Protein in water t=   0.00000 step= 0
325755
    1DC5    H5T    1  10.899   2.602   4.939
    1DC5    O5'    2  10.889   2.696   4.924
    1DC5    C5'    3  10.857   2.771   5.035
    1DC5   H5'1    4  10.751   2.757   5.056
    1DC5   H5'2    5  10.880   2.874   5.006
    1DC5    C4'    6  10.925   2.722   5.167
    1DC5    H4'    7  10.887   2.627   5.203
    1DC5    O4'    8  11.067   2.714   5.144
    1DC5    C1'    9  11.133   2.805   5.233
    1DC5    H1'   10  11.143   2.753   5.328
    1DC5     N1   11  11.262   2.844   5.177
    1DC5     C6   12  11.271   2.874   5.044
    1DC5     H6   13  11.182   2.865   4.983
    1DC5     C5   14  11.394   2.904   4.997
    1DC5     H5   15  11.410   2.907   4.890
    1DC5     C4   16  11.497   2.917   5.088
    1DC5     N4   17  11.609   2.946   5.042
    1DC5    H41   18  11.688   2.964   5.103
    1DC5    H42   19  11.611   2.975   4.945
    1DC5     N3   20  11.482   2.900   5.214
    1DC5     C2   21  11.368   2.862   5.268
    1DC5     O2   22  11.362   2.849   5.386
    1DC5    C3'   23  10.909   2.835   5.271
    1DC5    H3'   24  10.817   2.889   5.249
    1DC5    C2'   25  11.033   2.919   5.252
    1DC5   H2'1   26  11.020   2.980   5.162
    1DC5   H2'2   27  11.056   2.983   5.337
    1DC5    O3'   28  10.921   2.783   5.401
    2DG       P   29  10.798   2.746   5.495
    2DG     O1P   30  10.675   2.725   5.414
    2DG     O2P   31  10.837   2.646   5.589
    2DG     O5'   32  10.784   2.881   5.583
    2DG     C5'   33  10.900   2.921   5.663
    2DG    H5'1   34  10.990   2.876   5.622
    2DG    H5'2   35  10.883   2.891   5.767
    2DG     C4'   36  10.925   3.071   5.668
    2DG     H4'   37  11.002   3.085   5.744
    2DG     O4'   38  10.969   3.116   5.537
    2DG     C1'   39  10.907   3.246   5.516
    2DG     H1'   40  10.962   3.318   5.576
    2DG      N9   41  10.906   3.301   5.379
    2DG      C8   42  10.816   3.289   5.277
    2DG      H8   43  10.722   3.236   5.285
    2DG      N7   44  10.853   3.352   5.165
    2DG      C5   45  10.979   3.394   5.194
    2DG      C6   46  11.072   3.465   5.118
    2DG      O6   47  11.069   3.489   4.998
    2DG      N1   48  11.190   3.491   5.173
    2DG      H1   49  11.255   3.552   5.126
    2DG      C2   50  11.221   3.458   5.307
    2DG      N2   51  11.337   3.496   5.347
    2DG     H21   52  11.398   3.548   5.286
    2DG     H22   53  11.374   3.483   5.440
    2DG      N3   54  11.133   3.394   5.380
    2DG      C4   55  11.013   3.366   5.322
    2DG     C3'   56  10.801   3.162   5.707
    2DG     H3'   57  10.717   3.109   5.751
    2DG     C2'   58  10.765   3.231   5.573
    2DG    H2'1   59  10.710   3.160   5.511
    2DG    H2'2   60  10.730   3.331   5.599
    2DG     O3'   61  10.847   3.262   5.796
    3DC       P   62  10.847   3.255   5.947
    3DC     O1P   63  10.888   3.123   5.990
    3DC     O2P   64  10.718   3.311   5.996
    3DC     O5'   65  10.951   3.356   5.994
    3DC     C5'   66  11.092   3.339   5.948
    3DC    H5'1   67  11.095   3.261   5.872
    3DC    H5'2   68  11.147   3.303   6.035
    3DC     C4'   69  11.155   3.460   5.880
    3DC     H4'   70  11.262   3.441   5.874
    3DC     O4'   71  11.102   3.470   5.746
    3DC     C1'   72  11.070   3.607   5.729
    3DC     H1'   73  11.166   3.659   5.721
    3DC      N1   74  10.965   3.627   5.620
    3DC      C6   75  10.833   3.589   5.635
    3DC      H6   76  10.806   3.534   5.724
    3DC      C5   77  10.758   3.584   5.528
    3DC      H5   78  10.656   3.548   5.526
    3DC      C4   79  10.808   3.648   5.405
    3DC      N4   80  10.741   3.651   5.290
    3DC     H41   81  10.793   3.701   5.220
    3DC     H42   82  10.652   3.605   5.277
    3DC      N3   83  10.927   3.698   5.397
    3DC      C2   84  11.011   3.689   5.502
    3DC      O2   85  11.128   3.731   5.486
    3DC     C3'   86  11.131   3.590   5.965
    3DC     H3'   87  11.093   3.564   6.063
    3DC     C2'   88  11.020   3.647   5.868
    3DC    H2'1   89  10.923   3.604   5.891
    3DC    H2'2   90  11.017   3.756   5.872
    3DC     O3'   91  11.233   3.684   5.972
    4DA       P   92  11.234   3.791   6.089
    4DA     O1P   93  11.342   3.753   6.181
    4DA     O2P   94  11.101   3.797   6.143
    4DA     O5'   95  11.271   3.927   6.020
    4DA     C5'   96  11.390   3.941   5.944
    4DA    H5'1   97  11.405   3.848   5.889
    4DA    H5'2   98  11.468   3.950   6.020
    4DA     C4'   99  11.387   4.052   5.833
    4DA     H4'  100  11.489   4.065   5.798
    4DA     O4'  101  11.300   4.017   5.723
    4DA     C1'  102  11.213   4.127   5.697
    4DA     H1'  103  11.264   4.199   5.633
    4DA      N9  104  11.087   4.076   5.640
    4DA      C8  105  10.981   4.014   5.700
    4DA      H8  106  10.970   3.998   5.807
    4DA      N7  107  10.879   3.984   5.624
    4DA      C5  108  10.930   4.034   5.503
    4DA      C6  109  10.880   4.039   5.373
    4DA      N6  110  10.771   3.977   5.332
    4DA     H61  111  10.757   3.973   5.232
    4DA     H62  112  10.703   3.941   5.398
    4DA      N1  113  10.948   4.088   5.270
    4DA      C2  114  11.066   4.141   5.293
    4DA      H2  115  11.122   4.193   5.216
    4DA      N3  116  11.128   4.143   5.410
    4DA      C4  117  11.049   4.092   5.513
    4DA     C3'  118  11.328   4.180   5.894
    4DA     H3'  119  11.322   4.165   6.002
    4DA     C2'  120  11.190   4.196   5.825
    4DA    H2'1  121  11.118   4.157   5.896
    4DA    H2'2  122  11.162   4.298   5.800
    4DA     O3'  123  11.411   4.290   5.875
    5DT       P  124  11.386   4.426   5.961
    5DT     O1P  125  11.522   4.483   5.976
    5DT     O2P  126  11.311   4.404   6.085
    5DT     O5'  127  11.305   4.519   5.851
    5DT     C5'  128  11.355   4.536   5.720
    5DT    H5'1  129  11.402   4.445   5.682
    5DT    H5'2  130  11.435   4.610   5.721
    5DT     C4'  131  11.245   4.575   5.617
    5DT     H4'  132  11.299   4.597   5.525
    5DT     O4'  133  11.158   4.468   5.581
    5DT     C1'  134  11.043   4.535   5.529
    5DT     H1'  135  11.077   4.568   5.431
    5DT      N1  136  10.924   4.448   5.512
    5DT      C6  137  10.867   4.391   5.620
    5DT      H6  138  10.910   4.393   5.719
    5DT      C5  139  10.753   4.321   5.611
    5DT      C7  140  10.697   4.248   5.730
    5DT     H71  141  10.674   4.147   5.696
    5DT     H72  142  10.775   4.234   5.805
    5DT     H73  143  10.607   4.299   5.765
    5DT      C4  144  10.685   4.293   5.481
    5DT      O4  145  10.601   4.212   5.461
    5DT      N3  146  10.746   4.360   5.380
    5DT      H3  147  10.732   4.325   5.286
    5DT      C2  148  10.862   4.437   5.383
    5DT      O2  149  10.903   4.494   5.283
    5DT     C3'  150  11.162   4.703   5.653
    5DT     H3'  151  11.166   4.736   5.757
    5DT     C2'  152  11.023   4.658   5.613
    5DT    H2'1  153  10.966   4.634   5.703
    5DT    H2'2  154  10.962   4.732   5.562
    5DT     O3'  155  11.219   4.803   5.566
    6DG       P  156  11.155   4.942   5.521
    6DG     O1P  157  11.265   5.020   5.482
    6DG     O2P  158  11.059   4.993   5.620
    6DG     O5'  159  11.070   4.900   5.397
    6DG     C5'  160  11.126   4.844   5.281
    6DG    H5'1  161  11.103   4.738   5.277
    6DG    H5'2  162  11.232   4.869   5.280
    6DG     C4'  163  11.064   4.914   5.151
    6DG     H4'  164  11.135   4.900   5.070
    6DG     O4'  165  10.946   4.842   5.121
    6DG     C1'  166  10.827   4.906   5.165
    6DG     H1'  167  10.774   4.922   5.071
    6DG      N9  168  10.743   4.826   5.257
    6DG      C8  169  10.761   4.796   5.388
    6DG      H8  170  10.836   4.850   5.443
    6DG      N7  171  10.669   4.720   5.443
    6DG      C5  172  10.590   4.683   5.331
    6DG      C6  173  10.474   4.596   5.328
    6DG      O6  174  10.421   4.527   5.415
    6DG      N1  175  10.408   4.598   5.208
    6DG      H1  176  10.329   4.535   5.202
    6DG      C2  177  10.453   4.667   5.098
    6DG      N2  178  10.388   4.640   4.988
    6DG     H21  179  10.304   4.586   5.000
    6DG     H22  180  10.384   4.709   4.914
    6DG      N3  181  10.566   4.742   5.095
    6DG      C4  182  10.630   4.755   5.220
    6DG     C3'  183  11.014   5.059   5.161
    6DG     H3'  184  11.086   5.104   5.230
    6DG     C2'  185  10.870   5.046   5.222
    6DG    H2'1  186  10.876   5.038   5.330
    6DG    H2'2  187  10.797   5.123   5.199
    6DG     O3'  188  11.029   5.135   5.041
    7DT       P  189  10.970   5.281   5.019
    7DT     O1P  190  11.036   5.350   4.903
    7DT     O2P  191  10.962   5.357   5.141
    7DT     O5'  192  10.820   5.264   4.969
    7DT     C5'  193  10.798   5.186   4.850
    7DT    H5'1  194  10.856   5.095   4.861
    7DT    H5'2  195  10.845   5.235   4.765
    7DT     C4'  196  10.654   5.149   4.824
    7DT     H4'  197  10.639   5.101   4.727
    7DT     O4'  198  10.606   5.075   4.930
    7DT     C1'  199  10.463   5.090   4.936
    7DT     H1'  200  10.410   5.030   4.862
    7DT      N1  201  10.418   5.049   5.064
    7DT      C6  202  10.472   5.099   5.184
    7DT      H6  203  10.561   5.159   5.177
    7DT      C5  204  10.419   5.064   5.307
    7DT      C7  205  10.501   5.115   5.427
    7DT     H71  206  10.435   5.153   5.505
    7DT     H72  207  10.550   5.023   5.461
    7DT     H73  208  10.568   5.200   5.416
    7DT      C4  209  10.312   4.963   5.318
    7DT      O4  210  10.288   4.902   5.426
    7DT      N3  211  10.259   4.926   5.199
    7DT      H3  212  10.183   4.860   5.212
    7DT      C2  213  10.306   4.961   5.078
    7DT      O2  214  10.239   4.921   4.982
    7DT     C3'  215  10.565   5.279   4.824
    7DT     H3'  216  10.623   5.358   4.873
    7DT     C2'  217  10.442   5.234   4.903
    7DT    H2'1  218  10.443   5.287   4.998
    7DT    H2'2  219  10.348   5.251   4.850
    7DT     O3'  220  10.529   5.309   4.687
    8DG       P  221  10.449   5.438   4.654
    8DG     O1P  222  10.483   5.474   4.516
    8DG     O2P  223  10.465   5.544   4.755
    8DG     O5'  224  10.296   5.387   4.651
    8DG     C5'  225  10.260   5.273   4.567
    8DG    H5'1  226  10.338   5.202   4.596
    8DG    H5'2  227  10.262   5.304   4.463
    8DG     C4'  228  10.118   5.222   4.582
    8DG     H4'  229  10.115   5.147   4.503
    8DG     O4'  230  10.085   5.164   4.713
    8DG     C1'  231   9.982   5.235   4.773
    8DG     H1'  232   9.888   5.180   4.763
    8DG      N9  233  10.018   5.256   4.917
    8DG      C8  234  10.114   5.337   4.972
    8DG      H8  235  10.177   5.401   4.913
    8DG      N7  236  10.146   5.313   5.099
    8DG      C5  237  10.055   5.209   5.126
    8DG      C6  238  10.029   5.145   5.249
    8DG      O6  239  10.087   5.157   5.356
    8DG      N1  240   9.926   5.055   5.243
    8DG      H1  241   9.896   5.018   5.332
    8DG      C2  242   9.846   5.035   5.137
    8DG      N2  243   9.744   4.952   5.158
    8DG     H21  244   9.729   4.929   5.255
    8DG     H22  245   9.673   4.938   5.088
    8DG      N3  246   9.874   5.088   5.019
    8DG      C4  247   9.976   5.179   5.024
    8DG     C3'  248  10.004   5.327   4.550
    8DG     H3'  249  10.051   5.410   4.497
    8DG     C2'  250   9.968   5.365   4.695
    8DG    H2'1  251  10.048   5.429   4.731
    8DG    H2'2  252   9.869   5.410   4.700
    8DG     O3'  253   9.907   5.267   4.464
    9DC       P  254   9.761   5.336   4.444
    9DC     O1P  255   9.713   5.308   4.313
    9DC     O2P  256   9.780   5.479   4.483
    9DC     O5'  257   9.661   5.273   4.559
    9DC     C5'  258   9.638   5.133   4.574
    9DC    H5'1  259   9.714   5.087   4.638
    9DC    H5'2  260   9.641   5.086   4.476
    9DC     C4'  261   9.501   5.102   4.631
    9DC     H4'  262   9.468   5.002   4.602
    9DC     O4'  263   9.518   5.113   4.772
    9DC     C1'  264   9.467   5.233   4.824
    9DC     H1'  265   9.377   5.206   4.880
    9DC      N1  266   9.568   5.295   4.910
    9DC      C6  267   9.651   5.398   4.877
    9DC      H6  268   9.652   5.434   4.775
    9DC      C5  269   9.732   5.461   4.967
    9DC      H5  270   9.814   5.523   4.934
    9DC      C4  271   9.727   5.403   5.097
    9DC      N4  272   9.809   5.450   5.186
    9DC     H41  273   9.812   5.418   5.282
    9DC     H42  274   9.881   5.511   5.150
    9DC      N3  275   9.649   5.311   5.135
    9DC      C2  276   9.573   5.252   5.042
    9DC      O2  277   9.503   5.157   5.085
    9DC     C3'  278   9.384   5.203   4.609
    9DC     H3'  279   9.391   5.244   4.509
    9DC     C2'  280   9.410   5.314   4.707
    9DC    H2'1  281   9.470   5.402   4.683
    9DC    H2'2  282   9.316   5.359   4.740
    9DC     O3'  283   9.259   5.125   4.619
   10DG       P  284   9.114   5.177   4.565
   10DG     O1P  285   9.043   5.073   4.484
   10DG     O2P  286   9.133   5.307   4.504
   10DG     O5'  287   9.021   5.205   4.694
   10DG     C5'  288   9.008   5.105   4.793
   10DG    H5'1  289   9.083   5.027   4.780
   10DG    H5'2  290   8.908   5.061   4.789
   10DG     C4'  291   9.007   5.156   4.934
   10DG     H4'  292   8.992   5.073   5.003
   10DG     O4'  293   9.141   5.201   4.959
   10DG     C1'  294   9.119   5.303   5.061
   10DG     H1'  295   9.104   5.244   5.152
   10DG      N9  296   9.243   5.392   5.080
   10DG      C8  297   9.281   5.486   4.985
   10DG      H8  298   9.231   5.489   4.889
   10DG      N7  299   9.377   5.561   5.027
   10DG      C5  300   9.401   5.521   5.161
   10DG      C6  301   9.492   5.577   5.265
   10DG      O6  302   9.582   5.658   5.260
   10DG      N1  303   9.483   5.504   5.382
   10DG      H1  304   9.558   5.520   5.449
   10DG      C2  305   9.389   5.413   5.409
   10DG      N2  306   9.390   5.375   5.539
   10DG     H21  307   9.463   5.408   5.601
   10DG     H22  308   9.322   5.306   5.568
   10DG      N3  309   9.304   5.359   5.322
   10DG      C4  310   9.318   5.419   5.194
   10DG     C3'  311   8.906   5.270   4.952
   10DG     H3'  312   8.855   5.310   4.864
   10DG     C2'  313   8.982   5.379   5.014
   10DG    H2'1  314   9.004   5.464   4.950
   10DG    H2'2  315   8.933   5.429   5.097
   10DG     O3'  316   8.795   5.216   5.024
   11DT       P  317   8.690   5.290   5.127
   11DT     O1P  318   8.568   5.210   5.127
   11DT     O2P  319   8.670   5.429   5.086
   11DT     O5'  320   8.751   5.284   5.275
   11DT     C5'  321   8.814   5.172   5.328
   11DT    H5'1  322   8.892   5.140   5.260
   11DT    H5'2  323   8.744   5.089   5.344
   11DT     C4'  324   8.880   5.212   5.463
   11DT     H4'  325   8.912   5.125   5.519
   11DT     O4'  326   8.984   5.307   5.437
   11DT     C1'  327   8.976   5.415   5.525
   11DT     H1'  328   9.020   5.391   5.622
   11DT      N1  329   9.040   5.537   5.465
   11DT      C6  330   8.999   5.595   5.349
   11DT      H6  331   8.914   5.557   5.294
   11DT      C5  332   9.062   5.705   5.293
   11DT      C7  333   9.011   5.752   5.160
   11DT     H71  334   8.916   5.709   5.129
   11DT     H72  335   9.002   5.860   5.158
   11DT     H73  336   9.079   5.713   5.085
   11DT      C4  337   9.187   5.753   5.351
   11DT      O4  338   9.259   5.842   5.313
   11DT      N3  339   9.215   5.697   5.477
   11DT      H3  340   9.303   5.727   5.516
   11DT      C2  341   9.139   5.604   5.544
   11DT      O2  342   9.168   5.576   5.656
   11DT     C3'  343   8.781   5.277   5.556
   11DT     H3'  344   8.683   5.260   5.512
   11DT     C2'  345   8.825   5.426   5.550
   11DT    H2'1  346   8.784   5.480   5.465
   11DT    H2'2  347   8.811   5.479   5.644
   11DT     O3'  348   8.800   5.230   5.685
   12DA       P  349   8.693   5.265   5.804
   12DA     O1P  350   8.675   5.145   5.891
   12DA     O2P  351   8.574   5.325   5.734
   12DA     O5'  352   8.763   5.380   5.892
   12DA     C5'  353   8.685   5.460   5.980
   12DA    H5'1  354   8.601   5.402   6.018
   12DA    H5'2  355   8.629   5.533   5.922
   12DA     C4'  356   8.777   5.523   6.089
   12DA     H4'  357   8.807   5.447   6.162
   12DA     O4'  358   8.888   5.586   6.031
   12DA     C1'  359   8.866   5.726   6.012
   12DA     H1'  360   8.938   5.778   6.075
   12DA      N9  361   8.878   5.772   5.877
   12DA      C8  362   8.802   5.736   5.764
   12DA      H8  363   8.730   5.655   5.765
   12DA      N7  364   8.832   5.800   5.652
   12DA      C5  365   8.936   5.885   5.689
   12DA      C6  366   9.020   5.985   5.631
   12DA      N6  367   9.010   6.013   5.506
   12DA     H61  368   9.080   6.071   5.463
   12DA     H62  369   8.933   5.971   5.454
   12DA      N1  370   9.120   6.039   5.703
   12DA      C2  371   9.143   5.997   5.826
   12DA      H2  372   9.232   6.045   5.864
   12DA      N3  373   9.075   5.917   5.893
   12DA      C4  374   8.969   5.863   5.823
   12DA     C3'  375   8.695   5.627   6.162
   12DA     H3'  376   8.591   5.595   6.167
   12DA     C2'  377   8.727   5.752   6.078
   12DA    H2'1  378   8.653   5.789   6.007
   12DA    H2'2  379   8.737   5.831   6.153
   12DA     O3'  380   8.749   5.624   6.300
   13DT       P  381   8.705   5.723   6.427
   13DT     O1P  382   8.711   5.637   6.547
   13DT     O2P  383   8.575   5.790   6.391
   13DT     O5'  384   8.813   5.838   6.436
   13DT     C5'  385   8.947   5.796   6.451
   13DT    H5'1  386   8.969   5.718   6.378
   13DT    H5'2  387   8.967   5.758   6.551
   13DT     C4'  388   9.046   5.904   6.413
   13DT     H4'  389   9.145   5.860   6.423
   13DT     O4'  390   9.043   5.932   6.277
   13DT     C1'  391   9.062   6.076   6.268
   13DT     H1'  392   9.167   6.102   6.260
   13DT      N1  393   8.977   6.138   6.161
   13DT      C6  394   8.848   6.090   6.138
   13DT      H6  395   8.803   6.028   6.214
   13DT      C5  396   8.786   6.115   6.017
   13DT      C7  397   8.648   6.065   5.984
   13DT     H71  398   8.578   6.143   5.953
   13DT     H72  399   8.646   5.993   5.903
   13DT     H73  400   8.600   6.016   6.069
   13DT      C4  401   8.854   6.198   5.920
   13DT      O4  402   8.808   6.215   5.805
   13DT      N3  403   8.973   6.256   5.953
   13DT      H3  404   9.025   6.303   5.881
   13DT      C2  405   9.043   6.217   6.067
   13DT      O2  406   9.156   6.256   6.088
   13DT     C3'  407   9.038   6.023   6.499
   13DT     H3'  408   8.961   6.017   6.576
   13DT     C2'  409   9.023   6.141   6.402
   13DT    H2'1  410   8.920   6.172   6.389
   13DT    H2'2  411   9.082   6.229   6.428
   13DT     O3'  412   9.168   6.032   6.566
   14DT       P  413   9.198   6.133   6.689
   14DT     O1P  414   9.320   6.093   6.764
   14DT     O2P  415   9.065   6.146   6.757
   14DT     O5'  416   9.225   6.266   6.610
   14DT     C5'  417   9.339   6.277   6.531
   14DT    H5'1  418   9.326   6.207   6.449
   14DT    H5'2  419   9.425   6.236   6.583
   14DT     C4'  420   9.361   6.411   6.469
   14DT     H4'  421   9.461   6.423   6.426
   14DT     O4'  422   9.266   6.406   6.359
   14DT     C1'  423   9.188   6.528   6.366
   14DT     H1'  424   9.247   6.603   6.312
   14DT      N1  425   9.061   6.516   6.287
   14DT      C6  426   8.946   6.480   6.353
   14DT      H6  427   8.948   6.471   6.461
   14DT      C5  428   8.827   6.461   6.287
   14DT      C7  429   8.704   6.411   6.364
   14DT     H71  430   8.634   6.494   6.360
   14DT     H72  431   8.645   6.334   6.314
   14DT     H73  432   8.718   6.393   6.470
   14DT      C4  433   8.824   6.495   6.147
   14DT      O4  434   8.721   6.491   6.078
   14DT      N3  435   8.938   6.541   6.094
   14DT      H3  436   8.933   6.594   6.008
   14DT      C2  437   9.063   6.544   6.152
   14DT      O2  438   9.162   6.583   6.087
   14DT     C3'  439   9.315   6.520   6.567
   14DT     H3'  440   9.299   6.480   6.667
   14DT     C2'  441   9.183   6.567   6.514
   14DT    H2'1  442   9.105   6.517   6.570
   14DT    H2'2  443   9.172   6.675   6.519
   14DT     O3'  444   9.409   6.634   6.554
   15DA       P  445   9.424   6.749   6.658
   15DA     O1P  446   9.560   6.732   6.721
   15DA     O2P  447   9.310   6.750   6.746
   15DA     O5'  448   9.422   6.878   6.563
   15DA     C5'  449   9.539   6.916   6.500
   15DA    H5'1  450   9.586   6.835   6.445
   15DA    H5'2  451   9.611   6.959   6.570
   15DA     C4'  452   9.518   7.021   6.392
   15DA     H4'  453   9.615   7.029   6.343
   15DA     O4'  454   9.409   6.987   6.304
   15DA     C1'  455   9.306   7.072   6.316
   15DA     H1'  456   9.311   7.147   6.237
   15DA      N9  457   9.176   7.005   6.323
   15DA      C8  458   9.118   6.933   6.425
   15DA      H8  459   9.170   6.914   6.517
   15DA      N7  460   9.012   6.862   6.394
   15DA      C5  461   8.980   6.908   6.266
   15DA      C6  462   8.875   6.885   6.180
   15DA      N6  463   8.767   6.809   6.194
   15DA     H61  464   8.699   6.813   6.120
   15DA     H62  465   8.741   6.761   6.280
   15DA      N1  466   8.868   6.950   6.063
   15DA      C2  467   8.972   7.021   6.031
   15DA      H2  468   8.967   7.075   5.937
   15DA      N3  469   9.084   7.054   6.101
   15DA      C4  470   9.077   6.998   6.223
   15DA     C3'  471   9.486   7.153   6.471
   15DA     H3'  472   9.516   7.147   6.576
   15DA     C2'  473   9.332   7.149   6.445
   15DA    H2'1  474   9.302   7.094   6.535
   15DA    H2'2  475   9.278   7.243   6.447
   15DA     O3'  476   9.570   7.257   6.412
   16DT       P  477   9.520   7.409   6.388
   16DT     O1P  478   9.635   7.481   6.326
   16DT     O2P  479   9.468   7.467   6.515
   16DT     O5'  480   9.413   7.402   6.276
   16DT     C5'  481   9.444   7.385   6.138
   16DT    H5'1  482   9.458   7.281   6.110
   16DT    H5'2  483   9.521   7.460   6.116
   16DT     C4'  484   9.326   7.434   6.047
   16DT     H4'  485   9.342   7.429   5.940
   16DT     O4'  486   9.213   7.351   6.071
   16DT     C1'  487   9.095   7.430   6.102
   16DT     H1'  488   9.054   7.472   6.010
   16DT      N1  489   8.994   7.357   6.186
   16DT      C6  490   9.022   7.328   6.317
   16DT      H6  491   9.117   7.354   6.360
   16DT      C5  492   8.938   7.267   6.400
   16DT      C7  493   8.979   7.241   6.546
   16DT     H71  494   8.900   7.258   6.618
   16DT     H72  495   8.998   7.134   6.556
   16DT     H73  496   9.069   7.297   6.573
   16DT      C4  497   8.812   7.219   6.353
   16DT      O4  498   8.725   7.156   6.407
   16DT      N3  499   8.793   7.237   6.213
   16DT      H3  500   8.709   7.198   6.172
   16DT      C2  501   8.878   7.305   6.124
   16DT      O2  502   8.849   7.308   6.007
   16DT     C3'  503   9.276   7.575   6.078
   16DT     H3'  504   9.350   7.635   6.130
   16DT     C2'  505   9.152   7.554   6.168
   16DT    H2'1  506   9.184   7.533   6.270
   16DT    H2'2  507   9.080   7.636   6.167
   16DT     O3'  508   9.241   7.647   5.958
   17DA       P  509   9.240   7.806   5.951
   17DA     O1P  510   9.349   7.854   5.864
   17DA     O2P  511   9.217   7.869   6.079
   17DA     O5'  512   9.103   7.823   5.869
   17DA     C5'  513   9.085   7.753   5.748
   17DA    H5'1  514   9.094   7.645   5.759
   17DA    H5'2  515   9.160   7.796   5.682
   17DA     C4'  516   8.942   7.776   5.699
   17DA     H4'  517   8.937   7.741   5.596
   17DA     O4'  518   8.850   7.701   5.788
   17DA     C1'  519   8.747   7.787   5.843
   17DA     H1'  520   8.659   7.753   5.789
   17DA      N9  521   8.737   7.742   5.977
   17DA      C8  522   8.827   7.768   6.080
   17DA      H8  523   8.906   7.840   6.070
   17DA      N7  524   8.807   7.706   6.191
   17DA      C5  525   8.692   7.635   6.159
   17DA      C6  526   8.617   7.535   6.227
   17DA      N6  527   8.648   7.488   6.348
   17DA     H61  528   8.587   7.421   6.392
   17DA     H62  529   8.724   7.530   6.400
   17DA      N1  530   8.503   7.480   6.182
   17DA      C2  531   8.472   7.523   6.062
   17DA      H2  532   8.376   7.487   6.028
   17DA      N3  533   8.534   7.606   5.979
   17DA      C4  534   8.642   7.662   6.036
   17DA     C3'  535   8.881   7.921   5.696
   17DA     H3'  536   8.958   7.997   5.700
   17DA     C2'  537   8.791   7.924   5.820
   17DA    H2'1  538   8.865   7.956   5.893
   17DA    H2'2  539   8.712   8.000   5.822
   17DA     O3'  540   8.807   7.941   5.571
   18DC       P  541   8.744   8.077   5.530
   18DC     O1P  542   8.691   8.061   5.392
   18DC     O2P  543   8.849   8.179   5.550
   18DC     O5'  544   8.620   8.100   5.627
   18DC     C5'  545   8.500   8.026   5.614
   18DC    H5'1  546   8.524   7.920   5.622
   18DC    H5'2  547   8.439   8.046   5.526
   18DC     C4'  548   8.416   8.053   5.735
   18DC     H4'  549   8.313   8.026   5.710
   18DC     O4'  550   8.457   7.979   5.848
   18DC     C1'  551   8.444   8.058   5.965
   18DC     H1'  552   8.339   8.056   5.993
   18DC      N1  553   8.532   8.003   6.077
   18DC      C6  554   8.651   8.062   6.116
   18DC      H6  555   8.693   8.139   6.054
   18DC      C5  556   8.707   8.036   6.236
   18DC      H5  557   8.797   8.085   6.269
   18DC      C4  558   8.637   7.941   6.320
   18DC      N4  559   8.690   7.909   6.438
   18DC     H41  560   8.636   7.847   6.497
   18DC     H42  561   8.783   7.943   6.459
   18DC      N3  562   8.527   7.873   6.283
   18DC      C2  563   8.468   7.911   6.165
   18DC      O2  564   8.352   7.866   6.142
   18DC     C3'  565   8.421   8.202   5.776
   18DC     H3'  566   8.477   8.263   5.705
   18DC     C2'  567   8.483   8.192   5.907
   18DC    H2'1  568   8.591   8.204   5.898
   18DC    H2'2  569   8.455   8.282   5.963
   18DC     O3'  570   8.291   8.253   5.796
   19DA       P  571   8.230   8.365   5.702
   19DA     O1P  572   8.239   8.325   5.567
   19DA     O2P  573   8.281   8.499   5.742
   19DA     O5'  574   8.082   8.349   5.745
   19DA     C5'  575   7.996   8.241   5.703
   19DA    H5'1  576   7.924   8.284   5.633
   19DA    H5'2  577   8.068   8.172   5.660
   19DA     C4'  578   7.916   8.160   5.805
   19DA     H4'  579   7.876   8.076   5.750
   19DA     O4'  580   8.009   8.107   5.905
   19DA     C1'  581   7.967   8.143   6.041
   19DA     H1'  582   7.910   8.063   6.087
   19DA      N9  583   8.087   8.184   6.126
   19DA      C8  584   8.173   8.286   6.100
   19DA      H8  585   8.161   8.350   6.014
   19DA      N7  586   8.272   8.290   6.183
   19DA      C5  587   8.243   8.187   6.277
   19DA      C6  588   8.302   8.139   6.401
   19DA      N6  589   8.415   8.180   6.456
   19DA     H61  590   8.461   8.120   6.524
   19DA     H62  591   8.469   8.259   6.423
   19DA      N1  592   8.248   8.045   6.478
   19DA      C2  593   8.129   8.002   6.431
   19DA      H2  594   8.078   7.916   6.472
   19DA      N3  595   8.067   8.031   6.320
   19DA      C4  596   8.126   8.127   6.243
   19DA     C3'  597   7.807   8.231   5.892
   19DA     H3'  598   7.782   8.322   5.838
   19DA     C2'  599   7.872   8.259   6.024
   19DA    H2'1  600   7.914   8.360   6.013
   19DA    H2'2  601   7.798   8.275   6.103
   19DA     O3'  602   7.699   8.146   5.904
   20DT       P  603   7.559   8.191   5.959
   20DT     O1P  604   7.461   8.108   5.886
   20DT     O2P  605   7.543   8.333   5.931
   20DT     O5'  606   7.549   8.154   6.122
   20DT     C5'  607   7.592   8.030   6.156
   20DT    H5'1  608   7.680   7.999   6.100
   20DT    H5'2  609   7.509   7.961   6.140
   20DT     C4'  610   7.625   8.028   6.301
   20DT     H4'  611   7.650   7.925   6.328
   20DT     O4'  612   7.749   8.095   6.319
   20DT     C1'  613   7.760   8.133   6.455
   20DT     H1'  614   7.787   8.047   6.516
   20DT      N1  615   7.865   8.236   6.469
   20DT      C6  616   7.881   8.345   6.386
   20DT      H6  617   7.812   8.362   6.304
   20DT      C5  618   7.994   8.422   6.393
   20DT      C7  619   8.009   8.543   6.295
   20DT     H71  620   8.000   8.637   6.349
   20DT     H72  621   8.108   8.529   6.250
   20DT     H73  622   7.934   8.544   6.216
   20DT      C4  623   8.091   8.402   6.496
   20DT      O4  624   8.190   8.470   6.515
   20DT      N3  625   8.062   8.302   6.589
   20DT      H3  626   8.132   8.284   6.659
   20DT      C2  627   7.956   8.215   6.576
   20DT      O2  628   7.944   8.119   6.658
   20DT     C3'  629   7.526   8.097   6.402
   20DT     H3'  630   7.450   8.159   6.354
   20DT     C2'  631   7.623   8.190   6.485
   20DT    H2'1  632   7.601   8.289   6.448
   20DT    H2'2  633   7.604   8.204   6.592
   20DT     O3'  634   7.467   7.996   6.489
   21DG       P  635   7.376   8.030   6.609
   21DG     O1P  636   7.315   7.902   6.644
   21DG     O2P  637   7.285   8.141   6.590
   21DG     O5'  638   7.471   8.066   6.734
   21DG     C5'  639   7.429   8.147   6.844
   21DG    H5'1  640   7.333   8.112   6.881
   21DG    H5'2  641   7.406   8.251   6.820
   21DG     C4'  642   7.520   8.130   6.962
   21DG     H4'  643   7.507   8.027   6.998
   21DG     O4'  644   7.657   8.143   6.922
   21DG     C1'  645   7.707   8.255   6.990
   21DG     H1'  646   7.775   8.208   7.061
   21DG      N9  647   7.793   8.340   6.910
   21DG      C8  648   7.770   8.403   6.787
   21DG      H8  649   7.679   8.387   6.731
   21DG      N7  650   7.853   8.495   6.757
   21DG      C5  651   7.948   8.486   6.860
   21DG      C6  652   8.071   8.563   6.884
   21DG      O6  653   8.128   8.641   6.808
   21DG      N1  654   8.123   8.544   7.006
   21DG      H1  655   8.215   8.584   7.019
   21DG      C2  656   8.070   8.457   7.095
   21DG      N2  657   8.141   8.434   7.202
   21DG     H21  658   8.233   8.469   7.225
   21DG     H22  659   8.097   8.371   7.268
   21DG      N3  660   7.956   8.394   7.084
   21DG      C4  661   7.898   8.410   6.961
   21DG     C3'  662   7.495   8.220   7.082
   21DG     H3'  663   7.398   8.271   7.083
   21DG     C2'  664   7.598   8.332   7.061
   21DG    H2'1  665   7.569   8.415   6.996
   21DG    H2'2  666   7.633   8.367   7.158
   21DG     O3'  667   7.496   8.151   7.207
   22DT       P  668   7.419   8.208   7.338
   22DT     O1P  669   7.403   8.091   7.421
   22DT     O2P  670   7.300   8.279   7.295
   22DT     O5'  671   7.523   8.307   7.406
   22DT     C5'  672   7.622   8.249   7.488
   22DT    H5'1  673   7.679   8.171   7.438
   22DT    H5'2  674   7.582   8.214   7.583
   22DT     C4'  675   7.717   8.364   7.530
   22DT     H4'  676   7.800   8.325   7.589
   22DT     O4'  677   7.781   8.412   7.414
   22DT     C1'  678   7.780   8.554   7.429
   22DT     H1'  679   7.863   8.567   7.498
   22DT      N1  680   7.792   8.627   7.299
   22DT      C6  681   7.689   8.633   7.213
   22DT      H6  682   7.591   8.597   7.239
   22DT      C5  683   7.698   8.696   7.093
   22DT      C7  684   7.574   8.701   7.004
   22DT     H71  685   7.494   8.642   7.049
   22DT     H72  686   7.548   8.802   6.971
   22DT     H73  687   7.608   8.643   6.919
   22DT      C4  688   7.823   8.764   7.048
   22DT      O4  689   7.849   8.823   6.946
   22DT      N3  690   7.922   8.746   7.143
   22DT      H3  691   8.003   8.806   7.133
   22DT      C2  692   7.914   8.684   7.266
   22DT      O2  693   8.002   8.672   7.344
   22DT     C3'  694   7.641   8.476   7.611
   22DT     H3'  695   7.541   8.445   7.642
   22DT     C2'  696   7.647   8.585   7.499
   22DT    H2'1  697   7.563   8.570   7.432
   22DT    H2'2  698   7.632   8.684   7.543
   22DT     O3'  699   7.719   8.520   7.725
   23DA       P  700   7.644   8.578   7.863
   23DA     O1P  701   7.617   8.466   7.953
   23DA     O2P  702   7.541   8.671   7.826
   23DA     O5'  703   7.763   8.665   7.921
   23DA     C5'  704   7.884   8.604   7.967
   23DA    H5'1  705   7.914   8.528   7.895
   23DA    H5'2  706   7.862   8.546   8.057
   23DA     C4'  707   7.999   8.704   7.994
   23DA     H4'  708   8.072   8.645   8.050
   23DA     O4'  709   8.053   8.754   7.876
   23DA     C1'  710   8.013   8.888   7.861
   23DA     H1'  711   8.096   8.957   7.877
   23DA      N9  712   7.961   8.907   7.724
   23DA      C8  713   7.837   8.887   7.673
   23DA      H8  714   7.770   8.823   7.729
   23DA      N7  715   7.814   8.925   7.552
   23DA      C5  716   7.940   8.981   7.525
   23DA      C6  717   7.994   9.047   7.415
   23DA      N6  718   7.936   9.057   7.296
   23DA     H61  719   7.981   9.128   7.240
   23DA     H62  720   7.836   9.041   7.290
   23DA      N1  721   8.116   9.100   7.412
   23DA      C2  722   8.190   9.085   7.524
   23DA      H2  723   8.289   9.127   7.524
   23DA      N3  724   8.155   9.029   7.639
   23DA      C4  725   8.028   8.978   7.629
   23DA     C3'  726   7.945   8.826   8.075
   23DA     H3'  727   7.853   8.802   8.127
   23DA     C2'  728   7.908   8.928   7.966
   23DA    H2'1  729   7.806   8.908   7.935
   23DA    H2'2  730   7.930   9.031   7.993
   23DA     O3'  731   8.043   8.864   8.175
   24DC       P  732   8.023   8.995   8.268
   24DC     O1P  733   8.095   8.979   8.401
   24DC     O2P  734   7.880   9.027   8.271
   24DC     O5'  735   8.080   9.111   8.179
   24DC     C5'  736   8.221   9.108   8.137
   24DC    H5'1  737   8.250   9.010   8.101
   24DC    H5'2  738   8.287   9.126   8.222
   24DC     C4'  739   8.263   9.226   8.050
   24DC     H4'  740   8.371   9.220   8.032
   24DC     O4'  741   8.189   9.206   7.928
   24DC     C1'  742   8.136   9.329   7.882
   24DC     H1'  743   8.214   9.387   7.831
   24DC      N1  744   8.024   9.310   7.783
   24DC      C6  745   7.902   9.274   7.832
   24DC      H6  746   7.889   9.227   7.929
   24DC      C5  747   7.793   9.277   7.747
   24DC      H5  748   7.695   9.238   7.774
   24DC      C4  749   7.819   9.311   7.612
   24DC      N4  750   7.723   9.291   7.527
   24DC     H41  751   7.745   9.308   7.430
   24DC     H42  752   7.634   9.253   7.558
   24DC      N3  753   7.933   9.354   7.572
   24DC      C2  754   8.047   9.352   7.650
   24DC      O2  755   8.156   9.397   7.605
   24DC     C3'  756   8.232   9.375   8.091
   24DC     H3'  757   8.210   9.381   8.197
   24DC     C2'  758   8.111   9.398   8.009
   24DC    H2'1  759   8.023   9.356   8.058
   24DC    H2'2  760   8.096   9.505   7.995
   24DC     O3'  761   8.343   9.467   8.064
   25DG       P  762   8.323   9.621   8.108
   25DG     O1P  763   8.427   9.668   8.195
   25DG     O2P  764   8.181   9.654   8.140
   25DG     O5'  765   8.353   9.683   7.964
   25DG     C5'  766   8.475   9.660   7.885
   25DG    H5'1  767   8.461   9.561   7.841
   25DG    H5'2  768   8.569   9.661   7.940
   25DG     C4'  769   8.486   9.764   7.780
   25DG     H4'  770   8.587   9.755   7.741
   25DG     O4'  771   8.387   9.755   7.675
   25DG     C1'  772   8.291   9.864   7.687
   25DG     H1'  773   8.302   9.936   7.606
   25DG      N9  774   8.157   9.806   7.683
   25DG      C8  775   8.104   9.700   7.753
   25DG      H8  776   8.157   9.650   7.833
   25DG      N7  777   7.982   9.673   7.726
   25DG      C5  778   7.954   9.749   7.611
   25DG      C6  779   7.838   9.747   7.527
   25DG      O6  780   7.743   9.670   7.538
   25DG      N1  781   7.852   9.827   7.419
   25DG      H1  782   7.783   9.812   7.347
   25DG      C2  783   7.963   9.896   7.395
   25DG      N2  784   7.961   9.966   7.291
   25DG     H21  785   7.891   9.954   7.220
   25DG     H22  786   8.038  10.031   7.284
   25DG      N3  787   8.068   9.912   7.478
   25DG      C4  788   8.064   9.824   7.580
   25DG     C3'  789   8.469   9.908   7.838
   25DG     H3'  790   8.506   9.914   7.941
   25DG     C2'  791   8.317   9.938   7.821
   25DG    H2'1  792   8.254   9.901   7.902
   25DG    H2'2  793   8.308  10.046   7.807
   25DG     O3'  794   8.546  10.000   7.761
   26DC       P  795   8.576  10.152   7.818
   26DC     O1P  796   8.699  10.212   7.772
   26DC     O2P  797   8.559  10.157   7.961
   26DC     O5'  798   8.460  10.243   7.752
   26DC     C5'  799   8.463  10.264   7.613
   26DC    H5'1  800   8.490  10.172   7.562
   26DC    H5'2  801   8.531  10.345   7.587
   26DC     C4'  802   8.322  10.304   7.569
   26DC     H4'  803   8.311  10.313   7.461
   26DC     O4'  804   8.232  10.202   7.606
   26DC     C1'  805   8.115  10.260   7.638
   26DC     H1'  806   8.078  10.303   7.545
   26DC      N1  807   8.008  10.164   7.686
   26DC      C6  808   8.023  10.099   7.802
   26DC      H6  809   8.111  10.115   7.863
   26DC      C5  810   7.930  10.010   7.846
   26DC      H5  811   7.950   9.956   7.937
   26DC      C4  812   7.810   9.997   7.772
   26DC      N4  813   7.716   9.913   7.798
   26DC     H41  814   7.638   9.914   7.733
   26DC     H42  815   7.719   9.854   7.880
   26DC      N3  816   7.803  10.051   7.649
   26DC      C2  817   7.892  10.136   7.607
   26DC      O2  818   7.867  10.190   7.499
   26DC     C3'  819   8.263  10.423   7.643
   26DC     H3'  820   8.343  10.479   7.690
   26DC     C2'  821   8.160  10.373   7.736
   26DC    H2'1  822   8.197  10.323   7.826
   26DC    H2'2  823   8.087  10.452   7.756
   26DC     O3'  824   8.213  10.514   7.551
   27DA       P  825   8.315  10.617   7.495
   27DA     O1P  826   8.433  10.552   7.432
   27DA     O2P  827   8.344  10.725   7.599
   27DA     O5'  828   8.223  10.681   7.382
   27DA     C5'  829   8.207  10.633   7.250
   27DA    H5'1  830   8.221  10.525   7.249
   27DA    H5'2  831   8.290  10.665   7.188
   27DA     C4'  832   8.075  10.654   7.178
   27DA     H4'  833   8.094  10.644   7.071
   27DA     O4'  834   7.976  10.567   7.227
   27DA     C1'  835   7.876  10.638   7.292
   27DA     H1'  836   7.786  10.629   7.232
   27DA      N9  837   7.846  10.572   7.423
   27DA      C8  838   7.918  10.572   7.545
   27DA      H8  839   8.007  10.631   7.564
   27DA      N7  840   7.859  10.498   7.635
   27DA      C5  841   7.742  10.447   7.572
   27DA      C6  842   7.643  10.356   7.605
   27DA      N6  843   7.620  10.302   7.721
   27DA     H61  844   7.550  10.230   7.730
   27DA     H62  845   7.667  10.335   7.805
   27DA      N1  846   7.541  10.329   7.522
   27DA      C2  847   7.550  10.380   7.396
   27DA      H2  848   7.466  10.361   7.332
   27DA      N3  849   7.645  10.458   7.351
   27DA      C4  850   7.737  10.492   7.446
   27DA     C3'  851   8.009  10.789   7.184
   27DA     H3'  852   8.086  10.864   7.204
   27DA     C2'  853   7.920  10.781   7.304
   27DA    H2'1  854   7.970  10.788   7.401
   27DA    H2'2  855   7.843  10.857   7.297
   27DA     O3'  856   7.931  10.830   7.063
   28DT       P  857   7.843  10.964   7.060
   28DT     O1P  858   7.838  11.005   6.918
   28DT     O2P  859   7.877  11.067   7.159
   28DT     O5'  860   7.695  10.912   7.088
   28DT     C5'  861   7.607  10.850   6.995
   28DT    H5'1  862   7.659  10.760   6.961
   28DT    H5'2  863   7.594  10.921   6.913
   28DT     C4'  864   7.480  10.803   7.066
   28DT     H4'  865   7.420  10.744   6.997
   28DT     O4'  866   7.506  10.739   7.190
   28DT     C1'  867   7.404  10.785   7.276
   28DT     H1'  868   7.307  10.745   7.248
   28DT      N1  869   7.447  10.760   7.416
   28DT      C6  870   7.566  10.803   7.463
   28DT      H6  871   7.625  10.868   7.400
   28DT      C5  872   7.600  10.767   7.595
   28DT      C7  873   7.720  10.832   7.654
   28DT     H71  874   7.784  10.871   7.575
   28DT     H72  875   7.701  10.917   7.720
   28DT     H73  876   7.767  10.752   7.713
   28DT      C4  877   7.508  10.684   7.682
   28DT      O4  878   7.533  10.647   7.793
   28DT      N3  879   7.392  10.651   7.617
   28DT      H3  880   7.331  10.596   7.676
   28DT      C2  881   7.353  10.676   7.492
   28DT      O2  882   7.256  10.621   7.438
   28DT     C3'  883   7.407  10.936   7.093
   28DT     H3'  884   7.471  11.020   7.067
   28DT     C2'  885   7.400  10.939   7.247
   28DT    H2'1  886   7.490  10.993   7.275
   28DT    H2'2  887   7.314  10.993   7.286
   28DT     O3'  888   7.282  10.928   7.020
   29DA       P  889   7.170  11.044   7.028
   29DA     O1P  890   7.100  11.035   6.903
   29DA     O2P  891   7.245  11.167   7.058
   29DA     O5'  892   7.076  11.011   7.150
   29DA     C5'  893   7.020  10.883   7.156
   29DA    H5'1  894   7.103  10.813   7.150
   29DA    H5'2  895   6.966  10.866   7.063
   29DA     C4'  896   6.931  10.856   7.279
   29DA     H4'  897   6.872  10.770   7.245
   29DA     O4'  898   6.998  10.832   7.391
   29DA     C1'  899   6.942  10.898   7.503
   29DA     H1'  900   6.870  10.826   7.544
   29DA      N9  901   7.047  10.909   7.601
   29DA      C8  902   7.154  11.001   7.592
   29DA      H8  903   7.171  11.056   7.501
   29DA      N7  904   7.233  10.997   7.692
   29DA      C5  905   7.169  10.900   7.773
   29DA      C6  906   7.203  10.847   7.898
   29DA      N6  907   7.316  10.874   7.961
   29DA     H61  908   7.325  10.825   8.049
   29DA     H62  909   7.386  10.935   7.920
   29DA      N1  910   7.130  10.754   7.955
   29DA      C2  911   7.016  10.715   7.901
   29DA      H2  912   6.950  10.642   7.945
   29DA      N3  913   6.969  10.752   7.782
   29DA      C4  914   7.054  10.842   7.720
   29DA     C3'  915   6.830  10.965   7.304
   29DA     H3'  916   6.835  11.045   7.230
   29DA     C2'  917   6.867  11.015   7.442
   29DA    H2'1  918   6.925  11.106   7.429
   29DA    H2'2  919   6.791  11.044   7.515
   29DA     O3'  920   6.701  10.910   7.309
   30DT       P  921   6.569  10.999   7.319
   30DT     O1P  922   6.479  10.941   7.223
   30DT     O2P  923   6.595  11.146   7.312
   30DT     O5'  924   6.516  10.970   7.462
   30DT     C5'  925   6.499  10.836   7.505
   30DT    H5'1  926   6.576  10.774   7.459
   30DT    H5'2  927   6.404  10.800   7.466
   30DT     C4'  928   6.511  10.813   7.657
   30DT     H4'  929   6.493  10.709   7.685
   30DT     O4'  930   6.640  10.844   7.706
   30DT     C1'  931   6.620  10.906   7.831
   30DT     H1'  932   6.578  10.837   7.904
   30DT      N1  933   6.741  10.974   7.891
   30DT      C6  934   6.810  11.073   7.826
   30DT      H6  935   6.770  11.108   7.732
   30DT      C5  936   6.924  11.125   7.881
   30DT      C7  937   6.994  11.244   7.816
   30DT     H71  938   7.084  11.202   7.771
   30DT     H72  939   6.926  11.285   7.741
   30DT     H73  940   7.028  11.321   7.886
   30DT      C4  941   6.981  11.072   8.003
   30DT      O4  942   7.085  11.110   8.060
   30DT      N3  943   6.909  10.976   8.055
   30DT      H3  944   6.936  10.944   8.146
   30DT      C2  945   6.786  10.931   8.011
   30DT      O2  946   6.727  10.854   8.084
   30DT     C3'  947   6.414  10.900   7.744
   30DT     H3'  948   6.343  10.948   7.677
   30DT     C2'  949   6.504  11.007   7.804
   30DT    H2'1  950   6.527  11.083   7.729
   30DT    H2'2  951   6.461  11.049   7.895
   30DT     O3'  952   6.350  10.817   7.838
   31DG       P  953   6.211  10.869   7.900
   31DG     O1P  954   6.102  10.771   7.871
   31DG     O2P  955   6.180  11.008   7.869
   31DG     O5'  956   6.236  10.868   8.064
   31DG     C5'  957   6.234  10.750   8.144
   31DG    H5'1  958   6.308  10.682   8.102
   31DG    H5'2  959   6.135  10.705   8.133
   31DG     C4'  960   6.251  10.771   8.293
   31DG     H4'  961   6.223  10.678   8.342
   31DG     O4'  962   6.381  10.821   8.324
   31DG     C1'  963   6.363  10.947   8.380
   31DG     H1'  964   6.365  10.931   8.488
   31DG      N9  965   6.470  11.032   8.327
   31DG      C8  966   6.477  11.071   8.196
   31DG      H8  967   6.393  11.054   8.130
   31DG      N7  968   6.586  11.135   8.167
   31DG      C5  969   6.663  11.134   8.286
   31DG      C6  970   6.792  11.180   8.320
   31DG      O6  971   6.875  11.247   8.250
   31DG      N1  972   6.823  11.165   8.454
   31DG      H1  973   6.917  11.191   8.477
   31DG      C2  974   6.742  11.092   8.539
   31DG      N2  975   6.779  11.082   8.667
   31DG     H21  976   6.876  11.100   8.688
   31DG     H22  977   6.718  11.026   8.724
   31DG      N3  978   6.619  11.058   8.517
   31DG      C4  979   6.583  11.079   8.386
   31DG     C3'  980   6.140  10.874   8.337
   31DG     H3'  981   6.063  10.872   8.260
   31DG     C2'  982   6.225  10.997   8.348
   31DG    H2'1  983   6.220  11.045   8.250
   31DG    H2'2  984   6.188  11.060   8.429
   31DG     O3'  985   6.097  10.827   8.464
   32DC3      P  986   5.964  10.873   8.524
   32DC3    O1P  987   5.920  10.765   8.622
   32DC3    O2P  988   5.865  10.927   8.420
   32DC3    O5'  989   6.007  10.990   8.613
   32DC3    C5'  990   6.080  10.982   8.736
   32DC3   H5'1  991   6.160  10.908   8.741
   32DC3   H5'2  992   6.018  10.949   8.819
   32DC3    C4'  993   6.144  11.121   8.773
   32DC3    H4'  994   6.188  11.105   8.872
   32DC3    O4'  995   6.249  11.159   8.691
   32DC3    C1'  996   6.247  11.302   8.676
   32DC3    H1'  997   6.290  11.342   8.768
   32DC3     N1  998   6.345  11.350   8.572
   32DC3     C6  999   6.314  11.348   8.442
   32DC3     H6 1000   6.216  11.315   8.412
   32DC3     C5 1001   6.390  11.411   8.350
   32DC3     H5 1002   6.354  11.424   8.249
   32DC3     C4 1003   6.516  11.464   8.398
   32DC3     N4 1004   6.587  11.524   8.305
   32DC3    H41 1005   6.682  11.549   8.326
   32DC3    H42 1006   6.548  11.531   8.212
   32DC3     N3 1007   6.558  11.456   8.522
   32DC3     C2 1008   6.470  11.400   8.610
   32DC3     O2 1009   6.513  11.393   8.724
   32DC3    C3' 1010   6.045  11.233   8.773
   32DC3    H3' 1011   5.944  11.200   8.747
   32DC3    C2' 1012   6.098  11.328   8.666
   32DC3   H2'1 1013   6.061  11.286   8.572
   32DC3   H2'2 1014   6.072  11.432   8.687
   32DC3    O3' 1015   6.045  11.322   8.890
   32DC3    H3T 1016   5.980  11.390   8.872
   33DG5    H5T 1017   7.529  11.879   8.692
   33DG5    O5' 1018   7.442  11.844   8.712
   33DG5    C5' 1019   7.434  11.855   8.854
   33DG5   H5'1 1020   7.351  11.921   8.878
   33DG5   H5'2 1021   7.529  11.899   8.884
   33DG5    C4' 1022   7.404  11.725   8.928
   33DG5    H4' 1023   7.411  11.743   9.036
   33DG5    O4' 1024   7.274  11.685   8.882
   33DG5    C1' 1025   7.289  11.568   8.808
   33DG5    H1' 1026   7.253  11.481   8.862
   33DG5     N9 1027   7.214  11.572   8.685
   33DG5     C8 1028   7.247  11.632   8.572
   33DG5     H8 1029   7.343  11.673   8.544
   33DG5     N7 1030   7.163  11.620   8.476
   33DG5     C5 1031   7.052  11.567   8.542
   33DG5     C6 1032   6.921  11.536   8.496
   33DG5     O6 1033   6.870  11.552   8.384
   33DG5     N1 1034   6.840  11.468   8.590
   33DG5     H1 1035   6.747  11.452   8.555
   33DG5     C2 1036   6.877  11.460   8.723
   33DG5     N2 1037   6.797  11.397   8.796
   33DG5    H21 1038   6.700  11.406   8.769
   33DG5    H22 1039   6.813  11.374   8.893
   33DG5     N3 1040   6.998  11.486   8.769
   33DG5     C4 1041   7.084  11.538   8.671
   33DG5    C3' 1042   7.518  11.624   8.899
   33DG5    H3' 1043   7.610  11.664   8.856
   33DG5    C2' 1044   7.444  11.542   8.785
   33DG5   H2'1 1045   7.470  11.578   8.685
   33DG5   H2'2 1046   7.469  11.436   8.795
   33DG5    O3' 1047   7.543  11.542   9.013
   34DC       P 1048   7.657  11.432   9.020
   34DC     O1P 1049   7.703  11.421   9.160
   34DC     O2P 1050   7.755  11.455   8.913
   34DC     O5' 1051   7.577  11.298   8.979
   34DC     C5' 1052   7.485  11.238   9.063
   34DC    H5'1 1053   7.432  11.318   9.114
   34DC    H5'2 1054   7.536  11.184   9.143
   34DC     C4' 1055   7.383  11.135   9.005
   34DC     H4' 1056   7.318  11.107   9.087
   34DC     O4' 1057   7.302  11.203   8.909
   34DC     C1' 1058   7.300  11.115   8.793
   34DC     H1' 1059   7.227  11.036   8.810
   34DC      N1 1060   7.279  11.202   8.669
   34DC      C6 1061   7.376  11.264   8.590
   34DC      H6 1062   7.481  11.260   8.615
   34DC      C5 1063   7.342  11.305   8.468
   34DC      H5 1064   7.413  11.345   8.398
   34DC      C4 1065   7.204  11.298   8.430
   34DC      N4 1066   7.165  11.325   8.312
   34DC     H41 1067   7.073  11.293   8.284
   34DC     H42 1068   7.243  11.340   8.250
   34DC      N3 1069   7.104  11.258   8.508
   34DC      C2 1070   7.140  11.211   8.632
   34DC      O2 1071   7.050  11.160   8.700
   34DC     C3' 1072   7.454  11.016   8.940
   34DC     H3' 1073   7.559  10.995   8.962
   34DC     C2' 1074   7.452  11.060   8.797
   34DC    H2'1 1075   7.525  11.138   8.779
   34DC    H2'2 1076   7.458  10.975   8.729
   34DC     O3' 1077   7.367  10.902   8.958
   35DA       P 1078   7.414  10.775   9.039
   35DA     O1P 1079   7.429  10.811   9.183
   35DA     O2P 1080   7.524  10.721   8.962
   35DA     O5' 1081   7.286  10.682   9.029
   35DA     C5' 1082   7.169  10.720   9.091
   35DA    H5'1 1083   7.159  10.676   9.191
   35DA    H5'2 1084   7.161  10.828   9.092
   35DA     C4' 1085   7.047  10.675   9.015
   35DA     H4' 1086   6.968  10.697   9.087
   35DA     O4' 1087   7.026  10.762   8.902
   35DA     C1' 1088   7.027  10.690   8.781
   35DA     H1' 1089   6.922  10.683   8.753
   35DA      N9 1090   7.103  10.767   8.680
   35DA      C8 1091   7.239  10.796   8.673
   35DA      H8 1092   7.310  10.759   8.745
   35DA      N7 1093   7.272  10.868   8.573
   35DA      C5 1094   7.148  10.883   8.499
   35DA      C6 1095   7.108  10.942   8.375
   35DA      N6 1096   7.190  11.000   8.296
   35DA     H61 1097   7.153  11.037   8.209
   35DA     H62 1098   7.287  11.004   8.322
   35DA      N1 1099   6.984  10.924   8.333
   35DA      C2 1100   6.899  10.855   8.403
   35DA      H2 1101   6.799  10.833   8.368
   35DA      N3 1102   6.921  10.802   8.524
   35DA      C4 1103   7.049  10.816   8.561
   35DA     C3' 1104   7.046  10.531   8.959
   35DA     H3' 1105   7.114  10.459   9.005
   35DA     C2' 1106   7.077  10.549   8.812
   35DA    H2'1 1107   7.185  10.548   8.800
   35DA    H2'2 1108   7.034  10.476   8.744
   35DA     O3' 1109   6.909  10.489   8.967
   36DT       P 1110   6.867  10.342   8.993
   36DT     O1P 1111   6.730  10.341   9.045
   36DT     O2P 1112   6.971  10.268   9.069
   36DT     O5' 1113   6.860  10.276   8.841
   36DT     C5' 1114   6.765  10.330   8.743
   36DT    H5'1 1115   6.731  10.427   8.781
   36DT    H5'2 1116   6.673  10.273   8.748
   36DT     C4' 1117   6.813  10.340   8.601
   36DT     H4' 1118   6.723  10.366   8.545
   36DT     O4' 1119   6.897  10.441   8.564
   36DT     C1' 1120   6.951  10.403   8.437
   36DT     H1' 1121   6.872  10.408   8.362
   36DT      N1 1122   7.066  10.483   8.394
   36DT      C6 1123   7.192  10.474   8.458
   36DT      H6 1124   7.206  10.422   8.551
   36DT      C5 1125   7.299  10.553   8.403
   36DT      C7 1126   7.431  10.556   8.479
   36DT     H71 1127   7.475  10.656   8.485
   36DT     H72 1128   7.421  10.509   8.577
   36DT     H73 1129   7.499  10.492   8.423
   36DT      C4 1130   7.279  10.634   8.282
   36DT      O4 1131   7.356  10.703   8.217
   36DT      N3 1132   7.152  10.628   8.223
   36DT      H3 1133   7.148  10.667   8.130
   36DT      C2 1134   7.051  10.552   8.273
   36DT      O2 1135   6.945  10.553   8.213
   36DT     C3' 1136   6.864  10.211   8.546
   36DT     H3' 1137   6.893  10.144   8.626
   36DT     C2' 1138   6.983  10.261   8.463
   36DT    H2'1 1139   7.079  10.246   8.512
   36DT    H2'2 1140   6.993  10.194   8.377
   36DT     O3' 1141   6.754  10.139   8.477
   37DA       P 1142   6.768  10.023   8.376
   37DA     O1P 1143   6.644   9.941   8.383
   37DA     O2P 1144   6.896   9.951   8.408
   37DA     O5' 1145   6.781  10.119   8.250
   37DA     C5' 1146   6.665  10.195   8.204
   37DA    H5'1 1147   6.674  10.301   8.224
   37DA    H5'2 1148   6.570  10.156   8.240
   37DA     C4' 1149   6.649  10.184   8.051
   37DA     H4' 1150   6.553  10.227   8.023
   37DA     O4' 1151   6.740  10.273   7.988
   37DA     C1' 1152   6.845  10.200   7.920
   37DA     H1' 1153   6.835  10.215   7.813
   37DA      N9 1154   6.975  10.252   7.965
   37DA      C8 1155   7.051  10.207   8.075
   37DA      H8 1156   7.006  10.137   8.143
   37DA      N7 1157   7.172  10.256   8.078
   37DA      C5 1158   7.170  10.341   7.966
   37DA      C6 1159   7.266  10.423   7.897
   37DA      N6 1160   7.393  10.425   7.931
   37DA     H61 1161   7.448  10.491   7.879
   37DA     H62 1162   7.426  10.393   8.022
   37DA      N1 1163   7.237  10.486   7.785
   37DA      C2 1164   7.113  10.477   7.740
   37DA      H2 1165   7.085  10.536   7.655
   37DA      N3 1166   7.013  10.410   7.793
   37DA      C4 1167   7.052  10.341   7.901
   37DA     C3' 1168   6.673  10.043   7.988
   37DA     H3' 1169   6.652   9.964   8.060
   37DA     C2' 1170   6.823  10.051   7.951
   37DA    H2'1 1171   6.880  10.019   8.037
   37DA    H2'2 1172   6.855   9.992   7.865
   37DA     O3' 1173   6.581  10.047   7.877
   38DT       P 1174   6.591   9.941   7.764
   38DT     O1P 1175   6.452   9.922   7.719
   38DT     O2P 1176   6.664   9.821   7.817
   38DT     O5' 1177   6.686  10.001   7.647
   38DT     C5' 1178   6.649  10.112   7.569
   38DT    H5'1 1179   6.589  10.176   7.635
   38DT    H5'2 1180   6.577  10.069   7.500
   38DT     C4' 1181   6.763  10.173   7.497
   38DT     H4' 1182   6.721  10.268   7.465
   38DT     O4' 1183   6.867  10.188   7.585
   38DT     C1' 1184   6.980  10.190   7.499
   38DT     H1' 1185   6.988  10.291   7.457
   38DT      N1 1186   7.101  10.154   7.578
   38DT      C6 1187   7.097  10.053   7.671
   38DT      H6 1188   7.009   9.990   7.674
   38DT      C5 1189   7.200  10.044   7.759
   38DT      C7 1190   7.185   9.938   7.865
   38DT     H71 1191   7.093   9.879   7.860
   38DT     H72 1192   7.271   9.871   7.865
   38DT     H73 1193   7.174   9.997   7.956
   38DT      C4 1194   7.321  10.119   7.743
   38DT      O4 1195   7.424  10.126   7.814
   38DT      N3 1196   7.316  10.212   7.642
   38DT      H3 1197   7.395  10.273   7.628
   38DT      C2 1198   7.215  10.222   7.551
   38DT      O2 1199   7.225  10.300   7.457
   38DT     C3' 1200   6.801  10.082   7.379
   38DT     H3' 1201   6.754   9.985   7.399
   38DT     C2' 1202   6.950  10.074   7.401
   38DT    H2'1 1203   6.976   9.974   7.435
   38DT    H2'2 1204   7.009  10.087   7.311
   38DT     O3' 1205   6.771  10.131   7.248
   39DG       P 1206   6.719  10.041   7.131
   39DG     O1P 1207   6.661  10.134   7.036
   39DG     O2P 1208   6.635   9.932   7.186
   39DG     O5' 1209   6.842   9.972   7.062
   39DG     C5' 1210   6.935  10.053   6.980
   39DG    H5'1 1211   6.948  10.150   7.027
   39DG    H5'2 1212   6.890  10.074   6.883
   39DG     C4' 1213   7.082  10.008   6.964
   39DG     H4' 1214   7.115  10.074   6.884
   39DG     O4' 1215   7.157  10.017   7.086
   39DG     C1' 1216   7.223   9.892   7.096
   39DG     H1' 1217   7.316   9.903   7.040
   39DG      N9 1218   7.263   9.869   7.231
   39DG      C8 1219   7.204   9.796   7.327
   39DG      H8 1220   7.117   9.735   7.309
   39DG      N7 1221   7.265   9.787   7.440
   39DG      C5 1222   7.374   9.871   7.425
   39DG      C6 1223   7.478   9.905   7.523
   39DG      O6 1224   7.500   9.867   7.634
   39DG      N1 1225   7.574   9.991   7.469
   39DG      H1 1226   7.644  10.028   7.531
   39DG      C2 1227   7.569  10.040   7.337
   39DG      N2 1228   7.658  10.130   7.304
   39DG     H21 1229   7.720  10.169   7.374
   39DG     H22 1230   7.668  10.138   7.204
   39DG      N3 1231   7.470  10.015   7.252
   39DG      C4 1232   7.375   9.923   7.297
   39DG     C3' 1233   7.099   9.869   6.904
   39DG     H3' 1234   7.002   9.835   6.868
   39DG     C2' 1235   7.134   9.786   7.029
   39DG    H2'1 1236   7.052   9.776   7.099
   39DG    H2'2 1237   7.180   9.690   7.009
   39DG     O3' 1238   7.201   9.874   6.808
   40DC       P 1239   7.185   9.824   6.661
   40DC     O1P 1240   7.094   9.907   6.577
   40DC     O2P 1241   7.175   9.677   6.665
   40DC     O5' 1242   7.337   9.864   6.623
   40DC     C5' 1243   7.361  10.005   6.600
   40DC    H5'1 1244   7.289  10.070   6.649
   40DC    H5'2 1245   7.366  10.019   6.492
   40DC     C4' 1246   7.497  10.049   6.655
   40DC     H4' 1247   7.513  10.156   6.641
   40DC     O4' 1248   7.501  10.036   6.796
   40DC     C1' 1249   7.618   9.961   6.835
   40DC     H1' 1250   7.697  10.034   6.855
   40DC      N1 1251   7.595   9.877   6.957
   40DC      C6 1252   7.499   9.781   6.956
   40DC      H6 1253   7.435   9.770   6.870
   40DC      C5 1254   7.491   9.696   7.062
   40DC      H5 1255   7.411   9.624   7.058
   40DC      C4 1256   7.593   9.706   7.164
   40DC      N4 1257   7.582   9.646   7.280
   40DC     H41 1258   7.645   9.661   7.357
   40DC     H42 1259   7.510   9.577   7.295
   40DC      N3 1260   7.693   9.790   7.162
   40DC      C2 1261   7.694   9.877   7.058
   40DC      O2 1262   7.789   9.957   7.061
   40DC     C3' 1263   7.621   9.986   6.595
   40DC     H3' 1264   7.590   9.934   6.505
   40DC     C2' 1265   7.647   9.882   6.704
   40DC    H2'1 1266   7.583   9.795   6.688
   40DC    H2'2 1267   7.747   9.839   6.698
   40DC     O3' 1268   7.730  10.076   6.571
   41DG       P 1269   7.860  10.032   6.495
   41DG     O1P 1270   7.932  10.159   6.457
   41DG     O2P 1271   7.825   9.932   6.390
   41DG     O5' 1272   7.957   9.953   6.590
   41DG     C5' 1273   8.030  10.021   6.689
   41DG    H5'1 1274   7.972  10.094   6.745
   41DG    H5'2 1275   8.106  10.078   6.636
   41DG     C4' 1276   8.113   9.934   6.788
   41DG     H4' 1277   8.193   9.992   6.832
   41DG     O4' 1278   8.019   9.873   6.873
   41DG     C1' 1279   8.059   9.738   6.891
   41DG     H1' 1280   8.143   9.721   6.959
   41DG      N9 1281   7.953   9.650   6.943
   41DG      C8 1282   7.834   9.611   6.887
   41DG      H8 1283   7.810   9.615   6.782
   41DG      N7 1284   7.767   9.520   6.963
   41DG      C5 1285   7.841   9.509   7.077
   41DG      C6 1286   7.824   9.429   7.198
   41DG      O6 1287   7.733   9.351   7.230
   41DG      N1 1288   7.922   9.455   7.291
   41DG      H1 1289   7.926   9.395   7.372
   41DG      C2 1290   8.031   9.533   7.273
   41DG      N2 1291   8.122   9.525   7.365
   41DG     H21 1292   8.113   9.483   7.456
   41DG     H22 1293   8.198   9.592   7.363
   41DG      N3 1294   8.052   9.599   7.161
   41DG      C4 1295   7.952   9.588   7.066
   41DG     C3' 1296   8.196   9.818   6.721
   41DG     H3' 1297   8.200   9.838   6.614
   41DG     C2' 1298   8.094   9.701   6.754
   41DG    H2'1 1299   8.003   9.696   6.694
   41DG    H2'2 1300   8.139   9.602   6.752
   41DG     O3' 1301   8.325   9.802   6.778
   42DT       P 1302   8.445   9.709   6.720
   42DT     O1P 1303   8.524   9.782   6.611
   42DT     O2P 1304   8.380   9.580   6.678
   42DT     O5' 1305   8.547   9.664   6.832
   42DT     C5' 1306   8.623   9.757   6.909
   42DT    H5'1 1307   8.559   9.840   6.938
   42DT    H5'2 1308   8.716   9.791   6.863
   42DT     C4' 1309   8.652   9.686   7.048
   42DT     H4' 1310   8.692   9.764   7.112
   42DT     O4' 1311   8.530   9.633   7.108
   42DT     C1' 1312   8.538   9.501   7.129
   42DT     H1' 1313   8.575   9.476   7.228
   42DT      N1 1314   8.404   9.439   7.118
   42DT      C6 1315   8.339   9.435   6.998
   42DT      H6 1316   8.377   9.490   6.914
   42DT      C5 1317   8.228   9.360   6.981
   42DT      C7 1318   8.165   9.358   6.847
   42DT     H71 1319   8.074   9.418   6.849
   42DT     H72 1320   8.239   9.394   6.776
   42DT     H73 1321   8.124   9.260   6.819
   42DT      C4 1322   8.167   9.290   7.097
   42DT      O4 1323   8.060   9.232   7.095
   42DT      N3 1324   8.252   9.281   7.208
   42DT      H3 1325   8.219   9.223   7.284
   42DT      C2 1326   8.362   9.361   7.225
   42DT      O2 1327   8.417   9.360   7.335
   42DT     C3' 1328   8.746   9.568   7.052
   42DT     H3' 1329   8.823   9.559   6.976
   42DT     C2' 1330   8.650   9.452   7.032
   42DT    H2'1 1331   8.613   9.458   6.930
   42DT    H2'2 1332   8.689   9.358   7.069
   42DT     O3' 1333   8.808   9.550   7.182
   43DA       P 1334   8.948   9.471   7.196
   43DA     O1P 1335   9.005   9.492   7.328
   43DA     O2P 1336   9.043   9.495   7.081
   43DA     O5' 1337   8.905   9.317   7.189
   43DA     C5' 1338   8.843   9.258   7.300
   43DA    H5'1 1339   8.761   9.322   7.333
   43DA    H5'2 1340   8.912   9.243   7.383
   43DA     C4' 1341   8.789   9.117   7.269
   43DA     H4' 1342   8.775   9.066   7.364
   43DA     O4' 1343   8.657   9.127   7.212
   43DA     C1' 1344   8.652   9.021   7.125
   43DA     H1' 1345   8.639   8.935   7.191
   43DA      N9 1346   8.536   9.038   7.033
   43DA      C8 1347   8.524   9.071   6.899
   43DA      H8 1348   8.600   9.127   6.846
   43DA      N7 1349   8.405   9.057   6.849
   43DA      C5 1350   8.327   9.015   6.957
   43DA      C6 1351   8.197   8.968   6.983
   43DA      N6 1352   8.106   8.952   6.885
   43DA     H61 1353   8.026   8.892   6.901
   43DA     H62 1354   8.123   8.987   6.792
   43DA      N1 1355   8.156   8.908   7.096
   43DA      C2 1356   8.247   8.894   7.193
   43DA      H2 1357   8.206   8.853   7.285
   43DA      N3 1358   8.375   8.934   7.187
   43DA      C4 1359   8.410   8.985   7.063
   43DA     C3' 1360   8.876   9.038   7.177
   43DA     H3' 1361   8.963   9.099   7.153
   43DA     C2' 1362   8.786   9.025   7.053
   43DA    H2'1 1363   8.791   9.118   6.995
   43DA    H2'2 1364   8.801   8.931   7.000
   43DA     O3' 1365   8.907   8.916   7.230
   44DC       P 1366   9.024   8.891   7.335
   44DC     O1P 1367   9.035   9.014   7.414
   44DC     O2P 1368   9.136   8.841   7.265
   44DC     O5' 1369   8.971   8.778   7.427
   44DC     C5' 1370   8.853   8.790   7.511
   44DC    H5'1 1371   8.808   8.889   7.503
   44DC    H5'2 1372   8.889   8.771   7.612
   44DC     C4' 1373   8.753   8.671   7.490
   44DC     H4' 1374   8.698   8.667   7.584
   44DC     O4' 1375   8.668   8.699   7.385
   44DC     C1' 1376   8.641   8.577   7.325
   44DC     H1' 1377   8.575   8.521   7.390
   44DC      N1 1378   8.584   8.604   7.191
   44DC      C6 1379   8.659   8.645   7.088
   44DC      H6 1380   8.766   8.649   7.103
   44DC      C5 1381   8.604   8.688   6.976
   44DC      H5 1382   8.666   8.734   6.899
   44DC      C4 1383   8.463   8.681   6.967
   44DC      N4 1384   8.408   8.716   6.854
   44DC     H41 1385   8.312   8.687   6.840
   44DC     H42 1386   8.463   8.745   6.775
   44DC      N3 1387   8.382   8.633   7.064
   44DC      C2 1388   8.443   8.593   7.179
   44DC      O2 1389   8.374   8.546   7.275
   44DC     C3' 1390   8.810   8.533   7.476
   44DC     H3' 1391   8.918   8.531   7.492
   44DC     C2' 1392   8.775   8.500   7.336
   44DC    H2'1 1393   8.846   8.551   7.270
   44DC    H2'2 1394   8.766   8.395   7.306
   44DC     O3' 1395   8.755   8.451   7.578
   45DA       P 1396   8.760   8.285   7.586
   45DA     O1P 1397   8.754   8.245   7.733
   45DA     O2P 1398   8.870   8.236   7.501
   45DA     O5' 1399   8.622   8.250   7.507
   45DA     C5' 1400   8.497   8.277   7.569
   45DA    H5'1 1401   8.474   8.383   7.558
   45DA    H5'2 1402   8.514   8.252   7.674
   45DA     C4' 1403   8.381   8.180   7.522
   45DA     H4' 1404   8.309   8.196   7.602
   45DA     O4' 1405   8.322   8.224   7.400
   45DA     C1' 1406   8.346   8.119   7.301
   45DA     H1' 1407   8.251   8.070   7.278
   45DA      N9 1408   8.394   8.193   7.182
   45DA      C8 1409   8.513   8.258   7.155
   45DA      H8 1410   8.588   8.273   7.232
   45DA      N7 1411   8.528   8.308   7.036
   45DA      C5 1412   8.405   8.280   6.974
   45DA      C6 1413   8.343   8.307   6.857
   45DA      N6 1414   8.387   8.388   6.759
   45DA     H61 1415   8.321   8.415   6.687
   45DA     H62 1416   8.472   8.437   6.783
   45DA      N1 1417   8.222   8.266   6.824
   45DA      C2 1418   8.158   8.194   6.912
   45DA      H2 1419   8.057   8.162   6.894
   45DA      N3 1420   8.194   8.169   7.036
   45DA      C4 1421   8.320   8.217   7.065
   45DA     C3' 1422   8.422   8.035   7.516
   45DA     H3' 1423   8.511   8.006   7.572
   45DA     C2' 1424   8.446   8.023   7.367
   45DA    H2'1 1425   8.550   8.050   7.348
   45DA    H2'2 1426   8.441   7.918   7.340
   45DA     O3' 1427   8.308   7.966   7.565
   46DT       P 1428   8.291   7.806   7.565
   46DT     O1P 1429   8.179   7.781   7.660
   46DT     O2P 1430   8.426   7.749   7.595
   46DT     O5' 1431   8.258   7.770   7.418
   46DT     C5' 1432   8.131   7.793   7.363
   46DT    H5'1 1433   8.098   7.897   7.376
   46DT    H5'2 1434   8.055   7.735   7.416
   46DT     C4' 1435   8.117   7.759   7.213
   46DT     H4' 1436   8.010   7.760   7.189
   46DT     O4' 1437   8.178   7.858   7.131
   46DT     C1' 1438   8.225   7.784   7.021
   46DT     H1' 1439   8.148   7.751   6.951
   46DT      N1 1440   8.324   7.871   6.947
   46DT      C6 1441   8.451   7.900   6.987
   46DT      H6 1442   8.488   7.864   7.082
   46DT      C5 1443   8.537   7.968   6.905
   46DT      C7 1444   8.669   8.016   6.965
   46DT     H71 1445   8.659   8.023   7.074
   46DT     H72 1446   8.735   7.935   6.935
   46DT     H73 1447   8.704   8.111   6.925
   46DT      C4 1448   8.496   8.008   6.771
   46DT      O4 1449   8.559   8.060   6.679
   46DT      N3 1450   8.360   7.993   6.744
   46DT      H3 1451   8.318   8.016   6.655
   46DT      C2 1452   8.276   7.922   6.825
   46DT      O2 1453   8.161   7.905   6.781
   46DT     C3' 1454   8.180   7.623   7.185
   46DT     H3' 1455   8.221   7.581   7.276
   46DT     C2' 1456   8.285   7.655   7.079
   46DT    H2'1 1457   8.383   7.664   7.124
   46DT    H2'2 1458   8.286   7.576   7.003
   46DT     O3' 1459   8.092   7.533   7.128
   47DG       P 1460   8.091   7.384   7.160
   47DG     O1P 1461   8.008   7.376   7.282
   47DG     O2P 1462   8.234   7.340   7.166
   47DG     O5' 1463   8.017   7.304   7.030
   47DG     C5' 1464   7.891   7.334   6.987
   47DG    H5'1 1465   7.870   7.437   7.016
   47DG    H5'2 1466   7.826   7.270   7.045
   47DG     C4' 1467   7.865   7.324   6.839
   47DG     H4' 1468   7.759   7.345   6.822
   47DG     O4' 1469   7.943   7.410   6.750
   47DG     C1' 1470   8.047   7.338   6.689
   47DG     H1' 1471   8.013   7.324   6.586
   47DG      N9 1472   8.174   7.411   6.692
   47DG      C8 1473   8.270   7.412   6.795
   47DG      H8 1474   8.261   7.357   6.887
   47DG      N7 1475   8.375   7.488   6.766
   47DG      C5 1476   8.346   7.543   6.643
   47DG      C6 1477   8.425   7.632   6.569
   47DG      O6 1478   8.532   7.689   6.595
   47DG      N1 1479   8.365   7.673   6.453
   47DG      H1 1480   8.402   7.745   6.393
   47DG      C2 1481   8.246   7.628   6.411
   47DG      N2 1482   8.203   7.665   6.291
   47DG     H21 1483   8.258   7.732   6.238
   47DG     H22 1484   8.106   7.652   6.268
   47DG      N3 1485   8.165   7.546   6.486
   47DG      C4 1486   8.225   7.500   6.598
   47DG     C3' 1487   7.890   7.184   6.784
   47DG     H3' 1488   7.858   7.111   6.858
   47DG     C2' 1489   8.039   7.197   6.750
   47DG    H2'1 1490   8.102   7.192   6.838
   47DG    H2'2 1491   8.075   7.128   6.674
   47DG     O3' 1492   7.819   7.164   6.658
   48DT       P 1493   7.713   7.040   6.658
   48DT     O1P 1494   7.584   7.103   6.693
   48DT     O2P 1495   7.755   6.922   6.738
   48DT     O5' 1496   7.710   6.990   6.508
   48DT     C5' 1497   7.643   7.082   6.412
   48DT    H5'1 1498   7.622   7.179   6.456
   48DT    H5'2 1499   7.547   7.045   6.377
   48DT     C4' 1500   7.741   7.115   6.294
   48DT     H4' 1501   7.693   7.180   6.222
   48DT     O4' 1502   7.857   7.182   6.341
   48DT     C1' 1503   7.951   7.176   6.240
   48DT     H1' 1504   7.923   7.250   6.165
   48DT      N1 1505   8.086   7.207   6.296
   48DT      C6 1506   8.141   7.131   6.394
   48DT      H6 1507   8.079   7.049   6.428
   48DT      C5 1508   8.261   7.154   6.447
   48DT      C7 1509   8.306   7.053   6.557
   48DT     H71 1510   8.223   6.986   6.577
   48DT     H72 1511   8.390   6.990   6.528
   48DT     H73 1512   8.326   7.112   6.647
   48DT      C4 1513   8.348   7.257   6.405
   48DT      O4 1514   8.455   7.291   6.454
   48DT      N3 1515   8.297   7.324   6.296
   48DT      H3 1516   8.347   7.399   6.251
   48DT      C2 1517   8.170   7.310   6.243
   48DT      O2 1518   8.134   7.382   6.145
   48DT     C3' 1519   7.795   6.997   6.216
   48DT     H3' 1520   7.799   6.904   6.272
   48DT     C2' 1521   7.933   7.033   6.191
   48DT    H2'1 1522   7.989   6.963   6.253
   48DT    H2'2 1523   7.956   7.025   6.085
   48DT     O3' 1524   7.719   6.979   6.099
   49DA       P 1525   7.762   6.871   5.978
   49DA     O1P 1526   7.640   6.839   5.898
   49DA     O2P 1527   7.833   6.763   6.047
   49DA     O5' 1528   7.855   6.941   5.884
   49DA     C5' 1529   7.813   7.065   5.829
   49DA    H5'1 1530   7.800   7.131   5.915
   49DA    H5'2 1531   7.730   7.060   5.759
   49DA     C4' 1532   7.926   7.128   5.752
   49DA     H4' 1533   7.901   7.227   5.716
   49DA     O4' 1534   8.040   7.146   5.827
   49DA     C1' 1535   8.156   7.077   5.784
   49DA     H1' 1536   8.219   7.143   5.724
   49DA      N9 1537   8.218   7.036   5.906
   49DA      C8 1538   8.177   6.943   6.003
   49DA      H8 1539   8.088   6.883   5.990
   49DA      N7 1540   8.251   6.935   6.108
   49DA      C5 1541   8.351   7.026   6.076
   49DA      C6 1542   8.473   7.065   6.141
   49DA      N6 1543   8.514   7.026   6.255
   49DA     H61 1544   8.590   7.079   6.294
   49DA     H62 1545   8.473   6.953   6.312
   49DA      N1 1546   8.553   7.154   6.084
   49DA      C2 1547   8.527   7.204   5.964
   49DA      H2 1548   8.599   7.271   5.919
   49DA      N3 1549   8.422   7.170   5.887
   49DA      C4 1550   8.339   7.083   5.953
   49DA     C3' 1551   7.984   7.040   5.637
   49DA     H3' 1552   7.908   6.966   5.613
   49DA     C2' 1553   8.102   6.967   5.698
   49DA    H2'1 1554   8.070   6.888   5.766
   49DA    H2'2 1555   8.177   6.932   5.627
   49DA     O3' 1556   7.998   7.129   5.519
   50DT       P 1557   8.094   7.106   5.390
   50DT     O1P 1558   8.049   7.190   5.279
   50DT     O2P 1559   8.106   6.957   5.369
   50DT     O5' 1560   8.231   7.153   5.448
   50DT     C5' 1561   8.261   7.289   5.483
   50DT    H5'1 1562   8.219   7.311   5.581
   50DT    H5'2 1563   8.220   7.354   5.405
   50DT     C4' 1564   8.414   7.313   5.489
   50DT     H4' 1565   8.441   7.417   5.502
   50DT     O4' 1566   8.462   7.233   5.596
   50DT     C1' 1567   8.565   7.148   5.551
   50DT     H1' 1568   8.659   7.203   5.544
   50DT      N1 1569   8.576   7.029   5.644
   50DT      C6 1570   8.473   6.935   5.662
   50DT      H6 1571   8.384   6.943   5.601
   50DT      C5 1572   8.471   6.844   5.769
   50DT      C7 1573   8.365   6.742   5.787
   50DT     H71 1574   8.290   6.734   5.709
   50DT     H72 1575   8.418   6.646   5.786
   50DT     H73 1576   8.325   6.761   5.887
   50DT      C4 1577   8.582   6.850   5.860
   50DT      O4 1578   8.593   6.779   5.959
   50DT      N3 1579   8.690   6.934   5.831
   50DT      H3 1580   8.772   6.929   5.890
   50DT      C2 1581   8.689   7.021   5.725
   50DT      O2 1582   8.792   7.095   5.709
   50DT     C3' 1583   8.478   7.261   5.360
   50DT     H3' 1584   8.407   7.262   5.278
   50DT     C2' 1585   8.528   7.120   5.405
   50DT    H2'1 1586   8.456   7.039   5.398
   50DT    H2'2 1587   8.614   7.084   5.348
   50DT     O3' 1588   8.596   7.339   5.334
   51DA       P 1589   8.656   7.356   5.189
   51DA     O1P 1590   8.708   7.489   5.164
   51DA     O2P 1591   8.564   7.299   5.087
   51DA     O5' 1592   8.774   7.253   5.197
   51DA     C5' 1593   8.892   7.282   5.271
   51DA    H5'1 1594   8.868   7.330   5.366
   51DA    H5'2 1595   8.956   7.354   5.220
   51DA     C4' 1596   8.981   7.157   5.309
   51DA     H4' 1597   9.068   7.197   5.360
   51DA     O4' 1598   8.917   7.067   5.395
   51DA     C1' 1599   8.986   6.943   5.387
   51DA     H1' 1600   9.086   6.952   5.430
   51DA      N9 1601   8.902   6.839   5.457
   51DA      C8 1602   8.797   6.764   5.405
   51DA      H8 1603   8.761   6.781   5.304
   51DA      N7 1604   8.734   6.687   5.492
   51DA      C5 1605   8.814   6.704   5.608
   51DA      C6 1606   8.806   6.653   5.738
   51DA      N6 1607   8.722   6.555   5.784
   51DA     H61 1608   8.709   6.546   5.884
   51DA     H62 1609   8.665   6.497   5.724
   51DA      N1 1610   8.894   6.688   5.828
   51DA      C2 1611   8.990   6.770   5.800
   51DA      H2 1612   9.061   6.792   5.879
   51DA      N3 1613   9.006   6.832   5.683
   51DA      C4 1614   8.915   6.800   5.589
   51DA     C3' 1615   9.030   7.073   5.186
   51DA     H3' 1616   8.963   7.087   5.101
   51DA     C2' 1617   9.021   6.929   5.237
   51DA    H2'1 1618   8.931   6.888   5.190
   51DA    H2'2 1619   9.099   6.854   5.229
   51DA     O3' 1620   9.161   7.126   5.168
   52DA       P 1621   9.296   7.045   5.121
   52DA     O1P 1622   9.378   7.144   5.045
   52DA     O2P 1623   9.261   6.919   5.050
   52DA     O5' 1624   9.365   7.002   5.261
   52DA     C5' 1625   9.368   7.089   5.369
   52DA    H5'1 1626   9.265   7.111   5.399
   52DA    H5'2 1627   9.430   7.176   5.348
   52DA     C4' 1628   9.415   7.018   5.500
   52DA     H4' 1629   9.434   7.089   5.580
   52DA     O4' 1630   9.314   6.929   5.536
   52DA     C1' 1631   9.375   6.798   5.554
   52DA     H1' 1632   9.414   6.778   5.653
   52DA      N9 1633   9.281   6.693   5.518
   52DA      C8 1634   9.220   6.658   5.398
   52DA      H8 1635   9.251   6.716   5.313
   52DA      N7 1636   9.138   6.556   5.403
   52DA      C5 1637   9.148   6.517   5.538
   52DA      C6 1638   9.082   6.425   5.611
   52DA      N6 1639   8.971   6.360   5.572
   52DA     H61 1640   8.923   6.309   5.644
   52DA     H62 1641   8.932   6.373   5.479
   52DA      N1 1642   9.110   6.407   5.739
   52DA      C2 1643   9.201   6.490   5.792
   52DA      H2 1644   9.226   6.460   5.893
   52DA      N3 1645   9.260   6.597   5.740
   52DA      C4 1646   9.232   6.601   5.608
   52DA     C3' 1647   9.547   6.943   5.476
   52DA     H3' 1648   9.596   6.976   5.384
   52DA     C2' 1649   9.502   6.795   5.463
   52DA    H2'1 1650   9.478   6.777   5.358
   52DA    H2'2 1651   9.577   6.721   5.494
   52DA     O3' 1652   9.628   6.972   5.591
   53DT       P 1653   9.785   6.929   5.593
   53DT     O1P 1654   9.849   7.026   5.680
   53DT     O2P 1655   9.842   6.919   5.452
   53DT     O5' 1656   9.780   6.784   5.662
   53DT     C5' 1657   9.735   6.763   5.793
   53DT    H5'1 1658   9.642   6.817   5.808
   53DT    H5'2 1659   9.802   6.794   5.873
   53DT     C4' 1660   9.707   6.610   5.807
   53DT     H4' 1661   9.688   6.590   5.913
   53DT     O4' 1662   9.588   6.563   5.743
   53DT     C1' 1663   9.593   6.430   5.754
   53DT     H1' 1664   9.558   6.401   5.853
   53DT      N1 1665   9.508   6.353   5.659
   53DT      C6 1666   9.515   6.384   5.526
   53DT      H6 1667   9.586   6.463   5.505
   53DT      C5 1668   9.427   6.332   5.435
   53DT      C7 1669   9.452   6.377   5.291
   53DT     H71 1670   9.358   6.399   5.241
   53DT     H72 1671   9.521   6.460   5.282
   53DT     H73 1672   9.491   6.292   5.233
   53DT      C4 1673   9.324   6.237   5.481
   53DT      O4 1674   9.233   6.198   5.419
   53DT      N3 1675   9.329   6.207   5.619
   53DT      H3 1676   9.255   6.151   5.659
   53DT      C2 1677   9.419   6.254   5.712
   53DT      O2 1678   9.406   6.222   5.832
   53DT     C3' 1679   9.827   6.516   5.762
   53DT     H3' 1680   9.872   6.548   5.668
   53DT     C2' 1681   9.745   6.389   5.741
   53DT    H2'1 1682   9.769   6.348   5.644
   53DT    H2'2 1683   9.772   6.315   5.816
   53DT     O3' 1684   9.934   6.517   5.858
   54DA       P 1685  10.038   6.400   5.868
   54DA     O1P 1686  10.155   6.448   5.941
   54DA     O2P 1687  10.054   6.353   5.727
   54DA     O5' 1688   9.968   6.284   5.957
   54DA     C5' 1689   9.874   6.315   6.062
   54DA    H5'1 1690   9.816   6.399   6.023
   54DA    H5'2 1691   9.928   6.354   6.148
   54DA     C4' 1692   9.788   6.197   6.100
   54DA     H4' 1693   9.727   6.216   6.188
   54DA     O4' 1694   9.707   6.154   5.990
   54DA     C1' 1695   9.740   6.027   5.953
   54DA     H1' 1696   9.674   5.957   6.005
   54DA      N9 1697   9.716   6.016   5.809
   54DA      C8 1698   9.802   6.055   5.712
   54DA      H8 1699   9.884   6.123   5.730
   54DA      N7 1700   9.745   6.051   5.594
   54DA      C5 1701   9.624   5.976   5.616
   54DA      C6 1702   9.517   5.931   5.541
   54DA      N6 1703   9.498   5.942   5.411
   54DA     H61 1704   9.409   5.926   5.367
   54DA     H62 1705   9.569   5.977   5.348
   54DA      N1 1706   9.418   5.858   5.595
   54DA      C2 1707   9.420   5.827   5.726
   54DA      H2 1708   9.341   5.766   5.766
   54DA      N3 1709   9.515   5.872   5.811
   54DA      C4 1710   9.611   5.950   5.750
   54DA     C3' 1711   9.878   6.079   6.128
   54DA     H3' 1712   9.977   6.112   6.158
   54DA     C2' 1713   9.886   5.994   6.005
   54DA    H2'1 1714   9.961   6.035   5.938
   54DA    H2'2 1715   9.901   5.887   6.019
   54DA     O3' 1716   9.820   6.005   6.236
   55DC       P 1717   9.899   5.901   6.320
   55DC     O1P 1718   9.862   5.923   6.462
   55DC     O2P 1719  10.043   5.908   6.288
   55DC     O5' 1720   9.836   5.762   6.257
   55DC     C5' 1721   9.704   5.710   6.296
   55DC    H5'1 1722   9.634   5.794   6.299
   55DC    H5'2 1723   9.712   5.678   6.400
   55DC     C4' 1724   9.649   5.604   6.198
   55DC     H4' 1725   9.546   5.576   6.223
   55DC     O4' 1726   9.644   5.657   6.064
   55DC     C1' 1727   9.676   5.550   5.976
   55DC     H1' 1728   9.595   5.477   5.981
   55DC      N1 1729   9.708   5.594   5.837
   55DC      C6 1730   9.829   5.648   5.806
   55DC      H6 1731   9.906   5.665   5.879
   55DC      C5 1732   9.851   5.688   5.674
   55DC      H5 1733   9.943   5.734   5.640
   55DC      C4 1734   9.752   5.651   5.575
   55DC      N4 1735   9.783   5.683   5.451
   55DC     H41 1736   9.707   5.693   5.385
   55DC     H42 1737   9.879   5.695   5.423
   55DC      N3 1738   9.638   5.595   5.601
   55DC      C2 1739   9.613   5.566   5.735
   55DC      O2 1740   9.506   5.512   5.760
   55DC     C3' 1741   9.737   5.471   6.187
   55DC     H3' 1742   9.814   5.460   6.264
   55DC     C2' 1743   9.797   5.496   6.054
   55DC    H2'1 1744   9.872   5.575   6.062
   55DC    H2'2 1745   9.820   5.401   6.005
   55DC     O3' 1746   9.659   5.352   6.177
   56DG       P 1747   9.687   5.233   6.270
   56DG     O1P 1748   9.621   5.265   6.394
   56DG     O2P 1749   9.835   5.200   6.269
   56DG     O5' 1750   9.605   5.107   6.207
   56DG     C5' 1751   9.462   5.108   6.203
   56DG    H5'1 1752   9.438   5.215   6.207
   56DG    H5'2 1753   9.436   5.058   6.296
   56DG     C4' 1754   9.410   5.039   6.076
   56DG     H4' 1755   9.301   5.048   6.081
   56DG     O4' 1756   9.446   5.116   5.965
   56DG     C1' 1757   9.528   5.028   5.877
   56DG     H1' 1758   9.454   5.001   5.802
   56DG      N9 1759   9.634   5.113   5.809
   56DG      C8 1760   9.738   5.181   5.865
   56DG      H8 1761   9.764   5.190   5.969
   56DG      N7 1762   9.794   5.263   5.776
   56DG      C5 1763   9.737   5.233   5.650
   56DG      C6 1764   9.761   5.282   5.516
   56DG      O6 1765   9.840   5.364   5.477
   56DG      N1 1766   9.669   5.232   5.427
   56DG      H1 1767   9.662   5.278   5.337
   56DG      C2 1768   9.566   5.149   5.468
   56DG      N2 1769   9.497   5.091   5.376
   56DG     H21 1770   9.507   5.117   5.279
   56DG     H22 1771   9.433   5.017   5.403
   56DG      N3 1772   9.540   5.102   5.588
   56DG      C4 1773   9.634   5.144   5.672
   56DG     C3' 1774   9.460   4.897   6.061
   56DG     H3' 1775   9.503   4.861   6.154
   56DG     C2' 1776   9.569   4.913   5.959
   56DG    H2'1 1777   9.666   4.925   6.009
   56DG    H2'2 1778   9.576   4.825   5.894
   56DG     O3' 1779   9.355   4.812   6.019
   57DC       P 1780   9.358   4.655   6.045
   57DC     O1P 1781   9.220   4.614   6.080
   57DC     O2P 1782   9.456   4.618   6.149
   57DC     O5' 1783   9.402   4.580   5.907
   57DC     C5' 1784   9.331   4.594   5.783
   57DC    H5'1 1785   9.282   4.691   5.779
   57DC    H5'2 1786   9.254   4.517   5.788
   57DC     C4' 1787   9.426   4.590   5.658
   57DC     H4' 1788   9.367   4.573   5.568
   57DC     O4' 1789   9.522   4.697   5.651
   57DC     C1' 1790   9.639   4.638   5.609
   57DC     H1' 1791   9.619   4.595   5.511
   57DC      N1 1792   9.742   4.750   5.611
   57DC      C6 1793   9.820   4.769   5.726
   57DC      H6 1794   9.811   4.714   5.819
   57DC      C5 1795   9.909   4.868   5.722
   57DC      H5 1796   9.970   4.886   5.809
   57DC      C4 1797   9.923   4.944   5.602
   57DC      N4 1798  10.007   5.046   5.606
   57DC     H41 1799  10.008   5.103   5.523
   57DC     H42 1800  10.054   5.063   5.694
   57DC      N3 1801   9.859   4.918   5.490
   57DC      C2 1802   9.768   4.818   5.493
   57DC      O2 1803   9.704   4.788   5.388
   57DC     C3' 1804   9.513   4.465   5.676
   57DC     H3' 1805   9.488   4.401   5.760
   57DC     C2' 1806   9.652   4.523   5.700
   57DC    H2'1 1807   9.682   4.552   5.801
   57DC    H2'2 1808   9.728   4.449   5.673
   57DC     O3' 1809   9.526   4.385   5.556
   58DA       P 1810   9.449   4.248   5.531
   58DA     O1P 1811   9.317   4.257   5.597
   58DA     O2P 1812   9.545   4.143   5.577
   58DA     O5' 1813   9.428   4.240   5.374
   58DA     C5' 1814   9.361   4.330   5.290
   58DA    H5'1 1815   9.368   4.424   5.344
   58DA    H5'2 1816   9.255   4.308   5.276
   58DA     C4' 1817   9.431   4.344   5.150
   58DA     H4' 1818   9.361   4.385   5.077
   58DA     O4' 1819   9.543   4.433   5.170
   58DA     C1' 1820   9.666   4.363   5.147
   58DA     H1' 1821   9.714   4.381   5.051
   58DA      N9 1822   9.768   4.402   5.248
   58DA      C8 1823   9.779   4.366   5.380
   58DA      H8 1824   9.721   4.286   5.422
   58DA      N7 1825   9.875   4.435   5.437
   58DA      C5 1826   9.918   4.532   5.341
   58DA      C6 1827  10.021   4.628   5.331
   58DA      N6 1828  10.095   4.661   5.434
   58DA     H61 1829  10.168   4.730   5.426
   58DA     H62 1830  10.079   4.615   5.522
   58DA      N1 1831  10.038   4.705   5.220
   58DA      C2 1832   9.965   4.678   5.113
   58DA      H2 1833   9.979   4.730   5.020
   58DA      N3 1834   9.871   4.583   5.104
   58DA      C4 1835   9.850   4.515   5.222
   58DA     C3' 1836   9.490   4.214   5.100
   58DA     H3' 1837   9.432   4.127   5.132
   58DA     C2' 1838   9.637   4.211   5.145
   58DA    H2'1 1839   9.652   4.160   5.240
   58DA    H2'2 1840   9.704   4.165   5.072
   58DA     O3' 1841   9.489   4.207   4.954
   59DC       P 1842   9.518   4.074   4.877
   59DC     O1P 1843   9.435   4.063   4.754
   59DC     O2P 1844   9.515   3.961   4.967
   59DC     O5' 1845   9.668   4.099   4.820
   59DC     C5' 1846   9.701   4.212   4.739
   59DC    H5'1 1847   9.639   4.294   4.776
   59DC    H5'2 1848   9.673   4.182   4.638
   59DC     C4' 1849   9.844   4.250   4.742
   59DC     H4' 1850   9.868   4.326   4.667
   59DC     O4' 1851   9.881   4.293   4.872
   59DC     C1' 1852  10.010   4.246   4.902
   59DC     H1' 1853  10.089   4.297   4.846
   59DC      N1 1854  10.049   4.269   5.040
   59DC      C6 1855  10.016   4.178   5.143
   59DC      H6 1856   9.956   4.091   5.120
   59DC      C5 1857  10.065   4.196   5.265
   59DC      H5 1858  10.035   4.135   5.348
   59DC      C4 1859  10.157   4.309   5.280
   59DC      N4 1860  10.241   4.307   5.377
   59DC     H41 1861  10.311   4.379   5.377
   59DC     H42 1862  10.226   4.236   5.446
   59DC      N3 1863  10.198   4.389   5.183
   59DC      C2 1864  10.131   4.375   5.065
   59DC      O2 1865  10.148   4.466   4.982
   59DC     C3' 1866   9.934   4.132   4.716
   59DC     H3' 1867   9.881   4.044   4.680
   59DC     C2' 1868  10.002   4.101   4.847
   59DC    H2'1 1869   9.943   4.034   4.911
   59DC    H2'2 1870  10.104   4.067   4.834
   59DC     O3' 1871  10.039   4.167   4.621
   60DA       P 1872  10.008   4.163   4.466
   60DA     O1P 1873   9.877   4.224   4.427
   60DA     O2P 1874  10.038   4.026   4.414
   60DA     O5' 1875  10.122   4.268   4.420
   60DA     C5' 1876  10.256   4.233   4.428
   60DA    H5'1 1877  10.265   4.165   4.512
   60DA    H5'2 1878  10.287   4.180   4.338
   60DA     C4' 1879  10.345   4.351   4.446
   60DA     H4' 1880  10.303   4.431   4.385
   60DA     O4' 1881  10.330   4.383   4.585
   60DA     C1' 1882  10.453   4.377   4.655
   60DA     H1' 1883  10.496   4.476   4.665
   60DA      N9 1884  10.428   4.306   4.779
   60DA      C8 1885  10.336   4.203   4.807
   60DA      H8 1886  10.272   4.168   4.728
   60DA      N7 1887  10.339   4.169   4.930
   60DA      C5 1888  10.447   4.246   4.985
   60DA      C6 1889  10.508   4.255   5.116
   60DA      N6 1890  10.464   4.185   5.222
   60DA     H61 1891  10.507   4.202   5.312
   60DA     H62 1892  10.381   4.130   5.206
   60DA      N1 1893  10.604   4.338   5.139
   60DA      C2 1894  10.651   4.407   5.036
   60DA      H2 1895  10.744   4.462   5.040
   60DA      N3 1896  10.616   4.402   4.909
   60DA      C4 1897  10.502   4.325   4.890
   60DA     C3' 1898  10.493   4.325   4.426
   60DA     H3' 1899  10.508   4.240   4.358
   60DA     C2' 1900  10.542   4.292   4.566
   60DA    H2'1 1901  10.529   4.186   4.588
   60DA    H2'2 1902  10.646   4.319   4.585
   60DA     O3' 1903  10.561   4.437   4.369
   61DT       P 1904  10.666   4.424   4.250
   61DT     O1P 1905  10.680   4.552   4.189
   61DT     O2P 1906  10.631   4.308   4.169
   61DT     O5' 1907  10.789   4.382   4.349
   61DT     C5' 1908  10.873   4.481   4.412
   61DT    H5'1 1909  10.815   4.568   4.444
   61DT    H5'2 1910  10.943   4.522   4.340
   61DT     C4' 1911  10.960   4.427   4.526
   61DT     H4' 1912  11.016   4.515   4.559
   61DT     O4' 1913  10.883   4.374   4.633
   61DT     C1' 1914  10.969   4.280   4.699
   61DT     H1' 1915  11.039   4.341   4.756
   61DT      N1 1916  10.887   4.196   4.788
   61DT      C6 1917  10.799   4.110   4.734
   61DT      H6 1918  10.780   4.107   4.627
   61DT      C5 1919  10.718   4.038   4.817
   61DT      C7 1920  10.607   3.960   4.752
   61DT     H71 1921  10.513   4.002   4.788
   61DT     H72 1922  10.627   3.941   4.646
   61DT     H73 1923  10.606   3.859   4.792
   61DT      C4 1924  10.734   4.045   4.962
   61DT      O4 1925  10.663   3.993   5.045
   61DT      N3 1926  10.836   4.122   5.006
   61DT      H3 1927  10.842   4.132   5.106
   61DT      C2 1928  10.908   4.204   4.927
   61DT      O2 1929  10.988   4.282   4.971
   61DT     C3' 1930  11.056   4.315   4.473
   61DT     H3' 1931  11.015   4.279   4.379
   61DT     C2' 1932  11.049   4.211   4.591
   61DT    H2'1 1933  11.001   4.120   4.555
   61DT    H2'2 1934  11.148   4.181   4.625
   61DT     O3' 1935  11.189   4.363   4.459
   62DG       P 1936  11.302   4.279   4.395
   62DG     O1P 1937  11.394   4.378   4.337
   62DG     O2P 1938  11.242   4.179   4.300
   62DG     O5' 1939  11.375   4.194   4.511
   62DG     C5' 1940  11.453   4.252   4.609
   62DG    H5'1 1941  11.395   4.330   4.657
   62DG    H5'2 1942  11.549   4.292   4.575
   62DG     C4' 1943  11.494   4.134   4.708
   62DG     H4' 1944  11.572   4.174   4.773
   62DG     O4' 1945  11.380   4.082   4.779
   62DG     C1' 1946  11.377   3.943   4.775
   62DG     H1' 1947  11.446   3.896   4.844
   62DG      N9 1948  11.237   3.884   4.796
   62DG      C8 1949  11.135   3.856   4.710
   62DG      H8 1950  11.145   3.864   4.603
   62DG      N7 1951  11.020   3.820   4.769
   62DG      C5 1952  11.058   3.821   4.902
   62DG      C6 1953  10.972   3.789   5.015
   62DG      O6 1954  10.859   3.752   5.024
   62DG      N1 1955  11.049   3.783   5.135
   62DG      H1 1956  11.006   3.764   5.225
   62DG      C2 1957  11.182   3.816   5.138
   62DG      N2 1958  11.247   3.796   5.247
   62DG     H21 1959  11.195   3.758   5.325
   62DG     H22 1960  11.347   3.809   5.246
   62DG      N3 1961  11.251   3.867   5.041
   62DG      C4 1962  11.187   3.859   4.918
   62DG     C3' 1963  11.555   4.013   4.637
   62DG     H3' 1964  11.585   4.035   4.535
   62DG     C2' 1965  11.437   3.908   4.635
   62DG    H2'1 1966  11.366   3.943   4.561
   62DG    H2'2 1967  11.466   3.805   4.618
   62DG     O3' 1968  11.663   3.962   4.712
   63DC       P 1969  11.812   4.018   4.693
   63DC     O1P 1970  11.807   4.162   4.668
   63DC     O2P 1971  11.878   3.940   4.590
   63DC     O5' 1972  11.882   3.987   4.838
   63DC     C5' 1973  11.866   4.066   4.957
   63DC    H5'1 1974  11.782   4.135   4.948
   63DC    H5'2 1975  11.959   4.120   4.974
   63DC     C4' 1976  11.834   3.976   5.071
   63DC     H4' 1977  11.822   4.044   5.156
   63DC     O4' 1978  11.719   3.910   5.050
   63DC     C1' 1979  11.742   3.778   5.071
   63DC     H1' 1980  11.745   3.746   5.175
   63DC      N1 1981  11.632   3.709   4.998
   63DC      C6 1982  11.629   3.688   4.864
   63DC      H6 1983  11.711   3.729   4.806
   63DC      C5 1984  11.531   3.629   4.801
   63DC      H5 1985  11.538   3.612   4.695
   63DC      C4 1986  11.411   3.600   4.879
   63DC      N4 1987  11.310   3.545   4.822
   63DC     H41 1988  11.226   3.530   4.876
   63DC     H42 1989  11.314   3.537   4.722
   63DC      N3 1990  11.415   3.629   5.010
   63DC      C2 1991  11.524   3.675   5.075
   63DC      O2 1992  11.521   3.696   5.193
   63DC     C3' 1993  11.942   3.874   5.101
   63DC     H3' 1994  12.035   3.905   5.054
   63DC     C2' 1995  11.883   3.755   5.025
   63DC    H2'1 1996  11.886   3.767   4.917
   63DC    H2'2 1997  11.907   3.654   5.058
   63DC     O3' 1998  11.961   3.837   5.232
   64DG3      P 1999  12.075   3.733   5.275
   64DG3    O1P 2000  12.110   3.779   5.412
   64DG3    O2P 2001  12.181   3.730   5.175
   64DG3    O5' 2002  11.998   3.590   5.275
   64DG3    C5' 2003  11.911   3.557   5.380
   64DG3   H5'1 2004  11.833   3.632   5.389
   64DG3   H5'2 2005  11.978   3.562   5.466
   64DG3    C4' 2006  11.846   3.413   5.368
   64DG3    H4' 2007  11.791   3.375   5.454
   64DG3    O4' 2008  11.757   3.429   5.259
   64DG3    C1' 2009  11.755   3.311   5.185
   64DG3    H1' 2010  11.698   3.241   5.247
   64DG3     N9 2011  11.686   3.334   5.054
   64DG3     C8 2012  11.732   3.357   4.925
   64DG3     H8 2013  11.833   3.387   4.902
   64DG3     N7 2014  11.645   3.334   4.831
   64DG3     C5 2015  11.534   3.302   4.904
   64DG3     C6 2016  11.403   3.257   4.866
   64DG3     O6 2017  11.363   3.250   4.752
   64DG3     N1 2018  11.319   3.209   4.961
   64DG3     H1 2019  11.223   3.195   4.933
   64DG3     C2 2020  11.354   3.218   5.090
   64DG3     N2 2021  11.260   3.181   5.168
   64DG3    H21 2022  11.180   3.132   5.130
   64DG3    H22 2023  11.271   3.183   5.268
   64DG3     N3 2024  11.475   3.262   5.136
   64DG3     C4 2025  11.555   3.307   5.035
   64DG3    C3' 2026  11.955   3.303   5.321
   64DG3    H3' 2027  12.057   3.340   5.325
   64DG3    C2' 2028  11.908   3.282   5.172
   64DG3   H2'1 2029  11.959   3.355   5.110
   64DG3   H2'2 2030  11.932   3.179   5.146
   64DG3    O3' 2031  11.940   3.185   5.395
   64DG3    H3T 2032  12.030   3.164   5.422
   65SOL     OW 2033   4.402   9.159  13.865
   65SOL    HW1 2034   4.345   9.168  13.789
   65SOL    HW2 2035   4.394   9.067  13.890
   66SOL     OW 2036   7.446   3.995  11.034
   66SOL    HW1 2037   7.536   3.980  11.007
   66SOL    HW2 2038   7.438   4.090  11.042
   67SOL     OW 2039   6.651   1.659   3.998
   67SOL    HW1 2040   6.663   1.611   3.916
   67SOL    HW2 2041   6.639   1.590   4.064
   68SOL     OW 2042   4.047  12.262   9.648
   68SOL    HW1 2043   4.071  12.172   9.672
   68SOL    HW2 2044   4.107  12.284   9.577
   69SOL     OW 2045  14.474   6.929   8.808
   69SOL    HW1 2046  14.498   7.019   8.789
   69SOL    HW2 2047  14.387   6.918   8.769
   70SOL     OW 2048   5.422   6.943   9.764
   70SOL    HW1 2049   5.426   6.899   9.680
   70SOL    HW2 2050   5.501   6.914   9.810
   71SOL     OW 2051   8.389  12.917   9.010
   71SOL    HW1 2052   8.373  12.976   8.936
   71SOL    HW2 2053   8.434  12.842   8.972
   72SOL     OW 2054   9.885   6.375   7.754
   72SOL    HW1 2055   9.849   6.445   7.700
   72SOL    HW2 2056   9.877   6.407   7.844
   73SOL     OW 2057   0.361   0.181  11.052
   73SOL    HW1 2058   0.292   0.118  11.072
   73SOL    HW2 2059   0.415   0.184  11.131
   74SOL     OW 2060  10.737   1.527   5.238
   74SOL    HW1 2061  10.787   1.460   5.192
   74SOL    HW2 2062  10.651   1.527   5.195
   75SOL     OW 2063   2.693   8.195  12.091
   75SOL    HW1 2064   2.690   8.115  12.039
   75SOL    HW2 2065   2.670   8.265  12.029
   76SOL     OW 2066   4.194   1.549   3.652
   76SOL    HW1 2067   4.173   1.586   3.737
   76SOL    HW2 2068   4.219   1.458   3.671
   77SOL     OW 2069   7.791   6.756   8.058
   77SOL    HW1 2070   7.717   6.758   7.997
   77SOL    HW2 2071   7.815   6.664   8.063
   78SOL     OW 2072  10.021   2.734   9.587
   78SOL    HW1 2073   9.968   2.659   9.613
   78SOL    HW2 2074  10.093   2.697   9.536
   79SOL     OW 2075   6.615   7.663   2.071
   79SOL    HW1 2076   6.555   7.626   2.007
   79SOL    HW2 2077   6.602   7.610   2.150
   80SOL     OW 2078   0.927   0.998   2.421
   80SOL    HW1 2079   0.974   0.995   2.504
   80SOL    HW2 2080   0.942   1.086   2.387
   81SOL     OW 2081  12.547   5.538   0.670
   81SOL    HW1 2082  12.608   5.515   0.740
   81SOL    HW2 2083  12.501   5.615   0.703
   82SOL     OW 2084  12.079   0.269  11.566
   82SOL    HW1 2085  12.037   0.193  11.527
   82SOL    HW2 2086  12.134   0.304  11.496
   83SOL     OW 2087   6.911  11.003  14.686
   83SOL    HW1 2088   6.832  11.020  14.635
   83SOL    HW2 2089   6.928  10.909  14.672
   84SOL     OW 2090   5.076  13.549  13.485
   84SOL    HW1 2091   5.067  13.618  13.551
   84SOL    HW2 2092   5.082  13.596  13.402
   85SOL     OW 2093   1.709   2.915   3.720
   85SOL    HW1 2094   1.620   2.951   3.714
   85SOL    HW2 2095   1.699   2.837   3.775
   86SOL     OW 2096   3.152   8.268   2.391
   86SOL    HW1 2097   3.148   8.363   2.395
   86SOL    HW2 2098   3.194   8.242   2.472
   87SOL     OW 2099   8.749  14.680  11.411
   87SOL    HW1 2100   8.820  14.711  11.467
   87SOL    HW2 2101   8.672  14.727  11.442
   88SOL     OW 2102   1.357  14.310   8.581
   88SOL    HW1 2103   1.402  14.316   8.497
   88SOL    HW2 2104   1.355  14.216   8.601
   89SOL     OW 2105  13.817   8.569   1.590
   89SOL    HW1 2106  13.728   8.602   1.599
   89SOL    HW2 2107  13.806   8.474   1.584
   90SOL     OW 2108   4.366   5.433  10.809
   90SOL    HW1 2109   4.291   5.407  10.863
   90SOL    HW2 2110   4.436   5.374  10.834
   91SOL     OW 2111   5.035   3.449   7.571
   91SOL    HW1 2112   5.115   3.400   7.553
   91SOL    HW2 2113   5.015   3.430   7.663
   92SOL     OW 2114   9.459   5.420  10.310
   92SOL    HW1 2115   9.401   5.378  10.246
   92SOL    HW2 2116   9.458   5.512  10.286
   93SOL     OW 2117   1.665  13.718   7.103
   93SOL    HW1 2118   1.585  13.746   7.059
   93SOL    HW2 2119   1.693  13.640   7.056
   94SOL     OW 2120  13.571  11.068  11.053
   94SOL    HW1 2121  13.505  11.118  11.101
   94SOL    HW2 2122  13.559  11.094  10.962
   95SOL     OW 2123   3.205   9.138   9.037
   95SOL    HW1 2124   3.144   9.204   9.070
   95SOL    HW2 2125   3.223   9.082   9.113
   96SOL     OW 2126   3.414  13.185   2.855
   96SOL    HW1 2127   3.391  13.273   2.824
   96SOL    HW2 2128   3.331  13.139   2.860
   97SOL     OW 2129   1.098   2.122   2.286
   97SOL    HW1 2130   1.006   2.149   2.287
   97SOL    HW2 2131   1.141   2.184   2.227
   98SOL     OW 2132   8.864  14.664   0.732
   98SOL    HW1 2133   8.879  14.574   0.703
   98SOL    HW2 2134   8.939  14.713   0.699
   99SOL     OW 2135   4.211   3.032   5.347
   99SOL    HW1 2136   4.247   3.121   5.342
   99SOL    HW2 2137   4.194   3.018   5.440
  100SOL     OW 2138  11.188   4.630  12.149
  100SOL    HW1 2139  11.140   4.672  12.078
  100SOL    HW2 2140  11.275   4.669  12.147
  101SOL     OW 2141  11.605   9.701   8.892
  101SOL    HW1 2142  11.636   9.611   8.881
  101SOL    HW2 2143  11.649   9.750   8.823
  102SOL     OW 2144  11.449  14.110   5.139
  102SOL    HW1 2145  11.369  14.115   5.087
  102SOL    HW2 2146  11.476  14.019   5.133
  103SOL     OW 2147  11.111   9.819   1.151
  103SOL    HW1 2148  11.094   9.762   1.226
  103SOL    HW2 2149  11.201   9.799   1.125
  104SOL     OW 2150   7.944  11.896   4.363
  104SOL    HW1 2151   7.991  11.978   4.373
  104SOL    HW2 2152   7.857  11.921   4.333
  105SOL     OW 2153   4.791   5.201   0.832
  105SOL    HW1 2154   4.783   5.268   0.900
  105SOL    HW2 2155   4.728   5.134   0.858
  106SOL     OW 2156   7.705   5.382   9.478
  106SOL    HW1 2157   7.614   5.407   9.492
  106SOL    HW2 2158   7.722   5.314   9.543
  107SOL     OW 2159  11.513   8.790  14.477
  107SOL    HW1 2160  11.573   8.765  14.547
  107SOL    HW2 2161  11.426   8.771  14.513
  108SOL     OW 2162   7.712   3.567   8.477
  108SOL    HW1 2163   7.641   3.562   8.541
  108SOL    HW2 2164   7.669   3.598   8.397
  109SOL     OW 2165   1.182   1.275  12.503
  109SOL    HW1 2166   1.098   1.259  12.458
  109SOL    HW2 2167   1.222   1.347  12.454
  110SOL     OW 2168  14.353   6.158   6.788
  110SOL    HW1 2169  14.416   6.087   6.804
  110SOL    HW2 2170  14.405   6.238   6.798
  111SOL     OW 2171  10.631  11.306   5.247
  111SOL    HW1 2172  10.616  11.265   5.332
  111SOL    HW2 2173  10.575  11.257   5.187
  112SOL     OW 2174   8.743   1.252   5.538
  112SOL    HW1 2175   8.692   1.182   5.579
  112SOL    HW2 2176   8.722   1.330   5.589
  113SOL     OW 2177  13.247  13.268   2.092
  113SOL    HW1 2178  13.159  13.302   2.108
  113SOL    HW2 2179  13.241  13.175   2.113
  114SOL     OW 2180  13.686   0.484   1.055
  114SOL    HW1 2181  13.709   0.422   1.125
  114SOL    HW2 2182  13.735   0.563   1.076
  115SOL     OW 2183  11.718  13.518   3.390
  115SOL    HW1 2184  11.647  13.454   3.385
  115SOL    HW2 2185  11.699  13.580   3.319
  116SOL     OW 2186   0.524  10.539  13.536
  116SOL    HW1 2187   0.535  10.601  13.463
  116SOL    HW2 2188   0.450  10.485  13.510
  117SOL     OW 2189   6.275   2.695  10.743
  117SOL    HW1 2190   6.281   2.779  10.789
  117SOL    HW2 2191   6.187   2.663  10.762
  118SOL     OW 2192   2.206   8.467  12.319
  118SOL    HW1 2193   2.205   8.494  12.227
  118SOL    HW2 2194   2.179   8.375  12.318
  119SOL     OW 2195   5.615   1.206   3.569
  119SOL    HW1 2196   5.639   1.225   3.660
  119SOL    HW2 2197   5.523   1.229   3.563
  120SOL     OW 2198  10.825  12.731   7.181
  120SOL    HW1 2199  10.745  12.781   7.167
  120SOL    HW2 2200  10.854  12.755   7.269
  121SOL     OW 2201   0.025   8.952   5.320
  121SOL    HW1 2202  14.826   8.898   5.326
  121SOL    HW2 2203  14.877   9.032   5.276
  122SOL     OW 2204   8.843  10.611   1.955
  122SOL    HW1 2205   8.859  10.516   1.960
  122SOL    HW2 2206   8.791  10.631   2.033
  123SOL     OW 2207   1.436   1.050   5.531
  123SOL    HW1 2208   1.365   1.106   5.500
  123SOL    HW2 2209   1.484   1.105   5.594
  124SOL     OW 2210   3.017   9.337  12.339
  124SOL    HW1 2211   2.982   9.251  12.359
  124SOL    HW2 2212   2.962   9.370  12.268
  125SOL     OW 2213   0.938  11.592   6.462
  125SOL    HW1 2214   0.911  11.651   6.392
  125SOL    HW2 2215   0.987  11.647   6.523
  126SOL     OW 2216   3.781  11.625   6.161
  126SOL    HW1 2217   3.760  11.540   6.200
  126SOL    HW2 2218   3.761  11.688   6.230
  127SOL     OW 2219   4.657  11.142   9.903
  127SOL    HW1 2220   4.574  11.190   9.899
  127SOL    HW2 2221   4.665  11.102   9.816
  128SOL     OW 2222   8.521   2.379   2.136
  128SOL    HW1 2223   8.437   2.392   2.180
  128SOL    HW2 2224   8.540   2.286   2.147
  129SOL     OW 2225   8.858  10.969   6.593
  129SOL    HW1 2226   8.936  10.924   6.560
  129SOL    HW2 2227   8.785  10.926   6.549
  130SOL     OW 2228  11.198   9.420  13.723
  130SOL    HW1 2229  11.178   9.422  13.630
  130SOL    HW2 2230  11.286   9.457  13.730
  131SOL     OW 2231  11.066   3.869  10.572
  131SOL    HW1 2232  11.014   3.941  10.538
  131SOL    HW2 2233  11.141   3.911  10.614
  132SOL     OW 2234   9.047   0.323   0.436
  132SOL    HW1 2235   9.061   0.350   0.527
  132SOL    HW2 2236   8.964   0.276   0.438
  133SOL     OW 2237   2.293  11.436   5.580
  133SOL    HW1 2238   2.229  11.454   5.511
  133SOL    HW2 2239   2.247  11.380   5.642
  134SOL     OW 2240  14.680   6.938  11.140
  134SOL    HW1 2241  14.678   6.991  11.219
  134SOL    HW2 2242  14.644   6.853  11.167
  135SOL     OW 2243  11.323  12.985   7.946
  135SOL    HW1 2244  11.353  12.899   7.976
  135SOL    HW2 2245  11.247  12.966   7.891
  136SOL     OW 2246   9.719   4.743   1.581
  136SOL    HW1 2247   9.642   4.724   1.634
  136SOL    HW2 2248   9.776   4.667   1.594
  137SOL     OW 2249   6.525  12.804  11.193
  137SOL    HW1 2250   6.511  12.709  11.189
  137SOL    HW2 2251   6.438  12.842  11.182
  138SOL     OW 2252   3.638  10.567  11.650
  138SOL    HW1 2253   3.658  10.488  11.600
  138SOL    HW2 2254   3.552  10.550  11.689
  139SOL     OW 2255   4.183   5.402  14.401
  139SOL    HW1 2256   4.163   5.335  14.336
  139SOL    HW2 2257   4.251   5.363  14.456
  140SOL     OW 2258  10.026   3.369   8.046
  140SOL    HW1 2259   9.981   3.443   8.087
  140SOL    HW2 2260  10.038   3.396   7.955
  141SOL     OW 2261   0.037  10.347   2.420
  141SOL    HW1 2262   0.111  10.307   2.374
  141SOL    HW2 2263   0.036  10.437   2.390
  142SOL     OW 2264  14.183   7.802   2.394
  142SOL    HW1 2265  14.271   7.824   2.426
  142SOL    HW2 2266  14.182   7.835   2.304
  143SOL     OW 2267  11.335   0.127   9.948
  143SOL    HW1 2268  11.274   0.183   9.996
  143SOL    HW2 2269  11.279   0.079   9.887
  144SOL     OW 2270   0.703  12.984  13.728
  144SOL    HW1 2271   0.667  13.072  13.739
  144SOL    HW2 2272   0.700  12.946  13.816
  145SOL     OW 2273   5.204  12.449   9.121
  145SOL    HW1 2274   5.163  12.374   9.165
  145SOL    HW2 2275   5.289  12.416   9.092
  146SOL     OW 2276  14.329   5.700   7.332
  146SOL    HW1 2277  14.294   5.613   7.314
  146SOL    HW2 2278  14.416   5.684   7.369
  147SOL     OW 2279   8.465  12.579   6.896
  147SOL    HW1 2280   8.535  12.531   6.851
  147SOL    HW2 2281   8.400  12.595   6.829
  148SOL     OW 2282   7.935   0.483   0.410
  148SOL    HW1 2283   8.028   0.469   0.428
  148SOL    HW2 2284   7.934   0.541   0.334
  149SOL     OW 2285   7.531  14.717   6.240
  149SOL    HW1 2286   7.502  14.633   6.278
  149SOL    HW2 2287   7.511  14.708   6.147
  150SOL     OW 2288   1.618   8.044   8.902
  150SOL    HW1 2289   1.682   8.084   8.842
  150SOL    HW2 2290   1.542   8.026   8.847
  151SOL     OW 2291   6.496   6.323  14.186
  151SOL    HW1 2292   6.502   6.359  14.274
  151SOL    HW2 2293   6.563   6.254  14.183
  152SOL     OW 2294   3.803  14.699   7.024
  152SOL    HW1 2295   3.742  14.653   6.967
  152SOL    HW2 2296   3.832  14.775   6.973
  153SOL     OW 2297   3.736   4.412   1.409
  153SOL    HW1 2298   3.730   4.384   1.318
  153SOL    HW2 2299   3.767   4.503   1.403
  154SOL     OW 2300  13.360   4.538   6.696
  154SOL    HW1 2301  13.407   4.500   6.770
  154SOL    HW2 2302  13.428   4.562   6.634
  155SOL     OW 2303   8.501   8.259  10.513
  155SOL    HW1 2304   8.414   8.219  10.515
  155SOL    HW2 2305   8.528   8.262  10.605
  156SOL     OW 2306   2.516  14.328   6.629
  156SOL    HW1 2307   2.499  14.366   6.543
  156SOL    HW2 2308   2.449  14.260   6.639
  157SOL     OW 2309  10.493   9.041   1.794
  157SOL    HW1 2310  10.476   8.946   1.798
  157SOL    HW2 2311  10.464   9.067   1.707
  158SOL     OW 2312   4.965   6.753   4.486
  158SOL    HW1 2313   4.909   6.724   4.558
  158SOL    HW2 2314   5.034   6.687   4.481
  159SOL     OW 2315   7.829   0.932   1.781
  159SOL    HW1 2316   7.749   0.882   1.797
  159SOL    HW2 2317   7.898   0.866   1.782
  160SOL     OW 2318   1.117   0.143   8.981
  160SOL    HW1 2319   1.161   0.209   9.035
  160SOL    HW2 2320   1.172   0.065   8.990
  161SOL     OW 2321  11.025  10.639   5.087
  161SOL    HW1 2322  10.951  10.597   5.130
  161SOL    HW2 2323  10.985  10.705   5.030
  162SOL     OW 2324  14.513   8.377   2.017
  162SOL    HW1 2325  14.482   8.466   2.036
  162SOL    HW2 2326  14.482   8.359   1.928
  163SOL     OW 2327   1.854   4.259  10.316
  163SOL    HW1 2328   1.831   4.276  10.225
  163SOL    HW2 2329   1.940   4.216  10.312
  164SOL     OW 2330   3.211   0.377  13.114
  164SOL    HW1 2331   3.124   0.394  13.077
  164SOL    HW2 2332   3.272   0.403  13.045
  165SOL     OW 2333   5.735   2.529   5.163
  165SOL    HW1 2334   5.740   2.624   5.154
  165SOL    HW2 2335   5.718   2.515   5.256
  166SOL     OW 2336   6.165  11.369   5.576
  166SOL    HW1 2337   6.210  11.309   5.517
  166SOL    HW2 2338   6.073  11.365   5.549
  167SOL     OW 2339   9.683   8.126  12.923
  167SOL    HW1 2340   9.750   8.147  12.858
  167SOL    HW2 2341   9.729   8.131  13.007
  168SOL     OW 2342  11.616   6.955   8.934
  168SOL    HW1 2343  11.564   6.902   8.994
  168SOL    HW2 2344  11.580   6.937   8.847
  169SOL     OW 2345   2.616   5.225   6.149
  169SOL    HW1 2346   2.555   5.196   6.082
  169SOL    HW2 2347   2.690   5.164   6.141
  170SOL     OW 2348  10.513  12.839   2.338
  170SOL    HW1 2349  10.453  12.833   2.413
  170SOL    HW2 2350  10.479  12.912   2.287
  171SOL     OW 2351   2.251  14.720  13.154
  171SOL    HW1 2352   2.166  14.754  13.183
  171SOL    HW2 2353   2.273  14.653  13.218
  172SOL     OW 2354   9.134   2.172   4.740
  172SOL    HW1 2355   9.048   2.153   4.777
  172SOL    HW2 2356   9.174   2.086   4.728
  173SOL     OW 2357  13.105   5.479   7.499
  173SOL    HW1 2358  13.037   5.479   7.432
  173SOL    HW2 2359  13.058   5.489   7.582
  174SOL     OW 2360   3.348   4.332   0.095
  174SOL    HW1 2361   3.389   4.393   0.034
  174SOL    HW2 2362   3.307   4.389   0.161
  175SOL     OW 2363   2.006  10.716  11.859
  175SOL    HW1 2364   1.944  10.650  11.890
  175SOL    HW2 2365   1.966  10.749  11.778
  176SOL     OW 2366   1.426   6.586   3.175
  176SOL    HW1 2367   1.351   6.539   3.140
  176SOL    HW2 2368   1.490   6.517   3.195
  177SOL     OW 2369  14.419   5.792   8.785
  177SOL    HW1 2370  14.483   5.771   8.717
  177SOL    HW2 2371  14.373   5.710   8.800
  178SOL     OW 2372   2.885   0.684   0.610
  178SOL    HW1 2373   2.932   0.700   0.528
  178SOL    HW2 2374   2.812   0.746   0.608
  179SOL     OW 2375   3.240   9.014   6.975
  179SOL    HW1 2376   3.302   9.087   6.973
  179SOL    HW2 2377   3.196   9.018   6.890
  180SOL     OW 2378   5.370  12.292   6.996
  180SOL    HW1 2379   5.306  12.362   7.007
  180SOL    HW2 2380   5.368  12.272   6.902
  181SOL     OW 2381   7.782  10.840   4.481
  181SOL    HW1 2382   7.855  10.901   4.470
  181SOL    HW2 2383   7.705  10.896   4.489
  182SOL     OW 2384  12.756   6.962   5.047
  182SOL    HW1 2385  12.709   7.007   4.977
  182SOL    HW2 2386  12.797   7.033   5.098
  183SOL     OW 2387   9.089   7.602   8.796
  183SOL    HW1 2388   9.045   7.550   8.729
  183SOL    HW2 2389   9.019   7.645   8.844
  184SOL     OW 2390  11.037   2.567  11.472
  184SOL    HW1 2391  11.015   2.474  11.478
  184SOL    HW2 2392  11.010   2.591  11.383
  185SOL     OW 2393  10.841   2.639   5.843
  185SOL    HW1 2394  10.864   2.654   5.752
  185SOL    HW2 2395  10.752   2.675   5.852
  186SOL     OW 2396   2.519   7.776   5.093
  186SOL    HW1 2397   2.471   7.853   5.060
  186SOL    HW2 2398   2.602   7.777   5.046
  187SOL     OW 2399   8.366  12.440   9.458
  187SOL    HW1 2400   8.432  12.507   9.474
  187SOL    HW2 2401   8.313  12.439   9.538
  188SOL     OW 2402   7.170  10.276  14.354
  188SOL    HW1 2403   7.225  10.198  14.341
  188SOL    HW2 2404   7.228  10.350  14.338
  189SOL     OW 2405  11.834   5.134   8.372
  189SOL    HW1 2406  11.871   5.203   8.317
  189SOL    HW2 2407  11.905   5.069   8.380
  190SOL     OW 2408   4.741   2.047   7.063
  190SOL    HW1 2409   4.835   2.049   7.047
  190SOL    HW2 2410   4.731   1.995   7.143
  191SOL     OW 2411  13.428  11.247   0.938
  191SOL    HW1 2412  13.379  11.165   0.942
  191SOL    HW2 2413  13.512  11.222   0.898
  192SOL     OW 2414   9.424  10.258   6.308
  192SOL    HW1 2415   9.350  10.306   6.347
  192SOL    HW2 2416   9.395  10.239   6.219
  193SOL     OW 2417   2.303   2.966   7.333
  193SOL    HW1 2418   2.232   2.975   7.396
  193SOL    HW2 2419   2.315   3.054   7.297
  194SOL     OW 2420   5.151   9.481   9.962
  194SOL    HW1 2421   5.127   9.424  10.035
  194SOL    HW2 2422   5.088   9.553   9.966
  195SOL     OW 2423   3.965  14.868   2.441
  195SOL    HW1 2424   3.930   0.078   2.448
  195SOL    HW2 2425   3.931  14.824   2.519
  196SOL     OW 2426  13.449   0.404   7.498
  196SOL    HW1 2427  13.371   0.454   7.475
  196SOL    HW2 2428  13.445   0.395   7.593
  197SOL     OW 2429  12.363   8.647  14.753
  197SOL    HW1 2430  12.401   8.642  14.665
  197SOL    HW2 2431  12.408   8.578  14.802
  198SOL     OW 2432  12.931   6.488   1.917
  198SOL    HW1 2433  12.992   6.415   1.927
  198SOL    HW2 2434  12.844   6.449   1.924
  199SOL     OW 2435   5.114  11.982  13.256
  199SOL    HW1 2436   5.189  11.934  13.291
  199SOL    HW2 2437   5.100  12.054  13.318
  200SOL     OW 2438   3.431   5.940  14.024
  200SOL    HW1 2439   3.384   5.893  13.954
  200SOL    HW2 2440   3.486   6.002  13.977
  201SOL     OW 2441   2.170   9.383  13.757
  201SOL    HW1 2442   2.218   9.414  13.834
  201SOL    HW2 2443   2.184   9.452  13.691
  202SOL     OW 2444   4.582   4.010   9.013
  202SOL    HW1 2445   4.600   3.945   9.081
  202SOL    HW2 2446   4.648   3.992   8.945
  203SOL     OW 2447   8.753  14.682   3.542
  203SOL    HW1 2448   8.786  14.648   3.459
  203SOL    HW2 2449   8.827  14.673   3.602
  204SOL     OW 2450   5.034   9.315   0.175
  204SOL    HW1 2451   5.012   9.225   0.201
  204SOL    HW2 2452   5.117   9.307   0.128
  205SOL     OW 2453   9.331   8.910   2.973
  205SOL    HW1 2454   9.362   8.911   2.882
  205SOL    HW2 2455   9.324   8.817   2.995
  206SOL     OW 2456  11.350   8.367   0.595
  206SOL    HW1 2457  11.392   8.434   0.541
  206SOL    HW2 2458  11.326   8.412   0.676
  207SOL     OW 2459   4.567  12.115   2.491
  207SOL    HW1 2460   4.613  12.195   2.516
  207SOL    HW2 2461   4.475  12.133   2.512
  208SOL     OW 2462  13.866   7.385   2.808
  208SOL    HW1 2463  13.827   7.299   2.825
  208SOL    HW2 2464  13.940   7.366   2.750
  209SOL     OW 2465  13.394   1.534  14.321
  209SOL    HW1 2466  13.320   1.480  14.351
  209SOL    HW2 2467  13.441   1.557  14.402
  210SOL     OW 2468   8.644   4.712   5.208
  210SOL    HW1 2469   8.728   4.727   5.252
  210SOL    HW2 2470   8.598   4.796   5.216
  211SOL     OW 2471   7.597   1.396   3.593
  211SOL    HW1 2472   7.628   1.432   3.677
  211SOL    HW2 2473   7.670   1.410   3.533
  212SOL     OW 2474  11.083   2.327   6.028
  212SOL    HW1 2475  11.129   2.328   5.944
  212SOL    HW2 2476  10.994   2.298   6.006
  213SOL     OW 2477   6.601   2.990  11.438
  213SOL    HW1 2478   6.607   2.897  11.416
  213SOL    HW2 2479   6.640   2.997  11.526
  214SOL     OW 2480  12.727  14.062   6.678
  214SOL    HW1 2481  12.702  13.973   6.654
  214SOL    HW2 2482  12.674  14.083   6.755
  215SOL     OW 2483  14.078   2.021  11.394
  215SOL    HW1 2484  14.073   1.962  11.319
  215SOL    HW2 2485  13.987   2.047  11.410
  216SOL     OW 2486   6.536  14.486   0.583
  216SOL    HW1 2487   6.554  14.546   0.510
  216SOL    HW2 2488   6.611  14.427   0.585
  217SOL     OW 2489   1.396  10.491   0.644
  217SOL    HW1 2490   1.366  10.449   0.563
  217SOL    HW2 2491   1.477  10.535   0.619
  218SOL     OW 2492   8.575   0.515   3.871
  218SOL    HW1 2493   8.576   0.481   3.960
  218SOL    HW2 2494   8.485   0.541   3.856
  219SOL     OW 2495   8.440   8.508   6.415
  219SOL    HW1 2496   8.456   8.470   6.329
  219SOL    HW2 2497   8.346   8.524   6.418
  220SOL     OW 2498   9.578  11.312   9.720
  220SOL    HW1 2499   9.646  11.286   9.783
  220SOL    HW2 2500   9.619  11.301   9.634
  221SOL     OW 2501  11.202  13.951   3.298
  221SOL    HW1 2502  11.123  13.909   3.332
  221SOL    HW2 2503  11.218  13.908   3.214
  222SOL     OW 2504   1.167   0.470   1.787
  222SOL    HW1 2505   1.111   0.423   1.848
  222SOL    HW2 2506   1.127   0.557   1.779
  223SOL     OW 2507   0.934   8.316  13.438
  223SOL    HW1 2508   0.859   8.299  13.495
  223SOL    HW2 2509   0.897   8.325  13.351
  224SOL     OW 2510  10.820   8.861   1.553
  224SOL    HW1 2511  10.893   8.859   1.615
  224SOL    HW2 2512  10.812   8.952   1.527
  225SOL     OW 2513  11.858  11.301  11.940
  225SOL    HW1 2514  11.902  11.227  11.898
  225SOL    HW2 2515  11.929  11.361  11.962
  226SOL     OW 2516   6.698   4.006   4.615
  226SOL    HW1 2517   6.661   3.937   4.560
  226SOL    HW2 2518   6.730   3.960   4.693
  227SOL     OW 2519   3.023  12.278   3.152
  227SOL    HW1 2520   2.963  12.257   3.080
  227SOL    HW2 2521   2.982  12.352   3.197
  228SOL     OW 2522  12.444   6.280   9.601
  228SOL    HW1 2523  12.352   6.273   9.577
  228SOL    HW2 2524  12.461   6.202   9.655
  229SOL     OW 2525  14.462   3.896  13.381
  229SOL    HW1 2526  14.486   3.814  13.338
  229SOL    HW2 2527  14.508   3.964  13.332
  230SOL     OW 2528   2.855   1.610   5.660
  230SOL    HW1 2529   2.819   1.652   5.582
  230SOL    HW2 2530   2.849   1.678   5.728
  231SOL     OW 2531   0.499   5.345   4.839
  231SOL    HW1 2532   0.498   5.302   4.924
  231SOL    HW2 2533   0.527   5.276   4.778
  232SOL     OW 2534   2.003   2.948  14.280
  232SOL    HW1 2535   1.966   2.911  14.361
  232SOL    HW2 2536   2.091   2.976  14.305
  233SOL     OW 2537  10.487   0.545   2.568
  233SOL    HW1 2538  10.537   0.501   2.637
  233SOL    HW2 2539  10.512   0.637   2.574
  234SOL     OW 2540   6.474   3.460  13.442
  234SOL    HW1 2541   6.410   3.527  13.468
  234SOL    HW2 2542   6.551   3.478  13.496
  235SOL     OW 2543   7.873  12.020  14.850
  235SOL    HW1 2544   7.850  11.975  14.769
  235SOL    HW2 2545   7.909  11.952   0.026
  236SOL     OW 2546   9.672   4.026   8.811
  236SOL    HW1 2547   9.626   3.943   8.795
  236SOL    HW2 2548   9.656   4.077   8.731
  237SOL     OW 2549   2.928   9.065  11.550
  237SOL    HW1 2550   3.000   9.047  11.490
  237SOL    HW2 2551   2.969   9.068  11.637
  238SOL     OW 2552  14.728   3.907  10.726
  238SOL    HW1 2553  14.752   3.904  10.634
  238SOL    HW2 2554  14.789   3.846  10.768
  239SOL     OW 2555   2.547   3.822   9.585
  239SOL    HW1 2556   2.606   3.855   9.518
  239SOL    HW2 2557   2.581   3.735   9.605
  240SOL     OW 2558  13.572   6.080   3.027
  240SOL    HW1 2559  13.642   6.136   3.061
  240SOL    HW2 2560  13.605   5.991   3.038
  241SOL     OW 2561   1.100   1.474   2.211
  241SOL    HW1 2562   1.139   1.543   2.264
  241SOL    HW2 2563   1.120   1.499   2.121
  242SOL     OW 2564   2.262  12.445  10.819
  242SOL    HW1 2565   2.286  12.485  10.903
  242SOL    HW2 2566   2.232  12.518  10.765
  243SOL     OW 2567   0.944   2.378   2.425
  243SOL    HW1 2568   0.893   2.311   2.471
  243SOL    HW2 2569   0.962   2.444   2.492
  244SOL     OW 2570  11.448  13.531   6.490
  244SOL    HW1 2571  11.491  13.514   6.406
  244SOL    HW2 2572  11.357  13.505   6.475
  245SOL     OW 2573  14.650   5.502   6.001
  245SOL    HW1 2574  14.605   5.507   6.085
  245SOL    HW2 2575  14.728   5.449   6.018
  246SOL     OW 2576   6.424  12.941   0.836
  246SOL    HW1 2577   6.410  12.852   0.804
  246SOL    HW2 2578   6.512  12.964   0.805
  247SOL     OW 2579  11.785   4.382   0.419
  247SOL    HW1 2580  11.733   4.419   0.348
  247SOL    HW2 2581  11.762   4.435   0.496
  248SOL     OW 2582   9.077   1.456   1.617
  248SOL    HW1 2583   9.125   1.424   1.541
  248SOL    HW2 2584   8.992   1.413   1.612
  249SOL     OW 2585  10.476  10.876  11.648
  249SOL    HW1 2586  10.421  10.882  11.726
  249SOL    HW2 2587  10.426  10.820  11.588
  250SOL     OW 2588   4.646   8.964   8.163
  250SOL    HW1 2589   4.551   8.950   8.159
  250SOL    HW2 2590   4.681   8.878   8.186
  251SOL     OW 2591   9.153   3.321   0.157
  251SOL    HW1 2592   9.232   3.268   0.163
  251SOL    HW2 2593   9.107   3.305   0.240
  252SOL     OW 2594  10.274   3.680   0.478
  252SOL    HW1 2595  10.248   3.590   0.460
  252SOL    HW2 2596  10.363   3.673   0.512
  253SOL     OW 2597   1.223  11.177   2.498
  253SOL    HW1 2598   1.305  11.225   2.486
  253SOL    HW2 2599   1.176  11.191   2.416
  254SOL     OW 2600   8.253   9.642  11.435
  254SOL    HW1 2601   8.259   9.569  11.374
  254SOL    HW2 2602   8.340   9.683  11.433
  255SOL     OW 2603   0.882   2.814   3.686
  255SOL    HW1 2604   0.805   2.806   3.743
  255SOL    HW2 2605   0.846   2.839   3.601
  256SOL     OW 2606   6.458   1.387   5.223
  256SOL    HW1 2607   6.504   1.403   5.140
  256SOL    HW2 2608   6.366   1.400   5.202
  257SOL     OW 2609   0.479  12.837  12.326
  257SOL    HW1 2610   0.527  12.788  12.392
  257SOL    HW2 2611   0.392  12.797  12.326
  258SOL     OW 2612   6.314  12.362   6.140
  258SOL    HW1 2613   6.287  12.336   6.227
  258SOL    HW2 2614   6.253  12.318   6.081
  259SOL     OW 2615  14.226   1.818  14.240
  259SOL    HW1 2616  14.296   1.834  14.303
  259SOL    HW2 2617  14.261   1.851  14.157
  260SOL     OW 2618   4.053  11.365   3.245
  260SOL    HW1 2619   3.972  11.371   3.296
  260SOL    HW2 2620   4.104  11.298   3.290
  261SOL     OW 2621  12.440   9.574   4.894
  261SOL    HW1 2622  12.355   9.548   4.929
  261SOL    HW2 2623  12.425   9.661   4.856
  262SOL     OW 2624  12.228   0.631   8.368
  262SOL    HW1 2625  12.198   0.576   8.441
  262SOL    HW2 2626  12.193   0.588   8.290
  263SOL     OW 2627   2.593  14.831  14.220
  263SOL    HW1 2628   2.686  14.822  14.242
  263SOL    HW2 2629   2.559  14.742  14.223
  264SOL     OW 2630   0.397   7.003   8.403
  264SOL    HW1 2631   0.338   6.930   8.382
  264SOL    HW2 2632   0.371   7.030   8.491
  265SOL     OW 2633   2.238  14.547  13.872
  265SOL    HW1 2634   2.328  14.530  13.844
  265SOL    HW2 2635   2.241  14.633  13.914
  266SOL     OW 2636   7.154   7.916   7.145
  266SOL    HW1 2637   7.082   7.907   7.083
  266SOL    HW2 2638   7.148   8.007   7.176
  267SOL     OW 2639  12.343   5.151   7.994
  267SOL    HW1 2640  12.398   5.080   7.962
  267SOL    HW2 2641  12.361   5.224   7.935
  268SOL     OW 2642   9.809   6.107   7.044
  268SOL    HW1 2643   9.716   6.103   7.023
  268SOL    HW2 2644   9.841   6.184   6.996
  269SOL     OW 2645   5.916  11.614   6.138
  269SOL    HW1 2646   5.830  11.575   6.119
  269SOL    HW2 2647   5.937  11.665   6.060
  270SOL     OW 2648   6.117   3.032  11.898
  270SOL    HW1 2649   6.179   2.960  11.894
  270SOL    HW2 2650   6.146   3.093  11.831
  271SOL     OW 2651   2.571   1.546   8.581
  271SOL    HW1 2652   2.543   1.464   8.540
  271SOL    HW2 2653   2.642   1.577   8.525
  272SOL     OW 2654   7.396  12.787  13.993
  272SOL    HW1 2655   7.430  12.876  13.980
  272SOL    HW2 2656   7.472  12.730  13.980
  273SOL     OW 2657   9.608  14.124  14.725
  273SOL    HW1 2658   9.546  14.056  14.748
  273SOL    HW2 2659   9.608  14.184  14.800
  274SOL     OW 2660   7.344   5.239  12.838
  274SOL    HW1 2661   7.311   5.219  12.926
  274SOL    HW2 2662   7.348   5.335  12.836
  275SOL     OW 2663   0.388   7.070   5.434
  275SOL    HW1 2664   0.388   7.074   5.530
  275SOL    HW2 2665   0.387   7.162   5.407
  276SOL     OW 2666   5.095   2.500   4.392
  276SOL    HW1 2667   5.078   2.573   4.333
  276SOL    HW2 2668   5.054   2.424   4.349
  277SOL     OW 2669  14.426   3.081   0.045
  277SOL    HW1 2670  14.333   3.062   0.034
  277SOL    HW2 2671  14.468   3.047  14.846
  278SOL     OW 2672   6.916  10.477   9.615
  278SOL    HW1 2673   6.953  10.483   9.703
  278SOL    HW2 2674   6.991  10.452   9.560
  279SOL     OW 2675   0.218   3.459  14.144
  279SOL    HW1 2676   0.225   3.365  14.134
  279SOL    HW2 2677   0.305   3.486  14.175
  280SOL     OW 2678   6.790   5.702  14.228
  280SOL    HW1 2679   6.792   5.614  14.191
  280SOL    HW2 2680   6.742   5.692  14.311
  281SOL     OW 2681  11.445   0.989  10.734
  281SOL    HW1 2682  11.417   0.939  10.810
  281SOL    HW2 2683  11.467   1.076  10.769
  282SOL     OW 2684  11.625  14.842   9.379
  282SOL    HW1 2685  11.644  14.800   9.463
  282SOL    HW2 2686  11.591   0.049   9.403
  283SOL     OW 2687  10.744   8.067   0.870
  283SOL    HW1 2688  10.679   8.015   0.919
  283SOL    HW2 2689  10.775   8.007   0.802
  284SOL     OW 2690   6.601   4.438   1.608
  284SOL    HW1 2691   6.549   4.461   1.685
  284SOL    HW2 2692   6.546   4.463   1.533
  285SOL     OW 2693   9.954  14.602   0.344
  285SOL    HW1 2694  10.045  14.602   0.315
  285SOL    HW2 2695   9.958  14.634   0.434
  286SOL     OW 2696   8.398   9.477   0.572
  286SOL    HW1 2697   8.411   9.420   0.649
  286SOL    HW2 2698   8.459   9.442   0.506
  287SOL     OW 2699   6.766   8.726   5.779
  287SOL    HW1 2700   6.729   8.669   5.711
  287SOL    HW2 2701   6.744   8.683   5.861
  288SOL     OW 2702   1.647  11.537   9.247
  288SOL    HW1 2703   1.661  11.448   9.217
  288SOL    HW2 2704   1.598  11.579   9.175
  289SOL     OW 2705   4.795   1.923  10.847
  289SOL    HW1 2706   4.765   1.915  10.757
  289SOL    HW2 2707   4.740   1.992  10.884
  290SOL     OW 2708   0.600   0.395   8.133
  290SOL    HW1 2709   0.573   0.484   8.108
  290SOL    HW2 2710   0.591   0.393   8.228
  291SOL     OW 2711  14.711   6.663   4.488
  291SOL    HW1 2712  14.657   6.742   4.484
  291SOL    HW2 2713  14.795   6.689   4.450
  292SOL     OW 2714   7.316   7.245   3.058
  292SOL    HW1 2715   7.361   7.329   3.071
  292SOL    HW2 2716   7.380   7.179   3.087
  293SOL     OW 2717  12.515   2.717   1.491
  293SOL    HW1 2718  12.441   2.657   1.479
  293SOL    HW2 2719  12.480   2.803   1.470
  294SOL     OW 2720   6.119   7.523  13.469
  294SOL    HW1 2721   6.059   7.476  13.410
  294SOL    HW2 2722   6.202   7.477  13.461
  295SOL     OW 2723   6.919   2.908   5.606
  295SOL    HW1 2724   7.009   2.880   5.589
  295SOL    HW2 2725   6.887   2.846   5.672
  296SOL     OW 2726  13.499   6.398   4.657
  296SOL    HW1 2727  13.473   6.490   4.667
  296SOL    HW2 2728  13.464   6.372   4.572
  297SOL     OW 2729   3.444   2.173   3.710
  297SOL    HW1 2730   3.363   2.150   3.664
  297SOL    HW2 2731   3.470   2.257   3.672
  298SOL     OW 2732  12.551   6.158   3.006
  298SOL    HW1 2733  12.638   6.195   2.986
  298SOL    HW2 2734  12.531   6.190   3.094
  299SOL     OW 2735   6.950   4.618  13.834
  299SOL    HW1 2736   7.046   4.616  13.838
  299SOL    HW2 2737   6.924   4.659  13.917
  300SOL     OW 2738   1.057   8.947  11.055
  300SOL    HW1 2739   1.032   8.961  11.146
  300SOL    HW2 2740   1.028   8.857  11.036
  301SOL     OW 2741  11.320   7.921  14.798
  301SOL    HW1 2742  11.312   7.827  14.783
  301SOL    HW2 2743  11.415   7.936  14.806
  302SOL     OW 2744  12.601  12.677  14.555
  302SOL    HW1 2745  12.664  12.609  14.532
  302SOL    HW2 2746  12.620  12.697  14.646
  303SOL     OW 2747   9.731  13.802   8.094
  303SOL    HW1 2748   9.725  13.706   8.086
  303SOL    HW2 2749   9.732  13.818   8.188
  304SOL     OW 2750   3.036   8.726   6.211
  304SOL    HW1 2751   3.044   8.682   6.295
  304SOL    HW2 2752   2.998   8.811   6.231
  305SOL     OW 2753   3.245   2.929  13.669
  305SOL    HW1 2754   3.210   3.015  13.645
  305SOL    HW2 2755   3.168   2.880  13.699
  306SOL     OW 2756   4.529   7.588   1.722
  306SOL    HW1 2757   4.454   7.627   1.766
  306SOL    HW2 2758   4.538   7.501   1.762
  307SOL     OW 2759   6.371   9.198  10.044
  307SOL    HW1 2760   6.407   9.139   9.977
  307SOL    HW2 2761   6.445   9.218  10.101
  308SOL     OW 2762   1.406  13.986  10.145
  308SOL    HW1 2763   1.375  14.049  10.081
  308SOL    HW2 2764   1.461  13.925  10.094
  309SOL     OW 2765  11.858  13.735   8.008
  309SOL    HW1 2766  11.930  13.678   8.037
  309SOL    HW2 2767  11.901  13.803   7.957
  310SOL     OW 2768   0.982   0.782  11.283
  310SOL    HW1 2769   1.017   0.860  11.326
  310SOL    HW2 2770   0.925   0.816  11.214
  311SOL     OW 2771  13.392   6.896   4.494
  311SOL    HW1 2772  13.306   6.893   4.452
  311SOL    HW2 2773  13.454   6.884   4.422
  312SOL     OW 2774  10.807   7.136   4.021
  312SOL    HW1 2775  10.803   7.144   4.117
  312SOL    HW2 2776  10.811   7.227   3.991
  313SOL     OW 2777   6.048   0.707  14.394
  313SOL    HW1 2778   6.067   0.625  14.348
  313SOL    HW2 2779   6.034   0.771  14.324
  314SOL     OW 2780   7.062   7.539  14.820
  314SOL    HW1 2781   6.976   7.502  14.801
  314SOL    HW2 2782   7.121   7.497  14.758
  315SOL     OW 2783  12.526   5.854  14.766
  315SOL    HW1 2784  12.552   5.866  14.675
  315SOL    HW2 2785  12.551   5.765  14.788
  316SOL     OW 2786   0.865   4.180   5.168
  316SOL    HW1 2787   0.921   4.207   5.095
  316SOL    HW2 2788   0.896   4.232   5.243
  317SOL     OW 2789   4.697   2.676   3.838
  317SOL    HW1 2790   4.677   2.666   3.745
  317SOL    HW2 2791   4.770   2.615   3.853
  318SOL     OW 2792  12.214   1.709  14.196
  318SOL    HW1 2793  12.228   1.769  14.270
  318SOL    HW2 2794  12.277   1.738  14.131
  319SOL     OW 2795   9.085  13.545   7.390
  319SOL    HW1 2796   9.040  13.625   7.419
  319SOL    HW2 2797   9.082  13.487   7.466
  320SOL     OW 2798  12.552   8.452  11.423
  320SOL    HW1 2799  12.626   8.507  11.400
  320SOL    HW2 2800  12.515   8.425  11.338
  321SOL     OW 2801   6.189   0.150   4.002
  321SOL    HW1 2802   6.143   0.097   3.937
  321SOL    HW2 2803   6.259   0.093   4.034
  322SOL     OW 2804  13.110  13.089  13.066
  322SOL    HW1 2805  13.102  13.178  13.032
  322SOL    HW2 2806  13.050  13.086  13.140
  323SOL     OW 2807   9.633   3.531   4.224
  323SOL    HW1 2808   9.611   3.607   4.170
  323SOL    HW2 2809   9.629   3.565   4.314
  324SOL     OW 2810  12.098   6.154   6.070
  324SOL    HW1 2811  12.167   6.096   6.102
  324SOL    HW2 2812  12.104   6.232   6.127
  325SOL     OW 2813   3.476   1.716   1.664
  325SOL    HW1 2814   3.468   1.726   1.759
  325SOL    HW2 2815   3.545   1.651   1.652
  326SOL     OW 2816  10.305   3.053   1.487
  326SOL    HW1 2817  10.233   3.107   1.455
  326SOL    HW2 2818  10.377   3.114   1.501
  327SOL     OW 2819   9.998   5.962   8.608
  327SOL    HW1 2820   9.982   5.906   8.685
  327SOL    HW2 2821   9.931   6.030   8.615
  328SOL     OW 2822   5.329   7.743  13.473
  328SOL    HW1 2823   5.285   7.673  13.425
  328SOL    HW2 2824   5.258   7.797  13.508
  329SOL     OW 2825   2.987   7.963  12.432
  329SOL    HW1 2826   2.937   7.998  12.506
  329SOL    HW2 2827   2.922   7.918  12.378
  330SOL     OW 2828  12.673   4.924   5.963
  330SOL    HW1 2829  12.641   4.925   5.872
  330SOL    HW2 2830  12.709   4.836   5.974
  331SOL     OW 2831  13.165   0.215  12.127
  331SOL    HW1 2832  13.102   0.287  12.119
  331SOL    HW2 2833  13.191   0.196  12.037
  332SOL     OW 2834   8.466   6.206   5.006
  332SOL    HW1 2835   8.494   6.216   4.916
  332SOL    HW2 2836   8.439   6.294   5.033
  333SOL     OW 2837   0.927  14.734   4.998
  333SOL    HW1 2838   1.016  14.740   5.034
  333SOL    HW2 2839   0.940  14.713   4.906
  334SOL     OW 2840  12.332   9.976   1.541
  334SOL    HW1 2841  12.318  10.069   1.525
  334SOL    HW2 2842  12.396   9.973   1.613
  335SOL     OW 2843  10.079  12.786   1.383
  335SOL    HW1 2844  10.002  12.803   1.437
  335SOL    HW2 2845  10.117  12.872   1.366
  336SOL     OW 2846   1.795   9.419   0.693
  336SOL    HW1 2847   1.859   9.485   0.722
  336SOL    HW2 2848   1.782   9.363   0.769
  337SOL     OW 2849   1.378  13.435   0.429
  337SOL    HW1 2850   1.394  13.516   0.477
  337SOL    HW2 2851   1.299  13.398   0.470
  338SOL     OW 2852   3.370  12.092  14.243
  338SOL    HW1 2853   3.462  12.102  14.267
  338SOL    HW2 2854   3.326  12.072  14.325
  339SOL     OW 2855   6.864   5.317   6.909
  339SOL    HW1 2856   6.828   5.383   6.967
  339SOL    HW2 2857   6.937   5.361   6.865
  340SOL     OW 2858   1.735   0.793  13.136
  340SOL    HW1 2859   1.771   0.880  13.153
  340SOL    HW2 2860   1.707   0.796  13.045
  341SOL     OW 2861  11.833   8.020  11.610
  341SOL    HW1 2862  11.906   8.041  11.552
  341SOL    HW2 2863  11.813   7.928  11.592
  342SOL     OW 2864   8.760   6.795   1.741
  342SOL    HW1 2865   8.689   6.847   1.780
  342SOL    HW2 2866   8.715   6.735   1.682
  343SOL     OW 2867   1.299   6.994   3.662
  343SOL    HW1 2868   1.295   7.010   3.567
  343SOL    HW2 2869   1.388   7.017   3.686
  344SOL     OW 2870   3.480   5.438   5.804
  344SOL    HW1 2871   3.443   5.520   5.772
  344SOL    HW2 2872   3.544   5.465   5.871
  345SOL     OW 2873  11.554  10.678   8.881
  345SOL    HW1 2874  11.534  10.771   8.887
  345SOL    HW2 2875  11.590  10.666   8.793
  346SOL     OW 2876   5.123   0.225   7.423
  346SOL    HW1 2877   5.173   0.303   7.402
  346SOL    HW2 2878   5.040   0.258   7.460
  347SOL     OW 2879  14.207  12.656  12.083
  347SOL    HW1 2880  14.209  12.714  12.007
  347SOL    HW2 2881  14.131  12.600  12.068
  348SOL     OW 2882  10.248   0.638  11.277
  348SOL    HW1 2883  10.286   0.668  11.360
  348SOL    HW2 2884  10.175   0.698  11.262
  349SOL     OW 2885   1.800   1.897   5.731
  349SOL    HW1 2886   1.794   1.988   5.759
  349SOL    HW2 2887   1.835   1.851   5.807
  350SOL     OW 2888   1.388   0.024   3.111
  350SOL    HW1 2889   1.461  14.841   3.109
  350SOL    HW2 2890   1.419   0.098   3.059
  351SOL     OW 2891  10.374  11.135   7.861
  351SOL    HW1 2892  10.282  11.161   7.871
  351SOL    HW2 2893  10.414  11.209   7.816
  352SOL     OW 2894  13.114   4.905  13.463
  352SOL    HW1 2895  13.198   4.942  13.437
  352SOL    HW2 2896  13.080   4.966  13.528
  353SOL     OW 2897   2.220   9.842  12.458
  353SOL    HW1 2898   2.237   9.881  12.543
  353SOL    HW2 2899   2.248   9.909  12.395
  354SOL     OW 2900  11.977   0.232   0.267
  354SOL    HW1 2901  12.005   0.214   0.177
  354SOL    HW2 2902  11.986   0.327   0.277
  355SOL     OW 2903  11.787   3.419   1.897
  355SOL    HW1 2904  11.879   3.392   1.900
  355SOL    HW2 2905  11.747   3.365   1.829
  356SOL     OW 2906   8.598   7.934   2.764
  356SOL    HW1 2907   8.584   8.022   2.730
  356SOL    HW2 2908   8.681   7.939   2.811
  357SOL     OW 2909  10.645  14.547   0.729
  357SOL    HW1 2910  10.652  14.627   0.781
  357SOL    HW2 2911  10.666  14.476   0.791
  358SOL     OW 2912  14.312   4.486   9.279
  358SOL    HW1 2913  14.398   4.472   9.239
  358SOL    HW2 2914  14.254   4.505   9.205
  359SOL     OW 2915   4.725   7.726  12.725
  359SOL    HW1 2916   4.742   7.745  12.633
  359SOL    HW2 2917   4.812   7.716  12.765
  360SOL     OW 2918   8.384   2.901  13.728
  360SOL    HW1 2919   8.307   2.882  13.674
  360SOL    HW2 2920   8.424   2.816  13.743
  361SOL     OW 2921  13.956   6.881   1.928
  361SOL    HW1 2922  13.996   6.967   1.940
  361SOL    HW2 2923  13.976   6.858   1.837
  362SOL     OW 2924   3.461   0.842  13.342
  362SOL    HW1 2925   3.514   0.920  13.327
  362SOL    HW2 2926   3.469   0.791  13.261
  363SOL     OW 2927   7.006  12.072   8.131
  363SOL    HW1 2928   6.960  12.013   8.190
  363SOL    HW2 2929   6.941  12.140   8.110
  364SOL     OW 2930   4.799   4.648  10.577
  364SOL    HW1 2931   4.710   4.644  10.543
  364SOL    HW2 2932   4.809   4.738  10.608
  365SOL     OW 2933   8.908   3.155  14.535
  365SOL    HW1 2934   8.934   3.198  14.454
  365SOL    HW2 2935   8.872   3.071  14.507
  366SOL     OW 2936  10.012   8.876   4.678
  366SOL    HW1 2937   9.971   8.873   4.764
  366SOL    HW2 2938   9.972   8.951   4.634
  367SOL     OW 2939   9.469   1.022   0.312
  367SOL    HW1 2940   9.552   1.011   0.358
  367SOL    HW2 2941   9.461   0.943   0.258
  368SOL     OW 2942   7.466  12.680   1.869
  368SOL    HW1 2943   7.504  12.650   1.786
  368SOL    HW2 2944   7.480  12.608   1.930
  369SOL     OW 2945   7.472   7.411   8.455
  369SOL    HW1 2946   7.553   7.460   8.469
  369SOL    HW2 2947   7.451   7.425   8.363
  370SOL     OW 2948   7.055   6.037   3.304
  370SOL    HW1 2949   6.999   6.053   3.228
  370SOL    HW2 2950   7.117   6.111   3.304
  371SOL     OW 2951  14.141   9.369   8.954
  371SOL    HW1 2952  14.110   9.283   8.983
  371SOL    HW2 2953  14.168   9.355   8.863
  372SOL     OW 2954   0.753  11.175   7.145
  372SOL    HW1 2955   0.667  11.164   7.184
  372SOL    HW2 2956   0.779  11.265   7.169
  373SOL     OW 2957   8.441   8.895   9.225
  373SOL    HW1 2958   8.497   8.821   9.248
  373SOL    HW2 2959   8.375   8.898   9.294
  374SOL     OW 2960   9.314   2.672  13.725
  374SOL    HW1 2961   9.346   2.643  13.810
  374SOL    HW2 2962   9.320   2.767  13.728
  375SOL     OW 2963   1.408  11.015   2.035
  375SOL    HW1 2964   1.355  11.005   2.114
  375SOL    HW2 2965   1.363  10.960   1.970
  376SOL     OW 2966  11.333   6.266   5.529
  376SOL    HW1 2967  11.417   6.228   5.554
  376SOL    HW2 2968  11.315   6.331   5.596
  377SOL     OW 2969   3.181   7.208  10.260
  377SOL    HW1 2970   3.185   7.125  10.212
  377SOL    HW2 2971   3.265   7.214  10.306
  378SOL     OW 2972   0.966   1.258  10.755
  378SOL    HW1 2973   0.870   1.258  10.754
  378SOL    HW2 2974   0.988   1.246  10.848
  379SOL     OW 2975  14.131  11.091  11.720
  379SOL    HW1 2976  14.058  11.152  11.718
  379SOL    HW2 2977  14.146  11.073  11.813
  380SOL     OW 2978  13.672   4.054   8.286
  380SOL    HW1 2979  13.667   4.148   8.301
  380SOL    HW2 2980  13.710   4.019   8.367
  381SOL     OW 2981  11.060  11.655  12.636
  381SOL    HW1 2982  11.061  11.605  12.554
  381SOL    HW2 2983  10.996  11.725  12.620
  382SOL     OW 2984  11.420   2.599   6.718
  382SOL    HW1 2985  11.404   2.509   6.745
  382SOL    HW2 2986  11.337   2.628   6.679
  383SOL     OW 2987   7.020  12.796   6.615
  383SOL    HW1 2988   6.958  12.749   6.559
  383SOL    HW2 2989   6.968  12.867   6.653
  384SOL     OW 2990   3.441   4.462  14.222
  384SOL    HW1 2991   3.432   4.555  14.244
  384SOL    HW2 2992   3.461   4.419  14.305
  385SOL     OW 2993   0.193   6.369   3.364
  385SOL    HW1 2994   0.220   6.279   3.383
  385SOL    HW2 2995   0.116   6.360   3.308
  386SOL     OW 2996  12.489   7.602  14.847
  386SOL    HW1 2997  12.514   7.600  14.755
  386SOL    HW2 2998  12.502   7.692  14.874
  387SOL     OW 2999   3.660   9.934   5.357
  387SOL    HW1 3000   3.672   9.998   5.427
  387SOL    HW2 3001   3.712   9.858   5.385
  388SOL     OW 3002   8.693   4.975   9.745
  388SOL    HW1 3003   8.764   4.978   9.681
  388SOL    HW2 3004   8.716   5.043   9.809
  389SOL     OW 3005   2.126   8.031  12.699
  389SOL    HW1 3006   2.192   7.987  12.645
  389SOL    HW2 3007   2.161   8.120  12.710
  390SOL     OW 3008   3.167   7.851  14.844
  390SOL    HW1 3009   3.247   7.798  14.849
  390SOL    HW2 3010   3.105   7.796  14.797
  391SOL     OW 3011  14.060  14.488  10.600
  391SOL    HW1 3012  14.151  14.459  10.606
  391SOL    HW2 3013  14.013  14.411  10.568
  392SOL     OW 3014   7.104   8.228   2.425
  392SOL    HW1 3015   7.137   8.167   2.360
  392SOL    HW2 3016   7.014   8.199   2.442
  393SOL     OW 3017   8.653   3.627   4.467
  393SOL    HW1 3018   8.687   3.600   4.381
  393SOL    HW2 3019   8.731   3.654   4.516
  394SOL     OW 3020   9.501   9.664  11.239
  394SOL    HW1 3021   9.475   9.733  11.178
  394SOL    HW2 3022   9.544   9.598  11.184
  395SOL     OW 3023  11.169  10.657   9.503
  395SOL    HW1 3024  11.078  10.627   9.496
  395SOL    HW2 3025  11.213  10.591   9.556
  396SOL     OW 3026   5.653   1.549  11.988
  396SOL    HW1 3027   5.718   1.608  12.025
  396SOL    HW2 3028   5.621   1.595  11.910
  397SOL     OW 3029   4.438  12.374   1.616
  397SOL    HW1 3030   4.488  12.365   1.697
  397SOL    HW2 3031   4.459  12.294   1.567
  398SOL     OW 3032  11.977   6.513   2.046
  398SOL    HW1 3033  11.913   6.563   2.097
  398SOL    HW2 3034  11.970   6.549   1.957
  399SOL     OW 3035   1.535   5.784   6.081
  399SOL    HW1 3036   1.513   5.690   6.081
  399SOL    HW2 3037   1.628   5.787   6.059
  400SOL     OW 3038   8.488   1.075  11.792
  400SOL    HW1 3039   8.447   1.011  11.850
  400SOL    HW2 3040   8.565   1.105  11.840
  401SOL     OW 3041   9.354   9.035  12.672
  401SOL    HW1 3042   9.411   9.098  12.628
  401SOL    HW2 3043   9.414   8.977  12.719
  402SOL     OW 3044  13.060   8.703   8.435
  402SOL    HW1 3045  13.058   8.725   8.528
  402SOL    HW2 3046  13.078   8.786   8.391
  403SOL     OW 3047  11.346  10.187  10.007
  403SOL    HW1 3048  11.415  10.253  10.009
  403SOL    HW2 3049  11.268  10.234  10.036
  404SOL     OW 3050   9.179  12.047  12.915
  404SOL    HW1 3051   9.094  12.087  12.894
  404SOL    HW2 3052   9.198  11.992  12.839
  405SOL     OW 3053   8.715   6.957   6.611
  405SOL    HW1 3054   8.670   7.015   6.672
  405SOL    HW2 3055   8.712   7.003   6.527
  406SOL     OW 3056   4.550   2.811  10.915
  406SOL    HW1 3057   4.634   2.857  10.918
  406SOL    HW2 3058   4.486   2.878  10.889
  407SOL     OW 3059   6.590  12.104  13.071
  407SOL    HW1 3060   6.653  12.176  13.076
  407SOL    HW2 3061   6.634  12.030  13.113
  408SOL     OW 3062   6.157   1.431   7.484
  408SOL    HW1 3063   6.178   1.407   7.394
  408SOL    HW2 3064   6.062   1.427   7.489
  409SOL     OW 3065  12.808   1.302  14.484
  409SOL    HW1 3066  12.763   1.311  14.400
  409SOL    HW2 3067  12.901   1.306  14.462
  410SOL     OW 3068   2.907   5.464   3.522
  410SOL    HW1 3069   2.821   5.467   3.564
  410SOL    HW2 3070   2.940   5.377   3.540
  411SOL     OW 3071   2.753   7.409   6.020
  411SOL    HW1 3072   2.713   7.362   5.946
  411SOL    HW2 3073   2.685   7.408   6.088
  412SOL     OW 3074   2.082   9.753   2.799
  412SOL    HW1 3075   2.067   9.747   2.893
  412SOL    HW2 3076   2.106   9.845   2.784
  413SOL     OW 3077   7.775   1.791   9.662
  413SOL    HW1 3078   7.805   1.882   9.660
  413SOL    HW2 3079   7.767   1.769   9.755
  414SOL     OW 3080  12.919   5.831  12.803
  414SOL    HW1 3081  12.902   5.748  12.848
  414SOL    HW2 3082  12.897   5.814  12.712
  415SOL     OW 3083  12.883   9.233   4.419
  415SOL    HW1 3084  12.864   9.205   4.329
  415SOL    HW2 3085  12.799   9.264   4.452
  416SOL     OW 3086   4.197  11.358  13.345
  416SOL    HW1 3087   4.195  11.402  13.260
  416SOL    HW2 3088   4.265  11.290  13.335
  417SOL     OW 3089   2.251   5.409   5.713
  417SOL    HW1 3090   2.222   5.323   5.746
  417SOL    HW2 3091   2.170   5.453   5.688
  418SOL     OW 3092  10.530  13.084  14.586
  418SOL    HW1 3093  10.618  13.079  14.623
  418SOL    HW2 3094  10.492  12.997  14.603
  419SOL     OW 3095   8.932   0.551   3.837
  419SOL    HW1 3096   8.892   0.479   3.886
  419SOL    HW2 3097   8.968   0.510   3.759
  420SOL     OW 3098  11.340  11.735   4.999
  420SOL    HW1 3099  11.356  11.651   5.042
  420SOL    HW2 3100  11.315  11.712   4.910
  421SOL     OW 3101   8.532   4.700  13.656
  421SOL    HW1 3102   8.468   4.713  13.586
  421SOL    HW2 3103   8.571   4.787  13.669
  422SOL     OW 3104  11.510   0.509   6.380
  422SOL    HW1 3105  11.504   0.574   6.310
  422SOL    HW2 3106  11.485   0.557   6.459
  423SOL     OW 3107  11.996  14.522   4.637
  423SOL    HW1 3108  11.930  14.456   4.615
  423SOL    HW2 3109  12.058  14.476   4.693
  424SOL     OW 3110  10.645   7.164  11.788
  424SOL    HW1 3111  10.551   7.155  11.808
  424SOL    HW2 3112  10.689   7.122  11.861
  425SOL     OW 3113  13.265   4.919  10.415
  425SOL    HW1 3114  13.224   4.983  10.473
  425SOL    HW2 3115  13.193   4.863  10.387
  426SOL     OW 3116   6.905  11.123   6.774
  426SOL    HW1 3117   6.974  11.076   6.820
  426SOL    HW2 3118   6.950  11.167   6.702
  427SOL     OW 3119   4.519   7.051   9.294
  427SOL    HW1 3120   4.442   7.072   9.241
  427SOL    HW2 3121   4.593   7.072   9.238
  428SOL     OW 3122  10.692   5.196   8.732
  428SOL    HW1 3123  10.656   5.129   8.674
  428SOL    HW2 3124  10.616   5.239   8.771
  429SOL     OW 3125   0.048  14.738   0.933
  429SOL    HW1 3126   0.107  14.662   0.932
  429SOL    HW2 3127  14.844  14.703   0.962
  430SOL     OW 3128   0.117   8.385  12.050
  430SOL    HW1 3129   0.035   8.432  12.035
  430SOL    HW2 3130   0.104   8.339  12.132
  431SOL     OW 3131   5.794  11.850   3.959
  431SOL    HW1 3132   5.847  11.870   3.882
  431SOL    HW2 3133   5.825  11.910   4.026
  432SOL     OW 3134   9.381  10.641  14.099
  432SOL    HW1 3135   9.308  10.683  14.145
  432SOL    HW2 3136   9.352  10.636  14.008
  433SOL     OW 3137  12.833   2.480   4.609
  433SOL    HW1 3138  12.768   2.521   4.553
  433SOL    HW2 3139  12.803   2.497   4.699
  434SOL     OW 3140  12.353  13.006   7.053
  434SOL    HW1 3141  12.316  12.941   7.114
  434SOL    HW2 3142  12.360  12.960   6.970
  435SOL     OW 3143   1.055   6.060   6.590
  435SOL    HW1 3144   1.020   6.066   6.501
  435SOL    HW2 3145   1.120   5.990   6.586
  436SOL     OW 3146   4.623   1.935  12.016
  436SOL    HW1 3147   4.712   1.966  12.031
  436SOL    HW2 3148   4.569   1.983  12.079
  437SOL     OW 3149   5.963   5.653   4.581
  437SOL    HW1 3150   5.908   5.728   4.604
  437SOL    HW2 3151   6.030   5.689   4.522
  438SOL     OW 3152  14.313  11.859   2.234
  438SOL    HW1 3153  14.257  11.937   2.240
  438SOL    HW2 3154  14.286  11.805   2.308
  439SOL     OW 3155   5.720   0.189   1.383
  439SOL    HW1 3156   5.664   0.127   1.429
  439SOL    HW2 3157   5.713   0.271   1.432
  440SOL     OW 3158  13.399   7.263  13.245
  440SOL    HW1 3159  13.372   7.258  13.337
  440SOL    HW2 3160  13.381   7.353  13.220
  441SOL     OW 3161   3.370   1.172   1.075
  441SOL    HW1 3162   3.424   1.211   1.143
  441SOL    HW2 3163   3.301   1.235   1.059
  442SOL     OW 3164  14.781  12.780   4.747
  442SOL    HW1 3165  14.709  12.800   4.687
  442SOL    HW2 3166  14.781  12.685   4.755
  443SOL     OW 3167  10.399  11.146  11.306
  443SOL    HW1 3168  10.450  11.071  11.336
  443SOL    HW2 3169  10.363  11.185  11.386
  444SOL     OW 3170   3.927   9.878   6.663
  444SOL    HW1 3171   3.869   9.885   6.739
  444SOL    HW2 3172   3.873   9.908   6.589
  445SOL     OW 3173   4.870   6.080  14.046
  445SOL    HW1 3174   4.936   6.037  13.991
  445SOL    HW2 3175   4.920   6.133  14.108
  446SOL     OW 3176   9.749   3.950   5.631
  446SOL    HW1 3177   9.673   4.001   5.603
  446SOL    HW2 3178   9.715   3.889   5.697
  447SOL     OW 3179   9.464   8.580  10.799
  447SOL    HW1 3180   9.523   8.617  10.733
  447SOL    HW2 3181   9.405   8.653  10.821
  448SOL     OW 3182   2.706   1.352   3.531
  448SOL    HW1 3183   2.760   1.361   3.453
  448SOL    HW2 3184   2.689   1.442   3.559
  449SOL     OW 3185   0.630   1.026   6.807
  449SOL    HW1 3186   0.664   1.038   6.895
  449SOL    HW2 3187   0.696   1.065   6.750
  450SOL     OW 3188   6.113   6.342   2.235
  450SOL    HW1 3189   6.060   6.411   2.275
  450SOL    HW2 3190   6.177   6.318   2.303
  451SOL     OW 3191   8.788  13.416   9.126
  451SOL    HW1 3192   8.721  13.452   9.068
  451SOL    HW2 3193   8.865  13.407   9.071
  452SOL     OW 3194   5.619   8.494   8.700
  452SOL    HW1 3195   5.597   8.501   8.793
  452SOL    HW2 3196   5.596   8.404   8.676
  453SOL     OW 3197   1.712  11.791   8.949
  453SOL    HW1 3198   1.765  11.723   8.989
  453SOL    HW2 3199   1.748  11.873   8.981
  454SOL     OW 3200   3.645   6.735   7.915
  454SOL    HW1 3201   3.556   6.705   7.936
  454SOL    HW2 3202   3.632   6.808   7.855
  455SOL     OW 3203   8.581   9.409   9.217
  455SOL    HW1 3204   8.524   9.342   9.180
  455SOL    HW2 3205   8.525   9.486   9.227
  456SOL     OW 3206   5.081  10.931   5.367
  456SOL    HW1 3207   5.056  10.849   5.409
  456SOL    HW2 3208   4.998  10.978   5.354
  457SOL     OW 3209   7.267   8.996  10.467
  457SOL    HW1 3210   7.301   9.015  10.555
  457SOL    HW2 3211   7.345   8.978  10.415
  458SOL     OW 3212  10.558   4.302   6.857
  458SOL    HW1 3213  10.567   4.384   6.906
  458SOL    HW2 3214  10.590   4.325   6.769
  459SOL     OW 3215   8.424  12.141  12.184
  459SOL    HW1 3216   8.431  12.174  12.094
  459SOL    HW2 3217   8.507  12.098  12.200
  460SOL     OW 3218  10.117   3.090   7.351
  460SOL    HW1 3219  10.107   3.177   7.312
  460SOL    HW2 3220  10.188   3.100   7.415
  461SOL     OW 3221  10.735  13.423  14.858
  461SOL    HW1 3222  10.710  13.382   0.061
  461SOL    HW2 3223  10.653  13.455  14.822
  462SOL     OW 3224  10.900   8.864   9.461
  462SOL    HW1 3225  10.909   8.774   9.492
  462SOL    HW2 3226  10.812   8.868   9.425
  463SOL     OW 3227  10.454   6.062  14.773
  463SOL    HW1 3228  10.498   6.020  14.846
  463SOL    HW2 3229  10.476   6.009  14.696
  464SOL     OW 3230  13.180   8.411   2.265
  464SOL    HW1 3231  13.161   8.325   2.228
  464SOL    HW2 3232  13.118   8.470   2.222
  465SOL     OW 3233  14.299  10.646   7.272
  465SOL    HW1 3234  14.270  10.663   7.362
  465SOL    HW2 3235  14.387  10.611   7.281
  466SOL     OW 3236   5.856   5.633   2.292
  466SOL    HW1 3237   5.935   5.592   2.326
  466SOL    HW2 3238   5.836   5.584   2.212
  467SOL     OW 3239  10.796  11.978  12.109
  467SOL    HW1 3240  10.701  11.989  12.116
  467SOL    HW2 3241  10.815  11.989  12.016
  468SOL     OW 3242  12.351   8.560   2.204
  468SOL    HW1 3243  12.364   8.466   2.219
  468SOL    HW2 3244  12.399   8.578   2.123
  469SOL     OW 3245   2.452   9.393   1.364
  469SOL    HW1 3246   2.469   9.432   1.278
  469SOL    HW2 3247   2.405   9.312   1.344
  470SOL     OW 3248   5.390   2.405  10.249
  470SOL    HW1 3249   5.463   2.377  10.193
  470SOL    HW2 3250   5.378   2.332  10.310
  471SOL     OW 3251  11.183   5.450   0.012
  471SOL    HW1 3252  11.109   5.398   0.041
  471SOL    HW2 3253  11.198   5.423  14.801
  472SOL     OW 3254   2.479   0.203  13.316
  472SOL    HW1 3255   2.530   0.281  13.294
  472SOL    HW2 3256   2.420   0.191  13.241
  473SOL     OW 3257  13.074   5.213   8.683
  473SOL    HW1 3258  13.080   5.306   8.706
  473SOL    HW2 3259  13.049   5.213   8.590
  474SOL     OW 3260   2.553  10.696  10.017
  474SOL    HW1 3261   2.554  10.658  10.104
  474SOL    HW2 3262   2.503  10.778  10.027
  475SOL     OW 3263   5.651   8.833   8.453
  475SOL    HW1 3264   5.703   8.833   8.534
  475SOL    HW2 3265   5.661   8.921   8.418
  476SOL     OW 3266   3.830  13.663   5.818
  476SOL    HW1 3267   3.808  13.619   5.901
  476SOL    HW2 3268   3.873  13.744   5.845
  477SOL     OW 3269  10.497  11.139  10.485
  477SOL    HW1 3270  10.556  11.197  10.437
  477SOL    HW2 3271  10.552  11.099  10.552
  478SOL     OW 3272   1.314   8.928   3.462
  478SOL    HW1 3273   1.392   8.965   3.419
  478SOL    HW2 3274   1.325   8.951   3.554
  479SOL     OW 3275   7.819   7.746   4.687
  479SOL    HW1 3276   7.849   7.689   4.615
  479SOL    HW2 3277   7.785   7.685   4.753
  480SOL     OW 3278   8.036   9.412   1.487
  480SOL    HW1 3279   8.093   9.412   1.564
  480SOL    HW2 3280   8.034   9.321   1.458
  481SOL     OW 3281   2.092  12.688   6.871
  481SOL    HW1 3282   2.167  12.660   6.925
  481SOL    HW2 3283   2.077  12.615   6.812
  482SOL     OW 3284  11.440   7.053  12.828
  482SOL    HW1 3285  11.421   7.122  12.764
  482SOL    HW2 3286  11.487   7.098  12.899
  483SOL     OW 3287  11.185   5.531  10.174
  483SOL    HW1 3288  11.102   5.539  10.127
  483SOL    HW2 3289  11.227   5.454  10.136
  484SOL     OW 3290  11.663  13.090   8.599
  484SOL    HW1 3291  11.726  13.041   8.653
  484SOL    HW2 3292  11.649  13.036   8.522
  485SOL     OW 3293   4.641  11.263   0.172
  485SOL    HW1 3294   4.566  11.207   0.191
  485SOL    HW2 3295   4.603  11.350   0.158
  486SOL     OW 3296  14.422  10.347   9.341
  486SOL    HW1 3297  14.339  10.373   9.382
  486SOL    HW2 3298  14.482  10.334   9.414
  487SOL     OW 3299  12.431   8.147  14.799
  487SOL    HW1 3300  12.413   8.162  14.706
  487SOL    HW2 3301  12.515   8.101  14.800
  488SOL     OW 3302   7.359  12.409   7.729
  488SOL    HW1 3303   7.279  12.462   7.730
  488SOL    HW2 3304   7.374  12.390   7.637
  489SOL     OW 3305  12.388   7.979   3.709
  489SOL    HW1 3306  12.378   7.965   3.804
  489SOL    HW2 3307  12.346   7.903   3.669
  490SOL     OW 3308  11.622   9.820   1.366
  490SOL    HW1 3309  11.693   9.860   1.416
  490SOL    HW2 3310  11.607   9.736   1.410
  491SOL     OW 3311  13.160   0.493   9.754
  491SOL    HW1 3312  13.104   0.476   9.829
  491SOL    HW2 3313  13.104   0.544   9.694
  492SOL     OW 3314   4.989  12.375   8.356
  492SOL    HW1 3315   5.062  12.347   8.300
  492SOL    HW2 3316   4.948  12.446   8.307
  493SOL     OW 3317   3.431   1.386   9.800
  493SOL    HW1 3318   3.521   1.369   9.772
  493SOL    HW2 3319   3.380   1.315   9.759
  494SOL     OW 3320  12.030  11.293   5.385
  494SOL    HW1 3321  12.068  11.267   5.469
  494SOL    HW2 3322  12.088  11.256   5.319
  495SOL     OW 3323   7.989  10.681   9.241
  495SOL    HW1 3324   8.015  10.762   9.197
  495SOL    HW2 3325   7.912  10.706   9.294
  496SOL     OW 3326   9.494  10.014   5.001
  496SOL    HW1 3327   9.508   9.942   5.062
  496SOL    HW2 3328   9.476   9.972   4.917
  497SOL     OW 3329   9.053   2.767   1.288
  497SOL    HW1 3330   9.103   2.795   1.365
  497SOL    HW2 3331   9.099   2.689   1.257
  498SOL     OW 3332   2.807   7.259   7.293
  498SOL    HW1 3333   2.877   7.254   7.359
  498SOL    HW2 3334   2.815   7.176   7.245
  499SOL     OW 3335   4.145   7.502  14.504
  499SOL    HW1 3336   4.193   7.492  14.587
  499SOL    HW2 3337   4.068   7.446  14.514
  500SOL     OW 3338  12.756  14.293   5.069
  500SOL    HW1 3339  12.781  14.201   5.078
  500SOL    HW2 3340  12.668  14.297   5.107
  501SOL     OW 3341   8.294   9.365  11.363
  501SOL    HW1 3342   8.340   9.311  11.299
  501SOL    HW2 3343   8.255   9.303  11.424
  502SOL     OW 3344  14.379   9.969   9.268
  502SOL    HW1 3345  14.452   9.939   9.214
  502SOL    HW2 3346  14.326  10.023   9.210
  503SOL     OW 3347   8.581   7.625   2.440
  503SOL    HW1 3348   8.582   7.574   2.521
  503SOL    HW2 3349   8.497   7.602   2.399
  504SOL     OW 3350   2.521   9.202   9.596
  504SOL    HW1 3351   2.497   9.294   9.607
  504SOL    HW2 3352   2.535   9.170   9.685
  505SOL     OW 3353   5.985  11.323   5.780
  505SOL    HW1 3354   6.062  11.351   5.731
  505SOL    HW2 3355   6.010  11.334   5.872
  506SOL     OW 3356   2.641  12.919   7.730
  506SOL    HW1 3357   2.737  12.924   7.724
  506SOL    HW2 3358   2.613  12.884   7.645
  507SOL     OW 3359  13.848  10.390   8.650
  507SOL    HW1 3360  13.890  10.337   8.583
  507SOL    HW2 3361  13.784  10.332   8.691
  508SOL     OW 3362   8.098  11.285   7.738
  508SOL    HW1 3363   8.035  11.213   7.739
  508SOL    HW2 3364   8.155  11.266   7.663
  509SOL     OW 3365  11.091   0.409   7.210
  509SOL    HW1 3366  11.055   0.470   7.145
  509SOL    HW2 3367  11.175   0.448   7.236
  510SOL     OW 3368   1.326   5.434  14.453
  510SOL    HW1 3369   1.414   5.415  14.420
  510SOL    HW2 3370   1.340   5.457  14.545
  511SOL     OW 3371  14.085   6.521   1.529
  511SOL    HW1 3372  14.129   6.451   1.576
  511SOL    HW2 3373  14.066   6.484   1.443
  512SOL     OW 3374  14.484   7.245   4.936
  512SOL    HW1 3375  14.567   7.290   4.949
  512SOL    HW2 3376  14.497   7.158   4.973
  513SOL     OW 3377  11.806  11.987  14.480
  513SOL    HW1 3378  11.856  12.063  14.451
  513SOL    HW2 3379  11.744  12.021  14.545
  514SOL     OW 3380  12.978   1.044  12.339
  514SOL    HW1 3381  12.940   1.052  12.251
  514SOL    HW2 3382  13.014   0.956  12.342
  515SOL     OW 3383  10.254   5.950   9.577
  515SOL    HW1 3384  10.166   5.972   9.607
  515SOL    HW2 3385  10.243   5.923   9.486
  516SOL     OW 3386   5.836  10.903   6.225
  516SOL    HW1 3387   5.864  10.832   6.283
  516SOL    HW2 3388   5.842  10.866   6.137
  517SOL     OW 3389   5.517   1.009  12.473
  517SOL    HW1 3390   5.605   1.005  12.436
  517SOL    HW2 3391   5.463   1.046  12.403
  518SOL     OW 3392  11.947   7.300   5.602
  518SOL    HW1 3393  11.863   7.338   5.574
  518SOL    HW2 3394  11.923   7.215   5.639
  519SOL     OW 3395   4.109   1.264   8.465
  519SOL    HW1 3396   4.123   1.327   8.394
  519SOL    HW2 3397   4.095   1.181   8.420
  520SOL     OW 3398  13.748  10.245  12.075
  520SOL    HW1 3399  13.837  10.215  12.061
  520SOL    HW2 3400  13.738  10.321  12.018
  521SOL     OW 3401   0.357   5.912   9.955
  521SOL    HW1 3402   0.442   5.945   9.985
  521SOL    HW2 3403   0.371   5.888   9.863
  522SOL     OW 3404  10.838   6.463  13.999
  522SOL    HW1 3405  10.799   6.377  14.013
  522SOL    HW2 3406  10.767   6.525  14.013
  523SOL     OW 3407  10.389   9.360   1.851
  523SOL    HW1 3408  10.345   9.278   1.832
  523SOL    HW2 3409  10.378   9.413   1.772
  524SOL     OW 3410   3.678   9.890   2.299
  524SOL    HW1 3411   3.703   9.973   2.341
  524SOL    HW2 3412   3.699   9.823   2.365
  525SOL     OW 3413  10.430  10.952  12.495
  525SOL    HW1 3414  10.348  10.970  12.449
  525SOL    HW2 3415  10.404  10.904  12.573
  526SOL     OW 3416   3.594  12.343   7.675
  526SOL    HW1 3417   3.551  12.282   7.735
  526SOL    HW2 3418   3.526  12.367   7.612
  527SOL     OW 3419   8.666  11.427  10.736
  527SOL    HW1 3420   8.704  11.340  10.746
  527SOL    HW2 3421   8.575  11.417  10.764
  528SOL     OW 3422   3.128  13.384   9.476
  528SOL    HW1 3423   3.093  13.441   9.545
  528SOL    HW2 3424   3.209  13.349   9.513
  529SOL     OW 3425   2.074  13.668  14.769
  529SOL    HW1 3426   2.037  13.752  14.796
  529SOL    HW2 3427   2.140  13.691  14.703
  530SOL     OW 3428   4.850   4.689   6.040
  530SOL    HW1 3429   4.791   4.613   6.038
  530SOL    HW2 3430   4.822   4.743   5.967
  531SOL     OW 3431  10.782  10.962   8.436
  531SOL    HW1 3432  10.691  10.986   8.414
  531SOL    HW2 3433  10.812  10.911   8.361
  532SOL     OW 3434   4.266   5.206   5.896
  532SOL    HW1 3435   4.215   5.202   5.815
  532SOL    HW2 3436   4.355   5.227   5.867
  533SOL     OW 3437   0.062  10.318   7.822
  533SOL    HW1 3438   0.042  10.409   7.847
  533SOL    HW2 3439   0.016  10.265   7.887
  534SOL     OW 3440  13.594   9.239  10.761
  534SOL    HW1 3441  13.658   9.242  10.690
  534SOL    HW2 3442  13.511   9.221  10.717
  535SOL     OW 3443   4.020  11.663   4.286
  535SOL    HW1 3444   4.112  11.648   4.307
  535SOL    HW2 3445   3.986  11.711   4.361
  536SOL     OW 3446   3.315   0.427   1.520
  536SOL    HW1 3447   3.337   0.402   1.609
  536SOL    HW2 3448   3.219   0.425   1.517
  537SOL     OW 3449   6.494  14.062  13.544
  537SOL    HW1 3450   6.517  14.154  13.551
  537SOL    HW2 3451   6.577  14.017  13.527
  538SOL     OW 3452   9.118   0.824   9.045
  538SOL    HW1 3453   9.026   0.809   9.025
  538SOL    HW2 3454   9.121   0.912   9.081
  539SOL     OW 3455   8.049  10.498   4.864
  539SOL    HW1 3456   8.018  10.483   4.775
  539SOL    HW2 3457   7.975  10.538   4.909
  540SOL     OW 3458   4.112   8.537   3.099
  540SOL    HW1 3459   4.065   8.465   3.057
  540SOL    HW2 3460   4.161   8.578   3.027
  541SOL     OW 3461   9.689  12.340  10.445
  541SOL    HW1 3462   9.737  12.377  10.370
  541SOL    HW2 3463   9.667  12.251  10.418
  542SOL     OW 3464  11.642   6.530   7.342
  542SOL    HW1 3465  11.693   6.585   7.402
  542SOL    HW2 3466  11.706   6.473   7.300
  543SOL     OW 3467   0.062  14.863   8.286
  543SOL    HW1 3468   0.074   0.068   8.243
  543SOL    HW2 3469   0.101  14.799   8.227
  544SOL     OW 3470   7.036  10.930  10.658
  544SOL    HW1 3471   7.001  10.947  10.571
  544SOL    HW2 3472   7.080  11.012  10.682
  545SOL     OW 3473   0.309   5.678   7.530
  545SOL    HW1 3474   0.250   5.721   7.593
  545SOL    HW2 3475   0.250   5.639   7.466
  546SOL     OW 3476   3.956   1.441   3.434
  546SOL    HW1 3477   4.020   1.478   3.496
  546SOL    HW2 3478   3.907   1.517   3.402
  547SOL     OW 3479   1.291  14.432  13.274
  547SOL    HW1 3480   1.339  14.474  13.203
  547SOL    HW2 3481   1.233  14.369  13.229
  548SOL     OW 3482  10.444  10.927   4.088
  548SOL    HW1 3483  10.493  11.009   4.083
  548SOL    HW2 3484  10.369  10.940   4.030
  549SOL     OW 3485   0.843   6.702   9.632
  549SOL    HW1 3486   0.783   6.776   9.633
  549SOL    HW2 3487   0.868   6.689   9.723
  550SOL     OW 3488  10.708   2.106   5.282
  550SOL    HW1 3489  10.617   2.100   5.252
  550SOL    HW2 3490  10.710   2.053   5.361
  551SOL     OW 3491  10.927  10.042   1.168
  551SOL    HW1 3492  10.926  10.029   1.263
  551SOL    HW2 3493  10.985   9.974   1.135
  552SOL     OW 3494  14.560  14.763   7.993
  552SOL    HW1 3495  14.567  14.675   7.956
  552SOL    HW2 3496  14.612  14.759   8.073
  553SOL     OW 3497   8.433   6.254   9.693
  553SOL    HW1 3498   8.434   6.347   9.716
  553SOL    HW2 3499   8.455   6.251   9.600
  554SOL     OW 3500   8.094   2.419   2.436
  554SOL    HW1 3501   8.132   2.377   2.513
  554SOL    HW2 3502   8.076   2.509   2.465
  555SOL     OW 3503   2.399  12.178  13.002
  555SOL    HW1 3504   2.328  12.150  13.060
  555SOL    HW2 3505   2.393  12.120  12.926
  556SOL     OW 3506   0.420  10.851   2.542
  556SOL    HW1 3507   0.452  10.940   2.553
  556SOL    HW2 3508   0.435  10.810   2.628
  557SOL     OW 3509   5.741   1.851   7.889
  557SOL    HW1 3510   5.706   1.781   7.944
  557SOL    HW2 3511   5.816   1.812   7.844
  558SOL     OW 3512  11.062   0.677   1.614
  558SOL    HW1 3513  11.057   0.607   1.679
  558SOL    HW2 3514  11.131   0.649   1.554
  559SOL     OW 3515   5.586  14.332   0.893
  559SOL    HW1 3516   5.563  14.374   0.976
  559SOL    HW2 3517   5.539  14.249   0.894
  560SOL     OW 3518  12.739  11.926   5.773
  560SOL    HW1 3519  12.798  11.872   5.720
  560SOL    HW2 3520  12.673  11.957   5.712
  561SOL     OW 3521   4.955   2.270   2.298
  561SOL    HW1 3522   5.028   2.299   2.243
  561SOL    HW2 3523   4.876   2.291   2.247
  562SOL     OW 3524  11.922   1.718   4.460
  562SOL    HW1 3525  11.978   1.644   4.438
  562SOL    HW2 3526  11.975   1.772   4.518
  563SOL     OW 3527   0.254  13.930   9.309
  563SOL    HW1 3528   0.173  13.880   9.324
  563SOL    HW2 3529   0.263  13.984   9.388
  564SOL     OW 3530  12.603   9.848   2.747
  564SOL    HW1 3531  12.623   9.938   2.772
  564SOL    HW2 3532  12.516   9.832   2.784
  565SOL     OW 3533  12.630  12.046   7.973
  565SOL    HW1 3534  12.590  11.980   8.030
  565SOL    HW2 3535  12.580  12.040   7.891
  566SOL     OW 3536   6.728   4.940  12.521
  566SOL    HW1 3537   6.727   4.882  12.597
  566SOL    HW2 3538   6.821   4.956  12.505
  567SOL     OW 3539   5.783   5.787  13.946
  567SOL    HW1 3540   5.878   5.792  13.948
  567SOL    HW2 3541   5.761   5.767  13.855
  568SOL     OW 3542   2.673  14.054   6.439
  568SOL    HW1 3543   2.746  13.992   6.440
  568SOL    HW2 3544   2.700  14.122   6.376
  569SOL     OW 3545  13.642  12.299  10.786
  569SOL    HW1 3546  13.676  12.384  10.762
  569SOL    HW2 3547  13.553  12.316  10.816
  570SOL     OW 3548   5.940   6.014   6.062
  570SOL    HW1 3549   5.963   6.051   5.977
  570SOL    HW2 3550   6.022   6.014   6.111
  571SOL     OW 3551   9.942  12.401   4.047
  571SOL    HW1 3552  10.002  12.335   4.012
  571SOL    HW2 3553   9.907  12.361   4.127
  572SOL     OW 3554   8.839   0.919   0.269
  572SOL    HW1 3555   8.911   0.876   0.314
  572SOL    HW2 3556   8.808   0.855   0.204
  573SOL     OW 3557  10.167   7.226   7.327
  573SOL    HW1 3558  10.108   7.219   7.251
  573SOL    HW2 3559  10.245   7.178   7.301
  574SOL     OW 3560  13.876   6.038   6.834
  574SOL    HW1 3561  13.929   6.112   6.804
  574SOL    HW2 3562  13.881   6.041   6.929
  575SOL     OW 3563   0.747   4.893   7.197
  575SOL    HW1 3564   0.816   4.864   7.256
  575SOL    HW2 3565   0.671   4.841   7.221
  576SOL     OW 3566   1.261   5.120  11.253
  576SOL    HW1 3567   1.327   5.075  11.201
  576SOL    HW2 3568   1.199   5.051  11.279
  577SOL     OW 3569   6.890   8.496   6.761
  577SOL    HW1 3570   6.827   8.501   6.833
  577SOL    HW2 3571   6.976   8.502   6.804
  578SOL     OW 3572   3.374  11.833   7.003
  578SOL    HW1 3573   3.301  11.775   6.981
  578SOL    HW2 3574   3.333  11.908   7.046
  579SOL     OW 3575   7.062  11.745   3.079
  579SOL    HW1 3576   7.029  11.688   3.149
  579SOL    HW2 3577   6.985  11.769   3.029
  580SOL     OW 3578   0.212  10.395   8.093
  580SOL    HW1 3579   0.214  10.330   8.164
  580SOL    HW2 3580   0.194  10.345   8.014
  581SOL     OW 3581   8.809  14.129   1.189
  581SOL    HW1 3582   8.883  14.190   1.181
  581SOL    HW2 3583   8.740  14.181   1.231
  582SOL     OW 3584   3.987   3.621   1.421
  582SOL    HW1 3585   3.963   3.579   1.503
  582SOL    HW2 3586   3.930   3.697   1.415
  583SOL     OW 3587   2.932   0.066  11.332
  583SOL    HW1 3588   2.924  14.861  11.375
  583SOL    HW2 3589   3.027   0.079  11.321
  584SOL     OW 3590   3.710  12.405   8.086
  584SOL    HW1 3591   3.626  12.365   8.065
  584SOL    HW2 3592   3.738  12.362   8.167
  585SOL     OW 3593  14.577   5.253   8.059
  585SOL    HW1 3594  14.592   5.162   8.030
  585SOL    HW2 3595  14.483   5.266   8.048
  586SOL     OW 3596  13.096   5.775   2.641
  586SOL    HW1 3597  13.158   5.792   2.571
  586SOL    HW2 3598  13.025   5.838   2.626
  587SOL     OW 3599   3.357   3.194  11.123
  587SOL    HW1 3600   3.317   3.251  11.188
  587SOL    HW2 3601   3.352   3.243  11.041
  588SOL     OW 3602   2.573  12.967   8.838
  588SOL    HW1 3603   2.583  13.052   8.795
  588SOL    HW2 3604   2.528  12.987   8.920
  589SOL     OW 3605  11.616   0.616   1.002
  589SOL    HW1 3606  11.691   0.672   1.017
  589SOL    HW2 3607  11.593   0.630   0.910
  590SOL     OW 3608   5.580   1.260   7.581
  590SOL    HW1 3609   5.489   1.282   7.603
  590SOL    HW2 3610   5.575   1.220   7.494
  591SOL     OW 3611   7.935   8.352   0.351
  591SOL    HW1 3612   7.860   8.295   0.331
  591SOL    HW2 3613   7.959   8.391   0.267
  592SOL     OW 3614   0.980   6.753   3.181
  592SOL    HW1 3615   0.920   6.708   3.122
  592SOL    HW2 3616   0.935   6.834   3.204
  593SOL     OW 3617   3.654  10.090   9.431
  593SOL    HW1 3618   3.727  10.065   9.487
  593SOL    HW2 3619   3.577  10.051   9.474
  594SOL     OW 3620  14.819   0.925  10.081
  594SOL    HW1 3621  14.735   0.924  10.036
  594SOL    HW2 3622  14.849   0.834  10.078
  595SOL     OW 3623   7.429   4.525   6.938
  595SOL    HW1 3624   7.507   4.571   6.968
  595SOL    HW2 3625   7.379   4.590   6.890
  596SOL     OW 3626   0.428  10.939   5.954
  596SOL    HW1 3627   0.427  10.910   6.046
  596SOL    HW2 3628   0.337  10.960   5.935
  597SOL     OW 3629   9.266   3.409   9.438
  597SOL    HW1 3630   9.323   3.357   9.496
  597SOL    HW2 3631   9.240   3.347   9.369
  598SOL     OW 3632   1.403   4.211  12.790
  598SOL    HW1 3633   1.318   4.241  12.820
  598SOL    HW2 3634   1.392   4.197  12.696
  599SOL     OW 3635   7.559  12.042  10.716
  599SOL    HW1 3636   7.622  12.113  10.724
  599SOL    HW2 3637   7.613  11.963  10.709
  600SOL     OW 3638   9.344   3.501   8.408
  600SOL    HW1 3639   9.264   3.448   8.414
  600SOL    HW2 3640   9.317   3.589   8.431
  601SOL     OW 3641   0.102  12.187  13.506
  601SOL    HW1 3642   0.160  12.234  13.565
  601SOL    HW2 3643   0.077  12.108  13.555
  602SOL     OW 3644  10.749   0.051   7.763
  602SOL    HW1 3645  10.712   0.099   7.837
  602SOL    HW2 3646  10.844   0.052   7.780
  603SOL     OW 3647   6.804   1.187   1.081
  603SOL    HW1 3648   6.820   1.099   1.049
  603SOL    HW2 3649   6.864   1.197   1.156
  604SOL     OW 3650   9.595  12.445   1.802
  604SOL    HW1 3651   9.612  12.365   1.850
  604SOL    HW2 3652   9.575  12.510   1.869
  605SOL     OW 3653   4.215   4.050  12.617
  605SOL    HW1 3654   4.196   4.062  12.524
  605SOL    HW2 3655   4.227   4.139  12.651
  606SOL     OW 3656   8.885   7.566  13.080
  606SOL    HW1 3657   8.849   7.637  13.133
  606SOL    HW2 3658   8.859   7.589  12.990
  607SOL     OW 3659   4.918  11.824   6.863
  607SOL    HW1 3660   4.856  11.896   6.858
  607SOL    HW2 3661   4.936  11.813   6.956
  608SOL     OW 3662  10.119   1.434  13.099
  608SOL    HW1 3663  10.030   1.467  13.082
  608SOL    HW2 3664  10.132   1.448  13.193
  609SOL     OW 3665  14.698  13.935  14.778
  609SOL    HW1 3666  14.774  13.884  14.806
  609SOL    HW2 3667  14.715  13.954  14.686
  610SOL     OW 3668   5.157  14.302   8.816
  610SOL    HW1 3669   5.204  14.382   8.792
  610SOL    HW2 3670   5.215  14.260   8.880
  611SOL     OW 3671  14.648  10.376   1.569
  611SOL    HW1 3672  14.586  10.390   1.640
  611SOL    HW2 3673  14.654  10.281   1.560
  612SOL     OW 3674  11.650  11.173   3.162
  612SOL    HW1 3675  11.565  11.129   3.163
  612SOL    HW2 3676  11.629  11.266   3.167
  613SOL     OW 3677   5.128  12.062   3.526
  613SOL    HW1 3678   5.037  12.080   3.502
  613SOL    HW2 3679   5.179  12.100   3.454
  614SOL     OW 3680   7.164   3.789   4.662
  614SOL    HW1 3681   7.135   3.825   4.745
  614SOL    HW2 3682   7.246   3.745   4.682
  615SOL     OW 3683   0.192   2.322   0.760
  615SOL    HW1 3684   0.159   2.325   0.670
  615SOL    HW2 3685   0.201   2.228   0.779
  616SOL     OW 3686   2.922   7.460   0.697
  616SOL    HW1 3687   2.865   7.519   0.647
  616SOL    HW2 3688   2.868   7.383   0.712
  617SOL     OW 3689   0.955   6.405  12.683
  617SOL    HW1 3690   0.994   6.319  12.665
  617SOL    HW2 3691   1.022   6.452  12.732
  618SOL     OW 3692   0.996   6.584  12.429
  618SOL    HW1 3693   0.974   6.512  12.369
  618SOL    HW2 3694   0.982   6.547  12.516
  619SOL     OW 3695   1.983  13.838   2.892
  619SOL    HW1 3696   1.938  13.905   2.840
  619SOL    HW2 3697   1.998  13.880   2.977
  620SOL     OW 3698   8.107   7.342  14.050
  620SOL    HW1 3699   8.118   7.434  14.025
  620SOL    HW2 3700   8.091   7.345  14.144
  621SOL     OW 3701   8.312   0.122  13.212
  621SOL    HW1 3702   8.349   0.099  13.126
  621SOL    HW2 3703   8.379   0.174  13.255
  622SOL     OW 3704  14.577   9.126   9.982
  622SOL    HW1 3705  14.503   9.164  10.029
  622SOL    HW2 3706  14.653   9.171  10.017
  623SOL     OW 3707  11.645  11.250   1.551
  623SOL    HW1 3708  11.652  11.172   1.496
  623SOL    HW2 3709  11.648  11.323   1.490
  624SOL     OW 3710   4.582  14.397   4.438
  624SOL    HW1 3711   4.592  14.467   4.374
  624SOL    HW2 3712   4.488  14.389   4.451
  625SOL     OW 3713   0.432   2.741   0.810
  625SOL    HW1 3714   0.442   2.690   0.890
  625SOL    HW2 3715   0.410   2.829   0.839
  626SOL     OW 3716   6.845  10.958   1.122
  626SOL    HW1 3717   6.840  10.875   1.171
  626SOL    HW2 3718   6.907  11.011   1.172
  627SOL     OW 3719   6.785  14.634  14.012
  627SOL    HW1 3720   6.865  14.593  13.980
  627SOL    HW2 3721   6.757  14.579  14.085
  628SOL     OW 3722   3.179   2.315  11.767
  628SOL    HW1 3723   3.222   2.323  11.852
  628SOL    HW2 3724   3.214   2.233  11.730
  629SOL     OW 3725   2.612   5.096  10.643
  629SOL    HW1 3726   2.552   5.041  10.693
  629SOL    HW2 3727   2.690   5.041  10.630
  630SOL     OW 3728   2.923  10.856   8.473
  630SOL    HW1 3729   2.888  10.845   8.561
  630SOL    HW2 3730   2.852  10.897   8.423
  631SOL     OW 3731  13.827   0.708  13.977
  631SOL    HW1 3732  13.902   0.651  13.996
  631SOL    HW2 3733  13.769   0.696  14.052
  632SOL     OW 3734   1.148   3.356   1.426
  632SOL    HW1 3735   1.122   3.265   1.438
  632SOL    HW2 3736   1.069   3.401   1.395
  633SOL     OW 3737   1.719   8.076  11.923
  633SOL    HW1 3738   1.789   8.060  11.861
  633SOL    HW2 3739   1.639   8.055  11.875
  634SOL     OW 3740   5.278   0.402  13.847
  634SOL    HW1 3741   5.222   0.394  13.924
  634SOL    HW2 3742   5.297   0.312  13.822
  635SOL     OW 3743  13.895  10.894   6.661
  635SOL    HW1 3744  13.944  10.818   6.629
  635SOL    HW2 3745  13.803  10.867   6.655
  636SOL     OW 3746   5.819   8.432   5.457
  636SOL    HW1 3747   5.730   8.442   5.490
  636SOL    HW2 3748   5.823   8.343   5.422
  637SOL     OW 3749  10.961  12.918   4.179
  637SOL    HW1 3750  11.018  12.948   4.109
  637SOL    HW2 3751  10.958  12.823   4.169
  638SOL     OW 3752  12.376  11.639   9.337
  638SOL    HW1 3753  12.425  11.591   9.271
  638SOL    HW2 3754  12.289  11.651   9.298
  639SOL     OW 3755   5.946   8.724   4.096
  639SOL    HW1 3756   5.894   8.645   4.109
  639SOL    HW2 3757   6.037   8.693   4.090
  640SOL     OW 3758   9.923   5.327   3.178
  640SOL    HW1 3759   9.902   5.234   3.172
  640SOL    HW2 3760   9.944   5.342   3.270
  641SOL     OW 3761   9.732   8.601   4.672
  641SOL    HW1 3762   9.638   8.587   4.680
  641SOL    HW2 3763   9.741   8.676   4.612
  642SOL     OW 3764  12.111   8.602   8.325
  642SOL    HW1 3765  12.148   8.680   8.284
  642SOL    HW2 3766  12.019   8.624   8.340
  643SOL     OW 3767   4.950   6.248   0.542
  643SOL    HW1 3768   4.897   6.205   0.609
  643SOL    HW2 3769   5.006   6.179   0.508
  644SOL     OW 3770  10.660   5.706   2.102
  644SOL    HW1 3771  10.739   5.653   2.097
  644SOL    HW2 3772  10.686   5.784   2.151
  645SOL     OW 3773   5.416   8.308  10.652
  645SOL    HW1 3774   5.375   8.387  10.617
  645SOL    HW2 3775   5.460   8.269  10.576
  646SOL     OW 3776   8.835   0.988  11.723
  646SOL    HW1 3777   8.844   1.049  11.649
  646SOL    HW2 3778   8.795   1.041  11.793
  647SOL     OW 3779   5.256   5.348   3.466
  647SOL    HW1 3780   5.334   5.362   3.520
  647SOL    HW2 3781   5.214   5.434   3.462
  648SOL     OW 3782   6.422  13.185   1.698
  648SOL    HW1 3783   6.424  13.096   1.665
  648SOL    HW2 3784   6.389  13.176   1.788
  649SOL     OW 3785   3.293   1.533  11.803
  649SOL    HW1 3786   3.379   1.525  11.845
  649SOL    HW2 3787   3.242   1.586  11.864
  650SOL     OW 3788  13.394  11.770   3.048
  650SOL    HW1 3789  13.453  11.844   3.064
  650SOL    HW2 3790  13.334  11.802   2.981
  651SOL     OW 3791   2.600  10.720   0.733
  651SOL    HW1 3792   2.618  10.667   0.811
  651SOL    HW2 3793   2.574  10.657   0.667
  652SOL     OW 3794  10.343   0.323  14.656
  652SOL    HW1 3795  10.382   0.389  14.713
  652SOL    HW2 3796  10.397   0.245  14.670
  653SOL     OW 3797   4.010  14.716   7.193
  653SOL    HW1 3798   3.931  14.721   7.139
  653SOL    HW2 3799   3.997  14.782   7.261
  654SOL     OW 3800   4.171   9.403   9.598
  654SOL    HW1 3801   4.228   9.438   9.529
  654SOL    HW2 3802   4.091   9.378   9.552
  655SOL     OW 3803   7.890   4.988   5.716
  655SOL    HW1 3804   7.982   4.972   5.694
  655SOL    HW2 3805   7.856   4.901   5.738
  656SOL     OW 3806  13.747   4.976   0.429
  656SOL    HW1 3807  13.792   4.891   0.423
  656SOL    HW2 3808  13.654   4.954   0.432
  657SOL     OW 3809   3.275  14.019  12.327
  657SOL    HW1 3810   3.289  13.924  12.335
  657SOL    HW2 3811   3.210  14.039  12.395
  658SOL     OW 3812  10.755  10.796   8.685
  658SOL    HW1 3813  10.769  10.858   8.756
  658SOL    HW2 3814  10.737  10.851   8.609
  659SOL     OW 3815   0.354  10.968   1.369
  659SOL    HW1 3816   0.290  10.972   1.440
  659SOL    HW2 3817   0.338  10.883   1.328
  660SOL     OW 3818   3.397   1.956  12.065
  660SOL    HW1 3819   3.468   1.895  12.048
  660SOL    HW2 3820   3.368   1.935  12.154
  661SOL     OW 3821   0.554  14.508   8.066
  661SOL    HW1 3822   0.484  14.517   8.132
  661SOL    HW2 3823   0.543  14.584   8.009
  662SOL     OW 3824  14.428   5.090   5.933
  662SOL    HW1 3825  14.363   5.120   5.997
  662SOL    HW2 3826  14.510   5.129   5.962
  663SOL     OW 3827  11.096   5.995   8.986
  663SOL    HW1 3828  11.054   6.041   8.914
  663SOL    HW2 3829  11.046   5.914   8.995
  664SOL     OW 3830   9.580   3.631   1.049
  664SOL    HW1 3831   9.539   3.546   1.032
  664SOL    HW2 3832   9.672   3.611   1.065
  665SOL     OW 3833  12.788  14.478  12.152
  665SOL    HW1 3834  12.712  14.534  12.138
  665SOL    HW2 3835  12.855  14.537  12.187
  666SOL     OW 3836   8.964  12.946   5.433
  666SOL    HW1 3837   9.016  13.000   5.492
  666SOL    HW2 3838   8.897  13.005   5.399
  667SOL     OW 3839  11.719   6.361   0.641
  667SOL    HW1 3840  11.773   6.397   0.571
  667SOL    HW2 3841  11.647   6.317   0.595
  668SOL     OW 3842   8.481   1.638  13.461
  668SOL    HW1 3843   8.399   1.658  13.505
  668SOL    HW2 3844   8.490   1.543  13.469
  669SOL     OW 3845  10.841  14.163  10.308
  669SOL    HW1 3846  10.860  14.249  10.271
  669SOL    HW2 3847  10.774  14.126  10.249
  670SOL     OW 3848  14.719   0.179   0.989
  670SOL    HW1 3849  14.672   0.225   1.059
  670SOL    HW2 3850  14.776   0.118   1.035
  671SOL     OW 3851  14.094   0.128   9.094
  671SOL    HW1 3852  14.067   0.041   9.065
  671SOL    HW2 3853  14.043   0.144   9.173
  672SOL     OW 3854   0.340  10.104  11.740
  672SOL    HW1 3855   0.255  10.138  11.711
  672SOL    HW2 3856   0.322  10.015  11.768
  673SOL     OW 3857   8.157  12.821   7.233
  673SOL    HW1 3858   8.200  12.897   7.194
  673SOL    HW2 3859   8.105  12.783   7.162
  674SOL     OW 3860   1.476   5.594   2.011
  674SOL    HW1 3861   1.436   5.576   2.097
  674SOL    HW2 3862   1.548   5.654   2.030
  675SOL     OW 3863  12.930   8.514   6.004
  675SOL    HW1 3864  13.001   8.498   5.942
  675SOL    HW2 3865  12.970   8.503   6.090
  676SOL     OW 3866   3.059   7.746  13.863
  676SOL    HW1 3867   3.014   7.810  13.808
  676SOL    HW2 3868   3.014   7.750  13.947
  677SOL     OW 3869  14.013   7.130   7.736
  677SOL    HW1 3870  14.000   7.194   7.666
  677SOL    HW2 3871  14.085   7.166   7.788
  678SOL     OW 3872   9.403   6.915   8.760
  678SOL    HW1 3873   9.313   6.889   8.776
  678SOL    HW2 3874   9.456   6.845   8.799
  679SOL     OW 3875  11.397   6.466   3.781
  679SOL    HW1 3876  11.447   6.539   3.818
  679SOL    HW2 3877  11.306   6.495   3.781
  680SOL     OW 3878   5.665   9.078   8.309
  680SOL    HW1 3879   5.600   9.068   8.240
  680SOL    HW2 3880   5.664   9.172   8.329
  681SOL     OW 3881   0.823   9.395  10.325
  681SOL    HW1 3882   0.912   9.362  10.332
  681SOL    HW2 3883   0.817   9.461  10.394
  682SOL     OW 3884   9.751   2.672  11.273
  682SOL    HW1 3885   9.700   2.661  11.354
  682SOL    HW2 3886   9.697   2.633  11.205
  683SOL     OW 3887   4.473   8.670  11.808
  683SOL    HW1 3888   4.512   8.600  11.757
  683SOL    HW2 3889   4.448   8.736  11.743
  684SOL     OW 3890  13.633  12.380   8.410
  684SOL    HW1 3891  13.622  12.373   8.315
  684SOL    HW2 3892  13.633  12.290   8.441
  685SOL     OW 3893   8.301   0.900   2.787
  685SOL    HW1 3894   8.236   0.881   2.854
  685SOL    HW2 3895   8.385   0.886   2.830
  686SOL     OW 3896  12.706  11.274   0.322
  686SOL    HW1 3897  12.741  11.363   0.318
  686SOL    HW2 3898  12.620  11.280   0.280
  687SOL     OW 3899  10.318   3.424   6.350
  687SOL    HW1 3900  10.309   3.398   6.258
  687SOL    HW2 3901  10.227   3.440   6.378
  688SOL     OW 3902   3.123   3.762   9.505
  688SOL    HW1 3903   3.030   3.740   9.505
  688SOL    HW2 3904   3.157   3.722   9.426
  689SOL     OW 3905   7.994  11.949   1.233
  689SOL    HW1 3906   7.918  11.915   1.281
  689SOL    HW2 3907   7.967  11.947   1.141
  690SOL     OW 3908   7.485   7.773   0.637
  690SOL    HW1 3909   7.437   7.824   0.703
  690SOL    HW2 3910   7.576   7.773   0.668
  691SOL     OW 3911  10.872   7.734  12.571
  691SOL    HW1 3912  10.858   7.773  12.485
  691SOL    HW2 3913  10.826   7.650  12.568
  692SOL     OW 3914   0.396   3.798   4.636
  692SOL    HW1 3915   0.340   3.724   4.659
  692SOL    HW2 3916   0.481   3.777   4.676
  693SOL     OW 3917  10.505   5.228   0.472
  693SOL    HW1 3918  10.597   5.234   0.496
  693SOL    HW2 3919  10.503   5.175   0.392
  694SOL     OW 3920   3.754   0.774   8.350
  694SOL    HW1 3921   3.743   0.702   8.288
  694SOL    HW2 3922   3.737   0.734   8.436
  695SOL     OW 3923   4.188   4.372   3.484
  695SOL    HW1 3924   4.224   4.305   3.426
  695SOL    HW2 3925   4.115   4.328   3.528
  696SOL     OW 3926   0.842  12.993   9.680
  696SOL    HW1 3927   0.928  12.953   9.687
  696SOL    HW2 3928   0.859  13.086   9.666
  697SOL     OW 3929   3.125   4.487   9.098
  697SOL    HW1 3930   3.164   4.462   9.015
  697SOL    HW2 3931   3.151   4.578   9.110
  698SOL     OW 3932   7.951   7.097  10.510
  698SOL    HW1 3933   7.871   7.044  10.514
  698SOL    HW2 3934   7.937   7.155  10.435
  699SOL     OW 3935   3.787   4.703   6.665
  699SOL    HW1 3936   3.806   4.699   6.759
  699SOL    HW2 3937   3.700   4.663   6.657
  700SOL     OW 3938   8.210  14.271  11.219
  700SOL    HW1 3939   8.204  14.232  11.132
  700SOL    HW2 3940   8.251  14.203  11.273
  701SOL     OW 3941  12.028   3.112  13.297
  701SOL    HW1 3942  12.067   3.198  13.282
  701SOL    HW2 3943  11.964   3.126  13.367
  702SOL     OW 3944   5.397  13.400  12.880
  702SOL    HW1 3945   5.384  13.352  12.962
  702SOL    HW2 3946   5.489  13.427  12.883
  703SOL     OW 3947  14.146   8.329  10.274
  703SOL    HW1 3948  14.142   8.401  10.210
  703SOL    HW2 3949  14.122   8.251  10.224
  704SOL     OW 3950  12.364  10.380   1.723
  704SOL    HW1 3951  12.354  10.320   1.649
  704SOL    HW2 3952  12.418  10.332   1.786
  705SOL     OW 3953   6.386   9.458   5.760
  705SOL    HW1 3954   6.408   9.547   5.736
  705SOL    HW2 3955   6.448   9.435   5.829
  706SOL     OW 3956  12.818   7.781   8.739
  706SOL    HW1 3957  12.745   7.796   8.679
  706SOL    HW2 3958  12.826   7.686   8.743
  707SOL     OW 3959   4.545   3.100   2.996
  707SOL    HW1 3960   4.496   3.019   3.000
  707SOL    HW2 3961   4.598   3.093   2.917
  708SOL     OW 3962  11.710   2.238   8.073
  708SOL    HW1 3963  11.685   2.281   8.155
  708SOL    HW2 3964  11.650   2.274   8.008
  709SOL     OW 3965  10.240   6.964  12.978
  709SOL    HW1 3966  10.310   6.913  13.019
  709SOL    HW2 3967  10.252   7.053  13.012
  710SOL     OW 3968   0.404   0.607   4.209
  710SOL    HW1 3969   0.449   0.541   4.262
  710SOL    HW2 3970   0.448   0.689   4.231
  711SOL     OW 3971   3.639   1.073   7.732
  711SOL    HW1 3972   3.598   1.146   7.779
  711SOL    HW2 3973   3.731   1.098   7.725
  712SOL     OW 3974  10.963   1.821  14.265
  712SOL    HW1 3975  10.988   1.869  14.185
  712SOL    HW2 3976  11.021   1.744  14.266
  713SOL     OW 3977  12.122   4.641   5.605
  713SOL    HW1 3978  12.217   4.644   5.594
  713SOL    HW2 3979  12.098   4.551   5.581
  714SOL     OW 3980   7.769  11.481   6.488
  714SOL    HW1 3981   7.726  11.503   6.570
  714SOL    HW2 3982   7.746  11.389   6.472
  715SOL     OW 3983   0.311   8.038   6.097
  715SOL    HW1 3984   0.225   8.076   6.082
  715SOL    HW2 3985   0.345   8.020   6.009
  716SOL     OW 3986   9.640   6.832  11.999
  716SOL    HW1 3987   9.612   6.906  12.053
  716SOL    HW2 3988   9.604   6.850  11.913
  717SOL     OW 3989   8.192  13.591  10.047
  717SOL    HW1 3990   8.130  13.560  10.114
  717SOL    HW2 3991   8.228  13.511  10.008
  718SOL     OW 3992  14.596   4.460   3.033
  718SOL    HW1 3993  14.511   4.416   3.020
  718SOL    HW2 3994  14.576   4.553   3.029
  719SOL     OW 3995  12.567  11.283   7.296
  719SOL    HW1 3996  12.535  11.369   7.268
  719SOL    HW2 3997  12.552  11.227   7.220
  720SOL     OW 3998   3.022   2.457   0.091
  720SOL    HW1 3999   3.069   2.412   0.021
  720SOL    HW2 4000   3.092   2.491   0.147
  721SOL     OW 4001   9.117   2.906   9.004
  721SOL    HW1 4002   9.183   2.909   9.073
  721SOL    HW2 4003   9.061   2.981   9.022
  722SOL     OW 4004   0.209  13.685  12.656
  722SOL    HW1 4005   0.118  13.656  12.667
  722SOL    HW2 4006   0.246  13.681  12.744
  723SOL     OW 4007   0.816   8.763   5.399
  723SOL    HW1 4008   0.801   8.669   5.408
  723SOL    HW2 4009   0.909   8.770   5.376
  724SOL     OW 4010   6.719  11.464   4.017
  724SOL    HW1 4011   6.808  11.433   4.000
  724SOL    HW2 4012   6.679  11.395   4.071
  725SOL     OW 4013   4.303  14.647   1.426
  725SOL    HW1 4014   4.272  14.715   1.486
  725SOL    HW2 4015   4.397  14.661   1.421
  726SOL     OW 4016   8.870   8.142   9.898
  726SOL    HW1 4017   8.940   8.144   9.964
  726SOL    HW2 4018   8.794   8.178   9.943
  727SOL     OW 4019   0.969  11.830  10.799
  727SOL    HW1 4020   0.941  11.772  10.870
  727SOL    HW2 4021   0.975  11.773  10.723
  728SOL     OW 4022   9.229  12.301   2.656
  728SOL    HW1 4023   9.142  12.295   2.616
  728SOL    HW2 4024   9.244  12.214   2.693
  729SOL     OW 4025   8.985   1.314  10.837
  729SOL    HW1 4026   9.067   1.363  10.836
  729SOL    HW2 4027   8.928   1.363  10.896
  730SOL     OW 4028  12.130   6.932   3.393
  730SOL    HW1 4029  12.062   6.906   3.331
  730SOL    HW2 4030  12.140   7.026   3.380
  731SOL     OW 4031  10.272   8.568   1.695
  731SOL    HW1 4032  10.196   8.624   1.710
  731SOL    HW2 4033  10.303   8.592   1.608
  732SOL     OW 4034   5.734  13.862  14.551
  732SOL    HW1 4035   5.714  13.899  14.465
  732SOL    HW2 4036   5.782  13.781  14.532
  733SOL     OW 4037   1.496   4.977   4.807
  733SOL    HW1 4038   1.424   4.913   4.803
  733SOL    HW2 4039   1.471   5.043   4.742
  734SOL     OW 4040   7.262   3.116  11.609
  734SOL    HW1 4041   7.331   3.170  11.572
  734SOL    HW2 4042   7.200   3.179  11.646
  735SOL     OW 4043  10.662  14.842   3.155
  735SOL    HW1 4044  10.683   0.051   3.184
  735SOL    HW2 4045  10.657  14.792   3.236
  736SOL     OW 4046  12.951   4.261   9.272
  736SOL    HW1 4047  12.989   4.272   9.185
  736SOL    HW2 4048  12.990   4.330   9.325
  737SOL     OW 4049   7.342   6.303   8.615
  737SOL    HW1 4050   7.267   6.279   8.560
  737SOL    HW2 4051   7.344   6.399   8.610
  738SOL     OW 4052  11.191   8.504  13.989
  738SOL    HW1 4053  11.260   8.564  13.960
  738SOL    HW2 4054  11.176   8.527  14.081
  739SOL     OW 4055  13.034  14.171  12.853
  739SOL    HW1 4056  13.118  14.169  12.897
  739SOL    HW2 4057  13.054  14.195  12.763
  740SOL     OW 4058  11.073   3.918   8.645
  740SOL    HW1 4059  11.052   3.825   8.654
  740SOL    HW2 4060  11.167   3.923   8.661
  741SOL     OW 4061   9.689   4.851   8.661
  741SOL    HW1 4062   9.707   4.804   8.579
  741SOL    HW2 4063   9.636   4.926   8.634
  742SOL     OW 4064   2.870   8.582   1.895
  742SOL    HW1 4065   2.817   8.566   1.817
  742SOL    HW2 4066   2.808   8.581   1.968
  743SOL     OW 4067   5.529   2.701   0.806
  743SOL    HW1 4068   5.528   2.606   0.807
  743SOL    HW2 4069   5.474   2.725   0.730
  744SOL     OW 4070   1.064  12.330   8.208
  744SOL    HW1 4071   1.074  12.394   8.138
  744SOL    HW2 4072   1.147  12.282   8.209
  745SOL     OW 4073  10.983   7.920  12.722
  745SOL    HW1 4074  10.905   7.974  12.713
  745SOL    HW2 4075  10.965   7.843  12.668
  746SOL     OW 4076   0.128  12.605   0.153
  746SOL    HW1 4077   0.079  12.591   0.072
  746SOL    HW2 4078   0.175  12.523   0.168
  747SOL     OW 4079   6.351  13.274   9.983
  747SOL    HW1 4080   6.370  13.201   9.923
  747SOL    HW2 4081   6.347  13.232  10.069
  748SOL     OW 4082   4.035   6.936   2.822
  748SOL    HW1 4083   3.996   6.875   2.885
  748SOL    HW2 4084   3.991   7.020   2.839
  749SOL     OW 4085   6.838   2.976  11.984
  749SOL    HW1 4086   6.851   3.068  11.961
  749SOL    HW2 4087   6.914   2.953  12.037
  750SOL     OW 4088  14.044   8.689   6.432
  750SOL    HW1 4089  13.956   8.666   6.460
  750SOL    HW2 4090  14.048   8.784   6.439
  751SOL     OW 4091   8.556  12.486   7.325
  751SOL    HW1 4092   8.528  12.433   7.249
  751SOL    HW2 4093   8.483  12.547   7.339
  752SOL     OW 4094   4.749   5.702  14.404
  752SOL    HW1 4095   4.784   5.667  14.486
  752SOL    HW2 4096   4.798   5.658  14.336
  753SOL     OW 4097   3.063   6.294  12.355
  753SOL    HW1 4098   3.094   6.302  12.445
  753SOL    HW2 4099   3.132   6.247  12.309
  754SOL     OW 4100   9.049   2.410  14.468
  754SOL    HW1 4101   9.115   2.422  14.399
  754SOL    HW2 4102   8.972   2.456  14.435
  755SOL     OW 4103  11.242   4.724   3.829
  755SOL    HW1 4104  11.262   4.700   3.739
  755SOL    HW2 4105  11.236   4.820   3.828
  756SOL     OW 4106   6.259  14.457   0.387
  756SOL    HW1 4107   6.316  14.533   0.399
  756SOL    HW2 4108   6.235  14.460   0.295
  757SOL     OW 4109   5.608   8.765   5.084
  757SOL    HW1 4110   5.604   8.835   5.019
  757SOL    HW2 4111   5.664   8.698   5.046
  758SOL     OW 4112   6.778   7.228  11.581
  758SOL    HW1 4113   6.715   7.296  11.559
  758SOL    HW2 4114   6.838   7.270  11.643
  759SOL     OW 4115   0.841   7.763   7.576
  759SOL    HW1 4116   0.924   7.784   7.618
  759SOL    HW2 4117   0.809   7.687   7.625
  760SOL     OW 4118  14.651   7.451  11.298
  760SOL    HW1 4119  14.726   7.405  11.337
  760SOL    HW2 4120  14.674   7.544  11.304
  761SOL     OW 4121   3.741   1.615   6.079
  761SOL    HW1 4122   3.691   1.585   6.003
  761SOL    HW2 4123   3.830   1.585   6.063
  762SOL     OW 4124   1.582   4.847   4.197
  762SOL    HW1 4125   1.627   4.783   4.254
  762SOL    HW2 4126   1.497   4.807   4.179
  763SOL     OW 4127   5.368  14.027   6.056
  763SOL    HW1 4128   5.325  13.946   6.029
  763SOL    HW2 4129   5.460  14.015   6.031
  764SOL     OW 4130  14.136   5.016   2.546
  764SOL    HW1 4131  14.152   4.927   2.577
  764SOL    HW2 4132  14.057   5.009   2.492
  765SOL     OW 4133   8.462  10.196   3.857
  765SOL    HW1 4134   8.480  10.235   3.771
  765SOL    HW2 4135   8.532  10.132   3.868
  766SOL     OW 4136   3.386  12.668   5.511
  766SOL    HW1 4137   3.305  12.640   5.467
  766SOL    HW2 4138   3.377  12.633   5.600
  767SOL     OW 4139   7.663   2.134  12.728
  767SOL    HW1 4140   7.726   2.072  12.690
  767SOL    HW2 4141   7.590   2.079  12.758
  768SOL     OW 4142   3.250   1.045  14.873
  768SOL    HW1 4143   3.189   1.047   0.067
  768SOL    HW2 4144   3.337   1.040   0.034
  769SOL     OW 4145   3.066   7.300  14.699
  769SOL    HW1 4146   2.978   7.274  14.673
  769SOL    HW2 4147   3.103   7.222  14.742
  770SOL     OW 4148   5.309   0.365   8.011
  770SOL    HW1 4149   5.326   0.290   8.069
  770SOL    HW2 4150   5.224   0.399   8.040
  771SOL     OW 4151   7.551   2.655   0.399
  771SOL    HW1 4152   7.642   2.654   0.369
  771SOL    HW2 4153   7.529   2.563   0.415
  772SOL     OW 4154   5.867  14.118   8.462
  772SOL    HW1 4155   5.852  14.063   8.385
  772SOL    HW2 4156   5.829  14.202   8.438
  773SOL     OW 4157  12.739   6.645  13.858
  773SOL    HW1 4158  12.695   6.560  13.861
  773SOL    HW2 4159  12.686   6.701  13.916
  774SOL     OW 4160   7.815   9.083  14.786
  774SOL    HW1 4161   7.866   9.163  14.798
  774SOL    HW2 4162   7.844   9.048  14.701
  775SOL     OW 4163  13.310   2.779  12.750
  775SOL    HW1 4164  13.221   2.759  12.724
  775SOL    HW2 4165  13.364   2.716  12.701
  776SOL     OW 4166  12.102   2.443   5.574
  776SOL    HW1 4167  12.055   2.444   5.657
  776SOL    HW2 4168  12.093   2.532   5.540
  777SOL     OW 4169   7.217  11.915   3.224
  777SOL    HW1 4170   7.154  11.857   3.180
  777SOL    HW2 4171   7.163  11.988   3.256
  778SOL     OW 4172  10.073   7.009   9.590
  778SOL    HW1 4173   9.978   6.997   9.593
  778SOL    HW2 4174  10.091   7.075   9.657
  779SOL     OW 4175   3.371   6.966   8.623
  779SOL    HW1 4176   3.306   6.904   8.655
  779SOL    HW2 4177   3.436   6.970   8.693
  780SOL     OW 4178   9.463   0.779   2.123
  780SOL    HW1 4179   9.506   0.836   2.186
  780SOL    HW2 4180   9.413   0.717   2.177
  781SOL     OW 4181   2.163  13.474  14.145
  781SOL    HW1 4182   2.126  13.556  14.177
  781SOL    HW2 4183   2.159  13.415  14.221
  782SOL     OW 4184  12.998   2.883  10.175
  782SOL    HW1 4185  12.929   2.859  10.113
  782SOL    HW2 4186  13.009   2.977  10.164
  783SOL     OW 4187  11.205   3.094   4.617
  783SOL    HW1 4188  11.121   3.136   4.603
  783SOL    HW2 4189  11.264   3.165   4.643
  784SOL     OW 4190   0.848   7.532  10.533
  784SOL    HW1 4191   0.801   7.613  10.547
  784SOL    HW2 4192   0.828   7.478  10.610
  785SOL     OW 4193   4.102  10.419  11.557
  785SOL    HW1 4194   4.046  10.492  11.582
  785SOL    HW2 4195   4.152  10.399  11.636
  786SOL     OW 4196   8.187  13.332  11.577
  786SOL    HW1 4197   8.194  13.411  11.630
  786SOL    HW2 4198   8.112  13.348  11.520
  787SOL     OW 4199  11.578  11.805   6.802
  787SOL    HW1 4200  11.637  11.877   6.828
  787SOL    HW2 4201  11.575  11.810   6.707
  788SOL     OW 4202  11.085   6.918   9.493
  788SOL    HW1 4203  11.167   6.968   9.500
  788SOL    HW2 4204  11.113   6.828   9.482
  789SOL     OW 4205   9.500  14.160   4.161
  789SOL    HW1 4206   9.459  14.088   4.113
  789SOL    HW2 4207   9.427  14.203   4.206
  790SOL     OW 4208  13.083   5.859  11.343
  790SOL    HW1 4209  13.104   5.859  11.249
  790SOL    HW2 4210  12.987   5.864  11.346
  791SOL     OW 4211   8.779   5.917   9.940
  791SOL    HW1 4212   8.705   5.952   9.889
  791SOL    HW2 4213   8.856   5.955   9.898
  792SOL     OW 4214   3.588   2.251   7.576
  792SOL    HW1 4215   3.587   2.296   7.492
  792SOL    HW2 4216   3.663   2.193   7.572
  793SOL     OW 4217  11.685   2.721  11.745
  793SOL    HW1 4218  11.651   2.748  11.660
  793SOL    HW2 4219  11.723   2.801  11.782
  794SOL     OW 4220  13.608   7.483   2.964
  794SOL    HW1 4221  13.690   7.445   2.995
  794SOL    HW2 4222  13.632   7.535   2.888
  795SOL     OW 4223   2.845   9.611   0.893
  795SOL    HW1 4224   2.852   9.677   0.962
  795SOL    HW2 4225   2.823   9.661   0.814
  796SOL     OW 4226   0.018  12.758  10.644
  796SOL    HW1 4227   0.077  12.795  10.578
  796SOL    HW2 4228   0.039  12.808  10.724
  797SOL     OW 4229   0.229   9.123  10.404
  797SOL    HW1 4230   0.196   9.051  10.459
  797SOL    HW2 4231   0.151   9.161  10.364
  798SOL     OW 4232   8.819  13.870   2.066
  798SOL    HW1 4233   8.914  13.868   2.075
  798SOL    HW2 4234   8.787  13.898   2.152
  799SOL     OW 4235   4.116   9.604  12.076
  799SOL    HW1 4236   4.173   9.670  12.036
  799SOL    HW2 4237   4.027   9.636  12.059
  800SOL     OW 4238   3.176  14.578  14.287
  800SOL    HW1 4239   3.225  14.528  14.353
  800SOL    HW2 4240   3.243  14.607  14.225
  801SOL     OW 4241   1.546   7.582   1.821
  801SOL    HW1 4242   1.630   7.587   1.776
  801SOL    HW2 4243   1.565   7.535   1.902
  802SOL     OW 4244   9.098  13.541   8.052
  802SOL    HW1 4245   9.085  13.630   8.086
  802SOL    HW2 4246   9.184  13.542   8.011
  803SOL     OW 4247   1.872   4.818  13.562
  803SOL    HW1 4248   1.849   4.726  13.573
  803SOL    HW2 4249   1.866   4.855  13.650
  804SOL     OW 4250  12.207   1.790  12.859
  804SOL    HW1 4251  12.179   1.699  12.855
  804SOL    HW2 4252  12.153   1.835  12.795
  805SOL     OW 4253   7.504  10.433  10.541
  805SOL    HW1 4254   7.466  10.488  10.610
  805SOL    HW2 4255   7.511  10.491  10.465
  806SOL     OW 4256   9.440   1.973   9.897
  806SOL    HW1 4257   9.465   2.027   9.972
  806SOL    HW2 4258   9.468   1.885   9.920
  807SOL     OW 4259   8.634   9.075   1.838
  807SOL    HW1 4260   8.559   9.025   1.805
  807SOL    HW2 4261   8.595   9.145   1.890
  808SOL     OW 4262   4.462   3.313  11.446
  808SOL    HW1 4263   4.522   3.387  11.434
  808SOL    HW2 4264   4.439   3.287  11.357
  809SOL     OW 4265   3.130   0.192   3.222
  809SOL    HW1 4266   3.070   0.192   3.296
  809SOL    HW2 4267   3.216   0.177   3.262
  810SOL     OW 4268   2.271  14.489  11.367
  810SOL    HW1 4269   2.342  14.432  11.339
  810SOL    HW2 4270   2.215  14.497  11.290
  811SOL     OW 4271   0.654  11.752   7.730
  811SOL    HW1 4272   0.640  11.709   7.646
  811SOL    HW2 4273   0.569  11.746   7.774
  812SOL     OW 4274   6.535   6.128  12.711
  812SOL    HW1 4275   6.589   6.197  12.672
  812SOL    HW2 4276   6.478   6.099  12.640
  813SOL     OW 4277  14.311  14.558  12.401
  813SOL    HW1 4278  14.344  14.493  12.338
  813SOL    HW2 4279  14.224  14.526  12.425
  814SOL     OW 4280  14.850  12.502  12.006
  814SOL    HW1 4281   0.031  12.439  11.967
  814SOL    HW2 4282  14.842  12.473  12.097
  815SOL     OW 4283   9.723   0.146  13.236
  815SOL    HW1 4284   9.813   0.178  13.235
  815SOL    HW2 4285   9.677   0.207  13.294
  816SOL     OW 4286   7.152   3.019   2.675
  816SOL    HW1 4287   7.149   2.925   2.654
  816SOL    HW2 4288   7.060   3.043   2.689
  817SOL     OW 4289  10.893  10.374   9.052
  817SOL    HW1 4290  10.906  10.293   9.003
  817SOL    HW2 4291  10.799  10.390   9.048
  818SOL     OW 4292   6.375   5.927   1.170
  818SOL    HW1 4293   6.401   5.889   1.253
  818SOL    HW2 4294   6.457   5.961   1.132
  819SOL     OW 4295  10.394   7.868   9.082
  819SOL    HW1 4296  10.320   7.855   9.142
  819SOL    HW2 4297  10.384   7.798   9.017
  820SOL     OW 4298  11.801   0.156   0.711
  820SOL    HW1 4299  11.787   0.151   0.616
  820SOL    HW2 4300  11.723   0.114   0.748
  821SOL     OW 4301   2.680   2.824  11.271
  821SOL    HW1 4302   2.738   2.886  11.315
  821SOL    HW2 4303   2.727   2.741  11.273
  822SOL     OW 4304   5.825   3.762   3.100
  822SOL    HW1 4305   5.863   3.757   3.188
  822SOL    HW2 4306   5.813   3.856   3.085
  823SOL     OW 4307   0.317   9.719  11.158
  823SOL    HW1 4308   0.297   9.631  11.126
  823SOL    HW2 4309   0.411   9.719  11.172
  824SOL     OW 4310   8.274   6.151   7.494
  824SOL    HW1 4311   8.183   6.136   7.521
  824SOL    HW2 4312   8.276   6.128   7.401
  825SOL     OW 4313  11.269  13.913   0.170
  825SOL    HW1 4314  11.297  14.002   0.192
  825SOL    HW2 4315  11.293  13.861   0.246
  826SOL     OW 4316  14.504   6.588  12.187
  826SOL    HW1 4317  14.486   6.679  12.212
  826SOL    HW2 4318  14.486   6.585  12.093
  827SOL     OW 4319   9.814   3.945   7.199
  827SOL    HW1 4320   9.738   4.002   7.210
  827SOL    HW2 4321   9.888   3.998   7.226
  828SOL     OW 4322   1.187  11.217   9.523
  828SOL    HW1 4323   1.232  11.203   9.440
  828SOL    HW2 4324   1.096  11.193   9.506
  829SOL     OW 4325   4.147  11.344   6.178
  829SOL    HW1 4326   4.132  11.284   6.105
  829SOL    HW2 4327   4.083  11.319   6.244
  830SOL     OW 4328  12.830   7.515   2.941
  830SOL    HW1 4329  12.862   7.600   2.970
  830SOL    HW2 4330  12.739   7.512   2.972
  831SOL     OW 4331  14.322   8.739   7.800
  831SOL    HW1 4332  14.244   8.788   7.774
  831SOL    HW2 4333  14.394   8.802   7.789
  832SOL     OW 4334   4.939   1.085   8.644
  832SOL    HW1 4335   5.000   1.012   8.651
  832SOL    HW2 4336   4.853   1.044   8.630
  833SOL     OW 4337  13.467  11.765   3.672
  833SOL    HW1 4338  13.420  11.790   3.592
  833SOL    HW2 4339  13.489  11.673   3.659
  834SOL     OW 4340   9.457   6.757   6.164
  834SOL    HW1 4341   9.416   6.782   6.081
  834SOL    HW2 4342   9.446   6.834   6.220
  835SOL     OW 4343   4.704   2.092  10.016
  835SOL    HW1 4344   4.614   2.105  10.044
  835SOL    HW2 4345   4.735   2.015  10.064
  836SOL     OW 4346   5.995   7.118   8.932
  836SOL    HW1 4347   6.028   7.097   9.019
  836SOL    HW2 4348   6.017   7.210   8.920
  837SOL     OW 4349   6.965   7.069   0.931
  837SOL    HW1 4350   6.997   7.046   0.843
  837SOL    HW2 4351   6.890   7.127   0.914
  838SOL     OW 4352   4.191   8.940  14.081
  838SOL    HW1 4353   4.162   9.024  14.118
  838SOL    HW2 4354   4.195   8.881  14.156
  839SOL     OW 4355  13.527   4.950   6.879
  839SOL    HW1 4356  13.514   4.904   6.796
  839SOL    HW2 4357  13.535   4.881   6.944
  840SOL     OW 4358   5.288   6.672  13.861
  840SOL    HW1 4359   5.350   6.599  13.868
  840SOL    HW2 4360   5.340   6.745  13.829
  841SOL     OW 4361  11.380  10.296   7.201
  841SOL    HW1 4362  11.341  10.209   7.215
  841SOL    HW2 4363  11.452  10.300   7.263
  842SOL     OW 4364   8.264   2.280   7.875
  842SOL    HW1 4365   8.216   2.339   7.933
  842SOL    HW2 4366   8.317   2.227   7.935
  843SOL     OW 4367   8.502  10.119  10.210
  843SOL    HW1 4368   8.509  10.130  10.305
  843SOL    HW2 4369   8.461  10.034  10.198
  844SOL     OW 4370  11.506  14.403   0.241
  844SOL    HW1 4371  11.542  14.337   0.181
  844SOL    HW2 4372  11.581  14.428   0.296
  845SOL     OW 4373  12.477   4.702   9.636
  845SOL    HW1 4374  12.446   4.639   9.571
  845SOL    HW2 4375  12.510   4.776   9.585
  846SOL     OW 4376  11.576  12.716   4.606
  846SOL    HW1 4377  11.551  12.795   4.654
  846SOL    HW2 4378  11.513  12.650   4.635
  847SOL     OW 4379   8.830   3.539  13.673
  847SOL    HW1 4380   8.792   3.455  13.648
  847SOL    HW2 4381   8.762   3.582  13.725
  848SOL     OW 4382   1.556   1.544   4.760
  848SOL    HW1 4383   1.568   1.449   4.768
  848SOL    HW2 4384   1.635   1.582   4.799
  849SOL     OW 4385   9.313   1.410   1.161
  849SOL    HW1 4386   9.234   1.357   1.171
  849SOL    HW2 4387   9.288   1.478   1.099
  850SOL     OW 4388  13.626   3.222   1.209
  850SOL    HW1 4389  13.602   3.130   1.198
  850SOL    HW2 4390  13.632   3.233   1.303
  851SOL     OW 4391   3.710   2.432   4.173
  851SOL    HW1 4392   3.694   2.411   4.081
  851SOL    HW2 4393   3.667   2.517   4.186
  852SOL     OW 4394  11.909  14.438   0.731
  852SOL    HW1 4395  11.957  14.356   0.725
  852SOL    HW2 4396  11.847  14.424   0.802
  853SOL     OW 4397   3.542   4.740   8.067
  853SOL    HW1 4398   3.520   4.779   7.983
  853SOL    HW2 4399   3.470   4.766   8.125
  854SOL     OW 4400   4.250   9.213  10.993
  854SOL    HW1 4401   4.263   9.277  10.923
  854SOL    HW2 4402   4.294   9.134  10.962
  855SOL     OW 4403   6.727   9.446   9.173
  855SOL    HW1 4404   6.632   9.448   9.176
  855SOL    HW2 4405   6.749   9.421   9.083
  856SOL     OW 4406  11.474   4.209  13.291
  856SOL    HW1 4407  11.564   4.224  13.263
  856SOL    HW2 4408  11.455   4.280  13.352
  857SOL     OW 4409   3.784   4.777   7.770
  857SOL    HW1 4410   3.811   4.818   7.853
  857SOL    HW2 4411   3.866   4.757   7.726
  858SOL     OW 4412   2.120   5.663  13.416
  858SOL    HW1 4413   2.126   5.695  13.326
  858SOL    HW2 4414   2.084   5.736  13.466
  859SOL     OW 4415  14.526   5.264  12.897
  859SOL    HW1 4416  14.564   5.194  12.845
  859SOL    HW2 4417  14.599   5.297  12.951
  860SOL     OW 4418   8.806   3.683   2.467
  860SOL    HW1 4419   8.794   3.778   2.467
  860SOL    HW2 4420   8.726   3.648   2.428
  861SOL     OW 4421   7.838  12.511  10.190
  861SOL    HW1 4422   7.847  12.463  10.107
  861SOL    HW2 4423   7.894  12.588  10.180
  862SOL     OW 4424  14.043   4.833   5.260
  862SOL    HW1 4425  14.090   4.870   5.335
  862SOL    HW2 4426  14.098   4.761   5.231
  863SOL     OW 4427   5.590   5.571  14.625
  863SOL    HW1 4428   5.600   5.480  14.651
  863SOL    HW2 4429   5.497   5.582  14.608
  864SOL     OW 4430   1.240   8.717   7.177
  864SOL    HW1 4431   1.171   8.748   7.236
  864SOL    HW2 4432   1.199   8.647   7.127
  865SOL     OW 4433   2.165   5.314   0.332
  865SOL    HW1 4434   2.195   5.266   0.408
  865SOL    HW2 4435   2.191   5.261   0.257
  866SOL     OW 4436  10.291   1.341  13.598
  866SOL    HW1 4437  10.216   1.293  13.563
  866SOL    HW2 4438  10.366   1.308  13.549
  867SOL     OW 4439   5.676   2.079  12.680
  867SOL    HW1 4440   5.593   2.049  12.642
  867SOL    HW2 4441   5.694   2.161  12.635
  868SOL     OW 4442   9.599  10.674   3.011
  868SOL    HW1 4443   9.522  10.672   3.067
  868SOL    HW2 4444   9.650  10.597   3.038
  869SOL     OW 4445   6.736   8.822   0.940
  869SOL    HW1 4446   6.725   8.808   0.846
  869SOL    HW2 4447   6.822   8.865   0.948
  870SOL     OW 4448  10.713   7.547  14.555
  870SOL    HW1 4449  10.771   7.617  14.525
  870SOL    HW2 4450  10.668   7.585  14.631
  871SOL     OW 4451   3.128   4.684  14.648
  871SOL    HW1 4452   3.111   4.594  14.622
  871SOL    HW2 4453   3.042   4.725  14.655
  872SOL     OW 4454   2.537   9.849  14.695
  872SOL    HW1 4455   2.566   9.895  14.616
  872SOL    HW2 4456   2.442   9.840  14.684
  873SOL     OW 4457   0.514   8.991  10.588
  873SOL    HW1 4458   0.584   9.045  10.550
  873SOL    HW2 4459   0.512   8.912  10.534
  874SOL     OW 4460   2.744  13.926   8.910
  874SOL    HW1 4461   2.668  13.876   8.879
  874SOL    HW2 4462   2.706  14.000   8.957
  875SOL     OW 4463   9.237   9.896   8.268
  875SOL    HW1 4464   9.288   9.876   8.347
  875SOL    HW2 4465   9.162   9.837   8.272
  876SOL     OW 4466   1.526   8.277   2.007
  876SOL    HW1 4467   1.552   8.312   1.921
  876SOL    HW2 4468   1.448   8.225   1.989
  877SOL     OW 4469  14.714  11.957  13.411
  877SOL    HW1 4470  14.751  12.010  13.340
  877SOL    HW2 4471  14.740  12.004  13.491
  878SOL     OW 4472   7.482  13.455   4.799
  878SOL    HW1 4473   7.423  13.381   4.814
  878SOL    HW2 4474   7.522  13.472   4.885
  879SOL     OW 4475   4.661   8.073   8.477
  879SOL    HW1 4476   4.693   8.011   8.412
  879SOL    HW2 4477   4.709   8.051   8.557
  880SOL     OW 4478   4.124   4.790   9.857
  880SOL    HW1 4479   4.206   4.746   9.833
  880SOL    HW2 4480   4.056   4.730   9.826
  881SOL     OW 4481   4.507   2.786   4.024
  881SOL    HW1 4482   4.444   2.806   3.955
  881SOL    HW2 4483   4.574   2.733   3.980
  882SOL     OW 4484   1.207  13.542  14.835
  882SOL    HW1 4485   1.243  13.584  14.757
  882SOL    HW2 4486   1.202  13.613   0.020
  883SOL     OW 4487  11.728   2.508  11.932
  883SOL    HW1 4488  11.776   2.432  11.899
  883SOL    HW2 4489  11.728   2.570  11.859
  884SOL     OW 4490   0.155   1.545   5.370
  884SOL    HW1 4491   0.217   1.601   5.416
  884SOL    HW2 4492   0.071   1.588   5.382
  885SOL     OW 4493   3.038   8.488   7.258
  885SOL    HW1 4494   3.107   8.427   7.230
  885SOL    HW2 4495   3.084   8.555   7.309
  886SOL     OW 4496  12.342   1.155  11.757
  886SOL    HW1 4497  12.351   1.061  11.743
  886SOL    HW2 4498  12.362   1.195  11.673
  887SOL     OW 4499  13.814   5.496  13.667
  887SOL    HW1 4500  13.789   5.479  13.576
  887SOL    HW2 4501  13.805   5.591  13.677
  888SOL     OW 4502  10.040   8.890   6.869
  888SOL    HW1 4503  10.034   8.803   6.909
  888SOL    HW2 4504   9.953   8.927   6.879
  889SOL     OW 4505   4.852  10.969  11.673
  889SOL    HW1 4506   4.767  11.001  11.705
  889SOL    HW2 4507   4.832  10.925  11.591
  890SOL     OW 4508   2.062   0.009   3.464
  890SOL    HW1 4509   2.089  14.845   3.545
  890SOL    HW2 4510   1.980   0.052   3.485
  891SOL     OW 4511  11.612  11.002  12.815
  891SOL    HW1 4512  11.609  10.910  12.790
  891SOL    HW2 4513  11.705  11.021  12.827
  892SOL     OW 4514   5.511   0.042   9.270
  892SOL    HW1 4515   5.481   0.099   9.199
  892SOL    HW2 4516   5.525  14.837   9.229
  893SOL     OW 4517   2.632   1.976   9.431
  893SOL    HW1 4518   2.612   1.910   9.499
  893SOL    HW2 4519   2.562   1.965   9.367
  894SOL     OW 4520  11.241  12.398   8.300
  894SOL    HW1 4521  11.190  12.413   8.220
  894SOL    HW2 4522  11.329  12.378   8.267
  895SOL     OW 4523   5.070  13.068   2.337
  895SOL    HW1 4524   5.064  13.057   2.432
  895SOL    HW2 4525   5.071  13.163   2.325
  896SOL     OW 4526   5.737   0.470   5.066
  896SOL    HW1 4527   5.669   0.415   5.105
  896SOL    HW2 4528   5.715   0.559   5.093
  897SOL     OW 4529  11.984   5.241   5.866
  897SOL    HW1 4530  11.894   5.246   5.897
  897SOL    HW2 4531  12.013   5.154   5.890
  898SOL     OW 4532   0.880   2.675   9.760
  898SOL    HW1 4533   0.845   2.597   9.718
  898SOL    HW2 4534   0.824   2.746   9.729
  899SOL     OW 4535   1.115   2.610   3.439
  899SOL    HW1 4536   1.094   2.666   3.514
  899SOL    HW2 4537   1.123   2.670   3.365
  900SOL     OW 4538  14.097   8.942  10.419
  900SOL    HW1 4539  14.157   8.973  10.351
  900SOL    HW2 4540  14.108   8.847  10.418
  901SOL     OW 4541  10.694   5.818   3.847
  901SOL    HW1 4542  10.640   5.854   3.776
  901SOL    HW2 4543  10.724   5.894   3.895
  902SOL     OW 4544   9.256   3.152   4.268
  902SOL    HW1 4545   9.189   3.220   4.275
  902SOL    HW2 4546   9.339   3.198   4.282
  903SOL     OW 4547  12.415  14.606  13.238
  903SOL    HW1 4548  12.469  14.575  13.165
  903SOL    HW2 4549  12.461  14.683  13.271
  904SOL     OW 4550  14.736   7.512   9.752
  904SOL    HW1 4551  14.725   7.595   9.798
  904SOL    HW2 4552  14.709   7.531   9.662
  905SOL     OW 4553  10.824   3.822  12.288
  905SOL    HW1 4554  10.879   3.770  12.347
  905SOL    HW2 4555  10.827   3.775  12.205
  906SOL     OW 4556   2.734   2.496   1.171
  906SOL    HW1 4557   2.726   2.466   1.262
  906SOL    HW2 4558   2.753   2.590   1.179
  907SOL     OW 4559  13.391  11.789   1.764
  907SOL    HW1 4560  13.374  11.699   1.736
  907SOL    HW2 4561  13.317  11.810   1.822
  908SOL     OW 4562  13.202  13.016   6.048
  908SOL    HW1 4563  13.209  12.922   6.062
  908SOL    HW2 4564  13.271  13.054   6.104
  909SOL     OW 4565  13.642   7.703   2.280
  909SOL    HW1 4566  13.718   7.650   2.304
  909SOL    HW2 4567  13.677   7.770   2.220
  910SOL     OW 4568  11.326   0.862   9.502
  910SOL    HW1 4569  11.407   0.885   9.548
  910SOL    HW2 4570  11.273   0.817   9.568
  911SOL     OW 4571   7.187  12.243   5.695
  911SOL    HW1 4572   7.258  12.183   5.716
  911SOL    HW2 4573   7.114  12.216   5.750
  912SOL     OW 4574   5.122   3.161  14.005
  912SOL    HW1 4575   5.052   3.207  13.959
  912SOL    HW2 4576   5.134   3.080  13.956
  913SOL     OW 4577   8.803   3.715   8.443
  913SOL    HW1 4578   8.798   3.796   8.391
  913SOL    HW2 4579   8.736   3.658   8.406
  914SOL     OW 4580  11.450  13.155   9.910
  914SOL    HW1 4581  11.425  13.134   9.820
  914SOL    HW2 4582  11.545  13.171   9.905
  915SOL     OW 4583   7.454   1.306   1.049
  915SOL    HW1 4584   7.359   1.313   1.059
  915SOL    HW2 4585   7.471   1.338   0.961
  916SOL     OW 4586   3.575  10.702   2.386
  916SOL    HW1 4587   3.516  10.722   2.313
  916SOL    HW2 4588   3.654  10.668   2.345
  917SOL     OW 4589  12.041   7.188   7.989
  917SOL    HW1 4590  12.088   7.271   7.972
  917SOL    HW2 4591  11.972   7.212   8.050
  918SOL     OW 4592  13.618   5.133   6.400
  918SOL    HW1 4593  13.635   5.190   6.475
  918SOL    HW2 4594  13.620   5.191   6.324
  919SOL     OW 4595   5.442  12.782  10.983
  919SOL    HW1 4596   5.509  12.850  10.977
  919SOL    HW2 4597   5.468  12.717  10.918
  920SOL     OW 4598   2.321   4.203   9.169
  920SOL    HW1 4599   2.263   4.250   9.228
  920SOL    HW2 4600   2.281   4.116   9.161
  921SOL     OW 4601   2.883  12.878  11.265
  921SOL    HW1 4602   2.889  12.852  11.173
  921SOL    HW2 4603   2.919  12.803  11.313
  922SOL     OW 4604  14.750   0.788   2.389
  922SOL    HW1 4605  14.705   0.704   2.386
  922SOL    HW2 4606  14.833   0.769   2.433
  923SOL     OW 4607  11.159   2.672   3.882
  923SOL    HW1 4608  11.211   2.592   3.883
  923SOL    HW2 4609  11.068   2.642   3.888
  924SOL     OW 4610  11.119   8.870  10.489
  924SOL    HW1 4611  11.165   8.792  10.518
  924SOL    HW2 4612  11.135   8.874  10.395
  925SOL     OW 4613  14.054   4.229  12.790
  925SOL    HW1 4614  14.076   4.217  12.883
  925SOL    HW2 4615  13.973   4.179  12.778
  926SOL     OW 4616  12.652   0.412   7.116
  926SOL    HW1 4617  12.632   0.326   7.151
  926SOL    HW2 4618  12.723   0.397   7.054
  927SOL     OW 4619   4.252   7.485  12.875
  927SOL    HW1 4620   4.246   7.484  12.970
  927SOL    HW2 4621   4.322   7.548  12.856
  928SOL     OW 4622   7.175   1.825   6.506
  928SOL    HW1 4623   7.157   1.917   6.490
  928SOL    HW2 4624   7.091   1.788   6.533
  929SOL     OW 4625   4.949  12.331   8.942
  929SOL    HW1 4626   4.910  12.340   9.028
  929SOL    HW2 4627   4.973  12.239   8.936
  930SOL     OW 4628   4.020  11.531   5.926
  930SOL    HW1 4629   4.096  11.590   5.928
  930SOL    HW2 4630   3.968  11.555   6.002
  931SOL     OW 4631   3.256  11.046   6.072
  931SOL    HW1 4632   3.179  11.099   6.094
  931SOL    HW2 4633   3.326  11.110   6.057
  932SOL     OW 4634  11.219   4.929   3.450
  932SOL    HW1 4635  11.262   4.938   3.535
  932SOL    HW2 4636  11.176   4.844   3.453
  933SOL     OW 4637   7.089   7.610   9.701
  933SOL    HW1 4638   7.131   7.615   9.787
  933SOL    HW2 4639   6.999   7.637   9.716
  934SOL     OW 4640   9.180   3.240   3.866
  934SOL    HW1 4641   9.169   3.147   3.884
  934SOL    HW2 4642   9.100   3.281   3.900
  935SOL     OW 4643   4.752   9.505   1.544
  935SOL    HW1 4644   4.775   9.519   1.636
  935SOL    HW2 4645   4.657   9.507   1.541
  936SOL     OW 4646  12.866   8.705   8.080
  936SOL    HW1 4647  12.783   8.749   8.093
  936SOL    HW2 4648  12.927   8.775   8.057
  937SOL     OW 4649   4.799   2.727  10.120
  937SOL    HW1 4650   4.713   2.768  10.124
  937SOL    HW2 4651   4.787   2.652  10.063
  938SOL     OW 4652  14.260  12.450  13.401
  938SOL    HW1 4653  14.194  12.514  13.430
  938SOL    HW2 4654  14.210  12.371  13.383
  939SOL     OW 4655   7.467   0.259   4.095
  939SOL    HW1 4656   7.494   0.336   4.046
  939SOL    HW2 4657   7.502   0.273   4.183
  940SOL     OW 4658   5.629  10.973   0.562
  940SOL    HW1 4659   5.572  10.922   0.504
  940SOL    HW2 4660   5.569  11.010   0.627
  941SOL     OW 4661  10.874  10.597   5.443
  941SOL    HW1 4662  10.840  10.509   5.459
  941SOL    HW2 4663  10.848  10.618   5.354
  942SOL     OW 4664   2.958   0.291   3.836
  942SOL    HW1 4665   3.019   0.219   3.817
  942SOL    HW2 4666   2.885   0.277   3.775
  943SOL     OW 4667  11.038   0.279   6.357
  943SOL    HW1 4668  11.054   0.367   6.391
  943SOL    HW2 4669  11.014   0.293   6.265
  944SOL     OW 4670   6.711   0.812  14.327
  944SOL    HW1 4671   6.645   0.750  14.359
  944SOL    HW2 4672   6.676   0.843  14.243
  945SOL     OW 4673   5.689  14.802   4.839
  945SOL    HW1 4674   5.668  14.722   4.888
  945SOL    HW2 4675   5.639  14.793   4.757
  946SOL     OW 4676  14.214  10.890   7.095
  946SOL    HW1 4677  14.274  10.818   7.074
  946SOL    HW2 4678  14.179  10.917   7.010
  947SOL     OW 4679   5.065   0.894   6.396
  947SOL    HW1 4680   5.047   0.800   6.391
  947SOL    HW2 4681   4.996   0.928   6.454
  948SOL     OW 4682   1.993   2.780  11.905
  948SOL    HW1 4683   2.008   2.874  11.906
  948SOL    HW2 4684   1.935   2.766  11.830
  949SOL     OW 4685   0.128   0.057   1.816
  949SOL    HW1 4686   0.187  14.877   1.862
  949SOL    HW2 4687   0.131   0.137   1.867
  950SOL     OW 4688   0.105   9.742  14.520
  950SOL    HW1 4689   0.175   9.695  14.565
  950SOL    HW2 4690   0.034   9.748  14.584
  951SOL     OW 4691  10.130   6.123   7.474
  951SOL    HW1 4692  10.213   6.150   7.513
  951SOL    HW2 4693  10.125   6.172   7.392
  952SOL     OW 4694  10.464  14.203   3.638
  952SOL    HW1 4695  10.509  14.207   3.722
  952SOL    HW2 4696  10.518  14.145   3.584
  953SOL     OW 4697  11.002   6.028  14.569
  953SOL    HW1 4698  10.960   6.055  14.651
  953SOL    HW2 4699  11.085   6.075  14.568
  954SOL     OW 4700   0.525  13.425   2.950
  954SOL    HW1 4701   0.582  13.460   2.881
  954SOL    HW2 4702   0.439  13.417   2.908
  955SOL     OW 4703  13.979   4.692   9.579
  955SOL    HW1 4704  13.990   4.703   9.674
  955SOL    HW2 4705  13.948   4.602   9.569
  956SOL     OW 4706   5.439  11.990   8.125
  956SOL    HW1 4707   5.438  12.036   8.042
  956SOL    HW2 4708   5.347  11.968   8.142
  957SOL     OW 4709   4.012   0.773   8.635
  957SOL    HW1 4710   3.933   0.729   8.604
  957SOL    HW2 4711   4.046   0.717   8.705
  958SOL     OW 4712  10.467  10.983   2.037
  958SOL    HW1 4713  10.400  10.995   2.104
  958SOL    HW2 4714  10.449  10.897   2.000
  959SOL     OW 4715   5.213   1.823   2.694
  959SOL    HW1 4716   5.199   1.802   2.602
  959SOL    HW2 4717   5.160   1.760   2.742
  960SOL     OW 4718   5.219   9.078  10.249
  960SOL    HW1 4719   5.157   9.121  10.190
  960SOL    HW2 4720   5.277   9.030  10.190
  961SOL     OW 4721  13.652  11.309   3.409
  961SOL    HW1 4722  13.660  11.369   3.335
  961SOL    HW2 4723  13.564  11.273   3.403
  962SOL     OW 4724   2.476   3.920  11.515
  962SOL    HW1 4725   2.401   3.899  11.458
  962SOL    HW2 4726   2.552   3.885  11.469
  963SOL     OW 4727   9.452   3.964  11.881
  963SOL    HW1 4728   9.489   4.047  11.912
  963SOL    HW2 4729   9.360   3.967  11.910
  964SOL     OW 4730   8.753   9.798   8.826
  964SOL    HW1 4731   8.755   9.894   8.828
  964SOL    HW2 4732   8.675   9.775   8.876
  965SOL     OW 4733  10.646   5.805  11.205
  965SOL    HW1 4734  10.670   5.864  11.276
  965SOL    HW2 4735  10.653   5.717  11.242
  966SOL     OW 4736   6.264   8.410  11.315
  966SOL    HW1 4737   6.246   8.504  11.321
  966SOL    HW2 4738   6.268   8.392  11.221
  967SOL     OW 4739  11.732  13.816   1.795
  967SOL    HW1 4740  11.688  13.829   1.711
  967SOL    HW2 4741  11.821  13.787   1.772
  968SOL     OW 4742  13.484   9.639   7.172
  968SOL    HW1 4743  13.476   9.719   7.121
  968SOL    HW2 4744  13.556   9.591   7.131
  969SOL     OW 4745   3.607   3.707   8.056
  969SOL    HW1 4746   3.522   3.669   8.034
  969SOL    HW2 4747   3.591   3.801   8.060
  970SOL     OW 4748   3.150   9.822   6.048
  970SOL    HW1 4749   3.182   9.753   5.990
  970SOL    HW2 4750   3.158   9.902   5.998
  971SOL     OW 4751  11.835   0.321   3.980
  971SOL    HW1 4752  11.915   0.314   4.032
  971SOL    HW2 4753  11.853   0.270   3.901
  972SOL     OW 4754  14.246   6.913  10.838
  972SOL    HW1 4755  14.201   6.859  10.773
  972SOL    HW2 4756  14.176   6.951  10.890
  973SOL     OW 4757   5.188   2.993   3.190
  973SOL    HW1 4758   5.231   2.917   3.230
  973SOL    HW2 4759   5.158   2.961   3.105
  974SOL     OW 4760   0.116   8.453  10.447
  974SOL    HW1 4761   0.201   8.414  10.426
  974SOL    HW2 4762   0.078   8.473  10.361
  975SOL     OW 4763  14.378   5.660  12.002
  975SOL    HW1 4764  14.370   5.580  11.949
  975SOL    HW2 4765  14.339   5.728  11.948
  976SOL     OW 4766  10.982   4.272   3.336
  976SOL    HW1 4767  11.055   4.287   3.276
  976SOL    HW2 4768  10.943   4.358   3.348
  977SOL     OW 4769  13.936   0.250   7.528
  977SOL    HW1 4770  13.943   0.262   7.622
  977SOL    HW2 4771  13.904   0.160   7.517
  978SOL     OW 4772  11.872  11.532   9.787
  978SOL    HW1 4773  11.818  11.567   9.716
  978SOL    HW2 4774  11.936  11.602   9.805
  979SOL     OW 4775  12.677   2.258   8.382
  979SOL    HW1 4776  12.662   2.171   8.419
  979SOL    HW2 4777  12.755   2.247   8.327
  980SOL     OW 4778   6.634   8.418   0.704
  980SOL    HW1 4779   6.695   8.488   0.726
  980SOL    HW2 4780   6.689   8.340   0.694
  981SOL     OW 4781   8.781   0.730   7.003
  981SOL    HW1 4782   8.727   0.698   7.075
  981SOL    HW2 4783   8.744   0.689   6.924
  982SOL     OW 4784  13.851  10.890   0.879
  982SOL    HW1 4785  13.884  10.972   0.843
  982SOL    HW2 4786  13.908  10.872   0.953
  983SOL     OW 4787   1.473   1.842   5.814
  983SOL    HW1 4788   1.562   1.874   5.797
  983SOL    HW2 4789   1.466   1.762   5.764
  984SOL     OW 4790   3.965   3.977  14.591
  984SOL    HW1 4791   3.926   4.001  14.508
  984SOL    HW2 4792   3.894   3.987  14.655
  985SOL     OW 4793   3.589   1.898   0.950
  985SOL    HW1 4794   3.602   1.890   1.044
  985SOL    HW2 4795   3.674   1.878   0.912
  986SOL     OW 4796  11.603  12.312   0.208
  986SOL    HW1 4797  11.571  12.395   0.243
  986SOL    HW2 4798  11.681  12.293   0.260
  987SOL     OW 4799   5.804   1.703   5.549
  987SOL    HW1 4800   5.854   1.621   5.557
  987SOL    HW2 4801   5.802   1.739   5.638
  988SOL     OW 4802   1.843   1.775  11.029
  988SOL    HW1 4803   1.872   1.704  10.971
  988SOL    HW2 4804   1.827   1.732  11.113
  989SOL     OW 4805   6.615   0.531  13.216
  989SOL    HW1 4806   6.696   0.580  13.201
  989SOL    HW2 4807   6.549   0.599  13.232
  990SOL     OW 4808   8.204  13.175   0.476
  990SOL    HW1 4809   8.161  13.113   0.535
  990SOL    HW2 4810   8.244  13.239   0.534
  991SOL     OW 4811  12.069   3.401   8.768
  991SOL    HW1 4812  12.134   3.406   8.698
  991SOL    HW2 4813  12.121   3.406   8.849
  992SOL     OW 4814   5.444  12.944  12.858
  992SOL    HW1 4815   5.350  12.958  12.844
  992SOL    HW2 4816   5.455  12.954  12.953
  993SOL     OW 4817   3.075   2.175   2.647
  993SOL    HW1 4818   3.029   2.097   2.617
  993SOL    HW2 4819   3.147   2.186   2.585
  994SOL     OW 4820  12.107   5.518   8.125
  994SOL    HW1 4821  12.092   5.455   8.054
  994SOL    HW2 4822  12.191   5.491   8.162
  995SOL     OW 4823  10.143   2.100  14.697
  995SOL    HW1 4824  10.225   2.142  14.721
  995SOL    HW2 4825  10.125   2.040  14.770
  996SOL     OW 4826   3.627   3.910   5.289
  996SOL    HW1 4827   3.657   3.842   5.228
  996SOL    HW2 4828   3.532   3.908   5.281
  997SOL     OW 4829   2.736   8.813   9.877
  997SOL    HW1 4830   2.681   8.756   9.825
  997SOL    HW2 4831   2.824   8.776   9.870
  998SOL     OW 4832   3.588   5.533   0.075
  998SOL    HW1 4833   3.543   5.455   0.044
  998SOL    HW2 4834   3.520   5.601   0.078
  999SOL     OW 4835  13.851  12.597  11.267
  999SOL    HW1 4836  13.838  12.684  11.231
  999SOL    HW2 4837  13.918  12.609  11.334
 1000SOL     OW 4838   0.300   7.245   3.516
 1000SOL    HW1 4839   0.211   7.217   3.496
 1000SOL    HW2 4840   0.292   7.292   3.599
 1001SOL     OW 4841   3.774  14.082   1.354
 1001SOL    HW1 4842   3.687  14.041   1.353
 1001SOL    HW2 4843   3.825  14.026   1.413
 1002SOL     OW 4844  14.172  13.903  11.565
 1002SOL    HW1 4845  14.127  13.928  11.645
 1002SOL    HW2 4846  14.162  13.979  11.507
 1003SOL     OW 4847  13.793   1.438   9.700
 1003SOL    HW1 4848  13.734   1.508   9.672
 1003SOL    HW2 4849  13.808   1.386   9.621
 1004SOL     OW 4850   4.559   9.915   8.509
 1004SOL    HW1 4851   4.589  10.006   8.517
 1004SOL    HW2 4852   4.573   9.894   8.416
 1005SOL     OW 4853   0.864   4.707   5.534
 1005SOL    HW1 4854   0.836   4.774   5.596
 1005SOL    HW2 4855   0.790   4.695   5.475
 1006SOL     OW 4856  12.910   6.108  14.018
 1006SOL    HW1 4857  12.910   6.192  13.973
 1006SOL    HW2 4858  12.889   6.130  14.109
 1007SOL     OW 4859  12.416  14.488   8.816
 1007SOL    HW1 4860  12.495  14.538   8.795
 1007SOL    HW2 4861  12.395  14.512   8.906
 1008SOL     OW 4862  12.498   2.327   1.420
 1008SOL    HW1 4863  12.528   2.262   1.356
 1008SOL    HW2 4864  12.571   2.336   1.481
 1009SOL     OW 4865   8.193   2.519   3.308
 1009SOL    HW1 4866   8.140   2.522   3.228
 1009SOL    HW2 4867   8.131   2.495   3.377
 1010SOL     OW 4868   4.293   0.440   0.309
 1010SOL    HW1 4869   4.264   0.458   0.399
 1010SOL    HW2 4870   4.218   0.463   0.254
 1011SOL     OW 4871   4.979   5.566  10.898
 1011SOL    HW1 4872   4.930   5.641  10.932
 1011SOL    HW2 4873   5.054   5.605  10.854
 1012SOL     OW 4874   9.285  14.188   8.400
 1012SOL    HW1 4875   9.292  14.145   8.485
 1012SOL    HW2 4876   9.376  14.210   8.377
 1013SOL     OW 4877  11.544   3.506  14.316
 1013SOL    HW1 4878  11.519   3.545  14.400
 1013SOL    HW2 4879  11.518   3.414  14.323
 1014SOL     OW 4880   6.774  10.708  11.183
 1014SOL    HW1 4881   6.697  10.656  11.160
 1014SOL    HW2 4882   6.823  10.716  11.102
 1015SOL     OW 4883   4.716  11.683  13.029
 1015SOL    HW1 4884   4.729  11.777  13.017
 1015SOL    HW2 4885   4.624  11.668  13.006
 1016SOL     OW 4886  13.368   5.128  11.001
 1016SOL    HW1 4887  13.437   5.166  10.947
 1016SOL    HW2 4888  13.297   5.110  10.940
 1017SOL     OW 4889  11.910   4.279   9.901
 1017SOL    HW1 4890  11.984   4.229   9.935
 1017SOL    HW2 4891  11.899   4.248   9.811
 1018SOL     OW 4892   3.526   0.061  12.373
 1018SOL    HW1 4893   3.573   0.117  12.312
 1018SOL    HW2 4894   3.470   0.122  12.422
 1019SOL     OW 4895   9.083   6.713   7.140
 1019SOL    HW1 4896   9.084   6.666   7.057
 1019SOL    HW2 4897   9.030   6.791   7.122
 1020SOL     OW 4898   6.810   5.281  10.759
 1020SOL    HW1 4899   6.871   5.313  10.693
 1020SOL    HW2 4900   6.805   5.187  10.743
 1021SOL     OW 4901   8.986  10.637   4.904
 1021SOL    HW1 4902   9.026  10.723   4.913
 1021SOL    HW2 4903   8.895  10.649   4.931
 1022SOL     OW 4904  13.967  13.696  10.997
 1022SOL    HW1 4905  13.986  13.780  10.956
 1022SOL    HW2 4906  14.011  13.631  10.942
 1023SOL     OW 4907   7.045   3.497  14.494
 1023SOL    HW1 4908   7.081   3.514  14.581
 1023SOL    HW2 4909   7.111   3.531  14.434
 1024SOL     OW 4910   6.798  11.232  14.399
 1024SOL    HW1 4911   6.746  11.301  14.440
 1024SOL    HW2 4912   6.732  11.169  14.368
 1025SOL     OW 4913   8.275  14.361   8.608
 1025SOL    HW1 4914   8.256  14.302   8.535
 1025SOL    HW2 4915   8.190  14.374   8.650
 1026SOL     OW 4916  11.344   4.664   6.289
 1026SOL    HW1 4917  11.262   4.615   6.294
 1026SOL    HW2 4918  11.332   4.737   6.349
 1027SOL     OW 4919   8.413   9.696   1.348
 1027SOL    HW1 4920   8.399   9.778   1.301
 1027SOL    HW2 4921   8.507   9.696   1.368
 1028SOL     OW 4922   2.824  11.019  11.308
 1028SOL    HW1 4923   2.833  11.114  11.305
 1028SOL    HW2 4924   2.735  11.004  11.339
 1029SOL     OW 4925   0.792  12.029   1.508
 1029SOL    HW1 4926   0.774  12.021   1.602
 1029SOL    HW2 4927   0.870  12.084   1.503
 1030SOL     OW 4928   4.317  10.645   2.117
 1030SOL    HW1 4929   4.369  10.681   2.188
 1030SOL    HW2 4930   4.233  10.624   2.157
 1031SOL     OW 4931   0.909   4.411  10.305
 1031SOL    HW1 4932   0.856   4.431  10.228
 1031SOL    HW2 4933   0.986   4.365  10.271
 1032SOL     OW 4934   5.135   9.988  11.925
 1032SOL    HW1 4935   5.057   9.955  11.971
 1032SOL    HW2 4936   5.110   9.988  11.833
 1033SOL     OW 4937   4.799   8.419  13.495
 1033SOL    HW1 4938   4.878   8.458  13.532
 1033SOL    HW2 4939   4.782   8.470  13.415
 1034SOL     OW 4940   7.281  11.152   0.331
 1034SOL    HW1 4941   7.286  11.196   0.246
 1034SOL    HW2 4942   7.187  11.141   0.347
 1035SOL     OW 4943   3.019   7.708  10.228
 1035SOL    HW1 4944   2.956   7.780  10.232
 1035SOL    HW2 4945   3.104   7.750  10.243
 1036SOL     OW 4946  11.896   6.761   9.392
 1036SOL    HW1 4947  11.899   6.832   9.329
 1036SOL    HW2 4948  11.868   6.802   9.474
 1037SOL     OW 4949   4.964  10.602   2.051
 1037SOL    HW1 4950   4.921  10.580   1.969
 1037SOL    HW2 4951   4.892  10.616   2.112
 1038SOL     OW 4952   1.171  14.054  10.790
 1038SOL    HW1 4953   1.162  14.052  10.694
 1038SOL    HW2 4954   1.097  14.106  10.820
 1039SOL     OW 4955   9.728   1.444  11.042
 1039SOL    HW1 4956   9.724   1.534  11.011
 1039SOL    HW2 4957   9.637   1.416  11.046
 1040SOL     OW 4958   3.661   8.194   0.192
 1040SOL    HW1 4959   3.632   8.131   0.258
 1040SOL    HW2 4960   3.755   8.180   0.183
 1041SOL     OW 4961   3.701   8.467   8.186
 1041SOL    HW1 4962   3.770   8.408   8.155
 1041SOL    HW2 4963   3.630   8.409   8.213
 1042SOL     OW 4964  11.058   6.728   4.110
 1042SOL    HW1 4965  11.049   6.774   4.027
 1042SOL    HW2 4966  11.091   6.641   4.086
 1043SOL     OW 4967   8.967   9.563   4.592
 1043SOL    HW1 4968   8.946   9.646   4.550
 1043SOL    HW2 4969   9.059   9.547   4.569
 1044SOL     OW 4970   4.140   1.566   0.509
 1044SOL    HW1 4971   4.142   1.471   0.500
 1044SOL    HW2 4972   4.233   1.592   0.513
 1045SOL     OW 4973   2.103   0.238   4.565
 1045SOL    HW1 4974   2.181   0.275   4.523
 1045SOL    HW2 4975   2.080   0.300   4.633
 1046SOL     OW 4976  13.782  11.673  14.689
 1046SOL    HW1 4977  13.700  11.624  14.679
 1046SOL    HW2 4978  13.771  11.722  14.770
 1047SOL     OW 4979   8.015   7.050   3.371
 1047SOL    HW1 4980   7.961   6.973   3.355
 1047SOL    HW2 4981   8.005   7.067   3.465
 1048SOL     OW 4982  10.932   8.102   2.461
 1048SOL    HW1 4983  10.947   8.064   2.548
 1048SOL    HW2 4984  10.920   8.195   2.478
 1049SOL     OW 4985  13.595  10.978   3.514
 1049SOL    HW1 4986  13.569  10.975   3.422
 1049SOL    HW2 4987  13.517  10.953   3.563
 1050SOL     OW 4988   9.901   0.223  11.784
 1050SOL    HW1 4989   9.867   0.290  11.843
 1050SOL    HW2 4990   9.918   0.269  11.702
 1051SOL     OW 4991  11.303   6.861  10.423
 1051SOL    HW1 4992  11.335   6.863  10.513
 1051SOL    HW2 4993  11.344   6.783  10.385
 1052SOL     OW 4994   4.690  13.639   7.795
 1052SOL    HW1 4995   4.753  13.567   7.786
 1052SOL    HW2 4996   4.733  13.702   7.852
 1053SOL     OW 4997  13.859   0.277  12.177
 1053SOL    HW1 4998  13.840   0.204  12.236
 1053SOL    HW2 4999  13.857   0.354  12.233
 1054SOL     OW 5000  13.820  14.454  13.593
 1054SOL    HW1 5001  13.907  14.429  13.625
 1054SOL    HW2 5002  13.761  14.391  13.634
 1055SOL     OW 5003   6.452   4.346   3.771
 1055SOL    HW1 5004   6.452   4.422   3.713
 1055SOL    HW2 5005   6.371   4.354   3.821
 1056SOL     OW 5006  10.742   7.647  13.527
 1056SOL    HW1 5007  10.717   7.719  13.470
 1056SOL    HW2 5008  10.779   7.689  13.604
 1057SOL     OW 5009   4.599   2.021   2.591
 1057SOL    HW1 5010   4.678   1.999   2.640
 1057SOL    HW2 5011   4.531   1.966   2.631
 1058SOL     OW 5012  11.831  11.104   8.159
 1058SOL    HW1 5013  11.855  11.076   8.071
 1058SOL    HW2 5014  11.858  11.031   8.215
 1059SOL     OW 5015   3.336   6.175   7.978
 1059SOL    HW1 5016   3.424   6.210   7.963
 1059SOL    HW2 5017   3.287   6.248   8.016
 1060SOL     OW 5018   3.038   4.123  10.381
 1060SOL    HW1 5019   2.961   4.124  10.437
 1060SOL    HW2 5020   3.083   4.205  10.401
 1061SOL     OW 5021   7.171   8.653  14.140
 1061SOL    HW1 5022   7.137   8.595  14.208
 1061SOL    HW2 5023   7.098   8.712  14.120
 1062SOL     OW 5024   7.232  14.745   2.166
 1062SOL    HW1 5025   7.318  14.730   2.207
 1062SOL    HW2 5026   7.204  14.830   2.202
 1063SOL     OW 5027  11.591   1.608   1.657
 1063SOL    HW1 5028  11.636   1.523   1.649
 1063SOL    HW2 5029  11.504   1.593   1.620
 1064SOL     OW 5030  14.227   5.508  13.590
 1064SOL    HW1 5031  14.253   5.479  13.502
 1064SOL    HW2 5032  14.189   5.595  13.576
 1065SOL     OW 5033   1.077  14.600  10.289
 1065SOL    HW1 5034   1.060  14.641  10.374
 1065SOL    HW2 5035   1.010  14.532  10.282
 1066SOL     OW 5036  11.193   9.616   1.776
 1066SOL    HW1 5037  11.227   9.579   1.694
 1066SOL    HW2 5038  11.248   9.692   1.792
 1067SOL     OW 5039   6.712   5.608   6.658
 1067SOL    HW1 5040   6.716   5.679   6.723
 1067SOL    HW2 5041   6.800   5.570   6.660
 1068SOL     OW 5042   9.300   6.577   0.518
 1068SOL    HW1 5043   9.204   6.566   0.517
 1068SOL    HW2 5044   9.318   6.619   0.601
 1069SOL     OW 5045   7.885   1.701   3.693
 1069SOL    HW1 5046   7.800   1.717   3.734
 1069SOL    HW2 5047   7.866   1.697   3.600
 1070SOL     OW 5048   4.203  10.354  10.224
 1070SOL    HW1 5049   4.181  10.414  10.152
 1070SOL    HW2 5050   4.292  10.325  10.203
 1071SOL     OW 5051  13.884   0.322   6.949
 1071SOL    HW1 5052  13.951   0.286   7.007
 1071SOL    HW2 5053  13.808   0.266   6.963
 1072SOL     OW 5054   1.225   7.886   2.124
 1072SOL    HW1 5055   1.142   7.926   2.151
 1072SOL    HW2 5056   1.269   7.955   2.074
 1073SOL     OW 5057  13.634   4.193   6.004
 1073SOL    HW1 5058  13.727   4.212   6.019
 1073SOL    HW2 5059  13.633   4.101   5.977
 1074SOL     OW 5060   4.164   7.751   8.573
 1074SOL    HW1 5061   4.199   7.830   8.531
 1074SOL    HW2 5062   4.099   7.718   8.511
 1075SOL     OW 5063  14.373   3.206  10.513
 1075SOL    HW1 5064  14.440   3.139  10.503
 1075SOL    HW2 5065  14.358   3.212  10.607
 1076SOL     OW 5066   8.364   7.712   1.174
 1076SOL    HW1 5067   8.301   7.694   1.244
 1076SOL    HW2 5068   8.315   7.693   1.094
 1077SOL     OW 5069  13.101   0.796  11.203
 1077SOL    HW1 5070  13.192   0.783  11.231
 1077SOL    HW2 5071  13.056   0.717  11.233
 1078SOL     OW 5072  14.246   0.068   8.805
 1078SOL    HW1 5073  14.280  14.859   8.791
 1078SOL    HW2 5074  14.259   0.085   8.898
 1079SOL     OW 5075  10.714   3.643   1.663
 1079SOL    HW1 5076  10.677   3.665   1.748
 1079SOL    HW2 5077  10.802   3.611   1.681
 1080SOL     OW 5078  10.795   5.867   1.430
 1080SOL    HW1 5079  10.885   5.884   1.460
 1080SOL    HW2 5080  10.779   5.776   1.455
 1081SOL     OW 5081   8.555  13.042   6.813
 1081SOL    HW1 5082   8.621  13.017   6.877
 1081SOL    HW2 5083   8.601  13.039   6.729
 1082SOL     OW 5084  10.818   9.932  13.474
 1082SOL    HW1 5085  10.758  10.002  13.499
 1082SOL    HW2 5086  10.897   9.949  13.524
 1083SOL     OW 5087  14.531   3.645   1.762
 1083SOL    HW1 5088  14.447   3.601   1.747
 1083SOL    HW2 5089  14.527   3.673   1.854
 1084SOL     OW 5090   6.657   0.522   8.174
 1084SOL    HW1 5091   6.692   0.538   8.086
 1084SOL    HW2 5092   6.597   0.595   8.189
 1085SOL     OW 5093   7.518  11.464  13.397
 1085SOL    HW1 5094   7.506  11.557  13.415
 1085SOL    HW2 5095   7.492  11.453  13.305
 1086SOL     OW 5096   7.134  12.086   3.550
 1086SOL    HW1 5097   7.129  12.018   3.483
 1086SOL    HW2 5098   7.195  12.150   3.514
 1087SOL     OW 5099   3.877  10.069   0.194
 1087SOL    HW1 5100   3.887  10.143   0.253
 1087SOL    HW2 5101   3.906   9.993   0.245
 1088SOL     OW 5102   9.822  13.877   8.829
 1088SOL    HW1 5103   9.779  13.866   8.744
 1088SOL    HW2 5104   9.751  13.878   8.893
 1089SOL     OW 5105   6.111  13.444  10.995
 1089SOL    HW1 5106   6.045  13.458  10.927
 1089SOL    HW2 5107   6.194  13.466  10.952
 1090SOL     OW 5108   8.670   0.431  10.439
 1090SOL    HW1 5109   8.676   0.366  10.510
 1090SOL    HW2 5110   8.665   0.379  10.359
 1091SOL     OW 5111  13.244  11.542   1.700
 1091SOL    HW1 5112  13.211  11.468   1.750
 1091SOL    HW2 5113  13.198  11.537   1.616
 1092SOL     OW 5114  11.240  10.567   0.536
 1092SOL    HW1 5115  11.313  10.575   0.597
 1092SOL    HW2 5116  11.244  10.476   0.506
 1093SOL     OW 5117   5.475   6.500   3.011
 1093SOL    HW1 5118   5.455   6.570   2.949
 1093SOL    HW2 5119   5.534   6.541   3.075
 1094SOL     OW 5120   5.266   6.429  11.261
 1094SOL    HW1 5121   5.224   6.500  11.310
 1094SOL    HW2 5122   5.348   6.413  11.308
 1095SOL     OW 5123   3.194   4.747  10.817
 1095SOL    HW1 5124   3.138   4.767  10.893
 1095SOL    HW2 5125   3.166   4.659  10.791
 1096SOL     OW 5126  13.046   3.372   6.856
 1096SOL    HW1 5127  12.973   3.431   6.874
 1096SOL    HW2 5128  13.058   3.377   6.761
 1097SOL     OW 5129   3.709   1.867  11.151
 1097SOL    HW1 5130   3.639   1.824  11.200
 1097SOL    HW2 5131   3.774   1.798  11.137
 1098SOL     OW 5132  14.319   2.544   1.993
 1098SOL    HW1 5133  14.310   2.514   1.902
 1098SOL    HW2 5134  14.231   2.575   2.016
 1099SOL     OW 5135   1.689   9.253   8.356
 1099SOL    HW1 5136   1.666   9.293   8.272
 1099SOL    HW2 5137   1.715   9.163   8.333
 1100SOL     OW 5138   7.852  11.422   9.745
 1100SOL    HW1 5139   7.849  11.501   9.692
 1100SOL    HW2 5140   7.797  11.441   9.821
 1101SOL     OW 5141   9.720   5.612   3.356
 1101SOL    HW1 5142   9.806   5.609   3.313
 1101SOL    HW2 5143   9.726   5.688   3.414
 1102SOL     OW 5144  11.320   1.784   7.493
 1102SOL    HW1 5145  11.255   1.777   7.563
 1102SOL    HW2 5146  11.269   1.810   7.416
 1103SOL     OW 5147  11.251   1.876   0.820
 1103SOL    HW1 5148  11.335   1.904   0.785
 1103SOL    HW2 5149  11.186   1.915   0.762
 1104SOL     OW 5150   1.302   3.778   9.606
 1104SOL    HW1 5151   1.362   3.850   9.585
 1104SOL    HW2 5152   1.298   3.726   9.526
 1105SOL     OW 5153  11.317  11.842   3.358
 1105SOL    HW1 5154  11.340  11.935   3.357
 1105SOL    HW2 5155  11.395  11.798   3.323
 1106SOL     OW 5156  13.729   2.718  11.030
 1106SOL    HW1 5157  13.644   2.717  10.986
 1106SOL    HW2 5158  13.709   2.702  11.122
 1107SOL     OW 5159   9.122   3.232   5.496
 1107SOL    HW1 5160   9.204   3.200   5.459
 1107SOL    HW2 5161   9.070   3.259   5.420
 1108SOL     OW 5162   8.627   0.546   2.412
 1108SOL    HW1 5163   8.661   0.471   2.363
 1108SOL    HW2 5164   8.702   0.603   2.426
 1109SOL     OW 5165   0.638   1.688  14.055
 1109SOL    HW1 5166   0.562   1.634  14.078
 1109SOL    HW2 5167   0.710   1.651  14.107
 1110SOL     OW 5168   1.781   1.438  10.112
 1110SOL    HW1 5169   1.699   1.432  10.062
 1110SOL    HW2 5170   1.849   1.449  10.046
 1111SOL     OW 5171  12.710   0.959   0.288
 1111SOL    HW1 5172  12.758   0.876   0.290
 1111SOL    HW2 5173  12.669   0.965   0.374
 1112SOL     OW 5174  12.623   6.570  14.188
 1112SOL    HW1 5175  12.711   6.567  14.225
 1112SOL    HW2 5176  12.605   6.664  14.178
 1113SOL     OW 5177   3.057  10.919   5.793
 1113SOL    HW1 5178   3.040  10.847   5.854
 1113SOL    HW2 5179   3.084  10.992   5.849
 1114SOL     OW 5180  13.143   3.259   9.071
 1114SOL    HW1 5181  13.061   3.293   9.107
 1114SOL    HW2 5182  13.126   3.166   9.056
 1115SOL     OW 5183   2.597  12.133  13.906
 1115SOL    HW1 5184   2.635  12.101  13.824
 1115SOL    HW2 5185   2.661  12.197  13.939
 1116SOL     OW 5186   3.783   0.047   4.908
 1116SOL    HW1 5187   3.872   0.072   4.882
 1116SOL    HW2 5188   3.796  14.859   4.975
 1117SOL     OW 5189   6.358   7.912  13.254
 1117SOL    HW1 5190   6.298   7.965  13.201
 1117SOL    HW2 5191   6.307   7.890  13.333
 1118SOL     OW 5192   6.805   3.462  12.776
 1118SOL    HW1 5193   6.798   3.488  12.868
 1118SOL    HW2 5194   6.784   3.542  12.727
 1119SOL     OW 5195   7.435   0.875   9.445
 1119SOL    HW1 5196   7.388   0.793   9.427
 1119SOL    HW2 5197   7.524   0.858   9.416
 1120SOL     OW 5198   2.314  14.839   9.911
 1120SOL    HW1 5199   2.278   0.037   9.954
 1120SOL    HW2 5200   2.379  14.874   9.850
 1121SOL     OW 5201   2.640   3.286  10.669
 1121SOL    HW1 5202   2.663   3.194  10.652
 1121SOL    HW2 5203   2.707   3.336  10.623
 1122SOL     OW 5204  14.584  13.153  13.682
 1122SOL    HW1 5205  14.498  13.126  13.650
 1122SOL    HW2 5206  14.565  13.202  13.763
 1123SOL     OW 5207  11.672   9.355  12.893
 1123SOL    HW1 5208  11.599   9.413  12.874
 1123SOL    HW2 5209  11.638   9.267  12.873
 1124SOL     OW 5210   5.482  10.919   0.129
 1124SOL    HW1 5211   5.536  10.996   0.144
 1124SOL    HW2 5212   5.443  10.900   0.214
 1125SOL     OW 5213   6.336   5.798  14.779
 1125SOL    HW1 5214   6.287   5.851  14.842
 1125SOL    HW2 5215   6.371   5.726  14.831
 1126SOL     OW 5216   9.369   8.391   0.728
 1126SOL    HW1 5217   9.401   8.463   0.673
 1126SOL    HW2 5218   9.442   8.370   0.786
 1127SOL     OW 5219   9.188  11.406   7.577
 1127SOL    HW1 5220   9.112  11.453   7.611
 1127SOL    HW2 5221   9.259  11.428   7.637
 1128SOL     OW 5222   5.546   9.830   1.363
 1128SOL    HW1 5223   5.583   9.798   1.446
 1128SOL    HW2 5224   5.609   9.896   1.333
 1129SOL     OW 5225  13.912  14.670   1.381
 1129SOL    HW1 5226  13.946  14.698   1.466
 1129SOL    HW2 5227  13.893  14.752   1.335
 1130SOL     OW 5228   0.478   8.221   0.644
 1130SOL    HW1 5229   0.399   8.179   0.611
 1130SOL    HW2 5230   0.547   8.155   0.635
 1131SOL     OW 5231   7.829  11.407  10.749
 1131SOL    HW1 5232   7.736  11.427  10.742
 1131SOL    HW2 5233   7.870  11.465  10.684
 1132SOL     OW 5234   8.154   5.214   7.981
 1132SOL    HW1 5235   8.200   5.298   7.986
 1132SOL    HW2 5236   8.138   5.201   7.888
 1133SOL     OW 5237  12.411   7.991   6.194
 1133SOL    HW1 5238  12.316   7.996   6.208
 1133SOL    HW2 5239  12.447   8.061   6.248
 1134SOL     OW 5240   6.473   2.477   3.672
 1134SOL    HW1 5241   6.381   2.475   3.697
 1134SOL    HW2 5242   6.474   2.444   3.582
 1135SOL     OW 5243   9.824   4.352   0.913
 1135SOL    HW1 5244   9.799   4.260   0.905
 1135SOL    HW2 5245   9.743   4.396   0.941
 1136SOL     OW 5246  12.009   0.773   5.697
 1136SOL    HW1 5247  12.031   0.865   5.682
 1136SOL    HW2 5248  11.940   0.755   5.633
 1137SOL     OW 5249   0.879  13.792  10.267
 1137SOL    HW1 5250   0.838  13.742  10.338
 1137SOL    HW2 5251   0.876  13.883  10.296
 1138SOL     OW 5252   1.484   6.982  13.452
 1138SOL    HW1 5253   1.450   6.993  13.541
 1138SOL    HW2 5254   1.533   7.063  13.436
 1139SOL     OW 5255  13.270   5.670   9.367
 1139SOL    HW1 5256  13.312   5.627   9.293
 1139SOL    HW2 5257  13.292   5.763   9.358
 1140SOL     OW 5258   8.282  11.942   0.583
 1140SOL    HW1 5259   8.313  11.864   0.629
 1140SOL    HW2 5260   8.357  11.971   0.530
 1141SOL     OW 5261   1.051  14.791   5.353
 1141SOL    HW1 5262   1.110  14.848   5.303
 1141SOL    HW2 5263   1.050  14.829   5.441
 1142SOL     OW 5264  14.486   8.428   7.103
 1142SOL    HW1 5265  14.550   8.416   7.173
 1142SOL    HW2 5266  14.517   8.372   7.032
 1143SOL     OW 5267   8.159  14.309  11.870
 1143SOL    HW1 5268   8.088  14.366  11.897
 1143SOL    HW2 5269   8.174  14.251  11.945
 1144SOL     OW 5270  11.175   8.452   4.635
 1144SOL    HW1 5271  11.154   8.544   4.617
 1144SOL    HW2 5272  11.269   8.451   4.648
 1145SOL     OW 5273   8.623  10.996  12.613
 1145SOL    HW1 5274   8.603  10.982  12.521
 1145SOL    HW2 5275   8.617  10.909  12.652
 1146SOL     OW 5276  14.158   7.819   6.005
 1146SOL    HW1 5277  14.164   7.912   6.026
 1146SOL    HW2 5278  14.220   7.777   6.065
 1147SOL     OW 5279   1.373   0.285   3.685
 1147SOL    HW1 5280   1.387   0.367   3.638
 1147SOL    HW2 5281   1.452   0.234   3.670
 1148SOL     OW 5282   9.584   3.764   6.242
 1148SOL    HW1 5283   9.615   3.814   6.167
 1148SOL    HW2 5284   9.510   3.714   6.209
 1149SOL     OW 5285   4.960   9.547   2.142
 1149SOL    HW1 5286   4.870   9.528   2.119
 1149SOL    HW2 5287   5.007   9.465   2.127
 1150SOL     OW 5288   9.264   0.008   9.164
 1150SOL    HW1 5289   9.214   0.061   9.226
 1150SOL    HW2 5290   9.281   0.066   9.090
 1151SOL     OW 5291   1.706  11.478   6.430
 1151SOL    HW1 5292   1.673  11.490   6.341
 1151SOL    HW2 5293   1.664  11.397   6.460
 1152SOL     OW 5294   0.374   1.439   8.085
 1152SOL    HW1 5295   0.416   1.398   8.161
 1152SOL    HW2 5296   0.286   1.462   8.115
 1153SOL     OW 5297   8.388  11.217  13.000
 1153SOL    HW1 5298   8.454  11.220  12.931
 1153SOL    HW2 5299   8.368  11.309  13.018
 1154SOL     OW 5300   5.497   6.807   1.061
 1154SOL    HW1 5301   5.440   6.871   1.103
 1154SOL    HW2 5302   5.548   6.858   0.997
 1155SOL     OW 5303   2.721  13.161  13.010
 1155SOL    HW1 5304   2.812  13.188  13.009
 1155SOL    HW2 5305   2.723  13.066  12.994
 1156SOL     OW 5306  14.592  11.982   9.267
 1156SOL    HW1 5307  14.678  12.010   9.299
 1156SOL    HW2 5308  14.532  12.005   9.338
 1157SOL     OW 5309   8.454   7.670  11.503
 1157SOL    HW1 5310   8.471   7.711  11.419
 1157SOL    HW2 5311   8.501   7.725  11.566
 1158SOL     OW 5312   7.686  14.659   9.513
 1158SOL    HW1 5313   7.700  14.692   9.602
 1158SOL    HW2 5314   7.591  14.659   9.502
 1159SOL     OW 5315   2.815   6.398  10.493
 1159SOL    HW1 5316   2.894   6.396  10.548
 1159SOL    HW2 5317   2.764   6.323  10.524
 1160SOL     OW 5318  14.813   2.236   0.890
 1160SOL    HW1 5319  14.797   2.256   0.982
 1160SOL    HW2 5320   0.023   2.267   0.874
 1161SOL     OW 5321   6.047   8.295  13.983
 1161SOL    HW1 5322   6.116   8.240  13.948
 1161SOL    HW2 5323   5.969   8.240  13.981
 1162SOL     OW 5324   3.423   4.250  11.228
 1162SOL    HW1 5325   3.331   4.231  11.247
 1162SOL    HW2 5326   3.424   4.343  11.205
 1163SOL     OW 5327   9.677  14.871  12.461
 1163SOL    HW1 5328   9.601   0.044  12.484
 1163SOL    HW2 5329   9.641  14.796  12.414
 1164SOL     OW 5330  12.235   1.831  10.431
 1164SOL    HW1 5331  12.283   1.754  10.402
 1164SOL    HW2 5332  12.302   1.888  10.469
 1165SOL     OW 5333  13.836   7.942   2.734
 1165SOL    HW1 5334  13.757   7.994   2.747
 1165SOL    HW2 5335  13.869   7.969   2.649
 1166SOL     OW 5336  12.539   8.227   3.969
 1166SOL    HW1 5337  12.465   8.280   3.999
 1166SOL    HW2 5338  12.586   8.284   3.908
 1167SOL     OW 5339   0.910  13.237  12.370
 1167SOL    HW1 5340   0.874  13.326  12.371
 1167SOL    HW2 5341   0.869  13.195  12.295
 1168SOL     OW 5342   9.844   7.531  11.009
 1168SOL    HW1 5343   9.920   7.584  10.984
 1168SOL    HW2 5344   9.811   7.572  11.089
 1169SOL     OW 5345  13.562   3.636  11.146
 1169SOL    HW1 5346  13.569   3.544  11.120
 1169SOL    HW2 5347  13.500   3.674  11.083
 1170SOL     OW 5348  12.853  10.439   3.931
 1170SOL    HW1 5349  12.842  10.357   3.979
 1170SOL    HW2 5350  12.768  10.483   3.939
 1171SOL     OW 5351   6.343   5.298   6.325
 1171SOL    HW1 5352   6.287   5.374   6.308
 1171SOL    HW2 5353   6.336   5.285   6.420
 1172SOL     OW 5354   3.488   0.594   3.927
 1172SOL    HW1 5355   3.500   0.535   4.001
 1172SOL    HW2 5356   3.562   0.575   3.869
 1173SOL     OW 5357   4.439   0.720  12.261
 1173SOL    HW1 5358   4.479   0.791  12.211
 1173SOL    HW2 5359   4.506   0.651  12.262
 1174SOL     OW 5360  12.883   9.457  14.083
 1174SOL    HW1 5361  12.877   9.478  14.177
 1174SOL    HW2 5362  12.966   9.495  14.055
 1175SOL     OW 5363   4.070   1.702   4.790
 1175SOL    HW1 5364   4.145   1.758   4.772
 1175SOL    HW2 5365   4.093   1.653   4.869
 1176SOL     OW 5366   1.256   2.483  12.375
 1176SOL    HW1 5367   1.223   2.505  12.462
 1176SOL    HW2 5368   1.182   2.498  12.317
 1177SOL     OW 5369  14.195   4.970   1.246
 1177SOL    HW1 5370  14.166   5.011   1.328
 1177SOL    HW2 5371  14.225   4.883   1.272
 1178SOL     OW 5372   7.465   7.919  12.760
 1178SOL    HW1 5373   7.391   7.955  12.808
 1178SOL    HW2 5374   7.442   7.929  12.668
 1179SOL     OW 5375  14.632  10.964  10.374
 1179SOL    HW1 5376  14.641  10.869  10.380
 1179SOL    HW2 5377  14.699  10.999  10.433
 1180SOL     OW 5378  10.074  12.574   3.023
 1180SOL    HW1 5379   9.983  12.574   2.992
 1180SOL    HW2 5380  10.075  12.510   3.094
 1181SOL     OW 5381   2.393  13.795   3.700
 1181SOL    HW1 5382   2.343  13.874   3.681
 1181SOL    HW2 5383   2.402  13.793   3.795
 1182SOL     OW 5384   8.973   5.186  14.298
 1182SOL    HW1 5385   8.946   5.101  14.333
 1182SOL    HW2 5386   8.912   5.249  14.337
 1183SOL     OW 5387   0.689   9.949   1.079
 1183SOL    HW1 5388   0.599   9.962   1.108
 1183SOL    HW2 5389   0.743   9.970   1.155
 1184SOL     OW 5390   4.808   4.418  11.992
 1184SOL    HW1 5391   4.872   4.392  12.059
 1184SOL    HW2 5392   4.775   4.503  12.022
 1185SOL     OW 5393  14.326  12.631   8.763
 1185SOL    HW1 5394  14.325  12.727   8.767
 1185SOL    HW2 5395  14.353  12.612   8.673
 1186SOL     OW 5396   2.644   3.556   7.535
 1186SOL    HW1 5397   2.593   3.636   7.526
 1186SOL    HW2 5398   2.633   3.530   7.626
 1187SOL     OW 5399   0.007   4.673   2.258
 1187SOL    HW1 5400   0.060   4.750   2.238
 1187SOL    HW2 5401  14.803   4.708   2.288
 1188SOL     OW 5402   7.873   4.397   9.730
 1188SOL    HW1 5403   7.882   4.316   9.682
 1188SOL    HW2 5404   7.860   4.464   9.663
 1189SOL     OW 5405   2.530   6.986  11.668
 1189SOL    HW1 5406   2.573   7.037  11.599
 1189SOL    HW2 5407   2.496   6.909  11.623
 1190SOL     OW 5408   6.525   5.791   0.187
 1190SOL    HW1 5409   6.480   5.875   0.179
 1190SOL    HW2 5410   6.604   5.811   0.237
 1191SOL     OW 5411   2.509   8.482   3.732
 1191SOL    HW1 5412   2.598   8.473   3.766
 1191SOL    HW2 5413   2.511   8.562   3.681
 1192SOL     OW 5414   6.887   2.891  11.558
 1192SOL    HW1 5415   6.959   2.847  11.603
 1192SOL    HW2 5416   6.929   2.936  11.485
 1193SOL     OW 5417   2.005   9.120   7.292
 1193SOL    HW1 5418   2.011   9.026   7.277
 1193SOL    HW2 5419   2.082   9.157   7.249
 1194SOL     OW 5420  13.443  10.509  14.627
 1194SOL    HW1 5421  13.441  10.560  14.546
 1194SOL    HW2 5422  13.525  10.533  14.670
 1195SOL     OW 5423  10.982   7.805   7.399
 1195SOL    HW1 5424  10.960   7.816   7.492
 1195SOL    HW2 5425  11.014   7.715   7.393
 1196SOL     OW 5426  14.013   9.765   8.192
 1196SOL    HW1 5427  14.071   9.694   8.220
 1196SOL    HW2 5428  14.024   9.769   8.097
 1197SOL     OW 5429   0.583   3.993   8.683
 1197SOL    HW1 5430   0.494   3.986   8.649
 1197SOL    HW2 5431   0.638   3.956   8.613
 1198SOL     OW 5432  14.752  14.176   1.731
 1198SOL    HW1 5433  14.807  14.251   1.707
 1198SOL    HW2 5434  14.704  14.154   1.652
 1199SOL     OW 5435   7.401  13.074   3.953
 1199SOL    HW1 5436   7.378  13.160   3.917
 1199SOL    HW2 5437   7.337  13.061   4.024
 1200SOL     OW 5438   6.381   9.535   1.375
 1200SOL    HW1 5439   6.312   9.543   1.310
 1200SOL    HW2 5440   6.336   9.509   1.456
 1201SOL     OW 5441   7.669   1.023  13.322
 1201SOL    HW1 5442   7.703   0.943  13.282
 1201SOL    HW2 5443   7.739   1.053  13.380
 1202SOL     OW 5444  11.908  12.919   4.825
 1202SOL    HW1 5445  11.993  12.954   4.797
 1202SOL    HW2 5446  11.877  12.981   4.890
 1203SOL     OW 5447   8.630   3.159   2.294
 1203SOL    HW1 5448   8.590   3.080   2.257
 1203SOL    HW2 5449   8.566   3.229   2.277
 1204SOL     OW 5450   3.246   4.503   0.296
 1204SOL    HW1 5451   3.325   4.484   0.346
 1204SOL    HW2 5452   3.178   4.515   0.361
 1205SOL     OW 5453   9.917   5.490  11.076
 1205SOL    HW1 5454   9.939   5.582  11.089
 1205SOL    HW2 5455   9.893   5.458  11.163
 1206SOL     OW 5456   9.897  10.293   2.573
 1206SOL    HW1 5457   9.987  10.277   2.547
 1206SOL    HW2 5458   9.867  10.363   2.516
 1207SOL     OW 5459   3.373   7.707  14.740
 1207SOL    HW1 5460   3.420   7.763  14.678
 1207SOL    HW2 5461   3.347   7.631  14.689
 1208SOL     OW 5462  12.464  13.540   6.270
 1208SOL    HW1 5463  12.509  13.480   6.329
 1208SOL    HW2 5464  12.527  13.609   6.252
 1209SOL     OW 5465   1.963   7.769  12.495
 1209SOL    HW1 5466   1.916   7.846  12.462
 1209SOL    HW2 5467   1.983   7.719  12.416
 1210SOL     OW 5468  11.515   5.298   1.144
 1210SOL    HW1 5469  11.488   5.206   1.146
 1210SOL    HW2 5470  11.506   5.324   1.052
 1211SOL     OW 5471   2.697  13.962  12.193
 1211SOL    HW1 5472   2.755  13.900  12.147
 1211SOL    HW2 5473   2.609  13.931  12.172
 1212SOL     OW 5474  14.770  10.389   9.347
 1212SOL    HW1 5475  14.732  10.341   9.421
 1212SOL    HW2 5476  14.787  10.322   9.281
 1213SOL     OW 5477   6.569   1.293   8.656
 1213SOL    HW1 5478   6.495   1.237   8.678
 1213SOL    HW2 5479   6.645   1.236   8.661
 1214SOL     OW 5480   7.840   1.955  12.605
 1214SOL    HW1 5481   7.898   1.911  12.668
 1214SOL    HW2 5482   7.834   1.894  12.532
 1215SOL     OW 5483   9.693  13.305  12.074
 1215SOL    HW1 5484   9.678  13.358  12.153
 1215SOL    HW2 5485   9.719  13.369  12.008
 1216SOL     OW 5486  14.292  14.347  10.628
 1216SOL    HW1 5487  14.248  14.272  10.590
 1216SOL    HW2 5488  14.317  14.318  10.716
 1217SOL     OW 5489  14.220  10.798  13.173
 1217SOL    HW1 5490  14.281  10.835  13.236
 1217SOL    HW2 5491  14.273  10.739  13.120
 1218SOL     OW 5492  12.606   2.943  12.021
 1218SOL    HW1 5493  12.591   2.962  12.114
 1218SOL    HW2 5494  12.699   2.920  12.016
 1219SOL     OW 5495   8.377  14.491  13.205
 1219SOL    HW1 5496   8.421  14.497  13.290
 1219SOL    HW2 5497   8.430  14.546  13.147
 1220SOL     OW 5498  13.584   8.990   2.189
 1220SOL    HW1 5499  13.512   8.965   2.248
 1220SOL    HW2 5500  13.551   9.066   2.142
 1221SOL     OW 5501  10.835   3.029   4.623
 1221SOL    HW1 5502  10.782   2.949   4.619
 1221SOL    HW2 5503  10.907   3.007   4.682
 1222SOL     OW 5504   9.437  14.843   7.954
 1222SOL    HW1 5505   9.518  14.847   8.004
 1222SOL    HW2 5506   9.390  14.767   7.988
 1223SOL     OW 5507  11.314   0.362   6.048
 1223SOL    HW1 5508  11.308   0.455   6.029
 1223SOL    HW2 5509  11.255   0.321   5.985
 1224SOL     OW 5510   8.565   2.007  12.702
 1224SOL    HW1 5511   8.536   1.965  12.622
 1224SOL    HW2 5512   8.542   2.099  12.692
 1225SOL     OW 5513   2.170  13.166   5.948
 1225SOL    HW1 5514   2.261  13.176   5.919
 1225SOL    HW2 5515   2.158  13.072   5.959
 1226SOL     OW 5516  11.545   2.511   3.252
 1226SOL    HW1 5517  11.570   2.486   3.163
 1226SOL    HW2 5518  11.557   2.431   3.303
 1227SOL     OW 5519  13.371   6.895   8.570
 1227SOL    HW1 5520  13.407   6.824   8.623
 1227SOL    HW2 5521  13.354   6.966   8.633
 1228SOL     OW 5522   9.724   8.052   7.209
 1228SOL    HW1 5523   9.815   8.080   7.212
 1228SOL    HW2 5524   9.718   8.000   7.129
 1229SOL     OW 5525   5.235   1.986  12.614
 1229SOL    HW1 5526   5.281   2.070  12.616
 1229SOL    HW2 5527   5.291   1.926  12.663
 1230SOL     OW 5528   5.439   7.386   5.116
 1230SOL    HW1 5529   5.513   7.437   5.147
 1230SOL    HW2 5530   5.432   7.406   5.023
 1231SOL     OW 5531   2.387   8.405   6.597
 1231SOL    HW1 5532   2.468   8.412   6.548
 1231SOL    HW2 5533   2.321   8.379   6.532
 1232SOL     OW 5534   5.619   1.800  13.118
 1232SOL    HW1 5535   5.557   1.732  13.092
 1232SOL    HW2 5536   5.660   1.828  13.036
 1233SOL     OW 5537   2.910   0.133  14.449
 1233SOL    HW1 5538   2.822   0.101  14.429
 1233SOL    HW2 5539   2.898   0.225  14.472
 1234SOL     OW 5540   8.663  12.795   9.060
 1234SOL    HW1 5541   8.730  12.838   9.112
 1234SOL    HW2 5542   8.706  12.772   8.978
 1235SOL     OW 5543  10.394   8.069   6.769
 1235SOL    HW1 5544  10.439   7.987   6.751
 1235SOL    HW2 5545  10.440   8.134   6.715
 1236SOL     OW 5546  11.089   5.306  11.218
 1236SOL    HW1 5547  11.065   5.258  11.298
 1236SOL    HW2 5548  11.073   5.398  11.240
 1237SOL     OW 5549   9.457   7.148   7.486
 1237SOL    HW1 5550   9.454   7.172   7.394
 1237SOL    HW2 5551   9.547   7.169   7.513
 1238SOL     OW 5552   4.593   4.828   2.586
 1238SOL    HW1 5553   4.667   4.835   2.525
 1238SOL    HW2 5554   4.633   4.827   2.673
 1239SOL     OW 5555  13.132   6.951   2.344
 1239SOL    HW1 5556  13.217   6.953   2.301
 1239SOL    HW2 5557  13.123   7.037   2.385
 1240SOL     OW 5558   3.443   1.412   0.754
 1240SOL    HW1 5559   3.498   1.454   0.819
 1240SOL    HW2 5560   3.407   1.485   0.702
 1241SOL     OW 5561  12.803  10.954   7.290
 1241SOL    HW1 5562  12.740  10.936   7.221
 1241SOL    HW2 5563  12.869  11.010   7.249
 1242SOL     OW 5564   3.956   3.251  12.629
 1242SOL    HW1 5565   3.934   3.323  12.570
 1242SOL    HW2 5566   3.874   3.203  12.641
 1243SOL     OW 5567   8.633   1.055  14.749
 1243SOL    HW1 5568   8.701   1.107  14.791
 1243SOL    HW2 5569   8.603   0.994  14.816
 1244SOL     OW 5570   3.223  12.510   2.356
 1244SOL    HW1 5571   3.144  12.554   2.322
 1244SOL    HW2 5572   3.189  12.437   2.408
 1245SOL     OW 5573   0.750  10.595   2.120
 1245SOL    HW1 5574   0.675  10.654   2.126
 1245SOL    HW2 5575   0.827  10.652   2.130
 1246SOL     OW 5576  12.540   9.949  10.162
 1246SOL    HW1 5577  12.472   9.882  10.160
 1246SOL    HW2 5578  12.494  10.030  10.183
 1247SOL     OW 5579   1.605  13.839  11.341
 1247SOL    HW1 5580   1.663  13.839  11.416
 1247SOL    HW2 5581   1.615  13.752  11.302
 1248SOL     OW 5582   5.406   4.533   3.854
 1248SOL    HW1 5583   5.487   4.532   3.906
 1248SOL    HW2 5584   5.406   4.449   3.808
 1249SOL     OW 5585   4.201   4.896  11.364
 1249SOL    HW1 5586   4.193   4.880  11.271
 1249SOL    HW2 5587   4.295   4.893  11.381
 1250SOL     OW 5588  12.444   4.468   7.283
 1250SOL    HW1 5589  12.482   4.456   7.370
 1250SOL    HW2 5590  12.362   4.418   7.286
 1251SOL     OW 5591   8.512  11.775  11.053
 1251SOL    HW1 5592   8.556  11.759  11.136
 1251SOL    HW2 5593   8.525  11.868  11.036
 1252SOL     OW 5594   0.808  13.311   3.362
 1252SOL    HW1 5595   0.777  13.393   3.323
 1252SOL    HW2 5596   0.902  13.325   3.375
 1253SOL     OW 5597  11.399   1.331  11.064
 1253SOL    HW1 5598  11.354   1.255  11.102
 1253SOL    HW2 5599  11.453   1.365  11.136
 1254SOL     OW 5600  11.585  12.631   0.122
 1254SOL    HW1 5601  11.547  12.712   0.086
 1254SOL    HW2 5602  11.572  12.638   0.216
 1255SOL     OW 5603   3.950   4.206   5.946
 1255SOL    HW1 5604   3.990   4.291   5.964
 1255SOL    HW2 5605   3.857   4.226   5.929
 1256SOL     OW 5606   5.962  12.534   9.760
 1256SOL    HW1 5607   5.947  12.470   9.691
 1256SOL    HW2 5608   6.009  12.485   9.828
 1257SOL     OW 5609   7.869   0.597  13.409
 1257SOL    HW1 5610   7.816   0.661  13.457
 1257SOL    HW2 5611   7.824   0.514  13.421
 1258SOL     OW 5612   3.220   3.134   6.511
 1258SOL    HW1 5613   3.220   3.067   6.442
 1258SOL    HW2 5614   3.310   3.131   6.546
 1259SOL     OW 5615   4.122   8.471   7.992
 1259SOL    HW1 5616   4.171   8.493   8.072
 1259SOL    HW2 5617   4.035   8.449   8.023
 1260SOL     OW 5618   1.313   6.033   2.453
 1260SOL    HW1 5619   1.394   6.050   2.501
 1260SOL    HW2 5620   1.289   6.119   2.416
 1261SOL     OW 5621   2.723  14.394   2.462
 1261SOL    HW1 5622   2.789  14.394   2.531
 1261SOL    HW2 5623   2.708  14.301   2.444
 1262SOL     OW 5624  11.820   4.607   6.869
 1262SOL    HW1 5625  11.835   4.679   6.807
 1262SOL    HW2 5626  11.748   4.557   6.831
 1263SOL     OW 5627   1.562   8.086   9.619
 1263SOL    HW1 5628   1.646   8.043   9.603
 1263SOL    HW2 5629   1.525   8.098   9.532
 1264SOL     OW 5630   7.717  12.375   9.901
 1264SOL    HW1 5631   7.805  12.339   9.900
 1264SOL    HW2 5632   7.708  12.421   9.818
 1265SOL     OW 5633   1.778   7.656   7.032
 1265SOL    HW1 5634   1.768   7.692   7.120
 1265SOL    HW2 5635   1.847   7.709   6.992
 1266SOL     OW 5636  10.862   3.092   0.608
 1266SOL    HW1 5637  10.931   3.027   0.623
 1266SOL    HW2 5638  10.901   3.156   0.550
 1267SOL     OW 5639  11.083  11.709   2.841
 1267SOL    HW1 5640  11.112  11.746   2.924
 1267SOL    HW2 5641  11.152  11.731   2.779
 1268SOL     OW 5642   3.108  11.901   7.371
 1268SOL    HW1 5643   3.056  11.981   7.363
 1268SOL    HW2 5644   3.119  11.890   7.466
 1269SOL     OW 5645  14.262   5.297  10.798
 1269SOL    HW1 5646  14.308   5.377  10.770
 1269SOL    HW2 5647  14.331   5.242  10.834
 1270SOL     OW 5648   2.607  12.972   2.410
 1270SOL    HW1 5649   2.632  13.057   2.372
 1270SOL    HW2 5650   2.595  12.991   2.503
 1271SOL     OW 5651   6.609   4.843  13.951
 1271SOL    HW1 5652   6.551   4.894  14.007
 1271SOL    HW2 5653   6.579   4.860  13.862
 1272SOL     OW 5654  13.679   6.445   2.125
 1272SOL    HW1 5655  13.618   6.447   2.051
 1272SOL    HW2 5656  13.672   6.532   2.164
 1273SOL     OW 5657  12.547   5.513   3.721
 1273SOL    HW1 5658  12.621   5.568   3.747
 1273SOL    HW2 5659  12.482   5.527   3.790
 1274SOL     OW 5660  13.370   0.347   7.151
 1274SOL    HW1 5661  13.316   0.399   7.091
 1274SOL    HW2 5662  13.387   0.266   7.104
 1275SOL     OW 5663   9.890   8.542  11.999
 1275SOL    HW1 5664   9.913   8.634  11.987
 1275SOL    HW2 5665   9.922   8.519  12.086
 1276SOL     OW 5666   2.372  13.878   2.268
 1276SOL    HW1 5667   2.352  13.829   2.348
 1276SOL    HW2 5668   2.310  13.844   2.203
 1277SOL     OW 5669   6.340   7.155   0.316
 1277SOL    HW1 5670   6.269   7.107   0.273
 1277SOL    HW2 5671   6.335   7.243   0.280
 1278SOL     OW 5672   1.781   0.333   5.999
 1278SOL    HW1 5673   1.728   0.358   5.924
 1278SOL    HW2 5674   1.830   0.257   5.970
 1279SOL     OW 5675   6.163   4.557  13.075
 1279SOL    HW1 5676   6.130   4.629  13.129
 1279SOL    HW2 5677   6.197   4.494  13.139
 1280SOL     OW 5678   3.759   3.032   1.019
 1280SOL    HW1 5679   3.724   2.954   0.977
 1280SOL    HW2 5680   3.696   3.052   1.088
 1281SOL     OW 5681   5.894   5.855   5.680
 1281SOL    HW1 5682   5.968   5.910   5.654
 1281SOL    HW2 5683   5.836   5.914   5.728
 1282SOL     OW 5684   4.236   7.084   3.789
 1282SOL    HW1 5685   4.303   7.152   3.777
 1282SOL    HW2 5686   4.250   7.024   3.716
 1283SOL     OW 5687   9.936   0.963   3.800
 1283SOL    HW1 5688   9.945   1.047   3.756
 1283SOL    HW2 5689   9.952   0.898   3.731
 1284SOL     OW 5690   7.773   3.322   2.274
 1284SOL    HW1 5691   7.692   3.276   2.298
 1284SOL    HW2 5692   7.753   3.363   2.190
 1285SOL     OW 5693  14.747  12.756   0.789
 1285SOL    HW1 5694  14.827  12.786   0.832
 1285SOL    HW2 5695  14.755  12.787   0.699
 1286SOL     OW 5696   2.750   0.231   3.660
 1286SOL    HW1 5697   2.719   0.221   3.570
 1286SOL    HW2 5698   2.688   0.292   3.701
 1287SOL     OW 5699   4.646  12.899   6.442
 1287SOL    HW1 5700   4.615  12.947   6.518
 1287SOL    HW2 5701   4.577  12.836   6.423
 1288SOL     OW 5702   8.578   8.819   3.484
 1288SOL    HW1 5703   8.542   8.904   3.458
 1288SOL    HW2 5704   8.583   8.823   3.579
 1289SOL     OW 5705  13.084  14.277   8.586
 1289SOL    HW1 5706  13.010  14.292   8.527
 1289SOL    HW2 5707  13.161  14.277   8.529
 1290SOL     OW 5708   5.871   2.098   5.946
 1290SOL    HW1 5709   5.963   2.125   5.949
 1290SOL    HW2 5710   5.846   2.106   5.854
 1291SOL     OW 5711   5.030   8.819   0.483
 1291SOL    HW1 5712   5.113   8.783   0.453
 1291SOL    HW2 5713   5.038   8.822   0.578
 1292SOL     OW 5714   4.129   8.703   4.230
 1292SOL    HW1 5715   4.046   8.691   4.275
 1292SOL    HW2 5716   4.105   8.719   4.139
 1293SOL     OW 5717   3.733  14.427   2.022
 1293SOL    HW1 5718   3.677  14.415   1.946
 1293SOL    HW2 5719   3.738  14.341   2.063
 1294SOL     OW 5720  12.816  13.451  10.719
 1294SOL    HW1 5721  12.830  13.446  10.624
 1294SOL    HW2 5722  12.744  13.514  10.729
 1295SOL     OW 5723   0.665   3.933  11.683
 1295SOL    HW1 5724   0.759   3.950  11.690
 1295SOL    HW2 5725   0.645   3.880  11.760
 1296SOL     OW 5726   1.181   2.867  12.121
 1296SOL    HW1 5727   1.245   2.880  12.191
 1296SOL    HW2 5728   1.225   2.809  12.059
 1297SOL     OW 5729  10.214   6.108   9.863
 1297SOL    HW1 5730  10.213   6.202   9.884
 1297SOL    HW2 5731  10.305   6.090   9.840
 1298SOL     OW 5732   1.103   0.349   0.877
 1298SOL    HW1 5733   1.188   0.304   0.876
 1298SOL    HW2 5734   1.124   0.441   0.887
 1299SOL     OW 5735   0.814  10.253  10.418
 1299SOL    HW1 5736   0.847  10.239  10.507
 1299SOL    HW2 5737   0.806  10.348  10.410
 1300SOL     OW 5738  10.770   2.725   9.508
 1300SOL    HW1 5739  10.721   2.764   9.581
 1300SOL    HW2 5740  10.853   2.697   9.548
 1301SOL     OW 5741  12.711   9.991  12.421
 1301SOL    HW1 5742  12.690   9.900  12.444
 1301SOL    HW2 5743  12.798  10.005  12.457
 1302SOL     OW 5744  13.218   8.395  10.522
 1302SOL    HW1 5745  13.245   8.327  10.461
 1302SOL    HW2 5746  13.191   8.348  10.601
 1303SOL     OW 5747   8.914   7.615   5.333
 1303SOL    HW1 5748   8.896   7.563   5.411
 1303SOL    HW2 5749   8.848   7.588   5.270
 1304SOL     OW 5750  11.798   1.666   1.144
 1304SOL    HW1 5751  11.775   1.692   1.233
 1304SOL    HW2 5752  11.732   1.708   1.088
 1305SOL     OW 5753   4.625  12.660   3.021
 1305SOL    HW1 5754   4.718  12.678   3.035
 1305SOL    HW2 5755   4.606  12.699   2.936
 1306SOL     OW 5756  11.474  10.975   2.530
 1306SOL    HW1 5757  11.435  11.013   2.608
 1306SOL    HW2 5758  11.561  10.945   2.558
 1307SOL     OW 5759  11.053   8.878  14.655
 1307SOL    HW1 5760  10.971   8.830  14.642
 1307SOL    HW2 5761  11.026   8.969  14.668
 1308SOL     OW 5762   7.410  10.606   6.694
 1308SOL    HW1 5763   7.454  10.541   6.749
 1308SOL    HW2 5764   7.339  10.640   6.749
 1309SOL     OW 5765   4.775  14.318   4.631
 1309SOL    HW1 5766   4.754  14.225   4.631
 1309SOL    HW2 5767   4.742  14.349   4.546
 1310SOL     OW 5768  11.046  14.744   2.505
 1310SOL    HW1 5769  10.970  14.718   2.557
 1310SOL    HW2 5770  11.121  14.721   2.559
 1311SOL     OW 5771   3.647   5.343   2.454
 1311SOL    HW1 5772   3.581   5.396   2.408
 1311SOL    HW2 5773   3.605   5.258   2.465
 1312SOL     OW 5774   2.927  10.086  12.943
 1312SOL    HW1 5775   2.889  10.012  12.992
 1312SOL    HW2 5776   2.980  10.132  13.007
 1313SOL     OW 5777   7.037   7.016   0.688
 1313SOL    HW1 5778   7.014   7.106   0.664
 1313SOL    HW2 5779   7.132   7.015   0.690
 1314SOL     OW 5780  14.082   4.762  10.714
 1314SOL    HW1 5781  14.158   4.763  10.656
 1314SOL    HW2 5782  14.008   4.743  10.657
 1315SOL     OW 5783   7.393   1.828   4.205
 1315SOL    HW1 5784   7.300   1.839   4.221
 1315SOL    HW2 5785   7.425   1.778   4.280
 1316SOL     OW 5786  11.472   6.827   3.955
 1316SOL    HW1 5787  11.473   6.892   3.884
 1316SOL    HW2 5788  11.443   6.875   4.032
 1317SOL     OW 5789   4.177   8.278   2.273
 1317SOL    HW1 5790   4.187   8.279   2.368
 1317SOL    HW2 5791   4.084   8.297   2.258
 1318SOL     OW 5792   7.313  11.660   6.618
 1318SOL    HW1 5793   7.347  11.583   6.571
 1318SOL    HW2 5794   7.336  11.644   6.710
 1319SOL     OW 5795   7.247  11.911   5.843
 1319SOL    HW1 5796   7.302  11.981   5.808
 1319SOL    HW2 5797   7.269  11.906   5.936
 1320SOL     OW 5798   4.527   9.465  13.181
 1320SOL    HW1 5799   4.489   9.509  13.105
 1320SOL    HW2 5800   4.537   9.535  13.246
 1321SOL     OW 5801   8.569   3.416   1.836
 1321SOL    HW1 5802   8.618   3.436   1.916
 1321SOL    HW2 5803   8.522   3.497   1.816
 1322SOL     OW 5804   0.305  13.023   9.949
 1322SOL    HW1 5805   0.336  13.003   9.861
 1322SOL    HW2 5806   0.222  12.977   9.957
 1323SOL     OW 5807  11.995   2.579  12.544
 1323SOL    HW1 5808  11.903   2.598  12.527
 1323SOL    HW2 5809  12.009   2.606  12.635
 1324SOL     OW 5810  14.567   1.544   9.910
 1324SOL    HW1 5811  14.615   1.531   9.828
 1324SOL    HW2 5812  14.510   1.619   9.892
 1325SOL     OW 5813  13.193  12.246   1.612
 1325SOL    HW1 5814  13.274  12.294   1.629
 1325SOL    HW2 5815  13.221  12.170   1.560
 1326SOL     OW 5816   5.474   9.220  12.030
 1326SOL    HW1 5817   5.439   9.243  12.116
 1326SOL    HW2 5818   5.544   9.284  12.015
 1327SOL     OW 5819   8.863   9.674   6.645
 1327SOL    HW1 5820   8.945   9.718   6.664
 1327SOL    HW2 5821   8.818   9.731   6.583
 1328SOL     OW 5822  10.234   5.029   2.023
 1328SOL    HW1 5823  10.145   5.015   2.055
 1328SOL    HW2 5824  10.223   5.064   1.935
 1329SOL     OW 5825   2.694   0.753  12.347
 1329SOL    HW1 5826   2.625   0.820  12.346
 1329SOL    HW2 5827   2.775   0.801  12.332
 1330SOL     OW 5828  10.048   9.214  13.693
 1330SOL    HW1 5829   9.987   9.234  13.764
 1330SOL    HW2 5830  10.001   9.152  13.638
 1331SOL     OW 5831  10.429   5.613   8.492
 1331SOL    HW1 5832  10.508   5.561   8.483
 1331SOL    HW2 5833  10.359   5.549   8.503
 1332SOL     OW 5834   3.030   6.879  12.587
 1332SOL    HW1 5835   3.014   6.793  12.626
 1332SOL    HW2 5836   2.971   6.938  12.634
 1333SOL     OW 5837   4.889   3.027   9.599
 1333SOL    HW1 5838   4.802   3.060   9.619
 1333SOL    HW2 5839   4.897   3.037   9.504
 1334SOL     OW 5840  10.382   7.471  12.720
 1334SOL    HW1 5841  10.334   7.493  12.640
 1334SOL    HW2 5842  10.384   7.552  12.770
 1335SOL     OW 5843  10.508   1.331   4.754
 1335SOL    HW1 5844  10.462   1.407   4.788
 1335SOL    HW2 5845  10.447   1.258   4.767
 1336SOL     OW 5846   3.770   3.650  11.960
 1336SOL    HW1 5847   3.691   3.705  11.959
 1336SOL    HW2 5848   3.825   3.689  12.028
 1337SOL     OW 5849   7.189  12.047   4.149
 1337SOL    HW1 5850   7.123  12.116   4.155
 1337SOL    HW2 5851   7.153  11.985   4.087
 1338SOL     OW 5852   4.417   5.076  11.484
 1338SOL    HW1 5853   4.500   5.038  11.513
 1338SOL    HW2 5854   4.429   5.092  11.390
 1339SOL     OW 5855   0.048  10.519  13.445
 1339SOL    HW1 5856  14.861  10.543  13.509
 1339SOL    HW2 5857   0.023  10.431  13.416
 1340SOL     OW 5858  13.500   6.642   2.738
 1340SOL    HW1 5859  13.539   6.634   2.651
 1340SOL    HW2 5860  13.406   6.654   2.722
 1341SOL     OW 5861   0.167   6.823   8.456
 1341SOL    HW1 5862   0.123   6.740   8.439
 1341SOL    HW2 5863   0.121   6.860   8.531
 1342SOL     OW 5864   8.704  13.014  13.453
 1342SOL    HW1 5865   8.750  13.060  13.382
 1342SOL    HW2 5866   8.698  13.077  13.524
 1343SOL     OW 5867   2.388   8.637  10.956
 1343SOL    HW1 5868   2.404   8.645  10.862
 1343SOL    HW2 5869   2.341   8.718  10.979
 1344SOL     OW 5870   9.369   6.715  13.626
 1344SOL    HW1 5871   9.462   6.701  13.640
 1344SOL    HW2 5872   9.358   6.810  13.622
 1345SOL     OW 5873   0.644   2.951   6.441
 1345SOL    HW1 5874   0.620   3.039   6.471
 1345SOL    HW2 5875   0.732   2.938   6.477
 1346SOL     OW 5876  12.666  11.765   8.593
 1346SOL    HW1 5877  12.747  11.795   8.551
 1346SOL    HW2 5878  12.695  11.727   8.676
 1347SOL     OW 5879   4.153   9.824   4.898
 1347SOL    HW1 5880   4.095   9.758   4.859
 1347SOL    HW2 5881   4.241   9.797   4.871
 1348SOL     OW 5882   5.670   4.982   1.350
 1348SOL    HW1 5883   5.596   4.922   1.344
 1348SOL    HW2 5884   5.734   4.936   1.404
 1349SOL     OW 5885  12.919   6.283   1.072
 1349SOL    HW1 5886  12.936   6.357   1.015
 1349SOL    HW2 5887  12.975   6.299   1.148
 1350SOL     OW 5888   6.118   5.914   8.818
 1350SOL    HW1 5889   6.082   6.001   8.840
 1350SOL    HW2 5890   6.111   5.909   8.722
 1351SOL     OW 5891   3.508   9.387   5.403
 1351SOL    HW1 5892   3.498   9.406   5.310
 1351SOL    HW2 5893   3.593   9.343   5.410
 1352SOL     OW 5894   9.233  14.440   4.763
 1352SOL    HW1 5895   9.249  14.350   4.733
 1352SOL    HW2 5896   9.167  14.474   4.704
 1353SOL     OW 5897   4.315   7.615   4.864
 1353SOL    HW1 5898   4.403   7.650   4.878
 1353SOL    HW2 5899   4.263   7.690   4.837
 1354SOL     OW 5900   4.575   0.652  14.185
 1354SOL    HW1 5901   4.553   0.640  14.093
 1354SOL    HW2 5902   4.643   0.719  14.185
 1355SOL     OW 5903   5.804  10.940  13.161
 1355SOL    HW1 5904   5.730  10.930  13.221
 1355SOL    HW2 5905   5.882  10.929  13.217
 1356SOL     OW 5906   8.240  12.190   7.644
 1356SOL    HW1 5907   8.255  12.109   7.693
 1356SOL    HW2 5908   8.240  12.163   7.552
 1357SOL     OW 5909  10.214   1.398  14.433
 1357SOL    HW1 5910  10.220   1.489  14.460
 1357SOL    HW2 5911  10.304   1.369  14.424
 1358SOL     OW 5912  11.402   6.484   4.915
 1358SOL    HW1 5913  11.404   6.406   4.971
 1358SOL    HW2 5914  11.467   6.466   4.847
 1359SOL     OW 5915   3.470   7.703   6.324
 1359SOL    HW1 5916   3.399   7.767   6.329
 1359SOL    HW2 5917   3.487   7.680   6.415
 1360SOL     OW 5918   7.087  10.930   1.726
 1360SOL    HW1 5919   7.071  10.905   1.635
 1360SOL    HW2 5920   7.183  10.930   1.733
 1361SOL     OW 5921   7.650  11.487   1.630
 1361SOL    HW1 5922   7.624  11.405   1.673
 1361SOL    HW2 5923   7.741  11.473   1.605
 1362SOL     OW 5924   6.358  13.907   7.191
 1362SOL    HW1 5925   6.323  13.994   7.213
 1362SOL    HW2 5926   6.328  13.851   7.263
 1363SOL     OW 5927  13.928   8.019  12.682
 1363SOL    HW1 5928  13.849   8.000  12.630
 1363SOL    HW2 5929  13.894   8.051  12.766
 1364SOL     OW 5930  12.469  10.146   4.087
 1364SOL    HW1 5931  12.474  10.099   4.003
 1364SOL    HW2 5932  12.496  10.082   4.152
 1365SOL     OW 5933   7.444   6.756   3.148
 1365SOL    HW1 5934   7.450   6.844   3.111
 1365SOL    HW2 5935   7.517   6.708   3.109
 1366SOL     OW 5936   1.017   8.826   9.987
 1366SOL    HW1 5937   1.041   8.779   9.907
 1366SOL    HW2 5938   0.951   8.771  10.028
 1367SOL     OW 5939   9.921   8.432   4.326
 1367SOL    HW1 5940   9.918   8.343   4.361
 1367SOL    HW2 5941   9.835   8.469   4.347
 1368SOL     OW 5942   3.730   5.987   5.001
 1368SOL    HW1 5943   3.724   6.082   4.992
 1368SOL    HW2 5944   3.780   5.974   5.082
 1369SOL     OW 5945   7.216   0.994  10.961
 1369SOL    HW1 5946   7.289   0.938  10.934
 1369SOL    HW2 5947   7.164   0.939  11.019
 1370SOL     OW 5948   3.744   3.175  13.933
 1370SOL    HW1 5949   3.739   3.223  13.851
 1370SOL    HW2 5950   3.797   3.230  13.990
 1371SOL     OW 5951   2.311   2.574   1.309
 1371SOL    HW1 5952   2.338   2.590   1.399
 1371SOL    HW2 5953   2.324   2.480   1.296
 1372SOL     OW 5954   0.943  14.007  14.451
 1372SOL    HW1 5955   0.973  13.966  14.370
 1372SOL    HW2 5956   0.972  14.098  14.445
 1373SOL     OW 5957   8.363  12.515   2.124
 1373SOL    HW1 5958   8.385  12.438   2.176
 1373SOL    HW2 5959   8.347  12.481   2.036
 1374SOL     OW 5960   2.469  11.347  12.830
 1374SOL    HW1 5961   2.559  11.324  12.809
 1374SOL    HW2 5962   2.424  11.349  12.745
 1375SOL     OW 5963   5.600  13.863   5.973
 1375SOL    HW1 5964   5.600  13.913   5.891
 1375SOL    HW2 5965   5.542  13.789   5.955
 1376SOL     OW 5966   5.185  14.252  14.267
 1376SOL    HW1 5967   5.264  14.306  14.273
 1376SOL    HW2 5968   5.113  14.314  14.272
 1377SOL     OW 5969   9.562  11.550   3.806
 1377SOL    HW1 5970   9.513  11.483   3.759
 1377SOL    HW2 5971   9.589  11.613   3.738
 1378SOL     OW 5972  11.263   2.449   2.584
 1378SOL    HW1 5973  11.355   2.475   2.592
 1378SOL    HW2 5974  11.220   2.492   2.658
 1379SOL     OW 5975   1.320   6.227  10.462
 1379SOL    HW1 5976   1.404   6.271  10.447
 1379SOL    HW2 5977   1.254   6.293  10.441
 1380SOL     OW 5978   6.519  13.026   3.330
 1380SOL    HW1 5979   6.454  12.967   3.294
 1380SOL    HW2 5980   6.580  13.042   3.258
 1381SOL     OW 5981   6.343   6.374   8.400
 1381SOL    HW1 5982   6.298   6.377   8.316
 1381SOL    HW2 5983   6.338   6.464   8.433
 1382SOL     OW 5984   7.083   9.036   2.653
 1382SOL    HW1 5985   7.046   8.951   2.678
 1382SOL    HW2 5986   7.031   9.064   2.578
 1383SOL     OW 5987   1.215   1.314   5.517
 1383SOL    HW1 5988   1.155   1.247   5.485
 1383SOL    HW2 5989   1.223   1.297   5.611
 1384SOL     OW 5990   6.408   0.377   6.617
 1384SOL    HW1 5991   6.424   0.285   6.638
 1384SOL    HW2 5992   6.321   0.395   6.652
 1385SOL     OW 5993   1.957   1.402  13.240
 1385SOL    HW1 5994   1.975   1.362  13.155
 1385SOL    HW2 5995   1.960   1.496  13.224
 1386SOL     OW 5996   4.455  13.237   1.795
 1386SOL    HW1 5997   4.393  13.310   1.790
 1386SOL    HW2 5998   4.409  13.169   1.844
 1387SOL     OW 5999   2.238   2.477   1.039
 1387SOL    HW1 6000   2.231   2.522   1.123
 1387SOL    HW2 6001   2.329   2.447   1.035
 1388SOL     OW 6002  10.334   7.145   2.264
 1388SOL    HW1 6003  10.266   7.078   2.263
 1388SOL    HW2 6004  10.412   7.099   2.296
 1389SOL     OW 6005   3.226   4.492  13.475
 1389SOL    HW1 6006   3.252   4.512  13.385
 1389SOL    HW2 6007   3.160   4.558  13.497
 1390SOL     OW 6008   8.766   9.934   5.945
 1390SOL    HW1 6009   8.672   9.920   5.935
 1390SOL    HW2 6010   8.800   9.933   5.856
 1391SOL     OW 6011  11.574   0.001   0.069
 1391SOL    HW1 6012  11.625  14.814   0.116
 1391SOL    HW2 6013  11.629   0.079   0.071
 1392SOL     OW 6014  13.879   6.360  12.574
 1392SOL    HW1 6015  13.927   6.391  12.651
 1392SOL    HW2 6016  13.947   6.323  12.517
 1393SOL     OW 6017  13.866  10.604   8.423
 1393SOL    HW1 6018  13.953  10.564   8.432
 1393SOL    HW2 6019  13.885  10.695   8.399
 1394SOL     OW 6020   2.894   5.901  11.766
 1394SOL    HW1 6021   2.856   5.960  11.701
 1394SOL    HW2 6022   2.819   5.871  11.818
 1395SOL     OW 6023   5.392   0.911   2.792
 1395SOL    HW1 6024   5.434   0.877   2.713
 1395SOL    HW2 6025   5.408   1.005   2.790
 1396SOL     OW 6026   0.515   7.762   6.222
 1396SOL    HW1 6027   0.426   7.732   6.207
 1396SOL    HW2 6028   0.506   7.837   6.281
 1397SOL     OW 6029   2.359  14.098  14.618
 1397SOL    HW1 6030   2.397  14.144  14.543
 1397SOL    HW2 6031   2.265  14.113  14.609
 1398SOL     OW 6032  12.499   6.473  11.169
 1398SOL    HW1 6033  12.590   6.464  11.197
 1398SOL    HW2 6034  12.500   6.550  11.112
 1399SOL     OW 6035   4.789   7.402   9.057
 1399SOL    HW1 6036   4.877   7.422   9.089
 1399SOL    HW2 6037   4.768   7.476   9.000
 1400SOL     OW 6038  14.304   3.950  10.913
 1400SOL    HW1 6039  14.303   3.886  10.841
 1400SOL    HW2 6040  14.249   3.911  10.981
 1401SOL     OW 6041   2.576   9.136   2.592
 1401SOL    HW1 6042   2.487   9.111   2.616
 1401SOL    HW2 6043   2.600   9.075   2.522
 1402SOL     OW 6044  11.743   8.614   4.951
 1402SOL    HW1 6045  11.755   8.567   5.033
 1402SOL    HW2 6046  11.761   8.705   4.973
 1403SOL     OW 6047   9.183   1.783   9.433
 1403SOL    HW1 6048   9.178   1.699   9.388
 1403SOL    HW2 6049   9.108   1.832   9.401
 1404SOL     OW 6050  11.552   8.570   4.189
 1404SOL    HW1 6051  11.606   8.601   4.116
 1404SOL    HW2 6052  11.473   8.536   4.147
 1405SOL     OW 6053   7.550   1.914   7.802
 1405SOL    HW1 6054   7.545   2.009   7.813
 1405SOL    HW2 6055   7.630   1.889   7.848
 1406SOL     OW 6056   3.615  12.980  10.732
 1406SOL    HW1 6057   3.623  12.889  10.702
 1406SOL    HW2 6058   3.703  13.005  10.758
 1407SOL     OW 6059   9.228  13.314   9.798
 1407SOL    HW1 6060   9.277  13.386   9.758
 1407SOL    HW2 6061   9.277  13.293   9.878
 1408SOL     OW 6062   3.622   6.104  11.712
 1408SOL    HW1 6063   3.660   6.020  11.737
 1408SOL    HW2 6064   3.696   6.164  11.708
 1409SOL     OW 6065  10.777   3.387   7.368
 1409SOL    HW1 6066  10.864   3.395   7.329
 1409SOL    HW2 6067  10.723   3.449   7.319
 1410SOL     OW 6068  13.667   8.335   8.429
 1410SOL    HW1 6069  13.596   8.384   8.388
 1410SOL    HW2 6070  13.747   8.377   8.397
 1411SOL     OW 6071   9.132   6.372   6.915
 1411SOL    HW1 6072   9.159   6.322   6.838
 1411SOL    HW2 6073   9.154   6.316   6.989
 1412SOL     OW 6074   4.228   8.136   6.747
 1412SOL    HW1 6075   4.320   8.127   6.772
 1412SOL    HW2 6076   4.180   8.128   6.829
 1413SOL     OW 6077   1.674   9.133  12.985
 1413SOL    HW1 6078   1.710   9.133  12.896
 1413SOL    HW2 6079   1.749   9.155  13.041
 1414SOL     OW 6080   2.212   8.620  11.817
 1414SOL    HW1 6081   2.202   8.697  11.873
 1414SOL    HW2 6082   2.127   8.610  11.774
 1415SOL     OW 6083  12.770   7.315   7.264
 1415SOL    HW1 6084  12.735   7.354   7.184
 1415SOL    HW2 6085  12.813   7.235   7.236
 1416SOL     OW 6086  13.472   6.186   9.227
 1416SOL    HW1 6087  13.441   6.255   9.285
 1416SOL    HW2 6088  13.392   6.145   9.194
 1417SOL     OW 6089  12.823   8.907  14.114
 1417SOL    HW1 6090  12.901   8.862  14.148
 1417SOL    HW2 6091  12.809   8.979  14.175
 1418SOL     OW 6092   7.976   8.605  10.623
 1418SOL    HW1 6093   7.938   8.523  10.657
 1418SOL    HW2 6094   7.914   8.634  10.556
 1419SOL     OW 6095  13.601   6.709   5.301
 1419SOL    HW1 6096  13.695   6.690   5.310
 1419SOL    HW2 6097  13.588   6.715   5.206
 1420SOL     OW 6098   1.861  12.685   8.529
 1420SOL    HW1 6099   1.804  12.722   8.596
 1420SOL    HW2 6100   1.912  12.618   8.574
 1421SOL     OW 6101  13.535   0.436  10.928
 1421SOL    HW1 6102  13.545   0.467  10.838
 1421SOL    HW2 6103  13.462   0.488  10.963
 1422SOL     OW 6104   7.539   6.298  10.658
 1422SOL    HW1 6105   7.566   6.220  10.610
 1422SOL    HW2 6106   7.460   6.328  10.614
 1423SOL     OW 6107   5.592  11.866  14.280
 1423SOL    HW1 6108   5.645  11.940  14.249
 1423SOL    HW2 6109   5.657  11.801  14.307
 1424SOL     OW 6110   4.765   9.726   1.394
 1424SOL    HW1 6111   4.828   9.757   1.459
 1424SOL    HW2 6112   4.750   9.634   1.418
 1425SOL     OW 6113   5.728   3.357  11.009
 1425SOL    HW1 6114   5.754   3.271  11.044
 1425SOL    HW2 6115   5.789   3.374  10.937
 1426SOL     OW 6116   3.084  14.072   3.364
 1426SOL    HW1 6117   3.077  14.063   3.459
 1426SOL    HW2 6118   3.068  14.165   3.347
 1427SOL     OW 6119   5.526   4.845   0.634
 1427SOL    HW1 6120   5.612   4.855   0.676
 1427SOL    HW2 6121   5.492   4.934   0.629
 1428SOL     OW 6122   8.554   6.730   5.138
 1428SOL    HW1 6123   8.465   6.765   5.145
 1428SOL    HW2 6124   8.609   6.807   5.129
 1429SOL     OW 6125   2.439   4.013   4.552
 1429SOL    HW1 6126   2.365   3.958   4.525
 1429SOL    HW2 6127   2.410   4.055   4.633
 1430SOL     OW 6128  14.288  14.088   7.534
 1430SOL    HW1 6129  14.289  14.050   7.446
 1430SOL    HW2 6130  14.279  14.182   7.519
 1431SOL     OW 6131  11.219   0.149   3.930
 1431SOL    HW1 6132  11.289   0.196   3.975
 1431SOL    HW2 6133  11.202   0.199   3.851
 1432SOL     OW 6134  11.225   8.908   0.709
 1432SOL    HW1 6135  11.287   8.954   0.651
 1432SOL    HW2 6136  11.146   8.963   0.707
 1433SOL     OW 6137   5.547   5.141   9.812
 1433SOL    HW1 6138   5.634   5.159   9.777
 1433SOL    HW2 6139   5.521   5.222   9.854
 1434SOL     OW 6140   1.221   1.009   1.236
 1434SOL    HW1 6141   1.159   0.941   1.210
 1434SOL    HW2 6142   1.304   0.983   1.195
 1435SOL     OW 6143   7.089   1.363  14.173
 1435SOL    HW1 6144   7.154   1.432  14.189
 1435SOL    HW2 6145   7.121   1.287  14.221
 1436SOL     OW 6146  14.698   8.757  11.310
 1436SOL    HW1 6147  14.727   8.848  11.320
 1436SOL    HW2 6148  14.739   8.728  11.228
 1437SOL     OW 6149  13.487  12.202  12.602
 1437SOL    HW1 6150  13.401  12.239  12.623
 1437SOL    HW2 6151  13.533  12.200  12.686
 1438SOL     OW 6152  13.133   0.579  11.436
 1438SOL    HW1 6153  13.068   0.512  11.454
 1438SOL    HW2 6154  13.114   0.649  11.499
 1439SOL     OW 6155  11.563  14.544   8.460
 1439SOL    HW1 6156  11.503  14.560   8.387
 1439SOL    HW2 6157  11.637  14.498   8.421
 1440SOL     OW 6158   3.896  11.528   6.997
 1440SOL    HW1 6159   3.846  11.503   6.920
 1440SOL    HW2 6160   3.898  11.624   6.995
 1441SOL     OW 6161   1.978  12.878   3.742
 1441SOL    HW1 6162   1.894  12.832   3.736
 1441SOL    HW2 6163   2.003  12.868   3.834
 1442SOL     OW 6164   8.132  10.773   8.813
 1442SOL    HW1 6165   8.217  10.751   8.850
 1442SOL    HW2 6166   8.117  10.710   8.743
 1443SOL     OW 6167   4.632   7.516   8.718
 1443SOL    HW1 6168   4.561   7.537   8.657
 1443SOL    HW2 6169   4.604   7.554   8.801
 1444SOL     OW 6170  10.728  12.195   0.890
 1444SOL    HW1 6171  10.746  12.131   0.820
 1444SOL    HW2 6172  10.635  12.184   0.908
 1445SOL     OW 6173  11.710   2.117   3.343
 1445SOL    HW1 6174  11.713   2.191   3.404
 1445SOL    HW2 6175  11.756   2.149   3.265
 1446SOL     OW 6176   7.834   4.495   5.969
 1446SOL    HW1 6177   7.818   4.564   6.034
 1446SOL    HW2 6178   7.875   4.424   6.019
 1447SOL     OW 6179   9.356   1.204   4.123
 1447SOL    HW1 6180   9.282   1.159   4.082
 1447SOL    HW2 6181   9.416   1.222   4.051
 1448SOL     OW 6182   3.257  12.862   6.255
 1448SOL    HW1 6183   3.204  12.782   6.254
 1448SOL    HW2 6184   3.280  12.877   6.163
 1449SOL     OW 6185  10.535  10.422   4.817
 1449SOL    HW1 6186  10.458  10.476   4.798
 1449SOL    HW2 6187  10.606  10.485   4.830
 1450SOL     OW 6188   7.409   1.949  13.267
 1450SOL    HW1 6189   7.438   2.008  13.337
 1450SOL    HW2 6190   7.345   2.000  13.217
 1451SOL     OW 6191  10.833  10.318   8.427
 1451SOL    HW1 6192  10.797  10.364   8.503
 1451SOL    HW2 6193  10.757  10.298   8.372
 1452SOL     OW 6194  12.804   2.487  10.357
 1452SOL    HW1 6195  12.780   2.394  10.362
 1452SOL    HW2 6196  12.777   2.522  10.442
 1453SOL     OW 6197   9.433   1.978   3.443
 1453SOL    HW1 6198   9.521   1.945   3.424
 1453SOL    HW2 6199   9.434   1.996   3.537
 1454SOL     OW 6200   2.708   0.104  12.665
 1454SOL    HW1 6201   2.635   0.162  12.644
 1454SOL    HW2 6202   2.695   0.027  12.610
 1455SOL     OW 6203   5.053   4.519   4.397
 1455SOL    HW1 6204   5.122   4.475   4.349
 1455SOL    HW2 6205   5.095   4.547   4.479
 1456SOL     OW 6206   2.001   7.699   0.374
 1456SOL    HW1 6207   1.926   7.672   0.321
 1456SOL    HW2 6208   1.967   7.769   0.430
 1457SOL     OW 6209   3.708  12.031   0.225
 1457SOL    HW1 6210   3.694  12.081   0.145
 1457SOL    HW2 6211   3.680  12.090   0.295
 1458SOL     OW 6212   6.874  13.817   6.285
 1458SOL    HW1 6213   6.921  13.757   6.228
 1458SOL    HW2 6214   6.820  13.760   6.340
 1459SOL     OW 6215  10.491  12.227  14.321
 1459SOL    HW1 6216  10.453  12.191  14.241
 1459SOL    HW2 6217  10.543  12.302  14.291
 1460SOL     OW 6218  10.137   4.840  10.995
 1460SOL    HW1 6219  10.199   4.767  10.991
 1460SOL    HW2 6220  10.190   4.917  10.974
 1461SOL     OW 6221  13.885   6.268   1.383
 1461SOL    HW1 6222  13.857   6.276   1.292
 1461SOL    HW2 6223  13.803   6.255   1.432
 1462SOL     OW 6224   4.797   8.058  11.699
 1462SOL    HW1 6225   4.802   7.969  11.735
 1462SOL    HW2 6226   4.879   8.070  11.652
 1463SOL     OW 6227   1.596   2.913   6.081
 1463SOL    HW1 6228   1.682   2.883   6.110
 1463SOL    HW2 6229   1.609   3.004   6.056
 1464SOL     OW 6230  10.651   4.513   0.835
 1464SOL    HW1 6231  10.641   4.481   0.925
 1464SOL    HW2 6232  10.671   4.606   0.845
 1465SOL     OW 6233   1.720   0.232  14.852
 1465SOL    HW1 6234   1.632   0.265  14.865
 1465SOL    HW2 6235   1.776   0.309  14.858
 1466SOL     OW 6236  10.789   9.556   6.781
 1466SOL    HW1 6237  10.723   9.555   6.711
 1466SOL    HW2 6238  10.742   9.526   6.859
 1467SOL     OW 6239  13.855   7.575   0.102
 1467SOL    HW1 6240  13.768   7.616   0.104
 1467SOL    HW2 6241  13.875   7.567   0.008
 1468SOL     OW 6242  12.410   3.632   5.077
 1468SOL    HW1 6243  12.333   3.676   5.112
 1468SOL    HW2 6244  12.436   3.570   5.145
 1469SOL     OW 6245   2.581   7.504   2.302
 1469SOL    HW1 6246   2.622   7.581   2.342
 1469SOL    HW2 6247   2.599   7.513   2.209
 1470SOL     OW 6248  10.356   4.890   3.082
 1470SOL    HW1 6249  10.387   4.928   3.165
 1470SOL    HW2 6250  10.261   4.904   3.084
 1471SOL     OW 6251   9.335   9.537   9.674
 1471SOL    HW1 6252   9.316   9.523   9.767
 1471SOL    HW2 6253   9.426   9.510   9.664
 1472SOL     OW 6254   5.820   0.371   7.309
 1472SOL    HW1 6255   5.862   0.286   7.296
 1472SOL    HW2 6256   5.878   0.433   7.265
 1473SOL     OW 6257   5.876   5.794   9.131
 1473SOL    HW1 6258   5.874   5.889   9.142
 1473SOL    HW2 6259   5.909   5.781   9.042
 1474SOL     OW 6260   6.064  12.448   1.831
 1474SOL    HW1 6261   6.090  12.356   1.840
 1474SOL    HW2 6262   6.045  12.477   1.920
 1475SOL     OW 6263   7.016   9.685   2.845
 1475SOL    HW1 6264   6.968   9.687   2.762
 1475SOL    HW2 6265   7.044   9.776   2.858
 1476SOL     OW 6266  11.630  13.648  14.033
 1476SOL    HW1 6267  11.671  13.562  14.038
 1476SOL    HW2 6268  11.659  13.693  14.112
 1477SOL     OW 6269   0.601  11.795  14.239
 1477SOL    HW1 6270   0.609  11.699  14.231
 1477SOL    HW2 6271   0.690  11.827  14.226
 1478SOL     OW 6272   6.141  13.677   1.130
 1478SOL    HW1 6273   6.189  13.636   1.202
 1478SOL    HW2 6274   6.135  13.769   1.155
 1479SOL     OW 6275   9.552  14.197   5.146
 1479SOL    HW1 6276   9.583  14.247   5.071
 1479SOL    HW2 6277   9.463  14.227   5.160
 1480SOL     OW 6278   4.058   3.862   3.010
 1480SOL    HW1 6279   4.008   3.784   3.033
 1480SOL    HW2 6280   4.073   3.906   3.094
 1481SOL     OW 6281   6.834  14.262   4.146
 1481SOL    HW1 6282   6.896  14.323   4.187
 1481SOL    HW2 6283   6.780  14.230   4.218
 1482SOL     OW 6284   5.809  11.714   0.080
 1482SOL    HW1 6285   5.770  11.635   0.042
 1482SOL    HW2 6286   5.805  11.700   0.174
 1483SOL     OW 6287  12.365  12.959  10.437
 1483SOL    HW1 6288  12.322  12.910  10.508
 1483SOL    HW2 6289  12.376  13.047  10.472
 1484SOL     OW 6290   2.137   2.840  14.758
 1484SOL    HW1 6291   2.169   2.785  14.830
 1484SOL    HW2 6292   2.216   2.882  14.723
 1485SOL     OW 6293  14.441  11.370   9.633
 1485SOL    HW1 6294  14.473  11.448   9.679
 1485SOL    HW2 6295  14.516  11.311   9.633
 1486SOL     OW 6296   8.903   7.121   1.945
 1486SOL    HW1 6297   8.890   7.193   2.008
 1486SOL    HW2 6298   8.818   7.078   1.941
 1487SOL     OW 6299   8.860   5.018  11.891
 1487SOL    HW1 6300   8.902   4.969  11.820
 1487SOL    HW2 6301   8.867   4.960  11.967
 1488SOL     OW 6302  12.908  13.980   3.269
 1488SOL    HW1 6303  12.875  13.988   3.179
 1488SOL    HW2 6304  12.837  13.938   3.317
 1489SOL     OW 6305  10.042   1.492   3.652
 1489SOL    HW1 6306  10.070   1.476   3.562
 1489SOL    HW2 6307  10.123   1.500   3.702
 1490SOL     OW 6308  12.146   0.550   0.605
 1490SOL    HW1 6309  12.051   0.545   0.617
 1490SOL    HW2 6310  12.170   0.464   0.571
 1491SOL     OW 6311   8.760  12.638   2.540
 1491SOL    HW1 6312   8.694  12.608   2.603
 1491SOL    HW2 6313   8.828  12.678   2.594
 1492SOL     OW 6314   2.644   9.948  14.463
 1492SOL    HW1 6315   2.610   9.926  14.376
 1492SOL    HW2 6316   2.687  10.033  14.451
 1493SOL     OW 6317  10.589   6.418   0.446
 1493SOL    HW1 6318  10.557   6.427   0.356
 1493SOL    HW2 6319  10.513   6.438   0.501
 1494SOL     OW 6320   6.013  12.542   2.071
 1494SOL    HW1 6321   5.920  12.519   2.071
 1494SOL    HW2 6322   6.043  12.520   2.160
 1495SOL     OW 6323  11.904   7.478   4.107
 1495SOL    HW1 6324  11.827   7.533   4.096
 1495SOL    HW2 6325  11.886   7.426   4.185
 1496SOL     OW 6326   3.461   6.437   7.701
 1496SOL    HW1 6327   3.467   6.383   7.622
 1496SOL    HW2 6328   3.459   6.527   7.667
 1497SOL     OW 6329   6.469   4.975   2.012
 1497SOL    HW1 6330   6.467   4.880   2.002
 1497SOL    HW2 6331   6.547   5.003   1.962
 1498SOL     OW 6332   6.619   2.361   8.457
 1498SOL    HW1 6333   6.664   2.359   8.372
 1498SOL    HW2 6334   6.594   2.270   8.472
 1499SOL     OW 6335   8.394  13.532   5.699
 1499SOL    HW1 6336   8.452  13.458   5.683
 1499SOL    HW2 6337   8.324  13.522   5.635
 1500SOL     OW 6338  14.148  12.218   0.611
 1500SOL    HW1 6339  14.234  12.202   0.572
 1500SOL    HW2 6340  14.162  12.206   0.705
 1501SOL     OW 6341   1.790   6.828  12.539
 1501SOL    HW1 6342   1.795   6.785  12.624
 1501SOL    HW2 6343   1.875   6.871  12.529
 1502SOL     OW 6344   4.606   8.515   4.185
 1502SOL    HW1 6345   4.516   8.548   4.183
 1502SOL    HW2 6346   4.614   8.465   4.104
 1503SOL     OW 6347   5.875   6.596   5.159
 1503SOL    HW1 6348   5.848   6.509   5.188
 1503SOL    HW2 6349   5.844   6.655   5.227
 1504SOL     OW 6350   5.998   1.204  12.454
 1504SOL    HW1 6351   5.935   1.269  12.422
 1504SOL    HW2 6352   6.051   1.183  12.378
 1505SOL     OW 6353  10.045   9.681   7.499
 1505SOL    HW1 6354  10.024   9.602   7.549
 1505SOL    HW2 6355  10.002   9.752   7.547
 1506SOL     OW 6356   4.345   5.024   1.449
 1506SOL    HW1 6357   4.322   5.085   1.520
 1506SOL    HW2 6358   4.273   5.031   1.387
 1507SOL     OW 6359   1.839   9.983   4.557
 1507SOL    HW1 6360   1.935   9.977   4.554
 1507SOL    HW2 6361   1.814  10.012   4.469
 1508SOL     OW 6362   6.621   5.130   0.265
 1508SOL    HW1 6363   6.701   5.119   0.317
 1508SOL    HW2 6364   6.591   5.041   0.248
 1509SOL     OW 6365   5.611   5.821  12.860
 1509SOL    HW1 6366   5.600   5.874  12.781
 1509SOL    HW2 6367   5.636   5.885  12.927
 1510SOL     OW 6368   0.040   4.588  13.568
 1510SOL    HW1 6369   0.066   4.644  13.494
 1510SOL    HW2 6370  14.833   4.555  13.543
 1511SOL     OW 6371  11.924  13.474   1.661
 1511SOL    HW1 6372  12.019  13.485   1.672
 1511SOL    HW2 6373  11.899  13.547   1.603
 1512SOL     OW 6374  14.800   7.897   3.120
 1512SOL    HW1 6375  14.873   7.939   3.167
 1512SOL    HW2 6376  14.820   7.803   3.124
 1513SOL     OW 6377   3.698  12.058   5.103
 1513SOL    HW1 6378   3.665  12.102   5.181
 1513SOL    HW2 6379   3.792  12.052   5.116
 1514SOL     OW 6380  11.050  12.107  10.026
 1514SOL    HW1 6381  11.059  12.111   9.931
 1514SOL    HW2 6382  11.087  12.021  10.050
 1515SOL     OW 6383  11.966  10.340   6.855
 1515SOL    HW1 6384  12.003  10.293   6.930
 1515SOL    HW2 6385  11.910  10.407   6.894
 1516SOL     OW 6386   6.181   6.309   8.168
 1516SOL    HW1 6387   6.098   6.276   8.134
 1516SOL    HW2 6388   6.242   6.300   8.095
 1517SOL     OW 6389   1.734  10.385   6.356
 1517SOL    HW1 6390   1.741  10.313   6.419
 1517SOL    HW2 6391   1.770  10.461   6.402
 1518SOL     OW 6392   7.792   0.697   1.953
 1518SOL    HW1 6393   7.795   0.660   2.041
 1518SOL    HW2 6394   7.870   0.662   1.909
 1519SOL     OW 6395   4.791   9.333  14.480
 1519SOL    HW1 6396   4.765   9.383  14.557
 1519SOL    HW2 6397   4.738   9.253  14.484
 1520SOL     OW 6398   6.952   9.677  14.236
 1520SOL    HW1 6399   6.980   9.647  14.149
 1520SOL    HW2 6400   7.026   9.658  14.293
 1521SOL     OW 6401   9.076   7.323  11.024
 1521SOL    HW1 6402   9.109   7.322  10.934
 1521SOL    HW2 6403   9.082   7.232  11.052
 1522SOL     OW 6404  13.364   3.758  13.155
 1522SOL    HW1 6405  13.272   3.737  13.136
 1522SOL    HW2 6406  13.405   3.765  13.069
 1523SOL     OW 6407  12.719   8.516   1.496
 1523SOL    HW1 6408  12.733   8.429   1.459
 1523SOL    HW2 6409  12.654   8.503   1.565
 1524SOL     OW 6410   0.407   0.620  11.051
 1524SOL    HW1 6411   0.356   0.670  10.987
 1524SOL    HW2 6412   0.405   0.530  11.018
 1525SOL     OW 6413   0.591  12.064   5.741
 1525SOL    HW1 6414   0.512  12.011   5.751
 1525SOL    HW2 6415   0.579  12.110   5.658
 1526SOL     OW 6416   6.936   4.228  10.473
 1526SOL    HW1 6417   6.987   4.150  10.497
 1526SOL    HW2 6418   6.971   4.298  10.529
 1527SOL     OW 6419  14.186   7.506   8.793
 1527SOL    HW1 6420  14.197   7.431   8.852
 1527SOL    HW2 6421  14.099   7.539   8.813
 1528SOL     OW 6422   4.562   4.545  13.940
 1528SOL    HW1 6423   4.488   4.484  13.938
 1528SOL    HW2 6424   4.540   4.606  14.010
 1529SOL     OW 6425   7.300   7.939   9.900
 1529SOL    HW1 6426   7.370   8.001   9.922
 1529SOL    HW2 6427   7.219   7.988   9.914
 1530SOL     OW 6428  14.678  14.032  11.499
 1530SOL    HW1 6429  14.640  13.995  11.420
 1530SOL    HW2 6430  14.737  13.964  11.532
 1531SOL     OW 6431   5.255  10.074  12.552
 1531SOL    HW1 6432   5.163  10.056  12.533
 1531SOL    HW2 6433   5.276  10.017  12.626
 1532SOL     OW 6434   8.480   1.683  11.013
 1532SOL    HW1 6435   8.412   1.627  11.050
 1532SOL    HW2 6436   8.523   1.627  10.948
 1533SOL     OW 6437   9.464   9.707   7.857
 1533SOL    HW1 6438   9.426   9.630   7.815
 1533SOL    HW2 6439   9.388   9.757   7.888
 1534SOL     OW 6440   4.176   5.415   8.686
 1534SOL    HW1 6441   4.164   5.505   8.717
 1534SOL    HW2 6442   4.093   5.371   8.707
 1535SOL     OW 6443   9.734  11.598  14.237
 1535SOL    HW1 6444   9.735  11.546  14.157
 1535SOL    HW2 6445   9.700  11.684  14.210
 1536SOL     OW 6446   2.996   9.707  12.154
 1536SOL    HW1 6447   2.926   9.756  12.111
 1536SOL    HW2 6448   2.969   9.615  12.147
 1537SOL     OW 6449   1.673  10.243   1.192
 1537SOL    HW1 6450   1.714  10.195   1.120
 1537SOL    HW2 6451   1.593  10.279   1.155
 1538SOL     OW 6452   3.524   2.941   6.067
 1538SOL    HW1 6453   3.484   3.001   6.005
 1538SOL    HW2 6454   3.477   2.955   6.149
 1539SOL     OW 6455  14.855   3.799   4.237
 1539SOL    HW1 6456  14.796   3.724   4.248
 1539SOL    HW2 6457   0.046   3.784   4.300
 1540SOL     OW 6458  14.367   7.081  12.278
 1540SOL    HW1 6459  14.284   7.123  12.257
 1540SOL    HW2 6460  14.424   7.153  12.304
 1541SOL     OW 6461   9.335   8.157  11.946
 1541SOL    HW1 6462   9.321   8.226  11.881
 1541SOL    HW2 6463   9.412   8.185  11.994
 1542SOL     OW 6464   4.459   3.489   8.252
 1542SOL    HW1 6465   4.462   3.503   8.347
 1542SOL    HW2 6466   4.515   3.557   8.216
 1543SOL     OW 6467  12.988   4.623   8.442
 1543SOL    HW1 6468  12.948   4.583   8.364
 1543SOL    HW2 6469  13.040   4.696   8.408
 1544SOL     OW 6470  13.346   9.872   8.245
 1544SOL    HW1 6471  13.377   9.811   8.312
 1544SOL    HW2 6472  13.250   9.863   8.247
 1545SOL     OW 6473  13.015  14.229  10.451
 1545SOL    HW1 6474  12.939  14.227  10.393
 1545SOL    HW2 6475  13.052  14.141  10.445
 1546SOL     OW 6476   4.861   1.155  11.348
 1546SOL    HW1 6477   4.954   1.148  11.369
 1546SOL    HW2 6478   4.855   1.230  11.289
 1547SOL     OW 6479   8.816   8.934   4.811
 1547SOL    HW1 6480   8.765   8.903   4.736
 1547SOL    HW2 6481   8.902   8.894   4.800
 1548SOL     OW 6482   6.809   1.629  10.364
 1548SOL    HW1 6483   6.754   1.581  10.426
 1548SOL    HW2 6484   6.878   1.567  10.339
 1549SOL     OW 6485  12.723   4.857  10.444
 1549SOL    HW1 6486  12.698   4.901  10.364
 1549SOL    HW2 6487  12.646   4.807  10.469
 1550SOL     OW 6488  12.395   3.864   9.406
 1550SOL    HW1 6489  12.487   3.839   9.411
 1550SOL    HW2 6490  12.357   3.801   9.345
 1551SOL     OW 6491  13.136  12.415   0.734
 1551SOL    HW1 6492  13.224  12.392   0.703
 1551SOL    HW2 6493  13.116  12.349   0.800
 1552SOL     OW 6494   0.482  10.139   1.321
 1552SOL    HW1 6495   0.462  10.101   1.407
 1552SOL    HW2 6496   0.427  10.090   1.260
 1553SOL     OW 6497  12.037   8.889  10.224
 1553SOL    HW1 6498  11.943   8.885  10.203
 1553SOL    HW2 6499  12.067   8.799  10.213
 1554SOL     OW 6500  10.189   3.871   9.199
 1554SOL    HW1 6501  10.195   3.862   9.294
 1554SOL    HW2 6502  10.133   3.947   9.185
 1555SOL     OW 6503   4.295   7.507  12.577
 1555SOL    HW1 6504   4.272   7.428  12.627
 1555SOL    HW2 6505   4.215   7.558  12.574
 1556SOL     OW 6506   2.215  13.362  14.491
 1556SOL    HW1 6507   2.188  13.440  14.540
 1556SOL    HW2 6508   2.239  13.299  14.559
 1557SOL     OW 6509  10.981   2.432   8.697
 1557SOL    HW1 6510  10.954   2.416   8.787
 1557SOL    HW2 6511  11.064   2.479   8.704
 1558SOL     OW 6512   2.977  11.732   2.988
 1558SOL    HW1 6513   3.042  11.750   2.920
 1558SOL    HW2 6514   2.894  11.725   2.940
 1559SOL     OW 6515   7.642  13.828   0.992
 1559SOL    HW1 6516   7.628  13.863   1.080
 1559SOL    HW2 6517   7.555  13.829   0.952
 1560SOL     OW 6518   6.939  11.166   3.506
 1560SOL    HW1 6519   6.904  11.225   3.438
 1560SOL    HW2 6520   6.862  11.135   3.553
 1561SOL     OW 6521   3.147   7.376   4.710
 1561SOL    HW1 6522   3.093   7.409   4.639
 1561SOL    HW2 6523   3.095   7.390   4.789
 1562SOL     OW 6524   6.543   3.892   7.277
 1562SOL    HW1 6525   6.486   3.947   7.224
 1562SOL    HW2 6526   6.627   3.895   7.231
 1563SOL     OW 6527  10.901   8.081   5.235
 1563SOL    HW1 6528  10.886   8.023   5.160
 1563SOL    HW2 6529  10.856   8.040   5.308
 1564SOL     OW 6530   1.119  14.847   0.112
 1564SOL    HW1 6531   1.159  14.804   0.188
 1564SOL    HW2 6532   1.177  14.826   0.039
 1565SOL     OW 6533   7.637  11.894  13.081
 1565SOL    HW1 6534   7.572  11.895  13.151
 1565SOL    HW2 6535   7.639  11.803  13.051
 1566SOL     OW 6536   9.122  14.043   0.525
 1566SOL    HW1 6537   9.091  14.051   0.616
 1566SOL    HW2 6538   9.197  13.984   0.530
 1567SOL     OW 6539  13.965   9.845  13.223
 1567SOL    HW1 6540  13.899   9.817  13.160
 1567SOL    HW2 6541  13.919   9.904  13.282
 1568SOL     OW 6542   8.216   0.464   5.960
 1568SOL    HW1 6543   8.260   0.470   5.875
 1568SOL    HW2 6544   8.219   0.554   5.995
 1569SOL     OW 6545  12.182  10.404  10.600
 1569SOL    HW1 6546  12.102  10.354  10.615
 1569SOL    HW2 6547  12.152  10.488  10.567
 1570SOL     OW 6548   5.472   4.566  11.311
 1570SOL    HW1 6549   5.534   4.633  11.283
 1570SOL    HW2 6550   5.526   4.499  11.355
 1571SOL     OW 6551   0.336   1.763  10.874
 1571SOL    HW1 6552   0.334   1.745  10.968
 1571SOL    HW2 6553   0.334   1.859  10.868
 1572SOL     OW 6554  12.919  13.288  11.209
 1572SOL    HW1 6555  12.934  13.208  11.259
 1572SOL    HW2 6556  12.856  13.338  11.263
 1573SOL     OW 6557   6.837   8.514  12.135
 1573SOL    HW1 6558   6.881   8.594  12.108
 1573SOL    HW2 6559   6.847   8.455  12.060
 1574SOL     OW 6560   8.241   7.125   9.072
 1574SOL    HW1 6561   8.284   7.062   9.014
 1574SOL    HW2 6562   8.159   7.082   9.097
 1575SOL     OW 6563  14.625  13.550  10.696
 1575SOL    HW1 6564  14.608  13.469  10.648
 1575SOL    HW2 6565  14.543  13.599  10.689
 1576SOL     OW 6566   2.320   8.546  11.444
 1576SOL    HW1 6567   2.327   8.456  11.477
 1576SOL    HW2 6568   2.231   8.573  11.467
 1577SOL     OW 6569   7.286   3.390  12.587
 1577SOL    HW1 6570   7.268   3.453  12.517
 1577SOL    HW2 6571   7.316   3.443  12.661
 1578SOL     OW 6572   9.711   0.583  14.039
 1578SOL    HW1 6573   9.715   0.496  14.001
 1578SOL    HW2 6574   9.619   0.595  14.062
 1579SOL     OW 6575   8.366  12.300   4.364
 1579SOL    HW1 6576   8.430  12.279   4.295
 1579SOL    HW2 6577   8.403  12.261   4.443
 1580SOL     OW 6578   2.807   6.584   8.211
 1580SOL    HW1 6579   2.859   6.567   8.133
 1580SOL    HW2 6580   2.797   6.499   8.253
 1581SOL     OW 6581   9.411   7.937   3.859
 1581SOL    HW1 6582   9.394   8.030   3.845
 1581SOL    HW2 6583   9.487   7.918   3.805
 1582SOL     OW 6584   3.412   5.052   0.440
 1582SOL    HW1 6585   3.470   4.977   0.454
 1582SOL    HW2 6586   3.324   5.018   0.456
 1583SOL     OW 6587  14.352  12.170   7.773
 1583SOL    HW1 6588  14.339  12.095   7.715
 1583SOL    HW2 6589  14.398  12.135   7.849
 1584SOL     OW 6590   9.985   8.181  13.686
 1584SOL    HW1 6591  10.078   8.156  13.686
 1584SOL    HW2 6592   9.938   8.098  13.679
 1585SOL     OW 6593   5.077   3.407  12.164
 1585SOL    HW1 6594   5.105   3.373  12.249
 1585SOL    HW2 6595   5.134   3.362  12.101
 1586SOL     OW 6596  10.488  11.687   9.572
 1586SOL    HW1 6597  10.474  11.602   9.614
 1586SOL    HW2 6598  10.450  11.751   9.633
 1587SOL     OW 6599   8.503  10.419  13.435
 1587SOL    HW1 6600   8.557  10.495  13.459
 1587SOL    HW2 6601   8.546  10.383  13.357
 1588SOL     OW 6602   9.720   1.332  13.300
 1588SOL    HW1 6603   9.720   1.333  13.395
 1588SOL    HW2 6604   9.769   1.253  13.276
 1589SOL     OW 6605  10.419   8.872   6.896
 1589SOL    HW1 6606  10.508   8.838   6.887
 1589SOL    HW2 6607  10.363   8.796   6.887
 1590SOL     OW 6608   8.679   7.731  13.770
 1590SOL    HW1 6609   8.726   7.810  13.742
 1590SOL    HW2 6610   8.636   7.699  13.691
 1591SOL     OW 6611  10.722  10.532   8.201
 1591SOL    HW1 6612  10.697  10.473   8.272
 1591SOL    HW2 6613  10.799  10.577   8.234
 1592SOL     OW 6614  13.555  12.731   9.438
 1592SOL    HW1 6615  13.475  12.699   9.480
 1592SOL    HW2 6616  13.525  12.780   9.362
 1593SOL     OW 6617   2.516  13.871  12.548
 1593SOL    HW1 6618   2.461  13.949  12.557
 1593SOL    HW2 6619   2.455  13.800  12.530
 1594SOL     OW 6620   9.035  14.450   4.538
 1594SOL    HW1 6621   9.124  14.430   4.511
 1594SOL    HW2 6622   8.981  14.428   4.462
 1595SOL     OW 6623   5.681   7.326   3.210
 1595SOL    HW1 6624   5.770   7.298   3.231
 1595SOL    HW2 6625   5.687   7.358   3.120
 1596SOL     OW 6626  13.930   2.331  14.800
 1596SOL    HW1 6627  13.834   2.332  14.796
 1596SOL    HW2 6628  13.951   2.253  14.850
 1597SOL     OW 6629   6.103  11.859   4.617
 1597SOL    HW1 6630   6.016  11.876   4.652
 1597SOL    HW2 6631   6.154  11.828   4.692
 1598SOL     OW 6632   9.805   5.726  13.347
 1598SOL    HW1 6633   9.815   5.776  13.428
 1598SOL    HW2 6634   9.833   5.786  13.278
 1599SOL     OW 6635  13.304  10.757   1.718
 1599SOL    HW1 6636  13.228  10.751   1.660
 1599SOL    HW2 6637  13.291  10.686   1.781
 1600SOL     OW 6638   4.681   0.645   5.986
 1600SOL    HW1 6639   4.719   0.629   5.899
 1600SOL    HW2 6640   4.611   0.580   5.994
 1601SOL     OW 6641   3.882  11.327   7.826
 1601SOL    HW1 6642   3.937  11.320   7.904
 1601SOL    HW2 6643   3.936  11.377   7.764
 1602SOL     OW 6644  12.040   0.367   1.437
 1602SOL    HW1 6645  12.123   0.327   1.414
 1602SOL    HW2 6646  12.043   0.454   1.399
 1603SOL     OW 6647   9.018   1.475   9.011
 1603SOL    HW1 6648   8.979   1.393   8.980
 1603SOL    HW2 6649   8.943   1.532   9.029
 1604SOL     OW 6650   6.849  10.563   2.155
 1604SOL    HW1 6651   6.804  10.646   2.141
 1604SOL    HW2 6652   6.903  10.551   2.076
 1605SOL     OW 6653   3.151   4.371   7.933
 1605SOL    HW1 6654   3.173   4.279   7.950
 1605SOL    HW2 6655   3.236   4.416   7.934
 1606SOL     OW 6656   2.656   7.195  14.063
 1606SOL    HW1 6657   2.711   7.162  13.993
 1606SOL    HW2 6658   2.585   7.242  14.019
 1607SOL     OW 6659   7.327   7.666  11.932
 1607SOL    HW1 6660   7.251   7.620  11.967
 1607SOL    HW2 6661   7.402   7.621  11.971
 1608SOL     OW 6662  12.523  10.477  12.420
 1608SOL    HW1 6663  12.543  10.391  12.457
 1608SOL    HW2 6664  12.609  10.516  12.403
 1609SOL     OW 6665  13.740   0.011   7.894
 1609SOL    HW1 6666  13.759  14.826   7.962
 1609SOL    HW2 6667  13.687   0.077   7.938
 1610SOL     OW 6668   2.314   4.527   8.595
 1610SOL    HW1 6669   2.310   4.520   8.500
 1610SOL    HW2 6670   2.250   4.463   8.627
 1611SOL     OW 6671  14.453  14.382   9.249
 1611SOL    HW1 6672  14.369  14.406   9.209
 1611SOL    HW2 6673  14.482  14.461   9.294
 1612SOL     OW 6674  10.500   8.554   8.616
 1612SOL    HW1 6675  10.579   8.507   8.643
 1612SOL    HW2 6676  10.456   8.577   8.698
 1613SOL     OW 6677   7.635   9.738   9.388
 1613SOL    HW1 6678   7.684   9.712   9.466
 1613SOL    HW2 6679   7.685   9.811   9.352
 1614SOL     OW 6680  12.704   3.583  13.758
 1614SOL    HW1 6681  12.763   3.658  13.764
 1614SOL    HW2 6682  12.728   3.528  13.832
 1615SOL     OW 6683   8.969   5.370   2.942
 1615SOL    HW1 6684   8.903   5.428   2.904
 1615SOL    HW2 6685   9.038   5.365   2.876
 1616SOL     OW 6686  13.391  10.450  11.811
 1616SOL    HW1 6687  13.385  10.399  11.891
 1616SOL    HW2 6688  13.307  10.497  11.805
 1617SOL     OW 6689  14.478   4.092   0.235
 1617SOL    HW1 6690  14.439   4.052   0.313
 1617SOL    HW2 6691  14.434   4.177   0.227
 1618SOL     OW 6692   8.190   2.297   3.042
 1618SOL    HW1 6693   8.204   2.226   3.105
 1618SOL    HW2 6694   8.245   2.274   2.967
 1619SOL     OW 6695   2.084   1.121  14.356
 1619SOL    HW1 6696   2.074   1.124  14.451
 1619SOL    HW2 6697   2.012   1.173  14.322
 1620SOL     OW 6698  10.888   7.717   0.270
 1620SOL    HW1 6699  10.802   7.704   0.310
 1620SOL    HW2 6700  10.882   7.668   0.187
 1621SOL     OW 6701   1.215  12.806   4.135
 1621SOL    HW1 6702   1.138  12.858   4.113
 1621SOL    HW2 6703   1.290  12.861   4.111
 1622SOL     OW 6704   6.852  13.606   1.186
 1622SOL    HW1 6705   6.897  13.542   1.131
 1622SOL    HW2 6706   6.814  13.668   1.125
 1623SOL     OW 6707   6.121  10.999   1.764
 1623SOL    HW1 6708   6.159  11.079   1.727
 1623SOL    HW2 6709   6.195  10.941   1.778
 1624SOL     OW 6710  11.107   3.535  10.045
 1624SOL    HW1 6711  11.169   3.473  10.006
 1624SOL    HW2 6712  11.126   3.619  10.003
 1625SOL     OW 6713   8.043  12.398   1.588
 1625SOL    HW1 6714   8.016  12.311   1.616
 1625SOL    HW2 6715   8.000  12.458   1.649
 1626SOL     OW 6716   6.205   8.094  10.277
 1626SOL    HW1 6717   6.242   8.132  10.357
 1626SOL    HW2 6718   6.282   8.071  10.224
 1627SOL     OW 6719   0.486  10.707   6.581
 1627SOL    HW1 6720   0.421  10.770   6.611
 1627SOL    HW2 6721   0.568  10.735   6.621
 1628SOL     OW 6722   6.557   7.012   6.581
 1628SOL    HW1 6723   6.586   6.971   6.662
 1628SOL    HW2 6724   6.623   7.078   6.561
 1629SOL     OW 6725  12.850   1.470  13.738
 1629SOL    HW1 6726  12.779   1.478  13.802
 1629SOL    HW2 6727  12.878   1.379  13.744
 1630SOL     OW 6728   7.531   1.027   2.816
 1630SOL    HW1 6729   7.552   1.093   2.882
 1630SOL    HW2 6730   7.463   1.068   2.762
 1631SOL     OW 6731  10.096   0.336  10.471
 1631SOL    HW1 6732  10.111   0.398  10.543
 1631SOL    HW2 6733  10.173   0.345  10.415
 1632SOL     OW 6734   4.005   9.230   9.102
 1632SOL    HW1 6735   4.099   9.247   9.113
 1632SOL    HW2 6736   3.963   9.313   9.125
 1633SOL     OW 6737   0.367   7.705   6.744
 1633SOL    HW1 6738   0.315   7.629   6.768
 1633SOL    HW2 6739   0.304   7.777   6.743
 1634SOL     OW 6740  12.252  14.209   9.579
 1634SOL    HW1 6741  12.167  14.249   9.561
 1634SOL    HW2 6742  12.233  14.145   9.648
 1635SOL     OW 6743  14.720   8.661  12.855
 1635SOL    HW1 6744  14.692   8.692  12.769
 1635SOL    HW2 6745  14.656   8.697  12.916
 1636SOL     OW 6746   4.018   6.304   8.164
 1636SOL    HW1 6747   4.003   6.228   8.221
 1636SOL    HW2 6748   4.088   6.275   8.104
 1637SOL     OW 6749  12.923  14.822   8.225
 1637SOL    HW1 6750  12.980   0.011   8.259
 1637SOL    HW2 6751  12.984  14.755   8.192
 1638SOL     OW 6752   1.501  13.012  12.718
 1638SOL    HW1 6753   1.533  13.101  12.726
 1638SOL    HW2 6754   1.443  13.013  12.642
 1639SOL     OW 6755  13.392   1.010   5.391
 1639SOL    HW1 6756  13.395   0.958   5.311
 1639SOL    HW2 6757  13.479   1.050   5.397
 1640SOL     OW 6758  14.244   6.856   3.773
 1640SOL    HW1 6759  14.150   6.842   3.783
 1640SOL    HW2 6760  14.274   6.886   3.858
 1641SOL     OW 6761   5.964   8.106  13.218
 1641SOL    HW1 6762   6.058   8.103  13.204
 1641SOL    HW2 6763   5.954   8.133  13.310
 1642SOL     OW 6764   9.494   7.475   0.851
 1642SOL    HW1 6765   9.493   7.569   0.834
 1642SOL    HW2 6766   9.453   7.436   0.773
 1643SOL     OW 6767   9.437   2.246   1.605
 1643SOL    HW1 6768   9.471   2.221   1.519
 1643SOL    HW2 6769   9.443   2.166   1.657
 1644SOL     OW 6770   5.803   9.060  13.201
 1644SOL    HW1 6771   5.825   9.095  13.287
 1644SOL    HW2 6772   5.783   8.968  13.217
 1645SOL     OW 6773   3.089  10.620   2.998
 1645SOL    HW1 6774   3.179  10.650   3.011
 1645SOL    HW2 6775   3.035  10.692   3.031
 1646SOL     OW 6776  11.582   9.568   6.210
 1646SOL    HW1 6777  11.652   9.609   6.158
 1646SOL    HW2 6778  11.619   9.561   6.298
 1647SOL     OW 6779   5.929  10.522   7.478
 1647SOL    HW1 6780   5.973  10.461   7.536
 1647SOL    HW2 6781   5.978  10.604   7.487
 1648SOL     OW 6782  10.346  11.397  10.192
 1648SOL    HW1 6783  10.329  11.413  10.285
 1648SOL    HW2 6784  10.274  11.442  10.147
 1649SOL     OW 6785   2.000  10.682  11.181
 1649SOL    HW1 6786   2.048  10.688  11.263
 1649SOL    HW2 6787   2.019  10.595  11.147
 1650SOL     OW 6788   8.678   6.566   7.382
 1650SOL    HW1 6789   8.652   6.479   7.352
 1650SOL    HW2 6790   8.621   6.584   7.457
 1651SOL     OW 6791   6.604   5.258   6.834
 1651SOL    HW1 6792   6.549   5.204   6.890
 1651SOL    HW2 6793   6.693   5.246   6.868
 1652SOL     OW 6794   7.071   3.781   4.957
 1652SOL    HW1 6795   7.065   3.700   5.008
 1652SOL    HW2 6796   7.155   3.819   4.983
 1653SOL     OW 6797   2.043   6.592  14.552
 1653SOL    HW1 6798   2.132   6.621  14.534
 1653SOL    HW2 6799   2.048   6.549  14.637
 1654SOL     OW 6800   5.688   4.184  14.166
 1654SOL    HW1 6801   5.661   4.127  14.239
 1654SOL    HW2 6802   5.739   4.126  14.109
 1655SOL     OW 6803   8.594   9.914  13.832
 1655SOL    HW1 6804   8.547   9.867  13.763
 1655SOL    HW2 6805   8.569   9.868  13.912
 1656SOL     OW 6806   0.357   4.822   2.353
 1656SOL    HW1 6807   0.373   4.905   2.398
 1656SOL    HW2 6808   0.299   4.844   2.280
 1657SOL     OW 6809   6.259  10.454  11.360
 1657SOL    HW1 6810   6.294  10.491  11.279
 1657SOL    HW2 6811   6.168  10.483  11.362
 1658SOL     OW 6812   9.393   3.845   2.343
 1658SOL    HW1 6813   9.305   3.848   2.381
 1658SOL    HW2 6814   9.444   3.908   2.394
 1659SOL     OW 6815   3.344  11.858   4.798
 1659SOL    HW1 6816   3.398  11.867   4.876
 1659SOL    HW2 6817   3.392  11.906   4.730
 1660SOL     OW 6818  11.536  11.822   2.008
 1660SOL    HW1 6819  11.548  11.824   1.913
 1660SOL    HW2 6820  11.610  11.872   2.043
 1661SOL     OW 6821   3.991   5.908   9.884
 1661SOL    HW1 6822   4.057   5.839   9.880
 1661SOL    HW2 6823   3.918   5.868   9.931
 1662SOL     OW 6824   1.425  13.502  13.948
 1662SOL    HW1 6825   1.465  13.420  13.919
 1662SOL    HW2 6826   1.470  13.523  14.030
 1663SOL     OW 6827   0.644   0.834   8.345
 1663SOL    HW1 6828   0.697   0.912   8.364
 1663SOL    HW2 6829   0.667   0.773   8.415
 1664SOL     OW 6830  14.680   1.898  13.059
 1664SOL    HW1 6831  14.599   1.931  13.097
 1664SOL    HW2 6832  14.663   1.805  13.042
 1665SOL     OW 6833   7.428  10.138   0.336
 1665SOL    HW1 6834   7.456  10.224   0.305
 1665SOL    HW2 6835   7.456  10.136   0.428
 1666SOL     OW 6836  13.899   7.792   3.178
 1666SOL    HW1 6837  13.940   7.733   3.114
 1666SOL    HW2 6838  13.813   7.812   3.141
 1667SOL     OW 6839   9.934   1.550  14.853
 1667SOL    HW1 6840   9.944   1.579  14.763
 1667SOL    HW2 6841   9.862   1.602   0.008
 1668SOL     OW 6842   3.192   6.146   0.635
 1668SOL    HW1 6843   3.235   6.159   0.719
 1668SOL    HW2 6844   3.101   6.172   0.651
 1669SOL     OW 6845   5.469   5.075  12.032
 1669SOL    HW1 6846   5.411   5.058  12.107
 1669SOL    HW2 6847   5.410   5.096  11.960
 1670SOL     OW 6848   3.960   7.831   6.044
 1670SOL    HW1 6849   4.049   7.804   6.021
 1670SOL    HW2 6850   3.940   7.781   6.123
 1671SOL     OW 6851   8.995   7.197  12.823
 1671SOL    HW1 6852   8.950   7.114  12.807
 1671SOL    HW2 6853   8.950   7.235  12.898
 1672SOL     OW 6854   8.719  13.458  11.356
 1672SOL    HW1 6855   8.658  13.394  11.393
 1672SOL    HW2 6856   8.708  13.536  11.411
 1673SOL     OW 6857   9.907   3.087   6.531
 1673SOL    HW1 6858   9.847   3.143   6.580
 1673SOL    HW2 6859   9.989   3.091   6.581
 1674SOL     OW 6860   9.704  13.965   1.772
 1674SOL    HW1 6861   9.726  13.883   1.817
 1674SOL    HW2 6862   9.728  14.034   1.834
 1675SOL     OW 6863  13.686   0.551  14.814
 1675SOL    HW1 6864  13.624   0.590  14.752
 1675SOL    HW2 6865  13.641   0.557   0.019
 1676SOL     OW 6866   0.823  14.706   4.008
 1676SOL    HW1 6867   0.894  14.770   4.003
 1676SOL    HW2 6868   0.744  14.758   4.024
 1677SOL     OW 6869  12.744   1.950  10.135
 1677SOL    HW1 6870  12.668   1.892  10.131
 1677SOL    HW2 6871  12.801   1.912  10.202
 1678SOL     OW 6872   1.980   5.726  13.831
 1678SOL    HW1 6873   2.073   5.748  13.831
 1678SOL    HW2 6874   1.977   5.631  13.832
 1679SOL     OW 6875   5.944   4.402   5.509
 1679SOL    HW1 6876   5.978   4.315   5.531
 1679SOL    HW2 6877   5.938   4.402   5.414
 1680SOL     OW 6878  11.047   5.780   1.782
 1680SOL    HW1 6879  11.112   5.792   1.851
 1680SOL    HW2 6880  11.060   5.854   1.723
 1681SOL     OW 6881   8.177   8.102   0.985
 1681SOL    HW1 6882   8.230   8.076   1.061
 1681SOL    HW2 6883   8.116   8.167   1.020
 1682SOL     OW 6884  12.328  14.234  12.940
 1682SOL    HW1 6885  12.295  14.144  12.930
 1682SOL    HW2 6886  12.304  14.259  13.029
 1683SOL     OW 6887   6.701   5.296   0.062
 1683SOL    HW1 6888   6.671   5.215   0.105
 1683SOL    HW2 6889   6.724   5.269  14.853
 1684SOL     OW 6890   0.191  12.280   9.953
 1684SOL    HW1 6891   0.252  12.208   9.937
 1684SOL    HW2 6892   0.137  12.284   9.874
 1685SOL     OW 6893   5.668  14.783   3.870
 1685SOL    HW1 6894   5.730  14.830   3.926
 1685SOL    HW2 6895   5.687  14.814   3.782
 1686SOL     OW 6896   5.669  12.149  11.675
 1686SOL    HW1 6897   5.757  12.177  11.653
 1686SOL    HW2 6898   5.681  12.071  11.729
 1687SOL     OW 6899  13.385   9.141  11.577
 1687SOL    HW1 6900  13.450   9.171  11.513
 1687SOL    HW2 6901  13.379   9.047  11.564
 1688SOL     OW 6902  10.015  10.680   3.208
 1688SOL    HW1 6903   9.946  10.740   3.177
 1688SOL    HW2 6904  10.096  10.718   3.175
 1689SOL     OW 6905   2.501  13.641   6.955
 1689SOL    HW1 6906   2.460  13.700   7.019
 1689SOL    HW2 6907   2.476  13.677   6.870
 1690SOL     OW 6908   6.353  11.120   6.644
 1690SOL    HW1 6909   6.258  11.117   6.638
 1690SOL    HW2 6910   6.380  11.166   6.564
 1691SOL     OW 6911   2.050  11.561  13.337
 1691SOL    HW1 6912   1.978  11.554  13.274
 1691SOL    HW2 6913   2.034  11.489  13.398
 1692SOL     OW 6914   7.364   7.302   8.161
 1692SOL    HW1 6915   7.344   7.393   8.140
 1692SOL    HW2 6916   7.282   7.268   8.198
 1693SOL     OW 6917  11.517   9.302   5.905
 1693SOL    HW1 6918  11.434   9.336   5.873
 1693SOL    HW2 6919  11.507   9.299   6.000
 1694SOL     OW 6920   3.237   9.460   5.909
 1694SOL    HW1 6921   3.224   9.444   5.816
 1694SOL    HW2 6922   3.282   9.545   5.913
 1695SOL     OW 6923   5.778   0.495   8.805
 1695SOL    HW1 6924   5.722   0.559   8.849
 1695SOL    HW2 6925   5.807   0.436   8.874
 1696SOL     OW 6926   1.514   8.242   9.847
 1696SOL    HW1 6927   1.595   8.241   9.898
 1696SOL    HW2 6928   1.540   8.207   9.761
 1697SOL     OW 6929   9.346   2.236   6.796
 1697SOL    HW1 6930   9.343   2.142   6.778
 1697SOL    HW2 6931   9.393   2.274   6.722
 1698SOL     OW 6932   9.258  10.185   0.295
 1698SOL    HW1 6933   9.254  10.194   0.199
 1698SOL    HW2 6934   9.180  10.232   0.326
 1699SOL     OW 6935   2.651  14.858   6.860
 1699SOL    HW1 6936   2.637  14.852   6.765
 1699SOL    HW2 6937   2.563  14.876   6.895
 1700SOL     OW 6938   6.870   4.875   7.875
 1700SOL    HW1 6939   6.893   4.914   7.791
 1700SOL    HW2 6940   6.790   4.921   7.901
 1701SOL     OW 6941   2.961   7.321  10.378
 1701SOL    HW1 6942   2.913   7.245  10.410
 1701SOL    HW2 6943   3.037   7.284  10.333
 1702SOL     OW 6944  11.776   7.465   2.136
 1702SOL    HW1 6945  11.785   7.416   2.054
 1702SOL    HW2 6946  11.779   7.399   2.205
 1703SOL     OW 6947   9.415  12.241   7.549
 1703SOL    HW1 6948   9.435  12.151   7.575
 1703SOL    HW2 6949   9.483  12.294   7.591
 1704SOL     OW 6950   9.179   9.546  13.857
 1704SOL    HW1 6951   9.185   9.485  13.931
 1704SOL    HW2 6952   9.172   9.633  13.898
 1705SOL     OW 6953   4.635  10.645   4.479
 1705SOL    HW1 6954   4.597  10.731   4.492
 1705SOL    HW2 6955   4.728  10.663   4.461
 1706SOL     OW 6956  10.363   2.073   2.615
 1706SOL    HW1 6957  10.341   2.149   2.669
 1706SOL    HW2 6958  10.422   2.022   2.671
 1707SOL     OW 6959   0.868   8.491  11.187
 1707SOL    HW1 6960   0.877   8.431  11.261
 1707SOL    HW2 6961   0.783   8.532  11.199
 1708SOL     OW 6962   8.069  13.740  12.828
 1708SOL    HW1 6963   8.003  13.800  12.862
 1708SOL    HW2 6964   8.020  13.662  12.804
 1709SOL     OW 6965   7.841  13.597   1.834
 1709SOL    HW1 6966   7.765  13.581   1.889
 1709SOL    HW2 6967   7.870  13.685   1.858
 1710SOL     OW 6968  10.503   3.828  13.974
 1710SOL    HW1 6969  10.476   3.902  13.920
 1710SOL    HW2 6970  10.481   3.751  13.922
 1711SOL     OW 6971   2.597   7.024   5.734
 1711SOL    HW1 6972   2.582   7.014   5.641
 1711SOL    HW2 6973   2.543   6.957   5.775
 1712SOL     OW 6974  10.122  12.141   7.665
 1712SOL    HW1 6975  10.153  12.065   7.715
 1712SOL    HW2 6976  10.033  12.117   7.638
 1713SOL     OW 6977   6.248  10.310  11.028
 1713SOL    HW1 6978   6.289  10.396  11.033
 1713SOL    HW2 6979   6.304  10.254  11.083
 1714SOL     OW 6980   5.548   2.837  12.209
 1714SOL    HW1 6981   5.614   2.906  12.209
 1714SOL    HW2 6982   5.499   2.850  12.128
 1715SOL     OW 6983  11.677  14.583   8.004
 1715SOL    HW1 6984  11.666  14.638   8.081
 1715SOL    HW2 6985  11.683  14.494   8.038
 1716SOL     OW 6986   6.381   2.631   9.554
 1716SOL    HW1 6987   6.414   2.677   9.477
 1716SOL    HW2 6988   6.293   2.604   9.530
 1717SOL     OW 6989   7.063   2.064   4.861
 1717SOL    HW1 6990   7.005   2.099   4.794
 1717SOL    HW2 6991   7.005   2.010   4.916
 1718SOL     OW 6992   9.791  10.752  12.868
 1718SOL    HW1 6993   9.817  10.826  12.922
 1718SOL    HW2 6994   9.796  10.677  12.926
 1719SOL     OW 6995  14.726   5.731   5.232
 1719SOL    HW1 6996  14.640   5.719   5.272
 1719SOL    HW2 6997  14.758   5.642   5.217
 1720SOL     OW 6998   3.734   0.181   0.357
 1720SOL    HW1 6999   3.716   0.094   0.392
 1720SOL    HW2 7000   3.829   0.188   0.358
 1721SOL     OW 7001   2.369  12.899   2.670
 1721SOL    HW1 7002   2.445  12.955   2.654
 1721SOL    HW2 7003   2.348  12.913   2.762
 1722SOL     OW 7004   7.888   5.503  14.223
 1722SOL    HW1 7005   7.862   5.569  14.288
 1722SOL    HW2 7006   7.843   5.530  14.143
 1723SOL     OW 7007  11.949   1.077   4.506
 1723SOL    HW1 7008  11.960   1.084   4.411
 1723SOL    HW2 7009  11.886   1.147   4.528
 1724SOL     OW 7010  13.222   3.317   3.516
 1724SOL    HW1 7011  13.171   3.243   3.483
 1724SOL    HW2 7012  13.260   3.286   3.598
 1725SOL     OW 7013  14.326   9.977   1.310
 1725SOL    HW1 7014  14.313  10.008   1.220
 1725SOL    HW2 7015  14.342  10.057   1.361
 1726SOL     OW 7016   6.908   0.977  11.488
 1726SOL    HW1 7017   6.872   1.063  11.508
 1726SOL    HW2 7018   6.850   0.942  11.421
 1727SOL     OW 7019  10.258   5.305   9.463
 1727SOL    HW1 7020  10.184   5.365   9.472
 1727SOL    HW2 7021  10.224   5.219   9.489
 1728SOL     OW 7022   8.740  13.287   6.017
 1728SOL    HW1 7023   8.776  13.266   5.931
 1728SOL    HW2 7024   8.678  13.358   6.001
 1729SOL     OW 7025   1.384   5.355   1.273
 1729SOL    HW1 7026   1.346   5.269   1.292
 1729SOL    HW2 7027   1.378   5.363   1.178
 1730SOL     OW 7028   1.517   9.925   9.456
 1730SOL    HW1 7029   1.567   9.938   9.536
 1730SOL    HW2 7030   1.583   9.911   9.388
 1731SOL     OW 7031   1.555  13.902   6.197
 1731SOL    HW1 7032   1.550  13.982   6.250
 1731SOL    HW2 7033   1.637  13.910   6.149
 1732SOL     OW 7034   3.109   8.700  11.525
 1732SOL    HW1 7035   3.050   8.695  11.450
 1732SOL    HW2 7036   3.197   8.700  11.487
 1733SOL     OW 7037   8.861  10.778  13.940
 1733SOL    HW1 7038   8.946  10.771  13.984
 1733SOL    HW2 7039   8.848  10.872  13.928
 1734SOL     OW 7040   9.686   9.645   8.191
 1734SOL    HW1 7041   9.654   9.721   8.142
 1734SOL    HW2 7042   9.610   9.615   8.241
 1735SOL     OW 7043   7.540   7.636   8.781
 1735SOL    HW1 7044   7.476   7.568   8.800
 1735SOL    HW2 7045   7.599   7.596   8.717
 1736SOL     OW 7046  12.379  13.437   4.532
 1736SOL    HW1 7047  12.433  13.401   4.602
 1736SOL    HW2 7048  12.320  13.499   4.575
 1737SOL     OW 7049  13.690   7.814   7.317
 1737SOL    HW1 7050  13.772   7.813   7.268
 1737SOL    HW2 7051  13.715   7.838   7.406
 1738SOL     OW 7052  13.098   3.161   1.009
 1738SOL    HW1 7053  13.011   3.152   0.972
 1738SOL    HW2 7054  13.083   3.173   1.103
 1739SOL     OW 7055   8.636   6.330   5.638
 1739SOL    HW1 7056   8.696   6.295   5.704
 1739SOL    HW2 7057   8.667   6.293   5.555
 1740SOL     OW 7058   8.515  10.628   9.168
 1740SOL    HW1 7059   8.509  10.533   9.165
 1740SOL    HW2 7060   8.431  10.657   9.204
 1741SOL     OW 7061   9.265  14.519   1.350
 1741SOL    HW1 7062   9.267  14.479   1.437
 1741SOL    HW2 7063   9.307  14.605   1.362
 1742SOL     OW 7064   0.336   2.742   0.314
 1742SOL    HW1 7065   0.351   2.812   0.251
 1742SOL    HW2 7066   0.417   2.738   0.365
 1743SOL     OW 7067  12.370  14.196   4.599
 1743SOL    HW1 7068  12.414  14.228   4.678
 1743SOL    HW2 7069  12.307  14.132   4.631
 1744SOL     OW 7070   3.910  12.800  10.013
 1744SOL    HW1 7071   3.966  12.833  10.084
 1744SOL    HW2 7072   3.919  12.866   9.944
 1745SOL     OW 7073  14.120  10.347   9.538
 1745SOL    HW1 7074  14.127  10.274   9.475
 1745SOL    HW2 7075  14.103  10.304   9.622
 1746SOL     OW 7076   1.578   0.545   2.018
 1746SOL    HW1 7077   1.589   0.621   2.075
 1746SOL    HW2 7078   1.645   0.555   1.951
 1747SOL     OW 7079  14.808   1.679   8.636
 1747SOL    HW1 7080  14.829   1.767   8.606
 1747SOL    HW2 7081  14.765   1.691   8.720
 1748SOL     OW 7082  13.810   0.577   4.413
 1748SOL    HW1 7083  13.841   0.645   4.353
 1748SOL    HW2 7084  13.782   0.505   4.357
 1749SOL     OW 7085   2.268   9.341  14.271
 1749SOL    HW1 7086   2.206   9.368  14.203
 1749SOL    HW2 7087   2.314   9.266  14.233
 1750SOL     OW 7088  12.735   6.677   2.277
 1750SOL    HW1 7089  12.710   6.761   2.237
 1750SOL    HW2 7090  12.653   6.628   2.283
 1751SOL     OW 7091   7.137   7.249   7.869
 1751SOL    HW1 7092   7.123   7.158   7.896
 1751SOL    HW2 7093   7.112   7.252   7.777
 1752SOL     OW 7094   0.192   3.717   3.873
 1752SOL    HW1 7095   0.156   3.776   3.940
 1752SOL    HW2 7096   0.226   3.775   3.805
 1753SOL     OW 7097   3.526   7.287   9.876
 1753SOL    HW1 7098   3.618   7.312   9.869
 1753SOL    HW2 7099   3.487   7.314   9.793
 1754SOL     OW 7100   3.151   6.805  13.448
 1754SOL    HW1 7101   3.116   6.861  13.379
 1754SOL    HW2 7102   3.245   6.826  13.451
 1755SOL     OW 7103  12.607  12.673  11.500
 1755SOL    HW1 7104  12.547  12.649  11.570
 1755SOL    HW2 7105  12.693  12.642  11.530
 1756SOL     OW 7106  14.400   4.943   2.897
 1756SOL    HW1 7107  14.437   4.987   2.820
 1756SOL    HW2 7108  14.305   4.947   2.883
 1757SOL     OW 7109   2.391  11.233  14.138
 1757SOL    HW1 7110   2.397  11.200  14.228
 1757SOL    HW2 7111   2.441  11.314  14.138
 1758SOL     OW 7112  13.863  11.147  13.356
 1758SOL    HW1 7113  13.783  11.104  13.387
 1758SOL    HW2 7114  13.921  11.074  13.332
 1759SOL     OW 7115   3.173   1.622   9.135
 1759SOL    HW1 7116   3.248   1.631   9.193
 1759SOL    HW2 7117   3.210   1.595   9.051
 1760SOL     OW 7118  12.023  11.162   3.156
 1760SOL    HW1 7119  12.093  11.154   3.091
 1760SOL    HW2 7120  12.056  11.116   3.233
 1761SOL     OW 7121  12.064   5.619   2.484
 1761SOL    HW1 7122  12.144   5.645   2.439
 1761SOL    HW2 7123  12.095   5.574   2.563
 1762SOL     OW 7124   5.999   3.111   0.442
 1762SOL    HW1 7125   5.952   3.124   0.525
 1762SOL    HW2 7126   6.005   3.198   0.404
 1763SOL     OW 7127   0.794   5.698   5.392
 1763SOL    HW1 7128   0.747   5.615   5.381
 1763SOL    HW2 7129   0.737   5.764   5.353
 1764SOL     OW 7130   3.321   4.654   9.868
 1764SOL    HW1 7131   3.245   4.630   9.815
 1764SOL    HW2 7132   3.343   4.574   9.917
 1765SOL     OW 7133   1.434   3.615   1.188
 1765SOL    HW1 7134   1.483   3.536   1.212
 1765SOL    HW2 7135   1.362   3.618   1.251
 1766SOL     OW 7136   6.675   3.133  12.148
 1766SOL    HW1 7137   6.587   3.157  12.117
 1766SOL    HW2 7138   6.697   3.054  12.098
 1767SOL     OW 7139   3.912   3.913   4.487
 1767SOL    HW1 7140   3.853   3.839   4.498
 1767SOL    HW2 7141   3.931   3.942   4.577
 1768SOL     OW 7142  13.569   1.213   2.040
 1768SOL    HW1 7143  13.601   1.124   2.030
 1768SOL    HW2 7144  13.615   1.263   1.973
 1769SOL     OW 7145   4.756   5.389  12.469
 1769SOL    HW1 7146   4.818   5.408  12.398
 1769SOL    HW2 7147   4.804   5.409  12.549
 1770SOL     OW 7148   3.832  14.078   8.389
 1770SOL    HW1 7149   3.760  14.141   8.391
 1770SOL    HW2 7150   3.902  14.123   8.341
 1771SOL     OW 7151   5.980  11.036   9.094
 1771SOL    HW1 7152   5.891  11.029   9.129
 1771SOL    HW2 7153   6.006  10.945   9.078
 1772SOL     OW 7154   8.125   9.040   6.357
 1772SOL    HW1 7155   8.087   8.960   6.393
 1772SOL    HW2 7156   8.056   9.077   6.302
 1773SOL     OW 7157  10.348  10.254  10.872
 1773SOL    HW1 7158  10.374  10.279  10.960
 1773SOL    HW2 7159  10.336  10.160  10.876
 1774SOL     OW 7160   3.884  14.508   3.114
 1774SOL    HW1 7161   3.848  14.465   3.036
 1774SOL    HW2 7162   3.970  14.540   3.086
 1775SOL     OW 7163   6.568   3.233  14.296
 1775SOL    HW1 7164   6.617   3.311  14.270
 1775SOL    HW2 7165   6.527   3.202  14.216
 1776SOL     OW 7166   7.432  10.225  14.149
 1776SOL    HW1 7167   7.445  10.190  14.237
 1776SOL    HW2 7168   7.466  10.315  14.154
 1777SOL     OW 7169   8.945   9.244   3.850
 1777SOL    HW1 7170   8.997   9.172   3.814
 1777SOL    HW2 7171   8.981   9.258   3.937
 1778SOL     OW 7172   1.884  14.512  10.108
 1778SOL    HW1 7173   1.971  14.475  10.120
 1778SOL    HW2 7174   1.870  14.511  10.013
 1779SOL     OW 7175  13.411  13.633   8.178
 1779SOL    HW1 7176  13.391  13.545   8.213
 1779SOL    HW2 7177  13.449  13.616   8.092
 1780SOL     OW 7178   3.171   5.082   4.166
 1780SOL    HW1 7179   3.162   5.152   4.230
 1780SOL    HW2 7180   3.120   5.009   4.202
 1781SOL     OW 7181   1.162   4.707   8.415
 1781SOL    HW1 7182   1.120   4.736   8.333
 1781SOL    HW2 7183   1.100   4.731   8.483
 1782SOL     OW 7184   3.623   3.625   2.118
 1782SOL    HW1 7185   3.700   3.666   2.156
 1782SOL    HW2 7186   3.596   3.559   2.182
 1783SOL     OW 7187   2.315   6.689  12.451
 1783SOL    HW1 7188   2.407   6.680  12.428
 1783SOL    HW2 7189   2.280   6.749  12.385
 1784SOL     OW 7190  10.386   2.764   8.583
 1784SOL    HW1 7191  10.299   2.735   8.555
 1784SOL    HW2 7192  10.427   2.796   8.503
 1785SOL     OW 7193   0.336   0.846   6.963
 1785SOL    HW1 7194   0.408   0.830   7.024
 1785SOL    HW2 7195   0.342   0.939   6.942
 1786SOL     OW 7196   5.149   7.302  10.881
 1786SOL    HW1 7197   5.192   7.249  10.813
 1786SOL    HW2 7198   5.195   7.386  10.877
 1787SOL     OW 7199   6.311   4.018   3.960
 1787SOL    HW1 7200   6.297   3.940   3.907
 1787SOL    HW2 7201   6.393   4.055   3.926
 1788SOL     OW 7202  10.595   0.807   5.582
 1788SOL    HW1 7203  10.561   0.791   5.670
 1788SOL    HW2 7204  10.626   0.898   5.585
 1789SOL     OW 7205  13.825   9.232   8.854
 1789SOL    HW1 7206  13.894   9.177   8.891
 1789SOL    HW2 7207  13.862   9.320   8.854
 1790SOL     OW 7208   1.575   5.082  14.016
 1790SOL    HW1 7209   1.636   5.154  14.030
 1790SOL    HW2 7210   1.589   5.055  13.926
 1791SOL     OW 7211   7.767   7.610   0.191
 1791SOL    HW1 7212   7.704   7.682   0.181
 1791SOL    HW2 7213   7.808   7.626   0.276
 1792SOL     OW 7214  14.541  12.592   3.067
 1792SOL    HW1 7215  14.539  12.617   3.159
 1792SOL    HW2 7216  14.474  12.647   3.026
 1793SOL     OW 7217  14.265   5.833  12.361
 1793SOL    HW1 7218  14.307   5.747  12.356
 1793SOL    HW2 7219  14.212   5.838  12.282
 1794SOL     OW 7220  11.227   6.529   6.314
 1794SOL    HW1 7221  11.271   6.559   6.394
 1794SOL    HW2 7222  11.198   6.440   6.334
 1795SOL     OW 7223  12.758   9.553   9.215
 1795SOL    HW1 7224  12.675   9.580   9.177
 1795SOL    HW2 7225  12.781   9.624   9.276
 1796SOL     OW 7226  12.870  10.721  13.858
 1796SOL    HW1 7227  12.893  10.637  13.899
 1796SOL    HW2 7228  12.953  10.754  13.824
 1797SOL     OW 7229  13.685   0.806   4.803
 1797SOL    HW1 7230  13.773   0.787   4.770
 1797SOL    HW2 7231  13.657   0.725   4.845
 1798SOL     OW 7232   7.935   5.493   2.096
 1798SOL    HW1 7233   7.932   5.544   2.015
 1798SOL    HW2 7234   7.865   5.530   2.150
 1799SOL     OW 7235   1.017   4.565   2.032
 1799SOL    HW1 7236   0.922   4.552   2.034
 1799SOL    HW2 7237   1.036   4.616   2.111
 1800SOL     OW 7238  12.655   8.571  14.416
 1800SOL    HW1 7239  12.579   8.628  14.434
 1800SOL    HW2 7240  12.632   8.488  14.457
 1801SOL     OW 7241  13.306  14.487   5.063
 1801SOL    HW1 7242  13.363  14.474   4.988
 1801SOL    HW2 7243  13.219  14.464   5.031
 1802SOL     OW 7244   2.883   2.949   0.911
 1802SOL    HW1 7245   2.881   3.040   0.882
 1802SOL    HW2 7246   2.807   2.941   0.968
 1803SOL     OW 7247   1.898  10.196   1.426
 1803SOL    HW1 7248   1.923  10.203   1.518
 1803SOL    HW2 7249   1.877  10.285   1.399
 1804SOL     OW 7250   4.459   5.889   0.639
 1804SOL    HW1 7251   4.384   5.917   0.586
 1804SOL    HW2 7252   4.530   5.880   0.575
 1805SOL     OW 7253  10.116   8.146   9.172
 1805SOL    HW1 7254  10.118   8.150   9.267
 1805SOL    HW2 7255  10.079   8.059   9.152
 1806SOL     OW 7256  10.003  13.462   9.376
 1806SOL    HW1 7257   9.909  13.444   9.370
 1806SOL    HW2 7258  10.033  13.408   9.449
 1807SOL     OW 7259  11.291   9.098   7.824
 1807SOL    HW1 7260  11.296   9.191   7.849
 1807SOL    HW2 7261  11.198   9.080   7.815
 1808SOL     OW 7262   7.234   4.624   2.398
 1808SOL    HW1 7263   7.328   4.642   2.397
 1808SOL    HW2 7264   7.218   4.580   2.315
 1809SOL     OW 7265   8.024  13.784   7.784
 1809SOL    HW1 7266   8.000  13.872   7.811
 1809SOL    HW2 7267   8.064  13.745   7.861
 1810SOL     OW 7268   7.797  14.725   1.317
 1810SOL    HW1 7269   7.825  14.798   1.372
 1810SOL    HW2 7270   7.789  14.763   1.229
 1811SOL     OW 7271  10.381   1.130  13.247
 1811SOL    HW1 7272  10.397   1.201  13.310
 1811SOL    HW2 7273  10.305   1.084  13.282
 1812SOL     OW 7274   6.599   7.805   6.309
 1812SOL    HW1 7275   6.622   7.811   6.402
 1812SOL    HW2 7276   6.683   7.813   6.263
 1813SOL     OW 7277   9.597   2.170  12.937
 1813SOL    HW1 7278   9.612   2.106  12.868
 1813SOL    HW2 7279   9.669   2.233  12.927
 1814SOL     OW 7280  14.779  13.038  12.052
 1814SOL    HW1 7281  14.752  13.053  11.962
 1814SOL    HW2 7282  14.737  12.955  12.076
 1815SOL     OW 7283  10.560   6.118   9.878
 1815SOL    HW1 7284  10.623   6.084   9.941
 1815SOL    HW2 7285  10.604   6.192   9.837
 1816SOL     OW 7286  14.415  14.714  14.600
 1816SOL    HW1 7287  14.338  14.665  14.570
 1816SOL    HW2 7288  14.380  14.800  14.625
 1817SOL     OW 7289   1.413   9.212   7.143
 1817SOL    HW1 7290   1.345   9.156   7.179
 1817SOL    HW2 7291   1.432   9.274   7.213
 1818SOL     OW 7292   7.917  14.437   5.043
 1818SOL    HW1 7293   7.856  14.440   4.969
 1818SOL    HW2 7294   7.999  14.405   5.005
 1819SOL     OW 7295   0.106   3.151   4.535
 1819SOL    HW1 7296   0.029   3.208   4.527
 1819SOL    HW2 7297   0.095   3.107   4.618
 1820SOL     OW 7298  12.615   0.132  14.295
 1820SOL    HW1 7299  12.595   0.196  14.227
 1820SOL    HW2 7300  12.544   0.068  14.288
 1821SOL     OW 7301   4.861   5.642   2.644
 1821SOL    HW1 7302   4.908   5.633   2.728
 1821SOL    HW2 7303   4.850   5.736   2.633
 1822SOL     OW 7304  10.050   5.325   6.153
 1822SOL    HW1 7305   9.989   5.271   6.204
 1822SOL    HW2 7306  10.050   5.410   6.198
 1823SOL     OW 7307  11.580   4.152   0.767
 1823SOL    HW1 7308  11.632   4.180   0.843
 1823SOL    HW2 7309  11.513   4.095   0.804
 1824SOL     OW 7310  14.727   2.350   4.150
 1824SOL    HW1 7311  14.668   2.316   4.082
 1824SOL    HW2 7312  14.746   2.440   4.123
 1825SOL     OW 7313   7.756  14.349   7.006
 1825SOL    HW1 7314   7.832  14.406   7.020
 1825SOL    HW2 7315   7.760  14.286   7.078
 1826SOL     OW 7316   3.939   6.390   3.770
 1826SOL    HW1 7317   4.016   6.406   3.824
 1826SOL    HW2 7318   3.876   6.349   3.830
 1827SOL     OW 7319   5.393  11.257   0.143
 1827SOL    HW1 7320   5.469  11.238   0.089
 1827SOL    HW2 7321   5.319  11.221   0.094
 1828SOL     OW 7322   1.655   8.929   0.186
 1828SOL    HW1 7323   1.633   8.874   0.110
 1828SOL    HW2 7324   1.683   9.012   0.147
 1829SOL     OW 7325   1.598  11.680   6.614
 1829SOL    HW1 7326   1.641  11.626   6.548
 1829SOL    HW2 7327   1.667  11.702   6.677
 1830SOL     OW 7328   9.428   3.912  10.485
 1830SOL    HW1 7329   9.438   3.875  10.573
 1830SOL    HW2 7330   9.518   3.920  10.452
 1831SOL     OW 7331  10.682   1.021   6.608
 1831SOL    HW1 7332  10.719   1.075   6.678
 1831SOL    HW2 7333  10.653   0.941   6.653
 1832SOL     OW 7334  12.984   9.572  11.491
 1832SOL    HW1 7335  12.955   9.646  11.544
 1832SOL    HW2 7336  13.072   9.552  11.524
 1833SOL     OW 7337   3.171  14.653   4.473
 1833SOL    HW1 7338   3.206  14.566   4.457
 1833SOL    HW2 7339   3.248  14.708   4.486
 1834SOL     OW 7340  12.588   8.769   1.162
 1834SOL    HW1 7341  12.566   8.790   1.071
 1834SOL    HW2 7342  12.504   8.753   1.204
 1835SOL     OW 7343   2.396  12.562   3.363
 1835SOL    HW1 7344   2.400  12.467   3.369
 1835SOL    HW2 7345   2.325  12.587   3.422
 1836SOL     OW 7346   8.603   3.795   5.669
 1836SOL    HW1 7347   8.690   3.815   5.705
 1836SOL    HW2 7348   8.621   3.736   5.595
 1837SOL     OW 7349  13.228  12.191   4.696
 1837SOL    HW1 7350  13.275  12.158   4.772
 1837SOL    HW2 7351  13.144  12.144   4.697
 1838SOL     OW 7352   7.208  12.449   3.278
 1838SOL    HW1 7353   7.123  12.492   3.270
 1838SOL    HW2 7354   7.264  12.493   3.214
 1839SOL     OW 7355   7.223   7.382  14.660
 1839SOL    HW1 7356   7.299   7.440  14.662
 1839SOL    HW2 7357   7.256   7.301  14.622
 1840SOL     OW 7358   4.554   9.045   8.974
 1840SOL    HW1 7359   4.560   9.113   9.042
 1840SOL    HW2 7360   4.627   8.986   8.993
 1841SOL     OW 7361  11.510  10.064  11.467
 1841SOL    HW1 7362  11.423  10.103  11.478
 1841SOL    HW2 7363  11.502  10.009  11.389
 1842SOL     OW 7364   7.045  12.843   4.474
 1842SOL    HW1 7365   6.989  12.875   4.545
 1842SOL    HW2 7366   7.122  12.806   4.518
 1843SOL     OW 7367  10.349   5.925  12.341
 1843SOL    HW1 7368  10.296   5.963  12.412
 1843SOL    HW2 7369  10.346   5.991  12.271
 1844SOL     OW 7370  11.704   3.001   9.383
 1844SOL    HW1 7371  11.748   3.064   9.440
 1844SOL    HW2 7372  11.621   3.044   9.361
 1845SOL     OW 7373   4.524   0.398  13.837
 1845SOL    HW1 7374   4.571   0.452  13.773
 1845SOL    HW2 7375   4.444   0.447  13.855
 1846SOL     OW 7376   0.450  12.505  12.170
 1846SOL    HW1 7377   0.505  12.469  12.240
 1846SOL    HW2 7378   0.489  12.472  12.089
 1847SOL     OW 7379   5.374  13.745   0.916
 1847SOL    HW1 7380   5.424  13.676   0.959
 1847SOL    HW2 7381   5.363  13.812   0.983
 1848SOL     OW 7382   9.835   7.400   6.484
 1848SOL    HW1 7383   9.758   7.404   6.427
 1848SOL    HW2 7384   9.800   7.384   6.571
 1849SOL     OW 7385  12.376  11.355  10.452
 1849SOL    HW1 7386  12.382  11.450  10.457
 1849SOL    HW2 7387  12.320  11.337  10.377
 1850SOL     OW 7388   8.473   7.501   4.206
 1850SOL    HW1 7389   8.467   7.424   4.263
 1850SOL    HW2 7390   8.545   7.553   4.242
 1851SOL     OW 7391  10.026  13.867   5.474
 1851SOL    HW1 7392  10.045  13.961   5.467
 1851SOL    HW2 7393  10.068  13.840   5.555
 1852SOL     OW 7394  14.083  14.410   3.902
 1852SOL    HW1 7395  14.055  14.422   3.993
 1852SOL    HW2 7396  14.004  14.428   3.851
 1853SOL     OW 7397  13.136  11.399   3.191
 1853SOL    HW1 7398  13.122  11.462   3.121
 1853SOL    HW2 7399  13.048  11.367   3.212
 1854SOL     OW 7400   0.179   5.458  14.137
 1854SOL    HW1 7401   0.103   5.447  14.079
 1854SOL    HW2 7402   0.152   5.415  14.219
 1855SOL     OW 7403  12.193  13.973  10.410
 1855SOL    HW1 7404  12.191  14.065  10.383
 1855SOL    HW2 7405  12.105  13.941  10.393
 1856SOL     OW 7406   3.838  10.803  10.794
 1856SOL    HW1 7407   3.898  10.747  10.744
 1856SOL    HW2 7408   3.865  10.790  10.885
 1857SOL     OW 7409   1.387   4.239  12.140
 1857SOL    HW1 7410   1.395   4.144  12.134
 1857SOL    HW2 7411   1.451   4.272  12.076
 1858SOL     OW 7412   7.288   8.762   4.788
 1858SOL    HW1 7413   7.235   8.692   4.827
 1858SOL    HW2 7414   7.242   8.842   4.813
 1859SOL     OW 7415   8.852  13.265  11.194
 1859SOL    HW1 7416   8.863  13.193  11.256
 1859SOL    HW2 7417   8.793  13.326  11.239
 1860SOL     OW 7418  12.590  13.391  10.137
 1860SOL    HW1 7419  12.637  13.373  10.056
 1860SOL    HW2 7420  12.525  13.457  10.113
 1861SOL     OW 7421   3.172  11.644   6.949
 1861SOL    HW1 7422   3.151  11.626   7.040
 1861SOL    HW2 7423   3.101  11.602   6.899
 1862SOL     OW 7424   2.590   6.471   8.509
 1862SOL    HW1 7425   2.615   6.447   8.420
 1862SOL    HW2 7426   2.557   6.561   8.501
 1863SOL     OW 7427  14.055   7.461  14.307
 1863SOL    HW1 7428  13.993   7.407  14.258
 1863SOL    HW2 7429  14.007   7.541  14.327
 1864SOL     OW 7430   1.832  14.652   4.468
 1864SOL    HW1 7431   1.839  14.564   4.506
 1864SOL    HW2 7432   1.920  14.688   4.473
 1865SOL     OW 7433  12.432  12.472  13.481
 1865SOL    HW1 7434  12.527  12.477  13.470
 1865SOL    HW2 7435  12.396  12.513  13.402
 1866SOL     OW 7436  12.242   3.157  10.720
 1866SOL    HW1 7437  12.154   3.130  10.748
 1866SOL    HW2 7438  12.230   3.245  10.685
 1867SOL     OW 7439  10.217   6.527  14.752
 1867SOL    HW1 7440  10.247   6.444  14.788
 1867SOL    HW2 7441  10.199   6.509  14.660
 1868SOL     OW 7442   2.631  11.431  10.944
 1868SOL    HW1 7443   2.651  11.350  10.990
 1868SOL    HW2 7444   2.538  11.425  10.924
 1869SOL     OW 7445   0.810  10.472  13.655
 1869SOL    HW1 7446   0.719  10.492  13.679
 1869SOL    HW2 7447   0.838  10.408  13.720
 1870SOL     OW 7448  13.064   4.902   6.767
 1870SOL    HW1 7449  13.130   4.969   6.748
 1870SOL    HW2 7450  13.020   4.933   6.845
 1871SOL     OW 7451  13.403   5.720  12.803
 1871SOL    HW1 7452  13.369   5.727  12.892
 1871SOL    HW2 7453  13.438   5.807  12.783
 1872SOL     OW 7454  14.644   5.813   7.130
 1872SOL    HW1 7455  14.698   5.800   7.052
 1872SOL    HW2 7456  14.560   5.843   7.096
 1873SOL     OW 7457   4.478   7.131   4.926
 1873SOL    HW1 7458   4.522   7.134   4.841
 1873SOL    HW2 7459   4.419   7.206   4.926
 1874SOL     OW 7460   3.502   6.893   6.130
 1874SOL    HW1 7461   3.461   6.807   6.139
 1874SOL    HW2 7462   3.465   6.944   6.202
 1875SOL     OW 7463   7.421   1.133   8.759
 1875SOL    HW1 7464   7.472   1.083   8.696
 1875SOL    HW2 7465   7.438   1.090   8.843
 1876SOL     OW 7466  10.568   9.046   5.532
 1876SOL    HW1 7467  10.515   8.975   5.568
 1876SOL    HW2 7468  10.594   9.016   5.445
 1877SOL     OW 7469   1.498   2.421  12.065
 1877SOL    HW1 7470   1.410   2.451  12.044
 1877SOL    HW2 7471   1.488   2.327  12.080
 1878SOL     OW 7472   0.396  14.670   7.837
 1878SOL    HW1 7473   0.330  14.619   7.791
 1878SOL    HW2 7474   0.476  14.661   7.784
 1879SOL     OW 7475  12.241   9.608   7.685
 1879SOL    HW1 7476  12.157   9.628   7.644
 1879SOL    HW2 7477  12.254   9.514   7.669
 1880SOL     OW 7478  11.834  12.679   4.654
 1880SOL    HW1 7479  11.742  12.696   4.633
 1880SOL    HW2 7480  11.854  12.737   4.727
 1881SOL     OW 7481   5.678   6.916   4.710
 1881SOL    HW1 7482   5.653   6.826   4.731
 1881SOL    HW2 7483   5.626   6.939   4.633
 1882SOL     OW 7484  13.933  11.833  10.219
 1882SOL    HW1 7485  13.941  11.808  10.128
 1882SOL    HW2 7486  13.974  11.763  10.268
 1883SOL     OW 7487   4.994   9.994  11.293
 1883SOL    HW1 7488   5.065   9.934  11.316
 1883SOL    HW2 7489   4.990   9.990  11.197
 1884SOL     OW 7490   0.392   4.692   1.493
 1884SOL    HW1 7491   0.345   4.638   1.430
 1884SOL    HW2 7492   0.383   4.781   1.459
 1885SOL     OW 7493   8.776   2.854   5.394
 1885SOL    HW1 7494   8.784   2.770   5.440
 1885SOL    HW2 7495   8.862   2.895   5.403
 1886SOL     OW 7496  12.770   7.055   8.088
 1886SOL    HW1 7497  12.712   7.092   8.154
 1886SOL    HW2 7498  12.831   7.126   8.066
 1887SOL     OW 7499   4.388   3.690  11.387
 1887SOL    HW1 7500   4.305   3.643  11.383
 1887SOL    HW2 7501   4.388   3.730  11.474
 1888SOL     OW 7502   2.702  11.825  11.318
 1888SOL    HW1 7503   2.641  11.878  11.268
 1888SOL    HW2 7504   2.785  11.872  11.312
 1889SOL     OW 7505  13.311   1.128   2.395
 1889SOL    HW1 7506  13.387   1.100   2.344
 1889SOL    HW2 7507  13.251   1.164   2.330
 1890SOL     OW 7508  13.307   7.216   4.241
 1890SOL    HW1 7509  13.281   7.211   4.149
 1890SOL    HW2 7510  13.235   7.173   4.288
 1891SOL     OW 7511   3.639   9.165   2.965
 1891SOL    HW1 7512   3.629   9.128   2.877
 1891SOL    HW2 7513   3.604   9.254   2.958
 1892SOL     OW 7514   5.985   4.911   0.118
 1892SOL    HW1 7515   5.971   4.816   0.116
 1892SOL    HW2 7516   5.899   4.948   0.135
 1893SOL     OW 7517   7.152   7.948   5.302
 1893SOL    HW1 7518   7.195   7.864   5.318
 1893SOL    HW2 7519   7.219   8.014   5.320
 1894SOL     OW 7520   9.374   1.180   8.518
 1894SOL    HW1 7521   9.406   1.218   8.436
 1894SOL    HW2 7522   9.449   1.183   8.577
 1895SOL     OW 7523  10.143   5.367   1.130
 1895SOL    HW1 7524  10.150   5.277   1.096
 1895SOL    HW2 7525  10.204   5.417   1.076
 1896SOL     OW 7526   9.462   4.503   3.453
 1896SOL    HW1 7527   9.539   4.552   3.481
 1896SOL    HW2 7528   9.487   4.466   3.368
 1897SOL     OW 7529   5.271  10.939   5.044
 1897SOL    HW1 7530   5.216  11.008   5.007
 1897SOL    HW2 7531   5.341  10.986   5.090
 1898SOL     OW 7532   0.275   7.631   7.124
 1898SOL    HW1 7533   0.269   7.724   7.100
 1898SOL    HW2 7534   0.309   7.589   7.045
 1899SOL     OW 7535  13.699   9.460   6.503
 1899SOL    HW1 7536  13.607   9.448   6.480
 1899SOL    HW2 7537  13.718   9.390   6.565
 1900SOL     OW 7538  13.452  14.614  10.694
 1900SOL    HW1 7539  13.380  14.554  10.717
 1900SOL    HW2 7540  13.441  14.689  10.752
 1901SOL     OW 7541   3.782   9.389   2.489
 1901SOL    HW1 7542   3.718   9.431   2.546
 1901SOL    HW2 7543   3.821   9.320   2.543
 1902SOL     OW 7544   6.468   1.424  11.992
 1902SOL    HW1 7545   6.457   1.493  11.927
 1902SOL    HW2 7546   6.483   1.471  12.074
 1903SOL     OW 7547  13.766   0.423  13.682
 1903SOL    HW1 7548  13.677   0.388  13.674
 1903SOL    HW2 7549  13.763   0.508  13.638
 1904SOL     OW 7550   8.966   6.469  13.078
 1904SOL    HW1 7551   8.918   6.523  13.141
 1904SOL    HW2 7552   9.057   6.496  13.088
 1905SOL     OW 7553  14.354  12.351  10.250
 1905SOL    HW1 7554  14.400  12.372  10.331
 1905SOL    HW2 7555  14.365  12.430  10.196
 1906SOL     OW 7556  11.641  11.139  10.071
 1906SOL    HW1 7557  11.567  11.198  10.084
 1906SOL    HW2 7558  11.717  11.196  10.065
 1907SOL     OW 7559  14.844   0.367   5.094
 1907SOL    HW1 7560   0.034   0.428   5.119
 1907SOL    HW2 7561  14.785   0.420   5.040
 1908SOL     OW 7562   9.131   8.899  11.076
 1908SOL    HW1 7563   9.183   8.978  11.061
 1908SOL    HW2 7564   9.115   8.900  11.171
 1909SOL     OW 7565   5.749   8.541  13.656
 1909SOL    HW1 7566   5.781   8.584  13.735
 1909SOL    HW2 7567   5.680   8.483  13.686
 1910SOL     OW 7568   8.120   5.665   6.548
 1910SOL    HW1 7569   8.208   5.700   6.537
 1910SOL    HW2 7570   8.063   5.737   6.523
 1911SOL     OW 7571   1.835   0.895   6.044
 1911SOL    HW1 7572   1.792   0.978   6.065
 1911SOL    HW2 7573   1.767   0.843   6.000
 1912SOL     OW 7574  12.640   6.666  12.382
 1912SOL    HW1 7575  12.623   6.671  12.476
 1912SOL    HW2 7576  12.732   6.639  12.376
 1913SOL     OW 7577  14.300   8.934   6.331
 1913SOL    HW1 7578  14.320   8.844   6.354
 1913SOL    HW2 7579  14.369   8.960   6.270
 1914SOL     OW 7580   0.827   4.316  10.045
 1914SOL    HW1 7581   0.886   4.386  10.017
 1914SOL    HW2 7582   0.883   4.239  10.052
 1915SOL     OW 7583   7.389  13.078   7.633
 1915SOL    HW1 7584   7.346  12.996   7.609
 1915SOL    HW2 7585   7.398  13.125   7.551
 1916SOL     OW 7586  13.983  12.928   5.052
 1916SOL    HW1 7587  13.934  12.891   5.125
 1916SOL    HW2 7588  13.985  12.860   4.986
 1917SOL     OW 7589   4.751   9.778  14.098
 1917SOL    HW1 7590   4.772   9.859  14.051
 1917SOL    HW2 7591   4.762   9.801  14.190
 1918SOL     OW 7592  13.121   6.254   6.324
 1918SOL    HW1 7593  13.138   6.345   6.349
 1918SOL    HW2 7594  13.054   6.225   6.386
 1919SOL     OW 7595  12.768   8.651   7.286
 1919SOL    HW1 7596  12.727   8.733   7.258
 1919SOL    HW2 7597  12.700   8.585   7.277
 1920SOL     OW 7598   6.696  10.241  12.392
 1920SOL    HW1 7599   6.782  10.206  12.415
 1920SOL    HW2 7600   6.648  10.244  12.474
 1921SOL     OW 7601   2.649  13.499   2.143
 1921SOL    HW1 7602   2.563  13.496   2.103
 1921SOL    HW2 7603   2.633  13.525   2.234
 1922SOL     OW 7604  14.844  14.690  13.497
 1922SOL    HW1 7605  14.789  14.618  13.467
 1922SOL    HW2 7606   0.044  14.647  13.529
 1923SOL     OW 7607   4.638   7.254   4.707
 1923SOL    HW1 7608   4.713   7.311   4.719
 1923SOL    HW2 7609   4.565   7.313   4.690
 1924SOL     OW 7610  11.281   9.002   1.331
 1924SOL    HW1 7611  11.346   8.971   1.267
 1924SOL    HW2 7612  11.278   8.934   1.398
 1925SOL     OW 7613   2.412   3.788  10.305
 1925SOL    HW1 7614   2.331   3.763  10.260
 1925SOL    HW2 7615   2.392   3.779  10.398
 1926SOL     OW 7616   4.728  10.486   7.814
 1926SOL    HW1 7617   4.682  10.556   7.768
 1926SOL    HW2 7618   4.663  10.451   7.875
 1927SOL     OW 7619  14.586   3.046  10.474
 1927SOL    HW1 7620  14.632   3.032  10.391
 1927SOL    HW2 7621  14.647   3.098  10.527
 1928SOL     OW 7622   2.849  14.659   3.020
 1928SOL    HW1 7623   2.838  14.749   3.049
 1928SOL    HW2 7624   2.766  14.637   2.978
 1929SOL     OW 7625   9.936  13.415   2.885
 1929SOL    HW1 7626   9.993  13.427   2.961
 1929SOL    HW2 7627   9.994  13.386   2.815
 1930SOL     OW 7628   3.864   8.130   8.399
 1930SOL    HW1 7629   3.817   8.047   8.398
 1930SOL    HW2 7630   3.864   8.156   8.491
 1931SOL     OW 7631   2.132  13.539  13.752
 1931SOL    HW1 7632   2.160  13.469  13.811
 1931SOL    HW2 7633   2.170  13.618  13.790
 1932SOL     OW 7634   6.419   4.658   2.001
 1932SOL    HW1 7635   6.455   4.570   1.993
 1932SOL    HW2 7636   6.397   4.683   1.912
 1933SOL     OW 7637   2.164  12.328  13.927
 1933SOL    HW1 7638   2.258  12.342  13.917
 1933SOL    HW2 7639   2.126  12.365  13.847
 1934SOL     OW 7640  12.416   9.173  11.608
 1934SOL    HW1 7641  12.416   9.098  11.667
 1934SOL    HW2 7642  12.353   9.151  11.540
 1935SOL     OW 7643   5.876   6.369   6.812
 1935SOL    HW1 7644   5.884   6.411   6.897
 1935SOL    HW2 7645   5.911   6.280   6.825
 1936SOL     OW 7646   3.590  13.936   9.888
 1936SOL    HW1 7647   3.621  13.932   9.978
 1936SOL    HW2 7648   3.597  14.028   9.864
 1937SOL     OW 7649   7.603   5.514   8.594
 1937SOL    HW1 7650   7.664   5.480   8.660
 1937SOL    HW2 7651   7.524   5.537   8.643
 1938SOL     OW 7652   3.958  13.962  11.507
 1938SOL    HW1 7653   4.041  13.968  11.462
 1938SOL    HW2 7654   3.980  13.927  11.594
 1939SOL     OW 7655  11.477   8.446   7.756
 1939SOL    HW1 7656  11.391   8.447   7.713
 1939SOL    HW2 7657  11.538   8.425   7.686
 1940SOL     OW 7658   1.387  10.178   5.654
 1940SOL    HW1 7659   1.477  10.163   5.684
 1940SOL    HW2 7660   1.347  10.233   5.721
 1941SOL     OW 7661  12.233   6.252   8.931
 1941SOL    HW1 7662  12.164   6.315   8.950
 1941SOL    HW2 7663  12.223   6.185   8.999
 1942SOL     OW 7664  12.605   7.328   6.074
 1942SOL    HW1 7665  12.560   7.404   6.112
 1942SOL    HW2 7666  12.579   7.254   6.129
 1943SOL     OW 7667  11.001   3.372  11.258
 1943SOL    HW1 7668  10.987   3.291  11.208
 1943SOL    HW2 7669  10.967   3.352  11.345
 1944SOL     OW 7670   5.025  13.281  12.204
 1944SOL    HW1 7671   5.096  13.254  12.145
 1944SOL    HW2 7672   5.035  13.225  12.281
 1945SOL     OW 7673   2.804  11.830   1.738
 1945SOL    HW1 7674   2.800  11.743   1.699
 1945SOL    HW2 7675   2.712  11.852   1.758
 1946SOL     OW 7676   1.921  11.888  12.248
 1946SOL    HW1 7677   1.993  11.859  12.193
 1946SOL    HW2 7678   1.963  11.929  12.324
 1947SOL     OW 7679   1.648   3.943   4.667
 1947SOL    HW1 7680   1.590   3.868   4.675
 1947SOL    HW2 7681   1.620   3.986   4.585
 1948SOL     OW 7682   4.153   9.943   9.620
 1948SOL    HW1 7683   4.224   9.938   9.685
 1948SOL    HW2 7684   4.191   9.992   9.547
 1949SOL     OW 7685   4.361   1.362   8.015
 1949SOL    HW1 7686   4.364   1.322   7.928
 1949SOL    HW2 7687   4.316   1.445   8.002
 1950SOL     OW 7688   6.773   1.612   8.074
 1950SOL    HW1 7689   6.768   1.526   8.117
 1950SOL    HW2 7690   6.825   1.665   8.135
 1951SOL     OW 7691  13.995   6.773   6.021
 1951SOL    HW1 7692  13.952   6.847   5.979
 1951SOL    HW2 7693  13.964   6.776   6.112
 1952SOL     OW 7694  10.695  12.104  14.819
 1952SOL    HW1 7695  10.645  12.055   0.004
 1952SOL    HW2 7696  10.732  12.037  14.762
 1953SOL     OW 7697   6.746  13.651  10.048
 1953SOL    HW1 7698   6.659  13.613  10.034
 1953SOL    HW2 7699   6.733  13.745  10.039
 1954SOL     OW 7700   1.647  13.911  14.365
 1954SOL    HW1 7701   1.638  13.925  14.271
 1954SOL    HW2 7702   1.713  13.975  14.392
 1955SOL     OW 7703   6.183  10.561   2.963
 1955SOL    HW1 7704   6.238  10.530   3.035
 1955SOL    HW2 7705   6.104  10.509   2.969
 1956SOL     OW 7706   0.610   5.493   8.142
 1956SOL    HW1 7707   0.604   5.506   8.047
 1956SOL    HW2 7708   0.651   5.573   8.174
 1957SOL     OW 7709  11.792  14.719   0.691
 1957SOL    HW1 7710  11.819  14.632   0.719
 1957SOL    HW2 7711  11.741  14.753   0.764
 1958SOL     OW 7712  14.659   6.928   0.272
 1958SOL    HW1 7713  14.634   6.836   0.262
 1958SOL    HW2 7714  14.605   6.974   0.208
 1959SOL     OW 7715   0.358  14.819   5.011
 1959SOL    HW1 7716   0.326   0.030   5.018
 1959SOL    HW2 7717   0.380  14.795   5.100
 1960SOL     OW 7718  13.441   8.993  13.797
 1960SOL    HW1 7719  13.405   9.078  13.773
 1960SOL    HW2 7720  13.365   8.936  13.806
 1961SOL     OW 7721   5.840  13.758  13.341
 1961SOL    HW1 7722   5.932  13.781  13.330
 1961SOL    HW2 7723   5.833  13.668  13.309
 1962SOL     OW 7724   1.754   5.188   0.705
 1962SOL    HW1 7725   1.804   5.265   0.732
 1962SOL    HW2 7726   1.811   5.144   0.642
 1963SOL     OW 7727  12.416   3.188   1.349
 1963SOL    HW1 7728  12.324   3.207   1.364
 1963SOL    HW2 7729  12.461   3.270   1.370
 1964SOL     OW 7730   3.523  11.339   7.522
 1964SOL    HW1 7731   3.602  11.344   7.575
 1964SOL    HW2 7732   3.453  11.320   7.585
 1965SOL     OW 7733  14.806  11.064   4.714
 1965SOL    HW1 7734  14.854  11.146   4.726
 1965SOL    HW2 7735  14.870  11.003   4.678
 1966SOL     OW 7736   4.950   6.808   7.556
 1966SOL    HW1 7737   5.019   6.775   7.499
 1966SOL    HW2 7738   4.963   6.903   7.558
 1967SOL     OW 7739   5.505   3.544  12.784
 1967SOL    HW1 7740   5.494   3.473  12.847
 1967SOL    HW2 7741   5.568   3.510  12.720
 1968SOL     OW 7742   8.877   8.703  14.641
 1968SOL    HW1 7743   8.812   8.747  14.696
 1968SOL    HW2 7744   8.950   8.685  14.701
 1969SOL     OW 7745   9.230  11.724   9.428
 1969SOL    HW1 7746   9.290  11.658   9.464
 1969SOL    HW2 7747   9.202  11.688   9.344
 1970SOL     OW 7748   7.363  12.421  14.840
 1970SOL    HW1 7749   7.343  12.479  14.766
 1970SOL    HW2 7750   7.371  12.335  14.801
 1971SOL     OW 7751   2.503   9.571   2.004
 1971SOL    HW1 7752   2.451   9.490   2.011
 1971SOL    HW2 7753   2.594   9.541   2.007
 1972SOL     OW 7754   1.748   4.358   3.095
 1972SOL    HW1 7755   1.796   4.412   3.032
 1972SOL    HW2 7756   1.704   4.420   3.152
 1973SOL     OW 7757   9.870   0.791   7.784
 1973SOL    HW1 7758   9.901   0.726   7.846
 1973SOL    HW2 7759   9.944   0.806   7.725
 1974SOL     OW 7760   4.876   6.214  11.613
 1974SOL    HW1 7761   4.910   6.164  11.687
 1974SOL    HW2 7762   4.792   6.247  11.644
 1975SOL     OW 7763   0.565   6.654   2.792
 1975SOL    HW1 7764   0.547   6.559   2.790
 1975SOL    HW2 7765   0.550   6.679   2.883
 1976SOL     OW 7766  13.118   3.825   3.871
 1976SOL    HW1 7767  13.131   3.866   3.786
 1976SOL    HW2 7768  13.190   3.857   3.925
 1977SOL     OW 7769  12.974   7.946  13.030
 1977SOL    HW1 7770  12.969   7.852  13.048
 1977SOL    HW2 7771  13.019   7.952  12.946
 1978SOL     OW 7772   1.686   8.528   8.652
 1978SOL    HW1 7773   1.606   8.486   8.620
 1978SOL    HW2 7774   1.720   8.468   8.719
 1979SOL     OW 7775   9.541   5.378   3.675
 1979SOL    HW1 7776   9.566   5.432   3.750
 1979SOL    HW2 7777   9.615   5.319   3.661
 1980SOL     OW 7778   8.165   4.319  13.064
 1980SOL    HW1 7779   8.195   4.408  13.047
 1980SOL    HW2 7780   8.206   4.266  12.996
 1981SOL     OW 7781  14.563   1.638  11.702
 1981SOL    HW1 7782  14.599   1.559  11.662
 1981SOL    HW2 7783  14.627   1.662  11.768
 1982SOL     OW 7784   2.279   7.495   8.131
 1982SOL    HW1 7785   2.293   7.586   8.157
 1982SOL    HW2 7786   2.327   7.486   8.049
 1983SOL     OW 7787   3.582  12.598  11.778
 1983SOL    HW1 7788   3.544  12.538  11.842
 1983SOL    HW2 7789   3.565  12.558  11.693
 1984SOL     OW 7790   3.699   1.428   3.803
 1984SOL    HW1 7791   3.648   1.391   3.875
 1984SOL    HW2 7792   3.744   1.504   3.842
 1985SOL     OW 7793   6.773  12.606   2.588
 1985SOL    HW1 7794   6.731  12.597   2.503
 1985SOL    HW2 7795   6.834  12.678   2.578
 1986SOL     OW 7796   2.441   1.815   6.104
 1986SOL    HW1 7797   2.463   1.749   6.039
 1986SOL    HW2 7798   2.508   1.882   6.095
 1987SOL     OW 7799   1.725   6.951   9.847
 1987SOL    HW1 7800   1.736   6.898   9.927
 1987SOL    HW2 7801   1.648   7.004   9.864
 1988SOL     OW 7802   1.917   3.063   3.832
 1988SOL    HW1 7803   1.880   3.141   3.791
 1988SOL    HW2 7804   1.869   2.990   3.792
 1989SOL     OW 7805   0.397  14.821   9.282
 1989SOL    HW1 7806   0.430   0.023   9.322
 1989SOL    HW2 7807   0.340  14.850   9.212
 1990SOL     OW 7808  12.728   9.565  11.661
 1990SOL    HW1 7809  12.796   9.499  11.649
 1990SOL    HW2 7810  12.657   9.518  11.706
 1991SOL     OW 7811  13.235   0.359   8.067
 1991SOL    HW1 7812  13.211   0.290   8.005
 1991SOL    HW2 7813  13.290   0.419   8.016
 1992SOL     OW 7814   6.389   8.093   3.855
 1992SOL    HW1 7815   6.456   8.158   3.831
 1992SOL    HW2 7816   6.394   8.088   3.951
 1993SOL     OW 7817   7.905   0.700   6.827
 1993SOL    HW1 7818   7.995   0.670   6.839
 1993SOL    HW2 7819   7.893   0.702   6.732
 1994SOL     OW 7820   9.840   3.364   9.485
 1994SOL    HW1 7821   9.746   3.356   9.467
 1994SOL    HW2 7822   9.875   3.277   9.466
 1995SOL     OW 7823   3.070  10.880   6.460
 1995SOL    HW1 7824   3.135  10.950   6.463
 1995SOL    HW2 7825   3.005  10.905   6.526
 1996SOL     OW 7826  11.530  14.572   2.702
 1996SOL    HW1 7827  11.574  14.553   2.620
 1996SOL    HW2 7828  11.512  14.486   2.740
 1997SOL     OW 7829   2.718  12.680   8.531
 1997SOL    HW1 7830   2.677  12.683   8.445
 1997SOL    HW2 7831   2.650  12.710   8.591
 1998SOL     OW 7832  10.937  11.914   3.776
 1998SOL    HW1 7833  10.845  11.912   3.752
 1998SOL    HW2 7834  10.984  11.888   3.696
 1999SOL     OW 7835   4.345   9.625   1.795
 1999SOL    HW1 7836   4.257   9.659   1.776
 1999SOL    HW2 7837   4.348   9.619   1.891
 2000SOL     OW 7838  13.695  11.996  14.320
 2000SOL    HW1 7839  13.717  12.077  14.272
 2000SOL    HW2 7840  13.770  11.982  14.378
 2001SOL     OW 7841   4.880   6.913   4.857
 2001SOL    HW1 7842   4.812   6.943   4.797
 2001SOL    HW2 7843   4.884   6.818   4.843
 2002SOL     OW 7844  11.240   0.674   1.957
 2002SOL    HW1 7845  11.289   0.711   1.884
 2002SOL    HW2 7846  11.304   0.669   2.028
 2003SOL     OW 7847  11.115   5.966  13.913
 2003SOL    HW1 7848  11.170   5.918  13.851
 2003SOL    HW2 7849  11.032   5.978  13.868
 2004SOL     OW 7850   8.508   9.355   6.636
 2004SOL    HW1 7851   8.457   9.434   6.655
 2004SOL    HW2 7852   8.599   9.384   6.639
 2005SOL     OW 7853   6.033   4.603   6.867
 2005SOL    HW1 7854   5.943   4.608   6.834
 2005SOL    HW2 7855   6.086   4.645   6.798
 2006SOL     OW 7856   1.301   3.055  13.182
 2006SOL    HW1 7857   1.350   3.073  13.102
 2006SOL    HW2 7858   1.211   3.040  13.152
 2007SOL     OW 7859  10.403   8.535   9.767
 2007SOL    HW1 7860  10.429   8.488   9.688
 2007SOL    HW2 7861  10.456   8.496   9.836
 2008SOL     OW 7862   1.992  10.308   5.855
 2008SOL    HW1 7863   1.971  10.231   5.802
 2008SOL    HW2 7864   1.958  10.287   5.942
 2009SOL     OW 7865  10.682   0.152  12.331
 2009SOL    HW1 7866  10.746   0.086  12.303
 2009SOL    HW2 7867  10.598   0.119  12.300
 2010SOL     OW 7868  12.626   7.668   8.342
 2010SOL    HW1 7869  12.661   7.588   8.381
 2010SOL    HW2 7870  12.531   7.657   8.347
 2011SOL     OW 7871   7.764   9.864   1.397
 2011SOL    HW1 7872   7.748   9.912   1.479
 2011SOL    HW2 7873   7.770   9.772   1.423
 2012SOL     OW 7874  10.595  13.072   8.861
 2012SOL    HW1 7875  10.614  12.982   8.887
 2012SOL    HW2 7876  10.612  13.074   8.767
 2013SOL     OW 7877  11.476   0.545   5.721
 2013SOL    HW1 7878  11.527   0.473   5.683
 2013SOL    HW2 7879  11.400   0.554   5.664
 2014SOL     OW 7880   5.883   2.499   8.952
 2014SOL    HW1 7881   5.907   2.510   8.859
 2014SOL    HW2 7882   5.801   2.548   8.961
 2015SOL     OW 7883   5.605   8.100  10.779
 2015SOL    HW1 7884   5.627   8.068  10.866
 2015SOL    HW2 7885   5.532   8.160  10.793
 2016SOL     OW 7886   2.160   3.061  13.420
 2016SOL    HW1 7887   2.070   3.071  13.451
 2016SOL    HW2 7888   2.214   3.077  13.498
 2017SOL     OW 7889   3.249  14.517   3.502
 2017SOL    HW1 7890   3.333  14.563   3.493
 2017SOL    HW2 7891   3.260  14.460   3.577
 2018SOL     OW 7892   0.921  12.375   5.650
 2018SOL    HW1 7893   0.827  12.362   5.663
 2018SOL    HW2 7894   0.956  12.382   5.739
 2019SOL     OW 7895  10.917  12.778   4.591
 2019SOL    HW1 7896  10.868  12.860   4.579
 2019SOL    HW2 7897  10.919  12.739   4.504
 2020SOL     OW 7898  12.830   5.689   4.629
 2020SOL    HW1 7899  12.753   5.745   4.634
 2020SOL    HW2 7900  12.796   5.601   4.614
 2021SOL     OW 7901   2.498  10.258  10.212
 2021SOL    HW1 7902   2.484  10.351  10.231
 2021SOL    HW2 7903   2.579  10.236  10.257
 2022SOL     OW 7904   6.028  12.904  14.030
 2022SOL    HW1 7905   5.937  12.873  14.024
 2022SOL    HW2 7906   6.079  12.825  14.048
 2023SOL     OW 7907  13.373   3.015   8.321
 2023SOL    HW1 7908  13.451   3.043   8.272
 2023SOL    HW2 7909  13.301   3.059   8.277
 2024SOL     OW 7910  14.517  10.396  14.669
 2024SOL    HW1 7911  14.585  10.436  14.615
 2024SOL    HW2 7912  14.518  10.303  14.644
 2025SOL     OW 7913   1.892   6.831   8.094
 2025SOL    HW1 7914   1.827   6.859   8.159
 2025SOL    HW2 7915   1.974   6.869   8.124
 2026SOL     OW 7916   5.058  10.142   1.676
 2026SOL    HW1 7917   5.059  10.188   1.592
 2026SOL    HW2 7918   4.992  10.187   1.728
 2027SOL     OW 7919  13.277  10.960   9.903
 2027SOL    HW1 7920  13.350  11.020   9.890
 2027SOL    HW2 7921  13.218  11.007   9.963
 2028SOL     OW 7922   9.237   0.113  14.174
 2028SOL    HW1 7923   9.288   0.051  14.227
 2028SOL    HW2 7924   9.303   0.159  14.122
 2029SOL     OW 7925   0.909   6.871   7.255
 2029SOL    HW1 7926   0.967   6.947   7.263
 2029SOL    HW2 7927   0.822   6.909   7.244
 2030SOL     OW 7928   5.704   7.692   2.074
 2030SOL    HW1 7929   5.740   7.728   2.155
 2030SOL    HW2 7930   5.616   7.730   2.068
 2031SOL     OW 7931   9.634  11.811  11.748
 2031SOL    HW1 7932   9.629  11.861  11.667
 2031SOL    HW2 7933   9.555  11.836  11.797
 2032SOL     OW 7934   1.309   7.157  10.504
 2032SOL    HW1 7935   1.263   7.241  10.500
 2032SOL    HW2 7936   1.300   7.129  10.595
 2033SOL     OW 7937   5.908   5.717   3.550
 2033SOL    HW1 7938   5.972   5.786   3.569
 2033SOL    HW2 7939   5.849   5.719   3.625
 2034SOL     OW 7940   1.620   5.404   3.133
 2034SOL    HW1 7941   1.690   5.346   3.104
 2034SOL    HW2 7942   1.622   5.477   3.071
 2035SOL     OW 7943   9.226   8.411   2.439
 2035SOL    HW1 7944   9.259   8.488   2.483
 2035SOL    HW2 7945   9.172   8.367   2.505
 2036SOL     OW 7946   1.252   0.796   3.401
 2036SOL    HW1 7947   1.246   0.890   3.384
 2036SOL    HW2 7948   1.262   0.757   3.314
 2037SOL     OW 7949   5.964   2.996  14.286
 2037SOL    HW1 7950   5.975   3.091  14.278
 2037SOL    HW2 7951   5.922   2.970  14.204
 2038SOL     OW 7952   0.573   6.433   3.805
 2038SOL    HW1 7953   0.651   6.425   3.860
 2038SOL    HW2 7954   0.543   6.522   3.819
 2039SOL     OW 7955   6.923   4.543   2.082
 2039SOL    HW1 7956   6.866   4.521   2.155
 2039SOL    HW2 7957   6.877   4.510   2.005
 2040SOL     OW 7958   8.775  10.065  13.383
 2040SOL    HW1 7959   8.705  10.010  13.350
 2040SOL    HW2 7960   8.856  10.027  13.348
 2041SOL     OW 7961  11.002  13.899   6.705
 2041SOL    HW1 7962  11.049  13.980   6.686
 2041SOL    HW2 7963  10.987  13.902   6.800
 2042SOL     OW 7964   9.518   4.233   0.177
 2042SOL    HW1 7965   9.447   4.186   0.221
 2042SOL    HW2 7966   9.593   4.174   0.184
 2043SOL     OW 7967   4.492  12.826   4.965
 2043SOL    HW1 7968   4.540  12.788   5.039
 2043SOL    HW2 7969   4.423  12.763   4.946
 2044SOL     OW 7970   3.290   6.309   7.314
 2044SOL    HW1 7971   3.219   6.373   7.319
 2044SOL    HW2 7972   3.252   6.228   7.349
 2045SOL     OW 7973   7.596   0.093  11.617
 2045SOL    HW1 7974   7.623   0.019  11.562
 2045SOL    HW2 7975   7.516   0.125  11.576
 2046SOL     OW 7976  11.925   0.455   1.658
 2046SOL    HW1 7977  11.972   0.537   1.672
 2046SOL    HW2 7978  11.952   0.426   1.571
 2047SOL     OW 7979  12.259   2.642  13.020
 2047SOL    HW1 7980  12.315   2.565  13.024
 2047SOL    HW2 7981  12.255   2.674  13.110
 2048SOL     OW 7982   5.274   0.654   5.089
 2048SOL    HW1 7983   5.300   0.666   4.998
 2048SOL    HW2 7984   5.238   0.566   5.093
 2049SOL     OW 7985   0.640   7.228   4.478
 2049SOL    HW1 7986   0.726   7.190   4.460
 2049SOL    HW2 7987   0.657   7.293   4.546
 2050SOL     OW 7988   6.219   2.217   6.097
 2050SOL    HW1 7989   6.176   2.230   6.012
 2050SOL    HW2 7990   6.158   2.256   6.161
 2051SOL     OW 7991   4.559   0.207   2.411
 2051SOL    HW1 7992   4.495   0.259   2.362
 2051SOL    HW2 7993   4.644   0.239   2.381
 2052SOL     OW 7994   6.641  12.725  10.798
 2052SOL    HW1 7995   6.633  12.698  10.707
 2052SOL    HW2 7996   6.581  12.667  10.846
 2053SOL     OW 7997   0.075  13.088   4.798
 2053SOL    HW1 7998   0.027  13.148   4.740
 2053SOL    HW2 7999   0.060  13.002   4.760
 2054SOL     OW 8000   2.246  12.707  12.098
 2054SOL    HW1 8001   2.237  12.788  12.148
 2054SOL    HW2 8002   2.201  12.725  12.015
 2055SOL     OW 8003  11.806   1.202   8.596
 2055SOL    HW1 8004  11.778   1.141   8.527
 2055SOL    HW2 8005  11.745   1.186   8.668
 2056SOL     OW 8006  11.246  14.315   7.009
 2056SOL    HW1 8007  11.273  14.380   7.073
 2056SOL    HW2 8008  11.153  14.332   6.994
 2057SOL     OW 8009   6.465   8.398   2.804
 2057SOL    HW1 8010   6.452   8.312   2.845
 2057SOL    HW2 8011   6.461   8.381   2.710
 2058SOL     OW 8012  12.165   1.382  13.523
 2058SOL    HW1 8013  12.114   1.329  13.462
 2058SOL    HW2 8014  12.103   1.409  13.590
 2059SOL     OW 8015   1.372   2.642  13.724
 2059SOL    HW1 8016   1.291   2.689  13.702
 2059SOL    HW2 8017   1.342   2.557  13.755
 2060SOL     OW 8018   2.146   6.942   6.310
 2060SOL    HW1 8019   2.232   6.907   6.332
 2060SOL    HW2 8020   2.133   7.014   6.371
 2061SOL     OW 8021   0.209   0.891   3.964
 2061SOL    HW1 8022   0.139   0.934   3.915
 2061SOL    HW2 8023   0.289   0.917   3.919
 2062SOL     OW 8024   7.112   2.563   3.381
 2062SOL    HW1 8025   7.190   2.512   3.358
 2062SOL    HW2 8026   7.146   2.631   3.439
 2063SOL     OW 8027   4.249  11.797  13.215
 2063SOL    HW1 8028   4.280  11.836  13.297
 2063SOL    HW2 8029   4.314  11.824  13.150
 2064SOL     OW 8030   0.099  14.488   4.342
 2064SOL    HW1 8031   0.077  14.464   4.432
 2064SOL    HW2 8032   0.017  14.476   4.294
 2065SOL     OW 8033   0.356  10.260   6.775
 2065SOL    HW1 8034   0.265  10.234   6.789
 2065SOL    HW2 8035   0.399  10.181   6.741
 2066SOL     OW 8036   4.770   6.806   0.871
 2066SOL    HW1 8037   4.748   6.853   0.951
 2066SOL    HW2 8038   4.735   6.718   0.883
 2067SOL     OW 8039  11.175  12.273   2.500
 2067SOL    HW1 8040  11.158  12.345   2.440
 2067SOL    HW2 8041  11.255  12.298   2.545
 2068SOL     OW 8042   3.275   7.901   5.920
 2068SOL    HW1 8043   3.213   7.838   5.884
 2068SOL    HW2 8044   3.344   7.847   5.958
 2069SOL     OW 8045   1.812   3.914   4.109
 2069SOL    HW1 8046   1.726   3.944   4.140
 2069SOL    HW2 8047   1.868   3.992   4.115
 2070SOL     OW 8048   7.453   7.388  11.129
 2070SOL    HW1 8049   7.447   7.292  11.132
 2070SOL    HW2 8050   7.367   7.416  11.099
 2071SOL     OW 8051   7.109   6.043   8.847
 2071SOL    HW1 8052   7.094   6.125   8.893
 2071SOL    HW2 8053   7.022   6.002   8.843
 2072SOL     OW 8054  11.848   4.457   0.974
 2072SOL    HW1 8055  11.866   4.521   1.043
 2072SOL    HW2 8056  11.755   4.439   0.983
 2073SOL     OW 8057  13.567  10.359   7.850
 2073SOL    HW1 8058  13.543  10.416   7.776
 2073SOL    HW2 8059  13.493  10.300   7.859
 2074SOL     OW 8060   5.532   4.324   0.328
 2074SOL    HW1 8061   5.467   4.269   0.283
 2074SOL    HW2 8062   5.521   4.411   0.288
 2075SOL     OW 8063  14.090   0.589  13.972
 2075SOL    HW1 8064  14.123   0.679  13.975
 2075SOL    HW2 8065  14.169   0.534  13.974
 2076SOL     OW 8066   1.600  14.702  13.409
 2076SOL    HW1 8067   1.678  14.651  13.388
 2076SOL    HW2 8068   1.578  14.748  13.328
 2077SOL     OW 8069  13.845  10.190  12.575
 2077SOL    HW1 8070  13.784  10.129  12.616
 2077SOL    HW2 8071  13.801  10.218  12.494
 2078SOL     OW 8072   5.112   0.551   9.071
 2078SOL    HW1 8073   5.120   0.645   9.057
 2078SOL    HW2 8074   5.066   0.542   9.154
 2079SOL     OW 8075   0.271   5.836   4.225
 2079SOL    HW1 8076   0.342   5.809   4.166
 2079SOL    HW2 8077   0.275   5.932   4.225
 2080SOL     OW 8078   3.062   1.496   4.895
 2080SOL    HW1 8079   3.086   1.561   4.961
 2080SOL    HW2 8080   3.140   1.440   4.887
 2081SOL     OW 8081  13.024   5.961   5.075
 2081SOL    HW1 8082  13.015   6.026   5.007
 2081SOL    HW2 8083  12.937   5.924   5.085
 2082SOL     OW 8084   8.943  12.543   7.467
 2082SOL    HW1 8085   8.868  12.599   7.485
 2082SOL    HW2 8086   8.908  12.474   7.410
 2083SOL     OW 8087   8.714  12.584  14.674
 2083SOL    HW1 8088   8.686  12.590  14.766
 2083SOL    HW2 8089   8.668  12.655  14.630
 2084SOL     OW 8090   9.136   6.329   8.484
 2084SOL    HW1 8091   9.092   6.385   8.548
 2084SOL    HW2 8092   9.149   6.246   8.530
 2085SOL     OW 8093   2.401   5.630   5.635
 2085SOL    HW1 8094   2.359   5.546   5.653
 2085SOL    HW2 8095   2.413   5.670   5.721
 2086SOL     OW 8096   2.585   2.097  14.093
 2086SOL    HW1 8097   2.526   2.038  14.046
 2086SOL    HW2 8098   2.633   2.041  14.153
 2087SOL     OW 8099   7.749   7.263  13.990
 2087SOL    HW1 8100   7.742   7.331  14.057
 2087SOL    HW2 8101   7.824   7.210  14.016
 2088SOL     OW 8102   1.249   2.672  14.512
 2088SOL    HW1 8103   1.209   2.756  14.537
 2088SOL    HW2 8104   1.322   2.661  14.573
 2089SOL     OW 8105   0.818   5.762  12.299
 2089SOL    HW1 8106   0.876   5.688  12.317
 2089SOL    HW2 8107   0.756   5.728  12.234
 2090SOL     OW 8108  11.952   9.122   7.976
 2090SOL    HW1 8109  12.017   9.054   7.955
 2090SOL    HW2 8110  11.926   9.158   7.891
 2091SOL     OW 8111   0.439   3.369  13.456
 2091SOL    HW1 8112   0.507   3.304  13.442
 2091SOL    HW2 8113   0.425   3.368  13.551
 2092SOL     OW 8114  10.399  10.483  13.321
 2092SOL    HW1 8115  10.308  10.503  13.298
 2092SOL    HW2 8116  10.419  10.403  13.271
 2093SOL     OW 8117   1.170  11.459   2.241
 2093SOL    HW1 8118   1.133  11.374   2.218
 2093SOL    HW2 8119   1.250  11.465   2.190
 2094SOL     OW 8120   9.791  11.352  11.401
 2094SOL    HW1 8121   9.748  11.423  11.354
 2094SOL    HW2 8122   9.724  11.318  11.461
 2095SOL     OW 8123   2.944   6.271   1.419
 2095SOL    HW1 8124   2.878   6.258   1.350
 2095SOL    HW2 8125   2.953   6.185   1.460
 2096SOL     OW 8126   8.964  11.525   7.671
 2096SOL    HW1 8127   8.924  11.577   7.602
 2096SOL    HW2 8128   8.907  11.538   7.747
 2097SOL     OW 8129  13.650   5.887   6.863
 2097SOL    HW1 8130  13.719   5.935   6.817
 2097SOL    HW2 8131  13.624   5.818   6.802
 2098SOL     OW 8132  13.744   9.687   1.316
 2098SOL    HW1 8133  13.779   9.774   1.298
 2098SOL    HW2 8134  13.696   9.696   1.399
 2099SOL     OW 8135   1.177  11.811   7.648
 2099SOL    HW1 8136   1.122  11.741   7.615
 2099SOL    HW2 8137   1.236  11.768   7.711
 2100SOL     OW 8138   3.512   7.581  10.666
 2100SOL    HW1 8139   3.546   7.533  10.591
 2100SOL    HW2 8140   3.454   7.646  10.629
 2101SOL     OW 8141   2.436   7.987   0.757
 2101SOL    HW1 8142   2.409   7.949   0.840
 2101SOL    HW2 8143   2.515   7.939   0.734
 2102SOL     OW 8144   2.268  14.876   9.045
 2102SOL    HW1 8145   2.328  14.879   9.120
 2102SOL    HW2 8146   2.204   0.065   9.062
 2103SOL     OW 8147  10.673   9.949   1.099
 2103SOL    HW1 8148  10.764   9.981   1.099
 2103SOL    HW2 8149  10.635   9.987   1.178
 2104SOL     OW 8150   5.351   1.688   7.041
 2104SOL    HW1 8151   5.444   1.711   7.031
 2104SOL    HW2 8152   5.335   1.697   7.135
 2105SOL     OW 8153   8.257   3.304   2.653
 2105SOL    HW1 8154   8.185   3.364   2.672
 2105SOL    HW2 8155   8.322   3.322   2.722
 2106SOL     OW 8156   5.504  13.084   6.287
 2106SOL    HW1 8157   5.481  13.160   6.341
 2106SOL    HW2 8158   5.523  13.121   6.201
 2107SOL     OW 8159  11.041   3.359   3.902
 2107SOL    HW1 8160  11.058   3.307   3.980
 2107SOL    HW2 8161  11.068   3.448   3.925
 2108SOL     OW 8162   9.634   3.193   9.127
 2108SOL    HW1 8163   9.720   3.230   9.109
 2108SOL    HW2 8164   9.575   3.268   9.129
 2109SOL     OW 8165  14.187   1.955   4.345
 2109SOL    HW1 8166  14.142   2.036   4.367
 2109SOL    HW2 8167  14.278   1.970   4.372
 2110SOL     OW 8168  12.482  10.571   0.476
 2110SOL    HW1 8169  12.554  10.631   0.461
 2110SOL    HW2 8170  12.452  10.545   0.389
 2111SOL     OW 8171   4.904   2.670  12.451
 2111SOL    HW1 8172   4.941   2.756  12.470
 2111SOL    HW2 8173   4.885   2.672  12.357
 2112SOL     OW 8174  11.393  14.549   1.637
 2112SOL    HW1 8175  11.396  14.632   1.684
 2112SOL    HW2 8176  11.319  14.559   1.577
 2113SOL     OW 8177   0.149   4.642   5.182
 2113SOL    HW1 8178   0.069   4.633   5.233
 2113SOL    HW2 8179   0.128   4.705   5.113
 2114SOL     OW 8180   3.663   9.659   3.264
 2114SOL    HW1 8181   3.720   9.674   3.340
 2114SOL    HW2 8182   3.575   9.678   3.297
 2115SOL     OW 8183  12.879   4.956  12.885
 2115SOL    HW1 8184  12.845   4.888  12.943
 2115SOL    HW2 8185  12.901   5.029  12.943
 2116SOL     OW 8186   6.177   6.105   0.794
 2116SOL    HW1 8187   6.263   6.069   0.816
 2116SOL    HW2 8188   6.192   6.155   0.713
 2117SOL     OW 8189   2.936   1.050   8.066
 2117SOL    HW1 8190   2.978   1.130   8.033
 2117SOL    HW2 8191   2.843   1.063   8.049
 2118SOL     OW 8192   2.753   8.610   6.553
 2118SOL    HW1 8193   2.828   8.620   6.611
 2118SOL    HW2 8194   2.777   8.539   6.494
 2119SOL     OW 8195   1.138   5.910  11.285
 2119SOL    HW1 8196   1.174   5.826  11.315
 2119SOL    HW2 8197   1.075   5.885  11.217
 2120SOL     OW 8198   1.658   0.219   0.578
 2120SOL    HW1 8199   1.630   0.217   0.487
 2120SOL    HW2 8200   1.590   0.172   0.626
 2121SOL     OW 8201   8.949   1.439   2.752
 2121SOL    HW1 8202   8.991   1.431   2.666
 2121SOL    HW2 8203   8.872   1.493   2.735
 2122SOL     OW 8204   4.374  13.184   6.673
 2122SOL    HW1 8205   4.452  13.139   6.640
 2122SOL    HW2 8206   4.384  13.183   6.768
 2123SOL     OW 8207   3.201   8.944   7.437
 2123SOL    HW1 8208   3.164   8.908   7.518
 2123SOL    HW2 8209   3.285   8.899   7.428
 2124SOL     OW 8210   8.724   0.585  10.058
 2124SOL    HW1 8211   8.705   0.650  10.125
 2124SOL    HW2 8212   8.673   0.612   9.982
 2125SOL     OW 8213  12.242   6.170   1.916
 2125SOL    HW1 8214  12.269   6.252   1.875
 2125SOL    HW2 8215  12.222   6.195   2.006
 2126SOL     OW 8216  11.127  10.348   3.749
 2126SOL    HW1 8217  11.160  10.263   3.719
 2126SOL    HW2 8218  11.162  10.411   3.687
 2127SOL     OW 8219   3.249   9.039   1.138
 2127SOL    HW1 8220   3.171   8.984   1.141
 2127SOL    HW2 8221   3.217   9.127   1.123
 2128SOL     OW 8222  14.208   1.872   0.046
 2128SOL    HW1 8223  14.153   1.793   0.043
 2128SOL    HW2 8224  14.266   1.857   0.121
 2129SOL     OW 8225   8.144  14.402  13.092
 2129SOL    HW1 8226   8.142  14.404  13.188
 2129SOL    HW2 8227   8.226  14.445  13.068
 2130SOL     OW 8228  12.847  11.823  14.039
 2130SOL    HW1 8229  12.782  11.796  13.974
 2130SOL    HW2 8230  12.890  11.899  14.000
 2131SOL     OW 8231   4.358   0.922  13.100
 2131SOL    HW1 8232   4.413   1.000  13.095
 2131SOL    HW2 8233   4.381   0.871  13.023
 2132SOL     OW 8234   8.498   9.233   2.008
 2132SOL    HW1 8235   8.406   9.222   2.031
 2132SOL    HW2 8236   8.508   9.326   1.989
 2133SOL     OW 8237  14.517  11.174   6.549
 2133SOL    HW1 8238  14.479  11.218   6.625
 2133SOL    HW2 8239  14.463  11.096   6.536
 2134SOL     OW 8240   1.012   4.568   0.888
 2134SOL    HW1 8241   1.034   4.658   0.867
 2134SOL    HW2 8242   1.093   4.519   0.875
 2135SOL     OW 8243   9.270   5.523  13.089
 2135SOL    HW1 8244   9.260   5.608  13.046
 2135SOL    HW2 8245   9.361   5.520  13.116
 2136SOL     OW 8246  10.253   9.216   9.974
 2136SOL    HW1 8247  10.326   9.222  10.035
 2136SOL    HW2 8248  10.197   9.148  10.010
 2137SOL     OW 8249   1.167  10.880   6.386
 2137SOL    HW1 8250   1.132  10.791   6.393
 2137SOL    HW2 8251   1.236  10.873   6.321
 2138SOL     OW 8252   4.207  14.117   5.251
 2138SOL    HW1 8253   4.248  14.035   5.279
 2138SOL    HW2 8254   4.168  14.096   5.166
 2139SOL     OW 8255   9.888   3.581  10.870
 2139SOL    HW1 8256   9.984   3.586  10.869
 2139SOL    HW2 8257   9.860   3.669  10.846
 2140SOL     OW 8258  12.806  12.082   0.125
 2140SOL    HW1 8259  12.825  12.008   0.183
 2140SOL    HW2 8260  12.881  12.141   0.135
 2141SOL     OW 8261   7.459  11.081   7.817
 2141SOL    HW1 8262   7.505  11.139   7.757
 2141SOL    HW2 8263   7.392  11.038   7.764
 2142SOL     OW 8264   8.169   3.665  12.709
 2142SOL    HW1 8265   8.191   3.572  12.710
 2142SOL    HW2 8266   8.251   3.710  12.729
 2143SOL     OW 8267   6.296   0.456   9.992
 2143SOL    HW1 8268   6.363   0.389  10.002
 2143SOL    HW2 8269   6.214   0.413  10.017
 2144SOL     OW 8270   8.562   9.217  13.907
 2144SOL    HW1 8271   8.483   9.218  13.961
 2144SOL    HW2 8272   8.542   9.276  13.835
 2145SOL     OW 8273   8.612  13.050   2.214
 2145SOL    HW1 8274   8.645  12.991   2.281
 2145SOL    HW2 8275   8.557  13.112   2.261
 2146SOL     OW 8276  14.829  10.108   8.013
 2146SOL    HW1 8277  14.742  10.147   8.004
 2146SOL    HW2 8278  14.829  10.034   7.952
 2147SOL     OW 8279   9.949  11.275   4.024
 2147SOL    HW1 8280   9.908  11.216   4.088
 2147SOL    HW2 8281   9.895  11.267   3.946
 2148SOL     OW 8282   6.444  12.144   1.844
 2148SOL    HW1 8283   6.472  12.155   1.753
 2148SOL    HW2 8284   6.520  12.168   1.896
 2149SOL     OW 8285  11.523   1.243  14.537
 2149SOL    HW1 8286  11.447   1.201  14.577
 2149SOL    HW2 8287  11.493   1.273  14.452
 2150SOL     OW 8288  11.858   0.115   2.345
 2150SOL    HW1 8289  11.817   0.136   2.261
 2150SOL    HW2 8290  11.862   0.019   2.346
 2151SOL     OW 8291  12.358   1.681  13.394
 2151SOL    HW1 8292  12.297   1.627  13.343
 2151SOL    HW2 8293  12.303   1.728  13.456
 2152SOL     OW 8294   4.961   5.081   6.423
 2152SOL    HW1 8295   4.928   5.014   6.363
 2152SOL    HW2 8296   4.965   5.161   6.371
 2153SOL     OW 8297   9.120   1.654   5.765
 2153SOL    HW1 8298   9.200   1.609   5.791
 2153SOL    HW2 8299   9.049   1.598   5.797
 2154SOL     OW 8300  11.544   2.307   8.285
 2154SOL    HW1 8301  11.471   2.253   8.254
 2154SOL    HW2 8302  11.532   2.391   8.240
 2155SOL     OW 8303   2.305   7.121  10.847
 2155SOL    HW1 8304   2.273   7.162  10.766
 2155SOL    HW2 8305   2.335   7.034  10.819
 2156SOL     OW 8306   1.627   0.590   1.274
 2156SOL    HW1 8307   1.698   0.650   1.298
 2156SOL    HW2 8308   1.586   0.566   1.358
 2157SOL     OW 8309   0.818   8.032   1.825
 2157SOL    HW1 8310   0.769   8.101   1.870
 2157SOL    HW2 8311   0.761   8.005   1.753
 2158SOL     OW 8312   8.860   2.306   9.625
 2158SOL    HW1 8313   8.953   2.288   9.642
 2158SOL    HW2 8314   8.828   2.347   9.706
 2159SOL     OW 8315  12.077   1.040  10.413
 2159SOL    HW1 8316  12.075   1.073  10.503
 2159SOL    HW2 8317  12.163   1.067  10.380
 2160SOL     OW 8318   2.098   8.538  10.515
 2160SOL    HW1 8319   2.175   8.577  10.557
 2160SOL    HW2 8320   2.094   8.581  10.429
 2161SOL     OW 8321   8.123   6.716   1.136
 2161SOL    HW1 8322   8.156   6.787   1.081
 2161SOL    HW2 8323   8.072   6.661   1.076
 2162SOL     OW 8324  12.830   4.924   4.140
 2162SOL    HW1 8325  12.747   4.912   4.093
 2162SOL    HW2 8326  12.875   4.841   4.130
 2163SOL     OW 8327  11.491   9.091   7.110
 2163SOL    HW1 8328  11.512   9.060   7.023
 2163SOL    HW2 8329  11.477   9.012   7.162
 2164SOL     OW 8330   1.916   5.626   9.753
 2164SOL    HW1 8331   1.898   5.531   9.754
 2164SOL    HW2 8332   1.938   5.645   9.662
 2165SOL     OW 8333   0.776  11.071   1.015
 2165SOL    HW1 8334   0.703  11.047   0.957
 2165SOL    HW2 8335   0.757  11.162   1.039
 2166SOL     OW 8336   1.689   9.529   4.637
 2166SOL    HW1 8337   1.620   9.558   4.578
 2166SOL    HW2 8338   1.710   9.607   4.688
 2167SOL     OW 8339   2.997   2.127   8.663
 2167SOL    HW1 8340   3.054   2.124   8.740
 2167SOL    HW2 8341   2.995   2.219   8.639
 2168SOL     OW 8342  12.951   1.141   3.145
 2168SOL    HW1 8343  12.940   1.230   3.178
 2168SOL    HW2 8344  12.916   1.085   3.215
 2169SOL     OW 8345   5.615   0.674   8.974
 2169SOL    HW1 8346   5.656   0.758   8.953
 2169SOL    HW2 8347   5.540   0.669   8.914
 2170SOL     OW 8348   0.601  10.024   0.169
 2170SOL    HW1 8349   0.612  10.111   0.206
 2170SOL    HW2 8350   0.556   9.974   0.237
 2171SOL     OW 8351   2.602   0.663  14.015
 2171SOL    HW1 8352   2.513   0.668  13.980
 2171SOL    HW2 8353   2.608   0.576  14.052
 2172SOL     OW 8354   0.804   0.710   1.714
 2172SOL    HW1 8355   0.758   0.766   1.777
 2172SOL    HW2 8356   0.738   0.649   1.683
 2173SOL     OW 8357   1.206   9.343  11.045
 2173SOL    HW1 8358   1.137   9.400  11.011
 2173SOL    HW2 8359   1.286   9.395  11.038
 2174SOL     OW 8360  14.510   2.426   9.347
 2174SOL    HW1 8361  14.537   2.428   9.255
 2174SOL    HW2 8362  14.490   2.334   9.363
 2175SOL     OW 8363   3.904   9.788   2.818
 2175SOL    HW1 8364   3.953   9.711   2.791
 2175SOL    HW2 8365   3.951   9.821   2.895
 2176SOL     OW 8366  10.778   8.810  11.071
 2176SOL    HW1 8367  10.749   8.897  11.098
 2176SOL    HW2 8368  10.829   8.778  11.145
 2177SOL     OW 8369   2.536  11.826   5.261
 2177SOL    HW1 8370   2.592  11.764   5.307
 2177SOL    HW2 8371   2.485  11.771   5.200
 2178SOL     OW 8372  13.420  12.425   1.642
 2178SOL    HW1 8373  13.452  12.450   1.556
 2178SOL    HW2 8374  13.472  12.476   1.704
 2179SOL     OW 8375   3.093   3.218  14.714
 2179SOL    HW1 8376   3.179   3.179  14.699
 2179SOL    HW2 8377   3.060   3.174  14.792
 2180SOL     OW 8378  10.509  14.217   0.545
 2180SOL    HW1 8379  10.423  14.183   0.570
 2180SOL    HW2 8380  10.566  14.198   0.620
 2181SOL     OW 8381   8.311   0.483  13.783
 2181SOL    HW1 8382   8.290   0.508  13.692
 2181SOL    HW2 8383   8.393   0.434  13.776
 2182SOL     OW 8384   3.263   4.140  13.837
 2182SOL    HW1 8385   3.270   4.235  13.843
 2182SOL    HW2 8386   3.209   4.125  13.759
 2183SOL     OW 8387   3.331   5.409  11.749
 2183SOL    HW1 8388   3.341   5.492  11.795
 2183SOL    HW2 8389   3.377   5.345  11.803
 2184SOL     OW 8390   9.293  11.553   5.713
 2184SOL    HW1 8391   9.341  11.596   5.642
 2184SOL    HW2 8392   9.225  11.502   5.668
 2185SOL     OW 8393  11.776   3.840   9.546
 2185SOL    HW1 8394  11.728   3.846   9.463
 2185SOL    HW2 8395  11.777   3.930   9.580
 2186SOL     OW 8396   7.117   8.879   3.572
 2186SOL    HW1 8397   7.056   8.806   3.566
 2186SOL    HW2 8398   7.131   8.890   3.667
 2187SOL     OW 8399   6.773   6.479   1.272
 2187SOL    HW1 8400   6.811   6.508   1.188
 2187SOL    HW2 8401   6.679   6.473   1.255
 2188SOL     OW 8402  13.840   1.855  14.835
 2188SOL    HW1 8403  13.895   1.777  14.845
 2188SOL    HW2 8404  13.751   1.821  14.829
 2189SOL     OW 8405   4.940   3.779   2.906
 2189SOL    HW1 8406   4.943   3.843   2.835
 2189SOL    HW2 8407   4.973   3.827   2.983
 2190SOL     OW 8408  11.488   7.287   0.648
 2190SOL    HW1 8409  11.514   7.357   0.708
 2190SOL    HW2 8410  11.478   7.331   0.564
 2191SOL     OW 8411   9.606   2.357   6.878
 2191SOL    HW1 8412   9.535   2.366   6.942
 2191SOL    HW2 8413   9.668   2.297   6.919
 2192SOL     OW 8414   1.262   1.392  14.375
 2192SOL    HW1 8415   1.224   1.477  14.395
 2192SOL    HW2 8416   1.319   1.372  14.449
 2193SOL     OW 8417   2.487   0.307   0.414
 2193SOL    HW1 8418   2.462   0.382   0.361
 2193SOL    HW2 8419   2.417   0.299   0.479
 2194SOL     OW 8420   8.826   4.496   0.024
 2194SOL    HW1 8421   8.744   4.514  14.860
 2194SOL    HW2 8422   8.870   4.432  14.848
 2195SOL     OW 8423   2.163  11.771  14.536
 2195SOL    HW1 8424   2.159  11.692  14.589
 2195SOL    HW2 8425   2.224  11.828  14.582
 2196SOL     OW 8426   0.441  14.043   9.748
 2196SOL    HW1 8427   0.349  14.017   9.756
 2196SOL    HW2 8428   0.458  14.045   9.654
 2197SOL     OW 8429   5.902   7.580   1.112
 2197SOL    HW1 8430   5.897   7.653   1.174
 2197SOL    HW2 8431   5.869   7.505   1.161
 2198SOL     OW 8432   7.383   4.342  14.510
 2198SOL    HW1 8433   7.360   4.254  14.539
 2198SOL    HW2 8434   7.475   4.335  14.484
 2199SOL     OW 8435   5.384   1.328  13.578
 2199SOL    HW1 8436   5.296   1.358  13.601
 2199SOL    HW2 8437   5.435   1.408  13.569
 2200SOL     OW 8438  11.748  12.141   8.300
 2200SOL    HW1 8439  11.831  12.093   8.309
 2200SOL    HW2 8440  11.742  12.161   8.207
 2201SOL     OW 8441   2.264   9.629   0.677
 2201SOL    HW1 8442   2.251   9.702   0.737
 2201SOL    HW2 8443   2.182   9.621   0.629
 2202SOL     OW 8444   7.551   4.879  12.699
 2202SOL    HW1 8445   7.540   4.973  12.714
 2202SOL    HW2 8446   7.532   4.867  12.606
 2203SOL     OW 8447   3.054   2.969   9.454
 2203SOL    HW1 8448   3.125   2.981   9.390
 2203SOL    HW2 8449   3.083   3.018   9.531
 2204SOL     OW 8450   9.338   2.688   3.839
 2204SOL    HW1 8451   9.433   2.685   3.848
 2204SOL    HW2 8452   9.306   2.698   3.928
 2205SOL     OW 8453   6.212   0.238   3.497
 2205SOL    HW1 8454   6.159   0.247   3.576
 2205SOL    HW2 8455   6.288   0.187   3.525
 2206SOL     OW 8456   1.454   2.104   8.011
 2206SOL    HW1 8457   1.386   2.120   8.077
 2206SOL    HW2 8458   1.524   2.060   8.060
 2207SOL     OW 8459   2.432   3.778   6.955
 2207SOL    HW1 8460   2.517   3.738   6.934
 2207SOL    HW2 8461   2.412   3.833   6.879
 2208SOL     OW 8462   9.080   2.441   3.070
 2208SOL    HW1 8463   8.987   2.460   3.057
 2208SOL    HW2 8464   9.080   2.364   3.128
 2209SOL     OW 8465   4.628   2.002  10.331
 2209SOL    HW1 8466   4.694   2.068  10.351
 2209SOL    HW2 8467   4.671   1.943  10.268
 2210SOL     OW 8468   3.403  14.610   4.943
 2210SOL    HW1 8469   3.473  14.655   4.895
 2210SOL    HW2 8470   3.356  14.561   4.875
 2211SOL     OW 8471   8.241   7.163   1.964
 2211SOL    HW1 8472   8.171   7.167   1.899
 2211SOL    HW2 8473   8.201   7.195   2.044
 2212SOL     OW 8474   3.397   8.265  10.192
 2212SOL    HW1 8475   3.491   8.267  10.179
 2212SOL    HW2 8476   3.369   8.185  10.147
 2213SOL     OW 8477  13.354   8.085  12.863
 2213SOL    HW1 8478  13.352   8.109  12.956
 2213SOL    HW2 8479  13.442   8.051  12.848
 2214SOL     OW 8480  10.053   7.369  14.623
 2214SOL    HW1 8481  10.057   7.364  14.719
 2214SOL    HW2 8482  10.125   7.428  14.600
 2215SOL     OW 8483   3.350   6.829   9.481
 2215SOL    HW1 8484   3.332   6.904   9.537
 2215SOL    HW2 8485   3.409   6.863   9.414
 2216SOL     OW 8486   6.886  12.164  13.972
 2216SOL    HW1 8487   6.861  12.087  13.922
 2216SOL    HW2 8488   6.962  12.200  13.927
 2217SOL     OW 8489   9.182   7.934   1.352
 2217SOL    HW1 8490   9.133   8.011   1.323
 2217SOL    HW2 8491   9.214   7.957   1.439
 2218SOL     OW 8492   7.655   0.234   1.004
 2218SOL    HW1 8493   7.654   0.256   0.911
 2218SOL    HW2 8494   7.748   0.224   1.025
 2219SOL     OW 8495  13.327  14.317   8.422
 2219SOL    HW1 8496  13.413  14.278   8.434
 2219SOL    HW2 8497  13.334  14.403   8.464
 2220SOL     OW 8498   6.517  11.873  13.873
 2220SOL    HW1 8499   6.538  11.925  13.951
 2220SOL    HW2 8500   6.597  11.878  13.819
 2221SOL     OW 8501  13.674   1.533   4.301
 2221SOL    HW1 8502  13.582   1.558   4.311
 2221SOL    HW2 8503  13.693   1.479   4.378
 2222SOL     OW 8504  14.165   1.189   9.478
 2222SOL    HW1 8505  14.234   1.250   9.452
 2222SOL    HW2 8506  14.170   1.188   9.574
 2223SOL     OW 8507   2.290   0.998   1.969
 2223SOL    HW1 8508   2.273   0.907   1.993
 2223SOL    HW2 8509   2.362   0.993   1.906
 2224SOL     OW 8510   2.256  14.002  13.662
 2224SOL    HW1 8511   2.170  14.029  13.630
 2224SOL    HW2 8512   2.278  14.067  13.729
 2225SOL     OW 8513  11.783  14.360   4.591
 2225SOL    HW1 8514  11.758  14.308   4.515
 2225SOL    HW2 8515  11.705  14.412   4.612
 2226SOL     OW 8516  11.629  11.932  10.586
 2226SOL    HW1 8517  11.554  11.872  10.579
 2226SOL    HW2 8518  11.592  12.019  10.570
 2227SOL     OW 8519   5.974  13.726  12.517
 2227SOL    HW1 8520   6.068  13.714  12.529
 2227SOL    HW2 8521   5.950  13.791  12.584
 2228SOL     OW 8522  12.405   1.619  14.765
 2228SOL    HW1 8523  12.372   1.577  14.844
 2228SOL    HW2 8524  12.329   1.622  14.706
 2229SOL     OW 8525  10.538   6.294   3.241
 2229SOL    HW1 8526  10.516   6.384   3.264
 2229SOL    HW2 8527  10.619   6.300   3.192
 2230SOL     OW 8528  11.952  12.404   7.564
 2230SOL    HW1 8529  11.929  12.475   7.504
 2230SOL    HW2 8530  11.910  12.326   7.526
 2231SOL     OW 8531  10.605   4.248  14.105
 2231SOL    HW1 8532  10.528   4.193  14.121
 2231SOL    HW2 8533  10.614   4.251  14.010
 2232SOL     OW 8534   8.607   1.460  10.908
 2232SOL    HW1 8535   8.546   1.417  10.968
 2232SOL    HW2 8536   8.634   1.391  10.848
 2233SOL     OW 8537  10.718   5.862   8.108
 2233SOL    HW1 8538  10.747   5.791   8.052
 2233SOL    HW2 8539  10.634   5.832   8.143
 2234SOL     OW 8540   7.646   1.030   5.197
 2234SOL    HW1 8541   7.681   0.965   5.259
 2234SOL    HW2 8542   7.653   0.987   5.111
 2235SOL     OW 8543   1.223   0.631   5.262
 2235SOL    HW1 8544   1.130   0.649   5.267
 2235SOL    HW2 8545   1.235   0.553   5.317
 2236SOL     OW 8546  10.978  13.551   3.493
 2236SOL    HW1 8547  10.955  13.498   3.417
 2236SOL    HW2 8548  11.059  13.512   3.526
 2237SOL     OW 8549   5.739  11.760   4.862
 2237SOL    HW1 8550   5.686  11.795   4.934
 2237SOL    HW2 8551   5.753  11.835   4.804
 2238SOL     OW 8552   1.890   9.965  14.164
 2238SOL    HW1 8553   1.852  10.023  14.231
 2238SOL    HW2 8554   1.976   9.942  14.198
 2239SOL     OW 8555   7.048  12.002   8.792
 2239SOL    HW1 8556   7.078  11.979   8.704
 2239SOL    HW2 8557   7.031  12.096   8.788
 2240SOL     OW 8558   7.304  12.807   7.782
 2240SOL    HW1 8559   7.357  12.808   7.702
 2240SOL    HW2 8560   7.368  12.813   7.853
 2241SOL     OW 8561  11.102  13.873   6.451
 2241SOL    HW1 8562  11.103  13.870   6.547
 2241SOL    HW2 8563  11.045  13.802   6.425
 2242SOL     OW 8564   3.984  13.549   0.532
 2242SOL    HW1 8565   3.913  13.485   0.526
 2242SOL    HW2 8566   4.041  13.528   0.458
 2243SOL     OW 8567  11.817  13.083   1.481
 2243SOL    HW1 8568  11.784  12.995   1.498
 2243SOL    HW2 8569  11.910  13.071   1.461
 2244SOL     OW 8570  11.200   4.215   6.523
 2244SOL    HW1 8571  11.276   4.195   6.578
 2244SOL    HW2 8572  11.179   4.132   6.480
 2245SOL     OW 8573   0.661  13.865  11.157
 2245SOL    HW1 8574   0.707  13.783  11.142
 2245SOL    HW2 8575   0.600  13.846  11.228
 2246SOL     OW 8576   1.336   0.558  11.934
 2246SOL    HW1 8577   1.383   0.577  12.016
 2246SOL    HW2 8578   1.264   0.502  11.961
 2247SOL     OW 8579   3.499  14.587  12.483
 2247SOL    HW1 8580   3.456  14.579  12.569
 2247SOL    HW2 8581   3.588  14.555  12.498
 2248SOL     OW 8582   7.735  10.447  14.301
 2248SOL    HW1 8583   7.733  10.363  14.348
 2248SOL    HW2 8584   7.704  10.427  14.213
 2249SOL     OW 8585   1.515   5.544   5.594
 2249SOL    HW1 8586   1.527   5.454   5.563
 2249SOL    HW2 8587   1.434   5.540   5.645
 2250SOL     OW 8588   2.240  12.117   8.141
 2250SOL    HW1 8589   2.322  12.074   8.117
 2250SOL    HW2 8590   2.256  12.152   8.229
 2251SOL     OW 8591   2.957   1.010   0.692
 2251SOL    HW1 8592   2.904   0.973   0.762
 2251SOL    HW2 8593   3.029   0.948   0.681
 2252SOL     OW 8594   3.679   4.660  12.999
 2252SOL    HW1 8595   3.671   4.576  13.044
 2252SOL    HW2 8596   3.672   4.725  13.069
 2253SOL     OW 8597   3.820   0.255   7.897
 2253SOL    HW1 8598   3.825   0.160   7.909
 2253SOL    HW2 8599   3.727   0.272   7.885
 2254SOL     OW 8600   4.982   0.778  13.582
 2254SOL    HW1 8601   4.915   0.813  13.641
 2254SOL    HW2 8602   5.060   0.829  13.601
 2255SOL     OW 8603   7.995  11.307  10.950
 2255SOL    HW1 8604   7.927  11.329  10.887
 2255SOL    HW2 8605   8.061  11.376  10.940
 2256SOL     OW 8606   5.384   3.694   6.870
 2256SOL    HW1 8607   5.385   3.599   6.878
 2256SOL    HW2 8608   5.476   3.719   6.860
 2257SOL     OW 8609  10.987   4.139  11.967
 2257SOL    HW1 8610  10.954   4.210  12.022
 2257SOL    HW2 8611  10.960   4.163  11.878
 2258SOL     OW 8612  12.971   6.915   6.963
 2258SOL    HW1 8613  13.028   6.877   6.897
 2258SOL    HW2 8614  12.917   6.841   6.993
 2259SOL     OW 8615   9.746   0.510   5.941
 2259SOL    HW1 8616   9.735   0.560   5.860
 2259SOL    HW2 8617   9.663   0.463   5.951
 2260SOL     OW 8618  12.008   5.435   3.532
 2260SOL    HW1 8619  12.089   5.485   3.519
 2260SOL    HW2 8620  11.994   5.389   3.449
 2261SOL     OW 8621   5.753  10.597   3.176
 2261SOL    HW1 8622   5.669  10.601   3.129
 2261SOL    HW2 8623   5.817  10.628   3.112
 2262SOL     OW 8624   2.356  11.953   0.063
 2262SOL    HW1 8625   2.393  12.037   0.089
 2262SOL    HW2 8626   2.415  11.921  14.874
 2263SOL     OW 8627   2.486   0.838   5.843
 2263SOL    HW1 8628   2.461   0.811   5.755
 2263SOL    HW2 8629   2.458   0.930   5.849
 2264SOL     OW 8630  13.487   9.006   7.813
 2264SOL    HW1 8631  13.464   9.056   7.891
 2264SOL    HW2 8632  13.403   8.994   7.767
 2265SOL     OW 8633  13.896   0.877  11.527
 2265SOL    HW1 8634  13.968   0.842  11.476
 2265SOL    HW2 8635  13.882   0.965  11.492
 2266SOL     OW 8636  11.169   2.656   4.403
 2266SOL    HW1 8637  11.137   2.698   4.323
 2266SOL    HW2 8638  11.099   2.597   4.429
 2267SOL     OW 8639   5.307   3.641  10.432
 2267SOL    HW1 8640   5.355   3.565  10.464
 2267SOL    HW2 8641   5.307   3.703  10.505
 2268SOL     OW 8642  10.100   5.473   5.559
 2268SOL    HW1 8643  10.013   5.460   5.522
 2268SOL    HW2 8644  10.158   5.477   5.483
 2269SOL     OW 8645   8.584   3.862  13.502
 2269SOL    HW1 8646   8.659   3.922  13.495
 2269SOL    HW2 8647   8.586   3.833  13.593
 2270SOL     OW 8648   5.166   7.521   4.956
 2270SOL    HW1 8649   5.181   7.448   5.017
 2270SOL    HW2 8650   5.158   7.478   4.870
 2271SOL     OW 8651  11.131  11.898   8.537
 2271SOL    HW1 8652  11.070  11.965   8.568
 2271SOL    HW2 8653  11.078  11.842   8.480
 2272SOL     OW 8654   4.218  11.856   6.195
 2272SOL    HW1 8655   4.199  11.762   6.189
 2272SOL    HW2 8656   4.140  11.893   6.236
 2273SOL     OW 8657  13.143   3.026  12.745
 2273SOL    HW1 8658  13.216   2.964  12.742
 2273SOL    HW2 8659  13.108   3.018  12.833
 2274SOL     OW 8660  13.772  11.517   6.142
 2274SOL    HW1 8661  13.830  11.528   6.066
 2274SOL    HW2 8662  13.750  11.424   6.141
 2275SOL     OW 8663  11.942  13.226  12.381
 2275SOL    HW1 8664  11.974  13.298  12.436
 2275SOL    HW2 8665  12.002  13.224  12.307
 2276SOL     OW 8666  11.762   6.972  14.492
 2276SOL    HW1 8667  11.736   6.959  14.401
 2276SOL    HW2 8668  11.736   7.062  14.512
 2277SOL     OW 8669   5.364   2.072   8.762
 2277SOL    HW1 8670   5.269   2.080   8.766
 2277SOL    HW2 8671   5.396   2.155   8.798
 2278SOL     OW 8672   0.792  12.047   6.162
 2278SOL    HW1 8673   0.824  12.065   6.251
 2278SOL    HW2 8674   0.726  12.114   6.146
 2279SOL     OW 8675  10.170  10.943   3.071
 2279SOL    HW1 8676  10.166  11.008   3.141
 2279SOL    HW2 8677  10.221  10.871   3.108
 2280SOL     OW 8678   7.781   9.457   5.875
 2280SOL    HW1 8679   7.871   9.492   5.880
 2280SOL    HW2 8680   7.746   9.468   5.964
 2281SOL     OW 8681  10.559   0.615  10.081
 2281SOL    HW1 8682  10.467   0.601  10.057
 2281SOL    HW2 8683  10.555   0.651  10.170
 2282SOL     OW 8684   9.428   9.789  12.915
 2282SOL    HW1 8685   9.523   9.801  12.906
 2282SOL    HW2 8686   9.393   9.879  12.916
 2283SOL     OW 8687   2.072   6.220   1.404
 2283SOL    HW1 8688   2.091   6.276   1.480
 2283SOL    HW2 8689   2.142   6.155   1.404
 2284SOL     OW 8690  11.814   3.244   7.232
 2284SOL    HW1 8691  11.809   3.149   7.237
 2284SOL    HW2 8692  11.890   3.267   7.286
 2285SOL     OW 8693   1.868   9.721   8.958
 2285SOL    HW1 8694   1.887   9.755   9.045
 2285SOL    HW2 8695   1.824   9.637   8.975
 2286SOL     OW 8696  10.596   4.261  13.825
 2286SOL    HW1 8697  10.604   4.170  13.797
 2286SOL    HW2 8698  10.583   4.310  13.744
 2287SOL     OW 8699  11.732   1.793   0.199
 2287SOL    HW1 8700  11.704   1.732   0.130
 2287SOL    HW2 8701  11.822   1.769   0.217
 2288SOL     OW 8702  13.792   2.225   1.674
 2288SOL    HW1 8703  13.711   2.272   1.692
 2288SOL    HW2 8704  13.765   2.151   1.619
 2289SOL     OW 8705   1.762   9.307   3.748
 2289SOL    HW1 8706   1.841   9.271   3.707
 2289SOL    HW2 8707   1.747   9.251   3.824
 2290SOL     OW 8708   1.771   0.401  14.222
 2290SOL    HW1 8709   1.752   0.347  14.299
 2290SOL    HW2 8710   1.710   0.370  14.155
 2291SOL     OW 8711  12.087   3.751   8.822
 2291SOL    HW1 8712  12.049   3.715   8.742
 2291SOL    HW2 8713  12.014   3.797   8.864
 2292SOL     OW 8714   2.879   7.287   8.635
 2292SOL    HW1 8715   2.907   7.343   8.708
 2292SOL    HW2 8716   2.938   7.212   8.639
 2293SOL     OW 8717   1.626   1.114  11.817
 2293SOL    HW1 8718   1.561   1.052  11.785
 2293SOL    HW2 8719   1.678   1.065  11.880
 2294SOL     OW 8720  14.305   0.895  13.729
 2294SOL    HW1 8721  14.308   0.926  13.638
 2294SOL    HW2 8722  14.281   0.802  13.722
 2295SOL     OW 8723  10.842   4.132  14.180
 2295SOL    HW1 8724  10.816   4.057  14.233
 2295SOL    HW2 8725  10.759   4.173  14.155
 2296SOL     OW 8726   9.359  11.560  10.953
 2296SOL    HW1 8727   9.388  11.513  11.030
 2296SOL    HW2 8728   9.337  11.492  10.889
 2297SOL     OW 8729   0.478   9.668   1.514
 2297SOL    HW1 8730   0.529   9.587   1.520
 2297SOL    HW2 8731   0.396   9.649   1.558
 2298SOL     OW 8732   0.559   0.364   6.184
 2298SOL    HW1 8733   0.491   0.408   6.134
 2298SOL    HW2 8734   0.574   0.281   6.137
 2299SOL     OW 8735   5.397   9.204  10.535
 2299SOL    HW1 8736   5.351   9.282  10.504
 2299SOL    HW2 8737   5.344   9.130  10.505
 2300SOL     OW 8738  11.009   2.884  10.125
 2300SOL    HW1 8739  10.945   2.852  10.188
 2300SOL    HW2 8740  10.959   2.897  10.044
 2301SOL     OW 8741  12.836  14.494  10.156
 2301SOL    HW1 8742  12.901  14.563  10.143
 2301SOL    HW2 8743  12.769  14.511  10.090
 2302SOL     OW 8744  11.739   8.776   5.724
 2302SOL    HW1 8745  11.733   8.871   5.719
 2302SOL    HW2 8746  11.814   8.760   5.782
 2303SOL     OW 8747   5.456   6.216   8.414
 2303SOL    HW1 8748   5.432   6.166   8.492
 2303SOL    HW2 8749   5.388   6.195   8.350
 2304SOL     OW 8750   9.111   4.002   1.765
 2304SOL    HW1 8751   9.021   4.009   1.731
 2304SOL    HW2 8752   9.159   3.958   1.695
 2305SOL     OW 8753   1.623  12.208  10.385
 2305SOL    HW1 8754   1.592  12.293  10.354
 2305SOL    HW2 8755   1.707  12.227  10.428
 2306SOL     OW 8756   7.115  14.007   6.166
 2306SOL    HW1 8757   7.167  13.960   6.231
 2306SOL    HW2 8758   7.117  14.099   6.195
 2307SOL     OW 8759  12.344   4.156   3.304
 2307SOL    HW1 8760  12.258   4.172   3.266
 2307SOL    HW2 8761  12.380   4.243   3.321
 2308SOL     OW 8762   1.881  11.025  13.651
 2308SOL    HW1 8763   1.832  11.048  13.730
 2308SOL    HW2 8764   1.932  10.948  13.676
 2309SOL     OW 8765   9.983  14.445   9.477
 2309SOL    HW1 8766  10.001  14.411   9.564
 2309SOL    HW2 8767  10.009  14.375   9.418
 2310SOL     OW 8768  11.858   2.324  13.988
 2310SOL    HW1 8769  11.922   2.253  13.978
 2310SOL    HW2 8770  11.818   2.333  13.902
 2311SOL     OW 8771   5.014   9.739   4.398
 2311SOL    HW1 8772   4.995   9.728   4.491
 2311SOL    HW2 8773   4.953   9.680   4.354
 2312SOL     OW 8774  10.873   0.245   0.894
 2312SOL    HW1 8775  10.919   0.175   0.940
 2312SOL    HW2 8776  10.942   0.300   0.858
 2313SOL     OW 8777  11.689  13.772  14.294
 2313SOL    HW1 8778  11.661  13.814  14.375
 2313SOL    HW2 8779  11.782  13.789  14.288
 2314SOL     OW 8780   0.777  12.614  11.477
 2314SOL    HW1 8781   0.739  12.677  11.538
 2314SOL    HW2 8782   0.721  12.620  11.399
 2315SOL     OW 8783   7.356  12.324   9.513
 2315SOL    HW1 8784   7.319  12.236   9.512
 2315SOL    HW2 8785   7.355  12.349   9.606
 2316SOL     OW 8786  12.513   7.744   1.928
 2316SOL    HW1 8787  12.444   7.721   1.866
 2316SOL    HW2 8788  12.481   7.711   2.012
 2317SOL     OW 8789   0.599   4.453  10.292
 2317SOL    HW1 8790   0.505   4.434  10.298
 2317SOL    HW2 8791   0.634   4.426  10.377
 2318SOL     OW 8792   4.748   8.023  10.215
 2318SOL    HW1 8793   4.822   8.077  10.189
 2318SOL    HW2 8794   4.771   7.992  10.303
 2319SOL     OW 8795  12.250   3.275  10.336
 2319SOL    HW1 8796  12.268   3.181  10.347
 2319SOL    HW2 8797  12.228   3.285  10.243
 2320SOL     OW 8798  11.251   2.616  11.639
 2320SOL    HW1 8799  11.218   2.654  11.721
 2320SOL    HW2 8800  11.175   2.570  11.602
 2321SOL     OW 8801   5.124   7.896  14.127
 2321SOL    HW1 8802   5.151   7.804  14.122
 2321SOL    HW2 8803   5.030   7.893  14.142
 2322SOL     OW 8804   3.312   1.043   6.962
 2322SOL    HW1 8805   3.236   1.036   6.904
 2322SOL    HW2 8806   3.275   1.052   7.050
 2323SOL     OW 8807  14.513   4.084   9.216
 2323SOL    HW1 8808  14.606   4.062   9.219
 2323SOL    HW2 8809  14.511   4.176   9.188
 2324SOL     OW 8810   9.994   3.180   9.798
 2324SOL    HW1 8811   9.964   3.152   9.712
 2324SOL    HW2 8812   9.915   3.214   9.841
 2325SOL     OW 8813  13.217  11.973  14.746
 2325SOL    HW1 8814  13.220  12.025  14.666
 2325SOL    HW2 8815  13.292  11.913  14.739
 2326SOL     OW 8816   2.517   7.879   1.270
 2326SOL    HW1 8817   2.495   7.812   1.205
 2326SOL    HW2 8818   2.612   7.873   1.279
 2327SOL     OW 8819   8.030   1.810   7.721
 2327SOL    HW1 8820   7.972   1.743   7.756
 2327SOL    HW2 8821   8.067   1.770   7.642
 2328SOL     OW 8822  13.009   2.591   8.106
 2328SOL    HW1 8823  13.027   2.684   8.095
 2328SOL    HW2 8824  13.023   2.553   8.019
 2329SOL     OW 8825  13.711   4.333  11.173
 2329SOL    HW1 8826  13.659   4.413  11.171
 2329SOL    HW2 8827  13.692   4.290  11.090
 2330SOL     OW 8828  12.712  12.753  14.120
 2330SOL    HW1 8829  12.642  12.688  14.115
 2330SOL    HW2 8830  12.786  12.706  14.159
 2331SOL     OW 8831   5.121   0.602   4.333
 2331SOL    HW1 8832   5.124   0.656   4.255
 2331SOL    HW2 8833   5.213   0.581   4.352
 2332SOL     OW 8834  14.487   1.357   2.169
 2332SOL    HW1 8835  14.555   1.424   2.159
 2332SOL    HW2 8836  14.422   1.378   2.102
 2333SOL     OW 8837  13.299  10.379   8.028
 2333SOL    HW1 8838  13.203  10.375   8.036
 2333SOL    HW2 8839  13.318  10.333   7.947
 2334SOL     OW 8840   3.788   8.959   7.979
 2334SOL    HW1 8841   3.752   8.948   8.067
 2334SOL    HW2 8842   3.828   8.875   7.958
 2335SOL     OW 8843   2.674   7.526  13.018
 2335SOL    HW1 8844   2.621   7.605  13.026
 2335SOL    HW2 8845   2.620   7.457  13.057
 2336SOL     OW 8846  14.023   9.983   2.193
 2336SOL    HW1 8847  13.969   9.990   2.272
 2336SOL    HW2 8848  14.102   9.938   2.223
 2337SOL     OW 8849   0.479  12.495   5.464
 2337SOL    HW1 8850   0.449  12.585   5.450
 2337SOL    HW2 8851   0.401  12.448   5.494
 2338SOL     OW 8852  10.924  10.124   3.547
 2338SOL    HW1 8853  10.859  10.192   3.561
 2338SOL    HW2 8854  10.913  10.099   3.455
 2339SOL     OW 8855   5.808   2.013  13.519
 2339SOL    HW1 8856   5.871   2.047  13.583
 2339SOL    HW2 8857   5.824   1.919  13.516
 2340SOL     OW 8858  10.441   1.221   7.377
 2340SOL    HW1 8859  10.459   1.315   7.374
 2340SOL    HW2 8860  10.500   1.187   7.444
 2341SOL     OW 8861  12.082  11.610   6.922
 2341SOL    HW1 8862  12.026  11.657   6.861
 2341SOL    HW2 8863  12.072  11.657   7.005
 2342SOL     OW 8864   4.800  12.014  11.772
 2342SOL    HW1 8865   4.758  12.048  11.693
 2342SOL    HW2 8866   4.893  12.010  11.750
 2343SOL     OW 8867   6.724   1.006   7.270
 2343SOL    HW1 8868   6.788   1.074   7.247
 2343SOL    HW2 8869   6.651   1.055   7.309
 2344SOL     OW 8870   3.375   0.176  13.530
 2344SOL    HW1 8871   3.395   0.269  13.544
 2344SOL    HW2 8872   3.423   0.131  13.600
 2345SOL     OW 8873   3.331  11.603  10.043
 2345SOL    HW1 8874   3.286  11.524  10.013
 2345SOL    HW2 8875   3.386  11.629   9.969
 2346SOL     OW 8876   9.241   0.961   6.521
 2346SOL    HW1 8877   9.294   0.882   6.528
 2346SOL    HW2 8878   9.305   1.032   6.517
 2347SOL     OW 8879   7.576   0.782   1.812
 2347SOL    HW1 8880   7.595   0.750   1.724
 2347SOL    HW2 8881   7.649   0.749   1.865
 2348SOL     OW 8882  12.707   9.836   4.547
 2348SOL    HW1 8883  12.703   9.874   4.459
 2348SOL    HW2 8884  12.680   9.908   4.604
 2349SOL     OW 8885   5.246   7.809   9.691
 2349SOL    HW1 8886   5.183   7.788   9.623
 2349SOL    HW2 8887   5.226   7.748   9.762
 2350SOL     OW 8888  13.506   8.586   7.155
 2350SOL    HW1 8889  13.536   8.556   7.241
 2350SOL    HW2 8890  13.507   8.508   7.100
 2351SOL     OW 8891   7.448   5.607   7.512
 2351SOL    HW1 8892   7.417   5.547   7.580
 2351SOL    HW2 8893   7.528   5.644   7.548
 2352SOL     OW 8894   5.449  13.782  10.684
 2352SOL    HW1 8895   5.504  13.726  10.630
 2352SOL    HW2 8896   5.390  13.824  10.621
 2353SOL     OW 8897  14.317   1.627  13.386
 2353SOL    HW1 8898  14.371   1.686  13.439
 2353SOL    HW2 8899  14.320   1.544  13.434
 2354SOL     OW 8900   8.051   4.358  10.772
 2354SOL    HW1 8901   8.139   4.331  10.799
 2354SOL    HW2 8902   8.041   4.321  10.684
 2355SOL     OW 8903   6.298   5.964  13.086
 2355SOL    HW1 8904   6.288   5.870  13.097
 2355SOL    HW2 8905   6.293   6.000  13.175
 2356SOL     OW 8906   0.319   8.730   9.933
 2356SOL    HW1 8907   0.230   8.757   9.956
 2356SOL    HW2 8908   0.372   8.755  10.008
 2357SOL     OW 8909   8.112   5.926   9.601
 2357SOL    HW1 8910   8.061   6.008   9.603
 2357SOL    HW2 8911   8.123   5.904   9.694
 2358SOL     OW 8912  13.390  13.194  13.062
 2358SOL    HW1 8913  13.312  13.172  13.013
 2358SOL    HW2 8914  13.434  13.261  13.010
 2359SOL     OW 8915   5.079   1.783  12.329
 2359SOL    HW1 8916   5.030   1.843  12.385
 2359SOL    HW2 8917   5.074   1.699  12.374
 2360SOL     OW 8918   1.451  13.082   5.228
 2360SOL    HW1 8919   1.405  13.143   5.286
 2360SOL    HW2 8920   1.499  13.137   5.167
 2361SOL     OW 8921   3.589   7.957  14.306
 2361SOL    HW1 8922   3.619   8.048  14.308
 2361SOL    HW2 8923   3.667   7.907  14.281
 2362SOL     OW 8924   5.667  12.411   7.365
 2362SOL    HW1 8925   5.706  12.424   7.451
 2362SOL    HW2 8926   5.732  12.360   7.316
 2363SOL     OW 8927   6.781   0.271  13.922
 2363SOL    HW1 8928   6.707   0.273  13.983
 2363SOL    HW2 8929   6.823   0.187  13.938
 2364SOL     OW 8930  14.448  10.303   9.878
 2364SOL    HW1 8931  14.452  10.344   9.965
 2364SOL    HW2 8932  14.477  10.213   9.894
 2365SOL     OW 8933   9.329  12.868   2.858
 2365SOL    HW1 8934   9.395  12.892   2.923
 2365SOL    HW2 8935   9.337  12.773   2.850
 2366SOL     OW 8936   4.855   2.633  12.169
 2366SOL    HW1 8937   4.788   2.576  12.131
 2366SOL    HW2 8938   4.864   2.705  12.107
 2367SOL     OW 8939  12.867   8.329   2.342
 2367SOL    HW1 8940  12.879   8.367   2.430
 2367SOL    HW2 8941  12.940   8.268   2.333
 2368SOL     OW 8942   1.794  11.245  11.736
 2368SOL    HW1 8943   1.872  11.190  11.727
 2368SOL    HW2 8944   1.821  11.313  11.797
 2369SOL     OW 8945   7.553  11.401   0.200
 2369SOL    HW1 8946   7.627  11.444   0.242
 2369SOL    HW2 8947   7.478  11.457   0.220
 2370SOL     OW 8948   1.948  12.037  11.541
 2370SOL    HW1 8949   1.903  11.985  11.475
 2370SOL    HW2 8950   1.879  12.091  11.580
 2371SOL     OW 8951   2.253   4.043  13.933
 2371SOL    HW1 8952   2.164   4.020  13.959
 2371SOL    HW2 8953   2.294   4.077  14.014
 2372SOL     OW 8954  13.790   8.576   6.955
 2372SOL    HW1 8955  13.833   8.517   7.016
 2372SOL    HW2 8956  13.713   8.528   6.926
 2373SOL     OW 8957  11.845  14.709  12.852
 2373SOL    HW1 8958  11.844  14.791  12.901
 2373SOL    HW2 8959  11.911  14.722  12.784
 2374SOL     OW 8960  12.902   0.675   4.339
 2374SOL    HW1 8961  12.869   0.735   4.273
 2374SOL    HW2 8962  12.877   0.588   4.306
 2375SOL     OW 8963  12.130  14.706   6.237
 2375SOL    HW1 8964  12.141  14.644   6.165
 2375SOL    HW2 8965  12.098  14.652   6.310
 2376SOL     OW 8966   2.685   3.539   3.422
 2376SOL    HW1 8967   2.757   3.485   3.456
 2376SOL    HW2 8968   2.609   3.513   3.475
 2377SOL     OW 8969   8.591   1.406  12.648
 2377SOL    HW1 8970   8.629   1.493  12.637
 2377SOL    HW2 8971   8.611   1.360  12.567
 2378SOL     OW 8972  13.038  11.442   1.473
 2378SOL    HW1 8973  13.000  11.431   1.386
 2378SOL    HW2 8974  12.979  11.504   1.517
 2379SOL     OW 8975   4.367  13.298  11.241
 2379SOL    HW1 8976   4.457  13.312  11.272
 2379SOL    HW2 8977   4.363  13.343  11.157
 2380SOL     OW 8978  12.324   3.395  10.895
 2380SOL    HW1 8979  12.367   3.434  10.972
 2380SOL    HW2 8980  12.348   3.454  10.823
 2381SOL     OW 8981   3.606   2.154  12.786
 2381SOL    HW1 8982   3.521   2.132  12.825
 2381SOL    HW2 8983   3.596   2.244  12.755
 2382SOL     OW 8984   5.219  11.923   7.193
 2382SOL    HW1 8985   5.265  12.005   7.175
 2382SOL    HW2 8986   5.258  11.860   7.134
 2383SOL     OW 8987   4.473   7.347   1.849
 2383SOL    HW1 8988   4.388   7.320   1.884
 2383SOL    HW2 8989   4.537   7.307   1.907
 2384SOL     OW 8990  10.304   6.058  10.790
 2384SOL    HW1 8991  10.237   6.024  10.850
 2384SOL    HW2 8992  10.349   5.980  10.758
 2385SOL     OW 8993   0.196  10.617  14.038
 2385SOL    HW1 8994   0.248  10.664  13.973
 2385SOL    HW2 8995   0.111  10.605  13.997
 2386SOL     OW 8996   6.114   7.990   9.529
 2386SOL    HW1 8997   6.114   7.950   9.442
 2386SOL    HW2 8998   6.030   7.967   9.566
 2387SOL     OW 8999  13.807   4.929  11.337
 2387SOL    HW1 9000  13.732   4.919  11.395
 2387SOL    HW2 9001  13.772   4.972  11.259
 2388SOL     OW 9002  13.810   8.936   9.602
 2388SOL    HW1 9003  13.814   8.878   9.678
 2388SOL    HW2 9004  13.785   8.878   9.530
 2389SOL     OW 9005   4.542   9.822   1.091
 2389SOL    HW1 9006   4.492   9.888   1.138
 2389SOL    HW2 9007   4.484   9.746   1.087
 2390SOL     OW 9008  13.832   3.164  13.089
 2390SOL    HW1 9009  13.755   3.149  13.143
 2390SOL    HW2 9010  13.899   3.107  13.127
 2391SOL     OW 9011  11.064   4.902   4.269
 2391SOL    HW1 9012  11.076   4.880   4.362
 2391SOL    HW2 9013  10.970   4.891   4.255
 2392SOL     OW 9014  11.842  10.033  11.905
 2392SOL    HW1 9015  11.880   9.946  11.911
 2392SOL    HW2 9016  11.838  10.051  11.811
 2393SOL     OW 9017   4.367  14.734   9.097
 2393SOL    HW1 9018   4.327  14.690   9.021
 2393SOL    HW2 9019   4.312  14.708   9.171
 2394SOL     OW 9020   0.474   6.736  11.794
 2394SOL    HW1 9021   0.408   6.689  11.844
 2394SOL    HW2 9022   0.429   6.765  11.715
 2395SOL     OW 9023   6.109   3.444   1.698
 2395SOL    HW1 9024   6.143   3.445   1.608
 2395SOL    HW2 9025   6.182   3.477   1.751
 2396SOL     OW 9026   8.921   1.628   8.098
 2396SOL    HW1 9027   8.973   1.576   8.159
 2396SOL    HW2 9028   8.920   1.576   8.017
 2397SOL     OW 9029  13.490  11.094   4.335
 2397SOL    HW1 9030  13.579  11.075   4.306
 2397SOL    HW2 9031  13.500  11.168   4.395
 2398SOL     OW 9032   7.760   9.248   3.928
 2398SOL    HW1 9033   7.666   9.258   3.915
 2398SOL    HW2 9034   7.775   9.272   4.019
 2399SOL     OW 9035   4.957   3.291   4.498
 2399SOL    HW1 9036   4.932   3.380   4.522
 2399SOL    HW2 9037   4.876   3.249   4.470
 2400SOL     OW 9038   6.522   3.642   3.249
 2400SOL    HW1 9039   6.585   3.686   3.306
 2400SOL    HW2 9040   6.556   3.657   3.161
 2401SOL     OW 9041  14.695   0.094   0.472
 2401SOL    HW1 9042  14.755   0.056   0.536
 2401SOL    HW2 9043  14.609   0.088   0.514
 2402SOL     OW 9044   3.125   9.816  11.758
 2402SOL    HW1 9045   3.143   9.783  11.847
 2402SOL    HW2 9046   3.045   9.769  11.732
 2403SOL     OW 9047  10.558   3.498   0.069
 2403SOL    HW1 9048  10.540   3.407   0.043
 2403SOL    HW2 9049  10.474   3.531   0.100
 2404SOL     OW 9050   4.452   1.225   5.152
 2404SOL    HW1 9051   4.498   1.209   5.070
 2404SOL    HW2 9052   4.438   1.138   5.189
 2405SOL     OW 9053  12.779   2.800   7.195
 2405SOL    HW1 9054  12.737   2.748   7.263
 2405SOL    HW2 9055  12.727   2.879   7.189
 2406SOL     OW 9056  11.947   4.405   4.980
 2406SOL    HW1 9057  12.018   4.436   4.924
 2406SOL    HW2 9058  11.871   4.398   4.922
 2407SOL     OW 9059   8.452   3.408   2.194
 2407SOL    HW1 9060   8.385   3.398   2.126
 2407SOL    HW2 9061   8.469   3.502   2.197
 2408SOL     OW 9062  12.857   2.188   1.032
 2408SOL    HW1 9063  12.779   2.161   0.984
 2408SOL    HW2 9064  12.891   2.263   0.983
 2409SOL     OW 9065   1.149  13.426   9.472
 2409SOL    HW1 9066   1.093  13.503   9.462
 2409SOL    HW2 9067   1.149  13.385   9.385
 2410SOL     OW 9068   3.851  10.326   9.013
 2410SOL    HW1 9069   3.902  10.303   8.935
 2410SOL    HW2 9070   3.873  10.417   9.030
 2411SOL     OW 9071   8.360  14.231   4.941
 2411SOL    HW1 9072   8.371  14.250   5.034
 2411SOL    HW2 9073   8.445  14.197   4.914
 2412SOL     OW 9074   8.880   5.681   7.587
 2412SOL    HW1 9075   8.831   5.746   7.639
 2412SOL    HW2 9076   8.825   5.664   7.511
 2413SOL     OW 9077   1.885   2.276   7.933
 2413SOL    HW1 9078   1.830   2.249   8.006
 2413SOL    HW2 9079   1.974   2.277   7.970
 2414SOL     OW 9080  10.392  12.601   8.948
 2414SOL    HW1 9081  10.379  12.540   9.020
 2414SOL    HW2 9082  10.397  12.687   8.990
 2415SOL     OW 9083  10.192  10.910   1.744
 2415SOL    HW1 9084  10.152  10.842   1.798
 2415SOL    HW2 9085  10.119  10.964   1.715
 2416SOL     OW 9086  13.874   3.573   7.027
 2416SOL    HW1 9087  13.824   3.653   7.008
 2416SOL    HW2 9088  13.950   3.578   6.968
 2417SOL     OW 9089   6.341   1.530  10.579
 2417SOL    HW1 9090   6.401   1.458  10.602
 2417SOL    HW2 9091   6.339   1.585  10.657
 2418SOL     OW 9092  14.631   0.762   6.164
 2418SOL    HW1 9093  14.595   0.850   6.180
 2418SOL    HW2 9094  14.723   0.778   6.141
 2419SOL     OW 9095   8.940   6.214   9.150
 2419SOL    HW1 9096   8.968   6.303   9.131
 2419SOL    HW2 9097   8.992   6.188   9.226
 2420SOL     OW 9098   7.421   5.096   0.321
 2420SOL    HW1 9099   7.402   5.189   0.324
 2420SOL    HW2 9100   7.511   5.091   0.289
 2421SOL     OW 9101   4.788   1.921   7.310
 2421SOL    HW1 9102   4.772   1.846   7.366
 2421SOL    HW2 9103   4.832   1.985   7.366
 2422SOL     OW 9104   6.485   9.989   6.087
 2422SOL    HW1 9105   6.481   9.900   6.124
 2422SOL    HW2 9106   6.457  10.046   6.158
 2423SOL     OW 9107  11.402   6.792   6.762
 2423SOL    HW1 9108  11.311   6.767   6.746
 2423SOL    HW2 9109  11.404   6.821   6.853
 2424SOL     OW 9110   7.188   7.496  13.940
 2424SOL    HW1 9111   7.268   7.447  13.921
 2424SOL    HW2 9112   7.168   7.475  14.031
 2425SOL     OW 9113  11.721   9.199  11.603
 2425SOL    HW1 9114  11.652   9.142  11.636
 2425SOL    HW2 9115  11.797   9.143  11.593
 2426SOL     OW 9116   7.369   0.503   1.221
 2426SOL    HW1 9117   7.349   0.411   1.237
 2426SOL    HW2 9118   7.458   0.502   1.185
 2427SOL     OW 9119   6.269  13.450   4.765
 2427SOL    HW1 9120   6.182  13.448   4.724
 2427SOL    HW2 9121   6.324  13.495   4.701
 2428SOL     OW 9122   7.201  14.738   3.622
 2428SOL    HW1 9123   7.266  14.726   3.691
 2428SOL    HW2 9124   7.253  14.753   3.543
 2429SOL     OW 9125   1.225   4.079   7.916
 2429SOL    HW1 9126   1.276   4.135   7.973
 2429SOL    HW2 9127   1.274   4.077   7.834
 2430SOL     OW 9128   1.125  12.966   5.440
 2430SOL    HW1 9129   1.064  12.900   5.471
 2430SOL    HW2 9130   1.181  12.984   5.516
 2431SOL     OW 9131   3.560   9.073   6.358
 2431SOL    HW1 9132   3.596   9.096   6.273
 2431SOL    HW2 9133   3.561   9.155   6.408
 2432SOL     OW 9134   6.669   5.009   3.144
 2432SOL    HW1 9135   6.757   4.974   3.133
 2432SOL    HW2 9136   6.680   5.087   3.199
 2433SOL     OW 9137  10.697   3.096   0.415
 2433SOL    HW1 9138  10.713   3.184   0.381
 2433SOL    HW2 9139  10.762   3.085   0.483
 2434SOL     OW 9140   8.239   3.712   2.355
 2434SOL    HW1 9141   8.156   3.682   2.318
 2434SOL    HW2 9142   8.228   3.701   2.449
 2435SOL     OW 9143   6.609   0.037   0.128
 2435SOL    HW1 9144   6.660  14.868   0.193
 2435SOL    HW2 9145   6.560  14.849   0.081
 2436SOL     OW 9146   4.552   7.091   8.302
 2436SOL    HW1 9147   4.577   7.025   8.237
 2436SOL    HW2 9148   4.459   7.076   8.315
 2437SOL     OW 9149  10.202  12.080   8.398
 2437SOL    HW1 9150  10.129  12.070   8.338
 2437SOL    HW2 9151  10.239  11.992   8.406
 2438SOL     OW 9152   1.337   8.118   8.094
 2438SOL    HW1 9153   1.390   8.039   8.088
 2438SOL    HW2 9154   1.247   8.087   8.099
 2439SOL     OW 9155  11.786   6.861   7.646
 2439SOL    HW1 9156  11.708   6.896   7.601
 2439SOL    HW2 9157  11.836   6.939   7.670
 2440SOL     OW 9158   9.768   0.173  10.045
 2440SOL    HW1 9159   9.759   0.095  10.100
 2440SOL    HW2 9160   9.847   0.216  10.077
 2441SOL     OW 9161  13.394  12.488   7.772
 2441SOL    HW1 9162  13.360  12.412   7.819
 2441SOL    HW2 9163  13.443  12.537   7.838
 2442SOL     OW 9164   0.868   6.101  10.906
 2442SOL    HW1 9165   0.899   6.145  10.985
 2442SOL    HW2 9166   0.776   6.082  10.923
 2443SOL     OW 9167   0.499  13.889  10.918
 2443SOL    HW1 9168   0.410  13.917  10.942
 2443SOL    HW2 9169   0.546  13.886  11.001
 2444SOL     OW 9170   5.407   6.928  14.350
 2444SOL    HW1 9171   5.386   6.898  14.262
 2444SOL    HW2 9172   5.498   6.957  14.344
 2445SOL     OW 9173   1.809   1.761   0.390
 2445SOL    HW1 9174   1.817   1.776   0.296
 2445SOL    HW2 9175   1.865   1.827   0.430
 2446SOL     OW 9176   4.002  11.778   5.145
 2446SOL    HW1 9177   3.968  11.868   5.150
 2446SOL    HW2 9178   4.085  11.787   5.099
 2447SOL     OW 9179  12.139   3.588  12.188
 2447SOL    HW1 9180  12.107   3.571  12.100
 2447SOL    HW2 9181  12.187   3.671  12.181
 2448SOL     OW 9182   7.463   3.529   0.179
 2448SOL    HW1 9183   7.516   3.547   0.256
 2448SOL    HW2 9184   7.507   3.455   0.136
 2449SOL     OW 9185  11.511   7.379  11.528
 2449SOL    HW1 9186  11.606   7.383  11.513
 2449SOL    HW2 9187  11.493   7.287  11.546
 2450SOL     OW 9188  14.203  14.570   7.892
 2450SOL    HW1 9189  14.206  14.536   7.803
 2450SOL    HW2 9190  14.113  14.558   7.920
 2451SOL     OW 9191  13.577   5.644  14.554
 2451SOL    HW1 9192  13.612   5.695  14.481
 2451SOL    HW2 9193  13.598   5.553  14.532
 2452SOL     OW 9194  13.575   4.827   4.908
 2452SOL    HW1 9195  13.603   4.743   4.945
 2452SOL    HW2 9196  13.508   4.859   4.969
 2453SOL     OW 9197   0.309   1.916   5.927
 2453SOL    HW1 9198   0.345   1.966   5.854
 2453SOL    HW2 9199   0.339   1.962   6.005
 2454SOL     OW 9200  13.591   9.037   0.035
 2454SOL    HW1 9201  13.576   8.945   0.015
 2454SOL    HW2 9202  13.582   9.043   0.130
 2455SOL     OW 9203  14.861   9.490   9.155
 2455SOL    HW1 9204   0.005   9.446   9.237
 2455SOL    HW2 9205   0.016   9.432   9.087
 2456SOL     OW 9206  11.307   7.589  10.571
 2456SOL    HW1 9207  11.280   7.625  10.487
 2456SOL    HW2 9208  11.231   7.537  10.600
 2457SOL     OW 9209  13.317  12.133   9.858
 2457SOL    HW1 9210  13.304  12.091   9.774
 2457SOL    HW2 9211  13.286  12.223   9.845
 2458SOL     OW 9212   3.179  12.963   8.515
 2458SOL    HW1 9213   3.096  12.917   8.524
 2458SOL    HW2 9214   3.169  13.015   8.435
 2459SOL     OW 9215   5.755  10.478   0.520
 2459SOL    HW1 9216   5.815  10.550   0.498
 2459SOL    HW2 9217   5.669  10.512   0.496
 2460SOL     OW 9218   1.268   0.163   6.072
 2460SOL    HW1 9219   1.291   0.252   6.099
 2460SOL    HW2 9220   1.184   0.146   6.116
 2461SOL     OW 9221  12.240   3.641   2.672
 2461SOL    HW1 9222  12.323   3.645   2.626
 2461SOL    HW2 9223  12.263   3.659   2.764
 2462SOL     OW 9224   3.363   6.551   5.314
 2462SOL    HW1 9225   3.362   6.503   5.397
 2462SOL    HW2 9226   3.332   6.488   5.249
 2463SOL     OW 9227  14.386  14.220   0.718
 2463SOL    HW1 9228  14.416  14.135   0.685
 2463SOL    HW2 9229  14.303  14.200   0.762
 2464SOL     OW 9230   5.609   8.038  11.904
 2464SOL    HW1 9231   5.538   8.102  11.898
 2464SOL    HW2 9232   5.566   7.953  11.890
 2465SOL     OW 9233   2.598   6.785   0.184
 2465SOL    HW1 9234   2.672   6.750   0.134
 2465SOL    HW2 9235   2.560   6.709   0.228
 2466SOL     OW 9236  11.883   8.490   0.447
 2466SOL    HW1 9237  11.915   8.401   0.460
 2466SOL    HW2 9238  11.937   8.525   0.376
 2467SOL     OW 9239  13.836   0.617   7.210
 2467SOL    HW1 9240  13.743   0.596   7.218
 2467SOL    HW2 9241  13.880   0.550   7.261
 2468SOL     OW 9242  14.501   9.248  13.239
 2468SOL    HW1 9243  14.572   9.185  13.227
 2468SOL    HW2 9244  14.544   9.327  13.269
 2469SOL     OW 9245   9.755  11.798   5.483
 2469SOL    HW1 9246   9.741  11.893   5.484
 2469SOL    HW2 9247   9.711  11.767   5.563
 2470SOL     OW 9248  12.131   3.656   0.891
 2470SOL    HW1 9249  12.142   3.676   0.798
 2470SOL    HW2 9250  12.218   3.666   0.928
 2471SOL     OW 9251   6.392   0.286   7.933
 2471SOL    HW1 9252   6.354   0.321   8.013
 2471SOL    HW2 9253   6.485   0.273   7.953
 2472SOL     OW 9254  11.478   1.293   9.285
 2472SOL    HW1 9255  11.475   1.210   9.237
 2472SOL    HW2 9256  11.551   1.284   9.345
 2473SOL     OW 9257  10.484   3.298   1.022
 2473SOL    HW1 9258  10.561   3.326   1.073
 2473SOL    HW2 9259  10.499   3.205   1.005
 2474SOL     OW 9260   6.517   7.457   9.842
 2474SOL    HW1 9261   6.563   7.511   9.907
 2474SOL    HW2 9262   6.441   7.423   9.888
 2475SOL     OW 9263   2.504   4.883   3.222
 2475SOL    HW1 9264   2.522   4.923   3.307
 2475SOL    HW2 9265   2.514   4.789   3.237
 2476SOL     OW 9266   8.987   8.760   9.676
 2476SOL    HW1 9267   8.923   8.760   9.605
 2476SOL    HW2 9268   8.978   8.675   9.718
 2477SOL     OW 9269   2.934   8.680  11.293
 2477SOL    HW1 9270   2.896   8.598  11.324
 2477SOL    HW2 9271   2.950   8.666  11.199
 2478SOL     OW 9272   6.364   4.537   8.384
 2478SOL    HW1 9273   6.429   4.467   8.385
 2478SOL    HW2 9274   6.306   4.516   8.458
 2479SOL     OW 9275  13.900   1.031  10.300
 2479SOL    HW1 9276  13.985   1.062  10.268
 2479SOL    HW2 9277  13.839   1.101  10.277
 2480SOL     OW 9278   7.819   4.521   1.722
 2480SOL    HW1 9279   7.816   4.431   1.755
 2480SOL    HW2 9280   7.913   4.541   1.717
 2481SOL     OW 9281  13.137   8.300   2.622
 2481SOL    HW1 9282  13.108   8.274   2.534
 2481SOL    HW2 9283  13.073   8.366   2.649
 2482SOL     OW 9284   1.367   5.960  11.523
 2482SOL    HW1 9285   1.412   5.902  11.584
 2482SOL    HW2 9286   1.301   5.904  11.482
 2483SOL     OW 9287  11.861  10.163   8.646
 2483SOL    HW1 9288  11.926  10.134   8.581
 2483SOL    HW2 9289  11.910  10.167   8.728
 2484SOL     OW 9290  12.893   9.248   5.733
 2484SOL    HW1 9291  12.953   9.320   5.713
 2484SOL    HW2 9292  12.806   9.281   5.711
 2485SOL     OW 9293  14.439   7.901   2.498
 2485SOL    HW1 9294  14.501   7.944   2.439
 2485SOL    HW2 9295  14.460   7.936   2.584
 2486SOL     OW 9296   6.704  10.126  11.967
 2486SOL    HW1 9297   6.794  10.157  11.959
 2486SOL    HW2 9298   6.672  10.166  12.048
 2487SOL     OW 9299  10.533   9.268   3.650
 2487SOL    HW1 9300  10.574   9.201   3.704
 2487SOL    HW2 9301  10.449   9.229   3.625
 2488SOL     OW 9302   4.730   0.780   5.523
 2488SOL    HW1 9303   4.644   0.816   5.545
 2488SOL    HW2 9304   4.711   0.704   5.468
 2489SOL     OW 9305   0.427   0.181   2.642
 2489SOL    HW1 9306   0.390   0.180   2.730
 2489SOL    HW2 9307   0.379   0.114   2.594
 2490SOL     OW 9308  10.879   0.838   6.497
 2490SOL    HW1 9309  10.911   0.845   6.587
 2490SOL    HW2 9310  10.885   0.927   6.463
 2491SOL     OW 9311   1.854   3.850  12.426
 2491SOL    HW1 9312   1.814   3.907  12.491
 2491SOL    HW2 9313   1.924   3.902  12.387
 2492SOL     OW 9314   3.051  10.080   2.470
 2492SOL    HW1 9315   3.125  10.021   2.462
 2492SOL    HW2 9316   2.994  10.057   2.396
 2493SOL     OW 9317   1.045   8.704  10.480
 2493SOL    HW1 9318   1.086   8.779  10.436
 2493SOL    HW2 9319   0.951   8.716  10.464
 2494SOL     OW 9320   5.560   7.910  13.662
 2494SOL    HW1 9321   5.521   7.824  13.643
 2494SOL    HW2 9322   5.486   7.963  13.692
 2495SOL     OW 9323  12.184   9.217   3.188
 2495SOL    HW1 9324  12.177   9.303   3.146
 2495SOL    HW2 9325  12.187   9.155   3.115
 2496SOL     OW 9326   1.128  13.296   7.731
 2496SOL    HW1 9327   1.202  13.299   7.791
 2496SOL    HW2 9328   1.117  13.203   7.710
 2497SOL     OW 9329  12.549  12.867  13.867
 2497SOL    HW1 9330  12.465  12.821  13.875
 2497SOL    HW2 9331  12.613  12.807  13.906
 2498SOL     OW 9332   3.605   1.019  13.645
 2498SOL    HW1 9333   3.670   1.060  13.588
 2498SOL    HW2 9334   3.560   0.956  13.590
 2499SOL     OW 9335   6.848  13.684  10.316
 2499SOL    HW1 9336   6.778  13.656  10.375
 2499SOL    HW2 9337   6.830  13.636  10.235
 2500SOL     OW 9338  13.980   5.396  12.204
 2500SOL    HW1 9339  13.897   5.437  12.180
 2500SOL    HW2 9340  13.978   5.310  12.161
 2501SOL     OW 9341   6.383   8.636   8.075
 2501SOL    HW1 9342   6.471   8.661   8.047
 2501SOL    HW2 9343   6.397   8.576   8.149
 2502SOL     OW 9344   9.776  10.853  14.788
 2502SOL    HW1 9345   9.689  10.889  14.769
 2502SOL    HW2 9346   9.837  10.919  14.756
 2503SOL     OW 9347   9.573   0.275  13.422
 2503SOL    HW1 9348   9.649   0.312  13.466
 2503SOL    HW2 9349   9.498   0.312  13.469
 2504SOL     OW 9350  14.138  14.156  12.267
 2504SOL    HW1 9351  14.172  14.070  12.242
 2504SOL    HW2 9352  14.080  14.139  12.341
 2505SOL     OW 9353   4.273   0.170  11.863
 2505SOL    HW1 9354   4.344   0.153  11.925
 2505SOL    HW2 9355   4.303   0.132  11.781
 2506SOL     OW 9356  14.447   9.511   3.291
 2506SOL    HW1 9357  14.542   9.503   3.292
 2506SOL    HW2 9358  14.420   9.472   3.208
 2507SOL     OW 9359  10.118   4.841   1.269
 2507SOL    HW1 9360  10.108   4.926   1.312
 2507SOL    HW2 9361  10.201   4.848   1.221
 2508SOL     OW 9362   8.804   2.966   6.096
 2508SOL    HW1 9363   8.740   3.034   6.115
 2508SOL    HW2 9364   8.752   2.889   6.075
 2509SOL     OW 9365  12.273   6.628  14.811
 2509SOL    HW1 9366  12.315   6.552  14.770
 2509SOL    HW2 9367  12.180   6.611  14.803
 2510SOL     OW 9368   0.299  11.719   8.235
 2510SOL    HW1 9369   0.253  11.750   8.157
 2510SOL    HW2 9370   0.381  11.768   8.236
 2511SOL     OW 9371  11.065   9.595  12.801
 2511SOL    HW1 9372  11.032   9.568  12.715
 2511SOL    HW2 9373  11.000   9.562  12.863
 2512SOL     OW 9374   6.115   1.899   7.723
 2512SOL    HW1 9375   6.034   1.934   7.686
 2512SOL    HW2 9376   6.161   1.862   7.647
 2513SOL     OW 9377   2.076   1.476   8.520
 2513SOL    HW1 9378   2.040   1.549   8.470
 2513SOL    HW2 9379   2.000   1.440   8.567
 2514SOL     OW 9380   3.564   1.797   4.399
 2514SOL    HW1 9381   3.510   1.720   4.415
 2514SOL    HW2 9382   3.651   1.762   4.379
 2515SOL     OW 9383   8.468  14.642   4.495
 2515SOL    HW1 9384   8.488  14.728   4.532
 2515SOL    HW2 9385   8.545  14.589   4.513
 2516SOL     OW 9386  10.559  12.629  10.215
 2516SOL    HW1 9387  10.600  12.571  10.279
 2516SOL    HW2 9388  10.560  12.715  10.256
 2517SOL     OW 9389  10.914  12.937   6.285
 2517SOL    HW1 9390  10.844  12.886   6.326
 2517SOL    HW2 9391  10.874  12.976   6.208
 2518SOL     OW 9392   6.209   9.187   3.336
 2518SOL    HW1 9393   6.204   9.211   3.244
 2518SOL    HW2 9394   6.157   9.107   3.343
 2519SOL     OW 9395   0.777   5.691   7.389
 2519SOL    HW1 9396   0.812   5.765   7.437
 2519SOL    HW2 9397   0.722   5.645   7.451
 2520SOL     OW 9398   0.844   3.193   8.892
 2520SOL    HW1 9399   0.852   3.187   8.988
 2520SOL    HW2 9400   0.768   3.250   8.878
 2521SOL     OW 9401  13.833   8.406   4.657
 2521SOL    HW1 9402  13.904   8.343   4.671
 2521SOL    HW2 9403  13.825   8.412   4.562
 2522SOL     OW 9404   4.496   4.258   0.757
 2522SOL    HW1 9405   4.551   4.275   0.680
 2522SOL    HW2 9406   4.538   4.184   0.800
 2523SOL     OW 9407  12.030  14.139   0.731
 2523SOL    HW1 9408  12.102  14.082   0.756
 2523SOL    HW2 9409  11.956  14.108   0.783
 2524SOL     OW 9410   7.740   4.753   6.303
 2524SOL    HW1 9411   7.820   4.732   6.255
 2524SOL    HW2 9412   7.734   4.848   6.299
 2525SOL     OW 9413   1.534  14.461   8.021
 2525SOL    HW1 9414   1.546  14.515   7.943
 2525SOL    HW2 9415   1.468  14.396   7.995
 2526SOL     OW 9416  11.014   5.940  11.955
 2526SOL    HW1 9417  10.932   5.958  11.909
 2526SOL    HW2 9418  11.032   5.848  11.936
 2527SOL     OW 9419   2.993   4.692   2.636
 2527SOL    HW1 9420   2.919   4.650   2.679
 2527SOL    HW2 9421   2.969   4.784   2.631
 2528SOL     OW 9422   0.222  11.224  13.646
 2528SOL    HW1 9423   0.280  11.294  13.678
 2528SOL    HW2 9424   0.191  11.255  13.562
 2529SOL     OW 9425  13.905   7.214   8.607
 2529SOL    HW1 9426  13.953   7.141   8.569
 2529SOL    HW2 9427  13.913   7.201   8.702
 2530SOL     OW 9428  10.856   2.565  14.219
 2530SOL    HW1 9429  10.917   2.504  14.178
 2530SOL    HW2 9430  10.912   2.637  14.249
 2531SOL     OW 9431  12.157   1.064   3.121
 2531SOL    HW1 9432  12.198   1.058   3.034
 2531SOL    HW2 9433  12.135   0.973   3.143
 2532SOL     OW 9434   1.353   1.004   0.904
 2532SOL    HW1 9435   1.303   1.073   0.859
 2532SOL    HW2 9436   1.427   1.050   0.942
 2533SOL     OW 9437   5.689   6.607   3.479
 2533SOL    HW1 9438   5.689   6.579   3.571
 2533SOL    HW2 9439   5.763   6.561   3.440
 2534SOL     OW 9440   6.578   9.080   2.848
 2534SOL    HW1 9441   6.597   9.155   2.905
 2534SOL    HW2 9442   6.489   9.096   2.818
 2535SOL     OW 9443  11.495   6.984   4.623
 2535SOL    HW1 9444  11.501   6.924   4.549
 2535SOL    HW2 9445  11.541   6.940   4.694
 2536SOL     OW 9446   8.678   3.050  14.199
 2536SOL    HW1 9447   8.705   2.982  14.261
 2536SOL    HW2 9448   8.619   3.005  14.139
 2537SOL     OW 9449  13.250   4.332   3.836
 2537SOL    HW1 9450  13.204   4.395   3.780
 2537SOL    HW2 9451  13.182   4.272   3.865
 2538SOL     OW 9452   5.939   3.000   6.054
 2538SOL    HW1 9453   5.905   2.911   6.039
 2538SOL    HW2 9454   5.886   3.033   6.127
 2539SOL     OW 9455   2.266   7.281   7.511
 2539SOL    HW1 9456   2.208   7.347   7.475
 2539SOL    HW2 9457   2.221   7.198   7.495
 2540SOL     OW 9458  12.985   2.545   2.467
 2540SOL    HW1 9459  13.076   2.567   2.488
 2540SOL    HW2 9460  12.992   2.471   2.407
 2541SOL     OW 9461   1.294   5.309   3.741
 2541SOL    HW1 9462   1.199   5.300   3.744
 2541SOL    HW2 9463   1.326   5.223   3.714
 2542SOL     OW 9464  14.164  14.477   0.932
 2542SOL    HW1 9465  14.071  14.463   0.948
 2542SOL    HW2 9466  14.167  14.550   0.870
 2543SOL     OW 9467   7.617   9.653   5.705
 2543SOL    HW1 9468   7.663   9.610   5.777
 2543SOL    HW2 9469   7.545   9.700   5.747
 2544SOL     OW 9470   7.969  12.864  12.454
 2544SOL    HW1 9471   8.013  12.806  12.516
 2544SOL    HW2 9472   7.921  12.804  12.396
 2545SOL     OW 9473   2.457   7.433   5.095
 2545SOL    HW1 9474   2.429   7.488   5.167
 2545SOL    HW2 9475   2.391   7.446   5.027
 2546SOL     OW 9476  13.925   6.003   2.066
 2546SOL    HW1 9477  13.885   6.063   2.129
 2546SOL    HW2 9478  13.866   6.003   1.991
 2547SOL     OW 9479   5.959  11.905   9.491
 2547SOL    HW1 9480   5.867  11.886   9.472
 2547SOL    HW2 9481   5.991  11.950   9.413
 2548SOL     OW 9482   3.101   6.387   0.327
 2548SOL    HW1 9483   3.048   6.315   0.363
 2548SOL    HW2 9484   3.190   6.370   0.359
 2549SOL     OW 9485   4.630   3.067   5.055
 2549SOL    HW1 9486   4.661   3.110   5.134
 2549SOL    HW2 9487   4.685   3.102   4.985
 2550SOL     OW 9488  14.541   0.203   1.845
 2550SOL    HW1 9489  14.595   0.180   1.769
 2550SOL    HW2 9490  14.555   0.297   1.856
 2551SOL     OW 9491  12.999   1.773   8.108
 2551SOL    HW1 9492  13.013   1.867   8.121
 2551SOL    HW2 9493  13.025   1.734   8.192
 2552SOL     OW 9494  11.132   0.831  12.246
 2552SOL    HW1 9495  11.197   0.761  12.247
 2552SOL    HW2 9496  11.182   0.909  12.222
 2553SOL     OW 9497   0.258   0.386  14.687
 2553SOL    HW1 9498   0.247   0.338  14.769
 2553SOL    HW2 9499   0.290   0.320  14.625
 2554SOL     OW 9500  13.343   5.033   3.530
 2554SOL    HW1 9501  13.250   5.031   3.551
 2554SOL    HW2 9502  13.354   5.114   3.480
 2555SOL     OW 9503   0.021   1.202  12.961
 2555SOL    HW1 9504   0.063   1.273  13.009
 2555SOL    HW2 9505  14.838   1.246  12.904
 2556SOL     OW 9506   2.060   8.435  13.350
 2556SOL    HW1 9507   1.966   8.432  13.335
 2556SOL    HW2 9508   2.098   8.387  13.276
 2557SOL     OW 9509   8.747   5.705  10.462
 2557SOL    HW1 9510   8.810   5.765  10.421
 2557SOL    HW2 9511   8.667   5.716  10.409
 2558SOL     OW 9512  14.301  12.609   3.832
 2558SOL    HW1 9513  14.235  12.540   3.843
 2558SOL    HW2 9514  14.315  12.614   3.737
 2559SOL     OW 9515   2.950   4.412  11.012
 2559SOL    HW1 9516   2.926   4.324  10.984
 2559SOL    HW2 9517   2.915   4.419  11.101
 2560SOL     OW 9518   8.708  11.130  11.690
 2560SOL    HW1 9519   8.757  11.212  11.682
 2560SOL    HW2 9520   8.663  11.121  11.606
 2561SOL     OW 9521  10.504   1.113  13.803
 2561SOL    HW1 9522  10.477   1.173  13.873
 2561SOL    HW2 9523  10.441   1.041  13.807
 2562SOL     OW 9524   5.618   3.536  10.322
 2562SOL    HW1 9525   5.580   3.498  10.401
 2562SOL    HW2 9526   5.611   3.630  10.334
 2563SOL     OW 9527   7.747   4.672  13.065
 2563SOL    HW1 9528   7.753   4.765  13.087
 2563SOL    HW2 9529   7.831   4.635  13.093
 2564SOL     OW 9530   9.159   6.979   6.742
 2564SOL    HW1 9531   9.070   6.954   6.763
 2564SOL    HW2 9532   9.210   6.899   6.755
 2565SOL     OW 9533   5.685  10.631   5.574
 2565SOL    HW1 9534   5.762  10.624   5.518
 2565SOL    HW2 9535   5.612  10.606   5.517
 2566SOL     OW 9536  10.308   2.012   2.085
 2566SOL    HW1 9537  10.244   2.079   2.107
 2566SOL    HW2 9538  10.330   1.972   2.169
 2567SOL     OW 9539   5.944   1.941   3.016
 2567SOL    HW1 9540   6.038   1.936   3.031
 2567SOL    HW2 9541   5.906   1.956   3.102
 2568SOL     OW 9542  13.277   0.147   6.200
 2568SOL    HW1 9543  13.251   0.236   6.222
 2568SOL    HW2 9544  13.267   0.141   6.105
 2569SOL     OW 9545   5.781   5.818   7.616
 2569SOL    HW1 9546   5.708   5.775   7.660
 2569SOL    HW2 9547   5.842   5.840   7.687
 2570SOL     OW 9548   7.118  13.927   4.269
 2570SOL    HW1 9549   7.142  13.918   4.176
 2570SOL    HW2 9550   7.039  13.981   4.268
 2571SOL     OW 9551   2.690  12.088   0.117
 2571SOL    HW1 9552   2.781  12.078   0.090
 2571SOL    HW2 9553   2.692  12.081   0.212
 2572SOL     OW 9554  10.577  14.101   0.872
 2572SOL    HW1 9555  10.565  14.006   0.870
 2572SOL    HW2 9556  10.491  14.136   0.851
 2573SOL     OW 9557   5.245   7.241   6.546
 2573SOL    HW1 9558   5.219   7.333   6.533
 2573SOL    HW2 9559   5.340   7.243   6.546
 2574SOL     OW 9560   5.272   5.495   0.620
 2574SOL    HW1 9561   5.325   5.500   0.699
 2574SOL    HW2 9562   5.279   5.582   0.581
 2575SOL     OW 9563  13.031   6.137   7.603
 2575SOL    HW1 9564  13.124   6.155   7.585
 2575SOL    HW2 9565  12.983   6.193   7.542
 2576SOL     OW 9566   6.232   8.940   3.711
 2576SOL    HW1 9567   6.157   8.970   3.762
 2576SOL    HW2 9568   6.281   9.019   3.691
 2577SOL     OW 9569  12.316   8.961  10.429
 2577SOL    HW1 9570  12.283   8.873  10.447
 2577SOL    HW2 9571  12.369   8.984  10.505
 2578SOL     OW 9572   9.089   0.062  10.455
 2578SOL    HW1 9573   9.124   0.140  10.498
 2578SOL    HW2 9574   9.157  14.875  10.467
 2579SOL     OW 9575  13.095   6.264   0.432
 2579SOL    HW1 9576  13.133   6.188   0.477
 2579SOL    HW2 9577  13.095   6.239   0.340
 2580SOL     OW 9578   3.214   1.262  10.098
 2580SOL    HW1 9579   3.277   1.329  10.073
 2580SOL    HW2 9580   3.192   1.218  10.017
 2581SOL     OW 9581  10.429  10.525   7.395
 2581SOL    HW1 9582  10.365  10.520   7.324
 2581SOL    HW2 9583  10.468  10.612   7.386
 2582SOL     OW 9584   3.201   1.513   1.845
 2582SOL    HW1 9585   3.116   1.548   1.819
 2582SOL    HW2 9586   3.214   1.437   1.789
 2583SOL     OW 9587   5.504   1.721   2.668
 2583SOL    HW1 9588   5.518   1.711   2.762
 2583SOL    HW2 9589   5.420   1.767   2.661
 2584SOL     OW 9590   9.809   1.506   8.516
 2584SOL    HW1 9591   9.829   1.592   8.479
 2584SOL    HW2 9592   9.886   1.453   8.496
 2585SOL     OW 9593   5.252   9.865   8.160
 2585SOL    HW1 9594   5.342   9.880   8.130
 2585SOL    HW2 9595   5.217   9.803   8.096
 2586SOL     OW 9596   4.857   7.111  11.373
 2586SOL    HW1 9597   4.888   7.137  11.286
 2586SOL    HW2 9598   4.802   7.035  11.357
 2587SOL     OW 9599   1.494   9.579  14.336
 2587SOL    HW1 9600   1.543   9.629  14.401
 2587SOL    HW2 9601   1.534   9.602  14.252
 2588SOL     OW 9602  12.245  11.499   9.859
 2588SOL    HW1 9603  12.192  11.503   9.939
 2588SOL    HW2 9604  12.329  11.463   9.888
 2589SOL     OW 9605  13.537   3.501   1.868
 2589SOL    HW1 9606  13.476   3.428   1.862
 2589SOL    HW2 9607  13.502   3.567   1.808
 2590SOL     OW 9608   0.970   5.495   2.474
 2590SOL    HW1 9609   1.010   5.504   2.387
 2590SOL    HW2 9610   0.876   5.493   2.457
 2591SOL     OW 9611   8.976  14.053   7.711
 2591SOL    HW1 9612   8.956  14.022   7.799
 2591SOL    HW2 9613   9.024  14.134   7.724
 2592SOL     OW 9614   9.969   7.420  13.254
 2592SOL    HW1 9615   9.936   7.498  13.298
 2592SOL    HW2 9616   9.959   7.439  13.161
 2593SOL     OW 9617   9.908   4.032   3.644
 2593SOL    HW1 9618   9.848   4.098   3.678
 2593SOL    HW2 9619   9.943   4.071   3.563
 2594SOL     OW 9620   1.683   5.856   4.086
 2594SOL    HW1 9621   1.648   5.815   4.166
 2594SOL    HW2 9622   1.763   5.899   4.115
 2595SOL     OW 9623   7.258   6.916  14.381
 2595SOL    HW1 9624   7.325   6.972  14.343
 2595SOL    HW2 9625   7.276   6.829  14.346
 2596SOL     OW 9626   3.126   7.352   5.937
 2596SOL    HW1 9627   3.190   7.303   5.988
 2596SOL    HW2 9628   3.102   7.426   5.992
 2597SOL     OW 9629  12.158   3.033   6.337
 2597SOL    HW1 9630  12.234   2.980   6.361
 2597SOL    HW2 9631  12.160   3.107   6.397
 2598SOL     OW 9632   2.595   1.694   1.148
 2598SOL    HW1 9633   2.550   1.696   1.064
 2598SOL    HW2 9634   2.688   1.704   1.125
 2599SOL     OW 9635   7.840   8.158  11.740
 2599SOL    HW1 9636   7.857   8.076  11.695
 2599SOL    HW2 9637   7.766   8.139  11.798
 2600SOL     OW 9638  12.071  11.008   0.754
 2600SOL    HW1 9639  12.158  10.982   0.782
 2600SOL    HW2 9640  12.013  10.939   0.786
 2601SOL     OW 9641  10.114   0.700   5.040
 2601SOL    HW1 9642  10.063   0.719   4.961
 2601SOL    HW2 9643  10.137   0.786   5.075
 2602SOL     OW 9644  13.315   9.388  14.357
 2602SOL    HW1 9645  13.361   9.400  14.274
 2602SOL    HW2 9646  13.305   9.476  14.393
 2603SOL     OW 9647  10.985  12.032   2.799
 2603SOL    HW1 9648  10.946  12.117   2.818
 2603SOL    HW2 9649  11.073  12.052   2.766
 2604SOL     OW 9650   0.618   3.766  11.931
 2604SOL    HW1 9651   0.686   3.770  11.997
 2604SOL    HW2 9652   0.636   3.685  11.882
 2605SOL     OW 9653  14.177   5.103  12.442
 2605SOL    HW1 9654  14.109   5.056  12.394
 2605SOL    HW2 9655  14.224   5.153  12.375
 2606SOL     OW 9656   4.862  10.097  12.812
 2606SOL    HW1 9657   4.860  10.061  12.901
 2606SOL    HW2 9658   4.885  10.189  12.824
 2607SOL     OW 9659   6.496   9.293   7.354
 2607SOL    HW1 9660   6.481   9.373   7.405
 2607SOL    HW2 9661   6.530   9.230   7.417
 2608SOL     OW 9662   4.614   3.568   7.011
 2608SOL    HW1 9663   4.675   3.498   7.037
 2608SOL    HW2 9664   4.613   3.565   6.916
 2609SOL     OW 9665  14.661   7.185  10.509
 2609SOL    HW1 9666  14.708   7.151  10.432
 2609SOL    HW2 9667  14.702   7.269  10.527
 2610SOL     OW 9668  12.804   0.280   8.606
 2610SOL    HW1 9669  12.864   0.339   8.560
 2610SOL    HW2 9670  12.717   0.319   8.593
 2611SOL     OW 9671  11.370   5.513  13.746
 2611SOL    HW1 9672  11.329   5.427  13.734
 2611SOL    HW2 9673  11.463   5.498  13.734
 2612SOL     OW 9674  10.836   2.714   3.769
 2612SOL    HW1 9675  10.876   2.657   3.835
 2612SOL    HW2 9676  10.760   2.665   3.738
 2613SOL     OW 9677  12.583  13.099   6.693
 2613SOL    HW1 9678  12.531  13.024   6.720
 2613SOL    HW2 9679  12.640  13.066   6.624
 2614SOL     OW 9680  13.874  10.160  14.734
 2614SOL    HW1 9681  13.841  10.091  14.792
 2614SOL    HW2 9682  13.922  10.219  14.793
 2615SOL     OW 9683   3.123  13.862   1.561
 2615SOL    HW1 9684   3.091  13.795   1.501
 2615SOL    HW2 9685   3.200  13.823   1.602
 2616SOL     OW 9686  10.989   8.766   3.458
 2616SOL    HW1 9687  10.901   8.791   3.432
 2616SOL    HW2 9688  11.043   8.786   3.381
 2617SOL     OW 9689   6.698   5.429  10.952
 2617SOL    HW1 9690   6.650   5.357  10.992
 2617SOL    HW2 9691   6.725   5.396  10.866
 2618SOL     OW 9692  13.357   3.337   1.860
 2618SOL    HW1 9693  13.352   3.273   1.931
 2618SOL    HW2 9694  13.266   3.365   1.846
 2619SOL     OW 9695   2.366   0.267   2.706
 2619SOL    HW1 9696   2.406   0.211   2.640
 2619SOL    HW2 9697   2.381   0.222   2.789
 2620SOL     OW 9698   0.729   3.683   9.411
 2620SOL    HW1 9699   0.792   3.619   9.443
 2620SOL    HW2 9700   0.780   3.740   9.353
 2621SOL     OW 9701   6.697   5.511  14.594
 2621SOL    HW1 9702   6.787   5.507  14.563
 2621SOL    HW2 9703   6.703   5.549  14.681
 2622SOL     OW 9704   0.084  13.188   8.512
 2622SOL    HW1 9705   0.059  13.191   8.604
 2622SOL    HW2 9706   0.090  13.095   8.491
 2623SOL     OW 9707   5.606  10.039   7.631
 2623SOL    HW1 9708   5.560  10.063   7.711
 2623SOL    HW2 9709   5.664   9.968   7.657
 2624SOL     OW 9710   2.985   7.175   0.418
 2624SOL    HW1 9711   2.921   7.233   0.458
 2624SOL    HW2 9712   3.065   7.228   0.411
 2625SOL     OW 9713   6.785   8.885   7.626
 2625SOL    HW1 9714   6.836   8.965   7.635
 2625SOL    HW2 9715   6.732   8.882   7.706
 2626SOL     OW 9716  11.564  12.673   2.748
 2626SOL    HW1 9717  11.611  12.746   2.707
 2626SOL    HW2 9718  11.494  12.715   2.798
 2627SOL     OW 9719   5.571   3.123   6.350
 2627SOL    HW1 9720   5.576   3.050   6.413
 2627SOL    HW2 9721   5.542   3.082   6.269
 2628SOL     OW 9722   9.583  13.692  10.893
 2628SOL    HW1 9723   9.670  13.712  10.927
 2628SOL    HW2 9724   9.559  13.770  10.843
 2629SOL     OW 9725  14.448   2.131   1.239
 2629SOL    HW1 9726  14.360   2.140   1.276
 2629SOL    HW2 9727  14.467   2.037   1.244
 2630SOL     OW 9728   6.152   0.838   1.904
 2630SOL    HW1 9729   6.142   0.926   1.939
 2630SOL    HW2 9730   6.120   0.780   1.974
 2631SOL     OW 9731  14.625   9.060   1.153
 2631SOL    HW1 9732  14.545   9.113   1.160
 2631SOL    HW2 9733  14.613   9.010   1.072
 2632SOL     OW 9734   4.654   3.931  12.171
 2632SOL    HW1 9735   4.621   3.999  12.112
 2632SOL    HW2 9736   4.581   3.910  12.228
 2633SOL     OW 9737   7.567  13.457   2.276
 2633SOL    HW1 9738   7.614  13.380   2.307
 2633SOL    HW2 9739   7.496  13.470   2.339
 2634SOL     OW 9740   8.701   0.071   7.122
 2634SOL    HW1 9741   8.655   0.141   7.169
 2634SOL    HW2 9742   8.790   0.103   7.112
 2635SOL     OW 9743  12.905   4.671   4.096
 2635SOL    HW1 9744  12.945   4.624   4.023
 2635SOL    HW2 9745  12.846   4.607   4.136
 2636SOL     OW 9746   2.611   9.209   3.485
 2636SOL    HW1 9747   2.528   9.174   3.517
 2636SOL    HW2 9748   2.648   9.255   3.561
 2637SOL     OW 9749  13.624   7.305  13.064
 2637SOL    HW1 9750  13.568   7.312  13.141
 2637SOL    HW2 9751  13.713   7.307  13.098
 2638SOL     OW 9752   1.205   5.820   1.562
 2638SOL    HW1 9753   1.290   5.811   1.519
 2638SOL    HW2 9754   1.148   5.757   1.516
 2639SOL     OW 9755   4.278   7.676  12.015
 2639SOL    HW1 9756   4.372   7.660  12.021
 2639SOL    HW2 9757   4.245   7.609  11.956
 2640SOL     OW 9758   0.158   1.400  13.075
 2640SOL    HW1 9759   0.113   1.485  13.079
 2640SOL    HW2 9760   0.238   1.413  13.125
 2641SOL     OW 9761  14.659   3.347   2.302
 2641SOL    HW1 9762  14.672   3.379   2.213
 2641SOL    HW2 9763  14.672   3.423   2.358
 2642SOL     OW 9764   3.470  12.778   0.143
 2642SOL    HW1 9765   3.527  12.839   0.096
 2642SOL    HW2 9766   3.407  12.749   0.077
 2643SOL     OW 9767   5.483   3.416  10.532
 2643SOL    HW1 9768   5.514   3.414  10.623
 2643SOL    HW2 9769   5.500   3.327  10.500
 2644SOL     OW 9770   7.620   2.056  14.252
 2644SOL    HW1 9771   7.706   2.027  14.283
 2644SOL    HW2 9772   7.621   2.151  14.266
 2645SOL     OW 9773  11.877  12.784   9.615
 2645SOL    HW1 9774  11.829  12.742   9.544
 2645SOL    HW2 9775  11.952  12.825   9.572
 2646SOL     OW 9776   2.986   7.454   8.839
 2646SOL    HW1 9777   3.006   7.538   8.878
 2646SOL    HW2 9778   2.971   7.395   8.913
 2647SOL     OW 9779   8.098  14.605  10.043
 2647SOL    HW1 9780   8.096  14.533   9.979
 2647SOL    HW2 9781   8.010  14.643  10.039
 2648SOL     OW 9782   2.160   5.741  13.150
 2648SOL    HW1 9783   2.189   5.671  13.091
 2648SOL    HW2 9784   2.224   5.811  13.137
 2649SOL     OW 9785   6.669   1.528  10.637
 2649SOL    HW1 9786   6.620   1.447  10.647
 2649SOL    HW2 9787   6.725   1.533  10.714
 2650SOL     OW 9788  11.259   2.400  10.942
 2650SOL    HW1 9789  11.223   2.475  10.989
 2650SOL    HW2 9790  11.187   2.370  10.887
 2651SOL     OW 9791   9.634   6.451   6.656
 2651SOL    HW1 9792   9.570   6.518   6.630
 2651SOL    HW2 9793   9.585   6.394   6.715
 2652SOL     OW 9794   4.793   7.734   2.213
 2652SOL    HW1 9795   4.840   7.756   2.133
 2652SOL    HW2 9796   4.708   7.704   2.183
 2653SOL     OW 9797   3.788   9.861  14.107
 2653SOL    HW1 9798   3.806   9.768  14.090
 2653SOL    HW2 9799   3.726   9.886  14.039
 2654SOL     OW 9800   1.723   6.449   4.825
 2654SOL    HW1 9801   1.749   6.401   4.903
 2654SOL    HW2 9802   1.755   6.538   4.839
 2655SOL     OW 9803   4.158  12.610  10.687
 2655SOL    HW1 9804   4.149  12.595  10.593
 2655SOL    HW2 9805   4.230  12.552  10.714
 2656SOL     OW 9806  14.827   4.615   1.764
 2656SOL    HW1 9807  14.795   4.599   1.853
 2656SOL    HW2 9808  14.847   4.528   1.730
 2657SOL     OW 9809   0.315  13.839  12.408
 2657SOL    HW1 9810   0.238  13.855  12.463
 2657SOL    HW2 9811   0.383  13.895  12.445
 2658SOL     OW 9812   2.436   1.199  11.844
 2658SOL    HW1 9813   2.474   1.127  11.793
 2658SOL    HW2 9814   2.475   1.190  11.931
 2659SOL     OW 9815   1.093   2.012   8.919
 2659SOL    HW1 9816   1.185   1.997   8.940
 2659SOL    HW2 9817   1.077   1.959   8.840
 2660SOL     OW 9818   9.868   5.606   7.061
 2660SOL    HW1 9819   9.796   5.637   7.116
 2660SOL    HW2 9820   9.893   5.522   7.100
 2661SOL     OW 9821   3.023   2.173   3.386
 2661SOL    HW1 9822   3.072   2.098   3.419
 2661SOL    HW2 9823   3.052   2.183   3.296
 2662SOL     OW 9824   0.188  10.442   9.567
 2662SOL    HW1 9825   0.199  10.464   9.474
 2662SOL    HW2 9826   0.105  10.484   9.592
 2663SOL     OW 9827  12.522  12.390   5.940
 2663SOL    HW1 9828  12.461  12.350   6.002
 2663SOL    HW2 9829  12.536  12.478   5.973
 2664SOL     OW 9830   4.539   9.292   9.131
 2664SOL    HW1 9831   4.463   9.349   9.119
 2664SOL    HW2 9832   4.596   9.341   9.190
 2665SOL     OW 9833   8.485   5.087   8.707
 2665SOL    HW1 9834   8.535   5.038   8.643
 2665SOL    HW2 9835   8.542   5.160   8.732
 2666SOL     OW 9836  11.174   7.419  12.188
 2666SOL    HW1 9837  11.221   7.489  12.143
 2666SOL    HW2 9838  11.083   7.450  12.190
 2667SOL     OW 9839  11.161   5.709  13.023
 2667SOL    HW1 9840  11.199   5.623  13.038
 2667SOL    HW2 9841  11.224   5.770  13.061
 2668SOL     OW 9842   6.206   8.927   4.726
 2668SOL    HW1 9843   6.150   8.907   4.651
 2668SOL    HW2 9844   6.265   8.852   4.733
 2669SOL     OW 9845   8.236   1.841   2.884
 2669SOL    HW1 9846   8.177   1.768   2.864
 2669SOL    HW2 9847   8.246   1.887   2.801
 2670SOL     OW 9848   7.756   3.205  10.011
 2670SOL    HW1 9849   7.819   3.275   9.994
 2670SOL    HW2 9850   7.720   3.227  10.097
 2671SOL     OW 9851   2.503   1.493  14.669
 2671SOL    HW1 9852   2.573   1.429  14.655
 2671SOL    HW2 9853   2.523   1.531  14.755
 2672SOL     OW 9854   4.060   5.786   0.225
 2672SOL    HW1 9855   4.015   5.767   0.143
 2672SOL    HW2 9856   4.150   5.757   0.209
 2673SOL     OW 9857   7.615  11.264   7.117
 2673SOL    HW1 9858   7.675  11.339   7.111
 2673SOL    HW2 9859   7.671  11.187   7.106
 2674SOL     OW 9860  11.974   0.808  11.376
 2674SOL    HW1 9861  11.878   0.816  11.379
 2674SOL    HW2 9862  11.992   0.774  11.288
 2675SOL     OW 9863  11.503   3.688   0.766
 2675SOL    HW1 9864  11.501   3.604   0.813
 2675SOL    HW2 9865  11.490   3.754   0.834
 2676SOL     OW 9866   7.185   2.451  11.182
 2676SOL    HW1 9867   7.116   2.402  11.227
 2676SOL    HW2 9868   7.253   2.386  11.165
 2677SOL     OW 9869   4.733   1.917  12.558
 2677SOL    HW1 9870   4.692   1.842  12.514
 2677SOL    HW2 9871   4.775   1.966  12.487
 2678SOL     OW 9872   5.986  11.107   8.030
 2678SOL    HW1 9873   6.060  11.107   7.970
 2678SOL    HW2 9874   5.957  11.198   8.033
 2679SOL     OW 9875   3.195  11.027   2.227
 2679SOL    HW1 9876   3.243  11.098   2.185
 2679SOL    HW2 9877   3.201  11.046   2.321
 2680SOL     OW 9878  10.183   4.456   8.792
 2680SOL    HW1 9879  10.132   4.394   8.740
 2680SOL    HW2 9880  10.272   4.448   8.759
 2681SOL     OW 9881  14.587   4.817  11.480
 2681SOL    HW1 9882  14.529   4.761  11.532
 2681SOL    HW2 9883  14.646   4.856  11.545
 2682SOL     OW 9884   0.512   3.761  11.433
 2682SOL    HW1 9885   0.535   3.790  11.521
 2682SOL    HW2 9886   0.573   3.807  11.375
 2683SOL     OW 9887   6.730  14.407   9.413
 2683SOL    HW1 9888   6.697  14.446   9.332
 2683SOL    HW2 9889   6.780  14.477   9.455
 2684SOL     OW 9890   2.990   4.859   6.531
 2684SOL    HW1 9891   2.938   4.939   6.525
 2684SOL    HW2 9892   2.960   4.815   6.610
 2685SOL     OW 9893  10.229   4.107   2.498
 2685SOL    HW1 9894  10.246   4.175   2.434
 2685SOL    HW2 9895  10.149   4.063   2.467
 2686SOL     OW 9896   9.015   2.683  13.953
 2686SOL    HW1 9897   9.093   2.638  13.987
 2686SOL    HW2 9898   8.951   2.677  14.025
 2687SOL     OW 9899  12.493   0.629   2.201
 2687SOL    HW1 9900  12.511   0.723   2.208
 2687SOL    HW2 9901  12.475   0.602   2.291
 2688SOL     OW 9902  12.167   4.514  14.651
 2688SOL    HW1 9903  12.104   4.446  14.626
 2688SOL    HW2 9904  12.226   4.470  14.713
 2689SOL     OW 9905  12.665  11.760   1.715
 2689SOL    HW1 9906  12.611  11.698   1.666
 2689SOL    HW2 9907  12.694  11.824   1.649
 2690SOL     OW 9908   2.628   4.714   7.064
 2690SOL    HW1 9909   2.630   4.700   6.969
 2690SOL    HW2 9910   2.694   4.781   7.080
 2691SOL     OW 9911   8.402   7.622   3.024
 2691SOL    HW1 9912   8.388   7.529   3.012
 2691SOL    HW2 9913   8.326   7.652   3.074
 2692SOL     OW 9914   9.310   4.827   9.799
 2692SOL    HW1 9915   9.291   4.750   9.746
 2692SOL    HW2 9916   9.226   4.871   9.810
 2693SOL     OW 9917   6.297   6.243   1.439
 2693SOL    HW1 9918   6.204   6.265   1.434
 2693SOL    HW2 9919   6.325   6.275   1.525
 2694SOL     OW 9920   8.353  12.952   2.575
 2694SOL    HW1 9921   8.348  12.923   2.484
 2694SOL    HW2 9922   8.276  13.008   2.587
 2695SOL     OW 9923   3.964   6.151   2.186
 2695SOL    HW1 9924   3.961   6.085   2.254
 2695SOL    HW2 9925   3.873   6.179   2.175
 2696SOL     OW 9926   0.534   3.024   6.835
 2696SOL    HW1 9927   0.480   3.008   6.757
 2696SOL    HW2 9928   0.474   3.063   6.899
 2697SOL     OW 9929   4.662  13.811  12.271
 2697SOL    HW1 9930   4.600  13.755  12.225
 2697SOL    HW2 9931   4.649  13.791  12.364
 2698SOL     OW 9932   1.188   7.965   9.021
 2698SOL    HW1 9933   1.170   7.954   9.114
 2698SOL    HW2 9934   1.226   7.881   8.994
 2699SOL     OW 9935   7.827  13.631  14.010
 2699SOL    HW1 9936   7.805  13.588  13.928
 2699SOL    HW2 9937   7.883  13.568  14.056
 2700SOL     OW 9938   5.197   3.811   6.470
 2700SOL    HW1 9939   5.249   3.730   6.470
 2700SOL    HW2 9940   5.238   3.865   6.403
 2701SOL     OW 9941  14.025   0.220   0.315
 2701SOL    HW1 9942  14.048   0.192   0.226
 2701SOL    HW2 9943  14.022   0.315   0.311
 2702SOL     OW 9944   4.398  13.663  10.163
 2702SOL    HW1 9945   4.386  13.599  10.093
 2702SOL    HW2 9946   4.397  13.611  10.243
 2703SOL     OW 9947  10.133   6.647  12.659
 2703SOL    HW1 9948  10.073   6.700  12.711
 2703SOL    HW2 9949  10.137   6.691  12.574
 2704SOL     OW 9950  10.296   9.249  12.799
 2704SOL    HW1 9951  10.368   9.311  12.807
 2704SOL    HW2 9952  10.261   9.241  12.887
 2705SOL     OW 9953  13.100  14.213  11.949
 2705SOL    HW1 9954  13.177  14.260  11.918
 2705SOL    HW2 9955  13.079  14.254  12.033
 2706SOL     OW 9956  11.555  14.719   4.154
 2706SOL    HW1 9957  11.599  14.653   4.099
 2706SOL    HW2 9958  11.465  14.686   4.162
 2707SOL     OW 9959   1.636   2.868   8.733
 2707SOL    HW1 9960   1.681   2.798   8.780
 2707SOL    HW2 9961   1.547   2.834   8.719
 2708SOL     OW 9962  13.360   8.431   7.843
 2708SOL    HW1 9963  13.341   8.391   7.927
 2708SOL    HW2 9964  13.284   8.411   7.789
 2709SOL     OW 9965  13.119   5.076  14.789
 2709SOL    HW1 9966  13.085   5.101  14.875
 2709SOL    HW2 9967  13.201   5.124  14.781
 2710SOL     OW 9968  14.629  11.810   8.082
 2710SOL    HW1 9969  14.615  11.894   8.039
 2710SOL    HW2 9970  14.716  11.783   8.054
 2711SOL     OW 9971   5.810   9.334   6.347
 2711SOL    HW1 9972   5.791   9.284   6.426
 2711SOL    HW2 9973   5.901   9.314   6.326
 2712SOL     OW 9974   0.998   4.076   3.708
 2712SOL    HW1 9975   0.941   4.000   3.713
 2712SOL    HW2 9976   0.987   4.109   3.619
 2713SOL     OW 9977  12.765   9.432   2.230
 2713SOL    HW1 9978  12.837   9.393   2.180
 2713SOL    HW2 9979  12.796   9.433   2.320
 2714SOL     OW 9980   1.292  13.024   1.260
 2714SOL    HW1 9981   1.355  13.077   1.309
 2714SOL    HW2 9982   1.213  13.024   1.315
 2715SOL     OW 9983  14.241  11.614   3.048
 2715SOL    HW1 9984  14.326  11.616   3.092
 2715SOL    HW2 9985  14.201  11.532   3.078
 2716SOL     OW 9986   9.919  11.109   3.413
 2716SOL    HW1 9987   9.842  11.095   3.357
 2716SOL    HW2 9988   9.981  11.155   3.357
 2717SOL     OW 9989   7.784  11.943  11.230
 2717SOL    HW1 9990   7.734  11.878  11.180
 2717SOL    HW2 9991   7.777  12.024  11.178
 2718SOL     OW 9992   4.598  13.442   1.017
 2718SOL    HW1 9993   4.619  13.525   0.974
 2718SOL    HW2 9994   4.647  13.445   1.099
 2719SOL     OW 9995   5.988  10.583  11.590
 2719SOL    HW1 9996   5.994  10.677  11.571
 2719SOL    HW2 9997   6.052  10.569  11.659
 2720SOL     OW 9998   9.752  10.428   6.740
 2720SOL    HW1 9999   9.702  10.410   6.819
 2720SOL    HW210000   9.760  10.343   6.696
 2721SOL     OW10001   1.690   9.487  12.449
 2721SOL    HW110002   1.607   9.439  12.445
 2721SOL    HW210003   1.749   9.430  12.497
 2722SOL     OW10004   9.770  14.365  12.858
 2722SOL    HW110005   9.852  14.378  12.811
 2722SOL    HW210006   9.702  14.389  12.795
 2723SOL     OW10007   9.877   0.917   5.924
 2723SOL    HW110008   9.789   0.897   5.957
 2723SOL    HW210009   9.910   0.984   5.983
 2724SOL     OW10010  10.889   2.427  11.906
 2724SOL    HW110011  10.851   2.496  11.853
 2724SOL    HW210012  10.983   2.442  11.902
 2725SOL     OW10013   1.010   4.926  13.995
 2725SOL    HW110014   1.079   4.902  14.057
 2725SOL    HW210015   1.040   5.009  13.958
 2726SOL     OW10016  10.432   3.934   1.878
 2726SOL    HW110017  10.420   3.969   1.966
 2726SOL    HW210018  10.513   3.973   1.847
 2727SOL     OW10019   7.017   8.272  10.378
 2727SOL    HW110020   7.088   8.211  10.359
 2727SOL    HW210021   6.992   8.307  10.292
 2728SOL     OW10022   8.429  13.425   3.037
 2728SOL    HW110023   8.419  13.472   2.954
 2728SOL    HW210024   8.522  13.404   3.042
 2729SOL     OW10025   7.794   0.202   4.159
 2729SOL    HW110026   7.786   0.292   4.128
 2729SOL    HW210027   7.847   0.158   4.092
 2730SOL     OW10028   9.603   5.178   1.417
 2730SOL    HW110029   9.661   5.244   1.455
 2730SOL    HW210030   9.516   5.217   1.419
 2731SOL     OW10031   8.413   2.481   7.481
 2731SOL    HW110032   8.418   2.464   7.575
 2731SOL    HW210033   8.453   2.568   7.471
 2732SOL     OW10034   7.512   0.831   5.755
 2732SOL    HW110035   7.451   0.758   5.758
 2732SOL    HW210036   7.599   0.790   5.755
 2733SOL     OW10037   0.406   4.030   9.052
 2733SOL    HW110038   0.332   4.041   8.993
 2733SOL    HW210039   0.380   4.078   9.131
 2734SOL     OW10040  13.113   4.494   9.332
 2734SOL    HW110041  13.125   4.576   9.381
 2734SOL    HW210042  13.184   4.493   9.269
 2735SOL     OW10043   0.900   7.062   2.352
 2735SOL    HW110044   0.880   7.130   2.416
 2735SOL    HW210045   0.853   6.985   2.384
 2736SOL     OW10046   9.859  11.693   8.287
 2736SOL    HW110047   9.923  11.671   8.220
 2736SOL    HW210048   9.835  11.609   8.326
 2737SOL     OW10049   0.448  13.569   9.771
 2737SOL    HW110050   0.530  13.609   9.798
 2737SOL    HW210051   0.473  13.487   9.729
 2738SOL     OW10052  13.107   9.059   2.652
 2738SOL    HW110053  13.022   9.098   2.671
 2738SOL    HW210054  13.170   9.117   2.693
 2739SOL     OW10055   8.975  12.337  13.821
 2739SOL    HW110056   9.050  12.320  13.764
 2739SOL    HW210057   9.008  12.316  13.909
 2740SOL     OW10058  14.218  10.754   3.915
 2740SOL    HW110059  14.195  10.847   3.914
 2740SOL    HW210060  14.276  10.745   3.991
 2741SOL     OW10061   8.041   8.448  14.601
 2741SOL    HW110062   7.962   8.496  14.625
 2741SOL    HW210063   8.095   8.449  14.680
 2742SOL     OW10064  14.468   3.565  11.550
 2742SOL    HW110065  14.373   3.573  11.541
 2742SOL    HW210066  14.502   3.650  11.519
 2743SOL     OW10067   2.334  10.419  12.399
 2743SOL    HW110068   2.350  10.514  12.392
 2743SOL    HW210069   2.239  10.411  12.402
 2744SOL     OW10070   0.775   5.912  13.106
 2744SOL    HW110071   0.869   5.928  13.103
 2744SOL    HW210072   0.758   5.889  13.197
 2745SOL     OW10073  12.159   0.784   3.089
 2745SOL    HW110074  12.126   0.760   3.002
 2745SOL    HW210075  12.214   0.710   3.114
 2746SOL     OW10076  11.281  14.208  12.769
 2746SOL    HW110077  11.371  14.187  12.745
 2746SOL    HW210078  11.233  14.204  12.686
 2747SOL     OW10079  10.252  10.776   9.760
 2747SOL    HW110080  10.334  10.763   9.712
 2747SOL    HW210081  10.183  10.762   9.695
 2748SOL     OW10082   9.407   3.688   3.869
 2748SOL    HW110083   9.486   3.739   3.880
 2748SOL    HW210084   9.362   3.728   3.794
 2749SOL     OW10085   6.811   8.187   6.951
 2749SOL    HW110086   6.871   8.176   6.877
 2749SOL    HW210087   6.805   8.281   6.963
 2750SOL     OW10088   5.990  12.713   5.456
 2750SOL    HW110089   5.960  12.631   5.418
 2750SOL    HW210090   5.984  12.776   5.385
 2751SOL     OW10091  13.473   9.505   5.740
 2751SOL    HW110092  13.439   9.447   5.808
 2751SOL    HW210093  13.479   9.590   5.783
 2752SOL     OW10094   6.811   0.633  14.754
 2752SOL    HW110095   6.850   0.602  14.836
 2752SOL    HW210096   6.855   0.583  14.685
 2753SOL     OW10097   1.961   4.213   8.127
 2753SOL    HW110098   1.911   4.171   8.058
 2753SOL    HW210099   1.905   4.208   8.204
 2754SOL     OW10100   1.198   0.697   7.640
 2754SOL    HW110101   1.191   0.639   7.564
 2754SOL    HW210102   1.246   0.646   7.705
 2755SOL     OW10103  10.148   0.052  14.196
 2755SOL    HW110104  10.196   0.113  14.140
 2755SOL    HW210105  10.186  14.846  14.176
 2756SOL     OW10106  11.742   3.194   9.815
 2756SOL    HW110107  11.793   3.264   9.857
 2756SOL    HW210108  11.759   3.204   9.722
 2757SOL     OW10109  11.065   0.142   8.010
 2757SOL    HW110110  11.150   0.185   8.005
 2757SOL    HW210111  11.068   0.074   7.943
 2758SOL     OW10112  13.795  10.302  13.232
 2758SOL    HW110113  13.709  10.318  13.192
 2758SOL    HW210114  13.821  10.386  13.268
 2759SOL     OW10115  12.217  13.099  13.595
 2759SOL    HW110116  12.272  13.172  13.622
 2759SOL    HW210117  12.132  13.139  13.577
 2760SOL     OW10118  10.963   9.016   0.653
 2760SOL    HW110119  10.926   8.933   0.683
 2760SOL    HW210120  10.888   9.067   0.622
 2761SOL     OW10121   5.433   6.769   1.840
 2761SOL    HW110122   5.500   6.731   1.898
 2761SOL    HW210123   5.421   6.858   1.873
 2762SOL     OW10124   1.612   6.337   1.429
 2762SOL    HW110125   1.565   6.340   1.345
 2762SOL    HW210126   1.642   6.246   1.436
 2763SOL     OW10127  12.690   8.721   9.722
 2763SOL    HW110128  12.768   8.668   9.742
 2763SOL    HW210129  12.721   8.811   9.728
 2764SOL     OW10130  10.723  10.918   0.043
 2764SOL    HW110131  10.810  10.945   0.014
 2764SOL    HW210132  10.727  10.922   0.139
 2765SOL     OW10133   3.929  12.396   5.785
 2765SOL    HW110134   3.918  12.303   5.805
 2765SOL    HW210135   3.863  12.415   5.719
 2766SOL     OW10136   4.628   0.985   6.278
 2766SOL    HW110137   4.654   1.064   6.325
 2766SOL    HW210138   4.583   0.932   6.344
 2767SOL     OW10139   2.342  12.626  10.102
 2767SOL    HW110140   2.392  12.577  10.037
 2767SOL    HW210141   2.292  12.689  10.050
 2768SOL     OW10142  12.964   0.441   8.441
 2768SOL    HW110143  12.900   0.452   8.371
 2768SOL    HW210144  13.049   0.447   8.397
 2769SOL     OW10145   5.953  14.387   3.710
 2769SOL    HW110146   5.945  14.333   3.789
 2769SOL    HW210147   6.034  14.356   3.668
 2770SOL     OW10148   6.954   2.678   2.844
 2770SOL    HW110149   6.874   2.625   2.849
 2770SOL    HW210150   7.024   2.614   2.836
 2771SOL     OW10151  12.736   5.216  10.297
 2771SOL    HW110152  12.826   5.195  10.273
 2771SOL    HW210153  12.687   5.207  10.215
 2772SOL     OW10154   5.467  12.239  12.170
 2772SOL    HW110155   5.493  12.324  12.134
 2772SOL    HW210156   5.375  12.230  12.146
 2773SOL     OW10157   6.671  14.740   3.459
 2773SOL    HW110158   6.735  14.811   3.460
 2773SOL    HW210159   6.698  14.681   3.529
 2774SOL     OW10160   3.630  13.534   6.680
 2774SOL    HW110161   3.563  13.557   6.616
 2774SOL    HW210162   3.708  13.581   6.651
 2775SOL     OW10163  13.043   4.697   2.002
 2775SOL    HW110164  13.121   4.656   2.039
 2775SOL    HW210165  12.970   4.651   2.043
 2776SOL     OW10166   2.966   5.687   8.641
 2776SOL    HW110167   2.939   5.617   8.581
 2776SOL    HW210168   3.006   5.641   8.715
 2777SOL     OW10169   9.134   0.560  13.078
 2777SOL    HW110170   9.221   0.591  13.052
 2777SOL    HW210171   9.147   0.468  13.100
 2778SOL     OW10172  14.039  13.119   6.981
 2778SOL    HW110173  14.062  13.153   7.067
 2778SOL    HW210174  13.978  13.048   6.998
 2779SOL     OW10175  12.544  11.895   7.196
 2779SOL    HW110176  12.516  11.917   7.284
 2779SOL    HW210177  12.620  11.950   7.179
 2780SOL     OW10178   9.609   1.759   9.304
 2780SOL    HW110179   9.638   1.835   9.254
 2780SOL    HW210180   9.687   1.728   9.350
 2781SOL     OW10181   7.306   5.506  14.507
 2781SOL    HW110182   7.256   5.502  14.425
 2781SOL    HW210183   7.322   5.599  14.520
 2782SOL     OW10184   6.062   6.526  11.077
 2782SOL    HW110185   6.145   6.512  11.122
 2782SOL    HW210186   6.063   6.619  11.053
 2783SOL     OW10187   1.272   7.785   6.741
 2783SOL    HW110188   1.199   7.732   6.773
 2783SOL    HW210189   1.298   7.838   6.817
 2784SOL     OW10190  10.543  12.855  13.030
 2784SOL    HW110191  10.564  12.925  13.092
 2784SOL    HW210192  10.449  12.863  13.016
 2785SOL     OW10193  13.948   9.963   2.585
 2785SOL    HW110194  14.024   9.912   2.556
 2785SOL    HW210195  13.969   9.988   2.675
 2786SOL     OW10196   4.872   5.953  13.024
 2786SOL    HW110197   4.782   5.942  12.995
 2786SOL    HW210198   4.911   6.012  12.959
 2787SOL     OW10199  12.502   2.228   7.911
 2787SOL    HW110200  12.477   2.187   7.828
 2787SOL    HW210201  12.506   2.322   7.890
 2788SOL     OW10202   5.396   4.544  12.436
 2788SOL    HW110203   5.413   4.632  12.403
 2788SOL    HW210204   5.480   4.514  12.471
 2789SOL     OW10205   2.615  14.817   5.712
 2789SOL    HW110206   2.562  14.745   5.747
 2789SOL    HW210207   2.659  14.853   5.789
 2790SOL     OW10208   3.692   7.448  13.113
 2790SOL    HW110209   3.713   7.483  13.027
 2790SOL    HW210210   3.653   7.521  13.161
 2791SOL     OW10211   0.379   8.666   4.005
 2791SOL    HW110212   0.284   8.678   4.001
 2791SOL    HW210213   0.415   8.737   3.953
 2792SOL     OW10214   3.345  14.162   1.163
 2792SOL    HW110215   3.364  14.205   1.079
 2792SOL    HW210216   3.342  14.068   1.141
 2793SOL     OW10217   2.781   4.632   3.326
 2793SOL    HW110218   2.822   4.658   3.244
 2793SOL    HW210219   2.815   4.544   3.343
 2794SOL     OW10220  13.889   6.915  14.069
 2794SOL    HW110221  13.845   6.835  14.039
 2794SOL    HW210222  13.880   6.913  14.165
 2795SOL     OW10223   4.089   3.432   9.879
 2795SOL    HW110224   4.057   3.494   9.945
 2795SOL    HW210225   4.157   3.383   9.925
 2796SOL     OW10226   5.663   9.182   7.508
 2796SOL    HW110227   5.659   9.234   7.428
 2796SOL    HW210228   5.752   9.148   7.511
 2797SOL     OW10229  11.910   2.782   1.154
 2797SOL    HW110230  11.927   2.698   1.113
 2797SOL    HW210231  11.938   2.771   1.245
 2798SOL     OW10232  12.938  12.376   2.203
 2798SOL    HW110233  12.961  12.293   2.161
 2798SOL    HW210234  12.844  12.370   2.219
 2799SOL     OW10235   1.007  11.741   2.687
 2799SOL    HW110236   0.973  11.668   2.740
 2799SOL    HW210237   0.948  11.814   2.706
 2800SOL     OW10238   6.340  12.267   3.648
 2800SOL    HW110239   6.426  12.301   3.625
 2800SOL    HW210240   6.357  12.179   3.682
 2801SOL     OW10241  12.776  13.236   9.499
 2801SOL    HW110242  12.819  13.306   9.549
 2801SOL    HW210243  12.686  13.235   9.533
 2802SOL     OW10244   5.313   2.688  12.850
 2802SOL    HW110245   5.353   2.678  12.764
 2802SOL    HW210246   5.270   2.604  12.867
 2803SOL     OW10247   7.798   4.551  13.719
 2803SOL    HW110248   7.771   4.479  13.777
 2803SOL    HW210249   7.888   4.569  13.744
 2804SOL     OW10250   1.419   6.451  12.149
 2804SOL    HW110251   1.401   6.515  12.217
 2804SOL    HW210252   1.461   6.379  12.194
 2805SOL     OW10253  14.076   5.778  10.663
 2805SOL    HW110254  14.071   5.688  10.629
 2805SOL    HW210255  14.112   5.829  10.590
 2806SOL     OW10256  14.769   7.826  10.820
 2806SOL    HW110257  14.811   7.766  10.881
 2806SOL    HW210258  14.723   7.770  10.758
 2807SOL     OW10259   9.935   3.852  14.502
 2807SOL    HW110260   9.910   3.761  14.521
 2807SOL    HW210261   9.982   3.847  14.419
 2808SOL     OW10262   1.227   2.802   2.968
 2808SOL    HW110263   1.315   2.782   3.000
 2808SOL    HW210264   1.238   2.821   2.875
 2809SOL     OW10265   3.023   5.272  10.369
 2809SOL    HW110266   3.048   5.283  10.461
 2809SOL    HW210267   2.998   5.180  10.361
 2810SOL     OW10268   9.846  14.661  11.462
 2810SOL    HW110269   9.828  14.743  11.416
 2810SOL    HW210270   9.900  14.687  11.537
 2811SOL     OW10271   4.323   7.011  13.415
 2811SOL    HW110272   4.308   7.060  13.495
 2811SOL    HW210273   4.236   6.978  13.391
 2812SOL     OW10274   5.464   6.831   7.581
 2812SOL    HW110275   5.444   6.759   7.521
 2812SOL    HW210276   5.473   6.790   7.666
 2813SOL     OW10277   0.940  10.324   4.759
 2813SOL    HW110278   0.932  10.417   4.780
 2813SOL    HW210279   0.924  10.279   4.842
 2814SOL     OW10280  10.860  13.664   0.085
 2814SOL    HW110281  10.824  13.599   0.023
 2814SOL    HW210282  10.788  13.725   0.100
 2815SOL     OW10283   2.261  14.859  14.557
 2815SOL    HW110284   2.256   0.067  14.519
 2815SOL    HW210285   2.173  14.842  14.591
 2816SOL     OW10286   8.596   8.257  10.781
 2816SOL    HW110287   8.631   8.168  10.774
 2816SOL    HW210288   8.672   8.312  10.797
 2817SOL     OW10289   0.187   7.886  11.730
 2817SOL    HW110290   0.217   7.922  11.647
 2817SOL    HW210291   0.180   7.962  11.788
 2818SOL     OW10292  12.181  10.165   2.032
 2818SOL    HW110293  12.106  10.128   1.985
 2818SOL    HW210294  12.182  10.257   2.007
 2819SOL     OW10295   8.306   1.036  12.982
 2819SOL    HW110296   8.328   0.988  13.062
 2819SOL    HW210297   8.389   1.043  12.935
 2820SOL     OW10298   9.533   0.962  10.302
 2820SOL    HW110299   9.484   0.975  10.383
 2820SOL    HW210300   9.473   0.989  10.233
 2821SOL     OW10301  14.370  12.374   5.960
 2821SOL    HW110302  14.303  12.399   5.896
 2821SOL    HW210303  14.322  12.328   6.029
 2822SOL     OW10304  10.140  13.476  14.198
 2822SOL    HW110305  10.142  13.557  14.148
 2822SOL    HW210306  10.155  13.407  14.133
 2823SOL     OW10307   7.011  12.056   1.083
 2823SOL    HW110308   7.099  12.034   1.055
 2823SOL    HW210309   7.015  12.151   1.100
 2824SOL     OW10310  13.295   0.705  10.094
 2824SOL    HW110311  13.349   0.626  10.083
 2824SOL    HW210312  13.206   0.676  10.075
 2825SOL     OW10313  11.488   2.472   7.776
 2825SOL    HW110314  11.549   2.411   7.734
 2825SOL    HW210315  11.533   2.556   7.775
 2826SOL     OW10316  13.955   3.351   5.290
 2826SOL    HW110317  13.875   3.403   5.292
 2826SOL    HW210318  13.964   3.317   5.379
 2827SOL     OW10319  10.583   7.425  11.917
 2827SOL    HW110320  10.676   7.406  11.912
 2827SOL    HW210321  10.553   7.427  11.826
 2828SOL     OW10322   4.311  10.264  11.703
 2828SOL    HW110323   4.389  10.313  11.676
 2828SOL    HW210324   4.316  10.182  11.654
 2829SOL     OW10325   1.095   9.288   7.026
 2829SOL    HW110326   1.046   9.355   6.980
 2829SOL    HW210327   1.100   9.215   6.964
 2830SOL     OW10328   8.698   0.872   3.205
 2830SOL    HW110329   8.745   0.870   3.288
 2830SOL    HW210330   8.653   0.788   3.201
 2831SOL     OW10331   8.098  12.929   7.475
 2831SOL    HW110332   8.110  12.842   7.512
 2831SOL    HW210333   8.088  12.914   7.381
 2832SOL     OW10334  14.295  13.353  14.327
 2832SOL    HW110335  14.388  13.339  14.309
 2832SOL    HW210336  14.258  13.264  14.330
 2833SOL     OW10337   9.655   9.166   1.582
 2833SOL    HW110338   9.687   9.256   1.583
 2833SOL    HW210339   9.734   9.112   1.581
 2834SOL     OW10340  12.607   1.853   0.586
 2834SOL    HW110341  12.645   1.768   0.561
 2834SOL    HW210342  12.672   1.917   0.556
 2835SOL     OW10343  10.608   1.722  10.131
 2835SOL    HW110344  10.542   1.791  10.137
 2835SOL    HW210345  10.583   1.671  10.054
 2836SOL     OW10346  10.933   0.613   3.719
 2836SOL    HW110347  10.931   0.518   3.713
 2836SOL    HW210348  10.909   0.632   3.810
 2837SOL     OW10349   2.243  12.710   1.908
 2837SOL    HW110350   2.316  12.655   1.937
 2837SOL    HW210351   2.208  12.665   1.831
 2838SOL     OW10352   1.308   0.320   9.580
 2838SOL    HW110353   1.219   0.286   9.580
 2838SOL    HW210354   1.345   0.290   9.664
 2839SOL     OW10355  11.044  11.319  13.806
 2839SOL    HW110356  11.009  11.244  13.854
 2839SOL    HW210357  11.000  11.316  13.721
 2840SOL     OW10358  13.966  12.100  14.734
 2840SOL    HW110359  14.038  12.051  14.774
 2840SOL    HW210360  13.926  12.147  14.808
 2841SOL     OW10361   6.427   8.477  10.598
 2841SOL    HW110362   6.465   8.410  10.541
 2841SOL    HW210363   6.503   8.527  10.629
 2842SOL     OW10364   3.431   4.756   8.598
 2842SOL    HW110365   3.416   4.701   8.675
 2842SOL    HW210366   3.523   4.781   8.606
 2843SOL     OW10367   9.153  13.510  12.746
 2843SOL    HW110368   9.066  13.473  12.731
 2843SOL    HW210369   9.210  13.434  12.758
 2844SOL     OW10370   1.344   1.492  10.873
 2844SOL    HW110371   1.329   1.398  10.884
 2844SOL    HW210372   1.258   1.531  10.883
 2845SOL     OW10373   3.070   3.692  12.182
 2845SOL    HW110374   3.018   3.760  12.139
 2845SOL    HW210375   3.133   3.664  12.116
 2846SOL     OW10376   4.134   2.260   9.778
 2846SOL    HW110377   4.083   2.296   9.705
 2846SOL    HW210378   4.185   2.334   9.810
 2847SOL     OW10379   5.172  11.108   0.548
 2847SOL    HW110380   5.127  11.026   0.527
 2847SOL    HW210381   5.144  11.168   0.479
 2848SOL     OW10382   6.010   9.769   2.882
 2848SOL    HW110383   5.985   9.744   2.971
 2848SOL    HW210384   6.071   9.700   2.854
 2849SOL     OW10385  10.148   6.934   1.027
 2849SOL    HW110386  10.186   6.847   1.037
 2849SOL    HW210387  10.145   6.970   1.115
 2850SOL     OW10388   2.576   2.557   1.727
 2850SOL    HW110389   2.612   2.486   1.781
 2850SOL    HW210390   2.645   2.623   1.725
 2851SOL     OW10391  14.615  10.491   1.166
 2851SOL    HW110392  14.658  10.525   1.087
 2851SOL    HW210393  14.687  10.469   1.225
 2852SOL     OW10394   1.681  13.510   1.626
 2852SOL    HW110395   1.677  13.433   1.682
 2852SOL    HW210396   1.657  13.478   1.539
 2853SOL     OW10397  14.847  10.119  14.246
 2853SOL    HW110398   0.039  10.063  14.276
 2853SOL    HW210399  14.768  10.071  14.270
 2854SOL     OW10400   3.577  12.031   1.022
 2854SOL    HW110401   3.617  12.116   1.006
 2854SOL    HW210402   3.542  12.037   1.111
 2855SOL     OW10403   5.794  13.585  13.819
 2855SOL    HW110404   5.779  13.637  13.740
 2855SOL    HW210405   5.868  13.626  13.862
 2856SOL     OW10406  11.441   3.325  13.207
 2856SOL    HW110407  11.404   3.293  13.289
 2856SOL    HW210408  11.528   3.286  13.203
 2857SOL     OW10409   1.909   8.131   3.948
 2857SOL    HW110410   1.825   8.175   3.962
 2857SOL    HW210411   1.972   8.202   3.936
 2858SOL     OW10412  11.743  14.075   7.780
 2858SOL    HW110413  11.766  14.048   7.869
 2858SOL    HW210414  11.653  14.108   7.788
 2859SOL     OW10415  10.589   9.176  11.350
 2859SOL    HW110416  10.603   9.265  11.318
 2859SOL    HW210417  10.609   9.180  11.443
 2860SOL     OW10418  14.871   7.115  12.759
 2860SOL    HW110419  14.809   7.159  12.700
 2860SOL    HW210420  14.874   7.025  12.727
 2861SOL     OW10421   8.377   7.192   4.744
 2861SOL    HW110422   8.285   7.217   4.734
 2861SOL    HW210423   8.425   7.275   4.743
 2862SOL     OW10424   7.066   7.287  11.705
 2862SOL    HW110425   7.054   7.269  11.612
 2862SOL    HW210426   7.093   7.378  11.709
 2863SOL     OW10427   3.429   9.982  11.457
 2863SOL    HW110428   3.401   9.892  11.471
 2863SOL    HW210429   3.449   9.987  11.364
 2864SOL     OW10430   1.908   4.177   0.175
 2864SOL    HW110431   1.915   4.212   0.087
 2864SOL    HW210432   1.818   4.199   0.202
 2865SOL     OW10433   5.430   6.716   7.825
 2865SOL    HW110434   5.351   6.752   7.866
 2865SOL    HW210435   5.485   6.689   7.898
 2866SOL     OW10436  13.596   1.303  12.228
 2866SOL    HW110437  13.680   1.259  12.240
 2866SOL    HW210438  13.565   1.273  12.143
 2867SOL     OW10439   6.601   0.082   8.723
 2867SOL    HW110440   6.676   0.095   8.782
 2867SOL    HW210441   6.608   0.154   8.659
 2868SOL     OW10442   7.784  10.756   3.377
 2868SOL    HW110443   7.725  10.809   3.431
 2868SOL    HW210444   7.860  10.812   3.363
 2869SOL     OW10445   1.835   1.763  10.454
 2869SOL    HW110446   1.771   1.722  10.397
 2869SOL    HW210447   1.831   1.713  10.535
 2870SOL     OW10448  12.520  12.388   8.632
 2870SOL    HW110449  12.580  12.334   8.684
 2870SOL    HW210450  12.559  12.387   8.544
 2871SOL     OW10451   2.393   2.724   6.655
 2871SOL    HW110452   2.407   2.764   6.741
 2871SOL    HW210453   2.478   2.687   6.632
 2872SOL     OW10454  14.170  12.033   6.796
 2872SOL    HW110455  14.260  12.002   6.801
 2872SOL    HW210456  14.177  12.128   6.802
 2873SOL     OW10457  10.498   2.407  14.627
 2873SOL    HW110458  10.570   2.450  14.581
 2873SOL    HW210459  10.448   2.480  14.665
 2874SOL     OW10460   6.606   6.578  13.592
 2874SOL    HW110461   6.535   6.639  13.611
 2874SOL    HW210462   6.606   6.569  13.497
 2875SOL     OW10463   3.245   4.714   7.576
 2875SOL    HW110464   3.171   4.655   7.588
 2875SOL    HW210465   3.310   4.684   7.639
 2876SOL     OW10466   6.432   9.977   4.348
 2876SOL    HW110467   6.444   9.955   4.440
 2876SOL    HW210468   6.422  10.072   4.347
 2877SOL     OW10469  11.731   3.390  11.970
 2877SOL    HW110470  11.644   3.352  11.973
 2877SOL    HW210471  11.728   3.461  12.034
 2878SOL     OW10472   8.704  10.948   2.522
 2878SOL    HW110473   8.666  11.015   2.579
 2878SOL    HW210474   8.662  10.867   2.550
 2879SOL     OW10475   8.355   3.613  12.335
 2879SOL    HW110476   8.356   3.558  12.256
 2879SOL    HW210477   8.323   3.698  12.304
 2880SOL     OW10478   3.486  10.942   5.825
 2880SOL    HW110479   3.464  10.999   5.900
 2880SOL    HW210480   3.470  10.997   5.748
 2881SOL     OW10481   6.270  13.782   9.620
 2881SOL    HW110482   6.363  13.782   9.642
 2881SOL    HW210483   6.256  13.700   9.573
 2882SOL     OW10484   3.294   9.394   0.492
 2882SOL    HW110485   3.271   9.415   0.401
 2882SOL    HW210486   3.385   9.423   0.500
 2883SOL     OW10487   1.703   0.271   3.930
 2883SOL    HW110488   1.629   0.241   3.982
 2883SOL    HW210489   1.713   0.363   3.953
 2884SOL     OW10490   0.496  13.794   8.884
 2884SOL    HW110491   0.516  13.813   8.976
 2884SOL    HW210492   0.494  13.879   8.841
 2885SOL     OW10493   9.657  10.474  13.824
 2885SOL    HW110494   9.586  10.508  13.879
 2885SOL    HW210495   9.713  10.550  13.807
 2886SOL     OW10496   2.218   5.587   3.210
 2886SOL    HW110497   2.281   5.531   3.255
 2886SOL    HW210498   2.268   5.628   3.139
 2887SOL     OW10499   1.033  10.289   8.773
 2887SOL    HW110500   1.085  10.208   8.776
 2887SOL    HW210501   0.968  10.278   8.842
 2888SOL     OW10502   9.634   6.799   8.356
 2888SOL    HW110503   9.675   6.712   8.348
 2888SOL    HW210504   9.687   6.843   8.423
 2889SOL     OW10505   8.556   4.326   8.053
 2889SOL    HW110506   8.461   4.326   8.062
 2889SOL    HW210507   8.587   4.390   8.117
 2890SOL     OW10508   9.420   5.040   2.718
 2890SOL    HW110509   9.514   5.031   2.737
 2890SOL    HW210510   9.387   5.095   2.789
 2891SOL     OW10511  14.307   2.306   8.648
 2891SOL    HW110512  14.290   2.357   8.727
 2891SOL    HW210513  14.351   2.227   8.680
 2892SOL     OW10514   1.971  13.700  10.410
 2892SOL    HW110515   1.879  13.676  10.406
 2892SOL    HW210516   1.972  13.788  10.448
 2893SOL     OW10517  10.460  11.872   3.311
 2893SOL    HW110518  10.448  11.799   3.371
 2893SOL    HW210519  10.505  11.833   3.235
 2894SOL     OW10520   2.447  10.040   7.186
 2894SOL    HW110521   2.473  10.064   7.275
 2894SOL    HW210522   2.397  10.116   7.155
 2895SOL     OW10523  12.827   6.647  10.224
 2895SOL    HW110524  12.769   6.679  10.293
 2895SOL    HW210525  12.866   6.568  10.260
 2896SOL     OW10526   1.506   8.929   4.037
 2896SOL    HW110527   1.412   8.942   4.049
 2896SOL    HW210528   1.528   8.858   4.097
 2897SOL     OW10529   7.235   3.281   3.547
 2897SOL    HW110530   7.316   3.332   3.543
 2897SOL    HW210531   7.184   3.311   3.472
 2898SOL     OW10532   6.687   0.261   0.480
 2898SOL    HW110533   6.631   0.199   0.526
 2898SOL    HW210534   6.771   0.216   0.471
 2899SOL     OW10535   6.968   5.724   1.695
 2899SOL    HW110536   7.016   5.777   1.758
 2899SOL    HW210537   7.036   5.676   1.647
 2900SOL     OW10538   7.700  12.162   4.498
 2900SOL    HW110539   7.655  12.241   4.470
 2900SOL    HW210540   7.719  12.176   4.591
 2901SOL     OW10541  13.919   0.715  14.337
 2901SOL    HW110542  13.881   0.796  14.371
 2901SOL    HW210543  14.012   0.735  14.328
 2902SOL     OW10544   6.695   2.610   3.751
 2902SOL    HW110545   6.658   2.693   3.781
 2902SOL    HW210546   6.619   2.554   3.736
 2903SOL     OW10547   0.183   1.074  14.491
 2903SOL    HW110548   0.148   1.123  14.566
 2903SOL    HW210549   0.253   1.020  14.528
 2904SOL     OW10550  10.847  12.510  12.478
 2904SOL    HW110551  10.939  12.526  12.498
 2904SOL    HW210552  10.835  12.544  12.390
 2905SOL     OW10553  14.513   4.457   9.710
 2905SOL    HW110554  14.428   4.442   9.751
 2905SOL    HW210555  14.576   4.425   9.775
 2906SOL     OW10556   7.319   5.804   8.397
 2906SOL    HW110557   7.409   5.809   8.428
 2906SOL    HW210558   7.269   5.860   8.456
 2907SOL     OW10559  13.140   3.077  11.095
 2907SOL    HW110560  13.191   3.007  11.137
 2907SOL    HW210561  13.050   3.044  11.096
 2908SOL     OW10562  14.426   0.806  11.258
 2908SOL    HW110563  14.430   0.879  11.196
 2908SOL    HW210564  14.356   0.749  11.223
 2909SOL     OW10565   1.139   2.403   4.633
 2909SOL    HW110566   1.217   2.372   4.679
 2909SOL    HW210567   1.067   2.388   4.694
 2910SOL     OW10568   4.020   1.342   1.299
 2910SOL    HW110569   4.097   1.307   1.254
 2910SOL    HW210570   3.950   1.337   1.234
 2911SOL     OW10571  14.291   5.113   0.091
 2911SOL    HW110572  14.336   5.075   0.016
 2911SOL    HW210573  14.210   5.062   0.099
 2912SOL     OW10574   3.672   7.160  11.855
 2912SOL    HW110575   3.624   7.174  11.936
 2912SOL    HW210576   3.608   7.175  11.785
 2913SOL     OW10577   1.193   7.087   9.276
 2913SOL    HW110578   1.156   7.148   9.340
 2913SOL    HW210579   1.132   7.090   9.202
 2914SOL     OW10580  13.766   3.945   8.512
 2914SOL    HW110581  13.840   3.899   8.474
 2914SOL    HW210582  13.801   3.987   8.590
 2915SOL     OW10583   4.594   1.071   0.934
 2915SOL    HW110584   4.606   1.088   1.027
 2915SOL    HW210585   4.533   0.998   0.930
 2916SOL     OW10586   3.858   1.208   7.633
 2916SOL    HW110587   3.901   1.179   7.553
 2916SOL    HW210588   3.860   1.303   7.628
 2917SOL     OW10589   5.033  11.162   6.247
 2917SOL    HW110590   4.942  11.158   6.277
 2917SOL    HW210591   5.063  11.249   6.274
 2918SOL     OW10592   1.997  14.482   2.367
 2918SOL    HW110593   2.009  14.429   2.288
 2918SOL    HW210594   2.083  14.519   2.384
 2919SOL     OW10595   7.240  13.785   8.203
 2919SOL    HW110596   7.202  13.706   8.164
 2919SOL    HW210597   7.321  13.799   8.153
 2920SOL     OW10598   8.990  13.047  14.361
 2920SOL    HW110599   8.935  13.015  14.290
 2920SOL    HW210600   9.028  12.967  14.399
 2921SOL     OW10601   0.396   9.561   8.383
 2921SOL    HW110602   0.491   9.574   8.376
 2921SOL    HW210603   0.373   9.592   8.470
 2922SOL     OW10604   0.295   5.590   3.892
 2922SOL    HW110605   0.337   5.504   3.888
 2922SOL    HW210606   0.226   5.580   3.958
 2923SOL     OW10607   0.008   5.180   5.437
 2923SOL    HW110608  14.842   5.264   5.440
 2923SOL    HW210609  14.818   5.116   5.418
 2924SOL     OW10610   0.533   4.708   0.810
 2924SOL    HW110611   0.610   4.764   0.818
 2924SOL    HW210612   0.463   4.767   0.784
 2925SOL     OW10613   6.300  10.162  10.270
 2925SOL    HW110614   6.281  10.178  10.362
 2925SOL    HW210615   6.378  10.215  10.252
 2926SOL     OW10616   4.489  13.329   5.490
 2926SOL    HW110617   4.580  13.297   5.491
 2926SOL    HW210618   4.472  13.347   5.397
 2927SOL     OW10619   0.267  12.038  13.887
 2927SOL    HW110620   0.318  11.993  13.954
 2927SOL    HW210621   0.222  11.967  13.840
 2928SOL     OW10622   3.990   2.957  13.736
 2928SOL    HW110623   4.021   3.014  13.665
 2928SOL    HW210624   4.036   2.989  13.814
 2929SOL     OW10625  14.452   9.633   2.677
 2929SOL    HW110626  14.507   9.709   2.657
 2929SOL    HW210627  14.512   9.570   2.715
 2930SOL     OW10628   5.212   2.807  14.618
 2930SOL    HW110629   5.185   2.716  14.631
 2930SOL    HW210630   5.159   2.857  14.680
 2931SOL     OW10631   6.483   1.761   3.279
 2931SOL    HW110632   6.530   1.843   3.263
 2931SOL    HW210633   6.540   1.711   3.338
 2932SOL     OW10634   3.138  10.682  10.209
 2932SOL    HW110635   3.077  10.642  10.148
 2932SOL    HW210636   3.097  10.671  10.295
 2933SOL     OW10637   5.482   0.925   7.445
 2933SOL    HW110638   5.528   0.846   7.475
 2933SOL    HW210639   5.405   0.930   7.502
 2934SOL     OW10640   7.799   1.190   7.436
 2934SOL    HW110641   7.753   1.192   7.352
 2934SOL    HW210642   7.777   1.105   7.474
 2935SOL     OW10643  14.849   2.874   5.462
 2935SOL    HW110644  14.819   2.883   5.552
 2935SOL    HW210645  14.831   2.959   5.422
 2936SOL     OW10646   3.556   8.634  12.901
 2936SOL    HW110647   3.547   8.729  12.899
 2936SOL    HW210648   3.621   8.617  12.969
 2937SOL     OW10649   2.997   9.741   4.720
 2937SOL    HW110650   2.952   9.656   4.721
 2937SOL    HW210651   3.059   9.734   4.648
 2938SOL     OW10652   6.683   3.228   8.402
 2938SOL    HW110653   6.648   3.184   8.479
 2938SOL    HW210654   6.697   3.158   8.338
 2939SOL     OW10655  14.508   6.474  11.883
 2939SOL    HW110656  14.586   6.508  11.927
 2939SOL    HW210657  14.486   6.394  11.931
 2940SOL     OW10658  12.938   4.148   0.950
 2940SOL    HW110659  13.025   4.125   0.982
 2940SOL    HW210660  12.913   4.224   1.002
 2941SOL     OW10661   3.630   8.377   8.773
 2941SOL    HW110662   3.627   8.354   8.680
 2941SOL    HW210663   3.550   8.425   8.789
 2942SOL     OW10664   0.301  12.705  13.677
 2942SOL    HW110665   0.390  12.699  13.643
 2942SOL    HW210666   0.248  12.726  13.600
 2943SOL     OW10667   5.090  11.969   2.508
 2943SOL    HW110668   4.994  11.970   2.509
 2943SOL    HW210669   5.112  11.953   2.416
 2944SOL     OW10670  14.005   2.544   5.150
 2944SOL    HW110671  14.025   2.470   5.094
 2944SOL    HW210672  14.033   2.621   5.100
 2945SOL     OW10673   6.086   6.460  13.144
 2945SOL    HW110674   6.019   6.439  13.079
 2945SOL    HW210675   6.117   6.547  13.120
 2946SOL     OW10676   8.124   2.563   9.202
 2946SOL    HW110677   8.146   2.617   9.125
 2946SOL    HW210678   8.029   2.555   9.199
 2947SOL     OW10679   8.303  11.303   0.992
 2947SOL    HW110680   8.219  11.317   1.034
 2947SOL    HW210681   8.304  11.210   0.971
 2948SOL     OW10682  13.935  12.073   3.476
 2948SOL    HW110683  13.916  11.995   3.528
 2948SOL    HW210684  13.902  12.053   3.389
 2949SOL     OW10685  13.446  13.281   7.860
 2949SOL    HW110686  13.470  13.232   7.939
 2949SOL    HW210687  13.518  13.342   7.847
 2950SOL     OW10688   6.853   0.858   3.629
 2950SOL    HW110689   6.799   0.936   3.621
 2950SOL    HW210690   6.942   0.888   3.608
 2951SOL     OW10691  11.349  12.040   9.171
 2951SOL    HW110692  11.276  11.987   9.139
 2951SOL    HW210693  11.344  12.122   9.121
 2952SOL     OW10694   5.269   1.762  13.941
 2952SOL    HW110695   5.299   1.852  13.933
 2952SOL    HW210696   5.176   1.765  13.920
 2953SOL     OW10697  11.518   3.279  10.933
 2953SOL    HW110698  11.613   3.290  10.941
 2953SOL    HW210699  11.501   3.287  10.839
 2954SOL     OW10700  11.135   6.724   6.745
 2954SOL    HW110701  11.089   6.707   6.663
 2954SOL    HW210702  11.072   6.771   6.799
 2955SOL     OW10703   5.318   5.753   6.451
 2955SOL    HW110704   5.342   5.686   6.515
 2955SOL    HW210705   5.401   5.775   6.407
 2956SOL     OW10706   2.609   5.755   0.828
 2956SOL    HW110707   2.632   5.835   0.780
 2956SOL    HW210708   2.683   5.696   0.812
 2957SOL     OW10709  11.289   9.274   4.659
 2957SOL    HW110710  11.300   9.368   4.646
 2957SOL    HW210711  11.207   9.252   4.615
 2958SOL     OW10712   5.279   6.549   6.224
 2958SOL    HW110713   5.214   6.577   6.288
 2958SOL    HW210714   5.309   6.464   6.255
 2959SOL     OW10715   5.174   0.076  14.123
 2959SOL    HW110716   5.230   0.110  14.053
 2959SOL    HW210717   5.175   0.146  14.189
 2960SOL     OW10718  13.175  11.829   9.061
 2960SOL    HW110719  13.195  11.803   8.971
 2960SOL    HW210720  13.169  11.746   9.109
 2961SOL     OW10721  14.005   7.296   7.200
 2961SOL    HW110722  13.988   7.390   7.201
 2961SOL    HW210723  13.919   7.255   7.197
 2962SOL     OW10724   3.193   0.093   8.335
 2962SOL    HW110725   3.224   0.036   8.264
 2962SOL    HW210726   3.249   0.171   8.329
 2963SOL     OW10727   2.286  11.240  10.137
 2963SOL    HW110728   2.366  11.244  10.084
 2963SOL    HW210729   2.301  11.169  10.198
 2964SOL     OW10730  12.463  10.918  13.990
 2964SOL    HW110731  12.444  10.970  14.068
 2964SOL    HW210732  12.381  10.917  13.941
 2965SOL     OW10733  12.415   5.459   7.192
 2965SOL    HW110734  12.366   5.378   7.182
 2965SOL    HW210735  12.380   5.517   7.124
 2966SOL     OW10736  13.132   1.744   5.096
 2966SOL    HW110737  13.038   1.740   5.117
 2966SOL    HW210738  13.136   1.797   5.017
 2967SOL     OW10739   3.442  14.204   7.755
 2967SOL    HW110740   3.439  14.299   7.744
 2967SOL    HW210741   3.527  14.187   7.796
 2968SOL     OW10742  14.876   4.423   1.139
 2968SOL    HW110743   0.040   4.489   1.085
 2968SOL    HW210744  14.788   4.458   1.152
 2969SOL     OW10745  10.011  12.337   6.521
 2969SOL    HW110746  10.025  12.385   6.602
 2969SOL    HW210747  10.091  12.287   6.508
 2970SOL     OW10748   4.930   0.964   2.504
 2970SOL    HW110749   5.010   0.951   2.555
 2970SOL    HW210750   4.859   0.960   2.568
 2971SOL     OW10751   5.442   3.520   0.059
 2971SOL    HW110752   5.481   3.532   0.146
 2971SOL    HW210753   5.509   3.472   0.010
 2972SOL     OW10754  10.794   6.136   5.031
 2972SOL    HW110755  10.707   6.099   5.012
 2972SOL    HW210756  10.855   6.067   5.005
 2973SOL     OW10757   3.742   9.606   0.316
 2973SOL    HW110758   3.730   9.614   0.221
 2973SOL    HW210759   3.834   9.628   0.330
 2974SOL     OW10760   5.718  11.265   5.201
 2974SOL    HW110761   5.700  11.172   5.212
 2974SOL    HW210762   5.695  11.282   5.109
 2975SOL     OW10763   6.890   6.934   4.277
 2975SOL    HW110764   6.834   6.857   4.269
 2975SOL    HW210765   6.977   6.899   4.298
 2976SOL     OW10766   0.670   8.323   7.852
 2976SOL    HW110767   0.575   8.312   7.849
 2976SOL    HW210768   0.689   8.343   7.944
 2977SOL     OW10769  11.336   3.312   1.878
 2977SOL    HW110770  11.245   3.286   1.890
 2977SOL    HW210771  11.331   3.404   1.849
 2978SOL     OW10772   6.384   9.741   8.746
 2978SOL    HW110773   6.438   9.801   8.695
 2978SOL    HW210774   6.440   9.715   8.819
 2979SOL     OW10775  11.674   2.126   8.444
 2979SOL    HW110776  11.700   2.187   8.513
 2979SOL    HW210777  11.640   2.182   8.374
 2980SOL     OW10778  13.216   5.944   6.947
 2980SOL    HW110779  13.225   5.862   6.996
 2980SOL    HW210780  13.297   5.992   6.966
 2981SOL     OW10781   6.718   7.019   6.330
 2981SOL    HW110782   6.633   6.998   6.292
 2981SOL    HW210783   6.739   6.943   6.386
 2982SOL     OW10784  13.466   7.858   6.966
 2982SOL    HW110785  13.527   7.795   6.927
 2982SOL    HW210786  13.429   7.813   7.042
 2983SOL     OW10787   3.999  13.027  14.251
 2983SOL    HW110788   4.036  13.114  14.240
 2983SOL    HW210789   3.943  13.034  14.328
 2984SOL     OW10790   8.750   2.420   8.603
 2984SOL    HW110791   8.765   2.326   8.600
 2984SOL    HW210792   8.804   2.451   8.677
 2985SOL     OW10793  10.305   1.578   3.706
 2985SOL    HW110794  10.356   1.589   3.625
 2985SOL    HW210795  10.370   1.557   3.773
 2986SOL     OW10796  12.014   4.361   5.570
 2986SOL    HW110797  11.976   4.289   5.619
 2986SOL    HW210798  11.939   4.407   5.532
 2987SOL     OW10799  13.515  14.686  12.000
 2987SOL    HW110800  13.493  14.608  12.052
 2987SOL    HW210801  13.611  14.690  12.002
 2988SOL     OW10802  11.583   5.412   1.891
 2988SOL    HW110803  11.585   5.316   1.888
 2988SOL    HW210804  11.674   5.439   1.884
 2989SOL     OW10805   2.363   6.132   9.279
 2989SOL    HW110806   2.425   6.203   9.263
 2989SOL    HW210807   2.398   6.058   9.228
 2990SOL     OW10808   6.522  13.005   1.263
 2990SOL    HW110809   6.561  13.021   1.349
 2990SOL    HW210810   6.471  12.924   1.275
 2991SOL     OW10811   6.274  13.937   6.552
 2991SOL    HW110812   6.210  13.872   6.523
 2991SOL    HW210813   6.297  13.985   6.472
 2992SOL     OW10814   7.314   3.756   2.667
 2992SOL    HW110815   7.267   3.794   2.593
 2992SOL    HW210816   7.335   3.667   2.640
 2993SOL     OW10817  11.391   0.909   6.984
 2993SOL    HW110818  11.468   0.937   6.933
 2993SOL    HW210819  11.408   0.940   7.073
 2994SOL     OW10820   7.358  13.897   4.739
 2994SOL    HW110821   7.316  13.971   4.782
 2994SOL    HW210822   7.431  13.875   4.797
 2995SOL     OW10823  13.102   0.456   0.499
 2995SOL    HW110824  13.030   0.489   0.553
 2995SOL    HW210825  13.179   0.502   0.531
 2996SOL     OW10826   9.456   6.840  14.735
 2996SOL    HW110827   9.510   6.849  14.814
 2996SOL    HW210828   9.514   6.797  14.672
 2997SOL     OW10829   7.290   6.057   5.772
 2997SOL    HW110830   7.363   6.099   5.817
 2997SOL    HW210831   7.318   6.052   5.680
 2998SOL     OW10832   8.187  14.320   9.478
 2998SOL    HW110833   8.157  14.247   9.424
 2998SOL    HW210834   8.264  14.354   9.433
 2999SOL     OW10835   8.891  14.856   1.967
 2999SOL    HW110836   8.832   0.045   1.996
 2999SOL    HW210837   8.912  14.879   1.876
 3000SOL     OW10838   4.023   9.684  12.575
 3000SOL    HW110839   4.040   9.778  12.566
 3000SOL    HW210840   4.076   9.644  12.506
 3001SOL     OW10841   7.241   6.367  14.688
 3001SOL    HW110842   7.238   6.461  14.702
 3001SOL    HW210843   7.234   6.329  14.776
 3002SOL     OW10844   7.433   5.258   2.567
 3002SOL    HW110845   7.528   5.253   2.574
 3002SOL    HW210846   7.405   5.289   2.653
 3003SOL     OW10847   7.095  11.454   4.772
 3003SOL    HW110848   7.157  11.527   4.771
 3003SOL    HW210849   7.011  11.494   4.794
 3004SOL     OW10850   2.688  10.268   0.006
 3004SOL    HW110851   2.654  10.358   0.002
 3004SOL    HW210852   2.761  10.267  14.824
 3005SOL     OW10853   7.226   1.018   3.635
 3005SOL    HW110854   7.246   0.929   3.664
 3005SOL    HW210855   7.157   1.048   3.695
 3006SOL     OW10856   2.637   3.970  14.102
 3006SOL    HW110857   2.544   3.980  14.122
 3006SOL    HW210858   2.648   4.016  14.019
 3007SOL     OW10859  13.235   3.670   2.570
 3007SOL    HW110860  13.242   3.590   2.519
 3007SOL    HW210861  13.141   3.681   2.585
 3008SOL     OW10862   7.060   9.514   6.457
 3008SOL    HW110863   6.994   9.465   6.507
 3008SOL    HW210864   7.099   9.574   6.521
 3009SOL     OW10865   1.496   8.788   0.635
 3009SOL    HW110866   1.426   8.801   0.699
 3009SOL    HW210867   1.465   8.831   0.556
 3010SOL     OW10868   4.814   8.803   1.148
 3010SOL    HW110869   4.906   8.819   1.128
 3010SOL    HW210870   4.816   8.741   1.222
 3011SOL     OW10871   3.908   0.459   0.745
 3011SOL    HW110872   3.998   0.456   0.776
 3011SOL    HW210873   3.903   0.389   0.680
 3012SOL     OW10874   7.810   0.692   0.982
 3012SOL    HW110875   7.894   0.652   0.960
 3012SOL    HW210876   7.798   0.761   0.917
 3013SOL     OW10877   0.093   9.579   2.395
 3013SOL    HW110878   0.167   9.526   2.365
 3013SOL    HW210879   0.116   9.604   2.485
 3014SOL     OW10880  11.795   8.027   9.649
 3014SOL    HW110881  11.730   8.068   9.591
 3014SOL    HW210882  11.877   8.030   9.599
 3015SOL     OW10883  14.358   1.399   7.461
 3015SOL    HW110884  14.342   1.479   7.410
 3015SOL    HW210885  14.440   1.418   7.508
 3016SOL     OW10886  11.687  12.864  13.392
 3016SOL    HW110887  11.608  12.817  13.367
 3016SOL    HW210888  11.759  12.804  13.374
 3017SOL     OW10889  10.896   3.960   2.958
 3017SOL    HW110890  10.909   3.872   2.994
 3017SOL    HW210891  10.917   3.951   2.865
 3018SOL     OW10892   7.720  13.111  13.201
 3018SOL    HW110893   7.746  13.180  13.140
 3018SOL    HW210894   7.772  13.035  13.175
 3019SOL     OW10895  11.880   8.474  14.797
 3019SOL    HW110896  11.881   8.391  14.749
 3019SOL    HW210897  11.854   8.449   0.006
 3020SOL     OW10898  12.845   7.866   3.762
 3020SOL    HW110899  12.857   7.941   3.703
 3020SOL    HW210900  12.934   7.834   3.778
 3021SOL     OW10901   2.274   9.855   1.909
 3021SOL    HW110902   2.353   9.826   1.863
 3021SOL    HW210903   2.210   9.786   1.892
 3022SOL     OW10904   3.602  13.580   2.896
 3022SOL    HW110905   3.520  13.609   2.935
 3022SOL    HW210906   3.601  13.615   2.807
 3023SOL     OW10907  11.188   1.514  10.962
 3023SOL    HW110908  11.208   1.463  10.884
 3023SOL    HW210909  11.250   1.482  11.028
 3024SOL     OW10910   6.918  13.746   0.348
 3024SOL    HW110911   6.925  13.651   0.361
 3024SOL    HW210912   6.970  13.783   0.419
 3025SOL     OW10913   4.147   1.807   1.702
 3025SOL    HW110914   4.201   1.730   1.684
 3025SOL    HW210915   4.061   1.772   1.723
 3026SOL     OW10916   2.116   2.783  13.475
 3026SOL    HW110917   2.023   2.772  13.455
 3026SOL    HW210918   2.141   2.864  13.431
 3027SOL     OW10919   3.156  10.947   8.183
 3027SOL    HW110920   3.164  10.920   8.274
 3027SOL    HW210921   3.088  11.014   8.183
 3028SOL     OW10922  12.948  13.571  13.376
 3028SOL    HW110923  12.865  13.538  13.411
 3028SOL    HW210924  12.976  13.502  13.315
 3029SOL     OW10925   3.088  14.806  14.036
 3029SOL    HW110926   3.177  14.772  14.047
 3029SOL    HW210927   3.080  14.874  14.103
 3030SOL     OW10928   5.577   3.851   7.013
 3030SOL    HW110929   5.613   3.789   7.076
 3030SOL    HW210930   5.528   3.914   7.065
 3031SOL     OW10931   2.651   9.604   7.269
 3031SOL    HW110932   2.653   9.677   7.207
 3031SOL    HW210933   2.737   9.603   7.309
 3032SOL     OW10934  14.504   5.896  12.253
 3032SOL    HW110935  14.417   5.888  12.292
 3032SOL    HW210936  14.526   5.807  12.225
 3033SOL     OW10937   2.328  13.115   8.045
 3033SOL    HW110938   2.271  13.065   7.986
 3033SOL    HW210939   2.410  13.067   8.046
 3034SOL     OW10940   2.760   3.819  11.790
 3034SOL    HW110941   2.806   3.884  11.844
 3034SOL    HW210942   2.668   3.846  11.792
 3035SOL     OW10943   8.991  13.669   9.495
 3035SOL    HW110944   9.080  13.686   9.527
 3035SOL    HW210945   8.985  13.573   9.494
 3036SOL     OW10946  12.404   1.733  11.027
 3036SOL    HW110947  12.353   1.740  11.108
 3036SOL    HW210948  12.409   1.823  10.994
 3037SOL     OW10949   9.847   2.838   4.233
 3037SOL    HW110950   9.825   2.745   4.239
 3037SOL    HW210951   9.926   2.849   4.284
 3038SOL     OW10952  10.553   2.323   3.642
 3038SOL    HW110953  10.611   2.284   3.577
 3038SOL    HW210954  10.492   2.253   3.666
 3039SOL     OW10955  12.680   4.556  14.259
 3039SOL    HW110956  12.766   4.526  14.288
 3039SOL    HW210957  12.644   4.602  14.335
 3040SOL     OW10958   3.859   8.855  13.232
 3040SOL    HW110959   3.906   8.876  13.312
 3040SOL    HW210960   3.869   8.932  13.177
 3041SOL     OW10961   4.921   8.442  11.784
 3041SOL    HW110962   4.894   8.531  11.808
 3041SOL    HW210963   4.858   8.415  11.717
 3042SOL     OW10964   1.690  14.461   9.341
 3042SOL    HW110965   1.687  14.477   9.435
 3042SOL    HW210966   1.783  14.462   9.319
 3043SOL     OW10967   4.369   0.284  11.269
 3043SOL    HW110968   4.312   0.339  11.216
 3043SOL    HW210969   4.454   0.289  11.224
 3044SOL     OW10970   7.341   0.982  11.563
 3044SOL    HW110971   7.400   0.927  11.512
 3044SOL    HW210972   7.257   0.935  11.562
 3045SOL     OW10973   2.540   1.869   4.214
 3045SOL    HW110974   2.499   1.936   4.269
 3045SOL    HW210975   2.625   1.906   4.190
 3046SOL     OW10976   0.853  12.665   0.251
 3046SOL    HW110977   0.928  12.704   0.297
 3046SOL    HW210978   0.776  12.707   0.290
 3047SOL     OW10979  13.427   3.523  10.242
 3047SOL    HW110980  13.466   3.610  10.240
 3047SOL    HW210981  13.498   3.466  10.272
 3048SOL     OW10982   6.686  13.141   1.067
 3048SOL    HW110983   6.770  13.105   1.097
 3048SOL    HW210984   6.621  13.079   1.101
 3049SOL     OW10985   7.881  10.707   9.915
 3049SOL    HW110986   7.816  10.775   9.931
 3049SOL    HW210987   7.833  10.638   9.868
 3050SOL     OW10988   7.068   3.517   5.094
 3050SOL    HW110989   7.078   3.479   5.181
 3050SOL    HW210990   7.142   3.482   5.044
 3051SOL     OW10991   7.140   1.382   6.761
 3051SOL    HW110992   7.217   1.346   6.716
 3051SOL    HW210993   7.065   1.347   6.712
 3052SOL     OW10994   5.228  10.976  13.930
 3052SOL    HW110995   5.289  11.025  13.875
 3052SOL    HW210996   5.251  11.000  14.020
 3053SOL     OW10997   9.414   6.982  10.226
 3053SOL    HW110998   9.465   7.043  10.280
 3053SOL    HW210999   9.352   7.039  10.179
 3054SOL     OW11000   8.248   4.597   8.859
 3054SOL    HW111001   8.170   4.617   8.807
 3054SOL    HW211002   8.285   4.682   8.880
 3055SOL     OW11003   0.196  11.032  10.054
 3055SOL    HW111004   0.166  11.016   9.964
 3055SOL    HW211005   0.237  10.950  10.081
 3056SOL     OW11006   9.576   7.019  12.197
 3056SOL    HW111007   9.621   7.103  12.183
 3056SOL    HW211008   9.637   6.969  12.251
 3057SOL     OW11009   5.100   6.034   1.327
 3057SOL    HW111010   5.163   6.036   1.255
 3057SOL    HW211011   5.026   5.984   1.293
 3058SOL     OW11012  11.846  13.200   1.228
 3058SOL    HW111013  11.786  13.165   1.163
 3058SOL    HW211014  11.821  13.156   1.310
 3059SOL     OW11015   0.645  13.060  12.593
 3059SOL    HW111016   0.551  13.070  12.584
 3059SOL    HW211017   0.656  12.979  12.643
 3060SOL     OW11018   5.534  13.732   3.296
 3060SOL    HW111019   5.575  13.671   3.235
 3060SOL    HW211020   5.540  13.817   3.252
 3061SOL     OW11021  13.617   5.763  10.566
 3061SOL    HW111022  13.644   5.692  10.624
 3061SOL    HW211023  13.662   5.745  10.483
 3062SOL     OW11024  11.043   1.027   9.126
 3062SOL    HW111025  11.077   1.024   9.215
 3062SOL    HW211026  10.959   1.072   9.134
 3063SOL     OW11027  10.721  10.288  12.707
 3063SOL    HW111028  10.646  10.309  12.651
 3063SOL    HW211029  10.767  10.219  12.661
 3064SOL     OW11030   5.927   9.801   7.372
 3064SOL    HW111031   5.887   9.888   7.378
 3064SOL    HW211032   6.022   9.819   7.373
 3065SOL     OW11033   6.522   9.165   4.090
 3065SOL    HW111034   6.555   9.195   4.175
 3065SOL    HW211035   6.528   9.241   4.034
 3066SOL     OW11036   8.745   3.565   2.703
 3066SOL    HW111037   8.783   3.628   2.642
 3066SOL    HW211038   8.777   3.593   2.789
 3067SOL     OW11039  12.539   2.458   5.750
 3067SOL    HW111040  12.517   2.503   5.832
 3067SOL    HW211041  12.538   2.365   5.773
 3068SOL     OW11042  11.143   1.626   7.265
 3068SOL    HW111043  11.167   1.602   7.175
 3068SOL    HW211044  11.178   1.555   7.318
 3069SOL     OW11045   4.095   3.185  11.145
 3069SOL    HW111046   4.017   3.169  11.092
 3069SOL    HW211047   4.063   3.239  11.218
 3070SOL     OW11048   5.412   9.309   9.545
 3070SOL    HW111049   5.334   9.255   9.537
 3070SOL    HW211050   5.476   9.252   9.589
 3071SOL     OW11051   0.297   5.039   9.256
 3071SOL    HW111052   0.209   5.050   9.219
 3071SOL    HW211053   0.322   5.127   9.286
 3072SOL     OW11054   7.591  14.083   1.959
 3072SOL    HW111055   7.589  14.002   1.909
 3072SOL    HW211056   7.682  14.112   1.953
 3073SOL     OW11057  12.621  10.096  11.738
 3073SOL    HW111058  12.528  10.117  11.724
 3073SOL    HW211059  12.629  10.005  11.709
 3074SOL     OW11060   4.235   7.540   1.673
 3074SOL    HW111061   4.227   7.576   1.761
 3074SOL    HW211062   4.145   7.520   1.647
 3075SOL     OW11063  14.521   1.664  12.155
 3075SOL    HW111064  14.600   1.667  12.209
 3075SOL    HW211065  14.449   1.659  12.218
 3076SOL     OW11066  13.621   0.007   2.789
 3076SOL    HW111067  13.642  14.808   2.739
 3076SOL    HW211068  13.645  14.866   2.879
 3077SOL     OW11069   8.225   3.636   8.586
 3077SOL    HW111070   8.129   3.637   8.590
 3077SOL    HW211071   8.246   3.575   8.515
 3078SOL     OW11072   2.557  13.968   4.420
 3078SOL    HW111073   2.616  14.011   4.358
 3078SOL    HW211074   2.607  13.964   4.501
 3079SOL     OW11075   3.829   5.337   0.168
 3079SOL    HW111076   3.750   5.285   0.152
 3079SOL    HW211077   3.831   5.399   0.095
 3080SOL     OW11078   6.619   9.645   5.975
 3080SOL    HW111079   6.602   9.684   6.060
 3080SOL    HW211080   6.582   9.707   5.912
 3081SOL     OW11081  14.818   2.641  12.717
 3081SOL    HW111082  14.752   2.610  12.654
 3081SOL    HW211083  14.873   2.701  12.666
 3082SOL     OW11084   4.043  14.506   0.952
 3082SOL    HW111085   4.070  14.564   1.023
 3082SOL    HW211086   3.949  14.523   0.942
 3083SOL     OW11087   8.529  12.125   1.234
 3083SOL    HW111088   8.457  12.165   1.186
 3083SOL    HW211089   8.592  12.100   1.167
 3084SOL     OW11090   3.802   4.645   3.810
 3084SOL    HW111091   3.752   4.662   3.730
 3084SOL    HW211092   3.891   4.673   3.790
 3085SOL     OW11093  11.141   1.552   6.328
 3085SOL    HW111094  11.156   1.647   6.322
 3085SOL    HW211095  11.131   1.524   6.237
 3086SOL     OW11096   8.199   9.773   1.601
 3086SOL    HW111097   8.265   9.766   1.532
 3086SOL    HW211098   8.225   9.850   1.651
 3087SOL     OW11099   1.495  13.016   2.509
 3087SOL    HW111100   1.508  13.063   2.592
 3087SOL    HW211101   1.425  13.064   2.466
 3088SOL     OW11102  10.301  11.851  13.666
 3088SOL    HW111103  10.232  11.897  13.713
 3088SOL    HW211104  10.286  11.759  13.685
 3089SOL     OW11105  13.422   3.939   4.829
 3089SOL    HW111106  13.465   4.020   4.860
 3089SOL    HW211107  13.337   3.969   4.796
 3090SOL     OW11108   3.430  12.771   2.664
 3090SOL    HW111109   3.390  12.706   2.722
 3090SOL    HW211110   3.488  12.720   2.608
 3091SOL     OW11111   1.245   5.694  13.315
 3091SOL    HW111112   1.161   5.716  13.275
 3091SOL    HW211113   1.268   5.770  13.368
 3092SOL     OW11114   5.363   7.045   8.256
 3092SOL    HW111115   5.439   6.990   8.271
 3092SOL    HW211116   5.307   6.994   8.197
 3093SOL     OW11117  10.990   9.461   1.153
 3093SOL    HW111118  10.998   9.526   1.083
 3093SOL    HW211119  11.017   9.379   1.112
 3094SOL     OW11120   3.500   4.759   2.900
 3094SOL    HW111121   3.418   4.773   2.947
 3094SOL    HW211122   3.485   4.801   2.814
 3095SOL     OW11123  11.407   0.351   7.614
 3095SOL    HW111124  11.412   0.442   7.586
 3095SOL    HW211125  11.449   0.301   7.543
 3096SOL     OW11126   2.806   9.772  11.316
 3096SOL    HW111127   2.791   9.678  11.308
 3096SOL    HW211128   2.882   9.780  11.373
 3097SOL     OW11129  11.866   2.343   1.938
 3097SOL    HW111130  11.840   2.255   1.968
 3097SOL    HW211131  11.787   2.396   1.948
 3098SOL     OW11132  10.702   6.013   6.341
 3098SOL    HW111133  10.634   6.043   6.280
 3098SOL    HW211134  10.784   6.026   6.292
 3099SOL     OW11135   3.589  13.480   3.573
 3099SOL    HW111136   3.566  13.514   3.486
 3099SOL    HW211137   3.585  13.557   3.630
 3100SOL     OW11138   8.187  13.107  14.063
 3100SOL    HW111139   8.217  13.021  14.033
 3100SOL    HW211140   8.226  13.117  14.150
 3101SOL     OW11141  14.550   4.027   7.645
 3101SOL    HW111142  14.459   4.031   7.673
 3101SOL    HW211143  14.545   4.017   7.550
 3102SOL     OW11144  12.192   6.245   1.367
 3102SOL    HW111145  12.247   6.170   1.391
 3102SOL    HW211146  12.104   6.208   1.360
 3103SOL     OW11147   3.922   4.539   9.341
 3103SOL    HW111148   4.017   4.546   9.328
 3103SOL    HW211149   3.885   4.551   9.254
 3104SOL     OW11150  10.709  13.855   4.542
 3104SOL    HW111151  10.687  13.836   4.633
 3104SOL    HW211152  10.789  13.805   4.525
 3105SOL     OW11153   8.244   5.308   6.811
 3105SOL    HW111154   8.181   5.370   6.773
 3105SOL    HW211155   8.317   5.363   6.839
 3106SOL     OW11156   5.390  12.546   0.512
 3106SOL    HW111157   5.447  12.483   0.556
 3106SOL    HW211158   5.317  12.558   0.572
 3107SOL     OW11159   3.416   5.199   5.229
 3107SOL    HW111160   3.364   5.272   5.195
 3107SOL    HW211161   3.383   5.186   5.318
 3108SOL     OW11162   5.185   3.629  13.630
 3108SOL    HW111163   5.159   3.621  13.538
 3108SOL    HW211164   5.277   3.603  13.631
 3109SOL     OW11165   1.395  14.047  12.488
 3109SOL    HW111166   1.366  14.135  12.511
 3109SOL    HW211167   1.488  14.056  12.470
 3110SOL     OW11168   6.171   7.289   6.459
 3110SOL    HW111169   6.095   7.333   6.497
 3110SOL    HW211170   6.212   7.243   6.532
 3111SOL     OW11171   4.102  13.231  13.160
 3111SOL    HW111172   4.161  13.296  13.122
 3111SOL    HW211173   4.016  13.250  13.122
 3112SOL     OW11174   2.654   8.389   9.147
 3112SOL    HW111175   2.617   8.463   9.098
 3112SOL    HW211176   2.627   8.312   9.098
 3113SOL     OW11177   0.422   1.216   1.203
 3113SOL    HW111178   0.474   1.194   1.126
 3113SOL    HW211179   0.374   1.295   1.178
 3114SOL     OW11180  12.607   0.920  11.465
 3114SOL    HW111181  12.525   0.967  11.480
 3114SOL    HW211182  12.671   0.963  11.522
 3115SOL     OW11183   6.298   5.816  13.818
 3115SOL    HW111184   6.365   5.749  13.833
 3115SOL    HW211185   6.304   5.834  13.724
 3116SOL     OW11186   4.836   4.862   5.367
 3116SOL    HW111187   4.857   4.780   5.324
 3116SOL    HW211188   4.916   4.886   5.415
 3117SOL     OW11189   9.036   9.825   8.780
 3117SOL    HW111190   8.944   9.814   8.805
 3117SOL    HW211191   9.062   9.908   8.820
 3118SOL     OW11192  14.803   3.828   5.136
 3118SOL    HW111193   0.006   3.793   5.103
 3118SOL    HW211194  14.780   3.897   5.073
 3119SOL     OW11195   5.073   9.158   5.588
 3119SOL    HW111196   4.981   9.132   5.594
 3119SOL    HW211197   5.103   9.121   5.505
 3120SOL     OW11198  10.023   0.478  13.523
 3120SOL    HW111199  10.008   0.531  13.601
 3120SOL    HW211200   9.997   0.389  13.549
 3121SOL     OW11201   2.112  14.631   0.460
 3121SOL    HW111202   2.042  14.680   0.417
 3121SOL    HW211203   2.190  14.652   0.409
 3122SOL     OW11204  12.054  10.083   8.479
 3122SOL    HW111205  12.106  10.002   8.473
 3122SOL    HW211206  12.098  10.144   8.420
 3123SOL     OW11207   2.283   2.117  10.270
 3123SOL    HW111208   2.256   2.124  10.362
 3123SOL    HW211209   2.359   2.175  10.263
 3124SOL     OW11210  13.193  14.125   9.417
 3124SOL    HW111211  13.130  14.189   9.451
 3124SOL    HW211212  13.273  14.174   9.404
 3125SOL     OW11213  14.831   7.543   4.057
 3125SOL    HW111214  14.821   7.637   4.073
 3125SOL    HW211215   0.031   7.535   4.004
 3126SOL     OW11216   9.406   3.787  13.482
 3126SOL    HW111217   9.377   3.858  13.541
 3126SOL    HW211218   9.494   3.766  13.513
 3127SOL     OW11219   7.115   6.338   0.879
 3127SOL    HW111220   7.112   6.431   0.904
 3127SOL    HW211221   7.156   6.338   0.793
 3128SOL     OW11222  13.310  14.494   5.503
 3128SOL    HW111223  13.342  14.582   5.485
 3128SOL    HW211224  13.379  14.454   5.556
 3129SOL     OW11225   5.155   2.722   0.053
 3129SOL    HW111226   5.215   2.648   0.057
 3129SOL    HW211227   5.071   2.685   0.080
 3130SOL     OW11228  13.790  11.462   1.879
 3130SOL    HW111229  13.754  11.375   1.895
 3130SOL    HW211230  13.785  11.473   1.784
 3131SOL     OW11231   0.778   1.063  10.263
 3131SOL    HW111232   0.846   1.041  10.199
 3131SOL    HW211233   0.822   1.055  10.348
 3132SOL     OW11234   0.876   7.705  13.119
 3132SOL    HW111235   0.959   7.696  13.072
 3132SOL    HW211236   0.810   7.676  13.055
 3133SOL     OW11237  10.448   2.501   8.437
 3133SOL    HW111238  10.474   2.515   8.346
 3133SOL    HW211239  10.499   2.425   8.466
 3134SOL     OW11240   8.805  13.592  11.741
 3134SOL    HW111241   8.755  13.540  11.678
 3134SOL    HW211242   8.754  13.588  11.822
 3135SOL     OW11243  11.810  10.367  13.897
 3135SOL    HW111244  11.833  10.460  13.904
 3135SOL    HW211245  11.804  10.351  13.803
 3136SOL     OW11246   8.915   8.871  10.913
 3136SOL    HW111247   9.001   8.894  10.948
 3136SOL    HW211248   8.934   8.817  10.836
 3137SOL     OW11249   9.988   4.402  11.530
 3137SOL    HW111250   9.939   4.430  11.607
 3137SOL    HW211251  10.078   4.389  11.561
 3138SOL     OW11252   6.142   7.279  11.122
 3138SOL    HW111253   6.077   7.320  11.066
 3138SOL    HW211254   6.218   7.266  11.066
 3139SOL     OW11255   3.969   0.217   2.594
 3139SOL    HW111256   4.005   0.303   2.576
 3139SOL    HW211257   3.874   0.230   2.596
 3140SOL     OW11258   6.570   0.142   2.298
 3140SOL    HW111259   6.514   0.217   2.317
 3140SOL    HW211260   6.589   0.104   2.384
 3141SOL     OW11261   6.480   9.210   0.001
 3141SOL    HW111262   6.562   9.249   0.032
 3141SOL    HW211263   6.492   9.202  14.786
 3142SOL     OW11264   8.798  12.124   7.957
 3142SOL    HW111265   8.743  12.105   7.881
 3142SOL    HW211266   8.836  12.039   7.980
 3143SOL     OW11267  11.588   9.525  13.864
 3143SOL    HW111268  11.532   9.515  13.941
 3143SOL    HW211269  11.578   9.442  13.817
 3144SOL     OW11270  11.229  14.713  12.150
 3144SOL    HW111271  11.321  14.700  12.124
 3144SOL    HW211272  11.228  14.693  12.243
 3145SOL     OW11273  14.439   7.761   3.738
 3145SOL    HW111274  14.469   7.698   3.672
 3145SOL    HW211275  14.458   7.847   3.699
 3146SOL     OW11276  11.363   4.508  13.244
 3146SOL    HW111277  11.328   4.528  13.330
 3146SOL    HW211278  11.310   4.435  13.213
 3147SOL     OW11279  13.530   0.913   1.558
 3147SOL    HW111280  13.517   0.844   1.493
 3147SOL    HW211281  13.577   0.870   1.630
 3148SOL     OW11282   0.565   8.508   3.774
 3148SOL    HW111283   0.513   8.455   3.835
 3148SOL    HW211284   0.536   8.598   3.790
 3149SOL     OW11285   5.367  13.427   6.048
 3149SOL    HW111286   5.307  13.441   6.121
 3149SOL    HW211287   5.311  13.421   5.971
 3150SOL     OW11288   7.568   5.800   0.100
 3150SOL    HW111289   7.566   5.849   0.019
 3150SOL    HW211290   7.643   5.740   0.090
 3151SOL     OW11291  14.754  11.636   9.058
 3151SOL    HW111292  14.810  11.598   8.990
 3151SOL    HW211293  14.679  11.671   9.010
 3152SOL     OW11294   1.407   4.873  11.067
 3152SOL    HW111295   1.473   4.927  11.110
 3152SOL    HW211296   1.382   4.923  10.990
 3153SOL     OW11297   1.208  10.135   6.388
 3153SOL    HW111298   1.148  10.061   6.375
 3153SOL    HW211299   1.222  10.170   6.300
 3154SOL     OW11300  14.379  11.199  10.291
 3154SOL    HW111301  14.363  11.106  10.276
 3154SOL    HW211302  14.395  11.206  10.386
 3155SOL     OW11303   5.640  12.959   9.081
 3155SOL    HW111304   5.603  13.006   9.156
 3155SOL    HW211305   5.720  13.008   9.059
 3156SOL     OW11306   1.490   8.756   8.077
 3156SOL    HW111307   1.479   8.809   7.998
 3156SOL    HW211308   1.473   8.667   8.048
 3157SOL     OW11309   2.217  12.497   1.686
 3157SOL    HW111310   2.129  12.514   1.719
 3157SOL    HW211311   2.210  12.413   1.640
 3158SOL     OW11312  13.049  11.402  14.368
 3158SOL    HW111313  13.119  11.403  14.302
 3158SOL    HW211314  13.072  11.472  14.428
 3159SOL     OW11315   6.452   2.965   9.528
 3159SOL    HW111316   6.437   3.000   9.616
 3159SOL    HW211317   6.366   2.935   9.499
 3160SOL     OW11318   4.231   1.751  10.296
 3160SOL    HW111319   4.250   1.672  10.246
 3160SOL    HW211320   4.139   1.769  10.279
 3161SOL     OW11321   0.961   7.188   3.824
 3161SOL    HW111322   0.942   7.214   3.915
 3161SOL    HW211323   0.895   7.234   3.772
 3162SOL     OW11324   9.216   4.043   8.565
 3162SOL    HW111325   9.268   3.988   8.506
 3162SOL    HW211326   9.267   4.123   8.573
 3163SOL     OW11327   6.424   9.779   0.725
 3163SOL    HW111328   6.514   9.774   0.692
 3163SOL    HW211329   6.408   9.872   0.737
 3164SOL     OW11330   0.722   1.130   6.123
 3164SOL    HW111331   0.644   1.107   6.173
 3164SOL    HW211332   0.794   1.089   6.170
 3165SOL     OW11333   6.879   5.775   6.377
 3165SOL    HW111334   6.921   5.830   6.443
 3165SOL    HW211335   6.941   5.704   6.363
 3166SOL     OW11336   9.613  14.451   7.411
 3166SOL    HW111337   9.666  14.372   7.403
 3166SOL    HW211338   9.675  14.523   7.403
 3167SOL     OW11339   3.677   7.875   2.444
 3167SOL    HW111340   3.676   7.807   2.512
 3167SOL    HW211341   3.656   7.829   2.363
 3168SOL     OW11342  10.970   2.645   7.066
 3168SOL    HW111343  10.980   2.740   7.068
 3168SOL    HW211344  11.048   2.611   7.110
 3169SOL     OW11345   0.390   9.617   4.089
 3169SOL    HW111346   0.419   9.557   4.019
 3169SOL    HW211347   0.316   9.664   4.051
 3170SOL     OW11348   1.688  12.692   2.964
 3170SOL    HW111349   1.599  12.691   2.930
 3170SOL    HW211350   1.735  12.628   2.911
 3171SOL     OW11351   1.081  13.340  12.022
 3171SOL    HW111352   1.133  13.369  11.946
 3171SOL    HW211353   1.004  13.297  11.983
 3172SOL     OW11354   6.192   6.376   6.798
 3172SOL    HW111355   6.182   6.289   6.838
 3172SOL    HW211356   6.161   6.365   6.708
 3173SOL     OW11357  14.324   4.552   8.298
 3173SOL    HW111358  14.347   4.459   8.295
 3173SOL    HW211359  14.389   4.595   8.242
 3174SOL     OW11360   1.813  12.756   6.991
 3174SOL    HW111361   1.908  12.763   7.004
 3174SOL    HW211362   1.778  12.836   7.031
 3175SOL     OW11363   2.939  10.332   0.229
 3175SOL    HW111364   2.982  10.300   0.149
 3175SOL    HW211365   2.991  10.408   0.254
 3176SOL     OW11366   6.394   4.175   1.417
 3176SOL    HW111367   6.341   4.160   1.496
 3176SOL    HW211368   6.415   4.088   1.385
 3177SOL     OW11369   7.404   0.288  10.606
 3177SOL    HW111370   7.383   0.324  10.692
 3177SOL    HW211371   7.478   0.229  10.623
 3178SOL     OW11372   5.392   7.319  11.837
 3178SOL    HW111373   5.405   7.230  11.803
 3178SOL    HW211374   5.481   7.354  11.848
 3179SOL     OW11375  13.411   8.114   5.599
 3179SOL    HW111376  13.397   8.205   5.573
 3179SOL    HW211377  13.367   8.106   5.683
 3180SOL     OW11378   9.929   8.392   0.885
 3180SOL    HW111379   9.930   8.481   0.850
 3180SOL    HW211380  10.017   8.358   0.870
 3181SOL     OW11381  14.217   0.173   3.829
 3181SOL    HW111382  14.279   0.186   3.757
 3181SOL    HW211383  14.247   0.094   3.872
 3182SOL     OW11384   8.940   1.369  12.612
 3182SOL    HW111385   8.998   1.436  12.574
 3182SOL    HW211386   8.865   1.366  12.553
 3183SOL     OW11387   0.789   7.675  10.924
 3183SOL    HW111388   0.768   7.692  11.016
 3183SOL    HW211389   0.708   7.642  10.886
 3184SOL     OW11390   7.417   6.057  13.416
 3184SOL    HW111391   7.333   6.102  13.422
 3184SOL    HW211392   7.482   6.126  13.429
 3185SOL     OW11393  11.299   4.136  12.033
 3185SOL    HW111394  11.234   4.087  11.982
 3185SOL    HW211395  11.373   4.076  12.042
 3186SOL     OW11396   4.235  14.647   7.898
 3186SOL    HW111397   4.321  14.664   7.859
 3186SOL    HW211398   4.173  14.663   7.827
 3187SOL     OW11399   8.211  11.491  10.951
 3187SOL    HW111400   8.251  11.534  11.027
 3187SOL    HW211401   8.281  11.436  10.916
 3188SOL     OW11402   9.010   6.826   1.848
 3188SOL    HW111403   8.918   6.801   1.842
 3188SOL    HW211404   9.054   6.749   1.883
 3189SOL     OW11405   0.138  12.614   2.412
 3189SOL    HW111406   0.072  12.546   2.399
 3189SOL    HW211407   0.107  12.688   2.360
 3190SOL     OW11408   6.509   9.166   9.351
 3190SOL    HW111409   6.421   9.198   9.333
 3190SOL    HW211410   6.523   9.187   9.444
 3191SOL     OW11411   9.804  12.811   4.168
 3191SOL    HW111412   9.817  12.819   4.263
 3191SOL    HW211413   9.733  12.872   4.148
 3192SOL     OW11414  11.051   9.220   1.022
 3192SOL    HW111415  10.992   9.166   1.074
 3192SOL    HW211416  11.137   9.208   1.062
 3193SOL     OW11417   5.181   8.474   2.713
 3193SOL    HW111418   5.148   8.411   2.777
 3193SOL    HW211419   5.237   8.533   2.763
 3194SOL     OW11420   3.601  12.929   4.846
 3194SOL    HW111421   3.662  12.856   4.843
 3194SOL    HW211422   3.557  12.920   4.931
 3195SOL     OW11423   2.458   8.684  11.691
 3195SOL    HW111424   2.543   8.644  11.708
 3195SOL    HW211425   2.395   8.625  11.732
 3196SOL     OW11426  13.260  12.667   0.744
 3196SOL    HW111427  13.227  12.578   0.734
 3196SOL    HW211428  13.184  12.718   0.772
 3197SOL     OW11429   9.179   0.584   3.528
 3197SOL    HW111430   9.210   0.672   3.505
 3197SOL    HW211431   9.084   0.592   3.531
 3198SOL     OW11432   0.953  11.316   1.010
 3198SOL    HW111433   1.002  11.387   1.052
 3198SOL    HW211434   0.987  11.236   1.050
 3199SOL     OW11435  10.517   2.507   2.706
 3199SOL    HW111436  10.502   2.580   2.646
 3199SOL    HW211437  10.512   2.429   2.652
 3200SOL     OW11438   4.178  11.966   2.397
 3200SOL    HW111439   4.208  12.046   2.352
 3200SOL    HW211440   4.221  11.970   2.483
 3201SOL     OW11441   3.759   7.242  12.489
 3201SOL    HW111442   3.783   7.219  12.400
 3201SOL    HW211443   3.663   7.249  12.487
 3202SOL     OW11444   7.744   3.720   5.978
 3202SOL    HW111445   7.691   3.647   5.947
 3202SOL    HW211446   7.690   3.763   6.045
 3203SOL     OW11447   3.320   1.500   8.624
 3203SOL    HW111448   3.357   1.415   8.647
 3203SOL    HW211449   3.387   1.542   8.570
 3204SOL     OW11450  13.714  10.782   5.366
 3204SOL    HW111451  13.764  10.851   5.323
 3204SOL    HW211452  13.673  10.734   5.294
 3205SOL     OW11453   0.922  14.009   2.913
 3205SOL    HW111454   0.858  13.939   2.894
 3205SOL    HW211455   0.897  14.041   2.999
 3206SOL     OW11456  13.019  11.189  11.828
 3206SOL    HW111457  12.968  11.269  11.816
 3206SOL    HW211458  13.073  11.206  11.905
 3207SOL     OW11459   3.037   2.521   3.594
 3207SOL    HW111460   3.082   2.493   3.515
 3207SOL    HW211461   2.946   2.494   3.581
 3208SOL     OW11462   8.231  14.276   0.546
 3208SOL    HW111463   8.273  14.238   0.469
 3208SOL    HW211464   8.290  14.255   0.618
 3209SOL     OW11465   8.376  12.134   5.695
 3209SOL    HW111466   8.300  12.175   5.736
 3209SOL    HW211467   8.339  12.087   5.620
 3210SOL     OW11468   4.414  10.217   9.111
 3210SOL    HW111469   4.499  10.216   9.153
 3210SOL    HW211470   4.433  10.201   9.018
 3211SOL     OW11471   0.571  12.266   7.388
 3211SOL    HW111472   0.664  12.244   7.382
 3211SOL    HW211473   0.527  12.183   7.404
 3212SOL     OW11474   6.597   1.282  10.975
 3212SOL    HW111475   6.539   1.310  11.046
 3212SOL    HW211476   6.630   1.364  10.938
 3213SOL     OW11477  11.725   5.005   7.044
 3213SOL    HW111478  11.662   4.991   6.973
 3213SOL    HW211479  11.765   4.919   7.058
 3214SOL     OW11480   0.178   6.842   9.214
 3214SOL    HW111481   0.105   6.785   9.236
 3214SOL    HW211482   0.185   6.902   9.288
 3215SOL     OW11483   9.329   9.153   5.373
 3215SOL    HW111484   9.402   9.164   5.312
 3215SOL    HW211485   9.253   9.187   5.325
 3216SOL     OW11486  11.139  14.683   6.519
 3216SOL    HW111487  11.135  14.632   6.599
 3216SOL    HW211488  11.167  14.770   6.548
 3217SOL     OW11489   6.912   7.197   6.300
 3217SOL    HW111490   6.839   7.143   6.331
 3217SOL    HW211491   6.870   7.266   6.249
 3218SOL     OW11492  11.165  13.006   6.551
 3218SOL    HW111493  11.217  12.966   6.481
 3218SOL    HW211494  11.124  12.932   6.595
 3219SOL     OW11495   6.264   7.539   5.622
 3219SOL    HW111496   6.282   7.465   5.564
 3219SOL    HW211497   6.341   7.596   5.613
 3220SOL     OW11498   2.505   3.939  13.807
 3220SOL    HW111499   2.548   4.024  13.799
 3220SOL    HW211500   2.416   3.959  13.837
 3221SOL     OW11501   3.632   2.213   5.966
 3221SOL    HW111502   3.641   2.122   5.994
 3221SOL    HW211503   3.581   2.254   6.036
 3222SOL     OW11504  13.973   6.390   6.448
 3222SOL    HW111505  13.991   6.296   6.441
 3222SOL    HW211506  13.890   6.402   6.401
 3223SOL     OW11507   3.072   8.827  12.718
 3223SOL    HW111508   3.035   8.828  12.806
 3223SOL    HW211509   3.130   8.750  12.718
 3224SOL     OW11510   5.159   2.299   5.536
 3224SOL    HW111511   5.140   2.241   5.462
 3224SOL    HW211512   5.169   2.241   5.611
 3225SOL     OW11513  14.410   4.872   7.960
 3225SOL    HW111514  14.355   4.828   7.895
 3225SOL    HW211515  14.482   4.910   7.910
 3226SOL     OW11516   9.300  13.141   0.252
 3226SOL    HW111517   9.302  13.177   0.341
 3226SOL    HW211518   9.208  13.149   0.226
 3227SOL     OW11519   1.290   8.640   2.335
 3227SOL    HW111520   1.342   8.575   2.289
 3227SOL    HW211521   1.266   8.598   2.417
 3228SOL     OW11522   2.919   3.792   6.247
 3228SOL    HW111523   2.905   3.761   6.336
 3228SOL    HW211524   3.014   3.783   6.233
 3229SOL     OW11525  13.729   1.185  13.813
 3229SOL    HW111526  13.784   1.173  13.891
 3229SOL    HW211527  13.720   1.280  13.804
 3230SOL     OW11528   4.924   6.474   9.129
 3230SOL    HW111529   4.871   6.539   9.082
 3230SOL    HW211530   5.015   6.502   9.114
 3231SOL     OW11531   4.760  13.450  10.848
 3231SOL    HW111532   4.737  13.359  10.867
 3231SOL    HW211533   4.705  13.502  10.907
 3232SOL     OW11534   5.307   2.489   2.448
 3232SOL    HW111535   5.249   2.438   2.504
 3232SOL    HW211536   5.295   2.452   2.361
 3233SOL     OW11537  10.804  12.467   7.278
 3233SOL    HW111538  10.814  12.520   7.199
 3233SOL    HW211539  10.711  12.473   7.300
 3234SOL     OW11540   9.022   6.661  12.395
 3234SOL    HW111541   9.063   6.709  12.323
 3234SOL    HW211542   9.079   6.586  12.411
 3235SOL     OW11543  12.663  14.362   4.041
 3235SOL    HW111544  12.590  14.310   4.072
 3235SOL    HW211545  12.628  14.451   4.032
 3236SOL     OW11546   3.521   6.347  11.803
 3236SOL    HW111547   3.574   6.390  11.737
 3236SOL    HW211548   3.543   6.254  11.795
 3237SOL     OW11549   1.068   9.372  10.448
 3237SOL    HW111550   1.143   9.359  10.389
 3237SOL    HW211551   1.100   9.432  10.515
 3238SOL     OW11552  13.121   0.157  11.306
 3238SOL    HW111553  13.175   0.091  11.261
 3238SOL    HW211554  13.035   0.117  11.313
 3239SOL     OW11555   5.886   9.442   3.737
 3239SOL    HW111556   5.792   9.425   3.732
 3239SOL    HW211557   5.925   9.378   3.678
 3240SOL     OW11558   9.198  13.389   1.242
 3240SOL    HW111559   9.114  13.425   1.271
 3240SOL    HW211560   9.248  13.466   1.213
 3241SOL     OW11561   0.608   4.254   5.534
 3241SOL    HW111562   0.650   4.314   5.473
 3241SOL    HW211563   0.569   4.187   5.478
 3242SOL     OW11564   0.130   7.546  10.953
 3242SOL    HW111565   0.182   7.624  10.932
 3242SOL    HW211566   0.058   7.580  11.005
 3243SOL     OW11567   4.738   7.980   4.366
 3243SOL    HW111568   4.721   8.067   4.329
 3243SOL    HW211569   4.671   7.924   4.326
 3244SOL     OW11570   7.585   8.327   4.750
 3244SOL    HW111571   7.592   8.321   4.845
 3244SOL    HW211572   7.491   8.323   4.732
 3245SOL     OW11573  12.506   3.773  10.525
 3245SOL    HW111574  12.573   3.705  10.534
 3245SOL    HW211575  12.479   3.770  10.434
 3246SOL     OW11576   7.661   6.743   8.295
 3246SOL    HW111577   7.711   6.762   8.216
 3246SOL    HW211578   7.698   6.661   8.328
 3247SOL     OW11579   2.575  14.670   1.112
 3247SOL    HW111580   2.588  14.764   1.126
 3247SOL    HW211581   2.660  14.631   1.129
 3248SOL     OW11582   6.352  11.150  10.119
 3248SOL    HW111583   6.387  11.238  10.130
 3248SOL    HW211584   6.304  11.132  10.200
 3249SOL     OW11585   1.023   8.610   1.463
 3249SOL    HW111586   1.070   8.560   1.529
 3249SOL    HW211587   1.092   8.641   1.404
 3250SOL     OW11588   8.485   2.256  12.618
 3250SOL    HW111589   8.425   2.330  12.631
 3250SOL    HW211590   8.546   2.286  12.551
 3251SOL     OW11591   6.222   8.201   1.875
 3251SOL    HW111592   6.292   8.242   1.824
 3251SOL    HW211593   6.151   8.264   1.875
 3252SOL     OW11594   5.687   3.213  12.757
 3252SOL    HW111595   5.686   3.123  12.725
 3252SOL    HW211596   5.675   3.204  12.852
 3253SOL     OW11597  13.970   8.000   0.087
 3253SOL    HW111598  13.956   7.951   0.168
 3253SOL    HW211599  14.054   8.044   0.099
 3254SOL     OW11600   6.597   6.838   9.647
 3254SOL    HW111601   6.671   6.884   9.686
 3254SOL    HW211602   6.519   6.881   9.683
 3255SOL     OW11603   3.417   1.775   8.256
 3255SOL    HW111604   3.453   1.693   8.221
 3255SOL    HW211605   3.333   1.750   8.294
 3256SOL     OW11606   5.031  13.866  12.344
 3256SOL    HW111607   4.969  13.825  12.403
 3256SOL    HW211608   5.001  13.843  12.256
 3257SOL     OW11609   0.838   8.888   8.010
 3257SOL    HW111610   0.891   8.940   7.950
 3257SOL    HW211611   0.820   8.948   8.083
 3258SOL     OW11612   4.265   9.196   0.796
 3258SOL    HW111613   4.294   9.279   0.836
 3258SOL    HW211614   4.184   9.175   0.841
 3259SOL     OW11615  12.215  10.295   9.801
 3259SOL    HW111616  12.268  10.215   9.800
 3259SOL    HW211617  12.126  10.264   9.813
 3260SOL     OW11618   0.279   1.704   0.901
 3260SOL    HW111619   0.227   1.759   0.958
 3260SOL    HW211620   0.344   1.763   0.862
 3261SOL     OW11621   0.229   8.442  12.385
 3261SOL    HW111622   0.204   8.358  12.346
 3261SOL    HW211623   0.301   8.473  12.330
 3262SOL     OW11624   0.893  10.632  10.176
 3262SOL    HW111625   0.901  10.667  10.087
 3262SOL    HW211626   0.807  10.590  10.178
 3263SOL     OW11627  11.849  12.539   5.531
 3263SOL    HW111628  11.829  12.602   5.461
 3263SOL    HW211629  11.803  12.460   5.505
 3264SOL     OW11630   6.718   0.851  13.935
 3264SOL    HW111631   6.723   0.899  13.852
 3264SOL    HW211632   6.673   0.912  13.994
 3265SOL     OW11633   6.382   4.663   1.205
 3265SOL    HW111634   6.419   4.590   1.255
 3265SOL    HW211635   6.333   4.622   1.134
 3266SOL     OW11636  10.431   8.906  10.800
 3266SOL    HW111637  10.465   8.890  10.888
 3266SOL    HW211638  10.481   8.981  10.769
 3267SOL     OW11639  12.633   3.610   7.160
 3267SOL    HW111640  12.574   3.614   7.235
 3267SOL    HW211641  12.686   3.689   7.166
 3268SOL     OW11642   9.561  13.890   7.044
 3268SOL    HW111643   9.626  13.852   6.985
 3268SOL    HW211644   9.605  13.965   7.083
 3269SOL     OW11645   3.176  13.053  14.291
 3269SOL    HW111646   3.125  13.113  14.236
 3269SOL    HW211647   3.249  13.026  14.235
 3270SOL     OW11648  13.043  12.929   8.698
 3270SOL    HW111649  13.126  12.971   8.719
 3270SOL    HW211650  12.995  12.994   8.647
 3271SOL     OW11651   4.472  14.223   9.526
 3271SOL    HW111652   4.438  14.194   9.441
 3271SOL    HW211653   4.567  14.223   9.514
 3272SOL     OW11654   9.567  10.546   4.931
 3272SOL    HW111655   9.605  10.557   4.844
 3272SOL    HW211656   9.576  10.453   4.950
 3273SOL     OW11657   9.052   9.202   8.317
 3273SOL    HW111658   8.989   9.263   8.354
 3273SOL    HW211659   9.006   9.162   8.243
 3274SOL     OW11660   3.663   5.542   4.102
 3274SOL    HW111661   3.612   5.464   4.127
 3274SOL    HW211662   3.753   5.518   4.119
 3275SOL     OW11663   0.192   7.575  11.277
 3275SOL    HW111664   0.270   7.567  11.332
 3275SOL    HW211665   0.152   7.488  11.279
 3276SOL     OW11666   4.624  13.810   9.377
 3276SOL    HW111667   4.624  13.725   9.419
 3276SOL    HW211668   4.533  13.824   9.351
 3277SOL     OW11669   1.856   2.087   7.720
 3277SOL    HW111670   1.942   2.104   7.681
 3277SOL    HW211671   1.860   2.129   7.806
 3278SOL     OW11672   2.512   1.571   4.390
 3278SOL    HW111673   2.588   1.552   4.335
 3278SOL    HW211674   2.484   1.485   4.423
 3279SOL     OW11675   2.892   7.039   9.850
 3279SOL    HW111676   2.840   6.960   9.833
 3279SOL    HW211677   2.843   7.088   9.915
 3280SOL     OW11678   1.016  13.377  10.217
 3280SOL    HW111679   1.066  13.422  10.149
 3280SOL    HW211680   1.072  13.303  10.242
 3281SOL     OW11681   6.336   1.072   0.464
 3281SOL    HW111682   6.364   0.983   0.441
 3281SOL    HW211683   6.301   1.065   0.552
 3282SOL     OW11684  11.441   8.419   7.239
 3282SOL    HW111685  11.449   8.500   7.189
 3282SOL    HW211686  11.348   8.415   7.264
 3283SOL     OW11687   9.247  10.397   7.861
 3283SOL    HW111688   9.181  10.466   7.851
 3283SOL    HW211689   9.208  10.320   7.820
 3284SOL     OW11690   3.662   5.649   0.329
 3284SOL    HW111691   3.674   5.588   0.256
 3284SOL    HW211692   3.707   5.729   0.301
 3285SOL     OW11693   9.770   6.791  12.489
 3285SOL    HW111694   9.702   6.726  12.469
 3285SOL    HW211695   9.772   6.793  12.585
 3286SOL     OW11696   7.028   5.587  11.914
 3286SOL    HW111697   7.019   5.510  11.971
 3286SOL    HW211698   7.063   5.655  11.971
 3287SOL     OW11699  12.233   2.082  12.130
 3287SOL    HW111700  12.218   2.050  12.042
 3287SOL    HW211701  12.288   2.159  12.119
 3288SOL     OW11702  14.838  14.249  14.582
 3288SOL    HW111703  14.876  14.163  14.601
 3288SOL    HW211704  14.828  14.291  14.667
 3289SOL     OW11705   9.505   7.074   0.310
 3289SOL    HW111706   9.591   7.046   0.280
 3289SOL    HW211707   9.509   7.066   0.405
 3290SOL     OW11708   3.874  14.792   3.486
 3290SOL    HW111709   3.842  14.707   3.456
 3290SOL    HW211710   3.967  14.794   3.462
 3291SOL     OW11711   0.458   5.671   2.605
 3291SOL    HW111712   0.477   5.765   2.597
 3291SOL    HW211713   0.368   5.667   2.637
 3292SOL     OW11714   9.918   0.567  14.430
 3292SOL    HW111715   9.970   0.538  14.355
 3292SOL    HW211716   9.972   0.634  14.472
 3293SOL     OW11717   2.532   6.764   9.253
 3293SOL    HW111718   2.493   6.690   9.207
 3293SOL    HW211719   2.607   6.789   9.198
 3294SOL     OW11720   3.957   4.477   8.005
 3294SOL    HW111721   3.898   4.465   7.930
 3294SOL    HW211722   3.962   4.390   8.045
 3295SOL     OW11723   9.962   8.535   8.196
 3295SOL    HW111724   9.913   8.461   8.230
 3295SOL    HW211725  10.054   8.510   8.207
 3296SOL     OW11726   0.295  10.211   7.705
 3296SOL    HW111727   0.363  10.278   7.696
 3296SOL    HW211728   0.229  10.251   7.761
 3297SOL     OW11729   4.550  12.624   4.362
 3297SOL    HW111730   4.612  12.619   4.289
 3297SOL    HW211731   4.602  12.597   4.438
 3298SOL     OW11732   7.530   7.772   4.602
 3298SOL    HW111733   7.623   7.750   4.606
 3298SOL    HW211734   7.510   7.772   4.508
 3299SOL     OW11735   7.868   8.883   3.815
 3299SOL    HW111736   7.884   8.829   3.893
 3299SOL    HW211737   7.778   8.916   3.826
 3300SOL     OW11738  10.648   9.047   3.244
 3300SOL    HW111739  10.695   9.121   3.282
 3300SOL    HW211740  10.556   9.074   3.244
 3301SOL     OW11741  11.660  10.232   0.495
 3301SOL    HW111742  11.740  10.242   0.445
 3301SOL    HW211743  11.589  10.250   0.433
 3302SOL     OW11744  13.424  14.370   4.391
 3302SOL    HW111745  13.405  14.435   4.459
 3302SOL    HW211746  13.370  14.397   4.316
 3303SOL     OW11747   9.824  12.117   0.649
 3303SOL    HW111748   9.830  12.086   0.739
 3303SOL    HW211749   9.730  12.126   0.633
 3304SOL     OW11750   5.909   7.373   5.469
 3304SOL    HW111751   5.818   7.349   5.490
 3304SOL    HW211752   5.935   7.430   5.541
 3305SOL     OW11753   9.167   4.377   6.182
 3305SOL    HW111754   9.201   4.466   6.169
 3305SOL    HW211755   9.196   4.329   6.105
 3306SOL     OW11756   3.993  11.013   5.784
 3306SOL    HW111757   3.907  10.971   5.788
 3306SOL    HW211758   4.011  11.020   5.690
 3307SOL     OW11759   7.592  12.435   0.374
 3307SOL    HW111760   7.577  12.479   0.290
 3307SOL    HW211761   7.520  12.373   0.382
 3308SOL     OW11762   8.112   8.986  14.120
 3308SOL    HW111763   8.065   8.987  14.036
 3308SOL    HW211764   8.174   8.913  14.112
 3309SOL     OW11765  12.992  14.653   2.048
 3309SOL    HW111766  12.897  14.663   2.049
 3309SOL    HW211767  13.023  14.727   1.996
 3310SOL     OW11768   1.776  12.938  11.968
 3310SOL    HW111769   1.803  12.965  12.055
 3310SOL    HW211770   1.711  12.869  11.982
 3311SOL     OW11771   0.901   4.703   6.827
 3311SOL    HW111772   0.839   4.776   6.827
 3311SOL    HW211773   0.986   4.743   6.811
 3312SOL     OW11774   3.008  12.006   1.811
 3312SOL    HW111775   2.946  11.935   1.795
 3312SOL    HW211776   3.022  12.006   1.905
 3313SOL     OW11777   4.622   5.019   1.498
 3313SOL    HW111778   4.641   5.046   1.588
 3313SOL    HW211779   4.527   5.029   1.489
 3314SOL     OW11780   7.662   2.409   1.281
 3314SOL    HW111781   7.600   2.354   1.232
 3314SOL    HW211782   7.683   2.357   1.359
 3315SOL     OW11783  14.003   2.974   2.781
 3315SOL    HW111784  13.917   2.933   2.787
 3315SOL    HW211785  14.056   2.913   2.730
 3316SOL     OW11786  14.108   7.047   9.489
 3316SOL    HW111787  14.146   7.055   9.576
 3316SOL    HW211788  14.068   6.960   9.488
 3317SOL     OW11789   7.425  14.677  13.196
 3317SOL    HW111790   7.468  14.641  13.118
 3317SOL    HW211791   7.334  14.648  13.188
 3318SOL     OW11792   2.253  11.560   6.903
 3318SOL    HW111793   2.341  11.523   6.908
 3318SOL    HW211794   2.239  11.576   6.809
 3319SOL     OW11795   2.885  14.632  12.715
 3319SOL    HW111796   2.810  14.574  12.730
 3319SOL    HW211797   2.961  14.573  12.716
 3320SOL     OW11798   1.065  11.056   6.085
 3320SOL    HW111799   1.142  11.112   6.081
 3320SOL    HW211800   1.018  11.083   6.164
 3321SOL     OW11801   3.359   6.045  11.620
 3321SOL    HW111802   3.328   6.132  11.644
 3321SOL    HW211803   3.454   6.050  11.629
 3322SOL     OW11804   2.901   5.278   5.545
 3322SOL    HW111805   2.946   5.206   5.589
 3322SOL    HW211806   2.830   5.302   5.605
 3323SOL     OW11807   0.814   9.552   3.150
 3323SOL    HW111808   0.794   9.585   3.238
 3323SOL    HW211809   0.803   9.629   3.094
 3324SOL     OW11810   6.774   3.485  14.503
 3324SOL    HW111811   6.869   3.502  14.503
 3324SOL    HW211812   6.750   3.484  14.595
 3325SOL     OW11813   1.772  13.571   6.649
 3325SOL    HW111814   1.795  13.507   6.581
 3325SOL    HW211815   1.824  13.648   6.628
 3326SOL     OW11816  11.901   1.464  10.315
 3326SOL    HW111817  11.853   1.387  10.345
 3326SOL    HW211818  11.983   1.429  10.280
 3327SOL     OW11819   1.134   9.396   7.651
 3327SOL    HW111820   1.193   9.364   7.720
 3327SOL    HW211821   1.189   9.453   7.597
 3328SOL     OW11822   1.127   6.989   0.914
 3328SOL    HW111823   1.103   6.987   0.821
 3328SOL    HW211824   1.109   6.900   0.945
 3329SOL     OW11825  12.798   0.919  11.004
 3329SOL    HW111826  12.816   0.842  10.950
 3329SOL    HW211827  12.791   0.991  10.942
 3330SOL     OW11828   8.886   3.737   7.769
 3330SOL    HW111829   8.872   3.783   7.686
 3330SOL    HW211830   8.826   3.662   7.764
 3331SOL     OW11831  10.543  12.263   7.178
 3331SOL    HW111832  10.464  12.217   7.207
 3331SOL    HW211833  10.567  12.318   7.253
 3332SOL     OW11834   1.395   4.866  11.646
 3332SOL    HW111835   1.430   4.945  11.605
 3332SOL    HW211836   1.410   4.878  11.740
 3333SOL     OW11837   2.187  11.616  10.937
 3333SOL    HW111838   2.277  11.583  10.937
 3333SOL    HW211839   2.175  11.655  10.851
 3334SOL     OW11840  12.549   5.605  10.947
 3334SOL    HW111841  12.506   5.561  11.020
 3334SOL    HW211842  12.599   5.675  10.987
 3335SOL     OW11843  12.466   5.644   9.406
 3335SOL    HW111844  12.476   5.676   9.495
 3335SOL    HW211845  12.507   5.711   9.351
 3336SOL     OW11846   2.683  12.717   1.074
 3336SOL    HW111847   2.681  12.651   1.005
 3336SOL    HW211848   2.773  12.750   1.074
 3337SOL     OW11849   2.130  13.758  13.193
 3337SOL    HW111850   2.178  13.676  13.207
 3337SOL    HW211851   2.197  13.826  13.198
 3338SOL     OW11852  10.193   3.530   1.393
 3338SOL    HW111853  10.235   3.615   1.380
 3338SOL    HW211854  10.239   3.491   1.468
 3339SOL     OW11855  12.585   9.915  14.365
 3339SOL    HW111856  12.602  10.000  14.325
 3339SOL    HW211857  12.493   9.898  14.348
 3340SOL     OW11858   1.682   7.175   8.020
 3340SOL    HW111859   1.678   7.238   7.948
 3340SOL    HW211860   1.666   7.091   7.978
 3341SOL     OW11861   1.518   5.578   8.478
 3341SOL    HW111862   1.481   5.590   8.566
 3341SOL    HW211863   1.517   5.483   8.465
 3342SOL     OW11864  11.061   1.682   4.129
 3342SOL    HW111865  11.080   1.771   4.157
 3342SOL    HW211866  11.048   1.634   4.210
 3343SOL     OW11867  12.787   9.795  11.965
 3343SOL    HW111868  12.824   9.841  11.890
 3343SOL    HW211869  12.693   9.799  11.952
 3344SOL     OW11870   7.177   4.524   0.583
 3344SOL    HW111871   7.256   4.545   0.532
 3344SOL    HW211872   7.178   4.586   0.656
 3345SOL     OW11873  13.531   6.576   9.629
 3345SOL    HW111874  13.452   6.620   9.659
 3345SOL    HW211875  13.592   6.585   9.702
 3346SOL     OW11876  14.275  14.645   8.388
 3346SOL    HW111877  14.186  14.679   8.381
 3346SOL    HW211878  14.276  14.568   8.333
 3347SOL     OW11879   0.298   7.902   7.154
 3347SOL    HW111880   0.388   7.923   7.177
 3347SOL    HW211881   0.261   7.864   7.233
 3348SOL     OW11882   3.301   6.128  10.256
 3348SOL    HW111883   3.379   6.100  10.304
 3348SOL    HW211884   3.287   6.059  10.191
 3349SOL     OW11885  12.322   5.110   1.571
 3349SOL    HW111886  12.261   5.103   1.498
 3349SOL    HW211887  12.282   5.173   1.631
 3350SOL     OW11888   3.980  12.488   0.694
 3350SOL    HW111889   4.027  12.413   0.658
 3350SOL    HW211890   4.024  12.506   0.777
 3351SOL     OW11891   9.740   4.956  12.951
 3351SOL    HW111892   9.711   4.947  13.041
 3351SOL    HW211893   9.788   5.039  12.949
 3352SOL     OW11894   9.649  14.745   0.006
 3352SOL    HW111895   9.572  14.730  14.832
 3352SOL    HW211896   9.692  14.820  14.844
 3353SOL     OW11897  13.868   9.272   2.040
 3353SOL    HW111898  13.926   9.340   2.073
 3353SOL    HW211899  13.925   9.212   1.993
 3354SOL     OW11900   4.554   2.141   6.538
 3354SOL    HW111901   4.533   2.206   6.470
 3354SOL    HW211902   4.634   2.174   6.578
 3355SOL     OW11903  11.632  10.850  10.715
 3355SOL    HW111904  11.579  10.809  10.783
 3355SOL    HW211905  11.591  10.935  10.700
 3356SOL     OW11906  14.225  10.129  14.452
 3356SOL    HW111907  14.185  10.050  14.488
 3356SOL    HW211908  14.318  10.122  14.476
 3357SOL     OW11909   6.392   6.554  14.374
 3357SOL    HW111910   6.439   6.583  14.296
 3357SOL    HW211911   6.406   6.624  14.438
 3358SOL     OW11912   7.418   1.272   7.351
 3358SOL    HW111913   7.422   1.181   7.319
 3358SOL    HW211914   7.325   1.294   7.344
 3359SOL     OW11915   7.884   9.079   9.407
 3359SOL    HW111916   7.921   8.994   9.384
 3359SOL    HW211917   7.825   9.061   9.480
 3360SOL     OW11918   3.753  10.641   5.796
 3360SOL    HW111919   3.786  10.585   5.726
 3360SOL    HW211920   3.658  10.632   5.790
 3361SOL     OW11921   6.701   4.987   2.813
 3361SOL    HW111922   6.751   5.040   2.875
 3361SOL    HW211923   6.735   5.013   2.727
 3362SOL     OW11924  10.509  13.459  14.147
 3362SOL    HW111925  10.457  13.489  14.072
 3362SOL    HW211926  10.449  13.404  14.197
 3363SOL     OW11927  12.839   3.701  11.485
 3363SOL    HW111928  12.877   3.748  11.411
 3363SOL    HW211929  12.745   3.714  11.478
 3364SOL     OW11930  13.414   6.605  12.351
 3364SOL    HW111931  13.500   6.630  12.317
 3364SOL    HW211932  13.354   6.670  12.315
 3365SOL     OW11933   3.572   7.721   5.738
 3365SOL    HW111934   3.533   7.651   5.791
 3365SOL    HW211935   3.638   7.760   5.796
 3366SOL     OW11936   3.184   4.976   2.496
 3366SOL    HW111937   3.257   4.969   2.434
 3366SOL    HW211938   3.226   5.003   2.578
 3367SOL     OW11939   5.464   8.931   7.917
 3367SOL    HW111940   5.557   8.954   7.909
 3367SOL    HW211941   5.439   8.903   7.829
 3368SOL     OW11942   7.388  10.440   3.887
 3368SOL    HW111943   7.334  10.432   3.808
 3368SOL    HW211944   7.379  10.355   3.930
 3369SOL     OW11945   7.620   2.523   7.621
 3369SOL    HW111946   7.653   2.489   7.704
 3369SOL    HW211947   7.571   2.602   7.645
 3370SOL     OW11948  11.956   4.450  14.339
 3370SOL    HW111949  12.005   4.450  14.257
 3370SOL    HW211950  11.882   4.508  14.324
 3371SOL     OW11951   9.280   7.587  11.248
 3371SOL    HW111952   9.311   7.667  11.206
 3371SOL    HW211953   9.353   7.559  11.303
 3372SOL     OW11954   6.936   0.494   6.241
 3372SOL    HW111955   6.969   0.430   6.304
 3372SOL    HW211956   6.967   0.578   6.274
 3373SOL     OW11957   5.377  10.056   7.504
 3373SOL    HW111958   5.455  10.021   7.548
 3373SOL    HW211959   5.400  10.056   7.411
 3374SOL     OW11960   2.092   5.412   1.797
 3374SOL    HW111961   2.171   5.454   1.832
 3374SOL    HW211962   2.117   5.383   1.709
 3375SOL     OW11963  14.814   1.374   7.534
 3375SOL    HW111964  14.816   1.337   7.446
 3375SOL    HW211965  14.806   1.299   7.593
 3376SOL     OW11966   8.537  10.375   0.079
 3376SOL    HW111967   8.509  10.320   0.152
 3376SOL    HW211968   8.601  10.322   0.031
 3377SOL     OW11969   5.755   2.798   5.146
 3377SOL    HW111970   5.741   2.882   5.102
 3377SOL    HW211971   5.736   2.815   5.238
 3378SOL     OW11972   2.397   9.119   1.306
 3378SOL    HW111973   2.479   9.097   1.263
 3378SOL    HW211974   2.331   9.116   1.236
 3379SOL     OW11975   0.604   7.460  12.596
 3379SOL    HW111976   0.637   7.400  12.529
 3379SOL    HW211977   0.637   7.546  12.570
 3380SOL     OW11978   1.701   6.494  12.702
 3380SOL    HW111979   1.768   6.483  12.634
 3380SOL    HW211980   1.726   6.432  12.771
 3381SOL     OW11981   8.416   5.741  14.035
 3381SOL    HW111982   8.359   5.671  14.066
 3381SOL    HW211983   8.504   5.704  14.042
 3382SOL     OW11984   0.698   4.881  10.141
 3382SOL    HW111985   0.727   4.842  10.059
 3382SOL    HW211986   0.670   4.969  10.118
 3383SOL     OW11987   4.212  12.152   5.560
 3383SOL    HW111988   4.306  12.148   5.544
 3383SOL    HW211989   4.172  12.149   5.473
 3384SOL     OW11990   1.215   8.997   7.942
 3384SOL    HW111991   1.187   9.008   8.033
 3384SOL    HW211992   1.133   8.988   7.893
 3385SOL     OW11993   2.394  13.803   1.483
 3385SOL    HW111994   2.401  13.892   1.516
 3385SOL    HW211995   2.400  13.748   1.562
 3386SOL     OW11996   3.739   0.360  12.858
 3386SOL    HW111997   3.757   0.449  12.889
 3386SOL    HW211998   3.645   0.359  12.839
 3387SOL     OW11999   2.104  11.228  12.808
 3387SOL    HW112000   2.182  11.255  12.759
 3387SOL    HW212001   2.053  11.178  12.744
 3388SOL     OW12002   1.925  12.976  14.874
 3388SOL    HW112003   1.965  12.894  14.845
 3388SOL    HW212004   1.851  12.989  14.814
 3389SOL     OW12005   3.923   1.762   3.345
 3389SOL    HW112006   3.849   1.750   3.406
 3389SOL    HW212007   3.994   1.794   3.401
 3390SOL     OW12008   2.143   6.342   0.382
 3390SOL    HW112009   2.215   6.296   0.338
 3390SOL    HW212010   2.141   6.428   0.340
 3391SOL     OW12011  13.118  13.186   4.662
 3391SOL    HW112012  13.100  13.275   4.693
 3391SOL    HW212013  13.086  13.129   4.732
 3392SOL     OW12014  14.648   3.559   7.513
 3392SOL    HW112015  14.687   3.633   7.560
 3392SOL    HW212016  14.555   3.578   7.510
 3393SOL     OW12017  12.193   6.630  11.207
 3393SOL    HW112018  12.201   6.561  11.273
 3393SOL    HW212019  12.168   6.584  11.127
 3394SOL     OW12020  12.009   1.980   1.027
 3394SOL    HW112021  12.012   1.895   0.984
 3394SOL    HW212022  11.917   2.007   1.019
 3395SOL     OW12023   2.824  13.394   4.874
 3395SOL    HW112024   2.775  13.314   4.893
 3395SOL    HW212025   2.907  13.364   4.839
 3396SOL     OW12026   8.250   5.705   1.054
 3396SOL    HW112027   8.192   5.636   1.024
 3396SOL    HW212028   8.198   5.785   1.047
 3397SOL     OW12029   1.613  10.715   6.879
 3397SOL    HW112030   1.546  10.647   6.878
 3397SOL    HW212031   1.563  10.797   6.882
 3398SOL     OW12032   7.065   2.085  13.867
 3398SOL    HW112033   7.149   2.098  13.823
 3398SOL    HW212034   7.083   2.103  13.959
 3399SOL     OW12035   3.375   2.990   0.190
 3399SOL    HW112036   3.386   3.083   0.208
 3399SOL    HW212037   3.431   2.946   0.254
 3400SOL     OW12038   0.538   2.722   6.040
 3400SOL    HW112039   0.492   2.641   6.017
 3400SOL    HW212040   0.575   2.753   5.958
 3401SOL     OW12041  10.237   8.315   2.064
 3401SOL    HW112042  10.317   8.354   2.099
 3401SOL    HW212043  10.230   8.231   2.109
 3402SOL     OW12044   5.332   5.416   2.495
 3402SOL    HW112045   5.316   5.323   2.510
 3402SOL    HW212046   5.288   5.460   2.567
 3403SOL     OW12047   6.323  12.237  13.890
 3403SOL    HW112048   6.338  12.243  13.984
 3403SOL    HW212049   6.322  12.143  13.872
 3404SOL     OW12050  11.580   6.201   9.233
 3404SOL    HW112051  11.617   6.178   9.317
 3404SOL    HW212052  11.655   6.227   9.179
 3405SOL     OW12053   8.887   3.620  12.228
 3405SOL    HW112054   8.861   3.683  12.295
 3405SOL    HW212055   8.910   3.675  12.153
 3406SOL     OW12056   2.966   4.319   2.425
 3406SOL    HW112057   2.896   4.341   2.363
 3406SOL    HW212058   3.011   4.402   2.440
 3407SOL     OW12059   5.206  14.265   2.746
 3407SOL    HW112060   5.147  14.281   2.820
 3407SOL    HW212061   5.149  14.268   2.669
 3408SOL     OW12062   0.429   1.933   0.802
 3408SOL    HW112063   0.504   1.936   0.861
 3408SOL    HW212064   0.467   1.913   0.716
 3409SOL     OW12065  11.548   5.371   3.280
 3409SOL    HW112066  11.528   5.296   3.224
 3409SOL    HW212067  11.617   5.340   3.339
 3410SOL     OW12068  12.282   8.226   1.069
 3410SOL    HW112069  12.216   8.251   1.134
 3410SOL    HW212070  12.314   8.310   1.035
 3411SOL     OW12071   1.217   6.319   3.940
 3411SOL    HW112072   1.190   6.300   3.850
 3411SOL    HW212073   1.148   6.280   3.994
 3412SOL     OW12074   2.838  10.274   1.506
 3412SOL    HW112075   2.929  10.265   1.478
 3412SOL    HW212076   2.831  10.364   1.536
 3413SOL     OW12077   7.849  13.523   6.241
 3413SOL    HW112078   7.932  13.534   6.195
 3413SOL    HW212079   7.871  13.477   6.322
 3414SOL     OW12080   5.462  10.006   2.931
 3414SOL    HW112081   5.406   9.929   2.924
 3414SOL    HW212082   5.487  10.009   3.023
 3415SOL     OW12083   6.778   2.003  13.345
 3415SOL    HW112084   6.741   1.985  13.431
 3415SOL    HW212085   6.849   2.066  13.362
 3416SOL     OW12086   7.296   5.958   4.284
 3416SOL    HW112087   7.328   6.044   4.259
 3416SOL    HW212088   7.299   5.958   4.380
 3417SOL     OW12089  10.842   9.794  10.321
 3417SOL    HW112090  10.823   9.700  10.325
 3417SOL    HW212091  10.875   9.808  10.233
 3418SOL     OW12092  12.457   1.320   2.685
 3418SOL    HW112093  12.512   1.248   2.715
 3418SOL    HW212094  12.408   1.346   2.763
 3419SOL     OW12095   5.202   5.570  11.957
 3419SOL    HW112096   5.130   5.595  11.899
 3419SOL    HW212097   5.202   5.636  12.026
 3420SOL     OW12098   2.597   4.076   6.860
 3420SOL    HW112099   2.537   4.002   6.866
 3420SOL    HW212100   2.547   4.144   6.814
 3421SOL     OW12101  10.830  13.610   9.552
 3421SOL    HW112102  10.889  13.611   9.628
 3421SOL    HW212103  10.744  13.628   9.588
 3422SOL     OW12104   6.849  13.581   9.703
 3422SOL    HW112105   6.875  13.506   9.756
 3422SOL    HW212106   6.853  13.656   9.762
 3423SOL     OW12107   0.925   5.154   9.919
 3423SOL    HW112108   0.989   5.211   9.877
 3423SOL    HW212109   0.840   5.189   9.893
 3424SOL     OW12110  10.127   3.010   8.654
 3424SOL    HW112111  10.223   3.007   8.658
 3424SOL    HW212112  10.107   3.005   8.560
 3425SOL     OW12113   7.102  11.236  13.221
 3425SOL    HW112114   7.029  11.267  13.167
 3425SOL    HW212115   7.125  11.311  13.276
 3426SOL     OW12116  11.045   0.426   4.350
 3426SOL    HW112117  11.035   0.451   4.258
 3426SOL    HW212118  11.108   0.354   4.348
 3427SOL     OW12119   5.137   7.885   0.835
 3427SOL    HW112120   5.068   7.821   0.851
 3427SOL    HW212121   5.157   7.921   0.921
 3428SOL     OW12122   4.271  12.877  10.450
 3428SOL    HW112123   4.328  12.952  10.433
 3428SOL    HW212124   4.316  12.804  10.407
 3429SOL     OW12125   9.522   4.599   7.055
 3429SOL    HW112126   9.453   4.638   7.001
 3429SOL    HW212127   9.510   4.639   7.141
 3430SOL     OW12128  12.661   8.372   2.627
 3430SOL    HW112129  12.594   8.332   2.571
 3430SOL    HW212130  12.688   8.302   2.686
 3431SOL     OW12131  14.520  11.352   2.890
 3431SOL    HW112132  14.496  11.378   2.980
 3431SOL    HW212133  14.439  11.316   2.854
 3432SOL     OW12134   8.419   5.384   4.242
 3432SOL    HW112135   8.351   5.444   4.270
 3432SOL    HW212136   8.442   5.413   4.154
 3433SOL     OW12137   9.243   5.327   8.790
 3433SOL    HW112138   9.183   5.387   8.834
 3433SOL    HW212139   9.259   5.368   8.705
 3434SOL     OW12140  13.720   0.323   6.228
 3434SOL    HW112141  13.685   0.303   6.141
 3434SOL    HW212142  13.670   0.267   6.288
 3435SOL     OW12143   1.062  13.124   6.911
 3435SOL    HW112144   1.060  13.138   7.006
 3435SOL    HW212145   0.984  13.072   6.893
 3436SOL     OW12146  12.084   6.180  11.968
 3436SOL    HW112147  12.083   6.201  12.061
 3436SOL    HW212148  12.130   6.096  11.962
 3437SOL     OW12149  11.006  11.229  13.549
 3437SOL    HW112150  11.098  11.207  13.562
 3437SOL    HW212151  10.984  11.192  13.464
 3438SOL     OW12152   9.255  13.616   2.225
 3438SOL    HW112153   9.256  13.546   2.161
 3438SOL    HW212154   9.334  13.603   2.276
 3439SOL     OW12155  11.610   4.453  11.355
 3439SOL    HW112156  11.657   4.529  11.321
 3439SOL    HW212157  11.638   4.446  11.446
 3440SOL     OW12158  10.403   4.694   8.933
 3440SOL    HW112159  10.324   4.745   8.916
 3440SOL    HW212160  10.422   4.651   8.850
 3441SOL     OW12161   7.437   7.644  10.114
 3441SOL    HW112162   7.478   7.562  10.142
 3441SOL    HW212163   7.478   7.664  10.030
 3442SOL     OW12164  10.258   0.915   3.205
 3442SOL    HW112165  10.336   0.921   3.149
 3442SOL    HW212166  10.185   0.912   3.142
 3443SOL     OW12167  14.179   5.466   6.885
 3443SOL    HW112168  14.185   5.436   6.794
 3443SOL    HW212169  14.153   5.558   6.878
 3444SOL     OW12170  10.204   7.757   0.087
 3444SOL    HW112171  10.184   7.841   0.129
 3444SOL    HW212172  10.159   7.692   0.141
 3445SOL     OW12173   3.907   8.049  14.679
 3445SOL    HW112174   3.976   8.099  14.634
 3445SOL    HW212175   3.831   8.106  14.676
 3446SOL     OW12176  14.518   7.697   8.755
 3446SOL    HW112177  14.435   7.704   8.708
 3446SOL    HW212178  14.543   7.788   8.771
 3447SOL     OW12179  14.144  11.602   7.625
 3447SOL    HW112180  14.193  11.534   7.673
 3447SOL    HW212181  14.196  11.618   7.547
 3448SOL     OW12182  13.772   3.904   3.564
 3448SOL    HW112183  13.694   3.955   3.587
 3448SOL    HW212184  13.805   3.873   3.649
 3449SOL     OW12185   4.324   6.478   5.633
 3449SOL    HW112186   4.294   6.557   5.677
 3449SOL    HW212187   4.257   6.461   5.567
 3450SOL     OW12188   6.359  13.513   5.555
 3450SOL    HW112189   6.305  13.465   5.618
 3450SOL    HW212190   6.379  13.449   5.487
 3451SOL     OW12191  10.742   1.697  11.916
 3451SOL    HW112192  10.702   1.728  11.835
 3451SOL    HW212193  10.823   1.748  11.924
 3452SOL     OW12194   9.911   7.103  12.035
 3452SOL    HW112195   9.861   7.180  12.061
 3452SOL    HW212196   9.869   7.030  12.080
 3453SOL     OW12197   0.876   1.390  14.445
 3453SOL    HW112198   0.956   1.431  14.477
 3453SOL    HW212199   0.815   1.395  14.518
 3454SOL     OW12200  10.718   6.549   3.504
 3454SOL    HW112201  10.808   6.573   3.484
 3454SOL    HW212202  10.696   6.604   3.580
 3455SOL     OW12203  11.771   7.120  10.551
 3455SOL    HW112204  11.730   7.049  10.503
 3455SOL    HW212205  11.851   7.140  10.502
 3456SOL     OW12206   4.506   7.676  14.692
 3456SOL    HW112207   4.509   7.703  14.784
 3456SOL    HW212208   4.436   7.611  14.689
 3457SOL     OW12209   3.477   2.235  12.022
 3457SOL    HW112210   3.439   2.148  12.032
 3457SOL    HW212211   3.413   2.294  12.061
 3458SOL     OW12212  12.785   7.051   6.464
 3458SOL    HW112213  12.737   6.983   6.509
 3458SOL    HW212214  12.868   7.058   6.511
 3459SOL     OW12215   9.572   5.387   2.503
 3459SOL    HW112216   9.507   5.419   2.566
 3459SOL    HW212217   9.569   5.450   2.431
 3460SOL     OW12218   5.422   7.404   2.012
 3460SOL    HW112219   5.430   7.490   2.052
 3460SOL    HW212220   5.507   7.363   2.026
 3461SOL     OW12221   0.531  10.460   9.956
 3461SOL    HW112222   0.459  10.488   9.900
 3461SOL    HW212223   0.543  10.367   9.936
 3462SOL     OW12224   3.914   0.465   4.952
 3462SOL    HW112225   3.915   0.480   5.046
 3462SOL    HW212226   3.989   0.514   4.918
 3463SOL     OW12227   7.350   0.551   0.464
 3463SOL    HW112228   7.406   0.488   0.419
 3463SOL    HW212229   7.395   0.568   0.547
 3464SOL     OW12230  14.607   6.319   3.577
 3464SOL    HW112231  14.546   6.336   3.506
 3464SOL    HW212232  14.645   6.405   3.598
 3465SOL     OW12233  12.644  12.177  12.468
 3465SOL    HW112234  12.661  12.121  12.544
 3465SOL    HW212235  12.656  12.119  12.392
 3466SOL     OW12236   8.225   4.399   9.980
 3466SOL    HW112237   8.174   4.473   9.947
 3466SOL    HW212238   8.199   4.390  10.071
 3467SOL     OW12239   5.652  11.937   7.965
 3467SOL    HW112240   5.739  11.902   7.983
 3467SOL    HW212241   5.624  11.979   8.046
 3468SOL     OW12242   8.350  14.845   5.100
 3468SOL    HW112243   8.443  14.865   5.107
 3468SOL    HW212244   8.314   0.033   5.042
 3469SOL     OW12245  10.316   7.685   8.872
 3469SOL    HW112246  10.231   7.717   8.841
 3469SOL    HW212247  10.365   7.665   8.792
 3470SOL     OW12248  11.310  13.187   4.660
 3470SOL    HW112249  11.372  13.158   4.593
 3470SOL    HW212250  11.359  13.252   4.710
 3471SOL     OW12251  12.757   7.661   2.002
 3471SOL    HW112252  12.806   7.691   1.925
 3471SOL    HW212253  12.667   7.689   1.986
 3472SOL     OW12254   3.176  11.893   7.644
 3472SOL    HW112255   3.125  11.929   7.717
 3472SOL    HW212256   3.265  11.923   7.659
 3473SOL     OW12257  11.280   8.663   9.905
 3473SOL    HW112258  11.306   8.573   9.923
 3473SOL    HW212259  11.362   8.710   9.888
 3474SOL     OW12260  14.275  12.367   0.831
 3474SOL    HW112261  14.357  12.318   0.836
 3474SOL    HW212262  14.233  12.352   0.916
 3475SOL     OW12263  14.485  13.288   9.024
 3475SOL    HW112264  14.523  13.200   9.020
 3475SOL    HW212265  14.489  13.319   8.933
 3476SOL     OW12266   0.335  14.587   9.445
 3476SOL    HW112267   0.346  14.668   9.396
 3476SOL    HW212268   0.250  14.553   9.417
 3477SOL     OW12269   0.528  10.456   5.694
 3477SOL    HW112270   0.510  10.543   5.728
 3477SOL    HW212271   0.579  10.471   5.614
 3478SOL     OW12272   4.600   7.893   6.609
 3478SOL    HW112273   4.628   7.982   6.589
 3478SOL    HW212274   4.506   7.892   6.589
 3479SOL     OW12275   2.899   1.248   5.221
 3479SOL    HW112276   2.879   1.281   5.134
 3479SOL    HW212277   2.823   1.270   5.274
 3480SOL     OW12278   3.254   3.619   2.117
 3480SOL    HW112279   3.327   3.604   2.057
 3480SOL    HW212280   3.273   3.703   2.158
 3481SOL     OW12281   4.307  10.411   7.897
 3481SOL    HW112282   4.402  10.405   7.886
 3481SOL    HW212283   4.271  10.372   7.817
 3482SOL     OW12284   9.938   9.256  14.859
 3482SOL    HW112285   9.882   9.265   0.056
 3482SOL    HW212286   9.891   9.302  14.790
 3483SOL     OW12287   1.027  11.264  13.259
 3483SOL    HW112288   1.024  11.260  13.163
 3483SOL    HW212289   0.977  11.343  13.280
 3484SOL     OW12290   5.349   4.001   4.373
 3484SOL    HW112291   5.256   4.012   4.392
 3484SOL    HW212292   5.393   4.021   4.455
 3485SOL     OW12293  12.186  12.254  13.944
 3485SOL    HW112294  12.166  12.180  14.002
 3485SOL    HW212295  12.108  12.262  13.888
 3486SOL     OW12296  14.532  11.461   9.998
 3486SOL    HW112297  14.557  11.420  10.081
 3486SOL    HW212298  14.452  11.414   9.972
 3487SOL     OW12299   9.563   2.460  10.656
 3487SOL    HW112300   9.561   2.440  10.562
 3487SOL    HW212301   9.503   2.534  10.667
 3488SOL     OW12302   9.997   5.241   6.476
 3488SOL    HW112303  10.029   5.157   6.509
 3488SOL    HW212304   9.926   5.218   6.417
 3489SOL     OW12305   1.804   1.124   1.168
 3489SOL    HW112306   1.881   1.077   1.137
 3489SOL    HW212307   1.839   1.200   1.214
 3490SOL     OW12308   6.149   2.075   6.482
 3490SOL    HW112309   6.107   2.159   6.466
 3490SOL    HW212310   6.205   2.060   6.406
 3491SOL     OW12311   1.954   6.056   3.474
 3491SOL    HW112312   1.886   6.025   3.414
 3491SOL    HW212313   2.006   5.978   3.494
 3492SOL     OW12314   0.055   0.617   7.616
 3492SOL    HW112315   0.062   0.572   7.700
 3492SOL    HW212316   0.135   0.594   7.568
 3493SOL     OW12317   0.457   9.818  11.770
 3493SOL    HW112318   0.491   9.788  11.854
 3493SOL    HW212319   0.530   9.808  11.709
 3494SOL     OW12320   8.737   2.799   4.370
 3494SOL    HW112321   8.696   2.812   4.456
 3494SOL    HW212322   8.703   2.870   4.316
 3495SOL     OW12323  13.429  10.175   5.853
 3495SOL    HW112324  13.512  10.213   5.825
 3495SOL    HW212325  13.425  10.195   5.947
 3496SOL     OW12326   7.134   9.420   7.743
 3496SOL    HW112327   7.121   9.453   7.831
 3496SOL    HW212328   7.204   9.474   7.706
 3497SOL     OW12329  11.083  13.205   9.587
 3497SOL    HW112330  11.008  13.236   9.535
 3497SOL    HW212331  11.106  13.121   9.548
 3498SOL     OW12332   6.109  11.954  14.463
 3498SOL    HW112333   6.044  11.901  14.510
 3498SOL    HW212334   6.159  11.889  14.412
 3499SOL     OW12335   1.353  13.462   3.473
 3499SOL    HW112336   1.355  13.513   3.554
 3499SOL    HW212337   1.371  13.526   3.404
 3500SOL     OW12338   5.901   0.400   9.509
 3500SOL    HW112339   5.827   0.420   9.567
 3500SOL    HW212340   5.910   0.478   9.454
 3501SOL     OW12341   6.442   6.559   4.946
 3501SOL    HW112342   6.463   6.622   5.014
 3501SOL    HW212343   6.354   6.582   4.917
 3502SOL     OW12344   5.596   8.743  10.789
 3502SOL    HW112345   5.507   8.719  10.816
 3502SOL    HW212346   5.583   8.810  10.722
 3503SOL     OW12347   9.025  14.533   6.009
 3503SOL    HW112348   9.026  14.609   5.950
 3503SOL    HW212349   9.004  14.570   6.095
 3504SOL     OW12350  11.101  12.044  13.544
 3504SOL    HW112351  11.177  12.004  13.588
 3504SOL    HW212352  11.139  12.116  13.493
 3505SOL     OW12353   9.107   8.214   5.513
 3505SOL    HW112354   9.140   8.130   5.544
 3505SOL    HW212355   9.012   8.208   5.521
 3506SOL     OW12356   2.652  14.145  11.872
 3506SOL    HW112357   2.587  14.085  11.837
 3506SOL    HW212358   2.609  14.185  11.947
 3507SOL     OW12359  11.292   3.853  14.464
 3507SOL    HW112360  11.222   3.918  14.465
 3507SOL    HW212361  11.372   3.904  14.474
 3508SOL     OW12362  11.863  10.435   3.888
 3508SOL    HW112363  11.803  10.505   3.862
 3508SOL    HW212364  11.826  10.401   3.970
 3509SOL     OW12365   2.456  14.146  12.442
 3509SOL    HW112366   2.395  14.119  12.511
 3509SOL    HW212367   2.418  14.226  12.407
 3510SOL     OW12368  12.935  10.901   8.511
 3510SOL    HW112369  12.903  10.865   8.428
 3510SOL    HW212370  12.880  10.979   8.526
 3511SOL     OW12371   5.553   5.849   9.603
 3511SOL    HW112372   5.459   5.865   9.604
 3511SOL    HW212373   5.572   5.822   9.513
 3512SOL     OW12374  10.541   9.528   6.436
 3512SOL    HW112375  10.635   9.519   6.453
 3512SOL    HW212376  10.505   9.556   6.520
 3513SOL     OW12377   0.710   5.537  13.114
 3513SOL    HW112378   0.799   5.506  13.132
 3513SOL    HW212379   0.655   5.460  13.126
 3514SOL     OW12380  13.699  10.703   9.256
 3514SOL    HW112381  13.640  10.779   9.253
 3514SOL    HW212382  13.714  10.688   9.350
 3515SOL     OW12383   8.223   5.420   3.988
 3515SOL    HW112384   8.180   5.503   4.007
 3515SOL    HW212385   8.155   5.354   4.003
 3516SOL     OW12386   1.846  11.584   7.335
 3516SOL    HW112387   1.858  11.652   7.268
 3516SOL    HW212388   1.832  11.632   7.416
 3517SOL     OW12389  13.282  13.029  11.539
 3517SOL    HW112390  13.270  13.106  11.484
 3517SOL    HW212391  13.235  13.049  11.620
 3518SOL     OW12392   5.179   4.018  14.490
 3518SOL    HW112393   5.237   3.982  14.558
 3518SOL    HW212394   5.187   3.956  14.417
 3519SOL     OW12395   7.864   2.554   6.959
 3519SOL    HW112396   7.902   2.536   7.045
 3519SOL    HW212397   7.918   2.504   6.898
 3520SOL     OW12398  11.173   8.914   7.488
 3520SOL    HW112399  11.259   8.886   7.520
 3520SOL    HW212400  11.178   8.900   7.393
 3521SOL     OW12401   5.107   4.294   2.040
 3521SOL    HW112402   5.042   4.229   2.011
 3521SOL    HW212403   5.191   4.256   2.014
 3522SOL     OW12404   5.420  13.574   4.398
 3522SOL    HW112405   5.359  13.527   4.341
 3522SOL    HW212406   5.506  13.556   4.361
 3523SOL     OW12407   6.079   0.185  10.814
 3523SOL    HW112408   6.087   0.151  10.724
 3523SOL    HW212409   6.128   0.123  10.867
 3524SOL     OW12410   6.662   1.307   8.412
 3524SOL    HW112411   6.640   1.386   8.363
 3524SOL    HW212412   6.621   1.319   8.497
 3525SOL     OW12413  11.818   9.504  13.387
 3525SOL    HW112414  11.870   9.575  13.349
 3525SOL    HW212415  11.751   9.486  13.322
 3526SOL     OW12416   2.878   3.148  13.985
 3526SOL    HW112417   2.804   3.143  14.045
 3526SOL    HW212418   2.954   3.160  14.042
 3527SOL     OW12419  11.532   3.145  11.399
 3527SOL    HW112420  11.542   3.237  11.425
 3527SOL    HW212421  11.619   3.108  11.408
 3528SOL     OW12422   7.022  13.416  12.437
 3528SOL    HW112423   7.018  13.325  12.407
 3528SOL    HW212424   7.065  13.463  12.365
 3529SOL     OW12425  11.000   4.856   2.412
 3529SOL    HW112426  10.920   4.870   2.461
 3529SOL    HW212427  11.039   4.943   2.402
 3530SOL     OW12428   8.865   2.230   4.842
 3530SOL    HW112429   8.798   2.241   4.909
 3530SOL    HW212430   8.817   2.236   4.759
 3531SOL     OW12431  14.424   8.759   3.256
 3531SOL    HW112432  14.417   8.717   3.170
 3531SOL    HW212433  14.516   8.782   3.264
 3532SOL     OW12434   2.586   2.902   6.404
 3532SOL    HW112435   2.491   2.905   6.388
 3532SOL    HW212436   2.597   2.947   6.488
 3533SOL     OW12437   0.052   6.750  12.391
 3533SOL    HW112438   0.133   6.709  12.421
 3533SOL    HW212439   0.015   6.688  12.328
 3534SOL     OW12440   9.989  10.671  12.658
 3534SOL    HW112441   9.927  10.669  12.731
 3534SOL    HW212442  10.028  10.758  12.661
 3535SOL     OW12443  12.462  11.408   2.160
 3535SOL    HW112444  12.457  11.315   2.182
 3535SOL    HW212445  12.373  11.431   2.135
 3536SOL     OW12446  10.759  12.026   4.758
 3536SOL    HW112447  10.846  12.059   4.780
 3536SOL    HW212448  10.739  11.962   4.828
 3537SOL     OW12449  10.266   6.442   4.126
 3537SOL    HW112450  10.303   6.527   4.150
 3537SOL    HW212451  10.329   6.405   4.064
 3538SOL     OW12452   4.245   6.624  12.127
 3538SOL    HW112453   4.280   6.535  12.126
 3538SOL    HW212454   4.256   6.653  12.218
 3539SOL     OW12455  12.301  12.485   7.321
 3539SOL    HW112456  12.283  12.568   7.276
 3539SOL    HW212457  12.333  12.511   7.408
 3540SOL     OW12458   7.590   2.557  14.338
 3540SOL    HW112459   7.495   2.564  14.332
 3540SOL    HW212460   7.611   2.579  14.429
 3541SOL     OW12461  13.430   0.925   8.192
 3541SOL    HW112462  13.458   1.008   8.231
 3541SOL    HW212463  13.455   0.932   8.100
 3542SOL     OW12464   9.007   4.622  10.401
 3542SOL    HW112465   9.009   4.606  10.307
 3542SOL    HW212466   9.077   4.685  10.416
 3543SOL     OW12467   2.325   0.177   1.291
 3543SOL    HW112468   2.270   0.229   1.233
 3543SOL    HW212469   2.273   0.169   1.371
 3544SOL     OW12470   5.934   3.941   8.455
 3544SOL    HW112471   5.935   3.882   8.530
 3544SOL    HW212472   6.004   3.908   8.398
 3545SOL     OW12473   5.078  12.282   6.798
 3545SOL    HW112474   5.077  12.377   6.783
 3545SOL    HW212475   5.167  12.255   6.776
 3546SOL     OW12476   4.629   1.454   9.243
 3546SOL    HW112477   4.622   1.435   9.336
 3546SOL    HW212478   4.624   1.368   9.201
 3547SOL     OW12479   4.789   7.454   2.995
 3547SOL    HW112480   4.721   7.449   2.927
 3547SOL    HW212481   4.851   7.385   2.973
 3548SOL     OW12482   5.906   9.193  12.833
 3548SOL    HW112483   5.961   9.242  12.772
 3548SOL    HW212484   5.816   9.222  12.813
 3549SOL     OW12485   5.213   2.266  10.780
 3549SOL    HW112486   5.187   2.295  10.692
 3549SOL    HW212487   5.192   2.339  10.837
 3550SOL     OW12488  13.153   9.165   1.934
 3550SOL    HW112489  13.223   9.123   1.884
 3550SOL    HW212490  13.175   9.147   2.025
 3551SOL     OW12491   5.459   4.223  11.101
 3551SOL    HW112492   5.506   4.149  11.064
 3551SOL    HW212493   5.507   4.300  11.070
 3552SOL     OW12494   9.001   6.457   9.598
 3552SOL    HW112495   8.994   6.544   9.636
 3552SOL    HW212496   8.923   6.411   9.630
 3553SOL     OW12497   7.236   9.538  11.784
 3553SOL    HW112498   7.226   9.470  11.718
 3553SOL    HW212499   7.149   9.577  11.792
 3554SOL     OW12500  10.003   7.170  13.257
 3554SOL    HW112501   9.983   7.262  13.274
 3554SOL    HW212502   9.932   7.140  13.199
 3555SOL     OW12503   9.763   3.303   8.675
 3555SOL    HW112504   9.790   3.274   8.588
 3555SOL    HW212505   9.681   3.256   8.691
 3556SOL     OW12506  14.163  10.647   3.658
 3556SOL    HW112507  14.190  10.682   3.743
 3556SOL    HW212508  14.091  10.704   3.631
 3557SOL     OW12509   8.397   5.249   4.906
 3557SOL    HW112510   8.456   5.248   4.981
 3557SOL    HW212511   8.310   5.259   4.945
 3558SOL     OW12512   4.275  14.130   7.740
 3558SOL    HW112513   4.192  14.097   7.775
 3558SOL    HW212514   4.250  14.203   7.685
 3559SOL     OW12515   2.043   4.397   5.228
 3559SOL    HW112516   1.988   4.319   5.221
 3559SOL    HW212517   2.132   4.364   5.216
 3560SOL     OW12518   4.691   9.929  11.395
 3560SOL    HW112519   4.759   9.900  11.455
 3560SOL    HW212520   4.705  10.023  11.387
 3561SOL     OW12521   4.345   9.943  12.725
 3561SOL    HW112522   4.402   9.977  12.794
 3561SOL    HW212523   4.353   9.848  12.730
 3562SOL     OW12524   4.885   3.487   5.827
 3562SOL    HW112525   4.850   3.466   5.913
 3562SOL    HW212526   4.958   3.547   5.844
 3563SOL     OW12527   1.938   1.924  12.338
 3563SOL    HW112528   1.914   2.013  12.364
 3563SOL    HW212529   1.963   1.932  12.246
 3564SOL     OW12530  11.753  11.497   7.475
 3564SOL    HW112531  11.746  11.561   7.404
 3564SOL    HW212532  11.772  11.415   7.431
 3565SOL     OW12533  10.883   6.400   6.550
 3565SOL    HW112534  10.965   6.358   6.578
 3565SOL    HW212535  10.823   6.385   6.623
 3566SOL     OW12536  13.676  10.584   8.723
 3566SOL    HW112537  13.588  10.552   8.705
 3566SOL    HW212538  13.734  10.517   8.687
 3567SOL     OW12539   7.097   9.413   1.828
 3567SOL    HW112540   7.028   9.478   1.840
 3567SOL    HW212541   7.175   9.453   1.865
 3568SOL     OW12542  12.794   7.445   5.751
 3568SOL    HW112543  12.771   7.537   5.760
 3568SOL    HW212544  12.721   7.398   5.791
 3569SOL     OW12545  13.155  12.933  12.037
 3569SOL    HW112546  13.067  12.970  12.047
 3569SOL    HW212547  13.207  12.976  12.105
 3570SOL     OW12548  12.490  14.516   5.950
 3570SOL    HW112549  12.518  14.487   5.863
 3570SOL    HW212550  12.556  14.580   5.977
 3571SOL     OW12551   2.790   3.531   8.921
 3571SOL    HW112552   2.866   3.498   8.969
 3571SOL    HW212553   2.795   3.626   8.928
 3572SOL     OW12554  10.708  10.838   2.078
 3572SOL    HW112555  10.627  10.886   2.093
 3572SOL    HW212556  10.681  10.746   2.070
 3573SOL     OW12557   7.864   4.357   5.060
 3573SOL    HW112558   7.812   4.317   4.991
 3573SOL    HW212559   7.920   4.421   5.014
 3574SOL     OW12560  11.759   5.183   7.684
 3574SOL    HW112561  11.703   5.253   7.650
 3574SOL    HW212562  11.725   5.104   7.642
 3575SOL     OW12563   5.949   8.697   2.582
 3575SOL    HW112564   5.973   8.616   2.536
 3575SOL    HW212565   5.867   8.724   2.540
 3576SOL     OW12566  11.423   9.946   2.697
 3576SOL    HW112567  11.351  10.002   2.726
 3576SOL    HW212568  11.400   9.922   2.607
 3577SOL     OW12569  12.799  10.545  12.380
 3577SOL    HW112570  12.885  10.522  12.346
 3577SOL    HW212571  12.752  10.580  12.304
 3578SOL     OW12572   3.786  10.299   4.621
 3578SOL    HW112573   3.852  10.366   4.607
 3578SOL    HW212574   3.711  10.328   4.568
 3579SOL     OW12575   1.609  10.724  10.162
 3579SOL    HW112576   1.603  10.777  10.082
 3579SOL    HW212577   1.518  10.706  10.186
 3580SOL     OW12578   0.488   4.313  14.702
 3580SOL    HW112579   0.419   4.370  14.669
 3580SOL    HW212580   0.510   4.256  14.628
 3581SOL     OW12581   1.720   9.917   0.712
 3581SOL    HW112582   1.807   9.935   0.676
 3581SOL    HW212583   1.691   9.838   0.666
 3582SOL     OW12584   1.979  12.521   4.850
 3582SOL    HW112585   2.026  12.497   4.930
 3582SOL    HW212586   2.044  12.510   4.780
 3583SOL     OW12587  11.925  12.164   9.879
 3583SOL    HW112588  11.954  12.095   9.940
 3583SOL    HW212589  11.973  12.242   9.907
 3584SOL     OW12590  12.837   9.445   8.444
 3584SOL    HW112591  12.773   9.410   8.507
 3584SOL    HW212592  12.837   9.539   8.461
 3585SOL     OW12593   5.263  11.175   5.789
 3585SOL    HW112594   5.233  11.139   5.872
 3585SOL    HW212595   5.298  11.261   5.811
 3586SOL     OW12596  11.994  14.539  11.025
 3586SOL    HW112597  12.088  14.519  11.029
 3586SOL    HW212598  11.960  14.484  10.955
 3587SOL     OW12599   7.841  11.542   3.980
 3587SOL    HW112600   7.848  11.547   3.884
 3587SOL    HW212601   7.804  11.626   4.006
 3588SOL     OW12602   5.522   2.938   6.152
 3588SOL    HW112603   5.437   2.898   6.172
 3588SOL    HW212604   5.586   2.869   6.169
 3589SOL     OW12605  12.494   2.857  13.558
 3589SOL    HW112606  12.548   2.897  13.490
 3589SOL    HW212607  12.549   2.788  13.595
 3590SOL     OW12608  11.088   5.573  10.646
 3590SOL    HW112609  11.168   5.625  10.640
 3590SOL    HW212610  11.115   5.494  10.694
 3591SOL     OW12611   5.702  10.948   9.146
 3591SOL    HW112612   5.750  10.872   9.113
 3591SOL    HW212613   5.709  10.941   9.241
 3592SOL     OW12614   4.184   8.018   7.390
 3592SOL    HW112615   4.135   8.098   7.376
 3592SOL    HW212616   4.234   8.005   7.309
 3593SOL     OW12617  11.997   4.579   3.773
 3593SOL    HW112618  12.083   4.604   3.809
 3593SOL    HW212619  11.940   4.652   3.796
 3594SOL     OW12620   9.208  12.363  10.662
 3594SOL    HW112621   9.154  12.336  10.736
 3594SOL    HW212622   9.146  12.392  10.596
 3595SOL     OW12623   7.754  12.644   2.421
 3595SOL    HW112624   7.800  12.564   2.396
 3595SOL    HW212625   7.785  12.663   2.509
 3596SOL     OW12626   3.879  11.320   3.496
 3596SOL    HW112627   3.930  11.332   3.576
 3596SOL    HW212628   3.915  11.242   3.454
 3597SOL     OW12629   4.787  12.349  13.603
 3597SOL    HW112630   4.853  12.386  13.545
 3597SOL    HW212631   4.707  12.399  13.583
 3598SOL     OW12632   3.421  11.926   0.307
 3598SOL    HW112633   3.412  11.869   0.230
 3598SOL    HW212634   3.410  11.867   0.382
 3599SOL     OW12635  13.659  12.311   4.718
 3599SOL    HW112636  13.742  12.263   4.710
 3599SOL    HW212637  13.612  12.292   4.637
 3600SOL     OW12638  11.069  12.885  13.007
 3600SOL    HW112639  10.982  12.895  12.970
 3600SOL    HW212640  11.093  12.794  12.989
 3601SOL     OW12641  12.453  12.315  11.270
 3601SOL    HW112642  12.476  12.407  11.258
 3601SOL    HW212643  12.534  12.267  11.253
 3602SOL     OW12644   6.461  10.622   2.109
 3602SOL    HW112645   6.406  10.591   2.037
 3602SOL    HW212646   6.439  10.715   2.118
 3603SOL     OW12647  12.736   2.041   0.276
 3603SOL    HW112648  12.651   1.997   0.272
 3603SOL    HW212649  12.736   2.101   0.201
 3604SOL     OW12650  11.379   8.628   6.847
 3604SOL    HW112651  11.325   8.612   6.924
 3604SOL    HW212652  11.371   8.547   6.796
 3605SOL     OW12653   0.626  13.501  12.735
 3605SOL    HW112654   0.689  13.570  12.715
 3605SOL    HW212655   0.580  13.485  12.652
 3606SOL     OW12656  12.180   0.899   0.889
 3606SOL    HW112657  12.181   0.803   0.888
 3606SOL    HW212658  12.099   0.923   0.844
 3607SOL     OW12659   9.042   1.680   3.577
 3607SOL    HW112660   9.101   1.755   3.589
 3607SOL    HW212661   9.055   1.627   3.655
 3608SOL     OW12662   0.784   4.245   2.739
 3608SOL    HW112663   0.703   4.226   2.692
 3608SOL    HW212664   0.809   4.332   2.711
 3609SOL     OW12665   5.605  12.605   5.620
 3609SOL    HW112666   5.542  12.534   5.625
 3609SOL    HW212667   5.653  12.591   5.538
 3610SOL     OW12668   4.212   5.150  11.129
 3610SOL    HW112669   4.183   5.158  11.220
 3610SOL    HW212670   4.153   5.086  11.090
 3611SOL     OW12671  13.693   6.468   6.936
 3611SOL    HW112672  13.646   6.549   6.959
 3611SOL    HW212673  13.700   6.470   6.841
 3612SOL     OW12674   3.231   1.854   2.209
 3612SOL    HW112675   3.273   1.901   2.137
 3612SOL    HW212676   3.164   1.800   2.167
 3613SOL     OW12677   4.008  12.940   2.994
 3613SOL    HW112678   3.937  12.965   2.935
 3613SOL    HW212679   4.025  12.848   2.972
 3614SOL     OW12680   6.514   5.840   4.490
 3614SOL    HW112681   6.591   5.788   4.466
 3614SOL    HW212682   6.465   5.783   4.549
 3615SOL     OW12683   5.963   3.063  13.815
 3615SOL    HW112684   5.932   3.050  13.726
 3615SOL    HW212685   6.031   3.131  13.807
 3616SOL     OW12686   4.238   4.767   6.562
 3616SOL    HW112687   4.276   4.755   6.475
 3616SOL    HW212688   4.301   4.824   6.607
 3617SOL     OW12689   8.948  12.467   5.984
 3617SOL    HW112690   8.877  12.531   5.988
 3617SOL    HW212691   8.968  12.447   6.075
 3618SOL     OW12692  11.608   9.779  12.040
 3618SOL    HW112693  11.647   9.770  12.127
 3618SOL    HW212694  11.576   9.870  12.038
 3619SOL     OW12695   7.565   4.987   5.018
 3619SOL    HW112696   7.494   4.994   5.082
 3619SOL    HW212697   7.522   4.992   4.933
 3620SOL     OW12698  12.247   7.945   3.377
 3620SOL    HW112699  12.340   7.967   3.376
 3620SOL    HW212700  12.203   8.028   3.398
 3621SOL     OW12701   7.223  13.942   8.691
 3621SOL    HW112702   7.254  13.930   8.601
 3621SOL    HW212703   7.184  13.857   8.714
 3622SOL     OW12704   9.044  10.949   8.156
 3622SOL    HW112705   9.066  10.857   8.146
 3622SOL    HW212706   9.111  10.984   8.215
 3623SOL     OW12707   6.608   6.006   6.488
 3623SOL    HW112708   6.529   6.008   6.543
 3623SOL    HW212709   6.644   6.095   6.494
 3624SOL     OW12710   9.502  10.780  10.627
 3624SOL    HW112711   9.477  10.843  10.695
 3624SOL    HW212712   9.420  10.745  10.594
 3625SOL     OW12713  13.866  10.807  10.853
 3625SOL    HW112714  13.770  10.808  10.854
 3625SOL    HW212715  13.889  10.719  10.823
 3626SOL     OW12716   9.237  11.952   4.456
 3626SOL    HW112717   9.291  11.888   4.410
 3626SOL    HW212718   9.185  11.901   4.518
 3627SOL     OW12719  11.414  11.673  12.981
 3627SOL    HW112720  11.458  11.748  12.941
 3627SOL    HW212721  11.390  11.617  12.908
 3628SOL     OW12722  12.511   6.539   5.574
 3628SOL    HW112723  12.533   6.493   5.493
 3628SOL    HW212724  12.449   6.606   5.546
 3629SOL     OW12725   6.486   8.025   7.326
 3629SOL    HW112726   6.514   8.083   7.397
 3629SOL    HW212727   6.550   8.040   7.256
 3630SOL     OW12728   4.793  10.545   7.095
 3630SOL    HW112729   4.781  10.631   7.057
 3630SOL    HW212730   4.883  10.521   7.074
 3631SOL     OW12731   3.770  11.214  14.590
 3631SOL    HW112732   3.749  11.192  14.499
 3631SOL    HW212733   3.866  11.209  14.593
 3632SOL     OW12734  11.177   5.899  10.412
 3632SOL    HW112735  11.240   5.830  10.430
 3632SOL    HW212736  11.161   5.940  10.497
 3633SOL     OW12737  10.683   6.570   0.886
 3633SOL    HW112738  10.663   6.582   0.979
 3633SOL    HW212739  10.722   6.483   0.881
 3634SOL     OW12740   8.411   7.966   3.599
 3634SOL    HW112741   8.404   8.047   3.649
 3634SOL    HW212742   8.390   7.897   3.662
 3635SOL     OW12743   5.464  11.362  10.731
 3635SOL    HW112744   5.416  11.359  10.814
 3635SOL    HW212745   5.460  11.273  10.697
 3636SOL     OW12746   0.119   8.448  11.292
 3636SOL    HW112747   0.136   8.359  11.324
 3636SOL    HW212748   0.102   8.437  11.199
 3637SOL     OW12749  10.857   5.141   6.359
 3637SOL    HW112750  10.862   5.215   6.298
 3637SOL    HW212751  10.948   5.119   6.378
 3638SOL     OW12752   6.893   8.958   4.996
 3638SOL    HW112753   6.909   8.904   5.073
 3638SOL    HW212754   6.976   8.959   4.949
 3639SOL     OW12755   5.169   6.376   7.682
 3639SOL    HW112756   5.148   6.463   7.716
 3639SOL    HW212757   5.239   6.392   7.619
 3640SOL     OW12758   1.821   5.578  14.783
 3640SOL    HW112759   1.733   5.601  14.753
 3640SOL    HW212760   1.842   5.645  14.849
 3641SOL     OW12761  11.866   1.712  14.154
 3641SOL    HW112762  11.904   1.663  14.227
 3641SOL    HW212763  11.809   1.777  14.197
 3642SOL     OW12764  14.324  13.875  12.548
 3642SOL    HW112765  14.403  13.878  12.601
 3642SOL    HW212766  14.254  13.902  12.607
 3643SOL     OW12767   2.509   0.527   3.299
 3643SOL    HW112768   2.562   0.605   3.280
 3643SOL    HW212769   2.451   0.554   3.370
 3644SOL     OW12770   5.835   5.105  11.025
 3644SOL    HW112771   5.913   5.052  11.040
 3644SOL    HW212772   5.762   5.044  11.040
 3645SOL     OW12773   0.860   2.483  14.861
 3645SOL    HW112774   0.909   2.464  14.781
 3645SOL    HW212775   0.902   2.562   0.017
 3646SOL     OW12776   2.156   8.090   7.024
 3646SOL    HW112777   2.100   8.108   6.948
 3646SOL    HW212778   2.234   8.144   7.009
 3647SOL     OW12779   7.058  12.868  14.300
 3647SOL    HW112780   7.053  12.950  14.350
 3647SOL    HW212781   6.977  12.822  14.321
 3648SOL     OW12782   9.929  13.490   5.518
 3648SOL    HW112783   9.890  13.574   5.496
 3648SOL    HW212784   9.924  13.485   5.613
 3649SOL     OW12785   3.552   1.733  12.294
 3649SOL    HW112786   3.581   1.780  12.216
 3649SOL    HW212787   3.501   1.659  12.261
 3650SOL     OW12788   1.284   9.790  10.743
 3650SOL    HW112789   1.374   9.774  10.770
 3650SOL    HW212790   1.253   9.859  10.802
 3651SOL     OW12791   8.171  10.863   6.675
 3651SOL    HW112792   8.108  10.828   6.612
 3651SOL    HW212793   8.252  10.815   6.657
 3652SOL     OW12794   8.895   3.759  11.019
 3652SOL    HW112795   8.853   3.840  10.989
 3652SOL    HW212796   8.851   3.689  10.970
 3653SOL     OW12797  12.717   2.628   1.958
 3653SOL    HW112798  12.732   2.537   1.984
 3653SOL    HW212799  12.649   2.623   1.890
 3654SOL     OW12800   2.857   5.604  10.946
 3654SOL    HW112801   2.883   5.540  10.879
 3654SOL    HW212802   2.850   5.687  10.899
 3655SOL     OW12803   7.290  12.006  13.627
 3655SOL    HW112804   7.253  12.040  13.708
 3655SOL    HW212805   7.363  12.064  13.608
 3656SOL     OW12806   3.061   4.116   8.653
 3656SOL    HW112807   3.081   4.067   8.573
 3656SOL    HW212808   2.979   4.160   8.635
 3657SOL     OW12809   8.893  12.101   9.779
 3657SOL    HW112810   8.938  12.030   9.734
 3657SOL    HW212811   8.837  12.057   9.843
 3658SOL     OW12812   7.157   5.176   1.765
 3658SOL    HW112813   7.130   5.263   1.735
 3658SOL    HW212814   7.078   5.122   1.754
 3659SOL     OW12815   2.219   3.578  11.349
 3659SOL    HW112816   2.312   3.598  11.363
 3659SOL    HW212817   2.172   3.637  11.408
 3660SOL     OW12818  10.151  11.412  14.581
 3660SOL    HW112819  10.227  11.461  14.613
 3660SOL    HW212820  10.082  11.433  14.644
 3661SOL     OW12821   8.725   0.435   0.872
 3661SOL    HW112822   8.794   0.492   0.839
 3661SOL    HW212823   8.645   0.470   0.834
 3662SOL     OW12824   8.899   5.352   3.649
 3662SOL    HW112825   8.981   5.381   3.687
 3662SOL    HW212826   8.857   5.432   3.618
 3663SOL     OW12827   8.565   1.228  13.090
 3663SOL    HW112828   8.522   1.312  13.105
 3663SOL    HW212829   8.598   1.234  13.000
 3664SOL     OW12830   0.868  11.496   3.894
 3664SOL    HW112831   0.923  11.509   3.817
 3664SOL    HW212832   0.833  11.583   3.913
 3665SOL     OW12833   0.722   2.956  10.443
 3665SOL    HW112834   0.655   2.902  10.401
 3665SOL    HW212835   0.784   2.893  10.480
 3666SOL     OW12836   1.952  10.269   3.472
 3666SOL    HW112837   1.982  10.190   3.426
 3666SOL    HW212838   2.030  10.301   3.517
 3667SOL     OW12839  13.492   7.251   7.652
 3667SOL    HW112840  13.561   7.249   7.585
 3667SOL    HW212841  13.450   7.336   7.640
 3668SOL     OW12842   3.806   5.080   6.253
 3668SOL    HW112843   3.843   5.033   6.328
 3668SOL    HW212844   3.838   5.169   6.262
 3669SOL     OW12845  11.969   1.052   5.581
 3669SOL    HW112846  11.994   1.110   5.652
 3669SOL    HW212847  12.034   1.069   5.512
 3670SOL     OW12848  13.444   4.069  12.215
 3670SOL    HW112849  13.525   4.017  12.216
 3670SOL    HW212850  13.375   4.004  12.200
 3671SOL     OW12851   3.536   3.850  11.340
 3671SOL    HW112852   3.494   3.796  11.274
 3671SOL    HW212853   3.505   3.816  11.423
 3672SOL     OW12854   4.744  13.176   6.185
 3672SOL    HW112855   4.791  13.093   6.186
 3672SOL    HW212856   4.808  13.239   6.153
 3673SOL     OW12857   0.312   8.565   4.576
 3673SOL    HW112858   0.259   8.610   4.642
 3673SOL    HW212859   0.319   8.475   4.608
 3674SOL     OW12860   1.771   2.666   5.599
 3674SOL    HW112861   1.779   2.761   5.598
 3674SOL    HW212862   1.848   2.635   5.551
 3675SOL     OW12863  12.137  12.417  12.952
 3675SOL    HW112864  12.173  12.454  12.871
 3675SOL    HW212865  12.126  12.324  12.933
 3676SOL     OW12866   7.952  13.533   4.974
 3676SOL    HW112867   7.924  13.604   5.032
 3676SOL    HW212868   7.871  13.496   4.939
 3677SOL     OW12869  13.201   3.807  14.215
 3677SOL    HW112870  13.140   3.772  14.150
 3677SOL    HW212871  13.260   3.734  14.234
 3678SOL     OW12872   4.186   2.499   9.899
 3678SOL    HW112873   4.262   2.556   9.885
 3678SOL    HW212874   4.112   2.548   9.863
 3679SOL     OW12875  12.649   0.583   0.219
 3679SOL    HW112876  12.714   0.631   0.270
 3679SOL    HW212877  12.584   0.554   0.284
 3680SOL     OW12878   9.854   1.319   8.058
 3680SOL    HW112879   9.849   1.293   8.151
 3680SOL    HW212880   9.947   1.338   8.044
 3681SOL     OW12881  13.590  12.597   1.831
 3681SOL    HW112882  13.664  12.601   1.770
 3681SOL    HW212883  13.551  12.685   1.827
 3682SOL     OW12884   3.242  11.389   7.613
 3682SOL    HW112885   3.263  11.385   7.519
 3682SOL    HW212886   3.178  11.460   7.620
 3683SOL     OW12887  13.307   5.127   1.346
 3683SOL    HW112888  13.332   5.210   1.307
 3683SOL    HW212889  13.213   5.120   1.332
 3684SOL     OW12890   0.182   2.802  11.173
 3684SOL    HW112891   0.095   2.791  11.213
 3684SOL    HW212892   0.220   2.714  11.177
 3685SOL     OW12893  12.218  10.948   5.724
 3685SOL    HW112894  12.310  10.975   5.719
 3685SOL    HW212895  12.172  11.010   5.667
 3686SOL     OW12896   4.116  14.221   9.809
 3686SOL    HW112897   4.096  14.164   9.735
 3686SOL    HW212898   4.210  14.213   9.823
 3687SOL     OW12899   1.348   5.629   4.709
 3687SOL    HW112900   1.426   5.610   4.658
 3687SOL    HW212901   1.292   5.681   4.650
 3688SOL     OW12902   8.341  11.820   8.915
 3688SOL    HW112903   8.422  11.861   8.884
 3688SOL    HW212904   8.272  11.883   8.893
 3689SOL     OW12905   7.514  11.016  12.477
 3689SOL    HW112906   7.424  11.023  12.445
 3689SOL    HW212907   7.547  10.934  12.440
 3690SOL     OW12908   6.456   9.130   1.941
 3690SOL    HW112909   6.475   9.050   1.893
 3690SOL    HW212910   6.539   9.177   1.945
 3691SOL     OW12911   1.849   6.649  13.017
 3691SOL    HW112912   1.815   6.596  12.945
 3691SOL    HW212913   1.864   6.735  12.977
 3692SOL     OW12914   9.803   0.541   8.351
 3692SOL    HW112915   9.710   0.531   8.370
 3692SOL    HW212916   9.816   0.635   8.343
 3693SOL     OW12917   9.824  12.404   3.740
 3693SOL    HW112918   9.807  12.322   3.787
 3693SOL    HW212919   9.850  12.375   3.652
 3694SOL     OW12920  11.780   1.205   7.721
 3694SOL    HW112921  11.700   1.170   7.760
 3694SOL    HW212922  11.765   1.200   7.627
 3695SOL     OW12923   9.476   5.108   3.204
 3695SOL    HW112924   9.552   5.132   3.151
 3695SOL    HW212925   9.513   5.074   3.285
 3696SOL     OW12926   6.322   4.417  11.382
 3696SOL    HW112927   6.415   4.428  11.398
 3696SOL    HW212928   6.282   4.501  11.407
 3697SOL     OW12929   7.004  11.246   9.996
 3697SOL    HW112930   7.021  11.331   9.955
 3697SOL    HW212931   6.962  11.195   9.928
 3698SOL     OW12932   2.006  13.946   8.205
 3698SOL    HW112933   2.013  13.944   8.300
 3698SOL    HW212934   2.042  14.031   8.179
 3699SOL     OW12935   3.745  10.376   6.875
 3699SOL    HW112936   3.749  10.330   6.959
 3699SOL    HW212937   3.824  10.347   6.829
 3700SOL     OW12938   4.986   3.913   1.129
 3700SOL    HW112939   4.990   3.947   1.218
 3700SOL    HW212940   5.009   3.987   1.074
 3701SOL     OW12941   6.872   3.430   3.484
 3701SOL    HW112942   6.955   3.413   3.439
 3701SOL    HW212943   6.897   3.445   3.575
 3702SOL     OW12944   8.840  12.314   7.713
 3702SOL    HW112945   8.783  12.377   7.668
 3702SOL    HW212946   8.817  12.322   7.805
 3703SOL     OW12947  10.366  10.846   4.578
 3703SOL    HW112948  10.365  10.941   4.574
 3703SOL    HW212949  10.376  10.818   4.487
 3704SOL     OW12950   6.565   1.766   2.243
 3704SOL    HW112951   6.631   1.790   2.177
 3704SOL    HW212952   6.530   1.682   2.212
 3705SOL     OW12953   1.758  11.838   1.138
 3705SOL    HW112954   1.747  11.778   1.065
 3705SOL    HW212955   1.795  11.917   1.099
 3706SOL     OW12956  14.040   0.239   0.023
 3706SOL    HW112957  13.949   0.267   0.035
 3706SOL    HW212958  14.048   0.221  14.809
 3707SOL     OW12959  12.482   2.067  13.486
 3707SOL    HW112960  12.395   2.040  13.513
 3707SOL    HW212961  12.541   2.018  13.543
 3708SOL     OW12962  11.347   5.486   3.478
 3708SOL    HW112963  11.360   5.455   3.388
 3708SOL    HW212964  11.255   5.466   3.497
 3709SOL     OW12965   6.566  10.600  12.600
 3709SOL    HW112966   6.504  10.573  12.532
 3709SOL    HW212967   6.606  10.518  12.630
 3710SOL     OW12968   1.834   9.570  14.728
 3710SOL    HW112969   1.783   9.520  14.792
 3710SOL    HW212970   1.903   9.509  14.700
 3711SOL     OW12971   8.758   8.040   4.668
 3711SOL    HW112972   8.690   8.101   4.697
 3711SOL    HW212973   8.711   7.960   4.645
 3712SOL     OW12974   2.072   4.641   7.124
 3712SOL    HW112975   2.087   4.637   7.030
 3712SOL    HW212976   2.106   4.727   7.150
 3713SOL     OW12977  12.421   6.131   1.029
 3713SOL    HW112978  12.396   6.054   1.081
 3713SOL    HW212979  12.516   6.124   1.021
 3714SOL     OW12980  12.646   7.377   1.962
 3714SOL    HW112981  12.661   7.378   2.057
 3714SOL    HW212982  12.665   7.466   1.934
 3715SOL     OW12983  11.807  11.174   3.983
 3715SOL    HW112984  11.735  11.230   3.956
 3715SOL    HW212985  11.884  11.210   3.939
 3716SOL     OW12986   4.888  12.087   7.556
 3716SOL    HW112987   4.817  12.047   7.507
 3716SOL    HW212988   4.860  12.178   7.570
 3717SOL     OW12989   2.362   2.373  11.168
 3717SOL    HW112990   2.292   2.312  11.192
 3717SOL    HW212991   2.316   2.451  11.138
 3718SOL     OW12992   3.762   3.968  14.027
 3718SOL    HW112993   3.781   3.955  13.934
 3718SOL    HW212994   3.674   3.933  14.039
 3719SOL     OW12995   0.912   7.633   2.876
 3719SOL    HW112996   0.925   7.728   2.871
 3719SOL    HW212997   0.829   7.618   2.831
 3720SOL     OW12998  11.287   3.097  11.989
 3720SOL    HW112999  11.333   3.015  12.005
 3720SOL    HW213000  11.206   3.090  12.039
 3721SOL     OW13001  13.127   2.003   7.889
 3721SOL    HW113002  13.098   2.050   7.967
 3721SOL    HW213003  13.069   2.033   7.819
 3722SOL     OW13004   9.867   3.262   0.996
 3722SOL    HW113005   9.930   3.190   0.993
 3722SOL    HW213006   9.890   3.316   0.920
 3723SOL     OW13007   5.176   6.568   6.809
 3723SOL    HW113008   5.225   6.602   6.735
 3723SOL    HW213009   5.243   6.539   6.871
 3724SOL     OW13010   1.296  12.061  11.942
 3724SOL    HW113011   1.346  12.036  11.864
 3724SOL    HW213012   1.257  12.146  11.919
 3725SOL     OW13013   8.213   9.965   2.445
 3725SOL    HW113014   8.150  10.011   2.500
 3725SOL    HW213015   8.222   9.879   2.486
 3726SOL     OW13016  13.477   6.913  10.153
 3726SOL    HW113017  13.542   6.984  10.150
 3726SOL    HW213018  13.398   6.952  10.117
 3727SOL     OW13019  10.954  13.801  11.089
 3727SOL    HW113020  11.008  13.879  11.083
 3727SOL    HW213021  11.010  13.729  11.060
 3728SOL     OW13022  12.056   3.887  13.972
 3728SOL    HW113023  11.992   3.948  13.934
 3728SOL    HW213024  12.035   3.886  14.066
 3729SOL     OW13025   3.197  12.501   4.297
 3729SOL    HW113026   3.192  12.446   4.219
 3729SOL    HW213027   3.111  12.541   4.305
 3730SOL     OW13028  13.996  11.545   2.043
 3730SOL    HW113029  13.918  11.510   2.002
 3730SOL    HW213030  13.967  11.625   2.087
 3731SOL     OW13031   5.940   0.701   4.412
 3731SOL    HW113032   5.968   0.711   4.503
 3731SOL    HW213033   6.004   0.751   4.361
 3732SOL     OW13034   8.338   7.349  12.300
 3732SOL    HW113035   8.384   7.380  12.222
 3732SOL    HW213036   8.272   7.417  12.317
 3733SOL     OW13037   9.642  13.502   2.643
 3733SOL    HW113038   9.634  13.417   2.599
 3733SOL    HW213039   9.671  13.481   2.731
 3734SOL     OW13040  12.982   1.707  13.282
 3734SOL    HW113041  12.900   1.705  13.331
 3734SOL    HW213042  13.025   1.624  13.303
 3735SOL     OW13043   1.329   9.229   7.781
 3735SOL    HW113044   1.378   9.170   7.724
 3735SOL    HW213045   1.282   9.170   7.840
 3736SOL     OW13046   0.775   3.202   5.036
 3736SOL    HW113047   0.778   3.259   5.113
 3736SOL    HW213048   0.861   3.162   5.032
 3737SOL     OW13049   5.504   7.151   8.768
 3737SOL    HW113050   5.598   7.143   8.785
 3737SOL    HW213051   5.463   7.089   8.828
 3738SOL     OW13052   6.748   5.806   6.840
 3738SOL    HW113053   6.808   5.880   6.849
 3738SOL    HW213054   6.661   5.844   6.849
 3739SOL     OW13055  13.743   1.553  10.459
 3739SOL    HW113056  13.795   1.622  10.500
 3739SOL    HW213057  13.807   1.497  10.416
 3740SOL     OW13058   4.525   7.330  12.165
 3740SOL    HW113059   4.508   7.255  12.222
 3740SOL    HW213060   4.458   7.393  12.187
 3741SOL     OW13061   7.480  12.225  10.937
 3741SOL    HW113062   7.549  12.182  10.886
 3741SOL    HW213063   7.464  12.307  10.891
 3742SOL     OW13064   4.547  11.095   3.374
 3742SOL    HW113065   4.485  11.038   3.419
 3742SOL    HW213066   4.523  11.184   3.402
 3743SOL     OW13067   9.352  13.463   6.761
 3743SOL    HW113068   9.416  13.534   6.762
 3743SOL    HW213069   9.334  13.445   6.853
 3744SOL     OW13070   2.369   5.674   4.699
 3744SOL    HW113071   2.401   5.725   4.624
 3744SOL    HW213072   2.275   5.691   4.701
 3745SOL     OW13073   4.572  14.599  10.751
 3745SOL    HW113074   4.641  14.532  10.754
 3745SOL    HW213075   4.499  14.562  10.800
 3746SOL     OW13076  10.060   7.601  14.073
 3746SOL    HW113077  10.141   7.617  14.120
 3746SOL    HW213078  10.000   7.669  14.105
 3747SOL     OW13079   6.666   2.350   3.182
 3747SOL    HW113080   6.752   2.325   3.216
 3747SOL    HW213081   6.616   2.373   3.260
 3748SOL     OW13082  13.530   8.998   6.641
 3748SOL    HW113083  13.562   9.076   6.686
 3748SOL    HW213084  13.441   8.987   6.672
 3749SOL     OW13085  12.168   0.336  14.638
 3749SOL    HW113086  12.082   0.364  14.607
 3749SOL    HW213087  12.227   0.409  14.620
 3750SOL     OW13088  14.205  11.777  14.798
 3750SOL    HW113089  14.174  11.855  14.844
 3750SOL    HW213090  14.245  11.723  14.866
 3751SOL     OW13091   8.106  13.232   6.173
 3751SOL    HW113092   8.014  13.248   6.152
 3751SOL    HW213093   8.108  13.140   6.201
 3752SOL     OW13094   7.919  10.324  12.470
 3752SOL    HW113095   7.953  10.410  12.494
 3752SOL    HW213096   7.984  10.287  12.410
 3753SOL     OW13097   4.090   2.869   0.275
 3753SOL    HW113098   4.115   2.862   0.367
 3753SOL    HW213099   3.996   2.888   0.277
 3754SOL     OW13100  10.071   7.490   9.914
 3754SOL    HW113101   9.987   7.491   9.867
 3754SOL    HW213102  10.065   7.414   9.972
 3755SOL     OW13103  13.034  12.071   7.568
 3755SOL    HW113104  13.032  11.977   7.587
 3755SOL    HW213105  13.127  12.090   7.555
 3756SOL     OW13106  10.522  11.720   7.203
 3756SOL    HW113107  10.596  11.662   7.221
 3756SOL    HW213108  10.546  11.804   7.243
 3757SOL     OW13109   2.235   1.816   1.740
 3757SOL    HW113110   2.247   1.892   1.684
 3757SOL    HW213111   2.285   1.746   1.699
 3758SOL     OW13112  13.452  13.602   8.926
 3758SOL    HW113113  13.479  13.691   8.950
 3758SOL    HW213114  13.510  13.546   8.977
 3759SOL     OW13115  12.879  10.681   5.440
 3759SOL    HW113116  12.788  10.668   5.467
 3759SOL    HW213117  12.885  10.773   5.417
 3760SOL     OW13118  12.446   4.500  14.106
 3760SOL    HW113119  12.519   4.524  14.163
 3760SOL    HW213120  12.465   4.410  14.080
 3761SOL     OW13121   4.110   0.337   9.254
 3761SOL    HW113122   4.115   0.292   9.338
 3761SOL    HW213123   4.023   0.376   9.252
 3762SOL     OW13124   6.037  11.529   2.180
 3762SOL    HW113125   6.045  11.606   2.124
 3762SOL    HW213126   5.955  11.543   2.229
 3763SOL     OW13127   0.181  11.251   1.700
 3763SOL    HW113128   0.138  11.236   1.784
 3763SOL    HW213129   0.241  11.324   1.716
 3764SOL     OW13130   2.860   7.027   7.160
 3764SOL    HW113131   2.891   6.944   7.197
 3764SOL    HW213132   2.827   7.004   7.073
 3765SOL     OW13133   2.996  12.990  12.238
 3765SOL    HW113134   3.040  13.073  12.220
 3765SOL    HW213135   3.020  12.934  12.164
 3766SOL     OW13136   7.253   4.162   1.320
 3766SOL    HW113137   7.238   4.254   1.343
 3766SOL    HW213138   7.166   4.128   1.300
 3767SOL     OW13139  13.732   1.273   2.748
 3767SOL    HW113140  13.827   1.263   2.757
 3767SOL    HW213141  13.714   1.359   2.786
 3768SOL     OW13142  10.525   9.650  11.755
 3768SOL    HW113143  10.584   9.654  11.680
 3768SOL    HW213144  10.518   9.741  11.785
 3769SOL     OW13145   2.242   7.219  13.479
 3769SOL    HW113146   2.337   7.208  13.477
 3769SOL    HW213147   2.211   7.150  13.537
 3770SOL     OW13148  12.685   2.649  12.371
 3770SOL    HW113149  12.614   2.681  12.315
 3770SOL    HW213150  12.641   2.594  12.437
 3771SOL     OW13151   6.291  13.653  10.637
 3771SOL    HW113152   6.301  13.608  10.721
 3771SOL    HW213153   6.231  13.725  10.655
 3772SOL     OW13154   6.079   8.916  14.434
 3772SOL    HW113155   5.998   8.865  14.436
 3772SOL    HW213156   6.148   8.852  14.450
 3773SOL     OW13157  10.295   9.057   7.991
 3773SOL    HW113158  10.291   9.021   7.902
 3773SOL    HW213159  10.388   9.073   8.006
 3774SOL     OW13160   2.519   7.793   4.283
 3774SOL    HW113161   2.451   7.814   4.219
 3774SOL    HW213162   2.520   7.868   4.343
 3775SOL     OW13163   6.916   0.357   5.166
 3775SOL    HW113164   6.907   0.403   5.083
 3775SOL    HW213165   7.010   0.355   5.183
 3776SOL     OW13166   2.415   9.195   7.447
 3776SOL    HW113167   2.492   9.248   7.467
 3776SOL    HW213168   2.418   9.122   7.509
 3777SOL     OW13169   4.541   2.869  10.075
 3777SOL    HW113170   4.583   2.928  10.138
 3777SOL    HW213171   4.510   2.927  10.005
 3778SOL     OW13172   2.558   3.787   4.883
 3778SOL    HW113173   2.593   3.704   4.915
 3778SOL    HW213174   2.491   3.761   4.819
 3779SOL     OW13175  12.823  13.647  12.113
 3779SOL    HW113176  12.810  13.697  12.194
 3779SOL    HW213177  12.887  13.697  12.063
 3780SOL     OW13178   6.810   2.167   3.982
 3780SOL    HW113179   6.889   2.140   4.029
 3780SOL    HW213180   6.814   2.262   3.982
 3781SOL     OW13181   9.721   2.717   5.320
 3781SOL    HW113182   9.685   2.718   5.232
 3781SOL    HW213183   9.645   2.727   5.377
 3782SOL     OW13184  12.714   4.049   6.208
 3782SOL    HW113185  12.735   4.011   6.294
 3782SOL    HW213186  12.737   3.980   6.146
 3783SOL     OW13187   5.782   8.491   5.931
 3783SOL    HW113188   5.833   8.415   5.960
 3783SOL    HW213189   5.824   8.519   5.850
 3784SOL     OW13190  14.767  11.377   0.239
 3784SOL    HW113191  14.851  11.410   0.271
 3784SOL    HW213192  14.764  11.402   0.147
 3785SOL     OW13193   8.101  12.484   7.400
 3785SOL    HW113194   8.097  12.400   7.355
 3785SOL    HW213195   8.010  12.511   7.410
 3786SOL     OW13196   0.716  11.403   7.351
 3786SOL    HW113197   0.681  11.341   7.414
 3786SOL    HW213198   0.682  11.488   7.379
 3787SOL     OW13199   0.890  10.240  11.732
 3787SOL    HW113200   0.909  10.319  11.783
 3787SOL    HW213201   0.862  10.273  11.646
 3788SOL     OW13202   0.073   0.543   1.120
 3788SOL    HW113203   0.017   0.539   1.043
 3788SOL    HW213204   0.134   0.470   1.110
 3789SOL     OW13205   9.603  14.518   2.566
 3789SOL    HW113206   9.530  14.470   2.603
 3789SOL    HW213207   9.566  14.568   2.494
 3790SOL     OW13208   6.621   4.982  14.584
 3790SOL    HW113209   6.658   4.989  14.496
 3790SOL    HW213210   6.555   4.912  14.577
 3791SOL     OW13211  11.179   3.754  12.828
 3791SOL    HW113212  11.163   3.666  12.794
 3791SOL    HW213213  11.196   3.741  12.921
 3792SOL     OW13214   4.008   1.052   9.827
 3792SOL    HW113215   4.012   1.052   9.922
 3792SOL    HW213216   4.095   1.021   9.800
 3793SOL     OW13217   6.774   9.403  13.593
 3793SOL    HW113218   6.687   9.442  13.599
 3793SOL    HW213219   6.763   9.331  13.531
 3794SOL     OW13220  12.577   7.156  12.591
 3794SOL    HW113221  12.641   7.110  12.536
 3794SOL    HW213222  12.493   7.130  12.554
 3795SOL     OW13223   0.829  11.849   0.112
 3795SOL    HW113224   0.760  11.785   0.098
 3795SOL    HW213225   0.825  11.867   0.206
 3796SOL     OW13226   5.106  14.455   9.085
 3796SOL    HW113227   5.142  14.425   9.168
 3796SOL    HW213228   5.099  14.376   9.032
 3797SOL     OW13229   2.808   4.569   6.407
 3797SOL    HW113230   2.756   4.504   6.359
 3797SOL    HW213231   2.844   4.626   6.340
 3798SOL     OW13232  14.701   4.875   8.381
 3798SOL    HW113233  14.734   4.939   8.317
 3798SOL    HW213234  14.646   4.816   8.329
 3799SOL     OW13235   4.347   5.809   8.084
 3799SOL    HW113236   4.265   5.778   8.045
 3799SOL    HW213237   4.321   5.847   8.168
 3800SOL     OW13238   8.906   6.546  13.585
 3800SOL    HW113239   8.975   6.557  13.651
 3800SOL    HW213240   8.901   6.632  13.542
 3801SOL     OW13241   5.888  13.970   7.112
 3801SOL    HW113242   5.926  13.935   7.193
 3801SOL    HW213243   5.800  13.998   7.137
 3802SOL     OW13244  13.959   2.906  11.037
 3802SOL    HW113245  13.887   2.847  11.060
 3802SOL    HW213246  14.000   2.866  10.960
 3803SOL     OW13247  12.368   9.715   1.424
 3803SOL    HW113248  12.288   9.681   1.384
 3803SOL    HW213249  12.339   9.793   1.473
 3804SOL     OW13250   1.149   8.392   4.825
 3804SOL    HW113251   1.076   8.339   4.858
 3804SOL    HW213252   1.117   8.426   4.741
 3805SOL     OW13253  13.375  12.614  10.588
 3805SOL    HW113254  13.294  12.629  10.636
 3805SOL    HW213255  13.396  12.699  10.549
 3806SOL     OW13256   4.116  13.099   8.613
 3806SOL    HW113257   4.056  13.105   8.538
 3806SOL    HW213258   4.154  13.187   8.619
 3807SOL     OW13259   1.631  11.504   5.669
 3807SOL    HW113260   1.641  11.564   5.596
 3807SOL    HW213261   1.618  11.561   5.745
 3808SOL     OW13262   3.461   2.390   3.343
 3808SOL    HW113263   3.541   2.356   3.383
 3808SOL    HW213264   3.404   2.314   3.334
 3809SOL     OW13265   6.761   3.080   0.249
 3809SOL    HW113266   6.709   3.160   0.262
 3809SOL    HW213267   6.772   3.073   0.155
 3810SOL     OW13268   9.708  14.671   5.767
 3810SOL    HW113269   9.736  14.594   5.719
 3810SOL    HW213270   9.785  14.728   5.767
 3811SOL     OW13271   4.900  11.049  11.117
 3811SOL    HW113272   4.842  10.975  11.130
 3811SOL    HW213273   4.932  11.039  11.027
 3812SOL     OW13274  10.072   6.469  11.743
 3812SOL    HW113275  10.089   6.562  11.754
 3812SOL    HW213276  10.054   6.459  11.650
 3813SOL     OW13277   7.284  12.064  12.559
 3813SOL    HW113278   7.375  12.042  12.540
 3813SOL    HW213279   7.254  11.993  12.615
 3814SOL     OW13280  13.086   2.912   8.625
 3814SOL    HW113281  13.084   3.007   8.618
 3814SOL    HW213282  12.994   2.887   8.638
 3815SOL     OW13283   1.416  13.209  13.805
 3815SOL    HW113284   1.433  13.175  13.717
 3815SOL    HW213285   1.325  13.237  13.802
 3816SOL     OW13286  13.708   6.616   2.525
 3816SOL    HW113287  13.751   6.594   2.607
 3816SOL    HW213288  13.779   6.625   2.462
 3817SOL     OW13289   9.216  13.870   7.182
 3817SOL    HW113290   9.218  13.960   7.214
 3817SOL    HW213291   9.202  13.878   7.087
 3818SOL     OW13292   2.846   1.912   3.459
 3818SOL    HW113293   2.773   1.971   3.476
 3818SOL    HW213294   2.920   1.951   3.504
 3819SOL     OW13295   4.470  12.278  14.275
 3819SOL    HW113296   4.460  12.237  14.361
 3819SOL    HW213297   4.537  12.346  14.289
 3820SOL     OW13298  12.191  14.273   1.606
 3820SOL    HW113299  12.244  14.337   1.655
 3820SOL    HW213300  12.256  14.216   1.565
 3821SOL     OW13301  10.074   4.476  12.204
 3821SOL    HW113302  10.050   4.518  12.287
 3821SOL    HW213303  10.127   4.401  12.230
 3822SOL     OW13304   8.829   0.270   5.217
 3822SOL    HW113305   8.860   0.320   5.142
 3822SOL    HW213306   8.741   0.303   5.233
 3823SOL     OW13307   1.213   5.918  14.373
 3823SOL    HW113308   1.241   6.000  14.331
 3823SOL    HW213309   1.133   5.894  14.326
 3824SOL     OW13310  11.106   9.745   1.471
 3824SOL    HW113311  11.189   9.794   1.468
 3824SOL    HW213312  11.130   9.656   1.446
 3825SOL     OW13313  14.606  11.760   4.109
 3825SOL    HW113314  14.611  11.796   4.020
 3825SOL    HW213315  14.645  11.673   4.102
 3826SOL     OW13316   9.464  12.236  10.659
 3826SOL    HW113317   9.375  12.265  10.680
 3826SOL    HW213318   9.467  12.234  10.563
 3827SOL     OW13319   9.372   2.315   4.551
 3827SOL    HW113320   9.326   2.364   4.483
 3827SOL    HW213321   9.305   2.257   4.588
 3828SOL     OW13322  12.283   1.670   9.016
 3828SOL    HW113323  12.331   1.747   8.986
 3828SOL    HW213324  12.351   1.604   9.031
 3829SOL     OW13325   3.031   4.290   0.671
 3829SOL    HW113326   3.062   4.376   0.702
 3829SOL    HW213327   3.076   4.277   0.587
 3830SOL     OW13328   2.052   7.382  11.739
 3830SOL    HW113329   2.080   7.307  11.791
 3830SOL    HW213330   1.967   7.356  11.704
 3831SOL     OW13331   7.355   9.397   0.719
 3831SOL    HW113332   7.265   9.415   0.748
 3831SOL    HW213333   7.388   9.483   0.692
 3832SOL     OW13334   1.228   2.340   9.013
 3832SOL    HW113335   1.184   2.424   9.000
 3832SOL    HW213336   1.177   2.295   9.079
 3833SOL     OW13337   7.939   1.493   8.648
 3833SOL    HW113338   7.984   1.442   8.580
 3833SOL    HW213339   7.926   1.430   8.719
 3834SOL     OW13340  13.227   6.243  12.248
 3834SOL    HW113341  13.143   6.222  12.207
 3834SOL    HW213342  13.265   6.157  12.268
 3835SOL     OW13343   5.823  14.812   1.082
 3835SOL    HW113344   5.762  14.772   1.145
 3835SOL    HW213345   5.874  14.874   1.135
 3836SOL     OW13346   6.562  14.368  10.746
 3836SOL    HW113347   6.598  14.337  10.663
 3836SOL    HW213348   6.638  14.380  10.802
 3837SOL     OW13349  11.318   8.487   3.262
 3837SOL    HW113350  11.295   8.394   3.258
 3837SOL    HW213351  11.395   8.495   3.205
 3838SOL     OW13352   4.295  10.302  12.740
 3838SOL    HW113353   4.333  10.274  12.656
 3838SOL    HW213354   4.213  10.346  12.715
 3839SOL     OW13355   3.596   7.382   7.922
 3839SOL    HW113356   3.615   7.291   7.945
 3839SOL    HW213357   3.554   7.418   8.000
 3840SOL     OW13358  12.864   3.541   8.978
 3840SOL    HW113359  12.928   3.550   8.908
 3840SOL    HW213360  12.781   3.526   8.933
 3841SOL     OW13361   3.093  10.283   1.429
 3841SOL    HW113362   3.165  10.334   1.465
 3841SOL    HW213363   3.114  10.274   1.337
 3842SOL     OW13364  13.630   5.248   0.055
 3842SOL    HW113365  13.577   5.312   0.008
 3842SOL    HW213366  13.637   5.283   0.144
 3843SOL     OW13367  13.388   1.757   6.990
 3843SOL    HW113368  13.430   1.788   6.910
 3843SOL    HW213369  13.395   1.661   6.985
 3844SOL     OW13370   6.100   9.245  14.110
 3844SOL    HW113371   6.095   9.229  14.205
 3844SOL    HW213372   6.041   9.180  14.072
 3845SOL     OW13373   7.025  13.695  10.078
 3845SOL    HW113374   6.944  13.650  10.052
 3845SOL    HW213375   6.998  13.786  10.089
 3846SOL     OW13376  11.281   0.535   3.061
 3846SOL    HW113377  11.314   0.553   3.149
 3846SOL    HW213378  11.303   0.444   3.046
 3847SOL     OW13379   7.840   9.376   9.422
 3847SOL    HW113380   7.856   9.311   9.490
 3847SOL    HW213381   7.887   9.343   9.346
 3848SOL     OW13382   8.917  10.902   1.216
 3848SOL    HW113383   8.961  10.922   1.133
 3848SOL    HW213384   8.824  10.904   1.194
 3849SOL     OW13385  14.658   2.945   1.315
 3849SOL    HW113386  14.579   2.963   1.264
 3849SOL    HW213387  14.634   2.873   1.372
 3850SOL     OW13388   3.198   2.330   1.333
 3850SOL    HW113389   3.193   2.423   1.354
 3850SOL    HW213390   3.292   2.310   1.340
 3851SOL     OW13391   9.425   8.909   6.448
 3851SOL    HW113392   9.440   9.002   6.459
 3851SOL    HW213393   9.330   8.901   6.435
 3852SOL     OW13394  14.836   2.190  12.506
 3852SOL    HW113395  14.811   2.269  12.458
 3852SOL    HW213396   0.005   2.224  12.582
 3853SOL     OW13397   7.518   5.523   5.457
 3853SOL    HW113398   7.494   5.611   5.429
 3853SOL    HW213399   7.586   5.537   5.523
 3854SOL     OW13400   6.177   8.739   8.918
 3854SOL    HW113401   6.119   8.812   8.940
 3854SOL    HW213402   6.119   8.664   8.908
 3855SOL     OW13403   6.739  12.936   9.843
 3855SOL    HW113404   6.679  12.971   9.777
 3855SOL    HW213405   6.826  12.951   9.808
 3856SOL     OW13406   4.486   9.397   4.545
 3856SOL    HW113407   4.488   9.314   4.594
 3856SOL    HW213408   4.497   9.370   4.453
 3857SOL     OW13409   8.115  13.689   8.023
 3857SOL    HW113410   8.023  13.661   8.022
 3857SOL    HW213411   8.160  13.622   8.074
 3858SOL     OW13412   0.282  13.268  14.409
 3858SOL    HW113413   0.295  13.333  14.478
 3858SOL    HW213414   0.361  13.214  14.412
 3859SOL     OW13415   9.783   9.798  14.291
 3859SOL    HW113416   9.842   9.834  14.225
 3859SOL    HW213417   9.774   9.868  14.356
 3860SOL     OW13418   0.593   7.912   7.197
 3860SOL    HW113419   0.678   7.928   7.240
 3860SOL    HW213420   0.584   7.817   7.195
 3861SOL     OW13421   8.304  10.053  13.586
 3861SOL    HW113422   8.247  10.055  13.510
 3861SOL    HW213423   8.257  10.102  13.653
 3862SOL     OW13424   7.051   8.466   1.250
 3862SOL    HW113425   7.036   8.401   1.318
 3862SOL    HW213426   6.979   8.454   1.188
 3863SOL     OW13427   1.384  12.208  11.495
 3863SOL    HW113428   1.445  12.215  11.569
 3863SOL    HW213429   1.378  12.114  11.479
 3864SOL     OW13430  10.880   7.518   9.181
 3864SOL    HW113431  10.879   7.496   9.274
 3864SOL    HW213432  10.790   7.546   9.162
 3865SOL     OW13433   2.853   2.371  11.164
 3865SOL    HW113434   2.906   2.312  11.218
 3865SOL    HW213435   2.829   2.319  11.088
 3866SOL     OW13436   3.794   9.569   3.032
 3866SOL    HW113437   3.745   9.558   3.114
 3866SOL    HW213438   3.781   9.661   3.008
 3867SOL     OW13439  11.164  12.665   7.429
 3867SOL    HW113440  11.188  12.668   7.336
 3867SOL    HW213441  11.143  12.573   7.446
 3868SOL     OW13442   7.372   6.246   1.364
 3868SOL    HW113443   7.375   6.162   1.317
 3868SOL    HW213444   7.355   6.222   1.455
 3869SOL     OW13445   4.822   5.121   2.654
 3869SOL    HW113446   4.911   5.086   2.653
 3869SOL    HW213447   4.830   5.208   2.614
 3870SOL     OW13448   9.280   3.745   9.676
 3870SOL    HW113449   9.368   3.777   9.656
 3870SOL    HW213450   9.222   3.818   9.656
 3871SOL     OW13451  10.531   2.814  14.573
 3871SOL    HW113452  10.499   2.769  14.651
 3871SOL    HW213453  10.571   2.745  14.519
 3872SOL     OW13454   6.537   2.726  10.146
 3872SOL    HW113455   6.530   2.752  10.054
 3872SOL    HW213456   6.448   2.699  10.170
 3873SOL     OW13457  10.196   5.276  13.540
 3873SOL    HW113458  10.126   5.312  13.485
 3873SOL    HW213459  10.235   5.207  13.486
 3874SOL     OW13460  10.690   7.216   6.555
 3874SOL    HW113461  10.736   7.246   6.633
 3874SOL    HW213462  10.709   7.282   6.489
 3875SOL     OW13463   1.906   6.854   9.453
 3875SOL    HW113464   1.876   6.841   9.543
 3875SOL    HW213465   1.826   6.878   9.405
 3876SOL     OW13466   9.509   6.935   9.115
 3876SOL    HW113467   9.530   7.021   9.079
 3876SOL    HW213468   9.502   6.950   9.209
 3877SOL     OW13469  13.103   1.858  13.077
 3877SOL    HW113470  13.046   1.809  13.136
 3877SOL    HW213471  13.179   1.801  13.064
 3878SOL     OW13472  13.112   4.648   6.168
 3878SOL    HW113473  13.129   4.578   6.104
 3878SOL    HW213474  13.187   4.706   6.161
 3879SOL     OW13475   4.593   0.754   9.682
 3879SOL    HW113476   4.498   0.756   9.692
 3879SOL    HW213477   4.626   0.755   9.772
 3880SOL     OW13478   6.249   0.923  11.316
 3880SOL    HW113479   6.279   0.905  11.227
 3880SOL    HW213480   6.153   0.924  11.310
 3881SOL     OW13481   9.549   5.057   9.251
 3881SOL    HW113482   9.523   4.978   9.299
 3881SOL    HW213483   9.550   5.126   9.318
 3882SOL     OW13484   3.773  13.684   3.855
 3882SOL    HW113485   3.715  13.608   3.849
 3882SOL    HW213486   3.779  13.701   3.949
 3883SOL     OW13487   3.675   6.874   1.351
 3883SOL    HW113488   3.627   6.911   1.276
 3883SOL    HW213489   3.756   6.841   1.313
 3884SOL     OW13490   6.167   1.390   2.961
 3884SOL    HW113491   6.249   1.414   3.004
 3884SOL    HW213492   6.116   1.348   3.030
 3885SOL     OW13493   2.646  13.624   8.648
 3885SOL    HW113494   2.739  13.607   8.628
 3885SOL    HW213495   2.638  13.719   8.645
 3886SOL     OW13496   5.649  14.538   4.300
 3886SOL    HW113497   5.562  14.559   4.267
 3886SOL    HW213498   5.633  14.482   4.376
 3887SOL     OW13499  13.262   8.240   7.441
 3887SOL    HW113500  13.250   8.239   7.536
 3887SOL    HW213501  13.217   8.319   7.411
 3888SOL     OW13502   0.881   8.796   1.757
 3888SOL    HW113503   0.845   8.708   1.763
 3888SOL    HW213504   0.959   8.794   1.813
 3889SOL     OW13505   7.897   7.363   5.953
 3889SOL    HW113506   7.939   7.446   5.932
 3889SOL    HW213507   7.966   7.298   5.938
 3890SOL     OW13508  11.332   4.989   1.642
 3890SOL    HW113509  11.387   5.058   1.604
 3890SOL    HW213510  11.243   5.025   1.637
 3891SOL     OW13511   3.406   2.954   9.218
 3891SOL    HW113512   3.434   2.939   9.309
 3891SOL    HW213513   3.348   3.030   9.223
 3892SOL     OW13514  12.335   6.538   5.964
 3892SOL    HW113515  12.250   6.581   5.954
 3892SOL    HW213516  12.398   6.598   5.923
 3893SOL     OW13517   0.392  13.335   2.537
 3893SOL    HW113518   0.358  13.253   2.501
 3893SOL    HW213519   0.350  13.403   2.485
 3894SOL     OW13520   4.592   4.717   9.645
 3894SOL    HW113521   4.630   4.693   9.560
 3894SOL    HW213522   4.665   4.750   9.696
 3895SOL     OW13523   8.107   6.633   9.506
 3895SOL    HW113524   8.152   6.607   9.425
 3895SOL    HW213525   8.171   6.684   9.555
 3896SOL     OW13526   3.940  14.136  11.775
 3896SOL    HW113527   3.845  14.124  11.770
 3896SOL    HW213528   3.963  14.109  11.864
 3897SOL     OW13529   6.081   5.380  10.295
 3897SOL    HW113530   6.100   5.376  10.201
 3897SOL    HW213531   5.986   5.385  10.300
 3898SOL     OW13532   5.673   4.922  12.211
 3898SOL    HW113533   5.610   4.906  12.141
 3898SOL    HW213534   5.674   5.017  12.221
 3899SOL     OW13535   8.412   1.477   5.345
 3899SOL    HW113536   8.404   1.446   5.435
 3899SOL    HW213537   8.436   1.399   5.295
 3900SOL     OW13538   0.508   9.331  13.176
 3900SOL    HW113539   0.527   9.425  13.176
 3900SOL    HW213540   0.426   9.324  13.225
 3901SOL     OW13541   0.100   0.815   1.111
 3901SOL    HW113542   0.194   0.826   1.098
 3901SOL    HW213543   0.090   0.722   1.133
 3902SOL     OW13544   2.708  12.093   4.652
 3902SOL    HW113545   2.762  12.155   4.701
 3902SOL    HW213546   2.727  12.112   4.560
 3903SOL     OW13547  13.908   8.532  11.203
 3903SOL    HW113548  13.850   8.523  11.279
 3903SOL    HW213549  13.940   8.443  11.187
 3904SOL     OW13550   9.222  13.774  12.689
 3904SOL    HW113551   9.141  13.823  12.698
 3904SOL    HW213552   9.199  13.683  12.711
 3905SOL     OW13553  14.752   4.434   8.037
 3905SOL    HW113554  14.749   4.342   8.065
 3905SOL    HW213555  14.839   4.445   7.999
 3906SOL     OW13556  11.109  14.483   8.428
 3906SOL    HW113557  11.105  14.412   8.491
 3906SOL    HW213558  11.028  14.532   8.441
 3907SOL     OW13559  11.699   1.406   2.595
 3907SOL    HW113560  11.655   1.473   2.544
 3907SOL    HW213561  11.663   1.415   2.683
 3908SOL     OW13562   0.630  10.514   1.426
 3908SOL    HW113563   0.723  10.511   1.402
 3908SOL    HW213564   0.584  10.483   1.347
 3909SOL     OW13565   1.954   8.250  12.534
 3909SOL    HW113566   1.939   8.161  12.564
 3909SOL    HW213567   2.047   8.251  12.510
 3910SOL     OW13568   7.741  12.222  10.731
 3910SOL    HW113569   7.817  12.202  10.786
 3910SOL    HW213570   7.777  12.229  10.643
 3911SOL     OW13571   6.074   8.735   0.966
 3911SOL    HW113572   6.038   8.818   0.935
 3911SOL    HW213573   6.167   8.740   0.944
 3912SOL     OW13574   6.794  10.665   1.610
 3912SOL    HW113575   6.701  10.643   1.602
 3912SOL    HW213576   6.839  10.598   1.557
 3913SOL     OW13577   4.842   8.961   3.388
 3913SOL    HW113578   4.808   8.947   3.476
 3913SOL    HW213579   4.923   9.011   3.401
 3914SOL     OW13580   3.880  13.080   8.451
 3914SOL    HW113581   3.930  13.027   8.389
 3914SOL    HW213582   3.797  13.097   8.406
 3915SOL     OW13583   1.504   9.654  14.831
 3915SOL    HW113584   1.409   9.657  14.843
 3915SOL    HW213585   1.536   9.603   0.026
 3916SOL     OW13586   8.744  10.209   1.549
 3916SOL    HW113587   8.785  10.246   1.471
 3916SOL    HW213588   8.805  10.141   1.577
 3917SOL     OW13589   0.124  14.422   1.111
 3917SOL    HW113590   0.057  14.408   1.044
 3917SOL    HW213591   0.191  14.356   1.092
 3918SOL     OW13592   6.277   2.932   9.152
 3918SOL    HW113593   6.293   2.982   9.233
 3918SOL    HW213594   6.348   2.867   9.150
 3919SOL     OW13595   7.170  12.093  10.724
 3919SOL    HW113596   7.194  12.185  10.734
 3919SOL    HW213597   7.182  12.075  10.631
 3920SOL     OW13598  12.395   0.430   2.884
 3920SOL    HW113599  12.359   0.485   2.814
 3920SOL    HW213600  12.433   0.355   2.838
 3921SOL     OW13601   4.928   2.272   4.264
 3921SOL    HW113602   4.876   2.279   4.184
 3921SOL    HW213603   4.977   2.191   4.254
 3922SOL     OW13604   3.828  12.294   4.561
 3922SOL    HW113605   3.752  12.331   4.607
 3922SOL    HW213606   3.793  12.261   4.479
 3923SOL     OW13607   0.532   9.643  11.971
 3923SOL    HW113608   0.617   9.600  11.975
 3923SOL    HW213609   0.470   9.579  12.006
 3924SOL     OW13610  12.361   8.374  14.346
 3924SOL    HW113611  12.414   8.442  14.305
 3924SOL    HW213612  12.271   8.393  14.319
 3925SOL     OW13613  11.855   3.002  11.155
 3925SOL    HW113614  11.840   2.927  11.213
 3925SOL    HW213615  11.771   3.016  11.112
 3926SOL     OW13616   6.688  14.572   3.169
 3926SOL    HW113617   6.740  14.492   3.157
 3926SOL    HW213618   6.702  14.596   3.260
 3927SOL     OW13619   0.550   3.166  14.424
 3927SOL    HW113620   0.613   3.215  14.477
 3927SOL    HW213621   0.474   3.153  14.482
 3928SOL     OW13622   1.265  14.071   7.720
 3928SOL    HW113623   1.238  14.162   7.732
 3928SOL    HW213624   1.343  14.061   7.774
 3929SOL     OW13625  11.509  14.760   2.127
 3929SOL    HW113626  11.468  14.772   2.213
 3929SOL    HW213627  11.512  14.848   2.089
 3930SOL     OW13628   0.918   9.915   4.920
 3930SOL    HW113629   0.980   9.864   4.868
 3930SOL    HW213630   0.929   9.882   5.009
 3931SOL     OW13631   4.127  12.288   1.799
 3931SOL    HW113632   4.112  12.273   1.705
 3931SOL    HW213633   4.141  12.200   1.834
 3932SOL     OW13634   8.228   1.107  11.337
 3932SOL    HW113635   8.279   1.140  11.263
 3932SOL    HW213636   8.292   1.070  11.397
 3933SOL     OW13637   6.103   2.113   0.999
 3933SOL    HW113638   6.172   2.169   1.034
 3933SOL    HW213639   6.150   2.038   0.961
 3934SOL     OW13640   5.860  13.345   2.708
 3934SOL    HW113641   5.902  13.261   2.693
 3934SOL    HW213642   5.821  13.368   2.624
 3935SOL     OW13643   0.620  12.963   1.937
 3935SOL    HW113644   0.631  12.893   1.873
 3935SOL    HW213645   0.632  12.921   2.022
 3936SOL     OW13646   3.232   1.757   2.442
 3936SOL    HW113647   3.238   1.784   2.350
 3936SOL    HW213648   3.306   1.698   2.454
 3937SOL     OW13649   5.659   7.562   3.738
 3937SOL    HW113650   5.568   7.539   3.754
 3937SOL    HW213651   5.672   7.548   3.644
 3938SOL     OW13652   5.415   8.962  12.559
 3938SOL    HW113653   5.322   8.943  12.544
 3938SOL    HW213654   5.425   8.959  12.655
 3939SOL     OW13655  12.651  14.673   8.681
 3939SOL    HW113656  12.713  14.617   8.636
 3939SOL    HW213657  12.700  14.752   8.702
 3940SOL     OW13658   0.138   2.285  14.705
 3940SOL    HW113659   0.195   2.254  14.635
 3940SOL    HW213660   0.196   2.330  14.766
 3941SOL     OW13661   8.952   5.077  13.631
 3941SOL    HW113662   8.983   5.095  13.720
 3941SOL    HW213663   8.982   5.153  13.580
 3942SOL     OW13664   7.510   5.054   2.238
 3942SOL    HW113665   7.482   5.084   2.152
 3942SOL    HW213666   7.534   5.134   2.285
 3943SOL     OW13667   7.525   4.527  11.136
 3943SOL    HW113668   7.505   4.573  11.218
 3943SOL    HW213669   7.527   4.596  11.070
 3944SOL     OW13670  10.606  13.155   1.913
 3944SOL    HW113671  10.592  13.163   2.008
 3944SOL    HW213672  10.585  13.242   1.879
 3945SOL     OW13673   7.610  12.272   2.612
 3945SOL    HW113674   7.656  12.231   2.539
 3945SOL    HW213675   7.594  12.200   2.674
 3946SOL     OW13676   3.885  10.931   4.004
 3946SOL    HW113677   3.890  11.021   3.972
 3946SOL    HW213678   3.837  10.884   3.936
 3947SOL     OW13679   1.958  12.841   1.914
 3947SOL    HW113680   1.992  12.774   1.855
 3947SOL    HW213681   2.007  12.829   1.996
 3948SOL     OW13682  13.481   1.311  11.702
 3948SOL    HW113683  13.567   1.296  11.662
 3948SOL    HW213684  13.477   1.406  11.715
 3949SOL     OW13685  12.888  10.131   9.413
 3949SOL    HW113686  12.919  10.064   9.474
 3949SOL    HW213687  12.801  10.101   9.386
 3950SOL     OW13688   1.812   3.178  14.420
 3950SOL    HW113689   1.773   3.098  14.385
 3950SOL    HW213690   1.855   3.219  14.345
 3951SOL     OW13691  11.512   4.311  13.872
 3951SOL    HW113692  11.601   4.313  13.836
 3951SOL    HW213693  11.505   4.393  13.921
 3952SOL     OW13694   2.791   2.925   3.006
 3952SOL    HW113695   2.784   3.016   2.977
 3952SOL    HW213696   2.814   2.877   2.926
 3953SOL     OW13697   0.253   2.966   4.096
 3953SOL    HW113698   0.332   3.019   4.102
 3953SOL    HW213699   0.253   2.934   4.006
 3954SOL     OW13700   4.568   9.342   9.862
 3954SOL    HW113701   4.511   9.267   9.845
 3954SOL    HW213702   4.638   9.307   9.918
 3955SOL     OW13703   0.446   2.244   3.758
 3955SOL    HW113704   0.474   2.236   3.667
 3955SOL    HW213705   0.446   2.154   3.791
 3956SOL     OW13706  11.762   2.958   6.645
 3956SOL    HW113707  11.670   2.986   6.643
 3956SOL    HW213708  11.764   2.878   6.594
 3957SOL     OW13709   1.826  12.205   7.725
 3957SOL    HW113710   1.894  12.183   7.661
 3957SOL    HW213711   1.767  12.130   7.724
 3958SOL     OW13712   4.082  14.527   2.378
 3958SOL    HW113713   4.013  14.477   2.421
 3958SOL    HW213714   4.124  14.576   2.450
 3959SOL     OW13715  13.628  14.801   5.096
 3959SOL    HW113716  13.561  14.789   5.029
 3959SOL    HW213717  13.678  14.719   5.096
 3960SOL     OW13718  12.403   1.220   9.833
 3960SOL    HW113719  12.446   1.304   9.815
 3960SOL    HW213720  12.401   1.175   9.749
 3961SOL     OW13721   8.532   4.299   7.771
 3961SOL    HW113722   8.527   4.317   7.865
 3961SOL    HW213723   8.501   4.209   7.763
 3962SOL     OW13724   6.746   7.903   5.466
 3962SOL    HW113725   6.800   7.953   5.403
 3962SOL    HW213726   6.698   7.840   5.412
 3963SOL     OW13727  13.436   5.575   6.839
 3963SOL    HW113728  13.410   5.609   6.925
 3963SOL    HW213729  13.356   5.539   6.802
 3964SOL     OW13730   8.107   9.856  10.328
 3964SOL    HW113731   8.051   9.873  10.404
 3964SOL    HW213732   8.060   9.788  10.279
 3965SOL     OW13733   4.240  13.512   9.119
 3965SOL    HW113734   4.331  13.485   9.132
 3965SOL    HW213735   4.226  13.583   9.181
 3966SOL     OW13736   8.210   7.528  13.716
 3966SOL    HW113737   8.258   7.469  13.657
 3966SOL    HW213738   8.125   7.540  13.674
 3967SOL     OW13739   3.795  14.610   6.686
 3967SOL    HW113740   3.876  14.631   6.731
 3967SOL    HW213741   3.726  14.627   6.750
 3968SOL     OW13742   9.286  10.775  13.798
 3968SOL    HW113743   9.280  10.831  13.876
 3968SOL    HW213744   9.240  10.823  13.730
 3969SOL     OW13745   7.238  13.782   9.176
 3969SOL    HW113746   7.256  13.827   9.258
 3969SOL    HW213747   7.304  13.815   9.115
 3970SOL     OW13748   0.881   9.836   2.760
 3970SOL    HW113749   0.840   9.750   2.765
 3970SOL    HW213750   0.962   9.828   2.809
 3971SOL     OW13751   1.839   3.129  13.784
 3971SOL    HW113752   1.901   3.156  13.852
 3971SOL    HW213753   1.766   3.190  13.794
 3972SOL     OW13754   6.941   6.704   5.893
 3972SOL    HW113755   6.885   6.663   5.959
 3972SOL    HW213756   7.026   6.712   5.936
 3973SOL     OW13757   5.843   3.498   2.324
 3973SOL    HW113758   5.881   3.560   2.386
 3973SOL    HW213759   5.828   3.418   2.376
 3974SOL     OW13760   5.458  11.083  10.122
 3974SOL    HW113761   5.504  11.167  10.114
 3974SOL    HW213762   5.470  11.057  10.213
 3975SOL     OW13763   8.988   8.057   2.110
 3975SOL    HW113764   8.979   8.104   2.027
 3975SOL    HW213765   8.941   8.110   2.173
 3976SOL     OW13766  14.359  13.735   2.684
 3976SOL    HW113767  14.403  13.808   2.640
 3976SOL    HW213768  14.290  13.778   2.736
 3977SOL     OW13769   5.327   5.141   9.571
 3977SOL    HW113770   5.363   5.229   9.558
 3977SOL    HW213771   5.371   5.109   9.650
 3978SOL     OW13772  10.070  11.093  13.970
 3978SOL    HW113773   9.984  11.128  13.946
 3978SOL    HW213774  10.121  11.096  13.889
 3979SOL     OW13775   6.723   3.542   6.645
 3979SOL    HW113776   6.636   3.501   6.644
 3979SOL    HW213777   6.723   3.599   6.568
 3980SOL     OW13778   3.943  10.491   5.339
 3980SOL    HW113779   3.928  10.554   5.268
 3980SOL    HW213780   4.031  10.456   5.322
 3981SOL     OW13781  11.265   6.040  12.871
 3981SOL    HW113782  11.283   5.984  12.946
 3981SOL    HW213783  11.196   6.099  12.901
 3982SOL     OW13784   2.646   5.088  14.380
 3982SOL    HW113785   2.725   5.142  14.376
 3982SOL    HW213786   2.580   5.146  14.419
 3983SOL     OW13787   7.353   9.155   7.010
 3983SOL    HW113788   7.311   9.238   6.988
 3983SOL    HW213789   7.447   9.173   7.003
 3984SOL     OW13790  12.261  13.029   7.494
 3984SOL    HW113791  12.202  12.984   7.434
 3984SOL    HW213792  12.263  12.973   7.572
 3985SOL     OW13793   5.627   2.967  10.198
 3985SOL    HW113794   5.592   2.907  10.264
 3985SOL    HW213795   5.557   2.973  10.132
 3986SOL     OW13796   6.390   8.933   0.056
 3986SOL    HW113797   6.323   8.941   0.124
 3986SOL    HW213798   6.415   9.023   0.036
 3987SOL     OW13799   3.288   6.068  11.355
 3987SOL    HW113800   3.304   6.055  11.448
 3987SOL    HW213801   3.237   5.991  11.328
 3988SOL     OW13802   1.334   2.850  12.524
 3988SOL    HW113803   1.348   2.935  12.566
 3988SOL    HW213804   1.356   2.786  12.593
 3989SOL     OW13805  11.124  13.147   8.616
 3989SOL    HW113806  11.058  13.105   8.671
 3989SOL    HW213807  11.183  13.076   8.590
 3990SOL     OW13808   9.029  11.927   1.698
 3990SOL    HW113809   9.102  11.931   1.635
 3990SOL    HW213810   9.027  12.013   1.738
 3991SOL     OW13811   8.866  12.477   3.782
 3991SOL    HW113812   8.932  12.514   3.840
 3991SOL    HW213813   8.907  12.476   3.696
 3992SOL     OW13814  13.029   6.424   3.119
 3992SOL    HW113815  13.083   6.369   3.062
 3992SOL    HW213816  13.080   6.503   3.132
 3993SOL     OW13817  10.932   9.312   0.158
 3993SOL    HW113818  10.847   9.330   0.118
 3993SOL    HW213819  10.915   9.308   0.252
 3994SOL     OW13820  14.047  10.546  12.287
 3994SOL    HW113821  13.970  10.553  12.230
 3994SOL    HW213822  14.066  10.637  12.312
 3995SOL     OW13823   3.245   3.221   1.627
 3995SOL    HW113824   3.172   3.241   1.686
 3995SOL    HW213825   3.286   3.144   1.665
 3996SOL     OW13826   5.152   6.089   8.011
 3996SOL    HW113827   5.069   6.097   7.964
 3996SOL    HW213828   5.183   6.001   7.990
 3997SOL     OW13829   7.915  11.863   4.674
 3997SOL    HW113830   7.926  11.855   4.579
 3997SOL    HW213831   7.960  11.787   4.710
 3998SOL     OW13832  14.530  14.779   4.509
 3998SOL    HW113833  14.523  14.791   4.604
 3998SOL    HW213834  14.612  14.732   4.497
 3999SOL     OW13835  12.852   6.324  11.673
 3999SOL    HW113836  12.884   6.376  11.599
 3999SOL    HW213837  12.787   6.265  11.634
 4000SOL     OW13838   2.026   4.515   6.145
 4000SOL    HW113839   1.971   4.455   6.094
 4000SOL    HW213840   2.069   4.570   6.079
 4001SOL     OW13841  10.337   1.828   8.327
 4001SOL    HW113842  10.376   1.785   8.251
 4001SOL    HW213843  10.403   1.891   8.355
 4002SOL     OW13844  12.342   0.172   6.384
 4002SOL    HW113845  12.256   0.177   6.425
 4002SOL    HW213846  12.338   0.235   6.313
 4003SOL     OW13847   7.076   7.052   2.330
 4003SOL    HW113848   7.129   7.079   2.256
 4003SOL    HW213849   7.037   6.969   2.304
 4004SOL     OW13850  12.441   5.704   3.356
 4004SOL    HW113851  12.458   5.790   3.318
 4004SOL    HW213852  12.528   5.667   3.372
 4005SOL     OW13853   4.402   8.134  10.560
 4005SOL    HW113854   4.390   8.161  10.469
 4005SOL    HW213855   4.462   8.199  10.596
 4006SOL     OW13856  12.692  12.154   2.228
 4006SOL    HW113857  12.663  12.217   2.162
 4006SOL    HW213858  12.613  12.138   2.281
 4007SOL     OW13859   4.600  14.872   9.794
 4007SOL    HW113860   4.601  14.808   9.865
 4007SOL    HW213861   4.580  14.822   9.715
 4008SOL     OW13862  13.149   2.636  11.879
 4008SOL    HW113863  13.064   2.653  11.920
 4008SOL    HW213864  13.130   2.633  11.785
 4009SOL     OW13865   1.961   8.724   9.015
 4009SOL    HW113866   1.874   8.711   8.976
 4009SOL    HW213867   1.963   8.816   9.040
 4010SOL     OW13868  11.243   4.767   5.977
 4010SOL    HW113869  11.247   4.746   6.071
 4010SOL    HW213870  11.250   4.682   5.933
 4011SOL     OW13871   8.016   1.799   0.773
 4011SOL    HW113872   7.953   1.730   0.751
 4011SOL    HW213873   7.990   1.826   0.862
 4012SOL     OW13874   3.377   5.414   1.270
 4012SOL    HW113875   3.365   5.400   1.364
 4012SOL    HW213876   3.291   5.439   1.238
 4013SOL     OW13877  12.178  10.920  10.695
 4013SOL    HW113878  12.156  10.932  10.603
 4013SOL    HW213879  12.270  10.945  10.701
 4014SOL     OW13880  11.290   3.437  13.000
 4014SOL    HW113881  11.311   3.530  13.007
 4014SOL    HW213882  11.338   3.397  13.072
 4015SOL     OW13883   2.871  12.563  14.521
 4015SOL    HW113884   2.923  12.623  14.575
 4015SOL    HW213885   2.794  12.543  14.574
 4016SOL     OW13886   3.967   8.581  11.721
 4016SOL    HW113887   3.909   8.591  11.645
 4016SOL    HW213888   3.908   8.567  11.795
 4017SOL     OW13889   7.476   0.515   2.871
 4017SOL    HW113890   7.561   0.548   2.901
 4017SOL    HW213891   7.476   0.423   2.899
 4018SOL     OW13892   6.176   6.349   9.247
 4018SOL    HW113893   6.261   6.311   9.226
 4018SOL    HW213894   6.148   6.303   9.327
 4019SOL     OW13895  12.049   6.513   4.148
 4019SOL    HW113896  12.089   6.444   4.094
 4019SOL    HW213897  12.113   6.584   4.147
 4020SOL     OW13898  13.658   1.810  12.597
 4020SOL    HW113899  13.732   1.751  12.582
 4020SOL    HW213900  13.691   1.897  12.578
 4021SOL     OW13901  11.446   5.648   8.515
 4021SOL    HW113902  11.361   5.605   8.504
 4021SOL    HW213903  11.473   5.625   8.603
 4022SOL     OW13904   5.899  12.217   0.751
 4022SOL    HW113905   5.981  12.167   0.759
 4022SOL    HW213906   5.834  12.164   0.795
 4023SOL     OW13907   1.531   6.155  11.469
 4023SOL    HW113908   1.475   6.082  11.497
 4023SOL    HW213909   1.593   6.114  11.408
 4024SOL     OW13910   9.004   7.336  13.188
 4024SOL    HW113911   8.912   7.314  13.201
 4024SOL    HW213912   9.004   7.389  13.108
 4025SOL     OW13913   6.074   5.828   0.948
 4025SOL    HW113914   6.031   5.869   0.873
 4025SOL    HW213915   6.167   5.828   0.925
 4026SOL     OW13916   0.543  11.704  12.179
 4026SOL    HW113917   0.531  11.659  12.095
 4026SOL    HW213918   0.470  11.674  12.233
 4027SOL     OW13919   9.618   3.030   5.548
 4027SOL    HW113920   9.676   3.013   5.622
 4027SOL    HW213921   9.582   2.944   5.525
 4028SOL     OW13922   6.668  12.504   2.814
 4028SOL    HW113923   6.669  12.585   2.865
 4028SOL    HW213924   6.684  12.532   2.724
 4029SOL     OW13925  12.143   7.551   5.642
 4029SOL    HW113926  12.109   7.463   5.625
 4029SOL    HW213927  12.237   7.543   5.625
 4030SOL     OW13928  11.365  12.514   2.994
 4030SOL    HW113929  11.356  12.598   2.950
 4030SOL    HW213930  11.289  12.463   2.966
 4031SOL     OW13931   7.556   8.199   3.886
 4031SOL    HW113932   7.484   8.256   3.912
 4031SOL    HW213933   7.536   8.115   3.927
 4032SOL     OW13934   9.961   3.920  13.137
 4032SOL    HW113935   9.939   4.011  13.115
 4032SOL    HW213936   9.991   3.924  13.228
 4033SOL     OW13937   4.487   8.317   8.091
 4033SOL    HW113938   4.562   8.331   8.149
 4033SOL    HW213939   4.447   8.236   8.123
 4034SOL     OW13940  14.164   1.071  11.918
 4034SOL    HW113941  14.250   1.059  11.957
 4034SOL    HW213942  14.174   1.042  11.827
 4035SOL     OW13943   2.442  13.028  14.569
 4035SOL    HW113944   2.400  13.104  14.609
 4035SOL    HW213945   2.510  13.002  14.631
 4036SOL     OW13946  10.373  10.416   8.496
 4036SOL    HW113947  10.319  10.477   8.546
 4036SOL    HW213948  10.332  10.412   8.410
 4037SOL     OW13949   2.354  12.741  13.542
 4037SOL    HW113950   2.275  12.740  13.596
 4037SOL    HW213951   2.358  12.831  13.509
 4038SOL     OW13952  14.760   0.134  11.249
 4038SOL    HW113953  14.705   0.097  11.318
 4038SOL    HW213954  14.745   0.228  11.252
 4039SOL     OW13955   5.430   9.895   5.554
 4039SOL    HW113956   5.478   9.867   5.476
 4039SOL    HW213957   5.375   9.967   5.523
 4040SOL     OW13958   3.597   0.525   5.291
 4040SOL    HW113959   3.587   0.577   5.371
 4040SOL    HW213960   3.573   0.436   5.316
 4041SOL     OW13961   7.996   9.175   5.244
 4041SOL    HW113962   7.910   9.217   5.245
 4041SOL    HW213963   8.051   9.236   5.194
 4042SOL     OW13964   1.478   9.027  13.168
 4042SOL    HW113965   1.503   9.087  13.239
 4042SOL    HW213966   1.556   9.022  13.113
 4043SOL     OW13967  13.434   3.621   1.606
 4043SOL    HW113968  13.368   3.552   1.597
 4043SOL    HW213969  13.506   3.592   1.550
 4044SOL     OW13970  12.197   7.270  10.169
 4044SOL    HW113971  12.238   7.245  10.251
 4044SOL    HW213972  12.145   7.193  10.144
 4045SOL     OW13973   4.766   0.663  14.518
 4045SOL    HW113974   4.802   0.600  14.579
 4045SOL    HW213975   4.781   0.625  14.432
 4046SOL     OW13976   2.834   9.865   3.409
 4046SOL    HW113977   2.874   9.917   3.478
 4046SOL    HW213978   2.740   9.883   3.415
 4047SOL     OW13979   6.430  13.227  12.649
 4047SOL    HW113980   6.403  13.146  12.605
 4047SOL    HW213981   6.525  13.220  12.658
 4048SOL     OW13982   9.344   7.438   8.911
 4048SOL    HW113983   9.279   7.441   8.841
 4048SOL    HW213984   9.343   7.526   8.948
 4049SOL     OW13985  12.491  11.673   4.715
 4049SOL    HW113986  12.465  11.641   4.629
 4049SOL    HW213987  12.525  11.596   4.760
 4050SOL     OW13988   9.795   2.541   3.863
 4050SOL    HW113989   9.793   2.543   3.959
 4050SOL    HW213990   9.723   2.599   3.837
 4051SOL     OW13991   4.977  13.063   3.170
 4051SOL    HW113992   4.941  13.152   3.178
 4051SOL    HW213993   5.032  13.052   3.247
 4052SOL     OW13994   1.705   8.856   4.567
 4052SOL    HW113995   1.684   8.890   4.654
 4052SOL    HW213996   1.757   8.778   4.584
 4053SOL     OW13997  14.312   9.734   5.822
 4053SOL    HW113998  14.343   9.733   5.731
 4053SOL    HW213999  14.218   9.748   5.815
 4054SOL     OW14000  13.198   3.879  11.611
 4054SOL    HW114001  13.290   3.905  11.619
 4054SOL    HW214002  13.153   3.929  11.679
 4055SOL     OW14003  12.731   1.276   2.276
 4055SOL    HW114004  12.655   1.318   2.316
 4055SOL    HW214005  12.779   1.239   2.350
 4056SOL     OW14006  10.371   9.568   8.955
 4056SOL    HW114007  10.298   9.607   9.002
 4056SOL    HW214008  10.333   9.540   8.871
 4057SOL     OW14009  11.156  13.196   9.037
 4057SOL    HW114010  11.191  13.111   9.063
 4057SOL    HW214011  11.086  13.176   8.975
 4058SOL     OW14012   5.488   9.653   8.422
 4058SOL    HW114013   5.454   9.734   8.460
 4058SOL    HW214014   5.410   9.603   8.399
 4059SOL     OW14015   8.224   0.097  12.538
 4059SOL    HW114016   8.190   0.129  12.455
 4059SOL    HW214017   8.157   0.037  12.570
 4060SOL     OW14018  13.351   2.197  12.861
 4060SOL    HW114019  13.411   2.125  12.846
 4060SOL    HW214020  13.264   2.158  12.853
 4061SOL     OW14021   5.987   9.316  12.571
 4061SOL    HW114022   5.927   9.380  12.533
 4061SOL    HW214023   6.072   9.337  12.533
 4062SOL     OW14024  12.680   4.258  12.327
 4062SOL    HW114025  12.767   4.225  12.306
 4062SOL    HW214026  12.692   4.316  12.402
 4063SOL     OW14027   4.985  12.482   5.754
 4063SOL    HW114028   5.048  12.518   5.691
 4063SOL    HW214029   4.900  12.491   5.711
 4064SOL     OW14030   5.272   4.289  14.512
 4064SOL    HW114031   5.258   4.336  14.595
 4064SOL    HW214032   5.227   4.205  14.525
 4065SOL     OW14033   9.040   1.559   3.315
 4065SOL    HW114034   9.044   1.593   3.405
 4065SOL    HW214035   8.959   1.510   3.311
 4066SOL     OW14036  11.934   6.117   1.247
 4066SOL    HW114037  11.944   6.049   1.180
 4066SOL    HW214038  11.839   6.128   1.256
 4067SOL     OW14039   7.781   2.586   8.556
 4067SOL    HW114040   7.846   2.586   8.627
 4067SOL    HW214041   7.749   2.496   8.554
 4068SOL     OW14042  12.425   9.617  14.241
 4068SOL    HW114043  12.405   9.632  14.148
 4068SOL    HW214044  12.408   9.523  14.253
 4069SOL     OW14045   9.396   5.899  10.631
 4069SOL    HW114046   9.431   5.907  10.719
 4069SOL    HW214047   9.303   5.878  10.643
 4070SOL     OW14048   4.865   5.624   0.464
 4070SOL    HW114049   4.897   5.592   0.548
 4070SOL    HW214050   4.944   5.650   0.417
 4071SOL     OW14051   2.136  10.342   3.836
 4071SOL    HW114052   2.138  10.352   3.741
 4071SOL    HW214053   2.210  10.394   3.867
 4072SOL     OW14054  11.535  14.263  14.292
 4072SOL    HW114055  11.477  14.198  14.333
 4072SOL    HW214056  11.482  14.343  14.289
 4073SOL     OW14057   9.642  12.755  13.920
 4073SOL    HW114058   9.572  12.818  13.902
 4073SOL    HW214059   9.697  12.758  13.842
 4074SOL     OW14060   7.816   4.689   6.571
 4074SOL    HW114061   7.776   4.718   6.490
 4074SOL    HW214062   7.910   4.705   6.559
 4075SOL     OW14063   8.770   2.406   3.465
 4075SOL    HW114064   8.762   2.482   3.407
 4075SOL    HW214065   8.683   2.367   3.466
 4076SOL     OW14066   1.894   0.367  10.579
 4076SOL    HW114067   1.838   0.290  10.592
 4076SOL    HW214068   1.883   0.418  10.658
 4077SOL     OW14069   6.490   7.738  11.928
 4077SOL    HW114070   6.477   7.795  12.004
 4077SOL    HW214071   6.560   7.678  11.953
 4078SOL     OW14072   6.302   9.713   1.737
 4078SOL    HW114073   6.293   9.777   1.666
 4078SOL    HW214074   6.278   9.630   1.697
 4079SOL     OW14075   2.816   6.883   5.454
 4079SOL    HW114076   2.860   6.862   5.537
 4079SOL    HW214077   2.790   6.975   5.463
 4080SOL     OW14078   6.239   6.149   9.952
 4080SOL    HW114079   6.196   6.196  10.024
 4080SOL    HW214080   6.196   6.182   9.873
 4081SOL     OW14081  12.986  12.325  13.751
 4081SOL    HW114082  13.016  12.258  13.813
 4081SOL    HW214083  12.981  12.280  13.667
 4082SOL     OW14084   9.417   4.079   1.235
 4082SOL    HW114085   9.372   4.008   1.190
 4082SOL    HW214086   9.499   4.090   1.187
 4083SOL     OW14087   4.650  12.088  11.012
 4083SOL    HW114088   4.691  12.002  10.998
 4083SOL    HW214089   4.713  12.137  11.064
 4084SOL     OW14090   4.017   1.033   2.302
 4084SOL    HW114091   3.931   0.992   2.296
 4084SOL    HW214092   4.078   0.961   2.317
 4085SOL     OW14093  14.627   4.418  10.098
 4085SOL    HW114094  14.722   4.430  10.095
 4085SOL    HW214095  14.607   4.407  10.191
 4086SOL     OW14096  11.922   7.475  13.876
 4086SOL    HW114097  11.951   7.397  13.828
 4086SOL    HW214098  11.829   7.459  13.894
 4087SOL     OW14099   4.380   4.580   3.622
 4087SOL    HW114100   4.338   4.510   3.571
 4087SOL    HW214101   4.400   4.539   3.706
 4088SOL     OW14102  13.564   1.057   7.696
 4088SOL    HW114103  13.622   0.983   7.713
 4088SOL    HW214104  13.541   1.049   7.603
 4089SOL     OW14105   9.652  13.884   5.321
 4089SOL    HW114106   9.735  13.843   5.344
 4089SOL    HW214107   9.587  13.833   5.370
 4090SOL     OW14108  11.101  11.285   9.437
 4090SOL    HW114109  11.034  11.243   9.491
 4090SOL    HW214110  11.083  11.253   9.349
 4091SOL     OW14111  14.430   4.459  10.299
 4091SOL    HW114112  14.435   4.482  10.392
 4091SOL    HW214113  14.396   4.538  10.257
 4092SOL     OW14114   4.634  12.666   5.130
 4092SOL    HW114115   4.615  12.589   5.077
 4092SOL    HW214116   4.715  12.644   5.175
 4093SOL     OW14117   0.640   0.324   6.944
 4093SOL    HW114118   0.684   0.290   7.022
 4093SOL    HW214119   0.652   0.256   6.878
 4094SOL     OW14120  11.530   0.563  11.296
 4094SOL    HW114121  11.485   0.594  11.375
 4094SOL    HW214122  11.521   0.468  11.300
 4095SOL     OW14123   5.787  11.563  11.001
 4095SOL    HW114124   5.838  11.529  11.075
 4095SOL    HW214125   5.696  11.560  11.031
 4096SOL     OW14126  14.492   9.062  11.382
 4096SOL    HW114127  14.585   9.073  11.358
 4096SOL    HW214128  14.459   9.152  11.390
 4097SOL     OW14129   7.341  13.787   2.530
 4097SOL    HW114130   7.338  13.873   2.488
 4097SOL    HW214131   7.357  13.807   2.622
 4098SOL     OW14132   7.770  12.920   5.711
 4098SOL    HW114133   7.825  12.931   5.788
 4098SOL    HW214134   7.715  12.844   5.732
 4099SOL     OW14135  11.351   8.507  14.659
 4099SOL    HW114136  11.294   8.499  14.735
 4099SOL    HW214137  11.410   8.579  14.680
 4100SOL     OW14138   1.993   0.411   4.765
 4100SOL    HW114139   1.999   0.502   4.734
 4100SOL    HW214140   1.907   0.407   4.808
 4101SOL     OW14141   9.517  14.115  10.482
 4101SOL    HW114142   9.452  14.179  10.511
 4101SOL    HW214143   9.601  14.161  10.490
 4102SOL     OW14144   5.280   1.136   3.902
 4102SOL    HW114145   5.245   1.225   3.905
 4102SOL    HW214146   5.203   1.080   3.904
 4103SOL     OW14147   5.714  11.665   1.680
 4103SOL    HW114148   5.690  11.757   1.673
 4103SOL    HW214149   5.662  11.632   1.754
 4104SOL     OW14150   6.639   1.690   6.270
 4104SOL    HW114151   6.629   1.595   6.272
 4104SOL    HW214152   6.568   1.721   6.214
 4105SOL     OW14153  14.750   9.685   7.990
 4105SOL    HW114154  14.751   9.669   8.085
 4105SOL    HW214155  14.679   9.747   7.977
 4106SOL     OW14156   9.698  12.079  10.653
 4106SOL    HW114157   9.696  12.053  10.745
 4106SOL    HW214158   9.638  12.153  10.649
 4107SOL     OW14159  14.067  12.780  12.452
 4107SOL    HW114160  14.026  12.866  12.461
 4107SOL    HW214161  14.015  12.723  12.508
 4108SOL     OW14162   2.869  10.852  13.954
 4108SOL    HW114163   2.806  10.872  13.884
 4108SOL    HW214164   2.934  10.922  13.948
 4109SOL     OW14165   4.861   5.451   3.431
 4109SOL    HW114166   4.837   5.481   3.519
 4109SOL    HW214167   4.957   5.453   3.430
 4110SOL     OW14168  10.144   3.261   2.544
 4110SOL    HW114169  10.228   3.291   2.579
 4110SOL    HW214170  10.135   3.308   2.461
 4111SOL     OW14171   8.678  10.160  13.887
 4111SOL    HW114172   8.624  10.216  13.831
 4111SOL    HW214173   8.643  10.072  13.874
 4112SOL     OW14174  14.354   5.915   6.011
 4112SOL    HW114175  14.287   5.982   5.995
 4112SOL    HW214176  14.421   5.961   6.061
 4113SOL     OW14177   3.275  14.443   4.767
 4113SOL    HW114178   3.278  14.363   4.820
 4113SOL    HW214179   3.295  14.414   4.678
 4114SOL     OW14180  13.490   2.435   5.261
 4114SOL    HW114181  13.542   2.396   5.332
 4114SOL    HW214182  13.554   2.460   5.195
 4115SOL     OW14183   5.859  14.372   9.270
 4115SOL    HW114184   5.814  14.457   9.265
 4115SOL    HW214185   5.874  14.349   9.178
 4116SOL     OW14186  13.643   2.242  13.878
 4116SOL    HW114187  13.553   2.244  13.845
 4116SOL    HW214188  13.634   2.230  13.972
 4117SOL     OW14189   8.732   7.780   7.216
 4117SOL    HW114190   8.719   7.738   7.130
 4117SOL    HW214191   8.781   7.859   7.196
 4118SOL     OW14192   1.595   3.566   4.210
 4118SOL    HW114193   1.600   3.489   4.268
 4118SOL    HW214194   1.641   3.635   4.259
 4119SOL     OW14195  11.999   4.122   7.535
 4119SOL    HW114196  12.074   4.063   7.535
 4119SOL    HW214197  11.990   4.150   7.626
 4120SOL     OW14198  14.340  10.890   4.941
 4120SOL    HW114199  14.406  10.901   4.872
 4120SOL    HW214200  14.316  10.980   4.965
 4121SOL     OW14201  14.293  12.178   1.446
 4121SOL    HW114202  14.203  12.198   1.419
 4121SOL    HW214203  14.340  12.163   1.364
 4122SOL     OW14204   0.778  10.003   6.306
 4122SOL    HW114205   0.753   9.911   6.295
 4122SOL    HW214206   0.873  10.001   6.317
 4123SOL     OW14207   4.405   3.416  10.833
 4123SOL    HW114208   4.373   3.335  10.872
 4123SOL    HW214209   4.444   3.464  10.907
 4124SOL     OW14210   0.528   5.922   3.948
 4124SOL    HW114211   0.610   5.888   3.984
 4124SOL    HW214212   0.502   5.857   3.882
 4125SOL     OW14213  13.977   6.739   6.777
 4125SOL    HW114214  14.030   6.778   6.847
 4125SOL    HW214215  14.036   6.675   6.736
 4126SOL     OW14216   9.384  12.191   4.461
 4126SOL    HW114217   9.440  12.172   4.537
 4126SOL    HW214218   9.317  12.122   4.463
 4127SOL     OW14219  14.865   7.535   5.715
 4127SOL    HW114220  14.772   7.518   5.729
 4127SOL    HW214221   0.009   7.477   5.643
 4128SOL     OW14222   2.432  14.702   5.880
 4128SOL    HW114223   2.501  14.643   5.910
 4128SOL    HW214224   2.351  14.666   5.918
 4129SOL     OW14225   9.574   7.262   6.952
 4129SOL    HW114226   9.576   7.174   6.914
 4129SOL    HW214227   9.512   7.310   6.897
 4130SOL     OW14228   4.665   6.728   0.408
 4130SOL    HW114229   4.604   6.662   0.375
 4130SOL    HW214230   4.729   6.678   0.458
 4131SOL     OW14231   2.878   6.619   3.886
 4131SOL    HW114232   2.942   6.583   3.824
 4131SOL    HW214233   2.802   6.642   3.833
 4132SOL     OW14234   1.551   6.331   2.265
 4132SOL    HW114235   1.533   6.406   2.322
 4132SOL    HW214236   1.614   6.278   2.313
 4133SOL     OW14237   8.367  11.596  12.470
 4133SOL    HW114238   8.384  11.504  12.449
 4133SOL    HW214239   8.377  11.601  12.565
 4134SOL     OW14240   0.361   1.984  12.759
 4134SOL    HW114241   0.393   1.998  12.848
 4134SOL    HW214242   0.311   2.064  12.739
 4135SOL     OW14243   5.326   7.914   6.218
 4135SOL    HW114244   5.242   7.920   6.263
 4135SOL    HW214245   5.336   7.822   6.196
 4136SOL     OW14246   3.853   9.880   0.779
 4136SOL    HW114247   3.777   9.901   0.833
 4136SOL    HW214248   3.846   9.786   0.762
 4137SOL     OW14249   9.813  11.502   0.375
 4137SOL    HW114250   9.726  11.470   0.400
 4137SOL    HW214251   9.813  11.498   0.280
 4138SOL     OW14252   7.071  10.033   4.100
 4138SOL    HW114253   7.002  10.097   4.117
 4138SOL    HW214254   7.035   9.974   4.034
 4139SOL     OW14255  13.835  12.690   0.093
 4139SOL    HW114256  13.924  12.718   0.116
 4139SOL    HW214257  13.811  12.629   0.163
 4140SOL     OW14258   6.671   8.573   4.189
 4140SOL    HW114259   6.697   8.595   4.279
 4140SOL    HW214260   6.677   8.656   4.142
 4141SOL     OW14261  14.829  14.784   1.645
 4141SOL    HW114262  14.876  14.845   1.702
 4141SOL    HW214263  14.866  14.799   1.558
 4142SOL     OW14264   3.181   9.507   5.331
 4142SOL    HW114265   3.114   9.469   5.274
 4142SOL    HW214266   3.264   9.493   5.284
 4143SOL     OW14267   0.015   0.571   8.153
 4143SOL    HW114268  14.878   0.481   8.125
 4143SOL    HW214269   0.087   0.600   8.097
 4144SOL     OW14270   9.603  10.652  12.003
 4144SOL    HW114271   9.693  10.669  12.031
 4144SOL    HW214272   9.612  10.612  11.916
 4145SOL     OW14273  14.774  12.931  12.350
 4145SOL    HW114274  14.850  12.985  12.368
 4145SOL    HW214275  14.809  12.843  12.333
 4146SOL     OW14276   5.539  14.204   3.319
 4146SOL    HW114277   5.548  14.257   3.240
 4146SOL    HW214278   5.618  14.222   3.369
 4147SOL     OW14279   3.372   1.301   1.935
 4147SOL    HW114280   3.354   1.395   1.941
 4147SOL    HW214281   3.326   1.274   1.855
 4148SOL     OW14282   8.425  10.680   7.843
 4148SOL    HW114283   8.509  10.639   7.827
 4148SOL    HW214284   8.387  10.694   7.756
 4149SOL     OW14285   7.855  13.585   9.632
 4149SOL    HW114286   7.776  13.555   9.587
 4149SOL    HW214287   7.846  13.680   9.635
 4150SOL     OW14288   0.768  11.757   0.705
 4150SOL    HW114289   0.685  11.714   0.728
 4150SOL    HW214290   0.828  11.729   0.774
 4151SOL     OW14291   8.450   5.129   2.233
 4151SOL    HW114292   8.402   5.148   2.314
 4151SOL    HW214293   8.520   5.069   2.261
 4152SOL     OW14294  10.185   8.766   4.068
 4152SOL    HW114295  10.273   8.762   4.031
 4152SOL    HW214296  10.172   8.681   4.110
 4153SOL     OW14297   4.713  12.484   8.113
 4153SOL    HW114298   4.618  12.475   8.123
 4153SOL    HW214299   4.742  12.397   8.083
 4154SOL     OW14300   3.271   1.919  11.189
 4154SOL    HW114301   3.283   1.959  11.103
 4154SOL    HW214302   3.198   1.858  11.178
 4155SOL     OW14303  12.272   5.015   0.474
 4155SOL    HW114304  12.353   5.060   0.500
 4155SOL    HW214305  12.295   4.968   0.394
 4156SOL     OW14306  10.985   8.412   2.267
 4156SOL    HW114307  11.005   8.495   2.225
 4156SOL    HW214308  10.916   8.434   2.330
 4157SOL     OW14309   8.656   7.330   4.024
 4157SOL    HW114310   8.726   7.388   3.995
 4157SOL    HW214311   8.588   7.389   4.057
 4158SOL     OW14312   9.388   6.070   9.816
 4158SOL    HW114313   9.361   6.160   9.832
 4158SOL    HW214314   9.470   6.059   9.864
 4159SOL     OW14315   5.476   6.032   7.566
 4159SOL    HW114316   5.385   6.046   7.541
 4159SOL    HW214317   5.476   5.945   7.607
 4160SOL     OW14318   0.164   5.645  12.071
 4160SOL    HW114319   0.180   5.586  12.144
 4160SOL    HW214320   0.072   5.633  12.048
 4161SOL     OW14321   3.642   6.569  12.144
 4161SOL    HW114322   3.599   6.505  12.201
 4161SOL    HW214323   3.571   6.603  12.089
 4162SOL     OW14324   5.376  13.706  12.104
 4162SOL    HW114325   5.451  13.754  12.068
 4162SOL    HW214326   5.412  13.621  12.130
 4163SOL     OW14327  11.328   9.686   7.649
 4163SOL    HW114328  11.238   9.678   7.681
 4163SOL    HW214329  11.318   9.717   7.559
 4164SOL     OW14330   8.673  13.519   9.973
 4164SOL    HW114331   8.623  13.583   9.921
 4164SOL    HW214332   8.666  13.437   9.923
 4165SOL     OW14333   3.075   6.230  12.624
 4165SOL    HW114334   3.036   6.143  12.624
 4165SOL    HW214335   3.000   6.290  12.621
 4166SOL     OW14336   4.687   8.945   2.139
 4166SOL    HW114337   4.753   8.920   2.204
 4166SOL    HW214338   4.712   9.033   2.113
 4167SOL     OW14339  12.900   2.219  12.917
 4167SOL    HW114340  12.890   2.292  12.857
 4167SOL    HW214341  12.867   2.251  13.001
 4168SOL     OW14342   8.904   0.042   9.033
 4168SOL    HW114343   8.836   0.082   9.087
 4168SOL    HW214344   8.980   0.099   9.044
 4169SOL     OW14345   3.704   8.494   2.978
 4169SOL    HW114346   3.676   8.579   3.012
 4169SOL    HW214347   3.703   8.436   3.054
 4170SOL     OW14348   5.617   0.835   3.671
 4170SOL    HW114349   5.595   0.755   3.624
 4170SOL    HW214350   5.695   0.869   3.627
 4171SOL     OW14351   1.744   9.903  12.748
 4171SOL    HW114352   1.818   9.929  12.803
 4171SOL    HW214353   1.783   9.848  12.680
 4172SOL     OW14354   4.961   5.558  14.283
 4172SOL    HW114355   5.019   5.534  14.211
 4172SOL    HW214356   4.996   5.511  14.359
 4173SOL     OW14357  11.435  13.865   1.378
 4173SOL    HW114358  11.351  13.910   1.391
 4173SOL    HW214359  11.452  13.874   1.285
 4174SOL     OW14360   9.538   7.398   8.725
 4174SOL    HW114361   9.586   7.472   8.762
 4174SOL    HW214362   9.457   7.394   8.776
 4175SOL     OW14363   8.548   5.232  11.850
 4175SOL    HW114364   8.591   5.207  11.768
 4175SOL    HW214365   8.506   5.316  11.831
 4176SOL     OW14366   3.889   0.379   6.092
 4176SOL    HW114367   3.953   0.414   6.031
 4176SOL    HW214368   3.939   0.321   6.150
 4177SOL     OW14369  12.492   8.576   7.238
 4177SOL    HW114370  12.421   8.512   7.247
 4177SOL    HW214371  12.465   8.631   7.165
 4178SOL     OW14372  11.589   1.058   2.862
 4178SOL    HW114373  11.535   1.044   2.940
 4178SOL    HW214374  11.637   0.976   2.851
 4179SOL     OW14375   5.625   9.437  14.445
 4179SOL    HW114376   5.606   9.365  14.385
 4179SOL    HW214377   5.553   9.436  14.508
 4180SOL     OW14378   0.408   6.805   1.058
 4180SOL    HW114379   0.453   6.775   0.979
 4180SOL    HW214380   0.443   6.751   1.128
 4181SOL     OW14381   3.301  11.740   9.118
 4181SOL    HW114382   3.271  11.745   9.028
 4181SOL    HW214383   3.309  11.646   9.135
 4182SOL     OW14384   8.913  12.586   1.277
 4182SOL    HW114385   8.871  12.639   1.209
 4182SOL    HW214386   9.005  12.610   1.273
 4183SOL     OW14387   1.880   6.036   6.274
 4183SOL    HW114388   1.975   6.030   6.265
 4183SOL    HW214389   1.854   6.108   6.217
 4184SOL     OW14390   6.945   8.906  10.634
 4184SOL    HW114391   6.910   8.968  10.570
 4184SOL    HW214392   6.895   8.826  10.618
 4185SOL     OW14393   0.370  12.718   5.313
 4185SOL    HW114394   0.300  12.678   5.261
 4185SOL    HW214395   0.449  12.702   5.263
 4186SOL     OW14396  11.972   4.179   6.187
 4186SOL    HW114397  11.903   4.137   6.136
 4186SOL    HW214398  11.983   4.265   6.146
 4187SOL     OW14399  12.919   0.463   1.554
 4187SOL    HW114400  12.896   0.403   1.483
 4187SOL    HW214401  12.890   0.418   1.634
 4188SOL     OW14402   9.598   8.263   3.562
 4188SOL    HW114403   9.534   8.334   3.561
 4188SOL    HW214404   9.636   8.265   3.649
 4189SOL     OW14405  11.822   5.217   0.710
 4189SOL    HW114406  11.901   5.174   0.680
 4189SOL    HW214407  11.772   5.235   0.631
 4190SOL     OW14408  11.346  11.876   6.151
 4190SOL    HW114409  11.405  11.866   6.076
 4190SOL    HW214410  11.274  11.930   6.118
 4191SOL     OW14411   3.143  14.554  11.967
 4191SOL    HW114412   3.049  14.549  11.985
 4191SOL    HW214413   3.177  14.614  12.035
 4192SOL     OW14414  14.239  11.402   6.430
 4192SOL    HW114415  14.300  11.376   6.499
 4192SOL    HW214416  14.179  11.462   6.472
 4193SOL     OW14417  11.600   2.846   4.588
 4193SOL    HW114418  11.557   2.772   4.632
 4193SOL    HW214419  11.622   2.906   4.659
 4194SOL     OW14420   7.521  11.994   8.029
 4194SOL    HW114421   7.443  12.022   8.078
 4194SOL    HW214422   7.525  11.899   8.044
 4195SOL     OW14423   8.593  12.162   8.403
 4195SOL    HW114424   8.674  12.110   8.403
 4195SOL    HW214425   8.523  12.099   8.419
 4196SOL     OW14426   7.936   3.873  11.705
 4196SOL    HW114427   8.020   3.839  11.674
 4196SOL    HW214428   7.958   3.955  11.749
 4197SOL     OW14429   8.424   3.575   0.574
 4197SOL    HW114430   8.509   3.543   0.543
 4197SOL    HW214431   8.393   3.632   0.503
 4198SOL     OW14432   4.873  13.710  12.513
 4198SOL    HW114433   4.896  13.660  12.591
 4198SOL    HW214434   4.778  13.719  12.517
 4199SOL     OW14435   3.285  14.498  10.447
 4199SOL    HW114436   3.298  14.416  10.496
 4199SOL    HW214437   3.272  14.470  10.356
 4200SOL     OW14438   3.327  11.079  10.373
 4200SOL    HW114439   3.311  11.022  10.449
 4200SOL    HW214440   3.310  11.023  10.297
 4201SOL     OW14441  10.747   9.512   0.808
 4201SOL    HW114442  10.705   9.595   0.830
 4201SOL    HW214443  10.841   9.531   0.812
 4202SOL     OW14444   1.881   2.449   7.633
 4202SOL    HW114445   1.963   2.498   7.642
 4202SOL    HW214446   1.836   2.461   7.716
 4203SOL     OW14447   0.504  12.636  13.502
 4203SOL    HW114448   0.550  12.719  13.493
 4203SOL    HW214449   0.465  12.621  13.416
 4204SOL     OW14450   0.059   1.700   4.926
 4204SOL    HW114451   0.065   1.666   4.836
 4204SOL    HW214452   0.139   1.671   4.968
 4205SOL     OW14453   4.613   6.995   9.547
 4205SOL    HW114454   4.534   6.985   9.600
 4205SOL    HW214455   4.586   7.046   9.471
 4206SOL     OW14456   9.694   3.121   6.862
 4206SOL    HW114457   9.738   3.037   6.855
 4206SOL    HW214458   9.614   3.103   6.911
 4207SOL     OW14459   3.283  13.895   4.976
 4207SOL    HW114460   3.206  13.839   4.970
 4207SOL    HW214461   3.352  13.847   4.930
 4208SOL     OW14462  13.892   7.749  12.031
 4208SOL    HW114463  13.897   7.798  11.949
 4208SOL    HW214464  13.799   7.730  12.042
 4209SOL     OW14465   7.775  11.787   9.335
 4209SOL    HW114466   7.856  11.836   9.322
 4209SOL    HW214467   7.725  11.801   9.255
 4210SOL     OW14468  12.738   5.584   7.651
 4210SOL    HW114469  12.671   5.640   7.612
 4210SOL    HW214470  12.751   5.620   7.739
 4211SOL     OW14471   3.757   0.146   6.135
 4211SOL    HW114472   3.778   0.239   6.145
 4211SOL    HW214473   3.705   0.125   6.212
 4212SOL     OW14474   2.633  12.937   6.846
 4212SOL    HW114475   2.617  12.981   6.929
 4212SOL    HW214476   2.548  12.902   6.821
 4213SOL     OW14477   8.496   6.083  13.053
 4213SOL    HW114478   8.423   6.124  13.007
 4213SOL    HW214479   8.505   5.997  13.013
 4214SOL     OW14480  10.357   3.846   8.967
 4214SOL    HW114481  10.443   3.804   8.973
 4214SOL    HW214482  10.335   3.868   9.057
 4215SOL     OW14483   8.381   6.025  11.893
 4215SOL    HW114484   8.331   5.955  11.936
 4215SOL    HW214485   8.326   6.051  11.819
 4216SOL     OW14486  11.272   0.161   7.389
 4216SOL    HW114487  11.362   0.182   7.363
 4216SOL    HW214488  11.283   0.096   7.459
 4217SOL     OW14489  11.581   0.792   5.360
 4217SOL    HW114490  11.615   0.708   5.330
 4217SOL    HW214491  11.518   0.818   5.292
 4218SOL     OW14492   1.290   3.637   4.422
 4218SOL    HW114493   1.259   3.688   4.348
 4218SOL    HW214494   1.252   3.680   4.499
 4219SOL     OW14495   2.589   6.991   1.720
 4219SOL    HW114496   2.535   7.043   1.661
 4219SOL    HW214497   2.611   7.051   1.791
 4220SOL     OW14498   8.671   1.116   8.966
 4220SOL    HW114499   8.693   1.119   8.873
 4220SOL    HW214500   8.597   1.055   8.971
 4221SOL     OW14501  12.616   4.835  12.510
 4221SOL    HW114502  12.636   4.879  12.593
 4221SOL    HW214503  12.669   4.883  12.446
 4222SOL     OW14504  14.133  12.518   5.803
 4222SOL    HW114505  14.196  12.529   5.732
 4222SOL    HW214506  14.067  12.585   5.788
 4223SOL     OW14507   0.871   9.764  10.834
 4223SOL    HW114508   0.776   9.765  10.822
 4223SOL    HW214509   0.897   9.855  10.825
 4224SOL     OW14510  13.061   2.324   5.057
 4224SOL    HW114511  13.130   2.302   5.120
 4224SOL    HW214512  13.081   2.414   5.030
 4225SOL     OW14513   3.488   0.435  14.418
 4225SOL    HW114514   3.492   0.440  14.322
 4225SOL    HW214515   3.440   0.513  14.444
 4226SOL     OW14516   8.928   1.467   3.848
 4226SOL    HW114517   8.880   1.428   3.775
 4226SOL    HW214518   9.014   1.489   3.811
 4227SOL     OW14519   9.700   8.806   2.131
 4227SOL    HW114520   9.697   8.901   2.126
 4227SOL    HW214521   9.637   8.776   2.066
 4228SOL     OW14522   7.342   9.641  10.459
 4228SOL    HW114523   7.316   9.631  10.367
 4228SOL    HW214524   7.358   9.551  10.488
 4229SOL     OW14525  10.279   0.345   8.532
 4229SOL    HW114526  10.370   0.358   8.557
 4229SOL    HW214527  10.232   0.419   8.572
 4230SOL     OW14528  10.983   7.783   7.655
 4230SOL    HW114529  11.069   7.816   7.678
 4230SOL    HW214530  10.972   7.705   7.709
 4231SOL     OW14531   9.929   6.450   5.311
 4231SOL    HW114532   9.928   6.358   5.335
 4231SOL    HW214533   9.984   6.492   5.378
 4232SOL     OW14534   1.092   3.964  11.255
 4232SOL    HW114535   1.008   3.944  11.214
 4232SOL    HW214536   1.081   3.937  11.346
 4233SOL     OW14537  14.254   9.428   9.621
 4233SOL    HW114538  14.159   9.426   9.618
 4233SOL    HW214539  14.280   9.337   9.605
 4234SOL     OW14540   7.869  14.433   2.910
 4234SOL    HW114541   7.877  14.528   2.921
 4234SOL    HW214542   7.949  14.407   2.865
 4235SOL     OW14543   9.946  10.924   8.350
 4235SOL    HW114544   9.977  10.913   8.440
 4235SOL    HW214545  10.018  10.892   8.295
 4236SOL     OW14546  10.887   0.562   7.367
 4236SOL    HW114547  10.911   0.619   7.294
 4236SOL    HW214548  10.937   0.482   7.353
 4237SOL     OW14549  12.815   1.534  13.040
 4237SOL    HW114550  12.795   1.600  12.974
 4237SOL    HW214551  12.808   1.580  13.124
 4238SOL     OW14552   8.149   8.429   9.295
 4238SOL    HW114553   8.205   8.477   9.235
 4238SOL    HW214554   8.060   8.459   9.275
 4239SOL     OW14555   1.487   2.897   5.756
 4239SOL    HW114556   1.506   2.821   5.811
 4239SOL    HW214557   1.422   2.947   5.806
 4240SOL     OW14558   1.019   9.021  14.697
 4240SOL    HW114559   0.998   9.029  14.604
 4240SOL    HW214560   0.939   9.045  14.742
 4241SOL     OW14561   9.029   4.044  12.044
 4241SOL    HW114562   9.078   4.052  11.962
 4241SOL    HW214563   9.080   3.981  12.096
 4242SOL     OW14564   6.523   8.114  11.921
 4242SOL    HW114565   6.462   8.170  11.872
 4242SOL    HW214566   6.493   8.120  12.012
 4243SOL     OW14567  14.732   2.323   4.440
 4243SOL    HW114568  14.666   2.270   4.485
 4243SOL    HW214569  14.707   2.321   4.348
 4244SOL     OW14570   6.051  13.088  14.266
 4244SOL    HW114571   6.057  13.084  14.171
 4244SOL    HW214572   5.965  13.052  14.287
 4245SOL     OW14573   6.976   2.559  11.908
 4245SOL    HW114574   6.997   2.619  11.837
 4245SOL    HW214575   7.060   2.544  11.952
 4246SOL     OW14576   1.227  13.622   6.476
 4246SOL    HW114577   1.184  13.619   6.391
 4246SOL    HW214578   1.317  13.594   6.459
 4247SOL     OW14579   7.414   8.717   2.891
 4247SOL    HW114580   7.373   8.796   2.927
 4247SOL    HW214581   7.414   8.731   2.797
 4248SOL     OW14582   5.680   9.306   6.611
 4248SOL    HW114583   5.639   9.304   6.698
 4248SOL    HW214584   5.606   9.307   6.550
 4249SOL     OW14585   4.791   6.703   2.125
 4249SOL    HW114586   4.790   6.690   2.220
 4249SOL    HW214587   4.860   6.645   2.093
 4250SOL     OW14588   2.448   3.123  12.730
 4250SOL    HW114589   2.474   3.163  12.813
 4250SOL    HW214590   2.530   3.104  12.685
 4251SOL     OW14591  13.554   7.437   1.679
 4251SOL    HW114592  13.481   7.414   1.736
 4251SOL    HW214593  13.592   7.353   1.655
 4252SOL     OW14594  11.857   6.543   6.125
 4252SOL    HW114595  11.887   6.530   6.215
 4252SOL    HW214596  11.768   6.510   6.124
 4253SOL     OW14597   9.585  14.526  11.152
 4253SOL    HW114598   9.539  14.479  11.222
 4253SOL    HW214599   9.558  14.482  11.072
 4254SOL     OW14600  11.543   4.892  14.370
 4254SOL    HW114601  11.550   4.890  14.465
 4254SOL    HW214602  11.492   4.971  14.351
 4255SOL     OW14603   9.768  10.872   1.316
 4255SOL    HW114604   9.826  10.925   1.261
 4255SOL    HW214605   9.825  10.808   1.358
 4256SOL     OW14606   8.382   2.132   4.834
 4256SOL    HW114607   8.348   2.084   4.758
 4256SOL    HW214608   8.306   2.176   4.870
 4257SOL     OW14609  10.444   2.087   5.224
 4257SOL    HW114610  10.411   2.162   5.174
 4257SOL    HW214611  10.416   2.104   5.314
 4258SOL     OW14612  14.136   9.644  11.131
 4258SOL    HW114613  14.175   9.584  11.193
 4258SOL    HW214614  14.182   9.628  11.049
 4259SOL     OW14615  14.029   9.131   1.619
 4259SOL    HW114616  14.052   9.133   1.712
 4259SOL    HW214617  13.960   9.197   1.610
 4260SOL     OW14618   0.532   1.102  11.600
 4260SOL    HW114619   0.447   1.145  11.592
 4260SOL    HW214620   0.548   1.065  11.513
 4261SOL     OW14621   2.331  13.190   1.414
 4261SOL    HW114622   2.358  13.219   1.327
 4261SOL    HW214623   2.296  13.269   1.455
 4262SOL     OW14624  13.234  14.647  12.702
 4262SOL    HW114625  13.156  14.684  12.743
 4262SOL    HW214626  13.268  14.586  12.766
 4263SOL     OW14627  11.317   1.874   4.392
 4263SOL    HW114628  11.350   1.920   4.315
 4263SOL    HW214629  11.365   1.912   4.465
 4264SOL     OW14630   7.311  12.509   6.790
 4264SOL    HW114631   7.350  12.593   6.766
 4264SOL    HW214632   7.378  12.444   6.765
 4265SOL     OW14633  14.801   9.442   5.511
 4265SOL    HW114634  14.867   9.504   5.482
 4265SOL    HW214635  14.829   9.358   5.473
 4266SOL     OW14636   4.157   1.692  10.825
 4266SOL    HW114637   4.252   1.685  10.829
 4266SOL    HW214638   4.127   1.603  10.808
 4267SOL     OW14639   5.059   9.774   1.983
 4267SOL    HW114640   5.026   9.710   2.046
 4267SOL    HW214641   4.996   9.773   1.911
 4268SOL     OW14642  13.352   5.521   4.618
 4268SOL    HW114643  13.385   5.591   4.675
 4268SOL    HW214644  13.265   5.551   4.592
 4269SOL     OW14645  11.639   1.492   0.667
 4269SOL    HW114646  11.601   1.413   0.628
 4269SOL    HW214647  11.613   1.563   0.608
 4270SOL     OW14648  14.353   8.455  11.384
 4270SOL    HW114649  14.299   8.394  11.333
 4270SOL    HW214650  14.437   8.457  11.337
 4271SOL     OW14651  13.580  13.161   6.378
 4271SOL    HW114652  13.503  13.174   6.323
 4271SOL    HW214653  13.616  13.076   6.350
 4272SOL     OW14654   6.426   4.164   0.985
 4272SOL    HW114655   6.453   4.226   0.917
 4272SOL    HW214656   6.363   4.213   1.039
 4273SOL     OW14657   1.722   9.476   6.014
 4273SOL    HW114658   1.737   9.466   5.921
 4273SOL    HW214659   1.700   9.389   6.045
 4274SOL     OW14660   7.624  10.400  14.070
 4274SOL    HW114661   7.565  10.471  14.044
 4274SOL    HW214662   7.681  10.387  13.994
 4275SOL     OW14663   9.218  11.727  11.102
 4275SOL    HW114664   9.138  11.763  11.065
 4275SOL    HW214665   9.263  11.685  11.028
 4276SOL     OW14666  11.320   6.004   7.232
 4276SOL    HW114667  11.366   5.983   7.313
 4276SOL    HW214668  11.380   5.976   7.163
 4277SOL     OW14669   8.354   2.299   8.253
 4277SOL    HW114670   8.431   2.356   8.263
 4277SOL    HW214671   8.367   2.229   8.317
 4278SOL     OW14672   2.502  10.228  12.487
 4278SOL    HW114673   2.580  10.269  12.450
 4278SOL    HW214674   2.431  10.289  12.465
 4279SOL     OW14675   6.531  12.631   5.115
 4279SOL    HW114676   6.612  12.657   5.071
 4279SOL    HW214677   6.534  12.535   5.116
 4280SOL     OW14678   5.808   3.751   9.235
 4280SOL    HW114679   5.782   3.805   9.160
 4280SOL    HW214680   5.900   3.730   9.218
 4281SOL     OW14681   1.648  11.880  12.130
 4281SOL    HW114682   1.730  11.907  12.172
 4281SOL    HW214683   1.648  11.785  12.136
 4282SOL     OW14684   9.276  12.736   2.402
 4282SOL    HW114685   9.217  12.720   2.329
 4282SOL    HW214686   9.223  12.784   2.466
 4283SOL     OW14687   1.279   8.665   2.925
 4283SOL    HW114688   1.287   8.752   2.963
 4283SOL    HW214689   1.185   8.654   2.910
 4284SOL     OW14690  12.706   1.527   3.714
 4284SOL    HW114691  12.671   1.539   3.625
 4284SOL    HW214692  12.708   1.433   3.727
 4285SOL     OW14693   7.644  13.632   6.452
 4285SOL    HW114694   7.671  13.596   6.536
 4285SOL    HW214695   7.616  13.721   6.472
 4286SOL     OW14696  10.157   7.408   5.637
 4286SOL    HW114697  10.183   7.356   5.561
 4286SOL    HW214698  10.070   7.375   5.661
 4287SOL     OW14699   2.324  13.463  14.841
 4287SOL    HW114700   2.376  13.510  14.776
 4287SOL    HW214701   2.383  13.451   0.035
 4288SOL     OW14702   8.897   4.820  13.708
 4288SOL    HW114703   8.936   4.894  13.660
 4288SOL    HW214704   8.837   4.780  13.645
 4289SOL     OW14705  13.500  12.953   8.690
 4289SOL    HW114706  13.432  12.887   8.704
 4289SOL    HW214707  13.488  13.016   8.761
 4290SOL     OW14708   1.211  11.446   8.243
 4290SOL    HW114709   1.161  11.379   8.197
 4290SOL    HW214710   1.189  11.434   8.335
 4291SOL     OW14711   0.519   5.963   9.121
 4291SOL    HW114712   0.595   5.998   9.167
 4291SOL    HW214713   0.448   5.967   9.186
 4292SOL     OW14714   3.889   8.918  12.368
 4292SOL    HW114715   3.893   8.991  12.306
 4292SOL    HW214716   3.890   8.839  12.313
 4293SOL     OW14717   7.737   3.921   5.463
 4293SOL    HW114718   7.779   3.972   5.531
 4293SOL    HW214719   7.767   3.831   5.477
 4294SOL     OW14720   4.059  12.774   1.956
 4294SOL    HW114721   4.066  12.811   2.044
 4294SOL    HW214722   4.072  12.680   1.968
 4295SOL     OW14723   6.267   4.854   1.363
 4295SOL    HW114724   6.310   4.781   1.318
 4295SOL    HW214725   6.329   4.881   1.431
 4296SOL     OW14726  11.725   0.697   4.789
 4296SOL    HW114727  11.695   0.737   4.871
 4296SOL    HW214728  11.807   0.741   4.770
 4297SOL     OW14729   4.007   2.733   5.158
 4297SOL    HW114730   4.081   2.780   5.121
 4297SOL    HW214731   3.949   2.802   5.190
 4298SOL     OW14732  11.835   9.024   0.543
 4298SOL    HW114733  11.826   8.973   0.623
 4298SOL    HW214734  11.802   8.966   0.474
 4299SOL     OW14735   6.699   6.485  12.253
 4299SOL    HW114736   6.643   6.527  12.319
 4299SOL    HW214737   6.637   6.442  12.194
 4300SOL     OW14738   2.691   6.690   1.573
 4300SOL    HW114739   2.777   6.669   1.537
 4300SOL    HW214740   2.653   6.751   1.510
 4301SOL     OW14741   9.924   9.112  12.978
 4301SOL    HW114742   9.864   9.115  12.904
 4301SOL    HW214743   9.968   9.028  12.969
 4302SOL     OW14744   9.675   4.307   2.482
 4302SOL    HW114745   9.674   4.237   2.548
 4302SOL    HW214746   9.663   4.388   2.533
 4303SOL     OW14747  14.239   8.034   0.833
 4303SOL    HW114748  14.246   7.955   0.886
 4303SOL    HW214749  14.304   8.093   0.870
 4304SOL     OW14750   7.702  13.218   5.666
 4304SOL    HW114751   7.607  13.223   5.666
 4304SOL    HW214752   7.722  13.125   5.664
 4305SOL     OW14753   0.138   2.156  13.222
 4305SOL    HW114754   0.078   2.089  13.256
 4305SOL    HW214755   0.110   2.237  13.264
 4306SOL     OW14756   8.841   0.248   9.955
 4306SOL    HW114757   8.846   0.176  10.019
 4306SOL    HW214758   8.820   0.204   9.872
 4307SOL     OW14759   0.678   0.366  14.244
 4307SOL    HW114760   0.693   0.283  14.290
 4307SOL    HW214761   0.720   0.353  14.159
 4308SOL     OW14762   6.550  12.004  14.411
 4308SOL    HW114763   6.553  11.919  14.456
 4308SOL    HW214764   6.519  12.065  14.479
 4309SOL     OW14765  14.225   1.357  14.484
 4309SOL    HW114766  14.252   1.441  14.521
 4309SOL    HW214767  14.188   1.379  14.398
 4310SOL     OW14768   0.172  13.214   1.523
 4310SOL    HW114769   0.145  13.277   1.589
 4310SOL    HW214770   0.101  13.214   1.459
 4311SOL     OW14771   3.664   5.370  11.776
 4311SOL    HW114772   3.660   5.323  11.692
 4311SOL    HW214773   3.630   5.308  11.840
 4312SOL     OW14774  11.633   4.551   0.256
 4312SOL    HW114775  11.667   4.629   0.213
 4312SOL    HW214776  11.547   4.577   0.288
 4313SOL     OW14777  10.224   0.995   2.649
 4313SOL    HW114778  10.187   0.947   2.724
 4313SOL    HW214779  10.246   1.081   2.685
 4314SOL     OW14780   6.622   6.219   6.056
 4314SOL    HW114781   6.600   6.307   6.027
 4314SOL    HW214782   6.660   6.176   5.980
 4315SOL     OW14783   0.733  13.904   1.940
 4315SOL    HW114784   0.806  13.846   1.959
 4315SOL    HW214785   0.692  13.867   1.862
 4316SOL     OW14786  13.411   0.030   9.840
 4316SOL    HW114787  13.424   0.049   9.747
 4316SOL    HW214788  13.489   0.066   9.883
 4317SOL     OW14789  10.109  10.262   5.722
 4317SOL    HW114790  10.163  10.184   5.721
 4317SOL    HW214791  10.019  10.229   5.727
 4318SOL     OW14792   6.352   1.787   4.668
 4318SOL    HW114793   6.294   1.860   4.687
 4318SOL    HW214794   6.293   1.712   4.655
 4319SOL     OW14795   5.567  10.213   5.091
 4319SOL    HW114796   5.558  10.233   5.185
 4319SOL    HW214797   5.655  10.176   5.083
 4320SOL     OW14798   3.475   9.749   3.435
 4320SOL    HW114799   3.417   9.778   3.505
 4320SOL    HW214800   3.437   9.786   3.355
 4321SOL     OW14801  12.113  12.845  10.730
 4321SOL    HW114802  12.166  12.809  10.802
 4321SOL    HW214803  12.117  12.939  10.742
 4322SOL     OW14804   8.708  11.097   4.625
 4322SOL    HW114805   8.615  11.087   4.605
 4322SOL    HW214806   8.748  11.018   4.588
 4323SOL     OW14807   6.990   2.446   9.234
 4323SOL    HW114808   7.050   2.511   9.198
 4323SOL    HW214809   6.907   2.462   9.188
 4324SOL     OW14810   4.769   1.823  10.145
 4324SOL    HW114811   4.794   1.736  10.177
 4324SOL    HW214812   4.772   1.815  10.050
 4325SOL     OW14813   0.435   8.898  12.185
 4325SOL    HW114814   0.375   8.855  12.124
 4325SOL    HW214815   0.450   8.834  12.253
 4326SOL     OW14816   1.257   9.936   7.495
 4326SOL    HW114817   1.236   9.963   7.405
 4326SOL    HW214818   1.352   9.947   7.501
 4327SOL     OW14819  14.233   4.082   6.362
 4327SOL    HW114820  14.312   4.030   6.348
 4327SOL    HW214821  14.263   4.173   6.355
 4328SOL     OW14822  14.061   8.990  13.337
 4328SOL    HW114823  14.104   8.999  13.422
 4328SOL    HW214824  14.026   9.077  13.319
 4329SOL     OW14825   2.371   8.840   6.725
 4329SOL    HW114826   2.404   8.800   6.644
 4329SOL    HW214827   2.429   8.914   6.740
 4330SOL     OW14828   9.471   7.132   8.908
 4330SOL    HW114829   9.393   7.182   8.934
 4330SOL    HW214830   9.436   7.054   8.865
 4331SOL     OW14831  14.181   6.777   4.307
 4331SOL    HW114832  14.105   6.722   4.289
 4331SOL    HW214833  14.221   6.738   4.385
 4332SOL     OW14834  12.284   7.903  12.810
 4332SOL    HW114835  12.336   7.823  12.813
 4332SOL    HW214836  12.340   7.969  12.852
 4333SOL     OW14837   4.490   0.852  11.545
 4333SOL    HW114838   4.518   0.777  11.597
 4333SOL    HW214839   4.570   0.880  11.498
 4334SOL     OW14840  13.185   3.554   4.790
 4334SOL    HW114841  13.212   3.597   4.709
 4334SOL    HW214842  13.264   3.554   4.845
 4335SOL     OW14843  13.533   5.865  14.071
 4335SOL    HW114844  13.607   5.920  14.093
 4335SOL    HW214845  13.540   5.851  13.977
 4336SOL     OW14846   2.790   4.567  12.105
 4336SOL    HW114847   2.698   4.560  12.079
 4336SOL    HW214848   2.787   4.610  12.191
 4337SOL     OW14849   8.979   9.645   9.701
 4337SOL    HW114850   9.047   9.622   9.638
 4337SOL    HW214851   9.011   9.725   9.743
 4338SOL     OW14852   0.913  12.985   7.406
 4338SOL    HW114853   0.999  12.999   7.365
 4338SOL    HW214854   0.933  12.938   7.487
 4339SOL     OW14855   6.372  10.394   3.146
 4339SOL    HW114856   6.433  10.468   3.136
 4339SOL    HW214857   6.380  10.370   3.239
 4340SOL     OW14858  12.496   2.154   1.188
 4340SOL    HW114859  12.513   2.143   1.094
 4340SOL    HW214860  12.401   2.144   1.196
 4341SOL     OW14861   6.187  14.303   5.041
 4341SOL    HW114862   6.098  14.273   5.023
 4341SOL    HW214863   6.210  14.355   4.963
 4342SOL     OW14864  14.755   7.478   9.099
 4342SOL    HW114865  14.756   7.563   9.144
 4342SOL    HW214866  14.748   7.413   9.169
 4343SOL     OW14867  14.158   6.005   7.584
 4343SOL    HW114868  14.131   6.078   7.641
 4343SOL    HW214869  14.250   5.992   7.605
 4344SOL     OW14870   2.896  10.546   6.182
 4344SOL    HW114871   2.988  10.572   6.183
 4344SOL    HW214872   2.863  10.570   6.269
 4345SOL     OW14873   4.044   3.306  11.395
 4345SOL    HW114874   4.120   3.343  11.441
 4345SOL    HW214875   4.025   3.225  11.442
 4346SOL     OW14876   2.320   7.576   6.615
 4346SOL    HW114877   2.230   7.548   6.604
 4346SOL    HW214878   2.314   7.669   6.637
 4347SOL     OW14879   6.374   0.854   5.226
 4347SOL    HW114880   6.433   0.863   5.300
 4347SOL    HW214881   6.308   0.790   5.256
 4348SOL     OW14882  13.455   9.396   6.183
 4348SOL    HW114883  13.477   9.399   6.276
 4348SOL    HW214884  13.476   9.484   6.150
 4349SOL     OW14885  11.821   3.307   6.852
 4349SOL    HW114886  11.826   3.217   6.885
 4349SOL    HW214887  11.894   3.352   6.894
 4350SOL     OW14888   6.221   1.940  14.566
 4350SOL    HW114889   6.246   1.895  14.647
 4350SOL    HW214890   6.217   2.032  14.591
 4351SOL     OW14891   7.739   0.686   3.441
 4351SOL    HW114892   7.687   0.610   3.467
 4351SOL    HW214893   7.809   0.691   3.506
 4352SOL     OW14894  10.241  13.768   7.212
 4352SOL    HW114895  10.297  13.776   7.135
 4352SOL    HW214896  10.286  13.819   7.279
 4353SOL     OW14897   2.856   7.409   2.138
 4353SOL    HW114898   2.923   7.476   2.122
 4353SOL    HW214899   2.903   7.339   2.183
 4354SOL     OW14900   3.934   3.846   7.007
 4354SOL    HW114901   4.005   3.794   7.044
 4354SOL    HW214902   3.977   3.924   6.972
 4355SOL     OW14903   0.714   1.575   2.416
 4355SOL    HW114904   0.721   1.567   2.321
 4355SOL    HW214905   0.652   1.507   2.441
 4356SOL     OW14906  12.926   9.617   4.220
 4356SOL    HW114907  12.922   9.599   4.314
 4356SOL    HW214908  12.939   9.711   4.214
 4357SOL     OW14909  12.897  13.312   0.166
 4357SOL    HW114910  12.803  13.325   0.179
 4357SOL    HW214911  12.922  13.380   0.103
 4358SOL     OW14912  11.006   9.240  11.103
 4358SOL    HW114913  11.098   9.212  11.103
 4358SOL    HW214914  10.959   9.167  11.143
 4359SOL     OW14915  11.290   3.236  14.066
 4359SOL    HW114916  11.238   3.316  14.070
 4359SOL    HW214917  11.380   3.265  14.085
 4360SOL     OW14918   2.992  10.186   8.455
 4360SOL    HW114919   3.076  10.231   8.444
 4360SOL    HW214920   2.932  10.253   8.485
 4361SOL     OW14921  11.550   1.585  14.161
 4361SOL    HW114922  11.472   1.640  14.168
 4361SOL    HW214923  11.587   1.586  14.250
 4362SOL     OW14924   6.422  11.613   7.743
 4362SOL    HW114925   6.475  11.534   7.752
 4362SOL    HW214926   6.426  11.633   7.649
 4363SOL     OW14927   1.994  12.683   2.347
 4363SOL    HW114928   1.998  12.588   2.336
 4363SOL    HW214929   2.081  12.714   2.323
 4364SOL     OW14930   6.455   4.586  13.310
 4364SOL    HW114931   6.454   4.569  13.405
 4364SOL    HW214932   6.424   4.676  13.302
 4365SOL     OW14933  10.473   5.282  13.080
 4365SOL    HW114934  10.385   5.244  13.077
 4365SOL    HW214935  10.521   5.236  13.011
 4366SOL     OW14936  11.582   5.518   3.598
 4366SOL    HW114937  11.496   5.508   3.557
 4366SOL    HW214938  11.610   5.429   3.618
 4367SOL     OW14939   1.094   9.199  12.093
 4367SOL    HW114940   1.084   9.103  12.093
 4367SOL    HW214941   1.009   9.232  12.122
 4368SOL     OW14942  13.934   4.774   6.232
 4368SOL    HW114943  13.899   4.860   6.254
 4368SOL    HW214944  13.960   4.737   6.317
 4369SOL     OW14945  13.481   8.904   9.690
 4369SOL    HW114946  13.520   8.861   9.613
 4369SOL    HW214947  13.448   8.987   9.657
 4370SOL     OW14948  11.438   7.592  14.552
 4370SOL    HW114949  11.512   7.585  14.612
 4370SOL    HW214950  11.362   7.599  14.610
 4371SOL     OW14951   8.026   8.421   1.886
 4371SOL    HW114952   7.967   8.361   1.933
 4371SOL    HW214953   8.034   8.497   1.944
 4372SOL     OW14954  10.746   9.420   2.423
 4372SOL    HW114955  10.815   9.395   2.484
 4372SOL    HW214956  10.772   9.381   2.340
 4373SOL     OW14957   5.847   7.422  13.401
 4373SOL    HW114958   5.802   7.378  13.473
 4373SOL    HW214959   5.802   7.393  13.322
 4374SOL     OW14960  10.679   7.784   4.338
 4374SOL    HW114961  10.603   7.728   4.318
 4374SOL    HW214962  10.672   7.856   4.275
 4375SOL     OW14963   6.959   2.717  14.382
 4375SOL    HW114964   6.990   2.636  14.341
 4375SOL    HW214965   6.872   2.731  14.344
 4376SOL     OW14966   9.129  11.504  14.639
 4376SOL    HW114967   9.180  11.574  14.680
 4376SOL    HW214968   9.076  11.548  14.573
 4377SOL     OW14969   5.473   3.907   4.134
 4377SOL    HW114970   5.435   3.929   4.219
 4377SOL    HW214971   5.417   3.837   4.100
 4378SOL     OW14972   0.732   1.085  12.504
 4378SOL    HW114973   0.716   0.993  12.485
 4378SOL    HW214974   0.735   1.089  12.600
 4379SOL     OW14975   2.097   6.423   0.053
 4379SOL    HW114976   2.139   6.479   0.118
 4379SOL    HW214977   2.154   6.428  14.856
 4380SOL     OW14978   8.333   9.383   5.864
 4380SOL    HW114979   8.264   9.393   5.798
 4380SOL    HW214980   8.403   9.336   5.818
 4381SOL     OW14981  14.251   1.862   4.702
 4381SOL    HW114982  14.277   1.875   4.793
 4381SOL    HW214983  14.303   1.927   4.653
 4382SOL     OW14984   4.454   2.600  10.307
 4382SOL    HW114985   4.499   2.677  10.273
 4382SOL    HW214986   4.364   2.609  10.277
 4383SOL     OW14987   5.819  10.995   4.504
 4383SOL    HW114988   5.878  11.066   4.529
 4383SOL    HW214989   5.767  10.978   4.583
 4384SOL     OW14990   8.129   6.220   3.884
 4384SOL    HW114991   8.106   6.258   3.799
 4384SOL    HW214992   8.173   6.292   3.931
 4385SOL     OW14993   6.950   3.201   5.711
 4385SOL    HW114994   6.970   3.115   5.673
 4385SOL    HW214995   6.928   3.255   5.635
 4386SOL     OW14996   7.521  13.382   7.834
 4386SOL    HW114997   7.448  13.443   7.837
 4386SOL    HW214998   7.578  13.410   7.906
 4387SOL     OW14999  12.890   8.862   1.729
 4387SOL    HW115000  12.865   8.913   1.805
 4387SOL    HW215001  12.977   8.827   1.749
 4388SOL     OW15002  13.520  10.434   6.792
 4388SOL    HW115003  13.600  10.397   6.755
 4388SOL    HW215004  13.504  10.383   6.871
 4389SOL     OW15005   7.303   2.310   7.134
 4389SOL    HW115006   7.315   2.215   7.130
 4389SOL    HW215007   7.208   2.322   7.139
 4390SOL     OW15008  14.029  13.625  11.654
 4390SOL    HW115009  14.069  13.702  11.613
 4390SOL    HW215010  13.958  13.661  11.707
 4391SOL     OW15011   2.230   3.282   1.840
 4391SOL    HW115012   2.168   3.292   1.768
 4391SOL    HW215013   2.178   3.299   1.919
 4392SOL     OW15014   7.658   1.323   6.960
 4392SOL    HW115015   7.729   1.387   6.965
 4392SOL    HW215016   7.633   1.322   6.868
 4393SOL     OW15017   0.022  13.624   5.926
 4393SOL    HW115018   0.034  13.700   5.869
 4393SOL    HW215019  14.827  13.578   5.888
 4394SOL     OW15020   6.515   9.517   7.155
 4394SOL    HW115021   6.571   9.462   7.210
 4394SOL    HW215022   6.487   9.459   7.084
 4395SOL     OW15023  14.799  12.777   6.122
 4395SOL    HW115024  14.704  12.768   6.115
 4395SOL    HW215025  14.814  12.871   6.133
 4396SOL     OW15026   6.222  10.184   2.937
 4396SOL    HW115027   6.273  10.244   2.991
 4396SOL    HW215028   6.204  10.233   2.857
 4397SOL     OW15029  10.424   1.855  10.318
 4397SOL    HW115030  10.498   1.847  10.377
 4397SOL    HW215031  10.425   1.946  10.288
 4398SOL     OW15032   8.898   7.213  12.068
 4398SOL    HW115033   8.987   7.182  12.051
 4398SOL    HW215034   8.909   7.307  12.086
 4399SOL     OW15035   6.121   2.165  14.083
 4399SOL    HW115036   6.100   2.072  14.077
 4399SOL    HW215037   6.148   2.190  13.995
 4400SOL     OW15038  14.021   0.037   5.434
 4400SOL    HW115039  13.958   0.083   5.378
 4400SOL    HW215040  14.063   0.106   5.485
 4401SOL     OW15041  11.045   0.805   3.514
 4401SOL    HW115042  10.981   0.872   3.539
 4401SOL    HW215043  11.017   0.727   3.561
 4402SOL     OW15044   4.355   6.897   7.979
 4402SOL    HW115045   4.269   6.934   7.997
 4402SOL    HW215046   4.367   6.907   7.884
 4403SOL     OW15047   3.980   9.032   9.612
 4403SOL    HW115048   3.975   9.094   9.540
 4403SOL    HW215049   4.058   9.058   9.661
 4404SOL     OW15050  13.347  13.123  14.771
 4404SOL    HW115051  13.322  13.132  14.862
 4404SOL    HW215052  13.413  13.191  14.757
 4405SOL     OW15053   1.552   3.966   5.679
 4405SOL    HW115054   1.500   4.026   5.732
 4405SOL    HW215055   1.489   3.904   5.643
 4406SOL     OW15056  12.661  13.820   3.148
 4406SOL    HW115057  12.710  13.838   3.068
 4406SOL    HW215058  12.569  13.822   3.120
 4407SOL     OW15059   8.804   3.388   4.601
 4407SOL    HW115060   8.770   3.378   4.690
 4407SOL    HW215061   8.841   3.476   4.599
 4408SOL     OW15062   4.984   1.799  12.694
 4408SOL    HW115063   4.915   1.835  12.639
 4408SOL    HW215064   5.061   1.853  12.676
 4409SOL     OW15065  10.208  10.812   3.594
 4409SOL    HW115066  10.127  10.795   3.644
 4409SOL    HW215067  10.278  10.790   3.655
 4410SOL     OW15068  10.811  12.976  12.897
 4410SOL    HW115069  10.735  12.949  12.846
 4410SOL    HW215070  10.774  13.023  12.972
 4411SOL     OW15071  14.222  14.459   9.112
 4411SOL    HW115072  14.222  14.536   9.054
 4411SOL    HW215073  14.130  14.447   9.137
 4412SOL     OW15074  12.113   7.221   3.336
 4412SOL    HW115075  12.054   7.276   3.283
 4412SOL    HW215076  12.180   7.282   3.367
 4413SOL     OW15077   2.391  13.827   0.779
 4413SOL    HW115078   2.372  13.742   0.739
 4413SOL    HW215079   2.441  13.874   0.713
 4414SOL     OW15080   6.694   2.872  11.762
 4414SOL    HW115081   6.766   2.876  11.698
 4414SOL    HW215082   6.731   2.912  11.841
 4415SOL     OW15083   5.068  13.694   6.982
 4415SOL    HW115084   4.992  13.752   6.993
 4415SOL    HW215085   5.066  13.637   7.059
 4416SOL     OW15086   1.792   7.143  12.571
 4416SOL    HW115087   1.864   7.161  12.511
 4416SOL    HW215088   1.734   7.085  12.521
 4417SOL     OW15089   6.473   2.759   8.012
 4417SOL    HW115090   6.480   2.848   8.045
 4417SOL    HW215091   6.559   2.740   7.974
 4418SOL     OW15092  14.561   6.284  13.041
 4418SOL    HW115093  14.522   6.366  13.010
 4418SOL    HW215094  14.520   6.217  12.986
 4419SOL     OW15095  14.012   5.046   7.202
 4419SOL    HW115096  14.012   5.140   7.187
 4419SOL    HW215097  14.011   5.008   7.114
 4420SOL     OW15098  12.793   4.321   9.013
 4420SOL    HW115099  12.824   4.266   9.085
 4420SOL    HW215100  12.866   4.380   8.994
 4421SOL     OW15101   7.581   4.145  14.137
 4421SOL    HW115102   7.556   4.062  14.097
 4421SOL    HW215103   7.502   4.198  14.133
 4422SOL     OW15104   7.595   4.714   8.147
 4422SOL    HW115105   7.547   4.785   8.105
 4422SOL    HW215106   7.687   4.740   8.138
 4423SOL     OW15107   7.246  14.196   8.584
 4423SOL    HW115108   7.334  14.225   8.607
 4423SOL    HW215109   7.230  14.121   8.641
 4424SOL     OW15110  12.561  14.480  13.483
 4424SOL    HW115111  12.509  14.442  13.412
 4424SOL    HW215112  12.499  14.534  13.532
 4425SOL     OW15113   7.388  13.582  10.732
 4425SOL    HW115114   7.339  13.656  10.697
 4425SOL    HW215115   7.344  13.505  10.696
 4426SOL     OW15116  14.080   3.227  11.041
 4426SOL    HW115117  13.990   3.261  11.037
 4426SOL    HW215118  14.070   3.132  11.041
 4427SOL     OW15119  10.811  11.493   4.639
 4427SOL    HW115120  10.885  11.539   4.599
 4427SOL    HW215121  10.842  11.468   4.726
 4428SOL     OW15122   7.197  10.866   6.710
 4428SOL    HW115123   7.179  10.792   6.768
 4428SOL    HW215124   7.178  10.944   6.762
 4429SOL     OW15125  12.035  12.957  10.313
 4429SOL    HW115126  12.112  12.937  10.260
 4429SOL    HW215127  11.961  12.933  10.258
 4430SOL     OW15128  12.883  13.373   1.210
 4430SOL    HW115129  12.906  13.313   1.281
 4430SOL    HW215130  12.801  13.413   1.238
 4431SOL     OW15131  11.685   7.487  14.431
 4431SOL    HW115132  11.778   7.476  14.414
 4431SOL    HW215133  11.680   7.551  14.502
 4432SOL     OW15134  14.843   9.761   1.540
 4432SOL    HW115135  14.812   9.817   1.469
 4432SOL    HW215136  14.780   9.689   1.542
 4433SOL     OW15137   9.859   3.030   7.927
 4433SOL    HW115138   9.882   3.120   7.904
 4433SOL    HW215139   9.777   3.039   7.975
 4434SOL     OW15140   3.350  12.836   9.682
 4434SOL    HW115141   3.285  12.790   9.630
 4434SOL    HW215142   3.422  12.853   9.621
 4435SOL     OW15143   5.143   3.916   8.076
 4435SOL    HW115144   5.238   3.921   8.091
 4435SOL    HW215145   5.107   3.981   8.137
 4436SOL     OW15146   9.891   3.515   5.371
 4436SOL    HW115147   9.983   3.535   5.353
 4436SOL    HW215148   9.847   3.534   5.288
 4437SOL     OW15149  12.266   0.842  13.275
 4437SOL    HW115150  12.297   0.843  13.366
 4437SOL    HW215151  12.328   0.898  13.228
 4438SOL     OW15152   5.226   3.143   0.015
 4438SOL    HW115153   5.232   3.219   0.072
 4438SOL    HW215154   5.254   3.070   0.071
 4439SOL     OW15155   2.611   0.851   7.042
 4439SOL    HW115156   2.560   0.772   7.056
 4439SOL    HW215157   2.546   0.919   7.023
 4440SOL     OW15158  10.900   0.302   5.163
 4440SOL    HW115159  10.968   0.327   5.100
 4440SOL    HW215160  10.828   0.363   5.147
 4441SOL     OW15161   8.749   0.936   2.956
 4441SOL    HW115162   8.784   0.928   3.045
 4441SOL    HW215163   8.671   0.990   2.965
 4442SOL     OW15164   5.250   2.491   0.391
 4442SOL    HW115165   5.212   2.577   0.370
 4442SOL    HW215166   5.190   2.428   0.353
 4443SOL     OW15167   6.188   5.688   3.349
 4443SOL    HW115168   6.278   5.692   3.317
 4443SOL    HW215169   6.139   5.746   3.291
 4444SOL     OW15170   9.518   5.640  10.632
 4444SOL    HW115171   9.562   5.604  10.556
 4444SOL    HW215172   9.485   5.725  10.603
 4445SOL     OW15173   3.307   7.609   0.310
 4445SOL    HW115174   3.375   7.570   0.256
 4445SOL    HW215175   3.324   7.704   0.306
 4446SOL     OW15176   1.454  12.805  13.569
 4446SOL    HW115177   1.433  12.859  13.646
 4446SOL    HW215178   1.547  12.786  13.578
 4447SOL     OW15179   1.901   1.762   9.207
 4447SOL    HW115180   1.989   1.766   9.170
 4447SOL    HW215181   1.852   1.706   9.146
 4448SOL     OW15182   6.761   7.348   5.499
 4448SOL    HW115183   6.757   7.442   5.484
 4448SOL    HW215184   6.735   7.310   5.415
 4449SOL     OW15185   2.927  11.840  13.253
 4449SOL    HW115186   2.945  11.929  13.282
 4449SOL    HW215187   3.013  11.800  13.239
 4450SOL     OW15188  12.209  12.288   5.779
 4450SOL    HW115189  12.201  12.342   5.858
 4450SOL    HW215190  12.167  12.339   5.710
 4451SOL     OW15191  10.460  12.252   8.479
 4451SOL    HW115192  10.384  12.309   8.470
 4451SOL    HW215193  10.446  12.204   8.560
 4452SOL     OW15194   1.289  13.698  11.888
 4452SOL    HW115195   1.257  13.754  11.958
 4452SOL    HW215196   1.345  13.755  11.835
 4453SOL     OW15197   2.025   9.009   9.057
 4453SOL    HW115198   2.068   9.024   8.973
 4453SOL    HW215199   2.089   8.959   9.107
 4454SOL     OW15200   5.157   4.726  12.962
 4454SOL    HW115201   5.249   4.751  12.971
 4454SOL    HW215202   5.155   4.668  12.886
 4455SOL     OW15203   7.743  14.200   9.576
 4455SOL    HW115204   7.821  14.162   9.536
 4455SOL    HW215205   7.689  14.228   9.502
 4456SOL     OW15206  11.156   6.008  10.668
 4456SOL    HW115207  11.150   5.931  10.724
 4456SOL    HW215208  11.154   6.082  10.729
 4457SOL     OW15209   6.056  14.832  11.739
 4457SOL    HW115210   6.016  14.848  11.824
 4457SOL    HW215211   6.116   0.025  11.727
 4458SOL     OW15212   5.374   5.447   4.379
 4458SOL    HW115213   5.342   5.531   4.413
 4458SOL    HW215214   5.348   5.447   4.287
 4459SOL     OW15215   0.894   8.792  12.544
 4459SOL    HW115216   0.920   8.824  12.458
 4459SOL    HW215217   0.931   8.855  12.605
 4460SOL     OW15218   5.782  13.505   5.514
 4460SOL    HW115219   5.708  13.444   5.506
 4460SOL    HW215220   5.783  13.551   5.430
 4461SOL     OW15221  12.026  10.496   8.459
 4461SOL    HW115222  12.040  10.503   8.365
 4461SOL    HW215223  12.099  10.443   8.490
 4462SOL     OW15224   2.347   3.617   7.505
 4462SOL    HW115225   2.352   3.567   7.424
 4462SOL    HW215226   2.255   3.610   7.531
 4463SOL     OW15227  11.937   8.271   1.034
 4463SOL    HW115228  12.000   8.343   1.030
 4463SOL    HW215229  11.899   8.267   0.947
 4464SOL     OW15230   8.361  12.691   0.321
 4464SOL    HW115231   8.412  12.616   0.352
 4464SOL    HW215232   8.350  12.747   0.398
 4465SOL     OW15233   6.444   3.135   6.430
 4465SOL    HW115234   6.511   3.068   6.420
 4465SOL    HW215235   6.363   3.093   6.402
 4466SOL     OW15236  12.243   8.391   8.634
 4466SOL    HW115237  12.180   8.325   8.661
 4466SOL    HW215238  12.280   8.357   8.552
 4467SOL     OW15239   8.660   4.819   1.339
 4467SOL    HW115240   8.690   4.827   1.430
 4467SOL    HW215241   8.588   4.882   1.332
 4468SOL     OW15242  10.211   1.131   9.926
 4468SOL    HW115243  10.195   1.102   9.836
 4468SOL    HW215244  10.208   1.051   9.978
 4469SOL     OW15245   4.901   7.616  13.885
 4469SOL    HW115246   4.981   7.595  13.933
 4469SOL    HW215247   4.921   7.698  13.839
 4470SOL     OW15248   4.976  14.813  10.299
 4470SOL    HW115249   5.049  14.814  10.237
 4470SOL    HW215250   4.928  14.732  10.279
 4471SOL     OW15251  14.419   0.765   5.342
 4471SOL    HW115252  14.409   0.685   5.394
 4471SOL    HW215253  14.446   0.734   5.256
 4472SOL     OW15254   0.534   7.056   4.862
 4472SOL    HW115255   0.497   7.077   4.947
 4472SOL    HW215256   0.615   7.107   4.858
 4473SOL     OW15257  11.646   2.401   2.342
 4473SOL    HW115258  11.724   2.423   2.393
 4473SOL    HW215259  11.672   2.420   2.251
 4474SOL     OW15260   9.927  10.341  10.251
 4474SOL    HW115261   9.997  10.285  10.284
 4474SOL    HW215262   9.958  10.372  10.166
 4475SOL     OW15263   6.928   6.767   0.826
 4475SOL    HW115264   6.905   6.703   0.758
 4475SOL    HW215265   7.023   6.778   0.817
 4476SOL     OW15266   2.589  11.927  14.779
 4476SOL    HW115267   2.630  11.841  14.792
 4476SOL    HW215268   2.619  11.979  14.854
 4477SOL     OW15269   2.641  14.328   5.743
 4477SOL    HW115270   2.726  14.372   5.741
 4477SOL    HW215271   2.640  14.275   5.664
 4478SOL     OW15272   2.699   3.547   7.269
 4478SOL    HW115273   2.689   3.563   7.363
 4478SOL    HW215274   2.741   3.627   7.236
 4479SOL     OW15275  12.221   6.448   4.771
 4479SOL    HW115276  12.261   6.507   4.707
 4479SOL    HW215277  12.294   6.419   4.825
 4480SOL     OW15278  14.236   1.622   6.973
 4480SOL    HW115279  14.236   1.680   6.897
 4480SOL    HW215280  14.174   1.553   6.951
 4481SOL     OW15281   9.686   3.818  11.251
 4481SOL    HW115282   9.744   3.885  11.288
 4481SOL    HW215283   9.658   3.767  11.327
 4482SOL     OW15284   1.622   4.760  12.242
 4482SOL    HW115285   1.670   4.817  12.183
 4482SOL    HW215286   1.576   4.820  12.301
 4483SOL     OW15287   5.727  11.389  12.814
 4483SOL    HW115288   5.722  11.349  12.901
 4483SOL    HW215289   5.741  11.315  12.755
 4484SOL     OW15290   1.644  14.431  12.840
 4484SOL    HW115291   1.724  14.460  12.885
 4484SOL    HW215292   1.628  14.499  12.774
 4485SOL     OW15293  11.378  11.662  11.468
 4485SOL    HW115294  11.352  11.710  11.547
 4485SOL    HW215295  11.427  11.726  11.417
 4486SOL     OW15296   8.644   4.115   2.929
 4486SOL    HW115297   8.705   4.089   2.998
 4486SOL    HW215298   8.616   4.033   2.889
 4487SOL     OW15299   0.094  14.663  10.651
 4487SOL    HW115300   0.107  14.758  10.648
 4487SOL    HW215301   0.001  14.650  10.635
 4488SOL     OW15302   0.890   5.922   3.825
 4488SOL    HW115303   0.961   5.933   3.888
 4488SOL    HW215304   0.863   5.831   3.836
 4489SOL     OW15305   0.902   9.839   0.939
 4489SOL    HW115306   0.888   9.761   0.993
 4489SOL    HW215307   0.868   9.911   0.991
 4490SOL     OW15308   0.848  13.108   3.883
 4490SOL    HW115309   0.762  13.072   3.903
 4490SOL    HW215310   0.883  13.051   3.815
 4491SOL     OW15311   4.755  12.319  13.873
 4491SOL    HW115312   4.739  12.318  13.779
 4491SOL    HW215313   4.840  12.363  13.882
 4492SOL     OW15314  12.928   1.114   3.999
 4492SOL    HW115315  12.854   1.068   4.040
 4492SOL    HW215316  12.994   1.045   3.986
 4493SOL     OW15317   8.463  11.587   8.718
 4493SOL    HW115318   8.540  11.601   8.773
 4493SOL    HW215319   8.391  11.629   8.765
 4494SOL     OW15320   4.603   6.641  10.551
 4494SOL    HW115321   4.588   6.723  10.502
 4494SOL    HW215322   4.635   6.670  10.636
 4495SOL     OW15323   7.934   1.748  10.871
 4495SOL    HW115324   7.879   1.674  10.896
 4495SOL    HW215325   8.000   1.752  10.940
 4496SOL     OW15326   5.637   2.423   5.395
 4496SOL    HW115327   5.638   2.421   5.491
 4496SOL    HW215328   5.577   2.354   5.369
 4497SOL     OW15329   3.003   0.578   4.788
 4497SOL    HW115330   3.094   0.551   4.801
 4497SOL    HW215331   2.952   0.511   4.834
 4498SOL     OW15332  12.796   9.166   9.587
 4498SOL    HW115333  12.873   9.127   9.630
 4498SOL    HW215334  12.798   9.130   9.498
 4499SOL     OW15335   8.028   8.461   5.429
 4499SOL    HW115336   8.002   8.525   5.495
 4499SOL    HW215337   8.100   8.412   5.469
 4500SOL     OW15338  10.396  10.719  10.639
 4500SOL    HW115339  10.377  10.718  10.545
 4500SOL    HW215340  10.457  10.646  10.651
 4501SOL     OW15341   6.926   2.605   3.190
 4501SOL    HW115342   6.978   2.568   3.261
 4501SOL    HW215343   6.910   2.696   3.217
 4502SOL     OW15344   2.727   8.603  13.451
 4502SOL    HW115345   2.709   8.509  13.462
 4502SOL    HW215346   2.646   8.646  13.477
 4503SOL     OW15347  10.201   4.107  14.576
 4503SOL    HW115348  10.139   4.180  14.566
 4503SOL    HW215349  10.227   4.085  14.486
 4504SOL     OW15350   9.782   1.550   3.602
 4504SOL    HW115351   9.743   1.492   3.668
 4504SOL    HW215352   9.877   1.540   3.615
 4505SOL     OW15353   6.045   7.736   1.985
 4505SOL    HW115354   6.128   7.784   1.984
 4505SOL    HW215355   6.006   7.757   2.070
 4506SOL     OW15356  12.514  10.062   5.146
 4506SOL    HW115357  12.484  10.007   5.074
 4506SOL    HW215358  12.434  10.091   5.190
 4507SOL     OW15359  10.806   3.183   4.053
 4507SOL    HW115360  10.799   3.271   4.089
 4507SOL    HW215361  10.897   3.158   4.067
 4508SOL     OW15362  14.045  10.184   0.567
 4508SOL    HW115363  14.067  10.265   0.521
 4508SOL    HW215364  14.130  10.139   0.578
 4509SOL     OW15365  12.213   9.000   1.965
 4509SOL    HW115366  12.215   9.063   2.037
 4509SOL    HW215367  12.207   9.053   1.886
 4510SOL     OW15368   4.801   9.592  14.359
 4510SOL    HW115369   4.765   9.516  14.406
 4510SOL    HW215370   4.893   9.570  14.345
 4511SOL     OW15371   2.013   2.469   8.680
 4511SOL    HW115372   2.107   2.482   8.691
 4511SOL    HW215373   1.997   2.483   8.587
 4512SOL     OW15374   8.806   1.185  11.540
 4512SOL    HW115375   8.767   1.231  11.615
 4512SOL    HW215376   8.759   1.220  11.464
 4513SOL     OW15377   3.196  11.728   0.126
 4513SOL    HW115378   3.150  11.801   0.085
 4513SOL    HW215379   3.193  11.658   0.060
 4514SOL     OW15380   0.005   1.253   6.631
 4514SOL    HW115381  14.856   1.251   6.539
 4514SOL    HW215382  14.831   1.321   6.671
 4515SOL     OW15383  11.120   7.778   3.335
 4515SOL    HW115384  11.040   7.766   3.386
 4515SOL    HW215385  11.142   7.691   3.303
 4516SOL     OW15386  12.865   8.544   3.712
 4516SOL    HW115387  12.886   8.542   3.805
 4516SOL    HW215388  12.856   8.637   3.691
 4517SOL     OW15389  11.749   0.385   4.818
 4517SOL    HW115390  11.670   0.341   4.789
 4517SOL    HW215391  11.722   0.476   4.834
 4518SOL     OW15392  14.802   1.049  11.156
 4518SOL    HW115393  14.722   1.101  11.145
 4518SOL    HW215394  14.868   1.096  11.105
 4519SOL     OW15395   4.476  14.823   2.383
 4519SOL    HW115396   4.520   0.024   2.409
 4519SOL    HW215397   4.383  14.846   2.378
 4520SOL     OW15398   2.590   4.141   9.154
 4520SOL    HW115399   2.495   4.155   9.157
 4520SOL    HW215400   2.625   4.225   9.123
 4521SOL     OW15401   1.561   2.358  13.920
 4521SOL    HW115402   1.575   2.324  14.008
 4521SOL    HW215403   1.606   2.442  13.919
 4522SOL     OW15404   2.899   4.736   6.234
 4522SOL    HW115405   2.975   4.720   6.177
 4522SOL    HW215406   2.910   4.826   6.264
 4523SOL     OW15407   7.839   9.677  12.345
 4523SOL    HW115408   7.922   9.655  12.302
 4523SOL    HW215409   7.845   9.772  12.361
 4524SOL     OW15410  12.478   7.182   3.103
 4524SOL    HW115411  12.500   7.137   3.021
 4524SOL    HW215412  12.470   7.113   3.168
 4525SOL     OW15413  13.984   9.006   4.546
 4525SOL    HW115414  13.933   8.941   4.594
 4525SOL    HW215415  13.967   8.988   4.454
 4526SOL     OW15416  13.077   2.209   4.194
 4526SOL    HW115417  13.141   2.277   4.213
 4526SOL    HW215418  13.050   2.227   4.103
 4527SOL     OW15419   8.861   6.972  12.729
 4527SOL    HW115420   8.901   6.889  12.703
 4527SOL    HW215421   8.791   6.985  12.666
 4528SOL     OW15422   0.440  14.234  11.952
 4528SOL    HW115423   0.369  14.218  12.014
 4528SOL    HW215424   0.396  14.249  11.868
 4529SOL     OW15425   8.008  13.909   1.699
 4529SOL    HW115426   7.928  13.902   1.752
 4529SOL    HW215427   8.074  13.940   1.761
 4530SOL     OW15428  11.512  14.508   5.779
 4530SOL    HW115429  11.482  14.537   5.865
 4530SOL    HW215430  11.525  14.413   5.789
 4531SOL     OW15431   2.576  14.616   7.811
 4531SOL    HW115432   2.582  14.641   7.719
 4531SOL    HW215433   2.650  14.660   7.853
 4532SOL     OW15434  10.418   6.015  11.390
 4532SOL    HW115435  10.513   6.014  11.402
 4532SOL    HW215436  10.389   5.930  11.421
 4533SOL     OW15437   3.918   7.529   4.653
 4533SOL    HW115438   3.939   7.573   4.735
 4533SOL    HW215439   3.998   7.482   4.628
 4534SOL     OW15440   0.694   6.843  10.096
 4534SOL    HW115441   0.758   6.794  10.146
 4534SOL    HW215442   0.726   6.933  10.097
 4535SOL     OW15443   3.680  10.674  11.273
 4535SOL    HW115444   3.634  10.592  11.290
 4535SOL    HW215445   3.635  10.738  11.327
 4536SOL     OW15446  13.572   8.705  13.982
 4536SOL    HW115447  13.577   8.719  14.077
 4536SOL    HW215448  13.624   8.776  13.944
 4537SOL     OW15449  14.697   8.932  10.494
 4537SOL    HW115450  14.708   8.975  10.410
 4537SOL    HW215451  14.609   8.957  10.523
 4538SOL     OW15452   4.452  13.716  14.147
 4538SOL    HW115453   4.408  13.703  14.230
 4538SOL    HW215454   4.512  13.789  14.163
 4539SOL     OW15455   9.319   0.490   0.249
 4539SOL    HW115456   9.399   0.513   0.296
 4539SOL    HW215457   9.338   0.404   0.212
 4540SOL     OW15458   6.685   7.438  12.917
 4540SOL    HW115459   6.766   7.390  12.901
 4540SOL    HW215460   6.689   7.461  13.010
 4541SOL     OW15461   1.673   3.210   0.604
 4541SOL    HW115462   1.631   3.132   0.641
 4541SOL    HW215463   1.697   3.185   0.515
 4542SOL     OW15464   0.082   5.947   9.632
 4542SOL    HW115465   0.036   5.888   9.692
 4542SOL    HW215466   0.034   5.941   9.550
 4543SOL     OW15467   6.413  12.542   8.146
 4543SOL    HW115468   6.377  12.623   8.182
 4543SOL    HW215469   6.448  12.567   8.061
 4544SOL     OW15470   3.668  14.848   7.499
 4544SOL    HW115471   3.574  14.836   7.513
 4544SOL    HW215472   3.705  14.760   7.506
 4545SOL     OW15473   9.349  14.571   3.473
 4545SOL    HW115474   9.434  14.530   3.491
 4545SOL    HW215475   9.339  14.563   3.378
 4546SOL     OW15476   9.953  14.133   8.840
 4546SOL    HW115477  10.049  14.130   8.842
 4546SOL    HW215478   9.927  14.043   8.822
 4547SOL     OW15479   4.647   2.006  14.808
 4547SOL    HW115480   4.698   2.087  14.814
 4547SOL    HW215481   4.678   1.964  14.728
 4548SOL     OW15482  14.394   1.514   4.470
 4548SOL    HW115483  14.392   1.424   4.437
 4548SOL    HW215484  14.366   1.567   4.395
 4549SOL     OW15485   6.090   4.932   6.383
 4549SOL    HW115486   6.028   4.989   6.429
 4549SOL    HW215487   6.121   4.984   6.309
 4550SOL     OW15488  14.438   3.408  12.178
 4550SOL    HW115489  14.346   3.401  12.204
 4550SOL    HW215490  14.475   3.323  12.199
 4551SOL     OW15491  11.467  10.158  10.852
 4551SOL    HW115492  11.403  10.140  10.783
 4551SOL    HW215493  11.417  10.205  10.919
 4552SOL     OW15494   8.487   7.059   0.260
 4552SOL    HW115495   8.541   7.060   0.339
 4552SOL    HW215496   8.435   7.139   0.266
 4553SOL     OW15497   3.895  11.891  10.628
 4553SOL    HW115498   3.884  11.957  10.696
 4553SOL    HW215499   3.880  11.938  10.546
 4554SOL     OW15500   1.738   9.693   6.229
 4554SOL    HW115501   1.645   9.680   6.247
 4554SOL    HW215502   1.760   9.625   6.165
 4555SOL     OW15503   4.273   0.894   1.655
 4555SOL    HW115504   4.237   0.805   1.663
 4555SOL    HW215505   4.227   0.944   1.722
 4556SOL     OW15506   1.537  11.329   0.960
 4556SOL    HW115507   1.471  11.397   0.947
 4556SOL    HW215508   1.487  11.252   0.987
 4557SOL     OW15509   6.545   8.160  14.223
 4557SOL    HW115510   6.472   8.123  14.173
 4557SOL    HW215511   6.611   8.091  14.223
 4558SOL     OW15512   0.097   9.905   3.196
 4558SOL    HW115513   0.095   9.932   3.288
 4558SOL    HW215514   0.119   9.985   3.148
 4559SOL     OW15515   8.555  10.628   1.044
 4559SOL    HW115516   8.524  10.554   1.097
 4559SOL    HW215517   8.650  10.625   1.051
 4560SOL     OW15518  10.551   6.402  14.266
 4560SOL    HW115519  10.621   6.379  14.206
 4560SOL    HW215520  10.530   6.320  14.311
 4561SOL     OW15521   0.724  10.829   3.048
 4561SOL    HW115522   0.729  10.922   3.028
 4561SOL    HW215523   0.630  10.809   3.047
 4562SOL     OW15524   7.349  12.548   2.704
 4562SOL    HW115525   7.310  12.462   2.689
 4562SOL    HW215526   7.276  12.604   2.728
 4563SOL     OW15527  12.364   2.113   2.791
 4563SOL    HW115528  12.352   2.074   2.704
 4563SOL    HW215529  12.441   2.168   2.783
 4564SOL     OW15530  10.706   0.431   4.060
 4564SOL    HW115531  10.758   0.362   4.018
 4564SOL    HW215532  10.703   0.406   4.152
 4565SOL     OW15533   3.136   6.811  12.998
 4565SOL    HW115534   3.193   6.750  12.951
 4565SOL    HW215535   3.183   6.832  13.078
 4566SOL     OW15536  11.276  11.876  10.912
 4566SOL    HW115537  11.315  11.957  10.877
 4566SOL    HW215538  11.306  11.872  11.003
 4567SOL     OW15539  10.072   8.313   5.650
 4567SOL    HW115540  10.117   8.274   5.576
 4567SOL    HW215541  10.043   8.239   5.703
 4568SOL     OW15542   0.568   1.292  11.374
 4568SOL    HW115543   0.508   1.223  11.345
 4568SOL    HW215544   0.515   1.347  11.431
 4569SOL     OW15545  13.500  12.867   9.197
 4569SOL    HW115546  13.442  12.942   9.204
 4569SOL    HW215547  13.556  12.887   9.121
 4570SOL     OW15548  11.763  11.727   1.715
 4570SOL    HW115549  11.810  11.790   1.660
 4570SOL    HW215550  11.816  11.648   1.712
 4571SOL     OW15551   7.044   3.480   6.985
 4571SOL    HW115552   6.992   3.429   7.048
 4571SOL    HW215553   6.980   3.536   6.941
 4572SOL     OW15554  12.621  11.091  13.619
 4572SOL    HW115555  12.672  11.074  13.698
 4572SOL    HW215556  12.624  11.186  13.608
 4573SOL     OW15557   7.126  12.048   3.812
 4573SOL    HW115558   7.121  11.953   3.803
 4573SOL    HW215559   7.160  12.079   3.729
 4574SOL     OW15560   0.894  12.934   3.641
 4574SOL    HW115561   0.947  12.940   3.561
 4574SOL    HW215562   0.953  12.899   3.707
 4575SOL     OW15563   5.561   3.888   3.728
 4575SOL    HW115564   5.550   3.907   3.635
 4575SOL    HW215565   5.572   3.793   3.732
 4576SOL     OW15566   1.060   2.749  10.309
 4576SOL    HW115567   1.105   2.709  10.384
 4576SOL    HW215568   1.080   2.842  10.316
 4577SOL     OW15569   0.181   1.856   2.401
 4577SOL    HW115570   0.183   1.925   2.334
 4577SOL    HW215571   0.117   1.887   2.465
 4578SOL     OW15572   5.045  10.451   8.080
 4578SOL    HW115573   5.092  10.372   8.110
 4578SOL    HW215574   5.023  10.432   7.988
 4579SOL     OW15575   1.198   6.893   6.150
 4579SOL    HW115576   1.201   6.847   6.234
 4579SOL    HW215577   1.119   6.946   6.154
 4580SOL     OW15578   4.040   1.413  13.364
 4580SOL    HW115579   4.125   1.370  13.367
 4580SOL    HW215580   4.022   1.440  13.454
 4581SOL     OW15581   8.863  13.898   2.997
 4581SOL    HW115582   8.932  13.832   3.007
 4581SOL    HW215583   8.800  13.877   3.065
 4582SOL     OW15584   3.914   2.596   7.825
 4582SOL    HW115585   4.003   2.597   7.861
 4582SOL    HW215586   3.857   2.609   7.901
 4583SOL     OW15587   4.911   6.249   2.154
 4583SOL    HW115588   4.948   6.296   2.229
 4583SOL    HW215589   4.888   6.164   2.189
 4584SOL     OW15590  10.599  13.858   6.280
 4584SOL    HW115591  10.680  13.837   6.326
 4584SOL    HW215592  10.535  13.797   6.315
 4585SOL     OW15593   4.217   7.079  10.036
 4585SOL    HW115594   4.228   7.072  10.131
 4585SOL    HW215595   4.207   6.989  10.007
 4586SOL     OW15596   0.533  10.760  11.266
 4586SOL    HW115597   0.589  10.789  11.338
 4586SOL    HW215598   0.454  10.813  11.274
 4587SOL     OW15599   8.227  13.944   5.864
 4587SOL    HW115600   8.218  14.039   5.872
 4587SOL    HW215601   8.313  13.932   5.824
 4588SOL     OW15602   9.803  10.608   8.299
 4588SOL    HW115603   9.838  10.661   8.371
 4588SOL    HW215604   9.795  10.670   8.227
 4589SOL     OW15605   7.301   8.631   0.840
 4589SOL    HW115606   7.307   8.686   0.918
 4589SOL    HW215607   7.390   8.600   0.825
 4590SOL     OW15608   7.275   3.361   1.788
 4590SOL    HW115609   7.245   3.299   1.721
 4590SOL    HW215610   7.209   3.357   1.857
 4591SOL     OW15611   1.201  12.584   5.596
 4591SOL    HW115612   1.157  12.662   5.561
 4591SOL    HW215613   1.171  12.577   5.686
 4592SOL     OW15614  11.190   2.610   1.677
 4592SOL    HW115615  11.193   2.651   1.763
 4592SOL    HW215616  11.281   2.594   1.654
 4593SOL     OW15617   2.768   0.789  10.348
 4593SOL    HW115618   2.797   0.739  10.272
 4593SOL    HW215619   2.698   0.845  10.315
 4594SOL     OW15620   8.449   7.022  13.425
 4594SOL    HW115621   8.453   7.087  13.495
 4594SOL    HW215622   8.541   7.008  13.399
 4595SOL     OW15623  13.058   5.337   2.023
 4595SOL    HW115624  13.090   5.397   2.090
 4595SOL    HW215625  13.078   5.381   1.940
 4596SOL     OW15626  12.721   8.360   4.220
 4596SOL    HW115627  12.650   8.297   4.234
 4596SOL    HW215628  12.788   8.310   4.173
 4597SOL     OW15629  10.652   5.097   6.814
 4597SOL    HW115630  10.725   5.056   6.859
 4597SOL    HW215631  10.641   5.182   6.857
 4598SOL     OW15632   9.941  11.478  13.857
 4598SOL    HW115633  10.033  11.495  13.878
 4598SOL    HW215634   9.898  11.563  13.868
 4599SOL     OW15635   5.614  11.264   8.254
 4599SOL    HW115636   5.701  11.256   8.214
 4599SOL    HW215637   5.609  11.354   8.284
 4600SOL     OW15638   2.865   3.571   2.893
 4600SOL    HW115639   2.834   3.636   2.956
 4600SOL    HW215640   2.824   3.595   2.811
 4601SOL     OW15641   3.573   4.066  13.616
 4601SOL    HW115642   3.615   4.007  13.679
 4601SOL    HW215643   3.611   4.043  13.531
 4602SOL     OW15644   0.421   1.399   8.335
 4602SOL    HW115645   0.453   1.316   8.369
 4602SOL    HW215646   0.328   1.401   8.358
 4603SOL     OW15647   9.492   7.080  12.462
 4603SOL    HW115648   9.409   7.031  12.462
 4603SOL    HW215649   9.530   7.062  12.377
 4604SOL     OW15650   1.687   7.898   3.813
 4604SOL    HW115651   1.743   7.879   3.888
 4604SOL    HW215652   1.666   7.812   3.776
 4605SOL     OW15653  11.532   2.481  11.212
 4605SOL    HW115654  11.517   2.406  11.155
 4605SOL    HW215655  11.472   2.548  11.180
 4606SOL     OW15656  10.275   2.667   3.754
 4606SOL    HW115657  10.332   2.743   3.742
 4606SOL    HW215658  10.253   2.639   3.665
 4607SOL     OW15659   3.606   1.972   9.536
 4607SOL    HW115660   3.636   1.989   9.625
 4607SOL    HW215661   3.619   2.055   9.490
 4608SOL     OW15662   8.260   8.917   5.971
 4608SOL    HW115663   8.249   8.822   5.975
 4608SOL    HW215664   8.185   8.947   5.921
 4609SOL     OW15665   4.236   2.157  14.058
 4609SOL    HW115666   4.166   2.092  14.048
 4609SOL    HW215667   4.229   2.211  13.979
 4610SOL     OW15668  12.230  13.613  12.620
 4610SOL    HW115669  12.322  13.603  12.598
 4610SOL    HW215670  12.197  13.677  12.558
 4611SOL     OW15671   2.515   3.782  11.909
 4611SOL    HW115672   2.488   3.831  11.987
 4611SOL    HW215673   2.438   3.732  11.883
 4612SOL     OW15674   4.776   2.793   6.099
 4612SOL    HW115675   4.752   2.732   6.029
 4612SOL    HW215676   4.693   2.829   6.130
 4613SOL     OW15677   4.329   7.967   3.105
 4613SOL    HW115678   4.330   7.989   3.199
 4613SOL    HW215679   4.350   8.049   3.061
 4614SOL     OW15680   9.909  14.219   8.567
 4614SOL    HW115681   9.915  14.213   8.663
 4614SOL    HW215682   9.999  14.237   8.538
 4615SOL     OW15683   8.533  13.266   1.268
 4615SOL    HW115684   8.484  13.194   1.227
 4615SOL    HW215685   8.622  13.256   1.235
 4616SOL     OW15686  14.709  11.606   9.562
 4616SOL    HW115687  14.645  11.594   9.632
 4616SOL    HW215688  14.656  11.628   9.485
 4617SOL     OW15689   9.387   4.172  10.087
 4617SOL    HW115690   9.335   4.095  10.108
 4617SOL    HW215691   9.462   4.137  10.038
 4618SOL     OW15692  11.180  11.692   3.819
 4618SOL    HW115693  11.138  11.758   3.765
 4618SOL    HW215694  11.193  11.734   3.903
 4619SOL     OW15695   9.072   4.153  10.318
 4619SOL    HW115696   9.118   4.077  10.355
 4619SOL    HW215697   9.027   4.118  10.241
 4620SOL     OW15698   5.896   0.237   0.472
 4620SOL    HW115699   5.863   0.200   0.554
 4620SOL    HW215700   5.983   0.269   0.493
 4621SOL     OW15701   9.046   3.113   2.760
 4621SOL    HW115702   9.057   3.072   2.675
 4621SOL    HW215703   9.136   3.131   2.790
 4622SOL     OW15704   2.532  12.468   9.981
 4622SOL    HW115705   2.491  12.407  10.041
 4622SOL    HW215706   2.620  12.432   9.965
 4623SOL     OW15707   4.901  12.673  13.653
 4623SOL    HW115708   4.868  12.690  13.742
 4623SOL    HW215709   4.889  12.757  13.607
 4624SOL     OW15710   3.526   8.257   8.262
 4624SOL    HW115711   3.437   8.294   8.264
 4624SOL    HW215712   3.515   8.170   8.223
 4625SOL     OW15713   8.807   7.851   0.582
 4625SOL    HW115714   8.899   7.840   0.602
 4625SOL    HW215715   8.766   7.873   0.666
 4626SOL     OW15716   3.364   9.273   9.904
 4626SOL    HW115717   3.380   9.187   9.944
 4626SOL    HW215718   3.347   9.331   9.978
 4627SOL     OW15719   9.891   7.379   5.638
 4627SOL    HW115720   9.834   7.330   5.579
 4627SOL    HW215721   9.839   7.390   5.718
 4628SOL     OW15722   9.926  13.965  14.445
 4628SOL    HW115723   9.920  14.020  14.524
 4628SOL    HW215724   9.845  13.915  14.444
 4629SOL     OW15725   4.773   8.240   8.789
 4629SOL    HW115726   4.864   8.269   8.794
 4629SOL    HW215727   4.776   8.161   8.735
 4630SOL     OW15728   9.059  12.895   1.011
 4630SOL    HW115729   9.086  12.923   1.098
 4630SOL    HW215730   9.092  12.805   1.003
 4631SOL     OW15731   6.268   9.760  11.726
 4631SOL    HW115732   6.209   9.685  11.715
 4631SOL    HW215733   6.318   9.739  11.805
 4632SOL     OW15734   0.893  11.328  12.324
 4632SOL    HW115735   0.855  11.257  12.376
 4632SOL    HW215736   0.820  11.361  12.271
 4633SOL     OW15737   3.915  13.286   1.609
 4633SOL    HW115738   3.997  13.264   1.565
 4633SOL    HW215739   3.917  13.234   1.689
 4634SOL     OW15740   6.247   0.848  14.564
 4634SOL    HW115741   6.316   0.782  14.552
 4634SOL    HW215742   6.169   0.808  14.525
 4635SOL     OW15743   8.523  10.471  10.850
 4635SOL    HW115744   8.490  10.409  10.785
 4635SOL    HW215745   8.543  10.417  10.927
 4636SOL     OW15746   5.133  10.104  12.963
 4636SOL    HW115747   5.213  10.154  12.948
 4636SOL    HW215748   5.074  10.166  13.007
 4637SOL     OW15749   5.282  11.999  11.523
 4637SOL    HW115750   5.336  11.989  11.445
 4637SOL    HW215751   5.339  11.973  11.595
 4638SOL     OW15752   1.151  10.535   8.153
 4638SOL    HW115753   1.104  10.546   8.070
 4638SOL    HW215754   1.235  10.498   8.129
 4639SOL     OW15755   2.949  13.983   0.153
 4639SOL    HW115756   2.990  13.969   0.068
 4639SOL    HW215757   2.855  13.977   0.135
 4640SOL     OW15758  12.990   9.920   9.629
 4640SOL    HW115759  13.067   9.887   9.675
 4640SOL    HW215760  12.916   9.879   9.674
 4641SOL     OW15761   4.306   4.557   1.838
 4641SOL    HW115762   4.215   4.570   1.811
 4641SOL    HW215763   4.337   4.486   1.782
 4642SOL     OW15764  11.903   7.285   6.380
 4642SOL    HW115765  11.894   7.284   6.285
 4642SOL    HW215766  11.988   7.244   6.396
 4643SOL     OW15767   4.801   7.808   9.893
 4643SOL    HW115768   4.740   7.879   9.877
 4643SOL    HW215769   4.747   7.736   9.924
 4644SOL     OW15770   8.862  10.640   5.628
 4644SOL    HW115771   8.793  10.590   5.674
 4644SOL    HW215772   8.910  10.573   5.579
 4645SOL     OW15773   8.814  12.334   7.347
 4645SOL    HW115774   8.747  12.402   7.345
 4645SOL    HW215775   8.785  12.274   7.416
 4646SOL     OW15776  12.134  12.204   4.715
 4646SOL    HW115777  12.144  12.287   4.669
 4646SOL    HW215778  12.063  12.159   4.669
 4647SOL     OW15779   7.993   7.306   0.370
 4647SOL    HW115780   8.043   7.252   0.309
 4647SOL    HW215781   8.022   7.396   0.353
 4648SOL     OW15782  14.246   4.448   2.478
 4648SOL    HW115783  14.325   4.466   2.427
 4648SOL    HW215784  14.273   4.461   2.569
 4649SOL     OW15785   4.763  12.657   4.602
 4649SOL    HW115786   4.713  12.588   4.644
 4649SOL    HW215787   4.732  12.738   4.641
 4650SOL     OW15788   4.836   4.338   2.229
 4650SOL    HW115789   4.790   4.403   2.176
 4650SOL    HW215790   4.882   4.284   2.165
 4651SOL     OW15791  10.370  12.325   1.190
 4651SOL    HW115792  10.393  12.233   1.177
 4651SOL    HW215793  10.281  12.333   1.157
 4652SOL     OW15794   8.787   8.527  11.573
 4652SOL    HW115795   8.815   8.461  11.510
 4652SOL    HW215796   8.864   8.583  11.585
 4653SOL     OW15797   5.958  10.117  12.431
 4653SOL    HW115798   5.989  10.060  12.501
 4653SOL    HW215799   5.879  10.075  12.398
 4654SOL     OW15800   8.981   0.456  10.018
 4654SOL    HW115801   8.916   0.496  10.077
 4654SOL    HW215802   8.938   0.376   9.987
 4655SOL     OW15803  14.693   5.990   5.135
 4655SOL    HW115804  14.663   5.954   5.052
 4655SOL    HW215805  14.697   5.914   5.194
 4656SOL     OW15806   5.857   7.910   3.124
 4656SOL    HW115807   5.917   7.948   3.189
 4656SOL    HW215808   5.777   7.960   3.133
 4657SOL     OW15809  11.594   1.247   6.802
 4657SOL    HW115810  11.636   1.243   6.888
 4657SOL    HW215811  11.627   1.171   6.755
 4658SOL     OW15812   4.731  14.591  14.282
 4658SOL    HW115813   4.712  14.564  14.192
 4658SOL    HW215814   4.746  14.509  14.328
 4659SOL     OW15815   8.881   9.315  10.609
 4659SOL    HW115816   8.941   9.308  10.683
 4659SOL    HW215817   8.866   9.225  10.582
 4660SOL     OW15818  13.180   7.372  11.414
 4660SOL    HW115819  13.120   7.361  11.488
 4660SOL    HW215820  13.265   7.344  11.447
 4661SOL     OW15821   3.150   0.667  11.623
 4661SOL    HW115822   3.231   0.695  11.667
 4661SOL    HW215823   3.180   0.611  11.551
 4662SOL     OW15824   7.659  14.168   6.839
 4662SOL    HW115825   7.697  14.237   6.893
 4662SOL    HW215826   7.730  14.143   6.780
 4663SOL     OW15827  10.843  12.501  11.865
 4663SOL    HW115828  10.930  12.480  11.900
 4663SOL    HW215829  10.857  12.513  11.771
 4664SOL     OW15830  13.399   9.096   1.833
 4664SOL    HW115831  13.391   9.129   1.743
 4664SOL    HW215832  13.462   9.155   1.874
 4665SOL     OW15833  12.841   9.877   7.269
 4665SOL    HW115834  12.857   9.794   7.224
 4665SOL    HW215835  12.762   9.862   7.320
 4666SOL     OW15836   8.790   0.485   7.378
 4666SOL    HW115837   8.702   0.516   7.358
 4666SOL    HW215838   8.848   0.538   7.323
 4667SOL     OW15839   1.584  12.129  12.106
 4667SOL    HW115840   1.618  12.041  12.088
 4667SOL    HW215841   1.495  12.113  12.138
 4668SOL     OW15842   5.636   7.789   9.019
 4668SOL    HW115843   5.560   7.818   9.069
 4668SOL    HW215844   5.601   7.721   8.961
 4669SOL     OW15845  14.753   6.732   5.887
 4669SOL    HW115846  14.809   6.724   5.965
 4669SOL    HW215847  14.666   6.754   5.922
 4670SOL     OW15848   3.363   9.774   4.443
 4670SOL    HW115849   3.281   9.724   4.450
 4670SOL    HW215850   3.389   9.765   4.352
 4671SOL     OW15851   9.285  14.341   0.553
 4671SOL    HW115852   9.290  14.287   0.475
 4671SOL    HW215853   9.276  14.278   0.625
 4672SOL     OW15854   1.322   4.853   0.064
 4672SOL    HW115855   1.390   4.831   0.001
 4672SOL    HW215856   1.271   4.773   0.073
 4673SOL     OW15857  14.842  10.997   2.465
 4673SOL    HW115858   0.021  11.064   2.431
 4673SOL    HW215859   0.016  10.945   2.524
 4674SOL     OW15860   0.444   2.130   5.730
 4674SOL    HW115861   0.350   2.135   5.716
 4674SOL    HW215862   0.461   2.190   5.803
 4675SOL     OW15863   6.903   2.977  10.539
 4675SOL    HW115864   6.872   3.008  10.624
 4675SOL    HW215865   6.932   2.887  10.555
 4676SOL     OW15866   1.455   5.650   1.591
 4676SOL    HW115867   1.404   5.632   1.512
 4676SOL    HW215868   1.543   5.616   1.571
 4677SOL     OW15869  13.856   7.697  12.836
 4677SOL    HW115870  13.867   7.792  12.827
 4677SOL    HW215871  13.823   7.686  12.925
 4678SOL     OW15872  12.611  11.892   3.946
 4678SOL    HW115873  12.625  11.938   4.029
 4678SOL    HW215874  12.545  11.826   3.966
 4679SOL     OW15875   6.914   9.849  13.751
 4679SOL    HW115876   6.926   9.904  13.829
 4679SOL    HW215877   6.989   9.789  13.752
 4680SOL     OW15878  13.191   8.679   2.611
 4680SOL    HW115879  13.247   8.756   2.599
 4680SOL    HW215880  13.111   8.700   2.562
 4681SOL     OW15881   6.135  13.265  13.380
 4681SOL    HW115882   6.158  13.277  13.472
 4681SOL    HW215883   6.049  13.305  13.371
 4682SOL     OW15884   3.270   3.081   3.393
 4682SOL    HW115885   3.298   3.158   3.442
 4682SOL    HW215886   3.281   3.106   3.301
 4683SOL     OW15887  14.606   3.384   7.304
 4683SOL    HW115888  14.608   3.438   7.225
 4683SOL    HW215889  14.628   3.445   7.374
 4684SOL     OW15890  12.768  12.935  10.657
 4684SOL    HW115891  12.843  12.935  10.597
 4684SOL    HW215892  12.757  12.844  10.682
 4685SOL     OW15893   5.884   7.464   7.177
 4685SOL    HW115894   5.801   7.498   7.142
 4685SOL    HW215895   5.951   7.507   7.124
 4686SOL     OW15896  13.779   7.291   6.410
 4686SOL    HW115897  13.752   7.201   6.428
 4686SOL    HW215898  13.758   7.304   6.317
 4687SOL     OW15899  10.508  13.706   5.705
 4687SOL    HW115900  10.434  13.751   5.745
 4687SOL    HW215901  10.469  13.633   5.657
 4688SOL     OW15902   2.681  13.671  13.136
 4688SOL    HW115903   2.658  13.579  13.153
 4688SOL    HW215904   2.730  13.668  13.054
 4689SOL     OW15905   3.015  11.180   6.115
 4689SOL    HW115906   3.014  11.223   6.200
 4689SOL    HW215907   2.964  11.238   6.058
 4690SOL     OW15908  11.666  13.039   0.419
 4690SOL    HW115909  11.656  12.973   0.487
 4690SOL    HW215910  11.748  13.017   0.376
 4691SOL     OW15911   2.670   0.604  11.955
 4691SOL    HW115912   2.689   0.532  11.895
 4691SOL    HW215913   2.700   0.573  12.040
 4692SOL     OW15914   0.033   9.517   8.187
 4692SOL    HW115915   0.120   9.480   8.170
 4692SOL    HW215916   0.050   9.601   8.229
 4693SOL     OW15917   2.553  10.991   3.537
 4693SOL    HW115918   2.553  11.086   3.530
 4693SOL    HW215919   2.523  10.973   3.626
 4694SOL     OW15920  12.936   0.339   0.784
 4694SOL    HW115921  12.939   0.331   0.879
 4694SOL    HW215922  13.013   0.392   0.762
 4695SOL     OW15923   8.884   8.088   1.025
 4695SOL    HW115924   8.789   8.083   1.034
 4695SOL    HW215925   8.913   7.997   1.026
 4696SOL     OW15926   7.233   4.807   2.091
 4696SOL    HW115927   7.138   4.818   2.098
 4696SOL    HW215928   7.267   4.897   2.085
 4697SOL     OW15929   6.569   5.785   0.806
 4697SOL    HW115930   6.649   5.837   0.803
 4697SOL    HW215931   6.592   5.709   0.858
 4698SOL     OW15932   5.961   3.067   3.435
 4698SOL    HW115933   6.000   3.043   3.519
 4698SOL    HW215934   5.929   3.157   3.448
 4699SOL     OW15935   7.901   0.993  11.217
 4699SOL    HW115936   7.961   0.971  11.289
 4699SOL    HW215937   7.822   0.944  11.236
 4700SOL     OW15938   3.923  14.427  11.773
 4700SOL    HW115939   3.961  14.339  11.773
 4700SOL    HW215940   3.844  14.419  11.826
 4701SOL     OW15941  11.064   1.271   0.507
 4701SOL    HW115942  11.132   1.334   0.529
 4701SOL    HW215943  11.056   1.277   0.412
 4702SOL     OW15944   0.896   2.071   5.399
 4702SOL    HW115945   0.838   2.071   5.323
 4702SOL    HW215946   0.850   2.125   5.463
 4703SOL     OW15947   7.597   6.068  10.502
 4703SOL    HW115948   7.524   6.017  10.467
 4703SOL    HW215949   7.661   6.072  10.431
 4704SOL     OW15950   4.724   8.330   9.311
 4704SOL    HW115951   4.788   8.311   9.242
 4704SOL    HW215952   4.668   8.253   9.313
 4705SOL     OW15953   5.861   1.046  10.679
 4705SOL    HW115954   5.951   1.014  10.681
 4705SOL    HW215955   5.868   1.136  10.647
 4706SOL     OW15956   7.633  14.617   2.512
 4706SOL    HW115957   7.706  14.652   2.562
 4706SOL    HW215958   7.646  14.523   2.511
 4707SOL     OW15959   2.277  10.462   0.598
 4707SOL    HW115960   2.213  10.488   0.531
 4707SOL    HW215961   2.224  10.425   0.668
 4708SOL     OW15962   9.799   7.529   3.740
 4708SOL    HW115963   9.893   7.513   3.733
 4708SOL    HW215964   9.777   7.504   3.830
 4709SOL     OW15965  13.890   6.546   8.960
 4709SOL    HW115966  13.962   6.573   9.017
 4709SOL    HW215967  13.832   6.495   9.017
 4710SOL     OW15968  14.407  14.513   3.916
 4710SOL    HW115969  14.332  14.461   3.948
 4710SOL    HW215970  14.472  14.447   3.891
 4711SOL     OW15971   4.199  14.717   9.321
 4711SOL    HW115972   4.164  14.696   9.408
 4711SOL    HW215973   4.148  14.793   9.293
 4712SOL     OW15974   4.468  14.701  13.128
 4712SOL    HW115975   4.436  14.677  13.215
 4712SOL    HW215976   4.401  14.667  13.068
 4713SOL     OW15977   8.692   1.965  14.849
 4713SOL    HW115978   8.655   2.043  14.810
 4713SOL    HW215979   8.787   1.975  14.839
 4714SOL     OW15980  10.558   1.655   1.982
 4714SOL    HW115981  10.568   1.689   2.071
 4714SOL    HW215982  10.471   1.683   1.955
 4715SOL     OW15983   2.804   7.770  14.440
 4715SOL    HW115984   2.882   7.747  14.491
 4715SOL    HW215985   2.825   7.856  14.403
 4716SOL     OW15986   6.151  13.688   9.176
 4716SOL    HW115987   6.145  13.664   9.084
 4716SOL    HW215988   6.069  13.658   9.215
 4717SOL     OW15989  13.770  11.433   1.577
 4717SOL    HW115990  13.828  11.365   1.543
 4717SOL    HW215991  13.691  11.426   1.523
 4718SOL     OW15992   6.501  12.244  11.412
 4718SOL    HW115993   6.543  12.283  11.489
 4718SOL    HW215994   6.571  12.241  11.346
 4719SOL     OW15995  13.425  10.478   6.150
 4719SOL    HW115996  13.404  10.550   6.091
 4719SOL    HW215997  13.355  10.480   6.215
 4720SOL     OW15998   0.104   4.606   3.556
 4720SOL    HW115999   0.068   4.690   3.529
 4720SOL    HW216000   0.145   4.570   3.477
 4721SOL     OW16001   9.289   2.328  10.484
 4721SOL    HW116002   9.209   2.371  10.453
 4721SOL    HW216003   9.282   2.333  10.580
 4722SOL     OW16004   3.866  10.550   3.161
 4722SOL    HW116005   3.891  10.457   3.166
 4722SOL    HW216006   3.782  10.549   3.115
 4723SOL     OW16007   5.691  12.512   6.774
 4723SOL    HW116008   5.717  12.565   6.699
 4723SOL    HW216009   5.689  12.423   6.741
 4724SOL     OW16010   3.025   2.641   8.903
 4724SOL    HW116011   2.972   2.658   8.826
 4724SOL    HW216012   3.108   2.685   8.886
 4725SOL     OW16013  12.308  13.986   0.863
 4725SOL    HW116014  12.310  14.077   0.893
 4725SOL    HW216015  12.314  13.934   0.944
 4726SOL     OW16016  10.213   5.261   9.191
 4726SOL    HW116017  10.137   5.319   9.196
 4726SOL    HW216018  10.254   5.268   9.277
 4727SOL     OW16019   1.874   9.843   3.761
 4727SOL    HW116020   1.847   9.885   3.843
 4727SOL    HW216021   1.940   9.779   3.788
 4728SOL     OW16022   8.805   3.006   0.209
 4728SOL    HW116023   8.874   2.972   0.151
 4728SOL    HW216024   8.848   3.078   0.256
 4729SOL     OW16025  14.874   6.833  12.683
 4729SOL    HW116026  14.873   6.779  12.605
 4729SOL    HW216027   0.084   6.823  12.717
 4730SOL     OW16028  11.118  11.945   7.485
 4730SOL    HW116029  11.114  11.854   7.457
 4730SOL    HW216030  11.154  11.992   7.410
 4731SOL     OW16031   5.180  12.196   9.290
 4731SOL    HW116032   5.196  12.197   9.384
 4731SOL    HW216033   5.197  12.105   9.264
 4732SOL     OW16034  10.085   0.853   0.401
 4732SOL    HW116035  10.117   0.801   0.327
 4732SOL    HW216036  10.006   0.896   0.368
 4733SOL     OW16037   9.059  13.622   5.520
 4733SOL    HW116038   9.014  13.667   5.449
 4733SOL    HW216039   9.119  13.687   5.555
 4734SOL     OW16040   8.740   0.654   5.879
 4734SOL    HW116041   8.826   0.619   5.903
 4734SOL    HW216042   8.736   0.740   5.921
 4735SOL     OW16043  13.318   1.953  12.167
 4735SOL    HW116044  13.288   1.938  12.077
 4735SOL    HW216045  13.400   2.001  12.157
 4736SOL     OW16046  10.890   6.224   3.331
 4736SOL    HW116047  10.969   6.178   3.303
 4736SOL    HW216048  10.824   6.203   3.265
 4737SOL     OW16049   0.458   7.978  11.680
 4737SOL    HW116050   0.407   7.986  11.600
 4737SOL    HW216051   0.523   8.048  11.674
 4738SOL     OW16052   5.505  12.417   2.558
 4738SOL    HW116053   5.516  12.498   2.608
 4738SOL    HW216054   5.426  12.377   2.593
 4739SOL     OW16055   8.631   0.586   5.401
 4739SOL    HW116056   8.675   0.621   5.324
 4739SOL    HW216057   8.559   0.534   5.365
 4740SOL     OW16058   3.467   6.000  13.611
 4740SOL    HW116059   3.466   6.072  13.675
 4740SOL    HW216060   3.493   6.042  13.529
 4741SOL     OW16061   1.683   1.663   5.583
 4741SOL    HW116062   1.745   1.591   5.588
 4741SOL    HW216063   1.735   1.741   5.597
 4742SOL     OW16064   2.622   7.643  13.538
 4742SOL    HW116065   2.611   7.548  13.545
 4742SOL    HW216066   2.533   7.678  13.544
 4743SOL     OW16067   3.293   3.893   1.589
 4743SOL    HW116068   3.291   3.985   1.562
 4743SOL    HW216069   3.219   3.853   1.545
 4744SOL     OW16070  13.611  14.710   2.542
 4744SOL    HW116071  13.617  14.621   2.578
 4744SOL    HW216072  13.649  14.703   2.454
 4745SOL     OW16073   0.590   1.767  11.193
 4745SOL    HW116074   0.495   1.770  11.181
 4745SOL    HW216075   0.604   1.696  11.256
 4746SOL     OW16076   4.740   5.469  10.789
 4746SOL    HW116077   4.762   5.515  10.707
 4746SOL    HW216078   4.818   5.480  10.843
 4747SOL     OW16079   2.486   7.277   9.338
 4747SOL    HW116080   2.470   7.307   9.427
 4747SOL    HW216081   2.493   7.181   9.346
 4748SOL     OW16082   2.005   7.386   2.750
 4748SOL    HW116083   2.071   7.325   2.783
 4748SOL    HW216084   2.036   7.472   2.779
 4749SOL     OW16085  11.742   2.895   2.263
 4749SOL    HW116086  11.833   2.907   2.239
 4749SOL    HW216087  11.703   2.982   2.257
 4750SOL     OW16088   1.586  10.359   7.516
 4750SOL    HW116089   1.497  10.386   7.497
 4750SOL    HW216090   1.613  10.307   7.440
 4751SOL     OW16091   6.795   2.873   1.439
 4751SOL    HW116092   6.841   2.822   1.505
 4751SOL    HW216093   6.849   2.951   1.426
 4752SOL     OW16094   5.904  12.972   0.013
 4752SOL    HW116095   5.960  12.965   0.091
 4752SOL    HW216096   5.894  13.067  14.880
 4753SOL     OW16097  10.128   2.315   7.024
 4753SOL    HW116098  10.124   2.405   6.990
 4753SOL    HW216099  10.193   2.272   6.968
 4754SOL     OW16100   0.697   6.146  14.571
 4754SOL    HW116101   0.679   6.191  14.654
 4754SOL    HW216102   0.744   6.067  14.597
 4755SOL     OW16103   6.143   0.665   1.169
 4755SOL    HW116104   6.115   0.754   1.193
 4755SOL    HW216105   6.217   0.647   1.228
 4756SOL     OW16106   8.145  13.200   2.624
 4756SOL    HW116107   8.117  13.289   2.648
 4756SOL    HW216108   8.131  13.196   2.529
 4757SOL     OW16109   8.925   3.983   3.718
 4757SOL    HW116110   8.937   3.960   3.810
 4757SOL    HW216111   8.996   4.044   3.699
 4758SOL     OW16112  11.358   2.413   0.342
 4758SOL    HW116113  11.344   2.409   0.437
 4758SOL    HW216114  11.269   2.414   0.305
 4759SOL     OW16115   7.773   5.675   9.994
 4759SOL    HW116116   7.867   5.661  10.005
 4759SOL    HW216117   7.751   5.629   9.913
 4760SOL     OW16118   7.919   3.669   5.501
 4760SOL    HW116119   7.975   3.722   5.443
 4760SOL    HW216120   7.933   3.706   5.588
 4761SOL     OW16121   2.447  13.890   7.502
 4761SOL    HW116122   2.519  13.930   7.454
 4761SOL    HW216123   2.368  13.927   7.463
 4762SOL     OW16124   4.491  13.604   3.351
 4762SOL    HW116125   4.580  13.571   3.353
 4762SOL    HW216126   4.495  13.688   3.397
 4763SOL     OW16127   0.061   0.570   6.713
 4763SOL    HW116128  14.864   0.559   6.657
 4763SOL    HW216129   0.057   0.662   6.741
 4764SOL     OW16130  10.168   7.734   7.689
 4764SOL    HW116131  10.077   7.762   7.681
 4764SOL    HW216132  10.219   7.802   7.645
 4765SOL     OW16133   0.937  13.862   0.941
 4765SOL    HW116134   0.884  13.886   1.017
 4765SOL    HW216135   1.024  13.842   0.977
 4766SOL     OW16136   3.129   9.287   3.137
 4766SOL    HW116137   3.207   9.342   3.148
 4766SOL    HW216138   3.060   9.349   3.111
 4767SOL     OW16139   6.021  10.484  10.775
 4767SOL    HW116140   6.068  10.409  10.739
 4767SOL    HW216141   6.087  10.532  10.826
 4768SOL     OW16142   5.448  10.295   1.405
 4768SOL    HW116143   5.475  10.316   1.315
 4768SOL    HW216144   5.528  10.307   1.457
 4769SOL     OW16145   9.793   7.081   5.238
 4769SOL    HW116146   9.822   7.029   5.313
 4769SOL    HW216147   9.856   7.154   5.233
 4770SOL     OW16148  12.089  12.629   3.736
 4770SOL    HW116149  12.122  12.547   3.773
 4770SOL    HW216150  11.995  12.628   3.754
 4771SOL     OW16151   5.621   0.202   2.557
 4771SOL    HW116152   5.637   0.268   2.490
 4771SOL    HW216153   5.583   0.128   2.509
 4772SOL     OW16154   5.024   6.967   8.658
 4772SOL    HW116155   5.012   6.965   8.563
 4772SOL    HW216156   5.057   7.055   8.676
 4773SOL     OW16157   1.900   5.635   0.398
 4773SOL    HW116158   1.889   5.664   0.308
 4773SOL    HW216159   1.829   5.679   0.446
 4774SOL     OW16160  12.123  12.261   7.261
 4774SOL    HW116161  12.177  12.189   7.294
 4774SOL    HW216162  12.170  12.340   7.288
 4775SOL     OW16163   2.652   9.261   6.846
 4775SOL    HW116164   2.714   9.306   6.789
 4775SOL    HW216165   2.651   9.313   6.927
 4776SOL     OW16166  10.978   9.896   6.745
 4776SOL    HW116167  10.970   9.992   6.747
 4776SOL    HW216168  10.914   9.866   6.809
 4777SOL     OW16169  12.652   4.240   8.032
 4777SOL    HW116170  12.636   4.301   8.104
 4777SOL    HW216171  12.619   4.286   7.955
 4778SOL     OW16172   7.793   0.746   2.389
 4778SOL    HW116173   7.875   0.788   2.361
 4778SOL    HW216174   7.728   0.777   2.325
 4779SOL     OW16175  13.663  14.050   6.923
 4779SOL    HW116176  13.705  13.964   6.912
 4779SOL    HW216177  13.572  14.030   6.942
 4780SOL     OW16178  11.591   3.355   5.926
 4780SOL    HW116179  11.561   3.286   5.985
 4780SOL    HW216180  11.534   3.430   5.946
 4781SOL     OW16181   5.096  11.999   0.647
 4781SOL    HW116182   5.078  11.912   0.685
 4781SOL    HW216183   5.035  12.006   0.574
 4782SOL     OW16184   5.370   6.896   1.445
 4782SOL    HW116185   5.338   6.933   1.363
 4782SOL    HW216186   5.292   6.867   1.492
 4783SOL     OW16187   1.704   2.606  13.935
 4783SOL    HW116188   1.634   2.598  14.000
 4783SOL    HW216189   1.754   2.682  13.963
 4784SOL     OW16190  12.606  13.659   3.636
 4784SOL    HW116191  12.625  13.742   3.678
 4784SOL    HW216192  12.691  13.624   3.610
 4785SOL     OW16193   6.988   1.811  10.148
 4785SOL    HW116194   6.911   1.867  10.161
 4785SOL    HW216195   6.969   1.762  10.068
 4786SOL     OW16196   4.183  11.334   0.389
 4786SOL    HW116197   4.243  11.328   0.315
 4786SOL    HW216198   4.175  11.427   0.407
 4787SOL     OW16199   5.236  11.098   1.589
 4787SOL    HW116200   5.312  11.060   1.634
 4787SOL    HW216201   5.162  11.077   1.646
 4788SOL     OW16202   4.438   3.155   7.200
 4788SOL    HW116203   4.506   3.211   7.238
 4788SOL    HW216204   4.487   3.085   7.156
 4789SOL     OW16205  14.704   5.358   9.181
 4789SOL    HW116206  14.624   5.348   9.233
 4789SOL    HW216207  14.718   5.453   9.178
 4790SOL     OW16208  12.535   2.106   0.907
 4790SOL    HW116209  12.536   2.012   0.927
 4790SOL    HW216210  12.502   2.111   0.817
 4791SOL     OW16211   0.676   3.312  10.306
 4791SOL    HW116212   0.604   3.250  10.307
 4791SOL    HW216213   0.652   3.376  10.239
 4792SOL     OW16214  11.340   4.394  11.159
 4792SOL    HW116215  11.293   4.414  11.078
 4792SOL    HW216216  11.401   4.324  11.135
 4793SOL     OW16217  13.708   3.149   9.497
 4793SOL    HW116218  13.743   3.067   9.464
 4793SOL    HW216219  13.622   3.126   9.532
 4794SOL     OW16220   3.924   8.678   1.173
 4794SOL    HW116221   3.855   8.734   1.207
 4794SOL    HW216222   3.879   8.612   1.121
 4795SOL     OW16223   8.508   5.962  13.888
 4795SOL    HW116224   8.456   5.904  13.945
 4795SOL    HW216225   8.472   5.948  13.801
 4796SOL     OW16226   4.321  10.434   2.567
 4796SOL    HW116227   4.228  10.438   2.585
 4796SOL    HW216228   4.330  10.365   2.501
 4797SOL     OW16229  10.962   1.757   7.044
 4797SOL    HW116230  11.030   1.704   7.004
 4797SOL    HW216231  10.984   1.847   7.022
 4798SOL     OW16232   1.939  13.220   6.500
 4798SOL    HW116233   1.859  13.182   6.462
 4798SOL    HW216234   1.934  13.196   6.593
 4799SOL     OW16235   3.396   8.381   2.824
 4799SOL    HW116236   3.393   8.315   2.755
 4799SOL    HW216237   3.424   8.334   2.902
 4800SOL     OW16238   1.457   6.959   9.140
 4800SOL    HW116239   1.515   7.009   9.082
 4800SOL    HW216240   1.403   7.026   9.183
 4801SOL     OW16241  10.238   3.372   4.407
 4801SOL    HW116242  10.223   3.459   4.443
 4801SOL    HW216243  10.184   3.368   4.328
 4802SOL     OW16244  10.219  13.840   2.090
 4802SOL    HW116245  10.195  13.761   2.042
 4802SOL    HW216246  10.255  13.898   2.024
 4803SOL     OW16247   1.835   3.267   3.693
 4803SOL    HW116248   1.919   3.286   3.651
 4803SOL    HW216249   1.770   3.304   3.633
 4804SOL     OW16250  14.474  10.246   4.493
 4804SOL    HW116251  14.568  10.242   4.478
 4804SOL    HW216252  14.452  10.161   4.532
 4805SOL     OW16253  13.849   9.016   4.054
 4805SOL    HW116254  13.883   9.093   4.009
 4805SOL    HW216255  13.805   8.966   3.986
 4806SOL     OW16256   9.252  11.278  13.742
 4806SOL    HW116257   9.185  11.346  13.747
 4806SOL    HW216258   9.251  11.249  13.651
 4807SOL     OW16259   5.565  13.593   3.069
 4807SOL    HW116260   5.649  13.601   3.025
 4807SOL    HW216261   5.502  13.578   2.999
 4808SOL     OW16262  10.126  12.560  10.634
 4808SOL    HW116263  10.100  12.649  10.611
 4808SOL    HW216264  10.203  12.542  10.580
 4809SOL     OW16265  12.894  10.775   7.468
 4809SOL    HW116266  12.877  10.824   7.388
 4809SOL    HW216267  12.849  10.692   7.456
 4810SOL     OW16268  13.625  12.868  13.954
 4810SOL    HW116269  13.681  12.916  13.892
 4810SOL    HW216270  13.590  12.936  14.012
 4811SOL     OW16271   4.742   2.664  10.702
 4811SOL    HW116272   4.665   2.625  10.660
 4811SOL    HW216273   4.795   2.696  10.630
 4812SOL     OW16274   6.318   4.918  12.295
 4812SOL    HW116275   6.410   4.944  12.292
 4812SOL    HW216276   6.280   4.970  12.365
 4813SOL     OW16277   6.512   4.293   5.866
 4813SOL    HW116278   6.559   4.226   5.817
 4813SOL    HW216279   6.525   4.373   5.816
 4814SOL     OW16280  11.482   5.162  12.841
 4814SOL    HW116281  11.412   5.107  12.805
 4814SOL    HW216282  11.440   5.211  12.911
 4815SOL     OW16283   2.077   3.754  14.076
 4815SOL    HW116284   2.155   3.698  14.085
 4815SOL    HW216285   2.004   3.696  14.096
 4816SOL     OW16286   8.111   8.322   8.096
 4816SOL    HW116287   8.192   8.342   8.050
 4816SOL    HW216288   8.082   8.238   8.059
 4817SOL     OW16289   1.781   8.939   6.130
 4817SOL    HW116290   1.862   8.984   6.153
 4817SOL    HW216291   1.785   8.856   6.176
 4818SOL     OW16292   3.708   8.655   0.461
 4818SOL    HW116293   3.717   8.679   0.553
 4818SOL    HW216294   3.757   8.573   0.452
 4819SOL     OW16295  11.808   4.902   9.452
 4819SOL    HW116296  11.733   4.957   9.474
 4819SOL    HW216297  11.853   4.950   9.382
 4820SOL     OW16298  10.118   9.523  13.076
 4820SOL    HW116299  10.069   9.594  13.117
 4820SOL    HW216300  10.208   9.535  13.107
 4821SOL     OW16301   8.372  12.766   5.889
 4821SOL    HW116302   8.384  12.714   5.809
 4821SOL    HW216303   8.402  12.853   5.866
 4822SOL     OW16304   7.103  12.165   3.268
 4822SOL    HW116305   7.088  12.193   3.178
 4822SOL    HW216306   7.138  12.243   3.312
 4823SOL     OW16307  14.298   2.444   1.649
 4823SOL    HW116308  14.365   2.437   1.581
 4823SOL    HW216309  14.306   2.363   1.699
 4824SOL     OW16310   5.243  13.891  10.548
 4824SOL    HW116311   5.188  13.838  10.605
 4824SOL    HW216312   5.236  13.850  10.462
 4825SOL     OW16313   4.661  13.986  12.802
 4825SOL    HW116314   4.697  13.973  12.714
 4825SOL    HW216315   4.567  14.002  12.787
 4826SOL     OW16316   0.392   0.624   2.658
 4826SOL    HW116317   0.411   0.556   2.593
 4826SOL    HW216318   0.383   0.576   2.741
 4827SOL     OW16319   0.916   8.937   2.652
 4827SOL    HW116320   0.835   8.917   2.700
 4827SOL    HW216321   0.960   9.002   2.706
 4828SOL     OW16322   7.055   9.806   1.690
 4828SOL    HW116323   7.067   9.735   1.627
 4828SOL    HW216324   7.030   9.882   1.637
 4829SOL     OW16325   1.665   2.446   6.944
 4829SOL    HW116326   1.710   2.424   7.025
 4829SOL    HW216327   1.604   2.516   6.968
 4830SOL     OW16328   8.834   4.790   0.303
 4830SOL    HW116329   8.850   4.699   0.279
 4830SOL    HW216330   8.906   4.813   0.362
 4831SOL     OW16331   1.398   8.500   9.833
 4831SOL    HW116332   1.425   8.411   9.854
 4831SOL    HW216333   1.392   8.502   9.737
 4832SOL     OW16334  11.752   2.747   8.055
 4832SOL    HW116335  11.797   2.821   8.096
 4832SOL    HW216336  11.813   2.674   8.064
 4833SOL     OW16337   7.290  12.508   4.947
 4833SOL    HW116338   7.326  12.490   5.033
 4833SOL    HW216339   7.320  12.597   4.927
 4834SOL     OW16340   7.498   3.005   7.384
 4834SOL    HW116341   7.584   2.978   7.414
 4834SOL    HW216342   7.499   2.989   7.289
 4835SOL     OW16343  10.845   2.238   5.876
 4835SOL    HW116344  10.755   2.231   5.907
 4835SOL    HW216345  10.839   2.297   5.801
 4836SOL     OW16346   8.716   5.906   6.976
 4836SOL    HW116347   8.685   5.890   6.886
 4836SOL    HW216348   8.810   5.921   6.966
 4837SOL     OW16349   5.689   2.662   9.102
 4837SOL    HW116350   5.758   2.716   9.142
 4837SOL    HW216351   5.646   2.619   9.176
 4838SOL     OW16352   9.873   8.718   9.711
 4838SOL    HW116353   9.926   8.639   9.725
 4838SOL    HW216354   9.864   8.757   9.798
 4839SOL     OW16355   6.439   5.385   9.472
 4839SOL    HW116356   6.405   5.373   9.561
 4839SOL    HW216357   6.521   5.334   9.471
 4840SOL     OW16358   2.808   5.080  12.898
 4840SOL    HW116359   2.827   5.167  12.933
 4840SOL    HW216360   2.882   5.026  12.924
 4841SOL     OW16361  10.627   7.627   3.980
 4841SOL    HW116362  10.602   7.619   3.888
 4841SOL    HW216363  10.544   7.619   4.028
 4842SOL     OW16364   1.923   4.300   9.715
 4842SOL    HW116365   1.929   4.378   9.660
 4842SOL    HW216366   1.856   4.321   9.779
 4843SOL     OW16367   7.391   9.588   4.739
 4843SOL    HW116368   7.442   9.660   4.777
 4843SOL    HW216369   7.417   9.511   4.789
 4844SOL     OW16370   1.501   3.153   8.722
 4844SOL    HW116371   1.437   3.165   8.652
 4844SOL    HW216372   1.585   3.170   8.680
 4845SOL     OW16373  13.341  12.966   2.590
 4845SOL    HW116374  13.350  12.880   2.631
 4845SOL    HW216375  13.369  12.952   2.499
 4846SOL     OW16376   7.093   6.901   7.143
 4846SOL    HW116377   7.024   6.949   7.098
 4846SOL    HW216378   7.112   6.954   7.221
 4847SOL     OW16379  14.070  10.037  10.993
 4847SOL    HW116380  14.067   9.991  10.909
 4847SOL    HW216381  14.030  10.122  10.975
 4848SOL     OW16382   6.939   7.588   6.608
 4848SOL    HW116383   6.957   7.540   6.689
 4848SOL    HW216384   7.008   7.560   6.548
 4849SOL     OW16385  14.750   1.689   4.241
 4849SOL    HW116386  14.805   1.767   4.230
 4849SOL    HW216387  14.665   1.724   4.269
 4850SOL     OW16388   0.597   0.702   0.411
 4850SOL    HW116389   0.684   0.668   0.433
 4850SOL    HW216390   0.536   0.635   0.441
 4851SOL     OW16391   3.952  12.549  14.386
 4851SOL    HW116392   3.916  12.623  14.337
 4851SOL    HW216393   3.994  12.494  14.320
 4852SOL     OW16394  12.388   0.091   1.557
 4852SOL    HW116395  12.479   0.117   1.574
 4852SOL    HW216396  12.391   0.044   1.474
 4853SOL     OW16397   2.820  11.492  10.229
 4853SOL    HW116398   2.912  11.512  10.249
 4853SOL    HW216399   2.825  11.422  10.164
 4854SOL     OW16400   2.739  13.775   0.299
 4854SOL    HW116401   2.777  13.822   0.374
 4854SOL    HW216402   2.659  13.735   0.334
 4855SOL     OW16403  10.553  13.670   3.873
 4855SOL    HW116404  10.469  13.666   3.919
 4855SOL    HW216405  10.617  13.688   3.942
 4856SOL     OW16406   3.523   6.367   2.707
 4856SOL    HW116407   3.554   6.358   2.617
 4856SOL    HW216408   3.452   6.432   2.701
 4857SOL     OW16409   7.483  13.700  14.131
 4857SOL    HW116410   7.494  13.623  14.187
 4857SOL    HW216411   7.539  13.767  14.171
 4858SOL     OW16412  14.004   5.246   7.610
 4858SOL    HW116413  13.938   5.293   7.559
 4858SOL    HW216414  13.967   5.240   7.698
 4859SOL     OW16415  11.018  10.681   6.134
 4859SOL    HW116416  10.999  10.639   6.050
 4859SOL    HW216417  11.072  10.757   6.111
 4860SOL     OW16418  12.496   0.601   1.078
 4860SOL    HW116419  12.517   0.533   1.142
 4860SOL    HW216420  12.502   0.557   0.993
 4861SOL     OW16421  10.588   0.688  10.370
 4861SOL    HW116422  10.586   0.776  10.407
 4861SOL    HW216423  10.573   0.630  10.444
 4862SOL     OW16424  10.276   7.498   7.165
 4862SOL    HW116425  10.192   7.476   7.123
 4862SOL    HW216426  10.261   7.583   7.206
 4863SOL     OW16427  13.832   9.556   2.768
 4863SOL    HW116428  13.801   9.478   2.814
 4863SOL    HW216429  13.808   9.542   2.677
 4864SOL     OW16430  10.434   8.077  14.653
 4864SOL    HW116431  10.529   8.091  14.651
 4864SOL    HW216432  10.407   8.090  14.562
 4865SOL     OW16433   7.862   0.623  10.714
 4865SOL    HW116434   7.955   0.635  10.731
 4865SOL    HW216435   7.837   0.549  10.770
 4866SOL     OW16436   4.590   1.529   1.024
 4866SOL    HW116437   4.514   1.528   1.082
 4866SOL    HW216438   4.568   1.595   0.958
 4867SOL     OW16439   1.145  10.028   2.834
 4867SOL    HW116440   1.130   9.934   2.842
 4867SOL    HW216441   1.208  10.036   2.763
 4868SOL     OW16442  12.055   3.084   2.004
 4868SOL    HW116443  12.058   3.179   1.996
 4868SOL    HW216444  12.074   3.068   2.097
 4869SOL     OW16445   0.849  10.089   3.515
 4869SOL    HW116446   0.866   9.995   3.512
 4869SOL    HW216447   0.885  10.118   3.598
 4870SOL     OW16448  13.915   8.457   3.317
 4870SOL    HW116449  13.822   8.466   3.295
 4870SOL    HW216450  13.958   8.529   3.270
 4871SOL     OW16451  10.127   6.417   8.173
 4871SOL    HW116452  10.081   6.365   8.239
 4871SOL    HW216453  10.185   6.354   8.130
 4872SOL     OW16454  10.197   6.075   7.928
 4872SOL    HW116455  10.218   6.136   7.999
 4872SOL    HW216456  10.279   6.028   7.911
 4873SOL     OW16457  11.594   0.101  11.266
 4873SOL    HW116458  11.583   0.007  11.271
 4873SOL    HW216459  11.689   0.114  11.259
 4874SOL     OW16460   9.051   3.125  12.363
 4874SOL    HW116461   9.043   3.036  12.396
 4874SOL    HW216462   9.103   3.118  12.284
 4875SOL     OW16463  10.494  12.979   4.881
 4875SOL    HW116464  10.529  12.892   4.898
 4875SOL    HW216465  10.567  13.038   4.898
 4876SOL     OW16466   2.750   6.256   8.766
 4876SOL    HW116467   2.766   6.198   8.691
 4876SOL    HW216468   2.677   6.312   8.738
 4877SOL     OW16469   5.006  12.805   1.762
 4877SOL    HW116470   5.047  12.852   1.690
 4877SOL    HW216471   4.913  12.825   1.754
 4878SOL     OW16472   8.075   6.763  14.746
 4878SOL    HW116473   8.156   6.748  14.794
 4878SOL    HW216474   8.021   6.686  14.765
 4879SOL     OW16475  11.397  14.165   7.556
 4879SOL    HW116476  11.320  14.160   7.498
 4879SOL    HW216477  11.459  14.102   7.518
 4880SOL     OW16478   1.035   2.073  11.318
 4880SOL    HW116479   1.084   1.997  11.350
 4880SOL    HW216480   0.953   2.037  11.285
 4881SOL     OW16481   7.002   3.883   6.037
 4881SOL    HW116482   6.915   3.842   6.043
 4881SOL    HW216483   7.063   3.811   6.050
 4882SOL     OW16484  12.361  12.749  14.829
 4882SOL    HW116485  12.334  12.788   0.033
 4882SOL    HW216486  12.449  12.784  14.814
 4883SOL     OW16487   0.472   1.633   6.773
 4883SOL    HW116488   0.532   1.640   6.699
 4883SOL    HW216489   0.459   1.539   6.786
 4884SOL     OW16490   0.505   9.876   3.315
 4884SOL    HW116491   0.458   9.954   3.345
 4884SOL    HW216492   0.437   9.809   3.309
 4885SOL     OW16493   7.531   9.077   0.936
 4885SOL    HW116494   7.539   9.143   0.867
 4885SOL    HW216495   7.506   8.997   0.890
 4886SOL     OW16496   7.962  11.518   5.132
 4886SOL    HW116497   7.897  11.551   5.194
 4886SOL    HW216498   7.924  11.437   5.098
 4887SOL     OW16499  11.012  14.512  12.700
 4887SOL    HW116500  10.921  14.541  12.694
 4887SOL    HW216501  11.062  14.581  12.658
 4888SOL     OW16502   0.276   1.924   5.198
 4888SOL    HW116503   0.290   1.956   5.109
 4888SOL    HW216504   0.333   1.978   5.252
 4889SOL     OW16505   1.420  12.649  14.097
 4889SOL    HW116506   1.468  12.683  14.172
 4889SOL    HW216507   1.466  12.569  14.073
 4890SOL     OW16508   0.494  13.316   9.092
 4890SOL    HW116509   0.465  13.401   9.059
 4890SOL    HW216510   0.428  13.292   9.158
 4891SOL     OW16511  12.766   7.487   8.474
 4891SOL    HW116512  12.800   7.460   8.559
 4891SOL    HW216513  12.829   7.453   8.411
 4892SOL     OW16514   8.952   3.164   9.035
 4892SOL    HW116515   8.874   3.150   9.090
 4892SOL    HW216516   8.962   3.259   9.032
 4893SOL     OW16517   9.685   6.957  11.375
 4893SOL    HW116518   9.619   6.888  11.374
 4893SOL    HW216519   9.639   7.034  11.406
 4894SOL     OW16520   9.982  13.540  12.525
 4894SOL    HW116521   9.998  13.608  12.591
 4894SOL    HW216522   9.940  13.469  12.573
 4895SOL     OW16523   6.436  12.198   8.411
 4895SOL    HW116524   6.367  12.178   8.347
 4895SOL    HW216525   6.440  12.293   8.412
 4896SOL     OW16526  10.652   4.492   2.943
 4896SOL    HW116527  10.681   4.463   3.029
 4896SOL    HW216528  10.563   4.524   2.957
 4897SOL     OW16529   6.315   1.191   7.614
 4897SOL    HW116530   6.357   1.223   7.694
 4897SOL    HW216531   6.331   1.260   7.549
 4898SOL     OW16532   4.314   8.860   6.986
 4898SOL    HW116533   4.307   8.772   6.949
 4898SOL    HW216534   4.278   8.918   6.918
 4899SOL     OW16535  12.308   0.559   3.162
 4899SOL    HW116536  12.276   0.488   3.106
 4899SOL    HW216537  12.384   0.521   3.207
 4900SOL     OW16538   8.632   2.978  12.948
 4900SOL    HW116539   8.649   2.886  12.964
 4900SOL    HW216540   8.694   3.025  13.004
 4901SOL     OW16541   5.707  13.359   9.254
 4901SOL    HW116542   5.654  13.291   9.212
 4901SOL    HW216543   5.690  13.348   9.348
 4902SOL     OW16544   9.028   5.922  14.455
 4902SOL    HW116545   9.067   5.954  14.536
 4902SOL    HW216546   8.946   5.971  14.447
 4903SOL     OW16547   8.345   6.587  10.730
 4903SOL    HW116548   8.271   6.641  10.754
 4903SOL    HW216549   8.393   6.639  10.665
 4904SOL     OW16550   6.989  12.260   3.028
 4904SOL    HW116551   7.023  12.336   2.981
 4904SOL    HW216552   6.921  12.225   2.971
 4905SOL     OW16553  10.331  14.513  11.896
 4905SOL    HW116554  10.250  14.544  11.938
 4905SOL    HW216555  10.401  14.545  11.953
 4906SOL     OW16556   4.277   2.569   3.560
 4906SOL    HW116557   4.182   2.559   3.563
 4906SOL    HW216558   4.310   2.502   3.620
 4907SOL     OW16559   9.354   4.956  10.851
 4907SOL    HW116560   9.278   4.946  10.908
 4907SOL    HW216561   9.422   4.993  10.907
 4908SOL     OW16562   3.224  13.847   9.312
 4908SOL    HW116563   3.198  13.923   9.260
 4908SOL    HW216564   3.141  13.811   9.344
 4909SOL     OW16565   2.555   2.065   4.849
 4909SOL    HW116566   2.503   1.985   4.859
 4909SOL    HW216567   2.495   2.127   4.808
 4910SOL     OW16568   3.369   8.517   9.281
 4910SOL    HW116569   3.428   8.491   9.209
 4910SOL    HW216570   3.318   8.589   9.245
 4911SOL     OW16571   6.532   3.620  14.643
 4911SOL    HW116572   6.578   3.686  14.593
 4911SOL    HW216573   6.502   3.666  14.721
 4912SOL     OW16574  14.531  13.829   1.663
 4912SOL    HW116575  14.498  13.739   1.663
 4912SOL    HW216576  14.520  13.859   1.573
 4913SOL     OW16577   6.758   8.933   4.610
 4913SOL    HW116578   6.768   9.017   4.654
 4913SOL    HW216579   6.840   8.886   4.628
 4914SOL     OW16580   2.441   2.269   0.090
 4914SOL    HW116581   2.428   2.180   0.056
 4914SOL    HW216582   2.409   2.326   0.020
 4915SOL     OW16583  14.707  10.327   2.240
 4915SOL    HW116584  14.794  10.288   2.233
 4915SOL    HW216585  14.704  10.364   2.328
 4916SOL     OW16586  13.573  14.213   4.979
 4916SOL    HW116587  13.656  14.175   4.951
 4916SOL    HW216588  13.581  14.306   4.959
 4917SOL     OW16589   8.595   6.312   7.273
 4917SOL    HW116590   8.617   6.221   7.255
 4917SOL    HW216591   8.599   6.356   7.188
 4918SOL     OW16592   7.260   1.577  10.405
 4918SOL    HW116593   7.327   1.528  10.453
 4918SOL    HW216594   7.306   1.654  10.371
 4919SOL     OW16595   0.383   2.545   9.445
 4919SOL    HW116596   0.452   2.604   9.416
 4919SOL    HW216597   0.394   2.540   9.540
 4920SOL     OW16598  10.621  14.422   9.167
 4920SOL    HW116599  10.655  14.492   9.111
 4920SOL    HW216600  10.610  14.347   9.108
 4921SOL     OW16601   7.722   5.612   9.301
 4921SOL    HW116602   7.730   5.532   9.354
 4921SOL    HW216603   7.641   5.599   9.251
 4922SOL     OW16604   8.047   6.984   9.594
 4922SOL    HW116605   7.982   6.930   9.639
 4922SOL    HW216606   7.996   7.053   9.552
 4923SOL     OW16607  13.616  13.114  12.779
 4923SOL    HW116608  13.617  13.150  12.691
 4923SOL    HW216609  13.549  13.046  12.776
 4924SOL     OW16610  11.904   9.010   5.504
 4924SOL    HW116611  11.979   8.959   5.474
 4924SOL    HW216612  11.934   9.050   5.586
 4925SOL     OW16613   9.906   5.857  12.393
 4925SOL    HW116614   9.833   5.891  12.444
 4925SOL    HW216615   9.950   5.935  12.359
 4926SOL     OW16616  11.487   8.224  14.205
 4926SOL    HW116617  11.423   8.232  14.276
 4926SOL    HW216618  11.485   8.310  14.162
 4927SOL     OW16619   1.931  13.616  12.842
 4927SOL    HW116620   1.941  13.568  12.925
 4927SOL    HW216621   2.015  13.661  12.831
 4928SOL     OW16622   6.530  12.531  13.479
 4928SOL    HW116623   6.467  12.475  13.525
 4928SOL    HW216624   6.571  12.584  13.547
 4929SOL     OW16625  12.256  14.416   9.287
 4929SOL    HW116626  12.316  14.352   9.325
 4929SOL    HW216627  12.256  14.397   9.193
 4930SOL     OW16628   7.261   5.745   3.763
 4930SOL    HW116629   7.288   5.750   3.854
 4930SOL    HW216630   7.340   5.771   3.713
 4931SOL     OW16631   9.092   3.161  13.985
 4931SOL    HW116632   9.102   3.135  14.077
 4931SOL    HW216633   9.030   3.098  13.949
 4932SOL     OW16634   7.870   9.788   5.355
 4932SOL    HW116635   7.957   9.786   5.395
 4932SOL    HW216636   7.824   9.713   5.392
 4933SOL     OW16637  11.777  13.887   1.292
 4933SOL    HW116638  11.742  13.975   1.281
 4933SOL    HW216639  11.774  13.849   1.204
 4934SOL     OW16640   6.221   9.914   8.911
 4934SOL    HW116641   6.249   9.856   8.839
 4934SOL    HW216642   6.151   9.967   8.873
 4935SOL     OW16643  10.545   3.850  13.331
 4935SOL    HW116644  10.539   3.944  13.314
 4935SOL    HW216645  10.470   3.812  13.285
 4936SOL     OW16646  10.471   6.322   4.387
 4936SOL    HW116647  10.495   6.269   4.312
 4936SOL    HW216648  10.376   6.335   4.377
 4937SOL     OW16649   6.739  10.916   5.595
 4937SOL    HW116650   6.692  10.835   5.615
 4937SOL    HW216651   6.702  10.946   5.512
 4938SOL     OW16652   0.242   3.917   1.480
 4938SOL    HW116653   0.317   3.859   1.493
 4938SOL    HW216654   0.279   4.005   1.490
 4939SOL     OW16655   3.653   1.030   3.610
 4939SOL    HW116656   3.708   1.010   3.686
 4939SOL    HW216657   3.701   1.099   3.563
 4940SOL     OW16658   7.425  14.143   6.242
 4940SOL    HW116659   7.398  14.189   6.321
 4940SOL    HW216660   7.467  14.063   6.274
 4941SOL     OW16661   6.302   8.687  13.071
 4941SOL    HW116662   6.316   8.627  12.998
 4941SOL    HW216663   6.390   8.704  13.105
 4942SOL     OW16664   0.931   0.716  12.018
 4942SOL    HW116665   0.931   0.649  11.949
 4942SOL    HW216666   1.023   0.741  12.027
 4943SOL     OW16667   2.445  10.079   1.920
 4943SOL    HW116668   2.445  10.050   1.828
 4943SOL    HW216669   2.422  10.001   1.970
 4944SOL     OW16670   0.216   1.670   3.992
 4944SOL    HW116671   0.190   1.579   3.979
 4944SOL    HW216672   0.155   1.720   3.938
 4945SOL     OW16673   7.068   7.610   7.904
 4945SOL    HW116674   7.100   7.605   7.814
 4945SOL    HW216675   6.979   7.575   7.900
 4946SOL     OW16676   1.631   0.844   8.556
 4946SOL    HW116677   1.691   0.904   8.601
 4946SOL    HW216678   1.669   0.834   8.469
 4947SOL     OW16679   9.712  12.569   8.618
 4947SOL    HW116680   9.708  12.610   8.704
 4947SOL    HW216681   9.628  12.523   8.610
 4948SOL     OW16682  12.061  12.065   6.906
 4948SOL    HW116683  12.066  12.147   6.858
 4948SOL    HW216684  12.152  12.042   6.925
 4949SOL     OW16685   8.234   1.856   0.647
 4949SOL    HW116686   8.213   1.930   0.589
 4949SOL    HW216687   8.149   1.829   0.682
 4950SOL     OW16688   9.275  12.317  14.184
 4950SOL    HW116689   9.333  12.305  14.108
 4950SOL    HW216690   9.331  12.357  14.251
 4951SOL     OW16691   1.997  12.703  10.216
 4951SOL    HW116692   2.079  12.668  10.184
 4951SOL    HW216693   1.942  12.711  10.138
 4952SOL     OW16694   1.507   7.618   8.704
 4952SOL    HW116695   1.581   7.615   8.764
 4952SOL    HW216696   1.546   7.608   8.617
 4953SOL     OW16697   2.919   2.994  11.106
 4953SOL    HW116698   2.965   2.920  11.066
 4953SOL    HW216699   2.851   3.017  11.042
 4954SOL     OW16700   7.236   4.461   7.131
 4954SOL    HW116701   7.323   4.478   7.094
 4954SOL    HW216702   7.177   4.465   7.056
 4955SOL     OW16703   5.329   9.864   2.209
 4955SOL    HW116704   5.332   9.803   2.135
 4955SOL    HW216705   5.284   9.941   2.175
 4956SOL     OW16706   9.990   8.222   6.977
 4956SOL    HW116707   9.985   8.185   6.889
 4956SOL    HW216708   9.940   8.304   6.972
 4957SOL     OW16709   8.426  10.874  13.537
 4957SOL    HW116710   8.473  10.831  13.608
 4957SOL    HW216711   8.334  10.875  13.566
 4958SOL     OW16712   3.826   3.409  11.691
 4958SOL    HW116713   3.804   3.495  11.728
 4958SOL    HW216714   3.802   3.416  11.599
 4959SOL     OW16715   4.120   2.201  11.540
 4959SOL    HW116716   4.100   2.263  11.470
 4959SOL    HW216717   4.198   2.155  11.510
 4960SOL     OW16718  14.476   6.333   6.968
 4960SOL    HW116719  14.422   6.271   7.017
 4960SOL    HW216720  14.531   6.374   7.035
 4961SOL     OW16721   0.654   1.499  11.192
 4961SOL    HW116722   0.642   1.438  11.265
 4961SOL    HW216723   0.566   1.508  11.154
 4962SOL     OW16724   2.654   5.837   2.056
 4962SOL    HW116725   2.570   5.837   2.010
 4962SOL    HW216726   2.707   5.901   2.008
 4963SOL     OW16727   4.903   4.321   0.530
 4963SOL    HW116728   4.810   4.304   0.512
 4963SOL    HW216729   4.912   4.416   0.522
 4964SOL     OW16730   1.103   9.777   2.902
 4964SOL    HW116731   1.086   9.781   2.997
 4964SOL    HW216732   1.149   9.694   2.890
 4965SOL     OW16733  11.500  13.813   8.038
 4965SOL    HW116734  11.538  13.733   8.001
 4965SOL    HW216735  11.465  13.859   7.962
 4966SOL     OW16736   9.087  13.439  11.998
 4966SOL    HW116737   9.086  13.513  11.936
 4966SOL    HW216738   9.089  13.361  11.942
 4967SOL     OW16739   7.885   4.680  12.368
 4967SOL    HW116740   7.938   4.642  12.298
 4967SOL    HW216741   7.799   4.641  12.358
 4968SOL     OW16742  13.859  13.720  10.082
 4968SOL    HW116743  13.849  13.786  10.013
 4968SOL    HW216744  13.876  13.772  10.161
 4969SOL     OW16745   7.588   6.531  14.001
 4969SOL    HW116746   7.522   6.463  13.986
 4969SOL    HW216747   7.589   6.581  13.919
 4970SOL     OW16748   5.064   6.911  12.361
 4970SOL    HW116749   5.153   6.923  12.396
 4970SOL    HW216750   5.077   6.865  12.278
 4971SOL     OW16751  14.195   0.613   9.490
 4971SOL    HW116752  14.130   0.573   9.432
 4971SOL    HW216753  14.193   0.706   9.468
 4972SOL     OW16754  12.359   9.379   3.974
 4972SOL    HW116755  12.452   9.389   3.955
 4972SOL    HW216756  12.333   9.300   3.926
 4973SOL     OW16757   3.934  10.093  11.000
 4973SOL    HW116758   3.953  10.049  10.917
 4973SOL    HW216759   4.001  10.061  11.060
 4974SOL     OW16760   6.130   0.239  12.792
 4974SOL    HW116761   6.136   0.320  12.742
 4974SOL    HW216762   6.036   0.229  12.809
 4975SOL     OW16763   2.608   7.748   6.658
 4975SOL    HW116764   2.596   7.654   6.665
 4975SOL    HW216765   2.593   7.781   6.747
 4976SOL     OW16766   8.434   7.161   3.900
 4976SOL    HW116767   8.523   7.195   3.914
 4976SOL    HW216768   8.446   7.088   3.839
 4977SOL     OW16769   7.108   6.809   7.571
 4977SOL    HW116770   7.083   6.787   7.481
 4977SOL    HW216771   7.204   6.804   7.571
 4978SOL     OW16772   9.069   0.149  11.337
 4978SOL    HW116773   9.121   0.144  11.418
 4978SOL    HW216774   9.063   0.059  11.306
 4979SOL     OW16775  13.927   7.464   9.474
 4979SOL    HW116776  13.919   7.486   9.381
 4979SOL    HW216777  13.881   7.381   9.484
 4980SOL     OW16778   9.067  13.619   0.405
 4980SOL    HW116779   9.080  13.628   0.499
 4980SOL    HW216780   9.145  13.659   0.366
 4981SOL     OW16781   3.469   4.387   6.667
 4981SOL    HW116782   3.437   4.462   6.718
 4981SOL    HW216783   3.442   4.311   6.719
 4982SOL     OW16784   6.794   0.020   5.356
 4982SOL    HW116785   6.705   0.043   5.333
 4982SOL    HW216786   6.827  14.852   5.280
 4983SOL     OW16787  14.129   8.453   6.768
 4983SOL    HW116788  14.057   8.514   6.748
 4983SOL    HW216789  14.089   8.387   6.825
 4984SOL     OW16790   5.341   5.950   4.387
 4984SOL    HW116791   5.298   6.035   4.394
 4984SOL    HW216792   5.434   5.968   4.398
 4985SOL     OW16793   2.246   3.220  14.228
 4985SOL    HW116794   2.266   3.302  14.272
 4985SOL    HW216795   2.214   3.162  14.297
 4986SOL     OW16796   6.464  11.876   5.923
 4986SOL    HW116797   6.505  11.949   5.969
 4986SOL    HW216798   6.536  11.835   5.875
 4987SOL     OW16799   1.734   6.980  13.926
 4987SOL    HW116800   1.673   7.007  13.995
 4987SOL    HW216801   1.678   6.939  13.860
 4988SOL     OW16802  10.584   1.347   2.108
 4988SOL    HW116803  10.586   1.434   2.148
 4988SOL    HW216804  10.676   1.318   2.109
 4989SOL     OW16805   1.650   3.490   0.562
 4989SOL    HW116806   1.562   3.466   0.532
 4989SOL    HW216807   1.691   3.407   0.585
 4990SOL     OW16808   4.213   7.248   8.548
 4990SOL    HW116809   4.265   7.329   8.543
 4990SOL    HW216810   4.181   7.246   8.639
 4991SOL     OW16811   6.633  14.737  10.246
 4991SOL    HW116812   6.572  14.724  10.174
 4991SOL    HW216813   6.636  14.832  10.258
 4992SOL     OW16814  12.784   1.973  14.858
 4992SOL    HW116815  12.712   1.917  14.830
 4992SOL    HW216816  12.769   2.055  14.812
 4993SOL     OW16817   6.952   8.322   8.225
 4993SOL    HW116818   6.894   8.288   8.157
 4993SOL    HW216819   7.011   8.250   8.245
 4994SOL     OW16820   3.847  11.948  10.948
 4994SOL    HW116821   3.871  12.040  10.937
 4994SOL    HW216822   3.873  11.927  11.037
 4995SOL     OW16823  10.749  10.821   9.666
 4995SOL    HW116824  10.810  10.836   9.594
 4995SOL    HW216825  10.792  10.754   9.719
 4996SOL     OW16826   2.164   4.733   3.088
 4996SOL    HW116827   2.094   4.701   3.032
 4996SOL    HW216828   2.242   4.732   3.032
 4997SOL     OW16829   7.809   7.577  13.935
 4997SOL    HW116830   7.796   7.554  14.027
 4997SOL    HW216831   7.860   7.658  13.937
 4998SOL     OW16832   2.301   9.124   9.297
 4998SOL    HW116833   2.269   9.160   9.380
 4998SOL    HW216834   2.283   9.193   9.233
 4999SOL     OW16835  10.701   3.981   1.844
 4999SOL    HW116836  10.772   4.035   1.878
 4999SOL    HW216837  10.723   3.966   1.752
 5000SOL     OW16838   3.729  10.504   9.310
 5000SOL    HW116839   3.675  10.582   9.312
 5000SOL    HW216840   3.819  10.537   9.315
 5001SOL     OW16841   3.531   6.613   4.825
 5001SOL    HW116842   3.519   6.708   4.818
 5001SOL    HW216843   3.459   6.584   4.882
 5002SOL     OW16844   6.896   7.829   4.166
 5002SOL    HW116845   6.814   7.873   4.189
 5002SOL    HW216846   6.898   7.831   4.070
 5003SOL     OW16847   6.754  10.656   4.444
 5003SOL    HW116848   6.803  10.722   4.394
 5003SOL    HW216849   6.713  10.601   4.377
 5004SOL     OW16850   2.124   9.760  14.456
 5004SOL    HW116851   2.200   9.704  14.471
 5004SOL    HW216852   2.055   9.700  14.428
 5005SOL     OW16853   0.035   6.386  12.747
 5005SOL    HW116854  14.859   6.433  12.810
 5005SOL    HW216855   0.031   6.438  12.667
 5006SOL     OW16856  12.371   4.998   5.200
 5006SOL    HW116857  12.456   4.973   5.164
 5006SOL    HW216858  12.311   4.930   5.168
 5007SOL     OW16859   3.571   4.985   6.180
 5007SOL    HW116860   3.591   4.916   6.243
 5007SOL    HW216861   3.648   5.042   6.180
 5008SOL     OW16862   5.863   4.454   8.502
 5008SOL    HW116863   5.799   4.509   8.548
 5008SOL    HW216864   5.905   4.404   8.571
 5009SOL     OW16865   8.227  14.684   0.070
 5009SOL    HW116866   8.304  14.741   0.069
 5009SOL    HW216867   8.220  14.653  14.859
 5010SOL     OW16868  12.156   6.595   9.762
 5010SOL    HW116869  12.100   6.520   9.745
 5010SOL    HW216870  12.097   6.670   9.762
 5011SOL     OW16871  11.372   9.992   7.396
 5011SOL    HW116872  11.457  10.015   7.434
 5011SOL    HW216873  11.372   9.896   7.394
 5012SOL     OW16874  13.962   1.840   1.252
 5012SOL    HW116875  13.985   1.864   1.342
 5012SOL    HW216876  13.869   1.862   1.244
 5013SOL     OW16877   5.848   6.240   6.337
 5013SOL    HW116878   5.914   6.192   6.388
 5013SOL    HW216879   5.897   6.312   6.298
 5014SOL     OW16880   0.068  10.957  10.478
 5014SOL    HW116881   0.035  10.871  10.454
 5014SOL    HW216882   0.126  10.982  10.406
 5015SOL     OW16883  11.224   1.210  11.378
 5015SOL    HW116884  11.137   1.182  11.406
 5015SOL    HW216885  11.275   1.216  11.459
 5016SOL     OW16886   1.957   3.042   1.901
 5016SOL    HW116887   1.929   3.021   1.991
 5016SOL    HW216888   1.882   3.016   1.847
 5017SOL     OW16889   5.659  12.304   1.066
 5017SOL    HW116890   5.695  12.231   1.016
 5017SOL    HW216891   5.735  12.353   1.097
 5018SOL     OW16892  11.332  10.566  10.619
 5018SOL    HW116893  11.342  10.646  10.671
 5018SOL    HW216894  11.264  10.516  10.665
 5019SOL     OW16895  10.166   3.670   9.683
 5019SOL    HW116896  10.103   3.610   9.644
 5019SOL    HW216897  10.189   3.731   9.613
 5020SOL     OW16898   2.890  10.403  13.863
 5020SOL    HW116899   2.966  10.453  13.893
 5020SOL    HW216900   2.885  10.422  13.769
 5021SOL     OW16901   7.425   7.369  13.411
 5021SOL    HW116902   7.424   7.456  13.451
 5021SOL    HW216903   7.518   7.347  13.404
 5022SOL     OW16904   0.900   6.740  10.282
 5022SOL    HW116905   0.994   6.736  10.268
 5022SOL    HW216906   0.887   6.817  10.338
 5023SOL     OW16907  10.576  11.606   3.789
 5023SOL    HW116908  10.583  11.662   3.712
 5023SOL    HW216909  10.485  11.576   3.790
 5024SOL     OW16910   0.812   6.012   3.171
 5024SOL    HW116911   0.814   5.973   3.084
 5024SOL    HW216912   0.730   6.062   3.173
 5025SOL     OW16913   6.112   5.542   0.162
 5025SOL    HW116914   6.072   5.468   0.117
 5025SOL    HW216915   6.049   5.613   0.152
 5026SOL     OW16916   6.041   9.126   0.102
 5026SOL    HW116917   6.088   9.208   0.118
 5026SOL    HW216918   6.062   9.072   0.178
 5027SOL     OW16919   5.883   1.933   6.434
 5027SOL    HW116920   5.863   1.953   6.525
 5027SOL    HW216921   5.821   1.985   6.384
 5028SOL     OW16922   6.055   7.855   4.797
 5028SOL    HW116923   6.088   7.940   4.771
 5028SOL    HW216924   5.979   7.875   4.852
 5029SOL     OW16925   1.271   9.017   8.703
 5029SOL    HW116926   1.347   9.074   8.715
 5029SOL    HW216927   1.251   8.986   8.791
 5030SOL     OW16928   6.769  11.740  11.137
 5030SOL    HW116929   6.852  11.786  11.153
 5030SOL    HW216930   6.754  11.689  11.217
 5031SOL     OW16931  11.488   5.612   1.132
 5031SOL    HW116932  11.461   5.561   1.209
 5031SOL    HW216933  11.479   5.551   1.059
 5032SOL     OW16934   3.392  13.669   8.239
 5032SOL    HW116935   3.374  13.584   8.199
 5032SOL    HW216936   3.339  13.731   8.188
 5033SOL     OW16937   4.910   1.891   4.269
 5033SOL    HW116938   4.861   1.951   4.213
 5033SOL    HW216939   4.935   1.819   4.212
 5034SOL     OW16940   8.998   4.096  12.994
 5034SOL    HW116941   8.947   4.118  12.916
 5034SOL    HW216942   9.089   4.104  12.965
 5035SOL     OW16943   2.215   3.839   4.541
 5035SOL    HW116944   2.191   3.823   4.450
 5035SOL    HW216945   2.132   3.842   4.588
 5036SOL     OW16946  11.241  12.256   4.898
 5036SOL    HW116947  11.325  12.219   4.873
 5036SOL    HW216948  11.262  12.336   4.945
 5037SOL     OW16949  13.381   1.555   4.617
 5037SOL    HW116950  13.314   1.487   4.618
 5037SOL    HW216951  13.390   1.578   4.524
 5038SOL     OW16952  11.606  11.806  14.250
 5038SOL    HW116953  11.619  11.769  14.337
 5038SOL    HW216954  11.512  11.823  14.245
 5039SOL     OW16955   1.288  11.465   2.767
 5039SOL    HW116956   1.383  11.465   2.755
 5039SOL    HW216957   1.252  11.485   2.680
 5040SOL     OW16958   8.014   7.084   2.550
 5040SOL    HW116959   8.051   7.146   2.612
 5040SOL    HW216960   7.934   7.053   2.592
 5041SOL     OW16961  10.346   5.272   1.343
 5041SOL    HW116962  10.291   5.330   1.291
 5041SOL    HW216963  10.433   5.281   1.305
 5042SOL     OW16964   2.946   7.275   2.428
 5042SOL    HW116965   2.950   7.370   2.442
 5042SOL    HW216966   2.857   7.258   2.398
 5043SOL     OW16967  12.719  10.741  10.348
 5043SOL    HW116968  12.808  10.716  10.323
 5043SOL    HW216969  12.730  10.799  10.424
 5044SOL     OW16970  13.503   6.021   4.147
 5044SOL    HW116971  13.489   6.109   4.110
 5044SOL    HW216972  13.451   5.963   4.091
 5045SOL     OW16973   8.304   6.935   4.635
 5045SOL    HW116974   8.341   7.021   4.650
 5045SOL    HW216975   8.350   6.877   4.695
 5046SOL     OW16976  11.759  11.720  14.508
 5046SOL    HW116977  11.748  11.815  14.499
 5046SOL    HW216978  11.830  11.697  14.448
 5047SOL     OW16979   9.294   1.183   5.964
 5047SOL    HW116980   9.304   1.128   5.886
 5047SOL    HW216981   9.293   1.121   6.037
 5048SOL     OW16982   9.902  14.847  13.409
 5048SOL    HW116983   9.871  14.782  13.346
 5048SOL    HW216984   9.827  14.861  13.467
 5049SOL     OW16985   6.906   2.854   6.921
 5049SOL    HW116986   6.896   2.759   6.924
 5049SOL    HW216987   6.850   2.881   6.847
 5050SOL     OW16988  10.509   6.784   0.820
 5050SOL    HW116989  10.494   6.764   0.727
 5050SOL    HW216990  10.589   6.736   0.842
 5051SOL     OW16991  14.870   9.575   7.253
 5051SOL    HW116992   0.002   9.670   7.260
 5051SOL    HW216993  14.835   9.562   7.165
 5052SOL     OW16994  13.815   9.808   6.979
 5052SOL    HW116995  13.892   9.777   6.931
 5052SOL    HW216996  13.832   9.901   6.994
 5053SOL     OW16997   4.010   0.886  12.095
 5053SOL    HW116998   4.009   0.940  12.174
 5053SOL    HW216999   4.089   0.833  12.104
 5054SOL     OW17000   4.938   0.733   4.492
 5054SOL    HW117001   4.970   0.816   4.457
 5054SOL    HW217002   4.995   0.667   4.452
 5055SOL     OW17003   5.662   9.029   5.248
 5055SOL    HW117004   5.757   9.035   5.232
 5055SOL    HW217005   5.636   8.950   5.201
 5056SOL     OW17006   5.511   1.963   9.844
 5056SOL    HW117007   5.602   1.958   9.873
 5056SOL    HW217008   5.501   2.053   9.813
 5057SOL     OW17009   1.389   7.070   0.981
 5057SOL    HW117010   1.298   7.058   0.952
 5057SOL    HW217011   1.397   7.164   0.998
 5058SOL     OW17012   3.767   0.644   7.974
 5058SOL    HW117013   3.794   0.570   8.028
 5058SOL    HW217014   3.696   0.686   8.024
 5059SOL     OW17015   6.735  13.017  10.095
 5059SOL    HW117016   6.714  12.976  10.011
 5059SOL    HW217017   6.772  12.946  10.148
 5060SOL     OW17018   3.464  14.660   3.494
 5060SOL    HW117019   3.504  14.717   3.559
 5060SOL    HW217020   3.474  14.707   3.411
 5061SOL     OW17021  10.054   6.734   6.738
 5061SOL    HW117022   9.967   6.724   6.699
 5061SOL    HW217023  10.042   6.798   6.808
 5062SOL     OW17024  12.547   0.929   2.215
 5062SOL    HW117025  12.496   0.979   2.152
 5062SOL    HW217026  12.498   0.937   2.297
 5063SOL     OW17027   0.133   4.345   9.171
 5063SOL    HW117028   0.053   4.390   9.197
 5063SOL    HW217029   0.194   4.415   9.149
 5064SOL     OW17030  11.334   9.712   4.377
 5064SOL    HW117031  11.378   9.797   4.383
 5064SOL    HW217032  11.394   9.651   4.421
 5065SOL     OW17033   2.567   3.373   5.884
 5065SOL    HW117034   2.537   3.439   5.822
 5065SOL    HW217035   2.589   3.422   5.963
 5066SOL     OW17036  11.693   3.415   0.551
 5066SOL    HW117037  11.732   3.467   0.481
 5066SOL    HW217038  11.748   3.337   0.556
 5067SOL     OW17039   2.806   8.112   7.150
 5067SOL    HW117040   2.860   8.034   7.139
 5067SOL    HW217041   2.831   8.146   7.236
 5068SOL     OW17042  13.718   3.616  14.319
 5068SOL    HW117043  13.711   3.546  14.384
 5068SOL    HW217044  13.789   3.671  14.351
 5069SOL     OW17045   2.884   1.253   6.846
 5069SOL    HW117046   2.927   1.207   6.918
 5069SOL    HW217047   2.939   1.330   6.831
 5070SOL     OW17048   7.439   5.865   4.829
 5070SOL    HW117049   7.527   5.833   4.849
 5070SOL    HW217050   7.443   5.958   4.847
 5071SOL     OW17051   2.848  14.331   1.864
 5071SOL    HW117052   2.866  14.275   1.939
 5071SOL    HW217053   2.762  14.369   1.883
 5072SOL     OW17054   2.315   7.518   4.562
 5072SOL    HW117055   2.337   7.464   4.487
 5072SOL    HW217056   2.396   7.525   4.612
 5073SOL     OW17057   3.747   0.389   7.613
 5073SOL    HW117058   3.670   0.349   7.572
 5073SOL    HW217059   3.729   0.385   7.707
 5074SOL     OW17060   2.813   0.159   1.637
 5074SOL    HW117061   2.897   0.147   1.682
 5074SOL    HW217062   2.836   0.177   1.546
 5075SOL     OW17063  14.235  10.671  11.332
 5075SOL    HW117064  14.159  10.729  11.343
 5075SOL    HW217065  14.200  10.583  11.350
 5076SOL     OW17066  13.438   9.982   0.779
 5076SOL    HW117067  13.491  10.048   0.822
 5076SOL    HW217068  13.493   9.903   0.780
 5077SOL     OW17069  12.518  11.821   8.119
 5077SOL    HW117070  12.433  11.783   8.140
 5077SOL    HW217071  12.582  11.763   8.161
 5078SOL     OW17072  12.412   5.318   8.862
 5078SOL    HW117073  12.367   5.238   8.891
 5078SOL    HW217074  12.488   5.286   8.814
 5079SOL     OW17075   3.818  13.732   6.588
 5079SOL    HW117076   3.864  13.799   6.537
 5079SOL    HW217077   3.861  13.733   6.673
 5080SOL     OW17078   7.222  14.584  11.676
 5080SOL    HW117079   7.199  14.677  11.665
 5080SOL    HW217080   7.146  14.537  11.642
 5081SOL     OW17081  10.329   8.852   3.260
 5081SOL    HW117082  10.345   8.828   3.352
 5081SOL    HW217083  10.242   8.817   3.241
 5082SOL     OW17084  14.700   5.161   6.767
 5082SOL    HW117085  14.670   5.230   6.708
 5082SOL    HW217086  14.781   5.129   6.727
 5083SOL     OW17087   2.964   6.901   5.985
 5083SOL    HW117088   2.926   6.989   5.978
 5083SOL    HW217089   3.057   6.916   6.000
 5084SOL     OW17090   4.087  13.069   7.399
 5084SOL    HW117091   4.168  13.120   7.396
 5084SOL    HW217092   4.037  13.100   7.323
 5085SOL     OW17093   7.204   6.037   6.293
 5085SOL    HW117094   7.120   6.046   6.249
 5085SOL    HW217095   7.233   5.948   6.271
 5086SOL     OW17096   7.475   5.908   8.820
 5086SOL    HW117097   7.563   5.918   8.785
 5086SOL    HW217098   7.417   5.937   8.749
 5087SOL     OW17099   5.427   1.555   1.057
 5087SOL    HW117100   5.422   1.563   0.962
 5087SOL    HW217101   5.471   1.634   1.086
 5088SOL     OW17102  14.365   7.270   0.150
 5088SOL    HW117103  14.459   7.262   0.131
 5088SOL    HW217104  14.324   7.202   0.097
 5089SOL     OW17105   6.294   1.060   2.046
 5089SOL    HW117106   6.343   0.988   2.087
 5089SOL    HW217107   6.348   1.137   2.062
 5090SOL     OW17108   6.527   6.224   5.047
 5090SOL    HW117109   6.598   6.170   5.011
 5090SOL    HW217110   6.524   6.300   4.990
 5091SOL     OW17111   0.879  12.054   6.433
 5091SOL    HW117112   0.974  12.054   6.441
 5091SOL    HW217113   0.851  12.133   6.480
 5092SOL     OW17114   8.218   8.640   7.513
 5092SOL    HW117115   8.140   8.673   7.467
 5092SOL    HW217116   8.269   8.598   7.444
 5093SOL     OW17117   7.835  12.613   7.439
 5093SOL    HW117118   7.854  12.664   7.361
 5093SOL    HW217119   7.746  12.579   7.425
 5094SOL     OW17120   9.414  12.215  14.592
 5094SOL    HW117121   9.421  12.233  14.686
 5094SOL    HW217122   9.501  12.236  14.557
 5095SOL     OW17123   3.070   2.272   4.840
 5095SOL    HW117124   3.053   2.334   4.769
 5095SOL    HW217125   3.162   2.248   4.829
 5096SOL     OW17126  14.336   7.025   5.471
 5096SOL    HW117127  14.354   7.119   5.467
 5096SOL    HW217128  14.412   6.988   5.516
 5097SOL     OW17129  14.518   0.505   0.453
 5097SOL    HW117130  14.614   0.498   0.452
 5097SOL    HW217131  14.487   0.416   0.438
 5098SOL     OW17132   6.805  13.206  14.746
 5098SOL    HW117133   6.713  13.230  14.754
 5098SOL    HW217134   6.836  13.256  14.671
 5099SOL     OW17135   9.907  11.765  10.596
 5099SOL    HW117136   9.909  11.838  10.658
 5099SOL    HW217137   9.866  11.694  10.645
 5100SOL     OW17138   9.997   8.900   5.890
 5100SOL    HW117139   9.927   8.852   5.935
 5100SOL    HW217140  10.040   8.950   5.960
 5101SOL     OW17141  13.572   7.190   4.988
 5101SOL    HW117142  13.525   7.140   4.921
 5101SOL    HW217143  13.506   7.207   5.055
 5102SOL     OW17144  11.679   0.799   8.906
 5102SOL    HW117145  11.679   0.861   8.832
 5102SOL    HW217146  11.747   0.735   8.883
 5103SOL     OW17147  10.402   7.553   2.322
 5103SOL    HW117148  10.391   7.525   2.231
 5103SOL    HW217149  10.385   7.474   2.374
 5104SOL     OW17150   5.455  12.497   6.480
 5104SOL    HW117151   5.538  12.452   6.498
 5104SOL    HW217152   5.399  12.429   6.443
 5105SOL     OW17153   9.372   2.623   2.289
 5105SOL    HW117154   9.312   2.687   2.249
 5105SOL    HW217155   9.456   2.639   2.245
 5106SOL     OW17156   9.046   8.211   4.467
 5106SOL    HW117157   8.968   8.166   4.435
 5106SOL    HW217158   9.116   8.146   4.457
 5107SOL     OW17159   9.510   8.576   2.357
 5107SOL    HW117160   9.454   8.550   2.284
 5107SOL    HW217161   9.584   8.515   2.353
 5108SOL     OW17162   3.587  11.513  13.516
 5108SOL    HW117163   3.635  11.441  13.557
 5108SOL    HW217164   3.580  11.579  13.584
 5109SOL     OW17165   6.623   1.582   8.398
 5109SOL    HW117166   6.543   1.598   8.348
 5109SOL    HW217167   6.592   1.539   8.478
 5110SOL     OW17168   7.283   2.684  10.742
 5110SOL    HW117169   7.353   2.619  10.753
 5110SOL    HW217170   7.210   2.650  10.794
 5111SOL     OW17171   3.738   9.964   8.964
 5111SOL    HW117172   3.655   9.925   8.991
 5111SOL    HW217173   3.768  10.011   9.041
 5112SOL     OW17174  10.792   0.051  11.368
 5112SOL    HW117175  10.788  14.843  11.330
 5112SOL    HW217176  10.722   0.100  11.324
 5113SOL     OW17177   6.442   0.304   0.983
 5113SOL    HW117178   6.500   0.380   0.986
 5113SOL    HW217179   6.358   0.337   1.014
 5114SOL     OW17180  13.165   1.546   2.133
 5114SOL    HW117181  13.237   1.483   2.132
 5114SOL    HW217182  13.086   1.492   2.124
 5115SOL     OW17183   3.189  11.807   3.684
 5115SOL    HW117184   3.113  11.758   3.715
 5115SOL    HW217185   3.249  11.741   3.651
 5116SOL     OW17186  13.911  13.207  13.501
 5116SOL    HW117187  13.836  13.147  13.500
 5116SOL    HW217188  13.962  13.183  13.424
 5117SOL     OW17189   4.994  11.466  12.987
 5117SOL    HW117190   4.959  11.384  12.951
 5117SOL    HW217191   4.932  11.489  13.057
 5118SOL     OW17192   9.060  13.492   9.026
 5118SOL    HW117193   9.054  13.413   8.971
 5118SOL    HW217194   9.119  13.467   9.097
 5119SOL     OW17195  14.654  14.765  11.866
 5119SOL    HW117196  14.609  14.845  11.837
 5119SOL    HW217197  14.708  14.794  11.939
 5120SOL     OW17198  12.956  13.698   3.206
 5120SOL    HW117199  13.016  13.633   3.170
 5120SOL    HW217200  12.951  13.765   3.139
 5121SOL     OW17201   0.177   0.026   7.577
 5121SOL    HW117202   0.234   0.100   7.554
 5121SOL    HW217203   0.090   0.052   7.547
 5122SOL     OW17204   4.770  13.105   9.263
 5122SOL    HW117205   4.766  13.198   9.240
 5122SOL    HW217206   4.694  13.066   9.220
 5123SOL     OW17207   6.543   0.089  12.287
 5123SOL    HW117208   6.539   0.168  12.232
 5123SOL    HW217209   6.607   0.033  12.242
 5124SOL     OW17210   3.600   0.327   9.689
 5124SOL    HW117211   3.587   0.242   9.646
 5124SOL    HW217212   3.665   0.309   9.757
 5125SOL     OW17213  13.119   5.644   4.576
 5125SOL    HW117214  13.029   5.677   4.581
 5125SOL    HW217215  13.168   5.714   4.532
 5126SOL     OW17216   5.427  12.354   3.934
 5126SOL    HW117217   5.512  12.345   3.892
 5126SOL    HW217218   5.437  12.427   3.995
 5127SOL     OW17219   4.109   1.665   1.307
 5127SOL    HW117220   4.031   1.650   1.253
 5127SOL    HW217221   4.150   1.743   1.269
 5128SOL     OW17222   7.319   2.094  10.595
 5128SOL    HW117223   7.358   2.182  10.590
 5128SOL    HW217224   7.225   2.109  10.584
 5129SOL     OW17225   1.651  14.255   0.166
 5129SOL    HW117226   1.580  14.307   0.129
 5129SOL    HW217227   1.653  14.278   0.258
 5130SOL     OW17228  11.367  10.745   1.184
 5130SOL    HW117229  11.385  10.678   1.117
 5130SOL    HW217230  11.307  10.806   1.141
 5131SOL     OW17231  10.655  13.033   8.583
 5131SOL    HW117232  10.567  13.042   8.547
 5131SOL    HW217233  10.713  13.055   8.510
 5132SOL     OW17234   8.658   7.004   1.154
 5132SOL    HW117235   8.697   6.960   1.229
 5132SOL    HW217236   8.583   6.950   1.130
 5133SOL     OW17237   4.243   0.021  13.358
 5133SOL    HW117238   4.327   0.030  13.403
 5133SOL    HW217239   4.178   0.050  13.422
 5134SOL     OW17240   5.198   5.092   3.369
 5134SOL    HW117241   5.217   5.154   3.439
 5134SOL    HW217242   5.278   5.090   3.316
 5135SOL     OW17243   6.885  11.896   6.624
 5135SOL    HW117244   6.949  11.840   6.667
 5135SOL    HW217245   6.920  11.908   6.536
 5136SOL     OW17246  11.585   6.686   4.536
 5136SOL    HW117247  11.501   6.681   4.582
 5136SOL    HW217248  11.562   6.674   4.444
 5137SOL     OW17249   2.857   7.063  10.384
 5137SOL    HW117250   2.927   7.038  10.445
 5137SOL    HW217251   2.779   7.070  10.440
 5138SOL     OW17252   9.050   1.273  14.702
 5138SOL    HW117253   8.972   1.295  14.650
 5138SOL    HW217254   9.090   1.358  14.721
 5139SOL     OW17255   5.573  13.450  14.362
 5139SOL    HW117256   5.614  13.489  14.440
 5139SOL    HW217257   5.511  13.516  14.333
 5140SOL     OW17258   4.472  13.028   6.975
 5140SOL    HW117259   4.556  13.002   7.013
 5140SOL    HW217260   4.419  12.949   6.977
 5141SOL     OW17261  11.332   1.806   0.516
 5141SOL    HW117262  11.240   1.799   0.490
 5141SOL    HW217263  11.358   1.894   0.488
 5142SOL     OW17264  10.531   7.142  14.390
 5142SOL    HW117265  10.553   7.235  14.384
 5142SOL    HW217266  10.595   7.098  14.335
 5143SOL     OW17267   3.744   5.619   6.973
 5143SOL    HW117268   3.681   5.681   6.935
 5143SOL    HW217269   3.698   5.536   6.975
 5144SOL     OW17270   5.455  10.582   5.154
 5144SOL    HW117271   5.485  10.528   5.081
 5144SOL    HW217272   5.534  10.627   5.184
 5145SOL     OW17273  10.143  13.761  12.130
 5145SOL    HW117274  10.088  13.799  12.061
 5145SOL    HW217275  10.224  13.813  12.128
 5146SOL     OW17276   5.012  11.171   3.033
 5146SOL    HW117277   5.040  11.260   3.055
 5146SOL    HW217278   5.060  11.116   3.094
 5147SOL     OW17279   3.284   1.922   8.959
 5147SOL    HW117280   3.227   1.906   8.883
 5147SOL    HW217281   3.223   1.944   9.030
 5148SOL     OW17282   8.231  10.376   8.722
 5148SOL    HW117283   8.212  10.329   8.640
 5148SOL    HW217284   8.148  10.415   8.747
 5149SOL     OW17285   4.227   8.655   5.428
 5149SOL    HW117286   4.173   8.645   5.506
 5149SOL    HW217287   4.274   8.738   5.442
 5150SOL     OW17288   7.850   7.744  13.323
 5150SOL    HW117289   7.915   7.793  13.372
 5150SOL    HW217290   7.769   7.754  13.373
 5151SOL     OW17291   6.052  11.927  12.936
 5151SOL    HW117292   6.024  12.018  12.926
 5151SOL    HW217293   6.034  11.906  13.027
 5152SOL     OW17294   1.514   9.621   1.468
 5152SOL    HW117295   1.581   9.678   1.506
 5152SOL    HW217296   1.545   9.604   1.379
 5153SOL     OW17297   4.732   3.627  13.112
 5153SOL    HW117298   4.807   3.633  13.053
 5153SOL    HW217299   4.742   3.542  13.155
 5154SOL     OW17300   4.012  12.452   3.312
 5154SOL    HW117301   4.002  12.362   3.343
 5154SOL    HW217302   3.935  12.498   3.346
 5155SOL     OW17303   2.327   6.206   6.154
 5155SOL    HW117304   2.338   6.131   6.213
 5155SOL    HW217305   2.373   6.278   6.198
 5156SOL     OW17306   9.761   9.623   8.713
 5156SOL    HW117307   9.851   9.602   8.737
 5156SOL    HW217308   9.755   9.718   8.723
 5157SOL     OW17309  10.082  13.230   6.768
 5157SOL    HW117310   9.989  13.217   6.787
 5157SOL    HW217311  10.112  13.144   6.739
 5158SOL     OW17312   3.379   6.778   8.247
 5158SOL    HW117313   3.384   6.731   8.164
 5158SOL    HW217314   3.385   6.871   8.222
 5159SOL     OW17315   3.558   1.901   0.428
 5159SOL    HW117316   3.565   1.983   0.477
 5159SOL    HW217317   3.488   1.917   0.365
 5160SOL     OW17318  11.601   9.663  13.101
 5160SOL    HW117319  11.582   9.652  13.008
 5160SOL    HW217320  11.692   9.690  13.104
 5161SOL     OW17321  10.004   3.413  14.743
 5161SOL    HW117322   9.993   3.452  14.830
 5161SOL    HW217323   9.943   3.339  14.742
 5162SOL     OW17324   6.020   5.413   0.822
 5162SOL    HW117325   5.967   5.465   0.883
 5162SOL    HW217326   6.070   5.478   0.773
 5163SOL     OW17327   9.350  14.593   7.862
 5163SOL    HW117328   9.408  14.530   7.819
 5163SOL    HW217329   9.366  14.676   7.817
 5164SOL     OW17330   9.113   4.789   7.838
 5164SOL    HW117331   9.101   4.822   7.927
 5164SOL    HW217332   9.024   4.777   7.805
 5165SOL     OW17333   2.819   6.318   1.653
 5165SOL    HW117334   2.784   6.255   1.589
 5165SOL    HW217335   2.879   6.372   1.602
 5166SOL     OW17336   6.886  11.423   3.078
 5166SOL    HW117337   6.931  11.467   3.149
 5166SOL    HW217338   6.934  11.449   2.999
 5167SOL     OW17339   1.469  11.590   3.079
 5167SOL    HW117340   1.488  11.501   3.108
 5167SOL    HW217341   1.467  11.584   2.984
 5168SOL     OW17342   0.617   9.187   4.883
 5168SOL    HW117343   0.639   9.132   4.959
 5168SOL    HW217344   0.586   9.269   4.921
 5169SOL     OW17345  13.447   5.024   4.601
 5169SOL    HW117346  13.454   5.019   4.696
 5169SOL    HW217347  13.409   4.941   4.575
 5170SOL     OW17348  13.535   7.395  12.472
 5170SOL    HW117349  13.552   7.434  12.558
 5170SOL    HW217350  13.575   7.456  12.410
 5171SOL     OW17351  10.671   1.690   9.715
 5171SOL    HW117352  10.759   1.652   9.714
 5171SOL    HW217353  10.613   1.615   9.727
 5172SOL     OW17354   2.257   0.500   0.481
 5172SOL    HW117355   2.301   0.489   0.397
 5172SOL    HW217356   2.327   0.514   0.544
 5173SOL     OW17357  13.638   5.353   4.658
 5173SOL    HW117358  13.554   5.314   4.682
 5173SOL    HW217359  13.642   5.435   4.708
 5174SOL     OW17360   2.125   9.045   4.054
 5174SOL    HW117361   2.047   8.988   4.053
 5174SOL    HW217362   2.122   9.087   4.140
 5175SOL     OW17363  12.104   2.575   2.373
 5175SOL    HW117364  12.131   2.660   2.407
 5175SOL    HW217365  12.107   2.585   2.278
 5176SOL     OW17366  10.304  14.461  13.272
 5176SOL    HW117367  10.298  14.463  13.176
 5176SOL    HW217368  10.392  14.427  13.290
 5177SOL     OW17369   0.650   0.779   3.979
 5177SOL    HW117370   0.661   0.746   4.068
 5177SOL    HW217371   0.731   0.754   3.934
 5178SOL     OW17372   2.050  13.859   9.664
 5178SOL    HW117373   2.013  13.817   9.742
 5178SOL    HW217374   2.132  13.899   9.694
 5179SOL     OW17375   6.219   5.097   2.084
 5179SOL    HW117376   6.301   5.059   2.052
 5179SOL    HW217377   6.176   5.025   2.131
 5180SOL     OW17378   6.236   2.954   6.348
 5180SOL    HW117379   6.230   3.002   6.265
 5180SOL    HW217380   6.145   2.938   6.373
 5181SOL     OW17381   1.044   9.975  14.382
 5181SOL    HW117382   1.027   9.882  14.369
 5181SOL    HW217383   1.048  10.012  14.294
 5182SOL     OW17384   5.954   7.799   3.660
 5182SOL    HW117385   5.889   7.863   3.689
 5182SOL    HW217386   6.034   7.822   3.708
 5183SOL     OW17387   3.486   7.681  12.893
 5183SOL    HW117388   3.493   7.750  12.827
 5183SOL    HW217389   3.392   7.666  12.901
 5184SOL     OW17390  10.209   7.094   4.846
 5184SOL    HW117391  10.305   7.090   4.850
 5184SOL    HW217392  10.189   7.087   4.752
 5185SOL     OW17393   9.413   4.561   0.220
 5185SOL    HW117394   9.339   4.526   0.270
 5185SOL    HW217395   9.487   4.557   0.281
 5186SOL     OW17396  10.190   3.994  14.258
 5186SOL    HW117397  10.112   3.942  14.244
 5186SOL    HW217398  10.250   3.936  14.305
 5187SOL     OW17399   3.169  12.521  10.390
 5187SOL    HW117400   3.197  12.560  10.307
 5187SOL    HW217401   3.213  12.436  10.392
 5188SOL     OW17402   4.206  13.963   0.848
 5188SOL    HW117403   4.159  13.883   0.871
 5188SOL    HW217404   4.298  13.941   0.865
 5189SOL     OW17405  12.113  11.487  10.122
 5189SOL    HW117406  12.026  11.454  10.096
 5189SOL    HW217407  12.125  11.454  10.211
 5190SOL     OW17408   6.021  11.673  14.528
 5190SOL    HW117409   6.029  11.619  14.450
 5190SOL    HW217410   6.099  11.653  14.579
 5191SOL     OW17411  12.586   4.894   5.691
 5191SOL    HW117412  12.658   4.861   5.638
 5191SOL    HW217413  12.511   4.896   5.631
 5192SOL     OW17414  10.379   4.023  12.230
 5192SOL    HW117415  10.361   3.980  12.313
 5192SOL    HW217416  10.469   4.054  12.238
 5193SOL     OW17417   3.925  11.078   3.688
 5193SOL    HW117418   3.846  11.024   3.697
 5193SOL    HW217419   3.969  11.043   3.611
 5194SOL     OW17420   5.998   1.339   7.096
 5194SOL    HW117421   6.079   1.368   7.138
 5194SOL    HW217422   6.007   1.244   7.088
 5195SOL     OW17423   8.174   0.496  14.001
 5195SOL    HW117424   8.227   0.480  13.923
 5195SOL    HW217425   8.127   0.577  13.981
 5196SOL     OW17426  14.127  14.184  13.851
 5196SOL    HW117427  14.091  14.125  13.786
 5196SOL    HW217428  14.213  14.146  13.873
 5197SOL     OW17429   6.423   7.856  11.681
 5197SOL    HW117430   6.335   7.869  11.715
 5197SOL    HW217431   6.474   7.828  11.757
 5198SOL     OW17432   6.022   5.855  10.904
 5198SOL    HW117433   6.098   5.821  10.950
 5198SOL    HW217434   5.951   5.850  10.968
 5199SOL     OW17435   1.668  13.065  10.777
 5199SOL    HW117436   1.586  13.046  10.730
 5199SOL    HW217437   1.643  13.130  10.843
 5200SOL     OW17438   3.684   5.426  13.665
 5200SOL    HW117439   3.682   5.518  13.695
 5200SOL    HW217440   3.661   5.376  13.743
 5201SOL     OW17441   0.028  12.067   3.444
 5201SOL    HW117442   0.052  12.160   3.440
 5201SOL    HW217443   0.031  12.037   3.354
 5202SOL     OW17444   0.103  11.148  14.477
 5202SOL    HW117445   0.019  11.170  14.438
 5202SOL    HW217446   0.151  11.231  14.480
 5203SOL     OW17447  11.482  10.467   9.733
 5203SOL    HW117448  11.391  10.461   9.704
 5203SOL    HW217449  11.516  10.546   9.691
 5204SOL     OW17450   9.512   0.140   7.741
 5204SOL    HW117451   9.510   0.062   7.797
 5204SOL    HW217452   9.425   0.179   7.753
 5205SOL     OW17453   9.437  13.904   9.575
 5205SOL    HW117454   9.441  13.981   9.518
 5205SOL    HW217455   9.401  13.937   9.658
 5206SOL     OW17456  13.878   9.953   6.112
 5206SOL    HW117457  13.907  10.027   6.166
 5206SOL    HW217458  13.927   9.878   6.146
 5207SOL     OW17459   7.184  10.406   4.666
 5207SOL    HW117460   7.134  10.442   4.739
 5207SOL    HW217461   7.118  10.374   4.605
 5208SOL     OW17462   1.801   5.203  13.261
 5208SOL    HW117463   1.852   5.250  13.327
 5208SOL    HW217464   1.715   5.189  13.302
 5209SOL     OW17465  12.371   3.305  14.352
 5209SOL    HW117466  12.463   3.310  14.326
 5209SOL    HW217467  12.323   3.341  14.277
 5210SOL     OW17468  13.304   7.083   6.772
 5210SOL    HW117469  13.306   7.109   6.864
 5210SOL    HW217470  13.230   7.023   6.765
 5211SOL     OW17471   9.408  14.191  11.521
 5211SOL    HW117472   9.452  14.164  11.602
 5211SOL    HW217473   9.315  14.177  11.538
 5212SOL     OW17474   8.966   8.397   0.241
 5212SOL    HW117475   9.011   8.338   0.181
 5212SOL    HW217476   8.989   8.366   0.329
 5213SOL     OW17477  12.455   5.879   4.009
 5213SOL    HW117478  12.539   5.925   4.008
 5213SOL    HW217479  12.462   5.819   4.084
 5214SOL     OW17480   3.033   8.808   7.753
 5214SOL    HW117481   3.097   8.750   7.793
 5214SOL    HW217482   2.960   8.809   7.816
 5215SOL     OW17483  10.729  14.314   5.518
 5215SOL    HW117484  10.768  14.375   5.456
 5215SOL    HW217485  10.669  14.261   5.466
 5216SOL     OW17486  13.694   8.561   3.188
 5216SOL    HW117487  13.690   8.544   3.094
 5216SOL    HW217488  13.660   8.650   3.197
 5217SOL     OW17489   1.855   9.723  12.585
 5217SOL    HW117490   1.799   9.726  12.507
 5217SOL    HW217491   1.925   9.662  12.561
 5218SOL     OW17492   7.527   0.252   3.039
 5218SOL    HW117493   7.616   0.227   3.062
 5218SOL    HW217494   7.506   0.324   3.099
 5219SOL     OW17495   5.570   6.852   8.238
 5219SOL    HW117496   5.631   6.925   8.225
 5219SOL    HW217497   5.619   6.775   8.209
 5220SOL     OW17498   0.121   2.035   2.201
 5220SOL    HW117499   0.198   2.093   2.204
 5220SOL    HW217500   0.068   2.070   2.129
 5221SOL     OW17501   8.750   6.447   4.652
 5221SOL    HW117502   8.833   6.446   4.603
 5221SOL    HW217503   8.708   6.528   4.625
 5222SOL     OW17504   6.140  13.446   8.520
 5222SOL    HW117505   6.235  13.447   8.505
 5222SOL    HW217506   6.104  13.403   8.443
 5223SOL     OW17507   5.405  11.732   1.279
 5223SOL    HW117508   5.447  11.667   1.336
 5223SOL    HW217509   5.396  11.687   1.195
 5224SOL     OW17510   0.412  10.554   4.191
 5224SOL    HW117511   0.458  10.567   4.108
 5224SOL    HW217512   0.466  10.490   4.239
 5225SOL     OW17513  13.113   6.714  14.282
 5225SOL    HW117514  13.199   6.754  14.299
 5225SOL    HW217515  13.062   6.734  14.360
 5226SOL     OW17516   3.150   9.015   1.443
 5226SOL    HW117517   3.160   8.928   1.481
 5226SOL    HW217518   3.225   9.025   1.384
 5227SOL     OW17519  12.191  14.224  14.437
 5227SOL    HW117520  12.245  14.302  14.425
 5227SOL    HW217521  12.248  14.151  14.412
 5228SOL     OW17522   1.038   8.428   8.143
 5228SOL    HW117523   1.027   8.393   8.055
 5228SOL    HW217524   1.038   8.523   8.131
 5229SOL     OW17525   4.169  12.042  14.184
 5229SOL    HW117526   4.224  12.114  14.156
 5229SOL    HW217527   4.205  12.014  14.268
 5230SOL     OW17528   5.602  10.389   1.206
 5230SOL    HW117529   5.564  10.406   1.120
 5230SOL    HW217530   5.669  10.323   1.191
 5231SOL     OW17531  10.185   8.369   0.198
 5231SOL    HW117532  10.154   8.422   0.272
 5231SOL    HW217533  10.113   8.371   0.135
 5232SOL     OW17534  13.564   9.957  12.433
 5232SOL    HW117535  13.596   9.870  12.410
 5232SOL    HW217536  13.609   9.979  12.514
 5233SOL     OW17537  12.705   8.071  14.305
 5233SOL    HW117538  12.687   8.097  14.395
 5233SOL    HW217539  12.714   8.153  14.257
 5234SOL     OW17540  11.471  11.711   7.196
 5234SOL    HW117541  11.492  11.706   7.289
 5234SOL    HW217542  11.553  11.733   7.154
 5235SOL     OW17543   5.938   9.427  13.400
 5235SOL    HW117544   6.014   9.400  13.451
 5235SOL    HW217545   5.937   9.523  13.407
 5236SOL     OW17546   9.517   8.973   9.669
 5236SOL    HW117547   9.557   8.913   9.607
 5236SOL    HW217548   9.528   9.060   9.630
 5237SOL     OW17549   3.684   7.888   4.737
 5237SOL    HW117550   3.748   7.856   4.801
 5237SOL    HW217551   3.706   7.841   4.657
 5238SOL     OW17552   0.662   6.639   5.386
 5238SOL    HW117553   0.647   6.593   5.303
 5238SOL    HW217554   0.593   6.706   5.389
 5239SOL     OW17555  12.093   8.049   1.428
 5239SOL    HW117556  12.013   8.035   1.376
 5239SOL    HW217557  12.076   8.131   1.474
 5240SOL     OW17558  10.876   7.472   0.839
 5240SOL    HW117559  10.814   7.419   0.890
 5240SOL    HW217560  10.903   7.415   0.767
 5241SOL     OW17561  12.250  13.514  12.877
 5241SOL    HW117562  12.237  13.560  12.795
 5241SOL    HW217563  12.337  13.540  12.906
 5242SOL     OW17564   1.078   7.669  13.708
 5242SOL    HW117565   1.118   7.582  13.714
 5242SOL    HW217566   1.051   7.689  13.798
 5243SOL     OW17567  10.376   1.566   6.377
 5243SOL    HW117568  10.373   1.661   6.377
 5243SOL    HW217569  10.429   1.544   6.300
 5244SOL     OW17570   3.250   6.763   0.475
 5244SOL    HW117571   3.303   6.823   0.423
 5244SOL    HW217572   3.163   6.767   0.435
 5245SOL     OW17573   3.529   0.566   2.191
 5245SOL    HW117574   3.475   0.566   2.270
 5245SOL    HW217575   3.548   0.658   2.176
 5246SOL     OW17576   4.046   7.296   9.952
 5246SOL    HW117577   4.115   7.363   9.950
 5246SOL    HW217578   4.093   7.214   9.936
 5247SOL     OW17579  10.858  14.188   4.010
 5247SOL    HW117580  10.877  14.241   3.933
 5247SOL    HW217581  10.886  14.100   3.986
 5248SOL     OW17582  11.979   7.114   1.075
 5248SOL    HW117583  12.052   7.071   1.120
 5248SOL    HW217584  11.949   7.181   1.137
 5249SOL     OW17585   8.236   7.452  14.598
 5249SOL    HW117586   8.154   7.500  14.588
 5249SOL    HW217587   8.209   7.365  14.629
 5250SOL     OW17588  11.596  10.211   5.233
 5250SOL    HW117589  11.660  10.213   5.305
 5250SOL    HW217590  11.555  10.298   5.237
 5251SOL     OW17591   9.568  12.409   5.718
 5251SOL    HW117592   9.532  12.388   5.631
 5251SOL    HW217593   9.535  12.339   5.775
 5252SOL     OW17594  13.731   4.145  10.720
 5252SOL    HW117595  13.639   4.116  10.717
 5252SOL    HW217596  13.777   4.072  10.762
 5253SOL     OW17597   2.697   2.430  13.239
 5253SOL    HW117598   2.637   2.359  13.218
 5253SOL    HW217599   2.780   2.406  13.197
 5254SOL     OW17600   9.688   8.678   3.212
 5254SOL    HW117601   9.654   8.647   3.296
 5254SOL    HW217602   9.626   8.745   3.184
 5255SOL     OW17603   2.490   9.171  11.965
 5255SOL    HW117604   2.496   9.092  12.018
 5255SOL    HW217605   2.466   9.240  12.027
 5256SOL     OW17606   7.372  13.498   6.712
 5256SOL    HW117607   7.308  13.537   6.651
 5256SOL    HW217608   7.451  13.550   6.700
 5257SOL     OW17609   1.073  10.530   3.143
 5257SOL    HW117610   1.135  10.494   3.079
 5257SOL    HW217611   0.995  10.549   3.092
 5258SOL     OW17612  12.572   4.285  12.945
 5258SOL    HW117613  12.502   4.222  12.929
 5258SOL    HW217614  12.581   4.333  12.863
 5259SOL     OW17615   3.458   7.360  12.700
 5259SOL    HW117616   3.404   7.292  12.659
 5259SOL    HW217617   3.425   7.366  12.789
 5260SOL     OW17618   1.354   0.318   8.902
 5260SOL    HW117619   1.351   0.236   8.852
 5260SOL    HW217620   1.386   0.383   8.840
 5261SOL     OW17621   2.436   7.618   9.530
 5261SOL    HW117622   2.482   7.676   9.591
 5261SOL    HW217623   2.461   7.530   9.557
 5262SOL     OW17624   2.862   9.708   6.067
 5262SOL    HW117625   2.786   9.669   6.022
 5262SOL    HW217626   2.904   9.762   6.001
 5263SOL     OW17627   2.105   0.349   2.669
 5263SOL    HW117628   2.199   0.330   2.664
 5263SOL    HW217629   2.087   0.353   2.763
 5264SOL     OW17630   5.938   9.681   3.140
 5264SOL    HW117631   6.002   9.671   3.210
 5264SOL    HW217632   5.868   9.621   3.162
 5265SOL     OW17633  11.221   1.744   6.007
 5265SOL    HW117634  11.285   1.735   5.937
 5265SOL    HW217635  11.204   1.838   6.012
 5266SOL     OW17636  12.047   3.390   8.033
 5266SOL    HW117637  12.130   3.360   8.069
 5266SOL    HW217638  12.017   3.457   8.093
 5267SOL     OW17639   3.293   3.056   0.819
 5267SOL    HW117640   3.215   3.112   0.813
 5267SOL    HW217641   3.362   3.115   0.848
 5268SOL     OW17642  12.645  13.403  11.200
 5268SOL    HW117643  12.554  13.409  11.171
 5268SOL    HW217644  12.690  13.473  11.152
 5269SOL     OW17645   5.684   7.704   1.674
 5269SOL    HW117646   5.617   7.693   1.607
 5269SOL    HW217647   5.704   7.616   1.704
 5270SOL     OW17648   7.925   7.435   8.381
 5270SOL    HW117649   7.928   7.509   8.320
 5270SOL    HW217650   8.017   7.408   8.391
 5271SOL     OW17651  11.176   0.755   4.247
 5271SOL    HW117652  11.101   0.708   4.209
 5271SOL    HW217653  11.230   0.779   4.172
 5272SOL     OW17654  11.043  12.870  10.141
 5272SOL    HW117655  11.072  12.787  10.103
 5272SOL    HW217656  11.064  12.863  10.234
 5273SOL     OW17657   9.778  14.095   2.872
 5273SOL    HW117658   9.763  14.105   2.778
 5273SOL    HW217659   9.840  14.165   2.894
 5274SOL     OW17660   5.856   8.544  11.874
 5274SOL    HW117661   5.834   8.615  11.814
 5274SOL    HW217662   5.950   8.555  11.890
 5275SOL     OW17663   1.385   1.943   8.957
 5275SOL    HW117664   1.382   2.030   8.997
 5275SOL    HW217665   1.402   1.883   9.029
 5276SOL     OW17666  13.756   1.465  11.532
 5276SOL    HW117667  13.769   1.528  11.602
 5276SOL    HW217668  13.782   1.381  11.571
 5277SOL     OW17669   1.697  12.350   3.230
 5277SOL    HW117670   1.648  12.329   3.310
 5277SOL    HW217671   1.728  12.440   3.245
 5278SOL     OW17672   7.529   4.076   3.001
 5278SOL    HW117673   7.601   4.049   3.059
 5278SOL    HW217674   7.500   3.995   2.959
 5279SOL     OW17675   7.627   0.494   1.095
 5279SOL    HW117676   7.684   0.537   1.031
 5279SOL    HW217677   7.634   0.401   1.075
 5280SOL     OW17678   2.638  11.737  13.097
 5280SOL    HW117679   2.578  11.672  13.133
 5280SOL    HW217680   2.720  11.689  13.085
 5281SOL     OW17681   2.927  10.317   7.562
 5281SOL    HW117682   2.841  10.352   7.586
 5281SOL    HW217683   2.966  10.385   7.507
 5282SOL     OW17684  10.986  11.879  12.270
 5282SOL    HW117685  10.918  11.898  12.205
 5282SOL    HW217686  10.976  11.785  12.287
 5283SOL     OW17687  11.534  13.598  10.572
 5283SOL    HW117688  11.537  13.562  10.660
 5283SOL    HW217689  11.460  13.554  10.530
 5284SOL     OW17690  13.682   4.971  10.505
 5284SOL    HW117691  13.702   5.000  10.593
 5284SOL    HW217692  13.604   5.021  10.480
 5285SOL     OW17693   8.603   3.991   1.987
 5285SOL    HW117694   8.554   4.036   1.918
 5285SOL    HW217695   8.686   3.966   1.945
 5286SOL     OW17696   3.579  12.229   2.834
 5286SOL    HW117697   3.585  12.276   2.751
 5286SOL    HW217698   3.597  12.295   2.901
 5287SOL     OW17699   4.724   8.830   5.142
 5287SOL    HW117700   4.710   8.923   5.124
 5287SOL    HW217701   4.750   8.793   5.058
 5288SOL     OW17702  13.715   7.812   3.532
 5288SOL    HW117703  13.772   7.882   3.500
 5288SOL    HW217704  13.773   7.738   3.546
 5289SOL     OW17705   0.006  12.922   1.007
 5289SOL    HW117706  14.852  13.011   1.005
 5289SOL    HW217707  14.827  12.875   1.067
 5290SOL     OW17708   7.753  13.655  13.645
 5290SOL    HW117709   7.822  13.719  13.626
 5290SOL    HW217710   7.749  13.600  13.567
 5291SOL     OW17711   8.075   4.693   1.647
 5291SOL    HW117712   7.994   4.737   1.621
 5291SOL    HW217713   8.144   4.755   1.627
 5292SOL     OW17714   7.416   6.490  13.432
 5292SOL    HW117715   7.456   6.495  13.346
 5292SOL    HW217716   7.451   6.410  13.471
 5293SOL     OW17717   3.180  10.256   6.494
 5293SOL    HW117718   3.170  10.175   6.544
 5293SOL    HW217719   3.099  10.264   6.444
 5294SOL     OW17720  11.895   3.989  11.884
 5294SOL    HW117721  11.947   4.013  11.961
 5294SOL    HW217722  11.870   4.073  11.844
 5295SOL     OW17723  14.125  10.371   4.290
 5295SOL    HW117724  14.072  10.450   4.299
 5295SOL    HW217725  14.207  10.401   4.249
 5296SOL     OW17726   5.900   0.009  11.530
 5296SOL    HW117727   5.825   0.059  11.561
 5296SOL    HW217728   5.949  14.867  11.609
 5297SOL     OW17729  12.501   0.750   4.628
 5297SOL    HW117730  12.459   0.821   4.581
 5297SOL    HW217731  12.587   0.784   4.652
 5298SOL     OW17732   8.439   0.738   1.951
 5298SOL    HW117733   8.471   0.826   1.969
 5298SOL    HW217734   8.513   0.681   1.974
 5299SOL     OW17735   8.649   6.190   6.784
 5299SOL    HW117736   8.587   6.153   6.721
 5299SOL    HW217737   8.708   6.117   6.805
 5300SOL     OW17738   1.199  10.676  12.338
 5300SOL    HW117739   1.280  10.628  12.319
 5300SOL    HW217740   1.223  10.768  12.328
 5301SOL     OW17741  11.556   7.879   8.009
 5301SOL    HW117742  11.612   7.814   7.967
 5301SOL    HW217743  11.467   7.846   7.995
 5302SOL     OW17744  11.930   1.844   9.838
 5302SOL    HW117745  11.987   1.810   9.907
 5302SOL    HW217746  11.928   1.938   9.853
 5303SOL     OW17747   9.993  14.382   9.989
 5303SOL    HW117748   9.961  14.292   9.985
 5303SOL    HW217749  10.083  14.377   9.957
 5304SOL     OW17750   2.070  13.774   6.912
 5304SOL    HW117751   2.070  13.721   6.832
 5304SOL    HW217752   2.109  13.716   6.978
 5305SOL     OW17753   6.047   5.569   1.841
 5305SOL    HW117754   6.032   5.557   1.747
 5305SOL    HW217755   6.136   5.604   1.846
 5306SOL     OW17756  14.153   4.755   0.735
 5306SOL    HW117757  14.202   4.836   0.749
 5306SOL    HW217758  14.062   4.779   0.754
 5307SOL     OW17759  14.445   9.531  12.729
 5307SOL    HW117760  14.383   9.604  12.720
 5307SOL    HW217761  14.531   9.572  12.719
 5308SOL     OW17762   8.681  13.557   9.341
 5308SOL    HW117763   8.731  13.493   9.290
 5308SOL    HW217764   8.738  13.633   9.345
 5309SOL     OW17765   9.805  14.605   6.227
 5309SOL    HW117766   9.773  14.535   6.170
 5309SOL    HW217767   9.774  14.686   6.186
 5310SOL     OW17768  13.968   9.062   9.220
 5310SOL    HW117769  13.961   9.149   9.260
 5310SOL    HW217770  13.995   9.005   9.292
 5311SOL     OW17771  10.543   8.797  10.398
 5311SOL    HW117772  10.517   8.730  10.462
 5311SOL    HW217773  10.636   8.782  10.385
 5312SOL     OW17774   0.760   1.810  11.904
 5312SOL    HW117775   0.720   1.879  11.851
 5312SOL    HW217776   0.748   1.838  11.994
 5313SOL     OW17777   8.431   4.891   6.473
 5313SOL    HW117778   8.412   4.985   6.467
 5313SOL    HW217779   8.519   4.887   6.509
 5314SOL     OW17780   1.160   5.139   7.477
 5314SOL    HW117781   1.214   5.074   7.433
 5314SOL    HW217782   1.220   5.183   7.538
 5315SOL     OW17783  12.220  12.558   4.319
 5315SOL    HW117784  12.139  12.580   4.366
 5315SOL    HW217785  12.266  12.642   4.312
 5316SOL     OW17786   4.449   0.162   3.121
 5316SOL    HW117787   4.459   0.227   3.050
 5316SOL    HW217788   4.530   0.110   3.116
 5317SOL     OW17789  11.650   6.278   2.060
 5317SOL    HW117790  11.737   6.242   2.079
 5317SOL    HW217791  11.593   6.202   2.056
 5318SOL     OW17792   9.515   4.155  12.664
 5318SOL    HW117793   9.426   4.121  12.653
 5318SOL    HW217794   9.566   4.081  12.696
 5319SOL     OW17795  10.315   3.500  12.978
 5319SOL    HW117796  10.247   3.460  12.923
 5319SOL    HW217797  10.305   3.457  13.063
 5320SOL     OW17798   7.372   0.048  13.491
 5320SOL    HW117799   7.430   0.052  13.568
 5320SOL    HW217800   7.432   0.034  13.418
 5321SOL     OW17801   7.449  13.439   5.417
 5321SOL    HW117802   7.387  13.503   5.381
 5321SOL    HW217803   7.535  13.473   5.394
 5322SOL     OW17804   4.503   4.268  14.810
 5322SOL    HW117805   4.569   4.331  14.840
 5322SOL    HW217806   4.542   4.228  14.732
 5323SOL     OW17807   9.077  10.910   3.914
 5323SOL    HW117808   9.030  10.941   3.991
 5323SOL    HW217809   9.153  10.864   3.949
 5324SOL     OW17810   1.884   2.771   4.716
 5324SOL    HW117811   1.878   2.819   4.634
 5324SOL    HW217812   1.947   2.820   4.769
 5325SOL     OW17813  14.674  12.404  10.904
 5325SOL    HW117814  14.756  12.437  10.869
 5325SOL    HW217815  14.698  12.364  10.988
 5326SOL     OW17816   7.704  12.093   5.661
 5326SOL    HW117817   7.776  12.033   5.680
 5326SOL    HW217818   7.745  12.179   5.658
 5327SOL     OW17819   5.115   4.758   8.886
 5327SOL    HW117820   5.062   4.747   8.807
 5327SOL    HW217821   5.053   4.751   8.958
 5328SOL     OW17822   4.056  14.165  12.131
 5328SOL    HW117823   4.091  14.254  12.127
 5328SOL    HW217824   4.085  14.124  12.049
 5329SOL     OW17825  13.317  13.565   4.803
 5329SOL    HW117826  13.310  13.589   4.711
 5329SOL    HW217827  13.237  13.515   4.820
 5330SOL     OW17828   7.453   7.760  11.064
 5330SOL    HW117829   7.547   7.777  11.065
 5330SOL    HW217830   7.419   7.819  10.997
 5331SOL     OW17831   8.017   6.124   4.112
 5331SOL    HW117832   8.059   6.208   4.130
 5331SOL    HW217833   8.042   6.104   4.022
 5332SOL     OW17834   7.278  12.334   8.851
 5332SOL    HW117835   7.308  12.379   8.771
 5332SOL    HW217836   7.338  12.364   8.919
 5333SOL     OW17837  11.881  10.973   0.458
 5333SOL    HW117838  11.898  10.971   0.364
 5333SOL    HW217839  11.962  10.941   0.498
 5334SOL     OW17840   9.918   6.681   4.953
 5334SOL    HW117841  10.013   6.688   4.950
 5334SOL    HW217842   9.887   6.771   4.964
 5335SOL     OW17843   3.328   0.251   9.439
 5335SOL    HW117844   3.304   0.185   9.374
 5335SOL    HW217845   3.247   0.299   9.455
 5336SOL     OW17846   0.690   0.219   7.181
 5336SOL    HW117847   0.603   0.208   7.220
 5336SOL    HW217848   0.750   0.191   7.250
 5337SOL     OW17849   7.792   7.417  14.219
 5337SOL    HW117850   7.786   7.398  14.312
 5337SOL    HW217851   7.873   7.468  14.209
 5338SOL     OW17852   8.356   3.707  14.018
 5338SOL    HW117853   8.299   3.650  14.069
 5338SOL    HW217854   8.405   3.757  14.083
 5339SOL     OW17855   2.259   2.329   1.657
 5339SOL    HW117856   2.295   2.327   1.569
 5339SOL    HW217857   2.318   2.385   1.707
 5340SOL     OW17858  12.058   7.175   1.792
 5340SOL    HW117859  12.144   7.151   1.826
 5340SOL    HW217860  12.046   7.119   1.715
 5341SOL     OW17861   2.974   0.395   7.101
 5341SOL    HW117862   3.020   0.386   7.017
 5341SOL    HW217863   3.031   0.352   7.165
 5342SOL     OW17864   7.107   8.470   3.676
 5342SOL    HW117865   7.186   8.494   3.628
 5342SOL    HW217866   7.095   8.377   3.659
 5343SOL     OW17867  12.670  11.161   5.380
 5343SOL    HW117868  12.711  11.076   5.396
 5343SOL    HW217869  12.610  11.144   5.307
 5344SOL     OW17870   8.831   8.907   8.558
 5344SOL    HW117871   8.919   8.931   8.529
 5344SOL    HW217872   8.844   8.827   8.610
 5345SOL     OW17873  10.501  11.126   9.029
 5345SOL    HW117874  10.410  11.142   9.006
 5345SOL    HW217875  10.520  11.039   8.993
 5346SOL     OW17876   4.749  12.328   0.246
 5346SOL    HW117877   4.840  12.298   0.251
 5346SOL    HW217878   4.739  12.359   0.156
 5347SOL     OW17879   5.475   7.327  12.611
 5347SOL    HW117880   5.565   7.310  12.638
 5347SOL    HW217881   5.428   7.339  12.694
 5348SOL     OW17882   6.753  13.138   6.281
 5348SOL    HW117883   6.819  13.070   6.271
 5348SOL    HW217884   6.713  13.120   6.367
 5349SOL     OW17885   6.560   0.774   1.555
 5349SOL    HW117886   6.494   0.782   1.623
 5349SOL    HW217887   6.617   0.703   1.584
 5350SOL     OW17888   1.158   5.965   0.406
 5350SOL    HW117889   1.085   5.903   0.408
 5350SOL    HW217890   1.118   6.047   0.377
 5351SOL     OW17891  12.315   0.582   4.475
 5351SOL    HW117892  12.350   0.564   4.388
 5351SOL    HW217893  12.386   0.629   4.520
 5352SOL     OW17894   6.369   1.555   1.671
 5352SOL    HW117895   6.304   1.524   1.609
 5352SOL    HW217896   6.446   1.575   1.618
 5353SOL     OW17897  10.595   6.137  13.502
 5353SOL    HW117898  10.644   6.183  13.570
 5353SOL    HW217899  10.529   6.087  13.550
 5354SOL     OW17900   0.757   7.716  10.138
 5354SOL    HW117901   0.850   7.736  10.148
 5354SOL    HW217902   0.752   7.666  10.056
 5355SOL     OW17903  11.121   9.826   5.416
 5355SOL    HW117904  11.030   9.855   5.425
 5355SOL    HW217905  11.173   9.900   5.449
 5356SOL     OW17906   5.732   6.509  11.403
 5356SOL    HW117907   5.734   6.543  11.314
 5356SOL    HW217908   5.691   6.423  11.395
 5357SOL     OW17909   4.150   7.741  11.409
 5357SOL    HW117910   4.068   7.781  11.380
 5357SOL    HW217911   4.163   7.775  11.498
 5358SOL     OW17912  14.831   6.228   1.435
 5358SOL    HW117913  14.805   6.141   1.464
 5358SOL    HW217914  14.842   6.220   1.340
 5359SOL     OW17915  13.724   7.936   8.755
 5359SOL    HW117916  13.808   7.958   8.716
 5359SOL    HW217917  13.670   7.907   8.682
 5360SOL     OW17918   5.686   4.874   5.191
 5360SOL    HW117919   5.732   4.793   5.170
 5360SOL    HW217920   5.666   4.867   5.285
 5361SOL     OW17921  11.604   1.974  10.781
 5361SOL    HW117922  11.633   1.887  10.752
 5361SOL    HW217923  11.528   1.956  10.837
 5362SOL     OW17924   3.646   9.652   1.279
 5362SOL    HW117925   3.681   9.732   1.240
 5362SOL    HW217926   3.611   9.679   1.363
 5363SOL     OW17927   0.776   3.090   1.310
 5363SOL    HW117928   0.853   3.119   1.359
 5363SOL    HW217929   0.703   3.104   1.370
 5364SOL     OW17930  11.760   8.911  10.239
 5364SOL    HW117931  11.752   9.006  10.241
 5364SOL    HW217932  11.723   8.881  10.322
 5365SOL     OW17933   4.400   2.611   9.214
 5365SOL    HW117934   4.351   2.531   9.193
 5365SOL    HW217935   4.435   2.595   9.302
 5366SOL     OW17936   2.757  13.336   9.154
 5366SOL    HW117937   2.786  13.301   9.238
 5366SOL    HW217938   2.800  13.281   9.089
 5367SOL     OW17939   1.993  13.791  10.140
 5367SOL    HW117940   2.000  13.765  10.232
 5367SOL    HW217941   1.901  13.816  10.129
 5368SOL     OW17942   6.124  11.565   9.670
 5368SOL    HW117943   6.176  11.488   9.650
 5368SOL    HW217944   6.188  11.631   9.697
 5369SOL     OW17945   1.206   5.090  14.144
 5369SOL    HW117946   1.259   5.010  14.141
 5369SOL    HW217947   1.255   5.152  14.090
 5370SOL     OW17948  14.691   0.618   5.648
 5370SOL    HW117949  14.678   0.652   5.559
 5370SOL    HW217950  14.651   0.684   5.705
 5371SOL     OW17951   4.668   6.549   4.192
 5371SOL    HW117952   4.702   6.638   4.187
 5371SOL    HW217953   4.595   6.548   4.129
 5372SOL     OW17954  13.139   2.638   5.275
 5372SOL    HW117955  13.044   2.625   5.272
 5372SOL    HW217956  13.171   2.602   5.192
 5373SOL     OW17957   5.573   9.167   3.525
 5373SOL    HW117958   5.633   9.130   3.590
 5373SOL    HW217959   5.602   9.129   3.442
 5374SOL     OW17960  11.917   2.840  10.711
 5374SOL    HW117961  11.883   2.843  10.621
 5374SOL    HW217962  11.866   2.772  10.754
 5375SOL     OW17963   6.161   2.510  14.260
 5375SOL    HW117964   6.149   2.477  14.171
 5375SOL    HW217965   6.244   2.473  14.289
 5376SOL     OW17966   9.996   8.058   5.702
 5376SOL    HW117967   9.919   8.105   5.732
 5376SOL    HW217968   9.967   7.967   5.695
 5377SOL     OW17969  11.708  12.125   0.979
 5377SOL    HW117970  11.679  12.048   1.029
 5377SOL    HW217971  11.766  12.171   1.039
 5378SOL     OW17972   1.893   5.285  10.382
 5378SOL    HW117973   1.979   5.243  10.384
 5378SOL    HW217974   1.870   5.298  10.474
 5379SOL     OW17975  13.187   5.476   0.370
 5379SOL    HW117976  13.246   5.511   0.304
 5379SOL    HW217977  13.219   5.511   0.453
 5380SOL     OW17978   7.174  12.177  12.806
 5380SOL    HW117979   7.213  12.178  12.718
 5380SOL    HW217980   7.232  12.121  12.857
 5381SOL     OW17981   9.020   7.964  12.326
 5381SOL    HW117982   8.952   7.966  12.394
 5381SOL    HW217983   9.101   7.979  12.374
 5382SOL     OW17984  11.864   4.027   4.136
 5382SOL    HW117985  11.922   4.043   4.210
 5382SOL    HW217986  11.779   4.060   4.166
 5383SOL     OW17987   4.267  12.178   8.867
 5383SOL    HW117988   4.236  12.268   8.853
 5383SOL    HW217989   4.204  12.124   8.819
 5384SOL     OW17990   3.964   3.457   6.113
 5384SOL    HW117991   4.016   3.445   6.034
 5384SOL    HW217992   4.023   3.501   6.174
 5385SOL     OW17993   3.924  14.367  12.856
 5385SOL    HW117994   3.854  14.398  12.799
 5385SOL    HW217995   3.989  14.329  12.796
 5386SOL     OW17996   4.970   8.312   6.415
 5386SOL    HW117997   5.060   8.279   6.408
 5386SOL    HW217998   4.972   8.395   6.368
 5387SOL     OW17999   0.411   3.118   7.848
 5387SOL    HW118000   0.383   3.163   7.768
 5387SOL    HW218001   0.481   3.059   7.819
 5388SOL     OW18002  13.803   4.115  12.790
 5388SOL    HW118003  13.721   4.098  12.743
 5388SOL    HW218004  13.775   4.130  12.881
 5389SOL     OW18005  11.627  13.155  14.468
 5389SOL    HW118006  11.678  13.075  14.455
 5389SOL    HW218007  11.537  13.130  14.444
 5390SOL     OW18008   2.076  14.165   5.862
 5390SOL    HW118009   2.075  14.169   5.767
 5390SOL    HW218010   1.996  14.211   5.889
 5391SOL     OW18011   1.910   4.015   3.633
 5391SOL    HW118012   1.986   4.073   3.641
 5391SOL    HW218013   1.836   4.067   3.663
 5392SOL     OW18014   0.069   7.824   9.347
 5392SOL    HW118015   0.038   7.879   9.419
 5392SOL    HW218016   0.106   7.746   9.390
 5393SOL     OW18017  12.853   1.666   5.055
 5393SOL    HW118018  12.816   1.724   4.989
 5393SOL    HW218019  12.784   1.602   5.072
 5394SOL     OW18020   0.035   8.671   6.644
 5394SOL    HW118021   0.027   8.694   6.551
 5394SOL    HW218022   0.007   8.750   6.690
 5395SOL     OW18023   7.365   2.023   9.612
 5395SOL    HW118024   7.325   2.060   9.534
 5395SOL    HW218025   7.345   2.086   9.682
 5396SOL     OW18026   5.147   3.817   7.392
 5396SOL    HW118027   5.208   3.745   7.376
 5396SOL    HW218028   5.191   3.871   7.458
 5397SOL     OW18029   2.499   2.149   3.102
 5397SOL    HW118030   2.581   2.188   3.132
 5397SOL    HW218031   2.518   2.056   3.092
 5398SOL     OW18032   2.165   1.420  10.195
 5398SOL    HW118033   2.259   1.410  10.180
 5398SOL    HW218034   2.137   1.488  10.133
 5399SOL     OW18035  12.315   1.019   7.188
 5399SOL    HW118036  12.226   1.024   7.224
 5399SOL    HW218037  12.318   0.934   7.144
 5400SOL     OW18038  11.609  13.889  13.641
 5400SOL    HW118039  11.614  13.983  13.624
 5400SOL    HW218040  11.526  13.877  13.688
 5401SOL     OW18041   5.068   6.946  10.149
 5401SOL    HW118042   4.977   6.916  10.158
 5401SOL    HW218043   5.071   6.989  10.064
 5402SOL     OW18044   5.605   8.567  14.413
 5402SOL    HW118045   5.666   8.524  14.472
 5402SOL    HW218046   5.614   8.660  14.433
 5403SOL     OW18047   0.986   6.322  13.257
 5403SOL    HW118048   0.947   6.238  13.283
 5403SOL    HW218049   1.071   6.299  13.219
 5404SOL     OW18050   4.831  12.474   2.044
 5404SOL    HW118051   4.798  12.506   1.960
 5404SOL    HW218052   4.797  12.538   2.108
 5405SOL     OW18053   5.128   7.219   8.722
 5405SOL    HW118054   5.209   7.270   8.714
 5405SOL    HW218055   5.080   7.260   8.793
 5406SOL     OW18056   9.888   4.062   2.208
 5406SOL    HW118057   9.968   4.044   2.258
 5406SOL    HW218058   9.866   4.152   2.233
 5407SOL     OW18059   8.661   3.942   4.019
 5407SOL    HW118060   8.625   3.994   4.091
 5407SOL    HW218061   8.644   3.851   4.043
 5408SOL     OW18062   6.387  11.759  10.511
 5408SOL    HW118063   6.421  11.677  10.476
 5408SOL    HW218064   6.320  11.786  10.448
 5409SOL     OW18065  14.493   2.624   0.370
 5409SOL    HW118066  14.523   2.544   0.327
 5409SOL    HW218067  14.513   2.694   0.308
 5410SOL     OW18068  10.746   5.881   1.133
 5410SOL    HW118069  10.789   5.869   1.218
 5410SOL    HW218070  10.783   5.964   1.100
 5411SOL     OW18071   2.814   0.710  14.221
 5411SOL    HW118072   2.831   0.660  14.141
 5411SOL    HW218073   2.895   0.758  14.238
 5412SOL     OW18074   9.862   6.554   9.007
 5412SOL    HW118075   9.841   6.542   8.914
 5412SOL    HW218076   9.803   6.624   9.036
 5413SOL     OW18077   6.556   9.469   8.468
 5413SOL    HW118078   6.583   9.544   8.416
 5413SOL    HW218079   6.632   9.410   8.467
 5414SOL     OW18080   0.480   6.330   8.274
 5414SOL    HW118081   0.432   6.407   8.304
 5414SOL    HW218082   0.430   6.299   8.199
 5415SOL     OW18083   2.942   7.693   7.267
 5415SOL    HW118084   2.879   7.628   7.235
 5415SOL    HW218085   2.940   7.684   7.362
 5416SOL     OW18086  13.968   6.045   6.020
 5416SOL    HW118087  13.974   6.080   6.109
 5416SOL    HW218088  13.977   6.123   5.964
 5417SOL     OW18089   7.217   7.449  13.261
 5417SOL    HW118090   7.265   7.401  13.328
 5417SOL    HW218091   7.137   7.398  13.247
 5418SOL     OW18092  10.388   7.209  12.682
 5418SOL    HW118093  10.401   7.304  12.681
 5418SOL    HW218094  10.339   7.192  12.602
 5419SOL     OW18095   4.271  11.765  11.456
 5419SOL    HW118096   4.217  11.818  11.514
 5419SOL    HW218097   4.269  11.811  11.372
 5420SOL     OW18098   7.455   9.947   8.348
 5420SOL    HW118099   7.421  10.036   8.356
 5420SOL    HW218100   7.442   9.908   8.435
 5421SOL     OW18101   1.645   1.612   2.072
 5421SOL    HW118102   1.558   1.592   2.107
 5421SOL    HW218103   1.630   1.687   2.013
 5422SOL     OW18104   5.515   4.012   7.542
 5422SOL    HW118105   5.549   4.041   7.627
 5422SOL    HW218106   5.591   4.016   7.483
 5423SOL     OW18107  10.753  13.609  11.799
 5423SOL    HW118108  10.816  13.680  11.811
 5423SOL    HW218109  10.700  13.611  11.879
 5424SOL     OW18110   2.418  14.013  11.545
 5424SOL    HW118111   2.365  13.935  11.534
 5424SOL    HW218112   2.457  14.004  11.632
 5425SOL     OW18113   8.508  11.035  14.140
 5425SOL    HW118114   8.481  11.034  14.048
 5425SOL    HW218115   8.441  10.984  14.185
 5426SOL     OW18116   4.717   4.284   5.296
 5426SOL    HW118117   4.805   4.248   5.293
 5426SOL    HW218118   4.680   4.265   5.209
 5427SOL     OW18119  13.143   5.972  11.729
 5427SOL    HW118120  13.123   6.055  11.685
 5427SOL    HW218121  13.134   5.992  11.823
 5428SOL     OW18122  11.664   4.225   7.586
 5428SOL    HW118123  11.744   4.176   7.602
 5428SOL    HW218124  11.686   4.285   7.515
 5429SOL     OW18125   8.002  13.466  14.133
 5429SOL    HW118126   8.054  13.496  14.208
 5429SOL    HW218127   8.066  13.453  14.063
 5430SOL     OW18128   2.555   2.013  11.793
 5430SOL    HW118129   2.564   2.102  11.759
 5430SOL    HW218130   2.486   1.974  11.739
 5431SOL     OW18131   5.436  12.113   4.118
 5431SOL    HW118132   5.362  12.057   4.096
 5431SOL    HW218133   5.431  12.186   4.056
 5432SOL     OW18134   3.987  10.962  10.508
 5432SOL    HW118135   4.011  11.017  10.582
 5432SOL    HW218136   4.069  10.953  10.458
 5433SOL     OW18137  10.956  14.338   6.998
 5433SOL    HW118138  10.971  14.433   6.998
 5433SOL    HW218139  10.911  14.321   6.915
 5434SOL     OW18140   6.578   3.448   8.303
 5434SOL    HW118141   6.632   3.446   8.224
 5434SOL    HW218142   6.602   3.368   8.350
 5435SOL     OW18143  12.093  13.189   2.027
 5435SOL    HW118144  12.046  13.263   2.065
 5435SOL    HW218145  12.103  13.212   1.934
 5436SOL     OW18146   9.039  14.799  11.207
 5436SOL    HW118147   9.002  14.827  11.124
 5436SOL    HW218148   9.064  14.708  11.193
 5437SOL     OW18149   4.157  14.628  12.770
 5437SOL    HW118150   4.130  14.720  12.767
 5437SOL    HW218151   4.076  14.579  12.763
 5438SOL     OW18152   4.707   2.306   1.207
 5438SOL    HW118153   4.702   2.401   1.205
 5438SOL    HW218154   4.672   2.282   1.292
 5439SOL     OW18155  12.806   8.640   0.494
 5439SOL    HW118156  12.861   8.715   0.471
 5439SOL    HW218157  12.764   8.666   0.576
 5440SOL     OW18158   4.537   6.951  12.707
 5440SOL    HW118159   4.442   6.939  12.706
 5440SOL    HW218160   4.563   6.944  12.616
 5441SOL     OW18161  11.489   4.083   1.534
 5441SOL    HW118162  11.484   4.156   1.596
 5441SOL    HW218163  11.471   4.006   1.588
 5442SOL     OW18164   2.135   7.078  13.683
 5442SOL    HW118165   2.181   7.020  13.743
 5442SOL    HW218166   2.106   7.151  13.737
 5443SOL     OW18167  14.382   1.108  14.138
 5443SOL    HW118168  14.410   1.078  14.224
 5443SOL    HW218169  14.457   1.093  14.081
 5444SOL     OW18170   6.972   3.041   1.327
 5444SOL    HW118171   7.038   3.028   1.259
 5444SOL    HW218172   6.900   3.087   1.283
 5445SOL     OW18173  10.710  13.373   5.651
 5445SOL    HW118174  10.687  13.286   5.619
 5445SOL    HW218175  10.682  13.374   5.742
 5446SOL     OW18176   6.828   3.161   0.968
 5446SOL    HW118177   6.913   3.134   0.931
 5446SOL    HW218178   6.789   3.214   0.899
 5447SOL     OW18179   9.754   7.149   0.675
 5447SOL    HW118180   9.797   7.112   0.752
 5447SOL    HW218181   9.768   7.084   0.606
 5448SOL     OW18182   5.289   8.726  14.351
 5448SOL    HW118183   5.291   8.737  14.256
 5448SOL    HW218184   5.202   8.689  14.368
 5449SOL     OW18185   5.853   9.042   2.605
 5449SOL    HW118186   5.775   9.065   2.554
 5449SOL    HW218187   5.820   8.988   2.677
 5450SOL     OW18188  13.659   6.104   5.975
 5450SOL    HW118189  13.641   6.137   5.887
 5450SOL    HW218190  13.748   6.069   5.970
 5451SOL     OW18191   7.840   4.602   3.335
 5451SOL    HW118192   7.858   4.508   3.328
 5451SOL    HW218193   7.844   4.620   3.429
 5452SOL     OW18194  12.109   5.735   4.574
 5452SOL    HW118195  12.073   5.647   4.585
 5452SOL    HW218196  12.203   5.722   4.570
 5453SOL     OW18197   5.546   1.584   4.129
 5453SOL    HW118198   5.555   1.511   4.191
 5453SOL    HW218199   5.536   1.542   4.044
 5454SOL     OW18200   2.872   4.660   4.487
 5454SOL    HW118201   2.963   4.667   4.517
 5454SOL    HW218202   2.829   4.738   4.523
 5455SOL     OW18203  14.330   3.205  11.970
 5455SOL    HW118204  14.355   3.149  11.897
 5455SOL    HW218205  14.337   3.294  11.935
 5456SOL     OW18206  13.265  14.649  14.592
 5456SOL    HW118207  13.318  14.659  14.512
 5456SOL    HW218208  13.329  14.632  14.661
 5457SOL     OW18209   3.041   3.974  10.147
 5457SOL    HW118210   3.099   4.033  10.099
 5457SOL    HW218211   3.032   4.014  10.233
 5458SOL     OW18212  12.269   4.374   5.684
 5458SOL    HW118213  12.244   4.344   5.772
 5458SOL    HW218214  12.186   4.382   5.637
 5459SOL     OW18215  14.589   0.420   8.727
 5459SOL    HW118216  14.599   0.467   8.645
 5459SOL    HW218217  14.521   0.468   8.774
 5460SOL     OW18218   0.315   7.290   1.855
 5460SOL    HW118219   0.287   7.371   1.812
 5460SOL    HW218220   0.244   7.269   1.916
 5461SOL     OW18221   2.605  10.951   0.134
 5461SOL    HW118222   2.571  10.875   0.180
 5461SOL    HW218223   2.600  11.022   0.197
 5462SOL     OW18224  13.294  14.546  13.442
 5462SOL    HW118225  13.343  14.615  13.486
 5462SOL    HW218226  13.235  14.593  13.382
 5463SOL     OW18227  11.558   1.618  14.664
 5463SOL    HW118228  11.549   1.610  14.569
 5463SOL    HW218229  11.475   1.658  14.692
 5464SOL     OW18230   3.433  11.340   2.857
 5464SOL    HW118231   3.482  11.421   2.866
 5464SOL    HW218232   3.343  11.368   2.842
 5465SOL     OW18233  11.868   3.375  13.003
 5465SOL    HW118234  11.949   3.411  12.969
 5465SOL    HW218235  11.821   3.450  13.039
 5466SOL     OW18236   9.829   2.033   1.354
 5466SOL    HW118237   9.820   2.100   1.287
 5466SOL    HW218238   9.843   2.082   1.435
 5467SOL     OW18239   5.379   1.355  13.264
 5467SOL    HW118240   5.470   1.361  13.294
 5467SOL    HW218241   5.327   1.358  13.345
 5468SOL     OW18242   2.283   6.451  13.693
 5468SOL    HW118243   2.307   6.364  13.662
 5468SOL    HW218244   2.357   6.506  13.670
 5469SOL     OW18245   3.205   4.570   7.230
 5469SOL    HW118246   3.230   4.478   7.231
 5469SOL    HW218247   3.252   4.609   7.303
 5470SOL     OW18248   2.878  11.155  10.457
 5470SOL    HW118249   2.923  11.228  10.415
 5470SOL    HW218250   2.893  11.169  10.551
 5471SOL     OW18251   0.403  14.739   1.545
 5471SOL    HW118252   0.470  14.673   1.529
 5471SOL    HW218253   0.330  14.713   1.489
 5472SOL     OW18254   5.084   6.895   1.471
 5472SOL    HW118255   5.049   6.981   1.447
 5472SOL    HW218256   5.050   6.836   1.403
 5473SOL     OW18257  12.296   2.534   1.409
 5473SOL    HW118258  12.224   2.480   1.442
 5473SOL    HW218259  12.371   2.474   1.405
 5474SOL     OW18260   8.678   2.049   1.673
 5474SOL    HW118261   8.648   2.050   1.764
 5474SOL    HW218262   8.762   2.096   1.675
 5475SOL     OW18263   3.944   2.595   0.697
 5475SOL    HW118264   4.023   2.618   0.648
 5475SOL    HW218265   3.918   2.677   0.739
 5476SOL     OW18266   7.544  10.777   4.322
 5476SOL    HW118267   7.515  10.705   4.378
 5476SOL    HW218268   7.639  10.771   4.323
 5477SOL     OW18269   6.883   9.775   8.164
 5477SOL    HW118270   6.908   9.847   8.221
 5477SOL    HW218271   6.881   9.698   8.221
 5478SOL     OW18272   7.663   7.480   5.717
 5478SOL    HW118273   7.635   7.411   5.776
 5478SOL    HW218274   7.702   7.546   5.774
 5479SOL     OW18275   3.654  10.139   4.214
 5479SOL    HW118276   3.679  10.064   4.159
 5479SOL    HW218277   3.720  10.141   4.283
 5480SOL     OW18278   1.718   2.460   5.922
 5480SOL    HW118279   1.721   2.443   5.827
 5480SOL    HW218280   1.625   2.471   5.941
 5481SOL     OW18281   2.699   0.000   5.986
 5481SOL    HW118282   2.695   0.089   6.021
 5481SOL    HW218283   2.692  14.823   6.063
 5482SOL     OW18284  12.512   6.919  11.846
 5482SOL    HW118285  12.489   6.827  11.840
 5482SOL    HW218286  12.453   6.963  11.784
 5483SOL     OW18287   6.957   9.416   9.621
 5483SOL    HW118288   6.961   9.340   9.680
 5483SOL    HW218289   7.043   9.458   9.630
 5484SOL     OW18290   4.606   8.978  13.260
 5484SOL    HW118291   4.617   8.978  13.355
 5484SOL    HW218292   4.691   8.951  13.226
 5485SOL     OW18293  12.766   5.776   1.262
 5485SOL    HW118294  12.753   5.793   1.169
 5485SOL    HW218295  12.844   5.720   1.265
 5486SOL     OW18296   0.280   5.992   5.455
 5486SOL    HW118297   0.297   6.082   5.426
 5486SOL    HW218298   0.353   5.971   5.513
 5487SOL     OW18299   4.007  12.894   5.818
 5487SOL    HW118300   4.017  12.854   5.905
 5487SOL    HW218301   4.056  12.976   5.824
 5488SOL     OW18302   8.334   3.088   9.785
 5488SOL    HW118303   8.307   3.121   9.699
 5488SOL    HW218304   8.291   3.003   9.792
 5489SOL     OW18305   3.310  12.809  10.528
 5489SOL    HW118306   3.289  12.854  10.610
 5489SOL    HW218307   3.229  12.763  10.505
 5490SOL     OW18308   8.886   5.206   7.003
 5490SOL    HW118309   8.912   5.272   6.938
 5490SOL    HW218310   8.915   5.123   6.965
 5491SOL     OW18311  11.533  10.277   6.069
 5491SOL    HW118312  11.445  10.249   6.044
 5491SOL    HW218313  11.569  10.200   6.114
 5492SOL     OW18314  12.153   8.549   4.558
 5492SOL    HW118315  12.206   8.487   4.509
 5492SOL    HW218316  12.082   8.497   4.595
 5493SOL     OW18317  13.360  12.412   4.860
 5493SOL    HW118318  13.438  12.424   4.806
 5493SOL    HW218319  13.302  12.358   4.808
 5494SOL     OW18320   9.596  13.175   2.684
 5494SOL    HW118321   9.513  13.202   2.723
 5494SOL    HW218322   9.603  13.082   2.703
 5495SOL     OW18323   5.455   5.918   7.232
 5495SOL    HW118324   5.508   5.934   7.311
 5495SOL    HW218325   5.490   5.836   7.197
 5496SOL     OW18326   1.255   8.604   0.885
 5496SOL    HW118327   1.178   8.566   0.845
 5496SOL    HW218328   1.280   8.676   0.827
 5497SOL     OW18329  13.170  10.200   0.803
 5497SOL    HW118330  13.093  10.150   0.774
 5497SOL    HW218331  13.235  10.133   0.823
 5498SOL     OW18332   4.082   7.309  12.756
 5498SOL    HW118333   4.022   7.370  12.714
 5498SOL    HW218334   4.141   7.364  12.808
 5499SOL     OW18335   0.360   7.332  14.046
 5499SOL    HW118336   0.337   7.423  14.067
 5499SOL    HW218337   0.345   7.325  13.952
 5500SOL     OW18338   0.639   8.610   8.240
 5500SOL    HW118339   0.586   8.556   8.299
 5500SOL    HW218340   0.670   8.550   8.173
 5501SOL     OW18341   9.659   3.520   8.854
 5501SOL    HW118342   9.706   3.456   8.800
 5501SOL    HW218343   9.727   3.566   8.902
 5502SOL     OW18344   9.797   0.065  14.750
 5502SOL    HW118345   9.744   0.129  14.798
 5502SOL    HW218346   9.825   0.111  14.671
 5503SOL     OW18347  13.291  13.856   0.230
 5503SOL    HW118348  13.199  13.874   0.211
 5503SOL    HW218349  13.340  13.903   0.162
 5504SOL     OW18350   3.163   0.553   2.541
 5504SOL    HW118351   3.179   0.523   2.631
 5504SOL    HW218352   3.127   0.642   2.552
 5505SOL     OW18353   5.380   2.405   9.314
 5505SOL    HW118354   5.469   2.437   9.327
 5505SOL    HW218355   5.388   2.335   9.249
 5506SOL     OW18356   6.195   0.854   5.012
 5506SOL    HW118357   6.190   0.928   4.951
 5506SOL    HW218358   6.269   0.875   5.069
 5507SOL     OW18359   1.305   5.662   3.100
 5507SOL    HW118360   1.282   5.648   3.008
 5507SOL    HW218361   1.324   5.756   3.106
 5508SOL     OW18362  14.086   8.919   3.409
 5508SOL    HW118363  14.089   8.986   3.478
 5508SOL    HW218364  14.122   8.963   3.332
 5509SOL     OW18365   8.255   7.166   9.709
 5509SOL    HW118366   8.230   7.074   9.709
 5509SOL    HW218367   8.173   7.214   9.717
 5510SOL     OW18368   4.202   6.690   3.336
 5510SOL    HW118369   4.131   6.701   3.399
 5510SOL    HW218370   4.256   6.620   3.373
 5511SOL     OW18371   6.057   5.411   9.674
 5511SOL    HW118372   6.128   5.474   9.686
 5511SOL    HW218373   5.983   5.449   9.722
 5512SOL     OW18374  12.780  13.690  12.833
 5512SOL    HW118375  12.785  13.785  12.821
 5512SOL    HW218376  12.764  13.655  12.746
 5513SOL     OW18377  12.516   4.804  13.013
 5513SOL    HW118378  12.609   4.792  13.030
 5513SOL    HW218379  12.512   4.881  12.957
 5514SOL     OW18380  10.456   9.331   5.000
 5514SOL    HW118381  10.450   9.300   5.091
 5514SOL    HW218382  10.486   9.421   5.008
 5515SOL     OW18383   0.100  12.316   4.899
 5515SOL    HW118384   0.190  12.336   4.924
 5515SOL    HW218385   0.107  12.237   4.844
 5516SOL     OW18386  12.468   8.027   2.226
 5516SOL    HW118387  12.467   8.000   2.318
 5516SOL    HW218388  12.410   7.964   2.183
 5517SOL     OW18389  11.636  11.991   2.675
 5517SOL    HW118390  11.678  12.073   2.651
 5517SOL    HW218391  11.559  11.986   2.619
 5518SOL     OW18392  11.423  12.799   6.682
 5518SOL    HW118393  11.335  12.808   6.716
 5518SOL    HW218394  11.476  12.857   6.736
 5519SOL     OW18395  11.783   9.397  11.078
 5519SOL    HW118396  11.771   9.480  11.032
 5519SOL    HW218397  11.792   9.422  11.170
 5520SOL     OW18398  13.754  12.628   3.309
 5520SOL    HW118399  13.765  12.647   3.402
 5520SOL    HW218400  13.807  12.693   3.264
 5521SOL     OW18401   5.023   4.788   3.828
 5521SOL    HW118402   5.094   4.759   3.771
 5521SOL    HW218403   4.945   4.781   3.773
 5522SOL     OW18404  11.285   7.240   3.404
 5522SOL    HW118405  11.336   7.198   3.335
 5522SOL    HW218406  11.198   7.203   3.395
 5523SOL     OW18407   9.080   3.093   7.170
 5523SOL    HW118408   9.117   3.181   7.158
 5523SOL    HW218409   9.102   3.046   7.090
 5524SOL     OW18410   6.867  14.194   4.903
 5524SOL    HW118411   6.798  14.138   4.870
 5524SOL    HW218412   6.900  14.240   4.826
 5525SOL     OW18413  14.668   7.003  12.049
 5525SOL    HW118414  14.603   6.941  12.083
 5525SOL    HW218415  14.662   7.079  12.107
 5526SOL     OW18416   7.888   1.764   6.452
 5526SOL    HW118417   7.917   1.686   6.405
 5526SOL    HW218418   7.951   1.774   6.523
 5527SOL     OW18419   0.031   7.947  13.161
 5527SOL    HW118420   0.085   7.882  13.116
 5527SOL    HW218421   0.050   8.029  13.116
 5528SOL     OW18422   6.121   9.374  13.837
 5528SOL    HW118423   6.083   9.453  13.875
 5528SOL    HW218424   6.134   9.315  13.912
 5529SOL     OW18425   5.174   6.835   0.219
 5529SOL    HW118426   5.232   6.759   0.222
 5529SOL    HW218427   5.087   6.797   0.201
 5530SOL     OW18428   3.284   5.668  10.899
 5530SOL    HW118429   3.260   5.648  10.809
 5530SOL    HW218430   3.362   5.723  10.891
 5531SOL     OW18431   6.121   6.753   2.325
 5531SOL    HW118432   6.105   6.847   2.332
 5531SOL    HW218433   6.065   6.714   2.392
 5532SOL     OW18434   7.127  12.076   2.458
 5532SOL    HW118435   7.039  12.077   2.494
 5532SOL    HW218436   7.137  11.988   2.421
 5533SOL     OW18437   3.776   8.219   1.318
 5533SOL    HW118438   3.770   8.180   1.230
 5533SOL    HW218439   3.726   8.160   1.374
 5534SOL     OW18440   4.649   9.364   9.580
 5534SOL    HW118441   4.720   9.308   9.612
 5534SOL    HW218442   4.646   9.436   9.644
 5535SOL     OW18443  10.542   4.537   6.982
 5535SOL    HW118444  10.627   4.573   6.961
 5535SOL    HW218445  10.481   4.610   6.973
 5536SOL     OW18446  14.715   8.099  11.768
 5536SOL    HW118447  14.704   8.103  11.673
 5536SOL    HW218448  14.800   8.139  11.784
 5537SOL     OW18449   8.382   0.884  13.202
 5537SOL    HW118450   8.386   0.788  13.209
 5537SOL    HW218451   8.406   0.915  13.289
 5538SOL     OW18452   5.149   3.459   3.505
 5538SOL    HW118453   5.127   3.480   3.596
 5538SOL    HW218454   5.147   3.364   3.501
 5539SOL     OW18455  11.076   2.952   9.657
 5539SOL    HW118456  11.053   2.860   9.670
 5539SOL    HW218457  10.997   2.991   9.618
 5540SOL     OW18458   3.852   7.364   3.696
 5540SOL    HW118459   3.882   7.297   3.634
 5540SOL    HW218460   3.837   7.316   3.778
 5541SOL     OW18461  14.749   2.197  10.804
 5541SOL    HW118462  14.804   2.124  10.778
 5541SOL    HW218463  14.663   2.176  10.766
 5542SOL     OW18464   6.526   9.363  10.199
 5542SOL    HW118465   6.621   9.366  10.202
 5542SOL    HW218466   6.498   9.391  10.286
 5543SOL     OW18467   3.557  13.915   0.296
 5543SOL    HW118468   3.626  13.980   0.278
 5543SOL    HW218469   3.486  13.940   0.237
 5544SOL     OW18470   2.107  11.087   1.467
 5544SOL    HW118471   2.169  11.159   1.450
 5544SOL    HW218472   2.021  11.125   1.453
 5545SOL     OW18473   4.003   1.845  10.183
 5545SOL    HW118474   3.941   1.804  10.243
 5545SOL    HW218475   3.955   1.921  10.148
 5546SOL     OW18476   2.923   6.740   9.534
 5546SOL    HW118477   3.012   6.729   9.500
 5546SOL    HW218478   2.935   6.772   9.623
 5547SOL     OW18479   2.806  12.345   1.446
 5547SOL    HW118480   2.812  12.296   1.528
 5547SOL    HW218481   2.860  12.296   1.385
 5548SOL     OW18482   8.638  14.825   0.784
 5548SOL    HW118483   8.711  14.775   0.748
 5548SOL    HW218484   8.679   0.026   0.816
 5549SOL     OW18485  13.406  13.861   2.415
 5549SOL    HW118486  13.459  13.790   2.380
 5549SOL    HW218487  13.469  13.932   2.430
 5550SOL     OW18488   6.916   7.388  13.433
 5550SOL    HW118489   6.900   7.293  13.432
 5550SOL    HW218490   6.830   7.427  13.437
 5551SOL     OW18491   1.422   0.234   2.952
 5551SOL    HW118492   1.424   0.321   2.992
 5551SOL    HW218493   1.376   0.247   2.869
 5552SOL     OW18494   1.935   1.662   6.556
 5552SOL    HW118495   2.009   1.689   6.610
 5552SOL    HW218496   1.867   1.637   6.619
 5553SOL     OW18497   1.279   7.400   4.357
 5553SOL    HW118498   1.227   7.340   4.304
 5553SOL    HW218499   1.366   7.399   4.316
 5554SOL     OW18500   2.761  10.615  13.286
 5554SOL    HW118501   2.709  10.628  13.207
 5554SOL    HW218502   2.697  10.614  13.357
 5555SOL     OW18503   7.053  14.516  13.958
 5555SOL    HW118504   7.069  14.462  14.036
 5555SOL    HW218505   7.071  14.458  13.884
 5556SOL     OW18506  11.173   0.721   0.263
 5556SOL    HW118507  11.189   0.813   0.246
 5556SOL    HW218508  11.229   0.699   0.337
 5557SOL     OW18509   4.602   9.451  10.617
 5557SOL    HW118510   4.650   9.369  10.628
 5557SOL    HW218511   4.572   9.473  10.705
 5558SOL     OW18512   1.887   3.216   3.092
 5558SOL    HW118513   1.792   3.231   3.099
 5558SOL    HW218514   1.899   3.179   3.005
 5559SOL     OW18515   0.721   3.875   4.650
 5559SOL    HW118516   0.696   3.856   4.741
 5559SOL    HW218517   0.684   3.962   4.633
 5560SOL     OW18518   4.365   2.866  14.096
 5560SOL    HW118519   4.398   2.800  14.157
 5560SOL    HW218520   4.314   2.926  14.150
 5561SOL     OW18521  10.636   6.074   5.481
 5561SOL    HW118522  10.564   6.013   5.469
 5561SOL    HW218523  10.711   6.031   5.439
 5562SOL     OW18524   2.895   6.675   3.325
 5562SOL    HW118525   2.934   6.709   3.406
 5562SOL    HW218526   2.969   6.668   3.265
 5563SOL     OW18527  11.892   5.851   6.039
 5563SOL    HW118528  11.885   5.940   6.073
 5563SOL    HW218529  11.832   5.849   5.964
 5564SOL     OW18530  11.135   9.922   9.853
 5564SOL    HW118531  11.193   9.990   9.818
 5564SOL    HW218532  11.177   9.840   9.828
 5565SOL     OW18533   6.221   8.881   0.311
 5565SOL    HW118534   6.167   8.802   0.303
 5565SOL    HW218535   6.165   8.945   0.355
 5566SOL     OW18536   3.705   8.620   3.779
 5566SOL    HW118537   3.735   8.544   3.730
 5566SOL    HW218538   3.711   8.693   3.717
 5567SOL     OW18539   8.000   3.701   4.300
 5567SOL    HW118540   7.927   3.659   4.255
 5567SOL    HW218541   8.031   3.635   4.362
 5568SOL     OW18542   7.174   0.569   6.907
 5568SOL    HW118543   7.190   0.492   6.852
 5568SOL    HW218544   7.080   0.583   6.902
 5569SOL     OW18545  13.109   3.664   9.351
 5569SOL    HW118546  13.181   3.625   9.401
 5569SOL    HW218547  13.043   3.595   9.347
 5570SOL     OW18548  12.673   7.235   8.279
 5570SOL    HW118549  12.753   7.255   8.328
 5570SOL    HW218550  12.615   7.193   8.343
 5571SOL     OW18551   6.720  12.747   3.626
 5571SOL    HW118552   6.738  12.707   3.711
 5571SOL    HW218553   6.631  12.782   3.634
 5572SOL     OW18554  10.550  14.219   1.735
 5572SOL    HW118555  10.510  14.160   1.671
 5572SOL    HW218556  10.553  14.167   1.816
 5573SOL     OW18557   6.210   3.334   5.067
 5573SOL    HW118558   6.248   3.293   5.145
 5573SOL    HW218559   6.254   3.419   5.060
 5574SOL     OW18560   3.233   2.006   4.802
 5574SOL    HW118561   3.281   2.076   4.758
 5574SOL    HW218562   3.282   1.927   4.783
 5575SOL     OW18563   4.054   4.785   3.691
 5575SOL    HW118564   4.033   4.873   3.661
 5575SOL    HW218565   4.058   4.733   3.611
 5576SOL     OW18566  12.052   3.853   1.953
 5576SOL    HW118567  11.966   3.886   1.976
 5576SOL    HW218568  12.038   3.802   1.873
 5577SOL     OW18569   0.792   1.868  13.898
 5577SOL    HW118570   0.863   1.818  13.857
 5577SOL    HW218571   0.754   1.808  13.961
 5578SOL     OW18572  13.850  10.567  13.305
 5578SOL    HW118573  13.807  10.652  13.311
 5578SOL    HW218574  13.944  10.587  13.306
 5579SOL     OW18575   8.702   1.076   2.366
 5579SOL    HW118576   8.640   1.100   2.435
 5579SOL    HW218577   8.753   1.004   2.404
 5580SOL     OW18578   4.654   9.921   2.633
 5580SOL    HW118579   4.565   9.904   2.666
 5580SOL    HW218580   4.682  10.000   2.679
 5581SOL     OW18581   7.993  13.795  13.570
 5581SOL    HW118582   8.001  13.815  13.477
 5581SOL    HW218583   8.055  13.854  13.613
 5582SOL     OW18584   2.676   0.069   0.625
 5582SOL    HW118585   2.646   0.004   0.562
 5582SOL    HW218586   2.693   0.147   0.572
 5583SOL     OW18587   3.870  12.070  14.163
 5583SOL    HW118588   3.962  12.056  14.186
 5583SOL    HW218589   3.873  12.135  14.093
 5584SOL     OW18590   1.434   2.211   1.159
 5584SOL    HW118591   1.368   2.182   1.097
 5584SOL    HW218592   1.464   2.296   1.126
 5585SOL     OW18593   9.416   3.151   6.156
 5585SOL    HW118594   9.507   3.137   6.184
 5585SOL    HW218595   9.365   3.089   6.209
 5586SOL     OW18596   3.320   2.169   3.346
 5586SOL    HW118597   3.359   2.088   3.311
 5586SOL    HW218598   3.261   2.139   3.414
 5587SOL     OW18599  14.430   9.435  14.548
 5587SOL    HW118600  14.442   9.448  14.642
 5587SOL    HW218601  14.505   9.382  14.521
 5588SOL     OW18602   8.842   1.769   0.705
 5588SOL    HW118603   8.930   1.733   0.692
 5588SOL    HW218604   8.800   1.759   0.619
 5589SOL     OW18605   3.449  10.475   2.186
 5589SOL    HW118606   3.426  10.427   2.107
 5589SOL    HW218607   3.415  10.564   2.172
 5590SOL     OW18608   3.336  12.464   7.616
 5590SOL    HW118609   3.283  12.400   7.663
 5590SOL    HW218610   3.349  12.535   7.680
 5591SOL     OW18611  11.721   9.992  13.809
 5591SOL    HW118612  11.722   9.971  13.715
 5591SOL    HW218613  11.682   9.915  13.850
 5592SOL     OW18614   2.385   5.458   6.016
 5592SOL    HW118615   2.387   5.369   5.980
 5592SOL    HW218616   2.405   5.447   6.109
 5593SOL     OW18617   2.243   2.602   7.141
 5593SOL    HW118618   2.293   2.683   7.134
 5593SOL    HW218619   2.157   2.624   7.104
 5594SOL     OW18620   0.236   4.622   4.482
 5594SOL    HW118621   0.274   4.611   4.394
 5594SOL    HW218622   0.306   4.595   4.541
 5595SOL     OW18623   7.014   1.972  12.956
 5595SOL    HW118624   7.049   1.887  12.932
 5595SOL    HW218625   7.054   2.033  12.893
 5596SOL     OW18626  13.394  10.025  14.209
 5596SOL    HW118627  13.327   9.994  14.149
 5596SOL    HW218628  13.415   9.949  14.263
 5597SOL     OW18629   4.914  13.952   4.331
 5597SOL    HW118630   4.944  14.021   4.391
 5597SOL    HW218631   4.962  13.968   4.250
 5598SOL     OW18632  13.536   8.086   0.262
 5598SOL    HW118633  13.593   8.108   0.336
 5598SOL    HW218634  13.533   8.166   0.210
 5599SOL     OW18635  13.986   8.870   1.400
 5599SOL    HW118636  13.983   8.962   1.427
 5599SOL    HW218637  13.961   8.821   1.478
 5600SOL     OW18638   0.028  10.200  11.451
 5600SOL    HW118639  14.821  10.168  11.428
 5600SOL    HW218640   0.086  10.163  11.384
 5601SOL     OW18641   1.800   5.254   8.058
 5601SOL    HW118642   1.744   5.268   8.134
 5601SOL    HW218643   1.812   5.159   8.054
 5602SOL     OW18644  12.320  14.525   3.659
 5602SOL    HW118645  12.333  14.439   3.618
 5602SOL    HW218646  12.317  14.507   3.753
 5603SOL     OW18647  12.969   6.357  10.722
 5603SOL    HW118648  12.934   6.345  10.634
 5603SOL    HW218649  12.947   6.447  10.744
 5604SOL     OW18650   1.411   6.288   5.193
 5604SOL    HW118651   1.416   6.202   5.235
 5604SOL    HW218652   1.332   6.327   5.230
 5605SOL     OW18653   1.143   8.247  11.237
 5605SOL    HW118654   1.083   8.232  11.164
 5605SOL    HW218655   1.086   8.264  11.312
 5606SOL     OW18656  11.700  10.488   4.529
 5606SOL    HW118657  11.663  10.427   4.593
 5606SOL    HW218658  11.775  10.527   4.573
 5607SOL     OW18659   9.897   2.155  11.951
 5607SOL    HW118660   9.974   2.148  12.008
 5607SOL    HW218661   9.834   2.206  12.002
 5608SOL     OW18662  13.974   1.960   9.097
 5608SOL    HW118663  13.955   1.931   9.186
 5608SOL    HW218664  13.992   1.879   9.049
 5609SOL     OW18665  10.476  11.648   8.256
 5609SOL    HW118666  10.549  11.710   8.258
 5609SOL    HW218667  10.429  11.669   8.175
 5610SOL     OW18668   5.001   4.023  12.919
 5610SOL    HW118669   4.937   3.952  12.917
 5610SOL    HW218670   5.017   4.039  13.012
 5611SOL     OW18671  10.114  11.470   7.889
 5611SOL    HW118672  10.202  11.481   7.855
 5611SOL    HW218673  10.091  11.379   7.867
 5612SOL     OW18674  12.303   3.239   9.401
 5612SOL    HW118675  12.357   3.197   9.468
 5612SOL    HW218676  12.296   3.174   9.331
 5613SOL     OW18677   9.394  14.786  11.812
 5613SOL    HW118678   9.441  14.742  11.741
 5613SOL    HW218679   9.409  14.879  11.797
 5614SOL     OW18680  10.822   0.900   4.504
 5614SOL    HW118681  10.881   0.974   4.521
 5614SOL    HW218682  10.805   0.904   4.410
 5615SOL     OW18683   1.382  14.361   3.755
 5615SOL    HW118684   1.475  14.341   3.766
 5615SOL    HW218685   1.337  14.281   3.782
 5616SOL     OW18686   7.358   0.081  14.616
 5616SOL    HW118687   7.379   0.028  14.539
 5616SOL    HW218688   7.441   0.121  14.641
 5617SOL     OW18689   4.752   1.192   6.630
 5617SOL    HW118690   4.768   1.105   6.594
 5617SOL    HW218691   4.706   1.239   6.560
 5618SOL     OW18692   6.569   7.619   3.465
 5618SOL    HW118693   6.604   7.702   3.499
 5618SOL    HW218694   6.643   7.579   3.419
 5619SOL     OW18695   5.289  13.839   9.068
 5619SOL    HW118696   5.254  13.922   9.035
 5619SOL    HW218697   5.315  13.791   8.989
 5620SOL     OW18698   0.028  11.193  11.598
 5620SOL    HW118699   0.101  11.133  11.615
 5620SOL    HW218700  14.864  11.201  11.683
 5621SOL     OW18701  13.128   4.881   0.359
 5621SOL    HW118702  13.156   4.973   0.358
 5621SOL    HW218703  13.044   4.882   0.312
 5622SOL     OW18704   4.904   7.668  12.249
 5622SOL    HW118705   4.871   7.756  12.271
 5622SOL    HW218706   4.844   7.609  12.295
 5623SOL     OW18707  11.770   6.789   4.907
 5623SOL    HW118708  11.752   6.872   4.865
 5623SOL    HW218709  11.822   6.740   4.843
 5624SOL     OW18710  11.487   2.390   5.909
 5624SOL    HW118711  11.431   2.441   5.851
 5624SOL    HW218712  11.561   2.448   5.928
 5625SOL     OW18713   3.786  14.271  12.603
 5625SOL    HW118714   3.867  14.295  12.558
 5625SOL    HW218715   3.725  14.250  12.533
 5626SOL     OW18716  11.614   6.562   3.957
 5626SOL    HW118717  11.561   6.641   3.947
 5626SOL    HW218718  11.699   6.593   3.989
 5627SOL     OW18719  12.381   3.767  11.896
 5627SOL    HW118720  12.361   3.684  11.853
 5627SOL    HW218721  12.475   3.764  11.912
 5628SOL     OW18722   5.650   1.856  10.308
 5628SOL    HW118723   5.708   1.905  10.250
 5628SOL    HW218724   5.707   1.821  10.376
 5629SOL     OW18725   5.924   1.466   2.265
 5629SOL    HW118726   6.009   1.443   2.229
 5629SOL    HW218727   5.943   1.532   2.332
 5630SOL     OW18728  14.488   3.702   6.479
 5630SOL    HW118729  14.568   3.726   6.431
 5630SOL    HW218730  14.439   3.646   6.418
 5631SOL     OW18731   6.626   5.109  14.349
 5631SOL    HW118732   6.565   5.178  14.325
 5631SOL    HW218733   6.712   5.145  14.331
 5632SOL     OW18734  10.276   5.036  12.695
 5632SOL    HW118735  10.233   5.121  12.702
 5632SOL    HW218736  10.331   5.030  12.774
 5633SOL     OW18737   7.538  14.575   8.876
 5633SOL    HW118738   7.466  14.514   8.888
 5633SOL    HW218739   7.615  14.529   8.911
 5634SOL     OW18740  10.961  13.003   4.949
 5634SOL    HW118741  10.921  12.952   5.019
 5634SOL    HW218742  11.042  12.956   4.928
 5635SOL     OW18743  10.339   1.857   1.570
 5635SOL    HW118744  10.314   1.904   1.650
 5635SOL    HW218745  10.284   1.894   1.502
 5636SOL     OW18746   8.256   3.454   2.013
 5636SOL    HW118747   8.162   3.445   2.027
 5636SOL    HW218748   8.264   3.467   1.918
 5637SOL     OW18749  10.715   0.443  11.947
 5637SOL    HW118750  10.776   0.464  12.018
 5637SOL    HW218751  10.633   0.420  11.992
 5638SOL     OW18752   1.430   0.587   3.938
 5638SOL    HW118753   1.383   0.651   3.885
 5638SOL    HW218754   1.469   0.527   3.874
 5639SOL     OW18755   7.052   5.917   4.644
 5639SOL    HW118756   6.974   5.929   4.590
 5639SOL    HW218757   7.019   5.883   4.727
 5640SOL     OW18758   5.974   0.553  14.598
 5640SOL    HW118759   5.997   0.622  14.536
 5640SOL    HW218760   6.011   0.474  14.559
 5641SOL     OW18761   0.144   4.190   0.339
 5641SOL    HW118762   0.132   4.095   0.340
 5641SOL    HW218763   0.205   4.207   0.411
 5642SOL     OW18764   1.485   0.078  10.946
 5642SOL    HW118765   1.447   0.067  10.859
 5642SOL    HW218766   1.571   0.118  10.929
 5643SOL     OW18767   4.364  11.980   7.433
 5643SOL    HW118768   4.368  11.941   7.520
 5643SOL    HW218769   4.271  11.995   7.418
 5644SOL     OW18770   0.028  13.175   3.814
 5644SOL    HW118771  14.843  13.136   3.755
 5644SOL    HW218772   0.113  13.148   3.777
 5645SOL     OW18773   7.872   0.641  14.734
 5645SOL    HW118774   7.867   0.734  14.754
 5645SOL    HW218775   7.846   0.634  14.642
 5646SOL     OW18776   5.720   5.041  11.880
 5646SOL    HW118777   5.765   5.126  11.879
 5646SOL    HW218778   5.651   5.051  11.945
 5647SOL     OW18779  14.433  11.966   6.113
 5647SOL    HW118780  14.384  12.011   6.044
 5647SOL    HW218781  14.389  11.881   6.122
 5648SOL     OW18782   8.310   7.125   6.994
 5648SOL    HW118783   8.271   7.211   7.010
 5648SOL    HW218784   8.349   7.101   7.079
 5649SOL     OW18785   2.144   1.674   7.190
 5649SOL    HW118786   2.205   1.748   7.196
 5649SOL    HW218787   2.063   1.713   7.159
 5650SOL     OW18788  10.250   3.000   4.990
 5650SOL    HW118789  10.191   2.966   4.924
 5650SOL    HW218790  10.214   3.086   5.013
 5651SOL     OW18791   7.106  13.701   7.399
 5651SOL    HW118792   7.020  13.661   7.408
 5651SOL    HW218793   7.166  13.639   7.440
 5652SOL     OW18794   9.795   1.350   3.382
 5652SOL    HW118795   9.756   1.431   3.413
 5652SOL    HW218796   9.789   1.354   3.287
 5653SOL     OW18797  12.371  14.190  10.868
 5653SOL    HW118798  12.437  14.260  10.876
 5653SOL    HW218799  12.319  14.215  10.792
 5654SOL     OW18800  12.506   5.820   0.325
 5654SOL    HW118801  12.422   5.814   0.279
 5654SOL    HW218802  12.565   5.857   0.260
 5655SOL     OW18803   5.476   5.917   1.399
 5655SOL    HW118804   5.396   5.918   1.452
 5655SOL    HW218805   5.528   5.990   1.433
 5656SOL     OW18806  12.816  11.974   2.028
 5656SOL    HW118807  12.778  12.019   2.103
 5656SOL    HW218808  12.743  11.927   1.988
 5657SOL     OW18809  13.478  13.107   8.886
 5657SOL    HW118810  13.500  13.199   8.871
 5657SOL    HW218811  13.541  13.078   8.951
 5658SOL     OW18812   4.044   5.922   8.655
 5658SOL    HW118813   4.115   5.964   8.704
 5658SOL    HW218814   3.964   5.954   8.697
 5659SOL     OW18815  10.425   3.438   8.730
 5659SOL    HW118816  10.433   3.343   8.718
 5659SOL    HW218817  10.515   3.470   8.735
 5660SOL     OW18818   0.830   0.596   9.290
 5660SOL    HW118819   0.879   0.576   9.371
 5660SOL    HW218820   0.877   0.670   9.252
 5661SOL     OW18821  10.183   9.510   1.995
 5661SOL    HW118822  10.214   9.427   2.030
 5661SOL    HW218823  10.116   9.484   1.931
 5662SOL     OW18824   1.373   6.239   0.220
 5662SOL    HW118825   1.399   6.307   0.157
 5662SOL    HW218826   1.418   6.262   0.301
 5663SOL     OW18827  12.528   9.474  12.485
 5663SOL    HW118828  12.578   9.394  12.468
 5663SOL    HW218829  12.509   9.471  12.578
 5664SOL     OW18830  13.095   9.100   7.673
 5664SOL    HW118831  13.121   9.148   7.752
 5664SOL    HW218832  13.004   9.127   7.659
 5665SOL     OW18833   7.596   1.744   8.460
 5665SOL    HW118834   7.678   1.695   8.449
 5665SOL    HW218835   7.529   1.676   8.473
 5666SOL     OW18836   8.806  10.874   5.898
 5666SOL    HW118837   8.886  10.865   5.950
 5666SOL    HW218838   8.819  10.814   5.824
 5667SOL     OW18839   1.971   8.899   3.585
 5667SOL    HW118840   1.974   8.880   3.679
 5667SOL    HW218841   1.978   8.994   3.580
 5668SOL     OW18842   5.968   4.185  10.849
 5668SOL    HW118843   6.038   4.121  10.860
 5668SOL    HW218844   5.992   4.233  10.770
 5669SOL     OW18845   6.697  13.293  12.615
 5669SOL    HW118846   6.725  13.249  12.535
 5669SOL    HW218847   6.722  13.385  12.601
 5670SOL     OW18848  10.096   3.242   8.803
 5670SOL    HW118849  10.077   3.335   8.787
 5670SOL    HW218850  10.112   3.205   8.716
 5671SOL     OW18851  11.651   4.345   6.270
 5671SOL    HW118852  11.564   4.359   6.307
 5671SOL    HW218853  11.671   4.425   6.222
 5672SOL     OW18854  11.711  14.841   3.699
 5672SOL    HW118855  11.622  14.841   3.734
 5672SOL    HW218856  11.732  14.748   3.688
 5673SOL     OW18857  13.939   4.701   0.110
 5673SOL    HW118858  13.857   4.749   0.100
 5673SOL    HW218859  13.934   4.631   0.045
 5674SOL     OW18860  14.851   1.396  14.383
 5674SOL    HW118861  14.857   1.301  14.375
 5674SOL    HW218862  14.809   1.425  14.302
 5675SOL     OW18863   7.278   4.193  14.163
 5675SOL    HW118864   7.233   4.211  14.246
 5675SOL    HW218865   7.242   4.109  14.134
 5676SOL     OW18866   7.205  13.282   4.384
 5676SOL    HW118867   7.282  13.320   4.429
 5676SOL    HW218868   7.231  13.191   4.366
 5677SOL     OW18869   4.097  14.194   1.144
 5677SOL    HW118870   4.061  14.276   1.110
 5677SOL    HW218871   4.183  14.187   1.101
 5678SOL     OW18872   3.775  13.363   8.858
 5678SOL    HW118873   3.806  13.272   8.854
 5678SOL    HW218874   3.682  13.357   8.837
 5679SOL     OW18875   5.299   0.352   5.204
 5679SOL    HW118876   5.241   0.341   5.128
 5679SOL    HW218877   5.386   0.329   5.172
 5680SOL     OW18878   9.944   3.807   6.923
 5680SOL    HW118879   9.911   3.873   6.985
 5680SOL    HW218880   9.872   3.794   6.861
 5681SOL     OW18881   7.282   6.645   4.879
 5681SOL    HW118882   7.244   6.731   4.896
 5681SOL    HW218883   7.260   6.594   4.958
 5682SOL     OW18884   2.722   7.982   9.614
 5682SOL    HW118885   2.707   8.057   9.557
 5682SOL    HW218886   2.739   7.909   9.554
 5683SOL     OW18887  14.033   3.489   8.676
 5683SOL    HW118888  13.957   3.532   8.716
 5683SOL    HW218889  14.036   3.403   8.718
 5684SOL     OW18890   4.483   4.226  10.852
 5684SOL    HW118891   4.566   4.240  10.898
 5684SOL    HW218892   4.422   4.288  10.892
 5685SOL     OW18893   1.404   7.401   8.870
 5685SOL    HW118894   1.448   7.464   8.812
 5685SOL    HW218895   1.425   7.432   8.958
 5686SOL     OW18896   3.348  10.973   2.656
 5686SOL    HW118897   3.373  10.993   2.747
 5686SOL    HW218898   3.361  10.879   2.648
 5687SOL     OW18899  13.965   6.304   8.465
 5687SOL    HW118900  13.925   6.223   8.431
 5687SOL    HW218901  13.960   6.294   8.560
 5688SOL     OW18902   4.808   8.691   2.265
 5688SOL    HW118903   4.848   8.607   2.291
 5688SOL    HW218904   4.716   8.681   2.287
 5689SOL     OW18905  13.279   1.021   0.149
 5689SOL    HW118906  13.329   0.940   0.161
 5689SOL    HW218907  13.200   1.009   0.203
 5690SOL     OW18908   4.663   7.266  12.481
 5690SOL    HW118909   4.641   7.283  12.573
 5690SOL    HW218910   4.580   7.238  12.442
 5691SOL     OW18911   7.102   9.787   4.376
 5691SOL    HW118912   7.102   9.732   4.455
 5691SOL    HW218913   7.194   9.793   4.351
 5692SOL     OW18914   4.773   4.248   2.800
 5692SOL    HW118915   4.858   4.279   2.771
 5692SOL    HW218916   4.710   4.312   2.767
 5693SOL     OW18917   6.384  12.310   0.489
 5693SOL    HW118918   6.387  12.262   0.571
 5693SOL    HW218919   6.340  12.251   0.428
 5694SOL     OW18920   3.326   8.097   2.144
 5694SOL    HW118921   3.382   8.070   2.216
 5694SOL    HW218922   3.250   8.136   2.187
 5695SOL     OW18923   8.062   6.189   3.116
 5695SOL    HW118924   8.073   6.282   3.097
 5695SOL    HW218925   8.091   6.180   3.207
 5696SOL     OW18926  10.568  13.407   6.787
 5696SOL    HW118927  10.652  13.405   6.742
 5696SOL    HW218928  10.523  13.327   6.760
 5697SOL     OW18929   9.017   5.171  10.033
 5697SOL    HW118930   9.038   5.082  10.062
 5697SOL    HW218931   9.103   5.212  10.018
 5698SOL     OW18932  13.757   2.348  14.277
 5698SOL    HW118933  13.688   2.307  14.225
 5698SOL    HW218934  13.838   2.331  14.228
 5699SOL     OW18935   9.538  12.907   1.531
 5699SOL    HW118936   9.580  12.828   1.496
 5699SOL    HW218937   9.531  12.965   1.455
 5700SOL     OW18938   2.292  13.316  13.105
 5700SOL    HW118939   2.236  13.285  13.034
 5700SOL    HW218940   2.376  13.335  13.062
 5701SOL     OW18941   2.343   6.901   2.253
 5701SOL    HW118942   2.302   6.824   2.291
 5701SOL    HW218943   2.400   6.867   2.184
 5702SOL     OW18944   4.593   0.774   2.153
 5702SOL    HW118945   4.671   0.726   2.183
 5702SOL    HW218946   4.603   0.776   2.058
 5703SOL     OW18947  11.419  13.882  14.130
 5703SOL    HW118948  11.418  13.925  14.044
 5703SOL    HW218949  11.391  13.792  14.111
 5704SOL     OW18950  12.956  11.717   4.114
 5704SOL    HW118951  12.920  11.703   4.202
 5704SOL    HW218952  13.034  11.770   4.129
 5705SOL     OW18953   4.524  11.661  14.500
 5705SOL    HW118954   4.529  11.672  14.405
 5705SOL    HW218955   4.557  11.743  14.536
 5706SOL     OW18956   5.863  10.519   0.136
 5706SOL    HW118957   5.953  10.535   0.164
 5706SOL    HW218958   5.821  10.605   0.140
 5707SOL     OW18959   4.138  13.217   0.555
 5707SOL    HW118960   4.185  13.136   0.573
 5707SOL    HW218961   4.185  13.256   0.481
 5708SOL     OW18962  12.622   1.176  12.191
 5708SOL    HW118963  12.546   1.137  12.234
 5708SOL    HW218964  12.605   1.164  12.098
 5709SOL     OW18965  11.647   2.610   6.037
 5709SOL    HW118966  11.677   2.695   6.004
 5709SOL    HW218967  11.557   2.625   6.064
 5710SOL     OW18968  14.492   4.359   5.829
 5710SOL    HW118969  14.509   4.453   5.818
 5710SOL    HW218970  14.560   4.329   5.888
 5711SOL     OW18971   8.319   6.956   8.842
 5711SOL    HW118972   8.410   6.950   8.814
 5711SOL    HW218973   8.285   6.867   8.834
 5712SOL     OW18974   6.569   2.490   6.440
 5712SOL    HW118975   6.625   2.416   6.417
 5712SOL    HW218976   6.624   2.567   6.426
 5713SOL     OW18977  10.474   6.688   1.491
 5713SOL    HW118978  10.407   6.730   1.545
 5713SOL    HW218979  10.555   6.700   1.541
 5714SOL     OW18980  12.479  10.725  11.348
 5714SOL    HW118981  12.416  10.709  11.279
 5714SOL    HW218982  12.523  10.641  11.360
 5715SOL     OW18983  13.284   1.934  11.844
 5715SOL    HW118984  13.242   1.937  11.758
 5715SOL    HW218985  13.271   2.022  11.880
 5716SOL     OW18986  13.688   3.344  11.288
 5716SOL    HW118987  13.754   3.327  11.221
 5716SOL    HW218988  13.609   3.301  11.256
 5717SOL     OW18989   0.027   4.181  10.858
 5717SOL    HW118990   0.081   4.148  10.786
 5717SOL    HW218991   0.025   4.110  10.921
 5718SOL     OW18992   2.765   4.368   9.365
 5718SOL    HW118993   2.673   4.393   9.375
 5718SOL    HW218994   2.773   4.344   9.272
 5719SOL     OW18995   9.577  13.488   8.324
 5719SOL    HW118996   9.572  13.431   8.248
 5719SOL    HW218997   9.502  13.547   8.316
 5720SOL     OW18998   9.185  12.609   1.339
 5720SOL    HW118999   9.259  12.648   1.291
 5720SOL    HW219000   9.158  12.677   1.400
 5721SOL     OW19001  11.867   4.866   6.700
 5721SOL    HW119002  11.900   4.863   6.611
 5721SOL    HW219003  11.934   4.913   6.749
 5722SOL     OW19004  10.839   2.963  11.161
 5722SOL    HW119005  10.802   3.029  11.104
 5722SOL    HW219006  10.843   3.005  11.247
 5723SOL     OW19007   2.067  10.024   3.403
 5723SOL    HW119008   2.011   9.970   3.347
 5723SOL    HW219009   2.151  10.026   3.357
 5724SOL     OW19010   7.695  10.126  14.128
 5724SOL    HW119011   7.608  10.153  14.099
 5724SOL    HW219012   7.696  10.145  14.222
 5725SOL     OW19013   0.114   5.341   7.116
 5725SOL    HW119014   0.054   5.411   7.090
 5725SOL    HW219015   0.167   5.325   7.038
 5726SOL     OW19016   4.882   4.784   7.937
 5726SOL    HW119017   4.922   4.697   7.928
 5726SOL    HW219018   4.957   4.843   7.948
 5727SOL     OW19019   1.710   0.362   7.343
 5727SOL    HW119020   1.787   0.411   7.371
 5727SOL    HW219021   1.740   0.314   7.265
 5728SOL     OW19022   6.431   6.678   7.529
 5728SOL    HW119023   6.497   6.670   7.598
 5728SOL    HW219024   6.464   6.747   7.472
 5729SOL     OW19025   4.453   4.691   2.254
 5729SOL    HW119026   4.405   4.614   2.284
 5729SOL    HW219027   4.434   4.759   2.319
 5730SOL     OW19028   9.948   8.629   5.421
 5730SOL    HW119029   9.936   8.624   5.516
 5730SOL    HW219030  10.036   8.595   5.405
 5731SOL     OW19031  11.034   3.485   7.934
 5731SOL    HW119032  11.035   3.509   7.841
 5731SOL    HW219033  10.946   3.450   7.947
 5732SOL     OW19034   5.658   3.095  12.177
 5732SOL    HW119035   5.634   3.133  12.093
 5732SOL    HW219036   5.724   3.154  12.213
 5733SOL     OW19037   7.930   5.255   4.286
 5733SOL    HW119038   7.893   5.306   4.358
 5733SOL    HW219039   7.938   5.318   4.214
 5734SOL     OW19040  12.623   0.731  14.160
 5734SOL    HW119041  12.662   0.818  14.156
 5734SOL    HW219042  12.647   0.697  14.247
 5735SOL     OW19043   5.049   2.365   8.291
 5735SOL    HW119044   4.984   2.430   8.265
 5735SOL    HW219045   5.027   2.287   8.240
 5736SOL     OW19046   1.422  11.928   9.025
 5736SOL    HW119047   1.329  11.924   9.004
 5736SOL    HW219048   1.430  12.004   9.083
 5737SOL     OW19049   3.279   6.785   1.300
 5737SOL    HW119050   3.264   6.877   1.280
 5737SOL    HW219051   3.281   6.781   1.396
 5738SOL     OW19052   2.510   7.367   2.701
 5738SOL    HW119053   2.440   7.393   2.641
 5738SOL    HW219054   2.468   7.365   2.787
 5739SOL     OW19055  11.315   2.386   4.626
 5739SOL    HW119056  11.339   2.445   4.697
 5739SOL    HW219057  11.357   2.423   4.549
 5740SOL     OW19058   4.555   4.371   1.511
 5740SOL    HW119059   4.472   4.395   1.469
 5740SOL    HW219060   4.567   4.436   1.580
 5741SOL     OW19061  11.976   3.310  10.525
 5741SOL    HW119062  11.949   3.219  10.528
 5741SOL    HW219063  11.934   3.351  10.601
 5742SOL     OW19064   4.979   3.616   0.202
 5742SOL    HW119065   4.892   3.652   0.219
 5742SOL    HW219066   4.964   3.524   0.184
 5743SOL     OW19067  11.797   4.186   4.415
 5743SOL    HW119068  11.796   4.175   4.510
 5743SOL    HW219069  11.760   4.273   4.400
 5744SOL     OW19070   7.447  14.617  11.161
 5744SOL    HW119071   7.541  14.630  11.174
 5744SOL    HW219072   7.408  14.637  11.246
 5745SOL     OW19073   1.810   4.725   3.559
 5745SOL    HW119074   1.728   4.679   3.574
 5745SOL    HW219075   1.800   4.809   3.604
 5746SOL     OW19076  10.191   9.849   1.368
 5746SOL    HW119077  10.239   9.899   1.302
 5746SOL    HW219078  10.109   9.897   1.379
 5747SOL     OW19079   6.288   5.893   7.988
 5747SOL    HW119080   6.234   5.908   7.910
 5747SOL    HW219081   6.242   5.824   8.036
 5748SOL     OW19082   4.261   2.374   9.111
 5748SOL    HW119083   4.292   2.392   9.022
 5748SOL    HW219084   4.167   2.390   9.108
 5749SOL     OW19085  12.392   9.451   9.758
 5749SOL    HW119086  12.361   9.503   9.683
 5749SOL    HW219087  12.339   9.372   9.755
 5750SOL     OW19088  12.235  13.796   0.001
 5750SOL    HW119089  12.161  13.854   0.018
 5750SOL    HW219090  12.207  13.710   0.034
 5751SOL     OW19091  10.140  12.825   5.176
 5751SOL    HW119092  10.134  12.776   5.094
 5751SOL    HW219093  10.194  12.901   5.155
 5752SOL     OW19094   1.568  11.033   5.865
 5752SOL    HW119095   1.657  11.067   5.859
 5752SOL    HW219096   1.578  10.947   5.905
 5753SOL     OW19097   1.573  13.768  10.968
 5753SOL    HW119098   1.499  13.819  10.937
 5753SOL    HW219099   1.650  13.820  10.945
 5754SOL     OW19100   8.313   8.046   1.666
 5754SOL    HW119101   8.348   8.026   1.752
 5754SOL    HW219102   8.233   8.096   1.683
 5755SOL     OW19103   9.067  14.542  11.492
 5755SOL    HW119104   9.019  14.548  11.410
 5755SOL    HW219105   9.009  14.493  11.550
 5756SOL     OW19106   5.805   6.143   3.524
 5756SOL    HW119107   5.772   6.183   3.444
 5756SOL    HW219108   5.899   6.156   3.521
 5757SOL     OW19109   2.715   1.578   0.584
 5757SOL    HW119110   2.741   1.508   0.644
 5757SOL    HW219111   2.744   1.548   0.498
 5758SOL     OW19112  10.981   6.974  10.709
 5758SOL    HW119113  10.890   7.002  10.719
 5758SOL    HW219114  10.986   6.945  10.618
 5759SOL     OW19115   8.109   3.533  14.513
 5759SOL    HW119116   8.174   3.521  14.582
 5759SOL    HW219117   8.155   3.511  14.432
 5760SOL     OW19118   8.673   0.459   4.758
 5760SOL    HW119119   8.737   0.483   4.690
 5760SOL    HW219120   8.622   0.538   4.772
 5761SOL     OW19121  11.073  11.640  12.023
 5761SOL    HW119122  11.127  11.683  12.089
 5761SOL    HW219123  11.123  11.562  11.999
 5762SOL     OW19124   9.179   2.142   9.522
 5762SOL    HW119125   9.170   2.100   9.436
 5762SOL    HW219126   9.273   2.148   9.536
 5763SOL     OW19127   9.973   2.709   5.513
 5763SOL    HW119128   9.891   2.739   5.473
 5763SOL    HW219129  10.041   2.756   5.464
 5764SOL     OW19130   0.695  13.944  11.709
 5764SOL    HW119131   0.661  13.981  11.791
 5764SOL    HW219132   0.760  14.007  11.680
 5765SOL     OW19133   4.686   3.939  12.615
 5765SOL    HW119134   4.698   3.938  12.520
 5765SOL    HW219135   4.763   3.893  12.648
 5766SOL     OW19136  10.259   3.291  13.953
 5766SOL    HW119137  10.264   3.204  13.914
 5766SOL    HW219138  10.180   3.330  13.915
 5767SOL     OW19139   5.161  14.461   8.274
 5767SOL    HW119140   5.226  14.530   8.274
 5767SOL    HW219141   5.127  14.460   8.184
 5768SOL     OW19142   4.507   9.240   6.862
 5768SOL    HW119143   4.437   9.175   6.862
 5768SOL    HW219144   4.511   9.270   6.953
 5769SOL     OW19145   7.633   5.446  13.764
 5769SOL    HW119146   7.541   5.417  13.761
 5769SOL    HW219147   7.651   5.478  13.676
 5770SOL     OW19148  12.267   7.806   5.565
 5770SOL    HW119149  12.215   7.886   5.568
 5770SOL    HW219150  12.208   7.737   5.595
 5771SOL     OW19151   7.700   6.722   3.740
 5771SOL    HW119152   7.744   6.800   3.774
 5771SOL    HW219153   7.772   6.661   3.723
 5772SOL     OW19154   7.177  11.889   7.906
 5772SOL    HW119155   7.204  11.976   7.877
 5772SOL    HW219156   7.206  11.884   7.997
 5773SOL     OW19157   5.276   2.883   6.243
 5773SOL    HW119158   5.312   2.802   6.278
 5773SOL    HW219159   5.181   2.872   6.247
 5774SOL     OW19160   7.365  12.236   6.604
 5774SOL    HW119161   7.438  12.287   6.639
 5774SOL    HW219162   7.375  12.149   6.644
 5775SOL     OW19163   8.275   0.140   6.181
 5775SOL    HW119164   8.292   0.107   6.270
 5775SOL    HW219165   8.221   0.072   6.141
 5776SOL     OW19166   5.418  10.948   4.271
 5776SOL    HW119167   5.444  10.895   4.346
 5776SOL    HW219168   5.376  10.885   4.212
 5777SOL     OW19169   8.453   1.935  13.761
 5777SOL    HW119170   8.523   1.871  13.777
 5777SOL    HW219171   8.434   1.972  13.847
 5778SOL     OW19172   8.153   4.350   0.341
 5778SOL    HW119173   8.097   4.419   0.375
 5778SOL    HW219174   8.194   4.388   0.263
 5779SOL     OW19175  12.552   2.418   5.456
 5779SOL    HW119176  12.510   2.399   5.540
 5779SOL    HW219177  12.644   2.434   5.479
 5780SOL     OW19178  12.055   2.571  10.491
 5780SOL    HW119179  12.102   2.567  10.574
 5780SOL    HW219180  11.963   2.578  10.516
 5781SOL     OW19181   5.259   2.770  14.147
 5781SOL    HW119182   5.345   2.808  14.164
 5781SOL    HW219183   5.198   2.844  14.155
 5782SOL     OW19184   4.479  13.862   5.172
 5782SOL    HW119185   4.488  13.903   5.257
 5782SOL    HW219186   4.566  13.824   5.155
 5783SOL     OW19187  13.737   6.717  13.903
 5783SOL    HW119188  13.733   6.660  13.980
 5783SOL    HW219189  13.725   6.657  13.829
 5784SOL     OW19190  14.285   1.426   8.530
 5784SOL    HW119191  14.212   1.485   8.509
 5784SOL    HW219192  14.251   1.338   8.516
 5785SOL     OW19193   4.171   8.799  12.718
 5785SOL    HW119194   4.165   8.711  12.681
 5785SOL    HW219195   4.099   8.803  12.782
 5786SOL     OW19196   0.011   8.379   9.063
 5786SOL    HW119197   0.078   8.325   9.020
 5786SOL    HW219198   0.027   8.467   9.029
 5787SOL     OW19199   3.076  11.859  14.813
 5787SOL    HW119200   3.044  11.933  14.865
 5787SOL    HW219201   3.160  11.890  14.777
 5788SOL     OW19202  14.864   6.642  11.142
 5788SOL    HW119203  14.771   6.664  11.150
 5788SOL    HW219204  14.865   6.552  11.108
 5789SOL     OW19205   0.059   4.443  10.092
 5789SOL    HW119206   0.073   4.521  10.038
 5789SOL    HW219207   0.067   4.475  10.182
 5790SOL     OW19208  12.808   1.653  14.737
 5790SOL    HW119209  12.829   1.571  14.782
 5790SOL    HW219210  12.725   1.636  14.693
 5791SOL     OW19211   3.997  12.980   1.510
 5791SOL    HW119212   4.045  12.979   1.592
 5791SOL    HW219213   4.046  12.921   1.453
 5792SOL     OW19214   3.024  14.580   3.829
 5792SOL    HW119215   3.020  14.529   3.910
 5792SOL    HW219216   3.023  14.671   3.858
 5793SOL     OW19217   7.896  10.368  10.767
 5793SOL    HW119218   7.915  10.278  10.794
 5793SOL    HW219219   7.849  10.406  10.840
 5794SOL     OW19220   1.096   6.321   9.677
 5794SOL    HW119221   1.087   6.415   9.666
 5794SOL    HW219222   1.154   6.293   9.606
 5795SOL     OW19223  10.299   5.112  13.329
 5795SOL    HW119224  10.381   5.151  13.297
 5795SOL    HW219225  10.266   5.062  13.255
 5796SOL     OW19226   8.092   6.165   7.192
 5796SOL    HW119227   8.007   6.155   7.147
 5796SOL    HW219228   8.135   6.235   7.144
 5797SOL     OW19229   1.459   1.888   6.081
 5797SOL    HW119230   1.476   1.979   6.104
 5797SOL    HW219231   1.482   1.883   5.988
 5798SOL     OW19232  12.479   6.662  10.264
 5798SOL    HW119233  12.419   6.604  10.312
 5798SOL    HW219234  12.542   6.691  10.330
 5799SOL     OW19235   4.401   1.898   7.519
 5799SOL    HW119236   4.322   1.872   7.471
 5799SOL    HW219237   4.442   1.815   7.543
 5800SOL     OW19238   4.227   4.629   4.169
 5800SOL    HW119239   4.170   4.704   4.187
 5800SOL    HW219240   4.301   4.666   4.120
 5801SOL     OW19241  11.558  11.677  10.077
 5801SOL    HW119242  11.490  11.724  10.027
 5801SOL    HW219243  11.567  11.593  10.032
 5802SOL     OW19244  10.509  12.389   2.709
 5802SOL    HW119245  10.593  12.433   2.705
 5802SOL    HW219246  10.463  12.432   2.781
 5803SOL     OW19247   9.564  10.965  13.826
 5803SOL    HW119248   9.493  11.030  13.822
 5803SOL    HW219249   9.604  10.978  13.912
 5804SOL     OW19250  12.315   9.026   1.194
 5804SOL    HW119251  12.282   9.018   1.284
 5804SOL    HW219252  12.236   9.044   1.142
 5805SOL     OW19253   2.003  13.214   3.037
 5805SOL    HW119254   1.988  13.277   3.108
 5805SOL    HW219255   1.935  13.233   2.973
 5806SOL     OW19256   1.893  12.133   9.248
 5806SOL    HW119257   1.924  12.057   9.297
 5806SOL    HW219258   1.868  12.196   9.315
 5807SOL     OW19259  12.112   7.185   6.025
 5807SOL    HW119260  12.161   7.123   5.971
 5807SOL    HW219261  12.034   7.137   6.052
 5808SOL     OW19262   4.435  13.915   8.312
 5808SOL    HW119263   4.513  13.863   8.331
 5808SOL    HW219264   4.377  13.855   8.265
 5809SOL     OW19265   1.169   8.669  12.804
 5809SOL    HW119266   1.231   8.619  12.858
 5809SOL    HW219267   1.194   8.760  12.818
 5810SOL     OW19268  10.205   7.558   1.817
 5810SOL    HW119269  10.241   7.647   1.820
 5810SOL    HW219270  10.144   7.555   1.891
 5811SOL     OW19271  14.564   8.721  13.501
 5811SOL    HW119272  14.592   8.677  13.421
 5811SOL    HW219273  14.501   8.787  13.472
 5812SOL     OW19274   2.185  11.428   6.426
 5812SOL    HW119275   2.142  11.390   6.350
 5812SOL    HW219276   2.276  11.440   6.398
 5813SOL     OW19277   6.757   3.122   7.564
 5813SOL    HW119278   6.844   3.099   7.531
 5813SOL    HW219279   6.772   3.152   7.653
 5814SOL     OW19280   0.591  11.948   0.516
 5814SOL    HW119281   0.583  12.041   0.541
 5814SOL    HW219282   0.641  11.909   0.588
 5815SOL     OW19283   3.995  10.159   5.287
 5815SOL    HW119284   4.056  10.092   5.257
 5815SOL    HW219285   3.978  10.212   5.209
 5816SOL     OW19286   5.609   2.741   3.175
 5816SOL    HW119287   5.661   2.716   3.099
 5816SOL    HW219288   5.638   2.681   3.244
 5817SOL     OW19289   4.492  10.040   0.299
 5817SOL    HW119290   4.398  10.033   0.285
 5817SOL    HW219291   4.519   9.951   0.323
 5818SOL     OW19292   9.971   1.408   1.144
 5818SOL    HW119293  10.048   1.350   1.145
 5818SOL    HW219294  10.003   1.489   1.104
 5819SOL     OW19295   4.872   2.011  12.132
 5819SOL    HW119296   4.958   2.012  12.174
 5819SOL    HW219297   4.811   2.036  12.201
 5820SOL     OW19298   2.552   6.370   0.635
 5820SOL    HW119299   2.594   6.293   0.596
 5820SOL    HW219300   2.474   6.335   0.679
 5821SOL     OW19301   2.247   5.624   1.734
 5821SOL    HW119302   2.240   5.564   1.660
 5821SOL    HW219303   2.176   5.687   1.721
 5822SOL     OW19304   8.196   2.613   0.439
 5822SOL    HW119305   8.146   2.536   0.411
 5822SOL    HW219306   8.193   2.673   0.364
 5823SOL     OW19307  11.781   9.349   9.428
 5823SOL    HW119308  11.701   9.298   9.442
 5823SOL    HW219309  11.778   9.417   9.495
 5824SOL     OW19310  12.581   5.054   2.623
 5824SOL    HW119311  12.637   5.129   2.640
 5824SOL    HW219312  12.621   5.010   2.548
 5825SOL     OW19313   8.878   9.668   1.774
 5825SOL    HW119314   8.872   9.681   1.868
 5825SOL    HW219315   8.944   9.731   1.745
 5826SOL     OW19316  12.934   9.472   5.004
 5826SOL    HW119317  12.927   9.489   5.098
 5826SOL    HW219318  12.962   9.556   4.967
 5827SOL     OW19319  12.156   8.949   0.302
 5827SOL    HW119320  12.165   9.012   0.231
 5827SOL    HW219321  12.074   8.902   0.282
 5828SOL     OW19322  11.394  13.766  12.474
 5828SOL    HW119323  11.361  13.690  12.522
 5828SOL    HW219324  11.428  13.824  12.541
 5829SOL     OW19325   6.783   9.991   8.867
 5829SOL    HW119326   6.707  10.040   8.900
 5829SOL    HW219327   6.849  10.058   8.850
 5830SOL     OW19328   6.778  12.994   0.630
 5830SOL    HW119329   6.742  13.081   0.616
 5830SOL    HW219330   6.780  12.984   0.725
 5831SOL     OW19331  11.581   5.996   0.615
 5831SOL    HW119332  11.561   6.086   0.589
 5831SOL    HW219333  11.511   5.943   0.576
 5832SOL     OW19334   2.695   9.418   6.190
 5832SOL    HW119335   2.604   9.392   6.204
 5832SOL    HW219336   2.690   9.486   6.122
 5833SOL     OW19337  13.445   2.815   7.360
 5833SOL    HW119338  13.399   2.743   7.317
 5833SOL    HW219339  13.508   2.845   7.295
 5834SOL     OW19340  11.629  11.382   2.529
 5834SOL    HW119341  11.625  11.308   2.469
 5834SOL    HW219342  11.637  11.343   2.616
 5835SOL     OW19343   3.581  14.078   9.233
 5835SOL    HW119344   3.559  14.022   9.307
 5835SOL    HW219345   3.503  14.131   9.218
 5836SOL     OW19346   9.785   9.206  11.554
 5836SOL    HW119347   9.805   9.131  11.498
 5836SOL    HW219348   9.853   9.205  11.622
 5837SOL     OW19349   9.643  10.593   4.682
 5837SOL    HW119350   9.623  10.570   4.592
 5837SOL    HW219351   9.735  10.620   4.681
 5838SOL     OW19352   8.143   7.743   1.356
 5838SOL    HW119353   8.124   7.796   1.434
 5838SOL    HW219354   8.066   7.754   1.301
 5839SOL     OW19355  14.072  12.750   9.732
 5839SOL    HW119356  14.008  12.757   9.803
 5839SOL    HW219357  14.029  12.696   9.666
 5840SOL     OW19358   5.472   5.627  13.275
 5840SOL    HW119359   5.451   5.548  13.225
 5840SOL    HW219360   5.428   5.698  13.228
 5841SOL     OW19361   4.967  13.429   1.515
 5841SOL    HW119362   5.010  13.373   1.450
 5841SOL    HW219363   4.974  13.381   1.597
 5842SOL     OW19364   4.630  12.506  10.356
 5842SOL    HW119365   4.589  12.441  10.412
 5842SOL    HW219366   4.657  12.456  10.278
 5843SOL     OW19367  10.967  12.644   4.821
 5843SOL    HW119368  11.019  12.588   4.763
 5843SOL    HW219369  10.925  12.706   4.761
 5844SOL     OW19370  10.059  11.967  13.796
 5844SOL    HW119371  10.066  12.018  13.715
 5844SOL    HW219372  10.082  12.029  13.865
 5845SOL     OW19373   4.533   7.597   4.416
 5845SOL    HW119374   4.567   7.686   4.411
 5845SOL    HW219375   4.464   7.594   4.349
 5846SOL     OW19376   7.343   8.499   2.439
 5846SOL    HW119377   7.255   8.520   2.469
 5846SOL    HW219378   7.341   8.518   2.345
 5847SOL     OW19379   9.268  13.785   1.072
 5847SOL    HW119380   9.255  13.831   1.155
 5847SOL    HW219381   9.237  13.696   1.089
 5848SOL     OW19382   8.980  11.028  10.763
 5848SOL    HW119383   8.930  11.089  10.818
 5848SOL    HW219384   8.941  11.035  10.676
 5849SOL     OW19385  10.864   4.297   7.720
 5849SOL    HW119386  10.865   4.344   7.636
 5849SOL    HW219387  10.957   4.284   7.741
 5850SOL     OW19388  12.622  11.518  11.934
 5850SOL    HW119389  12.585  11.605  11.919
 5850SOL    HW219390  12.605  11.501  12.027
 5851SOL     OW19391  13.279   4.480   3.401
 5851SOL    HW119392  13.269   4.529   3.320
 5851SOL    HW219393  13.374   4.474   3.414
 5852SOL     OW19394  10.441   1.645   0.689
 5852SOL    HW119395  10.504   1.687   0.747
 5852SOL    HW219396  10.430   1.557   0.725
 5853SOL     OW19397  10.912   9.580  11.901
 5853SOL    HW119398  10.942   9.573  11.810
 5853SOL    HW219399  10.957   9.656  11.936
 5854SOL     OW19400   3.480   2.690   3.689
 5854SOL    HW119401   3.433   2.764   3.728
 5854SOL    HW219402   3.567   2.725   3.669
 5855SOL     OW19403  14.875  12.256  14.569
 5855SOL    HW119404  14.827  12.193  14.623
 5855SOL    HW219405  14.817  12.332  14.565
 5856SOL     OW19406   7.947   5.012   2.227
 5856SOL    HW119407   7.989   5.095   2.203
 5856SOL    HW219408   7.869   5.008   2.172
 5857SOL     OW19409   7.021   0.051  12.875
 5857SOL    HW119410   7.042   0.117  12.940
 5857SOL    HW219411   7.063   0.082  12.794
 5858SOL     OW19412  12.369   0.086   7.620
 5858SOL    HW119413  12.295   0.117   7.568
 5858SOL    HW219414  12.387   0.157   7.681
 5859SOL     OW19415  13.068  11.192   9.790
 5859SOL    HW119416  13.110  11.224   9.711
 5859SOL    HW219417  13.066  11.268   9.849
 5860SOL     OW19418   1.655   1.420   9.372
 5860SOL    HW119419   1.584   1.409   9.309
 5860SOL    HW219420   1.616   1.393   9.456
 5861SOL     OW19421  14.266   9.626   5.389
 5861SOL    HW119422  14.325   9.573   5.336
 5861SOL    HW219423  14.236   9.567   5.457
 5862SOL     OW19424   8.028  13.287  10.864
 5862SOL    HW119425   8.080  13.294  10.944
 5862SOL    HW219426   7.948  13.242  10.891
 5863SOL     OW19427   3.667   6.770  11.808
 5863SOL    HW119428   3.613   6.699  11.842
 5863SOL    HW219429   3.625   6.850  11.840
 5864SOL     OW19430  13.896  14.120   2.729
 5864SOL    HW119431  13.892  14.208   2.769
 5864SOL    HW219432  13.878  14.061   2.802
 5865SOL     OW19433   3.202   8.498   6.292
 5865SOL    HW119434   3.132   8.441   6.324
 5865SOL    HW219435   3.188   8.502   6.198
 5866SOL     OW19436  11.298   3.417  10.721
 5866SOL    HW119437  11.329   3.456  10.803
 5866SOL    HW219438  11.310   3.486  10.656
 5867SOL     OW19439  13.706   2.699   0.816
 5867SOL    HW119440  13.796   2.701   0.782
 5867SOL    HW219441  13.716   2.699   0.911
 5868SOL     OW19442  12.964  14.031  11.196
 5868SOL    HW119443  12.872  14.008  11.208
 5868SOL    HW219444  13.001  13.958  11.146
 5869SOL     OW19445   6.862   6.156  14.730
 5869SOL    HW119446   6.881   6.063  14.735
 5869SOL    HW219447   6.775   6.164  14.769
 5870SOL     OW19448   2.943   0.962  10.830
 5870SOL    HW119449   2.929   1.006  10.913
 5870SOL    HW219450   2.899   1.017  10.765
 5871SOL     OW19451  13.838   5.886   5.813
 5871SOL    HW119452  13.875   5.895   5.901
 5871SOL    HW219453  13.767   5.822   5.824
 5872SOL     OW19454   1.784   7.384   9.826
 5872SOL    HW119455   1.689   7.391   9.818
 5872SOL    HW219456   1.804   7.423   9.912
 5873SOL     OW19457   2.406   5.789   6.351
 5873SOL    HW119458   2.365   5.874   6.337
 5873SOL    HW219459   2.421   5.784   6.445
 5874SOL     OW19460  11.330   5.775   4.631
 5874SOL    HW119461  11.286   5.859   4.615
 5874SOL    HW219462  11.417   5.799   4.661
 5875SOL     OW19463  10.456   5.902  11.015
 5875SOL    HW119464  10.470   5.871  10.925
 5875SOL    HW219465  10.520   5.853  11.067
 5876SOL     OW19466   9.325   2.928  12.319
 5876SOL    HW119467   9.237   2.959  12.302
 5876SOL    HW219468   9.381   2.979  12.260
 5877SOL     OW19469  13.624   4.333   4.730
 5877SOL    HW119470  13.609   4.294   4.644
 5877SOL    HW219471  13.537   4.343   4.768
 5878SOL     OW19472   7.057   1.054  10.097
 5878SOL    HW119473   7.111   1.117  10.049
 5878SOL    HW219474   7.018   0.999  10.029
 5879SOL     OW19475  10.981   7.859   9.663
 5879SOL    HW119476  10.978   7.764   9.679
 5879SOL    HW219477  10.922   7.872   9.589
 5880SOL     OW19478   6.351   3.429   3.824
 5880SOL    HW119479   6.432   3.461   3.784
 5880SOL    HW219480   6.281   3.479   3.783
 5881SOL     OW19481  13.942   4.689   4.731
 5881SOL    HW119482  13.877   4.759   4.721
 5881SOL    HW219483  14.003   4.722   4.796
 5882SOL     OW19484  10.411   7.830  10.760
 5882SOL    HW119485  10.408   7.790  10.674
 5882SOL    HW219486  10.373   7.917  10.748
 5883SOL     OW19487   9.130  14.847   5.617
 5883SOL    HW119488   9.130   0.025   5.694
 5883SOL    HW219489   9.049  14.796   5.625
 5884SOL     OW19490  14.236   8.593   5.022
 5884SOL    HW119491  14.211   8.675   5.064
 5884SOL    HW219492  14.252   8.533   5.096
 5885SOL     OW19493  13.564   0.541  11.416
 5885SOL    HW119494  13.645   0.489  11.412
 5885SOL    HW219495  13.592   0.625  11.454
 5886SOL     OW19496   8.934   0.785  12.985
 5886SOL    HW119497   8.853   0.827  13.015
 5886SOL    HW219498   8.926   0.694  13.015
 5887SOL     OW19499   9.522  12.927   2.368
 5887SOL    HW119500   9.431  12.932   2.336
 5887SOL    HW219501   9.550  12.839   2.346
 5888SOL     OW19502   4.111  13.670   8.374
 5888SOL    HW119503   4.203  13.656   8.350
 5888SOL    HW219504   4.113  13.684   8.469
 5889SOL     OW19505  12.058   3.867  14.247
 5889SOL    HW119506  12.076   3.777  14.275
 5889SOL    HW219507  11.963   3.876  14.255
 5890SOL     OW19508   2.365   9.739   6.204
 5890SOL    HW119509   2.362   9.672   6.272
 5890SOL    HW219510   2.366   9.822   6.251
 5891SOL     OW19511  13.367  10.695   8.942
 5891SOL    HW119512  13.447  10.643   8.944
 5891SOL    HW219513  13.395  10.783   8.919
 5892SOL     OW19514  12.297  12.720   0.519
 5892SOL    HW119515  12.248  12.750   0.595
 5892SOL    HW219516  12.310  12.798   0.466
 5893SOL     OW19517   0.706  11.741   9.542
 5893SOL    HW119518   0.774  11.678   9.562
 5893SOL    HW219519   0.645  11.736   9.616
 5894SOL     OW19520   7.053   9.570  14.021
 5894SOL    HW119521   7.014   9.483  14.012
 5894SOL    HW219522   7.147   9.554  14.020
 5895SOL     OW19523   2.115   6.065   9.588
 5895SOL    HW119524   2.167   5.994   9.550
 5895SOL    HW219525   2.112   6.132   9.520
 5896SOL     OW19526  12.006   4.038  13.633
 5896SOL    HW119527  11.958   4.105  13.583
 5896SOL    HW219528  11.968   4.042  13.721
 5897SOL     OW19529   3.966   2.655   0.103
 5897SOL    HW119530   4.002   2.743   0.096
 5897SOL    HW219531   3.984   2.629   0.194
 5898SOL     OW19532   2.938   6.012  12.694
 5898SOL    HW119533   2.928   5.929  12.740
 5898SOL    HW219534   2.858   6.061  12.715
 5899SOL     OW19535   4.091   8.521  12.943
 5899SOL    HW119536   4.114   8.428  12.943
 5899SOL    HW219537   4.175   8.567  12.936
 5900SOL     OW19538   7.415   4.459  10.661
 5900SOL    HW119539   7.337   4.434  10.710
 5900SOL    HW219540   7.486   4.410  10.702
 5901SOL     OW19541   1.938   4.160  10.735
 5901SOL    HW119542   1.971   4.196  10.817
 5901SOL    HW219543   1.990   4.203  10.667
 5902SOL     OW19544   3.892  14.241  10.064
 5902SOL    HW119545   3.912  14.240   9.971
 5902SOL    HW219546   3.945  14.312  10.100
 5903SOL     OW19547   0.336   3.508   4.393
 5903SOL    HW119548   0.423   3.468   4.389
 5903SOL    HW219549   0.320   3.539   4.304
 5904SOL     OW19550   6.721   5.542  11.445
 5904SOL    HW119551   6.729   5.460  11.397
 5904SOL    HW219552   6.735   5.517  11.537
 5905SOL     OW19553   0.290   2.739  12.066
 5905SOL    HW119554   0.321   2.810  12.123
 5905SOL    HW219555   0.270   2.667  12.127
 5906SOL     OW19556   8.640   6.375   7.769
 5906SOL    HW119557   8.690   6.436   7.714
 5906SOL    HW219558   8.593   6.320   7.707
 5907SOL     OW19559  12.817   6.942   3.322
 5907SOL    HW119560  12.739   6.968   3.273
 5907SOL    HW219561  12.877   6.908   3.255
 5908SOL     OW19562  14.274  10.897   4.640
 5908SOL    HW119563  14.368  10.897   4.659
 5908SOL    HW219564  14.263  10.828   4.575
 5909SOL     OW19565  10.927   1.482  13.207
 5909SOL    HW119566  10.866   1.454  13.275
 5909SOL    HW219567  10.968   1.562  13.242
 5910SOL     OW19568  10.041   0.772  14.601
 5910SOL    HW119569  10.024   0.814  14.685
 5910SOL    HW219570  10.115   0.713  14.619
 5911SOL     OW19571   1.651   1.774   3.847
 5911SOL    HW119572   1.604   1.855   3.830
 5911SOL    HW219573   1.734   1.801   3.886
 5912SOL     OW19574  11.860  13.375   5.829
 5912SOL    HW119575  11.831  13.299   5.778
 5912SOL    HW219576  11.915  13.424   5.769
 5913SOL     OW19577  11.456   4.051   8.841
 5913SOL    HW119578  11.538   4.083   8.802
 5913SOL    HW219579  11.461   3.956   8.833
 5914SOL     OW19580   3.745  13.040   3.942
 5914SOL    HW119581   3.724  13.091   4.020
 5914SOL    HW219582   3.829  13.075   3.913
 5915SOL     OW19583   0.301   3.285   2.868
 5915SOL    HW119584   0.333   3.204   2.830
 5915SOL    HW219585   0.361   3.303   2.940
 5916SOL     OW19586   4.804  12.292  11.128
 5916SOL    HW119587   4.865  12.327  11.193
 5916SOL    HW219588   4.856  12.284  11.048
 5917SOL     OW19589  10.245   0.579   3.504
 5917SOL    HW119590  10.263   0.523   3.428
 5917SOL    HW219591  10.168   0.630   3.478
 5918SOL     OW19592   2.336   1.202  12.837
 5918SOL    HW119593   2.291   1.253  12.904
 5918SOL    HW219594   2.383   1.134  12.885
 5919SOL     OW19595   8.169   1.747   6.175
 5919SOL    HW119596   8.196   1.656   6.190
 5919SOL    HW219597   8.118   1.744   6.094
 5920SOL     OW19598   0.938   3.218   5.652
 5920SOL    HW119599   0.978   3.280   5.591
 5920SOL    HW219600   0.997   3.143   5.653
 5921SOL     OW19601   1.652   5.137  10.257
 5921SOL    HW119602   1.719   5.179  10.311
 5921SOL    HW219603   1.650   5.046  10.288
 5922SOL     OW19604   1.651  13.788   3.085
 5922SOL    HW119605   1.657  13.700   3.121
 5922SOL    HW219606   1.674  13.778   2.992
 5923SOL     OW19607   6.886  14.567   1.751
 5923SOL    HW119608   6.916  14.648   1.709
 5923SOL    HW219609   6.963  14.510   1.751
 5924SOL     OW19610  10.728   7.247   7.634
 5924SOL    HW119611  10.738   7.304   7.709
 5924SOL    HW219612  10.726   7.159   7.671
 5925SOL     OW19613  10.125  12.352   1.071
 5925SOL    HW119614  10.107  12.444   1.093
 5925SOL    HW219615  10.040  12.317   1.045
 5926SOL     OW19616  10.234   8.595   5.909
 5926SOL    HW119617  10.185   8.675   5.929
 5926SOL    HW219618  10.180   8.524   5.946
 5927SOL     OW19619   9.540  10.865   8.124
 5927SOL    HW119620   9.514  10.946   8.080
 5927SOL    HW219621   9.506  10.795   8.067
 5928SOL     OW19622   3.080  14.878   5.382
 5928SOL    HW119623   3.115  14.858   5.468
 5928SOL    HW219624   3.155  14.869   5.323
 5929SOL     OW19625   4.165   3.789   2.496
 5929SOL    HW119626   4.075   3.799   2.463
 5929SOL    HW219627   4.154   3.773   2.589
 5930SOL     OW19628   4.784   4.142   0.106
 5930SOL    HW119629   4.764   4.235   0.091
 5930SOL    HW219630   4.862   4.125   0.053
 5931SOL     OW19631   0.269   9.400   9.694
 5931SOL    HW119632   0.315   9.340   9.635
 5931SOL    HW219633   0.331   9.414   9.766
 5932SOL     OW19634  14.755   8.445  10.602
 5932SOL    HW119635  14.735   8.352  10.598
 5932SOL    HW219636  14.839   8.454  10.557
 5933SOL     OW19637  14.144   1.698   1.481
 5933SOL    HW119638  14.219   1.757   1.489
 5933SOL    HW219639  14.180   1.618   1.445
 5934SOL     OW19640   0.387  11.744   7.806
 5934SOL    HW119641   0.376  11.839   7.806
 5934SOL    HW219642   0.327  11.712   7.738
 5935SOL     OW19643  12.066   4.018   0.102
 5935SOL    HW119644  12.044   3.941   0.155
 5935SOL    HW219645  12.153   3.999   0.068
 5936SOL     OW19646  13.457   6.566   9.147
 5936SOL    HW119647  13.385   6.525   9.099
 5936SOL    HW219648  13.487   6.636   9.089
 5937SOL     OW19649   1.208   9.347  12.902
 5937SOL    HW119650   1.132   9.291  12.917
 5937SOL    HW219651   1.278   9.307  12.953
 5938SOL     OW19652  12.959   7.457   6.958
 5938SOL    HW119653  12.971   7.448   6.863
 5938SOL    HW219654  13.040   7.500   6.988
 5939SOL     OW19655  13.021   8.784  14.525
 5939SOL    HW119656  12.985   8.741  14.602
 5939SOL    HW219657  12.994   8.876  14.533
 5940SOL     OW19658  12.754   7.281   8.685
 5940SOL    HW119659  12.763   7.210   8.749
 5940SOL    HW219660  12.764   7.239   8.600
 5941SOL     OW19661   3.597   1.191   2.666
 5941SOL    HW119662   3.541   1.202   2.742
 5941SOL    HW219663   3.684   1.219   2.696
 5942SOL     OW19664   9.762   2.071   5.509
 5942SOL    HW119665   9.811   2.153   5.495
 5942SOL    HW219666   9.819   2.018   5.565
 5943SOL     OW19667   3.161   3.028   5.669
 5943SOL    HW119668   3.084   2.972   5.676
 5943SOL    HW219669   3.143   3.084   5.593
 5944SOL     OW19670  13.770   1.358  11.960
 5944SOL    HW119671  13.845   1.417  11.952
 5944SOL    HW219672  13.800   1.289  12.020
 5945SOL     OW19673  11.130   4.063   2.149
 5945SOL    HW119674  11.102   4.143   2.193
 5945SOL    HW219675  11.218   4.082   2.118
 5946SOL     OW19676   0.769   5.472  14.866
 5946SOL    HW119677   0.861   5.491  14.847
 5946SOL    HW219678   0.739   5.546   0.039
 5947SOL     OW19679  12.860  12.744   2.169
 5947SOL    HW119680  12.875  12.774   2.079
 5947SOL    HW219681  12.934  12.779   2.219
 5948SOL     OW19682  14.838  14.505  13.095
 5948SOL    HW119683  14.777  14.499  13.022
 5948SOL    HW219684   0.031  14.449  13.071
 5949SOL     OW19685   9.854   3.594  14.572
 5949SOL    HW119686   9.910   3.580  14.648
 5949SOL    HW219687   9.775   3.542  14.591
 5950SOL     OW19688   7.552   6.976   1.406
 5950SOL    HW119689   7.561   7.071   1.407
 5950SOL    HW219690   7.545   6.954   1.313
 5951SOL     OW19691   5.517   6.750   2.881
 5951SOL    HW119692   5.429   6.787   2.875
 5951SOL    HW219693   5.552   6.783   2.964
 5952SOL     OW19694   9.143   6.885   3.733
 5952SOL    HW119695   9.056   6.846   3.740
 5952SOL    HW219696   9.169   6.868   3.643
 5953SOL     OW19697   1.729   8.742   1.904
 5953SOL    HW119698   1.705   8.688   1.979
 5953SOL    HW219699   1.657   8.803   1.894
 5954SOL     OW19700  10.237   4.214   3.786
 5954SOL    HW119701  10.225   4.180   3.875
 5954SOL    HW219702  10.332   4.210   3.772
 5955SOL     OW19703   5.451   1.748   8.741
 5955SOL    HW119704   5.440   1.741   8.836
 5955SOL    HW219705   5.426   1.838   8.721
 5956SOL     OW19706  11.982   0.948   9.558
 5956SOL    HW119707  11.898   0.981   9.524
 5956SOL    HW219708  11.961   0.919   9.647
 5957SOL     OW19709  10.811  12.544   2.176
 5957SOL    HW119710  10.742  12.481   2.195
 5957SOL    HW219711  10.867  12.541   2.254
 5958SOL     OW19712   3.674  14.278   8.488
 5958SOL    HW119713   3.585  14.243   8.495
 5958SOL    HW219714   3.690  14.320   8.572
 5959SOL     OW19715   7.771   9.674   6.372
 5959SOL    HW119716   7.745   9.626   6.450
 5959SOL    HW219717   7.792   9.762   6.403
 5960SOL     OW19718   2.792   9.957  13.345
 5960SOL    HW119719   2.742   9.876  13.347
 5960SOL    HW219720   2.848   9.950  13.268
 5961SOL     OW19721  10.656  10.936   4.439
 5961SOL    HW119722  10.673  10.909   4.349
 5961SOL    HW219723  10.597  11.011   4.429
 5962SOL     OW19724   3.294   7.134   4.658
 5962SOL    HW119725   3.229   7.194   4.694
 5962SOL    HW219726   3.377   7.163   4.695
 5963SOL     OW19727   6.635   3.699   4.230
 5963SOL    HW119728   6.685   3.634   4.279
 5963SOL    HW219729   6.673   3.783   4.255
 5964SOL     OW19730  11.443   5.728   3.123
 5964SOL    HW119731  11.507   5.688   3.183
 5964SOL    HW219732  11.399   5.653   3.083
 5965SOL     OW19733   4.667   3.963   4.643
 5965SOL    HW119734   4.655   3.972   4.548
 5965SOL    HW219735   4.661   3.869   4.659
 5966SOL     OW19736   0.044   9.845  11.587
 5966SOL    HW119737  14.836   9.808  11.574
 5966SOL    HW219738   0.094   9.818  11.510
 5967SOL     OW19739  11.679   7.734  13.662
 5967SOL    HW119740  11.624   7.662  13.692
 5967SOL    HW219741  11.648   7.753  13.573
 5968SOL     OW19742  12.055  12.545  13.473
 5968SOL    HW119743  12.058  12.636  13.505
 5968SOL    HW219744  12.115  12.498  13.530
 5969SOL     OW19745   5.979  13.687   6.039
 5969SOL    HW119746   6.019  13.633   6.108
 5969SOL    HW219747   5.991  13.636   5.959
 5970SOL     OW19748  14.594   1.826   7.466
 5970SOL    HW119749  14.568   1.819   7.558
 5970SOL    HW219750  14.664   1.762   7.456
 5971SOL     OW19751   8.678   1.959   8.400
 5971SOL    HW119752   8.699   1.887   8.341
 5971SOL    HW219753   8.672   2.036   8.344
 5972SOL     OW19754   1.380   9.675   5.664
 5972SOL    HW119755   1.427   9.649   5.743
 5972SOL    HW219756   1.377   9.596   5.610
 5973SOL     OW19757   2.438   7.911   0.184
 5973SOL    HW119758   2.512   7.875   0.133
 5973SOL    HW219759   2.441   7.864   0.267
 5974SOL     OW19760   5.967   5.711   8.603
 5974SOL    HW119761   6.034   5.757   8.552
 5974SOL    HW219762   5.913   5.667   8.537
 5975SOL     OW19763   2.147   2.871   7.921
 5975SOL    HW119764   2.140   2.799   7.984
 5975SOL    HW219765   2.241   2.881   7.906
 5976SOL     OW19766   0.617   6.501  12.161
 5976SOL    HW119767   0.640   6.457  12.080
 5976SOL    HW219768   0.700   6.517  12.205
 5977SOL     OW19769   2.165   5.244  10.022
 5977SOL    HW119770   2.257   5.267  10.028
 5977SOL    HW219771   2.119   5.320  10.056
 5978SOL     OW19772  10.581  14.416  14.661
 5978SOL    HW119773  10.626  14.411  14.576
 5978SOL    HW219774  10.640  14.372  14.722
 5979SOL     OW19775  13.289  12.834   2.932
 5979SOL    HW119776  13.210  12.866   2.889
 5979SOL    HW219777  13.256  12.784   3.007
 5980SOL     OW19778   8.407   2.658  14.347
 5980SOL    HW119779   8.335   2.722  14.341
 5980SOL    HW219780   8.366   2.574  14.330
 5981SOL     OW19781  11.862   5.828  11.389
 5981SOL    HW119782  11.823   5.812  11.475
 5981SOL    HW219783  11.934   5.765  11.383
 5982SOL     OW19784   8.954  12.614   7.989
 5982SOL    HW119785   8.915  12.689   8.035
 5982SOL    HW219786   8.973  12.648   7.901
 5983SOL     OW19787  11.281   0.348   0.738
 5983SOL    HW119788  11.257   0.412   0.670
 5983SOL    HW219789  11.214   0.359   0.805
 5984SOL     OW19790  11.698   9.134   2.180
 5984SOL    HW119791  11.741   9.049   2.174
 5984SOL    HW219792  11.758   9.188   2.231
 5985SOL     OW19793   6.615  14.106   8.216
 5985SOL    HW119794   6.606  14.014   8.242
 5985SOL    HW219795   6.568  14.112   8.133
 5986SOL     OW19796   0.117   1.779   3.622
 5986SOL    HW119797   0.055   1.780   3.695
 5986SOL    HW219798   0.191   1.729   3.655
 5987SOL     OW19799   5.416   4.968   5.040
 5987SOL    HW119800   5.507   4.944   5.023
 5987SOL    HW219801   5.418   5.014   5.124
 5988SOL     OW19802   3.366   9.408   3.176
 5988SOL    HW119803   3.430   9.428   3.108
 5988SOL    HW219804   3.330   9.494   3.201
 5989SOL     OW19805   3.885   9.895   3.080
 5989SOL    HW119806   3.931   9.928   3.158
 5989SOL    HW219807   3.795   9.926   3.090
 5990SOL     OW19808   5.439  13.387   6.436
 5990SOL    HW119809   5.473  13.442   6.365
 5990SOL    HW219810   5.383  13.445   6.487
 5991SOL     OW19811  14.386  13.859  11.391
 5991SOL    HW119812  14.437  13.787  11.427
 5991SOL    HW219813  14.351  13.904  11.468
 5992SOL     OW19814   5.956   1.889   2.308
 5992SOL    HW119815   5.971   1.814   2.250
 5992SOL    HW219816   5.861   1.895   2.315
 5993SOL     OW19817   7.980   5.479   1.289
 5993SOL    HW119818   7.950   5.399   1.247
 5993SOL    HW219819   7.902   5.516   1.330
 5994SOL     OW19820   7.465   5.278   4.502
 5994SOL    HW119821   7.481   5.298   4.594
 5994SOL    HW219822   7.526   5.207   4.482
 5995SOL     OW19823   8.326   0.423   5.318
 5995SOL    HW119824   8.329   0.518   5.324
 5995SOL    HW219825   8.247   0.398   5.368
 5996SOL     OW19826   5.832   4.027  10.398
 5996SOL    HW119827   5.750   4.062  10.362
 5996SOL    HW219828   5.875   4.103  10.437
 5997SOL     OW19829  14.181   3.523   5.481
 5997SOL    HW119830  14.144   3.453   5.534
 5997SOL    HW219831  14.182   3.599   5.539
 5998SOL     OW19832  12.445   3.317   4.056
 5998SOL    HW119833  12.483   3.247   4.109
 5998SOL    HW219834  12.373   3.351   4.109
 5999SOL     OW19835  12.588   4.395   2.944
 5999SOL    HW119836  12.520   4.403   3.011
 5999SOL    HW219837  12.646   4.326   2.976
 6000SOL     OW19838   7.582   3.643   2.287
 6000SOL    HW119839   7.493   3.645   2.252
 6000SOL    HW219840   7.572   3.671   2.378
 6001SOL     OW19841  12.835  12.963  10.945
 6001SOL    HW119842  12.782  12.897  10.992
 6001SOL    HW219843  12.780  13.041  10.946
 6002SOL     OW19844   4.866   2.589   8.218
 6002SOL    HW119845   4.850   2.665   8.274
 6002SOL    HW219846   4.808   2.603   8.143
 6003SOL     OW19847  12.300  12.011   3.148
 6003SOL    HW119848  12.225  12.009   3.208
 6003SOL    HW219849  12.328  12.103   3.148
 6004SOL     OW19850   3.528  10.187   8.445
 6004SOL    HW119851   3.543  10.281   8.434
 6004SOL    HW219852   3.539  10.171   8.538
 6005SOL     OW19853  10.675  13.256   6.162
 6005SOL    HW119854  10.594  13.209   6.140
 6005SOL    HW219855  10.745  13.193   6.143
 6006SOL     OW19856   9.492   5.149  13.401
 6006SOL    HW119857   9.516   5.110  13.485
 6006SOL    HW219858   9.419   5.096  13.370
 6007SOL     OW19859   0.292   1.151   9.281
 6007SOL    HW119860   0.353   1.077   9.289
 6007SOL    HW219861   0.328   1.203   9.209
 6008SOL     OW19862   3.883  10.760  14.613
 6008SOL    HW119863   3.846  10.696  14.553
 6008SOL    HW219864   3.946  10.710  14.665
 6009SOL     OW19865   7.192  10.950  14.856
 6009SOL    HW119866   7.156  10.880   0.032
 6009SOL    HW219867   7.132  10.955  14.782
 6010SOL     OW19868   7.023  11.585   9.055
 6010SOL    HW119869   7.019  11.554   8.965
 6010SOL    HW219870   7.083  11.524   9.098
 6011SOL     OW19871   6.184   9.963   1.287
 6011SOL    HW119872   6.094   9.996   1.282
 6011SOL    HW219873   6.187   9.891   1.225
 6012SOL     OW19874  13.276  12.780  12.502
 6012SOL    HW119875  13.325  12.700  12.482
 6012SOL    HW219876  13.333  12.851  12.472
 6013SOL     OW19877   5.648   4.171   8.762
 6013SOL    HW119878   5.696   4.138   8.838
 6013SOL    HW219879   5.638   4.265   8.779
 6014SOL     OW19880   3.236   7.019   6.069
 6014SOL    HW119881   3.284   6.978   5.997
 6014SOL    HW219882   3.273   7.107   6.075
 6015SOL     OW19883   8.982  12.586  11.907
 6015SOL    HW119884   8.952  12.669  11.870
 6015SOL    HW219885   8.933  12.577  11.989
 6016SOL     OW19886   3.188   4.080   2.048
 6016SOL    HW119887   3.245   4.083   1.971
 6016SOL    HW219888   3.100   4.100   2.014
 6017SOL     OW19889   3.631  10.634   8.083
 6017SOL    HW119890   3.638  10.539   8.074
 6017SOL    HW219891   3.537  10.652   8.076
 6018SOL     OW19892  10.802   6.584   4.546
 6018SOL    HW119893  10.852   6.655   4.507
 6018SOL    HW219894  10.844   6.569   4.631
 6019SOL     OW19895   3.270  12.993  13.701
 6019SOL    HW119896   3.234  13.006  13.788
 6019SOL    HW219897   3.235  13.065  13.648
 6020SOL     OW19898   5.028   0.453   3.949
 6020SOL    HW119899   5.094   0.493   3.893
 6020SOL    HW219900   4.952   0.440   3.891
 6021SOL     OW19901   5.914  10.836   7.698
 6021SOL    HW119902   5.962  10.805   7.775
 6021SOL    HW219903   5.961  10.914   7.670
 6022SOL     OW19904  13.337  14.778   6.297
 6022SOL    HW119905  13.281  14.851   6.272
 6022SOL    HW219906  13.283  14.725   6.356
 6023SOL     OW19907  12.807   1.926   6.464
 6023SOL    HW119908  12.873   1.876   6.513
 6023SOL    HW219909  12.776   1.865   6.397
 6024SOL     OW19910   3.309   0.362  11.366
 6024SOL    HW119911   3.240   0.342  11.430
 6024SOL    HW219912   3.331   0.454  11.382
 6025SOL     OW19913  12.205  12.650   9.331
 6025SOL    HW119914  12.189  12.556   9.322
 6025SOL    HW219915  12.231  12.678   9.243
 6026SOL     OW19916   4.125   2.448   5.837
 6026SOL    HW119917   4.050   2.419   5.888
 6026SOL    HW219918   4.124   2.392   5.759
 6027SOL     OW19919   2.437   8.790   5.625
 6027SOL    HW119920   2.493   8.815   5.699
 6027SOL    HW219921   2.424   8.696   5.636
 6028SOL     OW19922   5.569  12.096   0.555
 6028SOL    HW119923   5.478  12.120   0.533
 6028SOL    HW219924   5.576  12.005   0.528
 6029SOL     OW19925   1.117   1.706   7.142
 6029SOL    HW119926   1.097   1.707   7.048
 6029SOL    HW219927   1.154   1.792   7.159
 6030SOL     OW19928  13.992  12.251   7.532
 6030SOL    HW119929  13.959  12.336   7.562
 6030SOL    HW219930  13.921  12.215   7.478
 6031SOL     OW19931   0.563   4.228  10.121
 6031SOL    HW119932   0.642   4.202  10.073
 6031SOL    HW219933   0.583   4.315  10.155
 6032SOL     OW19934   2.512   7.911   8.196
 6032SOL    HW119935   2.432   7.858   8.198
 6032SOL    HW219936   2.582   7.850   8.217
 6033SOL     OW19937   8.494  10.957  12.383
 6033SOL    HW119938   8.499  11.027  12.318
 6033SOL    HW219939   8.407  10.919  12.371
 6034SOL     OW19940  10.864  12.344   5.116
 6034SOL    HW119941  10.905  12.386   5.040
 6034SOL    HW219942  10.899  12.255   5.116
 6035SOL     OW19943  14.573   1.445   9.193
 6035SOL    HW119944  14.579   1.419   9.101
 6035SOL    HW219945  14.559   1.539   9.191
 6036SOL     OW19946   6.955   7.761  12.174
 6036SOL    HW119947   6.991   7.850  12.173
 6036SOL    HW219948   7.023   7.710  12.219
 6037SOL     OW19949   9.271   6.823  13.910
 6037SOL    HW119950   9.319   6.751  13.868
 6037SOL    HW219951   9.262   6.796  14.001
 6038SOL     OW19952  10.918  13.605   9.279
 6038SOL    HW119953  10.896  13.635   9.367
 6038SOL    HW219954  11.013  13.608   9.275
 6039SOL     OW19955   9.616   0.697  10.324
 6039SOL    HW119956   9.604   0.789  10.302
 6039SOL    HW219957   9.661   0.698  10.409
 6040SOL     OW19958   6.220   5.061   3.991
 6040SOL    HW119959   6.310   5.083   4.016
 6040SOL    HW219960   6.190   5.135   3.939
 6041SOL     OW19961   2.110   2.912   1.418
 6041SOL    HW119962   2.121   2.950   1.505
 6041SOL    HW219963   2.049   2.839   1.431
 6042SOL     OW19964  14.002  13.913   0.959
 6042SOL    HW119965  13.933  13.980   0.955
 6042SOL    HW219966  13.967  13.839   0.911
 6043SOL     OW19967   3.014   5.846   4.946
 6043SOL    HW119968   2.940   5.797   4.910
 6043SOL    HW219969   3.092   5.802   4.911
 6044SOL     OW19970   1.073  11.052   4.256
 6044SOL    HW119971   1.164  11.044   4.283
 6044SOL    HW219972   1.063  11.145   4.233
 6045SOL     OW19973   9.550   3.050   4.206
 6045SOL    HW119974   9.560   3.048   4.301
 6045SOL    HW219975   9.527   3.141   4.186
 6046SOL     OW19976   2.193  12.618   7.115
 6046SOL    HW119977   2.124  12.682   7.098
 6046SOL    HW219978   2.256  12.664   7.170
 6047SOL     OW19979   7.464   5.052  10.848
 6047SOL    HW119980   7.377   5.014  10.862
 6047SOL    HW219981   7.524   4.978  10.852
 6048SOL     OW19982   6.423  10.894   0.607
 6048SOL    HW119983   6.355  10.906   0.541
 6048SOL    HW219984   6.410  10.966   0.669
 6049SOL     OW19985  11.344  13.221  10.640
 6049SOL    HW119986  11.356  13.293  10.701
 6049SOL    HW219987  11.338  13.143  10.696
 6050SOL     OW19988   7.244   1.582   7.555
 6050SOL    HW119989   7.305   1.594   7.628
 6050SOL    HW219990   7.300   1.561   7.481
 6051SOL     OW19991   5.389   4.519   3.560
 6051SOL    HW119992   5.327   4.552   3.625
 6051SOL    HW219993   5.446   4.594   3.541
 6052SOL     OW19994   9.599   3.146   5.019
 6052SOL    HW119995   9.682   3.102   5.039
 6052SOL    HW219996   9.596   3.220   5.080
 6053SOL     OW19997  14.872   1.648   0.384
 6053SOL    HW119998  14.782   1.680   0.378
 6053SOL    HW219999  14.870   1.581   0.452
 6054SOL     OW20000  14.172  11.243  13.169
 6054SOL    HW120001  14.161  11.336  13.191
 6054SOL    HW220002  14.209  11.244  13.080
 6055SOL     OW20003   9.725   9.604   7.839
 6055SOL    HW120004   9.636   9.640   7.849
 6055SOL    HW220005   9.726   9.528   7.897
 6056SOL     OW20006   8.760   6.527   9.963
 6056SOL    HW120007   8.805   6.452   9.923
 6056SOL    HW220008   8.725   6.492  10.045
 6057SOL     OW20009   6.169   9.528   3.641
 6057SOL    HW120010   6.133   9.439   3.635
 6057SOL    HW220011   6.211   9.543   3.557
 6058SOL     OW20012  12.596   5.139   2.047
 6058SOL    HW120013  12.578   5.227   2.014
 6058SOL    HW220014  12.687   5.122   2.023
 6059SOL     OW20015   0.527   7.277   4.210
 6059SOL    HW120016   0.442   7.242   4.236
 6059SOL    HW220017   0.572   7.297   4.292
 6060SOL     OW20018   4.147  13.927  14.180
 6060SOL    HW120019   4.201  14.005  14.194
 6060SOL    HW220020   4.160  13.904  14.088
 6061SOL     OW20021  14.524  13.987  10.091
 6061SOL    HW120022  14.464  13.988  10.016
 6061SOL    HW220023  14.528  14.079  10.119
 6062SOL     OW20024  11.485   5.837  10.017
 6062SOL    HW120025  11.553   5.899  10.044
 6062SOL    HW220026  11.403   5.876  10.048
 6063SOL     OW20027   2.899   9.476   4.659
 6063SOL    HW120028   2.860   9.392   4.685
 6063SOL    HW220029   2.869   9.489   4.570
 6064SOL     OW20030   9.386  12.114   8.099
 6064SOL    HW120031   9.387  12.113   8.003
 6064SOL    HW220032   9.328  12.186   8.121
 6065SOL     OW20033   5.033   2.405   5.909
 6065SOL    HW120034   5.119   2.397   5.869
 6065SOL    HW220035   5.031   2.493   5.947
 6066SOL     OW20036   8.554  10.431  14.044
 6066SOL    HW120037   8.495  10.457  13.973
 6066SOL    HW220038   8.532  10.488  14.117
 6067SOL     OW20039  13.481   2.826   8.993
 6067SOL    HW120040  13.502   2.782   8.910
 6067SOL    HW220041  13.391   2.799   9.011
 6068SOL     OW20042   4.285   4.116   9.186
 6068SOL    HW120043   4.247   4.131   9.272
 6068SOL    HW220044   4.352   4.184   9.177
 6069SOL     OW20045  11.618   9.378   6.636
 6069SOL    HW120046  11.582   9.441   6.573
 6069SOL    HW220047  11.578   9.295   6.610
 6070SOL     OW20048   8.797  10.534   9.893
 6070SOL    HW120049   8.743  10.610   9.871
 6070SOL    HW220050   8.777  10.470   9.825
 6071SOL     OW20051  13.764  12.231   2.407
 6071SOL    HW120052  13.804  12.229   2.320
 6071SOL    HW220053  13.681  12.185   2.397
 6072SOL     OW20054   7.136  14.018   2.225
 6072SOL    HW120055   7.052  14.065   2.229
 6072SOL    HW220056   7.180  14.053   2.147
 6073SOL     OW20057  12.447   7.983   4.831
 6073SOL    HW120058  12.444   8.060   4.887
 6073SOL    HW220059  12.366   7.935   4.852
 6074SOL     OW20060   3.089   9.106   5.326
 6074SOL    HW120061   3.139   9.139   5.401
 6074SOL    HW220062   3.050   9.185   5.287
 6075SOL     OW20063   4.156  12.158   5.828
 6075SOL    HW120064   4.190  12.163   5.739
 6075SOL    HW220065   4.066  12.127   5.818
 6076SOL     OW20066   5.836   7.598   8.169
 6076SOL    HW120067   5.896   7.572   8.099
 6076SOL    HW220068   5.856   7.690   8.185
 6077SOL     OW20069   6.307   6.979   1.305
 6077SOL    HW120070   6.403   6.974   1.300
 6077SOL    HW220071   6.281   7.018   1.222
 6078SOL     OW20072  10.134   3.507  11.014
 6078SOL    HW120073  10.143   3.569  10.942
 6078SOL    HW220074  10.184   3.430  10.987
 6079SOL     OW20075  13.013   1.273   2.626
 6079SOL    HW120076  13.106   1.294   2.634
 6079SOL    HW220077  12.978   1.280   2.715
 6080SOL     OW20078   9.316   0.476   2.773
 6080SOL    HW120079   9.241   0.434   2.815
 6080SOL    HW220080   9.343   0.414   2.705
 6081SOL     OW20081   6.671   9.874  12.048
 6081SOL    HW120082   6.701   9.902  12.134
 6081SOL    HW220083   6.717   9.930  11.986
 6082SOL     OW20084   2.032   4.593   0.612
 6082SOL    HW120085   2.091   4.552   0.549
 6082SOL    HW220086   2.083   4.665   0.649
 6083SOL     OW20087   6.892   5.259  11.792
 6083SOL    HW120088   6.831   5.186  11.782
 6083SOL    HW220089   6.835   5.336  11.797
 6084SOL     OW20090   8.634  10.151   0.510
 6084SOL    HW120091   8.607  10.074   0.559
 6084SOL    HW220092   8.637  10.222   0.574
 6085SOL     OW20093   6.998  13.043   4.295
 6085SOL    HW120094   6.909  13.038   4.328
 6085SOL    HW220095   7.047  12.981   4.348
 6086SOL     OW20096  10.896   1.958   3.060
 6086SOL    HW120097  10.950   2.029   3.026
 6086SOL    HW220098  10.947   1.879   3.043
 6087SOL     OW20099   0.570  11.111  11.213
 6087SOL    HW120100   0.652  11.069  11.187
 6087SOL    HW220101   0.502  11.046  11.196
 6088SOL     OW20102   6.485  11.978   0.546
 6088SOL    HW120103   6.548  12.035   0.502
 6088SOL    HW220104   6.532  11.897   0.561
 6089SOL     OW20105   3.442   2.736  10.599
 6089SOL    HW120106   3.516   2.689  10.637
 6089SOL    HW220107   3.365   2.696  10.639
 6090SOL     OW20108   6.700  13.558  12.198
 6090SOL    HW120109   6.737  13.471  12.211
 6090SOL    HW220110   6.761  13.602  12.138
 6091SOL     OW20111  14.446  14.407  13.928
 6091SOL    HW120112  14.356  14.411  13.960
 6091SOL    HW220113  14.438  14.390  13.834
 6092SOL     OW20114   9.598   3.891   5.306
 6092SOL    HW120115   9.583   3.808   5.352
 6092SOL    HW220116   9.687   3.915   5.329
 6093SOL     OW20117  12.620  10.830   8.791
 6093SOL    HW120118  12.711  10.857   8.785
 6093SOL    HW220119  12.574  10.905   8.829
 6094SOL     OW20120   8.469   2.663   8.675
 6094SOL    HW120121   8.443   2.585   8.724
 6094SOL    HW220122   8.432   2.649   8.587
 6095SOL     OW20123  11.681   4.554  10.487
 6095SOL    HW120124  11.637   4.475  10.456
 6095SOL    HW220125  11.762   4.521  10.527
 6096SOL     OW20126   3.518   3.693  10.554
 6096SOL    HW120127   3.590   3.731  10.503
 6096SOL    HW220128   3.471   3.636  10.492
 6097SOL     OW20129   7.457   4.157   1.828
 6097SOL    HW120130   7.362   4.171   1.831
 6097SOL    HW220131   7.482   4.148   1.919
 6098SOL     OW20132   8.519   2.567   0.655
 6098SOL    HW120133   8.572   2.533   0.583
 6098SOL    HW220134   8.479   2.646   0.620
 6099SOL     OW20135   6.858   3.246   7.792
 6099SOL    HW120136   6.868   3.341   7.780
 6099SOL    HW220137   6.945   3.217   7.819
 6100SOL     OW20138   1.442   5.381   1.010
 6100SOL    HW120139   1.519   5.438   1.003
 6100SOL    HW220140   1.373   5.429   0.964
 6101SOL     OW20141  13.013   0.479  13.838
 6101SOL    HW120142  13.008   0.385  13.856
 6101SOL    HW220143  12.968   0.519  13.912
 6102SOL     OW20144   8.615  12.062   2.709
 6102SOL    HW120145   8.648  11.980   2.672
 6102SOL    HW220146   8.621  12.124   2.636
 6103SOL     OW20147   7.417   6.022   1.174
 6103SOL    HW120148   7.364   6.064   1.107
 6103SOL    HW220149   7.502   6.009   1.132
 6104SOL     OW20150   6.944   9.757   9.283
 6104SOL    HW120151   6.972   9.840   9.244
 6104SOL    HW220152   6.872   9.782   9.342
 6105SOL     OW20153   2.284   9.700   1.446
 6105SOL    HW120154   2.315   9.644   1.517
 6105SOL    HW220155   2.232   9.641   1.391
 6106SOL     OW20156  14.248   6.135  11.404
 6106SOL    HW120157  14.218   6.196  11.338
 6106SOL    HW220158  14.174   6.125  11.464
 6107SOL     OW20159   8.403  11.195   7.103
 6107SOL    HW120160   8.307  11.200   7.100
 6107SOL    HW220161   8.423  11.170   7.193
 6108SOL     OW20162   4.737   0.577   2.645
 6108SOL    HW120163   4.750   0.485   2.668
 6108SOL    HW220164   4.811   0.622   2.684
 6109SOL     OW20165  10.307   8.498   5.123
 6109SOL    HW120166  10.301   8.593   5.121
 6109SOL    HW220167  10.259   8.470   5.045
 6110SOL     OW20168   8.890   2.589   4.766
 6110SOL    HW120169   8.871   2.545   4.683
 6110SOL    HW220170   8.975   2.556   4.793
 6111SOL     OW20171   9.999   5.742  11.073
 6111SOL    HW120172  10.007   5.748  10.977
 6111SOL    HW220173  10.047   5.818  11.105
 6112SOL     OW20174   8.070   9.591   9.448
 6112SOL    HW120175   8.015   9.657   9.489
 6112SOL    HW220176   8.034   9.582   9.360
 6113SOL     OW20177   2.720   1.923   6.742
 6113SOL    HW120178   2.775   1.848   6.719
 6113SOL    HW220179   2.737   1.988   6.674
 6114SOL     OW20180   2.864  10.062   5.959
 6114SOL    HW120181   2.821  10.125   5.900
 6114SOL    HW220182   2.919  10.116   6.015
 6115SOL     OW20183   1.929   4.685   4.364
 6115SOL    HW120184   1.988   4.718   4.296
 6115SOL    HW220185   1.977   4.614   4.406
 6116SOL     OW20186  10.326  11.520   7.747
 6116SOL    HW120187  10.237  11.532   7.714
 6116SOL    HW220188  10.382  11.525   7.670
 6117SOL     OW20189  10.358  12.176   2.994
 6117SOL    HW120190  10.442  12.186   2.949
 6117SOL    HW220191  10.339  12.082   2.990
 6118SOL     OW20192  12.130   4.083   2.099
 6118SOL    HW120193  12.105   3.996   2.069
 6118SOL    HW220194  12.050   4.135   2.094
 6119SOL     OW20195   2.648   3.842   9.857
 6119SOL    HW120196   2.613   3.898   9.927
 6119SOL    HW220197   2.573   3.827   9.799
 6120SOL     OW20198   0.000   1.946   1.811
 6120SOL    HW120199  14.859   2.018   1.871
 6120SOL    HW220200   0.094   1.956   1.793
 6121SOL     OW20201   7.965   0.922   9.150
 6121SOL    HW120202   7.996   0.833   9.162
 6121SOL    HW220203   7.876   0.912   9.114
 6122SOL     OW20204   2.832   5.061   5.052
 6122SOL    HW120205   2.837   5.085   5.144
 6122SOL    HW220206   2.755   5.107   5.019
 6123SOL     OW20207   3.411  11.507   0.214
 6123SOL    HW120208   3.332  11.555   0.237
 6123SOL    HW220209   3.444  11.551   0.135
 6124SOL     OW20210  12.532  11.482  12.541
 6124SOL    HW120211  12.496  11.534  12.468
 6124SOL    HW220212  12.581  11.545  12.594
 6125SOL     OW20213   1.638  10.586   7.177
 6125SOL    HW120214   1.696  10.610   7.249
 6125SOL    HW220215   1.676  10.629   7.100
 6126SOL     OW20216   4.206  11.543  13.879
 6126SOL    HW120217   4.153  11.464  13.869
 6126SOL    HW220218   4.205  11.583  13.792
 6127SOL     OW20219   4.604   4.813   7.552
 6127SOL    HW120220   4.560   4.732   7.523
 6127SOL    HW220221   4.676   4.823   7.490
 6128SOL     OW20222  11.603   1.541   3.578
 6128SOL    HW120223  11.647   1.532   3.493
 6128SOL    HW220224  11.516   1.503   3.564
 6129SOL     OW20225   2.484   9.217  14.507
 6129SOL    HW120226   2.553   9.283  14.520
 6129SOL    HW220227   2.452   9.198  14.595
 6130SOL     OW20228  10.367   7.514  13.069
 6130SOL    HW120229  10.348   7.477  13.155
 6130SOL    HW220230  10.458   7.490  13.052
 6131SOL     OW20231   3.474   6.092   1.372
 6131SOL    HW120232   3.478   6.008   1.417
 6131SOL    HW220233   3.554   6.138   1.399
 6132SOL     OW20234   0.752   2.300   8.326
 6132SOL    HW120235   0.721   2.324   8.239
 6132SOL    HW220236   0.761   2.383   8.372
 6133SOL     OW20237   3.127   6.755  13.927
 6133SOL    HW120238   3.036   6.761  13.958
 6133SOL    HW220239   3.179   6.748  14.007
 6134SOL     OW20240   9.141  12.386  14.617
 6134SOL    HW120241   9.211  12.320  14.623
 6134SOL    HW220242   9.073  12.354  14.676
 6135SOL     OW20243   0.956   7.623   4.154
 6135SOL    HW120244   0.960   7.662   4.067
 6135SOL    HW220245   0.885   7.559   4.148
 6136SOL     OW20246   8.085   0.103   4.691
 6136SOL    HW120247   8.109   0.064   4.775
 6136SOL    HW220248   8.007   0.055   4.663
 6137SOL     OW20249   0.039   9.262   7.604
 6137SOL    HW120250   0.070   9.200   7.539
 6137SOL    HW220251   0.003   9.335   7.553
 6138SOL     OW20252   2.508   6.985   0.815
 6138SOL    HW120253   2.563   7.055   0.779
 6138SOL    HW220254   2.565   6.908   0.816
 6139SOL     OW20255   3.092   5.450   4.376
 6139SOL    HW120256   3.171   5.483   4.419
 6139SOL    HW220257   3.024   5.513   4.397
 6140SOL     OW20258   0.233   0.075   0.997
 6140SOL    HW120259   0.158   0.015   0.990
 6140SOL    HW220260   0.310   0.018   0.995
 6141SOL     OW20261   1.165   5.135   0.048
 6141SOL    HW120262   1.233   5.113   0.111
 6141SOL    HW220263   1.086   5.092   0.082
 6142SOL     OW20264   4.986   5.850   3.514
 6142SOL    HW120265   4.924   5.876   3.582
 6142SOL    HW220266   5.067   5.896   3.536
 6143SOL     OW20267   6.843  11.323   1.816
 6143SOL    HW120268   6.912  11.270   1.858
 6143SOL    HW220269   6.763  11.273   1.830
 6144SOL     OW20270  11.911   2.706   4.930
 6144SOL    HW120271  11.978   2.638   4.921
 6144SOL    HW220272  11.949   2.769   4.991
 6145SOL     OW20273  12.030   4.754  14.592
 6145SOL    HW120274  12.048   4.661  14.606
 6145SOL    HW220275  12.108   4.786  14.546
 6146SOL     OW20276   3.813   6.217   3.936
 6146SOL    HW120277   3.724   6.184   3.931
 6146SOL    HW220278   3.858   6.157   3.995
 6147SOL     OW20279   4.879   1.237   9.336
 6147SOL    HW120280   4.789   1.213   9.315
 6147SOL    HW220281   4.927   1.221   9.255
 6148SOL     OW20282  13.911   7.690   5.952
 6148SOL    HW120283  13.907   7.669   5.858
 6148SOL    HW220284  14.004   7.707   5.968
 6149SOL     OW20285  11.389   3.972   6.692
 6149SOL    HW120286  11.423   4.027   6.762
 6149SOL    HW220287  11.454   3.978   6.622
 6150SOL     OW20288  11.625  13.694   0.708
 6150SOL    HW120289  11.682  13.659   0.639
 6150SOL    HW220290  11.590  13.616   0.752
 6151SOL     OW20291   9.941   8.243   6.444
 6151SOL    HW120292   9.923   8.305   6.373
 6151SOL    HW220293   9.854   8.213   6.472
 6152SOL     OW20294   6.916   3.963  12.129
 6152SOL    HW120295   6.937   3.920  12.211
 6152SOL    HW220296   6.963   4.046  12.132
 6153SOL     OW20297  10.404  10.317   1.436
 6153SOL    HW120298  10.323  10.268   1.452
 6153SOL    HW220299  10.464  10.285   1.503
 6154SOL     OW20300   2.770   4.715   2.835
 6154SOL    HW120301   2.751   4.802   2.802
 6154SOL    HW220302   2.692   4.663   2.815
 6155SOL     OW20303   5.645  11.443   5.580
 6155SOL    HW120304   5.717  11.501   5.555
 6155SOL    HW220305   5.680  11.391   5.652
 6156SOL     OW20306   6.919   9.430   2.965
 6156SOL    HW120307   6.988   9.370   2.939
 6156SOL    HW220308   6.946   9.515   2.930
 6157SOL     OW20309   8.548   6.684  13.034
 6157SOL    HW120310   8.479   6.725  12.983
 6157SOL    HW220311   8.617   6.751  13.040
 6158SOL     OW20312  11.501  13.956  11.444
 6158SOL    HW120313  11.506  13.913  11.530
 6158SOL    HW220314  11.545  13.896  11.384
 6159SOL     OW20315   0.609  14.767   7.654
 6159SOL    HW120316   0.594  14.857   7.684
 6159SOL    HW220317   0.534  14.749   7.597
 6160SOL     OW20318   8.876   5.022   0.173
 6160SOL    HW120319   8.865   4.934   0.209
 6160SOL    HW220320   8.825   5.021   0.092
 6161SOL     OW20321   0.793  14.564  14.060
 6161SOL    HW120322   0.734  14.639  14.050
 6161SOL    HW220323   0.739  14.488  14.035
 6162SOL     OW20324   2.305  14.363   3.524
 6162SOL    HW120325   2.259  14.388   3.444
 6162SOL    HW220326   2.254  14.289   3.559
 6163SOL     OW20327  11.248   7.416  12.506
 6163SOL    HW120328  11.223   7.507  12.489
 6163SOL    HW220329  11.333   7.422  12.550
 6164SOL     OW20330   7.155   1.278  11.374
 6164SOL    HW120331   7.113   1.261  11.459
 6164SOL    HW220332   7.248   1.286  11.395
 6165SOL     OW20333   5.969   1.790   7.484
 6165SOL    HW120334   6.062   1.776   7.465
 6165SOL    HW220335   5.963   1.881   7.511
 6166SOL     OW20336   6.719   4.381   0.624
 6166SOL    HW120337   6.716   4.349   0.534
 6166SOL    HW220338   6.751   4.471   0.617
 6167SOL     OW20339  14.188   6.752   2.279
 6167SOL    HW120340  14.104   6.765   2.324
 6167SOL    HW220341  14.250   6.732   2.350
 6168SOL     OW20342  11.799  10.757  10.513
 6168SOL    HW120343  11.743  10.772  10.588
 6168SOL    HW220344  11.784  10.832  10.456
 6169SOL     OW20345   2.031   1.982   7.995
 6169SOL    HW120346   2.039   1.945   8.083
 6169SOL    HW220347   2.022   1.907   7.937
 6170SOL     OW20348  14.531   7.332   4.506
 6170SOL    HW120349  14.557   7.401   4.567
 6170SOL    HW220350  14.600   7.331   4.440
 6171SOL     OW20351  13.701   5.499   3.413
 6171SOL    HW120352  13.778   5.553   3.433
 6171SOL    HW220353  13.732   5.409   3.420
 6172SOL     OW20354  13.350  12.101   0.484
 6172SOL    HW120355  13.439  12.082   0.515
 6172SOL    HW220356  13.295  12.036   0.529
 6173SOL     OW20357   4.299   3.676   3.348
 6173SOL    HW120358   4.243   3.662   3.272
 6173SOL    HW220359   4.382   3.634   3.326
 6174SOL     OW20360   3.786   9.886   6.418
 6174SOL    HW120361   3.738   9.960   6.455
 6174SOL    HW220362   3.767   9.889   6.324
 6175SOL     OW20363  12.339   1.756  12.492
 6175SOL    HW120364  12.400   1.774  12.420
 6175SOL    HW220365  12.383   1.689  12.544
 6176SOL     OW20366  10.523   2.474  12.579
 6176SOL    HW120367  10.596   2.489  12.639
 6176SOL    HW220368  10.449   2.455  12.636
 6177SOL     OW20369   9.040   8.577   6.718
 6177SOL    HW120370   8.960   8.553   6.670
 6177SOL    HW220371   9.008   8.618   6.798
 6178SOL     OW20372   7.032   4.534   5.537
 6178SOL    HW120373   7.028   4.456   5.591
 6178SOL    HW220374   7.104   4.518   5.476
 6179SOL     OW20375   2.907   7.410  12.948
 6179SOL    HW120376   2.828   7.459  12.970
 6179SOL    HW220377   2.954   7.465  12.886
 6180SOL     OW20378   3.638  11.778   8.179
 6180SOL    HW120379   3.631  11.819   8.265
 6180SOL    HW220380   3.554  11.735   8.165
 6181SOL     OW20381  10.300   6.385  14.462
 6181SOL    HW120382  10.269   6.476  14.461
 6181SOL    HW220383  10.341   6.373  14.376
 6182SOL     OW20384  12.052  13.373   9.913
 6182SOL    HW120385  12.064  13.387   9.819
 6182SOL    HW220386  12.042  13.461   9.949
 6183SOL     OW20387   7.426  12.860   6.825
 6183SOL    HW120388   7.376  12.884   6.748
 6183SOL    HW220389   7.371  12.885   6.899
 6184SOL     OW20390   5.736  13.946  10.366
 6184SOL    HW120391   5.716  14.027  10.413
 6184SOL    HW220392   5.830  13.935  10.376
 6185SOL     OW20393  13.883   6.767   9.815
 6185SOL    HW120394  13.859   6.772   9.722
 6185SOL    HW220395  13.851   6.682   9.844
 6186SOL     OW20396   4.165  13.777  10.953
 6186SOL    HW120397   4.084  13.736  10.924
 6186SOL    HW220398   4.136  13.850  11.008
 6187SOL     OW20399  13.442   6.212  13.525
 6187SOL    HW120400  13.440   6.242  13.616
 6187SOL    HW220401  13.471   6.288  13.474
 6188SOL     OW20402   6.824  12.803  10.296
 6188SOL    HW120403   6.834  12.881  10.350
 6188SOL    HW220404   6.913  12.775  10.277
 6189SOL     OW20405   3.531   0.772  11.278
 6189SOL    HW120406   3.561   0.815  11.197
 6189SOL    HW220407   3.591   0.803  11.345
 6190SOL     OW20408   5.247  14.746  12.992
 6190SOL    HW120409   5.293  14.830  13.003
 6190SOL    HW220410   5.229  14.741  12.898
 6191SOL     OW20411   3.331   7.890   0.284
 6191SOL    HW120412   3.397   7.893   0.215
 6191SOL    HW220413   3.280   7.969   0.272
 6192SOL     OW20414   2.426  10.123   9.104
 6192SOL    HW120415   2.385  10.203   9.138
 6192SOL    HW220416   2.509  10.154   9.067
 6193SOL     OW20417   3.633   0.611   2.541
 6193SOL    HW120418   3.621   0.705   2.557
 6193SOL    HW220419   3.546   0.580   2.518
 6194SOL     OW20420  14.571   4.276   4.441
 6194SOL    HW120421  14.530   4.216   4.503
 6194SOL    HW220422  14.506   4.289   4.372
 6195SOL     OW20423   2.220   3.107   4.570
 6195SOL    HW120424   2.279   3.094   4.495
 6195SOL    HW220425   2.201   3.201   4.569
 6196SOL     OW20426   4.981   4.991   0.146
 6196SOL    HW120427   5.048   5.059   0.158
 6196SOL    HW220428   4.907   5.023   0.197
 6197SOL     OW20429   8.535   2.015  10.335
 6197SOL    HW120430   8.538   2.089  10.396
 6197SOL    HW220431   8.626   1.992  10.320
 6198SOL     OW20432  13.910   3.769   6.511
 6198SOL    HW120433  13.978   3.827   6.545
 6198SOL    HW220434  13.956   3.710   6.451
 6199SOL     OW20435   6.684   0.075   4.146
 6199SOL    HW120436   6.757   0.126   4.114
 6199SOL    HW220437   6.719  14.866   4.157
 6200SOL     OW20438   6.343   1.333   7.841
 6200SOL    HW120439   6.404   1.399   7.874
 6200SOL    HW220440   6.261   1.380   7.830
 6201SOL     OW20441   6.163   5.888   4.941
 6201SOL    HW120442   6.099   5.905   5.011
 6201SOL    HW220443   6.208   5.972   4.930
 6202SOL     OW20444   2.064   9.970  10.598
 6202SOL    HW120445   2.006  10.010  10.664
 6202SOL    HW220446   2.092   9.887  10.638
 6203SOL     OW20447  13.552   3.075  10.002
 6203SOL    HW120448  13.488   3.092  10.071
 6203SOL    HW220449  13.580   3.162   9.973
 6204SOL     OW20450   0.087   5.370   3.245
 6204SOL    HW120451   0.066   5.358   3.153
 6204SOL    HW220452   0.003   5.368   3.290
 6205SOL     OW20453   5.471   3.775   5.907
 6205SOL    HW120454   5.402   3.821   5.954
 6205SOL    HW220455   5.469   3.811   5.819
 6206SOL     OW20456  12.795   0.019   0.735
 6206SOL    HW120457  12.784   0.108   0.703
 6206SOL    HW220458  12.730  14.848   0.686
 6207SOL     OW20459   5.139   8.163   9.887
 6207SOL    HW120460   5.150   8.068   9.898
 6207SOL    HW220461   5.082   8.172   9.811
 6208SOL     OW20462   4.084   6.350   9.761
 6208SOL    HW120463   4.013   6.303   9.718
 6208SOL    HW220464   4.096   6.303   9.844
 6209SOL     OW20465   4.207   1.193   7.484
 6209SOL    HW120466   4.183   1.277   7.524
 6209SOL    HW220467   4.287   1.213   7.435
 6210SOL     OW20468   9.569   7.022   6.015
 6210SOL    HW120469   9.600   7.080   5.946
 6210SOL    HW220470   9.474   7.035   6.016
 6211SOL     OW20471   5.910   1.157  11.114
 6211SOL    HW120472   5.957   1.204  11.182
 6211SOL    HW220473   5.978   1.124  11.055
 6212SOL     OW20474   6.267  13.709  11.576
 6212SOL    HW120475   6.275  13.803  11.564
 6212SOL    HW220476   6.328  13.688  11.647
 6213SOL     OW20477  11.534   8.876   2.512
 6213SOL    HW120478  11.447   8.844   2.534
 6213SOL    HW220479  11.594   8.808   2.542
 6214SOL     OW20480  10.017   5.814  10.809
 6214SOL    HW120481  10.089   5.809  10.746
 6214SOL    HW220482   9.945   5.767  10.767
 6215SOL     OW20483   2.623  12.861  11.370
 6215SOL    HW120484   2.636  12.830  11.460
 6215SOL    HW220485   2.709  12.890  11.341
 6216SOL     OW20486   5.471   0.265   1.233
 6216SOL    HW120487   5.548   0.304   1.191
 6216SOL    HW220488   5.504   0.231   1.316
 6217SOL     OW20489   6.547   9.422   3.968
 6217SOL    HW120490   6.543   9.428   3.873
 6217SOL    HW220491   6.640   9.430   3.989
 6218SOL     OW20492   9.014   8.447   0.536
 6218SOL    HW120493   9.109   8.438   0.540
 6218SOL    HW220494   8.981   8.375   0.589
 6219SOL     OW20495   2.379  11.218   6.108
 6219SOL    HW120496   2.426  11.144   6.070
 6219SOL    HW220497   2.292  11.183   6.129
 6220SOL     OW20498  12.864   0.408   7.659
 6220SOL    HW120499  12.796   0.378   7.598
 6220SOL    HW220500  12.913   0.329   7.680
 6221SOL     OW20501   7.926  12.052   5.927
 6221SOL    HW120502   7.964  12.084   5.845
 6221SOL    HW220503   8.001  12.039   5.985
 6222SOL     OW20504   8.729   5.311   0.077
 6222SOL    HW120505   8.655   5.288   0.021
 6222SOL    HW220506   8.688   5.344   0.158
 6223SOL     OW20507   8.687   4.540   5.836
 6223SOL    HW120508   8.727   4.482   5.771
 6223SOL    HW220509   8.700   4.495   5.920
 6224SOL     OW20510   0.099   0.920   0.101
 6224SOL    HW120511   0.130   0.919   0.192
 6224SOL    HW220512   0.133   1.002   0.065
 6225SOL     OW20513   6.755  12.168   4.098
 6225SOL    HW120514   6.770  12.117   4.018
 6225SOL    HW220515   6.826  12.142   4.157
 6226SOL     OW20516   0.777   4.639   8.365
 6226SOL    HW120517   0.843   4.667   8.302
 6226SOL    HW220518   0.826   4.609   8.441
 6227SOL     OW20519  14.572   5.145   2.298
 6227SOL    HW120520  14.549   5.196   2.375
 6227SOL    HW220521  14.515   5.179   2.229
 6228SOL     OW20522   4.763   1.402   3.486
 6228SOL    HW120523   4.728   1.433   3.403
 6228SOL    HW220524   4.785   1.482   3.535
 6229SOL     OW20525  12.102  11.860  10.264
 6229SOL    HW120526  12.099  11.766  10.276
 6229SOL    HW220527  12.106  11.896  10.353
 6230SOL     OW20528  10.223   4.583   1.262
 6230SOL    HW120529  10.308   4.622   1.242
 6230SOL    HW220530  10.160   4.655   1.254
 6231SOL     OW20531  14.318  12.891   9.694
 6231SOL    HW120532  14.233  12.848   9.705
 6231SOL    HW220533  14.297  12.984   9.685
 6232SOL     OW20534   4.560   9.555   7.460
 6232SOL    HW120535   4.563   9.459   7.468
 6232SOL    HW220536   4.547   9.571   7.367
 6233SOL     OW20537  14.338   2.834   2.305
 6233SOL    HW120538  14.338   2.830   2.401
 6233SOL    HW220539  14.274   2.902   2.284
 6234SOL     OW20540  14.047  10.381   0.028
 6234SOL    HW120541  14.021  10.421   0.111
 6234SOL    HW220542  14.056  10.454  14.847
 6235SOL     OW20543  12.243  12.401   9.196
 6235SOL    HW120544  12.335  12.400   9.172
 6235SOL    HW220545  12.197  12.380   9.114
 6236SOL     OW20546   0.127   6.941   7.008
 6236SOL    HW120547   0.088   6.865   6.965
 6236SOL    HW220548   0.138   7.005   6.938
 6237SOL     OW20549   8.387   9.309  14.396
 6237SOL    HW120550   8.430   9.393  14.383
 6237SOL    HW220551   8.329   9.300  14.320
 6238SOL     OW20552   4.968  11.075  10.851
 6238SOL    HW120553   4.913  11.148  10.822
 6238SOL    HW220554   4.937  11.001  10.798
 6239SOL     OW20555   1.141   8.167  13.349
 6239SOL    HW120556   1.137   8.184  13.254
 6239SOL    HW220557   1.068   8.218  13.385
 6240SOL     OW20558   8.044  11.899   8.391
 6240SOL    HW120559   8.111  11.852   8.341
 6240SOL    HW220560   8.090  11.974   8.429
 6241SOL     OW20561   5.168  14.556   6.783
 6241SOL    HW120562   5.245  14.541   6.728
 6241SOL    HW220563   5.176  14.647   6.811
 6242SOL     OW20564  14.152   4.252   3.119
 6242SOL    HW120565  14.217   4.199   3.166
 6242SOL    HW220566  14.077   4.255   3.179
 6243SOL     OW20567   5.523   7.609  13.596
 6243SOL    HW120568   5.539   7.533  13.540
 6243SOL    HW220569   5.452   7.656  13.551
 6244SOL     OW20570   4.555  10.742  14.828
 6244SOL    HW120571   4.468  10.763  14.862
 6244SOL    HW220572   4.601  10.701   0.022
 6245SOL     OW20573   2.775   7.823   8.286
 6245SOL    HW120574   2.725   7.783   8.358
 6245SOL    HW220575   2.852   7.860   8.328
 6246SOL     OW20576   4.289   6.646  13.265
 6246SOL    HW120577   4.269   6.575  13.204
 6246SOL    HW220578   4.382   6.635  13.284
 6247SOL     OW20579  14.689  11.014  11.484
 6247SOL    HW120580  14.701  11.005  11.390
 6247SOL    HW220581  14.746  11.087  11.508
 6248SOL     OW20582  10.683   0.746   2.344
 6248SOL    HW120583  10.697   0.778   2.433
 6248SOL    HW220584  10.588   0.737   2.336
 6249SOL     OW20585   4.847   8.455   3.601
 6249SOL    HW120586   4.851   8.385   3.665
 6249SOL    HW220587   4.903   8.524   3.637
 6250SOL     OW20588   8.169   0.258   6.926
 6250SOL    HW120589   8.095   0.317   6.938
 6250SOL    HW220590   8.131   0.179   6.887
 6251SOL     OW20591   7.199   4.536   9.681
 6251SOL    HW120592   7.171   4.619   9.643
 6251SOL    HW220593   7.283   4.554   9.722
 6252SOL     OW20594   2.694  10.736   5.024
 6252SOL    HW120595   2.760  10.681   5.067
 6252SOL    HW220596   2.740  10.818   5.006
 6253SOL     OW20597  12.071   6.886   9.733
 6253SOL    HW120598  12.025   6.916   9.811
 6253SOL    HW220599  12.164   6.897   9.754
 6254SOL     OW20600   4.485  11.098   9.208
 6254SOL    HW120601   4.426  11.169   9.232
 6254SOL    HW220602   4.481  11.094   9.113
 6255SOL     OW20603   5.073   2.313   0.247
 6255SOL    HW120604   4.997   2.300   0.305
 6255SOL    HW220605   5.039   2.366   0.175
 6256SOL     OW20606   7.757   0.742   7.886
 6256SOL    HW120607   7.786   0.668   7.832
 6256SOL    HW220608   7.752   0.815   7.825
 6257SOL     OW20609  10.737   8.439   9.575
 6257SOL    HW120610  10.731   8.520   9.626
 6257SOL    HW220611  10.774   8.375   9.636
 6258SOL     OW20612   8.744   6.633   3.117
 6258SOL    HW120613   8.792   6.637   3.034
 6258SOL    HW220614   8.809   6.599   3.180
 6259SOL     OW20615   5.242  14.512  10.971
 6259SOL    HW120616   5.172  14.568  11.006
 6259SOL    HW220617   5.293  14.570  10.915
 6260SOL     OW20618  14.538   8.976   6.193
 6260SOL    HW120619  14.538   9.065   6.156
 6260SOL    HW220620  14.608   8.931   6.147
 6261SOL     OW20621  12.343   8.678   7.003
 6261SOL    HW120622  12.356   8.660   6.910
 6261SOL    HW220623  12.329   8.773   7.008
 6262SOL     OW20624   0.821  13.812   6.364
 6262SOL    HW120625   0.753  13.750   6.335
 6262SOL    HW220626   0.780  13.898   6.355
 6263SOL     OW20627   5.666   4.405  11.411
 6263SOL    HW120628   5.702   4.316  11.411
 6263SOL    HW220629   5.713   4.449  11.482
 6264SOL     OW20630   7.169  12.764   2.694
 6264SOL    HW120631   7.088  12.745   2.648
 6264SOL    HW220632   7.220  12.817   2.633
 6265SOL     OW20633  10.214   8.660  14.704
 6265SOL    HW120634  10.152   8.594  14.671
 6265SOL    HW220635  10.274   8.610  14.760
 6266SOL     OW20636   2.729  10.416   3.780
 6266SOL    HW120637   2.719  10.507   3.754
 6266SOL    HW220638   2.803  10.417   3.841
 6267SOL     OW20639   0.397  12.972  14.580
 6267SOL    HW120640   0.466  13.037  14.565
 6267SOL    HW220641   0.358  12.957  14.494
 6268SOL     OW20642   3.334  13.488   9.006
 6268SOL    HW120643   3.297  13.401   8.993
 6268SOL    HW220644   3.313  13.509   9.097
 6269SOL     OW20645  10.627   2.558   6.457
 6269SOL    HW120646  10.649   2.604   6.537
 6269SOL    HW220647  10.637   2.623   6.388
 6270SOL     OW20648  13.554   8.314   7.069
 6270SOL    HW120649  13.649   8.311   7.080
 6270SOL    HW220650  13.526   8.224   7.083
 6271SOL     OW20651   7.194  10.796   3.608
 6271SOL    HW120652   7.116  10.761   3.564
 6271SOL    HW220653   7.184  10.768   3.699
 6272SOL     OW20654  10.593   7.683   0.812
 6272SOL    HW120655  10.652   7.671   0.887
 6272SOL    HW220656  10.604   7.603   0.761
 6273SOL     OW20657  10.081   7.953   0.232
 6273SOL    HW120658  10.002   7.969   0.180
 6273SOL    HW220659  10.132   8.033   0.222
 6274SOL     OW20660   1.406   2.806  10.427
 6274SOL    HW120661   1.482   2.747  10.426
 6274SOL    HW220662   1.442   2.891  10.453
 6275SOL     OW20663   2.536   4.967   2.949
 6275SOL    HW120664   2.624   4.955   2.914
 6275SOL    HW220665   2.538   4.924   3.035
 6276SOL     OW20666  14.750   8.865   5.657
 6276SOL    HW120667  14.838   8.842   5.626
 6276SOL    HW220668  14.763   8.943   5.711
 6277SOL     OW20669   7.948   4.077   4.934
 6277SOL    HW120670   7.884   4.147   4.923
 6277SOL    HW220671   7.920   4.031   5.013
 6278SOL     OW20672   1.814  12.994   7.769
 6278SOL    HW120673   1.738  13.005   7.826
 6278SOL    HW220674   1.833  13.082   7.737
 6279SOL     OW20675   1.840  10.331  12.723
 6279SOL    HW120676   1.818  10.349  12.814
 6279SOL    HW220677   1.935  10.341  12.719
 6280SOL     OW20678   6.791   7.019   2.778
 6280SOL    HW120679   6.847   7.079   2.729
 6280SOL    HW220680   6.852   6.959   2.822
 6281SOL     OW20681   2.134   7.782  11.388
 6281SOL    HW120682   2.227   7.783  11.411
 6281SOL    HW220683   2.120   7.864  11.340
 6282SOL     OW20684  11.661  13.826   8.717
 6282SOL    HW120685  11.700  13.902   8.673
 6282SOL    HW220686  11.701  13.750   8.673
 6283SOL     OW20687   2.281   9.676   3.126
 6283SOL    HW120688   2.349   9.667   3.192
 6283SOL    HW220689   2.321   9.642   3.046
 6284SOL     OW20690  10.422   6.522   6.246
 6284SOL    HW120691  10.500   6.539   6.299
 6284SOL    HW220692  10.376   6.606   6.245
 6285SOL     OW20693   0.973   1.873   4.794
 6285SOL    HW120694   1.016   1.835   4.871
 6285SOL    HW220695   0.886   1.898   4.825
 6286SOL     OW20696   7.558   6.535   1.116
 6286SOL    HW120697   7.507   6.514   1.038
 6286SOL    HW220698   7.616   6.460   1.129
 6287SOL     OW20699   6.510   6.042   0.763
 6287SOL    HW120700   6.513   5.947   0.779
 6287SOL    HW220701   6.543   6.081   0.844
 6288SOL     OW20702  12.597   4.209   4.486
 6288SOL    HW120703  12.530   4.225   4.552
 6288SOL    HW220704  12.575   4.268   4.414
 6289SOL     OW20705   3.180   6.610   6.006
 6289SOL    HW120706   3.159   6.674   5.938
 6289SOL    HW220707   3.141   6.647   6.086
 6290SOL     OW20708   1.817  10.542   3.584
 6290SOL    HW120709   1.850  10.507   3.500
 6290SOL    HW220710   1.745  10.484   3.607
 6291SOL     OW20711   8.846  14.476  13.862
 6291SOL    HW120712   8.806  14.478  13.775
 6291SOL    HW220713   8.871  14.567  13.879
 6292SOL     OW20714  10.199   1.287   1.192
 6292SOL    HW120715  10.242   1.368   1.162
 6292SOL    HW220716  10.243   1.267   1.274
 6293SOL     OW20717  12.828  10.531   6.543
 6293SOL    HW120718  12.919  10.542   6.567
 6293SOL    HW220719  12.808  10.605   6.486
 6294SOL     OW20720   1.016   9.247   6.134
 6294SOL    HW120721   0.946   9.255   6.199
 6294SOL    HW220722   1.097   9.250   6.185
 6295SOL     OW20723   2.853  10.661   9.367
 6295SOL    HW120724   2.922  10.599   9.387
 6295SOL    HW220725   2.773  10.609   9.368
 6296SOL     OW20726   8.638   2.662   4.166
 6296SOL    HW120727   8.686   2.684   4.246
 6296SOL    HW220728   8.690   2.594   4.124
 6297SOL     OW20729   5.889   6.560   1.291
 6297SOL    HW120730   5.946   6.631   1.261
 6297SOL    HW220731   5.804   6.579   1.250
 6298SOL     OW20732   1.871  14.805   3.123
 6298SOL    HW120733   1.862  14.855   3.041
 6298SOL    HW220734   1.962  14.776   3.124
 6299SOL     OW20735   7.349  14.427   3.034
 6299SOL    HW120736   7.387  14.460   2.953
 6299SOL    HW220737   7.266  14.387   3.007
 6300SOL     OW20738  11.566   9.610   6.498
 6300SOL    HW120739  11.479   9.649   6.498
 6300SOL    HW220740  11.601   9.629   6.585
 6301SOL     OW20741  13.607   5.067  13.425
 6301SOL    HW120742  13.692   5.035  13.456
 6301SOL    HW220743  13.603   5.038  13.334
 6302SOL     OW20744  11.177  12.894   2.581
 6302SOL    HW120745  11.175  12.850   2.496
 6302SOL    HW220746  11.086  12.922   2.596
 6303SOL     OW20747   9.985   1.956   9.210
 6303SOL    HW120748   9.977   1.877   9.157
 6303SOL    HW220749  10.058   1.938   9.269
 6304SOL     OW20750  11.403   4.381   6.378
 6304SOL    HW120751  11.378   4.360   6.288
 6304SOL    HW220752  11.341   4.333   6.432
 6305SOL     OW20753   6.298   9.961   6.373
 6305SOL    HW120754   6.372   9.944   6.431
 6305SOL    HW220755   6.319  10.044   6.331
 6306SOL     OW20756   1.166   2.694   1.460
 6306SOL    HW120757   1.085   2.707   1.510
 6306SOL    HW220758   1.143   2.717   1.370
 6307SOL     OW20759  12.012   5.086  13.262
 6307SOL    HW120760  12.016   5.182  13.266
 6307SOL    HW220761  12.099   5.060  13.230
 6308SOL     OW20762   4.310   4.793   5.466
 6308SOL    HW120763   4.383   4.840   5.505
 6308SOL    HW220764   4.234   4.816   5.520
 6309SOL     OW20765   9.582  13.614   1.226
 6309SOL    HW120766   9.585  13.706   1.202
 6309SOL    HW220767   9.494  13.586   1.202
 6310SOL     OW20768   9.339  14.106  10.935
 6310SOL    HW120769   9.288  14.124  11.013
 6310SOL    HW220770   9.294  14.153  10.865
 6311SOL     OW20771  13.531   3.042   8.540
 6311SOL    HW120772  13.508   3.066   8.630
 6311SOL    HW220773  13.460   3.076   8.486
 6312SOL     OW20774  10.098   3.650   6.640
 6312SOL    HW120775  10.188   3.681   6.635
 6312SOL    HW220776  10.099   3.584   6.709
 6313SOL     OW20777   9.271  13.234   3.688
 6313SOL    HW120778   9.361  13.227   3.719
 6313SOL    HW220779   9.236  13.145   3.694
 6314SOL     OW20780   1.070   7.560   9.474
 6314SOL    HW120781   1.067   7.519   9.560
 6314SOL    HW220782   0.979   7.558   9.444
 6315SOL     OW20783   1.959   9.326  14.679
 6315SOL    HW120784   2.038   9.322  14.625
 6315SOL    HW220785   1.961   9.246  14.732
 6316SOL     OW20786   4.502   5.481   5.343
 6316SOL    HW120787   4.488   5.570   5.374
 6316SOL    HW220788   4.595   5.465   5.356
 6317SOL     OW20789   7.107   2.742   2.616
 6317SOL    HW120790   7.186   2.704   2.654
 6317SOL    HW220791   7.036   2.711   2.673
 6318SOL     OW20792   3.650   8.960  10.512
 6318SOL    HW120793   3.726   8.902  10.510
 6318SOL    HW220794   3.652   8.999  10.599
 6319SOL     OW20795  10.090   4.502  10.834
 6319SOL    HW120796  10.011   4.480  10.884
 6319SOL    HW220797  10.059   4.512  10.744
 6320SOL     OW20798   5.978  10.055  14.566
 6320SOL    HW120799   5.982  10.047  14.471
 6320SOL    HW220800   5.906   9.998  14.593
 6321SOL     OW20801   0.837   6.629   0.006
 6321SOL    HW120802   0.907   6.602   0.066
 6321SOL    HW220803   0.798   6.706   0.048
 6322SOL     OW20804  11.049   8.937   2.212
 6322SOL    HW120805  10.956   8.919   2.201
 6322SOL    HW220806  11.085   8.857   2.250
 6323SOL     OW20807  14.624  14.252   3.868
 6323SOL    HW120808  14.640  14.212   3.782
 6323SOL    HW220809  14.697  14.222   3.922
 6324SOL     OW20810   7.774   5.331   3.318
 6324SOL    HW120811   7.771   5.235   3.320
 6324SOL    HW220812   7.728   5.354   3.237
 6325SOL     OW20813   3.264  13.715   0.699
 6325SOL    HW120814   3.298  13.627   0.682
 6325SOL    HW220815   3.342  13.768   0.716
 6326SOL     OW20816  11.305   5.697  13.398
 6326SOL    HW120817  11.281   5.788  13.417
 6326SOL    HW220818  11.342   5.701  13.310
 6327SOL     OW20819   3.777   8.692   1.822
 6327SOL    HW120820   3.839   8.705   1.750
 6327SOL    HW220821   3.697   8.736   1.794
 6328SOL     OW20822   1.183  10.433  11.892
 6328SOL    HW120823   1.203  10.339  11.886
 6328SOL    HW220824   1.147  10.444  11.980
 6329SOL     OW20825   8.225   3.392  10.829
 6329SOL    HW120826   8.170   3.353  10.761
 6329SOL    HW220827   8.237   3.322  10.894
 6330SOL     OW20828   7.743   7.231   8.388
 6330SOL    HW120829   7.819   7.289   8.398
 6330SOL    HW220830   7.718   7.239   8.296
 6331SOL     OW20831   2.315   4.098   8.533
 6331SOL    HW120832   2.280   4.084   8.445
 6331SOL    HW220833   2.254   4.159   8.574
 6332SOL     OW20834  10.584   0.436   5.836
 6332SOL    HW120835  10.510   0.406   5.889
 6332SOL    HW220836  10.560   0.524   5.808
 6333SOL     OW20837   2.259   0.964  12.576
 6333SOL    HW120838   2.199   1.038  12.580
 6333SOL    HW220839   2.297   0.959  12.664
 6334SOL     OW20840   1.593   9.191   3.995
 6334SOL    HW120841   1.579   9.270   4.048
 6334SOL    HW220842   1.530   9.127   4.029
 6335SOL     OW20843   3.198   4.025  14.272
 6335SOL    HW120844   3.140   3.955  14.243
 6335SOL    HW220845   3.142   4.080  14.328
 6336SOL     OW20846  10.274   7.387  13.289
 6336SOL    HW120847  10.184   7.380  13.257
 6336SOL    HW220848  10.268   7.447  13.364
 6337SOL     OW20849  12.651   0.043  11.617
 6337SOL    HW120850  12.674  14.852  11.678
 6337SOL    HW220851  12.673   0.008  11.531
 6338SOL     OW20852   8.471  12.444  11.404
 6338SOL    HW120853   8.515  12.413  11.483
 6338SOL    HW220854   8.528  12.514  11.371
 6339SOL     OW20855   4.819   6.276   5.457
 6339SOL    HW120856   4.899   6.322   5.483
 6339SOL    HW220857   4.749   6.338   5.478
 6340SOL     OW20858   5.705   8.172   2.303
 6340SOL    HW120859   5.619   8.194   2.269
 6340SOL    HW220860   5.735   8.252   2.347
 6341SOL     OW20861  10.168   4.174  12.505
 6341SOL    HW120862  10.245   4.128  12.539
 6341SOL    HW220863  10.093   4.126  12.539
 6342SOL     OW20864   8.067  11.974   0.741
 6342SOL    HW120865   8.146  12.002   0.695
 6342SOL    HW220866   7.996  11.989   0.679
 6343SOL     OW20867  13.993  14.347   5.752
 6343SOL    HW120868  13.949  14.419   5.707
 6343SOL    HW220869  14.026  14.386   5.834
 6344SOL     OW20870   4.325   5.495   1.305
 6344SOL    HW120871   4.331   5.512   1.399
 6344SOL    HW220872   4.341   5.580   1.264
 6345SOL     OW20873  14.699   9.633   4.912
 6345SOL    HW120874  14.698   9.718   4.957
 6345SOL    HW220875  14.786   9.629   4.873
 6346SOL     OW20876   5.237   7.647   7.047
 6346SOL    HW120877   5.176   7.630   6.975
 6346SOL    HW220878   5.323   7.650   7.005
 6347SOL     OW20879   0.305   5.703   8.720
 6347SOL    HW120880   0.317   5.778   8.779
 6347SOL    HW220881   0.311   5.740   8.632
 6348SOL     OW20882   7.027   4.214   3.117
 6348SOL    HW120883   7.088   4.224   3.043
 6348SOL    HW220884   7.076   4.246   3.192
 6349SOL     OW20885  13.992   3.122   7.074
 6349SOL    HW120886  13.934   3.195   7.098
 6349SOL    HW220887  13.934   3.047   7.066
 6350SOL     OW20888   0.250  11.881   7.047
 6350SOL    HW120889   0.178  11.924   7.094
 6350SOL    HW220890   0.271  11.804   7.100
 6351SOL     OW20891  12.781  11.996   0.459
 6351SOL    HW120892  12.796  11.939   0.384
 6351SOL    HW220893  12.686  12.010   0.460
 6352SOL     OW20894   9.941  12.045   8.290
 6352SOL    HW120895   9.869  11.996   8.329
 6352SOL    HW220896   9.950  12.007   8.202
 6353SOL     OW20897   7.507   0.223  10.206
 6353SOL    HW120898   7.543   0.227  10.294
 6353SOL    HW220899   7.490   0.314  10.182
 6354SOL     OW20900   8.383   6.028   7.785
 6354SOL    HW120901   8.335   6.058   7.708
 6354SOL    HW220902   8.475   6.034   7.759
 6355SOL     OW20903   5.718   7.732  10.882
 6355SOL    HW120904   5.778   7.806  10.874
 6355SOL    HW220905   5.639   7.760  10.837
 6356SOL     OW20906  12.282   5.648   7.060
 6356SOL    HW120907  12.206   5.705   7.071
 6356SOL    HW220908  12.289   5.636   6.965
 6357SOL     OW20909   1.926  13.512  11.392
 6357SOL    HW120910   1.931  13.575  11.320
 6357SOL    HW220911   1.938  13.427  11.350
 6358SOL     OW20912   6.885  11.933   6.144
 6358SOL    HW120913   6.829  12.010   6.139
 6358SOL    HW220914   6.828  11.861   6.116
 6359SOL     OW20915   0.041   3.087   8.097
 6359SOL    HW120916   0.040   3.183   8.095
 6359SOL    HW220917   0.134   3.064   8.101
 6360SOL     OW20918   8.486   5.022   7.262
 6360SOL    HW120919   8.536   5.047   7.339
 6360SOL    HW220920   8.513   5.084   7.194
 6361SOL     OW20921  14.477   5.839  13.708
 6361SOL    HW120922  14.487   5.919  13.657
 6361SOL    HW220923  14.552   5.837  13.767
 6362SOL     OW20924   4.575   2.367  11.173
 6362SOL    HW120925   4.559   2.379  11.266
 6362SOL    HW220926   4.510   2.422  11.129
 6363SOL     OW20927  11.671   2.736   3.157
 6363SOL    HW120928  11.650   2.654   3.201
 6363SOL    HW220929  11.637   2.804   3.215
 6364SOL     OW20930   2.427   3.188   2.131
 6364SOL    HW120931   2.367   3.262   2.126
 6364SOL    HW220932   2.428   3.151   2.043
 6365SOL     OW20933   6.443   8.106  11.002
 6365SOL    HW120934   6.463   8.093  10.910
 6365SOL    HW220935   6.527   8.128  11.042
 6366SOL     OW20936   9.368   8.527   7.793
 6366SOL    HW120937   9.279   8.556   7.775
 6366SOL    HW220938   9.402   8.590   7.857
 6367SOL     OW20939   6.687   6.448   3.046
 6367SOL    HW120940   6.665   6.453   2.952
 6367SOL    HW220941   6.607   6.479   3.090
 6368SOL     OW20942   1.698   9.866  12.097
 6368SOL    HW120943   1.663   9.790  12.144
 6368SOL    HW220944   1.626   9.895  12.042
 6369SOL     OW20945   8.128   7.229  12.505
 6369SOL    HW120946   8.198   7.165  12.516
 6369SOL    HW220947   8.102   7.220  12.414
 6370SOL     OW20948  13.917  12.039  12.165
 6370SOL    HW120949  13.987  12.072  12.110
 6370SOL    HW220950  13.855  11.998  12.105
 6371SOL     OW20951   4.055   7.424  12.260
 6371SOL    HW120952   3.981   7.457  12.311
 6371SOL    HW220953   4.023   7.422  12.170
 6372SOL     OW20954   3.860   4.851   8.028
 6372SOL    HW120955   3.941   4.881   8.068
 6372SOL    HW220956   3.806   4.823   8.102
 6373SOL     OW20957  14.862   0.133   9.202
 6373SOL    HW120958  14.812   0.177   9.133
 6373SOL    HW220959  14.868   0.198   9.272
 6374SOL     OW20960  14.773   5.777  14.552
 6374SOL    HW120961  14.821   5.849  14.510
 6374SOL    HW220962  14.784   5.703  14.492
 6375SOL     OW20963  13.091  10.846   6.605
 6375SOL    HW120964  13.107  10.903   6.530
 6375SOL    HW220965  13.072  10.906   6.677
 6376SOL     OW20966  10.369   1.764   9.803
 6376SOL    HW120967  10.289   1.785   9.852
 6376SOL    HW220968  10.422   1.844   9.810
 6377SOL     OW20969   6.033   0.726  10.513
 6377SOL    HW120970   6.037   0.639  10.552
 6377SOL    HW220971   6.093   0.779  10.565
 6378SOL     OW20972   0.129   0.178   1.563
 6378SOL    HW120973   0.120   0.117   1.636
 6378SOL    HW220974   0.053   0.235   1.570
 6379SOL     OW20975   8.064   5.397   9.311
 6379SOL    HW120976   8.008   5.363   9.241
 6379SOL    HW220977   8.131   5.330   9.323
 6380SOL     OW20978  13.600   9.560   8.394
 6380SOL    HW120979  13.586   9.564   8.299
 6380SOL    HW220980  13.691   9.533   8.404
 6381SOL     OW20981  11.555   0.250   7.395
 6381SOL    HW120982  11.624   0.317   7.389
 6381SOL    HW220983  11.601   0.168   7.379
 6382SOL     OW20984   3.319  13.997   3.221
 6382SOL    HW120985   3.243  14.040   3.260
 6382SOL    HW220986   3.394  14.040   3.262
 6383SOL     OW20987   2.532   8.389   9.378
 6383SOL    HW120988   2.440   8.377   9.353
 6383SOL    HW220989   2.580   8.391   9.296
 6384SOL     OW20990   8.993  14.850   9.938
 6384SOL    HW120991   9.036   0.055   9.925
 6384SOL    HW220992   9.051  14.786   9.895
 6385SOL     OW20993   7.892   6.791   7.697
 6385SOL    HW120994   7.868   6.699   7.690
 6385SOL    HW220995   7.939   6.797   7.781
 6386SOL     OW20996  11.685  10.078   2.188
 6386SOL    HW120997  11.602  10.062   2.142
 6386SOL    HW220998  11.680  10.169   2.215
 6387SOL     OW20999   3.937   0.134  12.297
 6387SOL    HW121000   3.915   0.214  12.344
 6387SOL    HW221001   4.032   0.129  12.301
 6388SOL     OW21002  11.596  10.303   9.366
 6388SOL    HW121003  11.656  10.256   9.308
 6388SOL    HW221004  11.510  10.293   9.325
 6389SOL     OW21005   5.307   4.478   9.856
 6389SOL    HW121006   5.281   4.570   9.855
 6389SOL    HW221007   5.330   4.460   9.948
 6390SOL     OW21008  14.879   5.091   3.532
 6390SOL    HW121009  14.806   5.118   3.477
 6390SOL    HW221010  14.859   5.001   3.556
 6391SOL     OW21011   2.662   1.909  10.890
 6391SOL    HW121012   2.596   1.843  10.868
 6391SOL    HW221013   2.618   1.968  10.950
 6392SOL     OW21014   5.874  12.276  12.642
 6392SOL    HW121015   5.916  12.334  12.578
 6392SOL    HW221016   5.789  12.317  12.658
 6393SOL     OW21017   7.152   5.655   1.467
 6393SOL    HW121018   7.090   5.593   1.428
 6393SOL    HW221019   7.199   5.692   1.392
 6394SOL     OW21020   5.320   6.058   9.089
 6394SOL    HW121021   5.259   5.995   9.127
 6394SOL    HW221022   5.267   6.135   9.070
 6395SOL     OW21023   5.449   0.216   0.045
 6395SOL    HW121024   5.486   0.304   0.048
 6395SOL    HW221025   5.356   0.228   0.067
 6396SOL     OW21026   0.345   4.416   7.002
 6396SOL    HW121027   0.419   4.361   6.980
 6396SOL    HW221028   0.272   4.355   7.015
 6397SOL     OW21029   0.437   2.142   0.086
 6397SOL    HW121030   0.345   2.164   0.076
 6397SOL    HW221031   0.484   2.221   0.059
 6398SOL     OW21032   7.512   9.743   9.040
 6398SOL    HW121033   7.507   9.836   9.061
 6398SOL    HW221034   7.597   9.715   9.074
 6399SOL     OW21035   8.596   1.453   2.316
 6399SOL    HW121036   8.507   1.424   2.335
 6399SOL    HW221037   8.621   1.403   2.238
 6400SOL     OW21038  14.557   1.621   5.545
 6400SOL    HW121039  14.618   1.624   5.471
 6400SOL    HW221040  14.503   1.699   5.536
 6401SOL     OW21041   9.662   4.849   6.333
 6401SOL    HW121042   9.677   4.941   6.312
 6401SOL    HW221043   9.690   4.840   6.425
 6402SOL     OW21044   2.293  14.739  10.523
 6402SOL    HW121045   2.321  14.772  10.438
 6402SOL    HW221046   2.297  14.816  10.581
 6403SOL     OW21047  10.303  14.840   6.279
 6403SOL    HW121048  10.343  14.815   6.196
 6403SOL    HW221049  10.225  14.784   6.286
 6404SOL     OW21050   5.361   1.565   0.548
 6404SOL    HW121051   5.292   1.579   0.483
 6404SOL    HW221052   5.441   1.552   0.496
 6405SOL     OW21053   6.713   5.806  13.521
 6405SOL    HW121054   6.698   5.716  13.494
 6405SOL    HW221055   6.794   5.803  13.571
 6406SOL     OW21056   6.749   4.047   2.359
 6406SOL    HW121057   6.822   4.024   2.301
 6406SOL    HW221058   6.694   4.105   2.306
 6407SOL     OW21059  11.797   5.749   4.106
 6407SOL    HW121060  11.851   5.814   4.150
 6407SOL    HW221061  11.779   5.787   4.020
 6408SOL     OW21062   0.563  10.726   9.977
 6408SOL    HW121063   0.641  10.725   9.921
 6408SOL    HW221064   0.553  10.635  10.005
 6409SOL     OW21065   5.572   7.961  10.548
 6409SOL    HW121066   5.527   8.028  10.498
 6409SOL    HW221067   5.596   8.004  10.630
 6410SOL     OW21068   4.476   0.976  11.133
 6410SOL    HW121069   4.492   1.070  11.135
 6410SOL    HW221070   4.380   0.968  11.131
 6411SOL     OW21071  13.192   1.747   1.035
 6411SOL    HW121072  13.142   1.745   1.116
 6411SOL    HW221073  13.127   1.757   0.966
 6412SOL     OW21074   9.903   6.744  13.140
 6412SOL    HW121075   9.961   6.761  13.065
 6412SOL    HW221076   9.815   6.757  13.105
 6413SOL     OW21077  12.815   4.248   8.495
 6413SOL    HW121078  12.864   4.277   8.418
 6413SOL    HW221079  12.847   4.303   8.566
 6414SOL     OW21080   7.614   1.543   9.943
 6414SOL    HW121081   7.552   1.595   9.994
 6414SOL    HW221082   7.561   1.476   9.901
 6415SOL     OW21083   5.148  13.553   5.691
 6415SOL    HW121084   5.216  13.619   5.675
 6415SOL    HW221085   5.108  13.539   5.605
 6416SOL     OW21086   7.696   1.246   5.802
 6416SOL    HW121087   7.750   1.171   5.824
 6416SOL    HW221088   7.748   1.322   5.828
 6417SOL     OW21089   1.180  13.919  12.714
 6417SOL    HW121090   1.136  13.994  12.753
 6417SOL    HW221091   1.112  13.852  12.707
 6418SOL     OW21092  13.633  14.103   8.591
 6418SOL    HW121093  13.589  14.129   8.510
 6418SOL    HW221094  13.724  14.128   8.579
 6419SOL     OW21095  13.044   7.194   8.831
 6419SOL    HW121096  13.045   7.184   8.736
 6419SOL    HW221097  12.964   7.150   8.859
 6420SOL     OW21098   1.528   9.377   3.662
 6420SOL    HW121099   1.467   9.313   3.700
 6420SOL    HW221100   1.606   9.371   3.718
 6421SOL     OW21101   2.600   9.645  12.625
 6421SOL    HW121102   2.622   9.732  12.592
 6421SOL    HW221103   2.684   9.607  12.650
 6422SOL     OW21104  13.060  10.332   9.938
 6422SOL    HW121105  13.064  10.292   9.851
 6422SOL    HW221106  13.102  10.418   9.927
 6423SOL     OW21107   8.456  11.171   1.907
 6423SOL    HW121108   8.531  11.115   1.889
 6423SOL    HW221109   8.444  11.166   2.002
 6424SOL     OW21110   9.972   3.724   2.419
 6424SOL    HW121111   9.925   3.688   2.495
 6424SOL    HW221112   9.914   3.709   2.345
 6425SOL     OW21113   3.037   0.332   5.484
 6425SOL    HW121114   2.972   0.403   5.493
 6425SOL    HW221115   2.993   0.267   5.429
 6426SOL     OW21116  11.800   4.827   1.985
 6426SOL    HW121117  11.715   4.848   1.948
 6426SOL    HW221118  11.841   4.912   2.002
 6427SOL     OW21119   3.832  11.310  14.308
 6427SOL    HW121120   3.861  11.386  14.359
 6427SOL    HW221121   3.888  11.311  14.230
 6428SOL     OW21122   5.708  13.915  14.034
 6428SOL    HW121123   5.745  13.968  14.104
 6428SOL    HW221124   5.766  13.838  14.029
 6429SOL     OW21125   8.872  10.337  13.925
 6429SOL    HW121126   8.826  10.419  13.908
 6429SOL    HW221127   8.802  10.272  13.933
 6430SOL     OW21128  13.570   7.502  11.434
 6430SOL    HW121129  13.600   7.490  11.524
 6430SOL    HW221130  13.592   7.419  11.391
 6431SOL     OW21131   0.436   4.882   9.430
 6431SOL    HW121132   0.408   4.939   9.358
 6431SOL    HW221133   0.462   4.942   9.499
 6432SOL     OW21134  10.767   6.105   0.952
 6432SOL    HW121135  10.721   6.078   0.872
 6432SOL    HW221136  10.697   6.121   1.016
 6433SOL     OW21137   3.030   4.105  10.743
 6433SOL    HW121138   2.957   4.153  10.704
 6433SOL    HW221139   3.106   4.130  10.690
 6434SOL     OW21140   6.977  14.142   5.402
 6434SOL    HW121141   7.023  14.066   5.365
 6434SOL    HW221142   6.908  14.161   5.338
 6435SOL     OW21143   7.559   2.400   8.879
 6435SOL    HW121144   7.650   2.379   8.859
 6435SOL    HW221145   7.550   2.492   8.854
 6436SOL     OW21146  12.312  12.256   1.291
 6436SOL    HW121147  12.275  12.173   1.321
 6436SOL    HW221148  12.353  12.293   1.369
 6437SOL     OW21149   2.025  11.454   7.809
 6437SOL    HW121150   2.058  11.465   7.720
 6437SOL    HW221151   1.980  11.536   7.827
 6438SOL     OW21152  11.202   6.006   4.514
 6438SOL    HW121153  11.109   6.013   4.496
 6438SOL    HW221154  11.244   6.062   4.448
 6439SOL     OW21155   8.062   4.642  11.846
 6439SOL    HW121156   7.971   4.663  11.867
 6439SOL    HW221157   8.056   4.574  11.779
 6440SOL     OW21158   0.095   3.482   8.995
 6440SOL    HW121159   0.099   3.522   9.082
 6440SOL    HW221160   0.086   3.556   8.935
 6441SOL     OW21161   1.536  13.064   6.040
 6441SOL    HW121162   1.578  12.998   5.986
 6441SOL    HW221163   1.528  13.023   6.126
 6442SOL     OW21164  13.613   2.681   9.261
 6442SOL    HW121165  13.617   2.769   9.224
 6442SOL    HW221166  13.677   2.631   9.210
 6443SOL     OW21167   3.707   5.078   7.965
 6443SOL    HW121168   3.727   5.146   8.030
 6443SOL    HW221169   3.771   5.010   7.981
 6444SOL     OW21170   7.459   5.158   3.105
 6444SOL    HW121171   7.528   5.224   3.112
 6444SOL    HW221172   7.504   5.079   3.076
 6445SOL     OW21173  10.905   5.623   6.841
 6445SOL    HW121174  10.921   5.617   6.935
 6445SOL    HW221175  10.853   5.703   6.831
 6446SOL     OW21176  12.476  10.285   7.482
 6446SOL    HW121177  12.410  10.340   7.522
 6446SOL    HW221178  12.534  10.345   7.436
 6447SOL     OW21179   4.004   8.883   2.490
 6447SOL    HW121180   3.913   8.894   2.463
 6447SOL    HW221181   4.035   8.809   2.437
 6448SOL     OW21182   3.615   8.339  10.759
 6448SOL    HW121183   3.680   8.363  10.825
 6448SOL    HW221184   3.610   8.243  10.764
 6449SOL     OW21185   7.718   6.681  13.437
 6449SOL    HW121186   7.723   6.766  13.393
 6449SOL    HW221187   7.647   6.692  13.501
 6450SOL     OW21188   9.791   2.896   2.147
 6450SOL    HW121189   9.867   2.932   2.102
 6450SOL    HW221190   9.740   2.973   2.173
 6451SOL     OW21191  14.499  13.365   4.510
 6451SOL    HW121192  14.585  13.395   4.480
 6451SOL    HW221193  14.453  13.445   4.534
 6452SOL     OW21194  12.868  11.704   7.768
 6452SOL    HW121195  12.788  11.716   7.818
 6452SOL    HW221196  12.845  11.640   7.700
 6453SOL     OW21197   0.908   3.632   6.130
 6453SOL    HW121198   0.873   3.576   6.061
 6453SOL    HW221199   0.898   3.582   6.210
 6454SOL     OW21200  11.713   3.698  11.740
 6454SOL    HW121201  11.721   3.793  11.730
 6454SOL    HW221202  11.771   3.662  11.673
 6455SOL     OW21203   8.813  12.949   7.591
 6455SOL    HW121204   8.874  13.023   7.585
 6455SOL    HW221205   8.733  12.987   7.626
 6456SOL     OW21206  14.413   0.929  14.354
 6456SOL    HW121207  14.325   0.891  14.353
 6456SOL    HW221208  14.469   0.860  14.318
 6457SOL     OW21209  11.135   3.405   0.340
 6457SOL    HW121210  11.214   3.353   0.326
 6457SOL    HW221211  11.126   3.456   0.260
 6458SOL     OW21212  13.144   4.221   8.592
 6458SOL    HW121213  13.072   4.162   8.569
 6458SOL    HW221214  13.160   4.271   8.512
 6459SOL     OW21215   7.640  11.266  10.158
 6459SOL    HW121216   7.584  11.331  10.201
 6459SOL    HW221217   7.716  11.258  10.215
 6460SOL     OW21218   2.258   3.288   3.667
 6460SOL    HW121219   2.270   3.196   3.645
 6460SOL    HW221220   2.259   3.290   3.762
 6461SOL     OW21221   3.095  14.119  12.488
 6461SOL    HW121222   3.019  14.076  12.527
 6461SOL    HW221223   3.058  14.177  12.422
 6462SOL     OW21224  14.621   7.228  14.791
 6462SOL    HW121225  14.622   7.284  14.714
 6462SOL    HW221226  14.637   7.288  14.864
 6463SOL     OW21227   7.532  14.526   3.200
 6463SOL    HW121228   7.455  14.499   3.150
 6463SOL    HW221229   7.556  14.611   3.164
 6464SOL     OW21230  12.626   1.935   1.888
 6464SOL    HW121231  12.599   2.017   1.930
 6464SOL    HW221232  12.711   1.955   1.849
 6465SOL     OW21233   4.892   5.665   5.897
 6465SOL    HW121234   4.804   5.698   5.917
 6465SOL    HW221235   4.911   5.700   5.810
 6466SOL     OW21236  14.182   6.111   3.486
 6466SOL    HW121237  14.178   6.135   3.578
 6466SOL    HW221238  14.183   6.015   3.486
 6467SOL     OW21239   5.308   2.436  13.959
 6467SOL    HW121240   5.294   2.516  14.010
 6467SOL    HW221241   5.221   2.399  13.948
 6468SOL     OW21242  12.400  13.096   4.223
 6468SOL    HW121243  12.329  13.147   4.262
 6468SOL    HW221244  12.440  13.049   4.296
 6469SOL     OW21245  10.856  10.004   3.791
 6469SOL    HW121246  10.872  10.050   3.709
 6469SOL    HW221247  10.773   9.958   3.777
 6470SOL     OW21248   7.014   6.405  11.226
 6470SOL    HW121249   7.105   6.378  11.216
 6470SOL    HW221250   7.018   6.490  11.271
 6471SOL     OW21251  13.622   5.231   1.039
 6471SOL    HW121252  13.641   5.255   0.949
 6471SOL    HW221253  13.684   5.283   1.091
 6472SOL     OW21254  14.275   7.560  12.882
 6472SOL    HW121255  14.246   7.619  12.952
 6472SOL    HW221256  14.313   7.485  12.927
 6473SOL     OW21257   2.398   3.645  13.129
 6473SOL    HW121258   2.434   3.635  13.217
 6473SOL    HW221259   2.470   3.623  13.071
 6474SOL     OW21260  13.409   8.593   6.099
 6474SOL    HW121261  13.482   8.632   6.147
 6474SOL    HW221262  13.385   8.661   6.035
 6475SOL     OW21263  10.136   4.358   1.476
 6475SOL    HW121264  10.061   4.300   1.466
 6475SOL    HW221265  10.144   4.403   1.392
 6476SOL     OW21266  14.687  13.279   1.219
 6476SOL    HW121267  14.729  13.310   1.300
 6476SOL    HW221268  14.610  13.231   1.249
 6477SOL     OW21269   4.148  14.352   8.629
 6477SOL    HW121270   4.206  14.378   8.557
 6477SOL    HW221271   4.192  14.276   8.668
 6478SOL     OW21272   9.292   7.368  14.690
 6478SOL    HW121273   9.226   7.362  14.759
 6478SOL    HW221274   9.322   7.278  14.677
 6479SOL     OW21275  13.176   0.294   3.631
 6479SOL    HW121276  13.200   0.377   3.589
 6479SOL    HW221277  13.186   0.228   3.562
 6480SOL     OW21278   0.009   0.849   9.564
 6480SOL    HW121279   0.035   0.941   9.565
 6480SOL    HW221280  14.827   0.842   9.491
 6481SOL     OW21281   1.721   8.345   6.079
 6481SOL    HW121282   1.761   8.261   6.101
 6481SOL    HW221283   1.634   8.342   6.120
 6482SOL     OW21284   0.487   1.884   0.538
 6482SOL    HW121285   0.526   1.798   0.556
 6482SOL    HW221286   0.540   1.921   0.468
 6483SOL     OW21287   8.420   5.416   6.979
 6483SOL    HW121288   8.515   5.420   6.987
 6483SOL    HW221289   8.397   5.497   6.934
 6484SOL     OW21290   8.561  14.668   8.779
 6484SOL    HW121291   8.466  14.674   8.770
 6484SOL    HW221292   8.581  14.575   8.767
 6485SOL     OW21293   9.605  14.201   0.856
 6485SOL    HW121294   9.682  14.228   0.807
 6485SOL    HW221295   9.597  14.266   0.926
 6486SOL     OW21296   6.790   3.500  10.051
 6486SOL    HW121297   6.800   3.572   9.989
 6486SOL    HW221298   6.781   3.422   9.996
 6487SOL     OW21299   2.140   3.119   6.473
 6487SOL    HW121300   2.110   3.184   6.537
 6487SOL    HW221301   2.060   3.086   6.432
 6488SOL     OW21302   4.725   5.688   9.700
 6488SOL    HW121303   4.639   5.649   9.715
 6488SOL    HW221304   4.711   5.782   9.713
 6489SOL     OW21305  11.452  10.892   6.423
 6489SOL    HW121306  11.500  10.809   6.431
 6489SOL    HW221307  11.517  10.959   6.442
 6490SOL     OW21308   5.612   0.346  10.120
 6490SOL    HW121309   5.530   0.298  10.129
 6490SOL    HW221310   5.669   0.311  10.189
 6491SOL     OW21311  12.645   1.609  12.593
 6491SOL    HW121312  12.732   1.578  12.620
 6491SOL    HW221313  12.645   1.600  12.498
 6492SOL     OW21314   0.664   9.413   3.513
 6492SOL    HW121315   0.593   9.412   3.448
 6492SOL    HW221316   0.707   9.497   3.498
 6493SOL     OW21317   0.098   1.931  10.558
 6493SOL    HW121318   0.132   1.841  10.561
 6493SOL    HW221319   0.003   1.920  10.552
 6494SOL     OW21320  12.430   3.201   2.080
 6494SOL    HW121321  12.427   3.199   1.984
 6494SOL    HW221322  12.414   3.110   2.106
 6495SOL     OW21323   7.541   3.878  14.484
 6495SOL    HW121324   7.537   3.792  14.526
 6495SOL    HW221325   7.449   3.900  14.466
 6496SOL     OW21326   4.137   4.504   2.344
 6496SOL    HW121327   4.170   4.463   2.264
 6496SOL    HW221328   4.170   4.594   2.341
 6497SOL     OW21329   9.701  13.854  12.424
 6497SOL    HW121330   9.680  13.773  12.471
 6497SOL    HW221331   9.618  13.881  12.386
 6498SOL     OW21332  10.652   3.723   1.047
 6498SOL    HW121333  10.726   3.715   1.108
 6498SOL    HW221334  10.688   3.768   0.971
 6499SOL     OW21335  13.731   2.022   8.759
 6499SOL    HW121336  13.676   1.973   8.820
 6499SOL    HW221337  13.772   1.956   8.705
 6500SOL     OW21338   4.939  13.039   4.514
 6500SOL    HW121339   5.008  12.992   4.562
 6500SOL    HW221340   4.879  13.068   4.582
 6501SOL     OW21341  10.337  14.671   0.893
 6501SOL    HW121342  10.256  14.709   0.927
 6501SOL    HW221343  10.407  14.721   0.935
 6502SOL     OW21344  12.700   1.594   0.712
 6502SOL    HW121345  12.763   1.534   0.751
 6502SOL    HW221346  12.671   1.550   0.632
 6503SOL     OW21347   4.001   8.337  11.890
 6503SOL    HW121348   4.081   8.365  11.846
 6503SOL    HW221349   3.993   8.244  11.869
 6504SOL     OW21350  10.833   5.379   6.053
 6504SOL    HW121351  10.924   5.366   6.024
 6504SOL    HW221352  10.839   5.446   6.121
 6505SOL     OW21353   1.820   9.123   2.890
 6505SOL    HW121354   1.820   9.028   2.874
 6505SOL    HW221355   1.860   9.133   2.977
 6506SOL     OW21356   3.724   6.881  12.485
 6506SOL    HW121357   3.775   6.962  12.478
 6506SOL    HW221358   3.742   6.834  12.404
 6507SOL     OW21359   1.944  11.944  13.199
 6507SOL    HW121360   1.910  12.030  13.174
 6507SOL    HW221361   1.866  11.891  13.213
 6508SOL     OW21362   7.566  12.784   5.841
 6508SOL    HW121363   7.527  12.706   5.879
 6508SOL    HW221364   7.494  12.827   5.794
 6509SOL     OW21365   9.378   4.404  14.368
 6509SOL    HW121366   9.433   4.385  14.444
 6509SOL    HW221367   9.394   4.331  14.308
 6510SOL     OW21368  10.377   3.028  14.637
 6510SOL    HW121369  10.397   3.090  14.567
 6510SOL    HW221370  10.431   2.952  14.617
 6511SOL     OW21371   1.582  13.998   4.995
 6511SOL    HW121372   1.605  14.031   5.082
 6511SOL    HW221373   1.530  14.068   4.956
 6512SOL     OW21374   7.455  14.287   2.543
 6512SOL    HW121375   7.419  14.241   2.468
 6512SOL    HW221376   7.529  14.336   2.509
 6513SOL     OW21377   3.759   1.018   3.869
 6513SOL    HW121378   3.806   0.937   3.888
 6513SOL    HW221379   3.674   1.008   3.912
 6514SOL     OW21380   9.225  12.229  11.109
 6514SOL    HW121381   9.206  12.232  11.203
 6514SOL    HW221382   9.312  12.268  11.101
 6515SOL     OW21383   3.687   0.458   1.236
 6515SOL    HW121384   3.603   0.427   1.202
 6515SOL    HW221385   3.667   0.543   1.275
 6516SOL     OW21386   3.880  10.020   9.592
 6516SOL    HW121387   3.856  10.090   9.653
 6516SOL    HW221388   3.963   9.985   9.626
 6517SOL     OW21389  12.480  11.114  14.599
 6517SOL    HW121390  12.450  11.202  14.621
 6517SOL    HW221391  12.513  11.122  14.509
 6518SOL     OW21392  10.597   2.578   3.717
 6518SOL    HW121393  10.605   2.483   3.706
 6518SOL    HW221394  10.549   2.607   3.640
 6519SOL     OW21395   3.123  10.023  13.703
 6519SOL    HW121396   3.195  10.009  13.764
 6519SOL    HW221397   3.150   9.977  13.623
 6520SOL     OW21398   0.019   5.085   0.954
 6520SOL    HW121399   0.026   5.169   0.908
 6520SOL    HW221400  14.846   5.030   0.895
 6521SOL     OW21401   5.787   8.210   6.544
 6521SOL    HW121402   5.745   8.126   6.559
 6521SOL    HW221403   5.768   8.261   6.623
 6522SOL     OW21404   3.774   2.637   4.664
 6522SOL    HW121405   3.867   2.654   4.647
 6522SOL    HW221406   3.728   2.705   4.614
 6523SOL     OW21407   9.668   4.838  10.147
 6523SOL    HW121408   9.621   4.830  10.064
 6523SOL    HW221409   9.698   4.749  10.166
 6524SOL     OW21410  12.231   1.794   9.976
 6524SOL    HW121411  12.243   1.714   9.925
 6524SOL    HW221412  12.250   1.768  10.066
 6525SOL     OW21413   5.120   8.994  12.572
 6525SOL    HW121414   5.137   8.900  12.570
 6525SOL    HW221415   5.062   9.010  12.498
 6526SOL     OW21416  13.672   7.350  11.987
 6526SOL    HW121417  13.593   7.300  11.968
 6526SOL    HW221418  13.724   7.346  11.907
 6527SOL     OW21419  11.889  11.407   8.189
 6527SOL    HW121420  11.947  11.378   8.260
 6527SOL    HW221421  11.848  11.327   8.157
 6528SOL     OW21422  13.547   0.865   3.413
 6528SOL    HW121423  13.524   0.944   3.462
 6528SOL    HW221424  13.487   0.798   3.446
 6529SOL     OW21425   8.859  14.420   4.337
 6529SOL    HW121426   8.775  14.387   4.306
 6529SOL    HW221427   8.909  14.439   4.258
 6530SOL     OW21428   1.519  14.839   3.668
 6530SOL    HW121429   1.472  14.761   3.699
 6530SOL    HW221430   1.467  14.870   3.593
 6531SOL     OW21431   8.109   4.340  14.725
 6531SOL    HW121432   8.170   4.353  14.797
 6531SOL    HW221433   8.136   4.405  14.659
 6532SOL     OW21434   0.352  12.072   1.088
 6532SOL    HW121435   0.420  12.139   1.096
 6532SOL    HW221436   0.398  11.995   1.054
 6533SOL     OW21437   0.520   0.081  13.229
 6533SOL    HW121438   0.572   0.161  13.238
 6533SOL    HW221439   0.438   0.102  13.274
 6534SOL     OW21440   0.766   5.336   8.880
 6534SOL    HW121441   0.711   5.258   8.875
 6534SOL    HW221442   0.772   5.355   8.973
 6535SOL     OW21443   9.178   0.440   5.245
 6535SOL    HW121444   9.216   0.479   5.324
 6535SOL    HW221445   9.168   0.514   5.185
 6536SOL     OW21446   7.018  14.319  14.847
 6536SOL    HW121447   6.953  14.252  14.824
 6536SOL    HW221448   7.095  14.297  14.794
 6537SOL     OW21449  13.224   8.810   3.929
 6537SOL    HW121450  13.320   8.804   3.935
 6537SOL    HW221451  13.209   8.879   3.864
 6538SOL     OW21452   1.529   5.519   3.943
 6538SOL    HW121453   1.496   5.609   3.937
 6538SOL    HW221454   1.621   5.529   3.967
 6539SOL     OW21455  14.547  13.978   2.833
 6539SOL    HW121456  14.469  13.935   2.868
 6539SOL    HW221457  14.526  13.997   2.741
 6540SOL     OW21458  14.295   1.201  13.241
 6540SOL    HW121459  14.225   1.207  13.177
 6540SOL    HW221460  14.337   1.117  13.223
 6541SOL     OW21461   3.840   5.021   2.302
 6541SOL    HW121462   3.892   4.942   2.321
 6541SOL    HW221463   3.857   5.079   2.377
 6542SOL     OW21464   1.158  11.058  12.446
 6542SOL    HW121465   1.195  11.146  12.432
 6542SOL    HW221466   1.225  10.998  12.414
 6543SOL     OW21467   4.261   0.966   0.719
 6543SOL    HW121468   4.337   0.988   0.664
 6543SOL    HW221469   4.200   0.922   0.660
 6544SOL     OW21470   7.164   1.347   7.161
 6544SOL    HW121471   7.207   1.280   7.109
 6544SOL    HW221472   7.221   1.424   7.152
 6545SOL     OW21473   7.621   8.570  13.780
 6545SOL    HW121474   7.704   8.539  13.816
 6545SOL    HW221475   7.566   8.492  13.777
 6546SOL     OW21476   6.641   7.441  11.441
 6546SOL    HW121477   6.668   7.529  11.414
 6546SOL    HW221478   6.546   7.447  11.451
 6547SOL     OW21479  12.222   8.313   0.342
 6547SOL    HW121480  12.133   8.278   0.347
 6547SOL    HW221481  12.275   8.242   0.307
 6548SOL     OW21482   4.003   3.529   0.923
 6548SOL    HW121483   3.946   3.454   0.941
 6548SOL    HW221484   3.972   3.597   0.983
 6549SOL     OW21485  11.640   5.761  13.641
 6549SOL    HW121486  11.679   5.824  13.581
 6549SOL    HW221487  11.629   5.682  13.589
 6550SOL     OW21488  12.550   0.000   0.339
 6550SOL    HW121489  12.583   0.090   0.349
 6550SOL    HW221490  12.578  14.854   0.251
 6551SOL     OW21491  11.802   3.683   1.950
 6551SOL    HW121492  11.795   3.592   1.922
 6551SOL    HW221493  11.746   3.731   1.889
 6552SOL     OW21494   6.193   4.208  14.816
 6552SOL    HW121495   6.268   4.148  14.817
 6552SOL    HW221496   6.145   4.187   0.017
 6553SOL     OW21497   1.540   5.014   2.257
 6553SOL    HW121498   1.631   5.041   2.251
 6553SOL    HW221499   1.544   4.922   2.284
 6554SOL     OW21500  12.038   2.327   0.147
 6554SOL    HW121501  11.986   2.395   0.191
 6554SOL    HW221502  12.070   2.369   0.067
 6555SOL     OW21503  12.613  11.505  12.192
 6555SOL    HW121504  12.648  11.584  12.234
 6555SOL    HW221505  12.660  11.433  12.233
 6556SOL     OW21506  11.931  14.339   3.407
 6556SOL    HW121507  12.006  14.399   3.412
 6556SOL    HW221508  11.959  14.272   3.345
 6557SOL     OW21509  10.410   8.967   2.916
 6557SOL    HW121510  10.343   8.916   2.870
 6557SOL    HW221511  10.365   9.004   2.991
 6558SOL     OW21512   1.290  13.935   1.445
 6558SOL    HW121513   1.286  14.028   1.427
 6558SOL    HW221514   1.220  13.920   1.510
 6559SOL     OW21515   9.955   9.915  14.130
 6559SOL    HW121516  10.041   9.951  14.152
 6559SOL    HW221517   9.939   9.945  14.040
 6560SOL     OW21518  12.709   6.903  10.850
 6560SOL    HW121519  12.650   6.978  10.847
 6560SOL    HW221520  12.796   6.941  10.855
 6561SOL     OW21521   3.086   4.849  10.000
 6561SOL    HW121522   3.035   4.914  10.048
 6561SOL    HW221523   3.151   4.901   9.952
 6562SOL     OW21524   5.093   9.587   9.541
 6562SOL    HW121525   5.037   9.634   9.603
 6562SOL    HW221526   5.178   9.631   9.546
 6563SOL     OW21527  10.273  12.701  14.796
 6563SOL    HW121528  10.301  12.743  14.878
 6563SOL    HW221529  10.318  12.617  14.795
 6564SOL     OW21530  14.163   6.862  11.492
 6564SOL    HW121531  14.126   6.794  11.436
 6564SOL    HW221532  14.107   6.862  11.570
 6565SOL     OW21533  10.113  11.515   4.018
 6565SOL    HW121534  10.064  11.433   4.026
 6565SOL    HW221535  10.142  11.533   4.108
 6566SOL     OW21536   0.558   6.189   5.277
 6566SOL    HW121537   0.573   6.171   5.185
 6566SOL    HW221538   0.497   6.263   5.278
 6567SOL     OW21539   5.507   5.702  10.745
 6567SOL    HW121540   5.601   5.699  10.763
 6567SOL    HW221541   5.484   5.795  10.750
 6568SOL     OW21542   1.997   3.635  14.807
 6568SOL    HW121543   1.996   3.718  14.855
 6568SOL    HW221544   1.933   3.580  14.853
 6569SOL     OW21545   5.493  11.740   4.257
 6569SOL    HW121546   5.570  11.710   4.306
 6569SOL    HW221547   5.451  11.660   4.227
 6570SOL     OW21548   0.271   8.896  12.532
 6570SOL    HW121549   0.285   8.925  12.622
 6570SOL    HW221550   0.218   8.965  12.492
 6571SOL     OW21551   4.347   9.509   6.312
 6571SOL    HW121552   4.415   9.568   6.344
 6571SOL    HW221553   4.394   9.432   6.280
 6572SOL     OW21554   8.389  12.263  13.955
 6572SOL    HW121555   8.316  12.320  13.978
 6572SOL    HW221556   8.454  12.321  13.916
 6573SOL     OW21557   0.742  12.882   4.603
 6573SOL    HW121558   0.674  12.934   4.560
 6573SOL    HW221559   0.779  12.828   4.533
 6574SOL     OW21560  14.007   7.951   2.526
 6574SOL    HW121561  14.063   7.893   2.474
 6574SOL    HW221562  14.032   8.039   2.499
 6575SOL     OW21563   8.844   0.798  11.133
 6575SOL    HW121564   8.772   0.847  11.172
 6575SOL    HW221565   8.846   0.826  11.042
 6576SOL     OW21566  11.214  12.179   8.814
 6576SOL    HW121567  11.171  12.160   8.730
 6576SOL    HW221568  11.265  12.101   8.833
 6577SOL     OW21569  11.800   6.414   8.739
 6577SOL    HW121570  11.742   6.467   8.793
 6577SOL    HW221571  11.746   6.339   8.713
 6578SOL     OW21572   2.994   7.931   3.506
 6578SOL    HW121573   2.918   7.958   3.453
 6578SOL    HW221574   3.055   8.004   3.497
 6579SOL     OW21575   1.898   3.102   9.798
 6579SOL    HW121576   1.905   3.168   9.728
 6579SOL    HW221577   1.812   3.062   9.785
 6580SOL     OW21578   8.587   4.622   2.437
 6580SOL    HW121579   8.517   4.657   2.382
 6580SOL    HW221580   8.653   4.692   2.440
 6581SOL     OW21581   6.782  11.422  10.914
 6581SOL    HW121582   6.751  11.505  10.878
 6581SOL    HW221583   6.706  11.364  10.911
 6582SOL     OW21584   0.044   5.847  11.893
 6582SOL    HW121585   0.091   5.772  11.928
 6582SOL    HW221586   0.038   5.830  11.799
 6583SOL     OW21587   7.090  11.172   9.608
 6583SOL    HW121588   7.119  11.262   9.621
 6583SOL    HW221589   7.063  11.168   9.516
 6584SOL     OW21590  13.153  12.619  14.438
 6584SOL    HW121591  13.165  12.709  14.466
 6584SOL    HW221592  13.184  12.617  14.348
 6585SOL     OW21593   1.284   0.136   4.666
 6585SOL    HW121594   1.304   0.115   4.757
 6585SOL    HW221595   1.366   0.171   4.631
 6586SOL     OW21596   1.797   5.389   6.071
 6586SOL    HW121597   1.779   5.452   6.141
 6586SOL    HW221598   1.717   5.389   6.018
 6587SOL     OW21599   4.134   8.252   4.116
 6587SOL    HW121600   4.041   8.261   4.137
 6587SOL    HW221601   4.177   8.315   4.174
 6588SOL     OW21602   5.019  12.229   3.855
 6588SOL    HW121603   5.051  12.271   3.775
 6588SOL    HW221604   5.060  12.280   3.926
 6589SOL     OW21605   1.314  11.243  12.305
 6589SOL    HW121606   1.247  11.261  12.239
 6589SOL    HW221607   1.376  11.184  12.262
 6590SOL     OW21608   2.474   4.769   8.559
 6590SOL    HW121609   2.470   4.789   8.466
 6590SOL    HW221610   2.419   4.691   8.569
 6591SOL     OW21611   7.401   3.552   4.449
 6591SOL    HW121612   7.405   3.504   4.366
 6591SOL    HW221613   7.472   3.616   4.442
 6592SOL     OW21614   2.116  10.171   1.109
 6592SOL    HW121615   2.063  10.235   1.061
 6592SOL    HW221616   2.052  10.115   1.152
 6593SOL     OW21617  14.140   6.593   9.080
 6593SOL    HW121618  14.168   6.571   9.169
 6593SOL    HW221619  14.207   6.653   9.048
 6594SOL     OW21620   1.864   2.877   2.145
 6594SOL    HW121621   1.842   2.801   2.091
 6594SOL    HW221622   1.948   2.855   2.185
 6595SOL     OW21623   9.050   0.530   2.182
 6595SOL    HW121624   9.006   0.533   2.267
 6595SOL    HW221625   9.030   0.615   2.142
 6596SOL     OW21626  13.712   9.987  10.183
 6596SOL    HW121627  13.761  10.067  10.164
 6596SOL    HW221628  13.687   9.953  10.097
 6597SOL     OW21629  10.771   2.050   4.425
 6597SOL    HW121630  10.856   2.015   4.449
 6597SOL    HW221631  10.782   2.081   4.335
 6598SOL     OW21632   0.180   5.189  12.883
 6598SOL    HW121633   0.191   5.284  12.896
 6598SOL    HW221634   0.097   5.169  12.925
 6599SOL     OW21635  14.522  14.623   3.671
 6599SOL    HW121636  14.484  14.605   3.757
 6599SOL    HW221637  14.555  14.712   3.678
 6600SOL     OW21638   6.968   1.441  10.561
 6600SOL    HW121639   7.039   1.496  10.594
 6600SOL    HW221640   6.888   1.484  10.591
 6601SOL     OW21641   6.293  14.207  11.014
 6601SOL    HW121642   6.217  14.193  11.070
 6601SOL    HW221643   6.261  14.264  10.944
 6602SOL     OW21644  11.915  10.882   2.016
 6602SOL    HW121645  11.829  10.864   2.056
 6602SOL    HW221646  11.902  10.964   1.968
 6603SOL     OW21647   2.758   2.656  13.970
 6603SOL    HW121648   2.742   2.670  13.876
 6603SOL    HW221649   2.764   2.561  13.980
 6604SOL     OW21650   0.743   6.303  13.066
 6604SOL    HW121651   0.739   6.332  12.975
 6604SOL    HW221652   0.816   6.240  13.067
 6605SOL     OW21653  14.571   2.498   6.990
 6605SOL    HW121654  14.663   2.470   6.991
 6605SOL    HW221655  14.571   2.580   7.039
 6606SOL     OW21656   1.245   9.610  12.821
 6606SOL    HW121657   1.272   9.622  12.912
 6606SOL    HW221658   1.224   9.517  12.814
 6607SOL     OW21659   0.259   2.881  12.571
 6607SOL    HW121660   0.329   2.931  12.613
 6607SOL    HW221661   0.184   2.941  12.573
 6608SOL     OW21662   9.964   2.703   6.584
 6608SOL    HW121663   9.951   2.717   6.490
 6608SOL    HW221664   9.914   2.624   6.604
 6609SOL     OW21665  13.836   4.535   2.096
 6609SOL    HW121666  13.818   4.507   2.186
 6609SOL    HW221667  13.930   4.519   2.085
 6610SOL     OW21668   5.603   6.859   9.012
 6610SOL    HW121669   5.547   6.930   9.044
 6610SOL    HW221670   5.569   6.781   9.055
 6611SOL     OW21671   4.372  12.396   9.771
 6611SOL    HW121672   4.345  12.415   9.681
 6611SOL    HW221673   4.333  12.467   9.823
 6612SOL     OW21674   7.225   0.312  10.425
 6612SOL    HW121675   7.157   0.278  10.483
 6612SOL    HW221676   7.307   0.295  10.471
 6613SOL     OW21677  10.452   9.466   1.097
 6613SOL    HW121678  10.387   9.437   1.033
 6613SOL    HW221679  10.526   9.407   1.084
 6614SOL     OW21680   7.983  14.441   7.136
 6614SOL    HW121681   8.048  14.372   7.154
 6614SOL    HW221682   7.964  14.479   7.221
 6615SOL     OW21683   0.163   6.488  10.401
 6615SOL    HW121684   0.225   6.523  10.465
 6615SOL    HW221685   0.138   6.402  10.436
 6616SOL     OW21686   5.295   5.439   9.391
 6616SOL    HW121687   5.325   5.420   9.480
 6616SOL    HW221688   5.362   5.495   9.354
 6617SOL     OW21689  13.238   2.689   0.042
 6617SOL    HW121690  13.329   2.689   0.072
 6617SOL    HW221691  13.228   2.773  14.877
 6618SOL     OW21692   2.790  13.786   4.135
 6618SOL    HW121693   2.721  13.779   4.200
 6618SOL    HW221694   2.853  13.717   4.158
 6619SOL     OW21695   9.478  10.760   5.528
 6619SOL    HW121696   9.383  10.763   5.515
 6619SOL    HW221697   9.492  10.682   5.581
 6620SOL     OW21698  14.808   4.626   8.757
 6620SOL    HW121699   0.018   4.642   8.729
 6620SOL    HW221700  14.763   4.709   8.744
 6621SOL     OW21701   6.453  10.020   6.891
 6621SOL    HW121702   6.531  10.033   6.945
 6621SOL    HW221703   6.402   9.954   6.938
 6622SOL     OW21704   6.054  14.541  10.187
 6622SOL    HW121705   5.975  14.587  10.157
 6622SOL    HW221706   6.024  14.487  10.260
 6623SOL     OW21707  12.547   4.002   6.496
 6623SOL    HW121708  12.496   4.013   6.415
 6623SOL    HW221709  12.558   4.090   6.530
 6624SOL     OW21710  11.235   2.549  10.027
 6624SOL    HW121711  11.159   2.529   9.972
 6624SOL    HW221712  11.296   2.478  10.010
 6625SOL     OW21713   4.101   9.612   4.196
 6625SOL    HW121714   4.143   9.689   4.233
 6625SOL    HW221715   4.116   9.617   4.102
 6626SOL     OW21716   2.995   4.079   3.044
 6626SOL    HW121717   3.087   4.087   3.021
 6626SOL    HW221718   2.954   4.037   2.968
 6627SOL     OW21719  10.526  10.004  14.731
 6627SOL    HW121720  10.518  10.061  14.807
 6627SOL    HW221721  10.477   9.926  14.754
 6628SOL     OW21722   1.312  13.030   6.434
 6628SOL    HW121723   1.292  12.966   6.503
 6628SOL    HW221724   1.269  13.110   6.463
 6629SOL     OW21725   7.626   1.407  11.798
 6629SOL    HW121726   7.680   1.348  11.850
 6629SOL    HW221727   7.616   1.485  11.853
 6630SOL     OW21728   3.589   3.981  11.059
 6630SOL    HW121729   3.665   3.981  11.117
 6630SOL    HW221730   3.514   3.990  11.117
 6631SOL     OW21731   5.625   3.837  10.761
 6631SOL    HW121732   5.667   3.844  10.847
 6631SOL    HW221733   5.591   3.925  10.744
 6632SOL     OW21734   0.133  10.508   9.307
 6632SOL    HW121735   0.142  10.561   9.228
 6632SOL    HW221736   0.047  10.467   9.298
 6633SOL     OW21737   8.733  12.226  11.178
 6633SOL    HW121738   8.788  12.253  11.251
 6633SOL    HW221739   8.647  12.209  11.217
 6634SOL     OW21740   4.878  13.851   0.974
 6634SOL    HW121741   4.931  13.830   1.050
 6634SOL    HW221742   4.939  13.849   0.900
 6635SOL     OW21743   0.586   1.594   3.165
 6635SOL    HW121744   0.617   1.671   3.117
 6635SOL    HW221745   0.666   1.552   3.197
 6636SOL     OW21746   8.187   5.205  11.297
 6636SOL    HW121747   8.244   5.282  11.286
 6636SOL    HW221748   8.231   5.152  11.364
 6637SOL     OW21749   3.264   8.731   7.054
 6637SOL    HW121750   3.331   8.690   7.108
 6637SOL    HW221751   3.284   8.825   7.056
 6638SOL     OW21752  12.464   7.067  10.551
 6638SOL    HW121753  12.498   7.071  10.462
 6638SOL    HW221754  12.532   7.107  10.605
 6639SOL     OW21755   3.726   7.495   0.211
 6639SOL    HW121756   3.804   7.501   0.266
 6639SOL    HW221757   3.669   7.566   0.243
 6640SOL     OW21758   6.085   6.909   5.033
 6640SOL    HW121759   6.101   6.975   5.100
 6640SOL    HW221760   5.991   6.915   5.014
 6641SOL     OW21761   8.155   1.657   2.008
 6641SOL    HW121762   8.084   1.718   1.990
 6641SOL    HW221763   8.235   1.707   1.989
 6642SOL     OW21764   3.200   1.163  14.039
 6642SOL    HW121765   3.210   1.107  13.963
 6642SOL    HW221766   3.127   1.125  14.088
 6643SOL     OW21767   0.920  10.279   1.446
 6643SOL    HW121768   1.012  10.260   1.458
 6643SOL    HW221769   0.917  10.374   1.434
 6644SOL     OW21770   8.222  11.985   8.615
 6644SOL    HW121771   8.312  11.955   8.609
 6644SOL    HW221772   8.223  12.052   8.684
 6645SOL     OW21773   4.014  10.631  11.286
 6645SOL    HW121774   4.006  10.536  11.274
 6645SOL    HW221775   4.104  10.644  11.314
 6646SOL     OW21776   3.072  13.071   6.867
 6646SOL    HW121777   3.046  13.139   6.929
 6646SOL    HW221778   3.026  13.094   6.786
 6647SOL     OW21779   3.640   1.359   4.379
 6647SOL    HW121780   3.593   1.419   4.437
 6647SOL    HW221781   3.576   1.338   4.310
 6648SOL     OW21782   0.687  14.647   8.659
 6648SOL    HW121783   0.658  14.677   8.745
 6648SOL    HW221784   0.761  14.589   8.676
 6649SOL     OW21785   2.647  13.911  12.821
 6649SOL    HW121786   2.619  14.000  12.843
 6649SOL    HW221787   2.617  13.896  12.732
 6650SOL     OW21788  13.102   0.978   5.889
 6650SOL    HW121789  13.118   1.063   5.849
 6650SOL    HW221790  13.153   0.979   5.970
 6651SOL     OW21791   9.343   9.859   0.234
 6651SOL    HW121792   9.281   9.815   0.291
 6651SOL    HW221793   9.384   9.789   0.183
 6652SOL     OW21794  13.653  11.050   5.431
 6652SOL    HW121795  13.619  10.963   5.453
 6652SOL    HW221796  13.726  11.033   5.372
 6653SOL     OW21797   5.321  10.524   9.350
 6653SOL    HW121798   5.405  10.478   9.353
 6653SOL    HW221799   5.295  10.522   9.258
 6654SOL     OW21800   9.725   0.249   7.607
 6654SOL    HW121801   9.649   0.199   7.638
 6654SOL    HW221802   9.761   0.196   7.536
 6655SOL     OW21803  14.860   6.971   3.530
 6655SOL    HW121804   0.047   7.020   3.483
 6655SOL    HW221805  14.812   7.036   3.580
 6656SOL     OW21806   3.348  12.971   8.720
 6656SOL    HW121807   3.275  12.986   8.659
 6656SOL    HW221808   3.425  13.001   8.673
 6657SOL     OW21809  14.220  11.377   8.450
 6657SOL    HW121810  14.262  11.457   8.420
 6657SOL    HW221811  14.273  11.306   8.413
 6658SOL     OW21812  10.967   7.312  10.153
 6658SOL    HW121813  11.042   7.253  10.158
 6658SOL    HW221814  10.892   7.256  10.173
 6659SOL     OW21815   1.014  14.388  12.591
 6659SOL    HW121816   0.979  14.463  12.544
 6659SOL    HW221817   0.993  14.406  12.683
 6660SOL     OW21818   0.166   3.653   5.614
 6660SOL    HW121819   0.159   3.730   5.559
 6660SOL    HW221820   0.252   3.616   5.593
 6661SOL     OW21821   0.002   2.395   5.796
 6661SOL    HW121822  14.796   2.434   5.785
 6661SOL    HW221823   0.061   2.452   5.746
 6662SOL     OW21824  10.875   9.228  14.283
 6662SOL    HW121825  10.825   9.183  14.215
 6662SOL    HW221826  10.874   9.168  14.358
 6663SOL     OW21827  13.679   2.003   3.400
 6663SOL    HW121828  13.609   2.010   3.465
 6663SOL    HW221829  13.738   2.074   3.421
 6664SOL     OW21830   5.402  13.896   1.147
 6664SOL    HW121831   5.412  13.951   1.224
 6664SOL    HW221832   5.430  13.951   1.074
 6665SOL     OW21833   7.102   4.368   3.370
 6665SOL    HW121834   7.008   4.354   3.362
 6665SOL    HW221835   7.120   4.364   3.464
 6666SOL     OW21836   3.213  14.867   2.737
 6666SOL    HW121837   3.252   0.040   2.807
 6666SOL    HW221838   3.195   0.051   2.667
 6667SOL     OW21839   7.216  10.200   2.229
 6667SOL    HW121840   7.300  10.206   2.274
 6667SOL    HW221841   7.228  10.129   2.166
 6668SOL     OW21842   2.202   3.083   8.320
 6668SOL    HW121843   2.272   3.019   8.304
 6668SOL    HW221844   2.197   3.133   8.238
 6669SOL     OW21845   6.778  10.108   9.941
 6669SOL    HW121846   6.726  10.188   9.953
 6669SOL    HW221847   6.810  10.114   9.851
 6670SOL     OW21848   3.816   3.721   5.545
 6670SOL    HW121849   3.869   3.719   5.465
 6670SOL    HW221850   3.814   3.813   5.571
 6671SOL     OW21851   3.354   3.372   8.982
 6671SOL    HW121852   3.438   3.418   8.983
 6671SOL    HW221853   3.296   3.428   8.930
 6672SOL     OW21854   8.777  13.170   3.534
 6672SOL    HW121855   8.829  13.250   3.542
 6672SOL    HW221856   8.737  13.158   3.620
 6673SOL     OW21857   7.135   3.538   4.410
 6673SOL    HW121858   7.224   3.537   4.446
 6673SOL    HW221859   7.120   3.630   4.386
 6674SOL     OW21860   0.737   1.821   6.762
 6674SOL    HW121861   0.813   1.870   6.795
 6674SOL    HW221862   0.696   1.880   6.699
 6675SOL     OW21863   1.719   7.603  10.045
 6675SOL    HW121864   1.762   7.676  10.001
 6675SOL    HW221865   1.769   7.591  10.126
 6676SOL     OW21866   3.647  10.101  10.237
 6676SOL    HW121867   3.620  10.063  10.154
 6676SOL    HW221868   3.610  10.190  10.236
 6677SOL     OW21869   7.608   1.738  11.262
 6677SOL    HW121870   7.602   1.707  11.171
 6677SOL    HW221871   7.625   1.658  11.312
 6678SOL     OW21872  11.380   6.861   9.130
 6678SOL    HW121873  11.350   6.950   9.110
 6678SOL    HW221874  11.309   6.823   9.181
 6679SOL     OW21875   6.097  12.889   3.121
 6679SOL    HW121876   6.071  12.964   3.068
 6679SOL    HW221877   6.015  12.854   3.156
 6680SOL     OW21878   7.038  11.741   5.807
 6680SOL    HW121879   7.114  11.799   5.818
 6680SOL    HW221880   7.027  11.701   5.893
 6681SOL     OW21881  11.435   0.133   2.112
 6681SOL    HW121882  11.425   0.204   2.175
 6681SOL    HW221883  11.407   0.170   2.029
 6682SOL     OW21884   8.547   0.545   9.644
 6682SOL    HW121885   8.570   0.509   9.729
 6682SOL    HW221886   8.627   0.590   9.614
 6683SOL     OW21887  12.703   2.334   9.832
 6683SOL    HW121888  12.626   2.391   9.826
 6683SOL    HW221889  12.724   2.332   9.926
 6684SOL     OW21890   3.960   8.294   4.737
 6684SOL    HW121891   3.879   8.277   4.688
 6684SOL    HW221892   3.932   8.339   4.816
 6685SOL     OW21893   6.262   0.416   3.966
 6685SOL    HW121894   6.284   0.323   3.970
 6685SOL    HW221895   6.252   0.443   4.057
 6686SOL     OW21896   4.951  10.794   6.805
 6686SOL    HW121897   4.894  10.798   6.881
 6686SOL    HW221898   4.905  10.843   6.737
 6687SOL     OW21899  10.405   3.761  13.116
 6687SOL    HW121900  10.317   3.779  13.084
 6687SOL    HW221901  10.423   3.671  13.089
 6688SOL     OW21902   0.081   2.172  13.614
 6688SOL    HW121903   0.100   2.184  13.707
 6688SOL    HW221904   0.080   2.077  13.602
 6689SOL     OW21905  11.940  10.706  11.351
 6689SOL    HW121906  11.956  10.617  11.320
 6689SOL    HW221907  12.003  10.719  11.422
 6690SOL     OW21908  12.404  10.678  11.831
 6690SOL    HW121909  12.443  10.590  11.824
 6690SOL    HW221910  12.438  10.725  11.755
 6691SOL     OW21911  13.456   8.448  10.847
 6691SOL    HW121912  13.438   8.369  10.796
 6691SOL    HW221913  13.381   8.455  10.906
 6692SOL     OW21914   4.732  11.743   0.762
 6692SOL    HW121915   4.825  11.722   0.750
 6692SOL    HW221916   4.726  11.836   0.741
 6693SOL     OW21917   8.098   4.806   9.474
 6693SOL    HW121918   8.169   4.764   9.523
 6693SOL    HW221919   8.018   4.774   9.516
 6694SOL     OW21920  13.699  10.290   2.023
 6694SOL    HW121921  13.669  10.207   1.986
 6694SOL    HW221922  13.790  10.274   2.046
 6695SOL     OW21923  11.560  13.776   0.033
 6695SOL    HW121924  11.593  13.824   0.110
 6695SOL    HW221925  11.469  13.804   0.026
 6696SOL     OW21926   9.431  13.003   4.998
 6696SOL    HW121927   9.356  13.056   4.972
 6696SOL    HW221928   9.484  13.060   5.054
 6697SOL     OW21929   6.600  13.558  12.745
 6697SOL    HW121930   6.648  13.569  12.664
 6697SOL    HW221931   6.516  13.521  12.719
 6698SOL     OW21932   7.103   6.658   8.826
 6698SOL    HW121933   7.062   6.723   8.769
 6698SOL    HW221934   7.118   6.582   8.770
 6699SOL     OW21935  13.910   1.148   7.881
 6699SOL    HW121936  13.968   1.222   7.864
 6699SOL    HW221937  13.937   1.082   7.816
 6700SOL     OW21938   4.030   6.053   1.218
 6700SOL    HW121939   4.031   6.072   1.312
 6700SOL    HW221940   3.939   6.063   1.193
 6701SOL     OW21941   8.098  12.251   5.119
 6701SOL    HW121942   8.166  12.202   5.164
 6701SOL    HW221943   8.065  12.192   5.051
 6702SOL     OW21944   3.377   8.153  11.797
 6702SOL    HW121945   3.412   8.080  11.848
 6702SOL    HW221946   3.283   8.152  11.815
 6703SOL     OW21947  12.512   8.001   3.341
 6703SOL    HW121948  12.588   8.003   3.399
 6703SOL    HW221949  12.536   8.057   3.267
 6704SOL     OW21950   7.983   1.253   0.795
 6704SOL    HW121951   7.970   1.238   0.889
 6704SOL    HW221952   7.905   1.217   0.754
 6705SOL     OW21953   0.944  12.568   4.308
 6705SOL    HW121954   1.029  12.526   4.297
 6705SOL    HW221955   0.885  12.496   4.333
 6706SOL     OW21956   9.865  14.537  11.196
 6706SOL    HW121957   9.873  14.555  11.289
 6706SOL    HW221958   9.770  14.534  11.180
 6707SOL     OW21959  12.212  11.183  12.286
 6707SOL    HW121960  12.123  11.205  12.313
 6707SOL    HW221961  12.230  11.099  12.329
 6708SOL     OW21962   0.328  14.115   1.168
 6708SOL    HW121963   0.346  14.031   1.211
 6708SOL    HW221964   0.415  14.150   1.148
 6709SOL     OW21965   7.019   6.912   8.727
 6709SOL    HW121966   7.089   6.913   8.662
 6709SOL    HW221967   6.946   6.957   8.684
 6710SOL     OW21968   3.818   3.189   5.850
 6710SOL    HW121969   3.767   3.112   5.825
 6710SOL    HW221970   3.754   3.248   5.890
 6711SOL     OW21971   2.096   0.113   0.255
 6711SOL    HW121972   2.104   0.167   0.333
 6711SOL    HW221973   2.178   0.127   0.207
 6712SOL     OW21974  13.751   2.061   7.898
 6712SOL    HW121975  13.728   2.140   7.948
 6712SOL    HW221976  13.820   2.020   7.949
 6713SOL     OW21977  10.259   9.301   6.338
 6713SOL    HW121978  10.350   9.322   6.359
 6713SOL    HW221979  10.224   9.261   6.418
 6714SOL     OW21980  12.261   1.513   1.580
 6714SOL    HW121981  12.267   1.543   1.489
 6714SOL    HW221982  12.267   1.593   1.632
 6715SOL     OW21983   3.163   9.496   1.776
 6715SOL    HW121984   3.157   9.583   1.736
 6715SOL    HW221985   3.073   9.469   1.790
 6716SOL     OW21986   8.080   1.285   9.109
 6716SOL    HW121987   8.047   1.205   9.066
 6716SOL    HW221988   8.175   1.277   9.104
 6717SOL     OW21989   9.967   1.647   9.798
 6717SOL    HW121990   9.884   1.684   9.766
 6717SOL    HW221991   9.942   1.568   9.845
 6718SOL     OW21992   8.248   4.758   1.232
 6718SOL    HW121993   8.212   4.845   1.244
 6718SOL    HW221994   8.172   4.699   1.241
 6719SOL     OW21995   2.018   1.937   8.682
 6719SOL    HW121996   2.072   2.006   8.721
 6719SOL    HW221997   1.930   1.955   8.713
 6720SOL     OW21998   8.997  13.803   6.574
 6720SOL    HW121999   9.047  13.839   6.500
 6720SOL    HW222000   9.061  13.750   6.622
 6721SOL     OW22001  13.617  13.876   6.289
 6721SOL    HW122002  13.709  13.850   6.290
 6721SOL    HW222003  13.610  13.942   6.358
 6722SOL     OW22004   5.037   1.531  12.114
 6722SOL    HW122005   5.017   1.506  12.024
 6722SOL    HW222006   5.034   1.627  12.113
 6723SOL     OW22007  10.906   6.171   5.736
 6723SOL    HW122008  10.957   6.222   5.800
 6723SOL    HW222009  10.927   6.212   5.652
 6724SOL     OW22010  10.031   9.570  11.556
 6724SOL    HW122011  10.099   9.585  11.490
 6724SOL    HW222012  10.060   9.491  11.602
 6725SOL     OW22013   6.642   2.779   6.340
 6725SOL    HW122014   6.730   2.743   6.328
 6725SOL    HW222015   6.653   2.849   6.404
 6726SOL     OW22016   2.910   1.961   0.085
 6726SOL    HW122017   2.996   1.990   0.055
 6726SOL    HW222018   2.899   1.874   0.046
 6727SOL     OW22019   9.448   5.723   1.081
 6727SOL    HW122020   9.525   5.758   1.035
 6727SOL    HW222021   9.422   5.793   1.141
 6728SOL     OW22022  14.561   0.190  11.826
 6728SOL    HW122023  14.603   0.213  11.743
 6728SOL    HW222024  14.493   0.257  11.838
 6729SOL     OW22025  10.140  10.537  11.823
 6729SOL    HW122026  10.072  10.483  11.783
 6729SOL    HW222027  10.162  10.491  11.904
 6730SOL     OW22028  12.307   1.190  10.798
 6730SOL    HW122029  12.342   1.205  10.710
 6730SOL    HW222030  12.385   1.190  10.854
 6731SOL     OW22031   5.990  10.914  13.359
 6731SOL    HW122032   5.950  10.867  13.432
 6731SOL    HW222033   6.068  10.862  13.338
 6732SOL     OW22034   3.913   1.504   6.557
 6732SOL    HW122035   3.844   1.506   6.490
 6732SOL    HW222036   3.868   1.471   6.635
 6733SOL     OW22037   6.483  14.593  14.298
 6733SOL    HW122038   6.498  14.500  14.282
 6733SOL    HW222039   6.497  14.635  14.214
 6734SOL     OW22040   3.968   1.455   1.988
 6734SOL    HW122041   3.873   1.443   1.980
 6734SOL    HW222042   3.993   1.398   2.061
 6735SOL     OW22043   4.450  10.334   1.128
 6735SOL    HW122044   4.445  10.254   1.075
 6735SOL    HW222045   4.361  10.371   1.124
 6736SOL     OW22046   4.514   6.163   1.872
 6736SOL    HW122047   4.540   6.089   1.927
 6736SOL    HW222048   4.423   6.146   1.849
 6737SOL     OW22049  12.465   2.885   7.998
 6737SOL    HW122050  12.414   2.805   8.011
 6737SOL    HW222051  12.400   2.953   7.983
 6738SOL     OW22052   4.393   7.197   8.857
 6738SOL    HW122053   4.370   7.286   8.830
 6738SOL    HW222054   4.475   7.178   8.813
 6739SOL     OW22055  13.025   7.364   3.469
 6739SOL    HW122056  12.995   7.441   3.518
 6739SOL    HW222057  12.945   7.318   3.447
 6740SOL     OW22058   9.574  11.823   1.618
 6740SOL    HW122059   9.588  11.837   1.524
 6740SOL    HW222060   9.655  11.781   1.648
 6741SOL     OW22061  10.487   5.389   0.693
 6741SOL    HW122062  10.458   5.331   0.623
 6741SOL    HW222063  10.570   5.352   0.722
 6742SOL     OW22064   1.495  13.733   3.456
 6742SOL    HW122065   1.561  13.799   3.433
 6742SOL    HW222066   1.449  13.716   3.374
 6743SOL     OW22067   3.675   8.585  11.785
 6743SOL    HW122068   3.624   8.512  11.751
 6743SOL    HW222069   3.614   8.634  11.840
 6744SOL     OW22070   8.330   3.689  14.670
 6744SOL    HW122071   8.332   3.785  14.666
 6744SOL    HW222072   8.379   3.660  14.593
 6745SOL     OW22073   6.172   7.547   1.008
 6745SOL    HW122074   6.137   7.591   0.930
 6745SOL    HW222075   6.096   7.536   1.065
 6746SOL     OW22076  14.383   2.004  11.873
 6746SOL    HW122077  14.412   2.004  11.964
 6746SOL    HW222078  14.464   2.000  11.822
 6747SOL     OW22079   6.504   1.738  11.259
 6747SOL    HW122080   6.584   1.714  11.306
 6747SOL    HW222081   6.533   1.766  11.173
 6748SOL     OW22082  13.477   8.508   2.785
 6748SOL    HW122083  13.411   8.542   2.845
 6748SOL    HW222084  13.446   8.419   2.764
 6749SOL     OW22085   5.223  10.864   2.652
 6749SOL    HW122086   5.243  10.847   2.560
 6749SOL    HW222087   5.248  10.955   2.665
 6750SOL     OW22088   7.021   9.500   6.827
 6750SOL    HW122089   7.076   9.560   6.776
 6750SOL    HW222090   6.934   9.508   6.788
 6751SOL     OW22091   3.508   1.352  11.606
 6751SOL    HW122092   3.420   1.321  11.627
 6751SOL    HW222093   3.524   1.320  11.518
 6752SOL     OW22094  13.755  12.594   6.045
 6752SOL    HW122095  13.849  12.577   6.038
 6752SOL    HW222096  13.723  12.584   5.955
 6753SOL     OW22097   7.719   5.304  10.989
 6753SOL    HW122098   7.798   5.335  11.034
 6753SOL    HW222099   7.727   5.209  10.989
 6754SOL     OW22100   9.216   9.689   9.262
 6754SOL    HW122101   9.152   9.621   9.283
 6754SOL    HW222102   9.191   9.764   9.317
 6755SOL     OW22103  10.246  13.113  11.195
 6755SOL    HW122104  10.325  13.064  11.216
 6755SOL    HW222105  10.176  13.067  11.241
 6756SOL     OW22106   9.484   5.228   2.144
 6756SOL    HW122107   9.389   5.233   2.138
 6756SOL    HW222108   9.501   5.165   2.214
 6757SOL     OW22109   2.670   9.544   3.578
 6757SOL    HW122110   2.728   9.610   3.616
 6757SOL    HW222111   2.588   9.553   3.627
 6758SOL     OW22112  14.255   6.160   7.183
 6758SOL    HW122113  14.204   6.239   7.196
 6758SOL    HW222114  14.198   6.103   7.132
 6759SOL     OW22115   7.880   6.074   5.616
 6759SOL    HW122116   7.837   6.151   5.579
 6759SOL    HW222117   7.973   6.099   5.621
 6760SOL     OW22118   8.899   2.836   8.837
 6760SOL    HW122119   8.960   2.852   8.909
 6760SOL    HW222120   8.850   2.758   8.863
 6761SOL     OW22121   8.494  10.544   1.912
 6761SOL    HW122122   8.453  10.617   1.958
 6761SOL    HW222123   8.588  10.560   1.921
 6762SOL     OW22124  12.541   2.851  11.689
 6762SOL    HW122125  12.479   2.879  11.756
 6762SOL    HW222126  12.627   2.875  11.724
 6763SOL     OW22127   3.919  10.696   7.027
 6763SOL    HW122128   3.988  10.734   7.081
 6763SOL    HW222129   3.842  10.695   7.083
 6764SOL     OW22130  13.790   8.428   4.382
 6764SOL    HW122131  13.852   8.382   4.325
 6764SOL    HW222132  13.727   8.468   4.322
 6765SOL     OW22133  14.506  12.911   2.915
 6765SOL    HW122134  14.533  12.962   2.839
 6765SOL    HW222135  14.505  12.974   2.987
 6766SOL     OW22136   0.762   5.630   7.121
 6766SOL    HW122137   0.739   5.540   7.097
 6766SOL    HW222138   0.730   5.641   7.210
 6767SOL     OW22139   5.053  14.787   4.852
 6767SOL    HW122140   5.147  14.789   4.873
 6767SOL    HW222141   5.029  14.695   4.862
 6768SOL     OW22142  10.339   6.390   5.338
 6768SOL    HW122143  10.345   6.476   5.295
 6768SOL    HW222144  10.424   6.349   5.321
 6769SOL     OW22145   5.060  10.852   2.918
 6769SOL    HW122146   5.137  10.824   2.868
 6769SOL    HW222147   5.009  10.904   2.856
 6770SOL     OW22148   4.031   9.625   3.526
 6770SOL    HW122149   4.005   9.687   3.458
 6770SOL    HW222150   4.030   9.540   3.482
 6771SOL     OW22151   7.027  14.337   6.085
 6771SOL    HW122152   7.112  14.334   6.041
 6771SOL    HW222153   6.964  14.342   6.013
 6772SOL     OW22154   2.749   7.406   9.246
 6772SOL    HW122155   2.665   7.370   9.272
 6772SOL    HW222156   2.792   7.428   9.328
 6773SOL     OW22157   0.284  14.000  11.511
 6773SOL    HW122158   0.329  14.075  11.549
 6773SOL    HW222159   0.354  13.941  11.484
 6774SOL     OW22160   4.043   4.260  10.781
 6774SOL    HW122161   3.966   4.309  10.753
 6774SOL    HW222162   4.117   4.313  10.751
 6775SOL     OW22163   6.019  10.861  13.692
 6775SOL    HW122164   5.992  10.934  13.747
 6775SOL    HW222165   6.106  10.837  13.723
 6776SOL     OW22166   9.942   0.963   8.656
 6776SOL    HW122167   9.859   0.950   8.610
 6776SOL    HW222168  10.000   1.002   8.591
 6777SOL     OW22169   7.382   1.625   4.658
 6777SOL    HW122170   7.373   1.675   4.738
 6777SOL    HW222171   7.301   1.574   4.652
 6778SOL     OW22172   8.997   9.474   3.700
 6778SOL    HW122173   8.973   9.482   3.793
 6778SOL    HW222174   8.975   9.383   3.677
 6779SOL     OW22175   5.603   8.547   8.414
 6779SOL    HW122176   5.695   8.521   8.413
 6779SOL    HW222177   5.605   8.640   8.438
 6780SOL     OW22178  13.604  10.888  12.532
 6780SOL    HW122179  13.525  10.849  12.494
 6780SOL    HW222180  13.633  10.824  12.596
 6781SOL     OW22181   8.397   9.348   9.675
 6781SOL    HW122182   8.308   9.378   9.660
 6781SOL    HW222183   8.442   9.424   9.712
 6782SOL     OW22184   2.476  11.024   2.754
 6782SOL    HW122185   2.564  10.985   2.760
 6782SOL    HW222186   2.429  10.987   2.829
 6783SOL     OW22187   7.045  13.098   0.908
 6783SOL    HW122188   6.979  13.030   0.892
 6783SOL    HW222189   7.039  13.117   1.001
 6784SOL     OW22190  11.368   3.623   6.541
 6784SOL    HW122191  11.292   3.641   6.596
 6784SOL    HW222192  11.331   3.587   6.460
 6785SOL     OW22193   2.117   8.375   5.827
 6785SOL    HW122194   2.108   8.385   5.922
 6785SOL    HW222195   2.190   8.313   5.817
 6786SOL     OW22196   7.916  13.395  11.477
 6786SOL    HW122197   7.877  13.436  11.554
 6786SOL    HW222198   7.964  13.465  11.434
 6787SOL     OW22199  14.339   8.619   0.121
 6787SOL    HW122200  14.353   8.649   0.031
 6787SOL    HW222201  14.318   8.698   0.170
 6788SOL     OW22202  14.609   1.944   6.592
 6788SOL    HW122203  14.519   1.969   6.570
 6788SOL    HW222204  14.648   1.920   6.508
 6789SOL     OW22205   2.624   6.670   8.681
 6789SOL    HW122206   2.653   6.608   8.615
 6789SOL    HW222207   2.626   6.621   8.763
 6790SOL     OW22208  10.161  12.253   8.063
 6790SOL    HW122209  10.070  12.280   8.075
 6790SOL    HW222210  10.189  12.298   7.983
 6791SOL     OW22211   5.226   5.186  11.925
 6791SOL    HW122212   5.178   5.166  12.005
 6791SOL    HW222213   5.157   5.197  11.859
 6792SOL     OW22214   5.840   0.682  13.824
 6792SOL    HW122215   5.769   0.683  13.888
 6792SOL    HW222216   5.809   0.739  13.754
 6793SOL     OW22217   2.786   1.909   8.632
 6793SOL    HW122218   2.728   1.915   8.708
 6793SOL    HW222219   2.859   1.967   8.653
 6794SOL     OW22220   7.983   0.082   9.640
 6794SOL    HW122221   7.995   0.169   9.603
 6794SOL    HW222222   7.948   0.030   9.568
 6795SOL     OW22223   5.049  11.676  12.341
 6795SOL    HW122224   5.046  11.767  12.371
 6795SOL    HW222225   4.957  11.653  12.327
 6796SOL     OW22226   5.408   3.465  14.177
 6796SOL    HW122227   5.443   3.379  14.154
 6796SOL    HW222228   5.316   3.460  14.153
 6797SOL     OW22229  14.543  10.562   7.236
 6797SOL    HW122230  14.594  10.574   7.156
 6797SOL    HW222231  14.591  10.494   7.285
 6798SOL     OW22232   8.485  14.054  14.714
 6798SOL    HW122233   8.507  14.142  14.683
 6798SOL    HW222234   8.389  14.050  14.709
 6799SOL     OW22235  14.234   8.888   3.029
 6799SOL    HW122236  14.267   8.957   3.086
 6799SOL    HW222237  14.308   8.830   3.015
 6800SOL     OW22238   6.516  10.822  11.515
 6800SOL    HW122239   6.471  10.891  11.465
 6800SOL    HW222240   6.607  10.849  11.517
 6801SOL     OW22241   9.505   2.791  12.987
 6801SOL    HW122242   9.508   2.851  12.912
 6801SOL    HW222243   9.413   2.768  12.996
 6802SOL     OW22244   5.936  13.636   2.649
 6802SOL    HW122245   5.962  13.561   2.595
 6802SOL    HW222246   5.984  13.710   2.611
 6803SOL     OW22247   0.739   2.102   3.845
 6803SOL    HW122248   0.701   2.111   3.933
 6803SOL    HW222249   0.777   2.188   3.827
 6804SOL     OW22250   4.211   4.621  10.415
 6804SOL    HW122251   4.134   4.638  10.361
 6804SOL    HW222252   4.236   4.707  10.448
 6805SOL     OW22253   8.599  13.161   9.594
 6805SOL    HW122254   8.658  13.118   9.532
 6805SOL    HW222255   8.523  13.104   9.598
 6806SOL     OW22256   5.199   3.191   7.866
 6806SOL    HW122257   5.170   3.135   7.938
 6806SOL    HW222258   5.177   3.142   7.787
 6807SOL     OW22259   7.074  14.609  10.359
 6807SOL    HW122260   7.108  14.520  10.354
 6807SOL    HW222261   7.040  14.627  10.271
 6808SOL     OW22262   0.155  11.407  14.473
 6808SOL    HW122263   0.091  11.435  14.538
 6808SOL    HW222264   0.240  11.424  14.513
 6809SOL     OW22265   3.351  13.026   4.485
 6809SOL    HW122266   3.292  13.029   4.561
 6809SOL    HW222267   3.438  13.040   4.521
 6810SOL     OW22268  14.456   5.489  10.231
 6810SOL    HW122269  14.543   5.498  10.193
 6810SOL    HW222270  14.397   5.521  10.163
 6811SOL     OW22271   1.047   7.640   8.734
 6811SOL    HW122272   1.071   7.559   8.780
 6811SOL    HW222273   1.125   7.696   8.742
 6812SOL     OW22274  11.746   6.323  13.225
 6812SOL    HW122275  11.732   6.307  13.319
 6812SOL    HW222276  11.807   6.397  13.223
 6813SOL     OW22277  12.353   3.118  10.979
 6813SOL    HW122278  12.344   3.203  10.937
 6813SOL    HW222279  12.274   3.109  11.032
 6814SOL     OW22280  11.297   8.491   9.167
 6814SOL    HW122281  11.325   8.520   9.080
 6814SOL    HW222282  11.303   8.396   9.164
 6815SOL     OW22283  11.654   8.017   4.179
 6815SOL    HW122284  11.608   7.936   4.157
 6815SOL    HW222285  11.739   7.988   4.214
 6816SOL     OW22286   1.467   9.091   2.751
 6816SOL    HW122287   1.545   9.114   2.701
 6816SOL    HW222288   1.472   8.996   2.762
 6817SOL     OW22289   1.440   3.497   6.719
 6817SOL    HW122290   1.410   3.583   6.749
 6817SOL    HW222291   1.429   3.440   6.795
 6818SOL     OW22292  10.714   6.198  14.033
 6818SOL    HW122293  10.631   6.192  14.081
 6818SOL    HW222294  10.781   6.193  14.101
 6819SOL     OW22295   4.926   3.264  11.833
 6819SOL    HW122296   4.862   3.285  11.901
 6819SOL    HW222297   4.882   3.201  11.777
 6820SOL     OW22298   2.322   1.871   0.715
 6820SOL    HW122299   2.301   1.932   0.643
 6820SOL    HW222300   2.314   1.784   0.675
 6821SOL     OW22301   5.745   9.133   4.337
 6821SOL    HW122302   5.755   9.047   4.298
 6821SOL    HW222303   5.834   9.162   4.357
 6822SOL     OW22304  12.040   5.694   1.839
 6822SOL    HW122305  12.099   5.701   1.763
 6822SOL    HW222306  12.062   5.771   1.893
 6823SOL     OW22307   4.355   6.279  13.737
 6823SOL    HW122308   4.287   6.272  13.670
 6823SOL    HW222309   4.381   6.188  13.754
 6824SOL     OW22310  14.223   2.872   3.405
 6824SOL    HW122311  14.215   2.877   3.501
 6824SOL    HW222312  14.222   2.963   3.376
 6825SOL     OW22313  14.000   8.064   8.198
 6825SOL    HW122314  13.913   8.094   8.170
 6825SOL    HW222315  14.031   8.132   8.257
 6826SOL     OW22316  12.035   4.021  11.369
 6826SOL    HW122317  12.066   4.085  11.433
 6826SOL    HW222318  12.054   4.060  11.284
 6827SOL     OW22319   8.841  11.310   7.301
 6827SOL    HW122320   8.864  11.229   7.346
 6827SOL    HW222321   8.905  11.374   7.334
 6828SOL     OW22322  11.237   0.629   1.253
 6828SOL    HW122323  11.306   0.563   1.264
 6828SOL    HW222324  11.264   0.701   1.310
 6829SOL     OW22325   0.942  10.588  13.470
 6829SOL    HW122326   0.991  10.511  13.441
 6829SOL    HW222327   0.879  10.554  13.533
 6830SOL     OW22328   0.825  14.387   2.186
 6830SOL    HW122329   0.763  14.379   2.259
 6830SOL    HW222330   0.911  14.379   2.227
 6831SOL     OW22331   9.334   9.116   3.821
 6831SOL    HW122332   9.293   9.113   3.734
 6831SOL    HW222333   9.385   9.197   3.821
 6832SOL     OW22334   6.937   8.405   0.218
 6832SOL    HW122335   6.960   8.372   0.131
 6832SOL    HW222336   7.019   8.438   0.255
 6833SOL     OW22337   1.644   9.955   0.325
 6833SOL    HW122338   1.708   9.907   0.377
 6833SOL    HW222339   1.692  10.033   0.296
 6834SOL     OW22340   0.552   4.762  12.153
 6834SOL    HW122341   0.464   4.758  12.116
 6834SOL    HW222342   0.587   4.845  12.121
 6835SOL     OW22343   0.991   1.427   1.281
 6835SOL    HW122344   0.995   1.357   1.347
 6835SOL    HW222345   0.994   1.381   1.197
 6836SOL     OW22346   5.551   3.492   8.897
 6836SOL    HW122347   5.490   3.531   8.834
 6836SOL    HW222348   5.497   3.471   8.973
 6837SOL     OW22349   4.608  14.724  11.124
 6837SOL    HW122350   4.681  14.749  11.067
 6837SOL    HW222351   4.534  14.773  11.089
 6838SOL     OW22352  13.484  11.207   8.487
 6838SOL    HW122353  13.486  11.235   8.578
 6838SOL    HW222354  13.473  11.288   8.437
 6839SOL     OW22355   4.283   1.346   5.441
 6839SOL    HW122356   4.237   1.355   5.358
 6839SOL    HW222357   4.307   1.435   5.466
 6840SOL     OW22358   9.544   0.270  11.578
 6840SOL    HW122359   9.533   0.179  11.550
 6840SOL    HW222360   9.506   0.321  11.507
 6841SOL     OW22361   9.560   3.572   9.535
 6841SOL    HW122362   9.529   3.660   9.558
 6841SOL    HW222363   9.608   3.583   9.453
 6842SOL     OW22364  12.380   2.307   5.990
 6842SOL    HW122365  12.393   2.250   5.914
 6842SOL    HW222366  12.299   2.275   6.029
 6843SOL     OW22367   1.866   7.650  14.457
 6843SOL    HW122368   1.880   7.743  14.437
 6843SOL    HW222369   1.932   7.604  14.404
 6844SOL     OW22370   5.750   6.222   4.657
 6844SOL    HW122371   5.718   6.132   4.666
 6844SOL    HW222372   5.824   6.227   4.717
 6845SOL     OW22373   5.134  10.527  11.025
 6845SOL    HW122374   5.196  10.467  11.065
 6845SOL    HW222375   5.163  10.614  11.055
 6846SOL     OW22376   2.439  11.611  10.256
 6846SOL    HW122377   2.521  11.604  10.304
 6846SOL    HW222378   2.463  11.598  10.164
 6847SOL     OW22379  13.077   5.123  12.619
 6847SOL    HW122380  13.014   5.164  12.560
 6847SOL    HW222381  13.113   5.050  12.568
 6848SOL     OW22382   5.384   3.163   4.697
 6848SOL    HW122383   5.398   3.080   4.742
 6848SOL    HW222384   5.299   3.154   4.654
 6849SOL     OW22385   7.562  13.834  13.502
 6849SOL    HW122386   7.624  13.804  13.568
 6849SOL    HW222387   7.488  13.774  13.510
 6850SOL     OW22388   2.374   8.665  12.043
 6850SOL    HW122389   2.309   8.729  12.073
 6850SOL    HW222390   2.324   8.606  11.986
 6851SOL     OW22391   7.961   9.096   6.129
 6851SOL    HW122392   7.951   9.014   6.080
 6851SOL    HW222393   7.942   9.164   6.064
 6852SOL     OW22394   8.622   1.779   0.138
 6852SOL    HW122395   8.658   1.855   0.093
 6852SOL    HW222396   8.692   1.753   0.199
 6853SOL     OW22397  11.156   8.956   9.456
 6853SOL    HW122398  11.177   8.914   9.540
 6853SOL    HW222399  11.060   8.966   9.458
 6854SOL     OW22400  11.034   9.549   8.485
 6854SOL    HW122401  11.071   9.485   8.424
 6854SOL    HW222402  11.094   9.548   8.561
 6855SOL     OW22403   1.135   1.678   6.617
 6855SOL    HW122404   1.086   1.727   6.551
 6855SOL    HW222405   1.131   1.587   6.588
 6856SOL     OW22406   0.308  12.989  10.219
 6856SOL    HW122407   0.294  13.022  10.130
 6856SOL    HW222408   0.397  12.955  10.218
 6857SOL     OW22409   4.573  10.036   3.096
 6857SOL    HW122410   4.500  10.063   3.152
 6857SOL    HW222411   4.627   9.982   3.153
 6858SOL     OW22412   6.258   1.035   3.610
 6858SOL    HW122413   6.233   0.975   3.540
 6858SOL    HW222414   6.343   1.003   3.639
 6859SOL     OW22415   6.891   5.677  12.776
 6859SOL    HW122416   6.985   5.665  12.764
 6859SOL    HW222417   6.864   5.730  12.701
 6860SOL     OW22418   5.502  11.885   4.639
 6860SOL    HW122419   5.594  11.914   4.640
 6860SOL    HW222420   5.471  11.908   4.551
 6861SOL     OW22421   2.009   3.260   1.152
 6861SOL    HW122422   2.027   3.234   1.061
 6861SOL    HW222423   1.958   3.341   1.144
 6862SOL     OW22424  10.331   8.235   2.780
 6862SOL    HW122425  10.319   8.149   2.820
 6862SOL    HW222426  10.374   8.287   2.847
 6863SOL     OW22427  13.944  13.020  12.506
 6863SOL    HW122428  13.945  13.051  12.596
 6863SOL    HW222429  13.970  13.096  12.454
 6864SOL     OW22430   7.350   1.392  11.004
 6864SOL    HW122431   7.419   1.406  10.940
 6864SOL    HW222432   7.385   1.327  11.064
 6865SOL     OW22433  13.426   3.054   5.722
 6865SOL    HW122434  13.369   3.126   5.747
 6865SOL    HW222435  13.388   3.020   5.641
 6866SOL     OW22436  11.867   2.562   1.525
 6866SOL    HW122437  11.954   2.559   1.485
 6866SOL    HW222438  11.883   2.570   1.619
 6867SOL     OW22439   7.457   8.987  13.837
 6867SOL    HW122440   7.529   8.958  13.894
 6867SOL    HW222441   7.437   8.910  13.783
 6868SOL     OW22442  14.354   6.448   5.064
 6868SOL    HW122443  14.436   6.401   5.053
 6868SOL    HW222444  14.290   6.381   5.089
 6869SOL     OW22445   1.836  12.252   0.609
 6869SOL    HW122446   1.863  12.186   0.672
 6869SOL    HW222447   1.876  12.225   0.526
 6870SOL     OW22448   6.439   5.235   8.507
 6870SOL    HW122449   6.403   5.154   8.543
 6870SOL    HW222450   6.533   5.218   8.500
 6871SOL     OW22451  10.097  10.407   0.839
 6871SOL    HW122452  10.133  10.319   0.852
 6871SOL    HW222453  10.033  10.418   0.909
 6872SOL     OW22454  11.723   5.040   9.729
 6872SOL    HW122455  11.743   5.107   9.662
 6872SOL    HW222456  11.809   5.006   9.755
 6873SOL     OW22457   3.504   2.413  12.688
 6873SOL    HW122458   3.570   2.479  12.671
 6873SOL    HW222459   3.457   2.445  12.765
 6874SOL     OW22460   6.517   3.500  11.242
 6874SOL    HW122461   6.512   3.450  11.324
 6874SOL    HW222462   6.605   3.483  11.209
 6875SOL     OW22463   1.412   3.075   4.892
 6875SOL    HW122464   1.466   3.012   4.940
 6875SOL    HW222465   1.370   3.023   4.823
 6876SOL     OW22466  12.046   9.673  13.333
 6876SOL    HW122467  12.130   9.718  13.322
 6876SOL    HW222468  12.045   9.645  13.424
 6877SOL     OW22469   6.075   8.746   1.422
 6877SOL    HW122470   6.045   8.821   1.371
 6877SOL    HW222471   6.084   8.675   1.357
 6878SOL     OW22472   9.489  14.016   6.216
 6878SOL    HW122473   9.452  14.104   6.225
 6878SOL    HW222474   9.485  13.979   6.304
 6879SOL     OW22475   4.903  11.016   7.819
 6879SOL    HW122476   4.840  10.983   7.755
 6879SOL    HW222477   4.948  10.937   7.851
 6880SOL     OW22478   4.384  13.941   2.222
 6880SOL    HW122479   4.376  13.936   2.127
 6880SOL    HW222480   4.339  14.022   2.246
 6881SOL     OW22481  12.882  14.084   1.742
 6881SOL    HW122482  12.911  14.160   1.793
 6881SOL    HW222483  12.953  14.071   1.678
 6882SOL     OW22484  12.107  10.465   4.067
 6882SOL    HW122485  12.164  10.393   4.094
 6882SOL    HW222486  12.019  10.431   4.079
 6883SOL     OW22487   1.100   2.880   8.910
 6883SOL    HW122488   1.050   2.808   8.872
 6883SOL    HW222489   1.191   2.857   8.896
 6884SOL     OW22490  10.993  11.160   9.809
 6884SOL    HW122491  10.957  11.199   9.889
 6884SOL    HW222492  11.077  11.122   9.835
 6885SOL     OW22493   1.613   4.233  11.930
 6885SOL    HW122494   1.664   4.241  11.850
 6885SOL    HW222495   1.603   4.139  11.944
 6886SOL     OW22496  12.525   8.919  10.923
 6886SOL    HW122497  12.533   8.840  10.977
 6886SOL    HW222498  12.578   8.985  10.969
 6887SOL     OW22499   9.267   0.948  10.936
 6887SOL    HW122500   9.270   0.865  10.983
 6887SOL    HW222501   9.351   0.953  10.891
 6888SOL     OW22502   8.945   9.071   4.540
 6888SOL    HW122503   8.990   8.996   4.578
 6888SOL    HW222504   8.992   9.147   4.572
 6889SOL     OW22505  10.295   9.171  13.400
 6889SOL    HW122506  10.218   9.184  13.345
 6889SOL    HW222507  10.361   9.135  13.340
 6890SOL     OW22508   8.013   4.931   9.262
 6890SOL    HW122509   8.065   4.903   9.337
 6890SOL    HW222510   7.966   4.853   9.234
 6891SOL     OW22511   2.031   5.071  13.120
 6891SOL    HW122512   1.957   5.115  13.163
 6891SOL    HW222513   2.001   5.055  13.031
 6892SOL     OW22514   4.062   3.807  11.332
 6892SOL    HW122515   4.018   3.804  11.417
 6892SOL    HW222516   4.068   3.716  11.305
 6893SOL     OW22517  12.323   2.934   0.718
 6893SOL    HW122518  12.306   2.916   0.625
 6893SOL    HW222519  12.303   2.851   0.762
 6894SOL     OW22520   2.391   0.493   0.255
 6894SOL    HW122521   2.360   0.473   0.167
 6894SOL    HW222522   2.402   0.588   0.256
 6895SOL     OW22523   6.562   2.040   8.493
 6895SOL    HW122524   6.652   2.006   8.496
 6895SOL    HW222525   6.517   1.982   8.433
 6896SOL     OW22526   2.923   6.145   2.190
 6896SOL    HW122527   2.863   6.219   2.198
 6896SOL    HW222528   3.005   6.184   2.159
 6897SOL     OW22529   5.602   1.242   5.474
 6897SOL    HW122530   5.516   1.220   5.440
 6897SOL    HW222531   5.585   1.301   5.548
 6898SOL     OW22532   6.862   0.173   5.724
 6898SOL    HW122533   6.820   0.227   5.656
 6898SOL    HW222534   6.831   0.211   5.806
 6899SOL     OW22535   7.118   9.160   7.519
 6899SOL    HW122536   7.155   9.232   7.570
 6899SOL    HW222537   7.157   9.170   7.432
 6900SOL     OW22538   7.510   2.796  10.924
 6900SOL    HW122539   7.416   2.810  10.927
 6900SOL    HW222540   7.523   2.706  10.953
 6901SOL     OW22541   2.761   6.858   6.367
 6901SOL    HW122542   2.766   6.795   6.295
 6901SOL    HW222543   2.812   6.817   6.437
 6902SOL     OW22544   0.224   8.840   8.978
 6902SOL    HW122545   0.306   8.882   8.952
 6902SOL    HW222546   0.216   8.859   9.072
 6903SOL     OW22547   7.822   2.857  14.254
 6903SOL    HW122548   7.796   2.885  14.342
 6903SOL    HW222549   7.758   2.898  14.196
 6904SOL     OW22550   7.177   9.934   8.455
 6904SOL    HW122551   7.083   9.940   8.438
 6904SOL    HW222552   7.184   9.940   8.550
 6905SOL     OW22553   9.489  14.746   1.173
 6905SOL    HW122554   9.552  14.812   1.147
 6905SOL    HW222555   9.482  14.754   1.268
 6906SOL     OW22556   3.162   0.441   3.392
 6906SOL    HW122557   3.214   0.411   3.468
 6906SOL    HW222558   3.071   0.424   3.418
 6907SOL     OW22559   3.781   7.560  10.076
 6907SOL    HW122560   3.756   7.494  10.011
 6907SOL    HW222561   3.771   7.644  10.030
 6908SOL     OW22562  13.466   5.430   3.514
 6908SOL    HW122563  13.553   5.443   3.478
 6908SOL    HW222564  13.421   5.375   3.449
 6909SOL     OW22565  12.268   1.978   2.565
 6909SOL    HW122566  12.285   1.884   2.577
 6909SOL    HW222567  12.304   1.998   2.479
 6910SOL     OW22568   9.182  13.826   9.258
 6910SOL    HW122569   9.163  13.912   9.296
 6910SOL    HW222570   9.098  13.796   9.224
 6911SOL     OW22571   8.183   2.818   4.714
 6911SOL    HW122572   8.101   2.856   4.745
 6911SOL    HW222573   8.202   2.748   4.776
 6912SOL     OW22574  11.126   1.703  10.325
 6912SOL    HW122575  11.180   1.760  10.271
 6912SOL    HW222576  11.037   1.715  10.291
 6913SOL     OW22577  13.545   4.621   2.475
 6913SOL    HW122578  13.537   4.570   2.395
 6913SOL    HW222579  13.552   4.555   2.544
 6914SOL     OW22580   3.576   0.903   6.981
 6914SOL    HW122581   3.485   0.921   7.005
 6914SOL    HW222582   3.607   0.986   6.944
 6915SOL     OW22583  13.629  11.562   2.234
 6915SOL    HW122584  13.657  11.471   2.227
 6915SOL    HW222585  13.675  11.607   2.163
 6916SOL     OW22586  14.852   5.022   7.594
 6916SOL    HW122587   0.026   5.078   7.650
 6916SOL    HW222588  14.768   5.015   7.640
 6917SOL     OW22589  13.659  13.742   3.748
 6917SOL    HW122590  13.635  13.781   3.663
 6917SOL    HW222591  13.576  13.718   3.788
 6918SOL     OW22592   8.564   8.514   4.203
 6918SOL    HW122593   8.479   8.510   4.160
 6918SOL    HW222594   8.565   8.438   4.261
 6919SOL     OW22595   5.556  10.703  10.205
 6919SOL    HW122596   5.590  10.792  10.213
 6919SOL    HW222597   5.463  10.714  10.190
 6920SOL     OW22598   2.027   6.553   2.989
 6920SOL    HW122599   2.067   6.545   2.903
 6920SOL    HW222600   1.997   6.644   2.994
 6921SOL     OW22601   9.139  13.657   5.834
 6921SOL    HW122602   9.173  13.736   5.791
 6921SOL    HW222603   9.045  13.660   5.818
 6922SOL     OW22604   4.146   0.560  12.504
 6922SOL    HW122605   4.193   0.638  12.532
 6922SOL    HW222606   4.054   0.583  12.512
 6923SOL     OW22607   6.364  11.340   3.680
 6923SOL    HW122608   6.271  11.363   3.670
 6923SOL    HW222609   6.376  11.330   3.774
 6924SOL     OW22610   1.288   0.102  12.635
 6924SOL    HW122611   1.375   0.140  12.625
 6924SOL    HW222612   1.301   0.027  12.693
 6925SOL     OW22613   4.041   9.301  12.900
 6925SOL    HW122614   4.101   9.353  12.954
 6925SOL    HW222615   3.954   9.321  12.935
 6926SOL     OW22616  14.852   5.646   7.752
 6926SOL    HW122617  14.788   5.598   7.806
 6926SOL    HW222618   0.047   5.660   7.809
 6927SOL     OW22619   7.236  10.582   5.238
 6927SOL    HW122620   7.286  10.584   5.319
 6927SOL    HW222621   7.252  10.667   5.198
 6928SOL     OW22622   7.627  11.391  13.848
 6928SOL    HW122623   7.581  11.315  13.885
 6928SOL    HW222624   7.714  11.387  13.886
 6929SOL     OW22625  11.869  13.979   8.534
 6929SOL    HW122626  11.943  14.024   8.575
 6929SOL    HW222627  11.904  13.893   8.511
 6930SOL     OW22628   9.807  10.808  11.778
 6930SOL    HW122629   9.833  10.759  11.856
 6930SOL    HW222630   9.773  10.891  11.811
 6931SOL     OW22631   2.136  10.604   4.548
 6931SOL    HW122632   2.043  10.612   4.570
 6931SOL    HW222633   2.176  10.682   4.588
 6932SOL     OW22634  12.562  12.671   5.920
 6932SOL    HW122635  12.540  12.764   5.910
 6932SOL    HW222636  12.572  12.639   5.831
 6933SOL     OW22637   8.373   9.501   3.592
 6933SOL    HW122638   8.431   9.539   3.658
 6933SOL    HW222639   8.424   9.505   3.511
 6934SOL     OW22640   3.322   0.308   7.680
 6934SOL    HW122641   3.304   0.402   7.686
 6934SOL    HW222642   3.240   0.270   7.650
 6935SOL     OW22643  13.336  10.348   1.426
 6935SOL    HW122644  13.349  10.384   1.338
 6935SOL    HW222645  13.267  10.282   1.415
 6936SOL     OW22646   1.321   6.371  11.452
 6936SOL    HW122647   1.254   6.305  11.432
 6936SOL    HW222648   1.402   6.321  11.462
 6937SOL     OW22649  13.544   9.136   5.847
 6937SOL    HW122650  13.528   9.170   5.759
 6937SOL    HW222651  13.482   9.184   5.903
 6938SOL     OW22652   7.398   4.193   8.654
 6938SOL    HW122653   7.435   4.184   8.742
 6938SOL    HW222654   7.304   4.177   8.666
 6939SOL     OW22655   7.927   0.440   9.149
 6939SOL    HW122656   7.836   0.467   9.141
 6939SOL    HW222657   7.959   0.483   9.228
 6940SOL     OW22658  11.741   3.134   2.693
 6940SOL    HW122659  11.814   3.123   2.754
 6940SOL    HW222660  11.695   3.212   2.725
 6941SOL     OW22661   1.431   3.318   8.410
 6941SOL    HW122662   1.377   3.350   8.482
 6941SOL    HW222663   1.412   3.224   8.407
 6942SOL     OW22664   9.037  13.661   2.077
 6942SOL    HW122665   9.117  13.653   2.129
 6942SOL    HW222666   9.065  13.703   1.996
 6943SOL     OW22667  11.570   5.571   4.351
 6943SOL    HW122668  11.557   5.517   4.273
 6943SOL    HW222669  11.534   5.656   4.328
 6944SOL     OW22670   0.508   9.170   3.187
 6944SOL    HW122671   0.494   9.264   3.198
 6944SOL    HW222672   0.465   9.130   3.263
 6945SOL     OW22673   6.129   1.329  10.054
 6945SOL    HW122674   6.192   1.343   9.982
 6945SOL    HW222675   6.148   1.241  10.085
 6946SOL     OW22676   6.748  11.206   5.516
 6946SOL    HW122677   6.687  11.278   5.532
 6946SOL    HW222678   6.790  11.191   5.601
 6947SOL     OW22679  13.520   7.265  14.505
 6947SOL    HW122680  13.432   7.266  14.543
 6947SOL    HW222681  13.564   7.340  14.545
 6948SOL     OW22682   2.780  11.740  14.128
 6948SOL    HW122683   2.780  11.674  14.058
 6948SOL    HW222684   2.816  11.818  14.086
 6949SOL     OW22685   0.366   4.181   1.549
 6949SOL    HW122686   0.435   4.247   1.545
 6949SOL    HW222687   0.380   4.138   1.634
 6950SOL     OW22688   3.163   9.394   5.649
 6950SOL    HW122689   3.068   9.388   5.641
 6950SOL    HW222690   3.194   9.413   5.561
 6951SOL     OW22691   3.789   0.694   9.276
 6951SOL    HW122692   3.834   0.778   9.268
 6951SOL    HW222693   3.714   0.711   9.334
 6952SOL     OW22694   3.722   5.534  14.316
 6952SOL    HW122695   3.765   5.595  14.376
 6952SOL    HW222696   3.722   5.579  14.232
 6953SOL     OW22697   3.712   0.828   4.615
 6953SOL    HW122698   3.722   0.836   4.710
 6953SOL    HW222699   3.686   0.737   4.600
 6954SOL     OW22700   8.065   9.097  10.798
 6954SOL    HW122701   8.119   9.175  10.814
 6954SOL    HW222702   8.127   9.028  10.776
 6955SOL     OW22703   5.487  12.987   3.401
 6955SOL    HW122704   5.434  13.048   3.349
 6955SOL    HW222705   5.498  12.910   3.345
 6956SOL     OW22706   9.153   7.715  11.796
 6956SOL    HW122707   9.200   7.792  11.827
 6956SOL    HW222708   9.071   7.751  11.759
 6957SOL     OW22709  10.582   7.364   5.286
 6957SOL    HW122710  10.591   7.449   5.330
 6957SOL    HW222711  10.644   7.307   5.332
 6958SOL     OW22712   4.089   7.451   2.247
 6958SOL    HW122713   4.051   7.380   2.300
 6958SOL    HW222714   4.035   7.455   2.169
 6959SOL     OW22715  11.170  11.112   0.754
 6959SOL    HW122716  11.154  11.017   0.750
 6959SOL    HW222717  11.257  11.123   0.715
 6960SOL     OW22718   4.620   9.032   3.190
 6960SOL    HW122719   4.561   9.000   3.258
 6960SOL    HW222720   4.655   8.953   3.149
 6961SOL     OW22721   5.951  11.216   7.404
 6961SOL    HW122722   5.965  11.158   7.479
 6961SOL    HW222723   5.987  11.300   7.431
 6962SOL     OW22724   2.137  13.279   1.172
 6962SOL    HW122725   2.174  13.358   1.132
 6962SOL    HW222726   2.102  13.308   1.256
 6963SOL     OW22727   7.330   2.662   2.793
 6963SOL    HW122728   7.309   2.713   2.871
 6963SOL    HW222729   7.257   2.601   2.784
 6964SOL     OW22730  10.754  10.471  10.499
 6964SOL    HW122731  10.725  10.426  10.419
 6964SOL    HW222732  10.745  10.564  10.479
 6965SOL     OW22733   3.390   6.248  13.798
 6965SOL    HW122734   3.417   6.310  13.730
 6965SOL    HW222735   3.365   6.302  13.873
 6966SOL     OW22736   3.027   0.057   4.729
 6966SOL    HW122737   3.105   0.110   4.750
 6966SOL    HW222738   3.054  14.847   4.746
 6967SOL     OW22739  10.306   1.579   7.747
 6967SOL    HW122740  10.230   1.585   7.804
 6967SOL    HW222741  10.376   1.546   7.803
 6968SOL     OW22742  14.047   9.900   1.936
 6968SOL    HW122743  14.043   9.912   2.030
 6968SOL    HW222744  14.089   9.979   1.903
 6969SOL     OW22745   9.615   8.061  12.477
 6969SOL    HW122746   9.705   8.046  12.508
 6969SOL    HW222747   9.579   8.124  12.539
 6970SOL     OW22748  11.418   4.133   3.589
 6970SOL    HW122749  11.352   4.094   3.647
 6970SOL    HW222750  11.466   4.194   3.645
 6971SOL     OW22751   4.110  10.316   4.470
 6971SOL    HW122752   4.073  10.396   4.509
 6971SOL    HW222753   4.168  10.348   4.401
 6972SOL     OW22754   4.258   8.285  13.268
 6972SOL    HW122755   4.173   8.245  13.249
 6972SOL    HW222756   4.236   8.374  13.297
 6973SOL     OW22757   6.557   3.154   6.889
 6973SOL    HW122758   6.573   3.079   6.833
 6973SOL    HW222759   6.608   3.138   6.968
 6974SOL     OW22760  10.730   7.256  10.289
 6974SOL    HW122761  10.655   7.237  10.233
 6974SOL    HW222762  10.742   7.351  10.281
 6975SOL     OW22763   6.048  12.162   1.809
 6975SOL    HW122764   5.957  12.167   1.779
 6975SOL    HW222765   6.095  12.121   1.736
 6976SOL     OW22766   7.345   2.621   0.952
 6976SOL    HW122767   7.398   2.593   0.876
 6976SOL    HW222768   7.279   2.552   0.962
 6977SOL     OW22769   4.535  11.515   0.074
 6977SOL    HW122770   4.550  11.582   0.141
 6977SOL    HW222771   4.531  11.564  14.872
 6978SOL     OW22772  12.142   4.933   6.211
 6978SOL    HW122773  12.093   4.922   6.129
 6978SOL    HW222774  12.229   4.898   6.191
 6979SOL     OW22775   8.891   8.628  10.517
 6979SOL    HW122776   8.884   8.724  10.516
 6979SOL    HW222777   8.809   8.599  10.556
 6980SOL     OW22778   0.875  10.988  12.036
 6980SOL    HW122779   0.857  11.020  12.124
 6980SOL    HW222780   0.961  11.024  12.014
 6981SOL     OW22781  10.527   7.623   5.123
 6981SOL    HW122782  10.450   7.679   5.128
 6981SOL    HW222783  10.574   7.640   5.205
 6982SOL     OW22784   1.603   4.596   0.326
 6982SOL    HW122785   1.669   4.527   0.328
 6982SOL    HW222786   1.523   4.554   0.355
 6983SOL     OW22787  11.219   1.050   9.984
 6983SOL    HW122788  11.212   1.133  10.031
 6983SOL    HW222789  11.131   1.034   9.950
 6984SOL     OW22790   4.640   4.832  14.562
 6984SOL    HW122791   4.573   4.769  14.534
 6984SOL    HW222792   4.663   4.879  14.483
 6985SOL     OW22793   8.844   1.020   1.993
 6985SOL    HW122794   8.928   1.058   2.019
 6985SOL    HW222795   8.779   1.085   2.018
 6986SOL     OW22796  14.368  12.691   2.841
 6986SOL    HW122797  14.415  12.694   2.758
 6986SOL    HW222798  14.331  12.779   2.851
 6987SOL     OW22799  12.187   5.244   7.109
 6987SOL    HW122800  12.145   5.158   7.105
 6987SOL    HW222801  12.118   5.303   7.140
 6988SOL     OW22802   8.888   0.274   3.938
 6988SOL    HW122803   8.825   0.202   3.937
 6988SOL    HW222804   8.960   0.242   3.992
 6989SOL     OW22805   7.558   5.185   1.780
 6989SOL    HW122806   7.587   5.097   1.758
 6989SOL    HW222807   7.513   5.217   1.702
 6990SOL     OW22808   3.120   9.623   9.533
 6990SOL    HW122809   3.128   9.718   9.525
 6990SOL    HW222810   3.118   9.607   9.628
 6991SOL     OW22811  10.864  10.018   2.484
 6991SOL    HW122812  10.769  10.021   2.478
 6991SOL    HW222813  10.890  10.105   2.514
 6992SOL     OW22814   5.248   4.819   4.446
 6992SOL    HW122815   5.209   4.745   4.493
 6992SOL    HW222816   5.284   4.875   4.515
 6993SOL     OW22817  12.262   2.835   8.639
 6993SOL    HW122818  12.240   2.751   8.598
 6993SOL    HW222819  12.246   2.821   8.732
 6994SOL     OW22820   4.139   7.001   4.048
 6994SOL    HW122821   4.142   7.009   3.952
 6994SOL    HW222822   4.110   7.088   4.077
 6995SOL     OW22823   4.638  11.348   2.995
 6995SOL    HW122824   4.681  11.427   3.029
 6995SOL    HW222825   4.685  11.276   3.036
 6996SOL     OW22826  14.054   4.021  14.647
 6996SOL    HW122827  13.984   3.960  14.623
 6996SOL    HW222828  14.133   3.969  14.644
 6997SOL     OW22829  10.394  12.716   6.227
 6997SOL    HW122830  10.311  12.721   6.180
 6997SOL    HW222831  10.455  12.675   6.164
 6998SOL     OW22832   9.299   1.236  13.748
 6998SOL    HW122833   9.368   1.198  13.694
 6998SOL    HW222834   9.218   1.216  13.700
 6999SOL     OW22835   4.639   4.663   7.794
 6999SOL    HW122836   4.611   4.721   7.723
 6999SOL    HW222837   4.706   4.713   7.841
 7000SOL     OW22838   5.295   0.263   6.181
 7000SOL    HW122839   5.374   0.303   6.217
 7000SOL    HW222840   5.292   0.175   6.220
 7001SOL     OW22841   5.636   8.586   1.611
 7001SOL    HW122842   5.556   8.535   1.622
 7001SOL    HW222843   5.688   8.536   1.548
 7002SOL     OW22844  13.433   2.171   8.112
 7002SOL    HW122845  13.395   2.098   8.161
 7002SOL    HW222846  13.462   2.232   8.180
 7003SOL     OW22847  14.407  13.187   8.538
 7003SOL    HW122848  14.471  13.221   8.476
 7003SOL    HW222849  14.458  13.138   8.602
 7004SOL     OW22850   8.794   9.364  14.033
 7004SOL    HW122851   8.782   9.432  13.967
 7004SOL    HW222852   8.767   9.283  13.990
 7005SOL     OW22853  14.028   4.353   9.833
 7005SOL    HW122854  14.008   4.279   9.891
 7005SOL    HW222855  14.052   4.313   9.750
 7006SOL     OW22856  10.015   8.640  13.679
 7006SOL    HW122857  10.021   8.728  13.716
 7006SOL    HW222858  10.049   8.649  13.590
 7007SOL     OW22859  10.232  10.484   5.288
 7007SOL    HW122860  10.216  10.564   5.338
 7007SOL    HW222861  10.186  10.416   5.337
 7008SOL     OW22862   1.062   6.252   6.243
 7008SOL    HW122863   1.017   6.187   6.297
 7008SOL    HW222864   1.012   6.332   6.254
 7009SOL     OW22865  13.227   8.948   3.375
 7009SOL    HW122866  13.174   8.974   3.450
 7009SOL    HW222867  13.204   8.856   3.361
 7010SOL     OW22868  10.502  14.042  10.191
 7010SOL    HW122869  10.407  14.044  10.195
 7010SOL    HW222870  10.523  13.962  10.143
 7011SOL     OW22871   3.488   0.947  12.045
 7011SOL    HW122872   3.548   0.873  12.055
 7011SOL    HW222873   3.542   1.025  12.057
 7012SOL     OW22874   7.886  12.998   1.255
 7012SOL    HW122875   7.826  12.933   1.217
 7012SOL    HW222876   7.881  13.073   1.197
 7013SOL     OW22877  11.676  10.368   4.771
 7013SOL    HW122878  11.768  10.362   4.794
 7013SOL    HW222879  11.646  10.277   4.770
 7014SOL     OW22880  12.657  12.455   0.398
 7014SOL    HW122881  12.602  12.496   0.465
 7014SOL    HW222882  12.745  12.489   0.415
 7015SOL     OW22883   8.141   5.899   3.048
 7015SOL    HW122884   8.119   5.889   3.141
 7015SOL    HW222885   8.228   5.860   3.039
 7016SOL     OW22886  11.574  12.523   3.194
 7016SOL    HW122887  11.631  12.519   3.271
 7016SOL    HW222888  11.568  12.432   3.163
 7017SOL     OW22889  11.481   3.696  12.605
 7017SOL    HW122890  11.436   3.626  12.652
 7017SOL    HW222891  11.553   3.721  12.662
 7018SOL     OW22892  12.134   8.028   5.570
 7018SOL    HW122893  12.162   8.115   5.539
 7018SOL    HW222894  12.060   8.046   5.628
 7019SOL     OW22895   7.084   4.160  13.282
 7019SOL    HW122896   7.017   4.118  13.228
 7019SOL    HW222897   7.052   4.249  13.295
 7020SOL     OW22898   9.368  13.662  11.312
 7020SOL    HW122899   9.434  13.623  11.254
 7020SOL    HW222900   9.317  13.587  11.343
 7021SOL     OW22901   1.932  11.792   2.813
 7021SOL    HW122902   2.012  11.752   2.845
 7021SOL    HW222903   1.961  11.867   2.761
 7022SOL     OW22904   8.160   9.481  11.808
 7022SOL    HW122905   8.080   9.515  11.767
 7022SOL    HW222906   8.177   9.398  11.763
 7023SOL     OW22907   9.470   3.585   2.272
 7023SOL    HW122908   9.415   3.562   2.196
 7023SOL    HW222909   9.427   3.661   2.310
 7024SOL     OW22910   5.586   3.789   1.871
 7024SOL    HW122911   5.624   3.702   1.859
 7024SOL    HW222912   5.650   3.835   1.926
 7025SOL     OW22913   8.805  11.594  11.064
 7025SOL    HW122914   8.716  11.582  11.030
 7025SOL    HW222915   8.862  11.579  10.989
 7026SOL     OW22916   4.975   8.158   7.034
 7026SOL    HW122917   4.981   8.204   7.118
 7026SOL    HW222918   5.009   8.221   6.970
 7027SOL     OW22919   4.163   9.417   2.014
 7027SOL    HW122920   4.103   9.363   2.066
 7027SOL    HW222921   4.121   9.422   1.928
 7028SOL     OW22922   8.551  13.141  14.244
 7028SOL    HW122923   8.517  13.227  14.218
 7028SOL    HW222924   8.473  13.093  14.271
 7029SOL     OW22925   4.751   0.811  11.049
 7029SOL    HW122926   4.728   0.901  11.075
 7029SOL    HW222927   4.686   0.756  11.093
 7030SOL     OW22928   3.665  14.710   0.161
 7030SOL    HW122929   3.681  14.775   0.092
 7030SOL    HW222930   3.625  14.636   0.116
 7031SOL     OW22931  13.995   5.260   5.118
 7031SOL    HW122932  13.953   5.278   5.034
 7031SOL    HW222933  13.926   5.270   5.183
 7032SOL     OW22934  11.600   5.731  14.249
 7032SOL    HW122935  11.593   5.702  14.158
 7032SOL    HW222936  11.690   5.763  14.257
 7033SOL     OW22937   7.326   8.673   9.590
 7033SOL    HW122938   7.263   8.603   9.577
 7033SOL    HW222939   7.411   8.629   9.586
 7034SOL     OW22940  10.409  13.207   3.231
 7034SOL    HW122941  10.360  13.189   3.311
 7034SOL    HW222942  10.372  13.148   3.165
 7035SOL     OW22943  12.954   7.080   1.678
 7035SOL    HW122944  13.014   7.153   1.664
 7035SOL    HW222945  12.917   7.096   1.765
 7036SOL     OW22946  12.557   2.991  10.322
 7036SOL    HW122947  12.583   2.927  10.256
 7036SOL    HW222948  12.576   2.948  10.406
 7037SOL     OW22949   1.355   9.684  12.543
 7037SOL    HW122950   1.313   9.678  12.628
 7037SOL    HW222951   1.403   9.602  12.533
 7038SOL     OW22952   3.932   9.614  10.619
 7038SOL    HW122953   3.878   9.623  10.540
 7038SOL    HW222954   3.979   9.532  10.607
 7039SOL     OW22955  13.339   6.173   3.146
 7039SOL    HW122956  13.411   6.120   3.112
 7039SOL    HW222957  13.288   6.196   3.068
 7040SOL     OW22958  12.466   0.609   9.113
 7040SOL    HW122959  12.426   0.687   9.152
 7040SOL    HW222960  12.392   0.559   9.077
 7041SOL     OW22961  11.497   6.816   2.910
 7041SOL    HW122962  11.463   6.903   2.932
 7041SOL    HW222963  11.421   6.769   2.876
 7042SOL     OW22964   1.473   6.287   3.116
 7042SOL    HW122965   1.378   6.288   3.106
 7042SOL    HW222966   1.488   6.271   3.209
 7043SOL     OW22967   9.014   6.646   7.917
 7043SOL    HW122968   9.008   6.722   7.859
 7043SOL    HW222969   9.108   6.632   7.929
 7044SOL     OW22970  13.296   7.528  12.890
 7044SOL    HW122971  13.309   7.529  12.984
 7044SOL    HW222972  13.208   7.491  12.878
 7045SOL     OW22973   7.316  13.810  11.780
 7045SOL    HW122974   7.335  13.821  11.874
 7045SOL    HW222975   7.301  13.716  11.770
 7046SOL     OW22976  14.205   9.809   4.728
 7046SOL    HW122977  14.225   9.822   4.820
 7046SOL    HW222978  14.282   9.763   4.692
 7047SOL     OW22979   5.511   5.281  13.394
 7047SOL    HW122980   5.494   5.187  13.390
 7047SOL    HW222981   5.487   5.313  13.307
 7048SOL     OW22982   4.246   5.998   0.463
 7048SOL    HW122983   4.310   6.057   0.425
 7048SOL    HW222984   4.163   6.020   0.420
 7049SOL     OW22985   3.641   9.068  10.788
 7049SOL    HW122986   3.661   8.983  10.827
 7049SOL    HW222987   3.585   9.112  10.852
 7050SOL     OW22988   5.465   2.214   8.139
 7050SOL    HW122989   5.421   2.253   8.214
 7050SOL    HW222990   5.397   2.163   8.095
 7051SOL     OW22991   7.555  10.163   6.315
 7051SOL    HW122992   7.465  10.181   6.286
 7051SOL    HW222993   7.572  10.074   6.284
 7052SOL     OW22994  10.167   5.950  11.210
 7052SOL    HW122995  10.146   5.991  11.294
 7052SOL    HW222996  10.252   5.908  11.224
 7053SOL     OW22997   8.289   2.337   6.786
 7053SOL    HW122998   8.304   2.295   6.702
 7053SOL    HW222999   8.366   2.393   6.800
 7054SOL     OW23000  11.615   8.339   6.835
 7054SOL    HW123001  11.521   8.334   6.818
 7054SOL    HW223002  11.624   8.415   6.894
 7055SOL     OW23003   4.421  13.006   3.360
 7055SOL    HW123004   4.392  12.927   3.314
 7055SOL    HW223005   4.356  13.019   3.428
 7056SOL     OW23006   7.677  12.936  12.368
 7056SOL    HW123007   7.583  12.957  12.367
 7056SOL    HW223008   7.687  12.875  12.440
 7057SOL     OW23009   7.498  11.700   8.128
 7057SOL    HW123010   7.431  11.654   8.179
 7057SOL    HW223011   7.581  11.666   8.162
 7058SOL     OW23012   8.147   1.159   1.719
 7058SOL    HW123013   8.212   1.089   1.713
 7058SOL    HW223014   8.146   1.198   1.632
 7059SOL     OW23015  12.184   2.831   7.857
 7059SOL    HW123016  12.102   2.795   7.822
 7059SOL    HW223017  12.215   2.890   7.788
 7060SOL     OW23018   2.114   6.997   9.359
 7060SOL    HW123019   2.114   7.082   9.402
 7060SOL    HW223020   2.035   6.954   9.391
 7061SOL     OW23021  10.900   5.311  10.161
 7061SOL    HW123022  10.950   5.230  10.175
 7061SOL    HW223023  10.876   5.339  10.249
 7062SOL     OW23024   5.642  11.378  12.417
 7062SOL    HW123025   5.622  11.322  12.342
 7062SOL    HW223026   5.566  11.436  12.424
 7063SOL     OW23027   7.164  13.338  11.608
 7063SOL    HW123028   7.248  13.321  11.565
 7063SOL    HW223029   7.109  13.264  11.583
 7064SOL     OW23030   4.331  13.651  11.280
 7064SOL    HW123031   4.395  13.721  11.268
 7064SOL    HW223032   4.328  13.606  11.196
 7065SOL     OW23033   8.570   4.261   0.084
 7065SOL    HW123034   8.544   4.178   0.045
 7065SOL    HW223035   8.607   4.311   0.012
 7066SOL     OW23036   3.618   5.784  14.640
 7066SOL    HW123037   3.629   5.873  14.674
 7066SOL    HW223038   3.568   5.739  14.709
 7067SOL     OW23039   8.048   0.826   5.046
 7067SOL    HW123040   8.066   0.860   5.133
 7067SOL    HW223041   8.116   0.864   4.990
 7068SOL     OW23042   3.231  13.610   2.294
 7068SOL    HW123043   3.193  13.626   2.208
 7068SOL    HW223044   3.168  13.553   2.338
 7069SOL     OW23045   5.367   4.487   0.061
 7069SOL    HW123046   5.459   4.490   0.037
 7069SOL    HW223047   5.349   4.573   0.100
 7070SOL     OW23048   9.655   1.033   4.197
 7070SOL    HW123049   9.741   1.023   4.156
 7070SOL    HW223050   9.661   0.980   4.277
 7071SOL     OW23051   7.750   5.632   7.365
 7071SOL    HW123052   7.792   5.706   7.408
 7071SOL    HW223053   7.795   5.624   7.281
 7072SOL     OW23054  14.656  14.200   7.090
 7072SOL    HW123055  14.675  14.243   7.007
 7072SOL    HW223056  14.711  14.122   7.090
 7073SOL     OW23057   5.444  14.486  12.884
 7073SOL    HW123058   5.460  14.580  12.884
 7073SOL    HW223059   5.495  14.453  12.958
 7074SOL     OW23060   0.974   2.487   3.735
 7074SOL    HW123061   0.924   2.424   3.683
 7074SOL    HW223062   0.911   2.520   3.800
 7075SOL     OW23063   3.524  10.519  10.519
 7075SOL    HW123064   3.521  10.541  10.612
 7075SOL    HW223065   3.498  10.427  10.515
 7076SOL     OW23066  13.326   2.615   7.233
 7076SOL    HW123067  13.308   2.551   7.301
 7076SOL    HW223068  13.370   2.566   7.164
 7077SOL     OW23069  12.871  11.599   3.300
 7077SOL    HW123070  12.821  11.518   3.286
 7077SOL    HW223071  12.851  11.652   3.223
 7078SOL     OW23072   2.095   9.117   7.771
 7078SOL    HW123073   2.114   9.050   7.706
 7078SOL    HW223074   2.058   9.068   7.845
 7079SOL     OW23075   7.154   4.919  11.376
 7079SOL    HW123076   7.201   4.853  11.428
 7079SOL    HW223077   7.197   4.918  11.291
 7080SOL     OW23078   4.022  11.219   0.873
 7080SOL    HW123079   3.929  11.207   0.854
 7080SOL    HW223080   4.055  11.270   0.799
 7081SOL     OW23081   2.650   6.854   9.864
 7081SOL    HW123082   2.650   6.764   9.898
 7081SOL    HW223083   2.644   6.844   9.769
 7082SOL     OW23084   1.428   6.273  11.695
 7082SOL    HW123085   1.422   6.214  11.770
 7082SOL    HW223086   1.473   6.222  11.628
 7083SOL     OW23087   2.086   8.923   1.482
 7083SOL    HW123088   2.033   8.926   1.402
 7083SOL    HW223089   2.022   8.925   1.553
 7084SOL     OW23090  10.135   2.893   7.166
 7084SOL    HW123091  10.129   2.938   7.250
 7084SOL    HW223092  10.053   2.845   7.159
 7085SOL     OW23093  13.647  14.651  14.236
 7085SOL    HW123094  13.674  14.575  14.184
 7085SOL    HW223095  13.681  14.726  14.187
 7086SOL     OW23096   8.824  10.120   6.697
 7086SOL    HW123097   8.743  10.072   6.715
 7086SOL    HW223098   8.863  10.134   6.783
 7087SOL     OW23099   8.264   5.191   9.399
 7087SOL    HW123100   8.329   5.159   9.461
 7087SOL    HW223101   8.268   5.129   9.326
 7088SOL     OW23102  10.147   8.968   9.697
 7088SOL    HW123103  10.158   8.897   9.760
 7088SOL    HW223104  10.123   8.925   9.615
 7089SOL     OW23105  11.762  10.770   3.237
 7089SOL    HW123106  11.795  10.851   3.277
 7089SOL    HW223107  11.698  10.800   3.172
 7090SOL     OW23108  12.959  12.194  14.574
 7090SOL    HW123109  13.020  12.250  14.528
 7090SOL    HW223110  12.944  12.238  14.658
 7091SOL     OW23111   8.449   5.010   2.525
 7091SOL    HW123112   8.450   5.005   2.621
 7091SOL    HW223113   8.530   4.968   2.498
 7092SOL     OW23114   8.117  12.952  11.399
 7092SOL    HW123115   8.043  13.013  11.398
 7092SOL    HW223116   8.163  12.969  11.317
 7093SOL     OW23117   5.111   5.766   8.616
 7093SOL    HW123118   5.096   5.685   8.665
 7093SOL    HW223119   5.072   5.834   8.671
 7094SOL     OW23120   2.882  10.838   1.233
 7094SOL    HW123121   2.863  10.747   1.256
 7094SOL    HW223122   2.809  10.888   1.272
 7095SOL     OW23123   1.408   3.924   6.300
 7095SOL    HW123124   1.315   3.935   6.277
 7095SOL    HW223125   1.453   3.991   6.248
 7096SOL     OW23126  10.692   9.801  13.720
 7096SOL    HW123127  10.673   9.886  13.759
 7096SOL    HW223128  10.770   9.816  13.667
 7097SOL     OW23129   3.454   6.856   4.512
 7097SOL    HW123130   3.530   6.913   4.516
 7097SOL    HW223131   3.379   6.916   4.517
 7098SOL     OW23132   4.773   7.913  14.522
 7098SOL    HW123133   4.762   7.972  14.447
 7098SOL    HW223134   4.848   7.949  14.570
 7099SOL     OW23135   5.474   7.168   2.811
 7099SOL    HW123136   5.475   7.243   2.751
 7099SOL    HW223137   5.556   7.122   2.792
 7100SOL     OW23138  13.879   9.273   3.919
 7100SOL    HW123139  13.961   9.272   3.869
 7100SOL    HW223140  13.886   9.349   3.976
 7101SOL     OW23141   9.774   9.327   9.635
 7101SOL    HW123142   9.860   9.364   9.616
 7101SOL    HW223143   9.785   9.285   9.720
 7102SOL     OW23144   8.834  12.086   8.948
 7102SOL    HW123145   8.905  12.119   9.004
 7102SOL    HW223146   8.832  12.147   8.874
 7103SOL     OW23147   2.148   3.386   7.549
 7103SOL    HW123148   2.138   3.390   7.644
 7103SOL    HW223149   2.226   3.332   7.535
 7104SOL     OW23150   4.461   6.814  11.958
 7104SOL    HW123151   4.486   6.779  12.044
 7104SOL    HW223152   4.431   6.737  11.909
 7105SOL     OW23153   2.519   6.336   3.823
 7105SOL    HW123154   2.449   6.272   3.834
 7105SOL    HW223155   2.481   6.418   3.853
 7106SOL     OW23156  13.606   7.992   5.395
 7106SOL    HW123157  13.529   8.001   5.451
 7106SOL    HW223158  13.582   8.037   5.314
 7107SOL     OW23159  10.869  12.308   4.614
 7107SOL    HW123160  10.930  12.240   4.587
 7107SOL    HW223161  10.803  12.262   4.666
 7108SOL     OW23162   0.371  14.623   0.026
 7108SOL    HW123163   0.337  14.672   0.101
 7108SOL    HW223164   0.447  14.674  14.876
 7109SOL     OW23165   8.950   1.089  12.543
 7109SOL    HW123166   8.960   1.012  12.599
 7109SOL    HW223167   8.952   1.163  12.603
 7110SOL     OW23168   8.548   3.331  11.852
 7110SOL    HW123169   8.561   3.263  11.918
 7110SOL    HW223170   8.614   3.398  11.872
 7111SOL     OW23171   2.524   1.322  12.688
 7111SOL    HW123172   2.539   1.262  12.616
 7111SOL    HW223173   2.471   1.272  12.751
 7112SOL     OW23174  12.055   2.003   3.112
 7112SOL    HW123175  12.076   1.912   3.094
 7112SOL    HW223176  12.128   2.053   3.075
 7113SOL     OW23177  13.249   5.536   9.912
 7113SOL    HW123178  13.284   5.616   9.951
 7113SOL    HW223179  13.154   5.551   9.909
 7114SOL     OW23180   3.920   2.983  11.323
 7114SOL    HW123181   3.907   3.062  11.271
 7114SOL    HW223182   3.871   2.998  11.404
 7115SOL     OW23183  10.785  12.328  14.676
 7115SOL    HW123184  10.743  12.268  14.737
 7115SOL    HW223185  10.828  12.393  14.732
 7116SOL     OW23186  11.946  11.651  14.323
 7116SOL    HW123187  12.018  11.695  14.369
 7116SOL    HW223188  11.975  11.648  14.232
 7117SOL     OW23189  12.816  11.073  13.221
 7117SOL    HW123190  12.866  11.151  13.198
 7117SOL    HW223191  12.880  11.002  13.222
 7118SOL     OW23192   7.297   1.297   4.671
 7118SOL    HW123193   7.274   1.317   4.761
 7118SOL    HW223194   7.218   1.317   4.620
 7119SOL     OW23195   8.366   6.257   4.131
 7119SOL    HW123196   8.363   6.163   4.114
 7119SOL    HW223197   8.437   6.269   4.193
 7120SOL     OW23198   9.838   2.372   0.853
 7120SOL    HW123199   9.746   2.391   0.871
 7120SOL    HW223200   9.836   2.300   0.789
 7121SOL     OW23201  10.617   7.404   9.556
 7121SOL    HW123202  10.566   7.382   9.478
 7121SOL    HW223203  10.572   7.359   9.628
 7122SOL     OW23204  13.679   4.661   4.295
 7122SOL    HW123205  13.598   4.712   4.301
 7122SOL    HW223206  13.747   4.721   4.325
 7123SOL     OW23207   6.218   7.054   5.612
 7123SOL    HW123208   6.300   7.021   5.574
 7123SOL    HW223209   6.243   7.085   5.699
 7124SOL     OW23210   4.493   2.993  12.421
 7124SOL    HW123211   4.549   3.041  12.482
 7124SOL    HW223212   4.458   2.921  12.474
 7125SOL     OW23213   5.080   6.142   4.144
 7125SOL    HW123214   5.022   6.179   4.077
 7125SOL    HW223215   5.069   6.047   4.136
 7126SOL     OW23216   2.182  12.834   5.650
 7126SOL    HW123217   2.151  12.919   5.681
 7126SOL    HW223218   2.109  12.775   5.666
 7127SOL     OW23219   4.918  10.099   5.035
 7127SOL    HW123220   4.929  10.021   5.091
 7127SOL    HW223221   4.924  10.065   4.946
 7128SOL     OW23222   9.086  13.859  14.137
 7128SOL    HW123223   9.160  13.804  14.164
 7128SOL    HW223224   9.122  13.914  14.067
 7129SOL     OW23225   8.597   6.018   7.194
 7129SOL    HW123226   8.503   6.003   7.180
 7129SOL    HW223227   8.637   5.991   7.111
 7130SOL     OW23228   5.691   4.755   1.977
 7130SOL    HW123229   5.692   4.714   2.064
 7130SOL    HW223230   5.736   4.693   1.921
 7131SOL     OW23231   5.556   9.848   9.391
 7131SOL    HW123232   5.578   9.805   9.308
 7131SOL    HW223233   5.527   9.778   9.448
 7132SOL     OW23234   9.034   4.778  10.685
 7132SOL    HW123235   9.082   4.791  10.604
 7132SOL    HW223236   9.093   4.727  10.740
 7133SOL     OW23237  12.946   8.464  10.876
 7133SOL    HW123238  12.858   8.465  10.914
 7133SOL    HW223239  12.969   8.556  10.868
 7134SOL     OW23240   1.351   3.555   2.388
 7134SOL    HW123241   1.294   3.585   2.318
 7134SOL    HW223242   1.439   3.556   2.350
 7135SOL     OW23243  11.182  14.349   3.874
 7135SOL    HW123244  11.111  14.360   3.812
 7135SOL    HW223245  11.253  14.311   3.823
 7136SOL     OW23246   4.478   5.122   0.756
 7136SOL    HW123247   4.478   5.042   0.704
 7136SOL    HW223248   4.472   5.091   0.847
 7137SOL     OW23249   6.762  12.534   7.700
 7137SOL    HW123250   6.791  12.444   7.714
 7137SOL    HW223251   6.667  12.527   7.691
 7138SOL     OW23252   7.969   5.301  14.434
 7138SOL    HW123253   7.949   5.343  14.518
 7138SOL    HW223254   7.958   5.371  14.369
 7139SOL     OW23255   2.128  11.508   4.214
 7139SOL    HW123256   2.144  11.586   4.269
 7139SOL    HW223257   2.173  11.437   4.260
 7140SOL     OW23258   4.560   1.213   4.059
 7140SOL    HW123259   4.488   1.275   4.060
 7140SOL    HW223260   4.553   1.168   3.975
 7141SOL     OW23261   2.119   4.281   8.631
 7141SOL    HW123262   2.138   4.258   8.722
 7141SOL    HW223263   2.040   4.335   8.636
 7142SOL     OW23264   7.075   2.873   3.011
 7142SOL    HW123265   7.034   2.809   2.952
 7142SOL    HW223266   7.013   2.881   3.084
 7143SOL     OW23267   9.294   0.064   2.757
 7143SOL    HW123268   9.278   0.053   2.851
 7143SOL    HW223269   9.285  14.856   2.720
 7144SOL     OW23270  12.325  12.021   6.991
 7144SOL    HW123271  12.410  12.027   6.947
 7144SOL    HW223272  12.337  11.952   7.057
 7145SOL     OW23273   7.203  11.572  10.882
 7145SOL    HW123274   7.179  11.614  10.965
 7145SOL    HW223275   7.149  11.493  10.878
 7146SOL     OW23276   0.508   4.682  13.599
 7146SOL    HW123277   0.583   4.708  13.653
 7146SOL    HW223278   0.445   4.753  13.609
 7147SOL     OW23279   6.068   4.682  10.938
 7147SOL    HW123280   6.139   4.664  10.877
 7147SOL    HW223281   6.002   4.728  10.885
 7148SOL     OW23282   2.555  12.019   5.683
 7148SOL    HW123283   2.596  12.027   5.769
 7148SOL    HW223284   2.619  12.055   5.622
 7149SOL     OW23285   9.514  14.188  13.485
 7149SOL    HW123286   9.529  14.177  13.391
 7149SOL    HW223287   9.536  14.103  13.522
 7150SOL     OW23288   3.119   2.394   9.486
 7150SOL    HW123289   3.215   2.393   9.488
 7150SOL    HW223290   3.094   2.313   9.532
 7151SOL     OW23291   3.028  11.497   6.748
 7151SOL    HW123292   3.096  11.516   6.683
 7151SOL    HW223293   2.994  11.411   6.722
 7152SOL     OW23294   4.253  11.125  13.906
 7152SOL    HW123295   4.319  11.195  13.910
 7152SOL    HW223296   4.230  11.118  13.814
 7153SOL     OW23297  11.651  11.029   4.434
 7153SOL    HW123298  11.712  10.983   4.492
 7153SOL    HW223299  11.586  10.964   4.410
 7154SOL     OW23300  10.312   7.821   2.272
 7154SOL    HW123301  10.360   7.739   2.274
 7154SOL    HW223302  10.287   7.837   2.363
 7155SOL     OW23303   4.469   2.892   2.581
 7155SOL    HW123304   4.408   2.820   2.595
 7155SOL    HW223305   4.485   2.892   2.487
 7156SOL     OW23306   6.584  13.368   8.747
 7156SOL    HW123307   6.553  13.377   8.838
 7156SOL    HW223308   6.665  13.419   8.745
 7157SOL     OW23309   8.517   8.373   9.682
 7157SOL    HW123310   8.476   8.401   9.600
 7157SOL    HW223311   8.453   8.314   9.722
 7158SOL     OW23312  12.805  13.945   9.673
 7158SOL    HW123313  12.852  13.932   9.755
 7158SOL    HW223314  12.758  13.863   9.660
 7159SOL     OW23315   1.428   4.744   6.507
 7159SOL    HW123316   1.335   4.759   6.494
 7159SOL    HW223317   1.470   4.785   6.431
 7160SOL     OW23318   5.062   1.483   5.170
 7160SOL    HW123319   5.020   1.419   5.112
 7160SOL    HW223320   5.134   1.436   5.211
 7161SOL     OW23321   6.806   2.972   9.871
 7161SOL    HW123322   6.810   2.894   9.815
 7161SOL    HW223323   6.800   2.937   9.960
 7162SOL     OW23324   8.887   8.501  13.631
 7162SOL    HW123325   8.879   8.447  13.709
 7162SOL    HW223326   8.938   8.448  13.570
 7163SOL     OW23327  12.244  12.245  10.511
 7163SOL    HW123328  12.184  12.176  10.539
 7163SOL    HW223329  12.218  12.322  10.562
 7164SOL     OW23330   6.373   4.152   4.498
 7164SOL    HW123331   6.407   4.133   4.411
 7164SOL    HW223332   6.439   4.210   4.537
 7165SOL     OW23333  12.826  11.148   8.591
 7165SOL    HW123334  12.873  11.227   8.563
 7165SOL    HW223335  12.742  11.154   8.547
 7166SOL     OW23336  14.611   9.130   2.853
 7166SOL    HW123337  14.607   9.147   2.758
 7166SOL    HW223338  14.657   9.047   2.861
 7167SOL     OW23339   2.357   0.737   7.167
 7167SOL    HW123340   2.334   0.743   7.260
 7167SOL    HW223341   2.272   0.735   7.122
 7168SOL     OW23342   5.035   9.172   4.002
 7168SOL    HW123343   5.060   9.223   3.925
 7168SOL    HW223344   5.076   9.086   3.988
 7169SOL     OW23345  11.975  11.369   0.254
 7169SOL    HW123346  11.894  11.387   0.206
 7169SOL    HW223347  11.962  11.412   0.339
 7170SOL     OW23348   0.184   5.083  14.256
 7170SOL    HW123349   0.245   5.096  14.183
 7170SOL    HW223350   0.146   5.170  14.271
 7171SOL     OW23351  13.475  11.294   8.771
 7171SOL    HW123352  13.536  11.367   8.763
 7171SOL    HW223353  13.402  11.329   8.822
 7172SOL     OW23354  14.725   8.430   5.416
 7172SOL    HW123355  14.804   8.377   5.402
 7172SOL    HW223356  14.751   8.497   5.478
 7173SOL     OW23357   7.239   1.493   9.800
 7173SOL    HW123358   7.325   1.452   9.798
 7173SOL    HW223359   7.255   1.586   9.786
 7174SOL     OW23360   8.903   0.443  10.289
 7174SOL    HW123361   8.900   0.366  10.232
 7174SOL    HW223362   8.812   0.462  10.308
 7175SOL     OW23363   3.904   1.528   6.933
 7175SOL    HW123364   3.957   1.499   7.008
 7175SOL    HW223365   3.912   1.457   6.870
 7176SOL     OW23366   2.361   7.354   4.358
 7176SOL    HW123367   2.436   7.378   4.303
 7176SOL    HW223368   2.387   7.271   4.398
 7177SOL     OW23369   3.548  10.187   1.725
 7177SOL    HW123370   3.544  10.106   1.674
 7177SOL    HW223371   3.524  10.256   1.663
 7178SOL     OW23372   8.720   6.830   1.376
 7178SOL    HW123373   8.763   6.754   1.336
 7178SOL    HW223374   8.657   6.792   1.437
 7179SOL     OW23375   9.633  10.157   1.780
 7179SOL    HW123376   9.719  10.115   1.774
 7179SOL    HW223377   9.572  10.084   1.792
 7180SOL     OW23378  10.608   9.880  12.414
 7180SOL    HW123379  10.627   9.855  12.504
 7180SOL    HW223380  10.539   9.947  12.422
 7181SOL     OW23381   4.005   7.817   7.107
 7181SOL    HW123382   4.015   7.877   7.034
 7181SOL    HW223383   4.094   7.806   7.141
 7182SOL     OW23384   4.886   5.006   9.983
 7182SOL    HW123385   4.973   5.035   9.956
 7182SOL    HW223386   4.895   4.912   9.999
 7183SOL     OW23387   9.863  14.098  12.976
 7183SOL    HW123388   9.951  14.118  12.945
 7183SOL    HW223389   9.816  14.181  12.969
 7184SOL     OW23390   4.834   5.150  12.643
 7184SOL    HW123391   4.814   5.096  12.720
 7184SOL    HW223392   4.790   5.106  12.571
 7185SOL     OW23393  12.427   1.464  14.405
 7185SOL    HW123394  12.462   1.485  14.318
 7185SOL    HW223395  12.446   1.542  14.457
 7186SOL     OW23396   5.561   1.184   7.827
 7186SOL    HW123397   5.582   1.208   7.737
 7186SOL    HW223398   5.556   1.267   7.874
 7187SOL     OW23399   7.955  14.423   1.899
 7187SOL    HW123400   8.034  14.451   1.851
 7187SOL    HW223401   7.885  14.477   1.861
 7188SOL     OW23402   9.035  11.453   2.110
 7188SOL    HW123403   8.955  11.429   2.063
 7188SOL    HW223404   9.046  11.385   2.176
 7189SOL     OW23405   6.243  13.261  10.615
 7189SOL    HW123406   6.161  13.309  10.629
 7189SOL    HW223407   6.222  13.198  10.546
 7190SOL     OW23408   6.273   8.491   9.218
 7190SOL    HW123409   6.264   8.434   9.294
 7190SOL    HW223410   6.338   8.447   9.162
 7191SOL     OW23411  12.430  12.272   1.050
 7191SOL    HW123412  12.401  12.246   1.138
 7191SOL    HW223413  12.368  12.229   0.991
 7192SOL     OW23414   8.245   1.553  14.383
 7192SOL    HW123415   8.287   1.479  14.340
 7192SOL    HW223416   8.210   1.516  14.464
 7193SOL     OW23417   6.443   3.730   8.313
 7193SOL    HW123418   6.525   3.769   8.342
 7193SOL    HW223419   6.454   3.637   8.327
 7194SOL     OW23420   9.485  14.281   3.794
 7194SOL    HW123421   9.541  14.359   3.788
 7194SOL    HW223422   9.537  14.217   3.843
 7195SOL     OW23423   2.771  14.181   5.541
 7195SOL    HW123424   2.862  14.204   5.523
 7195SOL    HW223425   2.775  14.088   5.566
 7196SOL     OW23426   5.214  13.446   1.704
 7196SOL    HW123427   5.214  13.350   1.704
 7196SOL    HW223428   5.245  13.470   1.791
 7197SOL     OW23429   8.627   9.799   7.374
 7197SOL    HW123430   8.684   9.728   7.405
 7197SOL    HW223431   8.543   9.757   7.357
 7198SOL     OW23432  11.830  14.842  14.631
 7198SOL    HW123433  11.746  14.869  14.593
 7198SOL    HW223434  11.841  14.751  14.602
 7199SOL     OW23435   1.585  11.852   7.091
 7199SOL    HW123436   1.606  11.917   7.024
 7199SOL    HW223437   1.670  11.830   7.130
 7200SOL     OW23438  12.123   0.798  14.208
 7200SOL    HW123439  12.204   0.752  14.186
 7200SOL    HW223440  12.107   0.775  14.300
 7201SOL     OW23441   7.099   2.808   0.725
 7201SOL    HW123442   7.142   2.801   0.640
 7201SOL    HW223443   7.154   2.868   0.775
 7202SOL     OW23444   3.607   9.852  12.674
 7202SOL    HW123445   3.609   9.945  12.650
 7202SOL    HW223446   3.659   9.809  12.606
 7203SOL     OW23447   4.152   9.570   0.029
 7203SOL    HW123448   4.197   9.596  14.828
 7203SOL    HW223449   4.178   9.479   0.041
 7204SOL     OW23450  11.402   8.878   6.495
 7204SOL    HW123451  11.374   8.848   6.582
 7204SOL    HW223452  11.326   8.864   6.439
 7205SOL     OW23453   5.074   2.416   1.929
 7205SOL    HW123454   5.128   2.364   1.869
 7205SOL    HW223455   5.068   2.502   1.888
 7206SOL     OW23456  11.932  14.500  13.411
 7206SOL    HW123457  11.970  14.569  13.465
 7206SOL    HW223458  11.839  14.501  13.432
 7207SOL     OW23459  11.468  11.389   1.717
 7207SOL    HW123460  11.489  11.324   1.650
 7207SOL    HW223461  11.540  11.382   1.780
 7208SOL     OW23462   4.242  13.734   2.405
 7208SOL    HW123463   4.236  13.648   2.362
 7208SOL    HW223464   4.311  13.780   2.356
 7209SOL     OW23465   9.367   0.707  10.995
 7209SOL    HW123466   9.371   0.641  11.064
 7209SOL    HW223467   9.451   0.702  10.951
 7210SOL     OW23468   9.789  13.058  10.991
 7210SOL    HW123469   9.858  13.124  10.998
 7210SOL    HW223470   9.746  13.060  11.077
 7211SOL     OW23471   6.060   6.321  10.883
 7211SOL    HW123472   6.129   6.269  10.924
 7211SOL    HW223473   6.034   6.384  10.950
 7212SOL     OW23474   3.141   2.037  11.589
 7212SOL    HW123475   3.198   2.016  11.663
 7212SOL    HW223476   3.196   2.087  11.529
 7213SOL     OW23477  11.084   1.166   4.938
 7213SOL    HW123478  11.039   1.110   4.874
 7213SOL    HW223479  11.171   1.180   4.901
 7214SOL     OW23480   6.840   3.404   9.045
 7214SOL    HW123481   6.746   3.389   9.043
 7214SOL    HW223482   6.853   3.470   9.114
 7215SOL     OW23483  11.981   3.971   8.117
 7215SOL    HW123484  11.948   4.027   8.187
 7215SOL    HW223485  11.952   3.883   8.140
 7216SOL     OW23486   3.801  13.483   9.500
 7216SOL    HW123487   3.843  13.553   9.450
 7216SOL    HW223488   3.708  13.490   9.478
 7217SOL     OW23489   2.613   5.800   3.029
 7217SOL    HW123490   2.621   5.732   3.095
 7217SOL    HW223491   2.595   5.880   3.078
 7218SOL     OW23492   4.912   6.131   9.984
 7218SOL    HW123493   4.916   6.225   9.999
 7218SOL    HW223494   4.893   6.122   9.891
 7219SOL     OW23495   6.287   5.578   9.657
 7219SOL    HW123496   6.251   5.582   9.569
 7219SOL    HW223497   6.371   5.624   9.650
 7220SOL     OW23498   3.847   5.731  14.455
 7220SOL    HW123499   3.786   5.790  14.498
 7220SOL    HW223500   3.930   5.779  14.452
 7221SOL     OW23501   0.664   7.361  12.849
 7221SOL    HW123502   0.713   7.283  12.825
 7221SOL    HW223503   0.593   7.366  12.784
 7222SOL     OW23504  13.837  14.323  11.569
 7222SOL    HW123505  13.886  14.363  11.497
 7222SOL    HW223506  13.787  14.395  11.607
 7223SOL     OW23507   4.267   1.914   6.185
 7223SOL    HW123508   4.316   1.840   6.223
 7223SOL    HW223509   4.183   1.876   6.161
 7224SOL     OW23510  14.690   2.824  11.771
 7224SOL    HW123511  14.608   2.799  11.813
 7224SOL    HW223512  14.757   2.776  11.818
 7225SOL     OW23513  13.499   7.799   7.924
 7225SOL    HW123514  13.528   7.729   7.866
 7225SOL    HW223515  13.405   7.784   7.935
 7226SOL     OW23516   9.577  14.465   3.531
 7226SOL    HW123517   9.603  14.502   3.615
 7226SOL    HW223518   9.655  14.419   3.500
 7227SOL     OW23519   3.650   1.503   1.678
 7227SOL    HW123520   3.709   1.437   1.643
 7227SOL    HW223521   3.651   1.489   1.773
 7228SOL     OW23522   7.759   5.610   4.104
 7228SOL    HW123523   7.677   5.568   4.078
 7228SOL    HW223524   7.754   5.698   4.066
 7229SOL     OW23525  10.598  12.847  12.756
 7229SOL    HW123526  10.566  12.817  12.841
 7229SOL    HW223527  10.519  12.873  12.709
 7230SOL     OW23528   3.608   8.041   9.483
 7230SOL    HW123529   3.604   8.124   9.435
 7230SOL    HW223530   3.558   7.980   9.429
 7231SOL     OW23531   0.887   0.549   7.144
 7231SOL    HW123532   0.792   0.553   7.146
 7231SOL    HW223533   0.915   0.607   7.215
 7232SOL     OW23534  13.825   0.969   1.482
 7232SOL    HW123535  13.854   1.045   1.432
 7232SOL    HW223536  13.736   0.990   1.509
 7233SOL     OW23537  10.574   5.929   3.632
 7233SOL    HW123538  10.597   5.979   3.554
 7233SOL    HW223539  10.506   5.868   3.603
 7234SOL     OW23540   6.136   1.553   7.742
 7234SOL    HW123541   6.176   1.556   7.655
 7234SOL    HW223542   6.052   1.598   7.731
 7235SOL     OW23543   1.557  10.353   1.983
 7235SOL    HW123544   1.488  10.302   1.940
 7235SOL    HW223545   1.555  10.324   2.074
 7236SOL     OW23546   5.265   9.234   0.023
 7236SOL    HW123547   5.225   9.152  14.873
 7236SOL    HW223548   5.336   9.250  14.839
 7237SOL     OW23549   1.844   7.465   8.616
 7237SOL    HW123550   1.907   7.523   8.657
 7237SOL    HW223551   1.890   7.428   8.541
 7238SOL     OW23552   4.250   1.290  13.508
 7238SOL    HW123553   4.332   1.254  13.542
 7238SOL    HW223554   4.205   1.324  13.585
 7239SOL     OW23555  12.010   0.627   1.369
 7239SOL    HW123556  12.055   0.657   1.448
 7239SOL    HW223557  11.920   0.657   1.380
 7240SOL     OW23558   7.041   0.320   6.439
 7240SOL    HW123559   7.025   0.231   6.409
 7240SOL    HW223560   7.136   0.331   6.432
 7241SOL     OW23561  10.547  13.642   5.993
 7241SOL    HW123562  10.487  13.716   5.981
 7241SOL    HW223563  10.529  13.610   6.082
 7242SOL     OW23564   7.073  12.169  14.224
 7242SOL    HW123565   7.004  12.159  14.159
 7242SOL    HW223566   7.135  12.230  14.184
 7243SOL     OW23567   7.184  13.710  10.621
 7243SOL    HW123568   7.091  13.711  10.643
 7243SOL    HW223569   7.198  13.791  10.571
 7244SOL     OW23570   9.896   0.850  13.246
 7244SOL    HW123571   9.868   0.816  13.161
 7244SOL    HW223572   9.961   0.787  13.277
 7245SOL     OW23573   4.587   6.129   2.282
 7245SOL    HW123574   4.677   6.117   2.252
 7245SOL    HW223575   4.582   6.075   2.361
 7246SOL     OW23576  14.810  13.036   4.438
 7246SOL    HW123577  14.751  13.081   4.378
 7246SOL    HW223578  14.755  13.014   4.513
 7247SOL     OW23579   7.297   0.757  13.736
 7247SOL    HW123580   7.314   0.762  13.830
 7247SOL    HW223581   7.235   0.685  13.727
 7248SOL     OW23582   6.932   4.745  11.051
 7248SOL    HW123583   6.878   4.810  11.097
 7248SOL    HW223584   6.944   4.782  10.963
 7249SOL     OW23585   3.099   2.265  10.146
 7249SOL    HW123586   3.190   2.287  10.166
 7249SOL    HW223587   3.100   2.239  10.054
 7250SOL     OW23588   0.552  12.721   9.126
 7250SOL    HW123589   0.508  12.751   9.206
 7250SOL    HW223590   0.590  12.637   9.150
 7251SOL     OW23591   4.418   4.359  13.296
 7251SOL    HW123592   4.398   4.395  13.383
 7251SOL    HW223593   4.376   4.273  13.296
 7252SOL     OW23594  11.128   7.403   9.540
 7252SOL    HW123595  11.044   7.359   9.551
 7252SOL    HW223596  11.173   7.352   9.472
 7253SOL     OW23597   8.822   4.460   3.302
 7253SOL    HW123598   8.842   4.551   3.324
 7253SOL    HW223599   8.727   4.457   3.296
 7254SOL     OW23600   1.043   3.336   7.696
 7254SOL    HW123601   1.120   3.280   7.706
 7254SOL    HW223602   1.074   3.424   7.719
 7255SOL     OW23603  11.909  14.768   0.996
 7255SOL    HW123604  11.913  14.676   1.024
 7255SOL    HW223605  11.823  14.797   1.024
 7256SOL     OW23606   3.645   7.382  11.529
 7256SOL    HW123607   3.644   7.445  11.456
 7256SOL    HW223608   3.736   7.382  11.558
 7257SOL     OW23609  10.442   3.121   6.924
 7257SOL    HW123610  10.351   3.090   6.928
 7257SOL    HW223611  10.438   3.199   6.868
 7258SOL     OW23612   7.305   9.050  12.202
 7258SOL    HW123613   7.360   9.063  12.279
 7258SOL    HW223614   7.361   9.076  12.128
 7259SOL     OW23615   9.576  11.564  13.294
 7259SOL    HW123616   9.607  11.476  13.318
 7259SOL    HW223617   9.550  11.604  13.378
 7260SOL     OW23618   7.054   0.584   4.186
 7260SOL    HW123619   7.130   0.564   4.241
 7260SOL    HW223620   7.025   0.499   4.154
 7261SOL     OW23621   0.293   1.224   5.960
 7261SOL    HW123622   0.381   1.186   5.950
 7261SOL    HW223623   0.249   1.204   5.877
 7262SOL     OW23624  12.477  11.882   6.438
 7262SOL    HW123625  12.553  11.886   6.380
 7262SOL    HW223626  12.444  11.972   6.441
 7263SOL     OW23627  10.575  13.540   4.178
 7263SOL    HW123628  10.627  13.613   4.211
 7263SOL    HW223629  10.530  13.506   4.256
 7264SOL     OW23630   3.605   5.691   1.347
 7264SOL    HW123631   3.663   5.624   1.309
 7264SOL    HW223632   3.644   5.710   1.433
 7265SOL     OW23633  12.433   5.256   7.548
 7265SOL    HW123634  12.465   5.217   7.467
 7265SOL    HW223635  12.348   5.214   7.563
 7266SOL     OW23636   8.676   9.500  10.531
 7266SOL    HW123637   8.602   9.448  10.502
 7266SOL    HW223638   8.739   9.437  10.565
 7267SOL     OW23639   0.105   4.928   8.311
 7267SOL    HW123640   0.084   4.848   8.360
 7267SOL    HW223641   0.135   4.989   8.378
 7268SOL     OW23642   8.639   6.811   9.594
 7268SOL    HW123643   8.629   6.720   9.568
 7268SOL    HW223644   8.550   6.843   9.607
 7269SOL     OW23645  11.927   7.445   4.858
 7269SOL    HW123646  11.995   7.418   4.920
 7269SOL    HW223647  11.892   7.526   4.895
 7270SOL     OW23648   4.079  10.839   0.412
 7270SOL    HW123649   4.022  10.881   0.348
 7270SOL    HW223650   4.100  10.754   0.374
 7271SOL     OW23651  12.230  10.996   8.750
 7271SOL    HW123652  12.173  11.051   8.803
 7271SOL    HW223653  12.173  10.958   8.683
 7272SOL     OW23654   4.698  13.714  13.362
 7272SOL    HW123655   4.716  13.769  13.287
 7272SOL    HW223656   4.607  13.685  13.349
 7273SOL     OW23657   0.489   9.917  10.611
 7273SOL    HW123658   0.486  10.008  10.639
 7273SOL    HW223659   0.530   9.871  10.684
 7274SOL     OW23660  12.739   8.705   0.082
 7274SOL    HW123661  12.773   8.624   0.120
 7274SOL    HW223662  12.645   8.702   0.096
 7275SOL     OW23663  11.765   9.719   0.525
 7275SOL    HW123664  11.799   9.764   0.447
 7275SOL    HW223665  11.709   9.784   0.567
 7276SOL     OW23666   3.739   4.066  10.508
 7276SOL    HW123667   3.804   4.120  10.463
 7276SOL    HW223668   3.783   3.982  10.522
 7277SOL     OW23669   3.189  12.658  14.200
 7277SOL    HW123670   3.230  12.648  14.114
 7277SOL    HW223671   3.105  12.612  14.193
 7278SOL     OW23672   2.061   9.864  13.113
 7278SOL    HW123673   2.120   9.788  13.122
 7278SOL    HW223674   1.976   9.826  13.094
 7279SOL     OW23675   9.946  14.712  12.653
 7279SOL    HW123676   9.858  14.708  12.615
 7279SOL    HW223677   9.950  14.798  12.694
 7280SOL     OW23678   8.564   1.025   4.982
 7280SOL    HW123679   8.605   1.050   4.899
 7280SOL    HW223680   8.637   0.991   5.035
 7281SOL     OW23681   4.207   9.894   3.500
 7281SOL    HW123682   4.250   9.951   3.564
 7281SOL    HW223683   4.193   9.811   3.547
 7282SOL     OW23684   2.022   7.807   6.684
 7282SOL    HW123685   1.949   7.798   6.622
 7282SOL    HW223686   2.100   7.789   6.631
 7283SOL     OW23687   9.430   7.501  12.216
 7283SOL    HW123688   9.522   7.528  12.224
 7283SOL    HW223689   9.421   7.477  12.124
 7284SOL     OW23690   5.647   4.861   9.548
 7284SOL    HW123691   5.629   4.840   9.640
 7284SOL    HW223692   5.715   4.799   9.522
 7285SOL     OW23693   0.488  12.977   4.938
 7285SOL    HW123694   0.542  12.900   4.918
 7285SOL    HW223695   0.550  13.042   4.970
 7286SOL     OW23696  10.480   5.471   6.461
 7286SOL    HW123697  10.540   5.397   6.462
 7286SOL    HW223698  10.410   5.444   6.401
 7287SOL     OW23699   2.673   5.180   0.911
 7287SOL    HW123700   2.668   5.186   0.816
 7287SOL    HW223701   2.721   5.099   0.929
 7288SOL     OW23702   2.298   0.797  13.524
 7288SOL    HW123703   2.342   0.880  13.504
 7288SOL    HW223704   2.369   0.733  13.527
 7289SOL     OW23705  12.703   9.184   0.040
 7289SOL    HW123706  12.618   9.140   0.050
 7289SOL    HW223707  12.765   9.112   0.026
 7290SOL     OW23708   2.686   8.983   0.169
 7290SOL    HW123709   2.705   8.893   0.143
 7290SOL    HW223710   2.593   8.995   0.151
 7291SOL     OW23711   8.937   4.372   8.482
 7291SOL    HW123712   8.897   4.393   8.398
 7291SOL    HW223713   8.940   4.276   8.485
 7292SOL     OW23714  12.736  11.231   4.735
 7292SOL    HW123715  12.762  11.157   4.681
 7292SOL    HW223716  12.643  11.219   4.750
 7293SOL     OW23717   1.319   4.393  10.999
 7293SOL    HW123718   1.245   4.354  11.045
 7293SOL    HW223719   1.362   4.319  10.956
 7294SOL     OW23720   8.633   5.869   7.634
 7294SOL    HW123721   8.695   5.897   7.566
 7294SOL    HW223722   8.645   5.931   7.705
 7295SOL     OW23723  12.841   9.270   0.413
 7295SOL    HW123724  12.800   9.205   0.471
 7295SOL    HW223725  12.769   9.326   0.385
 7296SOL     OW23726   0.945   3.861  14.225
 7296SOL    HW123727   0.883   3.793  14.196
 7296SOL    HW223728   0.981   3.896  14.144
 7297SOL     OW23729   9.066   2.050   4.164
 7297SOL    HW123730   9.037   2.137   4.136
 7297SOL    HW223731   9.153   2.065   4.202
 7298SOL     OW23732   8.889   8.975   6.550
 7298SOL    HW123733   8.936   8.965   6.633
 7298SOL    HW223734   8.931   9.050   6.508
 7299SOL     OW23735   4.940   2.958   3.417
 7299SOL    HW123736   4.872   2.941   3.351
 7299SOL    HW223737   4.983   2.873   3.428
 7300SOL     OW23738   2.803  11.375   0.930
 7300SOL    HW123739   2.808  11.327   0.848
 7300SOL    HW223740   2.770  11.312   0.994
 7301SOL     OW23741  13.070   1.699   9.813
 7301SOL    HW123742  13.071   1.778   9.868
 7301SOL    HW223743  13.022   1.725   9.735
 7302SOL     OW23744  13.166  11.819   9.415
 7302SOL    HW123745  13.074  11.792   9.407
 7302SOL    HW223746  13.210  11.776   9.341
 7303SOL     OW23747   6.249  11.356   6.965
 7303SOL    HW123748   6.271  11.264   6.954
 7303SOL    HW223749   6.201  11.360   7.048
 7304SOL     OW23750   9.725   7.850   0.911
 7304SOL    HW123751   9.811   7.869   0.872
 7304SOL    HW223752   9.684   7.936   0.921
 7305SOL     OW23753   9.773   7.519   2.993
 7305SOL    HW123754   9.721   7.554   2.921
 7305SOL    HW223755   9.810   7.597   3.035
 7306SOL     OW23756   1.089   7.003   1.913
 7306SOL    HW123757   1.145   6.925   1.915
 7306SOL    HW223758   1.025   6.984   1.844
 7307SOL     OW23759   1.741   1.760  13.038
 7307SOL    HW123760   1.808   1.808  12.988
 7307SOL    HW223761   1.790   1.716  13.107
 7308SOL     OW23762   7.979   0.582   8.040
 7308SOL    HW123763   7.988   0.562   7.946
 7308SOL    HW223764   8.038   0.656   8.054
 7309SOL     OW23765  14.403  13.143   9.292
 7309SOL    HW123766  14.357  13.222   9.264
 7309SOL    HW223767  14.365  13.073   9.239
 7310SOL     OW23768   8.305  12.789  14.499
 7310SOL    HW123769   8.399  12.774  14.510
 7310SOL    HW223770   8.266  12.761  14.581
 7311SOL     OW23771  10.958   5.569  11.222
 7311SOL    HW123772  11.025   5.626  11.185
 7311SOL    HW223773  10.921   5.522  11.146
 7312SOL     OW23774   7.394   8.852   5.576
 7312SOL    HW123775   7.444   8.785   5.529
 7312SOL    HW223776   7.375   8.918   5.509
 7313SOL     OW23777   4.733   4.397   7.770
 7313SOL    HW123778   4.687   4.480   7.781
 7313SOL    HW223779   4.703   4.364   7.685
 7314SOL     OW23780  14.075  14.341   8.742
 7314SOL    HW123781  14.159  14.315   8.705
 7314SOL    HW223782  14.068  14.435   8.724
 7315SOL     OW23783  11.149  14.500   4.968
 7315SOL    HW123784  11.200  14.505   5.049
 7315SOL    HW223785  11.151  14.588   4.933
 7316SOL     OW23786  14.760   4.386  10.500
 7316SOL    HW123787  14.822   4.450  10.537
 7316SOL    HW223788  14.752   4.319  10.568
 7317SOL     OW23789  12.559  13.101   9.691
 7317SOL    HW123790  12.638  13.050   9.674
 7317SOL    HW223791  12.496  13.069   9.627
 7318SOL     OW23792   1.842   1.557  12.529
 7318SOL    HW123793   1.846   1.564  12.433
 7318SOL    HW223794   1.812   1.467  12.545
 7319SOL     OW23795   1.128  10.818  12.973
 7319SOL    HW123796   1.156  10.864  12.895
 7319SOL    HW223797   1.041  10.784  12.951
 7320SOL     OW23798   6.906  14.372  12.834
 7320SOL    HW123799   6.906  14.455  12.786
 7320SOL    HW223800   6.818  14.338  12.823
 7321SOL     OW23801   7.712  12.749  12.573
 7321SOL    HW123802   7.802  12.716  12.584
 7321SOL    HW223803   7.665  12.717  12.650
 7322SOL     OW23804   1.653   0.767   5.209
 7322SOL    HW123805   1.584   0.792   5.271
 7322SOL    HW223806   1.705   0.703   5.257
 7323SOL     OW23807  12.259   9.681  10.681
 7323SOL    HW123808  12.315   9.745  10.638
 7323SOL    HW223809  12.247   9.611  10.617
 7324SOL     OW23810  12.141   2.129   6.067
 7324SOL    HW123811  12.066   2.167   6.021
 7324SOL    HW223812  12.118   2.135   6.160
 7325SOL     OW23813   4.427   8.779   5.765
 7325SOL    HW123814   4.374   8.764   5.687
 7325SOL    HW223815   4.368   8.759   5.838
 7326SOL     OW23816   4.342  10.667  11.316
 7326SOL    HW123817   4.316  10.720  11.392
 7326SOL    HW223818   4.347  10.730  11.244
 7327SOL     OW23819   3.767  12.033   9.848
 7327SOL    HW123820   3.751  11.940   9.831
 7327SOL    HW223821   3.788  12.070   9.762
 7328SOL     OW23822  14.139  10.640   0.885
 7328SOL    HW123823  14.220  10.599   0.917
 7328SOL    HW223824  14.157  10.657   0.792
 7329SOL     OW23825   6.881   4.752   6.494
 7329SOL    HW123826   6.826   4.831   6.493
 7329SOL    HW223827   6.929   4.756   6.412
 7330SOL     OW23828   1.699   5.006   1.834
 7330SOL    HW123829   1.766   5.073   1.848
 7330SOL    HW223830   1.740   4.925   1.866
 7331SOL     OW23831   1.581   1.893  11.779
 7331SOL    HW123832   1.532   1.874  11.859
 7331SOL    HW223833   1.521   1.869  11.708
 7332SOL     OW23834   8.420  14.204   2.504
 7332SOL    HW123835   8.499  14.241   2.465
 7332SOL    HW223836   8.448  14.170   2.589
 7333SOL     OW23837   7.568   5.859   8.512
 7333SOL    HW123838   7.649   5.808   8.509
 7333SOL    HW223839   7.596   5.947   8.536
 7334SOL     OW23840   4.354  13.385   8.012
 7334SOL    HW123841   4.304  13.342   7.943
 7334SOL    HW223842   4.443  13.350   8.002
 7335SOL     OW23843  10.469   9.237  10.135
 7335SOL    HW123844  10.468   9.191  10.219
 7335SOL    HW223845  10.549   9.205  10.091
 7336SOL     OW23846  12.207   5.077   9.621
 7336SOL    HW123847  12.292   5.114   9.646
 7336SOL    HW223848  12.145   5.148   9.634
 7337SOL     OW23849  11.687   1.266   5.576
 7337SOL    HW123850  11.666   1.250   5.668
 7337SOL    HW223851  11.720   1.183   5.543
 7338SOL     OW23852   2.184  14.741   3.702
 7338SOL    HW123853   2.194  14.738   3.797
 7338SOL    HW223854   2.274  14.739   3.669
 7339SOL     OW23855   3.533  13.965   1.353
 7339SOL    HW123856   3.516  13.931   1.265
 7339SOL    HW223857   3.472  14.038   1.362
 7340SOL     OW23858   9.941   0.874  14.843
 7340SOL    HW123859   9.863   0.864   0.018
 7340SOL    HW223860   9.953   0.969  14.836
 7341SOL     OW23861  13.788  12.340  13.504
 7341SOL    HW123862  13.853  12.320  13.571
 7341SOL    HW223863  13.705  12.308  13.541
 7342SOL     OW23864   5.307  10.451   7.205
 7342SOL    HW123865   5.376  10.438   7.271
 7342SOL    HW223866   5.273  10.364   7.189
 7343SOL     OW23867  14.358   0.694  10.966
 7343SOL    HW123868  14.333   0.785  10.951
 7343SOL    HW223869  14.381   0.661  10.879
 7344SOL     OW23870   0.375   2.670   3.875
 7344SOL    HW123871   0.309   2.602   3.891
 7344SOL    HW223872   0.326   2.751   3.872
 7345SOL     OW23873   1.893   0.940   4.474
 7345SOL    HW123874   1.866   0.849   4.462
 7345SOL    HW223875   1.833   0.975   4.539
 7346SOL     OW23876   2.774   6.786   9.121
 7346SOL    HW123877   2.808   6.868   9.085
 7346SOL    HW223878   2.834   6.719   9.088
 7347SOL     OW23879  10.942  11.615   3.199
 7347SOL    HW123880  10.913  11.526   3.218
 7347SOL    HW223881  11.031  11.619   3.234
 7348SOL     OW23882   6.238   1.701   1.856
 7348SOL    HW123883   6.242   1.781   1.803
 7348SOL    HW223884   6.289   1.637   1.807
 7349SOL     OW23885   7.292  12.715   1.467
 7349SOL    HW123886   7.250  12.634   1.496
 7349SOL    HW223887   7.339  12.691   1.387
 7350SOL     OW23888  13.984   5.551   5.758
 7350SOL    HW123889  13.981   5.644   5.733
 7350SOL    HW223890  13.944   5.505   5.685
 7351SOL     OW23891   3.644   2.867   7.357
 7351SOL    HW123892   3.737   2.885   7.347
 7351SOL    HW223893   3.604   2.954   7.365
 7352SOL     OW23894   4.195  12.356   3.973
 7352SOL    HW123895   4.248  12.276   3.982
 7352SOL    HW223896   4.257  12.427   3.988
 7353SOL     OW23897  12.103   2.407  11.952
 7353SOL    HW123898  12.154   2.368  11.881
 7353SOL    HW223899  12.168   2.455  12.005
 7354SOL     OW23900   4.875   7.121   8.104
 7354SOL    HW123901   4.932   7.163   8.169
 7354SOL    HW223902   4.867   7.031   8.134
 7355SOL     OW23903   8.669   6.707   9.145
 7355SOL    HW123904   8.602   6.753   9.196
 7355SOL    HW223905   8.714   6.653   9.210
 7356SOL     OW23906   7.133   1.569   0.598
 7356SOL    HW123907   7.202   1.635   0.598
 7356SOL    HW223908   7.138   1.529   0.511
 7357SOL     OW23909   4.588  12.090   6.468
 7357SOL    HW123910   4.609  12.011   6.418
 7357SOL    HW223911   4.642  12.085   6.546
 7358SOL     OW23912   7.600   5.791   9.761
 7358SOL    HW123913   7.575   5.700   9.779
 7358SOL    HW223914   7.550   5.814   9.682
 7359SOL     OW23915  14.773  11.498   3.176
 7359SOL    HW123916  14.700  11.436   3.169
 7359SOL    HW223917  14.805  11.508   3.086
 7360SOL     OW23918  13.722  11.339   9.742
 7360SOL    HW123919  13.778  11.262   9.730
 7360SOL    HW223920  13.723  11.355   9.836
 7361SOL     OW23921  10.847   7.973   5.514
 7361SOL    HW123922  10.914   7.907   5.495
 7361SOL    HW223923  10.768   7.922   5.535
 7362SOL     OW23924   7.318   5.499  14.848
 7362SOL    HW123925   7.362   5.584  14.857
 7362SOL    HW223926   7.317   5.482  14.754
 7363SOL     OW23927   5.116   4.086  10.645
 7363SOL    HW123928   5.057   4.126  10.709
 7363SOL    HW223929   5.135   3.999  10.681
 7364SOL     OW23930   5.393   6.620   3.473
 7364SOL    HW123931   5.482   6.644   3.448
 7364SOL    HW223932   5.393   6.623   3.568
 7365SOL     OW23933  13.662   7.284   6.890
 7365SOL    HW123934  13.612   7.206   6.916
 7365SOL    HW223935  13.633   7.302   6.801
 7366SOL     OW23936   9.847  14.161   0.704
 7366SOL    HW123937   9.875  14.236   0.652
 7366SOL    HW223938   9.928  14.125   0.739
 7367SOL     OW23939  14.622   9.495  13.002
 7367SOL    HW123940  14.581   9.530  12.923
 7367SOL    HW223941  14.635   9.402  12.983
 7368SOL     OW23942   8.555   3.774  14.872
 7368SOL    HW123943   8.494   3.722  14.819
 7368SOL    HW223944   8.634   3.721  14.877
 7369SOL     OW23945   5.913   8.930  12.832
 7369SOL    HW123946   5.925   9.022  12.858
 7369SOL    HW223947   5.890   8.935  12.739
 7370SOL     OW23948  12.370   0.688  14.096
 7370SOL    HW123949  12.457   0.728  14.107
 7370SOL    HW223950  12.361   0.629  14.171
 7371SOL     OW23951  11.958  13.019   3.179
 7371SOL    HW123952  11.921  12.957   3.116
 7371SOL    HW223953  11.978  13.097   3.128
 7372SOL     OW23954   5.594   3.729   4.597
 7372SOL    HW123955   5.621   3.641   4.569
 7372SOL    HW223956   5.518   3.749   4.543
 7373SOL     OW23957   5.427   5.571   6.611
 7373SOL    HW123958   5.382   5.487   6.623
 7373SOL    HW223959   5.520   5.549   6.618
 7374SOL     OW23960   4.830  13.494   6.631
 7374SOL    HW123961   4.851  13.407   6.596
 7374SOL    HW223962   4.744  13.483   6.672
 7375SOL     OW23963   8.151   2.987  12.384
 7375SOL    HW123964   8.110   2.974  12.299
 7375SOL    HW223965   8.185   2.900  12.407
 7376SOL     OW23966  10.820   6.973   5.856
 7376SOL    HW123967  10.750   6.921   5.897
 7376SOL    HW223968  10.900   6.925   5.876
 7377SOL     OW23969   0.391  12.948   7.536
 7377SOL    HW123970   0.345  13.025   7.501
 7377SOL    HW223971   0.367  12.878   7.476
 7378SOL     OW23972   0.396   6.943  12.496
 7378SOL    HW123973   0.471   7.000  12.511
 7378SOL    HW223974   0.420   6.892  12.419
 7379SOL     OW23975   2.707  11.911   2.277
 7379SOL    HW123976   2.741  11.989   2.234
 7379SOL    HW223977   2.688  11.850   2.206
 7380SOL     OW23978  12.132   4.457   0.081
 7380SOL    HW123979  12.127   4.405   0.161
 7380SOL    HW223980  12.222   4.445   0.051
 7381SOL     OW23981  11.739  14.113   7.006
 7381SOL    HW123982  11.669  14.159   6.959
 7381SOL    HW223983  11.786  14.065   6.937
 7382SOL     OW23984   5.502  13.867   6.906
 7382SOL    HW123985   5.487  13.789   6.852
 7382SOL    HW223986   5.420  13.916   6.898
 7383SOL     OW23987   9.408  12.508   6.265
 7383SOL    HW123988   9.364  12.561   6.199
 7383SOL    HW223989   9.443  12.572   6.327
 7384SOL     OW23990  11.033   7.286   0.072
 7384SOL    HW123991  11.070   7.207   0.034
 7384SOL    HW223992  10.939   7.281   0.052
 7385SOL     OW23993   9.740   4.454   1.497
 7385SOL    HW123994   9.647   4.438   1.512
 7385SOL    HW223995   9.745   4.484   1.406
 7386SOL     OW23996   5.340   9.063   5.446
 7386SOL    HW123997   5.425   9.104   5.465
 7386SOL    HW223998   5.310   9.032   5.532
 7387SOL     OW23999  14.610   8.740   7.978
 7387SOL    HW124000  14.585   8.825   7.943
 7387SOL    HW224001  14.605   8.751   8.073
 7388SOL     OW24002  13.997   3.529  10.634
 7388SOL    HW124003  13.956   3.605  10.676
 7388SOL    HW224004  14.043   3.484  10.706
 7389SOL     OW24005   7.265   4.952   2.341
 7389SOL    HW124006   7.343   4.989   2.300
 7389SOL    HW224007   7.271   4.858   2.325
 7390SOL     OW24008   2.248   6.032   3.812
 7390SOL    HW124009   2.218   6.082   3.736
 7390SOL    HW224010   2.175   6.034   3.873
 7391SOL     OW24011   9.678   1.724  13.148
 7391SOL    HW124012   9.607   1.678  13.193
 7391SOL    HW224013   9.702   1.795  13.207
 7392SOL     OW24014  11.215  10.605  14.865
 7392SOL    HW124015  11.163  10.525  14.860
 7392SOL    HW224016  11.228  10.620   0.079
 7393SOL     OW24017   8.461   3.417   9.281
 7393SOL    HW124018   8.458   3.451   9.192
 7393SOL    HW224019   8.483   3.324   9.271
 7394SOL     OW24020   3.640   6.854   5.782
 7394SOL    HW124021   3.677   6.930   5.736
 7394SOL    HW224022   3.688   6.851   5.865
 7395SOL     OW24023   7.732   8.837   8.394
 7395SOL    HW124024   7.790   8.902   8.355
 7395SOL    HW224025   7.667   8.819   8.327
 7396SOL     OW24026  14.362  13.273   6.081
 7396SOL    HW124027  14.401  13.195   6.120
 7396SOL    HW224028  14.300  13.305   6.146
 7397SOL     OW24029   5.190  12.911  10.901
 7397SOL    HW124030   5.262  12.905  10.964
 7397SOL    HW224031   5.139  12.831  10.915
 7398SOL     OW24032  11.497  12.806   2.304
 7398SOL    HW124033  11.485  12.899   2.285
 7398SOL    HW224034  11.534  12.770   2.223
 7399SOL     OW24035   4.645  13.898   2.636
 7399SOL    HW124036   4.669  13.983   2.673
 7399SOL    HW224037   4.705  13.836   2.676
 7400SOL     OW24038   1.700  10.225   6.786
 7400SOL    HW124039   1.626  10.279   6.759
 7400SOL    HW224040   1.737  10.271   6.862
 7401SOL     OW24041  12.090  10.714  10.861
 7401SOL    HW124042  12.115  10.746  10.775
 7401SOL    HW224043  12.109  10.786  10.921
 7402SOL     OW24044  12.612   7.769  12.590
 7402SOL    HW124045  12.618   7.731  12.502
 7402SOL    HW224046  12.701   7.797  12.610
 7403SOL     OW24047   8.934   3.542   5.138
 7403SOL    HW124048   8.991   3.465   5.135
 7403SOL    HW224049   8.856   3.514   5.186
 7404SOL     OW24050   4.404   1.416   1.927
 7404SOL    HW124051   4.496   1.431   1.952
 7404SOL    HW224052   4.361   1.499   1.947
 7405SOL     OW24053   1.087   1.670   0.975
 7405SOL    HW124054   1.154   1.738   0.986
 7405SOL    HW224055   1.043   1.667   1.060
 7406SOL     OW24056   0.966  13.249   9.672
 7406SOL    HW124057   0.995  13.339   9.686
 7406SOL    HW224058   1.041  13.195   9.697
 7407SOL     OW24059   8.323   8.865   2.172
 7407SOL    HW124060   8.326   8.878   2.077
 7407SOL    HW224061   8.231   8.877   2.195
 7408SOL     OW24062   6.519   1.171  12.875
 7408SOL    HW124063   6.428   1.183  12.903
 7408SOL    HW224064   6.563   1.253  12.899
 7409SOL     OW24065   2.795   7.113   6.286
 7409SOL    HW124066   2.800   7.020   6.311
 7409SOL    HW224067   2.709   7.122   6.246
 7410SOL     OW24068   4.366   9.823   6.636
 7410SOL    HW124069   4.456   9.810   6.667
 7410SOL    HW224070   4.343   9.740   6.594
 7411SOL     OW24071   4.165   1.878   3.778
 7411SOL    HW124072   4.098   1.887   3.845
 7411SOL    HW224073   4.233   1.824   3.819
 7412SOL     OW24074   9.570   2.296  11.848
 7412SOL    HW124075   9.626   2.232  11.804
 7412SOL    HW224076   9.533   2.349  11.777
 7413SOL     OW24077  12.598   7.333   1.204
 7413SOL    HW124078  12.510   7.305   1.232
 7413SOL    HW224079  12.657   7.294   1.269
 7414SOL     OW24080   3.576   7.299   0.334
 7414SOL    HW124081   3.555   7.240   0.262
 7414SOL    HW224082   3.618   7.374   0.292
 7415SOL     OW24083   3.903   7.959   8.758
 7415SOL    HW124084   3.875   8.032   8.814
 7415SOL    HW224085   3.832   7.950   8.694
 7416SOL     OW24086   3.487  10.148  10.558
 7416SOL    HW124087   3.451  10.108  10.479
 7416SOL    HW224088   3.582  10.141  10.547
 7417SOL     OW24089   2.335   8.462   3.491
 7417SOL    HW124090   2.381   8.448   3.573
 7417SOL    HW224091   2.298   8.550   3.498
 7418SOL     OW24092   7.786   6.619   1.652
 7418SOL    HW124093   7.760   6.699   1.607
 7418SOL    HW224094   7.729   6.615   1.729
 7419SOL     OW24095   9.897   4.635   9.921
 7419SOL    HW124096   9.925   4.549   9.890
 7419SOL    HW224097   9.877   4.622  10.014
 7420SOL     OW24098   8.173   3.525  13.584
 7420SOL    HW124099   8.197   3.539  13.676
 7420SOL    HW224100   8.219   3.444  13.560
 7421SOL     OW24101  11.656   8.488   0.800
 7421SOL    HW124102  11.659   8.536   0.717
 7421SOL    HW224103  11.563   8.484   0.822
 7422SOL     OW24104   0.702  10.274   4.554
 7422SOL    HW124105   0.625  10.305   4.601
 7422SOL    HW224106   0.754  10.228   4.621
 7423SOL     OW24107   0.119   6.594  13.083
 7423SOL    HW124108   0.091   6.659  13.147
 7423SOL    HW224109   0.081   6.512  13.114
 7424SOL     OW24110  14.406  11.003   4.198
 7424SOL    HW124111  14.410  10.907   4.208
 7424SOL    HW224112  14.493  11.033   4.223
 7425SOL     OW24113  12.925   0.604   3.508
 7425SOL    HW124114  12.862   0.659   3.461
 7425SOL    HW224115  12.880   0.578   3.588
 7426SOL     OW24116   7.834  11.202   1.197
 7426SOL    HW124117   7.764  11.255   1.233
 7426SOL    HW224118   7.812  11.192   1.104
 7427SOL     OW24119   6.315  13.753  11.262
 7427SOL    HW124120   6.293  13.695  11.335
 7427SOL    HW224121   6.400  13.790  11.286
 7428SOL     OW24122   4.639   9.256   7.832
 7428SOL    HW124123   4.588   9.271   7.752
 7428SOL    HW224124   4.608   9.323   7.893
 7429SOL     OW24125  13.059   2.858   1.847
 7429SOL    HW124126  13.032   2.948   1.828
 7429SOL    HW224127  13.154   2.863   1.854
 7430SOL     OW24128  13.350   8.032  11.683
 7430SOL    HW124129  13.342   7.990  11.598
 7430SOL    HW224130  13.268   8.082  11.693
 7431SOL     OW24131  12.415  12.380   1.516
 7431SOL    HW124132  12.365  12.392   1.597
 7431SOL    HW224133  12.494  12.334   1.543
 7432SOL     OW24134  13.695   0.698   5.231
 7432SOL    HW124135  13.601   0.682   5.233
 7432SOL    HW224136  13.706   0.776   5.177
 7433SOL     OW24137   7.123  10.026  13.423
 7433SOL    HW124138   7.109   9.949  13.368
 7433SOL    HW224139   7.146  10.096  13.362
 7434SOL     OW24140  14.168   3.371   2.312
 7434SOL    HW124141  14.238   3.349   2.250
 7434SOL    HW224142  14.195   3.454   2.350
 7435SOL     OW24143  10.496   0.953   3.518
 7435SOL    HW124144  10.521   0.861   3.512
 7435SOL    HW224145  10.568   1.000   3.474
 7436SOL     OW24146   3.962   6.977  10.935
 7436SOL    HW124147   3.916   6.914  10.879
 7436SOL    HW224148   4.029   6.925  10.979
 7437SOL     OW24149  10.409   9.990  10.434
 7437SOL    HW124150  10.492   9.956  10.465
 7437SOL    HW224151  10.371   9.918  10.383
 7438SOL     OW24152   2.644   5.802  12.925
 7438SOL    HW124153   2.615   5.757  13.004
 7438SOL    HW224154   2.625   5.740  12.854
 7439SOL     OW24155   1.469   6.160  10.142
 7439SOL    HW124156   1.519   6.145  10.222
 7439SOL    HW224157   1.534   6.160  10.072
 7440SOL     OW24158   4.794   9.697   7.252
 7440SOL    HW124159   4.834   9.639   7.316
 7440SOL    HW224160   4.824   9.665   7.167
 7441SOL     OW24161   8.312   6.447   6.587
 7441SOL    HW124162   8.335   6.524   6.639
 7441SOL    HW224163   8.298   6.378   6.652
 7442SOL     OW24164   4.170   1.898   7.718
 7442SOL    HW124165   4.082   1.862   7.704
 7442SOL    HW224166   4.227   1.845   7.661
 7443SOL     OW24167   4.028   4.073   6.177
 7443SOL    HW124168   3.949   4.025   6.202
 7443SOL    HW224169   4.003   4.120   6.097
 7444SOL     OW24170  11.123  10.483   1.199
 7444SOL    HW124171  11.125  10.527   1.115
 7444SOL    HW224172  11.030  10.474   1.220
 7445SOL     OW24173   5.939  12.175   9.004
 7445SOL    HW124174   5.899  12.146   8.922
 7445SOL    HW224175   6.033  12.170   8.988
 7446SOL     OW24176   0.866  13.676   4.478
 7446SOL    HW124177   0.784  13.630   4.456
 7446SOL    HW224178   0.934  13.626   4.432
 7447SOL     OW24179   1.822   0.600   6.481
 7447SOL    HW124180   1.855   0.645   6.403
 7447SOL    HW224181   1.852   0.510   6.471
 7448SOL     OW24182   8.529   6.717   0.917
 7448SOL    HW124183   8.624   6.719   0.924
 7448SOL    HW224184   8.500   6.799   0.959
 7449SOL     OW24185   9.710  13.030   9.857
 7449SOL    HW124186   9.669  13.115   9.866
 7449SOL    HW224187   9.656  12.983   9.794
 7450SOL     OW24188  11.361   6.495   6.791
 7450SOL    HW124189  11.288   6.557   6.791
 7450SOL    HW224190  11.435   6.544   6.755
 7451SOL     OW24191   0.773   4.490  12.422
 7451SOL    HW124192   0.708   4.558  12.408
 7451SOL    HW224193   0.765   4.468  12.515
 7452SOL     OW24194   0.080   7.601   5.173
 7452SOL    HW124195   0.136   7.601   5.251
 7452SOL    HW224196   0.134   7.638   5.104
 7453SOL     OW24197   8.329  10.623   0.122
 7453SOL    HW124198   8.279  10.665   0.193
 7453SOL    HW224199   8.388  10.563   0.167
 7454SOL     OW24200   6.156   8.104   4.720
 7454SOL    HW124201   6.066   8.133   4.706
 7454SOL    HW224202   6.209   8.166   4.671
 7455SOL     OW24203   3.659   4.393   8.487
 7455SOL    HW124204   3.646   4.309   8.531
 7455SOL    HW224205   3.571   4.430   8.482
 7456SOL     OW24206   4.885   8.844  12.072
 7456SOL    HW124207   4.910   8.936  12.064
 7456SOL    HW224208   4.892   8.826  12.166
 7457SOL     OW24209   9.104   5.844  14.199
 7457SOL    HW124210   9.146   5.879  14.121
 7457SOL    HW224211   9.085   5.922  14.252
 7458SOL     OW24212   4.478   9.991   4.976
 7458SOL    HW124213   4.494  10.085   4.974
 7458SOL    HW224214   4.386   9.982   4.950
 7459SOL     OW24215   7.802   4.318  11.931
 7459SOL    HW124216   7.774   4.278  12.013
 7459SOL    HW224217   7.834   4.405  11.956
 7460SOL     OW24218   7.054   6.647   2.915
 7460SOL    HW124219   7.108   6.688   2.983
 7460SOL    HW224220   7.020   6.567   2.957
 7461SOL     OW24221   2.158   6.596   0.280
 7461SOL    HW124222   2.156   6.638   0.366
 7461SOL    HW224223   2.109   6.656   0.223
 7462SOL     OW24224   0.157   5.885   2.501
 7462SOL    HW124225   0.208   5.936   2.438
 7462SOL    HW224226   0.165   5.935   2.583
 7463SOL     OW24227  12.577   0.148   8.950
 7463SOL    HW124228  12.508   0.188   9.004
 7463SOL    HW224229  12.600   0.068   8.997
 7464SOL     OW24230   5.628   0.695   7.551
 7464SOL    HW124231   5.633   0.748   7.631
 7464SOL    HW224232   5.708   0.716   7.504
 7465SOL     OW24233  14.702   6.085   6.856
 7465SOL    HW124234  14.650   6.011   6.825
 7465SOL    HW224235  14.792   6.053   6.857
 7466SOL     OW24236   2.527   9.612   0.209
 7466SOL    HW124237   2.510   9.706   0.218
 7466SOL    HW224238   2.478   9.572   0.281
 7467SOL     OW24239   1.232   1.164   3.263
 7467SOL    HW124240   1.299   1.182   3.198
 7467SOL    HW224241   1.229   1.243   3.317
 7468SOL     OW24242   4.615  10.572   6.533
 7468SOL    HW124243   4.551  10.582   6.462
 7468SOL    HW224244   4.697  10.548   6.488
 7469SOL     OW24245   0.292   5.078   2.439
 7469SOL    HW124246   0.302   5.142   2.369
 7469SOL    HW224247   0.321   5.123   2.518
 7470SOL     OW24248   3.998   7.736  13.294
 7470SOL    HW124249   3.904   7.730  13.281
 7470SOL    HW224250   4.009   7.728  13.389
 7471SOL     OW24251  10.027   7.991  11.236
 7471SOL    HW124252  10.070   8.044  11.168
 7471SOL    HW224253  10.099   7.951  11.284
 7472SOL     OW24254  14.776   8.322  10.999
 7472SOL    HW124255  14.741   8.237  10.973
 7472SOL    HW224256  14.800   8.364  10.916
 7473SOL     OW24257   6.536  12.338   5.065
 7473SOL    HW124258   6.488  12.303   4.990
 7473SOL    HW224259   6.475  12.330   5.138
 7474SOL     OW24260   8.992   0.792   5.559
 7474SOL    HW124261   8.960   0.853   5.492
 7474SOL    HW224262   8.981   0.705   5.520
 7475SOL     OW24263   6.934   7.398   2.373
 7475SOL    HW124264   6.863   7.360   2.425
 7475SOL    HW224265   7.012   7.390   2.427
 7476SOL     OW24266   5.547  12.419   9.634
 7476SOL    HW124267   5.524  12.345   9.691
 7476SOL    HW224268   5.639  12.405   9.613
 7477SOL     OW24269  10.436  13.420   8.646
 7477SOL    HW124270  10.467  13.505   8.675
 7477SOL    HW224271  10.426  13.369   8.726
 7478SOL     OW24272  11.346   7.774  12.900
 7478SOL    HW124273  11.353   7.819  12.815
 7478SOL    HW224274  11.265   7.808  12.938
 7479SOL     OW24275  14.732   2.892   2.541
 7479SOL    HW124276  14.730   2.834   2.465
 7479SOL    HW224277  14.755   2.978   2.505
 7480SOL     OW24278   9.182   0.744   6.213
 7480SOL    HW124279   9.145   0.749   6.301
 7480SOL    HW224280   9.244   0.672   6.216
 7481SOL     OW24281   5.145  12.335  12.358
 7481SOL    HW124282   5.151  12.257  12.303
 7481SOL    HW224283   5.052  12.347  12.373
 7482SOL     OW24284   4.281   3.194  10.927
 7482SOL    HW124285   4.313   3.111  10.890
 7482SOL    HW224286   4.229   3.167  11.003
 7483SOL     OW24287   0.735   4.379  12.671
 7483SOL    HW124288   0.712   4.442  12.739
 7483SOL    HW224289   0.708   4.294  12.706
 7484SOL     OW24290   1.161   4.946   9.155
 7484SOL    HW124291   1.124   4.871   9.201
 7484SOL    HW224292   1.143   4.929   9.063
 7485SOL     OW24293  10.945   6.787   4.398
 7485SOL    HW124294  11.007   6.859   4.385
 7485SOL    HW224295  10.914   6.766   4.310
 7486SOL     OW24296   8.807   8.504  10.911
 7486SOL    HW124297   8.899   8.527  10.928
 7486SOL    HW224298   8.777   8.462  10.992
 7487SOL     OW24299   7.369   4.487  13.632
 7487SOL    HW124300   7.418   4.485  13.549
 7487SOL    HW224301   7.341   4.397  13.646
 7488SOL     OW24302   3.287   0.346   3.919
 7488SOL    HW124303   3.354   0.288   3.956
 7488SOL    HW224304   3.242   0.382   3.996
 7489SOL     OW24305   5.853   6.618   0.294
 7489SOL    HW124306   5.935   6.612   0.245
 7489SOL    HW224307   5.789   6.649   0.230
 7490SOL     OW24308   9.304  13.636   2.597
 7490SOL    HW124309   9.338  13.633   2.687
 7490SOL    HW224310   9.245  13.560   2.592
 7491SOL     OW24311   4.203   8.498   2.524
 7491SOL    HW124312   4.128   8.443   2.548
 7491SOL    HW224313   4.277   8.458   2.568
 7492SOL     OW24314   3.405  13.202   3.471
 7492SOL    HW124315   3.360  13.128   3.433
 7492SOL    HW224316   3.488  13.207   3.424
 7493SOL     OW24317   7.003  13.112  12.409
 7493SOL    HW124318   7.083  13.132  12.362
 7493SOL    HW224319   6.933  13.126  12.344
 7494SOL     OW24320  13.543   4.711   8.731
 7494SOL    HW124321  13.555   4.804   8.714
 7494SOL    HW224322  13.484   4.708   8.807
 7495SOL     OW24323   7.695   1.185   9.131
 7495SOL    HW124324   7.616   1.194   9.078
 7495SOL    HW224325   7.735   1.103   9.102
 7496SOL     OW24326   9.660   8.625   3.559
 7496SOL    HW124327   9.629   8.693   3.619
 7496SOL    HW224328   9.744   8.597   3.595
 7497SOL     OW24329  10.850  12.919  11.366
 7497SOL    HW124330  10.812  12.852  11.423
 7497SOL    HW224331  10.788  12.929  11.294
 7498SOL     OW24332   8.829  14.060   2.520
 7498SOL    HW124333   8.923  14.053   2.532
 7498SOL    HW224334   8.794  14.064   2.609
 7499SOL     OW24335   6.506   5.074   3.675
 7499SOL    HW124336   6.565   5.145   3.702
 7499SOL    HW224337   6.532   5.055   3.585
 7500SOL     OW24338   9.662   4.123   4.289
 7500SOL    HW124339   9.602   4.081   4.351
 7500SOL    HW224340   9.736   4.152   4.342
 7501SOL     OW24341  12.297  13.844   1.131
 7501SOL    HW124342  12.268  13.757   1.104
 7501SOL    HW224343  12.392  13.835   1.140
 7502SOL     OW24344   4.492  12.466  12.302
 7502SOL    HW124345   4.416  12.417  12.271
 7502SOL    HW224346   4.458  12.554  12.320
 7503SOL     OW24347   8.880   5.965   0.603
 7503SOL    HW124348   8.952   6.028   0.605
 7503SOL    HW224349   8.840   5.977   0.517
 7504SOL     OW24350   1.898  11.988  12.876
 7504SOL    HW124351   1.982  11.942  12.880
 7504SOL    HW224352   1.835  11.925  12.910
 7505SOL     OW24353   2.549  12.636   8.929
 7505SOL    HW124354   2.466  12.679   8.949
 7505SOL    HW224355   2.591  12.624   9.014
 7506SOL     OW24356   8.888   1.048  10.591
 7506SOL    HW124357   8.954   1.067  10.658
 7506SOL    HW224358   8.919   1.094  10.513
 7507SOL     OW24359  12.460  11.602   1.049
 7507SOL    HW124360  12.395  11.671   1.058
 7507SOL    HW224361  12.412  11.530   1.007
 7508SOL     OW24362   0.537   0.863   2.702
 7508SOL    HW124363   0.475   0.792   2.685
 7508SOL    HW224364   0.621   0.831   2.669
 7509SOL     OW24365  10.294  14.173   2.123
 7509SOL    HW124366  10.246  14.181   2.040
 7509SOL    HW224367  10.225  14.167   2.190
 7510SOL     OW24368   4.458  13.634   1.271
 7510SOL    HW124369   4.443  13.662   1.181
 7510SOL    HW224370   4.423  13.705   1.325
 7511SOL     OW24371  12.519   1.101  11.939
 7511SOL    HW124372  12.462   1.146  11.876
 7511SOL    HW224373  12.590   1.066  11.886
 7512SOL     OW24374   3.187  14.120  14.879
 7512SOL    HW124375   3.228  14.062   0.064
 7512SOL    HW224376   3.192  14.070  14.797
 7513SOL     OW24377  12.654   8.280   9.695
 7513SOL    HW124378  12.645   8.299   9.602
 7513SOL    HW224379  12.609   8.352   9.739
 7514SOL     OW24380   0.628   2.751   1.229
 7514SOL    HW124381   0.560   2.728   1.166
 7514SOL    HW224382   0.702   2.780   1.175
 7515SOL     OW24383  14.536  10.150   2.759
 7515SOL    HW124384  14.458  10.101   2.786
 7515SOL    HW224385  14.504  10.238   2.741
 7516SOL     OW24386  13.775  11.140   3.605
 7516SOL    HW124387  13.780  11.212   3.543
 7516SOL    HW224388  13.707  11.083   3.569
 7517SOL     OW24389   9.883  11.767   2.525
 7517SOL    HW124390   9.822  11.840   2.511
 7517SOL    HW224391   9.830  11.700   2.568
 7518SOL     OW24392  11.517  11.798   7.937
 7518SOL    HW124393  11.458  11.723   7.946
 7518SOL    HW224394  11.461  11.874   7.954
 7519SOL     OW24395   0.493   3.449   3.354
 7519SOL    HW124396   0.399   3.468   3.362
 7519SOL    HW224397   0.523   3.445   3.445
 7520SOL     OW24398  13.827   6.193   8.245
 7520SOL    HW124399  13.776   6.115   8.267
 7520SOL    HW224400  13.912   6.158   8.216
 7521SOL     OW24401   5.545   6.329   7.180
 7521SOL    HW124402   5.599   6.408   7.187
 7521SOL    HW224403   5.520   6.326   7.087
 7522SOL     OW24404   8.335   1.450   1.909
 7522SOL    HW124405   8.252   1.421   1.946
 7522SOL    HW224406   8.352   1.535   1.951
 7523SOL     OW24407   0.104  12.179   1.103
 7523SOL    HW124408   0.187  12.134   1.093
 7523SOL    HW224409   0.068  12.146   1.186
 7524SOL     OW24410  12.318  13.151  13.331
 7524SOL    HW124411  12.292  13.100  13.407
 7524SOL    HW224412  12.411  13.129  13.318
 7525SOL     OW24413   5.379   2.276  12.053
 7525SOL    HW124414   5.428   2.349  12.016
 7525SOL    HW224415   5.330   2.240  11.979
 7526SOL     OW24416   2.723   9.535  11.936
 7526SOL    HW124417   2.720   9.517  11.842
 7526SOL    HW224418   2.632   9.530  11.964
 7527SOL     OW24419   1.864  13.229  12.732
 7527SOL    HW124420   1.926  13.298  12.707
 7527SOL    HW224421   1.914  13.173  12.792
 7528SOL     OW24422   1.969   5.846   9.323
 7528SOL    HW124423   1.915   5.922   9.343
 7528SOL    HW224424   1.982   5.851   9.228
 7529SOL     OW24425  10.373   9.861   9.242
 7529SOL    HW124426  10.385   9.955   9.259
 7529SOL    HW224427  10.316   9.830   9.312
 7530SOL     OW24428   8.186   8.093   3.427
 7530SOL    HW124429   8.257   8.064   3.486
 7530SOL    HW224430   8.115   8.030   3.443
 7531SOL     OW24431   4.294   6.623   0.706
 7531SOL    HW124432   4.220   6.641   0.647
 7531SOL    HW224433   4.336   6.708   0.719
 7532SOL     OW24434  10.778   9.484   1.992
 7532SOL    HW124435  10.780   9.509   1.900
 7532SOL    HW224436  10.847   9.537   2.033
 7533SOL     OW24437   0.454  12.714   8.856
 7533SOL    HW124438   0.379  12.773   8.866
 7533SOL    HW224439   0.491  12.708   8.944
 7534SOL     OW24440   8.664  12.967   5.862
 7534SOL    HW124441   8.577  12.983   5.898
 7534SOL    HW224442   8.678  13.037   5.799
 7535SOL     OW24443   5.279   2.951  13.065
 7535SOL    HW124444   5.315   2.864  13.082
 7535SOL    HW224445   5.347   2.995  13.013
 7536SOL     OW24446  14.088   0.653  10.642
 7536SOL    HW124447  14.088   0.558  10.636
 7536SOL    HW224448  14.034   0.682  10.569
 7537SOL     OW24449   1.699  12.381   1.222
 7537SOL    HW124450   1.641  12.431   1.166
 7537SOL    HW224451   1.753  12.447   1.267
 7538SOL     OW24452  14.396   8.613   0.483
 7538SOL    HW124453  14.429   8.701   0.500
 7538SOL    HW224454  14.471   8.567   0.444
 7539SOL     OW24455  10.576   6.600  12.473
 7539SOL    HW124456  10.527   6.676  12.502
 7539SOL    HW224457  10.643   6.586  12.540
 7540SOL     OW24458   7.579   7.866   3.633
 7540SOL    HW124459   7.614   7.812   3.563
 7540SOL    HW224460   7.645   7.934   3.646
 7541SOL     OW24461   3.497   0.223   4.424
 7541SOL    HW124462   3.483   0.283   4.351
 7541SOL    HW224463   3.472   0.274   4.501
 7542SOL     OW24464   9.888  11.138  14.801
 7542SOL    HW124465   9.935  11.220  14.786
 7542SOL    HW224466   9.796  11.164  14.806
 7543SOL     OW24467   3.009   9.791  12.424
 7543SOL    HW124468   3.006   9.762  12.333
 7543SOL    HW224469   2.957   9.871  12.426
 7544SOL     OW24470   1.701  14.541   9.591
 7544SOL    HW124471   1.711  14.632   9.618
 7544SOL    HW224472   1.674  14.495   9.670
 7545SOL     OW24473   9.321  10.535   3.946
 7545SOL    HW124474   9.331  10.478   4.022
 7545SOL    HW224475   9.372  10.492   3.877
 7546SOL     OW24476   6.213   5.879   0.311
 7546SOL    HW124477   6.266   5.881   0.391
 7546SOL    HW224478   6.124   5.859   0.342
 7547SOL     OW24479  14.535  10.199  11.488
 7547SOL    HW124480  14.448  10.228  11.516
 7547SOL    HW224481  14.520  10.116  11.444
 7548SOL     OW24482  14.811  13.556   1.728
 7548SOL    HW124483  14.760  13.575   1.806
 7548SOL    HW224484  14.813  13.639   1.680
 7549SOL     OW24485  10.864   0.882   0.232
 7549SOL    HW124486  10.899   0.799   0.266
 7549SOL    HW224487  10.908   0.949   0.284
 7550SOL     OW24488   4.143   2.570   8.361
 7550SOL    HW124489   4.178   2.614   8.284
 7550SOL    HW224490   4.142   2.477   8.337
 7551SOL     OW24491   6.791   1.617   5.003
 7551SOL    HW124492   6.883   1.630   5.027
 7551SOL    HW224493   6.742   1.672   5.064
 7552SOL     OW24494   3.683  13.393   1.488
 7552SOL    HW124495   3.698  13.346   1.406
 7552SOL    HW224496   3.751  13.360   1.548
 7553SOL     OW24497   2.579   5.169   9.955
 7553SOL    HW124498   2.572   5.220   9.874
 7553SOL    HW224499   2.519   5.096   9.943
 7554SOL     OW24500  12.290   9.614   0.471
 7554SOL    HW124501  12.370   9.612   0.418
 7554SOL    HW224502  12.322   9.621   0.561
 7555SOL     OW24503  14.237  10.981   6.325
 7555SOL    HW124504  14.289  10.957   6.402
 7555SOL    HW224505  14.199  10.898   6.295
 7556SOL     OW24506   2.450  13.503  13.374
 7556SOL    HW124507   2.500  13.469  13.300
 7556SOL    HW224508   2.490  13.463  13.451
 7557SOL     OW24509  14.320   0.087  12.724
 7557SOL    HW124510  14.238   0.045  12.748
 7557SOL    HW224511  14.349   0.039  12.646
 7558SOL     OW24512  13.891  11.928   9.164
 7558SOL    HW124513  13.805  11.887   9.164
 7558SOL    HW224514  13.876  12.015   9.125
 7559SOL     OW24515   8.050  13.415   4.381
 7559SOL    HW124516   8.139  13.441   4.405
 7559SOL    HW224517   8.037  13.450   4.294
 7560SOL     OW24518  14.309   9.164  13.046
 7560SOL    HW124519  14.376   9.181  13.113
 7560SOL    HW224520  14.328   9.229  12.978
 7561SOL     OW24521   9.762   4.105   0.824
 7561SOL    HW124522   9.697   4.078   0.889
 7561SOL    HW224523   9.845   4.070   0.856
 7562SOL     OW24524   3.351   0.132   4.686
 7562SOL    HW124525   3.388   0.052   4.724
 7562SOL    HW224526   3.347   0.115   4.592
 7563SOL     OW24527   0.630  13.701  12.094
 7563SOL    HW124528   0.651  13.763  12.164
 7563SOL    HW224529   0.594  13.755  12.024
 7564SOL     OW24530   4.344   5.834  12.115
 7564SOL    HW124531   4.418   5.774  12.127
 7564SOL    HW224532   4.384   5.920  12.105
 7565SOL     OW24533  14.489   3.820  12.860
 7565SOL    HW124534  14.465   3.869  12.782
 7565SOL    HW224535  14.584   3.833  12.869
 7566SOL     OW24536  12.105   0.700   1.614
 7566SOL    HW124537  12.156   0.781   1.610
 7566SOL    HW224538  12.145   0.650   1.685
 7567SOL     OW24539   7.257   1.371  11.798
 7567SOL    HW124540   7.300   1.369  11.713
 7567SOL    HW224541   7.260   1.462  11.825
 7568SOL     OW24542   8.667   5.414  14.210
 7568SOL    HW124543   8.609   5.422  14.134
 7568SOL    HW224544   8.616   5.450  14.283
 7569SOL     OW24545  12.953   3.139  14.710
 7569SOL    HW124546  12.926   3.135  14.802
 7569SOL    HW224547  12.949   3.232  14.688
 7570SOL     OW24548  12.115   2.787   0.211
 7570SOL    HW124549  12.067   2.720   0.259
 7570SOL    HW224550  12.183   2.815   0.272
 7571SOL     OW24551  12.199   0.058   6.959
 7571SOL    HW124552  12.202   0.006   7.039
 7571SOL    HW224553  12.287   0.053   6.922
 7572SOL     OW24554   6.484   8.784   7.286
 7572SOL    HW124555   6.430   8.861   7.305
 7572SOL    HW224556   6.468   8.767   7.193
 7573SOL     OW24557   2.299   0.864   4.331
 7573SOL    HW124558   2.339   0.915   4.260
 7573SOL    HW224559   2.372   0.840   4.388
 7574SOL     OW24560  14.348  10.957   6.606
 7574SOL    HW124561  14.292  11.015   6.657
 7574SOL    HW224562  14.316  10.869   6.626
 7575SOL     OW24563  11.649  10.773   6.141
 7575SOL    HW124564  11.581  10.755   6.076
 7575SOL    HW224565  11.619  10.730   6.221
 7576SOL     OW24566   9.773  12.989   3.148
 7576SOL    HW124567   9.781  13.053   3.078
 7576SOL    HW224568   9.859  12.947   3.151
 7577SOL     OW24569   0.608   8.852   8.455
 7577SOL    HW124570   0.576   8.934   8.417
 7577SOL    HW224571   0.610   8.791   8.382
 7578SOL     OW24572   3.038   1.334   5.482
 7578SOL    HW124573   3.032   1.387   5.562
 7578SOL    HW224574   2.965   1.272   5.489
 7579SOL     OW24575   8.251   0.199   4.507
 7579SOL    HW124576   8.195   0.162   4.576
 7579SOL    HW224577   8.264   0.127   4.446
 7580SOL     OW24578   3.062  12.620   9.210
 7580SOL    HW124579   3.043  12.545   9.267
 7580SOL    HW224580   3.140  12.594   9.161
 7581SOL     OW24581  11.560   0.177  13.514
 7581SOL    HW124582  11.549   0.103  13.453
 7581SOL    HW224583  11.471   0.196  13.544
 7582SOL     OW24584   4.143   4.160   7.316
 7582SOL    HW124585   4.169   4.137   7.406
 7582SOL    HW224586   4.049   4.142   7.314
 7583SOL     OW24587   1.832  11.102   8.134
 7583SOL    HW124588   1.741  11.124   8.114
 7583SOL    HW224589   1.841  11.117   8.228
 7584SOL     OW24590  14.093  13.107  10.733
 7584SOL    HW124591  14.138  13.141  10.656
 7584SOL    HW224592  14.087  13.183  10.792
 7585SOL     OW24593   6.603  12.987   4.125
 7585SOL    HW124594   6.652  13.065   4.097
 7585SOL    HW224595   6.665  12.915   4.115
 7586SOL     OW24596  12.824   1.260  12.453
 7586SOL    HW124597  12.870   1.200  12.394
 7586SOL    HW224598  12.764   1.204  12.502
 7587SOL     OW24599   7.057   2.720   1.029
 7587SOL    HW124600   6.997   2.785   0.993
 7587SOL    HW224601   7.142   2.764   1.033
 7588SOL     OW24602   6.338   6.153   6.970
 7588SOL    HW124603   6.392   6.092   7.020
 7588SOL    HW224604   6.286   6.199   7.036
 7589SOL     OW24605   5.841   0.524   2.701
 7589SOL    HW124606   5.767   0.560   2.749
 7589SOL    HW224607   5.840   0.431   2.722
 7590SOL     OW24608   4.899  13.862  11.250
 7590SOL    HW124609   4.871  13.864  11.158
 7590SOL    HW224610   4.851  13.935  11.291
 7591SOL     OW24611  10.361  10.711   7.899
 7591SOL    HW124612  10.280  10.759   7.883
 7591SOL    HW224613  10.372  10.714   7.994
 7592SOL     OW24614   3.679   1.616   1.207
 7592SOL    HW124615   3.630   1.698   1.205
 7592SOL    HW224616   3.751   1.632   1.268
 7593SOL     OW24617   6.676   0.440   6.157
 7593SOL    HW124618   6.762   0.480   6.168
 7593SOL    HW224619   6.659   0.395   6.240
 7594SOL     OW24620  12.613  11.363  14.497
 7594SOL    HW124621  12.595  11.427  14.565
 7594SOL    HW224622  12.672  11.300  14.539
 7595SOL     OW24623   2.714   2.635   9.914
 7595SOL    HW124624   2.738   2.696   9.844
 7595SOL    HW224625   2.794   2.586   9.931
 7596SOL     OW24626  12.239   8.060   8.059
 7596SOL    HW124627  12.177   7.998   8.097
 7596SOL    HW224628  12.187   8.140   8.046
 7597SOL     OW24629   4.505   7.870  10.156
 7597SOL    HW124630   4.588   7.884  10.202
 7597SOL    HW224631   4.473   7.787  10.192
 7598SOL     OW24632   0.241  13.511   9.392
 7598SOL    HW124633   0.313  13.563   9.426
 7598SOL    HW224634   0.194  13.570   9.332
 7599SOL     OW24635   0.165   9.466  14.666
 7599SOL    HW124636   0.176   9.411  14.744
 7599SOL    HW224637   0.074   9.494  14.668
 7600SOL     OW24638  10.601  14.781   2.650
 7600SOL    HW124639  10.690  14.804   2.677
 7600SOL    HW224640  10.569  14.859   2.605
 7601SOL     OW24641   9.427   9.644  11.489
 7601SOL    HW124642   9.485   9.568  11.498
 7601SOL    HW224643   9.442   9.674  11.399
 7602SOL     OW24644   4.593   8.565   2.382
 7602SOL    HW124645   4.514   8.616   2.404
 7602SOL    HW224646   4.626   8.535   2.467
 7603SOL     OW24647   6.855   4.034   5.102
 7603SOL    HW124648   6.855   4.026   5.006
 7603SOL    HW224649   6.888   4.122   5.119
 7604SOL     OW24650   7.985   1.889   4.780
 7604SOL    HW124651   8.022   1.805   4.808
 7604SOL    HW224652   7.923   1.865   4.711
 7605SOL     OW24653  11.445   7.295   8.822
 7605SOL    HW124654  11.431   7.384   8.790
 7605SOL    HW224655  11.523   7.264   8.776
 7606SOL     OW24656   9.179   6.764   0.210
 7606SOL    HW124657   9.106   6.790   0.266
 7606SOL    HW224658   9.254   6.761   0.268
 7607SOL     OW24659   1.833   6.572   0.548
 7607SOL    HW124660   1.862   6.531   0.466
 7607SOL    HW224661   1.740   6.550   0.554
 7608SOL     OW24662  12.158  11.695   5.771
 7608SOL    HW124663  12.164  11.778   5.820
 7608SOL    HW224664  12.182  11.628   5.835
 7609SOL     OW24665  14.636   2.037  12.602
 7609SOL    HW124666  14.700   2.096  12.562
 7609SOL    HW224667  14.686   1.989  12.668
 7610SOL     OW24668   3.788  14.747   8.481
 7610SOL    HW124669   3.738  14.665   8.479
 7610SOL    HW224670   3.829  14.752   8.395
 7611SOL     OW24671  11.328  10.716  12.200
 7611SOL    HW124672  11.394  10.648  12.190
 7611SOL    HW224673  11.367  10.779  12.261
 7612SOL     OW24674   3.557   8.765   0.867
 7612SOL    HW124675   3.491   8.811   0.919
 7612SOL    HW224676   3.518   8.755   0.781
 7613SOL     OW24677   2.271   8.112  11.603
 7613SOL    HW124678   2.237   8.168  11.673
 7613SOL    HW224679   2.207   8.041  11.596
 7614SOL     OW24680  10.730   3.951   6.569
 7614SOL    HW124681  10.805   3.986   6.520
 7614SOL    HW224682  10.754   3.860   6.587
 7615SOL     OW24683   6.087  12.866   1.744
 7615SOL    HW124684   6.048  12.937   1.693
 7615SOL    HW224685   6.012  12.813   1.771
 7616SOL     OW24686   4.988   4.380   8.444
 7616SOL    HW124687   5.041   4.452   8.480
 7616SOL    HW224688   4.942   4.420   8.370
 7617SOL     OW24689  12.957   6.468  10.390
 7617SOL    HW124690  13.027   6.476  10.454
 7617SOL    HW224691  12.992   6.410  10.323
 7618SOL     OW24692   0.110   0.721   4.852
 7618SOL    HW124693   0.047   0.768   4.906
 7618SOL    HW224694   0.077   0.732   4.762
 7619SOL     OW24695  12.655  12.442   7.357
 7619SOL    HW124696  12.653  12.357   7.400
 7619SOL    HW224697  12.619  12.426   7.270
 7620SOL     OW24698   3.809  10.627   0.482
 7620SOL    HW124699   3.883  10.688   0.489
 7620SOL    HW224700   3.818  10.570   0.558
 7621SOL     OW24701   2.240   0.292  12.000
 7621SOL    HW124702   2.332   0.275  11.976
 7621SOL    HW224703   2.240   0.382  12.032
 7622SOL     OW24704   9.578   2.963   2.491
 7622SOL    HW124705   9.498   2.945   2.442
 7622SOL    HW224706   9.621   2.878   2.499
 7623SOL     OW24707   6.338   3.170   4.268
 7623SOL    HW124708   6.273   3.239   4.280
 7623SOL    HW224709   6.365   3.178   4.177
 7624SOL     OW24710  10.282  13.214  14.843
 7624SOL    HW124711  10.337  13.137  14.831
 7624SOL    HW224712  10.327  13.265   0.031
 7625SOL     OW24713   9.754   8.447  13.034
 7625SOL    HW124714   9.771   8.372  13.092
 7625SOL    HW224715   9.743   8.521  13.093
 7626SOL     OW24716   8.645  14.413  12.660
 7626SOL    HW124717   8.714  14.450  12.715
 7626SOL    HW224718   8.610  14.488  12.612
 7627SOL     OW24719   0.512   3.194  14.143
 7627SOL    HW124720   0.447   3.132  14.110
 7627SOL    HW224721   0.515   3.177  14.238
 7628SOL     OW24722   7.117   7.623   3.042
 7628SOL    HW124723   7.109   7.588   2.953
 7628SOL    HW224724   7.207   7.655   3.046
 7629SOL     OW24725   3.213   2.726   7.531
 7629SOL    HW124726   3.301   2.759   7.516
 7629SOL    HW224727   3.180   2.779   7.604
 7630SOL     OW24728   6.210   9.195   1.611
 7630SOL    HW124729   6.223   9.152   1.695
 7630SOL    HW224730   6.298   9.202   1.574
 7631SOL     OW24731   2.585  11.108  12.069
 7631SOL    HW124732   2.640  11.031  12.056
 7631SOL    HW224733   2.600  11.162  11.992
 7632SOL     OW24734   4.805   2.061   9.753
 7632SOL    HW124735   4.794   2.088   9.844
 7632SOL    HW224736   4.749   2.120   9.703
 7633SOL     OW24737   1.130   2.931   3.700
 7633SOL    HW124738   1.041   2.896   3.694
 7633SOL    HW224739   1.170   2.886   3.774
 7634SOL     OW24740  13.466  13.608   4.535
 7634SOL    HW124741  13.397  13.557   4.492
 7634SOL    HW224742  13.535  13.545   4.555
 7635SOL     OW24743  12.145   1.565   9.836
 7635SOL    HW124744  12.081   1.573   9.907
 7635SOL    HW224745  12.137   1.474   9.806
 7636SOL     OW24746  10.943   3.431  13.399
 7636SOL    HW124747  10.975   3.371  13.467
 7636SOL    HW224748  10.934   3.376  13.321
 7637SOL     OW24749   6.038  13.869   3.019
 7637SOL    HW124750   6.055  13.962   3.005
 7637SOL    HW224751   6.121  13.825   2.999
 7638SOL     OW24752   1.495   3.069  12.151
 7638SOL    HW124753   1.466   2.986  12.188
 7638SOL    HW224754   1.563   3.044  12.088
 7639SOL     OW24755   3.053   1.507  14.360
 7639SOL    HW124756   3.099   1.423  14.357
 7639SOL    HW224757   3.059   1.541  14.270
 7640SOL     OW24758   2.721  13.526  14.328
 7640SOL    HW124759   2.778  13.512  14.403
 7640SOL    HW224760   2.645  13.470  14.344
 7641SOL     OW24761   5.162  14.048   5.273
 7641SOL    HW124762   5.155  14.014   5.183
 7641SOL    HW224763   5.168  13.970   5.327
 7642SOL     OW24764   1.380   6.454   8.377
 7642SOL    HW124765   1.335   6.370   8.370
 7642SOL    HW224766   1.459   6.435   8.429
 7643SOL     OW24767  13.744   8.105  14.149
 7643SOL    HW124768  13.723   8.193  14.120
 7643SOL    HW224769  13.731   8.050  14.071
 7644SOL     OW24770  10.984   3.142   6.287
 7644SOL    HW124771  10.908   3.123   6.343
 7644SOL    HW224772  10.956   3.117   6.199
 7645SOL     OW24773  11.604   1.339   2.827
 7645SOL    HW124774  11.621   1.397   2.901
 7645SOL    HW224775  11.612   1.251   2.863
 7646SOL     OW24776   3.454   0.898   7.911
 7646SOL    HW124777   3.494   0.843   7.978
 7646SOL    HW224778   3.526   0.954   7.880
 7647SOL     OW24779   0.023  10.126   1.666
 7647SOL    HW124780   0.041  10.037   1.698
 7647SOL    HW224781   0.104  10.152   1.622
 7648SOL     OW24782  10.128   3.360   7.248
 7648SOL    HW124783  10.110   3.433   7.189
 7648SOL    HW224784  10.081   3.382   7.328
 7649SOL     OW24785   1.061   0.902   0.860
 7649SOL    HW124786   1.139   0.950   0.886
 7649SOL    HW224787   0.988   0.960   0.886
 7650SOL     OW24788   0.951  14.817   1.329
 7650SOL    HW124789   1.003  14.867   1.266
 7650SOL    HW224790   1.000  14.823   1.410
 7651SOL     OW24791   2.044   4.355  10.579
 7651SOL    HW124792   2.130   4.382  10.549
 7651SOL    HW224793   2.001   4.437  10.606
 7652SOL     OW24794   0.923   9.433   8.994
 7652SOL    HW124795   1.006   9.481   8.991
 7652SOL    HW224796   0.943   9.353   9.043
 7653SOL     OW24797  11.532   8.326   8.628
 7653SOL    HW124798  11.583   8.252   8.661
 7653SOL    HW224799  11.448   8.319   8.673
 7654SOL     OW24800   7.759   8.440   1.484
 7654SOL    HW124801   7.750   8.419   1.577
 7654SOL    HW224802   7.686   8.394   1.442
 7655SOL     OW24803  13.420   6.107  10.813
 7655SOL    HW124804  13.394   6.144  10.897
 7655SOL    HW224805  13.514   6.125  10.807
 7656SOL     OW24806   2.043  14.739  12.648
 7656SOL    HW124807   1.994  14.776  12.722
 7656SOL    HW224808   2.035  14.644  12.659
 7657SOL     OW24809   5.903   2.490   4.293
 7657SOL    HW124810   5.884   2.426   4.224
 7657SOL    HW224811   5.853   2.568   4.268
 7658SOL     OW24812   6.102  11.482   0.808
 7658SOL    HW124813   6.022  11.462   0.857
 7658SOL    HW224814   6.078  11.556   0.752
 7659SOL     OW24815   5.918   9.485   7.550
 7659SOL    HW124816   5.837   9.536   7.552
 7659SOL    HW224817   5.984   9.542   7.591
 7660SOL     OW24818   2.012   2.321   9.924
 7660SOL    HW124819   1.969   2.305   9.839
 7660SOL    HW224820   1.997   2.414   9.940
 7661SOL     OW24821  10.591   0.724   4.210
 7661SOL    HW124822  10.672   0.773   4.223
 7661SOL    HW224823  10.611   0.635   4.240
 7662SOL     OW24824  12.553   9.957  11.298
 7662SOL    HW124825  12.606  10.025  11.258
 7662SOL    HW224826  12.615   9.887  11.319
 7663SOL     OW24827   8.988   0.746   6.450
 7663SOL    HW124828   8.984   0.814   6.518
 7663SOL    HW224829   8.912   0.762   6.395
 7664SOL     OW24830   6.757  12.366   6.188
 7664SOL    HW124831   6.684  12.399   6.241
 7664SOL    HW224832   6.824  12.342   6.252
 7665SOL     OW24833   8.663  11.417   9.710
 7665SOL    HW124834   8.602  11.355   9.750
 7665SOL    HW224835   8.630  11.431   9.622
 7666SOL     OW24836  12.459  12.670   6.470
 7666SOL    HW124837  12.434  12.660   6.562
 7666SOL    HW224838  12.554  12.657   6.469
 7667SOL     OW24839  10.119  12.658  12.080
 7667SOL    HW124840  10.070  12.675  12.161
 7667SOL    HW224841  10.054  12.620  12.020
 7668SOL     OW24842   9.216   6.580   2.737
 7668SOL    HW124843   9.266   6.626   2.804
 7668SOL    HW224844   9.177   6.649   2.684
 7669SOL     OW24845   3.619  11.724  12.785
 7669SOL    HW124846   3.610  11.792  12.718
 7669SOL    HW224847   3.529  11.702  12.808
 7670SOL     OW24848   6.475  11.755   1.036
 7670SOL    HW124849   6.496  11.675   1.083
 7670SOL    HW224850   6.546  11.765   0.972
 7671SOL     OW24851   4.127   4.811   9.543
 7671SOL    HW124852   4.127   4.847   9.632
 7671SOL    HW224853   4.034   4.799   9.522
 7672SOL     OW24854   3.674   0.869  14.411
 7672SOL    HW124855   3.654   0.948  14.461
 7672SOL    HW224856   3.621   0.801  14.453
 7673SOL     OW24857   1.212   8.230   0.910
 7673SOL    HW124858   1.150   8.281   0.962
 7673SOL    HW224859   1.193   8.139   0.934
 7674SOL     OW24860  10.274  13.193   8.139
 7674SOL    HW124861  10.284  13.137   8.062
 7674SOL    HW224862  10.186  13.173   8.171
 7675SOL     OW24863  12.066   1.492   4.376
 7675SOL    HW124864  12.141   1.500   4.316
 7675SOL    HW224865  12.105   1.493   4.463
 7676SOL     OW24866  11.578   8.004  14.572
 7676SOL    HW124867  11.549   8.095  14.568
 7676SOL    HW224868  11.562   7.978  14.662
 7677SOL     OW24869   4.376   8.761   8.471
 7677SOL    HW124870   4.417   8.675   8.462
 7677SOL    HW224871   4.447   8.819   8.498
 7678SOL     OW24872   6.346   9.943   8.331
 7678SOL    HW124873   6.310   9.903   8.410
 7678SOL    HW224874   6.438   9.959   8.351
 7679SOL     OW24875   7.462  10.160   8.537
 7679SOL    HW124876   7.419  10.200   8.461
 7679SOL    HW224877   7.419  10.199   8.613
 7680SOL     OW24878   6.360   0.490   4.481
 7680SOL    HW124879   6.441   0.485   4.533
 7680SOL    HW224880   6.356   0.582   4.453
 7681SOL     OW24881  10.963   9.089  13.750
 7681SOL    HW124882  11.017   9.144  13.806
 7681SOL    HW224883  11.021   9.018  13.723
 7682SOL     OW24884  14.362   7.161   3.131
 7682SOL    HW124885  14.333   7.072   3.110
 7682SOL    HW224886  14.384   7.158   3.224
 7683SOL     OW24887   2.858  13.386   4.503
 7683SOL    HW124888   2.831  13.314   4.446
 7683SOL    HW224889   2.778  13.416   4.545
 7684SOL     OW24890  13.295   5.508  11.650
 7684SOL    HW124891  13.381   5.474  11.674
 7684SOL    HW224892  13.299   5.601  11.670
 7685SOL     OW24893   6.627  10.108   9.134
 7685SOL    HW124894   6.594  10.059   9.059
 7685SOL    HW224895   6.640  10.197   9.102
 7686SOL     OW24896   2.041  14.540  14.463
 7686SOL    HW124897   1.998  14.460  14.491
 7686SOL    HW224898   2.015  14.551  14.371
 7687SOL     OW24899   6.228   2.683  13.907
 7687SOL    HW124900   6.228   2.778  13.893
 7687SOL    HW224901   6.142   2.664  13.942
 7688SOL     OW24902   2.225   7.594   8.567
 7688SOL    HW124903   2.249   7.569   8.657
 7688SOL    HW224904   2.163   7.527   8.539
 7689SOL     OW24905  12.416   7.564   4.146
 7689SOL    HW124906  12.386   7.650   4.176
 7689SOL    HW224907  12.336   7.514   4.131
 7690SOL     OW24908   5.833   7.012   9.725
 7690SOL    HW124909   5.754   7.022   9.779
 7690SOL    HW224910   5.892   6.961   9.780
 7691SOL     OW24911   3.089  10.784  13.697
 7691SOL    HW124912   3.130  10.868  13.679
 7691SOL    HW224913   3.070  10.786  13.791
 7692SOL     OW24914   7.562  11.441  10.788
 7692SOL    HW124915   7.541  11.465  10.698
 7692SOL    HW224916   7.516  11.505  10.842
 7693SOL     OW24917  10.905   7.925   1.861
 7693SOL    HW124918  10.981   7.966   1.819
 7693SOL    HW224919  10.850   7.896   1.789
 7694SOL     OW24920   9.286   9.371   3.217
 7694SOL    HW124921   9.337   9.348   3.295
 7694SOL    HW224922   9.353   9.387   3.149
 7695SOL     OW24923   4.649  14.027   2.919
 7695SOL    HW124924   4.707  14.086   2.967
 7695SOL    HW224925   4.630  13.957   2.981
 7696SOL     OW24926   6.700   9.546   5.270
 7696SOL    HW124927   6.658   9.497   5.199
 7696SOL    HW224928   6.679   9.497   5.349
 7697SOL     OW24929   5.634   0.273   0.381
 7697SOL    HW124930   5.590   0.303   0.460
 7697SOL    HW224931   5.722   0.249   0.409
 7698SOL     OW24932   3.590  11.437   9.268
 7698SOL    HW124933   3.686  11.443   9.264
 7698SOL    HW224934   3.573  11.388   9.349
 7699SOL     OW24935  14.239   1.789   5.957
 7699SOL    HW124936  14.204   1.878   5.966
 7699SOL    HW224937  14.324   1.792   6.001
 7700SOL     OW24938   5.661  14.665  12.063
 7700SOL    HW124939   5.605  14.642  12.138
 7700SOL    HW224940   5.750  14.649  12.095
 7701SOL     OW24941  11.551  14.362   2.867
 7701SOL    HW124942  11.546  14.406   2.952
 7701SOL    HW224943  11.496  14.284   2.877
 7702SOL     OW24944   3.492   9.460   0.055
 7702SOL    HW124945   3.405   9.496   0.073
 7702SOL    HW224946   3.552   9.533   0.069
 7703SOL     OW24947  14.665   8.145  13.609
 7703SOL    HW124948  14.728   8.150  13.537
 7703SOL    HW224949  14.582   8.122  13.567
 7704SOL     OW24950  14.833  13.822  11.541
 7704SOL    HW124951  14.823  13.748  11.601
 7704SOL    HW224952   0.003  13.786  11.468
 7705SOL     OW24953   3.802   3.163   9.958
 7705SOL    HW124954   3.764   3.235   9.908
 7705SOL    HW224955   3.888   3.196   9.985
 7706SOL     OW24956  14.393   8.498   2.771
 7706SOL    HW124957  14.395   8.417   2.823
 7706SOL    HW224958  14.301   8.521   2.765
 7707SOL     OW24959  10.815   2.891  14.121
 7707SOL    HW124960  10.741   2.832  14.107
 7707SOL    HW224961  10.793   2.969  14.071
 7708SOL     OW24962   6.140   5.705  10.205
 7708SOL    HW124963   6.180   5.683  10.121
 7708SOL    HW224964   6.106   5.622  10.238
 7709SOL     OW24965  14.238   1.032  12.442
 7709SOL    HW124966  14.211   1.008  12.531
 7709SOL    HW224967  14.177   1.102  12.418
 7710SOL     OW24968   0.161  11.204   9.476
 7710SOL    HW124969   0.193  11.149   9.548
 7710SOL    HW224970   0.086  11.250   9.513
 7711SOL     OW24971  11.882   4.546   8.112
 7711SOL    HW124972  11.926   4.538   8.028
 7711SOL    HW224973  11.921   4.623   8.153
 7712SOL     OW24974  10.262  11.556   4.767
 7712SOL    HW124975  10.226  11.474   4.734
 7712SOL    HW224976  10.206  11.578   4.841
 7713SOL     OW24977  14.572   8.352   1.543
 7713SOL    HW124978  14.666   8.364   1.557
 7713SOL    HW224979  14.538   8.440   1.529
 7714SOL     OW24980   8.231  11.030  10.638
 7714SOL    HW124981   8.287  10.992  10.706
 7714SOL    HW224982   8.148  10.984  10.647
 7715SOL     OW24983   5.687   9.386  11.927
 7715SOL    HW124984   5.738   9.317  11.884
 7715SOL    HW224985   5.672   9.451  11.858
 7716SOL     OW24986   5.988  11.745   6.387
 7716SOL    HW124987   5.970  11.680   6.319
 7716SOL    HW224988   6.042  11.698   6.451
 7717SOL     OW24989   2.852  10.486   1.283
 7717SOL    HW124990   2.870  10.483   1.377
 7717SOL    HW224991   2.776  10.429   1.271
 7718SOL     OW24992  10.503   1.075   1.088
 7718SOL    HW124993  10.447   0.997   1.083
 7718SOL    HW224994  10.475   1.120   1.167
 7719SOL     OW24995   7.537   4.729   2.062
 7719SOL    HW124996   7.495   4.814   2.051
 7719SOL    HW224997   7.605   4.726   1.995
 7720SOL     OW24998   8.531   0.744   2.888
 7720SOL    HW124999   8.611   0.784   2.922
 7720SOL    HW225000   8.558   0.705   2.804
 7721SOL     OW25001  13.654   8.196   3.275
 7721SOL    HW125002  13.690   8.137   3.341
 7721SOL    HW225003  13.731   8.239   3.237
 7722SOL     OW25004  13.708   0.775   0.405
 7722SOL    HW125005  13.620   0.743   0.385
 7722SOL    HW225006  13.738   0.814   0.322
 7723SOL     OW25007   4.950  10.321   6.837
 7723SOL    HW125008   4.971  10.242   6.886
 7723SOL    HW225009   4.854  10.323   6.834
 7724SOL     OW25010   2.878   7.993   8.616
 7724SOL    HW125011   2.878   7.898   8.604
 7724SOL    HW225012   2.835   8.027   8.537
 7725SOL     OW25013   8.899  12.651   4.016
 7725SOL    HW125014   8.826  12.709   3.994
 7725SOL    HW225015   8.977  12.702   3.995
 7726SOL     OW25016   5.436   9.367   5.391
 7726SOL    HW125017   5.481   9.283   5.397
 7726SOL    HW225018   5.407   9.386   5.480
 7727SOL     OW25019   9.431   7.283   3.898
 7727SOL    HW125020   9.385   7.224   3.958
 7727SOL    HW225021   9.516   7.242   3.884
 7728SOL     OW25022  12.880   1.509  14.275
 7728SOL    HW125023  12.969   1.482  14.297
 7728SOL    HW225024  12.849   1.443  14.213
 7729SOL     OW25025  12.162  14.613   9.447
 7729SOL    HW125026  12.189  14.549   9.380
 7729SOL    HW225027  12.104  14.564   9.505
 7730SOL     OW25028   9.390  11.716  10.542
 7730SOL    HW125029   9.369  11.754  10.627
 7730SOL    HW225030   9.470  11.759  10.515
 7731SOL     OW25031   0.177   7.302  12.802
 7731SOL    HW125032   0.249   7.259  12.755
 7731SOL    HW225033   0.100   7.248  12.781
 7732SOL     OW25034   3.040  10.753   7.662
 7732SOL    HW125035   3.025  10.831   7.716
 7732SOL    HW225036   3.034  10.680   7.724
 7733SOL     OW25037   5.872  11.145  10.001
 7733SOL    HW125038   5.875  11.236   9.972
 7733SOL    HW225039   5.930  11.099   9.940
 7734SOL     OW25040  14.031   5.422   0.522
 7734SOL    HW125041  14.027   5.326   0.517
 7734SOL    HW225042  14.104   5.439   0.581
 7735SOL     OW25043   1.765   6.633  13.273
 7735SOL    HW125044   1.796   6.649  13.183
 7735SOL    HW225045   1.694   6.696  13.285
 7736SOL     OW25046  12.748   3.058  13.650
 7736SOL    HW125047  12.730   3.021  13.737
 7736SOL    HW225048  12.747   3.153  13.664
 7737SOL     OW25049   1.517  10.891   2.776
 7737SOL    HW125050   1.530  10.820   2.840
 7737SOL    HW225051   1.424  10.909   2.779
 7738SOL     OW25052  10.894   0.780   5.589
 7738SOL    HW125053  10.936   0.864   5.569
 7738SOL    HW225054  10.801   0.799   5.592
 7739SOL     OW25055   9.216   9.798   0.810
 7739SOL    HW125056   9.169   9.714   0.813
 7739SOL    HW225057   9.264   9.795   0.727
 7740SOL     OW25058   8.956   6.524   8.612
 7740SOL    HW125059   8.864   6.538   8.635
 7740SOL    HW225060   8.995   6.611   8.617
 7741SOL     OW25061   9.851   1.854  13.331
 7741SOL    HW125062   9.935   1.872  13.373
 7741SOL    HW225063   9.806   1.794  13.390
 7742SOL     OW25064   7.814   3.421  11.033
 7742SOL    HW125065   7.835   3.436  10.940
 7742SOL    HW225066   7.837   3.504  11.076
 7743SOL     OW25067   8.183  11.103   1.961
 7743SOL    HW125068   8.273  11.116   1.929
 7743SOL    HW225069   8.191  11.040   2.032
 7744SOL     OW25070  12.227   9.255  11.183
 7744SOL    HW125071  12.259   9.340  11.153
 7744SOL    HW225072  12.170   9.225  11.113
 7745SOL     OW25073   3.382   0.669  11.814
 7745SOL    HW125074   3.343   0.605  11.874
 7745SOL    HW225075   3.462   0.627  11.784
 7746SOL     OW25076   4.733  10.219   2.639
 7746SOL    HW125077   4.826  10.201   2.626
 7746SOL    HW225078   4.731  10.307   2.677
 7747SOL     OW25079   8.177  14.627  12.375
 7747SOL    HW125080   8.257  14.576  12.365
 7747SOL    HW225081   8.116  14.591  12.310
 7748SOL     OW25082   2.088   0.679   5.292
 7748SOL    HW125083   2.013   0.691   5.349
 7748SOL    HW225084   2.053   0.691   5.203
 7749SOL     OW25085   6.280   6.101  13.331
 7749SOL    HW125086   6.337   6.177  13.316
 7749SOL    HW225087   6.193   6.140  13.346
 7750SOL     OW25088   7.291   5.557  10.480
 7750SOL    HW125089   7.375   5.600  10.465
 7750SOL    HW225090   7.256   5.540  10.393
 7751SOL     OW25091   0.114  14.270   0.426
 7751SOL    HW125092   0.195  14.223   0.446
 7751SOL    HW225093   0.122  14.294   0.334
 7752SOL     OW25094   8.734  10.428  12.670
 7752SOL    HW125095   8.740  10.377  12.752
 7752SOL    HW225096   8.658  10.391  12.625
 7753SOL     OW25097  10.198   3.855  12.964
 7753SOL    HW125098  10.185   3.780  12.905
 7753SOL    HW225099  10.113   3.866  13.007
 7754SOL     OW25100   6.999   1.002   2.019
 7754SOL    HW125101   6.997   0.913   2.054
 7754SOL    HW225102   7.064   0.999   1.949
 7755SOL     OW25103  14.681   5.059  11.066
 7755SOL    HW125104  14.758   5.100  11.106
 7755SOL    HW225105  14.710   5.034  10.978
 7756SOL     OW25106   6.378   2.441   6.998
 7756SOL    HW125107   6.316   2.434   7.071
 7756SOL    HW225108   6.377   2.534   6.975
 7757SOL     OW25109   3.393  10.949   1.800
 7757SOL    HW125110   3.452  10.929   1.727
 7757SOL    HW225111   3.355  11.034   1.777
 7758SOL     OW25112   5.765   0.189  10.296
 7758SOL    HW125113   5.732   0.132  10.365
 7758SOL    HW225114   5.811   0.130  10.236
 7759SOL     OW25115   2.284   7.422  13.125
 7759SOL    HW125116   2.367   7.380  13.101
 7759SOL    HW225117   2.234   7.425  13.043
 7760SOL     OW25118   0.908  13.497  14.820
 7760SOL    HW125119   0.985  13.543  14.784
 7760SOL    HW225120   0.900  13.530   0.029
 7761SOL     OW25121   3.120   2.779   2.840
 7761SOL    HW125122   3.169   2.744   2.766
 7761SOL    HW225123   3.029   2.783   2.809
 7762SOL     OW25124   1.500   8.404  11.489
 7762SOL    HW125125   1.503   8.500  11.498
 7762SOL    HW225126   1.458   8.374  11.570
 7763SOL     OW25127   0.259  10.148   8.273
 7763SOL    HW125128   0.171  10.152   8.309
 7763SOL    HW225129   0.310  10.208   8.328
 7764SOL     OW25130   5.245   8.557  12.068
 7764SOL    HW125131   5.251   8.613  11.992
 7764SOL    HW225132   5.158   8.574  12.105
 7765SOL     OW25133   5.506  12.087  10.094
 7765SOL    HW125134   5.526  12.041  10.175
 7765SOL    HW225135   5.485  12.018  10.031
 7766SOL     OW25136   9.835   0.012   2.197
 7766SOL    HW125137   9.923   0.049   2.188
 7766SOL    HW225138   9.842  14.832   2.271
 7767SOL     OW25139   7.119  11.166  12.172
 7767SOL    HW125140   7.103  11.244  12.118
 7767SOL    HW225141   7.041  11.112  12.159
 7768SOL     OW25142  12.702   7.492   7.058
 7768SOL    HW125143  12.680   7.573   7.104
 7768SOL    HW225144  12.771   7.517   6.996
 7769SOL     OW25145  12.070   0.431   8.493
 7769SOL    HW125146  12.090   0.364   8.559
 7769SOL    HW225147  12.022   0.383   8.425
 7770SOL     OW25148   7.325   4.973   1.663
 7770SOL    HW125149   7.240   4.931   1.677
 7770SOL    HW225150   7.312   5.064   1.690
 7771SOL     OW25151  13.801   0.006   9.332
 7771SOL    HW125152  13.893  14.874   9.358
 7771SOL    HW225153  13.768   0.073   9.392
 7772SOL     OW25154   8.567  13.060   9.200
 7772SOL    HW125155   8.555  13.028   9.111
 7772SOL    HW225156   8.508  13.135   9.206
 7773SOL     OW25157   6.146  12.631   0.244
 7773SOL    HW125158   6.062  12.590   0.262
 7773SOL    HW225159   6.198  12.615   0.323
 7774SOL     OW25160  11.049  14.798  12.674
 7774SOL    HW125161  10.955  14.810  12.660
 7774SOL    HW225162  11.090  14.839  12.599
 7775SOL     OW25163   2.790   2.855   0.143
 7775SOL    HW125164   2.807   2.774   0.191
 7775SOL    HW225165   2.715   2.894   0.187
 7776SOL     OW25166  13.718   9.049   3.323
 7776SOL    HW125167  13.637   8.999   3.330
 7776SOL    HW225168  13.778   8.991   3.275
 7777SOL     OW25169   4.422   5.962   6.084
 7777SOL    HW125170   4.497   5.926   6.035
 7777SOL    HW225171   4.461   6.001   6.162
 7778SOL     OW25172  12.171   7.265  11.596
 7778SOL    HW125173  12.220   7.303  11.668
 7778SOL    HW225174  12.081   7.293  11.610
 7779SOL     OW25175   2.168   3.182  12.220
 7779SOL    HW125176   2.191   3.153  12.132
 7779SOL    HW225177   2.184   3.276  12.220
 7780SOL     OW25178   7.757  12.447  13.301
 7780SOL    HW125179   7.796  12.473  13.384
 7780SOL    HW225180   7.760  12.351  13.302
 7781SOL     OW25181   5.318  10.740   4.144
 7781SOL    HW125182   5.318  10.695   4.059
 7781SOL    HW225183   5.392  10.702   4.191
 7782SOL     OW25184   9.110   1.042   2.121
 7782SOL    HW125185   9.103   1.075   2.210
 7782SOL    HW225186   9.173   1.100   2.079
 7783SOL     OW25187   4.804   5.571  10.221
 7783SOL    HW125188   4.790   5.491  10.271
 7783SOL    HW225189   4.716   5.600  10.197
 7784SOL     OW25190   7.807  12.311   1.988
 7784SOL    HW125191   7.818  12.216   1.997
 7784SOL    HW225192   7.874  12.337   1.926
 7785SOL     OW25193  12.212   9.429   0.800
 7785SOL    HW125194  12.187   9.419   0.708
 7785SOL    HW225195  12.308   9.424   0.799
 7786SOL     OW25196   3.738   3.302   6.377
 7786SOL    HW125197   3.683   3.372   6.411
 7786SOL    HW225198   3.725   3.304   6.283
 7787SOL     OW25199   5.809  11.119  12.674
 7787SOL    HW125200   5.777  11.069  12.750
 7787SOL    HW225201   5.742  11.105  12.606
 7788SOL     OW25202   0.311   9.701   3.334
 7788SOL    HW125203   0.289   9.745   3.416
 7788SOL    HW225204   0.229   9.704   3.283
 7789SOL     OW25205   1.260  10.577   3.482
 7789SOL    HW125206   1.188  10.596   3.542
 7789SOL    HW225207   1.253  10.642   3.413
 7790SOL     OW25208   2.826   9.740   1.178
 7790SOL    HW125209   2.752   9.703   1.129
 7790SOL    HW225210   2.786   9.800   1.241
 7791SOL     OW25211  11.248  11.652   4.489
 7791SOL    HW125212  11.272  11.645   4.582
 7791SOL    HW225213  11.158  11.682   4.490
 7792SOL     OW25214  14.625   6.797  10.302
 7792SOL    HW125215  14.704   6.773  10.352
 7792SOL    HW225216  14.571   6.718  10.305
 7793SOL     OW25217   9.621   3.591   2.807
 7793SOL    HW125218   9.564   3.514   2.802
 7793SOL    HW225219   9.666   3.592   2.722
 7794SOL     OW25220   3.952  11.696   0.058
 7794SOL    HW125221   3.949  11.764  14.870
 7794SOL    HW225222   3.881  11.636   0.035
 7795SOL     OW25223  11.726   5.876   7.554
 7795SOL    HW125224  11.675   5.905   7.478
 7795SOL    HW225225  11.808   5.843   7.517
 7796SOL     OW25226  12.795   0.646   7.253
 7796SOL    HW125227  12.859   0.608   7.314
 7796SOL    HW225228  12.733   0.575   7.237
 7797SOL     OW25229   9.124   8.631   7.661
 7797SOL    HW125230   9.120   8.672   7.574
 7797SOL    HW225231   9.128   8.537   7.644
 7798SOL     OW25232   0.487   0.011   9.830
 7798SOL    HW125233   0.516  14.804   9.860
 7798SOL    HW225234   0.400  14.875   9.794
 7799SOL     OW25235   3.049   6.551   3.686
 7799SOL    HW125236   3.125   6.513   3.644
 7799SOL    HW225237   3.026   6.626   3.631
 7800SOL     OW25238   5.107  10.200   9.337
 7800SOL    HW125239   5.071  10.236   9.256
 7800SOL    HW225240   5.074  10.110   9.340
 7801SOL     OW25241   8.036   9.945   1.274
 7801SOL    HW125242   8.049   9.854   1.248
 7801SOL    HW225243   7.967   9.941   1.340
 7802SOL     OW25244  11.014   0.854  11.410
 7802SOL    HW125245  11.096   0.807  11.423
 7802SOL    HW225246  10.947   0.798  11.449
 7803SOL     OW25247  12.610  10.564   3.568
 7803SOL    HW125248  12.588  10.656   3.549
 7803SOL    HW225249  12.563  10.514   3.502
 7804SOL     OW25250  13.298   5.318   3.054
 7804SOL    HW125251  13.260   5.370   2.983
 7804SOL    HW225252  13.271   5.228   3.034
 7805SOL     OW25253   7.773   6.796   8.781
 7805SOL    HW125254   7.722   6.822   8.705
 7805SOL    HW225255   7.727   6.835   8.856
 7806SOL     OW25256   1.690  13.845  10.211
 7806SOL    HW125257   1.747  13.874  10.282
 7806SOL    HW225258   1.644  13.769  10.246
 7807SOL     OW25259   1.636   7.109   8.999
 7807SOL    HW125260   1.603   7.094   8.910
 7807SOL    HW225261   1.706   7.173   8.988
 7808SOL     OW25262   4.009   7.717   0.931
 7808SOL    HW125263   4.090   7.767   0.913
 7808SOL    HW225264   4.035   7.626   0.922
 7809SOL     OW25265   9.245  10.038   9.993
 7809SOL    HW125266   9.261  10.127   9.962
 7809SOL    HW225267   9.331   9.996   9.991
 7810SOL     OW25268  10.042  14.638   2.582
 7810SOL    HW125269  10.130  14.610   2.608
 7810SOL    HW225270   9.996  14.651   2.665
 7811SOL     OW25271   3.820  14.580   7.972
 7811SOL    HW125272   3.734  14.546   7.997
 7811SOL    HW225273   3.880  14.542   8.036
 7812SOL     OW25274  10.585   8.906  11.537
 7812SOL    HW125275  10.585   8.890  11.443
 7812SOL    HW225276  10.638   8.835  11.574
 7813SOL     OW25277   9.519  10.081   8.817
 7813SOL    HW125278   9.530  10.070   8.722
 7813SOL    HW225279   9.504   9.992   8.849
 7814SOL     OW25280   4.512  13.710   7.189
 7814SOL    HW125281   4.479  13.709   7.278
 7814SOL    HW225282   4.514  13.803   7.165
 7815SOL     OW25283  13.721   6.320   3.886
 7815SOL    HW125284  13.748   6.339   3.976
 7815SOL    HW225285  13.626   6.314   3.890
 7816SOL     OW25286   4.203  13.644  13.621
 7816SOL    HW125287   4.182  13.624  13.712
 7816SOL    HW225288   4.261  13.720  13.627
 7817SOL     OW25289  10.483  12.649  11.715
 7817SOL    HW125290  10.534  12.726  11.742
 7817SOL    HW225291  10.431  12.626  11.793
 7818SOL     OW25292  10.180   8.680  11.071
 7818SOL    HW125293  10.145   8.711  10.987
 7818SOL    HW225294  10.250   8.742  11.091
 7819SOL     OW25295   6.126   3.809   5.063
 7819SOL    HW125296   6.101   3.781   4.975
 7819SOL    HW225297   6.127   3.728   5.115
 7820SOL     OW25298  14.382  14.056  13.964
 7820SOL    HW125299  14.336  13.972  13.967
 7820SOL    HW225300  14.440  14.049  13.888
 7821SOL     OW25301   3.782  13.334  12.069
 7821SOL    HW125302   3.760  13.343  11.976
 7821SOL    HW225303   3.813  13.420  12.095
 7822SOL     OW25304   6.877   9.241   9.414
 7822SOL    HW125305   6.905   9.297   9.487
 7822SOL    HW225306   6.784   9.259   9.405
 7823SOL     OW25307   4.833   5.083   7.401
 7823SOL    HW125308   4.838   4.988   7.413
 7823SOL    HW225309   4.741   5.100   7.381
 7824SOL     OW25310   0.099   0.478   2.171
 7824SOL    HW125311   0.047   0.541   2.119
 7824SOL    HW225312   0.098   0.398   2.119
 7825SOL     OW25313  11.753   8.746  13.385
 7825SOL    HW125314  11.669   8.702  13.403
 7825SOL    HW225315  11.759   8.746  13.289
 7826SOL     OW25316   1.809  12.824  10.824
 7826SOL    HW125317   1.755  12.897  10.794
 7826SOL    HW225318   1.766  12.793  10.903
 7827SOL     OW25319   4.445   7.229  14.177
 7827SOL    HW125320   4.528   7.194  14.209
 7827SOL    HW225321   4.413   7.284  14.248
 7828SOL     OW25322   9.754  14.204   3.328
 7828SOL    HW125323   9.794  14.270   3.272
 7828SOL    HW225324   9.696  14.154   3.269
 7829SOL     OW25325   0.289  14.420  11.384
 7829SOL    HW125326   0.318  14.508  11.361
 7829SOL    HW225327   0.294  14.416  11.479
 7830SOL     OW25328   1.300   2.929  11.769
 7830SOL    HW125329   1.264   2.986  11.838
 7830SOL    HW225330   1.238   2.938  11.697
 7831SOL     OW25331   7.783  11.668   4.340
 7831SOL    HW125332   7.710  11.730   4.332
 7831SOL    HW225333   7.859  11.724   4.354
 7832SOL     OW25334  11.190   8.752   1.441
 7832SOL    HW125335  11.146   8.785   1.519
 7832SOL    HW225336  11.195   8.657   1.454
 7833SOL     OW25337   5.096   6.809   3.597
 7833SOL    HW125338   5.184   6.827   3.566
 7833SOL    HW225339   5.039   6.852   3.533
 7834SOL     OW25340   2.079   1.390  14.774
 7834SOL    HW125341   2.158   1.375  14.826
 7834SOL    HW225342   2.035   1.463  14.818
 7835SOL     OW25343  12.363   9.903   9.034
 7835SOL    HW125344  12.396   9.951   8.958
 7835SOL    HW225345  12.311   9.968   9.082
 7836SOL     OW25346   2.452   8.009   4.966
 7836SOL    HW125347   2.512   8.051   4.905
 7836SOL    HW225348   2.425   8.080   5.025
 7837SOL     OW25349   7.998   7.525   0.011
 7837SOL    HW125350   8.036   7.609  14.864
 7837SOL    HW225351   7.922   7.550   0.064
 7838SOL     OW25352   2.869   3.243   0.175
 7838SOL    HW125353   2.907   3.185   0.109
 7838SOL    HW225354   2.937   3.251   0.242
 7839SOL     OW25355   9.066   8.608   3.115
 7839SOL    HW125356   9.054   8.703   3.117
 7839SOL    HW225357   9.002   8.578   3.050
 7840SOL     OW25358  10.551  10.862  12.246
 7840SOL    HW125359  10.545  10.913  12.327
 7840SOL    HW225360  10.495  10.909  12.184
 7841SOL     OW25361   2.642   8.144   8.943
 7841SOL    HW125362   2.711   8.084   8.917
 7841SOL    HW225363   2.590   8.095   9.006
 7842SOL     OW25364  12.803  12.758   9.797
 7842SOL    HW125365  12.728  12.699   9.807
 7842SOL    HW225366  12.764  12.840   9.765
 7843SOL     OW25367   2.556  11.489   1.202
 7843SOL    HW125368   2.539  11.535   1.120
 7843SOL    HW225369   2.486  11.517   1.261
 7844SOL     OW25370  13.165   2.626   1.567
 7844SOL    HW125371  13.091   2.649   1.625
 7844SOL    HW225372  13.137   2.655   1.480
 7845SOL     OW25373   8.491   4.402  13.505
 7845SOL    HW125374   8.585   4.402  13.523
 7845SOL    HW225375   8.468   4.310  13.497
 7846SOL     OW25376   2.086   8.743  14.088
 7846SOL    HW125377   2.172   8.735  14.130
 7846SOL    HW225378   2.096   8.816  14.027
 7847SOL     OW25379   8.736  12.952   6.586
 7847SOL    HW125380   8.811  13.000   6.621
 7847SOL    HW225381   8.751  12.949   6.492
 7848SOL     OW25382   1.067  14.323   2.472
 7848SOL    HW125383   1.090  14.315   2.380
 7848SOL    HW225384   1.128  14.388   2.507
 7849SOL     OW25385   8.181  11.996   2.902
 7849SOL    HW125386   8.094  11.992   2.941
 7849SOL    HW225387   8.240  12.014   2.975
 7850SOL     OW25388  11.500   4.463   9.211
 7850SOL    HW125389  11.428   4.460   9.274
 7850SOL    HW225390  11.469   4.412   9.136
 7851SOL     OW25391   0.613  11.120   4.535
 7851SOL    HW125392   0.616  11.205   4.491
 7851SOL    HW225393   0.659  11.061   4.476
 7852SOL     OW25394   0.554   7.017   2.829
 7852SOL    HW125395   0.508   6.967   2.896
 7852SOL    HW225396   0.643   7.026   2.863
 7853SOL     OW25397   1.650  12.115   0.968
 7853SOL    HW125398   1.725  12.158   0.928
 7853SOL    HW225399   1.620  12.053   0.901
 7854SOL     OW25400   3.921  10.542   4.280
 7854SOL    HW125401   3.893  10.633   4.269
 7854SOL    HW225402   3.896  10.521   4.370
 7855SOL     OW25403   4.950   0.423   7.966
 7855SOL    HW125404   4.972   0.337   7.931
 7855SOL    HW225405   4.986   0.423   8.055
 7856SOL     OW25406   1.124   0.431  13.265
 7856SOL    HW125407   1.180   0.358  13.238
 7856SOL    HW225408   1.167   0.509  13.229
 7857SOL     OW25409   5.903  13.935   5.146
 7857SOL    HW125410   5.890  13.909   5.054
 7857SOL    HW225411   5.995  13.919   5.163
 7858SOL     OW25412   4.337   6.755   7.095
 7858SOL    HW125413   4.401   6.699   7.139
 7858SOL    HW225414   4.357   6.745   7.002
 7859SOL     OW25415   7.576   3.940   4.954
 7859SOL    HW125416   7.595   3.911   5.044
 7859SOL    HW225417   7.637   3.890   4.900
 7860SOL     OW25418  11.751  13.876   0.450
 7860SOL    HW125419  11.727  13.783   0.448
 7860SOL    HW225420  11.823  13.881   0.513
 7861SOL     OW25421   9.754   3.471   3.690
 7861SOL    HW125422   9.826   3.520   3.730
 7861SOL    HW225423   9.688   3.466   3.759
 7862SOL     OW25424   4.464   0.339   2.940
 7862SOL    HW125425   4.520   0.331   2.863
 7862SOL    HW225426   4.516   0.391   3.002
 7863SOL     OW25427   2.136  14.095  13.331
 7863SOL    HW125428   2.093  14.016  13.363
 7863SOL    HW225429   2.226  14.068  13.313
 7864SOL     OW25430  10.926   2.732  14.558
 7864SOL    HW125431  10.979   2.656  14.582
 7864SOL    HW225432  10.984   2.807  14.569
 7865SOL     OW25433  10.577   6.611   4.367
 7865SOL    HW125434  10.632   6.628   4.443
 7865SOL    HW225435  10.551   6.519   4.376
 7866SOL     OW25436  14.330  14.439   2.107
 7866SOL    HW125437  14.321  14.400   2.020
 7866SOL    HW225438  14.261  14.398   2.160
 7867SOL     OW25439  12.843  10.425   7.227
 7867SOL    HW125440  12.803  10.338   7.221
 7867SOL    HW225441  12.813  10.470   7.148
 7868SOL     OW25442  10.327  10.113   6.215
 7868SOL    HW125443  10.256  10.073   6.265
 7868SOL    HW225444  10.367  10.041   6.167
 7869SOL     OW25445   9.242   9.796   5.995
 7869SOL    HW125446   9.233   9.709   5.955
 7869SOL    HW225447   9.170   9.801   6.058
 7870SOL     OW25448   1.265   4.466   0.320
 7870SOL    HW125449   1.230   4.382   0.349
 7870SOL    HW225450   1.258   4.522   0.397
 7871SOL     OW25451   6.427  13.518   7.637
 7871SOL    HW125452   6.463  13.604   7.657
 7871SOL    HW225453   6.337  13.521   7.667
 7872SOL     OW25454   1.599  13.692   8.481
 7872SOL    HW125455   1.672  13.748   8.456
 7872SOL    HW225456   1.573  13.724   8.567
 7873SOL     OW25457   6.268   4.726   0.832
 7873SOL    HW125458   6.246   4.773   0.912
 7873SOL    HW225459   6.349   4.767   0.801
 7874SOL     OW25460   5.286   8.718   9.334
 7874SOL    HW125461   5.287   8.786   9.267
 7874SOL    HW225462   5.259   8.639   9.287
 7875SOL     OW25463   4.385   5.547  13.442
 7875SOL    HW125464   4.325   5.616  13.413
 7875SOL    HW225465   4.472   5.586  13.433
 7876SOL     OW25466   1.919   0.695   8.219
 7876SOL    HW125467   1.923   0.599   8.211
 7876SOL    HW225468   2.009   0.721   8.238
 7877SOL     OW25469  11.431   0.984  11.063
 7877SOL    HW125470  11.376   0.915  11.099
 7877SOL    HW225471  11.481   1.017  11.138
 7878SOL     OW25472   1.346  14.019   5.216
 7878SOL    HW125473   1.435  14.054   5.219
 7878SOL    HW225474   1.338  13.966   5.296
 7879SOL     OW25475   5.926   6.477   7.075
 7879SOL    HW125476   5.854   6.486   7.137
 7879SOL    HW225477   5.938   6.565   7.040
 7880SOL     OW25478   0.092   5.065   4.501
 7880SOL    HW125479   0.066   5.157   4.493
 7880SOL    HW225480   0.024   5.025   4.556
 7881SOL     OW25481  11.243  13.833   8.250
 7881SOL    HW125482  11.334  13.816   8.228
 7881SOL    HW225483  11.232  13.795   8.338
 7882SOL     OW25484   4.607  12.416   6.730
 7882SOL    HW125485   4.566  12.387   6.649
 7882SOL    HW225486   4.644  12.502   6.709
 7883SOL     OW25487  11.646  11.320   6.569
 7883SOL    HW125488  11.702  11.277   6.633
 7883SOL    HW225489  11.708  11.357   6.505
 7884SOL     OW25490   6.463   9.602   2.433
 7884SOL    HW125491   6.483   9.661   2.359
 7884SOL    HW225492   6.380   9.635   2.468
 7885SOL     OW25493   1.962   8.539  11.200
 7885SOL    HW125494   1.984   8.607  11.263
 7885SOL    HW225495   1.946   8.586  11.118
 7886SOL     OW25496   7.422   0.451  11.222
 7886SOL    HW125497   7.388   0.447  11.312
 7886SOL    HW225498   7.353   0.494  11.172
 7887SOL     OW25499   2.632  11.519  10.415
 7887SOL    HW125500   2.655  11.503  10.507
 7887SOL    HW225501   2.714  11.506  10.367
 7888SOL     OW25502  10.103   1.743   1.256
 7888SOL    HW125503  10.026   1.743   1.313
 7888SOL    HW225504  10.070   1.772   1.171
 7889SOL     OW25505   1.221   7.920   7.157
 7889SOL    HW125506   1.284   7.941   7.089
 7889SOL    HW225507   1.197   7.829   7.141
 7890SOL     OW25508   8.955   0.982   3.868
 7890SOL    HW125509   8.937   1.044   3.797
 7890SOL    HW225510   8.868   0.962   3.904
 7891SOL     OW25511   6.149   4.722   7.324
 7891SOL    HW125512   6.204   4.759   7.393
 7891SOL    HW225513   6.096   4.656   7.368
 7892SOL     OW25514   3.741   3.597   9.792
 7892SOL    HW125515   3.739   3.574   9.885
 7892SOL    HW225516   3.648   3.601   9.767
 7893SOL     OW25517   5.373   9.177   6.138
 7893SOL    HW125518   5.465   9.202   6.147
 7893SOL    HW225519   5.332   9.209   6.219
 7894SOL     OW25520   1.804   5.288   6.815
 7894SOL    HW125521   1.792   5.194   6.831
 7894SOL    HW225522   1.748   5.331   6.879
 7895SOL     OW25523   4.508   7.888  10.496
 7895SOL    HW125524   4.490   7.976  10.529
 7895SOL    HW225525   4.560   7.846  10.564
 7896SOL     OW25526   8.094   6.944  14.558
 7896SOL    HW125527   8.014   6.947  14.506
 7896SOL    HW225528   8.075   6.879  14.626
 7897SOL     OW25529   9.840   9.859   9.770
 7897SOL    HW125530   9.822   9.769   9.795
 7897SOL    HW225531   9.923   9.879   9.812
 7898SOL     OW25532  14.748   2.823   3.175
 7898SOL    HW125533  14.767   2.903   3.126
 7898SOL    HW225534  14.697   2.769   3.113
 7899SOL     OW25535  13.875   4.614  13.756
 7899SOL    HW125536  13.967   4.595  13.740
 7899SOL    HW225537  13.849   4.550  13.823
 7900SOL     OW25538  11.904   4.365  11.295
 7900SOL    HW125539  11.875   4.325  11.377
 7900SOL    HW225540  11.873   4.455  11.300
 7901SOL     OW25541  14.554   6.087  13.543
 7901SOL    HW125542  14.556   6.159  13.606
 7901SOL    HW225543  14.554   6.130  13.458
 7902SOL     OW25544   9.264  12.620  11.976
 7902SOL    HW125545   9.233  12.581  12.058
 7902SOL    HW225546   9.193  12.604  11.914
 7903SOL     OW25547  13.445  10.136  14.617
 7903SOL    HW125548  13.534  10.140  14.582
 7903SOL    HW225549  13.433  10.221  14.660
 7904SOL     OW25550   4.106   6.739  10.782
 7904SOL    HW125551   4.081   6.821  10.739
 7904SOL    HW225552   4.173   6.701  10.725
 7905SOL     OW25553   7.298   2.520   5.964
 7905SOL    HW125554   7.272   2.432   5.988
 7905SOL    HW225555   7.348   2.552   6.039
 7906SOL     OW25556  14.856   4.699  11.529
 7906SOL    HW125557   0.071   4.692  11.544
 7906SOL    HW225558  14.823   4.610  11.538
 7907SOL     OW25559  13.649   9.516   1.102
 7907SOL    HW125560  13.646   9.434   1.151
 7907SOL    HW225561  13.704   9.574   1.155
 7908SOL     OW25562  10.214   5.728  10.621
 7908SOL    HW125563  10.220   5.634  10.609
 7908SOL    HW225564  10.286   5.764  10.571
 7909SOL     OW25565   2.456   7.059   7.516
 7909SOL    HW125566   2.398   7.126   7.551
 7909SOL    HW225567   2.501   7.024   7.593
 7910SOL     OW25568   2.102   0.500   6.140
 7910SOL    HW125569   2.027   0.543   6.182
 7910SOL    HW225570   2.171   0.502   6.206
 7911SOL     OW25571   5.981   3.135   1.394
 7911SOL    HW125572   6.002   3.071   1.326
 7911SOL    HW225573   6.007   3.093   1.476
 7912SOL     OW25574  10.528  14.514  12.256
 7912SOL    HW125575  10.558  14.450  12.321
 7912SOL    HW225576  10.582  14.495  12.179
 7913SOL     OW25577   2.598   2.412  11.067
 7913SOL    HW125578   2.655   2.450  11.134
 7913SOL    HW225579   2.516   2.394  11.113
 7914SOL     OW25580   6.978  10.524   3.657
 7914SOL    HW125581   7.043  10.553   3.720
 7914SOL    HW225582   7.018  10.450   3.613
 7915SOL     OW25583   7.551  13.325   2.894
 7915SOL    HW125584   7.615  13.334   2.823
 7915SOL    HW225585   7.553  13.233   2.917
 7916SOL     OW25586  10.577   4.234   3.575
 7916SOL    HW125587  10.567   4.221   3.669
 7916SOL    HW225588  10.670   4.219   3.559
 7917SOL     OW25589  14.375   8.962  14.485
 7917SOL    HW125590  14.470   8.952  14.495
 7917SOL    HW225591  14.345   8.877  14.452
 7918SOL     OW25592   4.117   5.800  11.330
 7918SOL    HW125593   4.087   5.714  11.300
 7918SOL    HW225594   4.213   5.795  11.324
 7919SOL     OW25595   2.412   2.721   3.073
 7919SOL    HW125596   2.444   2.792   3.017
 7919SOL    HW225597   2.483   2.657   3.074
 7920SOL     OW25598   8.231   8.151  10.543
 7920SOL    HW125599   8.141   8.182  10.547
 7920SOL    HW225600   8.227   8.059  10.570
 7921SOL     OW25601  14.479  13.991  13.445
 7921SOL    HW125602  14.430  14.066  13.411
 7921SOL    HW225603  14.416  13.919  13.445
 7922SOL     OW25604   6.301  10.237   1.255
 7922SOL    HW125605   6.392  10.255   1.231
 7922SOL    HW225606   6.290  10.143   1.241
 7923SOL     OW25607   3.397   5.361  10.635
 7923SOL    HW125608   3.467   5.423  10.613
 7923SOL    HW225609   3.410   5.288  10.574
 7924SOL     OW25610  10.985  14.699   0.895
 7924SOL    HW125611  11.031  14.646   0.830
 7924SOL    HW225612  11.030  14.783   0.895
 7925SOL     OW25613   9.099   3.437   9.030
 7925SOL    HW125614   9.051   3.427   8.948
 7925SOL    HW225615   9.071   3.523   9.064
 7926SOL     OW25616   0.838  14.426   1.545
 7926SOL    HW125617   0.860  14.348   1.493
 7926SOL    HW225618   0.760  14.462   1.502
 7927SOL     OW25619  12.874   8.811   7.727
 7927SOL    HW125620  12.950   8.802   7.785
 7927SOL    HW225621  12.801   8.830   7.785
 7928SOL     OW25622   7.456   5.915   9.972
 7928SOL    HW125623   7.475   5.872   9.888
 7928SOL    HW225624   7.517   5.988   9.976
 7929SOL     OW25625   7.472   2.539   9.264
 7929SOL    HW125626   7.548   2.588   9.232
 7929SOL    HW225627   7.502   2.449   9.268
 7930SOL     OW25628  11.657   9.798   8.154
 7930SOL    HW125629  11.719   9.783   8.083
 7930SOL    HW225630  11.704   9.850   8.218
 7931SOL     OW25631   9.824   1.406  12.526
 7931SOL    HW125632   9.781   1.428  12.609
 7931SOL    HW225633   9.882   1.480  12.510
 7932SOL     OW25634   5.198   5.468   7.909
 7932SOL    HW125635   5.257   5.520   7.964
 7932SOL    HW225636   5.128   5.529   7.885
 7933SOL     OW25637   9.247  13.338  10.686
 7933SOL    HW125638   9.268  13.384  10.766
 7933SOL    HW225639   9.241  13.246  10.712
 7934SOL     OW25640   6.673   2.813  14.685
 7934SOL    HW125641   6.709   2.725  14.671
 7934SOL    HW225642   6.741   2.872  14.652
 7935SOL     OW25643  10.575  13.178  11.310
 7935SOL    HW125644  10.521  13.101  11.289
 7935SOL    HW225645  10.549  13.201  11.399
 7936SOL     OW25646   8.290   8.552  11.683
 7936SOL    HW125647   8.374   8.598  11.684
 7936SOL    HW225648   8.234   8.607  11.629
 7937SOL     OW25649   6.739   1.895  14.084
 7937SOL    HW125650   6.805   1.861  14.144
 7937SOL    HW225651   6.717   1.820  14.028
 7938SOL     OW25652  10.958   5.508  10.928
 7938SOL    HW125653  10.926   5.465  10.849
 7938SOL    HW225654  11.025   5.569  10.896
 7939SOL     OW25655  10.676   5.759  10.039
 7939SOL    HW125656  10.612   5.714  10.094
 7939SOL    HW225657  10.671   5.850  10.066
 7940SOL     OW25658  14.195   1.279   3.643
 7940SOL    HW125659  14.158   1.195   3.670
 7940SOL    HW225660  14.191   1.277   3.547
 7941SOL     OW25661   6.999   5.696   4.003
 7941SOL    HW125662   7.095   5.692   3.995
 7941SOL    HW225663   6.984   5.722   4.094
 7942SOL     OW25664   9.868  14.657   3.330
 7942SOL    HW125665   9.878  14.589   3.395
 7942SOL    HW225666   9.904  14.736   3.371
 7943SOL     OW25667   6.886   0.308   2.909
 7943SOL    HW125668   6.810   0.339   2.859
 7943SOL    HW225669   6.853   0.233   2.959
 7944SOL     OW25670   7.751  10.494   2.077
 7944SOL    HW125671   7.807  10.535   2.144
 7944SOL    HW225672   7.666  10.486   2.120
 7945SOL     OW25673  10.436   3.264   5.978
 7945SOL    HW125674  10.445   3.344   5.927
 7945SOL    HW225675  10.525   3.242   6.004
 7946SOL     OW25676   5.077  13.290   5.795
 7946SOL    HW125677   5.099  13.381   5.775
 7946SOL    HW225678   5.147  13.239   5.753
 7947SOL     OW25679   2.514   5.207   8.674
 7947SOL    HW125680   2.532   5.240   8.762
 7947SOL    HW225681   2.482   5.118   8.688
 7948SOL     OW25682   2.574   3.541  10.806
 7948SOL    HW125683   2.601   3.533  10.898
 7948SOL    HW225684   2.619   3.470  10.762
 7949SOL     OW25685   1.239  12.287   0.749
 7949SOL    HW125686   1.268  12.223   0.814
 7949SOL    HW225687   1.264  12.249   0.665
 7950SOL     OW25688   8.174   4.738   0.288
 7950SOL    HW125689   8.252   4.709   0.335
 7950SOL    HW225690   8.202   4.742   0.197
 7951SOL     OW25691  11.568  11.300   3.952
 7951SOL    HW125692  11.487  11.316   3.903
 7951SOL    HW225693  11.572  11.371   4.016
 7952SOL     OW25694   8.896   6.807  13.497
 7952SOL    HW125695   8.982   6.835  13.466
 7952SOL    HW225696   8.873   6.871  13.564
 7953SOL     OW25697  12.245   6.670   5.519
 7953SOL    HW125698  12.177   6.604   5.506
 7953SOL    HW225699  12.224   6.709   5.604
 7954SOL     OW25700  11.897   8.770   8.348
 7954SOL    HW125701  11.946   8.842   8.307
 7954SOL    HW225702  11.822   8.813   8.389
 7955SOL     OW25703  12.030   9.750   3.398
 7955SOL    HW125704  12.126   9.752   3.402
 7955SOL    HW225705  12.005   9.688   3.467
 7956SOL     OW25706   3.092  12.567   7.058
 7956SOL    HW125707   3.041  12.543   7.135
 7956SOL    HW225708   3.142  12.488   7.036
 7957SOL     OW25709   3.553   2.091   4.100
 7957SOL    HW125710   3.633   2.110   4.150
 7957SOL    HW225711   3.515   2.177   4.081
 7958SOL     OW25712   6.053   0.730   9.822
 7958SOL    HW125713   5.972   0.741   9.773
 7958SOL    HW225714   6.060   0.636   9.837
 7959SOL     OW25715   3.467   8.741   6.176
 7959SOL    HW125716   3.415   8.663   6.157
 7959SOL    HW225717   3.427   8.780   6.253
 7960SOL     OW25718   5.320  11.819  12.081
 7960SOL    HW125719   5.361  11.892  12.034
 7960SOL    HW225720   5.288  11.859  12.162
 7961SOL     OW25721   2.798  14.347   4.877
 7961SOL    HW125722   2.748  14.282   4.925
 7961SOL    HW225723   2.888  14.335   4.908
 7962SOL     OW25724   4.541   6.260   4.834
 7962SOL    HW125725   4.602   6.331   4.853
 7962SOL    HW225726   4.545   6.203   4.911
 7963SOL     OW25727   9.049   5.743  13.236
 7963SOL    HW125728   9.031   5.835  13.215
 7963SOL    HW225729   9.124   5.720  13.182
 7964SOL     OW25730   6.433  10.678   4.542
 7964SOL    HW125731   6.476  10.635   4.468
 7964SOL    HW225732   6.492  10.750   4.566
 7965SOL     OW25733   0.155   0.327   2.890
 7965SOL    HW125734   0.087   0.300   2.828
 7965SOL    HW225735   0.108   0.377   2.957
 7966SOL     OW25736   7.983  14.535   7.880
 7966SOL    HW125737   7.972  14.565   7.970
 7966SOL    HW225738   8.076  14.548   7.861
 7967SOL     OW25739   5.692   9.821   3.804
 7967SOL    HW125740   5.706   9.773   3.886
 7967SOL    HW225741   5.658   9.756   3.743
 7968SOL     OW25742   8.588  11.746   5.876
 7968SOL    HW125743   8.503  11.702   5.874
 7968SOL    HW225744   8.567  11.839   5.886
 7969SOL     OW25745   9.059   3.640  13.780
 7969SOL    HW125746   9.045   3.599  13.865
 7969SOL    HW225747   8.996   3.597  13.722
 7970SOL     OW25748   0.587   7.578   7.157
 7970SOL    HW125749   0.681   7.567   7.164
 7970SOL    HW225750   0.558   7.505   7.103
 7971SOL     OW25751   8.139  10.890   5.471
 7971SOL    HW125752   8.133  10.866   5.564
 7971SOL    HW225753   8.101  10.815   5.425
 7972SOL     OW25754   5.699   2.170   6.621
 7972SOL    HW125755   5.618   2.118   6.623
 7972SOL    HW225756   5.751   2.136   6.694
 7973SOL     OW25757   3.406  14.346  14.787
 7973SOL    HW125758   3.386  14.265  14.834
 7973SOL    HW225759   3.328  14.362  14.734
 7974SOL     OW25760   1.006   0.137   6.223
 7974SOL    HW125761   0.940   0.186   6.273
 7974SOL    HW225762   1.059   0.093   6.290
 7975SOL     OW25763   7.955   9.825   8.638
 7975SOL    HW125764   8.042   9.835   8.677
 7975SOL    HW225765   7.912   9.759   8.693
 7976SOL     OW25766   6.031   8.993   8.911
 7976SOL    HW125767   5.960   8.996   8.975
 7976SOL    HW225768   6.092   9.061   8.940
 7977SOL     OW25769  14.525   6.366   6.677
 7977SOL    HW125770  14.568   6.381   6.761
 7977SOL    HW225771  14.451   6.427   6.676
 7978SOL     OW25772  11.698   7.769   8.657
 7978SOL    HW125773  11.621   7.820   8.680
 7978SOL    HW225774  11.764   7.834   8.632
 7979SOL     OW25775   7.758   8.596  10.435
 7979SOL    HW125776   7.751   8.503  10.412
 7979SOL    HW225777   7.680   8.615  10.486
 7980SOL     OW25778  11.923   8.368   4.440
 7980SOL    HW125779  11.927   8.286   4.390
 7980SOL    HW225780  11.883   8.345   4.523
 7981SOL     OW25781   5.806   6.948   4.966
 7981SOL    HW125782   5.747   6.907   5.030
 7981SOL    HW225783   5.766   6.928   4.881
 7982SOL     OW25784   1.762  10.669   1.890
 7982SOL    HW125785   1.790  10.581   1.866
 7982SOL    HW225786   1.670  10.659   1.915
 7983SOL     OW25787   5.850   0.774  13.234
 7983SOL    HW125788   5.794   0.746  13.161
 7983SOL    HW225789   5.939   0.774  13.198
 7984SOL     OW25790   5.919  14.665  11.333
 7984SOL    HW125791   6.013  14.649  11.329
 7984SOL    HW225792   5.909  14.738  11.394
 7985SOL     OW25793  11.644  12.896  12.568
 7985SOL    HW125794  11.719  12.930  12.519
 7985SOL    HW225795  11.673  12.892  12.659
 7986SOL     OW25796   8.950   6.520  12.761
 7986SOL    HW125797   8.898   6.464  12.703
 7986SOL    HW225798   8.979   6.461  12.831
 7987SOL     OW25799   5.065  14.361   1.076
 7987SOL    HW125800   4.998  14.430   1.083
 7987SOL    HW225801   5.090  14.344   1.167
 7988SOL     OW25802   2.471   5.020   2.145
 7988SOL    HW125803   2.393   4.973   2.175
 7988SOL    HW225804   2.461   5.108   2.183
 7989SOL     OW25805  12.026   9.354   4.429
 7989SOL    HW125806  11.985   9.396   4.354
 7989SOL    HW225807  11.958   9.297   4.466
 7990SOL     OW25808  13.333   9.633  14.534
 7990SOL    HW125809  13.410   9.687  14.516
 7990SOL    HW225810  13.350   9.593  14.619
 7991SOL     OW25811  13.594  13.622  10.529
 7991SOL    HW125812  13.630  13.697  10.483
 7991SOL    HW225813  13.648  13.613  10.608
 7992SOL     OW25814   5.904  11.104  10.271
 7992SOL    HW125815   5.904  11.118  10.176
 7992SOL    HW225816   5.911  11.009  10.281
 7993SOL     OW25817   0.798  11.045  13.066
 7993SOL    HW125818   0.870  11.003  13.113
 7993SOL    HW225819   0.725  10.984  13.077
 7994SOL     OW25820   9.453   6.418   4.550
 7994SOL    HW125821   9.548   6.411   4.541
 7994SOL    HW225822   9.432   6.369   4.629
 7995SOL     OW25823  13.854   6.562   8.435
 7995SOL    HW125824  13.841   6.484   8.489
 7995SOL    HW225825  13.783   6.621   8.461
 7996SOL     OW25826  11.150  12.845   5.305
 7996SOL    HW125827  11.232  12.796   5.317
 7996SOL    HW225828  11.099  12.791   5.244
 7997SOL     OW25829   0.102  14.665   7.675
 7997SOL    HW125830   0.135  14.748   7.641
 7997SOL    HW225831   0.164  14.599   7.644
 7998SOL     OW25832   6.961  11.089   1.919
 7998SOL    HW125833   6.874  11.056   1.897
 7998SOL    HW225834   7.021  11.021   1.889
 7999SOL     OW25835   0.324   5.620  10.846
 7999SOL    HW125836   0.312   5.555  10.777
 7999SOL    HW225837   0.238   5.662  10.855
 8000SOL     OW25838   4.305   9.974   2.606
 8000SOL    HW125839   4.231  10.014   2.651
 8000SOL    HW225840   4.339  10.043   2.549
 8001SOL     OW25841   1.147   9.353  14.073
 8001SOL    HW125842   1.067   9.387  14.032
 8001SOL    HW225843   1.148   9.392  14.160
 8002SOL     OW25844   3.666   2.151   1.679
 8002SOL    HW125845   3.674   2.145   1.584
 8002SOL    HW225846   3.693   2.240   1.701
 8003SOL     OW25847   5.563  14.522   6.798
 8003SOL    HW125848   5.638  14.491   6.746
 8003SOL    HW225849   5.603  14.567   6.873
 8004SOL     OW25850  10.822   9.769   8.019
 8004SOL    HW125851  10.774   9.690   7.996
 8004SOL    HW225852  10.832   9.817   7.936
 8005SOL     OW25853   8.910   1.349  11.143
 8005SOL    HW125854   8.995   1.391  11.150
 8005SOL    HW225855   8.913   1.278  11.207
 8006SOL     OW25856  14.136   7.433   7.559
 8006SOL    HW125857  14.143   7.485   7.639
 8006SOL    HW225858  14.222   7.443   7.517
 8007SOL     OW25859   4.694   1.144  10.201
 8007SOL    HW125860   4.741   1.212  10.251
 8007SOL    HW225861   4.650   1.092  10.268
 8008SOL     OW25862   1.081   7.859   6.484
 8008SOL    HW125863   1.131   7.940   6.469
 8008SOL    HW225864   1.087   7.844   6.578
 8009SOL     OW25865  13.094   0.470   4.529
 8009SOL    HW125866  13.093   0.374   4.535
 8009SOL    HW225867  13.166   0.496   4.586
 8010SOL     OW25868   4.856  10.683   8.983
 8010SOL    HW125869   4.861  10.618   9.053
 8010SOL    HW225870   4.786  10.742   9.009
 8011SOL     OW25871   6.735  11.177   0.141
 8011SOL    HW125872   6.670  11.135   0.198
 8011SOL    HW225873   6.707  11.154   0.053
 8012SOL     OW25874   0.777   0.304   1.753
 8012SOL    HW125875   0.852   0.334   1.806
 8012SOL    HW225876   0.742   0.230   1.801
 8013SOL     OW25877   0.098   5.076   3.851
 8013SOL    HW125878   0.048   5.000   3.880
 8013SOL    HW225879   0.180   5.041   3.817
 8014SOL     OW25880   6.965  12.997   6.155
 8014SOL    HW125881   6.957  12.912   6.198
 8014SOL    HW225882   7.010  12.978   6.073
 8015SOL     OW25883   5.713   1.395  11.246
 8015SOL    HW125884   5.634   1.422  11.199
 8015SOL    HW225885   5.686   1.321  11.299
 8016SOL     OW25886   9.086  12.591   9.774
 8016SOL    HW125887   9.133  12.675   9.781
 8016SOL    HW225888   9.154  12.525   9.786
 8017SOL     OW25889   4.891   0.100   6.681
 8017SOL    HW125890   4.809   0.060   6.711
 8017SOL    HW225891   4.942   0.111   6.762
 8018SOL     OW25892  10.859   0.771   0.877
 8018SOL    HW125893  10.928   0.759   0.942
 8018SOL    HW225894  10.780   0.740   0.920
 8019SOL     OW25895   3.954   6.223  12.199
 8019SOL    HW125896   4.034   6.181  12.168
 8019SOL    HW225897   3.962   6.222  12.295
 8020SOL     OW25898  14.755   1.880  12.155
 8020SOL    HW125899  14.720   1.806  12.204
 8020SOL    HW225900  14.809   1.927  12.218
 8021SOL     OW25901   1.008   4.603   2.572
 8021SOL    HW125902   1.068   4.600   2.647
 8021SOL    HW225903   0.927   4.565   2.606
 8022SOL     OW25904   4.220   9.951   0.336
 8022SOL    HW125905   4.125   9.958   0.331
 8022SOL    HW225906   4.240   9.871   0.286
 8023SOL     OW25907   5.960  10.316  12.649
 8023SOL    HW125908   6.014  10.272  12.714
 8023SOL    HW225909   5.964  10.259  12.572
 8024SOL     OW25910  11.924   5.994   7.715
 8024SOL    HW125911  11.956   5.912   7.753
 8024SOL    HW225912  11.852   5.969   7.658
 8025SOL     OW25913   5.362  12.863   6.632
 8025SOL    HW125914   5.379  12.805   6.706
 8025SOL    HW225915   5.418  12.829   6.562
 8026SOL     OW25916  12.398   7.877   0.742
 8026SOL    HW125917  12.379   7.849   0.831
 8026SOL    HW225918  12.439   7.801   0.701
 8027SOL     OW25919   1.290   5.825   7.589
 8027SOL    HW125920   1.320   5.830   7.680
 8027SOL    HW225921   1.259   5.735   7.578
 8028SOL     OW25922  12.649   6.362   1.939
 8028SOL    HW125923  12.624   6.435   1.883
 8028SOL    HW225924  12.578   6.355   2.003
 8029SOL     OW25925   1.148   2.487   8.590
 8029SOL    HW125926   1.152   2.425   8.663
 8029SOL    HW225927   1.085   2.553   8.618
 8030SOL     OW25928   6.467  13.725   1.263
 8030SOL    HW125929   6.457  13.789   1.334
 8030SOL    HW225930   6.412  13.651   1.289
 8031SOL     OW25931  10.318   8.998   5.430
 8031SOL    HW125932  10.292   8.977   5.520
 8031SOL    HW225933  10.377   8.926   5.405
 8032SOL     OW25934   2.970   7.437   4.455
 8032SOL    HW125935   3.010   7.476   4.378
 8032SOL    HW225936   2.917   7.507   4.494
 8033SOL     OW25937   5.690   6.992  13.476
 8033SOL    HW125938   5.599   6.969  13.495
 8033SOL    HW225939   5.688   7.025  13.386
 8034SOL     OW25940   7.662  12.210  12.641
 8034SOL    HW125941   7.735  12.153  12.616
 8034SOL    HW225942   7.698  12.298  12.638
 8035SOL     OW25943   5.372   9.795  10.666
 8035SOL    HW125944   5.447   9.845  10.697
 8035SOL    HW225945   5.389   9.780  10.573
 8036SOL     OW25946  11.215  10.164   5.252
 8036SOL    HW125947  11.267  10.236   5.289
 8036SOL    HW225948  11.194  10.109   5.328
 8037SOL     OW25949  11.882   9.333   3.771
 8037SOL    HW125950  11.851   9.255   3.818
 8037SOL    HW225951  11.802   9.378   3.744
 8038SOL     OW25952  11.084  14.428   9.356
 8038SOL    HW125953  11.122  14.426   9.444
 8038SOL    HW225954  10.994  14.399   9.369
 8039SOL     OW25955  13.271  14.440   2.334
 8039SOL    HW125956  13.312  14.418   2.250
 8039SOL    HW225957  13.314  14.382   2.397
 8040SOL     OW25958   3.338  13.791   8.737
 8040SOL    HW125959   3.258  13.812   8.786
 8040SOL    HW225960   3.409  13.820   8.795
 8041SOL     OW25961   0.345  12.350  14.624
 8041SOL    HW125962   0.372  12.382  14.538
 8041SOL    HW225963   0.317  12.260  14.608
 8042SOL     OW25964   7.964   2.665   0.666
 8042SOL    HW125965   8.041   2.682   0.611
 8042SOL    HW225966   7.965   2.736   0.731
 8043SOL     OW25967  10.991   1.905  13.723
 8043SOL    HW125968  11.007   1.994  13.755
 8043SOL    HW225969  10.899   1.905  13.699
 8044SOL     OW25970   7.367   1.960  11.196
 8044SOL    HW125971   7.373   1.866  11.183
 8044SOL    HW225972   7.447   1.983  11.244
 8045SOL     OW25973  12.423   1.737   7.046
 8045SOL    HW125974  12.360   1.667   7.031
 8045SOL    HW225975  12.494   1.696   7.095
 8046SOL     OW25976  14.542   7.436  11.782
 8046SOL    HW125977  14.503   7.521  11.802
 8046SOL    HW225978  14.470   7.374  11.794
 8047SOL     OW25979   1.878  14.782   6.177
 8047SOL    HW125980   1.819  14.708   6.164
 8047SOL    HW225981   1.966  14.743   6.178
 8048SOL     OW25982   2.821   6.071   9.124
 8048SOL    HW125983   2.775   6.073   9.040
 8048SOL    HW225984   2.840   6.163   9.143
 8049SOL     OW25985  13.567   0.736  14.646
 8049SOL    HW125986  13.547   0.814  14.595
 8049SOL    HW225987  13.520   0.666  14.600
 8050SOL     OW25988   7.290  12.804   5.378
 8050SOL    HW125989   7.201  12.788   5.410
 8050SOL    HW225990   7.310  12.727   5.324
 8051SOL     OW25991   4.219   1.274   3.681
 8051SOL    HW125992   4.146   1.231   3.726
 8051SOL    HW225993   4.249   1.209   3.617
 8052SOL     OW25994   6.146   0.123   8.929
 8052SOL    HW125995   6.216   0.107   8.865
 8052SOL    HW225996   6.190   0.164   9.003
 8053SOL     OW25997   9.816   2.179   8.807
 8053SOL    HW125998   9.838   2.262   8.764
 8053SOL    HW225999   9.891   2.160   8.863
 8054SOL     OW26000  13.550   0.706   7.638
 8054SOL    HW126001  13.547   0.613   7.660
 8054SOL    HW226002  13.630   0.738   7.680
 8055SOL     OW26003   0.959   5.456  11.597
 8055SOL    HW126004   0.942   5.445  11.504
 8055SOL    HW226005   0.879   5.425  11.640
 8056SOL     OW26006  12.136   0.459  12.842
 8056SOL    HW126007  12.115   0.383  12.896
 8056SOL    HW226008  12.052   0.484  12.802
 8057SOL     OW26009  14.694   3.814   3.830
 8057SOL    HW126010  14.701   3.723   3.801
 8057SOL    HW226011  14.752   3.819   3.906
 8058SOL     OW26012   2.606   0.606   3.924
 8058SOL    HW126013   2.616   0.598   3.829
 8058SOL    HW226014   2.592   0.517   3.954
 8059SOL     OW26015   3.989   8.209  12.222
 8059SOL    HW126016   4.044   8.180  12.296
 8059SOL    HW226017   3.906   8.163  12.234
 8060SOL     OW26018  12.373   6.800  11.390
 8060SOL    HW126019  12.324   6.788  11.308
 8060SOL    HW226020  12.416   6.716  11.405
 8061SOL     OW26021   0.526  10.063   8.516
 8061SOL    HW126022   0.502  10.034   8.604
 8061SOL    HW226023   0.469  10.013   8.458
 8062SOL     OW26024   3.931   9.560  11.247
 8062SOL    HW126025   3.908   9.472  11.276
 8062SOL    HW226026   3.906   9.561  11.154
 8063SOL     OW26027   0.819   2.076  14.279
 8063SOL    HW126028   0.861   2.139  14.220
 8063SOL    HW226029   0.804   2.126  14.360
 8064SOL     OW26030  12.502   4.395   0.331
 8064SOL    HW126031  12.551   4.434   0.403
 8064SOL    HW226032  12.516   4.455   0.257
 8065SOL     OW26033   5.550   8.465  14.167
 8065SOL    HW126034   5.642   8.475  14.142
 8065SOL    HW226035   5.543   8.509  14.252
 8066SOL     OW26036   4.617   7.256   5.359
 8066SOL    HW126037   4.636   7.275   5.267
 8066SOL    HW226038   4.690   7.295   5.407
 8067SOL     OW26039  13.077   8.130   0.898
 8067SOL    HW126040  13.155   8.104   0.948
 8067SOL    HW226041  13.010   8.066   0.923
 8068SOL     OW26042   0.253   2.914  14.334
 8068SOL    HW126043   0.185   2.959  14.384
 8068SOL    HW226044   0.207   2.879  14.258
 8069SOL     OW26045  13.029  13.418   1.986
 8069SOL    HW126046  13.090  13.487   1.958
 8069SOL    HW226047  12.950  13.465   2.012
 8070SOL     OW26048   7.965  10.300  13.471
 8070SOL    HW126049   7.873  10.278  13.458
 8070SOL    HW226050   7.992  10.339  13.387
 8071SOL     OW26051   0.459  14.777   5.295
 8071SOL    HW126052   0.503  14.847   5.343
 8071SOL    HW226053   0.529  14.733   5.247
 8072SOL     OW26054  12.774   5.413   9.317
 8072SOL    HW126055  12.683   5.417   9.289
 8072SOL    HW226056  12.797   5.320   9.313
 8073SOL     OW26057   1.138  14.313   2.209
 8073SOL    HW126058   1.181  14.398   2.220
 8073SOL    HW226059   1.210  14.253   2.188
 8074SOL     OW26060   3.722   3.782   0.514
 8074SOL    HW126061   3.777   3.852   0.479
 8074SOL    HW226062   3.781   3.731   0.570
 8075SOL     OW26063   0.513  14.809  10.914
 8075SOL    HW126064   0.526   0.012  10.869
 8075SOL    HW226065   0.418  14.804  10.928
 8076SOL     OW26066  13.963   7.661   8.796
 8076SOL    HW126067  13.965   7.619   8.710
 8076SOL    HW226068  13.871   7.680   8.811
 8077SOL     OW26069   3.067   2.333   9.029
 8077SOL    HW126070   3.110   2.258   8.987
 8077SOL    HW226071   3.018   2.376   8.958
 8078SOL     OW26072   5.251  13.802  14.278
 8078SOL    HW126073   5.229  13.709  14.289
 8078SOL    HW226074   5.347  13.804  14.283
 8079SOL     OW26075   5.426   6.358   8.081
 8079SOL    HW126076   5.448   6.314   8.163
 8079SOL    HW226077   5.396   6.445   8.107
 8080SOL     OW26078   8.548   8.194   2.198
 8080SOL    HW126079   8.637   8.210   2.228
 8080SOL    HW226080   8.516   8.123   2.254
 8081SOL     OW26081   9.827   5.709  11.931
 8081SOL    HW126082   9.822   5.700  11.836
 8081SOL    HW226083   9.866   5.627  11.961
 8082SOL     OW26084  10.453   7.153   4.497
 8082SOL    HW126085  10.359   7.166   4.488
 8082SOL    HW226086  10.473   7.084   4.434
 8083SOL     OW26087  11.777  11.632   2.925
 8083SOL    HW126088  11.854  11.621   2.869
 8083SOL    HW226089  11.707  11.657   2.864
 8084SOL     OW26090  14.027   7.190   1.862
 8084SOL    HW126091  13.980   7.239   1.930
 8084SOL    HW226092  13.985   7.216   1.780
 8085SOL     OW26093  14.510   4.641   3.612
 8085SOL    HW126094  14.523   4.547   3.613
 8085SOL    HW226095  14.415   4.653   3.607
 8086SOL     OW26096  12.182   0.740   7.643
 8086SOL    HW126097  12.226   0.815   7.603
 8086SOL    HW226098  12.247   0.702   7.702
 8087SOL     OW26099   7.826   6.821   6.986
 8087SOL    HW126100   7.794   6.858   6.904
 8087SOL    HW226101   7.901   6.876   7.009
 8088SOL     OW26102  12.602   8.961   4.798
 8088SOL    HW126103  12.520   9.001   4.825
 8088SOL    HW226104  12.662   8.977   4.871
 8089SOL     OW26105  14.528   2.343   2.828
 8089SOL    HW126106  14.492   2.363   2.914
 8089SOL    HW226107  14.452   2.339   2.770
 8090SOL     OW26108   5.215  10.503   2.873
 8090SOL    HW126109   5.275  10.578   2.869
 8090SOL    HW226110   5.133  10.540   2.906
 8091SOL     OW26111   5.635   5.621   2.502
 8091SOL    HW126112   5.568   5.667   2.553
 8091SOL    HW226113   5.641   5.671   2.421
 8092SOL     OW26114   3.869  12.289   7.672
 8092SOL    HW126115   3.776  12.313   7.670
 8092SOL    HW226116   3.897  12.293   7.581
 8093SOL     OW26117   5.675  14.281   8.887
 8093SOL    HW126118   5.702  14.280   8.795
 8093SOL    HW226119   5.733  14.218   8.929
 8094SOL     OW26120  10.080   9.603   9.205
 8094SOL    HW126121  10.075   9.523   9.257
 8094SOL    HW226122   9.990   9.620   9.177
 8095SOL     OW26123   2.267  14.211   6.642
 8095SOL    HW126124   2.173  14.211   6.626
 8095SOL    HW226125   2.279  14.276   6.711
 8096SOL     OW26126   2.172   6.555   8.622
 8096SOL    HW126127   2.082   6.526   8.606
 8096SOL    HW226128   2.221   6.475   8.636
 8097SOL     OW26129  13.919   4.453  14.549
 8097SOL    HW126130  13.826   4.472  14.560
 8097SOL    HW226131  13.954   4.530  14.504
 8098SOL     OW26132  12.405   0.862  13.565
 8098SOL    HW126133  12.313   0.889  13.573
 8098SOL    HW226134  12.434   0.852  13.656
 8099SOL     OW26135   7.159  14.564   5.231
 8099SOL    HW126136   7.180  14.499   5.299
 8099SOL    HW226137   7.240  14.571   5.180
 8100SOL     OW26138  13.170  13.055  11.768
 8100SOL    HW126139  13.081  13.087  11.782
 8100SOL    HW226140  13.188  12.998  11.842
 8101SOL     OW26141   6.064  13.360   0.651
 8101SOL    HW126142   6.021  13.445   0.656
 8101SOL    HW226143   6.037  13.324   0.567
 8102SOL     OW26144   8.460  13.564  12.969
 8102SOL    HW126145   8.397  13.547  13.039
 8102SOL    HW226146   8.406  13.584  12.893
 8103SOL     OW26147   2.304  12.244   6.113
 8103SOL    HW126148   2.309  12.148   6.116
 8103SOL    HW226149   2.286  12.264   6.021
 8104SOL     OW26150  13.760  13.176   7.074
 8104SOL    HW126151  13.691  13.130   7.123
 8104SOL    HW226152  13.743  13.153   6.983
 8105SOL     OW26153   8.380  11.807   0.825
 8105SOL    HW126154   8.444  11.781   0.891
 8105SOL    HW226155   8.378  11.903   0.830
 8106SOL     OW26156   2.644   3.350   8.074
 8106SOL    HW126157   2.664   3.331   8.166
 8106SOL    HW226158   2.651   3.266   8.030
 8107SOL     OW26159  10.290   6.503   1.818
 8107SOL    HW126160  10.328   6.588   1.795
 8107SOL    HW226161  10.340   6.474   1.894
 8108SOL     OW26162   0.574  10.015   6.895
 8108SOL    HW126163   0.572   9.954   6.822
 8108SOL    HW226164   0.496   9.994   6.947
 8109SOL     OW26165  11.963   9.941   2.733
 8109SOL    HW126166  11.995   9.851   2.722
 8109SOL    HW226167  11.971   9.958   2.827
 8110SOL     OW26168  13.877   6.091  13.078
 8110SOL    HW126169  13.829   6.121  13.156
 8110SOL    HW226170  13.870   6.164  13.017
 8111SOL     OW26171   8.378   1.424   5.597
 8111SOL    HW126172   8.411   1.385   5.678
 8111SOL    HW226173   8.287   1.396   5.592
 8112SOL     OW26174   9.850   4.585   3.717
 8112SOL    HW126175   9.872   4.504   3.671
 8112SOL    HW226176   9.901   4.581   3.799
 8113SOL     OW26177   7.356   8.156   9.506
 8113SOL    HW126178   7.396   8.091   9.564
 8113SOL    HW226179   7.416   8.161   9.431
 8114SOL     OW26180   2.457   2.160   8.640
 8114SOL    HW126181   2.479   2.078   8.683
 8114SOL    HW226182   2.500   2.154   8.554
 8115SOL     OW26183   4.524   1.699   2.453
 8115SOL    HW126184   4.586   1.694   2.526
 8115SOL    HW226185   4.441   1.670   2.490
 8116SOL     OW26186  14.015   8.259   6.947
 8116SOL    HW126187  13.957   8.184   6.959
 8116SOL    HW226188  14.051   8.275   7.034
 8117SOL     OW26189  14.063   7.698   4.598
 8117SOL    HW126190  13.986   7.677   4.650
 8117SOL    HW226191  14.107   7.614   4.585
 8118SOL     OW26192   9.399  13.668   7.155
 8118SOL    HW126193   9.474  13.723   7.133
 8118SOL    HW226194   9.328  13.730   7.175
 8119SOL     OW26195  13.368  12.950   7.439
 8119SOL    HW126196  13.290  12.926   7.389
 8119SOL    HW226197  13.349  12.921   7.528
 8120SOL     OW26198  14.508   5.291   6.595
 8120SOL    HW126199  14.522   5.319   6.505
 8120SOL    HW226200  14.470   5.367   6.638
 8121SOL     OW26201  10.313  10.621  14.796
 8121SOL    HW126202  10.369  10.644  14.722
 8121SOL    HW226203  10.224  10.637  14.765
 8122SOL     OW26204   1.723   7.993  10.094
 8122SOL    HW126205   1.635   7.991  10.131
 8122SOL    HW226206   1.775   7.940  10.154
 8123SOL     OW26207   8.890   1.852   8.651
 8123SOL    HW126208   8.969   1.854   8.706
 8123SOL    HW226209   8.917   1.806   8.572
 8124SOL     OW26210   0.746   0.418   2.394
 8124SOL    HW126211   0.817   0.376   2.442
 8124SOL    HW226212   0.786   0.451   2.314
 8125SOL     OW26213   4.812  11.540   4.822
 8125SOL    HW126214   4.852  11.591   4.893
 8125SOL    HW226215   4.776  11.463   4.866
 8126SOL     OW26216   1.286   0.862   1.901
 8126SOL    HW126217   1.246   0.910   1.974
 8126SOL    HW226218   1.213   0.817   1.859
 8127SOL     OW26219  11.539   5.101   0.908
 8127SOL    HW126220  11.544   5.044   0.832
 8127SOL    HW226221  11.631   5.113   0.935
 8128SOL     OW26222   3.897   7.765   0.064
 8128SOL    HW126223   3.958   7.830   0.027
 8128SOL    HW226224   3.851   7.730  14.867
 8129SOL     OW26225   9.941   5.639   2.492
 8129SOL    HW126226  10.028   5.639   2.452
 8129SOL    HW226227   9.905   5.553   2.472
 8130SOL     OW26228   5.147   7.616  12.974
 8130SOL    HW126229   5.235   7.608  13.012
 8130SOL    HW226230   5.088   7.597  13.047
 8131SOL     OW26231  13.948   6.613   3.534
 8131SOL    HW126232  13.913   6.672   3.601
 8131SOL    HW226233  14.009   6.556   3.582
 8132SOL     OW26234   5.873   1.479   9.527
 8132SOL    HW126235   5.902   1.390   9.548
 8132SOL    HW226236   5.933   1.508   9.458
 8133SOL     OW26237   3.877  10.088   9.230
 8133SOL    HW126238   3.831  10.109   9.311
 8133SOL    HW226239   3.915  10.171   9.201
 8134SOL     OW26240   1.140   2.349   1.197
 8134SOL    HW126241   1.071   2.283   1.207
 8134SOL    HW226242   1.162   2.347   1.104
 8135SOL     OW26243   1.540   1.312   0.761
 8135SOL    HW126244   1.547   1.368   0.683
 8135SOL    HW226245   1.619   1.258   0.758
 8136SOL     OW26246  11.630   8.016   3.659
 8136SOL    HW126247  11.613   7.931   3.621
 8136SOL    HW226248  11.585   8.078   3.602
 8137SOL     OW26249   3.753   8.838   4.520
 8137SOL    HW126250   3.685   8.902   4.501
 8137SOL    HW226251   3.805   8.878   4.589
 8138SOL     OW26252   3.427   1.063  12.568
 8138SOL    HW126253   3.450   1.112  12.489
 8138SOL    HW226254   3.358   1.003  12.539
 8139SOL     OW26255  14.229   7.236   0.378
 8139SOL    HW126256  14.292   7.291   0.425
 8139SOL    HW226257  14.267   7.223   0.291
 8140SOL     OW26258   7.760   2.460   5.721
 8140SOL    HW126259   7.780   2.384   5.666
 8140SOL    HW226260   7.664   2.459   5.728
 8141SOL     OW26261  14.379  12.557   6.558
 8141SOL    HW126262  14.440  12.547   6.485
 8141SOL    HW226263  14.350  12.467   6.578
 8142SOL     OW26264  11.986   3.327   3.085
 8142SOL    HW126265  12.039   3.406   3.094
 8142SOL    HW226266  11.899   3.353   3.116
 8143SOL     OW26267  11.987  11.083   6.039
 8143SOL    HW126268  11.901  11.058   6.072
 8143SOL    HW226269  12.040  11.004   6.047
 8144SOL     OW26270   7.962   7.222  11.479
 8144SOL    HW126271   7.872   7.253  11.483
 8144SOL    HW226272   7.968   7.157  11.548
 8145SOL     OW26273   8.146   3.157   1.988
 8145SOL    HW126274   8.238   3.159   1.962
 8145SOL    HW226275   8.125   3.248   2.008
 8146SOL     OW26276   1.462  10.374   6.347
 8146SOL    HW126277   1.555  10.361   6.326
 8146SOL    HW226278   1.425  10.286   6.345
 8147SOL     OW26279   5.172  11.849  12.788
 8147SOL    HW126280   5.146  11.842  12.696
 8147SOL    HW226281   5.207  11.938  12.797
 8148SOL     OW26282  14.795   1.242   0.288
 8148SOL    HW126283  14.734   1.311   0.263
 8148SOL    HW226284   0.002   1.279   0.269
 8149SOL     OW26285   4.989   8.013   4.217
 8149SOL    HW126286   4.960   8.103   4.231
 8149SOL    HW226287   4.944   7.962   4.285
 8150SOL     OW26288   8.578  13.759   6.769
 8150SOL    HW126289   8.575  13.697   6.842
 8150SOL    HW226290   8.656  13.812   6.786
 8151SOL     OW26291  13.571  12.998   8.425
 8151SOL    HW126292  13.546  12.995   8.517
 8151SOL    HW226293  13.626  12.921   8.413
 8152SOL     OW26294   2.032   5.435  11.614
 8152SOL    HW126295   1.987   5.355  11.587
 8152SOL    HW226296   1.973   5.506  11.589
 8153SOL     OW26297   5.589  13.968   3.191
 8153SOL    HW126298   5.591  14.055   3.230
 8153SOL    HW226299   5.507  13.966   3.141
 8154SOL     OW26300   8.014   5.568  10.124
 8154SOL    HW126301   8.006   5.609  10.210
 8154SOL    HW226302   8.083   5.502  10.134
 8155SOL     OW26303   6.831  12.617   1.098
 8155SOL    HW126304   6.785  12.695   1.065
 8155SOL    HW226305   6.836  12.630   1.192
 8156SOL     OW26306  12.626   3.629   9.880
 8156SOL    HW126307  12.590   3.684   9.950
 8156SOL    HW226308  12.713   3.604   9.912
 8157SOL     OW26309   5.616  14.547   0.739
 8157SOL    HW126310   5.708  14.530   0.716
 8157SOL    HW226311   5.590  14.470   0.790
 8158SOL     OW26312  12.514   9.279   9.149
 8158SOL    HW126313  12.594   9.276   9.097
 8158SOL    HW226314  12.520   9.202   9.206
 8159SOL     OW26315   5.264  11.257   3.801
 8159SOL    HW126316   5.228  11.168   3.808
 8159SOL    HW226317   5.333  11.259   3.867
 8160SOL     OW26318   6.881   6.918   0.441
 8160SOL    HW126319   6.911   7.008   0.436
 8160SOL    HW226320   6.879   6.898   0.534
 8161SOL     OW26321   8.703   7.098   8.476
 8161SOL    HW126322   8.735   7.026   8.532
 8161SOL    HW226323   8.689   7.058   8.391
 8162SOL     OW26324   2.690   1.752   8.129
 8162SOL    HW126325   2.683   1.709   8.214
 8162SOL    HW226326   2.740   1.832   8.146
 8163SOL     OW26327   0.619   4.488   7.975
 8163SOL    HW126328   0.563   4.492   8.052
 8163SOL    HW226329   0.602   4.402   7.937
 8164SOL     OW26330   9.786   9.799  11.918
 8164SOL    HW126331   9.712   9.741  11.899
 8164SOL    HW226332   9.835   9.804  11.836
 8165SOL     OW26333  12.836   7.197   4.026
 8165SOL    HW126334  12.788   7.123   4.063
 8165SOL    HW226335  12.787   7.220   3.947
 8166SOL     OW26336  13.192   6.263   8.857
 8166SOL    HW126337  13.122   6.314   8.817
 8166SOL    HW226338  13.185   6.177   8.817
 8167SOL     OW26339   4.021  12.581   6.370
 8167SOL    HW126340   4.086  12.527   6.326
 8167SOL    HW226341   4.016  12.546   6.459
 8168SOL     OW26342   3.523  10.363   9.493
 8168SOL    HW126343   3.548  10.399   9.409
 8168SOL    HW226344   3.572  10.280   9.499
 8169SOL     OW26345  12.252   7.289   0.708
 8169SOL    HW126346  12.206   7.341   0.642
 8169SOL    HW226347  12.230   7.198   0.686
 8170SOL     OW26348   3.014   9.522  12.931
 8170SOL    HW126349   3.108   9.523  12.947
 8170SOL    HW226350   2.990   9.614  12.922
 8171SOL     OW26351   5.796   2.111   7.957
 8171SOL    HW126352   5.771   2.019   7.964
 8171SOL    HW226353   5.743   2.145   7.885
 8172SOL     OW26354  12.617   2.372   7.560
 8172SOL    HW126355  12.704   2.411   7.572
 8172SOL    HW226356  12.635   2.281   7.537
 8173SOL     OW26357  12.406  11.667  10.179
 8173SOL    HW126358  12.446  11.754  10.174
 8173SOL    HW226359  12.354  11.660  10.099
 8174SOL     OW26360   0.095   6.244   2.576
 8174SOL    HW126361   0.134   6.285   2.499
 8174SOL    HW226362   0.074   6.317   2.634
 8175SOL     OW26363  11.168   6.660   9.431
 8175SOL    HW126364  11.139   6.587   9.487
 8175SOL    HW226365  11.246   6.627   9.388
 8176SOL     OW26366  12.751   0.914   9.457
 8176SOL    HW126367  12.671   0.963   9.440
 8176SOL    HW226368  12.788   0.897   9.371
 8177SOL     OW26369   6.258   7.832  12.076
 8177SOL    HW126370   6.229   7.920  12.101
 8177SOL    HW226371   6.298   7.797  12.156
 8178SOL     OW26372   8.659   7.307   9.020
 8178SOL    HW126373   8.564   7.324   9.017
 8178SOL    HW226374   8.685   7.332   9.109
 8179SOL     OW26375   2.842  14.339   2.688
 8179SOL    HW126376   2.797  14.340   2.773
 8179SOL    HW226377   2.927  14.379   2.706
 8180SOL     OW26378   1.058  14.403   0.187
 8180SOL    HW126379   1.074  14.320   0.142
 8180SOL    HW226380   0.995  14.382   0.256
 8181SOL     OW26381  13.053   4.385  12.250
 8181SOL    HW126382  13.147   4.369  12.249
 8181SOL    HW226383  13.017   4.313  12.302
 8182SOL     OW26384   9.531  13.936  14.286
 8182SOL    HW126385   9.590  13.944  14.211
 8182SOL    HW226386   9.576  13.877  14.347
 8183SOL     OW26387   2.591  13.232   4.378
 8183SOL    HW126388   2.521  13.174   4.348
 8183SOL    HW226389   2.604  13.294   4.305
 8184SOL     OW26390   3.749  12.532   7.336
 8184SOL    HW126391   3.754  12.617   7.379
 8184SOL    HW226392   3.711  12.551   7.250
 8185SOL     OW26393  10.389  10.710   3.784
 8185SOL    HW126394  10.337  10.650   3.837
 8185SOL    HW226395  10.450  10.749   3.846
 8186SOL     OW26396   0.985  10.236   8.227
 8186SOL    HW126397   1.079  10.220   8.222
 8186SOL    HW226398   0.963  10.220   8.319
 8187SOL     OW26399   2.606   1.159   4.400
 8187SOL    HW126400   2.578   1.072   4.429
 8187SOL    HW226401   2.628   1.148   4.308
 8188SOL     OW26402   9.010   9.742  10.092
 8188SOL    HW126403   8.943   9.769  10.028
 8188SOL    HW226404   8.990   9.794  10.170
 8189SOL     OW26405  12.057   8.449   7.665
 8189SOL    HW126406  12.010   8.386   7.720
 8189SOL    HW226407  12.004   8.456   7.586
 8190SOL     OW26408  11.636  11.475   9.908
 8190SOL    HW126409  11.722  11.509   9.884
 8190SOL    HW226410  11.593  11.458   9.824
 8191SOL     OW26411  14.476   1.151   2.730
 8191SOL    HW126412  14.469   1.123   2.821
 8191SOL    HW226413  14.391   1.132   2.692
 8192SOL     OW26414   7.392   0.988   5.930
 8192SOL    HW126415   7.439   0.928   5.872
 8192SOL    HW226416   7.420   1.075   5.902
 8193SOL     OW26417  11.971  13.836   3.568
 8193SOL    HW126418  11.917  13.911   3.596
 8193SOL    HW226419  11.910  13.762   3.570
 8194SOL     OW26420   7.677   7.529   9.129
 8194SOL    HW126421   7.605   7.467   9.140
 8194SOL    HW226422   7.717   7.506   9.046
 8195SOL     OW26423   8.640   3.512   0.436
 8195SOL    HW126424   8.671   3.602   0.440
 8195SOL    HW226425   8.700   3.464   0.494
 8196SOL     OW26426  13.959  13.165   7.652
 8196SOL    HW126427  14.034  13.200   7.602
 8196SOL    HW226428  13.991  13.161   7.742
 8197SOL     OW26429   0.650  12.648   7.303
 8197SOL    HW126430   0.705  12.622   7.376
 8197SOL    HW226431   0.662  12.743   7.296
 8198SOL     OW26432   1.797   8.448  13.255
 8198SOL    HW126433   1.756   8.363  13.241
 8198SOL    HW226434   1.724   8.509  13.263
 8199SOL     OW26435   3.105  11.476   4.391
 8199SOL    HW126436   3.059  11.432   4.319
 8199SOL    HW226437   3.186  11.426   4.401
 8200SOL     OW26438   9.648   0.860   6.068
 8200SOL    HW126439   9.597   0.789   6.108
 8200SOL    HW226440   9.612   0.940   6.106
 8201SOL     OW26441   8.474   8.810   3.983
 8201SOL    HW126442   8.484   8.825   4.077
 8201SOL    HW226443   8.381   8.791   3.972
 8202SOL     OW26444  11.355   3.396   8.906
 8202SOL    HW126445  11.363   3.315   8.856
 8202SOL    HW226446  11.406   3.381   8.986
 8203SOL     OW26447   6.651   6.523   5.313
 8203SOL    HW126448   6.564   6.505   5.348
 8203SOL    HW226449   6.665   6.616   5.330
 8204SOL     OW26450  13.605  10.560   2.369
 8204SOL    HW126451  13.674  10.495   2.357
 8204SOL    HW226452  13.543  10.543   2.298
 8205SOL     OW26453  10.216   9.961  14.202
 8205SOL    HW126454  10.289   9.906  14.229
 8205SOL    HW226455  10.245   9.999  14.119
 8206SOL     OW26456   2.142  14.735   6.147
 8206SOL    HW126457   2.148  14.694   6.060
 8206SOL    HW226458   2.192  14.816   6.138
 8207SOL     OW26459   8.304  10.739   9.637
 8207SOL    HW126460   8.211  10.763   9.637
 8207SOL    HW226461   8.342  10.790   9.708
 8208SOL     OW26462   0.244   6.067  10.606
 8208SOL    HW126463   0.321   6.116  10.578
 8208SOL    HW226464   0.267   5.975  10.590
 8209SOL     OW26465   7.942   1.290  14.855
 8209SOL    HW126466   7.942   1.374  14.810
 8209SOL    HW226467   7.939   1.225  14.785
 8210SOL     OW26468  12.969   6.159   4.883
 8210SOL    HW126469  12.874   6.154   4.885
 8210SOL    HW226470  12.992   6.146   4.791
 8211SOL     OW26471  11.089   9.713   0.090
 8211SOL    HW126472  11.114   9.804   0.100
 8211SOL    HW226473  11.094   9.676   0.178
 8212SOL     OW26474   6.320   6.959   5.866
 8212SOL    HW126475   6.353   6.943   5.954
 8212SOL    HW226476   6.327   6.874   5.822
 8213SOL     OW26477   0.693  12.128   3.767
 8213SOL    HW126478   0.745  12.066   3.819
 8213SOL    HW226479   0.603  12.097   3.777
 8214SOL     OW26480  12.107   3.029   9.097
 8214SOL    HW126481  12.053   3.108   9.089
 8214SOL    HW226482  12.066   2.980   9.168
 8215SOL     OW26483   4.063   3.871   4.251
 8215SOL    HW126484   4.001   3.872   4.323
 8215SOL    HW226485   4.081   3.779   4.236
 8216SOL     OW26486  11.674   9.291   8.577
 8216SOL    HW126487  11.698   9.286   8.669
 8216SOL    HW226488  11.755   9.274   8.530
 8217SOL     OW26489   5.089   0.471   8.175
 8217SOL    HW126490   5.151   0.526   8.221
 8217SOL    HW226491   5.032   0.436   8.244
 8218SOL     OW26492   0.288   0.676  12.046
 8218SOL    HW126493   0.282   0.767  12.074
 8218SOL    HW226494   0.203   0.656  12.008
 8219SOL     OW26495  11.240   1.003   3.536
 8219SOL    HW126496  11.244   1.012   3.631
 8219SOL    HW226497  11.195   0.920   3.521
 8220SOL     OW26498  14.197  13.252   4.543
 8220SOL    HW126499  14.292  13.255   4.532
 8220SOL    HW226500  14.176  13.331   4.592
 8221SOL     OW26501   9.515   1.787   2.103
 8221SOL    HW126502   9.491   1.760   2.192
 8221SOL    HW226503   9.602   1.825   2.113
 8222SOL     OW26504   1.177   9.975   9.654
 8222SOL    HW126505   1.109   9.911   9.632
 8222SOL    HW226506   1.230   9.981   9.575
 8223SOL     OW26507   3.720  13.815  14.651
 8223SOL    HW126508   3.737  13.909  14.655
 8223SOL    HW226509   3.670  13.797  14.731
 8224SOL     OW26510   7.345   5.517  12.838
 8224SOL    HW126511   7.323   5.605  12.869
 8224SOL    HW226512   7.425   5.529  12.787
 8225SOL     OW26513   7.173   8.075  14.455
 8225SOL    HW126514   7.187   7.986  14.488
 8225SOL    HW226515   7.226   8.131  14.512
 8226SOL     OW26516  10.298   7.253   7.559
 8226SOL    HW126517  10.309   7.348   7.547
 8226SOL    HW226518  10.255   7.223   7.479
 8227SOL     OW26519  14.002   5.645   2.747
 8227SOL    HW126520  14.048   5.640   2.664
 8227SOL    HW226521  13.948   5.566   2.750
 8228SOL     OW26522   9.610   9.808   2.851
 8228SOL    HW126523   9.685   9.754   2.875
 8228SOL    HW226524   9.632   9.842   2.764
 8229SOL     OW26525   7.914   9.930  12.422
 8229SOL    HW126526   7.998   9.975  12.415
 8229SOL    HW226527   7.894   9.932  12.516
 8230SOL     OW26528   3.778  12.698   1.422
 8230SOL    HW126529   3.689  12.733   1.432
 8230SOL    HW226530   3.767  12.603   1.419
 8231SOL     OW26531   7.095  11.405   5.178
 8231SOL    HW126532   7.048  11.486   5.159
 8231SOL    HW226533   7.181  11.417   5.137
 8232SOL     OW26534   2.215  11.857   0.281
 8232SOL    HW126535   2.185  11.927   0.339
 8232SOL    HW226536   2.249  11.902   0.204
 8233SOL     OW26537  14.403   6.567   4.800
 8233SOL    HW126538  14.349   6.547   4.877
 8233SOL    HW226539  14.458   6.640   4.827
 8234SOL     OW26540   1.540   5.338  14.271
 8234SOL    HW126541   1.625   5.351  14.228
 8234SOL    HW226542   1.476   5.361  14.205
 8235SOL     OW26543   4.791  11.821   3.058
 8235SOL    HW126544   4.698  11.823   3.038
 8235SOL    HW226545   4.833  11.860   2.981
 8236SOL     OW26546   6.467   2.175   3.417
 8236SOL    HW126547   6.400   2.106   3.410
 8236SOL    HW226548   6.426   2.252   3.378
 8237SOL     OW26549   2.183  14.384  11.122
 8237SOL    HW126550   2.134  14.306  11.147
 8237SOL    HW226551   2.132  14.423  11.052
 8238SOL     OW26552  14.790  10.349  13.684
 8238SOL    HW126553  14.754  10.399  13.611
 8238SOL    HW226554  14.821  10.415  13.746
 8239SOL     OW26555   1.301   8.573  10.143
 8239SOL    HW126556   1.352   8.501  10.104
 8239SOL    HW226557   1.210   8.552  10.123
 8240SOL     OW26558  13.735   1.245  10.246
 8240SOL    HW126559  13.645   1.266  10.221
 8240SOL    HW226560  13.744   1.280  10.335
 8241SOL     OW26561   5.462   0.476   5.937
 8241SOL    HW126562   5.483   0.386   5.959
 8241SOL    HW226563   5.441   0.517   6.022
 8242SOL     OW26564   7.293   4.257   1.026
 8242SOL    HW126565   7.281   4.186   1.090
 8242SOL    HW226566   7.345   4.322   1.072
 8243SOL     OW26567   2.478   4.750   0.292
 8243SOL    HW126568   2.416   4.793   0.233
 8243SOL    HW226569   2.513   4.677   0.241
 8244SOL     OW26570   4.383   4.635  13.064
 8244SOL    HW126571   4.340   4.720  13.067
 8244SOL    HW226572   4.376   4.601  13.154
 8245SOL     OW26573   3.368  12.593   8.457
 8245SOL    HW126574   3.298  12.595   8.392
 8245SOL    HW226575   3.327  12.627   8.537
 8246SOL     OW26576  10.474  10.337  13.585
 8246SOL    HW126577  10.381  10.322  13.602
 8246SOL    HW226578  10.477  10.397  13.512
 8247SOL     OW26579  12.404   8.323  11.883
 8247SOL    HW126580  12.380   8.415  11.897
 8247SOL    HW226581  12.354   8.275  11.948
 8248SOL     OW26582  13.884   6.238   5.585
 8248SOL    HW126583  13.811   6.200   5.634
 8248SOL    HW226584  13.877   6.332   5.600
 8249SOL     OW26585   3.355   5.969  14.440
 8249SOL    HW126586   3.274   5.928  14.471
 8249SOL    HW226587   3.422   5.937  14.501
 8250SOL     OW26588   1.076   9.967   1.244
 8250SOL    HW126589   1.123  10.049   1.234
 8250SOL    HW226590   0.995   9.991   1.290
 8251SOL     OW26591  11.786   5.944   1.700
 8251SOL    HW126592  11.874   5.970   1.727
 8251SOL    HW226593  11.738   6.026   1.691
 8252SOL     OW26594  11.013   2.109   9.004
 8252SOL    HW126595  10.979   2.034   8.955
 8252SOL    HW226596  10.937   2.147   9.047
 8253SOL     OW26597  14.585   7.583   6.569
 8253SOL    HW126598  14.546   7.628   6.644
 8253SOL    HW226599  14.548   7.495   6.572
 8254SOL     OW26600  10.791   3.837  12.966
 8254SOL    HW126601  10.769   3.759  12.914
 8254SOL    HW226602  10.774   3.811  13.057
 8255SOL     OW26603  11.225   9.544   2.724
 8255SOL    HW126604  11.249   9.464   2.771
 8255SOL    HW226605  11.168   9.591   2.784
 8256SOL     OW26606   6.628   6.384   4.849
 8256SOL    HW126607   6.596   6.357   4.763
 8256SOL    HW226608   6.570   6.456   4.874
 8257SOL     OW26609   9.722  14.232  14.236
 8257SOL    HW126610   9.702  14.273  14.320
 8257SOL    HW226611   9.726  14.305  14.174
 8258SOL     OW26612  13.245  10.999   0.016
 8258SOL    HW126613  13.150  11.010   0.008
 8258SOL    HW226614  13.268  10.937  14.827
 8259SOL     OW26615   4.538   4.037   7.706
 8259SOL    HW126616   4.487   4.074   7.635
 8259SOL    HW226617   4.617   4.003   7.664
 8260SOL     OW26618   3.969  13.180   0.309
 8260SOL    HW126619   3.973  13.274   0.293
 8260SOL    HW226620   4.002  13.169   0.398
 8261SOL     OW26621   4.584  10.122  12.730
 8261SOL    HW126622   4.532  10.156  12.803
 8261SOL    HW226623   4.666  10.094  12.771
 8262SOL     OW26624   5.977  11.412   5.036
 8262SOL    HW126625   6.001  11.326   5.069
 8262SOL    HW226626   5.916  11.447   5.102
 8263SOL     OW26627  13.397  13.409   7.471
 8263SOL    HW126628  13.351  13.390   7.389
 8263SOL    HW226629  13.374  13.337   7.529
 8264SOL     OW26630   9.182   1.051  11.186
 8264SOL    HW126631   9.176   1.145  11.202
 8264SOL    HW226632   9.205   1.044  11.093
 8265SOL     OW26633  10.444  12.129   2.653
 8265SOL    HW126634  10.531  12.088   2.649
 8265SOL    HW226635  10.462  12.222   2.661
 8266SOL     OW26636   4.819   3.498  14.309
 8266SOL    HW126637   4.787   3.543  14.387
 8266SOL    HW226638   4.831   3.568  14.244
 8267SOL     OW26639   4.581   3.013   0.754
 8267SOL    HW126640   4.594   2.947   0.822
 8267SOL    HW226641   4.641   3.084   0.778
 8268SOL     OW26642  14.200   7.595  11.272
 8268SOL    HW126643  14.262   7.546  11.218
 8268SOL    HW226644  14.191   7.679  11.227
 8269SOL     OW26645  13.202  13.278   9.209
 8269SOL    HW126646  13.241  13.191   9.201
 8269SOL    HW226647  13.235  13.311   9.292
 8270SOL     OW26648  11.084  11.113   1.432
 8270SOL    HW126649  11.089  11.196   1.478
 8270SOL    HW226650  11.161  11.112   1.375
 8271SOL     OW26651   2.449   0.863   3.686
 8271SOL    HW126652   2.540   0.834   3.692
 8271SOL    HW226653   2.454   0.958   3.693
 8272SOL     OW26654   2.020   7.345  10.926
 8272SOL    HW126655   2.011   7.282  10.855
 8272SOL    HW226656   1.931   7.356  10.960
 8273SOL     OW26657   0.115   0.412   7.849
 8273SOL    HW126658   0.149   0.324   7.835
 8273SOL    HW226659   0.192   0.463   7.876
 8274SOL     OW26660  12.154  14.540   4.416
 8274SOL    HW126661  12.097  14.550   4.492
 8274SOL    HW226662  12.237  14.509   4.452
 8275SOL     OW26663  14.501   2.073   7.829
 8275SOL    HW126664  14.523   2.131   7.902
 8275SOL    HW226665  14.421   2.110   7.792
 8276SOL     OW26666   9.522  13.420   5.127
 8276SOL    HW126667   9.548  13.330   5.149
 8276SOL    HW226668   9.603  13.470   5.127
 8277SOL     OW26669   8.417   5.803   6.186
 8277SOL    HW126670   8.487   5.795   6.251
 8277SOL    HW226671   8.352   5.860   6.226
 8278SOL     OW26672  11.204   9.074   6.537
 8278SOL    HW126673  11.178   9.027   6.458
 8278SOL    HW226674  11.216   9.007   6.603
 8279SOL     OW26675   2.433   1.956   3.396
 8279SOL    HW126676   2.340   1.965   3.376
 8279SOL    HW226677   2.472   1.933   3.311
 8280SOL     OW26678   1.237   9.275   0.959
 8280SOL    HW126679   1.160   9.309   0.913
 8280SOL    HW226680   1.205   9.197   1.005
 8281SOL     OW26681   2.788   1.474   7.407
 8281SOL    HW126682   2.749   1.389   7.387
 8281SOL    HW226683   2.764   1.529   7.333
 8282SOL     OW26684   4.952   9.049   6.015
 8282SOL    HW126685   4.895   9.091   5.951
 8282SOL    HW226686   4.897   8.980   6.053
 8283SOL     OW26687  11.307   5.615   6.343
 8283SOL    HW126688  11.345   5.665   6.270
 8283SOL    HW226689  11.251   5.678   6.388
 8284SOL     OW26690   9.200   3.439  14.205
 8284SOL    HW126691   9.139   3.453  14.132
 8284SOL    HW226692   9.286   3.460  14.169
 8285SOL     OW26693  12.530  14.727   2.375
 8285SOL    HW126694  12.508  14.818   2.394
 8285SOL    HW226695  12.625  14.728   2.361
 8286SOL     OW26696   9.879   9.469   0.561
 8286SOL    HW126697   9.891   9.480   0.467
 8286SOL    HW226698   9.793   9.505   0.579
 8287SOL     OW26699  13.338   7.329   1.850
 8287SOL    HW126700  13.277   7.293   1.914
 8287SOL    HW226701  13.295   7.314   1.765
 8288SOL     OW26702   7.346   8.442   6.091
 8288SOL    HW126703   7.432   8.402   6.079
 8288SOL    HW226704   7.344   8.516   6.030
 8289SOL     OW26705   8.305  12.115   5.995
 8289SOL    HW126706   8.239  12.100   6.064
 8289SOL    HW226707   8.314  12.030   5.952
 8290SOL     OW26708  10.768   7.545   3.440
 8290SOL    HW126709  10.715   7.553   3.361
 8290SOL    HW226710  10.854   7.519   3.408
 8291SOL     OW26711   7.546   1.486   4.962
 8291SOL    HW126712   7.453   1.465   4.961
 8291SOL    HW226713   7.589   1.408   4.929
 8292SOL     OW26714   1.317  14.603   8.366
 8292SOL    HW126715   1.347  14.663   8.298
 8292SOL    HW226716   1.266  14.537   8.319
 8293SOL     OW26717   8.229   1.063   9.983
 8293SOL    HW126718   8.202   1.120   9.911
 8293SOL    HW226719   8.291   1.002   9.944
 8294SOL     OW26720   6.069   9.520   9.778
 8294SOL    HW126721   6.050   9.473   9.860
 8294SOL    HW226722   5.988   9.514   9.728
 8295SOL     OW26723   0.474   5.341   9.384
 8295SOL    HW126724   0.545   5.379   9.332
 8295SOL    HW226725   0.398   5.394   9.364
 8296SOL     OW26726   2.001  10.540  14.705
 8296SOL    HW126727   2.001  10.625  14.750
 8296SOL    HW226728   2.093  10.521  14.689
 8297SOL     OW26729  12.141   8.078  12.656
 8297SOL    HW126730  12.211   8.033  12.702
 8297SOL    HW226731  12.070   8.085  12.721
 8298SOL     OW26732  12.428   2.901  12.925
 8298SOL    HW126733  12.521   2.904  12.948
 8298SOL    HW226734  12.392   2.833  12.981
 8299SOL     OW26735   3.510   0.951   1.620
 8299SOL    HW126736   3.515   0.978   1.528
 8299SOL    HW226737   3.560   1.018   1.667
 8300SOL     OW26738   8.221   7.032   9.398
 8300SOL    HW126739   8.155   7.048   9.331
 8300SOL    HW226740   8.171   7.027   9.480
 8301SOL     OW26741   2.885  10.241  14.678
 8301SOL    HW126742   2.823  10.299  14.633
 8301SOL    HW226743   2.901  10.170  14.615
 8302SOL     OW26744   6.502   6.369  12.057
 8302SOL    HW126745   6.534   6.422  11.983
 8302SOL    HW226746   6.428   6.320  12.020
 8303SOL     OW26747  11.112   0.150  13.717
 8303SOL    HW126748  11.078   0.062  13.699
 8303SOL    HW226749  11.175   0.166  13.647
 8304SOL     OW26750   4.952   3.594  11.884
 8304SOL    HW126751   4.972   3.506  11.915
 8304SOL    HW226752   4.890   3.628  11.949
 8305SOL     OW26753   7.547   6.027   1.753
 8305SOL    HW126754   7.472   6.002   1.808
 8305SOL    HW226755   7.523   5.999   1.665
 8306SOL     OW26756   9.296   0.809   3.440
 8306SOL    HW126757   9.318   0.835   3.351
 8306SOL    HW226758   9.380   0.802   3.485
 8307SOL     OW26759   1.754   5.641  12.751
 8307SOL    HW126760   1.714   5.599  12.675
 8307SOL    HW226761   1.690   5.628  12.822
 8308SOL     OW26762   7.479   0.315   8.047
 8308SOL    HW126763   7.477   0.255   8.121
 8308SOL    HW226764   7.517   0.396   8.082
 8309SOL     OW26765   1.363   4.955   0.558
 8309SOL    HW126766   1.417   5.023   0.598
 8309SOL    HW226767   1.414   4.926   0.482
 8310SOL     OW26768   1.550   8.417   1.486
 8310SOL    HW126769   1.475   8.409   1.426
 8310SOL    HW226770   1.614   8.470   1.438
 8311SOL     OW26771   8.176   6.953  11.381
 8311SOL    HW126772   8.222   6.924  11.302
 8311SOL    HW226773   8.244   6.994  11.434
 8312SOL     OW26774   6.674   8.632   8.059
 8312SOL    HW126775   6.759   8.641   8.017
 8312SOL    HW226776   6.690   8.573   8.133
 8313SOL     OW26777   3.649  12.130  11.491
 8313SOL    HW126778   3.577  12.095  11.544
 8313SOL    HW226779   3.657  12.221  11.519
 8314SOL     OW26780   0.802   7.159   4.939
 8314SOL    HW126781   0.779   7.251   4.924
 8314SOL    HW226782   0.839   7.158   5.027
 8315SOL     OW26783  14.639   1.818   9.762
 8315SOL    HW126784  14.655   1.785   9.850
 8315SOL    HW226785  14.658   1.744   9.704
 8316SOL     OW26786  11.913   5.599   5.683
 8316SOL    HW126787  11.879   5.526   5.631
 8316SOL    HW226788  11.987   5.562   5.731
 8317SOL     OW26789  11.694   4.533   2.222
 8317SOL    HW126790  11.625   4.583   2.177
 8317SOL    HW226791  11.713   4.584   2.301
 8318SOL     OW26792  12.079   7.102  14.418
 8318SOL    HW126793  12.047   7.047  14.489
 8318SOL    HW226794  12.007   7.162  14.399
 8319SOL     OW26795   5.360   0.237   2.220
 8319SOL    HW126796   5.310   0.299   2.167
 8319SOL    HW226797   5.437   0.216   2.166
 8320SOL     OW26798  14.154  10.667   7.559
 8320SOL    HW126799  14.085  10.639   7.498
 8320SOL    HW226800  14.124  10.636   7.644
 8321SOL     OW26801  14.464  11.087   0.674
 8321SOL    HW126802  14.490  11.145   0.602
 8321SOL    HW226803  14.369  11.101   0.683
 8322SOL     OW26804  13.475   1.542  10.018
 8322SOL    HW126805  13.466   1.626   9.972
 8322SOL    HW226806  13.551   1.555  10.075
 8323SOL     OW26807   4.631  13.815  14.429
 8323SOL    HW126808   4.725  13.806  14.446
 8323SOL    HW226809   4.625  13.842  14.337
 8324SOL     OW26810  13.535   1.968   4.577
 8324SOL    HW126811  13.549   1.892   4.633
 8324SOL    HW226812  13.542   1.934   4.488
 8325SOL     OW26813   8.500   0.189  12.577
 8325SOL    HW126814   8.414   0.153  12.556
 8325SOL    HW226815   8.529   0.139  12.653
 8326SOL     OW26816   0.948   9.484   6.907
 8326SOL    HW126817   0.916   9.573   6.917
 8326SOL    HW226818   1.000   9.486   6.827
 8327SOL     OW26819   2.477  12.284   5.179
 8327SOL    HW126820   2.438  12.288   5.266
 8327SOL    HW226821   2.537  12.209   5.183
 8328SOL     OW26822  12.154   3.914  10.474
 8328SOL    HW126823  12.069   3.958  10.466
 8328SOL    HW226824  12.194   3.952  10.552
 8329SOL     OW26825   0.800  12.355   4.376
 8329SOL    HW126826   0.723  12.362   4.319
 8329SOL    HW226827   0.771  12.300   4.449
 8330SOL     OW26828   4.415   3.247   8.164
 8330SOL    HW126829   4.424   3.342   8.176
 8330SOL    HW226830   4.475   3.209   8.229
 8331SOL     OW26831  10.457   9.187   5.273
 8331SOL    HW126832  10.479   9.219   5.361
 8331SOL    HW226833  10.369   9.151   5.281
 8332SOL     OW26834   1.612   0.617   7.541
 8332SOL    HW126835   1.707   0.613   7.547
 8332SOL    HW226836   1.592   0.574   7.458
 8333SOL     OW26837  12.917  12.432   4.593
 8333SOL    HW126838  12.829  12.395   4.601
 8333SOL    HW226839  12.942  12.455   4.682
 8334SOL     OW26840  12.915   3.760   5.374
 8334SOL    HW126841  12.954   3.716   5.450
 8334SOL    HW226842  12.840   3.706   5.351
 8335SOL     OW26843  13.692  13.712   2.017
 8335SOL    HW126844  13.771  13.765   2.008
 8335SOL    HW226845  13.620  13.775   2.015
 8336SOL     OW26846  13.079  13.893  10.781
 8336SOL    HW126847  13.170  13.919  10.766
 8336SOL    HW226848  13.032  13.976  10.791
 8337SOL     OW26849   4.057   3.558   7.682
 8337SOL    HW126850   4.034   3.477   7.635
 8337SOL    HW226851   4.067   3.530   7.773
 8338SOL     OW26852  12.192  10.331  12.966
 8338SOL    HW126853  12.263  10.354  13.025
 8338SOL    HW226854  12.219  10.365  12.881
 8339SOL     OW26855  14.235   0.861  10.326
 8339SOL    HW126856  14.252   0.941  10.277
 8339SOL    HW226857  14.270   0.878  10.413
 8340SOL     OW26858   3.172   3.529   3.231
 8340SOL    HW126859   3.102   3.589   3.208
 8340SOL    HW226860   3.252   3.581   3.223
 8341SOL     OW26861   1.909  11.420  11.918
 8341SOL    HW126862   1.888  11.458  12.003
 8341SOL    HW226863   1.995  11.455  11.896
 8342SOL     OW26864  12.176   0.585   3.667
 8342SOL    HW126865  12.184   0.680   3.679
 8342SOL    HW226866  12.133   0.554   3.746
 8343SOL     OW26867  11.803   1.331  10.766
 8343SOL    HW126868  11.718   1.349  10.805
 8343SOL    HW226869  11.823   1.408  10.714
 8344SOL     OW26870  12.808   9.334   8.212
 8344SOL    HW126871  12.799   9.378   8.297
 8344SOL    HW226872  12.893   9.364   8.178
 8345SOL     OW26873   0.984   8.059   3.172
 8345SOL    HW126874   1.064   8.008   3.169
 8345SOL    HW226875   1.013   8.149   3.191
 8346SOL     OW26876   0.459   7.643   9.724
 8346SOL    HW126877   0.406   7.721   9.741
 8346SOL    HW226878   0.395   7.572   9.717
 8347SOL     OW26879   8.880  10.807   0.048
 8347SOL    HW126880   8.846  10.763  14.850
 8347SOL    HW226881   8.837  10.892   0.048
 8348SOL     OW26882  11.494  11.308  10.362
 8348SOL    HW126883  11.488  11.351  10.277
 8348SOL    HW226884  11.547  11.368  10.415
 8349SOL     OW26885   9.979   8.503   2.315
 8349SOL    HW126886  10.023   8.588   2.317
 8349SOL    HW226887  10.025   8.450   2.381
 8350SOL     OW26888  14.453   3.800  10.375
 8350SOL    HW126889  14.369   3.845  10.385
 8350SOL    HW226890  14.435   3.732  10.310
 8351SOL     OW26891   3.580   5.605   9.285
 8351SOL    HW126892   3.493   5.642   9.298
 8351SOL    HW226893   3.607   5.638   9.199
 8352SOL     OW26894   4.539  11.820   6.783
 8352SOL    HW126895   4.542  11.780   6.697
 8352SOL    HW226896   4.446  11.838   6.798
 8353SOL     OW26897  10.764  12.421   9.958
 8353SOL    HW126898  10.787  12.391  10.046
 8353SOL    HW226899  10.677  12.459   9.967
 8354SOL     OW26900  13.147   2.028  14.670
 8354SOL    HW126901  13.207   2.089  14.628
 8354SOL    HW226902  13.065   2.036  14.620
 8355SOL     OW26903   5.353  10.433  11.972
 8355SOL    HW126904   5.328  10.496  12.039
 8355SOL    HW226905   5.368  10.485  11.893
 8356SOL     OW26906   5.296   5.696  14.087
 8356SOL    HW126907   5.266   5.606  14.098
 8356SOL    HW226908   5.225   5.739  14.040
 8357SOL     OW26909   0.378   9.135   1.770
 8357SOL    HW126910   0.284   9.154   1.767
 8357SOL    HW226911   0.383   9.040   1.775
 8358SOL     OW26912   3.895   3.161   5.495
 8358SOL    HW126913   3.826   3.117   5.545
 8358SOL    HW226914   3.848   3.212   5.429
 8359SOL     OW26915   4.193  13.505   0.747
 8359SOL    HW126916   4.246  13.536   0.673
 8359SOL    HW226917   4.107  13.489   0.709
 8360SOL     OW26918   3.809  11.544  12.855
 8360SOL    HW126919   3.886  11.594  12.880
 8360SOL    HW226920   3.744  11.610  12.832
 8361SOL     OW26921   2.819   6.764   0.913
 8361SOL    HW126922   2.901   6.715   0.908
 8361SOL    HW226923   2.764   6.727   0.844
 8362SOL     OW26924   6.816  10.543  11.394
 8362SOL    HW126925   6.810  10.605  11.322
 8362SOL    HW226926   6.727  10.537  11.429
 8363SOL     OW26927   0.606   5.255  11.891
 8363SOL    HW126928   0.601   5.162  11.916
 8363SOL    HW226929   0.657   5.296  11.961
 8364SOL     OW26930   5.513   4.507  12.847
 8364SOL    HW126931   5.473   4.572  12.789
 8364SOL    HW226932   5.598   4.489  12.808
 8365SOL     OW26933  11.424   5.510  10.953
 8365SOL    HW126934  11.502   5.564  10.959
 8365SOL    HW226935  11.455   5.421  10.972
 8366SOL     OW26936   6.086  12.329   7.467
 8366SOL    HW126937   6.145  12.254   7.476
 8366SOL    HW226938   6.002  12.298   7.498
 8367SOL     OW26939   2.427   2.198   3.772
 8367SOL    HW126940   2.467   2.221   3.688
 8367SOL    HW226941   2.371   2.122   3.751
 8368SOL     OW26942   5.293   9.787   1.897
 8368SOL    HW126943   5.288   9.879   1.874
 8368SOL    HW226944   5.210   9.768   1.940
 8369SOL     OW26945   5.829   8.781   1.137
 8369SOL    HW126946   5.864   8.780   1.226
 8369SOL    HW226947   5.906   8.788   1.081
 8370SOL     OW26948   0.286   1.461  10.725
 8370SOL    HW126949   0.264   1.534  10.667
 8370SOL    HW226950   0.370   1.486  10.764
 8371SOL     OW26951   0.139   9.313  10.826
 8371SOL    HW126952   0.198   9.292  10.754
 8371SOL    HW226953   0.120   9.229  10.867
 8372SOL     OW26954   7.472  13.845  11.543
 8372SOL    HW126955   7.395  13.824  11.595
 8372SOL    HW226956   7.468  13.784  11.469
 8373SOL     OW26957  11.385   8.235   0.005
 8373SOL    HW126958  11.298   8.200   0.023
 8373SOL    HW226959  11.402   8.211  14.794
 8374SOL     OW26960   1.619   8.194  11.366
 8374SOL    HW126961   1.526   8.186  11.344
 8374SOL    HW226962   1.621   8.262  11.433
 8375SOL     OW26963   4.595   8.332   2.222
 8375SOL    HW126964   4.577   8.401   2.287
 8375SOL    HW226965   4.534   8.350   2.151
 8376SOL     OW26966   6.049   7.446  14.757
 8376SOL    HW126967   5.972   7.498  14.731
 8376SOL    HW226968   6.029   7.358  14.726
 8377SOL     OW26969   5.777   7.035   7.255
 8377SOL    HW126970   5.851   7.086   7.222
 8377SOL    HW226971   5.775   7.052   7.349
 8378SOL     OW26972  14.830   7.350   7.219
 8378SOL    HW126973  14.793   7.348   7.131
 8378SOL    HW226974  14.857   7.441   7.231
 8379SOL     OW26975   9.486   3.234   3.828
 8379SOL    HW126976   9.542   3.157   3.828
 8379SOL    HW226977   9.399   3.202   3.853
 8380SOL     OW26978  13.442   6.950   5.231
 8380SOL    HW126979  13.368   6.922   5.285
 8380SOL    HW226980  13.503   6.877   5.233
 8381SOL     OW26981   8.414  13.041   5.905
 8381SOL    HW126982   8.417  13.091   5.987
 8381SOL    HW226983   8.343  13.081   5.854
 8382SOL     OW26984   5.454  12.332   9.389
 8382SOL    HW126985   5.398  12.388   9.442
 8382SOL    HW226986   5.525  12.306   9.447
 8383SOL     OW26987   0.497   8.819  11.338
 8383SOL    HW126988   0.498   8.834  11.432
 8383SOL    HW226989   0.405   8.798  11.318
 8384SOL     OW26990  11.638  14.771   6.145
 8384SOL    HW126991  11.678  14.727   6.220
 8384SOL    HW226992  11.643  14.864   6.167
 8385SOL     OW26993  10.233  14.806   7.270
 8385SOL    HW126994  10.210  14.738   7.206
 8385SOL    HW226995  10.230  14.761   7.355
 8386SOL     OW26996   1.756   5.265   3.994
 8386SOL    HW126997   1.728   5.275   3.903
 8386SOL    HW226998   1.852   5.266   3.991
 8387SOL     OW26999  10.602  13.967   3.810
 8387SOL    HW127000  10.598  13.890   3.753
 8387SOL    HW227001  10.691  13.966   3.845
 8388SOL     OW27002  12.277  10.278   9.447
 8388SOL    HW127003  12.251  10.330   9.371
 8388SOL    HW227004  12.196  10.263   9.496
 8389SOL     OW27005   9.267  12.665  10.646
 8389SOL    HW127006   9.292  12.575  10.665
 8389SOL    HW227007   9.249  12.667  10.552
 8390SOL     OW27008   5.374  11.891   0.356
 8390SOL    HW127009   5.306  11.874   0.291
 8390SOL    HW227010   5.373  11.986   0.368
 8391SOL     OW27011  10.844   0.736  10.001
 8391SOL    HW127012  10.785   0.707  10.071
 8391SOL    HW227013  10.924   0.761  10.046
 8392SOL     OW27014   5.023   7.426  14.654
 8392SOL    HW127015   5.018   7.346  14.706
 8392SOL    HW227016   4.992   7.495  14.713
 8393SOL     OW27017   1.558   0.035   1.575
 8393SOL    HW127018   1.634   0.081   1.609
 8393SOL    HW227019   1.594  14.834   1.537
 8394SOL     OW27020   9.957   1.369   0.203
 8394SOL    HW127021  10.012   1.411   0.269
 8394SOL    HW227022   9.954   1.431   0.131
 8395SOL     OW27023  14.406   2.026   9.708
 8395SOL    HW127024  14.469   1.969   9.753
 8395SOL    HW227025  14.369   2.080   9.778
 8396SOL     OW27026   8.123   7.475   4.247
 8396SOL    HW127027   8.095   7.541   4.184
 8396SOL    HW227028   8.215   7.494   4.263
 8397SOL     OW27029   6.456   9.053  13.360
 8397SOL    HW127030   6.461   9.031  13.267
 8397SOL    HW227031   6.427   8.972  13.403
 8398SOL     OW27032   4.467  12.544   8.646
 8398SOL    HW127033   4.495  12.499   8.725
 8398SOL    HW227034   4.460  12.636   8.671
 8399SOL     OW27035   5.450   7.436   4.855
 8399SOL    HW127036   5.368   7.470   4.819
 8399SOL    HW227037   5.485   7.381   4.785
 8400SOL     OW27038  10.549   4.731   4.040
 8400SOL    HW127039  10.508   4.679   3.971
 8400SOL    HW227040  10.607   4.670   4.086
 8401SOL     OW27041   1.531   2.688   6.670
 8401SOL    HW127042   1.563   2.644   6.592
 8401SOL    HW227043   1.609   2.723   6.712
 8402SOL     OW27044   6.979  12.179   1.791
 8402SOL    HW127045   7.009  12.129   1.716
 8402SOL    HW227046   6.927  12.250   1.754
 8403SOL     OW27047   9.367   0.042   5.221
 8403SOL    HW127048   9.292  14.863   5.209
 8403SOL    HW227049   9.417   0.002   5.292
 8404SOL     OW27050  12.949  14.586   2.676
 8404SOL    HW127051  12.875  14.619   2.727
 8404SOL    HW227052  13.025  14.634   2.708
 8405SOL     OW27053  10.578   0.083   8.476
 8405SOL    HW127054  10.651   0.030   8.508
 8405SOL    HW227055  10.500   0.032   8.498
 8406SOL     OW27056  14.835   5.720   4.621
 8406SOL    HW127057  14.757   5.665   4.636
 8406SOL    HW227058  14.842   5.727   4.526
 8407SOL     OW27059  12.855   1.565   5.528
 8407SOL    HW127060  12.935   1.553   5.580
 8407SOL    HW227061  12.847   1.660   5.518
 8408SOL     OW27062   3.578  10.329   2.670
 8408SOL    HW127063   3.543  10.265   2.608
 8408SOL    HW227064   3.501  10.370   2.709
 8409SOL     OW27065   6.848   0.105  10.639
 8409SOL    HW127066   6.835   0.038  10.572
 8409SOL    HW227067   6.927   0.151  10.611
 8410SOL     OW27068   5.475   6.961   3.755
 8410SOL    HW127069   5.380   6.966   3.760
 8410SOL    HW227070   5.506   7.027   3.817
 8411SOL     OW27071   2.604   6.471   8.893
 8411SOL    HW127072   2.649   6.487   8.976
 8411SOL    HW227073   2.516   6.445   8.918
 8412SOL     OW27074   5.606  13.097   7.610
 8412SOL    HW127075   5.522  13.051   7.608
 8412SOL    HW227076   5.597  13.158   7.683
 8413SOL     OW27077   0.736  12.395   6.352
 8413SOL    HW127078   0.824  12.421   6.324
 8413SOL    HW227079   0.719  12.445   6.431
 8414SOL     OW27080   3.220  14.552   5.190
 8414SOL    HW127081   3.192  14.601   5.267
 8414SOL    HW227082   3.291  14.604   5.153
 8415SOL     OW27083   4.505   6.751  14.307
 8415SOL    HW127084   4.442   6.764  14.236
 8415SOL    HW227085   4.590   6.758  14.265
 8416SOL     OW27086  13.036   6.597  10.922
 8416SOL    HW127087  13.016   6.526  10.983
 8416SOL    HW227088  13.131   6.596  10.914
 8417SOL     OW27089   9.703  11.703  13.724
 8417SOL    HW127090   9.773  11.744  13.775
 8417SOL    HW227091   9.626  11.705  13.782
 8418SOL     OW27092   4.932  10.490  11.203
 8418SOL    HW127093   4.945  10.412  11.256
 8418SOL    HW227094   5.011  10.494  11.148
 8419SOL     OW27095   3.825  11.763   3.309
 8419SOL    HW127096   3.754  11.823   3.331
 8419SOL    HW227097   3.871  11.807   3.236
 8420SOL     OW27098   2.510   0.407  10.560
 8420SOL    HW127099   2.579   0.439  10.619
 8420SOL    HW227100   2.451   0.481  10.549
 8421SOL     OW27101  14.320   2.005   6.936
 8421SOL    HW127102  14.337   2.071   6.868
 8421SOL    HW227103  14.288   1.929   6.888
 8422SOL     OW27104   4.542   0.906  11.950
 8422SOL    HW127105   4.603   0.833  11.957
 8422SOL    HW227106   4.574   0.958  11.876
 8423SOL     OW27107   1.207   2.959   1.698
 8423SOL    HW127108   1.259   3.039   1.689
 8423SOL    HW227109   1.272   2.889   1.701
 8424SOL     OW27110  10.139   6.304   7.758
 8424SOL    HW127111  10.143   6.216   7.796
 8424SOL    HW227112  10.047   6.315   7.732
 8425SOL     OW27113   5.246  13.796   5.966
 8425SOL    HW127114   5.166  13.765   5.923
 8425SOL    HW227115   5.312  13.730   5.945
 8426SOL     OW27116  11.408   7.805  11.107
 8426SOL    HW127117  11.402   7.828  11.014
 8426SOL    HW227118  11.460   7.876  11.145
 8427SOL     OW27119   3.265  14.302   6.927
 8427SOL    HW127120   3.325  14.272   6.996
 8427SOL    HW227121   3.251  14.225   6.872
 8428SOL     OW27122  11.605   9.612   4.543
 8428SOL    HW127123  11.646   9.547   4.485
 8428SOL    HW227124  11.601   9.568   4.628
 8429SOL     OW27125   5.678  13.472  12.777
 8429SOL    HW127126   5.707  13.382  12.795
 8429SOL    HW227127   5.745  13.527  12.816
 8430SOL     OW27128   7.695  14.477   4.521
 8430SOL    HW127129   7.653  14.404   4.474
 8430SOL    HW227130   7.679  14.553   4.466
 8431SOL     OW27131   6.342   3.446  10.046
 8431SOL    HW127132   6.381   3.458   9.959
 8431SOL    HW227133   6.416   3.455  10.106
 8432SOL     OW27134   2.769  14.064   2.389
 8432SOL    HW127135   2.702  14.040   2.452
 8432SOL    HW227136   2.846  14.013   2.415
 8433SOL     OW27137   2.993  10.239   6.132
 8433SOL    HW127138   3.048  10.187   6.190
 8433SOL    HW227139   3.028  10.328   6.139
 8434SOL     OW27140   2.725  13.850  11.337
 8434SOL    HW127141   2.699  13.931  11.381
 8434SOL    HW227142   2.781  13.806  11.400
 8435SOL     OW27143   6.782   5.853  11.865
 8435SOL    HW127144   6.782   5.942  11.831
 8435SOL    HW227145   6.784   5.797  11.787
 8436SOL     OW27146  10.848  13.990   1.418
 8436SOL    HW127147  10.844  14.019   1.509
 8436SOL    HW227148  10.861  14.070   1.367
 8437SOL     OW27149   9.168  14.388   6.509
 8437SOL    HW127150   9.119  14.328   6.565
 8437SOL    HW227151   9.169  14.471   6.558
 8438SOL     OW27152  10.061   0.676   8.002
 8438SOL    HW127153  10.145   0.683   8.047
 8438SOL    HW227154  10.034   0.586   8.017
 8439SOL     OW27155   0.855   9.717   6.671
 8439SOL    HW127156   0.825   9.761   6.750
 8439SOL    HW227157   0.949   9.736   6.667
 8440SOL     OW27158  11.388   9.135   4.324
 8440SOL    HW127159  11.304   9.089   4.324
 8440SOL    HW227160  11.453   9.066   4.335
 8441SOL     OW27161  14.393  10.786   0.651
 8441SOL    HW127162  14.416  10.877   0.630
 8441SOL    HW227163  14.303  10.776   0.619
 8442SOL     OW27164   6.401   9.123   7.825
 8442SOL    HW127165   6.391   9.150   7.916
 8442SOL    HW227166   6.452   9.194   7.785
 8443SOL     OW27167   6.832   9.978  13.491
 8443SOL    HW127168   6.904   9.940  13.540
 8443SOL    HW227169   6.782   9.903  13.459
 8444SOL     OW27170  14.378  11.161   8.271
 8444SOL    HW127171  14.416  11.120   8.194
 8444SOL    HW227172  14.446  11.220   8.302
 8445SOL     OW27173  11.544   0.536   1.664
 8445SOL    HW127174  11.470   0.478   1.682
 8445SOL    HW227175  11.591   0.542   1.747
 8446SOL     OW27176   7.328   8.324   3.923
 8446SOL    HW127177   7.257   8.261   3.912
 8446SOL    HW227178   7.285   8.409   3.932
 8447SOL     OW27179  11.851   5.468   1.829
 8447SOL    HW127180  11.910   5.539   1.855
 8447SOL    HW227181  11.910   5.397   1.801
 8448SOL     OW27182   3.202   7.775   4.246
 8448SOL    HW127183   3.162   7.856   4.276
 8448SOL    HW227184   3.246   7.740   4.323
 8449SOL     OW27185  12.492  10.310  10.438
 8449SOL    HW127186  12.477  10.356  10.522
 8449SOL    HW227187  12.405  10.308  10.397
 8450SOL     OW27188  13.033  12.963   7.658
 8450SOL    HW127189  13.067  12.988   7.744
 8450SOL    HW227190  13.022  12.868   7.663
 8451SOL     OW27191   2.605   7.110  12.637
 8451SOL    HW127192   2.609   7.088  12.730
 8451SOL    HW227193   2.600   7.205  12.635
 8452SOL     OW27194   0.834   2.581   4.030
 8452SOL    HW127195   0.861   2.491   4.009
 8452SOL    HW227196   0.739   2.577   4.029
 8453SOL     OW27197  13.474  13.217   5.765
 8453SOL    HW127198  13.553  13.164   5.756
 8453SOL    HW227199  13.419  13.191   5.692
 8454SOL     OW27200  10.728   2.600   0.594
 8454SOL    HW127201  10.818   2.609   0.624
 8454SOL    HW227202  10.676   2.645   0.660
 8455SOL     OW27203  10.481   7.326   3.907
 8455SOL    HW127204  10.438   7.408   3.931
 8455SOL    HW227205  10.424   7.287   3.840
 8456SOL     OW27206   0.255   1.796  10.089
 8456SOL    HW127207   0.343   1.770  10.117
 8456SOL    HW227208   0.200   1.721  10.112
 8457SOL     OW27209  10.253   2.587  11.994
 8457SOL    HW127210  10.173   2.559  11.951
 8457SOL    HW227211  10.248   2.683  11.993
 8458SOL     OW27212   7.697   5.178   9.296
 8458SOL    HW127213   7.774   5.183   9.240
 8458SOL    HW227214   7.702   5.254   9.353
 8459SOL     OW27215  10.537   2.558   5.781
 8459SOL    HW127216  10.608   2.507   5.741
 8459SOL    HW227217  10.496   2.603   5.707
 8460SOL     OW27218   9.426  14.776   9.401
 8460SOL    HW127219   9.389  14.762   9.314
 8460SOL    HW227220   9.358  14.746   9.461
 8461SOL     OW27221   2.684   5.703  10.272
 8461SOL    HW127222   2.701   5.737  10.360
 8461SOL    HW227223   2.714   5.612  10.275
 8462SOL     OW27224   8.402   8.638   3.411
 8462SOL    HW127225   8.361   8.609   3.492
 8462SOL    HW227226   8.471   8.699   3.439
 8463SOL     OW27227  10.371   0.240   6.325
 8463SOL    HW127228  10.410   0.232   6.412
 8463SOL    HW227229  10.346   0.150   6.302
 8464SOL     OW27230   4.870   4.361   9.172
 8464SOL    HW127231   4.865   4.361   9.267
 8464SOL    HW227232   4.787   4.401   9.144
 8465SOL     OW27233  13.699  13.677  13.030
 8465SOL    HW127234  13.641  13.681  12.954
 8465SOL    HW227235  13.663  13.605  13.083
 8466SOL     OW27236   1.703   4.714  13.084
 8466SOL    HW127237   1.651   4.635  13.076
 8466SOL    HW227238   1.732   4.716  13.175
 8467SOL     OW27239   7.490   9.360   1.214
 8467SOL    HW127240   7.462   9.268   1.215
 8467SOL    HW227241   7.583   9.357   1.235
 8468SOL     OW27242   0.195   7.866  13.406
 8468SOL    HW127243   0.101   7.858  13.387
 8468SOL    HW227244   0.209   7.959  13.420
 8469SOL     OW27245   1.912  11.714  10.026
 8469SOL    HW127246   1.838  11.760   9.987
 8469SOL    HW227247   1.910  11.741  10.118
 8470SOL     OW27248   1.926   7.628   0.049
 8470SOL    HW127249   1.867   7.696   0.084
 8470SOL    HW227250   2.013   7.667   0.057
 8471SOL     OW27251  11.904   9.621   4.004
 8471SOL    HW127252  11.836   9.582   4.059
 8471SOL    HW227253  11.858   9.652   3.927
 8472SOL     OW27254  13.215  11.599   2.389
 8472SOL    HW127255  13.282  11.533   2.408
 8472SOL    HW227256  13.252  11.651   2.318
 8473SOL     OW27257  11.054   3.409   6.250
 8473SOL    HW127258  11.032   3.325   6.290
 8473SOL    HW227259  11.016   3.405   6.162
 8474SOL     OW27260   5.131   3.450   0.623
 8474SOL    HW127261   5.065   3.485   0.683
 8474SOL    HW227262   5.173   3.379   0.672
 8475SOL     OW27263   8.447  10.905   7.177
 8475SOL    HW127264   8.412  10.910   7.267
 8475SOL    HW227265   8.373  10.874   7.125
 8476SOL     OW27266   1.979  14.680   0.791
 8476SOL    HW127267   2.030  14.695   0.711
 8476SOL    HW227268   1.895  14.648   0.760
 8477SOL     OW27269  10.337   8.789   1.851
 8477SOL    HW127270  10.366   8.791   1.942
 8477SOL    HW227271  10.348   8.698   1.824
 8478SOL     OW27272  10.432   3.292   1.342
 8478SOL    HW127273  10.481   3.366   1.304
 8478SOL    HW227274  10.500   3.229   1.367
 8479SOL     OW27275   6.790  11.373   0.308
 8479SOL    HW127276   6.732  11.363   0.383
 8479SOL    HW227277   6.765  11.304   0.248
 8480SOL     OW27278   8.356   0.307   9.674
 8480SOL    HW127279   8.385   0.266   9.756
 8480SOL    HW227280   8.436   0.341   9.635
 8481SOL     OW27281   1.650  11.695   0.158
 8481SOL    HW127282   1.610  11.781   0.150
 8481SOL    HW227283   1.724  11.708   0.217
 8482SOL     OW27284   4.449   8.542   4.978
 8482SOL    HW127285   4.416   8.622   4.936
 8482SOL    HW227286   4.477   8.487   4.905
 8483SOL     OW27287  14.336   4.209   9.772
 8483SOL    HW127288  14.312   4.296   9.803
 8483SOL    HW227289  14.415   4.187   9.822
 8484SOL     OW27290  14.050   1.397   4.871
 8484SOL    HW127291  14.080   1.344   4.946
 8484SOL    HW227292  14.124   1.396   4.810
 8485SOL     OW27293  13.157   2.790   4.853
 8485SOL    HW127294  13.136   2.830   4.938
 8485SOL    HW227295  13.128   2.855   4.788
 8486SOL     OW27296  10.987   2.869   6.727
 8486SOL    HW127297  10.952   2.954   6.754
 8486SOL    HW227298  10.977   2.813   6.805
 8487SOL     OW27299   9.141  11.074   8.653
 8487SOL    HW127300   9.141  11.100   8.746
 8487SOL    HW227301   9.224  11.108   8.619
 8488SOL     OW27302   5.454   5.893   5.766
 8488SOL    HW127303   5.405   5.857   5.693
 8488SOL    HW227304   5.490   5.815   5.810
 8489SOL     OW27305  11.612   4.742  13.833
 8489SOL    HW127306  11.643   4.832  13.827
 8489SOL    HW227307  11.622   4.707  13.744
 8490SOL     OW27308  12.876   0.430   9.955
 8490SOL    HW127309  12.873   0.337   9.933
 8490SOL    HW227310  12.788   0.450   9.987
 8491SOL     OW27311   8.675   0.221  10.277
 8491SOL    HW127312   8.607   0.187  10.219
 8491SOL    HW227313   8.746   0.158  10.271
 8492SOL     OW27314   3.833  14.694   9.300
 8492SOL    HW127315   3.747  14.732   9.282
 8492SOL    HW227316   3.894  14.767   9.292
 8493SOL     OW27317  12.375  13.829   2.786
 8493SOL    HW127318  12.457  13.783   2.767
 8493SOL    HW227319  12.318  13.762   2.824
 8494SOL     OW27320   5.325   7.089   4.888
 8494SOL    HW127321   5.404   7.042   4.863
 8494SOL    HW227322   5.275   7.096   4.806
 8495SOL     OW27323   5.157  13.284  13.847
 8495SOL    HW127324   5.109  13.236  13.779
 8495SOL    HW227325   5.119  13.252  13.929
 8496SOL     OW27326   8.204   9.571  12.634
 8496SOL    HW127327   8.204   9.659  12.596
 8496SOL    HW227328   8.126   9.570  12.690
 8497SOL     OW27329   5.701   5.538   5.567
 8497SOL    HW127330   5.721   5.620   5.522
 8497SOL    HW227331   5.748   5.544   5.650
 8498SOL     OW27332  14.483  14.681  13.450
 8498SOL    HW127333  14.557  14.676  13.389
 8498SOL    HW227334  14.407  14.653  13.399
 8499SOL     OW27335   1.900  13.790   2.329
 8499SOL    HW127336   1.904  13.712   2.274
 8499SOL    HW227337   1.885  13.862   2.268
 8500SOL     OW27338   8.887  10.834  12.942
 8500SOL    HW127339   8.977  10.827  12.974
 8500SOL    HW227340   8.886  10.782  12.862
 8501SOL     OW27341   3.592  13.515  14.866
 8501SOL    HW127342   3.626  13.488   0.072
 8501SOL    HW227343   3.593  13.611  14.869
 8502SOL     OW27344  11.190  14.325   5.928
 8502SOL    HW127345  11.258  14.367   5.980
 8502SOL    HW227346  11.108  14.350   5.970
 8503SOL     OW27347   2.263   5.991  13.157
 8503SOL    HW127348   2.338   5.994  13.216
 8503SOL    HW227349   2.201   6.055  13.192
 8504SOL     OW27350   8.632  13.348   0.152
 8504SOL    HW127351   8.609  13.267   0.108
 8504SOL    HW227352   8.586  13.416   0.103
 8505SOL     OW27353   1.027  14.534   5.744
 8505SOL    HW127354   0.971  14.558   5.819
 8505SOL    HW227355   0.974  14.473   5.693
 8506SOL     OW27356   7.391   1.677  11.615
 8506SOL    HW127357   7.433   1.597  11.583
 8506SOL    HW227358   7.385   1.665  11.710
 8507SOL     OW27359   9.729   7.686   7.176
 8507SOL    HW127360   9.718   7.627   7.250
 8507SOL    HW227361   9.639   7.703   7.145
 8508SOL     OW27362  13.027  11.170  14.126
 8508SOL    HW127363  13.034  11.201  14.216
 8508SOL    HW227364  12.935  11.143  14.117
 8509SOL     OW27365   6.244   5.616   9.938
 8509SOL    HW127366   6.237   5.602   9.843
 8509SOL    HW227367   6.338   5.615   9.955
 8510SOL     OW27368   6.848  10.518   4.155
 8510SOL    HW127369   6.842  10.426   4.180
 8510SOL    HW227370   6.940  10.540   4.165
 8511SOL     OW27371   8.159   5.277   0.246
 8511SOL    HW127372   8.187   5.187   0.228
 8511SOL    HW227373   8.146   5.280   0.341
 8512SOL     OW27374   1.805   3.678   0.754
 8512SOL    HW127375   1.832   3.612   0.690
 8512SOL    HW227376   1.881   3.737   0.760
 8513SOL     OW27377   3.128  10.219   7.710
 8513SOL    HW127378   3.053  10.228   7.651
 8513SOL    HW227379   3.194  10.278   7.674
 8514SOL     OW27380   2.697   9.354   8.468
 8514SOL    HW127381   2.715   9.265   8.498
 8514SOL    HW227382   2.753   9.409   8.524
 8515SOL     OW27383   0.224  13.069   6.564
 8515SOL    HW127384   0.148  13.121   6.537
 8515SOL    HW227385   0.207  12.982   6.527
 8516SOL     OW27386   9.856   6.207  12.411
 8516SOL    HW127387   9.775   6.178  12.369
 8516SOL    HW227388   9.844   6.301  12.423
 8517SOL     OW27389   8.444  13.534  12.084
 8517SOL    HW127390   8.405  13.622  12.091
 8517SOL    HW227391   8.368  13.476  12.078
 8518SOL     OW27392   8.752   3.649   3.934
 8518SOL    HW127393   8.675   3.676   3.884
 8518SOL    HW227394   8.812   3.616   3.867
 8519SOL     OW27395   5.233   7.421  14.872
 8519SOL    HW127396   5.148   7.461   0.006
 8519SOL    HW227397   5.276   7.477  14.808
 8520SOL     OW27398   1.700   8.823   1.478
 8520SOL    HW127399   1.732   8.890   1.417
 8520SOL    HW227400   1.755   8.833   1.556
 8521SOL     OW27401   7.316   7.491   9.284
 8521SOL    HW127402   7.371   7.443   9.222
 8521SOL    HW227403   7.241   7.434   9.299
 8522SOL     OW27404  11.290   9.123  14.311
 8522SOL    HW127405  11.249   9.049  14.357
 8522SOL    HW227406  11.216   9.176  14.281
 8523SOL     OW27407   2.993   6.329  13.615
 8523SOL    HW127408   3.015   6.270  13.686
 8523SOL    HW227409   3.077   6.349  13.573
 8524SOL     OW27410  13.447   2.986   5.992
 8524SOL    HW127411  13.539   2.996   6.017
 8524SOL    HW227412  13.445   3.007   5.899
 8525SOL     OW27413   9.730  13.842   6.550
 8525SOL    HW127414   9.819  13.842   6.586
 8525SOL    HW227415   9.743  13.849   6.456
 8526SOL     OW27416   7.329  12.941   1.199
 8526SOL    HW127417   7.370  12.875   1.254
 8526SOL    HW227418   7.264  12.983   1.255
 8527SOL     OW27419   5.071   9.924   4.012
 8527SOL    HW127420   5.040   9.846   3.967
 8527SOL    HW227421   5.043   9.997   3.956
 8528SOL     OW27422   3.960   5.999   2.436
 8528SOL    HW127423   3.982   6.040   2.520
 8528SOL    HW227424   3.890   5.937   2.457
 8529SOL     OW27425   5.845   3.684   7.975
 8529SOL    HW127426   5.782   3.750   8.003
 8529SOL    HW227427   5.882   3.650   8.056
 8530SOL     OW27428   5.836   3.117  11.154
 8530SOL    HW127429   5.835   3.041  11.096
 8530SOL    HW227430   5.918   3.162  11.133
 8531SOL     OW27431  11.104   7.967   4.686
 8531SOL    HW127432  11.119   7.960   4.780
 8531SOL    HW227433  11.016   8.002   4.678
 8532SOL     OW27434   0.521   8.420   2.221
 8532SOL    HW127435   0.531   8.433   2.127
 8532SOL    HW227436   0.609   8.437   2.256
 8533SOL     OW27437   2.510   1.623   1.378
 8533SOL    HW127438   2.529   1.644   1.286
 8533SOL    HW227439   2.517   1.528   1.383
 8534SOL     OW27440  14.321  11.423  12.652
 8534SOL    HW127441  14.376  11.347  12.631
 8534SOL    HW227442  14.375  11.498  12.625
 8535SOL     OW27443   4.078   2.749   6.182
 8535SOL    HW127444   4.098   2.663   6.219
 8535SOL    HW227445   3.992   2.771   6.217
 8536SOL     OW27446   4.471   1.985   0.152
 8536SOL    HW127447   4.532   2.014   0.084
 8536SOL    HW227448   4.518   2.001   0.234
 8537SOL     OW27449   0.927  12.809   7.054
 8537SOL    HW127450   0.903  12.754   6.979
 8537SOL    HW227451   0.846  12.852   7.080
 8538SOL     OW27452  10.316   2.491   2.487
 8538SOL    HW127453  10.239   2.496   2.543
 8538SOL    HW227454  10.356   2.578   2.493
 8539SOL     OW27455   0.706   1.517   7.074
 8539SOL    HW127456   0.644   1.461   7.027
 8539SOL    HW227457   0.767   1.547   7.006
 8540SOL     OW27458   7.251   8.117  13.821
 8540SOL    HW127459   7.206   8.056  13.763
 8540SOL    HW227460   7.210   8.103  13.907
 8541SOL     OW27461   8.075  12.796  13.710
 8541SOL    HW127462   8.007  12.753  13.761
 8541SOL    HW227463   8.156  12.750  13.734
 8542SOL     OW27464   0.836   2.972   4.287
 8542SOL    HW127465   0.805   2.973   4.377
 8542SOL    HW227466   0.756   2.977   4.234
 8543SOL     OW27467   5.826   8.127  10.636
 8543SOL    HW127468   5.743   8.108  10.680
 8543SOL    HW227469   5.872   8.187  10.694
 8544SOL     OW27470   3.281   7.093   9.639
 8544SOL    HW127471   3.254   7.117   9.727
 8544SOL    HW227472   3.205   7.110   9.584
 8545SOL     OW27473   6.279  12.828   6.216
 8545SOL    HW127474   6.210  12.764   6.201
 8545SOL    HW227475   6.272  12.849   6.309
 8546SOL     OW27476  14.165   4.915   9.722
 8546SOL    HW127477  14.249   4.955   9.698
 8546SOL    HW227478  14.179   4.821   9.710
 8547SOL     OW27479  12.819   9.516  12.261
 8547SOL    HW127480  12.874   9.575  12.210
 8547SOL    HW227481  12.731   9.556  12.256
 8548SOL     OW27482  10.202   9.676  10.433
 8548SOL    HW127483  10.186   9.731  10.509
 8548SOL    HW227484  10.114   9.647  10.406
 8549SOL     OW27485   7.119  12.585   8.320
 8549SOL    HW127486   7.129  12.513   8.257
 8549SOL    HW227487   7.100  12.662   8.265
 8550SOL     OW27488   4.780   1.652   6.111
 8550SOL    HW127489   4.771   1.676   6.019
 8550SOL    HW227490   4.870   1.621   6.119
 8551SOL     OW27491  12.076  12.368   0.005
 8551SOL    HW127492  12.108  12.455  14.863
 8551SOL    HW227493  12.103  12.313  14.811
 8552SOL     OW27494   1.665  14.269   8.695
 8552SOL    HW127495   1.756  14.248   8.716
 8552SOL    HW227496   1.643  14.211   8.622
 8553SOL     OW27497  10.247   0.926   3.467
 8553SOL    HW127498  10.335   0.964   3.472
 8553SOL    HW227499  10.232   0.912   3.374
 8554SOL     OW27500   9.246   1.424   0.722
 8554SOL    HW127501   9.178   1.395   0.662
 8554SOL    HW227502   9.304   1.349   0.731
 8555SOL     OW27503   7.229   6.418   2.983
 8555SOL    HW127504   7.156   6.379   2.936
 8555SOL    HW227505   7.201   6.421   3.074
 8556SOL     OW27506  11.742   8.519   3.960
 8556SOL    HW127507  11.699   8.448   4.009
 8556SOL    HW227508  11.676   8.548   3.898
 8557SOL     OW27509   1.251   0.907   7.176
 8557SOL    HW127510   1.309   0.982   7.158
 8557SOL    HW227511   1.305   0.830   7.161
 8558SOL     OW27512   8.777   7.269  13.018
 8558SOL    HW127513   8.711   7.202  13.035
 8558SOL    HW227514   8.726   7.350  13.009
 8559SOL     OW27515   4.724   6.462   4.467
 8559SOL    HW127516   4.724   6.497   4.378
 8559SOL    HW227517   4.789   6.392   4.466
 8560SOL     OW27518  13.371   2.907   5.244
 8560SOL    HW127519  13.367   2.838   5.310
 8560SOL    HW227520  13.418   2.867   5.170
 8561SOL     OW27521   7.002   9.590   5.562
 8561SOL    HW127522   6.998   9.685   5.568
 8561SOL    HW227523   6.928   9.566   5.507
 8562SOL     OW27524   4.615   0.913   9.070
 8562SOL    HW127525   4.536   0.874   9.107
 8562SOL    HW227526   4.583   0.982   9.011
 8563SOL     OW27527  14.471   0.789   9.111
 8563SOL    HW127528  14.398   0.770   9.052
 8563SOL    HW227529  14.442   0.865   9.162
 8564SOL     OW27530   5.170  14.414  12.040
 8564SOL    HW127531   5.079  14.444  12.037
 8564SOL    HW227532   5.189  14.403  12.134
 8565SOL     OW27533   8.883   8.189   8.866
 8565SOL    HW127534   8.890   8.152   8.778
 8565SOL    HW227535   8.957   8.249   8.873
 8566SOL     OW27536   1.763   7.900   9.536
 8566SOL    HW127537   1.842   7.851   9.515
 8566SOL    HW227538   1.691   7.842   9.512
 8567SOL     OW27539   1.163   4.905   2.008
 8567SOL    HW127540   1.235   4.967   2.009
 8567SOL    HW227541   1.085   4.959   2.023
 8568SOL     OW27542   8.872  10.287   3.402
 8568SOL    HW127543   8.834  10.199   3.404
 8568SOL    HW227544   8.797  10.346   3.407
 8569SOL     OW27545   9.659   5.775   2.943
 8569SOL    HW127546   9.660   5.750   2.850
 8569SOL    HW227547   9.656   5.691   2.990
 8570SOL     OW27548  13.389  11.164   6.987
 8570SOL    HW127549  13.417  11.223   7.057
 8570SOL    HW227550  13.433  11.081   7.007
 8571SOL     OW27551   4.965   4.272   6.557
 8571SOL    HW127552   5.004   4.214   6.622
 8571SOL    HW227553   5.032   4.337   6.538
 8572SOL     OW27554  13.532  10.953   6.554
 8572SOL    HW127555  13.540  10.938   6.460
 8572SOL    HW227556  13.482  10.879   6.586
 8573SOL     OW27557   3.042   3.676   7.092
 8573SOL    HW127558   2.957   3.719   7.083
 8573SOL    HW227559   3.103   3.748   7.110
 8574SOL     OW27560  13.527   2.217   1.151
 8574SOL    HW127561  13.526   2.149   1.084
 8574SOL    HW227562  13.436   2.247   1.155
 8575SOL     OW27563   1.579   4.082   1.541
 8575SOL    HW127564   1.491   4.116   1.524
 8575SOL    HW227565   1.602   4.117   1.628
 8576SOL     OW27566   2.596   9.887  11.807
 8576SOL    HW127567   2.660   9.830  11.764
 8576SOL    HW227568   2.572   9.951  11.740
 8577SOL     OW27569   2.085   9.551   6.194
 8577SOL    HW127570   2.097   9.466   6.153
 8577SOL    HW227571   2.149   9.608   6.151
 8578SOL     OW27572   0.455   2.961   3.606
 8578SOL    HW127573   0.463   3.012   3.525
 8578SOL    HW227574   0.400   2.886   3.583
 8579SOL     OW27575   1.429  13.264   1.358
 8579SOL    HW127576   1.480  13.197   1.403
 8579SOL    HW227577   1.384  13.311   1.428
 8580SOL     OW27578  10.818   7.177  13.942
 8580SOL    HW127579  10.880   7.106  13.960
 8580SOL    HW227580  10.871   7.246  13.903
 8581SOL     OW27581   8.441   8.433   0.463
 8581SOL    HW127582   8.447   8.350   0.417
 8581SOL    HW227583   8.529   8.451   0.495
 8582SOL     OW27584   1.815   7.585  10.294
 8582SOL    HW127585   1.758   7.542  10.358
 8582SOL    HW227586   1.900   7.592  10.338
 8583SOL     OW27587   0.318  12.839   4.110
 8583SOL    HW127588   0.318  12.928   4.075
 8583SOL    HW227589   0.302  12.850   4.204
 8584SOL     OW27590  12.877   7.738   3.085
 8584SOL    HW127591  12.854   7.751   3.177
 8584SOL    HW227592  12.964   7.699   3.087
 8585SOL     OW27593  11.761   4.855  12.243
 8585SOL    HW127594  11.841   4.804  12.253
 8585SOL    HW227595  11.702   4.821  12.310
 8586SOL     OW27596   5.809   7.833   4.083
 8586SOL    HW127597   5.885   7.786   4.117
 8586SOL    HW227598   5.816   7.921   4.122
 8587SOL     OW27599   1.018   2.461  12.854
 8587SOL    HW127600   1.053   2.530  12.911
 8587SOL    HW227601   0.990   2.392  12.915
 8588SOL     OW27602  11.938  10.822  14.644
 8588SOL    HW127603  11.849  10.835  14.675
 8588SOL    HW227604  11.993  10.859  14.714
 8589SOL     OW27605   4.718   7.906  14.833
 8589SOL    HW127606   4.766   7.912  14.750
 8589SOL    HW227607   4.646   7.967  14.823
 8590SOL     OW27608  10.450   9.517  10.113
 8590SOL    HW127609  10.485   9.567  10.039
 8590SOL    HW227610  10.464   9.426  10.089
 8591SOL     OW27611  10.889   1.428   1.901
 8591SOL    HW127612  10.932   1.355   1.856
 8591SOL    HW227613  10.921   1.423   1.991
 8592SOL     OW27614   1.465   8.379   8.611
 8592SOL    HW127615   1.443   8.349   8.699
 8592SOL    HW227616   1.437   8.309   8.553
 8593SOL     OW27617   1.872   6.501  10.413
 8593SOL    HW127618   1.833   6.551  10.342
 8593SOL    HW227619   1.939   6.559  10.449
 8594SOL     OW27620  10.825   0.080   9.657
 8594SOL    HW127621  10.773   0.144   9.705
 8594SOL    HW227622  10.848   0.125   9.576
 8595SOL     OW27623   5.871   5.745  11.455
 8595SOL    HW127624   5.897   5.680  11.520
 8595SOL    HW227625   5.877   5.829  11.501
 8596SOL     OW27626  13.651  13.999   5.656
 8596SOL    HW127627  13.707  13.924   5.638
 8596SOL    HW227628  13.637  14.040   5.571
 8597SOL     OW27629   2.205   3.482  13.945
 8597SOL    HW127630   2.135   3.523  13.894
 8597SOL    HW227631   2.182   3.389  13.947
 8598SOL     OW27632   1.219   7.311   3.739
 8598SOL    HW127633   1.140   7.284   3.786
 8598SOL    HW227634   1.245   7.234   3.689
 8599SOL     OW27635   6.012  13.320   0.368
 8599SOL    HW127636   6.006  13.415   0.371
 8599SOL    HW227637   5.927  13.290   0.401
 8600SOL     OW27638  10.924  12.740   1.098
 8600SOL    HW127639  10.927  12.646   1.082
 8600SOL    HW227640  10.847  12.754   1.152
 8601SOL     OW27641   5.054  13.903   8.746
 8601SOL    HW127642   5.059  13.980   8.690
 8601SOL    HW227643   5.054  13.938   8.835
 8602SOL     OW27644   1.044   0.421  14.300
 8602SOL    HW127645   1.032   0.423  14.395
 8602SOL    HW227646   1.050   0.327  14.279
 8603SOL     OW27647   0.628  11.839   5.475
 8603SOL    HW127648   0.580  11.922   5.474
 8603SOL    HW227649   0.575  11.780   5.527
 8604SOL     OW27650   9.258   9.984   7.975
 8604SOL    HW127651   9.202   9.907   7.989
 8604SOL    HW227652   9.289  10.006   8.063
 8605SOL     OW27653   6.864   3.072   3.401
 8605SOL    HW127654   6.782   3.117   3.382
 8605SOL    HW227655   6.933   3.133   3.375
 8606SOL     OW27656   4.284  14.375   8.379
 8606SOL    HW127657   4.253  14.450   8.329
 8606SOL    HW227658   4.351  14.334   8.324
 8607SOL     OW27659  14.405   1.185   6.683
 8607SOL    HW127660  14.381   1.120   6.749
 8607SOL    HW227661  14.472   1.239   6.727
 8608SOL     OW27662  11.976  11.103  11.807
 8608SOL    HW127663  11.963  11.142  11.721
 8608SOL    HW227664  11.958  11.010  11.794
 8609SOL     OW27665  13.115   3.558  11.970
 8609SOL    HW127666  13.061   3.625  12.010
 8609SOL    HW227667  13.091   3.560  11.877
 8610SOL     OW27668  10.656   1.856   5.451
 8610SOL    HW127669  10.596   1.794   5.494
 8610SOL    HW227670  10.740   1.811   5.450
 8611SOL     OW27671   4.309  14.808   0.262
 8611SOL    HW127672   4.316  14.807   0.358
 8611SOL    HW227673   4.319  14.717   0.237
 8612SOL     OW27674   8.882   2.225   1.116
 8612SOL    HW127675   8.802   2.172   1.120
 8612SOL    HW227676   8.851   2.315   1.114
 8613SOL     OW27677   4.745   8.700   9.385
 8613SOL    HW127678   4.733   8.686   9.291
 8613SOL    HW227679   4.687   8.774   9.405
 8614SOL     OW27680   5.482   8.192   1.364
 8614SOL    HW127681   5.475   8.120   1.301
 8614SOL    HW227682   5.409   8.250   1.341
 8615SOL     OW27683   9.266   2.643  12.319
 8615SOL    HW127684   9.247   2.623  12.411
 8615SOL    HW227685   9.257   2.738  12.312
 8616SOL     OW27686   4.882  10.835  10.714
 8616SOL    HW127687   4.899  10.744  10.740
 8616SOL    HW227688   4.794  10.853  10.745
 8617SOL     OW27689  12.677   9.568   8.002
 8617SOL    HW127690  12.677   9.609   8.088
 8617SOL    HW227691  12.768   9.571   7.974
 8618SOL     OW27692  14.190   8.429   0.571
 8618SOL    HW127693  14.106   8.465   0.598
 8618SOL    HW227694  14.239   8.504   0.538
 8619SOL     OW27695   8.412   7.191  11.432
 8619SOL    HW127696   8.469   7.266  11.448
 8619SOL    HW227697   8.332   7.228  11.396
 8620SOL     OW27698   9.026  10.872   7.003
 8620SOL    HW127699   9.016  10.872   7.098
 8620SOL    HW227700   8.941  10.844   6.970
 8621SOL     OW27701   0.360   0.646   5.563
 8621SOL    HW127702   0.450   0.673   5.584
 8621SOL    HW227703   0.322   0.721   5.517
 8622SOL     OW27704   5.574   5.722   4.358
 8622SOL    HW127705   5.567   5.721   4.263
 8622SOL    HW227706   5.617   5.640   4.381
 8623SOL     OW27707   8.961   1.491   5.078
 8623SOL    HW127708   8.921   1.445   5.151
 8623SOL    HW227709   8.986   1.576   5.114
 8624SOL     OW27710   8.383   9.719  10.264
 8624SOL    HW127711   8.432   9.790  10.222
 8624SOL    HW227712   8.291   9.740  10.247
 8625SOL     OW27713  14.314  10.930  10.383
 8625SOL    HW127714  14.397  10.913  10.427
 8625SOL    HW227715  14.322  10.886  10.299
 8626SOL     OW27716  10.477   8.505   0.454
 8626SOL    HW127717  10.507   8.501   0.363
 8626SOL    HW227718  10.382   8.515   0.447
 8627SOL     OW27719   8.117   6.181  11.965
 8627SOL    HW127720   8.053   6.110  11.960
 8627SOL    HW227721   8.067   6.257  11.994
 8628SOL     OW27722   4.132   4.118   8.719
 8628SOL    HW127723   4.199   4.185   8.733
 8628SOL    HW227724   4.177   4.035   8.735
 8629SOL     OW27725   5.745   5.980   0.745
 8629SOL    HW127726   5.766   6.065   0.706
 8629SOL    HW227727   5.820   5.924   0.722
 8630SOL     OW27728  13.209  10.060   4.190
 8630SOL    HW127729  13.253  10.059   4.276
 8630SOL    HW227730  13.201  10.153   4.168
 8631SOL     OW27731   0.751   8.398   8.108
 8631SOL    HW127732   0.843   8.424   8.111
 8631SOL    HW227733   0.743   8.333   8.178
 8632SOL     OW27734   0.691  14.241   1.285
 8632SOL    HW127735   0.778  14.258   1.248
 8632SOL    HW227736   0.637  14.218   1.209
 8633SOL     OW27737  12.055   0.541   3.909
 8633SOL    HW127738  12.065   0.605   3.979
 8633SOL    HW227739  11.985   0.483   3.940
 8634SOL     OW27740   1.661   5.760   4.530
 8634SOL    HW127741   1.692   5.678   4.492
 8634SOL    HW227742   1.638   5.814   4.454
 8635SOL     OW27743   5.633   7.694   6.373
 8635SOL    HW127744   5.656   7.787   6.370
 8635SOL    HW227745   5.586   7.678   6.291
 8636SOL     OW27746  14.497   9.326   6.364
 8636SOL    HW127747  14.548   9.404   6.384
 8636SOL    HW227748  14.537   9.257   6.416
 8637SOL     OW27749  12.366   8.106   9.484
 8637SOL    HW127750  12.308   8.031   9.491
 8637SOL    HW227751  12.328   8.172   9.542
 8638SOL     OW27752   4.926   7.680   1.931
 8638SOL    HW127753   4.971   7.597   1.914
 8638SOL    HW227754   4.855   7.682   1.868
 8639SOL     OW27755   8.930   3.566   8.194
 8639SOL    HW127756   9.011   3.528   8.161
 8639SOL    HW227757   8.958   3.627   8.262
 8640SOL     OW27758   6.938   5.639  10.410
 8640SOL    HW127759   7.017   5.693  10.400
 8640SOL    HW227760   6.871   5.685  10.359
 8641SOL     OW27761   3.031   1.823   7.604
 8641SOL    HW127762   3.088   1.860   7.672
 8641SOL    HW227763   3.008   1.898   7.549
 8642SOL     OW27764   3.394   0.531   2.431
 8642SOL    HW127765   3.305   0.553   2.460
 8642SOL    HW227766   3.401   0.436   2.445
 8643SOL     OW27767   2.423  10.757   5.144
 8643SOL    HW127768   2.502  10.715   5.110
 8643SOL    HW227769   2.423  10.844   5.105
 8644SOL     OW27770   8.850  11.276   5.830
 8644SOL    HW127771   8.782  11.215   5.857
 8644SOL    HW227772   8.802  11.351   5.795
 8645SOL     OW27773  13.995   2.638  10.438
 8645SOL    HW127774  14.047   2.699  10.385
 8645SOL    HW227775  13.920   2.689  10.467
 8646SOL     OW27776   4.274  10.437   8.364
 8646SOL    HW127777   4.196  10.416   8.415
 8646SOL    HW227778   4.293  10.357   8.315
 8647SOL     OW27779   8.867   9.571   0.081
 8647SOL    HW127780   8.901   9.658   0.102
 8647SOL    HW227781   8.942   9.525   0.044
 8648SOL     OW27782   9.448   6.884   4.638
 8648SOL    HW127783   9.501   6.875   4.717
 8648SOL    HW227784   9.366   6.840   4.659
 8649SOL     OW27785   4.886  10.997   4.517
 8649SOL    HW127786   4.830  11.029   4.446
 8649SOL    HW227787   4.907  10.907   4.491
 8650SOL     OW27788   8.315   4.784   0.027
 8650SOL    HW127789   8.398   4.799   0.071
 8650SOL    HW227790   8.304   4.858  14.848
 8651SOL     OW27791   4.175  13.932  14.675
 8651SOL    HW127792   4.120  13.956  14.600
 8651SOL    HW227793   4.240  14.002  14.680
 8652SOL     OW27794   1.286   6.498   8.113
 8652SOL    HW127795   1.291   6.442   8.036
 8652SOL    HW227796   1.266   6.439   8.186
 8653SOL     OW27797   7.754  11.088   0.957
 8653SOL    HW127798   7.812  11.123   0.890
 8653SOL    HW227799   7.777  10.995   0.962
 8654SOL     OW27800   1.352   4.275  13.914
 8654SOL    HW127801   1.344   4.280  13.819
 8654SOL    HW227802   1.326   4.362  13.945
 8655SOL     OW27803   9.240   6.099   8.647
 8655SOL    HW127804   9.299   6.143   8.707
 8655SOL    HW227805   9.275   6.010   8.640
 8656SOL     OW27806   4.824  11.542   6.597
 8656SOL    HW127807   4.798  11.450   6.595
 8656SOL    HW227808   4.746  11.590   6.569
 8657SOL     OW27809   8.298  13.778   5.091
 8657SOL    HW127810   8.301  13.765   4.996
 8657SOL    HW227811   8.267  13.867   5.103
 8658SOL     OW27812   5.692  11.692  10.545
 8658SOL    HW127813   5.684  11.598  10.563
 8658SOL    HW227814   5.707  11.732  10.631
 8659SOL     OW27815   4.904   2.793  11.933
 8659SOL    HW127816   4.891   2.885  11.913
 8659SOL    HW227817   4.993   2.773  11.905
 8660SOL     OW27818  14.171   3.833  10.500
 8660SOL    HW127819  14.155   3.916  10.454
 8660SOL    HW227820  14.162   3.766  10.432
 8661SOL     OW27821  11.939  11.574   3.966
 8661SOL    HW127822  12.003  11.508   3.993
 8661SOL    HW227823  11.886  11.590   4.044
 8662SOL     OW27824   0.024  13.640   0.912
 8662SOL    HW127825   0.050  13.607   0.998
 8662SOL    HW227826   0.032  13.735   0.919
 8663SOL     OW27827  10.310   3.162  11.489
 8663SOL    HW127828  10.305   3.255  11.508
 8663SOL    HW227829  10.261   3.151  11.407
 8664SOL     OW27830   4.705   5.464  12.000
 8664SOL    HW127831   4.611   5.449  12.014
 8664SOL    HW227832   4.711   5.557  11.979
 8665SOL     OW27833   4.091   7.435   3.251
 8665SOL    HW127834   4.099   7.386   3.333
 8665SOL    HW227835   4.160   7.399   3.195
 8666SOL     OW27836   0.613   4.787  13.832
 8666SOL    HW127837   0.641   4.846  13.903
 8666SOL    HW227838   0.681   4.720  13.829
 8667SOL     OW27839   9.451   4.336   4.001
 8667SOL    HW127840   9.438   4.430   4.015
 8667SOL    HW227841   9.387   4.314   3.933
 8668SOL     OW27842   4.412   8.675  13.754
 8668SOL    HW127843   4.421   8.638  13.667
 8668SOL    HW227844   4.333   8.634  13.789
 8669SOL     OW27845   5.687   3.562  11.817
 8669SOL    HW127846   5.762   3.514  11.854
 8669SOL    HW227847   5.697   3.552  11.723
 8670SOL     OW27848  11.305   5.341   4.969
 8670SOL    HW127849  11.285   5.358   5.061
 8670SOL    HW227850  11.220   5.342   4.925
 8671SOL     OW27851   6.253   9.674   3.053
 8671SOL    HW127852   6.259   9.770   3.056
 8671SOL    HW227853   6.188   9.656   2.986
 8672SOL     OW27854   4.035   6.438   4.991
 8672SOL    HW127855   4.085   6.369   4.949
 8672SOL    HW227856   4.096   6.512   4.996
 8673SOL     OW27857   1.591   5.194   7.172
 8673SOL    HW127858   1.534   5.259   7.130
 8673SOL    HW227859   1.639   5.153   7.100
 8674SOL     OW27860  10.118   1.631   0.789
 8674SOL    HW127861  10.165   1.649   0.708
 8674SOL    HW227862  10.146   1.700   0.849
 8675SOL     OW27863   5.385  13.120  11.480
 8675SOL    HW127864   5.480  13.132  11.485
 8675SOL    HW227865   5.349  13.208  11.487
 8676SOL     OW27866  11.544   6.837   6.257
 8676SOL    HW127867  11.469   6.832   6.198
 8676SOL    HW227868  11.609   6.888   6.209
 8677SOL     OW27869   3.938   3.825   0.162
 8677SOL    HW127870   3.884   3.875   0.100
 8677SOL    HW227871   3.917   3.863   0.247
 8678SOL     OW27872   5.340   1.592  14.302
 8678SOL    HW127873   5.398   1.554  14.235
 8678SOL    HW227874   5.350   1.687  14.291
 8679SOL     OW27875  12.840  12.863  12.304
 8679SOL    HW127876  12.863  12.791  12.246
 8679SOL    HW227877  12.887  12.843  12.386
 8680SOL     OW27878   4.091  10.963   0.765
 8680SOL    HW127879   4.041  10.909   0.827
 8680SOL    HW227880   4.089  11.051   0.802
 8681SOL     OW27881   7.321   9.185   8.690
 8681SOL    HW127882   7.352   9.098   8.716
 8681SOL    HW227883   7.397   9.226   8.648
 8682SOL     OW27884   4.801  10.224  13.451
 8682SOL    HW127885   4.796  10.301  13.395
 8682SOL    HW227886   4.887  10.185  13.431
 8683SOL     OW27887  14.772   2.505  12.017
 8683SOL    HW127888  14.695   2.460  12.051
 8683SOL    HW227889  14.842   2.440  12.022
 8684SOL     OW27890   4.878   2.903   2.446
 8684SOL    HW127891   4.896   2.817   2.406
 8684SOL    HW227892   4.892   2.966   2.375
 8685SOL     OW27893  12.070   1.902   4.621
 8685SOL    HW127894  12.006   1.952   4.671
 8685SOL    HW227895  12.135   1.966   4.593
 8686SOL     OW27896   0.086   6.110   8.378
 8686SOL    HW127897   0.125   6.120   8.465
 8686SOL    HW227898   0.020   6.179   8.374
 8687SOL     OW27899   2.449   1.796   8.387
 8687SOL    HW127900   2.425   1.707   8.362
 8687SOL    HW227901   2.540   1.788   8.418
 8688SOL     OW27902   0.470   8.756  10.453
 8688SOL    HW127903   0.518   8.675  10.468
 8688SOL    HW227904   0.383   8.728  10.425
 8689SOL     OW27905  13.301  12.821   8.806
 8689SOL    HW127906  13.251  12.848   8.883
 8689SOL    HW227907  13.271  12.732   8.788
 8690SOL     OW27908   3.344   7.761   5.283
 8690SOL    HW127909   3.273   7.818   5.313
 8690SOL    HW227910   3.358   7.700   5.356
 8691SOL     OW27911   7.181   2.361   5.704
 8691SOL    HW127912   7.194   2.453   5.679
 8691SOL    HW227913   7.153   2.365   5.795
 8692SOL     OW27914   3.386   7.080   8.384
 8692SOL    HW127915   3.365   7.035   8.465
 8692SOL    HW227916   3.429   7.161   8.411
 8693SOL     OW27917   8.049   2.262   2.088
 8693SOL    HW127918   7.976   2.306   2.133
 8693SOL    HW227919   8.105   2.230   2.158
 8694SOL     OW27920   5.203  11.504   9.738
 8694SOL    HW127921   5.184  11.470   9.651
 8694SOL    HW227922   5.150  11.450   9.797
 8695SOL     OW27923   5.059  14.861   7.310
 8695SOL    HW127924   5.004  14.825   7.380
 8695SOL    HW227925   5.107   0.053   7.351
 8696SOL     OW27926   2.923   0.836   3.390
 8696SOL    HW127927   2.964   0.895   3.327
 8696SOL    HW227928   2.922   0.885   3.472
 8697SOL     OW27929   4.027   1.668  13.026
 8697SOL    HW127930   4.027   1.746  13.080
 8697SOL    HW227931   4.035   1.700  12.936
 8698SOL     OW27932   8.770   3.365   0.891
 8698SOL    HW127933   8.691   3.417   0.873
 8698SOL    HW227934   8.743   3.304   0.960
 8699SOL     OW27935   3.527  11.533   4.809
 8699SOL    HW127936   3.446  11.524   4.758
 8699SOL    HW227937   3.579  11.595   4.759
 8700SOL     OW27938   2.258   9.912  14.662
 8700SOL    HW127939   2.205   9.869  14.595
 8700SOL    HW227940   2.230  10.003  14.661
 8701SOL     OW27941   0.700  10.002   7.349
 8701SOL    HW127942   0.793   9.980   7.359
 8701SOL    HW227943   0.678  10.050   7.428
 8702SOL     OW27944   3.545  10.077   4.945
 8702SOL    HW127945   3.508  10.165   4.935
 8702SOL    HW227946   3.612  10.088   5.013
 8703SOL     OW27947   2.567   2.068  13.177
 8703SOL    HW127948   2.542   2.036  13.264
 8703SOL    HW227949   2.660   2.043  13.169
 8704SOL     OW27950   0.121   1.271   5.467
 8704SOL    HW127951   0.105   1.225   5.385
 8704SOL    HW227952   0.145   1.360   5.441
 8705SOL     OW27953  14.251   1.667   4.290
 8705SOL    HW127954  14.257   1.660   4.194
 8705SOL    HW227955  14.175   1.724   4.305
 8706SOL     OW27956   1.235   5.302   3.412
 8706SOL    HW127957   1.182   5.309   3.332
 8706SOL    HW227958   1.314   5.353   3.393
 8707SOL     OW27959   2.404   1.419   3.706
 8707SOL    HW127960   2.357   1.446   3.785
 8707SOL    HW227961   2.337   1.377   3.651
 8708SOL     OW27962  10.753   3.391   0.775
 8708SOL    HW127963  10.792   3.370   0.690
 8708SOL    HW227964  10.659   3.384   0.760
 8709SOL     OW27965  10.532  12.129   8.958
 8709SOL    HW127966  10.592  12.202   8.948
 8709SOL    HW227967  10.563  12.083   9.037
 8710SOL     OW27968   2.735   5.359   4.600
 8710SOL    HW127969   2.806   5.308   4.639
 8710SOL    HW227970   2.661   5.345   4.659
 8711SOL     OW27971   5.236   6.196   4.369
 8711SOL    HW127972   5.202   6.178   4.281
 8711SOL    HW227973   5.177   6.149   4.428
 8712SOL     OW27974  12.002   6.145   2.703
 8712SOL    HW127975  12.061   6.219   2.713
 8712SOL    HW227976  12.047   6.088   2.641
 8713SOL     OW27977   1.915  12.729   7.696
 8713SOL    HW127978   1.885  12.816   7.724
 8713SOL    HW227979   1.836  12.675   7.698
 8714SOL     OW27980   9.047   9.504   5.272
 8714SOL    HW127981   9.034   9.586   5.223
 8714SOL    HW227982   8.988   9.512   5.347
 8715SOL     OW27983  11.414   5.444   5.797
 8715SOL    HW127984  11.358   5.387   5.744
 8715SOL    HW227985  11.364   5.457   5.878
 8716SOL     OW27986   6.797   8.232   4.890
 8716SOL    HW127987   6.797   8.186   4.974
 8716SOL    HW227988   6.750   8.174   4.831
 8717SOL     OW27989   3.554   1.955   8.101
 8717SOL    HW127990   3.501   1.901   8.159
 8717SOL    HW227991   3.551   2.042   8.140
 8718SOL     OW27992   5.799   5.822  12.413
 8718SOL    HW127993   5.816   5.787  12.500
 8718SOL    HW227994   5.729   5.767  12.378
 8719SOL     OW27995   2.904   0.149   4.312
 8719SOL    HW127996   2.811   0.158   4.289
 8719SOL    HW227997   2.916   0.055   4.323
 8720SOL     OW27998   9.127  14.643  13.773
 8720SOL    HW127999   9.055  14.703  13.759
 8720SOL    HW228000   9.206  14.696  13.764
 8721SOL     OW28001   9.113   9.883   4.573
 8721SOL    HW128002   9.117   9.884   4.477
 8721SOL    HW228003   9.145   9.970   4.599
 8722SOL     OW28004   5.156   1.876   8.500
 8722SOL    HW128005   5.140   1.966   8.528
 8722SOL    HW228006   5.191   1.833   8.578
 8723SOL     OW28007   8.074   4.546   1.294
 8723SOL    HW128008   8.010   4.514   1.230
 8723SOL    HW228009   8.069   4.483   1.366
 8724SOL     OW28010   9.969  12.907   1.621
 8724SOL    HW128011   9.963  12.968   1.548
 8724SOL    HW228012   9.910  12.942   1.687
 8725SOL     OW28013   7.326   9.311   4.877
 8725SOL    HW128014   7.243   9.323   4.924
 8725SOL    HW228015   7.305   9.252   4.805
 8726SOL     OW28016   4.504   8.056   0.916
 8726SOL    HW128017   4.490   8.150   0.918
 8726SOL    HW228018   4.592   8.043   0.951
 8727SOL     OW28019   6.139   7.711  11.310
 8727SOL    HW128020   6.202   7.758  11.255
 8727SOL    HW228021   6.074   7.678  11.247
 8728SOL     OW28022   2.005   1.421   8.185
 8728SOL    HW128023   1.964   1.432   8.271
 8728SOL    HW228024   1.937   1.445   8.123
 8729SOL     OW28025  13.085   6.102   2.461
 8729SOL    HW128026  13.044   6.056   2.535
 8729SOL    HW228027  13.175   6.070   2.460
 8730SOL     OW28028   2.444  11.600   9.973
 8730SOL    HW128029   2.480  11.674   9.924
 8730SOL    HW228030   2.372  11.569   9.919
 8731SOL     OW28031  13.455   4.648   6.394
 8731SOL    HW128032  13.474   4.736   6.360
 8731SOL    HW228033  13.541   4.609   6.408
 8732SOL     OW28034   3.685  10.242  12.877
 8732SOL    HW128035   3.595  10.213  12.860
 8732SOL    HW228036   3.735  10.209  12.803
 8733SOL     OW28037   6.732  13.049   1.462
 8733SOL    HW128038   6.815  13.058   1.510
 8733SOL    HW228039   6.686  13.131   1.479
 8734SOL     OW28040   8.614   7.898  11.612
 8734SOL    HW128041   8.639   7.820  11.661
 8734SOL    HW228042   8.604   7.966  11.678
 8735SOL     OW28043   6.567  14.866   8.098
 8735SOL    HW128044   6.510  14.791   8.080
 8735SOL    HW228045   6.519   0.038   8.162
 8736SOL     OW28046   8.994   9.927   3.978
 8736SOL    HW128047   8.989   9.833   3.997
 8736SOL    HW228048   8.915   9.945   3.927
 8737SOL     OW28049   6.659  10.569   3.426
 8737SOL    HW128050   6.590  10.510   3.457
 8737SOL    HW228051   6.628  10.598   3.340
 8738SOL     OW28052   1.613   8.663  11.489
 8738SOL    HW128053   1.672   8.601  11.533
 8738SOL    HW228054   1.627   8.647  11.396
 8739SOL     OW28055   2.468   3.079   1.366
 8739SOL    HW128056   2.468   3.086   1.461
 8739SOL    HW228057   2.377   3.093   1.341
 8740SOL     OW28058   4.934  10.540   9.668
 8740SOL    HW128059   4.971  10.498   9.746
 8740SOL    HW228060   4.996  10.519   9.598
 8741SOL     OW28061   5.313   3.629   0.489
 8741SOL    HW128062   5.240   3.578   0.524
 8741SOL    HW228063   5.271   3.706   0.450
 8742SOL     OW28064   9.576   7.451  10.377
 8742SOL    HW128065   9.588   7.522  10.440
 8742SOL    HW228066   9.653   7.456  10.320
 8743SOL     OW28067  11.270   0.095   4.657
 8743SOL    HW128068  11.193   0.068   4.707
 8743SOL    HW228069  11.240   0.103   4.567
 8744SOL     OW28070  10.032  12.372   3.193
 8744SOL    HW128071  10.007  12.296   3.141
 8744SOL    HW228072  10.073  12.335   3.271
 8745SOL     OW28073   9.409  11.084   4.992
 8745SOL    HW128074   9.358  11.154   4.950
 8745SOL    HW228075   9.475  11.130   5.044
 8746SOL     OW28076  12.052  10.541   2.259
 8746SOL    HW128077  12.074  10.627   2.297
 8746SOL    HW228078  12.011  10.494   2.332
 8747SOL     OW28079  12.721  14.424   1.894
 8747SOL    HW128080  12.701  14.355   1.830
 8747SOL    HW228081  12.802  14.395   1.936
 8748SOL     OW28082  12.483   5.840   3.072
 8748SOL    HW128083  12.516   5.930   3.072
 8748SOL    HW228084  12.388   5.850   3.083
 8749SOL     OW28085   7.843  11.262   6.099
 8749SOL    HW128086   7.756  11.302   6.105
 8749SOL    HW228087   7.904  11.333   6.120
 8750SOL     OW28088   1.426   1.232   2.028
 8750SOL    HW128089   1.429   1.198   1.939
 8750SOL    HW228090   1.398   1.158   2.081
 8751SOL     OW28091   7.908   1.710   8.424
 8751SOL    HW128092   7.977   1.753   8.474
 8751SOL    HW228093   7.894   1.626   8.469
 8752SOL     OW28094   6.176  10.938  14.466
 8752SOL    HW128095   6.192  10.912  14.557
 8752SOL    HW228096   6.105  11.002  14.472
 8753SOL     OW28097  13.195   8.216  12.611
 8753SOL    HW128098  13.217   8.260  12.693
 8753SOL    HW228099  13.277   8.176  12.582
 8754SOL     OW28100  10.882   5.534  14.551
 8754SOL    HW128101  10.915   5.617  14.584
 8754SOL    HW228102  10.788   5.548  14.541
 8755SOL     OW28103  11.279  12.796  14.567
 8755SOL    HW128104  11.329  12.871  14.534
 8755SOL    HW228105  11.266  12.814  14.660
 8756SOL     OW28106   2.316   6.243   1.687
 8756SOL    HW128107   2.293   6.317   1.632
 8756SOL    HW228108   2.234   6.216   1.728
 8757SOL     OW28109   7.266   0.568   5.414
 8757SOL    HW128110   7.274   0.663   5.422
 8757SOL    HW228111   7.342   0.533   5.460
 8758SOL     OW28112  14.433   7.439   1.523
 8758SOL    HW128113  14.499   7.385   1.480
 8758SOL    HW228114  14.373   7.464   1.453
 8759SOL     OW28115  14.212   9.936  14.014
 8759SOL    HW128116  14.127   9.895  13.995
 8759SOL    HW228117  14.220  10.006  13.949
 8760SOL     OW28118  14.583   4.366   6.496
 8760SOL    HW128119  14.508   4.410   6.536
 8760SOL    HW228120  14.601   4.416   6.417
 8761SOL     OW28121   2.093   6.727   8.893
 8761SOL    HW128122   2.106   6.632   8.905
 8761SOL    HW228123   2.109   6.764   8.980
 8762SOL     OW28124  13.295   7.605   5.868
 8762SOL    HW128125  13.238   7.664   5.916
 8762SOL    HW228126  13.343   7.556   5.935
 8763SOL     OW28127   0.432   5.442  10.150
 8763SOL    HW128128   0.501   5.386  10.114
 8763SOL    HW228129   0.468   5.531  10.144
 8764SOL     OW28130  13.045   7.286   7.658
 8764SOL    HW128131  13.000   7.368   7.638
 8764SOL    HW228132  12.979   7.218   7.642
 8765SOL     OW28133   0.916   1.820   8.289
 8765SOL    HW128134   0.856   1.845   8.359
 8765SOL    HW228135   0.974   1.896   8.280
 8766SOL     OW28136   6.213   0.358  10.339
 8766SOL    HW128137   6.178   0.436  10.298
 8766SOL    HW228138   6.249   0.306  10.267
 8767SOL     OW28139  13.261  14.081   1.355
 8767SOL    HW128140  13.280  14.001   1.307
 8767SOL    HW228141  13.219  14.138   1.292
 8768SOL     OW28142  11.615   1.166   9.515
 8768SOL    HW128143  11.637   1.092   9.458
 8768SOL    HW228144  11.666   1.151   9.594
 8769SOL     OW28145  11.628   1.379   1.932
 8769SOL    HW128146  11.567   1.433   1.882
 8769SOL    HW228147  11.649   1.431   2.009
 8770SOL     OW28148   0.274   7.617  14.115
 8770SOL    HW128149   0.187   7.656  14.115
 8770SOL    HW228150   0.315   7.650  14.035
 8771SOL     OW28151   7.714  13.897   2.188
 8771SOL    HW128152   7.681  13.935   2.107
 8771SOL    HW228153   7.711  13.802   2.173
 8772SOL     OW28154  12.559  12.036  10.610
 8772SOL    HW128155  12.647  11.998  10.602
 8772SOL    HW228156  12.520  11.990  10.685
 8773SOL     OW28157   7.709   5.395  11.358
 8773SOL    HW128158   7.679   5.485  11.347
 8773SOL    HW228159   7.638   5.342  11.321
 8774SOL     OW28160  14.514   1.795   4.316
 8774SOL    HW128161  14.523   1.864   4.250
 8774SOL    HW228162  14.420   1.778   4.319
 8775SOL     OW28163   2.224   9.947   9.020
 8775SOL    HW128164   2.306   9.995   9.036
 8775SOL    HW228165   2.199   9.972   8.931
 8776SOL     OW28166   6.854   6.677  13.969
 8776SOL    HW128167   6.932   6.702  14.018
 8776SOL    HW228168   6.781   6.709  14.023
 8777SOL     OW28169   4.447  11.589  13.012
 8777SOL    HW128170   4.428  11.553  12.925
 8777SOL    HW228171   4.389  11.665  13.019
 8778SOL     OW28172  11.698   1.720  10.988
 8778SOL    HW128173  11.655   1.805  10.988
 8778SOL    HW228174  11.707   1.697  10.895
 8779SOL     OW28175   1.451  13.582  10.043
 8779SOL    HW128176   1.474  13.527   9.968
 8779SOL    HW228177   1.438  13.669  10.006
 8780SOL     OW28178   2.818  11.320  10.027
 8780SOL    HW128179   2.838  11.342   9.936
 8780SOL    HW228180   2.787  11.230  10.025
 8781SOL     OW28181  11.835  11.140  11.082
 8781SOL    HW128182  11.863  11.106  10.997
 8781SOL    HW228183  11.743  11.113  11.090
 8782SOL     OW28184   7.740   2.152  11.966
 8782SOL    HW128185   7.731   2.124  12.057
 8782SOL    HW228186   7.828   2.122  11.941
 8783SOL     OW28187  10.029   6.865  14.472
 8783SOL    HW128188  10.093   6.936  14.471
 8783SOL    HW228189   9.945   6.909  14.453
 8784SOL     OW28190   0.503   2.785   9.405
 8784SOL    HW128191   0.484   2.816   9.493
 8784SOL    HW228192   0.494   2.862   9.350
 8785SOL     OW28193   5.335   0.098  10.149
 8785SOL    HW128194   5.249   0.070  10.120
 8785SOL    HW228195   5.319   0.175  10.204
 8786SOL     OW28196   8.743   0.084   4.240
 8786SOL    HW128197   8.787   0.006   4.275
 8786SOL    HW228198   8.736   0.068   4.146
 8787SOL     OW28199   2.390   7.402   6.377
 8787SOL    HW128200   2.306   7.424   6.336
 8787SOL    HW228201   2.385   7.441   6.464
 8788SOL     OW28202   5.035   8.166   9.375
 8788SOL    HW128203   5.040   8.120   9.291
 8788SOL    HW228204   5.009   8.098   9.437
 8789SOL     OW28205  10.167   0.409  13.194
 8789SOL    HW128206  10.097   0.345  13.205
 8789SOL    HW228207  10.151   0.448  13.108
 8790SOL     OW28208   5.821  10.832  11.664
 8790SOL    HW128209   5.766  10.910  11.664
 8790SOL    HW228210   5.762  10.761  11.687
 8791SOL     OW28211   0.989   7.587   6.088
 8791SOL    HW128212   1.032   7.648   6.147
 8791SOL    HW228213   0.907   7.564   6.133
 8792SOL     OW28214  13.061   7.338   0.613
 8792SOL    HW128215  13.059   7.308   0.704
 8792SOL    HW228216  13.151   7.320   0.584
 8793SOL     OW28217   4.834   8.680  11.853
 8793SOL    HW128218   4.790   8.743  11.796
 8793SOL    HW228219   4.866   8.732  11.927
 8794SOL     OW28220   0.911   2.243   4.257
 8794SOL    HW128221   0.884   2.290   4.336
 8794SOL    HW228222   0.987   2.192   4.285
 8795SOL     OW28223  13.768  11.624  10.780
 8795SOL    HW128224  13.763  11.675  10.699
 8795SOL    HW228225  13.860  11.626  10.804
 8796SOL     OW28226  11.915   3.610   3.809
 8796SOL    HW128227  11.998   3.604   3.857
 8796SOL    HW228228  11.854   3.647   3.873
 8797SOL     OW28229   4.435   5.149  12.583
 8797SOL    HW128230   4.412   5.229  12.631
 8797SOL    HW228231   4.355   5.096  12.586
 8798SOL     OW28232   5.867   3.689   1.199
 8798SOL    HW128233   5.787   3.690   1.146
 8798SOL    HW228234   5.885   3.596   1.212
 8799SOL     OW28235  11.644   1.680   4.538
 8799SOL    HW128236  11.734   1.693   4.509
 8799SOL    HW228237  11.635   1.737   4.615
 8800SOL     OW28238  14.820   2.736   6.018
 8800SOL    HW128239   0.024   2.746   5.973
 8800SOL    HW228240  14.762   2.696   5.953
 8801SOL     OW28241  11.841   1.221   3.949
 8801SOL    HW128242  11.860   1.185   3.863
 8801SOL    HW228243  11.771   1.164   3.984
 8802SOL     OW28244   8.217   4.306  11.206
 8802SOL    HW128245   8.231   4.254  11.286
 8802SOL    HW228246   8.271   4.384  11.220
 8803SOL     OW28247   9.179   0.474   9.050
 8803SOL    HW128248   9.271   0.472   9.076
 8803SOL    HW228249   9.137   0.533   9.112
 8804SOL     OW28250   9.480   3.388   9.244
 8804SOL    HW128251   9.487   3.342   9.328
 8804SOL    HW228252   9.394   3.364   9.210
 8805SOL     OW28253  11.627  11.815   3.079
 8805SOL    HW128254  11.606  11.779   2.993
 8805SOL    HW228255  11.667  11.900   3.060
 8806SOL     OW28256  14.440  10.425   6.078
 8806SOL    HW128257  14.402  10.395   6.161
 8806SOL    HW228258  14.481  10.347   6.041
 8807SOL     OW28259   4.247   7.794  13.007
 8807SOL    HW128260   4.168   7.747  12.980
 8807SOL    HW228261   4.304   7.789  12.930
 8808SOL     OW28262   0.448  10.916  13.458
 8808SOL    HW128263   0.502  10.992  13.435
 8808SOL    HW228264   0.484  10.845  13.405
 8809SOL     OW28265  13.045  10.927  11.732
 8809SOL    HW128266  13.120  10.943  11.675
 8809SOL    HW228267  13.023  11.013  11.767
 8810SOL     OW28268  12.196  14.298   7.299
 8810SOL    HW128269  12.192  14.235   7.371
 8810SOL    HW228270  12.106  14.304   7.268
 8811SOL     OW28271  10.021   8.389  10.381
 8811SOL    HW128272   9.967   8.406  10.304
 8811SOL    HW228273   9.967   8.331  10.436
 8812SOL     OW28274   1.980  10.377   7.560
 8812SOL    HW128275   2.063  10.423   7.569
 8812SOL    HW228276   1.962  10.379   7.466
 8813SOL     OW28277   9.953  12.410  12.766
 8813SOL    HW128278   9.977  12.321  12.739
 8813SOL    HW228279   9.987  12.419  12.855
 8814SOL     OW28280   4.053  13.858   2.747
 8814SOL    HW128281   3.998  13.896   2.816
 8814SOL    HW228282   4.134  13.908   2.752
 8815SOL     OW28283   9.559  10.191   3.484
 8815SOL    HW128284   9.643  10.192   3.530
 8815SOL    HW228285   9.578  10.227   3.398
 8816SOL     OW28286   7.143   7.657   4.840
 8816SOL    HW128287   7.221   7.621   4.796
 8816SOL    HW228288   7.073   7.648   4.776
 8817SOL     OW28289  14.625  14.869   1.338
 8817SOL    HW128290  14.553  14.870   1.275
 8817SOL    HW228291  14.583  14.863   1.424
 8818SOL     OW28292   1.674   2.198   3.064
 8818SOL    HW128293   1.758   2.198   3.018
 8818SOL    HW228294   1.696   2.228   3.152
 8819SOL     OW28295   1.328  11.556   5.553
 8819SOL    HW128296   1.312  11.499   5.629
 8819SOL    HW228297   1.243  11.597   5.535
 8820SOL     OW28298   2.485   0.744  14.737
 8820SOL    HW128299   2.426   0.771  14.666
 8820SOL    HW228300   2.442   0.775  14.817
 8821SOL     OW28301  10.176  10.291   1.195
 8821SOL    HW128302  10.225  10.217   1.159
 8821SOL    HW228303  10.151  10.263   1.283
 8822SOL     OW28304   6.907   7.366   1.613
 8822SOL    HW128305   6.947   7.297   1.560
 8822SOL    HW228306   6.884   7.323   1.695
 8823SOL     OW28307   5.253  11.014   9.008
 8823SOL    HW128308   5.256  11.088   9.069
 8823SOL    HW228309   5.280  10.939   9.061
 8824SOL     OW28310  11.851   3.576   0.361
 8824SOL    HW128311  11.777   3.636   0.351
 8824SOL    HW228312  11.911   3.622   0.419
 8825SOL     OW28313  11.700   0.338   5.638
 8825SOL    HW128314  11.796   0.339   5.630
 8825SOL    HW228315  11.671   0.287   5.562
 8826SOL     OW28316   2.481  11.664   4.204
 8826SOL    HW128317   2.560  11.691   4.159
 8826SOL    HW228318   2.454  11.583   4.160
 8827SOL     OW28319   0.175   5.851  12.364
 8827SOL    HW128320   0.244   5.914  12.384
 8827SOL    HW228321   0.158   5.862  12.271
 8828SOL     OW28322   5.869   9.487  12.879
 8828SOL    HW128323   5.805   9.519  12.816
 8828SOL    HW228324   5.827   9.412  12.920
 8829SOL     OW28325   7.531   1.868  12.698
 8829SOL    HW128326   7.557   1.812  12.770
 8829SOL    HW228327   7.438   1.883  12.711
 8830SOL     OW28328  11.621  14.214  14.036
 8830SOL    HW128329  11.614  14.234  14.129
 8830SOL    HW228330  11.576  14.287  13.993
 8831SOL     OW28331   7.581   8.772   5.834
 8831SOL    HW128332   7.500   8.733   5.866
 8831SOL    HW228333   7.561   8.799   5.744
 8832SOL     OW28334   2.047   1.457   3.229
 8832SOL    HW128335   1.975   1.404   3.262
 8832SOL    HW228336   2.119   1.440   3.290
 8833SOL     OW28337   7.093   4.440  10.038
 8833SOL    HW128338   7.120   4.348  10.037
 8833SOL    HW228339   7.021   4.442  10.101
 8834SOL     OW28340  12.536  12.760   1.927
 8834SOL    HW128341  12.556  12.668   1.910
 8834SOL    HW228342  12.447  12.759   1.961
 8835SOL     OW28343  14.572   1.423   5.729
 8835SOL    HW128344  14.618   1.380   5.656
 8835SOL    HW228345  14.560   1.513   5.701
 8836SOL     OW28346   4.293   7.178   0.406
 8836SOL    HW128347   4.363   7.242   0.421
 8836SOL    HW228348   4.340   7.095   0.396
 8837SOL     OW28349   9.701  12.657  12.924
 8837SOL    HW128350   9.678  12.585  12.865
 8837SOL    HW228351   9.757  12.616  12.991
 8838SOL     OW28352   5.407   1.103  13.179
 8838SOL    HW128353   5.343   1.087  13.110
 8838SOL    HW228354   5.401   1.197  13.196
 8839SOL     OW28355   5.424   3.416   6.834
 8839SOL    HW128356   5.486   3.376   6.896
 8839SOL    HW228357   5.433   3.364   6.755
 8840SOL     OW28358   9.615  12.351   7.709
 8840SOL    HW128359   9.630  12.324   7.800
 8840SOL    HW228360   9.625  12.446   7.711
 8841SOL     OW28361  11.611   0.130  11.824
 8841SOL    HW128362  11.564   0.056  11.784
 8841SOL    HW228363  11.702   0.115  11.800
 8842SOL     OW28364  11.414   1.054   8.672
 8842SOL    HW128365  11.376   1.103   8.599
 8842SOL    HW228366  11.380   0.965   8.663
 8843SOL     OW28367   6.618   0.639   2.507
 8843SOL    HW128368   6.599   0.732   2.500
 8843SOL    HW228369   6.711   0.635   2.532
 8844SOL     OW28370  10.394   0.322   7.877
 8844SOL    HW128371  10.360   0.394   7.930
 8844SOL    HW228372  10.319   0.263   7.866
 8845SOL     OW28373   8.738   0.741   6.263
 8845SOL    HW128374   8.772   0.665   6.215
 8845SOL    HW228375   8.780   0.816   6.223
 8846SOL     OW28376   0.697   7.039   0.482
 8846SOL    HW128377   0.775   7.021   0.430
 8846SOL    HW228378   0.731   7.067   0.567
 8847SOL     OW28379  11.755   7.221   5.265
 8847SOL    HW128380  11.769   7.185   5.177
 8847SOL    HW228381  11.771   7.147   5.324
 8848SOL     OW28382   2.263   7.986  12.235
 8848SOL    HW128383   2.241   7.963  12.144
 8848SOL    HW228384   2.359   7.988  12.236
 8849SOL     OW28385  14.719   6.156   6.313
 8849SOL    HW128386  14.760   6.187   6.394
 8849SOL    HW228387  14.791   6.121   6.262
 8850SOL     OW28388   7.966  11.555  10.529
 8850SOL    HW128389   8.004  11.512  10.452
 8850SOL    HW228390   7.880  11.586  10.499
 8851SOL     OW28391   9.618  13.732   9.402
 8851SOL    HW128392   9.661  13.767   9.324
 8851SOL    HW228393   9.575  13.807   9.442
 8852SOL     OW28394  14.308   0.827   8.208
 8852SOL    HW128395  14.372   0.791   8.271
 8852SOL    HW228396  14.357   0.894   8.160
 8853SOL     OW28397   9.556   9.282   8.729
 8853SOL    HW128398   9.466   9.314   8.741
 8853SOL    HW228399   9.585   9.259   8.817
 8854SOL     OW28400  12.112   6.828  14.364
 8854SOL    HW128401  12.108   6.843  14.458
 8854SOL    HW228402  12.205   6.828  14.343
 8855SOL     OW28403   0.368   1.486  11.143
 8855SOL    HW128404   0.326   1.520  11.222
 8855SOL    HW228405   0.296   1.472  11.081
 8856SOL     OW28406   7.141  11.788   9.329
 8856SOL    HW128407   7.186  11.872   9.327
 8856SOL    HW228408   7.129  11.764   9.237
 8857SOL     OW28409  12.767   6.755   9.978
 8857SOL    HW128410  12.706   6.685   9.956
 8857SOL    HW228411  12.792   6.737  10.068
 8858SOL     OW28412   3.976  12.881   9.303
 8858SOL    HW128413   3.992  12.968   9.339
 8858SOL    HW228414   3.882  12.879   9.286
 8859SOL     OW28415   0.553   1.095   1.451
 8859SOL    HW128416   0.546   1.163   1.518
 8859SOL    HW228417   0.478   1.110   1.393
 8860SOL     OW28418   8.794  12.705  11.561
 8860SOL    HW128419   8.851  12.642  11.603
 8860SOL    HW228420   8.850  12.782  11.546
 8861SOL     OW28421   1.730   2.234  13.521
 8861SOL    HW128422   1.714   2.160  13.462
 8861SOL    HW228423   1.787   2.292  13.471
 8862SOL     OW28424  10.032   5.135  10.689
 8862SOL    HW128425  10.098   5.081  10.732
 8862SOL    HW228426  10.060   5.138  10.597
 8863SOL     OW28427  12.599   7.694  12.331
 8863SOL    HW128428  12.519   7.727  12.290
 8863SOL    HW228429  12.669   7.747  12.294
 8864SOL     OW28430   6.073  11.371   3.675
 8864SOL    HW128431   6.054  11.326   3.593
 8864SOL    HW228432   5.993  11.361   3.727
 8865SOL     OW28433  14.102   5.925   1.747
 8865SOL    HW128434  14.089   6.012   1.708
 8865SOL    HW228435  14.077   5.936   1.839
 8866SOL     OW28436   5.030   0.746   3.262
 8866SOL    HW128437   5.102   0.798   3.226
 8866SOL    HW228438   4.973   0.810   3.304
 8867SOL     OW28439   9.321   2.713  14.485
 8867SOL    HW128440   9.336   2.694  14.577
 8867SOL    HW228441   9.390   2.774  14.461
 8868SOL     OW28442   1.749   8.660  10.758
 8868SOL    HW128443   1.707   8.676  10.843
 8868SOL    HW228444   1.712   8.577  10.729
 8869SOL     OW28445   0.254   3.680   8.144
 8869SOL    HW128446   0.281   3.595   8.180
 8869SOL    HW228447   0.301   3.686   8.061
 8870SOL     OW28448   8.429   9.316   5.437
 8870SOL    HW128449   8.335   9.331   5.428
 8870SOL    HW228450   8.463   9.315   5.347
 8871SOL     OW28451   2.151   1.533  11.166
 8871SOL    HW128452   2.204   1.520  11.245
 8871SOL    HW228453   2.065   1.559  11.199
 8872SOL     OW28454  11.590  14.009   4.786
 8872SOL    HW128455  11.673  14.056   4.778
 8872SOL    HW228456  11.524  14.078   4.796
 8873SOL     OW28457  10.765   1.043   4.017
 8873SOL    HW128458  10.697   0.989   3.977
 8873SOL    HW228459  10.834   1.047   3.951
 8874SOL     OW28460   4.983   3.403   7.819
 8874SOL    HW128461   4.908   3.417   7.877
 8874SOL    HW228462   5.043   3.348   7.870
 8875SOL     OW28463   3.906   2.449  12.253
 8875SOL    HW128464   4.002   2.446  12.251
 8875SOL    HW228465   3.879   2.357  12.242
 8876SOL     OW28466  14.029   2.121   1.507
 8876SOL    HW128467  13.956   2.062   1.488
 8876SOL    HW228468  13.989   2.192   1.558
 8877SOL     OW28469   6.391  10.081  13.287
 8877SOL    HW128470   6.431  10.022  13.351
 8877SOL    HW228471   6.330  10.134  13.338
 8878SOL     OW28472   3.427   8.441  11.358
 8878SOL    HW128473   3.505   8.482  11.321
 8878SOL    HW228474   3.450   8.348  11.366
 8879SOL     OW28475   0.956   7.823   2.667
 8879SOL    HW128476   0.929   7.915   2.671
 8879SOL    HW228477   0.950   7.800   2.574
 8880SOL     OW28478   4.786   8.787   1.734
 8880SOL    HW128479   4.764   8.863   1.790
 8880SOL    HW228480   4.847   8.823   1.669
 8881SOL     OW28481  14.077   5.207   4.633
 8881SOL    HW128482  14.052   5.224   4.724
 8881SOL    HW228483  13.994   5.198   4.586
 8882SOL     OW28484  13.478   2.489   6.957
 8882SOL    HW128485  13.497   2.582   6.946
 8882SOL    HW228486  13.541   2.445   6.900
 8883SOL     OW28487  13.181   4.717  14.509
 8883SOL    HW128488  13.194   4.624  14.491
 8883SOL    HW228489  13.269   4.750  14.525
 8884SOL     OW28490   5.848   4.637   5.160
 8884SOL    HW128491   5.895   4.554   5.171
 8884SOL    HW228492   5.829   4.642   5.067
 8885SOL     OW28493   0.382   8.760   2.676
 8885SOL    HW128494   0.412   8.674   2.648
 8885SOL    HW228495   0.293   8.746   2.707
 8886SOL     OW28496  11.178   7.943  13.701
 8886SOL    HW128497  11.216   7.861  13.668
 8886SOL    HW228498  11.085   7.923  13.712
 8887SOL     OW28499   7.506  13.905  10.862
 8887SOL    HW128500   7.446  13.955  10.917
 8887SOL    HW228501   7.453  13.833  10.827
 8888SOL     OW28502   6.939   1.181   7.220
 8888SOL    HW128503   6.931   1.175   7.125
 8888SOL    HW228504   7.011   1.242   7.234
 8889SOL     OW28505  13.862  14.815  11.058
 8889SOL    HW128506  13.883   0.028  11.063
 8889SOL    HW228507  13.820  14.803  10.973
 8890SOL     OW28508  14.291   4.624   4.707
 8890SOL    HW128509  14.318   4.700   4.759
 8890SOL    HW228510  14.234   4.574   4.765
 8891SOL     OW28511  12.518  13.286   7.482
 8891SOL    HW128512  12.424  13.282   7.498
 8891SOL    HW228513  12.526  13.321   7.393
 8892SOL     OW28514  10.663   5.988  13.266
 8892SOL    HW128515  10.589   5.926  13.273
 8892SOL    HW228516  10.666   6.031  13.352
 8893SOL     OW28517   1.436   8.070   1.680
 8893SOL    HW128518   1.418   8.097   1.590
 8893SOL    HW228519   1.355   8.028   1.709
 8894SOL     OW28520   4.211   3.826   2.779
 8894SOL    HW128521   4.179   3.836   2.869
 8894SOL    HW228522   4.295   3.872   2.778
 8895SOL     OW28523   0.471   0.446   5.749
 8895SOL    HW128524   0.553   0.438   5.700
 8895SOL    HW228525   0.414   0.498   5.692
 8896SOL     OW28526   6.691   0.848   8.413
 8896SOL    HW128527   6.763   0.823   8.355
 8896SOL    HW228528   6.640   0.768   8.423
 8897SOL     OW28529  14.551  11.587   2.698
 8897SOL    HW128530  14.489  11.648   2.658
 8897SOL    HW228531  14.512  11.565   2.782
 8898SOL     OW28532   0.857   5.545  11.263
 8898SOL    HW128533   0.819   5.470  11.309
 8898SOL    HW228534   0.798   5.618  11.283
 8899SOL     OW28535  14.450  13.586   0.494
 8899SOL    HW128536  14.379  13.566   0.555
 8899SOL    HW228537  14.424  13.541   0.413
 8900SOL     OW28538  14.546   4.414   9.429
 8900SOL    HW128539  14.451   4.416   9.419
 8900SOL    HW228540  14.560   4.420   9.523
 8901SOL     OW28541   7.388  12.537  14.562
 8901SOL    HW128542   7.425  12.492  14.486
 8901SOL    HW228543   7.446  12.612  14.576
 8902SOL     OW28544   4.412   3.744   3.577
 8902SOL    HW128545   4.353   3.811   3.612
 8902SOL    HW228546   4.364   3.709   3.501
 8903SOL     OW28547   7.201   7.107  11.473
 8903SOL    HW128548   7.291   7.096  11.505
 8903SOL    HW228549   7.146   7.070  11.542
 8904SOL     OW28550  11.969  13.307   6.506
 8904SOL    HW128551  12.054  13.304   6.462
 8904SOL    HW228552  11.905  13.296   6.435
 8905SOL     OW28553   1.065   1.966  10.504
 8905SOL    HW128554   1.043   1.929  10.590
 8905SOL    HW228555   1.146   2.014  10.519
 8906SOL     OW28556   5.647   4.076   7.787
 8906SOL    HW128557   5.740   4.059   7.793
 8906SOL    HW228558   5.633   4.155   7.840
 8907SOL     OW28559  14.040   3.252   6.635
 8907SOL    HW128560  14.077   3.292   6.714
 8907SOL    HW228561  14.000   3.171   6.666
 8908SOL     OW28562  14.834   6.005   0.180
 8908SOL    HW128563  14.837   5.911   0.195
 8908SOL    HW228564   0.021   6.021   0.112
 8909SOL     OW28565   7.454   9.354   2.419
 8909SOL    HW128566   7.522   9.421   2.421
 8909SOL    HW228567   7.371   9.403   2.417
 8910SOL     OW28568  11.752   6.277   2.479
 8910SOL    HW128569  11.662   6.257   2.451
 8910SOL    HW228570  11.780   6.198   2.526
 8911SOL     OW28571   5.741  13.788   3.557
 8911SOL    HW128572   5.748  13.819   3.467
 8911SOL    HW228573   5.646  13.784   3.574
 8912SOL     OW28574  11.882   8.358   9.000
 8912SOL    HW128575  11.974   8.381   9.015
 8912SOL    HW228576  11.867   8.378   8.907
 8913SOL     OW28577   5.959   6.091  10.758
 8913SOL    HW128578   5.986   6.021  10.818
 8913SOL    HW228579   5.997   6.170  10.796
 8914SOL     OW28580   6.740   3.836   0.321
 8914SOL    HW128581   6.776   3.904   0.378
 8914SOL    HW228582   6.656   3.871   0.292
 8915SOL     OW28583   8.858  10.538   3.725
 8915SOL    HW128584   8.791  10.605   3.711
 8915SOL    HW228585   8.871  10.537   3.820
 8916SOL     OW28586   2.574   1.289   2.490
 8916SOL    HW128587   2.535   1.334   2.416
 8916SOL    HW228588   2.613   1.359   2.543
 8917SOL     OW28589   3.901   2.306   6.174
 8917SOL    HW128590   3.843   2.235   6.148
 8917SOL    HW228591   3.935   2.280   6.260
 8918SOL     OW28592  12.207   7.288   9.717
 8918SOL    HW128593  12.240   7.203   9.746
 8918SOL    HW228594  12.197   7.278   9.622
 8919SOL     OW28595   6.486   1.273   2.747
 8919SOL    HW128596   6.415   1.220   2.784
 8919SOL    HW228597   6.506   1.337   2.815
 8920SOL     OW28598  11.661   3.770   0.220
 8920SOL    HW128599  11.573   3.788   0.187
 8920SOL    HW228600  11.678   3.840   0.283
 8921SOL     OW28601   2.841  11.232   3.295
 8921SOL    HW128602   2.805  11.175   3.363
 8921SOL    HW228603   2.822  11.187   3.213
 8922SOL     OW28604   5.948   4.043   4.863
 8922SOL    HW128605   5.859   4.023   4.834
 8922SOL    HW228606   5.966   3.979   4.932
 8923SOL     OW28607  14.445   8.387   4.689
 8923SOL    HW128608  14.370   8.401   4.748
 8923SOL    HW228609  14.411   8.329   4.621
 8924SOL     OW28610  14.685   5.457   1.380
 8924SOL    HW128611  14.700   5.412   1.296
 8924SOL    HW228612  14.768   5.447   1.427
 8925SOL     OW28613  14.724   3.435   3.576
 8925SOL    HW128614  14.630   3.436   3.590
 8925SOL    HW228615  14.756   3.515   3.617
 8926SOL     OW28616   5.455   4.785  12.037
 8926SOL    HW128617   5.451   4.844  11.962
 8926SOL    HW228618   5.426   4.700  12.002
 8927SOL     OW28619   9.055  13.524  14.218
 8927SOL    HW128620   9.029  13.545  14.308
 8927SOL    HW228621   8.991  13.460  14.188
 8928SOL     OW28622   6.017   7.187  14.660
 8928SOL    HW128623   5.936   7.139  14.642
 8928SOL    HW228624   6.075   7.122  14.700
 8929SOL     OW28625   7.434  12.995   8.543
 8929SOL    HW128626   7.350  12.999   8.587
 8929SOL    HW228627   7.492  12.952   8.606
 8930SOL     OW28628   5.205   3.232   7.212
 8930SOL    HW128629   5.118   3.273   7.209
 8930SOL    HW228630   5.230   3.222   7.121
 8931SOL     OW28631   5.447  11.525   9.312
 8931SOL    HW128632   5.516  11.500   9.250
 8931SOL    HW228633   5.366  11.515   9.263
 8932SOL     OW28634  10.081   4.470   2.441
 8932SOL    HW128635  10.112   4.421   2.365
 8932SOL    HW228636  10.152   4.532   2.460
 8933SOL     OW28637  12.611   0.265   8.174
 8933SOL    HW128638  12.595   0.205   8.247
 8933SOL    HW228639  12.602   0.211   8.096
 8934SOL     OW28640   6.666   3.977  14.471
 8934SOL    HW128641   6.719   4.019  14.538
 8934SOL    HW228642   6.614   4.048  14.433
 8935SOL     OW28643  14.614   0.534   9.122
 8935SOL    HW128644  14.639   0.525   9.214
 8935SOL    HW228645  14.620   0.628   9.104
 8936SOL     OW28646   6.884  10.979   0.495
 8936SOL    HW128647   6.925  10.992   0.581
 8936SOL    HW228648   6.805  10.929   0.513
 8937SOL     OW28649  14.658  12.982   8.456
 8937SOL    HW128650  14.603  12.922   8.406
 8937SOL    HW228651  14.652  13.065   8.408
 8938SOL     OW28652  14.721   4.380  12.466
 8938SOL    HW128653  14.670   4.407  12.544
 8938SOL    HW228654  14.721   4.458  12.411
 8939SOL     OW28655   8.091   5.006   0.751
 8939SOL    HW128656   8.146   5.032   0.678
 8939SOL    HW228657   8.137   4.932   0.790
 8940SOL     OW28658   6.245   2.488  11.517
 8940SOL    HW128659   6.203   2.408  11.547
 8940SOL    HW228660   6.336   2.463  11.501
 8941SOL     OW28661   8.144  10.228   0.616
 8941SOL    HW128662   8.157  10.156   0.554
 8941SOL    HW228663   8.086  10.289   0.570
 8942SOL     OW28664   6.752   9.593   6.335
 8942SOL    HW128665   6.824   9.547   6.290
 8942SOL    HW228666   6.786   9.681   6.350
 8943SOL     OW28667   4.605  12.711   0.752
 8943SOL    HW128668   4.639  12.635   0.706
 8943SOL    HW228669   4.518  12.724   0.716
 8944SOL     OW28670  10.353  11.516   5.418
 8944SOL    HW128671  10.404  11.594   5.398
 8944SOL    HW228672  10.390  11.448   5.361
 8945SOL     OW28673   6.897   3.531   2.055
 8945SOL    HW128674   6.877   3.624   2.048
 8945SOL    HW228675   6.834   3.498   2.120
 8946SOL     OW28676   5.993   5.108   5.392
 8946SOL    HW128677   5.933   5.034   5.394
 8946SOL    HW228678   6.028   5.109   5.303
 8947SOL     OW28679   6.620  10.436   2.247
 8947SOL    HW128680   6.704  10.447   2.203
 8947SOL    HW228681   6.561  10.495   2.201
 8948SOL     OW28682  14.200   4.066   8.461
 8948SOL    HW128683  14.285   4.023   8.464
 8948SOL    HW228684  14.136   3.995   8.467
 8949SOL     OW28685   6.934   9.170  14.301
 8949SOL    HW128686   7.012   9.178  14.356
 8949SOL    HW228687   6.861   9.191  14.359
 8950SOL     OW28688   5.731  14.261   7.597
 8950SOL    HW128689   5.774  14.318   7.660
 8950SOL    HW228690   5.799  14.241   7.532
 8951SOL     OW28691   2.904   9.121   3.870
 8951SOL    HW128692   2.865   9.034   3.873
 8951SOL    HW228693   2.842   9.174   3.821
 8952SOL     OW28694   8.392  10.600   8.726
 8952SOL    HW128695   8.454  10.582   8.656
 8952SOL    HW228696   8.328  10.529   8.721
 8953SOL     OW28697  13.919   2.256  13.833
 8953SOL    HW128698  13.924   2.350  13.850
 8953SOL    HW228699  13.826   2.238  13.824
 8954SOL     OW28700   4.278   4.290  12.690
 8954SOL    HW128701   4.303   4.312  12.780
 8954SOL    HW228702   4.315   4.360  12.636
 8955SOL     OW28703   5.062  13.278  14.382
 8955SOL    HW128704   5.062  13.191  14.342
 8955SOL    HW228705   4.973  13.310  14.370
 8956SOL     OW28706   7.809  12.885   7.205
 8956SOL    HW128707   7.723  12.910   7.239
 8956SOL    HW228708   7.844  12.966   7.166
 8957SOL     OW28709  14.740   1.861   1.605
 8957SOL    HW128710  14.684   1.928   1.565
 8957SOL    HW228711  14.789   1.909   1.673
 8958SOL     OW28712  12.569  10.742   6.814
 8958SOL    HW128713  12.478  10.739   6.845
 8958SOL    HW228714  12.580  10.661   6.764
 8959SOL     OW28715  11.546   9.606   1.914
 8959SOL    HW128716  11.583   9.655   1.988
 8959SOL    HW228717  11.623   9.577   1.864
 8960SOL     OW28718  13.933   5.678  13.218
 8960SOL    HW128719  13.915   5.657  13.126
 8960SOL    HW228720  14.022   5.714  13.217
 8961SOL     OW28721   3.353   9.419  13.367
 8961SOL    HW128722   3.364   9.351  13.434
 8961SOL    HW228723   3.258   9.431  13.361
 8962SOL     OW28724  10.397   5.033  13.818
 8962SOL    HW128725  10.304   5.052  13.803
 8962SOL    HW228726  10.437   5.040  13.731
 8963SOL     OW28727   8.393  12.289   6.597
 8963SOL    HW128728   8.410  12.308   6.504
 8963SOL    HW228729   8.429  12.365   6.643
 8964SOL     OW28730  13.767   5.421   1.172
 8964SOL    HW128731  13.858   5.419   1.140
 8964SOL    HW228732  13.742   5.513   1.168
 8965SOL     OW28733  10.959   3.921   7.344
 8965SOL    HW128734  10.941   3.888   7.256
 8965SOL    HW228735  10.943   4.015   7.338
 8966SOL     OW28736   2.991   3.918  12.011
 8966SOL    HW128737   3.076   3.941  11.974
 8966SOL    HW228738   2.937   3.996  11.996
 8967SOL     OW28739   6.119   5.687   6.618
 8967SOL    HW128740   6.170   5.748   6.565
 8967SOL    HW228741   6.185   5.628   6.656
 8968SOL     OW28742  12.998  13.437   9.125
 8968SOL    HW128743  13.072  13.383   9.156
 8968SOL    HW228744  12.998  13.513   9.183
 8969SOL     OW28745  11.635  11.926   1.208
 8969SOL    HW128746  11.619  11.832   1.222
 8969SOL    HW228747  11.621  11.966   1.294
 8970SOL     OW28748   2.062   3.648   7.580
 8970SOL    HW128749   2.050   3.555   7.558
 8970SOL    HW228750   2.040   3.695   7.500
 8971SOL     OW28751   9.708   1.091   5.244
 8971SOL    HW128752   9.670   1.155   5.305
 8971SOL    HW228753   9.779   1.050   5.293
 8972SOL     OW28754   0.024   9.249   8.243
 8972SOL    HW128755   0.105   9.254   8.295
 8972SOL    HW228756   0.009   9.338   8.213
 8973SOL     OW28757   1.590   2.628   0.801
 8973SOL    HW128758   1.651   2.556   0.818
 8973SOL    HW228759   1.603   2.651   0.709
 8974SOL     OW28760   5.344   5.509  10.065
 8974SOL    HW128761   5.392   5.499   9.983
 8974SOL    HW228762   5.362   5.428  10.113
 8975SOL     OW28763   8.989   2.488   4.230
 8975SOL    HW128764   8.910   2.482   4.175
 8975SOL    HW228765   8.998   2.581   4.250
 8976SOL     OW28766   1.894   7.554   1.847
 8976SOL    HW128767   1.977   7.578   1.807
 8976SOL    HW228768   1.905   7.572   1.940
 8977SOL     OW28769   5.127  13.141   4.378
 8977SOL    HW128770   5.051  13.103   4.421
 8977SOL    HW228771   5.169  13.067   4.333
 8978SOL     OW28772   1.738  14.513  14.584
 8978SOL    HW128773   1.725  14.559  14.501
 8978SOL    HW228774   1.651  14.505  14.621
 8979SOL     OW28775   2.215  13.512   1.073
 8979SOL    HW128776   2.180  13.596   1.044
 8979SOL    HW228777   2.310  13.523   1.068
 8980SOL     OW28778   9.276   6.793   5.949
 8980SOL    HW128779   9.298   6.745   5.869
 8980SOL    HW228780   9.245   6.726   6.009
 8981SOL     OW28781   6.906  13.968  11.869
 8981SOL    HW128782   6.844  14.041  11.878
 8981SOL    HW228783   6.850  13.890  11.861
 8982SOL     OW28784   2.072  13.625   3.208
 8982SOL    HW128785   2.029  13.556   3.259
 8982SOL    HW228786   2.047  13.607   3.117
 8983SOL     OW28787  11.008   1.296  13.943
 8983SOL    HW128788  11.057   1.246  14.008
 8983SOL    HW228789  10.971   1.230  13.884
 8984SOL     OW28790   1.470   0.437   2.512
 8984SOL    HW128791   1.561   0.429   2.538
 8984SOL    HW228792   1.468   0.405   2.422
 8985SOL     OW28793   6.726   3.907  10.703
 8985SOL    HW128794   6.770   3.907  10.618
 8985SOL    HW228795   6.753   3.825  10.744
 8986SOL     OW28796  14.195  12.734   6.488
 8986SOL    HW128797  14.252  12.660   6.506
 8986SOL    HW228798  14.107  12.696   6.480
 8987SOL     OW28799   7.397  12.293  14.372
 8987SOL    HW128800   7.428  12.376  14.335
 8987SOL    HW228801   7.461  12.229  14.342
 8988SOL     OW28802   4.157   5.213   7.410
 8988SOL    HW128803   4.187   5.292   7.455
 8988SOL    HW228804   4.107   5.165   7.476
 8989SOL     OW28805   9.080   6.275  11.957
 8989SOL    HW128806   9.077   6.360  12.000
 8989SOL    HW228807   8.989   6.256  11.934
 8990SOL     OW28808   4.931   1.522   0.260
 8990SOL    HW128809   4.964   1.497   0.346
 8990SOL    HW228810   5.005   1.566   0.218
 8991SOL     OW28811   5.677   7.268  14.421
 8991SOL    HW128812   5.641   7.316  14.495
 8991SOL    HW228813   5.705   7.336  14.360
 8992SOL     OW28814   7.629  14.164   2.728
 8992SOL    HW128815   7.604  14.190   2.639
 8992SOL    HW228816   7.586  14.228   2.785
 8993SOL     OW28817   8.491   5.434   3.639
 8993SOL    HW128818   8.504   5.376   3.713
 8993SOL    HW228819   8.579   5.468   3.619
 8994SOL     OW28820   8.943  12.514  14.285
 8994SOL    HW128821   8.877  12.581  14.272
 8994SOL    HW228822   8.976  12.530  14.374
 8995SOL     OW28823   8.107   5.746   8.335
 8995SOL    HW128824   8.120   5.839   8.320
 8995SOL    HW228825   8.052   5.717   8.263
 8996SOL     OW28826   2.518  11.676   0.997
 8996SOL    HW128827   2.600  11.667   0.949
 8996SOL    HW228828   2.450  11.676   0.930
 8997SOL     OW28829  11.202   2.162   9.616
 8997SOL    HW128830  11.138   2.219   9.573
 8997SOL    HW228831  11.232   2.213   9.691
 8998SOL     OW28832   2.302  14.131   6.011
 8998SOL    HW128833   2.263  14.195   6.070
 8998SOL    HW228834   2.237  14.119   5.942
 8999SOL     OW28835   5.752   6.543  12.464
 8999SOL    HW128836   5.668   6.589  12.461
 8999SOL    HW228837   5.817   6.613  12.459
 9000SOL     OW28838   0.106   2.719   7.445
 9000SOL    HW128839   0.105   2.647   7.382
 9000SOL    HW228840   0.101   2.676   7.530
 9001SOL     OW28841   4.548   8.974   8.496
 9001SOL    HW128842   4.477   9.022   8.537
 9001SOL    HW228843   4.606   9.041   8.461
 9002SOL     OW28844   5.767   5.905  13.100
 9002SOL    HW128845   5.766   5.936  13.190
 9002SOL    HW228846   5.815   5.973  13.051
 9003SOL     OW28847   0.509  13.748   9.206
 9003SOL    HW128848   0.462  13.676   9.163
 9003SOL    HW228849   0.447  13.779   9.273
 9004SOL     OW28850  12.726  13.406   7.622
 9004SOL    HW128851  12.646  13.382   7.576
 9004SOL    HW228852  12.765  13.322   7.647
 9005SOL     OW28853   2.885  14.480  13.674
 9005SOL    HW128854   2.901  14.558  13.727
 9005SOL    HW228855   2.797  14.494  13.638
 9006SOL     OW28856  12.252   8.371  10.097
 9006SOL    HW128857  12.318   8.439  10.107
 9006SOL    HW228858  12.278   8.323  10.018
 9007SOL     OW28859   6.160   8.257   8.966
 9007SOL    HW128860   6.137   8.350   8.974
 9007SOL    HW228861   6.131   8.233   8.878
 9008SOL     OW28862  13.416   3.923   6.275
 9008SOL    HW128863  13.431   4.010   6.238
 9008SOL    HW228864  13.504   3.888   6.291
 9009SOL     OW28865   6.629   7.146   6.916
 9009SOL    HW128866   6.617   7.230   6.872
 9009SOL    HW228867   6.555   7.139   6.976
 9010SOL     OW28868   2.196  14.542   9.311
 9010SOL    HW128869   2.251  14.477   9.355
 9010SOL    HW228870   2.256  14.588   9.252
 9011SOL     OW28871   2.672   9.614   6.873
 9011SOL    HW128872   2.684   9.683   6.939
 9011SOL    HW228873   2.583   9.582   6.889
 9012SOL     OW28874  10.022  10.588  12.390
 9012SOL    HW128875  10.007  10.493  12.382
 9012SOL    HW228876   9.998  10.608  12.481
 9013SOL     OW28877  12.459  12.030  11.887
 9013SOL    HW128878  12.367  12.056  11.897
 9013SOL    HW228879  12.470  11.958  11.949
 9014SOL     OW28880  13.329   4.581  14.866
 9014SOL    HW128881  13.367   4.536  14.790
 9014SOL    HW228882  13.319   4.672  14.838
 9015SOL     OW28883   8.143  10.290   6.502
 9015SOL    HW128884   8.060  10.243   6.501
 9015SOL    HW228885   8.154  10.316   6.594
 9016SOL     OW28886   9.253  14.394  14.864
 9016SOL    HW128887   9.205  14.369   0.063
 9016SOL    HW228888   9.248  14.490  14.863
 9017SOL     OW28889  11.445   2.303   5.023
 9017SOL    HW128890  11.360   2.264   5.002
 9017SOL    HW228891  11.488   2.315   4.939
 9018SOL     OW28892  13.754   8.150   9.161
 9018SOL    HW128893  13.733   8.181   9.073
 9018SOL    HW228894  13.670   8.147   9.206
 9019SOL     OW28895   6.800   2.691  12.076
 9019SOL    HW128896   6.810   2.772  12.027
 9019SOL    HW228897   6.887   2.652  12.075
 9020SOL     OW28898   7.941   3.617   9.704
 9020SOL    HW128899   8.025   3.582   9.733
 9020SOL    HW228900   7.923   3.689   9.764
 9021SOL     OW28901   1.050   2.232   9.205
 9021SOL    HW128902   1.070   2.138   9.206
 9021SOL    HW228903   1.048   2.256   9.298
 9022SOL     OW28904  12.670   9.984   9.903
 9022SOL    HW128905  12.709  10.066   9.936
 9022SOL    HW228906  12.661   9.929   9.981
 9023SOL     OW28907   6.839   0.281   1.695
 9023SOL    HW128908   6.910   0.287   1.760
 9023SOL    HW228909   6.759   0.278   1.747
 9024SOL     OW28910  12.182   8.305   2.384
 9024SOL    HW128911  12.143   8.346   2.307
 9024SOL    HW228912  12.119   8.238   2.410
 9025SOL     OW28913   4.856   9.190   8.868
 9025SOL    HW128914   4.863   9.284   8.885
 9025SOL    HW228915   4.904   9.149   8.940
 9026SOL     OW28916   0.304   6.629  12.455
 9026SOL    HW128917   0.341   6.714  12.428
 9026SOL    HW228918   0.348   6.565  12.399
 9027SOL     OW28919   3.401   6.632  14.313
 9027SOL    HW128920   3.429   6.542  14.327
 9027SOL    HW228921   3.392   6.668  14.402
 9028SOL     OW28922   0.449   7.775   1.644
 9028SOL    HW128923   0.472   7.721   1.720
 9028SOL    HW228924   0.387   7.840   1.678
 9029SOL     OW28925   2.708  13.833   7.390
 9029SOL    HW128926   2.803  13.843   7.379
 9029SOL    HW228927   2.698  13.797   7.478
 9030SOL     OW28928  11.952  13.296  11.873
 9030SOL    HW128929  11.909  13.222  11.830
 9030SOL    HW228930  11.934  13.284  11.966
 9031SOL     OW28931   8.529   5.627  13.360
 9031SOL    HW128932   8.461   5.599  13.421
 9031SOL    HW228933   8.496   5.710  13.325
 9032SOL     OW28934  13.873   2.470   2.180
 9032SOL    HW128935  13.895   2.377   2.184
 9032SOL    HW228936  13.953   2.515   2.207
 9033SOL     OW28937   9.699   9.417   5.870
 9033SOL    HW128938   9.609   9.448   5.876
 9033SOL    HW228939   9.720   9.386   5.958
 9034SOL     OW28940   0.269  11.109   5.137
 9034SOL    HW128941   0.181  11.078   5.112
 9034SOL    HW228942   0.257  11.201   5.158
 9035SOL     OW28943  12.240   7.551   9.269
 9035SOL    HW128944  12.302   7.541   9.197
 9035SOL    HW228945  12.185   7.472   9.265
 9036SOL     OW28946   3.142  12.924   5.016
 9036SOL    HW128947   3.172  12.987   5.081
 9036SOL    HW228948   3.200  12.849   5.025
 9037SOL     OW28949   0.906   9.433  13.644
 9037SOL    HW128950   0.941   9.482  13.569
 9037SOL    HW228951   0.844   9.372  13.605
 9038SOL     OW28952   3.916   7.876   5.284
 9038SOL    HW128953   3.940   7.913   5.369
 9038SOL    HW228954   3.875   7.792   5.305
 9039SOL     OW28955   4.013  12.718  12.684
 9039SOL    HW128956   3.976  12.769  12.612
 9039SOL    HW228957   3.979  12.760  12.763
 9040SOL     OW28958  11.388  11.702  13.297
 9040SOL    HW128959  11.352  11.789  13.314
 9040SOL    HW228960  11.390  11.696  13.201
 9041SOL     OW28961  11.716   6.944   3.257
 9041SOL    HW128962  11.647   6.892   3.298
 9041SOL    HW228963  11.791   6.884   3.251
 9042SOL     OW28964  13.455   7.178  11.943
 9042SOL    HW128965  13.454   7.105  11.882
 9042SOL    HW228966  13.429   7.140  12.027
 9043SOL     OW28967  14.085   9.342  10.386
 9043SOL    HW128968  14.049   9.361  10.299
 9043SOL    HW228969  14.131   9.423  10.410
 9044SOL     OW28970   7.256  12.821  12.715
 9044SOL    HW128971   7.225  12.794  12.628
 9044SOL    HW228972   7.232  12.914  12.721
 9045SOL     OW28973   7.332  10.400  11.325
 9045SOL    HW128974   7.292  10.339  11.263
 9045SOL    HW228975   7.388  10.344  11.380
 9046SOL     OW28976   6.720  14.251   6.527
 9046SOL    HW128977   6.635  14.235   6.485
 9046SOL    HW228978   6.780  14.190   6.484
 9047SOL     OW28979   5.648   6.387   1.919
 9047SOL    HW128980   5.635   6.453   1.850
 9047SOL    HW228981   5.714   6.426   1.976
 9048SOL     OW28982   5.016   4.752   9.856
 9048SOL    HW128983   4.989   4.793   9.774
 9048SOL    HW228984   4.937   4.713   9.891
 9049SOL     OW28985  13.745   1.811  14.371
 9049SOL    HW128986  13.746   1.719  14.345
 9049SOL    HW228987  13.665   1.847  14.333
 9050SOL     OW28988   9.013  12.370  12.639
 9050SOL    HW128989   9.066  12.387  12.716
 9050SOL    HW228990   9.076  12.364  12.567
 9051SOL     OW28991   2.596   6.989   6.614
 9051SOL    HW128992   2.537   7.026   6.550
 9051SOL    HW228993   2.675   7.044   6.610
 9052SOL     OW28994   5.021  14.138   9.222
 9052SOL    HW128995   4.932  14.145   9.187
 9052SOL    HW228996   5.013  14.155   9.315
 9053SOL     OW28997  13.846   9.737   2.253
 9053SOL    HW128998  13.807   9.825   2.248
 9053SOL    HW228999  13.865   9.714   2.162
 9054SOL     OW29000   3.559   6.046   0.597
 9054SOL    HW129001   3.649   6.064   0.624
 9054SOL    HW229002   3.516   6.014   0.676
 9055SOL     OW29003   3.229   6.921  14.573
 9055SOL    HW129004   3.170   6.884  14.638
 9055SOL    HW229005   3.286   6.848  14.548
 9056SOL     OW29006  14.433   9.020  10.526
 9056SOL    HW129007  14.362   9.064  10.479
 9056SOL    HW229008  14.391   8.979  10.601
 9057SOL     OW29009   2.262  12.550   1.390
 9057SOL    HW129010   2.351  12.583   1.376
 9057SOL    HW229011   2.253  12.547   1.485
 9058SOL     OW29012   0.568  10.310   3.387
 9058SOL    HW129013   0.631  10.270   3.328
 9058SOL    HW229014   0.498  10.342   3.330
 9059SOL     OW29015   0.540  11.222   3.792
 9059SOL    HW129016   0.634  11.203   3.801
 9059SOL    HW229017   0.534  11.273   3.712
 9060SOL     OW29018  10.603  14.055  12.178
 9060SOL    HW129019  10.657  14.063  12.100
 9060SOL    HW229020  10.618  14.135  12.227
 9061SOL     OW29021  12.227   0.308   4.731
 9061SOL    HW129022  12.207   0.230   4.782
 9061SOL    HW229023  12.219   0.380   4.793
 9062SOL     OW29024  10.240   6.716   6.247
 9062SOL    HW129025  10.158   6.675   6.219
 9062SOL    HW229026  10.213   6.783   6.310
 9063SOL     OW29027  12.615  10.937  10.152
 9063SOL    HW129028  12.666  10.879  10.209
 9063SOL    HW229029  12.524  10.918  10.173
 9064SOL     OW29030   1.619  14.537   3.459
 9064SOL    HW129031   1.682  14.473   3.492
 9064SOL    HW229032   1.672  14.614   3.438
 9065SOL     OW29033   9.893   1.036  10.550
 9065SOL    HW129034   9.881   1.099  10.479
 9065SOL    HW229035   9.968   1.069  10.599
 9066SOL     OW29036  12.296   6.025  11.559
 9066SOL    HW129037  12.232   6.034  11.488
 9066SOL    HW229038  12.313   5.931  11.563
 9067SOL     OW29039  11.523  13.272   1.418
 9067SOL    HW129040  11.456  13.303   1.478
 9067SOL    HW229041  11.600  13.325   1.438
 9068SOL     OW29042   5.441   4.796   8.359
 9068SOL    HW129043   5.390   4.786   8.440
 9068SOL    HW229044   5.384   4.848   8.302
 9069SOL     OW29045  11.940   8.061   6.688
 9069SOL    HW129046  11.960   7.972   6.716
 9069SOL    HW229047  11.856   8.081   6.730
 9070SOL     OW29048  13.706   9.515  13.342
 9070SOL    HW129049  13.641   9.586  13.343
 9070SOL    HW229050  13.714   9.490  13.434
 9071SOL     OW29051   4.162   6.246   3.032
 9071SOL    HW129052   4.216   6.176   3.070
 9071SOL    HW229053   4.178   6.239   2.937
 9072SOL     OW29054   1.392   9.533   2.615
 9072SOL    HW129055   1.463   9.469   2.626
 9072SOL    HW229056   1.345   9.503   2.538
 9073SOL     OW29057  10.638  12.004   2.937
 9073SOL    HW129058  10.661  11.940   3.005
 9073SOL    HW229059  10.614  11.951   2.861
 9074SOL     OW29060   2.208   1.984  10.754
 9074SOL    HW129061   2.255   2.039  10.816
 9074SOL    HW229062   2.276   1.931  10.712
 9075SOL     OW29063   4.800  14.495   0.979
 9075SOL    HW129064   4.778  14.464   0.891
 9075SOL    HW229065   4.723  14.472   1.032
 9076SOL     OW29066   4.273   7.026   1.100
 9076SOL    HW129067   4.215   7.007   1.026
 9076SOL    HW229068   4.215   7.034   1.175
 9077SOL     OW29069   0.917  14.674  13.624
 9077SOL    HW129070   0.971  14.624  13.563
 9077SOL    HW229071   0.967  14.754  13.642
 9078SOL     OW29072   3.399   4.460   1.477
 9078SOL    HW129073   3.465   4.492   1.539
 9078SOL    HW229074   3.434   4.483   1.391
 9079SOL     OW29075   9.679  10.208   0.410
 9079SOL    HW129076   9.653  10.160   0.331
 9079SOL    HW229077   9.721  10.287   0.376
 9080SOL     OW29078   5.093   1.030  14.647
 9080SOL    HW129079   5.103   0.942  14.612
 9080SOL    HW229080   5.139   1.028  14.732
 9081SOL     OW29081  12.349   4.098   3.784
 9081SOL    HW129082  12.306   4.044   3.850
 9081SOL    HW229083  12.434   4.119   3.822
 9082SOL     OW29084   7.822  14.612   6.217
 9082SOL    HW129085   7.778  14.690   6.182
 9082SOL    HW229086   7.753  14.563   6.261
 9083SOL     OW29087  14.833  12.287   3.844
 9083SOL    HW129088  14.796  12.368   3.809
 9083SOL    HW229089  14.776  12.265   3.917
 9084SOL     OW29090   9.047   5.890   7.448
 9084SOL    HW129091   8.990   5.964   7.470
 9084SOL    HW229092   8.995   5.813   7.473
 9085SOL     OW29093  11.584   5.443  12.117
 9085SOL    HW129094  11.549   5.526  12.086
 9085SOL    HW229095  11.511   5.401  12.162
 9086SOL     OW29096  10.869   9.736   4.128
 9086SOL    HW129097  10.962   9.718   4.134
 9086SOL    HW229098  10.827   9.650   4.137
 9087SOL     OW29099   3.348  14.175   5.927
 9087SOL    HW129100   3.436  14.202   5.952
 9087SOL    HW229101   3.349  14.080   5.932
 9088SOL     OW29102  14.564  11.604   9.767
 9088SOL    HW129103  14.572  11.560   9.852
 9088SOL    HW229104  14.474  11.635   9.764
 9089SOL     OW29105   6.742   3.212  10.606
 9089SOL    HW129106   6.820   3.267  10.613
 9089SOL    HW229107   6.713   3.223  10.516
 9090SOL     OW29108   8.716   4.675  11.032
 9090SOL    HW129109   8.805   4.667  11.066
 9090SOL    HW229110   8.725   4.669  10.937
 9091SOL     OW29111   3.744   4.985   5.556
 9091SOL    HW129112   3.720   5.067   5.598
 9091SOL    HW229113   3.676   4.970   5.490
 9092SOL     OW29114   8.509  10.606   2.885
 9092SOL    HW129115   8.419  10.574   2.891
 9092SOL    HW229116   8.554  10.563   2.958
 9093SOL     OW29117   7.984   2.167   0.212
 9093SOL    HW129118   7.935   2.088   0.239
 9093SOL    HW229119   8.062   2.133   0.169
 9094SOL     OW29120   4.001   5.087  14.265
 9094SOL    HW129121   3.984   4.993  14.270
 9094SOL    HW229122   4.097   5.094  14.271
 9095SOL     OW29123   5.587  13.343  11.989
 9095SOL    HW129124   5.512  13.392  12.025
 9095SOL    HW229125   5.649  13.411  11.964
 9096SOL     OW29126   9.924   3.537  12.370
 9096SOL    HW129127   9.832   3.551  12.393
 9096SOL    HW229128   9.922   3.516  12.277
 9097SOL     OW29129   4.722   3.763  14.723
 9097SOL    HW129130   4.814   3.781  14.743
 9097SOL    HW229131   4.683   3.739  14.808
 9098SOL     OW29132   4.362  13.023   7.607
 9098SOL    HW129133   4.420  13.057   7.539
 9098SOL    HW229134   4.383  12.930   7.613
 9099SOL     OW29135   4.925   4.580  14.726
 9099SOL    HW129136   4.948   4.624  14.644
 9099SOL    HW229137   4.929   4.648  14.793
 9100SOL     OW29138   9.437  11.062   9.070
 9100SOL    HW129139   9.527  11.069   9.101
 9100SOL    HW229140   9.418  11.148   9.032
 9101SOL     OW29141  11.456  12.329   7.481
 9101SOL    HW129142  11.512  12.407   7.482
 9101SOL    HW229143  11.487  12.276   7.553
 9102SOL     OW29144   1.650  10.538   0.511
 9102SOL    HW129145   1.738  10.562   0.540
 9102SOL    HW229146   1.620  10.614   0.461
 9103SOL     OW29147   7.107   2.228   1.778
 9103SOL    HW129148   7.133   2.185   1.697
 9103SOL    HW229149   7.012   2.216   1.782
 9104SOL     OW29150   7.688   2.002   0.607
 9104SOL    HW129151   7.765   1.998   0.664
 9104SOL    HW229152   7.614   2.000   0.667
 9105SOL     OW29153   2.461  11.984  12.815
 9105SOL    HW129154   2.553  11.976  12.793
 9105SOL    HW229155   2.432  11.894  12.831
 9106SOL     OW29156   1.409   5.616   2.260
 9106SOL    HW129157   1.374   5.582   2.342
 9106SOL    HW229158   1.379   5.707   2.257
 9107SOL     OW29159   9.731   8.143   5.007
 9107SOL    HW129160   9.651   8.175   5.049
 9107SOL    HW229161   9.701   8.077   4.944
 9108SOL     OW29162   1.863   8.658   2.968
 9108SOL    HW129163   1.792   8.621   3.020
 9108SOL    HW229164   1.942   8.612   2.998
 9109SOL     OW29165   8.086  11.954   6.135
 9109SOL    HW129166   8.060  11.971   6.225
 9109SOL    HW229167   8.080  11.859   6.126
 9110SOL     OW29168   1.056   4.554   5.332
 9110SOL    HW129169   1.132   4.601   5.298
 9110SOL    HW229170   0.991   4.622   5.351
 9111SOL     OW29171   4.445   9.867  14.844
 9111SOL    HW129172   4.435   9.854  14.750
 9111SOL    HW229173   4.519   9.927  14.852
 9112SOL     OW29174   7.257  11.645   1.326
 9112SOL    HW129175   7.316  11.641   1.250
 9112SOL    HW229176   7.195  11.574   1.312
 9113SOL     OW29177  11.551   1.056  12.867
 9113SOL    HW129178  11.488   0.983  12.863
 9113SOL    HW229179  11.501   1.128  12.906
 9114SOL     OW29180   0.235   5.878   1.915
 9114SOL    HW129181   0.200   5.862   2.002
 9114SOL    HW229182   0.262   5.792   1.884
 9115SOL     OW29183   7.079   0.668   8.149
 9115SOL    HW129184   7.022   0.742   8.168
 9115SOL    HW229185   7.035   0.593   8.189
 9116SOL     OW29186  10.528   8.736   9.522
 9116SOL    HW129187  10.435   8.724   9.503
 9116SOL    HW229188  10.538   8.709   9.613
 9117SOL     OW29189   2.048   9.397   5.884
 9117SOL    HW129190   1.954   9.400   5.899
 9117SOL    HW229191   2.081   9.338   5.953
 9118SOL     OW29192   0.197   4.010   8.880
 9118SOL    HW129193   0.196   4.052   8.794
 9118SOL    HW229194   0.126   4.053   8.928
 9119SOL     OW29195  11.635  12.100  10.107
 9119SOL    HW129196  11.627  12.038  10.034
 9119SOL    HW229197  11.661  12.182  10.065
 9120SOL     OW29198  11.841   7.417   2.967
 9120SOL    HW129199  11.773   7.357   2.935
 9120SOL    HW229200  11.793   7.496   2.993
 9121SOL     OW29201   9.501  11.383   2.670
 9121SOL    HW129202   9.503  11.437   2.749
 9121SOL    HW229203   9.492  11.293   2.703
 9122SOL     OW29204  13.310   0.910   2.112
 9122SOL    HW129205  13.274   0.892   2.199
 9122SOL    HW229206  13.378   0.976   2.128
 9123SOL     OW29207   2.492   9.919   9.961
 9123SOL    HW129208   2.430   9.912  10.033
 9123SOL    HW229209   2.440   9.953   9.888
 9124SOL     OW29210   4.345   6.564  11.207
 9124SOL    HW129211   4.253   6.585  11.190
 9124SOL    HW229212   4.352   6.471  11.189
 9125SOL     OW29213   4.833   7.925   7.196
 9125SOL    HW129214   4.777   7.910   7.119
 9125SOL    HW229215   4.915   7.958   7.160
 9126SOL     OW29216  14.572  10.874   9.560
 9126SOL    HW129217  14.545  10.860   9.651
 9126SOL    HW229218  14.582  10.785   9.525
 9127SOL     OW29219   0.213   2.343   2.419
 9127SOL    HW129220   0.266   2.364   2.496
 9127SOL    HW229221   0.261   2.275   2.374
 9128SOL     OW29222   7.784  11.560   8.613
 9128SOL    HW129223   7.852  11.628   8.612
 9128SOL    HW229224   7.709  11.600   8.570
 9129SOL     OW29225   6.802  11.189  10.284
 9129SOL    HW129226   6.892  11.163  10.262
 9129SOL    HW229227   6.785  11.146  10.368
 9130SOL     OW29228  11.682   7.658   7.755
 9130SOL    HW129229  11.677   7.744   7.713
 9130SOL    HW229230  11.746   7.668   7.825
 9131SOL     OW29231  11.131  14.325  12.513
 9131SOL    HW129232  11.193  14.395  12.491
 9131SOL    HW229233  11.075  14.364  12.580
 9132SOL     OW29234   6.842   2.072   7.782
 9132SOL    HW129235   6.901   2.140   7.815
 9132SOL    HW229236   6.777   2.119   7.731
 9133SOL     OW29237   1.473  14.314  14.319
 9133SOL    HW129238   1.445  14.234  14.364
 9133SOL    HW229239   1.402  14.376  14.335
 9134SOL     OW29240   9.829   9.984   6.394
 9134SOL    HW129241   9.809   9.960   6.485
 9134SOL    HW229242   9.866   9.904   6.356
 9135SOL     OW29243   2.682  11.205  13.747
 9135SOL    HW129244   2.676  11.300  13.759
 9135SOL    HW229245   2.607  11.170  13.795
 9136SOL     OW29246  12.780   7.418  13.559
 9136SOL    HW129247  12.802   7.493  13.503
 9136SOL    HW229248  12.706   7.376  13.515
 9137SOL     OW29249   8.745   0.800   8.628
 9137SOL    HW129250   8.673   0.755   8.585
 9137SOL    HW229251   8.820   0.742   8.615
 9138SOL     OW29252   5.835   3.552  14.629
 9138SOL    HW129253   5.834   3.467  14.584
 9138SOL    HW229254   5.757   3.597  14.598
 9139SOL     OW29255   3.887  14.769  14.094
 9139SOL    HW129256   3.848  14.856  14.095
 9139SOL    HW229257   3.817  14.710  14.121
 9140SOL     OW29258   1.335   1.462   8.451
 9140SOL    HW129259   1.250   1.507   8.445
 9140SOL    HW229260   1.399   1.533   8.452
 9141SOL     OW29261   5.070   1.939  13.026
 9141SOL    HW129262   5.089   1.859  13.075
 9141SOL    HW229263   5.149   1.992  13.034
 9142SOL     OW29264   9.143   2.328   2.145
 9142SOL    HW129265   9.154   2.307   2.238
 9142SOL    HW229266   9.229   2.315   2.107
 9143SOL     OW29267  11.965   6.293   1.791
 9143SOL    HW129268  12.009   6.284   1.706
 9143SOL    HW229269  11.959   6.387   1.805
 9144SOL     OW29270  12.296  11.850  10.556
 9144SOL    HW129271  12.236  11.922  10.577
 9144SOL    HW229272  12.319  11.813  10.641
 9145SOL     OW29273   9.900   0.491   0.033
 9145SOL    HW129274   9.962   0.558   0.060
 9145SOL    HW229275   9.868   0.521  14.828
 9146SOL     OW29276  10.155   1.317  10.315
 9146SOL    HW129277  10.216   1.243  10.320
 9146SOL    HW229278  10.199   1.380  10.258
 9147SOL     OW29279   8.837   4.073   6.473
 9147SOL    HW129280   8.787   4.136   6.422
 9147SOL    HW229281   8.887   4.126   6.535
 9148SOL     OW29282  13.549   8.454  12.661
 9148SOL    HW129283  13.470   8.410  12.630
 9148SOL    HW229284  13.550   8.538  12.615
 9149SOL     OW29285   5.895   8.231   7.511
 9149SOL    HW129286   5.967   8.255   7.454
 9149SOL    HW229287   5.929   8.159   7.564
 9150SOL     OW29288   7.846   1.450   3.132
 9150SOL    HW129289   7.886   1.371   3.095
 9150SOL    HW229290   7.844   1.434   3.226
 9151SOL     OW29291   9.057   3.127   9.401
 9151SOL    HW129292   9.109   3.087   9.470
 9151SOL    HW229293   8.968   3.095   9.415
 9152SOL     OW29294   3.315  10.390   6.174
 9152SOL    HW129295   3.328  10.339   6.094
 9152SOL    HW229296   3.391  10.370   6.228
 9153SOL     OW29297   3.720   4.366   5.435
 9153SOL    HW129298   3.692   4.447   5.394
 9153SOL    HW229299   3.816   4.368   5.427
 9154SOL     OW29300  14.173   0.015   4.908
 9154SOL    HW129301  14.248   0.022   4.967
 9154SOL    HW229302  14.098   0.006   4.967
 9155SOL     OW29303  11.881  14.583  12.392
 9155SOL    HW129304  11.897  14.553  12.302
 9155SOL    HW229305  11.860  14.503  12.440
 9156SOL     OW29306   1.599   8.471   7.183
 9156SOL    HW129307   1.517   8.469   7.233
 9156SOL    HW229308   1.573   8.452   7.093
 9157SOL     OW29309   2.028   8.986   5.996
 9157SOL    HW129310   2.023   8.907   6.052
 9157SOL    HW229311   2.044   8.952   5.908
 9158SOL     OW29312   2.229  14.075  14.130
 9158SOL    HW129313   2.307  14.120  14.098
 9158SOL    HW229314   2.211  14.116  14.215
 9159SOL     OW29315   5.912   1.123   8.756
 9159SOL    HW129316   5.857   1.117   8.835
 9159SOL    HW229317   5.873   1.194   8.705
 9160SOL     OW29318   9.913  11.292   3.617
 9160SOL    HW129319   9.844  11.304   3.683
 9160SOL    HW229320   9.879  11.225   3.558
 9161SOL     OW29321   9.765   4.761   6.901
 9161SOL    HW129322   9.858   4.786   6.901
 9161SOL    HW229323   9.719   4.841   6.926
 9162SOL     OW29324   4.525   2.492   9.451
 9162SOL    HW129325   4.576   2.572   9.466
 9162SOL    HW229326   4.584   2.436   9.399
 9163SOL     OW29327  12.496   4.397   9.221
 9163SOL    HW129328  12.488   4.406   9.126
 9163SOL    HW229329  12.515   4.305   9.235
 9164SOL     OW29330   9.612   6.784  13.634
 9164SOL    HW129331   9.694   6.754  13.671
 9164SOL    HW229332   9.620   6.766  13.540
 9165SOL     OW29333   1.303   7.228   3.423
 9165SOL    HW129334   1.260   7.153   3.382
 9165SOL    HW229335   1.358   7.190   3.491
 9166SOL     OW29336   5.864   3.936  12.026
 9166SOL    HW129337   5.802   3.940  11.954
 9166SOL    HW229338   5.890   3.844  12.030
 9167SOL     OW29339  10.456   9.673   9.580
 9167SOL    HW129340  10.433   9.583   9.604
 9167SOL    HW229341  10.527   9.663   9.516
 9168SOL     OW29342   8.405   6.686   0.353
 9168SOL    HW129343   8.375   6.777   0.358
 9168SOL    HW229344   8.407   6.667   0.259
 9169SOL     OW29345   9.807   7.362   8.742
 9169SOL    HW129346   9.722   7.319   8.733
 9169SOL    HW229347   9.868   7.291   8.764
 9170SOL     OW29348  11.308   1.935   3.862
 9170SOL    HW129349  11.353   1.875   3.921
 9170SOL    HW229350  11.227   1.957   3.908
 9171SOL     OW29351   1.798   7.808   1.437
 9171SOL    HW129352   1.735   7.763   1.495
 9171SOL    HW229353   1.756   7.892   1.417
 9172SOL     OW29354   9.649   9.944   2.608
 9172SOL    HW129355   9.656   9.928   2.514
 9172SOL    HW229356   9.572   9.999   2.619
 9173SOL     OW29357   7.780   8.326  13.839
 9173SOL    HW129358   7.711   8.312  13.905
 9173SOL    HW229359   7.796   8.238  13.804
 9174SOL     OW29360   7.714   6.202   2.457
 9174SOL    HW129361   7.643   6.214   2.394
 9174SOL    HW229362   7.773   6.140   2.415
 9175SOL     OW29363   1.211  13.200  12.282
 9175SOL    HW129364   1.120  13.182  12.262
 9175SOL    HW229365   1.208  13.260  12.357
 9176SOL     OW29366  11.727   0.539   1.858
 9176SOL    HW129367  11.702   0.456   1.899
 9176SOL    HW229368  11.792   0.514   1.792
 9177SOL     OW29369   8.075   3.734   7.342
 9177SOL    HW129370   8.047   3.750   7.252
 9177SOL    HW229371   8.120   3.649   7.337
 9178SOL     OW29372   4.298   1.723   2.592
 9178SOL    HW129373   4.234   1.752   2.527
 9178SOL    HW229374   4.255   1.650   2.637
 9179SOL     OW29375   1.245   3.400   8.599
 9179SOL    HW129376   1.208   3.482   8.633
 9179SOL    HW229377   1.213   3.333   8.659
 9180SOL     OW29378   9.467   6.786  11.402
 9180SOL    HW129379   9.448   6.782  11.496
 9180SOL    HW229380   9.412   6.857  11.369
 9181SOL     OW29381   3.672   2.534  10.078
 9181SOL    HW129382   3.741   2.469  10.086
 9181SOL    HW229383   3.669   2.577  10.163
 9182SOL     OW29384   7.751  13.906   4.645
 9182SOL    HW129385   7.837  13.938   4.619
 9182SOL    HW229386   7.752  13.908   4.741
 9183SOL     OW29387   5.906   2.058   7.571
 9183SOL    HW129388   5.851   2.110   7.630
 9183SOL    HW229389   5.943   2.122   7.510
 9184SOL     OW29390  13.197   0.973   7.963
 9184SOL    HW129391  13.105   0.950   7.952
 9184SOL    HW229392  13.198   1.069   7.963
 9185SOL     OW29393   1.009   3.092  12.738
 9185SOL    HW129394   1.057   3.147  12.675
 9185SOL    HW229395   1.068   3.018  12.754
 9186SOL     OW29396   0.680   3.989   2.391
 9186SOL    HW129397   0.711   3.899   2.398
 9186SOL    HW229398   0.754   4.042   2.421
 9187SOL     OW29399   2.650   5.437   0.928
 9187SOL    HW129400   2.680   5.347   0.912
 9187SOL    HW229401   2.557   5.436   0.903
 9188SOL     OW29402   6.448  14.699   9.979
 9188SOL    HW129403   6.423  14.782   9.939
 9188SOL    HW229404   6.426  14.633   9.913
 9189SOL     OW29405   0.530   3.276   5.514
 9189SOL    HW129406   0.449   3.234   5.544
 9189SOL    HW229407   0.540   3.248   5.423
 9190SOL     OW29408   3.808   2.020   6.166
 9190SOL    HW129409   3.797   1.948   6.103
 9190SOL    HW229410   3.903   2.023   6.182
 9191SOL     OW29411  14.288  12.407   3.539
 9191SOL    HW129412  14.211  12.368   3.579
 9191SOL    HW229413  14.330  12.336   3.491
 9192SOL     OW29414   0.289   4.084  12.921
 9192SOL    HW129415   0.344   4.104  12.997
 9192SOL    HW229416   0.202   4.066  12.958
 9193SOL     OW29417  10.580   5.232   6.435
 9193SOL    HW129418  10.526   5.177   6.378
 9193SOL    HW229419  10.593   5.179   6.514
 9194SOL     OW29420   5.670   4.410   2.532
 9194SOL    HW129421   5.717   4.490   2.557
 9194SOL    HW229422   5.579   4.437   2.524
 9195SOL     OW29423   3.285   7.416   5.265
 9195SOL    HW129424   3.309   7.505   5.237
 9195SOL    HW229425   3.271   7.368   5.184
 9196SOL     OW29426  14.344  13.040   7.090
 9196SOL    HW129427  14.375  12.959   7.051
 9196SOL    HW229428  14.302  13.013   7.171
 9197SOL     OW29429  12.500   1.367   2.400
 9197SOL    HW129430  12.495   1.334   2.490
 9197SOL    HW229431  12.456   1.451   2.402
 9198SOL     OW29432  11.207   4.515  14.337
 9198SOL    HW129433  11.138   4.495  14.274
 9198SOL    HW229434  11.203   4.610  14.348
 9199SOL     OW29435   3.081   6.070  11.783
 9199SOL    HW129436   3.017   6.000  11.772
 9199SOL    HW229437   3.059   6.134  11.716
 9200SOL     OW29438  14.039   0.009   5.962
 9200SOL    HW129439  14.127   0.047   5.962
 9200SOL    HW229440  14.041  14.826   6.034
 9201SOL     OW29441   8.098   1.251   7.386
 9201SOL    HW129442   8.017   1.244   7.437
 9201SOL    HW229443   8.156   1.304   7.441
 9202SOL     OW29444  13.001   9.011   8.051
 9202SOL    HW129445  13.050   9.076   8.000
 9202SOL    HW229446  12.910   9.041   8.046
 9203SOL     OW29447   5.657   8.213   4.883
 9203SOL    HW129448   5.608   8.138   4.917
 9203SOL    HW229449   5.591   8.279   4.865
 9204SOL     OW29450   1.894   7.482   9.533
 9204SOL    HW129451   1.961   7.443   9.589
 9204SOL    HW229452   1.815   7.482   9.586
 9205SOL     OW29453  10.937   6.023   6.765
 9205SOL    HW129454  10.874   6.075   6.815
 9205SOL    HW229455  10.886   5.984   6.695
 9206SOL     OW29456  11.444   1.926   8.467
 9206SOL    HW129457  11.512   1.993   8.470
 9206SOL    HW229458  11.492   1.843   8.465
 9207SOL     OW29459  12.754   0.546   8.950
 9207SOL    HW129460  12.683   0.565   9.011
 9207SOL    HW229461  12.826   0.602   8.979
 9208SOL     OW29462   5.400   1.407  10.612
 9208SOL    HW129463   5.353   1.459  10.546
 9208SOL    HW229464   5.472   1.366  10.563
 9209SOL     OW29465   0.843  11.278   3.724
 9209SOL    HW129466   0.850  11.330   3.804
 9209SOL    HW229467   0.927  11.232   3.718
 9210SOL     OW29468   9.894  11.867   1.186
 9210SOL    HW129469   9.983  11.879   1.154
 9210SOL    HW229470   9.869  11.953   1.219
 9211SOL     OW29471   1.254   0.592  14.702
 9211SOL    HW129472   1.232   0.526  14.768
 9211SOL    HW229473   1.332   0.558  14.659
 9212SOL     OW29474   3.399   2.465  11.539
 9212SOL    HW129475   3.472   2.426  11.588
 9212SOL    HW229476   3.327   2.403  11.550
 9213SOL     OW29477  11.990   1.564   0.115
 9213SOL    HW129478  12.015   1.523   0.032
 9213SOL    HW229479  11.986   1.491   0.178
 9214SOL     OW29480  10.512   6.929   5.396
 9214SOL    HW129481  10.484   6.995   5.458
 9214SOL    HW229482  10.461   6.851   5.418
 9215SOL     OW29483   5.421  10.159   2.516
 9215SOL    HW129484   5.408  10.065   2.517
 9215SOL    HW229485   5.382  10.190   2.598
 9216SOL     OW29486   7.615   0.361  12.034
 9216SOL    HW129487   7.548   0.305  11.994
 9216SOL    HW229488   7.566   0.418  12.094
 9217SOL     OW29489   0.181   1.013   3.323
 9217SOL    HW129490   0.095   1.001   3.362
 9217SOL    HW229491   0.226   1.074   3.382
 9218SOL     OW29492   5.224  14.333   3.670
 9218SOL    HW129493   5.273  14.252   3.658
 9218SOL    HW229494   5.288  14.396   3.703
 9219SOL     OW29495   3.298   6.837   7.132
 9219SOL    HW129496   3.241   6.871   7.063
 9219SOL    HW229497   3.352   6.912   7.157
 9220SOL     OW29498  10.407   7.620   6.806
 9220SOL    HW129499  10.399   7.627   6.901
 9220SOL    HW229500  10.350   7.546   6.782
 9221SOL     OW29501   0.368   4.994  11.091
 9221SOL    HW129502   0.318   5.018  11.013
 9221SOL    HW229503   0.304   4.949  11.147
 9222SOL     OW29504   5.587   6.995  12.572
 9222SOL    HW129505   5.629   6.960  12.651
 9222SOL    HW229506   5.621   7.084  12.564
 9223SOL     OW29507   9.687   8.958  14.194
 9223SOL    HW129508   9.650   8.938  14.108
 9223SOL    HW229509   9.701   9.053  14.193
 9224SOL     OW29510  12.428   7.217   1.679
 9224SOL    HW129511  12.442   7.135   1.631
 9224SOL    HW229512  12.402   7.190   1.767
 9225SOL     OW29513  10.816  12.022   4.071
 9225SOL    HW129514  10.735  12.063   4.041
 9225SOL    HW229515  10.812  11.933   4.037
 9226SOL     OW29516  12.580   8.725   3.686
 9226SOL    HW129517  12.572   8.675   3.768
 9226SOL    HW229518  12.501   8.779   3.684
 9227SOL     OW29519  10.486  11.515   4.333
 9227SOL    HW129520  10.549  11.562   4.278
 9227SOL    HW229521  10.537  11.443   4.371
 9228SOL     OW29522  11.924   8.329  10.257
 9228SOL    HW129523  12.002   8.289  10.295
 9228SOL    HW229524  11.886   8.380  10.329
 9229SOL     OW29525  13.834   0.017  10.244
 9229SOL    HW129526  13.924   0.026  10.276
 9229SOL    HW229527  13.809  14.807  10.268
 9230SOL     OW29528   9.798   5.989   3.992
 9230SOL    HW129529   9.729   5.944   4.042
 9230SOL    HW229530   9.868   5.924   3.985
 9231SOL     OW29531  10.808   5.706   2.692
 9231SOL    HW129532  10.742   5.674   2.754
 9231SOL    HW229533  10.817   5.635   2.628
 9232SOL     OW29534   2.547  13.486  10.649
 9232SOL    HW129535   2.604  13.410  10.639
 9232SOL    HW229536   2.496  13.490  10.569
 9233SOL     OW29537   0.786   5.737  11.862
 9233SOL    HW129538   0.785   5.718  11.955
 9233SOL    HW229539   0.854   5.804  11.852
 9234SOL     OW29540   0.858   3.162   6.435
 9234SOL    HW129541   0.927   3.141   6.498
 9234SOL    HW229542   0.780   3.177   6.488
 9235SOL     OW29543   9.999  10.485   7.027
 9235SOL    HW129544   9.947  10.437   7.092
 9235SOL    HW229545   9.944  10.559   7.002
 9236SOL     OW29546   0.578  11.595   6.967
 9236SOL    HW129547   0.545  11.523   7.021
 9236SOL    HW229548   0.595  11.666   7.029
 9237SOL     OW29549  10.873  12.874   0.475
 9237SOL    HW129550  10.805  12.883   0.542
 9237SOL    HW229551  10.878  12.780   0.459
 9238SOL     OW29552   4.340   8.331   7.595
 9238SOL    HW129553   4.359   8.380   7.675
 9238SOL    HW229554   4.388   8.378   7.526
 9239SOL     OW29555   3.697   4.515   4.650
 9239SOL    HW129556   3.617   4.566   4.635
 9239SOL    HW229557   3.753   4.573   4.701
 9240SOL     OW29558   4.928   9.786   5.692
 9240SOL    HW129559   4.877   9.827   5.762
 9240SOL    HW229560   4.997   9.849   5.672
 9241SOL     OW29561  13.522   2.370   8.272
 9241SOL    HW129562  13.569   2.349   8.353
 9241SOL    HW229563  13.458   2.436   8.297
 9242SOL     OW29564   8.272  12.624   1.127
 9242SOL    HW129565   8.228  12.686   1.186
 9242SOL    HW229566   8.231  12.640   1.042
 9243SOL     OW29567   1.206  14.174  14.220
 9243SOL    HW129568   1.168  14.250  14.175
 9243SOL    HW229569   1.182  14.100  14.164
 9244SOL     OW29570   4.074   1.016   6.543
 9244SOL    HW129571   4.143   1.081   6.554
 9244SOL    HW229572   4.007   1.060   6.490
 9245SOL     OW29573   9.285   3.510   5.865
 9245SOL    HW129574   9.197   3.526   5.901
 9245SOL    HW229575   9.328   3.455   5.930
 9246SOL     OW29576  13.862   1.894   2.979
 9246SOL    HW129577  13.798   1.950   3.023
 9246SOL    HW229578  13.828   1.805   2.990
 9247SOL     OW29579   1.907  11.233  14.602
 9247SOL    HW129580   1.817  11.235  14.569
 9247SOL    HW229581   1.900  11.260  14.693
 9248SOL     OW29582   7.844  14.829  14.870
 9248SOL    HW129583   7.862  14.837  14.776
 9248SOL    HW229584   7.763  14.879   0.003
 9249SOL     OW29585  12.686   4.592   3.583
 9249SOL    HW129586  12.626   4.519   3.592
 9249SOL    HW229587  12.664   4.632   3.499
 9250SOL     OW29588  10.406   5.206   3.009
 9250SOL    HW129589  10.380   5.295   2.987
 9250SOL    HW229590  10.325   5.163   3.036
 9251SOL     OW29591  10.835  11.400   5.929
 9251SOL    HW129592  10.929  11.385   5.936
 9251SOL    HW229593  10.819  11.408   5.835
 9252SOL     OW29594  10.266  14.791   6.865
 9252SOL    HW129595  10.236  14.728   6.799
 9252SOL    HW229596  10.273  14.739   6.945
 9253SOL     OW29597   6.801  10.016   6.025
 9253SOL    HW129598   6.878   9.961   6.016
 9253SOL    HW229599   6.781  10.014   6.119
 9254SOL     OW29600   1.385  12.403  14.574
 9254SOL    HW129601   1.316  12.365  14.519
 9254SOL    HW229602   1.410  12.483  14.528
 9255SOL     OW29603   2.317  14.737   0.313
 9255SOL    HW129604   2.279  14.751   0.227
 9255SOL    HW229605   2.373  14.813   0.327
 9256SOL     OW29606   0.804   3.612   8.580
 9256SOL    HW129607   0.776   3.548   8.515
 9256SOL    HW229608   0.732   3.614   8.644
 9257SOL     OW29609  14.208   6.884   2.616
 9257SOL    HW129610  14.255   6.844   2.543
 9257SOL    HW229611  14.116   6.882   2.590
 9258SOL     OW29612   3.109   2.272   7.517
 9258SOL    HW129613   3.083   2.201   7.576
 9258SOL    HW229614   3.117   2.348   7.574
 9259SOL     OW29615  13.556   1.537   8.851
 9259SOL    HW129616  13.468   1.500   8.856
 9259SOL    HW229617  13.568   1.581   8.935
 9260SOL     OW29618   0.293   4.014   5.052
 9260SOL    HW129619   0.358   4.071   5.093
 9260SOL    HW229620   0.256   4.066   4.981
 9261SOL     OW29621  13.483   6.518  11.859
 9261SOL    HW129622  13.425   6.574  11.807
 9261SOL    HW229623  13.552   6.577  11.889
 9262SOL     OW29624  14.760  14.470   5.537
 9262SOL    HW129625  14.818  14.499   5.607
 9262SOL    HW229626  14.818  14.435   5.470
 9263SOL     OW29627   7.186   5.458   7.269
 9263SOL    HW129628   7.097   5.457   7.304
 9263SOL    HW229629   7.205   5.550   7.253
 9264SOL     OW29630  10.274   4.845  14.317
 9264SOL    HW129631  10.322   4.926  14.298
 9264SOL    HW229632  10.187   4.859  14.279
 9265SOL     OW29633   8.506  11.894   1.585
 9265SOL    HW129634   8.577  11.945   1.623
 9265SOL    HW229635   8.440  11.959   1.560
 9266SOL     OW29636  11.346   4.973   8.313
 9266SOL    HW129637  11.421   5.026   8.339
 9266SOL    HW229638  11.275   5.036   8.301
 9267SOL     OW29639   3.013   1.728  12.863
 9267SOL    HW129640   2.945   1.791  12.887
 9267SOL    HW229641   2.966   1.657  12.820
 9268SOL     OW29642   1.288  14.674   4.589
 9268SOL    HW129643   1.285  14.677   4.684
 9268SOL    HW229644   1.312  14.764   4.563
 9269SOL     OW29645  10.948   4.318  10.842
 9269SOL    HW129646  11.037   4.352  10.832
 9269SOL    HW229647  10.894   4.375  10.786
 9270SOL     OW29648  14.288   2.425  13.416
 9270SOL    HW129649  14.282   2.466  13.502
 9270SOL    HW229650  14.381   2.406  13.404
 9271SOL     OW29651  14.518   6.849  12.271
 9271SOL    HW129652  14.455   6.919  12.288
 9271SOL    HW229653  14.528   6.804  12.355
 9272SOL     OW29654  14.042   1.599   9.570
 9272SOL    HW129655  14.067   1.644   9.489
 9272SOL    HW229656  14.117   1.610   9.628
 9273SOL     OW29657  13.034  11.053   9.352
 9273SOL    HW129658  13.013  11.036   9.260
 9273SOL    HW229659  13.095  10.982   9.375
 9274SOL     OW29660   3.024   0.088   7.916
 9274SOL    HW129661   3.040   0.181   7.930
 9274SOL    HW229662   2.969   0.062   7.990
 9275SOL     OW29663  11.235  14.309   6.356
 9275SOL    HW129664  11.277  14.231   6.393
 9275SOL    HW229665  11.200  14.280   6.272
 9276SOL     OW29666   3.498   6.052   2.525
 9276SOL    HW129667   3.413   6.084   2.554
 9276SOL    HW229668   3.550   6.131   2.510
 9277SOL     OW29669   0.287   0.623   3.688
 9277SOL    HW129670   0.223   0.629   3.759
 9277SOL    HW229671   0.372   0.622   3.732
 9278SOL     OW29672   3.963  13.033   4.367
 9278SOL    HW129673   3.969  12.943   4.336
 9278SOL    HW229674   4.013  13.084   4.303
 9279SOL     OW29675   2.213   2.447   2.469
 9279SOL    HW129676   2.195   2.464   2.561
 9279SOL    HW229677   2.150   2.379   2.445
 9280SOL     OW29678   6.494   1.979   0.790
 9280SOL    HW129679   6.476   2.035   0.865
 9280SOL    HW229680   6.545   1.906   0.825
 9281SOL     OW29681   3.965   5.786  14.839
 9281SOL    HW129682   3.899   5.852  14.817
 9281SOL    HW229683   4.048   5.830  14.828
 9282SOL     OW29684   1.772  12.091   4.581
 9282SOL    HW129685   1.782  12.184   4.602
 9282SOL    HW229686   1.803  12.045   4.659
 9283SOL     OW29687   7.022   6.174   7.643
 9283SOL    HW129688   7.026   6.137   7.731
 9283SOL    HW229689   7.045   6.101   7.586
 9284SOL     OW29690   7.776   6.267  10.379
 9284SOL    HW129691   7.822   6.306  10.452
 9284SOL    HW229692   7.807   6.316  10.302
 9285SOL     OW29693   0.869   0.579   8.002
 9285SOL    HW129694   0.814   0.523   7.947
 9285SOL    HW229695   0.880   0.529   8.083
 9286SOL     OW29696   3.324   6.063   6.842
 9286SOL    HW129697   3.362   5.995   6.787
 9286SOL    HW229698   3.391   6.131   6.846
 9287SOL     OW29699   1.190   0.789  11.867
 9287SOL    HW129700   1.134   0.760  11.795
 9287SOL    HW229701   1.241   0.711  11.891
 9288SOL     OW29702  11.830  12.478   9.118
 9288SOL    HW129703  11.779  12.442   9.191
 9288SOL    HW229704  11.896  12.412   9.100
 9289SOL     OW29705  14.164   8.040   7.602
 9289SOL    HW129706  14.115   8.082   7.531
 9289SOL    HW229707  14.169   8.107   7.670
 9290SOL     OW29708   8.543   1.501   7.301
 9290SOL    HW129709   8.459   1.470   7.267
 9290SOL    HW229710   8.592   1.528   7.224
 9291SOL     OW29711  13.634  13.769   5.863
 9291SOL    HW129712  13.639  13.708   5.790
 9291SOL    HW229713  13.626  13.855   5.821
 9292SOL     OW29714  14.617   9.109  11.829
 9292SOL    HW129715  14.630   9.068  11.914
 9292SOL    HW229716  14.703   9.143  11.806
 9293SOL     OW29717   6.927   1.690   2.817
 9293SOL    HW129718   6.972   1.684   2.733
 9293SOL    HW229719   6.845   1.736   2.797
 9294SOL     OW29720  12.418  12.317  12.428
 9294SOL    HW129721  12.484  12.266  12.475
 9294SOL    HW229722  12.428  12.289  12.336
 9295SOL     OW29723   5.854   3.384   6.548
 9295SOL    HW129724   5.897   3.467   6.532
 9295SOL    HW229725   5.916   3.334   6.603
 9296SOL     OW29726  13.353   3.132   7.588
 9296SOL    HW129727  13.349   3.207   7.647
 9296SOL    HW229728  13.334   3.057   7.645
 9297SOL     OW29729   6.273  12.137   7.526
 9297SOL    HW129730   6.366  12.115   7.521
 9297SOL    HW229731   6.228  12.053   7.522
 9298SOL     OW29732  11.620  13.682   9.441
 9298SOL    HW129733  11.617  13.608   9.502
 9298SOL    HW229734  11.596  13.644   9.356
 9299SOL     OW29735   9.155   2.760   3.669
 9299SOL    HW129736   9.171   2.703   3.594
 9299SOL    HW229737   9.210   2.724   3.739
 9300SOL     OW29738   5.464   7.294   7.186
 9300SOL    HW129739   5.538   7.239   7.211
 9300SOL    HW229740   5.425   7.323   7.269
 9301SOL     OW29741   3.767  10.315  13.441
 9301SOL    HW129742   3.681  10.339  13.476
 9301SOL    HW229743   3.754  10.311  13.346
 9302SOL     OW29744   6.236   9.287   0.492
 9302SOL    HW129745   6.278   9.372   0.507
 9302SOL    HW229746   6.246   9.240   0.574
 9303SOL     OW29747  11.997   9.714   4.540
 9303SOL    HW129748  12.047   9.633   4.554
 9303SOL    HW229749  11.943   9.696   4.463
 9304SOL     OW29750  13.957  14.530   7.971
 9304SOL    HW129751  13.887  14.587   8.005
 9304SOL    HW229752  13.914  14.445   7.961
 9305SOL     OW29753   8.057   4.168   3.742
 9305SOL    HW129754   8.043   4.239   3.679
 9305SOL    HW229755   8.063   4.212   3.827
 9306SOL     OW29756   4.075   1.936  12.025
 9306SOL    HW129757   4.031   1.941  11.940
 9306SOL    HW229758   4.004   1.923  12.088
 9307SOL     OW29759   4.700  14.525   7.316
 9307SOL    HW129760   4.674  14.584   7.387
 9307SOL    HW229761   4.791  14.502   7.335
 9308SOL     OW29762   9.045   3.848  14.795
 9308SOL    HW129763   9.071   3.939  14.779
 9308SOL    HW229764   9.076   3.830   0.004
 9309SOL     OW29765   9.519   8.923   6.987
 9309SOL    HW129766   9.484   8.876   7.062
 9309SOL    HW229767   9.443   8.964   6.946
 9310SOL     OW29768   6.342   7.552  10.396
 9310SOL    HW129769   6.260   7.571  10.442
 9310SOL    HW229770   6.407   7.608  10.438
 9311SOL     OW29771   3.247   5.682   4.439
 9311SOL    HW129772   3.282   5.691   4.350
 9311SOL    HW229773   3.243   5.772   4.472
 9312SOL     OW29774  13.231   9.012   3.734
 9312SOL    HW129775  13.271   9.036   3.651
 9312SOL    HW229776  13.188   9.092   3.765
 9313SOL     OW29777  11.807   4.675  10.937
 9313SOL    HW129778  11.893   4.693  10.975
 9313SOL    HW229779  11.750   4.742  10.974
 9314SOL     OW29780  13.275   8.938   9.992
 9314SOL    HW129781  13.200   8.922  10.050
 9314SOL    HW229782  13.289   9.033   9.997
 9315SOL     OW29783  10.150  12.160   3.329
 9315SOL    HW129784  10.162  12.121   3.415
 9315SOL    HW229785  10.161  12.087   3.268
 9316SOL     OW29786   1.976   0.419   5.076
 9316SOL    HW129787   1.912   0.419   5.005
 9316SOL    HW229788   2.015   0.507   5.074
 9317SOL     OW29789   3.634  14.705   7.805
 9317SOL    HW129790   3.646  14.799   7.790
 9317SOL    HW229791   3.722  14.669   7.792
 9318SOL     OW29792  11.903  10.145   2.487
 9318SOL    HW129793  11.944  10.156   2.573
 9318SOL    HW229794  11.824  10.094   2.504
 9319SOL     OW29795  14.757  10.499  11.882
 9319SOL    HW129796  14.851  10.514  11.894
 9319SOL    HW229797  14.717  10.537  11.960
 9320SOL     OW29798   2.690   4.355   6.278
 9320SOL    HW129799   2.745   4.296   6.226
 9320SOL    HW229800   2.601   4.323   6.265
 9321SOL     OW29801   5.506  14.452  12.462
 9321SOL    HW129802   5.520  14.539  12.500
 9321SOL    HW229803   5.493  14.395  12.538
 9322SOL     OW29804  12.097   1.657   4.725
 9322SOL    HW129805  12.055   1.739   4.700
 9322SOL    HW229806  12.032   1.613   4.780
 9323SOL     OW29807  14.259   9.319   4.805
 9323SOL    HW129808  14.216   9.379   4.866
 9323SOL    HW229809  14.351   9.346   4.805
 9324SOL     OW29810  11.095   0.747   9.137
 9324SOL    HW129811  11.115   0.713   9.050
 9324SOL    HW229812  11.097   0.842   9.128
 9325SOL     OW29813  13.371   1.965  12.475
 9325SOL    HW129814  13.402   1.886  12.429
 9325SOL    HW229815  13.377   2.034  12.409
 9326SOL     OW29816  11.861   7.035   4.532
 9326SOL    HW129817  11.894   6.956   4.489
 9326SOL    HW229818  11.792   7.067   4.474
 9327SOL     OW29819  12.950   8.194   0.643
 9327SOL    HW129820  12.904   8.110   0.649
 9327SOL    HW229821  13.020   8.187   0.708
 9328SOL     OW29822  13.227  13.016   6.925
 9328SOL    HW129823  13.281  13.092   6.906
 9328SOL    HW229824  13.245  12.955   6.853
 9329SOL     OW29825  10.716   7.611   8.177
 9329SOL    HW129826  10.665   7.566   8.109
 9329SOL    HW229827  10.653   7.669   8.219
 9330SOL     OW29828   7.574   2.927   7.122
 9330SOL    HW129829   7.515   2.974   7.064
 9330SOL    HW229830   7.584   2.841   7.081
 9331SOL     OW29831   6.293   3.819   6.429
 9331SOL    HW129832   6.292   3.883   6.499
 9331SOL    HW229833   6.323   3.867   6.352
 9332SOL     OW29834   8.277   1.933   1.548
 9332SOL    HW129835   8.364   1.903   1.573
 9332SOL    HW229836   8.232   1.950   1.631
 9333SOL     OW29837   4.842  11.258   1.077
 9333SOL    HW129838   4.748  11.246   1.063
 9333SOL    HW229839   4.872  11.307   1.000
 9334SOL     OW29840  12.426   5.596   6.275
 9334SOL    HW129841  12.491   5.565   6.213
 9334SOL    HW229842  12.429   5.533   6.347
 9335SOL     OW29843   8.535   9.899   5.002
 9335SOL    HW129844   8.497   9.861   5.082
 9335SOL    HW229845   8.489   9.982   4.992
 9336SOL     OW29846   8.613  10.507   6.479
 9336SOL    HW129847   8.573  10.439   6.533
 9336SOL    HW229848   8.571  10.497   6.393
 9337SOL     OW29849  13.140   8.019   8.573
 9337SOL    HW129850  13.218   8.070   8.551
 9337SOL    HW229851  13.167   7.928   8.564
 9338SOL     OW29852   2.625  13.110  13.481
 9338SOL    HW129853   2.631  13.061  13.563
 9338SOL    HW229854   2.716  13.122  13.454
 9339SOL     OW29855   2.519  14.762   0.761
 9339SOL    HW129856   2.530  14.853   0.732
 9339SOL    HW229857   2.600  14.742   0.809
 9340SOL     OW29858   1.476   4.719   7.269
 9340SOL    HW129859   1.484   4.700   7.176
 9340SOL    HW229860   1.567   4.732   7.298
 9341SOL     OW29861   1.628   1.718   9.325
 9341SOL    HW129862   1.628   1.624   9.344
 9341SOL    HW229863   1.720   1.744   9.337
 9342SOL     OW29864  14.255   7.123   8.805
 9342SOL    HW129865  14.327   7.183   8.789
 9342SOL    HW229866  14.229   7.139   8.896
 9343SOL     OW29867   6.844  13.420   0.389
 9343SOL    HW129868   6.784  13.391   0.320
 9343SOL    HW229869   6.809  13.381   0.469
 9344SOL     OW29870   3.832   6.082   6.558
 9344SOL    HW129871   3.846   6.005   6.614
 9344SOL    HW229872   3.875   6.153   6.605
 9345SOL     OW29873  14.496  12.475   5.398
 9345SOL    HW129874  14.457  12.561   5.384
 9345SOL    HW229875  14.590  12.491   5.399
 9346SOL     OW29876   7.300   1.984   2.184
 9346SOL    HW129877   7.377   2.029   2.218
 9346SOL    HW229878   7.268   1.933   2.258
 9347SOL     OW29879   1.135  13.366   3.152
 9347SOL    HW129880   1.169  13.411   3.229
 9347SOL    HW229881   1.093  13.288   3.186
 9348SOL     OW29882   3.514   5.284   3.626
 9348SOL    HW129883   3.436   5.266   3.678
 9348SOL    HW229884   3.482   5.331   3.549
 9349SOL     OW29885  12.081   1.001   2.407
 9349SOL    HW129886  12.076   1.097   2.406
 9349SOL    HW229887  12.072   0.978   2.500
 9350SOL     OW29888   8.175  14.019   5.021
 9350SOL    HW129889   8.202  14.107   4.994
 9350SOL    HW229890   8.084  14.029   5.048
 9351SOL     OW29891   2.361   8.722  12.613
 9351SOL    HW129892   2.355   8.817  12.624
 9351SOL    HW229893   2.449   8.700  12.644
 9352SOL     OW29894   6.967   9.720   1.148
 9352SOL    HW129895   6.880   9.723   1.186
 9352SOL    HW229896   7.026   9.746   1.219
 9353SOL     OW29897   1.195  14.523   5.515
 9353SOL    HW129898   1.129  14.522   5.446
 9353SOL    HW229899   1.145  14.517   5.597
 9354SOL     OW29900   3.356  11.064   0.275
 9354SOL    HW129901   3.365  11.035   0.366
 9354SOL    HW229902   3.405  10.999   0.225
 9355SOL     OW29903   4.801   3.747   5.061
 9355SOL    HW129904   4.888   3.713   5.040
 9355SOL    HW229905   4.743   3.704   4.999
 9356SOL     OW29906   8.060  13.098   4.080
 9356SOL    HW129907   8.083  13.013   4.119
 9356SOL    HW229908   8.136  13.121   4.026
 9357SOL     OW29909   6.418   8.491   8.765
 9357SOL    HW129910   6.446   8.548   8.837
 9357SOL    HW229911   6.386   8.551   8.698
 9358SOL     OW29912   5.062  10.768   5.123
 9358SOL    HW129913   5.133  10.823   5.091
 9358SOL    HW229914   4.996  10.771   5.054
 9359SOL     OW29915   5.829   6.331  14.536
 9359SOL    HW129916   5.778   6.269  14.587
 9359SOL    HW229917   5.917   6.292  14.531
 9360SOL     OW29918   8.252   1.018   8.318
 9360SOL    HW129919   8.223   0.927   8.331
 9360SOL    HW229920   8.214   1.043   8.234
 9361SOL     OW29921   7.010   5.393   1.649
 9361SOL    HW129922   6.956   5.457   1.601
 9361SOL    HW229923   7.089   5.441   1.672
 9362SOL     OW29924  13.453  10.163   5.559
 9362SOL    HW129925  13.405  10.110   5.623
 9362SOL    HW229926  13.404  10.153   5.478
 9363SOL     OW29927  14.734  14.520  12.130
 9363SOL    HW129928  14.783  14.602  12.139
 9363SOL    HW229929  14.646  14.542  12.161
 9364SOL     OW29930   4.004   5.364  12.931
 9364SOL    HW129931   3.931   5.303  12.920
 9364SOL    HW229932   4.048   5.333  13.011
 9365SOL     OW29933   0.393  13.341  11.238
 9365SOL    HW129934   0.399  13.344  11.142
 9365SOL    HW229935   0.448  13.414  11.267
 9366SOL     OW29936   2.089   6.746   4.014
 9366SOL    HW129937   2.082   6.833   4.054
 9366SOL    HW229938   2.105   6.687   4.088
 9367SOL     OW29939   2.353   5.993   6.868
 9367SOL    HW129940   2.368   6.085   6.892
 9367SOL    HW229941   2.331   5.950   6.950
 9368SOL     OW29942   9.799   1.208   5.672
 9368SOL    HW129943   9.740   1.221   5.747
 9368SOL    HW229944   9.801   1.113   5.660
 9369SOL     OW29945   2.325  12.744   4.517
 9369SOL    HW129946   2.244  12.727   4.469
 9369SOL    HW229947   2.298  12.792   4.595
 9370SOL     OW29948  10.339   0.086   8.635
 9370SOL    HW129949  10.346   0.182   8.633
 9370SOL    HW229950  10.261   0.067   8.582
 9371SOL     OW29951   2.402   3.794  12.335
 9371SOL    HW129952   2.370   3.851  12.404
 9371SOL    HW229953   2.424   3.712  12.379
 9372SOL     OW29954   5.183  11.874   1.136
 9372SOL    HW129955   5.130  11.938   1.183
 9372SOL    HW229956   5.255  11.854   1.196
 9373SOL     OW29957   9.641   9.756   1.868
 9373SOL    HW129958   9.666   9.794   1.952
 9373SOL    HW229959   9.564   9.807   1.841
 9374SOL     OW29960  12.343  11.244   5.389
 9374SOL    HW129961  12.382  11.219   5.472
 9374SOL    HW229962  12.373  11.334   5.375
 9375SOL     OW29963   8.889   4.278   2.875
 9375SOL    HW129964   8.875   4.253   2.783
 9375SOL    HW229965   8.810   4.250   2.920
 9376SOL     OW29966   9.092  11.012   0.199
 9376SOL    HW129967   9.166  11.018   0.139
 9376SOL    HW229968   9.015  11.032   0.145
 9377SOL     OW29969  11.535  13.031   8.336
 9377SOL    HW129970  11.628  13.010   8.339
 9377SOL    HW229971  11.497  12.962   8.281
 9378SOL     OW29972  14.495   1.013  12.829
 9378SOL    HW129973  14.581   0.993  12.791
 9378SOL    HW229974  14.436   1.017  12.754
 9379SOL     OW29975   2.863   5.507  14.859
 9379SOL    HW129976   2.804   5.552   0.040
 9379SOL    HW229977   2.864   5.562  14.780
 9380SOL     OW29978   9.285   6.273  10.223
 9380SOL    HW129979   9.297   6.193  10.172
 9380SOL    HW229980   9.374   6.296  10.253
 9381SOL     OW29981   7.053   5.290   0.385
 9381SOL    HW129982   7.064   5.233   0.309
 9381SOL    HW229983   7.122   5.356   0.375
 9382SOL     OW29984   5.759   7.456   6.436
 9382SOL    HW129985   5.719   7.524   6.383
 9382SOL    HW229986   5.826   7.417   6.380
 9383SOL     OW29987   4.050   1.959  12.774
 9383SOL    HW129988   4.140   1.976  12.747
 9383SOL    HW229989   4.059   1.902  12.851
 9384SOL     OW29990   0.136   6.629  11.370
 9384SOL    HW129991   0.133   6.534  11.377
 9384SOL    HW229992   0.119   6.646  11.277
 9385SOL     OW29993   1.172   7.270  14.823
 9385SOL    HW129994   1.213   7.343  14.778
 9385SOL    HW229995   1.144   7.306   0.028
 9386SOL     OW29996   2.139   3.929   6.782
 9386SOL    HW129997   2.073   3.913   6.714
 9386SOL    HW229998   2.116   4.014   6.818
 9387SOL     OW29999   4.248   1.630  13.720
 9387SOL    HW130000   4.322   1.634  13.659
 9387SOL    HW230001   4.173   1.606  13.665
 9388SOL     OW30002   6.418   4.765   5.901
 9388SOL    HW130003   6.494   4.709   5.917
 9388SOL    HW230004   6.366   4.718   5.836
 9389SOL     OW30005   0.018   4.043   0.104
 9389SOL    HW130006   0.094   4.057   0.046
 9389SOL    HW230007   0.008   4.126   0.150
 9390SOL     OW30008   8.697   5.290   9.199
 9390SOL    HW130009   8.772   5.241   9.166
 9390SOL    HW230010   8.736   5.360   9.251
 9391SOL     OW30011   7.649  13.015  10.982
 9391SOL    HW130012   7.659  12.938  10.926
 9391SOL    HW230013   7.739  13.044  10.998
 9392SOL     OW30014   6.509  11.653  14.813
 9392SOL    HW130015   6.586  11.644  14.869
 9392SOL    HW230016   6.534  11.611  14.731
 9393SOL     OW30017  14.511  13.489   8.816
 9393SOL    HW130018  14.503  13.463   8.724
 9393SOL    HW230019  14.595  13.453   8.844
 9394SOL     OW30020  12.945  13.843  14.418
 9394SOL    HW130021  13.039  13.835  14.435
 9394SOL    HW230022  12.912  13.754  14.425
 9395SOL     OW30023   1.210   2.934   2.734
 9395SOL    HW130024   1.132   2.957   2.682
 9395SOL    HW230025   1.283   2.951   2.675
 9396SOL     OW30026  10.748  13.005   4.515
 9396SOL    HW130027  10.665  13.041   4.483
 9396SOL    HW230028  10.815  13.049   4.463
 9397SOL     OW30029  12.916   5.410   1.179
 9397SOL    HW130030  12.991   5.379   1.128
 9397SOL    HW230031  12.931   5.375   1.267
 9398SOL     OW30032   2.811   6.858  11.497
 9398SOL    HW130033   2.764   6.927  11.449
 9398SOL    HW230034   2.904   6.880  11.484
 9399SOL     OW30035  11.038   0.746   0.621
 9399SOL    HW130036  11.015   0.818   0.563
 9399SOL    HW230037  10.962   0.734   0.677
 9400SOL     OW30038   6.051   0.071   7.402
 9400SOL    HW130039   5.995   0.127   7.456
 9400SOL    HW230040   6.140   0.104   7.417
 9401SOL     OW30041   1.077   1.718   4.971
 9401SOL    HW130042   1.160   1.678   4.946
 9401SOL    HW230043   1.031   1.650   5.020
 9402SOL     OW30044   6.802   5.938   0.868
 9402SOL    HW130045   6.815   6.011   0.928
 9402SOL    HW230046   6.875   5.945   0.806
 9403SOL     OW30047   9.247   9.338  13.672
 9403SOL    HW130048   9.249   9.432  13.692
 9403SOL    HW230049   9.154   9.319  13.656
 9404SOL     OW30050  12.629   5.796   3.625
 9404SOL    HW130051  12.540   5.775   3.596
 9404SOL    HW230052  12.667   5.845   3.552
 9405SOL     OW30053  11.046   7.640  11.647
 9405SOL    HW130054  10.979   7.588  11.602
 9405SOL    HW230055  11.128   7.596  11.627
 9406SOL     OW30056   1.477  11.139   9.137
 9406SOL    HW130057   1.391  11.178   9.149
 9406SOL    HW230058   1.495  11.148   9.043
 9407SOL     OW30059   1.368   5.128  11.507
 9407SOL    HW130060   1.330   5.118  11.420
 9407SOL    HW230061   1.329   5.209  11.541
 9408SOL     OW30062  14.501   8.965  13.628
 9408SOL    HW130063  14.472   8.894  13.687
 9408SOL    HW230064  14.434   8.968  13.560
 9409SOL     OW30065  10.685   2.951  12.821
 9409SOL    HW130066  10.659   2.996  12.901
 9409SOL    HW230067  10.606   2.904  12.793
 9410SOL     OW30068   8.152   3.871   9.018
 9410SOL    HW130069   8.109   3.954   9.041
 9410SOL    HW230070   8.217   3.895   8.952
 9411SOL     OW30071   2.607   1.528   6.532
 9411SOL    HW130072   2.626   1.529   6.626
 9411SOL    HW230073   2.692   1.543   6.491
 9412SOL     OW30074   4.454   0.698   2.883
 9412SOL    HW130075   4.434   0.702   2.790
 9412SOL    HW230076   4.549   0.686   2.887
 9413SOL     OW30077  14.558   9.522   0.408
 9413SOL    HW130078  14.653   9.531   0.411
 9413SOL    HW230079  14.527   9.609   0.381
 9414SOL     OW30080   5.288  13.126   8.042
 9414SOL    HW130081   5.250  13.178   7.971
 9414SOL    HW230082   5.288  13.036   8.008
 9415SOL     OW30083   6.959   9.137   8.731
 9415SOL    HW130084   6.933   9.091   8.811
 9415SOL    HW230085   6.879   9.183   8.704
 9416SOL     OW30086   7.389   8.577  11.290
 9416SOL    HW130087   7.341   8.515  11.346
 9416SOL    HW230088   7.357   8.663  11.318
 9417SOL     OW30089  10.108   3.933   2.337
 9417SOL    HW130090  10.173   3.888   2.283
 9417SOL    HW230091  10.054   3.862   2.373
 9418SOL     OW30092   3.500  13.937   2.279
 9418SOL    HW130093   3.511  13.884   2.200
 9418SOL    HW230094   3.504  14.027   2.249
 9419SOL     OW30095   5.933  14.583  11.691
 9419SOL    HW130096   5.975  14.664  11.719
 9419SOL    HW230097   5.871  14.611  11.624
 9420SOL     OW30098  13.818   6.881   8.655
 9420SOL    HW130099  13.790   6.791   8.674
 9420SOL    HW230100  13.913   6.876   8.646
 9421SOL     OW30101   2.792   1.465  14.192
 9421SOL    HW130102   2.812   1.516  14.270
 9421SOL    HW230103   2.840   1.382  14.204
 9422SOL     OW30104   1.294   4.027  12.448
 9422SOL    HW130105   1.308   4.025  12.353
 9422SOL    HW230106   1.326   4.113  12.476
 9423SOL     OW30107  11.673  11.013  13.490
 9423SOL    HW130108  11.602  11.019  13.554
 9423SOL    HW230109  11.639  11.060  13.413
 9424SOL     OW30110  12.379  12.200   0.204
 9424SOL    HW130111  12.353  12.186   0.113
 9424SOL    HW230112  12.309  12.255   0.241
 9425SOL     OW30113  10.043  11.888   4.287
 9425SOL    HW130114  10.075  11.832   4.357
 9425SOL    HW230115  10.004  11.963   4.332
 9426SOL     OW30116   5.194  11.720   9.464
 9426SOL    HW130117   5.154  11.804   9.484
 9426SOL    HW230118   5.289  11.736   9.467
 9427SOL     OW30119  13.964   2.081   0.013
 9427SOL    HW130120  13.906   2.008  14.874
 9427SOL    HW230121  14.025   2.048   0.079
 9428SOL     OW30122   6.346   5.945  10.444
 9428SOL    HW130123   6.364   5.882  10.515
 9428SOL    HW230124   6.255   5.972  10.459
 9429SOL     OW30125  12.007   6.923  14.619
 9429SOL    HW130126  11.921   6.882  14.628
 9429SOL    HW230127  12.014   6.980  14.696
 9430SOL     OW30128  14.071  14.317  11.817
 9430SOL    HW130129  14.009  14.338  11.747
 9430SOL    HW230130  14.144  14.274  11.773
 9431SOL     OW30131  10.336  11.089   7.149
 9431SOL    HW130132  10.263  11.131   7.104
 9431SOL    HW230133  10.413  11.140   7.123
 9432SOL     OW30134   2.964   5.217   9.371
 9432SOL    HW130135   3.047   5.205   9.418
 9432SOL    HW230136   2.921   5.132   9.378
 9433SOL     OW30137   7.955   4.641   6.182
 9433SOL    HW130138   8.015   4.664   6.111
 9433SOL    HW230139   7.995   4.565   6.224
 9434SOL     OW30140  13.406  13.199   6.839
 9434SOL    HW130141  13.393  13.287   6.874
 9434SOL    HW230142  13.474  13.209   6.772
 9435SOL     OW30143   1.326   5.878   2.227
 9435SOL    HW130144   1.320   5.924   2.311
 9435SOL    HW230145   1.387   5.930   2.175
 9436SOL     OW30146  12.784   0.058   5.073
 9436SOL    HW130147  12.826  14.853   5.084
 9436SOL    HW230148  12.731   0.069   5.152
 9437SOL     OW30149   6.477   5.518   6.927
 9437SOL    HW130150   6.435   5.442   6.968
 9437SOL    HW230151   6.567   5.516   6.960
 9438SOL     OW30152   7.648  13.705  12.483
 9438SOL    HW130153   7.709  13.752  12.425
 9438SOL    HW230154   7.665  13.742  12.570
 9439SOL     OW30155   9.645  12.935   7.381
 9439SOL    HW130156   9.579  13.003   7.367
 9439SOL    HW230157   9.654  12.892   7.296
 9440SOL     OW30158  11.603   0.751   6.777
 9440SOL    HW130159  11.553   0.709   6.847
 9440SOL    HW230160  11.625   0.837   6.812
 9441SOL     OW30161   9.288  11.483   0.985
 9441SOL    HW130162   9.370  11.475   0.936
 9441SOL    HW230163   9.220  11.470   0.919
 9442SOL     OW30164   1.834  11.803   0.326
 9442SOL    HW130165   1.921  11.771   0.303
 9442SOL    HW230166   1.831  11.893   0.293
 9443SOL     OW30167  12.957   0.116   9.129
 9443SOL    HW130168  13.008   0.179   9.179
 9443SOL    HW230169  12.929   0.164   9.051
 9444SOL     OW30170   6.521  11.335   0.069
 9444SOL    HW130171   6.456  11.291   0.124
 9444SOL    HW230172   6.598  11.345   0.125
 9445SOL     OW30173  11.411   4.308   9.012
 9445SOL    HW130174  11.469   4.233   9.029
 9445SOL    HW230175  11.426   4.329   8.920
 9446SOL     OW30176  10.300   8.636   6.872
 9446SOL    HW130177  10.363   8.567   6.894
 9446SOL    HW230178  10.221   8.613   6.922
 9447SOL     OW30179   1.324   1.125  10.481
 9447SOL    HW130180   1.313   1.216  10.456
 9447SOL    HW230181   1.337   1.078  10.398
 9448SOL     OW30182   7.545   0.712   1.535
 9448SOL    HW130183   7.451   0.704   1.551
 9448SOL    HW230184   7.554   0.703   1.440
 9449SOL     OW30185  11.237   3.380   2.187
 9449SOL    HW130186  11.225   3.360   2.280
 9449SOL    HW230187  11.268   3.297   2.149
 9450SOL     OW30188   1.752  12.709   3.738
 9450SOL    HW130189   1.768  12.616   3.727
 9450SOL    HW230190   1.697  12.716   3.816
 9451SOL     OW30191   5.562   7.922  11.280
 9451SOL    HW130192   5.534   7.833  11.259
 9451SOL    HW230193   5.491   7.957  11.335
 9452SOL     OW30194  10.916  11.141  13.318
 9452SOL    HW130195  10.851  11.088  13.273
 9452SOL    HW230196  10.977  11.167  13.248
 9453SOL     OW30197   3.328   7.971  14.320
 9453SOL    HW130198   3.419   7.971  14.350
 9453SOL    HW230199   3.288   8.047  14.363
 9454SOL     OW30200  14.843  12.167   9.082
 9454SOL    HW130201   0.037  12.106   9.087
 9454SOL    HW230202  14.802  12.162   9.169
 9455SOL     OW30203   5.925  13.129   6.903
 9455SOL    HW130204   5.886  13.045   6.925
 9455SOL    HW230205   5.964  13.159   6.985
 9456SOL     OW30206  10.196   0.051   2.605
 9456SOL    HW130207  10.263   0.118   2.593
 9456SOL    HW230208  10.222  14.861   2.545
 9457SOL     OW30209   7.660  10.279  12.306
 9457SOL    HW130210   7.713  10.321  12.374
 9457SOL    HW230211   7.691  10.188  12.303
 9458SOL     OW30212   9.607  11.807  11.361
 9458SOL    HW130213   9.612  11.867  11.287
 9458SOL    HW230214   9.630  11.860  11.437
 9459SOL     OW30215   9.730  10.956  12.217
 9459SOL    HW130216   9.736  10.958  12.122
 9459SOL    HW230217   9.647  10.998  12.237
 9460SOL     OW30218   2.630   4.638   9.215
 9460SOL    HW130219   2.622   4.575   9.286
 9460SOL    HW230220   2.547   4.685   9.214
 9461SOL     OW30221  13.877  11.044   2.912
 9461SOL    HW130222  13.866  11.088   2.828
 9461SOL    HW230223  13.788  11.033   2.946
 9462SOL     OW30224   6.045  11.081   5.357
 9462SOL    HW130225   6.130  11.123   5.372
 9462SOL    HW230226   6.012  11.122   5.278
 9463SOL     OW30227   8.979   9.762   5.191
 9463SOL    HW130228   8.963   9.851   5.221
 9463SOL    HW230229   8.895   9.732   5.157
 9464SOL     OW30230   1.289  10.983   0.569
 9464SOL    HW130231   1.249  10.919   0.510
 9464SOL    HW230232   1.359  11.022   0.517
 9465SOL     OW30233   6.744   0.143   8.964
 9465SOL    HW130234   6.826   0.110   8.928
 9465SOL    HW230235   6.771   0.210   9.028
 9466SOL     OW30236  13.179  14.098  14.837
 9466SOL    HW130237  13.097  14.049  14.827
 9466SOL    HW230238  13.159  14.186  14.806
 9467SOL     OW30239  11.015   8.227   4.254
 9467SOL    HW130240  10.933   8.265   4.287
 9467SOL    HW230241  11.077   8.240   4.326
 9468SOL     OW30242   3.932   7.473  14.773
 9468SOL    HW130243   3.972   7.386  14.771
 9468SOL    HW230244   3.985   7.522  14.837
 9469SOL     OW30245  13.619  13.487  14.407
 9469SOL    HW130246  13.575  13.490  14.492
 9469SOL    HW230247  13.561  13.434  14.352
 9470SOL     OW30248  11.978   9.570  12.283
 9470SOL    HW130249  11.946   9.646  12.331
 9470SOL    HW230250  12.073   9.575  12.291
 9471SOL     OW30251  11.580   8.477  13.673
 9471SOL    HW130252  11.627   8.460  13.755
 9471SOL    HW230253  11.576   8.392  13.630
 9472SOL     OW30254   8.022   8.341  13.988
 9472SOL    HW130255   7.938   8.347  13.943
 9472SOL    HW230256   8.055   8.431  13.989
 9473SOL     OW30257  10.982  10.384   0.222
 9473SOL    HW130258  11.004  10.475   0.243
 9473SOL    HW230259  10.970  10.383   0.127
 9474SOL     OW30260   0.063  12.061   4.735
 9474SOL    HW130261  14.869  12.049   4.795
 9474SOL    HW230262   0.024  12.051   4.648
 9475SOL     OW30263  10.174   7.823   1.091
 9475SOL    HW130264  10.140   7.856   1.007
 9475SOL    HW230265  10.231   7.893   1.123
 9476SOL     OW30266   9.350   4.651   6.669
 9476SOL    HW130267   9.315   4.566   6.696
 9476SOL    HW230268   9.389   4.635   6.583
 9477SOL     OW30269   7.750   2.758  10.669
 9477SOL    HW130270   7.709   2.685  10.714
 9477SOL    HW230271   7.721   2.836  10.717
 9478SOL     OW30272  11.698  13.943   3.873
 9478SOL    HW130273  11.745  13.859   3.866
 9478SOL    HW230274  11.617  13.921   3.918
 9479SOL     OW30275   3.710   1.867  14.036
 9479SOL    HW130276   3.724   1.793  14.094
 9479SOL    HW230277   3.730   1.944  14.089
 9480SOL     OW30278   7.731  12.548   4.951
 9480SOL    HW130279   7.789  12.471   4.958
 9480SOL    HW230280   7.644  12.513   4.967
 9481SOL     OW30281  13.857   8.241  11.177
 9481SOL    HW130282  13.833   8.149  11.164
 9481SOL    HW230283  13.847   8.281  11.091
 9482SOL     OW30284   6.479   5.439  12.224
 9482SOL    HW130285   6.388   5.463  12.204
 9482SOL    HW230286   6.485   5.445  12.319
 9483SOL     OW30287   4.661  14.133   8.359
 9483SOL    HW130288   4.712  14.214   8.372
 9483SOL    HW230289   4.583  14.162   8.313
 9484SOL     OW30290  13.767   4.209   6.335
 9484SOL    HW130291  13.837   4.171   6.281
 9484SOL    HW230292  13.743   4.290   6.289
 9485SOL     OW30293   8.783  13.898   8.550
 9485SOL    HW130294   8.697  13.939   8.535
 9485SOL    HW230295   8.763  13.813   8.588
 9486SOL     OW30296   6.711   5.098  13.200
 9486SOL    HW130297   6.785   5.159  13.204
 9486SOL    HW230298   6.687   5.096  13.107
 9487SOL     OW30299   5.132  13.796  12.629
 9487SOL    HW130300   5.052  13.755  12.663
 9487SOL    HW230301   5.128  13.779  12.535
 9488SOL     OW30302   0.766   6.579   8.372
 9488SOL    HW130303   0.776   6.656   8.428
 9488SOL    HW230304   0.706   6.522   8.420
 9489SOL     OW30305   3.726   6.592   3.837
 9489SOL    HW130306   3.747   6.618   3.927
 9489SOL    HW230307   3.805   6.546   3.807
 9490SOL     OW30308   5.070  14.773  10.583
 9490SOL    HW130309   5.058  14.681  10.608
 9490SOL    HW230310   5.027  14.780  10.497
 9491SOL     OW30311  10.471  13.217   5.797
 9491SOL    HW130312  10.537  13.276   5.833
 9491SOL    HW230313  10.493  13.209   5.704
 9492SOL     OW30314   9.373   2.385   4.100
 9492SOL    HW130315   9.420   2.357   4.179
 9492SOL    HW230316   9.368   2.480   4.108
 9493SOL     OW30317   4.639  11.796   7.680
 9493SOL    HW130318   4.679  11.737   7.744
 9493SOL    HW230319   4.634  11.881   7.725
 9494SOL     OW30320   5.984  13.075   5.083
 9494SOL    HW130321   6.005  13.029   5.165
 9494SOL    HW230322   6.034  13.029   5.016
 9495SOL     OW30323   1.139  10.148   7.668
 9495SOL    HW130324   1.106  10.202   7.596
 9495SOL    HW230325   1.202  10.088   7.627
 9496SOL     OW30326   1.674   9.484   5.750
 9496SOL    HW130327   1.588   9.467   5.712
 9496SOL    HW230328   1.718   9.540   5.686
 9497SOL     OW30329   2.853  12.190  10.718
 9497SOL    HW130330   2.877  12.098  10.713
 9497SOL    HW230331   2.758  12.191  10.731
 9498SOL     OW30332  11.322   0.476  13.229
 9498SOL    HW130333  11.389   0.535  13.196
 9498SOL    HW230334  11.262   0.463  13.155
 9499SOL     OW30335   6.398  12.151   7.255
 9499SOL    HW130336   6.436  12.066   7.232
 9499SOL    HW230337   6.329  12.131   7.317
 9500SOL     OW30338  12.796  11.388  12.633
 9500SOL    HW130339  12.855  11.314  12.626
 9500SOL    HW230340  12.710  11.353  12.612
 9501SOL     OW30341   8.827  10.578   2.541
 9501SOL    HW130342   8.882  10.649   2.507
 9501SOL    HW230343   8.889  10.511   2.568
 9502SOL     OW30344   5.664   9.581  10.676
 9502SOL    HW130345   5.702   9.644  10.615
 9502SOL    HW230346   5.711   9.500  10.660
 9503SOL     OW30347   4.605  13.578   2.239
 9503SOL    HW130348   4.546  13.610   2.170
 9503SOL    HW230349   4.586  13.634   2.315
 9504SOL     OW30350   6.773   7.453   6.256
 9504SOL    HW130351   6.740   7.482   6.171
 9504SOL    HW230352   6.856   7.499   6.267
 9505SOL     OW30353   4.769   0.805  13.745
 9505SOL    HW130354   4.809   0.825  13.830
 9505SOL    HW230355   4.699   0.870  13.737
 9506SOL     OW30356  14.242  10.925   1.818
 9506SOL    HW130357  14.253  11.017   1.840
 9506SOL    HW230358  14.255  10.921   1.723
 9507SOL     OW30359   2.551   1.018  13.784
 9507SOL    HW130360   2.467   1.025  13.831
 9507SOL    HW230361   2.613   1.066  13.838
 9508SOL     OW30362   9.778   5.364   1.168
 9508SOL    HW130363   9.718   5.431   1.201
 9508SOL    HW230364   9.728   5.316   1.102
 9509SOL     OW30365   0.760   7.419   8.323
 9509SOL    HW130366   0.702   7.476   8.272
 9509SOL    HW230367   0.702   7.378   8.388
 9510SOL     OW30368   0.454  12.749   0.270
 9510SOL    HW130369   0.449  12.802   0.349
 9510SOL    HW230370   0.389  12.787   0.211
 9511SOL     OW30371   4.405   7.325   7.642
 9511SOL    HW130372   4.413   7.411   7.600
 9511SOL    HW230373   4.487   7.280   7.622
 9512SOL     OW30374   6.785   0.772   5.858
 9512SOL    HW130375   6.728   0.838   5.817
 9512SOL    HW230376   6.862   0.821   5.886
 9513SOL     OW30377  12.596  10.858  10.589
 9513SOL    HW130378  12.533  10.890  10.524
 9513SOL    HW230379  12.576  10.906  10.668
 9514SOL     OW30380   2.284   5.158   3.433
 9514SOL    HW130381   2.248   5.106   3.505
 9514SOL    HW230382   2.238   5.127   3.355
 9515SOL     OW30383   0.293   9.070  10.767
 9515SOL    HW130384   0.350   9.037  10.698
 9515SOL    HW230385   0.340   9.145  10.803
 9516SOL     OW30386  10.704   4.298   7.241
 9516SOL    HW130387  10.651   4.220   7.227
 9516SOL    HW230388  10.713   4.305   7.336
 9517SOL     OW30389  12.147  13.287   6.241
 9517SOL    HW130390  12.158  13.380   6.260
 9517SOL    HW230391  12.092  13.285   6.163
 9518SOL     OW30392   0.137   7.782   2.370
 9518SOL    HW130393   0.227   7.801   2.398
 9518SOL    HW230394   0.108   7.863   2.327
 9519SOL     OW30395   4.909   5.676   7.394
 9519SOL    HW130396   4.991   5.654   7.439
 9519SOL    HW230397   4.878   5.756   7.436
 9520SOL     OW30398   7.535  10.470   4.352
 9520SOL    HW130399   7.479  10.407   4.398
 9520SOL    HW230400   7.612  10.478   4.408
 9521SOL     OW30401   5.671  13.589   8.911
 9521SOL    HW130402   5.616  13.549   8.844
 9521SOL    HW230403   5.730  13.518   8.939
 9522SOL     OW30404   7.935   6.363  12.726
 9522SOL    HW130405   7.984   6.407  12.657
 9522SOL    HW230406   7.854   6.413  12.734
 9523SOL     OW30407  11.685   2.726   9.950
 9523SOL    HW130408  11.645   2.809   9.979
 9523SOL    HW230409  11.640   2.706   9.868
 9524SOL     OW30410  10.829   6.299   5.224
 9524SOL    HW130411  10.922   6.316   5.237
 9524SOL    HW230412  10.825   6.237   5.151
 9525SOL     OW30413  10.438   6.959   3.709
 9525SOL    HW130414  10.520   7.002   3.733
 9525SOL    HW230415  10.462   6.868   3.690
 9526SOL     OW30416   5.428   2.167   3.552
 9526SOL    HW130417   5.506   2.112   3.565
 9526SOL    HW230418   5.382   2.162   3.636
 9527SOL     OW30419  11.369   1.160   1.734
 9527SOL    HW130420  11.450   1.121   1.765
 9527SOL    HW230421  11.302   1.128   1.794
 9528SOL     OW30422   7.431  13.186  13.746
 9528SOL    HW130423   7.347  13.148  13.773
 9528SOL    HW230424   7.436  13.169  13.652
 9529SOL     OW30425  10.681   2.143   9.454
 9529SOL    HW130426  10.611   2.083   9.481
 9529SOL    HW230427  10.736   2.092   9.396
 9530SOL     OW30428  13.691   6.681   3.403
 9530SOL    HW130429  13.705   6.774   3.385
 9530SOL    HW230430  13.776   6.648   3.431
 9531SOL     OW30431   4.870   1.118   0.143
 9531SOL    HW130432   4.884   1.091   0.234
 9531SOL    HW230433   4.781   1.152   0.142
 9532SOL     OW30434   3.862   0.251  14.451
 9532SOL    HW130435   3.932   0.293  14.500
 9532SOL    HW230436   3.897   0.165  14.427
 9533SOL     OW30437   8.659   4.208   8.915
 9533SOL    HW130438   8.566   4.196   8.936
 9533SOL    HW230439   8.666   4.299   8.888
 9534SOL     OW30440  13.433   9.739   0.208
 9534SOL    HW130441  13.426   9.780   0.121
 9534SOL    HW230442  13.429   9.645   0.191
 9535SOL     OW30443   0.336   6.297   8.028
 9535SOL    HW130444   0.264   6.274   7.970
 9535SOL    HW230445   0.397   6.224   8.021
 9536SOL     OW30446   3.484  10.179   2.439
 9536SOL    HW130447   3.439  10.164   2.357
 9536SOL    HW230448   3.463  10.102   2.493
 9537SOL     OW30449   3.435   1.159  10.831
 9537SOL    HW130450   3.474   1.221  10.893
 9537SOL    HW230451   3.397   1.091  10.886
 9538SOL     OW30452  11.144  12.046  11.797
 9538SOL    HW130453  11.064  12.051  11.744
 9538SOL    HW230454  11.214  12.063  11.734
 9539SOL     OW30455   1.058  13.396  12.725
 9539SOL    HW130456   0.977  13.344  12.721
 9539SOL    HW230457   1.028  13.487  12.730
 9540SOL     OW30458   0.028   3.347   8.010
 9540SOL    HW130459  14.877   3.299   7.934
 9540SOL    HW230460   0.122   3.361   7.993
 9541SOL     OW30461   4.501   5.027   2.772
 9541SOL    HW130462   4.585   5.022   2.725
 9541SOL    HW230463   4.500   4.949   2.828
 9542SOL     OW30464  11.077   4.257   6.881
 9542SOL    HW130465  11.142   4.314   6.842
 9542SOL    HW230466  11.008   4.248   6.815
 9543SOL     OW30467   5.138   2.331  11.212
 9543SOL    HW130468   5.209   2.267  11.204
 9543SOL    HW230469   5.114   2.329  11.305
 9544SOL     OW30470   9.649   8.492   0.088
 9544SOL    HW130471   9.675   8.433   0.018
 9544SOL    HW230472   9.693   8.575   0.067
 9545SOL     OW30473   9.283   6.230   3.850
 9545SOL    HW130474   9.337   6.162   3.809
 9545SOL    HW230475   9.212   6.181   3.893
 9546SOL     OW30476  14.022  10.676   5.421
 9546SOL    HW130477  13.927  10.680   5.431
 9546SOL    HW230478  14.043  10.583   5.435
 9547SOL     OW30479   8.682  10.772   4.538
 9547SOL    HW130480   8.588  10.788   4.550
 9547SOL    HW230481   8.700  10.694   4.589
 9548SOL     OW30482   1.909   3.796   9.729
 9548SOL    HW130483   1.823   3.822   9.762
 9548SOL    HW230484   1.967   3.868   9.754
 9549SOL     OW30485  11.316   5.015   7.380
 9549SOL    HW130486  11.251   5.020   7.310
 9549SOL    HW230487  11.382   4.954   7.347
 9550SOL     OW30488  10.249   7.874  12.167
 9550SOL    HW130489  10.266   7.894  12.259
 9550SOL    HW230490  10.298   7.794  12.151
 9551SOL     OW30491   6.478   9.486   4.764
 9551SOL    HW130492   6.386   9.461   4.773
 9551SOL    HW230493   6.476   9.581   4.752
 9552SOL     OW30494   0.783  11.776   6.302
 9552SOL    HW130495   0.721  11.755   6.372
 9552SOL    HW230496   0.796  11.870   6.309
 9553SOL     OW30497   2.669  11.660   8.299
 9553SOL    HW130498   2.696  11.641   8.209
 9553SOL    HW230499   2.596  11.721   8.291
 9554SOL     OW30500  11.715  12.143   6.587
 9554SOL    HW130501  11.669  12.225   6.604
 9554SOL    HW230502  11.750  12.153   6.499
 9555SOL     OW30503   2.678  11.847   9.663
 9555SOL    HW130504   2.616  11.872   9.595
 9555SOL    HW230505   2.635  11.872   9.745
 9556SOL     OW30506   9.600   6.558   1.126
 9556SOL    HW130507   9.560   6.598   1.203
 9556SOL    HW230508   9.638   6.632   1.078
 9557SOL     OW30509   6.691   6.878  10.400
 9557SOL    HW130510   6.694   6.823  10.478
 9557SOL    HW230511   6.690   6.816  10.327
 9558SOL     OW30512   1.923   0.933   6.690
 9558SOL    HW130513   1.896   1.000   6.753
 9558SOL    HW230514   1.983   0.979   6.631
 9559SOL     OW30515  12.202  12.717   8.933
 9559SOL    HW130516  12.154  12.767   9.000
 9559SOL    HW230517  12.139  12.652   8.902
 9560SOL     OW30518   1.692   0.242  10.858
 9560SOL    HW130519   1.787   0.237  10.868
 9560SOL    HW230520   1.668   0.324  10.901
 9561SOL     OW30521   8.344  12.426  14.642
 9561SOL    HW130522   8.310  12.510  14.673
 9561SOL    HW230523   8.436  12.427  14.667
 9562SOL     OW30524  13.680  13.738  11.040
 9562SOL    HW130525  13.741  13.664  11.038
 9562SOL    HW230526  13.648  13.740  11.130
 9563SOL     OW30527   4.376   7.055   9.685
 9563SOL    HW130528   4.322   7.132   9.675
 9563SOL    HW230529   4.412   7.062   9.774
 9564SOL     OW30530   7.520   7.534   9.455
 9564SOL    HW130531   7.452   7.515   9.391
 9564SOL    HW230532   7.553   7.448   9.481
 9565SOL     OW30533   3.897   4.529   8.521
 9565SOL    HW130534   3.835   4.594   8.490
 9565SOL    HW230535   3.850   4.446   8.515
 9566SOL     OW30536  10.353  12.417   8.188
 9566SOL    HW130537  10.409  12.378   8.122
 9566SOL    HW230538  10.273  12.364   8.187
 9567SOL     OW30539   5.159  10.780   4.660
 9567SOL    HW130540   5.088  10.772   4.596
 9567SOL    HW230541   5.154  10.700   4.712
 9568SOL     OW30542   2.341   4.563   7.424
 9568SOL    HW130543   2.340   4.481   7.473
 9568SOL    HW230544   2.250   4.577   7.398
 9569SOL     OW30545   1.089  14.618   9.543
 9569SOL    HW130546   1.129  14.562   9.476
 9569SOL    HW230547   1.090  14.565   9.623
 9570SOL     OW30548  10.326  13.411   3.492
 9570SOL    HW130549  10.375  13.383   3.569
 9570SOL    HW230550  10.292  13.330   3.454
 9571SOL     OW30551   8.318   0.810   5.597
 9571SOL    HW130552   8.406   0.833   5.627
 9571SOL    HW230553   8.262   0.878   5.635
 9572SOL     OW30554   8.388   8.419   9.433
 9572SOL    HW130555   8.446   8.438   9.359
 9572SOL    HW230556   8.300   8.430   9.398
 9573SOL     OW30557   9.381   4.149   6.294
 9573SOL    HW130558   9.437   4.226   6.300
 9573SOL    HW230559   9.420   4.097   6.223
 9574SOL     OW30560   1.373  13.245   9.419
 9574SOL    HW130561   1.318  13.299   9.476
 9574SOL    HW230562   1.357  13.280   9.331
 9575SOL     OW30563   3.184   3.807   1.880
 9575SOL    HW130564   3.177   3.784   1.973
 9575SOL    HW230565   3.254   3.750   1.847
 9576SOL     OW30566   1.682   8.980   8.377
 9576SOL    HW130567   1.602   8.940   8.341
 9576SOL    HW230568   1.706   8.922   8.450
 9577SOL     OW30569  12.752   7.633  10.267
 9577SOL    HW130570  12.832   7.582  10.253
 9577SOL    HW230571  12.712   7.639  10.180
 9578SOL     OW30572   4.218   3.745   7.555
 9578SOL    HW130573   4.229   3.742   7.460
 9578SOL    HW230574   4.191   3.657   7.580
 9579SOL     OW30575   4.416   2.746   5.576
 9579SOL    HW130576   4.388   2.656   5.593
 9579SOL    HW230577   4.423   2.785   5.663
 9580SOL     OW30578  12.143   5.013   4.259
 9580SOL    HW130579  12.076   4.958   4.219
 9580SOL    HW230580  12.136   5.097   4.213
 9581SOL     OW30581  11.861  10.469   9.565
 9581SOL    HW130582  11.780  10.499   9.606
 9581SOL    HW230583  11.924  10.463   9.637
 9582SOL     OW30584   6.789   5.845   6.133
 9582SOL    HW130585   6.820   5.934   6.113
 9582SOL    HW230586   6.834   5.822   6.214
 9583SOL     OW30587  13.883  11.860   0.255
 9583SOL    HW130588  13.929  11.944   0.253
 9583SOL    HW230589  13.842  11.858   0.341
 9584SOL     OW30590   9.054  12.355  12.236
 9584SOL    HW130591   8.969  12.342  12.277
 9584SOL    HW230592   9.117  12.336  12.306
 9585SOL     OW30593   7.743   4.921   7.928
 9585SOL    HW130594   7.813   4.967   7.883
 9585SOL    HW230595   7.692   4.879   7.858
 9586SOL     OW30596  11.378   3.314   7.654
 9586SOL    HW130597  11.431   3.357   7.587
 9586SOL    HW230598  11.409   3.350   7.737
 9587SOL     OW30599  11.287   5.905  12.620
 9587SOL    HW130600  11.290   5.816  12.653
 9587SOL    HW230601  11.283   5.961  12.698
 9588SOL     OW30602   1.862  12.436  12.867
 9588SOL    HW130603   1.942  12.429  12.815
 9588SOL    HW230604   1.791  12.442  12.803
 9589SOL     OW30605   0.313   0.023   5.657
 9589SOL    HW130606   0.262   0.033   5.738
 9589SOL    HW230607   0.249   0.029   5.587
 9590SOL     OW30608   0.164   8.845   7.823
 9590SOL    HW130609   0.084   8.830   7.873
 9590SOL    HW230610   0.199   8.757   7.806
 9591SOL     OW30611   1.527  11.467   7.309
 9591SOL    HW130612   1.617  11.463   7.275
 9591SOL    HW230613   1.476  11.504   7.237
 9592SOL     OW30614  12.684  11.543  13.925
 9592SOL    HW130615  12.627  11.574  13.855
 9592SOL    HW230616  12.771  11.541  13.886
 9593SOL     OW30617  11.046   4.774   6.313
 9593SOL    HW130618  11.046   4.692   6.264
 9593SOL    HW230619  10.966   4.818   6.286
 9594SOL     OW30620  11.795  14.120   8.284
 9594SOL    HW130621  11.716  14.094   8.236
 9594SOL    HW230622  11.800  14.058   8.357
 9595SOL     OW30623   0.039   5.771   0.289
 9595SOL    HW130624   0.071   5.793   0.376
 9595SOL    HW230625   0.049   5.676   0.283
 9596SOL     OW30626   3.742   7.275   0.569
 9596SOL    HW130627   3.800   7.350   0.580
 9596SOL    HW230628   3.695   7.292   0.488
 9597SOL     OW30629  12.215   4.098   1.426
 9597SOL    HW130630  12.126   4.128   1.445
 9597SOL    HW230631  12.220   4.011   1.467
 9598SOL     OW30632  14.465  14.089   9.117
 9598SOL    HW130633  14.439  14.003   9.083
 9598SOL    HW230634  14.548  14.073   9.161
 9599SOL     OW30635  12.456  13.480  11.892
 9599SOL    HW130636  12.447  13.551  11.828
 9599SOL    HW230637  12.550  13.470  11.904
 9600SOL     OW30638   0.744   1.832  10.950
 9600SOL    HW130639   0.671   1.796  10.900
 9600SOL    HW230640   0.727   1.805  11.040
 9601SOL     OW30641   6.194  14.221   2.303
 9601SOL    HW130642   6.122  14.200   2.245
 9601SOL    HW230643   6.161  14.201   2.391
 9602SOL     OW30644   8.575  14.409   8.599
 9602SOL    HW130645   8.619  14.434   8.518
 9602SOL    HW230646   8.483  14.402   8.575
 9603SOL     OW30647   2.296   6.131   2.797
 9603SOL    HW130648   2.327   6.198   2.737
 9603SOL    HW230649   2.246   6.178   2.863
 9604SOL     OW30650   1.781  11.730   8.650
 9604SOL    HW130651   1.700  11.768   8.615
 9604SOL    HW230652   1.777  11.749   8.744
 9605SOL     OW30653  10.043   2.855   2.362
 9605SOL    HW130654  10.047   2.897   2.276
 9605SOL    HW230655  10.125   2.806   2.368
 9606SOL     OW30656   6.828  10.824  12.497
 9606SOL    HW130657   6.831  10.865  12.411
 9606SOL    HW230658   6.797  10.735  12.481
 9607SOL     OW30659   7.617   1.051   1.208
 9607SOL    HW130660   7.607   1.142   1.236
 9607SOL    HW230661   7.530   1.024   1.181
 9608SOL     OW30662   4.114   5.432  10.964
 9608SOL    HW130663   4.064   5.389  11.034
 9608SOL    HW230664   4.109   5.525  10.985
 9609SOL     OW30665   5.579   9.549  11.152
 9609SOL    HW130666   5.638   9.477  11.174
 9609SOL    HW230667   5.615   9.585  11.071
 9610SOL     OW30668   5.616  11.506   7.311
 9610SOL    HW130669   5.570  11.560   7.246
 9610SOL    HW230670   5.703  11.545   7.316
 9611SOL     OW30671  10.638   5.164   1.581
 9611SOL    HW130672  10.587   5.083   1.581
 9611SOL    HW230673  10.717   5.143   1.631
 9612SOL     OW30674   1.264   8.308   5.316
 9612SOL    HW130675   1.346   8.355   5.327
 9612SOL    HW230676   1.286   8.233   5.261
 9613SOL     OW30677   4.502  13.181   9.129
 9613SOL    HW130678   4.438  13.244   9.160
 9613SOL    HW230679   4.543  13.223   9.053
 9614SOL     OW30680   3.580  11.627   1.443
 9614SOL    HW130681   3.600  11.715   1.413
 9614SOL    HW230682   3.665  11.585   1.453
 9615SOL     OW30683   5.088   8.833   1.097
 9615SOL    HW130684   5.088   8.785   1.014
 9615SOL    HW230685   5.156   8.899   1.086
 9616SOL     OW30686   8.075   7.782  14.820
 9616SOL    HW130687   8.154   7.822  14.856
 9616SOL    HW230688   8.003   7.823  14.867
 9617SOL     OW30689   0.456  10.614   0.560
 9617SOL    HW130690   0.461  10.661   0.477
 9617SOL    HW230691   0.395  10.542   0.543
 9618SOL     OW30692   1.062  12.776   9.281
 9618SOL    HW130693   1.072  12.859   9.233
 9618SOL    HW230694   0.968  12.771   9.300
 9619SOL     OW30695   8.810   5.409   2.131
 9619SOL    HW130696   8.904   5.421   2.115
 9619SOL    HW230697   8.781   5.492   2.169
 9620SOL     OW30698   8.532   6.263   7.536
 9620SOL    HW130699   8.452   6.214   7.515
 9620SOL    HW230700   8.568   6.287   7.451
 9621SOL     OW30701   6.676   7.907  10.324
 9621SOL    HW130702   6.696   7.982  10.380
 9621SOL    HW230703   6.659   7.835  10.385
 9622SOL     OW30704   2.494   6.370   9.278
 9622SOL    HW130705   2.559   6.390   9.347
 9622SOL    HW230706   2.445   6.451   9.267
 9623SOL     OW30707   8.502   9.103   9.805
 9623SOL    HW130708   8.590   9.106   9.841
 9623SOL    HW230709   8.475   9.195   9.798
 9624SOL     OW30710   7.981  12.988   9.391
 9624SOL    HW130711   7.948  12.915   9.340
 9624SOL    HW230712   7.977  13.063   9.331
 9625SOL     OW30713   0.610  13.313   1.169
 9625SOL    HW130714   0.521  13.341   1.144
 9625SOL    HW230715   0.653  13.294   1.086
 9626SOL     OW30716  13.365   2.872   0.295
 9626SOL    HW130717  13.383   2.819   0.217
 9626SOL    HW230718  13.302   2.938   0.264
 9627SOL     OW30719  13.721   0.885   9.706
 9627SOL    HW130720  13.678   0.910   9.788
 9627SOL    HW230721  13.805   0.850   9.734
 9628SOL     OW30722  10.537  13.407   1.832
 9628SOL    HW130723  10.611  13.438   1.779
 9628SOL    HW230724  10.471  13.475   1.822
 9629SOL     OW30725   1.540   7.688   6.895
 9629SOL    HW130726   1.624   7.682   6.940
 9629SOL    HW230727   1.563   7.701   6.803
 9630SOL     OW30728   8.997   5.104   5.925
 9630SOL    HW130729   8.921   5.046   5.931
 9630SOL    HW230730   9.056   5.061   5.863
 9631SOL     OW30731   2.815   9.102  12.139
 9631SOL    HW130732   2.875   9.135  12.206
 9631SOL    HW230733   2.873   9.082  12.064
 9632SOL     OW30734   1.677   0.953  10.773
 9632SOL    HW130735   1.723   0.918  10.849
 9632SOL    HW230736   1.623   0.880  10.742
 9633SOL     OW30737  11.798   1.233   2.405
 9633SOL    HW130738  11.894   1.235   2.410
 9633SOL    HW230739  11.769   1.285   2.479
 9634SOL     OW30740  12.627   9.000   2.924
 9634SOL    HW130741  12.665   8.958   3.001
 9634SOL    HW230742  12.579   9.075   2.958
 9635SOL     OW30743   1.076  13.811  14.290
 9635SOL    HW130744   1.068  13.715  14.290
 9635SOL    HW230745   1.163  13.828  14.255
 9636SOL     OW30746   3.628   4.688   2.413
 9636SOL    HW130747   3.710   4.698   2.364
 9636SOL    HW230748   3.651   4.631   2.487
 9637SOL     OW30749   2.449   6.057   9.524
 9637SOL    HW130750   2.495   6.139   9.540
 9637SOL    HW230751   2.409   6.068   9.438
 9638SOL     OW30752   8.393   2.542  13.958
 9638SOL    HW130753   8.398   2.534  13.863
 9638SOL    HW230754   8.299   2.547  13.977
 9639SOL     OW30755   7.093   7.279   7.170
 9639SOL    HW130756   7.061   7.369   7.168
 9639SOL    HW230757   7.018   7.226   7.141
 9640SOL     OW30758   7.819  10.161   4.599
 9640SOL    HW130759   7.749  10.105   4.633
 9640SOL    HW230760   7.775  10.244   4.580
 9641SOL     OW30761  11.229  14.290   8.713
 9641SOL    HW130762  11.304  14.338   8.677
 9641SOL    HW230763  11.182  14.355   8.765
 9642SOL     OW30764  10.891  14.458   5.345
 9642SOL    HW130765  10.961  14.520   5.364
 9642SOL    HW230766  10.871  14.473   5.253
 9643SOL     OW30767   2.554   8.111   7.743
 9643SOL    HW130768   2.571   8.101   7.837
 9643SOL    HW230769   2.604   8.189   7.718
 9644SOL     OW30770   0.294  12.278   6.377
 9644SOL    HW130771   0.341  12.358   6.400
 9644SOL    HW230772   0.360  12.209   6.381
 9645SOL     OW30773   6.348   6.434   2.076
 9645SOL    HW130774   6.271   6.382   2.099
 9645SOL    HW230775   6.337   6.515   2.125
 9646SOL     OW30776   4.618  14.035  12.489
 9646SOL    HW130777   4.704  14.068  12.517
 9646SOL    HW230778   4.592  14.094  12.418
 9647SOL     OW30779   1.786   5.559   8.099
 9647SOL    HW130780   1.788   5.476   8.147
 9647SOL    HW230781   1.700   5.560   8.057
 9648SOL     OW30782  10.001  11.631   1.540
 9648SOL    HW130783  10.094  11.608   1.534
 9648SOL    HW230784   9.996  11.687   1.617
 9649SOL     OW30785  14.556   5.630   8.083
 9649SOL    HW130786  14.471   5.663   8.053
 9649SOL    HW230787  14.613   5.707   8.079
 9650SOL     OW30788   2.901   3.118  10.382
 9650SOL    HW130789   2.917   3.106  10.289
 9650SOL    HW230790   2.895   3.212  10.394
 9651SOL     OW30791   1.331   3.707  12.350
 9651SOL    HW130792   1.281   3.632  12.382
 9651SOL    HW230793   1.278   3.743  12.279
 9652SOL     OW30794   0.873   8.598  12.794
 9652SOL    HW130795   0.871   8.692  12.812
 9652SOL    HW230796   0.961   8.584  12.757
 9653SOL     OW30797  12.328   5.785   6.711
 9653SOL    HW130798  12.303   5.852   6.775
 9653SOL    HW230799  12.325   5.703   6.760
 9654SOL     OW30800   8.140   7.010   8.253
 9654SOL    HW130801   8.193   7.085   8.226
 9654SOL    HW230802   8.107   7.034   8.339
 9655SOL     OW30803   0.449   8.165   8.661
 9655SOL    HW130804   0.499   8.149   8.742
 9655SOL    HW230805   0.385   8.231   8.686
 9656SOL     OW30806   0.082  14.314   7.464
 9656SOL    HW130807  14.872  14.312   7.430
 9656SOL    HW230808   0.123  14.236   7.428
 9657SOL     OW30809   8.158  14.238  11.572
 9657SOL    HW130810   8.234  14.238  11.513
 9657SOL    HW230811   8.196  14.223  11.659
 9658SOL     OW30812  13.118  10.583   6.579
 9658SOL    HW130813  13.161  10.558   6.660
 9658SOL    HW230814  13.102  10.677   6.588
 9659SOL     OW30815   8.286   4.877   7.014
 9659SOL    HW130816   8.353   4.854   6.950
 9659SOL    HW230817   8.259   4.965   6.991
 9660SOL     OW30818   5.288   1.083   3.597
 9660SOL    HW130819   5.307   1.128   3.679
 9660SOL    HW230820   5.315   1.145   3.529
 9661SOL     OW30821   8.799   7.969  12.479
 9661SOL    HW130822   8.773   7.877  12.472
 9661SOL    HW230823   8.717   8.018  12.472
 9662SOL     OW30824  13.403   3.683   3.712
 9662SOL    HW130825  13.478   3.688   3.770
 9662SOL    HW230826  13.430   3.623   3.642
 9663SOL     OW30827   2.887   4.131   8.188
 9663SOL    HW130828   2.879   4.204   8.127
 9663SOL    HW230829   2.982   4.116   8.196
 9664SOL     OW30830   5.433  13.125   9.937
 9664SOL    HW130831   5.347  13.108   9.976
 9664SOL    HW230832   5.422  13.106   9.844
 9665SOL     OW30833  13.048  10.235   9.678
 9665SOL    HW130834  13.012  10.149   9.656
 9665SOL    HW230835  13.128  10.241   9.625
 9666SOL     OW30836  13.606  14.303   6.065
 9666SOL    HW130837  13.594  14.240   5.994
 9666SOL    HW230838  13.617  14.249   6.143
 9667SOL     OW30839   5.899  12.457   8.093
 9667SOL    HW130840   5.938  12.499   8.170
 9667SOL    HW230841   5.813  12.498   8.084
 9668SOL     OW30842   4.046  12.865   2.539
 9668SOL    HW130843   4.061  12.954   2.570
 9668SOL    HW230844   4.119  12.848   2.479
 9669SOL     OW30845   2.448   4.938  12.514
 9669SOL    HW130846   2.371   4.944  12.571
 9669SOL    HW230847   2.514   4.993  12.555
 9670SOL     OW30848   9.969   3.465  12.646
 9670SOL    HW130849   9.899   3.406  12.674
 9670SOL    HW230850   9.949   3.485  12.554
 9671SOL     OW30851   7.193  10.831   2.775
 9671SOL    HW130852   7.187  10.819   2.870
 9671SOL    HW230853   7.254  10.763   2.746
 9672SOL     OW30854   4.974  13.216   0.332
 9672SOL    HW130855   4.990  13.202   0.425
 9672SOL    HW230856   4.972  13.128   0.294
 9673SOL     OW30857   9.413   2.083   5.068
 9673SOL    HW130858   9.437   2.157   5.013
 9673SOL    HW230859   9.350   2.119   5.130
 9674SOL     OW30860   6.568   9.990  11.025
 9674SOL    HW130861   6.579   9.941  11.107
 9674SOL    HW230862   6.487  10.039  11.037
 9675SOL     OW30863   7.330   5.597   6.852
 9675SOL    HW130864   7.284   5.597   6.768
 9675SOL    HW230865   7.336   5.689   6.876
 9676SOL     OW30866   4.465   4.410   6.107
 9676SOL    HW130867   4.547   4.454   6.130
 9676SOL    HW230868   4.463   4.333   6.164
 9677SOL     OW30869   7.079   8.182   6.774
 9677SOL    HW130870   7.126   8.231   6.841
 9677SOL    HW230871   7.139   8.181   6.699
 9678SOL     OW30872   7.312   2.127   4.981
 9678SOL    HW130873   7.315   2.212   5.025
 9678SOL    HW230874   7.235   2.132   4.924
 9679SOL     OW30875  12.689   7.454   9.270
 9679SOL    HW130876  12.725   7.406   9.196
 9679SOL    HW230877  12.759   7.514   9.297
 9680SOL     OW30878   5.205  12.977   5.612
 9680SOL    HW130879   5.221  12.919   5.538
 9680SOL    HW230880   5.149  12.927   5.671
 9681SOL     OW30881   3.806  10.402   3.885
 9681SOL    HW130882   3.785  10.309   3.892
 9681SOL    HW230883   3.796  10.422   3.792
 9682SOL     OW30884   6.804   5.776  10.173
 9682SOL    HW130885   6.729   5.786  10.232
 9682SOL    HW230886   6.784   5.834  10.099
 9683SOL     OW30887   2.062   9.826   9.904
 9683SOL    HW130888   1.985   9.804   9.852
 9683SOL    HW230889   2.039   9.802   9.994
 9684SOL     OW30890   4.544   7.887   6.985
 9684SOL    HW130891   4.585   7.830   6.920
 9684SOL    HW230892   4.520   7.966   6.937
 9685SOL     OW30893   9.896  14.368   2.869
 9685SOL    HW130894   9.900  14.460   2.894
 9685SOL    HW230895   9.987  14.345   2.849
 9686SOL     OW30896   4.618   6.138  14.098
 9686SOL    HW130897   4.713   6.127  14.089
 9686SOL    HW230898   4.590   6.061  14.148
 9687SOL     OW30899   5.366   6.608   6.605
 9687SOL    HW130900   5.387   6.520   6.574
 9687SOL    HW230901   5.426   6.665   6.558
 9688SOL     OW30902   7.073   2.114  12.038
 9688SOL    HW130903   7.081   2.200  12.080
 9688SOL    HW230904   7.092   2.131  11.946
 9689SOL     OW30905  11.990   7.234   9.957
 9689SOL    HW130906  11.960   7.320   9.988
 9689SOL    HW230907  12.061   7.253   9.896
 9690SOL     OW30908  12.969  11.757   6.587
 9690SOL    HW130909  13.012  11.798   6.661
 9690SOL    HW230910  12.891  11.715   6.624
 9691SOL     OW30911   0.264   2.128  12.068
 9691SOL    HW130912   0.354   2.157  12.086
 9691SOL    HW230913   0.256   2.044  12.113
 9692SOL     OW30914   3.873   9.153   2.574
 9692SOL    HW130915   3.884   9.128   2.482
 9692SOL    HW230916   3.957   9.134   2.615
 9693SOL     OW30917   0.329  14.636  12.519
 9693SOL    HW130918   0.361  14.553  12.554
 9693SOL    HW230919   0.371  14.644  12.434
 9694SOL     OW30920   8.698  14.360  14.456
 9694SOL    HW130921   8.754  14.327  14.386
 9694SOL    HW230922   8.700  14.455  14.446
 9695SOL     OW30923   6.103   8.720   4.490
 9695SOL    HW130924   6.138   8.649   4.544
 9695SOL    HW230925   6.026   8.681   4.446
 9696SOL     OW30926   9.501  14.217   5.468
 9696SOL    HW130927   9.503  14.311   5.485
 9696SOL    HW230928   9.566  14.204   5.399
 9697SOL     OW30929  12.859   4.972  10.691
 9697SOL    HW130930  12.805   4.924  10.629
 9697SOL    HW230931  12.880   4.908  10.759
 9698SOL     OW30932   8.844   0.331   3.287
 9698SOL    HW130933   8.816   0.244   3.314
 9698SOL    HW230934   8.928   0.317   3.242
 9699SOL     OW30935  12.024   0.859   2.171
 9699SOL    HW130936  12.116   0.884   2.159
 9699SOL    HW230937  12.002   0.893   2.258
 9700SOL     OW30938   2.102  14.383   1.414
 9700SOL    HW130939   2.162  14.375   1.340
 9700SOL    HW230940   2.024  14.425   1.377
 9701SOL     OW30941  11.146  13.468   9.695
 9701SOL    HW130942  11.113  13.384   9.663
 9701SOL    HW230943  11.198  13.446   9.772
 9702SOL     OW30944   3.429   9.860   8.871
 9702SOL    HW130945   3.349   9.878   8.822
 9702SOL    HW230946   3.489   9.822   8.807
 9703SOL     OW30947  12.001   6.910  10.976
 9703SOL    HW130948  11.925   6.931  10.921
 9703SOL    HW230949  12.050   6.992  10.983
 9704SOL     OW30950  11.677   7.263   4.025
 9704SOL    HW130951  11.646   7.348   4.054
 9704SOL    HW230952  11.625   7.243   3.947
 9705SOL     OW30953  12.889   3.355  12.946
 9705SOL    HW130954  12.973   3.353  12.901
 9705SOL    HW230955  12.824   3.362  12.876
 9706SOL     OW30956  10.033  14.796   6.168
 9706SOL    HW130957   9.942  14.790   6.195
 9706SOL    HW230958  10.048   0.010   6.153
 9707SOL     OW30959   1.349  11.019   5.150
 9707SOL    HW130960   1.281  11.082   5.128
 9707SOL    HW230961   1.318  10.937   5.112
 9708SOL     OW30962  13.415  11.561   2.609
 9708SOL    HW130963  13.330  11.517   2.603
 9708SOL    HW230964  13.400  11.648   2.574
 9709SOL     OW30965  11.040  13.220   6.320
 9709SOL    HW130966  11.046  13.188   6.230
 9709SOL    HW230967  11.031  13.141   6.373
 9710SOL     OW30968  10.803   3.365   7.633
 9710SOL    HW130969  10.732   3.305   7.656
 9710SOL    HW230970  10.800   3.371   7.538
 9711SOL     OW30971   7.053   6.763   9.691
 9711SOL    HW130972   7.011   6.827   9.634
 9711SOL    HW230973   6.981   6.709   9.724
 9712SOL     OW30974   3.275  14.401  14.021
 9712SOL    HW130975   3.365  14.434  14.021
 9712SOL    HW230976   3.232  14.450  13.950
 9713SOL     OW30977   6.098  12.033   5.097
 9713SOL    HW130978   6.043  12.066   5.026
 9713SOL    HW230979   6.126  11.947   5.067
 9714SOL     OW30980   3.519   8.745   9.637
 9714SOL    HW130981   3.467   8.821   9.662
 9714SOL    HW230982   3.610   8.776   9.640
 9715SOL     OW30983  14.330   8.235   9.211
 9715SOL    HW130984  14.403   8.290   9.183
 9715SOL    HW230985  14.355   8.147   9.184
 9716SOL     OW30986  11.374   0.343  14.748
 9716SOL    HW130987  11.402   0.254  14.724
 9716SOL    HW230988  11.355   0.337  14.841
 9717SOL     OW30989  14.483   9.473   5.250
 9717SOL    HW130990  14.488   9.401   5.313
 9717SOL    HW230991  14.573   9.483   5.217
 9718SOL     OW30992  13.832  13.873   4.792
 9718SOL    HW130993  13.812  13.780   4.784
 9718SOL    HW230994  13.809  13.910   4.707
 9719SOL     OW30995  11.183   5.753   8.766
 9719SOL    HW130996  11.258   5.763   8.825
 9719SOL    HW230997  11.127   5.689   8.810
 9720SOL     OW30998   5.817   9.202  10.978
 9720SOL    HW130999   5.816   9.107  10.969
 9720SOL    HW231000   5.785   9.234  10.893
 9721SOL     OW31001   4.053   7.253  14.785
 9721SOL    HW131002   3.998   7.181  14.753
 9721SOL    HW231003   4.131   7.210  14.821
 9722SOL     OW31004   3.417   1.808   4.751
 9722SOL    HW131005   3.411   1.729   4.805
 9722SOL    HW231006   3.499   1.799   4.704
 9723SOL     OW31007   8.351   5.086  12.024
 9723SOL    HW131008   8.307   5.169  12.011
 9723SOL    HW231009   8.437   5.097  11.983
 9724SOL     OW31010   7.399   7.180  10.836
 9724SOL    HW131011   7.347   7.261  10.840
 9724SOL    HW231012   7.336   7.110  10.851
 9725SOL     OW31013   2.475   6.955   5.483
 9725SOL    HW131014   2.412   7.026   5.494
 9725SOL    HW231015   2.464   6.926   5.392
 9726SOL     OW31016  14.362   4.712  11.724
 9726SOL    HW131017  14.332   4.754  11.643
 9726SOL    HW231018  14.321   4.626  11.722
 9727SOL     OW31019   3.770   4.911  11.906
 9727SOL    HW131020   3.816   4.857  11.843
 9727SOL    HW231021   3.814   4.996  11.902
 9728SOL     OW31022  11.452   4.059   2.827
 9728SOL    HW131023  11.445   4.152   2.804
 9728SOL    HW231024  11.387   4.046   2.896
 9729SOL     OW31025  10.710   3.127   7.360
 9729SOL    HW131026  10.726   3.221   7.360
 9729SOL    HW231027  10.716   3.101   7.451
 9730SOL     OW31028  10.238   0.140   3.392
 9730SOL    HW131029  10.222   0.230   3.361
 9730SOL    HW231030  10.241   0.087   3.313
 9731SOL     OW31031   9.859   7.618  11.691
 9731SOL    HW131032   9.896   7.688  11.744
 9731SOL    HW231033   9.764   7.628  11.701
 9732SOL     OW31034   7.028  11.743   7.687
 9732SOL    HW131035   7.123  11.730   7.697
 9732SOL    HW231036   7.006  11.808   7.754
 9733SOL     OW31037   1.602  14.396   9.778
 9733SOL    HW131038   1.599  14.302   9.795
 9733SOL    HW231039   1.515  14.428   9.803
 9734SOL     OW31040  13.765   4.786   6.574
 9734SOL    HW131041  13.839   4.777   6.514
 9734SOL    HW231042  13.765   4.705   6.625
 9735SOL     OW31043  13.984  10.435   6.459
 9735SOL    HW131044  13.956  10.416   6.370
 9735SOL    HW231045  14.050  10.368   6.478
 9736SOL     OW31046  14.235   9.565   8.067
 9736SOL    HW131047  14.199   9.527   8.148
 9736SOL    HW231048  14.305   9.623   8.098
 9737SOL     OW31049  10.624  10.831  10.137
 9737SOL    HW131050  10.696  10.864  10.083
 9737SOL    HW231051  10.605  10.744  10.101
 9738SOL     OW31052   2.802   1.741  14.834
 9738SOL    HW131053   2.880   1.686  14.835
 9738SOL    HW231054   2.730   1.679  14.848
 9739SOL     OW31055   5.919   7.358   0.490
 9739SOL    HW131056   5.993   7.334   0.546
 9739SOL    HW231057   5.889   7.275   0.453
 9740SOL     OW31058  13.873   2.341   5.984
 9740SOL    HW131059  13.790   2.385   6.004
 9740SOL    HW231060  13.856   2.248   6.002
 9741SOL     OW31061   8.235   6.292   8.103
 9741SOL    HW131062   8.240   6.334   8.189
 9741SOL    HW231063   8.320   6.250   8.091
 9742SOL     OW31064   3.572   1.888   1.208
 9742SOL    HW131065   3.491   1.939   1.212
 9742SOL    HW231066   3.601   1.883   1.299
 9743SOL     OW31067   8.046   3.265  13.785
 9743SOL    HW131068   8.104   3.202  13.827
 9743SOL    HW231069   8.102   3.343  13.772
 9744SOL     OW31070   6.065   1.399  14.552
 9744SOL    HW131071   5.983   1.424  14.595
 9744SOL    HW231072   6.130   1.398  14.623
 9745SOL     OW31073   7.927   2.562   3.612
 9745SOL    HW131074   7.893   2.610   3.536
 9745SOL    HW231075   7.919   2.623   3.685
 9746SOL     OW31076  14.811  13.457   4.769
 9746SOL    HW131077  14.824  13.393   4.699
 9746SOL    HW231078  14.781  13.536   4.724
 9747SOL     OW31079   5.425   6.106   3.986
 9747SOL    HW131080   5.459   6.031   3.938
 9747SOL    HW231081   5.473   6.106   4.069
 9748SOL     OW31082  13.682  13.723   2.356
 9748SOL    HW131083  13.676  13.631   2.332
 9748SOL    HW231084  13.764  13.754   2.316
 9749SOL     OW31085   0.518   8.801   3.807
 9749SOL    HW131086   0.581   8.858   3.851
 9749SOL    HW231087   0.508   8.840   3.720
 9750SOL     OW31088   4.324   1.429   7.273
 9750SOL    HW131089   4.399   1.455   7.218
 9750SOL    HW231090   4.252   1.484   7.242
 9751SOL     OW31091   4.119   9.203   6.001
 9751SOL    HW131092   4.083   9.114   6.000
 9751SOL    HW231093   4.214   9.191   6.004
 9752SOL     OW31094   9.001   8.264  13.520
 9752SOL    HW131095   8.927   8.215  13.484
 9752SOL    HW231096   9.052   8.198  13.568
 9753SOL     OW31097   9.116   8.993   8.478
 9753SOL    HW131098   9.109   8.936   8.401
 9753SOL    HW231099   9.103   9.081   8.444
 9754SOL     OW31100   4.051   0.530   3.782
 9754SOL    HW131101   4.104   0.562   3.855
 9754SOL    HW231102   4.089   0.444   3.761
 9755SOL     OW31103   8.752  13.270  13.525
 9755SOL    HW131104   8.733  13.281  13.432
 9755SOL    HW231105   8.843  13.299  13.535
 9756SOL     OW31106  10.749  11.955  13.766
 9756SOL    HW131107  10.812  11.930  13.698
 9756SOL    HW231108  10.776  11.906  13.843
 9757SOL     OW31109   0.339   1.484   4.909
 9757SOL    HW131110   0.306   1.539   4.980
 9757SOL    HW231111   0.269   1.421   4.892
 9758SOL     OW31112  11.680   5.324   9.867
 9758SOL    HW131113  11.639   5.366   9.943
 9758SOL    HW231114  11.648   5.234   9.869
 9759SOL     OW31115  10.580   2.741  14.113
 9759SOL    HW131116  10.587   2.647  14.124
 9759SOL    HW231117  10.529   2.752  14.032
 9760SOL     OW31118   4.977  11.578   8.387
 9760SOL    HW131119   4.943  11.624   8.310
 9760SOL    HW231120   4.911  11.593   8.455
 9761SOL     OW31121   5.774  11.631  12.683
 9761SOL    HW131122   5.861  11.600  12.658
 9761SOL    HW231123   5.735  11.558  12.730
 9762SOL     OW31124  13.985   8.439   2.117
 9762SOL    HW131125  14.047   8.475   2.055
 9762SOL    HW231126  13.901   8.441   2.071
 9763SOL     OW31127   8.743   8.807   9.448
 9763SOL    HW131128   8.738   8.716   9.479
 9763SOL    HW231129   8.654   8.840   9.459
 9764SOL     OW31130   9.982  11.297  13.252
 9764SOL    HW131131  10.028  11.381  13.253
 9764SOL    HW231132   9.939  11.295  13.167
 9765SOL     OW31133  10.226  10.487   9.361
 9765SOL    HW131134  10.200  10.395   9.361
 9765SOL    HW231135  10.143  10.535   9.351
 9766SOL     OW31136  13.140   1.231   8.236
 9766SOL    HW131137  13.138   1.249   8.142
 9766SOL    HW231138  13.061   1.179   8.253
 9767SOL     OW31139  13.979  11.618   8.912
 9767SOL    HW131140  14.053  11.661   8.956
 9767SOL    HW231141  14.018  11.576   8.835
 9768SOL     OW31142  14.811   8.148   7.238
 9768SOL    HW131143  14.728   8.109   7.267
 9768SOL    HW231144  14.802   8.241   7.258
 9769SOL     OW31145   4.641   5.166  12.392
 9769SOL    HW131146   4.565   5.140  12.444
 9769SOL    HW231147   4.677   5.241  12.439
 9770SOL     OW31148  11.284   5.256  13.717
 9770SOL    HW131149  11.218   5.193  13.744
 9770SOL    HW231150  11.300   5.235  13.624
 9771SOL     OW31151  10.358  13.470   5.621
 9771SOL    HW131152  10.306  13.485   5.700
 9771SOL    HW231153  10.346  13.377   5.602
 9772SOL     OW31154  11.952  13.083   2.740
 9772SOL    HW131155  12.044  13.089   2.765
 9772SOL    HW231156  11.926  13.173   2.721
 9773SOL     OW31157   9.812  11.010   8.669
 9773SOL    HW131158   9.719  10.990   8.668
 9773SOL    HW231159   9.816  11.104   8.690
 9774SOL     OW31160   3.554  13.887   5.816
 9774SOL    HW131161   3.592  13.879   5.903
 9774SOL    HW231162   3.569  13.978   5.791
 9775SOL     OW31163   3.822   5.892  13.815
 9775SOL    HW131164   3.835   5.869  13.723
 9775SOL    HW231165   3.820   5.988  13.815
 9776SOL     OW31166  14.203   4.634  13.009
 9776SOL    HW131167  14.255   4.703  13.050
 9776SOL    HW231168  14.133   4.680  12.963
 9777SOL     OW31169   1.115   8.269   2.851
 9777SOL    HW131170   1.135   8.301   2.763
 9777SOL    HW231171   1.028   8.305   2.870
 9778SOL     OW31172   5.828   2.669   2.899
 9778SOL    HW131173   5.869   2.755   2.898
 9778SOL    HW231174   5.883   2.615   2.843
 9779SOL     OW31175  10.209   9.237   0.175
 9779SOL    HW131176  10.176   9.289   0.249
 9779SOL    HW231177  10.281   9.288   0.140
 9780SOL     OW31178  14.762   5.914  14.012
 9780SOL    HW131179  14.843   5.910  14.063
 9780SOL    HW231180  14.755   6.005  13.984
 9781SOL     OW31181   4.611  12.752   2.464
 9781SOL    HW131182   4.520  12.779   2.458
 9781SOL    HW231183   4.635  12.725   2.376
 9782SOL     OW31184   8.099   8.414  13.340
 9782SOL    HW131185   8.180   8.392  13.294
 9782SOL    HW231186   8.128   8.454  13.422
 9783SOL     OW31187   4.483  14.117   6.745
 9783SOL    HW131188   4.429  14.107   6.667
 9783SOL    HW231189   4.555  14.175   6.717
 9784SOL     OW31190   0.197   0.743  11.523
 9784SOL    HW131191   0.237   0.740  11.437
 9784SOL    HW231192   0.270   0.761  11.583
 9785SOL     OW31193   6.027  10.027   9.785
 9785SOL    HW131194   6.074  10.030   9.869
 9785SOL    HW231195   6.095  10.044   9.720
 9786SOL     OW31196  11.837   3.058   6.948
 9786SOL    HW131197  11.780   3.017   6.884
 9786SOL    HW231198  11.807   3.023   7.032
 9787SOL     OW31199  12.495   0.288  13.732
 9787SOL    HW131200  12.446   0.360  13.772
 9787SOL    HW231201  12.575   0.330  13.698
 9788SOL     OW31202  14.788  13.560   6.402
 9788SOL    HW131203  14.795  13.496   6.473
 9788SOL    HW231204  14.729  13.519   6.339
 9789SOL     OW31205   7.800   5.046  10.962
 9789SOL    HW131206   7.878   5.047  10.906
 9789SOL    HW231207   7.831   5.013  11.046
 9790SOL     OW31208   0.363   0.833   1.150
 9790SOL    HW131209   0.411   0.868   1.074
 9790SOL    HW231210   0.424   0.840   1.223
 9791SOL     OW31211  11.516   8.023   0.504
 9791SOL    HW131212  11.500   7.935   0.540
 9791SOL    HW231213  11.440   8.040   0.448
 9792SOL     OW31214   2.178   3.514   6.763
 9792SOL    HW131215   2.264   3.473   6.750
 9792SOL    HW231216   2.150   3.538   6.675
 9793SOL     OW31217  12.230   8.618   5.779
 9793SOL    HW131218  12.251   8.666   5.700
 9793SOL    HW231219  12.281   8.660   5.848
 9794SOL     OW31220  11.315   0.781   2.610
 9794SOL    HW131221  11.403   0.786   2.572
 9794SOL    HW231222  11.330   0.758   2.702
 9795SOL     OW31223   2.571  13.169   2.903
 9795SOL    HW131224   2.641  13.184   2.966
 9795SOL    HW231225   2.497  13.137   2.955
 9796SOL     OW31226   5.759   7.420   1.332
 9796SOL    HW131227   5.775   7.326   1.334
 9796SOL    HW231228   5.695   7.435   1.402
 9797SOL     OW31229  11.323  10.209   3.147
 9797SOL    HW131230  11.398  10.164   3.107
 9797SOL    HW231231  11.362  10.282   3.195
 9798SOL     OW31232  11.611  11.985  11.673
 9798SOL    HW131233  11.521  12.017  11.667
 9798SOL    HW231234  11.616  11.945  11.760
 9799SOL     OW31235  13.686   9.258   9.527
 9799SOL    HW131236  13.629   9.206   9.585
 9799SOL    HW231237  13.751   9.296   9.585
 9800SOL     OW31238   5.459  13.823   4.024
 9800SOL    HW131239   5.398  13.872   3.969
 9800SOL    HW231240   5.464  13.737   3.983
 9801SOL     OW31241   1.040   9.186   1.796
 9801SOL    HW131242   0.993   9.242   1.858
 9801SOL    HW231243   1.081   9.248   1.735
 9802SOL     OW31244  14.314  10.266  12.249
 9802SOL    HW131245  14.397  10.286  12.292
 9802SOL    HW231246  14.300  10.337  12.187
 9803SOL     OW31247  12.279   1.641  10.201
 9803SOL    HW131248  12.371   1.620  10.189
 9803SOL    HW231249  12.235   1.556  10.209
 9804SOL     OW31250  10.983   3.558   7.688
 9804SOL    HW131251  10.917   3.495   7.661
 9804SOL    HW231252  10.991   3.619   7.615
 9805SOL     OW31253  11.607   9.915   4.914
 9805SOL    HW131254  11.649   9.889   4.832
 9805SOL    HW231255  11.534   9.855   4.924
 9806SOL     OW31256   6.737  11.729   0.877
 9806SOL    HW131257   6.815  11.674   0.883
 9806SOL    HW231258   6.748  11.795   0.945
 9807SOL     OW31259   8.956  11.524  11.512
 9807SOL    HW131260   9.046  11.502  11.537
 9807SOL    HW231261   8.966  11.585  11.439
 9808SOL     OW31262   5.608   1.267   9.670
 9808SOL    HW131263   5.676   1.204   9.697
 9808SOL    HW231264   5.543   1.263   9.739
 9809SOL     OW31265   1.788  10.722   4.001
 9809SOL    HW131266   1.756  10.639   4.035
 9809SOL    HW231267   1.711  10.766   3.966
 9810SOL     OW31268   2.136   5.201   9.031
 9810SOL    HW131269   2.056   5.171   8.988
 9810SOL    HW231270   2.108   5.274   9.086
 9811SOL     OW31271   0.532   9.617   7.711
 9811SOL    HW131272   0.517   9.635   7.804
 9811SOL    HW231273   0.618   9.655   7.693
 9812SOL     OW31274   1.762   9.566  11.810
 9812SOL    HW131275   1.734   9.538  11.897
 9812SOL    HW231276   1.796   9.486  11.769
 9813SOL     OW31277   4.840  11.732   8.195
 9813SOL    HW131278   4.873  11.665   8.135
 9813SOL    HW231279   4.858  11.815   8.151
 9814SOL     OW31280  13.964   4.892  11.567
 9814SOL    HW131281  14.015   4.827  11.518
 9814SOL    HW231282  13.900   4.925  11.504
 9815SOL     OW31283  14.748  11.858  10.027
 9815SOL    HW131284  14.839  11.851  10.000
 9815SOL    HW231285  14.736  11.951  10.047
 9816SOL     OW31286   7.197   6.262   3.965
 9816SOL    HW131287   7.192   6.354   3.990
 9816SOL    HW231288   7.274   6.229   4.011
 9817SOL     OW31289   7.264   1.676  13.585
 9817SOL    HW131290   7.216   1.729  13.521
 9817SOL    HW231291   7.338   1.641  13.535
 9818SOL     OW31292   1.724  10.431   5.095
 9818SOL    HW131293   1.703  10.523   5.082
 9818SOL    HW231294   1.640  10.386   5.082
 9819SOL     OW31295  12.077   7.141  13.249
 9819SOL    HW131296  12.033   7.225  13.256
 9819SOL    HW231297  12.044   7.104  13.167
 9820SOL     OW31298   7.085  11.273   4.528
 9820SOL    HW131299   7.076  11.346   4.589
 9820SOL    HW231300   7.053  11.306   4.444
 9821SOL     OW31301   9.640  11.850   4.183
 9821SOL    HW131302   9.668  11.896   4.104
 9821SOL    HW231303   9.696  11.884   4.252
 9822SOL     OW31304  11.040   7.667   3.998
 9822SOL    HW131305  10.955   7.635   4.030
 9822SOL    HW231306  11.104   7.618   4.049
 9823SOL     OW31307   6.420   5.801  10.670
 9823SOL    HW131308   6.377   5.867  10.724
 9823SOL    HW231309   6.447   5.733  10.731
 9824SOL     OW31310   0.411  14.552  12.262
 9824SOL    HW131311   0.499  14.514  12.259
 9824SOL    HW231312   0.352  14.476  12.259
 9825SOL     OW31313  12.762   1.827  10.703
 9825SOL    HW131314  12.676   1.812  10.742
 9825SOL    HW231315  12.756   1.913  10.663
 9826SOL     OW31316  12.606  10.792   5.958
 9826SOL    HW131317  12.630  10.700   5.944
 9826SOL    HW231318  12.688  10.834   5.985
 9827SOL     OW31319  12.621   3.235  13.977
 9827SOL    HW131320  12.555   3.277  13.922
 9827SOL    HW231321  12.583   3.236  14.065
 9828SOL     OW31322   4.844   0.562   9.552
 9828SOL    HW131323   4.849   0.483   9.605
 9828SOL    HW231324   4.782   0.618   9.598
 9829SOL     OW31325  12.790  14.352  12.971
 9829SOL    HW131326  12.742  14.270  12.962
 9829SOL    HW231327  12.838  14.344  13.053
 9830SOL     OW31328   4.266   8.621   1.814
 9830SOL    HW131329   4.281   8.666   1.897
 9830SOL    HW231330   4.324   8.666   1.752
 9831SOL     OW31331  11.275  10.632  14.461
 9831SOL    HW131332  11.331  10.608  14.534
 9831SOL    HW231333  11.194  10.582  14.476
 9832SOL     OW31334   1.350   6.308   7.887
 9832SOL    HW131335   1.256   6.313   7.868
 9832SOL    HW231336   1.392   6.339   7.807
 9833SOL     OW31337  10.832   3.789   4.238
 9833SOL    HW131338  10.792   3.762   4.321
 9833SOL    HW231339  10.885   3.865   4.260
 9834SOL     OW31340   3.382   7.000  11.453
 9834SOL    HW131341   3.450   6.933  11.456
 9834SOL    HW231342   3.424   7.075  11.412
 9835SOL     OW31343  14.598  10.532   4.948
 9835SOL    HW131344  14.583  10.442   4.977
 9835SOL    HW231345  14.675  10.527   4.892
 9836SOL     OW31346   9.260   0.580  13.601
 9836SOL    HW131347   9.215   0.521  13.662
 9836SOL    HW231348   9.234   0.668  13.629
 9837SOL     OW31349   6.204   0.878   9.250
 9837SOL    HW131350   6.233   0.955   9.201
 9837SOL    HW231351   6.125   0.907   9.296
 9838SOL     OW31352   0.281   4.244  14.337
 9838SOL    HW131353   0.196   4.288  14.333
 9838SOL    HW231354   0.328   4.274  14.259
 9839SOL     OW31355   8.700   0.402   3.640
 9839SOL    HW131356   8.717   0.308   3.644
 9839SOL    HW231357   8.699   0.429   3.732
 9840SOL     OW31358   6.951   9.873   2.349
 9840SOL    HW131359   7.037   9.833   2.359
 9840SOL    HW231360   6.969   9.966   2.334
 9841SOL     OW31361   3.916   9.648   7.717
 9841SOL    HW131362   3.873   9.586   7.658
 9841SOL    HW231363   3.944   9.720   7.660
 9842SOL     OW31364   7.709  12.030   0.222
 9842SOL    HW131365   7.803  12.033   0.205
 9842SOL    HW231366   7.669  12.026   0.135
 9843SOL     OW31367  14.284   9.236   9.272
 9843SOL    HW131368  14.284   9.202   9.361
 9843SOL    HW231369  14.293   9.159   9.216
 9844SOL     OW31370   7.174  13.322   0.487
 9844SOL    HW131371   7.168  13.229   0.507
 9844SOL    HW231372   7.134  13.365   0.562
 9845SOL     OW31373   8.673   1.408   5.133
 9845SOL    HW131374   8.743   1.381   5.193
 9845SOL    HW231375   8.684   1.503   5.125
 9846SOL     OW31376  14.190  11.729   4.871
 9846SOL    HW131377  14.176  11.775   4.954
 9846SOL    HW231378  14.179  11.637   4.892
 9847SOL     OW31379   9.207  13.661   9.684
 9847SOL    HW131380   9.280  13.675   9.624
 9847SOL    HW231381   9.229  13.713   9.762
 9848SOL     OW31382   7.543  12.899   5.064
 9848SOL    HW131383   7.492  12.979   5.073
 9848SOL    HW231384   7.625  12.918   5.110
 9849SOL     OW31385   2.158   0.603   4.306
 9849SOL    HW131386   2.161   0.583   4.212
 9849SOL    HW231387   2.204   0.686   4.315
 9850SOL     OW31388   6.385   8.356   1.704
 9850SOL    HW131389   6.346   8.390   1.624
 9850SOL    HW231390   6.390   8.432   1.763
 9851SOL     OW31391  11.138   0.396   8.703
 9851SOL    HW131392  11.109   0.317   8.657
 9851SOL    HW231393  11.234   0.389   8.705
 9852SOL     OW31394   7.431   3.770  10.523
 9852SOL    HW131395   7.394   3.780  10.435
 9852SOL    HW231396   7.354   3.751  10.579
 9853SOL     OW31397   3.501  14.164   4.821
 9853SOL    HW131398   3.555  14.222   4.767
 9853SOL    HW231399   3.563  14.104   4.861
 9854SOL     OW31400   7.009   6.831   1.445
 9854SOL    HW131401   6.993   6.738   1.432
 9854SOL    HW231402   7.047   6.861   1.363
 9855SOL     OW31403   4.126   7.352   4.612
 9855SOL    HW131404   4.121   7.346   4.516
 9855SOL    HW231405   4.195   7.290   4.636
 9856SOL     OW31406   4.970   5.768   3.939
 9856SOL    HW131407   4.892   5.713   3.934
 9856SOL    HW231408   5.043   5.708   3.923
 9857SOL     OW31409   7.669   4.841   7.183
 9857SOL    HW131410   7.673   4.789   7.102
 9857SOL    HW231411   7.660   4.776   7.253
 9858SOL     OW31412  11.493  13.859   3.605
 9858SOL    HW131413  11.457  13.859   3.694
 9858SOL    HW231414  11.440  13.795   3.557
 9859SOL     OW31415  12.954  13.540   2.957
 9859SOL    HW131416  12.978  13.614   2.901
 9859SOL    HW231417  12.872  13.508   2.920
 9860SOL     OW31418  12.673   4.780   4.871
 9860SOL    HW131419  12.748   4.792   4.812
 9860SOL    HW231420  12.663   4.685   4.876
 9861SOL     OW31421   9.795  11.602   0.062
 9861SOL    HW131422   9.811  11.682   0.111
 9861SOL    HW231423   9.717  11.564   0.103
 9862SOL     OW31424  10.663   5.117  12.205
 9862SOL    HW131425  10.607   5.194  12.220
 9862SOL    HW231426  10.614   5.064  12.143
 9863SOL     OW31427   0.378  11.504   8.387
 9863SOL    HW131428   0.453  11.542   8.434
 9863SOL    HW231429   0.356  11.570   8.321
 9864SOL     OW31430   2.691  12.352  13.601
 9864SOL    HW131431   2.604  12.316  13.619
 9864SOL    HW231432   2.694  12.362  13.506
 9865SOL     OW31433   3.609  13.194   0.720
 9865SOL    HW131434   3.676  13.148   0.771
 9865SOL    HW231435   3.541  13.128   0.706
 9866SOL     OW31436   1.231   5.666   9.944
 9866SOL    HW131437   1.277   5.635  10.022
 9866SOL    HW231438   1.145   5.625   9.949
 9867SOL     OW31439  12.516   6.461   5.310
 9867SOL    HW131440  12.459   6.457   5.234
 9867SOL    HW231441  12.542   6.371   5.327
 9868SOL     OW31442   8.022  13.184   9.928
 9868SOL    HW131443   7.987  13.226  10.007
 9868SOL    HW231444   8.003  13.246   9.858
 9869SOL     OW31445   0.763  13.867  13.778
 9869SOL    HW131446   0.813  13.833  13.852
 9869SOL    HW231447   0.781  13.961  13.779
 9870SOL     OW31448   3.701   2.017   4.656
 9870SOL    HW131449   3.721   2.109   4.672
 9870SOL    HW231450   3.787   1.973   4.653
 9871SOL     OW31451  14.381   8.314   4.150
 9871SOL    HW131452  14.386   8.218   4.153
 9871SOL    HW231453  14.290   8.332   4.125
 9872SOL     OW31454   7.809   7.775  10.460
 9872SOL    HW131455   7.721   7.775  10.496
 9872SOL    HW231456   7.805   7.835  10.386
 9873SOL     OW31457  10.556   3.627   0.636
 9873SOL    HW131458  10.630   3.652   0.691
 9873SOL    HW231459  10.516   3.552   0.681
 9874SOL     OW31460   5.783   8.429   1.386
 9874SOL    HW131461   5.871   8.433   1.421
 9874SOL    HW231462   5.795   8.409   1.293
 9875SOL     OW31463  10.755   9.413   1.270
 9875SOL    HW131464  10.837   9.462   1.274
 9875SOL    HW231465  10.743   9.394   1.177
 9876SOL     OW31466   3.021   6.082  10.999
 9876SOL    HW131467   2.961   6.092  10.926
 9876SOL    HW231468   3.005   6.160  11.054
 9877SOL     OW31469  12.907   7.272   7.964
 9877SOL    HW131470  12.997   7.242   7.973
 9877SOL    HW231471  12.911   7.366   7.978
 9878SOL     OW31472  11.346   8.215   6.197
 9878SOL    HW131473  11.265   8.257   6.168
 9878SOL    HW231474  11.400   8.287   6.228
 9879SOL     OW31475   3.769   0.105   1.439
 9879SOL    HW131476   3.695   0.113   1.499
 9879SOL    HW231477   3.813   0.025   1.466
 9880SOL     OW31478   6.472   1.657  14.008
 9880SOL    HW131479   6.392   1.608  14.027
 9880SOL    HW231480   6.448   1.748  14.020
 9881SOL     OW31481   6.803   5.615   4.889
 9881SOL    HW131482   6.761   5.573   4.965
 9881SOL    HW231483   6.860   5.547   4.853
 9882SOL     OW31484  13.340   5.971  13.664
 9882SOL    HW131485  13.279   5.897  13.669
 9882SOL    HW231486  13.285   6.046  13.641
 9883SOL     OW31487   1.191   0.511   7.415
 9883SOL    HW131488   1.156   0.434   7.372
 9883SOL    HW231489   1.275   0.527   7.370
 9884SOL     OW31490  12.647   7.649   5.495
 9884SOL    HW131491  12.706   7.720   5.521
 9884SOL    HW231492  12.704   7.585   5.452
 9885SOL     OW31493   4.560  11.718   0.257
 9885SOL    HW131494   4.632  11.725   0.320
 9885SOL    HW231495   4.531  11.808   0.243
 9886SOL     OW31496   6.376   9.844  14.485
 9886SOL    HW131497   6.454   9.789  14.483
 9886SOL    HW231498   6.336   9.831  14.398
 9887SOL     OW31499  10.020   6.428   6.737
 9887SOL    HW131500  10.028   6.522   6.754
 9887SOL    HW231501  10.063   6.415   6.653
 9888SOL     OW31502  10.935   8.789   7.588
 9888SOL    HW131503  10.890   8.735   7.522
 9888SOL    HW231504  10.992   8.846   7.537
 9889SOL     OW31505   4.623   6.077  13.568
 9889SOL    HW131506   4.696   6.118  13.522
 9889SOL    HW231507   4.643   6.088  13.661
 9890SOL     OW31508   8.311  12.236   3.035
 9890SOL    HW131509   8.315  12.242   3.130
 9890SOL    HW231510   8.393  12.192   3.010
 9891SOL     OW31511   1.989  12.849   1.569
 9891SOL    HW131512   1.985  12.938   1.604
 9891SOL    HW231513   2.001  12.860   1.475
 9892SOL     OW31514   7.004   0.585   5.017
 9892SOL    HW131515   7.017   0.542   4.932
 9892SOL    HW231516   7.092   0.596   5.053
 9893SOL     OW31517  13.519   2.545   1.707
 9893SOL    HW131518  13.531   2.454   1.733
 9893SOL    HW231519  13.439   2.544   1.655
 9894SOL     OW31520   8.845  14.108   7.119
 9894SOL    HW131521   8.906  14.178   7.140
 9894SOL    HW231522   8.819  14.071   7.203
 9895SOL     OW31523   8.773  12.156   5.435
 9895SOL    HW131524   8.739  12.207   5.509
 9895SOL    HW231525   8.700  12.150   5.374
 9896SOL     OW31526   4.135  11.526  13.139
 9896SOL    HW131527   4.053  11.557  13.102
 9896SOL    HW231528   4.182  11.605  13.164
 9897SOL     OW31529   0.381   9.998   2.586
 9897SOL    HW131530   0.359   9.987   2.494
 9897SOL    HW231531   0.476  10.002   2.588
 9898SOL     OW31532   4.942   5.542   2.223
 9898SOL    HW131533   4.916   5.503   2.139
 9898SOL    HW231534   4.882   5.616   2.234
 9899SOL     OW31535  13.561   0.723  10.680
 9899SOL    HW131536  13.557   0.656  10.612
 9899SOL    HW231537  13.552   0.806  10.633
 9900SOL     OW31538   9.986  14.155  13.922
 9900SOL    HW131539   9.952  14.244  13.936
 9900SOL    HW231540   9.968  14.110  14.004
 9901SOL     OW31541  11.829   6.395  12.867
 9901SOL    HW131542  11.743   6.412  12.828
 9901SOL    HW231543  11.842   6.468  12.928
 9902SOL     OW31544   9.059   3.625   6.545
 9902SOL    HW131545   9.034   3.707   6.588
 9902SOL    HW231546   8.977   3.589   6.513
 9903SOL     OW31547   0.716  12.435   5.310
 9903SOL    HW131548   0.795  12.478   5.343
 9903SOL    HW231549   0.645  12.476   5.360
 9904SOL     OW31550   8.417  11.198   0.050
 9904SOL    HW131551   8.419  11.266  14.863
 9904SOL    HW231552   8.326  11.193   0.077
 9905SOL     OW31553   7.396   3.424   4.222
 9905SOL    HW131554   7.322   3.425   4.160
 9905SOL    HW231555   7.467   3.383   4.173
 9906SOL     OW31556   8.047   8.949   0.998
 9906SOL    HW131557   8.047   8.919   0.907
 9906SOL    HW231558   8.064   9.042   0.993
 9907SOL     OW31559   8.219   3.441   8.337
 9907SOL    HW131560   8.145   3.498   8.358
 9907SOL    HW231561   8.262   3.484   8.263
 9908SOL     OW31562   3.948   1.997  14.785
 9908SOL    HW131563   3.991   1.934  14.843
 9908SOL    HW231564   4.014   2.065  14.770
 9909SOL     OW31565  10.016   0.076   4.090
 9909SOL    HW131566   9.937   0.111   4.050
 9909SOL    HW231567  10.088   0.126   4.050
 9910SOL     OW31568   5.772   9.024  13.713
 9910SOL    HW131569   5.680   9.039  13.736
 9910SOL    HW231570   5.772   8.938  13.671
 9911SOL     OW31571  12.749  14.734   2.777
 9911SOL    HW131572  12.656  14.714   2.763
 9911SOL    HW231573  12.761  14.728   2.871
 9912SOL     OW31574   9.319  14.517  11.671
 9912SOL    HW131575   9.262  14.480  11.604
 9912SOL    HW231576   9.408  14.504  11.636
 9913SOL     OW31577  12.851  11.280   3.215
 9913SOL    HW131578  12.876  11.216   3.148
 9913SOL    HW231579  12.868  11.237   3.298
 9914SOL     OW31580   9.773   6.282   8.992
 9914SOL    HW131581   9.815   6.364   8.964
 9914SOL    HW231582   9.767   6.290   9.087
 9915SOL     OW31583   6.319   2.596   1.097
 9915SOL    HW131584   6.282   2.685   1.093
 9915SOL    HW231585   6.246   2.538   1.078
 9916SOL     OW31586   1.189   9.305   5.904
 9916SOL    HW131587   1.147   9.292   5.819
 9916SOL    HW231588   1.122   9.281   5.968
 9917SOL     OW31589   8.207   6.743   8.186
 9917SOL    HW131590   8.201   6.837   8.203
 9917SOL    HW231591   8.297   6.730   8.154
 9918SOL     OW31592   6.608  10.700   9.814
 9918SOL    HW131593   6.632  10.609   9.799
 9918SOL    HW231594   6.642  10.721   9.901
 9919SOL     OW31595   4.865   1.304   7.777
 9919SOL    HW131596   4.796   1.241   7.796
 9919SOL    HW231597   4.925   1.297   7.851
 9920SOL     OW31598   5.333  14.836  11.861
 9920SOL    HW131599   5.325  14.741  11.872
 9920SOL    HW231600   5.419  14.856  11.899
 9921SOL     OW31601   5.773   8.687  13.886
 9921SOL    HW131602   5.690   8.727  13.913
 9921SOL    HW231603   5.793   8.624  13.955
 9922SOL     OW31604   1.647  10.608   2.851
 9922SOL    HW131605   1.635  10.614   2.945
 9922SOL    HW231606   1.669  10.517   2.834
 9923SOL     OW31607  10.921  14.258   3.750
 9923SOL    HW131608  10.918  14.184   3.690
 9923SOL    HW231609  10.892  14.333   3.697
 9924SOL     OW31610  12.910   8.808  12.750
 9924SOL    HW131611  12.994   8.792  12.709
 9924SOL    HW231612  12.896   8.903  12.743
 9925SOL     OW31613  10.626   7.603   9.150
 9925SOL    HW131614  10.570   7.580   9.224
 9925SOL    HW231615  10.625   7.526   9.094
 9926SOL     OW31616   5.660   6.038   6.327
 9926SOL    HW131617   5.741   6.089   6.330
 9926SOL    HW231618   5.631   6.044   6.236
 9927SOL     OW31619   7.580   0.201  14.655
 9927SOL    HW131620   7.669   0.214  14.621
 9927SOL    HW231621   7.536   0.285  14.641
 9928SOL     OW31622  11.537  12.926  11.697
 9928SOL    HW131623  11.603  12.893  11.636
 9928SOL    HW231624  11.479  12.852  11.713
 9929SOL     OW31625   7.859  12.278  10.413
 9929SOL    HW131626   7.876  12.208  10.350
 9929SOL    HW231627   7.829  12.351  10.360
 9930SOL     OW31628   2.387   5.459  10.477
 9930SOL    HW131629   2.432   5.448  10.393
 9930SOL    HW231630   2.337   5.377  10.488
 9931SOL     OW31631   6.459  11.573   2.639
 9931SOL    HW131632   6.455  11.494   2.693
 9931SOL    HW231633   6.425  11.643   2.695
 9932SOL     OW31634   1.946   4.867   5.078
 9932SOL    HW131635   1.922   4.945   5.128
 9932SOL    HW231636   1.866   4.844   5.030
 9933SOL     OW31637  11.293   4.929  14.548
 9933SOL    HW131638  11.283   5.007  14.603
 9933SOL    HW231639  11.359   4.876  14.593
 9934SOL     OW31640   9.449  12.360   9.279
 9934SOL    HW131641   9.503  12.282   9.266
 9934SOL    HW231642   9.512  12.430   9.297
 9935SOL     OW31643   2.745  11.720  10.074
 9935SOL    HW131644   2.787  11.750   9.994
 9935SOL    HW231645   2.755  11.625  10.072
 9936SOL     OW31646   2.924  14.679   2.757
 9936SOL    HW131647   2.934  14.717   2.845
 9936SOL    HW231648   3.010  14.688   2.717
 9937SOL     OW31649   5.342  10.596  14.085
 9937SOL    HW131650   5.278  10.596  14.013
 9937SOL    HW231651   5.334  10.682  14.125
 9938SOL     OW31652   2.877   7.697   9.740
 9938SOL    HW131653   2.790   7.726   9.710
 9938SOL    HW231654   2.861   7.662   9.828
 9939SOL     OW31655  14.428   2.890   7.288
 9939SOL    HW131656  14.467   2.903   7.375
 9939SOL    HW231657  14.353   2.949   7.286
 9940SOL     OW31658  10.403  13.311   9.181
 9940SOL    HW131659  10.321  13.359   9.194
 9940SOL    HW231660  10.470  13.367   9.220
 9941SOL     OW31661  10.337   8.827   8.734
 9941SOL    HW131662  10.289   8.769   8.674
 9941SOL    HW231663  10.413   8.855   8.685
 9942SOL     OW31664   8.722   0.546   3.184
 9942SOL    HW131665   8.649   0.568   3.242
 9942SOL    HW231666   8.752   0.460   3.214
 9943SOL     OW31667   4.374  10.358  14.016
 9943SOL    HW131668   4.371  10.297  14.090
 9943SOL    HW231669   4.298  10.414  14.028
 9944SOL     OW31670   6.224   8.802   2.352
 9944SOL    HW131671   6.187   8.831   2.435
 9944SOL    HW231672   6.211   8.877   2.293
 9945SOL     OW31673   1.961  14.303  14.558
 9945SOL    HW131674   1.872  14.333  14.577
 9945SOL    HW231675   1.980  14.237  14.625
 9946SOL     OW31676   7.509   1.690  10.725
 9946SOL    HW131677   7.451   1.615  10.710
 9946SOL    HW231678   7.454   1.766  10.707
 9947SOL     OW31679  14.423   6.317  10.313
 9947SOL    HW131680  14.512   6.301  10.345
 9947SOL    HW231681  14.391   6.390  10.366
 9948SOL     OW31682  12.709   8.789   1.399
 9948SOL    HW131683  12.665   8.795   1.315
 9948SOL    HW231684  12.721   8.695   1.413
 9949SOL     OW31685   1.375  14.790   6.930
 9949SOL    HW131686   1.470  14.782   6.934
 9949SOL    HW231687   1.351  14.828   7.015
 9950SOL     OW31688  10.752  10.175  10.934
 9950SOL    HW131689  10.692  10.185  10.861
 9950SOL    HW231690  10.834  10.213  10.903
 9951SOL     OW31691   4.998   8.578  13.579
 9951SOL    HW131692   4.979   8.657  13.529
 9951SOL    HW231693   5.052   8.608  13.653
 9952SOL     OW31694   3.157   6.410  11.928
 9952SOL    HW131695   3.180   6.441  12.016
 9952SOL    HW231696   3.071   6.449  11.912
 9953SOL     OW31697   8.641   4.152  12.067
 9953SOL    HW131698   8.622   4.068  12.026
 9953SOL    HW231699   8.566   4.169  12.124
 9954SOL     OW31700   4.692   0.533  13.669
 9954SOL    HW131701   4.777   0.498  13.694
 9954SOL    HW231702   4.702   0.628  13.679
 9955SOL     OW31703   0.066   4.845   0.220
 9955SOL    HW131704   0.091   4.754   0.203
 9955SOL    HW231705   0.135   4.897   0.179
 9956SOL     OW31706   1.813  14.859   3.644
 9956SOL    HW131707   1.740  14.842   3.705
 9956SOL    HW231708   1.787  14.815   3.564
 9957SOL     OW31709  12.961  11.532  13.785
 9957SOL    HW131710  12.956  11.585  13.705
 9957SOL    HW231711  13.015  11.457  13.761
 9958SOL     OW31712   7.321   3.177  10.530
 9958SOL    HW131713   7.413   3.201  10.535
 9958SOL    HW231714   7.320   3.094  10.483
 9959SOL     OW31715   1.020   4.219  14.851
 9959SOL    HW131716   1.025   4.209   0.066
 9959SOL    HW231717   0.934   4.258  14.835
 9960SOL     OW31718  10.438  12.543   2.003
 9960SOL    HW131719  10.387  12.601   1.946
 9960SOL    HW231720  10.475  12.477   1.945
 9961SOL     OW31721   1.098  12.828  12.882
 9961SOL    HW131722   1.185  12.867  12.891
 9961SOL    HW231723   1.037  12.901  12.896
 9962SOL     OW31724   3.834  13.123  10.513
 9962SOL    HW131725   3.836  13.076  10.596
 9962SOL    HW231726   3.743  13.116  10.484
 9963SOL     OW31727  13.685  11.611   8.292
 9963SOL    HW131728  13.703  11.663   8.213
 9963SOL    HW231729  13.767  11.567   8.311
 9964SOL     OW31730   4.665   1.226   3.119
 9964SOL    HW131731   4.620   1.160   3.066
 9964SOL    HW231732   4.617   1.228   3.202
 9965SOL     OW31733   1.281   9.204   5.580
 9965SOL    HW131734   1.302   9.123   5.626
 9965SOL    HW231735   1.204   9.181   5.527
 9966SOL     OW31736   7.525   0.375   5.298
 9966SOL    HW131737   7.582   0.414   5.232
 9966SOL    HW231738   7.545   0.425   5.378
 9967SOL     OW31739   3.637   6.889  11.053
 9967SOL    HW131740   3.681   6.945  11.117
 9967SOL    HW231741   3.708   6.837  11.015
 9968SOL     OW31742   0.677   2.640   3.096
 9968SOL    HW131743   0.757   2.623   3.146
 9968SOL    HW231744   0.610   2.589   3.140
 9969SOL     OW31745   4.567   6.726   1.921
 9969SOL    HW131746   4.581   6.763   1.833
 9969SOL    HW231747   4.648   6.743   1.968
 9970SOL     OW31748  12.225   6.274   5.414
 9970SOL    HW131749  12.176   6.344   5.457
 9970SOL    HW231750  12.292   6.250   5.478
 9971SOL     OW31751   2.030   2.268   2.428
 9971SOL    HW131752   1.947   2.289   2.471
 9971SOL    HW231753   2.049   2.179   2.456
 9972SOL     OW31754  12.924   4.887  13.779
 9972SOL    HW131755  12.872   4.858  13.704
 9972SOL    HW231756  12.972   4.964  13.747
 9973SOL     OW31757   7.441   6.769   6.080
 9973SOL    HW131758   7.517   6.772   6.023
 9973SOL    HW231759   7.478   6.772   6.169
 9974SOL     OW31760   8.246   5.337   6.499
 9974SOL    HW131761   8.179   5.337   6.430
 9974SOL    HW231762   8.204   5.383   6.572
 9975SOL     OW31763   6.233   0.962   7.745
 9975SOL    HW131764   6.261   1.019   7.673
 9975SOL    HW231765   6.273   1.000   7.823
 9976SOL     OW31766   6.301   8.934  11.216
 9976SOL    HW131767   6.358   9.001  11.254
 9976SOL    HW231768   6.272   8.972  11.133
 9977SOL     OW31769   4.489  13.318   9.401
 9977SOL    HW131770   4.539  13.311   9.320
 9977SOL    HW231771   4.455  13.230   9.416
 9978SOL     OW31772  14.608   4.629   0.298
 9978SOL    HW131773  14.600   4.558   0.362
 9978SOL    HW231774  14.522   4.670   0.297
 9979SOL     OW31775   6.559  14.043  11.867
 9979SOL    HW131776   6.483  14.060  11.811
 9979SOL    HW231777   6.635  14.064  11.812
 9980SOL     OW31778   1.823   9.333  10.122
 9980SOL    HW131779   1.910   9.342  10.161
 9980SOL    HW231780   1.784   9.258  10.166
 9981SOL     OW31781   6.007   5.093   9.008
 9981SOL    HW131782   5.988   5.094   8.914
 9981SOL    HW231783   6.048   5.007   9.023
 9982SOL     OW31784  13.809   9.625   4.418
 9982SOL    HW131785  13.861   9.691   4.464
 9982SOL    HW231786  13.752   9.675   4.361
 9983SOL     OW31787  11.054   9.966  13.600
 9983SOL    HW131788  11.105   9.897  13.642
 9983SOL    HW231789  11.089   9.971  13.511
 9984SOL     OW31790   6.112   1.496   6.094
 9984SOL    HW131791   6.020   1.473   6.084
 9984SOL    HW231792   6.115   1.591   6.082
 9985SOL     OW31793  14.620   1.179  10.993
 9985SOL    HW131794  14.699   1.179  10.939
 9985SOL    HW231795  14.595   1.272  11.000
 9986SOL     OW31796   2.944  11.813   5.322
 9986SOL    HW131797   2.929  11.907   5.308
 9986SOL    HW231798   2.983  11.808   5.409
 9987SOL     OW31799  13.288   7.212   2.556
 9987SOL    HW131800  13.362   7.263   2.590
 9987SOL    HW231801  13.301   7.124   2.593
 9988SOL     OW31802   2.759   9.604  10.298
 9988SOL    HW131803   2.772   9.543  10.225
 9988SOL    HW231804   2.843   9.604  10.344
 9989SOL     OW31805   2.981   6.966   1.119
 9989SOL    HW131806   2.983   6.870   1.117
 9989SOL    HW231807   3.059   6.991   1.168
 9990SOL     OW31808   0.976   1.548   8.601
 9990SOL    HW131809   0.883   1.571   8.604
 9990SOL    HW231810   1.001   1.537   8.693
 9991SOL     OW31811  13.779  12.504   5.500
 9991SOL    HW131812  13.862  12.540   5.469
 9991SOL    HW231813  13.793  12.409   5.501
 9992SOL     OW31814  10.392   9.372   2.321
 9992SOL    HW131815  10.325   9.331   2.267
 9992SOL    HW231816  10.468   9.314   2.312
 9993SOL     OW31817  14.554  14.197  10.676
 9993SOL    HW131818  14.482  14.142  10.644
 9993SOL    HW231819  14.633  14.157  10.638
 9994SOL     OW31820  14.493  14.760   9.660
 9994SOL    HW131821  14.411  14.742   9.705
 9994SOL    HW231822  14.561  14.741   9.725
 9995SOL     OW31823   7.409  11.830   5.617
 9995SOL    HW131824   7.417  11.766   5.689
 9995SOL    HW231825   7.320  11.864   5.626
 9996SOL     OW31826   7.604   4.247  10.367
 9996SOL    HW131827   7.580   4.316  10.306
 9996SOL    HW231828   7.697   4.259  10.383
 9997SOL     OW31829   0.225  14.222  10.954
 9997SOL    HW131830   0.227  14.317  10.953
 9997SOL    HW231831   0.203  14.199  11.045
 9998SOL     OW31832   3.300  12.028   6.437
 9998SOL    HW131833   3.272  12.056   6.524
 9998SOL    HW231834   3.396  12.031   6.441
 9999SOL     OW31835   2.630  10.619  12.557
 9999SOL    HW131836   2.561  10.598  12.620
 9999SOL    HW231837   2.704  10.646  12.612
10000SOL     OW31838   5.457   7.650   3.492
10000SOL    HW131839   5.446   7.675   3.400
10000SOL    HW231840   5.536   7.596   3.493
10001SOL     OW31841   1.473  11.519   8.792
10001SOL    HW131842   1.485  11.610   8.822
10001SOL    HW231843   1.553  11.474   8.819
10002SOL     OW31844   2.106   6.248   0.642
10002SOL    HW131845   2.113   6.305   0.566
10002SOL    HW231846   2.068   6.303   0.710
10003SOL     OW31847  11.112   7.693   0.521
10003SOL    HW131848  11.168   7.627   0.563
10003SOL    HW231849  11.051   7.642   0.468
10004SOL     OW31850  12.792  10.362   6.215
10004SOL    HW131851  12.714  10.388   6.263
10004SOL    HW231852  12.857  10.429   6.235
10005SOL     OW31853   0.350   9.092   3.796
10005SOL    HW131854   0.402   9.013   3.781
10005SOL    HW231855   0.312   9.079   3.883
10006SOL     OW31856   9.656   5.135   1.050
10006SOL    HW131857   9.743   5.102   1.074
10006SOL    HW231858   9.595   5.076   1.094
10007SOL     OW31859   2.339  11.469  13.410
10007SOL    HW131860   2.264  11.504  13.361
10007SOL    HW231861   2.304  11.446  13.496
10008SOL     OW31862  13.257   1.709  13.403
10008SOL    HW131863  13.191   1.774  13.426
10008SOL    HW231864  13.306   1.748  13.331
10009SOL     OW31865  12.728  11.792  11.978
10009SOL    HW131866  12.772  11.726  12.031
10009SOL    HW231867  12.780  11.797  11.898
10010SOL     OW31868   2.824   8.156  13.054
10010SOL    HW131869   2.915   8.173  13.079
10010SOL    HW231870   2.831   8.096  12.979
10011SOL     OW31871  10.044  11.221  10.315
10011SOL    HW131872  10.085  11.179  10.240
10011SOL    HW231873  10.100  11.199  10.389
10012SOL     OW31874   6.357   8.665   9.933
10012SOL    HW131875   6.269   8.683   9.899
10012SOL    HW231876   6.416   8.705   9.869
10013SOL     OW31877   1.305   1.116  11.529
10013SOL    HW131878   1.357   1.053  11.579
10013SOL    HW231879   1.362   1.191  11.518
10014SOL     OW31880   2.816  12.375   5.673
10014SOL    HW131881   2.792  12.349   5.762
10014SOL    HW231882   2.911  12.358   5.669
10015SOL     OW31883   3.722  11.209   5.872
10015SOL    HW131884   3.781  11.277   5.839
10015SOL    HW231885   3.762  11.127   5.843
10016SOL     OW31886   8.972   5.243  14.638
10016SOL    HW131887   9.056   5.264  14.595
10016SOL    HW231888   8.908   5.297  14.592
10017SOL     OW31889  14.115   4.840   6.047
10017SOL    HW131890  14.049   4.822   6.115
10017SOL    HW231891  14.067   4.831   5.965
10018SOL     OW31892   7.234   6.132   7.296
10018SOL    HW131893   7.320   6.172   7.311
10018SOL    HW231894   7.172   6.203   7.308
10019SOL     OW31895   7.479   9.495   4.064
10019SOL    HW131896   7.559   9.481   4.116
10019SOL    HW231897   7.511   9.529   3.980
10020SOL     OW31898   5.870  13.498  11.854
10020SOL    HW131899   5.795  13.515  11.796
10020SOL    HW231900   5.916  13.582  11.858
10021SOL     OW31901   6.452   0.648  14.456
10021SOL    HW131902   6.506   0.645  14.535
10021SOL    HW231903   6.423   0.558  14.442
10022SOL     OW31904   3.224   0.956  12.013
10022SOL    HW131905   3.241   0.877  11.961
10022SOL    HW231906   3.311   0.993  12.029
10023SOL     OW31907  12.214  13.318   7.496
10023SOL    HW131908  12.132  13.335   7.449
10023SOL    HW231909  12.245  13.235   7.461
10024SOL     OW31910   5.609   3.453  13.926
10024SOL    HW131911   5.621   3.359  13.938
10024SOL    HW231912   5.636   3.491  14.010
10025SOL     OW31913   2.877   0.509  11.057
10025SOL    HW131914   2.827   0.557  10.991
10025SOL    HW231915   2.922   0.577  11.107
10026SOL     OW31916   4.644   3.767   0.824
10026SOL    HW131917   4.731   3.738   0.797
10026SOL    HW231918   4.626   3.719   0.904
10027SOL     OW31919   1.929  10.108  13.214
10027SOL    HW131920   1.842  10.078  13.240
10027SOL    HW231921   1.963  10.037  13.158
10028SOL     OW31922  11.909   4.688   9.578
10028SOL    HW131923  11.845   4.750   9.544
10028SOL    HW231924  11.993   4.732   9.564
10029SOL     OW31925   6.757   6.270   2.232
10029SOL    HW131926   6.700   6.220   2.173
10029SOL    HW231927   6.718   6.358   2.234
10030SOL     OW31928  13.405   0.565  11.184
10030SOL    HW131929  13.469   0.555  11.255
10030SOL    HW231930  13.391   0.659  11.178
10031SOL     OW31931  11.519   4.023  10.418
10031SOL    HW131932  11.610   4.051  10.417
10031SOL    HW231933  11.469   4.104  10.411
10032SOL     OW31934  14.308   3.501   1.303
10032SOL    HW131935  14.402   3.500   1.285
10032SOL    HW231936  14.270   3.449   1.232
10033SOL     OW31937   7.920  11.682   8.928
10033SOL    HW131938   8.004  11.637   8.940
10033SOL    HW231939   7.856  11.611   8.921
10034SOL     OW31940   1.297   0.195   6.730
10034SOL    HW131941   1.250   0.252   6.670
10034SOL    HW231942   1.278   0.230   6.817
10035SOL     OW31943  11.900  11.982   9.424
10035SOL    HW131944  11.958  12.008   9.496
10035SOL    HW231945  11.813  12.012   9.451
10036SOL     OW31946  11.053   1.755  10.588
10036SOL    HW131947  10.992   1.822  10.560
10036SOL    HW231948  11.098   1.728  10.508
10037SOL     OW31949   4.626   0.543   3.926
10037SOL    HW131950   4.569   0.586   3.863
10037SOL    HW231951   4.595   0.574   4.011
10038SOL     OW31952   6.983   6.247  12.007
10038SOL    HW131953   7.037   6.168  12.012
10038SOL    HW231954   6.910   6.223  11.950
10039SOL     OW31955  14.088  11.001  10.834
10039SOL    HW131956  14.076  11.001  10.929
10039SOL    HW231957  14.023  10.939  10.801
10040SOL     OW31958   1.850   1.449   4.061
10040SOL    HW131959   1.763   1.489   4.055
10040SOL    HW231960   1.835   1.356   4.044
10041SOL     OW31961   8.026   4.476   8.406
10041SOL    HW131962   7.999   4.397   8.453
10041SOL    HW231963   7.975   4.546   8.445
10042SOL     OW31964   5.125  10.745   9.906
10042SOL    HW131965   5.198  10.802   9.930
10042SOL    HW231966   5.086  10.786   9.829
10043SOL     OW31967   7.542   8.164   2.638
10043SOL    HW131968   7.621   8.111   2.638
10043SOL    HW231969   7.476   8.108   2.596
10044SOL     OW31970   7.974   4.829  11.097
10044SOL    HW131971   7.889   4.824  11.140
10044SOL    HW231972   8.020   4.750  11.125
10045SOL     OW31973   8.228   5.628   3.720
10045SOL    HW131974   8.281   5.555   3.753
10045SOL    HW231975   8.181   5.660   3.797
10046SOL     OW31976  12.076  12.940   6.642
10046SOL    HW131977  12.165  12.971   6.622
10046SOL    HW231978  12.050  12.989   6.719
10047SOL     OW31979  11.957   3.353  14.814
10047SOL    HW131980  11.905   3.416  14.864
10047SOL    HW231981  11.936   3.373  14.722
10048SOL     OW31982   8.985   4.843   9.218
10048SOL    HW131983   8.917   4.818   9.281
10048SOL    HW231984   8.948   4.821   9.133
10049SOL     OW31985   5.598   5.687  11.534
10049SOL    HW131986   5.682   5.706  11.492
10049SOL    HW231987   5.534   5.737  11.484
10050SOL     OW31988   5.221   8.960   6.000
10050SOL    HW131989   5.277   9.038   5.999
10050SOL    HW231990   5.132   8.994   6.004
10051SOL     OW31991  14.584  14.233  12.167
10051SOL    HW131992  14.531  14.307  12.139
10051SOL    HW231993  14.642  14.268  12.234
10052SOL     OW31994  14.732   7.069  13.689
10052SOL    HW131995  14.723   6.982  13.728
10052SOL    HW231996  14.822   7.095  13.710
10053SOL     OW31997   2.277   4.089   1.885
10053SOL    HW131998   2.278   4.126   1.797
10053SOL    HW231999   2.291   3.995   1.872
10054SOL     OW32000   7.686   9.978   5.406
10054SOL    HW132001   7.697  10.006   5.497
10054SOL    HW232002   7.752   9.910   5.393
10055SOL     OW32003  14.501   1.764   2.128
10055SOL    HW132004  14.423   1.749   2.075
10055SOL    HW232005  14.554   1.684   2.116
10056SOL     OW32006   0.663   7.688   9.550
10056SOL    HW132007   0.574   7.689   9.586
10056SOL    HW232008   0.651   7.712   9.458
10057SOL     OW32009   3.791   4.089   8.861
10057SOL    HW132010   3.884   4.085   8.882
10057SOL    HW232011   3.749   4.039   8.931
10058SOL     OW32012   6.337  13.221   4.243
10058SOL    HW132013   6.375  13.177   4.319
10058SOL    HW232014   6.255  13.259   4.276
10059SOL     OW32015   6.418   6.828   6.081
10059SOL    HW132016   6.488   6.767   6.104
10059SOL    HW232017   6.346   6.806   6.140
10060SOL     OW32018   8.428   6.447   0.061
10060SOL    HW132019   8.505   6.392   0.049
10060SOL    HW232020   8.409   6.443   0.155
10061SOL     OW32021   9.708   3.288  13.294
10061SOL    HW132022   9.664   3.372  13.309
10061SOL    HW232023   9.801   3.311  13.286
10062SOL     OW32024  14.354  10.488   1.001
10062SOL    HW132025  14.439  10.501   1.042
10062SOL    HW232026  14.374  10.460   0.911
10063SOL     OW32027  10.881   4.753  14.671
10063SOL    HW132028  10.969   4.722  14.647
10063SOL    HW232029  10.825   4.676  14.662
10064SOL     OW32030  11.839  11.334  10.128
10064SOL    HW132031  11.796  11.416  10.152
10064SOL    HW232032  11.879  11.303  10.210
10065SOL     OW32033   4.955   1.595   8.139
10065SOL    HW132034   5.049   1.613   8.139
10065SOL    HW232035   4.932   1.588   8.232
10066SOL     OW32036   1.395   0.931  10.284
10066SOL    HW132037   1.427   0.850  10.323
10066SOL    HW232038   1.348   0.903  10.205
10067SOL     OW32039  13.827   3.502  12.025
10067SOL    HW132040  13.776   3.584  12.026
10067SOL    HW232041  13.785   3.447  12.091
10068SOL     OW32042   7.627   5.304   2.311
10068SOL    HW132043   7.608   5.392   2.278
10068SOL    HW232044   7.688   5.267   2.247
10069SOL     OW32045  10.492   3.054   4.384
10069SOL    HW132046  10.479   3.103   4.302
10069SOL    HW232047  10.547   3.112   4.437
10070SOL     OW32048   1.076   8.373   1.106
10070SOL    HW132049   0.996   8.334   1.140
10070SOL    HW232050   1.046   8.434   1.038
10071SOL     OW32051   8.440   6.524   2.794
10071SOL    HW132052   8.420   6.574   2.715
10071SOL    HW232053   8.479   6.443   2.762
10072SOL     OW32054  12.752   9.769   9.373
10072SOL    HW132055  12.702   9.806   9.300
10072SOL    HW232056  12.704   9.796   9.451
10073SOL     OW32057   5.004  12.034   0.012
10073SOL    HW132058   5.040  12.032  14.803
10073SOL    HW232059   4.949  11.955   0.017
10074SOL     OW32060  13.724   8.466   2.919
10074SOL    HW132061  13.709   8.373   2.934
10074SOL    HW232062  13.651   8.493   2.863
10075SOL     OW32063  10.059  12.725   7.299
10075SOL    HW132064  10.026  12.636   7.299
10075SOL    HW232065   9.994  12.775   7.349
10076SOL     OW32066   9.591   2.129   5.739
10076SOL    HW132067   9.604   2.035   5.727
10076SOL    HW232068   9.676   2.168   5.721
10077SOL     OW32069   1.367  14.556   3.333
10077SOL    HW132070   1.302  14.496   3.368
10077SOL    HW232071   1.447  14.538   3.382
10078SOL     OW32072  10.171   2.158  12.834
10078SOL    HW132073  10.101   2.095  12.848
10078SOL    HW232074  10.246   2.106  12.806
10079SOL     OW32075   3.610   2.228   8.216
10079SOL    HW132076   3.564   2.311   8.217
10079SOL    HW232077   3.677   2.236   8.284
10080SOL     OW32078   8.866  11.023   6.281
10080SOL    HW132079   8.834  11.113   6.288
10080SOL    HW232080   8.951  11.024   6.325
10081SOL     OW32081   3.706  13.179   2.998
10081SOL    HW132082   3.732  13.110   2.937
10081SOL    HW232083   3.693  13.257   2.944
10082SOL     OW32084   4.766  10.961   8.831
10082SOL    HW132085   4.819  11.013   8.770
10082SOL    HW232086   4.826  10.939   8.902
10083SOL     OW32087   0.931   3.203   8.580
10083SOL    HW132088   0.931   3.108   8.569
10083SOL    HW232089   0.954   3.237   8.493
10084SOL     OW32090  11.590   2.954   1.733
10084SOL    HW132091  11.661   2.961   1.797
10084SOL    HW232092  11.570   2.861   1.728
10085SOL     OW32093   1.776   9.082  14.872
10085SOL    HW132094   1.812   9.155   0.043
10085SOL    HW232095   1.839   9.069  14.801
10086SOL     OW32096  12.811   6.567   4.462
10086SOL    HW132097  12.779   6.586   4.374
10086SOL    HW232098  12.754   6.497   4.494
10087SOL     OW32099   3.506   4.584   9.211
10087SOL    HW132100   3.584   4.616   9.166
10087SOL    HW232101   3.441   4.653   9.198
10088SOL     OW32102   7.636   4.040   7.508
10088SOL    HW132103   7.688   4.120   7.504
10088SOL    HW232104   7.683   3.982   7.568
10089SOL     OW32105   3.932   8.067  13.940
10089SOL    HW132106   3.887   8.142  13.979
10089SOL    HW232107   4.017   8.064  13.983
10090SOL     OW32108   2.229   7.096  11.422
10090SOL    HW132109   2.176   7.150  11.363
10090SOL    HW232110   2.167   7.063  11.487
10091SOL     OW32111   8.766   0.039   2.361
10091SOL    HW132112   8.817   0.035   2.442
10091SOL    HW232113   8.825   0.004   2.294
10092SOL     OW32114   3.836   6.769  10.801
10092SOL    HW132115   3.916   6.718  10.789
10092SOL    HW232116   3.765   6.706  10.789
10093SOL     OW32117  10.378   2.825  14.307
10093SOL    HW132118  10.418   2.859  14.387
10093SOL    HW232119  10.452   2.790  14.256
10094SOL     OW32120   1.243   9.121   0.703
10094SOL    HW132121   1.336   9.124   0.683
10094SOL    HW232122   1.232   9.179   0.779
10095SOL     OW32123   3.605   3.178   2.915
10095SOL    HW132124   3.559   3.115   2.970
10095SOL    HW232125   3.548   3.255   2.913
10096SOL     OW32126   0.511  10.445  11.240
10096SOL    HW132127   0.421  10.427  11.268
10096SOL    HW232128   0.530  10.532  11.274
10097SOL     OW32129   7.465   7.448   5.451
10097SOL    HW132130   7.557   7.421   5.452
10097SOL    HW232131   7.422   7.391   5.515
10098SOL     OW32132   6.856  13.834   8.661
10098SOL    HW132133   6.928  13.806   8.717
10098SOL    HW232134   6.794  13.875   8.721
10099SOL     OW32135  10.164   8.157  11.060
10099SOL    HW132136  10.171   8.250  11.081
10099SOL    HW232137  10.161   8.154  10.965
10100SOL     OW32138   4.789   6.285  14.408
10100SOL    HW132139   4.804   6.370  14.366
10100SOL    HW232140   4.697   6.287  14.433
10101SOL     OW32141   9.102   2.099   6.407
10101SOL    HW132142   9.092   2.093   6.502
10101SOL    HW232143   9.160   2.174   6.394
10102SOL     OW32144   8.730  11.048   9.668
10102SOL    HW132145   8.754  11.102   9.592
10102SOL    HW232146   8.671  10.982   9.632
10103SOL     OW32147   6.145  13.587   7.695
10103SOL    HW132148   6.152  13.655   7.762
10103SOL    HW232149   6.052  13.585   7.673
10104SOL     OW32150   2.738  10.369   5.415
10104SOL    HW132151   2.672  10.438   5.425
10104SOL    HW232152   2.820  10.416   5.403
10105SOL     OW32153   9.105   0.217   2.131
10105SOL    HW132154   9.127   0.190   2.042
10105SOL    HW232155   9.028   0.273   2.121
10106SOL     OW32156  13.750   5.832   7.087
10106SOL    HW132157  13.701   5.882   7.153
10106SOL    HW232158  13.703   5.849   7.005
10107SOL     OW32159   3.623   1.246   5.051
10107SOL    HW132160   3.684   1.174   5.066
10107SOL    HW232161   3.559   1.239   5.121
10108SOL     OW32162  12.264   9.825  14.744
10108SOL    HW132163  12.218   9.758  14.693
10108SOL    HW232164  12.351   9.830  14.704
10109SOL     OW32165   7.040   0.274   9.393
10109SOL    HW132166   7.124   0.278   9.438
10109SOL    HW232167   6.996   0.199   9.431
10110SOL     OW32168   2.533   8.965   7.170
10110SOL    HW132169   2.475   8.915   7.113
10110SOL    HW232170   2.621   8.933   7.150
10111SOL     OW32171   5.559  10.593   9.801
10111SOL    HW132172   5.559  10.523   9.736
10111SOL    HW232173   5.468  10.625   9.802
10112SOL     OW32174  10.942   1.461  12.497
10112SOL    HW132175  10.890   1.467  12.417
10112SOL    HW232176  11.029   1.433  12.466
10113SOL     OW32177  14.717   9.907   1.351
10113SOL    HW132178  14.666   9.966   1.407
10113SOL    HW232179  14.799   9.953   1.336
10114SOL     OW32180  14.283   1.012   5.665
10114SOL    HW132181  14.318   1.096   5.696
10114SOL    HW232182  14.195   1.009   5.701
10115SOL     OW32183  12.077   7.793  13.243
10115SOL    HW132184  12.121   7.863  13.194
10115SOL    HW232185  11.987   7.824  13.252
10116SOL     OW32186   3.803   2.398   0.125
10116SOL    HW132187   3.755   2.326   0.085
10116SOL    HW232188   3.882   2.407   0.072
10117SOL     OW32189  11.684  13.383   3.053
10117SOL    HW132190  11.708  13.291   3.065
10117SOL    HW232191  11.622  13.382   2.981
10118SOL     OW32192  12.934   3.863   2.841
10118SOL    HW132193  12.915   3.771   2.860
10118SOL    HW232194  12.852   3.909   2.860
10119SOL     OW32195  13.353  13.737   9.656
10119SOL    HW132196  13.431  13.792   9.648
10119SOL    HW232197  13.286  13.782   9.604
10120SOL     OW32198  11.386   6.738   6.468
10120SOL    HW132199  11.445   6.763   6.397
10120SOL    HW232200  11.419   6.786   6.544
10121SOL     OW32201  14.590  12.360   6.433
10121SOL    HW132202  14.683  12.367   6.454
10121SOL    HW232203  14.588  12.339   6.340
10122SOL     OW32204   8.742   5.179   7.244
10122SOL    HW132205   8.659   5.187   7.198
10122SOL    HW232206   8.808   5.177   7.175
10123SOL     OW32207   5.683   2.042   0.989
10123SOL    HW132208   5.745   2.069   1.057
10123SOL    HW232209   5.621   2.115   0.984
10124SOL     OW32210   9.736  14.397  14.533
10124SOL    HW132211   9.650  14.439  14.543
10124SOL    HW232212   9.772  14.394  14.622
10125SOL     OW32213  13.676   3.384  12.250
10125SOL    HW132214  13.659   3.296  12.217
10125SOL    HW232215  13.626   3.388  12.332
10126SOL     OW32216  14.766  11.150   1.679
10126SOL    HW132217  14.768  11.073   1.737
10126SOL    HW232218  14.858  11.174   1.668
10127SOL     OW32219  14.305  10.479  14.030
10127SOL    HW132220  14.371  10.414  14.055
10127SOL    HW232221  14.341  10.562  14.062
10128SOL     OW32222   5.671   2.490   8.562
10128SOL    HW132223   5.676   2.524   8.473
10128SOL    HW232224   5.581   2.510   8.590
10129SOL     OW32225   0.152   1.476   1.689
10129SOL    HW132226   0.212   1.408   1.721
10129SOL    HW232227   0.066   1.447   1.718
10130SOL     OW32228  13.229  11.535  11.677
10130SOL    HW132229  13.162  11.570  11.619
10130SOL    HW232230  13.297  11.502  11.618
10131SOL     OW32231  10.730  11.830  11.475
10131SOL    HW132232  10.687  11.832  11.560
10131SOL    HW232233  10.822  11.850  11.494
10132SOL     OW32234   2.441   5.156  13.910
10132SOL    HW132235   2.527   5.190  13.933
10132SOL    HW232236   2.411   5.213  13.838
10133SOL     OW32237   5.505  13.088   9.289
10133SOL    HW132238   5.427  13.033   9.275
10133SOL    HW232239   5.538  13.062   9.375
10134SOL     OW32240   8.014   2.425   0.352
10134SOL    HW132241   8.013   2.354   0.415
10134SOL    HW232242   8.013   2.381   0.267
10135SOL     OW32243   9.905  12.017   6.873
10135SOL    HW132244   9.971  12.016   6.804
10135SOL    HW232245   9.896  11.925   6.898
10136SOL     OW32246   6.287  13.787   7.422
10136SOL    HW132247   6.249  13.700   7.431
10136SOL    HW232248   6.279  13.827   7.508
10137SOL     OW32249   3.763  11.830  13.411
10137SOL    HW132250   3.726  11.803  13.327
10137SOL    HW232251   3.693  11.881  13.452
10138SOL     OW32252  10.692  13.449   2.155
10138SOL    HW132253  10.675  13.510   2.226
10138SOL    HW232254  10.729  13.503   2.085
10139SOL     OW32255   9.556   9.767  14.136
10139SOL    HW132256   9.589   9.722  14.058
10139SOL    HW232257   9.632   9.771  14.195
10140SOL     OW32258   8.383   5.466   2.875
10140SOL    HW132259   8.467   5.423   2.889
10140SOL    HW232260   8.345   5.475   2.963
10141SOL     OW32261  14.662  13.108  13.327
10141SOL    HW132262  14.643  13.014  13.332
10141SOL    HW232263  14.741  13.119  13.378
10142SOL     OW32264  10.582  13.089  13.186
10142SOL    HW132265  10.669  13.120  13.161
10142SOL    HW232266  10.538  13.165  13.224
10143SOL     OW32267  14.404   5.454   1.538
10143SOL    HW132268  14.449   5.391   1.482
10143SOL    HW232269  14.452   5.536   1.525
10144SOL     OW32270  11.278   2.519   3.582
10144SOL    HW132271  11.335   2.593   3.604
10144SOL    HW232272  11.289   2.459   3.655
10145SOL     OW32273   0.681   2.574   4.623
10145SOL    HW132274   0.709   2.579   4.714
10145SOL    HW232275   0.763   2.562   4.574
10146SOL     OW32276   7.069   0.820   7.191
10146SOL    HW132277   6.994   0.855   7.143
10146SOL    HW232278   7.047   0.730   7.210
10147SOL     OW32279  14.423   3.875   3.880
10147SOL    HW132280  14.515   3.855   3.866
10147SOL    HW232281  14.378   3.793   3.861
10148SOL     OW32282   2.576   4.382   1.380
10148SOL    HW132283   2.561   4.292   1.353
10148SOL    HW232284   2.601   4.428   1.300
10149SOL     OW32285   9.061  12.577  13.525
10149SOL    HW132286   9.078  12.659  13.571
10149SOL    HW232287   9.106  12.511  13.578
10150SOL     OW32288   6.025  10.846   2.075
10150SOL    HW132289   5.966  10.866   2.002
10150SOL    HW232290   6.036  10.751   2.072
10151SOL     OW32291   0.557  12.491   9.473
10151SOL    HW132292   0.610  12.500   9.394
10151SOL    HW232293   0.513  12.407   9.462
10152SOL     OW32294   2.333   8.553   4.204
10152SOL    HW132295   2.273   8.510   4.142
10152SOL    HW232296   2.419   8.544   4.164
10153SOL     OW32297   4.347  14.426   1.250
10153SOL    HW132298   4.363  14.357   1.314
10153SOL    HW232299   4.275  14.477   1.287
10154SOL     OW32300   6.228  12.403   6.434
10154SOL    HW132301   6.304  12.439   6.480
10154SOL    HW232302   6.153  12.434   6.484
10155SOL     OW32303  14.406   1.566  14.027
10155SOL    HW132304  14.368   1.482  14.001
10155SOL    HW232305  14.474   1.582  13.962
10156SOL     OW32306   0.948  12.578   8.035
10156SOL    HW132307   0.933  12.621   8.119
10156SOL    HW232308   0.862  12.576   7.993
10157SOL     OW32309   9.163  10.747  10.899
10157SOL    HW132310   9.160  10.756  10.804
10157SOL    HW232311   9.223  10.675  10.915
10158SOL     OW32312   6.154   9.737   4.619
10158SOL    HW132313   6.116   9.722   4.532
10158SOL    HW232314   6.144   9.654   4.664
10159SOL     OW32315  11.523   7.085  13.404
10159SOL    HW132316  11.611   7.081  13.365
10159SOL    HW232317  11.494   6.994  13.404
10160SOL     OW32318  10.200   6.050   3.309
10160SOL    HW132319  10.273   5.988   3.310
10160SOL    HW232320  10.148   6.027   3.386
10161SOL     OW32321   7.028   1.932   1.847
10161SOL    HW132322   7.017   2.002   1.912
10161SOL    HW232323   7.113   1.893   1.868
10162SOL     OW32324  10.234   0.290   2.272
10162SOL    HW132325  10.256   0.341   2.194
10162SOL    HW232326  10.298   0.316   2.337
10163SOL     OW32327   2.562  12.694  14.581
10163SOL    HW132328   2.606  12.768  14.539
10163SOL    HW232329   2.495  12.667  14.518
10164SOL     OW32330  12.449   7.038   5.771
10164SOL    HW132331  12.444   7.133   5.776
10164SOL    HW232332  12.483   7.020   5.683
10165SOL     OW32333   5.360   1.295   9.542
10165SOL    HW132334   5.438   1.345   9.522
10165SOL    HW232335   5.393   1.210   9.572
10166SOL     OW32336   8.973  13.100  10.441
10166SOL    HW132337   9.056  13.147  10.444
10166SOL    HW232338   8.942  13.110  10.351
10167SOL     OW32339  13.558  13.809   9.055
10167SOL    HW132340  13.560  13.805   9.151
10167SOL    HW232341  13.641  13.849   9.032
10168SOL     OW32342  14.836   7.466  13.742
10168SOL    HW132343  14.832   7.530  13.671
10168SOL    HW232344  14.746   7.434  13.751
10169SOL     OW32345   9.828  13.847   9.665
10169SOL    HW132346   9.891  13.785   9.700
10169SOL    HW232347   9.823  13.826   9.571
10170SOL     OW32348   2.600  13.035   2.681
10170SOL    HW132349   2.583  13.091   2.757
10170SOL    HW232350   2.691  13.051   2.660
10171SOL     OW32351   0.280   5.297  11.750
10171SOL    HW132352   0.357   5.354  11.740
10171SOL    HW232353   0.308   5.231  11.813
10172SOL     OW32354   7.968  13.143  11.843
10172SOL    HW132355   8.048  13.111  11.801
10172SOL    HW232356   7.897  13.111  11.788
10173SOL     OW32357  11.299  10.354   4.390
10173SOL    HW132358  11.329  10.289   4.326
10173SOL    HW232359  11.227  10.399   4.346
10174SOL     OW32360   6.549   0.365  13.655
10174SOL    HW132361   6.570   0.457  13.640
10174SOL    HW232362   6.580   0.347  13.744
10175SOL     OW32363   2.997   1.301   8.798
10175SOL    HW132364   2.931   1.242   8.762
10175SOL    HW232365   3.077   1.248   8.801
10176SOL     OW32366  14.769   0.654   5.122
10176SOL    HW132367  14.856   0.647   5.161
10176SOL    HW232368  14.771   0.737   5.073
10177SOL     OW32369  13.645   6.917   5.767
10177SOL    HW132370  13.555   6.945   5.782
10177SOL    HW232371  13.652   6.910   5.671
10178SOL     OW32372   1.889   9.396  11.365
10178SOL    HW132373   1.899   9.345  11.445
10178SOL    HW232374   1.972   9.443  11.356
10179SOL     OW32375  10.178  13.599   3.353
10179SOL    HW132376  10.169  13.678   3.405
10179SOL    HW232377  10.236  13.542   3.404
10180SOL     OW32378   9.749  11.407   9.049
10180SOL    HW132379   9.724  11.398   9.141
10180SOL    HW232380   9.666  11.397   9.001
10181SOL     OW32381   1.485  11.941  10.387
10181SOL    HW132382   1.551  11.894  10.337
10181SOL    HW232383   1.518  12.031  10.393
10182SOL     OW32384   2.351  13.873   0.224
10182SOL    HW132385   2.361  13.944   0.161
10182SOL    HW232386   2.338  13.918   0.308
10183SOL     OW32387   7.387   1.641   2.159
10183SOL    HW132388   7.344   1.665   2.242
10183SOL    HW232389   7.320   1.594   2.110
10184SOL     OW32390  10.561  13.651   9.652
10184SOL    HW132391  10.484  13.680   9.699
10184SOL    HW232392  10.530  13.633   9.563
10185SOL     OW32393  12.998   8.476   8.183
10185SOL    HW132394  12.978   8.566   8.158
10185SOL    HW232395  12.991   8.426   8.102
10186SOL     OW32396   8.324   6.671  12.720
10186SOL    HW132397   8.267   6.713  12.785
10186SOL    HW232398   8.381   6.741  12.689
10187SOL     OW32399  13.092   5.742  13.266
10187SOL    HW132400  13.005   5.766  13.232
10187SOL    HW232401  13.119   5.819  13.317
10188SOL     OW32402   8.145   9.209   1.172
10188SOL    HW132403   8.190   9.233   1.253
10188SOL    HW232404   8.210   9.159   1.123
10189SOL     OW32405  11.632  12.736   8.069
10189SOL    HW132406  11.722  12.767   8.061
10189SOL    HW232407  11.640  12.641   8.079
10190SOL     OW32408  12.394   5.521   6.818
10190SOL    HW132409  12.459   5.508   6.748
10190SOL    HW232410  12.377   5.433   6.851
10191SOL     OW32411   0.131  13.561  11.591
10191SOL    HW132412   0.185  13.484  11.570
10191SOL    HW232413   0.041  13.530  11.580
10192SOL     OW32414   4.499   1.845   8.705
10192SOL    HW132415   4.567   1.870   8.643
10192SOL    HW232416   4.488   1.921   8.762
10193SOL     OW32417  11.730   8.294   9.292
10193SOL    HW132418  11.807   8.333   9.251
10193SOL    HW232419  11.660   8.356   9.276
10194SOL     OW32420  14.400   0.936   6.837
10194SOL    HW132421  14.338   0.863   6.836
10194SOL    HW232422  14.483   0.897   6.808
10195SOL     OW32423   7.735   6.583  11.468
10195SOL    HW132424   7.692   6.579  11.383
10195SOL    HW232425   7.673   6.544  11.529
10196SOL     OW32426   2.342  11.358   0.908
10196SOL    HW132427   2.250  11.382   0.920
10196SOL    HW232428   2.385  11.441   0.884
10197SOL     OW32429   5.299   2.785   5.526
10197SOL    HW132430   5.253   2.703   5.543
10197SOL    HW232431   5.230   2.851   5.520
10198SOL     OW32432   1.560   5.913   9.307
10198SOL    HW132433   1.466   5.896   9.303
10198SOL    HW232434   1.585   5.892   9.397
10199SOL     OW32435  12.111  10.290   4.420
10199SOL    HW132436  12.119  10.383   4.437
10199SOL    HW232437  12.029  10.264   4.462
10200SOL     OW32438   9.566  12.033   6.094
10200SOL    HW132439   9.492  12.093   6.104
10200SOL    HW232440   9.625  12.055   6.165
10201SOL     OW32441   7.751  12.285   1.494
10201SOL    HW132442   7.766  12.325   1.408
10201SOL    HW232443   7.828  12.231   1.510
10202SOL     OW32444   1.322   4.101   7.332
10202SOL    HW132445   1.378   4.024   7.347
10202SOL    HW232446   1.365   4.172   7.380
10203SOL     OW32447  10.024   4.867  13.271
10203SOL    HW132448   9.958   4.800  13.292
10203SOL    HW232449  10.066   4.886  13.355
10204SOL     OW32450  12.617  13.559   5.514
10204SOL    HW132451  12.624  13.585   5.606
10204SOL    HW232452  12.608  13.464   5.516
10205SOL     OW32453   2.936   9.948   2.196
10205SOL    HW132454   2.844   9.974   2.187
10205SOL    HW232455   2.971   9.951   2.107
10206SOL     OW32456  11.028   1.521   4.353
10206SOL    HW132457  11.103   1.463   4.341
10206SOL    HW232458  10.953   1.461   4.360
10207SOL     OW32459  10.300   3.113  12.934
10207SOL    HW132460  10.311   3.053  12.860
10207SOL    HW232461  10.274   3.195  12.893
10208SOL     OW32462  13.960   1.210  13.610
10208SOL    HW132463  13.995   1.297  13.589
10208SOL    HW232464  13.868   1.227  13.632
10209SOL     OW32465   5.543   8.495   9.260
10209SOL    HW132466   5.571   8.572   9.308
10209SOL    HW232467   5.603   8.426   9.287
10210SOL     OW32468   5.282   7.584  14.624
10210SOL    HW132469   5.283   7.638  14.545
10210SOL    HW232470   5.194   7.548  14.627
10211SOL     OW32471   0.689   5.094   5.957
10211SOL    HW132472   0.746   5.020   5.977
10211SOL    HW232473   0.707   5.115   5.866
10212SOL     OW32474   4.301   2.798   7.628
10212SOL    HW132475   4.267   2.835   7.546
10212SOL    HW232476   4.381   2.752   7.602
10213SOL     OW32477   1.678  10.655  11.130
10213SOL    HW132478   1.731  10.627  11.055
10213SOL    HW232479   1.740  10.665  11.202
10214SOL     OW32480   9.213   8.497  12.191
10214SOL    HW132481   9.225   8.537  12.105
10214SOL    HW232482   9.265   8.551  12.251
10215SOL     OW32483   5.472   5.453   5.967
10215SOL    HW132484   5.486   5.409   6.050
10215SOL    HW232485   5.520   5.536   5.975
10216SOL     OW32486   0.394   0.789  13.486
10216SOL    HW132487   0.440   0.873  13.481
10216SOL    HW232488   0.306   0.812  13.514
10217SOL     OW32489   9.872  11.696   2.258
10217SOL    HW132490   9.827  11.612   2.262
10217SOL    HW232491   9.867  11.731   2.347
10218SOL     OW32492   6.546  11.708   3.620
10218SOL    HW132493   6.543  11.689   3.526
10218SOL    HW232494   6.491  11.641   3.660
10219SOL     OW32495  11.465   4.209   1.079
10219SOL    HW132496  11.372   4.224   1.061
10219SOL    HW232497  11.467   4.128   1.130
10220SOL     OW32498  13.560  10.901   5.790
10220SOL    HW132499  13.490  10.854   5.746
10220SOL    HW232500  13.606  10.947   5.720
10221SOL     OW32501  14.003   1.257   0.365
10221SOL    HW132502  14.030   1.167   0.349
10221SOL    HW232503  13.946   1.253   0.442
10222SOL     OW32504   0.798   6.850  12.594
10222SOL    HW132505   0.877   6.880  12.548
10222SOL    HW232506   0.827   6.835  12.684
10223SOL     OW32507   1.289  13.868  12.154
10223SOL    HW132508   1.332  13.951  12.133
10223SOL    HW232509   1.314  13.850  12.245
10224SOL     OW32510   2.952   3.509  10.289
10224SOL    HW132511   3.041   3.476  10.305
10224SOL    HW232512   2.957   3.603  10.305
10225SOL     OW32513   3.817   1.232   4.578
10225SOL    HW132514   3.789   1.204   4.491
10225SOL    HW232515   3.857   1.317   4.564
10226SOL     OW32516   0.830  10.875   7.087
10226SOL    HW132517   0.898  10.855   7.023
10226SOL    HW232518   0.748  10.865   7.040
10227SOL     OW32519  11.878  11.899   5.223
10227SOL    HW132520  11.904  11.832   5.160
10227SOL    HW232521  11.783  11.895   5.225
10228SOL     OW32522  12.954   9.039   6.679
10228SOL    HW132523  13.025   8.978   6.660
10228SOL    HW232524  12.996   9.125   6.681
10229SOL     OW32525   7.677   8.732   2.235
10229SOL    HW132526   7.604   8.793   2.236
10229SOL    HW232527   7.672   8.687   2.319
10230SOL     OW32528   3.968   0.910   5.227
10230SOL    HW132529   3.894   0.851   5.216
10230SOL    HW232530   3.989   0.940   5.139
10231SOL     OW32531   1.476   0.410  13.066
10231SOL    HW132532   1.458   0.428  12.974
10231SOL    HW232533   1.408   0.457  13.114
10232SOL     OW32534   3.884  10.474   7.495
10232SOL    HW132535   3.878  10.465   7.400
10232SOL    HW232536   3.857  10.389   7.529
10233SOL     OW32537   4.141  12.609   2.393
10233SOL    HW132538   4.069  12.653   2.349
10233SOL    HW232539   4.192  12.570   2.322
10234SOL     OW32540   0.389   9.685   7.204
10234SOL    HW132541   0.431   9.627   7.140
10234SOL    HW232542   0.415   9.650   7.289
10235SOL     OW32543  11.867   3.407   9.892
10235SOL    HW132544  11.862   3.478   9.956
10235SOL    HW232545  11.953   3.419   9.851
10236SOL     OW32546  12.154   5.584   5.790
10236SOL    HW132547  12.226   5.545   5.840
10236SOL    HW232548  12.135   5.666   5.836
10237SOL     OW32549   9.225  13.812   5.346
10237SOL    HW132550   9.210  13.906   5.360
10237SOL    HW232551   9.178  13.792   5.265
10238SOL     OW32552   0.896   8.498   0.296
10238SOL    HW132553   0.950   8.427   0.331
10238SOL    HW232554   0.806   8.471   0.315
10239SOL     OW32555   6.511   2.510  14.743
10239SOL    HW132556   6.580   2.489  14.807
10239SOL    HW232557   6.558   2.516  14.660
10240SOL     OW32558  12.088   2.288  12.377
10240SOL    HW132559  12.066   2.197  12.356
10240SOL    HW232560  12.157   2.311  12.314
10241SOL     OW32561   3.629   2.774   0.948
10241SOL    HW132562   3.720   2.751   0.930
10241SOL    HW232563   3.596   2.703   1.002
10242SOL     OW32564   2.228   2.248  10.526
10242SOL    HW132565   2.198   2.295  10.604
10242SOL    HW232566   2.160   2.183  10.510
10243SOL     OW32567   1.968   7.465   6.979
10243SOL    HW132568   1.911   7.388   6.975
10243SOL    HW232569   1.908   7.538   6.995
10244SOL     OW32570   8.379   0.263  14.464
10244SOL    HW132571   8.296   0.288  14.422
10244SOL    HW232572   8.372   0.298  14.553
10245SOL     OW32573   1.281   7.486  14.699
10245SOL    HW132574   1.277   7.550  14.628
10245SOL    HW232575   1.373   7.461  14.705
10246SOL     OW32576   7.934  12.875   1.539
10246SOL    HW132577   7.933  12.957   1.490
10246SOL    HW232578   7.842  12.849   1.544
10247SOL     OW32579   2.492   3.516   0.606
10247SOL    HW132580   2.461   3.559   0.527
10247SOL    HW232581   2.420   3.458   0.632
10248SOL     OW32582   6.899   4.414  11.809
10248SOL    HW132583   6.896   4.455  11.895
10248SOL    HW232584   6.835   4.343  11.814
10249SOL     OW32585   4.332   0.306  13.629
10249SOL    HW132586   4.288   0.351  13.556
10249SOL    HW232587   4.412   0.271  13.591
10250SOL     OW32588  11.470   8.969  13.937
10250SOL    HW132589  11.545   8.933  13.889
10250SOL    HW232590  11.478   8.931  14.024
10251SOL     OW32591   3.919   5.252   0.895
10251SOL    HW132592   3.891   5.167   0.927
10251SOL    HW232593   4.013   5.242   0.879
10252SOL     OW32594   1.241   0.695   2.903
10252SOL    HW132595   1.178   0.667   2.970
10252SOL    HW232596   1.271   0.614   2.863
10253SOL     OW32597  10.459  12.637   3.352
10253SOL    HW132598  10.483  12.730   3.356
10253SOL    HW232599  10.442  12.620   3.259
10254SOL     OW32600   6.888  11.921   7.875
10254SOL    HW132601   6.966  11.967   7.908
10254SOL    HW232602   6.823  11.932   7.945
10255SOL     OW32603   4.505   3.362   7.793
10255SOL    HW132604   4.438   3.310   7.749
10255SOL    HW232605   4.585   3.311   7.785
10256SOL     OW32606   1.354   2.653  11.081
10256SOL    HW132607   1.412   2.680  11.152
10256SOL    HW232608   1.271   2.697  11.100
10257SOL     OW32609  13.897   9.397   0.427
10257SOL    HW132610  13.945   9.479   0.418
10257SOL    HW232611  13.956   9.330   0.392
10258SOL     OW32612  12.551  14.450   2.320
10258SOL    HW132613  12.549  14.545   2.331
10258SOL    HW232614  12.644  14.428   2.316
10259SOL     OW32615   5.653   0.504   3.688
10259SOL    HW132616   5.728   0.551   3.650
10259SOL    HW232617   5.691   0.447   3.754
10260SOL     OW32618   2.519   6.683  14.346
10260SOL    HW132619   2.573   6.763  14.342
10260SOL    HW232620   2.470   6.684  14.264
10261SOL     OW32621  11.544   2.761   2.838
10261SOL    HW132622  11.591   2.832   2.883
10261SOL    HW232623  11.543   2.787   2.746
10262SOL     OW32624   8.327  10.479   5.388
10262SOL    HW132625   8.377  10.482   5.469
10262SOL    HW232626   8.249  10.531   5.406
10263SOL     OW32627  12.468  13.737   1.441
10263SOL    HW132628  12.378  13.707   1.429
10263SOL    HW232629  12.461  13.812   1.499
10264SOL     OW32630   4.647   0.644   7.548
10264SOL    HW132631   4.628   0.608   7.461
10264SOL    HW232632   4.743   0.642   7.554
10265SOL     OW32633   4.821   2.620   0.629
10265SOL    HW132634   4.906   2.612   0.671
10265SOL    HW232635   4.759   2.627   0.702
10266SOL     OW32636   6.084   8.973   2.938
10266SOL    HW132637   6.005   8.948   2.891
10266SOL    HW232638   6.125   8.890   2.962
10267SOL     OW32639  10.422   8.054   3.604
10267SOL    HW132640  10.483   8.042   3.531
10267SOL    HW232641  10.474   8.034   3.682
10268SOL     OW32642  13.967   3.294  11.784
10268SOL    HW132643  13.895   3.268  11.726
10268SOL    HW232644  13.935   3.273  11.872
10269SOL     OW32645  11.914   1.665   8.076
10269SOL    HW132646  11.977   1.720   8.123
10269SOL    HW232647  11.967   1.621   8.009
10270SOL     OW32648  14.800   5.516   8.898
10270SOL    HW132649  14.782   5.456   8.970
10270SOL    HW232650  14.875   5.478   8.852
10271SOL     OW32651  11.873   5.956  11.142
10271SOL    HW132652  11.872   5.880  11.200
10271SOL    HW232653  11.808   6.015  11.179
10272SOL     OW32654   7.049   0.797  12.960
10272SOL    HW132655   7.090   0.753  12.885
10272SOL    HW232656   7.110   0.784  13.032
10273SOL     OW32657   0.243   1.887   7.962
10273SOL    HW132658   0.287   1.808   7.929
10273SOL    HW232659   0.297   1.959   7.930
10274SOL     OW32660  10.652   4.574   1.272
10274SOL    HW132661  10.708   4.642   1.309
10274SOL    HW232662  10.585   4.559   1.338
10275SOL     OW32663   5.211   8.532   7.977
10275SOL    HW132664   5.233   8.532   7.884
10275SOL    HW232665   5.230   8.621   8.006
10276SOL     OW32666   4.342   8.749   0.856
10276SOL    HW132667   4.421   8.726   0.905
10276SOL    HW232668   4.274   8.753   0.923
10277SOL     OW32669  13.565   2.704   5.606
10277SOL    HW132670  13.525   2.659   5.680
10277SOL    HW232671  13.499   2.698   5.536
10278SOL     OW32672   3.636   0.519   8.321
10278SOL    HW132673   3.630   0.445   8.382
10278SOL    HW232674   3.705   0.495   8.260
10279SOL     OW32675   6.120   9.820   6.791
10279SOL    HW132676   6.168   9.823   6.873
10279SOL    HW232677   6.029   9.839   6.815
10280SOL     OW32678   8.365  12.012   6.565
10280SOL    HW132679   8.343  11.977   6.651
10280SOL    HW232680   8.382  12.105   6.581
10281SOL     OW32681   5.501   8.428   9.677
10281SOL    HW132682   5.571   8.464   9.731
10281SOL    HW232683   5.476   8.499   9.618
10282SOL     OW32684   5.322   7.740   2.305
10282SOL    HW132685   5.301   7.830   2.327
10282SOL    HW232686   5.256   7.688   2.349
10283SOL     OW32687   6.759   4.789   7.333
10283SOL    HW132688   6.822   4.727   7.369
10283SOL    HW232689   6.809   4.838   7.267
10284SOL     OW32690   4.456  10.849   1.798
10284SOL    HW132691   4.520  10.788   1.834
10284SOL    HW232692   4.505  10.900   1.733
10285SOL     OW32693  10.770   6.276   3.561
10285SOL    HW132694  10.796   6.366   3.583
10285SOL    HW232695  10.820   6.255   3.482
10286SOL     OW32696   6.813   1.769  10.769
10286SOL    HW132697   6.842   1.789  10.680
10286SOL    HW232698   6.787   1.854  10.805
10287SOL     OW32699   9.377   1.194   6.488
10287SOL    HW132700   9.381   1.244   6.570
10287SOL    HW232701   9.329   1.252   6.428
10288SOL     OW32702  10.980   9.384  10.139
10288SOL    HW132703  10.893   9.404  10.103
10288SOL    HW232704  10.973   9.403  10.232
10289SOL     OW32705  10.650   4.068  10.749
10289SOL    HW132706  10.680   3.987  10.791
10289SOL    HW232707  10.731   4.111  10.720
10290SOL     OW32708   1.992   2.460  14.014
10290SOL    HW132709   2.012   2.463  13.920
10290SOL    HW232710   1.975   2.551  14.038
10291SOL     OW32711   4.452  12.134  10.823
10291SOL    HW132712   4.497  12.138  10.739
10291SOL    HW232713   4.522  12.137  10.888
10292SOL     OW32714   3.859   1.752   2.381
10292SOL    HW132715   3.826   1.806   2.453
10292SOL    HW232716   3.822   1.792   2.302
10293SOL     OW32717   5.386   0.304   3.512
10293SOL    HW132718   5.324   0.279   3.443
10293SOL    HW232719   5.395   0.399   3.502
10294SOL     OW32720   9.514   1.063   6.187
10294SOL    HW132721   9.529   1.129   6.120
10294SOL    HW232722   9.418   1.057   6.193
10295SOL     OW32723   9.147  12.646   3.698
10295SOL    HW132724   9.171  12.737   3.716
10295SOL    HW232725   9.102  12.649   3.614
10296SOL     OW32726   8.183  10.024  12.784
10296SOL    HW132727   8.155   9.959  12.719
10296SOL    HW232728   8.167   9.982  12.869
10297SOL     OW32729   8.666   3.154   7.083
10297SOL    HW132730   8.699   3.149   6.993
10297SOL    HW232731   8.579   3.113   7.079
10298SOL     OW32732   6.880   1.328   6.662
10298SOL    HW132733   6.857   1.236   6.645
10298SOL    HW232734   6.840   1.348   6.747
10299SOL     OW32735  14.710   1.605   6.993
10299SOL    HW132736  14.664   1.653   6.925
10299SOL    HW232737  14.788   1.657   7.011
10300SOL     OW32738  11.351  11.125   4.758
10300SOL    HW132739  11.284  11.186   4.789
10300SOL    HW232740  11.361  11.063   4.830
10301SOL     OW32741   5.908   2.358   5.380
10301SOL    HW132742   5.814   2.373   5.389
10301SOL    HW232743   5.946   2.446   5.384
10302SOL     OW32744   8.128  12.107  14.187
10302SOL    HW132745   8.079  12.167  14.131
10302SOL    HW232746   8.117  12.142  14.275
10303SOL     OW32747   7.370   0.601   4.803
10303SOL    HW132748   7.309   0.588   4.875
10303SOL    HW232749   7.452   0.627   4.844
10304SOL     OW32750   5.803   7.400   9.568
10304SOL    HW132751   5.857   7.347   9.626
10304SOL    HW232752   5.847   7.396   9.483
10305SOL     OW32753  10.405  10.936   8.612
10305SOL    HW132754  10.479  10.987   8.644
10305SOL    HW232755  10.358  10.995   8.554
10306SOL     OW32756  13.049   7.605   1.567
10306SOL    HW132757  13.144   7.605   1.559
10306SOL    HW232758  13.023   7.696   1.549
10307SOL     OW32759   1.860  13.235   7.498
10307SOL    HW132760   1.782  13.275   7.537
10307SOL    HW232761   1.932  13.260   7.557
10308SOL     OW32762   5.117   5.908   2.068
10308SOL    HW132763   5.168   5.961   2.008
10308SOL    HW232764   5.033   5.896   2.025
10309SOL     OW32765   7.408   5.886   9.287
10309SOL    HW132766   7.418   5.974   9.249
10309SOL    HW232767   7.368   5.834   9.217
10310SOL     OW32768  12.796   5.871  13.553
10310SOL    HW132769  12.817   5.908  13.638
10310SOL    HW232770  12.809   5.943  13.491
10311SOL     OW32771   2.259   8.079   2.646
10311SOL    HW132772   2.164   8.068   2.656
10311SOL    HW232773   2.294   7.990   2.645
10312SOL     OW32774  11.918   4.174   5.744
10312SOL    HW132775  11.861   4.130   5.807
10312SOL    HW232776  11.931   4.109   5.675
10313SOL     OW32777   8.669   6.580   2.127
10313SOL    HW132778   8.630   6.667   2.118
10313SOL    HW232779   8.706   6.560   2.041
10314SOL     OW32780   0.446   2.530   3.335
10314SOL    HW132781   0.439   2.506   3.243
10314SOL    HW232782   0.363   2.573   3.355
10315SOL     OW32783   5.396   3.848  13.048
10315SOL    HW132784   5.314   3.798  13.054
10315SOL    HW232785   5.430   3.849  13.137
10316SOL     OW32786  14.587   1.863   1.270
10316SOL    HW132787  14.665   1.815   1.298
10316SOL    HW232788  14.524   1.794   1.247
10317SOL     OW32789  11.500   5.757   1.735
10317SOL    HW132790  11.498   5.746   1.830
10317SOL    HW232791  11.582   5.802   1.717
10318SOL     OW32792   7.901   8.701   9.011
10318SOL    HW132793   7.893   8.653   8.928
10318SOL    HW232794   7.936   8.786   8.986
10319SOL     OW32795   8.747   9.667   5.067
10319SOL    HW132796   8.703   9.741   5.025
10319SOL    HW232797   8.676   9.604   5.084
10320SOL     OW32798   7.615   5.700   3.879
10320SOL    HW132799   7.637   5.788   3.911
10320SOL    HW232800   7.543   5.714   3.818
10321SOL     OW32801   1.416   6.066   3.599
10321SOL    HW132802   1.370   5.982   3.600
10321SOL    HW232803   1.481   6.058   3.668
10322SOL     OW32804  11.817   0.924   3.986
10322SOL    HW132805  11.906   0.923   3.952
10322SOL    HW232806  11.827   0.902   4.079
10323SOL     OW32807   5.902   6.153   7.294
10323SOL    HW132808   5.865   6.236   7.322
10323SOL    HW232809   5.929   6.110   7.375
10324SOL     OW32810   4.250  10.453   7.104
10324SOL    HW132811   4.326  10.505   7.132
10324SOL    HW232812   4.284  10.395   7.036
10325SOL     OW32813   6.148   2.269   5.107
10325SOL    HW132814   6.171   2.289   5.198
10325SOL    HW232815   6.057   2.300   5.099
10326SOL     OW32816  12.316   1.471   7.963
10326SOL    HW132817  12.351   1.461   8.051
10326SOL    HW232818  12.362   1.405   7.911
10327SOL     OW32819   1.222  12.726   2.488
10327SOL    HW132820   1.187  12.670   2.419
10327SOL    HW232821   1.306  12.758   2.453
10328SOL     OW32822   2.973   6.964   3.280
10328SOL    HW132823   3.053   7.001   3.242
10328SOL    HW232824   2.988   6.968   3.374
10329SOL     OW32825   4.045  14.816   6.178
10329SOL    HW132826   4.127  14.773   6.202
10329SOL    HW232827   4.024  14.872   6.253
10330SOL     OW32828   6.025  11.261   2.102
10330SOL    HW132829   6.047  11.349   2.132
10330SOL    HW232830   5.988  11.274   2.014
10331SOL     OW32831   9.650   7.344   9.028
10331SOL    HW132832   9.745   7.341   9.020
10331SOL    HW232833   9.620   7.261   8.993
10332SOL     OW32834  10.283   3.646   1.068
10332SOL    HW132835  10.344   3.692   1.010
10332SOL    HW232836  10.305   3.678   1.156
10333SOL     OW32837  12.017   6.669   7.140
10333SOL    HW132838  12.036   6.661   7.234
10333SOL    HW232839  12.081   6.733   7.109
10334SOL     OW32840   4.900   2.507   6.862
10334SOL    HW132841   4.838   2.536   6.795
10334SOL    HW232842   4.925   2.587   6.908
10335SOL     OW32843   1.052  11.845   5.480
10335SOL    HW132844   0.999  11.920   5.454
10335SOL    HW232845   1.053  11.848   5.576
10336SOL     OW32846   9.888   6.636  10.315
10336SOL    HW132847   9.968   6.632  10.368
10336SOL    HW232848   9.856   6.546  10.312
10337SOL     OW32849   9.477   3.249   0.187
10337SOL    HW132850   9.568   3.263   0.163
10337SOL    HW232851   9.475   3.265   0.282
10338SOL     OW32852   3.599   2.882  10.330
10338SOL    HW132853   3.630   2.942  10.262
10338SOL    HW232854   3.587   2.938  10.407
10339SOL     OW32855  13.769   8.841   4.602
10339SOL    HW132856  13.763   8.816   4.510
10339SOL    HW232857  13.681   8.826   4.637
10340SOL     OW32858   8.354   8.009   8.206
10340SOL    HW132859   8.301   8.066   8.262
10340SOL    HW232860   8.296   7.985   8.134
10341SOL     OW32861   7.678   4.009   3.808
10341SOL    HW132862   7.660   3.919   3.833
10341SOL    HW232863   7.597   4.040   3.768
10342SOL     OW32864   1.146   8.354   7.310
10342SOL    HW132865   1.091   8.277   7.323
10342SOL    HW232866   1.214   8.346   7.378
10343SOL     OW32867   6.268   3.130   6.928
10343SOL    HW132868   6.362   3.130   6.945
10343SOL    HW232869   6.260   3.120   6.833
10344SOL     OW32870   4.219  12.628   1.096
10344SOL    HW132871   4.148  12.631   1.161
10344SOL    HW232872   4.284  12.690   1.128
10345SOL     OW32873   6.263   8.175   6.818
10345SOL    HW132874   6.357   8.193   6.815
10345SOL    HW232875   6.253   8.090   6.776
10346SOL     OW32876   3.576   2.011   5.009
10346SOL    HW132877   3.504   1.963   4.969
10346SOL    HW232878   3.568   2.100   4.973
10347SOL     OW32879   0.237   9.392   1.031
10347SOL    HW132880   0.169   9.343   0.986
10347SOL    HW232881   0.203   9.481   1.036
10348SOL     OW32882   2.607   3.350   2.449
10348SOL    HW132883   2.615   3.342   2.354
10348SOL    HW232884   2.696   3.369   2.479
10349SOL     OW32885   6.592  12.888   5.497
10349SOL    HW132886   6.506  12.921   5.469
10349SOL    HW232887   6.582  12.870   5.590
10350SOL     OW32888   3.167   5.080   6.566
10350SOL    HW132889   3.136   4.995   6.535
10350SOL    HW232890   3.148   5.080   6.660
10351SOL     OW32891  12.579   5.552  10.005
10351SOL    HW132892  12.491   5.517  10.000
10351SOL    HW232893  12.578   5.611  10.081
10352SOL     OW32894  14.205   4.268  14.304
10352SOL    HW132895  14.247   4.297  14.385
10352SOL    HW232896  14.116   4.246  14.330
10353SOL     OW32897   1.631   3.765  13.092
10353SOL    HW132898   1.600   3.675  13.100
10353SOL    HW232899   1.608   3.790  13.002
10354SOL     OW32900   1.766   9.625   1.043
10354SOL    HW132901   1.837   9.688   1.055
10354SOL    HW232902   1.695   9.675   1.002
10355SOL     OW32903   4.487   3.893  11.681
10355SOL    HW132904   4.557   3.827  11.689
10355SOL    HW232905   4.444   3.892  11.766
10356SOL     OW32906  11.086   8.235   9.540
10356SOL    HW132907  11.123   8.160   9.494
10356SOL    HW232908  11.098   8.308   9.480
10357SOL     OW32909   2.713   4.163   9.554
10357SOL    HW132910   2.715   4.247   9.509
10357SOL    HW232911   2.716   4.098   9.484
10358SOL     OW32912  12.006   9.074   2.300
10358SOL    HW132913  11.954   9.150   2.326
10358SOL    HW232914  12.082   9.112   2.257
10359SOL     OW32915   8.683   2.847   3.923
10359SOL    HW132916   8.670   2.753   3.916
10359SOL    HW232917   8.726   2.859   4.007
10360SOL     OW32918  11.084   4.408   2.579
10360SOL    HW132919  11.040   4.452   2.506
10360SOL    HW232920  11.157   4.466   2.601
10361SOL     OW32921   4.557   7.436  12.742
10361SOL    HW132922   4.556   7.516  12.689
10361SOL    HW232923   4.491   7.380  12.701
10362SOL     OW32924   4.656   0.529   5.465
10362SOL    HW132925   4.666   0.437   5.441
10362SOL    HW232926   4.579   0.532   5.521
10363SOL     OW32927  11.359  13.486   5.423
10363SOL    HW132928  11.330  13.398   5.398
10363SOL    HW232929  11.432  13.472   5.483
10364SOL     OW32930   8.890  10.158   5.465
10364SOL    HW132931   8.871  10.113   5.383
10364SOL    HW232932   8.888  10.090   5.531
10365SOL     OW32933   6.742   1.099   1.982
10365SOL    HW132934   6.681   1.031   1.954
10365SOL    HW232935   6.827   1.056   1.985
10366SOL     OW32936  10.253   2.151   8.101
10366SOL    HW132937  10.273   2.133   8.193
10366SOL    HW232938  10.243   2.246   8.096
10367SOL     OW32939   4.158   6.284   2.754
10367SOL    HW132940   4.071   6.247   2.737
10367SOL    HW232941   4.209   6.263   2.676
10368SOL     OW32942   0.854   9.724  13.058
10368SOL    HW132943   0.904   9.742  12.978
10368SOL    HW232944   0.918   9.733  13.129
10369SOL     OW32945   5.826   4.847  14.261
10369SOL    HW132946   5.908   4.846  14.212
10369SOL    HW232947   5.842   4.789  14.336
10370SOL     OW32948   0.142  10.156   5.381
10370SOL    HW132949   0.219  10.212   5.379
10370SOL    HW232950   0.075  10.209   5.425
10371SOL     OW32951   9.316   0.874   8.528
10371SOL    HW132952   9.339   0.965   8.545
10371SOL    HW232953   9.271   0.846   8.608
10372SOL     OW32954   8.508   3.578   5.445
10372SOL    HW132955   8.418   3.563   5.475
10372SOL    HW232956   8.503   3.574   5.350
10373SOL     OW32957   6.303   2.247  14.290
10373SOL    HW132958   6.257   2.215  14.213
10373SOL    HW232959   6.361   2.176  14.316
10374SOL     OW32960   5.240   9.603   0.555
10374SOL    HW132961   5.245   9.691   0.517
10374SOL    HW232962   5.147   9.591   0.574
10375SOL     OW32963   1.717   7.607   0.349
10375SOL    HW132964   1.647   7.654   0.394
10375SOL    HW232965   1.686   7.595   0.260
10376SOL     OW32966   2.232   1.995   3.637
10376SOL    HW132967   2.236   2.005   3.542
10376SOL    HW232968   2.152   2.041   3.662
10377SOL     OW32969   5.753   4.332  10.022
10377SOL    HW132970   5.668   4.301   9.992
10377SOL    HW232971   5.734   4.380  10.102
10378SOL     OW32972   7.085  13.472   3.183
10378SOL    HW132973   7.059  13.481   3.274
10378SOL    HW232974   7.115  13.381   3.175
10379SOL     OW32975   7.173   7.141  13.303
10379SOL    HW132976   7.215   7.072  13.251
10379SOL    HW232977   7.146   7.206  13.239
10380SOL     OW32978  13.883   2.843   7.061
10380SOL    HW132979  13.867   2.817   7.152
10380SOL    HW232980  13.862   2.765   7.010
10381SOL     OW32981   3.818   4.536  12.645
10381SOL    HW132982   3.847   4.626  12.637
10381SOL    HW232983   3.762   4.521  12.569
10382SOL     OW32984   6.090   5.759   8.153
10382SOL    HW132985   6.121   5.701   8.222
10382SOL    HW232986   5.996   5.740   8.145
10383SOL     OW32987   3.611   0.051   6.342
10383SOL    HW132988   3.520   0.043   6.372
10383SOL    HW232989   3.655  14.853   6.377
10384SOL     OW32990   4.434   5.730   5.462
10384SOL    HW132991   4.375   5.799   5.494
10384SOL    HW232992   4.520   5.770   5.461
10385SOL     OW32993   8.655   4.234  10.875
10385SOL    HW132994   8.692   4.316  10.840
10385SOL    HW232995   8.580   4.262  10.927
10386SOL     OW32996   9.359   8.183  10.689
10386SOL    HW132997   9.321   8.102  10.724
10386SOL    HW232998   9.433   8.201  10.747
10387SOL     OW32999   8.378   8.168   0.360
10387SOL    HW133000   8.423   8.085   0.374
10387SOL    HW233001   8.285   8.147   0.373
10388SOL     OW33002   7.069   0.530   2.926
10388SOL    HW133003   7.010   0.457   2.908
10388SOL    HW233004   7.048   0.595   2.859
10389SOL     OW33005   4.409  13.713   4.957
10389SOL    HW133006   4.428  13.763   5.036
10389SOL    HW233007   4.477  13.646   4.953
10390SOL     OW33008   3.315  10.802   9.583
10390SOL    HW133009   3.269  10.749   9.648
10390SOL    HW233010   3.403  10.815   9.620
10391SOL     OW33011   0.448  12.366  13.636
10391SOL    HW133012   0.475  12.438  13.579
10391SOL    HW233013   0.459  12.288  13.582
10392SOL     OW33014  13.681   6.783  10.474
10392SOL    HW133015  13.656   6.863  10.520
10392SOL    HW233016  13.620   6.717  10.506
10393SOL     OW33017  11.760  12.167  10.344
10393SOL    HW133018  11.790  12.083  10.378
10393SOL    HW233019  11.710  12.145  10.265
10394SOL     OW33020  10.439   4.861  12.407
10394SOL    HW133021  10.495   4.910  12.467
10394SOL    HW233022  10.406   4.926  12.346
10395SOL     OW33023   2.681   1.703   2.977
10395SOL    HW133024   2.607   1.662   2.932
10395SOL    HW233025   2.749   1.710   2.910
10396SOL     OW33026   6.331   3.172   2.151
10396SOL    HW133027   6.269   3.240   2.127
10396SOL    HW233028   6.313   3.100   2.091
10397SOL     OW33029   2.255   7.195   8.526
10397SOL    HW133030   2.298   7.236   8.451
10397SOL    HW233031   2.234   7.106   8.497
10398SOL     OW33032   6.960  12.522   4.066
10398SOL    HW133033   6.939  12.520   3.973
10398SOL    HW233034   7.046  12.564   4.070
10399SOL     OW33035   2.584   0.350   2.387
10399SOL    HW133036   2.627   0.297   2.319
10399SOL    HW233037   2.495   0.363   2.355
10400SOL     OW33038  11.182   7.522   8.263
10400SOL    HW133039  11.230   7.522   8.181
10400SOL    HW233040  11.201   7.436   8.302
10401SOL     OW33041  13.947   7.654   4.885
10401SOL    HW133042  14.040   7.666   4.901
10401SOL    HW233043  13.916   7.603   4.960
10402SOL     OW33044  11.487   9.558   9.735
10402SOL    HW133045  11.577   9.531   9.717
10402SOL    HW233046  11.444   9.478   9.765
10403SOL     OW33047  10.009   7.882  13.036
10403SOL    HW133048  10.084   7.847  13.083
10403SOL    HW233049   9.937   7.881  13.099
10404SOL     OW33050   5.414  12.008   3.023
10404SOL    HW133051   5.430  12.038   2.933
10404SOL    HW233052   5.325  12.038   3.042
10405SOL     OW33053   3.965   1.043  11.277
10405SOL    HW133054   3.985   1.096  11.200
10405SOL    HW233055   4.002   1.091  11.350
10406SOL     OW33056  13.483  13.473  11.636
10406SOL    HW133057  13.440  13.552  11.669
10406SOL    HW233058  13.493  13.417  11.714
10407SOL     OW33059  11.572  14.413   5.170
10407SOL    HW133060  11.602  14.363   5.246
10407SOL    HW233061  11.627  14.491   5.170
10408SOL     OW33062  10.188   2.683   0.009
10408SOL    HW133063  10.118   2.738  14.852
10408SOL    HW233064  10.217   2.730   0.087
10409SOL     OW33065   2.490  13.240   9.250
10409SOL    HW133066   2.461  13.168   9.193
10409SOL    HW233067   2.563  13.279   9.203
10410SOL     OW33068   4.284   2.757   9.511
10410SOL    HW133069   4.194   2.755   9.480
10410SOL    HW233070   4.312   2.665   9.510
10411SOL     OW33071  10.317   8.144   0.181
10411SOL    HW133072  10.363   8.136   0.264
10411SOL    HW233073  10.271   8.228   0.187
10412SOL     OW33074   2.610  11.701  11.766
10412SOL    HW133075   2.647  11.788  11.780
10412SOL    HW233076   2.554  11.711  11.689
10413SOL     OW33077   6.113   2.564   9.562
10413SOL    HW133078   6.017   2.570   9.560
10413SOL    HW233079   6.130   2.475   9.592
10414SOL     OW33080   5.973  10.646   9.324
10414SOL    HW133081   6.038  10.696   9.374
10414SOL    HW233082   5.889  10.672   9.363
10415SOL     OW33083   5.911   0.767   2.953
10415SOL    HW133084   5.845   0.748   3.020
10415SOL    HW233085   5.914   0.688   2.899
10416SOL     OW33086   8.388   8.398   3.925
10416SOL    HW133087   8.343   8.340   3.987
10416SOL    HW233088   8.459   8.344   3.890
10417SOL     OW33089  11.043  13.996   5.455
10417SOL    HW133090  10.966  14.025   5.504
10417SOL    HW233091  11.049  14.058   5.382
10418SOL     OW33092   9.091   4.706   6.476
10418SOL    HW133093   9.133   4.622   6.494
10418SOL    HW233094   9.163   4.769   6.467
10419SOL     OW33095   6.245   2.769  13.100
10419SOL    HW133096   6.150   2.781  13.103
10419SOL    HW233097   6.280   2.858  13.094
10420SOL     OW33098   4.092   6.191   4.705
10420SOL    HW133099   4.169   6.241   4.732
10420SOL    HW233100   4.109   6.171   4.612
10421SOL     OW33101  12.731  10.223   0.525
10421SOL    HW133102  12.776  10.304   0.500
10421SOL    HW233103  12.778  10.155   0.477
10422SOL     OW33104   3.170  14.101  14.320
10422SOL    HW133105   3.165  14.175  14.380
10422SOL    HW233106   3.232  14.129  14.253
10423SOL     OW33107   5.116   0.232   0.876
10423SOL    HW133108   5.185   0.195   0.931
10423SOL    HW233109   5.079   0.303   0.929
10424SOL     OW33110   6.422   2.113  12.932
10424SOL    HW133111   6.448   2.100  12.841
10424SOL    HW233112   6.397   2.206  12.936
10425SOL     OW33113   7.796   3.077   4.736
10425SOL    HW133114   7.873   3.107   4.785
10425SOL    HW233115   7.745   3.028   4.800
10426SOL     OW33116   4.543   4.087   3.222
10426SOL    HW133117   4.515   4.000   3.194
10426SOL    HW233118   4.621   4.105   3.169
10427SOL     OW33119   9.405   5.502   4.206
10427SOL    HW133120   9.374   5.574   4.260
10427SOL    HW233121   9.341   5.432   4.221
10428SOL     OW33122   9.100   8.377   7.611
10428SOL    HW133123   9.038   8.319   7.566
10428SOL    HW233124   9.168   8.317   7.644
10429SOL     OW33125   8.900   6.275   9.953
10429SOL    HW133126   8.957   6.204   9.923
10429SOL    HW233127   8.858   6.240  10.032
10430SOL     OW33128   1.391   0.701   5.800
10430SOL    HW133129   1.408   0.790   5.830
10430SOL    HW233130   1.335   0.711   5.723
10431SOL     OW33131   8.755   8.306  14.627
10431SOL    HW133132   8.727   8.218  14.603
10431SOL    HW233133   8.736   8.359  14.549
10432SOL     OW33134   5.160   1.693  11.815
10432SOL    HW133135   5.141   1.754  11.887
10432SOL    HW233136   5.077   1.681  11.771
10433SOL     OW33137   8.509   2.723   7.412
10433SOL    HW133138   8.449   2.796   7.397
10433SOL    HW233139   8.596   2.759   7.393
10434SOL     OW33140  10.929   0.642  13.704
10434SOL    HW133141  10.931   0.662  13.798
10434SOL    HW233142  10.983   0.710  13.665
10435SOL     OW33143  11.911   6.841  10.552
10435SOL    HW133144  11.962   6.911  10.593
10435SOL    HW233145  11.971   6.768  10.545
10436SOL     OW33146  12.689   4.570   2.406
10436SOL    HW133147  12.660   4.505   2.470
10436SOL    HW233148  12.683   4.524   2.322
10437SOL     OW33149  12.557   0.913   8.425
10437SOL    HW133150  12.553   0.818   8.427
10437SOL    HW233151  12.510   0.941   8.503
10438SOL     OW33152   1.896   0.811   1.126
10438SOL    HW133153   1.877   0.750   1.197
10438SOL    HW233154   1.811   0.848   1.103
10439SOL     OW33155   5.532  12.912  11.857
10439SOL    HW133156   5.492  12.862  11.785
10439SOL    HW233157   5.515  13.003  11.836
10440SOL     OW33158   8.376   9.068   1.113
10440SOL    HW133159   8.410   8.995   1.164
10440SOL    HW233160   8.393   9.043   1.022
10441SOL     OW33161   4.814   9.738   2.907
10441SOL    HW133162   4.885   9.801   2.920
10441SOL    HW233163   4.816   9.718   2.814
10442SOL     OW33164  12.670   2.558  13.027
10442SOL    HW133165  12.684   2.534  12.935
10442SOL    HW233166  12.710   2.487  13.077
10443SOL     OW33167  13.554  10.891   6.275
10443SOL    HW133168  13.629  10.938   6.237
10443SOL    HW233169  13.483  10.907   6.213
10444SOL     OW33170   1.501  14.562  13.608
10444SOL    HW133171   1.468  14.478  13.575
10444SOL    HW233172   1.530  14.609  13.530
10445SOL     OW33173   9.279   0.176  11.069
10445SOL    HW133174   9.295   0.256  11.118
10445SOL    HW233175   9.184   0.164  11.071
10446SOL     OW33176  13.483   9.484   0.164
10446SOL    HW133177  13.501   9.489   0.258
10446SOL    HW233178  13.393   9.452   0.159
10447SOL     OW33179   3.987   5.899  11.926
10447SOL    HW133180   3.913   5.873  11.871
10447SOL    HW233181   4.051   5.829  11.916
10448SOL     OW33182   1.569   5.349   1.909
10448SOL    HW133183   1.639   5.361   1.974
10448SOL    HW233184   1.504   5.415   1.931
10449SOL     OW33185   9.921   5.049   9.353
10449SOL    HW133186   9.876   5.099   9.285
10449SOL    HW233187   9.996   5.010   9.309
10450SOL     OW33188   3.578  10.618   9.956
10450SOL    HW133189   3.560  10.682  10.024
10450SOL    HW233190   3.638  10.555   9.996
10451SOL     OW33191   9.466  11.079  10.302
10451SOL    HW133192   9.470  11.083  10.207
10451SOL    HW233193   9.373  11.093  10.323
10452SOL     OW33194   3.611   8.357   3.218
10452SOL    HW133195   3.597   8.433   3.275
10452SOL    HW233196   3.636   8.287   3.278
10453SOL     OW33197  11.014   5.377   9.802
10453SOL    HW133198  10.936   5.428   9.779
10453SOL    HW233199  11.026   5.317   9.728
10454SOL     OW33200  12.408   7.440  12.932
10454SOL    HW133201  12.377   7.419  13.020
10454SOL    HW233202  12.344   7.400  12.873
10455SOL     OW33203  14.679   2.498   3.282
10455SOL    HW133204  14.741   2.567   3.307
10455SOL    HW233205  14.595   2.544   3.273
10456SOL     OW33206   0.880   8.820   2.412
10456SOL    HW133207   0.898   8.872   2.490
10456SOL    HW233208   0.790   8.791   2.423
10457SOL     OW33209   2.867  12.496  11.560
10457SOL    HW133210   2.785  12.518  11.515
10457SOL    HW233211   2.871  12.556  11.634
10458SOL     OW33212   7.159  12.839   0.868
10458SOL    HW133213   7.139  12.916   0.921
10458SOL    HW233214   7.145  12.868   0.778
10459SOL     OW33215   2.227  13.749   2.792
10459SOL    HW133216   2.242  13.717   2.881
10459SOL    HW233217   2.146  13.800   2.799
10460SOL     OW33218   9.113  11.512  12.870
10460SOL    HW133219   9.077  11.523  12.958
10460SOL    HW233220   9.116  11.418  12.857
10461SOL     OW33221  11.678   7.707  10.956
10461SOL    HW133222  11.747   7.678  10.897
10461SOL    HW233223  11.614   7.750  10.899
10462SOL     OW33224   6.127   8.983  13.288
10462SOL    HW133225   6.063   9.049  13.315
10462SOL    HW233226   6.130   8.990  13.192
10463SOL     OW33227   9.787   0.029  10.275
10463SOL    HW133228   9.847  14.836  10.292
10463SOL    HW233229   9.792   0.082  10.355
10464SOL     OW33230  13.982  12.094   0.254
10464SOL    HW133231  14.041  12.151   0.303
10464SOL    HW233232  13.911  12.152   0.225
10465SOL     OW33233   6.629   7.398  11.952
10465SOL    HW133234   6.657   7.418  12.042
10465SOL    HW233235   6.614   7.304  11.952
10466SOL     OW33236  11.360   5.801   4.271
10466SOL    HW133237  11.301   5.778   4.343
10466SOL    HW233238  11.327   5.750   4.197
10467SOL     OW33239   6.807   4.527   6.632
10467SOL    HW133240   6.731   4.504   6.579
10467SOL    HW233241   6.840   4.607   6.593
10468SOL     OW33242   3.759   3.063   0.677
10468SOL    HW133243   3.715   3.139   0.638
10468SOL    HW233244   3.691   2.995   0.678
10469SOL     OW33245  11.791  14.158   3.763
10469SOL    HW133246  11.744  14.078   3.787
10469SOL    HW233247  11.820  14.143   3.673
10470SOL     OW33248   7.912   1.283   2.183
10470SOL    HW133249   7.922   1.355   2.121
10470SOL    HW233250   7.857   1.318   2.252
10471SOL     OW33251   1.482   9.355   4.442
10471SOL    HW133252   1.427   9.389   4.512
10471SOL    HW233253   1.521   9.275   4.478
10472SOL     OW33254  14.515   3.284  11.643
10472SOL    HW133255  14.598   3.246  11.616
10472SOL    HW233256  14.492   3.344  11.572
10473SOL     OW33257   5.182  13.275  14.632
10473SOL    HW133258   5.253  13.211  14.628
10473SOL    HW233259   5.144  13.274  14.544
10474SOL     OW33260   8.749   7.854   7.804
10474SOL    HW133261   8.826   7.814   7.845
10474SOL    HW233262   8.758   7.948   7.825
10475SOL     OW33263   6.593   8.073   9.963
10475SOL    HW133264   6.644   8.150   9.936
10475SOL    HW233265   6.556   8.039   9.882
10476SOL     OW33266   3.111  14.281   3.988
10476SOL    HW133267   3.148  14.206   4.034
10476SOL    HW233268   3.183  14.344   3.982
10477SOL     OW33269  10.533  10.399   3.981
10477SOL    HW133270  10.447  10.437   3.968
10477SOL    HW233271  10.539  10.329   3.916
10478SOL     OW33272   3.640   7.555  14.409
10478SOL    HW133273   3.619   7.520  14.323
10478SOL    HW233274   3.736   7.562  14.409
10479SOL     OW33275  12.535   5.759  13.535
10479SOL    HW133276  12.626   5.787  13.533
10479SOL    HW233277  12.513   5.753  13.628
10480SOL     OW33278   9.140   6.158  10.924
10480SOL    HW133279   9.107   6.104  10.997
10480SOL    HW233280   9.215   6.205  10.962
10481SOL     OW33281   7.718  12.837   2.626
10481SOL    HW133282   7.749  12.782   2.698
10481SOL    HW233283   7.749  12.925   2.647
10482SOL     OW33284   1.958   3.879   8.418
10482SOL    HW133285   1.877   3.863   8.466
10482SOL    HW233286   1.982   3.793   8.384
10483SOL     OW33287  12.036   5.829  14.464
10483SOL    HW133288  12.000   5.915  14.487
10483SOL    HW233289  12.049   5.786  14.548
10484SOL     OW33290   9.550   1.564   3.903
10484SOL    HW133291   9.514   1.584   3.817
10484SOL    HW233292   9.640   1.537   3.886
10485SOL     OW33293  13.052  10.234  13.946
10485SOL    HW133294  12.987  10.297  13.976
10485SOL    HW233295  13.087  10.272  13.865
10486SOL     OW33296  13.746   5.107   6.934
10486SOL    HW133297  13.654   5.082   6.930
10486SOL    HW233298  13.757   5.173   6.865
10487SOL     OW33299  12.237   3.311  12.046
10487SOL    HW133300  12.159   3.256  12.050
10487SOL    HW233301  12.271   3.312  12.136
10488SOL     OW33302  11.358   6.950   2.528
10488SOL    HW133303  11.406   6.867   2.525
10488SOL    HW233304  11.297   6.940   2.601
10489SOL     OW33305  10.511   1.779  11.172
10489SOL    HW133306  10.440   1.740  11.122
10489SOL    HW233307  10.586   1.779  11.112
10490SOL     OW33308   4.467   7.177   1.223
10490SOL    HW133309   4.469   7.143   1.313
10490SOL    HW233310   4.406   7.121   1.177
10491SOL     OW33311   5.070   6.272  13.415
10491SOL    HW133312   5.087   6.180  13.436
10491SOL    HW233313   5.123   6.289  13.337
10492SOL     OW33314  10.223   1.366   5.712
10492SOL    HW133315  10.188   1.426   5.646
10492SOL    HW233316  10.317   1.387   5.715
10493SOL     OW33317   2.468  13.426   0.981
10493SOL    HW133318   2.505  13.507   0.947
10493SOL    HW233319   2.484  13.361   0.913
10494SOL     OW33320   1.998  12.165   8.992
10494SOL    HW133321   1.942  12.141   9.066
10494SOL    HW233322   1.985  12.259   8.980
10495SOL     OW33323   7.477   5.976   2.718
10495SOL    HW133324   7.454   5.997   2.627
10495SOL    HW233325   7.572   5.983   2.720
10496SOL     OW33326   1.437   1.274  14.574
10496SOL    HW133327   1.519   1.258  14.526
10496SOL    HW233328   1.429   1.199  14.633
10497SOL     OW33329  14.661   7.961  12.493
10497SOL    HW133330  14.603   7.932  12.422
10497SOL    HW233331  14.604   8.012  12.551
10498SOL     OW33332   2.419   3.044   3.798
10498SOL    HW133333   2.394   2.964   3.843
10498SOL    HW233334   2.404   3.025   3.705
10499SOL     OW33335   7.403   5.258   7.957
10499SOL    HW133336   7.481   5.205   7.975
10499SOL    HW233337   7.339   5.196   7.921
10500SOL     OW33338  14.812  11.273   9.158
10500SOL    HW133339  14.717  11.276   9.169
10500SOL    HW233340  14.831  11.181   9.144
10501SOL     OW33341   9.929   5.046   9.622
10501SOL    HW133342   9.906   5.040   9.529
10501SOL    HW233343   9.859   4.997   9.666
10502SOL     OW33344  12.525   2.498   7.835
10502SOL    HW133345  12.553   2.589   7.839
10502SOL    HW233346  12.536   2.474   7.743
10503SOL     OW33347   4.949   2.517   3.966
10503SOL    HW133348   4.993   2.565   4.036
10503SOL    HW233349   5.021   2.478   3.916
10504SOL     OW33350  11.115   5.647   5.846
10504SOL    HW133351  11.130   5.711   5.915
10504SOL    HW233352  11.102   5.564   5.892
10505SOL     OW33353  11.482   5.219  10.241
10505SOL    HW133354  11.455   5.177  10.160
10505SOL    HW233355  11.573   5.190  10.255
10506SOL     OW33356   1.741   8.460   0.803
10506SOL    HW133357   1.717   8.368   0.808
10506SOL    HW233358   1.672   8.500   0.750
10507SOL     OW33359   0.610   3.737  14.116
10507SOL    HW133360   0.615   3.652  14.161
10507SOL    HW233361   0.628   3.717  14.025
10508SOL     OW33362  12.072  13.211  11.361
10508SOL    HW133363  12.032  13.285  11.407
10508SOL    HW233364  12.069  13.139  11.424
10509SOL     OW33365   0.386   6.805  14.121
10509SOL    HW133366   0.305   6.761  14.094
10509SOL    HW233367   0.357   6.891  14.151
10510SOL     OW33368   5.226   7.193   7.716
10510SOL    HW133369   5.238   7.283   7.687
10510SOL    HW233370   5.309   7.150   7.696
10511SOL     OW33371   0.502   8.689  10.932
10511SOL    HW133372   0.459   8.719  11.012
10511SOL    HW233373   0.526   8.769  10.885
10512SOL     OW33374  13.481   5.000   0.116
10512SOL    HW133375  13.541   5.068   0.085
10512SOL    HW233376  13.456   5.028   0.204
10513SOL     OW33377  14.249  14.695  11.939
10513SOL    HW133378  14.309  14.623  11.922
10513SOL    HW233379  14.306  14.770  11.954
10514SOL     OW33380   1.755  14.863   6.649
10514SOL    HW133381   1.674  14.869   6.599
10514SOL    HW233382   1.726  14.848   6.739
10515SOL     OW33383  10.333   4.011   6.956
10515SOL    HW133384  10.400   3.956   6.914
10515SOL    HW233385  10.284   3.951   7.011
10516SOL     OW33386  12.280   5.979   6.484
10516SOL    HW133387  12.247   6.064   6.511
10516SOL    HW233388  12.302   5.934   6.566
10517SOL     OW33389   6.571   6.228  10.117
10517SOL    HW133390   6.478   6.244  10.134
10517SOL    HW233391   6.591   6.149  10.167
10518SOL     OW33392   7.445   8.752  12.735
10518SOL    HW133393   7.484   8.774  12.820
10518SOL    HW233394   7.414   8.836  12.701
10519SOL     OW33395   1.708  12.459   8.659
10519SOL    HW133396   1.684  12.550   8.644
10519SOL    HW233397   1.624  12.414   8.673
10520SOL     OW33398   8.164   9.135   0.048
10520SOL    HW133399   8.132   9.145   0.138
10520SOL    HW233400   8.200   9.046   0.046
10521SOL     OW33401   1.801   8.510   3.230
10521SOL    HW133402   1.887   8.542   3.260
10521SOL    HW233403   1.747   8.589   3.224
10522SOL     OW33404   5.389   4.827  12.583
10522SOL    HW133405   5.329   4.889  12.623
10522SOL    HW233406   5.378   4.840  12.489
10523SOL     OW33407   2.241  11.143   8.147
10523SOL    HW133408   2.247  11.235   8.121
10523SOL    HW233409   2.330  11.118   8.169
10524SOL     OW33410  10.453   3.471  13.265
10524SOL    HW133411  10.481   3.394  13.216
10524SOL    HW233412  10.533   3.502  13.308
10525SOL     OW33413  12.289  11.086  12.922
10525SOL    HW133414  12.259  11.076  13.012
10525SOL    HW233415  12.222  11.041  12.870
10526SOL     OW33416   6.255  12.503  11.352
10526SOL    HW133417   6.332  12.503  11.296
10526SOL    HW233418   6.200  12.433  11.317
10527SOL     OW33419  14.135   4.759   2.596
10527SOL    HW133420  14.184   4.690   2.642
10527SOL    HW233421  14.078   4.711   2.536
10528SOL     OW33422   0.073  13.744   8.626
10528SOL    HW133423   0.041  13.735   8.536
10528SOL    HW233424   0.120  13.663   8.642
10529SOL     OW33425  13.040   1.505   7.541
10529SOL    HW133426  13.035   1.577   7.604
10529SOL    HW233427  13.010   1.543   7.459
10530SOL     OW33428  14.552  13.529   2.373
10530SOL    HW133429  14.587  13.610   2.409
10530SOL    HW233430  14.472  13.555   2.327
10531SOL     OW33431   4.605  10.036   5.313
10531SOL    HW133432   4.557  10.009   5.235
10531SOL    HW233433   4.564   9.986   5.384
10532SOL     OW33434  12.815   6.293  12.792
10532SOL    HW133435  12.888   6.353  12.806
10532SOL    HW233436  12.762   6.300  12.871
10533SOL     OW33437   6.398   1.712  14.712
10533SOL    HW133438   6.440   1.628  14.729
10533SOL    HW233439   6.424   1.768  14.786
10534SOL     OW33440  14.554   2.923   4.336
10534SOL    HW133441  14.481   2.948   4.393
10534SOL    HW233442  14.581   3.005   4.294
10535SOL     OW33443   4.662  12.839  10.777
10535SOL    HW133444   4.732  12.778  10.750
10535SOL    HW233445   4.604  12.843  10.701
10536SOL     OW33446   8.057  12.188  13.106
10536SOL    HW133447   8.098  12.240  13.174
10536SOL    HW233448   8.000  12.127  13.153
10537SOL     OW33449  11.004   6.185  10.574
10537SOL    HW133450  11.049   6.107  10.541
10537SOL    HW233451  10.938   6.150  10.635
10538SOL     OW33452   2.052   4.637   1.643
10538SOL    HW133453   2.099   4.639   1.560
10538SOL    HW233454   1.964   4.668   1.623
10539SOL     OW33455   7.585   8.417  12.880
10539SOL    HW133456   7.492   8.427  12.860
10539SOL    HW233457   7.588   8.363  12.959
10540SOL     OW33458   9.066  13.632  11.222
10540SOL    HW133459   9.073  13.554  11.168
10540SOL    HW233460   9.047  13.600  11.310
10541SOL     OW33461   5.855   4.389   3.305
10541SOL    HW133462   5.789   4.369   3.372
10541SOL    HW233463   5.926   4.430   3.354
10542SOL     OW33464  13.735   8.236   1.810
10542SOL    HW133465  13.768   8.148   1.791
10542SOL    HW233466  13.813   8.289   1.823
10543SOL     OW33467   6.850   1.334   5.279
10543SOL    HW133468   6.776   1.278   5.303
10543SOL    HW233469   6.865   1.314   5.186
10544SOL     OW33470   3.329   8.653   1.597
10544SOL    HW133471   3.244   8.683   1.566
10544SOL    HW233472   3.387   8.728   1.583
10545SOL     OW33473  13.968   2.399   0.341
10545SOL    HW133474  13.960   2.376   0.434
10545SOL    HW233475  13.930   2.486   0.334
10546SOL     OW33476   1.684  14.272   1.888
10546SOL    HW133477   1.704  14.190   1.844
10546SOL    HW233478   1.702  14.339   1.822
10547SOL     OW33479  12.446   7.287  11.267
10547SOL    HW133480  12.524   7.281  11.322
10547SOL    HW233481  12.447   7.207  11.214
10548SOL     OW33482  11.738   2.110   1.974
10548SOL    HW133483  11.668   2.067   1.924
10548SOL    HW233484  11.791   2.038   2.008
10549SOL     OW33485   1.344   1.225   2.992
10549SOL    HW133486   1.438   1.241   2.998
10549SOL    HW233487   1.308   1.305   2.954
10550SOL     OW33488  14.751  11.097   5.701
10550SOL    HW133489  14.778  11.007   5.683
10550SOL    HW233490  14.769  11.110   5.794
10551SOL     OW33491   3.007  12.777  12.986
10551SOL    HW133492   2.971  12.821  13.064
10551SOL    HW233493   3.089  12.823  12.969
10552SOL     OW33494   0.356  10.009   6.593
10552SOL    HW133495   0.345   9.936   6.533
10552SOL    HW233496   0.277  10.062   6.582
10553SOL     OW33497  11.234   4.920  10.682
10553SOL    HW133498  11.239   4.839  10.732
10553SOL    HW233499  11.308   4.972  10.713
10554SOL     OW33500  11.604   9.388   0.513
10554SOL    HW133501  11.551   9.309   0.525
10554SOL    HW233502  11.650   9.373   0.430
10555SOL     OW33503  10.044   4.703  14.819
10555SOL    HW133504   9.978   4.771  14.829
10555SOL    HW233505  10.101   4.734  14.748
10556SOL     OW33506   9.417   8.415   3.011
10556SOL    HW133507   9.461   8.335   3.040
10556SOL    HW233508   9.354   8.384   2.945
10557SOL     OW33509   3.743   4.787   6.276
10557SOL    HW133510   3.799   4.772   6.199
10557SOL    HW233511   3.796   4.841   6.334
10558SOL     OW33512  14.095   8.590  14.503
10558SOL    HW133513  14.111   8.512  14.556
10558SOL    HW233514  14.006   8.616  14.526
10559SOL     OW33515   6.141  12.538   7.680
10559SOL    HW133516   6.090  12.482   7.737
10559SOL    HW233517   6.151  12.488   7.599
10560SOL     OW33518  10.739   0.467   3.240
10560SOL    HW133519  10.787   0.385   3.229
10560SOL    HW233520  10.693   0.479   3.158
10561SOL     OW33521   9.322  13.892   9.851
10561SOL    HW133522   9.250  13.899   9.913
10561SOL    HW233523   9.364  13.978   9.853
10562SOL     OW33524   3.250  11.562   7.873
10562SOL    HW133525   3.279  11.474   7.849
10562SOL    HW233526   3.215  11.599   7.792
10563SOL     OW33527   5.411   9.258   0.286
10563SOL    HW133528   5.348   9.215   0.344
10563SOL    HW233529   5.357   9.312   0.228
10564SOL     OW33530  13.915   2.384  12.932
10564SOL    HW133531  13.933   2.348  13.019
10564SOL    HW233532  13.912   2.479  12.946
10565SOL     OW33533   5.864   0.164  12.815
10565SOL    HW133534   5.818   0.248  12.810
10565SOL    HW233535   5.852   0.136  12.906
10566SOL     OW33536   1.349   7.397   8.431
10566SOL    HW133537   1.328   7.342   8.356
10566SOL    HW233538   1.312   7.483   8.410
10567SOL     OW33539   2.264  10.399  14.674
10567SOL    HW133540   2.281  10.350  14.754
10567SOL    HW233541   2.318  10.477  14.681
10568SOL     OW33542   7.717   5.479   3.536
10568SOL    HW133543   7.642   5.520   3.494
10568SOL    HW233544   7.749   5.415   3.472
10569SOL     OW33545  10.712   1.448   3.802
10569SOL    HW133546  10.629   1.423   3.842
10569SOL    HW233547  10.735   1.531   3.845
10570SOL     OW33548  11.448   8.088  12.608
10570SOL    HW133549  11.504   8.031  12.661
10570SOL    HW233550  11.375   8.111  12.666
10571SOL     OW33551  12.019   2.864   2.191
10571SOL    HW133552  12.037   2.835   2.101
10571SOL    HW233553  12.105   2.871   2.232
10572SOL     OW33554   5.365  11.269   6.536
10572SOL    HW133555   5.315  11.199   6.579
10572SOL    HW233556   5.369  11.339   6.601
10573SOL     OW33557   4.234   9.055   6.826
10573SOL    HW133558   4.267   9.096   6.747
10573SOL    HW233559   4.140   9.073   6.825
10574SOL     OW33560   3.876   8.974   7.072
10574SOL    HW133561   3.809   8.918   7.034
10574SOL    HW233562   3.898   9.037   7.003
10575SOL     OW33563   7.272  12.460   5.400
10575SOL    HW133564   7.186  12.427   5.372
10575SOL    HW233565   7.256  12.495   5.488
10576SOL     OW33566   8.885   4.411   8.215
10576SOL    HW133567   8.865   4.379   8.127
10576SOL    HW233568   8.890   4.506   8.205
10577SOL     OW33569  12.629   3.030   1.612
10577SOL    HW133570  12.705   3.087   1.619
10577SOL    HW233571  12.575   3.070   1.544
10578SOL     OW33572  13.711  10.959  14.836
10578SOL    HW133573  13.680  10.958  14.746
10578SOL    HW233574  13.807  10.957  14.829
10579SOL     OW33575  13.802   8.816   8.476
10579SOL    HW133576  13.808   8.878   8.403
10579SOL    HW233577  13.812   8.869   8.555
10580SOL     OW33578   9.866  12.691   7.629
10580SOL    HW133579   9.807  12.690   7.705
10580SOL    HW233580   9.925  12.617   7.644
10581SOL     OW33581   5.058   4.878   1.153
10581SOL    HW133582   4.987   4.815   1.138
10581SOL    HW233583   5.041   4.948   1.090
10582SOL     OW33584   2.992   9.332  10.357
10582SOL    HW133585   2.936   9.359  10.429
10582SOL    HW233586   2.984   9.403  10.293
10583SOL     OW33587  12.329  13.641   4.996
10583SOL    HW133588  12.367  13.725   4.974
10583SOL    HW233589  12.250  13.662   5.046
10584SOL     OW33590  13.207   9.099   4.710
10584SOL    HW133591  13.242   9.188   4.720
10584SOL    HW233592  13.161   9.101   4.626
10585SOL     OW33593   1.278   7.496   2.408
10585SOL    HW133594   1.275   7.521   2.316
10585SOL    HW233595   1.235   7.410   2.412
10586SOL     OW33596   3.202   0.256   6.325
10586SOL    HW133597   3.157   0.263   6.409
10586SOL    HW233598   3.133   0.266   6.259
10587SOL     OW33599  12.971  14.306   7.981
10587SOL    HW133600  12.955  14.281   7.890
10587SOL    HW233601  12.995  14.224   8.024
10588SOL     OW33602   5.934   4.200   2.416
10588SOL    HW133603   5.855   4.167   2.459
10588SOL    HW233604   5.956   4.134   2.351
10589SOL     OW33605   2.880   9.645   7.424
10589SOL    HW133606   2.910   9.580   7.487
10589SOL    HW233607   2.882   9.728   7.473
10590SOL     OW33608   8.931  14.397  12.115
10590SOL    HW133609   9.020  14.368  12.135
10590SOL    HW233610   8.916  14.370  12.024
10591SOL     OW33611  11.532  11.552   2.788
10591SOL    HW133612  11.458  11.530   2.845
10591SOL    HW233613  11.565  11.467   2.759
10592SOL     OW33614   9.355  10.358  10.027
10592SOL    HW133615   9.318  10.446  10.035
10592SOL    HW233616   9.442  10.365  10.068
10593SOL     OW33617   3.830   2.114   3.586
10593SOL    HW133618   3.841   2.079   3.675
10593SOL    HW233619   3.770   2.054   3.543
10594SOL     OW33620  12.491   2.918   9.636
10594SOL    HW133621  12.449   2.924   9.722
10594SOL    HW233622  12.431   2.865   9.583
10595SOL     OW33623   4.885   1.412  10.113
10595SOL    HW133624   4.919   1.420  10.024
10595SOL    HW233625   4.801   1.457  10.112
10596SOL     OW33626   6.882  11.933   5.703
10596SOL    HW133627   6.947  11.968   5.644
10596SOL    HW233628   6.928  11.866   5.754
10597SOL     OW33629   1.890   6.985  10.666
10597SOL    HW133630   1.856   6.900  10.694
10597SOL    HW233631   1.883   6.983  10.570
10598SOL     OW33632  13.125   0.914   1.877
10598SOL    HW133633  13.170   0.912   1.962
10598SOL    HW233634  13.045   0.963   1.893
10599SOL     OW33635  11.344  13.747   5.383
10599SOL    HW133636  11.304  13.745   5.296
10599SOL    HW233637  11.344  13.656   5.411
10600SOL     OW33638   2.535   2.398   0.457
10600SOL    HW133639   2.543   2.493   0.468
10600SOL    HW233640   2.586   2.380   0.378
10601SOL     OW33641   0.890   5.878   5.067
10601SOL    HW133642   0.810   5.872   5.118
10601SOL    HW233643   0.957   5.906   5.130
10602SOL     OW33644  12.756  12.937   8.792
10602SOL    HW133645  12.808  12.932   8.711
10602SOL    HW233646  12.666  12.926   8.762
10603SOL     OW33647   0.469  12.524  10.625
10603SOL    HW133648   0.403  12.497  10.688
10603SOL    HW233649   0.451  12.471  10.547
10604SOL     OW33650  12.655   5.550   5.112
10604SOL    HW133651  12.676   5.495   5.187
10604SOL    HW233652  12.739   5.573   5.074
10605SOL     OW33653   0.580  10.995   9.828
10605SOL    HW133654   0.654  10.953   9.785
10605SOL    HW233655   0.515  10.926   9.839
10606SOL     OW33656   9.861  13.013   7.141
10606SOL    HW133657   9.910  13.078   7.193
10606SOL    HW233658   9.774  13.051   7.131
10607SOL     OW33659  13.105  10.053   8.810
10607SOL    HW133660  13.181  10.104   8.783
10607SOL    HW233661  13.033  10.116   8.813
10608SOL     OW33662   0.258   1.673   5.089
10608SOL    HW133663   0.303   1.622   5.156
10608SOL    HW233664   0.249   1.760   5.127
10609SOL     OW33665   5.914  11.269  13.701
10609SOL    HW133666   5.861  11.207  13.651
10609SOL    HW233667   5.966  11.316  13.636
10610SOL     OW33668   5.207   7.226  13.777
10610SOL    HW133669   5.181   7.271  13.857
10610SOL    HW233670   5.207   7.133  13.800
10611SOL     OW33671  14.121   3.052   9.509
10611SOL    HW133672  14.140   2.961   9.534
10611SOL    HW233673  14.046   3.045   9.450
10612SOL     OW33674   6.224   2.117   5.483
10612SOL    HW133675   6.213   2.085   5.394
10612SOL    HW233676   6.288   2.189   5.476
10613SOL     OW33677  10.598  11.175  13.065
10613SOL    HW133678  10.631  11.255  13.106
10613SOL    HW233679  10.646  11.105  13.108
10614SOL     OW33680   1.086   0.173  13.016
10614SOL    HW133681   1.148   0.169  13.089
10614SOL    HW233682   1.008   0.215  13.053
10615SOL     OW33683  11.667   2.064   7.029
10615SOL    HW133684  11.722   2.142   7.017
10615SOL    HW233685  11.630   2.074   7.117
10616SOL     OW33686  13.338   6.880  14.326
10616SOL    HW133687  13.273   6.947  14.347
10616SOL    HW233688  13.362   6.897  14.235
10617SOL     OW33689   4.872   6.480   2.576
10617SOL    HW133690   4.896   6.472   2.668
10617SOL    HW233691   4.803   6.414   2.563
10618SOL     OW33692   0.255   1.673  12.014
10618SOL    HW133693   0.292   1.745  12.065
10618SOL    HW233694   0.330   1.638  11.966
10619SOL     OW33695   6.910   5.058  10.200
10619SOL    HW133696   6.815   5.064  10.199
10619SOL    HW233697   6.934   5.030  10.112
10620SOL     OW33698   1.754  10.389   7.710
10620SOL    HW133699   1.839  10.408   7.670
10620SOL    HW233700   1.695  10.376   7.637
10621SOL     OW33701   3.887   2.840   0.799
10621SOL    HW133702   3.824   2.891   0.748
10621SOL    HW233703   3.962   2.898   0.809
10622SOL     OW33704  14.627   6.644   0.282
10622SOL    HW133705  14.708   6.649   0.333
10622SOL    HW233706  14.646   6.581   0.212
10623SOL     OW33707   3.001   5.813   9.106
10623SOL    HW133708   2.909   5.839   9.110
10623SOL    HW233709   3.038   5.868   9.037
10624SOL     OW33710  12.607  13.977   6.927
10624SOL    HW133711  12.663  13.910   6.968
10624SOL    HW233712  12.522  13.934   6.919
10625SOL     OW33713   6.909   3.829  14.333
10625SOL    HW133714   6.838   3.769  14.313
10625SOL    HW233715   6.921   3.823  14.428
10626SOL     OW33716   6.185  12.187  12.368
10626SOL    HW133717   6.202  12.132  12.444
10626SOL    HW233718   6.244  12.262  12.379
10627SOL     OW33719   1.489  14.504  11.317
10627SOL    HW133720   1.495  14.409  11.325
10627SOL    HW233721   1.526  14.538  11.399
10628SOL     OW33722   7.995   8.648  14.178
10628SOL    HW133723   8.043   8.638  14.096
10628SOL    HW233724   8.031   8.581  14.235
10629SOL     OW33725   8.078   0.325  12.313
10629SOL    HW133726   8.048   0.348  12.224
10629SOL    HW233727   7.997   0.303  12.359
10630SOL     OW33728   3.447   2.171   2.994
10630SOL    HW133729   3.439   2.203   3.084
10630SOL    HW233730   3.367   2.121   2.979
10631SOL     OW33731   9.786  12.692   3.782
10631SOL    HW133732   9.846  12.709   3.854
10631SOL    HW233733   9.794  12.598   3.764
10632SOL     OW33734  12.060  12.737   6.414
10632SOL    HW133735  12.025  12.773   6.332
10632SOL    HW233736  12.145  12.779   6.424
10633SOL     OW33737   6.911   5.242  13.260
10633SOL    HW133738   6.993   5.219  13.216
10633SOL    HW233739   6.935   5.248  13.353
10634SOL     OW33740   7.287  12.448   4.308
10634SOL    HW133741   7.292  12.537   4.274
10634SOL    HW233742   7.202  12.443   4.350
10635SOL     OW33743   9.217   5.623  12.126
10635SOL    HW133744   9.288   5.565  12.101
10635SOL    HW233745   9.137   5.571  12.113
10636SOL     OW33746   0.226   3.397  11.960
10636SOL    HW133747   0.261   3.486  11.962
10636SOL    HW233748   0.281   3.351  11.896
10637SOL     OW33749  11.061   1.178  14.175
10637SOL    HW133750  11.072   1.099  14.228
10637SOL    HW233751  11.100   1.248  14.227
10638SOL     OW33752   7.276  11.792  13.054
10638SOL    HW133753   7.303  11.862  12.994
10638SOL    HW233754   7.292  11.827  13.141
10639SOL     OW33755  14.689   1.408   6.757
10639SOL    HW133756  14.608   1.397   6.806
10639SOL    HW233757  14.733   1.481   6.799
10640SOL     OW33758  10.170   3.255   1.330
10640SOL    HW133759  10.263   3.252   1.309
10640SOL    HW233760  10.143   3.345   1.313
10641SOL     OW33761  12.676   1.091   6.228
10641SOL    HW133762  12.738   1.163   6.239
10641SOL    HW233763  12.602   1.115   6.284
10642SOL     OW33764  10.810   5.080   7.313
10642SOL    HW133765  10.719   5.107   7.301
10642SOL    HW233766  10.805   4.988   7.338
10643SOL     OW33767   8.034  12.490  14.696
10643SOL    HW133768   7.991  12.474  14.780
10643SOL    HW233769   8.034  12.405  14.652
10644SOL     OW33770   7.529   3.325  13.592
10644SOL    HW133771   7.580   3.392  13.547
10644SOL    HW233772   7.476   3.374  13.655
10645SOL     OW33773   7.519  14.259   0.896
10645SOL    HW133774   7.514  14.315   0.819
10645SOL    HW233775   7.613  14.245   0.909
10646SOL     OW33776  12.516  11.155   3.608
10646SOL    HW133777  12.443  11.094   3.615
10646SOL    HW233778  12.476  11.242   3.617
10647SOL     OW33779  13.295   4.070  13.761
10647SOL    HW133780  13.247   4.043  13.839
10647SOL    HW233781  13.379   4.101  13.793
10648SOL     OW33782  14.019   0.944  12.659
10648SOL    HW133783  14.003   0.940  12.565
10648SOL    HW233784  13.958   1.010  12.692
10649SOL     OW33785  12.070   0.248   6.274
10649SOL    HW133786  12.080   0.324   6.331
10649SOL    HW233787  12.043   0.284   6.190
10650SOL     OW33788   7.261  10.866  14.499
10650SOL    HW133789   7.175  10.842  14.462
10650SOL    HW233790   7.324  10.837  14.433
10651SOL     OW33791  10.234  10.004   5.036
10651SOL    HW133792  10.150  10.009   4.991
10651SOL    HW233793  10.299   9.995   4.966
10652SOL     OW33794   8.099   1.240   9.802
10652SOL    HW133795   8.028   1.286   9.847
10652SOL    HW233796   8.074   1.242   9.710
10653SOL     OW33797   8.339   1.064   4.021
10653SOL    HW133798   8.418   1.025   4.057
10653SOL    HW233799   8.351   1.158   4.034
10654SOL     OW33800   6.814   2.804  10.103
10654SOL    HW133801   6.886   2.741  10.101
10654SOL    HW233802   6.738   2.754  10.131
10655SOL     OW33803   1.663   4.239   2.691
10655SOL    HW133804   1.628   4.215   2.605
10655SOL    HW233805   1.614   4.185   2.753
10656SOL     OW33806   7.669   2.000   9.904
10656SOL    HW133807   7.754   1.986   9.946
10656SOL    HW233808   7.677   2.084   9.860
10657SOL     OW33809   7.482  14.398   5.672
10657SOL    HW133810   7.484  14.302   5.662
10657SOL    HW233811   7.564  14.419   5.716
10658SOL     OW33812   7.533  13.643  12.254
10658SOL    HW133813   7.556  13.662  12.344
10658SOL    HW233814   7.616  13.621  12.212
10659SOL     OW33815   0.533  13.790   3.042
10659SOL    HW133816   0.523  13.849   2.967
10659SOL    HW233817   0.626  13.766   3.041
10660SOL     OW33818   1.338   2.164   4.592
10660SOL    HW133819   1.259   2.135   4.638
10660SOL    HW233820   1.383   2.082   4.569
10661SOL     OW33821  12.955   9.818   3.470
10661SOL    HW133822  12.906   9.895   3.499
10661SOL    HW233823  13.044   9.833   3.503
10662SOL     OW33824  13.770  11.036   5.665
10662SOL    HW133825  13.725  11.076   5.591
10662SOL    HW233826  13.861  11.026   5.635
10663SOL     OW33827   1.436   4.371   5.110
10663SOL    HW133828   1.499   4.333   5.171
10663SOL    HW233829   1.402   4.448   5.156
10664SOL     OW33830   1.828  10.497  14.218
10664SOL    HW133831   1.764  10.442  14.262
10664SOL    HW233832   1.775  10.564  14.173
10665SOL     OW33833   0.533  10.859   7.269
10665SOL    HW133834   0.493  10.776   7.245
10665SOL    HW233835   0.600  10.835   7.334
10666SOL     OW33836   9.312   2.845   8.445
10666SOL    HW133837   9.244   2.782   8.469
10666SOL    HW233838   9.393   2.796   8.451
10667SOL     OW33839  12.724  11.242   2.091
10667SOL    HW133840  12.763  11.265   2.175
10667SOL    HW233841  12.630  11.243   2.108
10668SOL     OW33842  11.959  12.443   6.190
10668SOL    HW133843  11.936  12.498   6.265
10668SOL    HW233844  11.959  12.354   6.225
10669SOL     OW33845   4.097   7.301   5.557
10669SOL    HW133846   4.171   7.242   5.545
10669SOL    HW233847   4.114   7.373   5.496
10670SOL     OW33848   4.394   5.786  11.338
10670SOL    HW133849   4.433   5.744  11.262
10670SOL    HW233850   4.449   5.760  11.412
10671SOL     OW33851   0.687   6.328   2.245
10671SOL    HW133852   0.697   6.405   2.302
10671SOL    HW233853   0.719   6.357   2.160
10672SOL     OW33854  10.706  14.107   4.443
10672SOL    HW133855  10.716  14.023   4.488
10672SOL    HW233856  10.794  14.130   4.415
10673SOL     OW33857   2.682   1.023  11.241
10673SOL    HW133858   2.711   1.068  11.321
10673SOL    HW233859   2.668   0.933  11.269
10674SOL     OW33860   3.963   0.956   6.279
10674SOL    HW133861   3.884   0.960   6.225
10674SOL    HW233862   4.012   0.881   6.245
10675SOL     OW33863   5.300  12.965   2.048
10675SOL    HW133864   5.209  12.970   2.017
10675SOL    HW233865   5.351  12.948   1.969
10676SOL     OW33866  13.821   8.685   2.647
10676SOL    HW133867  13.848   8.599   2.617
10676SOL    HW233868  13.730   8.693   2.619
10677SOL     OW33869   5.496   4.579   2.957
10677SOL    HW133870   5.453   4.557   3.039
10677SOL    HW233871   5.581   4.535   2.962
10678SOL     OW33872  10.513   2.290   0.066
10678SOL    HW133873  10.604   2.312   0.049
10678SOL    HW233874  10.493   2.331   0.150
10679SOL     OW33875  12.446   8.838   4.315
10679SOL    HW133876  12.466   8.746   4.333
10679SOL    HW233877  12.503   8.886   4.375
10680SOL     OW33878  14.158  11.375   3.135
10680SOL    HW133879  14.185  11.325   3.058
10680SOL    HW233880  14.099  11.317   3.183
10681SOL     OW33881  13.075  12.152   6.520
10681SOL    HW133882  13.162  12.190   6.513
10681SOL    HW233883  13.037  12.160   6.433
10682SOL     OW33884  11.848  13.546   0.895
10682SOL    HW133885  11.790  13.500   0.836
10682SOL    HW233886  11.936  13.531   0.861
10683SOL     OW33887   8.609  14.164   8.386
10683SOL    HW133888   8.700  14.178   8.414
10683SOL    HW233889   8.565  14.128   8.463
10684SOL     OW33890   0.826   2.648  10.959
10684SOL    HW133891   0.819   2.621  10.867
10684SOL    HW233892   0.920   2.665  10.971
10685SOL     OW33893  12.602  10.459  11.418
10685SOL    HW133894  12.639  10.476  11.505
10685SOL    HW233895  12.677  10.432  11.365
10686SOL     OW33896  12.894  12.660  12.079
10686SOL    HW133897  12.922  12.616  11.999
10686SOL    HW233898  12.910  12.596  12.149
10687SOL     OW33899  11.936   1.664  13.697
10687SOL    HW133900  11.893   1.588  13.658
10687SOL    HW233901  11.907   1.664  13.788
10688SOL     OW33902  10.881   8.462   7.029
10688SOL    HW133903  10.892   8.383   7.081
10688SOL    HW233904  10.795   8.451   6.988
10689SOL     OW33905  10.494  14.237   9.961
10689SOL    HW133906  10.535  14.211   9.878
10689SOL    HW233907  10.503  14.160  10.017
10690SOL     OW33908   9.495   5.238   8.774
10690SOL    HW133909   9.492   5.191   8.857
10690SOL    HW233910   9.411   5.283   8.768
10691SOL     OW33911  13.368   0.634   4.555
10691SOL    HW133912  13.388   0.720   4.592
10691SOL    HW233913  13.442   0.579   4.578
10692SOL     OW33914   6.078   7.948  10.565
10692SOL    HW133915   5.996   7.987  10.534
10692SOL    HW233916   6.144   8.014  10.548
10693SOL     OW33917   8.966  12.432   0.488
10693SOL    HW133918   9.055  12.458   0.509
10693SOL    HW233919   8.929  12.507   0.441
10694SOL     OW33920   9.368   7.379  10.122
10694SOL    HW133921   9.461   7.397  10.110
10694SOL    HW233922   9.352   7.396  10.215
10695SOL     OW33923   2.140   1.199  12.644
10695SOL    HW133924   2.156   1.265  12.576
10695SOL    HW233925   2.214   1.208  12.704
10696SOL     OW33926  10.348   5.042   0.648
10696SOL    HW133927  10.392   5.094   0.581
10696SOL    HW233928  10.335   4.957   0.608
10697SOL     OW33929   4.035   7.040  14.505
10697SOL    HW133930   4.108   6.992  14.544
10697SOL    HW233931   3.969   7.045  14.575
10698SOL     OW33932   5.257   6.885  14.779
10698SOL    HW133933   5.348   6.858  14.789
10698SOL    HW233934   5.209   6.834  14.844
10699SOL     OW33935   5.942  13.876   2.068
10699SOL    HW133936   5.909  13.787   2.056
10699SOL    HW233937   5.886  13.930   2.013
10700SOL     OW33938   3.247  11.380   4.886
10700SOL    HW133939   3.242  11.397   4.792
10700SOL    HW233940   3.188  11.307   4.900
10701SOL     OW33941   4.242   8.374   8.657
10701SOL    HW133942   4.257   8.465   8.681
10701SOL    HW233943   4.182   8.379   8.583
10702SOL     OW33944   7.562   8.556   9.547
10702SOL    HW133945   7.595   8.549   9.458
10702SOL    HW233946   7.602   8.482   9.594
10703SOL     OW33947   9.721  12.710  11.737
10703SOL    HW133948   9.670  12.746  11.809
10703SOL    HW233949   9.785  12.652  11.780
10704SOL     OW33950   1.230   8.454   6.650
10704SOL    HW133951   1.268   8.437   6.736
10704SOL    HW233952   1.305   8.464   6.591
10705SOL     OW33953   3.063   7.026  10.574
10705SOL    HW133954   3.045   6.999  10.664
10705SOL    HW233955   3.148   6.987  10.554
10706SOL     OW33956  11.515   8.210   4.391
10706SOL    HW133957  11.445   8.169   4.339
10706SOL    HW233958  11.592   8.157   4.373
10707SOL     OW33959   0.391   3.199  13.013
10707SOL    HW133960   0.394   3.142  13.090
10707SOL    HW233961   0.475   3.245  13.014
10708SOL     OW33962   4.001  13.014  12.125
10708SOL    HW133963   4.015  13.094  12.075
10708SOL    HW233964   3.907  13.012  12.142
10709SOL     OW33965  14.478   1.141   4.240
10709SOL    HW133966  14.402   1.086   4.263
10709SOL    HW233967  14.520   1.160   4.324
10710SOL     OW33968  14.453  13.994   9.423
10710SOL    HW133969  14.370  14.035   9.397
10710SOL    HW233970  14.518  14.064   9.410
10711SOL     OW33971  13.465   2.943  11.767
10711SOL    HW133972  13.398   3.008  11.742
10711SOL    HW233973  13.548   2.988  11.750
10712SOL     OW33974   6.479  12.495   5.963
10712SOL    HW133975   6.417  12.461   6.027
10712SOL    HW233976   6.525  12.565   6.009
10713SOL     OW33977   0.517  10.998  13.157
10713SOL    HW133978   0.464  11.071  13.125
10713SOL    HW233979   0.554  11.031  13.240
10714SOL     OW33980   9.219   9.497   4.518
10714SOL    HW133981   9.291   9.471   4.576
10714SOL    HW233982   9.223   9.434   4.446
10715SOL     OW33983   3.341   9.429   9.279
10715SOL    HW133984   3.381   9.405   9.196
10715SOL    HW233985   3.406   9.485   9.321
10716SOL     OW33986   4.298   3.554   2.413
10716SOL    HW133987   4.282   3.645   2.386
10716SOL    HW233988   4.293   3.556   2.509
10717SOL     OW33989  14.196  13.808  13.504
10717SOL    HW133990  14.201  13.896  13.465
10717SOL    HW233991  14.276  13.764  13.475
10718SOL     OW33992   6.965   3.417  10.274
10718SOL    HW133993   6.908   3.453  10.206
10718SOL    HW233994   6.968   3.323  10.256
10719SOL     OW33995   9.564  10.019   6.294
10719SOL    HW133996   9.496  10.079   6.326
10719SOL    HW233997   9.646  10.060   6.321
10720SOL     OW33998  12.466   7.225   5.071
10720SOL    HW133999  12.467   7.321   5.062
10720SOL    HW234000  12.493   7.209   5.161
10721SOL     OW34001   9.253  11.858  12.739
10721SOL    HW134002   9.314  11.880  12.669
10721SOL    HW234003   9.190  11.798  12.698
10722SOL     OW34004   6.483   2.426  10.325
10722SOL    HW134005   6.431   2.351  10.295
10722SOL    HW234006   6.428   2.470  10.389
10723SOL     OW34007   6.357   5.944  13.554
10723SOL    HW134008   6.324   5.990  13.477
10723SOL    HW234009   6.400   6.012  13.606
10724SOL     OW34010   8.650   3.944  10.684
10724SOL    HW134011   8.675   3.951  10.776
10724SOL    HW234012   8.732   3.957  10.636
10725SOL     OW34013   8.915   5.791   2.508
10725SOL    HW134014   8.962   5.713   2.478
10725SOL    HW234015   8.831   5.786   2.463
10726SOL     OW34016   4.803  10.815   4.995
10726SOL    HW134017   4.745  10.799   5.070
10726SOL    HW234018   4.770  10.758   4.926
10727SOL     OW34019  11.146   3.784  10.941
10727SOL    HW134020  11.110   3.696  10.938
10727SOL    HW234021  11.208   3.782  11.015
10728SOL     OW34022   5.139   7.971  14.813
10728SOL    HW134023   5.202   8.040  14.836
10728SOL    HW234024   5.178   7.891  14.848
10729SOL     OW34025   1.964   5.217   6.223
10729SOL    HW134026   1.913   5.288   6.184
10729SOL    HW234027   1.966   5.238   6.316
10730SOL     OW34028   6.523   3.979   2.488
10730SOL    HW134029   6.492   4.063   2.456
10730SOL    HW234030   6.618   3.987   2.489
10731SOL     OW34031   2.695   0.677   4.669
10731SOL    HW134032   2.668   0.600   4.619
10731SOL    HW234033   2.770   0.712   4.620
10732SOL     OW34034   0.678   3.637   0.498
10732SOL    HW134035   0.680   3.582   0.419
10732SOL    HW234036   0.586   3.638   0.524
10733SOL     OW34037   5.537   7.436  14.562
10733SOL    HW134038   5.446   7.463  14.574
10733SOL    HW234039   5.579   7.511  14.521
10734SOL     OW34040   9.549  14.737  12.873
10734SOL    HW134041   9.639  14.769  12.880
10734SOL    HW234042   9.528  14.707  12.962
10735SOL     OW34043   4.657   0.004   4.405
10735SOL    HW134044   4.740   0.041   4.374
10735SOL    HW234045   4.606   0.081   4.433
10736SOL     OW34046   4.256  10.644   4.554
10736SOL    HW134047   4.318  10.573   4.570
10736SOL    HW234048   4.241  10.683   4.640
10737SOL     OW34049   2.850  12.294  12.109
10737SOL    HW134050   2.901  12.241  12.171
10737SOL    HW234051   2.781  12.235  12.078
10738SOL     OW34052   4.218   2.010   1.908
10738SOL    HW134053   4.223   1.965   1.824
10738SOL    HW234054   4.147   1.965   1.955
10739SOL     OW34055  12.444  13.193   2.625
10739SOL    HW134056  12.469  13.174   2.535
10739SOL    HW234057  12.511  13.150   2.678
10740SOL     OW34058   2.997   2.565  13.442
10740SOL    HW134059   3.039   2.559  13.528
10740SOL    HW234060   2.982   2.473  13.417
10741SOL     OW34061  13.127   9.977  12.973
10741SOL    HW134062  13.176  10.037  12.916
10741SOL    HW234063  13.179   9.896  12.972
10742SOL     OW34064   9.370   2.765   0.476
10742SOL    HW134065   9.438   2.730   0.418
10742SOL    HW234066   9.292   2.713   0.457
10743SOL     OW34067   7.261   5.805   5.850
10743SOL    HW134068   7.279   5.899   5.846
10743SOL    HW234069   7.346   5.765   5.870
10744SOL     OW34070   7.878  13.105   5.055
10744SOL    HW134071   7.868  13.012   5.037
10744SOL    HW234072   7.845  13.149   4.977
10745SOL     OW34073   4.337   5.754   0.991
10745SOL    HW134074   4.254   5.800   0.975
10745SOL    HW234075   4.400   5.800   0.936
10746SOL     OW34076   7.684  12.645  12.838
10746SOL    HW134077   7.632  12.622  12.915
10746SOL    HW234078   7.729  12.726  12.863
10747SOL     OW34079   9.101   4.854   5.438
10747SOL    HW134080   9.116   4.948   5.426
10747SOL    HW234081   9.189   4.817   5.438
10748SOL     OW34082   5.847   0.686  11.761
10748SOL    HW134083   5.765   0.651  11.797
10748SOL    HW234084   5.861   0.768  11.807
10749SOL     OW34085  14.521   4.874   2.343
10749SOL    HW134086  14.437   4.867   2.389
10749SOL    HW234087  14.534   4.968   2.330
10750SOL     OW34088  12.897   6.826   8.506
10750SOL    HW134089  12.847   6.766   8.451
10750SOL    HW234090  12.984   6.787   8.511
10751SOL     OW34091   4.622  11.002   7.405
10751SOL    HW134092   4.576  11.069   7.355
10751SOL    HW234093   4.672  10.953   7.341
10752SOL     OW34094  14.123  11.689  11.460
10752SOL    HW134095  14.216  11.683  11.482
10752SOL    HW234096  14.080  11.634  11.526
10753SOL     OW34097  10.786  11.384  12.554
10753SOL    HW134098  10.823  11.328  12.621
10753SOL    HW234099  10.800  11.337  12.472
10754SOL     OW34100  10.092  11.187   7.831
10754SOL    HW134101  10.090  11.224   7.743
10754SOL    HW234102  10.030  11.114   7.828
10755SOL     OW34103  10.083  11.772   2.066
10755SOL    HW134104  10.042  11.858   2.076
10755SOL    HW234105  10.034  11.715   2.124
10756SOL     OW34106  12.875   3.646   3.423
10756SOL    HW134107  12.916   3.562   3.402
10756SOL    HW234108  12.845   3.637   3.514
10757SOL     OW34109  10.361   0.685  12.812
10757SOL    HW134110  10.390   0.739  12.885
10757SOL    HW234111  10.439   0.673  12.758
10758SOL     OW34112   1.598   5.316   3.450
10758SOL    HW134113   1.507   5.331   3.424
10758SOL    HW234114   1.643   5.398   3.432
10759SOL     OW34115   1.571  13.287  12.759
10759SOL    HW134116   1.540  13.353  12.697
10759SOL    HW234117   1.667  13.292  12.752
10760SOL     OW34118   1.105   2.495  12.606
10760SOL    HW134119   1.094   2.462  12.695
10760SOL    HW234120   1.033   2.558  12.595
10761SOL     OW34121   9.214   4.946   8.494
10761SOL    HW134122   9.277   4.993   8.439
10761SOL    HW234123   9.266   4.916   8.569
10762SOL     OW34124  10.995  13.496   0.949
10762SOL    HW134125  10.982  13.404   0.973
10762SOL    HW234126  11.034  13.492   0.861
10763SOL     OW34127   1.498   7.672  14.825
10763SOL    HW134128   1.576   7.668  14.771
10763SOL    HW234129   1.503   7.594   0.001
10764SOL     OW34130   4.646   4.767   5.877
10764SOL    HW134131   4.632   4.731   5.789
10764SOL    HW234132   4.566   4.746   5.924
10765SOL     OW34133   9.375  12.597   2.770
10765SOL    HW134134   9.317  12.569   2.699
10765SOL    HW234135   9.336  12.559   2.849
10766SOL     OW34136  10.281  14.665   7.824
10766SOL    HW134137  10.351  14.616   7.867
10766SOL    HW234138  10.326  14.734   7.775
10767SOL     OW34139  12.971   0.607   0.692
10767SOL    HW134140  13.023   0.586   0.770
10767SOL    HW234141  12.891   0.647   0.727
10768SOL     OW34142  11.270  10.390   6.437
10768SOL    HW134143  11.192  10.428   6.396
10768SOL    HW234144  11.342  10.418   6.381
10769SOL     OW34145   5.254   4.759   6.268
10769SOL    HW134146   5.305   4.823   6.317
10769SOL    HW234147   5.248   4.796   6.180
10770SOL     OW34148   5.732  11.267   7.179
10770SOL    HW134149   5.796  11.249   7.248
10770SOL    HW234150   5.691  11.349   7.205
10771SOL     OW34151   1.059   3.331   2.557
10771SOL    HW134152   1.077   3.239   2.541
10771SOL    HW234153   1.072   3.343   2.651
10772SOL     OW34154   2.375   2.849   0.448
10772SOL    HW134155   2.428   2.912   0.400
10772SOL    HW234156   2.288   2.856   0.408
10773SOL     OW34157  12.930   7.481   7.561
10773SOL    HW134158  12.962   7.537   7.490
10773SOL    HW234159  12.850   7.524   7.591
10774SOL     OW34160  13.571  14.269   0.021
10774SOL    HW134161  13.657  14.282  14.862
10774SOL    HW234162  13.510  14.288  14.830
10775SOL     OW34163  11.584  13.441   2.785
10775SOL    HW134164  11.491  13.431   2.767
10775SOL    HW234165  11.617  13.497   2.715
10776SOL     OW34166   8.736  14.048   0.307
10776SOL    HW134167   8.745  14.111   0.379
10776SOL    HW234168   8.819  14.001   0.306
10777SOL     OW34169  13.545  12.436   9.716
10777SOL    HW134170  13.577  12.510   9.664
10777SOL    HW234171  13.623  12.399   9.757
10778SOL     OW34172  10.651  13.231   1.606
10778SOL    HW134173  10.557  13.235   1.625
10778SOL    HW234174  10.671  13.316   1.568
10779SOL     OW34175   2.429  10.187   7.908
10779SOL    HW134176   2.525  10.189   7.902
10779SOL    HW234177   2.403  10.111   7.857
10780SOL     OW34178  11.858   6.281   6.974
10780SOL    HW134179  11.847   6.331   7.055
10780SOL    HW234180  11.795   6.321   6.914
10781SOL     OW34181   2.164  13.648  12.176
10781SOL    HW134182   2.111  13.586  12.127
10781SOL    HW234183   2.135  13.734  12.145
10782SOL     OW34184  13.923   8.395   0.250
10782SOL    HW134185  13.899   8.485   0.228
10782SOL    HW234186  13.903   8.387   0.343
10783SOL     OW34187   5.174   3.086  13.457
10783SOL    HW134188   5.216   3.008  13.422
10783SOL    HW234189   5.243   3.129  13.508
10784SOL     OW34190   4.642  11.134   2.084
10784SOL    HW134191   4.622  11.042   2.072
10784SOL    HW234192   4.683  11.161   2.002
10785SOL     OW34193   4.385   6.578   2.461
10785SOL    HW134194   4.450   6.583   2.391
10785SOL    HW234195   4.366   6.485   2.470
10786SOL     OW34196   3.530  14.358   5.441
10786SOL    HW134197   3.462  14.348   5.374
10786SOL    HW234198   3.491  14.416   5.507
10787SOL     OW34199  13.659  11.537   0.743
10787SOL    HW134200  13.640  11.558   0.651
10787SOL    HW234201  13.578  11.498   0.776
10788SOL     OW34202   7.734  10.396  13.251
10788SOL    HW134203   7.656  10.448  13.272
10788SOL    HW234204   7.728  10.381  13.157
10789SOL     OW34205  11.258   2.077   7.142
10789SOL    HW134206  11.244   2.022   7.219
10789SOL    HW234207  11.230   2.164   7.170
10790SOL     OW34208   9.623   8.804   4.860
10790SOL    HW134209   9.706   8.848   4.876
10790SOL    HW234210   9.647   8.714   4.840
10791SOL     OW34211   5.088   3.792   4.310
10791SOL    HW134212   5.079   3.801   4.215
10791SOL    HW234213   5.085   3.882   4.342
10792SOL     OW34214   6.635  13.886   2.996
10792SOL    HW134215   6.570  13.867   2.928
10792SOL    HW234216   6.707  13.928   2.950
10793SOL     OW34217   6.338   6.792   3.379
10793SOL    HW134218   6.265   6.853   3.385
10793SOL    HW234219   6.362   6.774   3.470
10794SOL     OW34220   2.180   2.287   4.313
10794SOL    HW134221   2.244   2.287   4.385
10794SOL    HW234222   2.126   2.209   4.329
10795SOL     OW34223   5.566  12.180  12.421
10795SOL    HW134224   5.529  12.192  12.333
10795SOL    HW234225   5.527  12.098  12.452
10796SOL     OW34226   5.362  10.736   2.860
10796SOL    HW134227   5.340  10.783   2.780
10796SOL    HW234228   5.451  10.765   2.882
10797SOL     OW34229   1.332   7.688   7.916
10797SOL    HW134230   1.372   7.772   7.937
10797SOL    HW234231   1.404   7.634   7.882
10798SOL     OW34232   8.047   8.726   0.241
10798SOL    HW134233   7.994   8.791   0.194
10798SOL    HW234234   8.128   8.719   0.190
10799SOL     OW34235   3.172   3.361   6.663
10799SOL    HW134236   3.220   3.286   6.628
10799SOL    HW234237   3.103   3.322   6.717
10800SOL     OW34238  14.064   5.732   9.620
10800SOL    HW134239  13.988   5.681   9.649
10800SOL    HW234240  14.027   5.815   9.590
10801SOL     OW34241   3.614  10.914  12.751
10801SOL    HW134242   3.628  10.986  12.689
10801SOL    HW234243   3.520  10.894  12.743
10802SOL     OW34244   2.380   8.255   2.439
10802SOL    HW134245   2.324   8.332   2.432
10802SOL    HW234246   2.338   8.202   2.508
10803SOL     OW34247  11.065   1.473   1.220
10803SOL    HW134248  11.107   1.517   1.145
10803SOL    HW234249  11.097   1.382   1.215
10804SOL     OW34250  12.966   8.107   7.719
10804SOL    HW134251  12.917   8.094   7.800
10804SOL    HW234252  12.901   8.098   7.649
10805SOL     OW34253   0.764  12.944   7.772
10805SOL    HW134254   0.784  13.027   7.813
10805SOL    HW234255   0.838  12.926   7.714
10806SOL     OW34256  12.091  13.756   9.810
10806SOL    HW134257  12.052  13.774   9.896
10806SOL    HW234258  12.171  13.708   9.831
10807SOL     OW34259   7.885  12.456   0.397
10807SOL    HW134260   7.790  12.445   0.394
10807SOL    HW234261   7.903  12.484   0.487
10808SOL     OW34262   0.899  14.610   2.524
10808SOL    HW134263   0.994  14.600   2.513
10808SOL    HW234264   0.890  14.684   2.583
10809SOL     OW34265   2.953  12.758   1.071
10809SOL    HW134266   3.014  12.704   1.122
10809SOL    HW234267   2.985  12.848   1.084
10810SOL     OW34268   0.046   7.498  13.146
10810SOL    HW134269   0.117   7.437  13.126
10810SOL    HW234270   0.068   7.532  13.233
10811SOL     OW34271   2.009  12.212   4.778
10811SOL    HW134272   2.032  12.120   4.781
10811SOL    HW234273   1.981  12.234   4.867
10812SOL     OW34274  10.232  12.175   6.512
10812SOL    HW134275  10.323  12.184   6.543
10812SOL    HW234276  10.241  12.157   6.419
10813SOL     OW34277   9.932   7.315   3.104
10813SOL    HW134278   9.869   7.387   3.101
10813SOL    HW234279   9.903   7.255   3.035
10814SOL     OW34280   2.733  10.303   9.207
10814SOL    HW134281   2.817  10.259   9.191
10814SOL    HW234282   2.699  10.320   9.119
10815SOL     OW34283   3.408   3.719   9.425
10815SOL    HW134284   3.363   3.764   9.497
10815SOL    HW234285   3.352   3.735   9.349
10816SOL     OW34286   6.980   6.380  14.607
10816SOL    HW134287   7.071   6.373  14.636
10816SOL    HW234288   6.943   6.294  14.624
10817SOL     OW34289   1.773  14.820   1.958
10817SOL    HW134290   1.790  14.805   1.865
10817SOL    HW234291   1.806   0.029   1.973
10818SOL     OW34292   3.138  13.705  14.032
10818SOL    HW134293   3.129  13.641  14.102
10818SOL    HW234294   3.232  13.715  14.020
10819SOL     OW34295   7.360   9.469   7.385
10819SOL    HW134296   7.380   9.377   7.399
10819SOL    HW234297   7.339   9.503   7.473
10820SOL     OW34298  11.899  12.640  11.527
10820SOL    HW134299  11.947  12.558  11.538
10820SOL    HW234300  11.957  12.695  11.474
10821SOL     OW34301   8.935  11.074   7.433
10821SOL    HW134302   9.030  11.077   7.443
10821SOL    HW234303   8.904  11.023   7.508
10822SOL     OW34304   7.463   9.157   6.705
10822SOL    HW134305   7.540   9.187   6.754
10822SOL    HW234306   7.490   9.074   6.667
10823SOL     OW34307  10.248  10.637  12.241
10823SOL    HW134308  10.254  10.726  12.276
10823SOL    HW234309  10.191  10.590  12.302
10824SOL     OW34310   9.271   0.750   2.771
10824SOL    HW134311   9.298   0.762   2.680
10824SOL    HW234312   9.272   0.655   2.784
10825SOL     OW34313  12.046   6.495   5.496
10825SOL    HW134314  11.989   6.557   5.451
10825SOL    HW234315  11.988   6.447   5.555
10826SOL     OW34316   2.332   6.799   8.787
10826SOL    HW134317   2.243   6.766   8.804
10826SOL    HW234318   2.372   6.733   8.730
10827SOL     OW34319   8.400  11.717   3.917
10827SOL    HW134320   8.412  11.623   3.933
10827SOL    HW234321   8.306  11.730   3.921
10828SOL     OW34322   8.135  14.341   3.235
10828SOL    HW134323   8.174  14.343   3.323
10828SOL    HW234324   8.101  14.429   3.222
10829SOL     OW34325   2.742   6.509  10.245
10829SOL    HW134326   2.767   6.453  10.319
10829SOL    HW234327   2.698   6.583  10.286
10830SOL     OW34328   1.821   1.126  10.219
10830SOL    HW134329   1.820   1.222  10.221
10830SOL    HW234330   1.913   1.103  10.211
10831SOL     OW34331   8.570   9.963  10.609
10831SOL    HW134332   8.613   9.881  10.586
10831SOL    HW234333   8.481   9.955  10.573
10832SOL     OW34334  14.826   5.308   3.783
10832SOL    HW134335   0.010   5.238   3.771
10832SOL    HW234336  14.807   5.308   3.877
10833SOL     OW34337   0.761   3.648   9.702
10833SOL    HW134338   0.817   3.616   9.631
10833SOL    HW234339   0.772   3.743   9.701
10834SOL     OW34340   3.273   6.375  14.838
10834SOL    HW134341   3.368   6.379  14.847
10834SOL    HW234342   3.245   6.315   0.027
10835SOL     OW34343   8.858   5.401  10.102
10835SOL    HW134344   8.919   5.458  10.149
10835SOL    HW234345   8.909   5.322  10.084
10836SOL     OW34346   6.883  14.595  12.668
10836SOL    HW134347   6.816  14.663  12.656
10836SOL    HW234348   6.884  14.548  12.585
10837SOL     OW34349   2.622  13.506  10.058
10837SOL    HW134350   2.684  13.472  10.124
10837SOL    HW234351   2.536  13.480  10.090
10838SOL     OW34352   9.394   1.557   5.396
10838SOL    HW134353   9.429   1.502   5.466
10838SOL    HW234354   9.341   1.622   5.442
10839SOL     OW34355  12.075  13.868  11.179
10839SOL    HW134356  12.105  13.777  11.183
10839SOL    HW234357  12.009  13.869  11.110
10840SOL     OW34358   3.844   4.674   4.805
10840SOL    HW134359   3.866   4.737   4.874
10840SOL    HW234360   3.909   4.690   4.737
10841SOL     OW34361  12.047  10.859   8.610
10841SOL    HW134362  11.989  10.785   8.626
10841SOL    HW234363  11.990  10.936   8.615
10842SOL     OW34364   3.363   3.297   2.693
10842SOL    HW134365   3.330   3.223   2.744
10842SOL    HW234366   3.413   3.257   2.621
10843SOL     OW34367  14.720   8.684   9.067
10843SOL    HW134368  14.755   8.694   8.979
10843SOL    HW234369  14.657   8.757   9.075
10844SOL     OW34370   9.738   5.845   9.960
10844SOL    HW134371   9.815   5.819   9.911
10844SOL    HW234372   9.718   5.770  10.016
10845SOL     OW34373   7.576   4.293   0.318
10845SOL    HW134374   7.569   4.373   0.370
10845SOL    HW234375   7.486   4.265   0.304
10846SOL     OW34376   1.260   3.652  10.237
10846SOL    HW134377   1.348   3.614  10.240
10846SOL    HW234378   1.262   3.710  10.161
10847SOL     OW34379   8.859   8.795  12.425
10847SOL    HW134380   8.932   8.822  12.480
10847SOL    HW234381   8.783   8.800  12.483
10848SOL     OW34382  13.857   8.321  10.897
10848SOL    HW134383  13.946   8.355  10.888
10848SOL    HW234384  13.814   8.342  10.814
10849SOL     OW34385   6.158  11.140   3.869
10849SOL    HW134386   6.090  11.162   3.932
10849SOL    HW234387   6.235  11.189   3.898
10850SOL     OW34388   1.210   0.493   9.369
10850SOL    HW134389   1.148   0.429   9.334
10850SOL    HW234390   1.231   0.460   9.456
10851SOL     OW34391  11.156  12.173   3.710
10851SOL    HW134392  11.135  12.216   3.627
10851SOL    HW234393  11.167  12.081   3.687
10852SOL     OW34394   9.486   8.638  12.120
10852SOL    HW134395   9.419   8.703  12.144
10852SOL    HW234396   9.550   8.642  12.192
10853SOL     OW34397   5.359  11.436   8.159
10853SOL    HW134398   5.357  11.345   8.129
10853SOL    HW234399   5.374  11.486   8.079
10854SOL     OW34400   4.645   9.401   0.775
10854SOL    HW134401   4.575   9.441   0.724
10854SOL    HW234402   4.724   9.413   0.722
10855SOL     OW34403   2.317   2.673   8.572
10855SOL    HW134404   2.266   2.750   8.599
10855SOL    HW234405   2.284   2.602   8.627
10856SOL     OW34406  12.605   7.928   5.838
10856SOL    HW134407  12.573   7.975   5.762
10856SOL    HW234408  12.646   7.995   5.893
10857SOL     OW34409   3.642  10.324   2.271
10857SOL    HW134410   3.572  10.292   2.328
10857SOL    HW234411   3.597  10.375   2.204
10858SOL     OW34412   0.003   9.172   4.136
10858SOL    HW134413  14.816   9.238   4.120
10858SOL    HW234414  14.841   9.107   4.192
10859SOL     OW34415   3.127  13.382   4.213
10859SOL    HW134416   3.106  13.310   4.273
10859SOL    HW234417   3.151  13.339   4.132
10860SOL     OW34418   4.882   1.009   8.963
10860SOL    HW134419   4.931   1.085   8.996
10860SOL    HW234420   4.791   1.028   8.986
10861SOL     OW34421  12.070  11.333  12.903
10861SOL    HW134422  12.077  11.411  12.957
10861SOL    HW234423  12.160  11.306  12.887
10862SOL     OW34424   7.010  12.594   3.801
10862SOL    HW134425   6.955  12.559   3.731
10862SOL    HW234426   7.089  12.624   3.757
10863SOL     OW34427   8.706   8.067   3.504
10863SOL    HW134428   8.677   8.130   3.437
10863SOL    HW234429   8.626   8.047   3.552
10864SOL     OW34430  10.666   6.750   2.240
10864SOL    HW134431  10.642   6.684   2.304
10864SOL    HW234432  10.760   6.763   2.252
10865SOL     OW34433   9.452  13.693  12.094
10865SOL    HW134434   9.403  13.667  12.016
10865SOL    HW234435   9.526  13.742  12.060
10866SOL     OW34436   0.409  14.266  12.372
10866SOL    HW134437   0.502  14.286  12.357
10866SOL    HW234438   0.407  14.229  12.460
10867SOL     OW34439   4.695   7.963   1.704
10867SOL    HW134440   4.675   7.885   1.755
10867SOL    HW234441   4.765   8.007   1.752
10868SOL     OW34442  12.330   9.610   2.424
10868SOL    HW134443  12.258   9.657   2.384
10868SOL    HW234444  12.403   9.672   2.422
10869SOL     OW34445  12.048  14.149  10.783
10869SOL    HW134446  11.971  14.093  10.778
10869SOL    HW234447  12.114  14.094  10.827
10870SOL     OW34448  12.784  13.865   0.496
10870SOL    HW134449  12.716  13.912   0.448
10870SOL    HW234450  12.854  13.929   0.506
10871SOL     OW34451   6.159  10.943  11.497
10871SOL    HW134452   6.180  10.875  11.562
10871SOL    HW234453   6.235  10.944  11.439
10872SOL     OW34454   7.394   2.375  14.713
10872SOL    HW134455   7.404   2.391  14.619
10872SOL    HW234456   7.484   2.379  14.748
10873SOL     OW34457   3.062  11.543  14.535
10873SOL    HW134458   3.129  11.571  14.473
10873SOL    HW234459   2.991  11.510  14.481
10874SOL     OW34460  13.509   5.163   3.115
10874SOL    HW134461  13.571   5.132   3.049
10874SOL    HW234462  13.451   5.222   3.067
10875SOL     OW34463   8.585   5.825   6.727
10875SOL    HW134464   8.531   5.754   6.762
10875SOL    HW234465   8.631   5.787   6.653
10876SOL     OW34466  11.056   9.040  12.673
10876SOL    HW134467  11.147   9.032  12.643
10876SOL    HW234468  11.004   9.039  12.593
10877SOL     OW34469   6.925   4.395   5.909
10877SOL    HW134470   6.905   4.313   5.864
10877SOL    HW234471   6.901   4.463   5.846
10878SOL     OW34472  10.492  11.436   6.079
10878SOL    HW134473  10.426  11.502   6.059
10878SOL    HW234474  10.574  11.486   6.083
10879SOL     OW34475   2.287  10.233  14.189
10879SOL    HW134476   2.297  10.179  14.267
10879SOL    HW234477   2.193  10.252  14.185
10880SOL     OW34478  13.675  14.734   0.851
10880SOL    HW134479  13.590  14.770   0.875
10880SOL    HW234480  13.714  14.706   0.934
10881SOL     OW34481  11.050   0.193   3.309
10881SOL    HW134482  11.127   0.191   3.365
10881SOL    HW234483  11.085   0.210   3.221
10882SOL     OW34484  14.556  10.218  10.753
10882SOL    HW134485  14.582  10.171  10.674
10882SOL    HW234486  14.514  10.297  10.721
10883SOL     OW34487   5.821   9.750  11.004
10883SOL    HW134488   5.851   9.838  11.025
10883SOL    HW234489   5.830   9.742  10.909
10884SOL     OW34490  14.830  14.139  13.916
10884SOL    HW134491   0.020  14.194  13.879
10884SOL    HW234492  14.861  14.117  14.004
10885SOL     OW34493  11.354  14.844   7.561
10885SOL    HW134494  11.428  14.836   7.621
10885SOL    HW234495  11.304  14.763   7.574
10886SOL     OW34496   3.288  10.631   9.070
10886SOL    HW134497   3.361  10.682   9.035
10886SOL    HW234498   3.285  10.655   9.163
10887SOL     OW34499   0.411   9.290   7.342
10887SOL    HW134500   0.416   9.310   7.436
10887SOL    HW234501   0.501   9.303   7.311
10888SOL     OW34502   7.417   3.600  10.796
10888SOL    HW134503   7.370   3.592  10.713
10888SOL    HW234504   7.351   3.632  10.858
10889SOL     OW34505   6.913   1.226   2.598
10889SOL    HW134506   6.962   1.306   2.576
10889SOL    HW234507   6.823   1.246   2.570
10890SOL     OW34508   1.121   1.042  14.603
10890SOL    HW134509   1.105   0.951  14.628
10890SOL    HW234510   1.156   1.036  14.514
10891SOL     OW34511  11.862   2.514   0.218
10891SOL    HW134512  11.797   2.545   0.155
10891SOL    HW234513  11.892   2.594   0.262
10892SOL     OW34514   8.586   0.640   6.452
10892SOL    HW134515   8.522   0.697   6.494
10892SOL    HW234516   8.640   0.699   6.400
10893SOL     OW34517   8.205  11.471   3.270
10893SOL    HW134518   8.259  11.549   3.279
10893SOL    HW234519   8.166  11.479   3.183
10894SOL     OW34520  11.298  12.264   6.803
10894SOL    HW134521  11.298  12.322   6.727
10894SOL    HW234522  11.315  12.321   6.878
10895SOL     OW34523   8.499   2.816   1.897
10895SOL    HW134524   8.478   2.726   1.922
10895SOL    HW234525   8.492   2.817   1.802
10896SOL     OW34526   9.575  11.719  13.994
10896SOL    HW134527   9.487  11.724  14.031
10896SOL    HW234528   9.611  11.807  14.005
10897SOL     OW34529   9.788  13.602  14.023
10897SOL    HW134530   9.821  13.551  13.949
10897SOL    HW234531   9.698  13.573  14.034
10898SOL     OW34532   2.738   5.818  10.517
10898SOL    HW134533   2.819   5.773  10.539
10898SOL    HW234534   2.669   5.764  10.557
10899SOL     OW34535   0.583   5.516   9.713
10899SOL    HW134536   0.594   5.560   9.798
10899SOL    HW234537   0.495   5.540   9.685
10900SOL     OW34538   7.843   6.891   2.817
10900SOL    HW134539   7.922   6.914   2.865
10900SOL    HW234540   7.875   6.853   2.734
10901SOL     OW34541  10.927  14.296   0.416
10901SOL    HW134542  11.022  14.312   0.412
10901SOL    HW234543  10.899  14.339   0.497
10902SOL     OW34544  12.782   2.535   4.858
10902SOL    HW134545  12.811   2.492   4.939
10902SOL    HW234546  12.729   2.609   4.888
10903SOL     OW34547   5.865   8.246   6.154
10903SOL    HW134548   5.815   8.177   6.110
10903SOL    HW234549   5.947   8.250   6.106
10904SOL     OW34550   5.301  12.955  10.645
10904SOL    HW134551   5.272  12.917  10.728
10904SOL    HW234552   5.345  13.036  10.669
10905SOL     OW34553   7.015  12.203   0.578
10905SOL    HW134554   6.931  12.177   0.615
10905SOL    HW234555   7.080  12.167   0.639
10906SOL     OW34556  12.601   7.326   4.240
10906SOL    HW134557  12.575   7.413   4.209
10906SOL    HW234558  12.590   7.269   4.163
10907SOL     OW34559   5.075  12.720  11.019
10907SOL    HW134560   5.010  12.705  11.087
10907SOL    HW234561   5.030  12.696  10.938
10908SOL     OW34562  13.715   6.167   7.069
10908SOL    HW134563  13.683   6.254   7.044
10908SOL    HW234564  13.809   6.169   7.052
10909SOL     OW34565   6.407   2.267  10.718
10909SOL    HW134566   6.437   2.355  10.741
10909SOL    HW234567   6.343   2.244  10.786
10910SOL     OW34568   4.700  14.684   7.084
10910SOL    HW134569   4.702  14.618   7.154
10910SOL    HW234570   4.714  14.634   7.004
10911SOL     OW34571   8.657   6.165  10.085
10911SOL    HW134572   8.681   6.147   9.994
10911SOL    HW234573   8.614   6.085  10.115
10912SOL     OW34574   5.118   6.459   8.288
10912SOL    HW134575   5.113   6.449   8.192
10912SOL    HW234576   5.200   6.505   8.303
10913SOL     OW34577   7.713   1.367   7.862
10913SOL    HW134578   7.674   1.353   7.948
10913SOL    HW234579   7.674   1.299   7.807
10914SOL     OW34580   6.625  14.484   8.629
10914SOL    HW134581   6.613  14.564   8.578
10914SOL    HW234582   6.716  14.487   8.658
10915SOL     OW34583   9.139   6.814  10.825
10915SOL    HW134584   9.154   6.752  10.754
10915SOL    HW234585   9.224   6.822  10.869
10916SOL     OW34586   2.718   0.283   1.183
10916SOL    HW134587   2.760   0.235   1.254
10916SOL    HW234588   2.651   0.336   1.226
10917SOL     OW34589   5.859   1.051  13.574
10917SOL    HW134590   5.904   1.061  13.659
10917SOL    HW234591   5.783   1.109  13.580
10918SOL     OW34592  13.992   5.751   5.506
10918SOL    HW134593  13.974   5.665   5.468
10918SOL    HW234594  13.956   5.813   5.443
10919SOL     OW34595  12.233  10.785  11.450
10919SOL    HW134596  12.237  10.832  11.533
10919SOL    HW234597  12.322  10.752  11.437
10920SOL     OW34598   4.147   1.684   5.892
10920SOL    HW134599   4.243   1.692   5.886
10920SOL    HW234600   4.124   1.626   5.820
10921SOL     OW34601   3.122   7.999  12.850
10921SOL    HW134602   3.031   7.990  12.822
10921SOL    HW234603   3.173   7.950  12.785
10922SOL     OW34604   2.834  11.216   1.656
10922SOL    HW134605   2.830  11.142   1.595
10922SOL    HW234606   2.924  11.246   1.653
10923SOL     OW34607   0.458   7.940  14.468
10923SOL    HW134608   0.412   7.924  14.386
10923SOL    HW234609   0.440   7.862  14.521
10924SOL     OW34610   1.448  12.275  13.571
10924SOL    HW134611   1.383  12.314  13.512
10924SOL    HW234612   1.488  12.206  13.519
10925SOL     OW34613   6.105   3.847   8.259
10925SOL    HW134614   6.197   3.836   8.282
10925SOL    HW234615   6.106   3.905   8.182
10926SOL     OW34616  12.809   9.761  13.578
10926SOL    HW134617  12.735   9.813  13.609
10926SOL    HW234618  12.876   9.771  13.646
10927SOL     OW34619   9.626   8.762  11.198
10927SOL    HW134620   9.546   8.749  11.249
10927SOL    HW234621   9.612   8.844  11.151
10928SOL     OW34622   6.913   0.756   3.214
10928SOL    HW134623   6.940   0.794   3.297
10928SOL    HW234624   6.992   0.755   3.160
10929SOL     OW34625   3.972   7.787   0.511
10929SOL    HW134626   3.990   7.707   0.461
10929SOL    HW234627   3.937   7.848   0.447
10930SOL     OW34628   8.510   8.948   9.553
10930SOL    HW134629   8.519   9.033   9.509
10930SOL    HW234630   8.494   8.971   9.645
10931SOL     OW34631   2.110   9.502   1.339
10931SOL    HW134632   2.039   9.553   1.378
10931SOL    HW234633   2.108   9.418   1.386
10932SOL     OW34634   9.242   6.480  11.380
10932SOL    HW134635   9.332   6.494  11.351
10932SOL    HW234636   9.191   6.478  11.298
10933SOL     OW34637   0.791   9.659   9.897
10933SOL    HW134638   0.776   9.564   9.896
10933SOL    HW234639   0.767   9.686   9.986
10934SOL     OW34640   7.707   7.346  13.400
10934SOL    HW134641   7.730   7.283  13.331
10934SOL    HW234642   7.739   7.430  13.367
10935SOL     OW34643   3.932   9.407   6.895
10935SOL    HW134644   3.995   9.413   6.966
10935SOL    HW234645   3.980   9.364   6.824
10936SOL     OW34646  11.067   3.196   2.943
10936SOL    HW134647  11.155   3.232   2.930
10936SOL    HW234648  11.051   3.206   3.037
10937SOL     OW34649   1.701   7.132   1.874
10937SOL    HW134650   1.632   7.187   1.911
10937SOL    HW234651   1.738   7.184   1.802
10938SOL     OW34652   5.556   8.743   6.399
10938SOL    HW134653   5.652   8.750   6.399
10938SOL    HW234654   5.526   8.826   6.363
10939SOL     OW34655   9.678   2.719   9.537
10939SOL    HW134656   9.706   2.743   9.449
10939SOL    HW234657   9.741   2.654   9.566
10940SOL     OW34658   2.525   0.211   0.865
10940SOL    HW134659   2.611   0.195   0.826
10940SOL    HW234660   2.541   0.212   0.959
10941SOL     OW34661   5.437  11.005   3.877
10941SOL    HW134662   5.483  10.942   3.933
10941SOL    HW234663   5.392  10.950   3.813
10942SOL     OW34664   1.768   5.833   9.808
10942SOL    HW134665   1.705   5.794   9.869
10942SOL    HW234666   1.829   5.762   9.788
10943SOL     OW34667   8.301   1.123   3.044
10943SOL    HW134668   8.221   1.084   3.079
10943SOL    HW234669   8.271   1.201   2.997
10944SOL     OW34670  11.437   5.262   0.091
10944SOL    HW134671  11.395   5.231   0.011
10944SOL    HW234672  11.366   5.300   0.143
10945SOL     OW34673   6.462   2.052   9.416
10945SOL    HW134674   6.532   2.067   9.353
10945SOL    HW234675   6.434   1.962   9.401
10946SOL     OW34676   8.716   1.227   6.469
10946SOL    HW134677   8.752   1.311   6.499
10946SOL    HW234678   8.750   1.163   6.532
10947SOL     OW34679  12.841   2.687  10.846
10947SOL    HW134680  12.784   2.655  10.916
10947SOL    HW234681  12.862   2.777  10.871
10948SOL     OW34682  11.633  10.344   7.013
10948SOL    HW134683  11.659  10.255   7.035
10948SOL    HW234684  11.692  10.400   7.062
10949SOL     OW34685   8.824  10.618  13.730
10949SOL    HW134686   8.810  10.681  13.801
10949SOL    HW234687   8.919  10.606  13.727
10950SOL     OW34688  13.634   1.111   4.533
10950SOL    HW134689  13.647   1.032   4.585
10950SOL    HW234690  13.541   1.129   4.540
10951SOL     OW34691  13.257  10.570  10.813
10951SOL    HW134692  13.242  10.620  10.894
10951SOL    HW234693  13.183  10.593  10.757
10952SOL     OW34694  14.300   7.784   7.579
10952SOL    HW134695  14.386   7.825   7.573
10952SOL    HW234696  14.240   7.856   7.597
10953SOL     OW34697   2.045   0.502   1.254
10953SOL    HW134698   2.063   0.418   1.211
10953SOL    HW234699   1.967   0.536   1.211
10954SOL     OW34700   6.408  10.941   1.227
10954SOL    HW134701   6.332  10.918   1.279
10954SOL    HW234702   6.434  11.027   1.259
10955SOL     OW34703   0.901   0.209   6.683
10955SOL    HW134704   0.952   0.140   6.724
10955SOL    HW234705   0.814   0.200   6.721
10956SOL     OW34706   4.918   4.868   4.511
10956SOL    HW134707   4.850   4.836   4.452
10956SOL    HW234708   4.974   4.922   4.455
10957SOL     OW34709   7.930   0.592   9.751
10957SOL    HW134710   7.878   0.524   9.796
10957SOL    HW234711   7.947   0.657   9.819
10958SOL     OW34712   0.016   4.581  13.208
10958SOL    HW134713  14.809   4.603  13.244
10958SOL    HW234714   0.019   4.486  13.209
10959SOL     OW34715  10.525   5.160   8.347
10959SOL    HW134716  10.550   5.068   8.338
10959SOL    HW234717  10.529   5.195   8.258
10960SOL     OW34718  12.008  13.780   4.124
10960SOL    HW134719  12.036  13.698   4.166
10960SOL    HW234720  11.951  13.751   4.053
10961SOL     OW34721   3.568   4.801   4.253
10961SOL    HW134722   3.541   4.891   4.238
10961SOL    HW234723   3.487   4.751   4.253
10962SOL     OW34724   2.892   5.155  13.620
10962SOL    HW134725   2.983   5.181  13.626
10962SOL    HW234726   2.846   5.233  13.590
10963SOL     OW34727   1.768   4.091   5.578
10963SOL    HW134728   1.691   4.038   5.599
10963SOL    HW234729   1.841   4.030   5.584
10964SOL     OW34730  10.979   3.711   9.119
10964SOL    HW134731  11.017   3.674   9.199
10964SOL    HW234732  10.899   3.755   9.148
10965SOL     OW34733  12.433   6.143  14.565
10965SOL    HW134734  12.425   6.143  14.660
10965SOL    HW234735  12.527   6.129  14.549
10966SOL     OW34736   2.082  10.763   9.636
10966SOL    HW134737   2.128  10.834   9.590
10966SOL    HW234738   2.072  10.695   9.570
10967SOL     OW34739   9.718   6.205   4.726
10967SOL    HW134740   9.791   6.142   4.729
10967SOL    HW234741   9.690   6.213   4.818
10968SOL     OW34742   1.309   8.259  14.328
10968SOL    HW134743   1.377   8.323  14.305
10968SOL    HW234744   1.231   8.311  14.346
10969SOL     OW34745  14.390  14.877   1.952
10969SOL    HW134746  14.420   0.073   1.902
10969SOL    HW234747  14.393  14.805   1.890
10970SOL     OW34748   6.350  11.291   3.964
10970SOL    HW134749   6.381  11.237   4.036
10970SOL    HW234750   6.278  11.343   4.001
10971SOL     OW34751   2.389  12.452   6.287
10971SOL    HW134752   2.385  12.392   6.212
10971SOL    HW234753   2.461  12.418   6.340
10972SOL     OW34754  13.332  14.300   6.620
10972SOL    HW134755  13.341  14.214   6.662
10972SOL    HW234756  13.238  14.309   6.604
10973SOL     OW34757  12.686   6.123   1.800
10973SOL    HW134758  12.657   6.201   1.847
10973SOL    HW234759  12.761   6.153   1.748
10974SOL     OW34760  10.725   1.253   6.421
10974SOL    HW134761  10.721   1.193   6.495
10974SOL    HW234762  10.815   1.284   6.419
10975SOL     OW34763   7.358   6.159   8.096
10975SOL    HW134764   7.269   6.139   8.066
10975SOL    HW234765   7.413   6.148   8.018
10976SOL     OW34766  10.122   1.818  11.181
10976SOL    HW134767  10.152   1.797  11.092
10976SOL    HW234768  10.107   1.733  11.222
10977SOL     OW34769   5.415  14.330  12.680
10977SOL    HW134770   5.450  14.241  12.686
10977SOL    HW234771   5.436  14.370  12.764
10978SOL     OW34772  14.029   6.056   3.903
10978SOL    HW134773  13.938   6.061   3.933
10978SOL    HW234774  14.046   5.962   3.894
10979SOL     OW34775   6.365  13.795   4.867
10979SOL    HW134776   6.426  13.821   4.799
10979SOL    HW234777   6.322  13.876   4.894
10980SOL     OW34778  14.704  10.022   5.541
10980SOL    HW134779  14.747  10.057   5.619
10980SOL    HW234780  14.698   9.928   5.557
10981SOL     OW34781   2.084   4.798  13.173
10981SOL    HW134782   2.097   4.886  13.137
10981SOL    HW234783   2.005   4.805  13.226
10982SOL     OW34784  14.183   7.674   5.744
10982SOL    HW134785  14.092   7.661   5.719
10982SOL    HW234786  14.189   7.767   5.765
10983SOL     OW34787   8.243  10.893  12.417
10983SOL    HW134788   8.240  10.809  12.371
10983SOL    HW234789   8.202  10.876  12.501
10984SOL     OW34790   6.004   5.237   2.223
10984SOL    HW134791   5.954   5.226   2.142
10984SOL    HW234792   6.087   5.192   2.206
10985SOL     OW34793   8.245   7.961   4.387
10985SOL    HW134794   8.235   7.948   4.293
10985SOL    HW234795   8.229   7.874   4.425
10986SOL     OW34796   2.600   8.218   4.563
10986SOL    HW134797   2.628   8.308   4.579
10986SOL    HW234798   2.545   8.223   4.486
10987SOL     OW34799   4.982   8.599   3.780
10987SOL    HW134800   5.016   8.686   3.761
10987SOL    HW234801   4.989   8.591   3.875
10988SOL     OW34802   5.609   0.898  10.387
10988SOL    HW134803   5.551   0.930  10.456
10988SOL    HW234804   5.663   0.974  10.364
10989SOL     OW34805  13.946   9.196  14.090
10989SOL    HW134806  13.983   9.108  14.080
10989SOL    HW234807  13.885   9.205  14.017
10990SOL     OW34808  11.441   7.779  10.817
10990SOL    HW134809  11.350   7.778  10.788
10990SOL    HW234810  11.474   7.692  10.798
10991SOL     OW34811   4.334   5.851   6.511
10991SOL    HW134812   4.268   5.821   6.449
10991SOL    HW234813   4.291   5.848   6.596
10992SOL     OW34814  10.867  10.164   8.162
10992SOL    HW134815  10.859  10.071   8.184
10992SOL    HW234816  10.935  10.197   8.221
10993SOL     OW34817   0.482   2.818  10.368
10993SOL    HW134818   0.471   2.732  10.326
10993SOL    HW234819   0.406   2.826  10.425
10994SOL     OW34820   8.492  10.333   1.462
10994SOL    HW134821   8.563  10.282   1.500
10994SOL    HW234822   8.413  10.296   1.500
10995SOL     OW34823   3.921   1.094   5.480
10995SOL    HW134824   3.955   1.159   5.419
10995SOL    HW234825   3.886   1.146   5.553
10996SOL     OW34826   7.373   9.436   3.139
10996SOL    HW134827   7.451   9.447   3.084
10996SOL    HW234828   7.395   9.363   3.196
10997SOL     OW34829   9.126   6.813   2.358
10997SOL    HW134830   9.048   6.844   2.311
10997SOL    HW234831   9.161   6.743   2.302
10998SOL     OW34832  12.959   9.728  11.230
10998SOL    HW134833  13.031   9.680  11.188
10998SOL    HW234834  12.934   9.674  11.305
10999SOL     OW34835   0.941   6.002  14.832
10999SOL    HW134836   0.880   6.075  14.826
10999SOL    HW234837   1.011   6.033   0.010
11000SOL     OW34838  12.725   0.965   9.020
11000SOL    HW134839  12.817   0.982   9.000
11000SOL    HW234840  12.728   0.911   9.099
11001SOL     OW34841   4.959   3.480  14.749
11001SOL    HW134842   5.021   3.474  14.677
11001SOL    HW234843   4.946   3.573  14.763
11002SOL     OW34844   2.653   2.121   5.685
11002SOL    HW134845   2.561   2.106   5.664
11002SOL    HW234846   2.652   2.195   5.746
11003SOL     OW34847   9.731  12.570   3.495
11003SOL    HW134848   9.672  12.606   3.561
11003SOL    HW234849   9.721  12.475   3.503
11004SOL     OW34850   9.425   1.938   6.047
11004SOL    HW134851   9.415   2.026   6.010
11004SOL    HW234852   9.389   1.880   5.980
11005SOL     OW34853   5.536  10.535   2.994
11005SOL    HW134854   5.518  10.492   3.077
11005SOL    HW234855   5.462  10.594   2.980
11006SOL     OW34856  11.978   5.054   1.993
11006SOL    HW134857  12.049   5.001   1.958
11006SOL    HW234858  11.945   5.103   1.918
11007SOL     OW34859  10.186   7.530  11.404
11007SOL    HW134860  10.202   7.492  11.318
11007SOL    HW234861  10.234   7.474  11.465
11008SOL     OW34862   3.840   5.145  14.566
11008SOL    HW134863   3.797   5.139  14.481
11008SOL    HW234864   3.825   5.235  14.594
11009SOL     OW34865   9.935   8.743  14.563
11009SOL    HW134866   9.939   8.663  14.616
11009SOL    HW234867   9.972   8.718  14.479
11010SOL     OW34868   9.235   7.478   7.905
11010SOL    HW134869   9.251   7.483   7.810
11010SOL    HW234870   9.144   7.506   7.915
11011SOL     OW34871   4.302   7.830   9.495
11011SOL    HW134872   4.291   7.894   9.424
11011SOL    HW234873   4.396   7.830   9.513
11012SOL     OW34874   8.703  12.631   5.134
11012SOL    HW134875   8.682  12.588   5.217
11012SOL    HW234876   8.799  12.640   5.135
11013SOL     OW34877   4.151  13.188  13.421
11013SOL    HW134878   4.118  13.219  13.337
11013SOL    HW234879   4.195  13.263  13.460
11014SOL     OW34880   7.167  13.121  13.816
11014SOL    HW134881   7.138  13.049  13.760
11014SOL    HW234882   7.147  13.093  13.905
11015SOL     OW34883   2.559  11.265  10.518
11015SOL    HW134884   2.607  11.262  10.435
11015SOL    HW234885   2.467  11.252  10.493
11016SOL     OW34886   5.896   4.341   7.619
11016SOL    HW134887   5.891   4.253   7.582
11016SOL    HW234888   5.990   4.360   7.621
11017SOL     OW34889   5.806   4.908   8.391
11017SOL    HW134890   5.837   4.920   8.301
11017SOL    HW234891   5.796   4.814   8.400
11018SOL     OW34892   9.140  13.259  14.444
11018SOL    HW134893   9.086  13.183  14.422
11018SOL    HW234894   9.098  13.298  14.520
11019SOL     OW34895   5.627   1.018   3.349
11019SOL    HW134896   5.604   1.076   3.422
11019SOL    HW234897   5.582   0.936   3.369
11020SOL     OW34898  13.093  11.046  12.653
11020SOL    HW134899  13.047  10.963  12.638
11020SOL    HW234900  13.047  11.109  12.598
11021SOL     OW34901   5.047   6.082  11.271
11021SOL    HW134902   5.053   6.159  11.215
11021SOL    HW234903   4.959   6.085  11.308
11022SOL     OW34904   1.410  14.808   2.694
11022SOL    HW134905   1.488  14.768   2.655
11022SOL    HW234906   1.344  14.739   2.692
11023SOL     OW34907  12.546  10.457   6.294
11023SOL    HW134908  12.492  10.459   6.373
11023SOL    HW234909  12.483  10.456   6.222
11024SOL     OW34910   4.976   1.634   7.858
11024SOL    HW134911   4.963   1.670   7.946
11024SOL    HW234912   4.889   1.609   7.828
11025SOL     OW34913  10.456   7.032   1.366
11025SOL    HW134914  10.442   7.100   1.431
11025SOL    HW234915  10.425   6.952   1.407
11026SOL     OW34916  13.409  14.240   1.566
11026SOL    HW134917  13.368  14.227   1.652
11026SOL    HW234918  13.350  14.195   1.505
11027SOL     OW34919  14.512  10.615   5.709
11027SOL    HW134920  14.495  10.683   5.774
11027SOL    HW234921  14.429  10.605   5.662
11028SOL     OW34922  11.725   9.095  14.134
11028SOL    HW134923  11.673   9.154  14.081
11028SOL    HW234924  11.725   9.134  14.222
11029SOL     OW34925   1.535  13.308   2.268
11029SOL    HW134926   1.469  13.340   2.207
11029SOL    HW234927   1.519  13.359   2.348
11030SOL     OW34928   0.493   5.095   0.468
11030SOL    HW134929   0.401   5.080   0.486
11030SOL    HW234930   0.499   5.187   0.445
11031SOL     OW34931   0.262   7.515   5.833
11031SOL    HW134932   0.245   7.451   5.902
11031SOL    HW234933   0.177   7.528   5.791
11032SOL     OW34934   3.437   2.825  11.479
11032SOL    HW134935   3.491   2.781  11.544
11032SOL    HW234936   3.359   2.770  11.471
11033SOL     OW34937   1.954  10.531   4.804
11033SOL    HW134938   1.982  10.484   4.882
11033SOL    HW234939   1.948  10.622   4.832
11034SOL     OW34940   9.314  13.254  11.035
11034SOL    HW134941   9.251  13.307  10.985
11034SOL    HW234942   9.396  13.304  11.031
11035SOL     OW34943   5.871   0.022   5.911
11035SOL    HW134944   5.941   0.035   5.847
11035SOL    HW234945   5.912   0.041   5.995
11036SOL     OW34946   4.781  11.105   3.694
11036SOL    HW134947   4.835  11.041   3.741
11036SOL    HW234948   4.710  11.053   3.656
11037SOL     OW34949   9.172   4.683  13.273
11037SOL    HW134950   9.159   4.774  13.245
11037SOL    HW234951   9.129   4.631  13.205
11038SOL     OW34952  11.529   7.633   7.423
11038SOL    HW134953  11.515   7.727   7.430
11038SOL    HW234954  11.451   7.594   7.464
11039SOL     OW34955   3.976  13.318   0.734
11039SOL    HW134956   3.948  13.239   0.781
11039SOL    HW234957   4.031  13.285   0.663
11040SOL     OW34958  12.340  12.238   6.081
11040SOL    HW134959  12.387  12.159   6.051
11040SOL    HW234960  12.258  12.204   6.116
11041SOL     OW34961  10.940  13.324  12.258
11041SOL    HW134962  10.961  13.272  12.335
11041SOL    HW234963  10.852  13.297  12.233
11042SOL     OW34964  12.172   5.621  11.106
11042SOL    HW134965  12.132   5.534  11.094
11042SOL    HW234966  12.150   5.669  11.027
11043SOL     OW34967   5.118   6.764   5.161
11043SOL    HW134968   5.068   6.685   5.179
11043SOL    HW234969   5.137   6.801   5.247
11044SOL     OW34970   7.505  10.093   0.581
11044SOL    HW134971   7.516  10.186   0.603
11044SOL    HW234972   7.428  10.065   0.631
11045SOL     OW34973  11.043   6.673  14.797
11045SOL    HW134974  10.976   6.681  14.865
11045SOL    HW234975  11.008   6.608  14.736
11046SOL     OW34976  11.215  11.788   5.365
11046SOL    HW134977  11.176  11.701   5.375
11046SOL    HW234978  11.185  11.837   5.441
11047SOL     OW34979   7.401  10.397  10.014
11047SOL    HW134980   7.362  10.315   9.983
11047SOL    HW234981   7.477  10.370  10.065
11048SOL     OW34982  12.625  12.139   6.653
11048SOL    HW134983  12.706  12.088   6.655
11048SOL    HW234984  12.589  12.132   6.741
11049SOL     OW34985   4.680  11.301  11.006
11049SOL    HW134986   4.769  11.294  11.041
11049SOL    HW234987   4.630  11.345  11.075
11050SOL     OW34988  11.617   7.219   1.917
11050SOL    HW134989  11.585   7.194   2.004
11050SOL    HW234990  11.545   7.270   1.879
11051SOL     OW34991   4.494   5.530   5.681
11051SOL    HW134992   4.467   5.581   5.757
11051SOL    HW234993   4.495   5.593   5.609
11052SOL     OW34994   0.380  11.579  14.589
11052SOL    HW134995   0.472  11.562  14.611
11052SOL    HW234996   0.384  11.644  14.519
11053SOL     OW34997   4.591  11.339  11.270
11053SOL    HW134998   4.658  11.333  11.338
11053SOL    HW234999   4.558  11.429  11.276
11054SOL     OW35000  11.899   9.602  14.785
11054SOL    HW135001  11.823   9.571  14.835
11054SOL    HW235002  11.867   9.609  14.695
11055SOL     OW35003   1.732  10.947   4.982
11055SOL    HW135004   1.673  10.927   5.055
11055SOL    HW235005   1.680  11.001   4.923
11056SOL     OW35006   5.750  12.771  13.409
11056SOL    HW135007   5.673  12.715  13.407
11056SOL    HW235008   5.728  12.839  13.472
11057SOL     OW35009   7.247   1.922   9.262
11057SOL    HW135010   7.157   1.894   9.280
11057SOL    HW235011   7.298   1.841   9.263
11058SOL     OW35012   2.345  13.967  13.208
11058SOL    HW135013   2.402  14.035  13.173
11058SOL    HW235014   2.402  13.912  13.261
11059SOL     OW35015  12.516  10.839   5.149
11059SOL    HW135016  12.492  10.766   5.207
11059SOL    HW235017  12.496  10.807   5.061
11060SOL     OW35018   6.237  13.870  10.275
11060SOL    HW135019   6.205  13.854  10.186
11060SOL    HW235020   6.331  13.851  10.271
11061SOL     OW35021  11.527   1.949   7.988
11061SOL    HW135022  11.489   1.918   7.906
11061SOL    HW235023  11.570   1.872   8.025
11062SOL     OW35024   4.866   7.282  12.928
11062SOL    HW135025   4.842   7.194  12.899
11062SOL    HW235026   4.783   7.329  12.935
11063SOL     OW35027   6.062   1.861   0.644
11063SOL    HW135028   6.046   1.806   0.568
11063SOL    HW235029   5.994   1.837   0.707
11064SOL     OW35030   5.893  12.255   9.964
11064SOL    HW135031   5.975  12.226   9.923
11064SOL    HW235032   5.919  12.276  10.054
11065SOL     OW35033  11.153   1.288   9.735
11065SOL    HW135034  11.243   1.293   9.705
11065SOL    HW235035  11.113   1.219   9.681
11066SOL     OW35036  10.780   4.699  11.397
11066SOL    HW135037  10.871   4.689  11.368
11066SOL    HW235038  10.730   4.711  11.316
11067SOL     OW35039  10.066  13.583   4.677
11067SOL    HW135040  10.110  13.507   4.639
11067SOL    HW235041  10.114  13.659   4.642
11068SOL     OW35042  13.567   3.299   2.463
11068SOL    HW135043  13.592   3.376   2.514
11068SOL    HW235044  13.589   3.321   2.373
11069SOL     OW35045   0.126  13.196   5.075
11069SOL    HW135046   0.141  13.114   5.121
11069SOL    HW235047   0.100  13.170   4.987
11070SOL     OW35048   1.490  13.578  13.185
11070SOL    HW135049   1.496  13.586  13.280
11070SOL    HW235050   1.413  13.523  13.170
11071SOL     OW35051   6.990  14.727  13.555
11071SOL    HW135052   7.002  14.774  13.472
11071SOL    HW235053   6.918  14.667  13.538
11072SOL     OW35054   8.683   2.480  10.880
11072SOL    HW135055   8.623   2.539  10.925
11072SOL    HW235056   8.749   2.459  10.947
11073SOL     OW35057   1.249  10.106   0.873
11073SOL    HW135058   1.195  10.132   0.798
11073SOL    HW235059   1.332  10.152   0.860
11074SOL     OW35060   1.768  14.557   3.014
11074SOL    HW135061   1.820  14.569   3.094
11074SOL    HW235062   1.797  14.628   2.956
11075SOL     OW35063   7.268   3.807  11.032
11075SOL    HW135064   7.317   3.888  11.019
11075SOL    HW235065   7.186   3.834  11.073
11076SOL     OW35066   7.889  14.025  12.418
11076SOL    HW135067   7.911  14.093  12.355
11076SOL    HW235068   7.851  13.955  12.365
11077SOL     OW35069   7.299   4.761   7.896
11077SOL    HW135070   7.219   4.793   7.938
11077SOL    HW235071   7.273   4.678   7.854
11078SOL     OW35072  11.385   9.405   2.530
11078SOL    HW135073  11.314   9.357   2.572
11078SOL    HW235074  11.378   9.382   2.437
11079SOL     OW35075   2.662  12.840  14.383
11079SOL    HW135076   2.754  12.850  14.358
11079SOL    HW235077   2.615  12.841  14.300
11080SOL     OW35078  11.772   9.179  10.241
11080SOL    HW135079  11.846   9.217  10.289
11080SOL    HW235080  11.696   9.228  10.272
11081SOL     OW35081   2.176  12.062  10.331
11081SOL    HW135082   2.092  12.101  10.308
11081SOL    HW235083   2.224  12.131  10.377
11082SOL     OW35084   9.985  13.968   2.174
11082SOL    HW135085   9.940  13.920   2.244
11082SOL    HW235086  10.071  13.928   2.168
11083SOL     OW35087   3.735   0.695   7.377
11083SOL    HW135088   3.680   0.628   7.417
11083SOL    HW235089   3.713   0.776   7.423
11084SOL     OW35090   4.202  14.150  13.940
11084SOL    HW135091   4.190  14.162  13.845
11084SOL    HW235092   4.119  14.113  13.969
11085SOL     OW35093  14.802  10.512   5.764
11085SOL    HW135094  14.720  10.526   5.716
11085SOL    HW235095  14.778  10.520   5.856
11086SOL     OW35096   4.012   5.318   9.993
11086SOL    HW135097   4.070   5.277   9.929
11086SOL    HW235098   4.065   5.388  10.032
11087SOL     OW35099   5.717  10.173  13.071
11087SOL    HW135100   5.801  10.202  13.107
11087SOL    HW235101   5.657  10.246  13.088
11088SOL     OW35102  11.288   5.920   1.659
11088SOL    HW135103  11.334   5.838   1.639
11088SOL    HW235104  11.352   5.972   1.708
11089SOL     OW35105   5.306   6.388  11.896
11089SOL    HW135106   5.311   6.326  11.823
11089SOL    HW235107   5.306   6.474  11.855
11090SOL     OW35108   0.838   3.920  10.975
11090SOL    HW135109   0.912   3.894  10.919
11090SOL    HW235110   0.795   3.838  10.997
11091SOL     OW35111  11.362   1.097   5.451
11091SOL    HW135112  11.388   1.190   5.451
11091SOL    HW235113  11.301   1.089   5.524
11092SOL     OW35114   3.933   7.202   2.836
11092SOL    HW135115   3.869   7.269   2.810
11092SOL    HW235116   4.016   7.249   2.838
11093SOL     OW35117   1.948   7.907  14.456
11093SOL    HW135118   2.013   7.970  14.425
11093SOL    HW235119   1.988   7.866  14.533
11094SOL     OW35120  13.131   8.492   5.816
11094SOL    HW135121  13.201   8.455   5.870
11094SOL    HW235122  13.113   8.424   5.751
11095SOL     OW35123  12.777   5.202   4.096
11095SOL    HW135124  12.762   5.207   4.190
11095SOL    HW235125  12.768   5.109   4.075
11096SOL     OW35126  11.730  14.014   5.846
11096SOL    HW135127  11.677  13.937   5.864
11096SOL    HW235128  11.815  13.994   5.887
11097SOL     OW35129  10.191  12.337   7.048
11097SOL    HW135130  10.224  12.271   6.986
11097SOL    HW235131  10.136  12.287   7.108
11098SOL     OW35132  14.287   0.143   7.154
11098SOL    HW135133  14.317   0.223   7.198
11098SOL    HW235134  14.366   0.089   7.146
11099SOL     OW35135   2.523  12.954   3.974
11099SOL    HW135136   2.590  13.016   4.004
11099SOL    HW235137   2.525  12.883   4.038
11100SOL     OW35138   7.099   4.828   8.080
11100SOL    HW135139   7.103   4.912   8.127
11100SOL    HW235140   7.013   4.830   8.037
11101SOL     OW35141  10.184   6.534  13.014
11101SOL    HW135142  10.209   6.442  13.015
11101SOL    HW235143  10.093   6.535  13.041
11102SOL     OW35144   2.848   3.423  10.525
11102SOL    HW135145   2.881   3.492  10.584
11102SOL    HW235146   2.881   3.448  10.439
11103SOL     OW35147   0.887   1.657   2.812
11103SOL    HW135148   0.796   1.667   2.841
11103SOL    HW235149   0.884   1.670   2.718
11104SOL     OW35150   8.955  10.733   9.337
11104SOL    HW135151   8.979  10.825   9.345
11104SOL    HW235152   8.891  10.719   9.407
11105SOL     OW35153  13.104   7.989   6.745
11105SOL    HW135154  13.043   7.917   6.760
11105SOL    HW235155  13.060   8.066   6.781
11106SOL     OW35156   9.032  12.702   3.075
11106SOL    HW135157   9.013  12.743   3.159
11106SOL    HW235158   9.030  12.774   3.011
11107SOL     OW35159  11.463  11.116   0.426
11107SOL    HW135160  11.459  11.118   0.331
11107SOL    HW235161  11.549  11.153   0.448
11108SOL     OW35162  13.744   7.217   0.216
11108SOL    HW135163  13.783   7.211   0.129
11108SOL    HW235164  13.790   7.290   0.258
11109SOL     OW35165  14.686   7.176   5.547
11109SOL    HW135166  14.758   7.140   5.599
11109SOL    HW235167  14.641   7.099   5.511
11110SOL     OW35168   0.711   7.056  11.761
11110SOL    HW135169   0.735   7.104  11.840
11110SOL    HW235170   0.630   7.099  11.731
11111SOL     OW35171  10.493  12.451   8.751
11111SOL    HW135172  10.465  12.490   8.834
11111SOL    HW235173  10.476  12.520   8.686
11112SOL     OW35174   1.612   0.018  12.792
11112SOL    HW135175   1.592   0.063  12.710
11112SOL    HW235176   1.554   0.058  12.857
11113SOL     OW35177  12.670   3.130   7.904
11113SOL    HW135178  12.630   3.197   7.848
11113SOL    HW235179  12.597   3.091   7.951
11114SOL     OW35180   4.426   0.702   0.625
11114SOL    HW135181   4.350   0.689   0.569
11114SOL    HW235182   4.402   0.658   0.707
11115SOL     OW35183   0.153  10.508  14.671
11115SOL    HW135184   0.120  10.497  14.760
11115SOL    HW235185   0.238  10.464  14.671
11116SOL     OW35186   1.046   0.686   2.043
11116SOL    HW135187   1.056   0.708   1.950
11116SOL    HW235188   1.135   0.685   2.077
11117SOL     OW35189   1.871  10.919   5.265
11117SOL    HW135190   1.785  10.958   5.246
11117SOL    HW235191   1.884  10.936   5.359
11118SOL     OW35192   7.037   2.705  12.911
11118SOL    HW135193   6.955   2.658  12.923
11118SOL    HW235194   7.011   2.791  12.877
11119SOL     OW35195  14.458   1.195  11.325
11119SOL    HW135196  14.492   1.242  11.401
11119SOL    HW235197  14.401   1.128  11.362
11120SOL     OW35198  10.110   6.525   5.514
11120SOL    HW135199  10.078   6.475   5.589
11120SOL    HW235200  10.190   6.480   5.488
11121SOL     OW35201   9.050   9.840   5.505
11121SOL    HW135202   9.120   9.881   5.555
11121SOL    HW235203   9.094   9.804   5.427
11122SOL     OW35204   8.525  10.747   9.492
11122SOL    HW135205   8.476  10.712   9.418
11122SOL    HW235206   8.463  10.745   9.565
11123SOL     OW35207   0.117   5.759  11.234
11123SOL    HW135208   0.187   5.764  11.169
11123SOL    HW235209   0.099   5.850  11.258
11124SOL     OW35210   8.359   6.451   6.331
11124SOL    HW135211   8.353   6.458   6.426
11124SOL    HW235212   8.378   6.540   6.301
11125SOL     OW35213   8.554  11.448  10.048
11125SOL    HW135214   8.463  11.454  10.017
11125SOL    HW235215   8.579  11.357  10.030
11126SOL     OW35216   3.546   6.581   2.445
11126SOL    HW135217   3.618   6.644   2.450
11126SOL    HW235218   3.484   6.622   2.385
11127SOL     OW35219  12.281  14.293  14.775
11127SOL    HW135220  12.188  14.292  14.795
11127SOL    HW235221  12.290  14.355  14.703
11128SOL     OW35222   2.310   7.907   5.397
11128SOL    HW135223   2.233   7.851   5.393
11128SOL    HW235224   2.275   7.996   5.397
11129SOL     OW35225   9.131   0.168   1.875
11129SOL    HW135226   9.143   0.258   1.846
11129SOL    HW235227   9.057   0.136   1.824
11130SOL     OW35228   7.111   0.530  10.638
11130SOL    HW135229   7.116   0.519  10.733
11130SOL    HW235230   7.021   0.506  10.616
11131SOL     OW35231   1.176  11.565  14.535
11131SOL    HW135232   1.238  11.620  14.488
11131SOL    HW235233   1.230  11.515  14.596
11132SOL     OW35234   4.332  14.091   8.790
11132SOL    HW135235   4.295  14.068   8.705
11132SOL    HW235236   4.381  14.014   8.817
11133SOL     OW35237   3.028  14.591  11.074
11133SOL    HW135238   3.027  14.565  11.166
11133SOL    HW235239   3.002  14.683  11.074
11134SOL     OW35240   8.295   0.654   8.871
11134SOL    HW135241   8.325   0.565   8.855
11134SOL    HW235242   8.200   0.648   8.879
11135SOL     OW35243   9.586  14.014  11.236
11135SOL    HW135244   9.579  14.036  11.329
11135SOL    HW235245   9.648  13.941  11.234
11136SOL     OW35246   1.135  13.534  13.532
11136SOL    HW135247   1.086  13.456  13.505
11136SOL    HW235248   1.092  13.561  13.613
11137SOL     OW35249   1.037   9.841   5.482
11137SOL    HW135250   1.006   9.833   5.572
11137SOL    HW235251   1.067   9.932   5.474
11138SOL     OW35252   7.286  13.060  11.811
11138SOL    HW135253   7.198  13.026  11.796
11138SOL    HW235254   7.272  13.151  11.839
11139SOL     OW35255   8.845   5.699  14.825
11139SOL    HW135256   8.800   5.779  14.801
11139SOL    HW235257   8.913   5.727   0.007
11140SOL     OW35258   2.000   9.675  10.136
11140SOL    HW135259   1.979   9.582  10.137
11140SOL    HW235260   1.974   9.707  10.222
11141SOL     OW35261   9.813   5.781  13.631
11141SOL    HW135262   9.728   5.825  13.626
11141SOL    HW235263   9.794   5.694  13.666
11142SOL     OW35264   6.993   9.542  11.440
11142SOL    HW135265   6.917   9.550  11.383
11142SOL    HW235266   7.040   9.625  11.430
11143SOL     OW35267   1.418  14.316   2.847
11143SOL    HW135268   1.467  14.375   2.904
11143SOL    HW235269   1.484  14.254   2.814
11144SOL     OW35270   2.712   8.540   8.021
11144SOL    HW135271   2.634   8.563   8.072
11144SOL    HW235272   2.685   8.548   7.930
11145SOL     OW35273   1.527   9.753   3.816
11145SOL    HW135274   1.557   9.806   3.743
11145SOL    HW235275   1.604   9.743   3.872
11146SOL     OW35276  10.156  10.215   9.318
11146SOL    HW135277  10.089  10.170   9.369
11146SOL    HW235278  10.131  10.200   9.227
11147SOL     OW35279  11.470   0.415  12.931
11147SOL    HW135280  11.544   0.449  12.981
11147SOL    HW235281  11.491   0.436  12.840
11148SOL     OW35282  12.021   7.142  10.439
11148SOL    HW135283  12.079   7.071  10.413
11148SOL    HW235284  12.079   7.211  10.472
11149SOL     OW35285   0.381  10.830   3.487
11149SOL    HW135286   0.370  10.896   3.556
11149SOL    HW235287   0.418  10.878   3.413
11150SOL     OW35288   3.929   8.741  14.574
11150SOL    HW135289   3.868   8.734  14.647
11150SOL    HW235290   3.954   8.833  14.572
11151SOL     OW35291   1.029   8.039   6.751
11151SOL    HW135292   0.964   8.059   6.683
11151SOL    HW235293   1.022   7.944   6.763
11152SOL     OW35294   2.316   9.779  10.228
11152SOL    HW135295   2.253   9.708  10.217
11152SOL    HW235296   2.265   9.859  10.220
11153SOL     OW35297   8.561  14.685  14.012
11153SOL    HW135298   8.563  14.664  13.918
11153SOL    HW235299   8.645  14.728  14.029
11154SOL     OW35300   8.822   8.943   7.793
11154SOL    HW135301   8.735   8.971   7.767
11154SOL    HW235302   8.866   9.024   7.821
11155SOL     OW35303   8.780   9.435   6.563
11155SOL    HW135304   8.785   9.529   6.576
11155SOL    HW235305   8.839   9.399   6.629
11156SOL     OW35306   8.299   2.572   4.855
11156SOL    HW135307   8.370   2.535   4.803
11156SOL    HW235308   8.344   2.618   4.926
11157SOL     OW35309   6.247  14.130  14.814
11157SOL    HW135310   6.222  14.068  14.745
11157SOL    HW235311   6.296  14.077  14.878
11158SOL     OW35312  13.884   9.277  11.381
11158SOL    HW135313  13.860   9.226  11.458
11158SOL    HW235314  13.881   9.368  11.411
11159SOL     OW35315   0.250   0.076   2.321
11159SOL    HW135316   0.246   0.169   2.340
11159SOL    HW235317   0.175   0.038   2.367
11160SOL     OW35318   3.895   9.129  11.351
11160SOL    HW135319   3.949   9.142  11.274
11160SOL    HW235320   3.849   9.212  11.362
11161SOL     OW35321   6.714  11.023  11.527
11161SOL    HW135322   6.795  11.008  11.575
11161SOL    HW235323   6.743  11.050  11.440
11162SOL     OW35324   4.318   9.836   3.252
11162SOL    HW135325   4.332   9.928   3.229
11162SOL    HW235326   4.275   9.838   3.337
11163SOL     OW35327   8.968  13.211   2.285
11163SOL    HW135328   8.928  13.162   2.356
11163SOL    HW235329   8.899  13.270   2.255
11164SOL     OW35330   5.201  10.522   6.423
11164SOL    HW135331   5.190  10.584   6.495
11164SOL    HW235332   5.248  10.572   6.356
11165SOL     OW35333  10.470   0.094   6.894
11165SOL    HW135334  10.388   0.051   6.873
11165SOL    HW235335  10.532   0.023   6.907
11166SOL     OW35336   7.351   3.526   5.419
11166SOL    HW135337   7.336   3.558   5.507
11166SOL    HW235338   7.312   3.592   5.362
11167SOL     OW35339   8.713   7.160   4.886
11167SOL    HW135340   8.795   7.207   4.898
11167SOL    HW235341   8.645   7.222   4.914
11168SOL     OW35342   4.554   0.326   9.715
11168SOL    HW135343   4.543   0.281   9.798
11168SOL    HW235344   4.630   0.285   9.675
11169SOL     OW35345  14.778  12.882   0.469
11169SOL    HW135346  14.717  12.914   0.403
11169SOL    HW235347  14.796  12.791   0.444
11170SOL     OW35348  11.248   4.164  10.729
11170SOL    HW135349  11.294   4.081  10.727
11170SOL    HW235350  11.315   4.228  10.754
11171SOL     OW35351   9.979   4.834   2.186
11171SOL    HW135352  10.019   4.748   2.183
11171SOL    HW235353   9.936   4.839   2.271
11172SOL     OW35354   3.767   6.941   6.008
11172SOL    HW135355   3.680   6.939   6.049
11172SOL    HW235356   3.826   6.970   6.078
11173SOL     OW35357   8.359   1.307   2.381
11173SOL    HW135358   8.398   1.241   2.438
11173SOL    HW235359   8.288   1.345   2.433
11174SOL     OW35360   2.014   9.508   8.448
11174SOL    HW135361   2.027   9.556   8.529
11174SOL    HW235362   2.066   9.428   8.458
11175SOL     OW35363   6.238   8.132   2.150
11175SOL    HW135364   6.330   8.157   2.158
11175SOL    HW235365   6.220   8.137   2.056
11176SOL     OW35366   4.712   3.317   1.067
11176SOL    HW135367   4.617   3.306   1.074
11176SOL    HW235368   4.730   3.310   0.973
11177SOL     OW35369   2.976   2.103   7.670
11177SOL    HW135370   2.920   2.159   7.617
11177SOL    HW235371   2.935   2.102   7.756
11178SOL     OW35372   8.480   5.493  11.849
11178SOL    HW135373   8.555   5.551  11.866
11178SOL    HW235374   8.420   5.546  11.797
11179SOL     OW35375   2.603  10.351   4.688
11179SOL    HW135376   2.527  10.374   4.741
11179SOL    HW235377   2.622  10.260   4.713
11180SOL     OW35378   6.201  12.046   1.576
11180SOL    HW135379   6.199  12.113   1.507
11180SOL    HW235380   6.201  11.963   1.529
11181SOL     OW35381   5.633   6.014   3.224
11181SOL    HW135382   5.654   6.100   3.260
11181SOL    HW235383   5.693   6.005   3.149
11182SOL     OW35384   4.388   0.921   0.050
11182SOL    HW135385   4.425   0.888   0.132
11182SOL    HW235386   4.340   1.000   0.075
11183SOL     OW35387   9.324   8.910   6.093
11183SOL    HW135388   9.273   8.917   6.173
11183SOL    HW235389   9.341   8.816   6.084
11184SOL     OW35390  12.464  13.823  13.522
11184SOL    HW135391  12.483  13.792  13.610
11184SOL    HW235392  12.383  13.778  13.497
11185SOL     OW35393   7.542  13.343   4.262
11185SOL    HW135394   7.537  13.353   4.357
11185SOL    HW235395   7.574  13.254   4.249
11186SOL     OW35396   8.660   6.942  14.233
11186SOL    HW135397   8.695   6.900  14.154
11186SOL    HW235398   8.566   6.923  14.231
11187SOL     OW35399   4.126   7.439   8.316
11187SOL    HW135400   4.055   7.375   8.324
11187SOL    HW235401   4.175   7.431   8.397
11188SOL     OW35402   2.012  10.098   5.178
11188SOL    HW135403   2.033  10.129   5.266
11188SOL    HW235404   2.023  10.175   5.122
11189SOL     OW35405   3.882   7.886   0.770
11189SOL    HW135406   3.897   7.813   0.831
11189SOL    HW235407   3.909   7.853   0.685
11190SOL     OW35408   5.256   3.674   1.485
11190SOL    HW135409   5.189   3.674   1.416
11190SOL    HW235410   5.297   3.760   1.479
11191SOL     OW35411   7.452   8.769   2.608
11191SOL    HW135412   7.536   8.741   2.573
11191SOL    HW235413   7.388   8.714   2.563
11192SOL     OW35414   2.579   3.226   6.986
11192SOL    HW135415   2.665   3.229   7.028
11192SOL    HW235416   2.549   3.317   6.987
11193SOL     OW35417   5.863   2.900  11.916
11193SOL    HW135418   5.927   2.962  11.881
11193SOL    HW235419   5.905   2.862  11.993
11194SOL     OW35420  12.274   3.306  10.047
11194SOL    HW135421  12.257   3.273   9.959
11194SOL    HW235422  12.213   3.378  10.058
11195SOL     OW35423   9.072  12.921   9.563
11195SOL    HW135424   9.074  13.000   9.617
11195SOL    HW235425   9.057  12.953   9.474
11196SOL     OW35426   0.581  12.177  13.971
11196SOL    HW135427   0.563  12.127  14.050
11196SOL    HW235428   0.567  12.116  13.899
11197SOL     OW35429   4.574   3.467  11.755
11197SOL    HW135430   4.615   3.547  11.723
11197SOL    HW235431   4.515   3.495  11.824
11198SOL     OW35432   9.588   4.358   5.983
11198SOL    HW135433   9.524   4.378   5.914
11198SOL    HW235434   9.587   4.435   6.040
11199SOL     OW35435   3.944  14.422  14.502
11199SOL    HW135436   3.976  14.392  14.417
11199SOL    HW235437   3.987  14.507  14.515
11200SOL     OW35438   7.443  12.021   4.876
11200SOL    HW135439   7.522  12.002   4.926
11200SOL    HW235440   7.469  12.008   4.785
11201SOL     OW35441  14.312  11.666   0.504
11201SOL    HW135442  14.304  11.742   0.561
11201SOL    HW235443  14.355  11.699   0.426
11202SOL     OW35444   7.086  14.568   2.607
11202SOL    HW135445   7.161  14.618   2.640
11202SOL    HW235446   7.011  14.626   2.622
11203SOL     OW35447  11.139   6.523  11.978
11203SOL    HW135448  11.114   6.488  11.892
11203SOL    HW235449  11.232   6.500  11.988
11204SOL     OW35450   8.556   3.885   4.440
11204SOL    HW135451   8.552   3.924   4.527
11204SOL    HW235452   8.597   3.799   4.454
11205SOL     OW35453   8.846  11.324  11.165
11205SOL    HW135454   8.828  11.410  11.127
11205SOL    HW235455   8.766  11.274  11.153
11206SOL     OW35456   9.961  10.351   8.852
11206SOL    HW135457   9.866  10.344   8.848
11206SOL    HW235458   9.990  10.340   8.761
11207SOL     OW35459   5.364   9.062   9.337
11207SOL    HW135460   5.317   9.093   9.415
11207SOL    HW235461   5.296   9.050   9.271
11208SOL     OW35462   4.066   9.042  14.485
11208SOL    HW135463   4.014   9.100  14.430
11208SOL    HW235464   4.085   8.967  14.429
11209SOL     OW35465   1.734   4.756   7.866
11209SOL    HW135466   1.646   4.723   7.853
11209SOL    HW235467   1.743   4.825   7.800
11210SOL     OW35468  13.626   1.173  14.647
11210SOL    HW135469  13.696   1.112  14.670
11210SOL    HW235470  13.566   1.170  14.721
11211SOL     OW35471  14.869   9.510  11.239
11211SOL    HW135472   0.050   9.473  11.303
11211SOL    HW235473   0.039   9.512  11.157
11212SOL     OW35474   3.834   1.302   5.653
11212SOL    HW135475   3.766   1.369   5.650
11212SOL    HW235476   3.837   1.275   5.745
11213SOL     OW35477  14.650   3.461  10.882
11213SOL    HW135478  14.658   3.367  10.897
11213SOL    HW235479  14.589   3.491  10.949
11214SOL     OW35480  10.306  14.385   4.834
11214SOL    HW135481  10.303  14.332   4.913
11214SOL    HW235482  10.279  14.473   4.862
11215SOL     OW35483   7.579   1.310  10.853
11215SOL    HW135484   7.555   1.249  10.783
11215SOL    HW235485   7.583   1.256  10.932
11216SOL     OW35486   5.214  11.218   8.541
11216SOL    HW135487   5.285  11.202   8.602
11216SOL    HW235488   5.205  11.135   8.493
11217SOL     OW35489   0.080   7.193   6.661
11217SOL    HW135490   0.137   7.180   6.585
11217SOL    HW235491   0.007   7.245   6.628
11218SOL     OW35492   1.357   8.248   7.818
11218SOL    HW135493   1.347   8.226   7.910
11218SOL    HW235494   1.419   8.184   7.784
11219SOL     OW35495   2.815   3.698   3.616
11219SOL    HW135496   2.847   3.627   3.559
11219SOL    HW235497   2.720   3.696   3.606
11220SOL     OW35498   6.093  13.177   8.513
11220SOL    HW135499   6.096  13.165   8.418
11220SOL    HW235500   6.147  13.254   8.530
11221SOL     OW35501   4.855   2.243  11.676
11221SOL    HW135502   4.899   2.263  11.593
11221SOL    HW235503   4.762   2.256  11.657
11222SOL     OW35504  13.900   6.426  13.697
11222SOL    HW135505  13.837   6.367  13.738
11222SOL    HW235506  13.960   6.367  13.650
11223SOL     OW35507   6.752   9.739   6.936
11223SOL    HW135508   6.784   9.660   6.979
11223SOL    HW235509   6.781   9.811   6.992
11224SOL     OW35510   9.278  10.818  12.739
11224SOL    HW135511   9.195  10.781  12.766
11224SOL    HW235512   9.306  10.764  12.665
11225SOL     OW35513  14.601   6.777   8.462
11225SOL    HW135514  14.548   6.705   8.426
11225SOL    HW235515  14.547   6.855   8.450
11226SOL     OW35516   3.331   1.636   0.645
11226SOL    HW135517   3.295   1.722   0.665
11226SOL    HW235518   3.323   1.627   0.550
11227SOL     OW35519  11.173   5.307   9.996
11227SOL    HW135520  11.095   5.333   9.948
11227SOL    HW235521  11.196   5.221   9.960
11228SOL     OW35522  14.563  12.653   8.097
11228SOL    HW135523  14.492  12.595   8.124
11228SOL    HW235524  14.614  12.602   8.034
11229SOL     OW35525  13.224   7.072  14.660
11229SOL    HW135526  13.196   7.140  14.721
11229SOL    HW235527  13.182   7.094  14.577
11230SOL     OW35528  11.702   0.812  11.403
11230SOL    HW135529  11.636   0.786  11.468
11230SOL    HW235530  11.663   0.787  11.319
11231SOL     OW35531   7.957   8.853   6.484
11231SOL    HW135532   7.905   8.836   6.405
11231SOL    HW235533   7.892   8.871   6.552
11232SOL     OW35534  12.792  13.560  14.056
11232SOL    HW135535  12.741  13.620  14.108
11232SOL    HW235536  12.878  13.601  14.048
11233SOL     OW35537   6.900   3.292   0.453
11233SOL    HW135538   6.930   3.376   0.417
11233SOL    HW235539   6.873   3.242   0.376
11234SOL     OW35540   7.199   0.243   4.493
11234SOL    HW135541   7.238   0.159   4.470
11234SOL    HW235542   7.272   0.293   4.530
11235SOL     OW35543   5.301   6.794  10.701
11235SOL    HW135544   5.239   6.773  10.632
11235SOL    HW235545   5.307   6.715  10.753
11236SOL     OW35546   7.257   2.466  10.500
11236SOL    HW135547   7.189   2.533  10.509
11236SOL    HW235548   7.318   2.503  10.436
11237SOL     OW35549   8.504   1.023  12.760
11237SOL    HW135550   8.560   0.945  12.753
11237SOL    HW235551   8.560   1.088  12.803
11238SOL     OW35552  13.532   0.818  13.676
11238SOL    HW135553  13.480   0.738  13.683
11238SOL    HW235554  13.623   0.788  13.678
11239SOL     OW35555  13.570   6.818   6.333
11239SOL    HW135556  13.547   6.734   6.293
11239SOL    HW235557  13.533   6.883   6.274
11240SOL     OW35558  14.495   1.375   1.721
11240SOL    HW135559  14.545   1.308   1.768
11240SOL    HW235560  14.437   1.325   1.663
11241SOL     OW35561   4.548   7.502  14.332
11241SOL    HW135562   4.610   7.490  14.260
11241SOL    HW235563   4.550   7.597  14.349
11242SOL     OW35564   2.932   8.330   2.258
11242SOL    HW135565   3.000   8.274   2.295
11242SOL    HW235566   2.953   8.334   2.164
11243SOL     OW35567  10.861  14.165  12.082
11243SOL    HW135568  10.888  14.256  12.095
11243SOL    HW235569  10.943  14.116  12.081
11244SOL     OW35570   1.034   7.057   5.500
11244SOL    HW135571   0.985   6.986   5.460
11244SOL    HW235572   0.969   7.125   5.515
11245SOL     OW35573  10.339   3.033   0.070
11245SOL    HW135574  10.336   3.057  14.857
11245SOL    HW235575  10.375   3.110   0.113
11246SOL     OW35576   2.048  13.481   7.565
11246SOL    HW135577   2.009  13.514   7.484
11246SOL    HW235578   2.013  13.537   7.634
11247SOL     OW35579   7.577   5.539  12.248
11247SOL    HW135580   7.575   5.601  12.321
11247SOL    HW235581   7.546   5.589  12.173
11248SOL     OW35582  10.460   1.646   1.454
11248SOL    HW135583  10.391   1.581   1.447
11248SOL    HW235584  10.417   1.723   1.491
11249SOL     OW35585   1.729   3.648   5.727
11249SOL    HW135586   1.817   3.611   5.717
11249SOL    HW235587   1.703   3.670   5.637
11250SOL     OW35588  13.575   9.715   3.004
11250SOL    HW135589  13.595   9.638   2.951
11250SOL    HW235590  13.484   9.703   3.031
11251SOL     OW35591   1.077   2.851   7.676
11251SOL    HW135592   1.141   2.831   7.607
11251SOL    HW235593   0.995   2.864   7.630
11252SOL     OW35594  12.115   3.838  11.715
11252SOL    HW135595  12.030   3.866  11.681
11252SOL    HW235596  12.098   3.810  11.805
11253SOL     OW35597   3.208   5.480  11.085
11253SOL    HW135598   3.268   5.549  11.058
11253SOL    HW235599   3.128   5.526  11.109
11254SOL     OW35600   9.766   9.001   2.585
11254SOL    HW135601   9.855   9.012   2.617
11254SOL    HW235602   9.770   8.928   2.524
11255SOL     OW35603  14.702   9.972  12.982
11255SOL    HW135604  14.760  10.038  12.942
11255SOL    HW235605  14.617   9.988  12.941
11256SOL     OW35606   2.541   4.430  10.131
11256SOL    HW135607   2.556   4.403  10.041
11256SOL    HW235608   2.470   4.374  10.161
11257SOL     OW35609   3.992   4.547  11.318
11257SOL    HW135610   3.979   4.504  11.234
11257SOL    HW235611   4.034   4.481  11.373
11258SOL     OW35612   9.562  12.273  11.104
11258SOL    HW135613   9.585  12.210  11.037
11258SOL    HW235614   9.625  12.345  11.092
11259SOL     OW35615  10.969  10.981   1.671
11259SOL    HW135616  11.025  10.989   1.594
11259SOL    HW235617  10.909  11.055   1.665
11260SOL     OW35618   6.964   9.509   8.685
11260SOL    HW135619   6.968   9.532   8.592
11260SOL    HW235620   6.875   9.533   8.712
11261SOL     OW35621   8.578   6.143  12.376
11261SOL    HW135622   8.529   6.161  12.456
11261SOL    HW235623   8.518   6.095  12.320
11262SOL     OW35624   3.901   1.688   9.119
11262SOL    HW135625   3.812   1.670   9.085
11262SOL    HW235626   3.893   1.773   9.163
11263SOL     OW35627  10.336   7.307  13.888
11263SOL    HW135628  10.261   7.346  13.841
11263SOL    HW235629  10.308   7.306  13.979
11264SOL     OW35630   8.615   1.951   5.631
11264SOL    HW135631   8.611   1.859   5.655
11264SOL    HW235632   8.694   1.959   5.578
11265SOL     OW35633   2.388  10.947  12.856
11265SOL    HW135634   2.341  10.961  12.774
11265SOL    HW235635   2.365  11.022  12.911
11266SOL     OW35636   7.849  12.416  12.672
11266SOL    HW135637   7.796  12.464  12.736
11266SOL    HW235638   7.939  12.434  12.697
11267SOL     OW35639   2.447   0.191  11.319
11267SOL    HW135640   2.390   0.147  11.383
11267SOL    HW235641   2.463   0.124  11.252
11268SOL     OW35642   7.970   3.916   6.502
11268SOL    HW135643   7.961   3.966   6.421
11268SOL    HW235644   8.059   3.880   6.498
11269SOL     OW35645   0.605   4.365   2.916
11269SOL    HW135646   0.527   4.356   2.861
11269SOL    HW235647   0.677   4.335   2.861
11270SOL     OW35648   9.637   6.082  10.657
11270SOL    HW135649   9.637   6.121  10.745
11270SOL    HW235650   9.690   6.002  10.667
11271SOL     OW35651   6.813   9.105   6.234
11271SOL    HW135652   6.887   9.143   6.282
11271SOL    HW235653   6.832   9.126   6.142
11272SOL     OW35654   6.849   1.284   7.482
11272SOL    HW135655   6.826   1.271   7.390
11272SOL    HW235656   6.769   1.268   7.531
11273SOL     OW35657   4.431   4.815   6.902
11273SOL    HW135658   4.468   4.870   6.971
11273SOL    HW235659   4.427   4.872   6.826
11274SOL     OW35660   3.012   5.761   6.166
11274SOL    HW135661   3.040   5.779   6.256
11274SOL    HW235662   2.917   5.754   6.172
11275SOL     OW35663  11.840   1.718  12.221
11275SOL    HW135664  11.873   1.677  12.301
11275SOL    HW235665  11.751   1.745  12.244
11276SOL     OW35666   9.618   1.029  11.097
11276SOL    HW135667   9.707   1.009  11.126
11276SOL    HW235668   9.563   1.001  11.170
11277SOL     OW35669   0.164   7.765   3.255
11277SOL    HW135670   0.168   7.721   3.340
11277SOL    HW235671   0.219   7.842   3.264
11278SOL     OW35672   9.963  10.677   1.380
11278SOL    HW135673   9.959  10.616   1.307
11278SOL    HW235674   9.972  10.622   1.457
11279SOL     OW35675   9.942   7.935   9.092
11279SOL    HW135676   9.914   8.011   9.041
11279SOL    HW235677   9.862   7.886   9.109
11280SOL     OW35678   2.962  11.300   9.456
11280SOL    HW135679   2.918  11.230   9.504
11280SOL    HW235680   2.906  11.316   9.380
11281SOL     OW35681   6.355   1.679   0.815
11281SOL    HW135682   6.295   1.648   0.747
11281SOL    HW235683   6.438   1.634   0.795
11282SOL     OW35684  11.850   9.920  10.112
11282SOL    HW135685  11.794   9.843  10.126
11282SOL    HW235686  11.789   9.989  10.087
11283SOL     OW35687   0.823  12.340   2.521
11283SOL    HW135688   0.864  12.336   2.607
11283SOL    HW235689   0.891  12.374   2.463
11284SOL     OW35690   2.965   3.720   4.955
11284SOL    HW135691   2.998   3.712   5.045
11284SOL    HW235692   2.920   3.804   4.953
11285SOL     OW35693   5.085  14.586   2.743
11285SOL    HW135694   5.005  14.539   2.718
11285SOL    HW235695   5.126  14.609   2.660
11286SOL     OW35696   7.809   0.469   6.624
11286SOL    HW135697   7.783   0.379   6.606
11286SOL    HW235698   7.728   0.513   6.651
11287SOL     OW35699   0.159   2.794  14.104
11287SOL    HW135700   0.133   2.849  14.030
11287SOL    HW235701   0.084   2.737  14.120
11288SOL     OW35702  14.571   4.278  14.189
11288SOL    HW135703  14.528   4.256  14.106
11288SOL    HW235704  14.660   4.303  14.163
11289SOL     OW35705   1.984  12.636  10.780
11289SOL    HW135706   2.013  12.625  10.870
11289SOL    HW235707   1.930  12.716  10.782
11290SOL     OW35708   3.503   5.642   6.827
11290SOL    HW135709   3.477   5.727   6.790
11290SOL    HW235710   3.436   5.623   6.893
11291SOL     OW35711   2.150   1.572   4.538
11291SOL    HW135712   2.152   1.477   4.543
11291SOL    HW235713   2.159   1.602   4.629
11292SOL     OW35714   7.677  12.093   6.467
11292SOL    HW135715   7.647  12.038   6.539
11292SOL    HW235716   7.620  12.069   6.394
11293SOL     OW35717   9.129  13.036   5.860
11293SOL    HW135718   9.098  12.948   5.880
11293SOL    HW235719   9.100  13.089   5.934
11294SOL     OW35720   9.780  12.098  13.548
11294SOL    HW135721   9.776  12.108  13.453
11294SOL    HW235722   9.825  12.016  13.562
11295SOL     OW35723   4.607  12.897   7.810
11295SOL    HW135724   4.621  12.831   7.878
11295SOL    HW235725   4.514  12.918   7.817
11296SOL     OW35726   6.486   7.752  14.169
11296SOL    HW135727   6.407   7.779  14.216
11296SOL    HW235728   6.556   7.802  14.210
11297SOL     OW35729  11.007   5.267   8.030
11297SOL    HW135730  11.057   5.349   8.030
11297SOL    HW235731  10.954   5.271   8.110
11298SOL     OW35732   9.648  12.373   6.286
11298SOL    HW135733   9.577  12.432   6.262
11298SOL    HW235734   9.698  12.421   6.353
11299SOL     OW35735   6.242  13.694   4.276
11299SOL    HW135736   6.270  13.774   4.321
11299SOL    HW235737   6.239  13.718   4.184
11300SOL     OW35738  11.187  11.113   7.586
11300SOL    HW135739  11.206  11.181   7.651
11300SOL    HW235740  11.132  11.157   7.520
11301SOL     OW35741   0.129   1.594  12.849
11301SOL    HW135742   0.104   1.506  12.821
11301SOL    HW235743   0.223   1.589  12.863
11302SOL     OW35744  13.814   8.337   4.087
11302SOL    HW135745  13.845   8.332   3.997
11302SOL    HW235746  13.721   8.314   4.081
11303SOL     OW35747   0.030   7.199   3.386
11303SOL    HW135748  14.867   7.284   3.375
11303SOL    HW235749   0.069   7.179   3.301
11304SOL     OW35750   7.229   7.240   6.892
11304SOL    HW135751   7.258   7.240   6.984
11304SOL    HW235752   7.255   7.154   6.859
11305SOL     OW35753   8.415   9.618   7.418
11305SOL    HW135754   8.427   9.643   7.509
11305SOL    HW235755   8.438   9.525   7.415
11306SOL     OW35756   5.842  13.873   1.785
11306SOL    HW135757   5.905  13.801   1.792
11306SOL    HW235758   5.860  13.913   1.700
11307SOL     OW35759   9.415   6.825   9.986
11307SOL    HW135760   9.421   6.884   9.911
11307SOL    HW235761   9.395   6.881  10.061
11308SOL     OW35762   9.271   9.482   6.686
11308SOL    HW135763   9.216   9.546   6.731
11308SOL    HW235764   9.210   9.432   6.632
11309SOL     OW35765  10.686   2.871   2.820
11309SOL    HW135766  10.767   2.902   2.859
11309SOL    HW235767  10.644   2.821   2.890
11310SOL     OW35768  10.192   8.027  11.725
11310SOL    HW135769  10.178   8.121  11.740
11310SOL    HW235770  10.257   8.024  11.654
11311SOL     OW35771  12.455  12.578  14.110
11311SOL    HW135772  12.385  12.523  14.075
11311SOL    HW235773  12.451  12.565  14.205
11312SOL     OW35774  12.383   7.463  12.121
11312SOL    HW135775  12.310   7.516  12.089
11312SOL    HW235776  12.430   7.438  12.041
11313SOL     OW35777  10.061   1.633  10.653
11313SOL    HW135778  10.105   1.657  10.571
11313SOL    HW235779   9.974   1.603  10.625
11314SOL     OW35780   7.693   8.376   2.797
11314SOL    HW135781   7.637   8.299   2.790
11314SOL    HW235782   7.781   8.345   2.778
11315SOL     OW35783   7.794   2.236   1.459
11315SOL    HW135784   7.849   2.243   1.380
11315SOL    HW235785   7.791   2.142   1.477
11316SOL     OW35786   8.275   5.083   8.346
11316SOL    HW135787   8.198   5.132   8.374
11316SOL    HW235788   8.347   5.147   8.349
11317SOL     OW35789   7.087   3.331  11.707
11317SOL    HW135790   7.065   3.408  11.654
11317SOL    HW235791   7.139   3.366  11.779
11318SOL     OW35792   4.733   6.058   5.977
11318SOL    HW135793   4.727   6.004   5.898
11318SOL    HW235794   4.796   6.127   5.954
11319SOL     OW35795  12.173   8.165   5.904
11319SOL    HW135796  12.251   8.115   5.878
11319SOL    HW235797  12.148   8.127   5.988
11320SOL     OW35798   4.295   1.994   9.559
11320SOL    HW135799   4.277   2.043   9.479
11320SOL    HW235800   4.235   1.919   9.555
11321SOL     OW35801  14.040   4.990  13.674
11321SOL    HW135802  14.076   4.904  13.695
11321SOL    HW235803  14.029   5.034  13.758
11322SOL     OW35804  12.760  14.253   6.485
11322SOL    HW135805  12.726  14.192   6.550
11322SOL    HW235806  12.806  14.198   6.422
11323SOL     OW35807  14.332   4.620  12.217
11323SOL    HW135808  14.245   4.629  12.256
11323SOL    HW235809  14.317   4.618  12.123
11324SOL     OW35810   3.263   7.803  14.095
11324SOL    HW135811   3.349   7.764  14.110
11324SOL    HW235812   3.249   7.861  14.169
11325SOL     OW35813   4.833  10.212   3.314
11325SOL    HW135814   4.765  10.165   3.362
11325SOL    HW235815   4.862  10.281   3.373
11326SOL     OW35816   9.231   2.828   2.177
11326SOL    HW135817   9.144   2.849   2.212
11326SOL    HW235818   9.215   2.805   2.086
11327SOL     OW35819   7.051   2.876   6.382
11327SOL    HW135820   7.014   2.791   6.359
11327SOL    HW235821   7.143   2.870   6.356
11328SOL     OW35822   6.773   6.231   9.148
11328SOL    HW135823   6.737   6.161   9.201
11328SOL    HW235824   6.806   6.295   9.211
11329SOL     OW35825  11.976  13.950  14.497
11329SOL    HW135826  12.000  13.974  14.407
11329SOL    HW235827  11.995  13.857  14.503
11330SOL     OW35828  10.891   3.088   8.010
11330SOL    HW135829  10.862   3.105   8.100
11330SOL    HW235830  10.859   3.164   7.960
11331SOL     OW35831   3.896   4.041   5.227
11331SOL    HW135832   3.807   4.007   5.211
11331SOL    HW235833   3.900   4.122   5.178
11332SOL     OW35834   3.633   1.624  10.483
11332SOL    HW135835   3.585   1.628  10.566
11332SOL    HW235836   3.662   1.533  10.477
11333SOL     OW35837   2.764  11.508  12.577
11333SOL    HW135838   2.797  11.489  12.664
11333SOL    HW235839   2.833  11.559  12.535
11334SOL     OW35840   4.392  14.609   1.752
11334SOL    HW135841   4.456  14.560   1.702
11334SOL    HW235842   4.415  14.592   1.844
11335SOL     OW35843   6.092   5.687   5.545
11335SOL    HW135844   6.162   5.669   5.608
11335SOL    HW235845   6.015   5.704   5.599
11336SOL     OW35846   8.150   8.488   0.517
11336SOL    HW135847   8.081   8.440   0.471
11336SOL    HW235848   8.232   8.447   0.489
11337SOL     OW35849  14.577   3.684  14.702
11337SOL    HW135850  14.604   3.599  14.738
11337SOL    HW235851  14.609   3.748  14.766
11338SOL     OW35852  10.900   2.816  13.093
11338SOL    HW135853  10.817   2.771  13.109
11338SOL    HW235854  10.903   2.884  13.159
11339SOL     OW35855   0.328   5.638   9.120
11339SOL    HW135856   0.262   5.571   9.137
11339SOL    HW235857   0.278   5.718   9.104
11340SOL     OW35858   9.011  13.940   9.983
11340SOL    HW135859   9.016  13.895  10.067
11340SOL    HW235860   8.947  13.888   9.933
11341SOL     OW35861   9.000   8.697   6.089
11341SOL    HW135862   8.972   8.772   6.141
11341SOL    HW235863   9.036   8.636   6.153
11342SOL     OW35864   9.549  12.244  12.633
11342SOL    HW135865   9.456  12.229  12.649
11342SOL    HW235866   9.592  12.164  12.664
11343SOL     OW35867   2.264   5.108   8.157
11343SOL    HW135868   2.320   5.132   8.231
11343SOL    HW235869   2.188   5.166   8.165
11344SOL     OW35870   5.111   1.987   7.321
11344SOL    HW135871   5.095   1.930   7.246
11344SOL    HW235872   5.181   1.944   7.370
11345SOL     OW35873   5.165   7.456  11.971
11345SOL    HW135874   5.162   7.464  12.067
11345SOL    HW235875   5.249   7.413  11.953
11346SOL     OW35876  11.321   2.819   9.259
11346SOL    HW135877  11.327   2.727   9.235
11346SOL    HW235878  11.338   2.866   9.177
11347SOL     OW35879   5.031  12.691   2.744
11347SOL    HW135880   5.037  12.775   2.790
11347SOL    HW235881   4.984  12.711   2.663
11348SOL     OW35882   5.216  14.655  11.279
11348SOL    HW135883   5.203  14.704  11.198
11348SOL    HW235884   5.277  14.708  11.330
11349SOL     OW35885   4.930   3.728  14.490
11349SOL    HW135886   4.950   3.785  14.564
11349SOL    HW235887   4.994   3.657  14.496
11350SOL     OW35888   1.950   4.664   8.663
11350SOL    HW135889   1.929   4.695   8.751
11350SOL    HW235890   2.015   4.727   8.631
11351SOL     OW35891  12.911   1.552   1.092
11351SOL    HW135892  12.974   1.480   1.085
11351SOL    HW235893  12.957   1.619   1.142
11352SOL     OW35894  11.076   2.709   9.010
11352SOL    HW135895  11.048   2.797   9.033
11352SOL    HW235896  11.132   2.682   9.083
11353SOL     OW35897   9.275   7.062   2.907
11353SOL    HW135898   9.260   7.042   2.814
11353SOL    HW235899   9.254   6.980   2.952
11354SOL     OW35900   3.753   9.206   7.179
11354SOL    HW135901   3.728   9.292   7.144
11354SOL    HW235902   3.847   9.213   7.195
11355SOL     OW35903  11.695   4.030  13.506
11355SOL    HW135904  11.676   3.940  13.533
11355SOL    HW235905  11.638   4.084  13.562
11356SOL     OW35906  14.415  12.134   2.860
11356SOL    HW135907  14.376  12.199   2.918
11356SOL    HW235908  14.420  12.055   2.913
11357SOL     OW35909  10.938   7.223   2.439
11357SOL    HW135910  10.867   7.184   2.490
11357SOL    HW235911  10.986   7.148   2.405
11358SOL     OW35912   3.175   0.365   4.200
11358SOL    HW135913   3.100   0.408   4.157
11358SOL    HW235914   3.223   0.437   4.241
11359SOL     OW35915  11.465   1.264   6.312
11359SOL    HW135916  11.492   1.330   6.249
11359SOL    HW235917  11.490   1.300   6.397
11360SOL     OW35918  11.915   5.781   4.352
11360SOL    HW135919  11.888   5.719   4.420
11360SOL    HW235920  11.985   5.831   4.393
11361SOL     OW35921  10.761   9.948   0.357
11361SOL    HW135922  10.738   9.953   0.450
11361SOL    HW235923  10.759  10.039   0.328
11362SOL     OW35924   5.337   6.295  14.264
11362SOL    HW135925   5.388   6.214  14.263
11362SOL    HW235926   5.321   6.315  14.172
11363SOL     OW35927   0.976   3.866   1.323
11363SOL    HW135928   0.953   3.830   1.237
11363SOL    HW235929   0.976   3.960   1.309
11364SOL     OW35930   7.559   2.688   6.574
11364SOL    HW135931   7.575   2.686   6.480
11364SOL    HW235932   7.593   2.604   6.606
11365SOL     OW35933   8.617  12.408  14.474
11365SOL    HW135934   8.663  12.470  14.531
11365SOL    HW235935   8.665  12.326  14.485
11366SOL     OW35936  10.909   9.055   1.947
11366SOL    HW135937  10.939   9.118   2.013
11366SOL    HW235938  10.861   9.108   1.883
11367SOL     OW35939  11.335  12.487  13.506
11367SOL    HW135940  11.286  12.529  13.435
11367SOL    HW235941  11.408  12.444  13.462
11368SOL     OW35942   3.628   6.477  12.620
11368SOL    HW135943   3.663   6.562  12.644
11368SOL    HW235944   3.604   6.485  12.527
11369SOL     OW35945  13.255   4.640   3.174
11369SOL    HW135946  13.347   4.668   3.170
11369SOL    HW235947  13.208   4.719   3.202
11370SOL     OW35948   6.711   8.543   0.111
11370SOL    HW135949   6.775   8.516   0.178
11370SOL    HW235950   6.677   8.627   0.142
11371SOL     OW35951  11.125  11.595   7.542
11371SOL    HW135952  11.053  11.554   7.591
11371SOL    HW235953  11.167  11.654   7.604
11372SOL     OW35954  10.625   7.639  10.478
11372SOL    HW135955  10.612   7.605  10.390
11372SOL    HW235956  10.625   7.561  10.534
11373SOL     OW35957   2.488   3.560  11.435
11373SOL    HW135958   2.508   3.478  11.389
11373SOL    HW235959   2.534   3.552  11.518
11374SOL     OW35960  14.212  12.448   1.299
11374SOL    HW135961  14.227  12.439   1.393
11374SOL    HW235962  14.164  12.530   1.290
11375SOL     OW35963   2.528   9.937   9.329
11375SOL    HW135964   2.476   9.974   9.257
11375SOL    HW235965   2.601   9.894   9.286
11376SOL     OW35966  14.290   3.635   3.351
11376SOL    HW135967  14.245   3.639   3.266
11376SOL    HW235968  14.220   3.632   3.416
11377SOL     OW35969   8.356   7.827   8.822
11377SOL    HW135970   8.300   7.754   8.847
11377SOL    HW235971   8.297   7.902   8.814
11378SOL     OW35972   5.173   6.992   6.424
11378SOL    HW135973   5.259   6.952   6.412
11378SOL    HW235974   5.189   7.068   6.479
11379SOL     OW35975  12.263   3.845  11.283
11379SOL    HW135976  12.193   3.894  11.325
11379SOL    HW235977  12.308   3.800  11.355
11380SOL     OW35978   2.209  12.079   9.360
11380SOL    HW135979   2.129  12.027   9.363
11380SOL    HW235980   2.264  12.043   9.430
11381SOL     OW35981  10.869   8.518  12.061
11381SOL    HW135982  10.781   8.487  12.083
11381SOL    HW235983  10.883   8.488  11.972
11382SOL     OW35984   6.757   3.535  13.415
11382SOL    HW135985   6.795   3.562  13.498
11382SOL    HW235986   6.813   3.463  13.385
11383SOL     OW35987   4.436   9.010   4.201
11383SOL    HW135988   4.461   9.102   4.193
11383SOL    HW235989   4.353   9.013   4.249
11384SOL     OW35990   1.333   0.587   7.849
11384SOL    HW135991   1.298   0.533   7.920
11384SOL    HW235992   1.405   0.535   7.813
11385SOL     OW35993   2.167   6.279   3.001
11385SOL    HW135994   2.203   6.305   3.086
11385SOL    HW235995   2.106   6.349   2.979
11386SOL     OW35996   1.506   8.979  10.351
11386SOL    HW135997   1.461   8.917  10.294
11386SOL    HW235998   1.512   8.935  10.436
11387SOL     OW35999  13.354   1.048   4.295
11387SOL    HW136000  13.407   1.124   4.272
11387SOL    HW236001  13.405   0.973   4.265
11388SOL     OW36002   2.372   9.054   4.948
11388SOL    HW136003   2.298   9.114   4.936
11388SOL    HW236004   2.358   9.014   5.033
11389SOL     OW36005   3.730   5.047  12.352
11389SOL    HW136006   3.664   5.010  12.294
11389SOL    HW236007   3.748   5.134  12.316
11390SOL     OW36008   3.191   0.991   1.643
11390SOL    HW136009   3.259   0.945   1.593
11390SOL    HW236010   3.172   0.933   1.717
11391SOL     OW36011   7.556   6.088   5.009
11391SOL    HW136012   7.574   6.148   5.081
11391SOL    HW236013   7.511   6.142   4.944
11392SOL     OW36014   2.679   8.736  10.692
11392SOL    HW136015   2.653   8.665  10.751
11392SOL    HW236016   2.750   8.699  10.640
11393SOL     OW36017   9.553   8.116   5.407
11393SOL    HW136018   9.476   8.157   5.369
11393SOL    HW236019   9.532   8.108   5.500
11394SOL     OW36020  13.672   9.793   4.249
11394SOL    HW136021  13.643   9.884   4.243
11394SOL    HW236022  13.597   9.742   4.222
11395SOL     OW36023  12.358  11.832   1.227
11395SOL    HW136024  12.317  11.870   1.305
11395SOL    HW236025  12.438  11.882   1.215
11396SOL     OW36026   4.194   2.265  13.181
11396SOL    HW136027   4.166   2.248  13.271
11396SOL    HW236028   4.113   2.267  13.131
11397SOL     OW36029   0.606   0.306   2.133
11397SOL    HW136030   0.670   0.377   2.136
11397SOL    HW236031   0.622   0.256   2.213
11398SOL     OW36032   1.145   1.469   4.628
11398SOL    HW136033   1.074   1.408   4.650
11398SOL    HW236034   1.103   1.555   4.627
11399SOL     OW36035   4.202   5.408   8.412
11399SOL    HW136036   4.243   5.493   8.395
11399SOL    HW236037   4.188   5.406   8.507
11400SOL     OW36038   4.555   7.763  14.414
11400SOL    HW136039   4.505   7.731  14.490
11400SOL    HW236040   4.625   7.815  14.452
11401SOL     OW36041   3.553   8.082   4.592
11401SOL    HW136042   3.487   8.131   4.641
11401SOL    HW236043   3.594   8.025   4.656
11402SOL     OW36044  10.109   0.636  12.941
11402SOL    HW136045  10.062   0.560  12.907
11402SOL    HW236046  10.186   0.644  12.885
11403SOL     OW36047   3.618  10.006   0.120
11403SOL    HW136048   3.710   9.986   0.135
11403SOL    HW236049   3.585  10.034   0.206
11404SOL     OW36050  10.295  12.847   3.722
11404SOL    HW136051  10.277  12.771   3.778
11404SOL    HW236052  10.242  12.832   3.644
11405SOL     OW36053   3.653   8.999   5.309
11405SOL    HW136054   3.570   9.035   5.277
11405SOL    HW236055   3.658   9.025   5.401
11406SOL     OW36056   8.784   9.215   5.859
11406SOL    HW136057   8.759   9.297   5.901
11406SOL    HW236058   8.712   9.197   5.797
11407SOL     OW36059   6.515  12.846   2.289
11407SOL    HW136060   6.500  12.752   2.300
11407SOL    HW236061   6.521  12.880   2.378
11408SOL     OW36062   8.784   3.758   7.496
11408SOL    HW136063   8.727   3.686   7.472
11408SOL    HW236064   8.871   3.731   7.467
11409SOL     OW36065   0.219  14.130  13.781
11409SOL    HW136066   0.215  14.224  13.769
11409SOL    HW236067   0.312  14.107  13.773
11410SOL     OW36068  13.407   8.592   8.609
11410SOL    HW136069  13.363   8.578   8.526
11410SOL    HW236070  13.495   8.623   8.586
11411SOL     OW36071  10.207   5.679   8.807
11411SOL    HW136072  10.288   5.718   8.776
11411SOL    HW236073  10.219   5.672   8.902
11412SOL     OW36074   4.199  13.091   5.844
11412SOL    HW136075   4.233  13.039   5.771
11412SOL    HW236076   4.257  13.070   5.918
11413SOL     OW36077  11.163   4.144   8.893
11413SOL    HW136078  11.246   4.111   8.858
11413SOL    HW236079  11.138   4.079   8.959
11414SOL     OW36080   4.338   7.653   1.904
11414SOL    HW136081   4.351   7.747   1.919
11414SOL    HW236082   4.283   7.625   1.978
11415SOL     OW36083   9.216   2.447   4.390
11415SOL    HW136084   9.194   2.533   4.427
11415SOL    HW236085   9.139   2.423   4.339
11416SOL     OW36086   1.440   4.225   4.608
11416SOL    HW136087   1.483   4.262   4.686
11416SOL    HW236088   1.512   4.185   4.558
11417SOL     OW36089   1.255   4.062   6.561
11417SOL    HW136090   1.172   4.091   6.522
11417SOL    HW236091   1.248   3.967   6.566
11418SOL     OW36092   9.170   2.275  13.124
11418SOL    HW136093   9.236   2.230  13.176
11418SOL    HW236094   9.099   2.293  13.185
11419SOL     OW36095   7.288   6.563   3.666
11419SOL    HW136096   7.229   6.576   3.592
11419SOL    HW236097   7.236   6.587   3.743
11420SOL     OW36098  13.336   2.724   9.369
11420SOL    HW136099  13.318   2.669   9.445
11420SOL    HW236100  13.431   2.718   9.358
11421SOL     OW36101   0.418   1.659   9.114
11421SOL    HW136102   0.391   1.591   9.052
11421SOL    HW236103   0.428   1.738   9.061
11422SOL     OW36104   8.669   4.631   2.053
11422SOL    HW136105   8.658   4.538   2.075
11422SOL    HW236106   8.658   4.634   1.958
11423SOL     OW36107  14.633   2.070   8.685
11423SOL    HW136108  14.700   2.017   8.641
11423SOL    HW236109  14.661   2.072   8.776
11424SOL     OW36110   2.532   8.620   2.952
11424SOL    HW136111   2.472   8.555   2.914
11424SOL    HW236112   2.618   8.577   2.948
11425SOL     OW36113   7.624   7.022   3.668
11425SOL    HW136114   7.714   7.025   3.702
11425SOL    HW236115   7.576   6.971   3.733
11426SOL     OW36116  10.136   1.857   3.040
11426SOL    HW136117  10.116   1.901   2.958
11426SOL    HW236118  10.152   1.928   3.103
11427SOL     OW36119  13.329  10.381  13.687
11427SOL    HW136120  13.260  10.338  13.636
11427SOL    HW236121  13.395  10.312  13.699
11428SOL     OW36122  13.092   9.228   0.539
11428SOL    HW136123  13.037   9.199   0.613
11428SOL    HW236124  13.030   9.264   0.476
11429SOL     OW36125   7.347   3.542  13.979
11429SOL    HW136126   7.420   3.586  13.935
11429SOL    HW236127   7.274   3.549  13.918
11430SOL     OW36128   7.264  14.198   4.100
11430SOL    HW136129   7.285  14.113   4.060
11430SOL    HW236130   7.241  14.253   4.025
11431SOL     OW36131  11.704   8.655   5.449
11431SOL    HW136132  11.699   8.746   5.421
11431SOL    HW236133  11.700   8.659   5.545
11432SOL     OW36134  13.625   4.832  11.561
11432SOL    HW136135  13.680   4.776  11.616
11432SOL    HW236136  13.538   4.826  11.600
11433SOL     OW36137   6.793   2.447   3.966
11433SOL    HW136138   6.713   2.474   4.009
11433SOL    HW236139   6.794   2.496   3.884
11434SOL     OW36140   7.205   4.927   0.307
11434SOL    HW136141   7.278   4.987   0.320
11434SOL    HW236142   7.240   4.841   0.329
11435SOL     OW36143  14.055  13.237  12.368
11435SOL    HW136144  14.127  13.257  12.308
11435SOL    HW236145  13.999  13.314  12.366
11436SOL     OW36146  10.550  13.166   2.404
11436SOL    HW136147  10.531  13.211   2.321
11436SOL    HW236148  10.646  13.164   2.408
11437SOL     OW36149  14.527   6.588   6.048
11437SOL    HW136150  14.511   6.675   6.086
11437SOL    HW236151  14.440   6.554   6.029
11438SOL     OW36152   0.007   7.503   1.140
11438SOL    HW136153  14.820   7.566   1.112
11438SOL    HW236154  14.839   7.420   1.148
11439SOL     OW36155  14.611  11.052   9.848
11439SOL    HW136156  14.526  11.014   9.823
11439SOL    HW236157  14.607  11.056   9.944
11440SOL     OW36158   1.645   4.883   0.681
11440SOL    HW136159   1.567   4.831   0.660
11440SOL    HW236160   1.701   4.874   0.604
11441SOL     OW36161   3.076   1.532   0.941
11441SOL    HW136162   3.122   1.470   0.886
11441SOL    HW236163   3.144   1.592   0.973
11442SOL     OW36164   9.737  13.106  11.247
11442SOL    HW136165   9.668  13.067  11.301
11442SOL    HW236166   9.808  13.125  11.309
11443SOL     OW36167  10.440  13.487   8.076
11443SOL    HW136168  10.406  13.400   8.059
11443SOL    HW236169  10.443  13.493   8.172
11444SOL     OW36170  13.811   6.573   0.285
11444SOL    HW136171  13.879   6.525   0.331
11444SOL    HW236172  13.819   6.663   0.317
11445SOL     OW36173  10.498   1.176  13.528
11445SOL    HW136174  10.517   1.086  13.503
11445SOL    HW236175  10.512   1.178  13.623
11446SOL     OW36176   9.169   7.403   3.839
11446SOL    HW136177   9.147   7.409   3.746
11446SOL    HW236178   9.225   7.326   3.846
11447SOL     OW36179   4.406   1.854   4.101
11447SOL    HW136180   4.351   1.925   4.134
11447SOL    HW236181   4.483   1.853   4.159
11448SOL     OW36182   8.550   3.139   1.355
11448SOL    HW136183   8.606   3.074   1.396
11448SOL    HW236184   8.462   3.102   1.362
11449SOL     OW36185  10.385   3.236  10.109
11449SOL    HW136186  10.332   3.176  10.057
11449SOL    HW236187  10.449   3.271  10.046
11450SOL     OW36188   9.024  10.793  11.941
11450SOL    HW136189   9.075  10.725  11.896
11450SOL    HW236190   8.971  10.832  11.871
11451SOL     OW36191   8.497   6.469   5.060
11451SOL    HW136192   8.551   6.547   5.070
11451SOL    HW236193   8.457   6.457   5.146
11452SOL     OW36194   5.252   2.616   9.007
11452SOL    HW136195   5.248   2.602   9.102
11452SOL    HW236196   5.187   2.556   8.971
11453SOL     OW36197   5.334   1.832   4.626
11453SOL    HW136198   5.256   1.824   4.571
11453SOL    HW236199   5.378   1.911   4.596
11454SOL     OW36200   4.246   7.938   4.307
11454SOL    HW136201   4.172   7.992   4.333
11454SOL    HW236202   4.323   7.991   4.329
11455SOL     OW36203   4.836   9.528   7.985
11455SOL    HW136204   4.863   9.462   8.049
11455SOL    HW236205   4.869   9.495   7.901
11456SOL     OW36206   7.822   9.745   1.855
11456SOL    HW136207   7.854   9.829   1.887
11456SOL    HW236208   7.892   9.711   1.800
11457SOL     OW36209  10.643   0.652  11.623
11457SOL    HW136210  10.617   0.744  11.613
11457SOL    HW236211  10.591   0.620  11.697
11458SOL     OW36212  11.934  11.088   1.624
11458SOL    HW136213  11.996  11.134   1.568
11458SOL    HW236214  11.975  11.003   1.640
11459SOL     OW36215   2.813   9.027  14.249
11459SOL    HW136216   2.832   9.028  14.155
11459SOL    HW236217   2.820   9.118  14.276
11460SOL     OW36218  14.126  10.845   9.568
11460SOL    HW136219  14.190  10.904   9.529
11460SOL    HW236220  14.103  10.785   9.497
11461SOL     OW36221  12.776   7.076   2.682
11461SOL    HW136222  12.752   7.164   2.711
11461SOL    HW236223  12.813   7.034   2.760
11462SOL     OW36224  10.944   0.333  12.851
11462SOL    HW136225  10.962   0.246  12.887
11462SOL    HW236226  10.966   0.393  12.923
11463SOL     OW36227   5.555   7.984   5.013
11463SOL    HW136228   5.558   7.993   5.109
11463SOL    HW236229   5.546   7.890   4.998
11464SOL     OW36230  10.038  12.729  13.486
11464SOL    HW136231   9.943  12.738  13.488
11464SOL    HW236232  10.055  12.678  13.407
11465SOL     OW36233   0.815   7.881  14.646
11465SOL    HW136234   0.895   7.836  14.673
11465SOL    HW236235   0.820   7.966  14.689
11466SOL     OW36236   0.627   0.376   3.707
11466SOL    HW136237   0.622   0.466   3.676
11466SOL    HW236238   0.536   0.349   3.718
11467SOL     OW36239  13.880   9.618  11.050
11467SOL    HW136240  13.970   9.638  11.077
11467SOL    HW236241  13.880   9.525  11.030
11468SOL     OW36242  12.844   8.452   0.980
11468SOL    HW136243  12.907   8.515   1.014
11468SOL    HW236244  12.815   8.402   1.056
11469SOL     OW36245   2.514   6.346   4.375
11469SOL    HW136246   2.529   6.380   4.287
11469SOL    HW236247   2.419   6.350   4.386
11470SOL     OW36248   9.262  14.538   2.172
11470SOL    HW136249   9.265  14.462   2.114
11470SOL    HW236250   9.227  14.608   2.118
11471SOL     OW36251  11.917   2.756  11.268
11471SOL    HW136252  12.000   2.753  11.220
11471SOL    HW236253  11.874   2.674  11.245
11472SOL     OW36254   9.660   9.901  12.923
11472SOL    HW136255   9.722   9.912  12.995
11472SOL    HW236256   9.661   9.985  12.877
11473SOL     OW36257  11.282  12.695   8.520
11473SOL    HW136258  11.251  12.689   8.430
11473SOL    HW236259  11.373  12.666   8.516
11474SOL     OW36260   7.828   0.207   0.141
11474SOL    HW136261   7.802   0.299   0.141
11474SOL    HW236262   7.850   0.188   0.049
11475SOL     OW36263   6.654   1.773   3.495
11475SOL    HW136264   6.734   1.736   3.457
11475SOL    HW236265   6.683   1.850   3.544
11476SOL     OW36266  14.712   4.157   9.753
11476SOL    HW136267  14.736   4.178   9.663
11476SOL    HW236268  14.790   4.178   9.804
11477SOL     OW36269   3.696   9.069  10.202
11477SOL    HW136270   3.641   8.997  10.232
11477SOL    HW236271   3.697   9.060  10.106
11478SOL     OW36272   0.367  12.501  13.243
11478SOL    HW136273   0.272  12.509  13.237
11478SOL    HW236274   0.397  12.505  13.152
11479SOL     OW36275  14.230  13.287   7.464
11479SOL    HW136276  14.248  13.275   7.557
11479SOL    HW236277  14.317  13.299   7.425
11480SOL     OW36278   1.954   8.715   3.386
11480SOL    HW136279   1.873   8.749   3.350
11480SOL    HW236280   1.968   8.767   3.465
11481SOL     OW36281  14.469   5.907   3.220
11481SOL    HW136282  14.463   5.829   3.165
11481SOL    HW236283  14.477   5.872   3.309
11482SOL     OW36284   9.115   4.795   0.211
11482SOL    HW136285   9.136   4.821   0.301
11482SOL    HW236286   9.092   4.877   0.168
11483SOL     OW36287   6.311  10.311  12.169
11483SOL    HW136288   6.251  10.282  12.238
11483SOL    HW236289   6.298  10.406  12.164
11484SOL     OW36290   7.749  10.105   0.441
11484SOL    HW136291   7.674  10.077   0.494
11484SOL    HW236292   7.809  10.147   0.504
11485SOL     OW36293   2.666   7.660  10.549
11485SOL    HW136294   2.733   7.639  10.484
11485SOL    HW236295   2.625   7.741  10.516
11486SOL     OW36296   3.279  10.390   2.430
11486SOL    HW136297   3.344  10.406   2.362
11486SOL    HW236298   3.306  10.307   2.470
11487SOL     OW36299   1.177   9.539  12.366
11487SOL    HW136300   1.142   9.608  12.422
11487SOL    HW236301   1.265   9.569  12.342
11488SOL     OW36302   9.024   0.720   5.209
11488SOL    HW136303   9.028   0.807   5.249
11488SOL    HW236304   9.096   0.719   5.146
11489SOL     OW36305  10.622  11.028   6.580
11489SOL    HW136306  10.553  11.091   6.598
11489SOL    HW236307  10.678  11.070   6.515
11490SOL     OW36308  10.944  13.158   7.128
11490SOL    HW136309  10.850  13.144   7.131
11490SOL    HW236310  10.965  13.199   7.213
11491SOL     OW36311   3.531  11.434  10.420
11491SOL    HW136312   3.583  11.355  10.437
11491SOL    HW236313   3.596  11.503  10.410
11492SOL     OW36314  12.738  10.161  10.871
11492SOL    HW136315  12.760  10.080  10.825
11492SOL    HW236316  12.658  10.191  10.829
11493SOL     OW36317  11.970   9.443  11.550
11493SOL    HW136318  11.911   9.435  11.625
11493SOL    HW236319  11.995   9.535  11.548
11494SOL     OW36320  11.719  12.773   1.473
11494SOL    HW136321  11.647  12.804   1.528
11494SOL    HW236322  11.725  12.680   1.493
11495SOL     OW36323  10.188   5.610  13.879
11495SOL    HW136324  10.100   5.629  13.848
11495SOL    HW236325  10.236   5.693  13.866
11496SOL     OW36326   3.932   3.503   1.671
11496SOL    HW136327   3.870   3.440   1.708
11496SOL    HW236328   3.907   3.587   1.711
11497SOL     OW36329  14.567   3.033   3.483
11497SOL    HW136330  14.500   3.079   3.534
11497SOL    HW236331  14.544   3.051   3.392
11498SOL     OW36332   9.053  14.770   3.190
11498SOL    HW136333   9.087  14.851   3.227
11498SOL    HW236334   9.131  14.720   3.167
11499SOL     OW36335   2.957  11.747   4.420
11499SOL    HW136336   3.032  11.693   4.445
11499SOL    HW236337   2.893  11.732   4.489
11500SOL     OW36338   8.475   8.017   2.379
11500SOL    HW136339   8.548   7.973   2.424
11500SOL    HW236340   8.399   7.998   2.433
11501SOL     OW36341  12.467   4.321  13.594
11501SOL    HW136342  12.535   4.313  13.661
11501SOL    HW236343  12.406   4.386  13.630
11502SOL     OW36344   9.727   4.198  10.176
11502SOL    HW136345   9.797   4.254  10.212
11502SOL    HW236346   9.677   4.256  10.119
11503SOL     OW36347  11.785   7.572   3.365
11503SOL    HW136348  11.800   7.534   3.452
11503SOL    HW236349  11.871   7.605   3.338
11504SOL     OW36350  13.169   3.610   7.122
11504SOL    HW136351  13.213   3.533   7.087
11504SOL    HW236352  13.095   3.575   7.171
11505SOL     OW36353  12.908   3.858  14.701
11505SOL    HW136354  12.944   3.938  14.740
11505SOL    HW236355  12.946   3.854  14.614
11506SOL     OW36356  11.682  13.226   4.220
11506SOL    HW136357  11.727  13.144   4.242
11506SOL    HW236358  11.595  13.198   4.191
11507SOL     OW36359   3.724   5.965   2.054
11507SOL    HW136360   3.712   6.059   2.067
11507SOL    HW236361   3.706   5.926   2.139
11508SOL     OW36362   3.191   0.754   8.851
11508SOL    HW136363   3.241   0.791   8.777
11508SOL    HW236364   3.118   0.709   8.809
11509SOL     OW36365  12.304   6.789   6.566
11509SOL    HW136366  12.274   6.782   6.657
11509SOL    HW236367  12.252   6.860   6.529
11510SOL     OW36368  12.246   2.822   2.340
11510SOL    HW136369  12.318   2.843   2.281
11510SOL    HW236370  12.270   2.862   2.423
11511SOL     OW36371   6.776   7.615   5.471
11511SOL    HW136372   6.832   7.655   5.538
11511SOL    HW236373   6.816   7.641   5.388
11512SOL     OW36374   9.876   4.017   3.023
11512SOL    HW136375   9.971   4.027   3.010
11512SOL    HW236376   9.867   3.937   3.074
11513SOL     OW36377   8.108   4.568  14.139
11513SOL    HW136378   8.072   4.480  14.148
11513SOL    HW236379   8.036   4.620  14.104
11514SOL     OW36380  13.030   1.350  13.144
11514SOL    HW136381  12.979   1.406  13.085
11514SOL    HW236382  13.020   1.390  13.230
11515SOL     OW36383   7.996  12.997   0.952
11515SOL    HW136384   7.944  13.070   0.985
11515SOL    HW236385   8.085  13.016   0.981
11516SOL     OW36386   3.457  14.598   9.796
11516SOL    HW136387   3.434  14.555   9.713
11516SOL    HW236388   3.504  14.677   9.769
11517SOL     OW36389   0.385   8.652   6.835
11517SOL    HW136390   0.341   8.594   6.773
11517SOL    HW236391   0.443   8.594   6.886
11518SOL     OW36392  13.628  11.754   1.087
11518SOL    HW136393  13.538  11.761   1.056
11518SOL    HW236394  13.622  11.704   1.169
11519SOL     OW36395   7.466   2.898   1.937
11519SOL    HW136396   7.384   2.930   1.899
11519SOL    HW236397   7.504   2.975   1.979
11520SOL     OW36398   6.963   0.419   4.529
11520SOL    HW136399   7.037   0.360   4.538
11520SOL    HW236400   6.926   0.399   4.443
11521SOL     OW36401   6.318  12.123   4.622
11521SOL    HW136402   6.253  12.144   4.555
11521SOL    HW236403   6.369  12.052   4.584
11522SOL     OW36404   0.397  11.189   0.728
11522SOL    HW136405   0.460  11.255   0.702
11522SOL    HW236406   0.314  11.218   0.689
11523SOL     OW36407   1.232   8.806  13.947
11523SOL    HW136408   1.193   8.745  14.009
11523SOL    HW236409   1.286   8.864  14.001
11524SOL     OW36410   0.791  13.339   8.934
11524SOL    HW136411   0.843  13.392   8.995
11524SOL    HW236412   0.703  13.340   8.970
11525SOL     OW36413   4.209   0.684   9.382
11525SOL    HW136414   4.235   0.770   9.349
11525SOL    HW236415   4.128   0.700   9.431
11526SOL     OW36416  12.699  10.582   8.321
11526SOL    HW136417  12.636  10.624   8.378
11526SOL    HW236418  12.755  10.653   8.290
11527SOL     OW36419   3.927  14.768  12.454
11527SOL    HW136420   3.935  14.844  12.395
11527SOL    HW236421   3.841  14.778  12.494
11528SOL     OW36422   9.761  12.484   6.531
11528SOL    HW136423   9.838  12.430   6.515
11528SOL    HW236424   9.713  12.439   6.600
11529SOL     OW36425   3.434   3.054   1.747
11529SOL    HW136426   3.517   3.080   1.709
11529SOL    HW236427   3.411   2.973   1.700
11530SOL     OW36428   5.723   0.632   5.968
11530SOL    HW136429   5.637   0.596   5.945
11530SOL    HW236430   5.734   0.707   5.910
11531SOL     OW36431   8.685   7.344   0.622
11531SOL    HW136432   8.773   7.379   0.605
11531SOL    HW236433   8.645   7.409   0.680
11532SOL     OW36434   1.484   3.588  14.699
11532SOL    HW136435   1.548   3.604  14.629
11532SOL    HW236436   1.500   3.657  14.763
11533SOL     OW36437   7.349   1.311   6.127
11533SOL    HW136438   7.343   1.390   6.073
11533SOL    HW236439   7.437   1.278   6.112
11534SOL     OW36440   8.278   8.902   2.687
11534SOL    HW136441   8.205   8.890   2.627
11534SOL    HW236442   8.291   8.817   2.728
11535SOL     OW36443   4.525   6.525  11.705
11535SOL    HW136444   4.585   6.577  11.652
11535SOL    HW236445   4.568   6.519  11.791
11536SOL     OW36446   0.963  11.484  11.345
11536SOL    HW136447   0.998  11.490  11.256
11536SOL    HW236448   1.038  11.497  11.402
11537SOL     OW36449  11.582   0.883   6.133
11537SOL    HW136450  11.649   0.905   6.198
11537SOL    HW236451  11.612   0.799   6.096
11538SOL     OW36452   3.940  13.649  10.873
11538SOL    HW136453   3.932  13.613  10.785
11538SOL    HW236454   3.860  13.701  10.885
11539SOL     OW36455   3.198   2.748   9.204
11539SOL    HW136456   3.276   2.801   9.219
11539SOL    HW236457   3.229   2.673   9.155
11540SOL     OW36458   7.081  14.788   3.936
11540SOL    HW136459   7.157  14.772   3.993
11540SOL    HW236460   7.110  14.855   3.875
11541SOL     OW36461  12.153   6.761   1.673
11541SOL    HW136462  12.209   6.709   1.615
11541SOL    HW236463  12.140   6.843   1.625
11542SOL     OW36464   4.852  11.813   5.047
11542SOL    HW136465   4.888  11.900   5.031
11542SOL    HW236466   4.902  11.780   5.122
11543SOL     OW36467   9.204   4.627   1.063
11543SOL    HW136468   9.129   4.669   1.104
11543SOL    HW236469   9.188   4.635   0.969
11544SOL     OW36470   8.501   7.672   8.038
11544SOL    HW136471   8.452   7.630   7.968
11544SOL    HW236472   8.503   7.765   8.013
11545SOL     OW36473   0.916  10.418   5.492
11545SOL    HW136474   0.834  10.460   5.470
11545SOL    HW236475   0.984  10.476   5.458
11546SOL     OW36476   4.343   3.173  12.087
11546SOL    HW136477   4.287   3.125  12.148
11546SOL    HW236478   4.390   3.104  12.040
11547SOL     OW36479   0.642   1.999   6.034
11547SOL    HW136480   0.571   2.025   6.093
11547SOL    HW236481   0.666   1.911   6.063
11548SOL     OW36482  10.176   2.468   9.273
11548SOL    HW136483  10.111   2.418   9.224
11548SOL    HW236484  10.260   2.442   9.234
11549SOL     OW36485   0.697   0.085   9.513
11549SOL    HW136486   0.741   0.153   9.461
11549SOL    HW236487   0.769   0.036   9.553
11550SOL     OW36488  11.339  12.956  11.147
11550SOL    HW136489  11.378  12.883  11.099
11550SOL    HW236490  11.254  12.922  11.176
11551SOL     OW36491   7.925  14.474   6.549
11551SOL    HW136492   7.839  14.514   6.561
11551SOL    HW236493   7.958  14.461   6.638
11552SOL     OW36494  14.406  13.253   4.285
11552SOL    HW136495  14.437  13.276   4.373
11552SOL    HW236496  14.345  13.323   4.263
11553SOL     OW36497   6.589   4.203   2.199
11553SOL    HW136498   6.502   4.211   2.239
11553SOL    HW236499   6.585   4.262   2.123
11554SOL     OW36500   0.186  11.128   0.021
11554SOL    HW136501   0.107  11.077   0.039
11554SOL    HW236502   0.231  11.079  14.832
11555SOL     OW36503  12.983   6.170   8.132
11555SOL    HW136504  13.054   6.144   8.073
11555SOL    HW236505  12.932   6.234   8.082
11556SOL     OW36506  12.941   9.731  11.726
11556SOL    HW136507  12.915   9.781  11.649
11556SOL    HW236508  12.866   9.674  11.745
11557SOL     OW36509   5.595  10.239   3.627
11557SOL    HW136510   5.643  10.283   3.557
11557SOL    HW236511   5.657  10.237   3.701
11558SOL     OW36512   9.661   2.311  14.451
11558SOL    HW136513   9.756   2.311  14.459
11558SOL    HW236514   9.630   2.352  14.532
11559SOL     OW36515   9.838   6.990   0.478
11559SOL    HW136516   9.800   6.953   0.398
11559SOL    HW236517   9.918   7.035   0.448
11560SOL     OW36518   1.916   8.890   0.316
11560SOL    HW136519   1.830   8.887   0.274
11560SOL    HW236520   1.951   8.802   0.306
11561SOL     OW36521  13.006   4.587   5.185
11561SOL    HW136522  13.021   4.535   5.107
11561SOL    HW236523  13.058   4.544   5.253
11562SOL     OW36524   2.897   5.445   8.515
11562SOL    HW136525   2.937   5.438   8.429
11562SOL    HW236526   2.807   5.415   8.502
11563SOL     OW36527   6.530   0.527   5.327
11563SOL    HW136528   6.476   0.584   5.382
11563SOL    HW236529   6.608   0.579   5.308
11564SOL     OW36530   3.876  11.831   5.721
11564SOL    HW136531   3.801  11.776   5.697
11564SOL    HW236532   3.891  11.885   5.643
11565SOL     OW36533   9.581   5.402   7.602
11565SOL    HW136534   9.573   5.491   7.636
11565SOL    HW236535   9.659   5.367   7.646
11566SOL     OW36536   1.106   0.962   3.127
11566SOL    HW136537   1.168   1.015   3.177
11566SOL    HW236538   1.051   1.025   3.081
11567SOL     OW36539  13.035  13.968   8.297
11567SOL    HW136540  13.084  14.027   8.239
11567SOL    HW236541  13.063  13.880   8.270
11568SOL     OW36542   4.578   2.752   1.552
11568SOL    HW136543   4.580   2.692   1.477
11568SOL    HW236544   4.543   2.834   1.518
11569SOL     OW36545   8.789   4.994  11.416
11569SOL    HW136546   8.882   4.992  11.392
11569SOL    HW236547   8.745   5.025  11.337
11570SOL     OW36548   7.792   8.297   4.983
11570SOL    HW136549   7.838   8.267   5.062
11570SOL    HW236550   7.708   8.329   5.015
11571SOL     OW36551  12.059  14.656  10.316
11571SOL    HW136552  12.025  14.578  10.272
11571SOL    HW236553  12.046  14.637  10.409
11572SOL     OW36554  10.574   0.703   8.369
11572SOL    HW136555  10.602   0.615   8.342
11572SOL    HW236556  10.528   0.689   8.451
11573SOL     OW36557  10.511   3.151   4.111
11573SOL    HW136558  10.447   3.132   4.042
11573SOL    HW236559  10.595   3.120   4.075
11574SOL     OW36560   7.379   2.260  11.179
11574SOL    HW136561   7.447   2.241  11.244
11574SOL    HW236562   7.354   2.175  11.144
11575SOL     OW36563  14.795  14.356   8.539
11575SOL    HW136564  14.769  14.376   8.629
11575SOL    HW236565  14.726  14.396   8.485
11576SOL     OW36566  11.248   8.461  11.980
11576SOL    HW136567  11.237   8.366  11.977
11576SOL    HW236568  11.343   8.474  11.989
11577SOL     OW36569  10.115  12.482   2.612
11577SOL    HW136570  10.119  12.418   2.684
11577SOL    HW236571  10.171  12.443   2.544
11578SOL     OW36572  14.815   6.528   2.012
11578SOL    HW136573   0.023   6.552   1.984
11578SOL    HW236574  14.764   6.608   2.003
11579SOL     OW36575  10.181   9.928   6.345
11579SOL    HW136576  10.217   9.845   6.376
11579SOL    HW236577  10.126   9.904   6.271
11580SOL     OW36578  12.997   9.851   4.465
11580SOL    HW136579  12.951   9.935   4.463
11580SOL    HW236580  12.937   9.792   4.511
11581SOL     OW36581   4.091   0.237  14.089
11581SOL    HW136582   4.118   0.315  14.138
11581SOL    HW236583   4.079   0.269  14.000
11582SOL     OW36584   5.324  13.358  10.906
11582SOL    HW136585   5.252  13.392  10.960
11582SOL    HW236586   5.299  13.378  10.817
11583SOL     OW36587   9.945  11.294   5.017
11583SOL    HW136588   9.885  11.300   5.092
11583SOL    HW236589   9.971  11.385   5.000
11584SOL     OW36590   1.209   0.927   5.177
11584SOL    HW136591   1.155   0.857   5.140
11584SOL    HW236592   1.244   0.973   5.101
11585SOL     OW36593   9.609  12.482   3.052
11585SOL    HW136594   9.666  12.455   3.124
11585SOL    HW236595   9.538  12.531   3.094
11586SOL     OW36596  14.715   3.751   8.863
11586SOL    HW136597  14.658   3.682   8.830
11586SOL    HW236598  14.660   3.830   8.862
11587SOL     OW36599   5.072   5.550  10.230
11587SOL    HW136600   4.978   5.543  10.211
11587SOL    HW236601   5.111   5.473  10.188
11588SOL     OW36602   2.717   6.637   7.674
11588SOL    HW136603   2.780   6.701   7.708
11588SOL    HW236604   2.634   6.685   7.673
11589SOL     OW36605   0.501   8.267   3.660
11589SOL    HW136606   0.559   8.207   3.705
11589SOL    HW236607   0.542   8.353   3.671
11590SOL     OW36608  11.754   5.410   8.073
11590SOL    HW136609  11.713   5.456   7.999
11590SOL    HW236610  11.739   5.317   8.055
11591SOL     OW36611   0.777   4.718   8.001
11591SOL    HW136612   0.701   4.770   7.977
11591SOL    HW236613   0.740   4.638   8.038
11592SOL     OW36614   8.797   8.017  13.696
11592SOL    HW136615   8.873   8.075  13.695
11592SOL    HW236616   8.746   8.045  13.772
11593SOL     OW36617  11.160  12.871   9.209
11593SOL    HW136618  11.145  12.777   9.198
11593SOL    HW236619  11.230  12.890   9.146
11594SOL     OW36620  13.474   1.313  10.157
11594SOL    HW136621  13.449   1.394  10.113
11594SOL    HW236622  13.463   1.245  10.091
11595SOL     OW36623  14.727  14.689   8.189
11595SOL    HW136624  14.823  14.699   8.188
11595SOL    HW236625  14.698  14.753   8.254
11596SOL     OW36626   8.567   6.729   6.442
11596SOL    HW136627   8.564   6.811   6.491
11596SOL    HW236628   8.485   6.726   6.394
11597SOL     OW36629  14.745  11.152   8.803
11597SOL    HW136630  14.758  11.104   8.885
11597SOL    HW236631  14.749  11.084   8.735
11598SOL     OW36632   1.964   5.666   7.915
11598SOL    HW136633   1.943   5.597   7.978
11598SOL    HW236634   1.884   5.675   7.863
11599SOL     OW36635  12.879  10.321   0.758
11599SOL    HW136636  12.945  10.269   0.710
11599SOL    HW236637  12.823  10.256   0.800
11600SOL     OW36638   3.160  13.521   5.064
11600SOL    HW136639   3.246  13.536   5.102
11600SOL    HW236640   3.175  13.529   4.969
11601SOL     OW36641  12.378  12.076   3.921
11601SOL    HW136642  12.421  12.105   3.841
11601SOL    HW236643  12.373  11.981   3.912
11602SOL     OW36644   6.726  14.763   0.347
11602SOL    HW136645   6.711  14.801   0.433
11602SOL    HW236646   6.694  14.673   0.354
11603SOL     OW36647  11.022   2.498   9.862
11603SOL    HW136648  10.954   2.451   9.909
11603SOL    HW236649  11.078   2.429   9.826
11604SOL     OW36650  11.346  13.022  10.840
11604SOL    HW136651  11.263  12.983  10.868
11604SOL    HW236652  11.398  12.947  10.810
11605SOL     OW36653   9.990   2.296   4.540
11605SOL    HW136654  10.069   2.324   4.493
11605SOL    HW236655   9.937   2.375   4.547
11606SOL     OW36656   2.168   1.338   9.335
11606SOL    HW136657   2.221   1.309   9.409
11606SOL    HW236658   2.077   1.328   9.365
11607SOL     OW36659  11.152  13.222  13.964
11607SOL    HW136660  11.208  13.225  14.042
11607SOL    HW236661  11.200  13.273  13.899
11608SOL     OW36662   5.692  12.164   8.224
11608SOL    HW136663   5.645  12.147   8.306
11608SOL    HW236664   5.734  12.250   8.238
11609SOL     OW36665   1.525   2.039   0.241
11609SOL    HW136666   1.567   2.123   0.229
11609SOL    HW236667   1.465   2.052   0.315
11610SOL     OW36668  11.574   9.583   1.496
11610SOL    HW136669  11.580   9.543   1.410
11610SOL    HW236670  11.513   9.527   1.545
11611SOL     OW36671   0.002   0.018   2.235
11611SOL    HW136672  14.835   0.080   2.179
11611SOL    HW236673   0.092   0.020   2.202
11612SOL     OW36674   8.190  10.678   1.573
11612SOL    HW136675   8.249  10.722   1.634
11612SOL    HW236676   8.242  10.663   1.495
11613SOL     OW36677   5.089   3.901  12.244
11613SOL    HW136678   5.112   3.973  12.303
11613SOL    HW236679   5.042   3.944  12.172
11614SOL     OW36680  11.614  14.016  13.094
11614SOL    HW136681  11.525  14.045  13.076
11614SOL    HW236682  11.663  14.097  13.109
11615SOL     OW36683   2.835  14.055   3.771
11615SOL    HW136684   2.768  14.005   3.818
11615SOL    HW236685   2.787  14.096   3.698
11616SOL     OW36686  11.918   2.016   4.321
11616SOL    HW136687  11.857   2.050   4.255
11616SOL    HW236688  11.870   1.947   4.366
11617SOL     OW36689   7.742   8.123  10.548
11617SOL    HW136690   7.772   8.140  10.638
11617SOL    HW236691   7.657   8.082  10.558
11618SOL     OW36692   6.104   1.464   8.906
11618SOL    HW136693   6.191   1.504   8.901
11618SOL    HW236694   6.116   1.386   8.960
11619SOL     OW36695   1.295  11.212   6.122
11619SOL    HW136696   1.379  11.244   6.090
11619SOL    HW236697   1.312  11.182   6.211
11620SOL     OW36698  12.296   9.288   4.386
11620SOL    HW136699  12.289   9.201   4.347
11620SOL    HW236700  12.206   9.310   4.412
11621SOL     OW36701  11.170  13.801   9.990
11621SOL    HW136702  11.114  13.876  10.008
11621SOL    HW236703  11.235  13.833   9.928
11622SOL     OW36704   9.414  14.149   9.684
11622SOL    HW136705   9.484  14.214   9.688
11622SOL    HW236706   9.333  14.199   9.693
11623SOL     OW36707   9.625  13.687   0.128
11623SOL    HW136708   9.634  13.644   0.043
11623SOL    HW236709   9.645  13.619   0.191
11624SOL     OW36710   4.981  12.702  12.810
11624SOL    HW136711   4.913  12.634  12.818
11624SOL    HW236712   4.949  12.775  12.862
11625SOL     OW36713  12.944   7.698   1.322
11625SOL    HW136714  12.857   7.699   1.361
11625SOL    HW236715  12.978   7.786   1.339
11626SOL     OW36716   1.500   1.757   7.971
11626SOL    HW136717   1.492   1.847   7.940
11626SOL    HW236718   1.552   1.713   7.903
11627SOL     OW36719  14.759   2.566   9.384
11627SOL    HW136720  14.696   2.494   9.383
11627SOL    HW236721  14.706   2.645   9.376
11628SOL     OW36722  11.882   6.652  10.861
11628SOL    HW136723  11.857   6.744  10.867
11628SOL    HW236724  11.803   6.607  10.833
11629SOL     OW36725   8.152   3.574  14.133
11629SOL    HW136726   8.119   3.503  14.078
11629SOL    HW236727   8.081   3.639  14.133
11630SOL     OW36728   8.176   5.444   0.549
11630SOL    HW136729   8.141   5.486   0.627
11630SOL    HW236730   8.131   5.359   0.545
11631SOL     OW36731   9.218   4.198  12.426
11631SOL    HW136732   9.261   4.152  12.499
11631SOL    HW236733   9.203   4.286  12.459
11632SOL     OW36734   7.474   7.671  10.483
11632SOL    HW136735   7.410   7.742  10.479
11632SOL    HW236736   7.423   7.592  10.462
11633SOL     OW36737  10.502  12.520   0.195
11633SOL    HW136738  10.591  12.496   0.170
11633SOL    HW236739  10.498  12.503   0.289
11634SOL     OW36740   2.931  12.026  11.283
11634SOL    HW136741   2.908  12.113  11.316
11634SOL    HW236742   2.938  12.038  11.188
11635SOL     OW36743  11.578  11.842   4.686
11635SOL    HW136744  11.572  11.831   4.591
11635SOL    HW236745  11.663  11.806   4.709
11636SOL     OW36746   1.343   5.548   8.708
11636SOL    HW136747   1.374   5.581   8.793
11636SOL    HW236748   1.255   5.586   8.699
11637SOL     OW36749  12.904   0.393   1.833
11637SOL    HW136750  12.975   0.457   1.829
11637SOL    HW236751  12.843   0.429   1.897
11638SOL     OW36752  11.444   0.353  14.044
11638SOL    HW136753  11.350   0.367  14.060
11638SOL    HW236754  11.472   0.294  14.115
11639SOL     OW36755  14.651  12.270   4.667
11639SOL    HW136756  14.738  12.231   4.674
11639SOL    HW236757  14.640  12.286   4.573
11640SOL     OW36758  11.832  12.930  13.109
11640SOL    HW136759  11.923  12.956  13.120
11640SOL    HW236760  11.830  12.838  13.134
11641SOL     OW36761   7.141  11.390  10.319
11641SOL    HW136762   7.081  11.438  10.263
11641SOL    HW236763   7.103  11.397  10.406
11642SOL     OW36764   1.424   7.357   3.185
11642SOL    HW136765   1.447   7.448   3.200
11642SOL    HW236766   1.407   7.322   3.273
11643SOL     OW36767  12.755   5.498   9.640
11643SOL    HW136768  12.726   5.417   9.597
11643SOL    HW236769  12.811   5.540   9.575
11644SOL     OW36770  11.465   4.892   6.591
11644SOL    HW136771  11.371   4.875   6.596
11644SOL    HW236772  11.505   4.805   6.581
11645SOL     OW36773   5.881   2.920  14.036
11645SOL    HW136774   5.902   2.983  13.967
11645SOL    HW236775   5.872   2.836  13.990
11646SOL     OW36776  12.707   6.143  14.613
11646SOL    HW136777  12.788   6.143  14.663
11646SOL    HW236778  12.732   6.175  14.526
11647SOL     OW36779  13.084  11.951  10.702
11647SOL    HW136780  13.144  11.876  10.698
11647SOL    HW236781  13.140  12.027  10.687
11648SOL     OW36782   2.144   7.881   0.125
11648SOL    HW136783   2.128   7.893   0.219
11648SOL    HW236784   2.238   7.867   0.118
11649SOL     OW36785  11.546   5.568   0.512
11649SOL    HW136786  11.506   5.481   0.515
11649SOL    HW236787  11.617   5.559   0.448
11650SOL     OW36788   0.029  13.215  10.829
11650SOL    HW136789   0.017  13.175  10.743
11650SOL    HW236790   0.045  13.308  10.810
11651SOL     OW36791  14.472   4.110   7.983
11651SOL    HW136792  14.461   4.120   8.077
11651SOL    HW236793  14.567   4.113   7.970
11652SOL     OW36794  12.470  11.889   2.671
11652SOL    HW136795  12.552  11.840   2.681
11652SOL    HW236796  12.429  11.885   2.757
11653SOL     OW36797  13.395  14.286   7.138
11653SOL    HW136798  13.399  14.364   7.083
11653SOL    HW236799  13.445  14.310   7.216
11654SOL     OW36800  10.636   9.589   7.008
11654SOL    HW136801  10.653   9.501   7.043
11654SOL    HW236802  10.555   9.616   7.051
11655SOL     OW36803   8.888  12.061   2.114
11655SOL    HW136804   8.981  12.039   2.118
11655SOL    HW236805   8.886  12.156   2.108
11656SOL     OW36806  11.787  10.905   7.195
11656SOL    HW136807  11.740  10.988   7.196
11656SOL    HW236808  11.776  10.870   7.284
11657SOL     OW36809  13.531   7.435   0.422
11657SOL    HW136810  13.460   7.383   0.384
11657SOL    HW236811  13.582   7.373   0.474
11658SOL     OW36812  14.738  12.237  11.126
11658SOL    HW136813  14.699  12.151  11.109
11658SOL    HW236814  14.712  12.259  11.215
11659SOL     OW36815   6.052  11.517  14.034
11659SOL    HW136816   5.974  11.554  13.993
11659SOL    HW236817   6.123  11.575  14.009
11660SOL     OW36818   0.832  11.156   6.883
11660SOL    HW136819   0.801  11.156   6.973
11660SOL    HW236820   0.925  11.180   6.889
11661SOL     OW36821   8.278   0.656   9.694
11661SOL    HW136822   8.355   0.601   9.681
11661SOL    HW236823   8.215   0.599   9.740
11662SOL     OW36824   0.422   7.749  13.336
11662SOL    HW136825   0.344   7.800  13.358
11662SOL    HW236826   0.495   7.809  13.354
11663SOL     OW36827   0.658   8.293   3.246
11663SOL    HW136828   0.596   8.360   3.218
11663SOL    HW236829   0.743   8.328   3.221
11664SOL     OW36830   4.977   6.923  10.846
11664SOL    HW136831   5.044   6.957  10.906
11664SOL    HW236832   4.899   6.915  10.901
11665SOL     OW36833  12.823   8.954   0.013
11665SOL    HW136834  12.904   8.924  14.852
11665SOL    HW236835  12.777   8.874   0.038
11666SOL     OW36836   3.431  13.136  13.073
11666SOL    HW136837   3.488  13.077  13.023
11666SOL    HW236838   3.449  13.223  13.036
11667SOL     OW36839   8.329   6.363   3.418
11667SOL    HW136840   8.407   6.310   3.430
11667SOL    HW236841   8.272   6.311   3.361
11668SOL     OW36842   8.290   9.510   1.983
11668SOL    HW136843   8.323   9.599   1.968
11668SOL    HW236844   8.234   9.518   2.060
11669SOL     OW36845  13.944   0.364   2.402
11669SOL    HW136846  13.914   0.308   2.473
11669SOL    HW236847  13.902   0.449   2.418
11670SOL     OW36848   8.151  12.249   6.685
11670SOL    HW136849   8.226  12.271   6.631
11670SOL    HW236850   8.086  12.215   6.623
11671SOL     OW36851   4.933   0.309   0.168
11671SOL    HW136852   4.868   0.292   0.237
11671SOL    HW236853   4.971   0.394   0.191
11672SOL     OW36854  10.159   0.368   3.265
11672SOL    HW136855  10.111   0.320   3.197
11672SOL    HW236856  10.153   0.460   3.238
11673SOL     OW36857   0.366   8.075   3.850
11673SOL    HW136858   0.366   8.156   3.901
11673SOL    HW236859   0.445   8.081   3.797
11674SOL     OW36860   6.936  14.519  13.117
11674SOL    HW136861   6.888  14.492  13.196
11674SOL    HW236862   6.876  14.501  13.045
11675SOL     OW36863  11.855   0.383  12.045
11675SOL    HW136864  11.861   0.391  11.949
11675SOL    HW236865  11.793   0.451  12.071
11676SOL     OW36866   0.179   6.254   7.261
11676SOL    HW136867   0.125   6.259   7.340
11676SOL    HW236868   0.253   6.312   7.278
11677SOL     OW36869  13.355  11.021   7.519
11677SOL    HW136870  13.376  10.951   7.457
11677SOL    HW236871  13.439  11.062   7.539
11678SOL     OW36872  12.956   5.761   3.526
11678SOL    HW136873  12.922   5.850   3.535
11678SOL    HW236874  13.022   5.754   3.594
11679SOL     OW36875   8.557  14.024  13.358
11679SOL    HW136876   8.535  14.104  13.309
11679SOL    HW236877   8.512  14.035  13.442
11680SOL     OW36878   5.891   3.249  12.252
11680SOL    HW136879   5.890   3.328  12.307
11680SOL    HW236880   5.962   3.265  12.190
11681SOL     OW36881   2.340   5.201   9.481
11681SOL    HW136882   2.297   5.246   9.553
11681SOL    HW236883   2.434   5.208   9.502
11682SOL     OW36884   2.067   5.820   3.498
11682SOL    HW136885   2.026   5.764   3.563
11682SOL    HW236886   2.158   5.789   3.494
11683SOL     OW36887   2.445   1.523   4.985
11683SOL    HW136888   2.379   1.536   4.916
11683SOL    HW236889   2.393   1.504   5.063
11684SOL     OW36890   1.971   9.996   5.790
11684SOL    HW136891   2.066  10.010   5.791
11684SOL    HW236892   1.961   9.905   5.765
11685SOL     OW36893  14.236   7.433   4.526
11685SOL    HW136894  14.287   7.507   4.558
11685SOL    HW236895  14.270   7.358   4.575
11686SOL     OW36896   0.430   9.885   9.635
11686SOL    HW136897   0.461   9.929   9.556
11686SOL    HW236898   0.506   9.885   9.694
11687SOL     OW36899   1.767  13.761  11.530
11687SOL    HW136900   1.728  13.675  11.548
11687SOL    HW236901   1.859  13.750  11.553
11688SOL     OW36902   5.187   1.791   5.243
11688SOL    HW136903   5.095   1.805   5.263
11688SOL    HW236904   5.188   1.764   5.151
11689SOL     OW36905  10.515  12.242  11.799
11689SOL    HW136906  10.604  12.232  11.832
11689SOL    HW236907  10.461  12.241  11.878
11690SOL     OW36908   5.490  10.544   1.809
11690SOL    HW136909   5.446  10.627   1.790
11690SOL    HW236910   5.461  10.485   1.740
11691SOL     OW36911   0.399   2.633  11.848
11691SOL    HW136912   0.374   2.682  11.926
11691SOL    HW236913   0.436   2.552  11.881
11692SOL     OW36914  10.147   9.725   6.081
11692SOL    HW136915  10.229   9.678   6.095
11692SOL    HW236916  10.111   9.686   6.001
11693SOL     OW36917   3.049   1.157   1.281
11693SOL    HW136918   3.038   1.070   1.244
11693SOL    HW236919   3.100   1.143   1.361
11694SOL     OW36920   7.693   5.955   9.033
11694SOL    HW136921   7.716   6.000   8.952
11694SOL    HW236922   7.652   6.022   9.087
11695SOL     OW36923  10.159  14.245  11.344
11695SOL    HW136924  10.150  14.151  11.361
11695SOL    HW236925  10.092  14.286  11.399
11696SOL     OW36926   2.551  14.416   8.650
11696SOL    HW136927   2.490  14.434   8.721
11696SOL    HW236928   2.499  14.366   8.586
11697SOL     OW36929  12.836   7.061   1.130
11697SOL    HW136930  12.758   7.017   1.165
11697SOL    HW236931  12.840   7.144   1.176
11698SOL     OW36932   3.857  12.148  10.735
11698SOL    HW136933   3.780  12.154  10.791
11698SOL    HW236934   3.829  12.183  10.651
11699SOL     OW36935  14.410   5.724   1.844
11699SOL    HW136936  14.413   5.803   1.898
11699SOL    HW236937  14.379   5.753   1.759
11700SOL     OW36938   9.491  12.783   9.990
11700SOL    HW136939   9.501  12.690  10.011
11700SOL    HW236940   9.568  12.825  10.030
11701SOL     OW36941   6.944  11.837   4.061
11701SOL    HW136942   7.034  11.813   4.083
11701SOL    HW236943   6.912  11.764   4.007
11702SOL     OW36944  12.020   2.458   7.113
11702SOL    HW136945  11.980   2.449   7.026
11702SOL    HW236946  12.090   2.393   7.113
11703SOL     OW36947   7.475   1.465   9.035
11703SOL    HW136948   7.438   1.413   9.106
11703SOL    HW236949   7.497   1.549   9.076
11704SOL     OW36950   0.065   8.958   2.158
11704SOL    HW136951   0.120   8.914   2.094
11704SOL    HW236952   0.098   9.048   2.160
11705SOL     OW36953   3.740   9.891   1.194
11705SOL    HW136954   3.817   9.914   1.143
11705SOL    HW236955   3.751   9.935   1.278
11706SOL     OW36956  13.251   5.304   0.071
11706SOL    HW136957  13.282   5.390   0.099
11706SOL    HW236958  13.306   5.281  14.876
11707SOL     OW36959  13.145   6.636   9.839
11707SOL    HW136960  13.182   6.687   9.767
11707SOL    HW236961  13.062   6.603   9.805
11708SOL     OW36962  12.667  11.133  11.628
11708SOL    HW136963  12.727  11.077  11.677
11708SOL    HW236964  12.588  11.136  11.681
11709SOL     OW36965  11.270  14.715   8.887
11709SOL    HW136966  11.310  14.781   8.831
11709SOL    HW236967  11.195  14.759   8.926
11710SOL     OW36968   1.986  13.011  11.507
11710SOL    HW136969   2.031  12.934  11.540
11710SOL    HW236970   1.894  12.999  11.533
11711SOL     OW36971   8.953  11.730   6.546
11711SOL    HW136972   8.941  11.636   6.556
11711SOL    HW236973   8.992  11.758   6.629
11712SOL     OW36974  14.623  10.235  12.722
11712SOL    HW136975  14.589  10.281  12.798
11712SOL    HW236976  14.716  10.259  12.717
11713SOL     OW36977  14.086   8.276   9.329
11713SOL    HW136978  14.166   8.232   9.302
11713SOL    HW236979  14.038   8.209   9.379
11714SOL     OW36980   0.200   7.908   6.737
11714SOL    HW136981   0.256   7.980   6.769
11714SOL    HW236982   0.111   7.943   6.742
11715SOL     OW36983   2.742  10.186  13.923
11715SOL    HW136984   2.805  10.255  13.901
11715SOL    HW236985   2.795  10.113  13.954
11716SOL     OW36986   0.571  10.367   4.324
11716SOL    HW136987   0.593  10.333   4.411
11716SOL    HW236988   0.595  10.297   4.264
11717SOL     OW36989   6.885   9.688   7.890
11717SOL    HW136990   6.814   9.740   7.850
11717SOL    HW236991   6.873   9.700   7.984
11718SOL     OW36992   7.656  14.085  10.646
11718SOL    HW136993   7.618  14.014  10.699
11718SOL    HW236994   7.609  14.163  10.674
11719SOL     OW36995   3.908   8.410   6.788
11719SOL    HW136996   3.924   8.437   6.698
11719SOL    HW236997   3.824   8.364   6.785
11720SOL     OW36998   5.628  11.984   2.631
11720SOL    HW136999   5.704  11.940   2.670
11720SOL    HW237000   5.658  12.012   2.545
11721SOL     OW37001   6.625   9.406   5.854
11721SOL    HW137002   6.631   9.479   5.916
11721SOL    HW237003   6.715   9.394   5.823
11722SOL     OW37004   6.485   2.915   3.372
11722SOL    HW137005   6.525   2.829   3.361
11722SOL    HW237006   6.399   2.908   3.330
11723SOL     OW37007   1.284   7.953  11.112
11723SOL    HW137008   1.317   7.877  11.064
11723SOL    HW237009   1.189   7.941  11.113
11724SOL     OW37010   4.176   9.369   9.882
11724SOL    HW137011   4.202   9.381   9.791
11724SOL    HW237012   4.134   9.452   9.906
11725SOL     OW37013  12.427   7.504   5.054
11725SOL    HW137014  12.408   7.536   5.142
11725SOL    HW237015  12.493   7.565   5.020
11726SOL     OW37016  12.931   2.481  14.079
11726SOL    HW137017  12.905   2.573  14.067
11726SOL    HW237018  12.999   2.467  14.013
11727SOL     OW37019   1.791   1.750   2.295
11727SOL    HW137020   1.745   1.725   2.376
11727SOL    HW237021   1.737   1.713   2.225
11728SOL     OW37022   1.347   4.247   1.522
11728SOL    HW137023   1.274   4.247   1.585
11728SOL    HW237024   1.384   4.335   1.529
11729SOL     OW37025   7.570  11.415   9.528
11729SOL    HW137026   7.569  11.480   9.458
11729SOL    HW237027   7.663  11.396   9.542
11730SOL     OW37028   2.501   9.410   8.720
11730SOL    HW137029   2.540   9.489   8.758
11730SOL    HW237030   2.500   9.427   8.626
11731SOL     OW37031  12.429  11.492   6.940
11731SOL    HW137032  12.397  11.555   6.876
11731SOL    HW237033  12.406  11.406   6.904
11732SOL     OW37034   2.681   9.344   2.423
11732SOL    HW137035   2.661   9.267   2.476
11732SOL    HW237036   2.774   9.336   2.403
11733SOL     OW37037  10.280  12.345   5.926
11733SOL    HW137038  10.233  12.288   5.987
11733SOL    HW237039  10.258  12.311   5.839
11734SOL     OW37040   6.285   8.954   6.703
11734SOL    HW137041   6.378   8.934   6.697
11734SOL    HW237042   6.281   9.050   6.705
11735SOL     OW37043  10.384   6.850   6.059
11735SOL    HW137044  10.362   6.788   6.129
11735SOL    HW237045  10.476   6.832   6.040
11736SOL     OW37046   1.806   8.420   7.351
11736SOL    HW137047   1.844   8.370   7.278
11736SOL    HW237048   1.724   8.455   7.316
11737SOL     OW37049   7.019   2.015  13.592
11737SOL    HW137050   7.039   2.028  13.685
11737SOL    HW237051   6.959   2.087  13.571
11738SOL     OW37052  10.996   8.443   3.500
11738SOL    HW137053  10.907   8.411   3.516
11738SOL    HW237054  10.985   8.537   3.486
11739SOL     OW37055   3.403   4.451   5.418
11739SOL    HW137056   3.479   4.429   5.473
11739SOL    HW237057   3.420   4.541   5.390
11740SOL     OW37058   2.997   1.366   0.146
11740SOL    HW137059   2.938   1.332   0.078
11740SOL    HW237060   3.022   1.289   0.196
11741SOL     OW37061   9.410   6.827   4.209
11741SOL    HW137062   9.430   6.767   4.280
11741SOL    HW237063   9.345   6.781   4.156
11742SOL     OW37064   8.529  12.327   4.109
11742SOL    HW137065   8.558  12.318   4.018
11742SOL    HW237066   8.592  12.277   4.160
11743SOL     OW37067  14.697  13.338   9.711
11743SOL    HW137068  14.694  13.263   9.651
11743SOL    HW237069  14.769  13.392   9.678
11744SOL     OW37070   5.350  10.559   6.854
11744SOL    HW137071   5.302  10.642   6.855
11744SOL    HW237072   5.294  10.499   6.903
11745SOL     OW37073  10.715  11.827   1.087
11745SOL    HW137074  10.686  11.898   1.145
11745SOL    HW237075  10.641  11.813   1.028
11746SOL     OW37076   6.221   4.234   4.184
11746SOL    HW137077   6.242   4.293   4.256
11746SOL    HW237078   6.277   4.262   4.112
11747SOL     OW37079  13.756   3.370   6.054
11747SOL    HW137080  13.800   3.298   6.010
11747SOL    HW237081  13.711   3.418   5.984
11748SOL     OW37082  12.465   5.594  10.702
11748SOL    HW137083  12.386   5.646  10.717
11748SOL    HW237084  12.523   5.617  10.775
11749SOL     OW37085   4.474   0.382  14.813
11749SOL    HW137086   4.498   0.437   0.008
11749SOL    HW237087   4.444   0.300  14.851
11750SOL     OW37088  12.855   2.808   7.885
11750SOL    HW137089  12.915   2.738   7.910
11750SOL    HW237090  12.805   2.826   7.965
11751SOL     OW37091   6.188  13.293   4.473
11751SOL    HW137092   6.143  13.376   4.492
11751SOL    HW237093   6.278  13.307   4.503
11752SOL     OW37094   1.063  13.058   1.448
11752SOL    HW137095   1.013  13.053   1.367
11752SOL    HW237096   1.047  12.975   1.492
11753SOL     OW37097   3.350  12.012   0.888
11753SOL    HW137098   3.330  12.095   0.843
11753SOL    HW237099   3.435  12.027   0.929
11754SOL     OW37100   0.228  12.422   3.677
11754SOL    HW137101   0.222  12.330   3.704
11754SOL    HW237102   0.205  12.472   3.756
11755SOL     OW37103  12.094  11.548   6.026
11755SOL    HW137104  12.132  11.461   6.012
11755SOL    HW237105  12.136  11.580   6.105
11756SOL     OW37106   4.134  10.483  11.848
11756SOL    HW137107   4.048  10.442  11.854
11756SOL    HW237108   4.192  10.428  11.901
11757SOL     OW37109   5.659  14.584  14.394
11757SOL    HW137110   5.614  14.561  14.475
11757SOL    HW237111   5.751  14.562  14.411
11758SOL     OW37112   9.595   7.809   0.185
11758SOL    HW137113   9.570   7.895   0.151
11758SOL    HW237114   9.688   7.801   0.165
11759SOL     OW37115  11.908  14.661   0.434
11759SOL    HW137116  11.897  14.682   0.527
11759SOL    HW237117  12.002  14.673   0.418
11760SOL     OW37118   0.292   7.904   5.611
11760SOL    HW137119   0.201   7.879   5.627
11760SOL    HW237120   0.303   7.987   5.659
11761SOL     OW37121   8.149   9.425   9.644
11761SOL    HW137122   8.078   9.362   9.642
11761SOL    HW237123   8.131   9.485   9.572
11762SOL     OW37124   0.904   3.510   9.511
11762SOL    HW137125   0.952   3.485   9.432
11762SOL    HW237126   0.956   3.475   9.583
11763SOL     OW37127   0.812   0.566  11.337
11763SOL    HW137128   0.870   0.642  11.336
11763SOL    HW237129   0.842   0.512  11.264
11764SOL     OW37130   8.861   3.006   4.102
11764SOL    HW137131   8.860   3.077   4.039
11764SOL    HW237132   8.930   3.028   4.164
11765SOL     OW37133   1.033   9.231   3.241
11765SOL    HW137134   0.977   9.160   3.271
11765SOL    HW237135   0.990   9.264   3.162
11766SOL     OW37136  14.523   9.560   9.146
11766SOL    HW137137  14.495   9.532   9.233
11766SOL    HW237138  14.613   9.589   9.158
11767SOL     OW37139   3.527  12.864   6.354
11767SOL    HW137140   3.440  12.856   6.315
11767SOL    HW237141   3.515  12.835   6.445
11768SOL     OW37142  13.298   2.112  11.311
11768SOL    HW137143  13.353   2.047  11.268
11768SOL    HW237144  13.326   2.110  11.402
11769SOL     OW37145  10.291   6.304   8.698
11769SOL    HW137146  10.331   6.255   8.627
11769SOL    HW237147  10.300   6.246   8.774
11770SOL     OW37148  13.980  13.969   1.445
11770SOL    HW137149  14.027  13.965   1.361
11770SOL    HW237150  13.900  14.017   1.426
11771SOL     OW37151   3.062   8.881  14.579
11771SOL    HW137152   3.143   8.831  14.585
11771SOL    HW237153   3.069   8.948  14.648
11772SOL     OW37154  12.388   8.638  10.309
11772SOL    HW137155  12.395   8.611  10.217
11772SOL    HW237156  12.450   8.581  10.355
11773SOL     OW37157   8.975  14.118   4.573
11773SOL    HW137158   8.925  14.094   4.651
11773SOL    HW237159   8.912  14.113   4.502
11774SOL     OW37160   2.526   7.298  13.060
11774SOL    HW137161   2.525   7.248  12.979
11774SOL    HW237162   2.531   7.232  13.129
11775SOL     OW37163  11.661   4.358   7.924
11775SOL    HW137164  11.600   4.358   7.998
11775SOL    HW237165  11.607   4.379   7.848
11776SOL     OW37166  10.116  13.799  14.328
11776SOL    HW137167  10.064  13.782  14.249
11776SOL    HW237168  10.057  13.850  14.384
11777SOL     OW37169  10.356   4.309   0.044
11777SOL    HW137170  10.375   4.253   0.118
11777SOL    HW237171  10.428   4.294  14.863
11778SOL     OW37172   8.934   1.196   9.515
11778SOL    HW137173   8.969   1.146   9.588
11778SOL    HW237174   8.841   1.175   9.514
11779SOL     OW37175   7.621   3.594   0.416
11779SOL    HW137176   7.664   3.597   0.501
11779SOL    HW237177   7.570   3.675   0.412
11780SOL     OW37178  14.473   3.103   9.704
11780SOL    HW137179  14.561   3.131   9.678
11780SOL    HW237180  14.482   3.083   9.797
11781SOL     OW37181   6.753   7.952  12.036
11781SOL    HW137182   6.679   7.985  11.985
11781SOL    HW237183   6.727   7.864  12.062
11782SOL     OW37184   3.390  11.707   6.696
11782SOL    HW137185   3.356  11.792   6.725
11782SOL    HW237186   3.479  11.703   6.732
11783SOL     OW37187   3.593   2.382   0.808
11783SOL    HW137188   3.500   2.397   0.823
11783SOL    HW237189   3.615   2.307   0.864
11784SOL     OW37190   0.408   3.992   2.402
11784SOL    HW137191   0.390   3.917   2.459
11784SOL    HW237192   0.503   3.992   2.391
11785SOL     OW37193   9.956  10.444   3.787
11785SOL    HW137194   9.950  10.538   3.772
11785SOL    HW237195  10.012  10.435   3.864
11786SOL     OW37196   9.605   3.631   0.100
11786SOL    HW137197   9.612   3.727   0.095
11786SOL    HW237198   9.555   3.615   0.180
11787SOL     OW37199   5.839  12.643  14.267
11787SOL    HW137200   5.770  12.577  14.261
11787SOL    HW237201   5.921  12.593  14.269
11788SOL     OW37202   6.090  12.052   5.776
11788SOL    HW137203   6.007  12.100   5.770
11788SOL    HW237204   6.141  12.085   5.702
11789SOL     OW37205  12.228   8.946   4.840
11789SOL    HW137206  12.149   8.971   4.793
11789SOL    HW237207  12.264   9.029   4.873
11790SOL     OW37208  11.919   6.569  13.446
11790SOL    HW137209  11.953   6.592  13.359
11790SOL    HW237210  11.987   6.598  13.507
11791SOL     OW37211  12.519  10.145  13.359
11791SOL    HW137212  12.580  10.108  13.295
11791SOL    HW237213  12.554  10.231  13.380
11792SOL     OW37214  12.772  11.679  11.593
11792SOL    HW137215  12.728  11.742  11.535
11792SOL    HW237216  12.712  11.605  11.598
11793SOL     OW37217   4.968   8.485  10.768
11793SOL    HW137218   5.016   8.411  10.729
11793SOL    HW237219   4.918   8.445  10.840
11794SOL     OW37220   6.537  14.438   7.752
11794SOL    HW137221   6.442  14.438   7.735
11794SOL    HW237222   6.561  14.531   7.750
11795SOL     OW37223  14.808   6.918   8.586
11795SOL    HW137224  14.734   6.861   8.564
11795SOL    HW237225  14.844   6.944   8.501
11796SOL     OW37226   9.568   0.363   0.404
11796SOL    HW137227   9.597   0.286   0.356
11796SOL    HW237228   9.615   0.358   0.487
11797SOL     OW37229  10.192   8.507   5.439
11797SOL    HW137230  10.214   8.417   5.417
11797SOL    HW237231  10.237   8.524   5.522
11798SOL     OW37232   8.758  12.388   3.502
11798SOL    HW137233   8.677  12.387   3.452
11798SOL    HW237234   8.732  12.366   3.591
11799SOL     OW37235   9.070   0.985   5.098
11799SOL    HW137236   9.130   1.007   5.169
11799SOL    HW237237   9.103   1.034   5.023
11800SOL     OW37238  11.232  12.761   9.582
11800SOL    HW137239  11.291  12.712   9.526
11800SOL    HW237240  11.283  12.778   9.661
11801SOL     OW37241   5.117   1.566   7.569
11801SOL    HW137242   5.162   1.636   7.618
11801SOL    HW237243   5.187   1.520   7.524
11802SOL     OW37244   8.848   0.697  12.350
11802SOL    HW137245   8.909   0.771  12.343
11802SOL    HW237246   8.890   0.637  12.411
11803SOL     OW37247  13.762  11.456   8.625
11803SOL    HW137248  13.855  11.436   8.631
11803SOL    HW237249  13.725  11.381   8.577
11804SOL     OW37250   7.364  11.303   4.447
11804SOL    HW137251   7.284  11.263   4.481
11804SOL    HW237252   7.430  11.289   4.514
11805SOL     OW37253   3.664  12.150   3.354
11805SOL    HW137254   3.719  12.224   3.381
11805SOL    HW237255   3.695  12.129   3.265
11806SOL     OW37256   3.311  11.361   6.497
11806SOL    HW137257   3.262  11.437   6.467
11806SOL    HW237258   3.280  11.347   6.587
11807SOL     OW37259  13.512   2.112   3.613
11807SOL    HW137260  13.532   2.044   3.677
11807SOL    HW237261  13.417   2.119   3.613
11808SOL     OW37262   0.999  10.394   0.369
11808SOL    HW137263   0.907  10.412   0.384
11808SOL    HW237264   1.000  10.305   0.332
11809SOL     OW37265   8.309  14.369  12.421
11809SOL    HW137266   8.395  14.378  12.380
11809SOL    HW237267   8.328  14.346  12.512
11810SOL     OW37268  13.759   8.939   2.418
11810SOL    HW137269  13.725   8.966   2.333
11810SOL    HW237270  13.796   8.852   2.402
11811SOL     OW37271   5.614   2.395   3.568
11811SOL    HW137272   5.557   2.318   3.574
11811SOL    HW237273   5.690   2.373   3.622
11812SOL     OW37274   0.958  14.007   7.655
11812SOL    HW137275   0.881  14.063   7.644
11812SOL    HW237276   1.016  14.057   7.713
11813SOL     OW37277   0.823   6.396  10.592
11813SOL    HW137278   0.756   6.387  10.660
11813SOL    HW237279   0.775   6.379  10.510
11814SOL     OW37280  13.438   8.379   9.524
11814SOL    HW137281  13.390   8.402   9.445
11814SOL    HW237282  13.371   8.350   9.586
11815SOL     OW37283  10.194   6.336   4.412
11815SOL    HW137284  10.156   6.249   4.407
11815SOL    HW237285  10.124   6.391   4.446
11816SOL     OW37286   0.148   6.498   3.626
11816SOL    HW137287   0.218   6.464   3.682
11816SOL    HW237288   0.178   6.482   3.537
11817SOL     OW37289   9.413  14.014  11.962
11817SOL    HW137290   9.326  14.045  11.936
11817SOL    HW237291   9.425  14.047  12.051
11818SOL     OW37292  11.336  10.934   8.632
11818SOL    HW137293  11.327  10.843   8.659
11818SOL    HW237294  11.247  10.962   8.611
11819SOL     OW37295   0.393  11.649   5.350
11819SOL    HW137296   0.419  11.673   5.439
11819SOL    HW237297   0.472  11.611   5.311
11820SOL     OW37298   5.394   5.776   2.352
11820SOL    HW137299   5.329   5.733   2.295
11820SOL    HW237300   5.472   5.783   2.297
11821SOL     OW37301  12.690   3.246   5.997
11821SOL    HW137302  12.662   3.258   6.087
11821SOL    HW237303  12.611   3.258   5.945
11822SOL     OW37304   3.406   5.857   2.324
11822SOL    HW137305   3.370   5.807   2.397
11822SOL    HW237306   3.470   5.916   2.364
11823SOL     OW37307   7.562   2.361   2.296
11823SOL    HW137308   7.482   2.328   2.338
11823SOL    HW237309   7.540   2.365   2.203
11824SOL     OW37310   5.478   0.894  11.194
11824SOL    HW137311   5.466   0.844  11.113
11824SOL    HW237312   5.389   0.913  11.224
11825SOL     OW37313  14.218   5.537   5.021
11825SOL    HW137314  14.248   5.447   5.032
11825SOL    HW237315  14.123   5.533   5.036
11826SOL     OW37316   3.403   9.461   4.498
11826SOL    HW137317   3.480   9.430   4.545
11826SOL    HW237318   3.347   9.384   4.489
11827SOL     OW37319   4.633  14.327   6.528
11827SOL    HW137320   4.679  14.411   6.531
11827SOL    HW237321   4.697  14.263   6.559
11828SOL     OW37322   5.532   6.735  12.472
11828SOL    HW137323   5.458   6.744  12.412
11828SOL    HW237324   5.535   6.818  12.519
11829SOL     OW37325   7.091   4.524   1.006
11829SOL    HW137326   7.132   4.442   0.978
11829SOL    HW237327   6.997   4.509   0.995
11830SOL     OW37328   9.769   8.432   5.063
11830SOL    HW137329   9.690   8.461   5.109
11830SOL    HW237330   9.747   8.345   5.029
11831SOL     OW37331  12.120   7.937   4.130
11831SOL    HW137332  12.203   7.920   4.176
11831SOL    HW237333  12.147   7.981   4.049
11832SOL     OW37334  11.693  14.537   5.556
11832SOL    HW137335  11.761  14.602   5.571
11832SOL    HW237336  11.638  14.540   5.634
11833SOL     OW37337   4.829  11.607  14.635
11833SOL    HW137338   4.904  11.627  14.690
11833SOL    HW237339   4.778  11.689  14.634
11834SOL     OW37340   8.664  12.138   1.641
11834SOL    HW137341   8.725  12.128   1.568
11834SOL    HW237342   8.694  12.217   1.686
11835SOL     OW37343   2.782   5.106   3.823
11835SOL    HW137344   2.785   5.133   3.915
11835SOL    HW237345   2.844   5.034   3.817
11836SOL     OW37346   2.817   0.880  13.111
11836SOL    HW137347   2.856   0.929  13.183
11836SOL    HW237348   2.875   0.895  13.037
11837SOL     OW37349   7.571  11.145   0.383
11837SOL    HW137350   7.527  11.202   0.321
11837SOL    HW237351   7.518  11.065   0.385
11838SOL     OW37352  14.514   1.355   4.764
11838SOL    HW137353  14.560   1.307   4.833
11838SOL    HW237354  14.520   1.300   4.687
11839SOL     OW37355   9.456   9.456   9.954
11839SOL    HW137356   9.477   9.373   9.911
11839SOL    HW237357   9.360   9.454   9.964
11840SOL     OW37358   0.647   3.289   0.541
11840SOL    HW137359   0.629   3.321   0.629
11840SOL    HW237360   0.618   3.359   0.483
11841SOL     OW37361   8.493  12.804   7.083
11841SOL    HW137362   8.530  12.753   7.011
11841SOL    HW237363   8.561  12.869   7.103
11842SOL     OW37364  12.021  11.626   1.993
11842SOL    HW137365  11.987  11.639   1.904
11842SOL    HW237366  11.955  11.665   2.050
11843SOL     OW37367   1.287  11.032  11.156
11843SOL    HW137368   1.258  11.121  11.136
11843SOL    HW237369   1.380  11.032  11.133
11844SOL     OW37370  14.730   4.271  13.892
11844SOL    HW137371  14.641   4.255  13.923
11844SOL    HW237372  14.762   4.184  13.867
11845SOL     OW37373   3.956   0.612   0.467
11845SOL    HW137374   3.944   0.633   0.374
11845SOL    HW237375   3.874   0.571   0.493
11846SOL     OW37376   6.515  10.673   2.493
11846SOL    HW137377   6.452  10.604   2.471
11846SOL    HW237378   6.527  10.721   2.410
11847SOL     OW37379   2.632   7.972  13.141
11847SOL    HW137380   2.694   8.036  13.106
11847SOL    HW237381   2.615   8.002  13.231
11848SOL     OW37382  10.228   7.555   4.855
11848SOL    HW137383  10.179   7.612   4.915
11848SOL    HW237384  10.195   7.578   4.768
11849SOL     OW37385   6.344  14.801   8.460
11849SOL    HW137386   6.318  14.867   8.396
11849SOL    HW237387   6.270  14.739   8.462
11850SOL     OW37388   7.772   8.840   6.256
11850SOL    HW137389   7.771   8.849   6.160
11850SOL    HW237390   7.757   8.929   6.288
11851SOL     OW37391   1.715  13.709  14.681
11851SOL    HW137392   1.805  13.676  14.684
11851SOL    HW237393   1.700  13.728  14.588
11852SOL     OW37394   8.738  12.914   1.545
11852SOL    HW137395   8.684  12.985   1.579
11852SOL    HW237396   8.697  12.890   1.462
11853SOL     OW37397  10.986  11.737   4.429
11853SOL    HW137398  11.001  11.817   4.380
11853SOL    HW237399  10.943  11.678   4.367
11854SOL     OW37400   2.641  11.555   5.887
11854SOL    HW137401   2.651  11.473   5.838
11854SOL    HW237402   2.681  11.621   5.831
11855SOL     OW37403   8.892   9.261   1.810
11855SOL    HW137404   8.969   9.236   1.758
11855SOL    HW237405   8.829   9.190   1.794
11856SOL     OW37406  12.586   2.709  13.248
11856SOL    HW137407  12.592   2.804  13.241
11856SOL    HW237408  12.618   2.677  13.164
11857SOL     OW37409   1.930   3.337  14.231
11857SOL    HW137410   1.875   3.411  14.205
11857SOL    HW237411   2.019   3.373  14.232
11858SOL     OW37412  13.862   5.147   8.166
11858SOL    HW137413  13.888   5.064   8.125
11858SOL    HW237414  13.926   5.210   8.134
11859SOL     OW37415  12.813   6.650   1.232
11859SOL    HW137416  12.883   6.690   1.181
11859SOL    HW237417  12.735   6.702   1.209
11860SOL     OW37418  12.326   4.593  13.061
11860SOL    HW137419  12.288   4.539  12.992
11860SOL    HW237420  12.398   4.640  13.018
11861SOL     OW37421   8.227   7.499  13.330
11861SOL    HW137422   8.301   7.486  13.271
11861SOL    HW237423   8.179   7.416  13.327
11862SOL     OW37424  10.062  13.469  10.401
11862SOL    HW137425   9.971  13.451  10.377
11862SOL    HW237426  10.103  13.382  10.407
11863SOL     OW37427  11.566  11.810   2.415
11863SOL    HW137428  11.500  11.782   2.352
11863SOL    HW237429  11.630  11.858   2.363
11864SOL     OW37430  14.765   6.340   3.210
11864SOL    HW137431  14.702   6.396   3.255
11864SOL    HW237432  14.732   6.251   3.225
11865SOL     OW37433  11.083   2.760   0.264
11865SOL    HW137434  10.993   2.744   0.235
11865SOL    HW237435  11.080   2.752   0.359
11866SOL     OW37436  13.817   1.059   3.141
11866SOL    HW137437  13.908   1.034   3.127
11866SOL    HW237438  13.810   1.077   3.235
11867SOL     OW37439   2.844   9.471  12.161
11867SOL    HW137440   2.757   9.461  12.198
11867SOL    HW237441   2.833   9.455  12.067
11868SOL     OW37442   5.795   1.873  14.808
11868SOL    HW137443   5.875   1.820  14.812
11868SOL    HW237444   5.822   1.960  14.834
11869SOL     OW37445  11.632  13.152  10.526
11869SOL    HW137446  11.538  13.160  10.543
11869SOL    HW237447  11.668  13.235  10.557
11870SOL     OW37448  11.107   7.559   0.060
11870SOL    HW137449  11.106   7.463   0.064
11870SOL    HW237450  11.019   7.583   0.032
11871SOL     OW37451   7.844   3.661   0.265
11871SOL    HW137452   7.767   3.606   0.251
11871SOL    HW237453   7.811   3.735   0.316
11872SOL     OW37454   7.304   9.928   2.095
11872SOL    HW137455   7.308   9.851   2.151
11872SOL    HW237456   7.381   9.920   2.038
11873SOL     OW37457   3.652  12.210  12.762
11873SOL    HW137458   3.644  12.271  12.688
11873SOL    HW237459   3.636  12.265  12.839
11874SOL     OW37460  12.269  10.752   9.078
11874SOL    HW137461  12.188  10.777   9.121
11874SOL    HW237462  12.292  10.668   9.116
11875SOL     OW37463   6.346   8.727   0.923
11875SOL    HW137464   6.376   8.808   0.964
11875SOL    HW237465   6.366   8.738   0.830
11876SOL     OW37466   4.063  10.316   6.299
11876SOL    HW137467   3.985  10.371   6.313
11876SOL    HW237468   4.104  10.353   6.221
11877SOL     OW37469   3.750  12.899   9.164
11877SOL    HW137470   3.677  12.949   9.200
11877SOL    HW237471   3.710  12.824   9.122
11878SOL     OW37472   2.945   1.766   9.494
11878SOL    HW137473   2.914   1.854   9.515
11878SOL    HW237474   2.940   1.761   9.399
11879SOL     OW37475   3.577   7.072  14.559
11879SOL    HW137476   3.607   7.159  14.533
11879SOL    HW237477   3.499   7.088  14.611
11880SOL     OW37478   1.311   2.193   5.748
11880SOL    HW137479   1.380   2.185   5.813
11880SOL    HW237480   1.278   2.282   5.759
11881SOL     OW37481  13.266  11.549   8.547
11881SOL    HW137482  13.275  11.590   8.633
11881SOL    HW237483  13.250  11.456   8.567
11882SOL     OW37484  12.655   7.442   2.284
11882SOL    HW137485  12.609   7.358   2.296
11882SOL    HW237486  12.622   7.497   2.355
11883SOL     OW37487  13.425   5.438  10.223
11883SOL    HW137488  13.388   5.527  10.223
11883SOL    HW237489  13.496   5.442  10.287
11884SOL     OW37490   6.124   8.101   1.605
11884SOL    HW137491   6.034   8.069   1.592
11884SOL    HW237492   6.162   8.039   1.668
11885SOL     OW37493   0.442   1.665  14.747
11885SOL    HW137494   0.424   1.730  14.815
11885SOL    HW237495   0.355   1.631  14.724
11886SOL     OW37496  14.859   2.780   7.782
11886SOL    HW137497  14.868   2.691   7.817
11886SOL    HW237498  14.765   2.798   7.786
11887SOL     OW37499   9.756   3.255   3.515
11887SOL    HW137500   9.769   3.304   3.597
11887SOL    HW237501   9.787   3.166   3.536
11888SOL     OW37502   0.849   2.017   0.706
11888SOL    HW137503   0.874   1.986   0.620
11888SOL    HW237504   0.762   2.057   0.693
11889SOL     OW37505  10.122  14.444   2.392
11889SOL    HW137506  10.170  14.526   2.402
11889SOL    HW237507  10.032  14.465   2.418
11890SOL     OW37508   3.213   2.071   7.127
11890SOL    HW137509   3.178   2.076   7.038
11890SOL    HW237510   3.193   1.981   7.155
11891SOL     OW37511   6.897   4.628   1.245
11891SOL    HW137512   6.920   4.667   1.329
11891SOL    HW237513   6.866   4.540   1.267
11892SOL     OW37514  13.490  13.897  12.293
11892SOL    HW137515  13.567  13.947  12.266
11892SOL    HW237516  13.416  13.943  12.254
11893SOL     OW37517   2.699   9.089  10.627
11893SOL    HW137518   2.788   9.075  10.658
11893SOL    HW237519   2.699   9.179  10.594
11894SOL     OW37520   3.325   2.295   0.341
11894SOL    HW137521   3.348   2.203   0.332
11894SOL    HW237522   3.407   2.338   0.366
11895SOL     OW37523   0.516   4.462   5.742
11895SOL    HW137524   0.423   4.442   5.756
11895SOL    HW237525   0.538   4.420   5.660
11896SOL     OW37526  12.156  10.124  11.996
11896SOL    HW137527  12.063  10.109  11.982
11896SOL    HW237528  12.188  10.155  11.911
11897SOL     OW37529   1.795   0.886   7.229
11897SOL    HW137530   1.768   0.946   7.160
11897SOL    HW237531   1.777   0.932   7.311
11898SOL     OW37532   0.507   5.859  11.896
11898SOL    HW137533   0.473   5.881  11.809
11898SOL    HW237534   0.602   5.862  11.886
11899SOL     OW37535   4.273  14.707  13.593
11899SOL    HW137536   4.224  14.789  13.592
11899SOL    HW237537   4.327  14.712  13.671
11900SOL     OW37538   9.583   5.221   1.851
11900SOL    HW137539   9.569   5.237   1.945
11900SOL    HW237540   9.678   5.229   1.840
11901SOL     OW37541   4.096  14.343   9.221
11901SOL    HW137542   4.161  14.387   9.167
11901SOL    HW237543   4.086  14.257   9.181
11902SOL     OW37544   9.770  10.339   8.171
11902SOL    HW137545   9.727  10.293   8.243
11902SOL    HW237546   9.796  10.423   8.208
11903SOL     OW37547  11.419   1.260   9.675
11903SOL    HW137548  11.468   1.301   9.746
11903SOL    HW237549  11.486   1.238   9.609
11904SOL     OW37550   3.138  10.562   8.714
11904SOL    HW137551   3.173  10.478   8.744
11904SOL    HW237552   3.047  10.563   8.743
11905SOL     OW37553   3.825   3.018  14.732
11905SOL    HW137554   3.901   3.027  14.789
11905SOL    HW237555   3.784   3.105  14.733
11906SOL     OW37556   5.021   0.450   2.450
11906SOL    HW137557   5.100   0.505   2.456
11906SOL    HW237558   5.021   0.399   2.530
11907SOL     OW37559   1.325   1.241   4.018
11907SOL    HW137560   1.413   1.257   4.053
11907SOL    HW237561   1.326   1.148   3.993
11908SOL     OW37562   0.056  14.162  11.580
11908SOL    HW137563   0.108  14.086  11.552
11908SOL    HW237564  14.847  14.127  11.590
11909SOL     OW37565   1.911   4.727   0.406
11909SOL    HW137566   1.881   4.655   0.351
11909SOL    HW237567   1.945   4.684   0.485
11910SOL     OW37568   8.735   2.719  13.007
11910SOL    HW137569   8.819   2.763  12.992
11910SOL    HW237570   8.757   2.628  13.022
11911SOL     OW37571  13.158   6.092   2.035
11911SOL    HW137572  13.069   6.123   2.052
11911SOL    HW237573  13.211   6.135   2.102
11912SOL     OW37574   7.637   8.064   0.519
11912SOL    HW137575   7.644   8.159   0.512
11912SOL    HW237576   7.614   8.048   0.610
11913SOL     OW37577   6.189   9.640  12.539
11913SOL    HW137578   6.219   9.695  12.611
11913SOL    HW237579   6.220   9.552  12.561
11914SOL     OW37580   7.042   7.478   3.310
11914SOL    HW137581   7.057   7.551   3.370
11914SOL    HW237582   7.120   7.475   3.255
11915SOL     OW37583  14.528  12.777   0.979
11915SOL    HW137584  14.574  12.745   1.056
11915SOL    HW237585  14.596  12.786   0.912
11916SOL     OW37586  11.756  10.136   9.597
11916SOL    HW137587  11.707  10.172   9.523
11916SOL    HW237588  11.709  10.166   9.674
11917SOL     OW37589   2.980   9.083   4.494
11917SOL    HW137590   2.907   9.054   4.548
11917SOL    HW237591   2.966   9.042   4.409
11918SOL     OW37592   1.283   2.592  10.831
11918SOL    HW137593   1.295   2.681  10.799
11918SOL    HW237594   1.296   2.599  10.926
11919SOL     OW37595   8.431   1.475   9.428
11919SOL    HW137596   8.363   1.409   9.417
11919SOL    HW237597   8.455   1.470   9.520
11920SOL     OW37598   6.750   4.981   6.548
11920SOL    HW137599   6.685   5.038   6.509
11920SOL    HW237600   6.795   5.036   6.612
11921SOL     OW37601   0.842  11.020   4.395
11921SOL    HW137602   0.792  11.028   4.313
11921SOL    HW237603   0.933  11.017   4.367
11922SOL     OW37604  13.167   0.309  10.006
11922SOL    HW137605  13.073   0.302   9.990
11922SOL    HW237606  13.196   0.220  10.026
11923SOL     OW37607   7.221  12.813  13.298
11923SOL    HW137608   7.247  12.746  13.362
11923SOL    HW237609   7.136  12.784  13.267
11924SOL     OW37610   0.971  10.355  13.965
11924SOL    HW137611   0.889  10.349  14.012
11924SOL    HW237612   1.011  10.436  13.997
11925SOL     OW37613   1.313   9.236   3.773
11925SOL    HW137614   1.229   9.234   3.728
11925SOL    HW237615   1.292   9.222   3.865
11926SOL     OW37616  13.005   3.515   4.403
11926SOL    HW137617  13.024   3.421   4.410
11926SOL    HW237618  12.914   3.522   4.430
11927SOL     OW37619   5.612   2.745  11.687
11927SOL    HW137620   5.671   2.683  11.727
11927SOL    HW237621   5.574   2.793  11.760
11928SOL     OW37622  14.454  10.334  10.219
11928SOL    HW137623  14.408  10.250  10.215
11928SOL    HW237624  14.399  10.389  10.275
11929SOL     OW37625   3.511   6.434  13.629
11929SOL    HW137626   3.544   6.511  13.583
11929SOL    HW237627   3.576   6.416  13.697
11930SOL     OW37628   3.873   0.199  12.677
11930SOL    HW137629   3.881   0.256  12.601
11930SOL    HW237630   3.823   0.250  12.741
11931SOL     OW37631  10.194  14.015   8.907
11931SOL    HW137632  10.278  14.004   8.951
11931SOL    HW237633  10.149  13.932   8.920
11932SOL     OW37634   7.664   8.069  13.321
11932SOL    HW137635   7.614   8.067  13.403
11932SOL    HW237636   7.748   8.109  13.345
11933SOL     OW37637   4.544  13.571  13.815
11933SOL    HW137638   4.528  13.633  13.744
11933SOL    HW237639   4.524  13.485  13.777
11934SOL     OW37640   7.966   9.894  10.540
11934SOL    HW137641   7.950   9.837  10.616
11934SOL    HW237642   7.924   9.977  10.563
11935SOL     OW37643   1.879   7.920  13.766
11935SOL    HW137644   1.810   7.986  13.773
11935SOL    HW237645   1.959   7.970  13.747
11936SOL     OW37646   0.620   5.545   7.870
11936SOL    HW137647   0.669   5.465   7.850
11936SOL    HW237648   0.646   5.607   7.801
11937SOL     OW37649   8.262   1.216  10.823
11937SOL    HW137650   8.227   1.304  10.839
11937SOL    HW237651   8.227   1.163  10.895
11938SOL     OW37652  11.088  14.363   4.538
11938SOL    HW137653  11.000  14.397   4.555
11938SOL    HW237654  11.132  14.435   4.493
11939SOL     OW37655   6.176  14.662   6.805
11939SOL    HW137656   6.233  14.725   6.850
11939SOL    HW237657   6.091  14.706   6.800
11940SOL     OW37658   5.332  12.054  14.609
11940SOL    HW137659   5.237  12.052  14.612
11940SOL    HW237660   5.360  11.981  14.665
11941SOL     OW37661  10.184   0.586   1.565
11941SOL    HW137662  10.243   0.656   1.593
11941SOL    HW237663  10.214   0.508   1.612
11942SOL     OW37664   0.779   4.910   6.230
11942SOL    HW137665   0.705   4.857   6.258
11942SOL    HW237666   0.795   4.885   6.139
11943SOL     OW37667   4.107   0.359  10.808
11943SOL    HW137668   4.101   0.351  10.903
11943SOL    HW237669   4.179   0.420  10.793
11944SOL     OW37670   4.169   6.369   5.431
11944SOL    HW137671   4.186   6.376   5.337
11944SOL    HW237672   4.075   6.385   5.439
11945SOL     OW37673   8.045  10.348  14.453
11945SOL    HW137674   8.028  10.390  14.369
11945SOL    HW237675   8.007  10.260  14.444
11946SOL     OW37676   6.215   7.384   1.475
11946SOL    HW137677   6.238   7.430   1.555
11946SOL    HW237678   6.231   7.447   1.405
11947SOL     OW37679  12.758  12.173  13.108
11947SOL    HW137680  12.738  12.254  13.155
11947SOL    HW237681  12.731  12.190  13.018
11948SOL     OW37682   2.373   3.898   3.868
11948SOL    HW137683   2.288   3.882   3.828
11948SOL    HW237684   2.380   3.832   3.937
11949SOL     OW37685  10.228  13.649   4.958
11949SOL    HW137686  10.157  13.712   4.972
11949SOL    HW237687  10.190  13.582   4.901
11950SOL     OW37688  11.741  11.455   2.285
11950SOL    HW137689  11.752  11.488   2.374
11950SOL    HW237690  11.671  11.390   2.292
11951SOL     OW37691   8.417  11.534   2.036
11951SOL    HW137692   8.416  11.630   2.038
11951SOL    HW237693   8.331  11.509   2.069
11952SOL     OW37694  12.898   4.652   9.041
11952SOL    HW137695  12.865   4.628   8.955
11952SOL    HW237696  12.827   4.631   9.101
11953SOL     OW37697   7.078  10.514   7.266
11953SOL    HW137698   7.113  10.498   7.178
11953SOL    HW237699   7.152  10.549   7.315
11954SOL     OW37700   1.283   3.298  10.353
11954SOL    HW137701   1.378   3.303  10.362
11954SOL    HW237702   1.264   3.346  10.272
11955SOL     OW37703   1.818  12.068  11.273
11955SOL    HW137704   1.856  12.136  11.217
11955SOL    HW237705   1.792  12.114  11.353
11956SOL     OW37706   7.738   5.605   0.101
11956SOL    HW137707   7.824   5.618   0.142
11956SOL    HW237708   7.758   5.578   0.012
11957SOL     OW37709  10.111   1.548   6.533
11957SOL    HW137710  10.178   1.502   6.484
11957SOL    HW237711  10.087   1.489   6.604
11958SOL     OW37712   1.336  10.128   3.888
11958SOL    HW137713   1.305  10.212   3.853
11958SOL    HW237714   1.302  10.063   3.827
11959SOL     OW37715   8.079   3.576   7.862
11959SOL    HW137716   8.031   3.654   7.890
11959SOL    HW237717   8.158   3.575   7.916
11960SOL     OW37718   9.515   5.374  10.680
11960SOL    HW137719   9.495   5.465  10.656
11960SOL    HW237720   9.589   5.381  10.739
11961SOL     OW37721   7.907   3.961   3.675
11961SOL    HW137722   7.832   3.974   3.734
11961SOL    HW237723   7.967   4.032   3.698
11962SOL     OW37724   0.145  13.822   1.176
11962SOL    HW137725   0.215  13.845   1.237
11962SOL    HW237726   0.065  13.826   1.228
11963SOL     OW37727   7.028   9.190   9.118
11963SOL    HW137728   6.980   9.233   9.188
11963SOL    HW237729   7.116   9.227   9.122
11964SOL     OW37730   7.667   2.906   4.920
11964SOL    HW137731   7.615   2.826   4.924
11964SOL    HW237732   7.621   2.968   4.977
11965SOL     OW37733  11.169   8.673   0.461
11965SOL    HW137734  11.137   8.610   0.526
11965SOL    HW237735  11.095   8.733   0.448
11966SOL     OW37736   9.505   7.781  12.457
11966SOL    HW137737   9.559   7.859  12.442
11966SOL    HW237738   9.560   7.723  12.509
11967SOL     OW37739  13.599   4.951  13.772
11967SOL    HW137740  13.608   5.003  13.852
11967SOL    HW237741  13.649   5.000  13.707
11968SOL     OW37742  14.589  11.356   6.975
11968SOL    HW137743  14.519  11.294   6.994
11968SOL    HW237744  14.560  11.438   7.015
11969SOL     OW37745  11.959   6.335  13.877
11969SOL    HW137746  11.886   6.394  13.859
11969SOL    HW237747  11.974   6.343  13.971
11970SOL     OW37748   1.122  12.339   9.010
11970SOL    HW137749   1.113  12.426   9.051
11970SOL    HW237750   1.216  12.331   8.993
11971SOL     OW37751   0.080   9.564  13.102
11971SOL    HW137752   0.006   9.601  13.150
11971SOL    HW237753   0.150   9.556  13.167
11972SOL     OW37754   0.685   7.037   5.778
11972SOL    HW137755   0.690   7.102   5.708
11972SOL    HW237756   0.750   6.971   5.754
11973SOL     OW37757  11.722   6.805   9.938
11973SOL    HW137758  11.774   6.813  10.018
11973SOL    HW237759  11.664   6.881   9.939
11974SOL     OW37760  10.861  13.733   8.670
11974SOL    HW137761  10.902  13.774   8.746
11974SOL    HW237762  10.826  13.650   8.704
11975SOL     OW37763   4.007   4.637  12.975
11975SOL    HW137764   3.947   4.608  12.907
11975SOL    HW237765   4.062   4.561  12.993
11976SOL     OW37766   4.903   6.039   5.577
11976SOL    HW137767   4.834   6.022   5.641
11976SOL    HW237768   4.874   6.119   5.532
11977SOL     OW37769   3.202  10.640   4.061
11977SOL    HW137770   3.240  10.561   4.099
11977SOL    HW237771   3.256  10.711   4.096
11978SOL     OW37772  14.687   7.418   6.162
11978SOL    HW137773  14.641   7.488   6.117
11978SOL    HW237774  14.657   7.338   6.118
11979SOL     OW37775   4.537  11.233   6.152
11979SOL    HW137776   4.498  11.273   6.074
11979SOL    HW237777   4.517  11.140   6.144
11980SOL     OW37778   2.107   6.693   5.555
11980SOL    HW137779   2.069   6.631   5.618
11980SOL    HW237780   2.201   6.676   5.558
11981SOL     OW37781   7.147   3.456   1.296
11981SOL    HW137782   7.092   3.460   1.374
11981SOL    HW237783   7.086   3.436   1.225
11982SOL     OW37784   6.090   4.769   7.852
11982SOL    HW137785   6.017   4.723   7.811
11982SOL    HW237786   6.113   4.714   7.927
11983SOL     OW37787  12.322   3.366   8.608
11983SOL    HW137788  12.320   3.272   8.624
11983SOL    HW237789  12.414   3.391   8.623
11984SOL     OW37790  11.618   9.898  10.744
11984SOL    HW137791  11.609   9.976  10.690
11984SOL    HW237792  11.644   9.931  10.830
11985SOL     OW37793   2.043   8.678  12.039
11985SOL    HW137794   1.966   8.724  12.007
11985SOL    HW237795   2.067   8.723  12.120
11986SOL     OW37796   4.918   4.350   9.710
11986SOL    HW137797   5.011   4.367   9.696
11986SOL    HW237798   4.909   4.255   9.708
11987SOL     OW37799   6.227   7.401   6.226
11987SOL    HW137800   6.285   7.341   6.180
11987SOL    HW237801   6.217   7.363   6.313
11988SOL     OW37802   2.185   7.988   0.393
11988SOL    HW137803   2.169   8.016   0.483
11988SOL    HW237804   2.216   8.067   0.348
11989SOL     OW37805   2.128  13.481  10.391
11989SOL    HW137806   2.149  13.477  10.298
11989SOL    HW237807   2.069  13.556  10.400
11990SOL     OW37808   4.494   7.253  10.476
11990SOL    HW137809   4.405   7.273  10.504
11990SOL    HW237810   4.533   7.205  10.549
11991SOL     OW37811  11.029  13.370   3.835
11991SOL    HW137812  11.028  13.356   3.930
11991SOL    HW237813  11.117  13.401   3.816
11992SOL     OW37814   2.783   0.107   4.600
11992SOL    HW137815   2.764   0.198   4.620
11992SOL    HW237816   2.872   0.094   4.631
11993SOL     OW37817   1.428   1.894   4.497
11993SOL    HW137818   1.379   1.914   4.417
11993SOL    HW237819   1.386   1.815   4.531
11994SOL     OW37820  11.694   5.461   0.818
11994SOL    HW137821  11.757   5.526   0.787
11994SOL    HW237822  11.732   5.377   0.793
11995SOL     OW37823   2.061  11.434   9.852
11995SOL    HW137824   1.984  11.386   9.883
11995SOL    HW237825   2.094  11.383   9.778
11996SOL     OW37826   3.869  10.406  11.822
11996SOL    HW137827   3.828  10.343  11.764
11996SOL    HW237828   3.878  10.485  11.769
11997SOL     OW37829  12.154  12.043   8.005
11997SOL    HW137830  12.071  12.069   8.045
11997SOL    HW237831  12.128  12.004   7.922
11998SOL     OW37832  11.984  12.873  11.036
11998SOL    HW137833  12.065  12.823  11.030
11998SOL    HW237834  12.003  12.957  10.995
11999SOL     OW37835   9.085   1.690   0.560
11999SOL    HW137836   9.051   1.602   0.572
11999SOL    HW237837   9.109   1.695   0.468
12000SOL     OW37838   9.157  11.229   2.846
12000SOL    HW137839   9.148  11.139   2.879
12000SOL    HW237840   9.111  11.228   2.762
12001SOL     OW37841  13.401  11.877  13.672
12001SOL    HW137842  13.351  11.952  13.638
12001SOL    HW237843  13.427  11.828  13.594
12002SOL     OW37844  13.337  11.230   7.290
12002SOL    HW137845  13.386  11.148   7.293
12002SOL    HW237846  13.336  11.261   7.381
12003SOL     OW37847  11.626   3.257  10.602
12003SOL    HW137848  11.543   3.278  10.560
12003SOL    HW237849  11.666   3.342  10.621
12004SOL     OW37850  13.931   6.882   5.182
12004SOL    HW137851  13.945   6.960   5.234
12004SOL    HW237852  13.896   6.914   5.099
12005SOL     OW37853  13.196   8.888   5.498
12005SOL    HW137854  13.239   8.962   5.540
12005SOL    HW237855  13.106   8.891   5.531
12006SOL     OW37856  11.886  10.270   3.006
12006SOL    HW137857  11.927  10.335   3.063
12006SOL    HW237858  11.918  10.186   3.038
12007SOL     OW37859   3.497   4.567  11.930
12007SOL    HW137860   3.523   4.506  12.000
12007SOL    HW237861   3.571   4.628  11.923
12008SOL     OW37862   2.172   9.795  14.166
12008SOL    HW137863   2.092   9.743  14.161
12008SOL    HW237864   2.235   9.738  14.210
12009SOL     OW37865   5.401   9.517   7.176
12009SOL    HW137866   5.355   9.435   7.160
12009SOL    HW237867   5.488   9.490   7.207
12010SOL     OW37868  12.605   6.445   4.932
12010SOL    HW137869  12.671   6.488   4.986
12010SOL    HW237870  12.648   6.434   4.847
12011SOL     OW37871   6.643   7.903   4.231
12011SOL    HW137872   6.643   7.966   4.159
12011SOL    HW237873   6.588   7.830   4.200
12012SOL     OW37874   3.632   5.855   4.667
12012SOL    HW137875   3.662   5.943   4.645
12012SOL    HW237876   3.700   5.796   4.633
12013SOL     OW37877   9.023   8.711  13.594
12013SOL    HW137878   8.964   8.636  13.605
12013SOL    HW237879   9.027   8.752  13.680
12014SOL     OW37880   0.099   5.933   1.046
12014SOL    HW137881   0.054   5.875   1.107
12014SOL    HW237882   0.031   5.989   1.010
12015SOL     OW37883  10.739   8.422  13.524
12015SOL    HW137884  10.729   8.505  13.571
12015SOL    HW237885  10.822   8.387  13.555
12016SOL     OW37886   4.854   5.252   4.423
12016SOL    HW137887   4.921   5.267   4.490
12016SOL    HW237888   4.895   5.192   4.362
12017SOL     OW37889   4.971   4.048   2.311
12017SOL    HW137890   4.970   4.048   2.406
12017SOL    HW237891   5.063   4.036   2.288
12018SOL     OW37892  14.240  11.351  13.550
12018SOL    HW137893  14.284  11.266  13.555
12018SOL    HW237894  14.147  11.330  13.550
12019SOL     OW37895   0.188   5.299   6.822
12019SOL    HW137896   0.215   5.211   6.797
12019SOL    HW237897   0.093   5.298   6.815
12020SOL     OW37898   8.690   2.896   6.496
12020SOL    HW137899   8.708   2.877   6.588
12020SOL    HW237900   8.720   2.819   6.449
12021SOL     OW37901  11.163   8.398   7.262
12021SOL    HW137902  11.099   8.435   7.323
12021SOL    HW237903  11.126   8.314   7.236
12022SOL     OW37904   2.123   8.069  13.458
12022SOL    HW137905   2.035   8.105  13.469
12022SOL    HW237906   2.126   8.040  13.367
12023SOL     OW37907   7.606   7.151   6.954
12023SOL    HW137908   7.574   7.141   6.864
12023SOL    HW237909   7.639   7.065   6.978
12024SOL     OW37910   7.368   1.718   5.645
12024SOL    HW137911   7.334   1.807   5.643
12024SOL    HW237912   7.301   1.665   5.602
12025SOL     OW37913   0.936   7.774   2.283
12025SOL    HW137914   0.946   7.803   2.192
12025SOL    HW237915   0.929   7.855   2.333
12026SOL     OW37916  11.020  10.285   2.511
12026SOL    HW137917  10.955  10.349   2.483
12026SOL    HW237918  11.012  10.283   2.607
12027SOL     OW37919  13.982   9.466   9.619
12027SOL    HW137920  13.927   9.512   9.556
12027SOL    HW237921  13.922   9.412   9.670
12028SOL     OW37922  12.855   1.150   7.502
12028SOL    HW137923  12.790   1.172   7.569
12028SOL    HW237924  12.939   1.168   7.544
12029SOL     OW37925   4.309   5.802   3.619
12029SOL    HW137926   4.250   5.731   3.646
12029SOL    HW237927   4.269   5.881   3.655
12030SOL     OW37928   0.700   5.723   7.691
12030SOL    HW137929   0.783   5.771   7.696
12030SOL    HW237930   0.644   5.777   7.635
12031SOL     OW37931  10.187   8.851   1.241
12031SOL    HW137932  10.277   8.875   1.219
12031SOL    HW237933  10.171   8.895   1.325
12032SOL     OW37934   0.910   0.038  13.331
12032SOL    HW137935   0.973   0.090  13.380
12032SOL    HW237936   0.830   0.041  13.383
12033SOL     OW37937   6.448   2.111   9.938
12033SOL    HW137938   6.487   2.195   9.963
12033SOL    HW237939   6.429   2.120   9.845
12034SOL     OW37940   3.645   8.298   8.521
12034SOL    HW137941   3.730   8.319   8.483
12034SOL    HW237942   3.583   8.306   8.448
12035SOL     OW37943  10.908   4.471   6.006
12035SOL    HW137944  10.848   4.528   5.958
12035SOL    HW237945  10.980   4.528   6.031
12036SOL     OW37946   2.410  14.056   2.869
12036SOL    HW137947   2.315  14.062   2.869
12036SOL    HW237948   2.430  13.975   2.823
12037SOL     OW37949  10.201   3.602   5.340
12037SOL    HW137950  10.236   3.580   5.253
12037SOL    HW237951  10.163   3.690   5.329
12038SOL     OW37952  13.529   1.098   2.746
12038SOL    HW137953  13.607   1.151   2.728
12038SOL    HW237954  13.509   1.116   2.838
12039SOL     OW37955   0.163   7.411   8.208
12039SOL    HW137956   0.104   7.426   8.135
12039SOL    HW237957   0.126   7.334   8.253
12040SOL     OW37958   7.214   2.441   4.401
12040SOL    HW137959   7.258   2.519   4.436
12040SOL    HW237960   7.142   2.476   4.348
12041SOL     OW37961  14.276  12.258   5.525
12041SOL    HW137962  14.203  12.200   5.547
12041SOL    HW237963  14.274  12.326   5.592
12042SOL     OW37964   9.781  14.133   5.268
12042SOL    HW137965   9.702  14.155   5.219
12042SOL    HW237966   9.794  14.040   5.252
12043SOL     OW37967  10.341   6.752  14.267
12043SOL    HW137968  10.425   6.730  14.306
12043SOL    HW237969  10.338   6.700  14.187
12044SOL     OW37970  11.406  11.160   9.203
12044SOL    HW137971  11.363  11.082   9.238
12044SOL    HW237972  11.334  11.216   9.173
12045SOL     OW37973   5.007   5.379  13.510
12045SOL    HW137974   4.991   5.383  13.604
12045SOL    HW237975   5.101   5.398  13.501
12046SOL     OW37976   9.181  12.923   7.353
12046SOL    HW137977   9.220  12.871   7.283
12046SOL    HW237978   9.122  12.983   7.308
12047SOL     OW37979   3.236  10.250   9.760
12047SOL    HW137980   3.173  10.308   9.804
12047SOL    HW237981   3.318  10.298   9.762
12048SOL     OW37982   0.197   9.195   1.447
12048SOL    HW137983   0.236   9.278   1.420
12048SOL    HW237984   0.103   9.208   1.435
12049SOL     OW37985   3.427   8.188   5.158
12049SOL    HW137986   3.512   8.214   5.122
12049SOL    HW237987   3.424   8.093   5.145
12050SOL     OW37988   3.810   1.060   4.790
12050SOL    HW137989   3.732   1.109   4.818
12050SOL    HW237990   3.802   1.054   4.695
12051SOL     OW37991  13.208   0.584   2.558
12051SOL    HW137992  13.260   0.513   2.519
12051SOL    HW237993  13.171   0.630   2.483
12052SOL     OW37994  11.462  10.860   0.921
12052SOL    HW137995  11.544  10.811   0.912
12052SOL    HW237996  11.429  10.868   0.832
12053SOL     OW37997   1.834   2.825   4.038
12053SOL    HW137998   1.854   2.918   4.048
12053SOL    HW237999   1.917   2.784   4.017
12054SOL     OW38000   2.402  14.722   1.511
12054SOL    HW138001   2.325  14.778   1.516
12054SOL    HW238002   2.475  14.782   1.497
12055SOL     OW38003   3.059   4.171  14.511
12055SOL    HW138004   3.030   4.097  14.565
12055SOL    HW238005   3.145   4.195  14.546
12056SOL     OW38006   6.635   3.287   7.396
12056SOL    HW138007   6.656   3.227   7.468
12056SOL    HW238008   6.720   3.321   7.368
12057SOL     OW38009   9.141  12.707  12.927
12057SOL    HW138010   9.148  12.612  12.925
12057SOL    HW238011   9.232  12.737  12.931
12058SOL     OW38012  14.313   8.895  12.971
12058SOL    HW138013  14.317   8.990  12.981
12058SOL    HW238014  14.241   8.868  13.028
12059SOL     OW38015   6.387   5.220   7.531
12059SOL    HW138016   6.362   5.210   7.439
12059SOL    HW238017   6.472   5.175   7.537
12060SOL     OW38018   7.566   7.096   5.232
12060SOL    HW138019   7.570   7.026   5.297
12060SOL    HW238020   7.650   7.142   5.240
12061SOL     OW38021   7.925  13.870   4.253
12061SOL    HW138022   7.855  13.807   4.234
12061SOL    HW238023   7.983  13.826   4.314
12062SOL     OW38024   9.469   0.081   3.033
12062SOL    HW138025   9.498   0.124   3.114
12062SOL    HW238026   9.524   0.003   3.026
12063SOL     OW38027  11.746   2.154  11.368
12063SOL    HW138028  11.827   2.140  11.417
12063SOL    HW238029  11.701   2.224  11.415
12064SOL     OW38030  14.567  13.597   1.436
12064SOL    HW138031  14.610  13.561   1.514
12064SOL    HW238032  14.639  13.612   1.375
12065SOL     OW38033   6.425  12.753   6.847
12065SOL    HW138034   6.357  12.818   6.865
12065SOL    HW238035   6.444  12.715   6.933
12066SOL     OW38036   8.483  13.748  12.567
12066SOL    HW138037   8.437  13.665  12.555
12066SOL    HW238038   8.467  13.771  12.659
12067SOL     OW38039  14.397   0.541   3.177
12067SOL    HW138040  14.313   0.578   3.150
12067SOL    HW238041  14.374   0.459   3.222
12068SOL     OW38042  11.292   1.719  12.517
12068SOL    HW138043  11.302   1.632  12.478
12068SOL    HW238044  11.282   1.702  12.610
12069SOL     OW38045   6.894  10.922  13.718
12069SOL    HW138046   6.890  10.972  13.636
12069SOL    HW238047   6.856  10.981  13.784
12070SOL     OW38048  14.579   4.548  12.656
12070SOL    HW138049  14.526   4.627  12.643
12070SOL    HW238050  14.516   4.482  12.687
12071SOL     OW38051  12.902   3.745  12.739
12071SOL    HW138052  12.861   3.724  12.823
12071SOL    HW238053  12.923   3.838  12.744
12072SOL     OW38054   3.458   1.510   4.909
12072SOL    HW138055   3.532   1.460   4.874
12072SOL    HW238056   3.381   1.458   4.887
12073SOL     OW38057   0.474   9.622   3.685
12073SOL    HW138058   0.481   9.563   3.759
12073SOL    HW238059   0.446   9.567   3.612
12074SOL     OW38060   1.039   2.473   5.407
12074SOL    HW138061   1.059   2.379   5.399
12074SOL    HW238062   1.123   2.517   5.393
12075SOL     OW38063   0.841  10.235   6.197
12075SOL    HW138064   0.806  10.159   6.245
12075SOL    HW238065   0.919  10.202   6.154
12076SOL     OW38066   0.395   0.951   3.182
12076SOL    HW138067   0.310   0.969   3.222
12076SOL    HW238068   0.447   0.910   3.251
12077SOL     OW38069   3.222   4.014  11.889
12077SOL    HW138070   3.176   4.066  11.823
12077SOL    HW238071   3.312   4.045  11.885
12078SOL     OW38072  10.773   9.645  12.551
12078SOL    HW138073  10.851   9.652  12.495
12078SOL    HW238074  10.784   9.562  12.597
12079SOL     OW38075   2.492   1.304   4.607
12079SOL    HW138076   2.547   1.337   4.678
12079SOL    HW238077   2.553   1.273   4.541
12080SOL     OW38078   5.440  11.054  12.924
12080SOL    HW138079   5.415  11.128  12.868
12080SOL    HW238080   5.358  11.006  12.937
12081SOL     OW38081   3.701  14.535   3.765
12081SOL    HW138082   3.667  14.446   3.757
12081SOL    HW238083   3.766  14.529   3.835
12082SOL     OW38084   5.446   3.706  11.881
12082SOL    HW138085   5.528   3.661  11.866
12082SOL    HW238086   5.449   3.730  11.974
12083SOL     OW38087   2.395   9.061   2.302
12083SOL    HW138088   2.475   9.045   2.352
12083SOL    HW238089   2.336   8.990   2.327
12084SOL     OW38090   3.397  10.104   2.181
12084SOL    HW138091   3.407  10.012   2.156
12084SOL    HW238092   3.381  10.150   2.099
12085SOL     OW38093   0.143  11.207  12.503
12085SOL    HW138094   0.212  11.204  12.568
12085SOL    HW238095   0.083  11.136  12.527
12086SOL     OW38096   2.171   9.840   9.475
12086SOL    HW138097   2.198   9.829   9.384
12086SOL    HW238098   2.172   9.934   9.489
12087SOL     OW38099   9.345  12.415  13.363
12087SOL    HW138100   9.403  12.339  13.365
12087SOL    HW238101   9.284  12.398  13.291
12088SOL     OW38102   3.947   8.773  10.028
12088SOL    HW138103   3.909   8.701   9.978
12088SOL    HW238104   3.944   8.744  10.119
12089SOL     OW38105   1.923   7.343   5.414
12089SOL    HW138106   1.972   7.367   5.336
12089SOL    HW238107   1.849   7.292   5.382
12090SOL     OW38108  12.993   2.343   8.243
12090SOL    HW138109  13.021   2.385   8.324
12090SOL    HW238110  12.967   2.415   8.186
12091SOL     OW38111   1.550  11.504  14.474
12091SOL    HW138112   1.516  11.584  14.435
12091SOL    HW238113   1.530  11.512  14.567
12092SOL     OW38114   1.311  12.979   4.810
12092SOL    HW138115   1.228  12.951   4.772
12092SOL    HW238116   1.337  12.907   4.867
12093SOL     OW38117   7.645  14.565   6.881
12093SOL    HW138118   7.719  14.624   6.868
12093SOL    HW238119   7.684  14.483   6.911
12094SOL     OW38120   0.038   3.981   2.739
12094SOL    HW138121   0.074   4.050   2.795
12094SOL    HW238122  14.857   4.026   2.681
12095SOL     OW38123  10.095  10.534  13.559
12095SOL    HW138124  10.000  10.525  13.561
12095SOL    HW238125  10.111  10.590  13.482
12096SOL     OW38126   3.103   9.492  14.232
12096SOL    HW138127   3.083   9.445  14.313
12096SOL    HW238128   3.062   9.578  14.243
12097SOL     OW38129   4.130   7.163   5.091
12097SOL    HW138130   4.051   7.182   5.141
12097SOL    HW238131   4.199   7.211   5.138
12098SOL     OW38132   3.067   1.520  13.459
12098SOL    HW138133   3.033   1.589  13.516
12098SOL    HW238134   3.156   1.547  13.438
12099SOL     OW38135   8.157   6.001   8.253
12099SOL    HW138136   8.250   6.026   8.251
12099SOL    HW238137   8.136   5.979   8.162
12100SOL     OW38138  10.007   6.416   4.208
12100SOL    HW138139  10.014   6.379   4.296
12100SOL    HW238140  10.097   6.428   4.179
12101SOL     OW38141  12.577  11.807   1.968
12101SOL    HW138142  12.604  11.729   2.016
12101SOL    HW238143  12.597  11.788   1.877
12102SOL     OW38144  10.161   3.205  12.194
12102SOL    HW138145  10.134   3.184  12.283
12102SOL    HW238146  10.079   3.218  12.146
12103SOL     OW38147  13.934  11.628   5.263
12103SOL    HW138148  14.000  11.644   5.330
12103SOL    HW238149  13.855  11.671   5.297
12104SOL     OW38150   9.083   2.593   8.933
12104SOL    HW138151   9.106   2.613   9.024
12104SOL    HW238152   9.151   2.638   8.881
12105SOL     OW38153   1.061  11.311   1.698
12105SOL    HW138154   0.975  11.276   1.675
12105SOL    HW238155   1.112  11.234   1.723
12106SOL     OW38156  13.569   7.369   3.586
12106SOL    HW138157  13.561   7.452   3.635
12106SOL    HW238158  13.641   7.323   3.629
12107SOL     OW38159  13.206   4.211   4.735
12107SOL    HW138160  13.276   4.201   4.800
12107SOL    HW238161  13.158   4.129   4.739
12108SOL     OW38162   9.825   7.648   6.927
12108SOL    HW138163   9.815   7.696   7.009
12108SOL    HW238164   9.740   7.654   6.884
12109SOL     OW38165   8.415   9.902  11.205
12109SOL    HW138166   8.467   9.853  11.269
12109SOL    HW238167   8.435   9.860  11.121
12110SOL     OW38168   2.396  13.933   6.549
12110SOL    HW138169   2.362  14.019   6.576
12110SOL    HW238170   2.433  13.949   6.462
12111SOL     OW38171   1.734  10.751  14.136
12111SOL    HW138172   1.795  10.822  14.154
12111SOL    HW238173   1.687  10.780  14.057
12112SOL     OW38174   3.170   6.657   3.204
12112SOL    HW138175   3.184   6.737   3.255
12112SOL    HW238176   3.254   6.641   3.162
12113SOL     OW38177  13.116   0.801   7.456
12113SOL    HW138178  13.037   0.766   7.414
12113SOL    HW238179  13.091   0.890   7.483
12114SOL     OW38180   8.570   3.486   4.784
12114SOL    HW138181   8.545   3.578   4.775
12114SOL    HW238182   8.660   3.488   4.816
12115SOL     OW38183   3.600  12.795   7.961
12115SOL    HW138184   3.625  12.728   7.898
12115SOL    HW238185   3.507  12.777   7.980
12116SOL     OW38186   8.733   3.265   1.652
12116SOL    HW138187   8.733   3.360   1.644
12116SOL    HW238188   8.641   3.242   1.663
12117SOL     OW38189   0.657   6.906   9.624
12117SOL    HW138190   0.604   6.883   9.548
12117SOL    HW238191   0.600   6.889   9.699
12118SOL     OW38192   1.962   7.788   5.356
12118SOL    HW138193   1.958   7.713   5.415
12118SOL    HW238194   1.911   7.856   5.399
12119SOL     OW38195   3.034   7.850  13.578
12119SOL    HW138196   2.964   7.908  13.548
12119SOL    HW238197   2.989   7.771  13.608
12120SOL     OW38198   6.606  14.640   5.200
12120SOL    HW138199   6.688  14.624   5.154
12120SOL    HW238200   6.549  14.678   5.133
12121SOL     OW38201   7.393   1.396   2.800
12121SOL    HW138202   7.303   1.428   2.800
12121SOL    HW238203   7.435   1.440   2.726
12122SOL     OW38204   1.554   4.684   7.683
12122SOL    HW138205   1.460   4.668   7.683
12122SOL    HW238206   1.565   4.767   7.635
12123SOL     OW38207   7.884  12.972   5.466
12123SOL    HW138208   7.929  12.887   5.463
12123SOL    HW238209   7.840  12.972   5.551
12124SOL     OW38210   6.762   3.516   4.409
12124SOL    HW138211   6.811   3.531   4.490
12124SOL    HW238212   6.675   3.488   4.438
12125SOL     OW38213   2.147  14.319   6.157
12125SOL    HW138214   2.134  14.367   6.239
12125SOL    HW238215   2.060  14.318   6.116
12126SOL     OW38216   9.683   5.120   2.704
12126SOL    HW138217   9.760   5.066   2.690
12126SOL    HW238218   9.716   5.210   2.705
12127SOL     OW38219  14.052   7.584   3.003
12127SOL    HW138220  14.084   7.499   2.975
12127SOL    HW238221  14.130   7.638   3.011
12128SOL     OW38222   3.036   8.430  14.641
12128SOL    HW138223   2.990   8.360  14.688
12128SOL    HW238224   3.124   8.431  14.678
12129SOL     OW38225  10.095  14.605   8.696
12129SOL    HW138226  10.099  14.627   8.603
12129SOL    HW238227  10.002  14.604   8.717
12130SOL     OW38228   2.748   3.420   6.893
12130SOL    HW138229   2.783   3.421   6.982
12130SOL    HW238230   2.798   3.353   6.847
12131SOL     OW38231   7.753   4.046   4.296
12131SOL    HW138232   7.754   4.130   4.251
12131SOL    HW238233   7.726   3.983   4.229
12132SOL     OW38234   0.492   1.974   9.253
12132SOL    HW138235   0.504   1.962   9.348
12132SOL    HW238236   0.435   2.050   9.246
12133SOL     OW38237   9.566   7.686  11.855
12133SOL    HW138238   9.512   7.765  11.851
12133SOL    HW238239   9.503   7.615  11.865
12134SOL     OW38240   9.948   9.201   4.891
12134SOL    HW138241   9.967   9.187   4.798
12134SOL    HW238242   9.877   9.266   4.891
12135SOL     OW38243  14.581   2.486   2.525
12135SOL    HW138244  14.644   2.492   2.597
12135SOL    HW238245  14.623   2.427   2.462
12136SOL     OW38246  10.281  12.203   9.410
12136SOL    HW138247  10.246  12.287   9.381
12136SOL    HW238248  10.340  12.176   9.340
12137SOL     OW38249   2.497   2.382   4.944
12137SOL    HW138250   2.573   2.324   4.947
12137SOL    HW238251   2.499   2.421   4.857
12138SOL     OW38252  10.134   9.814   7.000
12138SOL    HW138253  10.160   9.886   7.058
12138SOL    HW238254  10.077   9.759   7.054
12139SOL     OW38255   8.536   9.315  10.190
12139SOL    HW138256   8.532   9.410  10.190
12139SOL    HW238257   8.603   9.293  10.126
12140SOL     OW38258   3.464   0.756  14.563
12140SOL    HW138259   3.513   0.745  14.644
12140SOL    HW238260   3.375   0.776  14.591
12141SOL     OW38261   5.412   5.348  11.182
12141SOL    HW138262   5.391   5.440  11.199
12141SOL    HW238263   5.407   5.340  11.087
12142SOL     OW38264   8.270  12.327   3.982
12142SOL    HW138265   8.357  12.305   4.013
12142SOL    HW238266   8.240  12.249   3.935
12143SOL     OW38267   2.242  14.204   4.571
12143SOL    HW138268   2.246  14.299   4.567
12143SOL    HW238269   2.164  14.181   4.521
12144SOL     OW38270   1.206   1.978   1.311
12144SOL    HW138271   1.162   2.001   1.394
12144SOL    HW238272   1.287   2.030   1.313
12145SOL     OW38273  10.918  11.741  10.517
12145SOL    HW138274  10.876  11.706  10.595
12145SOL    HW238275  11.009  11.756  10.543
12146SOL     OW38276   8.848   2.214   6.656
12146SOL    HW138277   8.914   2.277   6.627
12146SOL    HW238278   8.883   2.179   6.738
12147SOL     OW38279  14.105   7.697   0.936
12147SOL    HW138280  14.130   7.613   0.974
12147SOL    HW238281  14.188   7.744   0.925
12148SOL     OW38282  10.895  12.810  13.241
12148SOL    HW138283  10.928  12.813  13.331
12148SOL    HW238284  10.951  12.871  13.193
12149SOL     OW38285   6.731  13.738  12.943
12149SOL    HW138286   6.665  13.783  12.996
12149SOL    HW238287   6.682  13.675  12.891
12150SOL     OW38288  13.129   9.603   9.940
12150SOL    HW138289  13.059   9.540   9.926
12150SOL    HW238290  13.085   9.680   9.977
12151SOL     OW38291  14.442   8.701   2.981
12151SOL    HW138292  14.420   8.611   3.003
12151SOL    HW238293  14.492   8.695   2.900
12152SOL     OW38294   2.935   9.066   2.963
12152SOL    HW138295   2.938   9.048   3.057
12152SOL    HW238296   2.901   9.155   2.956
12153SOL     OW38297  13.680   8.176  12.374
12153SOL    HW138298  13.703   8.268  12.392
12153SOL    HW238299  13.725   8.156  12.292
12154SOL     OW38300   2.376   6.431  12.891
12154SOL    HW138301   2.324   6.388  12.824
12154SOL    HW238302   2.362   6.379  12.970
12155SOL     OW38303   0.715  13.093  12.181
12155SOL    HW138304   0.670  13.022  12.136
12155SOL    HW238305   0.645  13.139  12.229
12156SOL     OW38306   0.179  11.097  11.270
12156SOL    HW138307   0.111  11.031  11.281
12156SOL    HW238308   0.189  11.106  11.175
12157SOL     OW38309   0.382   0.854   9.289
12157SOL    HW138310   0.466   0.860   9.334
12157SOL    HW238311   0.330   0.796   9.344
12158SOL     OW38312   6.615  11.672   2.231
12158SOL    HW138313   6.676  11.632   2.169
12158SOL    HW238314   6.571  11.598   2.272
12159SOL     OW38315   5.918   3.700   1.725
12159SOL    HW138316   5.868   3.778   1.747
12159SOL    HW238317   5.919   3.698   1.629
12160SOL     OW38318   0.116   1.006   6.673
12160SOL    HW138319   0.063   1.086   6.664
12160SOL    HW238320   0.063   0.938   6.632
12161SOL     OW38321   5.178   3.730  12.431
12161SOL    HW138322   5.244   3.730  12.361
12161SOL    HW238323   5.126   3.808  12.414
12162SOL     OW38324  13.297   3.221   7.877
12162SOL    HW138325  13.294   3.298   7.934
12162SOL    HW238326  13.207   3.192   7.870
12163SOL     OW38327   3.501  10.679   8.363
12163SOL    HW138328   3.476  10.663   8.454
12163SOL    HW238329   3.560  10.754   8.367
12164SOL     OW38330   7.584  10.370   8.158
12164SOL    HW138331   7.647  10.412   8.216
12164SOL    HW238332   7.637  10.338   8.085
12165SOL     OW38333   6.813   4.199   2.775
12165SOL    HW138334   6.813   4.295   2.770
12165SOL    HW238335   6.883   4.172   2.717
12166SOL     OW38336   0.922   8.604   8.641
12166SOL    HW138337   0.983   8.579   8.710
12166SOL    HW238338   0.854   8.536   8.641
12167SOL     OW38339  12.397   6.824   9.868
12167SOL    HW138340  12.488   6.801   9.851
12167SOL    HW238341  12.348   6.743   9.852
12168SOL     OW38342  13.695   3.922   8.058
12168SOL    HW138343  13.686   3.963   8.144
12168SOL    HW238344  13.618   3.949   8.010
12169SOL     OW38345  13.050  13.204   5.623
12169SOL    HW138346  13.004  13.128   5.588
12169SOL    HW238347  13.054  13.189   5.717
12170SOL     OW38348  11.674   7.625   5.588
12170SOL    HW138349  11.755   7.676   5.582
12170SOL    HW238350  11.641   7.643   5.676
12171SOL     OW38351   7.356   4.728  14.799
12171SOL    HW138352   7.376   4.641  14.763
12171SOL    HW238353   7.435   4.753  14.848
12172SOL     OW38354  13.417   3.558   7.567
12172SOL    HW138355  13.381   3.600   7.489
12172SOL    HW238356  13.340   3.534   7.619
12173SOL     OW38357   4.766   7.433   5.823
12173SOL    HW138358   4.686   7.480   5.846
12173SOL    HW238359   4.746   7.391   5.739
12174SOL     OW38360  13.547  10.576   1.245
12174SOL    HW138361  13.503  10.661   1.233
12174SOL    HW238362  13.640  10.598   1.252
12175SOL     OW38363   3.338   2.674  12.107
12175SOL    HW138364   3.266   2.681  12.170
12175SOL    HW238365   3.299   2.698  12.023
12176SOL     OW38366   9.371   1.732  11.924
12176SOL    HW138367   9.335   1.743  11.836
12176SOL    HW238368   9.425   1.809  11.939
12177SOL     OW38369   2.156   4.558   0.888
12177SOL    HW138370   2.156   4.475   0.841
12177SOL    HW238371   2.097   4.543   0.962
12178SOL     OW38372  13.082   2.575   0.221
12178SOL    HW138373  13.166   2.594   0.180
12178SOL    HW238374  13.099   2.500   0.278
12179SOL     OW38375   3.807   1.973   3.802
12179SOL    HW138376   3.715   1.951   3.815
12179SOL    HW238377   3.844   1.976   3.891
12180SOL     OW38378  10.538   6.334  13.339
12180SOL    HW138379  10.494   6.399  13.395
12180SOL    HW238380  10.548   6.257  13.395
12181SOL     OW38381   0.012  13.267   4.602
12181SOL    HW138382  14.844  13.222   4.532
12181SOL    HW238383   0.074  13.324   4.556
12182SOL     OW38384   9.714   3.487  11.894
12182SOL    HW138385   9.686   3.571  11.859
12182SOL    HW238386   9.634   3.448  11.930
12183SOL     OW38387   9.129   4.704  12.417
12183SOL    HW138388   9.196   4.771  12.409
12183SOL    HW238389   9.150   4.641  12.347
12184SOL     OW38390  14.234   3.669  11.278
12184SOL    HW138391  14.221   3.627  11.363
12184SOL    HW238392  14.146   3.681  11.244
12185SOL     OW38393  12.595   3.914   9.702
12185SOL    HW138394  12.667   3.973   9.681
12185SOL    HW238395  12.592   3.852   9.629
12186SOL     OW38396   1.000   0.040   4.718
12186SOL    HW138397   0.984   0.069   4.628
12186SOL    HW238398   1.095   0.033   4.724
12187SOL     OW38399   1.684   0.342   5.188
12187SOL    HW138400   1.622   0.397   5.238
12187SOL    HW238401   1.770   0.375   5.213
12188SOL     OW38402   1.876   4.279  14.754
12188SOL    HW138403   1.964   4.293  14.719
12188SOL    HW238404   1.828   4.358  14.729
12189SOL     OW38405   6.689  12.313  10.510
12189SOL    HW138406   6.709  12.223  10.485
12189SOL    HW238407   6.595  12.311  10.531
12190SOL     OW38408  10.490  12.499  13.296
12190SOL    HW138409  10.545  12.576  13.287
12190SOL    HW238410  10.545  12.426  13.267
12191SOL     OW38411  14.160   5.297   9.535
12191SOL    HW138412  14.164   5.204   9.512
12191SOL    HW238413  14.097   5.301   9.607
12192SOL     OW38414   3.692   0.228   2.547
12192SOL    HW138415   3.616   0.226   2.488
12192SOL    HW238416   3.655   0.214   2.634
12193SOL     OW38417   6.869   0.660  13.174
12193SOL    HW138418   6.877   0.704  13.259
12193SOL    HW238419   6.881   0.729  13.110
12194SOL     OW38420   1.614   5.065  11.220
12194SOL    HW138421   1.612   5.160  11.203
12194SOL    HW238422   1.705   5.040  11.207
12195SOL     OW38423   4.274  14.598  13.331
12195SOL    HW138424   4.295  14.622  13.421
12195SOL    HW238425   4.234  14.677  13.294
12196SOL     OW38426  12.942   5.862  13.826
12196SOL    HW138427  12.954   5.955  13.844
12196SOL    HW238428  12.986   5.818  13.898
12197SOL     OW38429   4.650   5.781   0.958
12197SOL    HW138430   4.735   5.793   0.916
12197SOL    HW238431   4.627   5.690   0.938
12198SOL     OW38432  11.795  11.139  12.310
12198SOL    HW138433  11.821  11.080  12.239
12198SOL    HW238434  11.737  11.202  12.269
12199SOL     OW38435  12.545  10.105   3.833
12199SOL    HW138436  12.614  10.147   3.781
12199SOL    HW238437  12.536  10.018   3.794
12200SOL     OW38438   3.051   5.497   4.817
12200SOL    HW138439   3.034   5.480   4.910
12200SOL    HW238440   3.131   5.550   4.817
12201SOL     OW38441   5.462  14.704   4.118
12201SOL    HW138442   5.399  14.747   4.060
12201SOL    HW238443   5.523  14.773   4.143
12202SOL     OW38444   5.712   3.279   9.731
12202SOL    HW138445   5.682   3.349   9.789
12202SOL    HW238446   5.708   3.200   9.784
12203SOL     OW38447  11.045  11.796   6.844
12203SOL    HW138448  11.070  11.857   6.913
12203SOL    HW238449  11.052  11.847   6.763
12204SOL     OW38450  12.412  14.040   0.001
12204SOL    HW138451  12.364  13.978  14.827
12204SOL    HW238452  12.358  14.119   0.001
12205SOL     OW38453  10.844   8.642   3.721
12205SOL    HW138454  10.794   8.696   3.660
12205SOL    HW238455  10.778   8.602   3.778
12206SOL     OW38456   5.441   2.675   5.323
12206SOL    HW138457   5.379   2.714   5.385
12206SOL    HW238458   5.482   2.604   5.372
12207SOL     OW38459  14.555   0.971  13.977
12207SOL    HW138460  14.643   1.005  13.968
12207SOL    HW238461  14.554   0.890  13.927
12208SOL     OW38462  14.104  12.355  11.483
12208SOL    HW138463  14.014  12.327  11.468
12208SOL    HW238464  14.106  12.446  11.451
12209SOL     OW38465   1.391  14.444  10.742
12209SOL    HW138466   1.476  14.482  10.719
12209SOL    HW238467   1.383  14.460  10.837
12210SOL     OW38468   3.087   5.056  11.209
12210SOL    HW138469   3.001   5.095  11.224
12210SOL    HW238470   3.150   5.126  11.227
12211SOL     OW38471   9.614   2.436   1.044
12211SOL    HW138472   9.565   2.370   0.995
12211SOL    HW238473   9.591   2.519   1.002
12212SOL     OW38474  13.647  10.392   5.106
12212SOL    HW138475  13.597  10.373   5.026
12212SOL    HW238476  13.664  10.306   5.144
12213SOL     OW38477   2.731   9.262   4.681
12213SOL    HW138478   2.777   9.178   4.691
12213SOL    HW238479   2.740   9.282   4.588
12214SOL     OW38480   3.451  10.328  10.787
12214SOL    HW138481   3.503  10.291  10.858
12214SOL    HW238482   3.445  10.258  10.723
12215SOL     OW38483  12.633  14.846   3.906
12215SOL    HW138484  12.602   0.041   3.855
12215SOL    HW238485  12.723  14.832   3.875
12216SOL     OW38486   8.173   6.374  13.191
12216SOL    HW138487   8.191   6.332  13.107
12216SOL    HW238488   8.129   6.456  13.167
12217SOL     OW38489   4.765   6.874   6.439
12217SOL    HW138490   4.797   6.914   6.358
12217SOL    HW238491   4.839   6.880   6.499
12218SOL     OW38492   4.287  10.849  14.008
12218SOL    HW138493   4.222  10.801  13.956
12218SOL    HW238494   4.303  10.930  13.960
12219SOL     OW38495   2.722   2.963   4.783
12219SOL    HW138496   2.758   2.914   4.709
12219SOL    HW238497   2.771   2.931   4.859
12220SOL     OW38498   4.749   8.053  13.646
12220SOL    HW138499   4.758   8.089  13.558
12220SOL    HW238500   4.654   8.045  13.659
12221SOL     OW38501   1.666  14.500  14.120
12221SOL    HW138502   1.584  14.463  14.089
12221SOL    HW238503   1.711  14.426  14.161
12222SOL     OW38504  10.302  11.655   8.968
12222SOL    HW138505  10.215  11.631   8.998
12222SOL    HW238506  10.291  11.743   8.932
12223SOL     OW38507   3.724   7.145  10.952
12223SOL    HW138508   3.683   7.078  10.898
12223SOL    HW238509   3.811   7.110  10.972
12224SOL     OW38510   7.156  12.456  13.756
12224SOL    HW138511   7.177  12.435  13.665
12224SOL    HW238512   7.064  12.482  13.754
12225SOL     OW38513   0.753  11.893   1.734
12225SOL    HW138514   0.682  11.943   1.775
12225SOL    HW238515   0.833  11.937   1.763
12226SOL     OW38516   1.905   9.916   3.234
12226SOL    HW138517   1.825   9.884   3.274
12226SOL    HW238518   1.946   9.837   3.196
12227SOL     OW38519   6.899   2.434  12.524
12227SOL    HW138520   6.948   2.432  12.606
12227SOL    HW238521   6.821   2.382  12.541
12228SOL     OW38522  14.364  14.302   6.473
12228SOL    HW138523  14.377  14.262   6.559
12228SOL    HW238524  14.453  14.311   6.437
12229SOL     OW38525   0.981   9.996  14.863
12229SOL    HW138526   1.071  10.022   0.006
12229SOL    HW238527   0.947  10.069  14.812
12230SOL     OW38528   9.961   3.362   4.234
12230SOL    HW138529   9.903   3.357   4.157
12230SOL    HW238530   9.935   3.443   4.278
12231SOL     OW38531  12.704   4.031   7.379
12231SOL    HW138532  12.626   4.011   7.431
12231SOL    HW238533  12.692   3.983   7.298
12232SOL     OW38534   5.073   8.951   4.321
12232SOL    HW138535   5.024   8.896   4.381
12232SOL    HW238536   5.106   9.023   4.376
12233SOL     OW38537   3.477  10.575   0.108
12233SOL    HW138538   3.473  10.553   0.201
12233SOL    HW238539   3.570  10.588   0.090
12234SOL     OW38540   4.149  13.372   7.126
12234SOL    HW138541   4.218  13.336   7.070
12234SOL    HW238542   4.099  13.429   7.068
12235SOL     OW38543   9.990  12.675  12.666
12235SOL    HW138544  10.036  12.597  12.694
12235SOL    HW238545   9.898  12.650  12.665
12236SOL     OW38546   9.956  12.992  13.550
12236SOL    HW138547  10.032  12.940  13.524
12236SOL    HW238548   9.886  12.963  13.491
12237SOL     OW38549   3.364  14.584  12.723
12237SOL    HW138550   3.360  14.634  12.805
12237SOL    HW238551   3.371  14.493  12.752
12238SOL     OW38552   7.813   1.320   2.810
12238SOL    HW138553   7.789   1.377   2.737
12238SOL    HW238554   7.730   1.282   2.839
12239SOL     OW38555   6.877   2.822   0.859
12239SOL    HW138556   6.957   2.797   0.813
12239SOL    HW238557   6.823   2.865   0.792
12240SOL     OW38558   9.742  11.019  11.943
12240SOL    HW138559   9.792  11.093  11.909
12240SOL    HW238560   9.651  11.044  11.932
12241SOL     OW38561   2.732   9.847   4.657
12241SOL    HW138562   2.827   9.857   4.666
12241SOL    HW238563   2.697   9.931   4.684
12242SOL     OW38564  13.369   7.964   5.009
12242SOL    HW138565  13.443   8.003   5.056
12242SOL    HW238566  13.291   7.997   5.053
12243SOL     OW38567   5.776   8.878   8.148
12243SOL    HW138568   5.774   8.934   8.070
12243SOL    HW238569   5.758   8.938   8.221
12244SOL     OW38570   8.528   3.547   5.152
12244SOL    HW138571   8.449   3.579   5.110
12244SOL    HW238572   8.582   3.625   5.164
12245SOL     OW38573  11.096   0.264   9.998
12245SOL    HW138574  11.050   0.261   9.914
12245SOL    HW238575  11.086   0.354  10.028
12246SOL     OW38576  11.481  14.182   7.841
12246SOL    HW138577  11.455  14.267   7.879
12246SOL    HW238578  11.398  14.137   7.825
12247SOL     OW38579   9.457   8.242   4.743
12247SOL    HW138580   9.457   8.153   4.708
12247SOL    HW238581   9.437   8.232   4.836
12248SOL     OW38582   3.865   0.599  13.991
12248SOL    HW138583   3.837   0.555  13.911
12248SOL    HW238584   3.789   0.593  14.049
12249SOL     OW38585  11.535  12.634   5.553
12249SOL    HW138586  11.582  12.624   5.471
12249SOL    HW238587  11.569  12.564   5.609
12250SOL     OW38588   7.996   6.803   6.737
12250SOL    HW138589   7.905   6.828   6.751
12250SOL    HW238590   8.012   6.819   6.644
12251SOL     OW38591   4.454   3.733   4.834
12251SOL    HW138592   4.396   3.711   4.761
12251SOL    HW238593   4.412   3.808   4.876
12252SOL     OW38594   9.843   4.288   2.936
12252SOL    HW138595   9.929   4.261   2.905
12252SOL    HW238596   9.811   4.213   2.986
12253SOL     OW38597  10.118   8.313   3.231
12253SOL    HW138598  10.072   8.249   3.177
12253SOL    HW238599  10.088   8.295   3.320
12254SOL     OW38600  10.868   9.611   3.506
12254SOL    HW138601  10.931   9.559   3.456
12254SOL    HW238602  10.811   9.651   3.440
12255SOL     OW38603  12.104  10.617  12.377
12255SOL    HW138604  12.035  10.683  12.373
12255SOL    HW238605  12.176  10.660  12.424
12256SOL     OW38606   2.685   0.146  12.307
12256SOL    HW138607   2.757   0.208  12.318
12256SOL    HW238608   2.656   0.160  12.216
12257SOL     OW38609  10.390  14.479   0.130
12257SOL    HW138610  10.335  14.527   0.192
12257SOL    HW238611  10.331  14.414   0.092
12258SOL     OW38612   7.128  12.607   7.770
12258SOL    HW138613   7.191  12.676   7.789
12258SOL    HW238614   7.059  12.618   7.836
12259SOL     OW38615  10.371   4.400   2.489
12259SOL    HW138616  10.343   4.373   2.576
12259SOL    HW238617  10.444   4.460   2.505
12260SOL     OW38618  10.228   4.317   2.269
12260SOL    HW138619  10.274   4.311   2.185
12260SOL    HW238620  10.294   4.347   2.331
12261SOL     OW38621   6.135  10.709   5.625
12261SOL    HW138622   6.198  10.714   5.553
12261SOL    HW238623   6.118  10.801   5.648
12262SOL     OW38624   1.246  12.885   5.210
12262SOL    HW138625   1.307  12.957   5.194
12262SOL    HW238626   1.212  12.902   5.298
12263SOL     OW38627   5.772  12.426   4.696
12263SOL    HW138628   5.834  12.468   4.755
12263SOL    HW238629   5.820  12.417   4.613
12264SOL     OW38630   1.856   4.714   1.221
12264SOL    HW138631   1.919   4.645   1.239
12264SOL    HW238632   1.775   4.668   1.198
12265SOL     OW38633   8.306   4.162  11.926
12265SOL    HW138634   8.308   4.149  12.021
12265SOL    HW238635   8.395   4.140  11.897
12266SOL     OW38636  12.877   0.939   1.431
12266SOL    HW138637  12.814   0.869   1.450
12266SOL    HW238638  12.822   1.015   1.412
12267SOL     OW38639   2.617  10.345   1.199
12267SOL    HW138640   2.592  10.284   1.268
12267SOL    HW238641   2.537  10.392   1.178
12268SOL     OW38642   7.370   9.851   9.412
12268SOL    HW138643   7.308   9.883   9.346
12268SOL    HW238644   7.445   9.821   9.360
12269SOL     OW38645   6.147   8.544  13.236
12269SOL    HW138646   6.085   8.591  13.291
12269SOL    HW238647   6.196   8.613  13.190
12270SOL     OW38648   6.401  13.977   6.926
12270SOL    HW138649   6.383  13.949   7.016
12270SOL    HW238650   6.436  13.899   6.883
12271SOL     OW38651   0.090  13.216  10.380
12271SOL    HW138652   0.133  13.246  10.300
12271SOL    HW238653   0.125  13.272  10.449
12272SOL     OW38654  11.142   7.410   5.474
12272SOL    HW138655  11.221   7.359   5.489
12272SOL    HW238656  11.084   7.351   5.425
12273SOL     OW38657   4.943   5.290   5.225
12273SOL    HW138658   5.003   5.254   5.160
12273SOL    HW238659   4.857   5.285   5.183
12274SOL     OW38660   0.941   1.816   3.221
12274SOL    HW138661   0.996   1.892   3.243
12274SOL    HW238662   0.881   1.849   3.154
12275SOL     OW38663   3.324   9.198   3.498
12275SOL    HW138664   3.315   9.137   3.571
12275SOL    HW238665   3.297   9.148   3.421
12276SOL     OW38666  14.794   1.274   1.417
12276SOL    HW138667  14.835   1.340   1.360
12276SOL    HW238668  14.714   1.250   1.371
12277SOL     OW38669  11.880   0.990   7.527
12277SOL    HW138670  11.823   0.919   7.498
12277SOL    HW238671  11.960   0.979   7.477
12278SOL     OW38672   7.176   9.581  10.196
12278SOL    HW138673   7.172   9.598  10.102
12278SOL    HW238674   7.085   9.590  10.225
12279SOL     OW38675  12.420   7.315   9.991
12279SOL    HW138676  12.398   7.401   9.955
12279SOL    HW238677  12.347   7.294  10.050
12280SOL     OW38678   2.834   5.174   1.933
12280SOL    HW138679   2.744   5.189   1.907
12280SOL    HW238680   2.886   5.220   1.867
12281SOL     OW38681   1.367   4.436   9.245
12281SOL    HW138682   1.396   4.346   9.230
12281SOL    HW238683   1.430   4.489   9.196
12282SOL     OW38684   3.335  13.567  10.378
12282SOL    HW138685   3.280  13.490  10.360
12282SOL    HW238686   3.369  13.552  10.466
12283SOL     OW38687   0.701   9.339   7.326
12283SOL    HW138688   0.750   9.404   7.377
12283SOL    HW238689   0.718   9.256   7.371
12284SOL     OW38690   7.843  10.056   2.877
12284SOL    HW138691   7.753  10.063   2.910
12284SOL    HW238692   7.874   9.971   2.909
12285SOL     OW38693   7.375   3.516  13.302
12285SOL    HW138694   7.449   3.576  13.313
12285SOL    HW238695   7.367   3.505  13.208
12286SOL     OW38696  14.809   1.664  10.634
12286SOL    HW138697  14.820   1.695  10.724
12286SOL    HW238698  14.721   1.692  10.609
12287SOL     OW38699  14.553  13.063   1.899
12287SOL    HW138700  14.592  12.998   1.957
12287SOL    HW238701  14.627  13.114   1.866
12288SOL     OW38702   8.134  10.068   5.834
12288SOL    HW138703   8.157  10.067   5.741
12288SOL    HW238704   8.120  10.161   5.854
12289SOL     OW38705   6.344   4.659   7.140
12289SOL    HW138706   6.297   4.717   7.199
12289SOL    HW238707   6.335   4.700   7.054
12290SOL     OW38708   4.789  12.449  14.545
12290SOL    HW138709   4.777  12.497  14.627
12290SOL    HW238710   4.878  12.415  14.550
12291SOL     OW38711   8.925   1.442   8.612
12291SOL    HW138712   8.929   1.395   8.695
12291SOL    HW238713   8.996   1.506   8.618
12292SOL     OW38714   0.745   6.934   3.736
12292SOL    HW138715   0.829   6.891   3.721
12292SOL    HW238716   0.732   6.929   3.830
12293SOL     OW38717  10.877   7.255   6.219
12293SOL    HW138718  10.922   7.260   6.135
12293SOL    HW238719  10.804   7.195   6.205
12294SOL     OW38720  10.843   5.381   6.486
12294SOL    HW138721  10.836   5.286   6.482
12294SOL    HW238722  10.796   5.405   6.566
12295SOL     OW38723  11.110   5.051   0.076
12295SOL    HW138724  11.168   5.026   0.147
12295SOL    HW238725  11.038   4.989   0.080
12296SOL     OW38726   7.234  12.728  10.763
12296SOL    HW138727   7.157  12.734  10.707
12296SOL    HW238728   7.298  12.786  10.722
12297SOL     OW38729  11.394   3.444  12.215
12297SOL    HW138730  11.313   3.490  12.236
12297SOL    HW238731  11.437   3.431  12.300
12298SOL     OW38732  10.407  13.799   2.355
12298SOL    HW138733  10.319  13.810   2.391
12298SOL    HW238734  10.419  13.704   2.350
12299SOL     OW38735   1.283   1.933  12.153
12299SOL    HW138736   1.195   1.926  12.117
12299SOL    HW238737   1.335   1.874  12.099
12300SOL     OW38738  13.923  12.448   1.130
12300SOL    HW138739  13.932  12.518   1.066
12300SOL    HW238740  14.003  12.396   1.121
12301SOL     OW38741  12.982  12.520  12.662
12301SOL    HW138742  13.043  12.508  12.590
12301SOL    HW238743  12.950  12.609  12.652
12302SOL     OW38744   7.804   2.295   8.556
12302SOL    HW138745   7.770   2.207   8.574
12302SOL    HW238746   7.865   2.283   8.484
12303SOL     OW38747  10.365  10.210   3.222
12303SOL    HW138748  10.288  10.153   3.220
12303SOL    HW238749  10.340  10.285   3.168
12304SOL     OW38750   4.353  11.155  10.190
12304SOL    HW138751   4.326  11.197  10.271
12304SOL    HW238752   4.379  11.227  10.132
12305SOL     OW38753   0.522  11.700   5.003
12305SOL    HW138754   0.457  11.649   4.954
12305SOL    HW238755   0.585  11.636   5.034
12306SOL     OW38756   9.275   9.404   5.042
12306SOL    HW138757   9.228   9.449   4.972
12306SOL    HW238758   9.216   9.334   5.069
12307SOL     OW38759   2.667  12.372  11.786
12307SOL    HW138760   2.639  12.288  11.823
12307SOL    HW238761   2.746  12.352  11.737
12308SOL     OW38762   3.347   8.439   8.622
12308SOL    HW138763   3.320   8.481   8.703
12308SOL    HW238764   3.300   8.355   8.621
12309SOL     OW38765  10.888   4.331  13.074
12309SOL    HW138766  10.916   4.420  13.051
12309SOL    HW238767  10.872   4.335  13.168
12310SOL     OW38768   8.595  13.621   0.053
12310SOL    HW138769   8.612  13.686  14.865
12310SOL    HW238770   8.502  13.600   0.043
12311SOL     OW38771   7.452   2.785   9.977
12311SOL    HW138772   7.463   2.737   9.895
12311SOL    HW238773   7.532   2.767  10.026
12312SOL     OW38774  13.981   0.746   3.993
12312SOL    HW138775  14.055   0.795   3.957
12312SOL    HW238776  13.959   0.682   3.925
12313SOL     OW38777   9.292   2.884  11.466
12313SOL    HW138778   9.257   2.815  11.409
12313SOL    HW238779   9.363   2.923  11.416
12314SOL     OW38780   1.173  11.384   0.684
12314SOL    HW138781   1.137  11.415   0.600
12314SOL    HW238782   1.139  11.295   0.693
12315SOL     OW38783   4.403   8.072  13.117
12315SOL    HW138784   4.370   8.161  13.126
12315SOL    HW238785   4.327   8.017  13.136
12316SOL     OW38786  11.353   9.913   1.417
12316SOL    HW138787  11.372  10.003   1.391
12316SOL    HW238788  11.433   9.865   1.396
12317SOL     OW38789   5.762   0.534  14.175
12317SOL    HW138790   5.750   0.469  14.245
12317SOL    HW238791   5.857   0.538  14.164
12318SOL     OW38792   8.265   0.182  11.670
12318SOL    HW138793   8.318   0.152  11.597
12318SOL    HW238794   8.213   0.106  11.695
12319SOL     OW38795   3.919   5.723   9.527
12319SOL    HW138796   3.941   5.691   9.614
12319SOL    HW238797   3.981   5.679   9.469
12320SOL     OW38798   1.230   4.243  13.358
12320SOL    HW138799   1.220   4.149  13.347
12320SOL    HW238800   1.281   4.271  13.282
12321SOL     OW38801  10.873   4.508   0.509
12321SOL    HW138802  10.865   4.514   0.414
12321SOL    HW238803  10.783   4.493   0.540
12322SOL     OW38804   3.159   8.885   4.787
12322SOL    HW138805   3.112   8.927   4.715
12322SOL    HW238806   3.165   8.953   4.854
12323SOL     OW38807  14.478   4.787  13.936
12323SOL    HW138808  14.521   4.812  14.018
12323SOL    HW238809  14.511   4.699  13.917
12324SOL     OW38810   0.943   7.796   9.437
12324SOL    HW138811   1.019   7.740   9.456
12324SOL    HW238812   0.905   7.813   9.523
12325SOL     OW38813  11.426   7.963   6.318
12325SOL    HW138814  11.412   8.045   6.271
12325SOL    HW238815  11.481   7.987   6.392
12326SOL     OW38816   2.773   6.181  11.812
12326SOL    HW138817   2.771   6.262  11.863
12326SOL    HW238818   2.857   6.140  11.835
12327SOL     OW38819  10.959  10.000   6.327
12327SOL    HW138820  10.938   9.929   6.387
12327SOL    HW238821  11.027  10.050   6.373
12328SOL     OW38822  14.767   2.895   8.803
12328SOL    HW138823  14.791   2.834   8.734
12328SOL    HW238824  14.793   2.851   8.884
12329SOL     OW38825   7.811   9.476  14.643
12329SOL    HW138826   7.842   9.404  14.698
12329SOL    HW238827   7.785   9.434  14.561
12330SOL     OW38828   2.603   0.676   1.443
12330SOL    HW138829   2.565   0.706   1.361
12330SOL    HW238830   2.531   0.680   1.506
12331SOL     OW38831   2.697  11.824  13.643
12331SOL    HW138832   2.638  11.801  13.715
12331SOL    HW238833   2.639  11.832  13.567
12332SOL     OW38834   6.227  13.651  12.607
12332SOL    HW138835   6.199  13.590  12.674
12332SOL    HW238836   6.316  13.622  12.584
12333SOL     OW38837  14.312  10.038   0.514
12333SOL    HW138838  14.333  10.044   0.421
12333SOL    HW238839  14.396  10.017   0.556
12334SOL     OW38840   0.139   7.564  13.395
12334SOL    HW138841   0.126   7.620  13.472
12334SOL    HW238842   0.234   7.557  13.386
12335SOL     OW38843   3.591  11.702   9.611
12335SOL    HW138844   3.551  11.696   9.524
12335SOL    HW238845   3.678  11.740   9.594
12336SOL     OW38846   8.127  12.773  11.605
12336SOL    HW138847   8.207  12.739  11.645
12336SOL    HW238848   8.157  12.813  11.523
12337SOL     OW38849  14.113  11.890   7.187
12337SOL    HW138850  14.052  11.851   7.250
12337SOL    HW238851  14.178  11.821   7.171
12338SOL     OW38852  12.537   9.586   6.925
12338SOL    HW138853  12.512   9.522   6.992
12338SOL    HW238854  12.579   9.534   6.857
12339SOL     OW38855   0.421  12.622  14.516
12339SOL    HW138856   0.362  12.597  14.586
12339SOL    HW238857   0.375  12.596  14.436
12340SOL     OW38858  11.963  11.936  10.025
12340SOL    HW138859  12.041  11.922  10.079
12340SOL    HW238860  11.971  11.871   9.955
12341SOL     OW38861  13.144   3.246   4.823
12341SOL    HW138862  13.133   3.339   4.807
12341SOL    HW238863  13.239   3.233   4.824
12342SOL     OW38864   1.692   1.932   4.581
12342SOL    HW138865   1.731   1.863   4.526
12342SOL    HW238866   1.602   1.938   4.551
12343SOL     OW38867   0.443  12.371   1.753
12343SOL    HW138868   0.353  12.371   1.721
12343SOL    HW238869   0.437  12.338   1.843
12344SOL     OW38870   0.739  12.767  11.886
12344SOL    HW138871   0.802  12.720  11.940
12344SOL    HW238872   0.676  12.802  11.948
12345SOL     OW38873   3.672   7.423  10.456
12345SOL    HW138874   3.756   7.404  10.415
12345SOL    HW238875   3.667   7.365  10.532
12346SOL     OW38876  12.259   6.248  12.455
12346SOL    HW138877  12.234   6.155  12.454
12346SOL    HW238878  12.223   6.281  12.537
12347SOL     OW38879   3.273   2.020  14.293
12347SOL    HW138880   3.347   2.021  14.232
12347SOL    HW238881   3.303   1.969  14.368
12348SOL     OW38882   7.716   8.601  13.192
12348SOL    HW138883   7.810   8.602  13.209
12348SOL    HW238884   7.709   8.587  13.098
12349SOL     OW38885   6.658   7.504  13.176
12349SOL    HW138886   6.596   7.435  13.151
12349SOL    HW238887   6.664   7.498  13.271
12350SOL     OW38888   1.996   8.225   2.466
12350SOL    HW138889   2.028   8.155   2.522
12350SOL    HW238890   1.950   8.284   2.525
12351SOL     OW38891   8.025  13.783   5.860
12351SOL    HW138892   7.976  13.807   5.939
12351SOL    HW238893   8.092  13.850   5.852
12352SOL     OW38894   4.195  10.737   6.429
12352SOL    HW138895   4.143  10.683   6.488
12352SOL    HW238896   4.135  10.805   6.399
12353SOL     OW38897   9.485  12.384   8.642
12353SOL    HW138898   9.548  12.312   8.643
12353SOL    HW238899   9.474  12.407   8.734
12354SOL     OW38900   3.144   5.303   6.139
12354SOL    HW138901   3.136   5.370   6.071
12354SOL    HW238902   3.206   5.239   6.103
12355SOL     OW38903   6.834   4.296   3.416
12355SOL    HW138904   6.798   4.347   3.343
12355SOL    HW238905   6.814   4.205   3.393
12356SOL     OW38906   1.702   5.485  13.784
12356SOL    HW138907   1.715   5.510  13.692
12356SOL    HW238908   1.702   5.568  13.832
12357SOL     OW38909   1.514   1.731  10.545
12357SOL    HW138910   1.429   1.722  10.501
12357SOL    HW238911   1.568   1.778  10.482
12358SOL     OW38912   0.853   2.626   7.942
12358SOL    HW138913   0.796   2.702   7.933
12358SOL    HW238914   0.887   2.633   8.031
12359SOL     OW38915   5.519   8.662   0.358
12359SOL    HW138916   5.572   8.731   0.319
12359SOL    HW238917   5.499   8.603   0.286
12360SOL     OW38918  11.004  10.346  11.088
12360SOL    HW138919  11.072  10.393  11.039
12360SOL    HW238920  10.951  10.416  11.127
12361SOL     OW38921  13.163   8.724  12.665
12361SOL    HW138922  13.243   8.735  12.717
12361SOL    HW238923  13.194   8.711  12.576
12362SOL     OW38924  11.460   7.787   4.170
12362SOL    HW138925  11.445   7.785   4.075
12362SOL    HW238926  11.377   7.814   4.207
12363SOL     OW38927   5.010   7.791  12.777
12363SOL    HW138928   5.059   7.873  12.785
12363SOL    HW238929   5.056   7.730  12.835
12364SOL     OW38930   7.334   7.234   0.685
12364SOL    HW138931   7.328   7.330   0.689
12364SOL    HW238932   7.343   7.214   0.592
12365SOL     OW38933  12.514   2.407  14.758
12365SOL    HW138934  12.591   2.449  14.795
12365SOL    HW238935  12.465   2.480  14.718
12366SOL     OW38936  13.362   1.230  14.418
12366SOL    HW138937  13.414   1.272  14.349
12366SOL    HW238938  13.420   1.162  14.453
12367SOL     OW38939  13.173   9.873  10.737
12367SOL    HW138940  13.244   9.926  10.702
12367SOL    HW238941  13.216   9.805  10.788
12368SOL     OW38942   7.263  13.310   1.907
12368SOL    HW138943   7.256  13.232   1.963
12368SOL    HW238944   7.227  13.381   1.959
12369SOL     OW38945   2.688  12.532  11.296
12369SOL    HW138946   2.707  12.620  11.264
12369SOL    HW238947   2.594  12.533  11.316
12370SOL     OW38948   8.726   5.464   4.639
12370SOL    HW138949   8.690   5.439   4.554
12370SOL    HW238950   8.802   5.408   4.651
12371SOL     OW38951  10.675   5.670   6.133
12371SOL    HW138952  10.744   5.630   6.187
12371SOL    HW238953  10.692   5.764   6.139
12372SOL     OW38954  12.649   1.387   6.462
12372SOL    HW138955  12.631   1.481   6.463
12372SOL    HW238956  12.617   1.356   6.547
12373SOL     OW38957   3.878   1.743  10.380
12373SOL    HW138958   3.804   1.703  10.426
12373SOL    HW238959   3.938   1.770  10.450
12374SOL     OW38960   3.704   9.892  11.262
12374SOL    HW138961   3.774   9.957  11.270
12374SOL    HW238962   3.732   9.834  11.191
12375SOL     OW38963   8.521   2.260   5.650
12375SOL    HW138964   8.532   2.167   5.672
12375SOL    HW238965   8.427   2.270   5.635
12376SOL     OW38966   8.188  12.414  14.064
12376SOL    HW138967   8.197  12.410  14.159
12376SOL    HW238968   8.102  12.454  14.049
12377SOL     OW38969  10.426   2.818  13.881
12377SOL    HW138970  10.499   2.852  13.830
12377SOL    HW238971  10.375   2.896  13.905
12378SOL     OW38972   9.451   3.502  12.743
12378SOL    HW138973   9.362   3.529  12.766
12378SOL    HW238974   9.445   3.408  12.728
12379SOL     OW38975   6.470   4.726   4.900
12379SOL    HW138976   6.545   4.736   4.959
12379SOL    HW238977   6.486   4.644   4.854
12380SOL     OW38978   1.762  12.942   3.024
12380SOL    HW138979   1.692  12.987   3.071
12380SOL    HW238980   1.722  12.858   2.998
12381SOL     OW38981   8.565   6.210   3.179
12381SOL    HW138982   8.646   6.260   3.174
12381SOL    HW238983   8.495   6.276   3.180
12382SOL     OW38984  12.435  12.445   2.298
12382SOL    HW138985  12.415  12.364   2.250
12382SOL    HW238986  12.525  12.466   2.273
12383SOL     OW38987  13.030  14.810  12.804
12383SOL    HW138988  13.053  14.877  12.868
12383SOL    HW238989  13.002  14.735  12.857
12384SOL     OW38990  14.820  11.630   7.985
12384SOL    HW138991  14.809  11.606   7.893
12384SOL    HW238992   0.019  11.684   7.987
12385SOL     OW38993   5.131  13.640   7.504
12385SOL    HW138994   5.219  13.618   7.473
12385SOL    HW238995   5.145  13.710   7.568
12386SOL     OW38996   6.769   1.404   9.746
12386SOL    HW138997   6.727   1.476   9.699
12386SOL    HW238998   6.746   1.418   9.837
12387SOL     OW38999  13.978   3.827   6.131
12387SOL    HW139000  13.970   3.759   6.197
12387SOL    HW239001  13.937   3.790   6.053
12388SOL     OW39002   8.024   8.910   8.908
12388SOL    HW139003   8.058   8.873   8.826
12388SOL    HW239004   8.099   8.954   8.947
12389SOL     OW39005  14.556   6.098   8.431
12389SOL    HW139006  14.470   6.091   8.473
12389SOL    HW239007  14.605   6.022   8.462
12390SOL     OW39008   9.026   4.426   5.061
12390SOL    HW139009   9.079   4.364   5.010
12390SOL    HW239010   8.959   4.371   5.101
12391SOL     OW39011   0.899  13.558   6.150
12391SOL    HW139012   0.848  13.610   6.088
12391SOL    HW239013   0.972  13.615   6.175
12392SOL     OW39014  13.384   9.227  10.626
12392SOL    HW139015  13.319   9.171  10.582
12392SOL    HW239016  13.418   9.283  10.557
12393SOL     OW39017   5.657   0.238   3.506
12393SOL    HW139018   5.564   0.224   3.487
12393SOL    HW239019   5.662   0.327   3.540
12394SOL     OW39020  11.413  13.045   2.615
12394SOL    HW139021  11.326  13.007   2.603
12394SOL    HW239022  11.411  13.126   2.563
12395SOL     OW39023   6.580   5.471   0.686
12395SOL    HW139024   6.554   5.457   0.595
12395SOL    HW239025   6.512   5.428   0.738
12396SOL     OW39026   8.623   2.171   0.490
12396SOL    HW139027   8.626   2.126   0.406
12396SOL    HW239028   8.541   2.221   0.488
12397SOL     OW39029  14.127   4.178   0.977
12397SOL    HW139030  14.116   4.269   0.949
12397SOL    HW239031  14.044   4.156   1.018
12398SOL     OW39032  12.833   9.773  14.683
12398SOL    HW139033  12.872   9.826  14.613
12398SOL    HW239034  12.901   9.768  14.750
12399SOL     OW39035   1.279  11.798   2.521
12399SOL    HW139036   1.232  11.837   2.447
12399SOL    HW239037   1.217  11.803   2.594
12400SOL     OW39038   9.366   1.147   3.807
12400SOL    HW139039   9.322   1.062   3.801
12400SOL    HW239040   9.346   1.191   3.725
12401SOL     OW39041  12.455   0.664  11.907
12401SOL    HW139042  12.521   0.683  11.840
12401SOL    HW239043  12.373   0.653  11.858
12402SOL     OW39044   2.522  12.960   1.553
12402SOL    HW139045   2.460  12.933   1.485
12402SOL    HW239046   2.474  13.026   1.603
12403SOL     OW39047   5.956  10.426   2.972
12403SOL    HW139048   5.985  10.415   3.062
12403SOL    HW239049   5.868  10.389   2.970
12404SOL     OW39050   1.430  12.363   9.044
12404SOL    HW139051   1.483  12.399   9.115
12404SOL    HW239052   1.493  12.320   8.986
12405SOL     OW39053   3.426  10.430   7.055
12405SOL    HW139054   3.499  10.367   7.049
12405SOL    HW239055   3.400  10.427   7.147
12406SOL     OW39056   6.835  11.558   7.694
12406SOL    HW139057   6.918  11.601   7.714
12406SOL    HW239058   6.809  11.593   7.609
12407SOL     OW39059  13.007   4.248   9.593
12407SOL    HW139060  13.067   4.181   9.561
12407SOL    HW239061  13.050   4.331   9.570
12408SOL     OW39062   4.216  13.264   9.651
12408SOL    HW139063   4.153  13.334   9.668
12408SOL    HW239064   4.211  13.249   9.557
12409SOL     OW39065  11.434   5.436   0.899
12409SOL    HW139066  11.495   5.391   0.841
12409SOL    HW239067  11.362   5.374   0.912
12410SOL     OW39068   1.018   6.753   5.134
12410SOL    HW139069   1.078   6.705   5.192
12410SOL    HW239070   0.993   6.689   5.068
12411SOL     OW39071  10.484   9.651   8.010
12411SOL    HW139072  10.560   9.613   7.967
12411SOL    HW239073  10.442   9.705   7.943
12412SOL     OW39074   0.983   5.588   0.872
12412SOL    HW139075   0.928   5.658   0.838
12412SOL    HW239076   0.923   5.517   0.891
12413SOL     OW39077  10.547  11.841   2.729
12413SOL    HW139078  10.531  11.747   2.733
12413SOL    HW239079  10.604  11.852   2.653
12414SOL     OW39080  11.766   1.640   5.215
12414SOL    HW139081  11.796   1.555   5.248
12414SOL    HW239082  11.692   1.663   5.272
12415SOL     OW39083   0.515   7.371   2.756
12415SOL    HW139084   0.462   7.446   2.729
12415SOL    HW239085   0.513   7.312   2.681
12416SOL     OW39086  14.635  14.257  14.370
12416SOL    HW139087  14.636  14.353  14.375
12416SOL    HW239088  14.672  14.228  14.453
12417SOL     OW39089   7.758   2.302  14.368
12417SOL    HW139090   7.710   2.364  14.313
12417SOL    HW239091   7.850   2.320  14.350
12418SOL     OW39092  14.124   9.765   3.899
12418SOL    HW139093  14.030   9.746   3.903
12418SOL    HW239094  14.155   9.715   3.823
12419SOL     OW39095  13.899   1.112   3.680
12419SOL    HW139096  13.847   1.043   3.721
12419SOL    HW239097  13.967   1.132   3.744
12420SOL     OW39098  12.263   4.201   0.010
12420SOL    HW139099  12.303   4.189   0.096
12420SOL    HW239100  12.170   4.215   0.028
12421SOL     OW39101   4.086   6.996  10.677
12421SOL    HW139102   4.114   6.984  10.768
12421SOL    HW239103   4.092   7.090  10.662
12422SOL     OW39104   1.158  14.460   1.609
12422SOL    HW139105   1.070  14.488   1.583
12422SOL    HW239106   1.146  14.371   1.643
12423SOL     OW39107   2.434   0.351   3.065
12423SOL    HW139108   2.358   0.397   3.030
12423SOL    HW239109   2.452   0.396   3.148
12424SOL     OW39110   5.476   1.381   2.171
12424SOL    HW139111   5.444   1.430   2.095
12424SOL    HW239112   5.540   1.438   2.213
12425SOL     OW39113  12.739   0.264   0.597
12425SOL    HW139114  12.804   0.250   0.528
12425SOL    HW239115  12.787   0.310   0.666
12426SOL     OW39116  12.244  11.940   2.492
12426SOL    HW139117  12.319  11.919   2.549
12426SOL    HW239118  12.177  11.973   2.552
12427SOL     OW39119   6.968   4.382   8.267
12427SOL    HW139120   7.023   4.461   8.271
12427SOL    HW239121   6.905   4.393   8.338
12428SOL     OW39122  12.828   2.768  13.348
12428SOL    HW139123  12.864   2.680  13.350
12428SOL    HW239124  12.734   2.756  13.343
12429SOL     OW39125   6.158  11.959  10.975
12429SOL    HW139126   6.083  11.901  10.982
12429SOL    HW239127   6.193  11.964  11.064
12430SOL     OW39128  10.863   6.354   0.842
12430SOL    HW139129  10.824   6.274   0.878
12430SOL    HW239130  10.869   6.338   0.748
12431SOL     OW39131   9.869   0.425   8.976
12431SOL    HW139132   9.816   0.356   8.936
12431SOL    HW239133   9.834   0.506   8.940
12432SOL     OW39134  12.656   3.822  14.355
12432SOL    HW139135  12.626   3.816  14.446
12432SOL    HW239136  12.577   3.806  14.303
12433SOL     OW39137   3.619  12.770   7.285
12433SOL    HW139138   3.538  12.779   7.235
12433SOL    HW239139   3.591  12.779   7.377
12434SOL     OW39140   6.098   6.883   1.493
12434SOL    HW139141   6.172   6.825   1.512
12434SOL    HW239142   6.137   6.969   1.482
12435SOL     OW39143   5.665   7.879   0.134
12435SOL    HW139144   5.689   7.913   0.048
12435SOL    HW239145   5.733   7.814   0.153
12436SOL     OW39146   4.409   2.789   8.879
12436SOL    HW139147   4.315   2.788   8.862
12436SOL    HW239148   4.443   2.859   8.823
12437SOL     OW39149  14.863   5.338   0.819
12437SOL    HW139150  14.802   5.371   0.754
12437SOL    HW239151  14.877   5.412   0.879
12438SOL     OW39152   5.398   9.262   6.486
12438SOL    HW139153   5.378   9.350   6.456
12438SOL    HW239154   5.333   9.206   6.443
12439SOL     OW39155  12.055   2.985  12.798
12439SOL    HW139156  11.985   2.944  12.746
12439SOL    HW239157  12.010   3.044  12.857
12440SOL     OW39158   3.374   8.310   6.743
12440SOL    HW139159   3.379   8.402   6.768
12440SOL    HW239160   3.342   8.311   6.652
12441SOL     OW39161   5.129   2.662   8.156
12441SOL    HW139162   5.039   2.629   8.153
12441SOL    HW239163   5.157   2.664   8.064
12442SOL     OW39164   3.580   9.325  13.187
12442SOL    HW139165   3.539   9.369  13.261
12442SOL    HW239166   3.524   9.345  13.112
12443SOL     OW39167   6.892   1.431   5.553
12443SOL    HW139168   6.981   1.401   5.573
12443SOL    HW239169   6.873   1.392   5.468
12444SOL     OW39170   8.883   6.005   2.922
12444SOL    HW139171   8.888   6.100   2.935
12444SOL    HW239172   8.924   5.990   2.837
12445SOL     OW39173   6.438  11.752   5.093
12445SOL    HW139174   6.491  11.771   5.170
12445SOL    HW239175   6.371  11.822   5.092
12446SOL     OW39176  14.845   3.470   5.686
12446SOL    HW139177  14.766   3.520   5.663
12446SOL    HW239178   0.035   3.511   5.635
12447SOL     OW39179   6.694   5.504   8.642
12447SOL    HW139180   6.661   5.550   8.719
12447SOL    HW239181   6.656   5.551   8.568
12448SOL     OW39182   5.140  10.231   7.907
12448SOL    HW139183   5.146  10.161   7.843
12448SOL    HW239184   5.208  10.294   7.881
12449SOL     OW39185  11.304   4.308   7.134
12449SOL    HW139186  11.393   4.280   7.112
12449SOL    HW239187  11.265   4.232   7.177
12450SOL     OW39188  13.856   0.573  10.098
12450SOL    HW139189  13.945   0.598  10.123
12450SOL    HW239190  13.801   0.644  10.131
12451SOL     OW39191  13.389   6.485  13.395
12451SOL    HW139192  13.358   6.429  13.325
12451SOL    HW239193  13.321   6.479  13.463
12452SOL     OW39194   8.428   9.345   6.342
12452SOL    HW139195   8.488   9.350   6.417
12452SOL    HW239196   8.361   9.411   6.360
12453SOL     OW39197  10.750  12.121   7.055
12453SOL    HW139198  10.701  12.198   7.084
12453SOL    HW239199  10.719  12.104   6.966
12454SOL     OW39200   0.868  14.568  11.739
12454SOL    HW139201   0.933  14.498  11.735
12454SOL    HW239202   0.790  14.525  11.775
12455SOL     OW39203   8.851   6.643   4.106
12455SOL    HW139204   8.937   6.621   4.142
12455SOL    HW239205   8.832   6.571   4.045
12456SOL     OW39206   5.384   6.264   4.836
12456SOL    HW139207   5.452   6.206   4.802
12456SOL    HW239208   5.350   6.219   4.913
12457SOL     OW39209   5.139   7.318   3.542
12457SOL    HW139210   5.069   7.320   3.607
12457SOL    HW239211   5.095   7.298   3.459
12458SOL     OW39212  11.769   9.271   7.224
12458SOL    HW139213  11.736   9.285   7.313
12458SOL    HW239214  11.690   9.272   7.170
12459SOL     OW39215   4.369   6.834   2.323
12459SOL    HW139216   4.361   6.802   2.233
12459SOL    HW239217   4.310   6.778   2.373
12460SOL     OW39218  13.031   2.377   7.146
12460SOL    HW139219  13.005   2.290   7.178
12460SOL    HW239220  13.127   2.372   7.140
12461SOL     OW39221   5.173   0.540  11.065
12461SOL    HW139222   5.193   0.634  11.066
12461SOL    HW239223   5.088   0.533  11.109
12462SOL     OW39224   7.066  10.742  13.282
12462SOL    HW139225   6.985  10.780  13.316
12462SOL    HW239226   7.086  10.670  13.342
12463SOL     OW39227   4.362   7.585   2.990
12463SOL    HW139228   4.294   7.597   2.924
12463SOL    HW239229   4.440   7.627   2.953
12464SOL     OW39230   0.433   3.435   5.195
12464SOL    HW139231   0.398   3.356   5.236
12464SOL    HW239232   0.447   3.410   5.104
12465SOL     OW39233  12.825   7.166   1.917
12465SOL    HW139234  12.738   7.205   1.909
12465SOL    HW239235  12.830   7.138   2.008
12466SOL     OW39236  14.644   0.040  14.784
12466SOL    HW139237  14.590  14.843  14.765
12466SOL    HW239238  14.732   0.016  14.756
12467SOL     OW39239   9.935   7.969   3.532
12467SOL    HW139240  10.002   8.023   3.490
12467SOL    HW239241   9.936   7.887   3.483
12468SOL     OW39242   4.766  13.961   9.148
12468SOL    HW139243   4.859  13.940   9.163
12468SOL    HW239244   4.720  13.910   9.214
12469SOL     OW39245   1.179   5.819   6.309
12469SOL    HW139246   1.158   5.774   6.391
12469SOL    HW239247   1.215   5.750   6.254
12470SOL     OW39248   7.616   2.631  14.598
12470SOL    HW139249   7.562   2.706  14.623
12470SOL    HW239250   7.672   2.615  14.674
12471SOL     OW39251  10.762   3.970  13.600
12471SOL    HW139252  10.792   3.883  13.574
12471SOL    HW239253  10.695   3.993  13.536
12472SOL     OW39254   2.617  10.423   3.302
12472SOL    HW139255   2.689  10.454   3.248
12472SOL    HW239256   2.656  10.357   3.359
12473SOL     OW39257  13.103   8.737  11.555
12473SOL    HW139258  13.009   8.743  11.538
12473SOL    HW239259  13.125   8.646  11.535
12474SOL     OW39260  11.362  13.616   4.665
12474SOL    HW139261  11.309  13.556   4.613
12474SOL    HW239262  11.451  13.604   4.632
12475SOL     OW39263   8.420   8.497  14.588
12475SOL    HW139264   8.377   8.577  14.618
12475SOL    HW239265   8.357   8.428  14.606
12476SOL     OW39266  10.464   7.609  13.357
12476SOL    HW139267  10.500   7.529  13.396
12476SOL    HW239268  10.375   7.614  13.390
12477SOL     OW39269  10.468  14.424   5.957
12477SOL    HW139270  10.448  14.398   5.867
12477SOL    HW239271  10.557  14.394   5.972
12478SOL     OW39272   9.767  13.023   3.924
12478SOL    HW139273   9.735  12.989   4.008
12478SOL    HW239274   9.742  13.116   3.924
12479SOL     OW39275   0.580   7.148  13.275
12479SOL    HW139276   0.500   7.179  13.318
12479SOL    HW239277   0.580   7.192  13.190
12480SOL     OW39278   7.566   5.897   5.653
12480SOL    HW139279   7.529   5.904   5.565
12480SOL    HW239280   7.643   5.954   5.651
12481SOL     OW39281  11.120  11.134  12.318
12481SOL    HW139282  11.143  11.197  12.250
12481SOL    HW239283  11.029  11.155  12.340
12482SOL     OW39284   9.226   4.526  12.223
12482SOL    HW139285   9.259   4.588  12.158
12482SOL    HW239286   9.178   4.461  12.172
12483SOL     OW39287   5.023   6.025   3.817
12483SOL    HW139288   5.086   6.001   3.749
12483SOL    HW239289   4.944   5.976   3.796
12484SOL     OW39290  11.458  14.622   3.870
12484SOL    HW139291  11.548  14.592   3.884
12484SOL    HW239292  11.413  14.599   3.952
12485SOL     OW39293   4.526   8.197   6.569
12485SOL    HW139294   4.444   8.165   6.530
12485SOL    HW239295   4.570   8.244   6.499
12486SOL     OW39296  10.628   5.535  14.487
12486SOL    HW139297  10.641   5.528  14.392
12486SOL    HW239298  10.595   5.449  14.513
12487SOL     OW39299  11.332   7.690   1.575
12487SOL    HW139300  11.380   7.622   1.621
12487SOL    HW239301  11.249   7.697   1.623
12488SOL     OW39302   1.088   7.417   2.802
12488SOL    HW139303   1.032   7.340   2.807
12488SOL    HW239304   1.038   7.486   2.846
12489SOL     OW39305   0.511   8.451  14.148
12489SOL    HW139306   0.591   8.459  14.095
12489SOL    HW239307   0.524   8.371  14.198
12490SOL     OW39308   6.018  11.269   3.404
12490SOL    HW139309   5.939  11.216   3.396
12490SOL    HW239310   6.089  11.210   3.380
12491SOL     OW39311   0.836   6.974   4.196
12491SOL    HW139312   0.777   6.943   4.128
12491SOL    HW239313   0.900   6.903   4.206
12492SOL     OW39314  10.000   2.991  10.084
12492SOL    HW139315  10.031   2.968  10.172
12492SOL    HW239316  10.059   3.061  10.055
12493SOL     OW39317   6.210   1.480   5.076
12493SOL    HW139318   6.185   1.411   5.015
12493SOL    HW239319   6.128   1.526   5.095
12494SOL     OW39320   4.796   7.451   1.199
12494SOL    HW139321   4.704   7.467   1.218
12494SOL    HW239322   4.842   7.483   1.276
12495SOL     OW39323   2.630   9.092   4.050
12495SOL    HW139324   2.544   9.092   4.093
12495SOL    HW239325   2.617   9.045   3.968
12496SOL     OW39326   8.431  13.762   4.531
12496SOL    HW139327   8.405  13.851   4.555
12496SOL    HW239328   8.526  13.761   4.539
12497SOL     OW39329   6.481   1.154  14.311
12497SOL    HW139330   6.387   1.172  14.303
12497SOL    HW239331   6.489   1.106  14.394
12498SOL     OW39332   1.555   3.866   5.303
12498SOL    HW139333   1.531   3.790   5.249
12498SOL    HW239334   1.642   3.843   5.337
12499SOL     OW39335  10.148  14.431   3.115
12499SOL    HW139336  10.160  14.427   3.020
12499SOL    HW239337  10.236  14.420   3.150
12500SOL     OW39338  13.841  14.289   0.028
12500SOL    HW139339  13.844  14.200  14.875
12500SOL    HW239340  13.903  14.291   0.100
12501SOL     OW39341   3.603   0.335   9.379
12501SOL    HW139342   3.549   0.394   9.326
12501SOL    HW239343   3.541   0.292   9.438
12502SOL     OW39344   4.103   6.648  11.502
12502SOL    HW139345   4.060   6.687  11.578
12502SOL    HW239346   4.135   6.564  11.534
12503SOL     OW39347  11.634  10.004  12.769
12503SOL    HW139348  11.672  10.027  12.684
12503SOL    HW239349  11.686   9.930  12.799
12504SOL     OW39350   6.031   1.876  13.991
12504SOL    HW139351   6.019   1.782  13.979
12504SOL    HW239352   6.016   1.914  13.904
12505SOL     OW39353  11.386  13.485  14.040
12505SOL    HW139354  11.380  13.488  13.944
12505SOL    HW239355  11.456  13.547  14.061
12506SOL     OW39356  13.799   7.844   9.487
12506SOL    HW139357  13.807   7.784   9.413
12506SOL    HW239358  13.836   7.795   9.561
12507SOL     OW39359   1.566   6.958   0.044
12507SOL    HW139360   1.492   7.010   0.076
12507SOL    HW239361   1.560   6.965  14.829
12508SOL     OW39362   8.055   3.827  10.133
12508SOL    HW139363   8.110   3.898  10.099
12508SOL    HW239364   8.115   3.772  10.182
12509SOL     OW39365   4.271   7.434   9.295
12509SOL    HW139366   4.334   7.483   9.242
12509SOL    HW239367   4.224   7.501   9.344
12510SOL     OW39368   1.647   5.970   5.417
12510SOL    HW139369   1.730   6.011   5.441
12510SOL    HW239370   1.608   5.945   5.500
12511SOL     OW39371   7.722  13.797   3.690
12511SOL    HW139372   7.681  13.807   3.603
12511SOL    HW239373   7.810  13.766   3.671
12512SOL     OW39374   0.538   6.520   1.493
12512SOL    HW139375   0.483   6.443   1.503
12512SOL    HW239376   0.521   6.572   1.572
12513SOL     OW39377   1.495   0.743  10.792
12513SOL    HW139378   1.458   0.775  10.874
12513SOL    HW239379   1.425   0.691  10.753
12514SOL     OW39380   4.133  12.192  13.157
12514SOL    HW139381   4.203  12.158  13.101
12514SOL    HW239382   4.172  12.268  13.202
12515SOL     OW39383  12.474   3.484   6.436
12515SOL    HW139384  12.403   3.544   6.417
12515SOL    HW239385  12.471   3.471   6.531
12516SOL     OW39386  11.678  14.222  13.343
12516SOL    HW139387  11.615  14.284  13.306
12516SOL    HW239388  11.672  14.236  13.438
12517SOL     OW39389   4.568  13.200  10.671
12517SOL    HW139390   4.552  13.291  10.694
12517SOL    HW239391   4.615  13.164  10.746
12518SOL     OW39392   6.679   3.360   0.295
12518SOL    HW139393   6.656   3.420   0.366
12518SOL    HW239394   6.615   3.379   0.226
12519SOL     OW39395   2.103  13.137   2.098
12519SOL    HW139396   2.165  13.084   2.047
12519SOL    HW239397   2.063  13.075   2.159
12520SOL     OW39398   5.765  10.269   3.312
12520SOL    HW139399   5.688  10.242   3.261
12520SOL    HW239400   5.746  10.358   3.339
12521SOL     OW39401   7.273   7.627   1.821
12521SOL    HW139402   7.280   7.542   1.778
12521SOL    HW239403   7.232   7.684   1.755
12522SOL     OW39404   9.100  13.715   2.958
12522SOL    HW139405   9.123  13.642   2.900
12522SOL    HW239406   9.181  13.766   2.966
12523SOL     OW39407   9.810   2.727   3.435
12523SOL    HW139408   9.794   2.731   3.340
12523SOL    HW239409   9.751   2.659   3.466
12524SOL     OW39410   1.260   3.102   8.552
12524SOL    HW139411   1.239   3.014   8.521
12524SOL    HW239412   1.175   3.142   8.570
12525SOL     OW39413  13.486   1.820  10.260
12525SOL    HW139414  13.498   1.906  10.220
12525SOL    HW239415  13.489   1.837  10.354
12526SOL     OW39416   6.743   0.926   5.138
12526SOL    HW139417   6.824   0.956   5.180
12526SOL    HW239418   6.707   1.005   5.098
12527SOL     OW39419   4.441   4.180   5.390
12527SOL    HW139420   4.426   4.256   5.446
12527SOL    HW239421   4.526   4.197   5.349
12528SOL     OW39422  12.513   9.519  12.998
12528SOL    HW139423  12.547   9.467  13.071
12528SOL    HW239424  12.579   9.587  12.984
12529SOL     OW39425  10.700   2.765   4.611
12529SOL    HW139426  10.668   2.787   4.523
12529SOL    HW239427  10.625   2.780   4.668
12530SOL     OW39428  11.489  11.727   4.385
12530SOL    HW139429  11.546  11.651   4.378
12530SOL    HW239430  11.401  11.691   4.396
12531SOL     OW39431  10.097   0.912   6.896
12531SOL    HW139432  10.111   1.003   6.870
12531SOL    HW239433  10.003   0.905   6.910
12532SOL     OW39434   8.964  12.989   0.788
12532SOL    HW139435   8.992  12.965   0.876
12532SOL    HW239436   8.926  13.077   0.798
12533SOL     OW39437   9.051   2.490   1.936
12533SOL    HW139438   9.074   2.424   2.001
12533SOL    HW239439   8.958   2.507   1.950
12534SOL     OW39440  13.230  14.580   4.245
12534SOL    HW139441  13.194  14.656   4.289
12534SOL    HW239442  13.159  14.515   4.247
12535SOL     OW39443   6.932   0.108   6.303
12535SOL    HW139444   6.896   0.034   6.352
12535SOL    HW239445   6.902   0.094   6.213
12536SOL     OW39446   2.991  14.670  14.557
12536SOL    HW139447   3.013  14.744  14.500
12536SOL    HW239448   2.969  14.599  14.498
12537SOL     OW39449   9.782   0.128   3.171
12537SOL    HW139450   9.772   0.047   3.121
12537SOL    HW239451   9.692   0.151   3.196
12538SOL     OW39452   3.698   6.371   5.228
12538SOL    HW139453   3.749   6.400   5.304
12538SOL    HW239454   3.688   6.277   5.239
12539SOL     OW39455   1.467  12.641  12.214
12539SOL    HW139456   1.385  12.690  12.215
12539SOL    HW239457   1.482  12.616  12.305
12540SOL     OW39458   9.398  12.373   2.216
12540SOL    HW139459   9.428  12.292   2.176
12540SOL    HW239460   9.422  12.365   2.309
12541SOL     OW39461  12.083  11.927  11.534
12541SOL    HW139462  12.130  11.858  11.580
12541SOL    HW239463  12.140  11.950  11.461
12542SOL     OW39464   4.682  13.647   5.752
12542SOL    HW139465   4.644  13.565   5.723
12542SOL    HW239466   4.648  13.660   5.840
12543SOL     OW39467   7.597   7.654   4.070
12543SOL    HW139468   7.526   7.646   4.134
12543SOL    HW239469   7.661   7.589   4.098
12544SOL     OW39470  14.579   6.078   2.228
12544SOL    HW139471  14.562   6.167   2.197
12544SOL    HW239472  14.668   6.082   2.264
12545SOL     OW39473  12.385   6.542   2.698
12545SOL    HW139474  12.310   6.584   2.739
12545SOL    HW239475  12.433   6.614   2.657
12546SOL     OW39476   0.099   7.580   2.585
12546SOL    HW139477   0.014   7.598   2.624
12546SOL    HW239478   0.103   7.638   2.508
12547SOL     OW39479   2.683  11.842  10.299
12547SOL    HW139480   2.758  11.815  10.352
12547SOL    HW239481   2.686  11.785  10.222
12548SOL     OW39482   0.535  11.793   7.169
12548SOL    HW139483   0.476  11.779   7.244
12548SOL    HW239484   0.593  11.863   7.197
12549SOL     OW39485   3.747   6.229   9.859
12549SOL    HW139486   3.740   6.324   9.856
12549SOL    HW239487   3.833   6.210   9.822
12550SOL     OW39488  11.656  14.773   7.628
12550SOL    HW139489  11.655  14.681   7.603
12550SOL    HW239490  11.745  14.802   7.611
12551SOL     OW39491   6.229   0.659   2.427
12551SOL    HW139492   6.211   0.571   2.459
12551SOL    HW239493   6.187   0.716   2.491
12552SOL     OW39494  13.705   6.589   4.179
12552SOL    HW139495  13.698   6.494   4.186
12552SOL    HW239496  13.701   6.606   4.085
12553SOL     OW39497   4.923   3.876   1.621
12553SOL    HW139498   4.907   3.963   1.657
12553SOL    HW239499   4.958   3.825   1.694
12554SOL     OW39500   1.236  11.558   3.877
12554SOL    HW139501   1.230  11.569   3.972
12554SOL    HW239502   1.317  11.603   3.852
12555SOL     OW39503   1.249  12.919   7.368
12555SOL    HW139504   1.219  12.876   7.289
12555SOL    HW239505   1.248  13.012   7.347
12556SOL     OW39506  12.345   3.033   2.485
12556SOL    HW139507  12.413   3.099   2.471
12556SOL    HW239508  12.276   3.056   2.423
12557SOL     OW39509   2.240  13.027   3.385
12557SOL    HW139510   2.226  12.991   3.473
12557SOL    HW239511   2.255  12.949   3.331
12558SOL     OW39512  11.182  10.920   6.453
12558SOL    HW139513  11.270  10.920   6.414
12558SOL    HW239514  11.176  10.835   6.497
12559SOL     OW39515   3.830   5.584   2.161
12559SOL    HW139516   3.764   5.640   2.202
12559SOL    HW239517   3.907   5.592   2.216
12560SOL     OW39518   8.034  11.353   1.034
12560SOL    HW139519   8.028  11.380   1.125
12560SOL    HW239520   7.992  11.267   1.031
12561SOL     OW39521  12.570  12.086  13.738
12561SOL    HW139522  12.613  12.161  13.778
12561SOL    HW239523  12.587  12.095  13.644
12562SOL     OW39524  10.173   4.818  14.615
12562SOL    HW139525  10.252   4.800  14.565
12562SOL    HW239526  10.124   4.882  14.563
12563SOL     OW39527   1.061  14.194   6.122
12563SOL    HW139528   1.125  14.246   6.075
12563SOL    HW239529   1.040  14.246   6.200
12564SOL     OW39530   8.595   7.496   2.694
12564SOL    HW139531   8.657   7.544   2.749
12564SOL    HW239532   8.530   7.461   2.755
12565SOL     OW39533   9.180   3.450   1.778
12565SOL    HW139534   9.160   3.531   1.730
12565SOL    HW239535   9.170   3.381   1.714
12566SOL     OW39536   1.192   4.610  10.321
12566SOL    HW139537   1.161   4.634  10.408
12566SOL    HW239538   1.172   4.686  10.266
12567SOL     OW39539  13.832   1.786   3.757
12567SOL    HW139540  13.865   1.734   3.830
12567SOL    HW239541  13.911   1.823   3.716
12568SOL     OW39542  11.714   6.605  10.231
12568SOL    HW139543  11.804   6.612  10.201
12568SOL    HW239544  11.715   6.638  10.321
12569SOL     OW39545   4.398  13.918  10.921
12569SOL    HW139546   4.310  13.882  10.915
12569SOL    HW239547   4.435  13.905  10.833
12570SOL     OW39548   3.449   0.165   1.316
12570SOL    HW139549   3.485   0.135   1.400
12570SOL    HW239550   3.456   0.260   1.320
12571SOL     OW39551   9.835  10.619   5.260
12571SOL    HW139552   9.844  10.656   5.347
12571SOL    HW239553   9.821  10.525   5.275
12572SOL     OW39554   9.184  12.090   5.755
12572SOL    HW139555   9.253  12.157   5.752
12572SOL    HW239556   9.124  12.120   5.823
12573SOL     OW39557   3.220   7.606   1.912
12573SOL    HW139558   3.237   7.577   2.001
12573SOL    HW239559   3.291   7.668   1.893
12574SOL     OW39560   3.111   5.225  12.386
12574SOL    HW139561   3.075   5.140  12.409
12574SOL    HW239562   3.205   5.216  12.399
12575SOL     OW39563  12.409   0.239   4.320
12575SOL    HW139564  12.419   0.197   4.405
12575SOL    HW239565  12.349   0.182   4.272
12576SOL     OW39566   4.321   9.261  13.117
12576SOL    HW139567   4.248   9.290  13.173
12576SOL    HW239568   4.398   9.305  13.152
12577SOL     OW39569   0.010   3.115   1.427
12577SOL    HW139570  14.821   3.058   1.393
12577SOL    HW239571  14.879   3.112   1.522
12578SOL     OW39572   9.618  13.308   9.908
12578SOL    HW139573   9.593  13.368   9.977
12578SOL    HW239574   9.562  13.331   9.834
12579SOL     OW39575   3.554   0.097   1.598
12579SOL    HW139576   3.500   0.161   1.643
12579SOL    HW239577   3.540   0.016   1.647
12580SOL     OW39578   4.223   5.095  13.489
12580SOL    HW139579   4.197   5.148  13.564
12580SOL    HW239580   4.255   5.158  13.425
12581SOL     OW39581   0.743  10.331   8.120
12581SOL    HW139582   0.675  10.278   8.160
12581SOL    HW239583   0.824  10.303   8.162
12582SOL     OW39584   2.630   5.498   3.628
12582SOL    HW139585   2.598   5.408   3.628
12582SOL    HW239586   2.636   5.522   3.720
12583SOL     OW39587   7.198   3.885  10.709
12583SOL    HW139588   7.166   3.799  10.734
12583SOL    HW239589   7.196   3.936  10.790
12584SOL     OW39590  13.382   5.188  14.726
12584SOL    HW139591  13.367   5.245  14.650
12584SOL    HW239592  13.468   5.149  14.710
12585SOL     OW39593  10.813   2.781   7.266
12585SOL    HW139594  10.885   2.719   7.253
12585SOL    HW239595  10.807   2.792   7.361
12586SOL     OW39596   4.430   3.654   8.913
12586SOL    HW139597   4.443   3.732   8.967
12586SOL    HW239598   4.518   3.615   8.906
12587SOL     OW39599   3.598  11.478   1.833
12587SOL    HW139600   3.608  11.469   1.738
12587SOL    HW239601   3.512  11.520   1.845
12588SOL     OW39602   5.281   7.412  13.542
12588SOL    HW139603   5.247   7.325  13.565
12588SOL    HW239604   5.293   7.456  13.627
12589SOL     OW39605   7.339   3.618   2.161
12589SOL    HW139606   7.352   3.694   2.103
12589SOL    HW239607   7.321   3.545   2.101
12590SOL     OW39608   2.421  12.035   4.695
12590SOL    HW139609   2.430  12.077   4.780
12590SOL    HW239610   2.509  12.034   4.659
12591SOL     OW39611   6.964   0.400   4.812
12591SOL    HW139612   6.950   0.411   4.718
12591SOL    HW239613   6.878   0.416   4.851
12592SOL     OW39614  12.944   2.106   8.095
12592SOL    HW139615  12.968   2.192   8.130
12592SOL    HW239616  12.859   2.121   8.053
12593SOL     OW39617   5.386   4.498  10.123
12593SOL    HW139618   5.452   4.563  10.100
12593SOL    HW239619   5.328   4.544  10.185
12594SOL     OW39620  11.128   8.710   4.569
12594SOL    HW139621  11.086   8.766   4.635
12594SOL    HW239622  11.218   8.741   4.565
12595SOL     OW39623   4.191   9.468   3.330
12595SOL    HW139624   4.164   9.418   3.253
12595SOL    HW239625   4.168   9.558   3.310
12596SOL     OW39626   7.413  11.188   3.468
12596SOL    HW139627   7.366  11.125   3.523
12596SOL    HW239628   7.491  11.141   3.438
12597SOL     OW39629  14.741   1.941  14.181
12597SOL    HW139630  14.717   2.002  14.251
12597SOL    HW239631  14.702   1.858  14.207
12598SOL     OW39632   1.092   9.166  10.865
12598SOL    HW139633   1.149   9.211  10.928
12598SOL    HW239634   1.074   9.082  10.906
12599SOL     OW39635   3.461   0.024   6.686
12599SOL    HW139636   3.552   0.050   6.675
12599SOL    HW239637   3.411   0.085   6.632
12600SOL     OW39638   2.003  12.271  10.235
12600SOL    HW139639   1.960  12.278  10.321
12600SOL    HW239640   2.070  12.340  10.237
12601SOL     OW39641   9.578   3.026   9.346
12601SOL    HW139642   9.622   2.942   9.340
12601SOL    HW239643   9.598   3.070   9.263
12602SOL     OW39644  11.599  10.961   1.514
12602SOL    HW139645  11.665  10.923   1.572
12602SOL    HW239646  11.578  10.891   1.452
12603SOL     OW39647  10.343   0.346  10.309
12603SOL    HW139648  10.377   0.262  10.338
12603SOL    HW239649  10.362   0.349  10.215
12604SOL     OW39650  14.476   2.556  14.481
12604SOL    HW139651  14.543   2.491  14.501
12604SOL    HW239652  14.401   2.505  14.450
12605SOL     OW39653  11.970  10.580  14.549
12605SOL    HW139654  12.050  10.593  14.499
12605SOL    HW239655  11.963  10.658  14.604
12606SOL     OW39656   5.549  13.427   4.801
12606SOL    HW139657   5.462  13.420   4.839
12606SOL    HW239658   5.609  13.421   4.876
12607SOL     OW39659  12.803   6.543   7.355
12607SOL    HW139660  12.722   6.503   7.385
12607SOL    HW239661  12.836   6.482   7.288
12608SOL     OW39662   4.024   1.112  12.529
12608SOL    HW139663   4.062   1.199  12.544
12608SOL    HW239664   4.072   1.078  12.454
12609SOL     OW39665   9.236   2.283   1.236
12609SOL    HW139666   9.326   2.259   1.258
12609SOL    HW239667   9.232   2.277   1.141
12610SOL     OW39668   4.564  12.129   9.218
12610SOL    HW139669   4.523  12.102   9.136
12610SOL    HW239670   4.586  12.046   9.262
12611SOL     OW39671  13.186   4.571   3.694
12611SOL    HW139672  13.127   4.637   3.657
12611SOL    HW239673  13.234   4.537   3.618
12612SOL     OW39674  13.092   6.525   8.246
12612SOL    HW139675  13.020   6.543   8.307
12612SOL    HW239676  13.166   6.572   8.283
12613SOL     OW39677   0.321  14.738   5.941
12613SOL    HW139678   0.264  14.809   5.913
12613SOL    HW239679   0.379  14.722   5.866
12614SOL     OW39680   6.097  10.969   7.141
12614SOL    HW139681   6.045  10.906   7.192
12614SOL    HW239682   6.045  10.983   7.061
12615SOL     OW39683   1.731   1.448   2.368
12615SOL    HW139684   1.712   1.509   2.439
12615SOL    HW239685   1.690   1.366   2.394
12616SOL     OW39686   4.325  12.254   4.391
12616SOL    HW139687   4.368  12.305   4.322
12616SOL    HW239688   4.248  12.217   4.348
12617SOL     OW39689   7.814   7.122   1.401
12617SOL    HW139690   7.838   7.039   1.360
12617SOL    HW239691   7.788   7.098   1.490
12618SOL     OW39692  12.358  11.721   2.199
12618SOL    HW139693  12.322  11.632   2.199
12618SOL    HW239694  12.414  11.725   2.276
12619SOL     OW39695   2.072   3.691  14.492
12619SOL    HW139696   2.044   3.780  14.471
12619SOL    HW239697   2.102   3.696  14.583
12620SOL     OW39698   4.738  10.908  11.435
12620SOL    HW139699   4.689  10.958  11.369
12620SOL    HW239700   4.738  10.818  11.402
12621SOL     OW39701   8.977   2.496   6.274
12621SOL    HW139702   9.054   2.472   6.222
12621SOL    HW239703   8.933   2.413   6.292
12622SOL     OW39704   9.668   3.355   0.500
12622SOL    HW139705   9.587   3.378   0.453
12622SOL    HW239706   9.735   3.410   0.461
12623SOL     OW39707   7.692  11.615  13.027
12623SOL    HW139708   7.750  11.586  13.097
12623SOL    HW239709   7.649  11.535  12.997
12624SOL     OW39710   0.663   4.342  10.547
12624SOL    HW139711   0.713   4.283  10.490
12624SOL    HW239712   0.591   4.288  10.580
12625SOL     OW39713   6.395   8.484  12.909
12625SOL    HW139714   6.417   8.391  12.906
12625SOL    HW239715   6.436   8.521  12.831
12626SOL     OW39716   3.467   9.696  12.862
12626SOL    HW139717   3.390   9.644  12.839
12626SOL    HW239718   3.497   9.733  12.779
12627SOL     OW39719  12.224   5.714  12.150
12627SOL    HW139720  12.315   5.689  12.162
12627SOL    HW239721  12.176   5.660  12.212
12628SOL     OW39722  13.147   5.100  14.504
12628SOL    HW139723  13.119   5.100  14.595
12628SOL    HW239724  13.070   5.073  14.454
12629SOL     OW39725   7.350   0.662  10.491
12629SOL    HW139726   7.287   0.592  10.507
12629SOL    HW239727   7.298   0.732  10.451
12630SOL     OW39728  10.550   2.139   1.606
12630SOL    HW139729  10.464   2.176   1.587
12630SOL    HW239730  10.570   2.169   1.695
12631SOL     OW39731   6.593   5.216   9.717
12631SOL    HW139732   6.684   5.247   9.711
12631SOL    HW239733   6.596   5.127   9.682
12632SOL     OW39734   4.689   0.453  12.863
12632SOL    HW139735   4.699   0.435  12.956
12632SOL    HW239736   4.704   0.369  12.820
12633SOL     OW39737   1.874  12.717  11.779
12633SOL    HW139738   1.804  12.654  11.796
12633SOL    HW239739   1.843  12.798  11.820
12634SOL     OW39740  13.971  10.483  10.712
12634SOL    HW139741  13.894  10.518  10.668
12634SOL    HW239742  13.954  10.389  10.721
12635SOL     OW39743   7.027   2.223   5.480
12635SOL    HW139744   7.003   2.280   5.553
12635SOL    HW239745   7.105   2.265   5.442
12636SOL     OW39746  12.428   4.617   1.088
12636SOL    HW139747  12.424   4.686   1.155
12636SOL    HW239748  12.461   4.540   1.135
12637SOL     OW39749  11.528   1.283   0.552
12637SOL    HW139750  11.486   1.275   0.466
12637SOL    HW239751  11.455   1.285   0.614
12638SOL     OW39752  11.327  10.438  11.943
12638SOL    HW139753  11.268  10.365  11.961
12638SOL    HW239754  11.383  10.407  11.873
12639SOL     OW39755   4.427   8.468   2.881
12639SOL    HW139756   4.367   8.541   2.868
12639SOL    HW239757   4.453   8.442   2.793
12640SOL     OW39758   5.466  12.200   5.479
12640SOL    HW139759   5.459  12.212   5.385
12640SOL    HW239760   5.417  12.120   5.497
12641SOL     OW39761   4.385  14.460   0.503
12641SOL    HW139762   4.332  14.539   0.516
12641SOL    HW239763   4.321  14.388   0.502
12642SOL     OW39764   5.112  13.335   2.317
12642SOL    HW139765   5.086  13.401   2.252
12642SOL    HW239766   5.182  13.286   2.274
12643SOL     OW39767   3.827  12.798  10.448
12643SOL    HW139768   3.732  12.803  10.432
12643SOL    HW239769   3.835  12.769  10.539
12644SOL     OW39770  10.884  12.303   3.474
12644SOL    HW139771  10.894  12.359   3.552
12644SOL    HW239772  10.969  12.306   3.431
12645SOL     OW39773   4.973   3.153   2.869
12645SOL    HW139774   4.949   3.065   2.897
12645SOL    HW239775   4.920   3.169   2.791
12646SOL     OW39776  12.445   3.439   3.083
12646SOL    HW139777  12.486   3.447   3.169
12646SOL    HW239778  12.431   3.345   3.071
12647SOL     OW39779  10.573  11.692   8.905
12647SOL    HW139780  10.486  11.699   8.944
12647SOL    HW239781  10.579  11.766   8.846
12648SOL     OW39782  11.304  13.728  10.899
12648SOL    HW139783  11.363  13.655  10.881
12648SOL    HW239784  11.348  13.777  10.969
12649SOL     OW39785  12.420  13.924   3.041
12649SOL    HW139786  12.473  14.003   3.042
12649SOL    HW239787  12.411  13.903   2.948
12650SOL     OW39788  11.147  10.900  14.165
12650SOL    HW139789  11.220  10.912  14.225
12650SOL    HW239790  11.166  10.959  14.092
12651SOL     OW39791   4.432   9.182   2.625
12651SOL    HW139792   4.451   9.267   2.586
12651SOL    HW239793   4.512   9.131   2.615
12652SOL     OW39794  13.090  12.445  12.905
12652SOL    HW139795  13.025  12.436  12.835
12652SOL    HW239796  13.165  12.488  12.863
12653SOL     OW39797   5.699   5.201   8.802
12653SOL    HW139798   5.719   5.230   8.891
12653SOL    HW239799   5.703   5.282   8.750
12654SOL     OW39800  10.793   2.354   2.894
12654SOL    HW139801  10.813   2.440   2.855
12654SOL    HW239802  10.755   2.375   2.979
12655SOL     OW39803   6.535  10.801  13.258
12655SOL    HW139804   6.582  10.791  13.175
12655SOL    HW239805   6.550  10.893  13.283
12656SOL     OW39806   9.250   4.409  11.563
12656SOL    HW139807   9.155   4.414  11.574
12656SOL    HW239808   9.279   4.500  11.570
12657SOL     OW39809  13.400   9.177   8.035
12657SOL    HW139810  13.363   9.173   8.123
12657SOL    HW239811  13.474   9.237   8.043
12658SOL     OW39812   6.381   2.551   5.293
12658SOL    HW139813   6.352   2.631   5.251
12658SOL    HW239814   6.448   2.515   5.234
12659SOL     OW39815  10.060  14.715   3.627
12659SOL    HW139816  10.004  14.750   3.696
12659SOL    HW239817  10.017  14.633   3.600
12660SOL     OW39818   0.857   5.919   0.871
12660SOL    HW139819   0.945   5.955   0.884
12660SOL    HW239820   0.801   5.996   0.859
12661SOL     OW39821  12.369  10.482   6.076
12661SOL    HW139822  12.385  10.484   5.982
12661SOL    HW239823  12.276  10.503   6.085
12662SOL     OW39824   9.415   1.097   0.979
12662SOL    HW139825   9.324   1.108   1.008
12662SOL    HW239826   9.450   1.186   0.977
12663SOL     OW39827   4.875   2.163   3.449
12663SOL    HW139828   4.837   2.250   3.441
12663SOL    HW239829   4.918   2.163   3.534
12664SOL     OW39830   0.965   9.071  12.618
12664SOL    HW139831   0.875   9.065  12.584
12664SOL    HW239832   1.007   9.136  12.561
12665SOL     OW39833   8.097   5.146   1.188
12665SOL    HW139834   8.183   5.177   1.216
12665SOL    HW239835   8.077   5.073   1.247
12666SOL     OW39836   7.949   5.363   4.550
12666SOL    HW139837   7.926   5.440   4.498
12666SOL    HW239838   8.045   5.364   4.554
12667SOL     OW39839   6.943   4.882   0.797
12667SOL    HW139840   6.890   4.957   0.770
12667SOL    HW239841   6.940   4.884   0.893
12668SOL     OW39842   5.874   7.467   2.017
12668SOL    HW139843   5.825   7.548   2.007
12668SOL    HW239844   5.807   7.399   2.023
12669SOL     OW39845  11.151   9.052   6.958
12669SOL    HW139846  11.231   9.078   6.913
12669SOL    HW239847  11.082   9.107   6.920
12670SOL     OW39848   7.222   2.848  11.392
12670SOL    HW139849   7.141   2.816  11.352
12670SOL    HW239850   7.214   2.943  11.391
12671SOL     OW39851   1.381   5.036   7.251
12671SOL    HW139852   1.458   5.083   7.219
12671SOL    HW239853   1.413   4.947   7.267
12672SOL     OW39854   0.880   2.811   6.461
12672SOL    HW139855   0.967   2.821   6.423
12672SOL    HW239856   0.831   2.761   6.395
12673SOL     OW39857   3.735   9.293   6.569
12673SOL    HW139858   3.731   9.376   6.521
12673SOL    HW239859   3.646   9.280   6.602
12674SOL     OW39860  12.505  12.621  10.111
12674SOL    HW139861  12.503  12.703  10.061
12674SOL    HW239862  12.416  12.612  10.144
12675SOL     OW39863   9.896   0.333   4.076
12675SOL    HW139864   9.898   0.302   4.166
12675SOL    HW239865   9.926   0.424   4.081
12676SOL     OW39866   5.735  13.610   4.688
12676SOL    HW139867   5.656  13.559   4.705
12676SOL    HW239868   5.719  13.651   4.603
12677SOL     OW39869  13.076   7.083   8.155
12677SOL    HW139870  13.124   7.063   8.075
12677SOL    HW239871  13.142   7.080   8.224
12678SOL     OW39872  12.426   1.868   2.884
12678SOL    HW139873  12.375   1.818   2.820
12678SOL    HW239874  12.399   1.959   2.871
12679SOL     OW39875   9.243   9.963   5.625
12679SOL    HW139876   9.329   9.920   5.620
12679SOL    HW239877   9.248  10.033   5.559
12680SOL     OW39878  12.365  14.046   6.078
12680SOL    HW139879  12.300  14.072   6.143
12680SOL    HW239880  12.392  14.128   6.037
12681SOL     OW39881   1.796   6.087   9.329
12681SOL    HW139882   1.708   6.052   9.334
12681SOL    HW239883   1.807   6.135   9.411
12682SOL     OW39884   4.884   7.017   4.087
12682SOL    HW139885   4.856   6.954   4.021
12682SOL    HW239886   4.949   6.970   4.139
12683SOL     OW39887  10.593   4.917   6.213
12683SOL    HW139888  10.530   4.982   6.243
12683SOL    HW239889  10.552   4.875   6.138
12684SOL     OW39890  13.874   7.979   1.715
12684SOL    HW139891  13.877   7.977   1.619
12684SOL    HW239892  13.804   7.918   1.738
12685SOL     OW39893   4.667  14.667   4.175
12685SOL    HW139894   4.744  14.690   4.227
12685SOL    HW239895   4.595  14.665   4.238
12686SOL     OW39896   0.025   0.567  11.119
12686SOL    HW139897  14.845   0.642  11.112
12686SOL    HW239898   0.030   0.532  11.030
12687SOL     OW39899   5.193   6.374  12.155
12687SOL    HW139900   5.227   6.286  12.170
12687SOL    HW239901   5.229   6.399  12.070
12688SOL     OW39902   7.862  13.443  11.768
12688SOL    HW139903   7.904  13.503  11.829
12688SOL    HW239904   7.885  13.356  11.800
12689SOL     OW39905   8.320   7.342   1.489
12689SOL    HW139906   8.392   7.402   1.510
12689SOL    HW239907   8.279   7.380   1.411
12690SOL     OW39908  13.329   8.809  14.540
12690SOL    HW139909  13.263   8.827  14.606
12690SOL    HW239910  13.283   8.755  14.475
12691SOL     OW39911  11.177   3.071  12.686
12691SOL    HW139912  11.236   3.050  12.614
12691SOL    HW239913  11.090   3.073  12.646
12692SOL     OW39914   0.277  11.427  12.831
12692SOL    HW139915   0.306  11.501  12.778
12692SOL    HW239916   0.292  11.350  12.776
12693SOL     OW39917   4.325   3.888   4.380
12693SOL    HW139918   4.352   3.832   4.453
12693SOL    HW239919   4.233   3.865   4.365
12694SOL     OW39920   2.318   0.069   5.779
12694SOL    HW139921   2.404   0.041   5.813
12694SOL    HW239922   2.333   0.158   5.747
12695SOL     OW39923   8.174   2.450  13.708
12695SOL    HW139924   8.170   2.354  13.708
12695SOL    HW239925   8.144   2.476  13.621
12696SOL     OW39926  12.902   2.173  10.354
12696SOL    HW139927  12.907   2.080  10.332
12696SOL    HW239928  12.988   2.208  10.333
12697SOL     OW39929  10.971   7.414   1.554
12697SOL    HW139930  10.876   7.402   1.549
12697SOL    HW239931  11.001   7.409   1.464
12698SOL     OW39932   0.933   6.382   8.334
12698SOL    HW139933   0.871   6.454   8.346
12698SOL    HW239934   0.951   6.381   8.240
12699SOL     OW39935   1.581   1.584  11.316
12699SOL    HW139936   1.574   1.586  11.220
12699SOL    HW239937   1.505   1.534  11.344
12700SOL     OW39938   4.046   0.477  13.723
12700SOL    HW139939   4.088   0.391  13.728
12700SOL    HW239940   3.969   0.469  13.779
12701SOL     OW39941   3.004  12.090   0.089
12701SOL    HW139942   3.046  12.070   0.173
12701SOL    HW239943   2.998  12.186   0.087
12702SOL     OW39944  10.327   9.498   2.911
12702SOL    HW139945  10.415   9.480   2.943
12702SOL    HW239946  10.340   9.546   2.829
12703SOL     OW39947  13.352   8.250   1.423
12703SOL    HW139948  13.266   8.227   1.460
12703SOL    HW239949  13.391   8.309   1.488
12704SOL     OW39950   1.261   1.408  13.904
12704SOL    HW139951   1.196   1.370  13.844
12704SOL    HW239952   1.225   1.392  13.991
12705SOL     OW39953  14.048  11.574   1.076
12705SOL    HW139954  14.131  11.615   1.101
12705SOL    HW239955  14.010  11.634   1.012
12706SOL     OW39956   4.140   0.422   7.240
12706SOL    HW139957   4.112   0.433   7.149
12706SOL    HW239958   4.068   0.458   7.292
12707SOL     OW39959   4.223   1.298  10.029
12707SOL    HW139960   4.314   1.272  10.014
12707SOL    HW239961   4.208   1.366   9.964
12708SOL     OW39962   6.893  10.274  12.918
12708SOL    HW139963   6.809  10.238  12.947
12708SOL    HW239964   6.881  10.369  12.921
12709SOL     OW39965  10.421   0.779   9.366
12709SOL    HW139966  10.483   0.719   9.324
12709SOL    HW239967  10.335   0.747   9.341
12710SOL     OW39968   0.232   3.430   8.281
12710SOL    HW139969   0.269   3.405   8.196
12710SOL    HW239970   0.288   3.385   8.345
12711SOL     OW39971  11.909   1.842   7.304
12711SOL    HW139972  11.901   1.747   7.294
12711SOL    HW239973  11.832   1.867   7.354
12712SOL     OW39974   1.340  14.241  12.247
12712SOL    HW139975   1.411  14.303  12.230
12712SOL    HW239976   1.374  14.157  12.215
12713SOL     OW39977   5.819   9.242   3.318
12713SOL    HW139978   5.878   9.211   3.250
12713SOL    HW239979   5.876   9.262   3.392
12714SOL     OW39980  10.387  13.858   5.941
12714SOL    HW139981  10.439  13.902   5.873
12714SOL    HW239982  10.311  13.914   5.952
12715SOL     OW39983   8.702   4.324   0.894
12715SOL    HW139984   8.618   4.308   0.936
12715SOL    HW239985   8.752   4.374   0.959
12716SOL     OW39986   1.714   7.581  10.862
12716SOL    HW139987   1.742   7.498  10.900
12716SOL    HW239988   1.671   7.557  10.780
12717SOL     OW39989   4.043  11.990   6.377
12717SOL    HW139990   4.120  12.030   6.418
12717SOL    HW239991   3.971  12.050   6.397
12718SOL     OW39992   4.953   9.547   7.700
12718SOL    HW139993   5.041   9.581   7.719
12718SOL    HW239994   4.969   9.472   7.642
12719SOL     OW39995   8.664   1.210   8.029
12719SOL    HW139996   8.662   1.233   8.122
12719SOL    HW239997   8.702   1.122   8.028
12720SOL     OW39998  13.412  11.013  10.334
12720SOL    HW139999  13.423  10.977  10.246
12720SOL    HW240000  13.325  11.053  10.333
12721SOL     OW40001   2.760  13.977   4.594
12721SOL    HW140002   2.816  14.049   4.566
12721SOL    HW240003   2.818  13.919   4.643
12722SOL     OW40004   2.699   6.181   0.529
12722SOL    HW140005   2.792   6.199   0.544
12722SOL    HW240006   2.693   6.166   0.434
12723SOL     OW40007   0.191   9.640   4.465
12723SOL    HW140008   0.226   9.569   4.519
12723SOL    HW240009   0.121   9.600   4.414
12724SOL     OW40010   3.386   2.404   9.814
12724SOL    HW140011   3.418   2.490   9.840
12724SOL    HW240012   3.462   2.347   9.817
12725SOL     OW40013   4.205   8.817  11.065
12725SOL    HW140014   4.260   8.743  11.041
12725SOL    HW240015   4.120   8.778  11.085
12726SOL     OW40016   8.356   2.648   2.762
12726SOL    HW140017   8.418   2.720   2.774
12726SOL    HW240018   8.384   2.606   2.681
12727SOL     OW40019   4.211   0.170  12.302
12727SOL    HW140020   4.242   0.083  12.327
12727SOL    HW240021   4.289   0.215  12.271
12728SOL     OW40022   6.203   4.531   4.678
12728SOL    HW140023   6.257   4.594   4.727
12728SOL    HW240024   6.131   4.511   4.737
12729SOL     OW40025   3.433  14.574   8.601
12729SOL    HW140026   3.407  14.500   8.546
12729SOL    HW240027   3.514  14.606   8.560
12730SOL     OW40028  10.531   9.722   8.279
12730SOL    HW140029  10.572   9.807   8.293
12730SOL    HW240030  10.531   9.711   8.184
12731SOL     OW40031  13.034   9.266   3.383
12731SOL    HW140032  13.026   9.228   3.470
12731SOL    HW240033  13.121   9.308   3.383
12732SOL     OW40034  10.387   9.242   9.278
12732SOL    HW140035  10.307   9.289   9.302
12732SOL    HW240036  10.403   9.267   9.187
12733SOL     OW40037  11.021   0.989   0.436
12733SOL    HW140038  11.037   1.081   0.456
12733SOL    HW240039  11.107   0.948   0.444
12734SOL     OW40040  14.846   6.689   7.036
12734SOL    HW140041   0.010   6.604   7.050
12734SOL    HW240042  14.813   6.713   7.122
12735SOL     OW40043  10.549  11.185   3.936
12735SOL    HW140044  10.569  11.133   3.858
12735SOL    HW240045  10.622  11.246   3.943
12736SOL     OW40046   4.397   7.809  11.319
12736SOL    HW140047   4.303   7.820  11.329
12736SOL    HW240048   4.417   7.727  11.364
12737SOL     OW40049   1.272  10.956  12.791
12737SOL    HW140050   1.263  11.044  12.829
12737SOL    HW240051   1.361  10.929  12.816
12738SOL     OW40052   9.167   9.532   2.822
12738SOL    HW140053   9.175   9.552   2.729
12738SOL    HW240054   9.146   9.439   2.825
12739SOL     OW40055   8.771   7.765   0.069
12739SOL    HW140056   8.759   7.692   0.130
12739SOL    HW240057   8.855   7.803   0.094
12740SOL     OW40058   8.706   5.893   2.337
12740SOL    HW140059   8.692   5.982   2.305
12740SOL    HW240060   8.634   5.878   2.398
12741SOL     OW40061   9.437   2.216   7.526
12741SOL    HW140062   9.482   2.290   7.485
12741SOL    HW240063   9.506   2.164   7.567
12742SOL     OW40064  13.743  14.030  12.522
12742SOL    HW140065  13.761  14.080  12.601
12742SOL    HW240066  13.657  13.990  12.538
12743SOL     OW40067   9.901  10.980   3.641
12743SOL    HW140068   9.930  11.006   3.553
12743SOL    HW240069   9.943  11.042   3.700
12744SOL     OW40070   3.168   2.662  13.916
12744SOL    HW140071   3.155   2.675  14.010
12744SOL    HW240072   3.257   2.628  13.908
12745SOL     OW40073   4.059   3.447   0.669
12745SOL    HW140074   4.094   3.478   0.752
12745SOL    HW240075   3.968   3.422   0.689
12746SOL     OW40076   3.163  10.415   7.002
12746SOL    HW140077   3.158  10.507   7.028
12746SOL    HW240078   3.257  10.398   6.992
12747SOL     OW40079   9.198   0.501  10.247
12747SOL    HW140080   9.138   0.472  10.178
12747SOL    HW240081   9.274   0.443  10.238
12748SOL     OW40082  12.172   5.043   8.615
12748SOL    HW140083  12.140   5.103   8.683
12748SOL    HW240084  12.094   5.002   8.579
12749SOL     OW40085   1.970  13.609  14.336
12749SOL    HW140086   1.984  13.701  14.314
12749SOL    HW240087   1.893  13.584  14.285
12750SOL     OW40088  10.431   8.410   7.648
12750SOL    HW140089  10.353   8.371   7.687
12750SOL    HW240090  10.407   8.501   7.632
12751SOL     OW40091   7.938   5.307   3.752
12751SOL    HW140092   7.888   5.250   3.692
12751SOL    HW240093   8.023   5.317   3.710
12752SOL     OW40094   1.213   3.529   0.079
12752SOL    HW140095   1.200   3.604   0.021
12752SOL    HW240096   1.234   3.457   0.020
12753SOL     OW40097   0.352   3.492   5.481
12753SOL    HW140098   0.418   3.517   5.417
12753SOL    HW240099   0.387   3.413   5.523
12754SOL     OW40100   1.423  13.610  12.837
12754SOL    HW140101   1.503  13.663  12.843
12754SOL    HW240102   1.422  13.579  12.746
12755SOL     OW40103  11.438   9.405   4.314
12755SOL    HW140104  11.384   9.435   4.241
12755SOL    HW240105  11.419   9.312   4.322
12756SOL     OW40106  14.017   4.846  12.164
12756SOL    HW140107  13.945   4.896  12.203
12756SOL    HW240108  14.076   4.913  12.128
12757SOL     OW40109   5.687   4.624   6.209
12757SOL    HW140110   5.651   4.641   6.122
12757SOL    HW240111   5.706   4.530   6.210
12758SOL     OW40112   6.185   0.809   1.425
12758SOL    HW140113   6.151   0.849   1.505
12758SOL    HW240114   6.153   0.864   1.354
12759SOL     OW40115   7.490  10.604  11.251
12759SOL    HW140116   7.412  10.553  11.274
12759SOL    HW240117   7.564  10.547  11.273
12760SOL     OW40118  12.042   8.644  11.566
12760SOL    HW140119  12.135   8.620  11.562
12760SOL    HW240120  12.017   8.628  11.657
12761SOL     OW40121   5.395   3.191   3.227
12761SOL    HW140122   5.455   3.157   3.160
12761SOL    HW240123   5.332   3.121   3.241
12762SOL     OW40124  14.275   7.983  11.806
12762SOL    HW140125  14.185   8.003  11.829
12762SOL    HW240126  14.269   7.918  11.736
12763SOL     OW40127   2.681   8.291  13.874
12763SOL    HW140128   2.766   8.290  13.831
12763SOL    HW240129   2.673   8.206  13.916
12764SOL     OW40130   4.284   6.238  10.606
12764SOL    HW140131   4.224   6.208  10.538
12764SOL    HW240132   4.255   6.193  10.686
12765SOL     OW40133  14.744   3.061  11.648
12765SOL    HW140134  14.774   3.118  11.719
12765SOL    HW240135  14.753   2.973  11.683
12766SOL     OW40136  13.756   2.606  12.206
12766SOL    HW140137  13.814   2.680  12.222
12766SOL    HW240138  13.800   2.554  12.139
12767SOL     OW40139  13.826   8.041   4.543
12767SOL    HW140140  13.893   8.105   4.568
12767SOL    HW240141  13.759   8.050   4.611
12768SOL     OW40142   9.370  12.582   7.964
12768SOL    HW140143   9.383  12.582   7.869
12768SOL    HW240144   9.301  12.517   7.978
12769SOL     OW40145  11.958   2.145   8.255
12769SOL    HW140146  11.990   2.205   8.188
12769SOL    HW240147  11.881   2.104   8.216
12770SOL     OW40148   5.142   3.328   5.014
12770SOL    HW140149   5.209   3.265   4.988
12770SOL    HW240150   5.069   3.273   5.044
12771SOL     OW40151   8.348   1.885   3.158
12771SOL    HW140152   8.328   1.916   3.069
12771SOL    HW240153   8.356   1.790   3.149
12772SOL     OW40154   1.676  14.041  14.682
12772SOL    HW140155   1.680  14.105  14.611
12772SOL    HW240156   1.586  14.008  14.679
12773SOL     OW40157   6.896  14.095   1.644
12773SOL    HW140158   6.980  14.089   1.597
12773SOL    HW240159   6.866  14.184   1.627
12774SOL     OW40160   2.288   3.024  12.513
12774SOL    HW140161   2.325   3.081  12.580
12774SOL    HW240162   2.317   3.063  12.430
12775SOL     OW40163   8.633   9.570  14.801
12775SOL    HW140164   8.700   9.584  14.868
12775SOL    HW240165   8.675   9.513  14.737
12776SOL     OW40166   7.831  10.783  10.480
12776SOL    HW140167   7.880  10.714  10.436
12776SOL    HW240168   7.747  10.742  10.503
12777SOL     OW40169   0.906   5.485   8.669
12777SOL    HW140170   0.889   5.428   8.744
12777SOL    HW240171   0.846   5.455   8.602
12778SOL     OW40172   6.049  11.070  12.835
12778SOL    HW140173   5.969  11.102  12.794
12778SOL    HW240174   6.019  11.010  12.903
12779SOL     OW40175  10.604  14.291  11.789
12779SOL    HW140176  10.551  14.340  11.726
12779SOL    HW240177  10.540  14.239  11.837
12780SOL     OW40178   7.287   7.263  12.213
12780SOL    HW140179   7.307   7.199  12.282
12780SOL    HW240180   7.194   7.281  12.224
12781SOL     OW40181   2.568   2.644   0.108
12781SOL    HW140182   2.475   2.662   0.123
12781SOL    HW240183   2.574   2.625   0.014
12782SOL     OW40184   4.547   9.825   2.870
12782SOL    HW140185   4.529   9.916   2.893
12782SOL    HW240186   4.634   9.808   2.906
12783SOL     OW40187   0.424   6.333   0.594
12783SOL    HW140188   0.504   6.383   0.578
12783SOL    HW240189   0.364   6.396   0.634
12784SOL     OW40190  11.356   5.706   3.711
12784SOL    HW140191  11.408   5.630   3.689
12784SOL    HW240192  11.274   5.695   3.663
12785SOL     OW40193  10.191  10.810   1.379
12785SOL    HW140194  10.113  10.759   1.357
12785SOL    HW240195  10.221  10.773   1.462
12786SOL     OW40196   9.975   9.999   3.807
12786SOL    HW140197   9.917   9.960   3.741
12786SOL    HW240198  10.008  10.078   3.765
12787SOL     OW40199   4.210   0.350   2.840
12787SOL    HW140200   4.253   0.388   2.763
12787SOL    HW240201   4.281   0.318   2.895
12788SOL     OW40202   0.452   0.904   0.898
12788SOL    HW140203   0.418   0.970   0.838
12788SOL    HW240204   0.421   0.821   0.863
12789SOL     OW40205   4.983   9.925   1.276
12789SOL    HW140206   5.056   9.864   1.262
12789SOL    HW240207   4.927   9.881   1.340
12790SOL     OW40208   0.439   3.498  10.833
12790SOL    HW140209   0.481   3.584  10.831
12790SOL    HW240210   0.471   3.454  10.754
12791SOL     OW40211   4.710  11.991   0.683
12791SOL    HW140212   4.698  12.035   0.768
12791SOL    HW240213   4.627  12.003   0.638
12792SOL     OW40214   7.577   5.424  14.473
12792SOL    HW140215   7.578   5.347  14.416
12792SOL    HW240216   7.489   5.425  14.511
12793SOL     OW40217  11.288  14.723  14.484
12793SOL    HW140218  11.299  14.724  14.579
12793SOL    HW240219  11.373  14.693  14.450
12794SOL     OW40220   7.964   5.421   7.809
12794SOL    HW140221   7.899   5.415   7.879
12794SOL    HW240222   8.043   5.454   7.852
12795SOL     OW40223   6.930   1.274   9.543
12795SOL    HW140224   7.011   1.320   9.564
12795SOL    HW240225   6.865   1.313   9.602
12796SOL     OW40226   4.901  13.440   9.505
12796SOL    HW140227   4.977  13.423   9.561
12796SOL    HW240228   4.826  13.417   9.558
12797SOL     OW40229   9.897  10.645   4.648
12797SOL    HW140230   9.894  10.717   4.710
12797SOL    HW240231   9.952  10.579   4.691
12798SOL     OW40232   0.618  13.392   1.450
12798SOL    HW140233   0.629  13.310   1.497
12798SOL    HW240234   0.608  13.366   1.358
12799SOL     OW40235  11.441  14.041  10.558
12799SOL    HW140236  11.360  14.033  10.506
12799SOL    HW240237  11.492  13.965  10.533
12800SOL     OW40238   5.769  10.214   9.265
12800SOL    HW140239   5.831  10.147   9.238
12800SOL    HW240240   5.689  10.165   9.287
12801SOL     OW40241   0.480   2.990  12.734
12801SOL    HW140242   0.529   3.052  12.681
12801SOL    HW240243   0.545   2.955  12.796
12802SOL     OW40244  14.822  10.538   9.075
12802SOL    HW140245  14.744  10.541   9.129
12802SOL    HW240246  14.808  10.606   9.009
12803SOL     OW40247   7.634  11.059   3.366
12803SOL    HW140248   7.728  11.042   3.367
12803SOL    HW240249   7.596  10.987   3.417
12804SOL     OW40250  14.846  11.424   5.025
12804SOL    HW140251  14.782  11.365   4.985
12804SOL    HW240252   0.011  11.464   4.950
12805SOL     OW40253   2.653  10.048   4.464
12805SOL    HW140254   2.631   9.972   4.409
12805SOL    HW240255   2.747  10.040   4.480
12806SOL     OW40256   3.833   8.428   7.099
12806SOL    HW140257   3.825   8.342   7.057
12806SOL    HW240258   3.927   8.438   7.115
12807SOL     OW40259   2.769  14.387   6.805
12807SOL    HW140260   2.837  14.322   6.784
12807SOL    HW240261   2.690  14.353   6.763
12808SOL     OW40262  10.619   4.931   1.874
12808SOL    HW140263  10.696   4.925   1.930
12808SOL    HW240264  10.651   4.904   1.788
12809SOL     OW40265  12.394   7.350  11.781
12809SOL    HW140266  12.352   7.281  11.833
12809SOL    HW240267  12.340   7.427  11.796
12810SOL     OW40268   5.867  10.740   3.367
12810SOL    HW140269   5.785  10.783   3.393
12810SOL    HW240270   5.846  10.695   3.285
12811SOL     OW40271   0.689   9.681   5.244
12811SOL    HW140272   0.728   9.662   5.158
12811SOL    HW240273   0.620   9.745   5.225
12812SOL     OW40274  10.328   5.034  10.878
12812SOL    HW140275  10.327   5.094  10.804
12812SOL    HW240276  10.371   5.083  10.948
12813SOL     OW40277   0.823   3.980   9.383
12813SOL    HW140278   0.751   4.029   9.343
12813SOL    HW240279   0.861   3.930   9.311
12814SOL     OW40280   6.863   7.075  13.193
12814SOL    HW140281   6.873   7.028  13.276
12814SOL    HW240282   6.821   7.012  13.135
12815SOL     OW40283  13.800   2.151   0.855
12815SOL    HW140284  13.789   2.108   0.771
12815SOL    HW240285  13.820   2.080   0.916
12816SOL     OW40286  12.672  12.314   8.058
12816SOL    HW140287  12.743  12.338   7.999
12816SOL    HW240288  12.669  12.218   8.055
12817SOL     OW40289   4.128   3.394   7.978
12817SOL    HW140290   4.051   3.405   8.034
12817SOL    HW240291   4.172   3.478   7.981
12818SOL     OW40292  12.649   2.346   4.058
12818SOL    HW140293  12.719   2.400   4.094
12818SOL    HW240294  12.612   2.399   3.987
12819SOL     OW40295  11.638   7.241  14.340
12819SOL    HW140296  11.646   7.332  14.369
12819SOL    HW240297  11.544   7.223  14.343
12820SOL     OW40298   0.071   8.928   1.289
12820SOL    HW140299   0.058   8.994   1.357
12820SOL    HW240300   0.160   8.942   1.259
12821SOL     OW40301   6.263   7.082  10.613
12821SOL    HW140302   6.270   7.144  10.685
12821SOL    HW240303   6.176   7.096  10.577
12822SOL     OW40304   2.805   9.498   5.379
12822SOL    HW140305   2.724   9.548   5.383
12822SOL    HW240306   2.873   9.562   5.357
12823SOL     OW40307  10.888   4.920   9.177
12823SOL    HW140308  10.856   4.852   9.118
12823SOL    HW240309  10.983   4.922   9.164
12824SOL     OW40310   2.358   5.600   1.160
12824SOL    HW140311   2.313   5.684   1.154
12824SOL    HW240312   2.450   5.623   1.168
12825SOL     OW40313   4.726   0.737   8.630
12825SOL    HW140314   4.662   0.693   8.686
12825SOL    HW240315   4.679   0.751   8.547
12826SOL     OW40316  11.648   0.113   6.648
12826SOL    HW140317  11.684   0.074   6.568
12826SOL    HW240318  11.569   0.063   6.666
12827SOL     OW40319  11.559   6.711   7.154
12827SOL    HW140320  11.608   6.698   7.072
12827SOL    HW240321  11.578   6.633   7.205
12828SOL     OW40322   1.987  13.235  12.349
12828SOL    HW140323   2.048  13.244  12.422
12828SOL    HW240324   2.041  13.236  12.271
12829SOL     OW40325  14.115  11.074   3.548
12829SOL    HW140326  14.039  11.022   3.575
12829SOL    HW240327  14.090  11.109   3.462
12830SOL     OW40328  13.142   6.717   8.500
12830SOL    HW140329  13.191   6.639   8.527
12830SOL    HW240330  13.196   6.790   8.528
12831SOL     OW40331  12.824   7.370   4.613
12831SOL    HW140332  12.782   7.306   4.555
12831SOL    HW240333  12.801   7.340   4.701
12832SOL     OW40334   8.434   6.116   8.072
12832SOL    HW140335   8.421   6.050   8.003
12832SOL    HW240336   8.526   6.141   8.064
12833SOL     OW40337   9.396   0.474  10.590
12833SOL    HW140338   9.442   0.558  10.593
12833SOL    HW240339   9.400   0.442  10.680
12834SOL     OW40340   8.851  14.325  14.725
12834SOL    HW140341   8.764  14.298  14.752
12834SOL    HW240342   8.849  14.320  14.629
12835SOL     OW40343   0.282   5.450  10.632
12835SOL    HW140344   0.362   5.453  10.579
12835SOL    HW240345   0.250   5.361  10.620
12836SOL     OW40346   0.516   1.719   1.127
12836SOL    HW140347   0.572   1.641   1.133
12836SOL    HW240348   0.434   1.687   1.090
12837SOL     OW40349  10.604   3.126   7.633
12837SOL    HW140350  10.605   3.031   7.644
12837SOL    HW240351  10.534   3.142   7.570
12838SOL     OW40352  12.658  13.997  10.057
12838SOL    HW140353  12.722  13.960   9.996
12838SOL    HW240354  12.640  14.084  10.022
12839SOL     OW40355   2.283   8.048  14.707
12839SOL    HW140356   2.309   8.126  14.658
12839SOL    HW240357   2.234   8.083  14.782
12840SOL     OW40358   4.658   6.241  12.083
12840SOL    HW140359   4.657   6.258  11.989
12840SOL    HW240360   4.738   6.282  12.115
12841SOL     OW40361   8.578  14.529   0.480
12841SOL    HW140362   8.606  14.620   0.467
12841SOL    HW240363   8.546  14.501   0.394
12842SOL     OW40364  12.803   7.742   0.146
12842SOL    HW140365  12.885   7.754   0.193
12842SOL    HW240366  12.814   7.660   0.098
12843SOL     OW40367  13.043   7.222  13.082
12843SOL    HW140368  13.023   7.144  13.133
12843SOL    HW240369  13.029   7.294  13.143
12844SOL     OW40370   8.263  10.288  12.609
12844SOL    HW140371   8.249  10.276  12.703
12844SOL    HW240372   8.193  10.238  12.567
12845SOL     OW40373   2.189   2.788   2.512
12845SOL    HW140374   2.113   2.762   2.565
12845SOL    HW240375   2.265   2.759   2.562
12846SOL     OW40376   9.547   4.364   0.965
12846SOL    HW140377   9.490   4.412   1.025
12846SOL    HW240378   9.579   4.289   1.015
12847SOL     OW40379   6.977   4.703   5.007
12847SOL    HW140380   7.019   4.787   4.989
12847SOL    HW240381   6.961   4.666   4.920
12848SOL     OW40382  13.805   4.109   9.824
12848SOL    HW140383  13.899   4.112   9.806
12848SOL    HW240384  13.789   4.019   9.853
12849SOL     OW40385  10.402  14.691   1.710
12849SOL    HW140386  10.476  14.676   1.651
12849SOL    HW240387  10.438  14.679   1.798
12850SOL     OW40388   4.582  11.400   3.465
12850SOL    HW140389   4.598  11.365   3.553
12850SOL    HW240390   4.649  11.467   3.453
12851SOL     OW40391  13.899  10.878   6.969
12851SOL    HW140392  13.903  10.973   6.968
12851SOL    HW240393  13.914  10.852   6.877
12852SOL     OW40394  10.975   1.089   3.263
12852SOL    HW140395  11.057   1.137   3.252
12852SOL    HW240396  11.000   0.997   3.255
12853SOL     OW40397  12.709   3.924   9.064
12853SOL    HW140398  12.743   3.856   9.121
12853SOL    HW240399  12.673   3.876   8.989
12854SOL     OW40400   2.332   2.088   1.070
12854SOL    HW140401   2.278   2.010   1.083
12854SOL    HW240402   2.285   2.138   1.002
12855SOL     OW40403   4.797  10.004  13.916
12855SOL    HW140404   4.862  10.068  13.946
12855SOL    HW240405   4.713  10.050  13.923
12856SOL     OW40406   6.507   8.861  11.793
12856SOL    HW140407   6.502   8.884  11.701
12856SOL    HW240408   6.559   8.932  11.832
12857SOL     OW40409  11.287   1.513   2.534
12857SOL    HW140410  11.306   1.422   2.512
12857SOL    HW240411  11.346   1.564   2.478
12858SOL     OW40412   2.473  12.571   6.821
12858SOL    HW140413   2.433  12.658   6.826
12858SOL    HW240414   2.401  12.513   6.797
12859SOL     OW40415   5.322   3.941   1.582
12859SOL    HW140416   5.324   3.951   1.678
12859SOL    HW240417   5.234   3.970   1.557
12860SOL     OW40418  11.530  12.628   8.534
12860SOL    HW140419  11.523  12.548   8.587
12860SOL    HW240420  11.623  12.636   8.515
12861SOL     OW40421   5.472  11.623   5.722
12861SOL    HW140422   5.541  11.565   5.690
12861SOL    HW240423   5.408  11.564   5.763
12862SOL     OW40424   2.153   6.332   7.379
12862SOL    HW140425   2.162   6.304   7.288
12862SOL    HW240426   2.233   6.383   7.396
12863SOL     OW40427   9.135   1.672  12.057
12863SOL    HW140428   9.214   1.705  12.015
12863SOL    HW240429   9.141   1.577  12.049
12864SOL     OW40430   0.355   0.913   8.562
12864SOL    HW140431   0.370   0.927   8.468
12864SOL    HW240432   0.346   1.001   8.598
12865SOL     OW40433   2.139  11.034   8.833
12865SOL    HW140434   2.190  11.035   8.914
12865SOL    HW240435   2.173  11.108   8.782
12866SOL     OW40436   0.990   7.942   5.753
12866SOL    HW140437   0.967   8.011   5.815
12866SOL    HW240438   0.998   7.863   5.807
12867SOL     OW40439   8.300   3.119  12.142
12867SOL    HW140440   8.208   3.101  12.163
12867SOL    HW240441   8.341   3.136  12.227
12868SOL     OW40442   1.827  13.229  12.051
12868SOL    HW140443   1.845  13.156  12.110
12868SOL    HW240444   1.768  13.193  11.985
12869SOL     OW40445   2.260   4.353  12.580
12869SOL    HW140446   2.250   4.372  12.674
12869SOL    HW240447   2.273   4.258  12.576
12870SOL     OW40448   4.546  13.975   7.120
12870SOL    HW140449   4.600  14.044   7.082
12870SOL    HW240450   4.456  14.009   7.113
12871SOL     OW40451   4.565   3.565   1.532
12871SOL    HW140452   4.562   3.620   1.610
12871SOL    HW240453   4.601   3.621   1.464
12872SOL     OW40454  13.812   0.111  12.851
12872SOL    HW140455  13.835   0.197  12.885
12872SOL    HW240456  13.733   0.086  12.898
12873SOL     OW40457   5.969   0.175   9.379
12873SOL    HW140458   5.892   0.176   9.322
12873SOL    HW240459   5.959   0.252   9.435
12874SOL     OW40460   0.436  10.813  12.992
12874SOL    HW140461   0.356  10.843  12.948
12874SOL    HW240462   0.466  10.890  13.041
12875SOL     OW40463   9.361   7.982  13.845
12875SOL    HW140464   9.380   8.075  13.841
12875SOL    HW240465   9.426   7.941  13.788
12876SOL     OW40466   1.385  13.576  10.335
12876SOL    HW140467   1.448  13.520  10.381
12876SOL    HW240468   1.425  13.591  10.249
12877SOL     OW40469   2.551   6.512   3.504
12877SOL    HW140470   2.587   6.444   3.446
12877SOL    HW240471   2.459   6.488   3.515
12878SOL     OW40472   0.339   2.390   8.024
12878SOL    HW140473   0.294   2.364   7.944
12878SOL    HW240474   0.371   2.479   8.005
12879SOL     OW40475  11.260  10.002   1.663
12879SOL    HW140476  11.179  10.050   1.680
12879SOL    HW240477  11.249   9.967   1.574
12880SOL     OW40478   7.594   8.952  10.772
12880SOL    HW140479   7.615   8.915  10.687
12880SOL    HW240480   7.663   9.016  10.789
12881SOL     OW40481  11.605   1.339   9.872
12881SOL    HW140482  11.619   1.258   9.921
12881SOL    HW240483  11.690   1.356   9.830
12882SOL     OW40484   4.812   0.315   7.371
12882SOL    HW140485   4.717   0.327   7.363
12882SOL    HW240486   4.850   0.393   7.332
12883SOL     OW40487  12.222   0.417   2.392
12883SOL    HW140488  12.131   0.392   2.379
12883SOL    HW240489  12.272   0.358   2.336
12884SOL     OW40490   9.453  11.090  10.034
12884SOL    HW140491   9.511  11.022  10.001
12884SOL    HW240492   9.383  11.096   9.970
12885SOL     OW40493   5.635  10.879   2.748
12885SOL    HW140494   5.608  10.915   2.664
12885SOL    HW240495   5.626  10.951   2.810
12886SOL     OW40496   2.390   8.244   6.840
12886SOL    HW140497   2.477   8.205   6.846
12886SOL    HW240498   2.389   8.290   6.756
12887SOL     OW40499  12.678   5.233   7.160
12887SOL    HW140500  12.622   5.200   7.089
12887SOL    HW240501  12.638   5.316   7.184
12888SOL     OW40502   8.131   8.449   0.004
12888SOL    HW140503   8.160   8.532   0.042
12888SOL    HW240504   8.212   8.398  14.875
12889SOL     OW40505   1.453   3.102   2.896
12889SOL    HW140506   1.439   3.041   2.824
12889SOL    HW240507   1.424   3.187   2.862
12890SOL     OW40508   6.709   1.418  11.661
12890SOL    HW140509   6.659   1.499  11.673
12890SOL    HW240510   6.659   1.352  11.708
12891SOL     OW40511   3.336  12.381  11.458
12891SOL    HW140512   3.326  12.431  11.539
12891SOL    HW240513   3.310  12.441  11.389
12892SOL     OW40514   8.025   0.457  12.775
12892SOL    HW140515   8.050   0.456  12.682
12892SOL    HW240516   7.975   0.538  12.785
12893SOL     OW40517   5.565   6.123   1.176
12893SOL    HW140518   5.622   6.096   1.248
12893SOL    HW240519   5.610   6.198   1.137
12894SOL     OW40520  10.600   8.054   7.127
12894SOL    HW140521  10.523   8.015   7.085
12894SOL    HW240522  10.644   7.980   7.171
12895SOL     OW40523  12.839  11.890  13.378
12895SOL    HW140524  12.901  11.942  13.327
12895SOL    HW240525  12.864  11.799  13.361
12896SOL     OW40526   0.788   5.042   1.686
12896SOL    HW140527   0.881   5.058   1.671
12896SOL    HW240528   0.786   4.966   1.744
12897SOL     OW40529   9.562   7.843   0.554
12897SOL    HW140530   9.552   7.933   0.521
12897SOL    HW240531   9.552   7.788   0.476
12898SOL     OW40532   5.315   7.118   0.139
12898SOL    HW140533   5.278   7.030   0.143
12898SOL    HW240534   5.241   7.176   0.155
12899SOL     OW40535   7.529  13.128   8.211
12899SOL    HW140536   7.529  13.160   8.301
12899SOL    HW240537   7.595  13.182   8.166
12900SOL     OW40538   2.592  13.812   5.272
12900SOL    HW140539   2.657  13.761   5.321
12900SOL    HW240540   2.530  13.842   5.338
12901SOL     OW40541   4.343   6.896   0.202
12901SOL    HW140542   4.406   6.876   0.132
12901SOL    HW240543   4.397   6.915   0.279
12902SOL     OW40544  14.696  13.563  13.094
12902SOL    HW140545  14.676  13.516  13.174
12902SOL    HW240546  14.788  13.543  13.077
12903SOL     OW40547   8.124   8.206   8.584
12903SOL    HW140548   8.163   8.198   8.671
12903SOL    HW240549   8.030   8.201   8.599
12904SOL     OW40550  14.822   8.124  13.366
12904SOL    HW140551  14.871   8.070  13.304
12904SOL    HW240552  14.745   8.153  13.317
12905SOL     OW40553  10.371   7.920   9.627
12905SOL    HW140554  10.304   7.852   9.622
12905SOL    HW240555  10.436   7.894   9.561
12906SOL     OW40556   2.596   6.581   9.901
12906SOL    HW140557   2.536   6.529   9.954
12906SOL    HW240558   2.652   6.516   9.858
12907SOL     OW40559   2.425  14.451   0.692
12907SOL    HW140560   2.400  14.506   0.766
12907SOL    HW240561   2.482  14.384   0.729
12908SOL     OW40562   4.511  12.152  12.649
12908SOL    HW140563   4.418  12.143  12.669
12908SOL    HW240564   4.514  12.166  12.554
12909SOL     OW40565   1.832   4.798   2.615
12909SOL    HW140566   1.786   4.718   2.591
12909SOL    HW240567   1.766   4.851   2.660
12910SOL     OW40568   4.209   7.892  13.787
12910SOL    HW140569   4.182   7.859  13.873
12910SOL    HW240570   4.280   7.833  13.761
12911SOL     OW40571   3.077   4.829   1.648
12911SOL    HW140572   3.022   4.812   1.572
12911SOL    HW240573   3.165   4.843   1.612
12912SOL     OW40574  14.128   1.307  12.792
12912SOL    HW140575  14.172   1.377  12.744
12912SOL    HW240576  14.046   1.346  12.821
12913SOL     OW40577  11.258   5.908   6.485
12913SOL    HW140578  11.237   5.887   6.576
12913SOL    HW240579  11.186   5.871   6.434
12914SOL     OW40580   5.286   3.488   7.774
12914SOL    HW140581   5.343   3.423   7.816
12914SOL    HW240582   5.207   3.489   7.828
12915SOL     OW40583  13.166   4.956   5.367
12915SOL    HW140584  13.100   4.916   5.310
12915SOL    HW240585  13.132   5.043   5.386
12916SOL     OW40586   2.994  13.158   7.888
12916SOL    HW140587   2.905  13.192   7.876
12916SOL    HW240588   3.049  13.213   7.832
12917SOL     OW40589   6.701  13.380   7.372
12917SOL    HW140590   6.629  13.443   7.369
12917SOL    HW240591   6.677  13.320   7.442
12918SOL     OW40592   2.603   1.777   9.640
12918SOL    HW140593   2.524   1.769   9.694
12918SOL    HW240594   2.621   1.687   9.611
12919SOL     OW40595   4.827   7.142  11.844
12919SOL    HW140596   4.827   7.215  11.907
12919SOL    HW240597   4.736   7.110  11.845
12920SOL     OW40598   9.503   3.012  12.105
12920SOL    HW140599   9.452   2.980  12.031
12920SOL    HW240600   9.592   2.982  12.088
12921SOL     OW40601   6.284  10.832  11.976
12921SOL    HW140602   6.200  10.808  11.936
12921SOL    HW240603   6.272  10.923  12.003
12922SOL     OW40604   2.742   9.850  14.021
12922SOL    HW140605   2.771   9.770  13.978
12922SOL    HW240606   2.735   9.914  13.950
12923SOL     OW40607  10.221   1.742   0.562
12923SOL    HW140608  10.302   1.715   0.606
12923SOL    HW240609  10.248   1.761   0.472
12924SOL     OW40610  10.249  11.838   6.964
12924SOL    HW140611  10.270  11.790   6.884
12924SOL    HW240612  10.162  11.806   6.988
12925SOL     OW40613  13.713   8.134   0.467
12925SOL    HW140614  13.643   8.136   0.533
12925SOL    HW240615  13.772   8.204   0.493
12926SOL     OW40616   5.311   3.261  13.224
12926SOL    HW140617   5.252   3.211  13.280
12926SOL    HW240618   5.256   3.331  13.188
12927SOL     OW40619   3.779   4.726   3.193
12927SOL    HW140620   3.793   4.631   3.197
12927SOL    HW240621   3.719   4.738   3.119
12928SOL     OW40622   4.167   5.287  13.687
12928SOL    HW140623   4.101   5.332  13.740
12928SOL    HW240624   4.215   5.233  13.749
12929SOL     OW40625   4.439  10.345  12.210
12929SOL    HW140626   4.478  10.433  12.212
12929SOL    HW240627   4.506  10.290  12.170
12930SOL     OW40628  11.141   9.629  13.194
12930SOL    HW140629  11.081   9.691  13.152
12930SOL    HW240630  11.228   9.667  13.182
12931SOL     OW40631   1.385   4.546   8.348
12931SOL    HW140632   1.320   4.612   8.371
12931SOL    HW240633   1.418   4.514   8.432
12932SOL     OW40634   3.500   5.051   3.067
12932SOL    HW140635   3.546   4.984   3.118
12932SOL    HW240636   3.472   5.116   3.132
12933SOL     OW40637   2.331  10.448   0.104
12933SOL    HW140638   2.266  10.428   0.170
12933SOL    HW240639   2.358  10.538   0.122
12934SOL     OW40640   5.610   0.171   9.480
12934SOL    HW140641   5.679   0.115   9.516
12934SOL    HW240642   5.582   0.126   9.400
12935SOL     OW40643   8.239  11.044   3.821
12935SOL    HW140644   8.305  11.049   3.752
12935SOL    HW240645   8.161  11.085   3.782
12936SOL     OW40646  11.835  12.151  11.242
12936SOL    HW140647  11.834  12.247  11.242
12936SOL    HW240648  11.784  12.126  11.319
12937SOL     OW40649  13.295   3.207  10.452
12937SOL    HW140650  13.343   3.152  10.515
12937SOL    HW240651  13.215   3.232  10.499
12938SOL     OW40652   3.186   5.415   4.122
12938SOL    HW140653   3.180   5.505   4.090
12938SOL    HW240654   3.148   5.418   4.210
12939SOL     OW40655  11.845  13.110  11.220
12939SOL    HW140656  11.790  13.143  11.292
12939SOL    HW240657  11.934  13.129  11.248
12940SOL     OW40658  11.704   8.271   6.351
12940SOL    HW140659  11.667   8.215   6.419
12940SOL    HW240660  11.632   8.329   6.326
12941SOL     OW40661  13.197   9.009   6.453
12941SOL    HW140662  13.232   8.947   6.389
12941SOL    HW240663  13.229   8.978   6.537
12942SOL     OW40664   5.135   8.550   7.085
12942SOL    HW140665   5.134   8.576   7.177
12942SOL    HW240666   5.221   8.577   7.053
12943SOL     OW40667   7.001   5.950   0.706
12943SOL    HW140668   7.087   5.945   0.747
12943SOL    HW240669   7.012   5.908   0.621
12944SOL     OW40670  10.426  13.287   8.887
12944SOL    HW140671  10.430  13.317   8.978
12944SOL    HW240672  10.475  13.205   8.887
12945SOL     OW40673   6.047   5.977   4.683
12945SOL    HW140674   6.041   6.067   4.716
12945SOL    HW240675   6.080   5.927   4.758
12946SOL     OW40676  14.199   6.290   8.731
12946SOL    HW140677  14.218   6.303   8.824
12946SOL    HW240678  14.105   6.307   8.724
12947SOL     OW40679  10.432   8.405   9.249
12947SOL    HW140680  10.449   8.378   9.339
12947SOL    HW240681  10.416   8.323   9.202
12948SOL     OW40682   4.185  11.270  11.963
12948SOL    HW140683   4.158  11.361  11.961
12948SOL    HW240684   4.168  11.238  11.874
12949SOL     OW40685   9.272  11.937   1.920
12949SOL    HW140686   9.304  11.855   1.882
12949SOL    HW240687   9.273  11.999   1.846
12950SOL     OW40688   4.907   4.102   2.047
12950SOL    HW140689   4.888   4.094   2.140
12950SOL    HW240690   4.949   4.019   2.024
12951SOL     OW40691  13.914  11.761  12.598
12951SOL    HW140692  13.931  11.826  12.530
12951SOL    HW240693  13.991  11.704  12.598
12952SOL     OW40694   8.712   6.325   5.323
12952SOL    HW140695   8.645   6.391   5.338
12952SOL    HW240696   8.789   6.375   5.294
12953SOL     OW40697   2.614   0.401  14.126
12953SOL    HW140698   2.706   0.392  14.153
12953SOL    HW240699   2.599   0.328  14.066
12954SOL     OW40700  14.211   0.725   5.914
12954SOL    HW140701  14.197   0.805   5.864
12954SOL    HW240702  14.306   0.719   5.926
12955SOL     OW40703   9.253   1.678   9.827
12955SOL    HW140704   9.242   1.772   9.813
12955SOL    HW240705   9.168   1.640   9.808
12956SOL     OW40706  10.626   2.180   4.967
12956SOL    HW140707  10.671   2.211   4.889
12956SOL    HW240708  10.673   2.101   4.993
12957SOL     OW40709  13.697   6.011   6.332
12957SOL    HW140710  13.628   5.977   6.276
12957SOL    HW240711  13.728   5.935   6.381
12958SOL     OW40712   5.974   5.662  12.856
12958SOL    HW140713   6.018   5.730  12.908
12958SOL    HW240714   6.037   5.590  12.854
12959SOL     OW40715   5.382  10.684  13.611
12959SOL    HW140716   5.438  10.621  13.566
12959SOL    HW240717   5.294  10.647  13.605
12960SOL     OW40718   4.791  10.099   9.455
12960SOL    HW140719   4.816  10.050   9.533
12960SOL    HW240720   4.786  10.190   9.484
12961SOL     OW40721   3.802   7.076   2.537
12961SOL    HW140722   3.845   7.009   2.590
12961SOL    HW240723   3.709   7.053   2.539
12962SOL     OW40724  12.763  14.258   5.401
12962SOL    HW140725  12.843  14.260   5.454
12962SOL    HW240726  12.788  14.299   5.318
12963SOL     OW40727   7.156   6.979   4.728
12963SOL    HW140728   7.124   6.961   4.817
12963SOL    HW240729   7.248   7.001   4.741
12964SOL     OW40730  11.771  11.013  11.635
12964SOL    HW140731  11.743  11.103  11.651
12964SOL    HW240732  11.742  10.964  11.713
12965SOL     OW40733   1.020   3.050  14.643
12965SOL    HW140734   0.998   3.027  14.553
12965SOL    HW240735   1.077   3.127  14.635
12966SOL     OW40736  14.633   5.562   4.150
12966SOL    HW140737  14.540   5.558   4.130
12966SOL    HW240738  14.676   5.556   4.064
12967SOL     OW40739   9.461   1.311   9.697
12967SOL    HW140740   9.549   1.299   9.664
12967SOL    HW240741   9.452   1.244   9.765
12968SOL     OW40742   2.519   1.397   1.927
12968SOL    HW140743   2.550   1.307   1.932
12968SOL    HW240744   2.479   1.413   2.012
12969SOL     OW40745   1.210   3.627   2.189
12969SOL    HW140746   1.134   3.681   2.168
12969SOL    HW240747   1.214   3.563   2.118
12970SOL     OW40748   3.906   2.023   4.066
12970SOL    HW140749   3.845   2.090   4.097
12970SOL    HW240750   3.974   2.020   4.134
12971SOL     OW40751   2.536   5.648  11.998
12971SOL    HW140752   2.545   5.632  12.092
12971SOL    HW240753   2.576   5.734  11.984
12972SOL     OW40754   3.879  10.221   3.182
12972SOL    HW140755   3.907  10.149   3.238
12972SOL    HW240756   3.791  10.243   3.213
12973SOL     OW40757  10.230  12.187  14.513
12973SOL    HW140758  10.310  12.198  14.462
12973SOL    HW240759  10.213  12.273  14.550
12974SOL     OW40760   9.326  12.534   7.080
12974SOL    HW140761   9.402  12.478   7.065
12974SOL    HW240762   9.273  12.487   7.144
12975SOL     OW40763  14.828   4.302   7.306
12975SOL    HW140764  14.876   4.354   7.242
12975SOL    HW240765  14.851   4.211   7.285
12976SOL     OW40766  12.736   6.258   0.780
12976SOL    HW140767  12.680   6.334   0.797
12976SOL    HW240768  12.823   6.294   0.763
12977SOL     OW40769   7.046  12.091   5.520
12977SOL    HW140770   6.988  12.145   5.466
12977SOL    HW240771   7.119  12.149   5.543
12978SOL     OW40772   8.293   3.685   1.205
12978SOL    HW140773   8.385   3.667   1.184
12978SOL    HW240774   8.277   3.635   1.285
12979SOL     OW40775  11.213  14.608   7.670
12979SOL    HW140776  11.210  14.565   7.756
12979SOL    HW240777  11.237  14.538   7.609
12980SOL     OW40778  10.980  11.872   8.041
12980SOL    HW140779  10.929  11.850   7.963
12980SOL    HW240780  11.011  11.787   8.073
12981SOL     OW40781   6.126  12.648  14.222
12981SOL    HW140782   6.219  12.632  14.237
12981SOL    HW240783   6.091  12.670  14.308
12982SOL     OW40784  11.486  11.550   0.927
12982SOL    HW140785  11.414  11.571   0.987
12982SOL    HW240786  11.510  11.633   0.887
12983SOL     OW40787  10.432   9.320   3.961
12983SOL    HW140788  10.450   9.227   3.948
12983SOL    HW240789  10.501   9.365   3.912
12984SOL     OW40790   9.384   6.440   3.050
12984SOL    HW140791   9.405   6.460   2.959
12984SOL    HW240792   9.450   6.487   3.102
12985SOL     OW40793   7.980   0.739   6.535
12985SOL    HW140794   8.009   0.826   6.563
12985SOL    HW240795   7.965   0.748   6.441
12986SOL     OW40796  10.494  11.134   5.081
12986SOL    HW140797  10.427  11.071   5.055
12986SOL    HW240798  10.577  11.088   5.067
12987SOL     OW40799  10.638   6.038   1.884
12987SOL    HW140800  10.568   6.053   1.821
12987SOL    HW240801  10.603   6.070   1.967
12988SOL     OW40802   1.584   5.329  11.103
12988SOL    HW140803   1.667   5.375  11.115
12988SOL    HW240804   1.581   5.309  11.010
12989SOL     OW40805   5.933   0.942   9.426
12989SOL    HW140806   5.843   0.959   9.399
12989SOL    HW240807   5.925   0.888   9.504
12990SOL     OW40808   8.547  10.710  13.709
12990SOL    HW140809   8.491  10.637  13.734
12990SOL    HW240810   8.635  10.673  13.708
12991SOL     OW40811   8.164  14.397  13.371
12991SOL    HW140812   8.148  14.303  13.372
12991SOL    HW240813   8.237  14.410  13.431
12992SOL     OW40814   5.949   1.742   0.428
12992SOL    HW140815   5.891   1.805   0.471
12992SOL    HW240816   5.915   1.736   0.339
12993SOL     OW40817   7.557   9.603   2.515
12993SOL    HW140818   7.479   9.639   2.556
12993SOL    HW240819   7.605   9.563   2.588
12994SOL     OW40820  13.910  14.169   8.598
12994SOL    HW140821  13.980  14.169   8.533
12994SOL    HW240822  13.940  14.229   8.667
12995SOL     OW40823   0.030  10.689   4.586
12995SOL    HW140824  14.845  10.731   4.530
12995SOL    HW240825   0.114  10.719   4.551
12996SOL     OW40826  13.339   2.312   7.887
12996SOL    HW140827  13.356   2.274   7.973
12996SOL    HW240828  13.425   2.318   7.845
12997SOL     OW40829  14.197   8.996   9.713
12997SOL    HW140830  14.113   9.021   9.752
12997SOL    HW240831  14.229   8.924   9.767
12998SOL     OW40832   4.057   3.438   9.443
12998SOL    HW140833   4.008   3.411   9.521
12998SOL    HW240834   4.145   3.403   9.456
12999SOL     OW40835   5.416   6.694   4.343
12999SOL    HW140836   5.444   6.679   4.253
12999SOL    HW240837   5.450   6.619   4.392
13000SOL     OW40838   7.386  14.722  12.534
13000SOL    HW140839   7.306  14.720  12.588
13000SOL    HW240840   7.439  14.791  12.573
13001SOL     OW40841   7.029  12.353  13.226
13001SOL    HW140842   7.122  12.366  13.207
13001SOL    HW240843   6.988  12.438  13.207
13002SOL     OW40844   7.830   5.852  12.798
13002SOL    HW140845   7.763   5.894  12.852
13002SOL    HW240846   7.893   5.818  12.861
13003SOL     OW40847   9.485   5.815   9.826
13003SOL    HW140848   9.446   5.899   9.801
13003SOL    HW240849   9.563   5.838   9.877
13004SOL     OW40850   9.024   6.800   2.615
13004SOL    HW140851   8.929   6.795   2.625
13004SOL    HW240852   9.038   6.813   2.521
13005SOL     OW40853   7.275   0.664   1.563
13005SOL    HW140854   7.279   0.569   1.567
13005SOL    HW240855   7.182   0.684   1.567
13006SOL     OW40856   1.954  13.304   9.125
13006SOL    HW140857   1.963  13.397   9.146
13006SOL    HW240858   2.027  13.261   9.169
13007SOL     OW40859   2.320  10.674  10.405
13007SOL    HW140860   2.252  10.689  10.339
13007SOL    HW240861   2.276  10.692  10.489
13008SOL     OW40862   3.272   2.860   3.049
13008SOL    HW140863   3.215   2.828   2.979
13008SOL    HW240864   3.291   2.783   3.102
13009SOL     OW40865  14.719   0.948   7.031
13009SOL    HW140866  14.698   1.027   7.080
13009SOL    HW240867  14.653   0.884   7.059
13010SOL     OW40868   8.288   2.608  10.432
13010SOL    HW140869   8.352   2.576  10.496
13010SOL    HW240870   8.334   2.677  10.385
13011SOL     OW40871  14.728   2.416   1.714
13011SOL    HW140872  14.758   2.410   1.623
13011SOL    HW240873  14.662   2.347   1.722
13012SOL     OW40874   7.371   7.320   4.227
13012SOL    HW140875   7.322   7.398   4.199
13012SOL    HW240876   7.390   7.336   4.320
13013SOL     OW40877   9.349   8.225   6.658
13013SOL    HW140878   9.283   8.257   6.597
13013SOL    HW240879   9.425   8.281   6.643
13014SOL     OW40880  12.946   1.778   0.875
13014SOL    HW140881  12.907   1.691   0.870
13014SOL    HW240882  12.879   1.831   0.919
13015SOL     OW40883   8.909   2.196   3.900
13015SOL    HW140884   8.974   2.259   3.933
13015SOL    HW240885   8.865   2.243   3.830
13016SOL     OW40886  13.159  11.666  11.184
13016SOL    HW140887  13.181  11.715  11.105
13016SOL    HW240888  13.124  11.583  11.152
13017SOL     OW40889  10.455   0.082   2.950
13017SOL    HW140890  10.383   0.104   3.009
13017SOL    HW240891  10.488  14.878   2.983
13018SOL     OW40892  13.251   0.771  12.527
13018SOL    HW140893  13.273   0.863  12.542
13018SOL    HW240894  13.283   0.753  12.438
13019SOL     OW40895   7.289   2.139   7.463
13019SOL    HW140896   7.376   2.111   7.435
13019SOL    HW240897   7.293   2.235   7.464
13020SOL     OW40898   7.195   9.150   9.478
13020SOL    HW140899   7.105   9.121   9.467
13020SOL    HW240900   7.201   9.230   9.426
13021SOL     OW40901   7.969   5.747   8.946
13021SOL    HW140902   8.054   5.792   8.953
13021SOL    HW240903   7.910   5.799   9.000
13022SOL     OW40904   8.516   6.841  11.050
13022SOL    HW140905   8.594   6.786  11.046
13022SOL    HW240906   8.530   6.906  10.981
13023SOL     OW40907  13.467   9.414  11.181
13023SOL    HW140908  13.419   9.334  11.205
13023SOL    HW240909  13.528   9.386  11.113
13024SOL     OW40910   0.857   7.460   9.331
13024SOL    HW140911   0.861   7.531   9.267
13024SOL    HW240912   0.769   7.424   9.321
13025SOL     OW40913   6.140  14.730   0.653
13025SOL    HW140914   6.133  14.794   0.582
13025SOL    HW240915   6.081  14.764   0.721
13026SOL     OW40916   2.679  11.780  12.830
13026SOL    HW140917   2.634  11.802  12.911
13026SOL    HW240918   2.728  11.700  12.851
13027SOL     OW40919   9.035   1.951  10.375
13027SOL    HW140920   9.047   1.967  10.468
13027SOL    HW240921   9.002   1.862  10.369
13028SOL     OW40922  10.194   9.167   1.743
13028SOL    HW140923  10.164   9.079   1.722
13028SOL    HW240924  10.157   9.222   1.675
13029SOL     OW40925   6.262   1.758   2.123
13029SOL    HW140926   6.310   1.682   2.154
13029SOL    HW240927   6.245   1.741   2.031
13030SOL     OW40928  12.170   3.803   6.031
13030SOL    HW140929  12.256   3.822   6.069
13030SOL    HW240930  12.129   3.744   6.094
13031SOL     OW40931   6.450   5.851   7.342
13031SOL    HW140932   6.400   5.769   7.346
13031SOL    HW240933   6.513   5.845   7.414
13032SOL     OW40934  13.152   2.489   9.229
13032SOL    HW140935  13.183   2.579   9.231
13032SOL    HW240936  13.208   2.446   9.164
13033SOL     OW40937  10.942   4.361   1.032
13033SOL    HW140938  10.850   4.341   1.052
13033SOL    HW240939  10.943   4.381   0.939
13034SOL     OW40940  11.262   3.025  11.250
13034SOL    HW140941  11.350   3.050  11.276
13034SOL    HW240942  11.240   2.951  11.307
13035SOL     OW40943   6.585   5.147  11.333
13035SOL    HW140944   6.506   5.102  11.302
13035SOL    HW240945   6.568   5.163  11.426
13036SOL     OW40946  12.018   0.232  12.518
13036SOL    HW140947  11.962   0.264  12.447
13036SOL    HW240948  11.993   0.141  12.528
13037SOL     OW40949   7.192   7.000  10.934
13037SOL    HW140950   7.105   7.012  10.897
13037SOL    HW240951   7.180   7.009  11.028
13038SOL     OW40952  10.513  10.236   1.867
13038SOL    HW140953  10.495  10.281   1.950
13038SOL    HW240954  10.489  10.145   1.883
13039SOL     OW40955   6.920  14.766   8.571
13039SOL    HW140956   6.987  14.777   8.504
13039SOL    HW240957   6.902  14.672   8.573
13040SOL     OW40958   3.248   4.974   6.142
13040SOL    HW140959   3.179   4.951   6.079
13040SOL    HW240960   3.301   5.040   6.098
13041SOL     OW40961   5.583  14.726   1.283
13041SOL    HW140962   5.638  14.707   1.359
13041SOL    HW240963   5.526  14.798   1.311
13042SOL     OW40964   7.714  10.100  10.895
13042SOL    HW140965   7.798  10.121  10.936
13042SOL    HW240966   7.650  10.156  10.940
13043SOL     OW40967   8.753  11.594  14.616
13043SOL    HW140968   8.746  11.594  14.711
13043SOL    HW240969   8.825  11.654  14.597
13044SOL     OW40970  10.055   7.430  13.830
13044SOL    HW140971  10.022   7.469  13.911
13044SOL    HW240972   9.979   7.389  13.790
13045SOL     OW40973   8.476   9.002  13.166
13045SOL    HW140974   8.438   9.045  13.243
13045SOL    HW240975   8.548   8.949  13.200
13046SOL     OW40976   2.215   1.349   1.399
13046SOL    HW140977   2.275   1.290   1.445
13046SOL    HW240978   2.271   1.406   1.348
13047SOL     OW40979   1.907   1.869  13.436
13047SOL    HW140980   1.933   1.914  13.355
13047SOL    HW240981   1.913   1.936  13.504
13048SOL     OW40982   5.519  13.078   4.825
13048SOL    HW140983   5.524  13.064   4.730
13048SOL    HW240984   5.426  13.088   4.844
13049SOL     OW40985  11.809   6.312  13.529
13049SOL    HW140986  11.723   6.328  13.568
13049SOL    HW240987  11.851   6.398  13.526
13050SOL     OW40988   5.336   1.342   7.695
13050SOL    HW140989   5.292   1.260   7.718
13050SOL    HW240990   5.311   1.403   7.765
13051SOL     OW40991   5.876  12.846  12.964
13051SOL    HW140992   5.959  12.882  12.995
13051SOL    HW240993   5.811  12.878  13.026
13052SOL     OW40994   9.783   7.048  13.112
13052SOL    HW140995   9.725   6.972  13.115
13052SOL    HW240996   9.800   7.062  13.019
13053SOL     OW40997   3.872   9.660  12.910
13053SOL    HW140998   3.798   9.630  12.964
13053SOL    HW240999   3.832   9.724  12.851
13054SOL     OW41000   8.502  12.695   8.594
13054SOL    HW141001   8.492  12.638   8.670
13054SOL    HW241002   8.416  12.736   8.583
13055SOL     OW41003  10.562   2.945   2.118
13055SOL    HW141004  10.544   2.851   2.108
13055SOL    HW241005  10.600   2.953   2.205
13056SOL     OW41006  10.403   2.921   0.738
13056SOL    HW141007  10.370   2.832   0.728
13056SOL    HW241008  10.326   2.972   0.765
13057SOL     OW41009  13.466   0.073  12.112
13057SOL    HW141010  13.399   0.099  12.049
13057SOL    HW241011  13.488  14.863  12.087
13058SOL     OW41012   4.351  11.146   4.560
13058SOL    HW141013   4.366  11.196   4.480
13058SOL    HW241014   4.373  11.056   4.536
13059SOL     OW41015   9.848   9.530   5.021
13059SOL    HW141016   9.897   9.605   5.056
13059SOL    HW241017   9.833   9.473   5.097
13060SOL     OW41018   8.455   8.765   4.902
13060SOL    HW141019   8.452   8.782   4.808
13060SOL    HW241020   8.365   8.779   4.932
13061SOL     OW41021  13.819   2.973   0.287
13061SOL    HW141022  13.850   3.061   0.309
13061SOL    HW241023  13.741   2.961   0.341
13062SOL     OW41024   0.637   5.087   4.354
13062SOL    HW141025   0.550   5.050   4.339
13062SOL    HW241026   0.696   5.031   4.304
13063SOL     OW41027  12.276   5.384   0.346
13063SOL    HW141028  12.313   5.472   0.338
13063SOL    HW241029  12.181   5.398   0.354
13064SOL     OW41030   1.398   3.539   7.305
13064SOL    HW141031   1.432   3.626   7.286
13064SOL    HW241032   1.402   3.532   7.401
13065SOL     OW41033  13.539   7.543   7.770
13065SOL    HW141034  13.592   7.489   7.828
13065SOL    HW241035  13.453   7.501   7.770
13066SOL     OW41036  11.700   5.068  10.253
13066SOL    HW141037  11.729   5.017  10.177
13066SOL    HW241038  11.775   5.067  10.312
13067SOL     OW41039  10.576   9.903   3.788
13067SOL    HW141040  10.484   9.878   3.783
13067SOL    HW241041  10.623   9.833   3.744
13068SOL     OW41042   1.450   3.881   1.653
13068SOL    HW141043   1.440   3.941   1.727
13068SOL    HW241044   1.506   3.928   1.591
13069SOL     OW41045   2.460   4.602   0.693
13069SOL    HW141046   2.404   4.679   0.684
13069SOL    HW241047   2.476   4.594   0.787
13070SOL     OW41048  13.338   0.350   3.909
13070SOL    HW141049  13.432   0.350   3.890
13070SOL    HW241050  13.299   0.302   3.837
13071SOL     OW41051   8.098   3.486  10.472
13071SOL    HW141052   8.073   3.421  10.407
13071SOL    HW241053   8.088   3.442  10.556
13072SOL     OW41054  12.752   2.110   4.141
13072SOL    HW141055  12.818   2.108   4.072
13072SOL    HW241056  12.704   2.191   4.125
13073SOL     OW41057   0.566   7.768   5.699
13073SOL    HW141058   0.648   7.808   5.672
13073SOL    HW241059   0.504   7.793   5.630
13074SOL     OW41060  11.045   0.747   1.094
13074SOL    HW141061  11.119   0.696   1.129
13074SOL    HW241062  10.991   0.765   1.170
13075SOL     OW41063  11.935   4.595   9.827
13075SOL    HW141064  11.927   4.625   9.737
13075SOL    HW241065  12.017   4.546   9.829
13076SOL     OW41066   1.200   7.497   5.565
13076SOL    HW141067   1.257   7.426   5.595
13076SOL    HW241068   1.156   7.461   5.488
13077SOL     OW41069  13.000   7.397  13.326
13077SOL    HW141070  13.047   7.480  13.324
13077SOL    HW241071  12.988   7.378  13.419
13078SOL     OW41072   0.826   5.462  10.249
13078SOL    HW141073   0.799   5.451  10.340
13078SOL    HW241074   0.870   5.380  10.227
13079SOL     OW41075  13.134  12.847   9.018
13079SOL    HW141076  13.121  12.913   9.086
13079SOL    HW241077  13.056  12.792   9.022
13080SOL     OW41078  11.422   3.026   2.880
13080SOL    HW141079  11.350   3.070   2.835
13080SOL    HW241080  11.381   2.949   2.920
13081SOL     OW41081  10.084   1.482  13.377
13081SOL    HW141082   9.992   1.473  13.353
13081SOL    HW241083  10.109   1.395  13.409
13082SOL     OW41084   8.718   5.590   3.601
13082SOL    HW141085   8.782   5.593   3.530
13082SOL    HW241086   8.735   5.669   3.653
13083SOL     OW41087   9.231   3.616  12.002
13083SOL    HW141088   9.276   3.692  12.040
13083SOL    HW241089   9.266   3.610  11.913
13084SOL     OW41090   4.518   4.254   2.104
13084SOL    HW141091   4.489   4.298   2.183
13084SOL    HW241092   4.571   4.319   2.058
13085SOL     OW41093  11.607   2.442  10.208
13085SOL    HW141094  11.653   2.526  10.212
13085SOL    HW241095  11.548   2.444  10.284
13086SOL     OW41096  14.252   1.097   4.491
13086SOL    HW141097  14.285   1.007   4.483
13086SOL    HW241098  14.176   1.100   4.432
13087SOL     OW41099   3.886   5.793   8.063
13087SOL    HW141100   3.840   5.712   8.040
13087SOL    HW241101   3.845   5.820   8.145
13088SOL     OW41102   4.189   7.486   7.848
13088SOL    HW141103   4.274   7.522   7.822
13088SOL    HW241104   4.210   7.422   7.916
13089SOL     OW41105  14.857   5.450  10.806
13089SOL    HW141106   0.045   5.499  10.854
13089SOL    HW241107  14.775   5.473  10.850
13090SOL     OW41108   4.728  12.164   2.793
13090SOL    HW141109   4.726  12.071   2.773
13090SOL    HW241110   4.643  12.181   2.834
13091SOL     OW41111  10.674   4.038   0.943
13091SOL    HW141112  10.580   4.031   0.925
13091SOL    HW241113  10.680   4.102   1.014
13092SOL     OW41114   6.293   4.942  11.829
13092SOL    HW141115   6.269   4.887  11.904
13092SOL    HW241116   6.226   4.923  11.764
13093SOL     OW41117   1.653   5.811  14.834
13093SOL    HW141118   1.625   5.823  14.743
13093SOL    HW241119   1.587   5.753  14.872
13094SOL     OW41120   5.318  11.795   6.005
13094SOL    HW141121   5.249  11.777   5.941
13094SOL    HW241122   5.321  11.716   6.059
13095SOL     OW41123   0.439   0.932  13.018
13095SOL    HW141124   0.422   0.838  13.011
13095SOL    HW241125   0.490   0.942  13.098
13096SOL     OW41126   7.367  10.615   9.405
13096SOL    HW141127   7.306  10.658   9.466
13096SOL    HW241128   7.396  10.685   9.347
13097SOL     OW41129   7.135  10.444  14.606
13097SOL    HW141130   7.220  10.442  14.650
13097SOL    HW241131   7.150  10.401  14.522
13098SOL     OW41132   6.956   6.411   7.548
13098SOL    HW141133   6.953   6.462   7.629
13098SOL    HW241134   6.984   6.324   7.576
13099SOL     OW41135   7.700  11.599   1.162
13099SOL    HW141136   7.693  11.693   1.182
13099SOL    HW241137   7.762  11.595   1.089
13100SOL     OW41138   0.734  11.101   4.131
13100SOL    HW141139   0.730  11.196   4.128
13100SOL    HW241140   0.797  11.077   4.064
13101SOL     OW41141   2.890   2.689  10.393
13101SOL    HW141142   2.820   2.705  10.330
13101SOL    HW241143   2.927   2.605  10.367
13102SOL     OW41144   6.029   1.177   1.533
13102SOL    HW141145   5.990   1.205   1.616
13102SOL    HW241146   5.956   1.174   1.471
13103SOL     OW41147   6.558   4.156  12.285
13103SOL    HW141148   6.581   4.076  12.333
13103SOL    HW241149   6.519   4.213  12.352
13104SOL     OW41150  13.749  12.338   5.813
13104SOL    HW141151  13.675  12.280   5.825
13104SOL    HW241152  13.710  12.421   5.786
13105SOL     OW41153  11.123   6.357   4.215
13105SOL    HW141154  11.110   6.440   4.260
13105SOL    HW241155  11.059   6.298   4.255
13106SOL     OW41156  12.425   4.500   9.455
13106SOL    HW141157  12.435   4.494   9.360
13106SOL    HW241158  12.481   4.430   9.490
13107SOL     OW41159   7.615   8.717   3.221
13107SOL    HW141160   7.582   8.802   3.191
13107SOL    HW241161   7.709   8.720   3.205
13108SOL     OW41162   9.526   7.714   5.041
13108SOL    HW141163   9.570   7.674   5.116
13108SOL    HW241164   9.474   7.786   5.079
13109SOL     OW41165   6.872   8.231   6.382
13109SOL    HW141166   6.945   8.171   6.398
13109SOL    HW241167   6.850   8.266   6.468
13110SOL     OW41168  14.206   2.899   0.714
13110SOL    HW141169  14.141   2.967   0.701
13110SOL    HW241170  14.267   2.907   0.641
13111SOL     OW41171   7.436   9.618   8.346
13111SOL    HW141172   7.509   9.557   8.358
13111SOL    HW241173   7.435   9.671   8.425
13112SOL     OW41174  13.963   4.239  10.579
13112SOL    HW141175  13.878   4.202  10.604
13112SOL    HW241176  13.965   4.232  10.484
13113SOL     OW41177  10.409  14.255  14.817
13113SOL    HW141178  10.483  14.203  14.851
13113SOL    HW241179  10.448  14.311  14.751
13114SOL     OW41180  12.186   1.809   8.572
13114SOL    HW141181  12.164   1.864   8.648
13114SOL    HW241182  12.162   1.720   8.600
13115SOL     OW41183   0.833   0.603   9.723
13115SOL    HW141184   0.857   0.575   9.811
13115SOL    HW241185   0.916   0.608   9.676
13116SOL     OW41186   1.246   6.346  13.004
13116SOL    HW141187   1.263   6.293  13.082
13116SOL    HW241188   1.311   6.316  12.941
13117SOL     OW41189  11.692   3.913  13.237
13117SOL    HW141190  11.687   3.975  13.164
13117SOL    HW241191  11.699   3.967  13.315
13118SOL     OW41192  12.954  10.720   2.991
13118SOL    HW141193  13.021  10.673   3.040
13118SOL    HW241194  12.879  10.660   2.991
13119SOL     OW41195   1.010   6.219   6.791
13119SOL    HW141196   1.040   6.301   6.751
13119SOL    HW241197   1.020   6.154   6.722
13120SOL     OW41198   5.593   2.240   0.475
13120SOL    HW141199   5.517   2.195   0.512
13120SOL    HW241200   5.643   2.267   0.552
13121SOL     OW41201   2.278  10.582  10.058
13121SOL    HW141202   2.282  10.547   9.970
13121SOL    HW241203   2.209  10.532  10.102
13122SOL     OW41204  12.789   2.081   0.561
13122SOL    HW141205  12.804   2.135   0.483
13122SOL    HW241206  12.784   2.144   0.633
13123SOL     OW41207   1.797   4.780   8.902
13123SOL    HW141208   1.705   4.806   8.916
13123SOL    HW241209   1.810   4.708   8.963
13124SOL     OW41210   8.850   0.888  13.560
13124SOL    HW141211   8.786   0.916  13.625
13124SOL    HW241212   8.799   0.842  13.494
13125SOL     OW41213  10.773  14.570  10.663
13125SOL    HW141214  10.786  14.477  10.648
13125SOL    HW241215  10.859  14.609  10.645
13126SOL     OW41216   0.460   6.629   4.313
13126SOL    HW141217   0.397   6.696   4.339
13126SOL    HW241218   0.419   6.585   4.239
13127SOL     OW41219   3.507   7.511   2.766
13127SOL    HW141220   3.461   7.447   2.713
13127SOL    HW241221   3.488   7.487   2.856
13128SOL     OW41222   6.264   2.157   4.301
13128SOL    HW141223   6.308   2.238   4.327
13128SOL    HW241224   6.191   2.149   4.362
13129SOL     OW41225   1.821   2.310   5.685
13129SOL    HW141226   1.767   2.337   5.611
13129SOL    HW241227   1.881   2.244   5.649
13130SOL     OW41228   9.408   4.416   8.857
13130SOL    HW141229   9.360   4.492   8.825
13130SOL    HW241230   9.376   4.403   8.947
13131SOL     OW41231   1.333  11.741  13.781
13131SOL    HW141232   1.319  11.660  13.830
13131SOL    HW241233   1.249  11.761  13.742
13132SOL     OW41234  10.024   7.725  14.490
13132SOL    HW141235  10.054   7.762  14.407
13132SOL    HW241236  10.094   7.745  14.552
13133SOL     OW41237   9.406   5.388   9.030
13133SOL    HW141238   9.313   5.368   9.041
13133SOL    HW241239   9.445   5.303   9.008
13134SOL     OW41240   4.769   5.434   7.449
13134SOL    HW141241   4.810   5.520   7.444
13134SOL    HW241242   4.784   5.406   7.539
13135SOL     OW41243  10.914   8.409   0.134
13135SOL    HW141244  10.834   8.368   0.168
13135SOL    HW241245  10.884   8.463   0.061
13136SOL     OW41246   1.411   0.012   7.920
13136SOL    HW141247   1.397   0.004   7.826
13136SOL    HW241248   1.442   0.101   7.932
13137SOL     OW41249  13.822   0.449  14.449
13137SOL    HW141250  13.879   0.493  14.386
13137SOL    HW241251  13.866   0.459  14.533
13138SOL     OW41252   6.760   7.529   3.277
13138SOL    HW141253   6.740   7.471   3.204
13138SOL    HW241254   6.842   7.496   3.313
13139SOL     OW41255   2.949   6.821   7.693
13139SOL    HW141256   2.928   6.885   7.625
13139SOL    HW241257   3.034   6.786   7.667
13140SOL     OW41258   2.160  13.930  12.234
13140SOL    HW141259   2.102  13.908  12.161
13140SOL    HW241260   2.150  14.025  12.244
13141SOL     OW41261  12.303   6.036  11.831
13141SOL    HW141262  12.387   6.003  11.864
13141SOL    HW241263  12.312   6.033  11.735
13142SOL     OW41264   5.313  13.942   8.550
13142SOL    HW141265   5.379  13.903   8.608
13142SOL    HW241266   5.246  13.875   8.541
13143SOL     OW41267   7.178   2.925   6.636
13143SOL    HW141268   7.169   2.831   6.651
13143SOL    HW241269   7.131   2.940   6.554
13144SOL     OW41270  14.328  12.492   8.109
13144SOL    HW141271  14.362  12.418   8.059
13144SOL    HW241272  14.270  12.453   8.174
13145SOL     OW41273   4.421  12.052   1.315
13145SOL    HW141274   4.500  12.000   1.328
13145SOL    HW241275   4.365  12.028   1.390
13146SOL     OW41276  12.574   3.124   6.662
13146SOL    HW141277  12.569   3.041   6.711
13146SOL    HW241278  12.491   3.167   6.680
13147SOL     OW41279   9.204   0.018   6.593
13147SOL    HW141280   9.294   0.005   6.625
13147SOL    HW241281   9.204   0.109   6.561
13148SOL     OW41282   4.417  13.896   9.169
13148SOL    HW141283   4.356  13.970   9.169
13148SOL    HW241284   4.442  13.885   9.077
13149SOL     OW41285   6.262   6.254   2.767
13149SOL    HW141286   6.326   6.183   2.766
13149SOL    HW241287   6.279   6.300   2.849
13150SOL     OW41288  11.451  14.866   8.738
13150SOL    HW141289  11.508   0.012   8.810
13150SOL    HW241290  11.510  14.849   8.665
13151SOL     OW41291   8.892   2.539   9.443
13151SOL    HW141292   8.858   2.472   9.503
13151SOL    HW241293   8.941   2.489   9.377
13152SOL     OW41294   0.689   5.579   2.462
13152SOL    HW141295   0.633   5.620   2.528
13152SOL    HW241296   0.704   5.649   2.398
13153SOL     OW41297   8.111  13.941   7.346
13153SOL    HW141298   8.115  13.995   7.425
13153SOL    HW241299   8.020  13.945   7.318
13154SOL     OW41300  12.178   9.412   4.895
13154SOL    HW141301  12.199   9.322   4.868
13154SOL    HW241302  12.084   9.419   4.884
13155SOL     OW41303  11.762   9.168   3.961
13155SOL    HW141304  11.684   9.181   4.014
13155SOL    HW241305  11.791   9.079   3.983
13156SOL     OW41306  11.058   4.144  10.526
13156SOL    HW141307  11.125   4.162  10.592
13156SOL    HW241308  10.991   4.211  10.541
13157SOL     OW41309   5.391   9.384   9.010
13157SOL    HW141310   5.445   9.457   8.979
13157SOL    HW241311   5.375   9.404   9.102
13158SOL     OW41312   1.381   4.371  13.166
13158SOL    HW141313   1.465   4.326  13.165
13158SOL    HW241314   1.386   4.434  13.093
13159SOL     OW41315   4.838  11.914   4.237
13159SOL    HW141316   4.897  11.970   4.288
13159SOL    HW241317   4.781  11.975   4.190
13160SOL     OW41318   3.164  11.663  11.212
13160SOL    HW141319   3.145  11.744  11.258
13160SOL    HW241320   3.258  11.649  11.224
13161SOL     OW41321   3.415   9.044  11.979
13161SOL    HW141322   3.470   9.108  12.023
13161SOL    HW241323   3.325   9.071  11.998
13162SOL     OW41324   9.837   7.587   2.211
13162SOL    HW141325   9.890   7.646   2.266
13162SOL    HW241326   9.799   7.524   2.273
13163SOL     OW41327  12.844  12.382   3.311
13163SOL    HW141328  12.772  12.359   3.252
13163SOL    HW241329  12.826  12.331   3.391
13164SOL     OW41330  14.195   9.996   5.364
13164SOL    HW141331  14.167   9.979   5.274
13164SOL    HW241332  14.121  10.041   5.404
13165SOL     OW41333   1.011   6.260   2.804
13165SOL    HW141334   0.935   6.241   2.860
13165SOL    HW241335   0.976   6.312   2.732
13166SOL     OW41336   2.408   3.005   3.284
13166SOL    HW141337   2.419   2.967   3.197
13166SOL    HW241338   2.384   3.096   3.268
13167SOL     OW41339  11.843   4.479  12.099
13167SOL    HW141340  11.764   4.532  12.109
13167SOL    HW241341  11.915   4.542  12.109
13168SOL     OW41342  13.327   2.847  10.633
13168SOL    HW141343  13.370   2.929  10.658
13168SOL    HW241344  13.281   2.818  10.712
13169SOL     OW41345   2.134   4.119   7.155
13169SOL    HW141346   2.062   4.095   7.213
13169SOL    HW241347   2.097   4.114   7.067
13170SOL     OW41348   2.160   2.294   0.586
13170SOL    HW141349   2.187   2.338   0.505
13170SOL    HW241350   2.139   2.365   0.647
13171SOL     OW41351   9.046   2.969   0.078
13171SOL    HW141352   9.126   2.991   0.125
13171SOL    HW241353   9.042   3.032   0.007
13172SOL     OW41354   6.521  14.463  12.399
13172SOL    HW141355   6.451  14.528  12.397
13172SOL    HW241356   6.548  14.454  12.307
13173SOL     OW41357  10.373   4.626   8.450
13173SOL    HW141358  10.322   4.601   8.372
13173SOL    HW241359  10.311   4.675   8.504
13174SOL     OW41360  10.151   5.145   3.409
13174SOL    HW141361  10.074   5.111   3.363
13174SOL    HW241362  10.126   5.143   3.502
13175SOL     OW41363   4.534   0.491   9.916
13175SOL    HW141364   4.537   0.438   9.837
13175SOL    HW241365   4.556   0.430   9.987
13176SOL     OW41366   1.242   8.664   1.324
13176SOL    HW141367   1.200   8.681   1.239
13176SOL    HW241368   1.335   8.677   1.308
13177SOL     OW41369  13.950   7.978   4.089
13177SOL    HW141370  13.959   7.884   4.105
13177SOL    HW241371  13.857   7.996   4.100
13178SOL     OW41372   5.766  10.000  11.657
13178SOL    HW141373   5.816   9.935  11.705
13178SOL    HW241374   5.688   9.954  11.626
13179SOL     OW41375  12.538   6.336  12.623
13179SOL    HW141376  12.448   6.359  12.645
13179SOL    HW241377  12.590   6.363  12.699
13180SOL     OW41378  12.495  11.195   9.472
13180SOL    HW141379  12.433  11.230   9.408
13180SOL    HW241380  12.512  11.106   9.443
13181SOL     OW41381   1.815   7.103   6.040
13181SOL    HW141382   1.727   7.138   6.050
13181SOL    HW241383   1.805   7.033   5.975
13182SOL     OW41384   8.164  13.127  10.695
13182SOL    HW141385   8.114  13.192  10.745
13182SOL    HW241386   8.252  13.131  10.732
13183SOL     OW41387   5.221   9.430  13.713
13183SOL    HW141388   5.171   9.509  13.697
13183SOL    HW241389   5.243   9.433  13.806
13184SOL     OW41390  11.256   1.193   5.191
13184SOL    HW141391  11.168   1.164   5.166
13184SOL    HW241392  11.278   1.141   5.268
13185SOL     OW41393   5.901   1.769  13.079
13185SOL    HW141394   5.811   1.753  13.108
13185SOL    HW241395   5.920   1.859  13.106
13186SOL     OW41396  13.766   1.271  12.506
13186SOL    HW141397  13.690   1.330  12.507
13186SOL    HW241398  13.727   1.184  12.499
13187SOL     OW41399  11.655  12.043   9.494
13187SOL    HW141400  11.636  12.078   9.406
13187SOL    HW241401  11.576  11.995   9.518
13188SOL     OW41402   9.032  11.527   8.858
13188SOL    HW141403   8.986  11.494   8.780
13188SOL    HW241404   8.976  11.502   8.931
13189SOL     OW41405   2.987   7.198   5.707
13189SOL    HW141406   3.053   7.257   5.743
13189SOL    HW241407   2.934   7.172   5.783
13190SOL     OW41408  12.643  10.206  12.024
13190SOL    HW141409  12.583  10.270  11.986
13190SOL    HW241410  12.634  10.129  11.969
13191SOL     OW41411   6.410   8.571   3.029
13191SOL    HW141412   6.416   8.525   2.945
13191SOL    HW241413   6.430   8.662   3.008
13192SOL     OW41414   0.396   0.052   3.922
13192SOL    HW141415   0.335  14.858   3.919
13192SOL    HW241416   0.433   0.056   3.834
13193SOL     OW41417   5.142   4.489   6.791
13193SOL    HW141418   5.202   4.561   6.810
13193SOL    HW241419   5.120   4.499   6.699
13194SOL     OW41420   4.555   5.555  13.023
13194SOL    HW141421   4.636   5.543  12.973
13194SOL    HW241422   4.490   5.581  12.957
13195SOL     OW41423   3.718   5.333   2.092
13195SOL    HW141424   3.795   5.277   2.082
13195SOL    HW241425   3.753   5.421   2.107
13196SOL     OW41426   9.266   4.587  14.662
13196SOL    HW141427   9.337   4.524  14.679
13196SOL    HW241428   9.277   4.653  14.730
13197SOL     OW41429   7.045   1.704   5.119
13197SOL    HW141430   7.129   1.730   5.157
13197SOL    HW241431   7.026   1.618   5.157
13198SOL     OW41432   3.094   1.349   2.461
13198SOL    HW141433   3.029   1.419   2.470
13198SOL    HW241434   3.138   1.346   2.546
13199SOL     OW41435  13.105  10.231  12.597
13199SOL    HW141436  13.056  10.152  12.575
13199SOL    HW241437  13.175  10.234  12.532
13200SOL     OW41438   2.595  11.904   4.423
13200SOL    HW141439   2.630  11.992   4.439
13200SOL    HW241440   2.603  11.892   4.328
13201SOL     OW41441   3.939   6.219  10.651
13201SOL    HW141442   3.990   6.249  10.576
13201SOL    HW241443   3.970   6.274  10.723
13202SOL     OW41444   8.127   4.627   3.405
13202SOL    HW141445   8.155   4.666   3.487
13202SOL    HW241446   8.165   4.683   3.337
13203SOL     OW41447   0.277   5.018   1.682
13203SOL    HW141448   0.317   5.101   1.656
13203SOL    HW241449   0.210   5.002   1.617
13204SOL     OW41450  13.987   0.020  11.330
13204SOL    HW141451  13.925   0.072  11.382
13204SOL    HW241452  14.015   0.079  11.260
13205SOL     OW41453   7.480  10.603  13.989
13205SOL    HW141454   7.388  10.619  13.965
13205SOL    HW241455   7.526  10.682  13.961
13206SOL     OW41456   1.138  13.155  12.853
13206SOL    HW141457   1.124  13.245  12.822
13206SOL    HW241458   1.224  13.157  12.894
13207SOL     OW41459   0.177   8.943  11.265
13207SOL    HW141460   0.219   8.915  11.346
13207SOL    HW241461   0.210   8.882  11.199
13208SOL     OW41462   8.708   8.455   0.460
13208SOL    HW141463   8.726   8.484   0.370
13208SOL    HW241464   8.779   8.393   0.479
13209SOL     OW41465   4.534  13.658  12.757
13209SOL    HW141466   4.449  13.615  12.745
13209SOL    HW241467   4.549  13.705  12.676
13210SOL     OW41468  14.648   5.629   8.700
13210SOL    HW141469  14.702   5.583   8.764
13210SOL    HW241470  14.710   5.670   8.640
13211SOL     OW41471  11.343   4.560   0.997
13211SOL    HW141472  11.291   4.562   0.916
13211SOL    HW241473  11.290   4.509   1.058
13212SOL     OW41474   9.390  12.914   7.792
13212SOL    HW141475   9.317  12.874   7.744
13212SOL    HW241476   9.467  12.865   7.763
13213SOL     OW41477   0.555  11.495  11.650
13213SOL    HW141478   0.501  11.574  11.649
13213SOL    HW241479   0.522  11.441  11.578
13214SOL     OW41480   9.218  14.667   9.519
13214SOL    HW141481   9.249  14.624   9.598
13214SOL    HW241482   9.124  14.649   9.518
13215SOL     OW41483   6.572  12.025   8.560
13215SOL    HW141484   6.505  12.084   8.525
13215SOL    HW241485   6.622  12.078   8.621
13216SOL     OW41486   1.439  14.849   5.992
13216SOL    HW141487   1.369   0.032   6.012
13216SOL    HW241488   1.462  14.812   6.077
13217SOL     OW41489  12.697   8.706  10.568
13217SOL    HW141490  12.703   8.727  10.475
13217SOL    HW241491  12.630   8.637  10.573
13218SOL     OW41492  13.921   3.858  12.735
13218SOL    HW141493  14.005   3.872  12.692
13218SOL    HW241494  13.898   3.943  12.772
13219SOL     OW41495  12.776   2.213  14.268
13219SOL    HW141496  12.787   2.303  14.298
13219SOL    HW241497  12.682   2.197  14.275
13220SOL     OW41498   1.710  10.998   1.643
13220SOL    HW141499   1.772  10.942   1.690
13220SOL    HW241500   1.763  11.072   1.613
13221SOL     OW41501  12.518   8.767   2.331
13221SOL    HW141502  12.459   8.705   2.288
13221SOL    HW241503  12.474   8.852   2.321
13222SOL     OW41504  13.077   5.081   3.591
13222SOL    HW141505  13.067   5.166   3.549
13222SOL    HW241506  12.988   5.056   3.616
13223SOL     OW41507   9.643  14.448  12.627
13223SOL    HW141508   9.724  14.451  12.575
13223SOL    HW241509   9.574  14.466  12.563
13224SOL     OW41510   5.844   6.616  14.495
13224SOL    HW141511   5.939   6.629  14.501
13224SOL    HW241512   5.833   6.521  14.495
13225SOL     OW41513   7.410   8.486   3.019
13225SOL    HW141514   7.403   8.570   2.973
13225SOL    HW241515   7.410   8.508   3.112
13226SOL     OW41516   4.722  10.268   7.103
13226SOL    HW141517   4.675  10.253   7.021
13226SOL    HW241518   4.726  10.363   7.111
13227SOL     OW41519   9.712   7.291  11.097
13227SOL    HW141520   9.801   7.265  11.122
13227SOL    HW241521   9.724   7.371  11.047
13228SOL     OW41522   9.726   1.080  13.613
13228SOL    HW141523   9.730   1.176  13.613
13228SOL    HW241524   9.817   1.052  13.611
13229SOL     OW41525   6.985   2.892   8.268
13229SOL    HW141526   6.905   2.940   8.250
13229SOL    HW241527   6.985   2.821   8.204
13230SOL     OW41528  12.942   8.115   1.608
13230SOL    HW141529  12.851   8.134   1.589
13230SOL    HW241530  12.945   8.101   1.703
13231SOL     OW41531  10.775   3.199  13.337
13231SOL    HW141532  10.829   3.234  13.266
13231SOL    HW241533  10.806   3.110  13.350
13232SOL     OW41534   9.078   4.336  12.089
13232SOL    HW141535   8.995   4.359  12.047
13232SOL    HW241536   9.069   4.244  12.112
13233SOL     OW41537   7.409  12.495   5.187
13233SOL    HW141538   7.475  12.430   5.210
13233SOL    HW241539   7.346  12.491   5.259
13234SOL     OW41540   8.305   4.135  12.851
13234SOL    HW141541   8.250   4.067  12.813
13234SOL    HW241542   8.368   4.156  12.782
13235SOL     OW41543   9.285  13.343   3.310
13235SOL    HW141544   9.263  13.249   3.309
13235SOL    HW241545   9.371  13.347   3.350
13236SOL     OW41546   9.394  10.122  12.410
13236SOL    HW141547   9.335  10.185  12.369
13236SOL    HW241548   9.337  10.071  12.468
13237SOL     OW41549  14.372   5.855  11.588
13237SOL    HW141550  14.386   5.936  11.539
13237SOL    HW241551  14.422   5.788  11.541
13238SOL     OW41552   0.353   8.162   2.482
13238SOL    HW141553   0.376   8.087   2.426
13238SOL    HW241554   0.335   8.123   2.568
13239SOL     OW41555   1.856   3.977  11.810
13239SOL    HW141556   1.914   4.022  11.871
13239SOL    HW241557   1.810   4.047  11.764
13240SOL     OW41558  10.968   3.813   7.873
13240SOL    HW141559  10.954   3.721   7.851
13240SOL    HW241560  10.956   3.859   7.790
13241SOL     OW41561   6.962  10.136   5.544
13241SOL    HW141562   6.921  10.137   5.630
13241SOL    HW241563   7.008  10.220   5.539
13242SOL     OW41564  10.207   0.566  14.705
13242SOL    HW141565  10.186   0.473  14.696
13242SOL    HW241566  10.286   0.578  14.652
13243SOL     OW41567  10.797  12.408   4.365
13243SOL    HW141568  10.808  12.360   4.447
13243SOL    HW241569  10.708  12.386   4.337
13244SOL     OW41570   6.413   3.112   0.008
13244SOL    HW141571   6.401   3.023   0.040
13244SOL    HW241572   6.383   3.108  14.796
13245SOL     OW41573  10.639   7.014   2.733
13245SOL    HW141574  10.631   7.000   2.639
13245SOL    HW241575  10.596   7.098   2.749
13246SOL     OW41576  13.029   3.136   6.315
13246SOL    HW141577  12.955   3.085   6.348
13246SOL    HW241578  12.993   3.224   6.302
13247SOL     OW41579   3.981   1.485   6.021
13247SOL    HW141580   4.026   1.513   6.101
13247SOL    HW241581   4.023   1.535   5.952
13248SOL     OW41582   5.988   4.337   8.210
13248SOL    HW141583   6.024   4.425   8.199
13248SOL    HW241584   5.921   4.347   8.277
13249SOL     OW41585  11.214  10.062   5.509
13249SOL    HW141586  11.303  10.063   5.545
13249SOL    HW241587  11.161  10.105   5.576
13250SOL     OW41588  12.195   5.246   2.042
13250SOL    HW141589  12.127   5.180   2.029
13250SOL    HW241590  12.255   5.207   2.105
13251SOL     OW41591  12.057  13.979   4.618
13251SOL    HW141592  12.133  13.991   4.675
13251SOL    HW241593  11.988  13.947   4.676
13252SOL     OW41594   0.868   8.034  10.496
13252SOL    HW141595   0.901   8.081  10.573
13252SOL    HW241596   0.939   8.040  10.432
13253SOL     OW41597  13.723   4.382   7.836
13253SOL    HW141598  13.814   4.409   7.824
13253SOL    HW241599  13.680   4.459   7.873
13254SOL     OW41600  12.690   9.364   4.858
13254SOL    HW141601  12.769   9.310   4.865
13254SOL    HW241602  12.719   9.452   4.880
13255SOL     OW41603  10.287  11.899   0.328
13255SOL    HW141604  10.210  11.891   0.272
13255SOL    HW241605  10.252  11.904   0.417
13256SOL     OW41606   6.645   4.793   5.592
13256SOL    HW141607   6.582   4.797   5.664
13256SOL    HW241608   6.652   4.883   5.561
13257SOL     OW41609  12.063   3.700   5.675
13257SOL    HW141610  12.056   3.728   5.584
13257SOL    HW241611  12.079   3.782   5.723
13258SOL     OW41612  11.864   2.156   7.223
13258SOL    HW141613  11.826   2.209   7.153
13258SOL    HW241614  11.788   2.128   7.275
13259SOL     OW41615   7.963  12.599   1.404
13259SOL    HW141616   8.011  12.554   1.473
13259SOL    HW241617   7.873  12.603   1.436
13260SOL     OW41618   1.942   0.947   5.237
13260SOL    HW141619   1.859   0.934   5.283
13260SOL    HW241620   1.961   1.040   5.248
13261SOL     OW41621  10.071   7.235   6.721
13261SOL    HW141622  10.017   7.174   6.771
13261SOL    HW241623  10.049   7.217   6.630
13262SOL     OW41624   3.870   7.380  11.228
13262SOL    HW141625   3.891   7.452  11.288
13262SOL    HW241626   3.798   7.414  11.174
13263SOL     OW41627   7.466  10.178  13.560
13263SOL    HW141628   7.421  10.201  13.641
13263SOL    HW241629   7.432  10.092  13.537
13264SOL     OW41630  10.664   6.112   1.366
13264SOL    HW141631  10.646   6.151   1.451
13264SOL    HW241632  10.691   6.022   1.386
13265SOL     OW41633   7.180  13.571   6.454
13265SOL    HW141634   7.254  13.595   6.398
13265SOL    HW241635   7.108  13.626   6.423
13266SOL     OW41636   8.153   3.962   4.485
13266SOL    HW141637   8.198   3.981   4.567
13266SOL    HW241638   8.075   4.018   4.487
13267SOL     OW41639  14.305  12.822   6.265
13267SOL    HW141640  14.229  12.807   6.210
13267SOL    HW241641  14.278  12.794   6.352
13268SOL     OW41642  12.483  13.206   1.036
13268SOL    HW141643  12.451  13.241   0.953
13268SOL    HW241644  12.548  13.141   1.012
13269SOL     OW41645   4.187  13.237   9.917
13269SOL    HW141646   4.213  13.240   9.825
13269SOL    HW241647   4.124  13.166   9.922
13270SOL     OW41648   1.355   2.068   0.445
13270SOL    HW141649   1.278   2.014   0.460
13270SOL    HW241650   1.331   2.154   0.478
13271SOL     OW41651  11.808   2.960   5.276
13271SOL    HW141652  11.870   3.012   5.326
13271SOL    HW241653  11.725   2.971   5.321
13272SOL     OW41654   7.207   1.719  11.345
13272SOL    HW141655   7.279   1.702  11.406
13272SOL    HW241656   7.244   1.699  11.259
13273SOL     OW41657  13.344  14.455   6.083
13273SOL    HW141658  13.314  14.411   6.163
13273SOL    HW241659  13.435  14.428   6.074
13274SOL     OW41660   6.817   1.377   1.986
13274SOL    HW141661   6.821   1.353   1.893
13274SOL    HW241662   6.829   1.294   2.032
13275SOL     OW41663   5.084   3.102   8.539
13275SOL    HW141664   5.106   3.061   8.455
13275SOL    HW241665   5.120   3.190   8.533
13276SOL     OW41666   5.463   4.931   4.234
13276SOL    HW141667   5.386   4.897   4.189
13276SOL    HW241668   5.446   4.915   4.327
13277SOL     OW41669   7.035   1.033   9.092
13277SOL    HW141670   7.032   0.941   9.066
13277SOL    HW241671   7.048   1.081   9.010
13278SOL     OW41672   5.634  14.297  10.908
13278SOL    HW141673   5.709  14.238  10.910
13278SOL    HW241674   5.586  14.273  10.828
13279SOL     OW41675   8.623  11.152   4.362
13279SOL    HW141676   8.585  11.206   4.431
13279SOL    HW241677   8.709  11.128   4.396
13280SOL     OW41678   2.928  13.065   3.047
13280SOL    HW141679   2.988  13.068   3.121
13280SOL    HW241680   2.869  13.140   3.061
13281SOL     OW41681   9.373  13.199   7.782
13281SOL    HW141682   9.396  13.106   7.781
13281SOL    HW241683   9.287  13.202   7.824
13282SOL     OW41684   2.478  10.214   3.106
13282SOL    HW141685   2.554  10.203   3.163
13282SOL    HW241686   2.480  10.139   3.047
13283SOL     OW41687  11.068   6.235   3.925
13283SOL    HW141688  11.014   6.266   3.998
13283SOL    HW241689  11.132   6.177   3.966
13284SOL     OW41690   8.536  14.855   5.553
13284SOL    HW141691   8.525   0.070   5.564
13284SOL    HW241692   8.450  14.824   5.528
13285SOL     OW41693   5.793   9.054  14.410
13285SOL    HW141694   5.885   9.081  14.404
13285SOL    HW241695   5.771   9.065  14.502
13286SOL     OW41696   1.585   7.167   6.456
13286SOL    HW141697   1.525   7.219   6.509
13286SOL    HW241698   1.529   7.123   6.393
13287SOL     OW41699  13.104   0.530   6.621
13287SOL    HW141700  13.165   0.556   6.690
13287SOL    HW241701  13.114   0.597   6.553
13288SOL     OW41702   3.269  10.675   7.441
13288SOL    HW141703   3.178  10.703   7.448
13288SOL    HW241704   3.317  10.731   7.502
13289SOL     OW41705   2.510   8.547   8.992
13289SOL    HW141706   2.465   8.476   8.947
13289SOL    HW241707   2.440   8.607   9.019
13290SOL     OW41708   8.394  10.331   4.849
13290SOL    HW141709   8.398  10.292   4.762
13290SOL    HW241710   8.341  10.410   4.836
13291SOL     OW41711  12.063  13.851  12.669
13291SOL    HW141712  11.978  13.852  12.712
13291SOL    HW241713  12.105  13.771  12.702
13292SOL     OW41714   5.453  12.140   2.749
13292SOL    HW141715   5.526  12.084   2.720
13292SOL    HW241716   5.495  12.207   2.803
13293SOL     OW41717   2.971  10.538  11.655
13293SOL    HW141718   2.934  10.619  11.621
13293SOL    HW241719   3.014  10.497  11.580
13294SOL     OW41720   4.519   8.588  10.668
13294SOL    HW141721   4.568   8.516  10.628
13294SOL    HW241722   4.507   8.561  10.759
13295SOL     OW41723  14.767  12.167   4.090
13295SOL    HW141724  14.710  12.118   4.149
13295SOL    HW241725  14.852  12.124   4.098
13296SOL     OW41726   2.182   7.117  14.084
13296SOL    HW141727   2.124   7.072  14.145
13296SOL    HW241728   2.141   7.202  14.071
13297SOL     OW41729   9.431   9.243   7.246
13297SOL    HW141730   9.374   9.223   7.320
13297SOL    HW241731   9.391   9.319   7.204
13298SOL     OW41732   3.706   9.599   6.454
13298SOL    HW141733   3.733   9.559   6.372
13298SOL    HW241734   3.708   9.694   6.436
13299SOL     OW41735  12.386   2.225   6.939
13299SOL    HW141736  12.323   2.288   6.905
13299SOL    HW241737  12.470   2.270   6.935
13300SOL     OW41738   6.527   3.693  11.884
13300SOL    HW141739   6.502   3.776  11.925
13300SOL    HW241740   6.533   3.713  11.791
13301SOL     OW41741   0.501   2.453   5.589
13301SOL    HW141742   0.512   2.536   5.635
13301SOL    HW241743   0.439   2.404   5.642
13302SOL     OW41744   1.511   6.631   3.953
13302SOL    HW141745   1.524   6.538   3.936
13302SOL    HW241746   1.459   6.662   3.879
13303SOL     OW41747   0.008   1.482   9.550
13303SOL    HW141748   0.070   1.552   9.570
13303SOL    HW241749   0.001   1.483   9.454
13304SOL     OW41750  10.258   8.065  13.659
13304SOL    HW141751  10.315   8.139  13.640
13304SOL    HW241752  10.302   7.990  13.620
13305SOL     OW41753   7.153   0.767   8.769
13305SOL    HW141754   7.089   0.743   8.702
13305SOL    HW241755   7.104   0.768   8.850
13306SOL     OW41756  10.424   9.599   0.777
13306SOL    HW141757  10.472   9.556   0.706
13306SOL    HW241758  10.464   9.566   0.857
13307SOL     OW41759   3.051   7.548  12.772
13307SOL    HW141760   3.111   7.595  12.830
13307SOL    HW241761   3.092   7.555  12.685
13308SOL     OW41762  13.614   7.045  11.353
13308SOL    HW141763  13.690   7.102  11.339
13308SOL    HW241764  13.616   6.984  11.279
13309SOL     OW41765  10.955   8.589   7.804
13309SOL    HW141766  10.869   8.567   7.838
13309SOL    HW241767  10.938   8.623   7.716
13310SOL     OW41768   1.824   1.887   5.218
13310SOL    HW141769   1.866   1.878   5.304
13310SOL    HW241770   1.781   1.973   5.221
13311SOL     OW41771   3.277   0.196  12.476
13311SOL    HW141772   3.276   0.179  12.570
13311SOL    HW241773   3.187   0.223  12.455
13312SOL     OW41774  14.514   9.207   2.107
13312SOL    HW141775  14.421   9.203   2.130
13312SOL    HW241776  14.543   9.293   2.137
13313SOL     OW41777   8.875  13.904   3.977
13313SOL    HW141778   8.807  13.904   4.045
13313SOL    HW241779   8.956  13.925   4.025
13314SOL     OW41780   5.823   9.393   5.559
13314SOL    HW141781   5.880   9.324   5.595
13314SOL    HW241782   5.758   9.409   5.628
13315SOL     OW41783   3.056   1.299   8.000
13315SOL    HW141784   3.004   1.378   8.010
13315SOL    HW241785   3.094   1.307   7.912
13316SOL     OW41786   8.649   9.967   0.208
13316SOL    HW141787   8.626  10.054   0.173
13316SOL    HW241788   8.648   9.910   0.131
13317SOL     OW41789   5.284  14.121   5.649
13317SOL    HW141790   5.213  14.159   5.701
13317SOL    HW241791   5.327  14.196   5.609
13318SOL     OW41792  10.086   9.129   8.133
13318SOL    HW141793  10.055   9.048   8.175
13318SOL    HW241794  10.166   9.104   8.089
13319SOL     OW41795  11.894   5.241   9.545
13319SOL    HW141796  11.946   5.288   9.611
13319SOL    HW241797  11.825   5.303   9.521
13320SOL     OW41798   2.417   7.661  14.614
13320SOL    HW141799   2.409   7.724  14.686
13320SOL    HW241800   2.361   7.589  14.639
13321SOL     OW41801   8.568   6.938  14.679
13321SOL    HW141802   8.607   6.890  14.605
13321SOL    HW241803   8.484   6.970  14.644
13322SOL     OW41804   4.575   4.965   0.345
13322SOL    HW141805   4.546   4.930   0.430
13322SOL    HW241806   4.537   4.905   0.281
13323SOL     OW41807   7.340   3.944   5.517
13323SOL    HW141808   7.346   3.957   5.423
13323SOL    HW241809   7.407   4.003   5.554
13324SOL     OW41810   3.887   4.503   0.978
13324SOL    HW141811   3.935   4.556   1.042
13324SOL    HW241812   3.911   4.413   1.000
13325SOL     OW41813   1.549   2.528   0.498
13325SOL    HW141814   1.632   2.539   0.451
13325SOL    HW241815   1.554   2.439   0.534
13326SOL     OW41816  10.218   1.260  10.664
13326SOL    HW141817  10.291   1.322  10.659
13326SOL    HW241818  10.140   1.316  10.669
13327SOL     OW41819   5.168   3.735   5.516
13327SOL    HW141820   5.219   3.798   5.464
13327SOL    HW241821   5.124   3.680   5.452
13328SOL     OW41822   5.760   8.901  11.232
13328SOL    HW141823   5.778   8.904  11.138
13328SOL    HW241824   5.717   8.984  11.251
13329SOL     OW41825   7.677   4.502   2.649
13329SOL    HW141826   7.691   4.593   2.675
13329SOL    HW241827   7.669   4.454   2.731
13330SOL     OW41828   6.303   9.396  11.511
13330SOL    HW141829   6.338   9.326  11.456
13330SOL    HW241830   6.380   9.444  11.541
13331SOL     OW41831   6.431   2.109   5.906
13331SOL    HW141832   6.412   2.160   5.985
13331SOL    HW241833   6.441   2.174   5.837
13332SOL     OW41834   5.060  12.361   5.996
13332SOL    HW141835   5.021  12.277   6.023
13332SOL    HW241836   5.014  12.383   5.915
13333SOL     OW41837   3.067  14.219   1.266
13333SOL    HW141838   3.041  14.128   1.282
13333SOL    HW241839   3.107  14.247   1.348
13334SOL     OW41840   6.758   0.893   8.673
13334SOL    HW141841   6.768   0.971   8.728
13334SOL    HW241842   6.712   0.924   8.596
13335SOL     OW41843  12.776   2.251   1.328
13335SOL    HW141844  12.859   2.222   1.365
13335SOL    HW241845  12.788   2.244   1.233
13336SOL     OW41846  10.034   8.853   8.797
13336SOL    HW141847  10.126   8.879   8.788
13336SOL    HW241848  10.014   8.870   8.890
13337SOL     OW41849   9.766   3.671   0.653
13337SOL    HW141850   9.820   3.713   0.720
13337SOL    HW241851   9.680   3.712   0.663
13338SOL     OW41852   2.527   1.882   3.094
13338SOL    HW141853   2.600   1.838   3.051
13338SOL    HW241854   2.459   1.815   3.099
13339SOL     OW41855  12.158   1.648  14.624
13339SOL    HW141856  12.099   1.580  14.655
13339SOL    HW241857  12.108   1.729  14.634
13340SOL     OW41858   6.152  14.204  12.405
13340SOL    HW141859   6.068  14.240  12.377
13340SOL    HW241860   6.198  14.278  12.445
13341SOL     OW41861  14.683   4.126  12.503
13341SOL    HW141862  14.772   4.098  12.521
13341SOL    HW241863  14.690   4.220  12.486
13342SOL     OW41864   4.257   8.118   0.285
13342SOL    HW141865   4.273   8.113   0.379
13342SOL    HW241866   4.162   8.112   0.276
13343SOL     OW41867  13.502   7.987   9.119
13343SOL    HW141868  13.435   7.973   9.052
13343SOL    HW241869  13.490   8.079   9.145
13344SOL     OW41870   9.074   1.280  11.532
13344SOL    HW141871   9.137   1.235  11.588
13344SOL    HW241872   8.998   1.221  11.530
13345SOL     OW41873   8.611  11.075   0.769
13345SOL    HW141874   8.696  11.054   0.730
13345SOL    HW241875   8.599  11.008   0.836
13346SOL     OW41876   0.548   2.907   8.963
13346SOL    HW141877   0.470   2.917   8.909
13346SOL    HW241878   0.574   2.816   8.953
13347SOL     OW41879   5.016   6.595  10.146
13347SOL    HW141880   5.047   6.611  10.057
13347SOL    HW241881   4.981   6.679  10.175
13348SOL     OW41882  12.724   7.342   2.753
13348SOL    HW141883  12.663   7.385   2.812
13348SOL    HW241884  12.784   7.412   2.726
13349SOL     OW41885   5.553  13.457   3.682
13349SOL    HW141886   5.597  13.383   3.642
13349SOL    HW241887   5.486  13.483   3.619
13350SOL     OW41888   0.072   0.541  10.819
13350SOL    HW141889  14.869   0.573  10.783
13350SOL    HW241890   0.139   0.598  10.781
13351SOL     OW41891   4.455  12.193   3.994
13351SOL    HW141892   4.422  12.129   3.932
13351SOL    HW241893   4.474  12.271   3.942
13352SOL     OW41894   4.690   5.884  11.533
13352SOL    HW141895   4.629   5.811  11.547
13352SOL    HW241896   4.645   5.960  11.571
13353SOL     OW41897   5.079  11.039   1.875
13353SOL    HW141898   5.111  10.949   1.883
13353SOL    HW241899   4.993  11.031   1.834
13354SOL     OW41900  11.815   4.399   7.403
13354SOL    HW141901  11.900   4.358   7.418
13354SOL    HW241902  11.823   4.439   7.317
13355SOL     OW41903   4.742   8.170  10.756
13355SOL    HW141904   4.777   8.246  10.803
13355SOL    HW241905   4.807   8.101  10.771
13356SOL     OW41906   8.277  14.849   9.780
13356SOL    HW141907   8.299  14.791   9.707
13356SOL    HW241908   8.218   0.035   9.742
13357SOL     OW41909   3.014  12.230   2.052
13357SOL    HW141910   3.034  12.306   1.997
13357SOL    HW241911   2.921  12.238   2.073
13358SOL     OW41912   9.929   0.046   5.563
13358SOL    HW141913   9.973   0.027   5.646
13358SOL    HW241914   9.835   0.039   5.583
13359SOL     OW41915   9.180   3.640   1.567
13359SOL    HW141916   9.099   3.603   1.531
13359SOL    HW241917   9.162   3.733   1.576
13360SOL     OW41918   4.220   3.112  12.308
13360SOL    HW141919   4.134   3.074  12.323
13360SOL    HW241920   4.269   3.097  12.389
13361SOL     OW41921  13.619  14.558   8.537
13361SOL    HW141922  13.601  14.529   8.626
13361SOL    HW241923  13.698  14.509   8.511
13362SOL     OW41924  11.374   1.215  12.994
13362SOL    HW141925  11.353   1.291  13.049
13362SOL    HW241926  11.300   1.208  12.934
13363SOL     OW41927   0.874  10.320   9.743
13363SOL    HW141928   0.926  10.384   9.693
13363SOL    HW241929   0.786  10.326   9.705
13364SOL     OW41930   8.289   9.922   8.146
13364SOL    HW141931   8.216   9.859   8.151
13364SOL    HW241932   8.363   9.876   8.186
13365SOL     OW41933   2.573   9.704   5.761
13365SOL    HW141934   2.572   9.707   5.665
13365SOL    HW241935   2.650   9.755   5.786
13366SOL     OW41936   9.365   3.667   8.957
13366SOL    HW141937   9.290   3.726   8.944
13366SOL    HW241938   9.361   3.643   9.049
13367SOL     OW41939  12.802   9.997   0.391
13367SOL    HW141940  12.869   9.949   0.439
13367SOL    HW241941  12.774   9.936   0.323
13368SOL     OW41942   4.909   4.514   8.179
13368SOL    HW141943   4.954   4.591   8.213
13368SOL    HW241944   4.932   4.512   8.086
13369SOL     OW41945   0.008  12.148  12.895
13369SOL    HW141946  14.845  12.220  12.849
13369SOL    HW241947   0.054  12.100  12.826
13370SOL     OW41948  12.546   0.630   8.410
13370SOL    HW141949  12.470   0.574   8.428
13370SOL    HW241950  12.610   0.605   8.476
13371SOL     OW41951   4.507  13.468   9.121
13371SOL    HW141952   4.579  13.521   9.153
13371SOL    HW241953   4.545  13.415   9.051
13372SOL     OW41954   1.966   7.091   1.517
13372SOL    HW141955   1.986   7.124   1.429
13372SOL    HW241956   1.912   7.160   1.556
13373SOL     OW41957   5.861   5.325  11.221
13373SOL    HW141958   5.776   5.331  11.264
13373SOL    HW241959   5.850   5.257  11.154
13374SOL     OW41960   3.831   6.810   8.086
13374SOL    HW141961   3.773   6.840   8.156
13374SOL    HW241962   3.774   6.794   8.011
13375SOL     OW41963   6.381   7.177   7.021
13375SOL    HW141964   6.294   7.200   6.986
13375SOL    HW241965   6.369   7.089   7.058
13376SOL     OW41966   4.098   6.458  11.094
13376SOL    HW141967   4.106   6.552  11.112
13376SOL    HW241968   4.085   6.418  11.180
13377SOL     OW41969   2.651  10.509  11.914
13377SOL    HW141970   2.593  10.467  11.978
13377SOL    HW241971   2.735  10.464  11.924
13378SOL     OW41972  14.288  11.569   8.252
13378SOL    HW141973  14.224  11.614   8.308
13378SOL    HW241974  14.235  11.523   8.187
13379SOL     OW41975   5.071   2.945  14.224
13379SOL    HW141976   5.035   2.943  14.313
13379SOL    HW241977   5.027   3.018  14.182
13380SOL     OW41978   6.388  12.247  12.052
13380SOL    HW141979   6.409  12.228  11.961
13380SOL    HW241980   6.374  12.342  12.054
13381SOL     OW41981   2.818   6.553  12.157
13381SOL    HW141982   2.818   6.630  12.099
13381SOL    HW241983   2.779   6.584  12.238
13382SOL     OW41984  13.149  14.667   9.310
13382SOL    HW141985  13.213  14.608   9.349
13382SOL    HW241986  13.137  14.633   9.221
13383SOL     OW41987   9.806   4.064   6.821
13383SOL    HW141988   9.886   4.098   6.861
13383SOL    HW241989   9.833   3.983   6.779
13384SOL     OW41990   7.493  13.209  10.049
13384SOL    HW141991   7.402  13.238  10.046
13384SOL    HW241992   7.528  13.250  10.129
13385SOL     OW41993   3.089   4.337  10.222
13385SOL    HW141994   3.073   4.266  10.159
13385SOL    HW241995   3.057   4.416  10.178
13386SOL     OW41996   8.059   9.970   9.979
13386SOL    HW141997   8.072   9.916   9.902
13386SOL    HW241998   8.099  10.054   9.956
13387SOL     OW41999   4.787  13.728   4.527
13387SOL    HW142000   4.784  13.778   4.446
13387SOL    HW242001   4.698  13.694   4.537
13388SOL     OW42002  11.808  12.283   0.408
13388SOL    HW142003  11.895  12.288   0.370
13388SOL    HW242004  11.804  12.195   0.448
13389SOL     OW42005   6.305  13.994   9.848
13389SOL    HW142006   6.373  14.061   9.855
13389SOL    HW242007   6.351  13.917   9.816
13390SOL     OW42008   0.168   9.151   6.828
13390SOL    HW142009   0.187   9.073   6.776
13390SOL    HW242010   0.100   9.123   6.889
13391SOL     OW42011  13.892  11.854   1.840
13391SOL    HW142012  13.936  11.932   1.805
13391SOL    HW242013  13.836  11.825   1.768
13392SOL     OW42014  14.319  14.250   7.123
13392SOL    HW142015  14.284  14.281   7.040
13392SOL    HW242016  14.412  14.234   7.105
13393SOL     OW42017   8.919   5.966   1.554
13393SOL    HW142018   8.880   5.879   1.543
13393SOL    HW242019   8.917   6.004   1.466
13394SOL     OW42020  14.331   5.210   8.607
13394SOL    HW142021  14.286   5.291   8.580
13394SOL    HW242022  14.408   5.205   8.551
13395SOL     OW42023   8.373  11.745   6.215
13395SOL    HW142024   8.416  11.792   6.287
13395SOL    HW242025   8.299  11.701   6.257
13396SOL     OW42026  12.784   0.120  11.919
13396SOL    HW142027  12.817   0.180  11.985
13396SOL    HW242028  12.705   0.163  11.884
13397SOL     OW42029   2.244   1.643   3.398
13397SOL    HW142030   2.276   1.706   3.462
13397SOL    HW242031   2.149   1.645   3.407
13398SOL     OW42032   7.902  11.412  12.811
13398SOL    HW142033   7.916  11.332  12.760
13398SOL    HW242034   7.814  11.441  12.786
13399SOL     OW42035  14.513   8.890   0.895
13399SOL    HW142036  14.567   8.826   0.849
13399SOL    HW242037  14.467   8.936   0.825
13400SOL     OW42038   7.811  10.485   2.941
13400SOL    HW142039   7.851  10.545   3.003
13400SOL    HW242040   7.797  10.404   2.991
13401SOL     OW42041  11.097   8.617  12.140
13401SOL    HW142042  11.008   8.582  12.132
13401SOL    HW242043  11.150   8.562  12.084
13402SOL     OW42044  10.236   1.100  14.124
13402SOL    HW142045  10.252   1.191  14.099
13402SOL    HW242046  10.145   1.100  14.155
13403SOL     OW42047   8.959   2.335  10.148
13403SOL    HW142048   8.878   2.290  10.122
13403SOL    HW242049   8.938   2.428  10.139
13404SOL     OW42050  11.887   8.279   7.806
13404SOL    HW142051  11.855   8.360   7.845
13404SOL    HW242052  11.808   8.228   7.788
13405SOL     OW42053  12.754   6.654   7.912
13405SOL    HW142054  12.827   6.653   7.975
13405SOL    HW242055  12.728   6.746   7.907
13406SOL     OW42056  11.036   3.087   4.047
13406SOL    HW142057  11.077   3.040   3.975
13406SOL    HW242058  11.062   3.039   4.126
13407SOL     OW42059   1.128   0.371  11.306
13407SOL    HW142060   1.201   0.402  11.252
13407SOL    HW242061   1.064   0.338  11.243
13408SOL     OW42062  13.090   2.330   6.099
13408SOL    HW142063  13.081   2.235   6.089
13408SOL    HW242064  13.046   2.349   6.181
13409SOL     OW42065  10.338   3.350  10.691
13409SOL    HW142066  10.403   3.379  10.627
13409SOL    HW242067  10.383   3.358  10.775
13410SOL     OW42068   0.912   9.377   3.004
13410SOL    HW142069   0.884   9.444   3.066
13410SOL    HW242070   0.834   9.355   2.954
13411SOL     OW42071   2.948  13.616   8.397
13411SOL    HW142072   3.010  13.598   8.468
13411SOL    HW242073   3.004  13.631   8.320
13412SOL     OW42074   5.605  11.686   3.270
13412SOL    HW142075   5.631  11.616   3.329
13412SOL    HW242076   5.688  11.727   3.244
13413SOL     OW42077   6.307   3.404   0.790
13413SOL    HW142078   6.347   3.381   0.706
13413SOL    HW242079   6.213   3.397   0.775
13414SOL     OW42080   9.736  12.736   7.118
13414SOL    HW142081   9.721  12.669   7.185
13414SOL    HW242082   9.806  12.791   7.154
13415SOL     OW42083   4.921  13.224   5.479
13415SOL    HW142084   4.893  13.201   5.567
13415SOL    HW242085   4.999  13.277   5.491
13416SOL     OW42086  14.741   7.503   4.584
13416SOL    HW142087  14.753   7.543   4.670
13416SOL    HW242088  14.762   7.410   4.597
13417SOL     OW42089   3.416  13.577   5.116
13417SOL    HW142090   3.479  13.506   5.129
13417SOL    HW242091   3.469  13.651   5.086
13418SOL     OW42092   1.477   3.819   4.309
13418SOL    HW142093   1.458   3.787   4.398
13418SOL    HW242094   1.422   3.766   4.253
13419SOL     OW42095   6.992  11.575   6.014
13419SOL    HW142096   6.911  11.534   5.984
13419SOL    HW242097   6.976  11.594   6.106
13420SOL     OW42098  12.406  13.846   1.912
13420SOL    HW142099  12.368  13.774   1.962
13420SOL    HW242100  12.379  13.925   1.959
13421SOL     OW42101   5.307  14.615   4.857
13421SOL    HW142102   5.402  14.611   4.845
13421SOL    HW242103   5.278  14.524   4.853
13422SOL     OW42104   4.333  14.089   7.014
13422SOL    HW142105   4.356  14.086   6.922
13422SOL    HW242106   4.238  14.095   7.015
13423SOL     OW42107   7.056   0.676  14.045
13423SOL    HW142108   7.150   0.692  14.043
13423SOL    HW242109   7.017   0.764  14.040
13424SOL     OW42110   6.986   6.259   5.321
13424SOL    HW142111   7.052   6.203   5.281
13424SOL    HW242112   6.948   6.307   5.247
13425SOL     OW42113   3.616   2.835   7.724
13425SOL    HW142114   3.554   2.868   7.788
13425SOL    HW242115   3.602   2.740   7.724
13426SOL     OW42116  11.028   7.624  10.872
13426SOL    HW142117  11.069   7.541  10.897
13426SOL    HW242118  11.099   7.676  10.835
13427SOL     OW42119  10.699   9.277   7.004
13427SOL    HW142120  10.645   9.227   7.065
13427SOL    HW242121  10.669   9.249   6.917
13428SOL     OW42122   9.666   2.246   6.579
13428SOL    HW142123   9.749   2.261   6.625
13428SOL    HW242124   9.607   2.312   6.615
13429SOL     OW42125   0.874   8.641   0.065
13429SOL    HW142126   0.861   8.607   0.153
13429SOL    HW242127   0.914   8.727   0.078
13430SOL     OW42128   4.564  11.875  11.599
13430SOL    HW142129   4.648  11.857  11.557
13430SOL    HW242130   4.567  11.968  11.621
13431SOL     OW42131   6.785   5.238   2.929
13431SOL    HW142132   6.864   5.278   2.891
13431SOL    HW242133   6.767   5.290   3.007
13432SOL     OW42134   3.341   5.603  11.943
13432SOL    HW142135   3.313   5.574  12.030
13432SOL    HW242136   3.318   5.696  11.941
13433SOL     OW42137   9.792  10.674   4.169
13433SOL    HW142138   9.764  10.590   4.132
13433SOL    HW242139   9.851  10.650   4.241
13434SOL     OW42140   8.553   4.962   7.922
13434SOL    HW142141   8.466   4.967   7.961
13434SOL    HW242142   8.537   4.936   7.831
13435SOL     OW42143   8.608  12.130   8.699
13435SOL    HW142144   8.608  12.143   8.794
13435SOL    HW242145   8.607  12.035   8.687
13436SOL     OW42146   7.613   0.420  13.455
13436SOL    HW142147   7.527   0.379  13.447
13436SOL    HW242148   7.672   0.362  13.406
13437SOL     OW42149   0.507   8.536   7.622
13437SOL    HW142150   0.462   8.452   7.618
13437SOL    HW242151   0.600   8.513   7.625
13438SOL     OW42152  14.845   7.341   6.418
13438SOL    HW142153   0.033   7.408   6.431
13438SOL    HW242154  14.784   7.381   6.356
13439SOL     OW42155   8.160   8.881  12.509
13439SOL    HW142156   8.203   8.944  12.452
13439SOL    HW242157   8.232   8.840  12.558
13440SOL     OW42158   8.582  14.092  12.020
13440SOL    HW142159   8.504  14.112  12.071
13440SOL    HW242160   8.652  14.081  12.085
13441SOL     OW42161  10.235   4.738   2.450
13441SOL    HW142162  10.329   4.752   2.443
13441SOL    HW242163  10.202   4.815   2.496
13442SOL     OW42164   0.301   0.262   4.074
13442SOL    HW142165   0.316   0.177   4.033
13442SOL    HW242166   0.386   0.306   4.072
13443SOL     OW42167   3.843   7.355   5.429
13443SOL    HW142168   3.902   7.316   5.493
13443SOL    HW242169   3.761   7.368   5.476
13444SOL     OW42170  11.024  14.236  14.794
13444SOL    HW142171  11.006  14.157  14.845
13444SOL    HW242172  11.102  14.215  14.744
13445SOL     OW42173   2.290  12.599  11.032
13445SOL    HW142174   2.204  12.639  11.049
13445SOL    HW242175   2.347  12.673  11.012
13446SOL     OW42176  14.441   2.168   9.441
13446SOL    HW142177  14.353   2.195   9.467
13446SOL    HW242178  14.475   2.122   9.518
13447SOL     OW42179  10.024   4.108   8.118
13447SOL    HW142180  10.027   4.140   8.028
13447SOL    HW242181  10.037   4.014   8.110
13448SOL     OW42182   2.575   8.214  10.205
13448SOL    HW142183   2.599   8.179  10.119
13448SOL    HW242184   2.562   8.308  10.190
13449SOL     OW42185   3.002  13.808  12.472
13449SOL    HW142186   2.916  13.800  12.431
13449SOL    HW242187   3.036  13.718  12.472
13450SOL     OW42188   7.497   1.942   0.829
13450SOL    HW142189   7.459   2.030   0.830
13450SOL    HW242190   7.446   1.894   0.895
13451SOL     OW42191  10.772   1.222   1.007
13451SOL    HW142192  10.727   1.214   1.092
13451SOL    HW242193  10.765   1.135   0.969
13452SOL     OW42194   5.504  13.069   1.656
13452SOL    HW142195   5.482  12.990   1.705
13452SOL    HW242196   5.532  13.037   1.570
13453SOL     OW42197   9.878  13.898  13.168
13453SOL    HW142198   9.882  13.959  13.094
13453SOL    HW242199   9.960  13.849  13.163
13454SOL     OW42200  12.719  11.389   5.785
13454SOL    HW142201  12.768  11.466   5.812
13454SOL    HW242202  12.765  11.358   5.707
13455SOL     OW42203  14.876  14.779  12.095
13455SOL    HW142204   0.003  14.871  12.068
13455SOL    HW242205   0.084  14.744  12.081
13456SOL     OW42206   0.925   1.440   9.288
13456SOL    HW142207   0.926   1.344   9.278
13456SOL    HW242208   0.844   1.468   9.246
13457SOL     OW42209  13.105   9.419   8.356
13457SOL    HW142210  13.015   9.422   8.389
13457SOL    HW242211  13.115   9.501   8.307
13458SOL     OW42212  14.646   1.587   1.141
13458SOL    HW142213  14.567   1.631   1.171
13458SOL    HW242214  14.688   1.650   1.083
13459SOL     OW42215   0.102   7.355   6.108
13459SOL    HW142216   0.129   7.405   6.185
13459SOL    HW242217   0.013   7.326   6.129
13460SOL     OW42218  10.049   2.602   1.115
13460SOL    HW142219   9.960   2.596   1.147
13460SOL    HW242220  10.104   2.602   1.193
13461SOL     OW42221   3.011   4.752  10.253
13461SOL    HW142222   3.068   4.781  10.181
13461SOL    HW242223   2.944   4.699  10.211
13462SOL     OW42224   1.435   5.242   4.932
13462SOL    HW142225   1.348   5.247   4.892
13462SOL    HW242226   1.459   5.150   4.927
13463SOL     OW42227   5.317  10.552   1.120
13463SOL    HW142228   5.333  10.506   1.037
13463SOL    HW242229   5.307  10.644   1.094
13464SOL     OW42230   6.324   9.002   7.347
13464SOL    HW142231   6.325   9.056   7.268
13464SOL    HW242232   6.275   9.054   7.411
13465SOL     OW42233  14.079  12.201   2.022
13465SOL    HW142234  13.986  12.200   2.045
13465SOL    HW242235  14.102  12.108   2.011
13466SOL     OW42236   9.895   8.173   1.465
13466SOL    HW142237   9.904   8.149   1.373
13466SOL    HW242238   9.807   8.146   1.489
13467SOL     OW42239   7.941   1.624  10.639
13467SOL    HW142240   7.990   1.679  10.578
13467SOL    HW242241   7.950   1.668  10.723
13468SOL     OW42242   5.578   6.078   0.181
13468SOL    HW142243   5.582   6.000   0.236
13468SOL    HW242244   5.629   6.057   0.103
13469SOL     OW42245  12.264   4.643   8.597
13469SOL    HW142246  12.251   4.554   8.631
13469SOL    HW242247  12.178   4.669   8.565
13470SOL     OW42248   2.741   3.793   1.086
13470SOL    HW142249   2.652   3.828   1.082
13470SOL    HW242250   2.730   3.699   1.096
13471SOL     OW42251   9.150   1.246  14.218
13471SOL    HW142252   9.164   1.204  14.133
13471SOL    HW242253   9.127   1.174  14.277
13472SOL     OW42254   2.388   7.163   7.076
13472SOL    HW142255   2.432   7.207   7.149
13472SOL    HW242256   2.456   7.110   7.035
13473SOL     OW42257   5.126   9.079   8.832
13473SOL    HW142258   5.117   9.173   8.844
13473SOL    HW242259   5.070   9.059   8.757
13474SOL     OW42260   6.072   6.211  14.529
13474SOL    HW142261   6.149   6.267  14.527
13474SOL    HW242262   6.105   6.123  14.511
13475SOL     OW42263  10.863  11.891  14.361
13475SOL    HW142264  10.949  11.851  14.357
13475SOL    HW242265  10.873  11.975  14.315
13476SOL     OW42266   5.634  10.747  14.102
13476SOL    HW142267   5.705  10.687  14.127
13476SOL    HW242268   5.592  10.703  14.028
13477SOL     OW42269  11.099   7.234   6.667
13477SOL    HW142270  11.078   7.141   6.679
13477SOL    HW242271  11.074   7.252   6.577
13478SOL     OW42272   7.679   0.602   8.726
13478SOL    HW142273   7.703   0.637   8.640
13478SOL    HW242274   7.590   0.632   8.741
13479SOL     OW42275  11.585   8.672  10.654
13479SOL    HW142276  11.537   8.725  10.718
13479SOL    HW242277  11.599   8.731  10.580
13480SOL     OW42278   7.424   9.629  11.588
13480SOL    HW142279   7.492   9.689  11.618
13480SOL    HW242280   7.380   9.599  11.667
13481SOL     OW42281  11.651   6.141   9.530
13481SOL    HW142282  11.636   6.057   9.575
13481SOL    HW242283  11.619   6.207   9.591
13482SOL     OW42284   3.084   8.264  13.122
13482SOL    HW142285   3.045   8.352  13.123
13482SOL    HW242286   3.085   8.238  13.030
13483SOL     OW42287  12.675  14.623   5.468
13483SOL    HW142288  12.737  14.677   5.518
13483SOL    HW242289  12.709  14.624   5.379
13484SOL     OW42290   6.846   0.823   5.504
13484SOL    HW142291   6.922   0.881   5.515
13484SOL    HW242292   6.884   0.738   5.482
13485SOL     OW42293   6.575   9.794   5.375
13485SOL    HW142294   6.613   9.832   5.454
13485SOL    HW242295   6.635   9.723   5.351
13486SOL     OW42296  11.667   2.570   6.458
13486SOL    HW142297  11.585   2.525   6.439
13486SOL    HW242298  11.654   2.659   6.426
13487SOL     OW42299   0.228   2.921   9.394
13487SOL    HW142300   0.207   2.848   9.452
13487SOL    HW242301   0.313   2.898   9.355
13488SOL     OW42302   6.242   1.487  12.786
13488SOL    HW142303   6.273   1.411  12.736
13488SOL    HW242304   6.147   1.475  12.791
13489SOL     OW42305   4.496   0.876  13.648
13489SOL    HW142306   4.501   0.804  13.586
13489SOL    HW242307   4.448   0.840  13.724
13490SOL     OW42308  13.242   7.447   7.023
13490SOL    HW142309  13.329   7.485   7.028
13490SOL    HW242310  13.197   7.478   7.102
13491SOL     OW42311   0.783   2.928  10.120
13491SOL    HW142312   0.804   2.849  10.170
13491SOL    HW242313   0.690   2.943  10.137
13492SOL     OW42314   8.906   5.296  12.992
13492SOL    HW142315   8.928   5.366  13.054
13492SOL    HW242316   8.824   5.325  12.951
13493SOL     OW42317   1.967  12.812  12.493
13493SOL    HW142318   1.982  12.727  12.451
13493SOL    HW242319   2.004  12.802  12.581
13494SOL     OW42320   4.898  12.388   7.249
13494SOL    HW142321   4.971  12.329   7.266
13494SOL    HW242322   4.923  12.436   7.171
13495SOL     OW42323  14.639   9.501  13.645
13495SOL    HW142324  14.552   9.497  13.684
13495SOL    HW242325  14.699   9.474  13.715
13496SOL     OW42326  11.525   0.891  12.390
13496SOL    HW142327  11.519   0.954  12.318
13496SOL    HW242328  11.594   0.926  12.446
13497SOL     OW42329   7.683   2.347  14.004
13497SOL    HW142330   7.716   2.343  13.915
13497SOL    HW242331   7.740   2.288  14.054
13498SOL     OW42332   2.372  11.657  12.405
13498SOL    HW142333   2.432  11.657  12.480
13498SOL    HW242334   2.430  11.657  12.329
13499SOL     OW42335   1.120  11.132  12.999
13499SOL    HW142336   1.166  11.098  13.076
13499SOL    HW242337   1.145  11.224  12.995
13500SOL     OW42338  13.525  13.340  12.358
13500SOL    HW142339  13.524  13.370  12.268
13500SOL    HW242340  13.438  13.361  12.391
13501SOL     OW42341   7.825  13.071   6.402
13501SOL    HW142342   7.800  12.980   6.419
13501SOL    HW242343   7.819  13.081   6.307
13502SOL     OW42344   9.769   0.459   7.060
13502SOL    HW142345   9.724   0.527   7.010
13502SOL    HW242346   9.860   0.464   7.031
13503SOL     OW42347   7.924   5.409   7.560
13503SOL    HW142348   7.830   5.428   7.558
13503SOL    HW242349   7.944   5.396   7.652
13504SOL     OW42350  10.803  14.771   3.487
13504SOL    HW142351  10.854  14.706   3.438
13504SOL    HW242352  10.744  14.719   3.541
13505SOL     OW42353   4.836   6.593   0.593
13505SOL    HW142354   4.844   6.553   0.680
13505SOL    HW242355   4.925   6.590   0.557
13506SOL     OW42356  11.273   1.775   3.627
13506SOL    HW142357  11.257   1.817   3.712
13506SOL    HW242358  11.233   1.835   3.563
13507SOL     OW42359   1.603  11.732   7.771
13507SOL    HW142360   1.608  11.826   7.753
13507SOL    HW242361   1.539  11.698   7.709
13508SOL     OW42362   2.105  13.201   5.129
13508SOL    HW142363   2.089  13.164   5.216
13508SOL    HW242364   2.111  13.296   5.145
13509SOL     OW42365   0.114   6.020  14.154
13509SOL    HW142366   0.072   6.099  14.187
13509SOL    HW242367   0.180   6.052  14.092
13510SOL     OW42368   8.885   7.602   3.456
13510SOL    HW142369   8.840   7.668   3.405
13510SOL    HW242370   8.833   7.594   3.536
13511SOL     OW42371   4.264   8.487   8.213
13511SOL    HW142372   4.249   8.401   8.251
13511SOL    HW242373   4.358   8.491   8.198
13512SOL     OW42374   7.371   2.129  11.993
13512SOL    HW142375   7.447   2.074  12.014
13512SOL    HW242376   7.408   2.205  11.948
13513SOL     OW42377  13.662  11.550  14.368
13513SOL    HW142378  13.749  11.581  14.346
13513SOL    HW242379  13.636  11.496  14.294
13514SOL     OW42380  11.967  12.938  12.093
13514SOL    HW142381  11.938  12.910  12.006
13514SOL    HW242382  12.059  12.962  12.080
13515SOL     OW42383   3.591   2.233   9.796
13515SOL    HW142384   3.593   2.139   9.814
13515SOL    HW242385   3.683   2.260   9.796
13516SOL     OW42386   7.975   5.889   1.628
13516SOL    HW142387   8.048   5.871   1.687
13516SOL    HW242388   7.967   5.984   1.629
13517SOL     OW42389  13.071   4.238   0.726
13517SOL    HW142390  13.013   4.229   0.801
13517SOL    HW242391  13.145   4.180   0.745
13518SOL     OW42392   1.195   0.248  14.728
13518SOL    HW142393   1.121   0.189  14.745
13518SOL    HW242394   1.201   0.302  14.807
13519SOL     OW42395  14.607   0.646  13.995
13519SOL    HW142396  14.649   0.700  13.928
13519SOL    HW242397  14.667   0.648  14.070
13520SOL     OW42398   5.305   7.346   3.887
13520SOL    HW142399   5.210   7.346   3.874
13520SOL    HW242400   5.320   7.416   3.951
13521SOL     OW42401  10.574   9.364   2.828
13521SOL    HW142402  10.531   9.387   2.745
13521SOL    HW242403  10.644   9.428   2.837
13522SOL     OW42404   6.484   2.274  14.025
13522SOL    HW142405   6.503   2.268  14.119
13522SOL    HW242406   6.450   2.362  14.013
13523SOL     OW42407   7.790   9.459   1.934
13523SOL    HW142408   7.840   9.424   1.860
13523SOL    HW242409   7.766   9.548   1.907
13524SOL     OW42410   7.745  13.489  14.343
13524SOL    HW142411   7.777  13.572  14.378
13524SOL    HW242412   7.791  13.479  14.260
13525SOL     OW42413   9.210   1.193   1.905
13525SOL    HW142414   9.237   1.280   1.876
13525SOL    HW242415   9.153   1.161   1.835
13526SOL     OW42416   5.900   1.312   7.470
13526SOL    HW142417   5.863   1.390   7.430
13526SOL    HW242418   5.910   1.250   7.398
13527SOL     OW42419   9.349   9.383   1.166
13527SOL    HW142420   9.436   9.390   1.204
13527SOL    HW242421   9.364   9.378   1.071
13528SOL     OW42422   9.804  14.449   5.672
13528SOL    HW142423   9.793  14.369   5.723
13528SOL    HW242424   9.898  14.467   5.675
13529SOL     OW42425   5.218   4.820   4.186
13529SOL    HW142426   5.134   4.848   4.149
13529SOL    HW242427   5.203   4.817   4.280
13530SOL     OW42428   1.126  10.011   3.354
13530SOL    HW142429   1.071  10.089   3.340
13530SOL    HW242430   1.205  10.029   3.304
13531SOL     OW42431   1.510   4.115  11.215
13531SOL    HW142432   1.541   4.026  11.200
13531SOL    HW242433   1.525   4.160  11.132
13532SOL     OW42434   0.398   6.934   0.684
13532SOL    HW142435   0.411   6.989   0.607
13532SOL    HW242436   0.349   6.989   0.745
13533SOL     OW42437   6.923   0.912   8.195
13533SOL    HW142438   6.868   0.902   8.117
13533SOL    HW242439   6.893   0.993   8.236
13534SOL     OW42440  13.233   2.562   5.021
13534SOL    HW142441  13.305   2.509   4.988
13534SOL    HW242442  13.224   2.633   4.956
13535SOL     OW42443   2.457   6.997   9.355
13535SOL    HW142444   2.362   6.985   9.350
13535SOL    HW242445   2.493   6.918   9.315
13536SOL     OW42446   4.935  11.473   7.671
13536SOL    HW142447   4.864  11.484   7.735
13536SOL    HW242448   4.973  11.388   7.692
13537SOL     OW42449   8.009  13.688   7.448
13537SOL    HW142450   7.915  13.690   7.465
13537SOL    HW242451   8.046  13.745   7.516
13538SOL     OW42452  13.541   4.515  13.082
13538SOL    HW142453  13.599   4.578  13.125
13538SOL    HW242454  13.464   4.510  13.138
13539SOL     OW42455  13.056  13.407   0.977
13539SOL    HW142456  13.082  13.401   1.069
13539SOL    HW242457  12.960  13.405   0.979
13540SOL     OW42458   1.844   4.078   7.561
13540SOL    HW142459   1.900   4.126   7.621
13540SOL    HW242460   1.775   4.042   7.616
13541SOL     OW42461   1.021  10.558   7.924
13541SOL    HW142462   1.092  10.566   7.859
13541SOL    HW242463   0.971  10.481   7.896
13542SOL     OW42464   3.205   3.529  10.858
13542SOL    HW142465   3.198   3.620  10.887
13542SOL    HW242466   3.118   3.492  10.874
13543SOL     OW42467  13.651   9.705  12.396
13543SOL    HW142468  13.591   9.638  12.365
13543SOL    HW242469  13.682   9.673  12.480
13544SOL     OW42470  12.514   9.539   4.549
13544SOL    HW142471  12.420   9.529   4.563
13544SOL    HW242472  12.521   9.612   4.487
13545SOL     OW42473  11.270   8.871   6.726
13545SOL    HW142474  11.312   8.807   6.784
13545SOL    HW242475  11.178   8.847   6.726
13546SOL     OW42476  14.407   2.396  12.704
13546SOL    HW142477  14.416   2.396  12.800
13546SOL    HW242478  14.387   2.305  12.682
13547SOL     OW42479  14.708  14.429   4.264
13547SOL    HW142480  14.709  14.425   4.169
13547SOL    HW242481  14.627  14.384   4.290
13548SOL     OW42482  10.205   4.757   1.542
13548SOL    HW142483  10.202   4.672   1.586
13548SOL    HW242484  10.173   4.738   1.453
13549SOL     OW42485  11.346   2.959   9.511
13549SOL    HW142486  11.314   2.925   9.427
13549SOL    HW242487  11.268   2.996   9.553
13550SOL     OW42488   6.730  11.950   7.641
13550SOL    HW142489   6.789  11.953   7.717
13550SOL    HW242490   6.737  11.860   7.609
13551SOL     OW42491   6.818   7.308  14.144
13551SOL    HW142492   6.874   7.249  14.095
13551SOL    HW242493   6.838   7.395  14.111
13552SOL     OW42494   4.326   8.853   6.065
13552SOL    HW142495   4.333   8.760   6.042
13552SOL    HW242496   4.301   8.853   6.157
13553SOL     OW42497  11.854  10.857   4.263
13553SOL    HW142498  11.768  10.894   4.243
13553SOL    HW242499  11.916  10.915   4.221
13554SOL     OW42500  12.058  14.445   9.718
13554SOL    HW142501  12.059  14.386   9.794
13554SOL    HW242502  11.990  14.408   9.661
13555SOL     OW42503   9.962  11.465  14.771
13555SOL    HW142504   9.919  11.455  14.686
13555SOL    HW242505   9.897  11.511  14.825
13556SOL     OW42506  12.181   4.145   8.161
13556SOL    HW142507  12.102   4.105   8.124
13556SOL    HW242508  12.167   4.141   8.256
13557SOL     OW42509   4.902   4.831   9.587
13557SOL    HW142510   4.983   4.880   9.579
13557SOL    HW242511   4.842   4.890   9.634
13558SOL     OW42512   4.772  10.408  14.423
13558SOL    HW142513   4.722  10.448  14.494
13558SOL    HW242514   4.843  10.469  14.406
13559SOL     OW42515   6.360   5.961   1.880
13559SOL    HW142516   6.270   5.981   1.855
13559SOL    HW242517   6.351   5.910   1.961
13560SOL     OW42518  13.539  13.564   1.543
13560SOL    HW142519  13.618  13.614   1.567
13560SOL    HW242520  13.561  13.474   1.566
13561SOL     OW42521   2.046   4.012  11.251
13561SOL    HW142522   2.000   3.990  11.169
13561SOL    HW242523   1.996   4.085  11.287
13562SOL     OW42524  11.674   2.597   4.011
13562SOL    HW142525  11.685   2.691   4.027
13562SOL    HW242526  11.631   2.592   3.926
13563SOL     OW42527   4.012   1.951   8.597
13563SOL    HW142528   4.015   1.889   8.670
13563SOL    HW242529   4.092   1.933   8.547
13564SOL     OW42530   9.675  14.360   6.801
13564SOL    HW142531   9.660  14.267   6.819
13564SOL    HW242532   9.771  14.367   6.794
13565SOL     OW42533  13.080  13.118   5.090
13565SOL    HW142534  13.110  13.065   5.016
13565SOL    HW242535  13.121  13.077   5.166
13566SOL     OW42536   6.035   6.177   5.823
13566SOL    HW142537   6.121   6.218   5.819
13566SOL    HW242538   6.030   6.122   5.745
13567SOL     OW42539  13.989   1.203   4.217
13567SOL    HW142540  13.910   1.171   4.259
13567SOL    HW242541  13.966   1.290   4.184
13568SOL     OW42542   0.897  12.290   6.680
13568SOL    HW142543   0.910  12.385   6.670
13568SOL    HW242544   0.806  12.280   6.705
13569SOL     OW42545   8.877   0.169   8.743
13569SOL    HW142546   8.965   0.170   8.780
13569SOL    HW242547   8.883   0.113   8.666
13570SOL     OW42548   5.981   2.825  11.096
13570SOL    HW142549   5.908   2.794  11.150
13570SOL    HW242550   6.055   2.770  11.123
13571SOL     OW42551   5.141  12.898   1.093
13571SOL    HW142552   5.178  12.822   1.049
13571SOL    HW242553   5.047  12.891   1.078
13572SOL     OW42554   2.358   7.715  13.637
13572SOL    HW142555   2.356   7.764  13.720
13572SOL    HW242556   2.333   7.626  13.661
13573SOL     OW42557   5.101  11.656  13.138
13573SOL    HW142558   5.091  11.579  13.082
13573SOL    HW242559   5.041  11.721  13.102
13574SOL     OW42560   4.478  11.804  14.253
13574SOL    HW142561   4.551  11.824  14.194
13574SOL    HW242562   4.409  11.770  14.195
13575SOL     OW42563   7.948   4.275   8.798
13575SOL    HW142564   7.980   4.221   8.870
13575SOL    HW242565   7.855   4.253   8.791
13576SOL     OW42566   4.471   8.524   4.587
13576SOL    HW142567   4.537   8.476   4.638
13576SOL    HW242568   4.437   8.459   4.525
13577SOL     OW42569   6.777  13.742   6.679
13577SOL    HW142570   6.757  13.663   6.730
13577SOL    HW242571   6.756  13.718   6.589
13578SOL     OW42572   5.401   8.739   3.737
13578SOL    HW142573   5.310   8.733   3.765
13578SOL    HW242574   5.416   8.832   3.724
13579SOL     OW42575   7.886   0.519   7.778
13579SOL    HW142576   7.947   0.505   7.706
13579SOL    HW242577   7.808   0.470   7.754
13580SOL     OW42578   5.896   8.833   6.606
13580SOL    HW142579   5.873   8.743   6.582
13580SOL    HW242580   5.901   8.832   6.701
13581SOL     OW42581   0.212   2.474   4.055
13581SOL    HW142582   0.161   2.510   4.128
13581SOL    HW242583   0.284   2.427   4.097
13582SOL     OW42584   5.617   4.623   2.210
13582SOL    HW142585   5.582   4.644   2.297
13582SOL    HW242586   5.684   4.557   2.227
13583SOL     OW42587   2.410  12.349   2.866
13583SOL    HW142588   2.473  12.402   2.817
13583SOL    HW242589   2.461  12.274   2.898
13584SOL     OW42590  11.903  11.754   0.190
13584SOL    HW142591  11.885  11.738   0.098
13584SOL    HW242592  11.877  11.672   0.234
13585SOL     OW42593  12.814  14.384   6.041
13585SOL    HW142594  12.799  14.344   5.955
13585SOL    HW242595  12.734  14.433   6.059
13586SOL     OW42596  10.530   3.677  13.548
13586SOL    HW142597  10.593   3.734  13.592
13586SOL    HW242598  10.547   3.690  13.455
13587SOL     OW42599   3.002  14.160  11.112
13587SOL    HW142600   3.008  14.160  11.017
13587SOL    HW242601   2.926  14.105  11.131
13588SOL     OW42602   0.650   9.505   7.128
13588SOL    HW142603   0.711   9.578   7.140
13588SOL    HW242604   0.664   9.448   7.204
13589SOL     OW42605   3.733   7.096   6.529
13589SOL    HW142606   3.785   7.156   6.581
13589SOL    HW242607   3.707   7.027   6.590
13590SOL     OW42608   3.894  13.400   0.984
13590SOL    HW142609   3.928  13.410   0.895
13590SOL    HW242610   3.800  13.390   0.972
13591SOL     OW42611  11.409  13.113   9.360
13591SOL    HW142612  11.348  13.043   9.385
13591SOL    HW242613  11.358  13.168   9.300
13592SOL     OW42614  10.261   8.035  13.169
13592SOL    HW142615  10.232   8.065  13.255
13592SOL    HW242616  10.254   7.940  13.172
13593SOL     OW42617  10.965   6.658   6.525
13593SOL    HW142618  10.933   6.687   6.439
13593SOL    HW242619  10.935   6.568   6.533
13594SOL     OW42620   7.431   6.852  11.587
13594SOL    HW142621   7.478   6.824  11.666
13594SOL    HW242622   7.496   6.843  11.517
13595SOL     OW42623   2.647   2.204  13.650
13595SOL    HW142624   2.688   2.237  13.570
13595SOL    HW242625   2.696   2.244  13.721
13596SOL     OW42626   4.629   1.135   4.497
13596SOL    HW142627   4.566   1.140   4.426
13596SOL    HW242628   4.710   1.105   4.456
13597SOL     OW42629   1.342   5.084  13.141
13597SOL    HW142630   1.341   5.171  13.101
13597SOL    HW242631   1.343   5.023  13.067
13598SOL     OW42632   5.590   1.823  13.680
13598SOL    HW142633   5.685   1.823  13.665
13598SOL    HW242634   5.559   1.745  13.634
13599SOL     OW42635   6.153   1.975   4.695
13599SOL    HW142636   6.062   1.982   4.669
13599SOL    HW242637   6.175   2.060   4.732
13600SOL     OW42638   1.406  12.822   2.283
13600SOL    HW142639   1.367  12.828   2.196
13600SOL    HW242640   1.387  12.906   2.324
13601SOL     OW42641   4.101   3.162   2.480
13601SOL    HW142642   4.171   3.149   2.545
13601SOL    HW242643   4.037   3.094   2.502
13602SOL     OW42644   1.274  10.150   7.921
13602SOL    HW142645   1.204  10.166   7.857
13602SOL    HW242646   1.336  10.094   7.875
13603SOL     OW42647   8.462  11.969   0.345
13603SOL    HW142648   8.448  11.875   0.339
13603SOL    HW242649   8.387  12.008   0.300
13604SOL     OW42650   9.909   7.028  10.455
13604SOL    HW142651   9.929   6.938  10.478
13604SOL    HW242652   9.889   7.071  10.539
13605SOL     OW42653  14.033   3.785   0.014
13605SOL    HW142654  13.959   3.792   0.074
13605SOL    HW242655  14.071   3.873   0.013
13606SOL     OW42656   9.800  12.238   5.372
13606SOL    HW142657   9.705  12.253   5.376
13606SOL    HW242658   9.810  12.175   5.301
13607SOL     OW42659   1.154   1.589  11.351
13607SOL    HW142660   1.204   1.561  11.428
13607SOL    HW242661   1.063   1.566  11.372
13608SOL     OW42662   2.955   9.871  14.742
13608SOL    HW142663   3.009   9.848  14.817
13608SOL    HW242664   2.878   9.914  14.780
13609SOL     OW42665  12.066   3.363   1.998
13609SOL    HW142666  12.133   3.421   1.960
13609SOL    HW242667  12.074   3.377   2.093
13610SOL     OW42668  13.306  10.424  13.962
13610SOL    HW142669  13.363  10.383  14.027
13610SOL    HW242670  13.347  10.402  13.878
13611SOL     OW42671   1.302   9.033   4.551
13611SOL    HW142672   1.394   9.057   4.543
13611SOL    HW242673   1.269   9.087   4.622
13612SOL     OW42674  14.176   5.048   5.052
13612SOL    HW142675  14.143   4.987   4.987
13612SOL    HW242676  14.098   5.092   5.085
13613SOL     OW42677  14.781   9.458   7.476
13613SOL    HW142678  14.815   9.529   7.530
13613SOL    HW242679  14.795   9.487   7.386
13614SOL     OW42680   9.921  14.153   4.130
13614SOL    HW142681   9.950  14.218   4.193
13614SOL    HW242682   9.870  14.090   4.182
13615SOL     OW42683   2.750   3.576  11.946
13615SOL    HW142684   2.730   3.667  11.923
13615SOL    HW242685   2.695   3.523  11.888
13616SOL     OW42686   6.070  13.746   6.768
13616SOL    HW142687   6.036  13.809   6.705
13616SOL    HW242688   5.993  13.710   6.810
13617SOL     OW42689   9.779   7.883  13.208
13617SOL    HW142690   9.692   7.920  13.227
13617SOL    HW242691   9.784   7.804  13.262
13618SOL     OW42692   4.879  13.966   5.596
13618SOL    HW142693   4.943  14.027   5.630
13618SOL    HW242694   4.853  13.913   5.672
13619SOL     OW42695   0.379   0.244   7.193
13619SOL    HW142696   0.291   0.242   7.156
13619SOL    HW242697   0.415   0.327   7.164
13620SOL     OW42698  12.188   9.594   3.923
13620SOL    HW142699  12.235   9.512   3.905
13620SOL    HW242700  12.102   9.567   3.952
13621SOL     OW42701   5.171   0.653   9.801
13621SOL    HW142702   5.167   0.724   9.736
13621SOL    HW242703   5.123   0.688   9.877
13622SOL     OW42704  14.166  11.595   8.683
13622SOL    HW142705  14.194  11.553   8.602
13622SOL    HW242706  14.191  11.687   8.672
13623SOL     OW42707   7.691  13.468  12.950
13623SOL    HW142708   7.673  13.558  12.925
13623SOL    HW242709   7.644  13.415  12.885
13624SOL     OW42710  11.940   0.889   3.358
13624SOL    HW142711  11.889   0.875   3.278
13624SOL    HW242712  11.992   0.810   3.368
13625SOL     OW42713   5.149  13.761   4.208
13625SOL    HW142714   5.201  13.685   4.182
13625SOL    HW242715   5.092  13.729   4.278
13626SOL     OW42716   3.742   8.673  10.563
13626SOL    HW142717   3.664   8.646  10.612
13626SOL    HW242718   3.801   8.598  10.569
13627SOL     OW42719   0.256   2.833  10.542
13627SOL    HW142720   0.177   2.887  10.531
13627SOL    HW242721   0.265   2.822  10.636
13628SOL     OW42722   2.760  12.180   9.807
13628SOL    HW142723   2.852  12.155   9.806
13628SOL    HW242724   2.757  12.258   9.863
13629SOL     OW42725   6.957  14.114  13.250
13629SOL    HW142726   6.907  14.035  13.229
13629SOL    HW242727   7.042  14.081  13.280
13630SOL     OW42728   8.771   7.036   9.323
13630SOL    HW142729   8.680   7.055   9.299
13630SOL    HW242730   8.816   7.025   9.239
13631SOL     OW42731  14.082   7.072  10.997
13631SOL    HW142732  13.993   7.037  10.991
13631SOL    HW242733  14.083   7.119  11.081
13632SOL     OW42734   2.175   9.449  12.188
13632SOL    HW142735   2.110   9.510  12.153
13632SOL    HW242736   2.147   9.363  12.157
13633SOL     OW42737   3.601   7.908   1.684
13633SOL    HW142738   3.550   7.943   1.757
13633SOL    HW242739   3.589   7.813   1.690
13634SOL     OW42740   6.375  14.328   4.400
13634SOL    HW142741   6.466  14.342   4.423
13634SOL    HW242742   6.378  14.280   4.316
13635SOL     OW42743   9.041  13.260  13.545
13635SOL    HW142744   9.084  13.318  13.609
13635SOL    HW242745   9.112  13.205  13.512
13636SOL     OW42746  12.617  13.206  13.608
13636SOL    HW142747  12.657  13.120  13.595
13636SOL    HW242748  12.670  13.248  13.675
13637SOL     OW42749   0.415  10.044   7.372
13637SOL    HW142750   0.460  10.041   7.456
13637SOL    HW242751   0.324  10.020   7.393
13638SOL     OW42752  11.338   7.002   1.340
13638SOL    HW142753  11.258   6.950   1.333
13638SOL    HW242754  11.308   7.088   1.370
13639SOL     OW42755   5.056  10.663   4.238
13639SOL    HW142756   5.081  10.579   4.199
13639SOL    HW242757   5.123  10.724   4.206
13640SOL     OW42758   6.406  12.393   6.790
13640SOL    HW142759   6.466  12.382   6.863
13640SOL    HW242760   6.355  12.312   6.789
13641SOL     OW42761   9.325  13.786   1.462
13641SOL    HW142762   9.389  13.839   1.508
13641SOL    HW242763   9.264  13.849   1.424
13642SOL     OW42764   1.630   5.108   4.380
13642SOL    HW142765   1.633   5.013   4.396
13642SOL    HW242766   1.711   5.141   4.418
13643SOL     OW42767   2.322   1.036   8.964
13643SOL    HW142768   2.355   1.073   9.045
13643SOL    HW242769   2.291   0.949   8.988
13644SOL     OW42770   2.658   3.854   4.550
13644SOL    HW142771   2.596   3.926   4.561
13644SOL    HW242772   2.627   3.787   4.610
13645SOL     OW42773   6.041   2.090   2.559
13645SOL    HW142774   6.111   2.033   2.526
13645SOL    HW242775   6.082   2.138   2.631
13646SOL     OW42776  13.372   2.987   2.665
13646SOL    HW142777  13.455   2.980   2.618
13646SOL    HW242778  13.328   3.063   2.626
13647SOL     OW42779   7.863   2.484   7.454
13647SOL    HW142780   7.787   2.475   7.511
13647SOL    HW242781   7.934   2.508   7.514
13648SOL     OW42782  10.698  13.920   6.034
13648SOL    HW142783  10.770  13.978   6.061
13648SOL    HW242784  10.655  13.895   6.116
13649SOL     OW42785   4.408  11.862  13.027
13649SOL    HW142786   4.370  11.950  13.027
13649SOL    HW242787   4.502  11.877  13.033
13650SOL     OW42788   7.743  10.340  12.985
13650SOL    HW142789   7.658  10.296  12.989
13650SOL    HW242790   7.761  10.349  12.891
13651SOL     OW42791   8.523  14.264  13.971
13651SOL    HW142792   8.591  14.225  14.026
13651SOL    HW242793   8.441  14.234  14.010
13652SOL     OW42794  10.627   8.575  10.732
13652SOL    HW142795  10.702   8.627  10.760
13652SOL    HW242796  10.665   8.500  10.685
13653SOL     OW42797  11.835   1.794  11.640
13653SOL    HW142798  11.903   1.806  11.573
13653SOL    HW242799  11.793   1.712  11.617
13654SOL     OW42800   1.764  12.666   7.980
13654SOL    HW142801   1.673  12.638   7.984
13654SOL    HW242802   1.784  12.697   8.068
13655SOL     OW42803   2.374   1.768   7.957
13655SOL    HW142804   2.431   1.692   7.946
13655SOL    HW242805   2.433   1.843   7.955
13656SOL     OW42806   0.330   1.103  12.857
13656SOL    HW142807   0.240   1.105  12.889
13656SOL    HW242808   0.373   1.037  12.911
13657SOL     OW42809   2.338   7.137   1.678
13657SOL    HW142810   2.316   7.140   1.771
13657SOL    HW242811   2.291   7.212   1.640
13658SOL     OW42812  11.824   2.852   8.814
13658SOL    HW142813  11.768   2.843   8.736
13658SOL    HW242814  11.798   2.936   8.852
13659SOL     OW42815   1.121   9.187  11.310
13659SOL    HW142816   1.166   9.270  11.330
13659SOL    HW242817   1.188   9.120  11.319
13660SOL     OW42818   9.562  13.073  12.062
13660SOL    HW142819   9.619  13.150  12.060
13660SOL    HW242820   9.536  13.059  11.971
13661SOL     OW42821   3.181  14.221   9.371
13661SOL    HW142822   3.147  14.299   9.416
13661SOL    HW242823   3.103  14.178   9.336
13662SOL     OW42824   5.296   1.665   0.300
13662SOL    HW142825   5.247   1.642   0.221
13662SOL    HW242826   5.364   1.725   0.270
13663SOL     OW42827  11.297   5.631  12.720
13663SOL    HW142828  11.285   5.657  12.811
13663SOL    HW242829  11.384   5.591  12.718
13664SOL     OW42830   1.242   6.154  13.799
13664SOL    HW142831   1.233   6.216  13.871
13664SOL    HW242832   1.207   6.201  13.723
13665SOL     OW42833   3.726   0.134   6.672
13665SOL    HW142834   3.726   0.187   6.751
13665SOL    HW242835   3.807   0.082   6.677
13666SOL     OW42836   1.922   6.811  14.083
13666SOL    HW142837   1.985   6.741  14.066
13666SOL    HW242838   1.904   6.849  13.997
13667SOL     OW42839  14.409   2.956  10.840
13667SOL    HW142840  14.417   2.880  10.783
13667SOL    HW242841  14.329   3.000  10.810
13668SOL     OW42842  10.657  10.076   1.345
13668SOL    HW142843  10.744  10.042   1.366
13668SOL    HW242844  10.622  10.105   1.429
13669SOL     OW42845  10.244   9.454   5.698
13669SOL    HW142846  10.186   9.477   5.626
13669SOL    HW242847  10.185   9.426   5.768
13670SOL     OW42848   6.006   1.399  11.235
13670SOL    HW142849   5.912   1.407  11.221
13670SOL    HW242850   6.046   1.454  11.167
13671SOL     OW42851   2.553  11.682   0.571
13671SOL    HW142852   2.574  11.713   0.659
13671SOL    HW242853   2.631  11.703   0.519
13672SOL     OW42854   9.620  13.415   5.919
13672SOL    HW142855   9.634  13.321   5.916
13672SOL    HW242856   9.542  13.430   5.865
13673SOL     OW42857   3.075   6.326  11.194
13673SOL    HW142858   3.151   6.272  11.170
13673SOL    HW242859   3.108   6.416  11.189
13674SOL     OW42860   0.403   8.770   1.193
13674SOL    HW142861   0.389   8.825   1.270
13674SOL    HW242862   0.490   8.732   1.205
13675SOL     OW42863  13.117   0.629   9.360
13675SOL    HW142864  13.085   0.709   9.400
13675SOL    HW242865  13.043   0.568   9.364
13676SOL     OW42866   2.770   7.508   7.190
13676SOL    HW142867   2.729   7.482   7.107
13676SOL    HW242868   2.773   7.427   7.241
13677SOL     OW42869   0.579   5.787   1.869
13677SOL    HW142870   0.591   5.839   1.790
13677SOL    HW242871   0.515   5.720   1.844
13678SOL     OW42872   8.685   1.278   3.758
13678SOL    HW142873   8.760   1.228   3.726
13678SOL    HW242874   8.645   1.222   3.825
13679SOL     OW42875   2.640   7.631  13.983
13679SOL    HW142876   2.704   7.699  14.007
13679SOL    HW242877   2.588   7.619  14.063
13680SOL     OW42878   6.817   0.702   4.392
13680SOL    HW142879   6.877   0.769   4.426
13680SOL    HW242880   6.866   0.660   4.322
13681SOL     OW42881  11.827  10.690   8.278
13681SOL    HW142882  11.760  10.625   8.260
13681SOL    HW242883  11.910  10.644   8.264
13682SOL     OW42884  10.809  10.932   4.909
13682SOL    HW142885  10.845  10.934   4.820
13682SOL    HW242886  10.746  10.860   4.907
13683SOL     OW42887   6.911  12.307   6.390
13683SOL    HW142888   6.990  12.259   6.413
13683SOL    HW242889   6.873  12.332   6.473
13684SOL     OW42890   9.683   7.287   5.425
13684SOL    HW142891   9.697   7.212   5.367
13684SOL    HW242892   9.612   7.336   5.384
13685SOL     OW42893   2.927   0.828   5.255
13685SOL    HW142894   2.893   0.739   5.246
13685SOL    HW242895   2.883   0.863   5.333
13686SOL     OW42896   5.366  14.781  13.632
13686SOL    HW142897   5.290  14.743  13.676
13686SOL    HW242898   5.354  14.757  13.540
13687SOL     OW42899   2.452  13.869   7.138
13687SOL    HW142900   2.499  13.924   7.200
13687SOL    HW242901   2.395  13.929   7.090
13688SOL     OW42902   9.865   8.996  14.658
13688SOL    HW142903   9.930   9.059  14.626
13688SOL    HW242904   9.895   8.912  14.625
13689SOL     OW42905   4.680  13.672   1.848
13689SOL    HW142906   4.746  13.607   1.823
13689SOL    HW242907   4.641  13.701   1.765
13690SOL     OW42908   8.434   0.559   2.581
13690SOL    HW142909   8.346   0.541   2.549
13690SOL    HW242910   8.491   0.535   2.508
13691SOL     OW42911  10.015  11.086   8.956
13691SOL    HW142912  10.008  11.169   9.003
13691SOL    HW242913   9.935  11.039   8.977
13692SOL     OW42914   9.571   4.942   9.882
13692SOL    HW142915   9.579   5.029   9.843
13692SOL    HW242916   9.484   4.912   9.855
13693SOL     OW42917   1.356  12.112   7.141
13693SOL    HW142918   1.408  12.118   7.061
13693SOL    HW242919   1.397  12.174   7.202
13694SOL     OW42920  13.408   5.721   4.782
13694SOL    HW142921  13.465   5.798   4.788
13694SOL    HW242922  13.320   5.755   4.796
13695SOL     OW42923  10.325   7.917   6.083
13695SOL    HW142924  10.300   7.847   6.143
13695SOL    HW242925  10.247   7.972   6.076
13696SOL     OW42926   7.989   6.195  14.589
13696SOL    HW142927   8.023   6.215  14.502
13696SOL    HW242928   7.942   6.274  14.616
13697SOL     OW42929  12.677  13.749  10.786
13697SOL    HW142930  12.624  13.681  10.743
13697SOL    HW242931  12.671  13.824  10.727
13698SOL     OW42932  10.012   1.641   8.780
13698SOL    HW142933   9.969   1.574   8.728
13698SOL    HW242934  10.091   1.663   8.730
13699SOL     OW42935   3.896  14.092   3.259
13699SOL    HW142936   3.930  14.015   3.214
13699SOL    HW242937   3.967  14.156   3.253
13700SOL     OW42938   4.102   4.655   8.640
13700SOL    HW142939   4.182   4.642   8.588
13700SOL    HW242940   4.041   4.589   8.607
13701SOL     OW42941   8.435   7.015  11.671
13701SOL    HW142942   8.374   7.052  11.735
13701SOL    HW242943   8.461   7.089  11.616
13702SOL     OW42944  10.024   1.586  12.443
13702SOL    HW142945  10.066   1.569  12.359
13702SOL    HW242946  10.096   1.611  12.501
13703SOL     OW42947   0.002   3.575   0.652
13703SOL    HW142948  14.876   3.488   0.691
13703SOL    HW242949  14.792   3.598   0.630
13704SOL     OW42950  11.036   1.970   4.449
13704SOL    HW142951  11.071   2.044   4.399
13704SOL    HW242952  11.109   1.908   4.455
13705SOL     OW42953   3.362   4.802  14.741
13705SOL    HW142954   3.285   4.753  14.714
13705SOL    HW242955   3.331   4.893  14.748
13706SOL     OW42956   2.596   7.571  12.429
13706SOL    HW142957   2.616   7.659  12.397
13706SOL    HW242958   2.681   7.527  12.431
13707SOL     OW42959   6.067   2.438  13.989
13707SOL    HW142960   5.993   2.439  13.928
13707SOL    HW242961   6.126   2.371  13.954
13708SOL     OW42962   9.780   6.368   3.961
13708SOL    HW142963   9.733   6.354   4.043
13708SOL    HW242964   9.860   6.413   3.987
13709SOL     OW42965   7.282   1.671   3.750
13709SOL    HW142966   7.327   1.742   3.796
13709SOL    HW242967   7.231   1.627   3.818
13710SOL     OW42968  10.240  14.000   4.296
13710SOL    HW142969  10.309  13.975   4.358
13710SOL    HW242970  10.218  14.090   4.320
13711SOL     OW42971  12.204   4.548   6.124
13711SOL    HW142972  12.270   4.615   6.103
13711SOL    HW242973  12.195   4.498   6.043
13712SOL     OW42974   0.007  13.495   3.376
13712SOL    HW142975   0.069  13.462   3.441
13712SOL    HW242976  14.801  13.484   3.416
13713SOL     OW42977   8.548  11.298   4.818
13713SOL    HW142978   8.599  11.375   4.843
13713SOL    HW242979   8.520  11.260   4.902
13714SOL     OW42980  11.792   8.108  12.274
13714SOL    HW142981  11.714   8.158  12.301
13714SOL    HW242982  11.799   8.038  12.339
13715SOL     OW42983   2.625   8.622  10.421
13715SOL    HW142984   2.683   8.545  10.421
13715SOL    HW242985   2.666   8.682  10.359
13716SOL     OW42986   6.107   7.085   2.922
13716SOL    HW142987   6.156   7.028   2.862
13716SOL    HW242988   6.052   7.138   2.864
13717SOL     OW42989  14.731   8.466   1.031
13717SOL    HW142990  14.662   8.431   0.975
13717SOL    HW242991  14.688   8.536   1.081
13718SOL     OW42992  11.115   8.668   3.785
13718SOL    HW142993  11.151   8.674   3.697
13718SOL    HW242994  11.021   8.657   3.773
13719SOL     OW42995  12.360   4.556  10.393
13719SOL    HW142996  12.345   4.472  10.349
13719SOL    HW242997  12.274   4.580  10.429
13720SOL     OW42998   3.171  12.063  13.221
13720SOL    HW142999   3.155  12.093  13.131
13720SOL    HW243000   3.091  12.088  13.269
13721SOL     OW43001   4.054  11.386   1.975
13721SOL    HW143002   4.039  11.355   2.064
13721SOL    HW243003   4.128  11.333   1.944
13722SOL     OW43004  13.877  12.846   3.181
13722SOL    HW143005  13.957  12.845   3.130
13722SOL    HW243006  13.834  12.929   3.157
13723SOL     OW43007   7.068   3.771  11.319
13723SOL    HW143008   7.049   3.698  11.261
13723SOL    HW243009   7.135   3.738  11.378
13724SOL     OW43010  13.532   2.762   5.062
13724SOL    HW143011  13.503   2.682   5.019
13724SOL    HW243012  13.610   2.736   5.112
13725SOL     OW43013   8.845   6.295   3.167
13725SOL    HW143014   8.874   6.374   3.213
13725SOL    HW243015   8.880   6.223   3.220
13726SOL     OW43016  10.424   4.142   0.276
13726SOL    HW143017  10.396   4.077   0.341
13726SOL    HW243018  10.481   4.094   0.216
13727SOL     OW43019   3.300   9.274  10.792
13727SOL    HW143020   3.377   9.243  10.839
13727SOL    HW243021   3.312   9.369  10.786
13728SOL     OW43022   9.409  13.166  14.474
13728SOL    HW143023   9.319  13.197  14.468
13728SOL    HW243024   9.441  13.200  14.558
13729SOL     OW43025  10.561   3.317   9.098
13729SOL    HW143026  10.592   3.238   9.144
13729SOL    HW243027  10.569   3.296   9.005
13730SOL     OW43028   3.112   2.780  12.189
13730SOL    HW143029   3.122   2.872  12.212
13730SOL    HW243030   3.075   2.739  12.267
13731SOL     OW43031   6.220  10.433  13.209
13731SOL    HW143032   6.173  10.501  13.159
13731SOL    HW243033   6.201  10.453  13.300
13732SOL     OW43034   9.563  13.843   6.007
13732SOL    HW143035   9.604  13.771   6.054
13732SOL    HW243036   9.515  13.892   6.074
13733SOL     OW43037   7.105  14.414   1.777
13733SOL    HW143038   7.110  14.359   1.855
13733SOL    HW243039   7.172  14.378   1.718
13734SOL     OW43040   7.476   9.862   5.255
13734SOL    HW143041   7.529   9.918   5.312
13734SOL    HW243042   7.435   9.799   5.314
13735SOL     OW43043   0.180   7.167   3.180
13735SOL    HW143044   0.232   7.182   3.101
13735SOL    HW243045   0.205   7.080   3.210
13736SOL     OW43046   9.633  13.598   6.149
13736SOL    HW143047   9.640  13.515   6.100
13736SOL    HW243048   9.648  13.573   6.240
13737SOL     OW43049   9.130  10.328   8.762
13737SOL    HW143050   9.155  10.420   8.757
13737SOL    HW243051   9.082  10.320   8.845
13738SOL     OW43052   3.497  13.649  10.636
13738SOL    HW143053   3.435  13.718  10.657
13738SOL    HW243054   3.579  13.694  10.616
13739SOL     OW43055  14.056   2.654   9.112
13739SOL    HW143056  14.004   2.731   9.090
13739SOL    HW243057  14.134   2.689   9.154
13740SOL     OW43058   0.177  10.486   2.690
13740SOL    HW143059   0.261  10.451   2.660
13740SOL    HW243060   0.200  10.571   2.728
13741SOL     OW43061   4.506   8.741  12.092
13741SOL    HW143062   4.558   8.684  12.035
13741SOL    HW243063   4.550   8.826  12.088
13742SOL     OW43064   8.545  14.340  14.668
13742SOL    HW143065   8.607  14.355  14.597
13742SOL    HW243066   8.562  14.412  14.730
13743SOL     OW43067   3.132   3.928  11.253
13743SOL    HW143068   3.036   3.922  11.254
13743SOL    HW243069   3.151   4.014  11.289
13744SOL     OW43070   8.320   8.578  12.423
13744SOL    HW143071   8.305   8.644  12.491
13744SOL    HW243072   8.233   8.558  12.389
13745SOL     OW43073  12.160  10.106   4.933
13745SOL    HW143074  12.216  10.118   4.856
13745SOL    HW243075  12.131  10.015   4.927
13746SOL     OW43076   9.910   3.832  10.418
13746SOL    HW143077   9.997   3.843  10.456
13746SOL    HW243078   9.923   3.768  10.347
13747SOL     OW43079   0.051   8.814   3.734
13747SOL    HW143080  14.847   8.796   3.691
13747SOL    HW243081   0.062   8.909   3.727
13748SOL     OW43082  10.250   5.447   3.235
13748SOL    HW143083  10.255   5.543   3.226
13748SOL    HW243084  10.174   5.432   3.291
13749SOL     OW43085   0.806   1.098   9.541
13749SOL    HW143086   0.713   1.118   9.552
13749SOL    HW243087   0.820   1.017   9.590
13750SOL     OW43088   6.937   4.844   3.064
13750SOL    HW143089   7.014   4.900   3.065
13750SOL    HW243090   6.947   4.791   2.985
13751SOL     OW43091  14.069   3.354  12.841
13751SOL    HW143092  14.077   3.290  12.771
13751SOL    HW243093  14.029   3.306  12.914
13752SOL     OW43094  14.524  13.160   0.559
13752SOL    HW143095  14.586  13.151   0.631
13752SOL    HW243096  14.577  13.152   0.480
13753SOL     OW43097   9.000  14.856   0.078
13753SOL    HW143098   8.958   0.060   0.097
13753SOL    HW243099   8.966  14.796   0.145
13754SOL     OW43100   6.711   2.385   9.601
13754SOL    HW143101   6.627   2.408   9.640
13754SOL    HW243102   6.720   2.444   9.526
13755SOL     OW43103   5.637  11.888  11.214
13755SOL    HW143104   5.699  11.836  11.265
13755SOL    HW243105   5.613  11.960  11.271
13756SOL     OW43106   5.369  11.920   1.472
13756SOL    HW143107   5.400  11.890   1.387
13756SOL    HW243108   5.448  11.927   1.526
13757SOL     OW43109   5.314   2.762   3.265
13757SOL    HW143110   5.284   2.689   3.211
13757SOL    HW243111   5.409   2.750   3.271
13758SOL     OW43112   0.531   7.197   3.950
13758SOL    HW143113   0.446   7.154   3.941
13758SOL    HW243114   0.531   7.230   4.040
13759SOL     OW43115   0.512  13.515   5.586
13759SOL    HW143116   0.444  13.552   5.642
13759SOL    HW243117   0.465  13.469   5.517
13760SOL     OW43118   2.714   6.857   2.943
13760SOL    HW143119   2.808   6.871   2.930
13760SOL    HW243120   2.698   6.888   3.032
13761SOL     OW43121  13.548   2.206  14.166
13761SOL    HW143122  13.479   2.150  14.131
13761SOL    HW243123  13.508   2.292  14.172
13762SOL     OW43124  13.090   6.317   3.684
13762SOL    HW143125  13.102   6.222   3.680
13762SOL    HW243126  13.178   6.353   3.683
13763SOL     OW43127   7.089   6.299   4.936
13763SOL    HW143128   7.157   6.332   4.995
13763SOL    HW243129   7.044   6.377   4.905
13764SOL     OW43130   1.255   0.316   6.956
13764SOL    HW143131   1.191   0.387   6.954
13764SOL    HW243132   1.234   0.266   7.035
13765SOL     OW43133   2.340  13.832   9.027
13765SOL    HW143134   2.350  13.917   9.070
13765SOL    HW243135   2.386  13.841   8.944
13766SOL     OW43136   6.472  10.968  10.440
13766SOL    HW143137   6.499  10.884  10.402
13766SOL    HW243138   6.396  10.947  10.493
13767SOL     OW43139   2.286   4.219   4.719
13767SOL    HW143140   2.369   4.254   4.752
13767SOL    HW243141   2.261   4.280   4.649
13768SOL     OW43142  10.127   3.118  11.262
13768SOL    HW143143  10.155   3.035  11.222
13768SOL    HW243144  10.058   3.092  11.323
13769SOL     OW43145  10.640  13.132   5.577
13769SOL    HW143146  10.632  13.137   5.482
13769SOL    HW243147  10.584  13.058   5.602
13770SOL     OW43148   6.193  12.972   7.920
13770SOL    HW143149   6.207  12.877   7.922
13770SOL    HW243150   6.107  12.983   7.879
13771SOL     OW43151  10.229   7.855   0.435
13771SOL    HW143152  10.200   7.768   0.464
13771SOL    HW243153  10.152   7.893   0.393
13772SOL     OW43154   6.404   4.766  10.795
13772SOL    HW143155   6.339   4.835  10.807
13772SOL    HW243156   6.436   4.747  10.883
13773SOL     OW43157  11.934   5.685  14.242
13773SOL    HW143158  11.898   5.757  14.189
13773SOL    HW243159  11.984   5.729  14.311
13774SOL     OW43160   0.913   4.754  11.165
13774SOL    HW143161   0.862   4.768  11.085
13774SOL    HW243162   1.003   4.744  11.134
13775SOL     OW43163  11.081   3.628   4.001
13775SOL    HW143164  11.140   3.699   3.977
13775SOL    HW243165  10.995   3.657   3.971
13776SOL     OW43166  14.710   1.630   2.725
13776SOL    HW143167  14.674   1.716   2.747
13776SOL    HW243168  14.805   1.643   2.721
13777SOL     OW43169   7.691   1.730  13.169
13777SOL    HW143170   7.763   1.677  13.202
13777SOL    HW243171   7.685   1.803  13.230
13778SOL     OW43172  10.096  11.916   7.814
13778SOL    HW143173  10.156  11.860   7.765
13778SOL    HW243174  10.015  11.865   7.820
13779SOL     OW43175   9.498   4.736  10.340
13779SOL    HW143176   9.531   4.798  10.275
13779SOL    HW243177   9.463   4.792  10.410
13780SOL     OW43178   2.553   3.993  10.049
13780SOL    HW143179   2.490   4.007  10.119
13780SOL    HW243180   2.638   4.006  10.091
13781SOL     OW43181   4.251   5.367   9.325
13781SOL    HW143182   4.336   5.331   9.348
13781SOL    HW243183   4.188   5.299   9.350
13782SOL     OW43184   8.626   9.102   4.101
13782SOL    HW143185   8.587   9.096   4.188
13782SOL    HW243186   8.565   9.156   4.051
13783SOL     OW43187  14.461   5.450   7.663
13783SOL    HW143188  14.544   5.410   7.691
13783SOL    HW243189  14.402   5.376   7.649
13784SOL     OW43190   1.285   0.857   4.222
13784SOL    HW143191   1.193   0.862   4.247
13784SOL    HW243192   1.296   0.768   4.189
13785SOL     OW43193   3.487   7.628  14.152
13785SOL    HW143194   3.546   7.677  14.210
13785SOL    HW243195   3.545   7.575  14.098
13786SOL     OW43196   5.982   0.038   7.747
13786SOL    HW143197   6.060   0.023   7.800
13786SOL    HW243198   6.015   0.085   7.670
13787SOL     OW43199  12.617   9.503   6.370
13787SOL    HW143200  12.666   9.421   6.376
13787SOL    HW243201  12.592   9.523   6.460
13788SOL     OW43202  11.534   7.682  11.652
13788SOL    HW143203  11.541   7.677  11.747
13788SOL    HW243204  11.443   7.660  11.633
13789SOL     OW43205   2.932   7.433  14.175
13789SOL    HW143206   2.971   7.519  14.186
13789SOL    HW243207   2.869   7.426  14.246
13790SOL     OW43208  11.435  13.317   1.773
13790SOL    HW143209  11.375  13.285   1.706
13790SOL    HW243210  11.522  13.308   1.734
13791SOL     OW43211   6.754  12.120   6.774
13791SOL    HW143212   6.813  12.048   6.751
13791SOL    HW243213   6.785  12.194   6.721
13792SOL     OW43214   0.036   6.015   6.184
13792SOL    HW143215   0.050   5.968   6.102
13792SOL    HW243216   0.098   6.089   6.180
13793SOL     OW43217   7.345  10.213   5.362
13793SOL    HW143218   7.402  10.274   5.409
13793SOL    HW243219   7.256  10.245   5.378
13794SOL     OW43220   9.540  13.721  13.016
13794SOL    HW143221   9.463  13.691  13.064
13794SOL    HW243222   9.510  13.726  12.925
13795SOL     OW43223  13.278  10.767   1.070
13795SOL    HW143224  13.235  10.743   0.988
13795SOL    HW243225  13.316  10.853   1.053
13796SOL     OW43226   6.921  14.186   2.214
13796SOL    HW143227   6.921  14.266   2.266
13796SOL    HW243228   6.830  14.155   2.217
13797SOL     OW43229  10.548  11.605   5.788
13797SOL    HW143230  10.494  11.632   5.862
13797SOL    HW243231  10.508  11.523   5.758
13798SOL     OW43232   1.751   9.598   6.929
13798SOL    HW143233   1.767   9.609   6.835
13798SOL    HW243234   1.735   9.687   6.961
13799SOL     OW43235   2.391  11.108  14.399
13799SOL    HW143236   2.434  11.162  14.466
13799SOL    HW243237   2.422  11.019  14.418
13800SOL     OW43238  10.607   8.333   9.068
13800SOL    HW143239  10.573   8.413   9.109
13800SOL    HW243240  10.529   8.280   9.052
13801SOL     OW43241   0.452   9.469   3.240
13801SOL    HW143242   0.377   9.437   3.190
13801SOL    HW243243   0.419   9.545   3.287
13802SOL     OW43244   7.256   9.205  14.813
13802SOL    HW143245   7.215   9.123  14.839
13802SOL    HW243246   7.303   9.234   0.011
13803SOL     OW43247  10.194  12.321   8.532
13803SOL    HW143248  10.109  12.315   8.574
13803SOL    HW243249  10.197  12.248   8.470
13804SOL     OW43250   6.535   9.541  10.655
13804SOL    HW143251   6.578   9.487  10.721
13804SOL    HW243252   6.518   9.624  10.701
13805SOL     OW43253  13.462   4.882   2.239
13805SOL    HW143254  13.384   4.885   2.183
13805SOL    HW243255  13.488   4.790   2.239
13806SOL     OW43256  13.343  10.845   1.345
13806SOL    HW143257  13.314  10.934   1.365
13806SOL    HW243258  13.280  10.814   1.279
13807SOL     OW43259  13.947   6.728   4.850
13807SOL    HW143260  13.978   6.778   4.774
13807SOL    HW243261  14.019   6.732   4.913
13808SOL     OW43262  10.857  14.591   2.309
13808SOL    HW143263  10.852  14.506   2.265
13808SOL    HW243264  10.917  14.575   2.383
13809SOL     OW43265   1.865   2.350  13.304
13809SOL    HW143266   1.802   2.413  13.270
13809SOL    HW243267   1.942   2.361  13.248
13810SOL     OW43268  12.938  12.347   0.216
13810SOL    HW143269  12.944  12.368   0.309
13810SOL    HW243270  13.008  12.398   0.175
13811SOL     OW43271  14.670   2.064   0.215
13811SOL    HW143272  14.660   2.125   0.287
13811SOL    HW243273  14.763   2.041   0.215
13812SOL     OW43274   4.106   0.846   0.502
13812SOL    HW143275   4.124   0.871   0.411
13812SOL    HW243276   4.042   0.775   0.495
13813SOL     OW43277  11.967  12.956   5.835
13813SOL    HW143278  11.920  12.893   5.780
13813SOL    HW243279  11.898  13.014   5.868
13814SOL     OW43280   2.459   6.206   7.753
13814SOL    HW143281   2.518   6.281   7.762
13814SOL    HW243282   2.401   6.211   7.829
13815SOL     OW43283   1.491   1.197   6.729
13815SOL    HW143284   1.490   1.138   6.805
13815SOL    HW243285   1.442   1.274   6.758
13816SOL     OW43286   4.240  13.771   7.133
13816SOL    HW143287   4.233  13.843   7.196
13816SOL    HW243288   4.324  13.730   7.154
13817SOL     OW43289   2.086   7.318   4.945
13817SOL    HW143290   2.006   7.349   4.904
13817SOL    HW243291   2.108   7.238   4.897
13818SOL     OW43292   5.837   6.977   9.172
13818SOL    HW143293   5.771   6.977   9.102
13818SOL    HW243294   5.908   6.924   9.137
13819SOL     OW43295   1.026   1.553   4.364
13819SOL    HW143296   1.058   1.630   4.411
13819SOL    HW243297   1.101   1.493   4.363
13820SOL     OW43298   6.542   5.783  11.170
13820SOL    HW143299   6.632   5.803  11.196
13820SOL    HW243300   6.543   5.689  11.154
13821SOL     OW43301   3.678   8.743   9.078
13821SOL    HW143302   3.688   8.826   9.124
13821SOL    HW243303   3.767   8.708   9.072
13822SOL     OW43304  12.415  10.950   7.695
13822SOL    HW143305  12.337  10.975   7.745
13822SOL    HW243306  12.437  11.029   7.645
13823SOL     OW43307  10.117  13.353   2.678
13823SOL    HW143308  10.095  13.400   2.598
13823SOL    HW243309  10.161  13.274   2.648
13824SOL     OW43310   0.341   9.589   5.359
13824SOL    HW143311   0.333   9.510   5.306
13824SOL    HW243312   0.375   9.655   5.299
13825SOL     OW43313   2.508   4.630   3.265
13825SOL    HW143314   2.600   4.637   3.291
13825SOL    HW243315   2.494   4.537   3.247
13826SOL     OW43316  10.153   2.456   1.929
13826SOL    HW143317  10.150   2.548   1.956
13826SOL    HW243318  10.202   2.412   1.998
13827SOL     OW43319   0.737   1.555   3.769
13827SOL    HW143320   0.818   1.525   3.811
13827SOL    HW243321   0.739   1.514   3.682
13828SOL     OW43322  14.422  10.480  13.536
13828SOL    HW143323  14.350  10.530  13.574
13828SOL    HW243324  14.405  10.389  13.562
13829SOL     OW43325   5.246  14.720   6.057
13829SOL    HW143326   5.266  14.626   6.062
13829SOL    HW243327   5.312  14.754   5.996
13830SOL     OW43328   2.635  12.551   0.837
13830SOL    HW143329   2.699  12.593   0.780
13830SOL    HW243330   2.668  12.462   0.848
13831SOL     OW43331  11.593  10.450  14.495
13831SOL    HW143332  11.557  10.496  14.571
13831SOL    HW243333  11.667  10.400  14.530
13832SOL     OW43334   0.510  14.837   2.341
13832SOL    HW143335   0.421  14.870   2.326
13832SOL    HW243336   0.507  14.801   2.430
13833SOL     OW43337   8.603   8.182   2.647
13833SOL    HW143338   8.626   8.263   2.692
13833SOL    HW243339   8.652   8.185   2.565
13834SOL     OW43340  10.420  10.826  12.742
13834SOL    HW143341  10.427  10.747  12.795
13834SOL    HW243342  10.335  10.863  12.765
13835SOL     OW43343  11.402  13.694   1.685
13835SOL    HW143344  11.447  13.753   1.625
13835SOL    HW243345  11.317  13.678   1.644
13836SOL     OW43346  11.655   3.745   5.685
13836SOL    HW143347  11.591   3.674   5.688
13836SOL    HW243348  11.661   3.767   5.592
13837SOL     OW43349   5.065   4.938   6.785
13837SOL    HW143350   5.127   4.986   6.729
13837SOL    HW243351   4.996   5.001   6.804
13838SOL     OW43352   3.453  12.978   1.820
13838SOL    HW143353   3.539  12.960   1.782
13838SOL    HW243354   3.426  13.061   1.780
13839SOL     OW43355  11.063  12.111  10.501
13839SOL    HW143356  11.008  12.045  10.460
13839SOL    HW243357  11.058  12.091  10.595
13840SOL     OW43358   8.568   1.013   4.181
13840SOL    HW143359   8.633   0.954   4.220
13840SOL    HW243360   8.573   1.092   4.235
13841SOL     OW43361   9.228  14.590   8.291
13841SOL    HW143362   9.187  14.598   8.204
13841SOL    HW243363   9.160  14.549   8.345
13842SOL     OW43364   2.291  11.023   5.540
13842SOL    HW143365   2.382  10.998   5.552
13842SOL    HW243366   2.291  11.079   5.462
13843SOL     OW43367   2.624   9.829   7.058
13843SOL    HW143368   2.648   9.916   7.089
13843SOL    HW243369   2.529   9.831   7.052
13844SOL     OW43370   0.565   8.175   5.413
13844SOL    HW143371   0.583   8.186   5.319
13844SOL    HW243372   0.542   8.082   5.422
13845SOL     OW43373   4.050   0.228   0.646
13845SOL    HW143374   4.012   0.152   0.603
13845SOL    HW243375   4.076   0.196   0.733
13846SOL     OW43376   4.252  14.521   6.882
13846SOL    HW143377   4.160  14.529   6.909
13846SOL    HW243378   4.286  14.450   6.936
13847SOL     OW43379   0.551   6.111  10.925
13847SOL    HW143380   0.508   6.025  10.918
13847SOL    HW243381   0.498   6.159  10.989
13848SOL     OW43382  14.283  14.626   4.493
13848SOL    HW143383  14.366  14.674   4.500
13848SOL    HW243384  14.218  14.685   4.531
13849SOL     OW43385   3.332  11.204   4.481
13849SOL    HW143386   3.257  11.191   4.540
13849SOL    HW243387   3.406  11.217   4.539
13850SOL     OW43388  11.254   6.845  13.710
13850SOL    HW143389  11.238   6.766  13.659
13850SOL    HW243390  11.299   6.816  13.789
13851SOL     OW43391  14.785   1.217  11.393
13851SOL    HW143392  14.845   1.147  11.368
13851SOL    HW243393  14.734   1.181  11.466
13852SOL     OW43394   8.853   5.016  14.496
13852SOL    HW143395   8.847   4.961  14.574
13852SOL    HW243396   8.762   5.032  14.471
13853SOL     OW43397   7.812  14.072  12.103
13853SOL    HW143398   7.793  14.165  12.120
13853SOL    HW243399   7.836  14.070  12.011
13854SOL     OW43400   9.350   7.430   2.301
13854SOL    HW143401   9.319   7.410   2.390
13854SOL    HW243402   9.358   7.345   2.259
13855SOL     OW43403   8.350   4.512   6.973
13855SOL    HW143404   8.406   4.586   6.951
13855SOL    HW243405   8.332   4.523   7.067
13856SOL     OW43406  13.084   2.309  10.179
13856SOL    HW143407  13.146   2.286  10.110
13856SOL    HW243408  13.024   2.371  10.138
13857SOL     OW43409  10.281   1.480   0.197
13857SOL    HW143410  10.269   1.408   0.259
13857SOL    HW243411  10.375   1.499   0.201
13858SOL     OW43412  14.361  11.395   6.189
13858SOL    HW143413  14.289  11.416   6.129
13858SOL    HW243414  14.325  11.410   6.276
13859SOL     OW43415   5.486  14.796   2.476
13859SOL    HW143416   5.506  14.706   2.449
13859SOL    HW243417   5.405  14.789   2.526
13860SOL     OW43418   6.061  12.759  11.274
13860SOL    HW143419   6.104  12.687  11.320
13860SOL    HW243420   5.978  12.722  11.243
13861SOL     OW43421  14.467  14.616   3.401
13861SOL    HW143422  14.541  14.676   3.387
13861SOL    HW243423  14.440  14.632   3.491
13862SOL     OW43424   1.429  12.047   3.283
13862SOL    HW143425   1.524  12.046   3.285
13862SOL    HW243426   1.405  11.971   3.230
13863SOL     OW43427   9.816  13.862  11.211
13863SOL    HW143428   9.883  13.793  11.215
13863SOL    HW243429   9.858  13.933  11.161
13864SOL     OW43430  13.407  10.529   3.218
13864SOL    HW143431  13.465  10.466   3.176
13864SOL    HW243432  13.335  10.475   3.253
13865SOL     OW43433   7.164  14.654   7.230
13865SOL    HW143434   7.074  14.623   7.230
13865SOL    HW243435   7.216  14.576   7.211
13866SOL     OW43436  12.513   6.973   3.846
13866SOL    HW143437  12.475   7.047   3.797
13866SOL    HW243438  12.438   6.916   3.864
13867SOL     OW43439  13.468   5.182   4.838
13867SOL    HW143440  13.424   5.213   4.918
13867SOL    HW243441  13.560   5.174   4.864
13868SOL     OW43442   9.309   8.417   5.968
13868SOL    HW143443   9.240   8.353   5.987
13868SOL    HW243444   9.274   8.470   5.897
13869SOL     OW43445   4.980   0.137   7.889
13869SOL    HW143446   4.900   0.084   7.886
13869SOL    HW243447   5.050   0.073   7.906
13870SOL     OW43448  11.563   5.137   3.061
13870SOL    HW143449  11.631   5.190   3.020
13870SOL    HW243450  11.482   5.163   3.016
13871SOL     OW43451  13.454   7.852   3.216
13871SOL    HW143452  13.513   7.785   3.250
13871SOL    HW243453  13.368   7.810   3.211
13872SOL     OW43454  10.801   6.298  10.433
13872SOL    HW143455  10.824   6.349  10.355
13872SOL    HW243456  10.885   6.268  10.468
13873SOL     OW43457  13.758   9.976  14.879
13873SOL    HW143458  13.794   9.890   0.020
13873SOL    HW243459  13.705   9.961  14.800
13874SOL     OW43460   5.108   2.160  13.649
13874SOL    HW143461   5.104   2.252  13.674
13874SOL    HW243462   5.112   2.161  13.553
13875SOL     OW43463   8.454   3.627   3.865
13875SOL    HW143464   8.359   3.614   3.858
13875SOL    HW243465   8.470   3.639   3.958
13876SOL     OW43466   3.969  14.004   2.231
13876SOL    HW143467   3.918  13.944   2.175
13876SOL    HW243468   3.977  13.957   2.314
13877SOL     OW43469   5.781  13.887   1.370
13877SOL    HW143470   5.850  13.852   1.425
13877SOL    HW243471   5.822  13.959   1.322
13878SOL     OW43472   4.366   7.482  13.434
13878SOL    HW143473   4.360   7.506  13.342
13878SOL    HW243474   4.295   7.530  13.476
13879SOL     OW43475  10.763   0.404   7.709
13879SOL    HW143476  10.709   0.480   7.690
13879SOL    HW243477  10.706   0.329   7.694
13880SOL     OW43478   8.976  13.603  13.484
13880SOL    HW143479   8.911  13.653  13.533
13880SOL    HW243480   9.031  13.564  13.552
13881SOL     OW43481  12.638   7.257  10.140
13881SOL    HW143482  12.571   7.274  10.074
13881SOL    HW243483  12.719   7.244  10.090
13882SOL     OW43484   3.359  13.515   0.955
13882SOL    HW143485   3.311  13.597   0.966
13882SOL    HW243486   3.442  13.542   0.916
13883SOL     OW43487   0.874  14.255   3.756
13883SOL    HW143488   0.924  14.238   3.837
13883SOL    HW243489   0.922  14.326   3.714
13884SOL     OW43490   7.771   7.753  10.760
13884SOL    HW143491   7.755   7.816  10.830
13884SOL    HW243492   7.840   7.793  10.708
13885SOL     OW43493  14.578   6.350   8.957
13885SOL    HW143494  14.582   6.297   8.877
13885SOL    HW243495  14.485   6.367   8.971
13886SOL     OW43496   5.942   4.638   3.882
13886SOL    HW143497   5.880   4.695   3.928
13886SOL    HW243498   6.026   4.684   3.887
13887SOL     OW43499   9.549   9.321   4.421
13887SOL    HW143500   9.590   9.394   4.468
13887SOL    HW243501   9.583   9.329   4.332
13888SOL     OW43502  13.288   9.960  12.385
13888SOL    HW143503  13.280  10.055  12.386
13888SOL    HW243504  13.378   9.943  12.357
13889SOL     OW43505   7.372  11.476  13.164
13889SOL    HW143506   7.348  11.493  13.072
13889SOL    HW243507   7.300  11.515  13.214
13890SOL     OW43508   1.001  11.281   2.674
13890SOL    HW143509   1.090  11.294   2.641
13890SOL    HW243510   1.010  11.215   2.742
13891SOL     OW43511   4.487   7.234  13.319
13891SOL    HW143512   4.493   7.325  13.347
13891SOL    HW243513   4.477   7.185  13.400
13892SOL     OW43514  11.062   0.649   8.094
13892SOL    HW143515  10.989   0.710   8.082
13892SOL    HW243516  11.024   0.573   8.139
13893SOL     OW43517   2.788   7.946  12.849
13893SOL    HW143518   2.826   7.882  12.910
13893SOL    HW243519   2.737   7.893  12.788
13894SOL     OW43520  10.431  11.256  11.031
13894SOL    HW143521  10.405  11.238  11.121
13894SOL    HW243522  10.470  11.174  10.999
13895SOL     OW43523   2.482  14.567   9.353
13895SOL    HW143524   2.491  14.573   9.257
13895SOL    HW243525   2.526  14.486   9.376
13896SOL     OW43526   6.588  12.790   4.737
13896SOL    HW143527   6.630  12.850   4.675
13896SOL    HW243528   6.656  12.770   4.801
13897SOL     OW43529   6.460   0.974   8.260
13897SOL    HW143530   6.378   1.009   8.295
13897SOL    HW243531   6.518   0.967   8.336
13898SOL     OW43532  10.280  10.543   3.975
13898SOL    HW143533  10.210  10.478   3.977
13898SOL    HW243534  10.256  10.606   4.044
13899SOL     OW43535  11.778   9.520  10.467
13899SOL    HW143536  11.834   9.446  10.492
13899SOL    HW243537  11.826   9.597  10.497
13900SOL     OW43538  12.317   3.999   4.590
13900SOL    HW143539  12.286   3.964   4.673
13900SOL    HW243540  12.264   4.078   4.576
13901SOL     OW43541   9.262   6.622   2.223
13901SOL    HW143542   9.292   6.592   2.309
13901SOL    HW243543   9.296   6.557   2.162
13902SOL     OW43544  11.864   4.757   7.750
13902SOL    HW143545  11.843   4.677   7.703
13902SOL    HW243546  11.798   4.761   7.820
13903SOL     OW43547  12.432   1.499  12.715
13903SOL    HW143548  12.474   1.495  12.801
13903SOL    HW243549  12.497   1.540  12.658
13904SOL     OW43550   0.673   7.686  12.462
13904SOL    HW143551   0.657   7.747  12.534
13904SOL    HW243552   0.686   7.743  12.386
13905SOL     OW43553  10.702   0.592   6.396
13905SOL    HW143554  10.750   0.670   6.425
13905SOL    HW243555  10.741   0.570   6.312
13906SOL     OW43556   8.726   4.444  12.268
13906SOL    HW143557   8.791   4.449  12.338
13906SOL    HW243558   8.642   4.449  12.312
13907SOL     OW43559  11.377   3.879   1.709
13907SOL    HW143560  11.357   3.904   1.799
13907SOL    HW243561  11.296   3.839   1.677
13908SOL     OW43562  12.073   6.300   7.281
13908SOL    HW143563  12.077   6.262   7.369
13908SOL    HW243564  12.114   6.234   7.225
13909SOL     OW43565  14.448   8.752  13.807
13909SOL    HW143566  14.488   8.712  13.884
13909SOL    HW243567  14.415   8.677  13.756
13910SOL     OW43568   7.746  12.174  13.360
13910SOL    HW143569   7.797  12.114  13.306
13910SOL    HW243570   7.718  12.121  13.435
13911SOL     OW43571   4.541   9.937   8.956
13911SOL    HW143572   4.472   9.871   8.964
13911SOL    HW243573   4.622   9.890   8.974
13912SOL     OW43574   8.992   3.797  13.466
13912SOL    HW143575   9.022   3.817  13.555
13912SOL    HW243576   8.989   3.701  13.463
13913SOL     OW43577   5.022  13.186  13.375
13913SOL    HW143578   4.976  13.231  13.447
13913SOL    HW243579   4.991  13.230  13.296
13914SOL     OW43580   9.524   5.041  14.069
13914SOL    HW143581   9.511   4.997  14.153
13914SOL    HW243582   9.563   4.974  14.013
13915SOL     OW43583  12.328   5.802   6.048
13915SOL    HW143584  12.345   5.742   6.121
13915SOL    HW243585  12.382   5.878   6.065
13916SOL     OW43586  13.899  11.556   1.309
13916SOL    HW143587  13.942  11.574   1.225
13916SOL    HW243588  13.936  11.621   1.369
13917SOL     OW43589   3.989  12.465   8.014
13917SOL    HW143590   3.900  12.440   8.040
13917SOL    HW243591   4.005  12.548   8.058
13918SOL     OW43592  13.754   7.612   6.307
13918SOL    HW143593  13.804   7.693   6.305
13918SOL    HW243594  13.779   7.566   6.227
13919SOL     OW43595  13.347   3.807   8.782
13919SOL    HW143596  13.362   3.875   8.848
13919SOL    HW243597  13.320   3.855   8.704
13920SOL     OW43598   4.309   1.488   0.823
13920SOL    HW143599   4.393   1.442   0.820
13920SOL    HW243600   4.332   1.579   0.838
13921SOL     OW43601  13.326   0.384   2.419
13921SOL    HW143602  13.243   0.338   2.416
13921SOL    HW243603  13.391   0.318   2.395
13922SOL     OW43604  13.331  13.370  14.526
13922SOL    HW143605  13.348  13.288  14.480
13922SOL    HW243606  13.369  13.357  14.613
13923SOL     OW43607   1.971   7.840   1.097
13923SOL    HW143608   1.996   7.919   1.144
13923SOL    HW243609   1.948   7.870   1.009
13924SOL     OW43610  13.336   2.028   6.013
13924SOL    HW143611  13.404   2.070   6.066
13924SOL    HW243612  13.255   2.045   6.061
13925SOL     OW43613   4.523   7.839   4.213
13925SOL    HW143614   4.573   7.784   4.153
13925SOL    HW243615   4.437   7.847   4.171
13926SOL     OW43616   7.408   9.016  12.664
13926SOL    HW143617   7.478   9.060  12.712
13926SOL    HW243618   7.359   9.087  12.623
13927SOL     OW43619   9.330  13.355  10.063
13927SOL    HW143620   9.296  13.268  10.082
13927SOL    HW243621   9.281  13.414  10.120
13928SOL     OW43622   9.631   4.613   8.912
13928SOL    HW143623   9.581   4.550   8.860
13928SOL    HW243624   9.569   4.684   8.930
13929SOL     OW43625   5.681  11.569  11.702
13929SOL    HW143626   5.620  11.542  11.770
13929SOL    HW243627   5.731  11.641  11.741
13930SOL     OW43628   8.211   5.669  14.391
13930SOL    HW143629   8.123   5.706  14.383
13930SOL    HW243630   8.224   5.621  14.309
13931SOL     OW43631  12.649   5.193   6.602
13931SOL    HW143632  12.553   5.190   6.597
13931SOL    HW243633  12.675   5.103   6.624
13932SOL     OW43634   6.739   2.110   1.340
13932SOL    HW143635   6.797   2.112   1.415
13932SOL    HW243636   6.685   2.189   1.349
13933SOL     OW43637  11.908  13.955  10.423
13933SOL    HW143638  11.867  13.941  10.509
13933SOL    HW243639  11.840  13.999  10.371
13934SOL     OW43640  10.738   8.424   8.713
13934SOL    HW143641  10.734   8.345   8.766
13934SOL    HW243642  10.827   8.424   8.677
13935SOL     OW43643   3.209  11.162  11.209
13935SOL    HW143644   3.143  11.229  11.190
13935SOL    HW243645   3.288  11.192  11.163
13936SOL     OW43646   9.876  14.768   7.693
13936SOL    HW143647   9.913  14.853   7.718
13936SOL    HW243648   9.826  14.740   7.770
13937SOL     OW43649   5.193   7.152  14.750
13937SOL    HW143650   5.233   7.218  14.807
13937SOL    HW243651   5.230   7.069  14.780
13938SOL     OW43652  14.140   7.575  10.129
13938SOL    HW143653  14.126   7.544  10.219
13938SOL    HW243654  14.113   7.666  10.130
13939SOL     OW43655   2.123  12.721   0.059
13939SOL    HW143656   2.165  12.718   0.146
13939SOL    HW243657   2.188  12.683   0.000
13940SOL     OW43658  11.989   1.477   5.848
13940SOL    HW143659  12.064   1.479   5.907
13940SOL    HW243660  11.922   1.529   5.892
13941SOL     OW43661   7.183   3.205  13.755
13941SOL    HW143662   7.099   3.192  13.798
13941SOL    HW243663   7.163   3.254  13.675
13942SOL     OW43664  14.083   5.203   5.639
13942SOL    HW143665  14.114   5.121   5.600
13942SOL    HW243666  14.163   5.250   5.663
13943SOL     OW43667   0.518   3.925  13.623
13943SOL    HW143668   0.610   3.938  13.646
13943SOL    HW243669   0.495   3.840  13.661
13944SOL     OW43670   2.651  10.272   7.364
13944SOL    HW143671   2.593  10.344   7.339
13944SOL    HW243672   2.605  10.227   7.434
13945SOL     OW43673   3.484  11.452  14.790
13945SOL    HW143674   3.523  11.370  14.822
13945SOL    HW243675   3.535  11.474  14.712
13946SOL     OW43676   2.798   5.732   4.818
13946SOL    HW143677   2.735   5.666   4.845
13946SOL    HW243678   2.843   5.693   4.742
13947SOL     OW43679  14.463  11.878   2.977
13947SOL    HW143680  14.433  11.800   3.024
13947SOL    HW243681  14.541  11.906   3.025
13948SOL     OW43682   3.633  10.117  12.603
13948SOL    HW143683   3.659  10.208  12.609
13948SOL    HW243684   3.590  10.109  12.517
13949SOL     OW43685  12.033   1.309  11.447
13949SOL    HW143686  11.992   1.375  11.503
13949SOL    HW243687  12.014   1.337  11.358
13950SOL     OW43688   2.650   7.871   3.472
13950SOL    HW143689   2.684   7.785   3.499
13950SOL    HW243690   2.642   7.920   3.554
13951SOL     OW43691   5.252   3.998   7.579
13951SOL    HW143692   5.342   4.004   7.548
13951SOL    HW243693   5.252   3.923   7.639
13952SOL     OW43694  11.189  14.375   0.392
13952SOL    HW143695  11.198  14.323   0.312
13952SOL    HW243696  11.240  14.454   0.375
13953SOL     OW43697   5.864   5.894   5.207
13953SOL    HW143698   5.837   5.839   5.281
13953SOL    HW243699   5.863   5.834   5.132
13954SOL     OW43700   3.183   4.716  12.443
13954SOL    HW143701   3.121   4.675  12.382
13954SOL    HW243702   3.140   4.709  12.528
13955SOL     OW43703   5.568  11.934   1.984
13955SOL    HW143704   5.504  11.897   1.924
13955SOL    HW243705   5.619  11.995   1.931
13956SOL     OW43706   2.612   1.954   2.738
13956SOL    HW143707   2.599   1.964   2.644
13956SOL    HW243708   2.561   1.876   2.762
13957SOL     OW43709   1.512  11.629  12.798
13957SOL    HW143710   1.467  11.583  12.727
13957SOL    HW243711   1.596  11.584  12.807
13958SOL     OW43712   3.767  14.625  11.607
13958SOL    HW143713   3.818  14.577  11.672
13958SOL    HW243714   3.772  14.716  11.635
13959SOL     OW43715   2.034   4.846   0.140
13959SOL    HW143716   1.968   4.882   0.079
13959SOL    HW243717   1.982   4.808   0.211
13960SOL     OW43718  10.509   4.649   6.397
13960SOL    HW143719  10.528   4.743   6.398
13960SOL    HW243720  10.548   4.617   6.315
13961SOL     OW43721  10.414  12.937  11.298
13961SOL    HW143722  10.339  12.900  11.344
13961SOL    HW243723  10.471  12.862  11.281
13962SOL     OW43724   1.743   1.983   7.138
13962SOL    HW143725   1.699   2.023   7.063
13962SOL    HW243726   1.695   2.014   7.214
13963SOL     OW43727   1.309   9.213  10.395
13963SOL    HW143728   1.378   9.148  10.385
13963SOL    HW243729   1.264   9.188  10.475
13964SOL     OW43730   6.480   3.929   5.273
13964SOL    HW143731   6.463   3.891   5.359
13964SOL    HW243732   6.532   4.007   5.291
13965SOL     OW43733   2.644  11.598   3.959
13965SOL    HW143734   2.679  11.656   3.891
13965SOL    HW243735   2.573  11.551   3.915
13966SOL     OW43736   5.152   8.515   5.360
13966SOL    HW143737   5.093   8.583   5.326
13966SOL    HW243738   5.196   8.556   5.434
13967SOL     OW43739   4.779   7.843   0.200
13967SOL    HW143740   4.773   7.870   0.108
13967SOL    HW243741   4.729   7.909   0.248
13968SOL     OW43742   2.153   9.826   0.258
13968SOL    HW143743   2.185   9.791   0.175
13968SOL    HW243744   2.210   9.901   0.276
13969SOL     OW43745   0.388   8.595   1.573
13969SOL    HW143746   0.458   8.661   1.573
13969SOL    HW243747   0.408   8.539   1.498
13970SOL     OW43748   9.668   9.004   2.871
13970SOL    HW143749   9.741   8.992   2.811
13970SOL    HW243750   9.591   8.975   2.821
13971SOL     OW43751   8.728  10.183  14.857
13971SOL    HW143752   8.770  10.100  14.833
13971SOL    HW243753   8.772  10.211   0.057
13972SOL     OW43754  10.442   6.847   6.638
13972SOL    HW143755  10.377   6.787   6.601
13972SOL    HW243756  10.399   6.881   6.717
13973SOL     OW43757   5.930  11.352   5.360
13973SOL    HW143758   5.906  11.413   5.430
13973SOL    HW243759   5.850  11.341   5.309
13974SOL     OW43760   4.375   6.911  11.330
13974SOL    HW143761   4.359   7.003  11.310
13974SOL    HW243762   4.389   6.909  11.425
13975SOL     OW43763   2.842   1.840   7.826
13975SOL    HW143764   2.763   1.823   7.775
13975SOL    HW243765   2.905   1.874   7.762
13976SOL     OW43766   1.867   8.568   7.594
13976SOL    HW143767   1.778   8.544   7.618
13976SOL    HW243768   1.883   8.524   7.510
13977SOL     OW43769   7.828   4.701   8.433
13977SOL    HW143770   7.825   4.707   8.338
13977SOL    HW243771   7.845   4.790   8.463
13978SOL     OW43772   2.573   8.117   5.576
13978SOL    HW143773   2.586   8.088   5.486
13978SOL    HW243774   2.489   8.164   5.574
13979SOL     OW43775  12.806   7.397   0.339
13979SOL    HW143776  12.730   7.363   0.292
13979SOL    HW243777  12.809   7.344   0.419
13980SOL     OW43778   9.943   2.858   5.954
13980SOL    HW143779   9.873   2.842   6.017
13980SOL    HW243780   9.967   2.771   5.921
13981SOL     OW43781   8.218   3.093   6.747
13981SOL    HW143782   8.203   3.002   6.772
13981SOL    HW243783   8.137   3.138   6.770
13982SOL     OW43784   2.648  10.922   2.950
13982SOL    HW143785   2.592  10.894   3.023
13982SOL    HW243786   2.708  10.849   2.936
13983SOL     OW43787   2.925  10.163  11.754
13983SOL    HW143788   2.878  10.227  11.700
13983SOL    HW243789   2.859  10.130  11.815
13984SOL     OW43790   7.138   3.044   7.181
13984SOL    HW143791   7.154   3.139   7.182
13984SOL    HW243792   7.129   3.022   7.088
13985SOL     OW43793   2.134  10.309  12.974
13985SOL    HW143794   2.144  10.397  13.011
13985SOL    HW243795   2.154  10.319  12.881
13986SOL     OW43796   0.474  13.629   6.310
13986SOL    HW143797   0.478  13.676   6.227
13986SOL    HW243798   0.565  13.618   6.336
13987SOL     OW43799   1.402   9.327   7.421
13987SOL    HW143800   1.308   9.349   7.418
13987SOL    HW243801   1.443   9.406   7.456
13988SOL     OW43802   5.755  12.314  14.800
13988SOL    HW143803   5.795  12.358  14.725
13988SOL    HW243804   5.664  12.299  14.773
13989SOL     OW43805   8.744  11.657   4.446
13989SOL    HW143806   8.677  11.632   4.383
13989SOL    HW243807   8.799  11.580   4.456
13990SOL     OW43808   6.571   7.609   0.218
13990SOL    HW143809   6.590   7.554   0.142
13990SOL    HW243810   6.579   7.550   0.293
13991SOL     OW43811  13.200   4.203   6.893
13991SOL    HW143812  13.259   4.245   6.830
13991SOL    HW243813  13.237   4.115   6.904
13992SOL     OW43814   9.079   4.148   8.224
13992SOL    HW143815   9.009   4.177   8.283
13992SOL    HW243816   9.127   4.228   8.202
13993SOL     OW43817   9.493   4.383  13.062
13993SOL    HW143818   9.431   4.373  13.135
13993SOL    HW243819   9.578   4.394  13.104
13994SOL     OW43820   4.564   7.781   3.067
13994SOL    HW143821   4.594   7.738   3.147
13994SOL    HW243822   4.495   7.841   3.097
13995SOL     OW43823   6.706   3.413   3.103
13995SOL    HW143824   6.766   3.483   3.077
13995SOL    HW243825   6.718   3.404   3.198
13996SOL     OW43826   7.449   2.824  10.568
13996SOL    HW143827   7.423   2.752  10.511
13996SOL    HW243828   7.390   2.817  10.644
13997SOL     OW43829  10.509   3.514  11.199
13997SOL    HW143830  10.556   3.545  11.276
13997SOL    HW243831  10.419   3.543  11.212
13998SOL     OW43832  11.367  14.554   0.737
13998SOL    HW143833  11.366  14.458   0.734
13998SOL    HW243834  11.432  14.576   0.803
13999SOL     OW43835   0.369   4.356  10.751
13999SOL    HW143836   0.383   4.324  10.841
13999SOL    HW243837   0.370   4.276  10.698
14000SOL     OW43838  12.775   2.194   5.769
14000SOL    HW143839  12.815   2.277   5.744
14000SOL    HW243840  12.745   2.156   5.687
14001SOL     OW43841  12.862  12.840  13.774
14001SOL    HW143842  12.949  12.849  13.814
14001SOL    HW243843  12.855  12.746  13.756
14002SOL     OW43844  12.266   2.013   9.621
14002SOL    HW143845  12.210   1.941   9.595
14002SOL    HW243846  12.251   2.080   9.554
14003SOL     OW43847  14.811  13.920   8.814
14003SOL    HW143848  14.728  13.930   8.768
14003SOL    HW243849  14.865  13.867   8.755
14004SOL     OW43850   4.314   1.942  10.952
14004SOL    HW143851   4.222   1.922  10.934
14004SOL    HW243852   4.325   2.033  10.926
14005SOL     OW43853   1.986   5.662  10.558
14005SOL    HW143854   1.980   5.612  10.477
14005SOL    HW243855   1.902   5.707  10.565
14006SOL     OW43856   8.681  10.512   4.699
14006SOL    HW143857   8.591  10.486   4.677
14006SOL    HW243858   8.680  10.523   4.794
14007SOL     OW43859  11.952  11.674   7.651
14007SOL    HW143860  12.038  11.651   7.616
14007SOL    HW243861  11.898  11.596   7.636
14008SOL     OW43862   2.268   1.457  12.978
14008SOL    HW143863   2.291   1.453  13.071
14008SOL    HW243864   2.327   1.524  12.942
14009SOL     OW43865  13.460  10.425   0.356
14009SOL    HW143866  13.365  10.440   0.354
14009SOL    HW243867  13.471  10.347   0.410
14010SOL     OW43868   2.013   3.973   5.244
14010SOL    HW143869   2.060   3.993   5.163
14010SOL    HW243870   2.080   3.974   5.312
14011SOL     OW43871   5.222   4.176   4.082
14011SOL    HW143872   5.253   4.266   4.075
14011SOL    HW243873   5.297   4.128   4.119
14012SOL     OW43874   7.675  14.069  11.131
14012SOL    HW143875   7.638  14.152  11.100
14012SOL    HW243876   7.621  14.046  11.207
14013SOL     OW43877  12.864   7.113   2.443
14013SOL    HW143878  12.828   7.075   2.523
14013SOL    HW243879  12.884   7.204   2.466
14014SOL     OW43880  10.621  13.029   0.706
14014SOL    HW143881  10.586  13.023   0.617
14014SOL    HW243882  10.557  13.082   0.754
14015SOL     OW43883   2.854  13.128   5.146
14015SOL    HW143884   2.790  13.144   5.076
14015SOL    HW243885   2.924  13.192   5.129
14016SOL     OW43886  11.542   4.895  11.805
14016SOL    HW143887  11.503   4.947  11.735
14016SOL    HW243888  11.556   4.956  11.877
14017SOL     OW43889  14.278  12.948   5.264
14017SOL    HW143890  14.189  12.917   5.247
14017SOL    HW243891  14.298  13.006   5.191
14018SOL     OW43892   9.195   7.036   2.653
14018SOL    HW143893   9.159   6.950   2.634
14018SOL    HW243894   9.149   7.095   2.594
14019SOL     OW43895   6.959   4.764   4.745
14019SOL    HW143896   6.903   4.690   4.721
14019SOL    HW243897   6.925   4.838   4.694
14020SOL     OW43898   9.616  11.508   6.783
14020SOL    HW143899   9.539  11.563   6.775
14020SOL    HW243900   9.597  11.431   6.728
14021SOL     OW43901   4.913   9.484   6.759
14021SOL    HW143902   4.864   9.483   6.677
14021SOL    HW243903   4.977   9.555   6.749
14022SOL     OW43904  13.685   9.222  10.034
14022SOL    HW143905  13.597   9.191  10.056
14022SOL    HW243906  13.743   9.169  10.088
14023SOL     OW43907   8.473   2.879   6.287
14023SOL    HW143908   8.524   2.880   6.368
14023SOL    HW243909   8.411   2.952   6.296
14024SOL     OW43910  11.104  12.992  13.822
14024SOL    HW143911  11.119  13.070  13.876
14024SOL    HW243912  11.013  12.967  13.840
14025SOL     OW43913   4.471   9.791   9.355
14025SOL    HW143914   4.482   9.736   9.278
14025SOL    HW243915   4.415   9.864   9.326
14026SOL     OW43916   1.395   1.205  13.647
14026SOL    HW143917   1.301   1.205  13.628
14026SOL    HW243918   1.402   1.240  13.736
14027SOL     OW43919   8.115   1.503   0.190
14027SOL    HW143920   8.039   1.448   0.210
14027SOL    HW243921   8.081   1.571   0.131
14028SOL     OW43922   2.615   0.313  11.001
14028SOL    HW143923   2.657   0.229  11.021
14028SOL    HW243924   2.682   0.363  10.954
14029SOL     OW43925   8.884   6.143  14.098
14029SOL    HW143926   8.906   6.206  14.166
14029SOL    HW243927   8.929   6.176  14.020
14030SOL     OW43928  14.143   5.537   7.572
14030SOL    HW143929  14.212   5.475   7.549
14030SOL    HW243930  14.072   5.519   7.511
14031SOL     OW43931   4.693  10.871   2.017
14031SOL    HW143932   4.755  10.860   2.089
14031SOL    HW243933   4.645  10.789   2.014
14032SOL     OW43934  11.806  13.324   0.615
14032SOL    HW143935  11.887  13.278   0.636
14032SOL    HW243936  11.740  13.256   0.608
14033SOL     OW43937   6.293   6.592  14.682
14033SOL    HW143938   6.275   6.511  14.634
14033SOL    HW243939   6.290   6.567  14.774
14034SOL     OW43940   1.886   1.028  13.485
14034SOL    HW143941   1.868   1.010  13.577
14034SOL    HW243942   1.934   1.111  13.485
14035SOL     OW43943   8.769  10.443   9.531
14035SOL    HW143944   8.808  10.360   9.558
14035SOL    HW243945   8.675  10.430   9.543
14036SOL     OW43946  13.086   9.194  11.665
14036SOL    HW143947  13.169   9.181  11.619
14036SOL    HW243948  13.077   9.117  11.722
14037SOL     OW43949   5.060  12.158   8.496
14037SOL    HW143950   5.118  12.196   8.562
14037SOL    HW243951   5.050  12.227   8.430
14038SOL     OW43952  14.645  14.830  10.375
14038SOL    HW143953  14.727  14.869  10.346
14038SOL    HW243954  14.578   0.013  10.350
14039SOL     OW43955   8.207   1.391  12.467
14039SOL    HW143956   8.298   1.361  12.467
14039SOL    HW243957   8.162   1.335  12.404
14040SOL     OW43958  12.716   2.791   2.707
14040SOL    HW143959  12.648   2.838   2.754
14040SOL    HW243960  12.792   2.849   2.707
14041SOL     OW43961  14.209   0.050   1.200
14041SOL    HW143962  14.267  14.867   1.158
14041SOL    HW243963  14.223   0.132   1.153
14042SOL     OW43964   9.648   9.211   8.996
14042SOL    HW143965   9.567   9.160   8.990
14042SOL    HW243966   9.667   9.214   9.090
14043SOL     OW43967   3.218   5.023   5.768
14043SOL    HW143968   3.310   5.048   5.775
14043SOL    HW243969   3.170   5.106   5.766
14044SOL     OW43970  12.013   5.270   1.701
14044SOL    HW143971  12.097   5.294   1.741
14044SOL    HW243972  12.027   5.181   1.668
14045SOL     OW43973   7.155   1.132  14.335
14045SOL    HW143974   7.098   1.131  14.413
14045SOL    HW243975   7.122   1.059  14.281
14046SOL     OW43976   5.319   8.858   2.464
14046SOL    HW143977   5.376   8.859   2.542
14046SOL    HW243978   5.353   8.930   2.410
14047SOL     OW43979   9.979   6.542   0.064
14047SOL    HW143980   9.945   6.482  14.878
14047SOL    HW243981  10.055   6.583   0.023
14048SOL     OW43982  14.635   8.361   2.938
14048SOL    HW143983  14.605   8.271   2.954
14048SOL    HW243984  14.727   8.352   2.915
14049SOL     OW43985  11.118   7.382  10.930
14049SOL    HW143986  11.157   7.340  11.007
14049SOL    HW243987  11.142   7.325  10.857
14050SOL     OW43988  11.563   8.887   4.273
14050SOL    HW143989  11.635   8.937   4.235
14050SOL    HW243990  11.604   8.832   4.339
14051SOL     OW43991  11.211   5.315  14.016
14051SOL    HW143992  11.133   5.266  14.041
14051SOL    HW243993  11.196   5.339  13.925
14052SOL     OW43994   6.204   5.126  12.510
14052SOL    HW143995   6.269   5.078  12.561
14052SOL    HW243996   6.200   5.213  12.551
14053SOL     OW43997  14.537   9.799   9.749
14053SOL    HW143998  14.584   9.717   9.734
14053SOL    HW243999  14.452   9.786   9.707
14054SOL     OW44000   0.808  13.947   1.166
14054SOL    HW144001   0.715  13.923   1.164
14054SOL    HW244002   0.827  13.962   1.258
14055SOL     OW44003   9.168   6.436  14.574
14055SOL    HW144004   9.257   6.413  14.547
14055SOL    HW244005   9.177   6.524  14.611
14056SOL     OW44006  12.081   8.956  12.727
14056SOL    HW144007  12.128   8.947  12.810
14056SOL    HW244008  12.131   9.020  12.678
14057SOL     OW44009   9.791  14.869  11.689
14057SOL    HW144010   9.815   0.069  11.736
14057SOL    HW244011   9.745   0.020  11.611
14058SOL     OW44012   1.673   4.683   5.584
14058SOL    HW144013   1.652   4.666   5.676
14058SOL    HW244014   1.766   4.662   5.576
14059SOL     OW44015  12.394   2.750   1.903
14059SOL    HW144016  12.460   2.817   1.885
14059SOL    HW244017  12.404   2.686   1.832
14060SOL     OW44018   8.844   4.189   6.005
14060SOL    HW144019   8.834   4.263   6.065
14060SOL    HW244020   8.918   4.139   6.041
14061SOL     OW44021  13.667  10.168   7.292
14061SOL    HW144022  13.572  10.160   7.280
14061SOL    HW244023  13.687  10.107   7.363
14062SOL     OW44024   2.432   0.404   6.797
14062SOL    HW144025   2.423   0.367   6.710
14062SOL    HW244026   2.476   0.488   6.783
14063SOL     OW44027   0.333   1.686  10.551
14063SOL    HW144028   0.368   1.772  10.527
14063SOL    HW244029   0.367   1.627  10.484
14064SOL     OW44030   9.943   6.443   2.931
14064SOL    HW144031   9.870   6.401   2.884
14064SOL    HW244032  10.009   6.374   2.938
14065SOL     OW44033   0.880   5.435  10.797
14065SOL    HW144034   0.850   5.462  10.710
14065SOL    HW244035   0.880   5.516  10.848
14066SOL     OW44036   1.245   3.956   9.979
14066SOL    HW144037   1.258   3.963  10.073
14066SOL    HW244038   1.327   3.988   9.941
14067SOL     OW44039  10.881  13.542  14.570
14067SOL    HW144040  10.798  13.499  14.591
14067SOL    HW244041  10.866  13.634  14.593
14068SOL     OW44042  13.043  13.164   5.879
14068SOL    HW144043  12.953  13.138   5.900
14068SOL    HW244044  13.098  13.100   5.924
14069SOL     OW44045   3.386   2.369   1.756
14069SOL    HW144046   3.452   2.388   1.822
14069SOL    HW244047   3.395   2.438   1.691
14070SOL     OW44048  11.936   8.603   2.559
14070SOL    HW144049  11.954   8.592   2.465
14070SOL    HW244050  12.021   8.623   2.598
14071SOL     OW44051   2.972   3.359  12.256
14071SOL    HW144052   2.958   3.450  12.230
14071SOL    HW244053   2.914   3.308  12.199
14072SOL     OW44054   1.996  10.886  10.218
14072SOL    HW144055   1.994  10.947  10.292
14072SOL    HW244056   1.933  10.817  10.242
14073SOL     OW44057   7.481   3.373   2.165
14073SOL    HW144058   7.385   3.379   2.168
14073SOL    HW244059   7.510   3.437   2.230
14074SOL     OW44060   8.291   3.950  12.534
14074SOL    HW144061   8.210   3.959  12.584
14074SOL    HW244062   8.347   3.896  12.590
14075SOL     OW44063   7.333  13.899   9.811
14075SOL    HW144064   7.373  13.967   9.757
14075SOL    HW244065   7.289  13.842   9.748
14076SOL     OW44066   5.939   3.049  13.095
14076SOL    HW144067   5.915   2.966  13.136
14076SOL    HW244068   5.947   3.110  13.168
14077SOL     OW44069   8.101  11.783   3.184
14077SOL    HW144070   8.191  11.767   3.156
14077SOL    HW244071   8.102  11.873   3.218
14078SOL     OW44072   2.423   1.874  12.565
14078SOL    HW144073   2.330   1.881  12.588
14078SOL    HW244074   2.428   1.797  12.509
14079SOL     OW44075  13.103   9.784   8.865
14079SOL    HW144076  13.100   9.876   8.837
14079SOL    HW244077  13.183   9.777   8.916
14080SOL     OW44078  14.421   5.118  14.719
14080SOL    HW144079  14.427   5.213  14.710
14080SOL    HW244080  14.504   5.093  14.760
14081SOL     OW44081  13.104   2.449  10.950
14081SOL    HW144082  13.071   2.513  10.886
14081SOL    HW244083  13.026   2.400  10.977
14082SOL     OW44084   8.748   5.237   9.511
14082SOL    HW144085   8.739   5.306   9.577
14082SOL    HW244086   8.711   5.275   9.431
14083SOL     OW44087   3.871   2.961   5.223
14083SOL    HW144088   3.900   3.028   5.284
14083SOL    HW244089   3.778   2.980   5.209
14084SOL     OW44090  13.874  14.118   4.054
14084SOL    HW144091  13.963  14.092   4.030
14084SOL    HW244092  13.870  14.212   4.037
14085SOL     OW44093  13.574   2.207   9.817
14085SOL    HW144094  13.604   2.197   9.907
14085SOL    HW244095  13.492   2.157   9.813
14086SOL     OW44096   2.525  12.470  13.865
14086SOL    HW144097   2.490  12.397  13.814
14086SOL    HW244098   2.580  12.430  13.931
14087SOL     OW44099  13.871  14.731   0.666
14087SOL    HW144100  13.846  14.777   0.586
14087SOL    HW244101  13.794  14.739   0.723
14088SOL     OW44102  10.451   0.178   1.080
14088SOL    HW144103  10.364   0.177   1.119
14088SOL    HW244104  10.476   0.086   1.074
14089SOL     OW44105   7.510   0.546  14.761
14089SOL    HW144106   7.496   0.633  14.797
14089SOL    HW244107   7.584   0.511  14.810
14090SOL     OW44108  14.288   4.037   6.912
14090SOL    HW144109  14.374   4.074   6.931
14090SOL    HW244110  14.229   4.113   6.910
14091SOL     OW44111   1.790   3.609  12.747
14091SOL    HW144112   1.804   3.515  12.756
14091SOL    HW244113   1.862   3.649  12.796
14092SOL     OW44114   4.960   3.410   8.666
14092SOL    HW144115   4.899   3.353   8.712
14092SOL    HW244116   4.907   3.486   8.641
14093SOL     OW44117  10.375   8.722  13.869
14093SOL    HW144118  10.412   8.766  13.946
14093SOL    HW244119  10.347   8.794  13.812
14094SOL     OW44120   8.044   6.961   4.059
14094SOL    HW144121   8.113   7.017   4.024
14094SOL    HW244122   7.988   7.020   4.109
14095SOL     OW44123   9.181  13.965   2.137
14095SOL    HW144124   9.165  14.055   2.165
14095SOL    HW244125   9.148  13.911   2.208
14096SOL     OW44126  11.066   8.371   5.775
14096SOL    HW144127  11.150   8.410   5.800
14096SOL    HW244128  11.001   8.423   5.822
14097SOL     OW44129  11.460   1.195  13.603
14097SOL    HW144130  11.477   1.273  13.550
14097SOL    HW244131  11.367   1.177  13.590
14098SOL     OW44132   8.567   5.141   7.022
14098SOL    HW144133   8.579   5.232   6.994
14098SOL    HW244134   8.498   5.107   6.964
14099SOL     OW44135   2.614   3.982   7.160
14099SOL    HW144136   2.597   4.008   7.069
14099SOL    HW244137   2.584   4.056   7.212
14100SOL     OW44138   0.237  13.069   4.011
14100SOL    HW144139   0.266  13.139   4.070
14100SOL    HW244140   0.160  13.106   3.967
14101SOL     OW44141   7.720  10.624   9.121
14101SOL    HW144142   7.798  10.662   9.080
14101SOL    HW244143   7.650  10.641   9.058
14102SOL     OW44144  13.830   4.721  13.501
14102SOL    HW144145  13.841   4.674  13.584
14102SOL    HW244146  13.861   4.809  13.519
14103SOL     OW44147   1.187   6.017  12.321
14103SOL    HW144148   1.241   5.982  12.250
14103SOL    HW244149   1.242   6.085  12.361
14104SOL     OW44150   3.302  12.578  13.977
14104SOL    HW144151   3.273  12.490  13.956
14104SOL    HW244152   3.311  12.621  13.891
14105SOL     OW44153   3.640   5.375   6.976
14105SOL    HW144154   3.547   5.364   6.995
14105SOL    HW244155   3.685   5.313   7.033
14106SOL     OW44156  14.597   9.306  13.939
14106SOL    HW144157  14.581   9.382  13.995
14106SOL    HW244158  14.690   9.313  13.916
14107SOL     OW44159   8.344   5.457   0.166
14107SOL    HW144160   8.293   5.378   0.184
14107SOL    HW244161   8.279   5.526   0.155
14108SOL     OW44162   0.751   2.925  14.374
14108SOL    HW144163   0.823   2.987  14.388
14108SOL    HW244164   0.673   2.980  14.370
14109SOL     OW44165   1.264  14.732   1.986
14109SOL    HW144166   1.350  14.775   1.983
14109SOL    HW244167   1.251  14.711   2.079
14110SOL     OW44168   6.749   0.806   7.941
14110SOL    HW144169   6.776   0.715   7.927
14110SOL    HW244170   6.691   0.826   7.868
14111SOL     OW44171   1.103  11.925   9.443
14111SOL    HW144172   1.091  11.865   9.516
14111SOL    HW244173   1.198  11.936   9.437
14112SOL     OW44174  11.027   8.396  10.000
14112SOL    HW144175  10.946   8.401   9.950
14112SOL    HW244176  11.095   8.378   9.934
14113SOL     OW44177  11.218   9.274   5.024
14113SOL    HW144178  11.174   9.245   4.944
14113SOL    HW244179  11.163   9.241   5.095
14114SOL     OW44180  14.364   2.389   8.927
14114SOL    HW144181  14.352   2.376   9.021
14114SOL    HW244182  14.449   2.349   8.909
14115SOL     OW44183   0.181  10.166   8.865
14115SOL    HW144184   0.165  10.098   8.800
14115SOL    HW244185   0.210  10.242   8.814
14116SOL     OW44186  13.343   3.149   5.072
14116SOL    HW144187  13.388   3.069   5.101
14116SOL    HW244188  13.392   3.177   4.995
14117SOL     OW44189  13.554   2.722   7.608
14117SOL    HW144190  13.599   2.790   7.659
14117SOL    HW244191  13.530   2.766   7.526
14118SOL     OW44192  12.782   0.313  11.268
14118SOL    HW144193  12.856   0.291  11.324
14118SOL    HW244194  12.763   0.405  11.287
14119SOL     OW44195  14.157   4.102   5.772
14119SOL    HW144196  14.108   4.091   5.691
14119SOL    HW244197  14.090   4.113   5.840
14120SOL     OW44198   3.603   4.967   9.471
14120SOL    HW144199   3.566   4.946   9.557
14120SOL    HW244200   3.539   4.933   9.408
14121SOL     OW44201   3.645  11.683  14.636
14121SOL    HW144202   3.675  11.774  14.647
14121SOL    HW244203   3.575  11.689  14.572
14122SOL     OW44204  14.854  10.458   6.646
14122SOL    HW144205   0.065  10.481   6.668
14122SOL    HW244206  14.859  10.421   6.558
14123SOL     OW44207   8.293  12.297   8.354
14123SOL    HW144208   8.236  12.334   8.287
14123SOL    HW244209   8.333  12.221   8.313
14124SOL     OW44210   5.862  12.045   4.111
14124SOL    HW144211   5.947  12.042   4.154
14124SOL    HW244212   5.800  12.063   4.181
14125SOL     OW44213   2.329  10.087  13.032
14125SOL    HW144214   2.243  10.128  13.031
14125SOL    HW244215   2.310   9.993  13.031
14126SOL     OW44216  13.339  10.713   2.239
14126SOL    HW144217  13.310  10.783   2.182
14126SOL    HW244218  13.434  10.723   2.244
14127SOL     OW44219   5.467   5.889  12.175
14127SOL    HW144220   5.474   5.897  12.270
14127SOL    HW244221   5.439   5.976  12.146
14128SOL     OW44222   1.651  11.238   4.301
14128SOL    HW144223   1.699  11.266   4.222
14128SOL    HW244224   1.710  11.178   4.345
14129SOL     OW44225   9.878  11.820  13.517
14129SOL    HW144226   9.901  11.791  13.605
14129SOL    HW244227   9.860  11.739  13.469
14130SOL     OW44228  12.296  11.445  11.212
14130SOL    HW144229  12.381  11.475  11.243
14130SOL    HW244230  12.303  11.349  11.211
14131SOL     OW44231   2.482  13.785   5.042
14131SOL    HW144232   2.522  13.844   4.978
14131SOL    HW244233   2.545  13.783   5.115
14132SOL     OW44234  12.377   3.310  12.281
14132SOL    HW144235  12.314   3.265  12.337
14132SOL    HW244236  12.406   3.385  12.332
14133SOL     OW44237  10.990   7.593   8.646
14133SOL    HW144238  10.985   7.506   8.684
14133SOL    HW244239  10.954   7.583   8.558
14134SOL     OW44240   3.879   2.470   1.983
14134SOL    HW144241   3.867   2.563   2.002
14134SOL    HW244242   3.965   2.464   1.941
14135SOL     OW44243   0.140  11.794   8.437
14135SOL    HW144244   0.206  11.772   8.371
14135SOL    HW244245   0.062  11.746   8.410
14136SOL     OW44246   3.322   0.972   1.381
14136SOL    HW144247   3.239   0.924   1.385
14136SOL    HW244248   3.377   0.922   1.321
14137SOL     OW44249   1.082   1.788   7.598
14137SOL    HW144250   1.087   1.746   7.512
14137SOL    HW244251   1.153   1.852   7.598
14138SOL     OW44252   6.153  11.357   7.667
14138SOL    HW144253   6.124  11.446   7.688
14138SOL    HW244254   6.153  11.312   7.752
14139SOL     OW44255   2.517  11.709   7.187
14139SOL    HW144256   2.580  11.651   7.146
14139SOL    HW244257   2.517  11.684   7.279
14140SOL     OW44258  11.212   4.104  14.270
14140SOL    HW144259  11.136   4.160  14.253
14140SOL    HW244260  11.279   4.164  14.302
14141SOL     OW44261   3.069  14.660   6.971
14141SOL    HW144262   3.037  14.586   7.023
14141SOL    HW244263   2.990  14.708   6.946
14142SOL     OW44264   4.063   4.050   3.240
14142SOL    HW144265   4.148   4.078   3.273
14142SOL    HW244266   4.003   4.061   3.314
14143SOL     OW44267  10.261   9.713  12.400
14143SOL    HW144268  10.245   9.780  12.466
14143SOL    HW244269  10.332   9.660  12.436
14144SOL     OW44270   8.309   0.240  12.008
14144SOL    HW144271   8.391   0.260  11.962
14144SOL    HW244272   8.314   0.146  12.025
14145SOL     OW44273   2.924  13.050  10.926
14145SOL    HW144274   2.937  13.134  10.882
14145SOL    HW244275   2.829  13.043  10.936
14146SOL     OW44276  12.185   3.232   7.132
14146SOL    HW144277  12.279   3.213   7.144
14146SOL    HW244278  12.162   3.285   7.208
14147SOL     OW44279   2.620   1.230  14.113
14147SOL    HW144280   2.703   1.214  14.158
14147SOL    HW244281   2.566   1.154  14.135
14148SOL     OW44282  12.114  11.370   6.594
14148SOL    HW144283  12.059  11.442   6.562
14148SOL    HW244284  12.081  11.293   6.548
14149SOL     OW44285   3.270  13.264   6.536
14149SOL    HW144286   3.272  13.276   6.631
14149SOL    HW244287   3.236  13.175   6.524
14150SOL     OW44288   3.380   6.678   7.936
14150SOL    HW144289   3.345   6.748   7.881
14150SOL    HW244290   3.324   6.602   7.917
14151SOL     OW44291  14.493   6.542  13.874
14151SOL    HW144292  14.540   6.534  13.791
14151SOL    HW244293  14.404   6.567  13.849
14152SOL     OW44294  12.176   7.617   6.777
14152SOL    HW144295  12.208   7.551   6.837
14152SOL    HW244296  12.144   7.567   6.701
14153SOL     OW44297  10.048   8.486  10.840
14153SOL    HW144298  10.135   8.492  10.801
14153SOL    HW244299  10.064   8.489  10.935
14154SOL     OW44300   3.440   3.658  11.553
14154SOL    HW144301   3.433   3.567  11.523
14154SOL    HW244302   3.358   3.676  11.597
14155SOL     OW44303  12.241   5.698   0.257
14155SOL    HW144304  12.178   5.718   0.327
14155SOL    HW244305  12.198   5.630   0.205
14156SOL     OW44306   9.946   5.997   4.809
14156SOL    HW144307   9.951   5.902   4.802
14156SOL    HW244308   9.996   6.018   4.888
14157SOL     OW44309  13.752  10.697   4.879
14157SOL    HW144310  13.817  10.754   4.920
14157SOL    HW244311  13.775  10.609   4.909
14158SOL     OW44312   8.530  12.787   1.874
14158SOL    HW144313   8.437  12.765   1.882
14158SOL    HW244314   8.532  12.858   1.809
14159SOL     OW44315   6.967  14.589  11.037
14159SOL    HW144316   6.909  14.663  11.017
14159SOL    HW244317   7.029  14.586  10.965
14160SOL     OW44318   9.428   2.394   8.131
14160SOL    HW144319   9.469   2.480   8.144
14160SOL    HW244320   9.464   2.363   8.048
14161SOL     OW44321   4.489   5.728   8.653
14161SOL    HW144322   4.399   5.759   8.654
14161SOL    HW244323   4.540   5.803   8.622
14162SOL     OW44324   5.916   5.951  11.638
14162SOL    HW144325   5.925   5.872  11.691
14162SOL    HW244326   5.877   6.015  11.697
14163SOL     OW44327   2.009   2.491  12.312
14163SOL    HW144328   1.918   2.467  12.329
14163SOL    HW244329   2.059   2.448  12.382
14164SOL     OW44330  13.138   6.966   3.288
14164SOL    HW144331  13.121   6.964   3.194
14164SOL    HW244332  13.233   6.963   3.294
14165SOL     OW44333   0.701  11.892   5.967
14165SOL    HW144334   0.751  11.936   6.035
14165SOL    HW244335   0.614  11.933   5.970
14166SOL     OW44336   7.839   7.615   7.288
14166SOL    HW144337   7.784   7.540   7.311
14166SOL    HW244338   7.916   7.577   7.246
14167SOL     OW44339   9.009   1.345  10.090
14167SOL    HW144340   9.046   1.282  10.153
14167SOL    HW244341   9.049   1.322  10.007
14168SOL     OW44342   5.916   3.464   3.181
14168SOL    HW144343   5.822   3.451   3.193
14168SOL    HW244344   5.924   3.506   3.095
14169SOL     OW44345   5.073   3.864  14.190
14169SOL    HW144346   5.071   3.768  14.192
14169SOL    HW244347   5.055   3.886  14.099
14170SOL     OW44348   0.204  14.678   0.294
14170SOL    HW144349   0.110  14.687   0.274
14170SOL    HW244350   0.228  14.764   0.330
14171SOL     OW44351  14.407   4.649   1.539
14171SOL    HW144352  14.498   4.674   1.552
14171SOL    HW244353  14.411   4.557   1.513
14172SOL     OW44354   7.786   2.201   6.928
14172SOL    HW144355   7.828   2.116   6.914
14172SOL    HW244356   7.832   2.260   6.868
14173SOL     OW44357   1.517  12.570   7.512
14173SOL    HW144358   1.467  12.584   7.593
14173SOL    HW244359   1.591  12.517   7.539
14174SOL     OW44360   0.115   0.899   4.231
14174SOL    HW144361   0.126   0.993   4.247
14174SOL    HW244362   0.130   0.889   4.137
14175SOL     OW44363   7.872   7.361  12.353
14175SOL    HW144364   7.897   7.419  12.425
14175SOL    HW244365   7.947   7.362  12.294
14176SOL     OW44366   8.227   3.929   2.665
14176SOL    HW144367   8.233   3.834   2.667
14176SOL    HW244368   8.161   3.951   2.731
14177SOL     OW44369  12.398  10.750   1.372
14177SOL    HW144370  12.363  10.839   1.380
14177SOL    HW244371  12.493  10.762   1.369
14178SOL     OW44372   5.041   2.530   0.787
14178SOL    HW144373   5.106   2.472   0.748
14178SOL    HW244374   5.003   2.478   0.859
14179SOL     OW44375  11.122   8.391  10.820
14179SOL    HW144376  11.150   8.387  10.728
14179SOL    HW244377  11.030   8.365  10.818
14180SOL     OW44378  14.261  12.433   8.919
14180SOL    HW144379  14.347  12.427   8.960
14180SOL    HW244380  14.271  12.502   8.853
14181SOL     OW44381  14.505   3.144   2.328
14181SOL    HW144382  14.539   3.083   2.262
14181SOL    HW244383  14.555   3.224   2.315
14182SOL     OW44384  11.603   3.784   3.596
14182SOL    HW144385  11.614   3.813   3.686
14182SOL    HW244386  11.544   3.709   3.601
14183SOL     OW44387   2.886   1.538   8.048
14183SOL    HW144388   2.808   1.592   8.033
14183SOL    HW244389   2.959   1.599   8.039
14184SOL     OW44390  12.315   2.850   0.393
14184SOL    HW144391  12.295   2.938   0.361
14184SOL    HW244392  12.411   2.847   0.395
14185SOL     OW44393   0.649   1.787   2.984
14185SOL    HW144394   0.726   1.843   2.994
14185SOL    HW244395   0.584   1.844   2.943
14186SOL     OW44396  14.018  14.467  12.778
14186SOL    HW144397  14.017  14.557  12.808
14186SOL    HW244398  14.011  14.414  12.858
14187SOL     OW44399   6.030   3.686   2.414
14187SOL    HW144400   6.040   3.721   2.326
14187SOL    HW244401   6.120   3.668   2.443
14188SOL     OW44402  13.427  12.071   6.503
14188SOL    HW144403  13.373  12.005   6.460
14188SOL    HW244404  13.435  12.041   6.594
14189SOL     OW44405   0.982   8.743   5.756
14189SOL    HW144406   1.019   8.676   5.698
14189SOL    HW244407   1.059   8.786   5.794
14190SOL     OW44408  14.620   2.775   9.291
14190SOL    HW144409  14.571   2.820   9.360
14190SOL    HW244410  14.605   2.828   9.212
14191SOL     OW44411  10.502   1.692  13.089
14191SOL    HW144412  10.545   1.607  13.098
14191SOL    HW244413  10.558   1.742  13.030
14192SOL     OW44414  11.927   8.935   6.274
14192SOL    HW144415  12.004   8.969   6.229
14192SOL    HW244416  11.962   8.875   6.341
14193SOL     OW44417  12.559   1.452  12.956
14193SOL    HW144418  12.552   1.511  13.031
14193SOL    HW244419  12.639   1.402  12.973
14194SOL     OW44420  11.613   2.236   2.575
14194SOL    HW144421  11.611   2.268   2.484
14194SOL    HW244422  11.617   2.316   2.628
14195SOL     OW44423   7.217  14.257   0.738
14195SOL    HW144424   7.223  14.227   0.829
14195SOL    HW244425   7.291  14.216   0.694
14196SOL     OW44426  12.712   6.798   1.715
14196SOL    HW144427  12.793   6.753   1.691
14196SOL    HW244428  12.732   6.838   1.800
14197SOL     OW44429   8.190   3.935  11.301
14197SOL    HW144430   8.107   3.968  11.267
14197SOL    HW244431   8.179   3.840  11.306
14198SOL     OW44432   1.652   6.222   0.986
14198SOL    HW144433   1.659   6.291   0.920
14198SOL    HW244434   1.573   6.174   0.963
14199SOL     OW44435   8.907  14.729  10.535
14199SOL    HW144436   8.870  14.657  10.483
14199SOL    HW244437   8.972  14.769  10.478
14200SOL     OW44438   7.913   2.230  14.106
14200SOL    HW144439   7.946   2.230  14.196
14200SOL    HW244440   7.965   2.163  14.061
14201SOL     OW44441   5.756   0.973  12.306
14201SOL    HW144442   5.755   1.064  12.275
14201SOL    HW244443   5.747   0.921  12.226
14202SOL     OW44444  14.319   8.673   6.425
14202SOL    HW144445  14.352   8.630   6.503
14202SOL    HW244446  14.224   8.674   6.436
14203SOL     OW44447   9.218   7.681   1.653
14203SOL    HW144448   9.154   7.660   1.721
14203SOL    HW244449   9.208   7.611   1.589
14204SOL     OW44450  11.624   8.166   7.782
14204SOL    HW144451  11.595   8.216   7.858
14204SOL    HW244452  11.553   8.174   7.719
14205SOL     OW44453   4.357  10.841   7.210
14205SOL    HW144454   4.428  10.808   7.156
14205SOL    HW244455   4.317  10.763   7.249
14206SOL     OW44456   5.461   6.175   9.530
14206SOL    HW144457   5.502   6.166   9.616
14206SOL    HW244458   5.373   6.139   9.541
14207SOL     OW44459  13.974   4.652  11.925
14207SOL    HW144460  13.962   4.583  11.861
14207SOL    HW244461  14.037   4.616  11.988
14208SOL     OW44462   1.532   8.322   1.737
14208SOL    HW144463   1.514   8.234   1.703
14208SOL    HW244464   1.539   8.376   1.658
14209SOL     OW44465   7.433   2.952   5.486
14209SOL    HW144466   7.349   2.996   5.472
14209SOL    HW244467   7.449   2.902   5.406
14210SOL     OW44468   2.113   3.664   8.135
14210SOL    HW144469   2.187   3.618   8.095
14210SOL    HW244470   2.081   3.723   8.066
14211SOL     OW44471  11.501  14.642  13.032
14211SOL    HW144472  11.584  14.660  13.076
14211SOL    HW244473  11.444  14.716  13.055
14212SOL     OW44474  13.276   2.156  13.505
14212SOL    HW144475  13.261   2.062  13.510
14212SOL    HW244476  13.308   2.171  13.416
14213SOL     OW44477   1.352   6.787  14.720
14213SOL    HW144478   1.321   6.797  14.630
14213SOL    HW244479   1.395   6.870  14.740
14214SOL     OW44480   0.703   6.571   8.646
14214SOL    HW144481   0.773   6.636   8.639
14214SOL    HW244482   0.730   6.515   8.719
14215SOL     OW44483  11.269  11.456   0.524
14215SOL    HW144484  11.247  11.549   0.512
14215SOL    HW244485  11.290  11.425   0.436
14216SOL     OW44486   6.387   6.477  13.990
14216SOL    HW144487   6.330   6.537  14.039
14216SOL    HW244488   6.411   6.410  14.054
14217SOL     OW44489  10.093   8.620  13.177
14217SOL    HW144490  10.181   8.619  13.140
14217SOL    HW244491  10.044   8.678  13.118
14218SOL     OW44492  11.779   2.341   5.731
14218SOL    HW144493  11.742   2.253   5.723
14218SOL    HW244494  11.762   2.383   5.647
14219SOL     OW44495  10.496   2.249   7.506
14219SOL    HW144496  10.548   2.180   7.549
14219SOL    HW244497  10.534   2.255   7.418
14220SOL     OW44498   1.054  14.234   5.502
14220SOL    HW144499   1.041  14.182   5.582
14220SOL    HW244500   0.983  14.298   5.504
14221SOL     OW44501   1.612   9.322  13.422
14221SOL    HW144502   1.649   9.234  13.418
14221SOL    HW244503   1.590   9.335  13.514
14222SOL     OW44504   8.023   7.718   2.324
14222SOL    HW144505   7.959   7.648   2.331
14222SOL    HW244506   8.083   7.704   2.398
14223SOL     OW44507   4.277   9.086   8.966
14223SOL    HW144508   4.360   9.054   8.930
14223SOL    HW244509   4.228   9.007   8.986
14224SOL     OW44510  14.794  10.745   2.046
14224SOL    HW144511  14.762  10.755   2.136
14224SOL    HW244512  14.741  10.805   1.995
14225SOL     OW44513   4.028  14.561  13.010
14225SOL    HW144514   4.118  14.548  12.981
14225SOL    HW244515   3.982  14.481  12.985
14226SOL     OW44516   0.824   7.514   6.764
14226SOL    HW144517   0.817   7.419   6.761
14226SOL    HW244518   0.735   7.544   6.782
14227SOL     OW44519  14.288   5.300  11.974
14227SOL    HW144520  14.341   5.292  11.895
14227SOL    HW244521  14.203   5.333  11.943
14228SOL     OW44522   9.059   6.921   4.003
14228SOL    HW144523   9.063   6.908   3.908
14228SOL    HW244524   9.004   6.999   4.014
14229SOL     OW44525  13.237  14.058   4.424
14229SOL    HW144526  13.224  14.151   4.405
14229SOL    HW244527  13.164  14.035   4.481
14230SOL     OW44528  10.083   7.536   8.342
14230SOL    HW144529  10.007   7.553   8.397
14230SOL    HW244530  10.073   7.445   8.314
14231SOL     OW44531   9.936  13.685   0.451
14231SOL    HW144532   9.928  13.591   0.432
14231SOL    HW244533   9.846  13.716   0.456
14232SOL     OW44534   7.591   9.427  11.451
14232SOL    HW144535   7.542   9.386  11.380
14232SOL    HW244536   7.531   9.492  11.488
14233SOL     OW44537   7.718  14.081   0.256
14233SOL    HW144538   7.640  14.027   0.267
14233SOL    HW244539   7.688  14.159   0.209
14234SOL     OW44540   8.256   0.912  13.689
14234SOL    HW144541   8.163   0.898  13.674
14234SOL    HW244542   8.266   1.008  13.690
14235SOL     OW44543  11.681   6.254  11.548
14235SOL    HW144544  11.759   6.279  11.598
14235SOL    HW244545  11.622   6.219  11.614
14236SOL     OW44546   9.725   6.329   9.548
14236SOL    HW144547   9.630   6.314   9.544
14236SOL    HW244548   9.764   6.246   9.521
14237SOL     OW44549   4.951   1.625  14.592
14237SOL    HW144550   5.010   1.582  14.530
14237SOL    HW244551   5.008   1.677  14.648
14238SOL     OW44552  14.227   0.037   7.753
14238SOL    HW144553  14.247   0.042   7.659
14238SOL    HW244554  14.313   0.034   7.795
14239SOL     OW44555   1.866   4.503  11.748
14239SOL    HW144556   1.908   4.586  11.729
14239SOL    HW244557   1.804   4.490  11.676
14240SOL     OW44558  13.584   3.535   2.628
14240SOL    HW144559  13.581   3.622   2.587
14240SOL    HW244560  13.673   3.504   2.610
14241SOL     OW44561   4.369   2.979  10.751
14241SOL    HW144562   4.442   3.024  10.708
14241SOL    HW244563   4.362   2.895  10.704
14242SOL     OW44564  13.930  10.006  13.714
14242SOL    HW144565  13.895  10.064  13.781
14242SOL    HW244566  14.003  10.054  13.676
14243SOL     OW44567  14.433  11.741   5.177
14243SOL    HW144568  14.493  11.677   5.141
14243SOL    HW244569  14.480  11.780   5.251
14244SOL     OW44570   8.614   3.603  13.352
14244SOL    HW144571   8.634   3.679  13.406
14244SOL    HW244572   8.648   3.625  13.265
14245SOL     OW44573   6.367   0.733   8.705
14245SOL    HW144574   6.291   0.787   8.722
14245SOL    HW244575   6.402   0.713   8.792
14246SOL     OW44576   9.657   4.141   1.096
14246SOL    HW144577   9.675   4.049   1.078
14246SOL    HW244578   9.720   4.165   1.164
14247SOL     OW44579  11.600   4.988   0.632
14247SOL    HW144580  11.628   5.079   0.623
14247SOL    HW244581  11.654   4.940   0.570
14248SOL     OW44582  14.426   3.496   0.136
14248SOL    HW144583  14.469   3.576   0.167
14248SOL    HW244584  14.492   3.454   0.080
14249SOL     OW44585   5.021  11.176  13.832
14249SOL    HW144586   4.937  11.154  13.872
14249SOL    HW244587   5.084  11.118  13.875
14250SOL     OW44588  14.765   0.169   4.192
14250SOL    HW144589  14.672   0.182   4.214
14250SOL    HW244590  14.777   0.074   4.195
14251SOL     OW44591   2.347   9.782   5.208
14251SOL    HW144592   2.329   9.821   5.293
14251SOL    HW244593   2.291   9.704   5.205
14252SOL     OW44594   6.172   3.053  11.051
14252SOL    HW144595   6.143   2.981  11.106
14252SOL    HW244596   6.170   3.018  10.962
14253SOL     OW44597  14.027  11.305   1.061
14253SOL    HW144598  13.979  11.302   0.978
14253SOL    HW244599  14.037  11.398   1.078
14254SOL     OW44600   0.721   9.659  12.496
14254SOL    HW144601   0.644   9.636  12.548
14254SOL    HW244602   0.753   9.740  12.535
14255SOL     OW44603   8.650   6.519  12.829
14255SOL    HW144604   8.625   6.576  12.902
14255SOL    HW244605   8.700   6.449  12.870
14256SOL     OW44606   0.546  12.260   1.089
14256SOL    HW144607   0.597  12.229   1.164
14256SOL    HW244608   0.609  12.305   1.033
14257SOL     OW44609   1.486  12.643   7.944
14257SOL    HW144610   1.495  12.644   7.848
14257SOL    HW244611   1.469  12.734   7.967
14258SOL     OW44612  12.752  14.532   8.463
14258SOL    HW144613  12.726  14.477   8.389
14258SOL    HW244614  12.847  14.541   8.453
14259SOL     OW44615   8.783  13.028   4.379
14259SOL    HW144616   8.811  12.948   4.336
14259SOL    HW244617   8.864  13.074   4.401
14260SOL     OW44618  10.733  13.302   4.683
14260SOL    HW144619  10.741  13.336   4.594
14260SOL    HW244620  10.640  13.306   4.702
14261SOL     OW44621   2.300  14.200  11.393
14261SOL    HW144622   2.240  14.159  11.331
14261SOL    HW244623   2.353  14.128  11.427
14262SOL     OW44624   0.508   9.836  10.366
14262SOL    HW144625   0.493   9.855  10.459
14262SOL    HW244626   0.550   9.915  10.332
14263SOL     OW44627   9.520   1.274   1.252
14263SOL    HW144628   9.592   1.312   1.202
14263SOL    HW244629   9.443   1.322   1.222
14264SOL     OW44630   1.297  10.935  14.378
14264SOL    HW144631   1.349  11.015  14.370
14264SOL    HW244632   1.206  10.966  14.379
14265SOL     OW44633   1.370   9.164   3.149
14265SOL    HW144634   1.314   9.092   3.120
14265SOL    HW244635   1.379   9.220   3.072
14266SOL     OW44636   2.136   2.329  12.483
14266SOL    HW144637   2.198   2.317  12.555
14266SOL    HW244638   2.179   2.286  12.408
14267SOL     OW44639  12.051  10.109  14.618
14267SOL    HW144640  12.112  10.095  14.689
14267SOL    HW244641  12.084  10.056  14.546
14268SOL     OW44642   8.502   1.808   3.535
14268SOL    HW144643   8.582   1.785   3.582
14268SOL    HW244644   8.432   1.797   3.600
14269SOL     OW44645  13.671  10.981   6.047
14269SOL    HW144646  13.731  10.907   6.052
14269SOL    HW244647  13.602  10.952   5.987
14270SOL     OW44648   1.440   1.124   7.187
14270SOL    HW144649   1.443   1.112   7.092
14270SOL    HW244650   1.477   1.211   7.201
14271SOL     OW44651   8.855  14.062   4.813
14271SOL    HW144652   8.809  14.003   4.872
14271SOL    HW244653   8.943  14.069   4.850
14272SOL     OW44654   1.253   1.704   3.902
14272SOL    HW144655   1.213   1.688   3.816
14272SOL    HW244656   1.346   1.690   3.889
14273SOL     OW44657   5.822   6.738   5.382
14273SOL    HW144658   5.886   6.806   5.402
14273SOL    HW244659   5.763   6.738   5.457
14274SOL     OW44660   3.456   9.123   7.795
14274SOL    HW144661   3.535   9.176   7.810
14274SOL    HW244662   3.465   9.050   7.856
14275SOL     OW44663  11.660  10.396   8.058
14275SOL    HW144664  11.624  10.309   8.042
14275SOL    HW244665  11.620  10.425   8.140
14276SOL     OW44666   6.695   4.194   9.076
14276SOL    HW144667   6.722   4.233   9.159
14276SOL    HW244668   6.777   4.185   9.027
14277SOL     OW44669   3.047   0.335  10.798
14277SOL    HW144670   2.994   0.304  10.723
14277SOL    HW244671   3.058   0.428  10.782
14278SOL     OW44672   9.466   2.613   8.494
14278SOL    HW144673   9.489   2.692   8.544
14278SOL    HW244674   9.524   2.545   8.528
14279SOL     OW44675   6.547   6.953  11.230
14279SOL    HW144676   6.526   6.950  11.137
14279SOL    HW244677   6.526   7.043  11.257
14280SOL     OW44678  10.674   9.998   4.841
14280SOL    HW144679  10.632  10.056   4.904
14280SOL    HW244680  10.765   9.991   4.871
14281SOL     OW44681   2.055   1.585   8.874
14281SOL    HW144682   2.130   1.596   8.815
14281SOL    HW244683   2.088   1.529   8.945
14282SOL     OW44684  11.560   9.567   9.153
14282SOL    HW144685  11.553   9.621   9.074
14282SOL    HW244686  11.481   9.587   9.202
14283SOL     OW44687  12.885   0.036   4.409
14283SOL    HW144688  12.830  14.838   4.400
14283SOL    HW244689  12.834   0.107   4.368
14284SOL     OW44690   8.474  14.345   9.420
14284SOL    HW144691   8.500  14.390   9.340
14284SOL    HW244692   8.500  14.403   9.490
14285SOL     OW44693   2.990   8.741   5.624
14285SOL    HW144694   3.079   8.718   5.651
14285SOL    HW244695   2.994   8.747   5.528
14286SOL     OW44696   6.435   7.148   4.275
14286SOL    HW144697   6.449   7.057   4.301
14286SOL    HW244698   6.457   7.198   4.354
14287SOL     OW44699   7.928  11.909   4.075
14287SOL    HW144700   7.843  11.932   4.038
14287SOL    HW244701   7.931  11.953   4.159
14288SOL     OW44702   3.050   7.239  13.105
14288SOL    HW144703   2.998   7.281  13.037
14288SOL    HW244704   3.094   7.311  13.150
14289SOL     OW44705   9.298   8.159   2.879
14289SOL    HW144706   9.261   8.136   2.964
14289SOL    HW244707   9.356   8.086   2.857
14290SOL     OW44708  13.476   2.674   0.464
14290SOL    HW144709  13.500   2.600   0.410
14290SOL    HW244710  13.449   2.742   0.402
14291SOL     OW44711  10.356  13.899  12.165
14291SOL    HW144712  10.422  13.967  12.151
14291SOL    HW244713  10.311  13.925  12.245
14292SOL     OW44714   6.392   5.011   6.011
14292SOL    HW144715   6.402   4.925   5.969
14292SOL    HW244716   6.456   5.066   5.966
14293SOL     OW44717   0.023   6.411  10.996
14293SOL    HW144718  14.830   6.352  11.017
14293SOL    HW244719   0.062   6.373  10.917
14294SOL     OW44720   8.262  14.251   3.470
14294SOL    HW144721   8.223  14.164   3.478
14294SOL    HW244722   8.354  14.238   3.494
14295SOL     OW44723  13.475  10.210   6.148
14295SOL    HW144724  13.526  10.203   6.229
14295SOL    HW244725  13.463  10.305   6.136
14296SOL     OW44726   3.137  14.650   9.542
14296SOL    HW144727   3.231  14.633   9.556
14296SOL    HW244728   3.127  14.742   9.564
14297SOL     OW44729   0.331   0.807   7.335
14297SOL    HW144730   0.403   0.828   7.396
14297SOL    HW244731   0.284   0.889   7.325
14298SOL     OW44732  12.455   8.289   9.098
14298SOL    HW144733  12.528   8.350   9.110
14298SOL    HW244734  12.378   8.345   9.095
14299SOL     OW44735   6.084  10.061  11.096
14299SOL    HW144736   6.111   9.978  11.135
14299SOL    HW244737   6.116  10.128  11.157
14300SOL     OW44738   2.016   6.496  13.161
14300SOL    HW144739   1.946   6.552  13.128
14300SOL    HW244740   1.971   6.423  13.203
14301SOL     OW44741   0.289   4.790   2.948
14301SOL    HW144742   0.223   4.858   2.957
14301SOL    HW244743   0.372   4.834   2.968
14302SOL     OW44744  14.389  12.446   0.382
14302SOL    HW144745  14.400  12.538   0.406
14302SOL    HW244746  14.476  12.419   0.351
14303SOL     OW44747   1.878   1.962   9.358
14303SOL    HW144748   1.897   1.886   9.304
14303SOL    HW244749   1.950   1.967   9.420
14304SOL     OW44750  14.482  13.627   1.171
14304SOL    HW144751  14.475  13.719   1.144
14304SOL    HW244752  14.487  13.631   1.267
14305SOL     OW44753   4.476   9.490  14.466
14305SOL    HW144754   4.555   9.449  14.501
14305SOL    HW244755   4.445   9.429  14.400
14306SOL     OW44756   1.014   5.370   4.391
14306SOL    HW144757   1.107   5.370   4.369
14306SOL    HW244758   1.012   5.369   4.487
14307SOL     OW44759   2.324   2.196   5.109
14307SOL    HW144760   2.275   2.277   5.122
14307SOL    HW244761   2.413   2.224   5.088
14308SOL     OW44762   0.976   6.424   2.561
14308SOL    HW144763   0.924   6.444   2.484
14308SOL    HW244764   0.984   6.507   2.608
14309SOL     OW44765  12.843   6.342   3.509
14309SOL    HW144766  12.846   6.312   3.418
14309SOL    HW244767  12.932   6.374   3.526
14310SOL     OW44768  13.172  10.366   4.019
14310SOL    HW144769  13.165  10.411   3.935
14310SOL    HW244770  13.264  10.375   4.045
14311SOL     OW44771   6.684   8.763   9.276
14311SOL    HW144772   6.671   8.761   9.181
14311SOL    HW244773   6.621   8.828   9.307
14312SOL     OW44774   6.130  14.186  11.916
14312SOL    HW144775   6.062  14.250  11.937
14312SOL    HW244776   6.185  14.230  11.852
14313SOL     OW44777  13.413   4.808   2.640
14313SOL    HW144778  13.436   4.884   2.587
14313SOL    HW244779  13.380   4.744   2.577
14314SOL     OW44780   0.866   8.099   7.117
14314SOL    HW144781   0.857   8.049   7.198
14314SOL    HW244782   0.844   8.036   7.048
14315SOL     OW44783   3.263   9.942  13.467
14315SOL    HW144784   3.222   9.956  13.381
14315SOL    HW244785   3.341   9.997  13.465
14316SOL     OW44786   0.265   5.010   7.166
14316SOL    HW144787   0.249   5.038   7.256
14316SOL    HW244788   0.181   4.974   7.137
14317SOL     OW44789  14.540   1.291  12.847
14317SOL    HW144790  14.536   1.325  12.936
14317SOL    HW244791  14.494   1.207  12.851
14318SOL     OW44792   7.766   7.427   5.477
14318SOL    HW144793   7.729   7.424   5.565
14318SOL    HW244794   7.852   7.387   5.486
14319SOL     OW44795  14.577   6.561  11.469
14319SOL    HW144796  14.514   6.584  11.537
14319SOL    HW244797  14.662   6.580  11.507
14320SOL     OW44798   6.796   2.121  14.833
14320SOL    HW144799   6.777   2.049  14.773
14320SOL    HW244800   6.874   2.163  14.796
14321SOL     OW44801  13.859   0.150   5.823
14321SOL    HW144802  13.916   0.102   5.883
14321SOL    HW244803  13.833   0.085   5.757
14322SOL     OW44804   3.464   7.091   5.865
14322SOL    HW144805   3.508   7.114   5.947
14322SOL    HW244806   3.438   7.000   5.876
14323SOL     OW44807   7.000   4.217  12.125
14323SOL    HW144808   7.078   4.254  12.084
14323SOL    HW244809   6.931   4.282  12.110
14324SOL     OW44810   6.330  12.851  13.464
14324SOL    HW144811   6.334  12.790  13.537
14324SOL    HW244812   6.408  12.906  13.473
14325SOL     OW44813   2.772   9.941   6.189
14325SOL    HW144814   2.779   9.855   6.149
14325SOL    HW244815   2.768  10.002   6.115
14326SOL     OW44816  11.126   8.497   5.418
14326SOL    HW144817  11.151   8.419   5.467
14326SOL    HW244818  11.174   8.569   5.461
14327SOL     OW44819   2.037  14.849   2.172
14327SOL    HW144820   1.982   0.042   2.143
14327SOL    HW244821   2.125  14.871   2.140
14328SOL     OW44822  11.046   6.234   9.342
14328SOL    HW144823  11.025   6.295   9.271
14328SOL    HW244824  11.139   6.213   9.329
14329SOL     OW44825  14.587   2.002  10.488
14329SOL    HW144826  14.579   2.098  10.491
14329SOL    HW244827  14.529   1.971  10.558
14330SOL     OW44828   7.917  12.209   7.601
14330SOL    HW144829   7.966  12.278   7.646
14330SOL    HW244830   7.927  12.132   7.657
14331SOL     OW44831  11.591   6.817   1.797
14331SOL    HW144832  11.659   6.801   1.732
14331SOL    HW244833  11.639   6.829   1.879
14332SOL     OW44834   0.609   7.839  14.866
14332SOL    HW144835   0.609   7.906   0.055
14332SOL    HW244836   0.651   7.882  14.791
14333SOL     OW44837  12.702   7.532  11.396
14333SOL    HW144838  12.662   7.533  11.483
14333SOL    HW244839  12.691   7.441  11.366
14334SOL     OW44840   0.353   7.471   5.574
14334SOL    HW144841   0.331   7.469   5.667
14334SOL    HW244842   0.446   7.450   5.570
14335SOL     OW44843   3.248   9.909   9.183
14335SOL    HW144844   3.268  10.002   9.187
14335SOL    HW244845   3.153   9.905   9.173
14336SOL     OW44846   2.204  12.784   7.763
14336SOL    HW144847   2.257  12.704   7.769
14336SOL    HW244848   2.113  12.752   7.760
14337SOL     OW44849   3.110   2.302  14.771
14337SOL    HW144850   3.180   2.285  14.708
14337SOL    HW244851   3.029   2.287  14.722
14338SOL     OW44852  12.718   1.847   9.802
14338SOL    HW144853  12.665   1.899   9.863
14338SOL    HW244854  12.801   1.835   9.847
14339SOL     OW44855   2.868   8.423   9.639
14339SOL    HW144856   2.945   8.412   9.583
14339SOL    HW244857   2.818   8.343   9.625
14340SOL     OW44858   1.514   5.814  11.702
14340SOL    HW144859   1.492   5.780  11.789
14340SOL    HW244860   1.600   5.777  11.683
14341SOL     OW44861   4.643  13.846  10.297
14341SOL    HW144862   4.570  13.832  10.237
14341SOL    HW244863   4.602  13.875  10.378
14342SOL     OW44864  13.656   6.636   7.440
14342SOL    HW144865  13.617   6.624   7.526
14342SOL    HW244866  13.582   6.633   7.379
14343SOL     OW44867   8.082   8.189  12.779
14343SOL    HW144868   8.033   8.136  12.717
14343SOL    HW244869   8.086   8.136  12.858
14344SOL     OW44870   9.516   5.529   8.826
14344SOL    HW144871   9.448   5.496   8.884
14344SOL    HW244872   9.544   5.452   8.775
14345SOL     OW44873   9.299   5.701   3.625
14345SOL    HW144874   9.392   5.721   3.625
14345SOL    HW244875   9.293   5.611   3.593
14346SOL     OW44876   4.917   4.144   1.703
14346SOL    HW144877   4.854   4.174   1.638
14346SOL    HW244878   4.998   4.190   1.682
14347SOL     OW44879  14.007   6.421  13.083
14347SOL    HW144880  14.041   6.398  12.997
14347SOL    HW244881  13.956   6.501  13.067
14348SOL     OW44882  11.882   6.594   2.819
14348SOL    HW144883  11.859   6.548   2.738
14348SOL    HW244884  11.834   6.548   2.888
14349SOL     OW44885   5.554   0.562  13.857
14349SOL    HW144886   5.556   0.491  13.921
14349SOL    HW244887   5.473   0.547  13.807
14350SOL     OW44888   9.563   0.874   0.887
14350SOL    HW144889   9.551   0.801   0.948
14350SOL    HW244890   9.523   0.949   0.931
14351SOL     OW44891   1.497   2.215   0.017
14351SOL    HW144892   1.542   2.300   0.016
14351SOL    HW244893   1.409   2.235   0.050
14352SOL     OW44894  10.671  11.961   9.146
14352SOL    HW144895  10.621  11.926   9.220
14352SOL    HW244896  10.751  11.996   9.186
14353SOL     OW44897   7.009   6.089   4.081
14353SOL    HW144898   7.081   6.126   4.030
14353SOL    HW244899   6.973   6.163   4.130
14354SOL     OW44900   3.092   4.534   0.813
14354SOL    HW144901   3.071   4.612   0.763
14354SOL    HW244902   3.186   4.520   0.797
14355SOL     OW44903  13.980   9.404   0.007
14355SOL    HW144904  13.967   9.309   0.005
14355SOL    HW244905  13.891   9.440   0.010
14356SOL     OW44906  12.870   5.890   2.944
14356SOL    HW144907  12.874   5.897   3.039
14356SOL    HW244908  12.818   5.966   2.917
14357SOL     OW44909   3.500   5.135   4.185
14357SOL    HW144910   3.458   5.221   4.191
14357SOL    HW244911   3.524   5.126   4.093
14358SOL     OW44912   3.838   7.558   1.509
14358SOL    HW144913   3.817   7.650   1.496
14358SOL    HW244914   3.932   7.552   1.490
14359SOL     OW44915   3.689  10.988   6.316
14359SOL    HW144916   3.598  10.966   6.298
14359SOL    HW244917   3.696  10.985   6.412
14360SOL     OW44918   5.614  11.294   6.935
14360SOL    HW144919   5.673  11.304   7.010
14360SOL    HW244920   5.549  11.230   6.965
14361SOL     OW44921   4.087  13.248  11.076
14361SOL    HW144922   4.001  13.205  11.073
14361SOL    HW244923   4.149  13.180  11.049
14362SOL     OW44924   0.489  10.858   2.842
14362SOL    HW144925   0.459  10.943   2.873
14362SOL    HW244926   0.578  10.873   2.812
14363SOL     OW44927   7.693  14.563  11.243
14363SOL    HW144928   7.769  14.507  11.254
14363SOL    HW244929   7.681  14.604  11.329
14364SOL     OW44930  11.770  12.452   7.129
14364SOL    HW144931  11.864  12.450   7.116
14364SOL    HW244932  11.755  12.527   7.187
14365SOL     OW44933  14.688   8.757   8.789
14365SOL    HW144934  14.594   8.766   8.774
14365SOL    HW244935  14.716   8.686   8.731
14366SOL     OW44936  14.680  12.688  10.499
14366SOL    HW144937  14.753  12.685  10.561
14366SOL    HW244938  14.718  12.665  10.415
14367SOL     OW44939  12.545   0.129   2.371
14367SOL    HW144940  12.466   0.137   2.423
14367SOL    HW244941  12.608   0.188   2.413
14368SOL     OW44942   3.793   0.384  11.828
14368SOL    HW144943   3.781   0.300  11.870
14368SOL    HW244944   3.850   0.433  11.888
14369SOL     OW44945   0.327  11.406   5.512
14369SOL    HW144946   0.378  11.348   5.569
14369SOL    HW244947   0.378  11.486   5.507
14370SOL     OW44948   0.329   1.707   6.263
14370SOL    HW144949   0.404   1.765   6.279
14370SOL    HW244950   0.361   1.644   6.199
14371SOL     OW44951   5.594   0.155   6.264
14371SOL    HW144952   5.685   0.182   6.250
14371SOL    HW244953   5.597   0.101   6.343
14372SOL     OW44954   3.557  11.752  13.680
14372SOL    HW144955   3.559  11.795  13.765
14372SOL    HW244956   3.542  11.823  13.618
14373SOL     OW44957  14.012   4.187   7.135
14373SOL    HW144958  14.030   4.093   7.140
14373SOL    HW244959  14.092   4.228   7.167
14374SOL     OW44960   4.402   0.549   5.971
14374SOL    HW144961   4.345   0.578   5.901
14374SOL    HW244962   4.367   0.591   6.050
14375SOL     OW44963   2.018   2.140   6.156
14375SOL    HW144964   1.967   2.219   6.142
14375SOL    HW244965   1.954   2.069   6.154
14376SOL     OW44966  11.368  13.675   7.667
14376SOL    HW144967  11.341  13.741   7.730
14376SOL    HW244968  11.462  13.689   7.656
14377SOL     OW44969   8.240   9.355  14.621
14377SOL    HW144970   8.293   9.419  14.667
14377SOL    HW244971   8.284   9.343  14.536
14378SOL     OW44972  10.172   2.696   9.882
14378SOL    HW144973  10.217   2.754   9.821
14378SOL    HW244974  10.206   2.609   9.863
14379SOL     OW44975   5.587   5.373   2.383
14379SOL    HW144976   5.654   5.434   2.412
14379SOL    HW244977   5.505   5.407   2.420
14380SOL     OW44978  10.681  10.403  10.230
14380SOL    HW144979  10.631  10.456  10.169
14380SOL    HW244980  10.621  10.332  10.255
14381SOL     OW44981   5.183   0.448   2.745
14381SOL    HW144982   5.157   0.364   2.784
14381SOL    HW244983   5.278   0.450   2.753
14382SOL     OW44984   9.464   2.880  13.472
14382SOL    HW144985   9.370   2.886  13.457
14382SOL    HW244986   9.494   2.971  13.468
14383SOL     OW44987  13.742   7.203   7.167
14383SOL    HW144988  13.710   7.282   7.123
14383SOL    HW244989  13.673   7.180   7.229
14384SOL     OW44990   0.905  13.137   0.897
14384SOL    HW144991   0.916  13.112   0.806
14384SOL    HW244992   0.893  13.055   0.944
14385SOL     OW44993   4.653   8.137  13.081
14385SOL    HW144994   4.660   8.231  13.067
14385SOL    HW244995   4.559   8.119  13.078
14386SOL     OW44996   1.656   9.788   9.216
14386SOL    HW144997   1.631   9.706   9.259
14386SOL    HW244998   1.751   9.795   9.229
14387SOL     OW44999   5.763   2.239  11.550
14387SOL    HW145000   5.751   2.235  11.645
14387SOL    HW245001   5.739   2.152  11.518
14388SOL     OW45002  12.950  11.619   0.559
14388SOL    HW145003  12.885  11.571   0.509
14388SOL    HW245004  13.019  11.639   0.496
14389SOL     OW45005  11.234   5.348   5.230
14389SOL    HW145006  11.146   5.311   5.223
14389SOL    HW245007  11.234   5.394   5.314
14390SOL     OW45008  12.472  12.636  13.199
14390SOL    HW145009  12.449  12.639  13.106
14390SOL    HW245010  12.548  12.578  13.203
14391SOL     OW45011   5.583   7.889   5.521
14391SOL    HW145012   5.559   7.941   5.598
14391SOL    HW245013   5.626   7.811   5.556
14392SOL     OW45014   9.853  10.583  14.227
14392SOL    HW145015   9.865  10.626  14.312
14392SOL    HW245016   9.758  10.578  14.216
14393SOL     OW45017   6.643   4.605   0.028
14393SOL    HW145018   6.620   4.629   0.118
14393SOL    HW245019   6.690   4.681  14.875
14394SOL     OW45020   0.559   3.408  12.987
14394SOL    HW145021   0.560   3.496  13.024
14394SOL    HW245022   0.580   3.421  12.895
14395SOL     OW45023  10.162  10.340  10.529
14395SOL    HW145024  10.161  10.254  10.487
14395SOL    HW245025  10.204  10.398  10.466
14396SOL     OW45026   2.504  11.104   9.228
14396SOL    HW145027   2.486  11.086   9.320
14396SOL    HW245028   2.573  11.040   9.205
14397SOL     OW45029   8.066   2.408   1.872
14397SOL    HW145030   8.060   2.492   1.919
14397SOL    HW245031   8.055   2.342   1.940
14398SOL     OW45032   8.877  11.474   7.086
14398SOL    HW145033   8.792  11.514   7.069
14398SOL    HW245034   8.858  11.403   7.147
14399SOL     OW45035  10.049  11.279  11.430
14399SOL    HW145036  10.070  11.255  11.340
14399SOL    HW245037   9.961  11.315  11.425
14400SOL     OW45038   7.510   8.014   1.291
14400SOL    HW145039   7.476   7.933   1.253
14400SOL    HW245040   7.465   8.023   1.375
14401SOL     OW45041   9.889   4.714  11.069
14401SOL    HW145042   9.850   4.658  11.002
14401SOL    HW245043   9.975   4.737  11.035
14402SOL     OW45044   4.336  11.176  14.392
14402SOL    HW145045   4.375  11.136  14.314
14402SOL    HW245046   4.384  11.139  14.465
14403SOL     OW45047   4.718  12.047   0.264
14403SOL    HW145048   4.629  12.026   0.235
14403SOL    HW245049   4.729  12.140   0.244
14404SOL     OW45050   5.174   2.942   8.323
14404SOL    HW145051   5.137   2.855   8.310
14404SOL    HW245052   5.164   2.986   8.238
14405SOL     OW45053   1.301   0.978   3.685
14405SOL    HW145054   1.320   0.985   3.778
14405SOL    HW245055   1.362   0.912   3.652
14406SOL     OW45056  11.266   8.660  11.284
14406SOL    HW145057  11.262   8.609  11.203
14406SOL    HW245058  11.357   8.688  11.291
14407SOL     OW45059   2.392   9.975  13.600
14407SOL    HW145060   2.396   9.912  13.528
14407SOL    HW245061   2.465   9.950  13.657
14408SOL     OW45062   8.391   5.269   4.637
14408SOL    HW145063   8.479   5.233   4.629
14408SOL    HW245064   8.376   5.274   4.732
14409SOL     OW45065  14.652  10.787   5.264
14409SOL    HW145066  14.617  10.871   5.234
14409SOL    HW245067  14.575  10.737   5.289
14410SOL     OW45068  11.007   3.287   4.590
14410SOL    HW145069  11.011   3.382   4.587
14410SOL    HW245070  10.969   3.268   4.676
14411SOL     OW45071   8.719   7.894   3.788
14411SOL    HW145072   8.806   7.879   3.751
14411SOL    HW245073   8.665   7.825   3.749
14412SOL     OW45074   6.477   7.491   1.881
14412SOL    HW145075   6.478   7.532   1.794
14412SOL    HW245076   6.386   7.496   1.909
14413SOL     OW45077   1.827   2.955   1.631
14413SOL    HW145078   1.788   2.878   1.674
14413SOL    HW245079   1.886   2.918   1.566
14414SOL     OW45080   3.083   1.410  14.077
14414SOL    HW145081   3.111   1.328  14.036
14414SOL    HW245082   3.146   1.475  14.045
14415SOL     OW45083   6.225   6.259  14.186
14415SOL    HW145084   6.245   6.168  14.210
14415SOL    HW245085   6.311   6.301  14.179
14416SOL     OW45086  12.138   4.296   0.321
14416SOL    HW145087  12.180   4.297   0.407
14416SOL    HW245088  12.081   4.219   0.323
14417SOL     OW45089   8.975  14.489  10.783
14417SOL    HW145090   8.939  14.424  10.722
14417SOL    HW245091   8.901  14.510  10.840
14418SOL     OW45092   0.266  13.176   6.835
14418SOL    HW145093   0.174  13.181   6.861
14418SOL    HW245094   0.263  13.155   6.742
14419SOL     OW45095  13.476  13.548  14.082
14419SOL    HW145096  13.415  13.475  14.088
14419SOL    HW245097  13.427  13.624  14.114
14420SOL     OW45098   6.179   1.188   4.261
14420SOL    HW145099   6.129   1.152   4.187
14420SOL    HW245100   6.176   1.283   4.247
14421SOL     OW45101   7.931   7.721   6.584
14421SOL    HW145102   7.971   7.637   6.563
14421SOL    HW245103   7.840   7.712   6.556
14422SOL     OW45104   3.066  14.028   2.859
14422SOL    HW145105   3.075  13.938   2.891
14422SOL    HW245106   3.155  14.056   2.841
14423SOL     OW45107  10.996   2.362  14.111
14423SOL    HW145108  10.955   2.279  14.138
14423SOL    HW245109  11.090   2.346  14.121
14424SOL     OW45110   2.361  12.806   9.096
14424SOL    HW145111   2.353  12.778   9.187
14424SOL    HW245112   2.285  12.767   9.052
14425SOL     OW45113   9.031   7.052  11.081
14425SOL    HW145114   8.990   7.009  11.157
14425SOL    HW245115   8.992   7.008  11.005
14426SOL     OW45116   9.226   5.511   1.840
14426SOL    HW145117   9.321   5.509   1.839
14426SOL    HW245118   9.200   5.423   1.868
14427SOL     OW45119   0.690   1.759   4.175
14427SOL    HW145120   0.694   1.733   4.267
14427SOL    HW245121   0.762   1.712   4.133
14428SOL     OW45122  10.427  13.252  13.383
14428SOL    HW145123  10.476  13.323  13.424
14428SOL    HW245124  10.437  13.178  13.443
14429SOL     OW45125  11.808   6.111  12.854
14429SOL    HW145126  11.892   6.078  12.820
14429SOL    HW245127  11.821   6.206  12.861
14430SOL     OW45128   6.384   8.450   7.025
14430SOL    HW145129   6.332   8.436   6.945
14430SOL    HW245130   6.378   8.544   7.041
14431SOL     OW45131  12.554   5.902  10.468
14431SOL    HW145132  12.566   5.845  10.544
14431SOL    HW245133  12.600   5.983  10.491
14432SOL     OW45134   8.043   4.330   2.326
14432SOL    HW145135   7.968   4.387   2.304
14432SOL    HW245136   8.114   4.391   2.347
14433SOL     OW45137  10.463  12.542   2.287
14433SOL    HW145138  10.445  12.524   2.195
14433SOL    HW245139  10.450  12.636   2.296
14434SOL     OW45140   1.506   0.519   1.486
14434SOL    HW145141   1.555   0.439   1.470
14434SOL    HW245142   1.487   0.517   1.580
14435SOL     OW45143   3.416   8.808   7.333
14435SOL    HW145144   3.470   8.867   7.282
14435SOL    HW245145   3.476   8.768   7.396
14436SOL     OW45146   7.331  14.797  10.269
14436SOL    HW145147   7.293  14.868  10.218
14436SOL    HW245148   7.260  14.734  10.279
14437SOL     OW45149   4.962   4.113   7.573
14437SOL    HW145150   5.038   4.055   7.564
14437SOL    HW245151   4.887   4.054   7.583
14438SOL     OW45152   7.213   9.411  13.484
14438SOL    HW145153   7.152   9.483  13.465
14438SOL    HW245154   7.212   9.404  13.579
14439SOL     OW45155   0.348   8.623   7.838
14439SOL    HW145156   0.424   8.619   7.896
14439SOL    HW245157   0.385   8.641   7.752
14440SOL     OW45158   3.491   5.890   1.689
14440SOL    HW145159   3.584   5.909   1.704
14440SOL    HW245160   3.446   5.971   1.712
14441SOL     OW45161  10.904   3.205  11.660
14441SOL    HW145162  10.917   3.164  11.745
14441SOL    HW245163  10.811   3.224  11.656
14442SOL     OW45164  12.959  11.904   2.831
14442SOL    HW145165  12.927  11.973   2.888
14442SOL    HW245166  12.887  11.886   2.771
14443SOL     OW45167   0.523   0.568   4.963
14443SOL    HW145168   0.430   0.564   4.941
14443SOL    HW245169   0.535   0.498   5.027
14444SOL     OW45170  12.122   6.388  13.668
14444SOL    HW145171  12.074   6.383  13.750
14444SOL    HW245172  12.128   6.482  13.650
14445SOL     OW45173   2.254   0.493  11.229
14445SOL    HW145174   2.225   0.576  11.192
14445SOL    HW245175   2.348   0.504  11.242
14446SOL     OW45176   3.823   7.030   5.601
14446SOL    HW145177   3.905   7.044   5.554
14446SOL    HW245178   3.847   6.975   5.676
14447SOL     OW45179   6.582   0.227   9.743
14447SOL    HW145180   6.600   0.147   9.693
14447SOL    HW245181   6.654   0.286   9.719
14448SOL     OW45182   1.656   7.746   1.114
14448SOL    HW145183   1.620   7.696   1.188
14448SOL    HW245184   1.751   7.730   1.120
14449SOL     OW45185  12.519   9.472  10.676
14449SOL    HW145186  12.584   9.430  10.733
14449SOL    HW245187  12.526   9.565  10.695
14450SOL     OW45188  14.058   0.747   1.419
14450SOL    HW145189  14.119   0.752   1.493
14450SOL    HW245190  14.004   0.826   1.428
14451SOL     OW45191   2.727   6.977   3.181
14451SOL    HW145192   2.821   6.972   3.193
14451SOL    HW245193   2.690   6.916   3.245
14452SOL     OW45194   9.503  10.463   7.817
14452SOL    HW145195   9.427  10.422   7.858
14452SOL    HW245196   9.578  10.413   7.850
14453SOL     OW45197   3.812   3.859   2.237
14453SOL    HW145198   3.719   3.879   2.235
14453SOL    HW245199   3.827   3.822   2.324
14454SOL     OW45200   8.453  14.721  11.261
14454SOL    HW145201   8.379  14.736  11.203
14454SOL    HW245202   8.530  14.718  11.204
14455SOL     OW45203   4.372  14.308   3.458
14455SOL    HW145204   4.322  14.238   3.499
14455SOL    HW245205   4.349  14.303   3.365
14456SOL     OW45206   8.758   6.757   2.617
14456SOL    HW145207   8.682   6.812   2.602
14456SOL    HW245208   8.762   6.700   2.540
14457SOL     OW45209  14.417  12.791  12.203
14457SOL    HW145210  14.336  12.746  12.176
14457SOL    HW245211  14.433  12.761  12.292
14458SOL     OW45212   6.920  14.117   9.510
14458SOL    HW145213   6.862  14.188   9.481
14458SOL    HW245214   7.002  14.160   9.531
14459SOL     OW45215   6.766  13.187  11.583
14459SOL    HW145216   6.761  13.229  11.497
14459SOL    HW245217   6.854  13.148  11.586
14460SOL     OW45218   3.356  10.499   5.509
14460SOL    HW145219   3.450  10.489   5.496
14460SOL    HW245220   3.334  10.581   5.465
14461SOL     OW45221  10.832   3.428  11.915
14461SOL    HW145222  10.806   3.426  12.008
14461SOL    HW245223  10.795   3.510  11.882
14462SOL     OW45224   1.455   9.994   0.592
14462SOL    HW145225   1.487   9.983   0.503
14462SOL    HW245226   1.465   9.908   0.632
14463SOL     OW45227  11.009   7.183  11.535
14463SOL    HW145228  11.054   7.167  11.618
14463SOL    HW245229  10.954   7.259  11.552
14464SOL     OW45230  13.648   5.318   1.432
14464SOL    HW145231  13.695   5.358   1.506
14464SOL    HW245232  13.707   5.329   1.358
14465SOL     OW45233   0.015   0.791  11.751
14465SOL    HW145234   0.064   0.776  11.670
14465SOL    HW245235   0.012   0.705  11.794
14466SOL     OW45236   5.547  13.396   5.397
14466SOL    HW145237   5.521  13.465   5.457
14466SOL    HW245238   5.519  13.315   5.440
14467SOL     OW45239   6.489   0.566   3.923
14467SOL    HW145240   6.537   0.506   3.865
14467SOL    HW245241   6.400   0.531   3.926
14468SOL     OW45242  13.018  11.810   2.349
14468SOL    HW145243  13.055  11.722   2.359
14468SOL    HW245244  13.093  11.869   2.360
14469SOL     OW45245  10.121   1.535   9.391
14469SOL    HW145246  10.180   1.597   9.347
14469SOL    HW245247  10.123   1.561   9.483
14470SOL     OW45248   7.450   1.662   6.834
14470SOL    HW145249   7.423   1.667   6.926
14470SOL    HW245250   7.545   1.652   6.838
14471SOL     OW45251  13.142   5.527  14.537
14471SOL    HW145252  13.182   5.524  14.623
14471SOL    HW245253  13.215   5.534  14.476
14472SOL     OW45254  13.091   1.230   7.605
14472SOL    HW145255  13.155   1.222   7.676
14472SOL    HW245256  13.080   1.324   7.593
14473SOL     OW45257   8.253  12.732   9.693
14473SOL    HW145258   8.274  12.640   9.706
14473SOL    HW245259   8.229  12.738   9.601
14474SOL     OW45260  14.405   1.105   0.822
14474SOL    HW145261  14.409   1.089   0.916
14474SOL    HW245262  14.477   1.052   0.786
14475SOL     OW45263   9.432  10.850   6.229
14475SOL    HW145264   9.489  10.778   6.256
14475SOL    HW245265   9.343  10.815   6.238
14476SOL     OW45266   0.906  12.636  13.786
14476SOL    HW145267   0.865  12.609  13.704
14476SOL    HW245268   0.961  12.711  13.762
14477SOL     OW45269   5.267  10.349  13.288
14477SOL    HW145270   5.230  10.384  13.369
14477SOL    HW245271   5.190  10.320  13.238
14478SOL     OW45272   9.461   8.838   2.456
14478SOL    HW145273   9.482   8.764   2.399
14478SOL    HW245274   9.384   8.878   2.415
14479SOL     OW45275   1.646   6.544  10.618
14479SOL    HW145276   1.641   6.505  10.706
14479SOL    HW245277   1.735   6.577  10.612
14480SOL     OW45278  12.037  13.783   8.724
14480SOL    HW145279  11.983  13.730   8.783
14480SOL    HW245280  12.057  13.862   8.775
14481SOL     OW45281   7.302   2.958   7.832
14481SOL    HW145282   7.345   2.998   7.756
14481SOL    HW245283   7.261   2.879   7.798
14482SOL     OW45284  12.735   8.184  12.495
14482SOL    HW145285  12.699   8.164  12.409
14482SOL    HW245286  12.810   8.126  12.505
14483SOL     OW45287  11.384   7.189   2.351
14483SOL    HW145288  11.447   7.169   2.282
14483SOL    HW245289  11.431   7.169   2.432
14484SOL     OW45290  14.706  12.571  13.172
14484SOL    HW145291  14.614  12.553  13.153
14484SOL    HW245292  14.717  12.544  13.263
14485SOL     OW45293   4.133   1.569   2.743
14485SOL    HW145294   4.173   1.489   2.778
14485SOL    HW245295   4.046   1.570   2.782
14486SOL     OW45296   0.861   7.378   8.939
14486SOL    HW145297   0.845   7.306   9.000
14486SOL    HW245298   0.956   7.388   8.938
14487SOL     OW45299   6.592   0.120   5.855
14487SOL    HW145300   6.642   0.038   5.858
14487SOL    HW245301   6.647   0.184   5.899
14488SOL     OW45302   0.069  13.586   8.382
14488SOL    HW145303   0.061  13.642   8.305
14488SOL    HW245304   0.160  13.558   8.382
14489SOL     OW45305  12.850  11.624   6.949
14489SOL    HW145306  12.855  11.640   7.043
14489SOL    HW245307  12.834  11.530   6.941
14490SOL     OW45308   0.627   0.729  13.599
14490SOL    HW145309   0.546   0.773  13.573
14490SOL    HW245310   0.658   0.778  13.675
14491SOL     OW45311  12.427   5.284   6.119
14491SOL    HW145312  12.352   5.295   6.061
14491SOL    HW245313  12.503   5.290   6.060
14492SOL     OW45314   0.547  12.763  10.688
14492SOL    HW145315   0.519  12.676  10.660
14492SOL    HW245316   0.616  12.746  10.752
14493SOL     OW45317   0.901  14.413   7.374
14493SOL    HW145318   0.879  14.506   7.371
14493SOL    HW245319   0.849  14.373   7.304
14494SOL     OW45320   3.479  10.153   7.707
14494SOL    HW145321   3.558  10.105   7.730
14494SOL    HW245322   3.407  10.101   7.744
14495SOL     OW45323   0.201  11.675  14.195
14495SOL    HW145324   0.268  11.701  14.258
14495SOL    HW245325   0.159  11.757  14.169
14496SOL     OW45326  10.749   9.205   0.616
14496SOL    HW145327  10.750   9.256   0.697
14496SOL    HW245328  10.658   9.175   0.607
14497SOL     OW45329  10.762   9.051   4.862
14497SOL    HW145330  10.754   8.960   4.833
14497SOL    HW245331  10.703   9.058   4.937
14498SOL     OW45332   3.541   0.522  13.771
14498SOL    HW145333   3.614   0.465  13.797
14498SOL    HW245334   3.581   0.586  13.712
14499SOL     OW45335  11.504   5.152   8.612
14499SOL    HW145336  11.570   5.162   8.680
14499SOL    HW245337  11.479   5.241   8.588
14500SOL     OW45338   1.095  10.341  14.559
14500SOL    HW145339   1.106  10.371  14.649
14500SOL    HW245340   1.032  10.270  14.565
14501SOL     OW45341   2.231  10.639   9.252
14501SOL    HW145342   2.188  10.720   9.279
14501SOL    HW245343   2.277  10.662   9.171
14502SOL     OW45344  10.925   1.312  11.083
14502SOL    HW145345  10.843   1.264  11.069
14502SOL    HW245346  10.935   1.365  11.004
14503SOL     OW45347   4.174  11.967   5.331
14503SOL    HW145348   4.269  11.956   5.335
14503SOL    HW245349   4.139  11.884   5.363
14504SOL     OW45350   9.646   0.286   3.718
14504SOL    HW145351   9.729   0.256   3.682
14504SOL    HW245352   9.596   0.206   3.731
14505SOL     OW45353  10.776   7.402  13.642
14505SOL    HW145354  10.756   7.484  13.596
14505SOL    HW245355  10.714   7.339  13.605
14506SOL     OW45356   9.053  10.976   5.984
14506SOL    HW145357   9.072  11.068   5.967
14506SOL    HW245358   9.033  10.972   6.078
14507SOL     OW45359  11.347  10.023   9.252
14507SOL    HW145360  11.421  10.055   9.200
14507SOL    HW245361  11.272  10.031   9.194
14508SOL     OW45362   0.287   5.427   2.923
14508SOL    HW145363   0.364   5.483   2.914
14508SOL    HW245364   0.213   5.483   2.901
14509SOL     OW45365   9.325   9.313  11.290
14509SOL    HW145366   9.334   9.377  11.361
14509SOL    HW245367   9.412   9.274  11.282
14510SOL     OW45368   6.954   6.380   3.025
14510SOL    HW145369   6.951   6.285   3.028
14510SOL    HW245370   6.862   6.407   3.026
14511SOL     OW45371  14.859  10.727   6.555
14511SOL    HW145372   0.027  10.779   6.490
14511SOL    HW245373   0.044  10.707   6.622
14512SOL     OW45374   9.346  11.245  12.220
14512SOL    HW145375   9.359  11.337  12.244
14512SOL    HW245376   9.253  11.228  12.237
14513SOL     OW45377   1.927  14.834  10.811
14513SOL    HW145378   1.915  14.743  10.784
14513SOL    HW245379   2.014  14.836  10.850
14514SOL     OW45380   2.941   2.894  10.555
14514SOL    HW145381   2.934   2.823  10.492
14514SOL    HW245382   2.922   2.973  10.505
14515SOL     OW45383   1.941  13.549   7.341
14515SOL    HW145384   1.908  13.460   7.331
14515SOL    HW245385   1.888  13.601   7.280
14516SOL     OW45386   3.377   9.302   6.088
14516SOL    HW145387   3.320   9.361   6.038
14516SOL    HW245388   3.323   9.275   6.162
14517SOL     OW45389   9.534  12.839   9.721
14517SOL    HW145390   9.500  12.826   9.809
14517SOL    HW245391   9.460  12.822   9.663
14518SOL     OW45392  14.342   5.868  14.754
14518SOL    HW145393  14.251   5.857  14.726
14518SOL    HW245394  14.394   5.855  14.675
14519SOL     OW45395  14.263   0.592  11.502
14519SOL    HW145396  14.318   0.526  11.459
14519SOL    HW245397  14.312   0.616  11.580
14520SOL     OW45398  14.282  14.171   5.111
14520SOL    HW145399  14.270  14.133   5.198
14520SOL    HW245400  14.231  14.114   5.053
14521SOL     OW45401  12.793  14.637  14.844
14521SOL    HW145402  12.746  14.590  14.775
14521SOL    HW245403  12.880  14.653  14.807
14522SOL     OW45404  10.728   9.436  12.741
14522SOL    HW145405  10.805   9.384  12.766
14522SOL    HW245406  10.673   9.435  12.820
14523SOL     OW45407   3.073   7.272  13.409
14523SOL    HW145408   3.130   7.345  13.386
14523SOL    HW245409   2.985   7.303  13.389
14524SOL     OW45410   1.197  11.643  14.137
14524SOL    HW145411   1.219  11.729  14.100
14524SOL    HW245412   1.235  11.580  14.075
14525SOL     OW45413   1.766   8.590  14.113
14525SOL    HW145414   1.747   8.552  14.027
14525SOL    HW245415   1.691   8.647  14.132
14526SOL     OW45416   6.606  14.575   5.763
14526SOL    HW145417   6.695  14.542   5.778
14526SOL    HW245418   6.572  14.520   5.693
14527SOL     OW45419  14.348  14.364   4.576
14527SOL    HW145420  14.379  14.323   4.495
14527SOL    HW245421  14.295  14.438   4.548
14528SOL     OW45422  10.934   9.967   4.341
14528SOL    HW145423  10.942   9.949   4.247
14528SOL    HW245424  10.886   9.892   4.376
14529SOL     OW45425   2.376   4.484  14.837
14529SOL    HW145426   2.338   4.397  14.852
14529SOL    HW245427   2.318   4.525  14.773
14530SOL     OW45428   0.913  12.993   2.459
14530SOL    HW145429   0.883  12.917   2.509
14530SOL    HW245430   0.833  13.039   2.434
14531SOL     OW45431   7.345   2.933   6.322
14531SOL    HW145432   7.294   2.916   6.243
14531SOL    HW245433   7.429   2.892   6.307
14532SOL     OW45434   0.336   1.213   3.968
14532SOL    HW145435   0.405   1.279   3.957
14532SOL    HW245436   0.383   1.131   3.983
14533SOL     OW45437   0.194  13.391  14.838
14533SOL    HW145438   0.188  13.435   0.043
14533SOL    HW245439   0.228  13.304  14.858
14534SOL     OW45440   3.989  13.122   5.079
14534SOL    HW145441   4.007  13.074   4.998
14534SOL    HW245442   4.059  13.094   5.139
14535SOL     OW45443  14.386   0.750   8.684
14535SOL    HW145444  14.402   0.707   8.768
14535SOL    HW245445  14.292   0.764   8.682
14536SOL     OW45446  11.603   2.760  14.751
14536SOL    HW145447  11.600   2.828  14.819
14536SOL    HW245448  11.654   2.799  14.680
14537SOL     OW45449   7.581  14.787   9.916
14537SOL    HW145450   7.589  14.805  10.010
14537SOL    HW245451   7.655  14.729   9.897
14538SOL     OW45452   1.974   4.124  13.940
14538SOL    HW145453   2.030   4.095  13.868
14538SOL    HW245454   1.887   4.090  13.917
14539SOL     OW45455   9.716   9.002   0.167
14539SOL    HW145456   9.802   9.025   0.202
14539SOL    HW245457   9.660   8.993   0.244
14540SOL     OW45458  12.832   2.952   1.012
14540SOL    HW145459  12.749   2.975   1.054
14540SOL    HW245460  12.824   2.984   0.923
14541SOL     OW45461  12.389   0.269   9.108
14541SOL    HW145462  12.334   0.286   9.184
14541SOL    HW245463  12.337   0.298   9.033
14542SOL     OW45464   8.275   5.617   4.308
14542SOL    HW145465   8.248   5.568   4.385
14542SOL    HW245466   8.339   5.681   4.341
14543SOL     OW45467   9.184  14.721   2.572
14543SOL    HW145468   9.146  14.634   2.581
14543SOL    HW245469   9.268  14.706   2.527
14544SOL     OW45470   4.621  13.294   7.983
14544SOL    HW145471   4.714  13.277   7.994
14544SOL    HW245472   4.592  13.229   7.918
14545SOL     OW45473   8.676  10.604   7.509
14545SOL    HW145474   8.594  10.589   7.461
14545SOL    HW245475   8.670  10.695   7.538
14546SOL     OW45476   6.637   4.287  11.859
14546SOL    HW145477   6.654   4.203  11.901
14546SOL    HW245478   6.545   4.284  11.833
14547SOL     OW45479  10.951   7.719   2.422
14547SOL    HW145480  11.013   7.662   2.466
14547SOL    HW245481  10.995   7.804   2.417
14548SOL     OW45482   7.756  10.801   1.538
14548SOL    HW145483   7.734  10.746   1.613
14548SOL    HW245484   7.817  10.866   1.573
14549SOL     OW45485  10.130   1.223   8.083
14549SOL    HW145486  10.158   1.252   7.996
14549SOL    HW245487  10.150   1.130   8.085
14550SOL     OW45488   3.649   1.020   0.326
14550SOL    HW145489   3.718   1.060   0.275
14550SOL    HW245490   3.613   1.091   0.380
14551SOL     OW45491  14.762   4.450   9.252
14551SOL    HW145492  14.752   4.514   9.181
14551SOL    HW245493  14.692   4.472   9.314
14552SOL     OW45494  12.306   5.634  11.713
14552SOL    HW145495  12.383   5.584  11.742
14552SOL    HW245496  12.334   5.675  11.632
14553SOL     OW45497   1.614   5.729   3.396
14553SOL    HW145498   1.548   5.661   3.387
14553SOL    HW245499   1.664   5.703   3.473
14554SOL     OW45500   8.043   5.422  12.785
14554SOL    HW145501   7.987   5.462  12.719
14554SOL    HW245502   8.103   5.492  12.811
14555SOL     OW45503   4.049  11.338  10.605
14555SOL    HW145504   4.007  11.409  10.654
14555SOL    HW245505   4.028  11.259  10.655
14556SOL     OW45506   9.036   7.840   7.922
14556SOL    HW145507   9.086   7.876   7.996
14556SOL    HW245508   9.073   7.882   7.845
14557SOL     OW45509   0.743  13.444   0.284
14557SOL    HW145510   0.775  13.508   0.348
14557SOL    HW245511   0.648  13.455   0.284
14558SOL     OW45512   5.919   5.878   9.911
14558SOL    HW145513   5.875   5.958   9.881
14558SOL    HW245514   5.998   5.873   9.857
14559SOL     OW45515   2.345  12.826   7.224
14559SOL    HW145516   2.315  12.864   7.307
14559SOL    HW245517   2.312  12.885   7.157
14560SOL     OW45518  11.523  12.482  12.122
14560SOL    HW145519  11.530  12.536  12.044
14560SOL    HW245520  11.478  12.537  12.186
14561SOL     OW45521   5.938   4.401   5.206
14561SOL    HW145522   5.877   4.327   5.204
14561SOL    HW245523   6.008   4.375   5.147
14562SOL     OW45524  11.520   5.659   5.670
14562SOL    HW145525  11.500   5.584   5.726
14562SOL    HW245526  11.435   5.686   5.635
14563SOL     OW45527   6.470  10.279   7.155
14563SOL    HW145528   6.397  10.280   7.094
14563SOL    HW245529   6.540  10.234   7.108
14564SOL     OW45530   8.395  10.135   5.022
14564SOL    HW145531   8.357  10.158   5.107
14564SOL    HW245532   8.373  10.208   4.965
14565SOL     OW45533   7.750   1.031   2.135
14565SOL    HW145534   7.801   1.112   2.137
14565SOL    HW245535   7.806   0.968   2.090
14566SOL     OW45536  10.628   8.011  14.236
14566SOL    HW145537  10.691   8.079  14.213
14566SOL    HW245538  10.648   7.939  14.177
14567SOL     OW45539   4.782   6.472   7.620
14567SOL    HW145540   4.825   6.402   7.571
14567SOL    HW245541   4.778   6.439   7.710
14568SOL     OW45542   8.536   9.243   5.716
14568SOL    HW145543   8.527   9.153   5.683
14568SOL    HW245544   8.566   9.293   5.640
14569SOL     OW45545   7.876  14.596   9.094
14569SOL    HW145546   7.894  14.689   9.106
14569SOL    HW245547   7.852  14.565   9.182
14570SOL     OW45548   2.975   5.354   5.038
14570SOL    HW145549   2.951   5.269   5.003
14570SOL    HW245550   3.060   5.340   5.081
14571SOL     OW45551  14.492   0.407  10.227
14571SOL    HW145552  14.435   0.389  10.152
14571SOL    HW245553  14.450   0.363  10.300
14572SOL     OW45554   2.003   9.332   7.627
14572SOL    HW145555   2.089   9.369   7.608
14572SOL    HW245556   2.021   9.242   7.652
14573SOL     OW45557   3.659   1.427  13.478
14573SOL    HW145558   3.604   1.502  13.457
14573SOL    HW245559   3.681   1.438  13.571
14574SOL     OW45560   0.277   2.016   1.377
14574SOL    HW145561   0.272   1.922   1.395
14574SOL    HW245562   0.357   2.025   1.325
14575SOL     OW45563   5.489  10.634   2.440
14575SOL    HW145564   5.572  10.667   2.405
14575SOL    HW245565   5.515  10.581   2.516
14576SOL     OW45566  14.502   5.208   0.780
14576SOL    HW145567  14.448   5.270   0.829
14576SOL    HW245568  14.534   5.259   0.705
14577SOL     OW45569  12.664  14.764   9.370
14577SOL    HW145570  12.754  14.760   9.402
14577SOL    HW245571  12.614  14.712   9.432
14578SOL     OW45572  12.732  11.490   9.506
14578SOL    HW145573  12.776  11.420   9.554
14578SOL    HW245574  12.639  11.481   9.530
14579SOL     OW45575  14.122   4.724   7.897
14579SOL    HW145576  14.159   4.667   7.830
14579SOL    HW245577  14.052   4.771   7.852
14580SOL     OW45578   6.148   8.564  10.575
14580SOL    HW145579   6.215   8.497  10.563
14580SOL    HW245580   6.094   8.532  10.647
14581SOL     OW45581  11.646  11.252  12.100
14581SOL    HW145582  11.719  11.260  12.038
14581SOL    HW245583  11.594  11.179  12.065
14582SOL     OW45584   9.249   4.472   3.186
14582SOL    HW145585   9.251   4.377   3.173
14582SOL    HW245586   9.233   4.484   3.279
14583SOL     OW45587  14.645  11.030   2.833
14583SOL    HW145588  14.666  11.118   2.801
14583SOL    HW245589  14.647  10.975   2.755
14584SOL     OW45590  10.893   5.306   2.372
14584SOL    HW145591  10.961   5.239   2.385
14584SOL    HW245592  10.822   5.259   2.327
14585SOL     OW45593   7.517   1.010   8.559
14585SOL    HW145594   7.575   0.936   8.574
14585SOL    HW245595   7.469   0.987   8.479
14586SOL     OW45596   1.992  11.060   7.691
14586SOL    HW145597   1.903  11.035   7.717
14586SOL    HW245598   2.028  11.103   7.769
14587SOL     OW45599   4.986  10.262   6.235
14587SOL    HW145600   5.069  10.257   6.187
14587SOL    HW245601   5.012  10.272   6.327
14588SOL     OW45602  12.805   3.353   8.450
14588SOL    HW145603  12.877   3.413   8.430
14588SOL    HW245604  12.746   3.361   8.375
14589SOL     OW45605   7.478  10.823  10.803
14589SOL    HW145606   7.405  10.859  10.752
14589SOL    HW245607   7.494  10.888  10.871
14590SOL     OW45608  13.490   0.933   7.932
14590SOL    HW145609  13.511   0.963   7.844
14590SOL    HW245610  13.402   0.896   7.925
14591SOL     OW45611   3.149   1.534   8.843
14591SOL    HW145612   3.194   1.549   8.760
14591SOL    HW245613   3.089   1.461   8.825
14592SOL     OW45614  11.375  12.008  10.193
14592SOL    HW145615  11.468  12.027  10.179
14592SOL    HW245616  11.342  12.084  10.241
14593SOL     OW45617   0.327  14.082   5.410
14593SOL    HW145618   0.382  14.159   5.424
14593SOL    HW245619   0.247  14.116   5.370
14594SOL     OW45620   8.794  13.938   6.909
14594SOL    HW145621   8.834  13.855   6.933
14594SOL    HW245622   8.798  13.991   6.989
14595SOL     OW45623  12.937   1.056   6.347
14595SOL    HW145624  12.852   1.036   6.307
14595SOL    HW245625  12.926   1.144   6.384
14596SOL     OW45626   8.059  12.251  14.409
14596SOL    HW145627   8.133  12.310  14.420
14596SOL    HW245628   8.026  12.236  14.497
14597SOL     OW45629  14.267   3.429  11.085
14597SOL    HW145630  14.220   3.353  11.050
14597SOL    HW245631  14.247   3.429  11.178
14598SOL     OW45632   4.022  13.999   0.021
14598SOL    HW145633   4.058  13.980  14.814
14598SOL    HW245634   4.076  14.071   0.054
14599SOL     OW45635   5.834   7.305   0.796
14599SOL    HW145636   5.800   7.258   0.720
14599SOL    HW245637   5.779   7.278   0.869
14600SOL     OW45638   8.526   3.753   8.144
14600SOL    HW145639   8.609   3.768   8.097
14600SOL    HW245640   8.460   3.795   8.089
14601SOL     OW45641  13.623   1.510   7.959
14601SOL    HW145642  13.575   1.427   7.956
14601SOL    HW245643  13.607   1.551   7.874
14602SOL     OW45644  10.562  10.308   8.326
14602SOL    HW145645  10.528  10.342   8.409
14602SOL    HW245646  10.484  10.294   8.272
14603SOL     OW45647  11.659  11.097   5.513
14603SOL    HW145648  11.713  11.123   5.587
14603SOL    HW245649  11.598  11.033   5.549
14604SOL     OW45650   5.188   7.706   3.805
14604SOL    HW145651   5.167   7.661   3.723
14604SOL    HW245652   5.166   7.642   3.873
14605SOL     OW45653  10.491  11.168  12.820
14605SOL    HW145654  10.508  11.075  12.805
14605SOL    HW245655  10.550  11.192  12.892
14606SOL     OW45656  11.626   6.774  11.845
14606SOL    HW145657  11.535   6.752  11.862
14606SOL    HW245658  11.644   6.847  11.905
14607SOL     OW45659   9.406  13.701   8.320
14607SOL    HW145660   9.448  13.786   8.333
14607SOL    HW245661   9.356  13.711   8.239
14608SOL     OW45662   9.305  14.294   5.051
14608SOL    HW145663   9.334  14.280   4.961
14608SOL    HW245664   9.317  14.388   5.066
14609SOL     OW45665  10.219   4.268   3.520
14609SOL    HW145666  10.156   4.216   3.470
14609SOL    HW245667  10.201   4.246   3.612
14610SOL     OW45668   4.942   7.709   4.703
14610SOL    HW145669   4.946   7.660   4.621
14610SOL    HW245670   4.950   7.643   4.771
14611SOL     OW45671   2.450   9.476   9.637
14611SOL    HW145672   2.503   9.538   9.585
14611SOL    HW245673   2.360   9.501   9.618
14612SOL     OW45674   5.359  10.208   9.469
14612SOL    HW145675   5.280  10.158   9.448
14612SOL    HW245676   5.327  10.290   9.506
14613SOL     OW45677   7.833  11.661  11.844
14613SOL    HW145678   7.824  11.733  11.781
14613SOL    HW245679   7.745  11.647  11.878
14614SOL     OW45680   0.345   7.876   2.928
14614SOL    HW145681   0.413   7.815   2.956
14614SOL    HW245682   0.263   7.828   2.938
14615SOL     OW45683   6.721  13.250   2.220
14615SOL    HW145684   6.713  13.340   2.251
14615SOL    HW245685   6.800  13.251   2.165
14616SOL     OW45686   3.068  11.270   0.628
14616SOL    HW145687   3.011  11.237   0.697
14616SOL    HW245688   3.047  11.217   0.552
14617SOL     OW45689   7.400   4.941   1.397
14617SOL    HW145690   7.344   5.005   1.353
14617SOL    HW245691   7.370   4.941   1.487
14618SOL     OW45692   2.509   5.290   1.667
14618SOL    HW145693   2.534   5.225   1.733
14618SOL    HW245694   2.496   5.371   1.717
14619SOL     OW45695  12.833   2.371  13.182
14619SOL    HW145696  12.764   2.315  13.218
14619SOL    HW245697  12.914   2.337  13.221
14620SOL     OW45698  13.825   6.541  10.187
14620SOL    HW145699  13.736   6.558  10.156
14620SOL    HW245700  13.864   6.628  10.195
14621SOL     OW45701  11.132   5.734   3.014
14621SOL    HW145702  11.057   5.729   3.074
14621SOL    HW245703  11.200   5.683   3.058
14622SOL     OW45704   0.485   7.734   0.398
14622SOL    HW145705   0.410   7.679   0.376
14622SOL    HW245706   0.559   7.673   0.403
14623SOL     OW45707   6.038   9.098   9.534
14623SOL    HW145708   6.112   9.072   9.479
14623SOL    HW245709   6.079   9.134   9.613
14624SOL     OW45710   6.747   7.292   2.548
14624SOL    HW145711   6.827   7.244   2.568
14624SOL    HW245712   6.745   7.364   2.611
14625SOL     OW45713   8.299   1.906   9.275
14625SOL    HW145714   8.236   1.901   9.347
14625SOL    HW245715   8.247   1.888   9.196
14626SOL     OW45716   4.738  12.665   4.162
14626SOL    HW145717   4.784  12.730   4.108
14626SOL    HW245718   4.738  12.586   4.108
14627SOL     OW45719  11.676   1.633   8.958
14627SOL    HW145720  11.677   1.585   9.041
14627SOL    HW245721  11.609   1.589   8.906
14628SOL     OW45722   0.518   5.989  10.353
14628SOL    HW145723   0.502   6.035  10.270
14628SOL    HW245724   0.605   5.952  10.343
14629SOL     OW45725   9.120  12.486  11.623
14629SOL    HW145726   9.119  12.553  11.555
14629SOL    HW245727   9.201  12.437  11.607
14630SOL     OW45728   5.415   0.027   2.011
14630SOL    HW145729   5.334  14.861   1.984
14630SOL    HW245730   5.417   0.105   1.955
14631SOL     OW45731   3.052   1.927  11.360
14631SOL    HW145732   3.139   1.922  11.321
14631SOL    HW245733   3.068   1.936  11.454
14632SOL     OW45734  11.019   3.691   9.386
14632SOL    HW145735  11.021   3.784   9.406
14632SOL    HW245736  10.962   3.654   9.454
14633SOL     OW45737  10.707  12.104  11.069
14633SOL    HW145738  10.686  12.079  10.979
14633SOL    HW245739  10.744  12.024  11.107
14634SOL     OW45740   9.653   9.606   3.844
14634SOL    HW145741   9.673   9.577   3.932
14634SOL    HW245742   9.608   9.690   3.856
14635SOL     OW45743   9.919  14.799   4.400
14635SOL    HW145744   9.870  14.783   4.319
14635SOL    HW245745   9.878  14.876   4.439
14636SOL     OW45746  14.027   1.498  10.604
14636SOL    HW145747  14.010   1.406  10.582
14636SOL    HW245748  14.019   1.544  10.521
14637SOL     OW45749   8.116   4.947  10.869
14637SOL    HW145750   8.168   5.006  10.924
14637SOL    HW245751   8.065   4.896  10.931
14638SOL     OW45752   4.278   6.205  10.188
14638SOL    HW145753   4.289   6.110  10.183
14638SOL    HW245754   4.329   6.230  10.266
14639SOL     OW45755  13.651  10.162  10.572
14639SOL    HW145756  13.726  10.195  10.522
14639SOL    HW245757  13.688  10.129  10.653
14640SOL     OW45758  12.858  14.822   3.217
14640SOL    HW145759  12.927   0.005   3.195
14640SOL    HW245760  12.816  14.859   3.295
14641SOL     OW45761   3.537  14.264   2.417
14641SOL    HW145762   3.608  14.323   2.394
14641SOL    HW245763   3.509  14.226   2.334
14642SOL     OW45764   3.682   1.127  12.100
14642SOL    HW145765   3.769   1.094  12.075
14642SOL    HW245766   3.700   1.208  12.146
14643SOL     OW45767  14.388   0.324   6.728
14643SOL    HW145768  14.366   0.350   6.638
14643SOL    HW245769  14.310   0.347   6.779
14644SOL     OW45770   8.303   2.464  12.649
14644SOL    HW145771   8.298   2.558  12.631
14644SOL    HW245772   8.234   2.448  12.714
14645SOL     OW45773   3.129   4.401   1.430
14645SOL    HW145774   3.054   4.449   1.464
14645SOL    HW245775   3.205   4.443   1.470
14646SOL     OW45776   3.196   1.774  11.957
14646SOL    HW145777   3.264   1.841  11.946
14646SOL    HW245778   3.232   1.715  12.023
14647SOL     OW45779   6.538   2.790   8.361
14647SOL    HW145780   6.454   2.825   8.389
14647SOL    HW245781   6.516   2.715   8.306
14648SOL     OW45782   7.258   5.107   4.424
14648SOL    HW145783   7.336   5.155   4.453
14648SOL    HW245784   7.275   5.088   4.332
14649SOL     OW45785  14.874   2.151   1.977
14649SOL    HW145786   0.069   2.202   1.948
14649SOL    HW245787  14.808   2.216   2.001
14650SOL     OW45788   4.924   8.708  12.574
14650SOL    HW145789   5.013   8.677  12.593
14650SOL    HW245790   4.872   8.628  12.571
14651SOL     OW45791   3.900   5.869   6.327
14651SOL    HW145792   3.874   5.929   6.398
14651SOL    HW245793   3.986   5.901   6.299
14652SOL     OW45794  13.279  13.293  12.616
14652SOL    HW145795  13.282  13.387  12.597
14652SOL    HW245796  13.188  13.277  12.643
14653SOL     OW45797   2.353   7.087  14.669
14653SOL    HW145798   2.426   7.118  14.615
14653SOL    HW245799   2.394   7.054  14.749
14654SOL     OW45800  11.207   2.678  13.959
14654SOL    HW145801  11.259   2.757  13.975
14654SOL    HW245802  11.268   2.606  13.967
14655SOL     OW45803   2.845  10.004   1.424
14655SOL    HW145804   2.843  10.038   1.335
14655SOL    HW245805   2.790  10.064   1.474
14656SOL     OW45806  12.905  11.371   3.709
14656SOL    HW145807  12.855  11.441   3.666
14656SOL    HW245808  12.989  11.370   3.663
14657SOL     OW45809   6.778   6.598   7.456
14657SOL    HW145810   6.727   6.625   7.533
14657SOL    HW245811   6.847   6.542   7.491
14658SOL     OW45812   3.843  13.511   5.155
14658SOL    HW145813   3.890  13.447   5.209
14658SOL    HW245814   3.755  13.475   5.145
14659SOL     OW45815   1.511  10.817   1.553
14659SOL    HW145816   1.537  10.733   1.591
14659SOL    HW245817   1.592  10.868   1.549
14660SOL     OW45818   3.694  11.976  14.572
14660SOL    HW145819   3.708  12.068  14.592
14660SOL    HW245820   3.685  11.973  14.477
14661SOL     OW45821  11.968   0.524   3.210
14661SOL    HW145822  12.014   0.599   3.247
14661SOL    HW245823  12.029   0.489   3.145
14662SOL     OW45824  11.048   9.518  12.542
14662SOL    HW145825  11.091   9.576  12.479
14662SOL    HW245826  11.037   9.436  12.494
14663SOL     OW45827   2.245   0.007  12.267
14663SOL    HW145828   2.244  14.861  12.175
14663SOL    HW245829   2.326  14.849  12.301
14664SOL     OW45830   6.728  14.461  10.160
14664SOL    HW145831   6.714  14.544  10.207
14664SOL    HW245832   6.644  14.416  10.165
14665SOL     OW45833   8.357  13.731   1.237
14665SOL    HW145834   8.450  13.753   1.224
14665SOL    HW245835   8.349  13.641   1.208
14666SOL     OW45836   2.687  14.098   7.115
14666SOL    HW145837   2.779  14.121   7.104
14666SOL    HW245838   2.678  14.014   7.069
14667SOL     OW45839   3.857   1.655   8.284
14667SOL    HW145840   3.832   1.575   8.331
14667SOL    HW245841   3.950   1.667   8.303
14668SOL     OW45842   2.188   0.390  11.474
14668SOL    HW145843   2.238   0.309  11.466
14668SOL    HW245844   2.208   0.438  11.393
14669SOL     OW45845   2.550   0.826   0.868
14669SOL    HW145846   2.588   0.757   0.921
14669SOL    HW245847   2.481   0.863   0.922
14670SOL     OW45848  14.495   0.620   4.353
14670SOL    HW145849  14.405   0.588   4.357
14670SOL    HW245850  14.549   0.542   4.366
14671SOL     OW45851   6.886   6.265  13.120
14671SOL    HW145852   6.941   6.255  13.198
14671SOL    HW245853   6.846   6.179  13.108
14672SOL     OW45854   0.232  12.870   0.157
14672SOL    HW145855   0.202  12.779   0.164
14672SOL    HW245856   0.283  12.871   0.076
14673SOL     OW45857   6.335   7.019   3.972
14673SOL    HW145858   6.425   7.052   3.978
14673SOL    HW245859   6.287   7.087   3.926
14674SOL     OW45860   9.182   5.614  14.694
14674SOL    HW145861   9.129   5.657  14.627
14674SOL    HW245862   9.151   5.650  14.776
14675SOL     OW45863   8.643  14.704   2.062
14675SOL    HW145864   8.686  14.783   2.027
14675SOL    HW245865   8.583  14.677   1.993
14676SOL     OW45866   6.222  13.293   7.328
14676SOL    HW145867   6.163  13.308   7.402
14676SOL    HW245868   6.219  13.374   7.278
14677SOL     OW45869   9.325   3.257   9.839
14677SOL    HW145870   9.362   3.184   9.790
14677SOL    HW245871   9.264   3.216   9.900
14678SOL     OW45872   0.397  10.576   3.395
14678SOL    HW145873   0.402  10.668   3.422
14678SOL    HW245874   0.330  10.539   3.452
14679SOL     OW45875   3.788   2.557  11.535
14679SOL    HW145876   3.813   2.614  11.462
14679SOL    HW245877   3.869   2.545  11.585
14680SOL     OW45878   0.571   8.470  13.355
14680SOL    HW145879   0.604   8.514  13.276
14680SOL    HW245880   0.510   8.532  13.394
14681SOL     OW45881   4.140   1.749   2.366
14681SOL    HW145882   4.152   1.709   2.280
14681SOL    HW245883   4.048   1.732   2.387
14682SOL     OW45884  10.627   6.686   3.703
14682SOL    HW145885  10.676   6.707   3.782
14682SOL    HW245886  10.546   6.645   3.735
14683SOL     OW45887  12.308   5.890   1.146
14683SOL    HW145888  12.261   5.886   1.063
14683SOL    HW245889  12.351   5.805   1.154
14684SOL     OW45890   5.766   5.322   0.312
14684SOL    HW145891   5.743   5.270   0.389
14684SOL    HW245892   5.862   5.324   0.313
14685SOL     OW45893   2.534   5.213   7.667
14685SOL    HW145894   2.569   5.127   7.690
14685SOL    HW245895   2.443   5.211   7.695
14686SOL     OW45896   2.239   4.709   4.437
14686SOL    HW145897   2.234   4.788   4.490
14686SOL    HW245898   2.202   4.734   4.352
14687SOL     OW45899   9.227   4.332   0.432
14687SOL    HW145900   9.185   4.315   0.348
14687SOL    HW245901   9.158   4.373   0.485
14688SOL     OW45902   2.408   0.814   5.582
14688SOL    HW145903   2.337   0.829   5.519
14688SOL    HW245904   2.469   0.757   5.535
14689SOL     OW45905   0.910  11.044   0.159
14689SOL    HW145906   0.957  10.990   0.096
14689SOL    HW245907   0.823  11.004   0.164
14690SOL     OW45908   6.000   9.906  10.190
14690SOL    HW145909   6.071   9.893  10.253
14690SOL    HW245910   6.008   9.831  10.131
14691SOL     OW45911   6.084   8.125   3.875
14691SOL    HW145912   6.168   8.170   3.876
14691SOL    HW245913   6.061   8.119   3.782
14692SOL     OW45914  12.360   3.720   3.888
14692SOL    HW145915  12.287   3.665   3.916
14692SOL    HW245916  12.358   3.715   3.793
14693SOL     OW45917  10.041  10.627   0.572
14693SOL    HW145918  10.042  10.561   0.642
14693SOL    HW245919  10.100  10.695   0.604
14694SOL     OW45920  12.488  12.662  12.906
14694SOL    HW145921  12.426  12.600  12.866
14694SOL    HW245922  12.539  12.695  12.832
14695SOL     OW45923   4.057  14.382   6.099
14695SOL    HW145924   3.994  14.393   6.027
14695SOL    HW245925   4.039  14.455   6.157
14696SOL     OW45926   8.485  14.182  12.260
14696SOL    HW145927   8.559  14.208  12.314
14696SOL    HW245928   8.466  14.092  12.288
14697SOL     OW45929   2.289   0.121   1.726
14697SOL    HW145930   2.264   0.092   1.639
14697SOL    HW245931   2.281   0.217   1.723
14698SOL     OW45932   5.458  13.603   3.882
14698SOL    HW145933   5.491  13.574   3.797
14698SOL    HW245934   5.492  13.538   3.944
14699SOL     OW45935  11.691  14.621  12.014
14699SOL    HW145936  11.605  14.608  12.055
14699SOL    HW245937  11.679  14.593  11.923
14700SOL     OW45938   8.163  14.770   4.125
14700SOL    HW145939   8.132  14.692   4.080
14700SOL    HW245940   8.181  14.833   4.055
14701SOL     OW45941   7.556   5.094  13.424
14701SOL    HW145942   7.612   5.019  13.403
14701SOL    HW245943   7.558   5.099  13.520
14702SOL     OW45944  10.243  13.334  13.064
14702SOL    HW145945  10.217  13.341  13.156
14702SOL    HW245946  10.162  13.348  13.015
14703SOL     OW45947  14.341  13.792   3.864
14703SOL    HW145948  14.369  13.817   3.952
14703SOL    HW245949  14.391  13.848   3.806
14704SOL     OW45950   6.694  14.123   5.496
14704SOL    HW145951   6.727  14.079   5.418
14704SOL    HW245952   6.735  14.076   5.569
14705SOL     OW45953   8.499   7.395   7.155
14705SOL    HW145954   8.512   7.445   7.235
14705SOL    HW245955   8.404   7.380   7.150
14706SOL     OW45956   3.345   2.425   0.901
14706SOL    HW145957   3.276   2.486   0.878
14706SOL    HW245958   3.305   2.367   0.966
14707SOL     OW45959   7.418   4.470   9.028
14707SOL    HW145960   7.330   4.505   9.038
14707SOL    HW245961   7.473   4.525   9.083
14708SOL     OW45962   9.298   8.081   3.628
14708SOL    HW145963   9.278   7.995   3.591
14708SOL    HW245964   9.316   8.137   3.552
14709SOL     OW45965  12.814   0.989   6.946
14709SOL    HW145966  12.814   0.927   6.873
14709SOL    HW245967  12.764   0.945   7.015
14710SOL     OW45968   6.386   0.624   0.012
14710SOL    HW145969   6.304   0.575   0.003
14710SOL    HW245970   6.371   0.686   0.083
14711SOL     OW45971   5.173   8.241   4.507
14711SOL    HW145972   5.094   8.188   4.514
14711SOL    HW245973   5.245   8.179   4.520
14712SOL     OW45974   7.141   1.428   0.377
14712SOL    HW145975   7.115   1.484   0.303
14712SOL    HW245976   7.185   1.354   0.336
14713SOL     OW45977   5.046  13.654   1.660
14713SOL    HW145978   4.987  13.627   1.730
14713SOL    HW245979   5.080  13.572   1.624
14714SOL     OW45980   0.658  11.371  12.134
14714SOL    HW145981   0.669  11.322  12.052
14714SOL    HW245982   0.565  11.366  12.152
14715SOL     OW45983  12.205   6.311  10.091
14715SOL    HW145984  12.116   6.344  10.105
14715SOL    HW245985  12.233   6.279  10.176
14716SOL     OW45986   8.696   8.016  14.542
14716SOL    HW145987   8.656   7.949  14.598
14716SOL    HW245988   8.771   7.972  14.502
14717SOL     OW45989  13.637   2.765  13.038
14717SOL    HW145990  13.627   2.671  13.019
14717SOL    HW245991  13.717   2.790  12.993
14718SOL     OW45992  13.034  13.797   9.006
14718SOL    HW145993  13.057  13.746   9.084
14718SOL    HW245994  12.941  13.815   9.015
14719SOL     OW45995  10.865  13.410   6.690
14719SOL    HW145996  10.953  13.376   6.704
14719SOL    HW245997  10.814  13.333   6.665
14720SOL     OW45998   1.159   0.252   6.497
14720SOL    HW145999   1.122   0.307   6.428
14720SOL    HW246000   1.089   0.189   6.517
14721SOL     OW46001   7.707  11.474   2.531
14721SOL    HW146002   7.648  11.535   2.576
14721SOL    HW246003   7.740  11.523   2.456
14722SOL     OW46004  14.692   5.543   0.743
14722SOL    HW146005  14.643   5.483   0.687
14722SOL    HW246006  14.779   5.548   0.703
14723SOL     OW46007  14.337  12.057   6.405
14723SOL    HW146008  14.324  12.086   6.315
14723SOL    HW246009  14.341  11.961   6.399
14724SOL     OW46010  12.356   2.337  13.045
14724SOL    HW146011  12.277   2.285  13.053
14724SOL    HW246012  12.422   2.289  13.096
14725SOL     OW46013  11.492   2.949  13.400
14725SOL    HW146014  11.418   3.008  13.392
14725SOL    HW246015  11.481   2.887  13.328
14726SOL     OW46016   8.711  10.203   9.122
14726SOL    HW146017   8.654  10.126   9.114
14726SOL    HW246018   8.651  10.277   9.129
14727SOL     OW46019   0.921   9.203   7.585
14727SOL    HW146020   0.855   9.231   7.648
14727SOL    HW246021   0.990   9.270   7.590
14728SOL     OW46022   3.258  13.333  10.145
14728SOL    HW146023   3.297  13.271  10.207
14728SOL    HW246024   3.329  13.394  10.124
14729SOL     OW46025   5.404   4.269   7.040
14729SOL    HW146026   5.471   4.334   7.061
14729SOL    HW246027   5.327   4.321   7.015
14730SOL     OW46028  10.445   8.413  13.269
14730SOL    HW146029  10.423   8.458  13.351
14730SOL    HW246030  10.504   8.343  13.296
14731SOL     OW46031   0.601   0.475   4.465
14731SOL    HW146032   0.585   0.422   4.544
14731SOL    HW246033   0.566   0.422   4.394
14732SOL     OW46034   9.141  14.717   2.842
14732SOL    HW146035   9.138  14.719   2.746
14732SOL    HW246036   9.055  14.684   2.868
14733SOL     OW46037   0.196  14.506   5.122
14733SOL    HW146038   0.126  14.500   5.057
14733SOL    HW246039   0.271  14.464   5.081
14734SOL     OW46040  10.956   9.345   7.041
14734SOL    HW146041  10.946   9.415   7.107
14734SOL    HW246042  10.866   9.321   7.019
14735SOL     OW46043  10.125   8.131   6.081
14735SOL    HW146044  10.085   8.200   6.028
14735SOL    HW246045  10.137   8.172   6.167
14736SOL     OW46046   4.285   3.641   8.044
14736SOL    HW146047   4.343   3.661   7.971
14736SOL    HW246048   4.332   3.574   8.094
14737SOL     OW46049  14.069   5.100  14.099
14737SOL    HW146050  14.051   5.007  14.112
14737SOL    HW246051  14.160   5.111  14.125
14738SOL     OW46052   8.082  12.701   5.752
14738SOL    HW146053   8.145  12.708   5.823
14738SOL    HW246054   8.030  12.623   5.773
14739SOL     OW46055   5.409   5.553   8.486
14739SOL    HW146056   5.496   5.583   8.460
14739SOL    HW246057   5.373   5.626   8.537
14740SOL     OW46058  10.431   6.467   9.549
14740SOL    HW146059  10.421   6.477   9.454
14740SOL    HW246060  10.383   6.387   9.570
14741SOL     OW46061   4.361  13.178  12.953
14741SOL    HW146062   4.317  13.246  13.004
14741SOL    HW246063   4.430  13.146  13.011
14742SOL     OW46064   4.966   4.180   5.271
14742SOL    HW146065   5.003   4.107   5.221
14742SOL    HW246066   5.036   4.245   5.273
14743SOL     OW46067   1.519  10.038  12.467
14743SOL    HW146068   1.580  10.099  12.507
14743SOL    HW246069   1.563   9.953  12.471
14744SOL     OW46070   0.075   2.375   6.690
14744SOL    HW146071   0.115   2.394   6.605
14744SOL    HW246072   0.028   2.293   6.677
14745SOL     OW46073   5.594   9.591   0.579
14745SOL    HW146074   5.499   9.582   0.569
14745SOL    HW246075   5.612   9.683   0.562
14746SOL     OW46076  14.036   5.847   2.292
14746SOL    HW146077  14.078   5.845   2.378
14746SOL    HW246078  14.098   5.894   2.236
14747SOL     OW46079   8.047   5.183  13.748
14747SOL    HW146080   8.122   5.181  13.688
14747SOL    HW246081   7.999   5.102  13.730
14748SOL     OW46082   4.621  12.131   1.861
14748SOL    HW146083   4.600  12.103   1.772
14748SOL    HW246084   4.570  12.072   1.917
14749SOL     OW46085   2.102   7.830   7.839
14749SOL    HW146086   2.080   7.903   7.898
14749SOL    HW246087   2.150   7.872   7.768
14750SOL     OW46088   6.617   3.511   7.856
14750SOL    HW146089   6.632   3.564   7.778
14750SOL    HW246090   6.561   3.565   7.912
14751SOL     OW46091  11.555   3.263  14.094
14751SOL    HW146092  11.595   3.176  14.104
14751SOL    HW246093  11.619   3.312  14.042
14752SOL     OW46094   0.984  12.161   9.418
14752SOL    HW146095   1.060  12.187   9.366
14752SOL    HW246096   1.002  12.071   9.444
14753SOL     OW46097   1.932   2.518   9.185
14753SOL    HW146098   1.921   2.535   9.091
14753SOL    HW246099   1.857   2.462   9.208
14754SOL     OW46100   2.313  13.016   7.022
14754SOL    HW146101   2.244  13.081   7.007
14754SOL    HW246102   2.381  13.064   7.070
14755SOL     OW46103   0.258  11.089  12.115
14755SOL    HW146104   0.212  11.168  12.146
14755SOL    HW246105   0.221  11.073  12.028
14756SOL     OW46106   5.298  14.458   2.517
14756SOL    HW146107   5.228  14.394   2.533
14756SOL    HW246108   5.252  14.538   2.491
14757SOL     OW46109   0.122  11.595   0.792
14757SOL    HW146110   0.197  11.542   0.767
14757SOL    HW246111   0.046  11.546   0.760
14758SOL     OW46112   4.803  12.634   6.581
14758SOL    HW146113   4.806  12.578   6.504
14758SOL    HW246114   4.736  12.700   6.560
14759SOL     OW46115   1.393   2.957   7.803
14759SOL    HW146116   1.443   2.981   7.882
14759SOL    HW246117   1.417   2.866   7.786
14760SOL     OW46118   5.063   4.241  11.203
14760SOL    HW146119   4.995   4.297  11.165
14760SOL    HW246120   5.136   4.300  11.221
14761SOL     OW46121   3.430  12.928   7.056
14761SOL    HW146122   3.339  12.911   7.082
14761SOL    HW246123   3.463  12.844   7.025
14762SOL     OW46124   2.864   4.573   4.214
14762SOL    HW146125   2.778   4.562   4.175
14762SOL    HW246126   2.846   4.602   4.304
14763SOL     OW46127   9.907   1.322  11.195
14763SOL    HW146128   9.847   1.374  11.142
14763SOL    HW246129   9.907   1.235  11.155
14764SOL     OW46130   5.598  11.259   7.550
14764SOL    HW146131   5.687  11.278   7.578
14764SOL    HW246132   5.608  11.190   7.484
14765SOL     OW46133   4.894  11.388  11.762
14765SOL    HW146134   4.857  11.322  11.820
14765SOL    HW246135   4.870  11.472  11.803
14766SOL     OW46136   3.075   7.239  14.328
14766SOL    HW146137   3.025   7.298  14.272
14766SOL    HW246138   3.023   7.232  14.408
14767SOL     OW46139  12.930   3.449   2.469
14767SOL    HW146140  12.960   3.410   2.551
14767SOL    HW246141  13.002   3.433   2.407
14768SOL     OW46142   6.312  12.847   9.135
14768SOL    HW146143   6.366  12.903   9.080
14768SOL    HW246144   6.357  12.762   9.136
14769SOL     OW46145   9.645  10.586   8.861
14769SOL    HW146146   9.691  10.541   8.790
14769SOL    HW246147   9.559  10.606   8.825
14770SOL     OW46148   2.505   3.216  13.680
14770SOL    HW146149   2.490   3.309  13.700
14770SOL    HW246150   2.433   3.170  13.723
14771SOL     OW46151   3.017  14.201   0.652
14771SOL    HW146152   3.000  14.149   0.574
14771SOL    HW246153   3.004  14.141   0.725
14772SOL     OW46154  13.245   9.459   7.876
14772SOL    HW146155  13.224   9.541   7.921
14772SOL    HW246156  13.286   9.486   7.794
14773SOL     OW46157  12.082  12.482   3.194
14773SOL    HW146158  12.014  12.418   3.216
14773SOL    HW246159  12.105  12.522   3.278
14774SOL     OW46160   8.316  11.614  11.159
14774SOL    HW146161   8.324  11.637  11.252
14774SOL    HW246162   8.380  11.669  11.115
14775SOL     OW46163  13.102   9.974   5.318
14775SOL    HW146164  13.035   9.972   5.386
14775SOL    HW246165  13.059   9.937   5.241
14776SOL     OW46166   3.823   3.497  11.413
14776SOL    HW146167   3.746   3.485  11.357
14776SOL    HW246168   3.876   3.419  11.399
14777SOL     OW46169  14.681   9.203   9.482
14777SOL    HW146170  14.770   9.238   9.485
14777SOL    HW246171  14.651   9.207   9.573
14778SOL     OW46172  11.791   5.056   6.079
14778SOL    HW146173  11.797   5.031   5.987
14778SOL    HW246174  11.756   4.979   6.123
14779SOL     OW46175  12.986  13.338   7.380
14779SOL    HW146176  12.940  13.344   7.297
14779SOL    HW246177  12.964  13.420   7.426
14780SOL     OW46178   0.471  11.659  13.440
14780SOL    HW146179   0.558  11.651  13.479
14780SOL    HW246180   0.486  11.648  13.346
14781SOL     OW46181   1.555  13.788   8.027
14781SOL    HW146182   1.589  13.710   8.071
14781SOL    HW246183   1.627  13.852   8.032
14782SOL     OW46184   5.955   1.532   8.404
14782SOL    HW146185   5.868   1.559   8.376
14782SOL    HW246186   5.997   1.613   8.433
14783SOL     OW46187   2.528   9.051   7.660
14783SOL    HW146188   2.476   9.129   7.681
14783SOL    HW246189   2.608   9.060   7.711
14784SOL     OW46190   0.815  14.723  10.785
14784SOL    HW146191   0.783  14.722  10.694
14784SOL    HW246192   0.736  14.728  10.838
14785SOL     OW46193  12.010  11.139   6.470
14785SOL    HW146194  12.023  11.044   6.477
14785SOL    HW246195  12.059  11.164   6.392
14786SOL     OW46196   6.139  13.001  13.268
14786SOL    HW146197   6.137  13.080  13.323
14786SOL    HW246198   6.194  12.940  13.318
14787SOL     OW46199   1.512   1.504  13.502
14787SOL    HW146200   1.499   1.597  13.485
14787SOL    HW246201   1.442   1.481  13.563
14788SOL     OW46202   2.991   6.743  11.889
14788SOL    HW146203   3.080   6.775  11.908
14788SOL    HW246204   2.949   6.815  11.842
14789SOL     OW46205   7.236   0.000   6.676
14789SOL    HW146206   7.145  14.855   6.659
14789SOL    HW246207   7.274   0.012   6.589
14790SOL     OW46208  11.138   5.827   7.498
14790SOL    HW146209  11.055   5.869   7.519
14790SOL    HW246210  11.115   5.762   7.431
14791SOL     OW46211  10.581  12.841  12.066
14791SOL    HW146212  10.584  12.752  12.031
14791SOL    HW246213  10.648  12.889  12.018
14792SOL     OW46214  12.126   6.987   9.064
14792SOL    HW146215  12.200   7.040   9.094
14792SOL    HW246216  12.158   6.897   9.066
14793SOL     OW46217   7.071  10.774   1.222
14793SOL    HW146218   7.162  10.796   1.243
14793SOL    HW246219   7.078  10.691   1.176
14794SOL     OW46220   7.844   8.064  13.744
14794SOL    HW146221   7.859   7.979  13.784
14794SOL    HW246222   7.932   8.100  13.729
14795SOL     OW46223   7.722  10.224  13.543
14795SOL    HW146224   7.731  10.228  13.638
14795SOL    HW246225   7.634  10.191  13.528
14796SOL     OW46226  12.267   0.753   7.979
14796SOL    HW146227  12.308   0.760   8.065
14796SOL    HW246228  12.201   0.684   7.989
14797SOL     OW46229  12.825  11.944   1.463
14797SOL    HW146230  12.864  11.985   1.385
14797SOL    HW246231  12.884  11.967   1.534
14798SOL     OW46232   0.502  11.325   3.531
14798SOL    HW146233   0.499  11.271   3.452
14798SOL    HW246234   0.562  11.396   3.509
14799SOL     OW46235   2.956  13.580   5.705
14799SOL    HW146236   2.876  13.581   5.757
14799SOL    HW246237   2.942  13.645   5.637
14800SOL     OW46238   9.145   5.490   0.765
14800SOL    HW146239   9.191   5.407   0.755
14800SOL    HW246240   9.175   5.523   0.850
14801SOL     OW46241   6.635   9.706   2.618
14801SOL    HW146242   6.587   9.665   2.546
14801SOL    HW246243   6.721   9.663   2.618
14802SOL     OW46244   4.283   6.344   4.808
14802SOL    HW146245   4.370   6.307   4.817
14802SOL    HW246246   4.296   6.439   4.808
14803SOL     OW46247  12.173  10.392  12.508
14803SOL    HW146248  12.117  10.315  12.518
14803SOL    HW246249  12.112  10.463  12.488
14804SOL     OW46250   4.015   6.232   7.022
14804SOL    HW146251   4.082   6.229   6.954
14804SOL    HW246252   4.058   6.277   7.095
14805SOL     OW46253   9.803   8.234   5.786
14805SOL    HW146254   9.743   8.240   5.712
14805SOL    HW246255   9.747   8.220   5.862
14806SOL     OW46256  12.235   3.147  12.950
14806SOL    HW146257  12.227   3.229  12.901
14806SOL    HW246258  12.189   3.082  12.897
14807SOL     OW46259   4.362   0.768   9.941
14807SOL    HW146260   4.452   0.746   9.966
14807SOL    HW246261   4.312   0.758  10.022
14808SOL     OW46262   6.577   4.870  10.602
14808SOL    HW146263   6.529   4.825  10.533
14808SOL    HW246264   6.531   4.846  10.682
14809SOL     OW46265  14.553  13.132   1.523
14809SOL    HW146266  14.605  13.061   1.561
14809SOL    HW246267  14.482  13.146   1.586
14810SOL     OW46268  10.401   1.265   8.779
14810SOL    HW146269  10.461   1.337   8.759
14810SOL    HW246270  10.314   1.303   8.770
14811SOL     OW46271  11.458  10.716   5.514
14811SOL    HW146272  11.548  10.683   5.518
14811SOL    HW246273  11.408  10.658   5.570
14812SOL     OW46274   1.410   4.479   6.002
14812SOL    HW146275   1.393   4.449   6.092
14812SOL    HW246276   1.465   4.556   6.013
14813SOL     OW46277  11.502   6.252   0.482
14813SOL    HW146278  11.429   6.203   0.444
14813SOL    HW246279  11.477   6.344   0.471
14814SOL     OW46280   3.310   6.531   0.976
14814SOL    HW146281   3.398   6.565   0.992
14814SOL    HW246282   3.252   6.593   1.019
14815SOL     OW46283   2.531   5.111   1.874
14815SOL    HW146284   2.535   5.095   1.969
14815SOL    HW246285   2.473   5.042   1.842
14816SOL     OW46286   8.068  13.871   0.610
14816SOL    HW146287   8.004  13.810   0.648
14816SOL    HW246288   8.017  13.951   0.594
14817SOL     OW46289  12.147  13.854   9.107
14817SOL    HW146290  12.214  13.789   9.129
14817SOL    HW246291  12.091  13.856   9.184
14818SOL     OW46292  13.192  10.648  12.451
14818SOL    HW146293  13.244  10.728  12.461
14818SOL    HW246294  13.177  10.640  12.357
14819SOL     OW46295  12.060  12.960   7.337
14819SOL    HW146296  11.996  13.013   7.385
14819SOL    HW246297  12.012  12.880   7.316
14820SOL     OW46298  10.336  11.085   0.212
14820SOL    HW146299  10.310  11.172   0.183
14820SOL    HW246300  10.383  11.047   0.137
14821SOL     OW46301   0.983   4.472   8.540
14821SOL    HW146302   1.021   4.508   8.620
14821SOL    HW246303   1.054   4.423   8.499
14822SOL     OW46304  13.136   6.525   0.764
14822SOL    HW146305  13.077   6.526   0.839
14822SOL    HW246306  13.130   6.613   0.728
14823SOL     OW46307   7.145  13.879  11.305
14823SOL    HW146308   7.074  13.870  11.369
14823SOL    HW246309   7.186  13.792  11.302
14824SOL     OW46310   2.022  10.508   8.024
14824SOL    HW146311   1.980  10.583   7.981
14824SOL    HW246312   1.958  10.437   8.016
14825SOL     OW46313   3.427   5.074   3.366
14825SOL    HW146314   3.348   5.048   3.319
14825SOL    HW246315   3.394   5.126   3.440
14826SOL     OW46316  11.552   8.688   7.893
14826SOL    HW146317  11.490   8.700   7.965
14826SOL    HW246318  11.509   8.625   7.835
14827SOL     OW46319  14.510   7.982  13.240
14827SOL    HW146320  14.461   7.971  13.321
14827SOL    HW246321  14.482   7.910  13.184
14828SOL     OW46322   5.903  14.255  14.442
14828SOL    HW146323   5.858  14.233  14.524
14828SOL    HW246324   5.891  14.350  14.433
14829SOL     OW46325   3.590   5.074   9.817
14829SOL    HW146326   3.621   4.987   9.845
14829SOL    HW246327   3.664   5.132   9.836
14830SOL     OW46328  11.003   0.132  11.562
14830SOL    HW146329  10.960   0.192  11.623
14830SOL    HW246330  10.938   0.118  11.493
14831SOL     OW46331   9.647  12.212   9.066
14831SOL    HW146332   9.724  12.261   9.038
14831SOL    HW246333   9.597  12.198   8.986
14832SOL     OW46334   7.712   7.522   4.830
14832SOL    HW146335   7.787   7.506   4.886
14832SOL    HW246336   7.641   7.542   4.891
14833SOL     OW46337  10.214   9.225   8.524
14833SOL    HW146338  10.133   9.181   8.501
14833SOL    HW246339  10.223   9.211   8.619
14834SOL     OW46340   1.271  13.192   0.686
14834SOL    HW146341   1.268  13.142   0.605
14834SOL    HW246342   1.236  13.278   0.663
14835SOL     OW46343   4.721   0.106   3.065
14835SOL    HW146344   4.781   0.073   3.132
14835SOL    HW246345   4.768   0.178   3.024
14836SOL     OW46346   3.184   2.187   2.889
14836SOL    HW146347   3.227   2.265   2.922
14836SOL    HW246348   3.159   2.209   2.800
14837SOL     OW46349   0.833  10.413  12.229
14837SOL    HW146350   0.899  10.367  12.281
14837SOL    HW246351   0.805  10.485  12.285
14838SOL     OW46352  14.738  13.168   6.293
14838SOL    HW146353  14.655  13.151   6.337
14838SOL    HW246354  14.804  13.154   6.361
14839SOL     OW46355   1.435  13.682   6.094
14839SOL    HW146356   1.489  13.665   6.017
14839SOL    HW246357   1.472  13.761   6.133
14840SOL     OW46358   2.218   5.279  13.043
14840SOL    HW146359   2.160   5.215  13.085
14840SOL    HW246360   2.217   5.256  12.950
14841SOL     OW46361   1.645   9.926   3.628
14841SOL    HW146362   1.632   9.998   3.690
14841SOL    HW246363   1.731   9.890   3.651
14842SOL     OW46364  10.742  11.884   1.727
14842SOL    HW146365  10.734  11.973   1.760
14842SOL    HW246366  10.797  11.892   1.649
14843SOL     OW46367   3.354  12.074  12.863
14843SOL    HW146368   3.435  12.060  12.913
14843SOL    HW246369   3.297  12.001  12.888
14844SOL     OW46370   0.518   8.787   5.793
14844SOL    HW146371   0.600   8.819   5.756
14844SOL    HW246372   0.541   8.705   5.836
14845SOL     OW46373   6.158  14.714  13.634
14845SOL    HW146374   6.115  14.661  13.568
14845SOL    HW246375   6.215  14.773  13.584
14846SOL     OW46376   9.435  13.068  14.214
14846SOL    HW146377   9.508  13.123  14.187
14846SOL    HW246378   9.411  13.100  14.301
14847SOL     OW46379   1.024   8.134   5.262
14847SOL    HW146380   1.035   8.227   5.242
14847SOL    HW246381   0.972   8.134   5.343
14848SOL     OW46382  10.911  11.286   7.740
14848SOL    HW146383  10.976  11.232   7.784
14848SOL    HW246384  10.828  11.243   7.758
14849SOL     OW46385   6.889   6.774   3.112
14849SOL    HW146386   6.936   6.835   3.055
14849SOL    HW246387   6.870   6.699   3.057
14850SOL     OW46388   7.055   4.370   1.590
14850SOL    HW146389   6.989   4.303   1.572
14850SOL    HW246390   7.083   4.400   1.503
14851SOL     OW46391  12.904  14.648   1.697
14851SOL    HW146392  12.989  14.678   1.666
14851SOL    HW246393  12.914  14.554   1.708
14852SOL     OW46394  11.269   0.225   1.382
14852SOL    HW146395  11.229   0.137   1.383
14852SOL    HW246396  11.306   0.233   1.295
14853SOL     OW46397   1.062  11.839   3.715
14853SOL    HW146398   1.056  11.744   3.726
14853SOL    HW246399   1.140  11.864   3.765
14854SOL     OW46400   7.422  13.847  14.640
14854SOL    HW146401   7.409  13.770  14.695
14854SOL    HW246402   7.504  13.829  14.593
14855SOL     OW46403  11.004   5.658  12.557
14855SOL    HW146404  11.016   5.719  12.630
14855SOL    HW246405  10.958   5.710  12.491
14856SOL     OW46406   2.662   1.026  12.218
14856SOL    HW146407   2.574   1.026  12.178
14856SOL    HW246408   2.715   0.973  12.158
14857SOL     OW46409   5.279  13.700  13.659
14857SOL    HW146410   5.249  13.789  13.640
14857SOL    HW246411   5.350  13.711  13.723
14858SOL     OW46412   9.555   8.852   9.048
14858SOL    HW146413   9.507   8.770   9.039
14858SOL    HW246414   9.516   8.910   8.982
14859SOL     OW46415  14.750  11.354  10.979
14859SOL    HW146416  14.792  11.440  10.987
14859SOL    HW246417  14.674  11.371  10.922
14860SOL     OW46418  14.857  14.877  14.335
14860SOL    HW146419   0.051  14.826  14.370
14860SOL    HW246420  14.785  14.859  14.395
14861SOL     OW46421  13.398   4.541   3.904
14861SOL    HW146422  13.351   4.461   3.881
14861SOL    HW246423  13.389   4.598   3.828
14862SOL     OW46424   3.390   5.374  11.444
14862SOL    HW146425   3.357   5.338  11.526
14862SOL    HW246426   3.338   5.452  11.428
14863SOL     OW46427  11.066   0.708   9.395
14863SOL    HW146428  11.079   0.712   9.300
14863SOL    HW246429  10.972   0.720   9.407
14864SOL     OW46430  11.337   1.221   6.839
14864SOL    HW146431  11.315   1.178   6.757
14864SOL    HW246432  11.432   1.227   6.839
14865SOL     OW46433   4.208   3.168  12.597
14865SOL    HW146434   4.205   3.098  12.664
14865SOL    HW246435   4.121   3.209  12.603
14866SOL     OW46436  10.307  10.557   1.567
14866SOL    HW146437  10.349  10.478   1.532
14866SOL    HW246438  10.377  10.600   1.617
14867SOL     OW46439  13.356   4.454  11.466
14867SOL    HW146440  13.414   4.508  11.413
14867SOL    HW246441  13.337   4.378  11.411
14868SOL     OW46442   6.913  14.442   6.629
14868SOL    HW146443   6.871  14.364   6.665
14868SOL    HW246444   6.945  14.414   6.543
14869SOL     OW46445   8.327  14.188   3.829
14869SOL    HW146446   8.355  14.140   3.751
14869SOL    HW246447   8.242  14.224   3.806
14870SOL     OW46448  11.833  12.606   0.000
14870SOL    HW146449  11.868  12.570   0.082
14870SOL    HW246450  11.738  12.598   0.010
14871SOL     OW46451   6.149   3.007   2.403
14871SOL    HW146452   6.119   2.983   2.491
14871SOL    HW246453   6.069   3.012   2.351
14872SOL     OW46454   2.915  11.114   0.796
14872SOL    HW146455   2.921  11.043   0.860
14872SOL    HW246456   2.844  11.088   0.737
14873SOL     OW46457  10.739   7.660  10.032
14873SOL    HW146458  10.825   7.693  10.057
14873SOL    HW246459  10.689   7.738  10.007
14874SOL     OW46460   6.993   2.275  13.292
14874SOL    HW146461   6.944   2.354  13.315
14874SOL    HW246462   7.060   2.267  13.359
14875SOL     OW46463   4.540   8.142   7.682
14875SOL    HW146464   4.482   8.066   7.692
14875SOL    HW246465   4.494   8.199   7.621
14876SOL     OW46466  12.674   1.898   7.226
14876SOL    HW146467  12.739   1.891   7.157
14876SOL    HW246468  12.680   1.814   7.273
14877SOL     OW46469  14.651   8.380   6.744
14877SOL    HW146470  14.639   8.322   6.819
14877SOL    HW246471  14.743   8.371   6.720
14878SOL     OW46472  12.955   7.956   3.485
14878SOL    HW146473  12.888   8.003   3.437
14878SOL    HW246474  12.968   7.874   3.436
14879SOL     OW46475   4.125  13.503   4.941
14879SOL    HW146476   4.126  13.504   5.037
14879SOL    HW246477   4.171  13.423   4.917
14880SOL     OW46478  14.864  14.098   2.678
14880SOL    HW146479  14.829  14.092   2.589
14880SOL    HW246480   0.079  14.100   2.667
14881SOL     OW46481   8.615   6.336   1.700
14881SOL    HW146482   8.626   6.265   1.637
14881SOL    HW246483   8.524   6.329   1.728
14882SOL     OW46484   0.093   2.879   2.831
14882SOL    HW146485   0.003   2.855   2.853
14882SOL    HW246486   0.129   2.915   2.912
14883SOL     OW46487  12.541   3.370   0.026
14883SOL    HW146488  12.497   3.329  14.831
14883SOL    HW246489  12.552   3.300   0.089
14884SOL     OW46490   9.737   0.720   9.954
14884SOL    HW146491   9.811   0.664   9.929
14884SOL    HW246492   9.671   0.659   9.986
14885SOL     OW46493   9.020   0.444   1.452
14885SOL    HW146494   8.968   0.524   1.462
14885SOL    HW246495   9.111   0.474   1.450
14886SOL     OW46496   5.632   1.340  14.071
14886SOL    HW146497   5.560   1.278  14.075
14886SOL    HW246498   5.592   1.425  14.088
14887SOL     OW46499  11.088   5.717   3.586
14887SOL    HW146500  11.109   5.806   3.615
14887SOL    HW246501  11.001   5.700   3.623
14888SOL     OW46502   7.530   5.409   6.879
14888SOL    HW146503   7.446   5.456   6.881
14888SOL    HW246504   7.591   5.468   6.925
14889SOL     OW46505   9.529   3.662  13.118
14889SOL    HW146506   9.593   3.625  13.179
14889SOL    HW246507   9.551   3.623  13.033
14890SOL     OW46508   9.525   6.483  13.740
14890SOL    HW146509   9.540   6.503  13.648
14890SOL    HW246510   9.592   6.534  13.787
14891SOL     OW46511   8.993   2.702   8.041
14891SOL    HW146512   8.932   2.663   7.979
14891SOL    HW246513   8.963   2.673   8.127
14892SOL     OW46514   3.651   0.602   1.777
14892SOL    HW146515   3.579   0.660   1.801
14892SOL    HW246516   3.629   0.518   1.819
14893SOL     OW46517   8.628  12.589  11.874
14893SOL    HW146518   8.557  12.615  11.933
14893SOL    HW246519   8.677  12.670  11.859
14894SOL     OW46520  11.529   4.870   5.878
14894SOL    HW146521  11.441   4.834   5.878
14894SOL    HW246522  11.563   4.851   5.790
14895SOL     OW46523   9.979   7.423   7.340
14895SOL    HW146524  10.063   7.379   7.356
14895SOL    HW246525   9.973   7.429   7.244
14896SOL     OW46526   9.665   6.241   5.017
14896SOL    HW146527   9.578   6.214   4.987
14896SOL    HW246528   9.664   6.337   5.010
14897SOL     OW46529   4.917   1.811   5.306
14897SOL    HW146530   4.879   1.850   5.385
14897SOL    HW246531   4.842   1.800   5.246
14898SOL     OW46532  11.407  13.390  12.108
14898SOL    HW146533  11.421  13.406  12.202
14898SOL    HW246534  11.364  13.470  12.077
14899SOL     OW46535   8.222   9.201   2.075
14899SOL    HW146536   8.252   9.147   2.002
14899SOL    HW246537   8.127   9.202   2.066
14900SOL     OW46538   8.603   4.974  13.708
14900SOL    HW146539   8.650   5.004  13.630
14900SOL    HW246540   8.584   5.054  13.757
14901SOL     OW46541   5.189   5.539   3.822
14901SOL    HW146542   5.158   5.573   3.738
14901SOL    HW246543   5.168   5.446   3.819
14902SOL     OW46544   2.738  12.549   5.271
14902SOL    HW146545   2.820  12.541   5.223
14902SOL    HW246546   2.670  12.537   5.205
14903SOL     OW46547   8.080  10.834   8.416
14903SOL    HW146548   7.987  10.811   8.419
14903SOL    HW246549   8.126  10.751   8.422
14904SOL     OW46550  11.404  13.193  12.929
14904SOL    HW146551  11.406  13.184  13.025
14904SOL    HW246552  11.489  13.160  12.901
14905SOL     OW46553   0.475  10.885   8.871
14905SOL    HW146554   0.509  10.881   8.781
14905SOL    HW246555   0.552  10.896   8.926
14906SOL     OW46556  11.739   3.952   0.450
14906SOL    HW146557  11.759   3.875   0.504
14906SOL    HW246558  11.805   4.016   0.476
14907SOL     OW46559   7.018   2.132   9.081
14907SOL    HW146560   6.970   2.158   9.160
14907SOL    HW246561   7.000   2.202   9.018
14908SOL     OW46562   2.578   2.479   3.065
14908SOL    HW146563   2.606   2.484   3.157
14908SOL    HW246564   2.655   2.445   3.019
14909SOL     OW46565  10.284   8.849   4.677
14909SOL    HW146566  10.193   8.847   4.707
14909SOL    HW246567  10.295   8.938   4.644
14910SOL     OW46568   4.648   1.838   4.770
14910SOL    HW146569   4.726   1.878   4.732
14910SOL    HW246570   4.681   1.764   4.821
14911SOL     OW46571   7.266   3.682   0.049
14911SOL    HW146572   7.283   3.753   0.112
14911SOL    HW246573   7.314   3.607   0.083
14912SOL     OW46574   4.851  13.922   2.257
14912SOL    HW146575   4.774  13.975   2.273
14912SOL    HW246576   4.818  13.841   2.218
14913SOL     OW46577   3.603   9.136   5.602
14913SOL    HW146578   3.683   9.120   5.653
14913SOL    HW246579   3.539   9.166   5.666
14914SOL     OW46580   9.507  14.116  12.777
14914SOL    HW146581   9.482  14.180  12.843
14914SOL    HW246582   9.461  14.143  12.698
14915SOL     OW46583   1.400  14.685   9.539
14915SOL    HW146584   1.315  14.651   9.568
14915SOL    HW246585   1.435  14.730   9.616
14916SOL     OW46586   0.892  11.904  13.625
14916SOL    HW146587   0.939  11.936  13.702
14916SOL    HW246588   0.809  11.951  13.626
14917SOL     OW46589  13.632   7.929   1.907
14917SOL    HW146590  13.569   7.995   1.935
14917SOL    HW246591  13.677   7.904   1.987
14918SOL     OW46592  10.267   8.525  10.380
14918SOL    HW146593  10.181   8.506  10.417
14918SOL    HW246594  10.279   8.619  10.395
14919SOL     OW46595   7.341  11.713   2.934
14919SOL    HW146596   7.291  11.700   3.015
14919SOL    HW246597   7.433  11.712   2.962
14920SOL     OW46598   2.853  11.572  12.860
14920SOL    HW146599   2.835  11.481  12.885
14920SOL    HW246600   2.919  11.601  12.922
14921SOL     OW46601   2.750   0.802   4.064
14921SOL    HW146602   2.770   0.837   3.977
14921SOL    HW246603   2.692   0.728   4.048
14922SOL     OW46604  12.031   3.646   9.383
14922SOL    HW146605  12.087   3.701   9.329
14922SOL    HW246606  12.089   3.580   9.420
14923SOL     OW46607   9.452   8.428  10.547
14923SOL    HW146608   9.418   8.403  10.633
14923SOL    HW246609   9.531   8.479  10.566
14924SOL     OW46610   6.445  14.704   2.595
14924SOL    HW146611   6.408  14.767   2.657
14924SOL    HW246612   6.435  14.747   2.510
14925SOL     OW46613  13.258   5.129   0.355
14925SOL    HW146614  13.222   5.151   0.269
14925SOL    HW246615  13.228   5.201   0.412
14926SOL     OW46616  14.829   5.271   4.046
14926SOL    HW146617   0.016   5.203   4.037
14926SOL    HW246618  14.757   5.229   4.093
14927SOL     OW46619   1.925   1.179   7.415
14927SOL    HW146620   1.992   1.246   7.396
14927SOL    HW246621   1.872   1.175   7.336
14928SOL     OW46622   8.026  11.522  14.256
14928SOL    HW146623   8.100  11.559  14.208
14928SOL    HW246624   8.062  11.443  14.298
14929SOL     OW46625   3.832   2.371   9.758
14929SOL    HW146626   3.804   2.458   9.785
14929SOL    HW246627   3.902   2.387   9.694
14930SOL     OW46628  13.789   0.152  11.455
14930SOL    HW146629  13.791   0.248  11.462
14930SOL    HW246630  13.701   0.132  11.423
14931SOL     OW46631   1.454   2.141  12.059
14931SOL    HW146632   1.494   2.099  11.983
14931SOL    HW246633   1.401   2.072  12.100
14932SOL     OW46634   1.797   5.879   0.508
14932SOL    HW146635   1.747   5.932   0.447
14932SOL    HW246636   1.886   5.916   0.505
14933SOL     OW46637  14.615  12.591   9.082
14933SOL    HW146638  14.691  12.554   9.037
14933SOL    HW246639  14.580  12.655   9.021
14934SOL     OW46640   8.018  14.624  11.550
14934SOL    HW146641   8.005  14.532  11.529
14934SOL    HW246642   7.958  14.642  11.622
14935SOL     OW46643   0.145  11.179   8.114
14935SOL    HW146644   0.127  11.170   8.020
14935SOL    HW246645   0.139  11.090   8.148
14936SOL     OW46646   3.008   2.797   1.422
14936SOL    HW146647   3.029   2.826   1.510
14936SOL    HW246648   3.000   2.877   1.371
14937SOL     OW46649  12.933  14.699  12.237
14937SOL    HW146650  12.871  14.759  12.196
14937SOL    HW246651  12.936  14.725  12.329
14938SOL     OW46652   5.192  12.309   7.727
14938SOL    HW146653   5.108  12.312   7.682
14938SOL    HW246654   5.257  12.291   7.658
14939SOL     OW46655   8.733   0.341   8.918
14939SOL    HW146656   8.775   0.294   8.845
14939SOL    HW246657   8.651   0.374   8.881
14940SOL     OW46658   3.351  12.343  10.111
14940SOL    HW146659   3.288  12.378  10.174
14940SOL    HW246660   3.359  12.250  10.135
14941SOL     OW46661   4.033   8.601  10.261
14941SOL    HW146662   4.128   8.591  10.253
14941SOL    HW246663   3.997   8.539  10.198
14942SOL     OW46664  11.155   1.518   8.469
14942SOL    HW146665  11.180   1.592   8.523
14942SOL    HW246666  11.149   1.445   8.530
14943SOL     OW46667   6.570  14.057   8.517
14943SOL    HW146668   6.503  14.105   8.468
14943SOL    HW246669   6.646  14.116   8.519
14944SOL     OW46670  13.035   1.186   1.563
14944SOL    HW146671  13.010   1.176   1.471
14944SOL    HW246672  13.108   1.125   1.575
14945SOL     OW46673  14.560   1.049   6.153
14945SOL    HW146674  14.618   1.109   6.105
14945SOL    HW246675  14.547   1.091   6.238
14946SOL     OW46676   7.697   7.468   0.847
14946SOL    HW146677   7.673   7.481   0.756
14946SOL    HW246678   7.660   7.543   0.893
14947SOL     OW46679  13.982   6.918   4.648
14947SOL    HW146680  14.019   7.002   4.622
14947SOL    HW246681  13.939   6.885   4.569
14948SOL     OW46682  11.549  10.092  14.571
14948SOL    HW146683  11.618  10.057  14.629
14948SOL    HW246684  11.592  10.102  14.486
14949SOL     OW46685   2.236  12.634  10.545
14949SOL    HW146686   2.323  12.670  10.564
14949SOL    HW246687   2.183  12.710  10.522
14950SOL     OW46688   3.220   9.604   3.274
14950SOL    HW146689   3.232   9.554   3.354
14950SOL    HW246690   3.170   9.681   3.300
14951SOL     OW46691  13.877  14.229   1.462
14951SOL    HW146692  13.788  14.262   1.448
14951SOL    HW246693  13.878  14.199   1.552
14952SOL     OW46694   5.825   2.643   9.560
14952SOL    HW146695   5.743   2.690   9.577
14952SOL    HW246696   5.857   2.678   9.478
14953SOL     OW46697  12.679   0.560   4.198
14953SOL    HW146698  12.592   0.577   4.233
14953SOL    HW246699  12.668   0.481   4.146
14954SOL     OW46700   4.658  14.122   2.329
14954SOL    HW146701   4.742  14.164   2.313
14954SOL    HW246702   4.595  14.173   2.278
14955SOL     OW46703   8.353   1.090   6.816
14955SOL    HW146704   8.293   1.039   6.870
14955SOL    HW246705   8.438   1.079   6.859
14956SOL     OW46706   4.974   5.957  13.789
14956SOL    HW146707   5.046   6.015  13.815
14956SOL    HW246708   4.962   5.974  13.696
14957SOL     OW46709  10.153   5.955   3.849
14957SOL    HW146710  10.119   6.040   3.876
14957SOL    HW246711  10.240   5.950   3.888
14958SOL     OW46712  10.005   9.130   8.657
14958SOL    HW146713   9.952   9.140   8.737
14958SOL    HW246714  10.029   9.038   8.656
14959SOL     OW46715   7.597  14.200   4.917
14959SOL    HW146716   7.505  14.207   4.942
14959SOL    HW246717   7.625  14.290   4.900
14960SOL     OW46718   0.680  12.570   2.079
14960SOL    HW146719   0.668  12.535   1.991
14960SOL    HW246720   0.626  12.515   2.135
14961SOL     OW46721   9.650   8.157  13.505
14961SOL    HW146722   9.610   8.085  13.458
14961SOL    HW246723   9.714   8.194  13.444
14962SOL     OW46724   8.191  10.818   0.271
14962SOL    HW146725   8.219  10.906   0.297
14962SOL    HW246726   8.098  10.826   0.254
14963SOL     OW46727   7.795   1.540   8.996
14963SOL    HW146728   7.885   1.573   8.999
14963SOL    HW246729   7.803   1.451   8.963
14964SOL     OW46730  12.348   3.923   9.016
14964SOL    HW146731  12.362   3.846   8.961
14964SOL    HW246732  12.298   3.984   8.960
14965SOL     OW46733  11.703  14.173   2.077
14965SOL    HW146734  11.703  14.164   1.982
14965SOL    HW246735  11.643  14.246   2.094
14966SOL     OW46736  14.219  12.023  10.548
14966SOL    HW146737  14.226  12.103  10.496
14966SOL    HW246738  14.181  12.052  10.631
14967SOL     OW46739   5.919   8.439   8.451
14967SOL    HW146740   6.013   8.445   8.471
14967SOL    HW246741   5.908   8.492   8.372
14968SOL     OW46742   2.502  12.483   3.847
14968SOL    HW146743   2.468  12.549   3.907
14968SOL    HW246744   2.426  12.428   3.828
14969SOL     OW46745   9.776  10.440  10.468
14969SOL    HW146746   9.834  10.435  10.392
14969SOL    HW246747   9.736  10.526  10.462
14970SOL     OW46748   8.987  10.749  12.384
14970SOL    HW146749   8.901  10.772  12.349
14970SOL    HW246750   8.987  10.654  12.386
14971SOL     OW46751  14.320  13.062  13.622
14971SOL    HW146752  14.271  13.127  13.674
14971SOL    HW246753  14.253  13.003  13.588
14972SOL     OW46754  13.571   4.351  14.168
14972SOL    HW146755  13.542   4.279  14.225
14972SOL    HW246756  13.580   4.310  14.082
14973SOL     OW46757  12.716  13.584   8.872
14973SOL    HW146758  12.787  13.619   8.819
14973SOL    HW246759  12.693  13.501   8.830
14974SOL     OW46760  10.008   4.405   2.058
14974SOL    HW146761  10.061   4.329   2.035
14974SOL    HW246762   9.964   4.381   2.139
14975SOL     OW46763   8.035   6.074   7.594
14975SOL    HW146764   7.995   6.053   7.678
14975SOL    HW246765   8.084   5.995   7.570
14976SOL     OW46766  13.105   8.283   8.334
14976SOL    HW146767  13.064   8.355   8.285
14976SOL    HW246768  13.040   8.213   8.332
14977SOL     OW46769   3.528   7.399   6.384
14977SOL    HW146770   3.481   7.459   6.327
14977SOL    HW246771   3.616   7.394   6.346
14978SOL     OW46772   2.866   9.164   0.559
14978SOL    HW146773   2.933   9.173   0.627
14978SOL    HW246774   2.867   9.071   0.537
14979SOL     OW46775  10.180  13.498   8.568
14979SOL    HW146776  10.138  13.431   8.514
14979SOL    HW246777  10.273  13.477   8.566
14980SOL     OW46778  13.817  12.878   6.985
14980SOL    HW146779  13.782  12.930   6.913
14980SOL    HW246780  13.811  12.787   6.954
14981SOL     OW46781   1.044  10.646   3.604
14981SOL    HW146782   1.054  10.666   3.697
14981SOL    HW246783   1.031  10.732   3.562
14982SOL     OW46784  10.730  13.005   9.360
14982SOL    HW146785  10.638  12.994   9.334
14982SOL    HW246786  10.730  12.990   9.455
14983SOL     OW46787   1.631   8.349   9.080
14983SOL    HW146788   1.676   8.431   9.103
14983SOL    HW246789   1.560   8.342   9.143
14984SOL     OW46790   8.625  13.401  12.277
14984SOL    HW146791   8.559  13.440  12.219
14984SOL    HW246792   8.707  13.405  12.228
14985SOL     OW46793   5.690   3.163  13.031
14985SOL    HW146794   5.773   3.205  13.054
14985SOL    HW246795   5.677   3.097  13.100
14986SOL     OW46796  13.158  11.817   8.552
14986SOL    HW146797  13.193  11.765   8.480
14986SOL    HW246798  13.232  11.829   8.611
14987SOL     OW46799   6.367  11.628   7.178
14987SOL    HW146800   6.420  11.549   7.190
14987SOL    HW246801   6.299  11.621   7.245
14988SOL     OW46802   9.917   2.720   8.364
14988SOL    HW146803   9.974   2.649   8.334
14988SOL    HW246804   9.889   2.693   8.451
14989SOL     OW46805   2.618   0.739   5.401
14989SOL    HW146806   2.584   0.827   5.385
14989SOL    HW246807   2.605   0.692   5.319
14990SOL     OW46808   2.008   4.362   2.844
14990SOL    HW146809   1.981   4.272   2.864
14990SOL    HW246810   1.950   4.389   2.773
14991SOL     OW46811   5.936   9.633   7.894
14991SOL    HW146812   5.979   9.674   7.969
14991SOL    HW246813   5.904   9.549   7.927
14992SOL     OW46814   3.877   7.593  12.425
14992SOL    HW146815   3.942   7.656  12.393
14992SOL    HW246816   3.916   7.558  12.506
14993SOL     OW46817   0.995  10.231  13.721
14993SOL    HW146818   1.029  10.147  13.750
14993SOL    HW246819   1.002  10.287  13.798
14994SOL     OW46820  12.507  14.366   5.372
14994SOL    HW146821  12.587  14.332   5.411
14994SOL    HW246822  12.437  14.316   5.413
14995SOL     OW46823  10.679   4.777  11.644
14995SOL    HW146824  10.743   4.730  11.698
14995SOL    HW246825  10.697   4.746  11.555
14996SOL     OW46826   5.318   2.977   1.904
14996SOL    HW146827   5.276   3.001   1.986
14996SOL    HW246828   5.249   2.988   1.838
14997SOL     OW46829   2.962  10.737  12.111
14997SOL    HW146830   2.929  10.762  12.025
14997SOL    HW246831   2.920  10.799  12.171
14998SOL     OW46832  11.235  14.611  12.420
14998SOL    HW146833  11.316  14.654  12.393
14998SOL    HW246834  11.235  14.617  12.516
14999SOL     OW46835   2.819  10.536   1.557
14999SOL    HW146836   2.870  10.567   1.631
14999SOL    HW246837   2.755  10.606   1.541
15000SOL     OW46838   9.190   3.461  11.378
15000SOL    HW146839   9.102   3.441  11.349
15000SOL    HW246840   9.229   3.375  11.396
15001SOL     OW46841   7.779  11.844  11.647
15001SOL    HW146842   7.776  11.781  11.576
15001SOL    HW246843   7.781  11.930  11.604
15002SOL     OW46844   5.988  12.211  12.882
15002SOL    HW146845   6.059  12.274  12.895
15002SOL    HW246846   5.940  12.244  12.807
15003SOL     OW46847   0.400   5.914   0.594
15003SOL    HW146848   0.308   5.909   0.569
15003SOL    HW246849   0.399   5.912   0.690
15004SOL     OW46850   2.444   8.534   5.655
15004SOL    HW146851   2.424   8.449   5.615
15004SOL    HW246852   2.528   8.520   5.698
15005SOL     OW46853   8.294   6.229   9.924
15005SOL    HW146854   8.235   6.292   9.884
15005SOL    HW246855   8.363   6.215   9.859
15006SOL     OW46856  10.525   8.474   4.485
15006SOL    HW146857  10.538   8.560   4.525
15006SOL    HW246858  10.564   8.482   4.398
15007SOL     OW46859  13.016  10.389   3.447
15007SOL    HW146860  12.958  10.434   3.510
15007SOL    HW246861  13.104  10.412   3.476
15008SOL     OW46862   5.963   3.135  10.373
15008SOL    HW146863   5.911   3.114  10.295
15008SOL    HW246864   5.902   3.185  10.429
15009SOL     OW46865   7.551   9.210   4.987
15009SOL    HW146866   7.618   9.258   4.939
15009SOL    HW246867   7.469   9.236   4.945
15010SOL     OW46868  12.744   0.462   3.070
15010SOL    HW146869  12.801   0.460   2.993
15010SOL    HW246870  12.719   0.554   3.079
15011SOL     OW46871  11.349  13.473  13.300
15011SOL    HW146872  11.281  13.417  13.263
15011SOL    HW246873  11.391  13.513  13.223
15012SOL     OW46874  13.513   3.105   3.930
15012SOL    HW146875  13.581   3.050   3.891
15012SOL    HW246876  13.540   3.195   3.910
15013SOL     OW46877   9.954  10.808  12.220
15013SOL    HW146878   9.967  10.753  12.297
15013SOL    HW246879   9.867  10.845  12.231
15014SOL     OW46880   4.300   7.979   7.881
15014SOL    HW146881   4.283   8.028   7.801
15014SOL    HW246882   4.277   7.888   7.860
15015SOL     OW46883  13.615   9.635   7.690
15015SOL    HW146884  13.617   9.542   7.711
15015SOL    HW246885  13.612   9.639   7.595
15016SOL     OW46886   8.887  10.490   6.358
15016SOL    HW146887   8.817  10.470   6.421
15016SOL    HW246888   8.948  10.546   6.406
15017SOL     OW46889   5.233   5.536  13.574
15017SOL    HW146890   5.277   5.619  13.555
15017SOL    HW246891   5.165   5.559  13.638
15018SOL     OW46892   0.870   3.380   4.502
15018SOL    HW146893   0.836   3.350   4.586
15018SOL    HW246894   0.900   3.300   4.458
15019SOL     OW46895   0.015  13.024   7.462
15019SOL    HW146896  14.856  13.109   7.439
15019SOL    HW246897  14.822  12.962   7.455
15020SOL     OW46898   8.595   7.049   4.457
15020SOL    HW146899   8.608   7.025   4.549
15020SOL    HW246900   8.628   6.973   4.408
15021SOL     OW46901   8.272   7.129  13.910
15021SOL    HW146902   8.294   7.046  13.953
15021SOL    HW246903   8.224   7.178  13.977
15022SOL     OW46904  13.444  12.432  11.387
15022SOL    HW146905  13.479  12.352  11.348
15022SOL    HW246906  13.391  12.402  11.461
15023SOL     OW46907   8.319   8.262  14.695
15023SOL    HW146908   8.383   8.269  14.766
15023SOL    HW246909   8.248   8.208  14.732
15024SOL     OW46910  10.495   0.309   2.398
15024SOL    HW146911  10.488   0.396   2.437
15024SOL    HW246912  10.551   0.321   2.321
15025SOL     OW46913  11.497   8.657   9.581
15025SOL    HW146914  11.518   8.708   9.660
15025SOL    HW246915  11.582   8.642   9.539
15026SOL     OW46916  14.688   4.319   6.036
15026SOL    HW146917  14.698   4.356   6.124
15026SOL    HW246918  14.671   4.226   6.051
15027SOL     OW46919   3.993   3.330   7.216
15027SOL    HW146920   3.901   3.351   7.198
15027SOL    HW246921   4.027   3.406   7.262
15028SOL     OW46922  12.305  10.158   2.793
15028SOL    HW146923  12.226  10.149   2.739
15028SOL    HW246924  12.323  10.252   2.792
15029SOL     OW46925   1.921   6.097   4.867
15029SOL    HW146926   1.870   6.023   4.835
15029SOL    HW246927   1.911   6.095   4.962
15030SOL     OW46928   8.387   2.245  11.881
15030SOL    HW146929   8.447   2.320  11.882
15030SOL    HW246930   8.438   2.174  11.920
15031SOL     OW46931  10.841  10.614   3.908
15031SOL    HW146932  10.854  10.579   3.996
15031SOL    HW246933  10.838  10.537   3.852
15032SOL     OW46934  12.765   7.908  13.241
15032SOL    HW146935  12.702   7.979  13.225
15032SOL    HW246936  12.823   7.910  13.165
15033SOL     OW46937   5.701   6.410   8.479
15033SOL    HW146938   5.667   6.499   8.479
15033SOL    HW246939   5.624   6.355   8.493
15034SOL     OW46940   6.659  14.688  11.237
15034SOL    HW146941   6.575  14.672  11.281
15034SOL    HW246942   6.643  14.664  11.146
15035SOL     OW46943   9.756  13.707   4.451
15035SOL    HW146944   9.762  13.740   4.540
15035SOL    HW246945   9.847  13.697   4.422
15036SOL     OW46946   5.168   1.278  10.896
15036SOL    HW146947   5.226   1.212  10.859
15036SOL    HW246948   5.115   1.308  10.823
15037SOL     OW46949  11.881   8.622   9.913
15037SOL    HW146950  11.805   8.659   9.958
15037SOL    HW246951  11.947   8.612   9.982
15038SOL     OW46952   5.112   8.277  10.667
15038SOL    HW146953   5.096   8.231  10.585
15038SOL    HW246954   5.184   8.337  10.648
15039SOL     OW46955  11.795   8.610   1.595
15039SOL    HW146956  11.760   8.668   1.527
15039SOL    HW246957  11.784   8.659   1.676
15040SOL     OW46958   2.319   8.934   7.361
15040SOL    HW146959   2.360   8.990   7.295
15040SOL    HW246960   2.321   8.847   7.323
15041SOL     OW46961  13.563   6.620   7.712
15041SOL    HW146962  13.479   6.578   7.699
15041SOL    HW246963  13.564   6.644   7.805
15042SOL     OW46964   7.056   1.912   8.267
15042SOL    HW146965   7.006   1.831   8.265
15042SOL    HW246966   7.012   1.970   8.206
15043SOL     OW46967  13.502   8.097   3.093
15043SOL    HW146968  13.468   8.018   3.136
15043SOL    HW246969  13.550   8.143   3.162
15044SOL     OW46970   1.380   3.863  14.464
15044SOL    HW146971   1.470   3.835  14.483
15044SOL    HW246972   1.367   3.841  14.372
15045SOL     OW46973  12.798  12.879   8.486
15045SOL    HW146974  12.760  12.793   8.471
15045SOL    HW246975  12.800  12.919   8.399
15046SOL     OW46976   0.504   1.338  10.877
15046SOL    HW146977   0.542   1.254  10.849
15046SOL    HW246978   0.451   1.317  10.954
15047SOL     OW46979  13.679   3.933   9.505
15047SOL    HW146980  13.733   3.913   9.582
15047SOL    HW246981  13.733   3.905   9.431
15048SOL     OW46982  10.342  11.335  11.488
15048SOL    HW146983  10.250  11.317  11.510
15048SOL    HW246984  10.338  11.411  11.429
15049SOL     OW46985  10.641  10.156  11.807
15049SOL    HW146986  10.585  10.217  11.758
15049SOL    HW246987  10.650  10.197  11.893
15050SOL     OW46988  12.263  11.038   3.636
15050SOL    HW146989  12.241  10.947   3.615
15050SOL    HW246990  12.265  11.041   3.731
15051SOL     OW46991   9.886   8.304   2.901
15051SOL    HW146992   9.843   8.347   2.827
15051SOL    HW246993   9.857   8.354   2.977
15052SOL     OW46994  13.497  12.026   7.858
15052SOL    HW146995  13.485  11.943   7.811
15052SOL    HW246996  13.570  12.069   7.813
15053SOL     OW46997   8.671  13.442   0.755
15053SOL    HW146998   8.646  13.510   0.692
15053SOL    HW246999   8.589  13.416   0.795
15054SOL     OW47000   4.839   8.859   4.001
15054SOL    HW147001   4.901   8.929   4.022
15054SOL    HW247002   4.754   8.892   4.031
15055SOL     OW47003   4.562   4.725   4.530
15055SOL    HW147004   4.530   4.809   4.563
15055SOL    HW247005   4.484   4.679   4.500
15056SOL     OW47006   4.201   7.244  12.407
15056SOL    HW147007   4.172   7.314  12.348
15056SOL    HW247008   4.153   7.167  12.377
15057SOL     OW47009  11.402  14.823  13.622
15057SOL    HW147010  11.474  14.762  13.634
15057SOL    HW247011  11.418  14.863  13.536
15058SOL     OW47012   4.501   0.711  13.377
15058SOL    HW147013   4.484   0.721  13.283
15058SOL    HW247014   4.596   0.717  13.384
15059SOL     OW47015  14.060  14.720  10.773
15059SOL    HW147016  14.085  14.643  10.722
15059SOL    HW247017  13.968  14.735  10.750
15060SOL     OW47018   0.961  14.298   6.357
15060SOL    HW147019   1.021  14.231   6.387
15060SOL    HW247020   0.977  14.373   6.415
15061SOL     OW47021  10.699   0.216  10.955
15061SOL    HW147022  10.714   0.241  10.864
15061SOL    HW247023  10.760   0.270  11.006
15062SOL     OW47024   0.032   6.237   3.749
15062SOL    HW147025   0.069   6.311   3.701
15062SOL    HW247026   0.108   6.186   3.778
15063SOL     OW47027   4.770   0.222  12.797
15063SOL    HW147028   4.691   0.167  12.793
15063SOL    HW247029   4.840   0.160  12.818
15064SOL     OW47030   1.532   7.831   5.851
15064SOL    HW147031   1.574   7.916   5.858
15064SOL    HW247032   1.554   7.800   5.763
15065SOL     OW47033   6.216   0.015   5.414
15065SOL    HW147034   6.225  14.842   5.335
15065SOL    HW247035   6.125   0.047   5.412
15066SOL     OW47036  12.503  14.553  12.650
15066SOL    HW147037  12.508  14.470  12.697
15066SOL    HW247038  12.457  14.612  12.710
15067SOL     OW47039   6.763  11.061   0.892
15067SOL    HW147040   6.820  11.028   0.823
15067SOL    HW247041   6.803  11.029   0.974
15068SOL     OW47042  11.681  11.263   2.779
15068SOL    HW147043  11.776  11.264   2.770
15068SOL    HW247044  11.665  11.224   2.865
15069SOL     OW47045   1.832   8.572  10.305
15069SOL    HW147046   1.802   8.582  10.395
15069SOL    HW247047   1.805   8.653  10.261
15070SOL     OW47048  10.413   9.952   2.235
15070SOL    HW147049  10.457   9.879   2.191
15070SOL    HW247050  10.352   9.910   2.296
15071SOL     OW47051   8.701   6.511   8.763
15071SOL    HW147052   8.630   6.574   8.752
15071SOL    HW247053   8.686   6.474   8.850
15072SOL     OW47054   3.625  14.504  13.678
15072SOL    HW147055   3.609  14.551  13.596
15072SOL    HW247056   3.548  14.448  13.689
15073SOL     OW47057  12.766   7.395   0.626
15073SOL    HW147058  12.858   7.413   0.606
15073SOL    HW247059  12.759   7.408   0.721
15074SOL     OW47060   0.811   3.805  12.510
15074SOL    HW147061   0.797   3.720  12.469
15074SOL    HW247062   0.904   3.806  12.532
15075SOL     OW47063   3.002  10.755   2.661
15075SOL    HW147064   3.023  10.841   2.625
15075SOL    HW247065   3.083  10.704   2.651
15076SOL     OW47066   2.081   9.279   3.399
15076SOL    HW147067   2.000   9.286   3.347
15076SOL    HW247068   2.102   9.369   3.422
15077SOL     OW47069  13.375   4.736   4.335
15077SOL    HW147070  13.372   4.808   4.271
15077SOL    HW247071  13.284   4.710   4.346
15078SOL     OW47072   2.859   4.658   4.945
15078SOL    HW147073   2.776   4.665   4.898
15078SOL    HW247074   2.909   4.593   4.895
15079SOL     OW47075   7.149   8.069   1.326
15079SOL    HW147076   7.068   8.117   1.343
15079SOL    HW247077   7.125   7.977   1.337
15080SOL     OW47078   6.479  11.166   1.416
15080SOL    HW147079   6.558  11.199   1.374
15080SOL    HW247080   6.506  11.083   1.456
15081SOL     OW47081  10.193  11.281   6.871
15081SOL    HW147082  10.151  11.359   6.832
15081SOL    HW247083  10.284  11.287   6.843
15082SOL     OW47084  12.534   8.695  12.161
15082SOL    HW147085  12.490   8.742  12.090
15082SOL    HW247086  12.551   8.608  12.125
15083SOL     OW47087  13.494  12.069   2.712
15083SOL    HW147088  13.485  12.092   2.805
15083SOL    HW247089  13.467  12.147   2.665
15084SOL     OW47090  13.627  13.234   6.652
15084SOL    HW147091  13.615  13.202   6.563
15084SOL    HW247092  13.655  13.325   6.640
15085SOL     OW47093  12.335  13.719  11.441
15085SOL    HW147094  12.308  13.754  11.526
15085SOL    HW247095  12.411  13.665  11.459
15086SOL     OW47096   7.304   3.813  10.254
15086SOL    HW147097   7.295   3.905  10.282
15086SOL    HW247098   7.353   3.818  10.172
15087SOL     OW47099   6.384  12.613  13.259
15087SOL    HW147100   6.343  12.696  13.284
15087SOL    HW247101   6.436  12.588  13.335
15088SOL     OW47102  12.745   6.606   5.270
15088SOL    HW147103  12.653   6.587   5.289
15088SOL    HW247104  12.790   6.522   5.281
15089SOL     OW47105   3.234   1.969   8.167
15089SOL    HW147106   3.167   1.954   8.234
15089SOL    HW247107   3.312   1.926   8.200
15090SOL     OW47108   2.669   9.607   2.561
15090SOL    HW147109   2.693   9.676   2.499
15090SOL    HW247110   2.648   9.532   2.505
15091SOL     OW47111   1.967   6.598   0.898
15091SOL    HW147112   1.899   6.572   0.960
15091SOL    HW247113   1.964   6.694   0.897
15092SOL     OW47114  13.524  12.800   7.033
15092SOL    HW147115  13.475  12.744   7.093
15092SOL    HW247116  13.584  12.850   7.089
15093SOL     OW47117   2.527   0.785  14.269
15093SOL    HW147118   2.556   0.743  14.187
15093SOL    HW247119   2.568   0.872  14.266
15094SOL     OW47120   0.450   1.966   6.590
15094SOL    HW147121   0.427   2.049   6.632
15094SOL    HW247122   0.392   1.901   6.631
15095SOL     OW47123  10.925   0.521   8.810
15095SOL    HW147124  10.914   0.489   8.900
15095SOL    HW247125  11.002   0.474   8.778
15096SOL     OW47126   6.413   0.498  12.020
15096SOL    HW147127   6.379   0.517  12.107
15096SOL    HW247128   6.468   0.574  11.999
15097SOL     OW47129  12.470   3.435  13.789
15097SOL    HW147130  12.383   3.424  13.750
15097SOL    HW247131  12.474   3.528  13.813
15098SOL     OW47132   9.198   1.016  13.009
15098SOL    HW147133   9.201   0.921  12.992
15098SOL    HW247134   9.208   1.055  12.922
15099SOL     OW47135   0.931   7.667  14.259
15099SOL    HW147136   0.928   7.585  14.210
15099SOL    HW247137   0.966   7.643  14.345
15100SOL     OW47138   7.499   7.649   4.970
15100SOL    HW147139   7.477   7.742   4.979
15100SOL    HW247140   7.525   7.622   5.057
15101SOL     OW47141  13.150   9.205   7.927
15101SOL    HW147142  13.232   9.173   7.964
15101SOL    HW247143  13.163   9.300   7.918
15102SOL     OW47144   0.456   5.949   2.757
15102SOL    HW147145   0.382   6.007   2.740
15102SOL    HW247146   0.420   5.879   2.811
15103SOL     OW47147  12.434   2.600   2.828
15103SOL    HW147148  12.487   2.635   2.900
15103SOL    HW247149  12.414   2.675   2.774
15104SOL     OW47150  12.373   4.011  13.078
15104SOL    HW147151  12.420   3.975  13.003
15104SOL    HW247152  12.389   3.949  13.149
15105SOL     OW47153   8.175   0.729   4.165
15105SOL    HW147154   8.227   0.784   4.223
15105SOL    HW247155   8.153   0.653   4.218
15106SOL     OW47156   7.006   8.821   9.134
15106SOL    HW147157   6.932   8.867   9.096
15106SOL    HW247158   7.083   8.863   9.096
15107SOL     OW47159   4.231   5.389   0.602
15107SOL    HW147160   4.210   5.386   0.696
15107SOL    HW247161   4.279   5.471   0.591
15108SOL     OW47162   4.733   2.456   5.560
15108SOL    HW147163   4.737   2.417   5.647
15108SOL    HW247164   4.805   2.519   5.558
15109SOL     OW47165   2.767   6.762   1.835
15109SOL    HW147166   2.719   6.762   1.752
15109SOL    HW247167   2.735   6.839   1.881
15110SOL     OW47168   3.273   4.570   6.165
15110SOL    HW147169   3.331   4.616   6.105
15110SOL    HW247170   3.250   4.634   6.232
15111SOL     OW47171  11.630   4.851   8.863
15111SOL    HW147172  11.719   4.817   8.858
15111SOL    HW247173  11.624   4.913   8.790
15112SOL     OW47174   6.524   4.590   3.668
15112SOL    HW147175   6.615   4.600   3.694
15112SOL    HW247176   6.480   4.668   3.701
15113SOL     OW47177   0.915   3.913   7.079
15113SOL    HW147178   0.977   3.876   7.142
15113SOL    HW247179   0.959   3.990   7.044
15114SOL     OW47180   1.652   6.348   9.170
15114SOL    HW147181   1.644   6.443   9.175
15114SOL    HW247182   1.742   6.329   9.196
15115SOL     OW47183   7.416   7.852   8.620
15115SOL    HW147184   7.454   7.774   8.660
15115SOL    HW247185   7.390   7.824   8.532
15116SOL     OW47186  14.675   8.085  12.993
15116SOL    HW147187  14.662   8.005  12.943
15116SOL    HW247188  14.637   8.067  13.079
15117SOL     OW47189   5.304   0.413   0.234
15117SOL    HW147190   5.260   0.420   0.318
15117SOL    HW247191   5.394   0.390   0.256
15118SOL     OW47192  11.165  13.834  11.741
15118SOL    HW147193  11.129  13.874  11.662
15118SOL    HW247194  11.196  13.748  11.712
15119SOL     OW47195   2.383  10.184   3.613
15119SOL    HW147196   2.357  10.175   3.521
15119SOL    HW247197   2.309  10.148   3.662
15120SOL     OW47198   6.601  11.254  14.712
15120SOL    HW147199   6.560  11.277  14.796
15120SOL    HW247200   6.585  11.160  14.702
15121SOL     OW47201   5.349   5.772  12.971
15121SOL    HW147202   5.422   5.767  12.909
15121SOL    HW247203   5.385   5.820  13.046
15122SOL     OW47204  10.900   5.546   6.279
15122SOL    HW147205  10.864   5.510   6.360
15122SOL    HW247206  10.979   5.493   6.263
15123SOL     OW47207  13.311  11.366  12.815
15123SOL    HW147208  13.283  11.421  12.742
15123SOL    HW247209  13.406  11.356  12.803
15124SOL     OW47210   2.528   9.429   4.372
15124SOL    HW147211   2.494   9.460   4.289
15124SOL    HW247212   2.535   9.334   4.361
15125SOL     OW47213  14.567   6.876   5.574
15125SOL    HW147214  14.646   6.822   5.567
15125SOL    HW247215  14.495   6.816   5.559
15126SOL     OW47216  10.343  14.480   1.980
15126SOL    HW147217  10.311  14.474   1.891
15126SOL    HW247218  10.266  14.468   2.035
15127SOL     OW47219   0.963   2.720  12.613
15127SOL    HW147220   0.890   2.771  12.578
15127SOL    HW247221   0.952   2.724  12.707
15128SOL     OW47222   1.620   2.464  12.933
15128SOL    HW147223   1.648   2.495  12.847
15128SOL    HW247224   1.550   2.400  12.913
15129SOL     OW47225   9.698   9.096   4.524
15129SOL    HW147226   9.647   9.081   4.603
15129SOL    HW247227   9.648   9.161   4.475
15130SOL     OW47228   6.542  10.111  11.750
15130SOL    HW147229   6.474  10.169  11.784
15130SOL    HW247230   6.594  10.087  11.826
15131SOL     OW47231   0.389  14.708   7.500
15131SOL    HW147232   0.432  14.698   7.415
15131SOL    HW247233   0.363  14.800   7.503
15132SOL     OW47234   5.178   6.638   9.894
15132SOL    HW147235   5.244   6.586   9.940
15132SOL    HW247236   5.167   6.594   9.810
15133SOL     OW47237  13.176   9.122   1.339
15133SOL    HW147238  13.086   9.128   1.372
15133SOL    HW247239  13.214   9.207   1.360
15134SOL     OW47240  14.041   7.939   6.671
15134SOL    HW147241  13.993   7.910   6.749
15134SOL    HW247242  14.046   7.861   6.616
15135SOL     OW47243  14.652  10.553   5.485
15135SOL    HW147244  14.622  10.581   5.571
15135SOL    HW247245  14.577  10.507   5.447
15136SOL     OW47246   3.051   7.088  11.696
15136SOL    HW147247   3.035   7.181  11.683
15136SOL    HW247248   2.965   7.050  11.713
15137SOL     OW47249   2.325  13.693  10.169
15137SOL    HW147250   2.234  13.705  10.195
15137SOL    HW247251   2.345  13.602  10.193
15138SOL     OW47252   3.109   4.706   4.608
15138SOL    HW147253   3.094   4.731   4.699
15138SOL    HW247254   3.141   4.787   4.567
15139SOL     OW47255   1.471   7.997   4.590
15139SOL    HW147256   1.485   8.017   4.498
15139SOL    HW247257   1.381   7.964   4.593
15140SOL     OW47258  12.146   2.598   3.127
15140SOL    HW147259  12.089   2.651   3.182
15140SOL    HW247260  12.152   2.647   3.045
15141SOL     OW47261   9.107   9.241   4.644
15141SOL    HW147262   9.189   9.290   4.642
15141SOL    HW247263   9.059   9.277   4.719
15142SOL     OW47264  11.459  12.224   2.737
15142SOL    HW147265  11.517  12.208   2.662
15142SOL    HW247266  11.518  12.254   2.806
15143SOL     OW47267   9.412   6.828   0.630
15143SOL    HW147268   9.366   6.816   0.713
15143SOL    HW247269   9.427   6.922   0.624
15144SOL     OW47270   8.644   4.964   2.029
15144SOL    HW147271   8.719   4.905   2.038
15144SOL    HW247272   8.568   4.907   2.033
15145SOL     OW47273   3.384   5.482   2.731
15145SOL    HW147274   3.312   5.441   2.682
15145SOL    HW247275   3.438   5.408   2.760
15146SOL     OW47276   3.211   7.409   1.690
15146SOL    HW147277   3.250   7.461   1.761
15146SOL    HW247278   3.135   7.368   1.731
15147SOL     OW47279   3.901   6.129   1.737
15147SOL    HW147280   3.884   6.040   1.767
15147SOL    HW247281   3.920   6.179   1.817
15148SOL     OW47282   0.752  14.253   9.894
15148SOL    HW147283   0.770  14.175   9.841
15148SOL    HW247284   0.662  14.278   9.870
15149SOL     OW47285   7.830   4.280  10.996
15149SOL    HW147286   7.911   4.309  10.956
15149SOL    HW247287   7.827   4.185  10.981
15150SOL     OW47288   7.334   3.551   8.267
15150SOL    HW147289   7.255   3.594   8.234
15150SOL    HW247290   7.304   3.464   8.293
15151SOL     OW47291   4.269   8.635  10.564
15151SOL    HW147292   4.361   8.616  10.581
15151SOL    HW247293   4.246   8.703  10.629
15152SOL     OW47294   1.396  13.207   2.719
15152SOL    HW147295   1.367  13.174   2.804
15152SOL    HW247296   1.332  13.274   2.696
15153SOL     OW47297   0.090   6.877   6.573
15153SOL    HW147298   0.091   6.955   6.628
15153SOL    HW247299   0.060   6.807   6.630
15154SOL     OW47300   9.341   0.879   1.735
15154SOL    HW147301   9.305   0.879   1.824
15154SOL    HW247302   9.435   0.885   1.747
15155SOL     OW47303   3.203   1.619   1.564
15155SOL    HW147304   3.286   1.640   1.607
15155SOL    HW247305   3.227   1.599   1.474
15156SOL     OW47306  14.663   1.933   9.293
15156SOL    HW147307  14.756   1.910   9.296
15156SOL    HW247308  14.657   2.016   9.340
15157SOL     OW47309   2.589  13.707   4.322
15157SOL    HW147310   2.569  13.797   4.350
15157SOL    HW247311   2.544  13.652   4.386
15158SOL     OW47312   1.550   3.666  10.523
15158SOL    HW147313   1.538   3.691  10.431
15158SOL    HW247314   1.461   3.661  10.558
15159SOL     OW47315   5.388   0.699   4.545
15159SOL    HW147316   5.377   0.673   4.453
15159SOL    HW247317   5.360   0.791   4.547
15160SOL     OW47318   0.783   3.438   5.219
15160SOL    HW147319   0.698   3.432   5.261
15160SOL    HW247320   0.821   3.519   5.253
15161SOL     OW47321  12.436   5.018   6.870
15161SOL    HW147322  12.465   5.003   6.779
15161SOL    HW247323  12.463   4.939   6.916
15162SOL     OW47324   3.284   5.946  14.713
15162SOL    HW147325   3.238   6.023  14.681
15162SOL    HW247326   3.214   5.889  14.746
15163SOL     OW47327   5.388  13.070  13.896
15163SOL    HW147328   5.413  13.162  13.891
15163SOL    HW247329   5.374  13.054  13.989
15164SOL     OW47330   8.986   0.287  14.596
15164SOL    HW147331   9.022   0.289  14.685
15164SOL    HW247332   8.983   0.378  14.569
15165SOL     OW47333  10.366  12.358  13.744
15165SOL    HW147334  10.284  12.342  13.791
15165SOL    HW247335  10.407  12.272  13.739
15166SOL     OW47336   6.438  13.837   8.182
15166SOL    HW147337   6.503  13.786   8.134
15166SOL    HW247338   6.393  13.772   8.237
15167SOL     OW47339   0.141   5.775   3.717
15167SOL    HW147340   0.191   5.777   3.635
15167SOL    HW247341   0.177   5.701   3.765
15168SOL     OW47342   8.279   5.038   0.261
15168SOL    HW147343   8.222   4.969   0.297
15168SOL    HW247344   8.346   5.050   0.328
15169SOL     OW47345  14.683   4.317   0.067
15169SOL    HW147346  14.633   4.352   0.141
15169SOL    HW247347  14.769   4.357   0.075
15170SOL     OW47348  14.198   3.220   9.766
15170SOL    HW147349  14.166   3.160   9.698
15170SOL    HW247350  14.278   3.178   9.798
15171SOL     OW47351  13.079   5.842   0.355
15171SOL    HW147352  13.093   5.840   0.260
15171SOL    HW247353  13.041   5.757   0.376
15172SOL     OW47354   6.518  13.865  11.001
15172SOL    HW147355   6.508  13.939  10.941
15172SOL    HW247356   6.596  13.885  11.052
15173SOL     OW47357   0.473   7.174  10.166
15173SOL    HW147358   0.541   7.112  10.193
15173SOL    HW247359   0.521   7.246  10.125
15174SOL     OW47360   3.859  11.204   0.078
15174SOL    HW147361   3.871  11.222   0.172
15174SOL    HW247362   3.765  11.207   0.065
15175SOL     OW47363  13.289   4.551   9.099
15175SOL    HW147364  13.270   4.620   9.035
15175SOL    HW247365  13.371   4.512   9.068
15176SOL     OW47366   8.111   7.328   5.070
15176SOL    HW147367   8.114   7.264   4.999
15176SOL    HW247368   8.089   7.277   5.148
15177SOL     OW47369   0.446  10.139   3.600
15177SOL    HW147370   0.524  10.172   3.555
15177SOL    HW247371   0.473  10.054   3.635
15178SOL     OW47372   2.284   2.034   0.487
15178SOL    HW147373   2.361   1.986   0.457
15178SOL    HW247374   2.313   2.125   0.492
15179SOL     OW47375   4.171   6.673   6.465
15179SOL    HW147376   4.115   6.730   6.413
15179SOL    HW247377   4.152   6.697   6.556
15180SOL     OW47378  12.080   7.747   2.458
15180SOL    HW147379  12.032   7.757   2.377
15180SOL    HW247380  12.035   7.804   2.521
15181SOL     OW47381   9.416   3.118   1.288
15181SOL    HW147382   9.428   3.212   1.276
15181SOL    HW247383   9.421   3.105   1.383
15182SOL     OW47384   2.064   1.738  13.828
15182SOL    HW147385   2.155   1.723  13.856
15182SOL    HW247386   2.055   1.685  13.748
15183SOL     OW47387   4.479   0.502   4.837
15183SOL    HW147388   4.530   0.490   4.757
15183SOL    HW247389   4.526   0.571   4.885
15184SOL     OW47390  12.291  14.421   0.564
15184SOL    HW147391  12.328  14.509   0.552
15184SOL    HW247392  12.207  14.424   0.518
15185SOL     OW47393  12.560   1.740   8.542
15185SOL    HW147394  12.508   1.775   8.615
15185SOL    HW247395  12.650   1.768   8.561
15186SOL     OW47396   3.872   5.405  14.618
15186SOL    HW147397   3.868   5.449  14.702
15186SOL    HW247398   3.948   5.443  14.574
15187SOL     OW47399  13.260  14.358   0.344
15187SOL    HW147400  13.350  14.380   0.371
15187SOL    HW247401  13.212  14.351   0.426
15188SOL     OW47402   6.138  11.482   0.172
15188SOL    HW147403   6.120  11.403   0.122
15188SOL    HW247404   6.186  11.452   0.249
15189SOL     OW47405   5.958   2.304   3.423
15189SOL    HW147406   6.022   2.236   3.402
15189SOL    HW247407   5.976   2.375   3.362
15190SOL     OW47408   5.143   0.178   9.846
15190SOL    HW147409   5.167   0.256   9.896
15190SOL    HW247410   5.137   0.208   9.755
15191SOL     OW47411   8.096  14.182   4.603
15191SOL    HW147412   8.020  14.147   4.650
15191SOL    HW247413   8.064  14.262   4.562
15192SOL     OW47414   4.084  12.729   8.744
15192SOL    HW147415   4.108  12.673   8.670
15192SOL    HW247416   4.039  12.803   8.705
15193SOL     OW47417  10.835  14.377  14.251
15193SOL    HW147418  10.863  14.406  14.164
15193SOL    HW247419  10.876  14.438  14.312
15194SOL     OW47420   8.952  12.584   0.045
15194SOL    HW147421   9.033  12.547   0.080
15194SOL    HW247422   8.918  12.517  14.865
15195SOL     OW47423  10.413   8.950   6.580
15195SOL    HW147424  10.458   9.017   6.632
15195SOL    HW247425  10.400   8.991   6.495
15196SOL     OW47426   2.488  11.856  10.504
15196SOL    HW147427   2.542  11.826  10.431
15196SOL    HW247428   2.526  11.814  10.581
15197SOL     OW47429   8.390  12.829   6.510
15197SOL    HW147430   8.459  12.833   6.444
15197SOL    HW247431   8.426  12.876   6.586
15198SOL     OW47432   4.059   6.204  14.834
15198SOL    HW147433   4.068   6.111  14.855
15198SOL    HW247434   4.124   6.248   0.010
15199SOL     OW47435   3.573   1.226   1.231
15199SOL    HW147436   3.631   1.161   1.192
15199SOL    HW247437   3.592   1.221   1.325
15200SOL     OW47438  12.212   1.162  12.167
15200SOL    HW147439  12.284   1.107  12.197
15200SOL    HW247440  12.162   1.182  12.247
15201SOL     OW47441   7.060   4.952   9.016
15201SOL    HW147442   7.055   5.044   8.990
15201SOL    HW247443   7.001   4.945   9.091
15202SOL     OW47444   5.422   8.445  11.130
15202SOL    HW147445   5.420   8.363  11.080
15202SOL    HW247446   5.350   8.437  11.192
15203SOL     OW47447  14.358   9.195   4.316
15203SOL    HW147448  14.356   9.099   4.318
15203SOL    HW247449  14.266   9.220   4.306
15204SOL     OW47450   0.868   7.476   8.570
15204SOL    HW147451   0.931   7.542   8.599
15204SOL    HW247452   0.859   7.491   8.476
15205SOL     OW47453   8.764  12.367   1.719
15205SOL    HW147454   8.742  12.434   1.783
15205SOL    HW247455   8.821  12.412   1.656
15206SOL     OW47456   3.420  13.812  11.373
15206SOL    HW147457   3.333  13.817  11.411
15206SOL    HW247458   3.445  13.903  11.357
15207SOL     OW47459  14.869   7.273   8.408
15207SOL    HW147460  14.873   7.303   8.499
15207SOL    HW247461  14.816   7.339   8.363
15208SOL     OW47462   1.521  11.302  10.330
15208SOL    HW147463   1.498  11.261  10.247
15208SOL    HW247464   1.438  11.337  10.363
15209SOL     OW47465   1.757  14.050   4.398
15209SOL    HW147466   1.776  14.011   4.312
15209SOL    HW247467   1.662  14.062   4.397
15210SOL     OW47468   4.274   2.321  11.766
15210SOL    HW147469   4.236   2.251  11.818
15210SOL    HW247470   4.199   2.377  11.743
15211SOL     OW47471  14.775   1.236  14.074
15211SOL    HW147472  14.726   1.173  14.127
15211SOL    HW247473  14.789   1.191  13.991
15212SOL     OW47474   0.963   7.179  11.157
15212SOL    HW147475   0.983   7.087  11.141
15212SOL    HW247476   1.041   7.226  11.129
15213SOL     OW47477   5.753   0.107  14.146
15213SOL    HW147478   5.692   0.037  14.169
15213SOL    HW247479   5.800   0.127  14.227
15214SOL     OW47480   1.140  11.233   9.089
15214SOL    HW147481   1.172  11.257   9.002
15214SOL    HW247482   1.048  11.258   9.089
15215SOL     OW47483   3.029  10.924   7.438
15215SOL    HW147484   3.005  10.854   7.499
15215SOL    HW247485   3.028  11.003   7.491
15216SOL     OW47486  14.003  11.257  10.568
15216SOL    HW147487  13.988  11.350  10.551
15216SOL    HW247488  13.995  11.216  10.482
15217SOL     OW47489   5.038   8.262   5.457
15217SOL    HW147490   5.089   8.341   5.438
15217SOL    HW247491   4.973   8.290   5.521
15218SOL     OW47492   4.053   3.958  10.502
15218SOL    HW147493   4.031   4.018  10.431
15218SOL    HW247494   4.142   3.929  10.483
15219SOL     OW47495   9.505   9.578  12.768
15219SOL    HW147496   9.598   9.578  12.794
15219SOL    HW247497   9.466   9.648  12.821
15220SOL     OW47498   9.148   1.830   8.735
15220SOL    HW147499   9.238   1.835   8.702
15220SOL    HW247500   9.129   1.736   8.738
15221SOL     OW47501   3.851   7.577   9.028
15221SOL    HW147502   3.828   7.608   8.940
15221SOL    HW247503   3.919   7.637   9.058
15222SOL     OW47504   7.810   2.200   4.145
15222SOL    HW147505   7.792   2.283   4.102
15222SOL    HW247506   7.874   2.222   4.213
15223SOL     OW47507   0.800   0.504  12.944
15223SOL    HW147508   0.786   0.480  12.852
15223SOL    HW247509   0.841   0.427  12.982
15224SOL     OW47510   8.722  12.719   3.693
15224SOL    HW147511   8.630  12.696   3.701
15224SOL    HW247512   8.769  12.637   3.709
15225SOL     OW47513  11.253   1.636   5.700
15225SOL    HW147514  11.328   1.584   5.672
15225SOL    HW247515  11.281   1.727   5.687
15226SOL     OW47516  12.521  11.526  11.427
15226SOL    HW147517  12.585  11.506  11.359
15226SOL    HW247518  12.551  11.478  11.504
15227SOL     OW47519   7.877   4.247  13.476
15227SOL    HW147520   7.890   4.192  13.399
15227SOL    HW247521   7.784   4.266  13.477
15228SOL     OW47522   1.987   4.337   0.783
15228SOL    HW147523   1.900   4.300   0.762
15228SOL    HW247524   2.003   4.402   0.715
15229SOL     OW47525   3.669   6.034   9.341
15229SOL    HW147526   3.734   6.020   9.272
15229SOL    HW247527   3.689   5.967   9.406
15230SOL     OW47528  10.925   3.389   9.721
15230SOL    HW147529  10.885   3.414   9.804
15230SOL    HW247530  10.878   3.440   9.655
15231SOL     OW47531  14.083   2.050  13.816
15231SOL    HW147532  14.021   1.977  13.815
15231SOL    HW247533  14.028   2.129  13.816
15232SOL     OW47534   7.198  13.013   4.106
15232SOL    HW147535   7.140  13.013   4.030
15232SOL    HW247536   7.139  12.998   4.180
15233SOL     OW47537   2.225   6.687  13.940
15233SOL    HW147538   2.179   6.656  13.862
15233SOL    HW247539   2.223   6.612  14.000
15234SOL     OW47540  12.792   7.531   6.419
15234SOL    HW147541  12.705   7.551   6.385
15234SOL    HW247542  12.777   7.463   6.485
15235SOL     OW47543   6.796   4.253   7.159
15235SOL    HW147544   6.787   4.322   7.093
15235SOL    HW247545   6.884   4.266   7.194
15236SOL     OW47546  14.747  12.495   0.901
15236SOL    HW147547  14.813  12.464   0.839
15236SOL    HW247548  14.755  12.590   0.900
15237SOL     OW47549   6.107   3.330   7.077
15237SOL    HW147550   6.144   3.274   7.009
15237SOL    HW247551   6.167   3.404   7.083
15238SOL     OW47552  13.621   4.869  11.110
15238SOL    HW147553  13.560   4.871  11.036
15238SOL    HW247554  13.660   4.956  11.112
15239SOL     OW47555   5.003   2.004  12.454
15239SOL    HW147556   4.994   2.093  12.418
15239SOL    HW247557   5.095   1.998  12.479
15240SOL     OW47558   4.318   2.817   9.904
15240SOL    HW147559   4.368   2.843   9.827
15240SOL    HW247560   4.376   2.756   9.951
15241SOL     OW47561   5.329   4.404   6.062
15241SOL    HW147562   5.290   4.407   5.975
15241SOL    HW247563   5.404   4.463   6.057
15242SOL     OW47564   3.666   4.562  11.691
15242SOL    HW147565   3.697   4.532  11.606
15242SOL    HW247566   3.632   4.484  11.734
15243SOL     OW47567  13.718   3.715   2.458
15243SOL    HW147568  13.734   3.809   2.467
15243SOL    HW247569  13.802   3.680   2.429
15244SOL     OW47570   7.898   2.543  12.135
15244SOL    HW147571   7.821   2.494  12.106
15244SOL    HW247572   7.948   2.559  12.056
15245SOL     OW47573   5.924   1.762  10.778
15245SOL    HW147574   5.961   1.723  10.699
15245SOL    HW247575   5.836   1.725  10.784
15246SOL     OW47576   9.587   4.194   6.956
15246SOL    HW147577   9.662   4.155   6.911
15246SOL    HW247578   9.626   4.260   7.014
15247SOL     OW47579   9.416   7.865   8.804
15247SOL    HW147580   9.388   7.830   8.719
15247SOL    HW247581   9.510   7.877   8.794
15248SOL     OW47582   5.692   8.227  12.297
15248SOL    HW147583   5.720   8.271  12.377
15248SOL    HW247584   5.663   8.298  12.239
15249SOL     OW47585  10.219  12.179  10.750
15249SOL    HW147586  10.173  12.095  10.748
15249SOL    HW247587  10.148  12.244  10.756
15250SOL     OW47588  12.045  10.008   3.006
15250SOL    HW147589  12.124  10.028   3.057
15250SOL    HW247590  12.000   9.941   3.058
15251SOL     OW47591  14.389   6.347   1.373
15251SOL    HW147592  14.449   6.399   1.320
15251SOL    HW247593  14.429   6.344   1.460
15252SOL     OW47594   9.520   4.212   7.854
15252SOL    HW147595   9.531   4.251   7.941
15252SOL    HW247596   9.597   4.156   7.844
15253SOL     OW47597  13.796   6.098   0.894
15253SOL    HW147598  13.704   6.108   0.870
15253SOL    HW247599  13.802   6.138   0.981
15254SOL     OW47600   6.203  11.271   7.929
15254SOL    HW147601   6.222  11.178   7.918
15254SOL    HW247602   6.276  11.305   7.979
15255SOL     OW47603   6.146   1.873  13.551
15255SOL    HW147604   6.106   1.896  13.467
15255SOL    HW247605   6.237   1.901  13.543
15256SOL     OW47606  10.218  10.218   6.728
15256SOL    HW147607  10.158  10.284   6.762
15256SOL    HW247608  10.164  10.163   6.671
15257SOL     OW47609  13.593   0.229   1.464
15257SOL    HW147610  13.645   0.253   1.387
15257SOL    HW247611  13.614   0.137   1.480
15258SOL     OW47612  12.947   9.962  11.062
15258SOL    HW147613  12.938   9.869  11.085
15258SOL    HW247614  12.962  10.006  11.145
15259SOL     OW47615   6.269   9.743   0.337
15259SOL    HW147616   6.229   9.724   0.421
15259SOL    HW247617   6.244   9.833   0.318
15260SOL     OW47618   5.189   6.567   9.621
15260SOL    HW147619   5.127   6.609   9.561
15260SOL    HW247620   5.264   6.625   9.623
15261SOL     OW47621   8.111   8.128  14.846
15261SOL    HW147622   8.020   8.158  14.852
15261SOL    HW247623   8.141   8.127   0.057
15262SOL     OW47624   3.705  13.017   0.338
15262SOL    HW147625   3.772  13.084   0.331
15262SOL    HW247626   3.669  13.010   0.249
15263SOL     OW47627  14.174  10.105   9.425
15263SOL    HW147628  14.236  10.083   9.356
15263SOL    HW247629  14.157  10.021   9.469
15264SOL     OW47630   8.669  11.607   8.356
15264SOL    HW147631   8.652  11.539   8.420
15264SOL    HW247632   8.628  11.576   8.275
15265SOL     OW47633   7.593   0.489  10.186
15265SOL    HW147634   7.602   0.496  10.281
15265SOL    HW247635   7.664   0.431  10.160
15266SOL     OW47636  12.682  14.202  10.527
15266SOL    HW147637  12.595  14.202  10.489
15266SOL    HW247638  12.729  14.272  10.480
15267SOL     OW47639  13.781   4.499   3.748
15267SOL    HW147640  13.827   4.415   3.753
15267SOL    HW247641  13.817   4.541   3.670
15268SOL     OW47642  11.519   0.592   2.901
15268SOL    HW147643  11.434   0.583   2.944
15268SOL    HW247644  11.583   0.568   2.968
15269SOL     OW47645   7.148   5.967   2.209
15269SOL    HW147646   7.097   5.962   2.128
15269SOL    HW247647   7.092   5.926   2.275
15270SOL     OW47648  13.310   9.047  11.906
15270SOL    HW147649  13.260   9.110  11.959
15270SOL    HW247650  13.321   9.090  11.821
15271SOL     OW47651   2.994   7.047   6.788
15271SOL    HW147652   3.020   7.032   6.697
15271SOL    HW247653   2.903   7.078   6.782
15272SOL     OW47654  12.563   2.098  11.546
15272SOL    HW147655  12.590   2.017  11.502
15272SOL    HW247656  12.638   2.157  11.534
15273SOL     OW47657   8.731  12.016   9.388
15273SOL    HW147658   8.712  11.983   9.300
15273SOL    HW247659   8.822  11.992   9.404
15274SOL     OW47660  13.975  12.274   9.723
15274SOL    HW147661  13.910  12.317   9.778
15274SOL    HW247662  13.966  12.181   9.745
15275SOL     OW47663  14.185   0.861   0.889
15275SOL    HW147664  14.253   0.840   0.826
15275SOL    HW247665  14.103   0.853   0.840
15276SOL     OW47666   4.419   3.380   4.891
15276SOL    HW147667   4.395   3.359   4.982
15276SOL    HW247668   4.409   3.475   4.885
15277SOL     OW47669  11.295  12.850  14.851
15277SOL    HW147670  11.246  12.932  14.859
15277SOL    HW247671  11.363  12.856   0.039
15278SOL     OW47672   1.459   3.797   9.018
15278SOL    HW147673   1.486   3.715   9.059
15278SOL    HW247674   1.451   3.859   9.090
15279SOL     OW47675  14.684   2.430   3.613
15279SOL    HW147676  14.593   2.444   3.637
15279SOL    HW247677  14.711   2.511   3.571
15280SOL     OW47678   1.991   3.352  12.521
15280SOL    HW147679   1.949   3.356  12.607
15280SOL    HW247680   2.007   3.259  12.507
15281SOL     OW47681  12.710   8.521   5.624
15281SOL    HW147682  12.791   8.485   5.588
15281SOL    HW247683  12.641   8.466   5.587
15282SOL     OW47684   4.708   8.685   0.645
15282SOL    HW147685   4.720   8.592   0.625
15282SOL    HW247686   4.618   8.703   0.618
15283SOL     OW47687   7.364  14.159   7.517
15283SOL    HW147688   7.343  14.068   7.498
15283SOL    HW247689   7.427  14.184   7.449
15284SOL     OW47690   2.954   2.684   3.126
15284SOL    HW147691   3.007   2.763   3.115
15284SOL    HW247692   2.868   2.716   3.153
15285SOL     OW47693   5.754   2.932   1.107
15285SOL    HW147694   5.829   2.879   1.138
15285SOL    HW247695   5.714   2.965   1.187
15286SOL     OW47696   8.587  11.786  12.115
15286SOL    HW147697   8.612  11.833  12.035
15286SOL    HW247698   8.593  11.852  12.184
15287SOL     OW47699  13.746   6.421   6.300
15287SOL    HW147700  13.749   6.433   6.205
15287SOL    HW247701  13.665   6.465   6.327
15288SOL     OW47702   8.767  10.679  10.295
15288SOL    HW147703   8.699  10.637  10.348
15288SOL    HW247704   8.781  10.618  10.222
15289SOL     OW47705   1.333   2.461   8.047
15289SOL    HW147706   1.269   2.404   8.090
15289SOL    HW247707   1.345   2.422   7.960
15290SOL     OW47708  14.204   0.731  14.387
15290SOL    HW147709  14.214   0.727  14.482
15290SOL    HW247710  14.219   0.642  14.356
15291SOL     OW47711  14.553   8.844   4.519
15291SOL    HW147712  14.495   8.815   4.590
15291SOL    HW247713  14.499   8.903   4.467
15292SOL     OW47714   4.236   5.816   2.440
15292SOL    HW147715   4.157   5.779   2.399
15292SOL    HW247716   4.203   5.863   2.516
15293SOL     OW47717   0.720   4.898   3.578
15293SOL    HW147718   0.816   4.906   3.581
15293SOL    HW247719   0.703   4.804   3.574
15294SOL     OW47720   6.195   3.138   9.433
15294SOL    HW147721   6.210   3.061   9.488
15294SOL    HW247722   6.203   3.212   9.493
15295SOL     OW47723   7.058  10.666   4.909
15295SOL    HW147724   7.137  10.679   4.963
15295SOL    HW247725   7.078  10.711   4.827
15296SOL     OW47726  13.749   5.696  12.962
15296SOL    HW147727  13.710   5.628  13.018
15296SOL    HW247728  13.707   5.683  12.877
15297SOL     OW47729  13.509  11.063   2.336
15297SOL    HW147730  13.597  11.102   2.337
15297SOL    HW247731  13.524  10.972   2.308
15298SOL     OW47732   3.610   7.186  13.107
15298SOL    HW147733   3.672   7.121  13.141
15298SOL    HW247734   3.658   7.269  13.111
15299SOL     OW47735   3.438   8.699   3.143
15299SOL    HW147736   3.530   8.719   3.125
15299SOL    HW247737   3.399   8.687   3.056
15300SOL     OW47738   3.187   1.986   4.089
15300SOL    HW147739   3.188   2.061   4.029
15300SOL    HW247740   3.138   1.919   4.042
15301SOL     OW47741   5.245   1.888  13.619
15301SOL    HW147742   5.203   1.946  13.682
15301SOL    HW247743   5.336   1.919  13.616
15302SOL     OW47744   6.815   8.096   8.417
15302SOL    HW147745   6.896   8.050   8.394
15302SOL    HW247746   6.844   8.182   8.447
15303SOL     OW47747   3.855  14.225  13.059
15303SOL    HW147748   3.773  14.264  13.088
15303SOL    HW247749   3.880  14.278  12.983
15304SOL     OW47750   9.291   6.988  11.168
15304SOL    HW147751   9.316   7.063  11.221
15304SOL    HW247752   9.195   6.992  11.165
15305SOL     OW47753   6.352  12.225   0.819
15305SOL    HW147754   6.417  12.156   0.832
15305SOL    HW247755   6.271  12.188   0.853
15306SOL     OW47756   2.473   7.980   9.094
15306SOL    HW147757   2.412   7.934   9.037
15306SOL    HW247758   2.478   7.926   9.173
15307SOL     OW47759   3.444   1.822   2.956
15307SOL    HW147760   3.449   1.727   2.960
15307SOL    HW247761   3.380   1.840   2.888
15308SOL     OW47762   9.560  10.124   8.109
15308SOL    HW147763   9.489  10.186   8.089
15308SOL    HW247764   9.640  10.171   8.086
15309SOL     OW47765   6.908   1.563  14.397
15309SOL    HW147766   6.815   1.541  14.396
15309SOL    HW247767   6.949   1.489  14.442
15310SOL     OW47768   5.788   3.007  13.604
15310SOL    HW147769   5.731   2.967  13.538
15310SOL    HW247770   5.762   3.099  13.605
15311SOL     OW47771   2.341   7.288   5.514
15311SOL    HW147772   2.380   7.266   5.429
15311SOL    HW247773   2.370   7.378   5.530
15312SOL     OW47774   1.668  12.109   8.637
15312SOL    HW147775   1.762  12.125   8.636
15312SOL    HW247776   1.656  12.032   8.583
15313SOL     OW47777   0.681   0.567  12.659
15313SOL    HW147778   0.595   0.529  12.674
15313SOL    HW247779   0.735   0.494  12.629
15314SOL     OW47780  13.845   1.587  12.158
15314SOL    HW147781  13.925   1.535  12.160
15314SOL    HW247782  13.775   1.524  12.172
15315SOL     OW47783  14.670   7.800  11.775
15315SOL    HW147784  14.741   7.766  11.721
15315SOL    HW247785  14.679   7.896  11.769
15316SOL     OW47786   3.708   1.156  14.000
15316SOL    HW147787   3.757   1.178  14.079
15316SOL    HW247788   3.639   1.097  14.031
15317SOL     OW47789   3.792   4.666   1.354
15317SOL    HW147790   3.858   4.732   1.376
15317SOL    HW247791   3.756   4.694   1.270
15318SOL     OW47792   7.913   5.085   5.156
15318SOL    HW147793   7.874   5.172   5.160
15318SOL    HW247794   7.839   5.024   5.157
15319SOL     OW47795   9.415   1.801   6.540
15319SOL    HW147796   9.485   1.741   6.568
15319SOL    HW247797   9.335   1.760   6.572
15320SOL     OW47798   8.842  12.294   7.084
15320SOL    HW147799   8.826  12.309   7.177
15320SOL    HW247800   8.788  12.218   7.063
15321SOL     OW47801  11.565   0.715   0.746
15321SOL    HW147802  11.517   0.771   0.686
15321SOL    HW247803  11.581   0.634   0.697
15322SOL     OW47804   2.555  11.181   2.544
15322SOL    HW147805   2.515  11.137   2.618
15322SOL    HW247806   2.604  11.113   2.498
15323SOL     OW47807   6.438   8.290  10.361
15323SOL    HW147808   6.434   8.206  10.315
15323SOL    HW247809   6.487   8.347  10.302
15324SOL     OW47810   7.953   5.786   5.293
15324SOL    HW147811   7.897   5.761   5.367
15324SOL    HW247812   8.041   5.761   5.321
15325SOL     OW47813   9.266   8.284   3.409
15325SOL    HW147814   9.342   8.339   3.392
15325SOL    HW247815   9.194   8.328   3.364
15326SOL     OW47816   7.908  10.370  11.737
15326SOL    HW147817   7.992  10.392  11.698
15326SOL    HW247818   7.867  10.311  11.674
15327SOL     OW47819   0.902   1.092   0.959
15327SOL    HW147820   0.847   1.140   0.898
15327SOL    HW247821   0.842   1.062   1.028
15328SOL     OW47822  10.726   8.713  12.429
15328SOL    HW147823  10.688   8.639  12.476
15328SOL    HW247824  10.818   8.714  12.456
15329SOL     OW47825  10.040   2.567   8.860
15329SOL    HW147826  10.010   2.656   8.880
15329SOL    HW247827  10.122   2.559   8.908
15330SOL     OW47828   6.156   6.975   7.635
15330SOL    HW147829   6.178   7.033   7.707
15330SOL    HW247830   6.178   7.026   7.556
15331SOL     OW47831   1.013   5.653   3.647
15331SOL    HW147832   1.005   5.710   3.571
15331SOL    HW247833   1.101   5.669   3.680
15332SOL     OW47834   3.881   9.318   7.979
15332SOL    HW147835   3.906   9.225   7.981
15332SOL    HW247836   3.806   9.322   7.920
15333SOL     OW47837  12.654   9.853   7.461
15333SOL    HW147838  12.578   9.807   7.498
15333SOL    HW247839  12.658   9.935   7.509
15334SOL     OW47840  14.442   7.891   9.444
15334SOL    HW147841  14.470   7.803   9.419
15334SOL    HW247842  14.347   7.890   9.430
15335SOL     OW47843   1.887   7.617   2.171
15335SOL    HW147844   1.839   7.694   2.141
15335SOL    HW247845   1.856   7.603   2.260
15336SOL     OW47846  12.512  12.100   3.353
15336SOL    HW147847  12.425  12.065   3.338
15336SOL    HW247848  12.567  12.023   3.366
15337SOL     OW47849   0.088  11.451   0.437
15337SOL    HW147850   0.131  11.535   0.421
15337SOL    HW247851   0.032  11.467   0.513
15338SOL     OW47852  11.418   7.122   6.949
15338SOL    HW147853  11.336   7.133   6.901
15338SOL    HW247854  11.408   7.039   6.995
15339SOL     OW47855  14.477   9.317   0.102
15339SOL    HW147856  14.406   9.290   0.160
15339SOL    HW247857  14.481   9.247   0.036
15340SOL     OW47858   8.769   2.794   2.971
15340SOL    HW147859   8.691   2.794   2.915
15340SOL    HW247860   8.803   2.705   2.964
15341SOL     OW47861   3.024  14.060   7.321
15341SOL    HW147862   3.018  14.024   7.410
15341SOL    HW247863   3.115  14.047   7.297
15342SOL     OW47864  10.443   5.308   7.441
15342SOL    HW147865  10.454   5.237   7.377
15342SOL    HW247866  10.530   5.317   7.480
15343SOL     OW47867  12.214  14.673   7.596
15343SOL    HW147868  12.259  14.589   7.604
15343SOL    HW247869  12.241  14.707   7.511
15344SOL     OW47870   3.245   0.243   2.158
15344SOL    HW147871   3.276   0.160   2.122
15344SOL    HW247872   3.288   0.310   2.105
15345SOL     OW47873   1.538   5.075   6.112
15345SOL    HW147874   1.540   5.146   6.175
15345SOL    HW247875   1.630   5.054   6.096
15346SOL     OW47876   3.641   6.591   0.532
15346SOL    HW147877   3.709   6.524   0.540
15346SOL    HW247878   3.620   6.615   0.622
15347SOL     OW47879   0.646   4.028   6.026
15347SOL    HW147880   0.570   3.983   5.989
15347SOL    HW247881   0.718   3.966   6.015
15348SOL     OW47882   4.731   3.015  10.853
15348SOL    HW147883   4.788   3.069  10.799
15348SOL    HW247884   4.781   2.935  10.870
15349SOL     OW47885   7.183   8.292   2.116
15349SOL    HW147886   7.227   8.377   2.104
15349SOL    HW247887   7.193   8.248   2.032
15350SOL     OW47888   7.874  10.233  14.798
15350SOL    HW147889   7.936  10.225  14.726
15350SOL    HW247890   7.921  10.199  14.874
15351SOL     OW47891  12.913   1.408   3.185
15351SOL    HW147892  12.829   1.449   3.165
15351SOL    HW247893  12.977   1.460   3.136
15352SOL     OW47894   8.818  14.099   5.123
15352SOL    HW147895   8.913  14.090   5.111
15352SOL    HW247896   8.794  14.174   5.067
15353SOL     OW47897   4.906  12.618   7.878
15353SOL    HW147898   4.838  12.610   7.810
15353SOL    HW247899   4.865  12.670   7.947
15354SOL     OW47900   1.781   0.277   2.377
15354SOL    HW147901   1.743   0.335   2.442
15354SOL    HW247902   1.706   0.235   2.335
15355SOL     OW47903   1.399  10.145  14.810
15355SOL    HW147904   1.333  10.106  14.753
15355SOL    HW247905   1.460  10.074  14.829
15356SOL     OW47906   2.228   5.435  13.270
15356SOL    HW147907   2.154   5.491  13.295
15356SOL    HW247908   2.220   5.425  13.176
15357SOL     OW47909   9.406   8.550   2.615
15357SOL    HW147910   9.448   8.576   2.533
15357SOL    HW247911   9.468   8.577   2.683
15358SOL     OW47912   9.818   0.922   1.939
15358SOL    HW147913   9.797   0.856   2.004
15358SOL    HW247914   9.822   1.004   1.988
15359SOL     OW47915   3.206   4.812   4.856
15359SOL    HW147916   3.207   4.721   4.884
15359SOL    HW247917   3.292   4.827   4.818
15360SOL     OW47918   5.598   5.671   5.910
15360SOL    HW147919   5.671   5.618   5.879
15360SOL    HW247920   5.639   5.744   5.957
15361SOL     OW47921  11.520  11.448   9.649
15361SOL    HW147922  11.426  11.436   9.665
15361SOL    HW247923  11.534  11.412   9.561
15362SOL     OW47924  10.622  14.498  10.256
15362SOL    HW147925  10.544  14.518  10.204
15362SOL    HW247926  10.613  14.405  10.277
15363SOL     OW47927   5.234   5.158   5.624
15363SOL    HW147928   5.247   5.243   5.582
15363SOL    HW247929   5.172   5.176   5.695
15364SOL     OW47930  12.670   8.749   5.343
15364SOL    HW147931  12.611   8.747   5.418
15364SOL    HW247932  12.616   8.780   5.270
15365SOL     OW47933   3.279   5.662  10.546
15365SOL    HW147934   3.241   5.750  10.536
15365SOL    HW247935   3.254   5.617  10.465
15366SOL     OW47936  13.818  13.944  12.839
15366SOL    HW147937  13.874  13.967  12.914
15366SOL    HW247938  13.732  13.977  12.863
15367SOL     OW47939   3.255   8.947  12.540
15367SOL    HW147940   3.196   8.909  12.604
15367SOL    HW247941   3.339   8.953  12.585
15368SOL     OW47942   3.389  10.097  12.930
15368SOL    HW147943   3.463  10.041  12.953
15368SOL    HW247944   3.317  10.037  12.913
15369SOL     OW47945  13.035  13.690   3.628
15369SOL    HW147946  12.995  13.777   3.639
15369SOL    HW247947  12.983  13.648   3.560
15370SOL     OW47948   1.016  11.372   5.260
15370SOL    HW147949   0.932  11.327   5.268
15370SOL    HW247950   1.002  11.457   5.302
15371SOL     OW47951   0.216   8.795  11.515
15371SOL    HW147952   0.222   8.699  11.514
15371SOL    HW247953   0.152   8.814  11.583
15372SOL     OW47954   4.307   8.811   4.937
15372SOL    HW147955   4.239   8.838   4.875
15372SOL    HW247956   4.320   8.888   4.993
15373SOL     OW47957  13.414   9.085   9.047
15373SOL    HW147958  13.469   9.099   8.970
15373SOL    HW247959  13.472   9.042   9.110
15374SOL     OW47960   2.715   6.003   9.679
15374SOL    HW147961   2.769   5.943   9.627
15374SOL    HW247962   2.701   6.078   9.621
15375SOL     OW47963   2.989   9.059  10.355
15375SOL    HW147964   3.001   9.027  10.444
15375SOL    HW247965   2.984   9.154  10.363
15376SOL     OW47966  12.945   7.778  11.641
15376SOL    HW147967  13.009   7.769  11.711
15376SOL    HW247968  12.869   7.818  11.684
15377SOL     OW47969   3.381   2.300   8.607
15377SOL    HW147970   3.467   2.315   8.568
15377SOL    HW247971   3.364   2.207   8.593
15378SOL     OW47972   3.481   7.074   6.345
15378SOL    HW147973   3.555   7.075   6.407
15378SOL    HW247974   3.504   7.139   6.279
15379SOL     OW47975   6.510   0.267   8.958
15379SOL    HW147976   6.455   0.214   9.016
15379SOL    HW247977   6.582   0.208   8.933
15380SOL     OW47978  11.281   5.661   6.979
15380SOL    HW147979  11.328   5.600   6.922
15380SOL    HW247980  11.226   5.713   6.920
15381SOL     OW47981   0.675   6.447   7.239
15381SOL    HW147982   0.599   6.488   7.198
15381SOL    HW247983   0.674   6.357   7.206
15382SOL     OW47984   3.646  10.707   6.109
15382SOL    HW147985   3.621  10.672   6.194
15382SOL    HW247986   3.578  10.675   6.049
15383SOL     OW47987   7.943   6.740   2.584
15383SOL    HW147988   7.864   6.745   2.530
15383SOL    HW247989   8.013   6.718   2.524
15384SOL     OW47990   7.136   3.682   0.763
15384SOL    HW147991   7.089   3.765   0.763
15384SOL    HW247992   7.074   3.619   0.798
15385SOL     OW47993   7.151  14.026  12.034
15385SOL    HW147994   7.184  14.096  11.978
15385SOL    HW247995   7.094  13.975  11.977
15386SOL     OW47996   5.465   2.158   2.646
15386SOL    HW147997   5.403   2.107   2.595
15386SOL    HW247998   5.536   2.177   2.585
15387SOL     OW47999   6.853  10.798   0.292
15387SOL    HW148000   6.869  10.881   0.337
15387SOL    HW248001   6.788  10.753   0.346
15388SOL     OW48002  10.064  13.704   9.511
15388SOL    HW148003  10.038  13.636   9.449
15388SOL    HW248004  10.072  13.658   9.595
15389SOL     OW48005   7.318  14.450   7.121
15389SOL    HW148006   7.317  14.488   7.033
15389SOL    HW248007   7.402  14.476   7.158
15390SOL     OW48008   0.389   7.088   5.746
15390SOL    HW148009   0.400   7.160   5.808
15390SOL    HW248010   0.297   7.092   5.721
15391SOL     OW48011   1.030  12.163   1.496
15391SOL    HW148012   1.046  12.238   1.554
15391SOL    HW248013   1.114  12.149   1.452
15392SOL     OW48014   1.516  12.955   6.283
15392SOL    HW148015   1.511  12.862   6.307
15392SOL    HW248016   1.445  12.997   6.332
15393SOL     OW48017  12.223  11.337   9.553
15393SOL    HW148018  12.191  11.322   9.464
15393SOL    HW248019  12.146  11.327   9.608
15394SOL     OW48020   7.442   0.159   5.702
15394SOL    HW148021   7.531   0.183   5.674
15394SOL    HW248022   7.384   0.215   5.650
15395SOL     OW48023  14.858   2.791   8.495
15395SOL    HW148024  14.872   2.780   8.401
15395SOL    HW248025   0.035   2.865   8.519
15396SOL     OW48026   9.724  11.921  12.079
15396SOL    HW148027   9.715  11.832  12.047
15396SOL    HW248028   9.694  11.976  12.007
15397SOL     OW48029  13.292   6.607   7.565
15397SOL    HW148030  13.251   6.620   7.480
15397SOL    HW248031  13.267   6.685   7.616
15398SOL     OW48032   8.322   3.040   2.942
15398SOL    HW148033   8.339   3.072   3.031
15398SOL    HW248034   8.239   2.994   2.949
15399SOL     OW48035  13.818   4.181   0.988
15399SOL    HW148036  13.740   4.140   1.026
15399SOL    HW248037  13.829   4.263   1.036
15400SOL     OW48038   0.680   5.922   5.287
15400SOL    HW148039   0.633   5.977   5.224
15400SOL    HW248040   0.729   5.985   5.341
15401SOL     OW48041  11.967   8.884   3.509
15401SOL    HW148042  11.961   8.924   3.423
15401SOL    HW248043  11.952   8.791   3.494
15402SOL     OW48044   8.262   7.233  12.980
15402SOL    HW148045   8.340   7.230  12.925
15402SOL    HW248046   8.201   7.289  12.932
15403SOL     OW48047   9.224   9.128   1.916
15403SOL    HW148048   9.206   9.220   1.934
15403SOL    HW248049   9.281   9.129   1.839
15404SOL     OW48050   4.788  12.899  13.478
15404SOL    HW148051   4.805  12.891  13.384
15404SOL    HW248052   4.849  12.966  13.508
15405SOL     OW48053  11.901   4.861   3.597
15405SOL    HW148054  11.871   4.773   3.622
15405SOL    HW248055  11.886   4.865   3.503
15406SOL     OW48056   6.387   5.169  14.589
15406SOL    HW148057   6.423   5.237  14.646
15406SOL    HW248058   6.451   5.098  14.594
15407SOL     OW48059   9.132   8.650   8.726
15407SOL    HW148060   9.209   8.610   8.684
15407SOL    HW248061   9.064   8.646   8.659
15408SOL     OW48062   9.538   7.397  10.743
15408SOL    HW148063   9.476   7.401  10.816
15408SOL    HW248064   9.505   7.328  10.686
15409SOL     OW48065   3.747  10.322  13.163
15409SOL    HW148066   3.656  10.342  13.143
15409SOL    HW248067   3.774  10.260  13.096
15410SOL     OW48068  13.062  12.736   6.066
15410SOL    HW148069  13.048  12.729   6.161
15410SOL    HW248070  12.975  12.756   6.031
15411SOL     OW48071  12.672   0.958  13.449
15411SOL    HW148072  12.672   0.928  13.359
15411SOL    HW248073  12.580   0.955  13.476
15412SOL     OW48074   3.099   7.129   4.978
15412SOL    HW148075   3.075   7.093   5.063
15412SOL    HW248076   3.017   7.137   4.930
15413SOL     OW48077   2.293   0.864  14.569
15413SOL    HW148078   2.265   0.953  14.592
15413SOL    HW248079   2.261   0.851  14.480
15414SOL     OW48080   5.554   3.018   8.080
15414SOL    HW148081   5.509   3.050   8.157
15414SOL    HW248082   5.490   2.961   8.037
15415SOL     OW48083  14.426   1.876  11.580
15415SOL    HW148084  14.481   1.954  11.590
15415SOL    HW248085  14.483   1.803  11.605
15416SOL     OW48086   5.770  11.135   3.942
15416SOL    HW148087   5.820  11.055   3.928
15416SOL    HW248088   5.784  11.157   4.035
15417SOL     OW48089   4.017   7.692  12.905
15417SOL    HW148090   3.927   7.697  12.935
15417SOL    HW248091   4.030   7.599  12.885
15418SOL     OW48092   5.921  11.375   8.001
15418SOL    HW148093   5.956  11.444   8.058
15418SOL    HW248094   5.962  11.392   7.916
15419SOL     OW48095   0.540   9.821  12.853
15419SOL    HW148096   0.483   9.803  12.928
15419SOL    HW248097   0.585   9.902  12.877
15420SOL     OW48098   7.925   9.505   2.400
15420SOL    HW148099   7.905   9.412   2.406
15420SOL    HW248100   7.997   9.511   2.337
15421SOL     OW48101  13.400   6.660  10.237
15421SOL    HW148102  13.313   6.640  10.204
15421SOL    HW248103  13.416   6.751  10.209
15422SOL     OW48104   2.942   5.890   7.453
15422SOL    HW148105   3.003   5.816   7.445
15422SOL    HW248106   2.895   5.873   7.534
15423SOL     OW48107   5.685   3.544   4.007
15423SOL    HW148108   5.615   3.506   3.953
15423SOL    HW248109   5.700   3.479   4.076
15424SOL     OW48110   4.713   4.412   0.065
15424SOL    HW148111   4.751   4.434  14.859
15424SOL    HW248112   4.764   4.463   0.128
15425SOL     OW48113  11.613   4.471  11.006
15425SOL    HW148114  11.557   4.475  11.084
15425SOL    HW248115  11.675   4.543  11.019
15426SOL     OW48116  13.774   5.100  14.776
15426SOL    HW148117  13.723   5.153  14.837
15426SOL    HW248118  13.830   5.047  14.833
15427SOL     OW48119   9.589   5.535   1.233
15427SOL    HW148120   9.569   5.615   1.185
15427SOL    HW248121   9.523   5.472   1.204
15428SOL     OW48122   3.594  13.812   1.576
15428SOL    HW148123   3.566  13.860   1.498
15428SOL    HW248124   3.513  13.777   1.613
15429SOL     OW48125  13.518  10.781   1.559
15429SOL    HW148126  13.455  10.803   1.490
15429SOL    HW248127  13.465  10.766   1.637
15430SOL     OW48128   2.628  12.278   2.264
15430SOL    HW148129   2.654  12.258   2.354
15430SOL    HW248130   2.682  12.353   2.239
15431SOL     OW48131   5.972  14.506   1.950
15431SOL    HW148132   6.040  14.486   2.015
15431SOL    HW248133   6.013  14.571   1.893
15432SOL     OW48134  10.659  13.063   6.920
15432SOL    HW148135  10.588  13.034   6.863
15432SOL    HW248136  10.646  13.015   7.001
15433SOL     OW48137   9.746   1.694   8.160
15433SOL    HW148138   9.799   1.707   8.239
15433SOL    HW248139   9.791   1.746   8.093
15434SOL     OW48140   5.118   5.825   1.036
15434SOL    HW148141   5.033   5.860   1.061
15434SOL    HW248142   5.181   5.886   1.072
15435SOL     OW48143   6.956  11.904  14.181
15435SOL    HW148144   6.887  11.958  14.219
15435SOL    HW248145   7.036  11.934  14.224
15436SOL     OW48146   2.553   7.831  14.462
15436SOL    HW148147   2.515   7.754  14.504
15436SOL    HW248148   2.646   7.810  14.452
15437SOL     OW48149   8.403  11.802  14.810
15437SOL    HW148150   8.422  11.754  14.728
15437SOL    HW248151   8.440  11.889  14.796
15438SOL     OW48152  13.791   7.651   4.664
15438SOL    HW148153  13.856   7.637   4.733
15438SOL    HW248154  13.708   7.625   4.704
15439SOL     OW48155   5.197   4.528   0.341
15439SOL    HW148156   5.276   4.547   0.392
15439SOL    HW248157   5.208   4.579   0.261
15440SOL     OW48158  14.375   4.656  11.126
15440SOL    HW148159  14.280   4.654  11.135
15440SOL    HW248160  14.400   4.565  11.113
15441SOL     OW48161  12.436   5.874   2.718
15441SOL    HW148162  12.467   5.821   2.791
15441SOL    HW248163  12.341   5.877   2.729
15442SOL     OW48164   8.945  14.455  13.041
15442SOL    HW148165   8.964  14.545  13.067
15442SOL    HW248166   8.990  14.401  13.105
15443SOL     OW48167   2.902  11.614  14.751
15443SOL    HW148168   2.939  11.702  14.756
15443SOL    HW248169   2.949  11.572  14.678
15444SOL     OW48170  14.782  11.720   0.264
15444SOL    HW148171  14.869  11.692   0.293
15444SOL    HW248172  14.733  11.731   0.345
15445SOL     OW48173   6.859   4.717   8.422
15445SOL    HW148174   6.922   4.719   8.351
15445SOL    HW248175   6.801   4.644   8.402
15446SOL     OW48176   9.673  12.291   6.747
15446SOL    HW148177   9.588  12.254   6.721
15446SOL    HW248178   9.670  12.295   6.842
15447SOL     OW48179   7.593   9.278  12.192
15447SOL    HW148180   7.592   9.211  12.261
15447SOL    HW248181   7.677   9.265  12.148
15448SOL     OW48182  14.879  10.794  14.289
15448SOL    HW148183   0.052  10.752  14.358
15448SOL    HW248184  14.815  10.727  14.264
15449SOL     OW48185  12.878   5.925   3.245
15449SOL    HW148186  12.924   5.950   3.325
15449SOL    HW248187  12.803   5.874   3.276
15450SOL     OW48188   7.891  12.620  13.820
15450SOL    HW148189   7.865  12.686  13.884
15450SOL    HW248190   7.921  12.546  13.873
15451SOL     OW48191   8.314  12.813   7.735
15451SOL    HW148192   8.319  12.885   7.672
15451SOL    HW248193   8.238  12.762   7.706
15452SOL     OW48194   5.728   8.140  11.445
15452SOL    HW148195   5.819   8.170  11.436
15452SOL    HW248196   5.713   8.087  11.366
15453SOL     OW48197   1.020   3.876  10.572
15453SOL    HW148198   0.978   3.797  10.538
15453SOL    HW248199   1.005   3.942  10.504
15454SOL     OW48200   1.287   9.201   6.275
15454SOL    HW148201   1.329   9.198   6.189
15454SOL    HW248202   1.316   9.121   6.319
15455SOL     OW48203  11.518   9.769  11.121
15455SOL    HW148204  11.424   9.786  11.129
15455SOL    HW248205  11.530   9.681  11.158
15456SOL     OW48206   0.095  11.281  12.236
15456SOL    HW148207   0.006  11.255  12.212
15456SOL    HW248208   0.107  11.247  12.325
15457SOL     OW48209  11.119   0.556   2.204
15457SOL    HW148210  11.110   0.553   2.108
15457SOL    HW248211  11.065   0.484   2.235
15458SOL     OW48212   0.225   2.648   5.171
15458SOL    HW148213   0.226   2.575   5.232
15458SOL    HW248214   0.133   2.673   5.163
15459SOL     OW48215   3.117  12.589   3.170
15459SOL    HW148216   3.097  12.645   3.095
15459SOL    HW248217   3.035  12.582   3.218
15460SOL     OW48218  13.768   6.250   1.117
15460SOL    HW148219  13.703   6.179   1.117
15460SOL    HW248220  13.715   6.330   1.112
15461SOL     OW48221   6.739   6.419   2.746
15461SOL    HW148222   6.767   6.365   2.673
15461SOL    HW248223   6.791   6.499   2.739
15462SOL     OW48224   1.904   7.599  13.728
15462SOL    HW148225   1.846   7.665  13.765
15462SOL    HW248226   1.986   7.646  13.711
15463SOL     OW48227   9.032   0.888   6.703
15463SOL    HW148228   9.121   0.911   6.678
15463SOL    HW248229   9.039   0.867   6.797
15464SOL     OW48230   0.035  10.783   9.653
15464SOL    HW148231  14.878  10.750   9.570
15464SOL    HW248232   0.128  10.794   9.635
15465SOL     OW48233   3.532   3.137   7.381
15465SOL    HW148234   3.599   3.205   7.371
15465SOL    HW248235   3.526   3.123   7.476
15466SOL     OW48236   9.155   4.826   1.735
15466SOL    HW148237   9.080   4.791   1.688
15466SOL    HW248238   9.221   4.757   1.731
15467SOL     OW48239   0.637  10.767  13.630
15467SOL    HW148240   0.555  10.814  13.614
15467SOL    HW248241   0.619  10.677  13.600
15468SOL     OW48242   6.817   4.913  12.003
15468SOL    HW148243   6.770   4.879  11.927
15468SOL    HW248244   6.833   4.836  12.058
15469SOL     OW48245   4.973   9.595  10.911
15469SOL    HW148246   4.987   9.589  11.005
15469SOL    HW248247   4.898   9.655  10.901
15470SOL     OW48248   7.140  12.138   6.448
15470SOL    HW148249   7.207  12.132   6.516
15470SOL    HW248250   7.110  12.048   6.435
15471SOL     OW48251   7.887   2.980  10.513
15471SOL    HW148252   7.980   2.968  10.531
15471SOL    HW248253   7.845   2.904  10.551
15472SOL     OW48254   5.327  10.087   5.294
15472SOL    HW148255   5.295  10.159   5.239
15472SOL    HW248256   5.417  10.110   5.315
15473SOL     OW48257   0.008   3.794  14.871
15473SOL    HW148258  14.848   3.811  14.786
15473SOL    HW248259   0.006   3.879   0.036
15474SOL     OW48260   0.551   4.700  12.466
15474SOL    HW148261   0.501   4.707  12.385
15474SOL    HW248262   0.513   4.767  12.524
15475SOL     OW48263  10.259   5.893  13.827
15475SOL    HW148264  10.332   5.908  13.767
15475SOL    HW248265  10.182   5.928  13.783
15476SOL     OW48266   4.711  10.097  11.718
15476SOL    HW148267   4.783  10.115  11.658
15476SOL    HW248268   4.679  10.011  11.693
15477SOL     OW48269   6.173  14.778   1.333
15477SOL    HW148270   6.117  14.842   1.377
15477SOL    HW248271   6.188  14.710   1.399
15478SOL     OW48272   9.407   1.701   6.946
15478SOL    HW148273   9.470   1.772   6.934
15478SOL    HW248274   9.459   1.628   6.981
15479SOL     OW48275  10.130   0.092  10.197
15479SOL    HW148276  10.072   0.019  10.216
15479SOL    HW248277  10.157   0.124  10.283
15480SOL     OW48278   5.548   0.437   7.568
15480SOL    HW148279   5.590   0.522   7.555
15480SOL    HW248280   5.521   0.437   7.660
15481SOL     OW48281   3.598   6.096  11.063
15481SOL    HW148282   3.587   6.057  11.149
15481SOL    HW248283   3.668   6.046  11.022
15482SOL     OW48284  14.684  10.067  13.912
15482SOL    HW148285  14.705  10.130  13.981
15482SOL    HW248286  14.663   9.986  13.959
15483SOL     OW48287   6.048   8.994   1.289
15483SOL    HW148288   5.956   9.016   1.280
15483SOL    HW248289   6.093   9.079   1.291
15484SOL     OW48290  12.751   6.686   6.757
15484SOL    HW148291  12.826   6.681   6.697
15484SOL    HW248292  12.731   6.594   6.778
15485SOL     OW48293   2.628  11.578   9.371
15485SOL    HW148294   2.534  11.594   9.377
15485SOL    HW248295   2.637  11.483   9.378
15486SOL     OW48296   8.508   2.582   6.777
15486SOL    HW148297   8.487   2.584   6.684
15486SOL    HW248298   8.575   2.515   6.786
15487SOL     OW48299   7.562   4.254   9.632
15487SOL    HW148300   7.506   4.192   9.585
15487SOL    HW248301   7.624   4.285   9.566
15488SOL     OW48302   7.729  11.608   0.363
15488SOL    HW148303   7.789  11.664   0.412
15488SOL    HW248304   7.686  11.667   0.301
15489SOL     OW48305   3.940  12.090  12.067
15489SOL    HW148306   3.864  12.099  12.124
15489SOL    HW248307   4.015  12.093  12.126
15490SOL     OW48308   1.595  13.360   4.961
15490SOL    HW148309   1.655  13.303   4.913
15490SOL    HW248310   1.605  13.446   4.918
15491SOL     OW48311   8.946   9.940  13.224
15491SOL    HW148312   8.959   9.961  13.131
15491SOL    HW248313   9.014   9.875  13.243
15492SOL     OW48314   4.394  10.679   8.351
15492SOL    HW148315   4.485  10.667   8.326
15492SOL    HW248316   4.361  10.591   8.369
15493SOL     OW48317  14.067  10.627   0.225
15493SOL    HW148318  14.079  10.652   0.133
15493SOL    HW248319  14.080  10.709   0.274
15494SOL     OW48320   1.991  10.098   8.513
15494SOL    HW148321   1.903  10.134   8.525
15494SOL    HW248322   2.022  10.137   8.431
15495SOL     OW48323   2.641   5.751   7.174
15495SOL    HW148324   2.610   5.770   7.262
15495SOL    HW248325   2.625   5.658   7.161
15496SOL     OW48326   2.933   1.464   8.538
15496SOL    HW148327   2.952   1.399   8.470
15496SOL    HW248328   2.910   1.411   8.615
15497SOL     OW48329   2.730   7.964  14.708
15497SOL    HW148330   2.790   7.894  14.736
15497SOL    HW248331   2.671   7.921  14.646
15498SOL     OW48332  14.497  11.491   0.582
15498SOL    HW148333  14.459  11.483   0.670
15498SOL    HW248334  14.442  11.557   0.539
15499SOL     OW48335  13.935   6.175   0.496
15499SOL    HW148336  13.856   6.214   0.534
15499SOL    HW248337  13.955   6.101   0.553
15500SOL     OW48338   2.408   4.870   8.319
15500SOL    HW148339   2.371   4.857   8.232
15500SOL    HW248340   2.354   4.940   8.357
15501SOL     OW48341   4.294   3.953   4.896
15501SOL    HW148342   4.199   3.944   4.887
15501SOL    HW248343   4.305   4.021   4.963
15502SOL     OW48344   8.038  14.385   8.211
15502SOL    HW148345   7.994  14.467   8.192
15502SOL    HW248346   7.986  14.318   8.167
15503SOL     OW48347   4.804   2.544   4.624
15503SOL    HW148348   4.770   2.581   4.543
15503SOL    HW248349   4.823   2.453   4.603
15504SOL     OW48350  12.116   2.859  14.553
15504SOL    HW148351  12.154   2.808  14.481
15504SOL    HW248352  12.150   2.816  14.632
15505SOL     OW48353   1.511   8.873  10.609
15505SOL    HW148354   1.433   8.916  10.643
15505SOL    HW248355   1.546   8.824  10.683
15506SOL     OW48356  12.781   7.067   2.180
15506SOL    HW148357  12.811   7.067   2.271
15506SOL    HW248358  12.716   6.998   2.176
15507SOL     OW48359   6.134   7.507   2.585
15507SOL    HW148360   6.085   7.586   2.566
15507SOL    HW248361   6.203   7.505   2.519
15508SOL     OW48362  10.074   7.723   4.990
15508SOL    HW148363  10.079   7.778   5.067
15508SOL    HW248364  10.069   7.784   4.916
15509SOL     OW48365  11.722   9.210   4.812
15509SOL    HW148366  11.642   9.231   4.860
15509SOL    HW248367  11.767   9.147   4.868
15510SOL     OW48368   4.306   3.336  10.296
15510SOL    HW148369   4.223   3.346  10.343
15510SOL    HW248370   4.347   3.422  10.301
15511SOL     OW48371   8.470   8.333   5.444
15511SOL    HW148372   8.381   8.334   5.477
15511SOL    HW248373   8.471   8.263   5.378
15512SOL     OW48374   9.245   1.057   7.099
15512SOL    HW148375   9.307   1.096   7.038
15512SOL    HW248376   9.174   1.024   7.044
15513SOL     OW48377  12.783   7.733   8.112
15513SOL    HW148378  12.715   7.705   8.173
15513SOL    HW248379  12.736   7.784   8.046
15514SOL     OW48380   0.404   4.559   9.965
15514SOL    HW148381   0.483   4.518   9.931
15514SOL    HW248382   0.429   4.594  10.051
15515SOL     OW48383   2.718   8.069   3.842
15515SOL    HW148384   2.629   8.054   3.811
15515SOL    HW248385   2.721   8.031   3.930
15516SOL     OW48386  10.072   6.660   8.680
15516SOL    HW148387  10.050   6.734   8.737
15516SOL    HW248388  10.153   6.685   8.637
15517SOL     OW48389   0.907  14.083   3.205
15517SOL    HW148390   0.872  14.170   3.186
15517SOL    HW248391   0.853  14.051   3.277
15518SOL     OW48392   0.721  11.082  12.249
15518SOL    HW148393   0.710  11.153  12.312
15518SOL    HW248394   0.649  11.093  12.187
15519SOL     OW48395  12.624  10.773  12.644
15519SOL    HW148396  12.605  10.865  12.663
15519SOL    HW248397  12.691  10.749  12.708
15520SOL     OW48398   7.395   8.853  13.192
15520SOL    HW148399   7.458   8.844  13.264
15520SOL    HW248400   7.315   8.812  13.225
15521SOL     OW48401   0.262   8.366  13.244
15521SOL    HW148402   0.314   8.421  13.186
15521SOL    HW248403   0.173   8.371  13.209
15522SOL     OW48404   4.858   4.943   2.948
15522SOL    HW148405   4.912   4.961   2.871
15522SOL    HW248406   4.860   5.023   3.000
15523SOL     OW48407   3.988  13.581  14.259
15523SOL    HW148408   3.911  13.560  14.206
15523SOL    HW248409   3.954  13.629  14.334
15524SOL     OW48410  14.777   5.699   2.760
15524SOL    HW148411  14.838   5.636   2.798
15524SOL    HW248412  14.725   5.731   2.834
15525SOL     OW48413  11.717  12.910  14.234
15525SOL    HW148414  11.690  12.897  14.325
15525SOL    HW248415  11.691  12.830  14.189
15526SOL     OW48416   7.045   4.570   1.776
15526SOL    HW148417   7.042   4.500   1.710
15526SOL    HW248418   7.126   4.555   1.823
15527SOL     OW48419  12.387  10.141   6.377
15527SOL    HW148420  12.463  10.186   6.340
15527SOL    HW248421  12.367  10.072   6.315
15528SOL     OW48422   0.519   7.829   6.561
15528SOL    HW148423   0.460   7.886   6.511
15528SOL    HW248424   0.461   7.781   6.621
15529SOL     OW48425   9.144   4.265   7.548
15529SOL    HW148426   9.093   4.316   7.612
15529SOL    HW248427   9.199   4.207   7.602
15530SOL     OW48428  12.994  10.058  11.334
15530SOL    HW148429  13.058   9.989  11.350
15530SOL    HW248430  12.928  10.046  11.402
15531SOL     OW48431   8.886   8.972  14.220
15531SOL    HW148432   8.952   9.005  14.159
15531SOL    HW248433   8.846   8.898  14.174
15532SOL     OW48434   5.033   3.096   0.441
15532SOL    HW148435   4.942   3.084   0.469
15532SOL    HW248436   5.042   3.190   0.429
15533SOL     OW48437   0.737  11.180   9.978
15533SOL    HW148438   0.711  11.101   9.932
15533SOL    HW248439   0.754  11.244   9.909
15534SOL     OW48440  13.244   9.216   8.266
15534SOL    HW148441  13.196   9.295   8.287
15534SOL    HW248442  13.309   9.208   8.336
15535SOL     OW48443   3.372   0.048  14.739
15535SOL    HW148444   3.414   0.069  14.656
15535SOL    HW248445   3.285   0.016  14.714
15536SOL     OW48446   2.901   6.941   1.613
15536SOL    HW148447   2.808   6.946   1.636
15536SOL    HW248448   2.945   6.914   1.694
15537SOL     OW48449  13.243   9.146  14.087
15537SOL    HW148450  13.154   9.160  14.057
15537SOL    HW248451  13.236   9.079  14.155
15538SOL     OW48452  14.183   4.024   2.251
15538SOL    HW148453  14.167   3.959   2.183
15538SOL    HW248454  14.105   4.022   2.305
15539SOL     OW48455   1.216   1.417   3.386
15539SOL    HW148456   1.244   1.482   3.450
15539SOL    HW248457   1.159   1.465   3.326
15540SOL     OW48458  13.951  14.366   2.842
15540SOL    HW148459  13.995  14.443   2.806
15540SOL    HW248460  13.966  14.372   2.936
15541SOL     OW48461   5.508   7.281   6.518
15541SOL    HW148462   5.553   7.365   6.509
15541SOL    HW248463   5.571   7.217   6.487
15542SOL     OW48464  13.621   7.213  13.524
15542SOL    HW148465  13.615   7.303  13.490
15542SOL    HW248466  13.637   7.224  13.618
15543SOL     OW48467   8.205   8.774   9.726
15543SOL    HW148468   8.211   8.866   9.700
15543SOL    HW248469   8.119   8.746   9.696
15544SOL     OW48470   7.878  10.194   2.660
15544SOL    HW148471   7.906  10.283   2.682
15544SOL    HW248472   7.848  10.157   2.743
15545SOL     OW48473   8.704   3.477   7.630
15545SOL    HW148474   8.780   3.428   7.663
15545SOL    HW248475   8.678   3.430   7.551
15546SOL     OW48476   4.987   5.230  13.757
15546SOL    HW148477   5.041   5.185  13.823
15546SOL    HW248478   4.998   5.178  13.678
15547SOL     OW48479   1.336   8.441   5.726
15547SOL    HW148480   1.319   8.355   5.689
15547SOL    HW248481   1.426   8.462   5.699
15548SOL     OW48482   6.646   9.683  10.337
15548SOL    HW148483   6.652   9.588  10.327
15548SOL    HW248484   6.675   9.700  10.427
15549SOL     OW48485   6.287   1.623  11.124
15549SOL    HW148486   6.312   1.533  11.144
15549SOL    HW248487   6.349   1.677  11.173
15550SOL     OW48488   3.147   4.403   5.550
15550SOL    HW148489   3.059   4.416   5.515
15550SOL    HW248490   3.204   4.451   5.489
15551SOL     OW48491  12.142  11.789   8.737
15551SOL    HW148492  12.227  11.822   8.767
15551SOL    HW248493  12.163  11.733   8.663
15552SOL     OW48494   1.352   0.966   2.925
15552SOL    HW148495   1.286   0.896   2.931
15552SOL    HW248496   1.309   1.042   2.965
15553SOL     OW48497  14.278   6.131   4.870
15553SOL    HW148498  14.365   6.158   4.900
15553SOL    HW248499  14.290   6.108   4.778
15554SOL     OW48500   9.352  12.851   4.277
15554SOL    HW148501   9.267  12.835   4.318
15554SOL    HW248502   9.410  12.788   4.319
15555SOL     OW48503   6.513   4.427   1.300
15555SOL    HW148504   6.440   4.371   1.325
15555SOL    HW248505   6.574   4.369   1.255
15556SOL     OW48506   9.558   0.136  11.181
15556SOL    HW148507   9.591   0.217  11.142
15556SOL    HW248508   9.482   0.113  11.127
15557SOL     OW48509   9.064   5.497   6.278
15557SOL    HW148510   9.041   5.518   6.188
15557SOL    HW248511   9.127   5.564   6.304
15558SOL     OW48512   7.107   0.852  11.639
15558SOL    HW148513   7.041   0.914  11.606
15558SOL    HW248514   7.104   0.863  11.734
15559SOL     OW48515   1.386   0.754  12.724
15559SOL    HW148516   1.341   0.673  12.750
15559SOL    HW248517   1.444   0.728  12.653
15560SOL     OW48518   9.577   4.378  10.054
15560SOL    HW148519   9.566   4.468  10.024
15560SOL    HW248520   9.489   4.341  10.055
15561SOL     OW48521  12.125  12.243  13.394
15561SOL    HW148522  12.143  12.153  13.369
15561SOL    HW248523  12.140  12.294  13.314
15562SOL     OW48524  10.641  11.610   3.282
15562SOL    HW148525  10.611  11.667   3.352
15562SOL    HW248526  10.643  11.522   3.321
15563SOL     OW48527   8.272  11.518  14.570
15563SOL    HW148528   8.344  11.576  14.544
15563SOL    HW248529   8.259  11.461  14.495
15564SOL     OW48530   1.713   2.502  11.015
15564SOL    HW148531   1.681   2.577  10.966
15564SOL    HW248532   1.634   2.454  11.040
15565SOL     OW48533  12.272   0.787   9.732
15565SOL    HW148534  12.212   0.716   9.710
15565SOL    HW248535  12.285   0.779   9.827
15566SOL     OW48536   6.714   9.733  14.796
15566SOL    HW148537   6.806   9.707  14.791
15566SOL    HW248538   6.709   9.812  14.742
15567SOL     OW48539   6.346   0.231   0.104
15567SOL    HW148540   6.306   0.185   0.177
15567SOL    HW248541   6.431   0.259   0.137
15568SOL     OW48542   5.013   4.088   3.948
15568SOL    HW148543   4.928   4.079   3.991
15568SOL    HW248544   5.075   4.103   4.019
15569SOL     OW48545  12.998  12.415   0.499
15569SOL    HW148546  13.034  12.460   0.575
15569SOL    HW248547  12.940  12.348   0.536
15570SOL     OW48548  12.929   7.536   7.944
15570SOL    HW148549  12.871   7.591   7.996
15570SOL    HW248550  12.979   7.597   7.890
15571SOL     OW48551   7.594   8.348  14.069
15571SOL    HW148552   7.522   8.366  14.009
15571SOL    HW248553   7.584   8.412  14.139
15572SOL     OW48554  11.891   1.431   3.668
15572SOL    HW148555  11.818   1.454   3.611
15572SOL    HW248556  11.861   1.353   3.715
15573SOL     OW48557   1.262   9.688   7.748
15573SOL    HW148558   1.340   9.651   7.789
15573SOL    HW248559   1.253   9.640   7.666
15574SOL     OW48560   5.131   4.252   0.372
15574SOL    HW148561   5.153   4.344   0.364
15574SOL    HW248562   5.045   4.251   0.414
15575SOL     OW48563   2.948   8.893   9.075
15575SOL    HW148564   2.938   8.959   9.144
15575SOL    HW248565   2.917   8.811   9.115
15576SOL     OW48566   4.855   3.462  12.680
15576SOL    HW148567   4.807   3.396  12.730
15576SOL    HW248568   4.920   3.412  12.630
15577SOL     OW48569   2.403   3.261   3.125
15577SOL    HW148570   2.376   3.261   3.033
15577SOL    HW248571   2.493   3.293   3.123
15578SOL     OW48572   0.950  14.576   6.475
15578SOL    HW148573   0.867  14.553   6.518
15578SOL    HW248574   0.923  14.607   6.388
15579SOL     OW48575   6.468  13.541  14.706
15579SOL    HW148576   6.534  13.542  14.637
15579SOL    HW248577   6.407  13.611  14.682
15580SOL     OW48578  12.308   1.545   6.532
15580SOL    HW148579  12.322   1.611   6.465
15580SOL    HW248580  12.288   1.595   6.612
15581SOL     OW48581   1.054  12.583  12.783
15581SOL    HW148582   1.038  12.675  12.806
15581SOL    HW248583   1.145  12.582  12.752
15582SOL     OW48584   9.022  11.012  13.129
15582SOL    HW148585   9.101  11.064  13.121
15582SOL    HW248586   9.051  10.922  13.115
15583SOL     OW48587   3.720   1.229   4.127
15583SOL    HW148588   3.753   1.140   4.117
15583SOL    HW248589   3.631   1.217   4.161
15584SOL     OW48590  10.511  11.958   4.259
15584SOL    HW148591  10.500  11.866   4.235
15584SOL    HW248592  10.575  11.956   4.330
15585SOL     OW48593   3.179   5.346   2.464
15585SOL    HW148594   3.091   5.339   2.501
15585SOL    HW248595   3.179   5.285   2.390
15586SOL     OW48596   2.502  13.724  12.939
15586SOL    HW148597   2.537  13.690  13.021
15586SOL    HW248598   2.567  13.789  12.912
15587SOL     OW48599   9.058  14.716  14.681
15587SOL    HW148600   9.069  14.796  14.732
15587SOL    HW248601   9.147  14.690  14.658
15588SOL     OW48602   8.003  11.663   7.659
15588SOL    HW148603   8.033  11.657   7.750
15588SOL    HW248604   7.930  11.601   7.654
15589SOL     OW48605   6.570  12.638   5.392
15589SOL    HW148606   6.533  12.666   5.308
15589SOL    HW248607   6.588  12.720   5.438
15590SOL     OW48608  13.115   8.356  13.077
15590SOL    HW148609  13.069   8.391  13.001
15590SOL    HW248610  13.207   8.376  13.061
15591SOL     OW48611  10.346   2.941  11.666
15591SOL    HW148612  10.337   3.028  11.625
15591SOL    HW248613  10.300   2.882  11.606
15592SOL     OW48614   3.683  13.521  14.342
15592SOL    HW148615   3.724  13.598  14.380
15592SOL    HW248616   3.601  13.554  14.303
15593SOL     OW48617   8.468   8.713   4.588
15593SOL    HW148618   8.496   8.801   4.612
15593SOL    HW248619   8.389   8.727   4.535
15594SOL     OW48620   8.914  14.042  11.162
15594SOL    HW148621   8.860  14.060  11.086
15594SOL    HW248622   8.885  13.956  11.192
15595SOL     OW48623  12.799   0.764   3.988
15595SOL    HW148624  12.757   0.682   4.012
15595SOL    HW248625  12.786   0.822   4.063
15596SOL     OW48626  10.039   7.097  13.970
15596SOL    HW148627  10.052   7.185  14.005
15596SOL    HW248628  10.110   7.046  14.007
15597SOL     OW48629   5.438   5.991  10.763
15597SOL    HW148630   5.532   5.988  10.748
15597SOL    HW248631   5.399   5.973  10.678
15598SOL     OW48632   6.302   4.163   6.527
15598SOL    HW148633   6.239   4.098   6.558
15598SOL    HW248634   6.292   4.162   6.432
15599SOL     OW48635   0.301   7.057  12.124
15599SOL    HW148636   0.366   6.989  12.108
15599SOL    HW248637   0.217   7.015  12.106
15600SOL     OW48638   6.314   5.508   7.621
15600SOL    HW148639   6.267   5.428   7.644
15600SOL    HW248640   6.406   5.485   7.631
15601SOL     OW48641  13.347   9.671   0.629
15601SOL    HW148642  13.399   9.630   0.698
15601SOL    HW248643  13.381   9.760   0.622
15602SOL     OW48644  13.173   4.709   9.611
15602SOL    HW148645  13.152   4.758   9.531
15602SOL    HW248646  13.093   4.661   9.632
15603SOL     OW48647   6.068  11.789  12.415
15603SOL    HW148648   6.091  11.819  12.503
15603SOL    HW248649   6.033  11.701  12.428
15604SOL     OW48650   7.167   7.537   6.447
15604SOL    HW148651   7.137   7.526   6.356
15604SOL    HW248652   7.206   7.453   6.469
15605SOL     OW48653   5.506   7.806   6.874
15605SOL    HW148654   5.555   7.830   6.952
15605SOL    HW248655   5.544   7.859   6.804
15606SOL     OW48656   5.822   5.943  14.439
15606SOL    HW148657   5.894   5.904  14.489
15606SOL    HW248658   5.865   6.006  14.380
15607SOL     OW48659   4.008  12.939  13.367
15607SOL    HW148660   4.093  12.978  13.390
15607SOL    HW248661   3.948  13.014  13.361
15608SOL     OW48662  12.214   9.261  13.752
15608SOL    HW148663  12.246   9.191  13.810
15608SOL    HW248664  12.131   9.288  13.791
15609SOL     OW48665  10.737   7.855   7.283
15609SOL    HW148666  10.810   7.874   7.342
15609SOL    HW248667  10.733   7.759   7.280
15610SOL     OW48668   0.420   9.804   0.757
15610SOL    HW148669   0.401   9.896   0.774
15610SOL    HW248670   0.371   9.783   0.677
15611SOL     OW48671  12.912  12.086  10.118
15611SOL    HW148672  12.881  12.001  10.149
15611SOL    HW248673  13.003  12.091  10.147
15612SOL     OW48674   3.198   0.487   2.810
15612SOL    HW148675   3.278   0.529   2.844
15612SOL    HW248676   3.144   0.472   2.887
15613SOL     OW48677  11.055   0.502  10.090
15613SOL    HW148678  11.089   0.558  10.019
15613SOL    HW248679  11.106   0.528  10.167
15614SOL     OW48680  13.878  11.513   3.693
15614SOL    HW148681  13.796  11.471   3.667
15614SOL    HW248682  13.942  11.479   3.630
15615SOL     OW48683  10.668   8.621  12.922
15615SOL    HW148684  10.588   8.599  12.876
15615SOL    HW248685  10.694   8.541  12.967
15616SOL     OW48686  12.826   6.089  13.370
15616SOL    HW148687  12.759   6.109  13.305
15616SOL    HW248688  12.817   6.157  13.436
15617SOL     OW48689   7.868  14.805  10.180
15617SOL    HW148690   7.891   0.015  10.156
15617SOL    HW248691   7.773  14.804  10.184
15618SOL     OW48692   4.476   7.461   1.223
15618SOL    HW148693   4.449   7.370   1.227
15618SOL    HW248694   4.515   7.478   1.309
15619SOL     OW48695   6.679   1.336  14.273
15619SOL    HW148696   6.693   1.354  14.366
15619SOL    HW248697   6.614   1.266  14.271
15620SOL     OW48698  12.006   1.948   7.900
15620SOL    HW148699  12.017   2.042   7.915
15620SOL    HW248700  11.938   1.922   7.962
15621SOL     OW48701   6.677   5.536   3.065
15621SOL    HW148702   6.588   5.499   3.070
15621SOL    HW248703   6.698   5.532   2.971
15622SOL     OW48704  14.542  14.663  12.871
15622SOL    HW148705  14.530  14.674  12.776
15622SOL    HW248706  14.576  14.575  12.881
15623SOL     OW48707   9.061  12.158   9.104
15623SOL    HW148708   9.013  12.211   9.168
15623SOL    HW248709   9.139  12.210   9.084
15624SOL     OW48710   1.331   9.029  11.044
15624SOL    HW148711   1.384   8.976  10.983
15624SOL    HW248712   1.242   8.997  11.031
15625SOL     OW48713   5.467   4.422   6.707
15625SOL    HW148714   5.444   4.465   6.789
15625SOL    HW248715   5.479   4.495   6.645
15626SOL     OW48716   3.660   7.776   0.322
15626SOL    HW148717   3.617   7.859   0.339
15626SOL    HW248718   3.679   7.777   0.228
15627SOL     OW48719   9.360   0.538   3.101
15627SOL    HW148720   9.439   0.584   3.128
15627SOL    HW248721   9.361   0.543   3.005
15628SOL     OW48722   0.195  11.858   5.571
15628SOL    HW148723   0.275  11.910   5.572
15628SOL    HW248724   0.152  11.881   5.489
15629SOL     OW48725  12.580   7.515  11.653
15629SOL    HW148726  12.515   7.455  11.690
15629SOL    HW248727  12.648   7.520  11.720
15630SOL     OW48728   3.033   8.392   8.518
15630SOL    HW148729   3.009   8.400   8.611
15630SOL    HW248730   2.960   8.432   8.472
15631SOL     OW48731   3.847   9.314   0.966
15631SOL    HW148732   3.768   9.289   1.014
15631SOL    HW248733   3.869   9.401   0.998
15632SOL     OW48734  14.011   2.047  10.109
15632SOL    HW148735  13.989   2.030  10.017
15632SOL    HW248736  14.043   2.138  10.109
15633SOL     OW48737   8.964   5.653  14.480
15633SOL    HW148738   8.945   5.633  14.389
15633SOL    HW248739   8.991   5.745  14.480
15634SOL     OW48740  11.075  12.839  12.362
15634SOL    HW148741  11.107  12.848  12.452
15634SOL    HW248742  10.984  12.868  12.366
15635SOL     OW48743  10.526  14.809   3.563
15635SOL    HW148744  10.431  14.816   3.553
15635SOL    HW248745  10.541  14.717   3.586
15636SOL     OW48746   7.555   2.010  12.158
15636SOL    HW148747   7.538   1.982  12.248
15636SOL    HW248748   7.615   1.944  12.123
15637SOL     OW48749   4.575   2.375   3.751
15637SOL    HW148750   4.499   2.365   3.809
15637SOL    HW248751   4.553   2.323   3.673
15638SOL     OW48752  11.071   0.183   2.589
15638SOL    HW148753  11.140   0.179   2.656
15638SOL    HW248754  11.115   0.158   2.508
15639SOL     OW48755   3.935   6.529  12.423
15639SOL    HW148756   4.009   6.501  12.369
15639SOL    HW248757   3.895   6.600  12.374
15640SOL     OW48758   6.113   2.343  10.620
15640SOL    HW148759   6.074   2.364  10.705
15640SOL    HW248760   6.088   2.253  10.603
15641SOL     OW48761   0.173  11.881   3.857
15641SOL    HW148762   0.170  11.878   3.761
15641SOL    HW248763   0.225  11.805   3.881
15642SOL     OW48764  13.663  10.544   4.241
15642SOL    HW148765  13.718  10.514   4.168
15642SOL    HW248766  13.707  10.509   4.319
15643SOL     OW48767   6.109   8.432   5.076
15643SOL    HW148768   6.057   8.480   5.012
15643SOL    HW248769   6.088   8.340   5.059
15644SOL     OW48770   1.249  14.820   0.919
15644SOL    HW148771   1.309  14.762   0.965
15644SOL    HW248772   1.172  14.766   0.899
15645SOL     OW48773  10.800  10.523  10.768
15645SOL    HW148774  10.813  10.505  10.674
15645SOL    HW248775  10.725  10.470  10.792
15646SOL     OW48776  14.164   1.354   6.058
15646SOL    HW148777  14.171   1.344   5.963
15646SOL    HW248778  14.095   1.293   6.083
15647SOL     OW48779   1.283   7.398   5.109
15647SOL    HW148780   1.334   7.467   5.153
15647SOL    HW248781   1.341   7.322   5.107
15648SOL     OW48782   4.185   3.723   8.376
15648SOL    HW148783   4.219   3.635   8.390
15648SOL    HW248784   4.241   3.779   8.430
15649SOL     OW48785  12.288   1.537   7.190
15649SOL    HW148786  12.342   1.496   7.258
15649SOL    HW248787  12.300   1.481   7.113
15650SOL     OW48788   2.199  11.740   3.047
15650SOL    HW148789   2.210  11.758   2.954
15650SOL    HW248790   2.197  11.644   3.052
15651SOL     OW48791   1.309  13.556   9.647
15651SOL    HW148792   1.262  13.493   9.592
15651SOL    HW248793   1.396  13.563   9.606
15652SOL     OW48794   3.224   3.398   1.926
15652SOL    HW148795   3.175   3.351   1.993
15652SOL    HW248796   3.305   3.349   1.916
15653SOL     OW48797  14.173  13.901   8.404
15653SOL    HW148798  14.125  13.891   8.486
15653SOL    HW248799  14.106  13.929   8.341
15654SOL     OW48800   8.115   7.877  10.428
15654SOL    HW148801   8.106   7.796  10.477
15654SOL    HW248802   8.148   7.850  10.342
15655SOL     OW48803  14.647   7.170  14.385
15655SOL    HW148804  14.615   7.230  14.317
15655SOL    HW248805  14.721   7.216  14.424
15656SOL     OW48806  11.078   3.905   3.440
15656SOL    HW148807  11.126   3.879   3.519
15656SOL    HW248808  11.106   3.994   3.423
15657SOL     OW48809   3.492   1.823  11.324
15657SOL    HW148810   3.422   1.865  11.274
15657SOL    HW248811   3.469   1.838  11.416
15658SOL     OW48812  11.031   5.397   1.170
15658SOL    HW148813  11.114   5.434   1.140
15658SOL    HW248814  10.972   5.473   1.177
15659SOL     OW48815   0.353  14.034   7.641
15659SOL    HW148816   0.335  14.080   7.723
15659SOL    HW248817   0.269  14.034   7.595
15660SOL     OW48818   9.378   4.910   8.702
15660SOL    HW148819   9.371   4.999   8.736
15660SOL    HW248820   9.471   4.888   8.710
15661SOL     OW48821  12.610   0.043   4.837
15661SOL    HW148822  12.681   0.033   4.900
15661SOL    HW248823  12.534   0.069   4.890
15662SOL     OW48824   2.312   7.876   3.712
15662SOL    HW148825   2.343   7.813   3.646
15662SOL    HW248826   2.245   7.827   3.760
15663SOL     OW48827   1.286   9.853  11.845
15663SOL    HW148828   1.203   9.892  11.873
15663SOL    HW248829   1.276   9.760  11.866
15664SOL     OW48830   6.662   6.494  10.236
15664SOL    HW148831   6.668   6.398  10.231
15664SOL    HW248832   6.747   6.521  10.271
15665SOL     OW48833   9.721   4.517   1.234
15665SOL    HW148834   9.631   4.527   1.202
15665SOL    HW248835   9.757   4.605   1.233
15666SOL     OW48836  10.272  10.240  11.985
15666SOL    HW148837  10.263  10.193  11.902
15666SOL    HW248838  10.225  10.184  12.048
15667SOL     OW48839   9.378  10.186   7.005
15667SOL    HW148840   9.290  10.183   7.042
15667SOL    HW248841   9.410  10.096   7.010
15668SOL     OW48842   2.241   7.445  14.763
15668SOL    HW148843   2.152   7.431  14.729
15668SOL    HW248844   2.263   7.362  14.806
15669SOL     OW48845   6.257   8.665  10.943
15669SOL    HW148846   6.220   8.721  10.875
15669SOL    HW248847   6.210   8.690  11.022
15670SOL     OW48848   1.982   1.003  14.115
15670SOL    HW148849   1.988   0.908  14.101
15670SOL    HW248850   2.053   1.023  14.176
15671SOL     OW48851  11.452   0.858  12.028
15671SOL    HW148852  11.487   0.946  12.035
15671SOL    HW248853  11.505   0.806  12.088
15672SOL     OW48854   8.802  12.656   6.982
15672SOL    HW148855   8.776  12.565   6.971
15672SOL    HW248856   8.881  12.652   7.036
15673SOL     OW48857   2.994   9.939   7.201
15673SOL    HW148858   3.008  10.002   7.131
15673SOL    HW248859   2.957   9.990   7.273
15674SOL     OW48860   5.907   1.291   3.729
15674SOL    HW148861   5.879   1.199   3.730
15674SOL    HW248862   5.999   1.289   3.755
15675SOL     OW48863  12.701   5.054  13.077
15675SOL    HW148864  12.676   5.044  12.985
15675SOL    HW248865  12.618   5.049  13.125
15676SOL     OW48866   1.265   8.042   2.827
15676SOL    HW148867   1.212   8.120   2.843
15676SOL    HW248868   1.227   7.975   2.884
15677SOL     OW48869   1.146   3.207   3.089
15677SOL    HW148870   1.140   3.112   3.099
15677SOL    HW248871   1.198   3.236   3.165
15678SOL     OW48872   3.524   4.411  12.726
15678SOL    HW148873   3.502   4.447  12.812
15678SOL    HW248874   3.616   4.385  12.734
15679SOL     OW48875  13.542  14.039   8.831
15679SOL    HW148876  13.573  14.058   8.742
15679SOL    HW248877  13.492  14.117   8.856
15680SOL     OW48878  10.140   0.199   6.897
15680SOL    HW148879  10.177   0.251   6.969
15680SOL    HW248880  10.171   0.110   6.914
15681SOL     OW48881  13.347   5.705   3.984
15681SOL    HW148882  13.276   5.655   4.025
15681SOL    HW248883  13.310   5.792   3.970
15682SOL     OW48884   6.030   8.433   9.681
15682SOL    HW148885   5.961   8.405   9.741
15682SOL    HW248886   6.049   8.523   9.707
15683SOL     OW48887  12.350   9.182  12.336
15683SOL    HW148888  12.272   9.238  12.335
15683SOL    HW248889  12.399   9.209  12.258
15684SOL     OW48890  11.452   2.553   4.182
15684SOL    HW148891  11.421   2.643   4.171
15684SOL    HW248892  11.533   2.549   4.130
15685SOL     OW48893   9.528  10.312   5.509
15685SOL    HW148894   9.510  10.332   5.601
15685SOL    HW248895   9.588  10.238   5.512
15686SOL     OW48896   8.240  12.917   8.010
15686SOL    HW148897   8.233  12.897   7.916
15686SOL    HW248898   8.332  12.940   8.023
15687SOL     OW48899   6.661   3.286   9.469
15687SOL    HW148900   6.600   3.295   9.395
15687SOL    HW248901   6.738   3.335   9.443
15688SOL     OW48902  12.062   1.539   3.420
15688SOL    HW148903  12.078   1.446   3.408
15688SOL    HW248904  12.141   1.572   3.461
15689SOL     OW48905  10.934   0.356   5.607
15689SOL    HW148906  10.976   0.312   5.533
15689SOL    HW248907  11.000   0.419   5.637
15690SOL     OW48908   6.886   6.698  11.123
15690SOL    HW148909   6.950   6.691  11.194
15690SOL    HW248910   6.802   6.708  11.167
15691SOL     OW48911  12.838   6.295  13.571
15691SOL    HW148912  12.765   6.320  13.628
15691SOL    HW248913  12.914   6.295  13.629
15692SOL     OW48914   9.742   9.416   4.802
15692SOL    HW148915   9.774   9.455   4.884
15692SOL    HW248916   9.651   9.445   4.797
15693SOL     OW48917  11.368   3.296   7.009
15693SOL    HW148918  11.384   3.208   7.041
15693SOL    HW248919  11.456   3.331   6.990
15694SOL     OW48920  14.759   3.746  11.081
15694SOL    HW148921  14.675   3.794  11.079
15694SOL    HW248922  14.793   3.763  11.169
15695SOL     OW48923   5.187   6.361  14.015
15695SOL    HW148924   5.202   6.419  13.941
15695SOL    HW248925   5.117   6.404  14.065
15696SOL     OW48926  10.391   5.430  10.156
15696SOL    HW148927  10.385   5.347  10.109
15696SOL    HW248928  10.451   5.413  10.228
15697SOL     OW48929   4.122   1.490   4.411
15697SOL    HW148930   4.202   1.443   4.385
15697SOL    HW248931   4.057   1.464   4.346
15698SOL     OW48932   9.779   0.917   0.712
15698SOL    HW148933   9.706   0.895   0.769
15698SOL    HW248934   9.856   0.912   0.769
15699SOL     OW48935   0.184  10.782  10.691
15699SOL    HW148936   0.197  10.708  10.632
15699SOL    HW248937   0.172  10.857  10.632
15700SOL     OW48938  14.708   1.036   0.145
15700SOL    HW148939  14.641   1.088   0.102
15700SOL    HW248940  14.761   1.099   0.193
15701SOL     OW48941   5.866   4.371   2.793
15701SOL    HW148942   5.891   4.448   2.741
15701SOL    HW248943   5.934   4.363   2.859
15702SOL     OW48944   6.524   9.220   9.628
15702SOL    HW148945   6.469   9.298   9.629
15702SOL    HW248946   6.603   9.246   9.676
15703SOL     OW48947  11.363   6.701  14.342
15703SOL    HW148948  11.336   6.770  14.282
15703SOL    HW248949  11.431   6.741  14.396
15704SOL     OW48950   1.306  10.534   2.261
15704SOL    HW148951   1.277  10.607   2.205
15704SOL    HW248952   1.348  10.577   2.336
15705SOL     OW48953   1.465   6.673   8.205
15705SOL    HW148954   1.402   6.606   8.180
15705SOL    HW248955   1.425   6.755   8.177
15706SOL     OW48956   0.225   1.952   0.437
15706SOL    HW148957   0.319   1.953   0.458
15706SOL    HW248958   0.207   1.860   0.417
15707SOL     OW48959   7.247   8.124   6.186
15707SOL    HW148960   7.296   8.115   6.104
15707SOL    HW248961   7.263   8.214   6.214
15708SOL     OW48962   4.793  13.934   8.275
15708SOL    HW148963   4.755  13.905   8.192
15708SOL    HW248964   4.737  14.005   8.304
15709SOL     OW48965  13.323   0.319   1.561
15709SOL    HW148966  13.316   0.248   1.625
15709SOL    HW248967  13.396   0.295   1.505
15710SOL     OW48968   7.539   2.703   0.743
15710SOL    HW148969   7.585   2.776   0.702
15710SOL    HW248970   7.487   2.665   0.672
15711SOL     OW48971  10.588   8.807   1.404
15711SOL    HW148972  10.659   8.832   1.463
15711SOL    HW248973  10.605   8.715   1.384
15712SOL     OW48974   9.197   0.215   7.031
15712SOL    HW148975   9.198   0.247   6.941
15712SOL    HW248976   9.269   0.152   7.035
15713SOL     OW48977   2.891   3.687   5.345
15713SOL    HW148978   2.861   3.643   5.425
15713SOL    HW248979   2.831   3.761   5.335
15714SOL     OW48980   2.840  13.089   0.896
15714SOL    HW148981   2.761  13.046   0.863
15714SOL    HW248982   2.912  13.049   0.847
15715SOL     OW48983   9.883   0.083   0.487
15715SOL    HW148984   9.930   0.000   0.494
15715SOL    HW248985   9.930   0.143   0.545
15716SOL     OW48986   7.459  10.573   0.091
15716SOL    HW148987   7.429  10.645   0.146
15716SOL    HW248988   7.512  10.518   0.149
15717SOL     OW48989   4.692   0.312  13.109
15717SOL    HW148990   4.698   0.225  13.148
15717SOL    HW248991   4.684   0.371  13.184
15718SOL     OW48992   9.869  10.038   8.875
15718SOL    HW148993   9.858  10.132   8.863
15718SOL    HW248994   9.874  10.003   8.787
15719SOL     OW48995  12.274  12.664  13.775
15719SOL    HW148996  12.239  12.716  13.702
15719SOL    HW248997  12.257  12.573  13.750
15720SOL     OW48998  12.056  12.767   6.122
15720SOL    HW148999  12.145  12.735   6.107
15720SOL    HW249000  12.002  12.716   6.062
15721SOL     OW49001  12.274   8.851   3.491
15721SOL    HW149002  12.207   8.915   3.516
15721SOL    HW249003  12.356   8.899   3.499
15722SOL     OW49004   1.082   3.825  12.571
15722SOL    HW149005   1.141   3.880  12.520
15722SOL    HW249006   1.116   3.736  12.558
15723SOL     OW49007   5.775   6.509   2.621
15723SOL    HW149008   5.696   6.559   2.599
15723SOL    HW249009   5.815   6.559   2.692
15724SOL     OW49010   6.144  12.443   0.872
15724SOL    HW149011   6.201  12.384   0.821
15724SOL    HW249012   6.062  12.444   0.823
15725SOL     OW49013   4.963   8.251   7.293
15725SOL    HW149014   5.007   8.276   7.374
15725SOL    HW249015   4.897   8.319   7.279
15726SOL     OW49016  10.575   1.230   1.814
15726SOL    HW149017  10.554   1.310   1.861
15726SOL    HW249018  10.650   1.253   1.760
15727SOL     OW49019   3.164   8.249   4.145
15727SOL    HW149020   3.193   8.187   4.078
15727SOL    HW249021   3.151   8.195   4.224
15728SOL     OW49022  14.467   6.859   4.823
15728SOL    HW149023  14.547   6.813   4.849
15728SOL    HW249024  14.427   6.884   4.906
15729SOL     OW49025  11.789   8.267  10.843
15729SOL    HW149026  11.755   8.323  10.773
15729SOL    HW249027  11.720   8.202  10.857
15730SOL     OW49028   0.437   2.713  12.979
15730SOL    HW149029   0.421   2.690  13.071
15730SOL    HW249030   0.520   2.760  12.980
15731SOL     OW49031   2.106   8.046  10.561
15731SOL    HW149032   2.100   8.049  10.466
15731SOL    HW249033   2.091   8.137  10.589
15732SOL     OW49034  12.822  12.087   1.748
15732SOL    HW149035  12.760  12.083   1.820
15732SOL    HW249036  12.884  12.016   1.765
15733SOL     OW49037   4.559  13.747   1.589
15733SOL    HW149038   4.634  13.726   1.532
15733SOL    HW249039   4.582  13.831   1.629
15734SOL     OW49040   9.874  13.318  13.183
15734SOL    HW149041   9.784  13.302  13.212
15734SOL    HW249042   9.872  13.406  13.147
15735SOL     OW49043   6.047   6.791  10.703
15735SOL    HW149044   6.108   6.761  10.770
15735SOL    HW249045   6.060   6.730  10.630
15736SOL     OW49046  13.062   0.088   0.643
15736SOL    HW149047  12.978   0.083   0.689
15736SOL    HW249048  13.043   0.130   0.560
15737SOL     OW49049   1.464  14.268   2.362
15737SOL    HW149050   1.479  14.175   2.347
15737SOL    HW249051   1.524  14.312   2.301
15738SOL     OW49052  12.942   5.238   0.715
15738SOL    HW149053  12.867   5.278   0.670
15738SOL    HW249054  12.916   5.146   0.727
15739SOL     OW49055   0.351   3.254   4.705
15739SOL    HW149056   0.271   3.289   4.744
15739SOL    HW249057   0.334   3.161   4.693
15740SOL     OW49058  11.283  12.979   2.040
15740SOL    HW149059  11.209  12.919   2.053
15740SOL    HW249060  11.246  13.066   2.053
15741SOL     OW49061   1.926   9.782   7.488
15741SOL    HW149062   2.010   9.803   7.449
15741SOL    HW249063   1.895   9.705   7.440
15742SOL     OW49064  11.934   4.996  14.383
15742SOL    HW149065  11.967   4.910  14.410
15742SOL    HW249066  11.906   5.037  14.464
15743SOL     OW49067   6.019   1.494  11.474
15743SOL    HW149068   6.002   1.461  11.386
15743SOL    HW249069   5.938   1.538  11.499
15744SOL     OW49070   0.625  13.930   6.940
15744SOL    HW149071   0.693  13.948   7.005
15744SOL    HW249072   0.570  13.863   6.981
15745SOL     OW49073  14.116   4.850   1.665
15745SOL    HW149074  14.043   4.854   1.603
15745SOL    HW249075  14.125   4.758   1.686
15746SOL     OW49076  12.663   5.192   4.426
15746SOL    HW149077  12.580   5.143   4.426
15746SOL    HW249078  12.730   5.124   4.420
15747SOL     OW49079   9.400   3.519   5.335
15747SOL    HW149080   9.442   3.586   5.387
15747SOL    HW249081   9.419   3.437   5.380
15748SOL     OW49082   0.075  10.513  10.666
15748SOL    HW149083   0.155  10.464  10.647
15748SOL    HW249084   0.008  10.445  10.676
15749SOL     OW49085   0.290  14.443   2.358
15749SOL    HW149086   0.346  14.366   2.346
15749SOL    HW249087   0.310  14.474   2.446
15750SOL     OW49088   1.406   5.578   8.205
15750SOL    HW149089   1.329   5.523   8.221
15750SOL    HW249090   1.446   5.588   8.291
15751SOL     OW49091   1.397  12.640  11.103
15751SOL    HW149092   1.307  12.672  11.110
15751SOL    HW249093   1.407  12.579  11.176
15752SOL     OW49094  11.331   3.857   2.660
15752SOL    HW149095  11.357   3.928   2.720
15752SOL    HW249096  11.273   3.899   2.597
15753SOL     OW49097  10.746   7.797  11.651
15753SOL    HW149098  10.826   7.745  11.639
15753SOL    HW249099  10.683   7.758  11.590
15754SOL     OW49100  12.038   4.777   8.134
15754SOL    HW149101  12.082   4.844   8.083
15754SOL    HW249102  12.106   4.715   8.159
15755SOL     OW49103  12.563   4.580   2.743
15755SOL    HW149104  12.588   4.672   2.748
15755SOL    HW249105  12.581   4.546   2.830
15756SOL     OW49106   9.812   3.079   7.274
15756SOL    HW149107   9.898   3.096   7.313
15756SOL    HW249108   9.793   3.157   7.222
15757SOL     OW49109   0.859   8.195  11.061
15757SOL    HW149110   0.790   8.147  11.015
15757SOL    HW249111   0.925   8.213  10.993
15758SOL     OW49112   5.366   0.901   6.377
15758SOL    HW149113   5.398   0.839   6.443
15758SOL    HW249114   5.271   0.892   6.381
15759SOL     OW49115  12.181   0.370   1.100
15759SOL    HW149116  12.089   0.384   1.076
15759SOL    HW249117  12.208   0.296   1.046
15760SOL     OW49118  10.711   5.122  14.446
15760SOL    HW149119  10.633   5.168  14.476
15760SOL    HW249120  10.744   5.176  14.374
15761SOL     OW49121   1.196   3.941  13.617
15761SOL    HW149122   1.106   3.966  13.597
15761SOL    HW249123   1.242   3.951  13.534
15762SOL     OW49124  12.184   7.424   4.095
15762SOL    HW149125  12.183   7.329   4.101
15762SOL    HW249126  12.092   7.449   4.087
15763SOL     OW49127   2.365   3.589   8.026
15763SOL    HW149128   2.379   3.649   7.953
15763SOL    HW249129   2.439   3.607   8.085
15764SOL     OW49130   6.344   1.605  10.067
15764SOL    HW149131   6.379   1.632  10.152
15764SOL    HW249132   6.362   1.678  10.009
15765SOL     OW49133   3.938   8.871   8.319
15765SOL    HW149134   4.014   8.815   8.304
15765SOL    HW249135   3.926   8.869   8.414
15766SOL     OW49136   5.152   1.509  14.467
15766SOL    HW149137   5.197   1.458  14.534
15766SOL    HW249138   5.221   1.539  14.408
15767SOL     OW49139  11.701   7.650   2.482
15767SOL    HW149140  11.693   7.621   2.391
15767SOL    HW249141  11.778   7.604   2.515
15768SOL     OW49142  14.326   5.848  11.244
15768SOL    HW149143  14.324   5.837  11.339
15768SOL    HW249144  14.261   5.916  11.226
15769SOL     OW49145   2.247  12.829   6.476
15769SOL    HW149146   2.253  12.902   6.538
15769SOL    HW249147   2.298  12.858   6.400
15770SOL     OW49148  11.637   9.582   0.736
15770SOL    HW149149  11.726   9.617   0.737
15770SOL    HW249150  11.634   9.523   0.662
15771SOL     OW49151   9.080  14.427  13.612
15771SOL    HW149152   9.083  14.501  13.672
15771SOL    HW249153   9.162  14.431  13.564
15772SOL     OW49154   1.349   8.191  10.920
15772SOL    HW149155   1.442   8.214  10.914
15772SOL    HW249156   1.345   8.117  10.981
15773SOL     OW49157   7.467   6.359   9.367
15773SOL    HW149158   7.454   6.380   9.460
15773SOL    HW249159   7.378   6.346   9.333
15774SOL     OW49160   0.878   1.317  11.885
15774SOL    HW149161   0.833   1.292  11.805
15774SOL    HW249162   0.816   1.374  11.931
15775SOL     OW49163   8.165   2.408   7.368
15775SOL    HW149164   8.250   2.442   7.395
15775SOL    HW249165   8.142   2.343   7.434
15776SOL     OW49166   1.402  14.736  14.292
15776SOL    HW149167   1.413  14.650  14.333
15776SOL    HW249168   1.311  14.736  14.262
15777SOL     OW49169   6.053   9.003   5.989
15777SOL    HW149170   6.109   9.076   5.962
15777SOL    HW249171   6.091   8.927   5.944
15778SOL     OW49172  13.594   8.332   5.351
15778SOL    HW149173  13.594   8.417   5.395
15778SOL    HW249174  13.597   8.268   5.422
15779SOL     OW49175   1.761   3.713  11.831
15779SOL    HW149176   1.802   3.798  11.845
15779SOL    HW249177   1.690   3.710  11.895
15780SOL     OW49178  12.192   7.036   6.558
15780SOL    HW149179  12.255   7.013   6.627
15780SOL    HW249180  12.234   7.107   6.510
15781SOL     OW49181   4.054   6.567  12.653
15781SOL    HW149182   4.008   6.551  12.571
15781SOL    HW249183   4.128   6.506  12.652
15782SOL     OW49184   5.845   9.641   1.782
15782SOL    HW149185   5.890   9.558   1.794
15782SOL    HW249186   5.847   9.683   1.868
15783SOL     OW49187  11.788  10.483   2.667
15783SOL    HW149188  11.746  10.493   2.752
15783SOL    HW249189  11.772  10.566   2.622
15784SOL     OW49190  10.491   8.376  10.409
15784SOL    HW149191  10.412   8.426  10.392
15784SOL    HW249192  10.480   8.295  10.358
15785SOL     OW49193  14.383   6.863   0.056
15785SOL    HW149194  14.461   6.897   0.012
15785SOL    HW249195  14.326   6.939   0.066
15786SOL     OW49196  14.770   7.427   2.740
15786SOL    HW149197  14.737   7.517   2.735
15786SOL    HW249198  14.719   7.388   2.811
15787SOL     OW49199   0.391   0.642  13.014
15787SOL    HW149200   0.428   0.608  12.932
15787SOL    HW249201   0.342   0.568  13.051
15788SOL     OW49202   1.883   9.951   1.317
15788SOL    HW149203   1.789   9.933   1.309
15788SOL    HW249204   1.887  10.038   1.357
15789SOL     OW49205   3.050  11.745   0.373
15789SOL    HW149206   3.077  11.709   0.289
15789SOL    HW249207   3.107  11.701   0.437
15790SOL     OW49208   6.702   9.240   8.661
15790SOL    HW149209   6.743   9.191   8.589
15790SOL    HW249210   6.611   9.209   8.661
15791SOL     OW49211   3.035   3.272  12.732
15791SOL    HW149212   3.022   3.347  12.674
15791SOL    HW249213   3.047   3.198  12.673
15792SOL     OW49214   4.115   6.896  14.848
15792SOL    HW149215   4.176   6.934  14.785
15792SOL    HW249216   4.164   6.895   0.051
15793SOL     OW49217   0.915   0.307  12.130
15793SOL    HW149218   0.942   0.356  12.208
15793SOL    HW249219   0.870   0.371  12.076
15794SOL     OW49220  14.250  12.255  10.907
15794SOL    HW149221  14.214  12.166  10.908
15794SOL    HW249222  14.182  12.308  10.947
15795SOL     OW49223   9.603   9.637  10.735
15795SOL    HW149224   9.665   9.708  10.717
15795SOL    HW249225   9.658   9.560  10.746
15796SOL     OW49226   2.589   0.153  14.463
15796SOL    HW149227   2.573   0.085  14.397
15796SOL    HW249228   2.502   0.178  14.493
15797SOL     OW49229  12.245  12.824   7.686
15797SOL    HW149230  12.166  12.770   7.684
15797SOL    HW249231  12.270  12.826   7.778
15798SOL     OW49232   0.870   4.668   4.478
15798SOL    HW149233   0.948   4.662   4.423
15798SOL    HW249234   0.818   4.591   4.456
15799SOL     OW49235   6.703   6.770   2.489
15799SOL    HW149236   6.657   6.843   2.532
15799SOL    HW249237   6.775   6.749   2.548
15800SOL     OW49238   8.317   1.653  13.867
15800SOL    HW149239   8.252   1.586  13.890
15800SOL    HW249240   8.304   1.722  13.932
15801SOL     OW49241  11.590   1.403   7.903
15801SOL    HW149242  11.590   1.425   7.810
15801SOL    HW249243  11.681   1.410   7.930
15802SOL     OW49244  14.484   6.668   7.746
15802SOL    HW149245  14.548   6.601   7.726
15802SOL    HW249246  14.412   6.652   7.684
15803SOL     OW49247  14.630  14.807   3.251
15803SOL    HW149248  14.721  14.804   3.221
15803SOL    HW249249  14.606   0.019   3.246
15804SOL     OW49250   3.148  12.323   6.433
15804SOL    HW149251   3.208  12.253   6.458
15804SOL    HW249252   3.084  12.326   6.504
15805SOL     OW49253  12.094  11.623  10.426
15805SOL    HW149254  12.176  11.659  10.460
15805SOL    HW249255  12.049  11.587  10.503
15806SOL     OW49256   8.202   5.533   1.440
15806SOL    HW149257   8.139   5.513   1.371
15806SOL    HW249258   8.220   5.627   1.429
15807SOL     OW49259   1.343  14.589   6.436
15807SOL    HW149260   1.403  14.528   6.480
15807SOL    HW249261   1.305  14.641   6.507
15808SOL     OW49262   9.700   2.365   5.114
15808SOL    HW149263   9.697   2.399   5.025
15808SOL    HW249264   9.785   2.322   5.121
15809SOL     OW49265   8.969   8.233  11.132
15809SOL    HW149266   8.918   8.218  11.052
15809SOL    HW249267   9.013   8.149  11.149
15810SOL     OW49268   8.699   2.768   4.681
15810SOL    HW149269   8.771   2.710   4.705
15810SOL    HW249270   8.695   2.832   4.752
15811SOL     OW49271  12.242   6.282   3.188
15811SOL    HW149272  12.158   6.240   3.207
15811SOL    HW249273  12.233   6.315   3.099
15812SOL     OW49274  10.134  14.160  10.609
15812SOL    HW149275  10.076  14.106  10.556
15812SOL    HW249276  10.133  14.119  10.696
15813SOL     OW49277   9.110  13.573  13.024
15813SOL    HW149278   9.115  13.508  12.954
15813SOL    HW249279   9.020  13.568  13.055
15814SOL     OW49280  12.833   7.814   9.554
15814SOL    HW149281  12.877   7.882   9.605
15814SOL    HW249282  12.848   7.733   9.602
15815SOL     OW49283   0.008   3.182  11.917
15815SOL    HW149284   0.068   3.255  11.935
15815SOL    HW249285  14.805   3.208  11.958
15816SOL     OW49286  13.097   0.095   7.350
15816SOL    HW149287  13.100   0.024   7.286
15816SOL    HW249288  13.188   0.125   7.357
15817SOL     OW49289  11.831  10.480   7.136
15817SOL    HW149290  11.893  10.552   7.123
15817SOL    HW249291  11.818  10.476   7.231
15818SOL     OW49292   4.686   5.506   2.509
15818SOL    HW149293   4.751   5.562   2.550
15818SOL    HW249294   4.608   5.514   2.564
15819SOL     OW49295   4.191   7.994   5.706
15819SOL    HW149296   4.103   7.978   5.671
15819SOL    HW249297   4.248   7.992   5.630
15820SOL     OW49298   4.861   2.754   9.679
15820SOL    HW149299   4.894   2.842   9.659
15820SOL    HW249300   4.895   2.735   9.767
15821SOL     OW49301  10.570   2.954  11.514
15821SOL    HW149302  10.605   3.042  11.523
15821SOL    HW249303  10.502   2.948  11.582
15822SOL     OW49304  11.181   2.710  12.239
15822SOL    HW149305  11.130   2.750  12.168
15822SOL    HW249306  11.271   2.734  12.219
15823SOL     OW49307   7.398   5.433  13.622
15823SOL    HW149308   7.399   5.344  13.586
15823SOL    HW249309   7.324   5.475  13.578
15824SOL     OW49310   2.117   7.350   6.800
15824SOL    HW149311   2.108   7.386   6.712
15824SOL    HW249312   2.042   7.385   6.848
15825SOL     OW49313   6.929   1.852  12.128
15825SOL    HW149314   6.989   1.847  12.054
15825SOL    HW249315   6.880   1.770  12.124
15826SOL     OW49316   2.357   9.520   6.363
15826SOL    HW149317   2.394   9.465   6.432
15826SOL    HW249318   2.263   9.506   6.369
15827SOL     OW49319  14.550  10.338   8.277
15827SOL    HW149320  14.472  10.394   8.281
15827SOL    HW249321  14.554  10.297   8.363
15828SOL     OW49322   4.390  10.112   1.475
15828SOL    HW149323   4.444  10.070   1.542
15828SOL    HW249324   4.306  10.068   1.481
15829SOL     OW49325   2.149   3.332   2.500
15829SOL    HW149326   2.160   3.240   2.522
15829SOL    HW249327   2.150   3.377   2.584
15830SOL     OW49328   1.063  11.710   4.755
15830SOL    HW149329   1.006  11.656   4.809
15830SOL    HW249330   1.122  11.752   4.817
15831SOL     OW49331   3.642  13.039   8.698
15831SOL    HW149332   3.625  13.083   8.614
15831SOL    HW249333   3.730  13.067   8.722
15832SOL     OW49334   6.829   8.476   7.714
15832SOL    HW149335   6.869   8.512   7.634
15832SOL    HW249336   6.856   8.536   7.783
15833SOL     OW49337  12.611   6.879  12.196
15833SOL    HW149338  12.627   6.817  12.267
15833SOL    HW249339  12.538   6.841  12.147
15834SOL     OW49340  14.458   4.554   5.209
15834SOL    HW149341  14.506   4.509   5.139
15834SOL    HW249342  14.423   4.484   5.263
15835SOL     OW49343   1.303   4.719   4.256
15835SOL    HW149344   1.353   4.742   4.335
15835SOL    HW249345   1.221   4.766   4.265
15836SOL     OW49346   7.327   2.026   7.119
15836SOL    HW149347   7.270   2.009   7.044
15836SOL    HW249348   7.279   1.991   7.194
15837SOL     OW49349   5.359   6.497  14.802
15837SOL    HW149350   5.272   6.521  14.832
15837SOL    HW249351   5.354   6.504  14.706
15838SOL     OW49352  12.853  13.498   6.092
15838SOL    HW149353  12.896  13.572   6.134
15838SOL    HW249354  12.905  13.482   6.013
15839SOL     OW49355   4.605  11.144  10.516
15839SOL    HW149356   4.611  11.118  10.424
15839SOL    HW249357   4.600  11.061  10.564
15840SOL     OW49358  10.117   8.045   2.429
15840SOL    HW149359  10.172   8.000   2.492
15840SOL    HW249360  10.045   7.984   2.411
15841SOL     OW49361  13.286   7.462   7.781
15841SOL    HW149362  13.252   7.488   7.695
15841SOL    HW249363  13.214   7.414   7.822
15842SOL     OW49364   6.649   7.404   9.330
15842SOL    HW149365   6.596   7.474   9.292
15842SOL    HW249366   6.676   7.351   9.255
15843SOL     OW49367   9.378  11.668   5.945
15843SOL    HW149368   9.353  11.610   5.872
15843SOL    HW249369   9.472  11.652   5.956
15844SOL     OW49370  12.520   8.342   5.570
15844SOL    HW149371  12.469   8.363   5.649
15844SOL    HW249372  12.455   8.326   5.503
15845SOL     OW49373   0.070   9.870   3.702
15845SOL    HW149374   0.006   9.875   3.774
15845SOL    HW249375   0.020   9.833   3.629
15846SOL     OW49376  10.153   0.542   7.079
15846SOL    HW149377  10.231   0.505   7.120
15846SOL    HW249378  10.186   0.588   7.002
15847SOL     OW49379   1.818   2.508  11.272
15847SOL    HW149380   1.811   2.540  11.183
15847SOL    HW249381   1.858   2.421  11.263
15848SOL     OW49382   2.882  14.454   7.053
15848SOL    HW149383   2.840  14.452   6.967
15848SOL    HW249384   2.889  14.361   7.078
15849SOL     OW49385  13.832  14.708   6.825
15849SOL    HW149386  13.852  14.619   6.855
15849SOL    HW249387  13.874  14.715   6.740
15850SOL     OW49388   3.161  14.403   5.896
15850SOL    HW149389   3.221  14.329   5.900
15850SOL    HW249390   3.215  14.479   5.920
15851SOL     OW49391   1.103   8.584   9.837
15851SOL    HW149392   1.196   8.591   9.812
15851SOL    HW249393   1.105   8.561   9.930
15852SOL     OW49394  10.199  14.163   9.264
15852SOL    HW149395  10.107  14.185   9.255
15852SOL    HW249396  10.214  14.159   9.359
15853SOL     OW49397   5.110   3.799  11.858
15853SOL    HW149398   5.042   3.734  11.874
15853SOL    HW249399   5.191   3.749  11.850
15854SOL     OW49400  11.934   2.279   5.955
15854SOL    HW149401  11.881   2.315   5.884
15854SOL    HW249402  11.933   2.348   6.022
15855SOL     OW49403   9.036   3.569   1.047
15855SOL    HW149404   9.055   3.556   0.954
15855SOL    HW249405   9.049   3.483   1.087
15856SOL     OW49406   9.626   6.008   4.377
15856SOL    HW149407   9.702   5.978   4.427
15856SOL    HW249408   9.558   6.023   4.443
15857SOL     OW49409   1.695   4.153   3.751
15857SOL    HW149410   1.666   4.191   3.834
15857SOL    HW249411   1.639   4.076   3.739
15858SOL     OW49412  10.154   8.234   0.826
15858SOL    HW149413  10.158   8.150   0.781
15858SOL    HW249414  10.227   8.285   0.790
15859SOL     OW49415   8.001   3.212   6.521
15859SOL    HW149416   7.919   3.260   6.529
15859SOL    HW249417   8.012   3.169   6.606
15860SOL     OW49418   0.530  12.410   4.315
15860SOL    HW149419   0.456  12.387   4.372
15860SOL    HW249420   0.567  12.489   4.355
15861SOL     OW49421  10.148  14.664   7.532
15861SOL    HW149422  10.114  14.631   7.615
15861SOL    HW249423  10.147  14.588   7.474
15862SOL     OW49424   6.023   7.333   0.107
15862SOL    HW149425   5.928   7.342   0.110
15862SOL    HW249426   6.049   7.376   0.026
15863SOL     OW49427   7.843  13.909   7.280
15863SOL    HW149428   7.815  13.872   7.363
15863SOL    HW249429   7.805  13.851   7.214
15864SOL     OW49430   8.057   0.423  10.461
15864SOL    HW149431   7.989   0.381  10.514
15864SOL    HW249432   8.077   0.358  10.393
15865SOL     OW49433   1.261   2.679   9.219
15865SOL    HW149434   1.170   2.683   9.189
15865SOL    HW249435   1.256   2.658   9.312
15866SOL     OW49436  11.173  11.609   2.402
15866SOL    HW149437  11.254  11.582   2.444
15866SOL    HW249438  11.183  11.703   2.388
15867SOL     OW49439   4.910  11.291   8.126
15867SOL    HW149440   4.844  11.296   8.195
15867SOL    HW249441   4.992  11.273   8.173
15868SOL     OW49442  14.312  10.617   6.985
15868SOL    HW149443  14.250  10.547   6.964
15868SOL    HW249444  14.313  10.619   7.081
15869SOL     OW49445  12.619  13.128   7.143
15869SOL    HW149446  12.533  13.091   7.120
15869SOL    HW249447  12.656  13.064   7.204
15870SOL     OW49448  12.200   9.930   0.248
15870SOL    HW149449  12.205   9.901   0.339
15870SOL    HW249450  12.139   9.869   0.207
15871SOL     OW49451  12.799  13.024   6.506
15871SOL    HW149452  12.839  12.966   6.571
15871SOL    HW249453  12.800  12.974   6.425
15872SOL     OW49454   1.598  14.172   2.712
15872SOL    HW149455   1.625  14.261   2.690
15872SOL    HW249456   1.652  14.116   2.656
15873SOL     OW49457  11.990   7.015  11.730
15873SOL    HW149458  12.031   6.969  11.802
15873SOL    HW249459  12.033   6.981  11.651
15874SOL     OW49460   7.248   2.326  13.443
15874SOL    HW149461   7.169   2.365  13.480
15874SOL    HW249462   7.320   2.380  13.477
15875SOL     OW49463   1.358   7.835   3.525
15875SOL    HW149464   1.351   7.824   3.430
15875SOL    HW249465   1.318   7.757   3.562
15876SOL     OW49466   0.869   6.265   5.435
15876SOL    HW149467   0.868   6.293   5.343
15876SOL    HW249468   0.834   6.340   5.483
15877SOL     OW49469   4.589   8.062   5.028
15877SOL    HW149470   4.541   8.132   5.071
15877SOL    HW249471   4.661   8.041   5.088
15878SOL     OW49472   8.347  11.583   5.955
15878SOL    HW149473   8.354  11.643   6.030
15878SOL    HW249474   8.364  11.497   5.992
15879SOL     OW49475   0.716   0.794   3.577
15879SOL    HW149476   0.780   0.768   3.644
15879SOL    HW249477   0.762   0.860   3.525
15880SOL     OW49478  13.672   6.431  12.107
15880SOL    HW149479  13.610   6.496  12.073
15880SOL    HW249480  13.625   6.387  12.177
15881SOL     OW49481   9.797   6.026   5.125
15881SOL    HW149482   9.765   5.949   5.079
15881SOL    HW249483   9.749   6.099   5.087
15882SOL     OW49484   7.091   9.959   6.311
15882SOL    HW149485   7.069  10.044   6.349
15882SOL    HW249486   7.125   9.908   6.384
15883SOL     OW49487   9.916  11.576   3.810
15883SOL    HW149488   9.960  11.552   3.892
15883SOL    HW249489   9.974  11.544   3.741
15884SOL     OW49490   5.968  10.385   3.620
15884SOL    HW149491   5.959  10.309   3.677
15884SOL    HW249492   6.039  10.361   3.559
15885SOL     OW49493   3.497   8.521   5.732
15885SOL    HW149494   3.571   8.578   5.709
15885SOL    HW249495   3.516   8.490   5.820
15886SOL     OW49496   6.941   0.298   3.705
15886SOL    HW149497   6.869   0.358   3.725
15886SOL    HW249498   6.977   0.331   3.622
15887SOL     OW49499  12.557   3.826  13.339
15887SOL    HW149500  12.600   3.909  13.320
15887SOL    HW249501  12.618   3.780  13.397
15888SOL     OW49502   4.780   4.185   5.963
15888SOL    HW149503   4.699   4.170   6.012
15888SOL    HW249504   4.775   4.278   5.938
15889SOL     OW49505   6.606   6.504  11.839
15889SOL    HW149506   6.537   6.570  11.831
15889SOL    HW249507   6.679   6.540  11.789
15890SOL     OW49508  14.010   4.084   1.930
15890SOL    HW149509  14.010   4.038   2.014
15890SOL    HW249510  13.948   4.035   1.876
15891SOL     OW49511   8.749   6.201   8.356
15891SOL    HW149512   8.720   6.110   8.349
15891SOL    HW249513   8.696   6.237   8.427
15892SOL     OW49514   6.426  10.493   9.569
15892SOL    HW149515   6.421  10.401   9.594
15892SOL    HW249516   6.519  10.515   9.578
15893SOL     OW49517   8.834   2.269   6.337
15893SOL    HW149518   8.760   2.217   6.307
15893SOL    HW249519   8.842   2.247   6.430
15894SOL     OW49520  11.014  13.214   7.385
15894SOL    HW149521  11.042  13.199   7.475
15894SOL    HW249522  11.024  13.308   7.372
15895SOL     OW49523   8.650   1.958   4.114
15895SOL    HW149524   8.649   2.018   4.040
15895SOL    HW249525   8.673   1.873   4.076
15896SOL     OW49526   7.837   0.449  12.423
15896SOL    HW149527   7.903   0.508  12.459
15896SOL    HW249528   7.824   0.478  12.333
15897SOL     OW49529  12.527  10.134   5.445
15897SOL    HW149530  12.525  10.039   5.431
15897SOL    HW249531  12.491  10.145   5.533
15898SOL     OW49532   0.083   3.766   1.340
15898SOL    HW149533   0.139   3.828   1.386
15898SOL    HW249534   0.069   3.695   1.403
15899SOL     OW49535   4.312   6.527  10.900
15899SOL    HW149536   4.327   6.610  10.945
15899SOL    HW249537   4.216   6.518  10.896
15900SOL     OW49538   5.561  10.163  12.127
15900SOL    HW149539   5.586  10.253  12.145
15900SOL    HW249540   5.466  10.163  12.127
15901SOL     OW49541   3.352  13.204   8.255
15901SOL    HW149542   3.281  13.151   8.290
15901SOL    HW249543   3.356  13.280   8.313
15902SOL     OW49544   0.052   6.964  12.112
15902SOL    HW149545  14.846   6.966  12.071
15902SOL    HW249546   0.049   7.036  12.175
15903SOL     OW49547   6.980   4.612   9.856
15903SOL    HW149548   6.990   4.567   9.772
15903SOL    HW249549   7.013   4.550   9.921
15904SOL     OW49550  12.550  13.397   3.781
15904SOL    HW149551  12.570  13.489   3.798
15904SOL    HW249552  12.617  13.368   3.719
15905SOL     OW49553   0.916  14.349   1.130
15905SOL    HW149554   0.979  14.354   1.202
15905SOL    HW249555   0.967  14.316   1.056
15906SOL     OW49556   7.008   6.876   2.021
15906SOL    HW149557   6.935   6.858   1.963
15906SOL    HW249558   7.086   6.865   1.967
15907SOL     OW49559   2.819   3.887   5.942
15907SOL    HW149560   2.880   3.844   6.002
15907SOL    HW249561   2.743   3.829   5.939
15908SOL     OW49562   0.329   0.138  12.155
15908SOL    HW149563   0.331   0.051  12.115
15908SOL    HW249564   0.279   0.126  12.236
15909SOL     OW49565   1.840  11.673   3.787
15909SOL    HW149566   1.906  11.643   3.725
15909SOL    HW249567   1.778  11.722   3.734
15910SOL     OW49568   8.562   5.229   2.977
15910SOL    HW149569   8.604   5.177   3.046
15910SOL    HW249570   8.634   5.261   2.924
15911SOL     OW49571   4.146  10.753  11.540
15911SOL    HW149572   4.208  10.743  11.613
15911SOL    HW249573   4.067  10.707  11.570
15912SOL     OW49574   9.837  10.323   3.364
15912SOL    HW149575   9.843  10.354   3.454
15912SOL    HW249576   9.912  10.264   3.354
15913SOL     OW49577   4.232   9.041  11.463
15913SOL    HW149578   4.207   9.041  11.370
15913SOL    HW249579   4.151   9.021  11.509
15914SOL     OW49580   8.470  11.356  11.609
15914SOL    HW149581   8.390  11.343  11.557
15914SOL    HW249582   8.500  11.268  11.631
15915SOL     OW49583  13.028   8.626  14.020
15915SOL    HW149584  12.982   8.658  13.942
15915SOL    HW249585  12.959   8.583  14.071
15916SOL     OW49586   8.813  14.221  13.980
15916SOL    HW149587   8.851  14.186  13.899
15916SOL    HW249588   8.804  14.315  13.963
15917SOL     OW49589  13.612  13.877   0.609
15917SOL    HW149590  13.533  13.925   0.635
15917SOL    HW249591  13.659  13.937   0.551
15918SOL     OW49592   6.128   3.566   3.340
15918SOL    HW149593   6.189   3.541   3.270
15918SOL    HW249594   6.047   3.520   3.319
15919SOL     OW49595  11.481  14.667   6.428
15919SOL    HW149596  11.398  14.695   6.389
15919SOL    HW249597  11.541  14.740   6.413
15920SOL     OW49598   0.537  13.559   4.108
15920SOL    HW149599   0.529  13.491   4.041
15920SOL    HW249600   0.624  13.596   4.093
15921SOL     OW49601  13.923   4.239  14.406
15921SOL    HW149602  13.922   4.151  14.443
15921SOL    HW249603  13.917   4.298  14.482
15922SOL     OW49604   2.372   4.657   5.088
15922SOL    HW149605   2.378   4.563   5.100
15922SOL    HW249606   2.278   4.675   5.090
15923SOL     OW49607   0.485   8.002   7.785
15923SOL    HW149608   0.489   8.062   7.859
15923SOL    HW249609   0.575   7.996   7.754
15924SOL     OW49610   7.750  13.317   5.928
15924SOL    HW149611   7.812  13.385   5.899
15924SOL    HW249612   7.730  13.268   5.849
15925SOL     OW49613   0.356  12.629   2.983
15925SOL    HW149614   0.370  12.537   3.004
15925SOL    HW249615   0.261  12.639   2.980
15926SOL     OW49616   3.720   9.469  10.194
15926SOL    HW149617   3.672   9.491  10.115
15926SOL    HW249618   3.668   9.401  10.237
15927SOL     OW49619   6.445   7.779  11.410
15927SOL    HW149620   6.393   7.847  11.367
15927SOL    HW249621   6.460   7.813  11.498
15928SOL     OW49622   5.066  13.357   4.603
15928SOL    HW149623   5.061  13.295   4.531
15928SOL    HW249624   5.036  13.440   4.566
15929SOL     OW49625   1.848   1.302   8.571
15929SOL    HW149626   1.813   1.358   8.503
15929SOL    HW249627   1.862   1.217   8.528
15930SOL     OW49628  14.710   2.311  13.186
15930SOL    HW149629  14.706   2.289  13.093
15930SOL    HW249630  14.792   2.360  13.196
15931SOL     OW49631   1.528   0.769   7.792
15931SOL    HW149632   1.441   0.732   7.789
15931SOL    HW249633   1.578   0.719   7.728
15932SOL     OW49634   3.480   7.663   9.006
15932SOL    HW149635   3.508   7.755   9.005
15932SOL    HW249636   3.387   7.666   8.984
15933SOL     OW49637   4.538   2.149   4.293
15933SOL    HW149638   4.535   2.243   4.273
15933SOL    HW249639   4.603   2.114   4.233
15934SOL     OW49640   0.428  13.540   7.277
15934SOL    HW149641   0.338  13.529   7.245
15934SOL    HW249642   0.468  13.454   7.264
15935SOL     OW49643  12.108  10.998  11.343
15935SOL    HW149644  12.124  10.920  11.397
15935SOL    HW249645  12.013  11.000  11.333
15936SOL     OW49646  12.385  12.840  13.358
15936SOL    HW149647  12.455  12.905  13.359
15936SOL    HW249648  12.417  12.771  13.300
15937SOL     OW49649  10.270  12.991   1.375
15937SOL    HW149650  10.244  13.064   1.432
15937SOL    HW249651  10.308  13.034   1.298
15938SOL     OW49652   8.380  11.934  12.788
15938SOL    HW149653   8.350  11.983  12.711
15938SOL    HW249654   8.398  11.846  12.755
15939SOL     OW49655  12.082   9.120   0.478
15939SOL    HW149656  12.113   9.060   0.411
15939SOL    HW249657  11.987   9.106   0.481
15940SOL     OW49658   5.202   2.180   3.859
15940SOL    HW149659   5.239   2.142   3.938
15940SOL    HW249660   5.239   2.269   3.856
15941SOL     OW49661   4.948  14.712   6.028
15941SOL    HW149662   5.041  14.706   6.049
15941SOL    HW249663   4.929  14.805   6.030
15942SOL     OW49664  12.402  12.222   6.381
15942SOL    HW149665  12.456  12.158   6.334
15942SOL    HW249666  12.408  12.302   6.329
15943SOL     OW49667  13.111   1.602  10.564
15943SOL    HW149668  13.162   1.622  10.486
15943SOL    HW249669  13.152   1.523  10.600
15944SOL     OW49670   3.520   5.016   7.506
15944SOL    HW149671   3.571   5.039   7.584
15944SOL    HW249672   3.430   5.010   7.538
15945SOL     OW49673   7.417  14.018   5.194
15945SOL    HW149674   7.456  14.096   5.233
15945SOL    HW249675   7.336  14.004   5.242
15946SOL     OW49676   0.251   3.350   1.441
15946SOL    HW149677   0.335   3.372   1.403
15946SOL    HW249678   0.217   3.280   1.386
15947SOL     OW49679   2.461  10.426   6.244
15947SOL    HW149680   2.452  10.407   6.337
15947SOL    HW249681   2.371  10.442   6.214
15948SOL     OW49682  13.914   1.579   4.717
15948SOL    HW149683  13.909   1.550   4.627
15948SOL    HW249684  13.976   1.520   4.759
15949SOL     OW49685   0.164   5.674   7.938
15949SOL    HW149686   0.254   5.705   7.934
15949SOL    HW249687   0.137   5.690   8.029
15950SOL     OW49688   4.306   9.443   8.633
15950SOL    HW149689   4.321   9.349   8.639
15950SOL    HW249690   4.246   9.452   8.558
15951SOL     OW49691  13.426   4.167   1.297
15951SOL    HW149692  13.436   4.106   1.370
15951SOL    HW249693  13.444   4.253   1.334
15952SOL     OW49694   7.562   4.108   0.614
15952SOL    HW149695   7.534   4.079   0.528
15952SOL    HW249696   7.508   4.058   0.676
15953SOL     OW49697   3.238  11.123  10.732
15953SOL    HW149698   3.291  11.187  10.780
15953SOL    HW249699   3.302  11.069  10.686
15954SOL     OW49700   9.817  11.530  13.470
15954SOL    HW149701   9.869  11.488  13.539
15954SOL    HW249702   9.800  11.459  13.408
15955SOL     OW49703   0.839   5.039   5.322
15955SOL    HW149704   0.839   5.132   5.345
15955SOL    HW249705   0.748   5.018   5.301
15956SOL     OW49706   4.556   5.111  12.979
15956SOL    HW149707   4.556   5.160  13.061
15956SOL    HW249708   4.648   5.092  12.962
15957SOL     OW49709  12.298   7.389   0.022
15957SOL    HW149710  12.337   7.473  14.878
15957SOL    HW249711  12.212   7.411   0.056
15958SOL     OW49712   4.760  14.157   6.003
15958SOL    HW149713   4.836  14.194   5.959
15958SOL    HW249714   4.761  14.196   6.090
15959SOL     OW49715   3.916   8.970  10.978
15959SOL    HW149716   3.936   8.954  10.886
15959SOL    HW249717   4.000   8.990  11.019
15960SOL     OW49718  13.274  12.470   4.218
15960SOL    HW149719  13.294  12.494   4.308
15960SOL    HW249720  13.180  12.488   4.209
15961SOL     OW49721   3.659   7.314  14.878
15961SOL    HW149722   3.714   7.373   0.050
15961SOL    HW249723   3.661   7.351  14.790
15962SOL     OW49724   2.748   0.836   6.408
15962SOL    HW149725   2.689   0.881   6.468
15962SOL    HW249726   2.804   0.905   6.372
15963SOL     OW49727  13.275  14.054  14.078
15963SOL    HW149728  13.192  14.035  14.035
15963SOL    HW249729  13.252  14.110  14.152
15964SOL     OW49730  11.985   7.422   7.512
15964SOL    HW149731  11.900   7.394   7.546
15964SOL    HW249732  12.049   7.367   7.556
15965SOL     OW49733  13.851   6.037  11.025
15965SOL    HW149734  13.882   5.991  10.947
15965SOL    HW249735  13.794   5.974  11.069
15966SOL     OW49736   0.512   6.816   9.845
15966SOL    HW149737   0.576   6.836   9.913
15966SOL    HW249738   0.435   6.869   9.868
15967SOL     OW49739   2.250   6.537   1.859
15967SOL    HW149740   2.334   6.583   1.864
15967SOL    HW249741   2.273   6.444   1.869
15968SOL     OW49742  12.345   8.557   9.097
15968SOL    HW149743  12.272   8.533   9.040
15968SOL    HW249744  12.358   8.650   9.082
15969SOL     OW49745   4.456   0.129   6.973
15969SOL    HW149746   4.382   0.069   6.971
15969SOL    HW249747   4.482   0.133   7.066
15970SOL     OW49748  12.966   3.033  11.532
15970SOL    HW149749  12.974   3.077  11.447
15970SOL    HW249750  12.907   3.089  11.583
15971SOL     OW49751  13.159  14.489   1.959
15971SOL    HW149752  13.096  14.541   2.009
15971SOL    HW249753  13.216  14.554   1.918
15972SOL     OW49754   1.534   5.320   8.854
15972SOL    HW149755   1.481   5.292   8.779
15972SOL    HW249756   1.514   5.413   8.864
15973SOL     OW49757   8.918  13.637   3.137
15973SOL    HW149758   8.990  13.660   3.078
15973SOL    HW249759   8.960  13.596   3.212
15974SOL     OW49760  10.350   0.422   2.070
15974SOL    HW149761  10.396   0.495   2.030
15974SOL    HW249762  10.299   0.383   1.998
15975SOL     OW49763  14.019   5.363   9.769
15975SOL    HW149764  13.991   5.289   9.822
15975SOL    HW249765  13.997   5.440   9.822
15976SOL     OW49766   2.652   9.971  11.136
15976SOL    HW149767   2.556   9.973  11.137
15976SOL    HW249768   2.674   9.901  11.073
15977SOL     OW49769   5.629   8.323   1.796
15977SOL    HW149770   5.638   8.276   1.714
15977SOL    HW249771   5.557   8.384   1.781
15978SOL     OW49772  14.778   7.927   7.046
15978SOL    HW149773  14.701   7.874   7.066
15978SOL    HW249774  14.817   7.945   7.131
15979SOL     OW49775   0.956  10.012   7.828
15979SOL    HW149776   1.014  10.072   7.779
15979SOL    HW249777   0.948   9.936   7.771
15980SOL     OW49778   0.599   9.669  13.174
15980SOL    HW149779   0.573   9.610  13.104
15980SOL    HW249780   0.687   9.699  13.149
15981SOL     OW49781   9.970   5.064  11.826
15981SOL    HW149782   9.985   5.123  11.752
15981SOL    HW249783   9.897   5.010  11.799
15982SOL     OW49784   5.685   5.054   4.991
15982SOL    HW149785   5.692   5.115   5.064
15982SOL    HW249786   5.735   4.977   5.019
15983SOL     OW49787  10.472   9.989  14.449
15983SOL    HW149788  10.524  10.050  14.398
15983SOL    HW249789  10.492  10.011  14.540
15984SOL     OW49790  11.619   9.156   9.093
15984SOL    HW149791  11.542   9.191   9.137
15984SOL    HW249792  11.636   9.217   9.022
15985SOL     OW49793  14.698  14.156  12.688
15985SOL    HW149794  14.695  14.091  12.758
15985SOL    HW249795  14.611  14.197  12.689
15986SOL     OW49796   9.004   2.752  14.485
15986SOL    HW149797   9.089   2.707  14.492
15986SOL    HW249798   8.940   2.682  14.484
15987SOL     OW49799  13.263   0.994   1.241
15987SOL    HW149800  13.294   0.965   1.327
15987SOL    HW249801  13.341   0.993   1.186
15988SOL     OW49802   0.596   5.391   4.049
15988SOL    HW149803   0.672   5.369   3.996
15988SOL    HW249804   0.615   5.353   4.135
15989SOL     OW49805   6.134   6.096  11.054
15989SOL    HW149806   6.200   6.078  11.121
15989SOL    HW249807   6.050   6.079  11.098
15990SOL     OW49808  14.439  12.784   7.032
15990SOL    HW149809  14.353  12.746   7.049
15990SOL    HW249810  14.487  12.717   6.983
15991SOL     OW49811   3.816   5.503   7.620
15991SOL    HW149812   3.772   5.551   7.689
15991SOL    HW249813   3.893   5.464   7.662
15992SOL     OW49814   0.246   3.751   8.979
15992SOL    HW149815   0.239   3.833   8.931
15992SOL    HW249816   0.168   3.749   9.035
15993SOL     OW49817  13.065   4.071   2.661
15993SOL    HW149818  13.075   3.996   2.720
15993SOL    HW249819  13.110   4.045   2.581
15994SOL     OW49820   6.750   7.007   4.602
15994SOL    HW149821   6.673   7.063   4.604
15994SOL    HW249822   6.823   7.067   4.588
15995SOL     OW49823  11.168   8.198  12.025
15995SOL    HW149824  11.230   8.126  12.012
15995SOL    HW249825  11.104   8.163  12.087
15996SOL     OW49826   2.475   1.630  12.404
15996SOL    HW149827   2.396   1.636  12.352
15996SOL    HW249828   2.500   1.537  12.400
15997SOL     OW49829  12.107   4.287  13.532
15997SOL    HW149830  12.110   4.324  13.444
15997SOL    HW249831  12.147   4.354  13.588
15998SOL     OW49832   5.374   8.420  14.491
15998SOL    HW149833   5.324   8.482  14.438
15998SOL    HW249834   5.464   8.450  14.483
15999SOL     OW49835   0.558  13.063   4.506
15999SOL    HW149836   0.503  13.103   4.438
15999SOL    HW249837   0.499  13.003   4.551
16000SOL     OW49838   3.502   9.731  10.922
16000SOL    HW149839   3.505   9.813  10.872
16000SOL    HW249840   3.573   9.678  10.885
16001SOL     OW49841   1.116  10.421   2.494
16001SOL    HW149842   1.168  10.395   2.570
16001SOL    HW249843   1.176  10.474   2.441
16002SOL     OW49844   5.641   6.771  11.838
16002SOL    HW149845   5.632   6.700  11.901
16002SOL    HW249846   5.611   6.734  11.755
16003SOL     OW49847  12.722  12.714   7.443
16003SOL    HW149848  12.704  12.625   7.414
16003SOL    HW249849  12.687  12.719   7.532
16004SOL     OW49850   0.401   8.888  13.048
16004SOL    HW149851   0.444   8.909  13.131
16004SOL    HW249852   0.471   8.886  12.984
16005SOL     OW49853   1.743   0.636   7.050
16005SOL    HW149854   1.746   0.730   7.031
16005SOL    HW249855   1.813   0.622   7.113
16006SOL     OW49856  11.869  11.164   4.300
16006SOL    HW149857  11.852  11.206   4.216
16006SOL    HW249858  11.785  11.128   4.327
16007SOL     OW49859   7.010   0.104   4.824
16007SOL    HW149860   7.022   0.199   4.822
16007SOL    HW249861   6.939   0.087   4.761
16008SOL     OW49862   0.093  14.104  11.179
16008SOL    HW149863   0.122  14.136  11.265
16008SOL    HW249864  14.877  14.096  11.188
16009SOL     OW49865   0.255   8.698   3.255
16009SOL    HW149866   0.169   8.656   3.265
16009SOL    HW249867   0.236   8.784   3.217
16010SOL     OW49868  13.682  12.928   6.280
16010SOL    HW149869  13.654  12.837   6.269
16010SOL    HW249870  13.752  12.940   6.216
16011SOL     OW49871  10.426   0.470   5.392
16011SOL    HW149872  10.492   0.435   5.452
16011SOL    HW249873  10.343   0.459   5.438
16012SOL     OW49874   6.741   1.438   9.047
16012SOL    HW149875   6.821   1.402   9.008
16012SOL    HW249876   6.684   1.454   8.972
16013SOL     OW49877   0.461  10.409   2.594
16013SOL    HW149878   0.446  10.493   2.550
16013SOL    HW249879   0.552  10.413   2.623
16014SOL     OW49880   5.945   0.573   5.492
16014SOL    HW149881   5.964   0.661   5.461
16014SOL    HW249882   5.878   0.584   5.559
16015SOL     OW49883   4.341  10.896   8.037
16015SOL    HW149884   4.307  10.821   7.988
16015SOL    HW249885   4.435  10.877   8.048
16016SOL     OW49886  14.754   2.934  13.537
16016SOL    HW149887  14.718   2.937  13.448
16016SOL    HW249888  14.703   2.865  13.581
16017SOL     OW49889   0.639  13.424  10.351
16017SOL    HW149890   0.690  13.438  10.431
16017SOL    HW249891   0.591  13.342  10.366
16018SOL     OW49892   6.581   0.082   1.083
16018SOL    HW149893   6.507   0.021   1.086
16018SOL    HW249894   6.540   0.169   1.086
16019SOL     OW49895   1.285   6.722  11.576
16019SOL    HW149896   1.330   6.670  11.642
16019SOL    HW249897   1.256   6.658  11.510
16020SOL     OW49898   4.468  12.193  12.025
16020SOL    HW149899   4.504  12.106  12.040
16020SOL    HW249900   4.436  12.222  12.110
16021SOL     OW49901   5.244   4.949   1.844
16021SOL    HW149902   5.181   5.006   1.800
16021SOL    HW249903   5.317   5.007   1.866
16022SOL     OW49904   2.530   9.971   5.853
16022SOL    HW149905   2.619   9.995   5.830
16022SOL    HW249906   2.522   9.994   5.946
16023SOL     OW49907  11.743   5.185   1.832
16023SOL    HW149908  11.699   5.124   1.772
16023SOL    HW249909  11.800   5.237   1.776
16024SOL     OW49910  10.400   8.876   8.322
16024SOL    HW149911  10.434   8.848   8.237
16024SOL    HW249912  10.311   8.841   8.325
16025SOL     OW49913  10.428   9.368   5.513
16025SOL    HW149914  10.372   9.394   5.586
16025SOL    HW249915  10.430   9.444   5.455
16026SOL     OW49916  10.791  11.118  11.319
16026SOL    HW149917  10.833  11.152  11.399
16026SOL    HW249918  10.704  11.092  11.348
16027SOL     OW49919  13.534   6.021   0.103
16027SOL    HW149920  13.576   5.997   0.020
16027SOL    HW249921  13.596   5.992   0.170
16028SOL     OW49922  10.858   2.022   1.404
16028SOL    HW149923  10.784   2.068   1.364
16028SOL    HW249924  10.934   2.050   1.353
16029SOL     OW49925   7.787   1.481   3.442
16029SOL    HW149926   7.787   1.575   3.424
16029SOL    HW249927   7.872   1.464   3.482
16030SOL     OW49928   1.779  13.014   7.114
16030SOL    HW149929   1.720  13.034   7.041
16030SOL    HW249930   1.721  13.003   7.189
16031SOL     OW49931   8.158  14.612   1.788
16031SOL    HW149932   8.170  14.613   1.693
16031SOL    HW249933   8.084  14.671   1.803
16032SOL     OW49934  12.765   3.515  11.814
16032SOL    HW149935  12.787   3.521  11.907
16032SOL    HW249936  12.844   3.544  11.768
16033SOL     OW49937   7.628   3.451  12.793
16033SOL    HW149938   7.653   3.439  12.884
16033SOL    HW249939   7.676   3.383  12.746
16034SOL     OW49940  10.794  14.196   9.978
16034SOL    HW149941  10.828  14.107   9.972
16034SOL    HW249942  10.813  14.235   9.893
16035SOL     OW49943   8.021   8.909   1.679
16035SOL    HW149944   7.974   8.829   1.701
16035SOL    HW249945   8.106   8.878   1.646
16036SOL     OW49946  13.727   6.157  12.393
16036SOL    HW149947  13.757   6.226  12.452
16036SOL    HW249948  13.651   6.195  12.349
16037SOL     OW49949   0.065  13.394   0.764
16037SOL    HW149950   0.121  13.410   0.689
16037SOL    HW249951   0.039  13.481   0.794
16038SOL     OW49952  11.817   8.155   7.075
16038SOL    HW149953  11.833   8.070   7.116
16038SOL    HW249954  11.819   8.137   6.981
16039SOL     OW49955   6.482   2.745   9.150
16039SOL    HW149956   6.493   2.655   9.182
16039SOL    HW249957   6.559   2.762   9.097
16040SOL     OW49958  10.246   3.006   1.891
16040SOL    HW149959  10.286   3.078   1.940
16040SOL    HW249960  10.319   2.947   1.872
16041SOL     OW49961  12.774  10.983   6.082
16041SOL    HW149962  12.686  10.988   6.119
16041SOL    HW249963  12.805  11.073   6.080
16042SOL     OW49964  13.467  13.880  10.075
16042SOL    HW149965  13.424  13.940  10.135
16042SOL    HW249966  13.561  13.893  10.091
16043SOL     OW49967   2.415   1.317   4.211
16043SOL    HW149968   2.478   1.387   4.191
16043SOL    HW249969   2.470   1.240   4.229
16044SOL     OW49970   6.861   0.384  14.324
16044SOL    HW149971   6.933   0.352  14.269
16044SOL    HW249972   6.899   0.454  14.376
16045SOL     OW49973  14.155  12.293   6.798
16045SOL    HW149974  14.234  12.346   6.806
16045SOL    HW249975  14.084  12.353   6.819
16046SOL     OW49976  10.974   0.562  13.018
16046SOL    HW149977  10.963   0.656  13.007
16046SOL    HW249978  11.065   0.546  12.993
16047SOL     OW49979   2.535   1.614   0.046
16047SOL    HW149980   2.448   1.646   0.071
16047SOL    HW249981   2.560   1.555   0.117
16048SOL     OW49982   0.045   0.645   1.949
16048SOL    HW149983   0.141   0.650   1.953
16048SOL    HW249984   0.016   0.736   1.951
16049SOL     OW49985   8.714   7.361   6.970
16049SOL    HW149986   8.638   7.371   7.028
16049SOL    HW249987   8.678   7.321   6.891
16050SOL     OW49988  14.705   5.423   5.516
16050SOL    HW149989  14.673   5.512   5.528
16050SOL    HW249990  14.731   5.418   5.424
16051SOL     OW49991  12.985  11.154   0.283
16051SOL    HW149992  12.978  11.131   0.190
16051SOL    HW249993  12.918  11.220   0.296
16052SOL     OW49994   4.250   6.072  11.719
16052SOL    HW149995   4.201   6.012  11.664
16052SOL    HW249996   4.195   6.085  11.796
16053SOL     OW49997  11.364   7.052  10.235
16053SOL    HW149998  11.318   7.025  10.155
16053SOL    HW249999  11.335   6.988  10.301
16054SOL     OW50000  13.944  11.049   7.938
16054SOL    HW150001  13.915  11.055   8.029
16054SOL    HW250002  14.029  11.007   7.943
16055SOL     OW50003  12.639   6.235  11.177
16055SOL    HW150004  12.554   6.265  11.148
16055SOL    HW250005  12.699   6.258  11.106
16056SOL     OW50006   6.449   2.466   4.646
16056SOL    HW150007   6.520   2.403   4.659
16056SOL    HW250008   6.422   2.490   4.734
16057SOL     OW50009   9.803  11.263   2.551
16057SOL    HW150010   9.759  11.186   2.586
16057SOL    HW250011   9.880  11.228   2.506
16058SOL     OW50012   6.642  13.694  10.502
16058SOL    HW150013   6.622  13.611  10.546
16058SOL    HW250014   6.629  13.761  10.570
16059SOL     OW50015   4.136   6.955   4.327
16059SOL    HW150016   4.168   6.984   4.242
16059SOL    HW250017   4.213   6.958   4.384
16060SOL     OW50018   1.033   2.563   2.185
16060SOL    HW150019   0.954   2.615   2.200
16060SOL    HW250020   1.069   2.549   2.273
16061SOL     OW50021   5.204  14.228   7.845
16061SOL    HW150022   5.149  14.188   7.778
16061SOL    HW250023   5.286  14.248   7.800
16062SOL     OW50024   7.284  13.902   6.341
16062SOL    HW150025   7.380  13.904   6.332
16062SOL    HW250026   7.268  13.922   6.434
16063SOL     OW50027   5.132   2.456  10.960
16063SOL    HW150028   5.147   2.423  11.049
16063SOL    HW250029   5.037   2.458  10.951
16064SOL     OW50030  11.239   5.101   4.331
16064SOL    HW150031  11.194   5.022   4.300
16064SOL    HW250032  11.311   5.068   4.385
16065SOL     OW50033   4.685   5.168   6.982
16065SOL    HW150034   4.693   5.234   7.050
16065SOL    HW250035   4.679   5.085   7.030
16066SOL     OW50036  14.161  13.963   9.241
16066SOL    HW150037  14.125  13.897   9.182
16066SOL    HW250038  14.215  14.018   9.184
16067SOL     OW50039   3.296  12.201   5.744
16067SOL    HW150040   3.309  12.109   5.770
16067SOL    HW250041   3.365  12.248   5.789
16068SOL     OW50042   8.469   2.060  12.041
16068SOL    HW150043   8.544   2.049  12.100
16068SOL    HW250044   8.392   2.049  12.098
16069SOL     OW50045  14.583   7.176   5.996
16069SOL    HW150046  14.557   7.135   5.913
16069SOL    HW250047  14.563   7.110   6.062
16070SOL     OW50048  10.634   3.214  11.564
16070SOL    HW150049  10.564   3.262  11.609
16070SOL    HW250050  10.610   3.219  11.472
16071SOL     OW50051   0.203  13.458   4.488
16071SOL    HW150052   0.204  13.457   4.392
16071SOL    HW250053   0.287  13.420   4.513
16072SOL     OW50054   1.060   3.040  13.012
16072SOL    HW150055   1.054   3.095  12.935
16072SOL    HW250056   1.021   2.956  12.986
16073SOL     OW50057  12.828   5.475  11.923
16073SOL    HW150058  12.801   5.409  11.858
16073SOL    HW250059  12.923   5.468  11.926
16074SOL     OW50060   1.353   0.601   1.060
16074SOL    HW150061   1.280   0.587   1.119
16074SOL    HW250062   1.401   0.518   1.061
16075SOL     OW50063   0.611  11.204   2.061
16075SOL    HW150064   0.592  11.267   1.991
16075SOL    HW250065   0.558  11.128   2.038
16076SOL     OW50066   5.915   4.633  12.184
16076SOL    HW150067   5.839   4.673  12.226
16076SOL    HW250068   5.988   4.690  12.209
16077SOL     OW50069   5.721   6.067  11.388
16077SOL    HW150070   5.667   6.036  11.461
16077SOL    HW250071   5.662   6.064  11.312
16078SOL     OW50072   9.755   5.755   1.090
16078SOL    HW150073   9.818   5.683   1.081
16078SOL    HW250074   9.758   5.778   1.183
16079SOL     OW50075  11.779   6.862   2.898
16079SOL    HW150076  11.785   6.771   2.869
16079SOL    HW250077  11.698   6.865   2.949
16080SOL     OW50078  12.354  14.076   9.132
16080SOL    HW150079  12.263  14.048   9.142
16080SOL    HW250080  12.398  14.043   9.210
16081SOL     OW50081   0.059   4.530  14.227
16081SOL    HW150082   0.036   4.450  14.275
16081SOL    HW250083  14.877   4.595  14.259
16082SOL     OW50084   7.628  13.691  14.837
16082SOL    HW150085   7.651  13.727  14.751
16082SOL    HW250086   7.534  13.706  14.846
16083SOL     OW50087   5.126   1.628   0.095
16083SOL    HW150088   5.096   1.692   0.030
16083SOL    HW250089   5.157   1.554   0.044
16084SOL     OW50090  10.156  13.427   8.276
16084SOL    HW150091  10.206  13.356   8.236
16084SOL    HW250092  10.192  13.507   8.239
16085SOL     OW50093   3.895  10.091   6.885
16085SOL    HW150094   3.862  10.003   6.869
16085SOL    HW250095   3.926  10.089   6.976
16086SOL     OW50096   1.409   0.022   0.668
16086SOL    HW150097   1.390   0.036   0.761
16086SOL    HW250098   1.334   0.062   0.623
16087SOL     OW50099   9.939   0.602   3.483
16087SOL    HW150100   9.847   0.584   3.500
16087SOL    HW250101   9.948   0.697   3.495
16088SOL     OW50102   6.594   4.173  11.544
16088SOL    HW150103   6.631   4.207  11.462
16088SOL    HW250104   6.625   4.235  11.611
16089SOL     OW50105  14.538   7.379  13.049
16089SOL    HW150106  14.577   7.358  12.964
16089SOL    HW250107  14.553   7.300  13.102
16090SOL     OW50108   4.338   2.117   6.013
16090SOL    HW150109   4.326   2.053   6.083
16090SOL    HW250110   4.272   2.093   5.948
16091SOL     OW50111   3.264   2.638  12.570
16091SOL    HW150112   3.188   2.653  12.626
16091SOL    HW250113   3.243   2.557  12.523
16092SOL     OW50114   6.181   2.599   1.610
16092SOL    HW150115   6.160   2.533   1.675
16092SOL    HW250116   6.274   2.585   1.589
16093SOL     OW50117  13.769  14.729  12.028
16093SOL    HW150118  13.853  14.686  12.016
16093SOL    HW250119  13.771  14.804  11.968
16094SOL     OW50120  14.502  11.983   3.685
16094SOL    HW150121  14.591  12.016   3.694
16094SOL    HW250122  14.510  11.889   3.700
16095SOL     OW50123   4.127   0.391  14.461
16095SOL    HW150124   4.121   0.486  14.448
16095SOL    HW250125   4.138   0.380  14.556
16096SOL     OW50126   7.787   6.005   9.538
16096SOL    HW150127   7.829   6.091   9.538
16096SOL    HW250128   7.795   5.975   9.447
16097SOL     OW50129   5.969  13.925   6.437
16097SOL    HW150130   5.988  13.971   6.519
16097SOL    HW250131   6.009  13.839   6.449
16098SOL     OW50132  10.707   1.689  10.987
16098SOL    HW150133  10.662   1.709  10.905
16098SOL    HW250134  10.791   1.651  10.959
16099SOL     OW50135  13.349  12.325   8.136
16099SOL    HW150136  13.294  12.268   8.190
16099SOL    HW250137  13.330  12.299   8.046
16100SOL     OW50138   9.187   2.897   8.132
16100SOL    HW150139   9.134   2.944   8.196
16100SOL    HW250140   9.147   2.810   8.126
16101SOL     OW50141   3.286   8.551   1.246
16101SOL    HW150142   3.374   8.550   1.284
16101SOL    HW250143   3.228   8.568   1.320
16102SOL     OW50144   2.854   2.573   5.133
16102SOL    HW150145   2.858   2.633   5.208
16102SOL    HW250146   2.945   2.545   5.120
16103SOL     OW50147   4.831  13.037   7.850
16103SOL    HW150148   4.752  12.985   7.863
16103SOL    HW250149   4.809  13.099   7.781
16104SOL     OW50150  14.234   8.843   5.131
16104SOL    HW150151  14.253   8.894   5.210
16104SOL    HW250152  14.299   8.873   5.067
16105SOL     OW50153   3.326  10.613  14.648
16105SOL    HW150154   3.286  10.590  14.732
16105SOL    HW250155   3.389  10.682  14.669
16106SOL     OW50156   1.269   8.977   4.201
16106SOL    HW150157   1.329   8.998   4.273
16106SOL    HW250158   1.201   8.924   4.242
16107SOL     OW50159   0.308   7.550   0.672
16107SOL    HW150160   0.287   7.608   0.598
16107SOL    HW250161   0.377   7.493   0.639
16108SOL     OW50162   3.173  10.941  14.425
16108SOL    HW150163   3.239  11.008  14.444
16108SOL    HW250164   3.225  10.862  14.407
16109SOL     OW50165   6.573  10.919   4.633
16109SOL    HW150166   6.606  10.887   4.717
16109SOL    HW250167   6.653  10.936   4.582
16110SOL     OW50168   7.510   5.674  10.377
16110SOL    HW150169   7.503   5.654  10.284
16110SOL    HW250170   7.595   5.637  10.403
16111SOL     OW50171   3.291   0.707   8.132
16111SOL    HW150172   3.216   0.766   8.141
16111SOL    HW250173   3.303   0.670   8.219
16112SOL     OW50174   5.080   2.149   5.297
16112SOL    HW150175   5.094   2.055   5.285
16112SOL    HW250176   5.114   2.189   5.217
16113SOL     OW50177  14.506  14.683   7.640
16113SOL    HW150178  14.590  14.729   7.633
16113SOL    HW250179  14.440  14.751   7.626
16114SOL     OW50180   0.930   3.263  13.754
16114SOL    HW150181   0.993   3.264  13.826
16114SOL    HW250182   0.845   3.275  13.797
16115SOL     OW50183   4.254  14.178  10.108
16115SOL    HW150184   4.174  14.179  10.054
16115SOL    HW250185   4.253  14.092  10.150
16116SOL     OW50186  14.142   6.216  13.576
16116SOL    HW150187  14.077   6.228  13.507
16116SOL    HW250188  14.217   6.268  13.548
16117SOL     OW50189   2.149   5.677   8.422
16117SOL    HW150190   2.116   5.629   8.346
16117SOL    HW250191   2.159   5.767   8.391
16118SOL     OW50192   8.273  14.588   0.340
16118SOL    HW150193   8.265  14.605   0.246
16118SOL    HW250194   8.215  14.515   0.357
16119SOL     OW50195   8.577  14.865  13.409
16119SOL    HW150196   8.601   0.002  13.500
16119SOL    HW250197   8.608   0.063  13.362
16120SOL     OW50198   7.046   0.962   2.433
16120SOL    HW150199   7.064   1.043   2.384
16120SOL    HW250200   7.033   0.991   2.523
16121SOL     OW50201   6.285  11.739  12.926
16121SOL    HW150202   6.329  11.823  12.910
16121SOL    HW250203   6.202  11.764  12.968
16122SOL     OW50204   2.432  13.867   2.655
16122SOL    HW150205   2.506  13.810   2.674
16122SOL    HW250206   2.357  13.824   2.697
16123SOL     OW50207  12.883   1.553   9.434
16123SOL    HW150208  12.912   1.635   9.474
16123SOL    HW250209  12.788   1.563   9.427
16124SOL     OW50210  13.654   0.934  14.106
16124SOL    HW150211  13.716   0.873  14.064
16124SOL    HW250212  13.666   1.016  14.058
16125SOL     OW50213   1.616   7.384   9.552
16125SOL    HW150214   1.589   7.339   9.631
16125SOL    HW250215   1.610   7.477   9.574
16126SOL     OW50216   5.621   0.941   8.309
16126SOL    HW150217   5.704   0.898   8.332
16126SOL    HW250218   5.628   0.957   8.215
16127SOL     OW50219   9.811   8.093  11.571
16127SOL    HW150220   9.717   8.112  11.564
16127SOL    HW250221   9.853   8.178  11.559
16128SOL     OW50222   1.806   3.922  10.318
16128SOL    HW150223   1.791   4.013  10.341
16128SOL    HW250224   1.783   3.873  10.397
16129SOL     OW50225  11.733  13.545  11.789
16129SOL    HW150226  11.743  13.625  11.840
16129SOL    HW250227  11.785  13.480  11.836
16130SOL     OW50228   8.911  12.512  10.196
16130SOL    HW150229   8.877  12.574  10.131
16130SOL    HW250230   8.896  12.426  10.156
16131SOL     OW50231   7.963   1.809   4.181
16131SOL    HW150232   7.892   1.750   4.206
16131SOL    HW250233   7.990   1.851   4.263
16132SOL     OW50234   0.642   8.579   2.891
16132SOL    HW150235   0.600   8.552   2.810
16132SOL    HW250236   0.576   8.564   2.959
16133SOL     OW50237   7.638   0.256   0.714
16133SOL    HW150238   7.674   0.340   0.686
16133SOL    HW250239   7.706   0.192   0.693
16134SOL     OW50240   3.528   2.576  11.869
16134SOL    HW150241   3.491   2.570  11.958
16134SOL    HW250242   3.517   2.488  11.833
16135SOL     OW50243   2.038   7.502   6.573
16135SOL    HW150244   1.961   7.473   6.524
16135SOL    HW250245   2.002   7.543   6.651
16136SOL     OW50246  14.665  10.751  13.282
16136SOL    HW150247  14.707  10.804  13.349
16136SOL    HW250248  14.601  10.697  13.330
16137SOL     OW50249  10.442   4.753  13.942
16137SOL    HW150250  10.437   4.843  13.910
16137SOL    HW250251  10.534   4.740  13.965
16138SOL     OW50252   2.315  11.244  12.294
16138SOL    HW150253   2.327  11.149  12.303
16138SOL    HW250254   2.403  11.278  12.279
16139SOL     OW50255   4.161   9.914   6.812
16139SOL    HW150256   4.080   9.910   6.762
16139SOL    HW250257   4.230   9.906   6.745
16140SOL     OW50258   8.183  10.266  12.894
16140SOL    HW150259   8.111  10.273  12.957
16140SOL    HW250260   8.169  10.181  12.851
16141SOL     OW50261  12.239   7.853   2.725
16141SOL    HW150262  12.312   7.791   2.725
16141SOL    HW250263  12.192   7.835   2.806
16142SOL     OW50264   3.261   2.767  11.868
16142SOL    HW150265   3.179   2.815  11.884
16142SOL    HW250266   3.245   2.717  11.788
16143SOL     OW50267   7.444   6.170   4.711
16143SOL    HW150268   7.492   6.239   4.757
16143SOL    HW250269   7.513   6.118   4.669
16144SOL     OW50270   4.561   8.314   1.847
16144SOL    HW150271   4.570   8.346   1.758
16144SOL    HW250272   4.473   8.342   1.874
16145SOL     OW50273  11.844   2.066   4.685
16145SOL    HW150274  11.820   2.030   4.770
16145SOL    HW250275  11.912   2.131   4.705
16146SOL     OW50276   3.739  10.247  11.073
16146SOL    HW150277   3.675  10.200  11.019
16146SOL    HW250278   3.824  10.214  11.042
16147SOL     OW50279   6.968   5.385   0.930
16147SOL    HW150280   7.000   5.385   0.840
16147SOL    HW250281   6.980   5.476   0.959
16148SOL     OW50282   0.361  14.666   2.819
16148SOL    HW150283   0.275  14.646   2.855
16148SOL    HW250284   0.407  14.710   2.891
16149SOL     OW50285  10.780   2.922   9.956
16149SOL    HW150286  10.742   2.986  10.017
16149SOL    HW250287  10.742   2.838   9.983
16150SOL     OW50288   5.334   7.575   5.727
16150SOL    HW150289   5.334   7.633   5.651
16150SOL    HW250290   5.276   7.617   5.790
16151SOL     OW50291  11.713   2.301   9.984
16151SOL    HW150292  11.708   2.393  10.012
16151SOL    HW250293  11.679   2.252  10.059
16152SOL     OW50294  11.335   1.879   6.369
16152SOL    HW150295  11.320   1.973   6.382
16152SOL    HW250296  11.252   1.838   6.394
16153SOL     OW50297   1.112   8.625  14.504
16153SOL    HW150298   1.102   8.626  14.600
16153SOL    HW250299   1.041   8.681  14.473
16154SOL     OW50300  12.808   8.060   7.920
16154SOL    HW150301  12.785   7.974   7.884
16154SOL    HW250302  12.727   8.110   7.915
16155SOL     OW50303   9.905   4.880   8.411
16155SOL    HW150304   9.875   4.969   8.424
16155SOL    HW250305   9.985   4.873   8.464
16156SOL     OW50306   5.210   2.781   4.661
16156SOL    HW150307   5.141   2.715   4.655
16156SOL    HW250308   5.199   2.834   4.582
16157SOL     OW50309  12.652   5.398   1.437
16157SOL    HW150310  12.578   5.436   1.485
16157SOL    HW250311  12.723   5.394   1.502
16158SOL     OW50312   6.098  14.170  11.199
16158SOL    HW150313   6.131  14.100  11.256
16158SOL    HW250314   6.063  14.235  11.260
16159SOL     OW50315  14.334   7.707  14.516
16159SOL    HW150316  14.353   7.643  14.585
16159SOL    HW250317  14.315   7.654  14.439
16160SOL     OW50318   2.434  11.275   1.917
16160SOL    HW150319   2.362  11.305   1.862
16160SOL    HW250320   2.412  11.185   1.939
16161SOL     OW50321   1.786  12.384   4.629
16161SOL    HW150322   1.829  12.401   4.713
16161SOL    HW250323   1.764  12.471   4.596
16162SOL     OW50324   1.447   6.286   1.203
16162SOL    HW150325   1.525   6.278   1.148
16162SOL    HW250326   1.374   6.282   1.142
16163SOL     OW50327  12.070   5.978   1.808
16163SOL    HW150328  12.120   5.937   1.737
16163SOL    HW250329  12.124   6.050   1.838
16164SOL     OW50330  11.757  14.080   5.189
16164SOL    HW150331  11.729  14.134   5.262
16164SOL    HW250332  11.686  14.018   5.175
16165SOL     OW50333   7.310  11.664   5.190
16165SOL    HW150334   7.314  11.608   5.268
16165SOL    HW250335   7.304  11.602   5.117
16166SOL     OW50336  13.409   9.044   8.669
16166SOL    HW150337  13.384   8.954   8.690
16166SOL    HW250338  13.474   9.067   8.736
16167SOL     OW50339   3.541   1.622  11.643
16167SOL    HW150340   3.631   1.597  11.666
16167SOL    HW250341   3.496   1.539  11.627
16168SOL     OW50342  13.048  11.002  13.078
16168SOL    HW150343  13.004  11.068  13.026
16168SOL    HW250344  13.141  11.027  13.076
16169SOL     OW50345   6.106   2.147   9.271
16169SOL    HW150346   6.045   2.168   9.201
16169SOL    HW250347   6.145   2.064   9.245
16170SOL     OW50348   8.193   6.060  11.672
16170SOL    HW150349   8.144   6.142  11.684
16170SOL    HW250350   8.265   6.083  11.613
16171SOL     OW50351   3.765   1.206  14.250
16171SOL    HW150352   3.753   1.297  14.276
16171SOL    HW250353   3.770   1.158  14.332
16172SOL     OW50354   2.096   1.297  10.732
16172SOL    HW150355   2.118   1.365  10.796
16172SOL    HW250356   2.171   1.293  10.673
16173SOL     OW50357  14.531  11.610  12.464
16173SOL    HW150358  14.599  11.651  12.517
16173SOL    HW250359  14.510  11.675  12.397
16174SOL     OW50360   5.231   6.791  14.530
16174SOL    HW150361   5.246   6.830  14.616
16174SOL    HW250362   5.310   6.812  14.480
16175SOL     OW50363   3.425   6.414  10.155
16175SOL    HW150364   3.384   6.328  10.157
16175SOL    HW250365   3.356   6.472  10.122
16176SOL     OW50366   4.487   8.287   5.135
16176SOL    HW150367   4.540   8.310   5.211
16176SOL    HW250368   4.467   8.372   5.094
16177SOL     OW50369   7.133  14.378   3.637
16177SOL    HW150370   7.118  14.294   3.594
16177SOL    HW250371   7.228  14.391   3.634
16178SOL     OW50372   4.940  11.156   9.037
16178SOL    HW150373   4.949  11.070   9.078
16178SOL    HW250374   4.994  11.152   8.958
16179SOL     OW50375   6.342  12.645   0.022
16179SOL    HW150376   6.292  12.596  14.836
16179SOL    HW250377   6.291  12.635   0.102
16180SOL     OW50378   4.567   8.633  11.540
16180SOL    HW150379   4.494   8.675  11.495
16180SOL    HW250380   4.641   8.693  11.528
16181SOL     OW50381  12.386   2.603   0.806
16181SOL    HW150382  12.364   2.546   0.732
16181SOL    HW250383  12.440   2.547   0.863
16182SOL     OW50384   5.474   6.128   0.764
16182SOL    HW150385   5.535   6.066   0.803
16182SOL    HW250386   5.428   6.078   0.697
16183SOL     OW50387   2.076  13.430   8.030
16183SOL    HW150388   2.113  13.411   7.945
16183SOL    HW250389   2.129  13.380   8.092
16184SOL     OW50390   9.974  13.773   6.642
16184SOL    HW150391  10.039  13.826   6.688
16184SOL    HW250392   9.943  13.710   6.708
16185SOL     OW50393   3.543   7.759   1.255
16185SOL    HW150394   3.549   7.683   1.197
16185SOL    HW250395   3.490   7.730   1.329
16186SOL     OW50396   7.835   3.707   0.903
16186SOL    HW150397   7.823   3.697   0.809
16186SOL    HW250398   7.924   3.673   0.920
16187SOL     OW50399  10.130  13.970   4.913
16187SOL    HW150400  10.144  14.063   4.894
16187SOL    HW250401  10.218  13.933   4.917
16188SOL     OW50402  13.535  11.487  10.284
16188SOL    HW150403  13.445  11.475  10.253
16188SOL    HW250404  13.540  11.579  10.308
16189SOL     OW50405   1.510  11.765   2.229
16189SOL    HW150406   1.436  11.731   2.179
16189SOL    HW250407   1.499  11.860   2.227
16190SOL     OW50408  10.878  11.850  13.961
16190SOL    HW150409  10.826  11.818  14.035
16190SOL    HW250410  10.944  11.782  13.947
16191SOL     OW50411   7.801  13.076  12.829
16191SOL    HW150412   7.801  13.143  12.897
16191SOL    HW250413   7.709  13.054  12.817
16192SOL     OW50414   6.274   8.866   8.418
16192SOL    HW150415   6.254   8.888   8.509
16192SOL    HW250416   6.335   8.934   8.390
16193SOL     OW50417  14.620   2.847  12.612
16193SOL    HW150418  14.535   2.853  12.655
16193SOL    HW250419  14.623   2.758  12.576
16194SOL     OW50420  13.013   7.969   9.425
16194SOL    HW150421  13.050   7.900   9.370
16194SOL    HW250422  12.923   7.940   9.443
16195SOL     OW50423   4.653   2.868  10.336
16195SOL    HW150424   4.593   2.939  10.359
16195SOL    HW250425   4.721   2.871  10.403
16196SOL     OW50426  12.435   4.369   4.274
16196SOL    HW150427  12.357   4.317   4.290
16196SOL    HW250428  12.410   4.459   4.296
16197SOL     OW50429   2.327  14.430   7.930
16197SOL    HW150430   2.264  14.431   8.002
16197SOL    HW250431   2.410  14.455   7.970
16198SOL     OW50432   4.012  11.043  11.202
16198SOL    HW150433   4.026  11.032  11.296
16198SOL    HW250434   3.978  11.132  11.193
16199SOL     OW50435   3.302   4.163   8.981
16199SOL    HW150436   3.284   4.124   9.066
16199SOL    HW250437   3.368   4.230   8.998
16200SOL     OW50438   3.503   3.945  13.092
16200SOL    HW150439   3.534   3.907  13.011
16200SOL    HW250440   3.438   4.010  13.065
16201SOL     OW50441   3.733  12.858  11.819
16201SOL    HW150442   3.799  12.912  11.861
16201SOL    HW250443   3.700  12.801  11.890
16202SOL     OW50444  14.268   2.785   0.988
16202SOL    HW150445  14.239   2.799   0.898
16202SOL    HW250446  14.207   2.721   1.023
16203SOL     OW50447   9.970  13.254  11.363
16203SOL    HW150448   9.951  13.278  11.454
16203SOL    HW250449  10.030  13.180  11.369
16204SOL     OW50450   4.373   8.478   1.430
16204SOL    HW150451   4.360   8.384   1.424
16204SOL    HW250452   4.355   8.510   1.341
16205SOL     OW50453   2.085   6.844   9.144
16205SOL    HW150454   2.104   6.895   9.222
16205SOL    HW250455   1.992   6.862   9.126
16206SOL     OW50456   1.732   5.412   2.104
16206SOL    HW150457   1.684   5.371   2.176
16206SOL    HW250458   1.799   5.465   2.147
16207SOL     OW50459   6.547  14.524   4.686
16207SOL    HW150460   6.595  14.556   4.609
16207SOL    HW250461   6.602  14.551   4.760
16208SOL     OW50462   3.156   1.430   3.481
16208SOL    HW150463   3.087   1.407   3.544
16208SOL    HW250464   3.116   1.495   3.424
16209SOL     OW50465   3.095   9.935   1.159
16209SOL    HW150466   3.182   9.899   1.141
16209SOL    HW250467   3.041   9.858   1.174
16210SOL     OW50468  13.414   1.408   3.005
16210SOL    HW150469  13.413   1.447   3.092
16210SOL    HW250470  13.501   1.367   2.998
16211SOL     OW50471  13.370   4.744  12.859
16211SOL    HW150472  13.372   4.736  12.954
16211SOL    HW250473  13.460   4.725  12.832
16212SOL     OW50474   9.845   2.368  11.336
16212SOL    HW150475   9.761   2.339  11.300
16212SOL    HW250476   9.844   2.463  11.323
16213SOL     OW50477   4.651  10.841   3.614
16213SOL    HW150478   4.715  10.817   3.547
16213SOL    HW250479   4.663  10.775   3.683
16214SOL     OW50480  12.930   2.332   2.862
16214SOL    HW150481  13.003   2.371   2.812
16214SOL    HW250482  12.876   2.407   2.887
16215SOL     OW50483  10.666   9.092   3.814
16215SOL    HW150484  10.584   9.057   3.847
16215SOL    HW250485  10.731   9.070   3.881
16216SOL     OW50486   7.932   2.832   6.914
16216SOL    HW150487   7.909   2.743   6.941
16216SOL    HW250488   8.025   2.827   6.893
16217SOL     OW50489   0.648  13.730   0.614
16217SOL    HW150490   0.637  13.646   0.657
16217SOL    HW250491   0.656  13.793   0.685
16218SOL     OW50492   7.574   0.406   2.424
16218SOL    HW150493   7.569   0.318   2.386
16218SOL    HW250494   7.627   0.394   2.504
16219SOL     OW50495   3.508   1.286   3.219
16219SOL    HW150496   3.603   1.293   3.215
16219SOL    HW250497   3.488   1.278   3.312
16220SOL     OW50498   9.736   3.547   3.434
16220SOL    HW150499   9.830   3.561   3.427
16220SOL    HW250500   9.720   3.536   3.528
16221SOL     OW50501   8.917   3.898   5.662
16221SOL    HW150502   8.899   3.850   5.742
16221SOL    HW250503   9.010   3.882   5.644
16222SOL     OW50504  14.059   8.964   7.895
16222SOL    HW150505  13.964   8.977   7.899
16222SOL    HW250506  14.092   9.039   7.846
16223SOL     OW50507   3.550  10.760   6.525
16223SOL    HW150508   3.537  10.717   6.610
16223SOL    HW250509   3.506  10.703   6.462
16224SOL     OW50510  11.027   9.260   0.750
16224SOL    HW150511  11.009   9.170   0.722
16224SOL    HW250512  11.027   9.256   0.845
16225SOL     OW50513  11.150  13.036   4.486
16225SOL    HW150514  11.057  13.053   4.478
16225SOL    HW250515  11.173  13.069   4.573
16226SOL     OW50516  13.390   8.664   1.366
16226SOL    HW150517  13.390   8.665   1.270
16226SOL    HW250518  13.313   8.611   1.389
16227SOL     OW50519   0.346   3.815  13.250
16227SOL    HW150520   0.378   3.892  13.297
16227SOL    HW250521   0.391   3.741  13.292
16228SOL     OW50522  12.359  13.960   6.660
16228SOL    HW150523  12.396  14.010   6.588
16228SOL    HW250524  12.376  13.869   6.636
16229SOL     OW50525   4.378   8.344  13.007
16229SOL    HW150526   4.335   8.424  13.035
16229SOL    HW250527   4.372   8.346  12.911
16230SOL     OW50528   5.279   9.652  12.899
16230SOL    HW150529   5.231   9.583  12.853
16230SOL    HW250530   5.211   9.712  12.930
16231SOL     OW50531   0.728   5.277   9.760
16231SOL    HW150532   0.763   5.243   9.677
16231SOL    HW250533   0.696   5.365   9.738
16232SOL     OW50534   5.615  12.319  12.684
16232SOL    HW150535   5.602  12.240  12.737
16232SOL    HW250536   5.602  12.289  12.594
16233SOL     OW50537   9.107   4.124   4.460
16233SOL    HW150538   9.077   4.036   4.437
16233SOL    HW250539   9.038   4.182   4.427
16234SOL     OW50540  13.621   8.035  14.408
16234SOL    HW150541  13.692   8.032  14.344
16234SOL    HW250542  13.542   8.044  14.356
16235SOL     OW50543  14.229   6.980   6.423
16235SOL    HW150544  14.156   7.040   6.410
16235SOL    HW250545  14.238   6.974   6.518
16236SOL     OW50546   8.761  13.284   1.130
16236SOL    HW150547   8.835  13.257   1.183
16236SOL    HW250548   8.776  13.378   1.113
16237SOL     OW50549   8.503   4.201  12.677
16237SOL    HW150550   8.555   4.121  12.668
16237SOL    HW250551   8.566   4.272  12.665
16238SOL     OW50552  14.720   6.668   1.534
16238SOL    HW150553  14.750   6.742   1.587
16238SOL    HW250554  14.646   6.701   1.485
16239SOL     OW50555   5.485  12.343  11.384
16239SOL    HW150556   5.543  12.372  11.314
16239SOL    HW250557   5.527  12.265  11.420
16240SOL     OW50558  12.056  13.681   4.871
16240SOL    HW150559  11.995  13.747   4.837
16240SOL    HW250560  12.094  13.722   4.949
16241SOL     OW50561   1.306   6.138   3.356
16241SOL    HW150562   1.313   6.128   3.451
16241SOL    HW250563   1.216   6.167   3.341
16242SOL     OW50564   2.741   2.286  10.357
16242SOL    HW150565   2.780   2.346  10.293
16242SOL    HW250566   2.648   2.288  10.336
16243SOL     OW50567  13.924   3.375   0.668
16243SOL    HW150568  13.952   3.430   0.596
16243SOL    HW250569  13.870   3.432   0.723
16244SOL     OW50570   8.099  11.078   7.421
16244SOL    HW150571   8.142  11.159   7.448
16244SOL    HW250572   8.065  11.097   7.333
16245SOL     OW50573  12.678  11.097  14.386
16245SOL    HW150574  12.767  11.077  14.415
16245SOL    HW250575  12.678  11.193  14.376
16246SOL     OW50576  12.259   6.554  11.640
16246SOL    HW150577  12.297   6.522  11.559
16246SOL    HW250578  12.216   6.478  11.679
16247SOL     OW50579   9.319   6.382   7.517
16247SOL    HW150580   9.289   6.472   7.508
16247SOL    HW250581   9.280   6.351   7.599
16248SOL     OW50582   9.076   4.110   2.293
16248SOL    HW150583   9.122   4.105   2.377
16248SOL    HW250584   8.993   4.065   2.309
16249SOL     OW50585   4.383   6.118   5.404
16249SOL    HW150586   4.423   6.140   5.488
16249SOL    HW250587   4.439   6.159   5.339
16250SOL     OW50588   9.596   2.814   6.773
16250SOL    HW150589   9.536   2.889   6.766
16250SOL    HW250590   9.572   2.757   6.700
16251SOL     OW50591  10.817   3.150   0.878
16251SOL    HW150592  10.798   3.103   0.797
16251SOL    HW250593  10.798   3.242   0.858
16252SOL     OW50594   4.144   8.118   9.932
16252SOL    HW150595   4.151   8.065   9.852
16252SOL    HW250596   4.141   8.208   9.901
16253SOL     OW50597   8.965   3.209   7.732
16253SOL    HW150598   9.020   3.175   7.802
16253SOL    HW250599   8.934   3.130   7.686
16254SOL     OW50600  10.333  12.058   1.169
16254SOL    HW150601  10.372  12.018   1.246
16254SOL    HW250602  10.242  12.075   1.194
16255SOL     OW50603  13.527  11.228  13.621
16255SOL    HW150604  13.458  11.292  13.639
16255SOL    HW250605  13.607  11.269  13.654
16256SOL     OW50606  11.515  11.002  14.522
16256SOL    HW150607  11.604  11.016  14.491
16256SOL    HW250608  11.524  10.994  14.617
16257SOL     OW50609  13.929  11.329   7.918
16257SOL    HW150610  13.835  11.346   7.911
16257SOL    HW250611  13.935  11.235   7.933
16258SOL     OW50612   2.263  11.754   3.339
16258SOL    HW150613   2.354  11.727   3.350
16258SOL    HW250614   2.255  11.771   3.245
16259SOL     OW50615  10.652  10.122   3.183
16259SOL    HW150616  10.558  10.121   3.198
16259SOL    HW250617  10.681  10.207   3.217
16260SOL     OW50618   3.251  11.282   3.867
16260SOL    HW150619   3.315  11.353   3.866
16260SOL    HW250620   3.281  11.221   3.800
16261SOL     OW50621  12.427   0.987  14.170
16261SOL    HW150622  12.472   1.004  14.252
16261SOL    HW250623  12.495   0.954  14.112
16262SOL     OW50624  11.877   4.774  12.981
16262SOL    HW150625  11.873   4.783  13.076
16262SOL    HW250626  11.843   4.686  12.963
16263SOL     OW50627  11.893  14.292  13.744
16263SOL    HW150628  11.923  14.262  13.830
16263SOL    HW250629  11.867  14.383  13.758
16264SOL     OW50630   1.435   1.244   6.214
16264SOL    HW150631   1.382   1.319   6.243
16264SOL    HW250632   1.427   1.181   6.286
16265SOL     OW50633   5.062  14.202   2.107
16265SOL    HW150634   5.124  14.143   2.148
16265SOL    HW250635   5.076  14.191   2.013
16266SOL     OW50636   7.818   4.442   9.085
16266SOL    HW150637   7.794   4.406   8.999
16266SOL    HW250638   7.860   4.369   9.131
16267SOL     OW50639  11.697  13.087   4.708
16267SOL    HW150640  11.732  13.135   4.633
16267SOL    HW250641  11.766  13.026   4.733
16268SOL     OW50642   8.482  13.491   3.993
16268SOL    HW150643   8.535  13.547   3.937
16268SOL    HW250644   8.453  13.421   3.936
16269SOL     OW50645  14.250   2.526  12.348
16269SOL    HW150646  14.225   2.601  12.403
16269SOL    HW250647  14.189   2.457  12.373
16270SOL     OW50648  10.181   7.165   5.824
16270SOL    HW150649  10.152   7.197   5.909
16270SOL    HW250650  10.246   7.229   5.795
16271SOL     OW50651  14.824   4.026  10.056
16271SOL    HW150652  14.783   4.046  10.140
16271SOL    HW250653  14.778   3.948  10.024
16272SOL     OW50654   8.124  11.935  10.591
16272SOL    HW150655   8.168  12.007  10.635
16272SOL    HW250656   8.148  11.857  10.641
16273SOL     OW50657   9.529   0.390   2.147
16273SOL    HW150658   9.615   0.425   2.169
16273SOL    HW250659   9.529   0.303   2.186
16274SOL     OW50660   6.882  10.315  14.224
16274SOL    HW150661   6.974  10.290  14.214
16274SOL    HW250662   6.856  10.346  14.137
16275SOL     OW50663   3.293   1.984   9.575
16275SOL    HW150664   3.345   1.970   9.496
16275SOL    HW250665   3.258   1.898   9.596
16276SOL     OW50666   8.361   1.145  14.683
16276SOL    HW150667   8.400   1.229  14.706
16276SOL    HW250668   8.292   1.132  14.748
16277SOL     OW50669   5.178   5.843   0.228
16277SOL    HW150670   5.188   5.843   0.133
16277SOL    HW250671   5.143   5.756   0.249
16278SOL     OW50672   6.407  11.285   4.738
16278SOL    HW150673   6.406  11.282   4.642
16278SOL    HW250674   6.437  11.373   4.759
16279SOL     OW50675   1.578   8.697  12.638
16279SOL    HW150676   1.626   8.649  12.705
16279SOL    HW250677   1.540   8.628  12.583
16280SOL     OW50678   5.321   4.467   2.798
16280SOL    HW150679   5.399   4.498   2.844
16280SOL    HW250680   5.334   4.373   2.789
16281SOL     OW50681   8.479   8.417  11.344
16281SOL    HW150682   8.469   8.378  11.430
16281SOL    HW250683   8.406   8.382  11.293
16282SOL     OW50684  10.477  12.937   5.430
16282SOL    HW150685  10.396  12.893   5.456
16282SOL    HW250686  10.540  12.866   5.417
16283SOL     OW50687  14.815   1.040  14.758
16283SOL    HW150688  14.802   1.033  14.852
16283SOL    HW250689  14.873   0.967  14.735
16284SOL     OW50690   7.274   0.885   5.149
16284SOL    HW150691   7.312   0.973   5.154
16284SOL    HW250692   7.298   0.854   5.061
16285SOL     OW50693   6.531   7.006   0.559
16285SOL    HW150694   6.463   7.050   0.611
16285SOL    HW250695   6.611   7.017   0.609
16286SOL     OW50696  11.346   0.694  14.173
16286SOL    HW150697  11.348   0.722  14.264
16286SOL    HW250698  11.437   0.704  14.143
16287SOL     OW50699   2.084   8.502   3.047
16287SOL    HW150700   2.166   8.506   3.096
16287SOL    HW250701   2.067   8.409   3.034
16288SOL     OW50702   9.599  13.227   4.215
16288SOL    HW150703   9.556  13.247   4.298
16288SOL    HW250704   9.649  13.306   4.194
16289SOL     OW50705   1.316  11.512   5.941
16289SOL    HW150706   1.395  11.467   5.909
16289SOL    HW250707   1.329  11.519   6.035
16290SOL     OW50708   9.134  14.149   1.049
16290SOL    HW150709   9.057  14.205   1.054
16290SOL    HW250710   9.204  14.200   1.090
16291SOL     OW50711   1.270   3.374  10.059
16291SOL    HW150712   1.276   3.324   9.978
16291SOL    HW250713   1.263   3.465  10.031
16292SOL     OW50714   9.075   9.451   1.081
16292SOL    HW150715   9.136   9.424   1.150
16292SOL    HW250716   9.039   9.370   1.047
16293SOL     OW50717   0.340   0.474  11.833
16293SOL    HW150718   0.253   0.494  11.866
16293SOL    HW250719   0.364   0.391  11.875
16294SOL     OW50720   0.486   3.980   2.784
16294SOL    HW150721   0.465   3.888   2.766
16294SOL    HW250722   0.434   4.001   2.862
16295SOL     OW50723   5.881   3.376  13.018
16295SOL    HW150724   5.817   3.444  13.037
16295SOL    HW250725   5.884   3.372  12.922
16296SOL     OW50726   7.112  14.299   7.537
16296SOL    HW150727   7.122  14.394   7.528
16296SOL    HW250728   7.198  14.264   7.515
16297SOL     OW50729   0.023  11.420  11.454
16297SOL    HW150730  14.848  11.395  11.380
16297SOL    HW250731   0.043  11.338  11.498
16298SOL     OW50732  10.479   5.868   5.208
16298SOL    HW150733  10.444   5.891   5.293
16298SOL    HW250734  10.550   5.806   5.227
16299SOL     OW50735   5.172  13.103   3.773
16299SOL    HW150736   5.258  13.139   3.750
16299SOL    HW250737   5.120  13.179   3.798
16300SOL     OW50738   0.631   3.004  13.558
16300SOL    HW150739   0.607   2.912  13.549
16300SOL    HW250740   0.583   3.035  13.635
16301SOL     OW50741   5.157  12.055   7.547
16301SOL    HW150742   5.067  12.085   7.554
16301SOL    HW250743   5.200  12.117   7.488
16302SOL     OW50744   7.980  13.942   0.993
16302SOL    HW150745   7.923  13.915   0.921
16302SOL    HW250746   7.921  13.973   1.061
16303SOL     OW50747   4.700   4.652  12.091
16303SOL    HW150748   4.756   4.728  12.071
16303SOL    HW250749   4.666   4.670  12.179
16304SOL     OW50750   8.294   7.148  11.863
16304SOL    HW150751   8.204   7.129  11.837
16304SOL    HW250752   8.295   7.242  11.882
16305SOL     OW50753  13.797   1.133  12.788
16305SOL    HW150754  13.779   1.186  12.710
16305SOL    HW250755  13.857   1.187  12.840
16306SOL     OW50756  11.992   4.993   7.662
16306SOL    HW150757  11.928   5.060   7.685
16306SOL    HW250758  11.956   4.912   7.698
16307SOL     OW50759   7.453  10.127   1.373
16307SOL    HW150760   7.382  10.121   1.310
16307SOL    HW250761   7.528  10.156   1.321
16308SOL     OW50762   2.133  13.768   4.558
16308SOL    HW150763   2.210  13.737   4.606
16308SOL    HW250764   2.168  13.833   4.497
16309SOL     OW50765   7.144   3.189   7.779
16309SOL    HW150766   7.176   3.185   7.689
16309SOL    HW250767   7.180   3.112   7.822
16310SOL     OW50768   5.870  10.896   1.882
16310SOL    HW150769   5.826  10.833   1.825
16310SOL    HW250770   5.945  10.927   1.832
16311SOL     OW50771   4.249   4.918  12.035
16311SOL    HW150772   4.197   4.843  12.064
16311SOL    HW250773   4.329   4.880  12.000
16312SOL     OW50774   4.557   8.055   5.516
16312SOL    HW150775   4.567   8.102   5.433
16312SOL    HW250776   4.466   8.072   5.542
16313SOL     OW50777   3.609   3.989   8.018
16313SOL    HW150778   3.652   4.024   7.940
16313SOL    HW250779   3.649   4.035   8.091
16314SOL     OW50780   9.116  13.196  11.877
16314SOL    HW150781   9.168  13.181  11.798
16314SOL    HW250782   9.061  13.118  11.885
16315SOL     OW50783   2.013   1.656   2.422
16315SOL    HW150784   1.929   1.664   2.378
16315SOL    HW250785   2.054   1.578   2.382
16316SOL     OW50786   3.676   2.551  13.036
16316SOL    HW150787   3.626   2.528  12.958
16316SOL    HW250788   3.674   2.647  13.039
16317SOL     OW50789   5.973  10.703  12.610
16317SOL    HW150790   6.029  10.707  12.688
16317SOL    HW250791   6.010  10.768  12.550
16318SOL     OW50792  10.014  13.146   8.201
16318SOL    HW150793   9.950  13.088   8.160
16318SOL    HW250794   9.961  13.209   8.250
16319SOL     OW50795   7.749   2.336  12.373
16319SOL    HW150796   7.826   2.367  12.326
16319SOL    HW250797   7.685   2.315  12.305
16320SOL     OW50798   2.457   1.155   2.133
16320SOL    HW150799   2.534   1.101   2.149
16320SOL    HW250800   2.412   1.113   2.060
16321SOL     OW50801   4.296   9.753  13.759
16321SOL    HW150802   4.348   9.834  13.759
16321SOL    HW250803   4.209   9.781  13.729
16322SOL     OW50804  14.361   8.478   1.244
16322SOL    HW150805  14.434   8.527   1.207
16322SOL    HW250806  14.365   8.496   1.338
16323SOL     OW50807   6.589   1.178   9.820
16323SOL    HW150808   6.535   1.229   9.881
16323SOL    HW250809   6.665   1.234   9.804
16324SOL     OW50810   5.232  10.146  14.700
16324SOL    HW150811   5.253  10.117  14.789
16324SOL    HW250812   5.160  10.089  14.673
16325SOL     OW50813   2.187   5.018   2.765
16325SOL    HW150814   2.143   5.097   2.797
16325SOL    HW250815   2.172   4.953   2.834
16326SOL     OW50816  12.013   9.745  10.510
16326SOL    HW150817  12.023   9.737  10.415
16326SOL    HW250818  12.041   9.835  10.529
16327SOL     OW50819   0.276   7.910  14.711
16327SOL    HW150820   0.263   7.990  14.762
16327SOL    HW250821   0.310   7.940  14.627
16328SOL     OW50822  10.923   9.322  13.260
16328SOL    HW150823  10.831   9.349  13.257
16328SOL    HW250824  10.959   9.370  13.334
16329SOL     OW50825   5.841  11.791  12.023
16329SOL    HW150826   5.809  11.834  12.102
16329SOL    HW250827   5.782  11.716  12.011
16330SOL     OW50828   4.092   9.309   0.578
16330SOL    HW150829   4.011   9.347   0.614
16330SOL    HW250830   4.144   9.285   0.655
16331SOL     OW50831   7.378  10.354   1.658
16331SOL    HW150832   7.320  10.277   1.661
16331SOL    HW250833   7.412  10.355   1.569
16332SOL     OW50834   9.163   6.595   4.203
16332SOL    HW150835   9.190   6.551   4.122
16332SOL    HW250836   9.184   6.532   4.272
16333SOL     OW50837   1.795  10.635   4.507
16333SOL    HW150838   1.814  10.629   4.413
16333SOL    HW250839   1.745  10.556   4.526
16334SOL     OW50840   0.192  13.519   2.127
16334SOL    HW150841   0.178  13.527   2.032
16334SOL    HW250842   0.283  13.548   2.140
16335SOL     OW50843   3.144   4.181  10.977
16335SOL    HW150844   3.224   4.219  10.940
16335SOL    HW250845   3.100   4.141  10.902
16336SOL     OW50846   6.236   7.812   5.819
16336SOL    HW150847   6.225   7.796   5.913
16336SOL    HW250848   6.285   7.736   5.787
16337SOL     OW50849   7.217   9.526   6.060
16337SOL    HW150850   7.187   9.574   5.983
16337SOL    HW250851   7.299   9.485   6.032
16338SOL     OW50852   4.570   5.925   9.684
16338SOL    HW150853   4.531   5.938   9.597
16338SOL    HW250854   4.500   5.946   9.745
16339SOL     OW50855  10.276   4.114   8.509
16339SOL    HW150856  10.251   4.071   8.591
16339SOL    HW250857  10.371   4.114   8.510
16340SOL     OW50858  12.414   8.943  12.472
16340SOL    HW150859  12.410   9.021  12.416
16340SOL    HW250860  12.342   8.888  12.441
16341SOL     OW50861  10.355   4.026   5.492
16341SOL    HW150862  10.422   4.089   5.517
16341SOL    HW250863  10.398   3.941   5.498
16342SOL     OW50864  10.937   4.899   3.257
16342SOL    HW150865  10.984   4.911   3.340
16342SOL    HW250866  10.845   4.893   3.283
16343SOL     OW50867   0.368   6.593   9.983
16343SOL    HW150868   0.333   6.656   9.920
16343SOL    HW250869   0.308   6.599  10.058
16344SOL     OW50870   1.899   6.047  14.255
16344SOL    HW150871   1.955   6.005  14.189
16344SOL    HW250872   1.867   5.974  14.308
16345SOL     OW50873   6.700  11.327   4.570
16345SOL    HW150874   6.645  11.255   4.538
16345SOL    HW250875   6.736  11.366   4.491
16346SOL     OW50876   2.598   9.981   8.276
16346SOL    HW150877   2.665   9.998   8.342
16346SOL    HW250878   2.515   9.997   8.320
16347SOL     OW50879   9.382  12.001   0.806
16347SOL    HW150880   9.349  11.912   0.824
16347SOL    HW250881   9.318  12.037   0.744
16348SOL     OW50882   6.301   0.120   7.739
16348SOL    HW150883   6.307   0.029   7.767
16348SOL    HW250884   6.345   0.170   7.808
16349SOL     OW50885  14.066   9.364  12.179
16349SOL    HW150886  14.051   9.280  12.223
16349SOL    HW250887  14.067   9.429  12.249
16350SOL     OW50888   3.762   4.971   8.893
16350SOL    HW150889   3.703   5.033   8.851
16350SOL    HW250890   3.794   4.916   8.821
16351SOL     OW50891   9.794  11.245  13.896
16351SOL    HW150892   9.853  11.319  13.894
16351SOL    HW250893   9.713  11.280  13.934
16352SOL     OW50894   3.278  14.873   1.730
16352SOL    HW150895   3.194  14.857   1.773
16352SOL    HW250896   3.342  14.828   1.784
16353SOL     OW50897  11.349   4.928   8.621
16353SOL    HW150898  11.278   4.932   8.557
16353SOL    HW250899  11.402   5.006   8.603
16354SOL     OW50900   5.422   0.238   3.191
16354SOL    HW150901   5.328   0.232   3.209
16354SOL    HW250902   5.456   0.150   3.209
16355SOL     OW50903   2.371   3.660   4.032
16355SOL    HW150904   2.308   3.606   4.080
16355SOL    HW250905   2.429   3.597   3.990
16356SOL     OW50906  11.607   5.361   7.512
16356SOL    HW150907  11.606   5.279   7.463
16356SOL    HW250908  11.679   5.411   7.474
16357SOL     OW50909   5.534  10.016  10.404
16357SOL    HW150910   5.456  10.072  10.411
16357SOL    HW250911   5.499   9.927  10.396
16358SOL     OW50912   8.740  14.098  10.960
16358SOL    HW150913   8.711  14.178  11.004
16358SOL    HW250914   8.673  14.081  10.894
16359SOL     OW50915  12.989  10.831   0.651
16359SOL    HW150916  13.019  10.920   0.670
16359SOL    HW250917  12.976  10.830   0.556
16360SOL     OW50918   3.014   1.965  13.807
16360SOL    HW150919   2.936   1.949  13.755
16360SOL    HW250920   2.986   1.950  13.898
16361SOL     OW50921  12.894   7.089   2.945
16361SOL    HW150922  12.916   7.181   2.957
16361SOL    HW250923  12.977   7.043   2.948
16362SOL     OW50924   3.963  14.205   0.257
16362SOL    HW150925   4.007  14.124   0.283
16362SOL    HW250926   4.023  14.247   0.196
16363SOL     OW50927  10.749  12.052   5.584
16363SOL    HW150928  10.822  11.990   5.580
16363SOL    HW250929  10.691  12.025   5.513
16364SOL     OW50930   2.789   3.360  12.503
16364SOL    HW150931   2.855   3.382  12.437
16364SOL    HW250932   2.723   3.429  12.495
16365SOL     OW50933   3.033   3.983   3.304
16365SOL    HW150934   3.017   4.022   3.219
16365SOL    HW250935   3.096   4.041   3.346
16366SOL     OW50936   7.129   8.038   9.300
16366SOL    HW150937   7.066   8.002   9.238
16366SOL    HW250938   7.136   7.972   9.369
16367SOL     OW50939  11.319  10.196  13.079
16367SOL    HW150940  11.384  10.148  13.028
16367SOL    HW250941  11.246  10.135  13.091
16368SOL     OW50942  12.132  10.824   6.414
16368SOL    HW150943  12.210  10.800   6.364
16368SOL    HW250944  12.059  10.808   6.354
16369SOL     OW50945   1.173  12.192   2.538
16369SOL    HW150946   1.147  12.114   2.587
16369SOL    HW250947   1.269  12.192   2.542
16370SOL     OW50948  10.948  14.453  10.313
16370SOL    HW150949  10.939  14.548  10.320
16370SOL    HW250950  11.018  14.440  10.250
16371SOL     OW50951   8.046   8.054   5.122
16371SOL    HW150952   7.973   8.012   5.076
16371SOL    HW250953   8.004   8.113   5.184
16372SOL     OW50954   2.652   4.468   6.927
16372SOL    HW150955   2.567   4.512   6.924
16372SOL    HW250956   2.713   4.531   6.889
16373SOL     OW50957   1.397   9.580   3.146
16373SOL    HW150958   1.417   9.660   3.195
16373SOL    HW250959   1.307   9.558   3.170
16374SOL     OW50960   6.858  14.109  14.795
16374SOL    HW150961   6.767  14.119  14.765
16374SOL    HW250962   6.858  14.029  14.847
16375SOL     OW50963  14.744  14.795   7.625
16375SOL    HW150964  14.767  14.817   7.534
16375SOL    HW250965  14.821  14.751   7.660
16376SOL     OW50966   6.041   4.947   7.514
16376SOL    HW150967   5.968   4.889   7.537
16376SOL    HW250968   6.120   4.896   7.535
16377SOL     OW50969  14.802   6.129   8.800
16377SOL    HW150970  14.787   6.034   8.797
16377SOL    HW250971  14.730   6.166   8.750
16378SOL     OW50972  12.989   4.018   9.974
16378SOL    HW150973  13.035   3.985   9.897
16378SOL    HW250974  13.050   4.082  10.012
16379SOL     OW50975   0.452  11.062   4.023
16379SOL    HW150976   0.533  11.037   4.067
16379SOL    HW250977   0.480  11.128   3.958
16380SOL     OW50978   3.370   5.634   9.962
16380SOL    HW150979   3.385   5.541   9.948
16380SOL    HW250980   3.275   5.643   9.962
16381SOL     OW50981   0.013   4.147   9.026
16381SOL    HW150982  14.823   4.210   9.008
16381SOL    HW250983   0.085   4.200   9.060
16382SOL     OW50984  11.498   0.270  12.349
16382SOL    HW150985  11.437   0.344  12.352
16382SOL    HW250986  11.495   0.239  12.259
16383SOL     OW50987   9.970   4.450   8.186
16383SOL    HW150988  10.018   4.439   8.104
16383SOL    HW250989   9.922   4.532   8.176
16384SOL     OW50990   8.988   8.359   5.094
16384SOL    HW150991   9.025   8.285   5.142
16384SOL    HW250992   8.893   8.343   5.095
16385SOL     OW50993  11.651   8.999  12.463
16385SOL    HW150994  11.693   8.994  12.549
16385SOL    HW250995  11.635   9.092  12.450
16386SOL     OW50996   3.767   4.974  11.503
16386SOL    HW150997   3.695   4.917  11.476
16386SOL    HW250998   3.838   4.914  11.527
16387SOL     OW50999  10.305  14.158   7.385
16387SOL    HW151000  10.334  14.073   7.419
16387SOL    HW251001  10.237  14.187   7.447
16388SOL     OW51002  13.125   8.672  10.584
16388SOL    HW151003  13.139   8.584  10.547
16388SOL    HW251004  13.192   8.680  10.651
16389SOL     OW51005   6.396   8.642   8.492
16389SOL    HW151006   6.479   8.688   8.476
16389SOL    HW251007   6.328   8.707   8.474
16390SOL     OW51008   5.453   2.766   2.834
16390SOL    HW151009   5.473   2.692   2.891
16390SOL    HW251010   5.358   2.767   2.828
16391SOL     OW51011  14.010  13.300   2.224
16391SOL    HW151012  14.022  13.391   2.195
16391SOL    HW251013  14.092  13.257   2.200
16392SOL     OW51014  11.600   9.133  11.213
16392SOL    HW151015  11.690   9.102  11.224
16392SOL    HW251016  11.581   9.181  11.293
16393SOL     OW51017   6.148  10.114   9.535
16393SOL    HW151018   6.150  10.062   9.455
16393SOL    HW251019   6.165  10.204   9.506
16394SOL     OW51020   4.571  13.374  10.320
16394SOL    HW151021   4.550  13.317  10.246
16394SOL    HW251022   4.487  13.410  10.348
16395SOL     OW51023   7.750   7.102  11.023
16395SOL    HW151024   7.807   7.130  10.951
16395SOL    HW251025   7.712   7.019  10.992
16396SOL     OW51026   4.820  11.464  14.064
16396SOL    HW151027   4.869  11.541  14.035
16396SOL    HW251028   4.886  11.403  14.097
16397SOL     OW51029   6.305   0.757  14.238
16397SOL    HW151030   6.377   0.732  14.296
16397SOL    HW251031   6.276   0.675  14.197
16398SOL     OW51032   4.796   3.681  11.177
16398SOL    HW151033   4.812   3.763  11.131
16398SOL    HW251034   4.813   3.613  11.111
16399SOL     OW51035   5.516  12.538   3.408
16399SOL    HW151036   5.522  12.550   3.503
16399SOL    HW251037   5.422  12.523   3.392
16400SOL     OW51038   8.019   9.030   5.859
16400SOL    HW151039   8.030   8.958   5.797
16400SOL    HW251040   7.990   9.103   5.805
16401SOL     OW51041   4.958  11.809   3.732
16401SOL    HW151042   5.038  11.860   3.744
16401SOL    HW251043   4.948  11.762   3.815
16402SOL     OW51044  11.141   8.932  13.970
16402SOL    HW151045  11.117   9.024  13.983
16402SOL    HW251046  11.205   8.935  13.899
16403SOL     OW51047   3.391   1.917  13.969
16403SOL    HW151048   3.441   1.890  14.046
16403SOL    HW251049   3.382   2.012  13.977
16404SOL     OW51050   3.100   3.003  10.769
16404SOL    HW151051   3.071   2.937  10.832
16404SOL    HW251052   3.085   2.963  10.683
16405SOL     OW51053  14.569  14.267   7.615
16405SOL    HW151054  14.631  14.337   7.596
16405SOL    HW251055  14.592  14.237   7.703
16406SOL     OW51056   0.465   2.812   8.636
16406SOL    HW151057   0.422   2.808   8.722
16406SOL    HW251058   0.418   2.880   8.588
16407SOL     OW51059  10.841  13.871  10.241
16407SOL    HW151060  10.914  13.833  10.291
16407SOL    HW251061  10.840  13.963  10.267
16408SOL     OW51062   2.322   4.288   5.755
16408SOL    HW151063   2.265   4.353   5.715
16408SOL    HW251064   2.410   4.312   5.726
16409SOL     OW51065  13.852   3.907  14.397
16409SOL    HW151066  13.857   3.924  14.303
16409SOL    HW251067  13.908   3.830  14.411
16410SOL     OW51068   1.523   5.692  11.232
16410SOL    HW151069   1.530   5.639  11.152
16410SOL    HW251070   1.428   5.701  11.246
16411SOL     OW51071   5.776   5.642  13.068
16411SOL    HW151072   5.815   5.649  12.981
16411SOL    HW251073   5.768   5.732  13.099
16412SOL     OW51074   8.270  11.051   1.631
16412SOL    HW151075   8.337  11.078   1.567
16412SOL    HW251076   8.319  11.003   1.698
16413SOL     OW51077  13.556   1.917  11.746
16413SOL    HW151078  13.478   1.946  11.793
16413SOL    HW251079  13.568   1.826  11.774
16414SOL     OW51080   6.077   4.502   3.433
16414SOL    HW151081   6.129   4.581   3.451
16414SOL    HW251082   6.117   4.465   3.355
16415SOL     OW51083   7.522   5.525   0.703
16415SOL    HW151084   7.574   5.530   0.783
16415SOL    HW251085   7.515   5.431   0.685
16416SOL     OW51086   8.237  14.717   6.861
16416SOL    HW151087   8.281  14.799   6.836
16416SOL    HW251088   8.217  14.674   6.778
16417SOL     OW51089  13.275   7.664   5.361
16417SOL    HW151090  13.370   7.653   5.369
16417SOL    HW251091  13.250   7.604   5.291
16418SOL     OW51092   9.447   3.490  10.489
16418SOL    HW151093   9.543   3.488  10.489
16418SOL    HW251094   9.426   3.554  10.558
16419SOL     OW51095  12.306  14.669  11.155
16419SOL    HW151096  12.317  14.764  11.152
16419SOL    HW251097  12.362  14.636  11.084
16420SOL     OW51098   7.056   1.454   2.515
16420SOL    HW151099   7.135   1.449   2.461
16420SOL    HW251100   7.012   1.535   2.487
16421SOL     OW51101   5.307  10.272   5.869
16421SOL    HW151102   5.293  10.177   5.871
16421SOL    HW251103   5.295  10.296   5.778
16422SOL     OW51104   4.257   1.773  11.925
16422SOL    HW151105   4.183   1.816  11.968
16422SOL    HW251106   4.320   1.844  11.911
16423SOL     OW51107   0.372  13.493  12.539
16423SOL    HW151108   0.303  13.547  12.579
16423SOL    HW251109   0.357  13.405  12.573
16424SOL     OW51110   1.489  14.144  13.245
16424SOL    HW151111   1.548  14.139  13.170
16424SOL    HW251112   1.438  14.063  13.241
16425SOL     OW51113   2.140   6.286   4.830
16425SOL    HW151114   2.200   6.239   4.887
16425SOL    HW251115   2.059   6.234   4.832
16426SOL     OW51116   3.270  11.021  11.580
16426SOL    HW151117   3.292  10.962  11.652
16426SOL    HW251118   3.206  10.973  11.528
16427SOL     OW51119   6.098   3.277  12.069
16427SOL    HW151120   6.149   3.199  12.045
16427SOL    HW251121   6.163   3.346  12.081
16428SOL     OW51122  10.719  11.945   0.347
16428SOL    HW151123  10.642  11.995   0.373
16428SOL    HW251124  10.691  11.854   0.347
16429SOL     OW51125   3.966   6.301   1.936
16429SOL    HW151126   3.996   6.256   2.015
16429SOL    HW251127   3.887   6.349   1.963
16430SOL     OW51128   1.385  12.061   4.172
16430SOL    HW151129   1.388  12.029   4.262
16430SOL    HW251130   1.466  12.029   4.132
16431SOL     OW51131   1.602   5.151  14.463
16431SOL    HW151132   1.581   5.209  14.389
16431SOL    HW251133   1.517   5.114  14.489
16432SOL     OW51134  10.566   4.504  11.458
16432SOL    HW151135  10.551   4.487  11.552
16432SOL    HW251136  10.635   4.571  11.457
16433SOL     OW51137  12.559   9.197   5.652
16433SOL    HW151138  12.567   9.165   5.562
16433SOL    HW251139  12.554   9.293   5.643
16434SOL     OW51140   9.177   3.901   8.252
16434SOL    HW151141   9.124   3.831   8.292
16434SOL    HW251142   9.122   3.979   8.258
16435SOL     OW51143   9.881  10.990   6.596
16435SOL    HW151144   9.913  10.902   6.575
16435SOL    HW251145   9.957  11.047   6.583
16436SOL     OW51146  12.809   2.475   5.703
16436SOL    HW151147  12.826   2.553   5.755
16436SOL    HW251148  12.714   2.471   5.696
16437SOL     OW51149   7.971   0.356   6.075
16437SOL    HW151150   7.964   0.343   6.169
16437SOL    HW251151   8.064   0.370   6.059
16438SOL     OW51152  12.893  14.029   1.258
16438SOL    HW151153  12.905  13.952   1.314
16438SOL    HW251154  12.875  14.100   1.319
16439SOL     OW51155   5.234   8.152  12.573
16439SOL    HW151156   5.283   8.075  12.543
16439SOL    HW251157   5.271   8.224  12.523
16440SOL     OW51158  12.782   0.169  10.800
16440SOL    HW151159  12.720   0.188  10.870
16440SOL    HW251160  12.865   0.152  10.845
16441SOL     OW51161   4.667   7.063   6.217
16441SOL    HW151162   4.616   7.103   6.287
16441SOL    HW251163   4.757   7.093   6.232
16442SOL     OW51164  11.002   4.089   9.292
16442SOL    HW151165  10.953   4.171   9.301
16442SOL    HW251166  11.069   4.109   9.226
16443SOL     OW51167   7.109   1.068   1.494
16443SOL    HW151168   7.138   0.982   1.465
16443SOL    HW251169   7.180   1.101   1.549
16444SOL     OW51170  11.207   7.635   5.326
16444SOL    HW151171  11.187   7.559   5.381
16444SOL    HW251172  11.298   7.656   5.348
16445SOL     OW51173   4.155  10.847   4.150
16445SOL    HW151174   4.132  10.893   4.231
16445SOL    HW251175   4.082  10.864   4.091
16446SOL     OW51176  14.679   1.313   4.985
16446SOL    HW151177  14.655   1.396   5.027
16446SOL    HW251178  14.712   1.259   5.056
16447SOL     OW51179   8.818  11.051  13.942
16447SOL    HW151180   8.777  11.087  13.864
16447SOL    HW251181   8.750  11.054  14.009
16448SOL     OW51182  13.851  12.135   7.900
16448SOL    HW151183  13.794  12.121   7.824
16448SOL    HW251184  13.889  12.221   7.886
16449SOL     OW51185   9.317   7.194   7.945
16449SOL    HW151186   9.302   7.287   7.926
16449SOL    HW251187   9.403   7.176   7.907
16450SOL     OW51188  10.697   8.669   5.709
16450SOL    HW151189  10.662   8.644   5.623
16450SOL    HW251190  10.635   8.736   5.740
16451SOL     OW51191  10.159   0.194   7.871
16451SOL    HW151192  10.068   0.218   7.852
16451SOL    HW251193  10.160   0.099   7.865
16452SOL     OW51194  13.056  11.595   2.622
16452SOL    HW151195  13.091  11.510   2.649
16452SOL    HW251196  13.100  11.615   2.540
16453SOL     OW51197   3.985   4.394   6.951
16453SOL    HW151198   4.061   4.341   6.976
16453SOL    HW251199   4.002   4.479   6.991
16454SOL     OW51200   2.453  11.914   0.453
16454SOL    HW151201   2.402  11.994   0.465
16454SOL    HW251202   2.389  11.843   0.467
16455SOL     OW51203  11.222   1.668   9.807
16455SOL    HW151204  11.243   1.609   9.880
16455SOL    HW251205  11.146   1.717   9.838
16456SOL     OW51206   1.133  11.173   2.213
16456SOL    HW151207   1.045  11.170   2.174
16456SOL    HW251208   1.160  11.082   2.218
16457SOL     OW51209   5.164   2.634   5.030
16457SOL    HW151210   5.194   2.609   5.118
16457SOL    HW251211   5.070   2.645   5.038
16458SOL     OW51212   4.197  14.706   4.276
16458SOL    HW151213   4.103  14.712   4.291
16458SOL    HW251214   4.236  14.721   4.362
16459SOL     OW51215  12.054   5.163   0.563
16459SOL    HW151216  12.112   5.111   0.508
16459SOL    HW251217  12.054   5.250   0.522
16460SOL     OW51218   3.803   5.620  12.116
16460SOL    HW151219   3.863   5.682  12.157
16460SOL    HW251220   3.766   5.669  12.042
16461SOL     OW51221  13.954   0.579   4.640
16461SOL    HW151222  13.886   0.589   4.573
16461SOL    HW251223  13.981   0.669   4.659
16462SOL     OW51224  12.510   1.112   9.171
16462SOL    HW151225  12.428   1.069   9.148
16462SOL    HW251226  12.575   1.072   9.113
16463SOL     OW51227   8.136   5.290  10.184
16463SOL    HW151228   8.170   5.325  10.267
16463SOL    HW251229   8.210   5.245  10.145
16464SOL     OW51230   6.630  10.677   9.257
16464SOL    HW151231   6.536  10.661   9.252
16464SOL    HW251232   6.657  10.689   9.166
16465SOL     OW51233  11.764   2.370  13.745
16465SOL    HW151234  11.742   2.463  13.737
16465SOL    HW251235  11.681   2.324  13.734
16466SOL     OW51236   4.125  14.815   3.423
16466SOL    HW151237   4.142  14.722   3.413
16466SOL    HW251238   4.168  14.855   3.347
16467SOL     OW51239   4.085   0.530  14.106
16467SOL    HW151240   4.105   0.560  14.194
16467SOL    HW251241   4.002   0.572  14.084
16468SOL     OW51242   9.424   3.391   1.220
16468SOL    HW151243   9.482   3.440   1.278
16468SOL    HW251244   9.351   3.451   1.204
16469SOL     OW51245  11.548   2.347  13.233
16469SOL    HW151246  11.536   2.441  13.244
16469SOL    HW251247  11.502   2.308  13.308
16470SOL     OW51248  11.105  10.696   5.676
16470SOL    HW151249  11.091  10.730   5.587
16470SOL    HW251250  11.181  10.639   5.669
16471SOL     OW51251   8.454   6.390  14.023
16471SOL    HW151252   8.386   6.325  14.036
16471SOL    HW251253   8.536   6.344  14.043
16472SOL     OW51254   7.132   5.063   2.615
16472SOL    HW151255   7.200   5.108   2.566
16472SOL    HW251256   7.169   5.051   2.702
16473SOL     OW51257   2.096  11.282  10.999
16473SOL    HW151258   2.170  11.328  11.040
16473SOL    HW251259   2.136  11.226  10.933
16474SOL     OW51260   4.575   7.559   1.444
16474SOL    HW151261   4.615   7.639   1.409
16474SOL    HW251262   4.519   7.590   1.515
16475SOL     OW51263  12.945   2.156   3.084
16475SOL    HW151264  12.959   2.195   2.998
16475SOL    HW251265  12.918   2.067   3.066
16476SOL     OW51266   7.770   8.294  14.549
16476SOL    HW151267   7.696   8.324  14.601
16476SOL    HW251268   7.847   8.326  14.595
16477SOL     OW51269  10.223  13.507   5.858
16477SOL    HW151270  10.158  13.446   5.892
16477SOL    HW251271  10.278  13.528   5.933
16478SOL     OW51272   7.030   8.676   5.883
16478SOL    HW151273   6.937   8.694   5.867
16478SOL    HW251274   7.032   8.586   5.914
16479SOL     OW51275   7.263   0.194   0.602
16479SOL    HW151276   7.289   0.128   0.666
16479SOL    HW251277   7.323   0.180   0.528
16480SOL     OW51278  10.811   0.405   8.606
16480SOL    HW151279  10.868   0.440   8.538
16480SOL    HW251280  10.819   0.466   8.679
16481SOL     OW51281  14.687   6.071   3.280
16481SOL    HW151282  14.655   6.068   3.370
16481SOL    HW251283  14.613   6.042   3.227
16482SOL     OW51284  14.422   9.887   2.019
16482SOL    HW151285  14.473   9.893   2.100
16482SOL    HW251286  14.409   9.978   1.992
16483SOL     OW51287  11.432  14.659   5.995
16483SOL    HW151288  11.497  14.709   6.045
16483SOL    HW251289  11.417  14.581   6.048
16484SOL     OW51290   4.238   3.147   5.052
16484SOL    HW151291   4.228   3.067   5.103
16484SOL    HW251292   4.332   3.154   5.037
16485SOL     OW51293   9.882   1.812   1.501
16485SOL    HW151294   9.798   1.765   1.499
16485SOL    HW251295   9.867   1.889   1.446
16486SOL     OW51296   5.959   1.105   7.317
16486SOL    HW151297   6.029   1.088   7.254
16486SOL    HW251298   5.973   1.041   7.387
16487SOL     OW51299   6.157   3.245  13.761
16487SOL    HW151300   6.189   3.324  13.804
16487SOL    HW251301   6.114   3.276  13.681
16488SOL     OW51302   7.629   6.867   5.395
16488SOL    HW151303   7.596   6.782   5.424
16488SOL    HW251304   7.720   6.851   5.371
16489SOL     OW51305   5.237   6.552   7.177
16489SOL    HW151306   5.207   6.487   7.114
16489SOL    HW251307   5.274   6.622   7.124
16490SOL     OW51308  12.727  10.561   9.131
16490SOL    HW151309  12.813  10.555   9.088
16490SOL    HW251310  12.665  10.549   9.059
16491SOL     OW51311   8.759   3.988   2.455
16491SOL    HW151312   8.796   4.068   2.493
16491SOL    HW251313   8.693   3.959   2.518
16492SOL     OW51314   9.872   3.619   9.009
16492SOL    HW151315   9.929   3.574   9.072
16492SOL    HW251316   9.931   3.678   8.962
16493SOL     OW51317  12.149  11.843  14.699
16493SOL    HW151318  12.117  11.754  14.717
16493SOL    HW251319  12.227  11.852  14.755
16494SOL     OW51320  10.734  12.753   9.763
16494SOL    HW151321  10.656  12.745   9.818
16494SOL    HW251322  10.701  12.789   9.680
16495SOL     OW51323   1.325  13.947  13.668
16495SOL    HW151324   1.381  13.894  13.611
16495SOL    HW251325   1.377  14.026  13.685
16496SOL     OW51326   5.806  14.820   9.154
16496SOL    HW151327   5.767  14.758   9.215
16496SOL    HW251328   5.753   0.020   9.163
16497SOL     OW51329   3.530   9.566  12.504
16497SOL    HW151330   3.566   9.653  12.490
16497SOL    HW251331   3.492   9.541  12.420
16498SOL     OW51332   7.845   6.725   4.347
16498SOL    HW151333   7.813   6.808   4.381
16498SOL    HW251334   7.791   6.708   4.270
16499SOL     OW51335   1.868   2.036  10.965
16499SOL    HW151336   1.840   1.957  11.011
16499SOL    HW251337   1.963   2.038  10.976
16500SOL     OW51338   3.816   6.526   6.392
16500SOL    HW151339   3.840   6.539   6.300
16500SOL    HW251340   3.857   6.599   6.438
16501SOL     OW51341   1.315  11.275   7.652
16501SOL    HW151342   1.407  11.301   7.646
16501SOL    HW251343   1.318  11.180   7.660
16502SOL     OW51344   8.617   0.770   9.192
16502SOL    HW151345   8.678   0.840   9.215
16502SOL    HW251346   8.636   0.751   9.100
16503SOL     OW51347  11.916   0.259   8.355
16503SOL    HW151348  11.882   0.251   8.444
16503SOL    HW251349  11.838   0.263   8.300
16504SOL     OW51350   9.277   2.362  11.887
16504SOL    HW151351   9.364   2.322  11.885
16504SOL    HW251352   9.290   2.446  11.930
16505SOL     OW51353  10.505   5.038   0.939
16505SOL    HW151354  10.432   5.063   0.883
16505SOL    HW251355  10.583   5.069   0.893
16506SOL     OW51356   5.716   9.067   7.188
16506SOL    HW151357   5.766   9.144   7.158
16506SOL    HW251358   5.635   9.070   7.137
16507SOL     OW51359  13.880   1.463   6.879
16507SOL    HW151360  13.806   1.428   6.829
16507SOL    HW251361  13.843   1.480   6.966
16508SOL     OW51362  14.595   7.606   1.645
16508SOL    HW151363  14.549   7.544   1.589
16508SOL    HW251364  14.600   7.686   1.593
16509SOL     OW51365  10.251   1.833  12.112
16509SOL    HW151366  10.284   1.770  12.176
16509SOL    HW251367  10.330   1.877  12.079
16510SOL     OW51368   6.051   6.851  14.182
16510SOL    HW151369   5.971   6.810  14.215
16510SOL    HW251370   6.086   6.899  14.258
16511SOL     OW51371   1.546  14.660   7.172
16511SOL    HW151372   1.635  14.659   7.136
16511SOL    HW251373   1.541  14.743   7.220
16512SOL     OW51374  10.405   8.029   9.897
16512SOL    HW151375  10.477   8.083   9.867
16512SOL    HW251376  10.350   8.016   9.820
16513SOL     OW51377   4.411   8.832   0.142
16513SOL    HW151378   4.342   8.769   0.121
16513SOL    HW251379   4.366   8.905   0.185
16514SOL     OW51380  10.803  10.532   2.664
16514SOL    HW151381  10.809  10.619   2.703
16514SOL    HW251382  10.830  10.543   2.573
16515SOL     OW51383   1.518   7.432  12.338
16515SOL    HW151384   1.502   7.419  12.245
16515SOL    HW251385   1.433   7.460  12.373
16516SOL     OW51386   7.541   5.266  12.474
16516SOL    HW151387   7.587   5.205  12.530
16516SOL    HW251388   7.528   5.219  12.392
16517SOL     OW51389   8.718   1.457   1.956
16517SOL    HW151390   8.745   1.373   1.992
16517SOL    HW251391   8.639   1.437   1.905
16518SOL     OW51392   9.482   7.097  11.501
16518SOL    HW151393   9.410   7.124  11.558
16518SOL    HW251394   9.462   7.137  11.416
16519SOL     OW51395  10.005   6.926   7.505
16519SOL    HW151396   9.938   6.868   7.468
16519SOL    HW251397   9.987   7.011   7.466
16520SOL     OW51398   6.219  11.078  10.735
16520SOL    HW151399   6.161  11.031  10.675
16520SOL    HW251400   6.174  11.076  10.819
16521SOL     OW51401   1.460   4.071   5.020
16521SOL    HW151402   1.485   4.079   5.112
16521SOL    HW251403   1.531   4.114   4.972
16522SOL     OW51404   2.199   3.046   2.602
16522SOL    HW151405   2.104   3.050   2.595
16522SOL    HW251406   2.222   2.958   2.573
16523SOL     OW51407   4.398  11.684   1.698
16523SOL    HW151408   4.431  11.664   1.786
16523SOL    HW251409   4.343  11.761   1.710
16524SOL     OW51410  10.750   9.545   5.893
16524SOL    HW151411  10.796   9.463   5.876
16524SOL    HW251412  10.659   9.528   5.868
16525SOL     OW51413   8.828   5.298  13.962
16525SOL    HW151414   8.789   5.210  13.970
16525SOL    HW251415   8.822   5.334  14.051
16526SOL     OW51416  13.293   6.073   5.127
16526SOL    HW151417  13.210   6.025   5.136
16526SOL    HW251418  13.280   6.153   5.178
16527SOL     OW51419  10.685   6.453   7.536
16527SOL    HW151420  10.743   6.380   7.558
16527SOL    HW251421  10.727   6.530   7.574
16528SOL     OW51422   2.846   0.317   9.635
16528SOL    HW151423   2.751   0.312   9.633
16528SOL    HW251424   2.872   0.265   9.711
16529SOL     OW51425  12.943  12.222  12.085
16529SOL    HW151426  13.002  12.200  12.012
16529SOL    HW251427  12.952  12.149  12.146
16530SOL     OW51428   3.422  10.999   0.527
16530SOL    HW151429   3.481  10.934   0.566
16530SOL    HW251430   3.449  11.082   0.565
16531SOL     OW51431   2.671   3.080   3.344
16531SOL    HW151432   2.576   3.090   3.338
16531SOL    HW251433   2.706   3.163   3.311
16532SOL     OW51434   7.348   5.151   6.469
16532SOL    HW151435   7.273   5.116   6.519
16532SOL    HW251436   7.416   5.165   6.535
16533SOL     OW51437  11.024  11.341   0.761
16533SOL    HW151438  11.082  11.266   0.753
16533SOL    HW251439  11.005  11.347   0.854
16534SOL     OW51440   6.370   0.711   3.644
16534SOL    HW151441   6.460   0.709   3.611
16534SOL    HW251442   6.321   0.656   3.582
16535SOL     OW51443  13.157   3.962   2.188
16535SOL    HW151444  13.104   4.029   2.145
16535SOL    HW251445  13.239   3.962   2.140
16536SOL     OW51446   0.751   9.740  10.433
16536SOL    HW151447   0.662   9.776  10.429
16536SOL    HW251448   0.743   9.666  10.493
16537SOL     OW51449   5.282   4.541   5.521
16537SOL    HW151450   5.256   4.603   5.453
16537SOL    HW251451   5.364   4.503   5.490
16538SOL     OW51452  13.430  12.247   3.564
16538SOL    HW151453  13.461  12.159   3.586
16538SOL    HW251454  13.440  12.298   3.645
16539SOL     OW51455   2.199   9.590   9.586
16539SOL    HW151456   2.221   9.601   9.679
16539SOL    HW251457   2.198   9.678   9.551
16540SOL     OW51458  10.904  10.042   9.407
16540SOL    HW151459  10.938  10.005   9.488
16540SOL    HW251460  10.849   9.973   9.371
16541SOL     OW51461   5.149   8.442   1.025
16541SOL    HW151462   5.220   8.492   1.065
16541SOL    HW251463   5.100   8.507   0.973
16542SOL     OW51464  13.635   1.296   0.415
16542SOL    HW151465  13.702   1.348   0.459
16542SOL    HW251466  13.650   1.207   0.447
16543SOL     OW51467  13.730  12.382  14.441
16543SOL    HW151468  13.635  12.366  14.436
16543SOL    HW251469  13.745  12.408  14.532
16544SOL     OW51470   0.838   8.782   0.732
16544SOL    HW151471   0.832   8.845   0.805
16544SOL    HW251472   0.760   8.800   0.680
16545SOL     OW51473   6.063   0.709   2.104
16545SOL    HW151474   5.994   0.774   2.111
16545SOL    HW251475   6.116   0.721   2.183
16546SOL     OW51476  13.853  14.561  14.798
16546SOL    HW151477  13.831  14.469  14.810
16546SOL    HW251478  13.940  14.570  14.837
16547SOL     OW51479   4.473  11.418   6.536
16547SOL    HW151480   4.453  11.325   6.546
16547SOL    HW251481   4.436  11.442   6.451
16548SOL     OW51482   2.531   8.721  12.361
16548SOL    HW151483   2.438   8.707  12.374
16548SOL    HW251484   2.537   8.773  12.281
16549SOL     OW51485   7.378   3.720   5.953
16549SOL    HW151486   7.367   3.703   5.859
16549SOL    HW251487   7.290   3.737   5.985
16550SOL     OW51488  11.031   0.189  10.980
16550SOL    HW151489  11.007   0.253  11.048
16550SOL    HW251490  11.045   0.242  10.902
16551SOL     OW51491   7.618  14.283   4.331
16551SOL    HW151492   7.530  14.249   4.314
16551SOL    HW251493   7.671  14.247   4.260
16552SOL     OW51494  14.430   5.272   2.066
16552SOL    HW151495  14.353   5.227   2.100
16552SOL    HW251496  14.403   5.363   2.056
16553SOL     OW51497   2.492  11.477  13.077
16553SOL    HW151498   2.481  11.448  12.987
16553SOL    HW251499   2.467  11.402  13.130
16554SOL     OW51500   3.308   4.115   6.724
16554SOL    HW151501   3.265   4.035   6.693
16554SOL    HW251502   3.386   4.123   6.670
16555SOL     OW51503  10.281   9.019   5.123
16555SOL    HW151504  10.320   8.999   5.038
16555SOL    HW251505  10.290   8.939   5.174
16556SOL     OW51506   9.432  14.366  13.698
16556SOL    HW151507   9.454  14.297  13.635
16556SOL    HW251508   9.436  14.323  13.784
16557SOL     OW51509  12.214   5.520  13.819
16557SOL    HW151510  12.148   5.572  13.865
16557SOL    HW251511  12.286   5.581  13.803
16558SOL     OW51512   6.979   2.377   9.690
16558SOL    HW151513   6.886   2.386   9.670
16558SOL    HW251514   6.981   2.319   9.766
16559SOL     OW51515   0.800  11.341  12.669
16559SOL    HW151516   0.787  11.429  12.633
16559SOL    HW251517   0.885  11.346  12.713
16560SOL     OW51518   4.653  12.971   8.804
16560SOL    HW151519   4.660  13.031   8.730
16560SOL    HW251520   4.592  13.015   8.864
16561SOL     OW51521  11.565  14.809   5.356
16561SOL    HW151522  11.612  14.726   5.350
16561SOL    HW251523  11.492  14.792   5.415
16562SOL     OW51524   4.279   9.435  10.413
16562SOL    HW151525   4.206   9.443  10.351
16562SOL    HW251526   4.333   9.511  10.397
16563SOL     OW51527   1.480   4.532  12.152
16563SOL    HW151528   1.462   4.472  12.224
16563SOL    HW251529   1.536   4.600  12.191
16564SOL     OW51530   9.395  10.909   2.319
16564SOL    HW151531   9.346  10.955   2.388
16564SOL    HW251532   9.334  10.843   2.287
16565SOL     OW51533   8.256   7.590   0.913
16565SOL    HW151534   8.289   7.502   0.893
16565SOL    HW251535   8.167   7.575   0.944
16566SOL     OW51536   9.428  11.564   4.940
16566SOL    HW151537   9.435  11.626   4.867
16566SOL    HW251538   9.334  11.547   4.947
16567SOL     OW51539  11.422   0.636   5.966
16567SOL    HW151540  11.498   0.625   6.023
16567SOL    HW251541  11.450   0.599   5.882
16568SOL     OW51542  13.974   2.344  11.495
16568SOL    HW151543  14.006   2.387  11.416
16568SOL    HW251544  14.041   2.363  11.562
16569SOL     OW51545   5.111  14.183  13.794
16569SOL    HW151546   5.202  14.167  13.820
16569SOL    HW251547   5.059  14.146  13.865
16570SOL     OW51548  14.797  10.373   0.026
16570SOL    HW151549  14.843  10.432   0.086
16570SOL    HW251550  14.733  10.329   0.081
16571SOL     OW51551  14.517  10.704   3.878
16571SOL    HW151552  14.468  10.744   3.806
16571SOL    HW251553  14.517  10.610   3.858
16572SOL     OW51554   6.917   0.592  10.239
16572SOL    HW151555   6.966   0.633  10.310
16572SOL    HW251556   6.934   0.647  10.163
16573SOL     OW51557   0.432   8.135  13.623
16573SOL    HW151558   0.469   8.053  13.655
16573SOL    HW251559   0.351   8.109  13.579
16574SOL     OW51560  12.408   4.432   3.127
16574SOL    HW151561  12.327   4.403   3.084
16574SOL    HW251562  12.380   4.459   3.215
16575SOL     OW51563   6.680   5.922   9.072
16575SOL    HW151564   6.645   5.918   9.161
16575SOL    HW251565   6.766   5.882   9.078
16576SOL     OW51566   5.322   0.406   9.228
16576SOL    HW151567   5.271   0.470   9.177
16576SOL    HW251568   5.414   0.429   9.210
16577SOL     OW51569  14.095  12.752   3.077
16577SOL    HW151570  14.103  12.788   2.988
16577SOL    HW251571  14.142  12.668   3.073
16578SOL     OW51572  13.796  13.059   5.757
16578SOL    HW151573  13.782  13.078   5.665
16578SOL    HW251574  13.870  13.114   5.782
16579SOL     OW51575   5.513  13.719  14.208
16579SOL    HW151576   5.542  13.670  14.131
16579SOL    HW251577   5.592  13.731  14.260
16580SOL     OW51578   5.400   5.288  12.720
16580SOL    HW151579   5.356   5.279  12.635
16580SOL    HW251580   5.439   5.375  12.718
16581SOL     OW51581   6.248   5.407   8.643
16581SOL    HW151582   6.317   5.368   8.588
16581SOL    HW251583   6.290   5.483   8.683
16582SOL     OW51584  14.509   8.327  12.651
16582SOL    HW151585  14.502   8.384  12.573
16582SOL    HW251586  14.600   8.336  12.678
16583SOL     OW51587  13.135   6.700   3.708
16583SOL    HW151588  13.077   6.630   3.736
16583SOL    HW251589  13.085   6.749   3.643
16584SOL     OW51590   5.097   5.993  10.831
16584SOL    HW151591   5.140   5.943  10.762
16584SOL    HW251592   5.162   6.000  10.901
16585SOL     OW51593  14.274   1.241  10.463
16585SOL    HW151594  14.270   1.175  10.532
16585SOL    HW251595  14.367   1.263  10.455
16586SOL     OW51596   6.167   6.297   7.137
16586SOL    HW151597   6.173   6.393   7.143
16586SOL    HW251598   6.078   6.280   7.107
16587SOL     OW51599   0.590  11.087   3.343
16587SOL    HW151600   0.513  11.056   3.296
16587SOL    HW251601   0.653  11.108   3.273
16588SOL     OW51602  14.640  13.308  11.410
16588SOL    HW151603  14.710  13.269  11.356
16588SOL    HW251604  14.582  13.349  11.347
16589SOL     OW51605  12.154   3.159   2.267
16589SOL    HW151606  12.157   3.254   2.280
16589SOL    HW251607  12.076   3.131   2.314
16590SOL     OW51608   2.597   8.133  14.117
16590SOL    HW151609   2.632   8.215  14.154
16590SOL    HW251610   2.665   8.068  14.137
16591SOL     OW51611   7.180   5.539   5.511
16591SOL    HW151612   7.244   5.476   5.477
16591SOL    HW251613   7.101   5.524   5.459
16592SOL     OW51614   3.534   0.959   2.953
16592SOL    HW151615   3.613   0.920   2.917
16592SOL    HW251616   3.529   0.925   3.043
16593SOL     OW51617  12.614   8.464   8.229
16593SOL    HW151618  12.594   8.536   8.289
16593SOL    HW251619  12.537   8.407   8.233
16594SOL     OW51620  13.054   2.901   0.243
16594SOL    HW151621  13.068   2.818   0.197
16594SOL    HW251622  13.007   2.876   0.323
16595SOL     OW51623   5.202  11.585   3.959
16595SOL    HW151624   5.223  11.645   4.031
16595SOL    HW251625   5.286  11.567   3.917
16596SOL     OW51626   8.925  10.900  10.115
16596SOL    HW151627   8.979  10.824  10.092
16596SOL    HW251628   8.978  10.975  10.090
16597SOL     OW51629  12.651   2.247   2.879
16597SOL    HW151630  12.745   2.252   2.893
16597SOL    HW251631  12.624   2.336   2.859
16598SOL     OW51632   8.254  13.324   2.043
16598SOL    HW151633   8.284  13.403   1.999
16598SOL    HW251634   8.316  13.256   2.015
16599SOL     OW51635   8.638  11.767  12.523
16599SOL    HW151636   8.693  11.689  12.532
16599SOL    HW251637   8.551  11.733  12.504
16600SOL     OW51638   6.204  12.378  12.868
16600SOL    HW151639   6.201  12.364  12.963
16600SOL    HW251640   6.221  12.472  12.859
16601SOL     OW51641   3.475   9.308  14.323
16601SOL    HW151642   3.563   9.331  14.353
16601SOL    HW251643   3.417   9.340  14.391
16602SOL     OW51644   6.776  11.057  12.347
16602SOL    HW151645   6.714  11.082  12.416
16602SOL    HW251646   6.844  11.125  12.350
16603SOL     OW51647  11.826   7.326  13.031
16603SOL    HW151648  11.754   7.378  13.067
16603SOL    HW251649  11.825   7.346  12.937
16604SOL     OW51650   9.332  14.720   9.802
16604SOL    HW151651   9.391  14.681   9.867
16604SOL    HW251652   9.255  14.662   9.803
16605SOL     OW51653   3.752  13.958  11.247
16605SOL    HW151654   3.656  13.950  11.246
16605SOL    HW251655   3.768  14.052  11.251
16606SOL     OW51656   4.405  12.356   1.220
16606SOL    HW151657   4.310  12.350   1.218
16606SOL    HW251658   4.435  12.265   1.230
16607SOL     OW51659   9.991   2.738   7.608
16607SOL    HW151660   9.999   2.667   7.671
16607SOL    HW251661   9.899   2.740   7.584
16608SOL     OW51662   1.264  11.536   7.733
16608SOL    HW151663   1.263  11.443   7.711
16608SOL    HW251664   1.356  11.562   7.723
16609SOL     OW51665   0.190   9.919  11.029
16609SOL    HW151666   0.122   9.877  10.977
16609SOL    HW251667   0.247   9.848  11.058
16610SOL     OW51668   1.909   1.533   9.472
16610SOL    HW151669   1.889   1.515   9.564
16610SOL    HW251670   1.836   1.492   9.424
16611SOL     OW51671   5.206   0.965   3.204
16611SOL    HW151672   5.152   1.038   3.233
16611SOL    HW251673   5.267   1.005   3.141
16612SOL     OW51674   0.881  14.580   3.742
16612SOL    HW151675   0.975  14.563   3.746
16612SOL    HW251676   0.856  14.600   3.832
16613SOL     OW51677   5.322   0.847  10.937
16613SOL    HW151678   5.296   0.812  10.852
16613SOL    HW251679   5.268   0.925  10.948
16614SOL     OW51680   5.417   7.164   9.414
16614SOL    HW151681   5.390   7.182   9.504
16614SOL    HW251682   5.495   7.109   9.423
16615SOL     OW51683   5.765   1.423  13.813
16615SOL    HW151684   5.859   1.414  13.796
16615SOL    HW251685   5.752   1.378  13.897
16616SOL     OW51686   7.939  12.177  10.915
16616SOL    HW151687   7.877  12.179  10.988
16616SOL    HW251688   8.016  12.223  10.948
16617SOL     OW51689   0.274   4.352  13.354
16617SOL    HW151690   0.212   4.287  13.388
16617SOL    HW251691   0.320   4.384  13.431
16618SOL     OW51692  12.468   2.771  12.244
16618SOL    HW151693  12.390   2.768  12.300
16618SOL    HW251694  12.494   2.863  12.242
16619SOL     OW51695   0.676   9.274  11.234
16619SOL    HW151696   0.770   9.282  11.221
16619SOL    HW251697   0.667   9.204  11.298
16620SOL     OW51698   9.943   2.300   6.205
16620SOL    HW151699   9.992   2.224   6.176
16620SOL    HW251700  10.002   2.346   6.265
16621SOL     OW51701  12.622   5.210  13.465
16621SOL    HW151702  12.609   5.117  13.484
16621SOL    HW251703  12.700   5.212  13.409
16622SOL     OW51704   2.252   8.808   2.295
16622SOL    HW151705   2.194   8.801   2.219
16622SOL    HW251706   2.193   8.825   2.368
16623SOL     OW51707  13.002   2.680   2.059
16623SOL    HW151708  12.995   2.731   1.978
16623SOL    HW251709  12.912   2.650   2.076
16624SOL     OW51710   0.564  11.412   9.021
16624SOL    HW151711   0.580  11.488   9.077
16624SOL    HW251712   0.470  11.414   9.004
16625SOL     OW51713   7.970   1.230   8.142
16625SOL    HW151714   7.875   1.226   8.153
16625SOL    HW251715   8.001   1.277   8.219
16626SOL     OW51716   8.228  13.971   1.861
16626SOL    HW151717   8.285  13.896   1.877
16626SOL    HW251718   8.207  14.004   1.948
16627SOL     OW51719   0.610  12.840  14.283
16627SOL    HW151720   0.668  12.810  14.353
16627SOL    HW251721   0.621  12.935  14.282
16628SOL     OW51722   3.444   6.638   4.312
16628SOL    HW151723   3.436   6.723   4.356
16628SOL    HW251724   3.526   6.644   4.263
16629SOL     OW51725   6.373  13.671  13.518
16629SOL    HW151726   6.453  13.690  13.568
16629SOL    HW251727   6.302  13.697  13.577
16630SOL     OW51728  10.012   6.988   4.646
16630SOL    HW151729   9.931   6.945   4.616
16630SOL    HW251730   9.991   7.081   4.646
16631SOL     OW51731   1.051  11.497   3.421
16631SOL    HW151732   1.051  11.541   3.336
16631SOL    HW251733   1.106  11.420   3.408
16632SOL     OW51734   4.422   0.492  14.346
16632SOL    HW151735   4.438   0.514  14.437
16632SOL    HW251736   4.475   0.554  14.296
16633SOL     OW51737  11.303  10.618   8.300
16633SOL    HW151738  11.278  10.583   8.214
16633SOL    HW251739  11.240  10.578   8.360
16634SOL     OW51740   4.264  10.809   8.723
16634SOL    HW151741   4.174  10.823   8.693
16634SOL    HW251742   4.271  10.714   8.735
16635SOL     OW51743  12.649   6.054   3.880
16635SOL    HW151744  12.669   6.141   3.845
16635SOL    HW251745  12.646   5.998   3.803
16636SOL     OW51746   5.203  11.523  11.482
16636SOL    HW151747   5.115  11.559  11.467
16636SOL    HW251748   5.210  11.519  11.578
16637SOL     OW51749   7.724   1.717   4.853
16637SOL    HW151750   7.664   1.647   4.878
16637SOL    HW251751   7.673   1.797   4.865
16638SOL     OW51752   0.663   9.751  14.531
16638SOL    HW151753   0.689   9.791  14.615
16638SOL    HW251754   0.573   9.721  14.546
16639SOL     OW51755   3.193   1.229   7.543
16639SOL    HW151756   3.254   1.278   7.490
16639SOL    HW251757   3.176   1.285   7.619
16640SOL     OW51758   1.856   7.700   4.272
16640SOL    HW151759   1.856   7.604   4.277
16640SOL    HW251760   1.841   7.729   4.362
16641SOL     OW51761  10.037   4.136   7.203
16641SOL    HW151762  10.057   4.230   7.204
16641SOL    HW251763  10.042   4.111   7.111
16642SOL     OW51764   6.433   4.830   3.816
16642SOL    HW151765   6.459   4.894   3.751
16642SOL    HW251766   6.466   4.864   3.899
16643SOL     OW51767  12.439   4.211  13.935
16643SOL    HW151768  12.388   4.143  13.891
16643SOL    HW251769  12.454   4.177  14.023
16644SOL     OW51770   0.862  12.789  10.760
16644SOL    HW151771   0.789  12.783  10.822
16644SOL    HW251772   0.937  12.754  10.808
16645SOL     OW51773   3.676  10.606   1.832
16645SOL    HW151774   3.698  10.697   1.851
16645SOL    HW251775   3.581  10.608   1.815
16646SOL     OW51776   4.421   7.476   6.143
16646SOL    HW151777   4.482   7.475   6.217
16646SOL    HW251778   4.475   7.499   6.067
16647SOL     OW51779   7.930   0.937  14.315
16647SOL    HW151780   7.969   0.937  14.228
16647SOL    HW251781   7.886   0.853  14.322
16648SOL     OW51782  14.308   3.299   5.756
16648SOL    HW151783  14.330   3.205   5.758
16648SOL    HW251784  14.391   3.342   5.734
16649SOL     OW51785   3.852  10.446   6.014
16649SOL    HW151786   3.818  10.535   6.022
16649SOL    HW251787   3.884  10.425   6.102
16650SOL     OW51788   0.415  14.428   4.961
16650SOL    HW151789   0.377  14.385   4.884
16650SOL    HW251790   0.504  14.452   4.933
16651SOL     OW51791  11.444  12.499   3.481
16651SOL    HW151792  11.398  12.543   3.409
16651SOL    HW251793  11.436  12.559   3.555
16652SOL     OW51794  14.755   6.424   5.976
16652SOL    HW151795  14.687   6.372   5.934
16652SOL    HW251796  14.712   6.506   6.000
16653SOL     OW51797   9.049   5.949   2.717
16653SOL    HW151798   9.122   6.008   2.699
16653SOL    HW251799   9.022   5.916   2.631
16654SOL     OW51800   4.163   6.141  13.564
16654SOL    HW151801   4.138   6.210  13.503
16654SOL    HW251802   4.118   6.163  13.646
16655SOL     OW51803  12.255   1.086   8.521
16655SOL    HW151804  12.234   1.042   8.438
16655SOL    HW251805  12.296   1.017   8.574
16656SOL     OW51806   7.163   5.547  10.164
16656SOL    HW151807   7.137   5.471  10.216
16656SOL    HW251808   7.211   5.511  10.090
16657SOL     OW51809   2.822   5.527   6.484
16657SOL    HW151810   2.891   5.592   6.499
16657SOL    HW251811   2.863   5.462   6.426
16658SOL     OW51812   4.536   7.641  12.164
16658SOL    HW151813   4.569   7.727  12.192
16658SOL    HW251814   4.494   7.604  12.242
16659SOL     OW51815   4.070   9.481  10.881
16659SOL    HW151816   4.079   9.433  10.798
16659SOL    HW251817   3.978   9.472  10.904
16660SOL     OW51818   3.087  14.812   9.805
16660SOL    HW151819   3.153  14.856   9.858
16660SOL    HW251820   3.095  14.852   9.719
16661SOL     OW51821  12.902  12.595   5.409
16661SOL    HW151822  12.920  12.689   5.405
16661SOL    HW251823  12.854  12.584   5.491
16662SOL     OW51824   8.564   3.887   8.882
16662SOL    HW151825   8.523   3.882   8.795
16662SOL    HW251826   8.530   3.968   8.920
16663SOL     OW51827   8.582   3.837  12.979
16663SOL    HW151828   8.561   3.921  13.020
16663SOL    HW251829   8.677   3.839  12.968
16664SOL     OW51830   1.214   6.054   0.095
16664SOL    HW151831   1.252   6.135   0.130
16664SOL    HW251832   1.288   6.006   0.059
16665SOL     OW51833   3.588   8.450   6.535
16665SOL    HW151834   3.626   8.384   6.593
16665SOL    HW251835   3.562   8.521   6.593
16666SOL     OW51836   4.521   5.288   0.043
16666SOL    HW151837   4.553   5.374   0.016
16666SOL    HW251838   4.575   5.225  14.875
16667SOL     OW51839  12.265   5.762  14.202
16667SOL    HW151840  12.226   5.717  14.278
16667SOL    HW251841  12.204   5.745  14.131
16668SOL     OW51842   4.703   0.030   3.951
16668SOL    HW151843   4.642   0.095   3.915
16668SOL    HW251844   4.662   0.002   4.033
16669SOL     OW51845   0.386   8.150  11.275
16669SOL    HW151846   0.432   8.210  11.334
16669SOL    HW251847   0.368   8.203  11.197
16670SOL     OW51848  13.119  13.267   0.334
16670SOL    HW151849  13.053  13.292   0.269
16670SOL    HW251850  13.069  13.222   0.402
16671SOL     OW51851   9.123   1.970  14.075
16671SOL    HW151852   9.125   2.037  14.143
16671SOL    HW251853   9.034   1.975  14.040
16672SOL     OW51854   1.992   5.592   6.869
16672SOL    HW151855   1.938   5.571   6.793
16672SOL    HW251856   1.930   5.619   6.937
16673SOL     OW51857   4.769   6.203   0.732
16673SOL    HW151858   4.729   6.121   0.764
16673SOL    HW251859   4.796   6.248   0.812
16674SOL     OW51860  14.042   6.053   5.683
16674SOL    HW151861  14.005   6.135   5.652
16674SOL    HW251862  13.968   6.004   5.719
16675SOL     OW51863  11.626   1.380  14.016
16675SOL    HW151864  11.570   1.352  13.943
16675SOL    HW251865  11.591   1.465  14.041
16676SOL     OW51866   3.843  12.293   1.715
16676SOL    HW151867   3.917  12.333   1.760
16676SOL    HW251868   3.797  12.244   1.784
16677SOL     OW51869   1.581  12.149  13.843
16677SOL    HW151870   1.636  12.224  13.866
16677SOL    HW251871   1.638  12.092  13.791
16678SOL     OW51872   1.799   5.113   2.267
16678SOL    HW151873   1.814   5.189   2.324
16678SOL    HW251874   1.844   5.135   2.186
16679SOL     OW51875   3.154   5.461  14.399
16679SOL    HW151876   3.202   5.385  14.433
16679SOL    HW251877   3.178   5.465  14.307
16680SOL     OW51878   5.934  11.030   6.886
16680SOL    HW151879   5.861  10.972   6.907
16680SOL    HW251880   5.898  11.094   6.825
16681SOL     OW51881   1.481   0.278   2.001
16681SOL    HW151882   1.456   0.273   1.909
16681SOL    HW251883   1.534   0.357   2.008
16682SOL     OW51884   1.532   3.116  14.736
16682SOL    HW151885   1.505   3.024  14.742
16682SOL    HW251886   1.604   3.124  14.799
16683SOL     OW51887   3.257  13.645   9.657
16683SOL    HW151888   3.352  13.660   9.655
16683SOL    HW251889   3.230  13.673   9.744
16684SOL     OW51890   8.355   8.279   9.081
16684SOL    HW151891   8.322   8.369   9.085
16684SOL    HW251892   8.277   8.225   9.077
16685SOL     OW51893   2.111   5.240   1.151
16685SOL    HW151894   2.120   5.329   1.118
16685SOL    HW251895   2.089   5.187   1.074
16686SOL     OW51896   8.843   0.743  10.822
16686SOL    HW151897   8.929   0.716  10.855
16686SOL    HW251898   8.843   0.715  10.731
16687SOL     OW51899  11.246   5.665  11.117
16687SOL    HW151900  11.318   5.694  11.172
16687SOL    HW251901  11.285   5.600  11.059
16688SOL     OW51902   3.947   5.451  11.760
16688SOL    HW151903   3.852   5.438  11.753
16688SOL    HW251904   3.985   5.373  11.721
16689SOL     OW51905   2.456   2.913  10.873
16689SOL    HW151906   2.537   2.883  10.833
16689SOL    HW251907   2.445   3.003  10.842
16690SOL     OW51908  11.227   7.043   0.549
16690SOL    HW151909  11.249   7.053   0.642
16690SOL    HW251910  11.146   6.991   0.550
16691SOL     OW51911   1.619  10.591   1.618
16691SOL    HW151912   1.569  10.509   1.619
16691SOL    HW251913   1.704  10.569   1.656
16692SOL     OW51914   8.543   4.175   8.576
16692SOL    HW151915   8.451   4.182   8.604
16692SOL    HW251916   8.580   4.261   8.595
16693SOL     OW51917   6.783   3.236   9.881
16693SOL    HW151918   6.840   3.232   9.804
16693SOL    HW251919   6.794   3.152   9.924
16694SOL     OW51920  14.278  12.284   0.006
16694SOL    HW151921  14.342  12.353  14.865
16694SOL    HW251922  14.263  12.294   0.100
16695SOL     OW51923  12.887   7.213   0.083
16695SOL    HW151924  12.958   7.224   0.146
16695SOL    HW251925  12.816   7.174   0.133
16696SOL     OW51926  14.707   9.893  10.339
16696SOL    HW151927  14.739   9.883  10.250
16696SOL    HW251928  14.780   9.863  10.394
16697SOL     OW51929  14.734   9.170   1.929
16697SOL    HW151930  14.708   9.144   2.017
16697SOL    HW251931  14.655   9.206   1.890
16698SOL     OW51932   6.919  14.359   3.830
16698SOL    HW151933   6.988  14.345   3.765
16698SOL    HW251934   6.911  14.275   3.875
16699SOL     OW51935   1.475   3.016   7.175
16699SOL    HW151936   1.385   3.026   7.203
16699SOL    HW251937   1.501   2.929   7.204
16700SOL     OW51938   5.875  14.206   3.933
16700SOL    HW151939   5.802  14.146   3.947
16700SOL    HW251940   5.845  14.289   3.970
16701SOL     OW51941   3.057  12.144  12.994
16701SOL    HW151942   3.059  12.057  12.954
16701SOL    HW251943   2.981  12.186  12.955
16702SOL     OW51944  14.036   7.892  13.169
16702SOL    HW151945  14.096   7.919  13.099
16702SOL    HW251946  14.053   7.798  13.180
16703SOL     OW51947   7.847  10.644  13.649
16703SOL    HW151948   7.757  10.659  13.677
16703SOL    HW251949   7.840  10.601  13.565
16704SOL     OW51950   5.631   1.208  13.676
16704SOL    HW151951   5.685   1.272  13.721
16704SOL    HW251952   5.561   1.260  13.636
16705SOL     OW51953   6.937   5.181  14.499
16705SOL    HW151954   6.924   5.223  14.414
16705SOL    HW251955   7.032   5.167  14.504
16706SOL     OW51956  14.187  10.578   2.009
16706SOL    HW151957  14.170  10.548   1.920
16706SOL    HW251958  14.175  10.500   2.064
16707SOL     OW51959  11.638  10.621   2.874
16707SOL    HW151960  11.709  10.683   2.888
16707SOL    HW251961  11.637  10.568   2.954
16708SOL     OW51962   0.034  11.378   6.381
16708SOL    HW151963   0.083  11.297   6.390
16708SOL    HW251964  14.834  11.353   6.333
16709SOL     OW51965   6.344   2.506   5.701
16709SOL    HW151966   6.351   2.463   5.616
16709SOL    HW251967   6.262   2.556   5.696
16710SOL     OW51968  10.060   9.856   1.026
16710SOL    HW151969  10.049   9.775   1.074
16710SOL    HW251970  10.086   9.829   0.938
16711SOL     OW51971   0.190  13.491   8.702
16711SOL    HW151972   0.281  13.513   8.681
16711SOL    HW251973   0.195  13.445   8.785
16712SOL     OW51974   3.253   5.439   3.174
16712SOL    HW151975   3.218   5.524   3.201
16712SOL    HW251976   3.179   5.379   3.183
16713SOL     OW51977   6.840  13.293  10.340
16713SOL    HW151978   6.782  13.349  10.289
16713SOL    HW251979   6.893  13.354  10.392
16714SOL     OW51980   0.638  13.750  14.271
16714SOL    HW151981   0.663  13.676  14.326
16714SOL    HW251982   0.542  13.747  14.269
16715SOL     OW51983  11.244   2.686  10.903
16715SOL    HW151984  11.246   2.626  10.829
16715SOL    HW251985  11.264   2.772  10.866
16716SOL     OW51986  13.282   9.223  11.278
16716SOL    HW151987  13.196   9.241  11.240
16716SOL    HW251988  13.266   9.157  11.345
16717SOL     OW51989  12.331   7.621   8.097
16717SOL    HW151990  12.300   7.640   8.185
16717SOL    HW251991  12.416   7.579   8.109
16718SOL     OW51992   2.434   1.693   9.066
16718SOL    HW151993   2.458   1.626   9.130
16718SOL    HW251994   2.488   1.674   8.989
16719SOL     OW51995   1.214   5.738   9.542
16719SOL    HW151996   1.137   5.708   9.590
16719SOL    HW251997   1.288   5.697   9.587
16720SOL     OW51998   9.568   4.113  14.813
16720SOL    HW151999   9.543   4.166   0.009
16720SOL    HW252000   9.494   4.121  14.753
16721SOL     OW52001   0.735   0.437   1.045
16721SOL    HW152002   0.816   0.394   1.017
16721SOL    HW252003   0.703   0.383   1.117
16722SOL     OW52004  12.134  12.170   6.443
16722SOL    HW152005  12.094  12.179   6.357
16722SOL    HW252006  12.226  12.193   6.429
16723SOL     OW52007   3.935   3.408  13.536
16723SOL    HW152008   4.024   3.422  13.504
16723SOL    HW252009   3.932   3.455  13.619
16724SOL     OW52010   9.386   0.631   7.046
16724SOL    HW152011   9.425   0.594   7.126
16724SOL    HW252012   9.297   0.596   7.045
16725SOL     OW52013   6.906   7.581  13.108
16725SOL    HW152014   6.931   7.488  13.103
16725SOL    HW252015   6.812   7.580  13.125
16726SOL     OW52016  12.692  11.970   8.271
16726SOL    HW152017  12.666  11.920   8.194
16726SOL    HW252018  12.744  11.909   8.323
16727SOL     OW52019  14.603  10.631  10.267
16727SOL    HW152020  14.636  10.554  10.219
16727SOL    HW252021  14.539  10.595  10.329
16728SOL     OW52022   2.408  12.167  12.635
16728SOL    HW152023   2.397  12.095  12.696
16728SOL    HW252024   2.454  12.234  12.685
16729SOL     OW52025   3.025   3.519   3.782
16729SOL    HW152026   3.097   3.526   3.844
16729SOL    HW252027   3.035   3.594   3.724
16730SOL     OW52028   7.519   7.668  12.888
16730SOL    HW152029   7.527   7.763  12.873
16730SOL    HW252030   7.525   7.658  12.983
16731SOL     OW52031   7.054  11.828   1.406
16731SOL    HW152032   7.140  11.788   1.395
16731SOL    HW252033   6.999  11.786   1.340
16732SOL     OW52034   1.749   0.522  13.554
16732SOL    HW152035   1.702   0.599  13.524
16732SOL    HW252036   1.733   0.455  13.488
16733SOL     OW52037   9.970   5.769   9.819
16733SOL    HW152038   9.911   5.720   9.761
16733SOL    HW252039  10.054   5.724   9.811
16734SOL     OW52040   3.192   6.859   1.569
16734SOL    HW152041   3.210   6.940   1.618
16734SOL    HW252042   3.096   6.852   1.569
16735SOL     OW52043   8.165   8.193   0.529
16735SOL    HW152044   8.217   8.223   0.603
16735SOL    HW252045   8.182   8.099   0.524
16736SOL     OW52046  13.276   4.471   8.461
16736SOL    HW152047  13.242   4.549   8.419
16736SOL    HW252048  13.356   4.500   8.505
16737SOL     OW52049  10.210   7.109   8.054
16737SOL    HW152050  10.126   7.095   8.010
16737SOL    HW252051  10.273   7.117   7.982
16738SOL     OW52052  13.189  13.981   2.280
16738SOL    HW152053  13.243  14.005   2.204
16738SOL    HW252054  13.251  13.973   2.352
16739SOL     OW52055   8.700   1.058   9.527
16739SOL    HW152056   8.628   0.998   9.504
16739SOL    HW252057   8.657   1.132   9.569
16740SOL     OW52058   5.326   8.294   8.037
16740SOL    HW152059   5.410   8.293   7.992
16740SOL    HW252060   5.295   8.384   8.028
16741SOL     OW52061   7.020   2.064  10.615
16741SOL    HW152062   6.991   1.997  10.553
16741SOL    HW252063   6.965   2.139  10.596
16742SOL     OW52064  14.388   3.588  10.235
16742SOL    HW152065  14.339   3.525  10.288
16742SOL    HW252066  14.353   3.577  10.147
16743SOL     OW52067   5.385   4.460  10.444
16743SOL    HW152068   5.354   4.421  10.525
16743SOL    HW252069   5.313   4.448  10.382
16744SOL     OW52070  12.029  13.387  12.615
16744SOL    HW152071  11.997  13.390  12.705
16744SOL    HW252072  12.060  13.476  12.597
16745SOL     OW52073  12.125   0.097   5.475
16745SOL    HW152074  12.032   0.094   5.497
16745SOL    HW252075  12.137   0.024   5.413
16746SOL     OW52076   4.590   7.887   5.727
16746SOL    HW152077   4.679   7.922   5.727
16746SOL    HW252078   4.556   7.908   5.640
16747SOL     OW52079  11.518  11.214   2.336
16747SOL    HW152080  11.500  11.141   2.395
16747SOL    HW252081  11.439  11.220   2.281
16748SOL     OW52082  10.169   3.721  10.814
16748SOL    HW152083  10.127   3.712  10.728
16748SOL    HW252084  10.255   3.757  10.795
16749SOL     OW52085   5.983  10.775   4.415
16749SOL    HW152086   6.041  10.773   4.490
16749SOL    HW252087   5.919  10.843   4.436
16750SOL     OW52088  12.621   7.693  10.496
16750SOL    HW152089  12.659   7.669  10.412
16750SOL    HW252090  12.668   7.773  10.521
16751SOL     OW52091   9.211  10.069  10.726
16751SOL    HW152092   9.250  10.022  10.800
16751SOL    HW252093   9.286  10.105  10.679
16752SOL     OW52094  13.793  13.607   9.227
16752SOL    HW152095  13.834  13.688   9.256
16752SOL    HW252096  13.867  13.551   9.201
16753SOL     OW52097   0.463   1.700   7.351
16753SOL    HW152098   0.557   1.690   7.370
16753SOL    HW252099   0.448   1.645   7.274
16754SOL     OW52100   5.280   4.805   7.140
16754SOL    HW152101   5.263   4.718   7.177
16754SOL    HW252102   5.375   4.811   7.138
16755SOL     OW52103  10.248   3.769  13.447
16755SOL    HW152104  10.317   3.810  13.498
16755SOL    HW252105  10.178   3.834  13.443
16756SOL     OW52106   8.563   1.127   2.980
16756SOL    HW152107   8.469   1.135   2.995
16756SOL    HW252108   8.576   1.162   2.891
16757SOL     OW52109   9.947   4.806   4.312
16757SOL    HW152110  10.032   4.840   4.338
16757SOL    HW252111   9.899   4.796   4.394
16758SOL     OW52112   5.251   6.732   4.743
16758SOL    HW152113   5.290   6.660   4.693
16758SOL    HW252114   5.313   6.747   4.815
16759SOL     OW52115   6.599   3.129   5.444
16759SOL    HW152116   6.682   3.115   5.398
16759SOL    HW252117   6.561   3.042   5.450
16760SOL     OW52118   2.889   2.952   0.626
16760SOL    HW152119   2.904   2.941   0.720
16760SOL    HW252120   2.816   3.012   0.620
16761SOL     OW52121   5.882   2.140   0.819
16761SOL    HW152122   5.813   2.113   0.880
16761SOL    HW252123   5.963   2.134   0.869
16762SOL     OW52124  10.294  14.208   3.961
16762SOL    HW152125  10.216  14.174   3.918
16762SOL    HW252126  10.298  14.160   4.044
16763SOL     OW52127   6.307   7.490   4.397
16763SOL    HW152128   6.380   7.468   4.339
16763SOL    HW252129   6.229   7.485   4.342
16764SOL     OW52130   6.017   1.809  11.970
16764SOL    HW152131   6.043   1.725  11.931
16764SOL    HW252132   5.942   1.787  12.026
16765SOL     OW52133  11.427   1.943   2.167
16765SOL    HW152134  11.447   2.015   2.226
16765SOL    HW252135  11.350   1.972   2.118
16766SOL     OW52136  11.693  10.690  14.345
16766SOL    HW152137  11.776  10.686  14.393
16766SOL    HW252138  11.632  10.638  14.397
16767SOL     OW52139  12.882   0.581  11.079
16767SOL    HW152140  12.879   0.627  10.995
16767SOL    HW252141  12.837   0.640  11.139
16768SOL     OW52142   9.358   9.014   8.658
16768SOL    HW152143   9.432   9.045   8.605
16768SOL    HW252144   9.297   8.977   8.594
16769SOL     OW52145   5.634   1.254   3.839
16769SOL    HW152146   5.700   1.312   3.878
16769SOL    HW252147   5.657   1.167   3.872
16770SOL     OW52148  10.400   3.122   3.853
16770SOL    HW152149  10.432   3.069   3.781
16770SOL    HW252150  10.304   3.121   3.844
16771SOL     OW52151  10.997   8.035   1.455
16771SOL    HW152152  10.903   8.030   1.475
16771SOL    HW252153  11.032   8.097   1.519
16772SOL     OW52154   3.942   1.783   6.804
16772SOL    HW152155   3.920   1.833   6.883
16772SOL    HW252156   3.945   1.692   6.834
16773SOL     OW52157   3.123  11.805   0.659
16773SOL    HW152158   3.143  11.889   0.620
16773SOL    HW252159   3.183  11.797   0.733
16774SOL     OW52160  10.026  12.367  10.789
16774SOL    HW152161  10.025  12.400  10.879
16774SOL    HW252162  10.071  12.435  10.739
16775SOL     OW52163  10.800  12.050   7.511
16775SOL    HW152164  10.863  12.121   7.498
16775SOL    HW252165  10.753  12.074   7.591
16776SOL     OW52166   5.086   4.915  11.942
16776SOL    HW152167   5.151   4.923  11.872
16776SOL    HW252168   5.099   4.827  11.977
16777SOL     OW52169   8.490  11.261   6.615
16777SOL    HW152170   8.550  11.207   6.666
16777SOL    HW252171   8.528  11.349   6.618
16778SOL     OW52172  11.260  11.370   9.919
16778SOL    HW152173  11.274  11.310   9.847
16778SOL    HW252174  11.215  11.445   9.880
16779SOL     OW52175   3.155   8.105   6.742
16779SOL    HW152176   3.222   8.062   6.795
16779SOL    HW252177   3.196   8.117   6.656
16780SOL     OW52178   8.867   8.763   3.359
16780SOL    HW152179   8.823   8.764   3.274
16780SOL    HW252180   8.797   8.753   3.423
16781SOL     OW52181   7.229  13.250  12.020
16781SOL    HW152182   7.298  13.185  12.035
16781SOL    HW252183   7.255  13.325  12.075
16782SOL     OW52184   0.255   5.308   1.327
16782SOL    HW152185   0.325   5.365   1.358
16782SOL    HW252186   0.176   5.363   1.329
16783SOL     OW52187   2.068   5.446   7.121
16783SOL    HW152188   2.055   5.438   7.026
16783SOL    HW252189   2.021   5.526   7.145
16784SOL     OW52190  11.387  13.863   8.708
16784SOL    HW152191  11.477  13.865   8.741
16784SOL    HW252192  11.385  13.788   8.649
16785SOL     OW52193  10.407   5.005   3.338
16785SOL    HW152194  10.428   4.939   3.404
16785SOL    HW252195  10.323   5.041   3.365
16786SOL     OW52196  13.419   0.687   4.968
16786SOL    HW152197  13.490   0.623   4.968
16786SOL    HW252198  13.339   0.633   4.975
16787SOL     OW52199   1.452   9.643   6.235
16787SOL    HW152200   1.391   9.596   6.179
16787SOL    HW252201   1.399   9.669   6.311
16788SOL     OW52202   5.113  12.685  13.270
16788SOL    HW152203   5.203  12.664  13.246
16788SOL    HW252204   5.121  12.752  13.338
16789SOL     OW52205   2.084   3.535  10.691
16789SOL    HW152206   2.043   3.573  10.614
16789SOL    HW252207   2.037   3.453  10.706
16790SOL     OW52208  11.199   1.344  14.350
16790SOL    HW152209  11.290   1.330  14.321
16790SOL    HW252210  11.205   1.349  14.445
16791SOL     OW52211  12.828   1.543   1.806
16791SOL    HW152212  12.877   1.469   1.842
16791SOL    HW252213  12.738   1.512   1.801
16792SOL     OW52214   2.654   2.619  10.586
16792SOL    HW152215   2.569   2.580  10.564
16792SOL    HW252216   2.708   2.603  10.509
16793SOL     OW52217   3.894  10.112   0.656
16793SOL    HW152218   3.867  10.178   0.720
16793SOL    HW252219   3.872  10.028   0.698
16794SOL     OW52220  13.905   5.912  11.435
16794SOL    HW152221  13.955   5.883  11.510
16794SOL    HW252222  13.921   6.007  11.431
16795SOL     OW52223   5.318   9.624   4.668
16795SOL    HW152224   5.407   9.588   4.667
16795SOL    HW252225   5.302   9.652   4.577
16796SOL     OW52226   6.749   6.448   1.874
16796SOL    HW152227   6.761   6.505   1.798
16796SOL    HW252228   6.823   6.388   1.871
16797SOL     OW52229   2.534   1.849   7.631
16797SOL    HW152230   2.500   1.848   7.542
16797SOL    HW252231   2.481   1.913   7.677
16798SOL     OW52232   8.017   4.700   1.953
16798SOL    HW152233   7.957   4.775   1.959
16798SOL    HW252234   8.057   4.709   1.866
16799SOL     OW52235   1.702   7.937   6.906
16799SOL    HW152236   1.711   7.899   6.818
16799SOL    HW252237   1.788   7.922   6.947
16800SOL     OW52238   5.016  14.457   3.266
16800SOL    HW152239   4.944  14.456   3.328
16800SOL    HW252240   4.977  14.489   3.184
16801SOL     OW52241   8.387   9.831   9.802
16801SOL    HW152242   8.292   9.838   9.816
16801SOL    HW252243   8.418   9.921   9.800
16802SOL     OW52244   2.205   2.739  12.567
16802SOL    HW152245   2.124   2.731  12.518
16802SOL    HW252246   2.227   2.833  12.562
16803SOL     OW52247   2.726   5.900  14.498
16803SOL    HW152248   2.650   5.851  14.528
16803SOL    HW252249   2.699   5.992  14.502
16804SOL     OW52250   0.021   4.125  11.704
16804SOL    HW152251   0.095   4.101  11.760
16804SOL    HW252252   0.058   4.188  11.642
16805SOL     OW52253   2.541   0.385   4.887
16805SOL    HW152254   2.633   0.407   4.876
16805SOL    HW252255   2.540   0.319   4.956
16806SOL     OW52256  13.805  14.306   8.356
16806SOL    HW152257  13.837  14.395   8.337
16806SOL    HW252258  13.885  14.255   8.370
16807SOL     OW52259   4.258   9.646  12.761
16807SOL    HW152260   4.166   9.629  12.740
16807SOL    HW252261   4.307   9.610  12.686
16808SOL     OW52262   7.146  13.459   4.653
16808SOL    HW152263   7.105  13.476   4.568
16808SOL    HW252264   7.218  13.521   4.658
16809SOL     OW52265  12.677   4.871   1.786
16809SOL    HW152266  12.651   4.961   1.766
16809SOL    HW252267  12.604   4.835   1.835
16810SOL     OW52268   8.060  13.438   8.162
16810SOL    HW152269   8.060  13.383   8.083
16810SOL    HW252270   8.008  13.388   8.225
16811SOL     OW52271   1.176   4.817   8.921
16811SOL    HW152272   1.222   4.812   8.837
16811SOL    HW252273   1.086   4.791   8.901
16812SOL     OW52274   8.177   3.801  11.618
16812SOL    HW152275   8.224   3.733  11.570
16812SOL    HW252276   8.226   3.812  11.699
16813SOL     OW52277   2.170   3.410  11.138
16813SOL    HW152278   2.089   3.360  11.151
16813SOL    HW252279   2.159   3.487  11.193
16814SOL     OW52280   5.918  12.167  11.564
16814SOL    HW152281   5.969  12.233  11.610
16814SOL    HW252282   5.889  12.211  11.484
16815SOL     OW52283  11.772   9.405  12.253
16815SOL    HW152284  11.744   9.442  12.337
16815SOL    HW252285  11.856   9.447  12.236
16816SOL     OW52286   4.847   8.854   2.755
16816SOL    HW152287   4.879   8.873   2.844
16816SOL    HW252288   4.925   8.827   2.707
16817SOL     OW52289   3.633  14.787   9.712
16817SOL    HW152290   3.602  14.849   9.646
16817SOL    HW252291   3.723  14.766   9.685
16818SOL     OW52292  14.819  10.700  13.039
16818SOL    HW152293  14.766  10.719  13.117
16818SOL    HW252294  14.762  10.723  12.966
16819SOL     OW52295  13.542  10.893   6.987
16819SOL    HW152296  13.513  10.864   6.900
16819SOL    HW252297  13.633  10.864   6.992
16820SOL     OW52298   9.000   5.866   2.078
16820SOL    HW152299   8.969   5.941   2.130
16820SOL    HW252300   9.005   5.899   1.989
16821SOL     OW52301   8.438  11.957   4.604
16821SOL    HW152302   8.371  11.940   4.671
16821SOL    HW252303   8.454  12.051   4.609
16822SOL     OW52304  14.122   1.867   2.822
16822SOL    HW152305  14.195   1.819   2.861
16822SOL    HW252306  14.047   1.844   2.876
16823SOL     OW52307  13.712   1.815   5.975
16823SOL    HW152308  13.794   1.766   5.972
16823SOL    HW252309  13.717   1.875   5.900
16824SOL     OW52310   3.911   3.790   3.979
16824SOL    HW152311   3.895   3.880   4.008
16824SOL    HW252312   3.997   3.769   4.015
16825SOL     OW52313   9.063  11.392  12.497
16825SOL    HW152314   9.073  11.336  12.574
16825SOL    HW252315   9.144  11.378  12.447
16826SOL     OW52316   2.369   9.026   9.809
16826SOL    HW152317   2.310   9.016   9.735
16826SOL    HW252318   2.444   8.970   9.788
16827SOL     OW52319  14.367   2.098   0.239
16827SOL    HW152320  14.319   2.016   0.240
16827SOL    HW252321  14.381   2.119   0.331
16828SOL     OW52322   8.169   6.966   7.852
16828SOL    HW152323   8.176   6.872   7.867
16828SOL    HW252324   8.082   6.989   7.884
16829SOL     OW52325   7.867  11.147   7.745
16829SOL    HW152326   7.786  11.156   7.695
16829SOL    HW252327   7.839  11.111   7.829
16830SOL     OW52328  10.969  13.470  11.539
16830SOL    HW152329  10.926  13.400  11.489
16830SOL    HW252330  10.939  13.551  11.496
16831SOL     OW52331   7.333   0.480  11.598
16831SOL    HW152332   7.423   0.497  11.625
16831SOL    HW252333   7.279   0.532  11.657
16832SOL     OW52334   7.717   1.520   6.038
16832SOL    HW152335   7.648   1.543   5.975
16832SOL    HW252336   7.773   1.597   6.041
16833SOL     OW52337  14.088   9.585   8.605
16833SOL    HW152338  14.180   9.613   8.600
16833SOL    HW252339  14.040   9.653   8.558
16834SOL     OW52340   5.795   5.269   9.073
16834SOL    HW152341   5.834   5.188   9.106
16834SOL    HW252342   5.870   5.326   9.055
16835SOL     OW52343   5.017   6.920   5.395
16835SOL    HW152344   4.981   6.981   5.330
16835SOL    HW252345   4.950   6.853   5.404
16836SOL     OW52346   7.668   3.370   0.135
16836SOL    HW152347   7.687   3.311   0.208
16836SOL    HW252348   7.751   3.374   0.086
16837SOL     OW52349  14.384   6.190   6.490
16837SOL    HW152350  14.382   6.248   6.414
16837SOL    HW252351  14.426   6.241   6.559
16838SOL     OW52352  13.066  12.006   3.762
16838SOL    HW152353  13.038  11.921   3.797
16838SOL    HW252354  13.149  12.023   3.806
16839SOL     OW52355   6.580   4.066   2.821
16839SOL    HW152356   6.599   4.121   2.896
16839SOL    HW252357   6.651   4.083   2.759
16840SOL     OW52358   3.524  10.082   5.737
16840SOL    HW152359   3.614  10.053   5.723
16840SOL    HW252360   3.530  10.177   5.748
16841SOL     OW52361  12.623   8.906   7.862
16841SOL    HW152362  12.591   8.855   7.936
16841SOL    HW252363  12.546   8.921   7.807
16842SOL     OW52364  11.359  11.084  12.715
16842SOL    HW152365  11.447  11.055  12.737
16842SOL    HW252366  11.304  11.007  12.726
16843SOL     OW52367   4.765  12.517   6.326
16843SOL    HW152368   4.832  12.456   6.357
16843SOL    HW252369   4.792  12.540   6.238
16844SOL     OW52370  14.677   9.764   5.529
16844SOL    HW152371  14.748   9.734   5.473
16844SOL    HW252372  14.702   9.739   5.617
16845SOL     OW52373   9.449   7.956   2.811
16845SOL    HW152374   9.501   7.951   2.892
16845SOL    HW252375   9.412   7.868   2.801
16846SOL     OW52376   8.145  12.522  11.100
16846SOL    HW152377   8.091  12.561  11.169
16846SOL    HW252378   8.204  12.592  11.072
16847SOL     OW52379   2.521   6.555  13.593
16847SOL    HW152380   2.601   6.519  13.554
16847SOL    HW252381   2.497   6.628  13.536
16848SOL     OW52382  13.143  13.200  11.055
16848SOL    HW152383  13.078  13.231  11.117
16848SOL    HW252384  13.118  13.240  10.972
16849SOL     OW52385   4.945   6.881  13.308
16849SOL    HW152386   4.930   6.913  13.397
16849SOL    HW252387   4.869   6.912  13.259
16850SOL     OW52388   6.458   5.380  14.742
16850SOL    HW152389   6.439   5.410  14.831
16850SOL    HW252390   6.553   5.392  14.733
16851SOL     OW52391  11.471   4.777  14.713
16851SOL    HW152392  11.425   4.729  14.782
16851SOL    HW252393  11.556   4.735  14.706
16852SOL     OW52394  10.994   0.884   7.304
16852SOL    HW152395  10.985   0.804   7.252
16852SOL    HW252396  11.088   0.895   7.315
16853SOL     OW52397   3.591   3.115  13.076
16853SOL    HW152398   3.497   3.134  13.078
16853SOL    HW252399   3.608   3.074  13.161
16854SOL     OW52400  12.828  12.714   5.930
16854SOL    HW152401  12.785  12.799   5.924
16854SOL    HW252402  12.757  12.652   5.949
16855SOL     OW52403  12.658   5.540  10.469
16855SOL    HW152404  12.588   5.570  10.527
16855SOL    HW252405  12.734   5.530  10.526
16856SOL     OW52406   9.260  11.625   9.775
16856SOL    HW152407   9.310  11.684   9.833
16856SOL    HW252408   9.229  11.555   9.833
16857SOL     OW52409   3.648   9.957   6.145
16857SOL    HW152410   3.553   9.953   6.148
16857SOL    HW252411   3.674   9.890   6.082
16858SOL     OW52412   7.943  13.286   4.610
16858SOL    HW152413   7.953  13.328   4.525
16858SOL    HW252414   8.018  13.317   4.661
16859SOL     OW52415  10.785   3.516   0.217
16859SOL    HW152416  10.807   3.605   0.192
16859SOL    HW252417  10.692   3.508   0.197
16860SOL     OW52418   4.362   3.239   4.650
16860SOL    HW152419   4.388   3.300   4.719
16860SOL    HW252420   4.293   3.186   4.689
16861SOL     OW52421   7.220  13.512   2.090
16861SOL    HW152422   7.172  13.582   2.046
16861SOL    HW252423   7.230  13.543   2.180
16862SOL     OW52424   9.824   9.604  14.521
16862SOL    HW152425   9.824   9.645  14.435
16862SOL    HW252426   9.912   9.621  14.556
16863SOL     OW52427   8.151   6.687   1.662
16863SOL    HW152428   8.138   6.736   1.581
16863SOL    HW252429   8.223   6.732   1.706
16864SOL     OW52430  10.494   7.388   9.308
16864SOL    HW152431  10.551   7.315   9.285
16864SOL    HW252432  10.408   7.362   9.277
16865SOL     OW52433  14.452   7.167   3.402
16865SOL    HW152434  14.379   7.128   3.451
16865SOL    HW252435  14.483   7.238   3.457
16866SOL     OW52436  13.711  10.743   0.552
16866SOL    HW152437  13.733  10.718   0.641
16866SOL    HW252438  13.664  10.826   0.561
16867SOL     OW52439   3.577   1.217   8.151
16867SOL    HW152440   3.522   1.165   8.092
16867SOL    HW252441   3.529   1.218   8.234
16868SOL     OW52442  10.248   2.609  14.420
16868SOL    HW152443  10.285   2.544  14.360
16868SOL    HW252444  10.305   2.685  14.412
16869SOL     OW52445   9.139  11.372   4.530
16869SOL    HW152446   9.125  11.292   4.480
16869SOL    HW252447   9.099  11.441   4.477
16870SOL     OW52448  10.468  11.997   3.781
16870SOL    HW152449  10.515  12.025   3.860
16870SOL    HW252450  10.513  12.042   3.710
16871SOL     OW52451   4.795  13.345   4.067
16871SOL    HW152452   4.872  13.344   4.123
16871SOL    HW252453   4.727  13.385   4.121
16872SOL     OW52454   6.274   7.333  12.183
16872SOL    HW152455   6.284   7.261  12.121
16872SOL    HW252456   6.363   7.363  12.200
16873SOL     OW52457   2.510   0.111   4.507
16873SOL    HW152458   2.604   0.119   4.520
16873SOL    HW252459   2.472   0.161   4.579
16874SOL     OW52460   3.887   8.140   7.764
16874SOL    HW152461   3.836   8.061   7.782
16874SOL    HW252462   3.957   8.139   7.829
16875SOL     OW52463  10.473  10.222   2.909
16875SOL    HW152464  10.464  10.129   2.889
16875SOL    HW252465  10.385  10.251   2.930
16876SOL     OW52466  12.170   3.499  11.507
16876SOL    HW152467  12.220   3.430  11.551
16876SOL    HW252468  12.213   3.580  11.535
16877SOL     OW52469   1.572  10.037   4.073
16877SOL    HW152470   1.549   9.945   4.087
16877SOL    HW252471   1.518  10.065   4.000
16878SOL     OW52472   4.783  14.625  10.202
16878SOL    HW152473   4.773  14.627  10.106
16878SOL    HW252474   4.695  14.606  10.235
16879SOL     OW52475   9.842  14.142   0.269
16879SOL    HW152476   9.914  14.097   0.312
16879SOL    HW252477   9.792  14.073   0.225
16880SOL     OW52478   4.364   0.411   9.564
16880SOL    HW152479   4.440   0.394   9.621
16880SOL    HW252480   4.331   0.496   9.594
16881SOL     OW52481  11.952   6.596   1.458
16881SOL    HW152482  11.913   6.537   1.394
16881SOL    HW252483  11.878   6.631   1.508
16882SOL     OW52484   7.371   6.496   7.694
16882SOL    HW152485   7.456   6.456   7.712
16882SOL    HW252486   7.315   6.464   7.765
16883SOL     OW52487  11.705  13.706   8.245
16883SOL    HW152488  11.750  13.697   8.161
16883SOL    HW252489  11.701  13.801   8.259
16884SOL     OW52490  12.187  11.399   0.067
16884SOL    HW152491  12.125  11.344   0.019
16884SOL    HW252492  12.142  11.418   0.150
16885SOL     OW52493  11.674   4.405   4.365
16885SOL    HW152494  11.582   4.381   4.362
16885SOL    HW252495  11.685   4.467   4.293
16886SOL     OW52496   5.097  10.872   0.167
16886SOL    HW152497   5.023  10.814   0.147
16886SOL    HW252498   5.155  10.863   0.092
16887SOL     OW52499   4.813   3.765   4.042
16887SOL    HW152500   4.743   3.797   3.986
16887SOL    HW252501   4.891   3.767   3.986
16888SOL     OW52502  13.315   4.852   6.114
16888SOL    HW152503  13.364   4.846   6.196
16888SOL    HW252504  13.263   4.932   6.123
16889SOL     OW52505   1.905  11.916   7.987
16889SOL    HW152506   1.868  11.942   8.072
16889SOL    HW252507   1.908  11.997   7.937
16890SOL     OW52508   2.006   6.169   6.602
16890SOL    HW152509   2.006   6.234   6.673
16890SOL    HW252510   2.068   6.205   6.538
16891SOL     OW52511  13.105  11.830  12.653
16891SOL    HW152512  13.040  11.813  12.721
16891SOL    HW252513  13.083  11.768  12.583
16892SOL     OW52514   5.700  13.033   8.455
16892SOL    HW152515   5.618  13.009   8.499
16892SOL    HW252516   5.762  12.966   8.484
16893SOL     OW52517   0.152   9.552   5.988
16893SOL    HW152518   0.160   9.599   6.071
16893SOL    HW252519   0.068   9.507   5.993
16894SOL     OW52520  12.648  12.895   5.667
16894SOL    HW152521  12.566  12.916   5.710
16894SOL    HW252522  12.623  12.857   5.583
16895SOL     OW52523  14.491  13.101   3.118
16895SOL    HW152524  14.495  13.092   3.213
16895SOL    HW252525  14.498  13.195   3.102
16896SOL     OW52526   7.641   4.350   0.026
16896SOL    HW152527   7.728   4.346  14.867
16896SOL    HW252528   7.656   4.336   0.120
16897SOL     OW52529   8.748  11.856   0.709
16897SOL    HW152530   8.807  11.840   0.783
16897SOL    HW252531   8.762  11.780   0.652
16898SOL     OW52532   5.075  10.179   8.163
16898SOL    HW152533   4.988  10.140   8.168
16898SOL    HW252534   5.093  10.184   8.069
16899SOL     OW52535  11.992   1.084   9.207
16899SOL    HW152536  12.018   1.003   9.250
16899SOL    HW252537  11.992   1.063   9.114
16900SOL     OW52538   9.054   2.303  11.748
16900SOL    HW152539   9.045   2.208  11.750
16900SOL    HW252540   9.139   2.320  11.789
16901SOL     OW52541  14.199  14.077   0.418
16901SOL    HW152542  14.169  14.051   0.505
16901SOL    HW252543  14.119  14.098   0.370
16902SOL     OW52544   6.818  14.526  13.497
16902SOL    HW152545   6.727  14.528  13.524
16902SOL    HW252546   6.827  14.443  13.450
16903SOL     OW52547   9.976   3.316  11.132
16903SOL    HW152548  10.029   3.246  11.169
16903SOL    HW252549  10.039   3.382  11.103
16904SOL     OW52550  10.986  14.430  11.159
16904SOL    HW152551  11.030  14.446  11.075
16904SOL    HW252552  10.896  14.409  11.135
16905SOL     OW52553   5.520   8.543   8.141
16905SOL    HW152554   5.441   8.597   8.142
16905SOL    HW252555   5.557   8.552   8.229
16906SOL     OW52556   0.838   0.057   5.159
16906SOL    HW152557   0.887   0.009   5.226
16906SOL    HW252558   0.820  14.872   5.091
16907SOL     OW52559  10.517   4.972   4.192
16907SOL    HW152560  10.500   4.891   4.144
16907SOL    HW252561  10.448   5.032   4.163
16908SOL     OW52562   6.381   4.669   3.039
16908SOL    HW152563   6.349   4.590   2.994
16908SOL    HW252564   6.413   4.725   2.969
16909SOL     OW52565  13.648  10.037  12.725
16909SOL    HW152566  13.586   9.969  12.751
16909SOL    HW252567  13.597  10.118  12.729
16910SOL     OW52568   5.260   1.291   4.217
16910SOL    HW152569   5.246   1.373   4.265
16910SOL    HW252570   5.235   1.312   4.127
16911SOL     OW52571  11.091   3.918  12.115
16911SOL    HW152572  11.018   3.871  12.155
16911SOL    HW252573  11.052   3.999  12.082
16912SOL     OW52574  13.354   9.676   1.983
16912SOL    HW152575  13.371   9.758   2.029
16912SOL    HW252576  13.313   9.620   2.049
16913SOL     OW52577  11.342  12.651   7.860
16913SOL    HW152578  11.300  12.659   7.774
16913SOL    HW252579  11.377  12.562   7.861
16914SOL     OW52580   9.478  11.420  11.154
16914SOL    HW152581   9.477  11.328  11.182
16914SOL    HW252582   9.471  11.469  11.236
16915SOL     OW52583  12.766  13.852   2.647
16915SOL    HW152584  12.784  13.758   2.653
16915SOL    HW252585  12.744  13.867   2.555
16916SOL     OW52586   8.129  12.881   6.466
16916SOL    HW152587   8.101  12.824   6.537
16916SOL    HW252588   8.223  12.891   6.478
16917SOL     OW52589   4.693  12.693   3.339
16917SOL    HW152590   4.655  12.609   3.365
16917SOL    HW252591   4.747  12.719   3.414
16918SOL     OW52592  14.710  12.371   9.273
16918SOL    HW152593  14.638  12.374   9.210
16918SOL    HW252594  14.669  12.344   9.355
16919SOL     OW52595   3.397   8.428   3.725
16919SOL    HW152596   3.328   8.372   3.691
16919SOL    HW252597   3.474   8.371   3.731
16920SOL     OW52598   3.187   1.283   6.353
16920SOL    HW152599   3.165   1.316   6.441
16920SOL    HW252600   3.253   1.215   6.369
16921SOL     OW52601   1.019   4.868   3.079
16921SOL    HW152602   1.026   4.940   3.016
16921SOL    HW252603   1.103   4.823   3.074
16922SOL     OW52604   5.266   2.854   4.919
16922SOL    HW152605   5.239   2.772   4.960
16922SOL    HW252606   5.254   2.839   4.826
16923SOL     OW52607   9.057  11.639  12.321
16923SOL    HW152608   8.967  11.612  12.343
16923SOL    HW252609   9.061  11.634  12.226
16924SOL     OW52610   9.263   7.614   2.120
16924SOL    HW152611   9.264   7.551   2.192
16924SOL    HW252612   9.354   7.617   2.090
16925SOL     OW52613  14.733   3.987   1.282
16925SOL    HW152614  14.804   3.943   1.329
16925SOL    HW252615  14.777   4.048   1.223
16926SOL     OW52616   2.543   5.536   2.852
16926SOL    HW152617   2.524   5.455   2.901
16926SOL    HW252618   2.457   5.577   2.840
16927SOL     OW52619   5.033   6.232  10.680
16927SOL    HW152620   5.113   6.273  10.715
16927SOL    HW252621   5.038   6.142  10.712
16928SOL     OW52622  10.834   2.335   8.260
16928SOL    HW152623  10.925   2.340   8.287
16928SOL    HW252624  10.812   2.424   8.231
16929SOL     OW52625  10.643  11.160   4.796
16929SOL    HW152626  10.577  11.136   4.732
16929SOL    HW252627  10.662  11.079   4.843
16930SOL     OW52628  13.074   3.377  11.047
16930SOL    HW152629  13.116   3.295  11.024
16930SOL    HW252630  13.025   3.402  10.969
16931SOL     OW52631  11.835  10.821   5.736
16931SOL    HW152632  11.753  10.866   5.757
16931SOL    HW252633  11.868  10.791   5.821
16932SOL     OW52634  12.822   5.135   3.807
16932SOL    HW152635  12.831   5.215   3.755
16932SOL    HW252636  12.806   5.166   3.896
16933SOL     OW52637   8.835   0.985   0.944
16933SOL    HW152638   8.877   1.000   0.859
16933SOL    HW252639   8.862   0.897   0.969
16934SOL     OW52640   3.559   7.338  11.070
16934SOL    HW152641   3.505   7.379  11.003
16934SOL    HW252642   3.607   7.270  11.024
16935SOL     OW52643   0.568   9.558  13.871
16935SOL    HW152644   0.529   9.535  13.956
16935SOL    HW252645   0.587   9.651  13.878
16936SOL     OW52646   6.966  11.332  12.013
16936SOL    HW152647   6.994  11.315  11.923
16936SOL    HW252648   6.871  11.325  12.010
16937SOL     OW52649   2.413   9.545   4.158
16937SOL    HW152650   2.395   9.601   4.082
16937SOL    HW252651   2.390   9.600   4.233
16938SOL     OW52652  11.568  13.757  11.653
16938SOL    HW152653  11.654  13.798  11.664
16938SOL    HW252654  11.586  13.677  11.605
16939SOL     OW52655   4.564   5.642   4.590
16939SOL    HW152656   4.505   5.632   4.665
16939SOL    HW252657   4.624   5.568   4.598
16940SOL     OW52658   4.962  14.062   6.894
16940SOL    HW152659   4.992  13.987   6.842
16940SOL    HW252660   4.994  14.044   6.982
16941SOL     OW52661  11.789  14.290   3.996
16941SOL    HW152662  11.861  14.238   4.032
16941SOL    HW252663  11.778  14.257   3.907
16942SOL     OW52664   1.556  12.058  13.471
16942SOL    HW152665   1.495  11.986  13.490
16942SOL    HW252666   1.576  12.048  13.378
16943SOL     OW52667   7.227   1.892  11.926
16943SOL    HW152668   7.145   1.862  11.886
16943SOL    HW252669   7.228   1.986  11.910
16944SOL     OW52670  12.939  13.336   1.603
16944SOL    HW152671  13.031  13.346   1.581
16944SOL    HW252672  12.903  13.284   1.531
16945SOL     OW52673  13.370   3.424  10.996
16945SOL    HW152674  13.351   3.430  10.902
16945SOL    HW252675  13.301   3.476  11.038
16946SOL     OW52676  11.087   9.709   8.081
16946SOL    HW152677  11.071   9.737   8.171
16946SOL    HW252678  11.006   9.730   8.035
16947SOL     OW52679  13.665   1.446   7.536
16947SOL    HW152680  13.631   1.363   7.504
16947SOL    HW252681  13.592   1.487   7.582
16948SOL     OW52682   9.005   4.701   3.978
16948SOL    HW152683   8.996   4.796   3.976
16948SOL    HW252684   9.034   4.677   3.890
16949SOL     OW52685   9.872   7.211  14.879
16949SOL    HW152686   9.944   7.222   0.062
16949SOL    HW252687   9.804   7.270   0.031
16950SOL     OW52688   3.231   2.531   0.270
16950SOL    HW152689   3.265   2.556   0.356
16950SOL    HW252690   3.237   2.436   0.268
16951SOL     OW52691   7.518  10.625   3.690
16951SOL    HW152692   7.446  10.591   3.637
16951SOL    HW252693   7.504  10.588   3.777
16952SOL     OW52694   4.445  11.024   8.648
16952SOL    HW152695   4.358  10.987   8.663
16952SOL    HW252696   4.488  11.018   8.733
16953SOL     OW52697   0.028   6.028   4.668
16953SOL    HW152698   0.114   5.987   4.679
16953SOL    HW252699   0.007   6.015   4.576
16954SOL     OW52700   7.550   4.516  14.687
16954SOL    HW152701   7.584   4.469  14.611
16954SOL    HW252702   7.568   4.459  14.761
16955SOL     OW52703   2.478   0.509  12.575
16955SOL    HW152704   2.506   0.422  12.544
16955SOL    HW252705   2.449   0.554  12.496
16956SOL     OW52706   6.854   7.585  12.569
16956SOL    HW152707   6.786   7.612  12.631
16956SOL    HW252708   6.822   7.614  12.483
16957SOL     OW52709   3.441   5.566   7.515
16957SOL    HW152710   3.483   5.483   7.537
16957SOL    HW252711   3.358   5.564   7.563
16958SOL     OW52712   7.484   4.952  11.369
16958SOL    HW152713   7.428   5.015  11.324
16958SOL    HW252714   7.482   4.979  11.461
16959SOL     OW52715   7.641   2.780   2.218
16959SOL    HW152716   7.687   2.704   2.253
16959SOL    HW252717   7.601   2.749   2.137
16960SOL     OW52718   8.107  11.253  13.094
16960SOL    HW152719   8.200  11.242  13.077
16960SOL    HW252720   8.097  11.346  13.115
16961SOL     OW52721   3.410   0.456   1.240
16961SOL    HW152722   3.376   0.478   1.327
16961SOL    HW252723   3.378   0.526   1.183
16962SOL     OW52724  12.559   3.611   9.226
16962SOL    HW152725  12.624   3.676   9.198
16962SOL    HW252726  12.611   3.542   9.268
16963SOL     OW52727  12.662   5.266  14.829
16963SOL    HW152728  12.676   5.303   0.036
16963SOL    HW252729  12.644   5.173  14.845
16964SOL     OW52730  14.851   9.098  10.885
16964SOL    HW152731  14.820   9.052  10.808
16964SOL    HW252732  14.785   9.081  10.952
16965SOL     OW52733   1.464  10.426  14.015
16965SOL    HW152734   1.486  10.494  14.079
16965SOL    HW252735   1.538  10.366  14.018
16966SOL     OW52736   6.607   8.260   0.177
16966SOL    HW152737   6.625   8.226   0.265
16966SOL    HW252738   6.647   8.347   0.176
16967SOL     OW52739   0.984   1.503   5.107
16967SOL    HW152740   1.075   1.474   5.103
16967SOL    HW252741   0.952   1.471   5.191
16968SOL     OW52742  12.703   9.593  10.036
16968SOL    HW152743  12.761   9.642  10.095
16968SOL    HW252744  12.663   9.661   9.981
16969SOL     OW52745   4.531   4.369   4.584
16969SOL    HW152746   4.499   4.286   4.619
16969SOL    HW252747   4.452   4.422   4.571
16970SOL     OW52748   1.014   3.494   8.897
16970SOL    HW152749   0.934   3.506   8.949
16970SOL    HW252750   1.015   3.401   8.874
16971SOL     OW52751  10.530  13.733   3.531
16971SOL    HW152752  10.558  13.649   3.568
16971SOL    HW252753  10.612  13.776   3.506
16972SOL     OW52754   8.082   9.068  10.438
16972SOL    HW152755   8.045   9.091  10.352
16972SOL    HW252756   8.067   8.974  10.446
16973SOL     OW52757   0.747  12.704  13.013
16973SOL    HW152758   0.822  12.651  13.039
16973SOL    HW252759   0.749  12.779  13.072
16974SOL     OW52760   6.651   5.333   1.017
16974SOL    HW152761   6.625   5.257   1.068
16974SOL    HW252762   6.729   5.366   1.062
16975SOL     OW52763   9.268  11.119  13.148
16975SOL    HW152764   9.237  11.120  13.239
16975SOL    HW252765   9.339  11.183  13.146
16976SOL     OW52766  11.271   3.992   8.016
16976SOL    HW152767  11.214   4.069   8.023
16976SOL    HW252768  11.248   3.938   8.092
16977SOL     OW52769   9.094   4.621   4.390
16977SOL    HW152770   9.112   4.715   4.403
16977SOL    HW252771   9.110   4.582   4.476
16978SOL     OW52772   4.644   1.736  11.008
16978SOL    HW152773   4.675   1.745  11.098
16978SOL    HW252774   4.697   1.797  10.957
16979SOL     OW52775  14.315  13.707   9.379
16979SOL    HW152776  14.305  13.694   9.285
16979SOL    HW252777  14.330  13.801   9.389
16980SOL     OW52778  11.118   7.235  13.090
16980SOL    HW152779  11.157   7.320  13.065
16980SOL    HW252780  11.076   7.204  13.010
16981SOL     OW52781   0.927  11.553  14.652
16981SOL    HW152782   1.006  11.543  14.598
16981SOL    HW252783   0.885  11.632  14.620
16982SOL     OW52784   9.131   0.198   9.857
16982SOL    HW152785   9.214   0.218   9.813
16982SOL    HW252786   9.090   0.283   9.869
16983SOL     OW52787  13.166   8.575   4.636
16983SOL    HW152788  13.169   8.616   4.550
16983SOL    HW252789  13.075   8.584   4.665
16984SOL     OW52790   9.874   2.571   2.777
16984SOL    HW152791   9.848   2.653   2.735
16984SOL    HW252792   9.883   2.594   2.870
16985SOL     OW52793  10.081  12.203   8.791
16985SOL    HW152794  10.034  12.217   8.709
16985SOL    HW252795  10.066  12.110   8.812
16986SOL     OW52796   9.550  13.413   7.835
16986SOL    HW152797   9.501  13.345   7.788
16986SOL    HW252798   9.641  13.382   7.834
16987SOL     OW52799  12.614   7.669   4.945
16987SOL    HW152800  12.577   7.746   4.901
16987SOL    HW252801  12.693   7.701   4.988
16988SOL     OW52802  11.399   4.095   3.321
16988SOL    HW152803  11.375   4.003   3.315
16988SOL    HW252804  11.422   4.108   3.413
16989SOL     OW52805   6.963   0.566  14.498
16989SOL    HW152806   6.993   0.646  14.455
16989SOL    HW252807   7.042   0.527  14.536
16990SOL     OW52808  10.824   2.215   4.774
16990SOL    HW152809  10.863   2.128   4.783
16990SOL    HW252810  10.814   2.227   4.680
16991SOL     OW52811   8.982  10.350   1.423
16991SOL    HW152812   9.009  10.372   1.512
16991SOL    HW252813   9.025  10.267   1.405
16992SOL     OW52814   9.804  12.137   3.857
16992SOL    HW152815   9.899  12.142   3.865
16992SOL    HW252816   9.772  12.156   3.945
16993SOL     OW52817  14.415   1.234   7.721
16993SOL    HW152818  14.487   1.172   7.713
16993SOL    HW252819  14.457   1.320   7.717
16994SOL     OW52820  13.889   7.174  14.857
16994SOL    HW152821  13.895   7.118  14.780
16994SOL    HW252822  13.934   7.255  14.833
16995SOL     OW52823   6.749  11.521   9.915
16995SOL    HW152824   6.663  11.553   9.945
16995SOL    HW252825   6.758  11.435   9.957
16996SOL     OW52826   1.181   1.159   0.758
16996SOL    HW152827   1.213   1.142   0.669
16996SOL    HW252828   1.205   1.251   0.774
16997SOL     OW52829   2.950   4.811   1.152
16997SOL    HW152830   3.041   4.781   1.146
16997SOL    HW252831   2.956   4.899   1.191
16998SOL     OW52832   8.978   2.392   3.718
16998SOL    HW152833   8.930   2.413   3.638
16998SOL    HW252834   9.036   2.320   3.693
16999SOL     OW52835   4.012   8.181  13.176
16999SOL    HW152836   3.956   8.104  13.161
16999SOL    HW252837   4.035   8.210  13.087
17000SOL     OW52838   5.559   8.229   8.646
17000SOL    HW152839   5.605   8.147   8.660
17000SOL    HW252840   5.574   8.251   8.554
17001SOL     OW52841   4.163  11.918   3.372
17001SOL    HW152842   4.202  11.841   3.412
17001SOL    HW252843   4.073  11.891   3.351
17002SOL     OW52844   8.150  14.303   2.552
17002SOL    HW152845   8.242  14.302   2.576
17002SOL    HW252846   8.149  14.308   2.456
17003SOL     OW52847  11.233  14.344   4.778
17003SOL    HW152848  11.210  14.370   4.689
17003SOL    HW252849  11.202  14.415   4.833
17004SOL     OW52850   8.087   8.897  13.016
17004SOL    HW152851   8.150   8.840  13.060
17004SOL    HW252852   8.095   8.874  12.923
17005SOL     OW52853   8.215  12.332   9.245
17005SOL    HW152854   8.271  12.363   9.316
17005SOL    HW252855   8.273  12.323   9.170
17006SOL     OW52856   9.795   6.334   6.895
17006SOL    HW152857   9.829   6.362   6.810
17006SOL    HW252858   9.701   6.321   6.879
17007SOL     OW52859   3.341  10.966  12.436
17007SOL    HW152860   3.340  11.058  12.461
17007SOL    HW252861   3.257  10.931  12.466
17008SOL     OW52862   5.600   7.117   1.557
17008SOL    HW152863   5.602   7.021   1.560
17008SOL    HW252864   5.520   7.140   1.606
17009SOL     OW52865   6.677  14.045   2.191
17009SOL    HW152866   6.693  13.954   2.167
17009SOL    HW252867   6.582  14.049   2.205
17010SOL     OW52868   6.633   4.058   0.134
17010SOL    HW152869   6.544   4.090   0.148
17010SOL    HW252870   6.689   4.130   0.163
17011SOL     OW52871  13.059   3.278  13.436
17011SOL    HW152872  13.013   3.194  13.438
17011SOL    HW252873  13.107   3.278  13.353
17012SOL     OW52874   7.933   3.790   3.949
17012SOL    HW152875   7.907   3.770   3.859
17012SOL    HW252876   8.028   3.776   3.950
17013SOL     OW52877   3.603   2.503  14.031
17013SOL    HW152878   3.696   2.490  14.050
17013SOL    HW252879   3.586   2.593  14.058
17014SOL     OW52880   3.577  13.155   9.052
17014SOL    HW152881   3.637  13.229   9.046
17014SOL    HW252882   3.608  13.094   8.984
17015SOL     OW52883  11.031  14.857   7.752
17015SOL    HW152884  11.077   0.062   7.748
17015SOL    HW252885  11.098  14.793   7.729
17016SOL     OW52886   3.018  13.664  12.179
17016SOL    HW152887   2.931  13.693  12.155
17016SOL    HW252888   3.062  13.742  12.211
17017SOL     OW52889   3.004   5.458   7.209
17017SOL    HW152890   3.010   5.493   7.120
17017SOL    HW252891   2.911   5.466   7.231
17018SOL     OW52892   3.684   6.901   8.535
17018SOL    HW152893   3.593   6.927   8.547
17018SOL    HW252894   3.689   6.812   8.571
17019SOL     OW52895   3.055   7.416   7.128
17019SOL    HW152896   2.986   7.442   7.068
17019SOL    HW252897   3.037   7.324   7.147
17020SOL     OW52898   0.621   7.291   3.000
17020SOL    HW152899   0.585   7.283   2.912
17020SOL    HW252900   0.552   7.334   3.051
17021SOL     OW52901   9.438   9.073  10.447
17021SOL    HW152902   9.368   9.056  10.510
17021SOL    HW252903   9.393   9.108  10.370
17022SOL     OW52904   1.978   9.280   1.465
17022SOL    HW152905   1.992   9.200   1.415
17022SOL    HW252906   1.887   9.304   1.448
17023SOL     OW52907   2.199  12.742  13.782
17023SOL    HW152908   2.135  12.813  13.778
17023SOL    HW252909   2.208  12.724  13.876
17024SOL     OW52910  11.668  13.472   6.326
17024SOL    HW152911  11.699  13.418   6.253
17024SOL    HW252912  11.704  13.559   6.309
17025SOL     OW52913   8.399  10.536  11.568
17025SOL    HW152914   8.347  10.611  11.598
17025SOL    HW252915   8.398  10.543  11.472
17026SOL     OW52916   5.236  11.707   4.217
17026SOL    HW152917   5.227  11.656   4.298
17026SOL    HW252918   5.315  11.758   4.231
17027SOL     OW52919   9.393  12.828   4.712
17027SOL    HW152920   9.309  12.790   4.685
17027SOL    HW252921   9.369  12.898   4.773
17028SOL     OW52922   4.393   6.759  14.049
17028SOL    HW152923   4.305   6.749  14.083
17028SOL    HW252924   4.405   6.686  13.989
17029SOL     OW52925  13.565   8.191   4.354
17029SOL    HW152926  13.506   8.261   4.325
17029SOL    HW252927  13.652   8.230   4.349
17030SOL     OW52928  13.103   8.840   6.987
17030SOL    HW152929  13.061   8.828   7.072
17030SOL    HW252930  13.190   8.801   6.997
17031SOL     OW52931   1.554  12.356   4.233
17031SOL    HW152932   1.559  12.261   4.232
17031SOL    HW252933   1.465  12.376   4.263
17032SOL     OW52934   9.493   7.495   5.340
17032SOL    HW152935   9.401   7.500   5.366
17032SOL    HW252936   9.530   7.580   5.365
17033SOL     OW52937   4.391  12.393  14.567
17033SOL    HW152938   4.440  12.315  14.540
17033SOL    HW252939   4.392  12.390  14.663
17034SOL     OW52940   1.113   0.626   0.480
17034SOL    HW152941   1.055   0.568   0.529
17034SOL    HW252942   1.092   0.714   0.513
17035SOL     OW52943   2.372   9.204  13.473
17035SOL    HW152944   2.296   9.193  13.529
17035SOL    HW252945   2.442   9.158  13.518
17036SOL     OW52946   0.442  14.616   1.077
17036SOL    HW152947   0.388  14.596   1.153
17036SOL    HW252948   0.531  14.591   1.103
17037SOL     OW52949  14.301   2.823  13.854
17037SOL    HW152950  14.238   2.757  13.881
17037SOL    HW252951  14.248   2.898  13.827
17038SOL     OW52952   4.891   1.517   6.442
17038SOL    HW152953   4.801   1.488   6.432
17038SOL    HW252954   4.938   1.474   6.371
17039SOL     OW52955  13.588   6.934  13.850
17039SOL    HW152956  13.649   7.006  13.867
17039SOL    HW252957  13.633   6.856  13.882
17040SOL     OW52958   2.491  14.286   7.035
17040SOL    HW152959   2.564  14.227   7.053
17040SOL    HW252960   2.532  14.363   6.995
17041SOL     OW52961   8.520   2.699   3.500
17041SOL    HW152962   8.599   2.741   3.532
17041SOL    HW252963   8.495   2.638   3.569
17042SOL     OW52964   4.159  11.166  11.737
17042SOL    HW152965   4.088  11.123  11.690
17042SOL    HW252966   4.211  11.209  11.669
17043SOL     OW52967   4.578   5.002  12.745
17043SOL    HW152968   4.535   5.047  12.818
17043SOL    HW252969   4.545   5.047  12.667
17044SOL     OW52970   5.922  10.165   8.344
17044SOL    HW152971   5.989  10.183   8.409
17044SOL    HW252972   5.929  10.238   8.282
17045SOL     OW52973   4.886  12.670  11.799
17045SOL    HW152974   4.980  12.681  11.810
17045SOL    HW252975   4.854  12.754  11.767
17046SOL     OW52976   1.673   6.065   0.337
17046SOL    HW152977   1.755   6.112   0.348
17046SOL    HW252978   1.652   6.075   0.244
17047SOL     OW52979   1.538  12.841   5.353
17047SOL    HW152980   1.580  12.906   5.409
17047SOL    HW252981   1.459  12.885   5.320
17048SOL     OW52982  10.308  11.566   3.833
17048SOL    HW152983  10.244  11.515   3.882
17048SOL    HW252984  10.305  11.531   3.744
17049SOL     OW52985   8.970   1.941  10.088
17049SOL    HW152986   9.016   1.995  10.152
17049SOL    HW252987   8.974   1.852  10.124
17050SOL     OW52988   6.834   5.533   9.944
17050SOL    HW152989   6.906   5.472   9.956
17050SOL    HW252990   6.813   5.528   9.851
17051SOL     OW52991   6.140  10.733   4.177
17051SOL    HW152992   6.189  10.792   4.121
17051SOL    HW252993   6.104  10.788   4.246
17052SOL     OW52994   6.873  13.532   3.715
17052SOL    HW152995   6.822  13.463   3.672
17052SOL    HW252996   6.945  13.485   3.758
17053SOL     OW52997   6.401   3.701   4.109
17053SOL    HW152998   6.483   3.704   4.158
17053SOL    HW252999   6.335   3.736   4.169
17054SOL     OW53000   8.255  12.113  10.749
17054SOL    HW153001   8.201  12.180  10.792
17054SOL    HW253002   8.245  12.036  10.805
17055SOL     OW53003   9.338  14.010   2.727
17055SOL    HW153004   9.316  14.071   2.797
17055SOL    HW253005   9.419  13.968   2.757
17056SOL     OW53006   1.287  11.858   4.900
17056SOL    HW153007   1.316  11.796   4.968
17056SOL    HW253008   1.306  11.944   4.937
17057SOL     OW53009   8.921   6.427   0.279
17057SOL    HW153010   8.991   6.378   0.238
17057SOL    HW253011   8.874   6.363   0.332
17058SOL     OW53012   2.388  13.495   2.054
17058SOL    HW153013   2.306  13.494   2.104
17058SOL    HW253014   2.369  13.442   1.976
17059SOL     OW53015   6.790  14.595   4.835
17059SOL    HW153016   6.819  14.517   4.786
17059SOL    HW253017   6.798  14.570   4.927
17060SOL     OW53018  14.076  14.245   7.792
17060SOL    HW153019  13.987  14.216   7.807
17060SOL    HW253020  14.123  14.224   7.873
17061SOL     OW53021   2.289  10.859   4.594
17061SOL    HW153022   2.280  10.890   4.684
17061SOL    HW253023   2.369  10.806   4.595
17062SOL     OW53024   3.908   7.255   9.024
17062SOL    HW153025   3.926   7.229   9.114
17062SOL    HW253026   3.850   7.330   9.031
17063SOL     OW53027   4.547  10.512  13.887
17063SOL    HW153028   4.513  10.443  13.945
17063SOL    HW253029   4.470  10.547  13.844
17064SOL     OW53030  14.820   0.542   1.362
17064SOL    HW153031  14.763   0.618   1.371
17064SOL    HW253032  14.869   0.559   1.281
17065SOL     OW53033  12.551  13.806   8.889
17065SOL    HW153034  12.467  13.773   8.921
17065SOL    HW253035  12.606  13.727   8.879
17066SOL     OW53036   4.593   8.374   1.572
17066SOL    HW153037   4.529   8.406   1.509
17066SOL    HW253038   4.605   8.282   1.551
17067SOL     OW53039   0.577  13.588   4.391
17067SOL    HW153040   0.590  13.547   4.305
17067SOL    HW253041   0.523  13.525   4.439
17068SOL     OW53042  11.575  12.261   3.495
17068SOL    HW153043  11.553  12.352   3.475
17068SOL    HW253044  11.667  12.263   3.522
17069SOL     OW53045  13.370  10.021  10.628
17069SOL    HW153046  13.423   9.996  10.553
17069SOL    HW253047  13.417  10.094  10.668
17070SOL     OW53048   1.751   8.620   2.174
17070SOL    HW153049   1.691   8.546   2.185
17070SOL    HW253050   1.835   8.588   2.207
17071SOL     OW53051  12.596   0.433   6.619
17071SOL    HW153052  12.531   0.414   6.687
17071SOL    HW253053  12.675   0.457   6.668
17072SOL     OW53054   7.587  13.832   3.424
17072SOL    HW153055   7.666  13.821   3.372
17072SOL    HW253056   7.519  13.853   3.360
17073SOL     OW53057  13.023   0.963  10.116
17073SOL    HW153058  13.100   0.980  10.170
17073SOL    HW253059  13.054   0.975  10.026
17074SOL     OW53060  10.262  10.452   2.262
17074SOL    HW153061  10.193  10.397   2.226
17074SOL    HW253062  10.224  10.488   2.343
17075SOL     OW53063   8.923  11.900  10.518
17075SOL    HW153064   8.949  11.988  10.491
17075SOL    HW253065   8.876  11.912  10.600
17076SOL     OW53066   5.210  12.334   1.756
17076SOL    HW153067   5.165  12.273   1.814
17076SOL    HW253068   5.190  12.420   1.792
17077SOL     OW53069   6.639   9.427  10.438
17077SOL    HW153070   6.597   9.455  10.519
17077SOL    HW253071   6.724   9.393  10.466
17078SOL     OW53072   5.054  13.003   3.542
17078SOL    HW153073   4.973  12.985   3.591
17078SOL    HW253074   5.121  13.011   3.610
17079SOL     OW53075  13.186   0.353  14.145
17079SOL    HW153076  13.118   0.285  14.154
17079SOL    HW253077  13.268   0.306  14.159
17080SOL     OW53078   3.478   0.902   9.341
17080SOL    HW153079   3.397   0.910   9.391
17080SOL    HW253080   3.547   0.904   9.407
17081SOL     OW53081   2.801  11.147   1.096
17081SOL    HW153082   2.732  11.087   1.066
17081SOL    HW253083   2.882  11.097   1.090
17082SOL     OW53084   5.659   2.109   2.462
17082SOL    HW153085   5.726   2.074   2.520
17082SOL    HW253086   5.655   2.047   2.389
17083SOL     OW53087   5.854  13.402  14.346
17083SOL    HW153088   5.766  13.365  14.356
17083SOL    HW253089   5.879  13.382  14.256
17084SOL     OW53090   7.880  12.801   6.150
17084SOL    HW153091   7.809  12.825   6.091
17084SOL    HW253092   7.838  12.758   6.224
17085SOL     OW53093   2.057  11.148   7.933
17085SOL    HW153094   2.129  11.174   7.990
17085SOL    HW253095   1.979  11.154   7.988
17086SOL     OW53096   8.990  11.513  14.377
17086SOL    HW153097   8.901  11.544  14.356
17086SOL    HW253098   8.980  11.419  14.391
17087SOL     OW53099   1.560   4.473   2.357
17087SOL    HW153100   1.533   4.383   2.374
17087SOL    HW253101   1.497   4.506   2.293
17088SOL     OW53102  12.089   6.613  10.547
17088SOL    HW153103  12.068   6.535  10.599
17088SOL    HW253104  12.180   6.631  10.568
17089SOL     OW53105   2.990   6.723   4.611
17089SOL    HW153106   3.080   6.716   4.642
17089SOL    HW253107   2.988   6.673   4.530
17090SOL     OW53108   5.257   6.815   4.071
17090SOL    HW153109   5.263   6.863   4.154
17090SOL    HW253110   5.347   6.788   4.053
17091SOL     OW53111   8.189   5.134   3.145
17091SOL    HW153112   8.192   5.038   3.148
17091SOL    HW253113   8.127   5.154   3.075
17092SOL     OW53114  11.526   8.191   8.321
17092SOL    HW153115  11.541   8.175   8.228
17092SOL    HW253116  11.457   8.257   8.324
17093SOL     OW53117  11.042   7.013   8.442
17093SOL    HW153118  11.040   7.094   8.493
17093SOL    HW253119  11.080   7.037   8.358
17094SOL     OW53120   0.046   1.758   7.058
17094SOL    HW153121   0.107   1.728   7.126
17094SOL    HW253122   0.101   1.774   6.982
17095SOL     OW53123   8.380  13.056   2.002
17095SOL    HW153124   8.436  13.044   2.078
17095SOL    HW253125   8.298  13.011   2.024
17096SOL     OW53126   3.248   0.816  14.738
17096SOL    HW153127   3.209   0.761  14.806
17096SOL    HW253128   3.265   0.899  14.781
17097SOL     OW53129  14.434  12.074   0.456
17097SOL    HW153130  14.458  12.032   0.539
17097SOL    HW253131  14.387  12.006   0.408
17098SOL     OW53132   7.695   1.897   4.062
17098SOL    HW153133   7.666   1.821   4.010
17098SOL    HW253134   7.709   1.863   4.150
17099SOL     OW53135   9.617   3.180   0.953
17099SOL    HW153136   9.612   3.109   1.017
17099SOL    HW253137   9.708   3.208   0.956
17100SOL     OW53138   5.577   1.092   5.987
17100SOL    HW153139   5.521   1.014   5.987
17100SOL    HW253140   5.584   1.116   5.894
17101SOL     OW53141   3.704   6.615  11.355
17101SOL    HW153142   3.718   6.691  11.412
17101SOL    HW253143   3.741   6.642  11.270
17102SOL     OW53144   1.585  13.998  14.080
17102SOL    HW153145   1.671  13.982  14.041
17102SOL    HW253146   1.562  14.087  14.053
17103SOL     OW53147   8.559   6.407  10.761
17103SOL    HW153148   8.631   6.469  10.773
17103SOL    HW253149   8.480   6.459  10.777
17104SOL     OW53150  11.251   1.693   9.048
17104SOL    HW153151  11.230   1.678   8.956
17104SOL    HW253152  11.288   1.610   9.078
17105SOL     OW53153   5.287  14.775   0.631
17105SOL    HW153154   5.274  14.862   0.592
17105SOL    HW253155   5.229  14.774   0.707
17106SOL     OW53156  10.046  11.153   4.800
17106SOL    HW153157  10.031  11.181   4.890
17106SOL    HW253158   9.967  11.105   4.776
17107SOL     OW53159  11.383  13.204   5.732
17107SOL    HW153160  11.295  13.242   5.724
17107SOL    HW253161  11.407  13.179   5.643
17108SOL     OW53162   2.547   1.275   8.714
17108SOL    HW153163   2.565   1.281   8.621
17108SOL    HW253164   2.532   1.181   8.730
17109SOL     OW53165  13.832  10.707   9.759
17109SOL    HW153166  13.754  10.756   9.782
17109SOL    HW253167  13.856  10.661   9.839
17110SOL     OW53168   7.484   6.141   9.696
17110SOL    HW153169   7.535   6.134   9.777
17110SOL    HW253170   7.524   6.076   9.637
17111SOL     OW53171   7.374   9.675   8.832
17111SOL    HW153172   7.411   9.719   8.908
17111SOL    HW253173   7.280   9.675   8.847
17112SOL     OW53174   0.396   7.853   8.052
17112SOL    HW153175   0.346   7.915   7.999
17112SOL    HW253176   0.361   7.767   8.027
17113SOL     OW53177   4.780   4.000  11.406
17113SOL    HW153178   4.738   4.063  11.465
17113SOL    HW253179   4.839   3.949  11.462
17114SOL     OW53180   7.986   2.346   9.310
17114SOL    HW153181   7.998   2.343   9.405
17114SOL    HW253182   8.052   2.285   9.276
17115SOL     OW53183  13.755   8.956   1.665
17115SOL    HW153184  13.704   8.881   1.634
17115SOL    HW253185  13.838   8.918   1.694
17116SOL     OW53186   6.604   0.155  11.411
17116SOL    HW153187   6.670   0.096  11.446
17116SOL    HW253188   6.583   0.215  11.483
17117SOL     OW53189   6.916  13.393   6.379
17117SOL    HW153190   6.997  13.356   6.342
17117SOL    HW253191   6.849  13.327   6.362
17118SOL     OW53192  14.040   8.102  14.708
17118SOL    HW153193  14.004   8.067  14.789
17118SOL    HW253194  14.097   8.032  14.675
17119SOL     OW53195   7.367   0.948   8.330
17119SOL    HW153196   7.350   0.899   8.249
17119SOL    HW253197   7.303   1.019   8.330
17120SOL     OW53198  11.642  14.030   8.085
17120SOL    HW153199  11.587  13.953   8.102
17120SOL    HW253200  11.584  14.091   8.039
17121SOL     OW53201   8.420   0.225   8.193
17121SOL    HW153202   8.431   0.314   8.226
17121SOL    HW253203   8.429   0.232   8.098
17122SOL     OW53204   6.906   7.192   4.300
17122SOL    HW153205   6.925   7.204   4.393
17122SOL    HW253206   6.899   7.097   4.289
17123SOL     OW53207  11.134  10.336  13.305
17123SOL    HW153208  11.064  10.395  13.333
17123SOL    HW253209  11.118  10.321  13.212
17124SOL     OW53210   1.738  12.375   6.209
17124SOL    HW153211   1.650  12.412   6.207
17124SOL    HW253212   1.728  12.291   6.254
17125SOL     OW53213   6.380   2.051   8.708
17125SOL    HW153214   6.296   2.078   8.671
17125SOL    HW253215   6.438   2.043   8.632
17126SOL     OW53216   1.081   2.510   6.110
17126SOL    HW153217   1.031   2.583   6.073
17126SOL    HW253218   1.087   2.531   6.203
17127SOL     OW53219  10.497   7.762  14.643
17127SOL    HW153220  10.412   7.793  14.674
17127SOL    HW253221  10.522   7.825  14.575
17128SOL     OW53222  14.136   0.099   0.612
17128SOL    HW153223  14.119   0.097   0.518
17128SOL    HW253224  14.050   0.113   0.651
17129SOL     OW53225  11.154   0.752   6.005
17129SOL    HW153226  11.081   0.727   5.948
17129SOL    HW253227  11.231   0.713   5.963
17130SOL     OW53228   5.431   1.120   4.327
17130SOL    HW153229   5.364   1.186   4.305
17130SOL    HW253230   5.480   1.108   4.245
17131SOL     OW53231   8.609  11.101   1.210
17131SOL    HW153232   8.640  11.179   1.163
17131SOL    HW253233   8.676  11.085   1.276
17132SOL     OW53234  12.395   7.252   6.707
17132SOL    HW153235  12.399   7.159   6.728
17132SOL    HW253236  12.429   7.296   6.785
17133SOL     OW53237   1.732  14.425   2.789
17133SOL    HW153238   1.674  14.483   2.740
17133SOL    HW253239   1.731  14.460   2.878
17134SOL     OW53240  14.647  13.902   8.367
17134SOL    HW153241  14.727  13.945   8.397
17134SOL    HW253242  14.674  13.849   8.292
17135SOL     OW53243  13.343   4.340  10.689
17135SOL    HW153244  13.249   4.356  10.693
17135SOL    HW253245  13.380   4.398  10.756
17136SOL     OW53246  13.187   1.777   3.917
17136SOL    HW153247  13.230   1.859   3.893
17136SOL    HW253248  13.112   1.771   3.858
17137SOL     OW53249   4.993   0.447   1.493
17137SOL    HW153250   4.995   0.455   1.589
17137SOL    HW253251   5.084   0.431   1.469
17138SOL     OW53252  11.007  13.325  10.615
17138SOL    HW153253  10.983  13.323  10.707
17138SOL    HW253254  10.999  13.235  10.586
17139SOL     OW53255  14.797   1.309   7.036
17139SOL    HW153256  14.737   1.358   6.980
17139SOL    HW253257  14.865   1.277   6.976
17140SOL     OW53258  10.319   4.568   1.970
17140SOL    HW153259  10.306   4.486   1.922
17140SOL    HW253260  10.341   4.632   1.903
17141SOL     OW53261  12.695   7.701   1.422
17141SOL    HW153262  12.615   7.654   1.445
17141SOL    HW253263  12.695   7.778   1.479
17142SOL     OW53264   2.150   3.327   0.149
17142SOL    HW153265   2.080   3.333   0.214
17142SOL    HW253266   2.107   3.295   0.070
17143SOL     OW53267   8.799  11.444  13.061
17143SOL    HW153268   8.818  11.358  13.023
17143SOL    HW253269   8.877  11.465  13.112
17144SOL     OW53270   6.460  10.912   6.043
17144SOL    HW153271   6.513  10.868   5.976
17144SOL    HW253272   6.521  10.970   6.088
17145SOL     OW53273   0.290   5.306   2.322
17145SOL    HW153274   0.328   5.384   2.361
17145SOL    HW253275   0.199   5.330   2.303
17146SOL     OW53276   3.373  14.833   7.546
17146SOL    HW153277   3.285  14.833   7.584
17146SOL    HW253278   3.384  14.745   7.511
17147SOL     OW53279  13.545   5.083  12.335
17147SOL    HW153280  13.562   5.114  12.246
17147SOL    HW253281  13.520   5.161  12.384
17148SOL     OW53282  12.634   9.070  10.402
17148SOL    HW153283  12.707   9.023  10.442
17148SOL    HW253284  12.661   9.162  10.404
17149SOL     OW53285   5.541  13.835   5.362
17149SOL    HW153286   5.624  13.852   5.318
17149SOL    HW253287   5.489  13.914   5.348
17150SOL     OW53288   3.411  10.089  14.142
17150SOL    HW153289   3.342  10.027  14.124
17150SOL    HW253290   3.491  10.046  14.113
17151SOL     OW53291  13.381   7.071   3.895
17151SOL    HW153292  13.404   7.123   3.818
17151SOL    HW253293  13.314   7.123   3.940
17152SOL     OW53294   3.847   3.119   7.353
17152SOL    HW153295   3.912   3.078   7.410
17152SOL    HW253296   3.898   3.169   7.290
17153SOL     OW53297  11.436   3.159   2.426
17153SOL    HW153298  11.457   3.237   2.478
17153SOL    HW253299  11.510   3.149   2.367
17154SOL     OW53300  13.060   7.608  12.507
17154SOL    HW153301  12.992   7.571  12.451
17154SOL    HW253302  13.055   7.555  12.587
17155SOL     OW53303   5.096  14.179   6.266
17155SOL    HW153304   5.040  14.102   6.262
17155SOL    HW253305   5.098  14.212   6.176
17156SOL     OW53306   5.643   2.217  11.195
17156SOL    HW153307   5.624   2.123  11.191
17156SOL    HW253308   5.629   2.241  11.287
17157SOL     OW53309  12.944   7.173   5.575
17157SOL    HW153310  12.937   7.080   5.596
17157SOL    HW253311  12.989   7.211   5.650
17158SOL     OW53312   6.154  12.007   3.143
17158SOL    HW153313   6.158  11.921   3.184
17158SOL    HW253314   6.091  12.056   3.195
17159SOL     OW53315   8.022   1.348  13.350
17159SOL    HW153316   8.091   1.325  13.288
17159SOL    HW253317   8.067   1.360  13.433
17160SOL     OW53318   9.976  12.677   6.729
17160SOL    HW153319  10.001  12.624   6.805
17160SOL    HW253320   9.884  12.697   6.744
17161SOL     OW53321  13.530   5.903  11.825
17161SOL    HW153322  13.618   5.941  11.817
17161SOL    HW253323  13.498   5.934  11.910
17162SOL     OW53324   1.928   2.957  13.247
17162SOL    HW153325   2.013   2.920  13.220
17162SOL    HW253326   1.889   2.888  13.301
17163SOL     OW53327   2.344   1.229   2.633
17163SOL    HW153328   2.336   1.134   2.628
17163SOL    HW253329   2.423   1.250   2.584
17164SOL     OW53330   9.598  14.054  10.977
17164SOL    HW153331   9.589  14.042  11.072
17164SOL    HW253332   9.512  14.086  10.949
17165SOL     OW53333   3.386   4.152   6.317
17165SOL    HW153334   3.355   4.096   6.388
17165SOL    HW253335   3.353   4.240   6.339
17166SOL     OW53336   1.631  14.383   2.166
17166SOL    HW153337   1.714  14.428   2.185
17166SOL    HW253338   1.647  14.337   2.084
17167SOL     OW53339   9.851  10.295  13.898
17167SOL    HW153340   9.807  10.371  13.857
17167SOL    HW253341   9.843  10.312  13.992
17168SOL     OW53342  10.796  10.120   7.296
17168SOL    HW153343  10.887  10.141   7.274
17168SOL    HW253344  10.747  10.144   7.217
17169SOL     OW53345  10.637  10.797   3.906
17169SOL    HW153346  10.697  10.723   3.911
17169SOL    HW253347  10.628  10.826   3.997
17170SOL     OW53348   1.312  14.420   5.255
17170SOL    HW153349   1.323  14.339   5.306
17170SOL    HW253350   1.398  14.460   5.255
17171SOL     OW53351  10.811  11.730   5.191
17171SOL    HW153352  10.815  11.738   5.095
17171SOL    HW253353  10.852  11.645   5.210
17172SOL     OW53354   3.658   3.804   9.321
17172SOL    HW153355   3.703   3.720   9.329
17172SOL    HW253356   3.570   3.788   9.355
17173SOL     OW53357  13.600  13.644  12.326
17173SOL    HW153358  13.551  13.726  12.323
17173SOL    HW253359  13.571  13.596  12.248
17174SOL     OW53360   8.287   0.251   3.692
17174SOL    HW153361   8.368   0.300   3.676
17174SOL    HW253362   8.247   0.241   3.605
17175SOL     OW53363  11.981  12.929  14.164
17175SOL    HW153364  11.886  12.923  14.177
17175SOL    HW253365  12.005  12.846  14.122
17176SOL     OW53366   8.187   7.613  12.320
17176SOL    HW153367   8.140   7.676  12.266
17176SOL    HW253368   8.246   7.665  12.373
17177SOL     OW53369   3.173   1.019  13.252
17177SOL    HW153370   3.107   1.023  13.321
17177SOL    HW253371   3.157   0.935  13.209
17178SOL     OW53372   6.618   8.188   0.472
17178SOL    HW153373   6.684   8.257   0.484
17178SOL    HW253374   6.661   8.108   0.503
17179SOL     OW53375   1.860  11.471   0.662
17179SOL    HW153376   1.840  11.544   0.603
17179SOL    HW253377   1.775  11.436   0.687
17180SOL     OW53378   7.686   4.021   9.828
17180SOL    HW153379   7.701   4.072   9.748
17180SOL    HW253380   7.686   4.086   9.898
17181SOL     OW53381   3.110   4.633   0.094
17181SOL    HW153382   3.169   4.584   0.152
17181SOL    HW253383   3.062   4.566   0.046
17182SOL     OW53384   4.128   0.604   7.974
17182SOL    HW153385   4.093   0.607   8.063
17182SOL    HW253386   4.143   0.695   7.951
17183SOL     OW53387   6.925   1.631   9.949
17183SOL    HW153388   6.843   1.583   9.957
17183SOL    HW253389   6.944   1.633   9.855
17184SOL     OW53390  12.185   5.270   5.521
17184SOL    HW153391  12.170   5.351   5.474
17184SOL    HW253392  12.103   5.252   5.566
17185SOL     OW53393   3.978   5.801  10.621
17185SOL    HW153394   3.943   5.844  10.543
17185SOL    HW253395   3.956   5.708  10.609
17186SOL     OW53396   2.557   2.751   4.582
17186SOL    HW153397   2.511   2.804   4.647
17186SOL    HW253398   2.594   2.679   4.632
17187SOL     OW53399  13.497   9.820   1.026
17187SOL    HW153400  13.407   9.838   1.053
17187SOL    HW253401  13.551   9.880   1.079
17188SOL     OW53402   9.813   3.893   3.338
17188SOL    HW153403   9.726   3.853   3.334
17188SOL    HW253404   9.871   3.822   3.363
17189SOL     OW53405   8.624   4.390   1.396
17189SOL    HW153406   8.607   4.451   1.324
17189SOL    HW253407   8.677   4.439   1.458
17190SOL     OW53408   0.733  10.586  14.082
17190SOL    HW153409   0.798  10.603  14.149
17190SOL    HW253410   0.695  10.501  14.105
17191SOL     OW53411  10.014   3.969   7.764
17191SOL    HW153412   9.923   3.999   7.759
17191SOL    HW253413  10.065   4.049   7.777
17192SOL     OW53414   9.249  13.289   8.071
17192SOL    HW153415   9.295  13.232   8.133
17192SOL    HW253416   9.200  13.229   8.015
17193SOL     OW53417   9.067   4.679   3.704
17193SOL    HW153418   9.014   4.741   3.655
17193SOL    HW253419   9.157   4.695   3.675
17194SOL     OW53420  13.068  12.612   9.799
17194SOL    HW153421  13.080  12.615   9.894
17194SOL    HW253422  12.983  12.653   9.785
17195SOL     OW53423   9.859   3.917   5.374
17195SOL    HW153424   9.947   3.880   5.372
17195SOL    HW253425   9.844   3.937   5.467
17196SOL     OW53426  10.977   9.588  10.644
17196SOL    HW153427  11.055   9.606  10.592
17196SOL    HW253428  10.984   9.496  10.667
17197SOL     OW53429   2.165   9.848  11.967
17197SOL    HW153430   2.164   9.855  11.872
17197SOL    HW253431   2.074   9.857  11.993
17198SOL     OW53432   9.706   6.671   4.388
17198SOL    HW153433   9.719   6.584   4.426
17198SOL    HW253434   9.617   6.669   4.354
17199SOL     OW53435   9.941   2.390   9.112
17199SOL    HW153436   9.851   2.388   9.079
17199SOL    HW253437   9.958   2.483   9.130
17200SOL     OW53438  13.851   5.787  12.037
17200SOL    HW153439  13.863   5.842  11.960
17200SOL    HW253440  13.825   5.848  12.106
17201SOL     OW53441   1.308   2.852   5.060
17201SOL    HW153442   1.372   2.854   4.989
17201SOL    HW253443   1.314   2.938   5.100
17202SOL     OW53444   5.879  13.382   4.467
17202SOL    HW153445   5.900  13.459   4.413
17202SOL    HW253446   5.783  13.378   4.466
17203SOL     OW53447   4.789  14.444   0.700
17203SOL    HW153448   4.878  14.409   0.690
17203SOL    HW253449   4.759  14.457   0.610
17204SOL     OW53450   0.006   7.954  10.395
17204SOL    HW153451   0.094   7.991  10.407
17204SOL    HW253452   0.006   7.921  10.305
17205SOL     OW53453  11.553   1.812   6.209
17205SOL    HW153454  11.477   1.845   6.257
17205SOL    HW253455  11.577   1.731   6.255
17206SOL     OW53456   1.065   1.411   6.498
17206SOL    HW153457   0.973   1.411   6.521
17206SOL    HW253458   1.102   1.335   6.543
17207SOL     OW53459   8.001   5.793   2.275
17207SOL    HW153460   8.094   5.782   2.292
17207SOL    HW253461   7.964   5.705   2.287
17208SOL     OW53462  11.830   3.286  10.888
17208SOL    HW153463  11.878   3.358  10.929
17208SOL    HW253464  11.894   3.216  10.880
17209SOL     OW53465   3.573   9.677   5.552
17209SOL    HW153466   3.495   9.659   5.500
17209SOL    HW253467   3.643   9.691   5.488
17210SOL     OW53468   1.579   9.094   4.437
17210SOL    HW153469   1.614   9.005   4.439
17210SOL    HW253470   1.640   9.144   4.492
17211SOL     OW53471  11.491   4.193  11.000
17211SOL    HW153472  11.412   4.145  10.977
17211SOL    HW253473  11.562   4.129  10.989
17212SOL     OW53474   2.326   0.267   0.683
17212SOL    HW153475   2.396   0.255   0.747
17212SOL    HW253476   2.264   0.196   0.702
17213SOL     OW53477   9.797  12.418   9.808
17213SOL    HW153478   9.745  12.478   9.861
17213SOL    HW253479   9.872  12.396   9.862
17214SOL     OW53480  14.420   7.272   7.153
17214SOL    HW153481  14.357   7.283   7.081
17214SOL    HW253482  14.424   7.177   7.166
17215SOL     OW53483   9.666   8.201   6.516
17215SOL    HW153484   9.636   8.289   6.497
17215SOL    HW253485   9.605   8.144   6.469
17216SOL     OW53486  14.264   4.542  12.634
17216SOL    HW153487  14.300   4.500  12.712
17216SOL    HW253488  14.170   4.546  12.651
17217SOL     OW53489  12.049  14.688  11.319
17217SOL    HW153490  12.110  14.675  11.246
17217SOL    HW253491  11.965  14.660  11.284
17218SOL     OW53492   4.921   2.453  12.621
17218SOL    HW153493   4.968   2.387  12.570
17218SOL    HW253494   4.916   2.530  12.564
17219SOL     OW53495   0.626   4.708   3.398
17219SOL    HW153496   0.665   4.634   3.444
17219SOL    HW253497   0.700   4.750   3.354
17220SOL     OW53498   0.412  14.815  11.807
17220SOL    HW153499   0.428  14.848  11.719
17220SOL    HW253500   0.499  14.802  11.844
17221SOL     OW53501   0.583  10.116  10.294
17221SOL    HW153502   0.614  10.070  10.216
17221SOL    HW253503   0.662  10.151  10.335
17222SOL     OW53504   8.783   0.964   8.028
17222SOL    HW153505   8.820   0.892   8.079
17222SOL    HW253506   8.797   0.939   7.937
17223SOL     OW53507   5.936   1.615   3.669
17223SOL    HW153508   5.963   1.535   3.714
17223SOL    HW253509   5.896   1.584   3.588
17224SOL     OW53510   5.980   7.513   4.711
17224SOL    HW153511   5.913   7.498   4.644
17224SOL    HW253512   5.934   7.558   4.782
17225SOL     OW53513   8.752  11.262   5.399
17225SOL    HW153514   8.744  11.215   5.482
17225SOL    HW253515   8.816  11.211   5.349
17226SOL     OW53516  14.573  10.374   8.580
17226SOL    HW153517  14.540  10.383   8.669
17226SOL    HW253518  14.614  10.458   8.561
17227SOL     OW53519   1.847  11.570   9.061
17227SOL    HW153520   1.917  11.504   9.058
17227SOL    HW253521   1.815  11.566   9.151
17228SOL     OW53522   2.046   3.777   7.327
17228SOL    HW153523   2.133   3.796   7.293
17228SOL    HW253524   1.987   3.829   7.272
17229SOL     OW53525   6.764   0.277   5.969
17229SOL    HW153526   6.733   0.341   6.032
17229SOL    HW253527   6.838   0.234   6.012
17230SOL     OW53528   0.413  11.883   5.197
17230SOL    HW153529   0.413  11.826   5.274
17230SOL    HW253530   0.472  11.839   5.135
17231SOL     OW53531  12.492   7.003   2.854
17231SOL    HW153532  12.421   6.946   2.825
17231SOL    HW253533  12.485   7.080   2.797
17232SOL     OW53534   2.711  12.153   7.055
17232SOL    HW153535   2.696  12.175   6.963
17232SOL    HW253536   2.626  12.122   7.086
17233SOL     OW53537   3.191   4.089   7.875
17233SOL    HW153538   3.133   4.020   7.844
17233SOL    HW253539   3.279   4.060   7.849
17234SOL     OW53540   5.422   0.073   9.014
17234SOL    HW153541   5.450   0.106   8.929
17234SOL    HW253542   5.334   0.037   8.999
17235SOL     OW53543   7.385   7.621   9.699
17235SOL    HW153544   7.424   7.604   9.614
17235SOL    HW253545   7.292   7.599   9.688
17236SOL     OW53546   4.268  12.455   6.282
17236SOL    HW153547   4.232  12.379   6.237
17236SOL    HW253548   4.357  12.464   6.246
17237SOL     OW53549  12.403   4.279   0.829
17237SOL    HW153550  12.465   4.275   0.902
17237SOL    HW253551  12.382   4.372   0.820
17238SOL     OW53552  14.081   6.251   8.002
17238SOL    HW153553  14.125   6.297   8.073
17238SOL    HW253554  14.042   6.174   8.044
17239SOL     OW53555   3.616   6.100   2.849
17239SOL    HW153556   3.622   6.196   2.843
17239SOL    HW253557   3.634   6.070   2.760
17240SOL     OW53558   5.523   7.280   4.625
17240SOL    HW153559   5.499   7.199   4.580
17240SOL    HW253560   5.618   7.285   4.617
17241SOL     OW53561   7.172   7.476   4.048
17241SOL    HW153562   7.163   7.385   4.021
17241SOL    HW253563   7.082   7.506   4.064
17242SOL     OW53564   4.977  13.926  13.576
17242SOL    HW153565   4.886  13.895  13.577
17242SOL    HW253566   5.007  13.914  13.666
17243SOL     OW53567   2.560  13.603   9.813
17243SOL    HW153568   2.614  13.594   9.892
17243SOL    HW253569   2.574  13.522   9.765
17244SOL     OW53570   2.744   1.447   7.714
17244SOL    HW153571   2.806   1.485   7.652
17244SOL    HW253572   2.781   1.360   7.735
17245SOL     OW53573   3.723   3.159   4.455
17245SOL    HW153574   3.818   3.173   4.464
17245SOL    HW253575   3.690   3.243   4.423
17246SOL     OW53576   5.908  10.692   2.983
17246SOL    HW153577   5.974  10.726   2.923
17246SOL    HW253578   5.895  10.601   2.957
17247SOL     OW53579  13.067   2.989  12.026
17247SOL    HW153580  13.101   2.945  11.948
17247SOL    HW253581  13.139   2.984  12.089
17248SOL     OW53582   3.154   3.696   5.251
17248SOL    HW153583   3.195   3.782   5.259
17248SOL    HW253584   3.066   3.708   5.287
17249SOL     OW53585  11.219   4.350   8.488
17249SOL    HW153586  11.170   4.290   8.545
17249SOL    HW253587  11.173   4.433   8.496
17250SOL     OW53588   7.791   7.161   7.938
17250SOL    HW153589   7.853   7.215   7.888
17250SOL    HW253590   7.845   7.091   7.975
17251SOL     OW53591  12.073   5.704   3.983
17251SOL    HW153592  11.995   5.664   4.020
17251SOL    HW253593  12.125   5.731   4.059
17252SOL     OW53594  12.728   6.158   8.705
17252SOL    HW153595  12.799   6.137   8.765
17252SOL    HW253596  12.650   6.159   8.759
17253SOL     OW53597   4.241  13.824   6.250
17253SOL    HW153598   4.317  13.770   6.230
17253SOL    HW253599   4.233  13.821   6.345
17254SOL     OW53600  14.163   1.745   5.177
17254SOL    HW153601  14.086   1.693   5.153
17254SOL    HW253602  14.181   1.722   5.268
17255SOL     OW53603  10.553   3.043  13.047
17255SOL    HW153604  10.597   3.128  13.053
17255SOL    HW253605  10.468   3.063  13.008
17256SOL     OW53606   5.404  12.647  13.296
17256SOL    HW153607   5.446  12.576  13.246
17256SOL    HW253608   5.449  12.647  13.380
17257SOL     OW53609  10.492   8.267  14.360
17257SOL    HW153610  10.518   8.189  14.311
17257SOL    HW253611  10.516   8.340  14.303
17258SOL     OW53612   3.732   4.787  13.481
17258SOL    HW153613   3.669   4.715  13.493
17258SOL    HW253614   3.807   4.762  13.535
17259SOL     OW53615  14.083  10.829  12.472
17259SOL    HW153616  14.163  10.882  12.475
17259SOL    HW253617  14.060  10.815  12.563
17260SOL     OW53618   2.687   7.960   4.466
17260SOL    HW153619   2.769   7.933   4.508
17260SOL    HW253620   2.663   8.041   4.511
17261SOL     OW53621  12.339   4.483  12.016
17261SOL    HW153622  12.400   4.413  12.038
17261SOL    HW253623  12.392   4.563  12.017
17262SOL     OW53624   4.496  10.622   2.601
17262SOL    HW153625   4.575  10.571   2.614
17262SOL    HW253626   4.426  10.557   2.598
17263SOL     OW53627  13.956   3.132  10.103
17263SOL    HW153628  13.983   3.055  10.052
17263SOL    HW253629  14.010   3.203  10.070
17264SOL     OW53630   7.098   2.163  10.267
17264SOL    HW153631   7.089   2.227  10.196
17264SOL    HW253632   7.010   2.126  10.277
17265SOL     OW53633  13.775   8.939   8.726
17265SOL    HW153634  13.763   9.028   8.757
17265SOL    HW253635  13.708   8.888   8.772
17266SOL     OW53636   8.374   3.157   0.834
17266SOL    HW153637   8.282   3.179   0.820
17266SOL    HW253638   8.408   3.142   0.746
17267SOL     OW53639   3.829  12.402  14.152
17267SOL    HW153640   3.754  12.426  14.098
17267SOL    HW253641   3.894  12.368  14.090
17268SOL     OW53642   9.990   3.822   1.573
17268SOL    HW153643   9.907   3.847   1.611
17268SOL    HW253644  10.054   3.833   1.644
17269SOL     OW53645   7.877  14.075   6.710
17269SOL    HW153646   7.931  14.040   6.781
17269SOL    HW253647   7.872  14.004   6.646
17270SOL     OW53648  12.174  11.533  13.565
17270SOL    HW153649  12.170  11.624  13.594
17270SOL    HW253650  12.125  11.484  13.630
17271SOL     OW53651  10.026   6.045  10.979
17271SOL    HW153652  10.006   5.978  10.914
17271SOL    HW253653  10.061   5.998  11.054
17272SOL     OW53654   9.561   2.099   8.901
17272SOL    HW153655   9.538   2.067   8.988
17272SOL    HW253656   9.656   2.115   8.906
17273SOL     OW53657   1.249   0.353  11.051
17273SOL    HW153658   1.192   0.397  10.987
17273SOL    HW253659   1.314   0.420  11.075
17274SOL     OW53660   4.107  12.331   2.469
17274SOL    HW153661   4.014  12.309   2.475
17274SOL    HW253662   4.109  12.424   2.444
17275SOL     OW53663   9.780   0.388   8.076
17275SOL    HW153664   9.871   0.419   8.072
17275SOL    HW253665   9.767   0.365   8.168
17276SOL     OW53666   1.103  13.459  11.467
17276SOL    HW153667   1.042  13.519  11.508
17276SOL    HW253668   1.154  13.513  11.407
17277SOL     OW53669   6.365   7.171   0.745
17277SOL    HW153670   6.427   7.168   0.818
17277SOL    HW253671   6.284   7.204   0.783
17278SOL     OW53672  13.669  14.621   4.653
17278SOL    HW153673  13.755  14.644   4.688
17278SOL    HW253674  13.642  14.697   4.602
17279SOL     OW53675  12.868  11.694  12.517
17279SOL    HW153676  12.923  11.619  12.498
17279SOL    HW253677  12.851  11.688  12.611
17280SOL     OW53678   9.515   3.912  11.000
17280SOL    HW153679   9.432   3.931  11.042
17280SOL    HW253680   9.580   3.919  11.069
17281SOL     OW53681   8.741  14.262   7.721
17281SOL    HW153682   8.664  14.317   7.706
17281SOL    HW253683   8.809  14.302   7.667
17282SOL     OW53684  13.598   0.542   3.329
17282SOL    HW153685  13.595   0.465   3.385
17282SOL    HW253686  13.512   0.546   3.288
17283SOL     OW53687  10.839   8.224   9.734
17283SOL    HW153688  10.925   8.229   9.691
17283SOL    HW253689  10.852   8.165   9.808
17284SOL     OW53690   5.643   4.885   0.136
17284SOL    HW153691   5.647   4.965   0.083
17284SOL    HW253692   5.576   4.903   0.202
17285SOL     OW53693   4.734   9.482  12.682
17285SOL    HW153694   4.675   9.406  12.679
17285SOL    HW253695   4.807   9.453  12.737
17286SOL     OW53696   5.155   8.902   0.053
17286SOL    HW153697   5.082   8.924   0.112
17286SOL    HW253698   5.143   8.809   0.034
17287SOL     OW53699  11.226   2.315  11.670
17287SOL    HW153700  11.241   2.385  11.607
17287SOL    HW253701  11.296   2.253  11.654
17288SOL     OW53702  13.085  13.892   6.430
17288SOL    HW153703  13.179  13.879   6.419
17288SOL    HW253704  13.056  13.818   6.484
17289SOL     OW53705   1.941   1.742  12.695
17289SOL    HW153706   1.906   1.669  12.645
17289SOL    HW253707   1.980   1.702  12.773
17290SOL     OW53708   4.442  14.729   6.798
17290SOL    HW153709   4.411  14.638   6.792
17290SOL    HW253710   4.369  14.776   6.838
17291SOL     OW53711   9.586  11.918  11.114
17291SOL    HW153712   9.625  11.897  11.029
17291SOL    HW253713   9.509  11.971  11.093
17292SOL     OW53714   3.769   9.198  11.035
17292SOL    HW153715   3.781   9.143  10.957
17292SOL    HW253716   3.843   9.177  11.091
17293SOL     OW53717  10.658  12.738   5.598
17293SOL    HW153718  10.589  12.753   5.663
17293SOL    HW253719  10.666  12.643   5.594
17294SOL     OW53720   1.933   2.579  11.527
17294SOL    HW153721   1.888   2.563  11.444
17294SOL    HW253722   2.022   2.604  11.501
17295SOL     OW53723  11.212  14.411  11.759
17295SOL    HW153724  11.229  14.422  11.853
17295SOL    HW253725  11.124  14.372  11.755
17296SOL     OW53726   9.405  13.657   5.037
17296SOL    HW153727   9.397  13.587   5.102
17296SOL    HW253728   9.481  13.633   4.985
17297SOL     OW53729  12.728   6.416  10.556
17297SOL    HW153730  12.782   6.409  10.477
17297SOL    HW253731  12.756   6.498  10.597
17298SOL     OW53732   0.850   5.358   0.938
17298SOL    HW153733   0.811   5.295   0.999
17298SOL    HW253734   0.939   5.327   0.924
17299SOL     OW53735  13.735  11.819  10.561
17299SOL    HW153736  13.765  11.906  10.537
17299SOL    HW253737  13.687  11.788  10.484
17300SOL     OW53738   0.517  13.641   7.501
17300SOL    HW153739   0.553  13.565   7.548
17300SOL    HW253740   0.499  13.608   7.413
17301SOL     OW53741  10.232  10.234   4.583
17301SOL    HW153742  10.227  10.145   4.547
17301SOL    HW253743  10.246  10.221   4.677
17302SOL     OW53744   3.058   5.006   7.275
17302SOL    HW153745   3.050   4.929   7.220
17302SOL    HW253746   3.045   4.973   7.364
17303SOL     OW53747  10.431   6.256   3.968
17303SOL    HW153748  10.487   6.223   3.898
17303SOL    HW253749  10.481   6.240   4.048
17304SOL     OW53750   6.195   5.099   6.182
17304SOL    HW153751   6.242   5.159   6.241
17304SOL    HW253752   6.260   5.074   6.117
17305SOL     OW53753  14.536   2.988  14.660
17305SOL    HW153754  14.563   2.923  14.595
17305SOL    HW253755  14.608   3.051  14.662
17306SOL     OW53756  14.668   6.109  12.790
17306SOL    HW153757  14.749   6.131  12.744
17306SOL    HW253758  14.678   6.017  12.815
17307SOL     OW53759  14.500   8.938   7.809
17307SOL    HW153760  14.585   8.933   7.765
17307SOL    HW253761  14.494   9.029   7.838
17308SOL     OW53762   0.726  10.618  14.693
17308SOL    HW153763   0.652  10.677  14.678
17308SOL    HW253764   0.771  10.655  14.768
17309SOL     OW53765   1.279   0.156  13.259
17309SOL    HW153766   1.328   0.211  13.321
17309SOL    HW253767   1.286   0.068  13.294
17310SOL     OW53768   5.396  10.639  12.160
17310SOL    HW153769   5.481  10.680  12.145
17310SOL    HW253770   5.333  10.699  12.120
17311SOL     OW53771   4.742   4.719   1.913
17311SOL    HW153772   4.738   4.815   1.916
17311SOL    HW253773   4.687   4.696   1.838
17312SOL     OW53774   7.167   3.221  12.117
17312SOL    HW153775   7.194   3.309  12.089
17312SOL    HW253776   7.096   3.198  12.058
17313SOL     OW53777  14.669   1.395   8.950
17313SOL    HW153778  14.648   1.386   8.857
17313SOL    HW253779  14.750   1.446   8.951
17314SOL     OW53780  11.565  12.750  14.038
17314SOL    HW153781  11.503  12.753  14.110
17314SOL    HW253782  11.581  12.657  14.024
17315SOL     OW53783  12.437   0.780   7.112
17315SOL    HW153784  12.526   0.811   7.129
17315SOL    HW253785  12.441   0.747   7.022
17316SOL     OW53786   7.763   3.651   7.876
17316SOL    HW153787   7.748   3.563   7.842
17316SOL    HW253788   7.814   3.637   7.956
17317SOL     OW53789  11.452   8.846  12.167
17317SOL    HW153790  11.385   8.811  12.225
17317SOL    HW253791  11.526   8.785  12.176
17318SOL     OW53792   0.156   8.133  13.537
17318SOL    HW153793   0.187   8.223  13.523
17318SOL    HW253794   0.086   8.122  13.473
17319SOL     OW53795   6.592   1.204  11.884
17319SOL    HW153796   6.565   1.124  11.930
17319SOL    HW253797   6.533   1.272  11.918
17320SOL     OW53798  12.298  11.194  11.317
17320SOL    HW153799  12.238  11.124  11.341
17320SOL    HW253800  12.384  11.163  11.347
17321SOL     OW53801   4.546   5.959  12.283
17321SOL    HW153802   4.574   5.873  12.253
17321SOL    HW253803   4.627   6.009  12.289
17322SOL     OW53804   0.635  14.639   9.303
17322SOL    HW153805   0.671  14.716   9.260
17322SOL    HW253806   0.545  14.664   9.326
17323SOL     OW53807  13.009   9.812   9.313
17323SOL    HW153808  13.005   9.823   9.218
17323SOL    HW253809  12.921   9.787   9.339
17324SOL     OW53810  10.808   4.166  11.754
17324SOL    HW153811  10.810   4.084  11.705
17324SOL    HW253812  10.814   4.234  11.687
17325SOL     OW53813   0.038   8.793   4.326
17325SOL    HW153814  14.866   8.712   4.330
17325SOL    HW253815   0.129   8.762   4.323
17326SOL     OW53816  11.350   7.058   3.627
17326SOL    HW153817  11.349   7.126   3.561
17326SOL    HW253818  11.265   7.065   3.671
17327SOL     OW53819   0.295   8.661   4.308
17327SOL    HW153820   0.301   8.594   4.241
17327SOL    HW253821   0.301   8.614   4.391
17328SOL     OW53822   3.954  13.335   5.347
17328SOL    HW153823   3.888  13.342   5.416
17328SOL    HW253824   3.948  13.245   5.316
17329SOL     OW53825   0.794   6.384   1.992
17329SOL    HW153826   0.762   6.473   1.984
17329SOL    HW253827   0.883   6.387   1.955
17330SOL     OW53828  14.686  10.110  13.634
17330SOL    HW153829  14.688  10.077  13.724
17330SOL    HW253830  14.719  10.200  13.641
17331SOL     OW53831   0.880  13.096   8.850
17331SOL    HW153832   0.849  13.186   8.854
17331SOL    HW253833   0.800  13.044   8.845
17332SOL     OW53834  13.433   3.712   6.484
17332SOL    HW153835  13.408   3.746   6.570
17332SOL    HW253836  13.372   3.754   6.423
17333SOL     OW53837   1.172   9.635   5.047
17333SOL    HW153838   1.109   9.567   5.071
17333SOL    HW253839   1.130   9.683   4.977
17334SOL     OW53840   2.358   7.165   6.259
17334SOL    HW153841   2.375   7.238   6.318
17334SOL    HW253842   2.420   7.097   6.286
17335SOL     OW53843  10.387   6.953  11.575
17335SOL    HW153844  10.415   6.944  11.666
17335SOL    HW253845  10.295   6.979  11.581
17336SOL     OW53846   6.747   1.649  13.964
17336SOL    HW153847   6.652   1.646  13.968
17336SOL    HW253848   6.776   1.565  14.000
17337SOL     OW53849  12.592   4.483   0.602
17337SOL    HW153850  12.507   4.488   0.646
17337SOL    HW253851  12.598   4.565   0.553
17338SOL     OW53852   6.267   1.138   2.818
17338SOL    HW153853   6.264   1.094   2.903
17338SOL    HW253854   6.187   1.191   2.816
17339SOL     OW53855   5.430   5.622   5.411
17339SOL    HW153856   5.517   5.592   5.436
17339SOL    HW253857   5.441   5.661   5.325
17340SOL     OW53858   6.153   4.980   5.791
17340SOL    HW153859   6.180   4.958   5.702
17340SOL    HW253860   6.234   5.004   5.836
17341SOL     OW53861  10.602   3.729   2.452
17341SOL    HW153862  10.630   3.659   2.393
17341SOL    HW253863  10.637   3.705   2.537
17342SOL     OW53864  11.743   7.769   1.628
17342SOL    HW153865  11.758   7.696   1.569
17342SOL    HW253866  11.827   7.815   1.632
17343SOL     OW53867   7.480  13.773  12.849
17343SOL    HW153868   7.456  13.714  12.777
17343SOL    HW253869   7.401  13.779  12.903
17344SOL     OW53870   7.213  10.540  11.544
17344SOL    HW153871   7.269  10.496  11.480
17344SOL    HW253872   7.222  10.633  11.524
17345SOL     OW53873  11.680   9.920   2.838
17345SOL    HW153874  11.765   9.944   2.802
17345SOL    HW253875  11.620   9.988   2.804
17346SOL     OW53876   5.226   3.443  13.897
17346SOL    HW153877   5.142   3.424  13.856
17346SOL    HW253878   5.261   3.358  13.921
17347SOL     OW53879   1.471   4.963   5.394
17347SOL    HW153880   1.495   5.048   5.358
17347SOL    HW253881   1.405   4.983   5.460
17348SOL     OW53882   5.625  14.389   7.087
17348SOL    HW153883   5.576  14.318   7.046
17348SOL    HW253884   5.717  14.367   7.071
17349SOL     OW53885  11.733  14.096   6.200
17349SOL    HW153886  11.749  14.061   6.287
17349SOL    HW253887  11.639  14.088   6.187
17350SOL     OW53888   7.808   6.939  13.877
17350SOL    HW153889   7.846   7.022  13.846
17350SOL    HW253890   7.827   6.937  13.971
17351SOL     OW53891   0.633   6.190   1.828
17351SOL    HW153892   0.687   6.255   1.874
17351SOL    HW253893   0.551   6.188   1.876
17352SOL     OW53894   2.650   3.219   4.728
17352SOL    HW153895   2.660   3.136   4.775
17352SOL    HW253896   2.740   3.244   4.705
17353SOL     OW53897   7.352   9.465   0.116
17353SOL    HW153898   7.412   9.522   0.067
17353SOL    HW253899   7.409   9.396   0.151
17354SOL     OW53900   5.193   6.313   3.000
17354SOL    HW153901   5.110   6.303   3.046
17354SOL    HW253902   5.258   6.274   3.058
17355SOL     OW53903  12.183   0.095   2.114
17355SOL    HW153904  12.273   0.122   2.094
17355SOL    HW253905  12.128   0.159   2.069
17356SOL     OW53906   9.449   9.668   3.279
17356SOL    HW153907   9.414   9.644   3.193
17356SOL    HW253908   9.375   9.656   3.339
17357SOL     OW53909   0.604   4.542  14.493
17357SOL    HW153910   0.580   4.461  14.446
17357SOL    HW253911   0.522   4.572  14.532
17358SOL     OW53912   5.361  14.082   7.455
17358SOL    HW153913   5.412  14.163   7.459
17358SOL    HW253914   5.425  14.012   7.465
17359SOL     OW53915   3.023   5.389  12.648
17359SOL    HW153916   3.041   5.389  12.554
17359SOL    HW253917   3.031   5.298  12.675
17360SOL     OW53918   7.925   4.033   6.255
17360SOL    HW153919   7.885   4.110   6.215
17360SOL    HW253920   8.011   4.027   6.213
17361SOL     OW53921   1.725   6.972  13.025
17361SOL    HW153922   1.693   6.921  13.099
17361SOL    HW253923   1.659   7.040  13.012
17362SOL     OW53924   7.210   2.629   3.851
17362SOL    HW153925   7.211   2.651   3.758
17362SOL    HW253926   7.152   2.695   3.891
17363SOL     OW53927  13.446  12.915   3.875
17363SOL    HW153928  13.537  12.910   3.846
17363SOL    HW253929  13.440  12.850   3.944
17364SOL     OW53930   4.712   1.022   6.875
17364SOL    HW153931   4.721   1.085   6.802
17364SOL    HW253932   4.802   1.002   6.900
17365SOL     OW53933   6.454   8.691   8.961
17365SOL    HW153934   6.362   8.674   8.978
17365SOL    HW253935   6.458   8.785   8.944
17366SOL     OW53936  12.509  11.020   5.823
17366SOL    HW153937  12.589  11.059   5.787
17366SOL    HW253938  12.541  10.951   5.881
17367SOL     OW53939   6.978   2.702   8.066
17367SOL    HW153940   7.060   2.654   8.068
17367SOL    HW253941   6.910   2.635   8.065
17368SOL     OW53942  10.763   5.265  11.300
17368SOL    HW153943  10.804   5.187  11.263
17368SOL    HW253944  10.690   5.284  11.241
17369SOL     OW53945   0.269   0.635  10.257
17369SOL    HW153946   0.362   0.655  10.261
17369SOL    HW253947   0.246   0.611  10.347
17370SOL     OW53948   8.100   7.581   5.260
17370SOL    HW153949   8.079   7.570   5.353
17370SOL    HW253950   8.047   7.514   5.216
17371SOL     OW53951   2.302   9.952  12.698
17371SOL    HW153952   2.396   9.964  12.712
17371SOL    HW253953   2.274   9.898  12.772
17372SOL     OW53954   0.730   5.437  12.375
17372SOL    HW153955   0.757   5.506  12.436
17372SOL    HW253956   0.795   5.367  12.387
17373SOL     OW53957  11.566   1.858   9.339
17373SOL    HW153958  11.513   1.884   9.415
17373SOL    HW253959  11.613   1.780   9.367
17374SOL     OW53960   4.204  11.984   1.091
17374SOL    HW153961   4.123  11.934   1.098
17374SOL    HW253962   4.249  11.968   1.174
17375SOL     OW53963   4.555   0.326   9.169
17375SOL    HW153964   4.640   0.344   9.210
17375SOL    HW253965   4.493   0.382   9.217
17376SOL     OW53966   7.418  13.163   5.133
17376SOL    HW153967   7.486  13.230   5.147
17376SOL    HW253968   7.395  13.134   5.221
17377SOL     OW53969   6.047   0.970   2.985
17377SOL    HW153970   6.010   0.882   2.976
17377SOL    HW253971   5.976   1.022   3.022
17378SOL     OW53972   4.530   6.874  13.318
17378SOL    HW153973   4.582   6.946  13.280
17378SOL    HW253974   4.446   6.914  13.339
17379SOL     OW53975  13.590  11.213   0.050
17379SOL    HW153976  13.629  11.135   0.011
17379SOL    HW253977  13.510  11.228  14.878
17380SOL     OW53978   3.763   3.308   5.309
17380SOL    HW153979   3.707   3.371   5.355
17380SOL    HW253980   3.818   3.362   5.251
17381SOL     OW53981  14.511   3.882   3.150
17381SOL    HW153982  14.541   3.794   3.127
17381SOL    HW253983  14.582   3.918   3.204
17382SOL     OW53984  14.782  12.709  13.756
17382SOL    HW153985  14.823  12.626  13.781
17382SOL    HW253986  14.689  12.689  13.751
17383SOL     OW53987   7.508   5.558   9.761
17383SOL    HW153988   7.472   5.490   9.703
17383SOL    HW253989   7.432   5.611   9.785
17384SOL     OW53990   9.157   1.795   3.204
17384SOL    HW153991   9.104   1.715   3.208
17384SOL    HW253992   9.102   1.862   3.245
17385SOL     OW53993  11.516   5.230   6.648
17385SOL    HW153994  11.441   5.192   6.603
17385SOL    HW253995  11.567   5.155   6.678
17386SOL     OW53996   8.592   0.929   5.315
17386SOL    HW153997   8.525   0.869   5.280
17386SOL    HW253998   8.662   0.927   5.251
17387SOL     OW53999  10.677   2.147  12.045
17387SOL    HW154000  10.754   2.129  11.991
17387SOL    HW254001  10.643   2.061  12.069
17388SOL     OW54002   1.562  12.718   0.215
17388SOL    HW154003   1.643  12.768   0.204
17388SOL    HW254004   1.580  12.661   0.290
17389SOL     OW54005   2.227  11.755   8.577
17389SOL    HW154006   2.211  11.705   8.657
17389SOL    HW254007   2.304  11.809   8.597
17390SOL     OW54008  10.079   8.060   8.236
17390SOL    HW154009  10.096   8.120   8.309
17390SOL    HW254010  10.035   7.985   8.277
17391SOL     OW54011   0.052   0.481   1.727
17391SOL    HW154012   0.106   0.532   1.668
17391SOL    HW254013   0.028   0.541   1.797
17392SOL     OW54014   6.129  12.767   1.398
17392SOL    HW154015   6.118  12.827   1.324
17392SOL    HW254016   6.199  12.806   1.451
17393SOL     OW54017   9.803   1.462   6.905
17393SOL    HW154018   9.881   1.435   6.858
17393SOL    HW254019   9.733   1.460   6.840
17394SOL     OW54020   2.440   8.016  10.893
17394SOL    HW154021   2.472   7.961  10.964
17394SOL    HW254022   2.519   8.048  10.849
17395SOL     OW54023  14.416   3.790   9.848
17395SOL    HW154024  14.369   3.857   9.798
17395SOL    HW254025  14.441   3.724   9.783
17396SOL     OW54026   8.583   0.450   2.790
17396SOL    HW154027   8.541   0.487   2.712
17396SOL    HW254028   8.510   0.411   2.839
17397SOL     OW54029   5.330  11.944  14.332
17397SOL    HW154030   5.318  11.987  14.416
17397SOL    HW254031   5.408  11.890  14.344
17398SOL     OW54032   1.463   0.482  13.648
17398SOL    HW154033   1.454   0.576  13.634
17398SOL    HW254034   1.522   0.474  13.723
17399SOL     OW54035   4.415   8.344   9.780
17399SOL    HW154036   4.408   8.293   9.699
17399SOL    HW254037   4.483   8.409   9.762
17400SOL     OW54038   5.470   5.929  13.157
17400SOL    HW154039   5.480   6.016  13.121
17400SOL    HW254040   5.531   5.926  13.231
17401SOL     OW54041  12.671  11.060  14.822
17401SOL    HW154042  12.603  11.047  14.756
17401SOL    HW254043  12.637  11.018   0.021
17402SOL     OW54044   7.987   6.141   8.430
17402SOL    HW154045   7.998   6.074   8.363
17402SOL    HW254046   8.055   6.206   8.411
17403SOL     OW54047   6.988   0.943   5.902
17403SOL    HW154048   7.038   0.882   5.848
17403SOL    HW254049   7.019   1.030   5.876
17404SOL     OW54050  10.552   8.719   4.637
17404SOL    HW154051  10.642   8.694   4.657
17404SOL    HW254052  10.502   8.693   4.715
17405SOL     OW54053   3.394   0.313   9.968
17405SOL    HW154054   3.481   0.276   9.981
17405SOL    HW254055   3.401   0.363   9.887
17406SOL     OW54056   7.475  11.258   0.643
17406SOL    HW154057   7.523  11.210   0.575
17406SOL    HW254058   7.471  11.348   0.611
17407SOL     OW54059  13.588   0.372   1.712
17407SOL    HW154060  13.580   0.317   1.634
17407SOL    HW254061  13.522   0.440   1.700
17408SOL     OW54062  13.014   2.106   1.997
17408SOL    HW154063  13.102   2.107   2.033
17408SOL    HW254064  12.957   2.119   2.072
17409SOL     OW54065  10.959  12.489   9.133
17409SOL    HW154066  10.942  12.496   9.039
17409SOL    HW254067  10.873  12.500   9.174
17410SOL     OW54068  10.047   3.284  10.260
17410SOL    HW154069  10.046   3.313  10.169
17410SOL    HW254070   9.955   3.291  10.288
17411SOL     OW54071   5.656   3.173  14.001
17411SOL    HW154072   5.630   3.100  14.058
17411SOL    HW254073   5.748   3.156  13.980
17412SOL     OW54074   4.664   7.677   4.048
17412SOL    HW154075   4.640   7.672   3.956
17412SOL    HW254076   4.708   7.594   4.066
17413SOL     OW54077  10.923   0.377   0.461
17413SOL    HW154078  10.866   0.366   0.538
17413SOL    HW254079  10.902   0.302   0.405
17414SOL     OW54080  12.356   3.901   3.199
17414SOL    HW154081  12.261   3.893   3.203
17414SOL    HW254082  12.374   3.987   3.237
17415SOL     OW54083   7.709   2.864   7.537
17415SOL    HW154084   7.713   2.819   7.452
17415SOL    HW254085   7.796   2.850   7.575
17416SOL     OW54086   8.903   6.728   3.502
17416SOL    HW154087   8.910   6.815   3.463
17416SOL    HW254088   8.897   6.744   3.596
17417SOL     OW54089   9.175   3.501  10.782
17417SOL    HW154090   9.163   3.584  10.735
17417SOL    HW254091   9.269   3.486  10.780
17418SOL     OW54092  11.706   8.342  13.228
17418SOL    HW154093  11.738   8.327  13.139
17418SOL    HW254094  11.781   8.325  13.284
17419SOL     OW54095   1.768  11.834   2.125
17419SOL    HW154096   1.803  11.915   2.162
17419SOL    HW254097   1.673  11.840   2.139
17420SOL     OW54098   7.428  14.111   5.979
17420SOL    HW154099   7.484  14.035   5.962
17420SOL    HW254100   7.422  14.116   6.074
17421SOL     OW54101  13.919   1.766   7.832
17421SOL    HW154102  13.836   1.800   7.797
17421SOL    HW254103  13.934   1.684   7.784
17422SOL     OW54104   7.147   3.171  12.671
17422SOL    HW154105   7.062   3.191  12.632
17422SOL    HW254106   7.204   3.243  12.643
17423SOL     OW54107   1.985  10.073  11.451
17423SOL    HW154108   1.911  10.022  11.417
17423SOL    HW254109   1.975  10.069  11.546
17424SOL     OW54110  12.568   8.928   8.204
17424SOL    HW154111  12.603   8.986   8.272
17424SOL    HW254112  12.545   8.986   8.132
17425SOL     OW54113   4.900   5.018   5.018
17425SOL    HW154114   4.811   4.990   5.001
17425SOL    HW254115   4.913   5.094   4.961
17426SOL     OW54116   7.621   2.390  13.314
17426SOL    HW154117   7.670   2.436  13.246
17426SOL    HW254118   7.534   2.376  13.275
17427SOL     OW54119  10.844  12.265   2.338
17427SOL    HW154120  10.868  12.355   2.363
17427SOL    HW254121  10.914  12.211   2.375
17428SOL     OW54122  11.423   3.250  11.728
17428SOL    HW154123  11.458   3.266  11.816
17428SOL    HW254124  11.383   3.333  11.703
17429SOL     OW54125  11.599   3.481   6.252
17429SOL    HW154126  11.640   3.399   6.278
17429SOL    HW254127  11.505   3.468   6.268
17430SOL     OW54128   0.217  14.116   2.422
17430SOL    HW154129   0.303  14.114   2.378
17430SOL    HW254130   0.164  14.174   2.367
17431SOL     OW54131   2.887  14.864   7.016
17431SOL    HW154132   2.864  14.871   7.109
17431SOL    HW254133   2.807   0.006   6.970
17432SOL     OW54134   9.062   0.431  13.775
17432SOL    HW154135   9.003   0.450  13.702
17432SOL    HW254136   9.004   0.428  13.852
17433SOL     OW54137  11.842  11.001  11.362
17433SOL    HW154138  11.764  10.994  11.306
17433SOL    HW254139  11.807  11.001  11.451
17434SOL     OW54140   4.901   0.471   8.866
17434SOL    HW154141   4.986   0.468   8.911
17434SOL    HW254142   4.852   0.538   8.915
17435SOL     OW54143  13.160   4.078   1.347
17435SOL    HW154144  13.233   4.092   1.286
17435SOL    HW254145  13.134   4.166   1.374
17436SOL     OW54146  11.035   1.752   0.085
17436SOL    HW154147  11.030   1.785  14.875
17436SOL    HW254148  11.123   1.776   0.114
17437SOL     OW54149   5.231  11.537   5.440
17437SOL    HW154150   5.289  11.464   5.462
17437SOL    HW254151   5.172  11.502   5.373
17438SOL     OW54152   0.549   5.075   0.739
17438SOL    HW154153   0.552   5.046   0.648
17438SOL    HW254154   0.609   5.150   0.742
17439SOL     OW54155   9.542   8.463  11.924
17439SOL    HW154156   9.566   8.534  11.865
17439SOL    HW254157   9.502   8.508  11.999
17440SOL     OW54158   4.575   5.451   9.021
17440SOL    HW154159   4.577   5.357   9.036
17440SOL    HW254160   4.547   5.488   9.105
17441SOL     OW54161   9.132   4.390   9.811
17441SOL    HW154162   9.168   4.388   9.900
17441SOL    HW254163   9.053   4.336   9.816
17442SOL     OW54164  11.257   9.159  12.009
17442SOL    HW154165  11.340   9.114  11.995
17442SOL    HW254166  11.278   9.252  12.001
17443SOL     OW54167  14.333   5.777   5.080
17443SOL    HW154168  14.285   5.695   5.067
17443SOL    HW254169  14.400   5.777   5.011
17444SOL     OW54170   3.272  14.691   6.651
17444SOL    HW154171   3.327  14.766   6.627
17444SOL    HW254172   3.228  14.718   6.732
17445SOL     OW54173  12.449   0.853   2.795
17445SOL    HW154174  12.366   0.817   2.766
17445SOL    HW254175  12.516   0.797   2.755
17446SOL     OW54176  13.099  14.405   0.592
17446SOL    HW154177  13.093  14.331   0.652
17446SOL    HW254178  13.024  14.460   0.613
17447SOL     OW54179   4.445   3.956  12.353
17447SOL    HW154180   4.426   3.888  12.417
17447SOL    HW254181   4.359   3.990  12.327
17448SOL     OW54182  13.362   2.308   6.496
17448SOL    HW154183  13.293   2.297   6.430
17448SOL    HW254184  13.336   2.387   6.544
17449SOL     OW54185  14.522   4.840   8.897
17449SOL    HW154186  14.467   4.918   8.888
17449SOL    HW254187  14.580   4.843   8.821
17450SOL     OW54188   6.784  14.467   1.102
17450SOL    HW154189   6.761  14.538   1.041
17450SOL    HW254190   6.808  14.512   1.183
17451SOL     OW54191   9.583   9.156  11.302
17451SOL    HW154192   9.641   9.092  11.343
17451SOL    HW254193   9.571   9.123  11.212
17452SOL     OW54194  11.447   3.225  14.413
17452SOL    HW154195  11.416   3.135  14.421
17452SOL    HW254196  11.373   3.278  14.443
17453SOL     OW54197  12.999  13.776  13.580
17453SOL    HW154198  13.088  13.768  13.548
17453SOL    HW254199  12.947  13.721  13.521
17454SOL     OW54200   7.668   3.023  10.906
17454SOL    HW154201   7.590   3.071  10.934
17454SOL    HW254202   7.642   2.930  10.912
17455SOL     OW54203   6.278   3.642   5.703
17455SOL    HW154204   6.307   3.586   5.631
17455SOL    HW254205   6.182   3.642   5.695
17456SOL     OW54206   2.030  10.651   7.098
17456SOL    HW154207   2.011  10.740   7.068
17456SOL    HW254208   2.018  10.597   7.020
17457SOL     OW54209   6.058   7.893   0.135
17457SOL    HW154210   6.149   7.864   0.145
17457SOL    HW254211   6.064   7.989   0.139
17458SOL     OW54212   0.162   8.262  14.606
17458SOL    HW154213   0.075   8.224  14.619
17458SOL    HW254214   0.149   8.326  14.535
17459SOL     OW54215   0.178   7.174   9.185
17459SOL    HW154216   0.202   7.146   9.097
17459SOL    HW254217   0.127   7.101   9.221
17460SOL     OW54218   9.263   4.350   1.898
17460SOL    HW154219   9.282   4.356   1.992
17460SOL    HW254220   9.314   4.274   1.868
17461SOL     OW54221   1.293   5.571   2.491
17461SOL    HW154222   1.251   5.493   2.526
17461SOL    HW254223   1.253   5.644   2.539
17462SOL     OW54224   4.899   5.875  10.962
17462SOL    HW154225   4.969   5.914  10.911
17462SOL    HW254226   4.819   5.896  10.913
17463SOL     OW54227   0.581  10.824   5.461
17463SOL    HW154228   0.567  10.789   5.549
17463SOL    HW254229   0.515  10.892   5.451
17464SOL     OW54230   9.224  10.446  12.641
17464SOL    HW154231   9.174  10.494  12.576
17464SOL    HW254232   9.314  10.449  12.608
17465SOL     OW54233   4.299  11.384   0.120
17465SOL    HW154234   4.369  11.445   0.097
17465SOL    HW254235   4.233  11.396   0.052
17466SOL     OW54236   9.059   0.501  12.811
17466SOL    HW154237   9.002   0.426  12.829
17466SOL    HW254238   9.046   0.559  12.886
17467SOL     OW54239   3.290  12.510   9.104
17467SOL    HW154240   3.355  12.560   9.154
17467SOL    HW254241   3.328  12.423   9.095
17468SOL     OW54242  12.196  10.964   0.295
17468SOL    HW154243  12.223  10.918   0.215
17468SOL    HW254244  12.178  10.893   0.358
17469SOL     OW54245   8.974   6.869   8.108
17469SOL    HW154246   8.979   6.786   8.060
17469SOL    HW254247   9.033   6.856   8.183
17470SOL     OW54248   2.563   4.448   2.881
17470SOL    HW154249   2.472   4.423   2.896
17470SOL    HW254250   2.559   4.509   2.808
17471SOL     OW54251   1.499   7.461   0.140
17471SOL    HW154252   1.487   7.398   0.069
17471SOL    HW254253   1.503   7.407   0.219
17472SOL     OW54254   5.992   2.401  11.344
17472SOL    HW154255   5.917   2.453  11.374
17472SOL    HW254256   6.046   2.390  11.422
17473SOL     OW54257   2.462   8.981   4.691
17473SOL    HW154258   2.398   9.043   4.658
17473SOL    HW254259   2.445   8.977   4.785
17474SOL     OW54260   2.948  13.149   1.642
17474SOL    HW154261   2.994  13.073   1.607
17474SOL    HW254262   2.916  13.121   1.728
17475SOL     OW54263  10.286   5.770  11.433
17475SOL    HW154264  10.270   5.696  11.374
17475SOL    HW254265  10.222   5.759  11.503
17476SOL     OW54266   1.098  13.843   1.607
17476SOL    HW154267   1.103  13.881   1.695
17476SOL    HW254268   1.122  13.751   1.619
17477SOL     OW54269  10.543   9.848   5.032
17477SOL    HW154270  10.631   9.840   5.069
17477SOL    HW254271  10.552   9.911   4.961
17478SOL     OW54272  12.657   9.247  14.123
17478SOL    HW154273  12.693   9.324  14.079
17478SOL    HW254274  12.714   9.236  14.200
17479SOL     OW54275   4.486  10.520   3.643
17479SOL    HW154276   4.484  10.598   3.588
17479SOL    HW254277   4.394  10.498   3.657
17480SOL     OW54278   6.840  14.263   3.489
17480SOL    HW154279   6.845  14.355   3.461
17480SOL    HW254280   6.829  14.214   3.408
17481SOL     OW54281  12.232  13.094   2.491
17481SOL    HW154282  12.259  13.011   2.530
17481SOL    HW254283  12.300  13.156   2.515
17482SOL     OW54284   0.293   8.531   0.414
17482SOL    HW154285   0.282   8.437   0.395
17482SOL    HW254286   0.381   8.552   0.385
17483SOL     OW54287  10.938  12.686   5.965
17483SOL    HW154288  10.908  12.603   5.928
17483SOL    HW254289  10.883  12.753   5.925
17484SOL     OW54290   8.806   2.499   3.030
17484SOL    HW154291   8.731   2.441   3.036
17484SOL    HW254292   8.809   2.544   3.114
17485SOL     OW54293  10.975   0.953   5.118
17485SOL    HW154294  10.888   0.915   5.131
17485SOL    HW254295  10.969   0.998   5.034
17486SOL     OW54296  14.253  11.926   4.393
17486SOL    HW154297  14.338  11.914   4.436
17486SOL    HW254298  14.225  12.014   4.418
17487SOL     OW54299   9.031   5.574   2.370
17487SOL    HW154300   9.052   5.575   2.277
17487SOL    HW254301   9.115   5.556   2.413
17488SOL     OW54302   1.280  10.008   1.676
17488SOL    HW154303   1.298   9.954   1.599
17488SOL    HW254304   1.224   9.954   1.732
17489SOL     OW54305   5.453   2.514  13.662
17489SOL    HW154306   5.520   2.450  13.639
17489SOL    HW254307   5.497   2.574  13.723
17490SOL     OW54308   5.335   1.487   4.955
17490SOL    HW154309   5.388   1.463   5.031
17490SOL    HW254310   5.374   1.568   4.922
17491SOL     OW54311   7.844  14.689   4.806
17491SOL    HW154312   7.906  14.750   4.845
17491SOL    HW254313   7.828  14.723   4.718
17492SOL     OW54314   6.147  13.492   6.598
17492SOL    HW154315   6.076  13.461   6.655
17492SOL    HW254316   6.221  13.505   6.657
17493SOL     OW54317   7.145   8.331   4.361
17493SOL    HW154318   7.074   8.306   4.420
17493SOL    HW254319   7.184   8.408   4.401
17494SOL     OW54320   4.938  12.107   5.819
17494SOL    HW154321   4.925  12.013   5.832
17494SOL    HW254322   4.858  12.137   5.776
17495SOL     OW54323   9.884  14.391   0.528
17495SOL    HW154324   9.936  14.402   0.449
17495SOL    HW254325   9.799  14.430   0.507
17496SOL     OW54326   9.672  11.552  10.404
17496SOL    HW154327   9.591  11.502  10.410
17496SOL    HW254328   9.738  11.487  10.379
17497SOL     OW54329   7.705   4.124  10.107
17497SOL    HW154330   7.666   4.127  10.195
17497SOL    HW254331   7.710   4.215  10.080
17498SOL     OW54332   5.491  14.701  11.598
17498SOL    HW154333   5.441  14.625  11.629
17498SOL    HW254334   5.554  14.665  11.536
17499SOL     OW54335  12.768   8.428  10.158
17499SOL    HW154336  12.741   8.349  10.112
17499SOL    HW254337  12.862   8.419  10.169
17500SOL     OW54338   4.051   8.808   9.475
17500SOL    HW154339   4.139   8.824   9.441
17500SOL    HW254340   4.027   8.891   9.517
17501SOL     OW54341   9.065  11.840   7.261
17501SOL    HW154342   8.981  11.857   7.303
17501SOL    HW254343   9.112  11.923   7.265
17502SOL     OW54344   0.933   3.860   0.461
17502SOL    HW154345   0.849   3.826   0.492
17502SOL    HW254346   0.935   3.838   0.368
17503SOL     OW54347   3.489   6.578   5.609
17503SOL    HW154348   3.576   6.619   5.602
17503SOL    HW254349   3.508   6.484   5.614
17504SOL     OW54350  11.957   8.786  12.336
17504SOL    HW154351  11.887   8.847  12.312
17504SOL    HW254352  11.938   8.763  12.427
17505SOL     OW54353   6.473  12.628  10.327
17505SOL    HW154354   6.384  12.660  10.317
17505SOL    HW254355   6.528  12.695  10.285
17506SOL     OW54356  10.694  14.006  14.169
17506SOL    HW154357  10.784  14.029  14.145
17506SOL    HW254358  10.685  14.036  14.259
17507SOL     OW54359   7.389   5.725  14.707
17507SOL    HW154360   7.311   5.734  14.653
17507SOL    HW254361   7.451   5.788  14.670
17508SOL     OW54362   3.021   4.955  13.400
17508SOL    HW154363   3.052   4.866  13.384
17508SOL    HW254364   3.077   4.987  13.471
17509SOL     OW54365  14.675   7.075   0.842
17509SOL    HW154366  14.756   7.026   0.827
17509SOL    HW254367  14.614   7.043   0.775
17510SOL     OW54368   8.693   1.429   8.947
17510SOL    HW154369   8.670   1.415   8.855
17510SOL    HW254370   8.731   1.346   8.975
17511SOL     OW54371  10.100  14.714   2.103
17511SOL    HW154372  10.078  14.713   2.010
17511SOL    HW254373  10.104  14.622   2.129
17512SOL     OW54374   0.170   0.849  12.842
17512SOL    HW154375   0.199   0.783  12.779
17512SOL    HW254376   0.235   0.919  12.834
17513SOL     OW54377   8.270   3.185   8.164
17513SOL    HW154378   8.274   3.238   8.244
17513SOL    HW254379   8.237   3.245   8.097
17514SOL     OW54380  11.193   8.470  11.488
17514SOL    HW154381  11.277   8.425  11.476
17514SOL    HW254382  11.180   8.517  11.406
17515SOL     OW54383  10.321  14.291   5.329
17515SOL    HW154384  10.403  14.327   5.295
17515SOL    HW254385  10.279  14.365   5.374
17516SOL     OW54386  13.431   3.134   7.197
17516SOL    HW154387  13.477   3.095   7.123
17516SOL    HW254388  13.482   3.108   7.273
17517SOL     OW54389   5.614   5.805   0.238
17517SOL    HW154390   5.669   5.758   0.301
17517SOL    HW254391   5.578   5.737   0.183
17518SOL     OW54392   0.520   1.945  14.631
17518SOL    HW154393   0.501   1.884  14.702
17518SOL    HW254394   0.599   1.911  14.590
17519SOL     OW54395  14.353  14.006   4.372
17519SOL    HW154396  14.350  13.991   4.466
17519SOL    HW254397  14.268  14.047   4.352
17520SOL     OW54398   8.532  10.521   3.148
17520SOL    HW154399   8.621  10.486   3.141
17520SOL    HW254400   8.477  10.445   3.164
17521SOL     OW54401   1.269   4.614  14.411
17521SOL    HW154402   1.191   4.604  14.357
17521SOL    HW254403   1.305   4.699  14.384
17522SOL     OW54404   5.866  12.319  10.622
17522SOL    HW154405   5.877  12.278  10.708
17522SOL    HW254406   5.781  12.288  10.591
17523SOL     OW54407   7.597   3.301   4.056
17523SOL    HW154408   7.652   3.363   4.103
17523SOL    HW254409   7.582   3.343   3.971
17524SOL     OW54410  14.169   4.247  12.192
17524SOL    HW154411  14.163   4.283  12.281
17524SOL    HW254412  14.262   4.253  12.170
17525SOL     OW54413  13.632   3.552   9.509
17525SOL    HW154414  13.597   3.492   9.443
17525SOL    HW254415  13.580   3.631   9.500
17526SOL     OW54416  14.022  11.820  10.472
17526SOL    HW154417  14.098  11.873  10.495
17526SOL    HW254418  13.973  11.873  10.409
17527SOL     OW54419   7.508  12.089  11.471
17527SOL    HW154420   7.491  12.155  11.404
17527SOL    HW254421   7.595  12.054  11.448
17528SOL     OW54422   5.922   5.462  10.780
17528SOL    HW154423   5.966   5.493  10.859
17528SOL    HW254424   5.993   5.443  10.719
17529SOL     OW54425   6.210  11.633   7.389
17529SOL    HW154426   6.210  11.724   7.422
17529SOL    HW254427   6.122  11.601   7.410
17530SOL     OW54428   4.542   3.667  13.510
17530SOL    HW154429   4.623   3.633  13.472
17530SOL    HW254430   4.559   3.674  13.603
17531SOL     OW54431  10.293   3.282  10.976
17531SOL    HW154432  10.326   3.218  11.038
17531SOL    HW254433  10.372   3.323  10.940
17532SOL     OW54434   4.973   1.464   4.521
17532SOL    HW154435   4.971   1.543   4.574
17532SOL    HW254436   4.968   1.392   4.585
17533SOL     OW54437  11.960   4.741  12.427
17533SOL    HW154438  12.022   4.815  12.428
17533SOL    HW254439  11.920   4.743  12.514
17534SOL     OW54440   2.737   7.163   0.703
17534SOL    HW154441   2.815   7.120   0.736
17534SOL    HW254442   2.702   7.211   0.779
17535SOL     OW54443   2.355   2.408  13.140
17535SOL    HW154444   2.367   2.491  13.094
17535SOL    HW254445   2.416   2.348  13.096
17536SOL     OW54446  13.527   5.945   0.575
17536SOL    HW154447  13.479   5.863   0.591
17536SOL    HW254448  13.494   6.005   0.642
17537SOL     OW54449   4.377   0.137  13.135
17537SOL    HW154450   4.323   0.097  13.203
17537SOL    HW254451   4.349   0.095  13.054
17538SOL     OW54452  11.051  13.016   2.900
17538SOL    HW154453  11.035  13.051   2.813
17538SOL    HW254454  11.068  12.923   2.887
17539SOL     OW54455   7.825   0.390  14.475
17539SOL    HW154456   7.769   0.402  14.399
17539SOL    HW254457   7.879   0.469  14.479
17540SOL     OW54458   9.132   5.904   8.300
17540SOL    HW154459   9.047   5.862   8.306
17540SOL    HW254460   9.114   5.991   8.264
17541SOL     OW54461  13.394   9.180  10.018
17541SOL    HW154462  13.376   9.259   9.968
17541SOL    HW254463  13.386   9.207  10.110
17542SOL     OW54464  13.286   9.075  10.850
17542SOL    HW154465  13.329   9.155  10.818
17542SOL    HW254466  13.199   9.105  10.876
17543SOL     OW54467   7.995   2.380   8.738
17543SOL    HW154468   7.929   2.341   8.682
17543SOL    HW254469   7.957   2.378   8.826
17544SOL     OW54470   4.317  12.867   2.441
17544SOL    HW154471   4.358  12.874   2.527
17544SOL    HW254472   4.352  12.941   2.391
17545SOL     OW54473  12.637   6.499   0.851
17545SOL    HW154474  12.561   6.517   0.796
17545SOL    HW254475  12.699   6.569   0.828
17546SOL     OW54476  10.516  12.049  12.126
17546SOL    HW154477  10.444  12.015  12.073
17546SOL    HW254478  10.489  12.139  12.147
17547SOL     OW54479   0.465   3.360  13.737
17547SOL    HW154480   0.391   3.406  13.778
17547SOL    HW254481   0.437   3.269  13.733
17548SOL     OW54482   2.915   8.730  12.523
17548SOL    HW154483   2.887   8.643  12.551
17548SOL    HW254484   2.965   8.765  12.597
17549SOL     OW54485   7.129   6.814   4.390
17549SOL    HW154486   7.185   6.768   4.452
17549SOL    HW254487   7.153   6.906   4.401
17550SOL     OW54488   3.089   7.267   9.418
17550SOL    HW154489   3.049   7.310   9.342
17550SOL    HW254490   3.051   7.179   9.418
17551SOL     OW54491  13.269  14.209   1.790
17551SOL    HW154492  13.281  14.120   1.824
17551SOL    HW254493  13.184  14.237   1.825
17552SOL     OW54494  11.566   1.455  12.948
17552SOL    HW154495  11.530   1.432  12.863
17552SOL    HW254496  11.489   1.471  13.003
17553SOL     OW54497   8.274  13.486   9.733
17553SOL    HW154498   8.280  13.462   9.825
17553SOL    HW254499   8.208  13.556   9.730
17554SOL     OW54500  10.527  14.243   2.923
17554SOL    HW154501  10.541  14.304   2.850
17554SOL    HW254502  10.461  14.181   2.889
17555SOL     OW54503   4.209   3.936   6.386
17555SOL    HW154504   4.242   4.026   6.379
17555SOL    HW254505   4.250   3.902   6.466
17556SOL     OW54506   5.498   2.658   3.577
17556SOL    HW154507   5.545   2.574   3.572
17556SOL    HW254508   5.550   2.710   3.639
17557SOL     OW54509  11.217   1.430   3.942
17557SOL    HW154510  11.309   1.411   3.958
17557SOL    HW254511  11.204   1.517   3.979
17558SOL     OW54512   0.539   9.829  11.235
17558SOL    HW154513   0.628   9.864  11.242
17558SOL    HW254514   0.485   9.905  11.216
17559SOL     OW54515   1.024   6.528  12.101
17559SOL    HW154516   0.958   6.498  12.164
17559SOL    HW254517   0.978   6.591  12.046
17560SOL     OW54518   0.462  11.345   7.055
17560SOL    HW154519   0.383  11.357   7.108
17560SOL    HW254520   0.503  11.266   7.091
17561SOL     OW54521   5.745   4.201   5.081
17561SOL    HW154522   5.763   4.109   5.097
17561SOL    HW254523   5.651   4.204   5.060
17562SOL     OW54524  11.268   7.541   3.272
17562SOL    HW154525  11.271   7.472   3.206
17562SOL    HW254526  11.331   7.514   3.338
17563SOL     OW54527   5.902  11.446  11.335
17563SOL    HW154528   5.946  11.398  11.405
17563SOL    HW254529   5.884  11.532  11.372
17564SOL     OW54530  11.983  11.771  10.941
17564SOL    HW154531  12.075  11.781  10.965
17564SOL    HW254532  11.972  11.677  10.926
17565SOL     OW54533   5.667  12.863  11.309
17565SOL    HW154534   5.738  12.918  11.345
17565SOL    HW254535   5.666  12.884  11.216
17566SOL     OW54536   1.247  10.617   0.824
17566SOL    HW154537   1.174  10.649   0.772
17566SOL    HW254538   1.296  10.560   0.765
17567SOL     OW54539   5.421   0.429   2.435
17567SOL    HW154540   5.417   0.371   2.359
17567SOL    HW254541   5.353   0.495   2.418
17568SOL     OW54542  11.763   0.707  10.792
17568SOL    HW154543  11.731   0.797  10.801
17568SOL    HW254544  11.858   0.715  10.799
17569SOL     OW54545   5.886  10.671   6.386
17569SOL    HW154546   5.940  10.594   6.408
17569SOL    HW254547   5.835  10.687   6.465
17570SOL     OW54548  12.203   9.198   2.159
17570SOL    HW154549  12.127   9.248   2.129
17570SOL    HW254550  12.265   9.265   2.189
17571SOL     OW54551  11.994  10.634   1.913
17571SOL    HW154552  11.982  10.667   1.824
17571SOL    HW254553  11.973  10.709   1.969
17572SOL     OW54554  14.871  10.627  12.743
17572SOL    HW154555  14.799  10.661  12.795
17572SOL    HW254556  14.854  10.533  12.735
17573SOL     OW54557  14.171   8.837   5.986
17573SOL    HW154558  14.192   8.782   5.910
17573SOL    HW254559  14.109   8.785   6.036
17574SOL     OW54560   8.546   2.113   6.813
17574SOL    HW154561   8.605   2.082   6.881
17574SOL    HW254562   8.580   2.076   6.732
17575SOL     OW54563   9.137   1.777   0.269
17575SOL    HW154564   9.205   1.833   0.307
17575SOL    HW254565   9.170   1.754   0.182
17576SOL     OW54566   1.824   1.068   3.881
17576SOL    HW154567   1.786   1.039   3.798
17576SOL    HW254568   1.780   1.151   3.900
17577SOL     OW54569   3.575   4.336  14.424
17577SOL    HW154570   3.558   4.288  14.505
17577SOL    HW254571   3.666   4.365  14.432
17578SOL     OW54572   4.117   4.216   2.653
17578SOL    HW154573   4.090   4.307   2.669
17578SOL    HW254574   4.035   4.167   2.647
17579SOL     OW54575   8.830  14.666  12.136
17579SOL    HW154576   8.863  14.577  12.149
17579SOL    HW254577   8.861  14.714  12.213
17580SOL     OW54578   8.984  14.684   3.731
17580SOL    HW154579   9.034  14.758   3.697
17580SOL    HW254580   9.031  14.606   3.699
17581SOL     OW54581  10.084   4.406  14.366
17581SOL    HW154582  10.160   4.443  14.411
17581SOL    HW254583  10.025   4.379  14.437
17582SOL     OW54584   1.659   1.046  11.097
17582SOL    HW154585   1.688   1.095  11.175
17582SOL    HW254586   1.645   1.114  11.031
17583SOL     OW54587  14.184   0.170  12.004
17583SOL    HW154588  14.123   0.243  12.010
17583SOL    HW254589  14.150   0.116  11.932
17584SOL     OW54590   5.666  11.808   8.464
17584SOL    HW154591   5.663  11.902   8.447
17584SOL    HW254592   5.694  11.768   8.382
17585SOL     OW54593   5.421  11.374   4.822
17585SOL    HW154594   5.327  11.364   4.836
17585SOL    HW254595   5.431  11.456   4.775
17586SOL     OW54596   3.348  13.846  11.082
17586SOL    HW154597   3.380  13.929  11.118
17586SOL    HW254598   3.286  13.873  11.013
17587SOL     OW54599   4.326   0.154   4.989
17587SOL    HW154600   4.361   0.140   5.077
17587SOL    HW254601   4.399   0.134   4.931
17588SOL     OW54602  13.082   1.014   7.057
17588SOL    HW154603  12.998   1.029   7.016
17588SOL    HW254604  13.089   1.081   7.125
17589SOL     OW54605   7.361  13.465  14.391
17589SOL    HW154606   7.362  13.380  14.346
17589SOL    HW254607   7.281  13.508  14.359
17590SOL     OW54608  14.805   0.575   3.578
17590SOL    HW154609  14.713   0.553   3.564
17590SOL    HW254610  14.845   0.494   3.612
17591SOL     OW54611  10.574  14.833  14.416
17591SOL    HW154612  10.577  14.815  14.510
17591SOL    HW254613  10.533   0.040  14.409
17592SOL     OW54614  13.946  11.790   2.173
17592SOL    HW154615  13.851  11.784   2.156
17592SOL    HW254616  13.968  11.881   2.155
17593SOL     OW54617   7.304  12.532  10.345
17593SOL    HW154618   7.356  12.480  10.406
17593SOL    HW254619   7.220  12.544  10.390
17594SOL     OW54620   9.039   1.385   4.112
17594SOL    HW154621   8.996   1.456   4.159
17594SOL    HW254622   9.043   1.414   4.022
17595SOL     OW54623   8.173   5.996   4.299
17595SOL    HW154624   8.118   5.991   4.221
17595SOL    HW254625   8.262   5.999   4.266
17596SOL     OW54626   4.499   1.360  12.500
17596SOL    HW154627   4.473   1.323  12.584
17596SOL    HW254628   4.582   1.317  12.480
17597SOL     OW54629   6.659   0.156  12.889
17597SOL    HW154630   6.577   0.108  12.872
17597SOL    HW254631   6.631   0.240  12.924
17598SOL     OW54632   9.783  11.029   1.565
17598SOL    HW154633   9.706  11.001   1.615
17598SOL    HW254634   9.806  10.953   1.511
17599SOL     OW54635   9.630   3.902  14.382
17599SOL    HW154636   9.656   3.838  14.449
17599SOL    HW254637   9.664   3.985  14.414
17600SOL     OW54638  12.750   6.905   4.347
17600SOL    HW154639  12.681   6.971   4.353
17600SOL    HW254640  12.704   6.821   4.353
17601SOL     OW54641  10.435   3.645  11.817
17601SOL    HW154642  10.347   3.639  11.781
17601SOL    HW254643  10.424   3.630  11.911
17602SOL     OW54644   8.826  12.921  13.896
17602SOL    HW154645   8.766  12.857  13.857
17602SOL    HW254646   8.807  13.003  13.850
17603SOL     OW54647  12.819   1.325  11.606
17603SOL    HW154648  12.842   1.415  11.581
17603SOL    HW254649  12.743   1.335  11.663
17604SOL     OW54650   7.980   1.054   5.503
17604SOL    HW154651   7.988   1.146   5.529
17604SOL    HW254652   8.032   1.007   5.568
17605SOL     OW54653   9.850   7.478   8.452
17605SOL    HW154654   9.841   7.388   8.483
17605SOL    HW254655   9.801   7.530   8.515
17606SOL     OW54656  11.547  10.974   3.607
17606SOL    HW154657  11.642  10.964   3.610
17606SOL    HW254658  11.516  10.896   3.561
17607SOL     OW54659   8.496  12.083  13.681
17607SOL    HW154660   8.471  12.129  13.761
17607SOL    HW254661   8.513  12.152  13.617
17608SOL     OW54662  10.329  13.763   1.081
17608SOL    HW154663  10.342  13.682   1.131
17608SOL    HW254664  10.329  13.832   1.146
17609SOL     OW54665   0.955  12.412  14.394
17609SOL    HW154666   0.860  12.404  14.396
17609SOL    HW254667   0.979  12.401  14.302
17610SOL     OW54668   8.148  11.914   3.535
17610SOL    HW154669   8.171  11.980   3.600
17610SOL    HW254670   8.169  11.955   3.451
17611SOL     OW54671   0.448   6.506   1.971
17611SOL    HW154672   0.454   6.594   2.008
17611SOL    HW254673   0.367   6.470   2.008
17612SOL     OW54674   6.311   0.152   0.735
17612SOL    HW154675   6.327   0.079   0.796
17612SOL    HW254676   6.393   0.159   0.685
17613SOL     OW54677   4.052   8.328   2.718
17613SOL    HW154678   3.980   8.379   2.682
17613SOL    HW254679   4.072   8.264   2.649
17614SOL     OW54680  10.195   2.198   5.820
17614SOL    HW154681  10.161   2.272   5.869
17614SOL    HW254682  10.228   2.236   5.739
17615SOL     OW54683   7.482   6.900   2.225
17615SOL    HW154684   7.424   6.913   2.300
17615SOL    HW254685   7.495   6.988   2.189
17616SOL     OW54686   3.080   9.224   4.028
17616SOL    HW154687   3.001   9.190   3.987
17616SOL    HW254688   3.126   9.146   4.061
17617SOL     OW54689  14.519   6.428   0.414
17617SOL    HW154690  14.569   6.361   0.367
17617SOL    HW254691  14.549   6.511   0.376
17618SOL     OW54692   1.136   0.655   2.521
17618SOL    HW154693   1.186   0.629   2.599
17618SOL    HW254694   1.044   0.650   2.548
17619SOL     OW54695  13.126  12.180  11.891
17619SOL    HW154696  13.171  12.122  11.952
17619SOL    HW254697  13.194  12.211  11.831
17620SOL     OW54698   6.602   1.420   6.778
17620SOL    HW154699   6.599   1.369   6.698
17620SOL    HW254700   6.557   1.502   6.756
17621SOL     OW54701  11.193  10.855  12.763
17621SOL    HW154702  11.112  10.903  12.780
17621SOL    HW254703  11.211  10.808  12.845
17622SOL     OW54704   3.197   0.486  12.411
17622SOL    HW154705   3.284   0.463  12.380
17622SOL    HW254706   3.199   0.582  12.418
17623SOL     OW54707   9.764   7.539   4.305
17623SOL    HW154708   9.675   7.505   4.296
17623SOL    HW254709   9.818   7.462   4.322
17624SOL     OW54710   8.805  13.956   9.095
17624SOL    HW154711   8.847  13.871   9.097
17624SOL    HW254712   8.877  14.019   9.086
17625SOL     OW54713   3.578  12.929   2.894
17625SOL    HW154714   3.609  12.913   2.804
17625SOL    HW254715   3.525  13.008   2.887
17626SOL     OW54716   2.661   8.786  12.760
17626SOL    HW154717   2.728   8.730  12.799
17626SOL    HW254718   2.578   8.754  12.797
17627SOL     OW54719   6.281  10.019   0.230
17627SOL    HW154720   6.218   9.986   0.166
17627SOL    HW254721   6.363   9.975   0.209
17628SOL     OW54722   6.244  12.893  11.128
17628SOL    HW154723   6.174  12.843  11.170
17628SOL    HW254724   6.242  12.978  11.173
17629SOL     OW54725  11.191  13.120   6.977
17629SOL    HW154726  11.244  13.194   7.009
17629SOL    HW254727  11.104  13.137   7.012
17630SOL     OW54728   3.560   0.238   2.097
17630SOL    HW154729   3.504   0.306   2.059
17630SOL    HW254730   3.633   0.230   2.036
17631SOL     OW54731   9.456   3.699   5.766
17631SOL    HW154732   9.392   3.627   5.774
17631SOL    HW254733   9.534   3.658   5.730
17632SOL     OW54734   3.335  14.517  14.513
17632SOL    HW154735   3.266  14.538  14.576
17632SOL    HW254736   3.409  14.571  14.539
17633SOL     OW54737  11.075   6.765   8.556
17633SOL    HW154738  11.066   6.743   8.463
17633SOL    HW254739  11.072   6.861   8.558
17634SOL     OW54740   4.699  11.645  13.630
17634SOL    HW154741   4.635  11.643  13.559
17634SOL    HW254742   4.671  11.576  13.690
17635SOL     OW54743   6.216   6.820   6.443
17635SOL    HW154744   6.242   6.756   6.510
17635SOL    HW254745   6.154   6.773   6.387
17636SOL     OW54746   3.274   7.189   4.167
17636SOL    HW154747   3.265   7.138   4.247
17636SOL    HW254748   3.185   7.219   4.147
17637SOL     OW54749  13.288  11.158   2.490
17637SOL    HW154750  13.365  11.126   2.443
17637SOL    HW254751  13.213  11.122   2.441
17638SOL     OW54752  11.092   0.062   0.950
17638SOL    HW154753  11.146   0.080   1.027
17638SOL    HW254754  11.152   0.069   0.876
17639SOL     OW54755  13.871   2.180  14.458
17639SOL    HW154756  13.948   2.138  14.419
17639SOL    HW254757  13.850   2.251  14.397
17640SOL     OW54758   1.974   3.304   7.038
17640SOL    HW154759   1.953   3.271   7.125
17640SOL    HW254760   2.052   3.254   7.012
17641SOL     OW54761   0.746   1.459   9.668
17641SOL    HW154762   0.729   1.519   9.741
17641SOL    HW254763   0.816   1.402   9.700
17642SOL     OW54764   4.221   3.669  10.521
17642SOL    HW154765   4.181   3.627  10.597
17642SOL    HW254766   4.290   3.725  10.558
17643SOL     OW54767   9.718   4.369   9.174
17643SOL    HW154768   9.736   4.284   9.135
17643SOL    HW254769   9.635   4.396   9.135
17644SOL     OW54770   5.173   3.939   9.267
17644SOL    HW154771   5.234   3.915   9.197
17644SOL    HW254772   5.119   4.008   9.229
17645SOL     OW54773   9.415  10.692   7.967
17645SOL    HW154774   9.321  10.695   7.952
17645SOL    HW254775   9.443  10.609   7.927
17646SOL     OW54776  12.010   6.906   8.786
17646SOL    HW154777  12.087   6.908   8.844
17646SOL    HW254778  12.014   6.989   8.738
17647SOL     OW54779   1.913   1.713  10.087
17647SOL    HW154780   2.009   1.708  10.081
17647SOL    HW254781   1.887   1.629  10.123
17648SOL     OW54782   2.298   8.983   3.714
17648SOL    HW154783   2.311   9.076   3.734
17648SOL    HW254784   2.203   8.973   3.711
17649SOL     OW54785   6.281   2.184  10.243
17649SOL    HW154786   6.346   2.114  10.247
17649SOL    HW254787   6.206   2.149  10.291
17650SOL     OW54788   5.398  14.010  11.121
17650SOL    HW154789   5.310  13.974  11.114
17650SOL    HW254790   5.389  14.101  11.094
17651SOL     OW54791   9.198  12.531   4.266
17651SOL    HW154792   9.289  12.556   4.283
17651SOL    HW254793   9.200  12.436   4.259
17652SOL     OW54794   3.749   3.601  13.980
17652SOL    HW154795   3.676   3.658  14.002
17652SOL    HW254796   3.793   3.586  14.064
17653SOL     OW54797  12.335  11.452   2.554
17653SOL    HW154798  12.425  11.474   2.533
17653SOL    HW254799  12.311  11.385   2.491
17654SOL     OW54800   0.630   0.590   9.068
17654SOL    HW154801   0.575   0.658   9.107
17654SOL    HW254802   0.691   0.564   9.137
17655SOL     OW54803   9.799  12.375   7.140
17655SOL    HW154804   9.806  12.280   7.133
17655SOL    HW254805   9.705  12.393   7.131
17656SOL     OW54806  14.859  12.804  13.501
17656SOL    HW154807   0.058  12.759  13.470
17656SOL    HW254808  14.851  12.777  13.593
17657SOL     OW54809   2.167  11.435   5.008
17657SOL    HW154810   2.153  11.447   5.102
17657SOL    HW254811   2.254  11.470   4.992
17658SOL     OW54812   5.811   7.166   5.133
17658SOL    HW154813   5.820   7.089   5.077
17658SOL    HW254814   5.901   7.188   5.159
17659SOL     OW54815  11.172   2.388  12.226
17659SOL    HW154816  11.151   2.455  12.161
17659SOL    HW254817  11.135   2.421  12.308
17660SOL     OW54818   6.260   7.709  13.956
17660SOL    HW154819   6.339   7.758  13.934
17660SOL    HW254820   6.291   7.620  13.972
17661SOL     OW54821   1.507   1.148  13.991
17661SOL    HW154822   1.545   1.172  14.075
17661SOL    HW254823   1.416   1.178  13.996
17662SOL     OW54824   1.819  11.537  13.197
17662SOL    HW154825   1.783  11.478  13.263
17662SOL    HW254826   1.759  11.611  13.195
17663SOL     OW54827  13.830   9.297   1.364
17663SOL    HW154828  13.851   9.363   1.430
17663SOL    HW254829  13.758   9.248   1.402
17664SOL     OW54830   6.992  10.976   0.740
17664SOL    HW154831   7.006  10.892   0.782
17664SOL    HW254832   7.079  11.014   0.732
17665SOL     OW54833  12.473   0.000  10.464
17665SOL    HW154834  12.476   0.036  10.553
17665SOL    HW254835  12.508   0.070  10.409
17666SOL     OW54836  10.649   5.298   7.063
17666SOL    HW154837  10.609   5.377   7.027
17666SOL    HW254838  10.734   5.327   7.096
17667SOL     OW54839   6.216   8.061   1.085
17667SOL    HW154840   6.229   8.116   1.008
17667SOL    HW254841   6.129   8.024   1.073
17668SOL     OW54842   3.730   6.830   5.328
17668SOL    HW154843   3.688   6.786   5.254
17668SOL    HW254844   3.662   6.886   5.365
17669SOL     OW54845  11.956   9.703   6.877
17669SOL    HW154846  11.894   9.702   6.950
17669SOL    HW254847  12.042   9.716   6.919
17670SOL     OW54848  12.473  11.707   8.409
17670SOL    HW154849  12.538  11.727   8.477
17670SOL    HW254850  12.449  11.616   8.425
17671SOL     OW54851   4.003   4.270   5.459
17671SOL    HW154852   4.014   4.245   5.367
17671SOL    HW254853   4.046   4.200   5.508
17672SOL     OW54854   9.486   0.726  10.636
17672SOL    HW154855   9.441   0.778  10.570
17672SOL    HW254856   9.483   0.779  10.716
17673SOL     OW54857   9.055  13.560   7.681
17673SOL    HW154858   9.143  13.565   7.718
17673SOL    HW254859   9.003  13.518   7.750
17674SOL     OW54860   8.933  13.801   7.310
17674SOL    HW154861   8.995  13.864   7.274
17674SOL    HW254862   8.950  13.802   7.405
17675SOL     OW54863   2.900   8.731  14.746
17675SOL    HW154864   2.980   8.775  14.715
17675SOL    HW254865   2.932   8.651  14.788
17676SOL     OW54866  11.355  12.437   1.047
17676SOL    HW154867  11.266  12.430   1.082
17676SOL    HW254868  11.380  12.528   1.062
17677SOL     OW54869   6.187   2.841   1.098
17677SOL    HW154870   6.194   2.927   1.139
17677SOL    HW254871   6.102   2.807   1.126
17678SOL     OW54872   0.995   1.859   5.768
17678SOL    HW154873   0.928   1.923   5.791
17678SOL    HW254874   1.066   1.910   5.729
17679SOL     OW54875   8.858  10.966   7.686
17679SOL    HW154876   8.944  11.000   7.709
17679SOL    HW254877   8.825  10.927   7.767
17680SOL     OW54878   0.584  11.849  13.080
17680SOL    HW154879   0.493  11.878  13.088
17680SOL    HW254880   0.611  11.877  12.993
17681SOL     OW54881  11.314   2.743  14.766
17681SOL    HW154882  11.261   2.672  14.729
17681SOL    HW254883  11.404   2.714  14.753
17682SOL     OW54884   2.222   9.357   4.032
17682SOL    HW154885   2.247   9.390   4.119
17682SOL    HW254886   2.127   9.345   4.038
17683SOL     OW54887   1.229  12.887   5.703
17683SOL    HW154888   1.241  12.854   5.792
17683SOL    HW254889   1.135  12.902   5.694
17684SOL     OW54890  11.345  12.076  10.738
17684SOL    HW154891  11.262  12.075  10.691
17684SOL    HW254892  11.408  12.107  10.673
17685SOL     OW54893   6.360   1.812   8.837
17685SOL    HW154894   6.361   1.904   8.810
17685SOL    HW254895   6.453   1.788   8.844
17686SOL     OW54896   7.073   5.672  14.013
17686SOL    HW154897   7.091   5.762  14.040
17686SOL    HW254898   7.127   5.659  13.935
17687SOL     OW54899  12.376  13.478   1.811
17687SOL    HW154900  12.451  13.457   1.756
17687SOL    HW254901  12.404  13.454   1.899
17688SOL     OW54902   8.596   5.927  11.687
17688SOL    HW154903   8.501   5.936  11.677
17688SOL    HW254904   8.627   6.016  11.703
17689SOL     OW54905  11.775  11.047  14.450
17689SOL    HW154906  11.831  10.987  14.498
17689SOL    HW254907  11.820  11.132  14.456
17690SOL     OW54908  14.365  11.030   5.390
17690SOL    HW154909  14.427  11.032   5.317
17690SOL    HW254910  14.314  10.951   5.377
17691SOL     OW54911   6.174   5.540  11.386
17691SOL    HW154912   6.261   5.580  11.391
17691SOL    HW254913   6.131   5.566  11.468
17692SOL     OW54914  12.969   1.905  10.337
17692SOL    HW154915  13.032   1.902  10.265
17692SOL    HW254916  13.022   1.896  10.416
17693SOL     OW54917   6.032  14.568  13.442
17693SOL    HW154918   5.995  14.501  13.500
17693SOL    HW254919   5.957  14.625  13.421
17694SOL     OW54920  14.007   8.066   8.642
17694SOL    HW154921  14.097   8.034   8.647
17694SOL    HW254922  13.997   8.097   8.552
17695SOL     OW54923  13.003   4.382   0.036
17695SOL    HW154924  12.938   4.387  14.846
17695SOL    HW254925  13.027   4.473   0.054
17696SOL     OW54926   2.591  12.757  12.870
17696SOL    HW154927   2.519  12.764  12.808
17696SOL    HW254928   2.666  12.797  12.826
17697SOL     OW54929   9.794  12.986   8.509
17697SOL    HW154930   9.715  12.961   8.462
17697SOL    HW254931   9.829  12.904   8.543
17698SOL     OW54932   2.729  11.539   7.142
17698SOL    HW154933   2.723  11.450   7.178
17698SOL    HW254934   2.821  11.548   7.116
17699SOL     OW54935   6.341  10.485   5.823
17699SOL    HW154936   6.403  10.413   5.832
17699SOL    HW254937   6.332  10.520   5.911
17700SOL     OW54938  14.454   3.404   4.931
17700SOL    HW154939  14.526   3.463   4.952
17700SOL    HW254940  14.448   3.346   5.007
17701SOL     OW54941   0.840  13.822  14.039
17701SOL    HW154942   0.899  13.772  14.096
17701SOL    HW254943   0.764  13.842  14.094
17702SOL     OW54944   0.507   0.076   6.080
17702SOL    HW154945   0.426   0.118   6.106
17702SOL    HW254946   0.514   0.091   5.986
17703SOL     OW54947   3.498   4.789   3.290
17703SOL    HW154948   3.447   4.865   3.316
17703SOL    HW254949   3.585   4.803   3.327
17704SOL     OW54950  10.483  10.574   9.437
17704SOL    HW154951  10.399  10.561   9.392
17704SOL    HW254952  10.470  10.655   9.487
17705SOL     OW54953   5.049  11.607  12.071
17705SOL    HW154954   5.062  11.643  12.158
17705SOL    HW254955   4.979  11.660  12.033
17706SOL     OW54956   8.999  10.985  13.402
17706SOL    HW154957   8.939  10.934  13.457
17706SOL    HW254958   8.987  10.950  13.314
17707SOL     OW54959   8.293   4.451   1.479
17707SOL    HW154960   8.334   4.538   1.477
17707SOL    HW254961   8.255   4.444   1.567
17708SOL     OW54962   6.241  11.577   1.368
17708SOL    HW154963   6.258  11.507   1.306
17708SOL    HW254964   6.275  11.545   1.451
17709SOL     OW54965  14.556  11.896   7.114
17709SOL    HW154966  14.514  11.897   7.201
17709SOL    HW254967  14.602  11.979   7.109
17710SOL     OW54968   6.633   0.306   3.482
17710SOL    HW154969   6.687   0.257   3.419
17710SOL    HW254970   6.606   0.239   3.546
17711SOL     OW54971   2.078   7.647  11.174
17711SOL    HW154972   2.162   7.606  11.156
17711SOL    HW254973   2.088   7.686  11.262
17712SOL     OW54974   2.112   9.739   4.347
17712SOL    HW154975   2.097   9.808   4.412
17712SOL    HW254976   2.052   9.669   4.372
17713SOL     OW54977   6.132   6.155  12.627
17713SOL    HW154978   6.188   6.221  12.585
17713SOL    HW254979   6.137   6.175  12.720
17714SOL     OW54980   3.240   4.141   7.466
17714SOL    HW154981   3.150   4.110   7.469
17714SOL    HW254982   3.236   4.222   7.414
17715SOL     OW54983  10.634   9.858  12.076
17715SOL    HW154984  10.610   9.899  12.159
17715SOL    HW254985  10.651   9.767  12.098
17716SOL     OW54986   3.711   3.757   6.425
17716SOL    HW154987   3.802   3.749   6.453
17716SOL    HW254988   3.660   3.746   6.504
17717SOL     OW54989  13.190  14.857   2.998
17717SOL    HW154990  13.190   0.032   3.076
17717SOL    HW254991  13.200  14.768   3.031
17718SOL     OW54992   4.147  14.638  10.366
17718SOL    HW154993   4.086  14.618  10.437
17718SOL    HW254994   4.233  14.616  10.402
17719SOL     OW54995   3.360   6.108   3.305
17719SOL    HW154996   3.431   6.058   3.344
17719SOL    HW254997   3.283   6.052   3.317
17720SOL     OW54998   3.612   5.651  11.879
17720SOL    HW154999   3.518   5.636  11.896
17720SOL    HW255000   3.642   5.569  11.840
17721SOL     OW55001   5.484   5.776   4.814
17721SOL    HW155002   5.514   5.737   4.896
17721SOL    HW255003   5.480   5.702   4.753
17722SOL     OW55004   1.041   8.204   1.376
17722SOL    HW155005   1.057   8.116   1.341
17722SOL    HW255006   1.127   8.232   1.409
17723SOL     OW55007   1.817   1.054  13.215
17723SOL    HW155008   1.839   1.066  13.307
17723SOL    HW255009   1.750   1.121  13.197
17724SOL     OW55010  14.736   3.654  12.060
17724SOL    HW155011  14.745   3.575  12.007
17724SOL    HW255012  14.816   3.704  12.042
17725SOL     OW55013  11.422   9.587   3.031
17725SOL    HW155014  11.343   9.639   3.042
17725SOL    HW255015  11.439   9.551   3.118
17726SOL     OW55016   5.756   4.864  10.017
17726SOL    HW155017   5.700   4.866   9.940
17726SOL    HW255018   5.844   4.848   9.983
17727SOL     OW55019  14.236   9.236   7.042
17727SOL    HW155020  14.230   9.326   7.071
17727SOL    HW255021  14.225   9.240   6.947
17728SOL     OW55022   0.172  13.596   1.861
17728SOL    HW155023   0.206  13.639   1.782
17728SOL    HW255024   0.105  13.536   1.829
17729SOL     OW55025  13.038   9.806  14.846
17729SOL    HW155026  13.039   9.745   0.040
17729SOL    HW255027  13.130   9.823  14.828
17730SOL     OW55028  14.793   4.957   3.200
17730SOL    HW155029  14.775   4.878   3.250
17730SOL    HW255030  14.871   4.936   3.149
17731SOL     OW55031   4.819  10.999   5.260
17731SOL    HW155032   4.764  10.923   5.239
17731SOL    HW255033   4.812  11.056   5.184
17732SOL     OW55034  12.228  13.220   3.598
17732SOL    HW155035  12.145  13.233   3.645
17732SOL    HW255036  12.213  13.142   3.545
17733SOL     OW55037   9.278   3.914   6.513
17733SOL    HW155038   9.262   3.975   6.585
17733SOL    HW255039   9.261   3.965   6.434
17734SOL     OW55040   1.565   9.749   5.911
17734SOL    HW155041   1.597   9.679   5.967
17734SOL    HW255042   1.551   9.823   5.970
17735SOL     OW55043  10.404   4.120  11.070
17735SOL    HW155044  10.315   4.147  11.091
17735SOL    HW255045  10.397   4.081  10.983
17736SOL     OW55046  13.905  11.870  13.509
17736SOL    HW155047  13.909  11.949  13.562
17736SOL    HW255048  13.986  11.871  13.458
17737SOL     OW55049   1.825  13.931   6.149
17737SOL    HW155050   1.863  13.993   6.211
17737SOL    HW255051   1.884  13.932   6.073
17738SOL     OW55052   4.872   2.448   0.419
17738SOL    HW155053   4.781   2.441   0.389
17738SOL    HW255054   4.868   2.508   0.493
17739SOL     OW55055   7.398   8.072  11.916
17739SOL    HW155056   7.409   7.995  11.859
17739SOL    HW255057   7.487   8.093  11.944
17740SOL     OW55058  14.281   9.250  13.453
17740SOL    HW155059  14.235   9.335  13.452
17740SOL    HW255060  14.348   9.258  13.385
17741SOL     OW55061   0.816  11.219   7.842
17741SOL    HW155062   0.878  11.153   7.813
17741SOL    HW255063   0.869  11.285   7.887
17742SOL     OW55064   4.134   8.232  10.367
17742SOL    HW155065   4.074   8.279  10.309
17742SOL    HW255066   4.195   8.188  10.307
17743SOL     OW55067  12.827   5.399   8.726
17743SOL    HW155068  12.811   5.477   8.673
17743SOL    HW255069  12.897   5.353   8.681
17744SOL     OW55070   5.365   7.456   7.683
17744SOL    HW155071   5.375   7.436   7.776
17744SOL    HW255072   5.449   7.495   7.658
17745SOL     OW55073   7.053  11.538  12.311
17745SOL    HW155074   7.021  11.448  12.311
17745SOL    HW255075   6.998  11.583  12.374
17746SOL     OW55076  14.528   7.600   3.530
17746SOL    HW155077  14.462   7.612   3.462
17746SOL    HW255078  14.608   7.634   3.491
17747SOL     OW55079   7.841   2.315  10.841
17747SOL    HW155080   7.851   2.248  10.909
17747SOL    HW255081   7.913   2.298  10.780
17748SOL     OW55082   4.279  11.019   5.551
17748SOL    HW155083   4.340  11.089   5.527
17748SOL    HW255084   4.328  10.964   5.613
17749SOL     OW55085  10.009   9.655  13.298
17749SOL    HW155086   9.979   9.564  13.296
17749SOL    HW255087  10.017   9.676  13.391
17750SOL     OW55088  13.092  11.470   6.866
17750SOL    HW155089  13.063  11.455   6.776
17750SOL    HW255090  13.041  11.547   6.894
17751SOL     OW55091   2.780  10.650  10.367
17751SOL    HW155092   2.692  10.670  10.399
17751SOL    HW255093   2.837  10.710  10.414
17752SOL     OW55094   4.208   9.907   7.705
17752SOL    HW155095   4.287   9.953   7.676
17752SOL    HW255096   4.240   9.840   7.764
17753SOL     OW55097   1.729  10.841   8.489
17753SOL    HW155098   1.671  10.766   8.504
17753SOL    HW255099   1.777  10.818   8.410
17754SOL     OW55100   8.067   3.838  14.458
17754SOL    HW155101   8.103   3.752  14.480
17754SOL    HW255102   7.974   3.822  14.446
17755SOL     OW55103  10.388  12.952   8.495
17755SOL    HW155104  10.376  12.903   8.414
17755SOL    HW255105  10.299  12.979   8.520
17756SOL     OW55106   1.185   4.561   9.090
17756SOL    HW155107   1.266   4.607   9.068
17756SOL    HW255108   1.213   4.490   9.149
17757SOL     OW55109   9.150   0.837  14.218
17757SOL    HW155110   9.105   0.833  14.134
17757SOL    HW255111   9.205   0.758  14.220
17758SOL     OW55112   0.602   2.333   1.039
17758SOL    HW155113   0.526   2.276   1.053
17758SOL    HW255114   0.661   2.314   1.112
17759SOL     OW55115   5.526   8.918  10.615
17759SOL    HW155116   5.449   8.975  10.624
17759SOL    HW255117   5.598   8.978  10.594
17760SOL     OW55118  10.840   9.139   1.549
17760SOL    HW155119  10.766   9.132   1.608
17760SOL    HW255120  10.896   9.207   1.588
17761SOL     OW55121  11.338   7.812   1.334
17761SOL    HW155122  11.256   7.793   1.290
17761SOL    HW255123  11.333   7.764   1.417
17762SOL     OW55124   1.749   5.286   1.433
17762SOL    HW155125   1.736   5.197   1.399
17762SOL    HW255126   1.832   5.315   1.395
17763SOL     OW55127   7.507   9.755   3.254
17763SOL    HW155128   7.498   9.719   3.166
17763SOL    HW255129   7.497   9.850   3.242
17764SOL     OW55130   3.747   8.573   0.995
17764SOL    HW155131   3.812   8.560   0.926
17764SOL    HW255132   3.668   8.601   0.948
17765SOL     OW55133   9.442   9.500   1.605
17765SOL    HW155134   9.437   9.562   1.532
17765SOL    HW255135   9.352   9.472   1.620
17766SOL     OW55136   8.982   2.287  12.223
17766SOL    HW155137   8.981   2.379  12.249
17766SOL    HW255138   9.004   2.240  12.303
17767SOL     OW55139  13.683  10.686   6.708
17767SOL    HW155140  13.664  10.602   6.749
17767SOL    HW255141  13.616  10.695   6.640
17768SOL     OW55142   6.765   1.347  13.787
17768SOL    HW155143   6.855   1.380  13.794
17768SOL    HW255144   6.737   1.374  13.699
17769SOL     OW55145   0.787   2.111  13.644
17769SOL    HW155146   0.784   2.189  13.699
17769SOL    HW255147   0.876   2.110  13.608
17770SOL     OW55148   9.756   7.989  14.036
17770SOL    HW155149   9.765   8.084  14.044
17770SOL    HW255150   9.719   7.976  13.949
17771SOL     OW55151   6.844   3.417  11.005
17771SOL    HW155152   6.776   3.379  10.949
17771SOL    HW255153   6.849   3.508  10.977
17772SOL     OW55154   6.450  13.850   1.505
17772SOL    HW155155   6.514  13.815   1.567
17772SOL    HW255156   6.439  13.941   1.531
17773SOL     OW55157  10.695  13.565   8.829
17773SOL    HW155158  10.618  13.617   8.808
17773SOL    HW255159  10.710  13.580   8.922
17774SOL     OW55160  12.738   1.668   3.434
17774SOL    HW155161  12.759   1.727   3.362
17774SOL    HW255162  12.665   1.709   3.480
17775SOL     OW55163   7.336  12.267   8.314
17775SOL    HW155164   7.291  12.313   8.384
17775SOL    HW255165   7.417  12.316   8.301
17776SOL     OW55166   4.435  12.677   9.698
17776SOL    HW155167   4.411  12.766   9.673
17776SOL    HW255168   4.440  12.680   9.794
17777SOL     OW55169   1.650   1.015  14.856
17777SOL    HW155170   1.634   0.921  14.858
17777SOL    HW255171   1.564   1.055  14.869
17778SOL     OW55172  14.129   6.741   5.057
17778SOL    HW155173  14.083   6.791   5.124
17778SOL    HW255174  14.218   6.732   5.091
17779SOL     OW55175   0.881   2.517   0.279
17779SOL    HW155176   0.912   2.607   0.276
17779SOL    HW255177   0.926   2.478   0.354
17780SOL     OW55178   0.666   7.882   1.101
17780SOL    HW155179   0.745   7.930   1.079
17780SOL    HW255180   0.654   7.896   1.195
17781SOL     OW55181   2.359   1.224   8.250
17781SOL    HW155182   2.330   1.265   8.168
17781SOL    HW255183   2.293   1.156   8.268
17782SOL     OW55184   5.681  11.038   7.388
17782SOL    HW155185   5.761  10.986   7.385
17782SOL    HW255186   5.668  11.067   7.298
17783SOL     OW55187   1.235  10.718   4.238
17783SOL    HW155188   1.201  10.743   4.324
17783SOL    HW255189   1.166  10.663   4.200
17784SOL     OW55190   4.224   2.722   6.590
17784SOL    HW155191   4.259   2.760   6.670
17784SOL    HW255192   4.292   2.661   6.561
17785SOL     OW55193   0.515   7.365   7.000
17785SOL    HW155194   0.429   7.346   6.961
17785SOL    HW255195   0.551   7.279   7.021
17786SOL     OW55196   6.922   8.348   2.156
17786SOL    HW155197   6.944   8.441   2.159
17786SOL    HW255198   7.006   8.304   2.145
17787SOL     OW55199   1.733  11.391  11.364
17787SOL    HW155200   1.644  11.411  11.336
17787SOL    HW255201   1.779  11.366  11.284
17788SOL     OW55202   7.049   0.426  11.857
17788SOL    HW155203   6.976   0.430  11.795
17788SOL    HW255204   7.106   0.498  11.831
17789SOL     OW55205   5.052  10.101  13.350
17789SOL    HW155206   5.025  10.040  13.419
17789SOL    HW255207   5.125  10.058  13.306
17790SOL     OW55208   0.829   9.575   2.453
17790SOL    HW155209   0.922   9.578   2.478
17790SOL    HW255210   0.792   9.508   2.510
17791SOL     OW55211   6.040   3.944  14.049
17791SOL    HW155212   6.032   4.034  14.017
17791SOL    HW255213   6.019   3.949  14.142
17792SOL     OW55214  10.496   8.448   3.562
17792SOL    HW155215  10.414   8.466   3.515
17792SOL    HW255216  10.469   8.435   3.653
17793SOL     OW55217   3.352   5.859  12.011
17793SOL    HW155218   3.267   5.892  12.039
17793SOL    HW255219   3.378   5.917  11.939
17794SOL     OW55220   5.791   3.092  10.837
17794SOL    HW155221   5.706   3.124  10.867
17794SOL    HW255222   5.854   3.156  10.870
17795SOL     OW55223  11.154   5.360   0.513
17795SOL    HW155224  11.072   5.383   0.469
17795SOL    HW255225  11.127   5.315   0.592
17796SOL     OW55226   7.413   3.679  11.755
17796SOL    HW155227   7.505   3.700  11.739
17796SOL    HW255228   7.410   3.659  11.849
17797SOL     OW55229   0.143  10.788   3.342
17797SOL    HW155230   0.206  10.785   3.414
17797SOL    HW255231   0.196  10.775   3.263
17798SOL     OW55232   5.502   1.473   3.295
17798SOL    HW155233   5.472   1.533   3.226
17798SOL    HW255234   5.525   1.530   3.368
17799SOL     OW55235   2.472   5.406  12.470
17799SOL    HW155236   2.387   5.448  12.454
17799SOL    HW255237   2.536   5.477  12.462
17800SOL     OW55238  10.788  12.039   3.489
17800SOL    HW155239  10.832  11.969   3.442
17800SOL    HW255240  10.849  12.113   3.484
17801SOL     OW55241   4.441   1.019   6.858
17801SOL    HW155242   4.432   1.040   6.765
17801SOL    HW255243   4.535   1.020   6.874
17802SOL     OW55244  13.434   6.242  11.770
17802SOL    HW155245  13.348   6.202  11.758
17802SOL    HW255246  13.415   6.336  11.778
17803SOL     OW55247   5.747   3.044   5.013
17803SOL    HW155248   5.674   3.040   4.952
17803SOL    HW255249   5.722   3.111   5.077
17804SOL     OW55250  12.382   1.988   6.263
17804SOL    HW155251  12.417   2.070   6.297
17804SOL    HW255252  12.296   1.980   6.305
17805SOL     OW55253   3.340   9.934   2.618
17805SOL    HW155254   3.291   9.978   2.688
17805SOL    HW255255   3.374   9.855   2.660
17806SOL     OW55256   9.325   4.519  10.254
17806SOL    HW155257   9.336   4.500  10.347
17806SOL    HW255258   9.375   4.600  10.240
17807SOL     OW55259  10.452   4.626   3.048
17807SOL    HW155260  10.425   4.717   3.060
17807SOL    HW255261  10.373   4.574   3.064
17808SOL     OW55262   7.667  12.615   3.382
17808SOL    HW155263   7.645  12.563   3.460
17808SOL    HW255264   7.654  12.555   3.309
17809SOL     OW55265   4.229   6.652   4.918
17809SOL    HW155266   4.309   6.700   4.894
17809SOL    HW255267   4.235   6.643   5.014
17810SOL     OW55268   5.167   5.013  12.663
17810SOL    HW155269   5.208   5.005  12.749
17810SOL    HW255270   5.100   4.945  12.662
17811SOL     OW55271   4.523   0.636   8.792
17811SOL    HW155272   4.479   0.585   8.860
17811SOL    HW255273   4.524   0.577   8.716
17812SOL     OW55274   4.379   6.776   8.820
17812SOL    HW155275   4.373   6.831   8.898
17812SOL    HW255276   4.288   6.761   8.794
17813SOL     OW55277  10.232   4.226  11.980
17813SOL    HW155278  10.255   4.135  11.962
17813SOL    HW255279  10.251   4.238  12.073
17814SOL     OW55280  12.021  12.255   7.821
17814SOL    HW155281  12.078  12.305   7.880
17814SOL    HW255282  11.982  12.321   7.764
17815SOL     OW55283  10.882   5.135   0.357
17815SOL    HW155284  10.885   5.168   0.267
17815SOL    HW255285  10.837   5.203   0.406
17816SOL     OW55286   6.368  13.506   9.780
17816SOL    HW155287   6.368  13.443   9.708
17816SOL    HW255288   6.346  13.454   9.858
17817SOL     OW55289   9.757  11.580   9.418
17817SOL    HW155290   9.727  11.489   9.423
17817SOL    HW255291   9.700  11.627   9.479
17818SOL     OW55292   5.530   9.794  14.305
17818SOL    HW155293   5.584   9.731  14.257
17818SOL    HW255294   5.476   9.836  14.237
17819SOL     OW55295   9.978   5.766   2.100
17819SOL    HW155296  10.058   5.780   2.049
17819SOL    HW255297  10.009   5.751   2.190
17820SOL     OW55298   9.687   5.199  10.346
17820SOL    HW155299   9.620   5.242  10.292
17820SOL    HW255300   9.644   5.183  10.430
17821SOL     OW55301   8.848   0.096   0.285
17821SOL    HW155302   8.857   0.116   0.378
17821SOL    HW255303   8.839   0.000   0.282
17822SOL     OW55304   4.077  12.941  11.844
17822SOL    HW155305   4.072  12.883  11.769
17822SOL    HW255306   4.042  13.025  11.813
17823SOL     OW55307   5.596   3.255   2.369
17823SOL    HW155308   5.566   3.181   2.421
17823SOL    HW255309   5.686   3.234   2.347
17824SOL     OW55310   2.723   4.373  13.298
17824SOL    HW155311   2.784   4.422  13.354
17824SOL    HW255312   2.658   4.338  13.359
17825SOL     OW55313   7.773   9.144   4.502
17825SOL    HW155314   7.784   9.062   4.551
17825SOL    HW255315   7.683   9.171   4.520
17826SOL     OW55316   2.346   0.274  14.213
17826SOL    HW155317   2.311   0.201  14.162
17826SOL    HW255318   2.368   0.340  14.148
17827SOL     OW55319   4.472   9.273  12.613
17827SOL    HW155320   4.520   9.193  12.588
17827SOL    HW255321   4.402   9.242  12.669
17828SOL     OW55322   0.763   5.535   9.498
17828SOL    HW155323   0.694   5.504   9.556
17828SOL    HW255324   0.724   5.533   9.410
17829SOL     OW55325   7.398   2.805   4.290
17829SOL    HW155326   7.317   2.777   4.247
17829SOL    HW255327   7.467   2.782   4.227
17830SOL     OW55328  12.484   2.079   0.646
17830SOL    HW155329  12.513   2.136   0.575
17830SOL    HW255330  12.518   1.992   0.624
17831SOL     OW55331   2.489   8.937  10.669
17831SOL    HW155332   2.538   8.855  10.669
17831SOL    HW255333   2.556   9.004  10.686
17832SOL     OW55334  13.508  13.004   2.929
17832SOL    HW155335  13.539  13.007   2.839
17832SOL    HW255336  13.422  12.962   2.924
17833SOL     OW55337  12.472  10.369  14.240
17833SOL    HW155338  12.519  10.452  14.227
17833SOL    HW255339  12.489  10.346  14.331
17834SOL     OW55340   1.900   6.383  12.153
17834SOL    HW155341   1.837   6.381  12.082
17834SOL    HW255342   1.897   6.473  12.186
17835SOL     OW55343   3.573  11.880   5.842
17835SOL    HW155344   3.528  11.928   5.912
17835SOL    HW255345   3.604  11.948   5.782
17836SOL     OW55346   6.855   3.709   9.892
17836SOL    HW155347   6.849   3.721   9.797
17836SOL    HW255348   6.948   3.712   9.911
17837SOL     OW55349   0.249   1.149   1.391
17837SOL    HW155350   0.272   1.229   1.438
17837SOL    HW255351   0.283   1.163   1.302
17838SOL     OW55352  13.273   7.545   2.388
17838SOL    HW155353  13.360   7.522   2.419
17838SOL    HW255354  13.213   7.510   2.454
17839SOL     OW55355   2.285   0.689   4.845
17839SOL    HW155356   2.221   0.646   4.788
17839SOL    HW255357   2.333   0.748   4.787
17840SOL     OW55358   8.814   9.573   3.521
17840SOL    HW155359   8.793   9.491   3.476
17840SOL    HW255360   8.877   9.548   3.588
17841SOL     OW55361   3.599   2.183   1.016
17841SOL    HW155362   3.550   2.102   1.004
17841SOL    HW255363   3.672   2.159   1.074
17842SOL     OW55364   5.406   8.530  12.461
17842SOL    HW155365   5.452   8.593  12.517
17842SOL    HW255366   5.462   8.452  12.461
17843SOL     OW55367   1.583   9.855   2.324
17843SOL    HW155368   1.564   9.910   2.249
17843SOL    HW255369   1.649   9.793   2.293
17844SOL     OW55370   6.271   9.836  12.110
17844SOL    HW155371   6.251   9.755  12.156
17844SOL    HW255372   6.336   9.880  12.166
17845SOL     OW55373   1.975   8.998   4.740
17845SOL    HW155374   1.892   8.963   4.772
17845SOL    HW255375   2.022   9.026   4.819
17846SOL     OW55376   9.910   7.123  11.498
17846SOL    HW155377   9.856   7.202  11.504
17846SOL    HW255378   9.859   7.064  11.443
17847SOL     OW55379   5.125   7.990  11.299
17847SOL    HW155380   5.091   7.901  11.307
17847SOL    HW255381   5.056   8.038  11.252
17848SOL     OW55382   7.121   5.180  11.651
17848SOL    HW155383   7.037   5.199  11.692
17848SOL    HW255384   7.151   5.099  11.692
17849SOL     OW55385  13.972  10.088   3.148
17849SOL    HW155386  13.882  10.122   3.142
17849SOL    HW255387  14.027  10.166   3.147
17850SOL     OW55388   4.972   0.928  11.697
17850SOL    HW155389   4.983   0.836  11.673
17850SOL    HW255390   4.878   0.944  11.687
17851SOL     OW55391  13.937   7.573   2.064
17851SOL    HW155392  13.900   7.660   2.075
17851SOL    HW255393  14.002   7.583   1.995
17852SOL     OW55394   3.886  11.334   9.647
17852SOL    HW155395   3.941  11.256   9.651
17852SOL    HW255396   3.805  11.308   9.690
17853SOL     OW55397   7.695  12.516   2.739
17853SOL    HW155398   7.692  12.447   2.672
17853SOL    HW255399   7.608  12.513   2.780
17854SOL     OW55400  14.144   5.755  10.234
17854SOL    HW155401  14.105   5.803  10.307
17854SOL    HW255402  14.105   5.794  10.156
17855SOL     OW55403   8.176  13.319  13.132
17855SOL    HW155404   8.207  13.402  13.166
17855SOL    HW255405   8.135  13.276  13.207
17856SOL     OW55406   2.747  13.170  14.261
17856SOL    HW155407   2.719  13.261  14.247
17856SOL    HW255408   2.667  13.124  14.286
17857SOL     OW55409  14.822   6.210   1.152
17857SOL    HW155410   0.008   6.249   1.096
17857SOL    HW255411  14.745   6.198   1.095
17858SOL     OW55412   9.069   9.847  13.911
17858SOL    HW155413   9.105   9.917  13.858
17858SOL    HW255414   9.113   9.855  13.996
17859SOL     OW55415   0.807   4.333   0.166
17859SOL    HW155416   0.824   4.427   0.178
17859SOL    HW255417   0.765   4.327   0.080
17860SOL     OW55418   1.920  14.040   9.227
17860SOL    HW155419   1.859  14.096   9.180
17860SOL    HW255420   1.897  14.052   9.319
17861SOL     OW55421  12.557   6.573   0.434
17861SOL    HW155422  12.503   6.496   0.450
17861SOL    HW255423  12.585   6.564   0.343
17862SOL     OW55424   3.646  14.473  14.408
17862SOL    HW155425   3.618  14.470  14.499
17862SOL    HW255426   3.587  14.413  14.362
17863SOL     OW55427  13.361   7.393  14.125
17863SOL    HW155428  13.346   7.324  14.060
17863SOL    HW255429  13.448   7.374  14.160
17864SOL     OW55430  12.887  12.843  12.868
17864SOL    HW155431  12.804  12.838  12.821
17864SOL    HW255432  12.864  12.882  12.953
17865SOL     OW55433  13.095   2.232  12.170
17865SOL    HW155434  13.036   2.280  12.228
17865SOL    HW255435  13.176   2.222  12.222
17866SOL     OW55436   2.244  10.778   7.699
17866SOL    HW155437   2.317  10.836   7.717
17866SOL    HW255438   2.203  10.813   7.620
17867SOL     OW55439   6.556   0.612   5.794
17867SOL    HW155440   6.537   0.593   5.886
17867SOL    HW255441   6.646   0.643   5.793
17868SOL     OW55442   2.174  10.740   8.823
17868SOL    HW155443   2.102  10.776   8.772
17868SOL    HW255444   2.253  10.766   8.774
17869SOL     OW55445   7.805  10.632   4.957
17869SOL    HW155446   7.816  10.727   4.951
17869SOL    HW255447   7.710  10.620   4.963
17870SOL     OW55448  10.554   8.089   4.660
17870SOL    HW155449  10.564   8.090   4.756
17870SOL    HW255450  10.478   8.144   4.644
17871SOL     OW55451  12.793   0.521   3.730
17871SOL    HW155452  12.864   0.554   3.785
17871SOL    HW255453  12.796   0.426   3.742
17872SOL     OW55454  11.484   9.925   5.592
17872SOL    HW155455  11.501  10.019   5.596
17872SOL    HW255456  11.468   9.900   5.683
17873SOL     OW55457   5.529  10.099   8.967
17873SOL    HW155458   5.503  10.080   9.057
17873SOL    HW255459   5.561  10.189   8.969
17874SOL     OW55460  11.493   7.099   6.541
17874SOL    HW155461  11.404   7.065   6.529
17874SOL    HW255462  11.489   7.189   6.508
17875SOL     OW55463  14.517   4.001   5.787
17875SOL    HW155464  14.476   4.049   5.859
17875SOL    HW255465  14.447   3.988   5.723
17876SOL     OW55466   4.781  14.345   7.607
17876SOL    HW155467   4.742  14.259   7.589
17876SOL    HW255468   4.852  14.353   7.542
17877SOL     OW55469  12.997   7.591   9.483
17877SOL    HW155470  12.996   7.617   9.575
17877SOL    HW255471  13.007   7.496   9.485
17878SOL     OW55472  10.977   2.182  10.154
17878SOL    HW155473  10.969   2.188  10.059
17878SOL    HW255474  10.943   2.265  10.187
17879SOL     OW55475   7.350   3.946   1.060
17879SOL    HW155476   7.420   3.883   1.046
17879SOL    HW255477   7.354   3.967   1.153
17880SOL     OW55478   4.218   6.911   5.067
17880SOL    HW155479   4.194   7.003   5.059
17880SOL    HW255480   4.280   6.909   5.140
17881SOL     OW55481   5.662   2.408   7.569
17881SOL    HW155482   5.738   2.456   7.538
17881SOL    HW255483   5.632   2.358   7.493
17882SOL     OW55484  12.151   8.760   9.397
17882SOL    HW155485  12.229   8.788   9.350
17882SOL    HW255486  12.155   8.664   9.395
17883SOL     OW55487   3.970   9.909   6.175
17883SOL    HW155488   4.009   9.954   6.250
17883SOL    HW255489   3.987   9.967   6.101
17884SOL     OW55490   9.846  13.035   1.416
17884SOL    HW155491   9.753  13.053   1.431
17884SOL    HW255492   9.886  13.122   1.408
17885SOL     OW55493   7.075  13.384   2.783
17885SOL    HW155494   7.106  13.432   2.706
17885SOL    HW255495   7.034  13.450   2.838
17886SOL     OW55496   1.300   6.771  13.405
17886SOL    HW155497   1.359   6.840  13.434
17886SOL    HW255498   1.309   6.770  13.310
17887SOL     OW55499   7.236   7.116   5.132
17887SOL    HW155500   7.264   7.162   5.053
17887SOL    HW255501   7.309   7.125   5.192
17888SOL     OW55502  13.658   1.630  10.206
17888SOL    HW155503  13.601   1.707  10.219
17888SOL    HW255504  13.676   1.599  10.295
17889SOL     OW55505   4.069   0.987   8.967
17889SOL    HW155506   4.116   0.996   8.884
17889SOL    HW255507   3.983   0.953   8.943
17890SOL     OW55508   0.476   4.189   5.161
17890SOL    HW155509   0.497   4.283   5.163
17890SOL    HW255510   0.465   4.166   5.254
17891SOL     OW55511   8.069  11.646  13.906
17891SOL    HW155512   8.121  11.661  13.827
17891SOL    HW255513   8.122  11.586  13.959
17892SOL     OW55514  11.975   9.899   9.470
17892SOL    HW155515  11.956   9.904   9.564
17892SOL    HW255516  12.044   9.964   9.456
17893SOL     OW55517   9.289   4.373  11.936
17893SOL    HW155518   9.206   4.370  11.984
17893SOL    HW255519   9.271   4.427  11.859
17894SOL     OW55520   4.960   1.056  12.607
17894SOL    HW155521   4.912   1.084  12.529
17894SOL    HW255522   4.952   1.129  12.668
17895SOL     OW55523   4.220   2.677   2.908
17895SOL    HW155524   4.270   2.608   2.865
17895SOL    HW255525   4.140   2.633   2.938
17896SOL     OW55526   5.791   7.256   6.061
17896SOL    HW155527   5.847   7.308   6.118
17896SOL    HW255528   5.844   7.240   5.983
17897SOL     OW55529  12.323   4.765   7.166
17897SOL    HW155530  12.302   4.674   7.188
17897SOL    HW255531  12.400   4.759   7.110
17898SOL     OW55532  14.312  10.240   7.479
17898SOL    HW155533  14.330  10.146   7.475
17898SOL    HW255534  14.216  10.246   7.474
17899SOL     OW55535   1.654  14.829   9.162
17899SOL    HW155536   1.626   0.027   9.212
17899SOL    HW255537   1.572  14.787   9.136
17900SOL     OW55538  13.578   4.595  10.279
17900SOL    HW155539  13.644   4.534  10.246
17900SOL    HW255540  13.550   4.557  10.363
17901SOL     OW55541  11.682   4.868  11.103
17901SOL    HW155542  11.672   4.909  11.189
17901SOL    HW255543  11.647   4.933  11.042
17902SOL     OW55544   1.068  13.876   6.446
17902SOL    HW155545   0.979  13.844   6.429
17902SOL    HW255546   1.113  13.803   6.487
17903SOL     OW55547   7.557   9.562   3.817
17903SOL    HW155548   7.502   9.573   3.740
17903SOL    HW255549   7.646   9.555   3.781
17904SOL     OW55550   1.838  14.486   5.732
17904SOL    HW155551   1.743  14.496   5.721
17904SOL    HW255552   1.868  14.572   5.762
17905SOL     OW55553   5.538  13.995  10.852
17905SOL    HW155554   5.489  13.927  10.806
17905SOL    HW255555   5.513  13.985  10.944
17906SOL     OW55556   2.764   1.418  12.368
17906SOL    HW155557   2.768   1.501  12.414
17906SOL    HW255558   2.721   1.358  12.429
17907SOL     OW55559   6.101   7.777   7.291
17907SOL    HW155560   6.196   7.785   7.277
17907SOL    HW255561   6.074   7.865   7.317
17908SOL     OW55562   6.057  14.272   3.415
17908SOL    HW155563   6.142  14.309   3.391
17908SOL    HW255564   6.077  14.200   3.474
17909SOL     OW55565   5.670  11.493   6.080
17909SOL    HW155566   5.695  11.428   6.015
17909SOL    HW255567   5.669  11.445   6.163
17910SOL     OW55568   2.720  13.040   4.517
17910SOL    HW155569   2.691  13.120   4.473
17910SOL    HW255570   2.664  12.972   4.482
17911SOL     OW55571  11.316  10.172  11.274
17911SOL    HW155572  11.403  10.208  11.290
17911SOL    HW255573  11.275  10.235  11.215
17912SOL     OW55574   2.295  14.079   2.568
17912SOL    HW155575   2.354  14.005   2.578
17912SOL    HW255576   2.299  14.125   2.652
17913SOL     OW55577   3.627  13.422   3.839
17913SOL    HW155578   3.707  13.377   3.811
17913SOL    HW255579   3.561  13.395   3.776
17914SOL     OW55580   6.915   0.768   7.613
17914SOL    HW155581   6.946   0.852   7.579
17914SOL    HW255582   6.932   0.772   7.707
17915SOL     OW55583   7.535  12.962  11.850
17915SOL    HW155584   7.443  12.986  11.850
17915SOL    HW255585   7.572  13.010  11.776
17916SOL     OW55586   6.082   1.573   2.761
17916SOL    HW155587   6.112   1.514   2.829
17916SOL    HW255588   6.159   1.625   2.739
17917SOL     OW55589  13.178   1.976   6.499
17917SOL    HW155590  13.190   2.028   6.578
17917SOL    HW255591  13.200   1.887   6.526
17918SOL     OW55592   6.166   8.367   6.620
17918SOL    HW155593   6.220   8.382   6.543
17918SOL    HW255594   6.206   8.291   6.664
17919SOL     OW55595  13.387  12.451   7.507
17919SOL    HW155596  13.394  12.458   7.603
17919SOL    HW255597  13.316  12.510   7.483
17920SOL     OW55598   8.076  12.153   3.762
17920SOL    HW155599   7.981  12.149   3.749
17920SOL    HW255600   8.100  12.241   3.734
17921SOL     OW55601   3.170   1.404   7.738
17921SOL    HW155602   3.102   1.449   7.689
17921SOL    HW255603   3.247   1.461   7.730
17922SOL     OW55604   1.403   6.520   9.441
17922SOL    HW155605   1.496   6.498   9.452
17922SOL    HW255606   1.363   6.492   9.523
17923SOL     OW55607   2.197   9.082  11.470
17923SOL    HW155608   2.267   9.051  11.527
17923SOL    HW255609   2.218   9.046  11.384
17924SOL     OW55610   9.582   1.909   6.912
17924SOL    HW155611   9.624   1.974   6.968
17924SOL    HW255612   9.577   1.950   6.826
17925SOL     OW55613   6.669  13.358  10.141
17925SOL    HW155614   6.658  13.263  10.147
17925SOL    HW255615   6.601  13.386  10.080
17926SOL     OW55616   8.043   9.308   8.528
17926SOL    HW155617   8.045   9.356   8.445
17926SOL    HW255618   7.969   9.247   8.519
17927SOL     OW55619   4.813   9.722   8.171
17927SOL    HW155620   4.753   9.669   8.224
17927SOL    HW255621   4.812   9.681   8.085
17928SOL     OW55622   6.721   6.920   8.875
17928SOL    HW155623   6.808   6.940   8.841
17928SOL    HW255624   6.714   6.825   8.867
17929SOL     OW55625   5.294  12.424  14.527
17929SOL    HW155626   5.291  12.396  14.436
17929SOL    HW255627   5.343  12.507  14.524
17930SOL     OW55628  12.522   1.088   3.238
17930SOL    HW155629  12.508   1.064   3.330
17930SOL    HW255630  12.497   1.010   3.189
17931SOL     OW55631   9.907   0.797  10.182
17931SOL    HW155632   9.843   0.760  10.122
17931SOL    HW255633   9.936   0.723  10.236
17932SOL     OW55634  14.550   0.150   8.834
17932SOL    HW155635  14.552   0.231   8.783
17932SOL    HW255636  14.467   0.153   8.881
17933SOL     OW55637   1.036  14.045   5.281
17933SOL    HW155638   1.130  14.055   5.267
17933SOL    HW255639   1.015  14.110   5.348
17934SOL     OW55640   8.015   9.149   2.844
17934SOL    HW155641   8.029   9.087   2.773
17934SOL    HW255642   8.029   9.098   2.924
17935SOL     OW55643   5.373  14.277  11.083
17935SOL    HW155644   5.333  14.363  11.092
17935SOL    HW255645   5.467  14.293  11.093
17936SOL     OW55646   7.297   5.388   2.350
17936SOL    HW155647   7.267   5.444   2.422
17936SOL    HW255648   7.369   5.337   2.387
17937SOL     OW55649  11.358  14.734   3.284
17937SOL    HW155650  11.435  14.680   3.299
17937SOL    HW255651  11.391  14.809   3.235
17938SOL     OW55652   1.548   6.681   9.222
17938SOL    HW155653   1.502   6.757   9.187
17938SOL    HW255654   1.480   6.628   9.263
17939SOL     OW55655   5.191   9.895  13.864
17939SOL    HW155656   5.161   9.934  13.946
17939SOL    HW255657   5.164   9.957  13.796
17940SOL     OW55658  11.661   6.452   0.278
17940SOL    HW155659  11.615   6.437   0.361
17940SOL    HW255660  11.749   6.479   0.304
17941SOL     OW55661  12.647  13.704  10.316
17941SOL    HW155662  12.657  13.799  10.317
17941SOL    HW255663  12.693  13.676  10.237
17942SOL     OW55664  12.523   3.029  12.276
17942SOL    HW155665  12.526   3.037  12.371
17942SOL    HW255666  12.451   3.086  12.249
17943SOL     OW55667   8.885  13.225   0.788
17943SOL    HW155668   8.807  13.279   0.801
17943SOL    HW255669   8.908  13.237   0.696
17944SOL     OW55670   9.275  13.350   7.394
17944SOL    HW155671   9.211  13.405   7.349
17944SOL    HW255672   9.334  13.411   7.438
17945SOL     OW55673   9.759   8.292   4.542
17945SOL    HW155674   9.664   8.293   4.526
17945SOL    HW255675   9.784   8.384   4.535
17946SOL     OW55676   8.969  12.939   7.118
17946SOL    HW155677   8.997  12.849   7.136
17946SOL    HW255678   9.035  12.973   7.059
17947SOL     OW55679   4.765   3.721  12.028
17947SOL    HW155680   4.775   3.813  12.051
17947SOL    HW255681   4.687   3.692  12.075
17948SOL     OW55682   9.725  11.800   0.672
17948SOL    HW155683   9.778  11.785   0.750
17948SOL    HW255684   9.783  11.848   0.613
17949SOL     OW55685   4.018   6.735   4.352
17949SOL    HW155686   4.056   6.822   4.336
17949SOL    HW255687   3.963   6.747   4.430
17950SOL     OW55688   7.618   0.173   7.597
17950SOL    HW155689   7.630   0.260   7.558
17950SOL    HW255690   7.528   0.149   7.577
17951SOL     OW55691   6.540  14.339   5.579
17951SOL    HW155692   6.515  14.390   5.502
17951SOL    HW255693   6.603  14.274   5.546
17952SOL     OW55694  11.563   0.900   0.521
17952SOL    HW155695  11.597   0.980   0.561
17952SOL    HW255696  11.639   0.859   0.481
17953SOL     OW55697   6.689   4.366   3.933
17953SOL    HW155698   6.625   4.383   3.864
17953SOL    HW255699   6.772   4.357   3.887
17954SOL     OW55700   6.027   7.490   2.264
17954SOL    HW155701   6.042   7.576   2.306
17954SOL    HW255702   5.969   7.509   2.191
17955SOL     OW55703   7.552   1.366  14.770
17955SOL    HW155704   7.595   1.314  14.839
17955SOL    HW255705   7.506   1.301  14.717
17956SOL     OW55706  10.748   5.055   5.788
17956SOL    HW155707  10.810   4.983   5.789
17956SOL    HW255708  10.759   5.095   5.701
17957SOL     OW55709   2.696  13.171   4.932
17957SOL    HW155710   2.608  13.207   4.944
17957SOL    HW255711   2.684  13.100   4.869
17958SOL     OW55712  13.642   2.538  14.066
17958SOL    HW155713  13.636   2.511  14.158
17958SOL    HW255714  13.623   2.632  14.068
17959SOL     OW55715  10.600   4.369   6.592
17959SOL    HW155716  10.627   4.360   6.501
17959SOL    HW255717  10.587   4.463   6.604
17960SOL     OW55718   1.302   1.573  10.147
17960SOL    HW155719   1.318   1.571  10.053
17960SOL    HW255720   1.348   1.651  10.178
17961SOL     OW55721   8.652   0.393  14.647
17961SOL    HW155722   8.558   0.380  14.657
17961SOL    HW255723   8.691   0.309  14.672
17962SOL     OW55724  14.148   9.409   0.241
17962SOL    HW155725  14.095   9.406   0.161
17962SOL    HW255726  14.212   9.338   0.230
17963SOL     OW55727  10.156   3.950   1.422
17963SOL    HW155728  10.186   3.984   1.507
17963SOL    HW255729  10.084   3.891   1.445
17964SOL     OW55730   6.492   7.350   2.166
17964SOL    HW155731   6.515   7.351   2.073
17964SOL    HW255732   6.557   7.293   2.207
17965SOL     OW55733   4.495   6.441  13.016
17965SOL    HW155734   4.544   6.363  13.042
17965SOL    HW255735   4.518   6.506  13.082
17966SOL     OW55736   4.962   1.500   0.582
17966SOL    HW155737   4.900   1.427   0.579
17966SOL    HW255738   5.033   1.470   0.639
17967SOL     OW55739   7.856   0.208  12.809
17967SOL    HW155740   7.839   0.183  12.718
17967SOL    HW255741   7.924   0.275  12.803
17968SOL     OW55742   9.187   0.119  12.228
17968SOL    HW155743   9.264   0.167  12.258
17968SOL    HW255744   9.205   0.101  12.136
17969SOL     OW55745   0.337  11.737  12.879
17969SOL    HW155746   0.414  11.682  12.893
17969SOL    HW255747   0.339  11.800  12.951
17970SOL     OW55748   6.544   9.552  13.342
17970SOL    HW155749   6.553   9.555  13.437
17970SOL    HW255750   6.476   9.485  13.328
17971SOL     OW55751   0.467  12.013  11.107
17971SOL    HW155752   0.439  12.015  11.199
17971SOL    HW255753   0.547  12.065  11.106
17972SOL     OW55754   7.113   1.494   7.949
17972SOL    HW155755   7.103   1.492   7.854
17972SOL    HW255756   7.114   1.587   7.971
17973SOL     OW55757  12.494  11.753  14.517
17973SOL    HW155758  12.535  11.766  14.602
17973SOL    HW255759  12.472  11.841  14.486
17974SOL     OW55760  13.681   6.375  10.952
17974SOL    HW155761  13.704   6.436  10.881
17974SOL    HW255762  13.661   6.293  10.907
17975SOL     OW55763   6.646  13.490  14.167
17975SOL    HW155764   6.739  13.510  14.153
17975SOL    HW255765   6.600  13.571  14.144
17976SOL     OW55766  10.955   7.777   0.767
17976SOL    HW155767  10.915   7.705   0.814
17976SOL    HW255768  11.023   7.736   0.713
17977SOL     OW55769  14.376   8.019  12.473
17977SOL    HW155770  14.400   8.087  12.409
17977SOL    HW255771  14.360   7.941  12.421
17978SOL     OW55772   3.494   6.643   8.904
17978SOL    HW155773   3.452   6.677   8.983
17978SOL    HW255774   3.584   6.624   8.931
17979SOL     OW55775   0.897  11.944   9.741
17979SOL    HW155776   0.809  11.954   9.778
17979SOL    HW255777   0.936  12.031   9.747
17980SOL     OW55778   7.810   5.404   6.369
17980SOL    HW155779   7.901   5.418   6.341
17980SOL    HW255780   7.818   5.366   6.457
17981SOL     OW55781   9.761   6.479   8.763
17981SOL    HW155782   9.825   6.502   8.695
17981SOL    HW255783   9.677   6.499   8.723
17982SOL     OW55784  10.768   2.055   2.051
17982SOL    HW155785  10.798   1.977   2.005
17982SOL    HW255786  10.743   2.024   2.138
17983SOL     OW55787  11.646  13.882   6.432
17983SOL    HW155788  11.651  13.836   6.348
17983SOL    HW255789  11.552  13.897   6.445
17984SOL     OW55790   4.789   4.640   9.959
17984SOL    HW155791   4.741   4.601  10.032
17984SOL    HW255792   4.765   4.587   9.883
17985SOL     OW55793   8.395   5.797   7.488
17985SOL    HW155794   8.434   5.767   7.406
17985SOL    HW255795   8.464   5.846   7.532
17986SOL     OW55796   3.363  12.663   0.941
17986SOL    HW155797   3.326  12.749   0.924
17986SOL    HW255798   3.379  12.626   0.855
17987SOL     OW55799  14.209   0.878   3.906
17987SOL    HW155800  14.188   0.884   3.813
17987SOL    HW255801  14.279   0.942   3.919
17988SOL     OW55802  12.569  14.385  12.392
17988SOL    HW155803  12.622  14.450  12.345
17988SOL    HW255804  12.550  14.427  12.476
17989SOL     OW55805   3.694  13.758  14.170
17989SOL    HW155806   3.610  13.804  14.174
17989SOL    HW255807   3.756  13.817  14.213
17990SOL     OW55808   5.369  12.163   0.283
17990SOL    HW155809   5.324  12.200   0.206
17990SOL    HW255810   5.317  12.193   0.358
17991SOL     OW55811   5.727   5.089   4.334
17991SOL    HW155812   5.637   5.071   4.306
17991SOL    HW255813   5.741   5.182   4.313
17992SOL     OW55814   6.172   2.492  13.707
17992SOL    HW155815   6.227   2.523  13.635
17992SOL    HW255816   6.199   2.544  13.782
17993SOL     OW55817   1.854   4.409   7.079
17993SOL    HW155818   1.929   4.468   7.086
17993SOL    HW255819   1.787   4.461   7.035
17994SOL     OW55820  14.092  12.216  13.419
17994SOL    HW155821  14.015  12.185  13.370
17994SOL    HW255822  14.072  12.194  13.510
17995SOL     OW55823   7.550   7.078  13.986
17995SOL    HW155824   7.547   7.039  13.898
17995SOL    HW255825   7.618   7.145  13.980
17996SOL     OW55826   0.830  10.615   9.869
17996SOL    HW155827   0.818  10.670   9.791
17996SOL    HW255828   0.854  10.529   9.834
17997SOL     OW55829   5.681  10.579   7.523
17997SOL    HW155830   5.676  10.664   7.480
17997SOL    HW255831   5.772  10.551   7.511
17998SOL     OW55832   3.077  10.817  12.428
17998SOL    HW155833   3.035  10.861  12.501
17998SOL    HW255834   3.057  10.872  12.352
17999SOL     OW55835  13.586  14.450  13.187
17999SOL    HW155836  13.493  14.429  13.175
17999SOL    HW255837  13.615  14.479  13.100
18000SOL     OW55838  11.494  13.244  10.917
18000SOL    HW155839  11.582  13.226  10.952
18000SOL    HW255840  11.454  13.158  10.908
18001SOL     OW55841   3.774   3.922   4.926
18001SOL    HW155842   3.717   3.991   4.958
18001SOL    HW255843   3.731   3.841   4.951
18002SOL     OW55844  13.629  11.819   9.148
18002SOL    HW155845  13.551  11.874   9.153
18002SOL    HW255846  13.619  11.757   9.221
18003SOL     OW55847   1.985   5.359   3.538
18003SOL    HW155848   1.908   5.360   3.481
18003SOL    HW255849   1.985   5.445   3.579
18004SOL     OW55850   7.227  13.264   7.075
18004SOL    HW155851   7.193  13.336   7.022
18004SOL    HW255852   7.158  13.246   7.138
18005SOL     OW55853   9.885   0.607   6.412
18005SOL    HW155854   9.946   0.536   6.395
18005SOL    HW255855   9.939   0.686   6.414
18006SOL     OW55856   5.907   4.917   0.444
18006SOL    HW155857   5.907   4.833   0.397
18006SOL    HW255858   5.912   4.893   0.536
18007SOL     OW55859   2.563  11.205   3.963
18007SOL    HW155860   2.599  11.209   4.052
18007SOL    HW255861   2.472  11.233   3.973
18008SOL     OW55862  12.145   5.490  13.393
18008SOL    HW155863  12.188   5.575  13.400
18008SOL    HW255864  12.210   5.434  13.350
18009SOL     OW55865  14.492  14.495   8.737
18009SOL    HW155866  14.476  14.402   8.754
18009SOL    HW255867  14.474  14.537   8.821
18010SOL     OW55868   1.193   6.133   3.094
18010SOL    HW155869   1.122   6.165   3.149
18010SOL    HW255870   1.245   6.077   3.152
18011SOL     OW55871   1.709   2.657   7.150
18011SOL    HW155872   1.761   2.577   7.159
18011SOL    HW255873   1.749   2.702   7.075
18012SOL     OW55874  11.311  10.403   2.082
18012SOL    HW155875  11.374  10.426   2.015
18012SOL    HW255876  11.226  10.425   2.044
18013SOL     OW55877   6.143  13.057  13.014
18013SOL    HW155878   6.220  13.015  12.977
18013SOL    HW255879   6.144  13.031  13.106
18014SOL     OW55880   2.688   8.669   4.369
18014SOL    HW155881   2.595   8.682   4.383
18014SOL    HW255882   2.728   8.684   4.455
18015SOL     OW55883   5.301  12.796  14.330
18015SOL    HW155884   5.349  12.822  14.251
18015SOL    HW255885   5.365  12.746  14.381
18016SOL     OW55886  13.133   6.467  13.510
18016SOL    HW155887  13.090   6.533  13.564
18016SOL    HW255888  13.080   6.462  13.431
18017SOL     OW55889   3.365   9.006  14.284
18017SOL    HW155890   3.398   9.095  14.274
18017SOL    HW255891   3.279   9.017  14.324
18018SOL     OW55892   6.598  10.115   0.976
18018SOL    HW155893   6.660  10.105   0.903
18018SOL    HW255894   6.536  10.043   0.965
18019SOL     OW55895   2.850  14.365  14.662
18019SOL    HW155896   2.884  14.352  14.750
18019SOL    HW255897   2.843  14.277  14.625
18020SOL     OW55898   6.289   7.593   9.619
18020SOL    HW155899   6.359   7.576   9.683
18020SOL    HW255900   6.208   7.570   9.665
18021SOL     OW55901  10.239   2.361   5.612
18021SOL    HW155902  10.144   2.362   5.602
18021SOL    HW255903  10.259   2.443   5.657
18022SOL     OW55904   3.056   7.751   3.967
18022SOL    HW155905   3.055   7.673   4.022
18022SOL    HW255906   3.130   7.802   3.999
18023SOL     OW55907  11.370  14.833   6.787
18023SOL    HW155908  11.279  14.850   6.808
18023SOL    HW255909  11.418  14.852   6.868
18024SOL     OW55910   6.120  13.050   3.780
18024SOL    HW155911   6.049  13.075   3.721
18024SOL    HW255912   6.193  13.107   3.755
18025SOL     OW55913   3.831  14.283   1.583
18025SOL    HW155914   3.856  14.296   1.492
18025SOL    HW255915   3.795  14.194   1.586
18026SOL     OW55916   6.281   5.943  11.884
18026SOL    HW155917   6.327   5.934  11.967
18026SOL    HW255918   6.343   5.913  11.818
18027SOL     OW55919  14.564   7.974   4.406
18027SOL    HW155920  14.639   7.988   4.464
18027SOL    HW255921  14.538   7.884   4.422
18028SOL     OW55922   5.693  11.082   3.204
18028SOL    HW155923   5.653  11.058   3.288
18028SOL    HW255924   5.762  11.017   3.192
18029SOL     OW55925   1.999  12.437   8.998
18029SOL    HW155926   1.988  12.528   8.969
18029SOL    HW255927   1.981  12.439   9.092
18030SOL     OW55928   0.219  14.752   4.308
18030SOL    HW155929   0.175  14.667   4.314
18030SOL    HW255930   0.312  14.732   4.312
18031SOL     OW55931  10.690   8.176   3.179
18031SOL    HW155932  10.595   8.169   3.165
18031SOL    HW255933  10.717   8.247   3.119
18032SOL     OW55934   0.801  14.400   5.075
18032SOL    HW155935   0.713  14.425   5.047
18032SOL    HW255936   0.847  14.377   4.993
18033SOL     OW55937  13.035  12.821  11.135
18033SOL    HW155938  13.122  12.856  11.154
18033SOL    HW255939  12.992  12.891  11.086
18034SOL     OW55940   2.691  10.350  13.014
18034SOL    HW155941   2.746  10.353  13.093
18034SOL    HW255942   2.671  10.257  13.003
18035SOL     OW55943   2.030   6.715   5.297
18035SOL    HW155944   2.051   6.701   5.389
18035SOL    HW255945   2.046   6.809   5.282
18036SOL     OW55946   2.324   0.072   4.754
18036SOL    HW155947   2.263   0.125   4.806
18036SOL    HW255948   2.268   0.013   4.703
18037SOL     OW55949   7.186   1.104  12.131
18037SOL    HW155950   7.105   1.052  12.128
18037SOL    HW255951   7.162   1.189  12.094
18038SOL     OW55952   0.837  11.087   1.803
18038SOL    HW155953   0.876  11.095   1.890
18038SOL    HW255954   0.776  11.014   1.810
18039SOL     OW55955  13.508   0.104  10.194
18039SOL    HW155956  13.567   0.163  10.242
18039SOL    HW255957  13.471   0.047  10.262
18040SOL     OW55958   4.615   5.320  13.198
18040SOL    HW155959   4.596   5.367  13.117
18040SOL    HW255960   4.703   5.351  13.222
18041SOL     OW55961   9.874   1.864  10.306
18041SOL    HW155962   9.859   1.888  10.215
18041SOL    HW255963   9.932   1.933  10.340
18042SOL     OW55964   5.677  12.161   4.302
18042SOL    HW155965   5.644  12.215   4.374
18042SOL    HW255966   5.608  12.166   4.236
18043SOL     OW55967   5.929  14.522  14.379
18043SOL    HW155968   6.006  14.495  14.329
18043SOL    HW255969   5.964  14.554  14.462
18044SOL     OW55970  14.636   7.114   7.346
18044SOL    HW155971  14.695   7.067   7.287
18044SOL    HW255972  14.660   7.206   7.335
18045SOL     OW55973  11.194   8.505  13.127
18045SOL    HW155974  11.194   8.422  13.174
18045SOL    HW255975  11.112   8.548  13.154
18046SOL     OW55976   9.013   6.047   9.849
18046SOL    HW155977   9.046   6.016   9.933
18046SOL    HW255978   9.059   5.994   9.784
18047SOL     OW55979   4.620   6.473   6.915
18047SOL    HW155980   4.680   6.546   6.900
18047SOL    HW255981   4.551   6.484   6.850
18048SOL     OW55982  12.047   4.907   7.076
18048SOL    HW155983  12.038   4.947   6.989
18048SOL    HW255984  12.115   4.841   7.064
18049SOL     OW55985  14.676   6.705   0.788
18049SOL    HW155986  14.727   6.625   0.776
18049SOL    HW255987  14.585   6.677   0.778
18050SOL     OW55988  12.390  13.988   2.242
18050SOL    HW155989  12.447  14.043   2.295
18050SOL    HW255990  12.355  14.046   2.175
18051SOL     OW55991   9.832   6.354   1.616
18051SOL    HW155992   9.914   6.403   1.623
18051SOL    HW255993   9.782   6.402   1.550
18052SOL     OW55994   3.514   1.545  11.250
18052SOL    HW155995   3.510   1.632  11.289
18052SOL    HW255996   3.429   1.505  11.271
18053SOL     OW55997   8.803   0.134  14.263
18053SOL    HW155998   8.892   0.111  14.292
18053SOL    HW255999   8.796   0.227  14.282
18054SOL     OW56000  14.141   3.232  10.742
18054SOL    HW156001  14.102   3.231  10.829
18054SOL    HW256002  14.159   3.324  10.725
18055SOL     OW56003  10.952   5.901   4.998
18055SOL    HW156004  10.960   5.807   4.982
18055SOL    HW256005  11.043   5.931   5.006
18056SOL     OW56006   8.191  13.900  10.945
18056SOL    HW156007   8.276  13.928  10.911
18056SOL    HW256008   8.141  13.981  10.951
18057SOL     OW56009   5.303  11.239   2.147
18057SOL    HW156010   5.290  11.148   2.121
18057SOL    HW256011   5.391  11.241   2.185
18058SOL     OW56012   5.855   5.710   8.853
18058SOL    HW156013   5.892   5.709   8.765
18058SOL    HW256014   5.773   5.760   8.844
18059SOL     OW56015   8.621  12.064   0.764
18059SOL    HW156016   8.675  12.132   0.722
18059SOL    HW256017   8.656  11.982   0.730
18060SOL     OW56018   8.848   9.428   3.187
18060SOL    HW156019   8.852   9.371   3.111
18060SOL    HW256020   8.769   9.400   3.234
18061SOL     OW56021  10.237   9.927   7.227
18061SOL    HW156022  10.256   9.845   7.274
18061SOL    HW256023  10.315   9.941   7.172
18062SOL     OW56024   1.393   9.794   3.320
18062SOL    HW156025   1.468   9.851   3.340
18062SOL    HW256026   1.382   9.742   3.399
18063SOL     OW56027  10.229   2.783   2.710
18063SOL    HW156028  10.226   2.802   2.804
18063SOL    HW256029  10.192   2.861   2.669
18064SOL     OW56030   7.171   1.411   5.635
18064SOL    HW156031   7.155   1.444   5.723
18064SOL    HW256032   7.180   1.489   5.581
18065SOL     OW56033   1.343   9.566   3.551
18065SOL    HW156034   1.331   9.481   3.510
18065SOL    HW256035   1.429   9.562   3.592
18066SOL     OW56036  14.163   5.773   9.257
18066SOL    HW156037  14.217   5.746   9.183
18066SOL    HW256038  14.181   5.708   9.325
18067SOL     OW56039  13.437   3.946   7.883
18067SOL    HW156040  13.482   4.015   7.834
18067SOL    HW256041  13.345   3.956   7.859
18068SOL     OW56042   5.673   8.870   0.228
18068SOL    HW156043   5.755   8.870   0.278
18068SOL    HW256044   5.698   8.836   0.142
18069SOL     OW56045   3.485   0.872   1.201
18069SOL    HW156046   3.535   0.945   1.165
18069SOL    HW256047   3.477   0.810   1.128
18070SOL     OW56048   5.040   4.451  10.662
18070SOL    HW156049   5.043   4.547  10.672
18070SOL    HW256050   5.131   4.423  10.676
18071SOL     OW56051   1.641   0.178  11.445
18071SOL    HW156052   1.574   0.122  11.405
18071SOL    HW256053   1.689   0.214  11.371
18072SOL     OW56054   1.967   9.137  14.308
18072SOL    HW156055   1.931   9.222  14.335
18072SOL    HW256056   1.970   9.143  14.212
18073SOL     OW56057   9.531   2.290   9.952
18073SOL    HW156058   9.531   2.212  10.008
18073SOL    HW256059   9.592   2.350   9.994
18074SOL     OW56060   4.938  10.205   9.744
18074SOL    HW156061   5.026  10.170   9.727
18074SOL    HW256062   4.954  10.289   9.786
18075SOL     OW56063   1.833  14.313   9.077
18075SOL    HW156064   1.836  14.382   9.011
18075SOL    HW256065   1.888  14.346   9.149
18076SOL     OW56066   0.253   4.074  11.857
18076SOL    HW156067   0.334   4.120  11.879
18076SOL    HW256068   0.200   4.080  11.937
18077SOL     OW56069   8.822   5.714   1.414
18077SOL    HW156070   8.869   5.640   1.454
18077SOL    HW256071   8.884   5.750   1.351
18078SOL     OW56072   6.610   4.917   8.012
18078SOL    HW156073   6.557   4.993   8.035
18078SOL    HW256074   6.553   4.864   7.957
18079SOL     OW56075   4.605  11.553   1.395
18079SOL    HW156076   4.536  11.496   1.429
18079SOL    HW256077   4.618  11.525   1.304
18080SOL     OW56078   5.605   6.376  13.239
18080SOL    HW156079   5.623   6.452  13.295
18080SOL    HW256080   5.521   6.342  13.272
18081SOL     OW56081   9.586  14.810  10.683
18081SOL    HW156082   9.499  14.816  10.722
18081SOL    HW256083   9.581  14.864  10.605
18082SOL     OW56084  10.849  10.447  14.139
18082SOL    HW156085  10.933  10.490  14.156
18082SOL    HW256086  10.854  10.421  14.047
18083SOL     OW56087   4.053  14.090   7.055
18083SOL    HW156088   3.972  14.062   7.012
18083SOL    HW256089   4.062  14.032   7.130
18084SOL     OW56090  13.321   5.900   1.408
18084SOL    HW156091  13.387   5.832   1.409
18084SOL    HW256092  13.333   5.947   1.490
18085SOL     OW56093  13.564   8.856   3.604
18085SOL    HW156094  13.643   8.802   3.593
18085SOL    HW256095  13.597   8.937   3.643
18086SOL     OW56096   2.142   8.509   5.213
18086SOL    HW156097   2.119   8.530   5.122
18086SOL    HW256098   2.060   8.478   5.252
18087SOL     OW56099   3.736   8.660   7.810
18087SOL    HW156100   3.829   8.683   7.803
18087SOL    HW256101   3.734   8.565   7.802
18088SOL     OW56102  13.425  10.271   4.036
18088SOL    HW156103  13.398  10.248   3.947
18088SOL    HW256104  13.464  10.358   4.028
18089SOL     OW56105   5.770  10.615   7.866
18089SOL    HW156106   5.844  10.650   7.816
18089SOL    HW256107   5.701  10.680   7.855
18090SOL     OW56108  14.784   2.681  10.572
18090SOL    HW156109  14.755   2.656  10.484
18090SOL    HW256110  14.879   2.672  10.570
18091SOL     OW56111  12.810  10.465  10.497
18091SOL    HW156112  12.733  10.497  10.544
18091SOL    HW256113  12.849  10.400  10.555
18092SOL     OW56114   2.703   7.712  11.997
18092SOL    HW156115   2.696   7.749  11.908
18092SOL    HW256116   2.688   7.618  11.985
18093SOL     OW56117  14.727   3.193   0.158
18093SOL    HW156118  14.659   3.167   0.219
18093SOL    HW256119  14.789   3.119   0.158
18094SOL     OW56120  12.965   1.668   6.604
18094SOL    HW156121  12.898   1.616   6.558
18094SOL    HW256122  12.931   1.678   6.692
18095SOL     OW56123   0.602   3.834   6.512
18095SOL    HW156124   0.517   3.808   6.476
18095SOL    HW256125   0.619   3.770   6.582
18096SOL     OW56126  13.260   9.287   2.698
18096SOL    HW156127  13.190   9.353   2.698
18096SOL    HW256128  13.310   9.307   2.619
18097SOL     OW56129  12.285   9.846   3.413
18097SOL    HW156130  12.330   9.929   3.424
18097SOL    HW256131  12.276   9.812   3.503
18098SOL     OW56132   1.696   1.302  13.463
18098SOL    HW156133   1.683   1.263  13.376
18098SOL    HW256134   1.631   1.371  13.469
18099SOL     OW56135  14.492   9.210   3.119
18099SOL    HW156136  14.502   9.298   3.083
18099SOL    HW256137  14.556   9.156   3.072
18100SOL     OW56138   3.649  14.219   0.901
18100SOL    HW156139   3.564  14.262   0.909
18100SOL    HW256140   3.711  14.291   0.885
18101SOL     OW56141   3.721  12.244  14.612
18101SOL    HW156142   3.676  12.250  14.528
18101SOL    HW256143   3.795  12.304  14.604
18102SOL     OW56144  11.433   2.293   4.332
18102SOL    HW156145  11.524   2.291   4.361
18102SOL    HW256146  11.426   2.375   4.283
18103SOL     OW56147   6.890  12.394  14.372
18103SOL    HW156148   6.835  12.329  14.415
18103SOL    HW256149   6.980  12.366  14.390
18104SOL     OW56150   4.461   5.974   9.434
18104SOL    HW156151   4.542   5.934   9.404
18104SOL    HW256152   4.436   6.034   9.364
18105SOL     OW56153  14.180   5.791  13.556
18105SOL    HW156154  14.218   5.840  13.483
18105SOL    HW256155  14.171   5.856  13.626
18106SOL     OW56156  11.230  13.754   5.140
18106SOL    HW156157  11.305  13.769   5.082
18106SOL    HW256158  11.162  13.813   5.107
18107SOL     OW56159   3.655  14.694   4.172
18107SOL    HW156160   3.725  14.746   4.212
18107SOL    HW256161   3.696  14.653   4.096
18108SOL     OW56162   2.135   7.759  10.893
18108SOL    HW156163   2.111   7.717  10.811
18108SOL    HW256164   2.100   7.701  10.961
18109SOL     OW56165  13.955  14.358   5.044
18109SOL    HW156166  13.897  14.285   5.018
18109SOL    HW256167  14.041  14.318   5.054
18110SOL     OW56168   4.378  13.897  12.580
18110SOL    HW156169   4.348  13.908  12.671
18110SOL    HW256170   4.439  13.969  12.567
18111SOL     OW56171   0.215   9.926   8.105
18111SOL    HW156172   0.234  10.003   8.158
18111SOL    HW256173   0.285   9.864   8.126
18112SOL     OW56174   5.939  12.231   6.654
18112SOL    HW156175   5.966  12.320   6.630
18112SOL    HW256176   5.983  12.175   6.589
18113SOL     OW56177  11.797  13.083   7.726
18113SOL    HW156178  11.720  13.056   7.776
18113SOL    HW256179  11.859  13.113   7.792
18114SOL     OW56180   8.255  10.720  11.984
18114SOL    HW156181   8.186  10.757  11.928
18114SOL    HW256182   8.334  10.767  11.959
18115SOL     OW56183  11.396  11.626  12.270
18115SOL    HW156184  11.468  11.596  12.324
18115SOL    HW256185  11.377  11.714  12.303
18116SOL     OW56186   9.901   6.712   1.857
18116SOL    HW156187   9.921   6.804   1.839
18116SOL    HW256188   9.806   6.706   1.848
18117SOL     OW56189   6.183   0.448   0.031
18117SOL    HW156190   6.239   0.370   0.035
18117SOL    HW256191   6.094   0.413   0.023
18118SOL     OW56192  14.717   4.564  14.466
18118SOL    HW156193  14.660   4.632  14.429
18118SOL    HW256194  14.665   4.483  14.459
18119SOL     OW56195  11.867   5.277   8.597
18119SOL    HW156196  11.843   5.365   8.568
18119SOL    HW256197  11.838   5.219   8.527
18120SOL     OW56198   4.699  14.780   1.131
18120SOL    HW156199   4.670  14.809   1.218
18120SOL    HW256200   4.642  14.706   1.110
18121SOL     OW56201   3.213   8.546   3.907
18121SOL    HW156202   3.290   8.506   3.867
18121SOL    HW256203   3.174   8.475   3.959
18122SOL     OW56204   2.863   3.850  10.774
18122SOL    HW156205   2.802   3.861  10.701
18122SOL    HW256206   2.934   3.911  10.755
18123SOL     OW56207   7.235   1.104  13.988
18123SOL    HW156208   7.217   1.179  14.044
18123SOL    HW256209   7.164   1.105  13.923
18124SOL     OW56210  12.998   0.442   3.268
18124SOL    HW156211  12.943   0.473   3.196
18124SOL    HW256212  12.965   0.487   3.345
18125SOL     OW56213   7.765   8.792  14.261
18125SOL    HW156214   7.713   8.809  14.183
18125SOL    HW256215   7.831   8.729  14.232
18126SOL     OW56216  13.816   1.504   5.793
18126SOL    HW156217  13.867   1.469   5.720
18126SOL    HW256218  13.799   1.428   5.849
18127SOL     OW56219   5.133  14.674   2.476
18127SOL    HW156220   5.174  14.747   2.430
18127SOL    HW256221   5.058  14.650   2.422
18128SOL     OW56222  10.921   5.712  11.827
18128SOL    HW156223  10.841   5.745  11.867
18128SOL    HW256224  10.929   5.622  11.859
18129SOL     OW56225   1.895   4.165   8.373
18129SOL    HW156226   1.901   4.214   8.455
18129SOL    HW256227   1.929   4.078   8.394
18130SOL     OW56228   3.455  12.671  11.456
18130SOL    HW156229   3.483  12.641  11.369
18130SOL    HW256230   3.360  12.680  11.448
18131SOL     OW56231   6.794   3.813   8.195
18131SOL    HW156232   6.765   3.836   8.283
18131SOL    HW256233   6.770   3.888   8.141
18132SOL     OW56234   5.548   0.429  13.199
18132SOL    HW156235   5.492   0.485  13.254
18132SOL    HW256236   5.602   0.381  13.261
18133SOL     OW56237   8.428   6.626   8.925
18133SOL    HW156238   8.372   6.664   8.994
18133SOL    HW256239   8.510   6.606   8.970
18134SOL     OW56240   4.583  10.818  12.017
18134SOL    HW156241   4.530  10.893  11.992
18134SOL    HW256242   4.523  10.761  12.066
18135SOL     OW56243   4.866   2.536   9.921
18135SOL    HW156244   4.929   2.505   9.856
18135SOL    HW256245   4.829   2.456   9.959
18136SOL     OW56246   7.121   8.864  11.098
18136SOL    HW156247   7.186   8.833  11.035
18136SOL    HW256248   7.043   8.813  11.079
18137SOL     OW56249   6.735   8.460   8.279
18137SOL    HW156250   6.694   8.418   8.355
18137SOL    HW256251   6.828   8.440   8.288
18138SOL     OW56252   0.626   3.869   8.047
18138SOL    HW156253   0.642   3.962   8.037
18138SOL    HW256254   0.696   3.839   8.106
18139SOL     OW56255   9.683   8.338  11.133
18139SOL    HW156256   9.773   8.326  11.163
18139SOL    HW256257   9.689   8.406  11.066
18140SOL     OW56258   2.823   3.907   1.361
18140SOL    HW156259   2.810   4.001   1.369
18140SOL    HW256260   2.804   3.887   1.270
18141SOL     OW56261   0.788   7.849   5.589
18141SOL    HW156262   0.863   7.860   5.648
18141SOL    HW256263   0.810   7.772   5.536
18142SOL     OW56264  12.945   0.512   2.157
18142SOL    HW156265  13.001   0.560   2.097
18142SOL    HW256266  12.866   0.493   2.106
18143SOL     OW56267  10.514   7.364  13.496
18143SOL    HW156268  10.532   7.325  13.410
18143SOL    HW256269  10.528   7.293  13.558
18144SOL     OW56270   7.029   1.197  10.850
18144SOL    HW156271   7.057   1.286  10.867
18144SOL    HW256272   7.095   1.142  10.891
18145SOL     OW56273   2.222   0.126   6.105
18145SOL    HW156274   2.301   0.166   6.142
18145SOL    HW256275   2.206   0.176   6.025
18146SOL     OW56276  12.610  14.853  12.349
18146SOL    HW156277  12.639  14.774  12.394
18146SOL    HW256278  12.691   0.022  12.332
18147SOL     OW56279   3.347  10.436   4.204
18147SOL    HW156280   3.442  10.446   4.210
18147SOL    HW256281   3.332  10.342   4.216
18148SOL     OW56282   1.197   0.465   4.371
18148SOL    HW156283   1.281   0.486   4.413
18148SOL    HW256284   1.205   0.499   4.282
18149SOL     OW56285   4.547  13.942   6.228
18149SOL    HW156286   4.605  13.998   6.280
18149SOL    HW256287   4.479  14.002   6.196
18150SOL     OW56288   3.996   7.306  13.330
18150SOL    HW156289   4.091   7.315  13.336
18150SOL    HW256290   3.982   7.244  13.259
18151SOL     OW56291   4.459   5.206   2.574
18151SOL    HW156292   4.451   5.156   2.655
18151SOL    HW256293   4.479   5.295   2.602
18152SOL     OW56294   3.604   8.845  12.444
18152SOL    HW156295   3.681   8.898  12.425
18152SOL    HW256296   3.590   8.855  12.538
18153SOL     OW56297  10.360   1.163   7.782
18153SOL    HW156298  10.298   1.224   7.741
18153SOL    HW256299  10.305   1.091   7.813
18154SOL     OW56300  11.856   1.995  13.295
18154SOL    HW156301  11.856   2.090  13.284
18154SOL    HW256302  11.947   1.968  13.280
18155SOL     OW56303   0.938   9.016   1.612
18155SOL    HW156304   0.961   9.076   1.683
18155SOL    HW256305   0.940   8.929   1.653
18156SOL     OW56306   5.204  14.275   6.919
18156SOL    HW156307   5.196  14.362   6.880
18156SOL    HW256308   5.241  14.291   7.006
18157SOL     OW56309  10.520   0.652  12.329
18157SOL    HW156310  10.600   0.600  12.344
18157SOL    HW256311  10.472   0.603  12.262
18158SOL     OW56312   6.181   1.810   3.123
18158SOL    HW156313   6.121   1.793   3.195
18158SOL    HW256314   6.175   1.732   3.068
18159SOL     OW56315  10.166   4.277  11.312
18159SOL    HW156316  10.149   4.371  11.305
18159SOL    HW256317  10.210   4.266  11.396
18160SOL     OW56318  12.507  12.240   9.643
18160SOL    HW156319  12.413  12.248   9.658
18160SOL    HW256320  12.515  12.227   9.549
18161SOL     OW56321   6.343   1.938   4.416
18161SOL    HW156322   6.292   1.954   4.495
18161SOL    HW256323   6.349   2.024   4.374
18162SOL     OW56324   2.355   6.383  11.764
18162SOL    HW156325   2.440   6.416  11.794
18162SOL    HW256326   2.372   6.293  11.739
18163SOL     OW56327   8.928   2.267   6.948
18163SOL    HW156328   8.951   2.210   7.022
18163SOL    HW256329   9.003   2.326   6.940
18164SOL     OW56330   6.970   5.255  12.560
18164SOL    HW156331   7.047   5.312  12.555
18164SOL    HW256332   6.953   5.244  12.653
18165SOL     OW56333   4.702  12.761   5.768
18165SOL    HW156334   4.638  12.728   5.705
18165SOL    HW256335   4.668  12.846   5.795
18166SOL     OW56336   4.036   1.664  12.758
18166SOL    HW156337   4.120   1.687  12.720
18166SOL    HW256338   3.974   1.668  12.685
18167SOL     OW56339   4.846   0.512  10.233
18167SOL    HW156340   4.759   0.552  10.233
18167SOL    HW256341   4.844   0.450  10.160
18168SOL     OW56342   2.662   3.671   5.963
18168SOL    HW156343   2.633   3.645   5.876
18168SOL    HW256344   2.588   3.651   6.020
18169SOL     OW56345   2.164  10.617   6.766
18169SOL    HW156346   2.104  10.559   6.812
18169SOL    HW256347   2.108  10.667   6.707
18170SOL     OW56348   4.457   4.509  12.605
18170SOL    HW156349   4.495   4.540  12.687
18170SOL    HW256350   4.471   4.580  12.543
18171SOL     OW56351   3.131   0.373   8.070
18171SOL    HW156352   3.200   0.338   8.125
18171SOL    HW256353   3.176   0.404   7.991
18172SOL     OW56354   9.219   2.679   7.895
18172SOL    HW156355   9.197   2.586   7.901
18172SOL    HW256356   9.149   2.723   7.945
18173SOL     OW56357   2.873   4.104   6.955
18173SOL    HW156358   2.920   4.165   6.898
18173SOL    HW256359   2.798   4.075   6.904
18174SOL     OW56360   1.219   2.605  11.630
18174SOL    HW156361   1.228   2.700  11.638
18174SOL    HW256362   1.126   2.588  11.641
18175SOL     OW56363   6.163   7.171   4.297
18175SOL    HW156364   6.244   7.157   4.247
18175SOL    HW256365   6.188   7.156   4.388
18176SOL     OW56366  12.333  11.152   1.208
18176SOL    HW156367  12.351  11.068   1.250
18176SOL    HW256368  12.417  11.179   1.171
18177SOL     OW56369   6.220   9.851  10.910
18177SOL    HW156370   6.227   9.942  10.937
18177SOL    HW256371   6.142   9.849  10.854
18178SOL     OW56372  12.577   2.620   7.331
18178SOL    HW156373  12.517   2.612   7.257
18178SOL    HW256374  12.632   2.542   7.326
18179SOL     OW56375   9.685   7.467  14.234
18179SOL    HW156376   9.697   7.467  14.329
18179SOL    HW256377   9.763   7.423  14.201
18180SOL     OW56378   4.505   0.839   6.462
18180SOL    HW156379   4.552   0.775   6.516
18180SOL    HW256380   4.422   0.795   6.441
18181SOL     OW56381  11.377   5.449   8.223
18181SOL    HW156382  11.394   5.490   8.138
18181SOL    HW256383  11.414   5.510   8.287
18182SOL     OW56384   3.905   1.240   3.778
18182SOL    HW156385   3.850   1.165   3.801
18182SOL    HW256386   3.846   1.315   3.785
18183SOL     OW56387   2.581   5.608  10.590
18183SOL    HW156388   2.587   5.602  10.686
18183SOL    HW256389   2.510   5.548  10.567
18184SOL     OW56390   0.189  11.607   5.125
18184SOL    HW156391   0.171  11.691   5.083
18184SOL    HW256392   0.242  11.629   5.202
18185SOL     OW56393   0.682  12.705  14.559
18185SOL    HW156394   0.685  12.772  14.627
18185SOL    HW256395   0.589  12.683  14.550
18186SOL     OW56396  11.215   1.661  12.789
18186SOL    HW156397  11.188   1.723  12.857
18186SOL    HW256398  11.157   1.586  12.802
18187SOL     OW56399   0.221  14.013   8.839
18187SOL    HW156400   0.185  14.099   8.861
18187SOL    HW256401   0.315  14.028   8.828
18188SOL     OW56402  10.359   3.859  14.425
18188SOL    HW156403  10.448   3.852  14.390
18188SOL    HW256404  10.366   3.827  14.515
18189SOL     OW56405   3.301   9.831   7.409
18189SOL    HW156406   3.293   9.762   7.475
18189SOL    HW256407   3.225   9.818   7.352
18190SOL     OW56408  10.253  13.416   2.125
18190SOL    HW156409  10.272  13.488   2.065
18190SOL    HW256410  10.194  13.359   2.076
18191SOL     OW56411   2.395   1.654   1.625
18191SOL    HW156412   2.465   1.666   1.688
18191SOL    HW256413   2.440   1.638   1.542
18192SOL     OW56414  10.572   1.749   4.129
18192SOL    HW156415  10.510   1.677   4.141
18192SOL    HW256416  10.657   1.713   4.156
18193SOL     OW56417   7.049   9.094  14.028
18193SOL    HW156418   7.119   9.121  14.088
18193SOL    HW256419   6.976   9.154  14.048
18194SOL     OW56420  10.936   1.595   9.658
18194SOL    HW156421  10.979   1.526   9.710
18194SOL    HW256422  11.004   1.623   9.597
18195SOL     OW56423   7.464  14.732  10.494
18195SOL    HW156424   7.422  14.785  10.427
18195SOL    HW256425   7.535  14.787  10.528
18196SOL     OW56426  11.718   8.259   5.018
18196SOL    HW156427  11.812   8.256   5.031
18196SOL    HW256428  11.682   8.284   5.103
18197SOL     OW56429   1.968   9.732   5.370
18197SOL    HW156430   1.909   9.807   5.366
18197SOL    HW256431   2.041   9.762   5.425
18198SOL     OW56432   1.621   1.188   4.981
18198SOL    HW156433   1.701   1.184   4.928
18198SOL    HW256434   1.560   1.238   4.927
18199SOL     OW56435   2.586  14.759   5.293
18199SOL    HW156436   2.524  14.755   5.366
18199SOL    HW256437   2.655  14.819   5.323
18200SOL     OW56438   3.192   1.351   8.418
18200SOL    HW156439   3.189   1.425   8.478
18200SOL    HW256440   3.160   1.277   8.469
18201SOL     OW56441  10.133  14.103   5.269
18201SOL    HW156442  10.195  14.176   5.274
18201SOL    HW256443  10.185  14.029   5.236
18202SOL     OW56444   2.063   2.098  14.563
18202SOL    HW156445   2.008   2.063  14.633
18202SOL    HW256446   2.148   2.115  14.605
18203SOL     OW56447  10.651   3.149  11.038
18203SOL    HW156448  10.683   3.189  10.957
18203SOL    HW256449  10.570   3.103  11.012
18204SOL     OW56450   8.363   4.596   8.336
18204SOL    HW156451   8.338   4.625   8.424
18204SOL    HW256452   8.310   4.651   8.278
18205SOL     OW56453   1.064   1.605  10.941
18205SOL    HW156454   1.045   1.514  10.966
18205SOL    HW256455   0.994   1.627  10.880
18206SOL     OW56456   3.188  13.942   3.870
18206SOL    HW156457   3.188  14.002   3.797
18206SOL    HW256458   3.098  13.945   3.904
18207SOL     OW56459   5.396   9.043   6.738
18207SOL    HW156460   5.399   9.127   6.694
18207SOL    HW256461   5.488   9.016   6.746
18208SOL     OW56462  14.120  13.457  10.458
18208SOL    HW156463  14.131  13.514  10.382
18208SOL    HW256464  14.033  13.418  10.447
18209SOL     OW56465   1.757  12.207  11.633
18209SOL    HW156466   1.795  12.242  11.714
18209SOL    HW256467   1.666  12.187  11.656
18210SOL     OW56468  14.718   6.996   1.435
18210SOL    HW156469  14.794   6.985   1.492
18210SOL    HW256470  14.653   7.039   1.490
18211SOL     OW56471  11.815  14.528  13.761
18211SOL    HW156472  11.817  14.558  13.670
18211SOL    HW256473  11.783  14.603  13.811
18212SOL     OW56474  14.536   9.237   5.384
18212SOL    HW156475  14.523   9.144   5.365
18212SOL    HW256476  14.531   9.242   5.480
18213SOL     OW56477   8.981   6.448  12.144
18213SOL    HW156478   8.922   6.376  12.166
18213SOL    HW256479   8.924   6.526  12.144
18214SOL     OW56480   3.771   4.577   9.050
18214SOL    HW156481   3.809   4.663   9.066
18214SOL    HW256482   3.763   4.571   8.955
18215SOL     OW56483  13.019   1.044  12.071
18215SOL    HW156484  13.111   1.036  12.093
18215SOL    HW256485  13.018   1.088  11.986
18216SOL     OW56486  14.631  12.278   4.390
18216SOL    HW156487  14.540  12.294   4.364
18216SOL    HW256488  14.680  12.349   4.350
18217SOL     OW56489   1.638   0.772   0.222
18217SOL    HW156490   1.601   0.791   0.136
18217SOL    HW256491   1.651   0.677   0.222
18218SOL     OW56492   3.575   0.832  10.475
18218SOL    HW156493   3.553   0.880  10.555
18218SOL    HW256494   3.523   0.752  10.481
18219SOL     OW56495  14.858   1.626  11.525
18219SOL    HW156496  14.846   1.532  11.515
18219SOL    HW256497  14.771   1.660  11.544
18220SOL     OW56498   8.478   5.635   1.224
18220SOL    HW156499   8.396   5.662   1.182
18220SOL    HW256500   8.545   5.652   1.158
18221SOL     OW56501  13.327   7.996   8.921
18221SOL    HW156502  13.370   8.055   8.859
18221SOL    HW256503  13.234   8.009   8.905
18222SOL     OW56504  12.897   1.123  13.126
18222SOL    HW156505  12.817   1.150  13.081
18222SOL    HW256506  12.944   1.205  13.142
18223SOL     OW56507  11.014   7.031   0.821
18223SOL    HW156508  11.104   7.066   0.825
18223SOL    HW256509  11.024   6.943   0.786
18224SOL     OW56510   6.482   5.691   1.697
18224SOL    HW156511   6.438   5.760   1.647
18224SOL    HW256512   6.468   5.716   1.788
18225SOL     OW56513   7.663  11.542   0.793
18225SOL    HW156514   7.750  11.513   0.819
18225SOL    HW256515   7.658  11.634   0.820
18226SOL     OW56516  12.534  10.406  11.820
18226SOL    HW156517  12.468  10.351  11.779
18226SOL    HW256518  12.613  10.392  11.768
18227SOL     OW56519   0.224   9.898   4.576
18227SOL    HW156520   0.183   9.835   4.517
18227SOL    HW256521   0.317   9.895   4.555
18228SOL     OW56522   2.055  11.012  12.440
18228SOL    HW156523   2.076  10.949  12.371
18228SOL    HW256524   1.984  11.065  12.404
18229SOL     OW56525   0.249  10.680  10.930
18229SOL    HW156526   0.312  10.610  10.914
18229SOL    HW256527   0.216  10.703  10.843
18230SOL     OW56528   1.859  14.472   4.697
18230SOL    HW156529   1.827  14.406   4.636
18230SOL    HW256530   1.811  14.456   4.778
18231SOL     OW56531   6.189   7.040   4.793
18231SOL    HW156532   6.148   7.125   4.806
18231SOL    HW256533   6.173   6.993   4.875
18232SOL     OW56534  10.380  14.819  13.314
18232SOL    HW156535  10.427  14.737  13.332
18232SOL    HW256536  10.365  14.857  13.400
18233SOL     OW56537   9.316   9.354  10.912
18233SOL    HW156538   9.255   9.425  10.936
18233SOL    HW256539   9.327   9.364  10.817
18234SOL     OW56540   9.510   5.708   6.882
18234SOL    HW156541   9.594   5.705   6.928
18234SOL    HW256542   9.518   5.782   6.822
18235SOL     OW56543   0.826   8.506   2.039
18235SOL    HW156544   0.828   8.525   1.945
18235SOL    HW256545   0.909   8.539   2.072
18236SOL     OW56546  14.179   2.469   3.344
18236SOL    HW156547  14.131   2.453   3.262
18236SOL    HW256548  14.111   2.481   3.409
18237SOL     OW56549  11.830  10.322  13.603
18237SOL    HW156550  11.835  10.240  13.553
18237SOL    HW256551  11.895  10.379  13.562
18238SOL     OW56552   1.263   5.386   4.258
18238SOL    HW156553   1.256   5.433   4.175
18238SOL    HW256554   1.303   5.302   4.234
18239SOL     OW56555  12.878   2.176  11.959
18239SOL    HW156556  12.933   2.169  12.037
18239SOL    HW256557  12.832   2.259  11.969
18240SOL     OW56558   1.118   0.673  11.635
18240SOL    HW156559   1.092   0.583  11.617
18240SOL    HW256560   1.113   0.718  11.551
18241SOL     OW56561  13.054  10.053   8.280
18241SOL    HW156562  12.979  10.004   8.244
18241SOL    HW256563  13.016  10.104   8.352
18242SOL     OW56564   1.802   3.191  14.859
18242SOL    HW156565   1.845   3.119   0.026
18242SOL    HW256566   1.844   3.193  14.773
18243SOL     OW56567  13.162   9.795   3.619
18243SOL    HW156568  13.200   9.808   3.706
18243SOL    HW256569  13.187   9.705   3.595
18244SOL     OW56570   8.731   4.527  13.597
18244SOL    HW156571   8.660   4.587  13.620
18244SOL    HW256572   8.776   4.510  13.680
18245SOL     OW56573   2.356   9.538  13.895
18245SOL    HW156574   2.284   9.598  13.874
18245SOL    HW256575   2.408   9.534  13.814
18246SOL     OW56576   5.123   7.534   2.351
18246SOL    HW156577   5.102   7.479   2.276
18246SOL    HW256578   5.044   7.533   2.405
18247SOL     OW56579   9.289  11.370   9.631
18247SOL    HW156580   9.255  11.443   9.683
18247SOL    HW256581   9.362  11.336   9.683
18248SOL     OW56582  10.084  10.426   6.152
18248SOL    HW156583  10.057  10.377   6.073
18248SOL    HW256584  10.038  10.382   6.223
18249SOL     OW56585   8.138   5.506   5.350
18249SOL    HW156586   8.181   5.427   5.317
18249SOL    HW256587   8.186   5.578   5.310
18250SOL     OW56588   4.249  12.422   6.798
18250SOL    HW156589   4.234  12.452   6.708
18250SOL    HW256590   4.239  12.327   6.794
18251SOL     OW56591   7.681  10.659  10.714
18251SOL    HW156592   7.648  10.574  10.684
18251SOL    HW256593   7.603  10.707  10.740
18252SOL     OW56594   3.640  11.245  13.316
18252SOL    HW156595   3.716  11.303  13.324
18252SOL    HW256596   3.566  11.298  13.344
18253SOL     OW56597  11.583   5.648  13.990
18253SOL    HW156598  11.646   5.579  13.969
18253SOL    HW256599  11.550   5.677  13.904
18254SOL     OW56600  13.529   9.326  10.415
18254SOL    HW156601  13.594   9.361  10.477
18254SOL    HW256602  13.525   9.392  10.345
18255SOL     OW56603  14.780  10.758   4.938
18255SOL    HW156604  14.786  10.681   4.882
18255SOL    HW256605  14.695  10.749   4.982
18256SOL     OW56606   5.362   4.634  14.438
18256SOL    HW156607   5.364   4.709  14.379
18256SOL    HW256608   5.342   4.559  14.381
18257SOL     OW56609   9.997   1.046   4.911
18257SOL    HW156610   9.920   1.004   4.948
18257SOL    HW256611  10.020   1.115   4.974
18258SOL     OW56612  14.697   5.850   8.059
18258SOL    HW156613  14.700   5.904   7.980
18258SOL    HW256614  14.783   5.862   8.100
18259SOL     OW56615  13.264   3.857   3.220
18259SOL    HW156616  13.205   3.806   3.164
18259SOL    HW256617  13.347   3.809   3.217
18260SOL     OW56618  10.915  14.691  13.315
18260SOL    HW156619  10.952  14.645  13.239
18260SOL    HW256620  10.907  14.782  13.285
18261SOL     OW56621   3.966   6.774   6.268
18261SOL    HW156622   3.934   6.708   6.208
18261SOL    HW256623   3.972   6.854   6.216
18262SOL     OW56624  13.355   6.919  11.148
18262SOL    HW156625  13.273   6.943  11.191
18262SOL    HW256626  13.340   6.937  11.056
18263SOL     OW56627   3.075   5.527   2.785
18263SOL    HW156628   2.990   5.569   2.795
18263SOL    HW256629   3.134   5.578   2.840
18264SOL     OW56630   0.490   2.374   5.866
18264SOL    HW156631   0.434   2.451   5.868
18264SOL    HW256632   0.578   2.409   5.848
18265SOL     OW56633   2.544  12.530   5.089
18265SOL    HW156634   2.470  12.553   5.032
18265SOL    HW256635   2.523  12.442   5.120
18266SOL     OW56636   1.741  12.372  13.885
18266SOL    HW156637   1.755  12.401  13.975
18266SOL    HW256638   1.828  12.356  13.850
18267SOL     OW56639   8.743   0.912   5.949
18267SOL    HW156640   8.671   0.975   5.963
18267SOL    HW256641   8.815   0.946   6.002
18268SOL     OW56642  12.122   0.283  11.014
18268SOL    HW156643  12.083   0.297  10.928
18268SOL    HW256644  12.211   0.315  11.007
18269SOL     OW56645  10.777   6.976   1.932
18269SOL    HW156646  10.758   7.060   1.972
18269SOL    HW256647  10.858   6.990   1.883
18270SOL     OW56648   6.490   4.549   8.692
18270SOL    HW156649   6.408   4.527   8.647
18270SOL    HW256650   6.501   4.643   8.678
18271SOL     OW56651  12.662   0.393   7.477
18271SOL    HW156652  12.587   0.334   7.482
18271SOL    HW256653  12.627   0.479   7.501
18272SOL     OW56654   1.359   5.144   2.048
18272SOL    HW156655   1.410   5.107   2.120
18272SOL    HW256656   1.425   5.166   1.982
18273SOL     OW56657  13.645   8.540  13.430
18273SOL    HW156658  13.697   8.469  13.468
18273SOL    HW256659  13.675   8.619  13.476
18274SOL     OW56660   2.972  14.054   0.431
18274SOL    HW156661   2.877  14.059   0.431
18274SOL    HW256662   2.998  14.076   0.341
18275SOL     OW56663   3.835   3.980   2.885
18275SOL    HW156664   3.905   3.936   2.934
18275SOL    HW256665   3.881   4.024   2.813
18276SOL     OW56666   2.573   7.006   8.269
18276SOL    HW156667   2.584   7.100   8.254
18276SOL    HW256668   2.610   6.991   8.356
18277SOL     OW56669   2.345  12.074   4.418
18277SOL    HW156670   2.260  12.119   4.414
18277SOL    HW256671   2.366  12.070   4.511
18278SOL     OW56672   3.580   4.339   5.692
18278SOL    HW156673   3.642   4.330   5.619
18278SOL    HW256674   3.633   4.324   5.770
18279SOL     OW56675   3.806   0.424   4.690
18279SOL    HW156676   3.843   0.418   4.778
18279SOL    HW256677   3.724   0.472   4.702
18280SOL     OW56678   6.534   7.613   6.932
18280SOL    HW156679   6.579   7.695   6.911
18280SOL    HW256680   6.445   7.641   6.956
18281SOL     OW56681  10.689   0.830   0.669
18281SOL    HW156682  10.629   0.883   0.720
18281SOL    HW256683  10.771   0.833   0.718
18282SOL     OW56684   8.201   1.430   7.612
18282SOL    HW156685   8.268   1.490   7.643
18282SOL    HW256686   8.135   1.428   7.682
18283SOL     OW56687   4.327   3.009  13.581
18283SOL    HW156688   4.280   3.091  13.567
18283SOL    HW256689   4.374   3.022  13.664
18284SOL     OW56690  12.796  13.481   6.764
18284SOL    HW156691  12.891  13.469   6.776
18284SOL    HW256692  12.780  13.453   6.674
18285SOL     OW56693   9.403  12.325  12.133
18285SOL    HW156694   9.380  12.365  12.217
18285SOL    HW256695   9.496  12.304  12.141
18286SOL     OW56696   1.338   7.515   6.964
18286SOL    HW156697   1.401   7.563   6.911
18286SOL    HW256698   1.391   7.457   7.018
18287SOL     OW56699  12.819  12.980   0.398
18287SOL    HW156700  12.770  12.984   0.316
18287SOL    HW256701  12.760  12.936   0.459
18288SOL     OW56702   4.205   4.306  10.404
18288SOL    HW156703   4.256   4.339  10.330
18288SOL    HW256704   4.269   4.296  10.474
18289SOL     OW56705  14.179   5.666   3.037
18289SOL    HW156706  14.154   5.754   3.008
18289SOL    HW256707  14.097   5.628   3.070
18290SOL     OW56708   2.773   0.324   5.668
18290SOL    HW156709   2.805   0.271   5.740
18290SOL    HW256710   2.720   0.265   5.615
18291SOL     OW56711   7.434  13.275   4.545
18291SOL    HW156712   7.524  13.306   4.557
18291SOL    HW256713   7.398  13.271   4.633
18292SOL     OW56714  12.067   2.495   4.914
18292SOL    HW156715  12.014   2.421   4.885
18292SOL    HW256716  12.125   2.459   4.981
18293SOL     OW56717  12.102  11.669   9.042
18293SOL    HW156718  12.101  11.756   9.003
18293SOL    HW256719  12.070  11.681   9.131
18294SOL     OW56720   5.821   2.675   2.140
18294SOL    HW156721   5.855   2.588   2.122
18294SOL    HW256722   5.898   2.732   2.139
18295SOL     OW56723  11.338  13.535   1.185
18295SOL    HW156724  11.386  13.591   1.124
18295SOL    HW256725  11.251  13.574   1.191
18296SOL     OW56726   1.191   7.027   7.942
18296SOL    HW156727   1.198   6.932   7.953
18296SOL    HW256728   1.105   7.040   7.903
18297SOL     OW56729   9.972   7.621   6.038
18297SOL    HW156730  10.051   7.608   5.985
18297SOL    HW256731   9.942   7.532   6.058
18298SOL     OW56732  11.126  12.517  10.830
18298SOL    HW156733  11.155  12.461  10.758
18298SOL    HW256734  11.034  12.535  10.811
18299SOL     OW56735   1.460   8.897   3.726
18299SOL    HW156736   1.532   8.912   3.664
18299SOL    HW256737   1.489   8.939   3.807
18300SOL     OW56738   3.022  10.116   4.650
18300SOL    HW156739   3.065  10.137   4.568
18300SOL    HW256740   3.087  10.069   4.701
18301SOL     OW56741   9.046   6.488   3.728
18301SOL    HW156742   9.115   6.536   3.774
18301SOL    HW256743   9.066   6.499   3.635
18302SOL     OW56744   0.521  14.179  14.469
18302SOL    HW156745   0.553  14.119  14.536
18302SOL    HW256746   0.544  14.139  14.386
18303SOL     OW56747   5.371  11.302   7.877
18303SOL    HW156748   5.387  11.235   7.943
18303SOL    HW256749   5.456  11.344   7.863
18304SOL     OW56750   8.820  10.935   1.739
18304SOL    HW156751   8.771  10.947   1.821
18304SOL    HW256752   8.888  11.003   1.741
18305SOL     OW56753   0.352   6.281   3.734
18305SOL    HW156754   0.378   6.189   3.737
18305SOL    HW256755   0.433   6.330   3.749
18306SOL     OW56756  10.153  11.465   9.745
18306SOL    HW156757  10.219  11.423   9.689
18306SOL    HW256758  10.183  11.556   9.752
18307SOL     OW56759   9.487   6.520  13.449
18307SOL    HW156760   9.414   6.478  13.404
18307SOL    HW256761   9.461   6.612  13.456
18308SOL     OW56762   0.357   1.499   0.386
18308SOL    HW156763   0.395   1.520   0.471
18308SOL    HW256764   0.415   1.433   0.349
18309SOL     OW56765  11.043  10.206  11.461
18309SOL    HW156766  10.949  10.190  11.453
18309SOL    HW256767  11.083  10.144  11.401
18310SOL     OW56768   9.890   9.403   8.894
18310SOL    HW156769   9.961   9.443   8.842
18310SOL    HW256770   9.894   9.310   8.872
18311SOL     OW56771   4.785  13.160   0.933
18311SOL    HW156772   4.787  13.203   1.019
18311SOL    HW256773   4.706  13.193   0.892
18312SOL     OW56774   3.412   6.297   3.102
18312SOL    HW156775   3.508   6.289   3.106
18312SOL    HW256776   3.381   6.248   3.178
18313SOL     OW56777  13.227   2.873   4.466
18313SOL    HW156778  13.167   2.909   4.531
18313SOL    HW256779  13.271   2.949   4.428
18314SOL     OW56780   3.875   6.030  12.779
18314SOL    HW156781   3.807   6.089  12.747
18314SOL    HW256782   3.935   6.086  12.828
18315SOL     OW56783  10.175   1.729   7.191
18315SOL    HW156784  10.157   1.822   7.179
18315SOL    HW256785  10.263   1.716   7.154
18316SOL     OW56786   0.726   4.424   4.401
18316SOL    HW156787   0.714   4.458   4.312
18316SOL    HW256788   0.659   4.356   4.410
18317SOL     OW56789   6.546   3.803  11.603
18317SOL    HW156790   6.453   3.821  11.615
18317SOL    HW256791   6.570   3.852  11.524
18318SOL     OW56792  12.541  13.276   9.128
18318SOL    HW156793  12.632  13.281   9.159
18318SOL    HW256794  12.533  13.189   9.088
18319SOL     OW56795  12.689   4.019   8.570
18319SOL    HW156796  12.756   4.081   8.543
18319SOL    HW256797  12.633   4.008   8.493
18320SOL     OW56798   2.280   5.613  11.536
18320SOL    HW156799   2.242   5.648  11.455
18320SOL    HW256800   2.205   5.580  11.585
18321SOL     OW56801   9.356  10.038  13.733
18321SOL    HW156802   9.328  10.012  13.821
18321SOL    HW256803   9.443  10.076  13.747
18322SOL     OW56804  14.411   3.226  14.461
18322SOL    HW156805  14.422   3.308  14.412
18322SOL    HW256806  14.490   3.176  14.440
18323SOL     OW56807  12.785   3.062   9.427
18323SOL    HW156808  12.880   3.063   9.441
18323SOL    HW256809  12.775   3.061   9.332
18324SOL     OW56810  10.296   2.278  12.040
18324SOL    HW156811  10.369   2.257  11.982
18324SOL    HW256812  10.306   2.372  12.057
18325SOL     OW56813   9.690   0.910   8.497
18325SOL    HW156814   9.659   0.972   8.431
18325SOL    HW256815   9.616   0.899   8.557
18326SOL     OW56816   0.900   4.125   5.523
18326SOL    HW156817   0.849   4.204   5.537
18326SOL    HW256818   0.989   4.148   5.551
18327SOL     OW56819  10.211  11.835  14.744
18327SOL    HW156820  10.298  11.855  14.778
18327SOL    HW256821  10.220  11.748  14.704
18328SOL     OW56822   7.501   8.311   1.339
18328SOL    HW156823   7.442   8.366   1.288
18328SOL    HW256824   7.516   8.235   1.284
18329SOL     OW56825  12.047   1.482   3.073
18329SOL    HW156826  12.129   1.440   3.096
18329SOL    HW256827  11.979   1.419   3.099
18330SOL     OW56828  10.621   7.782   0.343
18330SOL    HW156829  10.568   7.702   0.354
18330SOL    HW256830  10.591   7.819   0.260
18331SOL     OW56831   0.180  14.191   0.958
18331SOL    HW156832   0.102  14.137   0.947
18331SOL    HW256833   0.231  14.147   1.025
18332SOL     OW56834  12.916   8.792   2.554
18332SOL    HW156835  12.861   8.839   2.491
18332SOL    HW256836  12.868   8.799   2.637
18333SOL     OW56837   4.015   7.660   6.755
18333SOL    HW156838   4.057   7.721   6.816
18333SOL    HW256839   4.084   7.639   6.692
18334SOL     OW56840   5.768   7.551  11.103
18334SOL    HW156841   5.748   7.623  11.043
18334SOL    HW256842   5.761   7.590  11.190
18335SOL     OW56843   1.372   8.439  11.204
18335SOL    HW156844   1.413   8.435  11.291
18335SOL    HW256845   1.286   8.400  11.216
18336SOL     OW56846   8.617  12.906  12.105
18336SOL    HW156847   8.589  12.941  12.190
18336SOL    HW256848   8.551  12.842  12.082
18337SOL     OW56849   0.635  12.993   8.438
18337SOL    HW156850   0.715  13.030   8.477
18337SOL    HW256851   0.586  12.958   8.513
18338SOL     OW56852   5.787   0.910   2.694
18338SOL    HW156853   5.752   0.899   2.605
18338SOL    HW256854   5.762   0.830   2.739
18339SOL     OW56855   6.151   7.091   9.163
18339SOL    HW156856   6.189   7.019   9.213
18339SOL    HW256857   6.141   7.162   9.227
18340SOL     OW56858  13.621   2.207   4.724
18340SOL    HW156859  13.561   2.150   4.676
18340SOL    HW256860  13.588   2.295   4.707
18341SOL     OW56861   1.021   1.884  12.058
18341SOL    HW156862   0.935   1.922  12.076
18341SOL    HW256863   1.008   1.829  11.981
18342SOL     OW56864   6.900   7.429   5.779
18342SOL    HW156865   6.901   7.462   5.689
18342SOL    HW256866   6.986   7.390   5.791
18343SOL     OW56867  13.319  12.133  10.535
18343SOL    HW156868  13.411  12.123  10.557
18343SOL    HW256869  13.309  12.225  10.513
18344SOL     OW56870   5.441  12.885   3.700
18344SOL    HW156871   5.520  12.831   3.692
18344SOL    HW256872   5.422  12.912   3.610
18345SOL     OW56873   0.437   3.050   2.811
18345SOL    HW156874   0.482   3.033   2.729
18345SOL    HW256875   0.482   2.995   2.875
18346SOL     OW56876   9.008   2.782   6.768
18346SOL    HW156877   9.025   2.728   6.845
18346SOL    HW256878   8.932   2.741   6.725
18347SOL     OW56879   1.377   3.920   0.395
18347SOL    HW156880   1.299   3.899   0.447
18347SOL    HW256881   1.444   3.859   0.427
18348SOL     OW56882   6.769   4.706   9.723
18348SOL    HW156883   6.755   4.664   9.637
18348SOL    HW256884   6.840   4.655   9.763
18349SOL     OW56885  13.459   2.455  14.305
18349SOL    HW156886  13.395   2.470  14.375
18349SOL    HW256887  13.409   2.464  14.224
18350SOL     OW56888   1.023   6.139   3.296
18350SOL    HW156889   0.960   6.079   3.256
18350SOL    HW256890   0.974   6.180   3.367
18351SOL     OW56891   4.066   2.056   2.242
18351SOL    HW156892   4.038   2.024   2.156
18351SOL    HW256893   4.161   2.045   2.242
18352SOL     OW56894  14.765   0.904  12.203
18352SOL    HW156895  14.814   0.898  12.285
18352SOL    HW256896  14.832   0.914  12.135
18353SOL     OW56897   2.141   6.657   9.357
18353SOL    HW156898   2.086   6.690   9.427
18353SOL    HW256899   2.125   6.716   9.283
18354SOL     OW56900   9.278   8.758  10.872
18354SOL    HW156901   9.257   8.779  10.963
18354SOL    HW256902   9.204   8.704  10.842
18355SOL     OW56903   6.629   9.498   2.875
18355SOL    HW156904   6.685   9.542   2.810
18355SOL    HW256905   6.599   9.568   2.932
18356SOL     OW56906   8.406   4.107  14.308
18356SOL    HW156907   8.499   4.089  14.302
18356SOL    HW256908   8.367   4.055  14.238
18357SOL     OW56909   6.354   9.552   6.302
18357SOL    HW156910   6.315   9.493   6.238
18357SOL    HW256911   6.409   9.496   6.357
18358SOL     OW56912   6.885  10.148   5.802
18358SOL    HW156913   6.972  10.110   5.816
18358SOL    HW256914   6.837  10.126   5.882
18359SOL     OW56915   5.635  12.634   2.755
18359SOL    HW156916   5.697  12.663   2.689
18359SOL    HW256917   5.571  12.706   2.761
18360SOL     OW56918   8.715   3.169   4.441
18360SOL    HW156919   8.810   3.157   4.441
18360SOL    HW256920   8.702   3.255   4.481
18361SOL     OW56921  14.464  14.358   3.263
18361SOL    HW156922  14.513  14.280   3.288
18361SOL    HW256923  14.465  14.413   3.340
18362SOL     OW56924   8.503  14.062   6.804
18362SOL    HW156925   8.586  14.109   6.792
18362SOL    HW256926   8.512  14.020   6.890
18363SOL     OW56927   8.448   9.644   9.245
18363SOL    HW156928   8.454   9.674   9.336
18363SOL    HW256929   8.361   9.604   9.239
18364SOL     OW56930   6.940   8.794  12.318
18364SOL    HW156931   6.846   8.785  12.333
18364SOL    HW256932   6.974   8.827  12.401
18365SOL     OW56933   9.980  12.827   0.726
18365SOL    HW156934  10.047  12.893   0.710
18365SOL    HW256935   9.917  12.837   0.655
18366SOL     OW56936   0.559   2.302   8.729
18366SOL    HW156937   0.652   2.322   8.722
18366SOL    HW256938   0.516   2.367   8.674
18367SOL     OW56939   9.561   2.921   1.621
18367SOL    HW156940   9.577   2.873   1.539
18367SOL    HW256941   9.479   2.885   1.654
18368SOL     OW56942   3.857   9.762  11.484
18368SOL    HW156943   3.900   9.680  11.464
18368SOL    HW256944   3.796   9.776  11.412
18369SOL     OW56945   1.694   5.774  13.854
18369SOL    HW156946   1.660   5.863  13.842
18369SOL    HW256947   1.786   5.780  13.829
18370SOL     OW56948  10.846   9.734  14.794
18370SOL    HW156949  10.861   9.828  14.801
18370SOL    HW256950  10.920   9.694  14.841
18371SOL     OW56951  13.901   0.861  13.091
18371SOL    HW156952  13.832   0.879  13.027
18371SOL    HW256953  13.977   0.910  13.058
18372SOL     OW56954  14.386   4.009  11.599
18372SOL    HW156955  14.416   4.099  11.611
18372SOL    HW256956  14.351   3.984  11.685
18373SOL     OW56957  14.797  12.081   4.512
18373SOL    HW156958  14.815  12.160   4.463
18373SOL    HW256959  14.826  12.010   4.455
18374SOL     OW56960   1.097  13.243   8.982
18374SOL    HW156961   1.144  13.264   8.901
18374SOL    HW256962   1.033  13.177   8.957
18375SOL     OW56963   5.401  12.014  10.681
18375SOL    HW156964   5.358  11.992  10.763
18375SOL    HW256965   5.446  11.934  10.655
18376SOL     OW56966  14.840   6.707   0.465
18376SOL    HW156967   0.032   6.768   0.481
18376SOL    HW256968   0.000   6.620   0.470
18377SOL     OW56969   1.307  12.108   4.998
18377SOL    HW156970   1.354  12.183   4.962
18377SOL    HW256971   1.250  12.146   5.066
18378SOL     OW56972   9.491  11.875   2.082
18378SOL    HW156973   9.479  11.968   2.100
18378SOL    HW256974   9.413  11.851   2.032
18379SOL     OW56975  13.689   2.096  10.448
18379SOL    HW156976  13.743   2.088  10.369
18379SOL    HW256977  13.658   2.007  10.464
18380SOL     OW56978   5.343   7.372   2.501
18380SOL    HW156979   5.415   7.352   2.441
18380SOL    HW256980   5.286   7.432   2.452
18381SOL     OW56981   7.032   2.231  12.752
18381SOL    HW156982   7.080   2.224  12.669
18381SOL    HW256983   7.087   2.286  12.807
18382SOL     OW56984   6.058   8.190   5.010
18382SOL    HW156985   5.991   8.125   4.987
18382SOL    HW256986   6.136   8.138   5.030
18383SOL     OW56987   0.338  12.933  10.762
18383SOL    HW156988   0.403  12.865  10.743
18383SOL    HW256989   0.346  12.995  10.689
18384SOL     OW56990   4.414   1.738   7.973
18384SOL    HW156991   4.339   1.678   7.967
18384SOL    HW256992   4.379   1.823   7.947
18385SOL     OW56993   0.802  14.087   2.274
18385SOL    HW156994   0.713  14.110   2.246
18385SOL    HW256995   0.859  14.125   2.207
18386SOL     OW56996   7.693   7.967   2.099
18386SOL    HW156997   7.789   7.965   2.103
18386SOL    HW256998   7.666   7.993   2.187
18387SOL     OW56999   5.126   8.767  11.552
18387SOL    HW157000   5.109   8.787  11.644
18387SOL    HW257001   5.221   8.756  11.547
18388SOL     OW57002   4.329   1.271   0.397
18388SOL    HW157003   4.310   1.353   0.351
18388SOL    HW257004   4.243   1.242   0.430
18389SOL     OW57005  13.118   7.580   5.074
18389SOL    HW157006  13.156   7.528   5.145
18389SOL    HW257007  13.190   7.592   5.012
18390SOL     OW57008   3.089  12.683  11.741
18390SOL    HW157009   3.174  12.725  11.754
18390SOL    HW257010   3.066  12.648  11.828
18391SOL     OW57011   0.786  10.465  14.455
18391SOL    HW157012   0.735  10.536  14.417
18391SOL    HW257013   0.777  10.478  14.550
18392SOL     OW57014  11.350   7.026   5.279
18392SOL    HW157015  11.366   7.088   5.209
18392SOL    HW257016  11.255   7.027   5.291
18393SOL     OW57017   1.330  12.175   8.198
18393SOL    HW157018   1.315  12.149   8.107
18393SOL    HW257019   1.381  12.256   8.191
18394SOL     OW57020   5.145   9.861   2.526
18394SOL    HW157021   5.150   9.933   2.464
18394SOL    HW257022   5.225   9.869   2.578
18395SOL     OW57023   2.456  13.362   6.905
18395SOL    HW157024   2.409  13.352   6.822
18395SOL    HW257025   2.456  13.456   6.922
18396SOL     OW57026   3.425  13.565  11.682
18396SOL    HW157027   3.457  13.484  11.723
18396SOL    HW257028   3.433  13.549  11.588
18397SOL     OW57029   8.505   2.441   5.130
18397SOL    HW157030   8.575   2.408   5.073
18397SOL    HW257031   8.548   2.505   5.187
18398SOL     OW57032  12.716   0.500   2.013
18398SOL    HW157033  12.627   0.492   2.047
18398SOL    HW257034  12.720   0.587   1.973
18399SOL     OW57035   9.115   7.260   4.917
18399SOL    HW157036   9.137   7.237   5.007
18399SOL    HW257037   9.039   7.318   4.925
18400SOL     OW57038   0.517   0.997   7.550
18400SOL    HW157039   0.610   1.004   7.574
18400SOL    HW257040   0.495   1.082   7.513
18401SOL     OW57041   5.973   1.200   9.565
18401SOL    HW157042   5.945   1.201   9.656
18401SOL    HW257043   5.972   1.107   9.540
18402SOL     OW57044  10.215  13.760   1.610
18402SOL    HW157045  10.218  13.746   1.516
18402SOL    HW257046  10.134  13.808   1.625
18403SOL     OW57047  14.644   1.320  10.020
18403SOL    HW157048  14.605   1.400   9.984
18403SOL    HW257049  14.694   1.349  10.096
18404SOL     OW57050  11.117   4.443   8.973
18404SOL    HW157051  11.151   4.354   8.981
18404SOL    HW257052  11.127   4.464   8.880
18405SOL     OW57053   1.104   2.444   0.865
18405SOL    HW157054   1.106   2.483   0.777
18405SOL    HW257055   1.050   2.504   0.916
18406SOL     OW57056   1.162  12.132   2.150
18406SOL    HW157057   1.128  12.147   2.062
18406SOL    HW257058   1.223  12.204   2.165
18407SOL     OW57059   2.645   3.428  11.739
18407SOL    HW157060   2.578   3.401  11.801
18407SOL    HW257061   2.683   3.347  11.707
18408SOL     OW57062   6.194   3.233  10.646
18408SOL    HW157063   6.174   3.279  10.564
18408SOL    HW257064   6.186   3.301  10.713
18409SOL     OW57065   2.192   8.910   6.495
18409SOL    HW157066   2.131   8.836   6.488
18409SOL    HW257067   2.220   8.910   6.587
18410SOL     OW57068  10.921  14.529   5.767
18410SOL    HW157069  10.926  14.481   5.850
18410SOL    HW257070  10.833  14.511   5.733
18411SOL     OW57071  10.655  13.579   0.963
18411SOL    HW157072  10.657  13.569   1.058
18411SOL    HW257073  10.637  13.491   0.930
18412SOL     OW57074   1.174  10.065   8.712
18412SOL    HW157075   1.204  10.099   8.628
18412SOL    HW257076   1.142   9.977   8.693
18413SOL     OW57077  12.075   7.451  13.569
18413SOL    HW157078  12.137   7.493  13.509
18413SOL    HW257079  12.072   7.360  13.540
18414SOL     OW57080   5.871   9.311  11.447
18414SOL    HW157081   5.854   9.383  11.507
18414SOL    HW257082   5.801   9.317  11.382
18415SOL     OW57083   8.578   1.471   3.597
18415SOL    HW157084   8.638   1.543   3.579
18415SOL    HW257085   8.634   1.401   3.631
18416SOL     OW57086  12.724   1.735   3.901
18416SOL    HW157087  12.708   1.647   3.867
18416SOL    HW257088  12.799   1.767   3.850
18417SOL     OW57089   7.113   3.070  11.304
18417SOL    HW157090   7.027   3.096  11.272
18417SOL    HW257091   7.163   3.151  11.307
18418SOL     OW57092   4.323  12.344  13.533
18418SOL    HW157093   4.268  12.388  13.468
18418SOL    HW257094   4.369  12.276  13.485
18419SOL     OW57095   3.718  13.443   1.896
18419SOL    HW157096   3.801  13.490   1.889
18419SOL    HW257097   3.666  13.474   1.822
18420SOL     OW57098  11.289   7.827  10.241
18420SOL    HW157099  11.380   7.855  10.229
18420SOL    HW257100  11.242   7.867  10.168
18421SOL     OW57101   2.486  10.658  13.443
18421SOL    HW157102   2.440  10.578  13.418
18421SOL    HW257103   2.490  10.654  13.539
18422SOL     OW57104  12.771   7.918   9.870
18422SOL    HW157105  12.842   7.956   9.819
18422SOL    HW257106  12.694   7.929   9.815
18423SOL     OW57107  13.350   9.840  14.847
18423SOL    HW157108  13.390   9.927  14.852
18423SOL    HW257109  13.390   9.800  14.770
18424SOL     OW57110   8.674   8.617  13.534
18424SOL    HW157111   8.751   8.576  13.572
18424SOL    HW257112   8.662   8.574  13.450
18425SOL     OW57113   4.724   5.341   5.095
18425SOL    HW157114   4.631   5.331   5.115
18425SOL    HW257115   4.726   5.402   5.021
18426SOL     OW57116   6.302   5.666   1.899
18426SOL    HW157117   6.311   5.690   1.991
18426SOL    HW257118   6.355   5.586   1.890
18427SOL     OW57119  10.918   1.331   9.881
18427SOL    HW157120  10.899   1.243   9.912
18427SOL    HW257121  10.993   1.321   9.823
18428SOL     OW57122   7.018   0.054  11.385
18428SOL    HW157123   7.051  14.845  11.365
18428SOL    HW257124   6.936   0.039  11.431
18429SOL     OW57125  13.067  13.274  14.249
18429SOL    HW157126  13.069  13.366  14.273
18429SOL    HW257127  12.974  13.250  14.253
18430SOL     OW57128   8.499   7.484  11.095
18430SOL    HW157129   8.410   7.499  11.126
18430SOL    HW257130   8.526   7.403  11.139
18431SOL     OW57131   9.393   9.035   8.914
18431SOL    HW157132   9.379   9.017   8.821
18431SOL    HW257133   9.319   8.994   8.958
18432SOL     OW57134   0.484   0.104   8.169
18432SOL    HW157135   0.575   0.082   8.189
18432SOL    HW257136   0.487   0.197   8.147
18433SOL     OW57137   9.548   2.249  13.652
18433SOL    HW157138   9.575   2.194  13.726
18433SOL    HW257139   9.613   2.231  13.584
18434SOL     OW57140  10.272   9.801  13.716
18434SOL    HW157141  10.271   9.708  13.739
18434SOL    HW257142  10.328   9.841  13.782
18435SOL     OW57143   3.620  14.742  13.189
18435SOL    HW157144   3.556  14.734  13.118
18435SOL    HW257145   3.679  14.812  13.161
18436SOL     OW57146   7.552  11.958  12.625
18436SOL    HW157147   7.598  12.039  12.647
18436SOL    HW257148   7.542  11.961  12.530
18437SOL     OW57149  12.487  11.185   4.792
18437SOL    HW157150  12.428  11.259   4.805
18437SOL    HW257151  12.463  11.123   4.861
18438SOL     OW57152  12.631   9.149   5.048
18438SOL    HW157153  12.543   9.135   5.083
18438SOL    HW257154  12.629   9.237   5.011
18439SOL     OW57155  10.934  10.065   7.003
18439SOL    HW157156  10.871  10.004   6.964
18439SOL    HW257157  10.939  10.137   6.941
18440SOL     OW57158   5.397   3.721   8.805
18440SOL    HW157159   5.309   3.743   8.834
18440SOL    HW257160   5.429   3.799   8.759
18441SOL     OW57161   4.306  13.667   1.644
18441SOL    HW157162   4.266  13.738   1.593
18441SOL    HW257163   4.400  13.678   1.630
18442SOL     OW57164  10.750   7.189   0.519
18442SOL    HW157165  10.793   7.262   0.474
18442SOL    HW257166  10.720   7.132   0.448
18443SOL     OW57167   4.868  12.675  11.184
18443SOL    HW157168   4.876  12.593  11.233
18443SOL    HW257169   4.780  12.671  11.146
18444SOL     OW57170   3.321   3.196  13.010
18444SOL    HW157171   3.237   3.231  13.040
18444SOL    HW257172   3.322   3.214  12.916
18445SOL     OW57173   7.605   5.881  12.969
18445SOL    HW157174   7.574   5.828  12.895
18445SOL    HW257175   7.637   5.818  13.032
18446SOL     OW57176  12.109   1.865   6.427
18446SOL    HW157177  12.171   1.841   6.496
18446SOL    HW257178  12.076   1.781   6.395
18447SOL     OW57179   3.506  13.718   8.969
18447SOL    HW157180   3.421  13.703   9.010
18447SOL    HW257181   3.570  13.676   9.027
18448SOL     OW57182   0.306   9.383   4.327
18448SOL    HW157183   0.370   9.313   4.341
18448SOL    HW257184   0.332   9.423   4.244
18449SOL     OW57185   3.999   2.280   4.715
18449SOL    HW157186   3.978   2.248   4.802
18449SOL    HW257187   3.916   2.312   4.680
18450SOL     OW57188  13.854  12.809   6.555
18450SOL    HW157189  13.806  12.860   6.490
18450SOL    HW257190  13.901  12.743   6.503
18451SOL     OW57191  14.834  10.372   3.689
18451SOL    HW157192   0.016  10.300   3.684
18451SOL    HW257193  14.766  10.350   3.625
18452SOL     OW57194   0.212   0.669  12.657
18452SOL    HW157195   0.133   0.642  12.610
18452SOL    HW257196   0.271   0.701  12.588
18453SOL     OW57197   8.915   3.772   3.172
18453SOL    HW157198   8.992   3.765   3.227
18453SOL    HW257199   8.850   3.716   3.214
18454SOL     OW57200   4.937  14.729   0.196
18454SOL    HW157201   5.021  14.753   0.157
18454SOL    HW257202   4.956  14.717   0.289
18455SOL     OW57203   7.377   2.995   3.808
18455SOL    HW157204   7.469   3.005   3.786
18455SOL    HW257205   7.330   3.012   3.726
18456SOL     OW57206   9.774   7.721   1.396
18456SOL    HW157207   9.864   7.748   1.416
18456SOL    HW257208   9.728   7.727   1.479
18457SOL     OW57209   4.053  11.676   8.267
18457SOL    HW157210   4.116  11.723   8.212
18457SOL    HW257211   3.985  11.648   8.206
18458SOL     OW57212   6.201   4.210   4.782
18458SOL    HW157213   6.124   4.154   4.789
18458SOL    HW257214   6.221   4.213   4.689
18459SOL     OW57215  13.136   6.078  12.015
18459SOL    HW157216  13.179   6.163  12.019
18459SOL    HW257217  13.047   6.095  12.045
18460SOL     OW57218   7.937   6.553   1.445
18460SOL    HW157219   7.886   6.573   1.523
18460SOL    HW257220   8.005   6.621   1.442
18461SOL     OW57221   8.779  14.620   1.404
18461SOL    HW157222   8.796  14.527   1.420
18461SOL    HW257223   8.801  14.632   1.311
18462SOL     OW57224   1.273   5.866   6.705
18462SOL    HW157225   1.352   5.902   6.665
18462SOL    HW257226   1.258   5.920   6.782
18463SOL     OW57227   6.558   4.863   2.231
18463SOL    HW157228   6.537   4.923   2.159
18463SOL    HW257229   6.648   4.887   2.257
18464SOL     OW57230  11.869  12.416   2.034
18464SOL    HW157231  11.824  12.488   2.076
18464SOL    HW257232  11.905  12.365   2.106
18465SOL     OW57233  10.848  14.643   1.835
18465SOL    HW157234  10.913  14.673   1.898
18465SOL    HW257235  10.849  14.548   1.842
18466SOL     OW57236  10.212   1.036  11.019
18466SOL    HW157237  10.294   1.082  11.002
18466SOL    HW257238  10.165   1.039  10.936
18467SOL     OW57239   7.772   9.408   3.159
18467SOL    HW157240   7.762   9.458   3.240
18467SOL    HW257241   7.826   9.333   3.184
18468SOL     OW57242  12.291   5.962   7.414
18468SOL    HW157243  12.344   5.913   7.351
18468SOL    HW257244  12.254   5.896   7.472
18469SOL     OW57245   9.926   1.227   2.964
18469SOL    HW157246   9.923   1.215   2.869
18469SOL    HW257247  10.019   1.222   2.987
18470SOL     OW57248   0.317  11.714   0.098
18470SOL    HW157249   0.373  11.725   0.021
18470SOL    HW257250   0.323  11.620   0.118
18471SOL     OW57251   6.557  13.776   2.357
18471SOL    HW157252   6.467  13.747   2.344
18471SOL    HW257253   6.596  13.774   2.270
18472SOL     OW57254  13.800   4.156   1.468
18472SOL    HW157255  13.717   4.196   1.443
18472SOL    HW257256  13.779   4.063   1.479
18473SOL     OW57257  14.221   6.282   5.764
18473SOL    HW157258  14.236   6.197   5.722
18473SOL    HW257259  14.227   6.346   5.693
18474SOL     OW57260   3.188  13.367   3.405
18474SOL    HW157261   3.173  13.427   3.478
18474SOL    HW257262   3.268  13.320   3.428
18475SOL     OW57263   0.986   8.807   9.155
18475SOL    HW157264   1.033   8.727   9.180
18475SOL    HW257265   1.011   8.871   9.222
18476SOL     OW57266  14.305   2.678   9.202
18476SOL    HW157267  14.335   2.663   9.292
18476SOL    HW257268  14.384   2.670   9.148
18477SOL     OW57269   1.029   4.885  12.976
18477SOL    HW157270   1.008   4.876  12.883
18477SOL    HW257271   1.093   4.816  12.993
18478SOL     OW57272   6.572   9.002  14.194
18478SOL    HW157273   6.501   8.948  14.161
18478SOL    HW257274   6.529   9.066  14.251
18479SOL     OW57275   7.710   0.628   2.956
18479SOL    HW157276   7.666   0.650   3.038
18479SOL    HW257277   7.721   0.712   2.911
18480SOL     OW57278   9.085   5.743   0.075
18480SOL    HW157279   9.087   5.828   0.031
18480SOL    HW257280   9.158   5.746   0.137
18481SOL     OW57281  10.370  14.438   0.749
18481SOL    HW157282  10.360  14.523   0.792
18481SOL    HW257283  10.464  14.432   0.730
18482SOL     OW57284   5.516  10.190   3.176
18482SOL    HW157285   5.435  10.210   3.130
18482SOL    HW257286   5.515  10.095   3.188
18483SOL     OW57287   4.950   3.856   3.828
18483SOL    HW157288   5.005   3.933   3.813
18483SOL    HW257289   4.933   3.822   3.740
18484SOL     OW57290   9.573  10.508   1.938
18484SOL    HW157291   9.489  10.500   1.891
18484SOL    HW257292   9.636  10.531   1.870
18485SOL     OW57293   8.287   6.684   0.017
18485SOL    HW157294   8.319   6.597   0.041
18485SOL    HW257295   8.360   6.743   0.036
18486SOL     OW57296   0.474   7.850   4.496
18486SOL    HW157297   0.474   7.937   4.535
18486SOL    HW257298   0.539   7.856   4.426
18487SOL     OW57299   1.460   1.844   2.384
18487SOL    HW157300   1.395   1.894   2.432
18487SOL    HW257301   1.511   1.798   2.452
18488SOL     OW57302  10.992  14.449   6.405
18488SOL    HW157303  11.007  14.541   6.385
18488SOL    HW257304  11.076  14.407   6.387
18489SOL     OW57305  13.271   9.390   1.769
18489SOL    HW157306  13.282   9.443   1.849
18489SOL    HW257307  13.240   9.305   1.801
18490SOL     OW57308  12.895   4.490   7.247
18490SOL    HW157309  12.830   4.419   7.242
18490SOL    HW257310  12.979   4.445   7.238
18491SOL     OW57311   2.240   2.525   8.303
18491SOL    HW157312   2.256   2.564   8.389
18491SOL    HW257313   2.250   2.431   8.318
18492SOL     OW57314  13.191   1.559   2.607
18492SOL    HW157315  13.251   1.489   2.583
18492SOL    HW257316  13.162   1.596   2.523
18493SOL     OW57317   2.858   2.883   8.173
18493SOL    HW157318   2.882   2.975   8.182
18493SOL    HW257319   2.884   2.843   8.256
18494SOL     OW57320   8.946   7.583   4.714
18494SOL    HW157321   9.017   7.577   4.778
18494SOL    HW257322   8.967   7.516   4.649
18495SOL     OW57323  14.776   6.226  12.406
18495SOL    HW157324  14.801   6.203  12.317
18495SOL    HW257325  14.689   6.188  12.417
18496SOL     OW57326  12.472   3.455  10.342
18496SOL    HW157327  12.425   3.411  10.271
18496SOL    HW257328  12.421   3.434  10.420
18497SOL     OW57329   2.471   9.401   3.902
18497SOL    HW157330   2.385   9.369   3.929
18497SOL    HW257331   2.519   9.414   3.984
18498SOL     OW57332   4.543  12.983  13.563
18498SOL    HW157333   4.635  12.965  13.542
18498SOL    HW257334   4.522  12.922  13.634
18499SOL     OW57335   8.592   9.103   8.215
18499SOL    HW157336   8.683   9.133   8.220
18499SOL    HW257337   8.541   9.183   8.201
18500SOL     OW57338  10.515  11.865  13.316
18500SOL    HW157339  10.507  11.899  13.405
18500SOL    HW257340  10.509  11.770  13.326
18501SOL     OW57341  12.374   3.193   4.886
18501SOL    HW157342  12.461   3.167   4.854
18501SOL    HW257343  12.380   3.288   4.898
18502SOL     OW57344  11.371  10.107  14.798
18502SOL    HW157345  11.386  10.099  14.704
18502SOL    HW257346  11.446  10.157  14.830
18503SOL     OW57347  12.026  14.587  10.595
18503SOL    HW157348  11.999  14.591  10.687
18503SOL    HW257349  12.046  14.494  10.580
18504SOL     OW57350   8.658   4.375   3.528
18504SOL    HW157351   8.679   4.329   3.609
18504SOL    HW257352   8.744   4.392   3.488
18505SOL     OW57353   1.513   6.838   0.938
18505SOL    HW157354   1.480   6.926   0.956
18505SOL    HW257355   1.587   6.852   0.879
18506SOL     OW57356  10.676  12.585   3.117
18506SOL    HW157357  10.758  12.621   3.150
18506SOL    HW257358  10.669  12.499   3.157
18507SOL     OW57359   8.079   2.533   3.075
18507SOL    HW157360   8.106   2.444   3.053
18507SOL    HW257361   8.016   2.556   3.007
18508SOL     OW57362   2.799   1.786  11.440
18508SOL    HW157363   2.859   1.806  11.368
18508SOL    HW257364   2.749   1.866  11.452
18509SOL     OW57365   3.547  14.468   1.417
18509SOL    HW157366   3.598  14.450   1.338
18509SOL    HW257367   3.483  14.397   1.422
18510SOL     OW57368   9.152   7.441   1.514
18510SOL    HW157369   9.162   7.358   1.560
18510SOL    HW257370   9.189   7.426   1.427
18511SOL     OW57371   2.645   6.148   8.060
18511SOL    HW157372   2.718   6.176   8.006
18511SOL    HW257373   2.585   6.105   7.999
18512SOL     OW57374   2.881  12.347  13.790
18512SOL    HW157375   2.806  12.357  13.731
18512SOL    HW257376   2.914  12.437  13.800
18513SOL     OW57377  12.455  11.527   9.597
18513SOL    HW157378  12.430  11.546   9.507
18513SOL    HW257379  12.395  11.457   9.624
18514SOL     OW57380  13.057  10.775  14.623
18514SOL    HW157381  13.001  10.698  14.640
18514SOL    HW257382  13.042  10.796  14.531
18515SOL     OW57383   7.230   5.161   3.642
18515SOL    HW157384   7.287   5.131   3.571
18515SOL    HW257385   7.181   5.234   3.605
18516SOL     OW57386   8.213   2.097   2.235
18516SOL    HW157387   8.245   2.138   2.316
18516SOL    HW257388   8.160   2.023   2.265
18517SOL     OW57389   3.170   9.170   0.605
18517SOL    HW157390   3.238   9.233   0.578
18517SOL    HW257391   3.179   9.098   0.542
18518SOL     OW57392   5.686   6.936   3.578
18518SOL    HW157393   5.620   6.924   3.645
18518SOL    HW257394   5.638   6.930   3.495
18519SOL     OW57395   1.940  10.259  10.542
18519SOL    HW157396   1.962  10.326  10.478
18519SOL    HW257397   1.978  10.179  10.506
18520SOL     OW57398   4.146   7.025   0.603
18520SOL    HW157399   4.104   6.962   0.544
18520SOL    HW257400   4.203   7.077   0.546
18521SOL     OW57401  14.471  11.417   3.853
18521SOL    HW157402  14.400  11.394   3.792
18521SOL    HW257403  14.426  11.433   3.936
18522SOL     OW57404   3.264   9.281  12.726
18522SOL    HW157405   3.325   9.355  12.728
18522SOL    HW257406   3.247   9.266  12.633
18523SOL     OW57407   6.747  10.944   1.862
18523SOL    HW157408   6.675  10.981   1.810
18523SOL    HW257409   6.729  10.850   1.865
18524SOL     OW57410   2.181  10.979  13.807
18524SOL    HW157411   2.213  10.889  13.796
18524SOL    HW257412   2.168  10.988  13.901
18525SOL     OW57413  14.043   6.062   0.719
18525SOL    HW157414  14.006   6.108   0.794
18525SOL    HW257415  14.110   6.005   0.756
18526SOL     OW57416   3.707  14.728   2.019
18526SOL    HW157417   3.759  14.757   2.094
18526SOL    HW257418   3.721  14.634   2.013
18527SOL     OW57419   5.912   1.917   1.438
18527SOL    HW157420   5.893   1.824   1.437
18527SOL    HW257421   5.937   1.936   1.529
18528SOL     OW57422   3.175  13.958  10.452
18528SOL    HW157423   3.118  13.890  10.415
18528SOL    HW257424   3.215  14.000  10.376
18529SOL     OW57425   1.728  14.794   3.375
18529SOL    HW157426   1.664  14.865   3.363
18529SOL    HW257427   1.793  14.809   3.307
18530SOL     OW57428   9.041   8.867   5.103
18530SOL    HW157429   9.119   8.814   5.117
18530SOL    HW257430   8.990   8.818   5.038
18531SOL     OW57431   8.311   7.438   5.804
18531SOL    HW157432   8.225   7.452   5.843
18531SOL    HW257433   8.333   7.348   5.828
18532SOL     OW57434   3.349   0.994  12.302
18532SOL    HW157435   3.300   1.071  12.274
18532SOL    HW257436   3.399   0.968  12.224
18533SOL     OW57437   1.644   6.399   7.011
18533SOL    HW157438   1.676   6.361   7.092
18533SOL    HW257439   1.656   6.493   7.022
18534SOL     OW57440   3.297  11.294  13.663
18534SOL    HW157441   3.264  11.384  13.673
18534SOL    HW257442   3.332  11.292  13.574
18535SOL     OW57443   7.169   8.382   6.300
18535SOL    HW157444   7.220   8.411   6.224
18535SOL    HW257445   7.082   8.419   6.286
18536SOL     OW57446   1.660   0.865   8.015
18536SOL    HW157447   1.614   0.799   7.963
18536SOL    HW257448   1.751   0.859   7.987
18537SOL     OW57449  11.915   0.518   7.136
18537SOL    HW157450  11.949   0.460   7.067
18537SOL    HW257451  11.992   0.537   7.190
18538SOL     OW57452   3.608   6.986   7.783
18538SOL    HW157453   3.577   7.047   7.716
18538SOL    HW257454   3.699   7.011   7.798
18539SOL     OW57455   0.744   4.857   1.917
18539SOL    HW157456   0.753   4.826   2.008
18539SOL    HW257457   0.721   4.778   1.868
18540SOL     OW57458  12.948   4.789  13.284
18540SOL    HW157459  13.017   4.823  13.341
18540SOL    HW257460  12.983   4.705  13.254
18541SOL     OW57461   6.797   2.463   8.135
18541SOL    HW157462   6.729   2.413   8.092
18541SOL    HW257463   6.840   2.400   8.194
18542SOL     OW57464  12.349   7.623  10.217
18542SOL    HW157465  12.257   7.598  10.214
18542SOL    HW257466  12.394   7.547  10.254
18543SOL     OW57467   2.116  12.565   5.543
18543SOL    HW157468   2.049  12.604   5.599
18543SOL    HW257469   2.094  12.597   5.455
18544SOL     OW57470   6.106   6.561  10.568
18544SOL    HW157471   6.020   6.538  10.534
18544SOL    HW257472   6.162   6.567  10.490
18545SOL     OW57473  14.848   6.854   9.542
18545SOL    HW157474  14.796   6.861   9.622
18545SOL    HW257475  14.813   6.922   9.484
18546SOL     OW57476   4.240  12.469   8.879
18546SOL    HW157477   4.322  12.478   8.928
18546SOL    HW257478   4.263  12.495   8.790
18547SOL     OW57479   4.714   3.001   2.663
18547SOL    HW157480   4.629   2.969   2.634
18547SOL    HW257481   4.777   2.937   2.629
18548SOL     OW57482   4.436   7.551   7.392
18548SOL    HW157483   4.387   7.517   7.317
18548SOL    HW257484   4.519   7.581   7.355
18549SOL     OW57485  12.774   9.237  13.747
18549SOL    HW157486  12.753   9.278  13.831
18549SOL    HW257487  12.772   9.309  13.684
18550SOL     OW57488  14.771  14.772  14.070
18550SOL    HW157489  14.786  14.782  14.164
18550SOL    HW257490  14.676  14.772  14.060
18551SOL     OW57491   8.787   7.454   9.642
18551SOL    HW157492   8.832   7.432   9.723
18551SOL    HW257493   8.814   7.385   9.581
18552SOL     OW57494   5.927   8.896  11.814
18552SOL    HW157495   6.004   8.918  11.762
18552SOL    HW257496   5.875   8.840  11.757
18553SOL     OW57497   2.506   7.541   7.605
18553SOL    HW157498   2.558   7.465   7.579
18553SOL    HW257499   2.466   7.515   7.688
18554SOL     OW57500  11.974   9.090   1.370
18554SOL    HW157501  11.978   9.149   1.294
18554SOL    HW257502  11.993   9.147   1.445
18555SOL     OW57503   0.813   3.912   9.678
18555SOL    HW157504   0.895   3.959   9.695
18555SOL    HW257505   0.809   3.904   9.583
18556SOL     OW57506   2.081  12.148  12.737
18556SOL    HW157507   2.014  12.109  12.793
18556SOL    HW257508   2.114  12.222  12.786
18557SOL     OW57509  13.235  11.273   1.570
18557SOL    HW157510  13.164  11.318   1.524
18557SOL    HW257511  13.208  11.274   1.662
18558SOL     OW57512  10.936   0.429   4.601
18558SOL    HW157513  10.937   0.427   4.505
18558SOL    HW257514  10.987   0.506   4.624
18559SOL     OW57515  13.392  12.958  10.593
18559SOL    HW157516  13.479  12.997  10.604
18559SOL    HW257517  13.343  12.988  10.670
18560SOL     OW57518  13.858   2.663  10.161
18560SOL    HW157519  13.795   2.727  10.130
18560SOL    HW257520  13.932   2.715  10.193
18561SOL     OW57521   7.614   2.437   5.009
18561SOL    HW157522   7.620   2.353   5.055
18561SOL    HW257523   7.679   2.493   5.052
18562SOL     OW57524  10.588   2.682   0.808
18562SOL    HW157525  10.591   2.770   0.846
18562SOL    HW257526  10.591   2.623   0.884
18563SOL     OW57527   9.862  11.830   7.635
18563SOL    HW157528   9.866  11.774   7.557
18563SOL    HW257529   9.855  11.769   7.708
18564SOL     OW57530  11.639   0.014  14.401
18564SOL    HW157531  11.706   0.040  14.338
18564SOL    HW257532  11.642  14.798  14.401
18565SOL     OW57533  12.428   7.625   5.302
18565SOL    HW157534  12.515   7.634   5.340
18565SOL    HW257535  12.373   7.596   5.374
18566SOL     OW57536   5.516   4.171   0.915
18566SOL    HW157537   5.537   4.264   0.925
18566SOL    HW257538   5.468   4.167   0.832
18567SOL     OW57539   8.369   5.427   7.252
18567SOL    HW157540   8.407   5.508   7.218
18567SOL    HW257541   8.364   5.369   7.177
18568SOL     OW57542  10.937  11.930  12.842
18568SOL    HW157543  11.000  11.873  12.798
18568SOL    HW257544  10.864  11.936  12.781
18569SOL     OW57545   3.563   9.824  12.246
18569SOL    HW157546   3.657   9.824  12.224
18569SOL    HW257547   3.533   9.911  12.218
18570SOL     OW57548   3.884   7.571  11.425
18570SOL    HW157549   3.899   7.661  11.451
18570SOL    HW257550   3.796   7.571  11.388
18571SOL     OW57551   9.099  11.707  10.680
18571SOL    HW157552   9.027  11.744  10.630
18571SOL    HW257553   9.168  11.693  10.616
18572SOL     OW57554   4.543   2.878   6.211
18572SOL    HW157555   4.487   2.941   6.256
18572SOL    HW257556   4.492   2.850   6.135
18573SOL     OW57557   3.238  14.233   8.685
18573SOL    HW157558   3.310  14.181   8.719
18573SOL    HW257559   3.270  14.267   8.601
18574SOL     OW57560  13.548   9.892   3.199
18574SOL    HW157561  13.580   9.818   3.148
18574SOL    HW257562  13.490   9.853   3.265
18575SOL     OW57563  11.057   9.069   7.690
18575SOL    HW157564  11.130   9.012   7.666
18575SOL    HW257565  11.041   9.122   7.612
18576SOL     OW57566  14.433   4.707   8.573
18576SOL    HW157567  14.347   4.685   8.609
18576SOL    HW257568  14.426   4.687   8.480
18577SOL     OW57569  11.755   2.304   1.007
18577SOL    HW157570  11.663   2.289   1.027
18577SOL    HW257571  11.773   2.247   0.932
18578SOL     OW57572  14.664   5.143   3.353
18578SOL    HW157573  14.690   5.080   3.287
18578SOL    HW257574  14.693   5.228   3.318
18579SOL     OW57575  13.487  13.158   4.717
18579SOL    HW157576  13.526  13.154   4.804
18579SOL    HW257577  13.456  13.069   4.699
18580SOL     OW57578  14.837  12.826  13.170
18580SOL    HW157579  14.778  12.752  13.159
18580SOL    HW257580  14.842  12.840  13.264
18581SOL     OW57581   4.973   2.308   7.697
18581SOL    HW157582   4.985   2.267   7.612
18581SOL    HW257583   4.967   2.401   7.678
18582SOL     OW57584   9.210   7.079   0.058
18582SOL    HW157585   9.298   7.076   0.021
18582SOL    HW257586   9.182   6.988   0.063
18583SOL     OW57587  13.440  13.169  11.048
18583SOL    HW157588  13.502  13.239  11.066
18583SOL    HW257589  13.354  13.210  11.056
18584SOL     OW57590  11.642   8.285   4.136
18584SOL    HW157591  11.574   8.289   4.070
18584SOL    HW257592  11.650   8.192   4.158
18585SOL     OW57593   5.899   9.042  10.153
18585SOL    HW157594   5.826   8.988  10.185
18585SOL    HW257595   5.858   9.105  10.094
18586SOL     OW57596   8.999   9.571   7.910
18586SOL    HW157597   8.958   9.612   7.834
18586SOL    HW257598   9.022   9.483   7.881
18587SOL     OW57599   3.982   8.995   4.204
18587SOL    HW157600   4.059   8.991   4.261
18587SOL    HW257601   4.017   9.017   4.118
18588SOL     OW57602  12.142   6.624   7.806
18588SOL    HW157603  12.211   6.684   7.777
18588SOL    HW257604  12.141   6.555   7.740
18589SOL     OW57605   6.449   6.820  14.195
18589SOL    HW157606   6.371   6.769  14.175
18589SOL    HW257607   6.431   6.860  14.280
18590SOL     OW57608   2.457   1.311  12.243
18590SOL    HW157609   2.460   1.230  12.193
18590SOL    HW257610   2.419   1.287  12.327
18591SOL     OW57611   7.921  11.234  13.280
18591SOL    HW157612   7.848  11.263  13.225
18591SOL    HW257613   7.999  11.249  13.227
18592SOL     OW57614   4.215  10.063  14.569
18592SOL    HW157615   4.180  10.038  14.483
18592SOL    HW257616   4.309  10.045  14.564
18593SOL     OW57617  11.996   5.993  12.524
18593SOL    HW157618  11.904   5.992  12.495
18593SOL    HW257619  12.046   5.992  12.442
18594SOL     OW57620   7.979  13.671  10.532
18594SOL    HW157621   8.036  13.688  10.608
18594SOL    HW257622   8.028  13.703  10.457
18595SOL     OW57623  12.323   9.888  14.308
18595SOL    HW157624  12.244   9.941  14.317
18595SOL    HW257625  12.291   9.801  14.285
18596SOL     OW57626   5.285  12.081   0.959
18596SOL    HW157627   5.291  12.002   1.013
18596SOL    HW257628   5.293  12.049   0.869
18597SOL     OW57629   6.960  11.919  11.186
18597SOL    HW157630   6.963  11.945  11.094
18597SOL    HW257631   7.045  11.948  11.221
18598SOL     OW57632   4.326   6.087  11.286
18598SOL    HW157633   4.383   6.016  11.258
18598SOL    HW257634   4.250   6.081  11.228
18599SOL     OW57635   5.538  12.655   1.944
18599SOL    HW157636   5.511  12.572   1.905
18599SOL    HW257637   5.529  12.642   2.038
18600SOL     OW57638  12.612  10.900   8.364
18600SOL    HW157639  12.594  10.826   8.422
18600SOL    HW257640  12.574  10.976   8.407
18601SOL     OW57641   4.980   9.942   4.825
18601SOL    HW157642   4.944   9.854   4.829
18601SOL    HW257643   5.073   9.930   4.809
18602SOL     OW57644   1.911  10.862   1.770
18602SOL    HW157645   1.973  10.800   1.731
18602SOL    HW257646   1.841  10.808   1.805
18603SOL     OW57647   5.614   5.749  11.997
18603SOL    HW157648   5.560   5.789  12.065
18603SOL    HW257649   5.572   5.774  11.915
18604SOL     OW57650   9.079   9.602   6.850
18604SOL    HW157651   9.079   9.538   6.921
18604SOL    HW257652   9.050   9.684   6.891
18605SOL     OW57653   5.381  12.775   3.945
18605SOL    HW157654   5.286  12.784   3.951
18605SOL    HW257655   5.400  12.786   3.851
18606SOL     OW57656  10.587  12.431   7.722
18606SOL    HW157657  10.576  12.428   7.817
18606SOL    HW257658  10.681  12.445   7.710
18607SOL     OW57659  12.566   5.685   5.852
18607SOL    HW157660  12.629   5.745   5.813
18607SOL    HW257661  12.489   5.740   5.871
18608SOL     OW57662   4.750  13.528  13.543
18608SOL    HW157663   4.736  13.604  13.486
18608SOL    HW257664   4.784  13.565  13.625
18609SOL     OW57665   7.199   4.620  11.044
18609SOL    HW157666   7.126   4.680  11.033
18609SOL    HW257667   7.173   4.561  11.115
18610SOL     OW57668  10.617   4.014   2.915
18610SOL    HW157669  10.710   3.991   2.919
18610SOL    HW257670  10.609   4.092   2.970
18611SOL     OW57671   3.853   2.714  11.342
18611SOL    HW157672   3.848   2.703  11.247
18611SOL    HW257673   3.869   2.808  11.354
18612SOL     OW57674   7.456   2.144   4.753
18612SOL    HW157675   7.419   2.127   4.840
18612SOL    HW257676   7.455   2.239   4.745
18613SOL     OW57677   3.159  14.439   0.717
18613SOL    HW157678   3.245  14.457   0.678
18613SOL    HW257679   3.128  14.360   0.673
18614SOL     OW57680   5.313   1.189   5.497
18614SOL    HW157681   5.218   1.185   5.506
18614SOL    HW257682   5.340   1.097   5.500
18615SOL     OW57683   8.299  12.585   6.329
18615SOL    HW157684   8.318  12.644   6.402
18615SOL    HW257685   8.356  12.510   6.343
18616SOL     OW57686   1.820   4.446  14.472
18616SOL    HW157687   1.823   4.352  14.457
18616SOL    HW257688   1.749   4.459  14.536
18617SOL     OW57689   5.890  14.014   3.305
18617SOL    HW157690   5.855  14.057   3.227
18617SOL    HW257691   5.826  14.032   3.374
18618SOL     OW57692   3.927   3.493   5.164
18618SOL    HW157693   3.971   3.484   5.080
18618SOL    HW257694   3.983   3.553   5.214
18619SOL     OW57695   8.373  13.704  14.683
18619SOL    HW157696   8.297  13.731  14.631
18619SOL    HW257697   8.356  13.742  14.770
18620SOL     OW57698  12.512  12.894  12.212
18620SOL    HW157699  12.557  12.867  12.132
18620SOL    HW257700  12.506  12.990  12.205
18621SOL     OW57701   5.448  13.976   7.735
18621SOL    HW157702   5.446  14.072   7.736
18621SOL    HW257703   5.425  13.951   7.825
18622SOL     OW57704  14.365   2.913   0.504
18622SOL    HW157705  14.334   2.933   0.416
18622SOL    HW257706  14.460   2.924   0.499
18623SOL     OW57707   3.445   3.798   7.657
18623SOL    HW157708   3.538   3.777   7.667
18623SOL    HW257709   3.441   3.894   7.660
18624SOL     OW57710   3.683  10.303   5.822
18624SOL    HW157711   3.751  10.306   5.888
18624SOL    HW257712   3.712  10.365   5.754
18625SOL     OW57713  14.135   7.743   0.513
18625SOL    HW157714  14.053   7.746   0.564
18625SOL    HW257715  14.188   7.813   0.550
18626SOL     OW57716   5.825   9.009  12.581
18626SOL    HW157717   5.880   9.085  12.562
18626SOL    HW257718   5.751   9.019  12.520
18627SOL     OW57719   2.456   8.072   1.732
18627SOL    HW157720   2.377   8.083   1.785
18627SOL    HW257721   2.472   7.977   1.732
18628SOL     OW57722   1.764  12.031   6.846
18628SOL    HW157723   1.710  12.103   6.879
18628SOL    HW257724   1.852  12.069   6.838
18629SOL     OW57725   8.008  13.002   4.655
18629SOL    HW157726   8.096  13.038   4.640
18629SOL    HW257727   7.949  13.070   4.624
18630SOL     OW57728   1.373   3.354   6.076
18630SOL    HW157729   1.465   3.379   6.070
18630SOL    HW257730   1.329   3.410   6.011
18631SOL     OW57731  14.222   9.959   9.778
18631SOL    HW157732  14.299  10.014   9.764
18631SOL    HW257733  14.239   9.880   9.726
18632SOL     OW57734   0.174   1.077   7.357
18632SOL    HW157735   0.241   1.111   7.297
18632SOL    HW257736   0.098   1.133   7.342
18633SOL     OW57737   7.579   8.000   7.789
18633SOL    HW157738   7.656   8.051   7.764
18633SOL    HW257739   7.565   8.020   7.881
18634SOL     OW57740   8.264  11.396  13.769
18634SOL    HW157741   8.339  11.439  13.810
18634SOL    HW257742   8.210  11.468  13.736
18635SOL     OW57743  14.168   3.202   5.183
18635SOL    HW157744  14.114   3.123   5.182
18635SOL    HW257745  14.111   3.270   5.221
18636SOL     OW57746  12.079  14.564   3.418
18636SOL    HW157747  12.125  14.628   3.472
18636SOL    HW257748  12.146  14.526   3.362
18637SOL     OW57749   5.747   9.118   3.779
18637SOL    HW157750   5.730   9.027   3.805
18637SOL    HW257751   5.841   9.129   3.793
18638SOL     OW57752  14.862   2.836   1.162
18638SOL    HW157753   0.045   2.908   1.155
18638SOL    HW257754  14.798   2.865   1.227
18639SOL     OW57755   7.289  14.557   6.326
18639SOL    HW157756   7.309  14.463   6.327
18639SOL    HW257757   7.198  14.563   6.354
18640SOL     OW57758  10.414  14.433  12.577
18640SOL    HW157759  10.389  14.503  12.638
18640SOL    HW257760  10.337  14.421  12.522
18641SOL     OW57761  12.324  13.681   6.575
18641SOL    HW157762  12.355  13.602   6.533
18641SOL    HW257763  12.298  13.653   6.663
18642SOL     OW57764   0.850   4.131   9.086
18642SOL    HW157765   0.791   4.128   9.011
18642SOL    HW257766   0.793   4.145   9.162
18643SOL     OW57767   5.357   0.074   9.755
18643SOL    HW157768   5.287   0.111   9.809
18643SOL    HW257769   5.324   0.082   9.666
18644SOL     OW57770  14.800  12.642   0.374
18644SOL    HW157771  14.844  12.664   0.292
18644SOL    HW257772  14.844  12.562   0.403
18645SOL     OW57773  11.732  14.722  13.253
18645SOL    HW157774  11.780  14.641  13.239
18645SOL    HW257775  11.798  14.791  13.246
18646SOL     OW57776  14.032  12.873   8.863
18646SOL    HW157777  13.967  12.832   8.806
18646SOL    HW257778  13.996  12.959   8.883
18647SOL     OW57779  11.823   3.011  10.005
18647SOL    HW157780  11.774   3.056   9.936
18647SOL    HW257781  11.768   3.018  10.082
18648SOL     OW57782  10.062   3.556   4.682
18648SOL    HW157783  10.082   3.648   4.699
18648SOL    HW257784  10.040   3.520   4.769
18649SOL     OW57785   0.658  11.635  13.846
18649SOL    HW157786   0.595  11.616  13.915
18649SOL    HW257787   0.716  11.702  13.883
18650SOL     OW57788   8.834   6.129   2.244
18650SOL    HW157789   8.868   6.171   2.166
18650SOL    HW257790   8.797   6.200   2.296
18651SOL     OW57791   3.566  12.270   1.319
18651SOL    HW157792   3.536  12.180   1.324
18651SOL    HW257793   3.635  12.276   1.385
18652SOL     OW57794  12.938   4.920  10.235
18652SOL    HW157795  12.969   4.994  10.183
18652SOL    HW257796  12.852   4.899  10.199
18653SOL     OW57797   0.434  14.845  13.537
18653SOL    HW157798   0.424  14.770  13.479
18653SOL    HW257799   0.435   0.041  13.478
18654SOL     OW57800  14.000  13.618   2.237
18654SOL    HW157801  13.985  13.712   2.249
18654SOL    HW257802  14.039  13.589   2.320
18655SOL     OW57803   2.378   0.306  12.810
18655SOL    HW157804   2.334   0.388  12.832
18655SOL    HW257805   2.390   0.310  12.716
18656SOL     OW57806   3.643   3.024   4.184
18656SOL    HW157807   3.705   3.096   4.195
18656SOL    HW257808   3.601   3.014   4.269
18657SOL     OW57809   7.311   2.489   1.420
18657SOL    HW157810   7.253   2.565   1.416
18657SOL    HW257811   7.396   2.524   1.446
18658SOL     OW57812   6.617  10.132  13.975
18658SOL    HW157813   6.529  10.147  13.941
18658SOL    HW257814   6.675  10.143  13.899
18659SOL     OW57815  12.391  11.500   7.791
18659SOL    HW157816  12.442  11.500   7.709
18659SOL    HW257817  12.341  11.419   7.788
18660SOL     OW57818  13.978  13.572   1.926
18660SOL    HW157819  14.018  13.595   2.010
18660SOL    HW257820  13.931  13.651   1.900
18661SOL     OW57821   3.193  11.395  12.888
18661SOL    HW157822   3.156  11.379  12.801
18661SOL    HW257823   3.191  11.309  12.931
18662SOL     OW57824  12.683  13.652   5.754
18662SOL    HW157825  12.674  13.663   5.849
18662SOL    HW257826  12.753  13.713   5.730
18663SOL     OW57827   1.451   4.785  14.718
18663SOL    HW157828   1.425   4.697  14.689
18663SOL    HW257829   1.543   4.792  14.694
18664SOL     OW57830   5.518   2.706  13.457
18664SOL    HW157831   5.503   2.638  13.522
18664SOL    HW257832   5.588   2.672  13.402
18665SOL     OW57833   5.681   1.295  11.747
18665SOL    HW157834   5.604   1.251  11.784
18665SOL    HW257835   5.750   1.281  11.812
18666SOL     OW57836   7.154  12.293   0.371
18666SOL    HW157837   7.101  12.295   0.451
18666SOL    HW257838   7.138  12.378   0.330
18667SOL     OW57839   7.967   1.955   5.046
18667SOL    HW157840   8.048   1.934   5.092
18667SOL    HW257841   7.987   1.937   4.953
18668SOL     OW57842   5.303   6.323   5.458
18668SOL    HW157843   5.266   6.263   5.393
18668SOL    HW257844   5.317   6.269   5.535
18669SOL     OW57845   2.545  11.142   0.321
18669SOL    HW157846   2.523  11.235   0.323
18669SOL    HW257847   2.605  11.129   0.394
18670SOL     OW57848   6.411   8.433   0.874
18670SOL    HW157849   6.419   8.528   0.885
18670SOL    HW257850   6.480   8.411   0.811
18671SOL     OW57851   4.444  10.530  11.087
18671SOL    HW157852   4.428  10.560  11.176
18671SOL    HW257853   4.387  10.454  11.076
18672SOL     OW57854   7.611  12.270  12.122
18672SOL    HW157855   7.550  12.229  12.060
18672SOL    HW257856   7.663  12.198  12.156
18673SOL     OW57857   0.892   4.413   3.268
18673SOL    HW157858   0.799   4.433   3.274
18673SOL    HW257859   0.909   4.405   3.175
18674SOL     OW57860   0.241   4.678  13.329
18674SOL    HW157861   0.169   4.671  13.266
18674SOL    HW257862   0.281   4.591  13.330
18675SOL     OW57863   7.840  10.033  11.316
18675SOL    HW157864   7.903   9.967  11.343
18675SOL    HW257865   7.871  10.063  11.231
18676SOL     OW57866  14.024   2.756  11.354
18676SOL    HW157867  14.119   2.745  11.343
18676SOL    HW257868  14.011   2.769  11.448
18677SOL     OW57869   7.814   0.650   8.965
18677SOL    HW157870   7.771   0.616   8.886
18677SOL    HW257871   7.898   0.605   8.968
18678SOL     OW57872   3.822  14.763   2.249
18678SOL    HW157873   3.782  14.694   2.303
18678SOL    HW257874   3.882  14.808   2.308
18679SOL     OW57875  11.395  13.799   2.535
18679SOL    HW157876  11.480  13.756   2.542
18679SOL    HW257877  11.346  13.745   2.472
18680SOL     OW57878   7.955   6.282   5.944
18680SOL    HW157879   7.896   6.357   5.953
18680SOL    HW257880   7.900   6.206   5.961
18681SOL     OW57881   6.624  14.305  12.008
18681SOL    HW157882   6.681  14.229  11.998
18681SOL    HW257883   6.538  14.268  12.026
18682SOL     OW57884   4.773   7.566   0.153
18682SOL    HW157885   4.790   7.659   0.165
18682SOL    HW257886   4.713   7.543   0.224
18683SOL     OW57887   6.962   8.887   2.074
18683SOL    HW157888   6.989   8.795   2.078
18683SOL    HW257889   7.022   8.931   2.134
18684SOL     OW57890   2.417   7.326  11.681
18684SOL    HW157891   2.359   7.399  11.659
18684SOL    HW257892   2.473   7.317  11.605
18685SOL     OW57893   5.767   8.710  11.671
18685SOL    HW157894   5.812   8.745  11.594
18685SOL    HW257895   5.691   8.664  11.636
18686SOL     OW57896   5.987   1.523  11.912
18686SOL    HW157897   5.983   1.427  11.910
18686SOL    HW257898   5.930   1.548  11.985
18687SOL     OW57899   5.370  13.474  13.468
18687SOL    HW157900   5.339  13.495  13.380
18687SOL    HW257901   5.325  13.535  13.525
18688SOL     OW57902   1.190  12.249   5.214
18688SOL    HW157903   1.201  12.283   5.302
18688SOL    HW257904   1.202  12.325   5.157
18689SOL     OW57905  11.113  13.765  13.436
18689SOL    HW157906  11.097  13.709  13.360
18689SOL    HW257907  11.149  13.705  13.502
18690SOL     OW57908  14.277   8.960   9.258
18690SOL    HW157909  14.201   8.960   9.317
18690SOL    HW257910  14.325   8.880   9.281
18691SOL     OW57911  13.791  12.154   7.356
18691SOL    HW157912  13.727  12.210   7.400
18691SOL    HW257913  13.738  12.104   7.293
18692SOL     OW57914   8.791   9.235   9.144
18692SOL    HW157915   8.857   9.240   9.213
18692SOL    HW257916   8.733   9.310   9.161
18693SOL     OW57917   8.331   2.256   8.970
18693SOL    HW157918   8.318   2.183   8.910
18693SOL    HW257919   8.345   2.332   8.913
18694SOL     OW57920   6.646  13.816   8.404
18694SOL    HW157921   6.739  13.834   8.417
18694SOL    HW257922   6.601  13.892   8.440
18695SOL     OW57923   4.203  12.798   4.088
18695SOL    HW157924   4.258  12.853   4.031
18695SOL    HW257925   4.115  12.807   4.051
18696SOL     OW57926  12.928  13.939  14.816
18696SOL    HW157927  12.845  13.983  14.799
18696SOL    HW257928  12.919  13.854  14.774
18697SOL     OW57929   8.778   1.405  10.393
18697SOL    HW157930   8.706   1.465  10.409
18697SOL    HW257931   8.760   1.369  10.306
18698SOL     OW57932  13.968   0.403  14.188
18698SOL    HW157933  13.959   0.378  14.096
18698SOL    HW257934  14.010   0.488  14.185
18699SOL     OW57935  11.979   7.782   3.941
18699SOL    HW157936  12.018   7.854   3.891
18699SOL    HW257937  12.015   7.793   4.029
18700SOL     OW57938   1.956   5.256  13.506
18700SOL    HW157939   2.052   5.255  13.506
18700SOL    HW257940   1.932   5.234  13.596
18701SOL     OW57941  13.745   7.975  11.180
18701SOL    HW157942  13.678   8.039  11.204
18701SOL    HW257943  13.748   7.978  11.084
18702SOL     OW57944   8.486   4.596   1.007
18702SOL    HW157945   8.515   4.618   0.918
18702SOL    HW257946   8.441   4.512   0.997
18703SOL     OW57947  13.354  13.866   4.262
18703SOL    HW157948  13.275  13.819   4.291
18703SOL    HW257949  13.347  13.952   4.304
18704SOL     OW57950   6.847   3.811   4.795
18704SOL    HW157951   6.865   3.728   4.750
18704SOL    HW257952   6.922   3.824   4.853
18705SOL     OW57953   9.967   2.325   0.122
18705SOL    HW157954   9.948   2.272   0.045
18705SOL    HW257955  10.052   2.365   0.104
18706SOL     OW57956  10.622   6.060  10.120
18706SOL    HW157957  10.571   5.980  10.122
18706SOL    HW257958  10.558   6.130  10.134
18707SOL     OW57959   9.470   2.978  11.277
18707SOL    HW157960   9.551   3.007  11.235
18707SOL    HW257961   9.415   2.948  11.204
18708SOL     OW57962  11.180   7.447   7.878
18708SOL    HW157963  11.269   7.422   7.854
18708SOL    HW257964  11.168   7.413   7.966
18709SOL     OW57965   2.043   3.155   4.071
18709SOL    HW157966   2.036   3.122   3.981
18709SOL    HW257967   2.104   3.229   4.064
18710SOL     OW57968   8.968  10.277   9.045
18710SOL    HW157969   8.880  10.249   9.069
18710SOL    HW257970   9.016  10.278   9.127
18711SOL     OW57971   8.189   5.154  14.382
18711SOL    HW157972   8.206   5.222  14.317
18711SOL    HW257973   8.098   5.169  14.409
18712SOL     OW57974   4.128   7.703  14.751
18712SOL    HW157975   4.140   7.737  14.839
18712SOL    HW257976   4.203   7.644  14.737
18713SOL     OW57977   9.492   3.642  12.154
18713SOL    HW157978   9.519   3.554  12.126
18713SOL    HW257979   9.558   3.700  12.116
18714SOL     OW57980   3.544   9.425   2.970
18714SOL    HW157981   3.482   9.408   2.899
18714SOL    HW257982   3.560   9.519   2.966
18715SOL     OW57983   0.847   3.648   3.279
18715SOL    HW157984   0.773   3.669   3.336
18715SOL    HW257985   0.854   3.553   3.284
18716SOL     OW57986   0.228   4.743   7.764
18716SOL    HW157987   0.212   4.783   7.849
18716SOL    HW257988   0.162   4.674   7.757
18717SOL     OW57989   6.667   3.103  13.797
18717SOL    HW157990   6.729   3.038  13.764
18717SOL    HW257991   6.581   3.061  13.788
18718SOL     OW57992   4.682   3.721   6.287
18718SOL    HW157993   4.766   3.710   6.242
18718SOL    HW257994   4.627   3.766   6.223
18719SOL     OW57995   5.648  14.043   3.669
18719SOL    HW157996   5.647  14.064   3.762
18719SOL    HW257997   5.735  14.006   3.654
18720SOL     OW57998  10.132  13.340   0.664
18720SOL    HW157999  10.203  13.282   0.637
18720SOL    HW258000  10.164  13.380   0.745
18721SOL     OW58001   7.699   1.765   5.515
18721SOL    HW158002   7.632   1.772   5.447
18721SOL    HW258003   7.715   1.671   5.524
18722SOL     OW58004   9.305  10.024   1.531
18722SOL    HW158005   9.213  10.037   1.505
18722SOL    HW258006   9.349   9.998   1.450
18723SOL     OW58007  13.338   0.181   4.283
18723SOL    HW158008  13.298   0.267   4.283
18723SOL    HW258009  13.265   0.120   4.280
18724SOL     OW58010  11.180  11.749  10.686
18724SOL    HW158011  11.092  11.732  10.719
18724SOL    HW258012  11.225  11.793  10.758
18725SOL     OW58013   8.575   8.881   5.665
18725SOL    HW158014   8.546   8.888   5.574
18725SOL    HW258015   8.622   8.798   5.669
18726SOL     OW58016   1.167   6.260   2.388
18726SOL    HW158017   1.104   6.295   2.451
18726SOL    HW258018   1.179   6.330   2.324
18727SOL     OW58019   1.551   8.258   0.489
18727SOL    HW158020   1.520   8.327   0.548
18727SOL    HW258021   1.638   8.236   0.522
18728SOL     OW58022   0.232   3.039   2.222
18728SOL    HW158023   0.220   3.082   2.307
18728SOL    HW258024   0.205   3.104   2.158
18729SOL     OW58025  10.109  13.238   7.880
18729SOL    HW158026  10.096  13.157   7.832
18729SOL    HW258027  10.182  13.282   7.835
18730SOL     OW58028   9.969   1.795   7.997
18730SOL    HW158029   9.906   1.839   7.939
18730SOL    HW258030  10.002   1.864   8.054
18731SOL     OW58031   0.807  12.364   0.569
18731SOL    HW158032   0.761  12.448   0.564
18731SOL    HW258033   0.882  12.381   0.627
18732SOL     OW58034   2.379  14.419  12.501
18732SOL    HW158035   2.404  14.456  12.417
18732SOL    HW258036   2.424  14.473  12.566
18733SOL     OW58037   5.611   7.444   6.011
18733SOL    HW158038   5.531   7.398   5.985
18733SOL    HW258039   5.668   7.376   6.045
18734SOL     OW58040   7.489   6.677  12.597
18734SOL    HW158041   7.549   6.749  12.618
18734SOL    HW258042   7.403   6.718  12.591
18735SOL     OW58043   2.618  10.256  11.301
18735SOL    HW158044   2.682  10.186  11.285
18735SOL    HW258045   2.670  10.335  11.309
18736SOL     OW58046  12.941  11.223   2.745
18736SOL    HW158047  13.005  11.269   2.690
18736SOL    HW258048  12.987  11.206   2.827
18737SOL     OW58049   9.472  13.848  12.782
18737SOL    HW158050   9.498  13.939  12.772
18737SOL    HW258051   9.381  13.845  12.750
18738SOL     OW58052  14.006   7.231   5.778
18738SOL    HW158053  13.976   7.146   5.810
18738SOL    HW258054  13.962   7.242   5.694
18739SOL     OW58055   2.304  11.612   6.618
18739SOL    HW158056   2.392  11.647   6.632
18739SOL    HW258057   2.311  11.561   6.537
18740SOL     OW58058   0.470   1.688  13.811
18740SOL    HW158059   0.488   1.633  13.734
18740SOL    HW258060   0.545   1.676  13.868
18741SOL     OW58061   3.018   0.961   5.014
18741SOL    HW158062   2.994   0.916   5.095
18741SOL    HW258063   2.935   0.990   4.977
18742SOL     OW58064   8.398   8.806   1.254
18742SOL    HW158065   8.387   8.727   1.202
18742SOL    HW258066   8.460   8.781   1.322
18743SOL     OW58067   2.305   0.347   2.323
18743SOL    HW158068   2.218   0.369   2.358
18743SOL    HW258069   2.316   0.254   2.343
18744SOL     OW58070  12.473   0.269  11.698
18744SOL    HW158071  12.501   0.274  11.789
18744SOL    HW258072  12.530   0.203  11.658
18745SOL     OW58073  14.610   5.364   0.526
18745SOL    HW158074  14.570   5.294   0.474
18745SOL    HW258075  14.550   5.438   0.517
18746SOL     OW58076  12.270   6.693   7.552
18746SOL    HW158077  12.208   6.765   7.564
18746SOL    HW258078  12.222   6.628   7.500
18747SOL     OW58079   5.173  13.663   7.870
18747SOL    HW158080   5.184  13.730   7.802
18747SOL    HW258081   5.261  13.631   7.888
18748SOL     OW58082  12.613   0.058   7.953
18748SOL    HW158083  12.532   0.008   7.940
18748SOL    HW258084  12.648   0.071   7.865
18749SOL     OW58085   1.218   2.389  14.717
18749SOL    HW158086   1.200   2.478  14.748
18749SOL    HW258087   1.240   2.340  14.796
18750SOL     OW58088  13.244  10.061   8.092
18750SOL    HW158089  13.179  10.071   8.161
18750SOL    HW258090  13.321  10.025   8.137
18751SOL     OW58091  14.448   0.424   7.225
18751SOL    HW158092  14.520   0.422   7.162
18751SOL    HW258093  14.416   0.514   7.222
18752SOL     OW58094   1.164   6.038   8.028
18752SOL    HW158095   1.075   6.053   7.997
18752SOL    HW258096   1.202   5.978   7.964
18753SOL     OW58097   6.375   5.561   0.070
18753SOL    HW158098   6.418   5.624   0.127
18753SOL    HW258099   6.286   5.553   0.105
18754SOL     OW58100   2.527  10.414   2.890
18754SOL    HW158101   2.523  10.461   2.973
18754SOL    HW258102   2.470  10.338   2.904
18755SOL     OW58103   6.152   3.581   4.013
18755SOL    HW158104   6.098   3.658   3.992
18755SOL    HW258105   6.242   3.614   4.012
18756SOL     OW58106   3.478   6.353   7.130
18756SOL    HW158107   3.406   6.326   7.186
18756SOL    HW258108   3.507   6.437   7.166
18757SOL     OW58109  14.676  14.278   2.751
18757SOL    HW158110  14.732  14.331   2.693
18757SOL    HW258111  14.716  14.191   2.750
18758SOL     OW58112   3.602   3.015   5.745
18758SOL    HW158113   3.641   2.927   5.743
18758SOL    HW258114   3.565   3.022   5.834
18759SOL     OW58115   7.746  10.044  12.678
18759SOL    HW158116   7.800   9.998  12.742
18759SOL    HW258117   7.780  10.133  12.676
18760SOL     OW58118   2.347   0.741  13.988
18760SOL    HW158119   2.380   0.828  13.964
18760SOL    HW258120   2.253   0.744  13.967
18761SOL     OW58121   2.716  11.258   9.252
18761SOL    HW158122   2.779  11.205   9.203
18761SOL    HW258123   2.634  11.248   9.203
18762SOL     OW58124   0.502   3.434   3.956
18762SOL    HW158125   0.527   3.489   3.882
18762SOL    HW258126   0.585   3.409   3.996
18763SOL     OW58127   4.958   6.375   3.913
18763SOL    HW158128   4.925   6.399   3.999
18763SOL    HW258129   5.047   6.410   3.910
18764SOL     OW58130   6.568   3.108   4.975
18764SOL    HW158131   6.480   3.136   4.951
18764SOL    HW258132   6.621   3.125   4.897
18765SOL     OW58133   4.334   9.626   1.102
18765SOL    HW158134   4.241   9.647   1.117
18765SOL    HW258135   4.339   9.604   1.009
18766SOL     OW58136   3.884  13.517   6.370
18766SOL    HW158137   3.850  13.599   6.405
18766SOL    HW258138   3.819  13.451   6.395
18767SOL     OW58139  13.343   6.953   1.311
18767SOL    HW158140  13.253   6.972   1.336
18767SOL    HW258141  13.396   7.011   1.367
18768SOL     OW58142   4.974   8.993   4.973
18768SOL    HW158143   4.956   9.087   4.967
18768SOL    HW258144   5.043   8.986   5.039
18769SOL     OW58145   2.954  11.095   6.940
18769SOL    HW158146   2.933  11.066   7.029
18769SOL    HW258147   3.015  11.168   6.952
18770SOL     OW58148  11.648   3.591   1.672
18770SOL    HW158149  11.559   3.609   1.703
18770SOL    HW258150  11.670   3.666   1.618
18771SOL     OW58151   9.371   9.797  12.359
18771SOL    HW158152   9.432   9.731  12.392
18771SOL    HW258153   9.342   9.843  12.438
18772SOL     OW58154   0.092   3.288   8.788
18772SOL    HW158155   0.008   3.241   8.794
18772SOL    HW258156   0.095   3.341   8.868
18773SOL     OW58157  10.421   7.804   4.627
18773SOL    HW158158  10.383   7.849   4.552
18773SOL    HW258159  10.513   7.830   4.626
18774SOL     OW58160  12.097   8.309  12.980
18774SOL    HW158161  12.170   8.360  13.014
18774SOL    HW258162  12.136   8.249  12.916
18775SOL     OW58163   8.149  10.918   3.459
18775SOL    HW158164   8.215  10.929   3.391
18775SOL    HW258165   8.180  10.974   3.531
18776SOL     OW58166   2.916   4.968   2.485
18776SOL    HW158167   2.897   5.031   2.415
18776SOL    HW258168   3.012   4.968   2.491
18777SOL     OW58169  12.079   9.129  10.383
18777SOL    HW158170  12.046   9.053  10.334
18777SOL    HW258171  12.174   9.122  10.376
18778SOL     OW58172   4.366   6.277   4.428
18778SOL    HW158173   4.392   6.252   4.340
18778SOL    HW258174   4.271   6.282   4.425
18779SOL     OW58175   7.404  10.145   5.984
18779SOL    HW158176   7.363  10.067   6.022
18779SOL    HW258177   7.439  10.115   5.900
18780SOL     OW58178   3.967  13.124   6.261
18780SOL    HW158179   3.987  13.031   6.261
18780SOL    HW258180   3.875  13.129   6.288
18781SOL     OW58181   8.637   3.729   2.117
18781SOL    HW158182   8.590   3.803   2.079
18781SOL    HW258183   8.715   3.719   2.062
18782SOL     OW58184   8.133   6.633   2.415
18782SOL    HW158185   8.119   6.538   2.418
18782SOL    HW258186   8.095   6.659   2.331
18783SOL     OW58187  14.056   8.727  13.455
18783SOL    HW158188  14.058   8.646  13.505
18783SOL    HW258189  14.083   8.701  13.366
18784SOL     OW58190   8.886  12.317  11.402
18784SOL    HW158191   8.940  12.241  11.422
18784SOL    HW258192   8.949  12.387  11.384
18785SOL     OW58193   9.196   8.378   6.521
18785SOL    HW158194   9.106   8.347   6.515
18785SOL    HW258195   9.193   8.452   6.581
18786SOL     OW58196   1.152  13.535   5.857
18786SOL    HW158197   1.065  13.495   5.863
18786SOL    HW258198   1.140  13.624   5.890
18787SOL     OW58199   0.459   7.520   4.068
18787SOL    HW158200   0.541   7.521   4.019
18787SOL    HW258201   0.462   7.439   4.118
18788SOL     OW58202   1.853  10.706   8.887
18788SOL    HW158203   1.924  10.681   8.946
18788SOL    HW258204   1.864  10.801   8.875
18789SOL     OW58205   7.858   3.662   0.638
18789SOL    HW158206   7.871   3.729   0.571
18789SOL    HW258207   7.940   3.614   0.641
18790SOL     OW58208  12.566  11.954   0.871
18790SOL    HW158209  12.476  11.946   0.904
18790SOL    HW258210  12.560  12.023   0.804
18791SOL     OW58211  12.126   1.908  13.173
18791SOL    HW158212  12.084   1.863  13.100
18791SOL    HW258213  12.178   1.841  13.217
18792SOL     OW58214   0.042  10.672  13.732
18792SOL    HW158215  14.863  10.744  13.708
18792SOL    HW258216  14.877  10.627  13.803
18793SOL     OW58217  10.061  10.015  11.973
18793SOL    HW158218  10.132  10.031  11.912
18793SOL    HW258219  10.089   9.940  12.025
18794SOL     OW58220   3.751   4.519  14.145
18794SOL    HW158221   3.744   4.612  14.124
18794SOL    HW258222   3.661   4.491  14.159
18795SOL     OW58223   4.780   7.934   0.693
18795SOL    HW158224   4.691   7.900   0.707
18795SOL    HW258225   4.767   8.019   0.651
18796SOL     OW58226  12.910   4.989  11.162
18796SOL    HW158227  12.942   5.065  11.211
18796SOL    HW258228  12.815   4.990  11.174
18797SOL     OW58229   9.826   0.452  13.108
18797SOL    HW158230   9.793   0.522  13.051
18797SOL    HW258231   9.891   0.405  13.055
18798SOL     OW58232  11.666   3.029  14.208
18798SOL    HW158233  11.698   2.977  14.135
18798SOL    HW258234  11.583   2.989  14.232
18799SOL     OW58235   7.997   0.144   3.943
18799SOL    HW158236   8.090   0.143   3.918
18799SOL    HW258237   7.953   0.100   3.870
18800SOL     OW58238   9.799   8.297   3.810
18800SOL    HW158239   9.824   8.204   3.808
18800SOL    HW258240   9.776   8.313   3.902
18801SOL     OW58241   9.535  14.049   2.256
18801SOL    HW158242   9.459  14.017   2.304
18801SOL    HW258243   9.533  14.001   2.173
18802SOL     OW58244  13.590   5.679   9.752
18802SOL    HW158245  13.525   5.613   9.729
18802SOL    HW258246  13.563   5.758   9.706
18803SOL     OW58247  14.366  14.811  11.474
18803SOL    HW158248  14.294  14.756  11.503
18803SOL    HW258249  14.324   0.004  11.429
18804SOL     OW58250   7.259   3.992   9.010
18804SOL    HW158251   7.292   3.911   8.972
18804SOL    HW258252   7.272   3.981   9.105
18805SOL     OW58253   9.790   9.437   7.108
18805SOL    HW158254   9.807   9.348   7.078
18805SOL    HW258255   9.708   9.462   7.064
18806SOL     OW58256   3.209  12.761  12.058
18806SOL    HW158257   3.175  12.839  12.015
18806SOL    HW258258   3.296  12.748  12.019
18807SOL     OW58259   8.265   2.810   9.429
18807SOL    HW158260   8.284   2.758   9.507
18807SOL    HW258261   8.218   2.749   9.371
18808SOL     OW58262   0.815  11.220   4.966
18808SOL    HW158263   0.808  11.231   4.871
18808SOL    HW258264   0.786  11.130   4.982
18809SOL     OW58265  14.387   5.108   8.866
18809SOL    HW158266  14.365   5.132   8.777
18809SOL    HW258267  14.478   5.137   8.877
18810SOL     OW58268  12.146   5.775   8.033
18810SOL    HW158269  12.194   5.821   8.102
18810SOL    HW258270  12.135   5.686   8.068
18811SOL     OW58271   2.502   9.493   5.060
18811SOL    HW158272   2.567   9.515   4.993
18811SOL    HW258273   2.545   9.516   5.143
18812SOL     OW58274  12.653   4.973   2.340
18812SOL    HW158275  12.736   4.925   2.331
18812SOL    HW258276  12.674   5.061   2.310
18813SOL     OW58277   0.937  12.355   8.724
18813SOL    HW158278   0.943  12.430   8.664
18813SOL    HW258279   1.025  12.345   8.758
18814SOL     OW58280   4.996   2.830   1.041
18814SOL    HW158281   5.064   2.764   1.027
18814SOL    HW258282   5.021   2.902   0.983
18815SOL     OW58283  12.317   8.770   4.085
18815SOL    HW158284  12.365   8.811   4.157
18815SOL    HW258285  12.256   8.710   4.128
18816SOL     OW58286  12.973  14.458  13.527
18816SOL    HW158287  12.933  14.545  13.525
18816SOL    HW258288  13.011  14.451  13.615
18817SOL     OW58289  14.823  11.652  13.782
18817SOL    HW158290  14.824  11.561  13.811
18817SOL    HW258291  14.780  11.650  13.696
18818SOL     OW58292  11.252   8.536   4.300
18818SOL    HW158293  11.311   8.511   4.371
18818SOL    HW258294  11.241   8.456   4.248
18819SOL     OW58295   0.866   6.375   3.068
18819SOL    HW158296   0.950   6.397   3.109
18819SOL    HW258297   0.812   6.343   3.140
18820SOL     OW58298  10.477  10.595  14.544
18820SOL    HW158299  10.435  10.513  14.571
18820SOL    HW258300  10.570  10.575  14.541
18821SOL     OW58301   2.253   8.680   7.177
18821SOL    HW158302   2.163   8.665   7.147
18821SOL    HW258303   2.267   8.615   7.246
18822SOL     OW58304   2.501  12.683   1.290
18822SOL    HW158305   2.551  12.660   1.211
18822SOL    HW258306   2.446  12.756   1.263
18823SOL     OW58307  11.413   1.552   1.882
18823SOL    HW158308  11.443   1.617   1.946
18823SOL    HW258309  11.325   1.529   1.910
18824SOL     OW58310   4.302   9.246   1.610
18824SOL    HW158311   4.290   9.161   1.568
18824SOL    HW258312   4.392   9.245   1.643
18825SOL     OW58313  13.947   1.757  13.769
18825SOL    HW158314  13.996   1.680  13.798
18825SOL    HW258315  13.871   1.761  13.828
18826SOL     OW58316   5.824  12.201   7.240
18826SOL    HW158317   5.785  12.114   7.228
18826SOL    HW258318   5.911  12.194   7.201
18827SOL     OW58319  11.313  12.968   6.296
18827SOL    HW158320  11.392  12.936   6.339
18827SOL    HW258321  11.284  12.895   6.242
18828SOL     OW58322  11.115   4.685   3.505
18828SOL    HW158323  11.066   4.642   3.436
18828SOL    HW258324  11.053   4.691   3.578
18829SOL     OW58325  13.592   1.939   3.821
18829SOL    HW158326  13.514   1.886   3.837
18829SOL    HW258327  13.661   1.876   3.802
18830SOL     OW58328   4.440  11.027   5.913
18830SOL    HW158329   4.405  11.029   6.002
18830SOL    HW258330   4.403  10.947   5.875
18831SOL     OW58331   0.403   7.527   6.453
18831SOL    HW158332   0.496   7.549   6.444
18831SOL    HW258333   0.383   7.544   6.545
18832SOL     OW58334  13.003   2.258   3.938
18832SOL    HW158335  12.950   2.240   3.861
18832SOL    HW258336  13.023   2.352   3.932
18833SOL     OW58337  12.841  10.463   0.469
18833SOL    HW158338  12.805  10.549   0.448
18833SOL    HW258339  12.871  10.429   0.385
18834SOL     OW58340   0.452   2.766   6.384
18834SOL    HW158341   0.383   2.790   6.447
18834SOL    HW258342   0.520   2.832   6.397
18835SOL     OW58343  13.170   2.654   7.619
18835SOL    HW158344  13.120   2.706   7.555
18835SOL    HW258345  13.219   2.591   7.566
18836SOL     OW58346  12.382   8.618   8.714
18836SOL    HW158347  12.332   8.541   8.689
18836SOL    HW258348  12.470   8.602   8.683
18837SOL     OW58349   2.362   0.302   4.137
18837SOL    HW158350   2.284   0.304   4.192
18837SOL    HW258351   2.427   0.354   4.185
18838SOL     OW58352   1.358   0.378  10.111
18838SOL    HW158353   1.387   0.375  10.020
18838SOL    HW258354   1.439   0.375  10.162
18839SOL     OW58355   4.546   0.766   2.616
18839SOL    HW158356   4.524   0.756   2.523
18839SOL    HW258357   4.625   0.714   2.628
18840SOL     OW58358  14.328  13.557   7.383
18840SOL    HW158359  14.283  13.490   7.330
18840SOL    HW258360  14.259  13.619   7.407
18841SOL     OW58361   0.954  12.740   5.242
18841SOL    HW158362   1.003  12.733   5.160
18841SOL    HW258363   0.946  12.649   5.272
18842SOL     OW58364   4.153   4.463  10.665
18842SOL    HW158365   4.196   4.485  10.582
18842SOL    HW258366   4.088   4.532  10.677
18843SOL     OW58367  10.644   2.103   7.150
18843SOL    HW158368  10.631   2.051   7.071
18843SOL    HW258369  10.623   2.043   7.222
18844SOL     OW58370  12.700   1.605  11.533
18844SOL    HW158371  12.767   1.628  11.469
18844SOL    HW258372  12.733   1.641  11.615
18845SOL     OW58373   1.200  14.725  14.077
18845SOL    HW158374   1.162  14.672  14.007
18845SOL    HW258375   1.197  14.815  14.043
18846SOL     OW58376  14.313  12.801   1.509
18846SOL    HW158377  14.258  12.804   1.431
18846SOL    HW258378  14.250  12.789   1.581
18847SOL     OW58379  10.916  11.707  10.109
18847SOL    HW158380  10.896  11.781  10.052
18847SOL    HW258381  10.999  11.729  10.150
18848SOL     OW58382   6.491   8.526   1.931
18848SOL    HW158383   6.467   8.592   1.995
18848SOL    HW258384   6.535   8.457   1.981
18849SOL     OW58385   9.133   3.772   1.903
18849SOL    HW158386   9.130   3.767   1.998
18849SOL    HW258387   9.099   3.859   1.882
18850SOL     OW58388  13.940   8.452  12.497
18850SOL    HW158389  14.017   8.395  12.505
18850SOL    HW258390  13.976   8.537  12.473
18851SOL     OW58391  12.322  12.530   8.411
18851SOL    HW158392  12.408  12.492   8.394
18851SOL    HW258393  12.336  12.589   8.485
18852SOL     OW58394   0.356   4.887   5.543
18852SOL    HW158395   0.402   4.871   5.626
18852SOL    HW258396   0.339   4.981   5.543
18853SOL     OW58397   4.093  13.811   3.386
18853SOL    HW158398   4.163  13.816   3.451
18853SOL    HW258399   4.021  13.861   3.423
18854SOL     OW58400  10.336   6.217   8.125
18854SOL    HW158401  10.410   6.203   8.185
18854SOL    HW258402  10.369   6.281   8.062
18855SOL     OW58403   5.122   0.625   6.567
18855SOL    HW158404   5.081   0.605   6.483
18855SOL    HW258405   5.215   0.635   6.548
18856SOL     OW58406   6.973  12.380  11.910
18856SOL    HW158407   7.066  12.399  11.924
18856SOL    HW258408   6.960  12.393  11.816
18857SOL     OW58409   0.397   9.862   2.836
18857SOL    HW158410   0.384   9.898   2.749
18857SOL    HW258411   0.487   9.887   2.859
18858SOL     OW58412   7.447   3.869   6.549
18858SOL    HW158413   7.529   3.892   6.505
18858SOL    HW258414   7.394   3.948   6.545
18859SOL     OW58415   2.652  10.105   6.769
18859SOL    HW158416   2.611  10.107   6.682
18859SOL    HW258417   2.612  10.179   6.816
18860SOL     OW58418  14.217   9.528   9.156
18860SOL    HW158419  14.186   9.471   9.087
18860SOL    HW258420  14.310   9.541   9.138
18861SOL     OW58421   2.900   7.502  14.848
18861SOL    HW158422   2.946   7.443  14.789
18861SOL    HW258423   2.902   7.457   0.053
18862SOL     OW58424   5.935   8.773   7.406
18862SOL    HW158425   5.950   8.852   7.353
18862SOL    HW258426   5.904   8.708   7.344
18863SOL     OW58427   9.525   9.085   6.123
18863SOL    HW158428   9.443   9.036   6.134
18863SOL    HW258429   9.541   9.083   6.029
18864SOL     OW58430   8.731   2.392   4.084
18864SOL    HW158431   8.639   2.372   4.103
18864SOL    HW258432   8.770   2.307   4.066
18865SOL     OW58433   3.270   5.847  13.833
18865SOL    HW158434   3.283   5.753  13.818
18865SOL    HW258435   3.311   5.889  13.757
18866SOL     OW58436   8.334  10.782  13.009
18866SOL    HW158437   8.291  10.697  13.001
18866SOL    HW258438   8.428  10.760  13.010
18867SOL     OW58439   9.726  11.655   7.074
18867SOL    HW158440   9.678  11.579   7.041
18867SOL    HW258441   9.702  11.726   7.015
18868SOL     OW58442   1.110   6.536   8.874
18868SOL    HW158443   1.021   6.509   8.898
18868SOL    HW258444   1.100   6.627   8.846
18869SOL     OW58445   8.513   6.435   4.320
18869SOL    HW158446   8.605   6.459   4.308
18869SOL    HW258447   8.477   6.506   4.373
18870SOL     OW58448   2.173  12.639  14.273
18870SOL    HW158449   2.211  12.688  14.346
18870SOL    HW258450   2.241  12.575  14.250
18871SOL     OW58451   5.456  13.637   5.911
18871SOL    HW158452   5.503  13.599   5.837
18871SOL    HW258453   5.460  13.569   5.979
18872SOL     OW58454   3.686  14.068  12.757
18872SOL    HW158455   3.763  14.023  12.791
18872SOL    HW258456   3.721  14.147  12.716
18873SOL     OW58457  12.770   7.702   5.254
18873SOL    HW158458  12.773   7.728   5.346
18873SOL    HW258459  12.703   7.758   5.215
18874SOL     OW58460   8.078   3.407   0.823
18874SOL    HW158461   8.091   3.359   0.905
18874SOL    HW258462   8.070   3.340   0.756
18875SOL     OW58463   6.477   5.190  10.707
18875SOL    HW158464   6.539   5.156  10.771
18875SOL    HW258465   6.498   5.144  10.626
18876SOL     OW58466   7.680  11.607  11.396
18876SOL    HW158467   7.652  11.578  11.310
18876SOL    HW258468   7.608  11.660  11.429
18877SOL     OW58469   2.436   4.286   6.645
18877SOL    HW158470   2.354   4.332   6.667
18877SOL    HW258471   2.505   4.348   6.668
18878SOL     OW58472  11.795   7.283   8.093
18878SOL    HW158473  11.776   7.275   8.000
18878SOL    HW258474  11.733   7.349   8.124
18879SOL     OW58475   8.777   4.429  14.110
18879SOL    HW158476   8.850   4.456  14.165
18879SOL    HW258477   8.803   4.344  14.075
18880SOL     OW58478   4.629   9.765   2.378
18880SOL    HW158479   4.690   9.707   2.423
18880SOL    HW258480   4.563   9.786   2.444
18881SOL     OW58481  10.390   1.766   5.249
18881SOL    HW158482  10.441   1.725   5.180
18881SOL    HW258483  10.381   1.857   5.221
18882SOL     OW58484   1.040   7.001   1.502
18882SOL    HW158485   1.036   6.916   1.546
18882SOL    HW258486   0.961   7.046   1.532
18883SOL     OW58487   5.294   7.332   7.951
18883SOL    HW158488   5.257   7.285   7.876
18883SOL    HW258489   5.235   7.407   7.964
18884SOL     OW58490   9.507   6.541  11.298
18884SOL    HW158491   9.480   6.630  11.320
18884SOL    HW258492   9.595   6.533  11.335
18885SOL     OW58493   4.075  10.738  13.156
18885SOL    HW158494   4.053  10.827  13.182
18885SOL    HW258495   3.996  10.687  13.175
18886SOL     OW58496  14.823   9.833   6.136
18886SOL    HW158497   0.020   9.849   6.081
18886SOL    HW258498  14.858   9.829   6.225
18887SOL     OW58499   0.300   3.676   9.343
18887SOL    HW158500   0.285   3.764   9.310
18887SOL    HW258501   0.353   3.634   9.275
18888SOL     OW58502   1.893   5.485  10.004
18888SOL    HW158503   1.867   5.569   9.967
18888SOL    HW258504   1.922   5.507  10.093
18889SOL     OW58505   0.705   5.323   7.108
18889SOL    HW158506   0.658   5.254   7.061
18889SOL    HW258507   0.745   5.277   7.183
18890SOL     OW58508   0.598   1.820  10.125
18890SOL    HW158509   0.597   1.801  10.031
18890SOL    HW258510   0.616   1.913  10.131
18891SOL     OW58511   0.307  14.349  10.626
18891SOL    HW158512   0.334  14.290  10.696
18891SOL    HW258513   0.346  14.433  10.648
18892SOL     OW58514   8.665   5.197  11.223
18892SOL    HW158515   8.726   5.260  11.263
18892SOL    HW258516   8.706   5.175  11.140
18893SOL     OW58517   8.907  14.346   5.668
18893SOL    HW158518   8.974  14.338   5.600
18893SOL    HW258519   8.825  14.355   5.620
18894SOL     OW58520   5.599  10.777   1.190
18894SOL    HW158521   5.584  10.714   1.260
18894SOL    HW258522   5.675  10.743   1.143
18895SOL     OW58523   5.177   7.024   1.684
18895SOL    HW158524   5.123   6.959   1.639
18895SOL    HW258525   5.158   7.010   1.777
18896SOL     OW58526   9.882   3.026   2.810
18896SOL    HW158527   9.908   2.991   2.895
18896SOL    HW258528   9.964   3.057   2.772
18897SOL     OW58529  12.159   6.228   8.003
18897SOL    HW158530  12.188   6.318   7.987
18897SOL    HW258531  12.077   6.221   7.955
18898SOL     OW58532   4.447   5.876   3.942
18898SOL    HW158533   4.441   5.781   3.937
18898SOL    HW258534   4.494   5.893   4.024
18899SOL     OW58535   4.334   5.605   3.963
18899SOL    HW158536   4.250   5.600   4.009
18899SOL    HW258537   4.327   5.538   3.895
18900SOL     OW58538   6.545   4.671  12.387
18900SOL    HW158539   6.560   4.731  12.314
18900SOL    HW258540   6.455   4.642  12.376
18901SOL     OW58541   0.795   6.544  14.457
18901SOL    HW158542   0.713   6.580  14.425
18901SOL    HW258543   0.853   6.545  14.381
18902SOL     OW58544   3.024   1.736   8.475
18902SOL    HW158545   2.990   1.662   8.524
18902SOL    HW258546   3.067   1.696   8.399
18903SOL     OW58547   3.154   8.866  14.851
18903SOL    HW158548   3.119   8.798   0.029
18903SOL    HW258549   3.210   8.919   0.029
18904SOL     OW58550   8.524   2.448   7.196
18904SOL    HW158551   8.553   2.357   7.197
18904SOL    HW258552   8.501   2.467   7.287
18905SOL     OW58553   1.245  10.808  11.331
18905SOL    HW158554   1.260  10.731  11.276
18905SOL    HW258555   1.285  10.880  11.282
18906SOL     OW58556  13.558  12.539  10.029
18906SOL    HW158557  13.513  12.459  10.056
18906SOL    HW258558  13.498  12.610  10.054
18907SOL     OW58559  13.346  10.240  13.411
18907SOL    HW158560  13.304  10.261  13.327
18907SOL    HW258561  13.392  10.320  13.435
18908SOL     OW58562  13.341  13.554  12.644
18908SOL    HW158563  13.262  13.587  12.686
18908SOL    HW258564  13.390  13.632  12.620
18909SOL     OW58565   0.137  10.811  12.108
18909SOL    HW158566   0.174  10.778  12.190
18909SOL    HW258567   0.141  10.906  12.117
18910SOL     OW58568  11.782  10.053  10.450
18910SOL    HW158569  11.718  10.086  10.513
18910SOL    HW258570  11.806   9.966  10.484
18911SOL     OW58571  13.291  13.435  12.952
18911SOL    HW158572  13.352  13.456  12.881
18911SOL    HW258573  13.326  13.481  13.028
18912SOL     OW58574   6.702   5.292   9.178
18912SOL    HW158575   6.685   5.386   9.178
18912SOL    HW258576   6.723   5.271   9.269
18913SOL     OW58577   7.121   4.241   8.118
18913SOL    HW158578   7.156   4.172   8.174
18913SOL    HW258579   7.068   4.295   8.177
18914SOL     OW58580  11.182   7.106   4.176
18914SOL    HW158581  11.110   7.170   4.174
18914SOL    HW258582  11.162   7.046   4.104
18915SOL     OW58583  11.038   7.983   2.995
18915SOL    HW158584  10.995   7.975   3.081
18915SOL    HW258585  10.997   7.915   2.942
18916SOL     OW58586   7.439   4.865   4.237
18916SOL    HW158587   7.447   4.798   4.169
18916SOL    HW258588   7.395   4.938   4.194
18917SOL     OW58589  10.061  12.987  11.332
18917SOL    HW158590  10.065  12.891  11.335
18917SOL    HW258591   9.987  13.009  11.389
18918SOL     OW58592  12.434   6.052   0.062
18918SOL    HW158593  12.466   5.987  14.879
18918SOL    HW258594  12.497   6.048   0.134
18919SOL     OW58595   8.196  10.916   2.156
18919SOL    HW158596   8.235  10.930   2.241
18919SOL    HW258597   8.101  10.917   2.172
18920SOL     OW58598   2.747   2.937   9.083
18920SOL    HW158599   2.675   2.878   9.103
18920SOL    HW258600   2.785   2.957   9.168
18921SOL     OW58601   8.837   0.510   2.923
18921SOL    HW158602   8.819   0.555   3.006
18921SOL    HW258603   8.753   0.474   2.897
18922SOL     OW58604  10.938  10.036   5.879
18922SOL    HW158605  11.015  10.031   5.936
18922SOL    HW258606  10.864  10.040   5.939
18923SOL     OW58607  11.190  13.118  11.416
18923SOL    HW158608  11.106  13.164  11.417
18923SOL    HW258609  11.217  13.117  11.508
18924SOL     OW58610   4.861  14.169   4.858
18924SOL    HW158611   4.774  14.138   4.835
18924SOL    HW258612   4.845  14.253   4.902
18925SOL     OW58613  12.275  10.066   6.601
18925SOL    HW158614  12.326  10.100   6.528
18925SOL    HW258615  12.215  10.002   6.562
18926SOL     OW58616  14.774   9.747   2.196
18926SOL    HW158617  14.777   9.726   2.102
18926SOL    HW258618  14.830   9.681   2.237
18927SOL     OW58619   7.069  12.943   7.849
18927SOL    HW158620   7.048  12.970   7.759
18927SOL    HW258621   7.144  12.885   7.840
18928SOL     OW58622  11.322  11.106  10.287
18928SOL    HW158623  11.393  11.170  10.295
18928SOL    HW258624  11.242  11.158  10.291
18929SOL     OW58625   6.893  13.570   7.519
18929SOL    HW158626   6.824  13.616   7.565
18929SOL    HW258627   6.848  13.519   7.452
18930SOL     OW58628  11.603   6.195   5.840
18930SOL    HW158629  11.605   6.168   5.748
18930SOL    HW258630  11.564   6.282   5.838
18931SOL     OW58631   2.599   6.985   4.414
18931SOL    HW158632   2.637   6.967   4.328
18931SOL    HW258633   2.636   6.918   4.471
18932SOL     OW58634   6.596  12.381   3.579
18932SOL    HW158635   6.618  12.315   3.513
18932SOL    HW258636   6.547  12.447   3.531
18933SOL     OW58637  12.737   2.292   0.731
18933SOL    HW158638  12.801   2.344   0.780
18933SOL    HW258639  12.653   2.310   0.774
18934SOL     OW58640  12.485   1.638   9.281
18934SOL    HW158641  12.525   1.650   9.367
18934SOL    HW258642  12.534   1.566   9.241
18935SOL     OW58643  11.320   5.461   6.080
18935SOL    HW158644  11.394   5.401   6.077
18935SOL    HW258645  11.298   5.467   6.173
18936SOL     OW58646   4.448   7.662  11.090
18936SOL    HW158647   4.357   7.646  11.113
18936SOL    HW258648   4.486   7.702  11.168
18937SOL     OW58649   3.125  11.388   9.763
18937SOL    HW158650   3.168  11.406   9.679
18937SOL    HW258651   3.032  11.405   9.746
18938SOL     OW58652  13.286  12.292  13.024
18938SOL    HW158653  13.212  12.331  12.977
18938SOL    HW258654  13.293  12.203  12.989
18939SOL     OW58655   5.933   2.180   2.277
18939SOL    HW158656   5.952   2.121   2.350
18939SOL    HW258657   5.866   2.240   2.310
18940SOL     OW58658  10.282   4.033   7.576
18940SOL    HW158659  10.317   3.973   7.641
18940SOL    HW258660  10.359   4.080   7.543
18941SOL     OW58661   0.772   0.856   9.676
18941SOL    HW158662   0.797   0.764   9.680
18941SOL    HW258663   0.737   0.876   9.763
18942SOL     OW58664   1.660   1.919  10.302
18942SOL    HW158665   1.719   1.949  10.232
18942SOL    HW258666   1.718   1.894  10.373
18943SOL     OW58667  10.407   2.527   2.950
18943SOL    HW158668  10.434   2.523   2.858
18943SOL    HW258669  10.311   2.528   2.947
18944SOL     OW58670   2.020  13.685  11.591
18944SOL    HW158671   2.030  13.601  11.547
18944SOL    HW258672   1.992  13.662  11.680
18945SOL     OW58673  12.159   8.355   1.278
18945SOL    HW158674  12.137   8.448   1.267
18945SOL    HW258675  12.090   8.320   1.334
18946SOL     OW58676  10.429  12.800  10.771
18946SOL    HW158677  10.408  12.894  10.763
18946SOL    HW258678  10.346  12.759  10.796
18947SOL     OW58679   2.017   0.007   2.740
18947SOL    HW158680   2.106  14.871   2.770
18947SOL    HW258681   2.026   0.031   2.648
18948SOL     OW58682   1.472  12.379   8.116
18948SOL    HW158683   1.556  12.423   8.107
18948SOL    HW258684   1.408  12.442   8.085
18949SOL     OW58685   1.311   0.360   0.283
18949SOL    HW158686   1.306   0.442   0.332
18949SOL    HW258687   1.398   0.326   0.304
18950SOL     OW58688  10.350   5.370  13.903
18950SOL    HW158689  10.386   5.374  13.991
18950SOL    HW258690  10.293   5.447  13.897
18951SOL     OW58691  11.913   4.173   7.801
18951SOL    HW158692  11.945   4.083   7.800
18951SOL    HW258693  11.821   4.166   7.825
18952SOL     OW58694  11.470   5.379   4.546
18952SOL    HW158695  11.496   5.401   4.635
18952SOL    HW258696  11.520   5.439   4.491
18953SOL     OW58697   8.967  13.400   8.255
18953SOL    HW158698   9.024  13.386   8.179
18953SOL    HW258699   8.971  13.494   8.270
18954SOL     OW58700   3.886   7.451   8.599
18954SOL    HW158701   3.967   7.433   8.648
18954SOL    HW258702   3.836   7.370   8.604
18955SOL     OW58703   5.909   7.664  14.411
18955SOL    HW158704   5.904   7.750  14.368
18955SOL    HW258705   5.848   7.609  14.363
18956SOL     OW58706   2.630  12.678   3.700
18956SOL    HW158707   2.695  12.702   3.766
18956SOL    HW258708   2.564  12.629   3.748
18957SOL     OW58709   0.163   9.921   9.838
18957SOL    HW158710   0.215   9.889   9.764
18957SOL    HW258711   0.227   9.946   9.904
18958SOL     OW58712   5.587   6.604  10.366
18958SOL    HW158713   5.576   6.694  10.397
18958SOL    HW258714   5.554   6.549  10.436
18959SOL     OW58715   0.038   3.487   8.602
18959SOL    HW158716   0.069   3.415   8.656
18959SOL    HW258717   0.084   3.476   8.519
18960SOL     OW58718   3.196   5.704   3.759
18960SOL    HW158719   3.190   5.634   3.694
18960SOL    HW258720   3.284   5.696   3.795
18961SOL     OW58721   7.002  13.108   0.073
18961SOL    HW158722   6.947  13.116  14.875
18961SOL    HW258723   6.942  13.088   0.144
18962SOL     OW58724  10.902   4.200   6.697
18962SOL    HW158725  10.927   4.164   6.612
18962SOL    HW258726  10.807   4.214   6.690
18963SOL     OW58727   0.182   2.671  11.679
18963SOL    HW158728   0.130   2.732  11.731
18963SOL    HW258729   0.268   2.670  11.720
18964SOL     OW58730  10.853   0.003   2.735
18964SOL    HW158731  10.875   0.073   2.673
18964SOL    HW258732  10.931  14.874   2.790
18965SOL     OW58733   9.315   3.659   4.145
18965SOL    HW158734   9.312   3.752   4.169
18965SOL    HW258735   9.342   3.658   4.054
18966SOL     OW58736   1.136   0.376  11.984
18966SOL    HW158737   1.081   0.357  12.061
18966SOL    HW258738   1.074   0.378  11.911
18967SOL     OW58739  11.474  10.368   4.083
18967SOL    HW158740  11.460  10.452   4.039
18967SOL    HW258741  11.567  10.368   4.105
18968SOL     OW58742  10.290  13.383  10.635
18968SOL    HW158743  10.215  13.372  10.694
18968SOL    HW258744  10.284  13.473  10.605
18969SOL     OW58745  13.977  13.089   4.797
18969SOL    HW158746  13.907  13.155   4.803
18969SOL    HW258747  13.990  13.060   4.887
18970SOL     OW58748  12.261   3.991   5.203
18970SOL    HW158749  12.296   4.010   5.116
18970SOL    HW258750  12.253   3.896   5.206
18971SOL     OW58751  13.282  14.419  12.852
18971SOL    HW158752  13.373  14.422  12.822
18971SOL    HW258753  13.266  14.327  12.872
18972SOL     OW58754  10.485  13.243   7.158
18972SOL    HW158755  10.473  13.334   7.132
18972SOL    HW258756  10.430  13.193   7.097
18973SOL     OW58757   3.650   3.702   5.113
18973SOL    HW158758   3.703   3.623   5.108
18973SOL    HW258759   3.563   3.671   5.140
18974SOL     OW58760   7.265  14.038   5.445
18974SOL    HW158761   7.290  13.952   5.476
18974SOL    HW258762   7.237  14.085   5.523
18975SOL     OW58763   8.507   4.477  12.398
18975SOL    HW158764   8.441   4.412  12.423
18975SOL    HW258765   8.457   4.554  12.374
18976SOL     OW58766   7.703   3.776   1.963
18976SOL    HW158767   7.736   3.802   1.877
18976SOL    HW258768   7.717   3.853   2.019
18977SOL     OW58769  12.886  11.488   1.247
18977SOL    HW158770  12.906  11.573   1.208
18977SOL    HW258771  12.793  11.493   1.270
18978SOL     OW58772   2.827  10.034   2.792
18978SOL    HW158773   2.802  10.123   2.767
18978SOL    HW258774   2.751   9.981   2.772
18979SOL     OW58775  11.401   8.873   1.787
18979SOL    HW158776  11.473   8.935   1.794
18979SOL    HW258777  11.422   8.819   1.711
18980SOL     OW58778   3.369   0.383   7.227
18980SOL    HW158779   3.406   0.466   7.256
18980SOL    HW258780   3.427   0.316   7.263
18981SOL     OW58781   8.081   5.873  14.145
18981SOL    HW158782   8.032   5.903  14.222
18981SOL    HW258783   8.014   5.863  14.077
18982SOL     OW58784   0.869   5.942   2.035
18982SOL    HW158785   0.919   6.016   2.072
18982SOL    HW258786   0.931   5.869   2.038
18983SOL     OW58787  11.416   0.738   8.942
18983SOL    HW158788  11.506   0.759   8.967
18983SOL    HW258789  11.369   0.821   8.950
18984SOL     OW58790  13.632   8.543   4.211
18984SOL    HW158791  13.687   8.498   4.147
18984SOL    HW258792  13.548   8.498   4.205
18985SOL     OW58793   3.619  13.355   5.180
18985SOL    HW158794   3.650  13.268   5.152
18985SOL    HW258795   3.605  13.345   5.274
18986SOL     OW58796   6.141   7.238   6.915
18986SOL    HW158797   6.132   7.327   6.879
18986SOL    HW258798   6.112   7.181   6.844
18987SOL     OW58799   1.125   8.011  10.347
18987SOL    HW158800   1.123   8.077  10.277
18987SOL    HW258801   1.217   8.009  10.375
18988SOL     OW58802   2.862  10.840  10.069
18988SOL    HW158803   2.776  10.882  10.063
18988SOL    HW258804   2.906  10.885  10.141
18989SOL     OW58805  13.018   1.056  11.280
18989SOL    HW158806  13.020   0.965  11.250
18989SOL    HW258807  12.946   1.096  11.231
18990SOL     OW58808   7.994   7.916   3.541
18990SOL    HW158809   7.973   7.993   3.595
18990SOL    HW258810   8.043   7.858   3.600
18991SOL     OW58811   8.184   0.403  14.301
18991SOL    HW158812   8.212   0.437  14.216
18991SOL    HW258813   8.193   0.477  14.361
18992SOL     OW58814  14.784   4.004   9.232
18992SOL    HW158815  14.845   4.006   9.305
18992SOL    HW258816  14.829   4.050   9.162
18993SOL     OW58817   2.733   0.370  11.822
18993SOL    HW158818   2.816   0.410  11.798
18993SOL    HW258819   2.756   0.280  11.846
18994SOL     OW58820   0.860   0.468   6.124
18994SOL    HW158821   0.803   0.469   6.200
18994SOL    HW258822   0.876   0.560   6.104
18995SOL     OW58823   5.375  10.927   9.910
18995SOL    HW158824   5.436  10.904   9.840
18995SOL    HW258825   5.429  10.974   9.974
18996SOL     OW58826   5.820   3.100   2.080
18996SOL    HW158827   5.727   3.117   2.069
18996SOL    HW258828   5.863   3.174   2.035
18997SOL     OW58829  11.852  11.169  10.411
18997SOL    HW158830  11.794  11.098  10.384
18997SOL    HW258831  11.921  11.126  10.462
18998SOL     OW58832  13.291   9.892   6.394
18998SOL    HW158833  13.241   9.963   6.434
18998SOL    HW258834  13.380   9.904   6.427
18999SOL     OW58835   7.041   7.451  10.231
18999SOL    HW158836   7.047   7.510  10.157
18999SOL    HW258837   6.947   7.436  10.242
19000SOL     OW58838  12.223  12.255   9.681
19000SOL    HW158839  12.167  12.314   9.630
19000SOL    HW258840  12.206  12.277   9.772
19001SOL     OW58841   3.666   1.552   7.798
19001SOL    HW158842   3.688   1.558   7.705
19001SOL    HW258843   3.733   1.605   7.841
19002SOL     OW58844  14.022  14.859   9.480
19002SOL    HW158845  14.109  14.822   9.462
19002SOL    HW258846  14.003  14.833   9.570
19003SOL     OW58847   4.418   0.281   3.664
19003SOL    HW158848   4.468   0.347   3.615
19003SOL    HW258849   4.412   0.207   3.604
19004SOL     OW58850   4.287   7.145   4.649
19004SOL    HW158851   4.336   7.106   4.577
19004SOL    HW258852   4.241   7.071   4.689
19005SOL     OW58853   1.860   4.156   1.879
19005SOL    HW158854   1.913   4.217   1.828
19005SOL    HW258855   1.773   4.161   1.839
19006SOL     OW58856   8.107   4.145   6.742
19006SOL    HW158857   8.018   4.168   6.715
19006SOL    HW258858   8.156   4.227   6.735
19007SOL     OW58859  10.407   0.079   7.515
19007SOL    HW158860  10.421   0.089   7.421
19007SOL    HW258861  10.426   0.165   7.552
19008SOL     OW58862   1.434   8.317   1.131
19008SOL    HW158863   1.378   8.353   1.200
19008SOL    HW258864   1.373   8.297   1.060
19009SOL     OW58865  14.362   1.009   9.215
19009SOL    HW158866  14.346   1.074   9.147
19009SOL    HW258867  14.437   1.044   9.264
19010SOL     OW58868   4.313  10.376   2.040
19010SOL    HW158869   4.251  10.405   1.972
19010SOL    HW258870   4.265  10.386   2.122
19011SOL     OW58871  12.252  14.371   7.657
19011SOL    HW158872  12.212  14.309   7.596
19011SOL    HW258873  12.209  14.353   7.741
19012SOL     OW58874   1.994  11.304   4.563
19012SOL    HW158875   1.974  11.373   4.500
19012SOL    HW258876   1.943  11.228   4.533
19013SOL     OW58877  14.663   7.694   7.788
19013SOL    HW158878  14.749   7.714   7.826
19013SOL    HW258879  14.611   7.773   7.805
19014SOL     OW58880   1.701   3.600   2.573
19014SOL    HW158881   1.763   3.572   2.506
19014SOL    HW258882   1.754   3.604   2.653
19015SOL     OW58883   2.143   7.389   9.660
19015SOL    HW158884   2.146   7.294   9.647
19015SOL    HW258885   2.228   7.410   9.699
19016SOL     OW58886   1.223   4.848   8.057
19016SOL    HW158887   1.249   4.895   7.978
19016SOL    HW258888   1.249   4.906   8.129
19017SOL     OW58889   2.930   6.403   6.235
19017SOL    HW158890   2.953   6.373   6.147
19017SOL    HW258891   2.888   6.327   6.276
19018SOL     OW58892   1.039   3.372   9.289
19018SOL    HW158893   1.087   3.295   9.321
19018SOL    HW258894   1.102   3.418   9.234
19019SOL     OW58895   6.612   8.548  12.261
19019SOL    HW158896   6.548   8.575  12.195
19019SOL    HW258897   6.691   8.529  12.211
19020SOL     OW58898   1.209   9.596  10.311
19020SOL    HW158899   1.288   9.640  10.341
19020SOL    HW258900   1.137   9.647  10.349
19021SOL     OW58901  11.949   8.218   0.490
19021SOL    HW158902  11.867   8.191   0.449
19021SOL    HW258903  11.997   8.137   0.502
19022SOL     OW58904   3.732   8.117  12.195
19022SOL    HW158905   3.655   8.096  12.247
19022SOL    HW258906   3.698   8.163  12.118
19023SOL     OW58907   6.880  11.318  13.082
19023SOL    HW158908   6.814  11.266  13.129
19023SOL    HW258909   6.832  11.361  13.012
19024SOL     OW58910   6.536   0.619  13.535
19024SOL    HW158911   6.496   0.653  13.455
19024SOL    HW258912   6.612   0.676  13.550
19025SOL     OW58913   5.680   9.576  14.211
19025SOL    HW158914   5.761   9.530  14.191
19025SOL    HW258915   5.665   9.559  14.304
19026SOL     OW58916   0.492  11.720   5.653
19026SOL    HW158917   0.533  11.653   5.707
19026SOL    HW258918   0.449  11.779   5.716
19027SOL     OW58919   0.597   2.579  12.217
19027SOL    HW158920   0.606   2.609  12.308
19027SOL    HW258921   0.515   2.531  12.216
19028SOL     OW58922   4.626   0.975  14.786
19028SOL    HW158923   4.559   0.936  14.842
19028SOL    HW258924   4.709   0.956  14.830
19029SOL     OW58925  12.996   4.739   3.509
19029SOL    HW158926  12.916   4.692   3.483
19029SOL    HW258927  12.964   4.821   3.545
19030SOL     OW58928  14.275   6.981   6.719
19030SOL    HW158929  14.210   6.960   6.786
19030SOL    HW258930  14.314   6.897   6.696
19031SOL     OW58931   8.375   8.053   1.176
19031SOL    HW158932   8.385   8.104   1.257
19031SOL    HW258933   8.377   7.962   1.205
19032SOL     OW58934   2.252   6.724   6.064
19032SOL    HW158935   2.321   6.727   5.998
19032SOL    HW258936   2.175   6.757   6.019
19033SOL     OW58937   2.330   6.255  11.026
19033SOL    HW158938   2.390   6.182  11.037
19033SOL    HW258939   2.278   6.233  10.949
19034SOL     OW58940   3.704  13.949   4.791
19034SOL    HW158941   3.786  13.980   4.751
19034SOL    HW258942   3.691  13.861   4.756
19035SOL     OW58943   7.836   4.225   3.336
19035SOL    HW158944   7.800   4.264   3.415
19035SOL    HW258945   7.911   4.174   3.367
19036SOL     OW58946   3.596   0.088   8.093
19036SOL    HW158947   3.675   0.057   8.049
19036SOL    HW258948   3.537   0.113   8.022
19037SOL     OW58949   3.770  14.200   2.163
19037SOL    HW158950   3.824  14.256   2.219
19037SOL    HW258951   3.817  14.117   2.159
19038SOL     OW58952   1.762   8.534   0.453
19038SOL    HW158953   1.777   8.450   0.495
19038SOL    HW258954   1.682   8.521   0.402
19039SOL     OW58955   1.600   6.179   6.361
19039SOL    HW158956   1.623   6.158   6.452
19039SOL    HW258957   1.545   6.106   6.332
19040SOL     OW58958   1.357   1.624  12.530
19040SOL    HW158959   1.372   1.707  12.486
19040SOL    HW258960   1.319   1.568  12.463
19041SOL     OW58961   7.477  12.275  13.285
19041SOL    HW158962   7.555  12.249  13.335
19041SOL    HW258963   7.511  12.306  13.201
19042SOL     OW58964  13.637   8.071  10.664
19042SOL    HW158965  13.711   8.066  10.603
19042SOL    HW258966  13.573   8.008  10.630
19043SOL     OW58967  11.572   0.998   5.622
19043SOL    HW158968  11.499   1.013   5.561
19043SOL    HW258969  11.547   0.920   5.671
19044SOL     OW58970   1.741  12.774   6.086
19044SOL    HW158971   1.798  12.705   6.052
19044SOL    HW258972   1.674  12.785   6.018
19045SOL     OW58973  11.883   4.037   7.271
19045SOL    HW158974  11.898   4.062   7.362
19045SOL    HW258975  11.844   4.115   7.230
19046SOL     OW58976   6.915   9.906   3.637
19046SOL    HW158977   6.921   9.810   3.637
19046SOL    HW258978   6.947   9.931   3.550
19047SOL     OW58979   9.990   4.046  12.656
19047SOL    HW158980   9.914   3.988  12.661
19047SOL    HW258981  10.034   4.035  12.740
19048SOL     OW58982  10.485   6.804  11.360
19048SOL    HW158983  10.472   6.852  11.442
19048SOL    HW258984  10.411   6.743  11.355
19049SOL     OW58985  14.674  13.817  14.496
19049SOL    HW158986  14.621  13.824  14.417
19049SOL    HW258987  14.739  13.749  14.474
19050SOL     OW58988   1.860   3.112  10.328
19050SOL    HW158989   1.836   3.031  10.284
19050SOL    HW258990   1.797   3.177  10.296
19051SOL     OW58991   7.581   3.588   3.635
19051SOL    HW158992   7.587   3.501   3.594
19051SOL    HW258993   7.568   3.648   3.561
19052SOL     OW58994   1.153   3.592  13.138
19052SOL    HW158995   1.193   3.506  13.129
19052SOL    HW258996   1.152   3.627  13.049
19053SOL     OW58997   6.228   6.875  12.242
19053SOL    HW158998   6.277   6.793  12.236
19053SOL    HW258999   6.142   6.850  12.276
19054SOL     OW59000   8.916   5.664  10.893
19054SOL    HW159001   9.009   5.671  10.872
19054SOL    HW259002   8.900   5.570  10.898
19055SOL     OW59003  13.675  13.055   4.047
19055SOL    HW159004  13.690  12.983   3.986
19055SOL    HW259005  13.729  13.032   4.123
19056SOL     OW59006   0.536   2.048   4.852
19056SOL    HW159007   0.614   2.006   4.889
19056SOL    HW259008   0.527   2.130   4.902
19057SOL     OW59009   9.376   1.052   8.876
19057SOL    HW159010   9.445   1.099   8.830
19057SOL    HW259011   9.295   1.088   8.840
19058SOL     OW59012   1.624   2.053  13.320
19058SOL    HW159013   1.539   2.091  13.301
19058SOL    HW259014   1.605   1.977  13.376
19059SOL     OW59015   8.789   1.655  11.542
19059SOL    HW159016   8.852   1.596  11.584
19059SOL    HW259017   8.811   1.650  11.449
19060SOL     OW59018   1.112  12.128   6.727
19060SOL    HW159019   1.090  12.135   6.820
19060SOL    HW259020   1.031  12.150   6.681
19061SOL     OW59021  13.479   9.115   6.188
19061SOL    HW159022  13.486   9.211   6.191
19061SOL    HW259023  13.387   9.098   6.208
19062SOL     OW59024   6.762   0.970   9.184
19062SOL    HW159025   6.802   0.883   9.186
19062SOL    HW259026   6.767   1.002   9.274
19063SOL     OW59027  13.886   0.531   3.298
19063SOL    HW159028  13.791   0.542   3.290
19063SOL    HW259029  13.902   0.442   3.267
19064SOL     OW59030   9.641   5.155   7.161
19064SOL    HW159031   9.588   5.160   7.241
19064SOL    HW259032   9.701   5.083   7.177
19065SOL     OW59033  10.734  10.938   2.855
19065SOL    HW159034  10.799  10.877   2.822
19065SOL    HW259035  10.695  10.977   2.776
19066SOL     OW59036   1.977   0.289   1.483
19066SOL    HW159037   1.939   0.257   1.401
19066SOL    HW259038   1.902   0.319   1.533
19067SOL     OW59039  12.833  12.781   9.003
19067SOL    HW159040  12.784  12.825   8.934
19067SOL    HW259041  12.842  12.846   9.072
19068SOL     OW59042   3.015   9.315  14.444
19068SOL    HW159043   3.049   9.377  14.508
19068SOL    HW259044   2.923   9.303  14.468
19069SOL     OW59045   1.017   5.750  13.206
19069SOL    HW159046   1.019   5.709  13.120
19069SOL    HW259047   0.942   5.710  13.250
19070SOL     OW59048   2.263   8.976   1.713
19070SOL    HW159049   2.223   8.907   1.767
19070SOL    HW259050   2.208   8.981   1.635
19071SOL     OW59051  14.331  13.941   9.898
19071SOL    HW159052  14.398  13.938   9.829
19071SOL    HW259053  14.304  13.850   9.909
19072SOL     OW59054   0.290   7.472   7.358
19072SOL    HW159055   0.291   7.507   7.269
19072SOL    HW259056   0.207   7.503   7.395
19073SOL     OW59057   0.207   6.191  14.544
19073SOL    HW159058   0.259   6.271  14.535
19073SOL    HW259059   0.158   6.203  14.625
19074SOL     OW59060  13.117   5.919   2.241
19074SOL    HW159061  13.122   5.972   2.161
19074SOL    HW259062  13.140   5.979   2.311
19075SOL     OW59063  11.028   1.265   7.862
19075SOL    HW159064  10.952   1.309   7.901
19075SOL    HW259065  11.103   1.305   7.907
19076SOL     OW59066  13.307  14.653   1.753
19076SOL    HW159067  13.316  14.610   1.668
19076SOL    HW259068  13.257  14.732   1.734
19077SOL     OW59069   3.021   5.357   8.249
19077SOL    HW159070   3.116   5.346   8.248
19077SOL    HW259071   3.003   5.416   8.176
19078SOL     OW59072   2.760   4.634  11.428
19078SOL    HW159073   2.812   4.613  11.506
19078SOL    HW259074   2.818   4.688  11.375
19079SOL     OW59075   8.683   7.550   0.794
19079SOL    HW159076   8.704   7.633   0.752
19079SOL    HW259077   8.755   7.535   0.855
19080SOL     OW59078   1.147   6.704   7.201
19080SOL    HW159079   1.061   6.670   7.175
19080SOL    HW259080   1.194   6.628   7.233
19081SOL     OW59081   5.442   1.791  12.508
19081SOL    HW159082   5.372   1.849  12.477
19081SOL    HW259083   5.396   1.720  12.553
19082SOL     OW59084  10.896   0.303  13.763
19082SOL    HW159085  10.917   0.367  13.696
19082SOL    HW259086  10.964   0.236  13.754
19083SOL     OW59087  14.053   1.765   8.675
19083SOL    HW159088  14.053   1.675   8.642
19083SOL    HW259089  14.097   1.816   8.608
19084SOL     OW59090  10.971  11.730   8.401
19084SOL    HW159091  10.962  11.635   8.410
19084SOL    HW259092  10.882  11.760   8.381
19085SOL     OW59093  14.447   2.004   3.186
19085SOL    HW159094  14.510   2.037   3.123
19085SOL    HW259095  14.414   2.082   3.230
19086SOL     OW59096   9.522  14.106   6.817
19086SOL    HW159097   9.455  14.164   6.853
19086SOL    HW259098   9.535  14.039   6.884
19087SOL     OW59099  12.523  13.519  11.436
19087SOL    HW159100  12.557  13.535  11.524
19087SOL    HW259101  12.597  13.480  11.389
19088SOL     OW59102   9.010   9.074   4.245
19088SOL    HW159103   9.009   9.063   4.340
19088SOL    HW259104   8.959   9.153   4.229
19089SOL     OW59105  14.504   5.004   6.638
19089SOL    HW159106  14.505   5.100   6.631
19089SOL    HW259107  14.573   4.984   6.701
19090SOL     OW59108   4.666   6.444   5.809
19090SOL    HW159109   4.679   6.518   5.749
19090SOL    HW259110   4.586   6.402   5.777
19091SOL     OW59111   9.069   4.903  10.058
19091SOL    HW159112   8.998   4.910  10.122
19091SOL    HW259113   9.026   4.868   9.979
19092SOL     OW59114   1.207   6.476   4.182
19092SOL    HW159115   1.122   6.446   4.214
19092SOL    HW259116   1.245   6.399   4.139
19093SOL     OW59117   3.143   8.327   2.939
19093SOL    HW159118   3.079   8.397   2.945
19093SOL    HW259119   3.221   8.369   2.902
19094SOL     OW59120   3.475  10.243   3.906
19094SOL    HW159121   3.454  10.213   3.817
19094SOL    HW259122   3.564  10.212   3.920
19095SOL     OW59123   1.980  13.332  10.163
19095SOL    HW159124   2.009  13.288  10.083
19095SOL    HW259125   1.891  13.361  10.143
19096SOL     OW59126  14.113  10.338   3.078
19096SOL    HW159127  14.079  10.329   2.989
19096SOL    HW259128  14.199  10.380   3.067
19097SOL     OW59129   1.750   8.826   4.848
19097SOL    HW159130   1.792   8.794   4.928
19097SOL    HW259131   1.684   8.761   4.827
19098SOL     OW59132   4.855   2.138   8.483
19098SOL    HW159133   4.809   2.073   8.430
19098SOL    HW259134   4.826   2.223   8.447
19099SOL     OW59135  14.518  14.512   7.885
19099SOL    HW159136  14.504  14.544   7.796
19099SOL    HW259137  14.430  14.493   7.918
19100SOL     OW59138   7.248  13.394  10.393
19100SOL    HW159139   7.186  13.451  10.438
19100SOL    HW259140   7.269  13.326  10.458
19101SOL     OW59141   9.280   2.909   1.725
19101SOL    HW159142   9.278   2.843   1.793
19101SOL    HW259143   9.263   2.992   1.770
19102SOL     OW59144   8.371   6.674   2.583
19102SOL    HW159145   8.280   6.696   2.600
19102SOL    HW259146   8.377   6.666   2.488
19103SOL     OW59147   4.353  11.839   7.679
19103SOL    HW159148   4.447  11.822   7.680
19103SOL    HW259149   4.316  11.773   7.737
19104SOL     OW59150   2.041   5.136  12.239
19104SOL    HW159151   2.023   5.045  12.214
19104SOL    HW259152   2.134   5.147  12.222
19105SOL     OW59153  12.498   5.317   9.169
19105SOL    HW159154  12.564   5.312   9.100
19105SOL    HW259155  12.420   5.352   9.125
19106SOL     OW59156  14.507   3.783   7.305
19106SOL    HW159157  14.421   3.747   7.283
19106SOL    HW259158  14.487   3.856   7.364
19107SOL     OW59159   1.801   9.515   1.915
19107SOL    HW159160   1.787   9.604   1.950
19107SOL    HW259161   1.876   9.482   1.963
19108SOL     OW59162   0.104   8.060   4.376
19108SOL    HW159163   0.073   8.147   4.401
19108SOL    HW259164   0.184   8.077   4.326
19109SOL     OW59165   1.127  13.775   5.381
19109SOL    HW159166   1.142  13.727   5.300
19109SOL    HW259167   1.054  13.834   5.361
19110SOL     OW59168   6.179   8.602  10.188
19110SOL    HW159169   6.216   8.570  10.105
19110SOL    HW259170   6.155   8.522  10.236
19111SOL     OW59171  10.942  12.822   7.436
19111SOL    HW159172  11.019  12.765   7.433
19111SOL    HW259173  10.978  12.910   7.449
19112SOL     OW59174   3.423   3.521   0.784
19112SOL    HW159175   3.465   3.436   0.769
19112SOL    HW259176   3.375   3.539   0.703
19113SOL     OW59177  14.776   3.401   6.377
19113SOL    HW159178  14.869   3.377   6.379
19113SOL    HW259179  14.743   3.375   6.463
19114SOL     OW59180   7.892  11.238   2.927
19114SOL    HW159181   7.840  11.273   2.854
19114SOL    HW259182   7.836  11.250   3.003
19115SOL     OW59183   5.566  11.764   0.631
19115SOL    HW159184   5.602  11.726   0.711
19115SOL    HW259185   5.492  11.706   0.609
19116SOL     OW59186   7.771   4.078   7.880
19116SOL    HW159187   7.703   4.131   7.922
19116SOL    HW259188   7.790   4.009   7.943
19117SOL     OW59189   0.403  14.125  13.201
19117SOL    HW159190   0.443  14.086  13.124
19117SOL    HW259191   0.316  14.085  13.206
19118SOL     OW59192  11.296   3.227  14.630
19118SOL    HW159193  11.287   3.232  14.725
19118SOL    HW259194  11.309   3.134  14.612
19119SOL     OW59195   2.137  11.544   3.721
19119SOL    HW159196   2.127  11.592   3.803
19119SOL    HW259197   2.207  11.590   3.674
19120SOL     OW59198   9.671   8.110   1.176
19120SOL    HW159199   9.675   8.049   1.103
19120SOL    HW259200   9.744   8.170   1.161
19121SOL     OW59201   1.861   1.141   0.439
19121SOL    HW159202   1.866   1.211   0.374
19121SOL    HW259203   1.891   1.063   0.393
19122SOL     OW59204  11.259   0.885  13.436
19122SOL    HW159205  11.290   0.969  13.401
19122SOL    HW259206  11.332   0.853  13.489
19123SOL     OW59207   4.768   2.294   4.017
19123SOL    HW159208   4.682   2.304   3.977
19123SOL    HW259209   4.821   2.363   3.978
19124SOL     OW59210  13.679   9.555   4.848
19124SOL    HW159211  13.679   9.637   4.798
19124SOL    HW259212  13.635   9.493   4.791
19125SOL     OW59213   1.172   1.950   4.395
19125SOL    HW159214   1.167   2.023   4.333
19125SOL    HW259215   1.082   1.922   4.407
19126SOL     OW59216   0.477  10.756   7.783
19126SOL    HW159217   0.427  10.813   7.841
19126SOL    HW259218   0.569  10.775   7.804
19127SOL     OW59219   3.155  14.312   1.848
19127SOL    HW159220   3.174  14.219   1.861
19127SOL    HW259221   3.062  14.321   1.869
19128SOL     OW59222   2.558  13.329  12.675
19128SOL    HW159223   2.550  13.385  12.598
19128SOL    HW259224   2.578  13.243  12.640
19129SOL     OW59225   2.582  11.959   1.085
19129SOL    HW159226   2.545  11.876   1.056
19129SOL    HW259227   2.545  12.024   1.026
19130SOL     OW59228   5.779   3.975   1.116
19130SOL    HW159229   5.790   4.030   1.193
19130SOL    HW259230   5.820   3.891   1.139
19131SOL     OW59231   3.667   6.565  10.808
19131SOL    HW159232   3.714   6.486  10.837
19131SOL    HW259233   3.645   6.547  10.717
19132SOL     OW59234   2.936  11.305   5.817
19132SOL    HW159235   3.021  11.297   5.774
19132SOL    HW259236   2.950  11.372   5.884
19133SOL     OW59237  14.271   5.505   1.950
19133SOL    HW159238  14.181   5.492   1.919
19133SOL    HW259239  14.310   5.566   1.887
19134SOL     OW59240   3.466   8.846  14.733
19134SOL    HW159241   3.418   8.767  14.757
19134SOL    HW259242   3.509   8.824  14.651
19135SOL     OW59243   4.957   7.154  13.957
19135SOL    HW159244   4.921   7.117  14.038
19135SOL    HW259245   5.027   7.213  13.987
19136SOL     OW59246   7.265  10.144  13.169
19136SOL    HW159247   7.170  10.154  13.182
19136SOL    HW259248   7.273  10.070  13.109
19137SOL     OW59249  11.930  13.705   8.976
19137SOL    HW159250  11.841  13.727   9.004
19137SOL    HW259251  11.986  13.763   9.027
19138SOL     OW59252   3.104   8.160   9.944
19138SOL    HW159253   3.021   8.139   9.985
19138SOL    HW259254   3.101   8.116   9.859
19139SOL     OW59255   5.827  12.027   2.430
19139SOL    HW159256   5.922  12.024   2.440
19139SOL    HW259257   5.811  11.983   2.346
19140SOL     OW59258   4.973   4.882   4.085
19140SOL    HW159259   4.892   4.834   4.072
19140SOL    HW259260   5.006   4.899   3.997
19141SOL     OW59261   7.773   9.119   1.071
19141SOL    HW159262   7.778   9.063   1.148
19141SOL    HW259263   7.689   9.097   1.031
19142SOL     OW59264   2.832   8.807   7.945
19142SOL    HW159265   2.771   8.736   7.924
19142SOL    HW259266   2.890   8.770   8.011
19143SOL     OW59267   2.729  11.539   8.519
19143SOL    HW159268   2.721  11.596   8.443
19143SOL    HW259269   2.671  11.465   8.501
19144SOL     OW59270   5.473   7.564   0.912
19144SOL    HW159271   5.551   7.577   0.859
19144SOL    HW259272   5.479   7.474   0.943
19145SOL     OW59273   5.877  13.698  14.818
19145SOL    HW159274   5.971  13.679  14.826
19145SOL    HW259275   5.861  13.701  14.724
19146SOL     OW59276   6.421  11.530   6.314
19146SOL    HW159277   6.343  11.557   6.265
19146SOL    HW259278   6.417  11.581   6.395
19147SOL     OW59279   2.118   6.431  11.536
19147SOL    HW159280   2.204   6.414  11.497
19147SOL    HW259281   2.081   6.344  11.548
19148SOL     OW59282  11.590  13.488  11.566
19148SOL    HW159283  11.518  13.431  11.593
19148SOL    HW259284  11.644  13.497  11.644
19149SOL     OW59285  10.407   6.030  13.076
19149SOL    HW159286  10.476   5.999  13.016
19149SOL    HW259287  10.415   6.125  13.075
19150SOL     OW59288   2.251   3.431  11.783
19150SOL    HW159289   2.266   3.520  11.752
19150SOL    HW259290   2.157   3.429  11.803
19151SOL     OW59291  11.157  12.333   5.277
19151SOL    HW159292  11.085  12.283   5.239
19151SOL    HW259293  11.118  12.381   5.349
19152SOL     OW59294   6.316   7.293   9.916
19152SOL    HW159295   6.356   7.234   9.852
19152SOL    HW259296   6.277   7.235   9.981
19153SOL     OW59297  10.755  14.274  14.838
19153SOL    HW159298  10.732  14.289   0.050
19153SOL    HW259299  10.850  14.272  14.838
19154SOL     OW59300  10.959  10.571  12.469
19154SOL    HW159301  11.013  10.500  12.504
19154SOL    HW259302  11.015  10.615  12.405
19155SOL     OW59303  13.298  13.236   7.647
19155SOL    HW159304  13.343  13.158   7.615
19155SOL    HW259305  13.330  13.248   7.737
19156SOL     OW59306   8.863   5.710  10.111
19156SOL    HW159307   8.821   5.781  10.063
19156SOL    HW259308   8.876   5.746  10.200
19157SOL     OW59309   1.835   0.651  13.780
19157SOL    HW159310   1.793   0.602  13.709
19157SOL    HW259311   1.763   0.696  13.824
19158SOL     OW59312   5.400  13.546   7.460
19158SOL    HW159313   5.427  13.592   7.380
19158SOL    HW259314   5.463  13.475   7.469
19159SOL     OW59315   5.902   7.755   8.597
19159SOL    HW159316   5.995   7.752   8.577
19159SOL    HW259317   5.897   7.751   8.692
19160SOL     OW59318   0.422  12.832   2.428
19160SOL    HW159319   0.481  12.757   2.421
19160SOL    HW259320   0.357  12.818   2.359
19161SOL     OW59321   8.895  12.290   2.373
19161SOL    HW159322   8.958  12.219   2.384
19161SOL    HW259323   8.864  12.309   2.462
19162SOL     OW59324   4.977  14.532   1.391
19162SOL    HW159325   4.888  14.501   1.379
19162SOL    HW259326   4.973  14.626   1.376
19163SOL     OW59327   7.599  11.618  11.980
19163SOL    HW159328   7.531  11.645  11.918
19163SOL    HW259329   7.560  11.632  12.066
19164SOL     OW59330   7.349  10.622   4.162
19164SOL    HW159331   7.415  10.608   4.230
19164SOL    HW259332   7.284  10.554   4.178
19165SOL     OW59333   7.709   2.382   9.344
19165SOL    HW159334   7.724   2.418   9.257
19165SOL    HW259335   7.787   2.330   9.362
19166SOL     OW59336   7.678   5.394   8.032
19166SOL    HW159337   7.595   5.397   8.081
19166SOL    HW259338   7.651   5.375   7.942
19167SOL     OW59339  13.484  14.421  10.198
19167SOL    HW159340  13.441  14.371  10.128
19167SOL    HW259341  13.507  14.356  10.263
19168SOL     OW59342  10.166   6.700   4.439
19168SOL    HW159343  10.100   6.647   4.484
19168SOL    HW259344  10.122   6.733   4.361
19169SOL     OW59345   0.364   4.750  11.792
19169SOL    HW159346   0.437   4.783  11.738
19169SOL    HW259347   0.305   4.709  11.729
19170SOL     OW59348   1.997   1.982   4.762
19170SOL    HW159349   2.009   1.950   4.851
19170SOL    HW259350   1.924   1.931   4.727
19171SOL     OW59351   3.851   8.570   3.315
19171SOL    HW159352   3.899   8.639   3.271
19171SOL    HW259353   3.909   8.494   3.312
19172SOL     OW59354  10.615  13.293  10.250
19172SOL    HW159355  10.635  13.211  10.295
19172SOL    HW259356  10.602  13.357  10.321
19173SOL     OW59357   7.719   7.876  14.019
19173SOL    HW159358   7.794   7.931  14.001
19173SOL    HW259359   7.648   7.913  13.966
19174SOL     OW59360   4.088   9.257  13.884
19174SOL    HW159361   4.093   9.201  13.806
19174SOL    HW259362   4.126   9.340  13.855
19175SOL     OW59363  14.429   6.214  12.797
19175SOL    HW159364  14.522   6.194  12.782
19175SOL    HW259365  14.383   6.134  12.772
19176SOL     OW59366   8.120   9.814   9.757
19176SOL    HW159367   8.101   9.721   9.768
19176SOL    HW259368   8.090   9.835   9.669
19177SOL     OW59369   5.798  10.476   4.577
19177SOL    HW159370   5.841  10.540   4.634
19177SOL    HW259371   5.810  10.512   4.489
19178SOL     OW59372  10.793   2.559   3.400
19178SOL    HW159373  10.866   2.619   3.408
19178SOL    HW259374  10.821   2.480   3.446
19179SOL     OW59375   5.765   2.795   6.036
19179SOL    HW159376   5.735   2.705   6.027
19179SOL    HW259377   5.765   2.830   5.947
19180SOL     OW59378   5.851   5.196  10.328
19180SOL    HW159379   5.803   5.278  10.342
19180SOL    HW259380   5.850   5.153  10.413
19181SOL     OW59381   6.193   5.634   9.111
19181SOL    HW159382   6.259   5.591   9.166
19181SOL    HW259383   6.143   5.562   9.072
19182SOL     OW59384   9.282   7.921   8.113
19182SOL    HW159385   9.353   7.959   8.060
19182SOL    HW259386   9.225   7.995   8.134
19183SOL     OW59387   3.818   1.002  13.307
19183SOL    HW159388   3.856   0.965  13.227
19183SOL    HW259389   3.890   1.001  13.370
19184SOL     OW59390   0.372   3.034   0.577
19184SOL    HW159391   0.354   3.098   0.508
19184SOL    HW259392   0.465   3.014   0.568
19185SOL     OW59393  14.404   9.612   7.647
19185SOL    HW159394  14.474   9.670   7.676
19185SOL    HW259395  14.448   9.529   7.628
19186SOL     OW59396  13.156   5.238  13.015
19186SOL    HW159397  13.223   5.258  13.081
19186SOL    HW259398  13.079   5.289  13.043
19187SOL     OW59399   0.060   8.982  14.294
19187SOL    HW159400   0.060   8.972  14.389
19187SOL    HW259401   0.060   9.076  14.279
19188SOL     OW59402   8.316   4.422   1.192
19188SOL    HW159403   8.222   4.428   1.203
19188SOL    HW259404   8.352   4.446   1.277
19189SOL     OW59405  11.343  12.706  10.194
19189SOL    HW159406  11.250  12.693  10.175
19189SOL    HW259407  11.372  12.771  10.130
19190SOL     OW59408  14.385   5.043  11.697
19190SOL    HW159409  14.364   4.963  11.648
19190SOL    HW259410  14.429   5.012  11.777
19191SOL     OW59411  12.214   0.162   7.887
19191SOL    HW159412  12.140   0.164   7.948
19191SOL    HW259413  12.241   0.070   7.885
19192SOL     OW59414   7.932   9.752   8.136
19192SOL    HW159415   8.022   9.730   8.112
19192SOL    HW259416   7.938   9.784   8.226
19193SOL     OW59417   6.494   1.466  14.787
19193SOL    HW159418   6.548   1.406  14.838
19193SOL    HW259419   6.404   1.442  14.808
19194SOL     OW59420   7.310  13.597   3.311
19194SOL    HW159421   7.393  13.549   3.319
19194SOL    HW259422   7.256  13.543   3.254
19195SOL     OW59423  11.154   0.741  13.214
19195SOL    HW159424  11.236   0.722  13.167
19195SOL    HW259425  11.181   0.798  13.286
19196SOL     OW59426  10.019   2.476   8.291
19196SOL    HW159427  10.082   2.447   8.225
19196SOL    HW259428  10.071   2.493   8.369
19197SOL     OW59429   6.388   7.487  10.709
19197SOL    HW159430   6.364   7.571  10.668
19197SOL    HW259431   6.408   7.509  10.800
19198SOL     OW59432   0.538   2.654   0.571
19198SOL    HW159433   0.517   2.561   0.561
19198SOL    HW259434   0.494   2.681   0.652
19199SOL     OW59435   1.759   5.675  10.331
19199SOL    HW159436   1.745   5.758  10.285
19199SOL    HW259437   1.841   5.642  10.295
19200SOL     OW59438   4.232   0.013   3.182
19200SOL    HW159439   4.172   0.088   3.176
19200SOL    HW259440   4.317   0.048   3.157
19201SOL     OW59441   3.886   8.363   6.120
19201SOL    HW159442   3.896   8.269   6.108
19201SOL    HW259443   3.792   8.378   6.119
19202SOL     OW59444   1.225  13.795   7.732
19202SOL    HW159445   1.200  13.778   7.641
19202SOL    HW259446   1.238  13.890   7.737
19203SOL     OW59447  11.660   2.942   0.094
19203SOL    HW159448  11.606   3.021   0.089
19203SOL    HW259449  11.677   2.930   0.187
19204SOL     OW59450   3.711   6.892  14.410
19204SOL    HW159451   3.715   6.816  14.467
19204SOL    HW259452   3.686   6.965  14.467
19205SOL     OW59453   2.957  12.606   4.363
19205SOL    HW159454   2.872  12.560   4.365
19205SOL    HW259455   2.946  12.680   4.422
19206SOL     OW59456   1.103  13.966  14.028
19206SOL    HW159457   1.008  13.980  14.029
19206SOL    HW259458   1.119  13.912  13.951
19207SOL     OW59459   3.483  10.995   2.361
19207SOL    HW159460   3.517  10.918   2.406
19207SOL    HW259461   3.469  11.059   2.431
19208SOL     OW59462   7.914   9.141  10.146
19208SOL    HW159463   7.821   9.125  10.134
19208SOL    HW259464   7.951   9.055  10.165
19209SOL     OW59465   9.122   1.767   4.545
19209SOL    HW159466   9.111   1.681   4.503
19209SOL    HW259467   9.158   1.823   4.476
19210SOL     OW59468  11.207  12.734   3.793
19210SOL    HW159469  11.200  12.804   3.859
19210SOL    HW259470  11.117  12.704   3.782
19211SOL     OW59471   9.795  14.099   9.723
19211SOL    HW159472   9.802  14.005   9.711
19211SOL    HW259473   9.723  14.110   9.786
19212SOL     OW59474   2.471   3.152   9.800
19212SOL    HW159475   2.391   3.204   9.796
19212SOL    HW259476   2.506   3.167   9.888
19213SOL     OW59477   6.141   7.557  11.524
19213SOL    HW159478   6.062   7.593  11.564
19213SOL    HW259479   6.163   7.618  11.454
19214SOL     OW59480   7.161   2.361   9.483
19214SOL    HW159481   7.135   2.382   9.393
19214SOL    HW259482   7.083   2.380   9.535
19215SOL     OW59483   5.861  12.249   2.238
19215SOL    HW159484   5.821  12.265   2.323
19215SOL    HW259485   5.938  12.306   2.237
19216SOL     OW59486   9.391   7.429   0.395
19216SOL    HW159487   9.412   7.378   0.317
19216SOL    HW259488   9.453   7.502   0.393
19217SOL     OW59489   0.250  10.808  12.358
19217SOL    HW159490   0.323  10.868  12.343
19217SOL    HW259491   0.286  10.741  12.416
19218SOL     OW59492   3.307  14.368   4.472
19218SOL    HW159493   3.234  14.333   4.422
19218SOL    HW259494   3.383  14.318   4.441
19219SOL     OW59495   9.810   0.831   1.476
19219SOL    HW159496   9.767   0.904   1.432
19219SOL    HW259497   9.832   0.770   1.406
19220SOL     OW59498  10.095   1.260   4.436
19220SOL    HW159499  10.188   1.245   4.418
19220SOL    HW259500  10.089   1.259   4.531
19221SOL     OW59501  11.130   0.795  11.971
19221SOL    HW159502  11.114   0.748  12.053
19221SOL    HW259503  11.224   0.813  11.972
19222SOL     OW59504  14.361   0.317   3.308
19222SOL    HW159505  14.289   0.268   3.347
19222SOL    HW259506  14.431   0.253   3.297
19223SOL     OW59507   8.095   8.059   0.240
19223SOL    HW159508   8.018   8.004   0.227
19223SOL    HW259509   8.066   8.127   0.301
19224SOL     OW59510  12.844   4.756   1.048
19224SOL    HW159511  12.883   4.753   1.135
19224SOL    HW259512  12.886   4.830   1.005
19225SOL     OW59513   4.546   5.746  10.461
19225SOL    HW159514   4.527   5.676  10.523
19225SOL    HW259515   4.617   5.796  10.502
19226SOL     OW59516   8.895   0.486   2.424
19226SOL    HW159517   8.899   0.532   2.508
19226SOL    HW259518   8.826   0.420   2.436
19227SOL     OW59519  10.151   2.928  10.972
19227SOL    HW159520  10.071   2.972  11.001
19227SOL    HW259521  10.169   2.968  10.887
19228SOL     OW59522   9.301  10.206   6.666
19228SOL    HW159523   9.373  10.199   6.603
19228SOL    HW259524   9.311  10.129   6.723
19229SOL     OW59525  13.522   0.110  11.404
19229SOL    HW159526  13.468   0.185  11.379
19229SOL    HW259527  13.514   0.049  11.330
19230SOL     OW59528  14.058  12.662   1.791
19230SOL    HW159529  14.108  12.661   1.872
19230SOL    HW259530  14.098  12.732   1.739
19231SOL     OW59531   4.792   1.556  10.824
19231SOL    HW159532   4.732   1.576  10.752
19231SOL    HW259533   4.748   1.590  10.902
19232SOL     OW59534  12.422   0.613  13.434
19232SOL    HW159535  12.434   0.689  13.492
19232SOL    HW259536  12.378   0.548  13.488
19233SOL     OW59537  10.651   3.511  11.562
19233SOL    HW159538  10.639   3.440  11.499
19233SOL    HW259539  10.641   3.591  11.510
19234SOL     OW59540  14.189   9.253   7.418
19234SOL    HW159541  14.235   9.180   7.378
19234SOL    HW259542  14.244   9.279   7.492
19235SOL     OW59543   2.704   3.989   6.228
19235SOL    HW159544   2.765   4.058   6.202
19235SOL    HW259545   2.758   3.910   6.233
19236SOL     OW59546  10.316   0.927  13.831
19236SOL    HW159547  10.263   0.895  13.758
19236SOL    HW259548  10.255   0.934  13.904
19237SOL     OW59549  10.553   1.867   9.552
19237SOL    HW159550  10.516   1.929   9.615
19237SOL    HW259551  10.620   1.820   9.602
19238SOL     OW59552  11.206   8.512  10.212
19238SOL    HW159553  11.291   8.497  10.170
19238SOL    HW259554  11.142   8.487  10.145
19239SOL     OW59555   7.183  12.147  14.450
19239SOL    HW159556   7.128  12.147  14.371
19239SOL    HW259557   7.271  12.165  14.418
19240SOL     OW59558  12.766  10.529   4.474
19240SOL    HW159559  12.739  10.442   4.505
19240SOL    HW259560  12.783  10.579   4.554
19241SOL     OW59561  12.441   1.891   9.261
19241SOL    HW159562  12.404   1.903   9.174
19241SOL    HW259563  12.462   1.798   9.265
19242SOL     OW59564   4.468   4.216   9.756
19242SOL    HW159565   4.498   4.132   9.721
19242SOL    HW259566   4.515   4.226   9.839
19243SOL     OW59567   1.133  13.814   0.102
19243SOL    HW159568   1.075  13.749   0.142
19243SOL    HW259569   1.181  13.852   0.175
19244SOL     OW59570   8.803   0.793   2.413
19244SOL    HW159571   8.747   0.787   2.491
19244SOL    HW259572   8.892   0.799   2.448
19245SOL     OW59573   0.085  12.280   1.704
19245SOL    HW159574   0.097  12.282   1.610
19245SOL    HW259575   0.059  12.189   1.723
19246SOL     OW59576   2.081  10.768  12.296
19246SOL    HW159577   2.175  10.784  12.284
19246SOL    HW259578   2.066  10.681  12.259
19247SOL     OW59579   4.195   5.945   2.677
19247SOL    HW159580   4.266   5.934   2.740
19247SOL    HW259581   4.116   5.932   2.728
19248SOL     OW59582   2.286   4.371   1.161
19248SOL    HW159583   2.248   4.326   1.085
19248SOL    HW259584   2.239   4.336   1.236
19249SOL     OW59585  14.015   1.470   4.492
19249SOL    HW159586  14.024   1.566   4.487
19249SOL    HW259587  14.084   1.436   4.435
19250SOL     OW59588   5.234   6.269   1.342
19250SOL    HW159589   5.156   6.321   1.322
19250SOL    HW259590   5.203   6.178   1.341
19251SOL     OW59591   3.659   4.435  13.167
19251SOL    HW159592   3.686   4.344  13.179
19251SOL    HW259593   3.638   4.465  13.256
19252SOL     OW59594  11.798   5.527   2.609
19252SOL    HW159595  11.792   5.615   2.571
19252SOL    HW259596  11.775   5.538   2.701
19253SOL     OW59597  12.525   5.302  10.445
19253SOL    HW159598  12.578   5.229  10.413
19253SOL    HW259599  12.585   5.377  10.444
19254SOL     OW59600   9.246  12.339  13.619
19254SOL    HW159601   9.275  12.396  13.549
19254SOL    HW259602   9.233  12.254  13.577
19255SOL     OW59603   3.785   6.277   9.041
19255SOL    HW159604   3.739   6.298   8.960
19255SOL    HW259605   3.869   6.323   9.035
19256SOL     OW59606  10.144   7.973   1.457
19256SOL    HW159607  10.163   8.057   1.413
19256SOL    HW259608  10.144   7.994   1.550
19257SOL     OW59609   8.550   3.948   6.763
19257SOL    HW159610   8.513   3.984   6.682
19257SOL    HW259611   8.525   4.012   6.830
19258SOL     OW59612  13.541   8.189  11.188
19258SOL    HW159613  13.537   8.256  11.257
19258SOL    HW259614  13.560   8.237  11.108
19259SOL     OW59615  11.953   6.064  14.746
19259SOL    HW159616  12.010   5.991  14.770
19259SOL    HW259617  11.914   6.037  14.662
19260SOL     OW59618   1.083  10.497   6.419
19260SOL    HW159619   0.989  10.506   6.404
19260SOL    HW259620   1.102  10.561   6.488
19261SOL     OW59621   9.499   2.703   5.150
19261SOL    HW159622   9.471   2.783   5.193
19261SOL    HW259623   9.419   2.668   5.111
19262SOL     OW59624   8.166   7.065   1.323
19262SOL    HW159625   8.259   7.089   1.316
19262SOL    HW259626   8.122   7.123   1.261
19263SOL     OW59627  10.948  10.886  11.336
19263SOL    HW159628  10.979  10.852  11.252
19263SOL    HW259629  10.885  10.954  11.313
19264SOL     OW59630  14.573   9.440  11.464
19264SOL    HW159631  14.639   9.464  11.529
19264SOL    HW259632  14.613   9.461  11.380
19265SOL     OW59633   0.409  14.037   6.618
19265SOL    HW159634   0.374  13.955   6.583
19265SOL    HW259635   0.449  14.080   6.543
19266SOL     OW59636   4.249   8.675   3.291
19266SOL    HW159637   4.194   8.621   3.235
19266SOL    HW259638   4.188   8.726   3.343
19267SOL     OW59639  14.874   8.460   0.336
19267SOL    HW159640   0.081   8.497   0.351
19267SOL    HW259641   0.011   8.373   0.299
19268SOL     OW59642   0.492  10.848   5.083
19268SOL    HW159643   0.446  10.919   5.127
19268SOL    HW259644   0.430  10.775   5.085
19269SOL     OW59645   5.320   4.786  14.175
19269SOL    HW159646   5.409   4.752  14.163
19269SOL    HW259647   5.273   4.757  14.097
19270SOL     OW59648   2.336   5.202   4.046
19270SOL    HW159649   2.379   5.226   4.128
19270SOL    HW259650   2.408   5.192   3.983
19271SOL     OW59651  12.550   3.139   9.513
19271SOL    HW159652  12.522   3.060   9.559
19271SOL    HW259653  12.638   3.119   9.482
19272SOL     OW59654   9.390  12.640   0.775
19272SOL    HW159655   9.319  12.628   0.712
19272SOL    HW259656   9.375  12.727   0.812
19273SOL     OW59657  14.741   3.604   2.434
19273SOL    HW159658  14.827   3.606   2.391
19273SOL    HW259659  14.761   3.582   2.525
19274SOL     OW59660   0.722  12.403   3.418
19274SOL    HW159661   0.640  12.398   3.467
19274SOL    HW259662   0.789  12.377   3.481
19275SOL     OW59663   7.936  14.661   5.161
19275SOL    HW159664   7.958  14.625   5.247
19275SOL    HW259665   7.925  14.584   5.104
19276SOL     OW59666  14.446   2.980   8.764
19276SOL    HW159667  14.459   3.027   8.682
19276SOL    HW259668  14.486   2.894   8.748
19277SOL     OW59669   2.346  10.003   4.006
19277SOL    HW159670   2.253  10.013   3.986
19277SOL    HW259671   2.361  10.062   4.080
19278SOL     OW59672   3.183  13.163  12.888
19278SOL    HW159673   3.147  13.075  12.882
19278SOL    HW259674   3.276  13.149  12.909
19279SOL     OW59675   7.526   3.434   9.848
19279SOL    HW159676   7.608   3.426   9.798
19279SOL    HW259677   7.539   3.512   9.903
19280SOL     OW59678  12.148   1.564   3.970
19280SOL    HW159679  12.153   1.547   3.875
19280SOL    HW259680  12.054   1.565   3.989
19281SOL     OW59681  14.869   2.289   1.358
19281SOL    HW159682  14.876   2.382   1.379
19281SOL    HW259683  14.794   2.284   1.299
19282SOL     OW59684   6.413   5.209  13.988
19282SOL    HW159685   6.471   5.281  14.013
19282SOL    HW259686   6.438   5.138  14.048
19283SOL     OW59687   0.930   9.190   0.205
19283SOL    HW159688   0.867   9.200   0.276
19283SOL    HW259689   0.989   9.265   0.215
19284SOL     OW59690   9.379   2.937  13.842
19284SOL    HW159691   9.326   2.963  13.918
19284SOL    HW259692   9.377   3.013  13.784
19285SOL     OW59693   5.453   3.435  14.453
19285SOL    HW159694   5.434   3.467  14.365
19285SOL    HW259695   5.399   3.356  14.462
19286SOL     OW59696   1.913  14.081  11.894
19286SOL    HW159697   1.967  14.148  11.851
19286SOL    HW259698   1.855  14.049  11.825
19287SOL     OW59699   7.957  13.318   2.875
19287SOL    HW159700   8.034  13.279   2.916
19287SOL    HW259701   7.960  13.410   2.902
19288SOL     OW59702   9.182   3.632   8.605
19288SOL    HW159703   9.221   3.561   8.655
19288SOL    HW259704   9.154   3.695   8.671
19289SOL     OW59705  10.919  12.110  14.208
19289SOL    HW159706  10.975  12.148  14.140
19289SOL    HW259707  10.907  12.181  14.271
19290SOL     OW59708   5.447   4.779   1.294
19290SOL    HW159709   5.361   4.810   1.321
19290SOL    HW259710   5.489   4.753   1.377
19291SOL     OW59711   0.018   5.114   6.155
19291SOL    HW159712   0.033   5.072   6.239
19291SOL    HW259713   0.105   5.118   6.115
19292SOL     OW59714   9.208  11.427   1.887
19292SOL    HW159715   9.194  11.491   1.957
19292SOL    HW259716   9.288  11.456   1.844
19293SOL     OW59717  11.894   9.188   8.456
19293SOL    HW159718  11.950   9.129   8.508
19293SOL    HW259719  11.934   9.188   8.369
19294SOL     OW59720   4.842   9.290   7.658
19294SOL    HW159721   4.788   9.283   7.737
19294SOL    HW259722   4.781   9.274   7.586
19295SOL     OW59723   0.785   4.801   2.568
19295SOL    HW159724   0.871   4.763   2.549
19295SOL    HW259725   0.723   4.742   2.524
19296SOL     OW59726  10.412   7.150   7.172
19296SOL    HW159727  10.449   7.231   7.138
19296SOL    HW259728  10.482   7.113   7.227
19297SOL     OW59729   9.549   0.244   8.586
19297SOL    HW159730   9.459   0.256   8.556
19297SOL    HW259731   9.600   0.238   8.505
19298SOL     OW59732  13.866   2.805   8.131
19298SOL    HW159733  13.785   2.769   8.096
19298SOL    HW259734  13.870   2.772   8.221
19299SOL     OW59735   5.547  12.528  10.065
19299SOL    HW159736   5.625  12.570  10.101
19299SOL    HW259737   5.581  12.454  10.014
19300SOL     OW59738   6.932   6.641   7.711
19300SOL    HW159739   7.005   6.672   7.657
19300SOL    HW259740   6.898   6.720   7.753
19301SOL     OW59741  12.177   9.159   1.758
19301SOL    HW159742  12.152   9.223   1.691
19301SOL    HW259743  12.267   9.182   1.781
19302SOL     OW59744  13.580   4.624  11.378
19302SOL    HW159745  13.597   4.702  11.431
19302SOL    HW259746  13.620   4.643  11.293
19303SOL     OW59747   0.637  11.493  14.602
19303SOL    HW159748   0.704  11.562  14.599
19303SOL    HW259749   0.673  11.429  14.663
19304SOL     OW59750  11.604  14.522  10.440
19304SOL    HW159751  11.610  14.500  10.347
19304SOL    HW259752  11.540  14.460  10.475
19305SOL     OW59753  14.351   4.703   0.293
19305SOL    HW159754  14.303   4.768   0.241
19305SOL    HW259755  14.293   4.683   0.366
19306SOL     OW59756  10.486   1.756   8.762
19306SOL    HW159757  10.556   1.778   8.823
19306SOL    HW259758  10.405   1.770   8.811
19307SOL     OW59759   3.699   4.264  11.249
19307SOL    HW159760   3.727   4.172  11.244
19307SOL    HW259761   3.604   4.260  11.243
19308SOL     OW59762   4.409  11.503   0.627
19308SOL    HW159763   4.336  11.544   0.580
19308SOL    HW259764   4.482  11.563   0.615
19309SOL     OW59765   2.987  12.572  11.038
19309SOL    HW159766   3.028  12.596  10.954
19309SOL    HW259767   2.958  12.482  11.026
19310SOL     OW59768  11.406   6.096  11.205
19310SOL    HW159769  11.416   6.095  11.300
19310SOL    HW259770  11.427   6.186  11.180
19311SOL     OW59771  11.939  11.024   5.527
19311SOL    HW159772  11.991  11.095   5.565
19311SOL    HW259773  11.901  10.980   5.604
19312SOL     OW59774   9.136   9.575   8.859
19312SOL    HW159775   9.101   9.645   8.804
19312SOL    HW259776   9.071   9.564   8.929
19313SOL     OW59777  11.075  10.371  12.606
19313SOL    HW159778  11.149  10.311  12.613
19313SOL    HW259779  11.049  10.389  12.696
19314SOL     OW59780  13.456   8.318  12.161
19314SOL    HW159781  13.545   8.353  12.161
19314SOL    HW259782  13.400   8.393  12.179
19315SOL     OW59783  14.559   2.389   6.036
19315SOL    HW159784  14.646   2.417   6.064
19315SOL    HW259785  14.515   2.471   6.012
19316SOL     OW59786   7.497   1.515   5.804
19316SOL    HW159787   7.480   1.568   5.726
19316SOL    HW259788   7.434   1.548   5.869
19317SOL     OW59789  13.173  10.560   0.056
19317SOL    HW159790  13.096  10.615   0.043
19317SOL    HW259791  13.139  10.471   0.055
19318SOL     OW59792   7.343   0.123   0.981
19318SOL    HW159793   7.310   0.142   1.069
19318SOL    HW259794   7.429   0.085   0.995
19319SOL     OW59795  10.675   7.023  12.696
19319SOL    HW159796  10.659   7.101  12.749
19319SOL    HW259797  10.666   6.950  12.756
19320SOL     OW59798   5.993  14.478   0.261
19320SOL    HW159799   5.916  14.509   0.308
19320SOL    HW259800   5.986  14.383   0.263
19321SOL     OW59801   4.306   7.590  13.692
19321SOL    HW159802   4.243   7.536  13.739
19321SOL    HW259803   4.387   7.582  13.741
19322SOL     OW59804  14.704   5.691  13.891
19322SOL    HW159805  14.738   5.701  13.803
19322SOL    HW259806  14.733   5.770  13.937
19323SOL     OW59807   6.591  14.005   7.274
19323SOL    HW159808   6.513  13.969   7.234
19323SOL    HW259809   6.585  13.979   7.366
19324SOL     OW59810   0.998   4.540   9.981
19324SOL    HW159811   0.988   4.618  10.037
19324SOL    HW259812   0.991   4.574   9.892
19325SOL     OW59813   0.050   1.057   5.304
19325SOL    HW159814   0.052   0.990   5.373
19325SOL    HW259815   0.093   1.014   5.230
19326SOL     OW59816   9.720   5.837  14.528
19326SOL    HW159817   9.744   5.914  14.580
19326SOL    HW259818   9.793   5.825  14.467
19327SOL     OW59819   9.397   0.926   5.025
19327SOL    HW159820   9.406   0.925   4.930
19327SOL    HW259821   9.383   1.018   5.048
19328SOL     OW59822   1.293   8.252  14.781
19328SOL    HW159823   1.302   8.330  14.726
19328SOL    HW259824   1.314   8.179  14.722
19329SOL     OW59825   4.635  13.169   4.572
19329SOL    HW159826   4.542  13.166   4.548
19329SOL    HW259827   4.650  13.086   4.618
19330SOL     OW59828   3.792   0.257  13.593
19330SOL    HW159829   3.877   0.218  13.573
19330SOL    HW259830   3.728   0.193  13.562
19331SOL     OW59831   1.640   1.422  14.734
19331SOL    HW159832   1.590   1.497  14.767
19331SOL    HW259833   1.573   1.360  14.706
19332SOL     OW59834  13.137   5.061   4.177
19332SOL    HW159835  13.165   5.152   4.179
19332SOL    HW259836  13.097   5.050   4.090
19333SOL     OW59837   3.962   7.169   4.390
19333SOL    HW159838   4.000   7.212   4.313
19333SOL    HW259839   4.000   7.082   4.390
19334SOL     OW59840  10.133  12.096   4.997
19334SOL    HW159841  10.155  12.098   5.090
19334SOL    HW259842  10.212  12.127   4.952
19335SOL     OW59843   0.463  13.224   1.785
19335SOL    HW159844   0.506  13.218   1.870
19335SOL    HW259845   0.470  13.316   1.760
19336SOL     OW59846   3.657  13.512   5.683
19336SOL    HW159847   3.676  13.580   5.747
19336SOL    HW259848   3.734  13.455   5.685
19337SOL     OW59849   3.068   9.411   4.230
19337SOL    HW159850   3.092   9.352   4.159
19337SOL    HW259851   2.972   9.416   4.226
19338SOL     OW59852  14.330  10.059  10.538
19338SOL    HW159853  14.313  10.149  10.568
19338SOL    HW259854  14.416  10.062  10.498
19339SOL     OW59855   4.773   3.115   7.699
19339SOL    HW159856   4.754   3.076   7.614
19339SOL    HW259857   4.865   3.143   7.692
19340SOL     OW59858   3.741   4.218   9.933
19340SOL    HW159859   3.834   4.214   9.911
19340SOL    HW259860   3.736   4.184  10.022
19341SOL     OW59861  13.760   3.256   8.642
19341SOL    HW159862  13.826   3.267   8.710
19341SOL    HW259863  13.727   3.167   8.655
19342SOL     OW59864   2.910   7.458   2.746
19342SOL    HW159865   2.872   7.373   2.723
19342SOL    HW259866   2.848   7.495   2.809
19343SOL     OW59867   9.774   1.781  11.023
19343SOL    HW159868   9.797   1.873  11.020
19343SOL    HW259869   9.848   1.736  10.982
19344SOL     OW59870   6.271   0.361   4.252
19344SOL    HW159871   6.289   0.422   4.324
19344SOL    HW259872   6.244   0.280   4.296
19345SOL     OW59873   2.891   6.319  14.381
19345SOL    HW159874   2.924   6.404  14.352
19345SOL    HW259875   2.864   6.333  14.471
19346SOL     OW59876  10.462   9.200  14.466
19346SOL    HW159877  10.474   9.210  14.372
19346SOL    HW259878  10.486   9.109  14.484
19347SOL     OW59879   1.068  11.247   0.198
19347SOL    HW159880   1.030  11.160   0.200
19347SOL    HW259881   1.017  11.295   0.133
19348SOL     OW59882  12.895   5.337   5.169
19348SOL    HW159883  12.862   5.314   5.083
19348SOL    HW259884  12.819   5.333   5.227
19349SOL     OW59885   0.932  13.422   2.379
19349SOL    HW159886   0.908  13.514   2.365
19349SOL    HW259887   0.849  13.375   2.374
19350SOL     OW59888  12.656   0.496  11.576
19350SOL    HW159889  12.568   0.461  11.558
19350SOL    HW259890  12.713   0.420  11.576
19351SOL     OW59891  13.359   9.863   2.807
19351SOL    HW159892  13.422   9.796   2.782
19351SOL    HW259893  13.410   9.944   2.808
19352SOL     OW59894  10.956  14.100   4.357
19352SOL    HW159895  11.017  14.070   4.290
19352SOL    HW259896  10.987  14.187   4.381
19353SOL     OW59897   6.770   6.653   0.150
19353SOL    HW159898   6.696   6.605   0.188
19353SOL    HW259899   6.838   6.587   0.139
19354SOL     OW59900  13.974   7.486   9.212
19354SOL    HW159901  14.048   7.546   9.208
19354SOL    HW259902  14.014   7.399   9.204
19355SOL     OW59903   9.474  12.066   9.202
19355SOL    HW159904   9.543  12.089   9.140
19355SOL    HW259905   9.519  12.050   9.284
19356SOL     OW59906   1.055   6.921   3.871
19356SOL    HW159907   1.068   6.869   3.792
19356SOL    HW259908   1.013   7.002   3.839
19357SOL     OW59909   8.156   5.555   8.505
19357SOL    HW159910   8.147   5.610   8.427
19357SOL    HW259911   8.107   5.601   8.573
19358SOL     OW59912  14.307  14.070  10.565
19358SOL    HW159913  14.349  13.986  10.584
19358SOL    HW259914  14.322  14.084  10.471
19359SOL     OW59915  14.802   7.675   6.783
19359SOL    HW159916  14.725   7.639   6.828
19359SOL    HW259917  14.766   7.742   6.725
19360SOL     OW59918   0.831   1.158   8.914
19360SOL    HW159919   0.855   1.123   9.000
19360SOL    HW259920   0.885   1.110   8.852
19361SOL     OW59921  12.120  11.669   2.566
19361SOL    HW159922  12.178  11.731   2.522
19361SOL    HW259923  12.172  11.589   2.575
19362SOL     OW59924  11.486   8.004   5.879
19362SOL    HW159925  11.501   7.989   5.786
19362SOL    HW259926  11.452   8.093   5.884
19363SOL     OW59927  14.670   7.039   4.917
19363SOL    HW159928  14.616   7.041   4.838
19363SOL    HW259929  14.734   6.969   4.900
19364SOL     OW59930   6.403   3.332  11.884
19364SOL    HW159931   6.398   3.238  11.905
19364SOL    HW259932   6.367   3.376  11.961
19365SOL     OW59933   9.161  14.683   4.474
19365SOL    HW159934   9.163  14.709   4.566
19365SOL    HW259935   9.084  14.627   4.466
19366SOL     OW59936   2.603   7.587   8.005
19366SOL    HW159937   2.680   7.599   7.950
19366SOL    HW259938   2.530   7.586   7.943
19367SOL     OW59939   8.960   2.612   8.292
19367SOL    HW159940   9.049   2.588   8.316
19367SOL    HW259941   8.907   2.537   8.319
19368SOL     OW59942  12.281   8.799   8.232
19368SOL    HW159943  12.317   8.767   8.149
19368SOL    HW259944  12.357   8.802   8.291
19369SOL     OW59945   7.504  12.053   1.894
19369SOL    HW159946   7.453  11.973   1.900
19369SOL    HW259947   7.526  12.061   1.801
19370SOL     OW59948   3.773   8.566   2.495
19370SOL    HW159949   3.753   8.659   2.486
19370SOL    HW259950   3.787   8.553   2.589
19371SOL     OW59951   3.886   7.626  14.454
19371SOL    HW159952   3.926   7.712  14.464
19371SOL    HW259953   3.958   7.564  14.465
19372SOL     OW59954   7.513   9.183  14.057
19372SOL    HW159955   7.502   9.158  13.965
19372SOL    HW259956   7.604   9.211  14.063
19373SOL     OW59957  12.899   0.150   9.411
19373SOL    HW159958  12.832   0.218   9.417
19373SOL    HW259959  12.886   0.111   9.324
19374SOL     OW59960   1.407  11.176   8.475
19374SOL    HW159961   1.360  11.260   8.475
19374SOL    HW259962   1.397  11.142   8.564
19375SOL     OW59963   2.415  14.652   8.270
19375SOL    HW159964   2.502  14.682   8.298
19375SOL    HW259965   2.354  14.713   8.312
19376SOL     OW59966  10.866  10.725   4.447
19376SOL    HW159967  10.861  10.752   4.539
19376SOL    HW259968  10.861  10.629   4.451
19377SOL     OW59969   0.196   5.822   4.688
19377SOL    HW159970   0.267   5.762   4.664
19377SOL    HW259971   0.118   5.767   4.690
19378SOL     OW59972   4.065   2.024  11.247
19378SOL    HW159973   4.023   2.102  11.210
19378SOL    HW259974   4.130   2.059  11.308
19379SOL     OW59975   9.406   6.932  10.925
19379SOL    HW159976   9.362   6.961  11.004
19379SOL    HW259977   9.494   6.967  10.932
19380SOL     OW59978   5.652   6.894  11.487
19380SOL    HW159979   5.624   6.814  11.531
19380SOL    HW259980   5.728   6.868  11.435
19381SOL     OW59981  14.269   9.659   2.170
19381SOL    HW159982  14.290   9.752   2.166
19381SOL    HW259983  14.239   9.637   2.082
19382SOL     OW59984   4.148  10.293   3.466
19382SOL    HW159985   4.142  10.231   3.394
19382SOL    HW259986   4.095  10.254   3.536
19383SOL     OW59987   9.707   7.221   1.040
19383SOL    HW159988   9.719   7.316   1.048
19383SOL    HW259989   9.661   7.196   1.120
19384SOL     OW59990   0.354  13.139  10.582
19384SOL    HW159991   0.263  13.132  10.551
19384SOL    HW259992   0.367  13.232  10.596
19385SOL     OW59993   6.739   6.406  11.573
19385SOL    HW159994   6.798   6.472  11.609
19385SOL    HW259995   6.790   6.362  11.505
19386SOL     OW59996   5.009   5.374  12.978
19386SOL    HW159997   5.076   5.429  13.018
19386SOL    HW259998   4.960   5.337  13.052
19387SOL     OW59999   8.451   6.993  10.798
19387SOL    HW160000   8.373   7.025  10.843
19387SOL    HW260001   8.430   7.001  10.705
19388SOL     OW60002   6.999   4.060   2.267
19388SOL    HW160003   6.992   4.150   2.298
19388SOL    HW260004   7.093   4.045   2.261
19389SOL     OW60005   5.840  14.766   2.264
19389SOL    HW160006   5.873  14.836   2.320
19389SOL    HW260007   5.752  14.795   2.239
19390SOL     OW60008  13.108   4.173  13.317
19390SOL    HW160009  13.125   4.111  13.247
19390SOL    HW260010  13.181   4.234  13.314
19391SOL     OW60011  10.471  12.469   4.847
19391SOL    HW160012  10.403  12.475   4.780
19391SOL    HW260013  10.535  12.407   4.811
19392SOL     OW60014  14.240   1.409  10.759
19392SOL    HW160015  14.320   1.462  10.753
19392SOL    HW260016  14.176   1.456  10.706
19393SOL     OW60017  14.000   2.232   1.847
19393SOL    HW160018  13.920   2.216   1.797
19393SOL    HW260019  14.057   2.280   1.787
19394SOL     OW60020   9.763   5.052  10.758
19394SOL    HW160021   9.845   5.100  10.745
19394SOL    HW260022   9.779   4.999  10.836
19395SOL     OW60023   2.950  10.673   7.254
19395SOL    HW160024   3.033  10.679   7.207
19395SOL    HW260025   2.890  10.727   7.204
19396SOL     OW60026   0.293  14.359   4.692
19396SOL    HW160027   0.256  14.440   4.657
19396SOL    HW260028   0.384  14.358   4.660
19397SOL     OW60029  10.075   7.644  10.125
19397SOL    HW160030  10.133   7.719  10.111
19397SOL    HW260031  10.079   7.595  10.043
19398SOL     OW60032   7.892   5.302   9.749
19398SOL    HW160033   7.966   5.254   9.712
19398SOL    HW260034   7.817   5.245   9.735
19399SOL     OW60035  12.827  12.206   8.335
19399SOL    HW160036  12.883  12.161   8.398
19399SOL    HW260037  12.785  12.136   8.285
19400SOL     OW60038   8.316  13.455   6.543
19400SOL    HW160039   8.372  13.388   6.581
19400SOL    HW260040   8.358  13.476   6.460
19401SOL     OW60041  10.854   0.141   3.014
19401SOL    HW160042  10.786   0.077   2.991
19401SOL    HW260043  10.851   0.145   3.110
19402SOL     OW60044   9.777   2.786   0.228
19402SOL    HW160045   9.864   2.793   0.267
19402SOL    HW260046   9.739   2.873   0.239
19403SOL     OW60047   0.915  11.583   5.736
19403SOL    HW160048   0.883  11.673   5.726
19403SOL    HW260049   0.901  11.563   5.828
19404SOL     OW60050   8.314  11.595  10.520
19404SOL    HW160051   8.292  11.512  10.477
19404SOL    HW260052   8.235  11.618  10.569
19405SOL     OW60053   9.789  13.104   5.670
19405SOL    HW160054   9.733  13.037   5.710
19405SOL    HW260055   9.872  13.098   5.719
19406SOL     OW60056   9.373   1.947   4.498
19406SOL    HW160057   9.442   1.955   4.565
19406SOL    HW260058   9.392   1.864   4.454
19407SOL     OW60059   4.379   2.315   2.231
19407SOL    HW160060   4.412   2.258   2.161
19407SOL    HW260061   4.425   2.286   2.310
19408SOL     OW60062   8.269   6.023   6.282
19408SOL    HW160063   8.308   6.103   6.247
19408SOL    HW260064   8.176   6.028   6.259
19409SOL     OW60065  13.792   0.017  11.829
19409SOL    HW160066  13.845   0.092  11.802
19409SOL    HW260067  13.785  14.843  11.749
19410SOL     OW60068  12.700  12.104   7.251
19410SOL    HW160069  12.781  12.143   7.282
19410SOL    HW260070  12.633  12.139   7.310
19411SOL     OW60071   0.194   7.945  13.765
19411SOL    HW160072   0.185   7.982  13.677
19411SOL    HW260073   0.182   8.020  13.824
19412SOL     OW60074   2.252  13.592   2.995
19412SOL    HW160075   2.255  13.502   2.962
19412SOL    HW260076   2.306  13.591   3.075
19413SOL     OW60077   7.225   2.692   7.486
19413SOL    HW160078   7.226   2.671   7.580
19413SOL    HW260079   7.308   2.659   7.453
19414SOL     OW60080   3.843   8.643  13.418
19414SOL    HW160081   3.761   8.648  13.468
19414SOL    HW260082   3.839   8.718  13.358
19415SOL     OW60083   9.494   0.754  11.875
19415SOL    HW160084   9.579   0.738  11.917
19415SOL    HW260085   9.503   0.716  11.788
19416SOL     OW60086  10.076   4.666   8.327
19416SOL    HW160087  10.000   4.713   8.292
19416SOL    HW260088  10.079   4.585   8.277
19417SOL     OW60089   8.778   2.160   2.870
19417SOL    HW160090   8.771   2.173   2.965
19417SOL    HW260091   8.690   2.138   2.842
19418SOL     OW60092   1.079   4.734   0.279
19418SOL    HW160093   1.171   4.707   0.285
19418SOL    HW260094   1.081   4.821   0.239
19419SOL     OW60095  12.771   3.327  13.646
19419SOL    HW160096  12.849   3.382  13.645
19419SOL    HW260097  12.703   3.381  13.687
19420SOL     OW60098   4.975   8.469   9.384
19420SOL    HW160099   4.972   8.375   9.369
19420SOL    HW260100   4.885   8.493   9.407
19421SOL     OW60101   1.216   8.295   1.759
19421SOL    HW160102   1.303   8.326   1.733
19421SOL    HW260103   1.160   8.372   1.749
19422SOL     OW60104  13.436   0.862   4.731
19422SOL    HW160105  13.400   0.807   4.800
19422SOL    HW260106  13.528   0.873   4.754
19423SOL     OW60107   4.236   3.495   0.429
19423SOL    HW160108   4.168   3.480   0.494
19423SOL    HW260109   4.200   3.561   0.371
19424SOL     OW60110   6.825   9.301   8.093
19424SOL    HW160111   6.920   9.313   8.093
19424SOL    HW260112   6.812   9.207   8.080
19425SOL     OW60113   4.871  11.618  12.802
19425SOL    HW160114   4.814  11.654  12.869
19425SOL    HW260115   4.940  11.572  12.851
19426SOL     OW60116  11.266   0.875   7.322
19426SOL    HW160117  11.264   0.891   7.416
19426SOL    HW260118  11.346   0.825   7.308
19427SOL     OW60119  14.099  11.199   1.326
19427SOL    HW160120  14.090  11.235   1.238
19427SOL    HW260121  14.184  11.231   1.357
19428SOL     OW60122  11.328   4.948   3.194
19428SOL    HW160123  11.280   4.926   3.274
19428SOL    HW260124  11.393   5.012   3.223
19429SOL     OW60125   0.682   9.875  14.143
19429SOL    HW160126   0.722   9.789  14.139
19429SOL    HW260127   0.706   9.917  14.061
19430SOL     OW60128  14.435  12.269   9.160
19430SOL    HW160129  14.379  12.198   9.189
19430SOL    HW260130  14.431  12.334   9.231
19431SOL     OW60131   0.295  12.604  14.224
19431SOL    HW160132   0.307  12.662  14.149
19431SOL    HW260133   0.334  12.521  14.197
19432SOL     OW60134   4.224   0.051   6.657
19432SOL    HW160135   4.268   0.135   6.643
19432SOL    HW260136   4.275  14.868   6.606
19433SOL     OW60137   1.074  11.696   7.922
19433SOL    HW160138   1.115  11.736   7.999
19433SOL    HW260139   1.139  11.633   7.890
19434SOL     OW60140   7.465   0.615  12.605
19434SOL    HW160141   7.467   0.531  12.650
19434SOL    HW260142   7.485   0.679  12.674
19435SOL     OW60143   0.637  14.700   5.079
19435SOL    HW160144   0.713  14.664   5.033
19435SOL    HW260145   0.561  14.665   5.033
19436SOL     OW60146   4.959   8.175   9.686
19436SOL    HW160147   4.868   8.203   9.693
19436SOL    HW260148   4.988   8.206   9.600
19437SOL     OW60149  12.834  13.973   9.396
19437SOL    HW160150  12.842  13.880   9.415
19437SOL    HW260151  12.820  14.014   9.481
19438SOL     OW60152   3.866  14.557  13.324
19438SOL    HW160153   3.866  14.650  13.300
19438SOL    HW260154   3.805  14.517  13.262
19439SOL     OW60155   1.882   4.856   2.340
19439SOL    HW160156   1.872   4.951   2.336
19439SOL    HW260157   1.904   4.838   2.431
19440SOL     OW60158  10.590  13.360   0.635
19440SOL    HW160159  10.599  13.334   0.726
19440SOL    HW260160  10.508  13.320   0.606
19441SOL     OW60161   2.770  11.402   5.395
19441SOL    HW160162   2.829  11.451   5.452
19441SOL    HW260163   2.693  11.386   5.450
19442SOL     OW60164   5.146   0.252  14.407
19442SOL    HW160165   5.139   0.332  14.459
19442SOL    HW260166   5.060   0.242  14.366
19443SOL     OW60167  14.753  11.115  10.573
19443SOL    HW160168  14.839  11.074  10.559
19443SOL    HW260169  14.721  11.075  10.653
19444SOL     OW60170   9.938   3.535  14.315
19444SOL    HW160171  10.031   3.554  14.324
19444SOL    HW260172   9.901   3.553  14.401
19445SOL     OW60173  11.277   6.554   9.197
19445SOL    HW160174  11.292   6.481   9.137
19445SOL    HW260175  11.213   6.610   9.152
19446SOL     OW60176   0.605   2.333  12.656
19446SOL    HW160177   0.516   2.299  12.645
19446SOL    HW260178   0.648   2.270  12.714
19447SOL     OW60179   2.520   4.921   0.821
19447SOL    HW160180   2.596   4.894   0.874
19447SOL    HW260181   2.448   4.924   0.884
19448SOL     OW60182   1.789   2.885  10.213
19448SOL    HW160183   1.850   2.824  10.253
19448SOL    HW260184   1.705   2.838  10.210
19449SOL     OW60185   8.753   8.414   5.499
19449SOL    HW160186   8.808   8.336   5.499
19449SOL    HW260187   8.663   8.380   5.509
19450SOL     OW60188   4.952  13.305   6.475
19450SOL    HW160189   4.929  13.384   6.427
19450SOL    HW260190   5.035  13.277   6.436
19451SOL     OW60191   8.598   1.464  11.603
19451SOL    HW160192   8.600   1.466  11.699
19451SOL    HW260193   8.672   1.519  11.576
19452SOL     OW60194  14.245  14.106  12.735
19452SOL    HW160195  14.316  14.154  12.692
19452SOL    HW260196  14.170  14.117  12.677
19453SOL     OW60197  13.725   7.846   9.016
19453SOL    HW160198  13.651   7.892   9.056
19453SOL    HW260199  13.725   7.874   8.925
19454SOL     OW60200   0.150   4.247   7.103
19454SOL    HW160201   0.142   4.225   7.010
19454SOL    HW260202   0.211   4.183   7.138
19455SOL     OW60203   7.677   0.858  11.574
19455SOL    HW160204   7.676   0.795  11.647
19455SOL    HW260205   7.628   0.933  11.607
19456SOL     OW60206   4.484   1.131  14.621
19456SOL    HW160207   4.564   1.122  14.569
19456SOL    HW260208   4.501   1.079  14.700
19457SOL     OW60209   6.269   8.853   8.683
19457SOL    HW160210   6.240   8.821   8.768
19457SOL    HW260211   6.352   8.897   8.701
19458SOL     OW60212   8.087   8.021   8.322
19458SOL    HW160213   8.073   8.114   8.304
19458SOL    HW260214   8.050   8.009   8.410
19459SOL     OW60215  12.843  14.208   3.863
19459SOL    HW160216  12.776  14.266   3.900
19459SOL    HW260217  12.822  14.203   3.770
19460SOL     OW60218  10.675  11.037  12.485
19460SOL    HW160219  10.586  11.003  12.486
19460SOL    HW260220  10.729  10.965  12.517
19461SOL     OW60221  12.048   0.837   8.403
19461SOL    HW160222  12.084   0.880   8.326
19461SOL    HW260223  12.094   0.753   8.408
19462SOL     OW60224  10.085  12.185   3.939
19462SOL    HW160225  10.065  12.092   3.953
19462SOL    HW260226  10.169  12.185   3.894
19463SOL     OW60227  12.688   7.045  13.077
19463SOL    HW160228  12.614   6.985  13.071
19463SOL    HW260229  12.696   7.082  12.989
19464SOL     OW60230   5.031  11.312   4.693
19464SOL    HW160231   5.044  11.396   4.737
19464SOL    HW260232   4.981  11.333   4.614
19465SOL     OW60233   3.753   2.497  11.116
19465SOL    HW160234   3.829   2.450  11.149
19465SOL    HW260235   3.694   2.502  11.191
19466SOL     OW60236   3.660   8.023   8.631
19466SOL    HW160237   3.632   8.113   8.616
19466SOL    HW260238   3.592   7.985   8.686
19467SOL     OW60239   1.293  12.853  12.538
19467SOL    HW160240   1.207  12.862  12.578
19467SOL    HW260241   1.319  12.943  12.516
19468SOL     OW60242  12.840   8.150  14.592
19468SOL    HW160243  12.866   8.066  14.554
19468SOL    HW260244  12.898   8.161  14.668
19469SOL     OW60245   8.383  10.471   4.115
19469SOL    HW160246   8.408  10.415   4.041
19469SOL    HW260247   8.356  10.554   4.074
19470SOL     OW60248   4.464   7.762  13.487
19470SOL    HW160249   4.452   7.684  13.541
19470SOL    HW260250   4.395   7.822  13.515
19471SOL     OW60251   0.150   0.768   7.893
19471SOL    HW160252   0.103   0.845   7.923
19471SOL    HW260253   0.133   0.764   7.799
19472SOL     OW60254   5.394   1.652   6.601
19472SOL    HW160255   5.371   1.687   6.515
19472SOL    HW260256   5.320   1.675   6.657
19473SOL     OW60257   9.004   8.128   1.265
19473SOL    HW160258   8.955   8.141   1.184
19473SOL    HW260259   8.939   8.141   1.335
19474SOL     OW60260   7.330  11.347   9.997
19474SOL    HW160261   7.268  11.410   9.962
19474SOL    HW260262   7.383  11.321   9.922
19475SOL     OW60263   2.557   0.349   9.632
19475SOL    HW160264   2.514   0.320   9.552
19475SOL    HW260265   2.523   0.437   9.648
19476SOL     OW60266   5.768   7.238  10.442
19476SOL    HW160267   5.724   7.319  10.418
19476SOL    HW260268   5.702   7.188  10.489
19477SOL     OW60269   9.949  14.582   8.216
19477SOL    HW160270   9.953  14.527   8.138
19477SOL    HW260271   9.943  14.672   8.182
19478SOL     OW60272   0.561   3.354   4.326
19478SOL    HW160273   0.627   3.323   4.264
19478SOL    HW260274   0.493   3.286   4.325
19479SOL     OW60275   6.515  10.184   2.239
19479SOL    HW160276   6.508  10.144   2.325
19479SOL    HW260277   6.546  10.273   2.256
19480SOL     OW60278   3.152  11.265   1.063
19480SOL    HW160279   3.107  11.216   1.132
19480SOL    HW260280   3.192  11.197   1.008
19481SOL     OW60281   8.035   7.896  14.177
19481SOL    HW160282   8.110   7.936  14.133
19481SOL    HW260283   7.959   7.946  14.146
19482SOL     OW60284   3.578  13.909   5.278
19482SOL    HW160285   3.670  13.936   5.269
19482SOL    HW260286   3.569  13.884   5.370
19483SOL     OW60287   4.896   0.725   6.139
19483SOL    HW160288   4.844   0.714   6.219
19483SOL    HW260289   4.842   0.685   6.070
19484SOL     OW60290  13.406  14.554   4.575
19484SOL    HW160291  13.487  14.566   4.626
19484SOL    HW260292  13.391  14.639   4.533
19485SOL     OW60293  13.114  11.413   5.787
19485SOL    HW160294  13.197  11.445   5.752
19485SOL    HW260295  13.103  11.325   5.751
19486SOL     OW60296   3.577   7.694   2.247
19486SOL    HW160297   3.490   7.728   2.228
19486SOL    HW260298   3.618   7.684   2.161
19487SOL     OW60299   9.482  14.309   5.965
19487SOL    HW160300   9.388  14.309   5.983
19487SOL    HW260301   9.489  14.283   5.873
19488SOL     OW60302  13.409   7.711   4.553
19488SOL    HW160303  13.396   7.646   4.483
19488SOL    HW260304  13.370   7.791   4.519
19489SOL     OW60305   3.321  13.148   0.274
19489SOL    HW160306   3.293  13.238   0.289
19489SOL    HW260307   3.414  13.155   0.250
19490SOL     OW60308   2.251   5.374   3.648
19490SOL    HW160309   2.183   5.412   3.702
19490SOL    HW260310   2.205   5.337   3.573
19491SOL     OW60311   5.480   1.737   9.697
19491SOL    HW160312   5.479   1.820   9.743
19491SOL    HW260313   5.504   1.672   9.763
19492SOL     OW60314   4.818  11.032  13.924
19492SOL    HW160315   4.772  11.070  13.998
19492SOL    HW260316   4.754  11.035  13.852
19493SOL     OW60317   8.649  11.995  12.275
19493SOL    HW160318   8.632  12.027  12.364
19493SOL    HW260319   8.732  12.033  12.251
19494SOL     OW60320   0.395   6.310   4.654
19494SOL    HW160321   0.445   6.376   4.702
19494SOL    HW260322   0.304   6.336   4.666
19495SOL     OW60323  14.475   3.707  11.799
19495SOL    HW160324  14.483   3.667  11.713
19495SOL    HW260325  14.389   3.680  11.831
19496SOL     OW60326   3.492   7.626  11.987
19496SOL    HW160327   3.569   7.617  12.042
19496SOL    HW260328   3.433   7.556  12.015
19497SOL     OW60329   0.201   4.617   2.503
19497SOL    HW160330   0.122   4.602   2.452
19497SOL    HW260331   0.233   4.702   2.474
19498SOL     OW60332  13.620   2.173   7.566
19498SOL    HW160333  13.671   2.117   7.507
19498SOL    HW260334  13.601   2.251   7.513
19499SOL     OW60335  12.968  10.805  12.638
19499SOL    HW160336  12.947  10.722  12.596
19499SOL    HW260337  12.905  10.812  12.710
19500SOL     OW60338   1.268  10.616  13.901
19500SOL    HW160339   1.309  10.633  13.815
19500SOL    HW260340   1.333  10.566  13.949
19501SOL     OW60341  12.465   3.441  11.404
19501SOL    HW160342  12.544   3.391  11.384
19501SOL    HW260343  12.460   3.439  11.500
19502SOL     OW60344   9.765   9.597  10.123
19502SOL    HW160345   9.808   9.515  10.144
19502SOL    HW260346   9.834   9.653  10.089
19503SOL     OW60347  10.855   1.092  12.046
19503SOL    HW160348  10.853   1.187  12.056
19503SOL    HW260349  10.790   1.060  12.108
19504SOL     OW60350  13.462   0.015   5.606
19504SOL    HW160351  13.494   0.003   5.516
19504SOL    HW260352  13.404   0.091   5.601
19505SOL     OW60353   5.998   2.278  10.078
19505SOL    HW160354   6.032   2.215  10.142
19505SOL    HW260355   5.955   2.345  10.130
19506SOL     OW60356   0.581   2.919   5.054
19506SOL    HW160357   0.599   2.960   5.139
19506SOL    HW260358   0.653   2.946   4.998
19507SOL     OW60359  11.864   5.845   0.647
19507SOL    HW160360  11.778   5.882   0.666
19507SOL    HW260361  11.923   5.888   0.709
19508SOL     OW60362   5.103   7.517   7.559
19508SOL    HW160363   5.054   7.452   7.610
19508SOL    HW260364   5.194   7.507   7.589
19509SOL     OW60365   7.904   9.368   4.170
19509SOL    HW160366   7.837   9.415   4.219
19509SOL    HW260367   7.945   9.310   4.235
19510SOL     OW60368  10.379   8.903  14.146
19510SOL    HW160369  10.307   8.894  14.209
19510SOL    HW260370  10.337   8.935  14.066
19511SOL     OW60371   4.884   8.278   5.213
19511SOL    HW160372   4.941   8.258   5.288
19511SOL    HW260373   4.795   8.272   5.248
19512SOL     OW60374   0.494   1.549  13.563
19512SOL    HW160375   0.420   1.561  13.504
19512SOL    HW260376   0.571   1.569  13.510
19513SOL     OW60377  12.798   0.886   2.012
19513SOL    HW160378  12.846   0.961   1.977
19513SOL    HW260379  12.814   0.890   2.106
19514SOL     OW60380   0.081   8.750   2.575
19514SOL    HW160381   0.077   8.700   2.656
19514SOL    HW260382  14.873   8.739   2.536
19515SOL     OW60383  13.273  10.856   7.759
19515SOL    HW160384  13.329  10.921   7.717
19515SOL    HW260385  13.326  10.820   7.829
19516SOL     OW60386  11.531   9.099  12.776
19516SOL    HW160387  11.622   9.070  12.768
19516SOL    HW260388  11.488   9.030  12.826
19517SOL     OW60389   6.196   9.450   0.998
19517SOL    HW160390   6.276   9.502   0.998
19517SOL    HW260391   6.225   9.362   0.973
19518SOL     OW60392   3.832   5.711   5.756
19518SOL    HW160393   3.830   5.704   5.852
19518SOL    HW260394   3.887   5.788   5.739
19519SOL     OW60395   3.695   3.741   4.338
19519SOL    HW160396   3.693   3.836   4.324
19519SOL    HW260397   3.640   3.727   4.415
19520SOL     OW60398   5.871  13.633   7.310
19520SOL    HW160399   5.863  13.574   7.384
19520SOL    HW260400   5.904  13.579   7.238
19521SOL     OW60401  10.715  12.234   5.780
19521SOL    HW160402  10.710  12.190   5.696
19521SOL    HW260403  10.623  12.247   5.806
19522SOL     OW60404  13.516   0.540   0.139
19522SOL    HW160405  13.495   0.601   0.209
19522SOL    HW260406  13.439   0.539   0.083
19523SOL     OW60407  10.573   4.111   8.312
19523SOL    HW160408  10.521   4.179   8.271
19523SOL    HW260409  10.551   4.116   8.405
19524SOL     OW60410   7.226   0.214   3.330
19524SOL    HW160411   7.174   0.142   3.294
19524SOL    HW260412   7.218   0.284   3.266
19525SOL     OW60413   9.423   4.843   1.518
19525SOL    HW160414   9.455   4.897   1.590
19525SOL    HW260415   9.467   4.759   1.529
19526SOL     OW60416  10.179   9.498  11.208
19526SOL    HW160417  10.264   9.468  11.175
19526SOL    HW260418  10.179   9.473  11.300
19527SOL     OW60419   2.034  12.971   0.886
19527SOL    HW160420   2.116  12.967   0.837
19527SOL    HW260421   1.967  12.949   0.821
19528SOL     OW60422   7.958   7.977   7.000
19528SOL    HW160423   8.046   7.971   7.037
19528SOL    HW260424   7.901   7.991   7.075
19529SOL     OW60425   2.437   5.879   4.528
19529SOL    HW160426   2.491   5.911   4.600
19529SOL    HW260427   2.393   5.958   4.494
19530SOL     OW60428  14.347  11.407   7.748
19530SOL    HW160429  14.301  11.324   7.762
19530SOL    HW260430  14.335  11.455   7.830
19531SOL     OW60431   7.128   3.289   6.537
19531SOL    HW160432   7.109   3.378   6.507
19531SOL    HW260433   7.046   3.242   6.524
19532SOL     OW60434   3.461  12.964   0.810
19532SOL    HW160435   3.368  12.949   0.827
19532SOL    HW260436   3.495  12.999   0.893
19533SOL     OW60437   8.075   2.939  14.042
19533SOL    HW160438   8.048   2.910  14.129
19533SOL    HW260439   7.997   2.928  13.988
19534SOL     OW60440   8.785  12.256   0.271
19534SOL    HW160441   8.765  12.191   0.339
19534SOL    HW260442   8.713  12.248   0.208
19535SOL     OW60443  10.376   0.165   4.457
19535SOL    HW160444  10.371   0.257   4.485
19535SOL    HW260445  10.289   0.147   4.422
19536SOL     OW60446  11.996   7.638  14.654
19536SOL    HW160447  11.979   7.704  14.721
19536SOL    HW260448  12.090   7.620  14.660
19537SOL     OW60449   5.407  13.733   2.221
19537SOL    HW160450   5.401  13.815   2.171
19537SOL    HW260451   5.350  13.672   2.174
19538SOL     OW60452   4.035   5.960  13.173
19538SOL    HW160453   4.004   5.873  13.149
19538SOL    HW260454   3.971   5.991  13.238
19539SOL     OW60455   2.425   4.176   6.409
19539SOL    HW160456   2.367   4.102   6.429
19539SOL    HW260457   2.446   4.213   6.495
19540SOL     OW60458   2.107   0.545   1.909
19540SOL    HW160459   2.117   0.637   1.884
19540SOL    HW260460   2.076   0.548   1.999
19541SOL     OW60461  14.500   8.004   9.102
19541SOL    HW160462  14.498   7.962   9.016
19541SOL    HW260463  14.581   8.054   9.103
19542SOL     OW60464   4.675   5.864   0.463
19542SOL    HW160465   4.764   5.889   0.490
19542SOL    HW260466   4.685   5.776   0.426
19543SOL     OW60467   6.424  14.811   9.439
19543SOL    HW160468   6.336  14.813   9.402
19543SOL    HW260469   6.462   0.016   9.415
19544SOL     OW60470   3.179   6.371   6.396
19544SOL    HW160471   3.115   6.424   6.349
19544SOL    HW260472   3.159   6.383   6.488
19545SOL     OW60473   1.543   9.646   5.277
19545SOL    HW160474   1.453   9.613   5.268
19545SOL    HW260475   1.597   9.567   5.280
19546SOL     OW60476  14.808   9.125   5.539
19546SOL    HW160477  14.825   9.129   5.445
19546SOL    HW260478  14.865   9.055   5.571
19547SOL     OW60479  13.710   8.608  14.810
19547SOL    HW160480  13.671   8.579  14.727
19547SOL    HW260481  13.790   8.654  14.783
19548SOL     OW60482   2.465   0.208  12.519
19548SOL    HW160483   2.529   0.178  12.454
19548SOL    HW260484   2.397   0.140  12.518
19549SOL     OW60485   1.548  14.705   3.155
19549SOL    HW160486   1.497  14.668   3.227
19549SOL    HW260487   1.629  14.653   3.155
19550SOL     OW60488  10.368   0.382  12.899
19550SOL    HW160489  10.454   0.354  12.929
19550SOL    HW260490  10.360   0.473  12.929
19551SOL     OW60491   5.200   1.404   0.740
19551SOL    HW160492   5.251   1.323   0.735
19551SOL    HW260493   5.266   1.473   0.732
19552SOL     OW60494   1.703   0.454   5.513
19552SOL    HW160495   1.708   0.534   5.565
19552SOL    HW260496   1.629   0.405   5.551
19553SOL     OW60497   1.335  13.349   1.591
19553SOL    HW160498   1.341  13.342   1.686
19553SOL    HW260499   1.243  13.329   1.571
19554SOL     OW60500   5.559  11.570  13.364
19554SOL    HW160501   5.482  11.600  13.314
19554SOL    HW260502   5.626  11.636  13.347
19555SOL     OW60503  12.377  14.496   3.935
19555SOL    HW160504  12.305  14.497   3.998
19555SOL    HW260505  12.442  14.554   3.973
19556SOL     OW60506  12.578  11.160   8.442
19556SOL    HW160507  12.591  11.200   8.356
19556SOL    HW260508  12.515  11.218   8.486
19557SOL     OW60509  12.269   5.846  10.569
19557SOL    HW160510  12.340   5.886  10.519
19557SOL    HW260511  12.242   5.771  10.516
19558SOL     OW60512  10.261  10.861   9.138
19558SOL    HW160513  10.342  10.912   9.142
19558SOL    HW260514  10.267  10.813   9.056
19559SOL     OW60515  13.823   3.058  13.591
19559SOL    HW160516  13.772   3.136  13.571
19559SOL    HW260517  13.759   2.988  13.596
19560SOL     OW60518  13.636   6.220   9.677
19560SOL    HW160519  13.670   6.287   9.618
19560SOL    HW260520  13.612   6.147   9.620
19561SOL     OW60521   3.250   7.969   1.374
19561SOL    HW160522   3.199   7.981   1.294
19561SOL    HW260523   3.337   8.001   1.351
19562SOL     OW60524   2.148   4.037  12.025
19562SOL    HW160525   2.108   4.123  12.041
19562SOL    HW260526   2.241   4.050  12.042
19563SOL     OW60527   8.351   1.825  11.870
19563SOL    HW160528   8.259   1.845  11.885
19563SOL    HW260529   8.398   1.906  11.893
19564SOL     OW60530   6.240   6.565   7.694
19564SOL    HW160531   6.291   6.597   7.619
19564SOL    HW260532   6.206   6.644   7.736
19565SOL     OW60533  12.534   1.077   4.086
19565SOL    HW160534  12.575   1.124   4.159
19565SOL    HW260535  12.544   1.137   4.012
19566SOL     OW60536  13.912  12.740   5.751
19566SOL    HW160537  13.886  12.823   5.792
19566SOL    HW260538  13.829  12.702   5.721
19567SOL     OW60539   7.350   7.518   0.719
19567SOL    HW160540   7.256   7.534   0.729
19567SOL    HW260541   7.382   7.594   0.670
19568SOL     OW60542   9.212  12.776   9.915
19568SOL    HW160543   9.299  12.791   9.950
19568SOL    HW260544   9.170  12.863   9.917
19569SOL     OW60545  14.300  11.318   5.355
19569SOL    HW160546  14.389  11.313   5.321
19569SOL    HW260547  14.278  11.229   5.379
19570SOL     OW60548   7.490   0.292  13.802
19570SOL    HW160549   7.514   0.384  13.802
19570SOL    HW260550   7.396   0.292  13.784
19571SOL     OW60551   1.572  10.982   5.486
19571SOL    HW160552   1.511  11.054   5.469
19571SOL    HW260553   1.517  10.904   5.490
19572SOL     OW60554   5.915   9.166  12.232
19572SOL    HW160555   5.950   9.099  12.174
19572SOL    HW260556   5.904   9.243  12.176
19573SOL     OW60557   9.152   6.064  11.178
19573SOL    HW160558   9.244   6.037  11.182
19573SOL    HW260559   9.106   6.000  11.232
19574SOL     OW60560  10.291   9.624   7.671
19574SOL    HW160561  10.344   9.685   7.723
19574SOL    HW260562  10.301   9.654   7.581
19575SOL     OW60563   1.751  13.570   1.017
19575SOL    HW160564   1.759  13.478   0.991
19575SOL    HW260565   1.708  13.567   1.103
19576SOL     OW60566   1.279   1.811  10.959
19576SOL    HW160567   1.226   1.823  11.037
19576SOL    HW260568   1.238   1.738  10.913
19577SOL     OW60569   3.666   5.295   3.177
19577SOL    HW160570   3.689   5.358   3.245
19577SOL    HW260571   3.586   5.330   3.138
19578SOL     OW60572   5.679  10.266   3.914
19578SOL    HW160573   5.720  10.270   4.001
19578SOL    HW260574   5.722  10.192   3.871
19579SOL     OW60575  10.957  13.569  14.083
19579SOL    HW160576  10.943  13.552  13.990
19579SOL    HW260577  10.888  13.520  14.127
19580SOL     OW60578   3.096  13.805   5.523
19580SOL    HW160579   3.160  13.813   5.594
19580SOL    HW260580   3.142  13.758   5.454
19581SOL     OW60581   2.904   0.375  14.171
19581SOL    HW160582   2.880   0.302  14.113
19581SOL    HW260583   2.927   0.446  14.112
19582SOL     OW60584   7.876   4.986   8.406
19582SOL    HW160585   7.871   5.060   8.468
19582SOL    HW260586   7.950   5.007   8.350
19583SOL     OW60587   4.974   4.669   6.343
19583SOL    HW160588   5.042   4.713   6.293
19583SOL    HW260589   4.957   4.727   6.417
19584SOL     OW60590   4.763   5.156  11.286
19584SOL    HW160591   4.691   5.094  11.293
19584SOL    HW260592   4.819   5.137  11.361
19585SOL     OW60593   2.516   2.147   9.604
19585SOL    HW160594   2.586   2.210   9.619
19585SOL    HW260595   2.555   2.082   9.544
19586SOL     OW60596  10.338   0.066   9.122
19586SOL    HW160597  10.338   0.064   9.026
19586SOL    HW260598  10.347   0.159   9.143
19587SOL     OW60599   9.376   0.428   9.255
19587SOL    HW160600   9.342   0.379   9.331
19587SOL    HW260601   9.402   0.513   9.291
19588SOL     OW60602  10.580   7.671   1.609
19588SOL    HW160603  10.605   7.581   1.586
19588SOL    HW260604  10.524   7.699   1.536
19589SOL     OW60605   1.123  12.867  13.611
19589SOL    HW160606   1.175  12.813  13.551
19589SOL    HW260607   1.150  12.837  13.698
19590SOL     OW60608   8.196   0.006  13.425
19590SOL    HW160609   8.109   0.036  13.450
19590SOL    HW260610   8.220   0.059  13.350
19591SOL     OW60611   8.984  12.298  14.801
19591SOL    HW160612   9.001  12.297   0.015
19591SOL    HW260613   8.937  12.216  14.784
19592SOL     OW60614   0.530   6.669  12.904
19592SOL    HW160615   0.543   6.737  12.838
19592SOL    HW260616   0.507   6.717  12.983
19593SOL     OW60617  12.129   3.448   8.435
19593SOL    HW160618  12.069   3.377   8.454
19593SOL    HW260619  12.200   3.437   8.499
19594SOL     OW60620  10.179   4.367   7.331
19594SOL    HW160621  10.262   4.349   7.375
19594SOL    HW260622  10.203   4.383   7.240
19595SOL     OW60623  11.752   0.865  10.363
19595SOL    HW160624  11.703   0.857  10.445
19595SOL    HW260625  11.738   0.782  10.319
19596SOL     OW60626  14.685  13.087   2.119
19596SOL    HW160627  14.648  13.175   2.129
19596SOL    HW260628  14.649  13.038   2.193
19597SOL     OW60629  11.785   9.392   3.231
19597SOL    HW160630  11.853   9.442   3.186
19597SOL    HW260631  11.813   9.393   3.323
19598SOL     OW60632   7.790   5.595  12.711
19598SOL    HW160633   7.862   5.607  12.649
19598SOL    HW260634   7.780   5.680  12.752
19599SOL     OW60635  12.532   4.134   3.984
19599SOL    HW160636  12.566   4.051   4.016
19599SOL    HW260637  12.608   4.180   3.949
19600SOL     OW60638  12.959  12.444  12.230
19600SOL    HW160639  12.879  12.441  12.282
19600SOL    HW260640  12.963  12.360  12.186
19601SOL     OW60641  10.519   3.562   6.922
19601SOL    HW160642  10.597   3.531   6.877
19601SOL    HW260643  10.543   3.648   6.956
19602SOL     OW60644   4.827   7.625  13.459
19602SOL    HW160645   4.770   7.622  13.535
19602SOL    HW260646   4.768   7.617  13.384
19603SOL     OW60647   8.173   3.413   1.744
19603SOL    HW160648   8.159   3.333   1.693
19603SOL    HW260649   8.087   3.437   1.777
19604SOL     OW60650   0.857  11.917  14.301
19604SOL    HW160651   0.949  11.914  14.329
19604SOL    HW260652   0.825  12.002  14.331
19605SOL     OW60653   6.622   0.000  11.029
19605SOL    HW160654   6.690  14.878  11.096
19605SOL    HW260655   6.550   0.050  11.069
19606SOL     OW60656   2.631   5.217   0.637
19606SOL    HW160657   2.561   5.280   0.617
19606SOL    HW260658   2.593   5.132   0.614
19607SOL     OW60659   9.788   0.482   2.275
19607SOL    HW160660   9.878   0.483   2.307
19607SOL    HW260661   9.736   0.458   2.352
19608SOL     OW60662  13.464   7.225   8.969
19608SOL    HW160663  13.463   7.176   9.052
19608SOL    HW260664  13.521   7.300   8.986
19609SOL     OW60665  12.965  14.439   6.259
19609SOL    HW160666  12.918  14.416   6.178
19609SOL    HW260667  13.003  14.357   6.289
19610SOL     OW60668   7.698   6.291   3.804
19610SOL    HW160669   7.632   6.300   3.735
19610SOL    HW260670   7.761   6.229   3.769
19611SOL     OW60671  14.657  12.712   5.108
19611SOL    HW160672  14.719  12.778   5.077
19611SOL    HW260673  14.697  12.628   5.085
19612SOL     OW60674   5.383   0.603   6.169
19612SOL    HW160675   5.300   0.634   6.204
19612SOL    HW260676   5.441   0.599   6.245
19613SOL     OW60677   6.195  11.678  11.490
19613SOL    HW160678   6.247  11.740  11.439
19613SOL    HW260679   6.136  11.733  11.541
19614SOL     OW60680   9.104  11.252   5.984
19614SOL    HW160681   9.025  11.274   5.935
19614SOL    HW260682   9.129  11.334   6.027
19615SOL     OW60683  12.515   8.517   9.826
19615SOL    HW160684  12.584   8.577   9.796
19615SOL    HW260685  12.435   8.569   9.824
19616SOL     OW60686   5.707   2.348   2.325
19616SOL    HW160687   5.696   2.425   2.381
19616SOL    HW260688   5.669   2.276   2.376
19617SOL     OW60689   6.497   8.830  12.743
19617SOL    HW160690   6.563   8.788  12.798
19617SOL    HW260691   6.427   8.855  12.803
19618SOL     OW60692   1.807  10.974  14.495
19618SOL    HW160693   1.895  10.956  14.528
19618SOL    HW260694   1.796  11.068  14.505
19619SOL     OW60695   2.383   0.137   0.200
19619SOL    HW160696   2.420   0.179   0.277
19619SOL    HW260697   2.455   0.135   0.136
19620SOL     OW60698  13.482   7.244  10.301
19620SOL    HW160699  13.534   7.264  10.378
19620SOL    HW260700  13.546   7.214  10.236
19621SOL     OW60701   7.643   3.512   6.386
19621SOL    HW160702   7.601   3.487   6.468
19621SOL    HW260703   7.700   3.585   6.410
19622SOL     OW60704   0.151   0.800   2.911
19622SOL    HW160705   0.071   0.849   2.892
19622SOL    HW260706   0.221   0.865   2.903
19623SOL     OW60707   2.958  14.574   8.244
19623SOL    HW160708   2.912  14.531   8.316
19623SOL    HW260709   2.957  14.667   8.267
19624SOL     OW60710  12.663   2.046   5.531
19624SOL    HW160711  12.585   2.000   5.563
19624SOL    HW260712  12.654   2.046   5.436
19625SOL     OW60713   6.672  14.727  12.584
19625SOL    HW160714   6.660  14.720  12.489
19625SOL    HW260715   6.586  14.753  12.617
19626SOL     OW60716   0.663   3.620   6.706
19626SOL    HW160717   0.695   3.530   6.718
19626SOL    HW260718   0.724   3.674   6.756
19627SOL     OW60719   4.361   7.141   2.164
19627SOL    HW160720   4.390   7.211   2.223
19627SOL    HW260721   4.441   7.114   2.118
19628SOL     OW60722  14.755   0.411  11.276
19628SOL    HW160723  14.673   0.452  11.246
19628SOL    HW260724  14.824   0.458  11.229
19629SOL     OW60725   5.703  10.288  10.046
19629SOL    HW160726   5.783  10.287   9.993
19629SOL    HW260727   5.724  10.343  10.121
19630SOL     OW60728   7.101   0.433  11.496
19630SOL    HW160729   7.135   0.379  11.424
19630SOL    HW260730   7.179   0.467  11.539
19631SOL     OW60731  10.561   5.865  12.887
19631SOL    HW160732  10.502   5.803  12.844
19631SOL    HW260733  10.628   5.810  12.928
19632SOL     OW60734   0.483   4.431  12.501
19632SOL    HW160735   0.496   4.524  12.486
19632SOL    HW260736   0.560   4.403  12.552
19633SOL     OW60737   0.854  14.264   2.619
19633SOL    HW160738   0.814  14.338   2.572
19633SOL    HW260739   0.947  14.272   2.600
19634SOL     OW60740   8.384   5.972   5.431
19634SOL    HW160741   8.452   6.018   5.382
19634SOL    HW260742   8.431   5.927   5.501
19635SOL     OW60743   7.536   8.395  14.672
19635SOL    HW160744   7.446   8.407  14.703
19635SOL    HW260745   7.580   8.477  14.696
19636SOL     OW60746   2.710  14.333   8.222
19636SOL    HW160747   2.644  14.329   8.152
19636SOL    HW260748   2.734  14.426   8.226
19637SOL     OW60749   7.024   0.773   2.207
19637SOL    HW160750   7.029   0.838   2.277
19637SOL    HW260751   7.104   0.722   2.217
19638SOL     OW60752   8.580   2.585  12.817
19638SOL    HW160753   8.583   2.612  12.726
19638SOL    HW260754   8.610   2.661  12.866
19639SOL     OW60755   8.872   6.448  11.831
19639SOL    HW160756   8.945   6.499  11.864
19639SOL    HW260757   8.815   6.512  11.787
19640SOL     OW60758  11.490   6.587   9.391
19640SOL    HW160759  11.420   6.570   9.328
19640SOL    HW260760  11.570   6.568   9.343
19641SOL     OW60761   6.000   8.563   0.007
19641SOL    HW160762   6.082   8.593   0.046
19641SOL    HW260763   5.976   8.486   0.058
19642SOL     OW60764  10.251   0.331   8.861
19642SOL    HW160765  10.206   0.340   8.945
19642SOL    HW260766  10.220   0.405   8.809
19643SOL     OW60767   7.463  14.820  14.411
19643SOL    HW160768   7.426  14.740  14.374
19643SOL    HW260769   7.497  14.868  14.336
19644SOL     OW60770   3.283   3.953   5.223
19644SOL    HW160771   3.271   4.042   5.256
19644SOL    HW260772   3.317   3.964   5.134
19645SOL     OW60773   5.784   5.767  14.704
19645SOL    HW160774   5.736   5.694  14.666
19645SOL    HW260775   5.860   5.778  14.648
19646SOL     OW60776   3.510   6.871   2.073
19646SOL    HW160777   3.596   6.912   2.077
19646SOL    HW260778   3.499   6.848   1.980
19647SOL     OW60779   6.277   3.070  14.378
19647SOL    HW160780   6.232   3.119  14.309
19647SOL    HW260781   6.361   3.046  14.339
19648SOL     OW60782   7.417   8.235   8.580
19648SOL    HW160783   7.344   8.295   8.567
19648SOL    HW260784   7.437   8.201   8.493
19649SOL     OW60785   8.215   8.790  14.684
19649SOL    HW160786   8.178   8.764  14.600
19649SOL    HW260787   8.237   8.882  14.674
19650SOL     OW60788  10.781   9.123   6.411
19650SOL    HW160789  10.874   9.145   6.421
19650SOL    HW260790  10.740   9.155   6.491
19651SOL     OW60791  13.106   2.808  12.996
19651SOL    HW160792  13.185   2.754  12.993
19651SOL    HW260793  13.049   2.772  12.928
19652SOL     OW60794  13.823   5.507  12.425
19652SOL    HW160795  13.860   5.448  12.359
19652SOL    HW260796  13.729   5.503  12.411
19653SOL     OW60797   7.734   9.749   1.150
19653SOL    HW160798   7.640   9.729   1.154
19653SOL    HW260799   7.746   9.818   1.215
19654SOL     OW60800  10.352  14.764   4.972
19654SOL    HW160801  10.270  14.775   5.019
19654SOL    HW260802  10.418  14.806   5.028
19655SOL     OW60803  12.212   4.013  10.713
19655SOL    HW160804  12.301   4.047  10.722
19655SOL    HW260805  12.195   3.966  10.794
19656SOL     OW60806   5.268   5.809   5.564
19656SOL    HW160807   5.305   5.747   5.501
19656SOL    HW260808   5.186   5.769   5.593
19657SOL     OW60809  11.290   9.025   8.367
19657SOL    HW160810  11.335   8.947   8.400
19657SOL    HW260811  11.204   8.993   8.340
19658SOL     OW60812   1.216  12.562   9.984
19658SOL    HW160813   1.260  12.481  10.013
19658SOL    HW260814   1.212  12.616  10.063
19659SOL     OW60815  10.118  13.090   8.506
19659SOL    HW160816  10.088  13.173   8.470
19659SOL    HW260817  10.044  13.030   8.495
19660SOL     OW60818  12.724   3.542   0.132
19660SOL    HW160819  12.767   3.592   0.063
19660SOL    HW260820  12.686   3.466   0.086
19661SOL     OW60821   7.193   8.518   5.205
19661SOL    HW160822   7.120   8.460   5.182
19661SOL    HW260823   7.158   8.572   5.276
19662SOL     OW60824  12.373   0.930   2.427
19662SOL    HW160825  12.285   0.915   2.392
19662SOL    HW260826  12.357   0.977   2.509
19663SOL     OW60827   7.715   5.735   7.954
19663SOL    HW160828   7.625   5.736   7.988
19663SOL    HW260829   7.747   5.647   7.976
19664SOL     OW60830   6.757   5.344   8.022
19664SOL    HW160831   6.747   5.344   8.117
19664SOL    HW260832   6.840   5.299   8.006
19665SOL     OW60833  13.455   5.642  13.315
19665SOL    HW160834  13.416   5.600  13.392
19665SOL    HW260835  13.504   5.716  13.351
19666SOL     OW60836   5.537   4.257   1.514
19666SOL    HW160837   5.464   4.282   1.571
19666SOL    HW260838   5.498   4.247   1.428
19667SOL     OW60839   4.689   6.958  10.403
19667SOL    HW160840   4.725   6.940  10.490
19667SOL    HW260841   4.640   7.039  10.413
19668SOL     OW60842  13.213   5.415   8.765
19668SOL    HW160843  13.270   5.342   8.790
19668SOL    HW260844  13.263   5.462   8.697
19669SOL     OW60845   7.045   3.626  10.773
19669SOL    HW160846   7.087   3.575  10.843
19669SOL    HW260847   6.977   3.677  10.818
19670SOL     OW60848   9.751   7.665  11.233
19670SOL    HW160849   9.823   7.672  11.295
19670SOL    HW260850   9.695   7.741  11.253
19671SOL     OW60851   3.593   0.531   9.001
19671SOL    HW160852   3.553   0.471   8.938
19671SOL    HW260853   3.684   0.538   8.972
19672SOL     OW60854  14.626   6.348  10.786
19672SOL    HW160855  14.629   6.327  10.880
19672SOL    HW260856  14.652   6.266  10.743
19673SOL     OW60857   9.052   7.843  10.793
19673SOL    HW160858   9.047   7.757  10.752
19673SOL    HW260859   8.989   7.897  10.746
19674SOL     OW60860   5.834  11.998   4.479
19674SOL    HW160861   5.781  12.022   4.403
19674SOL    HW260862   5.925  12.008   4.449
19675SOL     OW60863   4.014   4.669  14.736
19675SOL    HW160864   4.104   4.657  14.704
19675SOL    HW260865   4.018   4.751  14.786
19676SOL     OW60866   0.737   1.518   1.181
19676SOL    HW160867   0.691   1.476   1.254
19676SOL    HW260868   0.827   1.528   1.212
19677SOL     OW60869   8.495  13.358  11.723
19677SOL    HW160870   8.498  13.298  11.797
19677SOL    HW260871   8.436  13.428  11.752
19678SOL     OW60872   0.969  13.195   7.171
19678SOL    HW160873   0.968  13.282   7.132
19678SOL    HW260874   0.878  13.179   7.199
19679SOL     OW60875   6.517   8.827   2.933
19679SOL    HW160876   6.575   8.903   2.926
19679SOL    HW260877   6.440   8.850   2.882
19680SOL     OW60878   9.773   4.263   3.281
19680SOL    HW160879   9.739   4.307   3.203
19680SOL    HW260880   9.781   4.171   3.255
19681SOL     OW60881  12.431  11.072  13.315
19681SOL    HW160882  12.452  11.166  13.314
19681SOL    HW260883  12.336  11.069  13.319
19682SOL     OW60884   5.906  11.543   3.978
19682SOL    HW160885   5.826  11.524   4.027
19682SOL    HW260886   5.895  11.633   3.948
19683SOL     OW60887   2.670   0.308   6.923
19683SOL    HW160888   2.600   0.285   6.984
19683SOL    HW260889   2.632   0.379   6.870
19684SOL     OW60890   7.936   9.533   4.891
19684SOL    HW160891   7.898   9.612   4.852
19684SOL    HW260892   8.009   9.566   4.945
19685SOL     OW60893   2.667   5.690  11.116
19685SOL    HW160894   2.726   5.661  11.046
19685SOL    HW260895   2.690   5.781  11.131
19686SOL     OW60896  13.938   4.787   1.443
19686SOL    HW160897  14.015   4.832   1.409
19686SOL    HW260898  13.881   4.858   1.474
19687SOL     OW60899  12.534   8.700   2.030
19687SOL    HW160900  12.591   8.679   1.956
19687SOL    HW260901  12.530   8.796   2.031
19688SOL     OW60902   6.188   0.243   0.495
19688SOL    HW160903   6.209   0.183   0.423
19688SOL    HW260904   6.215   0.197   0.574
19689SOL     OW60905  12.075  12.641  12.574
19689SOL    HW160906  12.119  12.708  12.626
19689SOL    HW260907  11.982  12.654  12.591
19690SOL     OW60908   4.242   4.020   5.496
19690SOL    HW160909   4.326   4.063   5.483
19690SOL    HW260910   4.228   4.023   5.591
19691SOL     OW60911   1.739   5.311   7.378
19691SOL    HW160912   1.820   5.287   7.333
19691SOL    HW260913   1.669   5.272   7.326
19692SOL     OW60914   1.781   4.260   2.345
19692SOL    HW160915   1.737   4.341   2.318
19692SOL    HW260916   1.841   4.287   2.415
19693SOL     OW60917   9.650   8.873   5.611
19693SOL    HW160918   9.640   8.788   5.568
19693SOL    HW260919   9.727   8.912   5.571
19694SOL     OW60920  13.693   5.877   4.854
19694SOL    HW160921  13.637   5.880   4.776
19694SOL    HW260922  13.643   5.921   4.922
19695SOL     OW60923   3.025  13.702   6.680
19695SOL    HW160924   3.095  13.646   6.713
19695SOL    HW260925   3.007  13.669   6.592
19696SOL     OW60926  12.063   4.531  13.884
19696SOL    HW160927  12.093   4.482  13.960
19696SOL    HW260928  11.987   4.581  13.915
19697SOL     OW60929  10.013  13.717  14.100
19697SOL    HW160930  10.055  13.745  14.019
19697SOL    HW260931   9.938  13.665  14.072
19698SOL     OW60932  11.085  10.850   8.055
19698SOL    HW160933  11.153  10.783   8.052
19698SOL    HW260934  11.030  10.832   7.979
19699SOL     OW60935  12.106   5.908   2.593
19699SOL    HW160936  12.111   5.822   2.552
19699SOL    HW260937  12.132   5.969   2.524
19700SOL     OW60938   9.249   5.395  14.030
19700SOL    HW160939   9.230   5.372  14.121
19700SOL    HW260940   9.228   5.488  14.024
19701SOL     OW60941   5.205   9.428   3.512
19701SOL    HW160942   5.144   9.464   3.447
19701SOL    HW260943   5.233   9.504   3.563
19702SOL     OW60944  11.520   0.331  10.840
19702SOL    HW160945  11.538   0.254  10.786
19702SOL    HW260946  11.444   0.371  10.799
19703SOL     OW60947  10.392   3.809   3.553
19703SOL    HW160948  10.368   3.810   3.646
19703SOL    HW260949  10.411   3.901   3.533
19704SOL     OW60950   1.877  12.573   2.746
19704SOL    HW160951   1.967  12.606   2.745
19704SOL    HW260952   1.876  12.502   2.682
19705SOL     OW60953  14.257  10.290  11.774
19705SOL    HW160954  14.333  10.313  11.828
19705SOL    HW260955  14.226  10.374  11.740
19706SOL     OW60956  14.544   7.699   0.479
19706SOL    HW160957  14.485   7.754   0.530
19706SOL    HW260958  14.599   7.655   0.545
19707SOL     OW60959   4.712  10.204   3.734
19707SOL    HW160960   4.768  10.231   3.662
19707SOL    HW260961   4.626  10.193   3.694
19708SOL     OW60962  11.178   5.665   4.439
19708SOL    HW160963  11.208   5.696   4.524
19708SOL    HW260964  11.167   5.571   4.449
19709SOL     OW60965  14.445   9.872   0.715
19709SOL    HW160966  14.377   9.809   0.692
19709SOL    HW260967  14.476   9.845   0.801
19710SOL     OW60968   9.627  13.147   5.943
19710SOL    HW160969   9.574  13.103   5.876
19710SOL    HW260970   9.665  13.076   5.994
19711SOL     OW60971  12.360   9.345   7.318
19711SOL    HW160972  12.388   9.370   7.406
19711SOL    HW260973  12.270   9.378   7.311
19712SOL     OW60974   4.950   7.136  10.467
19712SOL    HW160975   4.922   7.152  10.377
19712SOL    HW260976   5.036   7.094  10.458
19713SOL     OW60977   1.528   3.290  11.278
19713SOL    HW160978   1.584   3.348  11.226
19713SOL    HW260979   1.487   3.348  11.342
19714SOL     OW60980  14.803  14.038   5.769
19714SOL    HW160981  14.758  14.070   5.691
19714SOL    HW260982  14.733  14.014   5.829
19715SOL     OW60983  13.094   4.785  12.787
19715SOL    HW160984  13.024   4.840  12.822
19715SOL    HW260985  13.167   4.798  12.847
19716SOL     OW60986  10.282   9.241   0.594
19716SOL    HW160987  10.223   9.257   0.521
19716SOL    HW260988  10.309   9.328   0.623
19717SOL     OW60989   7.189   6.723   0.735
19717SOL    HW160990   7.202   6.660   0.664
19717SOL    HW260991   7.254   6.791   0.718
19718SOL     OW60992   0.295   4.911   6.524
19718SOL    HW160993   0.341   4.921   6.441
19718SOL    HW260994   0.301   4.818   6.545
19719SOL     OW60995  11.094  14.395   2.008
19719SOL    HW160996  11.158  14.446   2.058
19719SOL    HW260997  11.015  14.399   2.061
19720SOL     OW60998   3.708   6.678  14.592
19720SOL    HW160999   3.704   6.585  14.615
19720SOL    HW261000   3.776   6.714  14.650
19721SOL     OW61001   2.366  13.252   7.180
19721SOL    HW161002   2.321  13.239   7.263
19721SOL    HW261003   2.451  13.290   7.204
19722SOL     OW61004   3.741  12.577  13.166
19722SOL    HW161005   3.773  12.527  13.241
19722SOL    HW261006   3.699  12.654  13.204
19723SOL     OW61007   9.122  14.083   9.338
19723SOL    HW161008   9.204  14.131   9.334
19723SOL    HW261009   9.056  14.144   9.305
19724SOL     OW61010  12.221   1.467   0.388
19724SOL    HW161011  12.152   1.512   0.437
19724SOL    HW261012  12.184   1.382   0.366
19725SOL     OW61013  11.114  14.482   7.357
19725SOL    HW161014  11.160  14.412   7.403
19725SOL    HW261015  11.183  14.544   7.334
19726SOL     OW61016  12.840  11.714   9.689
19726SOL    HW161017  12.764  11.656   9.683
19726SOL    HW261018  12.915  11.655   9.685
19727SOL     OW61019   8.530   0.420  12.861
19727SOL    HW161020   8.457   0.418  12.799
19727SOL    HW261021   8.606   0.442  12.807
19728SOL     OW61022   0.420  12.850  11.020
19728SOL    HW161023   0.371  12.905  10.959
19728SOL    HW261024   0.427  12.901  11.100
19729SOL     OW61025   5.549   5.406  12.103
19729SOL    HW161026   5.508   5.321  12.089
19729SOL    HW261027   5.477   5.469  12.103
19730SOL     OW61028  14.369   8.095  11.417
19730SOL    HW161029  14.374   8.152  11.340
19730SOL    HW261030  14.331   8.150  11.485
19731SOL     OW61031   6.578   0.857   1.898
19731SOL    HW161032   6.511   0.829   1.836
19731SOL    HW261033   6.585   0.786   1.961
19732SOL     OW61034  11.912  12.015  13.230
19732SOL    HW161035  11.863  12.085  13.188
19732SOL    HW261036  11.852  11.940  13.231
19733SOL     OW61037   3.807   5.635   2.869
19733SOL    HW161038   3.731   5.663   2.919
19733SOL    HW261039   3.771   5.585   2.796
19734SOL     OW61040   2.108   9.304   7.125
19734SOL    HW161041   2.115   9.219   7.083
19734SOL    HW261042   2.194   9.344   7.113
19735SOL     OW61043   8.015   1.957  13.756
19735SOL    HW161044   7.969   1.978  13.675
19735SOL    HW261045   8.032   1.863  13.751
19736SOL     OW61046   5.569   6.649   4.692
19736SOL    HW161047   5.605   6.609   4.613
19736SOL    HW261048   5.569   6.579   4.757
19737SOL     OW61049  14.659   4.066   5.509
19737SOL    HW161050  14.607   4.055   5.589
19737SOL    HW261051  14.623   4.002   5.448
19738SOL     OW61052   1.065   8.353   2.305
19738SOL    HW161053   1.084   8.435   2.259
19738SOL    HW261054   1.055   8.289   2.234
19739SOL     OW61055   8.274   8.395   1.761
19739SOL    HW161056   8.210   8.431   1.823
19739SOL    HW261057   8.294   8.308   1.795
19740SOL     OW61058   1.253  11.705   4.570
19740SOL    HW161059   1.236  11.724   4.662
19740SOL    HW261060   1.279  11.612   4.570
19741SOL     OW61061   1.263   8.460   3.543
19741SOL    HW161062   1.209   8.467   3.621
19741SOL    HW261063   1.292   8.368   3.542
19742SOL     OW61064  12.820   5.496   7.960
19742SOL    HW161065  12.728   5.489   7.938
19742SOL    HW261066  12.846   5.407   7.984
19743SOL     OW61067   3.999  13.811  12.401
19743SOL    HW161068   3.939  13.886  12.398
19743SOL    HW261069   4.084  13.847  12.375
19744SOL     OW61070   7.442   4.613   9.819
19744SOL    HW161071   7.509   4.677   9.842
19744SOL    HW261072   7.385   4.609   9.896
19745SOL     OW61073   8.517  13.928  11.798
19745SOL    HW161074   8.603  13.905  11.762
19745SOL    HW261075   8.536  13.972  11.881
19746SOL     OW61076   0.014   3.688  13.229
19746SOL    HW161077   0.005   3.654  13.140
19746SOL    HW261078   0.049   3.777  13.217
19747SOL     OW61079   1.675   4.093  10.792
19747SOL    HW161080   1.769   4.112  10.790
19747SOL    HW261081   1.655   4.064  10.703
19748SOL     OW61082   8.798   6.124  10.932
19748SOL    HW161083   8.825   6.189  10.997
19748SOL    HW261084   8.703   6.119  10.943
19749SOL     OW61085  11.098   6.383   7.940
19749SOL    HW161086  11.044   6.324   7.993
19749SOL    HW261087  11.091   6.349   7.851
19750SOL     OW61088  12.008   1.350   8.273
19750SOL    HW161089  12.072   1.399   8.220
19750SOL    HW261090  12.044   1.352   8.361
19751SOL     OW61091   9.619  14.068   8.064
19751SOL    HW161092   9.544  14.048   8.008
19751SOL    HW261093   9.668  13.986   8.067
19752SOL     OW61094   5.698   8.111   0.986
19752SOL    HW161095   5.685   8.190   0.933
19752SOL    HW261096   5.675   8.039   0.928
19753SOL     OW61097   2.265  12.595   9.293
19753SOL    HW161098   2.333  12.528   9.288
19753SOL    HW261099   2.183  12.546   9.287
19754SOL     OW61100   1.730  14.514  11.691
19754SOL    HW161101   1.742  14.541  11.782
19754SOL    HW261102   1.642  14.544  11.668
19755SOL     OW61103   9.746  14.085  12.593
19755SOL    HW161104   9.760  14.002  12.548
19755SOL    HW261105   9.683  14.065  12.662
19756SOL     OW61106  12.044   8.774   8.955
19756SOL    HW161107  12.014   8.749   8.867
19756SOL    HW261108  11.967   8.813   8.996
19757SOL     OW61109  10.000   3.013   9.527
19757SOL    HW161110   9.907   3.030   9.538
19757SOL    HW261111  10.009   2.919   9.546
19758SOL     OW61112   0.388   2.294   9.307
19758SOL    HW161113   0.328   2.316   9.235
19758SOL    HW261114   0.388   2.372   9.363
19759SOL     OW61115   4.591   4.558   7.280
19759SOL    HW161116   4.576   4.564   7.185
19759SOL    HW261117   4.686   4.565   7.289
19760SOL     OW61118  14.347   5.236   6.320
19760SOL    HW161119  14.306   5.193   6.245
19760SOL    HW261120  14.309   5.193   6.397
19761SOL     OW61121  14.287   2.169  13.083
19761SOL    HW161122  14.300   2.184  13.177
19761SOL    HW261123  14.308   2.077  13.071
19762SOL     OW61124   6.976  11.298   6.530
19762SOL    HW161125   7.037  11.241   6.484
19762SOL    HW261126   6.890  11.272   6.497
19763SOL     OW61127   2.624  12.337   1.124
19763SOL    HW161128   2.532  12.356   1.103
19763SOL    HW261129   2.641  12.386   1.203
19764SOL     OW61130   4.718   4.924   9.773
19764SOL    HW161131   4.624   4.938   9.779
19764SOL    HW261132   4.756   4.987   9.834
19765SOL     OW61133   4.420  11.631  11.785
19765SOL    HW161134   4.456  11.566  11.725
19765SOL    HW261135   4.461  11.713  11.760
19766SOL     OW61136  10.809  11.946  13.323
19766SOL    HW161137  10.878  11.888  13.356
19766SOL    HW261138  10.729  11.893  13.329
19767SOL     OW61139  10.124  10.011   5.329
19767SOL    HW161140  10.065   9.938   5.313
19767SOL    HW261141  10.179  10.015   5.250
19768SOL     OW61142  10.335   4.360   0.440
19768SOL    HW161143  10.369   4.307   0.513
19768SOL    HW261144  10.383   4.328   0.363
19769SOL     OW61145   9.406   0.378  11.994
19769SOL    HW161146   9.336   0.440  12.013
19769SOL    HW261147   9.443   0.355  12.079
19770SOL     OW61148   6.027   1.024  10.417
19770SOL    HW161149   6.113   0.993  10.444
19770SOL    HW261150   5.970   0.947  10.427
19771SOL     OW61151   9.759   4.442  14.110
19771SOL    HW161152   9.746   4.530  14.147
19771SOL    HW261153   9.853   4.429  14.111
19772SOL     OW61154   2.239   4.687   6.531
19772SOL    HW161155   2.223   4.609   6.477
19772SOL    HW261156   2.305   4.737   6.483
19773SOL     OW61157  11.686   3.572   7.985
19773SOL    HW161158  11.648   3.657   7.965
19773SOL    HW261159  11.680   3.564   8.081
19774SOL     OW61160   3.113  11.424  10.674
19774SOL    HW161161   3.184  11.391  10.619
19774SOL    HW261162   3.107  11.360  10.745
19775SOL     OW61163  11.775   8.404  13.862
19775SOL    HW161164  11.786   8.318  13.821
19775SOL    HW261165  11.858   8.419  13.907
19776SOL     OW61166   1.670   9.975  11.058
19776SOL    HW161167   1.641   9.947  11.145
19776SOL    HW261168   1.730   9.907  11.029
19777SOL     OW61169   7.898   0.278  14.725
19777SOL    HW161170   7.926   0.305  14.638
19777SOL    HW261171   7.906   0.356  14.779
19778SOL     OW61172   0.837   7.121   1.647
19778SOL    HW161173   0.912   7.166   1.686
19778SOL    HW261174   0.832   7.037   1.693
19779SOL     OW61175   6.464   7.897   8.968
19779SOL    HW161176   6.414   7.925   8.891
19779SOL    HW261177   6.535   7.960   8.975
19780SOL     OW61178   9.385   3.459   0.698
19780SOL    HW161179   9.430   3.444   0.781
19780SOL    HW261180   9.300   3.495   0.722
19781SOL     OW61181  10.964  12.669   3.958
19781SOL    HW161182  10.988  12.584   3.922
19781SOL    HW261183  11.047  12.705   3.991
19782SOL     OW61184   2.916  14.425   6.357
19782SOL    HW161185   2.857  14.451   6.428
19782SOL    HW261186   2.865  14.363   6.305
19783SOL     OW61187   0.587   6.116   1.557
19783SOL    HW161188   0.581   6.153   1.645
19783SOL    HW261189   0.578   6.022   1.570
19784SOL     OW61190  12.009   9.132   2.579
19784SOL    HW161191  11.929   9.091   2.613
19784SOL    HW261192  12.060   9.059   2.543
19785SOL     OW61193   8.576   9.340   0.411
19785SOL    HW161194   8.574   9.265   0.351
19785SOL    HW261195   8.612   9.305   0.492
19786SOL     OW61196   7.944   5.038   7.752
19786SOL    HW161197   8.015   5.091   7.714
19786SOL    HW261198   7.866   5.067   7.706
19787SOL     OW61199   6.236   9.956   3.070
19787SOL    HW161200   6.216  10.040   3.029
19787SOL    HW261201   6.196   9.962   3.157
19788SOL     OW61202   9.910   1.212  10.349
19788SOL    HW161203  10.004   1.229  10.343
19788SOL    HW261204   9.889   1.168  10.266
19789SOL     OW61205   4.899   9.377  11.350
19789SOL    HW161206   4.985   9.412  11.329
19789SOL    HW261207   4.911   9.282  11.352
19790SOL     OW61208   5.145   6.353   5.777
19790SOL    HW161209   5.175   6.262   5.787
19790SOL    HW261210   5.171   6.395   5.859
19791SOL     OW61211  12.482   2.176  13.236
19791SOL    HW161212  12.449   2.149  13.321
19791SOL    HW261213  12.519   2.097  13.197
19792SOL     OW61214   4.917   5.292   1.245
19792SOL    HW161215   4.913   5.209   1.292
19792SOL    HW261216   5.005   5.326   1.263
19793SOL     OW61217   0.075  12.735  11.945
19793SOL    HW161218   0.022  12.656  11.956
19793SOL    HW261219   0.083  12.745  11.851
19794SOL     OW61220  10.736   6.637   6.132
19794SOL    HW161221  10.696   6.684   6.205
19794SOL    HW261222  10.827   6.625   6.158
19795SOL     OW61223   4.190   0.520   9.048
19795SOL    HW161224   4.172   0.610   9.074
19795SOL    HW261225   4.168   0.467   9.125
19796SOL     OW61226  10.255  13.891   8.434
19796SOL    HW161227  10.190  13.910   8.502
19796SOL    HW261228  10.337  13.877   8.482
19797SOL     OW61229   2.697  10.069   8.516
19797SOL    HW161230   2.755  10.081   8.591
19797SOL    HW261231   2.697  10.154   8.471
19798SOL     OW61232  12.247   7.788   9.403
19798SOL    HW161233  12.330   7.819   9.366
19798SOL    HW261234  12.244   7.695   9.381
19799SOL     OW61235   0.190   4.166   8.372
19799SOL    HW161236   0.227   4.253   8.356
19799SOL    HW261237   0.100   4.172   8.342
19800SOL     OW61238   4.463   2.104   2.862
19800SOL    HW161239   4.442   2.014   2.838
19800SOL    HW261240   4.390   2.155   2.826
19801SOL     OW61241   5.438  10.043  13.202
19801SOL    HW161242   5.514  10.041  13.260
19801SOL    HW261243   5.425  10.136  13.183
19802SOL     OW61244   3.814  12.235  12.479
19802SOL    HW161245   3.902  12.195  12.475
19802SOL    HW261246   3.830  12.328  12.464
19803SOL     OW61247   0.049   6.817   4.376
19803SOL    HW161248   0.092   6.733   4.395
19803SOL    HW261249   0.121   6.880   4.375
19804SOL     OW61250  14.152   1.851  13.233
19804SOL    HW161251  14.185   1.777  13.284
19804SOL    HW261252  14.107   1.906  13.296
19805SOL     OW61253   8.713  14.390   3.446
19805SOL    HW161254   8.644  14.415   3.385
19805SOL    HW261255   8.772  14.466   3.446
19806SOL     OW61256   9.611  11.998  11.549
19806SOL    HW161257   9.516  12.012  11.544
19806SOL    HW261258   9.648  12.086  11.548
19807SOL     OW61259   8.733  14.537   7.132
19807SOL    HW161260   8.704  14.601   7.068
19807SOL    HW261261   8.686  14.457   7.109
19808SOL     OW61262  11.727   2.424   5.470
19808SOL    HW161263  11.766   2.404   5.385
19808SOL    HW261264  11.678   2.504   5.456
19809SOL     OW61265   4.620   6.557  11.421
19809SOL    HW161266   4.565   6.633  11.403
19809SOL    HW261267   4.560   6.483  11.421
19810SOL     OW61268   9.067   1.532  12.432
19810SOL    HW161269   9.049   1.515  12.340
19810SOL    HW261270   9.162   1.541  12.438
19811SOL     OW61271   6.204   2.229   3.073
19811SOL    HW161272   6.295   2.251   3.092
19811SOL    HW261273   6.154   2.307   3.096
19812SOL     OW61274  13.485   4.283   0.862
19812SOL    HW161275  13.392   4.261   0.867
19812SOL    HW261276  13.530   4.199   0.856
19813SOL     OW61277   7.680   4.232   8.835
19813SOL    HW161278   7.637   4.311   8.805
19813SOL    HW261279   7.616   4.190   8.893
19814SOL     OW61280   1.936  13.663   6.132
19814SOL    HW161281   1.873  13.735   6.132
19814SOL    HW261282   1.894  13.594   6.184
19815SOL     OW61283   0.913   6.117   7.971
19815SOL    HW161284   0.831   6.094   7.928
19815SOL    HW261285   0.896   6.105   8.064
19816SOL     OW61286  13.916   5.854  13.437
19816SOL    HW161287  13.996   5.820  13.475
19816SOL    HW261288  13.892   5.790  13.369
19817SOL     OW61289  12.497  11.457   7.533
19817SOL    HW161290  12.516  11.363   7.527
19817SOL    HW261291  12.582  11.500   7.522
19818SOL     OW61292   6.110  13.081   9.734
19818SOL    HW161293   6.197  13.041   9.737
19818SOL    HW261294   6.064  13.032   9.666
19819SOL     OW61295   6.133  10.756   7.496
19819SOL    HW161296   6.166  10.761   7.586
19819SOL    HW261297   6.190  10.693   7.453
19820SOL     OW61298   8.208   1.504   6.747
19820SOL    HW161299   8.172   1.569   6.808
19820SOL    HW261300   8.270   1.553   6.694
19821SOL     OW61301   8.310   1.538  11.179
19821SOL    HW161302   8.368   1.465  11.154
19821SOL    HW261303   8.277   1.514  11.265
19822SOL     OW61304   5.817   0.196   6.690
19822SOL    HW161305   5.905   0.227   6.670
19822SOL    HW261306   5.761   0.273   6.680
19823SOL     OW61307  11.838  12.084  13.504
19823SOL    HW161308  11.848  12.132  13.422
19823SOL    HW261309  11.837  12.152  13.572
19824SOL     OW61310   5.691   8.762   7.693
19824SOL    HW161311   5.720   8.674   7.668
19824SOL    HW261312   5.770   8.815   7.691
19825SOL     OW61313  13.173   9.342   5.100
19825SOL    HW161314  13.167   9.266   5.158
19825SOL    HW261315  13.087   9.346   5.058
19826SOL     OW61316  12.630  14.570   9.998
19826SOL    HW161317  12.610  14.659  10.025
19826SOL    HW261318  12.647  14.576   9.904
19827SOL     OW61319   6.194  13.929   0.338
19827SOL    HW161320   6.111  13.882   0.350
19827SOL    HW261321   6.171  14.001   0.278
19828SOL     OW61322   9.779   4.964   1.412
19828SOL    HW161323   9.698   5.011   1.394
19828SOL    HW261324   9.752   4.890   1.467
19829SOL     OW61325  13.726   7.340   0.615
19829SOL    HW161326  13.751   7.422   0.572
19829SOL    HW261327  13.802   7.317   0.668
19830SOL     OW61328  11.788   1.721   0.811
19830SOL    HW161329  11.760   1.634   0.783
19830SOL    HW261330  11.712   1.757   0.857
19831SOL     OW61331  13.525  12.407  12.098
19831SOL    HW161332  13.551  12.319  12.124
19831SOL    HW261333  13.436  12.397  12.064
19832SOL     OW61334  14.111   5.251  11.300
19832SOL    HW161335  14.182   5.300  11.259
19832SOL    HW261336  14.149   5.219  11.382
19833SOL     OW61337  14.072   3.085  13.491
19833SOL    HW161338  13.985   3.068  13.525
19833SOL    HW261339  14.129   3.085  13.569
19834SOL     OW61340   7.868  14.094   0.491
19834SOL    HW161341   7.848  14.125   0.402
19834SOL    HW261342   7.816  14.014   0.501
19835SOL     OW61343   3.755  11.827   0.737
19835SOL    HW161344   3.749  11.780   0.654
19835SOL    HW261345   3.731  11.917   0.715
19836SOL     OW61346  12.757   4.101   9.565
19836SOL    HW161347  12.763   4.081   9.472
19836SOL    HW261348  12.829   4.162   9.581
19837SOL     OW61349   3.952  13.699  13.916
19837SOL    HW161350   4.015  13.760  13.956
19837SOL    HW261351   4.005  13.626  13.887
19838SOL     OW61352   8.310   7.012  12.124
19838SOL    HW161353   8.301   7.063  12.044
19838SOL    HW261354   8.305   6.921  12.096
19839SOL     OW61355   0.743   7.746   8.493
19839SOL    HW161356   0.697   7.756   8.576
19839SOL    HW261357   0.680   7.777   8.428
19840SOL     OW61358   1.711  13.855   3.330
19840SOL    HW161359   1.683  13.860   3.239
19840SOL    HW261360   1.800  13.890   3.329
19841SOL     OW61361   2.109   4.436   8.864
19841SOL    HW161362   2.199   4.425   8.892
19841SOL    HW261363   2.105   4.524   8.828
19842SOL     OW61364   1.754  10.938   7.718
19842SOL    HW161365   1.672  10.959   7.763
19842SOL    HW261366   1.726  10.893   7.638
19843SOL     OW61367   4.838   3.106  11.103
19843SOL    HW161368   4.816   3.166  11.174
19843SOL    HW261369   4.764   3.112  11.042
19844SOL     OW61370  14.290   6.989   1.744
19844SOL    HW161371  14.263   6.960   1.656
19844SOL    HW261372  14.240   7.069   1.759
19845SOL     OW61373  12.839  13.055   5.505
19845SOL    HW161374  12.799  13.135   5.471
19845SOL    HW261375  12.767  13.008   5.546
19846SOL     OW61376  12.830   3.420  14.406
19846SOL    HW161377  12.847   3.513  14.395
19846SOL    HW261378  12.882   3.394  14.482
19847SOL     OW61379  10.424  12.534   3.787
19847SOL    HW161380  10.510  12.559   3.754
19847SOL    HW261381  10.377  12.500   3.710
19848SOL     OW61382   6.312   2.923   8.434
19848SOL    HW161383   6.285   2.884   8.517
19848SOL    HW261384   6.274   3.011   8.435
19849SOL     OW61385   0.384   3.626  11.991
19849SOL    HW161386   0.418   3.580  12.068
19849SOL    HW261387   0.463   3.659  11.947
19850SOL     OW61388   6.311   9.216   7.166
19850SOL    HW161389   6.364   9.269   7.226
19850SOL    HW261390   6.232   9.268   7.152
19851SOL     OW61391  11.540   3.243   1.176
19851SOL    HW161392  11.583   3.157   1.172
19851SOL    HW261393  11.451   3.224   1.207
19852SOL     OW61394   6.868   6.902   1.137
19852SOL    HW161395   6.948   6.882   1.186
19852SOL    HW261396   6.897   6.962   1.068
19853SOL     OW61397   8.830   2.755   3.525
19853SOL    HW161398   8.801   2.840   3.558
19853SOL    HW261399   8.907   2.733   3.578
19854SOL     OW61400   1.029   9.819   7.626
19854SOL    HW161401   1.122   9.830   7.648
19854SOL    HW261402   1.009   9.728   7.650
19855SOL     OW61403  13.926  14.108  14.062
19855SOL    HW161404  14.014  14.105  14.100
19855SOL    HW261405  13.931  14.177  13.996
19856SOL     OW61406   7.965  13.153   7.518
19856SOL    HW161407   8.033  13.085   7.513
19856SOL    HW261408   7.958  13.186   7.429
19857SOL     OW61409  13.835  11.386   4.053
19857SOL    HW161410  13.862  11.385   4.145
19857SOL    HW261411  13.739  11.378   4.056
19858SOL     OW61412  12.790  13.643  12.542
19858SOL    HW161413  12.846  13.593  12.482
19858SOL    HW261414  12.826  13.732  12.540
19859SOL     OW61415   1.445   5.889  10.210
19859SOL    HW161416   1.370   5.896  10.269
19859SOL    HW261417   1.457   5.977  10.175
19860SOL     OW61418  14.477  13.187  11.577
19860SOL    HW161419  14.531  13.238  11.517
19860SOL    HW261420  14.429  13.126  11.520
19861SOL     OW61421   7.900  12.742  14.142
19861SOL    HW161422   7.887  12.819  14.087
19861SOL    HW261423   7.929  12.777  14.226
19862SOL     OW61424   4.874   4.743  11.362
19862SOL    HW161425   4.914   4.658  11.347
19862SOL    HW261426   4.860   4.780  11.275
19863SOL     OW61427   9.039   4.983   8.088
19863SOL    HW161428   9.101   5.037   8.039
19863SOL    HW261429   8.953   5.021   8.070
19864SOL     OW61430   4.790   8.608  12.799
19864SOL    HW161431   4.810   8.525  12.758
19864SOL    HW261432   4.855   8.669  12.764
19865SOL     OW61433   1.440   2.533   6.037
19865SOL    HW161434   1.387   2.562   6.111
19865SOL    HW261435   1.383   2.544   5.961
19866SOL     OW61436   6.702   6.679   9.461
19866SOL    HW161437   6.675   6.737   9.532
19866SOL    HW261438   6.628   6.621   9.446
19867SOL     OW61439  11.597  14.093   9.689
19867SOL    HW161440  11.556  14.149   9.622
19867SOL    HW261441  11.523  14.051   9.733
19868SOL     OW61442  11.242   2.660   0.904
19868SOL    HW161443  11.284   2.708   0.976
19868SOL    HW261444  11.286   2.575   0.903
19869SOL     OW61445   0.415   6.851   7.046
19869SOL    HW161446   0.470   6.918   7.005
19869SOL    HW261447   0.327   6.888   7.043
19870SOL     OW61448   9.035  11.880   4.610
19870SOL    HW161449   9.045  11.882   4.705
19870SOL    HW261450   8.945  11.849   4.596
19871SOL     OW61451  10.930   9.364   3.017
19871SOL    HW161452  10.946   9.443   2.966
19871SOL    HW261453  11.013   9.316   3.012
19872SOL     OW61454  11.125   3.787   0.616
19872SOL    HW161455  11.073   3.790   0.536
19872SOL    HW261456  11.204   3.836   0.594
19873SOL     OW61457   2.383   2.112   6.736
19873SOL    HW161458   2.459   2.097   6.793
19873SOL    HW261459   2.307   2.105   6.794
19874SOL     OW61460   2.183   1.045  10.471
19874SOL    HW161461   2.093   1.069  10.493
19874SOL    HW261462   2.194   1.073  10.380
19875SOL     OW61463   6.045   0.635   6.443
19875SOL    HW161464   5.951   0.646   6.433
19875SOL    HW261465   6.065   0.555   6.393
19876SOL     OW61466   5.709  10.020   1.264
19876SOL    HW161467   5.788   9.974   1.235
19876SOL    HW261468   5.672  10.057   1.184
19877SOL     OW61469  13.545   9.267   7.181
19877SOL    HW161470  13.525   9.306   7.266
19877SOL    HW261471  13.640   9.276   7.172
19878SOL     OW61472   8.733   2.761   7.685
19878SOL    HW161473   8.794   2.830   7.659
19878SOL    HW261474   8.648   2.806   7.693
19879SOL     OW61475   2.947  10.405  14.411
19879SOL    HW161476   2.860  10.445  14.419
19879SOL    HW261477   3.006  10.478  14.395
19880SOL     OW61478   3.074   1.737  12.337
19880SOL    HW161479   3.003   1.765  12.280
19880SOL    HW261480   3.147   1.793  12.315
19881SOL     OW61481  13.110  10.560   3.135
19881SOL    HW161482  13.127  10.473   3.172
19881SOL    HW261483  13.109  10.618   3.211
19882SOL     OW61484  12.498   1.149   6.439
19882SOL    HW161485  12.585   1.141   6.477
19882SOL    HW261486  12.451   1.209   6.497
19883SOL     OW61487   7.446  14.601   5.082
19883SOL    HW161488   7.439  14.682   5.132
19883SOL    HW261489   7.526  14.559   5.115
19884SOL     OW61490  11.489   7.343   9.208
19884SOL    HW161491  11.466   7.258   9.244
19884SOL    HW261492  11.555   7.324   9.142
19885SOL     OW61493   9.687  13.084   4.873
19885SOL    HW161494   9.628  13.019   4.912
19885SOL    HW261495   9.767  13.079   4.926
19886SOL     OW61496   5.577   2.079   8.588
19886SOL    HW161497   5.626   2.051   8.666
19886SOL    HW261498   5.485   2.078   8.616
19887SOL     OW61499   2.270  11.107   1.111
19887SOL    HW161500   2.266  11.191   1.156
19887SOL    HW261501   2.189  11.103   1.060
19888SOL     OW61502   3.852   2.734   2.018
19888SOL    HW161503   3.763   2.768   2.016
19888SOL    HW261504   3.902   2.793   1.961
19889SOL     OW61505   8.554   2.095   3.884
19889SOL    HW161506   8.468   2.106   3.844
19889SOL    HW261507   8.599   2.179   3.869
19890SOL     OW61508   9.789   0.439   2.640
19890SOL    HW161509   9.828   0.354   2.656
19890SOL    HW261510   9.726   0.423   2.569
19891SOL     OW61511  14.612   1.435   2.883
19891SOL    HW161512  14.534   1.424   2.829
19891SOL    HW261513  14.665   1.498   2.834
19892SOL     OW61514   5.927  12.189  10.854
19892SOL    HW161515   6.015  12.226  10.854
19892SOL    HW261516   5.938  12.102  10.816
19893SOL     OW61517   3.007   8.257   1.026
19893SOL    HW161518   2.941   8.305   0.976
19893SOL    HW261519   2.960   8.181   1.061
19894SOL     OW61520   3.888  12.223   2.813
19894SOL    HW161521   3.978  12.251   2.827
19894SOL    HW261522   3.885  12.132   2.842
19895SOL     OW61523   2.453  11.766  13.792
19895SOL    HW161524   2.374  11.777  13.738
19895SOL    HW261525   2.427  11.797  13.878
19896SOL     OW61526   9.766  13.171  13.678
19896SOL    HW161527   9.849  13.148  13.635
19896SOL    HW261528   9.700  13.162  13.610
19897SOL     OW61529   3.538  14.695  14.573
19897SOL    HW161530   3.514  14.782  14.540
19897SOL    HW261531   3.622  14.709  14.617
19898SOL     OW61532   9.799  12.120   6.584
19898SOL    HW161533   9.755  12.165   6.656
19898SOL    HW261534   9.891  12.117   6.609
19899SOL     OW61535   5.704   1.688   8.663
19899SOL    HW161536   5.722   1.715   8.573
19899SOL    HW261537   5.615   1.718   8.680
19900SOL     OW61538  10.746   3.333   1.525
19900SOL    HW161539  10.705   3.411   1.489
19900SOL    HW261540  10.797   3.365   1.600
19901SOL     OW61541   7.796   9.172  11.130
19901SOL    HW161542   7.709   9.148  11.160
19901SOL    HW261543   7.801   9.266  11.144
19902SOL     OW61544   8.131  14.821  10.754
19902SOL    HW161545   8.208  14.848  10.803
19902SOL    HW261546   8.155  14.737  10.714
19903SOL     OW61547   8.980   6.290  14.846
19903SOL    HW161548   8.928   6.332  14.777
19903SOL    HW261549   9.043   6.357  14.872
19904SOL     OW61550   2.256   4.760   5.444
19904SOL    HW161551   2.324   4.692   5.443
19904SOL    HW261552   2.206   4.745   5.364
19905SOL     OW61553   2.467   9.399  12.117
19905SOL    HW161554   2.532   9.410  12.187
19905SOL    HW261555   2.390   9.445  12.149
19906SOL     OW61556  13.672  13.770   6.890
19906SOL    HW161557  13.758  13.734   6.871
19906SOL    HW261558  13.655  13.748   6.981
19907SOL     OW61559   9.283   1.440  14.382
19907SOL    HW161560   9.223   1.467  14.452
19907SOL    HW261561   9.228   1.396  14.318
19908SOL     OW61562   1.363   8.014   4.333
19908SOL    HW161563   1.296   7.954   4.300
19908SOL    HW261564   1.442   7.990   4.285
19909SOL     OW61565   2.313   1.036  13.909
19909SOL    HW161566   2.238   1.069  13.861
19909SOL    HW261567   2.289   1.045  14.001
19910SOL     OW61568   5.636   6.787  14.518
19910SOL    HW161569   5.714   6.732  14.527
19910SOL    HW261570   5.590   6.751  14.442
19911SOL     OW61571   1.319   4.023   2.390
19911SOL    HW161572   1.278   3.970   2.459
19911SOL    HW261573   1.370   3.961   2.338
19912SOL     OW61574   7.994   3.991   0.922
19912SOL    HW161575   8.026   3.910   0.960
19912SOL    HW261576   8.065   4.020   0.864
19913SOL     OW61577   8.766   8.683   5.476
19913SOL    HW161578   8.682   8.692   5.431
19913SOL    HW261579   8.779   8.588   5.484
19914SOL     OW61580  10.438   7.437   9.950
19914SOL    HW161581  10.396   7.403   9.871
19914SOL    HW261582  10.407   7.527   9.957
19915SOL     OW61583   9.425  10.875  13.104
19915SOL    HW161584   9.474  10.876  13.186
19915SOL    HW261585   9.418  10.968  13.080
19916SOL     OW61586   9.125   8.301   0.830
19916SOL    HW161587   9.101   8.310   0.923
19916SOL    HW261588   9.208   8.346   0.822
19917SOL     OW61589  10.012   9.197   7.021
19917SOL    HW161590   9.975   9.238   7.100
19917SOL    HW261591   9.935   9.178   6.966
19918SOL     OW61592   6.607  12.352   9.710
19918SOL    HW161593   6.586  12.444   9.726
19918SOL    HW261594   6.559  12.330   9.630
19919SOL     OW61595   6.746   5.730   5.375
19919SOL    HW161596   6.797   5.670   5.430
19919SOL    HW261597   6.728   5.681   5.295
19920SOL     OW61598   9.192   5.089   0.054
19920SOL    HW161599   9.246   5.148  14.879
19920SOL    HW261600   9.118   5.143   0.082
19921SOL     OW61601   1.317   0.645   9.183
19921SOL    HW161602   1.283   0.618   9.268
19921SOL    HW261603   1.374   0.574   9.155
19922SOL     OW61604   1.319   6.759  13.124
19922SOL    HW161605   1.319   6.834  13.066
19922SOL    HW261606   1.232   6.720  13.113
19923SOL     OW61607   1.328  14.221   5.449
19923SOL    HW161608   1.236  14.205   5.468
19923SOL    HW261609   1.373  14.208   5.532
19924SOL     OW61610   7.460   2.294   9.486
19924SOL    HW161611   7.368   2.321   9.495
19924SOL    HW261612   7.468   2.266   9.395
19925SOL     OW61613   6.133   0.963   1.223
19925SOL    HW161614   6.200   1.025   1.253
19925SOL    HW261615   6.051   1.011   1.231
19926SOL     OW61616  14.864   7.638   3.105
19926SOL    HW161617  14.858   7.544   3.121
19926SOL    HW261618   0.054   7.668   3.163
19927SOL     OW61619   5.317  11.134   2.789
19927SOL    HW161620   5.339  11.173   2.704
19927SOL    HW261621   5.350  11.196   2.853
19928SOL     OW61622   3.637   1.497   5.553
19928SOL    HW161623   3.553   1.502   5.597
19928SOL    HW261624   3.643   1.577   5.501
19929SOL     OW61625   4.931  14.644  13.695
19929SOL    HW161626   4.895  14.563  13.657
19929SOL    HW261627   4.861  14.708  13.685
19930SOL     OW61628  11.727   8.947   7.241
19930SOL    HW161629  11.731   9.038   7.212
19930SOL    HW261630  11.687   8.951   7.328
19931SOL     OW61631   3.864   0.458   5.228
19931SOL    HW161632   3.918   0.520   5.278
19931SOL    HW261633   3.774   0.484   5.247
19932SOL     OW61634  14.602  13.242   8.313
19932SOL    HW161635  14.547  13.321   8.310
19932SOL    HW261636  14.690  13.274   8.291
19933SOL     OW61637   5.096   7.914  14.451
19933SOL    HW161638   5.142   7.984  14.404
19933SOL    HW261639   5.046   7.959  14.519
19934SOL     OW61640   2.047   9.401   4.641
19934SOL    HW161641   2.081   9.490   4.630
19934SOL    HW261642   1.953   9.412   4.655
19935SOL     OW61643   3.985  10.976   7.589
19935SOL    HW161644   3.942  11.040   7.531
19935SOL    HW261645   3.932  10.897   7.580
19936SOL     OW61646  12.873   9.992   6.281
19936SOL    HW161647  12.923   9.955   6.208
19936SOL    HW261648  12.815   9.922   6.309
19937SOL     OW61649  11.689   6.037   4.907
19937SOL    HW161650  11.656   5.995   4.828
19937SOL    HW261651  11.783   6.017   4.908
19938SOL     OW61652   7.358   2.240  14.469
19938SOL    HW161653   7.358   2.212  14.560
19938SOL    HW261654   7.450   2.250  14.447
19939SOL     OW61655  12.009  12.890   4.090
19939SOL    HW161656  11.950  12.957   4.054
19939SOL    HW261657  12.094  12.934   4.097
19940SOL     OW61658   9.350   3.778   0.404
19940SOL    HW161659   9.350   3.777   0.308
19940SOL    HW261660   9.257   3.776   0.428
19941SOL     OW61661   6.596  11.228   1.875
19941SOL    HW161662   6.513  11.212   1.921
19941SOL    HW261663   6.584  11.314   1.834
19942SOL     OW61664   6.261   3.488  12.075
19942SOL    HW161665   6.247   3.531  12.160
19942SOL    HW261666   6.275   3.561  12.014
19943SOL     OW61667  11.403   9.343   2.837
19943SOL    HW161668  11.456   9.405   2.887
19943SOL    HW261669  11.463   9.270   2.819
19944SOL     OW61670   9.426   1.445   7.287
19944SOL    HW161671   9.371   1.518   7.259
19944SOL    HW261672   9.510   1.459   7.245
19945SOL     OW61673  12.346   4.965  13.714
19945SOL    HW161674  12.282   4.987  13.781
19945SOL    HW261675  12.419   4.925  13.762
19946SOL     OW61676   0.943   4.416   3.679
19946SOL    HW161677   0.928   4.364   3.758
19946SOL    HW261678   0.981   4.355   3.616
19947SOL     OW61679   9.348  12.824   5.670
19947SOL    HW161680   9.263  12.829   5.714
19947SOL    HW261681   9.395  12.756   5.717
19948SOL     OW61682  14.787   8.374  14.779
19948SOL    HW161683  14.721   8.318  14.738
19948SOL    HW261684  14.870   8.329  14.763
19949SOL     OW61685   5.903   2.720   9.309
19949SOL    HW161686   5.869   2.809   9.304
19949SOL    HW261687   5.970   2.715   9.241
19950SOL     OW61688   1.795  13.946   4.130
19950SOL    HW161689   1.745  13.972   4.052
19950SOL    HW261690   1.869  13.896   4.095
19951SOL     OW61691   9.493   1.207   7.778
19951SOL    HW161692   9.521   1.294   7.753
19951SOL    HW261693   9.568   1.169   7.823
19952SOL     OW61694   9.279   3.620   5.088
19952SOL    HW161695   9.291   3.712   5.068
19952SOL    HW261696   9.311   3.610   5.177
19953SOL     OW61697  11.737   0.298  14.050
19953SOL    HW161698  11.646   0.308  14.022
19953SOL    HW261699  11.786   0.355  13.990
19954SOL     OW61700   3.490  13.285   5.769
19954SOL    HW161701   3.534  13.364   5.739
19954SOL    HW261702   3.548  13.214   5.742
19955SOL     OW61703   9.873  12.627  14.345
19955SOL    HW161704   9.805  12.610  14.279
19955SOL    HW261705   9.887  12.721  14.341
19956SOL     OW61706   2.172   5.882  10.850
19956SOL    HW161707   2.201   5.797  10.816
19956SOL    HW261708   2.110   5.914  10.784
19957SOL     OW61709  12.527   3.018   8.426
19957SOL    HW161710  12.576   3.096   8.449
19957SOL    HW261711  12.569   2.947   8.475
19958SOL     OW61712   2.109   4.841   1.186
19958SOL    HW161713   2.088   4.899   1.113
19958SOL    HW261714   2.026   4.795   1.204
19959SOL     OW61715  13.011   6.758   2.188
19959SOL    HW161716  13.052   6.836   2.224
19959SOL    HW261717  12.931   6.746   2.240
19960SOL     OW61718   0.376   8.466   9.062
19960SOL    HW161719   0.362   8.520   9.139
19960SOL    HW261720   0.299   8.410   9.057
19961SOL     OW61721   0.177  10.965  13.531
19961SOL    HW161722   0.252  10.911  13.504
19961SOL    HW261723   0.216  11.049  13.555
19962SOL     OW61724   8.162   7.827   5.980
19962SOL    HW161725   8.239   7.833   6.037
19962SOL    HW261726   8.152   7.915   5.944
19963SOL     OW61727   7.987   6.456   9.680
19963SOL    HW161728   7.900   6.485   9.651
19963SOL    HW261729   8.048   6.507   9.626
19964SOL     OW61730   3.592  13.156   3.268
19964SOL    HW161731   3.650  13.097   3.317
19964SOL    HW261732   3.630  13.161   3.181
19965SOL     OW61733   2.306   4.291   7.032
19965SOL    HW161734   2.384   4.316   7.082
19965SOL    HW261735   2.260   4.228   7.088
19966SOL     OW61736   5.190   5.609  12.767
19966SOL    HW161737   5.285   5.604  12.751
19966SOL    HW261738   5.182   5.616  12.862
19967SOL     OW61739   3.146   1.926   3.459
19967SOL    HW161740   3.132   1.858   3.393
19967SOL    HW261741   3.193   1.881   3.529
19968SOL     OW61742   4.705   3.258  12.764
19968SOL    HW161743   4.666   3.270  12.851
19968SOL    HW261744   4.700   3.164  12.748
19969SOL     OW61745   0.947   5.244  11.192
19969SOL    HW161746   1.027   5.213  11.235
19969SOL    HW261747   0.893   5.277  11.264
19970SOL     OW61748  12.308   1.375  12.509
19970SOL    HW161749  12.391   1.379  12.462
19970SOL    HW261750  12.326   1.415  12.594
19971SOL     OW61751   0.358   4.084   3.018
19971SOL    HW161752   0.343   4.177   3.031
19971SOL    HW261753   0.394   4.053   3.102
19972SOL     OW61754  14.670   8.551   8.608
19972SOL    HW161755  14.578   8.528   8.621
19972SOL    HW261756  14.708   8.474   8.565
19973SOL     OW61757  14.715  13.436   2.960
19973SOL    HW161758  14.681  13.467   2.877
19973SOL    HW261759  14.785  13.497   2.982
19974SOL     OW61760   5.834  11.347   3.792
19974SOL    HW161761   5.794  11.280   3.848
19974SOL    HW261762   5.858  11.417   3.852
19975SOL     OW61763   8.496   1.390   9.991
19975SOL    HW161764   8.452   1.466   9.954
19975SOL    HW261765   8.458   1.315   9.944
19976SOL     OW61766   4.970   3.110   2.280
19976SOL    HW161767   4.927   3.187   2.316
19976SOL    HW261768   4.995   3.136   2.191
19977SOL     OW61769   2.173   6.747  10.771
19977SOL    HW161770   2.093   6.781  10.810
19977SOL    HW261771   2.143   6.690  10.700
19978SOL     OW61772   8.847  11.196   0.510
19978SOL    HW161773   8.823  11.113   0.552
19978SOL    HW261774   8.807  11.192   0.424
19979SOL     OW61775  13.597  10.570  12.379
19979SOL    HW161776  13.570  10.532  12.296
19979SOL    HW261777  13.638  10.654  12.355
19980SOL     OW61778  10.904  11.465   4.904
19980SOL    HW161779  10.910  11.452   4.998
19980SOL    HW261780  10.820  11.509   4.890
19981SOL     OW61781   4.766  12.713   2.214
19981SOL    HW161782   4.841  12.761   2.178
19981SOL    HW261783   4.690  12.756   2.175
19982SOL     OW61784   0.750  10.135   3.255
19982SOL    HW161785   0.747  10.112   3.348
19982SOL    HW261786   0.739  10.051   3.209
19983SOL     OW61787   9.476  13.907   0.325
19983SOL    HW161788   9.547  13.968   0.345
19983SOL    HW261789   9.430  13.896   0.408
19984SOL     OW61790   1.406  10.494  12.319
19984SOL    HW161791   1.449  10.514  12.235
19984SOL    HW261792   1.470  10.519  12.385
19985SOL     OW61793   3.247   8.044   9.258
19985SOL    HW161794   3.271   8.117   9.201
19985SOL    HW261795   3.241   8.083   9.346
19986SOL     OW61796   2.374  11.479   3.472
19986SOL    HW161797   2.284  11.507   3.454
19986SOL    HW261798   2.428  11.544   3.427
19987SOL     OW61799  13.179   4.234  11.622
19987SOL    HW161800  13.147   4.171  11.558
19987SOL    HW261801  13.274   4.219  11.625
19988SOL     OW61802  13.344   1.126   7.033
19988SOL    HW161803  13.372   1.128   6.942
19988SOL    HW261804  13.267   1.068   7.033
19989SOL     OW61805   0.369   7.123  10.918
19989SOL    HW161806   0.370   7.041  10.870
19989SOL    HW261807   0.434   7.111  10.987
19990SOL     OW61808   3.249   0.735   5.056
19990SOL    HW161809   3.236   0.646   5.089
19990SOL    HW261810   3.160   0.767   5.039
19991SOL     OW61811   0.112   1.340   4.626
19991SOL    HW161812   0.119   1.337   4.721
19991SOL    HW261813   0.202   1.353   4.595
19992SOL     OW61814   9.342   2.295   0.209
19992SOL    HW161815   9.398   2.231   0.166
19992SOL    HW261816   9.358   2.377   0.162
19993SOL     OW61817   7.793   9.256   1.663
19993SOL    HW161818   7.886   9.248   1.644
19993SOL    HW261819   7.781   9.213   1.748
19994SOL     OW61820   0.261  13.700   3.011
19994SOL    HW161821   0.343  13.748   3.003
19994SOL    HW261822   0.271  13.649   3.091
19995SOL     OW61823   6.088   7.222   1.750
19995SOL    HW161824   6.116   7.312   1.768
19995SOL    HW261825   6.154   7.168   1.793
19996SOL     OW61826   5.530  13.538  14.762
19996SOL    HW161827   5.577  13.562  14.842
19996SOL    HW261828   5.588  13.477  14.717
19997SOL     OW61829   3.252  12.560   5.719
19997SOL    HW161830   3.283  12.543   5.808
19997SOL    HW261831   3.176  12.502   5.709
19998SOL     OW61832   6.350  13.610   6.728
19998SOL    HW161833   6.289  13.673   6.766
19998SOL    HW261834   6.388  13.657   6.653
19999SOL     OW61835   6.324   4.035  13.334
19999SOL    HW161836   6.259   4.096  13.299
19999SOL    HW261837   6.324   4.052  13.428
20000SOL     OW61838   5.072  14.844   1.626
20000SOL    HW161839   5.078  14.749   1.634
20000SOL    HW261840   5.014  14.871   1.697
20001SOL     OW61841   3.478   8.396   0.817
20001SOL    HW161842   3.409   8.412   0.882
20001SOL    HW261843   3.442   8.431   0.735
20002SOL     OW61844   5.800   8.074  12.084
20002SOL    HW161845   5.719   8.047  12.040
20002SOL    HW261846   5.771   8.118  12.164
20003SOL     OW61847   4.960   9.255   4.479
20003SOL    HW161848   4.923   9.277   4.565
20003SOL    HW261849   5.051   9.233   4.498
20004SOL     OW61850  11.758   1.185  13.434
20004SOL    HW161851  11.708   1.170  13.354
20004SOL    HW261852  11.705   1.145  13.504
20005SOL     OW61853   7.140   2.378  11.663
20005SOL    HW161854   7.136   2.437  11.588
20005SOL    HW261855   7.197   2.423  11.726
20006SOL     OW61856   7.191   2.728  13.890
20006SOL    HW161857   7.126   2.764  13.950
20006SOL    HW261858   7.237   2.805  13.856
20007SOL     OW61859   8.798  12.118  14.269
20007SOL    HW161860   8.804  12.170  14.349
20007SOL    HW261861   8.719  12.150  14.225
20008SOL     OW61862   9.827   6.291   9.277
20008SOL    HW161863   9.835   6.329   9.364
20008SOL    HW261864   9.777   6.211   9.290
20009SOL     OW61865  10.138  11.194  11.165
20009SOL    HW161866  10.106  11.187  11.075
20009SOL    HW261867  10.220  11.146  11.166
20010SOL     OW61868  10.607   4.374   0.595
20010SOL    HW161869  10.621   4.424   0.675
20010SOL    HW261870  10.520   4.337   0.605
20011SOL     OW61871  11.779  11.510  13.063
20011SOL    HW161872  11.737  11.467  12.988
20011SOL    HW261873  11.767  11.449  13.136
20012SOL     OW61874   0.614  10.904   6.721
20012SOL    HW161875   0.605  10.856   6.803
20012SOL    HW261876   0.527  10.942   6.706
20013SOL     OW61877  10.693   8.626  13.725
20013SOL    HW161878  10.617   8.570  13.744
20013SOL    HW261879  10.685   8.698  13.788
20014SOL     OW61880  12.926   5.262   6.596
20014SOL    HW161881  12.932   5.227   6.507
20014SOL    HW261882  12.833   5.280   6.608
20015SOL     OW61883  14.128   2.695   0.441
20015SOL    HW161884  14.201   2.756   0.456
20015SOL    HW261885  14.167   2.608   0.449
20016SOL     OW61886   3.935   7.163   0.772
20016SOL    HW161887   3.963   7.086   0.722
20016SOL    HW261888   3.847   7.183   0.738
20017SOL     OW61889   5.131  11.056   1.331
20017SOL    HW161890   5.176  10.972   1.322
20017SOL    HW261891   5.163  11.091   1.414
20018SOL     OW61892   1.014   9.991   2.175
20018SOL    HW161893   0.948   9.923   2.189
20018SOL    HW261894   0.964  10.073   2.177
20019SOL     OW61895  12.983   0.072   1.880
20019SOL    HW161896  12.894   0.052   1.908
20019SOL    HW261897  12.973   0.108   1.792
20020SOL     OW61898   3.671  11.187  12.097
20020SOL    HW161899   3.622  11.238  12.032
20020SOL    HW261900   3.761  11.189  12.064
20021SOL     OW61901   1.246  12.129   8.711
20021SOL    HW161902   1.274  12.086   8.630
20021SOL    HW261903   1.228  12.220   8.684
20022SOL     OW61904  12.313   9.058   9.467
20022SOL    HW161905  12.306   9.010   9.550
20022SOL    HW261906  12.227   9.048   9.427
20023SOL     OW61907   0.261  10.451   0.472
20023SOL    HW161908   0.183  10.488   0.429
20023SOL    HW261909   0.249  10.356   0.465
20024SOL     OW61910  10.269   6.483   4.988
20024SOL    HW161911  10.179   6.464   5.015
20024SOL    HW261912  10.287   6.569   5.025
20025SOL     OW61913   0.568  12.848   3.037
20025SOL    HW161914   0.538  12.766   2.998
20025SOL    HW261915   0.649  12.868   2.990
20026SOL     OW61916   2.297   0.575  10.617
20026SOL    HW161917   2.239   0.648  10.637
20026SOL    HW261918   2.238   0.500  10.607
20027SOL     OW61919   7.335   7.293   6.452
20027SOL    HW161920   7.391   7.310   6.376
20027SOL    HW261921   7.392   7.311   6.528
20028SOL     OW61922   1.596   4.129   8.936
20028SOL    HW161923   1.510   4.090   8.951
20028SOL    HW261924   1.656   4.072   8.985
20029SOL     OW61925   8.443  14.064   9.750
20029SOL    HW161926   8.478  14.135   9.803
20029SOL    HW261927   8.379  14.021   9.806
20030SOL     OW61928  14.582  14.741   0.756
20030SOL    HW161929  14.655  14.774   0.704
20030SOL    HW261930  14.621  14.715   0.839
20031SOL     OW61931  13.641  13.372   4.644
20031SOL    HW161932  13.640  13.352   4.551
20031SOL    HW261933  13.603  13.295   4.686
20032SOL     OW61934  12.995   6.229   9.341
20032SOL    HW161935  12.935   6.155   9.340
20032SOL    HW261936  12.957   6.290   9.405
20033SOL     OW61937  11.782   9.961   8.377
20033SOL    HW161938  11.825   9.887   8.420
20033SOL    HW261939  11.844  10.034   8.388
20034SOL     OW61940   1.625  14.268   3.855
20034SOL    HW161941   1.629  14.174   3.876
20034SOL    HW261942   1.642  14.312   3.938
20035SOL     OW61943  12.815   9.747   3.784
20035SOL    HW161944  12.902   9.708   3.771
20035SOL    HW261945  12.770   9.686   3.843
20036SOL     OW61946  12.950   8.386   5.523
20036SOL    HW161947  12.882   8.347   5.468
20036SOL    HW261948  13.029   8.386   5.468
20037SOL     OW61949   9.852  11.465  14.521
20037SOL    HW161950   9.919  11.505  14.465
20037SOL    HW261951   9.774  11.518  14.506
20038SOL     OW61952   4.499   6.559   7.168
20038SOL    HW161953   4.575   6.526   7.120
20038SOL    HW261954   4.474   6.487   7.226
20039SOL     OW61955   8.500   4.053   0.889
20039SOL    HW161956   8.410   4.067   0.860
20039SOL    HW261957   8.511   4.113   0.963
20040SOL     OW61958   4.831  13.260   3.787
20040SOL    HW161959   4.812  13.277   3.879
20040SOL    HW261960   4.887  13.334   3.761
20041SOL     OW61961   1.629   4.032  14.330
20041SOL    HW161962   1.568   4.043  14.257
20041SOL    HW261963   1.601   3.952  14.373
20042SOL     OW61964  10.100   2.920  10.342
20042SOL    HW161965  10.168   2.867  10.384
20042SOL    HW261966  10.109   3.006  10.383
20043SOL     OW61967   9.962  12.769   8.565
20043SOL    HW161968  10.031  12.773   8.631
20043SOL    HW261969   9.955  12.675   8.545
20044SOL     OW61970   9.455   4.809   8.994
20044SOL    HW161971   9.367   4.846   9.008
20044SOL    HW261972   9.512   4.861   9.051
20045SOL     OW61973   2.570   4.018  12.674
20045SOL    HW161974   2.633   3.947  12.661
20045SOL    HW261975   2.548   4.013  12.767
20046SOL     OW61976   8.199  14.187  12.138
20046SOL    HW161977   8.288  14.212  12.162
20046SOL    HW261978   8.146  14.210  12.214
20047SOL     OW61979   8.244  10.471  10.325
20047SOL    HW161980   8.245  10.501  10.416
20047SOL    HW261981   8.216  10.380  10.330
20048SOL     OW61982   7.267   9.914   5.081
20048SOL    HW161983   7.221   9.982   5.131
20048SOL    HW261984   7.337   9.885   5.139
20049SOL     OW61985  10.034   9.380  13.989
20049SOL    HW161986   9.959   9.382  13.930
20049SOL    HW261987  10.044   9.471  14.017
20050SOL     OW61988   8.504  14.221   8.129
20050SOL    HW161989   8.580  14.205   8.184
20050SOL    HW261990   8.451  14.285   8.178
20051SOL     OW61991   2.259   8.697   7.984
20051SOL    HW161992   2.283   8.623   7.927
20051SOL    HW261993   2.326   8.763   7.966
20052SOL     OW61994   2.462  12.690  12.609
20052SOL    HW161995   2.557  12.677  12.602
20052SOL    HW261996   2.430  12.678  12.520
20053SOL     OW61997  12.644   3.443   8.866
20053SOL    HW161998  12.567   3.403   8.906
20053SOL    HW261999  12.706   3.370   8.856
20054SOL     OW62000  14.046   5.928  10.424
20054SOL    HW162001  13.968   5.966  10.464
20054SOL    HW262002  14.117   5.986  10.452
20055SOL     OW62003   7.210  14.209   9.857
20055SOL    HW162004   7.148  14.263   9.906
20055SOL    HW262005   7.275  14.183   9.922
20056SOL     OW62006   5.941   6.005   2.612
20056SOL    HW162007   5.847   6.012   2.633
20056SOL    HW262008   5.944   5.962   2.527
20057SOL     OW62009   7.114  10.229  12.779
20057SOL    HW162010   7.043  10.275  12.824
20057SOL    HW262011   7.190  10.286  12.790
20058SOL     OW62012  10.519   7.635   0.013
20058SOL    HW162013  10.476   7.689   0.079
20058SOL    HW262014  10.526   7.692  14.816
20059SOL     OW62015  11.943   3.944   9.328
20059SOL    HW162016  11.922   3.871   9.386
20059SOL    HW262017  12.007   3.996   9.378
20060SOL     OW62018   9.035  13.688  11.823
20060SOL    HW162019   8.948  13.668  11.789
20060SOL    HW262020   9.018  13.736  11.905
20061SOL     OW62021   7.029  14.688   6.311
20061SOL    HW162022   6.934  14.683   6.298
20061SOL    HW262023   7.063  14.721   6.228
20062SOL     OW62024   8.794   7.205   7.342
20062SOL    HW162025   8.735   7.142   7.300
20062SOL    HW262026   8.824   7.160   7.421
20063SOL     OW62027  12.927   0.320  12.084
20063SOL    HW162028  12.878   0.347  12.162
20063SOL    HW262029  12.904   0.385  12.018
20064SOL     OW62030  13.980   5.207  10.785
20064SOL    HW162031  14.042   5.204  10.711
20064SOL    HW262032  14.032   5.178  10.860
20065SOL     OW62033  10.855   7.518  13.879
20065SOL    HW162034  10.827   7.468  13.802
20065SOL    HW262035  10.840   7.609  13.854
20066SOL     OW62036  12.831  11.591   7.231
20066SOL    HW162037  12.738  11.603   7.213
20066SOL    HW262038  12.836  11.511   7.282
20067SOL     OW62039   1.460   4.319   7.939
20067SOL    HW162040   1.444   4.266   8.018
20067SOL    HW262041   1.424   4.405   7.961
20068SOL     OW62042   2.936   1.033   0.215
20068SOL    HW162043   2.958   0.941   0.230
20068SOL    HW262044   3.021   1.077   0.207
20069SOL     OW62045   6.271  10.417   7.442
20069SOL    HW162046   6.306  10.477   7.376
20069SOL    HW262047   6.341  10.410   7.507
20070SOL     OW62048   9.559   6.898   9.717
20070SOL    HW162049   9.624   6.859   9.775
20070SOL    HW262050   9.599   6.894   9.630
20071SOL     OW62051   4.223   2.713  13.651
20071SOL    HW162052   4.230   2.809  13.657
20071SOL    HW262053   4.284   2.690  13.581
20072SOL     OW62054   4.422  11.696   8.229
20072SOL    HW162055   4.426  11.784   8.193
20072SOL    HW262056   4.460  11.640   8.161
20073SOL     OW62057  10.188  13.292  13.993
20073SOL    HW162058  10.180  13.285  13.898
20073SOL    HW262059  10.245  13.218  14.018
20074SOL     OW62060   7.980   0.874   7.580
20074SOL    HW162061   7.918   0.905   7.513
20074SOL    HW262062   7.997   0.951   7.634
20075SOL     OW62063   4.696  12.351   1.076
20075SOL    HW162064   4.682  12.279   1.138
20075SOL    HW262065   4.626  12.413   1.094
20076SOL     OW62066   7.401   0.675  14.467
20076SOL    HW162067   7.401   0.611  14.396
20076SOL    HW262068   7.311   0.678  14.497
20077SOL     OW62069   2.810   5.376   5.774
20077SOL    HW162070   2.776   5.292   5.803
20077SOL    HW262071   2.747   5.440   5.809
20078SOL     OW62072   3.472  13.444   3.096
20078SOL    HW162073   3.458  13.350   3.096
20078SOL    HW262074   3.545  13.457   3.035
20079SOL     OW62075   0.973   9.493   2.697
20079SOL    HW162076   0.901   9.523   2.752
20079SOL    HW262077   1.050   9.493   2.754
20080SOL     OW62078   5.831  13.911   9.380
20080SOL    HW162079   5.884  13.966   9.322
20080SOL    HW262080   5.887  13.836   9.399
20081SOL     OW62081  10.865   5.873   5.319
20081SOL    HW162082  10.834   5.791   5.359
20081SOL    HW262083  10.887   5.849   5.229
20082SOL     OW62084   9.625   6.513   2.499
20082SOL    HW162085   9.628   6.572   2.574
20082SOL    HW262086   9.667   6.433   2.530
20083SOL     OW62087   7.420   0.799   6.415
20083SOL    HW162088   7.367   0.720   6.411
20083SOL    HW262089   7.384   0.856   6.347
20084SOL     OW62090   2.454   4.153   3.821
20084SOL    HW162091   2.534   4.134   3.773
20084SOL    HW262092   2.425   4.069   3.856
20085SOL     OW62093   9.239  13.434   0.645
20085SOL    HW162094   9.174  13.499   0.670
20085SOL    HW262095   9.216  13.356   0.696
20086SOL     OW62096   9.637  12.688  10.380
20086SOL    HW162097   9.564  12.640  10.418
20086SOL    HW262098   9.647  12.651  10.293
20087SOL     OW62099   5.718   8.836   6.087
20087SOL    HW162100   5.807   8.870   6.079
20087SOL    HW262101   5.727   8.756   6.139
20088SOL     OW62102  13.773   3.487   0.388
20088SOL    HW162103  13.861   3.487   0.427
20088SOL    HW262104  13.739   3.575   0.408
20089SOL     OW62105   3.765   9.518  12.162
20089SOL    HW162106   3.814   9.583  12.112
20089SOL    HW262107   3.830   9.477  12.218
20090SOL     OW62108   2.149   2.159   8.762
20090SOL    HW162109   2.143   2.224   8.692
20090SOL    HW262110   2.236   2.122   8.753
20091SOL     OW62111   1.566   8.683   3.040
20091SOL    HW162112   1.524   8.695   3.125
20091SOL    HW262113   1.539   8.595   3.012
20092SOL     OW62114   5.092   9.486  12.782
20092SOL    HW162115   5.026   9.434  12.826
20092SOL    HW262116   5.149   9.422  12.740
20093SOL     OW62117   6.816  13.487   2.326
20093SOL    HW162118   6.833  13.564   2.381
20093SOL    HW262119   6.900  13.443   2.320
20094SOL     OW62120   7.946   2.047   7.708
20094SOL    HW162121   7.974   1.955   7.705
20094SOL    HW262122   7.889   2.056   7.631
20095SOL     OW62123   0.252   6.693   3.942
20095SOL    HW162124   0.186   6.718   3.878
20095SOL    HW262125   0.201   6.654   4.014
20096SOL     OW62126   5.358   8.215   8.301
20096SOL    HW162127   5.346   8.241   8.210
20096SOL    HW262128   5.453   8.221   8.315
20097SOL     OW62129   0.891   0.947   8.731
20097SOL    HW162130   0.816   0.905   8.772
20097SOL    HW262131   0.962   0.883   8.737
20098SOL     OW62132  14.514   2.130  14.592
20098SOL    HW162133  14.505   2.121  14.687
20098SOL    HW262134  14.432   2.172  14.564
20099SOL     OW62135   7.450   7.132   1.634
20099SOL    HW162136   7.461   7.059   1.694
20099SOL    HW262137   7.376   7.107   1.578
20100SOL     OW62138   5.580  11.504   8.330
20100SOL    HW162139   5.486  11.504   8.351
20100SOL    HW262140   5.594  11.586   8.282
20101SOL     OW62141   6.637   6.166   3.277
20101SOL    HW162142   6.699   6.238   3.266
20101SOL    HW262143   6.559   6.206   3.315
20102SOL     OW62144   2.208   5.894   0.086
20102SOL    HW162145   2.176   5.867   0.172
20102SOL    HW262146   2.199   5.816   0.031
20103SOL     OW62147   2.934  10.982   0.156
20103SOL    HW162148   3.014  10.930   0.164
20103SOL    HW262149   2.882  10.958   0.233
20104SOL     OW62150  14.044   1.916   2.563
20104SOL    HW162151  14.129   1.945   2.530
20104SOL    HW262152  14.059   1.900   2.656
20105SOL     OW62153  13.561  13.269   8.458
20105SOL    HW162154  13.598  13.193   8.414
20105SOL    HW262155  13.630  13.336   8.451
20106SOL     OW62156   4.596   5.303   4.100
20106SOL    HW162157   4.514   5.255   4.102
20106SOL    HW262158   4.652   5.254   4.040
20107SOL     OW62159   7.866  14.613   2.276
20107SOL    HW162160   7.797  14.657   2.326
20107SOL    HW262161   7.934  14.679   2.266
20108SOL     OW62162  13.545   5.091   8.132
20108SOL    HW162163  13.628   5.101   8.178
20108SOL    HW262164  13.549   5.003   8.094
20109SOL     OW62165   6.556   2.157   7.682
20109SOL    HW162166   6.614   2.150   7.607
20109SOL    HW262167   6.474   2.117   7.653
20110SOL     OW62168   3.333   1.305   4.569
20110SOL    HW162169   3.276   1.301   4.493
20110SOL    HW262170   3.389   1.228   4.561
20111SOL     OW62171   0.726   8.347   9.486
20111SOL    HW162172   0.731   8.252   9.478
20111SOL    HW262173   0.663   8.374   9.419
20112SOL     OW62174   9.846  13.737   5.863
20112SOL    HW162175   9.778  13.784   5.815
20112SOL    HW262176   9.847  13.650   5.824
20113SOL     OW62177   4.726  14.441   1.348
20113SOL    HW162178   4.738  14.353   1.314
20113SOL    HW262179   4.662  14.481   1.290
20114SOL     OW62180   6.979  13.902   0.113
20114SOL    HW162181   6.967  13.966   0.183
20114SOL    HW262182   6.965  13.817   0.156
20115SOL     OW62183   3.944   4.852   4.981
20115SOL    HW162184   3.876   4.915   4.960
20115SOL    HW262185   4.025   4.904   4.984
20116SOL     OW62186   3.379   1.729  13.516
20116SOL    HW162187   3.336   1.806  13.479
20116SOL    HW262188   3.416   1.759  13.599
20117SOL     OW62189   7.894   6.531   3.799
20117SOL    HW162190   7.960   6.487   3.747
20117SOL    HW262191   7.836   6.461   3.830
20118SOL     OW62192   9.242   9.216   2.229
20118SOL    HW162193   9.150   9.221   2.206
20118SOL    HW262194   9.286   9.275   2.167
20119SOL     OW62195   2.136   8.235  11.789
20119SOL    HW162196   2.157   8.263  11.879
20119SOL    HW262197   2.073   8.300  11.758
20120SOL     OW62198   9.194   5.870   1.434
20120SOL    HW162199   9.281   5.849   1.469
20120SOL    HW262200   9.137   5.875   1.511
20121SOL     OW62201   7.889   2.857   1.127
20121SOL    HW162202   7.860   2.767   1.142
20121SOL    HW262203   7.977   2.848   1.090
20122SOL     OW62204   4.642   1.752   4.211
20122SOL    HW162205   4.691   1.727   4.289
20122SOL    HW262206   4.703   1.738   4.139
20123SOL     OW62207   2.847   0.432   2.129
20123SOL    HW162208   2.751   0.425   2.131
20123SOL    HW262209   2.877   0.354   2.176
20124SOL     OW62210  13.890   4.663   9.091
20124SOL    HW162211  13.837   4.707   9.157
20124SOL    HW262212  13.845   4.680   9.009
20125SOL     OW62213   7.372   5.610  11.236
20125SOL    HW162214   7.278   5.628  11.241
20125SOL    HW262215   7.386   5.580  11.146
20126SOL     OW62216  14.385   4.361  11.047
20126SOL    HW162217  14.459   4.306  11.073
20126SOL    HW262218  14.402   4.382  10.955
20127SOL     OW62219  10.118  13.542   7.356
20127SOL    HW162220  10.170  13.619   7.332
20127SOL    HW262221  10.132  13.481   7.284
20128SOL     OW62222   9.295   6.650   5.037
20128SOL    HW162223   9.252   6.735   5.028
20128SOL    HW262224   9.388   6.669   5.024
20129SOL     OW62225   0.330   0.232   7.489
20129SOL    HW162226   0.293   0.319   7.503
20129SOL    HW262227   0.367   0.236   7.401
20130SOL     OW62228  11.035   5.092   6.948
20130SOL    HW162229  11.050   5.115   6.857
20130SOL    HW262230  11.019   5.175   6.992
20131SOL     OW62231   5.674  11.379   1.293
20131SOL    HW162232   5.653  11.462   1.336
20131SOL    HW262233   5.631  11.312   1.346
20132SOL     OW62234   2.649   5.589   9.653
20132SOL    HW162235   2.739   5.622   9.663
20132SOL    HW262236   2.594   5.662   9.683
20133SOL     OW62237   9.651   9.486  10.340
20133SOL    HW162238   9.658   9.534  10.257
20133SOL    HW262239   9.660   9.394  10.316
20134SOL     OW62240  10.080   0.182   9.459
20134SOL    HW162241   9.990   0.167   9.488
20134SOL    HW262242  10.085   0.143   9.372
20135SOL     OW62243  11.260  10.908   9.261
20135SOL    HW162244  11.168  10.903   9.233
20135SOL    HW262245  11.255  10.916   9.356
20136SOL     OW62246   1.388  12.203  12.716
20136SOL    HW162247   1.296  12.229  12.716
20136SOL    HW262248   1.400  12.156  12.633
20137SOL     OW62249   5.972   2.844  10.402
20137SOL    HW162250   5.901   2.853  10.466
20137SOL    HW262251   5.997   2.934  10.381
20138SOL     OW62252   3.917   5.248   2.825
20138SOL    HW162253   3.824   5.245   2.844
20138SOL    HW262254   3.927   5.317   2.759
20139SOL     OW62255  13.449  12.699   4.342
20139SOL    HW162256  13.362  12.735   4.352
20139SOL    HW262257  13.437  12.619   4.290
20140SOL     OW62258  11.688  10.620  11.383
20140SOL    HW162259  11.632  10.692  11.353
20140SOL    HW262260  11.777  10.654  11.376
20141SOL     OW62261   7.319  11.403  13.850
20141SOL    HW162262   7.261  11.347  13.901
20141SOL    HW262263   7.389  11.427  13.911
20142SOL     OW62264   9.595  12.627   2.595
20142SOL    HW162265   9.526  12.614   2.660
20142SOL    HW262266   9.553  12.609   2.511
20143SOL     OW62267  14.812  14.376   4.960
20143SOL    HW162268  14.815  14.284   4.936
20143SOL    HW262269  14.739  14.382   5.022
20144SOL     OW62270   7.160   3.552  13.769
20144SOL    HW162271   7.188   3.498  13.696
20144SOL    HW262272   7.075   3.515  13.795
20145SOL     OW62273   6.125   6.761   3.821
20145SOL    HW162274   6.120   6.808   3.904
20145SOL    HW262275   6.066   6.808   3.763
20146SOL     OW62276  13.052  13.686   6.594
20146SOL    HW162277  13.061  13.592   6.578
20146SOL    HW262278  12.967  13.694   6.637
20147SOL     OW62279  11.256   8.675   0.867
20147SOL    HW162280  11.235   8.746   0.806
20147SOL    HW262281  11.284   8.720   0.947
20148SOL     OW62282  11.497   4.882   5.404
20148SOL    HW162283  11.468   4.801   5.362
20148SOL    HW262284  11.416   4.928   5.427
20149SOL     OW62285   7.453  13.130  13.122
20149SOL    HW162286   7.419  13.041  13.132
20149SOL    HW262287   7.544  13.124  13.153
20150SOL     OW62288   2.163   3.336   9.212
20150SOL    HW162289   2.209   3.346   9.295
20150SOL    HW262290   2.074   3.366   9.229
20151SOL     OW62291   9.560   9.633  13.513
20151SOL    HW162292   9.504   9.680  13.575
20151SOL    HW262293   9.562   9.690  13.436
20152SOL     OW62294   1.214   6.970   3.362
20152SOL    HW162295   1.150   7.000   3.296
20152SOL    HW262296   1.205   6.875   3.363
20153SOL     OW62297   5.341  14.563  11.889
20153SOL    HW162298   5.307  14.540  11.803
20153SOL    HW262299   5.284  14.517  11.950
20154SOL     OW62300   9.389  11.819   8.643
20154SOL    HW162301   9.436  11.840   8.562
20154SOL    HW262302   9.370  11.904   8.682
20155SOL     OW62303  13.381   7.358   8.631
20155SOL    HW162304  13.471   7.336   8.606
20155SOL    HW262305  13.328   7.331   8.556
20156SOL     OW62306   0.138   6.515   1.128
20156SOL    HW162307   0.071   6.583   1.122
20156SOL    HW262308   0.204   6.551   1.187
20157SOL     OW62309  13.324   4.266  11.250
20157SOL    HW162310  13.377   4.188  11.263
20157SOL    HW262311  13.340   4.292  11.160
20158SOL     OW62312   5.828   1.021   3.854
20158SOL    HW162313   5.782   0.945   3.890
20158SOL    HW262314   5.839   1.001   3.761
20159SOL     OW62315  13.771   1.025  10.696
20159SOL    HW162316  13.818   0.957  10.744
20159SOL    HW262317  13.786   1.105  10.747
20160SOL     OW62318  10.485  10.381   0.183
20160SOL    HW162319  10.451  10.469   0.199
20160SOL    HW262320  10.565  10.395   0.133
20161SOL     OW62321   4.994   2.374  11.491
20161SOL    HW162322   4.961   2.434  11.424
20161SOL    HW262323   5.054   2.427  11.544
20162SOL     OW62324   9.382   4.478  11.101
20162SOL    HW162325   9.450   4.423  11.138
20162SOL    HW262326   9.428   4.541  11.046
20163SOL     OW62327   3.224   9.774   5.367
20163SOL    HW162328   3.190   9.685   5.379
20163SOL    HW262329   3.296   9.763   5.305
20164SOL     OW62330   1.894   2.320  14.236
20164SOL    HW162331   1.804   2.344  14.216
20164SOL    HW262332   1.946   2.395  14.207
20165SOL     OW62333  14.256  13.960   8.121
20165SOL    HW162334  14.252  13.909   8.040
20165SOL    HW262335  14.251  13.895   8.191
20166SOL     OW62336   9.054   1.384   0.528
20166SOL    HW162337   9.048   1.289   0.533
20166SOL    HW262338   8.963   1.414   0.535
20167SOL     OW62339   8.441  10.092   9.403
20167SOL    HW162340   8.509  10.156   9.426
20167SOL    HW262341   8.370  10.111   9.464
20168SOL     OW62342   9.136   3.054   3.450
20168SOL    HW162343   9.205   3.099   3.401
20168SOL    HW262344   9.096   2.995   3.387
20169SOL     OW62345   2.174   0.282  12.306
20169SOL    HW162346   2.250   0.305  12.360
20169SOL    HW262347   2.198   0.198  12.266
20170SOL     OW62348  10.444   3.212   3.020
20170SOL    HW162349  10.397   3.238   3.099
20170SOL    HW262350  10.536   3.206   3.047
20171SOL     OW62351   1.907   1.906  14.717
20171SOL    HW162352   1.892   1.825  14.669
20171SOL    HW262353   1.819   1.939  14.736
20172SOL     OW62354   5.198   0.375   8.896
20172SOL    HW162355   5.167   0.435   8.964
20172SOL    HW262356   5.279   0.414   8.864
20173SOL     OW62357   1.739   4.410  12.150
20173SOL    HW162358   1.671   4.454  12.098
20173SOL    HW262359   1.746   4.323  12.111
20174SOL     OW62360   0.284   5.965  11.061
20174SOL    HW162361   0.327   5.908  10.998
20174SOL    HW262362   0.192   5.939  11.060
20175SOL     OW62363  14.214   3.513   7.801
20175SOL    HW162364  14.160   3.579   7.844
20175SOL    HW262365  14.286   3.498   7.863
20176SOL     OW62366   6.771   4.728   3.715
20176SOL    HW162367   6.815   4.673   3.650
20176SOL    HW262368   6.750   4.808   3.668
20177SOL     OW62369   2.903  12.544  12.918
20177SOL    HW162370   2.968  12.492  12.966
20177SOL    HW262371   2.914  12.633  12.954
20178SOL     OW62372   2.793  12.600  10.740
20178SOL    HW162373   2.775  12.580  10.648
20178SOL    HW262374   2.886  12.621  10.743
20179SOL     OW62375  13.204   4.419  12.665
20179SOL    HW162376  13.199   4.496  12.721
20179SOL    HW262377  13.276   4.438  12.604
20180SOL     OW62378   8.811   4.837   2.217
20180SOL    HW162379   8.788   4.760   2.164
20180SOL    HW262380   8.902   4.855   2.193
20181SOL     OW62381   4.287   4.354  10.091
20181SOL    HW162382   4.274   4.394  10.004
20181SOL    HW262383   4.245   4.269  10.084
20182SOL     OW62384  13.559   8.508   7.437
20182SOL    HW162385  13.609   8.581   7.473
20182SOL    HW262386  13.467   8.533   7.449
20183SOL     OW62387   2.490   1.817   4.993
20183SOL    HW162388   2.561   1.842   5.053
20183SOL    HW262389   2.488   1.722   4.997
20184SOL     OW62390   4.645   9.113   3.799
20184SOL    HW162391   4.701   9.190   3.811
20184SOL    HW262392   4.565   9.148   3.760
20185SOL     OW62393   1.244  12.838   0.146
20185SOL    HW162394   1.337  12.827   0.162
20185SOL    HW262395   1.234  12.931   0.125
20186SOL     OW62396   0.088   8.806   9.491
20186SOL    HW162397   0.152   8.748   9.532
20186SOL    HW262398   0.022   8.747   9.453
20187SOL     OW62399  13.233   4.209   0.998
20187SOL    HW162400  13.273   4.142   1.054
20187SOL    HW262401  13.255   4.292   1.041
20188SOL     OW62402   2.493  13.786  13.346
20188SOL    HW162403   2.574  13.773  13.298
20188SOL    HW262404   2.466  13.698  13.374
20189SOL     OW62405  14.305   2.217   4.726
20189SOL    HW162406  14.216   2.253   4.723
20189SOL    HW262407  14.332   2.227   4.817
20190SOL     OW62408   4.856   8.943  13.167
20190SOL    HW162409   4.886   8.992  13.091
20190SOL    HW262410   4.911   8.975  13.239
20191SOL     OW62411  13.009   8.281  13.728
20191SOL    HW162412  13.002   8.331  13.646
20191SOL    HW262413  13.102   8.263  13.738
20192SOL     OW62414   6.973  14.179   0.639
20192SOL    HW162415   7.061  14.205   0.667
20192SOL    HW262416   6.987  14.100   0.587
20193SOL     OW62417   4.097  10.616   7.588
20193SOL    HW162418   4.135  10.529   7.598
20193SOL    HW262419   4.005  10.600   7.567
20194SOL     OW62420   6.114  14.725   8.155
20194SOL    HW162421   6.135  14.816   8.178
20194SOL    HW262422   6.139  14.675   8.233
20195SOL     OW62423  10.190  10.732   5.407
20195SOL    HW162424  10.098  10.721   5.431
20195SOL    HW262425  10.231  10.767   5.486
20196SOL     OW62426  11.245  13.245   5.304
20196SOL    HW162427  11.285  13.206   5.227
20196SOL    HW262428  11.153  13.255   5.281
20197SOL     OW62429   0.555  13.293  13.535
20197SOL    HW162430   0.586  13.274  13.624
20197SOL    HW262431   0.601  13.374  13.511
20198SOL     OW62432   6.856  13.535  13.376
20198SOL    HW162433   6.845  13.443  13.350
20198SOL    HW262434   6.788  13.582  13.327
20199SOL     OW62435  10.513   5.833  10.781
20199SOL    HW162436  10.503   5.849  10.687
20199SOL    HW262437  10.593   5.780  10.788
20200SOL     OW62438  12.227   2.697   3.898
20200SOL    HW162439  12.309   2.724   3.856
20200SOL    HW262440  12.248   2.614   3.941
20201SOL     OW62441  11.481   6.463   5.939
20201SOL    HW162442  11.518   6.413   6.012
20201SOL    HW262443  11.413   6.518   5.979
20202SOL     OW62444  13.304   7.150   5.102
20202SOL    HW162445  13.216   7.113   5.095
20202SOL    HW262446  13.358   7.078   5.134
20203SOL     OW62447  13.058   2.631  10.411
20203SOL    HW162448  12.985   2.589  10.366
20203SOL    HW262449  13.062   2.719  10.373
20204SOL     OW62450   7.234   8.360   0.892
20204SOL    HW162451   7.159   8.352   0.833
20204SOL    HW262452   7.268   8.448   0.875
20205SOL     OW62453   6.058   0.464   5.225
20205SOL    HW162454   6.132   0.432   5.174
20205SOL    HW262455   6.096   0.528   5.285
20206SOL     OW62456   1.993   4.027  12.963
20206SOL    HW162457   1.922   4.004  12.903
20206SOL    HW262458   2.022   3.943  12.999
20207SOL     OW62459   0.127   4.249   2.814
20207SOL    HW162460   0.187   4.293   2.874
20207SOL    HW262461   0.171   4.253   2.729
20208SOL     OW62462  14.225   6.213   2.320
20208SOL    HW162463  14.302   6.261   2.289
20208SOL    HW262464  14.260   6.149   2.382
20209SOL     OW62465   4.451   2.893  11.737
20209SOL    HW162466   4.501   2.896  11.655
20209SOL    HW262467   4.508   2.935  11.801
20210SOL     OW62468   5.743   3.812   2.280
20210SOL    HW162469   5.794   3.732   2.287
20210SOL    HW262470   5.666   3.796   2.334
20211SOL     OW62471   7.486   1.915  10.473
20211SOL    HW162472   7.435   1.961  10.539
20211SOL    HW262473   7.427   1.906  10.398
20212SOL     OW62474   3.585   3.333  12.898
20212SOL    HW162475   3.572   3.254  12.950
20212SOL    HW262476   3.515   3.330  12.833
20213SOL     OW62477  12.552  14.284  12.698
20213SOL    HW162478  12.516  14.228  12.767
20213SOL    HW262479  12.559  14.227  12.621
20214SOL     OW62480   3.020  11.971   1.248
20214SOL    HW162481   2.975  11.922   1.316
20214SOL    HW262482   3.074  11.905   1.203
20215SOL     OW62483  12.982   5.182  10.983
20215SOL    HW162484  13.019   5.253  11.035
20215SOL    HW262485  12.986   5.105  11.040
20216SOL     OW62486   6.119   0.932   8.661
20216SOL    HW162487   6.061   0.858   8.641
20216SOL    HW262488   6.062   0.994   8.707
20217SOL     OW62489   6.765  12.391   3.173
20217SOL    HW162490   6.763  12.487   3.175
20217SOL    HW262491   6.846  12.370   3.127
20218SOL     OW62492  10.083  12.695   2.382
20218SOL    HW162493   9.998  12.680   2.424
20218SOL    HW262494  10.080  12.641   2.303
20219SOL     OW62495   6.976   2.726   8.496
20219SOL    HW162496   7.069   2.728   8.517
20219SOL    HW262497   6.965   2.795   8.430
20220SOL     OW62498  12.424  12.282   5.148
20220SOL    HW162499  12.349  12.237   5.109
20220SOL    HW262500  12.389  12.324   5.227
20221SOL     OW62501  11.155  12.097   9.755
20221SOL    HW162502  11.173  12.097   9.660
20221SOL    HW262503  11.204  12.171   9.788
20222SOL     OW62504   3.364   7.290  12.975
20222SOL    HW162505   3.329   7.330  13.054
20222SOL    HW262506   3.441   7.242  13.004
20223SOL     OW62507   3.855   8.329  10.427
20223SOL    HW162508   3.844   8.418  10.461
20223SOL    HW262509   3.913   8.286  10.490
20224SOL     OW62510   9.221  13.102  10.153
20224SOL    HW162511   9.220  13.007  10.165
20224SOL    HW262512   9.150  13.135  10.208
20225SOL     OW62513  11.894   7.832  10.519
20225SOL    HW162514  11.806   7.867  10.536
20225SOL    HW262515  11.890   7.802  10.428
20226SOL     OW62516   6.873   6.500   4.864
20226SOL    HW162517   6.877   6.564   4.793
20226SOL    HW262518   6.789   6.457   4.853
20227SOL     OW62519   0.997   7.450   1.606
20227SOL    HW162520   1.065   7.472   1.543
20227SOL    HW262521   1.035   7.381   1.660
20228SOL     OW62522  12.657  10.196   0.905
20228SOL    HW162523  12.578  10.201   0.958
20228SOL    HW262524  12.701  10.116   0.934
20229SOL     OW62525  14.265   1.061   7.067
20229SOL    HW162526  14.341   1.018   7.028
20229SOL    HW262527  14.256   1.144   7.020
20230SOL     OW62528  14.260  11.588   2.186
20230SOL    HW162529  14.184  11.578   2.129
20230SOL    HW262530  14.285  11.680   2.177
20231SOL     OW62531  11.938   2.500   4.198
20231SOL    HW162532  11.890   2.567   4.149
20231SOL    HW262533  11.997   2.461   4.133
20232SOL     OW62534   6.643   3.279   5.795
20232SOL    HW162535   6.645   3.307   5.704
20232SOL    HW262536   6.618   3.187   5.792
20233SOL     OW62537   3.368   6.852   3.672
20233SOL    HW162538   3.441   6.892   3.625
20233SOL    HW262539   3.334   6.922   3.728
20234SOL     OW62540   2.640   2.079   3.524
20234SOL    HW162541   2.640   2.170   3.495
20234SOL    HW262542   2.553   2.046   3.503
20235SOL     OW62543   7.499   6.991   7.248
20235SOL    HW162544   7.593   7.004   7.240
20235SOL    HW262545   7.470   6.965   7.161
20236SOL     OW62546  13.248   9.715   6.589
20236SOL    HW162547  13.174   9.657   6.569
20236SOL    HW262548  13.244   9.783   6.522
20237SOL     OW62549   5.180   1.612   2.230
20237SOL    HW162550   5.235   1.639   2.157
20237SOL    HW262551   5.175   1.690   2.286
20238SOL     OW62552   8.928  13.720   8.712
20238SOL    HW162553   8.944  13.767   8.630
20238SOL    HW262554   9.015  13.710   8.751
20239SOL     OW62555   9.544   6.942  14.077
20239SOL    HW162556   9.535   6.958  13.983
20239SOL    HW262557   9.628   6.982  14.100
20240SOL     OW62558   3.283   4.771  14.198
20240SOL    HW162559   3.300   4.722  14.278
20240SOL    HW262560   3.190   4.757  14.181
20241SOL     OW62561   6.360   1.857   1.441
20241SOL    HW162562   6.346   1.775   1.395
20241SOL    HW262563   6.359   1.833   1.534
20242SOL     OW62564   3.183   9.849  10.304
20242SOL    HW162565   3.088   9.839  10.316
20242SOL    HW262566   3.192   9.930  10.254
20243SOL     OW62567  13.102   9.459  10.724
20243SOL    HW162568  13.104   9.364  10.735
20243SOL    HW262569  13.010   9.482  10.733
20244SOL     OW62570   9.535   4.851   7.374
20244SOL    HW162571   9.578   4.936   7.382
20244SOL    HW262572   9.449   4.864   7.415
20245SOL     OW62573   5.023  12.629   3.825
20245SOL    HW162574   5.077  12.562   3.866
20245SOL    HW262575   5.047  12.710   3.868
20246SOL     OW62576  13.050   5.445  14.035
20246SOL    HW162577  13.003   5.394  13.969
20246SOL    HW262578  13.107   5.382  14.079
20247SOL     OW62579  10.124   3.326  12.853
20247SOL    HW162580  10.075   3.247  12.878
20247SOL    HW262581  10.069   3.369  12.788
20248SOL     OW62582   4.672  11.618   3.211
20248SOL    HW162583   4.731  11.667   3.154
20248SOL    HW262584   4.668  11.670   3.292
20249SOL     OW62585  13.141  13.927   9.888
20249SOL    HW162586  13.220  13.939   9.940
20249SOL    HW262587  13.118  14.015   9.858
20250SOL     OW62588   3.497   8.306   1.402
20250SOL    HW162589   3.498   8.309   1.497
20250SOL    HW262590   3.555   8.377   1.375
20251SOL     OW62591  10.710   1.214   1.302
20251SOL    HW162592  10.673   1.287   1.351
20251SOL    HW262593  10.660   1.137   1.329
20252SOL     OW62594   2.470   2.357  13.834
20252SOL    HW162595   2.426   2.403  13.905
20252SOL    HW262596   2.548   2.318  13.874
20253SOL     OW62597   3.661   8.063  12.553
20253SOL    HW162598   3.677   8.142  12.604
20253SOL    HW262599   3.746   8.040  12.517
20254SOL     OW62600  10.713   8.656   2.882
20254SOL    HW162601  10.681   8.716   2.950
20254SOL    HW262602  10.635   8.635   2.831
20255SOL     OW62603   9.649   8.504   7.361
20255SOL    HW162604   9.574   8.487   7.418
20255SOL    HW262605   9.695   8.577   7.403
20256SOL     OW62606  11.889  10.291   8.274
20256SOL    HW162607  11.849  10.363   8.225
20256SOL    HW262608  11.825  10.269   8.341
20257SOL     OW62609   7.939   8.612   5.940
20257SOL    HW162610   7.863   8.562   5.971
20257SOL    HW262611   7.909   8.702   5.938
20258SOL     OW62612   9.443   4.685   6.406
20258SOL    HW162613   9.518   4.740   6.427
20258SOL    HW262614   9.447   4.673   6.311
20259SOL     OW62615  14.569  13.535  14.150
20259SOL    HW162616  14.581  13.443  14.174
20259SOL    HW262617  14.624  13.545  14.071
20260SOL     OW62618   9.479  13.102  13.140
20260SOL    HW162619   9.466  13.178  13.083
20260SOL    HW262620   9.406  13.044  13.119
20261SOL     OW62621  14.595   6.049  14.388
20261SOL    HW162622  14.657   6.087  14.451
20261SOL    HW262623  14.571   6.123  14.331
20262SOL     OW62624   3.608  11.352   1.017
20262SOL    HW162625   3.659  11.327   1.095
20262SOL    HW262626   3.575  11.440   1.038
20263SOL     OW62627   7.489   9.445   6.116
20263SOL    HW162628   7.434   9.452   6.193
20263SOL    HW262629   7.574   9.479   6.144
20264SOL     OW62630   1.311   4.620   1.441
20264SOL    HW162631   1.223   4.583   1.446
20264SOL    HW262632   1.364   4.567   1.501
20265SOL     OW62633   4.851  14.350  14.768
20265SOL    HW162634   4.835  14.410  14.841
20265SOL    HW262635   4.766  14.344  14.724
20266SOL     OW62636   9.536  13.339   3.396
20266SOL    HW162637   9.631  13.349   3.390
20266SOL    HW262638   9.522  13.305   3.485
20267SOL     OW62639   4.843   8.410   0.535
20267SOL    HW162640   4.898   8.377   0.464
20267SOL    HW262641   4.900   8.409   0.612
20268SOL     OW62642   0.388   3.008   0.838
20268SOL    HW162643   0.359   3.019   0.747
20268SOL    HW262644   0.329   3.063   0.889
20269SOL     OW62645  11.152   3.116  10.070
20269SOL    HW162646  11.140   3.147   9.980
20269SOL    HW262647  11.081   3.054  10.083
20270SOL     OW62648   8.411   4.727   7.866
20270SOL    HW162649   8.495   4.721   7.913
20270SOL    HW262650   8.353   4.668   7.915
20271SOL     OW62651   1.073   4.363   1.612
20271SOL    HW162652   1.007   4.413   1.564
20271SOL    HW262653   1.034   4.349   1.699
20272SOL     OW62654  14.434  14.614   0.571
20272SOL    HW162655  14.346  14.646   0.591
20272SOL    HW262656  14.488  14.649   0.641
20273SOL     OW62657   8.549   0.800  11.394
20273SOL    HW162658   8.617   0.779  11.458
20273SOL    HW262659   8.582   0.879  11.350
20274SOL     OW62660  13.965  13.687   3.180
20274SOL    HW162661  13.975  13.730   3.095
20274SOL    HW262662  13.987  13.595   3.163
20275SOL     OW62663   6.589   3.177  14.547
20275SOL    HW162664   6.590   3.188  14.452
20275SOL    HW262665   6.648   3.245  14.580
20276SOL     OW62666  12.824  12.647   0.604
20276SOL    HW162667  12.888  12.694   0.657
20276SOL    HW262668  12.772  12.597   0.667
20277SOL     OW62669  14.612   0.796   0.093
20277SOL    HW162670  14.617   0.778  14.878
20277SOL    HW262671  14.639   0.887   0.101
20278SOL     OW62672   6.625  11.715  11.736
20278SOL    HW162673   6.590  11.794  11.777
20278SOL    HW262674   6.720  11.731  11.734
20279SOL     OW62675  13.661   2.194   2.538
20279SOL    HW162676  13.720   2.268   2.520
20279SOL    HW262677  13.616   2.219   2.618
20280SOL     OW62678   4.100   9.924   9.065
20280SOL    HW162679   4.020   9.898   9.110
20280SOL    HW262680   4.071   9.985   8.998
20281SOL     OW62681  12.989   6.827   9.184
20281SOL    HW162682  12.974   6.849   9.092
20281SOL    HW262683  12.921   6.763   9.205
20282SOL     OW62684  14.519   3.196   4.640
20282SOL    HW162685  14.514   3.289   4.661
20282SOL    HW262686  14.428   3.166   4.638
20283SOL     OW62687   7.518   6.857   0.146
20283SOL    HW162688   7.430   6.850   0.184
20283SOL    HW262689   7.516   6.939   0.097
20284SOL     OW62690  13.749   2.875   8.477
20284SOL    HW162691  13.709   2.799   8.434
20284SOL    HW262692  13.679   2.939   8.483
20285SOL     OW62693  10.782   3.245   0.122
20285SOL    HW162694  10.867   3.204   0.137
20285SOL    HW262695  10.803   3.329   0.081
20286SOL     OW62696  14.606  13.976   5.997
20286SOL    HW162697  14.618  13.955   6.090
20286SOL    HW262698  14.513  13.960   5.980
20287SOL     OW62699   0.085   1.716   8.981
20287SOL    HW162700   0.108   1.800   8.941
20287SOL    HW262701   0.166   1.665   8.977
20288SOL     OW62702   2.323   9.957  10.461
20288SOL    HW162703   2.400   9.929  10.411
20288SOL    HW262704   2.273   9.876  10.474
20289SOL     OW62705   6.039  13.173   7.160
20289SOL    HW162706   6.103  13.200   7.226
20289SOL    HW262707   5.998  13.095   7.198
20290SOL     OW62708   3.799   8.058   6.312
20290SOL    HW162709   3.785   8.095   6.399
20290SOL    HW262710   3.777   7.965   6.321
20291SOL     OW62711   6.984   8.207   3.228
20291SOL    HW162712   6.908   8.158   3.259
20291SOL    HW262713   6.977   8.292   3.272
20292SOL     OW62714   6.303   9.234   3.694
20292SOL    HW162715   6.277   9.308   3.748
20292SOL    HW262716   6.398   9.234   3.696
20293SOL     OW62717  13.982   9.093  12.583
20293SOL    HW162718  13.921   9.020  12.586
20293SOL    HW262719  13.987   9.124  12.674
20294SOL     OW62720   2.918   4.647  14.358
20294SOL    HW162721   2.976   4.663  14.283
20294SOL    HW262722   2.957   4.571  14.402
20295SOL     OW62723  14.108   3.841  14.065
20295SOL    HW162724  14.021   3.803  14.066
20295SOL    HW262725  14.159   3.787  14.127
20296SOL     OW62726   6.239   5.124  13.157
20296SOL    HW162727   6.192   5.180  13.220
20296SOL    HW262728   6.187   5.129  13.077
20297SOL     OW62729   4.095  12.453   5.458
20297SOL    HW162730   4.188  12.458   5.437
20297SOL    HW262731   4.087  12.497   5.543
20298SOL     OW62732  10.355   1.152  10.440
20298SOL    HW162733  10.334   1.224  10.499
20298SOL    HW262734  10.427   1.106  10.483
20299SOL     OW62735   1.783   4.922   5.469
20299SOL    HW162736   1.775   4.952   5.379
20299SOL    HW262737   1.717   4.853   5.478
20300SOL     OW62738   0.278   8.289  12.649
20300SOL    HW162739   0.270   8.340  12.568
20300SOL    HW262740   0.310   8.352  12.714
20301SOL     OW62741   1.390  13.950   5.931
20301SOL    HW162742   1.435  13.870   5.902
20301SOL    HW262743   1.442  13.982   6.004
20302SOL     OW62744  12.426   0.354  14.399
20302SOL    HW162745  12.477   0.412  14.456
20302SOL    HW262746  12.480   0.275  14.391
20303SOL     OW62747   3.586   4.689  14.856
20303SOL    HW162748   3.509   4.735  14.822
20303SOL    HW262749   3.661   4.733  14.815
20304SOL     OW62750   2.408  10.925  10.025
20304SOL    HW162751   2.325  10.920   9.977
20304SOL    HW262752   2.383  10.947  10.114
20305SOL     OW62753   9.075   8.859   1.708
20305SOL    HW162754   8.982   8.879   1.700
20305SOL    HW262755   9.093   8.863   1.802
20306SOL     OW62756  11.064   0.373   1.255
20306SOL    HW162757  11.110   0.341   1.333
20306SOL    HW262758  11.091   0.464   1.247
20307SOL     OW62759  10.565   2.843   8.333
20307SOL    HW162760  10.513   2.826   8.254
20307SOL    HW262761  10.568   2.939   8.339
20308SOL     OW62762  10.841  10.689  14.665
20308SOL    HW162763  10.793  10.771  14.652
20308SOL    HW262764  10.888  10.676  14.583
20309SOL     OW62765  14.807   5.773   2.508
20309SOL    HW162766  14.808   5.742   2.598
20309SOL    HW262767   0.001   5.833   2.502
20310SOL     OW62768  14.125   5.130   9.071
20310SOL    HW162769  14.157   5.144   9.160
20310SOL    HW262770  14.188   5.177   9.016
20311SOL     OW62771  14.443   0.271  14.061
20311SOL    HW162772  14.454   0.263  13.967
20311SOL    HW262773  14.436   0.365  14.077
20312SOL     OW62774   9.123   8.219  11.564
20312SOL    HW162775   9.052   8.216  11.628
20312SOL    HW262776   9.150   8.128  11.554
20313SOL     OW62777   1.693   7.745  14.645
20313SOL    HW162778   1.715   7.838  14.651
20313SOL    HW262779   1.765   7.706  14.596
20314SOL     OW62780   2.153  13.923   4.265
20314SOL    HW162781   2.230  13.975   4.241
20314SOL    HW262782   2.131  13.874   4.186
20315SOL     OW62783   8.464   1.375   4.375
20315SOL    HW162784   8.407   1.408   4.305
20315SOL    HW262785   8.527   1.445   4.391
20316SOL     OW62786  11.976   6.926  11.284
20316SOL    HW162787  11.926   7.006  11.301
20316SOL    HW262788  12.013   6.939  11.196
20317SOL     OW62789  12.667   1.700   0.299
20317SOL    HW162790  12.616   1.764   0.250
20317SOL    HW262791  12.754   1.703   0.260
20318SOL     OW62792   2.148  11.812   0.629
20318SOL    HW162793   2.106  11.825   0.544
20318SOL    HW262794   2.162  11.901   0.663
20319SOL     OW62795   6.076   4.134   9.120
20319SOL    HW162796   6.140   4.158   9.052
20319SOL    HW262797   6.108   4.051   9.154
20320SOL     OW62798  14.487   8.185   2.217
20320SOL    HW162799  14.423   8.136   2.165
20320SOL    HW262800  14.483   8.274   2.181
20321SOL     OW62801   9.180   3.862   5.561
20321SOL    HW162802   9.225   3.893   5.483
20321SOL    HW262803   9.174   3.767   5.549
20322SOL     OW62804   3.073  10.028  12.722
20322SOL    HW162805   3.061  10.087  12.648
20322SOL    HW262806   3.032  10.074  12.796
20323SOL     OW62807  11.667   5.247   0.491
20323SOL    HW162808  11.571   5.244   0.491
20323SOL    HW262809  11.689   5.304   0.417
20324SOL     OW62810  10.455   7.632   5.442
20324SOL    HW162811  10.403   7.553   5.455
20324SOL    HW262812  10.408   7.680   5.373
20325SOL     OW62813  13.531  13.905   4.621
20325SOL    HW162814  13.496  13.825   4.582
20325SOL    HW262815  13.619  13.913   4.584
20326SOL     OW62816  12.606   4.299   6.588
20326SOL    HW162817  12.511   4.311   6.582
20326SOL    HW262818  12.627   4.323   6.678
20327SOL     OW62819   4.963   8.157   1.534
20327SOL    HW162820   4.992   8.094   1.600
20327SOL    HW262821   4.941   8.103   1.458
20328SOL     OW62822   5.270   7.926  11.016
20328SOL    HW162823   5.361   7.956  11.010
20328SOL    HW262824   5.227   7.962  10.939
20329SOL     OW62825   3.986   5.416   4.516
20329SOL    HW162826   4.045   5.418   4.441
20329SOL    HW262827   3.975   5.323   4.535
20330SOL     OW62828   7.936  14.308  10.086
20330SOL    HW162829   8.028  14.285  10.091
20330SOL    HW262830   7.907  14.273  10.001
20331SOL     OW62831   1.644   1.074   3.657
20331SOL    HW162832   1.611   1.111   3.575
20331SOL    HW262833   1.598   0.991   3.666
20332SOL     OW62834  12.744   1.132  10.804
20332SOL    HW162835  12.719   1.061  10.745
20332SOL    HW262836  12.818   1.175  10.761
20333SOL     OW62837   6.246   4.196  10.373
20333SOL    HW162838   6.221   4.147  10.294
20333SOL    HW262839   6.338   4.173  10.387
20334SOL     OW62840   4.029  11.679   1.776
20334SOL    HW162841   3.984  11.727   1.706
20334SOL    HW262842   3.964  11.617   1.808
20335SOL     OW62843   6.851   0.009  13.935
20335SOL    HW162844   6.835  14.799  13.966
20335SOL    HW262845   6.789   0.020  13.863
20336SOL     OW62846   9.111   9.906   1.205
20336SOL    HW162847   9.052   9.832   1.189
20336SOL    HW262848   9.169   9.907   1.129
20337SOL     OW62849  11.058   4.276   2.301
20337SOL    HW162850  10.978   4.326   2.283
20337SOL    HW262851  11.099   4.322   2.374
20338SOL     OW62852   2.697   8.059   6.845
20338SOL    HW162853   2.780   8.015   6.826
20338SOL    HW262854   2.722   8.145   6.877
20339SOL     OW62855  13.443  12.481   3.774
20339SOL    HW162856  13.465  12.436   3.856
20339SOL    HW262857  13.524  12.478   3.723
20340SOL     OW62858  10.147  10.009   3.172
20340SOL    HW162859  10.091   9.936   3.196
20340SOL    HW262860  10.098  10.055   3.103
20341SOL     OW62861  10.130   1.721  14.186
20341SOL    HW162862  10.196   1.710  14.254
20341SOL    HW262863  10.064   1.779  14.224
20342SOL     OW62864   8.196  11.643   3.553
20342SOL    HW162865   8.193  11.739   3.547
20342SOL    HW262866   8.276  11.625   3.602
20343SOL     OW62867   8.448   5.658   2.081
20343SOL    HW162868   8.463   5.603   2.157
20343SOL    HW262869   8.529   5.651   2.030
20344SOL     OW62870  12.891  11.244   6.184
20344SOL    HW162871  12.838  11.247   6.264
20344SOL    HW262872  12.965  11.302   6.202
20345SOL     OW62873  12.162   4.585   9.294
20345SOL    HW162874  12.218   4.550   9.363
20345SOL    HW262875  12.191   4.676   9.284
20346SOL     OW62876   9.106   1.833   2.033
20346SOL    HW162877   9.045   1.904   2.018
20346SOL    HW262878   9.078   1.763   1.974
20347SOL     OW62879   6.753   8.277   9.813
20347SOL    HW162880   6.697   8.303   9.740
20347SOL    HW262881   6.810   8.352   9.827
20348SOL     OW62882   4.165   0.734  12.840
20348SOL    HW162883   4.073   0.760  12.852
20348SOL    HW262884   4.202   0.803  12.785
20349SOL     OW62885  10.070   7.117   5.522
20349SOL    HW162886  10.038   7.201   5.490
20349SOL    HW262887   9.992   7.073   5.557
20350SOL     OW62888   6.744   7.352   8.118
20350SOL    HW162889   6.661   7.308   8.136
20350SOL    HW262890   6.778   7.375   8.205
20351SOL     OW62891   2.680   8.054  10.785
20351SOL    HW162892   2.721   7.980  10.831
20351SOL    HW262893   2.693   8.129  10.843
20352SOL     OW62894   5.817   0.005   1.953
20352SOL    HW162895   5.883   0.030   2.018
20352SOL    HW262896   5.774   0.087   1.930
20353SOL     OW62897   7.527  13.815   4.248
20353SOL    HW162898   7.445  13.766   4.257
20353SOL    HW262899   7.548  13.842   4.338
20354SOL     OW62900  14.453   6.435  12.406
20354SOL    HW162901  14.469   6.487  12.327
20354SOL    HW262902  14.436   6.347  12.373
20355SOL     OW62903  10.004   3.608   5.736
20355SOL    HW162904  10.026   3.611   5.829
20355SOL    HW262905   9.997   3.700   5.709
20356SOL     OW62906   5.101  13.555   0.378
20356SOL    HW162907   5.136  13.524   0.295
20356SOL    HW262908   5.118  13.649   0.378
20357SOL     OW62909   0.923   1.487  11.409
20357SOL    HW162910   0.895   1.398  11.391
20357SOL    HW262911   0.857   1.522  11.470
20358SOL     OW62912   9.961   8.849   5.186
20358SOL    HW162913   9.998   8.761   5.175
20358SOL    HW262914  10.000   8.881   5.268
20359SOL     OW62915   2.678  14.669   7.548
20359SOL    HW162916   2.755  14.720   7.522
20359SOL    HW262917   2.636  14.644   7.465
20360SOL     OW62918   0.694  11.070   5.498
20360SOL    HW162919   0.658  10.982   5.494
20360SOL    HW262920   0.788  11.058   5.505
20361SOL     OW62921   2.003   6.843  14.458
20361SOL    HW162922   2.008   6.750  14.484
20361SOL    HW262923   2.094   6.867  14.439
20362SOL     OW62924  14.050   2.890   4.821
20362SOL    HW162925  14.054   2.985   4.831
20362SOL    HW262926  14.113   2.857   4.885
20363SOL     OW62927   0.954   9.869   5.189
20363SOL    HW162928   0.871   9.863   5.236
20363SOL    HW262929   1.017   9.824   5.244
20364SOL     OW62930  14.734   5.140   1.166
20364SOL    HW162931  14.799   5.125   1.097
20364SOL    HW262932  14.743   5.066   1.225
20365SOL     OW62933   7.823  11.819   3.232
20365SOL    HW162934   7.797  11.727   3.238
20365SOL    HW262935   7.912  11.817   3.196
20366SOL     OW62936   0.752  12.444   0.929
20366SOL    HW162937   0.684  12.511   0.917
20366SOL    HW262938   0.823  12.490   0.974
20367SOL     OW62939   2.848  10.591   2.485
20367SOL    HW162940   2.885  10.637   2.560
20367SOL    HW262941   2.822  10.661   2.425
20368SOL     OW62942   8.424   7.749   3.760
20368SOL    HW162943   8.417   7.680   3.826
20368SOL    HW262944   8.460   7.824   3.809
20369SOL     OW62945   8.198   3.139   5.266
20369SOL    HW162946   8.149   3.191   5.203
20369SOL    HW262947   8.246   3.075   5.213
20370SOL     OW62948   7.196   7.463   2.344
20370SOL    HW162949   7.218   7.391   2.284
20370SOL    HW262950   7.178   7.537   2.287
20371SOL     OW62951   8.757   2.056   9.620
20371SOL    HW162952   8.758   2.147   9.649
20371SOL    HW262953   8.796   2.007   9.693
20372SOL     OW62954   9.817   0.500  11.944
20372SOL    HW162955   9.775   0.586  11.952
20372SOL    HW262956   9.783   0.465  11.861
20373SOL     OW62957  12.563   5.890   1.734
20373SOL    HW162958  12.623   5.961   1.758
20373SOL    HW262959  12.547   5.904   1.640
20374SOL     OW62960   1.023   7.718   0.132
20374SOL    HW162961   1.065   7.763   0.205
20374SOL    HW262962   0.944   7.678   0.170
20375SOL     OW62963   7.122   4.016   3.333
20375SOL    HW162964   7.097   3.968   3.412
20375SOL    HW262965   7.182   3.957   3.287
20376SOL     OW62966   2.101  12.288   5.248
20376SOL    HW162967   2.021  12.235   5.241
20376SOL    HW262968   2.118  12.291   5.342
20377SOL     OW62969  13.537   2.152   1.997
20377SOL    HW162970  13.516   2.063   1.967
20377SOL    HW262971  13.631   2.150   2.012
20378SOL     OW62972   4.232   6.836  13.006
20378SOL    HW162973   4.327   6.820  13.007
20378SOL    HW262974   4.194   6.752  12.983
20379SOL     OW62975  13.228  11.842  10.978
20379SOL    HW162976  13.183  11.847  10.894
20379SOL    HW262977  13.240  11.933  11.004
20380SOL     OW62978  10.908   6.837   9.278
20380SOL    HW162979  10.978   6.868   9.336
20380SOL    HW262980  10.850   6.787   9.336
20381SOL     OW62981   8.395   1.986  14.333
20381SOL    HW162982   8.453   1.978  14.257
20381SOL    HW262983   8.453   1.974  14.408
20382SOL     OW62984  13.293  13.379   4.476
20382SOL    HW162985  13.240  13.337   4.544
20382SOL    HW262986  13.296  13.316   4.405
20383SOL     OW62987  10.993   7.279   5.180
20383SOL    HW162988  11.002   7.212   5.247
20383SOL    HW262989  11.078   7.278   5.135
20384SOL     OW62990  14.760   6.172   8.106
20384SOL    HW162991  14.809   6.104   8.153
20384SOL    HW262992  14.718   6.125   8.034
20385SOL     OW62993  14.071   1.018  14.753
20385SOL    HW162994  14.120   1.099  14.764
20385SOL    HW262995  14.040   1.021  14.662
20386SOL     OW62996   5.486   9.896   6.484
20386SOL    HW162997   5.550   9.920   6.417
20386SOL    HW262998   5.488   9.968   6.546
20387SOL     OW62999   7.054   4.206   2.613
20387SOL    HW163000   7.071   4.113   2.595
20387SOL    HW263001   7.050   4.246   2.526
20388SOL     OW63002   1.578   3.369  14.514
20388SOL    HW163003   1.615   3.415  14.589
20388SOL    HW263004   1.642   3.301  14.493
20389SOL     OW63005  12.796   5.669  14.731
20389SOL    HW163006  12.822   5.664  14.639
20389SOL    HW263007  12.706   5.636  14.732
20390SOL     OW63008   6.988   6.312   1.866
20390SOL    HW163009   7.061   6.282   1.920
20390SOL    HW263010   7.027   6.330   1.780
20391SOL     OW63011  13.043   0.617  10.492
20391SOL    HW163012  13.072   0.647  10.578
20391SOL    HW263013  13.049   0.695  10.436
20392SOL     OW63014  11.264   6.951   7.342
20392SOL    HW163015  11.275   7.044   7.359
20392SOL    HW263016  11.183   6.928   7.388
20393SOL     OW63017   5.766   4.520  11.985
20393SOL    HW163018   5.836   4.467  11.948
20393SOL    HW263019   5.810   4.577  12.048
20394SOL     OW63020  11.622  11.164  12.556
20394SOL    HW163021  11.621  11.092  12.618
20394SOL    HW263022  11.674  11.132  12.482
20395SOL     OW63023   7.616   8.771  14.021
20395SOL    HW163024   7.527   8.742  14.000
20395SOL    HW263025   7.673   8.714  13.969
20396SOL     OW63026  10.461   1.601   6.819
20396SOL    HW163027  10.369   1.594   6.794
20396SOL    HW263028  10.484   1.692   6.801
20397SOL     OW63029   5.684   3.115  14.621
20397SOL    HW163030   5.741   3.135  14.695
20397SOL    HW263031   5.598   3.102  14.660
20398SOL     OW63032   8.462   4.445   1.787
20398SOL    HW163033   8.456   4.355   1.818
20398SOL    HW263034   8.376   4.484   1.806
20399SOL     OW63035   8.233   8.164   4.041
20399SOL    HW163036   8.234   8.182   4.135
20399SOL    HW263037   8.155   8.109   4.027
20400SOL     OW63038   0.908   1.335   2.338
20400SOL    HW163039   0.867   1.344   2.252
20400SOL    HW263040   0.982   1.395   2.336
20401SOL     OW63041   9.679   3.339   1.749
20401SOL    HW163042   9.601   3.394   1.762
20401SOL    HW263043   9.661   3.291   1.668
20402SOL     OW63044   1.022   7.427  13.909
20402SOL    HW163045   1.100   7.427  13.855
20402SOL    HW263046   1.014   7.517  13.941
20403SOL     OW63047   1.821   1.306   0.699
20403SOL    HW163048   1.830   1.247   0.623
20403SOL    HW263049   1.814   1.393   0.661
20404SOL     OW63050   7.295   4.787   9.058
20404SOL    HW163051   7.261   4.709   9.014
20404SOL    HW263052   7.223   4.850   9.053
20405SOL     OW63053   0.264   0.319  10.356
20405SOL    HW163054   0.265   0.224  10.369
20405SOL    HW263055   0.332   0.351  10.415
20406SOL     OW63056   4.263  10.377   7.619
20406SOL    HW163057   4.282  10.309   7.555
20406SOL    HW263058   4.334  10.440   7.609
20407SOL     OW63059  14.486  12.134   8.057
20407SOL    HW163060  14.431  12.075   8.108
20407SOL    HW263061  14.542  12.177   8.121
20408SOL     OW63062   1.199   9.022  12.331
20408SOL    HW163063   1.129   8.956  12.335
20408SOL    HW263064   1.154   9.105  12.346
20409SOL     OW63065   7.612  11.019   2.503
20409SOL    HW163066   7.542  11.013   2.568
20409SOL    HW263067   7.692  11.002   2.552
20410SOL     OW63068   8.611  11.981   5.297
20410SOL    HW163069   8.680  11.923   5.328
20410SOL    HW263070   8.632  11.996   5.205
20411SOL     OW63071  11.782  10.732   2.536
20411SOL    HW163072  11.756  10.813   2.579
20411SOL    HW263073  11.739  10.736   2.450
20412SOL     OW63074   9.279   4.131  12.955
20412SOL    HW163075   9.277   4.189  13.031
20412SOL    HW263076   9.294   4.043  12.992
20413SOL     OW63077   2.945  14.647   6.690
20413SOL    HW163078   2.869  14.607   6.647
20413SOL    HW263079   2.922  14.739   6.697
20414SOL     OW63080   4.459  12.156   3.223
20414SOL    HW163081   4.390  12.214   3.192
20414SOL    HW263082   4.427  12.123   3.307
20415SOL     OW63083   6.915   0.696  10.993
20415SOL    HW163084   6.828   0.724  10.965
20415SOL    HW263085   6.909   0.687  11.088
20416SOL     OW63086   5.946   5.474  13.680
20416SOL    HW163087   5.900   5.437  13.605
20416SOL    HW263088   5.907   5.560  13.693
20417SOL     OW63089   4.472  14.377   8.691
20417SOL    HW163090   4.474  14.405   8.782
20417SOL    HW263091   4.458  14.282   8.695
20418SOL     OW63092  10.505  13.707   8.722
20418SOL    HW163093  10.410  13.706   8.735
20418SOL    HW263094  10.516  13.713   8.627
20419SOL     OW63095  12.207  14.151   3.868
20419SOL    HW163096  12.158  14.233   3.864
20419SOL    HW263097  12.141  14.083   3.860
20420SOL     OW63098  12.586   7.437   7.458
20420SOL    HW163099  12.660   7.424   7.398
20420SOL    HW263100  12.589   7.361   7.516
20421SOL     OW63101  10.273   2.918   4.252
20421SOL    HW163102  10.344   2.933   4.314
20421SOL    HW263103  10.301   2.841   4.202
20422SOL     OW63104   7.893  10.370  11.121
20422SOL    HW163105   7.854  10.436  11.063
20422SOL    HW263106   7.855  10.389  11.207
20423SOL     OW63107   2.641  13.867   3.862
20423SOL    HW163108   2.633  13.862   3.958
20423SOL    HW263109   2.601  13.786   3.831
20424SOL     OW63110  12.584   9.046  11.330
20424SOL    HW163111  12.637   9.019  11.405
20424SOL    HW263112  12.494   9.048  11.364
20425SOL     OW63113  11.505  13.607   8.941
20425SOL    HW163114  11.453  13.532   8.970
20425SOL    HW263115  11.475  13.625   8.852
20426SOL     OW63116   0.307  13.732  14.274
20426SOL    HW163117   0.260  13.808  14.241
20426SOL    HW263118   0.259  13.706  14.353
20427SOL     OW63119   3.840   7.669   8.766
20427SOL    HW163120   3.890   7.747   8.743
20427SOL    HW263121   3.876   7.600   8.709
20428SOL     OW63122   5.906  10.983  12.321
20428SOL    HW163123   5.943  11.045  12.384
20428SOL    HW263124   5.943  11.010  12.237
20429SOL     OW63125  13.782   9.005   7.862
20429SOL    HW163126  13.758   8.969   7.947
20429SOL    HW263127  13.708   8.985   7.805
20430SOL     OW63128   9.975   8.424   4.738
20430SOL    HW163129   9.986   8.493   4.674
20430SOL    HW263130   9.883   8.398   4.731
20431SOL     OW63131  14.531   9.231   6.097
20431SOL    HW163132  14.503   9.251   6.186
20431SOL    HW263133  14.485   9.294   6.042
20432SOL     OW63134  11.780   6.658   6.974
20432SOL    HW163135  11.839   6.670   6.899
20432SOL    HW263136  11.831   6.687   7.049
20433SOL     OW63137   9.421   9.779   8.446
20433SOL    HW163138   9.416   9.697   8.397
20433SOL    HW263139   9.363   9.766   8.521
20434SOL     OW63140   0.970   8.901   0.168
20434SOL    HW163141   1.055   8.910   0.124
20434SOL    HW263142   0.949   8.989   0.198
20435SOL     OW63143   5.738  13.113  11.987
20435SOL    HW163144   5.673  13.182  11.976
20435SOL    HW263145   5.741  13.098  12.081
20436SOL     OW63146  14.153  13.678  12.822
20436SOL    HW163147  14.108  13.593  12.818
20436SOL    HW263148  14.124  13.716  12.905
20437SOL     OW63149  14.856   8.400  13.155
20437SOL    HW163150  14.761   8.394  13.143
20437SOL    HW263151   0.011   8.320  13.116
20438SOL     OW63152  14.450   9.666  11.344
20438SOL    HW163153  14.362   9.642  11.315
20438SOL    HW263154  14.508   9.606  11.297
20439SOL     OW63155   3.937   6.748  11.714
20439SOL    HW163156   3.963   6.708  11.797
20439SOL    HW263157   3.847   6.778  11.729
20440SOL     OW63158  11.006   0.787   8.859
20440SOL    HW163159  10.941   0.848   8.893
20440SOL    HW263160  10.957   0.707   8.841
20441SOL     OW63161   4.412   1.681   5.824
20441SOL    HW163162   4.492   1.734   5.822
20441SOL    HW263163   4.409   1.645   5.912
20442SOL     OW63164   8.143  11.450   0.017
20442SOL    HW163165   8.143  11.356   0.036
20442SOL    HW263166   8.153  11.491   0.103
20443SOL     OW63167   5.896  14.567   3.555
20443SOL    HW163168   5.913  14.491   3.610
20443SOL    HW263169   5.973  14.623   3.567
20444SOL     OW63170   6.583   0.983   2.689
20444SOL    HW163171   6.568   1.062   2.741
20444SOL    HW263172   6.505   0.976   2.634
20445SOL     OW63173   1.755  11.883  14.698
20445SOL    HW163174   1.836  11.840  14.727
20445SOL    HW263175   1.779  11.928  14.617
20446SOL     OW63176   5.108   1.822  12.067
20446SOL    HW163177   5.125   1.916  12.073
20446SOL    HW263178   5.105   1.791  12.157
20447SOL     OW63179   3.600  10.529   0.809
20447SOL    HW163180   3.579  10.440   0.840
20447SOL    HW263181   3.515  10.567   0.787
20448SOL     OW63182   4.404  13.348   2.052
20448SOL    HW163183   4.311  13.348   2.028
20448SOL    HW263184   4.431  13.439   2.040
20449SOL     OW63185   2.827  14.657   6.221
20449SOL    HW163186   2.814  14.598   6.147
20449SOL    HW263187   2.843  14.598   6.296
20450SOL     OW63188  11.551   2.125   5.479
20450SOL    HW163189  11.509   2.195   5.530
20450SOL    HW263190  11.547   2.155   5.389
20451SOL     OW63191   6.980   7.140   2.578
20451SOL    HW163192   6.993   7.106   2.490
20451SOL    HW263193   7.068   7.158   2.610
20452SOL     OW63194   8.532  10.058   6.667
20452SOL    HW163195   8.550  10.077   6.575
20452SOL    HW263196   8.508   9.966   6.668
20453SOL     OW63197   0.976  10.986   7.806
20453SOL    HW163198   1.017  10.923   7.747
20453SOL    HW263199   1.046  11.006   7.869
20454SOL     OW63200   6.130   0.285   8.222
20454SOL    HW163201   6.093   0.329   8.298
20454SOL    HW263202   6.143   0.355   8.158
20455SOL     OW63203   2.274   2.493   4.757
20455SOL    HW163204   2.188   2.533   4.754
20455SOL    HW263205   2.313   2.513   4.672
20456SOL     OW63206  12.905  10.835   6.281
20456SOL    HW163207  12.844  10.872   6.218
20456SOL    HW263208  12.916  10.744   6.253
20457SOL     OW63209   7.445   9.352  11.962
20457SOL    HW163210   7.461   9.413  11.890
20457SOL    HW263211   7.510   9.376  12.029
20458SOL     OW63212  14.795  10.538  13.937
20458SOL    HW163213  14.804  10.448  13.966
20458SOL    HW263214  14.707  10.564  13.966
20459SOL     OW63215   0.666  12.720   1.781
20459SOL    HW163216   0.592  12.722   1.720
20459SOL    HW263217   0.695  12.628   1.781
20460SOL     OW63218   6.061   9.641   4.380
20460SOL    HW163219   5.968   9.631   4.361
20460SOL    HW263220   6.104   9.643   4.294
20461SOL     OW63221   7.238   3.067   3.064
20461SOL    HW163222   7.322   3.031   3.036
20461SOL    HW263223   7.174   2.999   3.044
20462SOL     OW63224   5.083  14.263   4.103
20462SOL    HW163225   5.155  14.325   4.118
20462SOL    HW263226   5.067  14.224   4.189
20463SOL     OW63227  10.196   1.459   3.193
20463SOL    HW163228  10.139   1.469   3.116
20463SOL    HW263229  10.284   1.462   3.157
20464SOL     OW63230  10.267   7.965   3.298
20464SOL    HW163231  10.310   8.043   3.264
20464SOL    HW263232  10.329   7.928   3.361
20465SOL     OW63233   3.979  14.875   6.445
20465SOL    HW163234   3.907  14.812   6.452
20465SOL    HW263235   4.024  14.868   6.529
20466SOL     OW63236  10.585  11.292   2.869
20466SOL    HW163237  10.519  11.230   2.899
20466SOL    HW263238  10.566  11.372   2.918
20467SOL     OW63239  13.024   1.775   5.886
20467SOL    HW163240  12.961   1.846   5.902
20467SOL    HW263241  13.065   1.798   5.803
20468SOL     OW63242   7.656  10.948   9.262
20468SOL    HW163243   7.587  10.887   9.235
20468SOL    HW263244   7.712  10.955   9.185
20469SOL     OW63245   7.944   9.244   2.099
20469SOL    HW163246   7.904   9.184   2.036
20469SOL    HW263247   7.886   9.320   2.100
20470SOL     OW63248   0.014  10.379   7.208
20470SOL    HW163249   0.092  10.423   7.173
20470SOL    HW263250   0.034  10.367   7.301
20471SOL     OW63251   2.773   2.343   0.020
20471SOL    HW163252   2.813   2.306  14.821
20471SOL    HW263253   2.844   2.392   0.062
20472SOL     OW63254   5.675  12.641   4.257
20472SOL    HW163255   5.735  12.568   4.248
20472SOL    HW263256   5.729  12.719   4.248
20473SOL     OW63257   1.599  14.531   1.317
20473SOL    HW163258   1.519  14.540   1.369
20473SOL    HW263259   1.570  14.486   1.237
20474SOL     OW63260  14.157  10.735   8.562
20474SOL    HW163261  14.242  10.696   8.541
20474SOL    HW263262  14.112  10.743   8.478
20475SOL     OW63263   0.801   1.266   0.113
20475SOL    HW163264   0.865   1.233   0.050
20475SOL    HW263265   0.799   1.360   0.099
20476SOL     OW63266   9.816   5.861   3.453
20476SOL    HW163267   9.902   5.818   3.457
20476SOL    HW263268   9.830   5.937   3.397
20477SOL     OW63269  11.078   5.254   4.655
20477SOL    HW163270  11.037   5.335   4.625
20477SOL    HW263271  11.069   5.257   4.750
20478SOL     OW63272   2.051   5.368   7.845
20478SOL    HW163273   1.984   5.384   7.780
20478SOL    HW263274   2.010   5.392   7.929
20479SOL     OW63275   2.936  10.625   1.806
20479SOL    HW163276   2.903  10.558   1.866
20479SOL    HW263277   3.031  10.614   1.809
20480SOL     OW63278  11.571  12.289   4.114
20480SOL    HW163279  11.520  12.241   4.180
20480SOL    HW263280  11.513  12.297   4.039
20481SOL     OW63281   2.343   0.972   0.966
20481SOL    HW163282   2.272   0.931   0.916
20481SOL    HW263283   2.354   1.058   0.926
20482SOL     OW63284   2.982   0.736  12.639
20482SOL    HW163285   2.974   0.747  12.545
20482SOL    HW263286   3.070   0.769  12.660
20483SOL     OW63287   5.754   1.595   6.525
20483SOL    HW163288   5.776   1.628   6.612
20483SOL    HW263289   5.692   1.524   6.541
20484SOL     OW63290   4.403   5.455  11.924
20484SOL    HW163291   4.435   5.402  11.997
20484SOL    HW263292   4.309   5.442  11.924
20485SOL     OW63293   0.339  10.265   2.779
20485SOL    HW163294   0.323  10.183   2.732
20485SOL    HW263295   0.397  10.315   2.722
20486SOL     OW63296   1.134   5.800   3.959
20486SOL    HW163297   1.114   5.807   4.052
20486SOL    HW263298   1.188   5.722   3.952
20487SOL     OW63299   9.206   3.495   6.266
20487SOL    HW163300   9.285   3.508   6.214
20487SOL    HW263301   9.176   3.407   6.242
20488SOL     OW63302   9.967   3.989   0.954
20488SOL    HW163303  10.036   4.008   1.018
20488SOL    HW263304   9.896   3.952   1.006
20489SOL     OW63305   6.785  14.671   5.981
20489SOL    HW163306   6.798  14.612   5.906
20489SOL    HW263307   6.712  14.633   6.029
20490SOL     OW63308  12.775  10.893  11.790
20490SOL    HW163309  12.735  10.838  11.722
20490SOL    HW263310  12.869  10.890  11.770
20491SOL     OW63311  12.419  13.110  14.334
20491SOL    HW163312  12.330  13.096  14.301
20491SOL    HW263313  12.434  13.037  14.394
20492SOL     OW63314  14.331   1.661  12.931
20492SOL    HW163315  14.278   1.642  12.854
20492SOL    HW263316  14.279   1.630  13.005
20493SOL     OW63317   0.102   6.142   5.716
20493SOL    HW163318   0.023   6.088   5.712
20493SOL    HW263319   0.103   6.189   5.632
20494SOL     OW63320  13.192   2.887   9.638
20494SOL    HW163321  13.197   2.850   9.726
20494SOL    HW263322  13.215   2.815   9.579
20495SOL     OW63323   6.889   5.404   1.952
20495SOL    HW163324   6.864   5.323   1.996
20495SOL    HW263325   6.813   5.426   1.898
20496SOL     OW63326  11.267   6.336  11.370
20496SOL    HW163327  11.350   6.380  11.386
20496SOL    HW263328  11.276   6.251  11.413
20497SOL     OW63329  12.965   9.030   0.236
20497SOL    HW163330  12.925   9.009   0.151
20497SOL    HW263331  12.992   9.121   0.228
20498SOL     OW63332   4.241   8.665   2.873
20498SOL    HW163333   4.173   8.708   2.820
20498SOL    HW263334   4.272   8.733   2.932
20499SOL     OW63335   0.009   1.969   8.559
20499SOL    HW163336   0.098   1.961   8.593
20499SOL    HW263337   0.020   2.007   8.472
20500SOL     OW63338  12.415   0.819   3.950
20500SOL    HW163339  12.410   0.833   4.045
20500SOL    HW263340  12.395   0.904   3.912
20501SOL     OW63341   9.591  13.352  11.717
20501SOL    HW163342   9.667  13.404  11.742
20501SOL    HW263343   9.617  13.261  11.735
20502SOL     OW63344   3.447  12.144   2.296
20502SOL    HW163345   3.510  12.216   2.290
20502SOL    HW263346   3.364  12.183   2.266
20503SOL     OW63347   3.413   1.439  10.094
20503SOL    HW163348   3.431   1.462  10.003
20503SOL    HW263349   3.384   1.520  10.134
20504SOL     OW63350  10.074   1.954   2.287
20504SOL    HW163351   9.989   1.938   2.328
20504SOL    HW263352  10.070   2.045   2.258
20505SOL     OW63353   4.652  11.569   9.898
20505SOL    HW163354   4.704  11.491   9.917
20505SOL    HW263355   4.635  11.565   9.804
20506SOL     OW63356   6.011   8.330   1.746
20506SOL    HW163357   6.010   8.255   1.687
20506SOL    HW263358   5.987   8.405   1.691
20507SOL     OW63359   3.987   0.032   1.963
20507SOL    HW163360   3.977  14.831   1.913
20507SOL    HW263361   4.032   0.005   2.044
20508SOL     OW63362  11.169   7.594   1.932
20508SOL    HW163363  11.191   7.675   1.978
20508SOL    HW263364  11.161   7.620   1.840
20509SOL     OW63365   0.173   3.796   0.640
20509SOL    HW163366   0.149   3.833   0.724
20509SOL    HW263367   0.131   3.710   0.639
20510SOL     OW63368   0.544   8.202  14.284
20510SOL    HW163369   0.621   8.155  14.316
20510SOL    HW263370   0.499   8.139  14.227
20511SOL     OW63371   6.773  14.020  10.467
20511SOL    HW163372   6.701  13.981  10.517
20511SOL    HW263373   6.830  14.058  10.533
20512SOL     OW63374  11.062   5.769   6.389
20512SOL    HW163375  10.997   5.796   6.454
20512SOL    HW263376  11.030   5.685   6.356
20513SOL     OW63377   1.164  12.097   3.358
20513SOL    HW163378   1.130  12.167   3.303
20513SOL    HW263379   1.255  12.087   3.330
20514SOL     OW63380   5.776   7.357   6.877
20514SOL    HW163381   5.718   7.379   6.949
20514SOL    HW263382   5.771   7.433   6.818
20515SOL     OW63383   1.902  10.637   6.065
20515SOL    HW163384   1.875  10.549   6.090
20515SOL    HW263385   1.952  10.625   5.984
20516SOL     OW63386   0.780  10.988   3.510
20516SOL    HW163387   0.709  11.030   3.461
20516SOL    HW263388   0.746  10.978   3.599
20517SOL     OW63389  10.003   3.156   0.293
20517SOL    HW163390  10.007   3.129   0.384
20517SOL    HW263391  10.027   3.078   0.243
20518SOL     OW63392  10.885   6.005   8.305
20518SOL    HW163393  10.822   5.979   8.238
20518SOL    HW263394  10.939   6.072   8.263
20519SOL     OW63395   9.542   6.058   0.764
20519SOL    HW163396   9.630   6.026   0.783
20519SOL    HW263397   9.549   6.097   0.677
20520SOL     OW63398   5.798   1.650   0.113
20520SOL    HW163399   5.869   1.710   0.089
20520SOL    HW263400   5.731   1.664   0.046
20521SOL     OW63401   0.805   6.617   9.357
20521SOL    HW163402   0.718   6.578   9.350
20521SOL    HW263403   0.820   6.626   9.452
20522SOL     OW63404  11.634   9.022   3.546
20522SOL    HW163405  11.640   8.943   3.600
20522SOL    HW263406  11.673   8.997   3.463
20523SOL     OW63407  13.352   8.081   6.831
20523SOL    HW163408  13.281   8.033   6.788
20523SOL    HW263409  13.385   8.019   6.897
20524SOL     OW63410   0.712   0.512   6.347
20524SOL    HW163411   0.692   0.514   6.440
20524SOL    HW263412   0.635   0.471   6.307
20525SOL     OW63413   5.970   8.084   0.397
20525SOL    HW163414   6.029   8.013   0.423
20525SOL    HW263415   6.026   8.147   0.353
20526SOL     OW63416  14.043  12.042   2.912
20526SOL    HW163417  13.969  12.038   2.852
20526SOL    HW263418  14.043  12.133   2.944
20527SOL     OW63419   9.856   1.255  14.267
20527SOL    HW163420   9.854   1.282  14.359
20527SOL    HW263421   9.913   1.320  14.225
20528SOL     OW63422   7.190   0.640  13.420
20528SOL    HW163423   7.193   0.545  13.430
20528SOL    HW263424   7.165   0.654  13.329
20529SOL     OW63425   1.920   6.603   1.447
20529SOL    HW163426   1.913   6.695   1.469
20529SOL    HW263427   2.014   6.584   1.453
20530SOL     OW63428   8.553   4.499   6.667
20530SOL    HW163429   8.514   4.514   6.581
20530SOL    HW263430   8.647   4.512   6.653
20531SOL     OW63431   8.346   3.861   9.231
20531SOL    HW163432   8.442   3.857   9.227
20531SOL    HW263433   8.318   3.837   9.142
20532SOL     OW63434  11.586   4.846   6.138
20532SOL    HW163435  11.594   4.751   6.153
20532SOL    HW263436  11.578   4.855   6.043
20533SOL     OW63437   1.331   4.880  14.031
20533SOL    HW163438   1.292   4.852  13.949
20533SOL    HW263439   1.405   4.935  14.006
20534SOL     OW63440   8.939   3.641   6.835
20534SOL    HW163441   8.876   3.673   6.770
20534SOL    HW263442   8.949   3.714   6.896
20535SOL     OW63443   9.612   7.411  10.046
20535SOL    HW163444   9.699   7.402  10.087
20535SOL    HW263445   9.626   7.474   9.976
20536SOL     OW63446  10.757   2.860   0.260
20536SOL    HW163447  10.713   2.919   0.321
20536SOL    HW263448  10.779   2.915   0.184
20537SOL     OW63449   2.178   5.663  12.083
20537SOL    HW163450   2.110   5.631  12.025
20537SOL    HW263451   2.260   5.637  12.041
20538SOL     OW63452  11.041   6.297   7.014
20538SOL    HW163453  10.952   6.266   6.999
20538SOL    HW263454  11.035   6.392   7.010
20539SOL     OW63455  13.589   3.645   8.784
20539SOL    HW163456  13.544   3.728   8.764
20539SOL    HW263457  13.572   3.591   8.707
20540SOL     OW63458   2.600   2.136  12.493
20540SOL    HW163459   2.608   2.198  12.566
20540SOL    HW263460   2.562   2.057  12.532
20541SOL     OW63461   1.993   9.024   8.451
20541SOL    HW163462   2.000   8.956   8.385
20541SOL    HW263463   2.080   9.028   8.492
20542SOL     OW63464   1.708   4.233   8.636
20542SOL    HW163465   1.718   4.199   8.725
20542SOL    HW263466   1.754   4.317   8.637
20543SOL     OW63467   7.899   8.239   5.280
20543SOL    HW163468   7.827   8.231   5.342
20543SOL    HW263469   7.949   8.315   5.311
20544SOL     OW63470   5.219  13.105   0.496
20544SOL    HW163471   5.187  13.029   0.544
20544SOL    HW263472   5.236  13.171   0.563
20545SOL     OW63473   5.792  11.732   6.620
20545SOL    HW163474   5.764  11.809   6.569
20545SOL    HW263475   5.861  11.692   6.567
20546SOL     OW63476   6.814   1.657  12.928
20546SOL    HW163477   6.797   1.697  13.013
20546SOL    HW263478   6.853   1.727  12.876
20547SOL     OW63479   2.172   0.950  11.122
20547SOL    HW163480   2.103   1.006  11.087
20547SOL    HW263481   2.169   0.965  11.216
20548SOL     OW63482   2.886   3.693  12.784
20548SOL    HW163483   2.950   3.738  12.839
20548SOL    HW263484   2.884   3.604  12.817
20549SOL     OW63485   5.087  14.077   9.629
20549SOL    HW163486   5.153  14.032   9.576
20549SOL    HW263487   5.060  14.012   9.694
20550SOL     OW63488  14.053   8.838  12.734
20550SOL    HW163489  13.986   8.821  12.800
20550SOL    HW263490  14.066   8.933  12.736
20551SOL     OW63491  12.524   4.960   7.898
20551SOL    HW163492  12.594   4.990   7.955
20551SOL    HW263493  12.553   4.982   7.809
20552SOL     OW63494  11.558  12.456  13.926
20552SOL    HW163495  11.469  12.487  13.909
20552SOL    HW263496  11.555  12.362  13.910
20553SOL     OW63497   0.566  11.254   6.175
20553SOL    HW163498   0.550  11.309   6.251
20553SOL    HW263499   0.646  11.290   6.135
20554SOL     OW63500   1.404   3.356  11.534
20554SOL    HW163501   1.406   3.333  11.627
20554SOL    HW263502   1.311   3.358  11.511
20555SOL     OW63503   5.693   6.919   3.108
20555SOL    HW163504   5.766   6.908   3.168
20555SOL    HW263505   5.725   6.983   3.043
20556SOL     OW63506   5.756  12.034   0.900
20556SOL    HW163507   5.825  11.997   0.955
20556SOL    HW263508   5.675  11.992   0.932
20557SOL     OW63509  13.988   7.627  12.287
20557SOL    HW163510  13.998   7.660  12.197
20557SOL    HW263511  13.974   7.533  12.276
20558SOL     OW63512   3.694  13.598   1.690
20558SOL    HW163513   3.669  13.540   1.619
20558SOL    HW263514   3.694  13.685   1.651
20559SOL     OW63515  10.598   0.397  13.316
20559SOL    HW163516  10.593   0.453  13.239
20559SOL    HW263517  10.524   0.423  13.370
20560SOL     OW63518   8.928   5.303  12.128
20560SOL    HW163519   8.885   5.389  12.132
20560SOL    HW263520   9.009   5.315  12.178
20561SOL     OW63521   5.776   4.206   9.726
20561SOL    HW163522   5.752   4.170   9.812
20561SOL    HW263523   5.724   4.155   9.664
20562SOL     OW63524  11.386  10.025  13.940
20562SOL    HW163525  11.370  10.100  13.997
20562SOL    HW263526  11.437  10.061  13.867
20563SOL     OW63527   6.921   8.468  14.773
20563SOL    HW163528   6.834   8.432  14.787
20563SOL    HW263529   6.907   8.562  14.764
20564SOL     OW63530   8.037   2.308   5.509
20564SOL    HW163531   7.976   2.282   5.577
20564SOL    HW263532   8.004   2.392   5.478
20565SOL     OW63533   9.549   5.586   9.181
20565SOL    HW163534   9.528   5.507   9.130
20565SOL    HW263535   9.467   5.634   9.186
20566SOL     OW63536  10.205  11.920   9.566
20566SOL    HW163537  10.121  11.965   9.562
20566SOL    HW263538  10.215  11.880   9.480
20567SOL     OW63539  14.543   4.494  11.311
20567SOL    HW163540  14.548   4.589  11.306
20567SOL    HW263541  14.590   4.463  11.233
20568SOL     OW63542   4.269   1.312   9.126
20568SOL    HW163543   4.191   1.363   9.101
20568SOL    HW263544   4.291   1.344   9.213
20569SOL     OW63545  13.104   9.666  14.400
20569SOL    HW163546  13.176   9.659  14.464
20569SOL    HW263547  13.037   9.717  14.446
20570SOL     OW63548   8.786   7.259  13.607
20570SOL    HW163549   8.863   7.315  13.622
20570SOL    HW263550   8.711   7.316  13.624
20571SOL     OW63551   8.752   0.022   1.161
20571SOL    HW163552   8.771  14.808   1.152
20571SOL    HW263553   8.729   0.050   1.072
20572SOL     OW63554   3.586   9.453  11.951
20572SOL    HW163555   3.635   9.474  12.031
20572SOL    HW263556   3.503   9.500  11.961
20573SOL     OW63557   2.943  10.362   4.297
20573SOL    HW163558   2.900  10.364   4.383
20573SOL    HW263559   2.955  10.269   4.279
20574SOL     OW63560   8.553  14.111   6.104
20574SOL    HW163561   8.489  14.066   6.160
20574SOL    HW263562   8.536  14.204   6.119
20575SOL     OW63563   3.916  13.838   8.238
20575SOL    HW163564   3.918  13.902   8.309
20575SOL    HW263565   3.946  13.756   8.278
20576SOL     OW63566   9.537   3.921  10.741
20576SOL    HW163567   9.540   3.912  10.836
20576SOL    HW263568   9.628   3.932  10.715
20577SOL     OW63569   2.761   9.313   3.719
20577SOL    HW163570   2.798   9.381   3.662
20577SOL    HW263571   2.687   9.355   3.762
20578SOL     OW63572   1.728   9.345   7.567
20578SOL    HW163573   1.701   9.320   7.478
20578SOL    HW263574   1.819   9.316   7.573
20579SOL     OW63575   2.841   1.503   9.307
20579SOL    HW163576   2.844   1.599   9.300
20579SOL    HW263577   2.933   1.477   9.311
20580SOL     OW63578  14.223  10.523   7.809
20580SOL    HW163579  14.232  10.437   7.850
20580SOL    HW263580  14.264  10.513   7.723
20581SOL     OW63581   0.190   2.813   4.611
20581SOL    HW163582   0.186   2.830   4.517
20581SOL    HW263583   0.113   2.858   4.647
20582SOL     OW63584   2.807   9.208   3.226
20582SOL    HW163585   2.813   9.211   3.321
20582SOL    HW263586   2.836   9.294   3.197
20583SOL     OW63587   1.673   1.938   4.871
20583SOL    HW163588   1.676   1.962   4.779
20583SOL    HW263589   1.722   1.856   4.876
20584SOL     OW63590   7.371  12.014   6.764
20584SOL    HW163591   7.391  11.984   6.853
20584SOL    HW263592   7.421  11.954   6.708
20585SOL     OW63593   6.171   3.857  11.051
20585SOL    HW163594   6.237   3.793  11.076
20585SOL    HW263595   6.218   3.921  10.998
20586SOL     OW63596   0.678   9.367   4.616
20586SOL    HW163597   0.772   9.367   4.598
20586SOL    HW263598   0.653   9.275   4.613
20587SOL     OW63599   7.498   7.148  11.434
20587SOL    HW163600   7.501   7.153  11.338
20587SOL    HW263601   7.473   7.236  11.462
20588SOL     OW63602   2.340  13.321  11.278
20588SOL    HW163603   2.397  13.247  11.258
20588SOL    HW263604   2.251  13.289  11.262
20589SOL     OW63605   7.157   9.411   3.374
20589SOL    HW163606   7.136   9.494   3.331
20589SOL    HW263607   7.193   9.356   3.305
20590SOL     OW63608  13.669   2.585   2.976
20590SOL    HW163609  13.736   2.518   2.966
20590SOL    HW263610  13.621   2.559   3.055
20591SOL     OW63611   1.341   3.705  13.737
20591SOL    HW163612   1.308   3.787  13.701
20591SOL    HW263613   1.278   3.639  13.707
20592SOL     OW63614   4.097   5.127  11.453
20592SOL    HW163615   4.146   5.047  11.436
20592SOL    HW263616   4.098   5.136  11.549
20593SOL     OW63617   6.371  13.155  10.862
20593SOL    HW163618   6.425  13.076  10.858
20593SOL    HW263619   6.361  13.182  10.770
20594SOL     OW63620   5.739   4.966   1.673
20594SOL    HW163621   5.741   5.058   1.649
20594SOL    HW263622   5.688   4.963   1.754
20595SOL     OW63623   5.804  14.657   0.423
20595SOL    HW163624   5.813  14.747   0.455
20595SOL    HW263625   5.719  14.656   0.378
20596SOL     OW63626   8.505  12.361  13.009
20596SOL    HW163627   8.440  12.371  12.940
20596SOL    HW263628   8.585  12.400  12.973
20597SOL     OW63629   6.302  12.813   4.695
20597SOL    HW163630   6.294  12.806   4.600
20597SOL    HW263631   6.396  12.826   4.711
20598SOL     OW63632  14.541   5.895   0.642
20598SOL    HW163633  14.523   5.984   0.673
20598SOL    HW263634  14.552   5.904   0.548
20599SOL     OW63635  13.622   9.184  11.416
20599SOL    HW163636  13.657   9.097  11.398
20599SOL    HW263637  13.654   9.239  11.344
20600SOL     OW63638   2.426   4.645   2.027
20600SOL    HW163639   2.422   4.705   1.953
20600SOL    HW263640   2.352   4.586   2.015
20601SOL     OW63641   6.399   5.400   8.286
20601SOL    HW163642   6.311   5.391   8.248
20601SOL    HW263643   6.402   5.333   8.354
20602SOL     OW63644   8.671  11.483  12.719
20602SOL    HW163645   8.677  11.394  12.753
20602SOL    HW263646   8.588  11.516  12.752
20603SOL     OW63647   6.770   5.276   1.279
20603SOL    HW163648   6.695   5.265   1.221
20603SOL    HW263649   6.835   5.214   1.246
20604SOL     OW63650  11.907   9.800   1.004
20604SOL    HW163651  11.828   9.854   0.999
20604SOL    HW263652  11.967   9.852   1.059
20605SOL     OW63653   8.073   0.293   6.535
20605SOL    HW163654   8.037   0.225   6.592
20605SOL    HW263655   8.102   0.246   6.457
20606SOL     OW63656   2.219   2.171  11.919
20606SOL    HW163657   2.156   2.243  11.928
20606SOL    HW263658   2.304   2.214  11.921
20607SOL     OW63659   9.603   3.547   1.435
20607SOL    HW163660   9.545   3.622   1.449
20607SOL    HW263661   9.655   3.541   1.516
20608SOL     OW63662   0.855   6.300   8.573
20608SOL    HW163663   0.891   6.330   8.489
20608SOL    HW263664   0.784   6.362   8.591
20609SOL     OW63665   7.465   2.477   6.226
20609SOL    HW163666   7.519   2.543   6.268
20609SOL    HW263667   7.519   2.442   6.155
20610SOL     OW63668   1.298   2.631  13.405
20610SOL    HW163669   1.235   2.702  13.421
20610SOL    HW263670   1.322   2.641  13.313
20611SOL     OW63671   3.770  10.324   1.159
20611SOL    HW163672   3.854  10.299   1.199
20611SOL    HW263673   3.704  10.292   1.221
20612SOL     OW63674   4.903  14.422  12.421
20612SOL    HW163675   4.892  14.342  12.471
20612SOL    HW263676   4.971  14.401  12.356
20613SOL     OW63677   4.053   3.842  11.712
20613SOL    HW163678   4.115   3.770  11.711
20613SOL    HW263679   3.973   3.805  11.674
20614SOL     OW63680   0.923  12.946   8.208
20614SOL    HW163681   0.927  13.040   8.191
20614SOL    HW263682   0.829  12.926   8.208
20615SOL     OW63683  14.409   9.555   8.894
20615SOL    HW163684  14.374   9.479   8.847
20615SOL    HW263685  14.451   9.517   8.971
20616SOL     OW63686   1.166   6.400   3.439
20616SOL    HW163687   1.251   6.419   3.479
20616SOL    HW263688   1.102   6.426   3.504
20617SOL     OW63689  10.546   8.245   6.641
20617SOL    HW163690  10.486   8.310   6.604
20617SOL    HW263691  10.595   8.212   6.566
20618SOL     OW63692  13.193   3.543   1.264
20618SOL    HW163693  13.161   3.540   1.174
20618SOL    HW263694  13.259   3.613   1.263
20619SOL     OW63695   6.224  10.449   9.202
20619SOL    HW163696   6.270  10.378   9.158
20619SOL    HW263697   6.134  10.444   9.169
20620SOL     OW63698  11.365   5.195   9.671
20620SOL    HW163699  11.376   5.267   9.609
20620SOL    HW263700  11.270   5.183   9.678
20621SOL     OW63701   0.779  10.320   2.131
20621SOL    HW163702   0.811  10.306   2.220
20621SOL    HW263703   0.757  10.413   2.127
20622SOL     OW63704   7.757   1.597  13.775
20622SOL    HW163705   7.680   1.541  13.781
20622SOL    HW263706   7.723   1.681  13.743
20623SOL     OW63707  14.534   2.938   9.095
20623SOL    HW163708  14.441   2.960   9.096
20623SOL    HW263709  14.576   3.010   9.048
20624SOL     OW63710   1.066   0.040  14.442
20624SOL    HW163711   0.995   0.103  14.457
20624SOL    HW263712   1.026  14.851  14.390
20625SOL     OW63713   4.661   6.247  12.617
20625SOL    HW163714   4.679   6.259  12.710
20625SOL    HW263715   4.745   6.223  12.579
20626SOL     OW63716   2.169   1.891   9.812
20626SOL    HW163717   2.172   1.956   9.742
20626SOL    HW263718   2.143   1.940   9.890
20627SOL     OW63719   3.592   1.095   9.974
20627SOL    HW163720   3.651   1.170   9.972
20627SOL    HW263721   3.552   1.097  10.061
20628SOL     OW63722   5.418  13.935  14.570
20628SOL    HW163723   5.327  13.956  14.593
20628SOL    HW263724   5.466  14.016  14.589
20629SOL     OW63725   7.829   2.860   8.444
20629SOL    HW163726   7.818   2.767   8.462
20629SOL    HW263727   7.881   2.893   8.518
20630SOL     OW63728   0.058   8.149   4.896
20630SOL    HW163729   0.070   8.160   4.990
20630SOL    HW263730   0.147   8.138   4.861
20631SOL     OW63731  11.366  14.096   4.410
20631SOL    HW163732  11.316  14.153   4.351
20631SOL    HW263733  11.314  14.095   4.490
20632SOL     OW63734  14.086   2.115   0.397
20632SOL    HW163735  14.040   2.145   0.475
20632SOL    HW263736  14.023   2.057   0.353
20633SOL     OW63737  12.277   9.951   9.651
20633SOL    HW163738  12.329  10.018   9.606
20633SOL    HW263739  12.288   9.971   9.744
20634SOL     OW63740   9.558   5.630   7.736
20634SOL    HW163741   9.519   5.670   7.813
20634SOL    HW263742   9.652   5.634   7.752
20635SOL     OW63743  14.774   8.881   7.353
20635SOL    HW163744  14.751   8.801   7.305
20635SOL    HW263745  14.692   8.929   7.361
20636SOL     OW63746   0.220   3.498   3.235
20636SOL    HW163747   0.173   3.512   3.152
20636SOL    HW263748   0.275   3.577   3.245
20637SOL     OW63749   3.363   5.214   7.714
20637SOL    HW163750   3.337   5.132   7.671
20637SOL    HW263751   3.346   5.199   7.807
20638SOL     OW63752   1.554   5.117  10.577
20638SOL    HW163753   1.504   5.197  10.563
20638SOL    HW263754   1.539   5.065  10.498
20639SOL     OW63755   8.686   1.764   0.467
20639SOL    HW163756   8.601   1.722   0.483
20639SOL    HW263757   8.663   1.846   0.423
20640SOL     OW63758  13.388   4.917  14.487
20640SOL    HW163759  13.302   4.952  14.510
20640SOL    HW263760  13.447   4.992  14.497
20641SOL     OW63761  12.808   0.885   2.282
20641SOL    HW163762  12.824   0.945   2.355
20641SOL    HW263763  12.713   0.885   2.273
20642SOL     OW63764  13.539   7.531   7.121
20642SOL    HW163765  13.552   7.553   7.029
20642SOL    HW263766  13.514   7.613   7.163
20643SOL     OW63767   4.861   9.938   9.666
20643SOL    HW163768   4.893   9.853   9.695
20643SOL    HW263769   4.880   9.997   9.740
20644SOL     OW63770  13.962   2.257  14.132
20644SOL    HW163771  13.939   2.232  14.043
20644SOL    HW263772  14.050   2.293  14.124
20645SOL     OW63773   8.047   3.238  10.658
20645SOL    HW163774   8.067   3.153  10.618
20645SOL    HW263775   7.955   3.231  10.685
20646SOL     OW63776   8.515   9.564   5.726
20646SOL    HW163777   8.496   9.655   5.749
20646SOL    HW263778   8.443   9.514   5.762
20647SOL     OW63779   5.164   9.434   6.954
20647SOL    HW163780   5.134   9.363   6.897
20647SOL    HW263781   5.244   9.401   6.994
20648SOL     OW63782   8.765  12.469   4.888
20648SOL    HW163783   8.755  12.478   4.983
20648SOL    HW263784   8.835  12.404   4.879
20649SOL     OW63785   0.094   4.195   3.177
20649SOL    HW163786   0.152   4.189   3.252
20649SOL    HW263787   0.108   4.283   3.143
20650SOL     OW63788  12.168  14.510   1.428
20650SOL    HW163789  12.152  14.463   1.510
20650SOL    HW263790  12.160  14.443   1.360
20651SOL     OW63791  14.578  14.858   2.158
20651SOL    HW163792  14.561   0.069   2.182
20651SOL    HW263793  14.518  14.840   2.086
20652SOL     OW63794   3.853   2.437  13.443
20652SOL    HW163795   3.891   2.525  13.449
20652SOL    HW263796   3.790   2.434  13.515
20653SOL     OW63797   4.353   8.958   3.390
20653SOL    HW163798   4.294   8.968   3.465
20653SOL    HW263799   4.432   8.919   3.428
20654SOL     OW63800   2.313  13.306  11.557
20654SOL    HW163801   2.321  13.313  11.462
20654SOL    HW263802   2.369  13.375  11.592
20655SOL     OW63803  10.898   1.712   2.787
20655SOL    HW163804  10.956   1.769   2.736
20655SOL    HW263805  10.817   1.763   2.795
20656SOL     OW63806   4.497   9.895  12.975
20656SOL    HW163807   4.434   9.825  12.991
20656SOL    HW263808   4.580   9.851  12.962
20657SOL     OW63809   9.177  14.060   3.541
20657SOL    HW163810   9.138  14.066   3.628
20657SOL    HW263811   9.243  14.130   3.541
20658SOL     OW63812   6.042   6.040   6.427
20658SOL    HW163813   6.083   6.021   6.343
20658SOL    HW263814   6.030   5.954   6.467
20659SOL     OW63815   1.288   4.692   3.156
20659SOL    HW163816   1.349   4.634   3.110
20659SOL    HW263817   1.344   4.762   3.191
20660SOL     OW63818   7.207  14.002  12.816
20660SOL    HW163819   7.184  13.944  12.743
20660SOL    HW263820   7.179  13.955  12.894
20661SOL     OW63821  13.900  10.080   1.045
20661SOL    HW163822  13.874  10.033   0.966
20661SOL    HW263823  13.951  10.155   1.013
20662SOL     OW63824  10.182  13.331  10.940
20662SOL    HW163825  10.143  13.251  10.974
20662SOL    HW263826  10.122  13.400  10.967
20663SOL     OW63827  12.057   7.795  14.145
20663SOL    HW163828  12.086   7.735  14.076
20663SOL    HW263829  11.968   7.819  14.119
20664SOL     OW63830   0.806   3.625  11.021
20664SOL    HW163831   0.867   3.583  11.082
20664SOL    HW263832   0.777   3.553  10.964
20665SOL     OW63833   3.603   3.150   1.228
20665SOL    HW163834   3.567   3.084   1.288
20665SOL    HW263835   3.546   3.226   1.240
20666SOL     OW63836  11.838   2.502   8.040
20666SOL    HW163837  11.916   2.496   7.985
20666SOL    HW263838  11.796   2.416   8.031
20667SOL     OW63839   1.061   2.239   9.763
20667SOL    HW163840   1.010   2.291   9.701
20667SOL    HW263841   1.093   2.303   9.827
20668SOL     OW63842   9.454  12.720  12.610
20668SOL    HW163843   9.386  12.739  12.546
20668SOL    HW263844   9.532  12.763  12.575
20669SOL     OW63845  13.936   0.231  11.755
20669SOL    HW163846  13.978   0.292  11.816
20669SOL    HW263847  13.917   0.284  11.678
20670SOL     OW63848  13.836   0.734   6.939
20670SOL    HW163849  13.774   0.665   6.962
20670SOL    HW263850  13.879   0.756   7.021
20671SOL     OW63851   2.688  11.624   4.621
20671SOL    HW163852   2.774  11.624   4.663
20671SOL    HW263853   2.628  11.656   4.689
20672SOL     OW63854  12.349  14.031  13.204
20672SOL    HW163855  12.384  14.121  13.203
20672SOL    HW263856  12.304  14.025  13.288
20673SOL     OW63857   6.897   7.861   3.899
20673SOL    HW163858   6.853   7.935   3.858
20673SOL    HW263859   6.982   7.856   3.855
20674SOL     OW63860  12.634   7.988   1.888
20674SOL    HW163861  12.601   7.902   1.911
20674SOL    HW263862  12.568   8.024   1.829
20675SOL     OW63863  11.404  10.676   9.240
20675SOL    HW163864  11.343  10.748   9.255
20675SOL    HW263865  11.479  10.717   9.197
20676SOL     OW63866   3.344   7.526   1.488
20676SOL    HW163867   3.303   7.477   1.559
20676SOL    HW263868   3.270   7.555   1.434
20677SOL     OW63869   3.343   2.023  11.783
20677SOL    HW163870   3.392   2.085  11.837
20677SOL    HW263871   3.409   1.962  11.751
20678SOL     OW63872   5.940   3.896   9.566
20678SOL    HW163873   5.871   3.838   9.597
20678SOL    HW263874   5.901   3.943   9.492
20679SOL     OW63875   2.606  11.389   2.769
20679SOL    HW163876   2.561  11.350   2.694
20679SOL    HW263877   2.567  11.346   2.846
20680SOL     OW63878   1.583   7.282   2.557
20680SOL    HW163879   1.653   7.225   2.587
20680SOL    HW263880   1.502   7.233   2.573
20681SOL     OW63881  10.049   1.522  11.946
20681SOL    HW163882  10.086   1.462  11.881
20681SOL    HW263883  10.064   1.609  11.909
20682SOL     OW63884  11.370   2.416   1.540
20682SOL    HW163885  11.433   2.349   1.563
20682SOL    HW263886  11.285   2.380   1.566
20683SOL     OW63887   6.960   6.073   6.152
20683SOL    HW163888   6.970   6.108   6.063
20683SOL    HW263889   6.906   6.139   6.197
20684SOL     OW63890   5.637  10.899   4.800
20684SOL    HW163891   5.576  10.844   4.849
20684SOL    HW263892   5.580  10.962   4.754
20685SOL     OW63893   3.331  10.920   7.820
20685SOL    HW163894   3.354  10.867   7.743
20685SOL    HW263895   3.308  10.856   7.887
20686SOL     OW63896  14.517   8.854  10.170
20686SOL    HW163897  14.558   8.855  10.083
20686SOL    HW263898  14.577   8.903  10.226
20687SOL     OW63899   3.768   6.457   9.509
20687SOL    HW163900   3.734   6.368   9.505
20687SOL    HW263901   3.695   6.512   9.480
20688SOL     OW63902  13.491   2.108   8.594
20688SOL    HW163903  13.533   2.049   8.656
20688SOL    HW263904  13.414   2.060   8.562
20689SOL     OW63905   1.915  13.986   7.783
20689SOL    HW163906   1.861  13.918   7.742
20689SOL    HW263907   1.964  14.024   7.711
20690SOL     OW63908  10.816   2.347   7.599
20690SOL    HW163909  10.802   2.433   7.637
20690SOL    HW263910  10.796   2.358   7.506
20691SOL     OW63911   6.561   5.529   9.096
20691SOL    HW163912   6.479   5.506   9.140
20691SOL    HW263913   6.618   5.558   9.167
20692SOL     OW63914  12.991  10.869   0.355
20692SOL    HW163915  12.981  10.958   0.322
20692SOL    HW263916  13.062  10.832   0.303
20693SOL     OW63917   9.852   5.505   3.615
20693SOL    HW163918   9.887   5.588   3.646
20693SOL    HW263919   9.789   5.478   3.682
20694SOL     OW63920   5.076   5.897   9.811
20694SOL    HW163921   5.081   5.828   9.876
20694SOL    HW263922   5.026   5.967   9.854
20695SOL     OW63923   6.335   6.747   1.094
20695SOL    HW163924   6.361   6.839   1.088
20695SOL    HW263925   6.374   6.705   1.018
20696SOL     OW63926  11.414  12.130   4.305
20696SOL    HW163927  11.325  12.160   4.289
20696SOL    HW263928  11.423  12.132   4.400
20697SOL     OW63929   6.277   8.019   5.028
20697SOL    HW163930   6.247   7.928   5.040
20697SOL    HW263931   6.362   8.022   5.073
20698SOL     OW63932  13.355   0.902  13.184
20698SOL    HW163933  13.303   0.943  13.253
20698SOL    HW263934  13.290   0.866  13.123
20699SOL     OW63935   3.780  14.537  10.183
20699SOL    HW163936   3.743  14.607  10.236
20699SOL    HW263937   3.705  14.496  10.141
20700SOL     OW63938   1.844   7.018  11.235
20700SOL    HW163939   1.930   6.974  11.239
20700SOL    HW263940   1.781   6.946  11.230
20701SOL     OW63941   8.350   5.576  10.498
20701SOL    HW163942   8.293   5.501  10.480
20701SOL    HW263943   8.294   5.637  10.546
20702SOL     OW63944  11.076  13.236   0.210
20702SOL    HW163945  11.058  13.331   0.205
20702SOL    HW263946  10.998  13.200   0.252
20703SOL     OW63947  14.506   0.710  13.242
20703SOL    HW163948  14.420   0.683  13.273
20703SOL    HW263949  14.548   0.629  13.214
20704SOL     OW63950   2.497   6.090   3.964
20704SOL    HW163951   2.568   6.048   3.915
20704SOL    HW263952   2.424   6.094   3.902
20705SOL     OW63953  13.523  13.497   1.238
20705SOL    HW163954  13.592  13.440   1.203
20705SOL    HW263955  13.505  13.462   1.325
20706SOL     OW63956   8.034   6.951   3.013
20706SOL    HW163957   8.115   6.903   3.001
20706SOL    HW263958   8.051   7.010   3.087
20707SOL     OW63959  12.314   6.930   8.259
20707SOL    HW163960  12.243   6.890   8.309
20707SOL    HW263961  12.306   6.892   8.171
20708SOL     OW63962   6.926  10.723  10.853
20708SOL    HW163963   6.969  10.770  10.781
20708SOL    HW263964   6.977  10.747  10.930
20709SOL     OW63965  12.562   3.243   5.582
20709SOL    HW163966  12.631   3.200   5.633
20709SOL    HW263967  12.539   3.179   5.514
20710SOL     OW63968   6.281  11.711  14.681
20710SOL    HW163969   6.359  11.702  14.736
20710SOL    HW263970   6.212  11.739  14.742
20711SOL     OW63971   3.650   8.484   4.712
20711SOL    HW163972   3.613   8.492   4.624
20711SOL    HW263973   3.740   8.514   4.703
20712SOL     OW63974  13.981  14.532   9.361
20712SOL    HW163975  14.069  14.544   9.397
20712SOL    HW263976  13.923  14.556   9.433
20713SOL     OW63977   7.796   6.750  11.027
20713SOL    HW163978   7.797   6.809  11.102
20713SOL    HW263979   7.806   6.663  11.065
20714SOL     OW63980   5.287  13.109   3.269
20714SOL    HW163981   5.312  13.066   3.188
20714SOL    HW263982   5.220  13.173   3.243
20715SOL     OW63983  11.647  11.975   4.933
20715SOL    HW163984  11.594  11.914   4.880
20715SOL    HW263985  11.609  12.061   4.914
20716SOL     OW63986   6.217   5.380   2.023
20716SOL    HW163987   6.145   5.400   1.962
20716SOL    HW263988   6.202   5.290   2.049
20717SOL     OW63989   4.445  10.041  10.625
20717SOL    HW163990   4.519  10.083  10.669
20717SOL    HW263991   4.465  10.049  10.532
20718SOL     OW63992  14.120   5.468  10.325
20718SOL    HW163993  14.089   5.555  10.301
20718SOL    HW263994  14.155   5.431  10.244
20719SOL     OW63995   8.039   3.964   3.375
20719SOL    HW163996   8.077   4.052   3.385
20719SOL    HW263997   8.113   3.905   3.385
20720SOL     OW63998   0.436  10.311   0.901
20720SOL    HW163999   0.492  10.275   0.969
20720SOL    HW264000   0.491  10.374   0.855
20721SOL     OW64001   3.300  12.089   5.348
20721SOL    HW164002   3.259  12.004   5.364
20721SOL    HW264003   3.227  12.150   5.337
20722SOL     OW64004  10.424   7.372   2.082
20722SOL    HW164005  10.518   7.391   2.089
20722SOL    HW264006  10.411   7.298   2.142
20723SOL     OW64007   9.911  14.047  14.161
20723SOL    HW164008   9.839  14.109  14.167
20723SOL    HW264009   9.929  14.021  14.251
20724SOL     OW64010  13.800  11.043   3.262
20724SOL    HW164011  13.706  11.058   3.274
20724SOL    HW264012  13.811  10.949   3.273
20725SOL     OW64013  13.369  13.701   7.328
20725SOL    HW164014  13.365  13.625   7.386
20725SOL    HW264015  13.290  13.695   7.274
20726SOL     OW64016   1.622   0.510   8.534
20726SOL    HW164017   1.685   0.582   8.542
20726SOL    HW264018   1.587   0.497   8.622
20727SOL     OW64019   8.131  14.477  10.822
20727SOL    HW164020   8.200  14.511  10.766
20727SOL    HW264021   8.065  14.442  10.762
20728SOL     OW64022  11.967   1.902  10.348
20728SOL    HW164023  12.043   1.854  10.380
20728SOL    HW264024  11.952   1.970  10.414
20729SOL     OW64025   2.899   3.240   6.703
20729SOL    HW164026   2.911   3.151   6.737
20729SOL    HW264027   2.949   3.241   6.621
20730SOL     OW64028   1.313   1.492   9.472
20730SOL    HW164029   1.299   1.445   9.390
20730SOL    HW264030   1.228   1.492   9.515
20731SOL     OW64031  11.646  12.641   4.909
20731SOL    HW164032  11.737  12.636   4.937
20731SOL    HW264033  11.612  12.722   4.948
20732SOL     OW64034   9.657  10.551   0.700
20732SOL    HW164035   9.712  10.493   0.753
20732SOL    HW264036   9.587  10.495   0.668
20733SOL     OW64037  14.145   9.322   3.117
20733SOL    HW164038  14.210   9.256   3.095
20733SOL    HW264039  14.072   9.272   3.154
20734SOL     OW64040   7.816   2.865   5.258
20734SOL    HW164041   7.863   2.868   5.341
20734SOL    HW264042   7.806   2.957   5.233
20735SOL     OW64043  14.031   2.285   8.022
20735SOL    HW164044  14.049   2.255   7.933
20735SOL    HW264045  14.044   2.380   8.018
20736SOL     OW64046   4.138   7.269  10.598
20736SOL    HW164047   4.145   7.331  10.526
20736SOL    HW264048   4.147   7.322  10.677
20737SOL     OW64049   2.382   6.735   4.259
20737SOL    HW164050   2.323   6.753   4.186
20737SOL    HW264051   2.413   6.822   4.286
20738SOL     OW64052   9.378  12.834   8.697
20738SOL    HW164053   9.289  12.860   8.723
20738SOL    HW264054   9.436  12.888   8.751
20739SOL     OW64055  12.380   7.997  11.117
20739SOL    HW164056  12.349   8.036  11.035
20739SOL    HW264057  12.428   8.067  11.161
20740SOL     OW64058  12.355  11.650  11.927
20740SOL    HW164059  12.308  11.685  11.851
20740SOL    HW264060  12.312  11.567  11.946
20741SOL     OW64061   0.535   7.553   0.080
20741SOL    HW164062   0.560   7.636   0.039
20741SOL    HW264063   0.455   7.574   0.129
20742SOL     OW64064   8.719   0.782   8.913
20742SOL    HW164065   8.626   0.802   8.924
20742SOL    HW264066   8.734   0.787   8.818
20743SOL     OW64067  13.349   0.964   0.442
20743SOL    HW164068  13.409   0.994   0.510
20743SOL    HW264069  13.269   1.014   0.456
20744SOL     OW64070   6.627   9.629  11.110
20744SOL    HW164071   6.561   9.690  11.143
20744SOL    HW264072   6.577   9.567  11.056
20745SOL     OW64073   6.376   7.232  13.621
20745SOL    HW164074   6.468   7.257  13.633
20745SOL    HW264075   6.329   7.282  13.687
20746SOL     OW64076  12.002   2.964  12.456
20746SOL    HW164077  11.934   2.937  12.395
20746SOL    HW264078  11.958   2.968  12.541
20747SOL     OW64079  13.707   3.461   5.377
20747SOL    HW164080  13.641   3.400   5.409
20747SOL    HW264081  13.656   3.529   5.332
20748SOL     OW64082   1.433  10.836  14.150
20748SOL    HW164083   1.460  10.745  14.164
20748SOL    HW264084   1.404  10.866  14.236
20749SOL     OW64085  14.755  14.377   2.203
20749SOL    HW164086  14.692  14.440   2.238
20749SOL    HW264087  14.735  14.374   2.109
20750SOL     OW64088  12.755   7.183  14.367
20750SOL    HW164089  12.830   7.165  14.311
20750SOL    HW264090  12.774   7.137  14.449
20751SOL     OW64091   6.067  12.187   7.975
20751SOL    HW164092   6.000  12.256   7.976
20751SOL    HW264093   6.128  12.214   7.906
20752SOL     OW64094   9.065   1.602  12.754
20752SOL    HW164095   8.979   1.643  12.761
20752SOL    HW264096   9.105   1.643  12.678
20753SOL     OW64097   6.027  13.217  14.542
20753SOL    HW164098   6.042  13.166  14.463
20753SOL    HW264099   6.079  13.297  14.530
20754SOL     OW64100   2.096   5.234  11.937
20754SOL    HW164101   2.149   5.284  11.874
20754SOL    HW264102   2.159   5.206  12.003
20755SOL     OW64103  11.568  14.339  11.224
20755SOL    HW164104  11.608  14.258  11.256
20755SOL    HW264105  11.487  14.348  11.275
20756SOL     OW64106   6.784   6.182   9.965
20756SOL    HW164107   6.704   6.200  10.015
20756SOL    HW264108   6.853   6.179  10.031
20757SOL     OW64109  12.666   0.723   3.091
20757SOL    HW164110  12.731   0.760   3.030
20757SOL    HW264111  12.587   0.775   3.076
20758SOL     OW64112   4.584   6.187   7.297
20758SOL    HW164113   4.676   6.190   7.322
20758SOL    HW264114   4.585   6.163   7.204
20759SOL     OW64115   8.844   1.429   7.910
20759SOL    HW164116   8.904   1.364   7.875
20759SOL    HW264117   8.773   1.378   7.949
20760SOL     OW64118   4.675   9.018  14.079
20760SOL    HW164119   4.601   8.967  14.045
20760SOL    HW264120   4.637   9.102  14.103
20761SOL     OW64121   0.939   2.041   0.970
20761SOL    HW164122   0.956   2.022   0.878
20761SOL    HW264123   0.843   2.047   0.975
20762SOL     OW64124  10.312   0.428   7.440
20762SOL    HW164125  10.231   0.407   7.487
20762SOL    HW264126  10.321   0.522   7.449
20763SOL     OW64127   1.601   9.280   8.105
20763SOL    HW164128   1.643   9.361   8.077
20763SOL    HW264129   1.622   9.216   8.037
20764SOL     OW64130   2.422  13.402  10.208
20764SOL    HW164131   2.464  13.359  10.282
20764SOL    HW264132   2.391  13.330  10.153
20765SOL     OW64133  12.543   0.479   3.261
20765SOL    HW164134  12.607   0.445   3.323
20765SOL    HW264135  12.579   0.456   3.175
20766SOL     OW64136   2.655  11.013   6.554
20766SOL    HW164137   2.748  10.996   6.569
20766SOL    HW264138   2.617  10.927   6.538
20767SOL     OW64139   7.711   5.886  12.155
20767SOL    HW164140   7.624   5.861  12.123
20767SOL    HW264141   7.762   5.903  12.076
20768SOL     OW64142   6.705   9.538   9.573
20768SOL    HW164143   6.702   9.623   9.529
20768SOL    HW264144   6.793   9.505   9.558
20769SOL     OW64145   1.095   8.820   1.954
20769SOL    HW164146   1.092   8.814   2.050
20769SOL    HW264147   1.154   8.893   1.936
20770SOL     OW64148  13.710   2.054  11.969
20770SOL    HW164149  13.763   1.975  11.980
20770SOL    HW264150  13.665   2.041  11.886
20771SOL     OW64151   5.058  10.030   2.305
20771SOL    HW164152   4.998   9.964   2.271
20771SOL    HW264153   5.092  10.075   2.227
20772SOL     OW64154   3.189   8.115   0.226
20772SOL    HW164155   3.269   8.148   0.186
20772SOL    HW264156   3.119   8.167   0.187
20773SOL     OW64157   5.609   5.868   6.886
20773SOL    HW164158   5.566   5.803   6.941
20773SOL    HW264159   5.547   5.941   6.882
20774SOL     OW64160   1.778   0.776   2.305
20774SOL    HW164161   1.743   0.743   2.387
20774SOL    HW264162   1.702   0.814   2.260
20775SOL     OW64163   6.432   3.711  13.897
20775SOL    HW164164   6.505   3.704  13.836
20775SOL    HW264165   6.454   3.785  13.954
20776SOL     OW64166  11.423  13.276   8.229
20776SOL    HW164167  11.463  13.208   8.284
20776SOL    HW264168  11.336  13.289   8.266
20777SOL     OW64169   0.839  11.800  11.251
20777SOL    HW164170   0.891  11.880  11.250
20777SOL    HW264171   0.882  11.745  11.317
20778SOL     OW64172   8.191   0.703  10.471
20778SOL    HW164173   8.286   0.697  10.481
20778SOL    HW264174   8.164   0.612  10.455
20779SOL     OW64175   3.585   0.259   5.003
20779SOL    HW164176   3.535   0.179   4.990
20779SOL    HW264177   3.673   0.238   4.970
20780SOL     OW64178   4.911  10.400  12.275
20780SOL    HW164179   4.850  10.380  12.205
20780SOL    HW264180   4.892  10.491  12.299
20781SOL     OW64181   5.591   4.088   9.565
20781SOL    HW164182   5.614   4.176   9.537
20781SOL    HW264183   5.557   4.045   9.486
20782SOL     OW64184  13.024  12.744   6.339
20782SOL    HW164185  12.988  12.720   6.424
20782SOL    HW264186  13.119  12.740   6.351
20783SOL     OW64187   8.903  14.622   2.155
20783SOL    HW164188   8.935  14.708   2.181
20783SOL    HW264189   8.823  14.640   2.106
20784SOL     OW64190  10.015  11.958  11.559
20784SOL    HW164191  10.030  11.996  11.472
20784SOL    HW264192  10.099  11.967  11.604
20785SOL     OW64193  11.762   2.181   6.601
20785SOL    HW164194  11.687   2.165   6.543
20785SOL    HW264195  11.734   2.253   6.658
20786SOL     OW64196  11.886  10.743   2.863
20786SOL    HW164197  11.975  10.747   2.826
20786SOL    HW264198  11.867  10.833   2.889
20787SOL     OW64199   8.748   3.112   8.603
20787SOL    HW164200   8.817   3.109   8.669
20787SOL    HW264201   8.676   3.060   8.640
20788SOL     OW64202   1.735  12.342  11.406
20788SOL    HW164203   1.677  12.414  11.432
20788SOL    HW264204   1.739  12.285  11.483
20789SOL     OW64205  11.995  11.441   0.994
20789SOL    HW164206  11.980  11.372   0.929
20789SOL    HW264207  11.918  11.496   0.990
20790SOL     OW64208  12.710  12.399  12.337
20790SOL    HW164209  12.671  12.374  12.253
20790SOL    HW264210  12.687  12.327  12.396
20791SOL     OW64211   7.168   3.433   6.129
20791SOL    HW164212   7.254   3.395   6.147
20791SOL    HW264213   7.106   3.369   6.165
20792SOL     OW64214   4.042  11.671   0.558
20792SOL    HW164215   4.011  11.597   0.610
20792SOL    HW264216   3.964  11.726   0.546
20793SOL     OW64217   0.842  10.234   0.033
20793SOL    HW164218   0.815  10.179   0.106
20793SOL    HW264219   0.771  10.226  14.849
20794SOL     OW64220   8.387   0.738  13.549
20794SOL    HW164221   8.323   0.682  13.506
20794SOL    HW264222   8.336   0.788  13.613
20795SOL     OW64223  13.114  12.899   9.651
20795SOL    HW164224  13.097  12.810   9.682
20795SOL    HW264225  13.149  12.945   9.728
20796SOL     OW64226   5.433  12.555  10.350
20796SOL    HW164227   5.441  12.563  10.255
20796SOL    HW264228   5.402  12.640  10.380
20797SOL     OW64229   5.726  11.886  11.775
20797SOL    HW164230   5.754  11.864  11.864
20797SOL    HW264231   5.806  11.884  11.723
20798SOL     OW64232  13.616   5.836   1.783
20798SOL    HW164233  13.656   5.891   1.850
20798SOL    HW264234  13.668   5.852   1.705
20799SOL     OW64235  13.745  14.044   9.014
20799SOL    HW164236  13.797  14.115   8.975
20799SOL    HW264237  13.686  14.017   8.944
20800SOL     OW64238  11.075   9.220   6.761
20800SOL    HW164239  11.118   9.165   6.696
20800SOL    HW264240  11.141   9.285   6.786
20801SOL     OW64241   7.978   0.430   2.671
20801SOL    HW164242   7.953   0.521   2.683
20801SOL    HW264243   8.058   0.420   2.722
20802SOL     OW64244  13.694  14.154   9.266
20802SOL    HW164245  13.767  14.106   9.303
20802SOL    HW264246  13.714  14.160   9.172
20803SOL     OW64247  10.556  13.865   9.981
20803SOL    HW164248  10.635  13.912   9.955
20803SOL    HW264249  10.559  13.784   9.930
20804SOL     OW64250   4.966  11.853   7.138
20804SOL    HW164251   5.045  11.892   7.176
20804SOL    HW264252   4.975  11.760   7.154
20805SOL     OW64253   8.672   5.304   4.406
20805SOL    HW164254   8.579   5.303   4.384
20805SOL    HW264255   8.715   5.339   4.327
20806SOL     OW64256  14.761  11.040  12.269
20806SOL    HW164257  14.772  11.010  12.178
20806SOL    HW264258  14.726  10.964  12.315
20807SOL     OW64259  12.660   7.920   1.578
20807SOL    HW164260  12.602   7.880   1.643
20807SOL    HW264261  12.623   8.008   1.564
20808SOL     OW64262   4.863   4.055   3.644
20808SOL    HW164263   4.875   4.118   3.715
20808SOL    HW264264   4.773   4.070   3.614
20809SOL     OW64265   5.485   3.016  14.793
20809SOL    HW164266   5.423   2.960  14.839
20809SOL    HW264267   5.490   3.095  14.847
20810SOL     OW64268  14.387   0.411   6.157
20810SOL    HW164269  14.345   0.493   6.182
20810SOL    HW264270  14.339   0.381   6.080
20811SOL     OW64271   3.609  12.220  13.901
20811SOL    HW164272   3.627  12.311  13.924
20811SOL    HW264273   3.522  12.203  13.935
20812SOL     OW64274   3.467   9.169   0.114
20812SOL    HW164275   3.440   9.256   0.143
20812SOL    HW264276   3.426   9.159   0.028
20813SOL     OW64277   9.078  13.132   5.623
20813SOL    HW164278   9.090  13.227   5.629
20813SOL    HW264279   9.100  13.100   5.711
20814SOL     OW64280   9.215   5.989   6.984
20814SOL    HW164281   9.199   5.900   6.951
20814SOL    HW264282   9.237   6.040   6.906
20815SOL     OW64283  12.665   7.256  11.756
20815SOL    HW164284  12.619   7.240  11.838
20815SOL    HW264285  12.739   7.311  11.781
20816SOL     OW64286  14.285   1.731   8.044
20816SOL    HW164287  14.211   1.690   8.089
20816SOL    HW264288  14.295   1.816   8.087
20817SOL     OW64289  12.607   0.497  10.099
20817SOL    HW164290  12.592   0.585  10.065
20817SOL    HW264291  12.563   0.439  10.036
20818SOL     OW64292   2.288  11.224  10.449
20818SOL    HW164293   2.198  11.204  10.476
20818SOL    HW264294   2.286  11.317  10.428
20819SOL     OW64295   8.031  11.381  12.025
20819SOL    HW164296   7.997  11.379  12.114
20819SOL    HW264297   7.974  11.442  11.978
20820SOL     OW64298  12.522  12.586  11.240
20820SOL    HW164299  12.581  12.599  11.314
20820SOL    HW264300  12.441  12.629  11.266
20821SOL     OW64301   8.869   6.040  10.500
20821SOL    HW164302   8.893   6.131  10.519
20821SOL    HW264303   8.866   5.998  10.586
20822SOL     OW64304  12.261   2.806  12.435
20822SOL    HW164305  12.275   2.878  12.497
20822SOL    HW264306  12.174   2.822  12.400
20823SOL     OW64307   5.290  10.110   1.869
20823SOL    HW164308   5.253  10.121   1.781
20823SOL    HW264309   5.384  10.122   1.857
20824SOL     OW64310   3.337   0.359   5.764
20824SOL    HW164311   3.409   0.302   5.738
20824SOL    HW264312   3.260   0.303   5.762
20825SOL     OW64313   0.083   6.560   5.116
20825SOL    HW164314  14.869   6.539   5.116
20825SOL    HW264315   0.119   6.507   5.187
20826SOL     OW64316   9.771  14.168   2.267
20826SOL    HW164317   9.687  14.130   2.242
20826SOL    HW264318   9.806  14.107   2.332
20827SOL     OW64319   0.508  11.274   2.337
20827SOL    HW164320   0.503  11.210   2.408
20827SOL    HW264321   0.452  11.237   2.268
20828SOL     OW64322   8.955   8.260  10.786
20828SOL    HW164323   9.004   8.331  10.828
20828SOL    HW264324   9.012   8.231  10.715
20829SOL     OW64325  10.642   5.297   9.252
20829SOL    HW164326  10.653   5.273   9.345
20829SOL    HW264327  10.577   5.367   9.253
20830SOL     OW64328   8.390   9.214  11.128
20830SOL    HW164329   8.428   9.127  11.120
20830SOL    HW264330   8.298   9.202  11.107
20831SOL     OW64331   9.106   7.429  10.032
20831SOL    HW164332   9.189   7.425  10.079
20831SOL    HW264333   9.116   7.502   9.971
20832SOL     OW64334  10.865   9.199   5.126
20832SOL    HW164335  10.840   9.257   5.054
20832SOL    HW264336  10.801   9.128   5.123
20833SOL     OW64337   6.262  12.507   5.406
20833SOL    HW164338   6.341  12.561   5.408
20833SOL    HW264339   6.212  12.534   5.484
20834SOL     OW64340   8.986   9.456  12.398
20834SOL    HW164341   8.991   9.361  12.396
20834SOL    HW264342   9.077   9.485  12.408
20835SOL     OW64343   3.991   3.970   4.775
20835SOL    HW164344   3.924   3.928   4.829
20835SOL    HW264345   3.969   4.063   4.778
20836SOL     OW64346   2.782   5.632   1.360
20836SOL    HW164347   2.832   5.551   1.368
20836SOL    HW264348   2.751   5.631   1.269
20837SOL     OW64349  14.574  12.641   3.823
20837SOL    HW164350  14.604  12.683   3.904
20837SOL    HW264351  14.486  12.609   3.844
20838SOL     OW64352  10.362   4.576   6.064
20838SOL    HW164353  10.331   4.487   6.076
20838SOL    HW264354  10.453   4.574   6.095
20839SOL     OW64355   6.791   0.122   8.271
20839SOL    HW164356   6.783   0.073   8.352
20839SOL    HW264357   6.866   0.082   8.226
20840SOL     OW64358  10.419   0.753   6.550
20840SOL    HW164359  10.416   0.688   6.481
20840SOL    HW264360  10.489   0.724   6.608
20841SOL     OW64361   1.959   0.455  10.026
20841SOL    HW164362   1.999   0.471  10.111
20841SOL    HW264363   2.025   0.408   9.977
20842SOL     OW64364   5.947  14.594   3.290
20842SOL    HW164365   6.027  14.553   3.323
20842SOL    HW264366   5.884  14.586   3.361
20843SOL     OW64367   8.584  14.569  14.852
20843SOL    HW164368   8.668  14.603  14.821
20843SOL    HW264369   8.520  14.632  14.819
20844SOL     OW64370   1.291   7.546   4.842
20844SOL    HW164371   1.283   7.615   4.908
20844SOL    HW264372   1.270   7.465   4.889
20845SOL     OW64373   1.632  10.114   1.487
20845SOL    HW164374   1.574  10.094   1.414
20845SOL    HW264375   1.719  10.118   1.449
20846SOL     OW64376   0.802   6.097   8.225
20846SOL    HW164377   0.755   6.137   8.298
20846SOL    HW264378   0.862   6.035   8.266
20847SOL     OW64379   1.486   9.987  11.953
20847SOL    HW164380   1.460  10.075  11.978
20847SOL    HW264381   1.413   9.953  11.901
20848SOL     OW64382  10.333   2.445  14.224
20848SOL    HW164383  10.269   2.480  14.162
20848SOL    HW264384  10.418   2.476  14.192
20849SOL     OW64385   8.072   7.575   5.955
20849SOL    HW164386   8.085   7.669   5.969
20849SOL    HW264387   8.074   7.537   6.043
20850SOL     OW64388   9.105  10.187   1.086
20850SOL    HW164389   9.067  10.109   1.126
20850SOL    HW264390   9.179  10.209   1.143
20851SOL     OW64391   1.922  14.393   7.860
20851SOL    HW164392   1.907  14.464   7.797
20851SOL    HW264393   1.853  14.330   7.843
20852SOL     OW64394   7.652   9.042   8.828
20852SOL    HW164395   7.570   9.003   8.798
20852SOL    HW264396   7.648   9.037   8.924
20853SOL     OW64397   9.368   6.313   8.791
20853SOL    HW164398   9.446   6.344   8.746
20853SOL    HW264399   9.326   6.393   8.824
20854SOL     OW64400   7.567   0.866   2.280
20854SOL    HW164401   7.607   0.898   2.199
20854SOL    HW264402   7.517   0.942   2.312
20855SOL     OW64403   2.587   1.007   8.246
20855SOL    HW164404   2.641   1.047   8.177
20855SOL    HW264405   2.549   1.082   8.292
20856SOL     OW64406   0.154  11.218   0.554
20856SOL    HW164407   0.214  11.160   0.508
20856SOL    HW264408   0.148  11.296   0.498
20857SOL     OW64409   5.832   4.232   4.203
20857SOL    HW164410   5.838   4.207   4.111
20857SOL    HW264411   5.878   4.316   4.208
20858SOL     OW64412  13.855   7.275   3.384
20858SOL    HW164413  13.810   7.263   3.468
20858SOL    HW264414  13.836   7.366   3.360
20859SOL     OW64415   3.715   3.336   1.463
20859SOL    HW164416   3.644   3.282   1.426
20859SOL    HW264417   3.678   3.372   1.543
20860SOL     OW64418   3.776  13.806   2.027
20860SOL    HW164419   3.682  13.788   2.040
20860SOL    HW264420   3.798  13.760   1.946
20861SOL     OW64421   6.275  12.233   2.274
20861SOL    HW164422   6.344  12.168   2.291
20861SOL    HW264423   6.238  12.207   2.190
20862SOL     OW64424   1.903   5.356  12.353
20862SOL    HW164425   1.852   5.338  12.432
20862SOL    HW264426   1.978   5.297  12.359
20863SOL     OW64427   2.060   0.746  13.969
20863SOL    HW164428   2.036   0.680  14.034
20863SOL    HW264429   1.990   0.742  13.904
20864SOL     OW64430   4.908   3.122   1.547
20864SOL    HW164431   4.898   3.174   1.627
20864SOL    HW264432   4.957   3.179   1.487
20865SOL     OW64433   6.217  12.154   8.645
20865SOL    HW164434   6.235  12.103   8.566
20865SOL    HW264435   6.294  12.140   8.700
20866SOL     OW64436  12.576  10.957   9.878
20866SOL    HW164437  12.605  10.962   9.969
20866SOL    HW264438  12.619  10.880   9.843
20867SOL     OW64439   9.434  11.728  12.310
20867SOL    HW164440   9.374  11.800  12.289
20867SOL    HW264441   9.512  11.771  12.347
20868SOL     OW64442   9.127   1.813  14.621
20868SOL    HW164443   9.049   1.851  14.581
20868SOL    HW264444   9.140   1.864  14.701
20869SOL     OW64445   5.437   8.810  14.571
20869SOL    HW164446   5.393   8.776  14.493
20869SOL    HW264447   5.524   8.834  14.540
20870SOL     OW64448   2.867   3.506  13.023
20870SOL    HW164449   2.928   3.435  13.040
20870SOL    HW264450   2.788   3.482  13.072
20871SOL     OW64451   3.160   8.502   0.302
20871SOL    HW164452   3.178   8.498   0.396
20871SOL    HW264453   3.242   8.533   0.263
20872SOL     OW64454   0.025  14.516   2.984
20872SOL    HW164455   0.070  14.525   3.068
20872SOL    HW264456  14.816  14.547   3.001
20873SOL     OW64457  14.482   9.005   8.195
20873SOL    HW164458  14.411   9.020   8.132
20873SOL    HW264459  14.443   8.948   8.261
20874SOL     OW64460   0.887   3.432  14.454
20874SOL    HW164461   0.852   3.400  14.371
20874SOL    HW264462   0.825   3.402  14.520
20875SOL     OW64463   7.536   2.759   7.743
20875SOL    HW164464   7.519   2.817   7.817
20875SOL    HW264465   7.598   2.807   7.688
20876SOL     OW64466   7.087   5.518   0.111
20876SOL    HW164467   7.166   5.528   0.058
20876SOL    HW264468   7.049   5.605   0.114
20877SOL     OW64469  13.210   6.848   6.229
20877SOL    HW164470  13.197   6.818   6.138
20877SOL    HW264471  13.286   6.906   6.224
20878SOL     OW64472   3.432   2.987  11.972
20878SOL    HW164473   3.393   2.901  11.954
20878SOL    HW264474   3.403   3.010  12.060
20879SOL     OW64475  12.296   8.508   7.508
20879SOL    HW164476  12.331   8.587   7.552
20879SOL    HW264477  12.261   8.455   7.580
20880SOL     OW64478   6.071  12.354   3.574
20880SOL    HW164479   6.161  12.323   3.560
20880SOL    HW264480   6.077  12.409   3.653
20881SOL     OW64481   9.635   4.997   3.437
20881SOL    HW164482   9.638   4.926   3.373
20881SOL    HW264483   9.637   4.952   3.522
20882SOL     OW64484   0.074   2.715   0.274
20882SOL    HW164485   0.041   2.633   0.311
20882SOL    HW264486   0.168   2.710   0.286
20883SOL     OW64487  13.978  13.463  11.406
20883SOL    HW164488  13.955  13.535  11.347
20883SOL    HW264489  14.000  13.506  11.488
20884SOL     OW64490  11.605  14.535   0.855
20884SOL    HW164491  11.633  14.443   0.854
20884SOL    HW264492  11.618  14.563   0.945
20885SOL     OW64493  13.764  14.536  10.127
20885SOL    HW164494  13.676  14.507  10.152
20885SOL    HW264495  13.798  14.580  10.205
20886SOL     OW64496   2.370   9.014   3.402
20886SOL    HW164497   2.331   9.018   3.314
20886SOL    HW264498   2.465   9.020   3.386
20887SOL     OW64499  13.551   1.128   8.622
20887SOL    HW164500  13.572   1.213   8.582
20887SOL    HW264501  13.563   1.065   8.551
20888SOL     OW64502  10.114   6.784   7.997
20888SOL    HW164503  10.042   6.728   8.028
20888SOL    HW264504  10.071   6.866   7.973
20889SOL     OW64505  11.943   4.610   0.346
20889SOL    HW164506  11.891   4.529   0.348
20889SOL    HW264507  11.976   4.618   0.436
20890SOL     OW64508   8.695  14.150   0.044
20890SOL    HW164509   8.609  14.136   0.005
20890SOL    HW264510   8.685  14.122   0.135
20891SOL     OW64511  11.120   8.088  14.172
20891SOL    HW164512  11.153   8.115  14.086
20891SOL    HW264513  11.182   8.021  14.201
20892SOL     OW64514   4.231  10.120  11.208
20892SOL    HW164515   4.158  10.059  11.199
20892SOL    HW264516   4.298  10.085  11.150
20893SOL     OW64517   7.406  11.821   7.495
20893SOL    HW164518   7.473  11.863   7.550
20893SOL    HW264519   7.370  11.751   7.549
20894SOL     OW64520  14.754  12.505   4.781
20894SOL    HW164521  14.669  12.461   4.779
20894SOL    HW264522  14.810  12.447   4.832
20895SOL     OW64523   8.206   0.477   0.419
20895SOL    HW164524   8.194   0.384   0.437
20895SOL    HW264525   8.292   0.483   0.378
20896SOL     OW64526  11.591   6.974  12.019
20896SOL    HW164527  11.625   7.060  11.994
20896SOL    HW264528  11.497   6.989  12.032
20897SOL     OW64529   1.956   3.086  11.595
20897SOL    HW164530   2.046   3.065  11.569
20897SOL    HW264531   1.924   3.144  11.526
20898SOL     OW64532   4.150  12.247   7.558
20898SOL    HW164533   4.151  12.244   7.653
20898SOL    HW264534   4.138  12.339   7.536
20899SOL     OW64535   3.440   6.682   7.523
20899SOL    HW164536   3.510   6.649   7.467
20899SOL    HW264537   3.445   6.777   7.514
20900SOL     OW64538  10.092  11.715   6.625
20900SOL    HW164539  10.027  11.707   6.695
20900SOL    HW264540  10.158  11.648   6.646
20901SOL     OW64541   1.235   4.472   7.126
20901SOL    HW164542   1.197   4.547   7.080
20901SOL    HW264543   1.175   4.455   7.199
20902SOL     OW64544   8.498   4.859  13.165
20902SOL    HW164545   8.572   4.798  13.167
20902SOL    HW264546   8.492   4.886  13.073
20903SOL     OW64547   4.369   0.811  13.891
20903SOL    HW164548   4.276   0.818  13.870
20903SOL    HW264549   4.375   0.842  13.982
20904SOL     OW64550   8.625  14.157   3.205
20904SOL    HW164551   8.687  14.115   3.264
20904SOL    HW264552   8.584  14.084   3.158
20905SOL     OW64553   2.963   2.398   7.328
20905SOL    HW164554   2.966   2.348   7.410
20905SOL    HW264555   2.942   2.334   7.261
20906SOL     OW64556  14.446  11.070   7.997
20906SOL    HW164557  14.487  11.093   7.914
20906SOL    HW264558  14.353  11.061   7.976
20907SOL     OW64559  12.154  14.718  14.852
20907SOL    HW164560  12.125  14.807  14.873
20907SOL    HW264561  12.074  14.673  14.825
20908SOL     OW64562   2.835   4.363   7.117
20908SOL    HW164563   2.765   4.411   7.072
20908SOL    HW264564   2.841   4.280   7.070
20909SOL     OW64565   2.668  13.886   6.692
20909SOL    HW164566   2.574  13.869   6.685
20909SOL    HW264567   2.679  13.975   6.658
20910SOL     OW64568   2.908  12.435  10.502
20910SOL    HW164569   2.981  12.420  10.442
20910SOL    HW264570   2.917  12.367  10.569
20911SOL     OW64571   7.841   4.317   3.079
20911SOL    HW164572   7.919   4.367   3.104
20911SOL    HW264573   7.794   4.303   3.161
20912SOL     OW64574   8.507   1.394   1.216
20912SOL    HW164575   8.540   1.379   1.305
20912SOL    HW264576   8.555   1.471   1.186
20913SOL     OW64577   3.204   5.363   1.945
20913SOL    HW164578   3.270   5.365   2.014
20913SOL    HW264579   3.240   5.304   1.879
20914SOL     OW64580  12.972   4.736  11.116
20914SOL    HW164581  12.969   4.831  11.128
20914SOL    HW264582  12.957   4.700  11.204
20915SOL     OW64583   9.055   7.823  12.107
20915SOL    HW164584   9.147   7.802  12.088
20915SOL    HW264585   9.059   7.875  12.187
20916SOL     OW64586   6.426   9.183  11.269
20916SOL    HW164587   6.381   9.261  11.236
20916SOL    HW264588   6.498   9.218  11.322
20917SOL     OW64589   7.926   9.953  12.935
20917SOL    HW164590   7.975   9.895  12.993
20917SOL    HW264591   7.928   9.909  12.850
20918SOL     OW64592   0.229   7.322   5.404
20918SOL    HW164593   0.134   7.335   5.409
20918SOL    HW264594   0.265   7.385   5.467
20919SOL     OW64595   6.218  11.440   2.369
20919SOL    HW164596   6.186  11.352   2.391
20919SOL    HW264597   6.175  11.461   2.287
20920SOL     OW64598   4.998   4.687   8.643
20920SOL    HW164599   5.010   4.781   8.632
20920SOL    HW264600   4.914   4.669   8.602
20921SOL     OW64601  11.901   1.184   6.250
20921SOL    HW164602  11.941   1.238   6.181
20921SOL    HW264603  11.975   1.145   6.296
20922SOL     OW64604   5.012   8.408   2.041
20922SOL    HW164605   4.950   8.415   1.969
20922SOL    HW264606   4.958   8.396   2.119
20923SOL     OW64607   4.828   9.762   1.854
20923SOL    HW164608   4.761   9.818   1.894
20923SOL    HW264609   4.849   9.805   1.771
20924SOL     OW64610   8.185   9.102  11.350
20924SOL    HW164611   8.182   9.012  11.317
20924SOL    HW264612   8.169   9.156  11.273
20925SOL     OW64613  14.874   8.419   6.955
20925SOL    HW164614   0.009   8.446   7.045
20925SOL    HW264615   0.005   8.500   6.904
20926SOL     OW64616   4.898   7.684  14.336
20926SOL    HW164617   4.937   7.770  14.325
20926SOL    HW264618   4.912   7.662  14.428
20927SOL     OW64619   1.045  10.624   0.251
20927SOL    HW164620   1.034  10.536   0.286
20927SOL    HW264621   1.076  10.611   0.162
20928SOL     OW64622   5.380   7.706   6.517
20928SOL    HW164623   5.393   7.801   6.517
20928SOL    HW264624   5.464   7.670   6.489
20929SOL     OW64625   0.825   4.870  10.865
20929SOL    HW164626   0.734   4.845  10.881
20929SOL    HW264627   0.826   4.966  10.876
20930SOL     OW64628   8.839  11.323   2.974
20930SOL    HW164629   8.917  11.377   2.981
20930SOL    HW264630   8.796  11.352   2.893
20931SOL     OW64631   3.069   3.457   4.915
20931SOL    HW164632   3.071   3.552   4.923
20931SOL    HW264633   3.046   3.426   5.002
20932SOL     OW64634   5.749  13.889  11.771
20932SOL    HW164635   5.785  13.877  11.683
20932SOL    HW264636   5.692  13.966  11.764
20933SOL     OW64637   8.421  14.046  10.912
20933SOL    HW164638   8.409  14.132  10.950
20933SOL    HW264639   8.448  14.063  10.822
20934SOL     OW64640  12.603   9.332  11.230
20934SOL    HW164641  12.564   9.256  11.273
20934SOL    HW264642  12.662   9.369  11.295
20935SOL     OW64643   6.739  12.943  11.284
20935SOL    HW164644   6.661  12.908  11.242
20935SOL    HW264645   6.811  12.919  11.225
20936SOL     OW64646  10.158  11.972   5.782
20936SOL    HW164647  10.212  11.922   5.721
20936SOL    HW264648  10.135  12.052   5.734
20937SOL     OW64649   1.746   9.692   2.923
20937SOL    HW164650   1.794   9.648   2.853
20937SOL    HW264651   1.809   9.754   2.961
20938SOL     OW64652   8.920  13.437   1.947
20938SOL    HW164653   8.959  13.521   1.970
20938SOL    HW264654   8.836  13.436   1.994
20939SOL     OW64655  12.732  11.353   0.841
20939SOL    HW164656  12.653  11.402   0.818
20939SOL    HW264657  12.803  11.414   0.822
20940SOL     OW64658   2.756   0.705  13.648
20940SOL    HW164659   2.740   0.777  13.587
20940SOL    HW264660   2.684   0.644  13.632
20941SOL     OW64661   5.720  12.204   9.365
20941SOL    HW164662   5.672  12.179   9.444
20941SOL    HW264663   5.656  12.194   9.294
20942SOL     OW64664   8.523  12.637   5.686
20942SOL    HW164665   8.458  12.635   5.616
20942SOL    HW264666   8.575  12.715   5.669
20943SOL     OW64667   8.173   7.690   2.587
20943SOL    HW164668   8.227   7.768   2.604
20943SOL    HW264669   8.160   7.651   2.672
20944SOL     OW64670   1.809   5.485   1.795
20944SOL    HW164671   1.901   5.485   1.767
20944SOL    HW264672   1.786   5.393   1.803
20945SOL     OW64673  12.310   6.738  14.034
20945SOL    HW164674  12.234   6.680  14.029
20945SOL    HW264675  12.316   6.761  14.127
20946SOL     OW64676   0.834  13.089  10.733
20946SOL    HW164677   0.928  13.072  10.741
20946SOL    HW264678   0.793  13.008  10.764
20947SOL     OW64679   2.840  14.703   8.681
20947SOL    HW164680   2.843  14.641   8.753
20947SOL    HW264681   2.922  14.752   8.688
20948SOL     OW64682   6.906   5.498   2.325
20948SOL    HW164683   6.988   5.466   2.288
20948SOL    HW264684   6.868   5.554   2.257
20949SOL     OW64685   0.788   6.527  10.981
20949SOL    HW164686   0.693   6.514  10.973
20949SOL    HW264687   0.813   6.474  11.057
20950SOL     OW64688   1.877   4.673   3.937
20950SOL    HW164689   1.789   4.661   3.901
20950SOL    HW264690   1.896   4.766   3.924
20951SOL     OW64691   5.554   6.897   0.824
20951SOL    HW164692   5.618   6.968   0.822
20951SOL    HW264693   5.478   6.932   0.777
20952SOL     OW64694   0.699   3.085  11.509
20952SOL    HW164695   0.679   3.169  11.549
20952SOL    HW264696   0.726   3.029  11.582
20953SOL     OW64697   2.357  12.407   7.546
20953SOL    HW164698   2.352  12.430   7.453
20953SOL    HW264699   2.285  12.455   7.586
20954SOL     OW64700   8.497   1.849   1.667
20954SOL    HW164701   8.496   1.825   1.760
20954SOL    HW264702   8.564   1.917   1.661
20955SOL     OW64703   4.577   8.817   3.404
20955SOL    HW164704   4.612   8.730   3.383
20955SOL    HW264705   4.654   8.869   3.424
20956SOL     OW64706  13.109   6.725   2.478
20956SOL    HW164707  13.169   6.660   2.442
20956SOL    HW264708  13.122   6.802   2.423
20957SOL     OW64709  13.110   1.007  14.329
20957SOL    HW164710  13.046   0.997  14.399
20957SOL    HW264711  13.136   1.099  14.333
20958SOL     OW64712  13.034  14.551   5.492
20958SOL    HW164713  12.999  14.489   5.557
20958SOL    HW264714  13.127  14.559   5.516
20959SOL     OW64715   5.642  12.223  13.099
20959SOL    HW164716   5.731  12.190  13.115
20959SOL    HW264717   5.655  12.299  13.042
20960SOL     OW64718  11.888  10.570   5.145
20960SOL    HW164719  11.815  10.534   5.094
20960SOL    HW264720  11.925  10.495   5.190
20961SOL     OW64721   0.950   4.735   7.801
20961SOL    HW164722   0.953   4.643   7.775
20961SOL    HW264723   0.891   4.736   7.877
20962SOL     OW64724   4.185   6.351  14.242
20962SOL    HW164725   4.221   6.276  14.193
20962SOL    HW264726   4.107   6.315  14.286
20963SOL     OW64727   7.181  10.393   9.613
20963SOL    HW164728   7.224  10.352   9.537
20963SOL    HW264729   7.225  10.477   9.622
20964SOL     OW64730   0.935   9.643   8.622
20964SOL    HW164731   1.020   9.656   8.662
20964SOL    HW264732   0.954   9.602   8.537
20965SOL     OW64733   0.392  10.799   0.754
20965SOL    HW164734   0.303  10.767   0.770
20965SOL    HW264735   0.433  10.732   0.700
20966SOL     OW64736  14.806   1.896   3.144
20966SOL    HW164737  14.714   1.878   3.165
20966SOL    HW264738  14.830   1.970   3.200
20967SOL     OW64739   0.551  11.258   5.687
20967SOL    HW164740   0.596  11.174   5.673
20967SOL    HW264741   0.532  11.260   5.781
20968SOL     OW64742  13.491   5.043   1.527
20968SOL    HW164743  13.459   5.097   1.454
20968SOL    HW264744  13.461   5.088   1.606
20969SOL     OW64745   5.361  10.117   4.226
20969SOL    HW164746   5.356  10.171   4.147
20969SOL    HW264747   5.270  10.089   4.241
20970SOL     OW64748   3.548   0.451   4.157
20970SOL    HW164749   3.638   0.431   4.130
20970SOL    HW264750   3.503   0.367   4.153
20971SOL     OW64751  13.563  13.250  10.488
20971SOL    HW164752  13.523  13.265  10.574
20971SOL    HW264753  13.517  13.310  10.429
20972SOL     OW64754   0.375   7.272   7.521
20972SOL    HW164755   0.329   7.317   7.450
20972SOL    HW264756   0.362   7.329   7.597
20973SOL     OW64757   3.277  12.619  10.166
20973SOL    HW164758   3.260  12.671  10.087
20973SOL    HW264759   3.369  12.639  10.187
20974SOL     OW64760   4.467   6.261   0.893
20974SOL    HW164761   4.495   6.178   0.854
20974SOL    HW264762   4.506   6.260   0.980
20975SOL     OW64763  11.024   0.468  11.086
20975SOL    HW164764  10.958   0.536  11.075
20975SOL    HW264765  11.108   0.514  11.084
20976SOL     OW64766  13.631   9.595   7.402
20976SOL    HW164767  13.559   9.594   7.338
20976SOL    HW264768  13.704   9.634   7.355
20977SOL     OW64769  14.723   4.340  12.198
20977SOL    HW164770  14.663   4.363  12.270
20977SOL    HW264771  14.674   4.277  12.145
20978SOL     OW64772   3.330   6.734  12.799
20978SOL    HW164773   3.360   6.809  12.748
20978SOL    HW264774   3.409   6.685  12.819
20979SOL     OW64775   8.711   2.721   0.339
20979SOL    HW164776   8.695   2.633   0.372
20979SOL    HW264777   8.632   2.742   0.288
20980SOL     OW64778   8.908   3.529  12.671
20980SOL    HW164779   8.821   3.524  12.709
20980SOL    HW264780   8.903   3.474  12.592
20981SOL     OW64781  12.288   9.744   0.827
20981SOL    HW164782  12.240   9.815   0.784
20981SOL    HW264783  12.236   9.723   0.904
20982SOL     OW64784   0.203  14.499   7.104
20982SOL    HW164785   0.205  14.525   7.197
20982SOL    HW264786   0.132  14.435   7.098
20983SOL     OW64787   0.343  12.363  10.867
20983SOL    HW164788   0.364  12.306  10.793
20983SOL    HW264789   0.285  12.310  10.922
20984SOL     OW64790  11.735   7.865   8.244
20984SOL    HW164791  11.771   7.779   8.264
20984SOL    HW264792  11.683   7.851   8.164
20985SOL     OW64793   6.081   2.696  11.481
20985SOL    HW164794   5.997   2.650  11.478
20985SOL    HW264795   6.141   2.633  11.519
20986SOL     OW64796   5.331   4.165   5.410
20986SOL    HW164797   5.315   4.220   5.333
20986SOL    HW264798   5.274   4.201   5.478
20987SOL     OW64799   6.053   9.921  12.596
20987SOL    HW164800   6.133   9.870  12.585
20987SOL    HW264801   6.031   9.913  12.689
20988SOL     OW64802   1.837   5.739   0.133
20988SOL    HW164803   1.766   5.780   0.083
20988SOL    HW264804   1.902   5.808   0.146
20989SOL     OW64805   2.234   9.459   7.559
20989SOL    HW164806   2.252   9.519   7.486
20989SOL    HW264807   2.290   9.383   7.541
20990SOL     OW64808   2.122   1.416   6.549
20990SOL    HW164809   2.197   1.472   6.566
20990SOL    HW264810   2.056   1.474   6.512
20991SOL     OW64811   6.140   9.521   5.646
20991SOL    HW164812   6.121   9.496   5.736
20991SOL    HW264813   6.236   9.527   5.643
20992SOL     OW64814   6.895   8.838  12.978
20992SOL    HW164815   6.954   8.771  13.013
20992SOL    HW264816   6.950   8.890  12.919
20993SOL     OW64817   0.390   3.487   1.827
20993SOL    HW164818   0.476   3.454   1.799
20993SOL    HW264819   0.341   3.498   1.745
20994SOL     OW64820   2.211   1.012   5.353
20994SOL    HW164821   2.156   1.046   5.424
20994SOL    HW264822   2.154   0.949   5.308
20995SOL     OW64823   9.354   9.940   7.364
20995SOL    HW164824   9.400   9.931   7.448
20995SOL    HW264825   9.297   9.863   7.360
20996SOL     OW64826  14.788   8.437  12.715
20996SOL    HW164827  14.822   8.500  12.651
20996SOL    HW264828  14.769   8.490  12.792
20997SOL     OW64829   5.201  12.337  11.580
20997SOL    HW164830   5.256  12.278  11.630
20997SOL    HW264831   5.246  12.422  11.584
20998SOL     OW64832  14.066   4.179   6.853
20998SOL    HW164833  14.006   4.231   6.800
20998SOL    HW264834  14.013   4.107   6.886
20999SOL     OW64835   2.076   2.203   5.182
20999SOL    HW164836   2.156   2.176   5.138
20999SOL    HW264837   2.011   2.212   5.112
21000SOL     OW64838  14.227   6.121  10.534
21000SOL    HW164839  14.224   6.189  10.602
21000SOL    HW264840  14.318   6.090  10.536
21001SOL     OW64841   5.720   9.794   1.034
21001SOL    HW164842   5.650   9.736   1.065
21001SOL    HW264843   5.683   9.837   0.957
21002SOL     OW64844   7.503   6.562   8.495
21002SOL    HW164845   7.537   6.478   8.465
21002SOL    HW264846   7.568   6.626   8.466
21003SOL     OW64847  14.007  13.140  10.444
21003SOL    HW164848  13.963  13.099  10.369
21003SOL    HW264849  13.967  13.097  10.520
21004SOL     OW64850  12.856   7.839  10.546
21004SOL    HW164851  12.874   7.788  10.625
21004SOL    HW264852  12.939   7.881  10.525
21005SOL     OW64853   4.633  13.651   5.486
21005SOL    HW164854   4.643  13.651   5.581
21005SOL    HW264855   4.722  13.656   5.452
21006SOL     OW64856   3.616   1.541   2.985
21006SOL    HW164857   3.645   1.608   3.047
21006SOL    HW264858   3.602   1.463   3.038
21007SOL     OW64859   3.052   1.971   5.979
21007SOL    HW164860   3.132   2.020   5.962
21007SOL    HW264861   3.014   2.012   6.057
21008SOL     OW64862  13.197  10.297   3.249
21008SOL    HW164863  13.125  10.282   3.311
21008SOL    HW264864  13.236  10.211   3.236
21009SOL     OW64865   1.671   2.733  10.417
21009SOL    HW164866   1.740   2.749  10.481
21009SOL    HW264867   1.678   2.640  10.397
21010SOL     OW64868  11.663   2.097  10.387
21010SOL    HW164869  11.709   2.164  10.438
21010SOL    HW264870  11.717   2.086  10.309
21011SOL     OW64871  11.758   2.575  10.471
21011SOL    HW164872  11.771   2.627  10.392
21011SOL    HW264873  11.664   2.558  10.473
21012SOL     OW64874  12.962   0.177   2.282
21012SOL    HW164875  12.918   0.260   2.269
21012SOL    HW264876  12.906   0.113   2.238
21013SOL     OW64877  14.396  14.115  14.371
21013SOL    HW164878  14.429  14.056  14.439
21013SOL    HW264879  14.472  14.170  14.348
21014SOL     OW64880  10.272   2.595   9.477
21014SOL    HW164881  10.231   2.538   9.412
21014SOL    HW264882  10.350   2.629   9.433
21015SOL     OW64883   1.097  13.064   1.978
21015SOL    HW164884   1.028  13.002   1.953
21015SOL    HW264885   1.074  13.091   2.067
21016SOL     OW64886   9.563  12.607   9.330
21016SOL    HW164887   9.593  12.628   9.419
21016SOL    HW264888   9.637  12.629   9.274
21017SOL     OW64889   3.149  12.415  13.436
21017SOL    HW164890   3.150  12.504  13.473
21017SOL    HW264891   3.104  12.425  13.351
21018SOL     OW64892   6.309   1.936   1.728
21018SOL    HW164893   6.372   1.993   1.682
21018SOL    HW264894   6.249   1.997   1.771
21019SOL     OW64895   2.479   5.983  14.103
21019SOL    HW164896   2.407   5.976  14.166
21019SOL    HW264897   2.556   5.996  14.158
21020SOL     OW64898   5.707   3.923   5.975
21020SOL    HW164899   5.633   3.862   5.971
21020SOL    HW264900   5.668   4.006   6.002
21021SOL     OW64901   2.747   3.447  14.162
21021SOL    HW164902   2.840   3.456  14.180
21021SOL    HW264903   2.706   3.520  14.209
21022SOL     OW64904   5.945   4.638   0.346
21022SOL    HW164905   5.913   4.637   0.255
21022SOL    HW264906   5.884   4.582   0.394
21023SOL     OW64907  14.636  11.104   3.390
21023SOL    HW164908  14.548  11.072   3.373
21023SOL    HW264909  14.623  11.193   3.424
21024SOL     OW64910   3.334   8.151   2.547
21024SOL    HW164911   3.366   8.084   2.607
21024SOL    HW264912   3.375   8.130   2.463
21025SOL     OW64913   8.621   6.676  12.585
21025SOL    HW164914   8.641   6.641  12.672
21025SOL    HW264915   8.645   6.606  12.524
21026SOL     OW64916   2.574   0.602   7.580
21026SOL    HW164917   2.636   0.632   7.513
21026SOL    HW264918   2.595   0.509   7.591
21027SOL     OW64919   5.902  10.444   5.700
21027SOL    HW164920   5.875  10.360   5.662
21027SOL    HW264921   5.856  10.510   5.647
21028SOL     OW64922   3.841   7.889  13.707
21028SOL    HW164923   3.766   7.843  13.746
21028SOL    HW264924   3.868   7.952  13.774
21029SOL     OW64925   8.187  13.072  11.664
21029SOL    HW164926   8.151  13.022  11.591
21029SOL    HW264927   8.193  13.162  11.630
21030SOL     OW64928   2.657   8.574   2.125
21030SOL    HW164929   2.573   8.562   2.171
21030SOL    HW264930   2.675   8.667   2.132
21031SOL     OW64931   1.162  12.847   3.048
21031SOL    HW164932   1.210  12.872   2.969
21031SOL    HW264933   1.229  12.843   3.116
21032SOL     OW64934   9.053   4.376  10.527
21032SOL    HW164935   9.037   4.464  10.492
21032SOL    HW264936   9.025   4.317  10.456
21033SOL     OW64937   8.321   2.306   0.078
21033SOL    HW164938   8.347   2.350   0.159
21033SOL    HW264939   8.322   2.213   0.100
21034SOL     OW64940   9.013   9.550   2.391
21034SOL    HW164941   9.035   9.544   2.298
21034SOL    HW264942   8.929   9.595   2.394
21035SOL     OW64943   6.168   3.956   6.649
21035SOL    HW164944   6.096   3.918   6.599
21035SOL    HW264945   6.128   4.025   6.702
21036SOL     OW64946   5.749  12.632  10.209
21036SOL    HW164947   5.797  12.552  10.229
21036SOL    HW264948   5.811  12.703  10.224
21037SOL     OW64949   5.217   6.944  11.607
21037SOL    HW164950   5.134   6.991  11.610
21037SOL    HW264951   5.280   7.003  11.649
21038SOL     OW64952  14.718   3.574   8.035
21038SOL    HW164953  14.749   3.608   8.119
21038SOL    HW264954  14.754   3.485   8.031
21039SOL     OW64955  12.862   6.271  11.355
21039SOL    HW164956  12.932   6.208  11.340
21039SOL    HW264957  12.789   6.241  11.301
21040SOL     OW64958   3.731   1.593  12.694
21040SOL    HW164959   3.642   1.561  12.707
21040SOL    HW264960   3.781   1.551  12.764
21041SOL     OW64961   6.444   8.777   5.184
21041SOL    HW164962   6.359   8.809   5.155
21041SOL    HW264963   6.508   8.827   5.133
21042SOL     OW64964   3.526  11.132  11.381
21042SOL    HW164965   3.437  11.140  11.416
21042SOL    HW264966   3.521  11.173  11.294
21043SOL     OW64967   0.494  11.492  12.481
21043SOL    HW164968   0.581  11.487  12.520
21043SOL    HW264969   0.455  11.571  12.520
21044SOL     OW64970  12.742   8.994   0.941
21044SOL    HW164971  12.646   8.987   0.941
21044SOL    HW264972  12.762   9.050   1.016
21045SOL     OW64973  11.989   2.395   3.710
21045SOL    HW164974  12.064   2.435   3.666
21045SOL    HW264975  11.971   2.317   3.658
21046SOL     OW64976   4.413  11.007   1.253
21046SOL    HW164977   4.351  11.016   1.180
21046SOL    HW264978   4.430  11.097   1.281
21047SOL     OW64979   2.574   2.114   0.582
21047SOL    HW164980   2.582   2.176   0.509
21047SOL    HW264981   2.563   2.029   0.539
21048SOL     OW64982   5.793  11.989   4.754
21048SOL    HW164983   5.804  12.016   4.662
21048SOL    HW264984   5.850  12.048   4.803
21049SOL     OW64985   3.581   3.253   3.929
21049SOL    HW164986   3.595   3.327   3.987
21049SOL    HW264987   3.487   3.252   3.913
21050SOL     OW64988   1.771   8.991   9.157
21050SOL    HW164989   1.708   9.031   9.097
21050SOL    HW264990   1.853   8.989   9.108
21051SOL     OW64991   8.741   6.556   9.346
21051SOL    HW164992   8.689   6.577   9.423
21051SOL    HW264993   8.813   6.501   9.378
21052SOL     OW64994   0.242   7.277   2.628
21052SOL    HW164995   0.294   7.323   2.562
21052SOL    HW264996   0.189   7.345   2.669
21053SOL     OW64997  13.410  11.062   0.276
21053SOL    HW164998  13.492  11.013   0.270
21053SOL    HW264999  13.428  11.145   0.233
21054SOL     OW65000   5.406  13.323   7.761
21054SOL    HW165001   5.378  13.389   7.698
21054SOL    HW265002   5.326  13.295   7.805
21055SOL     OW65003  13.892  10.243   9.767
21055SOL    HW165004  13.979  10.271   9.796
21055SOL    HW265005  13.888  10.150   9.789
21056SOL     OW65006   4.821   5.347   6.358
21056SOL    HW165007   4.764   5.277   6.327
21056SOL    HW265008   4.762   5.418   6.382
21057SOL     OW65009   9.275   9.139   0.873
21057SOL    HW165010   9.235   9.052   0.869
21057SOL    HW265011   9.235   9.180   0.951
21058SOL     OW65012  10.284  11.056   8.883
21058SOL    HW165013  10.193  11.066   8.910
21058SOL    HW265014  10.292  10.963   8.860
21059SOL     OW65015   3.268  11.060   8.654
21059SOL    HW165016   3.312  11.131   8.700
21059SOL    HW265017   3.282  10.983   8.709
21060SOL     OW65018  13.739   8.486   8.094
21060SOL    HW165019  13.679   8.532   8.036
21060SOL    HW265020  13.716   8.518   8.181
21061SOL     OW65021   0.290   8.029   2.692
21061SOL    HW165022   0.306   8.092   2.762
21061SOL    HW265023   0.309   7.944   2.731
21062SOL     OW65024   7.016   3.186   8.400
21062SOL    HW165025   6.933   3.143   8.378
21062SOL    HW265026   7.051   3.134   8.472
21063SOL     OW65027  13.631  13.854  13.483
21063SOL    HW165028  13.576  13.900  13.547
21063SOL    HW265029  13.572  13.836  13.410
21064SOL     OW65030   8.760  11.619   0.490
21064SOL    HW165031   8.759  11.548   0.554
21064SOL    HW265032   8.702  11.588   0.420
21065SOL     OW65033   3.952   7.554   5.780
21065SOL    HW165034   3.977   7.516   5.864
21065SOL    HW265035   4.030   7.545   5.724
21066SOL     OW65036  11.423   7.530   8.652
21066SOL    HW165037  11.356   7.597   8.646
21066SOL    HW265038  11.429   7.493   8.564
21067SOL     OW65039   4.331   2.702   4.193
21067SOL    HW165040   4.408   2.731   4.144
21067SOL    HW265041   4.288   2.783   4.219
21068SOL     OW65042  12.782   3.437   7.545
21068SOL    HW165043  12.782   3.501   7.616
21068SOL    HW265044  12.873   3.430   7.518
21069SOL     OW65045   8.641  11.039   5.153
21069SOL    HW165046   8.695  11.041   5.074
21069SOL    HW265047   8.702  11.020   5.224
21070SOL     OW65048   0.371   0.394   6.449
21070SOL    HW165049   0.435   0.328   6.422
21070SOL    HW265050   0.367   0.386   6.544
21071SOL     OW65051   2.579   3.065  10.390
21071SOL    HW165052   2.647   3.085  10.326
21071SOL    HW265053   2.500   3.050  10.338
21072SOL     OW65054  13.999   6.781   0.951
21072SOL    HW165055  14.057   6.763   1.024
21072SOL    HW265056  14.057   6.790   0.875
21073SOL     OW65057   4.838  11.284  10.028
21073SOL    HW165058   4.776  11.226   9.983
21073SOL    HW265059   4.923  11.256   9.996
21074SOL     OW65060   7.206   7.238  10.131
21074SOL    HW165061   7.298   7.236  10.155
21074SOL    HW265062   7.166   7.298  10.194
21075SOL     OW65063   9.129  13.157   1.997
21075SOL    HW165064   9.085  13.115   2.072
21075SOL    HW265065   9.061  13.210   1.956
21076SOL     OW65066   0.194   6.597   6.395
21076SOL    HW165067   0.153   6.542   6.329
21076SOL    HW265068   0.232   6.670   6.346
21077SOL     OW65069  11.133   5.112   2.450
21077SOL    HW165070  11.158   5.143   2.538
21077SOL    HW265071  11.216   5.102   2.404
21078SOL     OW65072   0.720  12.593   8.408
21078SOL    HW165073   0.800  12.591   8.357
21078SOL    HW265074   0.708  12.503   8.438
21079SOL     OW65075  11.089   5.195  14.428
21079SOL    HW165076  11.044   5.128  14.480
21079SOL    HW265077  11.173   5.156  14.406
21080SOL     OW65078   5.146   1.877   3.799
21080SOL    HW165079   5.184   1.964   3.810
21080SOL    HW265080   5.220   1.821   3.777
21081SOL     OW65081  10.254  14.156  13.244
21081SOL    HW165082  10.195  14.138  13.318
21081SOL    HW265083  10.303  14.234  13.270
21082SOL     OW65084   1.187   3.154   9.367
21082SOL    HW165085   1.254   3.111   9.314
21082SOL    HW265086   1.237   3.201   9.434
21083SOL     OW65087  13.806   5.943   1.603
21083SOL    HW165088  13.785   6.030   1.568
21083SOL    HW265089  13.883   5.957   1.658
21084SOL     OW65090   8.297  11.009   9.980
21084SOL    HW165091   8.357  10.938  10.003
21084SOL    HW265092   8.217  10.965   9.952
21085SOL     OW65093  13.792   7.442   4.442
21085SOL    HW165094  13.782   7.532   4.473
21085SOL    HW265095  13.875   7.441   4.396
21086SOL     OW65096  14.323  13.447   7.802
21086SOL    HW165097  14.260  13.424   7.871
21086SOL    HW265098  14.407  13.417   7.836
21087SOL     OW65099  12.310   2.853   9.443
21087SOL    HW165100  12.221   2.886   9.453
21087SOL    HW265101  12.308   2.766   9.484
21088SOL     OW65102   8.297   2.349   3.493
21088SOL    HW165103   8.283   2.403   3.415
21088SOL    HW265104   8.218   2.361   3.545
21089SOL     OW65105   2.108   3.392   7.822
21089SOL    HW165106   2.084   3.484   7.837
21089SOL    HW265107   2.026   3.349   7.801
21090SOL     OW65108   6.480   6.902  11.596
21090SOL    HW165109   6.420   6.835  11.629
21090SOL    HW265110   6.563   6.855  11.585
21091SOL     OW65111   9.051   0.690   7.664
21091SOL    HW165112   9.131   0.685   7.718
21091SOL    HW265113   8.996   0.619   7.696
21092SOL     OW65114   1.303   5.045   3.507
21092SOL    HW165115   1.255   5.124   3.482
21092SOL    HW265116   1.252   5.007   3.578
21093SOL     OW65117  13.866  10.986   9.409
21093SOL    HW165118  13.910  10.983   9.324
21093SOL    HW265119  13.923  10.936   9.467
21094SOL     OW65120   9.555  12.131   0.603
21094SOL    HW165121   9.469  12.152   0.566
21094SOL    HW265122   9.536  12.080   0.682
21095SOL     OW65123   5.707  11.076   9.631
21095SOL    HW165124   5.688  10.997   9.680
21095SOL    HW265125   5.651  11.143   9.671
21096SOL     OW65126   9.262   7.697   4.479
21096SOL    HW165127   9.308   7.692   4.562
21096SOL    HW265128   9.331   7.713   4.414
21097SOL     OW65129   5.325   1.125  10.745
21097SOL    HW165130   5.382   1.194  10.713
21097SOL    HW265131   5.370   1.044  10.721
21098SOL     OW65132  14.872   8.615  14.190
21098SOL    HW165133  14.828   8.542  14.145
21098SOL    HW265134   0.086   8.599  14.176
21099SOL     OW65135  11.571   9.262  13.751
21099SOL    HW165136  11.557   9.250  13.657
21099SOL    HW265137  11.629   9.190  13.776
21100SOL     OW65138  11.729  12.937  10.669
21100SOL    HW165139  11.782  12.884  10.610
21100SOL    HW265140  11.718  13.020  10.622
21101SOL     OW65141  13.742  10.533  10.919
21101SOL    HW165142  13.695  10.554  11.000
21101SOL    HW265143  13.753  10.438  10.921
21102SOL     OW65144   1.817  13.092  11.118
21102SOL    HW165145   1.746  13.146  11.082
21102SOL    HW265146   1.849  13.042  11.043
21103SOL     OW65147   8.030   2.161  11.905
21103SOL    HW165148   8.072   2.244  11.929
21103SOL    HW265149   7.978   2.183  11.828
21104SOL     OW65150  14.713  14.142   1.064
21104SOL    HW165151  14.740  14.211   1.125
21104SOL    HW265152  14.645  14.183   1.011
21105SOL     OW65153   0.855   0.014   7.924
21105SOL    HW165154   0.950   0.019   7.924
21105SOL    HW265155   0.832  14.870   7.834
21106SOL     OW65156   7.855   4.637  13.451
21106SOL    HW165157   7.840   4.606  13.541
21106SOL    HW265158   7.935   4.690  13.458
21107SOL     OW65159  14.694  13.038  10.889
21107SOL    HW165160  14.748  13.115  10.904
21107SOL    HW265161  14.754  12.964  10.892
21108SOL     OW65162   8.749   2.621   7.259
21108SOL    HW165163   8.664   2.587   7.231
21108SOL    HW265164   8.773   2.568   7.335
21109SOL     OW65165   1.575  11.146   7.533
21109SOL    HW165166   1.594  11.125   7.624
21109SOL    HW265167   1.633  11.218   7.511
21110SOL     OW65168   8.844   0.864   4.423
21110SOL    HW165169   8.847   0.788   4.481
21110SOL    HW265170   8.872   0.937   4.479
21111SOL     OW65171   4.720   1.530   7.783
21111SOL    HW165172   4.723   1.532   7.879
21111SOL    HW265173   4.757   1.444   7.760
21112SOL     OW65174   6.626   5.596   1.007
21112SOL    HW165175   6.652   5.515   0.964
21112SOL    HW265176   6.558   5.569   1.070
21113SOL     OW65177  13.149   5.794  13.628
21113SOL    HW165178  13.094   5.768  13.555
21113SOL    HW265179  13.088   5.811  13.700
21114SOL     OW65180  14.444  10.900  13.822
21114SOL    HW165181  14.446  10.996  13.829
21114SOL    HW265182  14.352  10.877  13.831
21115SOL     OW65183  14.560   4.860   7.456
21115SOL    HW165184  14.471   4.840   7.485
21115SOL    HW265185  14.606   4.776   7.460
21116SOL     OW65186  14.587   8.002   7.292
21116SOL    HW165187  14.558   7.934   7.231
21116SOL    HW265188  14.506   8.045   7.320
21117SOL     OW65189   4.845  13.055   0.033
21117SOL    HW165190   4.862  13.140  14.871
21117SOL    HW265191   4.910  13.049   0.103
21118SOL     OW65192  11.335  10.649   3.228
21118SOL    HW165193  11.291  10.629   3.145
21118SOL    HW265194  11.379  10.567   3.252
21119SOL     OW65195   2.942   1.337  10.639
21119SOL    HW165196   3.027   1.294  10.629
21119SOL    HW265197   2.942   1.372  10.728
21120SOL     OW65198   5.454   1.913   5.762
21120SOL    HW165199   5.484   1.823   5.776
21120SOL    HW265200   5.401   1.908   5.682
21121SOL     OW65201   3.868  13.078   0.883
21121SOL    HW165202   3.835  13.015   0.947
21121SOL    HW265203   3.958  13.050   0.866
21122SOL     OW65204   2.498   3.900   6.471
21122SOL    HW165205   2.441   3.825   6.451
21122SOL    HW265206   2.523   3.935   6.386
21123SOL     OW65207  11.674   7.638   8.371
21123SOL    HW165208  11.683   7.697   8.446
21123SOL    HW265209  11.745   7.575   8.382
21124SOL     OW65210   4.483   8.844   9.878
21124SOL    HW165211   4.416   8.843   9.947
21124SOL    HW265212   4.566   8.843   9.925
21125SOL     OW65213  13.760   2.423   1.460
21125SOL    HW165214  13.769   2.363   1.386
21125SOL    HW265215  13.791   2.373   1.535
21126SOL     OW65216  11.421   1.638   4.368
21126SOL    HW165217  11.497   1.629   4.424
21126SOL    HW265218  11.379   1.720   4.396
21127SOL     OW65219  13.058  14.723   4.572
21127SOL    HW165220  12.993  14.767   4.518
21127SOL    HW265221  13.027  14.734   4.662
21128SOL     OW65222   2.176  13.478  13.379
21128SOL    HW165223   2.157  13.410  13.444
21128SOL    HW265224   2.272  13.482  13.376
21129SOL     OW65225   3.918  11.581  10.027
21129SOL    HW165226   3.896  11.657  10.082
21129SOL    HW265227   3.924  11.508  10.089
21130SOL     OW65228   0.102   5.744   3.236
21130SOL    HW165229   0.016   5.743   3.276
21130SOL    HW265230   0.157   5.792   3.298
21131SOL     OW65231  11.820   2.816   2.940
21131SOL    HW165232  11.780   2.903   2.945
21131SOL    HW265233  11.785   2.770   3.016
21132SOL     OW65234  14.165   7.327  10.867
21132SOL    HW165235  14.144   7.234  10.868
21132SOL    HW265236  14.253   7.332  10.903
21133SOL     OW65237  13.988   4.725  12.603
21133SOL    HW165238  14.007   4.747  12.695
21133SOL    HW265239  13.962   4.633  12.605
21134SOL     OW65240  10.855  13.230  13.939
21134SOL    HW165241  10.928  13.263  13.992
21134SOL    HW265242  10.857  13.135  13.951
21135SOL     OW65243   7.546  10.409   9.450
21135SOL    HW165244   7.488  10.483   9.434
21135SOL    HW265245   7.583  10.426   9.537
21136SOL     OW65246   1.303   7.080   3.059
21136SOL    HW165247   1.312   7.175   3.049
21136SOL    HW265248   1.382   7.053   3.107
21137SOL     OW65249   9.791   0.628  14.714
21137SOL    HW165250   9.719   0.692  14.711
21137SOL    HW265251   9.844   0.649  14.636
21138SOL     OW65252  14.446   6.611   5.439
21138SOL    HW165253  14.491   6.529   5.416
21138SOL    HW265254  14.367   6.583   5.486
21139SOL     OW65255   6.909   1.939   5.097
21139SOL    HW165256   6.821   1.917   5.128
21139SOL    HW265257   6.960   1.859   5.112
21140SOL     OW65258   1.245   3.392   7.153
21140SOL    HW165259   1.278   3.308   7.187
21140SOL    HW265260   1.293   3.458   7.203
21141SOL     OW65261   9.132   1.564   8.772
21141SOL    HW165262   9.222   1.531   8.775
21141SOL    HW265263   9.096   1.540   8.858
21142SOL     OW65264   4.270   6.570   9.300
21142SOL    HW165265   4.350   6.617   9.277
21142SOL    HW265266   4.291   6.524   9.381
21143SOL     OW65267   5.072   9.312  14.037
21143SOL    HW165268   5.028   9.237  13.995
21143SOL    HW265269   5.016   9.387  14.015
21144SOL     OW65270   6.876  12.701   7.132
21144SOL    HW165271   6.879  12.727   7.040
21144SOL    HW265272   6.795  12.741   7.165
21145SOL     OW65273  10.090   0.458   6.298
21145SOL    HW165274  10.062   0.438   6.209
21145SOL    HW265275  10.144   0.536   6.290
21146SOL     OW65276  10.589   8.378   9.899
21146SOL    HW165277  10.585   8.304   9.838
21146SOL    HW265278  10.671   8.365   9.947
21147SOL     OW65279  13.725   2.516   9.472
21147SOL    HW165280  13.661   2.466   9.522
21147SOL    HW265281  13.674   2.588   9.433
21148SOL     OW65282  14.463  10.705   6.222
21148SOL    HW165283  14.500  10.632   6.171
21148SOL    HW265284  14.532  10.728   6.284
21149SOL     OW65285  11.435   7.369   1.816
21149SOL    HW165286  11.350   7.402   1.845
21149SOL    HW265287  11.476   7.444   1.772
21150SOL     OW65288   9.006   4.845   2.001
21150SOL    HW165289   9.036   4.770   2.052
21150SOL    HW265290   9.064   4.847   1.925
21151SOL     OW65291  12.136   3.868   7.250
21151SOL    HW165292  12.086   3.790   7.271
21151SOL    HW265293  12.072   3.929   7.212
21152SOL     OW65294   0.911  10.256   2.408
21152SOL    HW165295   0.921  10.171   2.451
21152SOL    HW265296   0.975  10.312   2.452
21153SOL     OW65297   4.770  11.855  10.937
21153SOL    HW165298   4.858  11.828  10.908
21153SOL    HW265299   4.743  11.787  10.998
21154SOL     OW65300   1.155  10.101  13.213
21154SOL    HW165301   1.209  10.104  13.134
21154SOL    HW265302   1.071  10.138  13.186
21155SOL     OW65303   8.036   7.586   3.410
21155SOL    HW165304   7.981   7.534   3.469
21155SOL    HW265305   8.103   7.624   3.466
21156SOL     OW65306  12.463   9.618  13.803
21156SOL    HW165307  12.471   9.577  13.717
21156SOL    HW265308  12.471   9.712  13.786
21157SOL     OW65309   4.795   1.374   5.000
21157SOL    HW165310   4.762   1.298   4.950
21157SOL    HW265311   4.806   1.341   5.089
21158SOL     OW65312   5.739   1.377   8.181
21158SOL    HW165313   5.690   1.386   8.263
21158SOL    HW265314   5.809   1.315   8.202
21159SOL     OW65315  11.852  10.603  12.904
21159SOL    HW165316  11.908  10.588  12.981
21159SOL    HW265317  11.763  10.606  12.939
21160SOL     OW65318  14.024  14.850   0.884
21160SOL    HW165319  14.117  14.828   0.888
21160SOL    HW265320  13.991  14.800   0.809
21161SOL     OW65321   3.075   7.758   5.819
21161SOL    HW165322   3.018   7.715   5.884
21161SOL    HW265323   3.086   7.692   5.751
21162SOL     OW65324   0.778   1.921   4.961
21162SOL    HW165325   0.806   1.870   5.037
21162SOL    HW265326   0.794   2.012   4.985
21163SOL     OW65327   9.759   5.198   3.635
21163SOL    HW165328   9.776   5.139   3.708
21163SOL    HW265329   9.709   5.145   3.573
21164SOL     OW65330   7.976   5.887   2.559
21164SOL    HW165331   8.060   5.916   2.595
21164SOL    HW265332   7.992   5.883   2.464
21165SOL     OW65333  10.738   1.146  12.317
21165SOL    HW165334  10.728   1.053  12.297
21165SOL    HW265335  10.660   1.168  12.369
21166SOL     OW65336  13.959   1.362   8.331
21166SOL    HW165337  13.904   1.390   8.258
21166SOL    HW265338  14.011   1.291   8.296
21167SOL     OW65339   2.004  11.386   7.472
21167SOL    HW165340   1.980  11.442   7.398
21167SOL    HW265341   2.075  11.332   7.438
21168SOL     OW65342   7.060  10.604   0.319
21168SOL    HW165343   6.993  10.671   0.306
21168SOL    HW265344   7.119  10.613   0.244
21169SOL     OW65345   3.137   6.158  10.483
21169SOL    HW165346   3.181   6.164  10.398
21169SOL    HW265347   3.098   6.245  10.495
21170SOL     OW65348   3.213  10.368  14.575
21170SOL    HW165349   3.280  10.436  14.568
21170SOL    HW265350   3.130  10.415  14.565
21171SOL     OW65351  11.911   2.879   9.216
21171SOL    HW165352  11.902   2.820   9.141
21171SOL    HW265353  11.822   2.908   9.235
21172SOL     OW65354  11.360  12.453  10.358
21172SOL    HW165355  11.454  12.436  10.351
21172SOL    HW265356  11.344  12.526  10.299
21173SOL     OW65357  14.131   4.387   3.660
21173SOL    HW165358  14.052   4.336   3.644
21173SOL    HW265359  14.158   4.364   3.749
21174SOL     OW65360   6.323   8.948   9.208
21174SOL    HW165361   6.372   8.956   9.291
21174SOL    HW265362   6.251   8.888   9.229
21175SOL     OW65363  10.793   2.578   1.159
21175SOL    HW165364  10.864   2.631   1.195
21175SOL    HW265365  10.827   2.489   1.158
21176SOL     OW65366   3.773  10.174   8.146
21176SOL    HW165367   3.844  10.181   8.082
21176SOL    HW265368   3.749  10.082   8.144
21177SOL     OW65369  13.783  12.465   6.634
21177SOL    HW165370  13.762  12.416   6.555
21177SOL    HW265371  13.793  12.398   6.702
21178SOL     OW65372   5.805   4.214   3.905
21178SOL    HW165373   5.724   4.166   3.919
21178SOL    HW265374   5.784   4.279   3.838
21179SOL     OW65375   7.536  12.892  11.229
21179SOL    HW165376   7.443  12.913  11.223
21179SOL    HW265377   7.577  12.941  11.158
21180SOL     OW65378   0.975  13.200   8.134
21180SOL    HW165379   1.045  13.175   8.074
21180SOL    HW265380   0.937  13.279   8.094
21181SOL     OW65381   3.375   4.850  10.060
21181SOL    HW165382   3.360   4.777  10.000
21181SOL    HW265383   3.361   4.813  10.147
21182SOL     OW65384  14.448  10.069   5.325
21182SOL    HW165385  14.498   9.999   5.367
21182SOL    HW265386  14.356  10.041   5.335
21183SOL     OW65387  12.581   0.020   4.195
21183SOL    HW165388  12.565  14.841   4.268
21183SOL    HW265389  12.667  14.875   4.162
21184SOL     OW65390  11.477  11.014  12.019
21184SOL    HW165391  11.425  11.019  11.938
21184SOL    HW265392  11.415  11.034  12.089
21185SOL     OW65393   2.790   2.181   2.519
21185SOL    HW165394   2.852   2.199   2.448
21185SOL    HW265395   2.786   2.085   2.523
21186SOL     OW65396   5.327   4.097   8.630
21186SOL    HW165397   5.233   4.113   8.623
21186SOL    HW265398   5.351   4.132   8.716
21187SOL     OW65399   9.068   9.965   3.557
21187SOL    HW165400   9.154  10.001   3.536
21187SOL    HW265401   9.029   9.945   3.472
21188SOL     OW65402  13.261  14.715   7.573
21188SOL    HW165403  13.253  14.645   7.638
21188SOL    HW265404  13.257  14.669   7.489
21189SOL     OW65405   9.992   7.919  12.249
21189SOL    HW165406   9.958   7.994  12.200
21189SOL    HW265407  10.084   7.915  12.225
21190SOL     OW65408   3.903   8.040   2.368
21190SOL    HW165409   3.838   7.975   2.395
21190SOL    HW265410   3.950   7.999   2.296
21191SOL     OW65411  11.208   8.710   5.565
21191SOL    HW165412  11.157   8.730   5.644
21191SOL    HW265413  11.298   8.736   5.588
21192SOL     OW65414   3.544   2.879   0.715
21192SOL    HW165415   3.450   2.875   0.732
21192SOL    HW265416   3.583   2.830   0.787
21193SOL     OW65417  10.593   4.082  12.927
21193SOL    HW165418  10.672   4.116  12.884
21193SOL    HW265419  10.618   3.994  12.957
21194SOL     OW65420  12.695  14.497   3.396
21194SOL    HW165421  12.758  14.507   3.468
21194SOL    HW265422  12.707  14.406   3.367
21195SOL     OW65423   4.218   2.653   8.100
21195SOL    HW165424   4.228   2.623   8.010
21195SOL    HW265425   4.128   2.686   8.105
21196SOL     OW65426   7.130  13.169   6.783
21196SOL    HW165427   7.161  13.103   6.845
21196SOL    HW265428   7.208  13.221   6.763
21197SOL     OW65429   9.651   3.723   7.103
21197SOL    HW165430   9.729   3.774   7.125
21197SOL    HW265431   9.684   3.651   7.050
21198SOL     OW65432   2.968   0.908   4.470
21198SOL    HW165433   2.999   0.878   4.556
21198SOL    HW265434   3.032   0.974   4.443
21199SOL     OW65435  14.058  14.727  14.007
21199SOL    HW165436  13.982  14.699  13.956
21199SOL    HW265437  14.028  14.804  14.055
21200SOL     OW65438  12.493   8.336   3.597
21200SOL    HW165439  12.518   8.355   3.688
21200SOL    HW265440  12.399   8.323   3.600
21201SOL     OW65441   9.382   9.550   0.703
21201SOL    HW165442   9.353   9.588   0.621
21201SOL    HW265443   9.305   9.554   0.760
21202SOL     OW65444  12.527   9.646   0.907
21202SOL    HW165445  12.600   9.633   0.846
21202SOL    HW265446  12.453   9.670   0.851
21203SOL     OW65447   2.654  12.377  10.307
21203SOL    HW165448   2.737  12.356  10.349
21203SOL    HW265449   2.595  12.306  10.334
21204SOL     OW65450   0.625  13.222  13.826
21204SOL    HW165451   0.682  13.294  13.853
21204SOL    HW265452   0.536  13.257  13.836
21205SOL     OW65453   9.976   7.872   8.442
21205SOL    HW165454   9.884   7.848   8.455
21205SOL    HW265455  10.025   7.811   8.498
21206SOL     OW65456   3.058  14.666  11.478
21206SOL    HW165457   2.981  14.634  11.430
21206SOL    HW265458   3.032  14.663  11.570
21207SOL     OW65459   4.877   0.059   2.386
21207SOL    HW165460   4.846   0.137   2.341
21207SOL    HW265461   4.972   0.065   2.383
21208SOL     OW65462   8.684   6.972   2.292
21208SOL    HW165463   8.778   6.951   2.288
21208SOL    HW265464   8.658   6.948   2.380
21209SOL     OW65465  11.871   2.770   0.020
21209SOL    HW165466  11.929   2.821   0.077
21209SOL    HW265467  11.810   2.834  14.864
21210SOL     OW65468  11.914   1.192   5.819
21210SOL    HW165469  11.827   1.155   5.833
21210SOL    HW265470  11.904   1.285   5.836
21211SOL     OW65471   8.856   7.258  11.539
21211SOL    HW165472   8.820   7.321  11.602
21211SOL    HW265473   8.786   7.245  11.476
21212SOL     OW65474  13.031   8.272  10.230
21212SOL    HW165475  13.036   8.361  10.196
21212SOL    HW265476  13.040   8.283  10.325
21213SOL     OW65477   8.514  12.629  10.633
21213SOL    HW165478   8.552  12.698  10.578
21213SOL    HW265479   8.562  12.634  10.715
21214SOL     OW65480   2.349  11.958  14.323
21214SOL    HW165481   2.385  11.874  14.292
21214SOL    HW265482   2.372  11.961  14.416
21215SOL     OW65483  10.398   2.984   0.442
21215SOL    HW165484  10.483   3.029   0.438
21215SOL    HW265485  10.386   2.963   0.534
21216SOL     OW65486   1.720   2.618   8.007
21216SOL    HW165487   1.669   2.583   7.934
21216SOL    HW265488   1.734   2.543   8.065
21217SOL     OW65489   1.405  14.603   3.651
21217SOL    HW165490   1.394  14.509   3.667
21217SOL    HW265491   1.478  14.608   3.589
21218SOL     OW65492   9.299  11.447   6.269
21218SOL    HW165493   9.351  11.486   6.340
21218SOL    HW265494   9.364  11.405   6.213
21219SOL     OW65495   6.612  10.474  10.829
21219SOL    HW165496   6.613  10.570  10.832
21219SOL    HW265497   6.572  10.454  10.744
21220SOL     OW65498   8.270   3.679   6.142
21220SOL    HW165499   8.246   3.597   6.185
21220SOL    HW265500   8.315   3.730   6.210
21221SOL     OW65501   5.250   7.240   1.508
21221SOL    HW165502   5.230   7.223   1.601
21221SOL    HW265503   5.173   7.205   1.461
21222SOL     OW65504  10.207   5.968  13.513
21222SOL    HW165505  10.278   5.905  13.523
21222SOL    HW265506  10.246   6.052  13.540
21223SOL     OW65507   5.167   8.465  14.314
21223SOL    HW165508   5.094   8.527  14.307
21223SOL    HW265509   5.129   8.381  14.289
21224SOL     OW65510   0.473   1.547   0.619
21224SOL    HW165511   0.551   1.509   0.657
21224SOL    HW265512   0.407   1.541   0.689
21225SOL     OW65513   7.832   9.605   1.498
21225SOL    HW165514   7.908   9.625   1.552
21225SOL    HW265515   7.858   9.526   1.449
21226SOL     OW65516   4.225   5.620   6.254
21226SOL    HW165517   4.163   5.623   6.327
21226SOL    HW265518   4.229   5.527   6.230
21227SOL     OW65519   6.652   0.087   2.558
21227SOL    HW165520   6.627   0.080   2.651
21227SOL    HW265521   6.664   0.180   2.543
21228SOL     OW65522   3.807   3.700   5.957
21228SOL    HW165523   3.840   3.707   5.867
21228SOL    HW265524   3.848   3.620   5.991
21229SOL     OW65525   3.241   6.713   4.673
21229SOL    HW165526   3.223   6.768   4.750
21229SOL    HW265527   3.326   6.745   4.641
21230SOL     OW65528  11.716   2.766   6.963
21230SOL    HW165529  11.808   2.787   6.945
21230SOL    HW265530  11.719   2.720   7.047
21231SOL     OW65531  10.397  10.240   8.708
21231SOL    HW165532  10.380  10.152   8.675
21231SOL    HW265533  10.404  10.294   8.629
21232SOL     OW65534   7.897   5.704  14.516
21232SOL    HW165535   7.862   5.740  14.598
21232SOL    HW265536   7.821   5.696  14.459
21233SOL     OW65537   1.022  12.999  12.549
21233SOL    HW165538   1.052  13.083  12.516
21233SOL    HW265539   0.972  13.020  12.628
21234SOL     OW65540   7.287  12.633   0.350
21234SOL    HW165541   7.348  12.621   0.423
21234SOL    HW265542   7.337  12.683   0.285
21235SOL     OW65543   3.839  12.218   6.146
21235SOL    HW165544   3.814  12.305   6.177
21235SOL    HW265545   3.871  12.172   6.224
21236SOL     OW65546   1.625   6.869   0.520
21236SOL    HW165547   1.714   6.859   0.552
21236SOL    HW265548   1.629   6.943   0.460
21237SOL     OW65549   1.550   4.637   3.560
21237SOL    HW165550   1.495   4.561   3.577
21237SOL    HW265551   1.514   4.676   3.481
21238SOL     OW65552   3.068   2.003   8.433
21238SOL    HW165553   3.032   1.921   8.468
21238SOL    HW265554   3.079   2.059   8.510
21239SOL     OW65555  12.228   2.812   8.927
21239SOL    HW165556  12.156   2.764   8.967
21239SOL    HW265557  12.228   2.897   8.969
21240SOL     OW65558  13.933  11.258   8.411
21240SOL    HW165559  14.016  11.221   8.381
21240SOL    HW265560  13.897  11.192   8.470
21241SOL     OW65561  14.404  10.156  13.932
21241SOL    HW165562  14.408  10.217  14.005
21241SOL    HW265563  14.496  10.139  13.911
21242SOL     OW65564   0.250   1.755   4.252
21242SOL    HW165565   0.156   1.774   4.262
21242SOL    HW265566   0.257   1.715   4.165
21243SOL     OW65567   8.555   8.869  12.290
21243SOL    HW165568   8.546   8.959  12.320
21243SOL    HW265569   8.500   8.864  12.212
21244SOL     OW65570  11.409  14.801   1.257
21244SOL    HW165571  11.337  14.832   1.312
21244SOL    HW265572  11.431  14.715   1.293
21245SOL     OW65573  13.614   9.131   3.741
21245SOL    HW165574  13.702   9.155   3.772
21245SOL    HW265575  13.563   9.120   3.821
21246SOL     OW65576   6.650  12.287  11.191
21246SOL    HW165577   6.617  12.219  11.133
21246SOL    HW265578   6.723  12.327  11.142
21247SOL     OW65579   1.146   0.616   0.849
21247SOL    HW165580   1.106   0.700   0.871
21247SOL    HW265581   1.239   0.630   0.864
21248SOL     OW65582  13.884  14.276   8.930
21248SOL    HW165583  13.929  14.271   9.015
21248SOL    HW265584  13.943  14.327   8.874
21249SOL     OW65585   2.645   8.344   8.761
21249SOL    HW165586   2.737   8.372   8.762
21249SOL    HW265587   2.641   8.274   8.827
21250SOL     OW65588  11.688   5.988   1.995
21250SOL    HW165589  11.719   5.898   2.006
21250SOL    HW265590  11.768   6.041   1.994
21251SOL     OW65591   0.930  14.574   2.831
21251SOL    HW165592   0.902  14.484   2.817
21251SOL    HW265593   0.880  14.604   2.907
21252SOL     OW65594  13.633   6.944  11.843
21252SOL    HW165595  13.700   6.998  11.801
21252SOL    HW265596  13.576   6.916  11.772
21253SOL     OW65597   9.518   8.092   0.441
21253SOL    HW165598   9.461   8.097   0.518
21253SOL    HW265599   9.482   8.157   0.381
21254SOL     OW65600   9.169   2.580  10.977
21254SOL    HW165601   9.201   2.605  10.890
21254SOL    HW265602   9.089   2.631  10.988
21255SOL     OW65603  11.601   7.172  13.012
21255SOL    HW165604  11.562   7.219  13.086
21255SOL    HW265605  11.682   7.219  12.993
21256SOL     OW65606   9.405   9.285   9.305
21256SOL    HW165607   9.422   9.196   9.277
21256SOL    HW265608   9.437   9.340   9.233
21257SOL     OW65609  14.477   6.282  14.711
21257SOL    HW165610  14.402   6.225  14.731
21257SOL    HW265611  14.531   6.277  14.790
21258SOL     OW65612   3.862  14.531  13.823
21258SOL    HW165613   3.938  14.493  13.779
21258SOL    HW265614   3.786  14.493  13.778
21259SOL     OW65615   3.078   0.231   0.690
21259SOL    HW165616   2.991   0.215   0.653
21259SOL    HW265617   3.075   0.190   0.776
21260SOL     OW65618  12.502   5.858   6.342
21260SOL    HW165619  12.484   5.764   6.333
21260SOL    HW265620  12.420   5.896   6.371
21261SOL     OW65621   8.543   4.855   8.902
21261SOL    HW165622   8.575   4.939   8.870
21261SOL    HW265623   8.537   4.866   8.997
21262SOL     OW65624  10.824   4.714  12.679
21262SOL    HW165625  10.858   4.755  12.600
21262SOL    HW265626  10.729   4.715  12.667
21263SOL     OW65627  10.396   6.785   2.429
21263SOL    HW165628  10.371   6.753   2.342
21263SOL    HW265629  10.412   6.705   2.480
21264SOL     OW65630   2.732   9.552  10.711
21264SOL    HW165631   2.776   9.633  10.684
21264SOL    HW265632   2.721   9.560  10.805
21265SOL     OW65633   8.507   7.971   9.294
21265SOL    HW165634   8.542   7.935   9.212
21265SOL    HW265635   8.412   7.970   9.282
21266SOL     OW65636  14.382   8.917   4.327
21266SOL    HW165637  14.305   8.860   4.323
21266SOL    HW265638  14.422   8.910   4.240
21267SOL     OW65639   7.100   8.537   9.533
21267SOL    HW165640   7.037   8.579   9.475
21267SOL    HW265641   7.125   8.457   9.487
21268SOL     OW65642  14.288   4.328   7.904
21268SOL    HW165643  14.367   4.274   7.909
21268SOL    HW265644  14.221   4.271   7.869
21269SOL     OW65645  12.508  13.221   3.560
21269SOL    HW165646  12.417  13.252   3.558
21269SOL    HW265647  12.538  13.242   3.649
21270SOL     OW65648  14.589   8.715   8.240
21270SOL    HW165649  14.526   8.656   8.283
21270SOL    HW265650  14.674   8.675   8.256
21271SOL     OW65651   2.446   0.765   0.306
21271SOL    HW165652   2.513   0.830   0.286
21271SOL    HW265653   2.473   0.728   0.390
21272SOL     OW65654   6.803   9.696   7.615
21272SOL    HW165655   6.870   9.657   7.672
21272SOL    HW265656   6.749   9.748   7.674
21273SOL     OW65657   5.052   3.439   8.260
21273SOL    HW165658   5.068   3.465   8.169
21273SOL    HW265659   5.036   3.522   8.305
21274SOL     OW65660  13.616  12.578   5.779
21274SOL    HW165661  13.590  12.577   5.687
21274SOL    HW265662  13.543  12.621   5.824
21275SOL     OW65663  10.606   2.500   1.456
21275SOL    HW165664  10.616   2.425   1.398
21275SOL    HW265665  10.673   2.489   1.522
21276SOL     OW65666   7.882  14.004   3.891
21276SOL    HW165667   7.801  13.961   3.865
21276SOL    HW265668   7.943  13.932   3.909
21277SOL     OW65669  14.379   3.747   5.365
21277SOL    HW165670  14.346   3.697   5.439
21277SOL    HW265671  14.329   3.716   5.290
21278SOL     OW65672  11.217   2.572  13.635
21278SOL    HW165673  11.194   2.572  13.542
21278SOL    HW265674  11.260   2.656  13.649
21279SOL     OW65675  12.186  10.213   4.156
21279SOL    HW165676  12.242  10.142   4.189
21279SOL    HW265677  12.142  10.247   4.234
21280SOL     OW65678  14.592   6.212   9.420
21280SOL    HW165679  14.541   6.172   9.350
21280SOL    HW265680  14.619   6.140   9.476
21281SOL     OW65681   9.204   9.053   7.108
21281SOL    HW165682   9.274   9.094   7.158
21281SOL    HW265683   9.169   8.986   7.167
21282SOL     OW65684   0.044   4.746   8.001
21282SOL    HW165685   0.063   4.838   8.021
21282SOL    HW265686  14.837   4.731   8.038
21283SOL     OW65687  11.445   9.934   5.267
21283SOL    HW165688  11.507   9.983   5.214
21283SOL    HW265689  11.439   9.983   5.349
21284SOL     OW65690   8.654   3.285  10.715
21284SOL    HW165691   8.735   3.330  10.689
21284SOL    HW265692   8.589   3.355  10.720
21285SOL     OW65693   0.398  14.597   8.291
21285SOL    HW165694   0.491  14.609   8.272
21285SOL    HW265695   0.392  14.606   8.386
21286SOL     OW65696   1.246   9.032   1.877
21286SOL    HW165697   1.298   9.070   1.948
21286SOL    HW265698   1.178   9.098   1.859
21287SOL     OW65699   3.620   1.610   2.140
21287SOL    HW165700   3.672   1.687   2.163
21287SOL    HW265701   3.611   1.562   2.222
21288SOL     OW65702  11.395   9.742  10.577
21288SOL    HW165703  11.422   9.682  10.647
21288SOL    HW265704  11.339   9.689  10.520
21289SOL     OW65705   8.690  13.480  10.553
21289SOL    HW165706   8.596  13.498  10.559
21289SOL    HW265707   8.699  13.422  10.478
21290SOL     OW65708   9.741   9.576  12.906
21290SOL    HW165709   9.754   9.620  12.991
21290SOL    HW265710   9.771   9.640  12.842
21291SOL     OW65711   6.046   6.931   4.558
21291SOL    HW165712   5.963   6.966   4.589
21291SOL    HW265713   6.101   6.927   4.637
21292SOL     OW65714  13.365   9.601   3.096
21292SOL    HW165715  13.377   9.557   3.180
21292SOL    HW265716  13.308   9.543   3.046
21293SOL     OW65717   4.533   5.674  11.537
21293SOL    HW165718   4.481   5.676  11.617
21293SOL    HW265719   4.559   5.582  11.528
21294SOL     OW65720  11.070  14.852   3.644
21294SOL    HW165721  11.120  14.780   3.684
21294SOL    HW265722  10.979  14.820   3.643
21295SOL     OW65723   7.555   2.028   2.287
21295SOL    HW165724   7.607   2.080   2.226
21295SOL    HW265725   7.604   2.033   2.370
21296SOL     OW65726  11.011  14.359   0.957
21296SOL    HW165727  11.102  14.337   0.936
21296SOL    HW265728  10.980  14.407   0.880
21297SOL     OW65729  11.728  11.619   8.880
21297SOL    HW165730  11.662  11.633   8.947
21297SOL    HW265731  11.710  11.686   8.814
21298SOL     OW65732  11.585   3.416   7.506
21298SOL    HW165733  11.635   3.449   7.431
21298SOL    HW265734  11.631   3.451   7.583
21299SOL     OW65735   8.034   2.671  14.299
21299SOL    HW165736   7.996   2.613  14.365
21299SOL    HW265737   7.960   2.697  14.245
21300SOL     OW65738  10.824  13.899  12.919
21300SOL    HW165739  10.846  13.846  12.995
21300SOL    HW265740  10.888  13.970  12.919
21301SOL     OW65741   2.000  14.617   6.775
21301SOL    HW165742   1.963  14.702   6.800
21301SOL    HW265743   2.041  14.584   6.855
21302SOL     OW65744   1.316   7.423  10.375
21302SOL    HW165745   1.227   7.459  10.384
21302SOL    HW265746   1.363   7.458  10.451
21303SOL     OW65747   6.815   4.063   0.460
21303SOL    HW165748   6.909   4.080   0.460
21303SOL    HW265749   6.779   4.129   0.402
21304SOL     OW65750   7.837   8.211  12.200
21304SOL    HW165751   7.794   8.295  12.216
21304SOL    HW265752   7.917   8.234  12.153
21305SOL     OW65753   6.560   2.394   7.435
21305SOL    HW165754   6.645   2.438   7.431
21305SOL    HW265755   6.565   2.340   7.514
21306SOL     OW65756  14.385   6.785  13.694
21306SOL    HW165757  14.362   6.855  13.632
21306SOL    HW265758  14.329   6.800  13.769
21307SOL     OW65759  14.282   5.023   6.805
21307SOL    HW165760  14.367   5.024   6.761
21307SOL    HW265761  14.293   5.081   6.880
21308SOL     OW65762   3.785  11.514   2.213
21308SOL    HW165763   3.833  11.564   2.279
21308SOL    HW265764   3.719  11.575   2.181
21309SOL     OW65765   0.714   4.530   7.147
21309SOL    HW165766   0.706   4.500   7.238
21309SOL    HW265767   0.625   4.553   7.122
21310SOL     OW65768   1.353   9.636  13.365
21310SOL    HW165769   1.323   9.568  13.304
21310SOL    HW265770   1.363   9.714  13.310
21311SOL     OW65771  13.107  13.673   4.303
21311SOL    HW165772  13.021  13.708   4.280
21311SOL    HW265773  13.121  13.702   4.393
21312SOL     OW65774   5.971  11.624   1.567
21312SOL    HW165775   6.015  11.682   1.505
21312SOL    HW265776   5.884  11.661   1.578
21313SOL     OW65777   2.278  10.360   9.266
21313SOL    HW165778   2.196  10.333   9.224
21313SOL    HW265779   2.278  10.455   9.261
21314SOL     OW65780  11.081  13.776  10.384
21314SOL    HW165781  11.094  13.777  10.479
21314SOL    HW265782  11.061  13.685  10.364
21315SOL     OW65783  14.821   7.921  14.437
21315SOL    HW165784  14.732   7.954  14.437
21315SOL    HW265785  14.875   7.996  14.411
21316SOL     OW65786   7.549  12.415   3.563
21316SOL    HW165787   7.585  12.397   3.650
21316SOL    HW265788   7.493  12.492   3.577
21317SOL     OW65789   4.685   8.326  14.486
21317SOL    HW165790   4.670   8.409  14.441
21317SOL    HW265791   4.741   8.349  14.560
21318SOL     OW65792   9.717  13.009  14.621
21318SOL    HW165793   9.658  13.082  14.606
21318SOL    HW265794   9.673  12.934  14.579
21319SOL     OW65795   8.842   1.196   8.477
21319SOL    HW165796   8.882   1.279   8.504
21319SOL    HW265797   8.914   1.148   8.435
21320SOL     OW65798   0.806   1.839  13.544
21320SOL    HW165799   0.787   1.923  13.586
21320SOL    HW265800   0.872   1.799  13.600
21321SOL     OW65801  12.568   0.273  13.138
21321SOL    HW165802  12.609   0.240  13.058
21321SOL    HW265803  12.538   0.361  13.115
21322SOL     OW65804  13.974  11.053   9.922
21322SOL    HW165805  13.999  11.143   9.941
21322SOL    HW265806  13.937  11.056   9.834
21323SOL     OW65807  10.479   1.209   9.512
21323SOL    HW165808  10.494   1.185   9.420
21323SOL    HW265809  10.485   1.305   9.513
21324SOL     OW65810   1.242   1.450   0.865
21324SOL    HW165811   1.336   1.467   0.857
21324SOL    HW265812   1.206   1.531   0.901
21325SOL     OW65813   2.017   0.390  11.199
21325SOL    HW165814   2.038   0.319  11.139
21325SOL    HW265815   2.101   0.432  11.218
21326SOL     OW65816   9.631   1.098   3.633
21326SOL    HW165817   9.726   1.107   3.639
21326SOL    HW265818   9.598   1.117   3.721
21327SOL     OW65819   2.907  14.242   1.614
21327SOL    HW165820   2.893  14.284   1.699
21327SOL    HW265821   2.853  14.292   1.553
21328SOL     OW65822  14.526   1.721   7.726
21328SOL    HW165823  14.556   1.753   7.811
21328SOL    HW265824  14.451   1.777   7.705
21329SOL     OW65825  14.635  13.478   3.496
21329SOL    HW165826  14.567  13.501   3.560
21329SOL    HW265827  14.608  13.522   3.415
21330SOL     OW65828   6.700  11.008   4.937
21330SOL    HW165829   6.664  11.039   5.020
21330SOL    HW265830   6.704  11.087   4.882
21331SOL     OW65831   4.685  11.947   7.439
21331SOL    HW165832   4.592  11.968   7.452
21331SOL    HW265833   4.700  11.871   7.495
21332SOL     OW65834   4.654   5.510   8.497
21332SOL    HW165835   4.618   5.425   8.473
21332SOL    HW265836   4.580   5.559   8.533
21333SOL     OW65837   3.057   1.544   7.175
21333SOL    HW165838   3.111   1.621   7.190
21333SOL    HW265839   3.118   1.479   7.138
21334SOL     OW65840   1.145   3.063  10.316
21334SOL    HW165841   1.059   3.078  10.277
21334SOL    HW265842   1.178   3.150  10.337
21335SOL     OW65843   2.913   6.889   8.508
21335SOL    HW165844   2.982   6.940   8.551
21335SOL    HW265845   2.960   6.834   8.445
21336SOL     OW65846   0.561  10.711  10.647
21336SOL    HW165847   0.653  10.719  10.620
21336SOL    HW265848   0.539  10.798  10.680
21337SOL     OW65849   5.178  14.102   8.174
21337SOL    HW165850   5.093  14.059   8.164
21337SOL    HW265851   5.196  14.142   8.089
21338SOL     OW65852  13.453   1.985   5.102
21338SOL    HW165853  13.430   1.934   5.180
21338SOL    HW265854  13.379   2.043   5.089
21339SOL     OW65855  10.732   9.776   0.873
21339SOL    HW165856  10.754   9.777   0.966
21339SOL    HW265857  10.809   9.812   0.829
21340SOL     OW65858   3.024  11.791   8.073
21340SOL    HW165859   3.061  11.750   8.151
21340SOL    HW265860   2.951  11.734   8.048
21341SOL     OW65861   7.052   4.028   1.183
21341SOL    HW165862   7.028   4.068   1.100
21341SOL    HW265863   7.072   3.937   1.162
21342SOL     OW65864   1.862   4.558   9.365
21342SOL    HW165865   1.871   4.583   9.273
21342SOL    HW265866   1.948   4.524   9.389
21343SOL     OW65867  10.960  13.129   2.656
21343SOL    HW165868  10.865  13.133   2.648
21343SOL    HW265869  10.992  13.211   2.618
21344SOL     OW65870  11.364   7.216   9.822
21344SOL    HW165871  11.345   7.237   9.913
21344SOL    HW265872  11.354   7.300   9.776
21345SOL     OW65873   5.459   6.407   8.846
21345SOL    HW165874   5.492   6.320   8.823
21345SOL    HW265875   5.531   6.466   8.826
21346SOL     OW65876   1.390   9.921   8.517
21346SOL    HW165877   1.307   9.877   8.498
21346SOL    HW265878   1.434   9.927   8.433
21347SOL     OW65879   1.410   0.171   0.007
21347SOL    HW165880   1.453   0.087   0.019
21347SOL    HW265881   1.358   0.160  14.807
21348SOL     OW65882   8.758   4.413   5.580
21348SOL    HW165883   8.822   4.374   5.521
21348SOL    HW265884   8.704   4.468   5.523
21349SOL     OW65885   0.878  12.750  12.550
21349SOL    HW165886   0.831  12.759  12.634
21349SOL    HW265887   0.937  12.825  12.548
21350SOL     OW65888   1.719  14.110   7.425
21350SOL    HW165889   1.700  14.182   7.485
21350SOL    HW265890   1.666  14.129   7.347
21351SOL     OW65891   2.457   1.667  10.839
21351SOL    HW165892   2.457   1.586  10.788
21351SOL    HW265893   2.457   1.737  10.773
21352SOL     OW65894   0.081   8.987  14.549
21352SOL    HW165895   0.046   9.047  14.615
21352SOL    HW265896   0.077   8.901  14.590
21353SOL     OW65897   1.841   0.672   5.399
21353SOL    HW165898   1.823   0.687   5.492
21353SOL    HW265899   1.793   0.592   5.378
21354SOL     OW65900   2.557   4.989   5.314
21354SOL    HW165901   2.505   5.003   5.235
21354SOL    HW265902   2.493   4.992   5.385
21355SOL     OW65903   5.734   8.790  13.543
21355SOL    HW165904   5.774   8.714  13.586
21355SOL    HW265905   5.649   8.758  13.513
21356SOL     OW65906   9.944  13.311  11.089
21356SOL    HW165907   9.889  13.388  11.078
21356SOL    HW265908   9.968  13.312  11.182
21357SOL     OW65909   7.358   7.750   3.021
21357SOL    HW165910   7.413   7.768   2.945
21357SOL    HW265911   7.296   7.824   3.023
21358SOL     OW65912   3.937   0.904  14.410
21358SOL    HW165913   3.843   0.916  14.424
21358SOL    HW265914   3.974   0.903  14.498
21359SOL     OW65915   5.548   2.117  14.855
21359SOL    HW165916   5.588   2.152   0.055
21359SOL    HW265917   5.468   2.075   0.005
21360SOL     OW65918   2.897   1.352   9.775
21360SOL    HW165919   2.918   1.443   9.753
21360SOL    HW265920   2.851   1.359   9.859
21361SOL     OW65921  12.406  10.388   4.999
21361SOL    HW165922  12.387  10.467   4.950
21361SOL    HW265923  12.328  10.373   5.053
21362SOL     OW65924   4.548   3.572  12.649
21362SOL    HW165925   4.634   3.539  12.625
21362SOL    HW265926   4.566   3.642  12.712
21363SOL     OW65927   1.023  11.327   7.585
21363SOL    HW165928   1.046  11.303   7.495
21363SOL    HW265929   1.107  11.337   7.630
21364SOL     OW65930   6.192  12.354   9.251
21364SOL    HW165931   6.189  12.447   9.272
21364SOL    HW265932   6.120  12.316   9.302
21365SOL     OW65933   3.457   8.800   2.402
21365SOL    HW165934   3.432   8.846   2.482
21365SOL    HW265935   3.391   8.825   2.338
21366SOL     OW65936   7.251   9.975   5.457
21366SOL    HW165937   7.178   9.924   5.423
21366SOL    HW265938   7.276  10.033   5.385
21367SOL     OW65939   9.899   9.971  13.869
21367SOL    HW165940   9.841  10.009  13.803
21367SOL    HW265941   9.986  10.002  13.844
21368SOL     OW65942  11.175   7.418   0.565
21368SOL    HW165943  11.227   7.369   0.501
21368SOL    HW265944  11.216   7.399   0.649
21369SOL     OW65945   3.644   3.248  14.709
21369SOL    HW165946   3.598   3.302  14.773
21369SOL    HW265947   3.616   3.282  14.624
21370SOL     OW65948   7.599  11.069  13.459
21370SOL    HW165949   7.581  11.161  13.477
21370SOL    HW265950   7.657  11.042  13.530
21371SOL     OW65951   4.650   7.179   7.649
21371SOL    HW165952   4.651   7.113   7.579
21371SOL    HW265953   4.708   7.144   7.716
21372SOL     OW65954   5.590   8.912   9.393
21372SOL    HW165955   5.505   8.945   9.364
21372SOL    HW265956   5.574   8.878   9.481
21373SOL     OW65957   6.625  13.674  13.623
21373SOL    HW165958   6.635  13.590  13.578
21373SOL    HW265959   6.693  13.673  13.691
21374SOL     OW65960   5.977  13.573  11.200
21374SOL    HW165961   5.898  13.571  11.146
21374SOL    HW265962   6.040  13.519  11.153
21375SOL     OW65963  13.691   7.704   5.441
21375SOL    HW165964  13.696   7.798   5.455
21375SOL    HW265965  13.637   7.672   5.514
21376SOL     OW65966   6.455  12.194   1.138
21376SOL    HW165967   6.450  12.284   1.169
21376SOL    HW265968   6.497  12.199   1.053
21377SOL     OW65969   5.893   1.663   7.730
21377SOL    HW165970   5.839   1.588   7.707
21377SOL    HW265971   5.899   1.714   7.649
21378SOL     OW65972   6.327   0.050   5.891
21378SOL    HW165973   6.277   0.087   5.818
21378SOL    HW265974   6.418   0.069   5.869
21379SOL     OW65975   4.617  14.541   8.459
21379SOL    HW165976   4.688  14.478   8.441
21379SOL    HW265977   4.539  14.486   8.468
21380SOL     OW65978  14.205   2.873   8.154
21380SOL    HW165979  14.246   2.877   8.240
21380SOL    HW265980  14.111   2.869   8.171
21381SOL     OW65981  11.447   9.374   3.841
21381SOL    HW165982  11.480   9.307   3.902
21381SOL    HW265983  11.368   9.335   3.804
21382SOL     OW65984  14.635  14.512   7.477
21382SOL    HW165985  14.584  14.573   7.531
21382SOL    HW265986  14.716  14.559   7.457
21383SOL     OW65987   0.348  14.807   2.588
21383SOL    HW165988   0.268  14.756   2.570
21383SOL    HW265989   0.378  14.774   2.673
21384SOL     OW65990   5.825  11.087   4.910
21384SOL    HW165991   5.752  11.146   4.928
21384SOL    HW265992   5.784  11.005   4.882
21385SOL     OW65993  10.240   2.811  13.138
21385SOL    HW165994  10.282   2.815  13.051
21385SOL    HW265995  10.149   2.835  13.122
21386SOL     OW65996   4.179  11.494   0.982
21386SOL    HW165997   4.093  11.509   0.943
21386SOL    HW265998   4.202  11.576   1.024
21387SOL     OW65999   2.320   5.268  12.778
21387SOL    HW166000   2.411   5.273  12.808
21387SOL    HW266001   2.313   5.335  12.710
21388SOL     OW66002   2.890   5.539   9.078
21388SOL    HW166003   2.942   5.618   9.063
21388SOL    HW266004   2.854   5.517   8.992
21389SOL     OW66005   6.028   1.770   8.473
21389SOL    HW166006   6.073   1.850   8.502
21389SOL    HW266007   5.937   1.798   8.458
21390SOL     OW66008   2.907   1.424   3.322
21390SOL    HW166009   2.861   1.503   3.348
21390SOL    HW266010   2.935   1.440   3.232
21391SOL     OW66011  12.146   3.345  14.507
21391SOL    HW166012  12.075   3.284  14.488
21391SOL    HW266013  12.219   3.314  14.454
21392SOL     OW66014   2.671   6.381   7.774
21392SOL    HW166015   2.723   6.461   7.768
21392SOL    HW266016   2.735   6.311   7.783
21393SOL     OW66017  10.098   1.221  13.434
21393SOL    HW166018  10.086   1.147  13.374
21393SOL    HW266019  10.042   1.200  13.509
21394SOL     OW66020  11.491   3.892  14.172
21394SOL    HW166021  11.409   3.907  14.219
21394SOL    HW266022  11.536   3.977  14.175
21395SOL     OW66023   6.874   8.389   1.041
21395SOL    HW166024   6.818   8.312   1.054
21395SOL    HW266025   6.825   8.461   1.081
21396SOL     OW66026  12.703   7.385  12.972
21396SOL    HW166027  12.733   7.307  12.926
21396SOL    HW266028  12.612   7.397  12.942
21397SOL     OW66029   5.195  10.209   8.774
21397SOL    HW166030   5.238  10.286   8.736
21397SOL    HW266031   5.244  10.135   8.740
21398SOL     OW66032   9.671   8.556   9.004
21398SOL    HW166033   9.585   8.539   9.041
21398SOL    HW266034   9.654   8.583   8.914
21399SOL     OW66035  13.151  13.909   5.211
21399SOL    HW166036  13.247  13.915   5.212
21399SOL    HW266037  13.126  13.922   5.302
21400SOL     OW66038   8.608  10.563   4.258
21400SOL    HW166039   8.582  10.654   4.274
21400SOL    HW266040   8.527  10.519   4.235
21401SOL     OW66041   2.536  13.480   0.215
21401SOL    HW166042   2.517  13.556   0.270
21401SOL    HW266043   2.631  13.481   0.204
21402SOL     OW66044   7.771   6.647   7.219
21402SOL    HW166045   7.776   6.687   7.132
21402SOL    HW266046   7.832   6.574   7.216
21403SOL     OW66047   6.702   2.156   6.644
21403SOL    HW166048   6.680   2.083   6.702
21403SOL    HW266049   6.693   2.234   6.700
21404SOL     OW66050   6.661  13.462   5.522
21404SOL    HW166051   6.653  13.554   5.497
21404SOL    HW266052   6.575  13.439   5.556
21405SOL     OW66053   0.695  11.571   2.498
21405SOL    HW166054   0.784  11.590   2.466
21405SOL    HW266055   0.646  11.548   2.419
21406SOL     OW66056  10.455   4.861   9.926
21406SOL    HW166057  10.545   4.893   9.924
21406SOL    HW266058  10.448   4.804   9.849
21407SOL     OW66059  13.693   3.875  11.564
21407SOL    HW166060  13.746   3.807  11.607
21407SOL    HW266061  13.673   3.839  11.478
21408SOL     OW66062   3.329  14.868   6.363
21408SOL    HW166063   3.289   0.070   6.334
21408SOL    HW266064   3.256  14.812   6.389
21409SOL     OW66065   9.740   1.702   0.071
21409SOL    HW166066   9.654   1.725   0.035
21409SOL    HW266067   9.724   1.689   0.165
21410SOL     OW66068  10.563   1.138   8.528
21410SOL    HW166069  10.540   1.191   8.605
21410SOL    HW266070  10.638   1.085   8.557
21411SOL     OW66071   1.530   4.308   7.378
21411SOL    HW166072   1.532   4.348   7.291
21411SOL    HW266073   1.614   4.331   7.417
21412SOL     OW66074   6.026   9.263   3.549
21412SOL    HW166075   6.040   9.223   3.635
21412SOL    HW266076   6.107   9.246   3.501
21413SOL     OW66077  12.080  13.889   5.829
21413SOL    HW166078  12.038  13.957   5.881
21413SOL    HW266079  12.171  13.888   5.860
21414SOL     OW66080   1.108  10.041  12.845
21414SOL    HW166081   1.188  10.030  12.898
21414SOL    HW266082   1.072   9.953  12.837
21415SOL     OW66083   5.940   0.448   4.317
21415SOL    HW166084   6.021   0.453   4.366
21415SOL    HW266085   5.904   0.537   4.320
21416SOL     OW66086  13.404  12.843   0.018
21416SOL    HW166087  13.312  12.820   0.030
21416SOL    HW266088  13.404  12.938   0.007
21417SOL     OW66089   6.553  14.400   8.988
21417SOL    HW166090   6.556  14.370   8.897
21417SOL    HW266091   6.467  14.443   8.995
21418SOL     OW66092   7.520   9.066  10.320
21418SOL    HW166093   7.583   9.077  10.391
21418SOL    HW266094   7.573   9.046  10.243
21419SOL     OW66095  11.243   3.232   0.049
21419SOL    HW166096  11.176   3.197   0.107
21419SOL    HW266097  11.232   3.327   0.053
21420SOL     OW66098  13.971  11.376  13.439
21420SOL    HW166099  13.926  11.293  13.420
21420SOL    HW266100  13.913  11.422  13.498
21421SOL     OW66101   5.044  11.379  12.671
21421SOL    HW166102   4.984  11.417  12.606
21421SOL    HW266103   5.107  11.449  12.690
21422SOL     OW66104   1.087   7.203   9.894
21422SOL    HW166105   1.124   7.135   9.951
21422SOL    HW266106   1.051   7.155   9.820
21423SOL     OW66107   4.906   1.009  14.387
21423SOL    HW166108   4.945   1.055  14.461
21423SOL    HW266109   4.965   1.027  14.314
21424SOL     OW66110   8.030   7.740   0.670
21424SOL    HW166111   8.104   7.769   0.616
21424SOL    HW266112   8.044   7.646   0.680
21425SOL     OW66113   9.118   8.889  11.356
21425SOL    HW166114   9.122   8.803  11.397
21425SOL    HW266115   9.180   8.942  11.406
21426SOL     OW66116   1.696  14.386   4.401
21426SOL    HW166117   1.790  14.396   4.418
21426SOL    HW266118   1.661  14.348   4.482
21427SOL     OW66119   6.906   5.605  12.362
21427SOL    HW166120   6.930   5.555  12.285
21427SOL    HW266121   6.987   5.650  12.388
21428SOL     OW66122   4.773   0.112   1.008
21428SOL    HW166123   4.690   0.157   0.991
21428SOL    HW266124   4.748   0.035   1.059
21429SOL     OW66125   0.309  13.322   3.400
21429SOL    HW166126   0.249  13.339   3.472
21429SOL    HW266127   0.291  13.231   3.375
21430SOL     OW66128   8.516  12.797   8.097
21430SOL    HW166129   8.594  12.803   8.042
21430SOL    HW266130   8.464  12.727   8.058
21431SOL     OW66131   0.949   9.818   0.201
21431SOL    HW166132   0.964   9.846   0.111
21431SOL    HW266133   0.955   9.898   0.253
21432SOL     OW66134   6.230  10.961   1.453
21432SOL    HW166135   6.280  10.897   1.503
21432SOL    HW266136   6.235  11.042   1.504
21433SOL     OW66137   9.922   9.576  11.161
21433SOL    HW166138  10.017   9.575  11.162
21433SOL    HW266139   9.896   9.495  11.206
21434SOL     OW66140  11.460  13.627   4.927
21434SOL    HW166141  11.534  13.680   4.898
21434SOL    HW266142  11.412  13.608   4.847
21435SOL     OW66143   7.780   8.769   6.686
21435SOL    HW166144   7.812   8.680   6.679
21435SOL    HW266145   7.777   8.787   6.780
21436SOL     OW66146   6.996   2.959   9.633
21436SOL    HW166147   7.086   2.986   9.650
21436SOL    HW266148   6.944   3.006   9.698
21437SOL     OW66149  10.551   5.034   7.863
21437SOL    HW166150  10.631   5.084   7.852
21437SOL    HW266151  10.514   5.028   7.775
21438SOL     OW66152   0.739  13.735  10.496
21438SOL    HW166153   0.702  13.819  10.523
21438SOL    HW266154   0.663  13.684  10.467
21439SOL     OW66155   1.183   7.759   2.899
21439SOL    HW166156   1.136   7.789   2.821
21439SOL    HW266157   1.237   7.686   2.868
21440SOL     OW66158   1.123   7.487  10.559
21440SOL    HW166159   1.111   7.476  10.653
21440SOL    HW266160   1.035   7.504  10.525
21441SOL     OW66161   7.151  12.837  11.988
21441SOL    HW166162   7.113  12.920  11.958
21441SOL    HW266163   7.168  12.788  11.907
21442SOL     OW66164   2.428  13.637   6.274
21442SOL    HW166165   2.392  13.566   6.221
21442SOL    HW266166   2.392  13.622   6.362
21443SOL     OW66167   4.358   0.556   7.100
21443SOL    HW166168   4.277   0.518   7.136
21443SOL    HW266169   4.346   0.650   7.110
21444SOL     OW66170  13.913  13.684  13.831
21444SOL    HW166171  13.874  13.767  13.803
21444SOL    HW266172  13.850  13.647  13.892
21445SOL     OW66173   1.531  12.749   7.317
21445SOL    HW166174   1.553  12.690   7.389
21445SOL    HW266175   1.436  12.756   7.320
21446SOL     OW66176   2.855   8.788   8.308
21446SOL    HW166177   2.850   8.694   8.295
21446SOL    HW266178   2.764   8.817   8.312
21447SOL     OW66179   5.667   0.975  11.651
21447SOL    HW166180   5.679   1.018  11.735
21447SOL    HW266181   5.581   0.934  11.657
21448SOL     OW66182   2.244   3.979  12.795
21448SOL    HW166183   2.232   4.046  12.862
21448SOL    HW266184   2.234   3.896  12.842
21449SOL     OW66185   2.049   3.237   1.628
21449SOL    HW166186   2.048   3.160   1.684
21449SOL    HW266187   1.974   3.226   1.569
21450SOL     OW66188  10.238   6.086   6.288
21450SOL    HW166189  10.216   6.170   6.248
21450SOL    HW266190  10.155   6.038   6.290
21451SOL     OW66191   8.236  12.225  10.260
21451SOL    HW166192   8.160  12.241  10.316
21451SOL    HW266193   8.268  12.313  10.238
21452SOL     OW66194   7.909   6.061  10.044
21452SOL    HW166195   7.959   6.140  10.024
21452SOL    HW266196   7.915   6.008   9.964
21453SOL     OW66197   9.474   4.598   1.089
21453SOL    HW166198   9.379   4.601   1.097
21453SOL    HW266199   9.492   4.634   1.003
21454SOL     OW66200   5.588   0.852   6.232
21454SOL    HW166201   5.509   0.884   6.275
21454SOL    HW266202   5.558   0.821   6.146
21455SOL     OW66203  13.515  14.508   6.989
21455SOL    HW166204  13.597  14.558   6.986
21455SOL    HW266205  13.452  14.567   7.029
21456SOL     OW66206   9.905   2.350  12.374
21456SOL    HW166207   9.954   2.268  12.378
21456SOL    HW266208   9.814   2.323  12.362
21457SOL     OW66209  12.536  11.396   8.586
21457SOL    HW166210  12.454  11.447   8.588
21457SOL    HW266211  12.529  11.336   8.660
21458SOL     OW66212   6.794   9.164  11.510
21458SOL    HW166213   6.880   9.202  11.530
21458SOL    HW266214   6.814   9.073  11.485
21459SOL     OW66215   8.016   2.289  14.627
21459SOL    HW166216   7.974   2.222  14.681
21459SOL    HW266217   8.108   2.290  14.656
21460SOL     OW66218   6.114   1.221   4.974
21460SOL    HW166219   6.169   1.179   4.908
21460SOL    HW266220   6.145   1.186   5.057
21461SOL     OW66221  10.480   2.489   9.954
21461SOL    HW166222  10.406   2.482  10.015
21461SOL    HW266223  10.455   2.433   9.880
21462SOL     OW66224   7.328  11.956  10.906
21462SOL    HW166225   7.255  11.992  10.856
21462SOL    HW266226   7.403  12.011  10.884
21463SOL     OW66227   5.479   2.797   0.329
21463SOL    HW166228   5.512   2.871   0.380
21463SOL    HW266229   5.476   2.724   0.390
21464SOL     OW66230  14.188  12.494   4.211
21464SOL    HW166231  14.099  12.488   4.176
21464SOL    HW266232  14.245  12.489   4.135
21465SOL     OW66233   0.688   3.142   1.788
21465SOL    HW166234   0.623   3.113   1.852
21465SOL    HW266235   0.770   3.103   1.818
21466SOL     OW66236   3.168  13.530   3.165
21466SOL    HW166237   3.167  13.602   3.228
21466SOL    HW266238   3.183  13.452   3.218
21467SOL     OW66239   6.849   9.706   9.000
21467SOL    HW166240   6.827   9.701   9.093
21467SOL    HW266241   6.831   9.797   8.975
21468SOL     OW66242   4.612   6.573   8.589
21468SOL    HW166243   4.581   6.662   8.571
21468SOL    HW266244   4.638   6.539   8.503
21469SOL     OW66245  13.691  11.189   1.147
21469SOL    HW166246  13.750  11.224   1.214
21469SOL    HW266247  13.670  11.101   1.178
21470SOL     OW66248   7.069   6.542  13.070
21470SOL    HW166249   7.130   6.505  13.006
21470SOL    HW266250   6.987   6.550  13.022
21471SOL     OW66251   2.998  12.069  14.485
21471SOL    HW166252   2.948  11.992  14.457
21471SOL    HW266253   2.973  12.081  14.577
21472SOL     OW66254  12.192   9.044   4.451
21472SOL    HW166255  12.270   8.990   4.466
21472SOL    HW266256  12.126   9.008   4.509
21473SOL     OW66257   2.419  13.925   6.263
21473SOL    HW166258   2.407  13.830   6.253
21473SOL    HW266259   2.503  13.943   6.221
21474SOL     OW66260   2.522   9.367  14.138
21474SOL    HW166261   2.459   9.340  14.071
21474SOL    HW266262   2.500   9.459  14.156
21475SOL     OW66263   8.049  11.620  14.701
21475SOL    HW166264   8.069  11.564  14.776
21475SOL    HW266265   8.110  11.590  14.633
21476SOL     OW66266   8.234  11.537   8.144
21476SOL    HW166267   8.172  11.482   8.095
21476SOL    HW266268   8.320  11.503   8.120
21477SOL     OW66269  14.076   1.631  11.940
21477SOL    HW166270  14.143   1.656  11.876
21477SOL    HW266271  14.100   1.541  11.964
21478SOL     OW66272   7.544   1.382   6.433
21478SOL    HW166273   7.531   1.472   6.404
21478SOL    HW266274   7.567   1.335   6.353
21479SOL     OW66275   4.973  10.353   0.359
21479SOL    HW166276   4.914  10.402   0.416
21479SOL    HW266277   4.969  10.399   0.275
21480SOL     OW66278  14.826  13.782   3.830
21480SOL    HW166279  14.765  13.712   3.853
21480SOL    HW266280   0.028  13.758   3.874
21481SOL     OW66281   2.776  13.534   7.850
21481SOL    HW166282   2.824  13.451   7.845
21481SOL    HW266283   2.762  13.548   7.944
21482SOL     OW66284   1.647   1.159   7.587
21482SOL    HW166285   1.589   1.111   7.647
21482SOL    HW266286   1.735   1.132   7.611
21483SOL     OW66287   7.892   6.141   6.550
21483SOL    HW166288   7.940   6.212   6.507
21483SOL    HW266289   7.809   6.137   6.503
21484SOL     OW66290   2.477  11.524   5.022
21484SOL    HW166291   2.550  11.534   4.960
21484SOL    HW266292   2.453  11.614   5.044
21485SOL     OW66293   9.730   9.565   3.587
21485SOL    HW166294   9.695   9.581   3.675
21485SOL    HW266295   9.823   9.586   3.594
21486SOL     OW66296   1.887  12.109   5.764
21486SOL    HW166297   1.845  12.035   5.720
21486SOL    HW266298   1.881  12.088   5.857
21487SOL     OW66299  14.576  11.912   2.539
21487SOL    HW166300  14.507  11.845   2.540
21487SOL    HW266301  14.616  11.906   2.626
21488SOL     OW66302  14.440   3.514  13.784
21488SOL    HW166303  14.434   3.601  13.744
21488SOL    HW266304  14.534   3.496  13.788
21489SOL     OW66305   2.240   7.799   4.167
21489SOL    HW166306   2.198   7.833   4.246
21489SOL    HW266307   2.173   7.808   4.099
21490SOL     OW66308   0.552  10.257  12.615
21490SOL    HW166309   0.583  10.348  12.613
21490SOL    HW266310   0.461  10.264  12.643
21491SOL     OW66311   3.441   3.287   4.249
21491SOL    HW166312   3.517   3.328   4.291
21491SOL    HW266313   3.416   3.349   4.180
21492SOL     OW66314   3.477   2.681   4.480
21492SOL    HW166315   3.410   2.741   4.511
21492SOL    HW266316   3.466   2.602   4.534
21493SOL     OW66317   0.469   4.135   6.645
21493SOL    HW166318   0.504   4.073   6.709
21493SOL    HW266319   0.381   4.103   6.625
21494SOL     OW66320   9.837  14.442   2.432
21494SOL    HW166321   9.776  14.455   2.505
21494SOL    HW266322   9.815  14.356   2.397
21495SOL     OW66323   1.549  11.172   4.935
21495SOL    HW166324   1.462  11.132   4.931
21495SOL    HW266325   1.557  11.222   4.853
21496SOL     OW66326  12.180   2.791  11.167
21496SOL    HW166327  12.207   2.766  11.078
21496SOL    HW266328  12.172   2.886  11.164
21497SOL     OW66329   1.448   4.862   3.380
21497SOL    HW166330   1.401   4.937   3.418
21497SOL    HW266331   1.495   4.898   3.305
21498SOL     OW66332  11.479  10.679  13.570
21498SOL    HW166333  11.474  10.732  13.490
21498SOL    HW266334  11.516  10.596  13.540
21499SOL     OW66335   9.064   2.310   0.246
21499SOL    HW166336   9.158   2.294   0.240
21499SOL    HW266337   9.050   2.333   0.338
21500SOL     OW66338   5.564  12.038   6.656
21500SOL    HW166339   5.619  11.990   6.595
21500SOL    HW266340   5.595  12.010   6.743
21501SOL     OW66341   2.911  10.920   9.324
21501SOL    HW166342   2.983  10.940   9.383
21501SOL    HW266343   2.899  10.825   9.332
21502SOL     OW66344   9.437   6.096  11.947
21502SOL    HW166345   9.531   6.081  11.961
21502SOL    HW266346   9.405   6.130  12.031
21503SOL     OW66347  12.305   4.114  13.669
21503SOL    HW166348  12.349   4.187  13.625
21503SOL    HW266349  12.212   4.135  13.662
21504SOL     OW66350   7.453   7.354   9.097
21504SOL    HW166351   7.426   7.376   9.008
21504SOL    HW266352   7.460   7.259   9.097
21505SOL     OW66353   3.317   7.074  13.997
21505SOL    HW166354   3.231   7.055  13.959
21505SOL    HW266355   3.321   7.019  14.076
21506SOL     OW66356  10.051  12.748   4.544
21506SOL    HW166357  10.008  12.834   4.538
21506SOL    HW266358  10.126  12.763   4.601
21507SOL     OW66359   1.982   3.525  11.973
21507SOL    HW166360   1.895   3.534  11.934
21507SOL    HW266361   1.966   3.508  12.065
21508SOL     OW66362   4.972   1.377  13.340
21508SOL    HW166363   4.971   1.456  13.286
21508SOL    HW266364   4.880   1.356  13.353
21509SOL     OW66365   9.041   1.500  14.175
21509SOL    HW166366   9.068   1.420  14.219
21509SOL    HW266367   9.080   1.494  14.088
21510SOL     OW66368   2.670   3.023   2.701
21510SOL    HW166369   2.690   3.097   2.759
21510SOL    HW266370   2.630   3.063   2.624
21511SOL     OW66371   6.443   3.395   2.412
21511SOL    HW166372   6.372   3.418   2.352
21511SOL    HW266373   6.476   3.479   2.442
21512SOL     OW66374  10.532   1.949  14.074
21512SOL    HW166375  10.509   1.859  14.050
21512SOL    HW266376  10.618   1.941  14.116
21513SOL     OW66377   4.228   0.590  10.891
21513SOL    HW166378   4.287   0.660  10.866
21513SOL    HW266379   4.249   0.572  10.983
21514SOL     OW66380  13.746   8.866   5.460
21514SOL    HW166381  13.817   8.894   5.402
21514SOL    HW266382  13.779   8.884   5.548
21515SOL     OW66383  11.558   3.347   2.577
21515SOL    HW166384  11.560   3.408   2.651
21515SOL    HW266385  11.485   3.378   2.523
21516SOL     OW66386   7.358   7.778   1.235
21516SOL    HW166387   7.267   7.792   1.264
21516SOL    HW266388   7.358   7.691   1.195
21517SOL     OW66389   0.874   3.813   9.176
21517SOL    HW166390   0.938   3.819   9.105
21517SOL    HW266391   0.794   3.781   9.134
21518SOL     OW66392  12.150  11.103   8.249
21518SOL    HW166393  12.055  11.091   8.258
21518SOL    HW266394  12.188  11.030   8.298
21519SOL     OW66395   3.107   6.875  11.187
21519SOL    HW166396   3.197   6.904  11.169
21519SOL    HW266397   3.091   6.903  11.277
21520SOL     OW66398   4.698   4.506   6.228
21520SOL    HW166399   4.772   4.567   6.235
21520SOL    HW266400   4.719   4.436   6.290
21521SOL     OW66401  12.395  14.357   0.223
21521SOL    HW166402  12.486  14.336   0.203
21521SOL    HW266403  12.381  14.323   0.311
21522SOL     OW66404   7.893   9.897  14.151
21522SOL    HW166405   7.822   9.961  14.139
21522SOL    HW266406   7.875   9.857  14.236
21523SOL     OW66407   2.847   2.136   0.776
21523SOL    HW166408   2.851   2.232   0.780
21523SOL    HW266409   2.820   2.118   0.686
21524SOL     OW66410   2.578  13.386   2.523
21524SOL    HW166411   2.533  13.325   2.464
21524SOL    HW266412   2.648  13.423   2.470
21525SOL     OW66413   8.060   7.562   5.555
21525SOL    HW166414   7.986   7.624   5.558
21525SOL    HW266415   8.110   7.581   5.634
21526SOL     OW66416   2.769   5.581   9.975
21526SOL    HW166417   2.799   5.571  10.065
21526SOL    HW266418   2.754   5.675   9.966
21527SOL     OW66419   1.278   9.571   5.357
21527SOL    HW166420   1.250   9.661   5.346
21527SOL    HW266421   1.202   9.519   5.332
21528SOL     OW66422   7.038   5.324   3.981
21528SOL    HW166423   7.115   5.351   4.032
21528SOL    HW266424   7.056   5.357   3.892
21529SOL     OW66425  11.897  13.725   4.620
21529SOL    HW166426  11.863  13.719   4.531
21529SOL    HW266427  11.853  13.655   4.668
21530SOL     OW66428  10.781   7.004   4.475
21530SOL    HW166429  10.806   7.043   4.558
21530SOL    HW266430  10.836   6.926   4.467
21531SOL     OW66431   4.617  12.175  12.943
21531SOL    HW166432   4.656  12.228  13.011
21531SOL    HW266433   4.594  12.237  12.873
21532SOL     OW66434   0.229   5.462   9.608
21532SOL    HW166435   0.238   5.510   9.690
21532SOL    HW266436   0.251   5.372   9.630
21533SOL     OW66437  10.460  14.037  13.659
21533SOL    HW166438  10.381  14.019  13.711
21533SOL    HW266439  10.529  13.988  13.702
21534SOL     OW66440  10.673   4.790  12.261
21534SOL    HW166441  10.605   4.801  12.327
21534SOL    HW266442  10.631   4.814  12.179
21535SOL     OW66443  14.784   7.723   6.400
21535SOL    HW166444  14.865   7.682   6.429
21535SOL    HW266445  14.716   7.686   6.457
21536SOL     OW66446   5.176   1.263  12.485
21536SOL    HW166447   5.234   1.271  12.560
21536SOL    HW266448   5.116   1.191  12.507
21537SOL     OW66449  13.827   2.262   4.193
21537SOL    HW166450  13.733   2.268   4.212
21537SOL    HW266451  13.835   2.295   4.104
21538SOL     OW66452   5.044   6.459   0.805
21538SOL    HW166453   4.963   6.449   0.855
21538SOL    HW266454   5.059   6.373   0.766
21539SOL     OW66455  14.341  14.229  14.655
21539SOL    HW166456  14.325  14.163  14.722
21539SOL    HW266457  14.348  14.180  14.573
21540SOL     OW66458  13.982  12.400  14.810
21540SOL    HW166459  14.044  12.473  14.805
21540SOL    HW266460  14.017  12.334  14.750
21541SOL     OW66461  14.295   4.726   1.947
21541SOL    HW166462  14.383   4.719   1.984
21541SOL    HW266463  14.307   4.705   1.854
21542SOL     OW66464   6.082  12.190   4.385
21542SOL    HW166465   6.101  12.253   4.316
21542SOL    HW266466   6.111  12.106   4.350
21543SOL     OW66467  14.315  11.116  10.759
21543SOL    HW166468  14.280  11.203  10.779
21543SOL    HW266469  14.238  11.059  10.757
21544SOL     OW66470   6.980   6.294   5.585
21544SOL    HW166471   7.023   6.378   5.603
21544SOL    HW266472   6.984   6.285   5.489
21545SOL     OW66473   7.515   0.987   5.531
21545SOL    HW166474   7.445   0.960   5.472
21545SOL    HW266475   7.491   0.948   5.615
21546SOL     OW66476   4.488   4.333  11.194
21546SOL    HW166477   4.399   4.304  11.174
21546SOL    HW266478   4.486   4.355  11.287
21547SOL     OW66479   6.480  10.932   9.735
21547SOL    HW166480   6.546  10.986   9.692
21547SOL    HW266481   6.523  10.848   9.749
21548SOL     OW66482   9.339  10.731   5.213
21548SOL    HW166483   9.362  10.670   5.284
21548SOL    HW266484   9.422  10.770   5.187
21549SOL     OW66485   0.362  11.101   9.297
21549SOL    HW166486   0.295  11.132   9.359
21549SOL    HW266487   0.331  11.130   9.212
21550SOL     OW66488   2.140   4.041   6.424
21550SOL    HW166489   2.163   4.126   6.461
21550SOL    HW266490   2.066   4.011   6.476
21551SOL     OW66491   0.985   0.516   4.527
21551SOL    HW166492   1.043   0.502   4.452
21551SOL    HW266493   0.998   0.439   4.582
21552SOL     OW66494  13.830  13.870  12.301
21552SOL    HW166495  13.772  13.802  12.337
21552SOL    HW266496  13.817  13.945  12.359
21553SOL     OW66497   8.755  14.391   2.742
21553SOL    HW166498   8.702  14.462   2.779
21553SOL    HW266499   8.713  14.311   2.773
21554SOL     OW66500   2.316   2.454  14.793
21554SOL    HW166501   2.404   2.442  14.757
21554SOL    HW266502   2.260   2.464  14.716
21555SOL     OW66503   5.369  10.765   1.733
21555SOL    HW166504   5.375  10.850   1.775
21555SOL    HW266505   5.421  10.774   1.653
21556SOL     OW66506   3.154   7.530   5.687
21556SOL    HW166507   3.144   7.471   5.612
21556SOL    HW266508   3.088   7.500   5.750
21557SOL     OW66509  10.318  10.273   5.138
21557SOL    HW166510  10.226  10.247   5.142
21557SOL    HW266511  10.319  10.363   5.171
21558SOL     OW66512   5.843  14.231  14.714
21558SOL    HW166513   5.822  14.169  14.784
21558SOL    HW266514   5.872  14.310  14.759
21559SOL     OW66515   0.533   3.717   5.421
21559SOL    HW166516   0.504   3.649   5.482
21559SOL    HW266517   0.605   3.761   5.466
21560SOL     OW66518   4.820  12.422   8.550
21560SOL    HW166519   4.744  12.437   8.493
21560SOL    HW266520   4.891  12.401   8.490
21561SOL     OW66521  12.024   7.371   0.570
21561SOL    HW166522  12.057   7.362   0.481
21561SOL    HW266523  11.928   7.371   0.560
21562SOL     OW66524   6.477   5.808   5.431
21562SOL    HW166525   6.505   5.888   5.474
21562SOL    HW266526   6.552   5.782   5.378
21563SOL     OW66527   2.936   7.426   0.224
21563SOL    HW166528   2.997   7.442   0.296
21563SOL    HW266529   2.953   7.335   0.198
21564SOL     OW66530  12.828   1.159  13.757
21564SOL    HW166531  12.909   1.131  13.800
21564SOL    HW266532  12.761   1.152  13.826
21565SOL     OW66533   4.475  13.791   6.606
21565SOL    HW166534   4.431  13.711   6.635
21565SOL    HW266535   4.539  13.809   6.675
21566SOL     OW66536  12.553   4.181  14.438
21566SOL    HW166537  12.601   4.264  14.442
21566SOL    HW266538  12.593   4.128  14.506
21567SOL     OW66539  14.715  13.366   7.674
21567SOL    HW166540  14.655  13.422   7.624
21567SOL    HW266541  14.792  13.421   7.690
21568SOL     OW66542   8.159   1.113  11.054
21568SOL    HW166543   8.139   1.042  10.993
21568SOL    HW266544   8.111   1.090  11.134
21569SOL     OW66545   6.799   5.034  10.648
21569SOL    HW166546   6.820   5.032  10.555
21569SOL    HW266547   6.733   4.966  10.659
21570SOL     OW66548   8.337  13.549   0.099
21570SOL    HW166549   8.314  13.594   0.180
21570SOL    HW266550   8.300  13.461   0.109
21571SOL     OW66551   2.794   2.757  13.066
21571SOL    HW166552   2.817   2.795  13.151
21571SOL    HW266553   2.804   2.663  13.078
21572SOL     OW66554   2.963  14.506  10.263
21572SOL    HW166555   2.996  14.566  10.196
21572SOL    HW266556   2.919  14.563  10.326
21573SOL     OW66557   0.494   1.963  12.483
21573SOL    HW166558   0.439   1.956  12.560
21573SOL    HW266559   0.528   1.875  12.468
21574SOL     OW66560   5.594  12.718  10.597
21574SOL    HW166561   5.545  12.719  10.515
21574SOL    HW266562   5.541  12.666  10.657
21575SOL     OW66563   7.289   3.643   1.757
21575SOL    HW166564   7.343   3.666   1.681
21575SOL    HW266565   7.295   3.548   1.763
21576SOL     OW66566   9.747  12.639  11.122
21576SOL    HW166567   9.823  12.648  11.066
21576SOL    HW266568   9.782  12.605  11.205
21577SOL     OW66569  14.801   3.626  13.502
21577SOL    HW166570  14.849   3.658  13.426
21577SOL    HW266571  14.755   3.548  13.470
21578SOL     OW66572  13.410   6.485   3.002
21578SOL    HW166573  13.434   6.557   2.943
21578SOL    HW266574  13.454   6.409   2.964
21579SOL     OW66575   6.172   7.700   8.537
21579SOL    HW166576   6.153   7.609   8.512
21579SOL    HW266577   6.219   7.736   8.462
21580SOL     OW66578   7.065  10.290   0.862
21580SOL    HW166579   7.038  10.202   0.887
21580SOL    HW266580   7.154  10.299   0.897
21581SOL     OW66581  10.428   4.513   8.699
21581SOL    HW166582  10.513   4.473   8.676
21581SOL    HW266583  10.406   4.568   8.624
21582SOL     OW66584  11.048   1.187   8.176
21582SOL    HW166585  10.986   1.259   8.182
21582SOL    HW266586  10.994   1.108   8.183
21583SOL     OW66587  11.992   4.335  12.987
21583SOL    HW166588  11.973   4.248  13.022
21583SOL    HW266589  12.078   4.326  12.946
21584SOL     OW66590  11.090   7.333   2.004
21584SOL    HW166591  11.087   7.426   1.983
21584SOL    HW266592  11.087   7.330   2.100
21585SOL     OW66593  13.667   3.375  14.476
21585SOL    HW166594  13.636   3.354  14.564
21585SOL    HW266595  13.608   3.329  14.417
21586SOL     OW66596   4.756   2.178  12.895
21586SOL    HW166597   4.849   2.176  12.871
21586SOL    HW266598   4.716   2.110  12.842
21587SOL     OW66599   7.647  12.998  13.517
21587SOL    HW166600   7.687  12.934  13.457
21587SOL    HW266601   7.710  13.005  13.589
21588SOL     OW66602   9.525  11.070  14.214
21588SOL    HW166603   9.515  11.144  14.274
21588SOL    HW266604   9.480  11.097  14.134
21589SOL     OW66605   3.736   1.857   6.618
21589SOL    HW166606   3.803   1.822   6.676
21589SOL    HW266607   3.745   1.952   6.623
21590SOL     OW66608  12.788   8.553  13.070
21590SOL    HW166609  12.717   8.564  13.133
21590SOL    HW266610  12.837   8.635  13.073
21591SOL     OW66611   7.286  13.155   9.657
21591SOL    HW166612   7.294  13.126   9.748
21591SOL    HW266613   7.215  13.218   9.658
21592SOL     OW66614   3.378   9.721  11.579
21592SOL    HW166615   3.373   9.799  11.635
21592SOL    HW266616   3.335   9.652  11.629
21593SOL     OW66617  11.423  12.318   5.270
21593SOL    HW166618  11.444  12.224   5.269
21593SOL    HW266619  11.328  12.321   5.284
21594SOL     OW66620  11.040   7.138   1.119
21594SOL    HW166621  11.020   7.142   1.026
21594SOL    HW266622  11.011   7.051   1.146
21595SOL     OW66623   7.223  13.073   8.106
21595SOL    HW166624   7.243  13.112   8.021
21595SOL    HW266625   7.306  13.074   8.153
21596SOL     OW66626  10.777   3.906  11.368
21596SOL    HW166627  10.791   3.899  11.273
21596SOL    HW266628  10.691   3.866  11.382
21597SOL     OW66629  14.070   0.483   9.278
21597SOL    HW166630  14.138   0.415   9.285
21597SOL    HW266631  13.988   0.437   9.294
21598SOL     OW66632   9.523   9.020   7.775
21598SOL    HW166633   9.604   8.985   7.738
21598SOL    HW266634   9.547   9.048   7.863
21599SOL     OW66635  12.626  10.530   1.862
21599SOL    HW166636  12.602  10.439   1.878
21599SOL    HW266637  12.643  10.534   1.767
21600SOL     OW66638   3.679  14.330   8.759
21600SOL    HW166639   3.646  14.305   8.845
21600SOL    HW266640   3.770  14.357   8.775
21601SOL     OW66641  14.810   9.662   3.528
21601SOL    HW166642  14.847   9.588   3.480
21601SOL    HW266643  14.823   9.641   3.620
21602SOL     OW66644   9.915   6.266   3.603
21602SOL    HW166645   9.991   6.208   3.602
21602SOL    HW266646   9.853   6.222   3.661
21603SOL     OW66647  13.088   7.918   1.473
21603SOL    HW166648  13.028   7.990   1.490
21603SOL    HW266649  13.132   7.903   1.556
21604SOL     OW66650   8.684   7.225  11.094
21604SOL    HW166651   8.777   7.212  11.108
21604SOL    HW266652   8.673   7.220  10.999
21605SOL     OW66653   6.744   1.004   6.047
21605SOL    HW166654   6.835   0.995   6.018
21605SOL    HW266655   6.696   1.027   5.968
21606SOL     OW66656   7.873   9.247   8.959
21606SOL    HW166657   7.955   9.254   8.910
21606SOL    HW266658   7.815   9.197   8.901
21607SOL     OW66659   0.724  10.003  13.903
21607SOL    HW166660   0.706  10.081  13.955
21607SOL    HW266661   0.817  10.010  13.881
21608SOL     OW66662  10.807   8.355  10.157
21608SOL    HW166663  10.899   8.336  10.136
21608SOL    HW266664  10.777   8.277  10.203
21609SOL     OW66665  11.114   2.902  13.836
21609SOL    HW166666  11.021   2.927  13.835
21609SOL    HW266667  11.117   2.821  13.886
21610SOL     OW66668  14.762   0.017   2.882
21610SOL    HW166669  14.683  14.859   2.844
21610SOL    HW266670  14.759   0.109   2.857
21611SOL     OW66671   5.519   6.377   0.582
21611SOL    HW166672   5.427   6.404   0.581
21611SOL    HW266673   5.524   6.311   0.651
21612SOL     OW66674  10.365   8.405   2.575
21612SOL    HW166675  10.269   8.399   2.569
21612SOL    HW266676  10.391   8.326   2.623
21613SOL     OW66677   0.724   1.863  12.162
21613SOL    HW166678   0.715   1.926  12.233
21613SOL    HW266679   0.740   1.780  12.207
21614SOL     OW66680   0.958   5.349  13.047
21614SOL    HW166681   0.937   5.266  13.004
21614SOL    HW266682   0.959   5.327  13.140
21615SOL     OW66683   4.540  11.454  12.009
21615SOL    HW166684   4.523  11.512  11.935
21615SOL    HW266685   4.576  11.374  11.970
21616SOL     OW66686   6.686   2.489   7.837
21616SOL    HW166687   6.679   2.584   7.831
21616SOL    HW266688   6.759   2.466   7.779
21617SOL     OW66689   2.864  11.412   9.760
21617SOL    HW166690   2.853  11.488   9.702
21617SOL    HW266691   2.812  11.343   9.719
21618SOL     OW66692   7.366   2.482  11.358
21618SOL    HW166693   7.290   2.478  11.299
21618SOL    HW266694   7.441   2.467  11.301
21619SOL     OW66695   8.671   6.985   3.552
21619SOL    HW166696   8.666   6.936   3.470
21619SOL    HW266697   8.655   6.919   3.620
21620SOL     OW66698  10.306  11.239   9.274
21620SOL    HW166699  10.386  11.191   9.291
21620SOL    HW266700  10.328  11.299   9.203
21621SOL     OW66701  11.587  10.073  10.231
21621SOL    HW166702  11.502  10.051  10.268
21621SOL    HW266703  11.648  10.065  10.304
21622SOL     OW66704   7.101   1.135   2.231
21622SOL    HW166705   7.075   1.088   2.152
21622SOL    HW266706   7.182   1.179   2.207
21623SOL     OW66707   6.326   7.293  10.292
21623SOL    HW166708   6.246   7.283  10.241
21623SOL    HW266709   6.335   7.387  10.305
21624SOL     OW66710   8.260   5.876   2.098
21624SOL    HW166711   8.258   5.824   2.178
21624SOL    HW266712   8.328   5.836   2.044
21625SOL     OW66713   3.433   1.939   3.206
21625SOL    HW166714   3.443   1.902   3.119
21625SOL    HW266715   3.406   1.866   3.261
21626SOL     OW66716   9.654   1.269   6.044
21626SOL    HW166717   9.612   1.348   6.081
21626SOL    HW266718   9.721   1.245   6.109
21627SOL     OW66719   9.969   9.206   3.748
21627SOL    HW166720   9.885   9.248   3.734
21627SOL    HW266721   9.949   9.112   3.748
21628SOL     OW66722  10.166   9.099   3.918
21628SOL    HW166723  10.120   9.112   4.002
21628SOL    HW266724  10.113   9.147   3.854
21629SOL     OW66725  14.408  14.691   0.321
21629SOL    HW166726  14.413  14.665   0.413
21629SOL    HW266727  14.356  14.623   0.279
21630SOL     OW66728   4.323  12.523   3.685
21630SOL    HW166729   4.361  12.598   3.731
21630SOL    HW266730   4.285  12.561   3.606
21631SOL     OW66731  13.386   0.096   2.364
21631SOL    HW166732  13.330   0.107   2.287
21631SOL    HW266733  13.340   0.031   2.417
21632SOL     OW66734  11.636  11.457   3.110
21632SOL    HW166735  11.722  11.426   3.140
21632SOL    HW266736  11.655  11.510   3.032
21633SOL     OW66737   2.129   0.593   7.760
21633SOL    HW166738   2.196   0.531   7.731
21633SOL    HW266739   2.130   0.662   7.694
21634SOL     OW66740   7.098  13.940   3.033
21634SOL    HW166741   7.091  13.954   3.127
21634SOL    HW266742   7.148  13.858   3.025
21635SOL     OW66743   8.223  11.817   0.146
21635SOL    HW166744   8.277  11.814   0.067
21635SOL    HW266745   8.280  11.784   0.215
21636SOL     OW66746   0.957   7.534   2.529
21636SOL    HW166747   0.977   7.594   2.600
21636SOL    HW266748   1.030   7.543   2.469
21637SOL     OW66749   8.885  12.754   1.703
21637SOL    HW166750   8.850  12.665   1.717
21637SOL    HW266751   8.819  12.798   1.650
21638SOL     OW66752   6.009   1.169  13.356
21638SOL    HW166753   6.102   1.161  13.376
21638SOL    HW266754   5.965   1.131  13.432
21639SOL     OW66755  10.051  13.468   1.054
21639SOL    HW166756   9.965  13.454   1.094
21639SOL    HW266757  10.033  13.519   0.975
21640SOL     OW66758   6.247   2.628   4.605
21640SOL    HW166759   6.328   2.578   4.597
21640SOL    HW266760   6.274   2.719   4.598
21641SOL     OW66761   3.344  13.312   3.728
21641SOL    HW166762   3.315  13.399   3.702
21641SOL    HW266763   3.394  13.280   3.653
21642SOL     OW66764   6.793  14.695   8.105
21642SOL    HW166765   6.878  14.739   8.107
21642SOL    HW266766   6.729  14.766   8.118
21643SOL     OW66767   9.100   8.718   1.129
21643SOL    HW166768   9.158   8.658   1.176
21643SOL    HW266769   9.093   8.795   1.186
21644SOL     OW66770   4.850   8.499   7.201
21644SOL    HW166771   4.858   8.523   7.108
21644SOL    HW266772   4.890   8.573   7.248
21645SOL     OW66773   5.838  10.490  13.349
21645SOL    HW166774   5.777  10.558  13.321
21645SOL    HW266775   5.847  10.432  13.274
21646SOL     OW66776  11.490   2.526   1.281
21646SOL    HW166777  11.468   2.487   1.365
21646SOL    HW266778  11.518   2.615   1.302
21647SOL     OW66779   5.040  11.194   9.367
21647SOL    HW166780   4.968  11.181   9.428
21647SOL    HW266781   5.079  11.278   9.392
21648SOL     OW66782   9.139   2.981   0.908
21648SOL    HW166783   9.229   2.953   0.890
21648SOL    HW266784   9.143   3.021   0.995
21649SOL     OW66785   8.337   1.750  14.148
21649SOL    HW166786   8.418   1.725  14.103
21649SOL    HW266787   8.345   1.712  14.235
21650SOL     OW66788   4.817   4.957  12.351
21650SOL    HW166789   4.778   5.044  12.359
21650SOL    HW266790   4.747   4.897  12.379
21651SOL     OW66791   6.076   9.852  14.074
21651SOL    HW166792   6.059   9.775  14.021
21651SOL    HW266793   6.165   9.839  14.108
21652SOL     OW66794   0.385   5.498  11.474
21652SOL    HW166795   0.390   5.589  11.444
21652SOL    HW266796   0.458   5.489  11.534
21653SOL     OW66797  12.008   8.457   9.760
21653SOL    HW166798  11.972   8.374   9.792
21653SOL    HW266799  11.962   8.524   9.810
21654SOL     OW66800   2.812  11.225  12.555
21654SOL    HW166801   2.887  11.275  12.524
21654SOL    HW266802   2.775  11.186  12.475
21655SOL     OW66803  12.878   6.406   2.700
21655SOL    HW166804  12.789   6.407   2.735
21655SOL    HW266805  12.867   6.388   2.606
21656SOL     OW66806  10.163  11.409  12.585
21656SOL    HW166807  10.191  11.318  12.593
21656SOL    HW266808  10.120  11.413  12.499
21657SOL     OW66809   8.807   0.507  13.990
21657SOL    HW166810   8.826   0.595  13.957
21657SOL    HW266811   8.811   0.517  14.086
21658SOL     OW66812  11.741  10.674   1.407
21658SOL    HW166813  11.770  10.723   1.484
21658SOL    HW266814  11.796  10.596   1.406
21659SOL     OW66815   8.183   0.154  12.849
21659SOL    HW166816   8.200   0.151  12.755
21659SOL    HW266817   8.268   0.175  12.887
21660SOL     OW66818  13.530   0.996   2.306
21660SOL    HW166819  13.566   0.930   2.365
21660SOL    HW266820  13.588   0.995   2.230
21661SOL     OW66821   6.499   6.183  14.473
21661SOL    HW166822   6.554   6.254  14.441
21661SOL    HW266823   6.529   6.106  14.425
21662SOL     OW66824   8.790   9.603   7.479
21662SOL    HW166825   8.793   9.539   7.551
21662SOL    HW266826   8.841   9.562   7.409
21663SOL     OW66827  13.564   5.231   9.695
21663SOL    HW166828  13.553   5.267   9.783
21663SOL    HW266829  13.609   5.300   9.646
21664SOL     OW66830   1.216   3.607   3.167
21664SOL    HW166831   1.140   3.573   3.121
21664SOL    HW266832   1.209   3.702   3.159
21665SOL     OW66833   5.348   4.411  11.826
21665SOL    HW166834   5.306   4.483  11.780
21665SOL    HW266835   5.284   4.339  11.823
21666SOL     OW66836  14.527  12.144  11.664
21666SOL    HW166837  14.453  12.198  11.637
21666SOL    HW266838  14.556  12.101  11.583
21667SOL     OW66839   2.568   0.444   2.127
21667SOL    HW166840   2.537   0.531   2.154
21667SOL    HW266841   2.508   0.418   2.058
21668SOL     OW66842   1.046   0.161   9.464
21668SOL    HW166843   1.003   0.225   9.407
21668SOL    HW266844   1.119   0.127   9.412
21669SOL     OW66845   7.519   3.884  13.649
21669SOL    HW166846   7.472   3.902  13.731
21669SOL    HW266847   7.458   3.829  13.599
21670SOL     OW66848   8.540   0.514   9.356
21670SOL    HW166849   8.578   0.599   9.332
21670SOL    HW266850   8.519   0.523   9.449
21671SOL     OW66851   2.294   1.444   3.971
21671SOL    HW166852   2.341   1.427   4.053
21671SOL    HW266853   2.289   1.539   3.965
21672SOL     OW66854   4.067   9.649   2.461
21672SOL    HW166855   4.104   9.563   2.441
21672SOL    HW266856   4.098   9.670   2.549
21673SOL     OW66857   1.079   5.728   7.121
21673SOL    HW166858   0.987   5.704   7.118
21673SOL    HW266859   1.092   5.768   7.206
21674SOL     OW66860   0.695   2.643   6.330
21674SOL    HW166861   0.698   2.574   6.264
21674SOL    HW266862   0.602   2.663   6.340
21675SOL     OW66863  13.827   1.939  10.258
21675SOL    HW166864  13.852   1.847  10.271
21675SOL    HW266865  13.900   1.978  10.212
21676SOL     OW66866   6.653   8.485   9.202
21676SOL    HW166867   6.644   8.571   9.242
21676SOL    HW266868   6.747   8.467   9.202
21677SOL     OW66869   4.316  10.395   6.098
21677SOL    HW166870   4.317  10.406   6.003
21677SOL    HW266871   4.264  10.469   6.129
21678SOL     OW66872   5.397   9.786  10.388
21678SOL    HW166873   5.459   9.754  10.323
21678SOL    HW266874   5.315   9.741  10.367
21679SOL     OW66875   5.939   7.873  12.851
21679SOL    HW166876   5.892   7.858  12.769
21679SOL    HW266877   5.932   7.790  12.899
21680SOL     OW66878   2.019   1.161   1.945
21680SOL    HW166879   1.974   1.116   1.873
21680SOL    HW266880   2.091   1.101   1.969
21681SOL     OW66881   8.481   5.869   3.857
21681SOL    HW166882   8.527   5.924   3.921
21681SOL    HW266883   8.394   5.908   3.850
21682SOL     OW66884  14.561  14.826   1.591
21682SOL    HW166885  14.510  14.776   1.654
21682SOL    HW266886  14.650  14.791   1.600
21683SOL     OW66887  14.814   2.581   2.915
21683SOL    HW166888  14.850   2.605   2.830
21683SOL    HW266889   0.008   2.589   2.975
21684SOL     OW66890   9.483  12.703   3.969
21684SOL    HW166891   9.502  12.620   4.014
21684SOL    HW266892   9.541  12.766   4.011
21685SOL     OW66893   6.903  12.791   0.464
21685SOL    HW166894   6.933  12.809   0.375
21685SOL    HW266895   6.841  12.861   0.483
21686SOL     OW66896   4.150  10.437   1.170
21686SOL    HW166897   4.130  10.472   1.257
21686SOL    HW266898   4.071  10.454   1.119
21687SOL     OW66899  10.569  12.327   4.244
21687SOL    HW166900  10.582  12.341   4.150
21687SOL    HW266901  10.474  12.316   4.253
21688SOL     OW66902  11.550  10.003  12.350
21688SOL    HW166903  11.544  10.017  12.256
21688SOL    HW266904  11.565   9.908  12.359
21689SOL     OW66905  10.698   0.901  12.216
21689SOL    HW166906  10.629   0.842  12.247
21689SOL    HW266907  10.779   0.852  12.230
21690SOL     OW66908   6.775   0.829   9.572
21690SOL    HW166909   6.711   0.868   9.511
21690SOL    HW266910   6.726   0.818   9.654
21691SOL     OW66911   5.279   6.010  12.777
21691SOL    HW166912   5.289   5.938  12.840
21691SOL    HW266913   5.218   5.976  12.711
21692SOL     OW66914   6.719  13.272   0.622
21692SOL    HW166915   6.710  13.280   0.717
21692SOL    HW266916   6.646  13.323   0.586
21693SOL     OW66917   2.756   9.109   6.184
21693SOL    HW166918   2.691   9.088   6.116
21693SOL    HW266919   2.758   9.205   6.187
21694SOL     OW66920  10.494   0.324   7.599
21694SOL    HW166921  10.436   0.367   7.536
21694SOL    HW266922  10.461   0.353   7.684
21695SOL     OW66923   6.305   8.298  14.109
21695SOL    HW166924   6.218   8.317  14.075
21695SOL    HW266925   6.352   8.382  14.104
21696SOL     OW66926  10.691  13.536   7.283
21696SOL    HW166927  10.769  13.579   7.247
21696SOL    HW266928  10.723  13.488   7.359
21697SOL     OW66929  10.697   4.405   0.081
21697SOL    HW166930  10.675   4.372  14.873
21697SOL    HW266931  10.776   4.457   0.068
21698SOL     OW66932   1.206   7.843  14.599
21698SOL    HW166933   1.272   7.791  14.554
21698SOL    HW266934   1.162   7.782  14.658
21699SOL     OW66935  10.492   4.398  10.566
21699SOL    HW166936  10.581   4.364  10.553
21699SOL    HW266937  10.489   4.478  10.514
21700SOL     OW66938   0.605   9.366  10.133
21700SOL    HW166939   0.539   9.402  10.193
21700SOL    HW266940   0.688   9.376  10.180
21701SOL     OW66941   6.772  13.567  11.473
21701SOL    HW166942   6.699  13.508  11.455
21701SOL    HW266943   6.822  13.523  11.541
21702SOL     OW66944   5.859   7.944  11.287
21702SOL    HW166945   5.773   7.904  11.280
21702SOL    HW266946   5.909   7.884  11.342
21703SOL     OW66947  10.862  13.688  12.481
21703SOL    HW166948  10.807  13.645  12.416
21703SOL    HW266949  10.933  13.626  12.499
21704SOL     OW66950  14.593   2.097  11.456
21704SOL    HW166951  14.648   2.106  11.378
21704SOL    HW266952  14.641   2.144  11.524
21705SOL     OW66953  12.483   3.790  11.016
21705SOL    HW166954  12.434   3.727  10.963
21705SOL    HW266955  12.482   3.753  11.104
21706SOL     OW66956   3.420  12.928   7.473
21706SOL    HW166957   3.401  13.022   7.467
21706SOL    HW266958   3.500  12.924   7.525
21707SOL     OW66959   2.859   1.898   3.992
21707SOL    HW166960   2.801   1.929   3.922
21707SOL    HW266961   2.929   1.963   3.996
21708SOL     OW66962   6.178  13.375   5.661
21708SOL    HW166963   6.178  13.284   5.690
21708SOL    HW266964   6.110  13.379   5.594
21709SOL     OW66965  14.738   3.267   4.490
21709SOL    HW166966  14.663   3.234   4.540
21709SOL    HW266967  14.716   3.248   4.399
21710SOL     OW66968   6.309   6.003   7.659
21710SOL    HW166969   6.334   6.094   7.672
21710SOL    HW266970   6.305   5.992   7.564
21711SOL     OW66971   7.562   8.201   8.822
21711SOL    HW166972   7.512   8.211   8.741
21711SOL    HW266973   7.559   8.108   8.842
21712SOL     OW66974   0.258   8.522  14.428
21712SOL    HW166975   0.192   8.572  14.476
21712SOL    HW266976   0.304   8.586  14.375
21713SOL     OW66977   9.355   0.260   5.724
21713SOL    HW166978   9.342   0.263   5.629
21713SOL    HW266979   9.283   0.206   5.757
21714SOL     OW66980   6.829   8.475   5.241
21714SOL    HW166981   6.894   8.439   5.301
21714SOL    HW266982   6.872   8.473   5.155
21715SOL     OW66983   1.276  12.607   8.204
21715SOL    HW166984   1.324  12.602   8.287
21715SOL    HW266985   1.334  12.657   8.146
21716SOL     OW66986   3.173   2.087   0.070
21716SOL    HW166987   3.176   2.153   0.002
21716SOL    HW266988   3.132   2.131   0.145
21717SOL     OW66989   6.629   6.349  10.837
21717SOL    HW166990   6.566   6.308  10.778
21717SOL    HW266991   6.588   6.432  10.862
21718SOL     OW66992   5.815   1.155   3.107
21718SOL    HW166993   5.791   1.159   3.014
21718SOL    HW266994   5.753   1.212   3.151
21719SOL     OW66995   5.048  13.447  10.124
21719SOL    HW166996   5.103  13.443  10.202
21719SOL    HW266997   4.961  13.422  10.155
21720SOL     OW66998  10.398   2.740  12.803
21720SOL    HW166999  10.340   2.789  12.745
21720SOL    HW267000  10.340   2.678  12.848
21721SOL     OW67001  13.138  11.227   6.979
21721SOL    HW167002  13.231  11.204   6.983
21721SOL    HW267003  13.137  11.317   6.947
21722SOL     OW67004   7.139  12.530  11.511
21722SOL    HW167005   7.061  12.478  11.529
21722SOL    HW267006   7.113  12.588  11.440
21723SOL     OW67007  10.993   5.327   7.680
21723SOL    HW167008  11.068   5.269   7.692
21723SOL    HW267009  11.030   5.415   7.686
21724SOL     OW67010  10.518   5.350   8.872
21724SOL    HW167011  10.501   5.444   8.876
21724SOL    HW267012  10.586   5.335   8.937
21725SOL     OW67013   7.978   3.167   4.884
21725SOL    HW167014   8.073   3.178   4.889
21725SOL    HW267015   7.943   3.247   4.924
21726SOL     OW67016   0.659   7.497  10.300
21726SOL    HW167017   0.745   7.539  10.312
21726SOL    HW267018   0.598   7.553  10.349
21727SOL     OW67019   0.605   3.831   9.048
21727SOL    HW167020   0.562   3.746   9.057
21727SOL    HW267021   0.533   3.894   9.050
21728SOL     OW67022   3.125  10.823  11.088
21728SOL    HW167023   3.198  10.806  11.146
21728SOL    HW267024   3.060  10.757  11.112
21729SOL     OW67025   1.006   5.076   0.761
21729SOL    HW167026   0.939   5.122   0.710
21729SOL    HW267027   1.049   5.144   0.812
21730SOL     OW67028   4.405   1.499   5.012
21730SOL    HW167029   4.339   1.433   5.029
21730SOL    HW267030   4.451   1.510   5.095
21731SOL     OW67031   7.253   0.858   0.873
21731SOL    HW167032   7.290   0.798   0.938
21731SOL    HW267033   7.225   0.934   0.924
21732SOL     OW67034  13.818   5.794   0.857
21732SOL    HW167035  13.855   5.881   0.845
21732SOL    HW267036  13.725   5.811   0.877
21733SOL     OW67037   7.793   9.364   6.518
21733SOL    HW167038   7.747   9.442   6.550
21733SOL    HW267039   7.803   9.309   6.596
21734SOL     OW67040  13.232   1.812   2.233
21734SOL    HW167041  13.326   1.808   2.215
21734SOL    HW267042  13.195   1.737   2.187
21735SOL     OW67043   3.508   6.146   9.132
21735SOL    HW167044   3.428   6.142   9.184
21735SOL    HW267045   3.578   6.125   9.193
21736SOL     OW67046   6.217   0.085  14.597
21736SOL    HW167047   6.177   0.074  14.683
21736SOL    HW267048   6.305   0.118  14.616
21737SOL     OW67049   5.796   2.763   7.703
21737SOL    HW167050   5.795   2.691   7.765
21737SOL    HW267051   5.740   2.734   7.631
21738SOL     OW67052   4.297   9.747   0.167
21738SOL    HW167053   4.236   9.689   0.122
21738SOL    HW267054   4.351   9.784   0.097
21739SOL     OW67055   7.938   0.014   1.471
21739SOL    HW167056   7.958  14.869   1.561
21739SOL    HW267057   7.879   0.089   1.479
21740SOL     OW67058   8.523   2.886   2.819
21740SOL    HW167059   8.462   2.941   2.869
21740SOL    HW267060   8.535   2.932   2.736
21741SOL     OW67061  12.085   3.609  10.736
21741SOL    HW167062  12.016   3.673  10.753
21741SOL    HW267063  12.066   3.537  10.797
21742SOL     OW67064  10.362   3.972   2.877
21742SOL    HW167065  10.383   3.890   2.922
21742SOL    HW267066  10.446   4.003   2.844
21743SOL     OW67067  10.664  11.832   8.281
21743SOL    HW167068  10.686  11.902   8.343
21743SOL    HW267069  10.673  11.873   8.195
21744SOL     OW67070  11.961  12.339   2.375
21744SOL    HW167071  11.982  12.323   2.467
21744SOL    HW267072  11.982  12.431   2.361
21745SOL     OW67073  12.992   8.107  14.847
21745SOL    HW167074  13.015   8.032  14.793
21745SOL    HW267075  12.994   8.074   0.057
21746SOL     OW67076   6.903  10.950   4.041
21746SOL    HW167077   6.972  10.900   4.082
21746SOL    HW267078   6.947  11.000   3.972
21747SOL     OW67079  12.725   4.322   6.203
21747SOL    HW167080  12.777   4.344   6.280
21747SOL    HW267081  12.730   4.227   6.198
21748SOL     OW67082   1.116   5.667   8.672
21748SOL    HW167083   1.040   5.608   8.671
21748SOL    HW267084   1.086   5.745   8.719
21749SOL     OW67085   8.941  11.698   8.290
21749SOL    HW167086   8.854  11.668   8.315
21749SOL    HW267087   9.001  11.647   8.345
21750SOL     OW67088   2.960   4.355   0.102
21750SOL    HW167089   2.921   4.304   0.172
21750SOL    HW267090   2.893   4.420   0.079
21751SOL     OW67091   9.569  13.179  13.472
21751SOL    HW167092   9.617  13.109  13.428
21751SOL    HW267093   9.549  13.242  13.403
21752SOL     OW67094   3.478  11.119   4.757
21752SOL    HW167095   3.383  11.119   4.768
21752SOL    HW267096   3.513  11.105   4.845
21753SOL     OW67097   9.360   3.022   4.979
21753SOL    HW167098   9.349   2.994   5.070
21753SOL    HW267099   9.424   3.093   4.983
21754SOL     OW67100  13.186   2.312   7.658
21754SOL    HW167101  13.226   2.325   7.743
21754SOL    HW267102  13.126   2.238   7.670
21755SOL     OW67103   0.171   3.913   1.783
21755SOL    HW167104   0.114   3.865   1.723
21755SOL    HW267105   0.260   3.883   1.762
21756SOL     OW67106  10.405   6.513   5.971
21756SOL    HW167107  10.429   6.515   6.064
21756SOL    HW267108  10.310   6.502   5.971
21757SOL     OW67109  10.412  10.474   4.367
21757SOL    HW167110  10.378  10.476   4.456
21757SOL    HW267111  10.437  10.382   4.353
21758SOL     OW67112   8.909  11.488   8.587
21758SOL    HW167113   9.002  11.505   8.573
21758SOL    HW267114   8.901  11.393   8.584
21759SOL     OW67115  10.513  11.372   4.884
21759SOL    HW167116  10.570  11.296   4.889
21759SOL    HW267117  10.428  11.336   4.858
21760SOL     OW67118   2.963   9.201  11.081
21760SOL    HW167119   2.874   9.168  11.080
21760SOL    HW267120   2.968   9.257  11.159
21761SOL     OW67121   0.085   5.403   0.391
21761SOL    HW167122   0.065   5.390   0.299
21761SOL    HW267123   0.056   5.323   0.434
21762SOL     OW67124   6.400   7.387   1.020
21762SOL    HW167125   6.440   7.418   1.101
21762SOL    HW267126   6.316   7.432   1.015
21763SOL     OW67127  11.264  14.115  13.948
21763SOL    HW167128  11.217  14.174  13.888
21763SOL    HW267129  11.257  14.158  14.033
21764SOL     OW67130  11.824   8.925  13.135
21764SOL    HW167131  11.905   8.874  13.131
21764SOL    HW267132  11.819   8.954  13.226
21765SOL     OW67133  10.662   2.663  12.012
21765SOL    HW167134  10.683   2.735  11.953
21765SOL    HW267135  10.705   2.686  12.094
21766SOL     OW67136   3.078   8.944  10.988
21766SOL    HW167137   2.993   8.929  10.946
21766SOL    HW267138   3.081   9.039  11.003
21767SOL     OW67139   2.897  10.981   1.532
21767SOL    HW167140   2.969  10.928   1.498
21767SOL    HW267141   2.818  10.930   1.511
21768SOL     OW67142  14.690   9.663  13.186
21768SOL    HW167143  14.661   9.594  13.127
21768SOL    HW267144  14.638   9.651  13.265
21769SOL     OW67145   8.774  14.663   9.171
21769SOL    HW167146   8.829  14.712   9.231
21769SOL    HW267147   8.820  14.666   9.087
21770SOL     OW67148   4.134   1.752   7.395
21770SOL    HW167149   4.122   1.684   7.329
21770SOL    HW267150   4.116   1.834   7.349
21771SOL     OW67151   9.545   6.506  12.698
21771SOL    HW167152   9.627   6.458  12.686
21771SOL    HW267153   9.529   6.548  12.613
21772SOL     OW67154   6.842  14.216  11.410
21772SOL    HW167155   6.906  14.261  11.354
21772SOL    HW267156   6.894  14.182  11.483
21773SOL     OW67157   9.619   3.646   8.444
21773SOL    HW167158   9.538   3.600   8.469
21773SOL    HW267159   9.589   3.729   8.407
21774SOL     OW67160   1.256   2.454  11.927
21774SOL    HW167161   1.164   2.471  11.947
21774SOL    HW267162   1.253   2.408  11.843
21775SOL     OW67163   1.585   8.501   6.408
21775SOL    HW167164   1.572   8.557   6.485
21775SOL    HW267165   1.659   8.542   6.363
21776SOL     OW67166  10.629   7.479  12.992
21776SOL    HW167167  10.724   7.491  12.998
21776SOL    HW267168  10.612   7.466  12.899
21777SOL     OW67169  14.558   9.772  10.051
21777SOL    HW167170  14.547   9.789   9.958
21777SOL    HW267171  14.648   9.742  10.060
21778SOL     OW67172  10.060  13.101  14.362
21778SOL    HW167173  10.119  13.053  14.304
21778SOL    HW267174  10.026  13.034  14.422
21779SOL     OW67175   4.724   7.772   5.365
21779SOL    HW167176   4.788   7.791   5.295
21779SOL    HW267177   4.722   7.852   5.418
21780SOL     OW67178  10.969   7.283  14.267
21780SOL    HW167179  10.928   7.198  14.254
21780SOL    HW267180  10.984   7.289  14.362
21781SOL     OW67181   2.820   8.480   8.299
21781SOL    HW167182   2.840   8.387   8.286
21781SOL    HW267183   2.739   8.494   8.249
21782SOL     OW67184   6.069   6.726   6.117
21782SOL    HW167185   6.044   6.747   6.027
21782SOL    HW267186   6.128   6.651   6.108
21783SOL     OW67187   4.850  14.703  14.011
21783SOL    HW167188   4.859  14.732  13.920
21783SOL    HW267189   4.937  14.717  14.048
21784SOL     OW67190   5.961   6.961   6.171
21784SOL    HW167191   5.996   6.872   6.168
21784SOL    HW267192   6.003   7.001   6.247
21785SOL     OW67193   4.119  11.095   1.519
21785SOL    HW167194   4.124  11.000   1.511
21785SOL    HW267195   4.210  11.124   1.528
21786SOL     OW67196  12.919   3.100   0.088
21786SOL    HW167197  12.979   3.039   0.131
21786SOL    HW267198  12.834   3.084   0.130
21787SOL     OW67199  11.757   4.356   8.567
21787SOL    HW167200  11.673   4.353   8.521
21787SOL    HW267201  11.760   4.443   8.607
21788SOL     OW67202  14.158   8.165  11.047
21788SOL    HW167203  14.170   8.239  10.987
21788SOL    HW267204  14.116   8.098  10.993
21789SOL     OW67205   4.576  13.418   3.068
21789SOL    HW167206   4.517  13.489   3.091
21789SOL    HW267207   4.545  13.388   2.982
21790SOL     OW67208   9.064  10.713   0.606
21790SOL    HW167209   9.158  10.731   0.611
21790SOL    HW267210   9.035  10.755   0.525
21791SOL     OW67211  11.328   9.271  10.801
21791SOL    HW167212  11.382   9.335  10.755
21791SOL    HW267213  11.364   9.269  10.890
21792SOL     OW67214  14.008  10.878   1.938
21792SOL    HW167215  13.968  10.806   1.890
21792SOL    HW267216  14.096  10.885   1.901
21793SOL     OW67217  11.595   8.810   4.009
21793SOL    HW167218  11.549   8.821   4.092
21793SOL    HW267219  11.528   8.776   3.949
21794SOL     OW67220   5.104   7.947   6.379
21794SOL    HW167221   5.033   7.890   6.409
21794SOL    HW267222   5.115   8.011   6.450
21795SOL     OW67223   6.043   7.518   9.740
21795SOL    HW167224   5.956   7.556   9.731
21795SOL    HW267225   6.026   7.427   9.768
21796SOL     OW67226   0.150   3.510  11.446
21796SOL    HW167227   0.073   3.509  11.389
21796SOL    HW267228   0.160   3.420  11.475
21797SOL     OW67229   2.255   8.896  13.582
21797SOL    HW167230   2.224   8.984  13.600
21797SOL    HW267231   2.177   8.847  13.557
21798SOL     OW67232  14.366   3.307  14.735
21798SOL    HW167233  14.428   3.282  14.804
21798SOL    HW267234  14.402   3.267  14.655
21799SOL     OW67235  12.951   2.400   0.877
21799SOL    HW167236  13.020   2.390   0.811
21799SOL    HW267237  12.982   2.471   0.933
21800SOL     OW67238   9.258   8.383  10.211
21800SOL    HW167239   9.186   8.405  10.268
21800SOL    HW267240   9.308   8.317  10.260
21801SOL     OW67241  14.128   5.037   9.399
21801SOL    HW167242  14.105   4.947   9.375
21801SOL    HW267243  14.046   5.085   9.394
21802SOL     OW67244   1.200   9.557   1.389
21802SOL    HW167245   1.136   9.509   1.337
21802SOL    HW267246   1.156   9.639   1.412
21803SOL     OW67247   5.106  13.324  12.993
21803SOL    HW167248   5.152  13.325  12.909
21803SOL    HW267249   5.157  13.264  13.048
21804SOL     OW67250   9.187  11.276   1.462
21804SOL    HW167251   9.147  11.328   1.392
21804SOL    HW267252   9.122  11.276   1.532
21805SOL     OW67253   0.544   8.906   3.551
21805SOL    HW167254   0.553   8.820   3.509
21805SOL    HW267255   0.633   8.940   3.556
21806SOL     OW67256  11.647  11.756  13.175
21806SOL    HW167257  11.699  11.677  13.189
21806SOL    HW267258  11.566  11.740  13.224
21807SOL     OW67259   1.654   9.794  12.409
21807SOL    HW167260   1.681   9.745  12.332
21807SOL    HW267261   1.606   9.731  12.462
21808SOL     OW67262   0.538  10.998  14.411
21808SOL    HW167263   0.496  10.952  14.338
21808SOL    HW267264   0.628  11.011  14.383
21809SOL     OW67265  11.591   2.680   1.721
21809SOL    HW167266  11.557   2.621   1.653
21809SOL    HW267267  11.673   2.640   1.749
21810SOL     OW67268   6.693   5.859  13.808
21810SOL    HW167269   6.752   5.783  13.805
21810SOL    HW267270   6.613   5.829  13.765
21811SOL     OW67271   5.271   7.745   1.684
21811SOL    HW167272   5.248   7.751   1.776
21811SOL    HW267273   5.323   7.665   1.676
21812SOL     OW67274   1.125  12.321   3.192
21812SOL    HW167275   1.070  12.399   3.180
21812SOL    HW267276   1.215  12.353   3.181
21813SOL     OW67277  11.539   9.675   8.479
21813SOL    HW167278  11.561   9.589   8.443
21813SOL    HW267279  11.616   9.699   8.531
21814SOL     OW67280   8.122   5.543   2.503
21814SOL    HW167281   8.156   5.482   2.569
21814SOL    HW267282   8.032   5.562   2.531
21815SOL     OW67283   3.511  10.121  11.680
21815SOL    HW167284   3.435  10.170  11.714
21815SOL    HW267285   3.475  10.068  11.608
21816SOL     OW67286   3.747   2.971  11.527
21816SOL    HW167287   3.672   2.989  11.470
21816SOL    HW267288   3.725   2.889  11.570
21817SOL     OW67289  12.280   2.607   5.324
21817SOL    HW167290  12.332   2.600   5.404
21817SOL    HW267291  12.247   2.519   5.308
21818SOL     OW67292   7.997   6.225  13.559
21818SOL    HW167293   8.020   6.155  13.620
21818SOL    HW267294   8.056   6.297  13.581
21819SOL     OW67295  10.507  11.943   0.080
21819SOL    HW167296  10.421  11.982   0.063
21819SOL    HW267297  10.493  11.886   0.156
21820SOL     OW67298   7.092  10.414   2.486
21820SOL    HW167299   7.090  10.414   2.391
21820SOL    HW267300   7.035  10.487   2.512
21821SOL     OW67301  14.467   7.799  11.461
21821SOL    HW167302  14.434   7.713  11.485
21821SOL    HW267303  14.463   7.801  11.365
21822SOL     OW67304   2.777   3.958   3.668
21822SOL    HW167305   2.804   3.868   3.649
21822SOL    HW267306   2.766   3.960   3.763
21823SOL     OW67307   2.835   0.875   0.899
21823SOL    HW167308   2.843   0.782   0.922
21823SOL    HW267309   2.742   0.886   0.879
21824SOL     OW67310   7.711   2.614   9.158
21824SOL    HW167311   7.791   2.582   9.117
21824SOL    HW267312   7.704   2.705   9.128
21825SOL     OW67313   6.230   1.527   5.819
21825SOL    HW167314   6.182   1.515   5.902
21825SOL    HW267315   6.297   1.592   5.840
21826SOL     OW67316   2.360   1.988  13.018
21826SOL    HW167317   2.359   1.896  13.045
21826SOL    HW267318   2.408   2.033  13.087
21827SOL     OW67319   0.364   3.544  11.708
21827SOL    HW167320   0.339   3.590  11.788
21827SOL    HW267321   0.366   3.613  11.641
21828SOL     OW67322   8.904   7.461   2.609
21828SOL    HW167323   8.850   7.516   2.665
21828SOL    HW267324   8.994   7.481   2.635
21829SOL     OW67325  13.915   7.227   9.018
21829SOL    HW167326  13.938   7.196   9.106
21829SOL    HW267327  13.848   7.166   8.988
21830SOL     OW67328   0.187   7.118  13.781
21830SOL    HW167329   0.146   7.156  13.859
21830SOL    HW267330   0.178   7.186  13.714
21831SOL     OW67331  12.462   2.844   9.952
21831SOL    HW167332  12.545   2.863   9.997
21831SOL    HW267333  12.414   2.789  10.013
21832SOL     OW67334   1.876   1.188   5.739
21832SOL    HW167335   1.967   1.219   5.742
21832SOL    HW267336   1.849   1.183   5.830
21833SOL     OW67337   4.167  10.325   5.386
21833SOL    HW167338   4.245  10.296   5.338
21833SOL    HW267339   4.104  10.254   5.374
21834SOL     OW67340   0.278   1.977   1.822
21834SOL    HW167341   0.294   1.884   1.806
21834SOL    HW267342   0.365   2.017   1.814
21835SOL     OW67343   0.152   6.615   4.754
21835SOL    HW167344   0.198   6.573   4.826
21835SOL    HW267345   0.070   6.565   4.745
21836SOL     OW67346  14.686  13.094   3.682
21836SOL    HW167347  14.608  13.126   3.727
21836SOL    HW267348  14.690  13.145   3.601
21837SOL     OW67349   2.010  13.048   6.864
21837SOL    HW167350   1.992  13.121   6.923
21837SOL    HW267351   2.031  12.975   6.922
21838SOL     OW67352  10.764   2.444   9.440
21838SOL    HW167353  10.700   2.395   9.491
21838SOL    HW267354  10.784   2.521   9.494
21839SOL     OW67355   4.804   7.038  10.670
21839SOL    HW167356   4.874   7.013  10.731
21839SOL    HW267357   4.851   7.069  10.593
21840SOL     OW67358   5.938  12.815  10.254
21840SOL    HW167359   5.993  12.774  10.187
21840SOL    HW267360   5.967  12.906  10.256
21841SOL     OW67361   9.717  13.170   2.187
21841SOL    HW167362   9.740  13.253   2.229
21841SOL    HW267363   9.801  13.125   2.178
21842SOL     OW67364   2.178  10.860  11.992
21842SOL    HW167365   2.115  10.794  11.964
21842SOL    HW267366   2.241  10.865  11.920
21843SOL     OW67367   5.956   7.201   7.131
21843SOL    HW167368   6.026   7.213   7.067
21843SOL    HW267369   5.948   7.286   7.174
21844SOL     OW67370   9.696   0.117   9.274
21844SOL    HW167371   9.695   0.213   9.276
21844SOL    HW267372   9.650   0.091   9.354
21845SOL     OW67373   3.974  10.772   9.102
21845SOL    HW167374   3.912  10.840   9.077
21845SOL    HW267375   4.045  10.780   9.038
21846SOL     OW67376   7.466   0.763   0.040
21846SOL    HW167377   7.402   0.819  14.877
21846SOL    HW267378   7.419   0.724   0.114
21847SOL     OW67379   0.467  11.232  12.397
21847SOL    HW167380   0.378  11.257  12.369
21847SOL    HW267381   0.505  11.314  12.429
21848SOL     OW67382   0.307  13.898   0.947
21848SOL    HW167383   0.257  13.886   0.867
21848SOL    HW267384   0.245  13.878   1.017
21849SOL     OW67385   5.003   6.667  10.718
21849SOL    HW167386   5.013   6.762  10.722
21849SOL    HW267387   4.932   6.647  10.778
21850SOL     OW67388   4.589  12.018   4.162
21850SOL    HW167389   4.547  11.933   4.172
21850SOL    HW267390   4.534  12.065   4.099
21851SOL     OW67391   8.095   4.788   2.211
21851SOL    HW167392   8.098   4.750   2.123
21851SOL    HW267393   8.027   4.855   2.206
21852SOL     OW67394   3.805   7.826   9.929
21852SOL    HW167395   3.743   7.875   9.984
21852SOL    HW267396   3.797   7.867   9.842
21853SOL     OW67397  13.651   0.532   5.816
21853SOL    HW167398  13.677   0.486   5.737
21853SOL    HW267399  13.645   0.624   5.790
21854SOL     OW67400   4.371   6.806   7.454
21854SOL    HW167401   4.425   6.829   7.378
21854SOL    HW267402   4.415   6.730   7.493
21855SOL     OW67403  12.268   7.875   3.100
21855SOL    HW167404  12.185   7.863   3.054
21855SOL    HW267405  12.256   7.956   3.150
21856SOL     OW67406   6.163   7.198  13.417
21856SOL    HW167407   6.226   7.186  13.488
21856SOL    HW267408   6.079   7.173  13.455
21857SOL     OW67409   0.524   3.658   1.420
21857SOL    HW167410   0.462   3.659   1.493
21857SOL    HW267411   0.541   3.750   1.401
21858SOL     OW67412  13.925   6.007   4.731
21858SOL    HW167413  13.875   5.942   4.779
21858SOL    HW267414  13.904   6.090   4.774
21859SOL     OW67415  14.385   6.443   9.639
21859SOL    HW167416  14.477   6.451   9.616
21859SOL    HW267417  14.372   6.350   9.658
21860SOL     OW67418   8.531  13.225   3.322
21860SOL    HW167419   8.599  13.244   3.257
21860SOL    HW267420   8.546  13.134   3.345
21861SOL     OW67421   1.426   3.628   8.548
21861SOL    HW167422   1.504   3.605   8.498
21861SOL    HW267423   1.448   3.607   8.639
21862SOL     OW67424   7.477  11.391   1.964
21862SOL    HW167425   7.401  11.442   1.938
21862SOL    HW267426   7.503  11.344   1.884
21863SOL     OW67427   0.279   9.778   0.177
21863SOL    HW167428   0.301   9.833   0.102
21863SOL    HW267429   0.195   9.810   0.207
21864SOL     OW67430  12.580   4.062   3.427
21864SOL    HW167431  12.613   4.142   3.386
21864SOL    HW267432  12.485   4.074   3.430
21865SOL     OW67433   6.577   5.158   6.414
21865SOL    HW167434   6.489   5.163   6.378
21865SOL    HW267435   6.581   5.229   6.478
21866SOL     OW67436   1.639  12.684  12.001
21866SOL    HW167437   1.556  12.689  12.049
21866SOL    HW267438   1.694  12.626  12.054
21867SOL     OW67439   4.414   8.359  11.268
21867SOL    HW167440   4.324   8.350  11.237
21867SOL    HW267441   4.431   8.278  11.316
21868SOL     OW67442   3.104  12.910  14.563
21868SOL    HW167443   3.167  12.844  14.537
21868SOL    HW267444   3.129  12.988  14.513
21869SOL     OW67445  13.846   2.505   7.668
21869SOL    HW167446  13.834   2.416   7.701
21869SOL    HW267447  13.935   2.506   7.632
21870SOL     OW67448   3.008   0.339  13.775
21870SOL    HW167449   2.924   0.301  13.803
21870SOL    HW267450   3.023   0.303  13.688
21871SOL     OW67451   4.588   2.778   9.088
21871SOL    HW167452   4.520   2.773   9.020
21871SOL    HW267453   4.569   2.703   9.145
21872SOL     OW67454   7.034  12.939   4.758
21872SOL    HW167455   7.068  12.950   4.847
21872SOL    HW267456   7.048  13.024   4.716
21873SOL     OW67457  12.528   5.919  11.912
21873SOL    HW167458  12.622   5.934  11.918
21873SOL    HW267459  12.516   5.828  11.937
21874SOL     OW67460  13.504   3.829  12.914
21874SOL    HW167461  13.410   3.841  12.924
21874SOL    HW267462  13.539   3.918  12.906
21875SOL     OW67463   7.420   8.256  10.419
21875SOL    HW167464   7.377   8.288  10.340
21875SOL    HW267465   7.438   8.164  10.401
21876SOL     OW67466  14.407   6.061   0.069
21876SOL    HW167467  14.332   6.118   0.085
21876SOL    HW267468  14.371   5.988   0.019
21877SOL     OW67469  12.510   1.373   4.630
21877SOL    HW167470  12.503   1.402   4.721
21877SOL    HW267471  12.510   1.277   4.636
21878SOL     OW67472  14.338   8.383  10.471
21878SOL    HW167473  14.263   8.363  10.416
21878SOL    HW267474  14.379   8.459  10.429
21879SOL     OW67475   4.323  10.628   2.937
21879SOL    HW167476   4.327  10.686   2.861
21879SOL    HW267477   4.252  10.664   2.990
21880SOL     OW67478  13.057   7.091  11.511
21880SOL    HW167479  13.098   7.138  11.584
21880SOL    HW267480  12.970   7.067  11.544
21881SOL     OW67481  14.634  12.880   7.859
21881SOL    HW167482  14.713  12.904   7.907
21881SOL    HW267483  14.576  12.956   7.871
21882SOL     OW67484  13.805   8.000   7.539
21882SOL    HW167485  13.806   8.044   7.625
21882SOL    HW267486  13.721   8.024   7.501
21883SOL     OW67487   5.689  10.180   2.420
21883SOL    HW167488   5.596  10.203   2.424
21883SOL    HW267489   5.723  10.202   2.506
21884SOL     OW67490   4.971   3.199   3.195
21884SOL    HW167491   4.981   3.202   3.100
21884SOL    HW267492   5.041   3.140   3.224
21885SOL     OW67493   8.112   2.939   0.754
21885SOL    HW167494   8.195   2.901   0.724
21885SOL    HW267495   8.109   3.026   0.713
21886SOL     OW67496  11.573  10.027   3.260
21886SOL    HW167497  11.625  10.081   3.319
21886SOL    HW267498  11.590  10.064   3.173
21887SOL     OW67499  12.180  11.294   5.943
21887SOL    HW167500  12.264  11.251   5.959
21887SOL    HW267501  12.116  11.238   5.988
21888SOL     OW67502   1.671   3.856  12.744
21888SOL    HW167503   1.711   3.771  12.760
21888SOL    HW267504   1.603   3.840  12.678
21889SOL     OW67505   1.527   4.544  10.916
21889SOL    HW167506   1.461   4.523  10.981
21889SOL    HW267507   1.500   4.629  10.880
21890SOL     OW67508   8.897   3.129   2.020
21890SOL    HW167509   8.966   3.181   1.980
21890SOL    HW267510   8.830   3.122   1.952
21891SOL     OW67511   0.055   8.968   8.294
21891SOL    HW167512  14.856   8.946   8.344
21891SOL    HW267513   0.059   9.063   8.297
21892SOL     OW67514  12.809   3.869  10.154
21892SOL    HW167515  12.802   3.929  10.228
21892SOL    HW267516  12.863   3.916  10.090
21893SOL     OW67517   6.414   0.711  13.295
21893SOL    HW167518   6.443   0.782  13.239
21893SOL    HW267519   6.389   0.641  13.234
21894SOL     OW67520   1.049   9.753  12.553
21894SOL    HW167521   0.982   9.804  12.508
21894SOL    HW267522   1.131   9.794  12.528
21895SOL     OW67523  13.780   2.992  14.065
21895SOL    HW167524  13.797   3.050  13.992
21895SOL    HW267525  13.832   2.914  14.046
21896SOL     OW67526  11.500  13.233  11.890
21896SOL    HW167527  11.446  13.277  11.956
21896SOL    HW267528  11.484  13.140  11.904
21897SOL     OW67529   6.810  14.303   1.486
21897SOL    HW167530   6.832  14.394   1.505
21897SOL    HW267531   6.836  14.290   1.395
21898SOL     OW67532   3.174   7.698   8.674
21898SOL    HW167533   3.233   7.719   8.602
21898SOL    HW267534   3.087   7.721   8.641
21899SOL     OW67535  12.077   8.825  13.634
21899SOL    HW167536  11.987   8.796  13.646
21899SOL    HW267537  12.074   8.920  13.649
21900SOL     OW67538  13.791  11.144   0.531
21900SOL    HW167539  13.705  11.119   0.566
21900SOL    HW267540  13.796  11.238   0.546
21901SOL     OW67541  14.837   8.562  12.449
21901SOL    HW167542  14.826   8.636  12.389
21901SOL    HW267543   0.048   8.534  12.437
21902SOL     OW67544   7.368  10.674  10.066
21902SOL    HW167545   7.410  10.590  10.049
21902SOL    HW267546   7.305  10.685   9.994
21903SOL     OW67547  13.572   9.730   0.791
21903SOL    HW167548  13.557   9.760   0.881
21903SOL    HW267549  13.668   9.722   0.784
21904SOL     OW67550   5.825   1.105   5.451
21904SOL    HW167551   5.737   1.138   5.469
21904SOL    HW267552   5.837   1.118   5.357
21905SOL     OW67553   8.587   5.560   1.784
21905SOL    HW167554   8.639   5.541   1.705
21905SOL    HW267555   8.558   5.650   1.771
21906SOL     OW67556   1.762  13.072  14.318
21906SOL    HW167557   1.819  13.101  14.389
21906SOL    HW267558   1.690  13.136  14.317
21907SOL     OW67559  12.101   7.670  13.923
21907SOL    HW167560  12.025   7.612  13.913
21907SOL    HW267561  12.166   7.635  13.863
21908SOL     OW67562   8.425   3.185   1.917
21908SOL    HW167563   8.465   3.162   1.833
21908SOL    HW267564   8.420   3.281   1.916
21909SOL     OW67565   8.253   8.223   3.729
21909SOL    HW167566   8.258   8.198   3.822
21909SOL    HW267567   8.336   8.268   3.712
21910SOL     OW67568  11.807  10.754   3.545
21910SOL    HW167569  11.832  10.766   3.453
21910SOL    HW267570  11.826  10.838   3.586
21911SOL     OW67571  14.648   3.816  10.091
21911SOL    HW167572  14.641   3.766  10.172
21911SOL    HW267573  14.571   3.790  10.040
21912SOL     OW67574   4.174   0.856   5.425
21912SOL    HW167575   4.101   0.874   5.365
21912SOL    HW267576   4.220   0.940   5.431
21913SOL     OW67577   1.887   7.369   2.493
21913SOL    HW167578   1.916   7.388   2.582
21913SOL    HW267579   1.890   7.274   2.486
21914SOL     OW67580   2.797   6.847   2.194
21914SOL    HW167581   2.790   6.870   2.287
21914SOL    HW267582   2.850   6.768   2.194
21915SOL     OW67583  13.158   7.460   2.129
21915SOL    HW167584  13.215   7.478   2.204
21915SOL    HW267585  13.072   7.491   2.156
21916SOL     OW67586   5.381  13.484   2.867
21916SOL    HW167587   5.297  13.449   2.897
21916SOL    HW267588   5.366  13.511   2.777
21917SOL     OW67589   6.874  14.236   9.071
21917SOL    HW167590   6.844  14.158   9.118
21917SOL    HW267591   6.796  14.292   9.066
21918SOL     OW67592   7.989   3.288  10.309
21918SOL    HW167593   7.911   3.248  10.349
21918SOL    HW267594   8.021   3.222  10.248
21919SOL     OW67595   6.937   0.441  12.872
21919SOL    HW167596   6.996   0.509  12.839
21919SOL    HW267597   6.850   0.469  12.843
21920SOL     OW67598   3.348  11.730   8.594
21920SOL    HW167599   3.260  11.704   8.568
21920SOL    HW267600   3.403  11.654   8.572
21921SOL     OW67601   5.475   4.041   4.648
21921SOL    HW167602   5.565   4.014   4.667
21921SOL    HW267603   5.426   4.017   4.727
21922SOL     OW67604   6.284   0.745  11.778
21922SOL    HW167605   6.216   0.735  11.844
21922SOL    HW267606   6.241   0.793  11.707
21923SOL     OW67607   0.963   2.033   0.013
21923SOL    HW167608   0.932   2.097  14.829
21923SOL    HW267609   0.979   2.085   0.092
21924SOL     OW67610   7.906  14.862   3.748
21924SOL    HW167611   7.868  14.781   3.782
21924SOL    HW267612   7.920  14.845   3.655
21925SOL     OW67613   8.706  13.860   5.059
21925SOL    HW167614   8.658  13.834   5.138
21925SOL    HW267615   8.736  13.949   5.078
21926SOL     OW67616  14.811  12.879  10.234
21926SOL    HW167617   0.000  12.868  10.299
21926SOL    HW267618  14.771  12.963  10.255
21927SOL     OW67619  14.228   2.369   3.955
21927SOL    HW167620  14.246   2.408   3.870
21927SOL    HW267621  14.311   2.377   4.003
21928SOL     OW67622   0.667   3.230  13.868
21928SOL    HW167623   0.591   3.277  13.833
21928SOL    HW267624   0.665   3.249  13.962
21929SOL     OW67625   8.186   3.206  13.563
21929SOL    HW167626   8.116   3.204  13.497
21929SOL    HW267627   8.145   3.169  13.642
21930SOL     OW67628  12.582  14.059  10.994
21930SOL    HW167629  12.488  14.062  11.010
21930SOL    HW267630  12.590  14.068  10.899
21931SOL     OW67631   4.314  11.060  14.778
21931SOL    HW167632   4.219  11.067  14.787
21931SOL    HW267633   4.327  10.983  14.723
21932SOL     OW67634   4.444   8.717   6.629
21932SOL    HW167635   4.364   8.664   6.630
21932SOL    HW267636   4.497   8.682   6.701
21933SOL     OW67637  13.332  10.723  12.826
21933SOL    HW167638  13.237  10.713  12.826
21933SOL    HW267639  13.347  10.810  12.788
21934SOL     OW67640   5.216   2.724   8.735
21934SOL    HW167641   5.125   2.693   8.738
21934SOL    HW267642   5.250   2.704   8.822
21935SOL     OW67643  11.348  14.355  14.636
21935SOL    HW167644  11.293  14.355  14.557
21935SOL    HW267645  11.436  14.372  14.603
21936SOL     OW67646   2.200  13.115  13.284
21936SOL    HW167647   2.234  13.185  13.229
21936SOL    HW267648   2.108  13.107  13.258
21937SOL     OW67649  10.292   2.079   9.177
21937SOL    HW167650  10.381   2.111   9.191
21937SOL    HW267651  10.276   2.094   9.084
21938SOL     OW67652   8.667  10.837   9.136
21938SOL    HW167653   8.753  10.803   9.110
21938SOL    HW267654   8.617  10.759   9.159
21939SOL     OW67655  13.643   7.561   9.747
21939SOL    HW167656  13.721   7.576   9.694
21939SOL    HW267657  13.571   7.567   9.685
21940SOL     OW67658  13.737   8.124  10.342
21940SOL    HW167659  13.654   8.171  10.333
21940SOL    HW267660  13.730   8.052  10.280
21941SOL     OW67661   5.941   9.106  13.947
21941SOL    HW167662   5.904   9.194  13.943
21941SOL    HW267663   5.922   9.068  13.862
21942SOL     OW67664   5.747  13.506   6.419
21942SOL    HW167665   5.666  13.465   6.448
21942SOL    HW267666   5.721  13.594   6.390
21943SOL     OW67667   6.988   3.802  13.853
21943SOL    HW167668   6.956   3.882  13.895
21943SOL    HW267669   7.031   3.754  13.924
21944SOL     OW67670   3.635   5.884  10.278
21944SOL    HW167671   3.615   5.828  10.202
21944SOL    HW267672   3.571   5.955  10.274
21945SOL     OW67673  12.736  13.250   6.187
21945SOL    HW167674  12.748  13.339   6.154
21945SOL    HW267675  12.819  13.206   6.169
21946SOL     OW67676  11.014  11.870   9.813
21946SOL    HW167677  11.069  11.944   9.785
21946SOL    HW267678  10.926  11.893   9.783
21947SOL     OW67679  10.466  11.745   4.064
21947SOL    HW167680  10.440  11.707   3.980
21947SOL    HW267681  10.549  11.703   4.085
21948SOL     OW67682   9.945   2.930   9.129
21948SOL    HW167683  10.015   2.994   9.123
21948SOL    HW267684   9.888   2.949   9.055
21949SOL     OW67685   5.525   5.588   9.308
21949SOL    HW167686   5.532   5.551   9.220
21949SOL    HW267687   5.551   5.680   9.297
21950SOL     OW67688   4.163   6.498   3.945
21950SOL    HW167689   4.139   6.431   4.009
21950SOL    HW267690   4.238   6.461   3.898
21951SOL     OW67691   6.377   9.904   2.769
21951SOL    HW167692   6.397   9.913   2.862
21951SOL    HW267693   6.424   9.826   2.741
21952SOL     OW67694   5.730  12.657   9.813
21952SOL    HW167695   5.658  12.596   9.800
21952SOL    HW267696   5.809  12.604   9.799
21953SOL     OW67697   0.063   2.337  14.142
21953SOL    HW167698   0.156   2.318  14.141
21953SOL    HW267699   0.033   2.305  14.228
21954SOL     OW67700  14.573   5.642  12.199
21954SOL    HW167701  14.515   5.640  12.123
21954SOL    HW267702  14.652   5.597  12.169
21955SOL     OW67703   6.796   3.921  13.186
21955SOL    HW167704   6.731   3.857  13.158
21955SOL    HW267705   6.847   3.940  13.107
21956SOL     OW67706   1.754   6.827  13.555
21956SOL    HW167707   1.759   6.921  13.541
21956SOL    HW267708   1.845   6.800  13.567
21957SOL     OW67709  13.279   1.090  12.114
21957SOL    HW167710  13.360   1.106  12.066
21957SOL    HW267711  13.252   1.177  12.144
21958SOL     OW67712  11.445   8.666   3.605
21958SOL    HW167713  11.528   8.669   3.652
21958SOL    HW267714  11.449   8.584   3.555
21959SOL     OW67715  11.471   7.706   5.425
21959SOL    HW167716  11.512   7.757   5.356
21959SOL    HW267717  11.542   7.688   5.487
21960SOL     OW67718   1.147  14.798  13.190
21960SOL    HW167719   1.063  14.819  13.150
21960SOL    HW267720   1.129  14.796  13.284
21961SOL     OW67721   3.733  13.453   0.247
21961SOL    HW167722   3.812  13.440   0.298
21961SOL    HW267723   3.675  13.503   0.303
21962SOL     OW67724   9.663  14.584   0.530
21962SOL    HW167725   9.585  14.578   0.586
21962SOL    HW267726   9.634  14.638   0.456
21963SOL     OW67727   8.487   2.213  13.854
21963SOL    HW167728   8.472   2.196  13.761
21963SOL    HW267729   8.582   2.215  13.863
21964SOL     OW67730   4.492   5.620  11.113
21964SOL    HW167731   4.506   5.635  11.020
21964SOL    HW267732   4.438   5.541  11.117
21965SOL     OW67733   9.645  11.706   9.838
21965SOL    HW167734   9.701  11.667   9.905
21965SOL    HW267735   9.573  11.745   9.887
21966SOL     OW67736   4.280   9.769  14.315
21966SOL    HW167737   4.331   9.778  14.234
21966SOL    HW267738   4.259   9.859  14.340
21967SOL     OW67739   5.517   8.688  13.424
21967SOL    HW167740   5.473   8.687  13.509
21967SOL    HW267741   5.479   8.614  13.376
21968SOL     OW67742  14.379  12.720   5.012
21968SOL    HW167743  14.472  12.701   5.000
21968SOL    HW267744  14.359  12.684   5.099
21969SOL     OW67745   3.959   9.138   3.651
21969SOL    HW167746   3.939   9.156   3.559
21969SOL    HW267747   3.949   9.223   3.695
21970SOL     OW67748   9.295   3.448   7.359
21970SOL    HW167749   9.326   3.532   7.326
21970SOL    HW267750   9.221   3.426   7.302
21971SOL     OW67751   5.787  12.779  13.968
21971SOL    HW167752   5.721  12.815  13.909
21971SOL    HW267753   5.738  12.755  14.047
21972SOL     OW67754  12.072  13.778  10.772
21972SOL    HW167755  12.049  13.737  10.689
21972SOL    HW267756  12.168  13.775  10.775
21973SOL     OW67757   2.087   0.351  13.606
21973SOL    HW167758   2.057   0.422  13.549
21973SOL    HW267759   2.132   0.395  13.677
21974SOL     OW67760  11.413   4.729   7.728
21974SOL    HW167761  11.393   4.654   7.673
21974SOL    HW267762  11.348   4.795   7.704
21975SOL     OW67763  13.648   3.403  10.957
21975SOL    HW167764  13.553   3.400  10.959
21975SOL    HW267765  13.669   3.479  10.902
21976SOL     OW67766   7.555   6.286   5.197
21976SOL    HW167767   7.519   6.226   5.263
21976SOL    HW267768   7.633   6.322   5.238
21977SOL     OW67769  14.527  14.700  12.280
21977SOL    HW167770  14.433  14.718  12.292
21977SOL    HW267771  14.565  14.786  12.261
21978SOL     OW67772   6.298   2.776   6.647
21978SOL    HW167773   6.359   2.745   6.713
21978SOL    HW267774   6.341   2.757   6.563
21979SOL     OW67775   2.972   4.213  14.118
21979SOL    HW167776   2.904   4.269  14.081
21979SOL    HW267777   3.050   4.267  14.121
21980SOL     OW67778   4.803   8.849   8.487
21980SOL    HW167779   4.719   8.895   8.483
21980SOL    HW267780   4.862   8.912   8.529
21981SOL     OW67781  13.609   6.038   1.110
21981SOL    HW167782  13.538   5.987   1.071
21981SOL    HW267783  13.651   5.978   1.171
21982SOL     OW67784   9.300  13.361  11.662
21982SOL    HW167785   9.396  13.360  11.659
21982SOL    HW267786   9.279  13.421  11.733
21983SOL     OW67787   0.711   0.076   4.603
21983SOL    HW167788   0.712   0.147   4.539
21983SOL    HW267789   0.621   0.074   4.635
21984SOL     OW67790   2.222   0.504   3.017
21984SOL    HW167791   2.142   0.469   2.977
21984SOL    HW267792   2.191   0.558   3.089
21985SOL     OW67793   3.006  13.930   0.766
21985SOL    HW167794   3.064  13.955   0.837
21985SOL    HW267795   3.015  13.835   0.759
21986SOL     OW67796  14.591  11.602  11.978
21986SOL    HW167797  14.600  11.561  12.064
21986SOL    HW267798  14.517  11.557  11.937
21987SOL     OW67799  13.169   2.003  11.613
21987SOL    HW167800  13.198   2.092  11.593
21987SOL    HW267801  13.078   2.013  11.642
21988SOL     OW67802   8.895  14.855   9.338
21988SOL    HW167803   8.931  14.875   9.424
21988SOL    HW267804   8.958   0.013   9.276
21989SOL     OW67805   1.502  13.422  10.534
21989SOL    HW167806   1.579  13.381  10.574
21989SOL    HW267807   1.435  13.354  10.537
21990SOL     OW67808  11.599   6.157  12.342
21990SOL    HW167809  11.603   6.234  12.398
21990SOL    HW267810  11.668   6.172  12.277
21991SOL     OW67811  10.513   9.248   7.692
21991SOL    HW167812  10.440   9.304   7.720
21991SOL    HW267813  10.591   9.298   7.715
21992SOL     OW67814  14.659   2.901   2.798
21992SOL    HW167815  14.675   2.876   2.707
21992SOL    HW267816  14.695   2.989   2.806
21993SOL     OW67817   7.195   4.454   0.165
21993SOL    HW167818   7.264   4.396   0.134
21993SOL    HW267819   7.165   4.500   0.086
21994SOL     OW67820   8.590   3.975   6.302
21994SOL    HW167821   8.641   3.939   6.229
21994SOL    HW267822   8.615   3.923   6.378
21995SOL     OW67823   9.306  10.054  13.465
21995SOL    HW167824   9.268  10.142  13.466
21995SOL    HW267825   9.295  10.023  13.555
21996SOL     OW67826  11.008   5.862  13.242
21996SOL    HW167827  10.980   5.777  13.208
21996SOL    HW267828  11.041   5.909  13.165
21997SOL     OW67829  12.204  11.493  12.237
21997SOL    HW167830  12.243  11.408  12.215
21997SOL    HW267831  12.132  11.502  12.174
21998SOL     OW67832   7.227  12.615   8.557
21998SOL    HW167833   7.211  12.622   8.463
21998SOL    HW267834   7.299  12.553   8.565
21999SOL     OW67835   3.414   9.887  10.470
21999SOL    HW167836   3.456   9.802  10.455
21999SOL    HW267837   3.343   9.890  10.407
22000SOL     OW67838   4.070  13.427  12.634
22000SOL    HW167839   4.046  13.374  12.558
22000SOL    HW267840   4.021  13.388  12.707
22001SOL     OW67841   2.350   9.885   2.454
22001SOL    HW167842   2.257   9.861   2.459
22001SOL    HW267843   2.360   9.922   2.367
22002SOL     OW67844   8.926   1.470  13.474
22002SOL    HW167845   8.866   1.498  13.405
22002SOL    HW267846   8.999   1.429  13.427
22003SOL     OW67847   3.951   9.053  10.003
22003SOL    HW167848   3.871   9.057   9.950
22003SOL    HW267849   3.962   8.960  10.021
22004SOL     OW67850   3.149  11.728  13.875
22004SOL    HW167851   3.072  11.783  13.884
22004SOL    HW267852   3.207  11.757  13.946
22005SOL     OW67853  12.241  14.703  13.841
22005SOL    HW167854  12.180  14.630  13.825
22005SOL    HW267855  12.325  14.661  13.860
22006SOL     OW67856   5.644   9.447   8.761
22006SOL    HW167857   5.662   9.354   8.754
22006SOL    HW267858   5.549   9.454   8.754
22007SOL     OW67859   2.770   2.634   0.315
22007SOL    HW167860   2.727   2.597   0.238
22007SOL    HW267861   2.707   2.621   0.386
22008SOL     OW67862  10.892  14.402   0.168
22008SOL    HW167863  10.968  14.349   0.143
22008SOL    HW267864  10.893  14.401   0.264
22009SOL     OW67865   0.187  11.675   0.342
22009SOL    HW167866   0.220  11.692   0.254
22009SOL    HW267867   0.255  11.709   0.400
22010SOL     OW67868   5.557  12.659   4.767
22010SOL    HW167869   5.640  12.614   4.751
22010SOL    HW267870   5.528  12.686   4.680
22011SOL     OW67871   6.230  12.112  13.244
22011SOL    HW167872   6.257  12.202  13.229
22011SOL    HW267873   6.249  12.067  13.162
22012SOL     OW67874   6.687   4.969   1.828
22012SOL    HW167875   6.764   5.019   1.856
22012SOL    HW267876   6.680   4.986   1.734
22013SOL     OW67877  10.514   3.093  13.489
22013SOL    HW167878  10.440   3.065  13.434
22013SOL    HW267879  10.591   3.076  13.435
22014SOL     OW67880  13.143   1.867  10.140
22014SOL    HW167881  13.233   1.837  10.151
22014SOL    HW267882  13.138   1.894  10.048
22015SOL     OW67883   3.347   3.739   4.166
22015SOL    HW167884   3.407   3.688   4.221
22015SOL    HW267885   3.404   3.784   4.104
22016SOL     OW67886  13.642   3.126   2.999
22016SOL    HW167887  13.553   3.093   2.983
22016SOL    HW267888  13.683   3.127   2.913
22017SOL     OW67889  11.103   2.425   6.771
22017SOL    HW167890  11.120   2.339   6.732
22017SOL    HW267891  11.030   2.459   6.719
22018SOL     OW67892   8.467   3.611  14.427
22018SOL    HW167893   8.419   3.547  14.376
22018SOL    HW267894   8.500   3.674  14.363
22019SOL     OW67895  11.512   6.430  11.429
22019SOL    HW167896  11.542   6.514  11.463
22019SOL    HW267897  11.568   6.365  11.472
22020SOL     OW67898   7.879   1.158   6.250
22020SOL    HW167899   7.836   1.094   6.306
22020SOL    HW267900   7.960   1.179   6.296
22021SOL     OW67901   4.068   4.471   2.865
22021SOL    HW167902   4.140   4.410   2.882
22021SOL    HW267903   4.068   4.530   2.939
22022SOL     OW67904   5.174   9.015  10.505
22022SOL    HW167905   5.124   8.937  10.527
22022SOL    HW267906   5.171   9.020  10.409
22023SOL     OW67907   9.135   2.351   0.976
22023SOL    HW167908   9.108   2.438   0.949
22023SOL    HW267909   9.053   2.302   0.987
22024SOL     OW67910  14.323  11.871  12.585
22024SOL    HW167911  14.342  11.859  12.678
22024SOL    HW267912  14.278  11.791  12.559
22025SOL     OW67913   6.827   1.000   4.224
22025SOL    HW167914   6.899   0.948   4.190
22025SOL    HW267915   6.851   1.091   4.204
22026SOL     OW67916   0.198   7.282  11.053
22026SOL    HW167917   0.234   7.232  10.980
22026SOL    HW267918   0.181   7.369  11.016
22027SOL     OW67919   9.936  13.093  12.044
22027SOL    HW167920   9.867  13.155  12.068
22027SOL    HW267921   9.974  13.065  12.127
22028SOL     OW67922   5.995   5.496   5.338
22028SOL    HW167923   5.985   5.423   5.398
22028SOL    HW267924   6.039   5.564   5.389
22029SOL     OW67925   4.718  14.657  11.385
22029SOL    HW167926   4.793  14.716  11.394
22029SOL    HW267927   4.675  14.684  11.304
22030SOL     OW67928   6.544  11.012  14.725
22030SOL    HW167929   6.569  10.955  14.798
22030SOL    HW267930   6.582  10.970  14.648
22031SOL     OW67931   2.289   2.272   7.440
22031SOL    HW167932   2.240   2.352   7.423
22031SOL    HW267933   2.225   2.202   7.428
22032SOL     OW67934   1.200   8.576  12.544
22032SOL    HW167935   1.247   8.641  12.490
22032SOL    HW267936   1.170   8.626  12.620
22033SOL     OW67937   5.036   9.532   2.715
22033SOL    HW167938   4.962   9.473   2.702
22033SOL    HW267939   5.006   9.616   2.678
22034SOL     OW67940   6.041   0.584   9.364
22034SOL    HW167941   6.060   0.531   9.286
22034SOL    HW267942   5.981   0.651   9.333
22035SOL     OW67943   4.372  12.626   0.066
22035SOL    HW167944   4.301  12.680   0.030
22035SOL    HW267945   4.387  12.661   0.154
22036SOL     OW67946   4.692   0.270  13.426
22036SOL    HW167947   4.663   0.205  13.361
22036SOL    HW267948   4.671   0.230  13.510
22037SOL     OW67949   2.693   4.384   9.084
22037SOL    HW167950   2.670   4.471   9.118
22037SOL    HW267951   2.725   4.400   8.996
22038SOL     OW67952  11.790   4.339  13.269
22038SOL    HW167953  11.755   4.323  13.181
22038SOL    HW267954  11.869   4.285  13.273
22039SOL     OW67955   2.930   2.325  11.838
22039SOL    HW167956   2.941   2.233  11.814
22039SOL    HW267957   3.018   2.355  11.859
22040SOL     OW67958  10.404  10.458  14.314
22040SOL    HW167959  10.393  10.497  14.227
22040SOL    HW267960  10.485  10.497  14.347
22041SOL     OW67961   0.213   9.521  13.811
22041SOL    HW167962   0.307   9.522  13.795
22041SOL    HW267963   0.182   9.606  13.780
22042SOL     OW67964   8.405   4.123  14.582
22042SOL    HW167965   8.326   4.079  14.613
22042SOL    HW267966   8.390   4.138  14.489
22043SOL     OW67967   9.059  13.118   7.639
22043SOL    HW167968   9.102  13.038   7.608
22043SOL    HW267969   9.060  13.176   7.563
22044SOL     OW67970   0.306  10.692  13.716
22044SOL    HW167971   0.313  10.788  13.720
22044SOL    HW267972   0.212  10.676  13.705
22045SOL     OW67973   2.395   2.885   2.034
22045SOL    HW167974   2.315   2.846   1.999
22045SOL    HW267975   2.445   2.911   1.956
22046SOL     OW67976   4.206   5.635   7.251
22046SOL    HW167977   4.207   5.719   7.204
22046SOL    HW267978   4.293   5.599   7.239
22047SOL     OW67979   1.433   6.381   9.695
22047SOL    HW167980   1.506   6.440   9.676
22047SOL    HW267981   1.361   6.439   9.721
22048SOL     OW67982  13.884   2.640   5.972
22048SOL    HW167983  13.853   2.711   6.028
22048SOL    HW267984  13.805   2.592   5.947
22049SOL     OW67985   5.767   4.667  13.360
22049SOL    HW167986   5.725   4.730  13.303
22049SOL    HW267987   5.696   4.610  13.390
22050SOL     OW67988   2.877  13.257   3.459
22050SOL    HW167989   2.964  13.281   3.490
22050SOL    HW267990   2.868  13.303   3.375
22051SOL     OW67991   1.607  11.330   0.683
22051SOL    HW167992   1.591  11.343   0.776
22051SOL    HW267993   1.528  11.365   0.640
22052SOL     OW67994  13.411   6.090   0.347
22052SOL    HW167995  13.474   6.071   0.416
22052SOL    HW267996  13.453   6.060   0.267
22053SOL     OW67997  14.840   7.217   5.906
22053SOL    HW167998  14.760   7.208   5.958
22053SOL    HW267999   0.006   7.292   5.945
22054SOL     OW68000   2.861   1.102  12.522
22054SOL    HW168001   2.882   1.134  12.434
22054SOL    HW268002   2.943   1.109  12.571
22055SOL     OW68003   1.879  13.220   9.400
22055SOL    HW168004   1.863  13.129   9.374
22055SOL    HW268005   1.907  13.264   9.320
22056SOL     OW68006  13.955  12.556  12.041
22056SOL    HW168007  13.906  12.567  12.123
22056SOL    HW268008  13.926  12.628  11.985
22057SOL     OW68009   9.439   6.412  11.588
22057SOL    HW168010   9.426   6.414  11.683
22057SOL    HW268011   9.351   6.416  11.552
22058SOL     OW68012   6.744   3.133   4.528
22058SOL    HW168013   6.760   3.106   4.438
22058SOL    HW268014   6.649   3.138   4.536
22059SOL     OW68015  14.279  11.977   8.171
22059SOL    HW168016  14.281  12.010   8.260
22059SOL    HW268017  14.230  12.042   8.122
22060SOL     OW68018   5.692   0.524   4.537
22060SOL    HW168019   5.678   0.542   4.630
22060SOL    HW268020   5.622   0.573   4.493
22061SOL     OW68021   8.787   9.880  12.784
22061SOL    HW168022   8.718   9.816  12.798
22061SOL    HW268023   8.745   9.952  12.738
22062SOL     OW68024   8.838  12.968   0.318
22062SOL    HW168025   8.867  12.964   0.227
22062SOL    HW268026   8.743  12.983   0.313
22063SOL     OW68027   8.262   8.321  10.050
22063SOL    HW168028   8.269   8.390  10.115
22063SOL    HW268029   8.259   8.240  10.102
22064SOL     OW68030  12.189  14.628   7.307
22064SOL    HW168031  12.218  14.539   7.324
22064SOL    HW268032  12.100  14.618   7.274
22065SOL     OW68033   9.342  13.494   1.018
22065SOL    HW168034   9.419  13.442   0.993
22065SOL    HW268035   9.314  13.536   0.937
22066SOL     OW68036   8.581  12.090   7.767
22066SOL    HW168037   8.521  12.025   7.731
22066SOL    HW268038   8.594  12.153   7.696
22067SOL     OW68039  14.292  12.212   9.539
22067SOL    HW168040  14.272  12.173   9.454
22067SOL    HW268041  14.285  12.140   9.601
22068SOL     OW68042   6.057  10.601  14.633
22068SOL    HW168043   6.124  10.650  14.681
22068SOL    HW268044   6.093  10.512  14.627
22069SOL     OW68045   3.528   1.945   9.095
22069SOL    HW168046   3.608   1.962   9.045
22069SOL    HW268047   3.459   1.938   9.028
22070SOL     OW68048   9.566   7.627   0.376
22070SOL    HW168049   9.583   7.693   0.308
22070SOL    HW268050   9.651   7.608   0.413
22071SOL     OW68051  11.550   1.656   7.260
22071SOL    HW168052  11.637   1.682   7.289
22071SOL    HW268053  11.538   1.568   7.296
22072SOL     OW68054   2.112   3.163   4.988
22072SOL    HW168055   2.122   3.257   5.004
22072SOL    HW268056   2.146   3.121   5.067
22073SOL     OW68057  14.141   5.987   0.076
22073SOL    HW168058  14.111   6.023   0.160
22073SOL    HW268059  14.161   5.895   0.096
22074SOL     OW68060   3.235   6.189   2.923
22074SOL    HW168061   3.152   6.233   2.943
22074SOL    HW268062   3.301   6.238   2.972
22075SOL     OW68063   6.034   9.572   6.363
22075SOL    HW168064   6.047   9.486   6.323
22075SOL    HW268065   6.089   9.571   6.441
22076SOL     OW68066  10.044  13.279   4.065
22076SOL    HW168067  10.053  13.185   4.080
22076SOL    HW268068   9.967  13.287   4.008
22077SOL     OW68069   0.848  11.856  10.149
22077SOL    HW168070   0.826  11.900  10.232
22077SOL    HW268071   0.903  11.782  10.176
22078SOL     OW68072   1.011  13.193   4.995
22078SOL    HW168073   1.029  13.246   5.073
22078SOL    HW268074   1.012  13.256   4.922
22079SOL     OW68075   2.105  14.391  12.474
22079SOL    HW168076   2.200  14.404  12.486
22079SOL    HW268077   2.069  14.403  12.562
22080SOL     OW68078   7.563   6.303   7.202
22080SOL    HW168079   7.575   6.393   7.233
22080SOL    HW268080   7.515   6.259   7.272
22081SOL     OW68081   8.138  11.396  10.333
22081SOL    HW168082   8.176  11.335  10.270
22081SOL    HW268083   8.092  11.461  10.279
22082SOL     OW68084   8.098   9.596   3.625
22082SOL    HW168085   8.185   9.566   3.598
22082SOL    HW268086   8.070   9.532   3.690
22083SOL     OW68087  12.729   4.261   3.878
22083SOL    HW168088  12.779   4.182   3.901
22083SOL    HW268089  12.758   4.282   3.789
22084SOL     OW68090  13.361  11.715   2.167
22084SOL    HW168091  13.429  11.652   2.189
22084SOL    HW268092  13.406  11.799   2.163
22085SOL     OW68093   8.588  10.481   6.181
22085SOL    HW168094   8.510  10.533   6.160
22085SOL    HW268095   8.553  10.393   6.199
22086SOL     OW68096   1.557  10.515   3.904
22086SOL    HW168097   1.502  10.472   3.970
22086SOL    HW268098   1.646  10.483   3.923
22087SOL     OW68099   4.103   1.918  13.765
22087SOL    HW168100   4.177   1.863  13.741
22087SOL    HW268101   4.101   1.987  13.699
22088SOL     OW68102  12.386   3.199   1.817
22088SOL    HW168103  12.391   3.267   1.750
22088SOL    HW268104  12.332   3.130   1.779
22089SOL     OW68105   7.483   8.046  14.732
22089SOL    HW168106   7.391   8.019  14.730
22089SOL    HW268107   7.492   8.093  14.816
22090SOL     OW68108  12.528   1.261  10.953
22090SOL    HW168109  12.599   1.200  10.931
22090SOL    HW268110  12.527   1.262  11.049
22091SOL     OW68111   5.116   9.671   6.827
22091SOL    HW168112   5.156   9.742   6.878
22091SOL    HW268113   5.157   9.592   6.862
22092SOL     OW68114   6.077   3.074   8.871
22092SOL    HW168115   6.137   3.143   8.844
22092SOL    HW268116   6.034   3.046   8.790
22093SOL     OW68117   8.136   4.290   4.800
22093SOL    HW168118   8.151   4.260   4.710
22093SOL    HW268119   8.115   4.210   4.849
22094SOL     OW68120   5.135   6.069   0.397
22094SOL    HW168121   5.188   6.141   0.362
22094SOL    HW268122   5.154   5.995   0.339
22095SOL     OW68123   3.655   1.628   9.061
22095SOL    HW168124   3.658   1.534   9.078
22095SOL    HW268125   3.572   1.656   9.100
22096SOL     OW68126  12.824  11.251   9.675
22096SOL    HW168127  12.769  11.193   9.622
22096SOL    HW268128  12.889  11.192   9.714
22097SOL     OW68129  13.315  14.383  13.175
22097SOL    HW168130  13.345  14.432  13.252
22097SOL    HW268131  13.298  14.451  13.110
22098SOL     OW68132  14.784  10.204   8.575
22098SOL    HW168133  14.737  10.283   8.602
22098SOL    HW268134  14.827  10.229   8.493
22099SOL     OW68135   4.109   0.443   6.916
22099SOL    HW168136   4.060   0.525   6.927
22099SOL    HW268137   4.179   0.466   6.855
22100SOL     OW68138  13.522   1.363   9.229
22100SOL    HW168139  13.486   1.320   9.307
22100SOL    HW268140  13.494   1.307   9.156
22101SOL     OW68141  13.695   5.072  11.680
22101SOL    HW168142  13.685   4.982  11.649
22101SOL    HW268143  13.682   5.126  11.602
22102SOL     OW68144   0.912   1.066   8.188
22102SOL    HW168145   0.960   1.134   8.140
22102SOL    HW268146   0.979   1.019   8.236
22103SOL     OW68147   4.330  14.004   4.288
22103SOL    HW168148   4.359  14.092   4.267
22103SOL    HW268149   4.252  14.016   4.343
22104SOL     OW68150   9.164   2.469  14.715
22104SOL    HW168151   9.162   2.471  14.619
22104SOL    HW268152   9.195   2.381  14.736
22105SOL     OW68153  14.547  11.356   3.180
22105SOL    HW168154  14.522  11.266   3.201
22105SOL    HW268155  14.508  11.408   3.250
22106SOL     OW68156   3.301   1.322   5.411
22106SOL    HW168157   3.316   1.376   5.333
22106SOL    HW268158   3.209   1.335   5.431
22107SOL     OW68159  10.976  14.299   2.893
22107SOL    HW168160  10.957  14.392   2.890
22107SOL    HW268161  11.049  14.291   2.955
22108SOL     OW68162  13.806   4.223   2.637
22108SOL    HW168163  13.855   4.184   2.709
22108SOL    HW268164  13.863   4.292   2.603
22109SOL     OW68165   2.194   1.604   6.154
22109SOL    HW168166   2.266   1.613   6.217
22109SOL    HW268167   2.147   1.688   6.160
22110SOL     OW68168  11.921   3.213   7.870
22110SOL    HW168169  11.952   3.133   7.911
22110SOL    HW268170  11.939   3.282   7.934
22111SOL     OW68171   3.832  12.070   9.579
22111SOL    HW168172   3.775  12.140   9.547
22111SOL    HW268173   3.899  12.061   9.511
22112SOL     OW68174  14.530   0.641   9.739
22112SOL    HW168175  14.608   0.589   9.760
22112SOL    HW268176  14.497   0.603   9.658
22113SOL     OW68177   6.959   5.468   6.019
22113SOL    HW168178   6.965   5.561   5.998
22113SOL    HW268179   7.020   5.456   6.093
22114SOL     OW68180  11.371   9.362   2.234
22114SOL    HW168181  11.393   9.281   2.188
22114SOL    HW268182  11.305   9.404   2.178
22115SOL     OW68183   1.178  14.614   5.097
22115SOL    HW168184   1.123  14.556   5.149
22115SOL    HW268185   1.264  14.611   5.140
22116SOL     OW68186   1.314   6.207   9.516
22116SOL    HW168187   1.339   6.127   9.471
22116SOL    HW268188   1.385   6.223   9.579
22117SOL     OW68189   7.692   8.835  13.639
22117SOL    HW168190   7.652   8.762  13.685
22117SOL    HW268191   7.715   8.898  13.707
22118SOL     OW68192  12.422   3.676   1.026
22118SOL    HW168193  12.412   3.752   1.084
22118SOL    HW268194  12.379   3.604   1.072
22119SOL     OW68195  10.537  14.679  14.875
22119SOL    HW168196  10.630  14.660   0.008
22119SOL    HW268197  10.491  14.614   0.049
22120SOL     OW68198   5.818   0.755   7.341
22120SOL    HW168199   5.876   0.696   7.294
22120SOL    HW268200   5.876   0.821   7.378
22121SOL     OW68201   0.182   6.018  12.913
22121SOL    HW168202   0.261   5.967  12.896
22121SOL    HW268203   0.165   6.064  12.830
22122SOL     OW68204   1.728   8.995  11.165
22122SOL    HW168205   1.698   8.919  11.115
22122SOL    HW268206   1.693   9.070  11.117
22123SOL     OW68207   7.414   7.451   1.370
22123SOL    HW168208   7.481   7.515   1.345
22123SOL    HW268209   7.459   7.366   1.366
22124SOL     OW68210   3.585  10.809   0.615
22124SOL    HW168211   3.592  10.733   0.556
22124SOL    HW268212   3.668  10.856   0.602
22125SOL     OW68213  12.535   7.350   3.323
22125SOL    HW168214  12.568   7.262   3.305
22125SOL    HW268215  12.517   7.387   3.236
22126SOL     OW68216   1.984   6.155   2.565
22126SOL    HW168217   2.074   6.187   2.573
22126SOL    HW268218   1.965   6.116   2.650
22127SOL     OW68219  11.920   6.140   0.628
22127SOL    HW168220  11.892   6.091   0.705
22127SOL    HW268221  11.863   6.217   0.626
22128SOL     OW68222   9.206   2.315  10.998
22128SOL    HW168223   9.188   2.318  11.092
22128SOL    HW268224   9.214   2.407  10.972
22129SOL     OW68225   9.865  10.342   7.279
22129SOL    HW168226   9.938  10.394   7.313
22129SOL    HW268227   9.888  10.251   7.301
22130SOL     OW68228   0.312   4.623  10.693
22130SOL    HW168229   0.365   4.543  10.695
22130SOL    HW268230   0.342   4.671  10.616
22131SOL     OW68231  10.538   0.697   5.842
22131SOL    HW168232  10.610   0.757   5.860
22131SOL    HW268233  10.472   0.719   5.908
22132SOL     OW68234   6.958  12.212   7.175
22132SOL    HW168235   6.890  12.145   7.166
22132SOL    HW268236   6.965  12.250   7.087
22133SOL     OW68237   8.283  11.288   5.284
22133SOL    HW168238   8.336  11.279   5.363
22133SOL    HW268239   8.218  11.354   5.307
22134SOL     OW68240  13.121   8.773   5.775
22134SOL    HW168241  13.116   8.679   5.794
22134SOL    HW268242  13.059   8.786   5.703
22135SOL     OW68243   0.511   5.796  14.849
22135SOL    HW168244   0.511   5.741  14.770
22135SOL    HW268245   0.515   5.886  14.815
22136SOL     OW68246  14.772   2.247  11.637
22136SOL    HW168247  14.801   2.251  11.728
22136SOL    HW268248  14.829   2.310  11.591
22137SOL     OW68249  11.409   7.664   2.483
22137SOL    HW168250  11.503   7.645   2.477
22137SOL    HW268251  11.388   7.711   2.403
22138SOL     OW68252  11.523   4.352   8.154
22138SOL    HW168253  11.436   4.323   8.181
22138SOL    HW268254  11.572   4.361   8.236
22139SOL     OW68255   8.345   3.429  12.124
22139SOL    HW168256   8.433   3.434  12.088
22139SOL    HW268257   8.313   3.342  12.098
22140SOL     OW68258   4.129  11.383   0.679
22140SOL    HW168259   4.214  11.410   0.715
22140SOL    HW268260   4.150  11.349   0.592
22141SOL     OW68261   3.735  10.797   3.789
22141SOL    HW168262   3.814  10.751   3.760
22141SOL    HW268263   3.704  10.842   3.710
22142SOL     OW68264   9.414   6.915   8.239
22142SOL    HW168265   9.441   6.919   8.147
22142SOL    HW268266   9.491   6.880   8.285
22143SOL     OW68267   8.666   4.294   6.362
22143SOL    HW168268   8.741   4.335   6.319
22143SOL    HW268269   8.624   4.244   6.292
22144SOL     OW68270   4.935   7.079   5.167
22144SOL    HW168271   5.010   7.123   5.126
22144SOL    HW268272   4.881   7.051   5.093
22145SOL     OW68273   7.314   1.488  10.690
22145SOL    HW168274   7.360   1.418  10.644
22145SOL    HW268275   7.250   1.442  10.744
22146SOL     OW68276   0.246   8.029  11.509
22146SOL    HW168277   0.208   8.116  11.496
22146SOL    HW268278   0.233   7.984  11.425
22147SOL     OW68279  10.200   6.936  12.703
22147SOL    HW168280  10.279   6.971  12.660
22147SOL    HW268281  10.209   6.963  12.794
22148SOL     OW68282   4.251   1.765   6.584
22148SOL    HW168283   4.266   1.856   6.562
22148SOL    HW268284   4.243   1.764   6.680
22149SOL     OW68285  10.521  13.712  12.918
22149SOL    HW168286  10.535  13.804  12.938
22149SOL    HW268287  10.473  13.678  12.994
22150SOL     OW68288  10.916   4.136   1.949
22150SOL    HW168289  10.987   4.152   1.886
22150SOL    HW268290  10.960   4.101   2.026
22151SOL     OW68291   8.787   0.606   5.178
22151SOL    HW168292   8.882   0.619   5.182
22151SOL    HW268293   8.775   0.539   5.111
22152SOL     OW68294   2.347  13.455   1.543
22152SOL    HW168295   2.365  13.454   1.637
22152SOL    HW268296   2.253  13.437   1.537
22153SOL     OW68297  13.566  14.001   2.882
22153SOL    HW168298  13.508  13.926   2.868
22153SOL    HW268299  13.530  14.045   2.960
22154SOL     OW68300   5.276  14.188  12.192
22154SOL    HW168301   5.261  14.112  12.137
22154SOL    HW268302   5.332  14.245  12.139
22155SOL     OW68303   7.806  14.535   3.400
22155SOL    HW168304   7.880  14.556   3.343
22155SOL    HW268305   7.756  14.470   3.351
22156SOL     OW68306   8.482   3.094   1.653
22156SOL    HW168307   8.402   3.064   1.610
22156SOL    HW268308   8.525   3.013   1.683
22157SOL     OW68309   8.139  10.182  10.229
22157SOL    HW168310   8.107  10.092  10.234
22157SOL    HW268311   8.078  10.225  10.168
22158SOL     OW68312   0.992  11.901   8.817
22158SOL    HW168313   0.942  11.873   8.894
22158SOL    HW268314   0.926  11.937   8.758
22159SOL     OW68315   4.328   3.087   3.998
22159SOL    HW168316   4.376   3.150   3.944
22159SOL    HW268317   4.381   3.007   3.993
22160SOL     OW68318   4.203   2.585   7.812
22160SOL    HW168319   4.201   2.647   7.739
22160SOL    HW268320   4.284   2.535   7.798
22161SOL     OW68321   2.936   3.831   8.111
22161SOL    HW168322   2.915   3.924   8.120
22161SOL    HW268323   3.030   3.827   8.125
22162SOL     OW68324   8.439   1.877   4.955
22162SOL    HW168325   8.412   1.969   4.947
22162SOL    HW268326   8.464   1.853   4.866
22163SOL     OW68327   1.941  14.697  13.220
22163SOL    HW168328   1.851  14.718  13.196
22163SOL    HW268329   1.935  14.653  13.304
22164SOL     OW68330  13.013   9.889   1.421
22164SOL    HW168331  12.924   9.899   1.453
22164SOL    HW268332  13.050   9.818   1.474
22165SOL     OW68333   4.701   0.485   3.051
22165SOL    HW168334   4.726   0.452   3.137
22165SOL    HW268335   4.767   0.447   2.992
22166SOL     OW68336   1.463   0.834   1.444
22166SOL    HW168337   1.518   0.908   1.472
22166SOL    HW268338   1.474   0.769   1.514
22167SOL     OW68339   6.151   7.953  12.498
22167SOL    HW168340   6.103   7.942  12.580
22167SOL    HW268341   6.160   8.048  12.488
22168SOL     OW68342   4.316  12.275  11.450
22168SOL    HW168343   4.308  12.349  11.510
22168SOL    HW268344   4.235  12.276  11.400
22169SOL     OW68345   9.102   9.683  10.932
22169SOL    HW168346   9.130   9.728  11.012
22169SOL    HW268347   9.155   9.722  10.863
22170SOL     OW68348  12.489   6.960   1.607
22170SOL    HW168349  12.426   6.909   1.658
22170SOL    HW268350  12.572   6.946   1.653
22171SOL     OW68351  14.068   8.927  13.981
22171SOL    HW168352  14.019   8.912  13.900
22171SOL    HW268353  14.152   8.964  13.952
22172SOL     OW68354   1.554  11.460   2.739
22172SOL    HW168355   1.582  11.472   2.649
22172SOL    HW268356   1.588  11.538   2.785
22173SOL     OW68357  14.420   8.732  12.766
22173SOL    HW168358  14.369   8.798  12.813
22173SOL    HW268359  14.420   8.656  12.824
22174SOL     OW68360  12.762   6.105  10.482
22174SOL    HW168361  12.836   6.049  10.459
22174SOL    HW268362  12.735   6.144  10.398
22175SOL     OW68363   2.108   9.979   4.515
22175SOL    HW168364   2.100  10.068   4.479
22175SOL    HW268365   2.198   9.975   4.547
22176SOL     OW68366   3.113   5.259   7.390
22176SOL    HW168367   3.101   5.179   7.338
22176SOL    HW268368   3.088   5.330   7.331
22177SOL     OW68369  11.516  11.728  14.745
22177SOL    HW168370  11.536  11.806  14.797
22177SOL    HW268371  11.556  11.746  14.660
22178SOL     OW68372  13.625   7.650  12.005
22178SOL    HW168373  13.612   7.575  11.948
22178SOL    HW268374  13.570   7.719  11.968
22179SOL     OW68375   1.209   5.282  11.728
22179SOL    HW168376   1.252   5.311  11.808
22179SOL    HW268377   1.170   5.198  11.750
22180SOL     OW68378   7.484   2.438  10.076
22180SOL    HW168379   7.404   2.447  10.024
22180SOL    HW268380   7.460   2.378  10.147
22181SOL     OW68381   0.686   3.312   9.940
22181SOL    HW168382   0.781   3.321   9.954
22181SOL    HW268383   0.648   3.388   9.984
22182SOL     OW68384   7.595   4.710   3.233
22182SOL    HW168385   7.609   4.789   3.181
22182SOL    HW268386   7.678   4.695   3.278
22183SOL     OW68387   7.216   6.482  12.347
22183SOL    HW168388   7.131   6.463  12.388
22183SOL    HW268389   7.273   6.506  12.420
22184SOL     OW68390   6.219   4.746   8.898
22184SOL    HW168391   6.168   4.813   8.943
22184SOL    HW268392   6.238   4.680   8.966
22185SOL     OW68393   5.590   4.432   7.147
22185SOL    HW168394   5.663   4.370   7.154
22185SOL    HW268395   5.584   4.471   7.235
22186SOL     OW68396  11.721   8.309   4.749
22186SOL    HW168397  11.697   8.221   4.720
22186SOL    HW268398  11.700   8.310   4.842
22187SOL     OW68399   8.940   0.800   9.921
22187SOL    HW168400   8.991   0.775   9.999
22187SOL    HW268401   8.917   0.891   9.936
22188SOL     OW68402  12.201   7.730  10.554
22188SOL    HW168403  12.202   7.779  10.472
22188SOL    HW268404  12.182   7.796  10.621
22189SOL     OW68405  13.513   7.780   1.702
22189SOL    HW168406  13.491   7.702   1.753
22189SOL    HW268407  13.557   7.838   1.764
22190SOL     OW68408   3.628  11.423   7.760
22190SOL    HW168409   3.579  11.400   7.839
22190SOL    HW268410   3.716  11.388   7.775
22191SOL     OW68411   2.012   5.651   7.548
22191SOL    HW168412   1.977   5.685   7.630
22191SOL    HW268413   1.935   5.632   7.495
22192SOL     OW68414   1.251   1.417   6.297
22192SOL    HW168415   1.206   1.414   6.382
22192SOL    HW268416   1.187   1.382   6.235
22193SOL     OW68417   1.496   3.190   4.557
22193SOL    HW168418   1.414   3.239   4.552
22193SOL    HW268419   1.472   3.100   4.535
22194SOL     OW68420   3.530   0.641  12.645
22194SOL    HW168421   3.438   0.630  12.671
22194SOL    HW268422   3.575   0.663  12.726
22195SOL     OW68423   8.545   4.288   4.611
22195SOL    HW168424   8.545   4.370   4.660
22195SOL    HW268425   8.609   4.301   4.542
22196SOL     OW68426  13.422  11.470  11.487
22196SOL    HW168427  13.359  11.415  11.441
22196SOL    HW268428  13.486  11.409  11.523
22197SOL     OW68429  11.887   6.701   0.220
22197SOL    HW168430  11.907   6.795   0.216
22197SOL    HW268431  11.838   6.684   0.140
22198SOL     OW68432   3.811   5.344   5.010
22198SOL    HW168433   3.825   5.433   5.043
22198SOL    HW268434   3.878   5.331   4.943
22199SOL     OW68435   5.291   7.990  13.653
22199SOL    HW168436   5.232   8.019  13.583
22199SOL    HW268437   5.268   8.045  13.728
22200SOL     OW68438   5.556  11.068   2.973
22200SOL    HW168439   5.598  11.105   3.051
22200SOL    HW268440   5.465  11.057   2.997
22201SOL     OW68441  14.173   1.336  11.249
22201SOL    HW168442  14.190   1.390  11.172
22201SOL    HW268443  14.082   1.354  11.272
22202SOL     OW68444   8.109   2.609  12.944
22202SOL    HW168445   8.200   2.581  12.953
22202SOL    HW268446   8.096   2.619  12.850
22203SOL     OW68447   2.808  14.843   7.290
22203SOL    HW168448   2.859  14.813   7.365
22203SOL    HW268449   2.809   0.059   7.297
22204SOL     OW68450   9.530   9.206   5.140
22204SOL    HW168451   9.566   9.124   5.174
22204SOL    HW268452   9.605   9.263   5.128
22205SOL     OW68453   2.440   6.784  13.382
22205SOL    HW168454   2.435   6.834  13.463
22205SOL    HW268455   2.379   6.827  13.323
22206SOL     OW68456   8.637   4.289  13.844
22206SOL    HW168457   8.551   4.331  13.843
22206SOL    HW268458   8.700   4.361  13.851
22207SOL     OW68459   8.652  11.180   3.130
22207SOL    HW168460   8.708  11.206   3.057
22207SOL    HW268461   8.693  11.220   3.207
22208SOL     OW68462   4.290   0.470   3.960
22208SOL    HW168463   4.363   0.441   4.016
22208SOL    HW268464   4.262   0.391   3.914
22209SOL     OW68465   3.572  13.421   9.289
22209SOL    HW168466   3.622  13.458   9.217
22209SOL    HW268467   3.488  13.468   9.288
22210SOL     OW68468   1.849   6.597  13.832
22210SOL    HW168469   1.918   6.633  13.778
22210SOL    HW268470   1.882   6.511  13.860
22211SOL     OW68471   3.073   4.285  11.840
22211SOL    HW168472   3.056   4.302  11.932
22211SOL    HW268473   3.166   4.306  11.828
22212SOL     OW68474   8.334   2.641   5.380
22212SOL    HW168475   8.280   2.576   5.335
22212SOL    HW268476   8.280   2.719   5.384
22213SOL     OW68477   5.268  14.018  13.567
22213SOL    HW168478   5.273  14.033  13.472
22213SOL    HW268479   5.178  14.039  13.590
22214SOL     OW68480  13.840   9.082   0.772
22214SOL    HW168481  13.809   9.086   0.862
22214SOL    HW268482  13.764   9.104   0.719
22215SOL     OW68483   7.140   9.299  12.248
22215SOL    HW168484   7.164   9.214  12.210
22215SOL    HW268485   7.222   9.330  12.287
22216SOL     OW68486   7.642   9.231   5.739
22216SOL    HW168487   7.615   9.188   5.820
22216SOL    HW268488   7.683   9.313   5.768
22217SOL     OW68489   2.762   4.023   8.819
22217SOL    HW168490   2.683   4.071   8.795
22217SOL    HW268491   2.741   3.985   8.905
22218SOL     OW68492   5.933  12.770  12.647
22218SOL    HW168493   5.852  12.813  12.673
22218SOL    HW268494   5.999  12.840  12.649
22219SOL     OW68495   7.614   4.979   6.088
22219SOL    HW168496   7.615   5.055   6.030
22219SOL    HW268497   7.622   5.015   6.176
22220SOL     OW68498  13.128  14.404  13.753
22220SOL    HW168499  13.189  14.329  13.750
22220SOL    HW268500  13.185  14.480  13.761
22221SOL     OW68501   9.564   8.035   7.470
22221SOL    HW168502   9.513   7.962   7.436
22221SOL    HW268503   9.647   8.031   7.423
22222SOL     OW68504   1.842   4.431   3.762
22222SOL    HW168505   1.795   4.481   3.829
22222SOL    HW268506   1.777   4.371   3.726
22223SOL     OW68507  13.076   4.246   7.298
22223SOL    HW168508  13.080   4.150   7.293
22223SOL    HW268509  13.012   4.263   7.368
22224SOL     OW68510   7.434   2.900   8.842
22224SOL    HW168511   7.344   2.870   8.853
22224SOL    HW268512   7.436   2.986   8.883
22225SOL     OW68513   0.555   3.769   1.855
22225SOL    HW168514   0.642   3.732   1.867
22225SOL    HW268515   0.541   3.823   1.933
22226SOL     OW68516   1.414   2.548   3.859
22226SOL    HW168517   1.357   2.626   3.861
22226SOL    HW268518   1.406   2.515   3.769
22227SOL     OW68519   2.473   5.756   8.169
22227SOL    HW168520   2.458   5.671   8.127
22227SOL    HW268521   2.558   5.785   8.134
22228SOL     OW68522   2.201   4.379   6.785
22228SOL    HW168523   2.202   4.474   6.774
22228SOL    HW268524   2.254   4.363   6.864
22229SOL     OW68525   1.296   2.262   7.204
22229SOL    HW168526   1.208   2.282   7.174
22229SOL    HW268527   1.292   2.269   7.300
22230SOL     OW68528  13.629  13.961   4.314
22230SOL    HW168529  13.544  13.916   4.310
22230SOL    HW268530  13.622  14.031   4.249
22231SOL     OW68531  14.855   2.605   5.388
22231SOL    HW168532  14.818   2.688   5.418
22231SOL    HW268533  14.813   2.590   5.303
22232SOL     OW68534  11.752   0.064  12.187
22232SOL    HW168535  11.671   0.093  12.229
22232SOL    HW268536  11.725  14.869  12.133
22233SOL     OW68537   7.892   5.573   7.134
22233SOL    HW168538   7.880   5.487   7.173
22233SOL    HW268539   7.819   5.581   7.071
22234SOL     OW68540  11.881   0.602   6.350
22234SOL    HW168541  11.854   0.647   6.430
22234SOL    HW268542  11.969   0.635   6.332
22235SOL     OW68543  12.878  14.864   1.385
22235SOL    HW168544  12.817  14.833   1.453
22235SOL    HW268545  12.821   0.016   1.315
22236SOL     OW68546  12.707   5.937  11.561
22236SOL    HW168547  12.637   6.003  11.566
22236SOL    HW268548  12.745   5.949  11.474
22237SOL     OW68549   6.181   6.010   8.293
22237SOL    HW168550   6.164   5.945   8.225
22237SOL    HW268551   6.273   6.032   8.283
22238SOL     OW68552   0.575   3.999  12.978
22238SOL    HW168553   0.510   3.950  12.929
22238SOL    HW268554   0.537   4.008  13.066
22239SOL     OW68555   6.006  11.871   3.801
22239SOL    HW168556   6.089  11.853   3.846
22239SOL    HW268557   5.991  11.795   3.747
22240SOL     OW68558   7.711   5.360  12.844
22240SOL    HW168559   7.715   5.372  12.939
22240SOL    HW268560   7.725   5.448  12.809
22241SOL     OW68561   5.653   4.113  10.909
22241SOL    HW168562   5.723   4.049  10.925
22241SOL    HW268563   5.698   4.192  10.881
22242SOL     OW68564  11.871  11.923  10.441
22242SOL    HW168565  11.851  11.892  10.353
22242SOL    HW268566  11.805  11.881  10.497
22243SOL     OW68567   7.701  14.852   2.287
22243SOL    HW168568   7.722  14.870   2.196
22243SOL    HW268569   7.773   0.011   2.337
22244SOL     OW68570  12.839   2.009   2.738
22244SOL    HW168571  12.904   2.052   2.683
22244SOL    HW268572  12.755   2.033   2.699
22245SOL     OW68573   4.151   5.685  13.770
22245SOL    HW168574   4.150   5.781  13.774
22245SOL    HW268575   4.238   5.663  13.737
22246SOL     OW68576   2.758   7.607  11.369
22246SOL    HW168577   2.701   7.675  11.333
22246SOL    HW268578   2.759   7.539  11.302
22247SOL     OW68579  12.902   1.499   8.636
22247SOL    HW168580  12.948   1.458   8.563
22247SOL    HW268581  12.813   1.465   8.631
22248SOL     OW68582   2.531   0.183  12.045
22248SOL    HW168583   2.575   0.181  11.960
22248SOL    HW268584   2.488   0.098  12.052
22249SOL     OW68585   9.107  11.607   3.821
22249SOL    HW168586   9.109  11.576   3.730
22249SOL    HW268587   9.028  11.569   3.858
22250SOL     OW68588   0.641  10.927   3.750
22250SOL    HW168589   0.553  10.956   3.729
22250SOL    HW268590   0.638  10.832   3.739
22251SOL     OW68591   9.776  13.535  11.081
22251SOL    HW168592   9.788  13.629  11.087
22251SOL    HW268593   9.694  13.525  11.033
22252SOL     OW68594   4.288   4.737   3.887
22252SOL    HW168595   4.196   4.726   3.863
22252SOL    HW268596   4.331   4.660   3.852
22253SOL     OW68597  12.428  14.435   1.179
22253SOL    HW168598  12.513  14.478   1.166
22253SOL    HW268599  12.366  14.490   1.131
22254SOL     OW68600  13.169   5.711   6.198
22254SOL    HW168601  13.222   5.766   6.141
22254SOL    HW268602  13.094   5.765   6.222
22255SOL     OW68603   1.704   8.163  13.251
22255SOL    HW168604   1.741   8.126  13.171
22255SOL    HW268605   1.635   8.103  13.276
22256SOL     OW68606  11.591  12.377   6.629
22256SOL    HW168607  11.629  12.400   6.713
22256SOL    HW268608  11.586  12.460   6.581
22257SOL     OW68609   8.800   1.856   5.281
22257SOL    HW168610   8.734   1.810   5.333
22257SOL    HW268611   8.751   1.923   5.234
22258SOL     OW68612   1.234   8.328   6.036
22258SOL    HW168613   1.247   8.422   6.032
22258SOL    HW268614   1.262   8.295   5.951
22259SOL     OW68615   4.196   2.003   6.987
22259SOL    HW168616   4.183   2.067   6.917
22259SOL    HW268617   4.111   1.997   7.030
22260SOL     OW68618   7.858   6.336   7.301
22260SOL    HW168619   7.834   6.251   7.264
22260SOL    HW268620   7.895   6.385   7.228
22261SOL     OW68621   6.995   5.130  12.061
22261SOL    HW168622   7.046   5.077  12.123
22261SOL    HW268623   6.967   5.067  11.994
22262SOL     OW68624   1.646   1.618  10.315
22262SOL    HW168625   1.610   1.567  10.387
22262SOL    HW268626   1.620   1.571  10.236
22263SOL     OW68627   2.317   0.155   8.628
22263SOL    HW168628   2.239   0.201   8.659
22263SOL    HW268629   2.312   0.069   8.669
22264SOL     OW68630  12.470  14.877  12.130
22264SOL    HW168631  12.409  14.807  12.151
22264SOL    HW268632  12.515   0.016  12.213
22265SOL     OW68633   2.398   4.853   6.412
22265SOL    HW168634   2.384   4.942   6.378
22265SOL    HW268635   2.493   4.842   6.412
22266SOL     OW68636   5.396   9.262   4.193
22266SOL    HW168637   5.302   9.276   4.208
22266SOL    HW268638   5.437   9.289   4.276
22267SOL     OW68639   9.241   1.535  10.476
22267SOL    HW168640   9.265   1.623  10.446
22267SOL    HW268641   9.158   1.547  10.522
22268SOL     OW68642   6.179   5.514   6.281
22268SOL    HW168643   6.099   5.542   6.236
22268SOL    HW268644   6.239   5.588   6.273
22269SOL     OW68645   9.192   7.784   4.114
22269SOL    HW168646   9.180   7.814   4.024
22269SOL    HW268647   9.216   7.692   4.106
22270SOL     OW68648  10.490  11.556  11.766
22270SOL    HW168649  10.586  11.559  11.765
22270SOL    HW268650  10.469  11.465  11.742
22271SOL     OW68651  10.314   1.613  13.333
22271SOL    HW168652  10.265   1.652  13.261
22271SOL    HW268653  10.249   1.558  13.379
22272SOL     OW68654   9.567  12.898   2.987
22272SOL    HW168655   9.649  12.913   3.034
22272SOL    HW268656   9.594  12.874   2.898
22273SOL     OW68657   3.612  13.557  12.200
22273SOL    HW168658   3.566  13.625  12.151
22273SOL    HW268659   3.687  13.601  12.239
22274SOL     OW68660  10.017   9.614   3.668
22274SOL    HW168661   9.964   9.609   3.748
22274SOL    HW268662  10.099   9.570   3.690
22275SOL     OW68663  12.067  13.381  14.037
22275SOL    HW168664  12.118  13.332  13.972
22275SOL    HW268665  12.107  13.359  14.121
22276SOL     OW68666  13.656  13.536   7.491
22276SOL    HW168667  13.580  13.485   7.519
22276SOL    HW268668  13.643  13.622   7.531
22277SOL     OW68669   3.309  13.535   7.972
22277SOL    HW168670   3.243  13.513   7.906
22277SOL    HW268671   3.387  13.555   7.921
22278SOL     OW68672   2.903   4.499   7.354
22278SOL    HW168673   2.883   4.430   7.291
22278SOL    HW268674   2.821   4.548   7.363
22279SOL     OW68675   6.712   3.592  10.727
22279SOL    HW168676   6.766   3.525  10.769
22279SOL    HW268677   6.670   3.546  10.654
22280SOL     OW68678  13.928   4.282  10.303
22280SOL    HW168679  13.845   4.248  10.268
22280SOL    HW268680  13.936   4.369  10.263
22281SOL     OW68681   7.803   5.699   8.503
22281SOL    HW168682   7.752   5.624   8.532
22281SOL    HW268683   7.887   5.690   8.547
22282SOL     OW68684   7.398  12.927   9.507
22282SOL    HW168685   7.426  12.856   9.565
22282SOL    HW268686   7.365  12.995   9.566
22283SOL     OW68687   9.693   5.253   8.264
22283SOL    HW168688   9.598   5.260   8.253
22283SOL    HW268689   9.729   5.319   8.205
22284SOL     OW68690   9.211   6.400   4.378
22284SOL    HW168691   9.287   6.412   4.434
22284SOL    HW268692   9.199   6.305   4.373
22285SOL     OW68693   6.574  13.754   9.275
22285SOL    HW168694   6.669  13.759   9.272
22285SOL    HW268695   6.546  13.762   9.184
22286SOL     OW68696   3.036  13.584   6.423
22286SOL    HW168697   2.940  13.578   6.426
22286SOL    HW268698   3.064  13.503   6.381
22287SOL     OW68699   9.593   9.568  13.890
22287SOL    HW168700   9.526   9.599  13.830
22287SOL    HW268701   9.676   9.598  13.852
22288SOL     OW68702  12.438   5.502   1.577
22288SOL    HW168703  12.353   5.472   1.545
22288SOL    HW268704  12.417   5.549   1.658
22289SOL     OW68705   8.267   9.367   4.403
22289SOL    HW168706   8.304   9.374   4.315
22289SOL    HW268707   8.271   9.456   4.438
22290SOL     OW68708  14.586  10.258   5.504
22290SOL    HW168709  14.544  10.244   5.419
22290SOL    HW268710  14.642  10.182   5.516
22291SOL     OW68711   4.787  10.612  13.819
22291SOL    HW168712   4.695  10.591  13.836
22291SOL    HW268713   4.805  10.688  13.874
22292SOL     OW68714   7.817  12.156   3.671
22292SOL    HW168715   7.747  12.209   3.710
22292SOL    HW268716   7.823  12.188   3.581
22293SOL     OW68717   2.813  13.878   8.634
22293SOL    HW168718   2.893  13.826   8.634
22293SOL    HW268719   2.806  13.912   8.724
22294SOL     OW68720   8.631   8.782   0.471
22294SOL    HW168721   8.688   8.707   0.490
22294SOL    HW268722   8.684   8.836   0.412
22295SOL     OW68723  12.160   1.388  10.219
22295SOL    HW168724  12.156   1.322  10.150
22295SOL    HW268725  12.174   1.337  10.299
22296SOL     OW68726   6.643   1.454  14.518
22296SOL    HW168727   6.548   1.458  14.528
22296SOL    HW268728   6.672   1.387  14.580
22297SOL     OW68729  10.993   1.287   0.250
22297SOL    HW168730  10.931   1.233   0.201
22297SOL    HW268731  11.063   1.305   0.188
22298SOL     OW68732  10.558   2.147   9.210
22298SOL    HW168733  10.635   2.152   9.154
22298SOL    HW268734  10.576   2.208   9.282
22299SOL     OW68735  11.693   3.461  13.304
22299SOL    HW168736  11.766   3.479  13.363
22299SOL    HW268737  11.615   3.468  13.361
22300SOL     OW68738   9.746   3.058   3.974
22300SOL    HW168739   9.748   2.984   4.034
22300SOL    HW268740   9.695   3.028   3.899
22301SOL     OW68741   6.982   2.825   1.680
22301SOL    HW168742   6.968   2.911   1.719
22301SOL    HW268743   7.077   2.815   1.677
22302SOL     OW68744   3.576   7.798   7.507
22302SOL    HW168745   3.621   7.786   7.591
22302SOL    HW268746   3.646   7.822   7.446
22303SOL     OW68747   0.259   8.548  14.100
22303SOL    HW168748   0.231   8.481  14.038
22303SOL    HW268749   0.353   8.530  14.114
22304SOL     OW68750  14.508  12.693   3.331
22304SOL    HW168751  14.449  12.702   3.407
22304SOL    HW268752  14.556  12.775   3.328
22305SOL     OW68753   2.963   4.801   5.156
22305SOL    HW168754   2.940   4.759   5.073
22305SOL    HW268755   2.949   4.894   5.140
22306SOL     OW68756  10.337   6.681   7.890
22306SOL    HW168757  10.399   6.750   7.915
22306SOL    HW268758  10.252   6.714   7.918
22307SOL     OW68759   9.046   9.307   2.514
22307SOL    HW168760   9.135   9.277   2.534
22307SOL    HW268761   9.057   9.394   2.477
22308SOL     OW68762   3.699  11.676   5.014
22308SOL    HW168763   3.670  11.591   4.980
22308SOL    HW268764   3.624  11.708   5.065
22309SOL     OW68765   4.547   9.584  14.076
22309SOL    HW168766   4.469   9.623  14.117
22309SOL    HW268767   4.616   9.650  14.088
22310SOL     OW68768  13.762  14.255   6.776
22310SOL    HW168769  13.728  14.186   6.833
22310SOL    HW268770  13.728  14.234   6.689
22311SOL     OW68771   8.335   9.815   8.912
22311SOL    HW168772   8.292   9.872   8.976
22311SOL    HW268773   8.397   9.873   8.868
22312SOL     OW68774   1.878   8.058   0.449
22312SOL    HW168775   1.946   8.045   0.383
22312SOL    HW268776   1.862   7.970   0.485
22313SOL     OW68777  12.747   8.135  10.069
22313SOL    HW168778  12.758   8.084   9.989
22313SOL    HW268779  12.765   8.072  10.140
22314SOL     OW68780   4.836  10.166  12.427
22314SOL    HW168781   4.869  10.225  12.360
22314SOL    HW268782   4.912  10.115  12.454
22315SOL     OW68783   1.780   4.440   1.534
22315SOL    HW168784   1.791   4.533   1.555
22315SOL    HW268785   1.827   4.395   1.604
22316SOL     OW68786   6.092  11.125   0.250
22316SOL    HW168787   6.067  11.126   0.158
22316SOL    HW268788   6.011  11.146   0.297
22317SOL     OW68789  12.291   1.263   7.510
22317SOL    HW168790  12.210   1.280   7.462
22317SOL    HW268791  12.356   1.321   7.471
22318SOL     OW68792   5.611  10.708   3.623
22318SOL    HW168793   5.627  10.799   3.598
22318SOL    HW268794   5.516  10.698   3.617
22319SOL     OW68795   4.058   2.400   0.854
22319SOL    HW168796   4.081   2.343   0.781
22319SOL    HW268797   4.011   2.473   0.814
22320SOL     OW68798   5.831  13.974   5.645
22320SOL    HW168799   5.735  13.976   5.646
22320SOL    HW268800   5.856  13.988   5.736
22321SOL     OW68801   0.630  12.559  14.236
22321SOL    HW168802   0.616  12.649  14.264
22321SOL    HW268803   0.671  12.566  14.149
22322SOL     OW68804  14.815   0.489   0.911
22322SOL    HW168805  14.754   0.419   0.933
22322SOL    HW268806  14.818   0.490   0.815
22323SOL     OW68807   5.650   7.074   6.423
22323SOL    HW168808   5.675   7.072   6.331
22323SOL    HW268809   5.720   7.027   6.468
22324SOL     OW68810  11.040   5.415   4.241
22324SOL    HW168811  11.093   5.448   4.314
22324SOL    HW268812  11.100   5.358   4.192
22325SOL     OW68813   8.559   6.109   5.264
22325SOL    HW168814   8.505   6.141   5.192
22325SOL    HW268815   8.610   6.185   5.292
22326SOL     OW68816  12.958  12.019  13.865
22326SOL    HW168817  12.954  12.027  13.770
22326SOL    HW268818  12.894  12.083  13.897
22327SOL     OW68819   5.977  14.225  10.568
22327SOL    HW168820   5.904  14.164  10.561
22327SOL    HW268821   5.966  14.266  10.654
22328SOL     OW68822  10.155   2.521  14.031
22328SOL    HW168823  10.210   2.564  13.965
22328SOL    HW268824  10.075   2.498  13.984
22329SOL     OW68825  11.969   9.373   2.056
22329SOL    HW168826  11.919   9.359   1.975
22329SOL    HW268827  12.038   9.433   2.031
22330SOL     OW68828   3.581   9.260   1.048
22330SOL    HW168829   3.537   9.327   1.101
22330SOL    HW268830   3.525   9.251   0.971
22331SOL     OW68831   0.726  12.885   0.352
22331SOL    HW168832   0.642  12.865   0.393
22331SOL    HW268833   0.780  12.919   0.424
22332SOL     OW68834  13.166   0.415  14.543
22332SOL    HW168835  13.180   0.412  14.638
22332SOL    HW268836  13.215   0.340  14.509
22333SOL     OW68837   3.550   8.844   4.072
22333SOL    HW168838   3.523   8.753   4.065
22333SOL    HW268839   3.486   8.883   4.131
22334SOL     OW68840   0.354   3.221  10.817
22334SOL    HW168841   0.350   3.316  10.832
22334SOL    HW268842   0.311   3.183  10.893
22335SOL     OW68843  13.699   3.023  10.306
22335SOL    HW168844  13.706   3.038  10.211
22335SOL    HW268845  13.606   3.009  10.321
22336SOL     OW68846  11.454   1.397   8.539
22336SOL    HW168847  11.406   1.461   8.487
22336SOL    HW268848  11.467   1.323   8.480
22337SOL     OW68849   3.544   1.953   3.855
22337SOL    HW168850   3.470   2.006   3.826
22337SOL    HW268851   3.550   1.969   3.949
22338SOL     OW68852   9.464   6.888   7.971
22338SOL    HW168853   9.529   6.955   7.952
22338SOL    HW268854   9.409   6.886   7.892
22339SOL     OW68855   3.271   2.121   1.774
22339SOL    HW168856   3.188   2.135   1.729
22339SOL    HW268857   3.305   2.210   1.789
22340SOL     OW68858  11.666   6.624   7.854
22340SOL    HW168859  11.724   6.701   7.852
22340SOL    HW268860  11.726   6.550   7.856
22341SOL     OW68861   5.427   0.050  13.083
22341SOL    HW168862   5.349   0.067  13.134
22341SOL    HW268863   5.498   0.046  13.147
22342SOL     OW68864  12.437   7.731  11.537
22342SOL    HW168865  12.435   7.705  11.445
22342SOL    HW268866  12.480   7.658  11.581
22343SOL     OW68867  11.638   8.768  13.863
22343SOL    HW168868  11.698   8.757  13.790
22343SOL    HW268869  11.551   8.749  13.826
22344SOL     OW68870   4.430   3.343   6.753
22344SOL    HW168871   4.475   3.427   6.763
22344SOL    HW268872   4.339   3.366   6.733
22345SOL     OW68873   8.713  13.006  14.561
22345SOL    HW168874   8.797  12.994  14.517
22345SOL    HW268875   8.693  13.099  14.550
22346SOL     OW68876   2.504  11.142   0.846
22346SOL    HW168877   2.456  11.225   0.854
22346SOL    HW268878   2.457  11.081   0.903
22347SOL     OW68879   2.060   4.013  10.267
22347SOL    HW168880   1.987   4.006  10.205
22347SOL    HW268881   2.037   3.953  10.338
22348SOL     OW68882  10.967  13.243   0.643
22348SOL    HW168883  10.975  13.149   0.627
22348SOL    HW268884  10.938  13.279   0.559
22349SOL     OW68885  14.077   3.979   6.555
22349SOL    HW168886  14.116   3.994   6.641
22349SOL    HW268887  14.120   4.042   6.497
22350SOL     OW68888  11.575  10.196   2.768
22350SOL    HW168889  11.502  10.253   2.742
22350SOL    HW268890  11.608  10.161   2.685
22351SOL     OW68891  10.706  13.147   7.285
22351SOL    HW168892  10.749  13.209   7.344
22351SOL    HW268893  10.634  13.196   7.246
22352SOL     OW68894   1.556   3.938   3.663
22352SOL    HW168895   1.486   4.001   3.646
22352SOL    HW268896   1.566   3.889   3.581
22353SOL     OW68897  14.441   2.828  12.239
22353SOL    HW168898  14.462   2.747  12.193
22353SOL    HW268899  14.447   2.896  12.172
22354SOL     OW68900   9.075   8.292   6.038
22354SOL    HW168901   9.025   8.272   5.959
22354SOL    HW268902   9.056   8.219   6.097
22355SOL     OW68903   0.716  12.517   9.214
22355SOL    HW168904   0.794  12.545   9.262
22355SOL    HW268905   0.751  12.474   9.135
22356SOL     OW68906   8.551  13.143   8.834
22356SOL    HW168907   8.511  13.226   8.860
22356SOL    HW268908   8.477  13.083   8.823
22357SOL     OW68909   0.768  13.785   5.221
22357SOL    HW168910   0.748  13.726   5.293
22357SOL    HW268911   0.714  13.862   5.237
22358SOL     OW68912   8.026  14.860  10.380
22358SOL    HW168913   7.981  14.825  10.303
22358SOL    HW268914   8.117  14.869  10.352
22359SOL     OW68915   2.979   7.890   7.071
22359SOL    HW168916   2.963   7.819   7.133
22359SOL    HW268917   3.069   7.919   7.091
22360SOL     OW68918   9.109   0.807  13.632
22360SOL    HW168919   9.167   0.874  13.597
22360SOL    HW268920   9.032   0.810  13.576
22361SOL     OW68921   7.237   9.042   5.380
22361SOL    HW168922   7.158   9.090   5.354
22361SOL    HW268923   7.279   9.098   5.446
22362SOL     OW68924   6.518   2.638   6.780
22362SOL    HW168925   6.477   2.553   6.762
22362SOL    HW268926   6.606   2.616   6.809
22363SOL     OW68927   6.935  11.484   8.140
22363SOL    HW168928   6.909  11.393   8.151
22363SOL    HW268929   6.926  11.522   8.228
22364SOL     OW68930   4.686   0.946   0.445
22364SOL    HW168931   4.778   0.966   0.425
22364SOL    HW268932   4.690   0.875   0.509
22365SOL     OW68933   8.387  11.546   5.680
22365SOL    HW168934   8.310  11.601   5.667
22365SOL    HW268935   8.373  11.504   5.764
22366SOL     OW68936   8.598   8.213   8.781
22366SOL    HW168937   8.662   8.152   8.746
22366SOL    HW268938   8.649   8.278   8.829
22367SOL     OW68939  12.275  12.208   8.370
22367SOL    HW168940  12.345  12.258   8.328
22367SOL    HW268941  12.321  12.140   8.420
22368SOL     OW68942   2.429   5.660   4.007
22368SOL    HW168943   2.500   5.679   3.945
22368SOL    HW268944   2.467   5.595   4.066
22369SOL     OW68945  11.484  12.138   4.589
22369SOL    HW168946  11.558  12.086   4.621
22369SOL    HW268947  11.521  12.225   4.571
22370SOL     OW68948  13.240  11.135   4.215
22370SOL    HW168949  13.219  11.063   4.156
22370SOL    HW268950  13.327  11.114   4.250
22371SOL     OW68951  12.267   2.871  10.603
22371SOL    HW168952  12.248   2.944  10.662
22371SOL    HW268953  12.200   2.877  10.535
22372SOL     OW68954   5.456   1.414   6.935
22372SOL    HW168955   5.444   1.501   6.973
22372SOL    HW268956   5.376   1.399   6.884
22373SOL     OW68957  10.355  14.609  11.056
22373SOL    HW168958  10.292  14.549  11.094
22373SOL    HW268959  10.410  14.636  11.130
22374SOL     OW68960   1.905   7.219   3.895
22374SOL    HW168961   1.859   7.225   3.812
22374SOL    HW268962   1.846   7.170   3.952
22375SOL     OW68963   1.194  13.514   5.209
22375SOL    HW168964   1.191  13.591   5.153
22375SOL    HW268965   1.279  13.520   5.253
22376SOL     OW68966   5.869   3.914   9.993
22376SOL    HW168967   5.899   3.895  10.082
22376SOL    HW268968   5.774   3.916   9.999
22377SOL     OW68969   0.174  11.869  11.434
22377SOL    HW168970   0.213  11.792  11.475
22377SOL    HW268971   0.249  11.926  11.416
22378SOL     OW68972  11.572   2.264   1.679
22378SOL    HW168973  11.629   2.218   1.617
22378SOL    HW268974  11.579   2.214   1.760
22379SOL     OW68975  11.388  10.849  11.289
22379SOL    HW168976  11.483  10.838  11.279
22379SOL    HW268977  11.368  10.928  11.239
22380SOL     OW68978  14.771   0.714  14.207
22380SOL    HW168979  14.756   0.795  14.257
22380SOL    HW268980  14.866   0.705  14.204
22381SOL     OW68981   5.429  10.303  13.757
22381SOL    HW168982   5.349  10.338  13.718
22381SOL    HW268983   5.401  10.260  13.838
22382SOL     OW68984   3.352   2.496   6.003
22382SOL    HW168985   3.409   2.561   5.961
22382SOL    HW268986   3.307   2.453   5.931
22383SOL     OW68987   0.439   4.906  10.745
22383SOL    HW168988   0.479   4.895  10.659
22383SOL    HW268989   0.485   4.844  10.801
22384SOL     OW68990   7.294   5.046  13.080
22384SOL    HW168991   7.269   5.062  13.171
22384SOL    HW268992   7.385   5.017  13.085
22385SOL     OW68993   5.118  14.330   1.327
22385SOL    HW168994   5.123  14.286   1.412
22385SOL    HW268995   5.058  14.403   1.342
22386SOL     OW68996  11.170   5.577   1.009
22386SOL    HW168997  11.119   5.581   0.927
22386SOL    HW268998  11.260   5.597   0.982
22387SOL     OW68999  10.782   2.333  13.962
22387SOL    HW169000  10.778   2.367  13.872
22387SOL    HW269001  10.865   2.365  13.996
22388SOL     OW69002   2.553  12.326   8.936
22388SOL    HW169003   2.458  12.337   8.941
22388SOL    HW269004   2.587  12.416   8.931
22389SOL     OW69005   0.790   3.298  14.878
22389SOL    HW169006   0.821   3.388  14.865
22389SOL    HW269007   0.860   3.255   0.047
22390SOL     OW69008   7.955   3.631  13.438
22390SOL    HW169009   8.019   3.597  13.500
22390SOL    HW269010   7.987   3.602  13.352
22391SOL     OW69011   3.591   2.633   8.478
22391SOL    HW169012   3.615   2.691   8.551
22391SOL    HW269013   3.658   2.564   8.480
22392SOL     OW69014  11.850   5.614   8.259
22392SOL    HW169015  11.834   5.563   8.180
22392SOL    HW269016  11.945   5.622   8.264
22393SOL     OW69017   2.336  10.043   0.266
22393SOL    HW169018   2.293  10.058   0.182
22393SOL    HW269019   2.417  10.094   0.261
22394SOL     OW69020   8.538   8.246   8.490
22394SOL    HW169021   8.533   8.257   8.585
22394SOL    HW269022   8.626   8.276   8.467
22395SOL     OW69023   2.677   4.462   7.771
22395SOL    HW169024   2.643   4.382   7.732
22395SOL    HW269025   2.754   4.433   7.821
22396SOL     OW69026  11.517   7.733   0.564
22396SOL    HW169027  11.598   7.726   0.615
22396SOL    HW269028  11.466   7.655   0.590
22397SOL     OW69029  14.844   5.837   6.378
22397SOL    HW169030  14.832   5.762   6.319
22397SOL    HW269031  14.851   5.913   6.320
22398SOL     OW69032   0.539   9.330   8.919
22398SOL    HW169033   0.559   9.245   8.957
22398SOL    HW269034   0.623   9.366   8.892
22399SOL     OW69035   8.307   4.043  13.994
22399SOL    HW169036   8.249   4.022  14.067
22399SOL    HW269037   8.335   4.133  14.011
22400SOL     OW69038  14.428   2.185   6.741
22400SOL    HW169039  14.407   2.233   6.822
22400SOL    HW269040  14.490   2.242   6.695
22401SOL     OW69041   2.027   2.197   0.212
22401SOL    HW169042   2.075   2.153   0.142
22401SOL    HW269043   1.955   2.241   0.167
22402SOL     OW69044   4.571  14.663   7.554
22402SOL    HW169045   4.481  14.630   7.551
22402SOL    HW269046   4.561  14.758   7.562
22403SOL     OW69047  11.416  10.039   4.223
22403SOL    HW169048  11.324  10.033   4.251
22403SOL    HW269049  11.458   9.964   4.267
22404SOL     OW69050   4.781  12.573   9.910
22404SOL    HW169051   4.765  12.498   9.853
22404SOL    HW269052   4.817  12.640   9.853
22405SOL     OW69053   1.208  13.121   9.727
22405SOL    HW169054   1.179  13.031   9.715
22405SOL    HW269055   1.262  13.119   9.806
22406SOL     OW69056  12.192  12.059   0.641
22406SOL    HW169057  12.170  11.995   0.574
22406SOL    HW269058  12.109  12.099   0.665
22407SOL     OW69059   8.546  12.214   9.737
22407SOL    HW169060   8.482  12.206   9.807
22407SOL    HW269061   8.561  12.124   9.707
22408SOL     OW69062   5.291   3.697  14.002
22408SOL    HW169063   5.322   3.619  13.955
22408SOL    HW269064   5.335   3.770  13.958
22409SOL     OW69065   3.865   8.682   8.746
22409SOL    HW169066   3.863   8.660   8.653
22409SOL    HW269067   3.831   8.771   8.751
22410SOL     OW69068  10.135  10.480   6.779
22410SOL    HW169069  10.061  10.509   6.832
22410SOL    HW269070  10.211  10.520   6.820
22411SOL     OW69071   4.108   6.334  10.858
22411SOL    HW169072   4.129   6.373  10.943
22411SOL    HW269073   4.188   6.289  10.831
22412SOL     OW69074  14.787   9.985   7.655
22412SOL    HW169075  14.752  10.072   7.674
22412SOL    HW269076  14.844   9.966   7.729
22413SOL     OW69077  13.805   2.087   2.048
22413SOL    HW169078  13.839   2.172   2.076
22413SOL    HW269079  13.759   2.053   2.125
22414SOL     OW69080  12.300  10.066   0.009
22414SOL    HW169081  12.323  10.004  14.819
22414SOL    HW269082  12.284  10.012   0.086
22415SOL     OW69083   9.311  14.426   1.866
22415SOL    HW169084   9.242  14.492   1.853
22415SOL    HW269085   9.265  14.342   1.858
22416SOL     OW69086  12.191  11.639   7.475
22416SOL    HW169087  12.245  11.561   7.487
22416SOL    HW269088  12.176  11.644   7.381
22417SOL     OW69089   5.111  11.710   6.228
22417SOL    HW169090   5.127  11.694   6.321
22417SOL    HW269091   5.102  11.623   6.190
22418SOL     OW69092  13.609   2.509  12.909
22418SOL    HW169093  13.633   2.495  12.818
22418SOL    HW269094  13.587   2.422  12.942
22419SOL     OW69095   5.682  10.143  13.352
22419SOL    HW169096   5.639  10.181  13.428
22419SOL    HW269097   5.698  10.217  13.294
22420SOL     OW69098   3.021  14.242  11.507
22420SOL    HW169099   2.995  14.280  11.591
22420SOL    HW269100   3.034  14.318  11.449
22421SOL     OW69101   2.199   6.650   2.290
22421SOL    HW169102   2.142   6.659   2.214
22421SOL    HW269103   2.203   6.556   2.306
22422SOL     OW69104  11.882   3.172   1.527
22422SOL    HW169105  11.869   3.139   1.615
22422SOL    HW269106  11.809   3.137   1.476
22423SOL     OW69107  11.007   8.952   8.909
22423SOL    HW169108  11.052   8.894   8.970
22423SOL    HW269109  10.944   9.000   8.963
22424SOL     OW69110  13.027   9.873   1.156
22424SOL    HW169111  13.077   9.955   1.150
22424SOL    HW269112  12.982   9.880   1.240
22425SOL     OW69113  14.154   4.799   3.337
22425SOL    HW169114  14.100   4.753   3.272
22425SOL    HW269115  14.143   4.892   3.314
22426SOL     OW69116   8.044   2.051   1.721
22426SOL    HW169117   8.035   2.135   1.677
22426SOL    HW269118   7.965   2.044   1.776
22427SOL     OW69119   4.073  14.172  13.179
22427SOL    HW169120   4.086  14.234  13.251
22427SOL    HW269121   3.986  14.193  13.145
22428SOL     OW69122   3.054   7.404   5.441
22428SOL    HW169123   3.045   7.310   5.450
22428SOL    HW269124   3.138   7.416   5.394
22429SOL     OW69125   0.481   7.564   0.889
22429SOL    HW169126   0.413   7.558   0.823
22429SOL    HW269127   0.501   7.657   0.895
22430SOL     OW69128  11.539  10.859  13.060
22430SOL    HW169129  11.467  10.909  13.022
22430SOL    HW269130  11.611  10.922  13.066
22431SOL     OW69131  14.809   3.144   2.437
22431SOL    HW169132  14.745   3.174   2.373
22431SOL    HW269133   0.002   3.206   2.428
22432SOL     OW69134   7.037   8.322   4.705
22432SOL    HW169135   6.990   8.382   4.647
22432SOL    HW269136   6.970   8.260   4.736
22433SOL     OW69137   6.047   9.211   2.387
22433SOL    HW169138   6.064   9.305   2.382
22433SOL    HW269139   6.125   9.174   2.428
22434SOL     OW69140   0.760   8.016   4.505
22434SOL    HW169141   0.785   8.057   4.587
22434SOL    HW269142   0.671   8.048   4.489
22435SOL     OW69143   6.832   6.370  14.206
22435SOL    HW169144   6.910   6.423  14.224
22435SOL    HW269145   6.854   6.322  14.126
22436SOL     OW69146   8.598   9.304  11.840
22436SOL    HW169147   8.542   9.362  11.787
22436SOL    HW269148   8.684   9.344  11.836
22437SOL     OW69149   1.930   5.020   7.146
22437SOL    HW169150   1.943   5.106   7.186
22437SOL    HW269151   2.012   5.003   7.099
22438SOL     OW69152   8.490  10.977  13.868
22438SOL    HW169153   8.409  11.028  13.858
22438SOL    HW269154   8.488  10.916  13.794
22439SOL     OW69155   8.689  11.064   3.627
22439SOL    HW169156   8.739  10.984   3.609
22439SOL    HW269157   8.756  11.129   3.650
22440SOL     OW69158   9.859  13.078  10.262
22440SOL    HW169159   9.851  13.021  10.338
22440SOL    HW269160   9.952  13.078  10.241
22441SOL     OW69161   6.395  12.340  14.117
22441SOL    HW169162   6.483  12.313  14.143
22441SOL    HW269163   6.388  12.432  14.144
22442SOL     OW69164  11.070  13.725  14.762
22442SOL    HW169165  11.009  13.711  14.690
22442SOL    HW269166  11.023  13.694  14.839
22443SOL     OW69167   7.562   0.570   6.660
22443SOL    HW169168   7.473   0.552   6.629
22443SOL    HW269169   7.550   0.609   6.747
22444SOL     OW69170   7.516  11.311  14.514
22444SOL    HW169171   7.476  11.224  14.506
22444SOL    HW269172   7.480  11.361  14.442
22445SOL     OW69173  14.061   6.237   7.698
22445SOL    HW169174  14.034   6.325   7.670
22445SOL    HW269175  14.018   6.224   7.782
22446SOL     OW69176   0.893  14.292   2.899
22446SOL    HW169177   0.988  14.283   2.886
22446SOL    HW269178   0.854  14.247   2.823
22447SOL     OW69179   7.141   9.229   1.519
22447SOL    HW169180   7.226   9.186   1.509
22447SOL    HW269181   7.141   9.261   1.609
22448SOL     OW69182   0.034   5.317  14.320
22448SOL    HW169183  14.865   5.399  14.328
22448SOL    HW269184   0.056   5.293  14.410
22449SOL     OW69185   1.356  11.964   2.946
22449SOL    HW169186   1.298  12.040   2.937
22449SOL    HW269187   1.419  11.973   2.875
22450SOL     OW69188  12.127   2.122   3.965
22450SOL    HW169189  12.218   2.147   3.981
22450SOL    HW269190  12.133   2.051   3.901
22451SOL     OW69191  12.039  10.756   2.432
22451SOL    HW169192  12.097  10.726   2.501
22451SOL    HW269193  11.951  10.748   2.469
22452SOL     OW69194  13.495  14.377   5.699
22452SOL    HW169195  13.537  14.429   5.767
22452SOL    HW269196  13.566  14.355   5.639
22453SOL     OW69197   5.009  10.842   3.190
22453SOL    HW169198   5.023  10.841   3.096
22453SOL    HW269199   5.058  10.918   3.221
22454SOL     OW69200   4.328  13.859   4.741
22454SOL    HW169201   4.410  13.853   4.691
22454SOL    HW269202   4.348  13.818   4.825
22455SOL     OW69203   8.816  10.791  13.493
22455SOL    HW169204   8.727  10.772  13.462
22455SOL    HW269205   8.828  10.732  13.567
22456SOL     OW69206   8.475   1.764   3.954
22456SOL    HW169207   8.449   1.828   3.887
22456SOL    HW269208   8.453   1.680   3.915
22457SOL     OW69209   2.244   3.589   0.099
22457SOL    HW169210   2.195   3.589   0.016
22457SOL    HW269211   2.207   3.515   0.148
22458SOL     OW69212   2.792   4.893  10.590
22458SOL    HW169213   2.816   4.805  10.620
22458SOL    HW269214   2.864   4.919  10.533
22459SOL     OW69215   3.411   4.714   3.672
22459SOL    HW169216   3.361   4.707   3.591
22459SOL    HW269217   3.502   4.722   3.644
22460SOL     OW69218   3.395   9.829   3.177
22460SOL    HW169219   3.466   9.856   3.118
22460SOL    HW269220   3.340   9.772   3.123
22461SOL     OW69221  11.695   9.781  13.613
22461SOL    HW169222  11.777   9.764  13.566
22461SOL    HW269223  11.661   9.861  13.574
22462SOL     OW69224  14.322  10.823  14.850
22462SOL    HW169225  14.336  10.844  14.758
22462SOL    HW269226  14.313  10.728  14.852
22463SOL     OW69227   7.386   0.393  10.876
22463SOL    HW169228   7.300   0.411  10.914
22463SOL    HW269229   7.438   0.470  10.897
22464SOL     OW69230  11.254   0.443   6.727
22464SOL    HW169231  11.318   0.512   6.709
22464SOL    HW269232  11.269   0.377   6.660
22465SOL     OW69233   4.557   9.187   1.717
22465SOL    HW169234   4.526   9.097   1.725
22465SOL    HW269235   4.649   9.183   1.742
22466SOL     OW69236   7.976  10.912  10.647
22466SOL    HW169237   7.918  10.869  10.584
22466SOL    HW269238   7.932  10.994  10.668
22467SOL     OW69239   2.446   5.062  13.481
22467SOL    HW169240   2.405   4.976  13.474
22467SOL    HW269241   2.533   5.051  13.445
22468SOL     OW69242   4.606   3.698   8.109
22468SOL    HW169243   4.583   3.791   8.106
22468SOL    HW269244   4.601   3.669   8.018
22469SOL     OW69245   2.070   8.275  13.097
22469SOL    HW169246   2.105   8.205  13.151
22469SOL    HW269247   2.030   8.231  13.022
22470SOL     OW69248  10.537  10.181   0.390
22470SOL    HW169249  10.554  10.121   0.317
22470SOL    HW269250  10.582  10.262   0.365
22471SOL     OW69251   9.159   5.182  10.774
22471SOL    HW169252   9.151   5.125  10.850
22471SOL    HW269253   9.210   5.257  10.805
22472SOL     OW69254  14.141  14.829   1.892
22472SOL    HW169255  14.113   0.036   1.860
22472SOL    HW269256  14.230  14.843   1.923
22473SOL     OW69257   3.393  12.429   3.904
22473SOL    HW169258   3.361  12.354   3.854
22473SOL    HW269259   3.410  12.497   3.838
22474SOL     OW69260   9.885   7.787   7.660
22474SOL    HW169261   9.846   7.840   7.730
22474SOL    HW269262   9.836   7.704   7.664
22475SOL     OW69263   2.644  13.619   6.612
22475SOL    HW169264   2.688  13.701   6.589
22475SOL    HW269265   2.559  13.646   6.647
22476SOL     OW69266   0.697  13.138  14.113
22476SOL    HW169267   0.708  13.221  14.066
22476SOL    HW269268   0.695  13.072  14.044
22477SOL     OW69269   5.856   6.970  12.284
22477SOL    HW169270   5.847   7.061  12.311
22477SOL    HW269271   5.862   6.921  12.367
22478SOL     OW69272  13.568   8.477   1.069
22478SOL    HW169273  13.489   8.525   1.044
22478SOL    HW269274  13.537   8.388   1.086
22479SOL     OW69275   2.064   0.177  10.269
22479SOL    HW169276   2.048   0.230  10.190
22479SOL    HW269277   1.977   0.155  10.301
22480SOL     OW69278  13.738   3.629  14.611
22480SOL    HW169279  13.833   3.628  14.624
22480SOL    HW269280  13.714   3.537  14.599
22481SOL     OW69281   3.093   2.640  12.787
22481SOL    HW169282   3.009   2.675  12.757
22481SOL    HW269283   3.124   2.703  12.851
22482SOL     OW69284   1.416  12.900  10.213
22482SOL    HW169285   1.412  12.965  10.283
22482SOL    HW269286   1.509  12.898  10.189
22483SOL     OW69287  13.996   0.446  11.271
22483SOL    HW169288  14.013   0.480  11.359
22483SOL    HW269289  13.914   0.489  11.245
22484SOL     OW69290  13.851  13.222  10.840
22484SOL    HW169291  13.809  13.306  10.858
22484SOL    HW269292  13.794  13.180  10.776
22485SOL     OW69293   1.909  14.183  13.194
22485SOL    HW169294   1.868  14.102  13.167
22485SOL    HW269295   1.973  14.156  13.260
22486SOL     OW69296   6.280  11.979  14.046
22486SOL    HW169297   6.222  12.035  14.097
22486SOL    HW269298   6.356  11.964  14.103
22487SOL     OW69299   6.988  11.328   1.508
22487SOL    HW169300   6.941  11.265   1.563
22487SOL    HW269301   7.060  11.359   1.563
22488SOL     OW69302  14.361   0.961  10.045
22488SOL    HW169303  14.352   0.868  10.024
22488SOL    HW269304  14.274   0.997  10.027
22489SOL     OW69305   0.266  14.567  11.634
22489SOL    HW169306   0.310  14.624  11.570
22489SOL    HW269307   0.285  14.607  11.718
22490SOL     OW69308   2.475  11.968   7.094
22490SOL    HW169309   2.489  11.884   7.137
22490SOL    HW269310   2.469  11.946   7.001
22491SOL     OW69311  11.924   8.066   8.011
22491SOL    HW169312  11.910   8.139   8.072
22491SOL    HW269313  11.937   8.108   7.926
22492SOL     OW69314  13.549   9.992   1.978
22492SOL    HW169315  13.464  10.034   1.990
22492SOL    HW269316  13.573  10.011   1.887
22493SOL     OW69317   8.049  12.555   9.284
22493SOL    HW169318   8.067  12.472   9.240
22493SOL    HW269319   8.133  12.603   9.281
22494SOL     OW69320   2.429   3.443  13.761
22494SOL    HW169321   2.359   3.456  13.825
22494SOL    HW269322   2.446   3.530  13.726
22495SOL     OW69323   8.758   0.824   4.167
22495SOL    HW169324   8.723   0.737   4.150
22495SOL    HW269325   8.780   0.823   4.260
22496SOL     OW69326  10.876  12.886   2.022
22496SOL    HW169327  10.794  12.854   2.061
22496SOL    HW269328  10.903  12.958   2.078
22497SOL     OW69329  14.289   1.877   9.144
22497SOL    HW169330  14.331   1.962   9.129
22497SOL    HW269331  14.238   1.861   9.064
22498SOL     OW69332   7.278   5.091  14.239
22498SOL    HW169333   7.239   5.004  14.233
22498SOL    HW269334   7.224   5.137  14.305
22499SOL     OW69335  12.896   6.829  12.325
22499SOL    HW169336  12.966   6.771  12.356
22499SOL    HW269337  12.914   6.839  12.231
22500SOL     OW69338  13.797  10.736   6.058
22500SOL    HW169339  13.854  10.723   6.133
22500SOL    HW269340  13.751  10.652   6.048
22501SOL     OW69341  13.983   4.271   3.343
22501SOL    HW169342  14.008   4.257   3.434
22501SOL    HW269343  13.924   4.346   3.345
22502SOL     OW69344   8.853   8.720   1.317
22502SOL    HW169345   8.867   8.700   1.225
22502SOL    HW269346   8.913   8.662   1.364
22503SOL     OW69347   9.236   1.606   6.063
22503SOL    HW169348   9.145   1.630   6.048
22503SOL    HW269349   9.265   1.662   6.135
22504SOL     OW69350   5.058  14.552   5.635
22504SOL    HW169351   4.976  14.517   5.669
22504SOL    HW269352   5.038  14.580   5.546
22505SOL     OW69353  11.338   1.083  14.626
22505SOL    HW169354  11.289   1.087  14.708
22505SOL    HW269355  11.336   0.991  14.601
22506SOL     OW69356   5.282   7.528   9.593
22506SOL    HW169357   5.255   7.564   9.677
22506SOL    HW269358   5.215   7.463   9.571
22507SOL     OW69359  14.588   8.335   5.138
22507SOL    HW169360  14.570   8.429   5.128
22507SOL    HW269361  14.616   8.327   5.230
22508SOL     OW69362  13.167   5.283   8.061
22508SOL    HW169363  13.074   5.269   8.039
22508SOL    HW269364  13.167   5.356   8.122
22509SOL     OW69365   2.398  14.618  14.487
22509SOL    HW169366   2.490  14.646  14.483
22509SOL    HW269367   2.352  14.694  14.523
22510SOL     OW69368  14.682  13.137   0.971
22510SOL    HW169369  14.674  13.210   1.032
22510SOL    HW269370  14.719  13.176   0.891
22511SOL     OW69371  10.508  11.511   3.061
22511SOL    HW169372  10.557  11.559   3.128
22511SOL    HW269373  10.416  11.520   3.087
22512SOL     OW69374   9.468   3.745  13.979
22512SOL    HW169375   9.526   3.759  14.054
22512SOL    HW269376   9.389   3.795  14.001
22513SOL     OW69377  13.640   2.957   9.180
22513SOL    HW169378  13.580   2.939   9.108
22513SOL    HW269379  13.583   2.981   9.253
22514SOL     OW69380   4.967   4.276  13.430
22514SOL    HW169381   4.893   4.309  13.480
22514SOL    HW269382   4.957   4.316  13.343
22515SOL     OW69383   2.752   3.110  13.011
22515SOL    HW169384   2.667   3.153  13.016
22515SOL    HW269385   2.784   3.109  13.102
22516SOL     OW69386  10.055   4.098   6.579
22516SOL    HW169387   9.972   4.143   6.560
22516SOL    HW269388  10.031   4.006   6.588
22517SOL     OW69389   7.299   3.114   9.607
22517SOL    HW169390   7.387   3.145   9.626
22517SOL    HW269391   7.254   3.190   9.569
22518SOL     OW69392  12.287   5.688   2.336
22518SOL    HW169393  12.335   5.605   2.338
22518SOL    HW269394  12.334   5.742   2.273
22519SOL     OW69395  12.101   7.268   5.341
22519SOL    HW169396  12.187   7.292   5.377
22519SOL    HW269397  12.040   7.280   5.414
22520SOL     OW69398  10.647  12.519   9.152
22520SOL    HW169399  10.598  12.471   9.219
22520SOL    HW269400  10.648  12.461   9.076
22521SOL     OW69401  13.214   7.124  10.339
22521SOL    HW169402  13.163   7.205  10.341
22521SOL    HW269403  13.305   7.153  10.332
22522SOL     OW69404   7.146  11.112   6.403
22522SOL    HW169405   7.169  11.021   6.420
22522SOL    HW269406   7.184  11.131   6.317
22523SOL     OW69407  13.756  12.863  10.212
22523SOL    HW169408  13.763  12.894  10.302
22523SOL    HW269409  13.721  12.774  10.220
22524SOL     OW69410   0.329   6.123  13.969
22524SOL    HW169411   0.420   6.145  13.986
22524SOL    HW269412   0.331   6.073  13.887
22525SOL     OW69413   2.187   9.475   0.150
22525SOL    HW169414   2.108   9.526   0.168
22525SOL    HW269415   2.200   9.422   0.228
22526SOL     OW69416  13.962   4.930  11.858
22526SOL    HW169417  14.000   4.845  11.879
22526SOL    HW269418  13.968   4.936  11.763
22527SOL     OW69419  12.706   3.364  11.298
22527SOL    HW169420  12.729   3.392  11.209
22527SOL    HW269421  12.764   3.415  11.355
22528SOL     OW69422   1.073   2.801  10.920
22528SOL    HW169423   1.029   2.836  10.842
22528SOL    HW269424   1.116   2.878  10.959
22529SOL     OW69425   2.285   1.743   4.385
22529SOL    HW169426   2.359   1.687   4.362
22529SOL    HW269427   2.225   1.685   4.433
22530SOL     OW69428   1.536   9.968   7.509
22530SOL    HW169429   1.578  10.049   7.539
22530SOL    HW269430   1.607   9.905   7.503
22531SOL     OW69431   3.461   5.132   9.074
22531SOL    HW169432   3.442   5.179   9.155
22531SOL    HW269433   3.492   5.200   9.014
22532SOL     OW69434   1.749   9.522   8.106
22532SOL    HW169435   1.808   9.455   8.073
22532SOL    HW269436   1.790   9.605   8.081
22533SOL     OW69437   5.005   2.796   3.755
22533SOL    HW169438   5.005   2.730   3.686
22533SOL    HW269439   4.948   2.760   3.823
22534SOL     OW69440   7.904   8.255   3.911
22534SOL    HW169441   7.957   8.296   3.843
22534SOL    HW269442   7.822   8.303   3.910
22535SOL     OW69443  14.218   3.360  10.310
22535SOL    HW169444  14.288   3.310  10.352
22535SOL    HW269445  14.145   3.297  10.303
22536SOL     OW69446  12.876  14.199   3.584
22536SOL    HW169447  12.807  14.265   3.594
22536SOL    HW269448  12.950  14.248   3.547
22537SOL     OW69449  14.218   4.535   7.707
22537SOL    HW169450  14.264   4.466   7.754
22537SOL    HW269451  14.260   4.538   7.621
22538SOL     OW69452   8.387  10.979   7.585
22538SOL    HW169453   8.361  10.888   7.598
22538SOL    HW269454   8.330  11.029   7.644
22539SOL     OW69455  10.153  11.397   8.693
22539SOL    HW169456  10.152  11.474   8.636
22539SOL    HW269457  10.246  11.377   8.704
22540SOL     OW69458   1.431  11.693   0.513
22540SOL    HW169459   1.393  11.770   0.472
22540SOL    HW269460   1.419  11.623   0.449
22541SOL     OW69461   5.381  10.691   8.740
22541SOL    HW169462   5.404  10.765   8.684
22541SOL    HW269463   5.294  10.664   8.710
22542SOL     OW69464   0.063  10.699   5.206
22542SOL    HW169465  14.849  10.711   5.223
22542SOL    HW269466   0.104  10.707   5.292
22543SOL     OW69467   3.447   9.305   6.514
22543SOL    HW169468   3.401   9.370   6.568
22543SOL    HW269469   3.380   9.272   6.454
22544SOL     OW69470   4.141  12.813   7.539
22544SOL    HW169471   4.163  12.903   7.519
22544SOL    HW269472   4.217  12.779   7.587
22545SOL     OW69473   9.673   7.734   4.823
22545SOL    HW169474   9.751   7.691   4.858
22545SOL    HW269475   9.614   7.742   4.898
22546SOL     OW69476  12.662  12.865  14.366
22546SOL    HW169477  12.663  12.783  14.415
22546SOL    HW269478  12.680  12.838  14.276
22547SOL     OW69479   0.909  11.340   9.295
22547SOL    HW169480   0.995  11.354   9.336
22547SOL    HW269481   0.875  11.429   9.281
22548SOL     OW69482   4.296   7.949   5.448
22548SOL    HW169483   4.226   7.998   5.404
22548SOL    HW269484   4.302   7.867   5.399
22549SOL     OW69485   4.765   2.323   7.853
22549SOL    HW169486   4.841   2.303   7.798
22549SOL    HW269487   4.704   2.250   7.838
22550SOL     OW69488   4.310  10.863   3.922
22550SOL    HW169489   4.239  10.829   3.977
22550SOL    HW269490   4.389  10.849   3.974
22551SOL     OW69491   4.070   6.687   0.572
22551SOL    HW169492   4.085   6.741   0.494
22551SOL    HW269493   4.019   6.612   0.539
22552SOL     OW69494   8.462   7.408  12.053
22552SOL    HW169495   8.544   7.381  12.012
22552SOL    HW269496   8.399   7.412  11.982
22553SOL     OW69497   8.972   1.371   8.268
22553SOL    HW169498   9.003   1.292   8.224
22553SOL    HW269499   8.884   1.348   8.299
22554SOL     OW69500  10.723  11.313   0.195
22554SOL    HW169501  10.691  11.277   0.278
22554SOL    HW269502  10.791  11.375   0.221
22555SOL     OW69503  12.533   6.732  10.711
22555SOL    HW169504  12.601   6.774  10.764
22555SOL    HW269505  12.531   6.641  10.741
22556SOL     OW69506   1.217   9.589   8.108
22556SOL    HW169507   1.279   9.551   8.046
22556SOL    HW269508   1.202   9.678   8.075
22557SOL     OW69509   2.973  13.931   7.787
22557SOL    HW169510   2.966  13.842   7.752
22557SOL    HW269511   3.067  13.945   7.796
22558SOL     OW69512  14.380   0.182  10.841
22558SOL    HW169513  14.438   0.257  10.856
22558SOL    HW269514  14.409   0.116  10.904
22559SOL     OW69515   1.727   0.767   4.657
22559SOL    HW169516   1.665   0.798   4.723
22559SOL    HW269517   1.679   0.772   4.575
22560SOL     OW69518   1.662  14.565   3.945
22560SOL    HW169519   1.700  14.607   4.022
22560SOL    HW269520   1.737  14.523   3.902
22561SOL     OW69521  12.789  11.223  11.125
22561SOL    HW169522  12.708  11.251  11.082
22561SOL    HW269523  12.851  11.209  11.053
22562SOL     OW69524   5.383   8.811   8.525
22562SOL    HW169525   5.462   8.825   8.473
22562SOL    HW269526   5.330   8.752   8.473
22563SOL     OW69527  12.914   6.811   8.095
22563SOL    HW169528  12.874   6.898   8.085
22563SOL    HW269529  12.938   6.806   8.188
22564SOL     OW69530   1.454  13.817  10.426
22564SOL    HW169531   1.428  13.739  10.377
22564SOL    HW269532   1.408  13.889  10.382
22565SOL     OW69533   2.234  10.109   7.515
22565SOL    HW169534   2.216  10.015   7.527
22565SOL    HW269535   2.178  10.152   7.579
22566SOL     OW69536  13.187   8.918   6.714
22566SOL    HW169537  13.215   8.826   6.719
22566SOL    HW269538  13.194   8.949   6.804
22567SOL     OW69539   1.757  11.563   1.655
22567SOL    HW169540   1.667  11.537   1.676
22567SOL    HW269541   1.760  11.656   1.675
22568SOL     OW69542   4.146   0.842   6.748
22568SOL    HW169543   4.144   0.918   6.806
22568SOL    HW269544   4.104   0.873   6.667
22569SOL     OW69545  10.325   7.103  12.435
22569SOL    HW169546  10.410   7.065  12.458
22569SOL    HW269547  10.288   7.042  12.372
22570SOL     OW69548   7.345  11.438  14.355
22570SOL    HW169549   7.269  11.394  14.392
22570SOL    HW269550   7.319  11.529  14.346
22571SOL     OW69551   7.769   9.801  10.335
22571SOL    HW169552   7.681   9.835  10.353
22571SOL    HW269553   7.818   9.819  10.415
22572SOL     OW69554  10.905   8.742   8.726
22572SOL    HW169555  10.922   8.830   8.761
22572SOL    HW269556  10.926   8.683   8.798
22573SOL     OW69557   8.496   4.361  11.045
22573SOL    HW169558   8.487   4.456  11.037
22573SOL    HW269559   8.579   4.349  11.090
22574SOL     OW69560   9.982  11.022   5.525
22574SOL    HW169561   9.950  11.113   5.521
22574SOL    HW269562   9.936  10.978   5.454
22575SOL     OW69563  12.414  13.970   9.435
22575SOL    HW169564  12.483  14.010   9.488
22575SOL    HW269565  12.337  13.972   9.492
22576SOL     OW69566   9.229   0.528   1.269
22576SOL    HW169567   9.287   0.597   1.302
22576SOL    HW269568   9.266   0.447   1.303
22577SOL     OW69569   9.042  11.146   4.412
22577SOL    HW169570   9.092  11.065   4.404
22577SOL    HW269571   8.965  11.122   4.464
22578SOL     OW69572   5.411   8.996   0.526
22578SOL    HW169573   5.441   8.920   0.576
22578SOL    HW269574   5.468   8.998   0.449
22579SOL     OW69575   3.439   2.411   3.624
22579SOL    HW169576   3.427   2.415   3.529
22579SOL    HW269577   3.458   2.501   3.649
22580SOL     OW69578   3.492   3.187   6.623
22580SOL    HW169579   3.493   3.181   6.718
22580SOL    HW269580   3.582   3.165   6.596
22581SOL     OW69581   2.896  13.434   5.274
22581SOL    HW169582   2.912  13.375   5.200
22581SOL    HW269583   2.979  13.435   5.323
22582SOL     OW69584  11.444   1.495   1.332
22582SOL    HW169585  11.538   1.509   1.344
22582SOL    HW269586  11.420   1.431   1.399
22583SOL     OW69587  13.784   8.492  10.232
22583SOL    HW169588  13.854   8.546  10.196
22583SOL    HW269589  13.787   8.508  10.327
22584SOL     OW69590  13.755  14.821  14.050
22584SOL    HW169591  13.776  14.785  13.964
22584SOL    HW269592  13.763   0.036  14.040
22585SOL     OW69593   5.191   3.423   1.730
22585SOL    HW169594   5.244   3.360   1.682
22585SOL    HW269595   5.254   3.490   1.758
22586SOL     OW69596   8.651   3.284   4.012
22586SOL    HW169597   8.570   3.329   3.987
22586SOL    HW269598   8.627   3.237   4.092
22587SOL     OW69599   2.823  11.564   2.813
22587SOL    HW169600   2.808  11.617   2.735
22587SOL    HW269601   2.763  11.490   2.804
22588SOL     OW69602   4.350   3.429  13.020
22588SOL    HW169603   4.382   3.475  13.097
22588SOL    HW269604   4.260   3.405  13.042
22589SOL     OW69605   3.119   4.322   1.809
22589SOL    HW169606   3.058   4.314   1.881
22589SOL    HW269607   3.124   4.416   1.792
22590SOL     OW69608  14.155  10.467   5.995
22590SOL    HW169609  14.126  10.535   5.934
22590SOL    HW269610  14.247  10.488   6.012
22591SOL     OW69611  13.786   2.870  11.376
22591SOL    HW169612  13.860   2.814  11.352
22591SOL    HW269613  13.708   2.818  11.354
22592SOL     OW69614   6.290   0.516  12.260
22592SOL    HW169615   6.292   0.421  12.271
22592SOL    HW269616   6.280   0.550  12.349
22593SOL     OW69617   7.073   5.616   4.681
22593SOL    HW169618   7.009   5.579   4.741
22593SOL    HW269619   7.137   5.658   4.737
22594SOL     OW69620   0.733   1.575   2.161
22594SOL    HW169621   0.646   1.613   2.147
22594SOL    HW269622   0.755   1.534   2.078
22595SOL     OW69623   1.036   7.825  12.343
22595SOL    HW169624   1.083   7.902  12.374
22595SOL    HW269625   1.079   7.802  12.261
22596SOL     OW69626   8.391   8.120   9.495
22596SOL    HW169627   8.415   8.211   9.481
22596SOL    HW269628   8.425   8.074   9.418
22597SOL     OW69629   9.236  14.838   3.900
22597SOL    HW169630   9.249  14.840   3.805
22597SOL    HW269631   9.261  14.750   3.926
22598SOL     OW69632   9.972   2.073   4.942
22598SOL    HW169633  10.026   2.139   4.985
22598SOL    HW269634  10.015   1.990   4.962
22599SOL     OW69635   6.911   6.945  10.084
22599SOL    HW169636   6.846   6.876  10.069
22599SOL    HW269637   6.896   7.008  10.014
22600SOL     OW69638  12.125   7.412  14.144
22600SOL    HW169639  12.117   7.320  14.171
22600SOL    HW269640  12.050   7.427  14.087
22601SOL     OW69641   2.340   6.427   8.892
22601SOL    HW169642   2.246   6.426   8.905
22601SOL    HW269643   2.352   6.399   8.801
22602SOL     OW69644   6.491   5.580   6.030
22602SOL    HW169645   6.564   5.611   5.978
22602SOL    HW269646   6.530   5.525   6.098
22603SOL     OW69647   4.516   9.332   7.106
22603SOL    HW169648   4.468   9.276   7.168
22603SOL    HW269649   4.534   9.412   7.154
22604SOL     OW69650   2.426   6.904  10.768
22604SOL    HW169651   2.354   6.863  10.721
22604SOL    HW269652   2.475   6.830  10.805
22605SOL     OW69653  12.072  10.463   6.066
22605SOL    HW169654  12.040  10.373   6.060
22605SOL    HW269655  12.015  10.512   6.006
22606SOL     OW69656   4.758   2.794   7.255
22606SOL    HW169657   4.851   2.800   7.278
22606SOL    HW269658   4.717   2.749   7.329
22607SOL     OW69659  11.811   7.123   7.391
22607SOL    HW169660  11.784   7.188   7.456
22607SOL    HW269661  11.737   7.062   7.386
22608SOL     OW69662   3.353   7.233   5.034
22608SOL    HW169663   3.265   7.206   5.008
22608SOL    HW269664   3.389   7.156   5.078
22609SOL     OW69665   9.315  12.231   0.649
22609SOL    HW169666   9.225  12.237   0.616
22609SOL    HW269667   9.325  12.307   0.706
22610SOL     OW69668   8.493   4.795   3.122
22610SOL    HW169669   8.511   4.707   3.090
22610SOL    HW269670   8.560   4.850   3.081
22611SOL     OW69671   2.320   0.871   6.214
22611SOL    HW169672   2.396   0.921   6.183
22611SOL    HW269673   2.248   0.935   6.213
22612SOL     OW69674   8.778   1.951   9.143
22612SOL    HW169675   8.824   2.001   9.076
22612SOL    HW269676   8.731   2.017   9.194
22613SOL     OW69677  13.148   3.200   7.419
22613SOL    HW169678  13.237   3.180   7.450
22613SOL    HW269679  13.097   3.122   7.441
22614SOL     OW69680   5.271   0.432   1.502
22614SOL    HW169681   5.332   0.505   1.509
22614SOL    HW269682   5.275   0.389   1.587
22615SOL     OW69683   1.769   1.701   6.336
22615SOL    HW169684   1.745   1.608   6.339
22615SOL    HW269685   1.832   1.711   6.408
22616SOL     OW69686   0.812   0.532   3.423
22616SOL    HW169687   0.724   0.524   3.385
22616SOL    HW269688   0.867   0.561   3.350
22617SOL     OW69689   1.643  13.760  11.815
22617SOL    HW169690   1.731  13.730  11.793
22617SOL    HW269691   1.634  13.741  11.908
22618SOL     OW69692   3.635   7.636   9.551
22618SOL    HW169693   3.640   7.626   9.455
22618SOL    HW269694   3.697   7.571   9.584
22619SOL     OW69695   6.863   8.335   1.672
22619SOL    HW169696   6.814   8.414   1.695
22619SOL    HW269697   6.803   8.263   1.693
22620SOL     OW69698  14.772  12.969  11.511
22620SOL    HW169699  14.714  12.954  11.586
22620SOL    HW269700  14.828  13.042  11.539
22621SOL     OW69701   9.447   4.794   3.805
22621SOL    HW169702   9.439   4.878   3.850
22621SOL    HW269703   9.450   4.730   3.876
22622SOL     OW69704  14.289   1.681   2.357
22622SOL    HW169705  14.360   1.740   2.333
22622SOL    HW269706  14.331   1.615   2.412
22623SOL     OW69707   4.283  13.474  10.383
22623SOL    HW169708   4.279  13.555  10.434
22623SOL    HW269709   4.201  13.428  10.405
22624SOL     OW69710   2.473   4.961  12.945
22624SOL    HW169711   2.522   5.008  12.878
22624SOL    HW269712   2.489   5.010  13.026
22625SOL     OW69713   6.985   1.037   3.117
22625SOL    HW169714   6.895   1.037   3.150
22625SOL    HW269715   7.029   0.969   3.169
22626SOL     OW69716   5.575   7.565   8.679
22626SOL    HW169717   5.584   7.534   8.589
22626SOL    HW269718   5.633   7.508   8.730
22627SOL     OW69719   8.372   1.205   8.477
22627SOL    HW169720   8.415   1.122   8.495
22627SOL    HW269721   8.297   1.181   8.422
22628SOL     OW69722   6.023   9.090  11.434
22628SOL    HW169723   6.058   9.079  11.345
22628SOL    HW269724   5.977   9.174  11.431
22629SOL     OW69725   0.132  13.497   7.508
22629SOL    HW169726   0.186  13.418   7.513
22629SOL    HW269727   0.194  13.568   7.495
22630SOL     OW69728   0.807   5.610  14.240
22630SOL    HW169729   0.851   5.545  14.185
22630SOL    HW269730   0.714   5.589  14.234
22631SOL     OW69731   2.849   4.544  10.092
22631SOL    HW169732   2.759   4.517  10.080
22631SOL    HW269733   2.885   4.549  10.004
22632SOL     OW69734  11.330  12.220  11.099
22632SOL    HW169735  11.395  12.283  11.068
22632SOL    HW269736  11.315  12.161  11.025
22633SOL     OW69737  12.196  12.297  11.317
22633SOL    HW169738  12.290  12.313  11.302
22633SOL    HW269739  12.185  12.204  11.301
22634SOL     OW69740   5.197   6.986  10.977
22634SOL    HW169741   5.286   7.016  10.955
22634SOL    HW269742   5.199   6.973  11.072
22635SOL     OW69743   4.610   8.227  10.355
22635SOL    HW169744   4.665   8.167  10.306
22635SOL    HW269745   4.568   8.282  10.289
22636SOL     OW69746   9.185   9.243   0.635
22636SOL    HW169747   9.236   9.192   0.571
22636SOL    HW269748   9.217   9.212   0.720
22637SOL     OW69749  13.829   4.015  14.155
22637SOL    HW169750  13.770   4.004  14.081
22637SOL    HW269751  13.900   4.070  14.121
22638SOL     OW69752   3.432  11.269  10.042
22638SOL    HW169753   3.497  11.240  10.106
22638SOL    HW269754   3.461  11.357  10.017
22639SOL     OW69755  12.969   3.674  14.090
22639SOL    HW169756  12.934   3.597  14.046
22639SOL    HW269757  12.928   3.673  14.177
22640SOL     OW69758  14.412   4.092   1.057
22640SOL    HW169759  14.461   4.168   1.025
22640SOL    HW269760  14.321   4.112   1.034
22641SOL     OW69761   7.242  13.282  13.295
22641SOL    HW169762   7.311  13.309  13.234
22641SOL    HW269763   7.229  13.359  13.352
22642SOL     OW69764   4.389  14.312  12.762
22642SOL    HW169765   4.481  14.325  12.783
22642SOL    HW269766   4.364  14.391  12.715
22643SOL     OW69767  12.262   5.090   8.951
22643SOL    HW169768  12.172   5.111   8.928
22643SOL    HW269769  12.264   5.096   9.047
22644SOL     OW69770   2.260  14.600  13.494
22644SOL    HW169771   2.312  14.591  13.574
22644SOL    HW269772   2.209  14.519  13.489
22645SOL     OW69773  10.083   3.244  12.458
22645SOL    HW169774  10.104   3.188  12.533
22645SOL    HW269775   9.995   3.217  12.433
22646SOL     OW69776  14.487  13.061   7.500
22646SOL    HW169777  14.480  13.088   7.592
22646SOL    HW269778  14.562  13.001   7.499
22647SOL     OW69779   2.530  11.754   1.438
22647SOL    HW169780   2.493  11.833   1.478
22647SOL    HW269781   2.463  11.725   1.376
22648SOL     OW69782   3.815  13.265  13.141
22648SOL    HW169783   3.739  13.319  13.162
22648SOL    HW269784   3.832  13.214  13.220
22649SOL     OW69785   6.389   0.110  12.738
22649SOL    HW169786   6.298   0.135  12.758
22649SOL    HW269787   6.430   0.192  12.710
22650SOL     OW69788   3.248  12.245   6.150
22650SOL    HW169789   3.173  12.265   6.205
22650SOL    HW269790   3.323  12.245   6.209
22651SOL     OW69791   4.032   7.754   9.155
22651SOL    HW169792   4.112   7.736   9.203
22651SOL    HW269793   4.033   7.849   9.141
22652SOL     OW69794   0.550  13.962  12.960
22652SOL    HW169795   0.512  13.926  12.880
22652SOL    HW269796   0.608  13.893  12.992
22653SOL     OW69797  10.660  14.862   9.326
22653SOL    HW169798  10.623  14.813   9.400
22653SOL    HW269799  10.622   0.070   9.334
22654SOL     OW69800   9.236   9.586  14.496
22654SOL    HW169801   9.307   9.604  14.435
22654SOL    HW269802   9.231   9.490  14.498
22655SOL     OW69803   3.462   3.903   0.501
22655SOL    HW169804   3.473   3.976   0.440
22655SOL    HW269805   3.551   3.871   0.516
22656SOL     OW69806   8.840  13.319   5.078
22656SOL    HW169807   8.923  13.289   5.116
22656SOL    HW269808   8.856  13.321   4.984
22657SOL     OW69809   1.507   7.976  13.283
22657SOL    HW169810   1.430   7.966  13.227
22657SOL    HW269811   1.540   7.887  13.296
22658SOL     OW69812  10.230  10.293   0.214
22658SOL    HW169813  10.223  10.224   0.280
22658SOL    HW269814  10.313  10.337   0.234
22659SOL     OW69815   2.952   9.723   5.289
22659SOL    HW169816   2.948   9.735   5.194
22659SOL    HW269817   3.033   9.766   5.315
22660SOL     OW69818   5.724  12.646   3.907
22660SOL    HW169819   5.772  12.693   3.975
22660SOL    HW269820   5.763  12.559   3.906
22661SOL     OW69821   1.091  12.246  14.572
22661SOL    HW169822   1.052  12.309  14.511
22661SOL    HW269823   1.045  12.164  14.555
22662SOL     OW69824   9.942   5.674   4.378
22662SOL    HW169825  10.032   5.653   4.406
22662SOL    HW269826   9.890   5.599   4.407
22663SOL     OW69827   7.494   3.349  10.660
22663SOL    HW169828   7.528   3.426  10.706
22663SOL    HW269829   7.400   3.350  10.678
22664SOL     OW69830   0.977  12.569  10.206
22664SOL    HW169831   1.067  12.583  10.235
22664SOL    HW269832   0.931  12.649  10.230
22665SOL     OW69833   8.006   9.583  11.311
22665SOL    HW169834   8.049   9.594  11.396
22665SOL    HW269835   8.050   9.646  11.254
22666SOL     OW69836   7.990   0.866  13.670
22666SOL    HW169837   7.900   0.894  13.686
22666SOL    HW269838   7.982   0.777  13.636
22667SOL     OW69839   8.126   7.694   7.913
22667SOL    HW169840   8.054   7.631   7.921
22667SOL    HW269841   8.125   7.719   7.821
22668SOL     OW69842  13.160   9.783   3.196
22668SOL    HW169843  13.125   9.721   3.260
22668SOL    HW269844  13.216   9.731   3.139
22669SOL     OW69845  13.494   2.080   2.929
22669SOL    HW169846  13.529   2.063   3.016
22669SOL    HW269847  13.545   2.023   2.871
22670SOL     OW69848  11.989   5.998   9.166
22670SOL    HW169849  11.959   6.073   9.114
22670SOL    HW269850  12.045   5.948   9.106
22671SOL     OW69851  12.788   3.330   1.155
22671SOL    HW169852  12.803   3.399   1.220
22671SOL    HW269853  12.759   3.377   1.077
22672SOL     OW69854   4.703   3.452   2.927
22672SOL    HW169855   4.706   3.372   2.875
22672SOL    HW269856   4.679   3.423   3.015
22673SOL     OW69857   3.302  13.007   3.322
22673SOL    HW169858   3.307  12.914   3.342
22673SOL    HW269859   3.377  13.024   3.266
22674SOL     OW69860   1.234  12.846   3.342
22674SOL    HW169861   1.165  12.790   3.379
22674SOL    HW269862   1.313  12.820   3.389
22675SOL     OW69863  10.914  11.055  13.985
22675SOL    HW169864  10.940  11.087  14.071
22675SOL    HW269865  10.900  10.962  13.997
22676SOL     OW69866   1.001   4.215   0.800
22676SOL    HW169867   1.019   4.266   0.721
22676SOL    HW269868   1.079   4.228   0.855
22677SOL     OW69869  11.324   1.230   7.959
22677SOL    HW169870  11.389   1.266   7.898
22677SOL    HW269871  11.302   1.145   7.921
22678SOL     OW69872   4.030  10.075   5.975
22678SOL    HW169873   4.011  10.153   5.923
22678SOL    HW269874   4.104  10.034   5.930
22679SOL     OW69875  13.041   6.765  11.325
22679SOL    HW169876  13.031   6.697  11.258
22679SOL    HW269877  13.044   6.846  11.275
22680SOL     OW69878   1.731   1.199   7.120
22680SOL    HW169879   1.704   1.225   7.208
22680SOL    HW269880   1.682   1.256   7.061
22681SOL     OW69881   7.676   0.365   6.135
22681SOL    HW169882   7.767   0.369   6.107
22681SOL    HW269883   7.670   0.429   6.206
22682SOL     OW69884  11.637   7.148   0.984
22682SOL    HW169885  11.703   7.168   0.918
22682SOL    HW269886  11.632   7.227   1.037
22683SOL     OW69887  10.797   2.938   9.302
22683SOL    HW169888  10.819   2.867   9.362
22683SOL    HW269889  10.710   2.966   9.329
22684SOL     OW69890   7.045  13.247   6.161
22684SOL    HW169891   7.003  13.162   6.146
22684SOL    HW269892   7.129  13.241   6.116
22685SOL     OW69893   8.211  10.520   5.101
22685SOL    HW169894   8.293  10.484   5.135
22685SOL    HW269895   8.215  10.504   5.007
22686SOL     OW69896  12.184  10.303   5.127
22686SOL    HW169897  12.092  10.309   5.155
22686SOL    HW269898  12.181  10.252   5.046
22687SOL     OW69899   9.419   2.733   6.054
22687SOL    HW169900   9.361   2.776   5.991
22687SOL    HW269901   9.359   2.692   6.117
22688SOL     OW69902   2.303   9.347   6.820
22688SOL    HW169903   2.215   9.352   6.782
22688SOL    HW269904   2.312   9.255   6.847
22689SOL     OW69905   5.361   0.636   1.066
22689SOL    HW169906   5.338   0.669   0.978
22689SOL    HW269907   5.283   0.653   1.119
22690SOL     OW69908   1.527   2.842   5.478
22690SOL    HW169909   1.500   2.896   5.552
22690SOL    HW269910   1.530   2.753   5.513
22691SOL     OW69911   9.207  13.211   9.399
22691SOL    HW169912   9.281  13.154   9.418
22691SOL    HW269913   9.133  13.169   9.443
22692SOL     OW69914   3.139  13.075   9.484
22692SOL    HW169915   3.090  13.122   9.551
22692SOL    HW269916   3.224  13.120   9.481
22693SOL     OW69917  10.361   7.794   5.259
22693SOL    HW169918  10.278   7.840   5.246
22693SOL    HW269919  10.415   7.856   5.309
22694SOL     OW69920  14.478   7.663  10.917
22694SOL    HW169921  14.469   7.569  10.903
22694SOL    HW269922  14.558   7.672  10.968
22695SOL     OW69923  12.283   6.770  13.161
22695SOL    HW169924  12.271   6.861  13.132
22695SOL    HW269925  12.361   6.773  13.216
22696SOL     OW69926  14.864   9.964   9.036
22696SOL    HW169927   0.020   9.876   9.049
22696SOL    HW269928   0.041  10.004   8.970
22697SOL     OW69929  10.073  13.257  13.716
22697SOL    HW169930  10.164  13.262  13.687
22697SOL    HW269931  10.052  13.164  13.713
22698SOL     OW69932  14.357  11.503   7.425
22698SOL    HW169933  14.448  11.498   7.454
22698SOL    HW269934  14.337  11.414   7.395
22699SOL     OW69935  11.474   3.250   3.147
22699SOL    HW169936  11.421   3.184   3.193
22699SOL    HW269937  11.435   3.257   3.061
22700SOL     OW69938   5.960   7.180   1.181
22700SOL    HW169939   5.987   7.089   1.166
22700SOL    HW269940   5.977   7.195   1.274
22701SOL     OW69941   3.001   5.248   7.908
22701SOL    HW169942   3.032   5.333   7.878
22701SOL    HW269943   2.983   5.199   7.828
22702SOL     OW69944  12.543   2.946   2.892
22702SOL    HW169945  12.488   2.925   2.967
22702SOL    HW269946  12.537   3.041   2.883
22703SOL     OW69947  10.281   6.194   0.959
22703SOL    HW169948  10.368   6.198   0.999
22703SOL    HW269949  10.298   6.169   0.868
22704SOL     OW69950  13.044   6.556   7.078
22704SOL    HW169951  13.096   6.591   7.006
22704SOL    HW269952  12.970   6.618   7.087
22705SOL     OW69953  13.093  12.978   4.850
22705SOL    HW169954  13.179  12.937   4.861
22705SOL    HW269955  13.044  12.915   4.797
22706SOL     OW69956   7.205   7.550   2.603
22706SOL    HW169957   7.200   7.522   2.512
22706SOL    HW269958   7.289   7.597   2.609
22707SOL     OW69959   1.736   0.840  14.507
22707SOL    HW169960   1.814   0.810  14.461
22707SOL    HW269961   1.746   0.807  14.596
22708SOL     OW69962   9.201   7.514   4.116
22708SOL    HW169963   9.170   7.506   4.026
22708SOL    HW269964   9.124   7.496   4.170
22709SOL     OW69965   1.631  11.529  10.987
22709SOL    HW169966   1.726  11.527  10.993
22709SOL    HW269967   1.608  11.621  11.002
22710SOL     OW69968  13.033   4.440  10.478
22710SOL    HW169969  13.078   4.387  10.412
22710SOL    HW269970  12.986   4.377  10.532
22711SOL     OW69971   1.305   1.469   2.881
22711SOL    HW169972   1.281   1.546   2.932
22711SOL    HW269973   1.257   1.478   2.799
22712SOL     OW69974   5.710   0.749   5.138
22712SOL    HW169975   5.702   0.829   5.086
22712SOL    HW269976   5.803   0.727   5.135
22713SOL     OW69977   3.871  11.940  12.652
22713SOL    HW169978   3.854  11.953  12.745
22713SOL    HW269979   3.926  11.861  12.649
22714SOL     OW69980   8.443  11.624  12.772
22714SOL    HW169981   8.358  11.581  12.775
22714SOL    HW269982   8.464  11.642  12.863
22715SOL     OW69983   8.662   3.512   8.257
22715SOL    HW169984   8.612   3.574   8.204
22715SOL    HW269985   8.750   3.513   8.219
22716SOL     OW69986   7.039   8.463  13.366
22716SOL    HW169987   7.080   8.390  13.320
22716SOL    HW269988   6.945   8.454  13.348
22717SOL     OW69989   6.920   5.039   5.014
22717SOL    HW169990   6.946   4.969   5.072
22717SOL    HW269991   6.957   5.118   5.053
22718SOL     OW69992  11.894  13.136   4.525
22718SOL    HW169993  11.882  13.216   4.474
22718SOL    HW269994  11.877  13.065   4.463
22719SOL     OW69995   6.291   9.412   6.948
22719SOL    HW169996   6.348   9.345   6.984
22719SOL    HW269997   6.349   9.470   6.899
22720SOL     OW69998  10.302   3.798   5.652
22720SOL    HW169999  10.327   3.806   5.744
22720SOL    HW270000  10.223   3.852   5.644
22721SOL     OW70001   3.160   2.157   0.787
22721SOL    HW170002   3.068   2.145   0.766
22721SOL    HW270003   3.159   2.210   0.867
22722SOL     OW70004   3.861  14.605   8.921
22722SOL    HW170005   3.816  14.576   9.000
22722SOL    HW270006   3.818  14.687   8.897
22723SOL     OW70007   6.156   4.688  12.344
22723SOL    HW170008   6.217   4.754  12.312
22723SOL    HW270009   6.140   4.711  12.435
22724SOL     OW70010   0.773   4.035   4.187
22724SOL    HW170011   0.799   3.963   4.245
22724SOL    HW270012   0.855   4.073   4.157
22725SOL     OW70013   5.839  11.358  14.465
22725SOL    HW170014   5.884  11.439  14.440
22725SOL    HW270015   5.756  11.362  14.419
22726SOL     OW70016  11.474   1.050   6.548
22726SOL    HW170017  11.448   1.016   6.462
22726SOL    HW270018  11.407   1.018   6.608
22727SOL     OW70019  12.281   6.705  12.703
22727SOL    HW170020  12.295   6.613  12.725
22727SOL    HW270021  12.241   6.743  12.782
22728SOL     OW70022  14.682   8.007   0.818
22728SOL    HW170023  14.713   8.044   0.901
22728SOL    HW270024  14.719   8.064   0.751
22729SOL     OW70025  11.298  12.305   1.843
22729SOL    HW170026  11.343  12.222   1.827
22729SOL    HW270027  11.209  12.290   1.811
22730SOL     OW70028   5.676   7.271  13.580
22730SOL    HW170029   5.647   7.179  13.573
22730SOL    HW270030   5.626   7.306  13.654
22731SOL     OW70031   9.140   3.371   7.154
22731SOL    HW170032   9.053   3.409   7.167
22731SOL    HW270033   9.182   3.428   7.089
22732SOL     OW70034   8.897  14.783  11.610
22732SOL    HW170035   8.988  14.752  11.610
22732SOL    HW270036   8.864  14.758  11.696
22733SOL     OW70037   9.378   3.315  10.274
22733SOL    HW170038   9.412   3.351  10.355
22733SOL    HW270039   9.286   3.341  10.272
22734SOL     OW70040  11.975   9.249   1.161
22734SOL    HW170041  12.012   9.246   1.073
22734SOL    HW270042  11.933   9.335   1.166
22735SOL     OW70043  13.662   1.214   1.233
22735SOL    HW170044  13.661   1.308   1.216
22735SOL    HW270045  13.753   1.189   1.223
22736SOL     OW70046   6.780   8.222  12.220
22736SOL    HW170047   6.789   8.197  12.312
22736SOL    HW270048   6.686   8.213  12.202
22737SOL     OW70049  14.007   2.030   1.024
22737SOL    HW170050  13.987   1.974   1.099
22737SOL    HW270051  14.037   2.112   1.062
22738SOL     OW70052   6.243  14.081   1.145
22738SOL    HW170053   6.319  14.085   1.203
22738SOL    HW270054   6.281  14.079   1.057
22739SOL     OW70055   8.029   7.434   9.134
22739SOL    HW170056   8.079   7.509   9.101
22739SOL    HW270057   7.957   7.425   9.072
22740SOL     OW70058  12.069   3.529  10.428
22740SOL    HW170059  12.026   3.446  10.448
22740SOL    HW270060  12.024   3.593  10.482
22741SOL     OW70061   9.729   5.795   9.081
22741SOL    HW170062   9.668   5.725   9.106
22741SOL    HW270063   9.697   5.824   8.996
22742SOL     OW70064  10.287   5.993   1.924
22742SOL    HW170065  10.240   5.910   1.932
22742SOL    HW270066  10.311   6.016   2.014
22743SOL     OW70067   8.342  10.725   4.003
22743SOL    HW170068   8.433  10.755   4.002
22743SOL    HW270069   8.298  10.786   4.063
22744SOL     OW70070  10.347   2.944   3.091
22744SOL    HW170071  10.420   2.882   3.091
22744SOL    HW270072  10.387   3.028   3.067
22745SOL     OW70073  14.093   0.388  14.464
22745SOL    HW170074  14.072   0.342  14.382
22745SOL    HW270075  14.187   0.376  14.476
22746SOL     OW70076  11.966  12.222  12.527
22746SOL    HW170077  12.058  12.196  12.519
22746SOL    HW270078  11.965  12.315  12.502
22747SOL     OW70079   4.087   9.064  13.682
22747SOL    HW170080   4.137   8.985  13.704
22747SOL    HW270081   3.997   9.034  13.676
22748SOL     OW70082  12.418   0.966   0.753
22748SOL    HW170083  12.326   0.955   0.774
22748SOL    HW270084  12.465   0.928   0.827
22749SOL     OW70085  11.628  12.877   8.943
22749SOL    HW170086  11.608  12.784   8.958
22749SOL    HW270087  11.665  12.880   8.855
22750SOL     OW70088   3.824   3.557   9.323
22750SOL    HW170089   3.762   3.495   9.286
22750SOL    HW270090   3.889   3.503   9.367
22751SOL     OW70091   3.030   2.388   8.625
22751SOL    HW170092   3.089   2.421   8.557
22751SOL    HW270093   2.955   2.447   8.623
22752SOL     OW70094   2.974   3.457   8.215
22752SOL    HW170095   2.898   3.496   8.172
22752SOL    HW270096   2.946   3.442   8.306
22753SOL     OW70097   8.265  13.699   4.153
22753SOL    HW170098   8.253  13.604   4.158
22753SOL    HW270099   8.301  13.714   4.066
22754SOL     OW70100   6.062   1.171   6.716
22754SOL    HW170101   6.086   1.216   6.635
22754SOL    HW270102   6.146   1.150   6.757
22755SOL     OW70103   5.313   8.603   6.333
22755SOL    HW170104   5.264   8.679   6.301
22755SOL    HW270105   5.403   8.633   6.339
22756SOL     OW70106   2.934   5.101   3.401
22756SOL    HW170107   3.004   5.069   3.458
22756SOL    HW270108   2.872   5.143   3.461
22757SOL     OW70109   2.859   5.189   2.949
22757SOL    HW170110   2.856   5.277   2.986
22757SOL    HW270111   2.875   5.132   3.025
22758SOL     OW70112   3.470   8.011  14.674
22758SOL    HW170113   3.517   7.937  14.636
22758SOL    HW270114   3.378   7.991  14.659
22759SOL     OW70115  12.203  10.861  13.402
22759SOL    HW170116  12.219  10.766  13.396
22759SOL    HW270117  12.268  10.892  13.464
22760SOL     OW70118   1.997   3.697   9.142
22760SOL    HW170119   2.079   3.704   9.094
22760SOL    HW270120   1.947   3.630   9.095
22761SOL     OW70121  10.911   8.126  10.420
22761SOL    HW170122  10.931   8.044  10.465
22761SOL    HW270123  10.996   8.155  10.384
22762SOL     OW70124  10.941  11.181   9.230
22762SOL    HW170125  10.925  11.092   9.259
22762SOL    HW270126  10.856  11.212   9.199
22763SOL     OW70127   4.468   4.466  14.250
22763SOL    HW170128   4.555   4.426  14.246
22763SOL    HW270129   4.485   4.557  14.273
22764SOL     OW70130   8.821   3.861   1.830
22764SOL    HW170131   8.812   3.844   1.736
22764SOL    HW270132   8.854   3.778   1.866
22765SOL     OW70133  13.524   4.995   8.682
22765SOL    HW170134  13.611   5.028   8.700
22765SOL    HW270135  13.473   5.072   8.657
22766SOL     OW70136  11.884  10.601   4.327
22766SOL    HW170137  11.845  10.594   4.414
22766SOL    HW270138  11.872  10.693   4.303
22767SOL     OW70139   5.573   9.997  12.744
22767SOL    HW170140   5.481   9.971  12.758
22767SOL    HW270141   5.592   9.968  12.655
22768SOL     OW70142   4.431   7.176   7.883
22768SOL    HW170143   4.488   7.111   7.842
22768SOL    HW270144   4.408   7.236   7.813
22769SOL     OW70145   8.096   5.726  12.291
22769SOL    HW170146   8.050   5.643  12.302
22769SOL    HW270147   8.188   5.705  12.307
22770SOL     OW70148  10.038   8.475  14.587
22770SOL    HW170149  10.004   8.391  14.616
22770SOL    HW270150  10.019   8.477  14.493
22771SOL     OW70151  10.706   3.650  11.793
22771SOL    HW170152  10.701   3.612  11.706
22771SOL    HW270153  10.615   3.665  11.818
22772SOL     OW70154  11.545  11.634   0.452
22772SOL    HW170155  11.504  11.705   0.501
22772SOL    HW270156  11.567  11.672   0.367
22773SOL     OW70157   4.180   5.841  10.796
22773SOL    HW170158   4.138   5.791  10.866
22773SOL    HW270159   4.125   5.825  10.719
22774SOL     OW70160   2.502  10.457   2.380
22774SOL    HW170161   2.576  10.396   2.380
22774SOL    HW270162   2.458  10.443   2.297
22775SOL     OW70163  13.480  12.826   1.783
22775SOL    HW170164  13.482  12.919   1.807
22775SOL    HW270165  13.387  12.803   1.783
22776SOL     OW70166   5.880   2.538   7.924
22776SOL    HW170167   5.822   2.536   8.000
22776SOL    HW270168   5.934   2.616   7.937
22777SOL     OW70169  12.984   9.933  14.481
22777SOL    HW170170  13.066   9.977  14.504
22777SOL    HW270171  12.950   9.983  14.406
22778SOL     OW70172  14.639   2.358   9.926
22778SOL    HW170173  14.692   2.297   9.875
22778SOL    HW270174  14.660   2.337  10.017
22779SOL     OW70175   7.013   2.083   7.510
22779SOL    HW170176   7.098   2.127   7.506
22779SOL    HW270177   7.022   2.020   7.582
22780SOL     OW70178   5.375   0.640   6.484
22780SOL    HW170179   5.453   0.661   6.537
22780SOL    HW270180   5.383   0.546   6.468
22781SOL     OW70181  10.550   9.831   4.180
22781SOL    HW170182  10.612   9.875   4.121
22781SOL    HW270183  10.555   9.739   4.154
22782SOL     OW70184   9.938   3.092  13.834
22782SOL    HW170185   9.894   3.067  13.752
22782SOL    HW270186   9.898   3.036  13.900
22783SOL     OW70187   9.675   4.225  12.188
22783SOL    HW170188   9.617   4.197  12.258
22783SOL    HW270189   9.691   4.318  12.204
22784SOL     OW70190   0.271  13.160   0.045
22784SOL    HW170191   0.251  13.133   0.134
22784SOL    HW270192   0.367  13.162   0.041
22785SOL     OW70193   2.363   7.393  14.399
22785SOL    HW170194   2.357   7.298  14.386
22785SOL    HW270195   2.400   7.402  14.487
22786SOL     OW70196   6.159  12.770  12.274
22786SOL    HW170197   6.115  12.688  12.251
22786SOL    HW270198   6.089  12.835  12.275
22787SOL     OW70199  13.194   6.813  14.837
22787SOL    HW170200  13.162   6.888  14.786
22787SOL    HW270201  13.228   6.852   0.038
22788SOL     OW70202   0.108   7.836   9.662
22788SOL    HW170203   0.051   7.785   9.719
22788SOL    HW270204   0.148   7.771   9.603
22789SOL     OW70205  11.178  14.103   4.623
22789SOL    HW170206  11.131  14.164   4.566
22789SOL    HW270207  11.198  14.153   4.702
22790SOL     OW70208   0.442   3.844   6.014
22790SOL    HW170209   0.388   3.781   5.966
22790SOL    HW270210   0.382   3.915   6.036
22791SOL     OW70211   3.207   2.460   2.942
22791SOL    HW170212   3.196   2.529   2.878
22791SOL    HW270213   3.228   2.506   3.024
22792SOL     OW70214   4.560   5.112   2.304
22792SOL    HW170215   4.538   5.146   2.391
22792SOL    HW270216   4.633   5.167   2.274
22793SOL     OW70217  10.269   6.658   0.981
22793SOL    HW170218  10.353   6.652   0.935
22793SOL    HW270219  10.281   6.604   1.059
22794SOL     OW70220   3.431   9.057   8.231
22794SOL    HW170221   3.509   9.001   8.225
22794SOL    HW270222   3.383   9.039   8.150
22795SOL     OW70223  13.269   6.547   4.840
22795SOL    HW170224  13.205   6.611   4.809
22795SOL    HW270225  13.350   6.571   4.796
22796SOL     OW70226  12.413   7.628   0.536
22796SOL    HW170227  12.352   7.610   0.464
22796SOL    HW270228  12.499   7.612   0.498
22797SOL     OW70229   9.934   5.370   0.479
22797SOL    HW170230   9.864   5.325   0.431
22797SOL    HW270231   9.919   5.347   0.571
22798SOL     OW70232   9.254   4.553   4.907
22798SOL    HW170233   9.333   4.527   4.859
22798SOL    HW270234   9.261   4.648   4.914
22799SOL     OW70235   0.562   9.337  12.515
22799SOL    HW170236   0.472   9.316  12.490
22799SOL    HW270237   0.553   9.397  12.589
22800SOL     OW70238   7.887   9.405  12.173
22800SOL    HW170239   7.920   9.471  12.112
22800SOL    HW270240   7.927   9.323  12.143
22801SOL     OW70241   2.195   0.173   5.445
22801SOL    HW170242   2.139   0.168   5.368
22801SOL    HW270243   2.153   0.238   5.501
22802SOL     OW70244   0.194  13.745   3.976
22802SOL    HW170245   0.256  13.818   3.974
22802SOL    HW270246   0.194  13.717   4.067
22803SOL     OW70247   2.947   6.780   5.241
22803SOL    HW170248   2.876   6.728   5.203
22803SOL    HW270249   2.914   6.805   5.328
22804SOL     OW70250   5.808   1.976   9.861
22804SOL    HW170251   5.829   1.917   9.789
22804SOL    HW270252   5.843   2.061   9.834
22805SOL     OW70253   3.950   0.839   5.807
22805SOL    HW170254   3.867   0.797   5.784
22805SOL    HW270255   4.015   0.770   5.796
22806SOL     OW70256  14.570  10.345  12.976
22806SOL    HW170257  14.483  10.376  12.951
22806SOL    HW270258  14.556  10.303  13.061
22807SOL     OW70259  14.166   2.773   6.186
22807SOL    HW170260  14.072   2.791   6.188
22807SOL    HW270261  14.206   2.858   6.167
22808SOL     OW70262   2.656  13.146  10.104
22808SOL    HW170263   2.743  13.121  10.134
22808SOL    HW270264   2.631  13.078  10.041
22809SOL     OW70265  13.508  12.732  12.966
22809SOL    HW170266  13.551  12.805  13.010
22809SOL    HW270267  13.462  12.772  12.892
22810SOL     OW70268   3.053   2.919   3.389
22810SOL    HW170269   3.131   2.965   3.359
22810SOL    HW270270   3.082   2.830   3.409
22811SOL     OW70271   5.598  11.138   1.705
22811SOL    HW170272   5.589  11.057   1.755
22811SOL    HW270273   5.625  11.204   1.770
22812SOL     OW70274   6.107  11.349   7.186
22812SOL    HW170275   6.032  11.292   7.204
22812SOL    HW270276   6.165  11.337   7.261
22813SOL     OW70277  11.735   4.081   1.823
22813SOL    HW170278  11.773   4.152   1.770
22813SOL    HW270279  11.752   4.107   1.913
22814SOL     OW70280   4.861   7.577   2.415
22814SOL    HW170281   4.885   7.629   2.492
22814SOL    HW270282   4.851   7.641   2.345
22815SOL     OW70283   7.197   6.523   4.117
22815SOL    HW170284   7.167   6.473   4.193
22815SOL    HW270285   7.286   6.550   4.139
22816SOL     OW70286   6.136  11.908  12.672
22816SOL    HW170287   6.137  11.876  12.762
22816SOL    HW270288   6.180  11.993  12.677
22817SOL     OW70289  11.920  12.548   0.264
22817SOL    HW170290  12.010  12.516   0.272
22817SOL    HW270291  11.883  12.538   0.351
22818SOL     OW70292  10.175   3.319   1.009
22818SOL    HW170293  10.270   3.325   1.007
22818SOL    HW270294  10.147   3.393   1.063
22819SOL     OW70295   5.589  12.080  12.824
22819SOL    HW170296   5.596  12.124  12.909
22819SOL    HW270297   5.654  12.010  12.829
22820SOL     OW70298   4.695   0.272   1.673
22820SOL    HW170299   4.746   0.265   1.592
22820SOL    HW270300   4.606   0.292   1.644
22821SOL     OW70301  13.717  14.489  14.516
22821SOL    HW170302  13.812  14.478  14.518
22821SOL    HW270303  13.703  14.581  14.495
22822SOL     OW70304   0.199  11.147   6.249
22822SOL    HW170305   0.244  11.185   6.174
22822SOL    HW270306   0.151  11.072   6.213
22823SOL     OW70307  11.369  12.910   4.723
22823SOL    HW170308  11.349  13.003   4.733
22823SOL    HW270309  11.300  12.866   4.773
22824SOL     OW70310  11.334   8.283   8.800
22824SOL    HW170311  11.273   8.354   8.818
22824SOL    HW270312  11.284   8.221   8.746
22825SOL     OW70313  10.449  11.223   6.693
22825SOL    HW170314  10.513  11.220   6.764
22825SOL    HW270315  10.457  11.311   6.657
22826SOL     OW70316  11.582  11.154   8.277
22826SOL    HW170317  11.664  11.147   8.228
22826SOL    HW270318  11.516  11.119   8.217
22827SOL     OW70319  11.850   5.082   2.705
22827SOL    HW170320  11.888   5.163   2.671
22827SOL    HW270321  11.766   5.073   2.660
22828SOL     OW70322   0.471   5.227   1.626
22828SOL    HW170323   0.419   5.257   1.701
22828SOL    HW270324   0.456   5.292   1.558
22829SOL     OW70325   5.820   2.592   7.469
22829SOL    HW170326   5.877   2.620   7.398
22829SOL    HW270327   5.878   2.580   7.544
22830SOL     OW70328  13.730   4.218  12.146
22830SOL    HW170329  13.647   4.239  12.102
22830SOL    HW270330  13.734   4.122  12.144
22831SOL     OW70331   6.749   5.373   8.306
22831SOL    HW170332   6.694   5.306   8.346
22831SOL    HW270333   6.742   5.448   8.365
22832SOL     OW70334   7.043   5.704   5.965
22832SOL    HW170335   7.118   5.725   5.910
22832SOL    HW270336   7.034   5.780   6.023
22833SOL     OW70337   2.669   3.334   8.372
22833SOL    HW170338   2.681   3.342   8.467
22833SOL    HW270339   2.587   3.379   8.354
22834SOL     OW70340  10.338   1.739  11.594
22834SOL    HW170341  10.345   1.701  11.506
22834SOL    HW270342  10.281   1.815  11.582
22835SOL     OW70343   3.286   1.996   2.540
22835SOL    HW170344   3.292   2.072   2.482
22835SOL    HW270345   3.250   1.926   2.485
22836SOL     OW70346   9.304   4.522   2.400
22836SOL    HW170347   9.315   4.578   2.477
22836SOL    HW270348   9.390   4.524   2.357
22837SOL     OW70349  12.420  13.923   9.881
22837SOL    HW170350  12.481  13.920   9.954
22837SOL    HW270351  12.380  13.836   9.878
22838SOL     OW70352  13.066  12.140   5.370
22838SOL    HW170353  13.064  12.233   5.394
22838SOL    HW270354  12.982  12.125   5.327
22839SOL     OW70355  10.238   2.839  12.438
22839SOL    HW170356  10.239   2.743  12.432
22839SOL    HW270357  10.157   2.865  12.395
22840SOL     OW70358  10.435   0.103   7.257
22840SOL    HW170359  10.408   0.195   7.259
22840SOL    HW270360  10.359   0.056   7.221
22841SOL     OW70361   1.542   0.941   2.245
22841SOL    HW170362   1.529   1.023   2.292
22841SOL    HW270363   1.455   0.903   2.237
22842SOL     OW70364   6.230  10.951   1.014
22842SOL    HW170365   6.305  10.957   1.073
22842SOL    HW270366   6.251  11.012   0.943
22843SOL     OW70367  14.667   3.871   4.577
22843SOL    HW170368  14.630   3.837   4.659
22843SOL    HW270369  14.596   3.862   4.513
22844SOL     OW70370   8.210   2.019   0.065
22844SOL    HW170371   8.150   1.967   0.012
22844SOL    HW270372   8.280   1.959   0.088
22845SOL     OW70373  13.548  10.060   9.302
22845SOL    HW170374  13.561   9.966   9.288
22845SOL    HW270375  13.470  10.081   9.250
22846SOL     OW70376   6.035   7.100   5.224
22846SOL    HW170377   6.120   7.137   5.247
22846SOL    HW270378   6.018   7.035   5.292
22847SOL     OW70379  14.749  12.108  10.165
22847SOL    HW170380  14.654  12.101  10.152
22847SOL    HW270381  14.759  12.177  10.231
22848SOL     OW70382  14.818  11.460   7.284
22848SOL    HW170383  14.832  11.387   7.224
22848SOL    HW270384   0.022  11.471   7.329
22849SOL     OW70385   4.490   5.645   4.324
22849SOL    HW170386   4.489   5.673   4.415
22849SOL    HW270387   4.547   5.569   4.323
22850SOL     OW70388   7.981   7.248  12.718
22850SOL    HW170389   8.015   7.320  12.770
22850SOL    HW270390   8.035   7.248  12.639
22851SOL     OW70391   2.218  13.943   0.430
22851SOL    HW170392   2.205  14.023   0.480
22851SOL    HW270393   2.145  13.887   0.455
22852SOL     OW70394   9.200   4.916   5.845
22852SOL    HW170395   9.282   4.879   5.878
22852SOL    HW270396   9.133   4.881   5.903
22853SOL     OW70397   2.511  10.578  11.415
22853SOL    HW170398   2.598  10.537  11.415
22853SOL    HW270399   2.492  10.592  11.508
22854SOL     OW70400  10.749   3.414   1.083
22854SOL    HW170401  10.835   3.391   1.048
22854SOL    HW270402  10.724   3.493   1.036
22855SOL     OW70403  13.939   1.861  14.552
22855SOL    HW170404  13.905   1.890  14.636
22855SOL    HW270405  13.862   1.861  14.494
22856SOL     OW70406   9.274  14.787   3.614
22856SOL    HW170407   9.299  14.855   3.552
22856SOL    HW270408   9.289  14.705   3.568
22857SOL     OW70409   0.780   4.167  13.365
22857SOL    HW170410   0.706   4.228  13.360
22857SOL    HW270411   0.847   4.206  13.308
22858SOL     OW70412   5.985   1.780   3.335
22858SOL    HW170413   6.028   1.761   3.419
22858SOL    HW270414   5.949   1.696   3.306
22859SOL     OW70415   1.104   0.566   3.136
22859SOL    HW170416   1.033   0.515   3.096
22859SOL    HW270417   1.060   0.630   3.191
22860SOL     OW70418  12.997   0.346  11.480
22860SOL    HW170419  13.071   0.304  11.435
22860SOL    HW270420  12.999   0.308  11.568
22861SOL     OW70421   0.280   2.267   8.261
22861SOL    HW170422   0.353   2.211   8.287
22861SOL    HW270423   0.320   2.334   8.206
22862SOL     OW70424  13.661  14.130  11.181
22862SOL    HW170425  13.662  14.222  11.206
22862SOL    HW270426  13.701  14.128  11.094
22863SOL     OW70427   3.396   3.683   3.196
22863SOL    HW170428   3.375   3.768   3.233
22863SOL    HW270429   3.376   3.692   3.103
22864SOL     OW70430  11.720  13.614   7.081
22864SOL    HW170431  11.652  13.550   7.060
22864SOL    HW270432  11.800  13.577   7.046
22865SOL     OW70433   5.042   1.004   1.163
22865SOL    HW170434   5.014   0.983   1.074
22865SOL    HW270435   5.135   1.024   1.155
22866SOL     OW70436   9.529  14.281   2.812
22866SOL    HW170437   9.457  14.236   2.857
22866SOL    HW270438   9.606  14.265   2.867
22867SOL     OW70439   8.881   9.187  12.602
22867SOL    HW170440   8.932   9.192  12.683
22867SOL    HW270441   8.792   9.169  12.630
22868SOL     OW70442   4.806   1.029   0.737
22868SOL    HW170443   4.744   1.013   0.666
22868SOL    HW270444   4.751   1.051   0.813
22869SOL     OW70445   7.247   7.349   4.947
22869SOL    HW170446   7.237   7.423   4.886
22869SOL    HW270447   7.242   7.389   5.034
22870SOL     OW70448  10.046   9.935  10.405
22870SOL    HW170449  10.129   9.982  10.411
22870SOL    HW270450  10.038   9.914  10.312
22871SOL     OW70451   5.824   4.173  12.114
22871SOL    HW170452   5.850   4.087  12.081
22871SOL    HW270453   5.737   4.188  12.076
22872SOL     OW70454   1.330   1.986   3.115
22872SOL    HW170455   1.315   1.945   3.030
22872SOL    HW270456   1.243   2.012   3.145
22873SOL     OW70457  10.966   9.642   9.902
22873SOL    HW170458  10.900   9.590   9.857
22873SOL    HW270459  11.049   9.617   9.861
22874SOL     OW70460   7.156   5.371   5.827
22874SOL    HW170461   7.242   5.377   5.867
22874SOL    HW270462   7.095   5.396   5.896
22875SOL     OW70463  13.168   7.651   5.628
22875SOL    HW170464  13.204   7.660   5.717
22875SOL    HW270465  13.244   7.659   5.571
22876SOL     OW70466   2.453   9.499   6.976
22876SOL    HW170467   2.391   9.452   6.920
22876SOL    HW270468   2.463   9.442   7.052
22877SOL     OW70469   2.073   3.788   4.849
22877SOL    HW170470   2.059   3.883   4.855
22877SOL    HW270471   2.148   3.772   4.906
22878SOL     OW70472  10.383   4.627  12.149
22878SOL    HW170473  10.351   4.603  12.236
22878SOL    HW270474  10.332   4.704  12.125
22879SOL     OW70475   9.747   1.688  11.713
22879SOL    HW170476   9.700   1.752  11.659
22879SOL    HW270477   9.786   1.740  11.784
22880SOL     OW70478   5.317  11.374   1.446
22880SOL    HW170479   5.271  11.371   1.362
22880SOL    HW270480   5.385  11.306   1.438
22881SOL     OW70481   4.105  13.350   2.758
22881SOL    HW170482   4.135  13.387   2.841
22881SOL    HW270483   4.042  13.414   2.725
22882SOL     OW70484   9.607   1.004  12.829
22882SOL    HW170485   9.621   0.927  12.775
22882SOL    HW270486   9.688   1.054  12.823
22883SOL     OW70487  14.708   2.589  11.429
22883SOL    HW170488  14.650   2.515  11.409
22883SOL    HW270489  14.678   2.620  11.514
22884SOL     OW70490   6.702   0.958  12.886
22884SOL    HW170491   6.669   1.036  12.842
22884SOL    HW270492   6.789   0.983  12.918
22885SOL     OW70493   0.913   6.612   0.761
22885SOL    HW170494   0.950   6.595   0.674
22885SOL    HW270495   0.975   6.573   0.822
22886SOL     OW70496   9.334  13.365   5.878
22886SOL    HW170497   9.282  13.408   5.810
22886SOL    HW270498   9.365  13.284   5.836
22887SOL     OW70499  10.830  10.029   7.827
22887SOL    HW170500  10.813  10.005   7.736
22887SOL    HW270501  10.747  10.066   7.858
22888SOL     OW70502  11.394   1.911  13.247
22888SOL    HW170503  11.332   1.981  13.268
22888SOL    HW270504  11.401   1.913  13.152
22889SOL     OW70505  14.147   6.222  12.550
22889SOL    HW170506  14.192   6.223  12.466
22889SOL    HW270507  14.133   6.129  12.569
22890SOL     OW70508   0.123   0.308   1.931
22890SOL    HW170509   0.134   0.378   1.867
22890SOL    HW270510   0.209   0.300   1.973
22891SOL     OW70511  10.663  13.154   3.268
22891SOL    HW170512  10.696  13.205   3.194
22891SOL    HW270513  10.570  13.176   3.271
22892SOL     OW70514   9.981   9.624  12.501
22892SOL    HW170515  10.019   9.683  12.436
22892SOL    HW270516  10.056   9.589  12.549
22893SOL     OW70517   2.310   7.433   2.103
22893SOL    HW170518   2.301   7.363   2.167
22893SOL    HW270519   2.237   7.492   2.121
22894SOL     OW70520  11.045  14.722   2.024
22894SOL    HW170521  11.015  14.784   2.091
22894SOL    HW270522  11.122  14.681   2.063
22895SOL     OW70523   4.843   7.951  10.466
22895SOL    HW170524   4.788   7.962  10.543
22895SOL    HW270525   4.907   7.884  10.490
22896SOL     OW70526   8.534  14.476   5.914
22896SOL    HW170527   8.537  14.572   5.913
22896SOL    HW270528   8.576  14.449   5.833
22897SOL     OW70529   4.266   5.834   4.943
22897SOL    HW170530   4.179   5.799   4.962
22897SOL    HW270531   4.260   5.926   4.966
22898SOL     OW70532   9.809  10.677  13.761
22898SOL    HW170533   9.887  10.670  13.817
22898SOL    HW270534   9.836  10.736  13.690
22899SOL     OW70535   6.632   5.825   9.350
22899SOL    HW170536   6.648   5.732   9.367
22899SOL    HW270537   6.574   5.853   9.421
22900SOL     OW70538   3.821   8.292   2.235
22900SOL    HW170539   3.836   8.202   2.263
22900SOL    HW270540   3.745   8.321   2.286
22901SOL     OW70541   2.063   7.398   8.461
22901SOL    HW170542   2.097   7.385   8.373
22901SOL    HW270543   2.090   7.320   8.510
22902SOL     OW70544   9.256   4.622   8.199
22902SOL    HW170545   9.328   4.668   8.242
22902SOL    HW270546   9.242   4.544   8.252
22903SOL     OW70547   3.662  12.062   0.679
22903SOL    HW170548   3.609  12.099   0.750
22903SOL    HW270549   3.613  12.081   0.599
22904SOL     OW70550  10.118  10.418   3.136
22904SOL    HW170551  10.063  10.493   3.115
22904SOL    HW270552  10.084  10.386   3.219
22905SOL     OW70553  14.660   6.993   6.272
22905SOL    HW170554  14.618   6.929   6.215
22905SOL    HW270555  14.596   7.009   6.341
22906SOL     OW70556   5.692   7.301  11.042
22906SOL    HW170557   5.627   7.326  10.977
22906SOL    HW270558   5.731   7.383  11.071
22907SOL     OW70559  13.997  14.477   0.534
22907SOL    HW170560  13.945  14.460   0.455
22907SOL    HW270561  13.944  14.539   0.584
22908SOL     OW70562   0.075  11.706  12.876
22908SOL    HW170563   0.170  11.702  12.885
22908SOL    HW270564   0.045  11.752  12.954
22909SOL     OW70565  12.796   7.817  12.195
22909SOL    HW170566  12.797   7.803  12.101
22909SOL    HW270567  12.886   7.802  12.223
22910SOL     OW70568   5.252   1.682   7.298
22910SOL    HW170569   5.255   1.754   7.361
22910SOL    HW270570   5.270   1.604   7.351
22911SOL     OW70571   3.679  12.957   3.622
22911SOL    HW170572   3.741  13.027   3.602
22911SOL    HW270573   3.730  12.893   3.671
22912SOL     OW70574  12.343  13.651   9.876
22912SOL    HW170575  12.365  13.622   9.964
22912SOL    HW270576  12.397  13.598   9.818
22913SOL     OW70577   4.884  10.465   0.124
22913SOL    HW170578   4.893  10.394   0.060
22913SOL    HW270579   4.804  10.444   0.172
22914SOL     OW70580  14.529   3.270   3.291
22914SOL    HW170581  14.570   3.231   3.214
22914SOL    HW270582  14.573   3.355   3.301
22915SOL     OW70583  11.784   2.309  12.762
22915SOL    HW170584  11.756   2.334  12.674
22915SOL    HW270585  11.843   2.380  12.789
22916SOL     OW70586  13.209   6.158  11.250
22916SOL    HW170587  13.297   6.134  11.221
22916SOL    HW270588  13.152   6.092  11.210
22917SOL     OW70589  10.155  10.349  14.063
22917SOL    HW170590  10.161  10.288  13.989
22917SOL    HW270591  10.214  10.420  14.040
22918SOL     OW70592  14.664  14.260   3.044
22918SOL    HW170593  14.587  14.312   3.068
22918SOL    HW270594  14.680  14.283   2.952
22919SOL     OW70595  14.460  13.213   3.759
22919SOL    HW170596  14.399  13.161   3.707
22919SOL    HW270597  14.470  13.295   3.711
22920SOL     OW70598   7.268  12.494   5.718
22920SOL    HW170599   7.243  12.402   5.713
22920SOL    HW270600   7.193  12.537   5.758
22921SOL     OW70601  12.551   6.811  13.945
22921SOL    HW170602  12.544   6.896  13.902
22921SOL    HW270603  12.463   6.793  13.978
22922SOL     OW70604   6.300   7.395   7.954
22922SOL    HW170605   6.362   7.352   8.013
22922SOL    HW270606   6.297   7.486   7.984
22923SOL     OW70607   8.044   1.469   3.470
22923SOL    HW170608   8.089   1.445   3.389
22923SOL    HW270609   8.083   1.553   3.495
22924SOL     OW70610  10.640  10.566   1.950
22924SOL    HW170611  10.693  10.529   1.880
22924SOL    HW270612  10.650  10.503   2.022
22925SOL     OW70613   8.207  10.402   4.290
22925SOL    HW170614   8.262  10.446   4.226
22925SOL    HW270615   8.250  10.318   4.306
22926SOL     OW70616   8.886  14.518   6.272
22926SOL    HW170617   8.806  14.491   6.226
22926SOL    HW270618   8.945  14.443   6.264
22927SOL     OW70619   4.638   7.208   2.350
22927SOL    HW170620   4.609   7.217   2.259
22927SOL    HW270621   4.649   7.299   2.380
22928SOL     OW70622  14.035   0.056  13.678
22928SOL    HW170623  14.066   0.124  13.739
22928SOL    HW270624  14.032   0.100  13.593
22929SOL     OW70625  10.027  14.097   1.622
22929SOL    HW170626  10.031  14.107   1.717
22929SOL    HW270627   9.982  14.013   1.608
22930SOL     OW70628   7.740  12.788   6.437
22930SOL    HW170629   7.695  12.713   6.398
22930SOL    HW270630   7.812  12.750   6.488
22931SOL     OW70631  12.503  13.949   3.688
22931SOL    HW170632  12.499  13.944   3.784
22931SOL    HW270633  12.416  13.979   3.662
22932SOL     OW70634   2.741  13.249   3.113
22932SOL    HW170635   2.684  13.222   3.185
22932SOL    HW270636   2.748  13.344   3.123
22933SOL     OW70637   8.833  13.993   3.336
22933SOL    HW170638   8.808  13.938   3.410
22933SOL    HW270639   8.926  13.975   3.324
22934SOL     OW70640  13.394  11.718  11.773
22934SOL    HW170641  13.330  11.664  11.726
22934SOL    HW270642  13.392  11.685  11.863
22935SOL     OW70643   5.751   1.517  13.417
22935SOL    HW170644   5.701   1.597  13.398
22935SOL    HW270645   5.841   1.540  13.391
22936SOL     OW70646   7.085  13.402   5.848
22936SOL    HW170647   7.130  13.326   5.885
22936SOL    HW270648   7.022  13.428   5.916
22937SOL     OW70649   7.640   0.079   4.350
22937SOL    HW170650   7.688   0.105   4.271
22937SOL    HW270651   7.601   0.160   4.383
22938SOL     OW70652   7.679   0.790  10.855
22938SOL    HW170653   7.724   0.874  10.860
22938SOL    HW270654   7.740   0.732  10.810
22939SOL     OW70655   5.008   1.555   6.817
22939SOL    HW170656   4.933   1.576   6.762
22939SOL    HW270657   4.998   1.462   6.836
22940SOL     OW70658  14.031  12.146  11.092
22940SOL    HW170659  13.981  12.214  11.136
22940SOL    HW270660  13.966  12.095  11.044
22941SOL     OW70661   9.300  11.201   2.004
22941SOL    HW170662   9.284  11.187   2.097
22941SOL    HW270663   9.252  11.280   1.982
22942SOL     OW70664  12.429   2.726  11.262
22942SOL    HW170665  12.339   2.742  11.233
22942SOL    HW270666  12.444   2.793  11.329
22943SOL     OW70667   2.337  11.193  13.054
22943SOL    HW170668   2.385  11.220  13.132
22943SOL    HW270669   2.393  11.217  12.981
22944SOL     OW70670  11.212   8.129   1.241
22944SOL    HW170671  11.298   8.087   1.250
22944SOL    HW270672  11.150   8.064   1.274
22945SOL     OW70673   0.478   4.308  12.262
22945SOL    HW170674   0.475   4.373  12.192
22945SOL    HW270675   0.494   4.358  12.341
22946SOL     OW70676  11.246  12.888   3.519
22946SOL    HW170677  11.152  12.871   3.509
22946SOL    HW270678  11.280  12.808   3.560
22947SOL     OW70679   4.012   9.964  12.075
22947SOL    HW170680   4.010  10.018  11.996
22947SOL    HW270681   3.956  10.010  12.137
22948SOL     OW70682  14.818   1.756  10.897
22948SOL    HW170683   0.012   1.699  10.920
22948SOL    HW270684  14.838   1.840  10.937
22949SOL     OW70685   7.295   0.494   8.282
22949SOL    HW170686   7.239   0.562   8.244
22949SOL    HW270687   7.384   0.530   8.274
22950SOL     OW70688  13.054   5.378  13.671
22950SOL    HW170689  13.020   5.406  13.586
22950SOL    HW270690  13.101   5.455  13.704
22951SOL     OW70691   0.912   9.032   4.047
22951SOL    HW170692   0.947   9.022   3.959
22951SOL    HW270693   0.941   9.120   4.074
22952SOL     OW70694   2.760  10.437   6.715
22952SOL    HW170695   2.777  10.404   6.803
22952SOL    HW270696   2.806  10.377   6.657
22953SOL     OW70697  12.086   7.983   0.527
22953SOL    HW170698  12.098   7.900   0.574
22953SOL    HW270699  12.158   8.038   0.557
22954SOL     OW70700   9.495   0.372   1.863
22954SOL    HW170701   9.498   0.333   1.950
22954SOL    HW270702   9.512   0.465   1.878
22955SOL     OW70703   6.698   3.244   2.413
22955SOL    HW170704   6.748   3.303   2.357
22955SOL    HW270705   6.621   3.295   2.439
22956SOL     OW70706   4.413   6.259   6.714
22956SOL    HW170707   4.364   6.321   6.660
22956SOL    HW270708   4.504   6.274   6.690
22957SOL     OW70709  13.514   4.695   5.311
22957SOL    HW170710  13.609   4.684   5.310
22957SOL    HW270711  13.498   4.768   5.371
22958SOL     OW70712   1.564   0.196   3.386
22958SOL    HW170713   1.575   0.222   3.477
22958SOL    HW270714   1.481   0.148   3.384
22959SOL     OW70715  13.046   0.203  10.869
22959SOL    HW170716  13.046   0.252  10.787
22959SOL    HW270717  13.087   0.262  10.932
22960SOL     OW70718  10.070  12.442   9.165
22960SOL    HW170719  10.075  12.457   9.260
22960SOL    HW270720  10.151  12.396   9.144
22961SOL     OW70721   2.137   2.669   1.717
22961SOL    HW170722   2.083   2.619   1.656
22961SOL    HW270723   2.119   2.631   1.802
22962SOL     OW70724   9.355   7.016   3.307
22962SOL    HW170725   9.290   7.062   3.361
22962SOL    HW270726   9.438   7.058   3.329
22963SOL     OW70727   1.668   9.750   4.429
22963SOL    HW170728   1.706   9.746   4.341
22963SOL    HW270729   1.637   9.840   4.437
22964SOL     OW70730   1.431  14.827   9.778
22964SOL    HW170731   1.348  14.867   9.805
22964SOL    HW270732   1.498  14.878   9.825
22965SOL     OW70733   1.872  13.032   3.987
22965SOL    HW170734   1.949  12.975   3.983
22965SOL    HW270735   1.821  13.008   3.910
22966SOL     OW70736   6.667  11.421  10.595
22966SOL    HW170737   6.617  11.459  10.523
22966SOL    HW270738   6.707  11.496  10.638
22967SOL     OW70739  13.710   4.363  10.888
22967SOL    HW170740  13.720   4.434  10.824
22967SOL    HW270741  13.728   4.283  10.838
22968SOL     OW70742   4.970   5.040   3.204
22968SOL    HW170743   5.046   5.029   3.261
22968SOL    HW270744   4.924   4.955   3.207
22969SOL     OW70745  12.153  10.842   1.066
22969SOL    HW170746  12.083  10.901   1.093
22969SOL    HW270747  12.215  10.898   1.019
22970SOL     OW70748   5.552   6.897   0.461
22970SOL    HW170749   5.580   6.986   0.442
22970SOL    HW270750   5.634   6.848   0.473
22971SOL     OW70751   1.565  12.723   8.896
22971SOL    HW170752   1.529  12.810   8.914
22971SOL    HW270753   1.488  12.668   8.882
22972SOL     OW70754   2.502   3.444  14.416
22972SOL    HW170755   2.407   3.453  14.413
22972SOL    HW270756   2.534   3.504  14.348
22973SOL     OW70757   0.999  10.629   6.721
22973SOL    HW170758   0.931  10.579   6.677
22973SOL    HW270759   0.956  10.710   6.748
22974SOL     OW70760   0.709  11.772  12.368
22974SOL    HW170761   0.662  11.757  12.286
22974SOL    HW270762   0.768  11.845  12.348
22975SOL     OW70763   6.839   8.520   5.555
22975SOL    HW170764   6.903   8.466   5.508
22975SOL    HW270765   6.822   8.471   5.635
22976SOL     OW70766  12.200   5.757   4.227
22976SOL    HW170767  12.278   5.746   4.281
22976SOL    HW270768  12.169   5.668   4.211
22977SOL     OW70769  10.996  13.801   3.381
22977SOL    HW170770  10.941  13.796   3.303
22977SOL    HW270771  11.002  13.711   3.413
22978SOL     OW70772   2.447   8.409  12.072
22978SOL    HW170773   2.424   8.501  12.083
22978SOL    HW270774   2.520   8.409  12.011
22979SOL     OW70775   5.875   6.882   0.126
22979SOL    HW170776   5.882   6.807   0.066
22979SOL    HW270777   5.806   6.936   0.089
22980SOL     OW70778   3.671   4.944   6.917
22980SOL    HW170779   3.652   4.958   6.824
22980SOL    HW270780   3.618   5.009   6.963
22981SOL     OW70781  11.225   8.602   7.077
22981SOL    HW170782  11.195   8.527   7.127
22981SOL    HW270783  11.279   8.652   7.138
22982SOL     OW70784  14.259   7.150  10.507
22982SOL    HW170785  14.333   7.126  10.452
22982SOL    HW270786  14.254   7.080  10.572
22983SOL     OW70787  13.741   7.199   3.671
22983SOL    HW170788  13.675   7.130   3.672
22983SOL    HW270789  13.801   7.177   3.743
22984SOL     OW70790   8.460   8.902   1.786
22984SOL    HW170791   8.453   8.892   1.691
22984SOL    HW270792   8.441   8.814   1.821
22985SOL     OW70793  14.846   5.537  10.542
22985SOL    HW170794  14.860   5.515  10.634
22985SOL    HW270795  14.774   5.600  10.544
22986SOL     OW70796   9.592   7.187   3.371
22986SOL    HW170797   9.604   7.270   3.418
22986SOL    HW270798   9.681   7.153   3.360
22987SOL     OW70799   4.499  14.350   8.191
22987SOL    HW170800   4.558  14.426   8.193
22987SOL    HW270801   4.419  14.382   8.149
22988SOL     OW70802  12.047  12.448   7.060
22988SOL    HW170803  12.052  12.356   7.089
22988SOL    HW270804  12.131  12.463   7.016
22989SOL     OW70805   5.747   6.984   7.538
22989SOL    HW170806   5.661   6.960   7.572
22989SOL    HW270807   5.807   6.921   7.577
22990SOL     OW70808   6.930   4.896  13.371
22990SOL    HW170809   6.838   4.918  13.359
22990SOL    HW270810   6.936   4.867  13.462
22991SOL     OW70811   7.365  10.519   3.048
22991SOL    HW170812   7.419  10.550   3.120
22991SOL    HW270813   7.293  10.582   3.044
22992SOL     OW70814   4.655   8.218   0.609
22992SOL    HW170815   4.585   8.282   0.617
22992SOL    HW270816   4.736   8.270   0.609
22993SOL     OW70817  11.263  13.325  14.232
22993SOL    HW170818  11.318  13.386  14.183
22993SOL    HW270819  11.213  13.379  14.293
22994SOL     OW70820   8.969   0.639   7.208
22994SOL    HW170821   9.063   0.621   7.213
22994SOL    HW270822   8.961   0.730   7.237
22995SOL     OW70823   3.605   3.362  14.189
22995SOL    HW170824   3.649   3.435  14.232
22995SOL    HW270825   3.577   3.397  14.105
22996SOL     OW70826   4.405   5.713  11.787
22996SOL    HW170827   4.397   5.790  11.844
22996SOL    HW270828   4.407   5.639  11.847
22997SOL     OW70829  14.709   4.884   1.958
22997SOL    HW170830  14.762   4.931   1.893
22997SOL    HW270831  14.743   4.913   2.042
22998SOL     OW70832  14.594   2.080  13.299
22998SOL    HW170833  14.642   2.148  13.252
22998SOL    HW270834  14.517   2.125  13.333
22999SOL     OW70835   1.393   6.935   6.805
22999SOL    HW170836   1.416   6.846   6.832
22999SOL    HW270837   1.463   6.961   6.746
23000SOL     OW70838  12.350   9.509   4.234
23000SOL    HW170839  12.336   9.432   4.288
23000SOL    HW270840  12.330   9.480   4.145
23001SOL     OW70841   9.421   7.387   6.777
23001SOL    HW170842   9.345   7.328   6.778
23001SOL    HW270843   9.435   7.406   6.684
23002SOL     OW70844  13.780  10.105   3.423
23002SOL    HW170845  13.736  10.118   3.507
23002SOL    HW270846  13.849  10.171   3.421
23003SOL     OW70847   1.135   5.652   1.111
23003SOL    HW170848   1.114   5.639   1.018
23003SOL    HW270849   1.100   5.574   1.154
23004SOL     OW70850  14.662   5.003   0.393
23004SOL    HW170851  14.575   5.043   0.393
23004SOL    HW270852  14.660   4.942   0.319
23005SOL     OW70853   6.204  13.158   4.794
23005SOL    HW170854   6.126  13.201   4.758
23005SOL    HW270855   6.239  13.221   4.857
23006SOL     OW70856   2.357   8.859   6.999
23006SOL    HW170857   2.330   8.787   7.055
23006SOL    HW270858   2.358   8.821   6.911
23007SOL     OW70859   4.820   7.983  12.838
23007SOL    HW170860   4.910   8.012  12.825
23007SOL    HW270861   4.807   7.915  12.771
23008SOL     OW70862  10.314   0.151   5.436
23008SOL    HW170863  10.405   0.142   5.466
23008SOL    HW270864  10.272   0.206   5.502
23009SOL     OW70865   2.513   8.303   5.946
23009SOL    HW170866   2.562   8.380   5.915
23009SOL    HW270867   2.575   8.231   5.939
23010SOL     OW70868  10.052   8.271  12.119
23010SOL    HW170869   9.976   8.259  12.063
23010SOL    HW270870  10.124   8.228  12.071
23011SOL     OW70871   3.295   6.000   4.407
23011SOL    HW170872   3.262   6.079   4.448
23011SOL    HW270873   3.290   6.018   4.313
23012SOL     OW70874  14.288  11.571   7.953
23012SOL    HW170875  14.371  11.574   8.001
23012SOL    HW270876  14.267  11.662   7.935
23013SOL     OW70877   7.693  12.314   9.199
23013SOL    HW170878   7.718  12.278   9.284
23013SOL    HW270879   7.774  12.348   9.163
23014SOL     OW70880  10.547   9.379   3.129
23014SOL    HW170881  10.636   9.368   3.161
23014SOL    HW270882  10.534   9.306   3.068
23015SOL     OW70883  13.672  13.247   4.389
23015SOL    HW170884  13.607  13.181   4.364
23015SOL    HW270885  13.747  13.197   4.421
23016SOL     OW70886   0.188   5.067  11.465
23016SOL    HW170887   0.226   5.145  11.426
23016SOL    HW270888   0.194   5.000  11.396
23017SOL     OW70889   8.029   2.294   1.613
23017SOL    HW170890   7.955   2.333   1.567
23017SOL    HW270891   8.051   2.356   1.682
23018SOL     OW70892   8.620   4.771  10.067
23018SOL    HW170893   8.577   4.856  10.077
23018SOL    HW270894   8.568   4.725  10.001
23019SOL     OW70895   6.459   9.211   1.547
23019SOL    HW170896   6.527   9.276   1.562
23019SOL    HW270897   6.506   9.131   1.522
23020SOL     OW70898   4.958  14.033   2.485
23020SOL    HW170899   4.983  13.941   2.493
23020SOL    HW270900   4.921  14.040   2.397
23021SOL     OW70901  11.690   5.002  13.735
23021SOL    HW170902  11.784   5.007  13.716
23021SOL    HW270903  11.649   5.007  13.649
23022SOL     OW70904   4.747   1.874  14.589
23022SOL    HW170905   4.791   1.900  14.509
23022SOL    HW270906   4.764   1.780  14.597
23023SOL     OW70907   8.121   8.606   4.053
23023SOL    HW170908   8.173   8.686   4.043
23023SOL    HW270909   8.156   8.564   4.131
23024SOL     OW70910   9.663   0.139   6.769
23024SOL    HW170911   9.747   0.162   6.809
23024SOL    HW270912   9.623   0.223   6.747
23025SOL     OW70913   1.775  11.373   3.817
23025SOL    HW170914   1.835  11.334   3.881
23025SOL    HW270915   1.798  11.465   3.816
23026SOL     OW70916  13.565   1.578   5.741
23026SOL    HW170917  13.533   1.668   5.741
23026SOL    HW270918  13.658   1.586   5.765
23027SOL     OW70919   6.495   6.550   6.455
23027SOL    HW170920   6.513   6.471   6.504
23027SOL    HW270921   6.413   6.532   6.409
23028SOL     OW70922  12.495   9.535   9.023
23028SOL    HW170923  12.467   9.449   9.055
23028SOL    HW270924  12.428   9.596   9.055
23029SOL     OW70925   8.047   0.843   2.287
23029SOL    HW170926   8.127   0.895   2.280
23029SOL    HW270927   8.074   0.755   2.263
23030SOL     OW70928   8.870   0.624  10.580
23030SOL    HW170929   8.963   0.616  10.560
23030SOL    HW270930   8.842   0.535  10.602
23031SOL     OW70931   0.726   1.511   1.708
23031SOL    HW170932   0.787   1.514   1.635
23031SOL    HW270933   0.777   1.475   1.781
23032SOL     OW70934  11.113  11.513   5.383
23032SOL    HW170935  11.155  11.458   5.317
23032SOL    HW270936  11.132  11.470   5.466
23033SOL     OW70937   6.350   2.515   7.946
23033SOL    HW170938   6.383   2.453   8.011
23033SOL    HW270939   6.428   2.562   7.917
23034SOL     OW70940   7.485   3.207  12.492
23034SOL    HW170941   7.405   3.250  12.524
23034SOL    HW270942   7.455   3.152  12.420
23035SOL     OW70943  11.674   9.638  11.467
23035SOL    HW170944  11.718   9.555  11.446
23035SOL    HW270945  11.617   9.617  11.541
23036SOL     OW70946   8.414   8.657   1.890
23036SOL    HW170947   8.447   8.589   1.832
23036SOL    HW270948   8.465   8.647   1.971
23037SOL     OW70949   7.541   1.834   9.531
23037SOL    HW170950   7.493   1.897   9.585
23037SOL    HW270951   7.622   1.817   9.579
23038SOL     OW70952   4.630   5.984  14.660
23038SOL    HW170953   4.703   6.046  14.663
23038SOL    HW270954   4.642   5.928  14.737
23039SOL     OW70955   1.902   6.182   3.204
23039SOL    HW170956   1.826   6.130   3.231
23039SOL    HW270957   1.972   6.156   3.264
23040SOL     OW70958   0.738   1.801   0.933
23040SOL    HW170959   0.660   1.757   0.899
23040SOL    HW270960   0.809   1.769   0.877
23041SOL     OW70961   1.744  10.494  14.555
23041SOL    HW170962   1.713  10.559  14.492
23041SOL    HW270963   1.799  10.544  14.616
23042SOL     OW70964  12.192   3.128   0.300
23042SOL    HW170965  12.139   3.120   0.380
23042SOL    HW270966  12.130   3.155   0.233
23043SOL     OW70967  12.597   6.197   5.325
23043SOL    HW170968  12.670   6.180   5.385
23043SOL    HW270969  12.631   6.175   5.239
23044SOL     OW70970  10.254   4.269   6.865
23044SOL    HW170971  10.272   4.182   6.829
23044SOL    HW270972  10.330   4.287   6.920
23045SOL     OW70973   4.448   9.568   0.663
23045SOL    HW170974   4.391   9.567   0.587
23045SOL    HW270975   4.451   9.660   0.690
23046SOL     OW70976  13.563   9.187   4.515
23046SOL    HW170977  13.493   9.204   4.452
23046SOL    HW270978  13.533   9.111   4.565
23047SOL     OW70979   9.990  11.914   4.848
23047SOL    HW170980  10.047  11.971   4.899
23047SOL    HW270981   9.930  11.974   4.803
23048SOL     OW70982   4.969   9.454   3.254
23048SOL    HW170983   4.879   9.460   3.222
23048SOL    HW270984   4.963   9.396   3.330
23049SOL     OW70985   5.363   1.353   1.723
23049SOL    HW170986   5.381   1.261   1.743
23049SOL    HW270987   5.272   1.366   1.749
23050SOL     OW70988   4.035   9.735  13.916
23050SOL    HW170989   3.951   9.689  13.917
23050SOL    HW270990   4.034   9.786  13.836
23051SOL     OW70991   3.657  10.936   8.298
23051SOL    HW170992   3.713  10.950   8.222
23051SOL    HW270993   3.628  11.024   8.324
23052SOL     OW70994   0.050  12.445   7.659
23052SOL    HW170995   0.052  12.452   7.563
23052SOL    HW270996   0.135  12.408   7.682
23053SOL     OW70997   3.475   4.663   7.741
23053SOL    HW170998   3.522   4.740   7.774
23053SOL    HW270999   3.513   4.648   7.654
23054SOL     OW71000   7.052   4.223  13.561
23054SOL    HW171001   7.006   4.224  13.477
23054SOL    HW271002   6.989   4.261  13.622
23055SOL     OW71003   7.830  14.397  13.219
23055SOL    HW171004   7.903  14.430  13.167
23055SOL    HW271005   7.764  14.372  13.155
23056SOL     OW71006   8.249   4.494  14.531
23056SOL    HW171007   8.338   4.525  14.514
23056SOL    HW271008   8.236   4.423  14.469
23057SOL     OW71009   2.153  12.034   5.479
23057SOL    HW171010   2.122  12.117   5.516
23057SOL    HW271011   2.244  12.052   5.454
23058SOL     OW71012   8.645  14.380   5.220
23058SOL    HW171013   8.680  14.395   5.133
23058SOL    HW271014   8.569  14.323   5.207
23059SOL     OW71015   2.229   3.721  11.846
23059SOL    HW171016   2.153   3.684  11.802
23059SOL    HW271017   2.203   3.728  11.938
23060SOL     OW71018   8.284   7.215   7.831
23060SOL    HW171019   8.271   7.121   7.821
23060SOL    HW271020   8.371   7.232   7.793
23061SOL     OW71021   4.544   7.111   8.569
23061SOL    HW171022   4.579   7.109   8.480
23061SOL    HW271023   4.534   7.019   8.593
23062SOL     OW71024   9.295   9.667   5.689
23062SOL    HW171025   9.214   9.699   5.728
23062SOL    HW271026   9.267   9.606   5.621
23063SOL     OW71027   8.475  10.410   5.654
23063SOL    HW171028   8.466  10.455   5.738
23063SOL    HW271029   8.566  10.381   5.653
23064SOL     OW71030   5.242   7.587   4.393
23064SOL    HW171031   5.232   7.501   4.352
23064SOL    HW271032   5.332   7.612   4.373
23065SOL     OW71033   1.453   0.134  12.971
23065SOL    HW171034   1.449   0.222  13.010
23065SOL    HW271035   1.464   0.075  13.046
23066SOL     OW71036   2.304   5.830   2.156
23066SOL    HW171037   2.362   5.755   2.169
23066SOL    HW271038   2.253   5.835   2.236
23067SOL     OW71039   3.663   3.420   4.379
23067SOL    HW171040   3.608   3.489   4.415
23067SOL    HW271041   3.749   3.460   4.368
23068SOL     OW71042   0.081   8.932  10.572
23068SOL    HW171043   0.079   8.984  10.652
23068SOL    HW271044  14.869   8.924  10.546
23069SOL     OW71045   8.793   1.033   4.757
23069SOL    HW171046   8.809   1.103   4.821
23069SOL    HW271047   8.880   1.011   4.724
23070SOL     OW71048   3.148  11.775   9.581
23070SOL    HW171049   3.155  11.793   9.487
23070SOL    HW271050   3.109  11.688   9.587
23071SOL     OW71051   9.565   1.514  11.970
23071SOL    HW171052   9.654   1.545  11.989
23071SOL    HW271053   9.519   1.593  11.941
23072SOL     OW71054   5.748   0.139   5.011
23072SOL    HW171055   5.694   0.084   4.954
23072SOL    HW271056   5.801   0.191   4.951
23073SOL     OW71057  10.620  14.271  12.365
23073SOL    HW171058  10.706  14.262  12.406
23073SOL    HW271059  10.563  14.215  12.417
23074SOL     OW71060  11.004   7.076  13.490
23074SOL    HW171061  10.921   7.054  13.448
23074SOL    HW271062  11.071   7.042  13.431
23075SOL     OW71063  12.640   2.957   0.668
23075SOL    HW171064  12.560   2.959   0.720
23075SOL    HW271065  12.676   2.870   0.681
23076SOL     OW71066  14.674   6.061   7.867
23076SOL    HW171067  14.587   6.101   7.866
23076SOL    HW271068  14.674   6.002   7.791
23077SOL     OW71069  13.105   1.249   6.493
23077SOL    HW171070  13.165   1.189   6.448
23077SOL    HW271071  13.154   1.330   6.502
23078SOL     OW71072   4.532   1.697   3.436
23078SOL    HW171073   4.578   1.743   3.505
23078SOL    HW271074   4.455   1.751   3.418
23079SOL     OW71075   1.254  10.973  13.188
23079SOL    HW171076   1.225  10.972  13.279
23079SOL    HW271077   1.191  10.918  13.141
23080SOL     OW71078   9.195  12.503   2.105
23080SOL    HW171079   9.260  12.450   2.151
23080SOL    HW271080   9.243  12.545   2.034
23081SOL     OW71081   3.451   5.883  10.891
23081SOL    HW171082   3.466   5.889  10.797
23081SOL    HW271083   3.484   5.966  10.926
23082SOL     OW71084  10.391  13.420   6.483
23082SOL    HW171085  10.405  13.504   6.526
23082SOL    HW271086  10.439  13.357   6.537
23083SOL     OW71087  12.645  14.275   0.136
23083SOL    HW171088  12.619  14.304   0.048
23083SOL    HW271089  12.731  14.314   0.149
23084SOL     OW71090  10.990   3.154   1.299
23084SOL    HW171091  10.999   3.165   1.204
23084SOL    HW271092  10.917   3.094   1.310
23085SOL     OW71093   9.706   8.025  13.776
23085SOL    HW171094   9.697   7.932  13.755
23085SOL    HW271095   9.683   8.071  13.696
23086SOL     OW71096   0.035   9.941  10.149
23086SOL    HW171097   0.114   9.963  10.199
23086SOL    HW271098   0.012  10.021  10.103
23087SOL     OW71099  11.814   1.842   0.551
23087SOL    HW171100  11.823   1.779   0.622
23087SOL    HW271101  11.723   1.872   0.556
23088SOL     OW71102   4.712  14.049  11.337
23088SOL    HW171103   4.749  14.108  11.401
23088SOL    HW271104   4.683  14.105  11.265
23089SOL     OW71105   1.983   1.660   0.036
23089SOL    HW171106   1.933   1.739   0.054
23089SOL    HW271107   1.937   1.591   0.085
23090SOL     OW71108   3.638   4.444   8.194
23090SOL    HW171109   3.575   4.493   8.247
23090SOL    HW271110   3.710   4.505   8.180
23091SOL     OW71111   6.240   6.906   6.878
23091SOL    HW171112   6.149   6.882   6.896
23091SOL    HW271113   6.291   6.832   6.911
23092SOL     OW71114   7.601   2.963   8.012
23092SOL    HW171115   7.663   2.982   7.942
23092SOL    HW271116   7.614   3.034   8.076
23093SOL     OW71117  11.088  11.182  12.015
23093SOL    HW171118  11.054  11.271  12.012
23093SOL    HW271119  11.014  11.127  11.989
23094SOL     OW71120  10.988  10.482  11.487
23094SOL    HW171121  11.071  10.525  11.465
23094SOL    HW271122  11.011  10.389  11.495
23095SOL     OW71123  14.537   5.206  11.260
23095SOL    HW171124  14.491   5.140  11.311
23095SOL    HW271125  14.573   5.159  11.186
23096SOL     OW71126   5.288   8.081   2.026
23096SOL    HW171127   5.354   8.151   2.023
23096SOL    HW271128   5.312   8.028   2.102
23097SOL     OW71129   4.195  12.774   9.185
23097SOL    HW171130   4.226  12.699   9.234
23097SOL    HW271131   4.117  12.804   9.233
23098SOL     OW71132   8.048   9.870   4.779
23098SOL    HW171133   7.998   9.792   4.754
23098SOL    HW271134   7.987   9.923   4.830
23099SOL     OW71135  14.734  12.206  14.114
23099SOL    HW171136  14.687  12.227  14.033
23099SOL    HW271137  14.676  12.236  14.183
23100SOL     OW71138  14.670   8.643   6.316
23100SOL    HW171139  14.742   8.701   6.343
23100SOL    HW271140  14.599   8.703   6.292
23101SOL     OW71141   7.627   4.942   3.010
23101SOL    HW171142   7.595   4.949   2.920
23101SOL    HW271143   7.722   4.938   3.002
23102SOL     OW71144  14.695   5.023   7.981
23102SOL    HW171145  14.788   5.037   7.966
23102SOL    HW271146  14.691   4.941   8.030
23103SOL     OW71147   3.457   5.373  10.912
23103SOL    HW171148   3.405   5.442  10.954
23103SOL    HW271149   3.433   5.378  10.819
23104SOL     OW71150  14.601   0.754   6.744
23104SOL    HW171151  14.665   0.728   6.810
23104SOL    HW271152  14.602   0.683   6.679
23105SOL     OW71153   0.735   5.405  12.124
23105SOL    HW171154   0.729   5.421  12.218
23105SOL    HW271155   0.827   5.420  12.102
23106SOL     OW71156  10.842  11.371   7.435
23106SOL    HW171157  10.795  11.309   7.491
23106SOL    HW271158  10.911  11.320   7.394
23107SOL     OW71159   0.381  11.443   7.851
23107SOL    HW171160   0.428  11.524   7.871
23107SOL    HW271161   0.342  11.416   7.934
23108SOL     OW71162   4.326   2.658   2.518
23108SOL    HW171163   4.253   2.597   2.532
23108SOL    HW271164   4.319   2.682   2.425
23109SOL     OW71165   4.842   1.862   4.533
23109SOL    HW171166   4.872   1.878   4.444
23109SOL    HW271167   4.864   1.942   4.581
23110SOL     OW71168   9.016   6.548   0.500
23110SOL    HW171169   8.945   6.525   0.561
23110SOL    HW271170   8.986   6.515   0.415
23111SOL     OW71171   4.211   7.701   9.812
23111SOL    HW171172   4.177   7.770   9.756
23111SOL    HW271173   4.147   7.693   9.883
23112SOL     OW71174  13.112  12.880   4.023
23112SOL    HW171175  13.156  12.881   3.938
23112SOL    HW271176  13.025  12.916   4.005
23113SOL     OW71177   2.697   9.083   5.202
23113SOL    HW171178   2.787   9.096   5.171
23113SOL    HW271179   2.642   9.115   5.130
23114SOL     OW71180  10.388   9.407   1.556
23114SOL    HW171181  10.332   9.432   1.483
23114SOL    HW271182  10.400   9.313   1.546
23115SOL     OW71183  10.260   0.785   5.381
23115SOL    HW171184  10.294   0.786   5.291
23115SOL    HW271185  10.307   0.856   5.425
23116SOL     OW71186   2.563  10.763   7.720
23116SOL    HW171187   2.569  10.820   7.797
23116SOL    HW271188   2.623  10.691   7.739
23117SOL     OW71189   1.593   3.423   7.126
23117SOL    HW171190   1.530   3.453   7.191
23117SOL    HW271191   1.642   3.502   7.102
23118SOL     OW71192   4.676   6.268   2.597
23118SOL    HW171193   4.635   6.289   2.681
23118SOL    HW271194   4.617   6.206   2.556
23119SOL     OW71195   3.343  12.608   2.893
23119SOL    HW171196   3.402  12.610   2.969
23119SOL    HW271197   3.287  12.532   2.908
23120SOL     OW71198  13.594   5.594   5.316
23120SOL    HW171199  13.564   5.668   5.368
23120SOL    HW271200  13.517   5.566   5.267
23121SOL     OW71201   3.016   1.633  10.821
23121SOL    HW171202   2.960   1.557  10.832
23121SOL    HW271203   2.979   1.679  10.746
23122SOL     OW71204  14.553   9.893   2.285
23122SOL    HW171205  14.636   9.862   2.249
23122SOL    HW271206  14.575   9.928   2.371
23123SOL     OW71207   8.498   8.718  11.366
23123SOL    HW171208   8.581   8.766  11.369
23123SOL    HW271209   8.524   8.627  11.350
23124SOL     OW71210  11.096  13.558  13.615
23124SOL    HW171211  11.023  13.544  13.676
23124SOL    HW271212  11.066  13.517  13.534
23125SOL     OW71213   3.779  12.040  11.274
23125SOL    HW171214   3.815  11.954  11.293
23125SOL    HW271215   3.703  12.048  11.333
23126SOL     OW71216   7.770   1.808  14.719
23126SOL    HW171217   7.735   1.723  14.692
23126SOL    HW271218   7.699   1.870  14.704
23127SOL     OW71219   2.937   2.584   8.048
23127SOL    HW171220   2.876   2.565   8.120
23127SOL    HW271221   2.927   2.678   8.032
23128SOL     OW71222  10.406   9.712  11.142
23128SOL    HW171223  10.344   9.751  11.081
23128SOL    HW271224  10.454   9.787  11.178
23129SOL     OW71225   8.525   7.817  13.359
23129SOL    HW171226   8.441   7.783  13.392
23129SOL    HW271227   8.506   7.842  13.268
23130SOL     OW71228  10.958  13.721   4.741
23130SOL    HW171229  11.003  13.766   4.670
23130SOL    HW271230  10.923  13.642   4.701
23131SOL     OW71231   0.524  11.744   2.031
23131SOL    HW171232   0.549  11.762   2.122
23131SOL    HW271233   0.592  11.683   2.000
23132SOL     OW71234  13.481  12.632   4.626
23132SOL    HW171235  13.388  12.642   4.647
23132SOL    HW271236  13.489  12.663   4.536
23133SOL     OW71237  14.381   7.143   2.220
23133SOL    HW171238  14.319   7.114   2.286
23133SOL    HW271239  14.327   7.184   2.153
23134SOL     OW71240   2.615   7.184   2.988
23134SOL    HW171241   2.654   7.123   3.051
23134SOL    HW271242   2.681   7.193   2.919
23135SOL     OW71243   8.895   3.579   9.907
23135SOL    HW171244   8.975   3.609   9.864
23135SOL    HW271245   8.825   3.633   9.870
23136SOL     OW71246  10.312   2.383  13.190
23136SOL    HW171247  10.322   2.449  13.259
23136SOL    HW271248  10.312   2.300  13.237
23137SOL     OW71249   9.798  12.542   0.484
23137SOL    HW171250   9.731  12.609   0.497
23137SOL    HW271251   9.787  12.482   0.558
23138SOL     OW71252   4.919   1.815   9.690
23138SOL    HW171253   4.986   1.852   9.633
23138SOL    HW271254   4.860   1.887   9.709
23139SOL     OW71255   3.165   5.831   0.834
23139SOL    HW171256   3.251   5.872   0.819
23139SOL    HW271257   3.184   5.737   0.839
23140SOL     OW71258   5.952   3.751  14.463
23140SOL    HW171259   6.030   3.784  14.507
23140SOL    HW271260   5.930   3.671  14.510
23141SOL     OW71261  12.707   8.469  11.004
23141SOL    HW171262  12.623   8.434  10.975
23141SOL    HW271263  12.689   8.561  11.026
23142SOL     OW71264  11.743   6.982   2.001
23142SOL    HW171265  11.783   7.018   2.080
23142SOL    HW271266  11.682   7.050   1.972
23143SOL     OW71267   2.664   1.963   6.121
23143SOL    HW171268   2.698   1.923   6.202
23143SOL    HW271269   2.677   2.057   6.134
23144SOL     OW71270   0.460  14.147   2.318
23144SOL    HW171271   0.502  14.153   2.233
23144SOL    HW271272   0.486  14.062   2.352
23145SOL     OW71273   9.080   3.931   0.214
23145SOL    HW171274   9.026   4.002   0.249
23145SOL    HW271275   9.026   3.853   0.222
23146SOL     OW71276   4.036   4.613   3.487
23146SOL    HW171277   4.081   4.531   3.468
23146SOL    HW271278   3.946   4.587   3.505
23147SOL     OW71279  10.897   6.230   1.621
23147SOL    HW171280  10.909   6.285   1.544
23147SOL    HW271281  10.803   6.213   1.626
23148SOL     OW71282   8.744  13.767  13.523
23148SOL    HW171283   8.726  13.860  13.534
23148SOL    HW271284   8.664  13.723  13.550
23149SOL     OW71285   3.668   6.648   7.393
23149SOL    HW171286   3.669   6.563   7.438
23149SOL    HW271287   3.760   6.666   7.374
23150SOL     OW71288   4.888  12.744   3.529
23150SOL    HW171289   4.956  12.730   3.594
23150SOL    HW271290   4.934  12.742   3.445
23151SOL     OW71291   8.974  11.685   3.310
23151SOL    HW171292   8.933  11.756   3.260
23151SOL    HW271293   8.916  11.610   3.297
23152SOL     OW71294  11.106  12.608  10.115
23152SOL    HW171295  11.152  12.525  10.103
23152SOL    HW271296  11.041  12.610  10.046
23153SOL     OW71297  14.664  10.722   3.532
23153SOL    HW171298  14.570  10.724   3.514
23153SOL    HW271299  14.704  10.700   3.448
23154SOL     OW71300   9.885   1.931  11.280
23154SOL    HW171301   9.960   1.895  11.233
23154SOL    HW271302   9.831   1.970  11.212
23155SOL     OW71303   7.036   7.898  13.278
23155SOL    HW171304   7.030   7.814  13.325
23155SOL    HW271305   7.098   7.881  13.208
23156SOL     OW71306  12.883   6.806   4.131
23156SOL    HW171307  12.810   6.782   4.074
23156SOL    HW271308  12.844   6.861   4.199
23157SOL     OW71309   8.350   6.800   4.147
23157SOL    HW171310   8.366   6.888   4.181
23157SOL    HW271311   8.255   6.793   4.143
23158SOL     OW71312   7.029   4.121  14.726
23158SOL    HW171313   7.098   4.138  14.662
23158SOL    HW271314   7.070   4.139  14.811
23159SOL     OW71315   5.712  14.764   9.912
23159SOL    HW171316   5.621  14.784   9.936
23159SOL    HW271317   5.706  14.729   9.823
23160SOL     OW71318  13.906  14.716  13.234
23160SOL    HW171319  13.962  14.697  13.309
23160SOL    HW271320  13.819  14.684  13.260
23161SOL     OW71321   7.588   2.041  11.394
23161SOL    HW171322   7.591   1.975  11.463
23161SOL    HW271323   7.581   2.124  11.441
23162SOL     OW71324   8.964   1.619   9.748
23162SOL    HW171325   8.992   1.554   9.684
23162SOL    HW271326   8.884   1.656   9.712
23163SOL     OW71327   2.669  13.894   6.142
23163SOL    HW171328   2.708  13.973   6.104
23163SOL    HW271329   2.636  13.845   6.066
23164SOL     OW71330   4.091  13.111  12.592
23164SOL    HW171331   4.178  13.078  12.567
23164SOL    HW271332   4.089  13.102  12.687
23165SOL     OW71333   2.722   4.770   5.926
23165SOL    HW171334   2.682   4.692   5.964
23165SOL    HW271335   2.798   4.786   5.981
23166SOL     OW71336  13.924   3.138   4.921
23166SOL    HW171337  13.877   3.103   4.997
23166SOL    HW271338  13.952   3.225   4.950
23167SOL     OW71339  10.618   8.058   8.543
23167SOL    HW171340  10.672   7.995   8.591
23167SOL    HW271341  10.621   8.137   8.597
23168SOL     OW71342   8.418   2.318   1.789
23168SOL    HW171343   8.395   2.234   1.830
23168SOL    HW271344   8.334   2.353   1.758
23169SOL     OW71345   7.298  10.756  12.158
23169SOL    HW171346   7.297  10.828  12.095
23169SOL    HW271347   7.222  10.772  12.214
23170SOL     OW71348   9.223   5.177  13.514
23170SOL    HW171349   9.213   5.266  13.549
23170SOL    HW271350   9.260   5.127  13.587
23171SOL     OW71351   4.838   4.336  14.597
23171SOL    HW171352   4.864   4.427  14.611
23171SOL    HW271353   4.744   4.339  14.581
23172SOL     OW71354   9.664   0.440   9.778
23172SOL    HW171355   9.605   0.429   9.853
23172SOL    HW271356   9.747   0.403   9.808
23173SOL     OW71357   1.369  11.680   9.533
23173SOL    HW171358   1.284  11.693   9.575
23173SOL    HW271359   1.431  11.730   9.586
23174SOL     OW71360  12.408   1.409   8.211
23174SOL    HW171361  12.417   1.377   8.301
23174SOL    HW271362  12.427   1.503   8.218
23175SOL     OW71363   2.148  10.157  14.641
23175SOL    HW171364   2.164  10.251  14.630
23175SOL    HW271365   2.060  10.152  14.678
23176SOL     OW71366  10.927   6.176   2.618
23176SOL    HW171367  10.878   6.094   2.607
23176SOL    HW271368  10.988   6.177   2.545
23177SOL     OW71369   6.847  14.873  11.180
23177SOL    HW171370   6.807  14.792  11.212
23177SOL    HW271371   6.919   0.011  11.240
23178SOL     OW71372  11.025   3.142  14.331
23178SOL    HW171373  10.952   3.088  14.363
23178SOL    HW271374  11.013   3.144  14.236
23179SOL     OW71375   8.231   6.391   7.660
23179SOL    HW171376   8.177   6.428   7.590
23179SOL    HW271377   8.252   6.302   7.630
23180SOL     OW71378  14.375   3.241   0.876
23180SOL    HW171379  14.349   3.263   0.786
23180SOL    HW271380  14.414   3.154   0.869
23181SOL     OW71381  14.205   2.946  13.086
23181SOL    HW171382  14.286   2.996  13.072
23181SOL    HW271383  14.232   2.872  13.140
23182SOL     OW71384   1.029   3.288  14.206
23182SOL    HW171385   0.938   3.308  14.228
23182SOL    HW271386   1.081   3.353  14.253
23183SOL     OW71387   8.048  10.749  11.345
23183SOL    HW171388   8.007  10.700  11.417
23183SOL    HW271389   8.046  10.840  11.375
23184SOL     OW71390   0.444   7.284   5.919
23184SOL    HW171391   0.504   7.294   5.993
23184SOL    HW271392   0.465   7.357   5.861
23185SOL     OW71393  11.479   8.265   9.035
23185SOL    HW171394  11.523   8.349   9.038
23185SOL    HW271395  11.430   8.266   8.952
23186SOL     OW71396   6.663  10.429   9.725
23186SOL    HW171397   6.753  10.434   9.693
23186SOL    HW271398   6.626  10.353   9.681
23187SOL     OW71399   7.740   3.943  11.113
23187SOL    HW171400   7.817   4.000  11.106
23187SOL    HW271401   7.755   3.874  11.049
23188SOL     OW71402   8.026  14.456   0.458
23188SOL    HW171403   7.981  14.472   0.541
23188SOL    HW271404   8.107  14.411   0.483
23189SOL     OW71405   5.284   7.025  12.530
23189SOL    HW171406   5.229   7.098  12.557
23189SOL    HW271407   5.372   7.063  12.522
23190SOL     OW71408   7.056   6.849   5.325
23190SOL    HW171409   7.137   6.807   5.298
23190SOL    HW271410   6.996   6.776   5.341
23191SOL     OW71411  10.345   7.139   5.514
23191SOL    HW171412  10.253   7.128   5.537
23191SOL    HW271413  10.345   7.152   5.419
23192SOL     OW71414   8.994   7.293   3.039
23192SOL    HW171415   8.949   7.291   2.954
23192SOL    HW271416   8.949   7.362   3.088
23193SOL     OW71417  12.075  12.887   5.259
23193SOL    HW171418  11.981  12.895   5.277
23193SOL    HW271419  12.093  12.956   5.195
23194SOL     OW71420   8.357   0.388   8.895
23194SOL    HW171421   8.388   0.303   8.928
23194SOL    HW271422   8.353   0.376   8.800
23195SOL     OW71423   6.392   7.425  11.543
23195SOL    HW171424   6.371   7.383  11.626
23195SOL    HW271425   6.308   7.456  11.510
23196SOL     OW71426   8.604   1.606  11.228
23196SOL    HW171427   8.522   1.624  11.274
23196SOL    HW271428   8.588   1.635  11.138
23197SOL     OW71429   3.211   0.910  11.437
23197SOL    HW171430   3.120   0.884  11.423
23197SOL    HW271431   3.206   0.998  11.472
23198SOL     OW71432   3.111  10.036   6.279
23198SOL    HW171433   3.177  10.016   6.212
23198SOL    HW271434   3.059   9.956   6.287
23199SOL     OW71435   1.845   5.700   2.225
23199SOL    HW171436   1.767   5.675   2.273
23199SOL    HW271437   1.830   5.790   2.197
23200SOL     OW71438   3.132   7.506   3.423
23200SOL    HW171439   3.126   7.597   3.451
23200SOL    HW271440   3.125   7.509   3.328
23201SOL     OW71441   0.172  12.292   5.775
23201SOL    HW171442   0.250  12.237   5.784
23201SOL    HW271443   0.176  12.324   5.685
23202SOL     OW71444   8.146   9.521  10.374
23202SOL    HW171445   8.127   9.519  10.280
23202SOL    HW271446   8.195   9.441  10.390
23203SOL     OW71447   7.767  10.424   4.513
23203SOL    HW171448   7.799  10.472   4.589
23203SOL    HW271449   7.835  10.435   4.447
23204SOL     OW71450   7.723   3.315  11.874
23204SOL    HW171451   7.784   3.363  11.931
23204SOL    HW271452   7.661   3.274  11.934
23205SOL     OW71453   8.989   7.323  13.849
23205SOL    HW171454   8.927   7.251  13.844
23205SOL    HW271455   9.041   7.305  13.927
23206SOL     OW71456   6.412   0.685   9.243
23206SOL    HW171457   6.336   0.743   9.240
23206SOL    HW271458   6.455   0.706   9.325
23207SOL     OW71459   6.985   6.570   1.399
23207SOL    HW171460   7.044   6.505   1.362
23207SOL    HW271461   6.899   6.549   1.363
23208SOL     OW71462   1.199   9.775   5.881
23208SOL    HW171463   1.110   9.804   5.858
23208SOL    HW271464   1.228   9.727   5.803
23209SOL     OW71465  13.308  13.266   1.719
23209SOL    HW171466  13.252  13.311   1.656
23209SOL    HW271467  13.337  13.334   1.780
23210SOL     OW71468   7.746  11.225   9.353
23210SOL    HW171469   7.731  11.277   9.274
23210SOL    HW271470   7.700  11.143   9.337
23211SOL     OW71471   4.911   7.578   1.425
23211SOL    HW171472   5.003   7.560   1.447
23211SOL    HW271473   4.873   7.609   1.507
23212SOL     OW71474   5.148   3.139   4.583
23212SOL    HW171475   5.173   3.077   4.515
23212SOL    HW271476   5.082   3.195   4.542
23213SOL     OW71477   5.641   1.665  14.174
23213SOL    HW171478   5.661   1.754  14.145
23213SOL    HW271479   5.562   1.642  14.126
23214SOL     OW71480  12.545   4.177  10.962
23214SOL    HW171481  12.635   4.207  10.948
23214SOL    HW271482  12.552   4.117  11.036
23215SOL     OW71483  14.676   4.716   3.315
23215SOL    HW171484  14.609   4.777   3.345
23215SOL    HW271485  14.652   4.632   3.354
23216SOL     OW71486  14.526   2.853   6.327
23216SOL    HW171487  14.493   2.918   6.390
23216SOL    HW271488  14.483   2.771   6.353
23217SOL     OW71489   2.847   9.830  10.956
23217SOL    HW171490   2.893   9.878  10.888
23217SOL    HW271491   2.873   9.873  11.038
23218SOL     OW71492   0.275   1.392   3.761
23218SOL    HW171493   0.278   1.309   3.809
23218SOL    HW271494   0.199   1.383   3.703
23219SOL     OW71495   9.686  12.473  12.725
23219SOL    HW171496   9.650  12.387  12.747
23219SOL    HW271497   9.781  12.463  12.738
23220SOL     OW71498   1.801  12.187  10.043
23220SOL    HW171499   1.717  12.163  10.083
23220SOL    HW271500   1.864  12.181  10.115
23221SOL     OW71501  11.271   4.459   9.373
23221SOL    HW171502  11.197   4.441   9.431
23221SOL    HW271503  11.325   4.521   9.422
23222SOL     OW71504   4.650  10.889   8.522
23222SOL    HW171505   4.564  10.925   8.544
23222SOL    HW271506   4.689  10.865   8.607
23223SOL     OW71507  12.695   4.337  10.670
23223SOL    HW171508  12.778   4.328  10.716
23223SOL    HW271509  12.719   4.331  10.577
23224SOL     OW71510  14.683   6.053  14.759
23224SOL    HW171511  14.705   5.961  14.777
23224SOL    HW271512  14.596   6.064  14.796
23225SOL     OW71513   9.525  12.136  13.601
23225SOL    HW171514   9.492  12.129  13.512
23225SOL    HW271515   9.620  12.132  13.591
23226SOL     OW71516   9.220  10.090   8.667
23226SOL    HW171517   9.192  10.159   8.727
23226SOL    HW271518   9.160  10.096   8.593
23227SOL     OW71519   9.259   4.940   6.444
23227SOL    HW171520   9.324   4.900   6.502
23227SOL    HW271521   9.252   5.031   6.473
23228SOL     OW71522  12.297   8.395  10.604
23228SOL    HW171523  12.269   8.367  10.691
23228SOL    HW271524  12.256   8.480  10.591
23229SOL     OW71525   9.231   8.615   3.847
23229SOL    HW171526   9.136   8.611   3.857
23229SOL    HW271527   9.254   8.706   3.863
23230SOL     OW71528  11.500   0.143  12.092
23230SOL    HW171529  11.427   0.097  12.050
23230SOL    HW271530  11.567   0.150  12.023
23231SOL     OW71531  11.302   0.008  11.944
23231SOL    HW171532  11.286  14.844  11.860
23231SOL    HW271533  11.258  14.832  12.008
23232SOL     OW71534  13.905   1.379   3.178
23232SOL    HW171535  13.998   1.364   3.159
23232SOL    HW271536  13.903   1.410   3.268
23233SOL     OW71537  13.355   9.330   5.925
23233SOL    HW171538  13.378   9.367   6.011
23233SOL    HW271539  13.262   9.309   5.934
23234SOL     OW71540  13.561   8.701   0.280
23234SOL    HW171541  13.543   8.704   0.186
23234SOL    HW271542  13.488   8.749   0.320
23235SOL     OW71543   2.475  14.872  14.740
23235SOL    HW171544   2.547   0.048  14.711
23235SOL    HW271545   2.403   0.013  14.681
23236SOL     OW71546   1.981  12.883   5.210
23236SOL    HW171547   1.924  12.932   5.269
23236SOL    HW271548   1.944  12.897   5.123
23237SOL     OW71549   6.626  14.093  14.090
23237SOL    HW171550   6.657  14.065  14.004
23237SOL    HW271551   6.706  14.097  14.143
23238SOL     OW71552  11.616   6.355  11.947
23238SOL    HW171553  11.687   6.407  11.985
23238SOL    HW271554  11.661   6.288  11.895
23239SOL     OW71555   4.091  11.842  13.759
23239SOL    HW171556   4.043  11.836  13.842
23239SOL    HW271557   4.129  11.930  13.760
23240SOL     OW71558   0.425   1.095   4.773
23240SOL    HW171559   0.479   1.168   4.803
23240SOL    HW271560   0.351   1.095   4.834
23241SOL     OW71561   7.846  14.185  10.477
23241SOL    HW171562   7.878  14.114  10.422
23241SOL    HW271563   7.768  14.150  10.520
23242SOL     OW71564   7.150  10.534  13.462
23242SOL    HW171565   7.085  10.481  13.508
23242SOL    HW271566   7.185  10.475  13.394
23243SOL     OW71567   6.381  12.906  12.957
23243SOL    HW171568   6.471  12.923  12.928
23243SOL    HW271569   6.351  12.833  12.902
23244SOL     OW71570   9.691  13.006  10.639
23244SOL    HW171571   9.759  13.064  10.670
23244SOL    HW271572   9.638  12.986  10.716
23245SOL     OW71573   3.814  12.331   3.498
23245SOL    HW171574   3.800  12.385   3.577
23245SOL    HW271575   3.858  12.252   3.531
23246SOL     OW71576   0.809  11.621   2.174
23246SOL    HW171577   0.866  11.605   2.250
23246SOL    HW271578   0.859  11.680   2.118
23247SOL     OW71579   3.026   5.424   0.879
23247SOL    HW171580   3.014   5.473   0.960
23247SOL    HW271581   3.103   5.464   0.838
23248SOL     OW71582   1.577   7.399   1.036
23248SOL    HW171583   1.545   7.322   1.082
23248SOL    HW271584   1.539   7.392   0.948
23249SOL     OW71585   6.838   0.933   1.006
23249SOL    HW171586   6.766   0.880   1.041
23249SOL    HW271587   6.903   0.868   0.977
23250SOL     OW71588   2.192  10.676   0.850
23250SOL    HW171589   2.099  10.658   0.838
23250SOL    HW271590   2.217  10.627   0.928
23251SOL     OW71591   2.067   5.917   8.283
23251SOL    HW171592   2.075   6.006   8.316
23251SOL    HW271593   1.994   5.879   8.332
23252SOL     OW71594  14.590  11.301   4.462
23252SOL    HW171595  14.657  11.369   4.453
23252SOL    HW271596  14.589  11.281   4.556
23253SOL     OW71597   3.704  11.694  14.178
23253SOL    HW171598   3.639  11.649  14.123
23253SOL    HW271599   3.784  11.692  14.127
23254SOL     OW71600  13.784  11.027   8.528
23254SOL    HW171601  13.770  11.077   8.608
23254SOL    HW271602  13.721  10.955   8.533
23255SOL     OW71603   1.980   1.519  12.853
23255SOL    HW171604   1.928   1.459  12.907
23255SOL    HW271605   2.070   1.503  12.880
23256SOL     OW71606   8.122   3.339   3.410
23256SOL    HW171607   8.155   3.428   3.422
23256SOL    HW271608   8.069   3.344   3.330
23257SOL     OW71609   6.221   1.913   9.171
23257SOL    HW171610   6.181   1.906   9.084
23257SOL    HW271611   6.230   1.822   9.201
23258SOL     OW71612  10.889  11.442   5.185
23258SOL    HW171613  10.824  11.373   5.171
23258SOL    HW271614  10.939  11.413   5.262
23259SOL     OW71615  11.518  14.766   9.918
23259SOL    HW171616  11.581  14.754   9.990
23259SOL    HW271617  11.434  14.742   9.956
23260SOL     OW71618  13.549   5.097  12.911
23260SOL    HW171619  13.590   5.170  12.863
23260SOL    HW271620  13.462   5.088  12.871
23261SOL     OW71621   7.633   3.670   7.041
23261SOL    HW171622   7.638   3.604   7.110
23261SOL    HW271623   7.610   3.621   6.962
23262SOL     OW71624  12.218   3.563  10.192
23262SOL    HW171625  12.192   3.628  10.127
23262SOL    HW271626  12.144   3.558  10.252
23263SOL     OW71627   6.354   7.434   2.440
23263SOL    HW171628   6.416   7.504   2.422
23263SOL    HW271629   6.369   7.370   2.370
23264SOL     OW71630   8.063   6.963   4.473
23264SOL    HW171631   8.112   6.964   4.390
23264SOL    HW271632   8.131   6.956   4.540
23265SOL     OW71633   7.474   9.715   6.423
23265SOL    HW171634   7.434   9.766   6.493
23265SOL    HW271635   7.400   9.679   6.373
23266SOL     OW71636  13.871  12.462   8.123
23266SOL    HW171637  13.886  12.421   8.038
23266SOL    HW271638  13.788  12.425   8.153
23267SOL     OW71639  14.725   1.267   5.553
23267SOL    HW171640  14.663   1.292   5.484
23267SOL    HW271641  14.810   1.268   5.510
23268SOL     OW71642   4.969  10.590   1.009
23268SOL    HW171643   4.897  10.653   1.004
23268SOL    HW271644   5.043  10.634   0.967
23269SOL     OW71645   2.838   1.856  10.422
23269SOL    HW171646   2.860   1.932  10.369
23269SOL    HW271647   2.807   1.791  10.358
23270SOL     OW71648   5.867  13.685  10.004
23270SOL    HW171649   5.919  13.609   9.980
23270SOL    HW271650   5.843  13.670  10.096
23271SOL     OW71651   2.552   7.374  14.671
23271SOL    HW171652   2.601   7.292  14.685
23271SOL    HW271653   2.509   7.390  14.756
23272SOL     OW71654  13.224  13.269   5.296
23272SOL    HW171655  13.198  13.251   5.206
23272SOL    HW271656  13.242  13.363   5.298
23273SOL     OW71657   1.698   8.477  10.561
23273SOL    HW171658   1.746   8.395  10.563
23273SOL    HW271659   1.633   8.465  10.491
23274SOL     OW71660   9.692  12.741   5.570
23274SOL    HW171661   9.765  12.692   5.532
23274SOL    HW271662   9.710  12.742   5.664
23275SOL     OW71663   7.756   3.527   4.302
23275SOL    HW171664   7.688   3.591   4.324
23275SOL    HW271665   7.799   3.509   4.385
23276SOL     OW71666   5.591   9.313  10.308
23276SOL    HW171667   5.548   9.374  10.247
23276SOL    HW271668   5.530   9.306  10.382
23277SOL     OW71669   8.465  14.343  10.350
23277SOL    HW171670   8.533  14.278  10.335
23277SOL    HW271671   8.390  14.293  10.383
23278SOL     OW71672  11.627  13.919   0.873
23278SOL    HW171673  11.626  13.853   0.804
23278SOL    HW271674  11.583  13.995   0.835
23279SOL     OW71675   7.825  13.985  10.134
23279SOL    HW171676   7.737  14.010  10.164
23279SOL    HW271677   7.885  14.036  10.188
23280SOL     OW71678  11.243   8.685   6.030
23280SOL    HW171679  11.332   8.673   6.063
23280SOL    HW271680  11.194   8.610   6.063
23281SOL     OW71681   6.845  12.925   5.434
23281SOL    HW171682   6.847  13.003   5.380
23281SOL    HW271683   6.752  12.909   5.451
23282SOL     OW71684   6.717   5.539  13.731
23282SOL    HW171685   6.808   5.535  13.762
23282SOL    HW271686   6.723   5.519  13.638
23283SOL     OW71687  14.810   6.975  10.171
23283SOL    HW171688  14.752   6.905  10.204
23283SOL    HW271689   0.016   6.953  10.207
23284SOL     OW71690   1.917  14.135   6.317
23284SOL    HW171691   1.914  14.230   6.311
23284SOL    HW271692   2.010  14.115   6.332
23285SOL     OW71693   2.377   6.707   0.762
23285SOL    HW171694   2.473   6.704   0.759
23285SOL    HW271695   2.357   6.765   0.834
23286SOL     OW71696   8.584   9.780  11.015
23286SOL    HW171697   8.645   9.851  11.036
23286SOL    HW271698   8.630   9.729  10.948
23287SOL     OW71699   9.121  14.249   1.381
23287SOL    HW171700   9.108  14.342   1.396
23287SOL    HW271701   9.157  14.217   1.464
23288SOL     OW71702  13.362   1.402   3.498
23288SOL    HW171703  13.421   1.476   3.481
23288SOL    HW271704  13.312   1.392   3.417
23289SOL     OW71705   1.015   2.403  10.506
23289SOL    HW171706   1.078   2.342  10.544
23289SOL    HW271707   1.060   2.488  10.509
23290SOL     OW71708   4.590   6.942   2.472
23290SOL    HW171709   4.584   7.038   2.475
23290SOL    HW271710   4.502   6.914   2.444
23291SOL     OW71711  12.268   4.100   6.807
23291SOL    HW171712  12.299   4.184   6.773
23291SOL    HW271713  12.177   4.093   6.777
23292SOL     OW71714  11.592  10.147  10.598
23292SOL    HW171715  11.521  10.153  10.534
23292SOL    HW271716  11.588  10.229  10.646
23293SOL     OW71717   8.344   1.970   6.671
23293SOL    HW171718   8.399   2.005   6.741
23293SOL    HW271719   8.351   2.036   6.601
23294SOL     OW71720  11.195   8.356   2.657
23294SOL    HW171721  11.137   8.425   2.626
23294SOL    HW271722  11.228   8.389   2.741
23295SOL     OW71723  12.825   4.001   3.883
23295SOL    HW171724  12.781   3.985   3.800
23295SOL    HW271725  12.834   3.915   3.923
23296SOL     OW71726   4.601   2.943  14.364
23296SOL    HW171727   4.685   2.934  14.410
23296SOL    HW271728   4.553   2.863  14.386
23297SOL     OW71729   6.025  13.503   5.000
23297SOL    HW171730   5.991  13.422   5.038
23297SOL    HW271731   6.108  13.518   5.046
23298SOL     OW71732   5.248  14.465   2.039
23298SOL    HW171733   5.177  14.493   1.982
23298SOL    HW271734   5.317  14.529   2.025
23299SOL     OW71735   9.412  13.012   9.442
23299SOL    HW171736   9.468  13.047   9.510
23299SOL    HW271737   9.387  12.925   9.473
23300SOL     OW71738   0.915  10.176   5.009
23300SOL    HW171739   1.002  10.166   5.047
23300SOL    HW271740   0.902  10.097   4.956
23301SOL     OW71741  14.287   2.951   7.587
23301SOL    HW171742  14.331   3.035   7.570
23301SOL    HW271743  14.232   2.969   7.663
23302SOL     OW71744  13.779  13.254  14.465
23302SOL    HW171745  13.715  13.317  14.431
23302SOL    HW271746  13.789  13.190  14.395
23303SOL     OW71747   3.201   9.911   8.448
23303SOL    HW171748   3.295   9.924   8.437
23303SOL    HW271749   3.166   9.999   8.466
23304SOL     OW71750   7.646  12.902   3.039
23304SOL    HW171751   7.601  12.955   2.974
23304SOL    HW271752   7.717  12.859   2.991
23305SOL     OW71753   6.335  11.527  12.775
23305SOL    HW171754   6.398  11.578  12.724
23305SOL    HW271755   6.331  11.572  12.860
23306SOL     OW71756  14.623   9.566   1.552
23306SOL    HW171757  14.701   9.533   1.508
23306SOL    HW271758  14.552   9.508   1.521
23307SOL     OW71759   7.185   0.538  13.126
23307SOL    HW171760   7.102   0.492  13.139
23307SOL    HW271761   7.219   0.501  13.044
23308SOL     OW71762   6.729   0.492   1.155
23308SOL    HW171763   6.698   0.462   1.069
23308SOL    HW271764   6.816   0.526   1.138
23309SOL     OW71765   4.256   4.147  13.765
23309SOL    HW171766   4.280   4.062  13.803
23309SOL    HW271767   4.161   4.150  13.771
23310SOL     OW71768   7.595  12.412   8.265
23310SOL    HW171769   7.669  12.367   8.304
23310SOL    HW271770   7.601  12.395   8.171
23311SOL     OW71771   8.375   8.975  10.018
23311SOL    HW171772   8.334   8.892   9.994
23311SOL    HW271773   8.418   9.005   9.937
23312SOL     OW71774   1.217   9.849  13.598
23312SOL    HW171775   1.200   9.781  13.663
23312SOL    HW271776   1.130   9.881  13.573
23313SOL     OW71777   4.586   8.566  14.618
23313SOL    HW171778   4.498   8.578  14.584
23313SOL    HW271779   4.582   8.484  14.667
23314SOL     OW71780   4.012  12.933   8.291
23314SOL    HW171781   4.091  12.903   8.245
23314SOL    HW271782   3.945  12.937   8.222
23315SOL     OW71783   7.796  12.036   6.754
23315SOL    HW171784   7.749  11.962   6.793
23315SOL    HW271785   7.864  11.996   6.700
23316SOL     OW71786   4.884   0.191  14.366
23316SOL    HW171787   4.889   0.105  14.408
23316SOL    HW271788   4.821   0.179  14.295
23317SOL     OW71789   2.945  10.708   5.944
23317SOL    HW171790   3.011  10.681   6.009
23317SOL    HW271791   2.909  10.625   5.912
23318SOL     OW71792  11.327   6.941   1.673
23318SOL    HW171793  11.289   6.855   1.654
23318SOL    HW271794  11.421   6.925   1.681
23319SOL     OW71795   1.133   8.038   1.714
23319SOL    HW171796   1.038   8.032   1.704
23319SOL    HW271797   1.151   8.131   1.724
23320SOL     OW71798   7.762   2.078   5.993
23320SOL    HW171799   7.731   2.008   5.935
23320SOL    HW271800   7.766   2.037   6.079
23321SOL     OW71801  11.023   5.992   1.575
23321SOL    HW171802  11.115   6.004   1.596
23321SOL    HW271803  10.984   6.079   1.587
23322SOL     OW71804  10.380   2.276   0.980
23322SOL    HW171805  10.441   2.203   0.978
23322SOL    HW271806  10.388   2.316   0.893
23323SOL     OW71807  13.665  11.786  10.046
23323SOL    HW171808  13.669  11.879  10.026
23323SOL    HW271809  13.753  11.753  10.029
23324SOL     OW71810   8.722   6.798  13.977
23324SOL    HW171811   8.715   6.761  13.890
23324SOL    HW271812   8.765   6.883  13.964
23325SOL     OW71813   4.947   3.647   9.963
23325SOL    HW171814   4.947   3.741   9.976
23325SOL    HW271815   4.891   3.613  10.032
23326SOL     OW71816  11.854   7.332   1.895
23326SOL    HW171817  11.767   7.296   1.876
23326SOL    HW271818  11.914   7.261   1.874
23327SOL     OW71819   9.832   6.085   9.528
23327SOL    HW171820   9.848   6.024   9.456
23327SOL    HW271821   9.883   6.050   9.601
23328SOL     OW71822   4.182   3.425  13.402
23328SOL    HW171823   4.216   3.362  13.465
23328SOL    HW271824   4.175   3.377  13.320
23329SOL     OW71825   7.284   7.150   1.244
23329SOL    HW171826   7.271   7.235   1.200
23329SOL    HW271827   7.372   7.123   1.217
23330SOL     OW71828   8.038   0.995  13.242
23330SOL    HW171829   8.095   1.061  13.203
23330SOL    HW271830   8.046   0.919  13.184
23331SOL     OW71831  12.781   6.217   6.334
23331SOL    HW171832  12.842   6.231   6.407
23331SOL    HW271833  12.754   6.306   6.308
23332SOL     OW71834  10.233   7.558  13.500
23332SOL    HW171835  10.237   7.578  13.594
23332SOL    HW271836  10.157   7.605  13.469
23333SOL     OW71837  12.281   1.803   3.900
23333SOL    HW171838  12.250   1.721   3.938
23333SOL    HW271839  12.372   1.811   3.931
23334SOL     OW71840  13.404  11.383   3.291
23334SOL    HW171841  13.431  11.412   3.204
23334SOL    HW271842  13.308  11.379   3.286
23335SOL     OW71843   0.656   5.524   9.268
23335SOL    HW171844   0.719   5.467   9.224
23335SOL    HW271845   0.619   5.578   9.198
23336SOL     OW71846   2.685   1.130   8.014
23336SOL    HW171847   2.708   1.173   7.932
23336SOL    HW271848   2.594   1.104   8.004
23337SOL     OW71849   1.325  13.419   4.900
23337SOL    HW171850   1.391  13.372   4.953
23337SOL    HW271851   1.290  13.486   4.959
23338SOL     OW71852   8.920  14.768   4.308
23338SOL    HW171853   8.861  14.708   4.262
23338SOL    HW271854   8.987  14.790   4.243
23339SOL     OW71855   8.782   7.846  11.131
23339SOL    HW171856   8.781   7.884  11.219
23339SOL    HW271857   8.874   7.851  11.104
23340SOL     OW71858   8.603   0.406  13.525
23340SOL    HW171859   8.597   0.313  13.548
23340SOL    HW271860   8.605   0.452  13.608
23341SOL     OW71861   2.234  11.299  11.288
23341SOL    HW171862   2.173  11.355  11.337
23341SOL    HW271863   2.319  11.342  11.298
23342SOL     OW71864   9.016  12.909  11.541
23342SOL    HW171865   9.062  12.837  11.498
23342SOL    HW271866   9.084  12.975  11.555
23343SOL     OW71867   5.808  11.882   0.636
23343SOL    HW171868   5.736  11.820   0.642
23343SOL    HW271869   5.782  11.955   0.692
23344SOL     OW71870  13.617   3.689  12.159
23344SOL    HW171871  13.645   3.641  12.236
23344SOL    HW271872  13.543   3.638  12.125
23345SOL     OW71873   9.666   1.458   1.097
23345SOL    HW171874   9.656   1.552   1.086
23345SOL    HW271875   9.759   1.445   1.117
23346SOL     OW71876   9.403  13.584  10.312
23346SOL    HW171877   9.409  13.595  10.407
23346SOL    HW271878   9.478  13.529  10.289
23347SOL     OW71879   5.940   6.667   9.416
23347SOL    HW171880   5.971   6.647   9.327
23347SOL    HW271881   6.019   6.692   9.463
23348SOL     OW71882   5.772  11.550  10.260
23348SOL    HW171883   5.691  11.527  10.305
23348SOL    HW271884   5.841  11.535  10.325
23349SOL     OW71885   7.531   3.010  14.530
23349SOL    HW171886   7.550   2.949  14.600
23349SOL    HW271887   7.435   3.014  14.526
23350SOL     OW71888  11.765   2.338   3.974
23350SOL    HW171889  11.715   2.308   3.899
23350SOL    HW271890  11.745   2.432   3.981
23351SOL     OW71891  13.748   8.062  10.926
23351SOL    HW171892  13.697   8.068  10.845
23351SOL    HW271893  13.808   8.136  10.922
23352SOL     OW71894  14.210  12.243  13.159
23352SOL    HW171895  14.164  12.324  13.135
23352SOL    HW271896  14.178  12.223  13.247
23353SOL     OW71897   7.026  11.562  10.115
23353SOL    HW171898   7.027  11.516  10.031
23353SOL    HW271899   6.941  11.540  10.153
23354SOL     OW71900   7.805   5.306   7.193
23354SOL    HW171901   7.792   5.226   7.143
23354SOL    HW271902   7.862   5.280   7.265
23355SOL     OW71903   2.665   5.667   1.109
23355SOL    HW171904   2.619   5.729   1.053
23355SOL    HW271905   2.688   5.594   1.052
23356SOL     OW71906   1.608  14.846  12.290
23356SOL    HW171907   1.596  14.857  12.196
23356SOL    HW271908   1.519  14.836  12.325
23357SOL     OW71909   1.976   6.485   5.717
23357SOL    HW171910   1.883   6.478   5.696
23357SOL    HW271911   1.982   6.469   5.811
23358SOL     OW71912   6.686   0.588  12.309
23358SOL    HW171913   6.775   0.619  12.326
23358SOL    HW271914   6.675   0.514  12.369
23359SOL     OW71915  11.671  10.309   8.505
23359SOL    HW171916  11.723  10.271   8.576
23359SOL    HW271917  11.608  10.241   8.482
23360SOL     OW71918   8.504  13.341   6.801
23360SOL    HW171919   8.544  13.405   6.859
23360SOL    HW271920   8.515  13.257   6.846
23361SOL     OW71921   2.521   4.312   7.247
23361SOL    HW171922   2.440   4.279   7.285
23361SOL    HW271923   2.588   4.289   7.311
23362SOL     OW71924  12.798   0.857   7.504
23362SOL    HW171925  12.716   0.881   7.462
23362SOL    HW271926  12.849   0.938   7.507
23363SOL     OW71927   3.396   0.414   4.594
23363SOL    HW171928   3.366   0.347   4.656
23363SOL    HW271929   3.455   0.468   4.645
23364SOL     OW71930   6.435   9.550  10.937
23364SOL    HW171931   6.399   9.621  10.990
23364SOL    HW271932   6.358   9.499  10.910
23365SOL     OW71933   4.683   3.266  12.423
23365SOL    HW171934   4.594   3.269  12.459
23365SOL    HW271935   4.719   3.353  12.441
23366SOL     OW71936   1.055  13.961   9.928
23366SOL    HW171937   1.124  13.916   9.880
23366SOL    HW271938   1.030  13.900   9.998
23367SOL     OW71939   8.160  12.641   0.536
23367SOL    HW171940   8.133  12.580   0.605
23367SOL    HW271941   8.112  12.721   0.554
23368SOL     OW71942   5.174   6.169   3.325
23368SOL    HW171943   5.249   6.224   3.305
23368SOL    HW271944   5.193   6.086   3.281
23369SOL     OW71945   5.033   9.922   2.952
23369SOL    HW171946   4.984   9.997   2.986
23369SOL    HW271947   5.067   9.951   2.867
23370SOL     OW71948  11.639   6.553   1.975
23370SOL    HW171949  11.643   6.458   1.979
23370SOL    HW271950  11.561   6.572   1.922
23371SOL     OW71951   0.442  14.102   9.225
23371SOL    HW171952   0.381  14.033   9.198
23371SOL    HW271953   0.524  14.080   9.181
23372SOL     OW71954   4.288  13.537  11.030
23372SOL    HW171955   4.249  13.611  10.983
23372SOL    HW271956   4.266  13.461  10.977
23373SOL     OW71957  13.313   8.476  12.489
23373SOL    HW171958  13.335   8.557  12.444
23373SOL    HW271959  13.225   8.454  12.458
23374SOL     OW71960   8.954   3.730   3.635
23374SOL    HW171961   8.943   3.824   3.650
23374SOL    HW271962   8.990   3.724   3.547
23375SOL     OW71963   7.722   7.130   1.669
23375SOL    HW171964   7.630   7.154   1.665
23375SOL    HW271965   7.753   7.167   1.752
23376SOL     OW71966   9.064   7.894  13.378
23376SOL    HW171967   9.080   7.943  13.297
23376SOL    HW271968   8.969   7.884  13.382
23377SOL     OW71969  10.439   9.821   1.165
23377SOL    HW171970  10.516   9.865   1.130
23377SOL    HW271971  10.474   9.747   1.215
23378SOL     OW71972   4.935  12.050   8.983
23378SOL    HW171973   4.899  12.040   8.895
23378SOL    HW271974   4.953  11.960   9.012
23379SOL     OW71975  11.995   8.966   4.694
23379SOL    HW171976  11.900   8.974   4.687
23379SOL    HW271977  12.014   8.879   4.661
23380SOL     OW71978  12.040   9.910  10.922
23380SOL    HW171979  11.990   9.913  11.003
23380SOL    HW271980  12.049  10.001  10.895
23381SOL     OW71981   1.066  11.655   0.324
23381SOL    HW171982   1.117  11.736   0.333
23381SOL    HW271983   0.975  11.682   0.338
23382SOL     OW71984  10.254  12.247   9.049
23382SOL    HW171985  10.203  12.168   9.065
23382SOL    HW271986  10.296  12.233   8.964
23383SOL     OW71987   0.405   9.476  14.549
23383SOL    HW171988   0.316   9.471  14.583
23383SOL    HW271989   0.410   9.407  14.483
23384SOL     OW71990   9.674   0.056  12.745
23384SOL    HW171991   9.624  14.854  12.733
23384SOL    HW271992   9.730   0.061  12.668
23385SOL     OW71993   7.565   9.622   1.561
23385SOL    HW171994   7.529   9.679   1.494
23385SOL    HW271995   7.660   9.635   1.555
23386SOL     OW71996  13.131   1.571  12.411
23386SOL    HW171997  13.222   1.552  12.391
23386SOL    HW271998  13.120   1.543  12.502
23387SOL     OW71999  10.693   6.607   5.731
23387SOL    HW172000  10.775   6.612   5.682
23387SOL    HW272001  10.626   6.599   5.663
23388SOL     OW72002   7.581   6.092  12.565
23388SOL    HW172003   7.631   6.011  12.559
23388SOL    HW272004   7.606   6.142  12.488
23389SOL     OW72005   6.840   3.299   6.543
23389SOL    HW172006   6.814   3.391   6.536
23389SOL    HW272007   6.812   3.273   6.631
23390SOL     OW72008   8.657   9.192  14.685
23390SOL    HW172009   8.588   9.192  14.751
23390SOL    HW272010   8.628   9.128  14.620
23391SOL     OW72011   7.636   3.815   4.617
23391SOL    HW172012   7.708   3.784   4.562
23391SOL    HW272013   7.646   3.767   4.699
23392SOL     OW72014  13.143   5.561   6.460
23392SOL    HW172015  13.147   5.476   6.415
23392SOL    HW272016  13.131   5.624   6.389
23393SOL     OW72017   0.594   2.205   2.409
23393SOL    HW172018   0.508   2.198   2.367
23393SOL    HW272019   0.657   2.191   2.338
23394SOL     OW72020  14.558  11.745   8.937
23394SOL    HW172021  14.549  11.832   8.899
23394SOL    HW272022  14.535  11.685   8.866
23395SOL     OW72023  13.663  11.788   1.641
23395SOL    HW172024  13.570  11.786   1.662
23395SOL    HW272025  13.670  11.849   1.568
23396SOL     OW72026   1.977   0.030  11.453
23396SOL    HW172027   1.883   0.015  11.447
23396SOL    HW272028   2.016  14.828  11.421
23397SOL     OW72029   9.881   1.138   7.185
23397SOL    HW172030   9.871   1.050   7.220
23397SOL    HW272031   9.974   1.158   7.194
23398SOL     OW72032  13.982   0.467   7.364
23398SOL    HW172033  14.050   0.409   7.328
23398SOL    HW272034  13.937   0.413   7.428
23399SOL     OW72035   4.406   2.844   8.221
23399SOL    HW172036   4.349   2.809   8.152
23399SOL    HW272037   4.392   2.786   8.296
23400SOL     OW72038   9.182   6.693   7.584
23400SOL    HW172039   9.108   6.678   7.525
23400SOL    HW272040   9.153   6.765   7.641
23401SOL     OW72041   0.244   3.997  13.686
23401SOL    HW172042   0.238   4.056  13.761
23401SOL    HW272043   0.335   3.970  13.683
23402SOL     OW72044   5.660  11.979   6.935
23402SOL    HW172045   5.651  11.999   7.028
23402SOL    HW272046   5.755  11.974   6.921
23403SOL     OW72047   6.449  13.523  12.236
23403SOL    HW172048   6.400  13.530  12.154
23403SOL    HW272049   6.541  13.521  12.210
23404SOL     OW72050   1.413  14.580   4.049
23404SOL    HW172051   1.466  14.593   4.128
23404SOL    HW272052   1.470  14.531   3.989
23405SOL     OW72053   7.451   4.973   9.181
23405SOL    HW172054   7.533   4.924   9.181
23405SOL    HW272055   7.384   4.909   9.157
23406SOL     OW72056   2.928  13.306   1.287
23406SOL    HW172057   3.000  13.294   1.349
23406SOL    HW272058   2.852  13.266   1.331
23407SOL     OW72059  13.627  13.292   8.741
23407SOL    HW172060  13.645  13.386   8.746
23407SOL    HW272061  13.629  13.272   8.647
23408SOL     OW72062   8.098   0.137  14.283
23408SOL    HW172063   8.110   0.230  14.302
23408SOL    HW272064   8.061   0.101  14.364
23409SOL     OW72065  10.604  10.553   4.176
23409SOL    HW172066  10.553  10.534   4.255
23409SOL    HW272067  10.566  10.496   4.109
23410SOL     OW72068   5.419  13.767   4.602
23410SOL    HW172069   5.514  13.783   4.606
23410SOL    HW272070   5.405  13.735   4.513
23411SOL     OW72071  11.519   6.146  12.765
23411SOL    HW172072  11.442   6.096  12.793
23411SOL    HW272073  11.592   6.085  12.774
23412SOL     OW72074   4.748   7.022   1.051
23412SOL    HW172075   4.797   7.104   1.051
23412SOL    HW272076   4.738   7.000   1.144
23413SOL     OW72077  10.876  10.143  12.539
23413SOL    HW172078  10.895  10.082  12.467
23413SOL    HW272079  10.907  10.228  12.507
23414SOL     OW72080  14.179   9.874  14.510
23414SOL    HW172081  14.215   9.838  14.590
23414SOL    HW272082  14.217   9.821  14.440
23415SOL     OW72083   5.043   8.308   3.073
23415SOL    HW172084   5.014   8.399   3.072
23415SOL    HW272085   4.989   8.266   3.005
23416SOL     OW72086   7.786   3.533   4.033
23416SOL    HW172087   7.787   3.522   4.128
23416SOL    HW272088   7.879   3.537   4.009
23417SOL     OW72089  13.999   9.415   2.436
23417SOL    HW172090  14.058   9.489   2.456
23417SOL    HW272091  14.028   9.345   2.495
23418SOL     OW72092   8.743   1.733  13.468
23418SOL    HW172093   8.675   1.674  13.435
23418SOL    HW272094   8.804   1.743  13.394
23419SOL     OW72095  12.992  11.623   5.881
23419SOL    HW172096  12.980  11.667   5.796
23419SOL    HW272097  13.035  11.540   5.859
23420SOL     OW72098   6.408   5.944   1.441
23420SOL    HW172099   6.349   6.013   1.413
23420SOL    HW272100   6.448   5.978   1.521
23421SOL     OW72101  11.221   8.966   7.219
23421SOL    HW172102  11.220   8.984   7.125
23421SOL    HW272103  11.132   8.984   7.249
23422SOL     OW72104   7.309   0.279   2.156
23422SOL    HW172105   7.234   0.225   2.181
23422SOL    HW272106   7.382   0.241   2.204
23423SOL     OW72107  10.472   8.733   7.826
23423SOL    HW172108  10.539   8.786   7.782
23423SOL    HW272109  10.402   8.723   7.762
23424SOL     OW72110   5.731  12.172   1.763
23424SOL    HW172111   5.700  12.252   1.722
23424SOL    HW272112   5.706  12.180   1.855
23425SOL     OW72113  11.955  12.040   8.460
23425SOL    HW172114  11.976  12.131   8.439
23425SOL    HW272115  12.019  11.989   8.410
23426SOL     OW72116   0.256   2.140  12.364
23426SOL    HW172117   0.181   2.083  12.380
23426SOL    HW272118   0.322   2.084  12.324
23427SOL     OW72119   6.436   7.571   5.882
23427SOL    HW172120   6.358   7.516   5.876
23427SOL    HW272121   6.508   7.511   5.863
23428SOL     OW72122   5.585  10.775   3.987
23428SOL    HW172123   5.596  10.754   4.080
23428SOL    HW272124   5.599  10.692   3.942
23429SOL     OW72125   7.865   0.000   8.252
23429SOL    HW172126   7.825   0.081   8.285
23429SOL    HW272127   7.814  14.809   8.291
23430SOL     OW72128   2.232  13.705  10.597
23430SOL    HW172129   2.307  13.743  10.552
23430SOL    HW272130   2.225  13.616  10.561
23431SOL     OW72131  10.272  10.151   1.678
23431SOL    HW172132  10.297  10.183   1.764
23431SOL    HW272133  10.215  10.076   1.696
23432SOL     OW72134   0.846  12.821   8.589
23432SOL    HW172135   0.775  12.795   8.531
23432SOL    HW272136   0.862  12.913   8.567
23433SOL     OW72137  14.830   2.104  11.288
23433SOL    HW172138   0.038   2.133  11.311
23433SOL    HW272139  14.809   2.152  11.208
23434SOL     OW72140   6.456   7.671   5.047
23434SOL    HW172141   6.371   7.714   5.062
23434SOL    HW272142   6.467   7.672   4.952
23435SOL     OW72143  10.136   2.360   7.307
23435SOL    HW172144  10.140   2.347   7.212
23435SOL    HW272145  10.069   2.427   7.319
23436SOL     OW72146  12.653  13.634   1.640
23436SOL    HW172147  12.569  13.622   1.595
23436SOL    HW272148  12.633  13.618   1.732
23437SOL     OW72149  14.594   0.862  11.792
23437SOL    HW172150  14.687   0.849  11.770
23437SOL    HW272151  14.548   0.850  11.709
23438SOL     OW72152  13.331   0.575   0.574
23438SOL    HW172153  13.368   0.628   0.645
23438SOL    HW272154  13.370   0.488   0.586
23439SOL     OW72155  10.790   9.488  14.349
23439SOL    HW172156  10.736   9.523  14.279
23439SOL    HW272157  10.802   9.396  14.327
23440SOL     OW72158   9.969   5.924  13.797
23440SOL    HW172159   9.969   5.857  13.865
23440SOL    HW272160   9.930   5.881  13.721
23441SOL     OW72161   0.477  11.089   4.768
23441SOL    HW172162   0.536  11.100   4.694
23441SOL    HW272163   0.515  11.017   4.818
23442SOL     OW72164   5.252   4.606   5.093
23442SOL    HW172165   5.289   4.641   5.174
23442SOL    HW272166   5.165   4.646   5.087
23443SOL     OW72167   0.730   9.881   3.159
23443SOL    HW172168   0.654   9.868   3.215
23443SOL    HW272169   0.694   9.896   3.072
23444SOL     OW72170  13.706   8.852  10.032
23444SOL    HW172171  13.676   8.924  10.087
23444SOL    HW272172  13.797   8.838  10.059
23445SOL     OW72173   8.437   8.090   5.284
23445SOL    HW172174   8.524   8.076   5.323
23445SOL    HW272175   8.455   8.130   5.199
23446SOL     OW72176   2.841   7.390  10.707
23446SOL    HW172177   2.774   7.340  10.754
23446SOL    HW272178   2.799   7.418  10.627
23447SOL     OW72179   7.630  13.815   1.268
23447SOL    HW172180   7.704  13.858   1.310
23447SOL    HW272181   7.575  13.785   1.340
23448SOL     OW72182   1.248   7.478  12.919
23448SOL    HW172183   1.159   7.457  12.949
23448SOL    HW272184   1.253   7.573  12.926
23449SOL     OW72185  12.803   5.000   0.689
23449SOL    HW172186  12.778   4.969   0.602
23449SOL    HW272187  12.737   5.065   0.711
23450SOL     OW72188   8.045   5.903   9.304
23450SOL    HW172189   8.055   5.853   9.385
23450SOL    HW272190   7.950   5.903   9.288
23451SOL     OW72191   4.946  11.334   1.355
23451SOL    HW172192   4.945  11.327   1.260
23451SOL    HW272193   4.958  11.427   1.373
23452SOL     OW72194   0.016   9.773  13.785
23452SOL    HW172195  14.878   9.754  13.693
23452SOL    HW272196   0.037   9.867  13.786
23453SOL     OW72197   8.934   2.743   9.717
23453SOL    HW172198   8.979   2.685   9.779
23453SOL    HW272199   8.914   2.688   9.642
23454SOL     OW72200   5.828   9.773  14.695
23454SOL    HW172201   5.780   9.838  14.643
23454SOL    HW272202   5.863   9.712  14.631
23455SOL     OW72203   7.006  13.649   2.772
23455SOL    HW172204   7.090  13.682   2.741
23455SOL    HW272205   6.941  13.707   2.732
23456SOL     OW72206  13.122   4.863  10.859
23456SOL    HW172207  13.148   4.824  10.775
23456SOL    HW272208  13.056   4.803  10.894
23457SOL     OW72209   9.754   5.826  10.424
23457SOL    HW172210   9.730   5.774  10.500
23457SOL    HW272211   9.834   5.872  10.450
23458SOL     OW72212   6.561   6.627  14.755
23458SOL    HW172213   6.546   6.719  14.775
23458SOL    HW272214   6.477   6.597  14.720
23459SOL     OW72215  13.962   2.069   4.975
23459SOL    HW172216  13.983   2.006   4.906
23459SOL    HW272217  13.870   2.052   4.996
23460SOL     OW72218   3.264  12.650   4.036
23460SOL    HW172219   3.268  12.640   4.131
23460SOL    HW272220   3.283  12.562   4.001
23461SOL     OW72221   3.303  13.445   0.267
23461SOL    HW172222   3.363  13.513   0.237
23461SOL    HW272223   3.239  13.491   0.321
23462SOL     OW72224   7.913  11.542   0.905
23462SOL    HW172225   7.962  11.479   0.958
23462SOL    HW272226   7.979  11.584   0.850
23463SOL     OW72227   4.306   3.294   5.389
23463SOL    HW172228   4.222   3.322   5.426
23463SOL    HW272229   4.371   3.325   5.453
23464SOL     OW72230   5.420   0.473   3.863
23464SOL    HW172231   5.494   0.501   3.808
23464SOL    HW272232   5.343   0.487   3.809
23465SOL     OW72233   0.088  12.638   6.279
23465SOL    HW172234   0.014  12.669   6.225
23465SOL    HW272235   0.135  12.578   6.222
23466SOL     OW72236   6.030   4.803   5.409
23466SOL    HW172237   5.998   4.760   5.330
23466SOL    HW272238   6.067   4.732   5.462
23467SOL     OW72239   8.463   2.474   0.238
23467SOL    HW172240   8.455   2.569   0.244
23467SOL    HW272241   8.549   2.459   0.200
23468SOL     OW72242  11.987   2.030  14.425
23468SOL    HW172243  12.076   1.995  14.417
23468SOL    HW272244  11.947   1.976  14.493
23469SOL     OW72245  13.770   4.599   1.387
23469SOL    HW172246  13.780   4.552   1.470
23469SOL    HW272247  13.829   4.674   1.395
23470SOL     OW72248  11.855  10.703   7.392
23470SOL    HW172249  11.759  10.711   7.393
23470SOL    HW272250  11.872  10.611   7.413
23471SOL     OW72251   1.076   4.758  10.552
23471SOL    HW172252   1.106   4.849  10.557
23471SOL    HW272253   1.086   4.725  10.642
23472SOL     OW72254  10.007   7.136   8.756
23472SOL    HW172255  10.063   7.169   8.827
23472SOL    HW272256  10.060   7.147   8.677
23473SOL     OW72257   6.620  14.254   6.146
23473SOL    HW172258   6.620  14.240   6.051
23473SOL    HW272259   6.618  14.166   6.183
23474SOL     OW72260   8.729   3.180  12.234
23474SOL    HW172261   8.804   3.216  12.186
23474SOL    HW272262   8.676   3.138  12.166
23475SOL     OW72263  11.215   0.864   4.537
23475SOL    HW172264  11.189   0.952   4.510
23475SOL    HW272265  11.237   0.820   4.455
23476SOL     OW72266   4.568  13.464  11.625
23476SOL    HW172267   4.654  13.503  11.640
23476SOL    HW272268   4.579  13.414  11.544
23477SOL     OW72269   4.584  11.951  12.024
23477SOL    HW172270   4.596  11.860  12.051
23477SOL    HW272271   4.673  11.986  12.019
23478SOL     OW72272   6.357   6.321  13.194
23478SOL    HW172273   6.279   6.369  13.166
23478SOL    HW272274   6.390   6.280  13.114
23479SOL     OW72275   8.193   4.464   7.510
23479SOL    HW172276   8.220   4.509   7.429
23479SOL    HW272277   8.260   4.487   7.574
23480SOL     OW72278   8.260  10.907  14.366
23480SOL    HW172279   8.218  10.824  14.388
23480SOL    HW272280   8.280  10.947  14.450
23481SOL     OW72281  13.651  13.968   2.464
23481SOL    HW172282  13.678  13.986   2.554
23481SOL    HW272283  13.671  13.875   2.452
23482SOL     OW72284   9.307   9.788   0.551
23482SOL    HW172285   9.276   9.869   0.509
23482SOL    HW272286   9.402   9.796   0.550
23483SOL     OW72287   4.698   6.178  13.814
23483SOL    HW172288   4.760   6.248  13.829
23483SOL    HW272289   4.649   6.170  13.896
23484SOL     OW72290   4.311   6.117   3.499
23484SOL    HW172291   4.328   6.109   3.593
23484SOL    HW272292   4.228   6.071   3.486
23485SOL     OW72293   8.398   4.731  11.309
23485SOL    HW172294   8.480   4.720  11.357
23485SOL    HW272295   8.389   4.826  11.299
23486SOL     OW72296   1.867   7.904  11.256
23486SOL    HW172297   1.849   7.950  11.173
23486SOL    HW272298   1.874   7.812  11.231
23487SOL     OW72299  10.742   6.324   8.686
23487SOL    HW172300  10.812   6.371   8.640
23487SOL    HW272301  10.708   6.387   8.750
23488SOL     OW72302   6.520   3.361  12.255
23488SOL    HW172303   6.576   3.392  12.183
23488SOL    HW272304   6.474   3.439  12.285
23489SOL     OW72305  10.481   7.951  13.547
23489SOL    HW172306  10.533   7.895  13.490
23489SOL    HW272307  10.535   8.029  13.562
23490SOL     OW72308   9.937   0.596   6.784
23490SOL    HW172309   9.994   0.575   6.858
23490SOL    HW272310   9.997   0.616   6.712
23491SOL     OW72311  13.217   7.396  14.407
23491SOL    HW172312  13.218   7.485  14.443
23491SOL    HW272313  13.262   7.404  14.323
23492SOL     OW72314  12.648   3.292   6.279
23492SOL    HW172315  12.595   3.343   6.340
23492SOL    HW272316  12.660   3.208   6.323
23493SOL     OW72317   9.496  13.703   6.764
23493SOL    HW172318   9.449  13.773   6.807
23493SOL    HW272319   9.560  13.747   6.708
23494SOL     OW72320  11.423  14.133   2.840
23494SOL    HW172321  11.442  14.098   2.753
23494SOL    HW272322  11.335  14.101   2.860
23495SOL     OW72323  10.301  12.280  12.005
23495SOL    HW172324  10.215  12.247  11.977
23495SOL    HW272325  10.295  12.283  12.100
23496SOL     OW72326   8.748  14.285   3.808
23496SOL    HW172327   8.835  14.321   3.787
23496SOL    HW272328   8.701  14.290   3.725
23497SOL     OW72329   8.165   1.702   8.271
23497SOL    HW172330   8.242   1.666   8.227
23497SOL    HW272331   8.175   1.678   8.363
23498SOL     OW72332   8.619  10.698   2.635
23498SOL    HW172333   8.691  10.660   2.585
23498SOL    HW272334   8.619  10.649   2.718
23499SOL     OW72335   8.480   6.654   3.346
23499SOL    HW172336   8.472   6.640   3.441
23499SOL    HW272337   8.438   6.578   3.307
23500SOL     OW72338   7.236   0.330  13.659
23500SOL    HW172339   7.278   0.331  13.573
23500SOL    HW272340   7.211   0.239  13.672
23501SOL     OW72341  10.214   0.561   2.499
23501SOL    HW172342  10.309   0.574   2.507
23501SOL    HW272343  10.180   0.647   2.475
23502SOL     OW72344   6.810   2.572  12.936
23502SOL    HW172345   6.728   2.591  12.891
23502SOL    HW272346   6.797   2.485  12.974
23503SOL     OW72347  11.077   6.409   3.705
23503SOL    HW172348  11.073   6.336   3.767
23503SOL    HW272349  11.102   6.369   3.622
23504SOL     OW72350  10.348   3.771   0.769
23504SOL    HW172351  10.301   3.689   0.784
23504SOL    HW272352  10.417   3.748   0.706
23505SOL     OW72353   0.972   5.009   1.293
23505SOL    HW172354   0.973   4.924   1.338
23505SOL    HW272355   0.958   4.987   1.201
23506SOL     OW72356   7.340  13.441  12.188
23506SOL    HW172357   7.408  13.481  12.242
23506SOL    HW272358   7.263  13.496  12.201
23507SOL     OW72359   9.057   8.786  12.227
23507SOL    HW172360   9.043   8.849  12.156
23507SOL    HW272361   8.972   8.782  12.272
23508SOL     OW72362   9.424  13.498   9.065
23508SOL    HW172363   9.357  13.452   9.115
23508SOL    HW272364   9.403  13.479   8.973
23509SOL     OW72365   1.506   2.570   7.535
23509SOL    HW172366   1.424   2.530   7.562
23509SOL    HW272367   1.511   2.554   7.441
23510SOL     OW72368   9.846   3.296   7.832
23510SOL    HW172369   9.781   3.361   7.862
23510SOL    HW272370   9.928   3.345   7.826
23511SOL     OW72371   2.203   6.004   8.727
23511SOL    HW172372   2.227   6.043   8.812
23511SOL    HW272373   2.280   6.019   8.672
23512SOL     OW72374   0.904   2.337   3.998
23512SOL    HW172375   0.895   2.295   4.084
23512SOL    HW272376   0.992   2.311   3.968
23513SOL     OW72377   7.884  10.756   8.915
23513SOL    HW172378   7.977  10.759   8.891
23513SOL    HW272379   7.860  10.848   8.929
23514SOL     OW72380   8.599  11.341   7.925
23514SOL    HW172381   8.509  11.355   7.896
23514SOL    HW272382   8.592  11.269   7.988
23515SOL     OW72383  13.329  12.463   6.161
23515SOL    HW172384  13.317  12.384   6.213
23515SOL    HW272385  13.255  12.519   6.184
23516SOL     OW72386   0.855   2.292  13.846
23516SOL    HW172387   0.927   2.283  13.909
23516SOL    HW272388   0.829   2.383  13.852
23517SOL     OW72389   7.152   4.701   6.281
23517SOL    HW172390   7.166   4.795   6.267
23517SOL    HW272391   7.213   4.659   6.221
23518SOL     OW72392   8.421   4.324   4.197
23518SOL    HW172393   8.352   4.379   4.235
23518SOL    HW272394   8.443   4.262   4.266
23519SOL     OW72395   7.456   4.023  12.945
23519SOL    HW172396   7.434   4.080  13.019
23519SOL    HW272397   7.412   4.063  12.870
23520SOL     OW72398  12.210   4.883  13.177
23520SOL    HW172399  12.281   4.900  13.238
23520SOL    HW272400  12.165   4.807  13.213
23521SOL     OW72401  14.860   7.442  10.623
23521SOL    HW172402   0.068   7.442  10.663
23521SOL    HW272403  14.835   7.534  10.621
23522SOL     OW72404   0.196   8.445   4.958
23522SOL    HW172405   0.149   8.371   4.921
23522SOL    HW272406   0.134   8.485   5.019
23523SOL     OW72407   1.826  12.005  14.477
23523SOL    HW172408   1.872  12.089  14.483
23523SOL    HW272409   1.757  12.021  14.411
23524SOL     OW72410   3.098   5.260   2.223
23524SOL    HW172411   3.109   5.285   2.131
23524SOL    HW272412   3.045   5.180   2.220
23525SOL     OW72413   8.575  10.729  10.921
23525SOL    HW172414   8.667  10.743  10.896
23525SOL    HW272415   8.554  10.643  10.886
23526SOL     OW72416   1.382   4.630   1.176
23526SOL    HW172417   1.319   4.640   1.248
23526SOL    HW272418   1.466   4.617   1.220
23527SOL     OW72419  13.064  11.637  11.454
23527SOL    HW172420  12.990  11.696  11.467
23527SOL    HW272421  13.084  11.644  11.361
23528SOL     OW72422   5.796   7.802   9.260
23528SOL    HW172423   5.869   7.863   9.270
23528SOL    HW272424   5.760   7.821   9.173
23529SOL     OW72425   3.262   6.797   5.355
23529SOL    HW172426   3.174   6.767   5.333
23529SOL    HW272427   3.314   6.717   5.360
23530SOL     OW72428   9.752   7.749  13.498
23530SOL    HW172429   9.773   7.831  13.542
23530SOL    HW272430   9.657   7.739  13.509
23531SOL     OW72431   6.945   9.558   3.224
23531SOL    HW172432   7.023   9.611   3.208
23531SOL    HW272433   6.935   9.505   3.145
23532SOL     OW72434   2.630   8.860   5.802
23532SOL    HW172435   2.674   8.896   5.725
23532SOL    HW272436   2.694   8.869   5.872
23533SOL     OW72437  13.355   3.080   1.425
23533SOL    HW172438  13.434   3.046   1.383
23533SOL    HW272439  13.313   3.134   1.359
23534SOL     OW72440  12.426   4.977   2.154
23534SOL    HW172441  12.493   5.036   2.119
23534SOL    HW272442  12.453   4.961   2.244
23535SOL     OW72443   2.002   4.414   4.373
23535SOL    HW172444   2.086   4.443   4.338
23535SOL    HW272445   2.022   4.332   4.418
23536SOL     OW72446  14.556   4.531   7.228
23536SOL    HW172447  14.550   4.478   7.149
23536SOL    HW272448  14.532   4.619   7.200
23537SOL     OW72449  12.366   3.556   5.996
23537SOL    HW172450  12.358   3.627   6.060
23537SOL    HW272451  12.354   3.476   6.047
23538SOL     OW72452   8.778   4.046   8.677
23538SOL    HW172453   8.775   4.086   8.764
23538SOL    HW272454   8.703   4.084   8.631
23539SOL     OW72455   4.316  11.443  14.268
23539SOL    HW172456   4.391  11.408  14.219
23539SOL    HW272457   4.297  11.376  14.334
23540SOL     OW72458   7.428   5.466  11.553
23540SOL    HW172459   7.436   5.527  11.480
23540SOL    HW272460   7.372   5.511  11.616
23541SOL     OW72461   2.464  14.232  10.884
23541SOL    HW172462   2.426  14.169  10.822
23541SOL    HW272463   2.424  14.209  10.968
23542SOL     OW72464   2.953   0.725   6.929
23542SOL    HW172465   3.015   0.660   6.896
23542SOL    HW272466   2.886   0.675   6.974
23543SOL     OW72467   2.751  11.303  12.817
23543SOL    HW172468   2.790  11.261  12.741
23543SOL    HW272469   2.753  11.236  12.885
23544SOL     OW72470   7.545  11.857  14.559
23544SOL    HW172471   7.554  11.765  14.584
23544SOL    HW272472   7.450  11.873  14.558
23545SOL     OW72473  10.016  11.710   6.997
23545SOL    HW172474   9.921  11.696   7.000
23545SOL    HW272475  10.051  11.650   7.062
23546SOL     OW72476   9.890  14.410   3.211
23546SOL    HW172477   9.977  14.391   3.174
23546SOL    HW272478   9.891  14.504   3.228
23547SOL     OW72479   7.771   9.213   8.465
23547SOL    HW172480   7.801   9.161   8.539
23547SOL    HW272481   7.805   9.168   8.388
23548SOL     OW72482  14.265  12.086   8.435
23548SOL    HW172483  14.298  12.165   8.477
23548SOL    HW272484  14.170  12.095   8.436
23549SOL     OW72485   8.174  11.470   2.392
23549SOL    HW172486   8.162  11.375   2.386
23549SOL    HW272487   8.251  11.488   2.338
23550SOL     OW72488   9.154  12.640   0.993
23550SOL    HW172489   9.198  12.562   1.027
23550SOL    HW272490   9.121  12.614   0.907
23551SOL     OW72491  10.868   2.317   1.079
23551SOL    HW172492  10.920   2.375   1.023
23551SOL    HW272493  10.933   2.273   1.134
23552SOL     OW72494  12.288   8.873   3.831
23552SOL    HW172495  12.285   8.859   3.925
23552SOL    HW272496  12.198   8.863   3.802
23553SOL     OW72497   9.744   2.725  10.661
23553SOL    HW172498   9.838   2.744  10.667
23553SOL    HW272499   9.721   2.744  10.570
23554SOL     OW72500   5.015  12.968   9.813
23554SOL    HW172501   4.956  12.905   9.772
23554SOL    HW272502   4.970  13.052   9.807
23555SOL     OW72503   8.252   5.822   1.425
23555SOL    HW172504   8.224   5.911   1.403
23555SOL    HW272505   8.246   5.819   1.521
23556SOL     OW72506   9.569   1.506  13.698
23556SOL    HW172507   9.477   1.522  13.721
23556SOL    HW272508   9.613   1.589  13.714
23557SOL     OW72509   4.577   5.024   5.004
23557SOL    HW172510   4.531   5.018   5.087
23557SOL    HW272511   4.601   5.117   4.996
23558SOL     OW72512   2.410   0.892  12.790
23558SOL    HW172513   2.478   0.945  12.833
23558SOL    HW272514   2.453   0.809  12.771
23559SOL     OW72515   7.576   8.435   3.694
23559SOL    HW172516   7.544   8.377   3.625
23559SOL    HW272517   7.526   8.410   3.772
23560SOL     OW72518   2.366   3.319   7.886
23560SOL    HW172519   2.277   3.352   7.879
23560SOL    HW272520   2.420   3.398   7.898
23561SOL     OW72521  14.358   9.992   2.862
23561SOL    HW172522  14.400   9.995   2.948
23561SOL    HW272523  14.274   9.949   2.878
23562SOL     OW72524   5.825  12.427   4.197
23562SOL    HW172525   5.810  12.333   4.203
23562SOL    HW272526   5.855  12.441   4.108
23563SOL     OW72527   6.947   9.736   0.886
23563SOL    HW172528   6.965   9.754   0.978
23563SOL    HW272529   6.862   9.691   0.887
23564SOL     OW72530   5.905   0.105   5.223
23564SOL    HW172531   5.849   0.122   5.147
23564SOL    HW272532   5.937   0.191   5.249
23565SOL     OW72533   7.930   1.265  12.567
23565SOL    HW172534   7.989   1.314  12.624
23565SOL    HW272535   7.976   1.183  12.549
23566SOL     OW72536   9.708  11.293   0.865
23566SOL    HW172537   9.692  11.259   0.954
23566SOL    HW272538   9.789  11.250   0.837
23567SOL     OW72539   4.600   9.461   8.522
23567SOL    HW172540   4.554   9.504   8.595
23567SOL    HW272541   4.556   9.377   8.512
23568SOL     OW72542   0.456  12.150  10.696
23568SOL    HW172543   0.478  12.059  10.718
23568SOL    HW272544   0.416  12.145  10.610
23569SOL     OW72545  10.271   4.009  13.615
23569SOL    HW172546  10.302   4.054  13.536
23569SOL    HW272547  10.190   4.054  13.639
23570SOL     OW72548   2.061  13.262   7.318
23570SOL    HW172549   1.979  13.252   7.366
23570SOL    HW272550   2.124  13.294   7.383
23571SOL     OW72551   6.659  14.072   1.471
23571SOL    HW172552   6.619  14.086   1.556
23571SOL    HW272553   6.708  14.153   1.454
23572SOL     OW72554   7.893   3.391  14.871
23572SOL    HW172555   7.889   3.356  14.782
23572SOL    HW272556   7.968   3.452  14.869
23573SOL     OW72557  11.866   8.546   9.341
23573SOL    HW172558  11.960   8.553   9.323
23573SOL    HW272559  11.824   8.596   9.271
23574SOL     OW72560   2.516   1.499  12.030
23574SOL    HW172561   2.476   1.586  12.031
23574SOL    HW272562   2.482   1.456  12.108
23575SOL     OW72563   2.664   4.626  14.294
23575SOL    HW172564   2.619   4.606  14.376
23575SOL    HW272565   2.756   4.638  14.319
23576SOL     OW72566   1.248   3.680  11.674
23576SOL    HW172567   1.303   3.724  11.739
23576SOL    HW272568   1.220   3.599  11.717
23577SOL     OW72569   3.562  12.390   1.073
23577SOL    HW172570   3.594  12.480   1.081
23577SOL    HW272571   3.582  12.350   1.158
23578SOL     OW72572   5.737  11.692   4.376
23578SOL    HW172573   5.734  11.689   4.471
23578SOL    HW272574   5.829  11.681   4.354
23579SOL     OW72575   6.433   5.940   9.894
23579SOL    HW172576   6.522   5.919   9.922
23579SOL    HW272577   6.405   6.011   9.952
23580SOL     OW72578  11.651   6.138   3.596
23580SOL    HW172579  11.580   6.082   3.564
23580SOL    HW272580  11.624   6.164   3.683
23581SOL     OW72581  14.356   5.638   5.553
23581SOL    HW172582  14.414   5.625   5.628
23581SOL    HW272583  14.285   5.693   5.587
23582SOL     OW72584   8.164   2.832   6.791
23582SOL    HW172585   8.236   2.815   6.852
23582SOL    HW272586   8.194   2.793   6.709
23583SOL     OW72587   2.114   1.660   1.974
23583SOL    HW172588   2.137   1.713   1.897
23583SOL    HW272589   2.091   1.575   1.938
23584SOL     OW72590  13.302   0.332  13.136
23584SOL    HW172591  13.368   0.368  13.077
23584SOL    HW272592  13.341   0.341  13.223
23585SOL     OW72593   3.167  10.786  12.969
23585SOL    HW172594   3.075  10.810  12.977
23585SOL    HW272595   3.202  10.795  13.057
23586SOL     OW72596   8.894   1.781  12.529
23586SOL    HW172597   8.904   1.865  12.573
23586SOL    HW272598   8.947   1.788  12.450
23587SOL     OW72599   8.053  12.117   5.687
23587SOL    HW172600   8.116  12.052   5.656
23587SOL    HW272601   8.091  12.201   5.662
23588SOL     OW72602  11.028  12.297   6.560
23588SOL    HW172603  11.095  12.249   6.512
23588SOL    HW272604  11.016  12.378   6.510
23589SOL     OW72605  10.617   6.219   1.587
23589SOL    HW172606  10.560   6.292   1.561
23589SOL    HW272607  10.557   6.152   1.621
23590SOL     OW72608  12.256   5.984   9.510
23590SOL    HW172609  12.223   6.074   9.507
23590SOL    HW272610  12.185   5.931   9.475
23591SOL     OW72611  11.682   7.016   8.504
23591SOL    HW172612  11.667   7.087   8.566
23591SOL    HW272613  11.611   7.024   8.440
23592SOL     OW72614  11.111  13.333  10.233
23592SOL    HW172615  11.163  13.256  10.257
23592SOL    HW272616  11.059  13.304  10.157
23593SOL     OW72617  11.581   6.178  13.982
23593SOL    HW172618  11.662   6.128  13.991
23593SOL    HW272619  11.529   6.129  13.918
23594SOL     OW72620  14.780  11.798   5.856
23594SOL    HW172621  14.756  11.706   5.844
23594SOL    HW272622  14.747  11.819   5.943
23595SOL     OW72623   4.221  10.772  12.739
23595SOL    HW172624   4.293  10.709  12.753
23595SOL    HW272625   4.166  10.762  12.817
23596SOL     OW72626  13.714  14.383   4.329
23596SOL    HW172627  13.768  14.370   4.407
23596SOL    HW272628  13.640  14.324   4.340
23597SOL     OW72629   6.296   0.288   9.426
23597SOL    HW172630   6.218   0.285   9.482
23597SOL    HW272631   6.267   0.251   9.343
23598SOL     OW72632  13.143   1.025  10.754
23598SOL    HW172633  13.150   1.060  10.843
23598SOL    HW272634  13.082   1.084  10.710
23599SOL     OW72635   1.583  11.593   4.368
23599SOL    HW172636   1.618  11.666   4.418
23599SOL    HW272637   1.637  11.518   4.395
23600SOL     OW72638   6.132  13.603   0.379
23600SOL    HW172639   6.054  13.650   0.351
23600SOL    HW272640   6.141  13.623   0.472
23601SOL     OW72641   4.109   2.011   5.831
23601SOL    HW172642   4.112   1.928   5.879
23601SOL    HW272643   4.099   1.985   5.740
23602SOL     OW72644  12.405   3.066   9.110
23602SOL    HW172645  12.318   3.029   9.092
23602SOL    HW272646  12.454   2.993   9.149
23603SOL     OW72647   4.944  14.219   3.481
23603SOL    HW172648   4.927  14.264   3.564
23603SOL    HW272649   5.038  14.206   3.480
23604SOL     OW72650   8.732   2.611  14.684
23604SOL    HW172651   8.794   2.580  14.749
23604SOL    HW272652   8.674   2.670  14.732
23605SOL     OW72653   8.627  12.238  12.703
23605SOL    HW172654   8.601  12.282  12.622
23605SOL    HW272655   8.640  12.147  12.678
23606SOL     OW72656   3.692   4.520   2.611
23606SOL    HW172657   3.742   4.519   2.693
23606SOL    HW272658   3.683   4.427   2.589
23607SOL     OW72659  12.546   1.531  14.153
23607SOL    HW172660  12.589   1.447  14.168
23607SOL    HW272661  12.606   1.580  14.097
23608SOL     OW72662  12.290   7.591   1.796
23608SOL    HW172663  12.277   7.680   1.764
23608SOL    HW272664  12.286   7.536   1.718
23609SOL     OW72665  12.694   7.624  11.126
23609SOL    HW172666  12.720   7.610  11.217
23609SOL    HW272667  12.613   7.674  11.132
23610SOL     OW72668  11.103   7.150  13.930
23610SOL    HW172669  11.132   7.232  13.970
23610SOL    HW272670  11.174   7.088  13.948
23611SOL     OW72671  14.320   8.722  14.400
23611SOL    HW172672  14.291   8.729  14.309
23611SOL    HW272673  14.243   8.692  14.447
23612SOL     OW72674   0.831   8.300   7.380
23612SOL    HW172675   0.749   8.276   7.337
23612SOL    HW272676   0.844   8.392   7.356
23613SOL     OW72677   1.906  11.382   9.369
23613SOL    HW172678   1.848  11.380   9.293
23613SOL    HW272679   1.907  11.292   9.402
23614SOL     OW72680   5.262   7.725   0.100
23614SOL    HW172681   5.205   7.681   0.164
23614SOL    HW272682   5.343   7.743   0.148
23615SOL     OW72683   2.380  12.462   8.234
23615SOL    HW172684   2.336  12.518   8.169
23615SOL    HW272685   2.309  12.416   8.278
23616SOL     OW72686  11.345  11.102  11.149
23616SOL    HW172687  11.312  11.121  11.237
23616SOL    HW272688  11.320  11.178  11.097
23617SOL     OW72689  11.922   5.858  10.509
23617SOL    HW172690  12.008   5.859  10.551
23617SOL    HW272691  11.941   5.865  10.416
23618SOL     OW72692   5.542   3.149  10.464
23618SOL    HW172693   5.540   3.054  10.477
23618SOL    HW272694   5.507   3.161  10.375
23619SOL     OW72695   4.260   9.994   2.212
23619SOL    HW172696   4.265   9.915   2.265
23619SOL    HW272697   4.169   9.998   2.183
23620SOL     OW72698   1.391   2.813  10.778
23620SOL    HW172699   1.319   2.857  10.733
23620SOL    HW272700   1.440   2.884  10.820
23621SOL     OW72701  11.739  14.279  13.077
23621SOL    HW172702  11.815  14.302  13.131
23621SOL    HW272703  11.731  14.351  13.015
23622SOL     OW72704   8.928  13.263   8.898
23622SOL    HW172705   8.947  13.314   8.818
23622SOL    HW272706   8.876  13.189   8.867
23623SOL     OW72707  13.707   1.053  13.345
23623SOL    HW172708  13.676   0.975  13.299
23623SOL    HW272709  13.644   1.067  13.416
23624SOL     OW72710   9.345   9.912   2.286
23624SOL    HW172711   9.252   9.891   2.291
23624SOL    HW272712   9.356   9.989   2.342
23625SOL     OW72713  13.937  13.532   9.717
23625SOL    HW172714  13.857  13.527   9.665
23625SOL    HW272715  13.944  13.446   9.759
23626SOL     OW72716   9.726   9.990   2.321
23626SOL    HW172717   9.710  10.082   2.342
23626SOL    HW272718   9.805   9.968   2.371
23627SOL     OW72719   6.768   4.248   1.524
23627SOL    HW172720   6.715   4.327   1.515
23627SOL    HW272721   6.722   4.195   1.589
23628SOL     OW72722   0.478   5.709  13.896
23628SOL    HW172723   0.486   5.681  13.805
23628SOL    HW272724   0.566   5.734  13.922
23629SOL     OW72725  10.700  10.368   2.933
23629SOL    HW172726  10.734  10.373   2.844
23629SOL    HW272727  10.620  10.315   2.924
23630SOL     OW72728   3.699   5.015   3.419
23630SOL    HW172729   3.755   5.029   3.343
23630SOL    HW272730   3.633   5.084   3.413
23631SOL     OW72731  11.652   1.684  12.779
23631SOL    HW172732  11.678   1.760  12.832
23631SOL    HW272733  11.612   1.624  12.842
23632SOL     OW72734   2.116  11.399  11.498
23632SOL    HW172735   2.033  11.415  11.544
23632SOL    HW272736   2.175  11.468  11.529
23633SOL     OW72737   1.470   2.971  11.125
23633SOL    HW172738   1.523   3.041  11.162
23633SOL    HW272739   1.513   2.890  11.154
23634SOL     OW72740  11.139  10.032   2.727
23634SOL    HW172741  11.132   9.984   2.809
23634SOL    HW272742  11.097  10.116   2.744
23635SOL     OW72743   0.090  10.491  12.223
23635SOL    HW172744   0.120  10.443  12.145
23635SOL    HW272745   0.146  10.568  12.226
23636SOL     OW72746   5.367   2.727   6.847
23636SOL    HW172747   5.294   2.693   6.899
23636SOL    HW272748   5.387   2.812   6.886
23637SOL     OW72749  11.591   6.949   7.271
23637SOL    HW172750  11.598   6.858   7.241
23637SOL    HW272751  11.553   6.996   7.196
23638SOL     OW72752   6.658   9.455   4.963
23638SOL    HW172753   6.575   9.437   4.919
23638SOL    HW272754   6.696   9.368   4.979
23639SOL     OW72755   2.822   8.851   3.250
23639SOL    HW172756   2.906   8.807   3.266
23639SOL    HW272757   2.764   8.781   3.221
23640SOL     OW72758   9.251  12.573   3.010
23640SOL    HW172759   9.188  12.644   3.020
23640SOL    HW272760   9.289  12.561   3.097
23641SOL     OW72761   7.305   5.720   3.224
23641SOL    HW172762   7.329   5.810   3.245
23641SOL    HW272763   7.312   5.715   3.128
23642SOL     OW72764   0.077   3.360  13.294
23642SOL    HW172765   0.012   3.397  13.234
23642SOL    HW272766   0.160   3.399  13.265
23643SOL     OW72767   4.286  14.437   8.067
23643SOL    HW172768   4.286  14.525   8.030
23643SOL    HW272769   4.205  14.397   8.034
23644SOL     OW72770   0.330   9.053   7.144
23644SOL    HW172771   0.340   9.101   7.226
23644SOL    HW272772   0.377   9.106   7.080
23645SOL     OW72773   6.311   4.195   2.709
23645SOL    HW172774   6.392   4.145   2.722
23645SOL    HW272775   6.244   4.146   2.757
23646SOL     OW72776   5.639  13.325   2.884
23646SOL    HW172777   5.724  13.332   2.841
23646SOL    HW272778   5.612  13.416   2.897
23647SOL     OW72779   8.772   1.778   6.684
23647SOL    HW172780   8.725   1.695   6.683
23647SOL    HW272781   8.728   1.832   6.619
23648SOL     OW72782   1.088   2.068  13.145
23648SOL    HW172783   1.161   2.041  13.201
23648SOL    HW272784   1.013   2.019  13.178
23649SOL     OW72785   3.851  12.056  11.818
23649SOL    HW172786   3.880  12.047  11.909
23649SOL    HW272787   3.877  12.145  11.794
23650SOL     OW72788   7.653   8.367   8.549
23650SOL    HW172789   7.644   8.416   8.467
23650SOL    HW272790   7.587   8.298   8.543
23651SOL     OW72791   3.271  14.549   2.850
23651SOL    HW172792   3.296  14.637   2.878
23651SOL    HW272793   3.227  14.511   2.927
23652SOL     OW72794   6.408  13.469  13.814
23652SOL    HW172795   6.480  13.406  13.819
23652SOL    HW272796   6.427  13.521  13.736
23653SOL     OW72797   9.620  10.226   4.883
23653SOL    HW172798   9.558  10.156   4.903
23653SOL    HW272799   9.706  10.191   4.906
23654SOL     OW72800   7.705   1.235   0.068
23654SOL    HW172801   7.787   1.276   0.039
23654SOL    HW272802   7.705   1.248   0.163
23655SOL     OW72803   8.473   4.691  13.983
23655SOL    HW172804   8.560   4.719  13.955
23655SOL    HW272805   8.446   4.626  13.919
23656SOL     OW72806   8.160   2.070   0.511
23656SOL    HW172807   8.207   2.102   0.433
23656SOL    HW272808   8.078   2.119   0.510
23657SOL     OW72809   2.258  10.452   5.846
23657SOL    HW172810   2.218  10.536   5.870
23657SOL    HW272811   2.188  10.404   5.802
23658SOL     OW72812   8.601   2.320  12.847
23658SOL    HW172813   8.556   2.282  12.771
23658SOL    HW272814   8.586   2.414  12.839
23659SOL     OW72815   7.954  10.126   8.364
23659SOL    HW172816   7.923  10.141   8.275
23659SOL    HW272817   7.875  10.106   8.415
23660SOL     OW72818   3.403   0.821   6.750
23660SOL    HW172819   3.442   0.849   6.833
23660SOL    HW272820   3.309   0.822   6.766
23661SOL     OW72821   3.754   3.029  12.686
23661SOL    HW172822   3.729   2.990  12.602
23661SOL    HW272823   3.693   2.992  12.749
23662SOL     OW72824   6.993   0.892   4.517
23662SOL    HW172825   7.057   0.945   4.470
23662SOL    HW272826   7.046   0.828   4.565
23663SOL     OW72827   0.305   1.823   3.205
23663SOL    HW172828   0.367   1.776   3.149
23663SOL    HW272829   0.360   1.882   3.257
23664SOL     OW72830   9.709   2.161   6.090
23664SOL    HW172831   9.653   2.188   6.163
23664SOL    HW272832   9.796   2.195   6.112
23665SOL     OW72833   7.297   0.927  13.106
23665SOL    HW172834   7.219   0.927  13.161
23665SOL    HW272835   7.293   1.010  13.059
23666SOL     OW72836   6.259   5.494  10.915
23666SOL    HW172837   6.336   5.510  10.970
23666SOL    HW272838   6.189   5.542  10.958
23667SOL     OW72839   2.840   1.361   4.969
23667SOL    HW172840   2.780   1.391   4.900
23667SOL    HW272841   2.925   1.396   4.944
23668SOL     OW72842   5.390   4.269   3.449
23668SOL    HW172843   5.417   4.225   3.530
23668SOL    HW272844   5.398   4.362   3.468
23669SOL     OW72845  13.600   1.771  14.807
23669SOL    HW172846  13.526   1.710  14.807
23669SOL    HW272847  13.560   1.857  14.818
23670SOL     OW72848   7.334   5.601   2.842
23670SOL    HW172849   7.418   5.646   2.844
23670SOL    HW272850   7.342   5.532   2.908
23671SOL     OW72851   5.919   2.509   8.689
23671SOL    HW172852   5.830   2.496   8.656
23671SOL    HW272853   5.975   2.494   8.612
23672SOL     OW72854   5.820  10.034   5.191
23672SOL    HW172855   5.914  10.024   5.177
23672SOL    HW272856   5.813  10.089   5.269
23673SOL     OW72857   4.995  12.521  10.133
23673SOL    HW172858   4.912  12.487  10.166
23673SOL    HW272859   4.986  12.519  10.038
23674SOL     OW72860   7.154   1.651  13.215
23674SOL    HW172861   7.154   1.709  13.291
23674SOL    HW272862   7.247   1.637  13.195
23675SOL     OW72863  10.643   9.723   0.264
23675SOL    HW172864  10.721   9.759   0.307
23675SOL    HW272865  10.673   9.696   0.177
23676SOL     OW72866   3.791   9.834   6.937
23676SOL    HW172867   3.698   9.841   6.956
23676SOL    HW272868   3.815   9.746   6.965
23677SOL     OW72869  14.567  14.873   3.677
23677SOL    HW172870  14.517   0.049   3.617
23677SOL    HW272871  14.555   0.033   3.763
23678SOL     OW72872   3.095  12.232   0.470
23678SOL    HW172873   3.094  12.140   0.442
23678SOL    HW272874   3.160  12.235   0.541
23679SOL     OW72875  13.675  10.332  13.550
23679SOL    HW172876  13.622  10.409  13.529
23679SOL    HW272877  13.611  10.262  13.562
23680SOL     OW72878   9.289   5.072   1.121
23680SOL    HW172879   9.326   4.996   1.075
23680SOL    HW272880   9.305   5.053   1.214
23681SOL     OW72881   3.685   7.155   8.039
23681SOL    HW172882   3.730   7.103   7.973
23681SOL    HW272883   3.670   7.094   8.111
23682SOL     OW72884   6.562   9.904   9.675
23682SOL    HW172885   6.474   9.867   9.664
23682SOL    HW272886   6.581   9.895   9.768
23683SOL     OW72887  10.168   2.434   2.264
23683SOL    HW172888  10.095   2.497   2.267
23683SOL    HW272889  10.212   2.445   2.348
23684SOL     OW72890  13.421  12.972   3.298
23684SOL    HW172891  13.447  12.944   3.211
23684SOL    HW272892  13.431  12.894   3.353
23685SOL     OW72893   2.186   9.722  10.618
23685SOL    HW172894   2.268   9.743  10.664
23685SOL    HW272895   2.148   9.649  10.667
23686SOL     OW72896   0.839   1.231   7.210
23686SOL    HW172897   0.853   1.169   7.282
23686SOL    HW272898   0.890   1.308   7.235
23687SOL     OW72899   2.339   2.434   0.271
23687SOL    HW172900   2.413   2.432   0.332
23687SOL    HW272901   2.366   2.378   0.198
23688SOL     OW72902   2.214   1.823   5.376
23688SOL    HW172903   2.204   1.882   5.300
23688SOL    HW272904   2.300   1.783   5.364
23689SOL     OW72905  10.873   7.966   3.219
23689SOL    HW172906  10.952   7.997   3.263
23689SOL    HW272907  10.817   8.043   3.213
23690SOL     OW72908   9.009  12.186   5.985
23690SOL    HW172909   8.986  12.140   6.066
23690SOL    HW272910   8.974  12.274   5.998
23691SOL     OW72911   8.373   0.333   7.463
23691SOL    HW172912   8.312   0.394   7.502
23691SOL    HW272913   8.318   0.269   7.418
23692SOL     OW72914   6.315  14.327   9.591
23692SOL    HW172915   6.263  14.249   9.612
23692SOL    HW272916   6.265  14.372   9.523
23693SOL     OW72917  10.475  11.127   4.469
23693SOL    HW172918  10.415  11.126   4.543
23693SOL    HW272919  10.422  11.158   4.396
23694SOL     OW72920   1.497   3.251   2.550
23694SOL    HW172921   1.469   3.319   2.612
23694SOL    HW272922   1.428   3.248   2.484
23695SOL     OW72923  12.050   1.224   1.204
23695SOL    HW172924  11.962   1.202   1.235
23695SOL    HW272925  12.099   1.142   1.213
23696SOL     OW72926  12.542  10.452   8.123
23696SOL    HW172927  12.591  10.493   8.195
23696SOL    HW272928  12.454  10.438   8.159
23697SOL     OW72929  14.623   8.049  11.510
23697SOL    HW172930  14.579   7.970  11.542
23697SOL    HW272931  14.557   8.092  11.456
23698SOL     OW72932  11.974  10.986  12.177
23698SOL    HW172933  11.969  10.923  12.249
23698SOL    HW272934  12.066  11.015  12.177
23699SOL     OW72935   2.746  13.580   1.833
23699SOL    HW172936   2.806  13.542   1.897
23699SOL    HW272937   2.802  13.605   1.759
23700SOL     OW72938   0.708   9.109   4.255
23700SOL    HW172939   0.768   9.176   4.223
23700SOL    HW272940   0.755   9.027   4.246
23701SOL     OW72941   6.237   0.770  12.435
23701SOL    HW172942   6.153   0.816  12.435
23701SOL    HW272943   6.259   0.760  12.527
23702SOL     OW72944  11.398   8.425   9.974
23702SOL    HW172945  11.330   8.392   9.916
23702SOL    HW272946  11.477   8.428   9.919
23703SOL     OW72947   3.054   1.314  11.208
23703SOL    HW172948   2.997   1.351  11.275
23703SOL    HW272949   2.998   1.308  11.130
23704SOL     OW72950  13.850  11.676  11.033
23704SOL    HW172951  13.793  11.671  10.957
23704SOL    HW272952  13.939  11.677  10.998
23705SOL     OW72953  11.372   6.015  12.377
23705SOL    HW172954  11.327   6.011  12.462
23705SOL    HW272955  11.430   6.091  12.384
23706SOL     OW72956  14.841  10.820   4.070
23706SOL    HW172957  14.818  10.739   4.025
23706SOL    HW272958  14.801  10.889   4.018
23707SOL     OW72959   8.096  11.165  14.598
23707SOL    HW172960   8.017  11.119  14.571
23707SOL    HW272961   8.090  11.168  14.694
23708SOL     OW72962   8.017   2.368   6.809
23708SOL    HW172963   8.111   2.351   6.812
23708SOL    HW272964   8.002   2.400   6.720
23709SOL     OW72965  12.286  13.432   4.846
23709SOL    HW172966  12.311  13.503   4.905
23709SOL    HW272967  12.250  13.475   4.769
23710SOL     OW72968  13.820  10.981   2.158
23710SOL    HW172969  13.731  10.948   2.153
23710SOL    HW272970  13.861  10.955   2.076
23711SOL     OW72971  10.571  14.027   1.152
23711SOL    HW172972  10.594  14.048   1.061
23711SOL    HW272973  10.609  13.940   1.167
23712SOL     OW72974   8.570   4.923   3.464
23712SOL    HW172975   8.501   4.952   3.405
23712SOL    HW272976   8.641   4.986   3.451
23713SOL     OW72977  12.269   9.689  11.820
23713SOL    HW172978  12.233   9.609  11.782
23713SOL    HW272979  12.210   9.711  11.892
23714SOL     OW72980   4.774   6.495   8.827
23714SOL    HW172981   4.769   6.512   8.733
23714SOL    HW272982   4.856   6.536   8.855
23715SOL     OW72983   0.185   9.054   2.477
23715SOL    HW172984   0.146   8.970   2.451
23715SOL    HW272985   0.254   9.030   2.538
23716SOL     OW72986   6.912  13.885   8.398
23716SOL    HW172987   6.927  13.887   8.493
23716SOL    HW272988   6.949  13.801   8.370
23717SOL     OW72989   3.216   7.477   7.988
23717SOL    HW172990   3.247   7.414   8.053
23717SOL    HW272991   3.166   7.424   7.926
23718SOL     OW72992   3.043  13.002   9.998
23718SOL    HW172993   3.006  13.052  10.072
23718SOL    HW272994   3.093  13.066   9.949
23719SOL     OW72995  10.115   9.814   3.966
23719SOL    HW172996  10.132   9.849   4.053
23719SOL    HW272997  10.070   9.885   3.920
23720SOL     OW72998  11.845   9.816  11.386
23720SOL    HW172999  11.898   9.785  11.459
23720SOL    HW273000  11.770   9.757  11.383
23721SOL     OW73001  14.250  11.858   8.569
23721SOL    HW173002  14.263  11.942   8.526
23721SOL    HW273003  14.331  11.810   8.552
23722SOL     OW73004  12.332   4.023   7.980
23722SOL    HW173005  12.294   3.935   7.986
23722SOL    HW273006  12.278   4.076   8.039
23723SOL     OW73007   0.771   2.848   3.433
23723SOL    HW173008   0.692   2.894   3.405
23723SOL    HW273009   0.751   2.755   3.420
23724SOL     OW73010  13.875   0.618   8.856
23724SOL    HW173011  13.908   0.605   8.944
23724SOL    HW273012  13.855   0.711   8.850
23725SOL     OW73013  11.347   9.071   3.819
23725SOL    HW173014  11.363   9.095   3.728
23725SOL    HW273015  11.362   8.977   3.823
23726SOL     OW73016   7.180   3.379   2.100
23726SOL    HW173017   7.137   3.298   2.128
23726SOL    HW273018   7.110   3.445   2.100
23727SOL     OW73019   7.503  12.505  14.253
23727SOL    HW173020   7.515  12.510  14.158
23727SOL    HW273021   7.447  12.580  14.274
23728SOL     OW73022   9.251   0.878   3.823
23728SOL    HW173023   9.240   0.898   3.916
23728SOL    HW273024   9.256   0.782   3.820
23729SOL     OW73025  14.798  11.179  14.759
23729SOL    HW173026  14.799  11.271  14.787
23729SOL    HW273027   0.007  11.164  14.725
23730SOL     OW73028   9.027  14.085   3.807
23730SOL    HW173029   8.979  14.015   3.851
23730SOL    HW273030   8.961  14.154   3.793
23731SOL     OW73031  13.520  11.057   3.992
23731SOL    HW173032  13.452  11.052   3.926
23731SOL    HW273033  13.535  10.966   4.018
23732SOL     OW73034   3.190  10.625   6.151
23732SOL    HW173035   3.225  10.538   6.163
23732SOL    HW273036   3.252  10.668   6.092
23733SOL     OW73037   9.061   6.412   2.237
23733SOL    HW173038   9.111   6.493   2.233
23733SOL    HW273039   8.989   6.426   2.175
23734SOL     OW73040  11.650   6.478   9.019
23734SOL    HW173041  11.699   6.529   9.083
23734SOL    HW273042  11.585   6.539   8.985
23735SOL     OW73043   7.954   8.534   2.907
23735SOL    HW173044   7.864   8.563   2.888
23735SOL    HW273045   7.973   8.471   2.838
23736SOL     OW73046   9.610   0.258   2.858
23736SOL    HW173047   9.567   0.183   2.899
23736SOL    HW273048   9.566   0.268   2.774
23737SOL     OW73049   0.219  11.121  10.301
23737SOL    HW173050   0.225  11.083  10.214
23737SOL    HW273051   0.304  11.104  10.341
23738SOL     OW73052   6.656   2.040   8.113
23738SOL    HW173053   6.604   1.970   8.073
23738SOL    HW273054   6.635   2.118   8.062
23739SOL     OW73055   6.438   1.536   2.132
23739SOL    HW173056   6.457   1.459   2.077
23739SOL    HW273057   6.448   1.504   2.222
23740SOL     OW73058   3.364   3.262   2.276
23740SOL    HW173059   3.280   3.244   2.318
23740SOL    HW273060   3.375   3.356   2.285
23741SOL     OW73061   1.432   0.844   2.644
23741SOL    HW173062   1.406   0.824   2.734
23741SOL    HW273063   1.375   0.915   2.617
23742SOL     OW73064   0.009  14.368  13.515
23742SOL    HW173065  14.798  14.340  13.504
23742SOL    HW273066   0.003  14.444  13.574
23743SOL     OW73067   3.943  13.587   1.210
23743SOL    HW173068   3.922  13.569   1.119
23743SOL    HW273069   4.024  13.538   1.226
23744SOL     OW73070   7.069   5.101   2.200
23744SOL    HW173071   7.141   5.140   2.152
23744SOL    HW273072   7.110   5.059   2.276
23745SOL     OW73073   0.091  10.077  13.778
23745SOL    HW173074   0.040  10.157  13.771
23745SOL    HW273075   0.176  10.105  13.812
23746SOL     OW73076   9.208   2.209   2.382
23746SOL    HW173077   9.289   2.188   2.335
23746SOL    HW273078   9.233   2.279   2.442
23747SOL     OW73079   7.734   4.222   8.299
23747SOL    HW173080   7.712   4.299   8.352
23747SOL    HW273081   7.820   4.242   8.262
23748SOL     OW73082   7.340   3.592   1.017
23748SOL    HW173083   7.385   3.626   0.939
23748SOL    HW273084   7.391   3.625   1.091
23749SOL     OW73085   5.723   5.439  10.122
23749SOL    HW173086   5.791   5.473  10.064
23749SOL    HW273087   5.710   5.509  10.186
23750SOL     OW73088  13.719  13.516   3.956
23750SOL    HW173089  13.627  13.505   3.931
23750SOL    HW273090  13.719  13.594   4.012
23751SOL     OW73091   3.233  12.009   4.321
23751SOL    HW173092   3.261  11.949   4.391
23751SOL    HW273093   3.291  12.084   4.329
23752SOL     OW73094   9.576   6.670  14.023
23752SOL    HW173095   9.583   6.751  13.972
23752SOL    HW273096   9.607   6.694  14.110
23753SOL     OW73097  11.219   5.772   1.994
23753SOL    HW173098  11.238   5.768   2.088
23753SOL    HW273099  11.304   5.766   1.952
23754SOL     OW73100   6.431   1.370   9.549
23754SOL    HW173101   6.505   1.353   9.491
23754SOL    HW273102   6.361   1.313   9.517
23755SOL     OW73103   6.826   1.287   4.196
23755SOL    HW173104   6.734   1.283   4.220
23755SOL    HW273105   6.826   1.284   4.100
23756SOL     OW73106   0.586   2.298   4.193
23756SOL    HW173107   0.626   2.211   4.194
23756SOL    HW273108   0.508   2.290   4.247
23757SOL     OW73109  12.106   2.616   0.882
23757SOL    HW173110  12.195   2.583   0.869
23757SOL    HW273111  12.101   2.694   0.827
23758SOL     OW73112  10.133  13.788   1.362
23758SOL    HW173113  10.201  13.833   1.310
23758SOL    HW273114  10.055  13.841   1.350
23759SOL     OW73115   1.805   3.826  10.078
23759SOL    HW173116   1.815   3.864  10.165
23759SOL    HW273117   1.809   3.901  10.018
23760SOL     OW73118  13.227   0.281   9.574
23760SOL    HW173119  13.322   0.269   9.577
23760SOL    HW273120  13.212   0.363   9.622
23761SOL     OW73121   0.019   2.538   1.444
23761SOL    HW173122  14.822   2.593   1.432
23761SOL    HW273123   0.085   2.576   1.385
23762SOL     OW73124   7.682   1.483   8.465
23762SOL    HW173125   7.762   1.434   8.482
23762SOL    HW273126   7.615   1.441   8.519
23763SOL     OW73127   2.346   6.680   3.149
23763SOL    HW173128   2.434   6.660   3.181
23763SOL    HW273129   2.312   6.597   3.118
23764SOL     OW73130  14.125   7.641  13.215
23764SOL    HW173131  14.056   7.601  13.268
23764SOL    HW273132  14.207   7.609  13.254
23765SOL     OW73133   3.846  13.320   4.937
23765SOL    HW173134   3.872  13.234   4.971
23765SOL    HW273135   3.864  13.380   5.009
23766SOL     OW73136   7.621  13.640  10.585
23766SOL    HW173137   7.562  13.626  10.658
23766SOL    HW273138   7.565  13.671  10.514
23767SOL     OW73139   4.490  10.816   6.908
23767SOL    HW173140   4.408  10.767   6.915
23767SOL    HW273141   4.468  10.894   6.859
23768SOL     OW73142  12.251   0.415   8.884
23768SOL    HW173143  12.188   0.373   8.825
23768SOL    HW273144  12.199   0.476   8.935
23769SOL     OW73145   4.298   8.326   5.549
23769SOL    HW173146   4.321   8.381   5.474
23769SOL    HW273147   4.224   8.273   5.519
23770SOL     OW73148   5.878  13.379  10.763
23770SOL    HW173149   5.797  13.391  10.813
23770SOL    HW273150   5.893  13.464  10.722
23771SOL     OW73151   3.593   4.615   7.490
23771SOL    HW173152   3.684   4.644   7.486
23771SOL    HW273153   3.595   4.524   7.460
23772SOL     OW73154   2.726  11.954  11.753
23772SOL    HW173155   2.767  12.006  11.822
23772SOL    HW273156   2.786  11.960  11.679
23773SOL     OW73157   4.584   0.122  11.614
23773SOL    HW173158   4.507   0.173  11.590
23773SOL    HW273159   4.643   0.131  11.538
23774SOL     OW73160  12.204   0.837   6.654
23774SOL    HW173161  12.296   0.839   6.628
23774SOL    HW273162  12.197   0.901   6.725
23775SOL     OW73163  12.979   5.652   0.071
23775SOL    HW173164  12.916   5.656  14.879
23775SOL    HW273165  12.927   5.632   0.148
23776SOL     OW73166  10.019   9.270   1.539
23776SOL    HW173167   9.939   9.314   1.567
23776SOL    HW273168  10.060   9.331   1.479
23777SOL     OW73169   3.022   3.708  13.198
23777SOL    HW173170   2.964   3.778  13.167
23777SOL    HW273171   3.046   3.660  13.119
23778SOL     OW73172   2.676  14.384   0.450
23778SOL    HW173173   2.597  14.407   0.499
23778SOL    HW273174   2.684  14.454   0.385
23779SOL     OW73175  10.687  14.222  13.184
23779SOL    HW173176  10.641  14.268  13.254
23779SOL    HW273177  10.645  14.252  13.103
23780SOL     OW73178  14.839   1.430   5.862
23780SOL    HW173179   0.018   1.381   5.805
23780SOL    HW273180  14.752   1.415   5.825
23781SOL     OW73181  13.572   3.215   3.555
23781SOL    HW173182  13.488   3.171   3.571
23781SOL    HW273183  13.595   3.189   3.465
23782SOL     OW73184   8.335  13.880   8.898
23782SOL    HW173185   8.331  13.971   8.929
23782SOL    HW273186   8.426  13.853   8.914
23783SOL     OW73187   9.918   9.666   4.374
23783SOL    HW173188   9.951   9.666   4.464
23783SOL    HW273189   9.996   9.654   4.320
23784SOL     OW73190   0.957   0.479   9.947
23784SOL    HW173191   0.995   0.405   9.901
23784SOL    HW273192   1.029   0.515   9.999
23785SOL     OW73193   5.241   2.463   7.058
23785SOL    HW173194   5.179   2.425   7.120
23785SOL    HW273195   5.303   2.392   7.039
23786SOL     OW73196   9.006   3.873   4.344
23786SOL    HW173197   9.004   3.796   4.288
23786SOL    HW273198   8.947   3.935   4.302
23787SOL     OW73199   4.994  12.250  13.077
23787SOL    HW173200   4.993  12.250  12.981
23787SOL    HW273201   5.087  12.262  13.100
23788SOL     OW73202  12.535  12.020   8.700
23788SOL    HW173203  12.531  12.020   8.604
23788SOL    HW273204  12.629  12.020   8.719
23789SOL     OW73205   1.055   9.766   4.085
23789SOL    HW173206   1.118   9.806   4.145
23789SOL    HW273207   1.054   9.824   4.009
23790SOL     OW73208   7.298   3.543  10.089
23790SOL    HW173209   7.356   3.470  10.070
23790SOL    HW273210   7.298   3.550  10.184
23791SOL     OW73211   4.808  10.163   5.409
23791SOL    HW173212   4.865  10.088   5.424
23791SOL    HW273213   4.729  10.127   5.370
23792SOL     OW73214   1.101  11.524  11.105
23792SOL    HW173215   1.111  11.439  11.063
23792SOL    HW273216   1.163  11.581  11.059
23793SOL     OW73217   0.427   6.784  12.275
23793SOL    HW173218   0.399   6.699  12.241
23793SOL    HW273219   0.488   6.817  12.209
23794SOL     OW73220   1.368   9.520   4.848
23794SOL    HW173221   1.434   9.583   4.877
23794SOL    HW273222   1.290   9.543   4.900
23795SOL     OW73223  14.041   2.709   1.432
23795SOL    HW173224  14.104   2.647   1.397
23795SOL    HW273225  14.014   2.762   1.357
23796SOL     OW73226   0.439  12.525   6.369
23796SOL    HW173227   0.447  12.598   6.308
23796SOL    HW273228   0.519  12.529   6.422
23797SOL     OW73229   2.876   1.007  11.651
23797SOL    HW173230   2.866   0.913  11.671
23797SOL    HW273231   2.898   1.047  11.735
23798SOL     OW73232   1.301  14.616  12.409
23798SOL    HW173233   1.380  14.598  12.358
23798SOL    HW273234   1.311  14.564  12.489
23799SOL     OW73235   3.773   1.439   9.798
23799SOL    HW173236   3.773   1.379   9.872
23799SOL    HW273237   3.835   1.508   9.822
23800SOL     OW73238  13.887   1.626   6.434
23800SOL    HW173239  13.947   1.662   6.369
23800SOL    HW273240  13.837   1.701   6.466
23801SOL     OW73241  13.481   0.894   8.769
23801SOL    HW173242  13.514   0.976   8.733
23801SOL    HW273243  13.437   0.851   8.695
23802SOL     OW73244   5.431   6.690   0.648
23802SOL    HW173245   5.495   6.702   0.717
23802SOL    HW273246   5.448   6.760   0.585
23803SOL     OW73247  13.747   0.390   0.170
23803SOL    HW173248  13.661   0.431   0.176
23803SOL    HW273249  13.750   0.352   0.082
23804SOL     OW73250  12.940   5.231   7.158
23804SOL    HW173251  12.846   5.211   7.152
23804SOL    HW273252  12.979   5.153   7.197
23805SOL     OW73253   3.720  14.532   1.608
23805SOL    HW173254   3.659  14.513   1.537
23805SOL    HW273255   3.789  14.467   1.599
23806SOL     OW73256   2.389   9.001   4.151
23806SOL    HW173257   2.406   8.907   4.155
23806SOL    HW273258   2.312   9.009   4.094
23807SOL     OW73259   9.597  11.930   3.865
23807SOL    HW173260   9.667  11.865   3.871
23807SOL    HW273261   9.640  12.009   3.834
23808SOL     OW73262  11.136   7.460  13.872
23808SOL    HW173263  11.055   7.509  13.886
23808SOL    HW273264  11.192   7.521  13.824
23809SOL     OW73265   0.711   0.846   0.831
23809SOL    HW173266   0.735   0.926   0.783
23809SOL    HW273267   0.621   0.862   0.861
23810SOL     OW73268   6.084  13.335  11.834
23810SOL    HW173269   6.048  13.248  11.851
23810SOL    HW273270   6.011  13.395  11.848
23811SOL     OW73271   8.634  12.748  13.789
23811SOL    HW173272   8.676  12.667  13.760
23811SOL    HW273273   8.568  12.766  13.722
23812SOL     OW73274  13.650   4.602  12.423
23812SOL    HW173275  13.654   4.696  12.443
23812SOL    HW273276  13.717   4.588  12.357
23813SOL     OW73277  13.349  10.449  12.517
23813SOL    HW173278  13.279  10.510  12.493
23813SOL    HW273279  13.420  10.469  12.457
23814SOL     OW73280   3.845  13.057  12.427
23814SOL    HW173281   3.790  13.134  12.441
23814SOL    HW273282   3.925  13.075  12.476
23815SOL     OW73283   7.522   3.106   1.630
23815SOL    HW173284   7.602   3.153   1.607
23815SOL    HW273285   7.460   3.175   1.655
23816SOL     OW73286   7.567   2.288  11.519
23816SOL    HW173287   7.637   2.298  11.455
23816SOL    HW273288   7.497   2.346  11.487
23817SOL     OW73289   3.219  12.416   8.099
23817SOL    HW173290   3.209  12.352   8.028
23817SOL    HW273291   3.313  12.433   8.101
23818SOL     OW73292  11.203   7.379   3.051
23818SOL    HW173293  11.125   7.431   3.033
23818SOL    HW273294  11.172   7.288   3.049
23819SOL     OW73295   9.903  14.680  14.653
23819SOL    HW173296   9.883  14.764  14.696
23819SOL    HW273297   9.988  14.655  14.689
23820SOL     OW73298   0.963   1.138  12.073
23820SOL    HW173299   1.047   1.117  12.032
23820SOL    HW273300   0.935   1.218  12.030
23821SOL     OW73301   6.490  12.897   2.769
23821SOL    HW173302   6.493  12.975   2.824
23821SOL    HW273303   6.405  12.858   2.787
23822SOL     OW73304   1.731  11.887  11.615
23822SOL    HW173305   1.694  11.813  11.566
23822SOL    HW273306   1.809  11.852  11.657
23823SOL     OW73307   8.663  11.477   5.778
23823SOL    HW173308   8.654  11.548   5.841
23823SOL    HW273309   8.597  11.412   5.804
23824SOL     OW73310   7.697   8.635   2.494
23824SOL    HW173311   7.680   8.549   2.534
23824SOL    HW273312   7.792   8.644   2.497
23825SOL     OW73313   6.012   4.519   4.863
23825SOL    HW173314   6.055   4.477   4.937
23825SOL    HW273315   5.940   4.459   4.840
23826SOL     OW73316  13.990   9.518   6.971
23826SOL    HW173317  14.061   9.503   7.034
23826SOL    HW273318  14.033   9.560   6.896
23827SOL     OW73319   1.685   4.484   2.843
23827SOL    HW173320   1.708   4.533   2.764
23827SOL    HW273321   1.659   4.398   2.810
23828SOL     OW73322   0.108   4.475  12.272
23828SOL    HW173323   0.044   4.405  12.257
23828SOL    HW273324   0.152   4.450  12.353
23829SOL     OW73325   9.435   9.988   1.785
23829SOL    HW173326   9.409  10.005   1.694
23829SOL    HW273327   9.354   9.999   1.836
23830SOL     OW73328  13.388   1.697   0.603
23830SOL    HW173329  13.388   1.643   0.682
23830SOL    HW273330  13.297   1.696   0.573
23831SOL     OW73331   3.441   4.369   2.033
23831SOL    HW173332   3.484   4.317   2.101
23831SOL    HW273333   3.452   4.319   1.952
23832SOL     OW73334   4.227  10.885   7.664
23832SOL    HW173335   4.143  10.927   7.646
23832SOL    HW273336   4.206  10.813   7.724
23833SOL     OW73337   2.652  11.914   3.122
23833SOL    HW173338   2.572  11.884   3.078
23833SOL    HW273339   2.702  11.834   3.139
23834SOL     OW73340   4.526   6.591   3.244
23834SOL    HW173341   4.584   6.556   3.312
23834SOL    HW273342   4.527   6.524   3.176
23835SOL     OW73343   4.130  12.265   0.621
23835SOL    HW173344   4.159  12.202   0.687
23835SOL    HW273345   4.146  12.221   0.537
23836SOL     OW73346   2.206  10.489   6.125
23836SOL    HW173347   2.132  10.445   6.166
23836SOL    HW273348   2.235  10.429   6.057
23837SOL     OW73349   9.932   1.541  10.218
23837SOL    HW173350  10.012   1.584  10.187
23837SOL    HW273351   9.865   1.610  10.214
23838SOL     OW73352   4.198   5.099   1.179
23838SOL    HW173353   4.117   5.148   1.194
23838SOL    HW273354   4.268   5.159   1.203
23839SOL     OW73355   3.750   6.191  10.141
23839SOL    HW173356   3.810   6.116  10.147
23839SOL    HW273357   3.727   6.196  10.048
23840SOL     OW73358   6.523   3.726   0.677
23840SOL    HW173359   6.564   3.812   0.674
23840SOL    HW273360   6.429   3.744   0.670
23841SOL     OW73361   0.825  10.944   9.212
23841SOL    HW173362   0.761  10.928   9.281
23841SOL    HW273363   0.811  11.036   9.188
23842SOL     OW73364   9.811   0.840  14.143
23842SOL    HW173365   9.760   0.773  14.098
23842SOL    HW273366   9.745   0.897  14.183
23843SOL     OW73367   7.743   0.063   2.021
23843SOL    HW173368   7.740   0.159   2.017
23843SOL    HW273369   7.707   0.033   1.938
23844SOL     OW73370  10.724   4.216   1.525
23844SOL    HW173371  10.712   4.127   1.558
23844SOL    HW273372  10.815   4.218   1.495
23845SOL     OW73373  12.191   5.296   6.803
23845SOL    HW173374  12.202   5.310   6.897
23845SOL    HW273375  12.139   5.371   6.774
23846SOL     OW73376  10.872   7.289   5.561
23846SOL    HW173377  10.840   7.241   5.485
23846SOL    HW273378  10.808   7.359   5.573
23847SOL     OW73379   9.147  10.306  12.383
23847SOL    HW173380   9.062  10.329  12.345
23847SOL    HW273381   9.203  10.381  12.364
23848SOL     OW73382   1.418  12.959   8.954
23848SOL    HW173383   1.350  12.998   8.899
23848SOL    HW273384   1.376  12.883   8.994
23849SOL     OW73385   7.137   9.877   1.316
23849SOL    HW173386   7.183   9.944   1.266
23849SOL    HW273387   7.080   9.925   1.375
23850SOL     OW73388   9.761  13.866  13.607
23850SOL    HW173389   9.826  13.896  13.671
23850SOL    HW273390   9.805  13.794  13.561
23851SOL     OW73391   2.299  10.749  13.758
23851SOL    HW173392   2.336  10.672  13.713
23851SOL    HW273393   2.294  10.723  13.850
23852SOL     OW73394   9.936  13.477   2.402
23852SOL    HW173395  10.005  13.528   2.360
23852SOL    HW273396   9.939  13.392   2.358
23853SOL     OW73397   2.605   2.584   2.359
23853SOL    HW173398   2.511   2.597   2.348
23853SOL    HW273399   2.619   2.588   2.453
23854SOL     OW73400   5.309   8.150   7.670
23854SOL    HW173401   5.317   8.245   7.668
23854SOL    HW273402   5.398   8.118   7.654
23855SOL     OW73403   1.869  13.781   6.482
23855SOL    HW173404   1.824  13.746   6.405
23855SOL    HW273405   1.943  13.830   6.446
23856SOL     OW73406   0.756   8.824   4.929
23856SOL    HW173407   0.679   8.877   4.948
23856SOL    HW273408   0.823   8.855   4.991
23857SOL     OW73409  13.363  12.359  10.098
23857SOL    HW173410  13.315  12.416  10.158
23857SOL    HW273411  13.328  12.381  10.011
23858SOL     OW73412   4.333  12.238  14.040
23858SOL    HW173413   4.392  12.255  14.113
23858SOL    HW273414   4.345  12.313  13.982
23859SOL     OW73415   5.984  10.214  10.885
23859SOL    HW173416   6.008  10.159  10.960
23859SOL    HW273417   6.016  10.301  10.909
23860SOL     OW73418   5.250  11.802   8.862
23860SOL    HW173419   5.240  11.781   8.769
23860SOL    HW273420   5.177  11.758   8.904
23861SOL     OW73421   7.394  11.276   2.773
23861SOL    HW173422   7.403  11.234   2.687
23861SOL    HW273423   7.393  11.369   2.754
23862SOL     OW73424   3.454  14.581   7.194
23862SOL    HW173425   3.412  14.585   7.108
23862SOL    HW273426   3.448  14.489   7.219
23863SOL     OW73427  12.720   0.011   7.689
23863SOL    HW173428  12.808  14.874   7.657
23863SOL    HW273429  12.662  14.860   7.619
23864SOL     OW73430   3.957  13.494  11.156
23864SOL    HW173431   4.028  13.430  11.149
23864SOL    HW273432   3.962  13.545  11.075
23865SOL     OW73433  10.968  13.991  10.015
23865SOL    HW173434  10.931  13.947  10.092
23865SOL    HW273435  10.918  13.957   9.941
23866SOL     OW73436   6.812  14.573  11.433
23866SOL    HW173437   6.888  14.532  11.391
23866SOL    HW273438   6.762  14.611  11.361
23867SOL     OW73439   9.559   9.250  10.590
23867SOL    HW173440   9.519   9.190  10.527
23867SOL    HW273441   9.484   9.293  10.632
23868SOL     OW73442   5.907   7.085  12.057
23868SOL    HW173443   5.902   7.042  12.142
23868SOL    HW273444   5.871   7.173  12.073
23869SOL     OW73445   6.341   4.895  13.510
23869SOL    HW173446   6.384   4.914  13.426
23869SOL    HW273447   6.294   4.975  13.531
23870SOL     OW73448   9.293  10.504   1.913
23870SOL    HW173449   9.305  10.579   1.971
23870SOL    HW273450   9.266  10.542   1.829
23871SOL     OW73451   5.292   8.747  11.876
23871SOL    HW173452   5.214   8.785  11.834
23871SOL    HW273453   5.348   8.823  11.895
23872SOL     OW73454  11.967   1.341   7.212
23872SOL    HW173455  11.989   1.298   7.294
23872SOL    HW273456  11.989   1.276   7.145
23873SOL     OW73457   5.428  11.871   9.900
23873SOL    HW173458   5.434  11.792   9.847
23873SOL    HW273459   5.418  11.942   9.837
23874SOL     OW73460  14.619   0.267   1.223
23874SOL    HW173461  14.709   0.281   1.254
23874SOL    HW273462  14.571   0.344   1.255
23875SOL     OW73463   7.849  11.787  14.032
23875SOL    HW173464   7.925  11.731  14.019
23875SOL    HW273465   7.785  11.756  13.967
23876SOL     OW73466   0.324   2.315   2.004
23876SOL    HW173467   0.413   2.338   1.976
23876SOL    HW273468   0.271   2.322   1.924
23877SOL     OW73469   3.250  14.205   4.926
23877SOL    HW173470   3.338  14.204   4.890
23877SOL    HW273471   3.245  14.128   4.982
23878SOL     OW73472   9.840   3.686   3.000
23878SOL    HW173473   9.861   3.636   2.921
23878SOL    HW273474   9.925   3.702   3.041
23879SOL     OW73475   8.530   0.917   2.140
23879SOL    HW173476   8.456   0.967   2.177
23879SOL    HW273477   8.599   0.925   2.205
23880SOL     OW73478   0.029   7.276  10.401
23880SOL    HW173479   0.119   7.247  10.412
23880SOL    HW273480   0.004   7.310  10.487
23881SOL     OW73481   7.453   8.217   2.922
23881SOL    HW173482   7.434   8.303   2.960
23881SOL    HW273483   7.478   8.235   2.832
23882SOL     OW73484  14.208   7.943   4.715
23882SOL    HW173485  14.140   7.956   4.781
23882SOL    HW273486  14.161   7.923   4.635
23883SOL     OW73487   2.895   1.196  12.835
23883SOL    HW173488   2.974   1.248  12.852
23883SOL    HW273489   2.842   1.251  12.777
23884SOL     OW73490   3.181   3.235  10.838
23884SOL    HW173491   3.132   3.163  10.798
23884SOL    HW273492   3.114   3.289  10.880
23885SOL     OW73493   5.728   3.398   7.940
23885SOL    HW173494   5.726   3.481   7.891
23885SOL    HW273495   5.637   3.372   7.947
23886SOL     OW73496   3.005   8.161   4.535
23886SOL    HW173497   3.072   8.188   4.597
23886SOL    HW273498   2.951   8.239   4.522
23887SOL     OW73499  12.813   3.002   5.652
23887SOL    HW173500  12.792   2.972   5.740
23887SOL    HW273501  12.796   2.926   5.596
23888SOL     OW73502   0.818   3.546   8.226
23888SOL    HW173503   0.772   3.495   8.159
23888SOL    HW273504   0.888   3.489   8.256
23889SOL     OW73505   8.170   9.827   3.776
23889SOL    HW173506   8.143   9.763   3.710
23889SOL    HW273507   8.222   9.892   3.727
23890SOL     OW73508   1.076  12.905   4.617
23890SOL    HW173509   0.991  12.931   4.652
23890SOL    HW273510   1.055  12.843   4.547
23891SOL     OW73511   3.981   8.461   3.665
23891SOL    HW173512   4.054   8.451   3.604
23891SOL    HW273513   4.017   8.439   3.751
23892SOL     OW73514   1.085   4.748  10.813
23892SOL    HW173515   1.000   4.785  10.837
23892SOL    HW273516   1.126   4.727  10.897
23893SOL     OW73517  11.900   3.854  11.552
23893SOL    HW173518  11.899   3.762  11.528
23893SOL    HW273519  11.952   3.896  11.484
23894SOL     OW73520   3.977   8.782   7.888
23894SOL    HW173521   4.054   8.731   7.910
23894SOL    HW273522   4.012   8.863   7.849
23895SOL     OW73523   3.920   5.777   0.694
23895SOL    HW173524   3.931   5.701   0.637
23895SOL    HW273525   3.878   5.743   0.773
23896SOL     OW73526  13.681   8.233   9.497
23896SOL    HW173527  13.760   8.287   9.506
23896SOL    HW273528  13.610   8.297   9.485
23897SOL     OW73529   1.059   5.704   9.333
23897SOL    HW173530   1.063   5.609   9.347
23897SOL    HW273531   1.129   5.739   9.389
23898SOL     OW73532   5.647   9.998   9.654
23898SOL    HW173533   5.709  10.065   9.627
23898SOL    HW273534   5.598   9.977   9.574
23899SOL     OW73535  14.854   6.554   9.476
23899SOL    HW173536   0.052   6.578   9.425
23899SOL    HW273537  14.821   6.637   9.510
23900SOL     OW73538   5.750  10.892  13.670
23900SOL    HW173539   5.841  10.868  13.682
23900SOL    HW273540   5.751  10.958  13.600
23901SOL     OW73541   9.290   9.370  12.763
23901SOL    HW173542   9.295   9.382  12.668
23901SOL    HW273543   9.363   9.422  12.797
23902SOL     OW73544  11.812   5.833   8.828
23902SOL    HW173545  11.753   5.841   8.753
23902SOL    HW273546  11.830   5.739   8.834
23903SOL     OW73547   8.680   3.505  11.677
23903SOL    HW173548   8.697   3.559  11.754
23903SOL    HW273549   8.755   3.520  11.620
23904SOL     OW73550  11.063   1.417   9.443
23904SOL    HW173551  11.116   1.387   9.370
23904SOL    HW273552  11.126   1.458   9.503
23905SOL     OW73553  14.451   0.865  12.462
23905SOL    HW173554  14.418   0.783  12.499
23905SOL    HW273555  14.372   0.918  12.447
23906SOL     OW73556   3.680  14.097   4.176
23906SOL    HW173557   3.735  14.123   4.250
23906SOL    HW273558   3.737  14.040   4.124
23907SOL     OW73559   4.968  12.586  10.809
23907SOL    HW173560   4.909  12.603  10.735
23907SOL    HW273561   4.964  12.491  10.821
23908SOL     OW73562   7.770  13.572   5.637
23908SOL    HW173563   7.681  13.595   5.665
23908SOL    HW273564   7.811  13.536   5.716
23909SOL     OW73565   3.302   2.515   5.666
23909SOL    HW173566   3.358   2.479   5.597
23909SOL    HW273567   3.340   2.601   5.685
23910SOL     OW73568   2.140   5.071   1.387
23910SOL    HW173569   2.146   5.139   1.320
23910SOL    HW273570   2.098   4.997   1.342
23911SOL     OW73571   6.589  12.138  12.251
23911SOL    HW173572   6.531  12.151  12.176
23911SOL    HW273573   6.677  12.155  12.217
23912SOL     OW73574  13.727   1.946  13.574
23912SOL    HW173575  13.669   2.022  13.562
23912SOL    HW273576  13.710   1.917  13.663
23913SOL     OW73577   1.436   0.313  12.358
23913SOL    HW173578   1.410   0.224  12.337
23913SOL    HW273579   1.507   0.332  12.297
23914SOL     OW73580   4.857   2.974   6.406
23914SOL    HW173581   4.779   2.952   6.456
23914SOL    HW273582   4.830   3.049   6.353
23915SOL     OW73583  13.314   0.656   8.031
23915SOL    HW173584  13.295   0.682   7.941
23915SOL    HW273585  13.251   0.705   8.084
23916SOL     OW73586   9.049  11.726   2.117
23916SOL    HW173587   9.070  11.632   2.115
23916SOL    HW273588   9.042  11.751   2.025
23917SOL     OW73589  12.565   8.904   1.613
23917SOL    HW173590  12.614   8.891   1.532
23917SOL    HW273591  12.569   8.998   1.630
23918SOL     OW73592  10.850  13.085   3.930
23918SOL    HW173593  10.776  13.115   3.983
23918SOL    HW273594  10.870  13.159   3.873
23919SOL     OW73595   7.651  11.192  10.538
23919SOL    HW173596   7.720  11.232  10.486
23919SOL    HW273597   7.594  11.265  10.562
23920SOL     OW73598  10.918   4.111   6.432
23920SOL    HW173599  10.978   4.090   6.360
23920SOL    HW273600  10.914   4.206   6.433
23921SOL     OW73601   1.531  14.293   8.943
23921SOL    HW173602   1.567  14.297   8.855
23921SOL    HW273603   1.576  14.219   8.984
23922SOL     OW73604   0.754  11.059  10.554
23922SOL    HW173605   0.710  11.139  10.525
23922SOL    HW273606   0.693  11.020  10.617
23923SOL     OW73607  12.155   6.917  11.527
23923SOL    HW173608  12.213   6.852  11.488
23923SOL    HW273609  12.092   6.937  11.458
23924SOL     OW73610   6.855  13.204   9.495
23924SOL    HW173611   6.929  13.259   9.468
23924SOL    HW273612   6.896  13.130   9.539
23925SOL     OW73613  10.851  10.854  12.542
23925SOL    HW173614  10.797  10.789  12.586
23925SOL    HW273615  10.918  10.802  12.496
23926SOL     OW73616   4.848   2.750   5.760
23926SOL    HW173617   4.799   2.682   5.805
23926SOL    HW273618   4.937   2.744   5.795
23927SOL     OW73619   5.555   9.550  14.832
23927SOL    HW173620   5.550   9.472   0.007
23927SOL    HW273621   5.641   9.544  14.790
23928SOL     OW73622   2.942   0.351  10.525
23928SOL    HW173623   2.949   0.405  10.446
23928SOL    HW273624   2.953   0.261  10.494
23929SOL     OW73625  14.829   7.505   1.711
23929SOL    HW173626  14.746   7.553   1.714
23929SOL    HW273627   0.017   7.572   1.719
23930SOL     OW73628   3.475   2.728   8.245
23930SOL    HW173629   3.521   2.809   8.224
23930SOL    HW273630   3.506   2.704   8.331
23931SOL     OW73631   3.873   1.781   5.623
23931SOL    HW173632   3.943   1.843   5.604
23931SOL    HW273633   3.867   1.727   5.545
23932SOL     OW73634   6.623   1.528   2.545
23932SOL    HW173635   6.705   1.570   2.522
23932SOL    HW273636   6.572   1.597   2.588
23933SOL     OW73637   9.669  11.243   6.951
23933SOL    HW173638   9.701  11.166   6.905
23933SOL    HW273639   9.575  11.246   6.930
23934SOL     OW73640  13.846   3.639   6.751
23934SOL    HW173641  13.933   3.625   6.789
23934SOL    HW273642  13.862   3.691   6.672
23935SOL     OW73643   4.003  11.816   1.189
23935SOL    HW173644   3.926  11.786   1.140
23935SOL    HW273645   4.042  11.736   1.223
23936SOL     OW73646   9.933   4.829   3.573
23936SOL    HW173647   9.881   4.770   3.627
23936SOL    HW273648   9.978   4.772   3.510
23937SOL     OW73649  11.532  11.786   5.697
23937SOL    HW173650  11.514  11.712   5.640
23937SOL    HW273651  11.519  11.863   5.641
23938SOL     OW73652   4.097  12.132   4.604
23938SOL    HW173653   4.142  12.087   4.533
23938SOL    HW273654   4.023  12.176   4.561
23939SOL     OW73655  10.132   1.956   5.155
23939SOL    HW173656  10.169   2.035   5.196
23939SOL    HW273657  10.045   1.948   5.193
23940SOL     OW73658  12.134   4.012   6.320
23940SOL    HW173659  12.064   3.957   6.354
23940SOL    HW273660  12.089   4.089   6.286
23941SOL     OW73661   5.735  13.432   1.930
23941SOL    HW173662   5.719  13.347   1.971
23941SOL    HW273663   5.678  13.433   1.853
23942SOL     OW73664   7.287  14.555   5.799
23942SOL    HW173665   7.345  14.521   5.731
23942SOL    HW273666   7.209  14.584   5.752
23943SOL     OW73667   8.574   2.259  10.499
23943SOL    HW173668   8.544   2.264  10.589
23943SOL    HW273669   8.653   2.312  10.496
23944SOL     OW73670   9.963   1.665   1.004
23944SOL    HW173671   9.875   1.702   1.007
23944SOL    HW273672   9.976   1.640   0.913
23945SOL     OW73673   8.413  10.401  10.104
23945SOL    HW173674   8.381  10.400  10.194
23945SOL    HW273675   8.483  10.336  10.102
23946SOL     OW73676   1.953  12.938   9.017
23946SOL    HW173677   1.984  12.983   9.096
23946SOL    HW273678   1.865  12.973   9.003
23947SOL     OW73679   1.874   1.441   1.548
23947SOL    HW173680   1.941   1.487   1.597
23947SOL    HW273681   1.848   1.503   1.479
23948SOL     OW73682   8.498   2.097   2.198
23948SOL    HW173683   8.410   2.103   2.236
23948SOL    HW273684   8.521   2.005   2.205
23949SOL     OW73685  12.260   1.676   8.295
23949SOL    HW173686  12.223   1.762   8.271
23949SOL    HW273687  12.203   1.645   8.365
23950SOL     OW73688   4.387   1.684  12.911
23950SOL    HW173689   4.381   1.732  12.993
23950SOL    HW273690   4.448   1.735  12.858
23951SOL     OW73691  13.145   8.562  14.459
23951SOL    HW173692  13.065   8.509  14.463
23951SOL    HW273693  13.119   8.648  14.490
23952SOL     OW73694   1.869   0.630   4.308
23952SOL    HW173695   1.965   0.624   4.312
23952SOL    HW273696   1.839   0.540   4.325
23953SOL     OW73697   9.424   7.161  10.605
23953SOL    HW173698   9.443   7.078  10.649
23953SOL    HW273699   9.442   7.144  10.513
23954SOL     OW73700   9.713   8.794   4.491
23954SOL    HW173701   9.755   8.880   4.486
23954SOL    HW273702   9.619   8.814   4.498
23955SOL     OW73703   2.857   4.911   6.783
23955SOL    HW173704   2.797   4.970   6.738
23955SOL    HW273705   2.912   4.969   6.836
23956SOL     OW73706   9.939   6.966   4.033
23956SOL    HW173707   9.994   6.953   3.955
23956SOL    HW273708   9.915   6.878   4.061
23957SOL     OW73709  14.140   1.229   3.371
23957SOL    HW173710  14.048   1.202   3.364
23957SOL    HW273711  14.188   1.165   3.318
23958SOL     OW73712   0.939   9.465  11.896
23958SOL    HW173713   0.979   9.434  11.977
23958SOL    HW273714   0.913   9.555  11.916
23959SOL     OW73715   9.402   8.233   2.322
23959SOL    HW173716   9.373   8.305   2.379
23959SOL    HW273717   9.380   8.154   2.370
23960SOL     OW73718   8.453  11.542  13.878
23960SOL    HW173719   8.516  11.498  13.936
23960SOL    HW273720   8.450  11.632  13.909
23961SOL     OW73721  13.256   1.393  10.680
23961SOL    HW173722  13.319   1.349  10.736
23961SOL    HW273723  13.301   1.404  10.596
23962SOL     OW73724   8.599  12.795   0.624
23962SOL    HW173725   8.617  12.745   0.705
23962SOL    HW273726   8.603  12.729   0.555
23963SOL     OW73727   8.221  14.688   1.487
23963SOL    HW173728   8.311  14.698   1.456
23963SOL    HW273729   8.175  14.648   1.414
23964SOL     OW73730  10.510  12.589   4.451
23964SOL    HW173731  10.527  12.521   4.385
23964SOL    HW273732  10.448  12.548   4.511
23965SOL     OW73733   4.890  12.008   8.689
23965SOL    HW173734   4.964  12.067   8.672
23965SOL    HW273735   4.840  12.008   8.608
23966SOL     OW73736   0.574   6.737  13.872
23966SOL    HW173737   0.552   6.738  13.965
23966SOL    HW273738   0.575   6.644  13.849
23967SOL     OW73739  11.646   0.431  13.148
23967SOL    HW173740  11.645   0.469  13.236
23967SOL    HW273741  11.685   0.344  13.159
23968SOL     OW73742   9.366   3.652   6.509
23968SOL    HW173743   9.326   3.734   6.480
23968SOL    HW273744   9.445   3.643   6.455
23969SOL     OW73745   2.770   2.608  14.438
23969SOL    HW173746   2.712   2.547  14.486
23969SOL    HW273747   2.799   2.670  14.505
23970SOL     OW73748  12.109   2.708  12.787
23970SOL    HW173749  12.172   2.697  12.859
23970SOL    HW273750  12.102   2.803  12.775
23971SOL     OW73751   5.685   7.342   9.085
23971SOL    HW173752   5.659   7.258   9.049
23971SOL    HW273753   5.670   7.334   9.180
23972SOL     OW73754   5.182   1.778   7.751
23972SOL    HW173755   5.104   1.732   7.783
23972SOL    HW273756   5.235   1.792   7.829
23973SOL     OW73757  13.010   9.956   6.062
23973SOL    HW173758  13.080  10.020   6.068
23973SOL    HW273759  13.052   9.876   6.031
23974SOL     OW73760  11.135   8.610  12.415
23974SOL    HW173761  11.099   8.523  12.433
23974SOL    HW273762  11.118   8.623  12.321
23975SOL     OW73763   7.484   9.329  13.527
23975SOL    HW173764   7.400   9.365  13.497
23975SOL    HW273765   7.526   9.296  13.448
23976SOL     OW73766   1.929   0.403  12.284
23976SOL    HW173767   1.875   0.346  12.338
23976SOL    HW273768   2.016   0.362  12.284
23977SOL     OW73769  13.358   1.974   0.673
23977SOL    HW173770  13.365   1.897   0.615
23977SOL    HW273771  13.318   2.041   0.618
23978SOL     OW73772   1.592  13.305   7.307
23978SOL    HW173773   1.661  13.331   7.245
23978SOL    HW273774   1.587  13.210   7.297
23979SOL     OW73775   3.362   6.251  11.170
23979SOL    HW173776   3.317   6.196  11.234
23979SOL    HW273777   3.440   6.201  11.146
23980SOL     OW73778   0.612  12.091   1.323
23980SOL    HW173779   0.672  12.075   1.396
23980SOL    HW273780   0.571  12.007   1.306
23981SOL     OW73781   5.403   2.637   6.251
23981SOL    HW173782   5.437   2.561   6.299
23981SOL    HW273783   5.482   2.688   6.230
23982SOL     OW73784   2.392   3.481   8.908
23982SOL    HW173785   2.356   3.393   8.916
23982SOL    HW273786   2.341   3.522   8.839
23983SOL     OW73787   8.296   4.647  11.550
23983SOL    HW173788   8.206   4.626  11.523
23983SOL    HW273789   8.345   4.567  11.531
23984SOL     OW73790   6.207   8.502   4.640
23984SOL    HW173791   6.118   8.468   4.645
23984SOL    HW273792   6.259   8.431   4.602
23985SOL     OW73793  11.725  11.736   2.619
23985SOL    HW173794  11.736  11.806   2.684
23985SOL    HW273795  11.663  11.773   2.555
23986SOL     OW73796   3.796   3.778  10.589
23986SOL    HW173797   3.768   3.831  10.664
23986SOL    HW273798   3.892   3.779  10.594
23987SOL     OW73799   3.246   7.906   3.218
23987SOL    HW173800   3.236   7.960   3.140
23987SOL    HW273801   3.189   7.831   3.203
23988SOL     OW73802   2.676   3.416  14.784
23988SOL    HW173803   2.734   3.345  14.812
23988SOL    HW273804   2.736   3.485  14.755
23989SOL     OW73805   7.547  14.724   4.653
23989SOL    HW173806   7.598  14.657   4.607
23989SOL    HW273807   7.496  14.767   4.584
23990SOL     OW73808   0.082   1.882   6.185
23990SOL    HW173809   0.109   1.802   6.229
23990SOL    HW273810   0.164   1.920   6.152
23991SOL     OW73811   8.253   9.274  10.392
23991SOL    HW173812   8.321   9.216  10.356
23991SOL    HW273813   8.182   9.215  10.417
23992SOL     OW73814  14.658   7.882   6.639
23992SOL    HW173815  14.667   7.895   6.544
23992SOL    HW273816  14.565   7.862   6.651
23993SOL     OW73817  13.546  11.630   9.863
23993SOL    HW173818  13.475  11.692   9.845
23993SOL    HW273819  13.586  11.662   9.944
23994SOL     OW73820   6.834  10.580   6.175
23994SOL    HW173821   6.857  10.510   6.235
23994SOL    HW273822   6.767  10.542   6.117
23995SOL     OW73823   8.347  12.044  14.482
23995SOL    HW173824   8.344  12.120  14.424
23995SOL    HW273825   8.263  12.000  14.469
23996SOL     OW73826   0.109  11.737   9.176
23996SOL    HW173827   0.032  11.687   9.150
23996SOL    HW273828   0.138  11.697   9.258
23997SOL     OW73829   8.166   1.356   3.257
23997SOL    HW173830   8.124   1.270   3.251
23997SOL    HW273831   8.244   1.341   3.310
23998SOL     OW73832  13.281   2.601   3.420
23998SOL    HW173833  13.294   2.588   3.514
23998SOL    HW273834  13.229   2.525   3.393
23999SOL     OW73835  10.905   3.272   7.029
23999SOL    HW173836  10.812   3.290   7.040
23999SOL    HW273837  10.942   3.283   7.117
24000SOL     OW73838   5.549   8.542   3.612
24000SOL    HW173839   5.481   8.475   3.619
24000SOL    HW273840   5.513   8.618   3.659
24001SOL     OW73841  13.538   7.727   4.237
24001SOL    HW173842  13.478   7.663   4.273
24001SOL    HW273843  13.585   7.762   4.314
24002SOL     OW73844  13.113   1.772   2.926
24002SOL    HW173845  13.146   1.810   2.845
24002SOL    HW273846  13.018   1.785   2.921
24003SOL     OW73847   4.589   0.536  11.198
24003SOL    HW173848   4.511   0.590  11.191
24003SOL    HW273849   4.595   0.491  11.113
24004SOL     OW73850   5.492   2.916   7.703
24004SOL    HW173851   5.547   2.989   7.733
24004SOL    HW273852   5.460   2.875   7.783
24005SOL     OW73853   3.463   8.487   7.558
24005SOL    HW173854   3.544   8.531   7.536
24005SOL    HW273855   3.484   8.394   7.554
24006SOL     OW73856   1.681   1.125  14.501
24006SOL    HW173857   1.692   1.035  14.469
24006SOL    HW273858   1.709   1.122  14.592
24007SOL     OW73859   6.684  12.603  10.555
24007SOL    HW173860   6.702  12.509  10.556
24007SOL    HW273861   6.620  12.614  10.484
24008SOL     OW73862   4.883   3.747   6.736
24008SOL    HW173863   4.881   3.831   6.781
24008SOL    HW273864   4.969   3.710   6.758
24009SOL     OW73865  11.243   2.382   9.777
24009SOL    HW173866  11.307   2.394   9.848
24009SOL    HW273867  11.271   2.444   9.709
24010SOL     OW73868  12.396   8.278   4.806
24010SOL    HW173869  12.404   8.313   4.895
24010SOL    HW273870  12.477   8.306   4.762
24011SOL     OW73871  10.072   5.903   3.107
24011SOL    HW173872  10.118   5.948   3.177
24011SOL    HW273873  10.060   5.814   3.139
24012SOL     OW73874  14.455  13.032  12.052
24012SOL    HW173875  14.459  12.941  12.082
24012SOL    HW273876  14.509  13.080  12.115
24013SOL     OW73877   3.809   0.658   7.693
24013SOL    HW173878   3.782   0.571   7.663
24013SOL    HW273879   3.796   0.655   7.788
24014SOL     OW73880   2.145  11.686   6.065
24014SOL    HW173881   2.054  11.655   6.067
24014SOL    HW273882   2.192  11.617   6.018
24015SOL     OW73883   9.973   5.773   0.266
24015SOL    HW173884   9.879   5.758   0.270
24015SOL    HW273885  10.012   5.686   0.271
24016SOL     OW73886  11.557   6.854  12.676
24016SOL    HW173887  11.542   6.903  12.757
24016SOL    HW273888  11.580   6.922  12.612
24017SOL     OW73889  12.452   9.917  13.790
24017SOL    HW173890  12.478   9.939  13.879
24017SOL    HW273891  12.381   9.979  13.771
24018SOL     OW73892   8.211   4.995   4.538
24018SOL    HW173893   8.261   4.926   4.583
24018SOL    HW273894   8.131   4.952   4.510
24019SOL     OW73895   0.577   1.069   8.779
24019SOL    HW173896   0.653   1.117   8.745
24019SOL    HW273897   0.503   1.100   8.726
24020SOL     OW73898  10.863   5.916   2.043
24020SOL    HW173899  10.802   5.851   2.008
24020SOL    HW273900  10.831   6.000   2.010
24021SOL     OW73901   1.348  10.228   3.607
24021SOL    HW173902   1.288  10.277   3.552
24021SOL    HW273903   1.362  10.146   3.561
24022SOL     OW73904  10.143  10.006  10.126
24022SOL    HW173905  10.091   9.971  10.054
24022SOL    HW273906  10.206  10.065  10.083
24023SOL     OW73907   2.930  13.678   4.965
24023SOL    HW173908   2.992  13.676   5.038
24023SOL    HW273909   2.905  13.586   4.952
24024SOL     OW73910   0.657   8.092   3.785
24024SOL    HW173911   0.687   8.080   3.876
24024SOL    HW273912   0.685   8.012   3.741
24025SOL     OW73913   3.478  12.091  12.152
24025SOL    HW173914   3.460  12.139  12.071
24025SOL    HW273915   3.436  12.143  12.220
24026SOL     OW73916  10.336  12.390   3.184
24026SOL    HW173917  10.367  12.311   3.140
24026SOL    HW273918  10.240  12.384   3.178
24027SOL     OW73919  13.306   1.869   5.298
24027SOL    HW173920  13.351   1.789   5.326
24027SOL    HW273921  13.231   1.839   5.247
24028SOL     OW73922  13.561   4.340   2.942
24028SOL    HW173923  13.494   4.275   2.962
24028SOL    HW273924  13.642   4.302   2.977
24029SOL     OW73925   8.535  10.223   6.972
24029SOL    HW173926   8.627  10.249   6.971
24029SOL    HW273927   8.528  10.157   6.903
24030SOL     OW73928   6.141   0.192   3.233
24030SOL    HW173929   6.177   0.195   3.321
24030SOL    HW273930   6.217   0.177   3.176
24031SOL     OW73931   8.301  11.470  13.011
24031SOL    HW173932   8.234  11.483  12.943
24031SOL    HW273933   8.333  11.558  13.030
24032SOL     OW73934   4.006  12.978  10.329
24032SOL    HW173935   3.976  12.895  10.366
24032SOL    HW273936   3.982  13.044  10.395
24033SOL     OW73937   5.802   5.730   0.935
24033SOL    HW173938   5.774   5.821   0.942
24033SOL    HW273939   5.883   5.725   0.986
24034SOL     OW73940   9.250   5.819   3.106
24034SOL    HW173941   9.157   5.839   3.112
24034SOL    HW273942   9.288   5.897   3.064
24035SOL     OW73943   3.819  11.571   6.739
24035SOL    HW173944   3.753  11.512   6.702
24035SOL    HW273945   3.897  11.557   6.686
24036SOL     OW73946   9.507  11.264   7.860
24036SOL    HW173947   9.439  11.331   7.868
24036SOL    HW273948   9.520  11.254   7.766
24037SOL     OW73949   5.346  14.334  10.020
24037SOL    HW173950   5.388  14.417  10.044
24037SOL    HW273951   5.403  14.267  10.058
24038SOL     OW73952   9.727   1.861   7.906
24038SOL    HW173953   9.691   1.789   7.855
24038SOL    HW273954   9.652   1.897   7.953
24039SOL     OW73955   0.264  13.447   0.585
24039SOL    HW173956   0.332  13.380   0.577
24039SOL    HW273957   0.311  13.530   0.583
24040SOL     OW73958   9.484   0.154   4.746
24040SOL    HW173959   9.409   0.128   4.799
24040SOL    HW273960   9.560   0.128   4.797
24041SOL     OW73961   6.962  13.132   2.692
24041SOL    HW173962   7.012  13.212   2.705
24041SOL    HW273963   6.896  13.155   2.627
24042SOL     OW73964  12.639  10.530   0.942
24042SOL    HW173965  12.577  10.505   0.873
24042SOL    HW273966  12.720  10.548   0.894
24043SOL     OW73967  10.416  10.185   5.430
24043SOL    HW173968  10.324  10.209   5.419
24043SOL    HW273969  10.464  10.262   5.398
24044SOL     OW73970   0.655   9.472  12.306
24044SOL    HW173971   0.605   9.427  12.374
24044SOL    HW273972   0.676   9.557  12.345
24045SOL     OW73973   6.629   3.696  13.245
24045SOL    HW173974   6.664   3.638  13.313
24045SOL    HW273975   6.538   3.710  13.271
24046SOL     OW73976   6.927   5.335   3.268
24046SOL    HW173977   6.969   5.341   3.182
24046SOL    HW273978   6.939   5.421   3.307
24047SOL     OW73979   2.401   4.815   4.879
24047SOL    HW173980   2.444   4.758   4.941
24047SOL    HW273981   2.310   4.785   4.878
24048SOL     OW73982   5.690   5.195   6.465
24048SOL    HW173983   5.673   5.282   6.499
24048SOL    HW273984   5.631   5.186   6.390
24049SOL     OW73985  10.499   1.897   2.807
24049SOL    HW173986  10.462   1.809   2.815
24049SOL    HW273987  10.464   1.944   2.883
24050SOL     OW73988  11.488   1.836   5.450
24050SOL    HW173989  11.538   1.910   5.414
24050SOL    HW273990  11.481   1.775   5.377
24051SOL     OW73991  11.853   8.311   2.351
24051SOL    HW173992  11.803   8.285   2.429
24051SOL    HW273993  11.805   8.386   2.316
24052SOL     OW73994   7.026   1.985   7.144
24052SOL    HW173995   7.043   1.905   7.195
24052SOL    HW273996   6.962   1.959   7.078
24053SOL     OW73997   1.196   4.802  12.547
24053SOL    HW173998   1.193   4.706  12.551
24053SOL    HW273999   1.172   4.823  12.457
24054SOL     OW74000   9.008   2.223  13.792
24054SOL    HW174001   9.094   2.260  13.775
24054SOL    HW274002   8.992   2.163  13.720
24055SOL     OW74003   8.207  13.385   5.970
24055SOL    HW174004   8.219  13.290   5.964
24055SOL    HW274005   8.289  13.421   5.937
24056SOL     OW74006   2.490   8.520  10.213
24056SOL    HW174007   2.544   8.580  10.161
24056SOL    HW274008   2.524   8.528  10.302
24057SOL     OW74009   1.288  12.792   9.511
24057SOL    HW174010   1.357  12.841   9.465
24057SOL    HW274011   1.215  12.790   9.449
24058SOL     OW74012   9.957   4.530   9.414
24058SOL    HW174013  10.022   4.600   9.423
24058SOL    HW274014   9.893   4.565   9.352
24059SOL     OW74015   1.654   3.092   3.925
24059SOL    HW174016   1.711   3.096   3.849
24059SOL    HW274017   1.581   3.036   3.898
24060SOL     OW74018  14.759  11.795   8.665
24060SOL    HW174019  14.798  11.870   8.619
24060SOL    HW274020  14.686  11.833   8.713
24061SOL     OW74021   7.712   8.457  12.205
24061SOL    HW174022   7.626   8.415  12.210
24061SOL    HW274023   7.699   8.544  12.242
24062SOL     OW74024   7.531   5.989   6.823
24062SOL    HW174025   7.448   5.946   6.841
24062SOL    HW274026   7.515   6.082   6.843
24063SOL     OW74027  10.820   7.247   8.338
24063SOL    HW174028  10.732   7.280   8.358
24063SOL    HW274029  10.861   7.316   8.287
24064SOL     OW74030   1.073  11.794   9.935
24064SOL    HW174031   0.986  11.824   9.960
24064SOL    HW274032   1.132  11.839   9.995
24065SOL     OW74033   9.567   0.617   3.331
24065SOL    HW174034   9.588   0.628   3.424
24065SOL    HW274035   9.551   0.706   3.300
24066SOL     OW74036  12.548  12.564   9.384
24066SOL    HW174037  12.470  12.545   9.436
24066SOL    HW274038  12.573  12.653   9.411
24067SOL     OW74039   0.109   3.778  12.012
24067SOL    HW174040   0.204   3.779  12.025
24067SOL    HW274041   0.098   3.795  11.918
24068SOL     OW74042   5.892   2.120  14.843
24068SOL    HW174043   5.821   2.177  14.812
24068SOL    HW274044   5.962   2.180  14.868
24069SOL     OW74045   0.328   3.257  14.749
24069SOL    HW174046   0.384   3.300  14.814
24069SOL    HW274047   0.348   3.164  14.758
24070SOL     OW74048   5.393  12.558   7.726
24070SOL    HW174049   5.481  12.536   7.695
24070SOL    HW274050   5.402  12.646   7.762
24071SOL     OW74051  13.690   4.178  13.786
24071SOL    HW174052  13.735   4.219  13.860
24071SOL    HW274053  13.653   4.252  13.738
24072SOL     OW74054   7.706   0.804  12.103
24072SOL    HW174055   7.714   0.854  12.185
24072SOL    HW274056   7.638   0.849  12.054
24073SOL     OW74057  12.754   9.997   8.209
24073SOL    HW174058  12.723  10.056   8.279
24073SOL    HW274059  12.775  10.056   8.136
24074SOL     OW74060   8.906  12.610  11.238
24074SOL    HW174061   8.817  12.574  11.239
24074SOL    HW274062   8.934  12.601  11.147
24075SOL     OW74063   4.289   1.571  14.724
24075SOL    HW174064   4.355   1.540  14.662
24075SOL    HW274065   4.254   1.650  14.684
24076SOL     OW74066  14.571   4.386   8.394
24076SOL    HW174067  14.558   4.334   8.473
24076SOL    HW274068  14.516   4.342   8.328
24077SOL     OW74069  14.605  12.951  10.541
24077SOL    HW174070  14.628  12.861  10.562
24077SOL    HW274071  14.522  12.945  10.494
24078SOL     OW74072   4.724  11.339  14.644
24078SOL    HW174073   4.638  11.309  14.616
24078SOL    HW274074   4.717  11.434  14.646
24079SOL     OW74075  11.335   1.750   2.746
24079SOL    HW174076  11.403   1.728   2.682
24079SOL    HW274077  11.378   1.812   2.805
24080SOL     OW74078   4.039  14.150   4.901
24080SOL    HW174079   4.078  14.142   4.814
24080SOL    HW274080   4.053  14.242   4.925
24081SOL     OW74081  10.144   3.329   5.923
24081SOL    HW174082  10.225   3.334   5.871
24081SOL    HW274083  10.116   3.420   5.931
24082SOL     OW74084   2.258   3.967   2.709
24082SOL    HW174085   2.246   4.048   2.660
24082SOL    HW274086   2.290   3.904   2.644
24083SOL     OW74087   0.561   5.354   0.392
24083SOL    HW174088   0.648   5.377   0.425
24083SOL    HW274089   0.543   5.420   0.324
24084SOL     OW74090   6.224   6.032   9.305
24084SOL    HW174091   6.213   5.975   9.229
24084SOL    HW274092   6.191   5.979   9.379
24085SOL     OW74093   4.464   6.550   4.556
24085SOL    HW174094   4.548   6.527   4.516
24085SOL    HW274095   4.402   6.487   4.520
24086SOL     OW74096  12.961   0.221   6.581
24086SOL    HW174097  12.948   0.132   6.615
24086SOL    HW274098  12.875   0.245   6.545
24087SOL     OW74099   1.447  11.134   7.049
24087SOL    HW174100   1.425  11.219   7.010
24087SOL    HW274101   1.424  11.144   7.141
24088SOL     OW74102   1.510  11.287   5.943
24088SOL    HW174103   1.574  11.310   5.875
24088SOL    HW274104   1.501  11.192   5.936
24089SOL     OW74105   3.881  13.089   3.514
24089SOL    HW174106   3.960  13.043   3.545
24089SOL    HW274107   3.887  13.085   3.419
24090SOL     OW74108   7.080   5.636   8.666
24090SOL    HW174109   7.167   5.657   8.699
24090SOL    HW274110   7.095   5.585   8.587
24091SOL     OW74111   5.175   7.771   4.992
24091SOL    HW174112   5.201   7.682   4.965
24091SOL    HW274113   5.151   7.814   4.910
24092SOL     OW74114   1.251   9.940   2.027
24092SOL    HW174115   1.227   9.847   2.029
24092SOL    HW274116   1.169   9.987   2.039
24093SOL     OW74117  12.941   8.717   6.772
24093SOL    HW174118  12.978   8.800   6.802
24093SOL    HW274119  13.017   8.664   6.749
24094SOL     OW74120   3.048   7.387  13.918
24094SOL    HW174121   3.057   7.407  14.012
24094SOL    HW274122   3.127   7.424  13.879
24095SOL     OW74123  10.674   5.798   6.757
24095SOL    HW174124  10.650   5.708   6.735
24095SOL    HW274125  10.610   5.853   6.711
24096SOL     OW74126   6.813   4.346   8.502
24096SOL    HW174127   6.811   4.262   8.548
24096SOL    HW274128   6.837   4.410   8.569
24097SOL     OW74129   2.983   6.585  14.278
24097SOL    HW174130   3.066   6.630  14.259
24097SOL    HW274131   2.970   6.527  14.203
24098SOL     OW74132  14.553   1.211   1.269
24098SOL    HW174133  14.462   1.219   1.241
24098SOL    HW274134  14.600   1.181   1.191
24099SOL     OW74135   6.210   2.412  11.148
24099SOL    HW174136   6.223   2.353  11.074
24099SOL    HW274137   6.130   2.380  11.191
24100SOL     OW74138   2.794   2.876   8.714
24100SOL    HW174139   2.762   2.801   8.664
24100SOL    HW274140   2.721   2.937   8.714
24101SOL     OW74141   2.653   0.730  11.293
24101SOL    HW174142   2.662   0.725  11.388
24101SOL    HW274143   2.608   0.649  11.269
24102SOL     OW74144  14.253   5.031  12.897
24102SOL    HW174145  14.176   5.083  12.873
24102SOL    HW274146  14.318   5.052  12.830
24103SOL     OW74147  10.862   8.013   8.211
24103SOL    HW174148  10.861   8.108   8.207
24103SOL    HW274149  10.770   7.988   8.224
24104SOL     OW74150  13.314  12.718   2.691
24104SOL    HW174151  13.400  12.676   2.690
24104SOL    HW274152  13.305  12.752   2.780
24105SOL     OW74153   9.478   1.979  13.129
24105SOL    HW174154   9.431   1.918  13.072
24105SOL    HW274155   9.487   2.059  13.077
24106SOL     OW74156  13.803  14.185   3.128
24106SOL    HW174157  13.728  14.182   3.188
24106SOL    HW274158  13.805  14.276   3.098
24107SOL     OW74159   2.670  10.886   9.202
24107SOL    HW174160   2.749  10.885   9.256
24107SOL    HW274161   2.623  10.807   9.228
24108SOL     OW74162   1.430   2.231   4.297
24108SOL    HW174163   1.372   2.210   4.370
24108SOL    HW274164   1.381   2.294   4.244
24109SOL     OW74165  14.783   0.855  12.717
24109SOL    HW174166  14.862   0.861  12.772
24109SOL    HW274167  14.747   0.768  12.736
24110SOL     OW74168   2.112   8.139   0.030
24110SOL    HW174169   2.171   8.161   0.102
24110SOL    HW274170   2.089   8.047   0.045
24111SOL     OW74171  14.879   7.419   5.453
24111SOL    HW174172  14.863   7.453   5.365
24111SOL    HW274173  14.818   7.347   5.464
24112SOL     OW74174  10.438   3.226  13.694
24112SOL    HW174175  10.355   3.179  13.706
24112SOL    HW274176  10.478   3.185  13.617
24113SOL     OW74177   8.676   7.653   2.172
24113SOL    HW174178   8.663   7.569   2.126
24113SOL    HW274179   8.666   7.631   2.264
24114SOL     OW74180   9.997   6.725   7.022
24114SOL    HW174181   9.944   6.795   7.061
24114SOL    HW274182   9.934   6.674   6.971
24115SOL     OW74183   4.476  10.500   9.981
24115SOL    HW174184   4.550  10.528   9.927
24115SOL    HW274185   4.401  10.549   9.947
24116SOL     OW74186  10.133   6.492   9.069
24116SOL    HW174187  10.038   6.494   9.076
24116SOL    HW274188  10.154   6.401   9.050
24117SOL     OW74189   7.456   1.402  11.590
24117SOL    HW174190   7.536   1.416  11.640
24117SOL    HW274191   7.485   1.356  11.511
24118SOL     OW74192   4.621   2.624   2.462
24118SOL    HW174193   4.619   2.576   2.379
24118SOL    HW274194   4.535   2.664   2.470
24119SOL     OW74195   4.911   1.587   9.219
24119SOL    HW174196   4.867   1.557   9.299
24119SOL    HW274197   4.864   1.544   9.148
24120SOL     OW74198   5.950   5.826   0.381
24120SOL    HW174199   5.875   5.882   0.359
24120SOL    HW274200   5.921   5.738   0.357
24121SOL     OW74201   6.963  13.074   1.201
24121SOL    HW174202   6.977  13.156   1.249
24121SOL    HW274203   6.997  13.006   1.259
24122SOL     OW74204   2.127   5.099  14.822
24122SOL    HW174205   2.068   5.166  14.856
24122SOL    HW274206   2.094   5.079  14.735
24123SOL     OW74207  11.774   7.885   0.570
24123SOL    HW174208  11.708   7.915   0.632
24123SOL    HW274209  11.857   7.916   0.606
24124SOL     OW74210   1.303   3.263   2.341
24124SOL    HW174211   1.216   3.265   2.302
24124SOL    HW274212   1.335   3.353   2.333
24125SOL     OW74213   2.176   5.036   6.288
24125SOL    HW174214   2.098   5.062   6.240
24125SOL    HW274215   2.168   5.078   6.373
24126SOL     OW74216   8.728  11.050   3.928
24126SOL    HW174217   8.700  11.140   3.939
24126SOL    HW274218   8.701  11.027   3.839
24127SOL     OW74219   9.063   4.605   7.545
24127SOL    HW174220   9.110   4.575   7.467
24127SOL    HW274221   9.062   4.529   7.603
24128SOL     OW74222   1.731   6.828   5.641
24128SOL    HW174223   1.809   6.881   5.627
24128SOL    HW274224   1.688   6.826   5.556
24129SOL     OW74225   2.248  10.435   9.820
24129SOL    HW174226   2.309  10.377   9.865
24129SOL    HW274227   2.201  10.377   9.759
24130SOL     OW74228   7.281  13.270   1.042
24130SOL    HW174229   7.342  13.249   1.112
24130SOL    HW274230   7.242  13.186   1.018
24131SOL     OW74231   0.402   7.500   1.276
24131SOL    HW174232   0.445   7.515   1.360
24131SOL    HW274233   0.452   7.551   1.213
24132SOL     OW74234  14.498   5.498  13.909
24132SOL    HW174235  14.415   5.544  13.898
24132SOL    HW274236  14.564   5.567  13.917
24133SOL     OW74237   4.487  12.309  10.516
24133SOL    HW174238   4.397  12.304  10.484
24133SOL    HW274239   4.519  12.219  10.512
24134SOL     OW74240  13.326   9.780   5.377
24134SOL    HW174241  13.328   9.706   5.316
24134SOL    HW274242  13.256   9.836   5.345
24135SOL     OW74243  14.596   9.221  12.127
24135SOL    HW174244  14.525   9.262  12.078
24135SOL    HW274245  14.656   9.293  12.147
24136SOL     OW74246  14.176   3.444  13.649
24136SOL    HW174247  14.101   3.501  13.665
24136SOL    HW274248  14.240   3.470  13.716
24137SOL     OW74249   2.351   7.680  11.923
24137SOL    HW174250   2.311   7.607  11.971
24137SOL    HW274251   2.344   7.656  11.831
24138SOL     OW74252   3.355  11.357  13.380
24138SOL    HW174253   3.398  11.436  13.348
24138SOL    HW274254   3.275  11.351  13.329
24139SOL     OW74255   5.961  14.060  10.880
24139SOL    HW174256   5.993  14.142  10.918
24139SOL    HW274257   5.904  14.088  10.808
24140SOL     OW74258   3.825  12.040   4.859
24140SOL    HW174259   3.769  12.049   4.936
24140SOL    HW274260   3.887  12.113   4.867
24141SOL     OW74261   1.896   7.592   5.551
24141SOL    HW174262   1.897   7.503   5.516
24141SOL    HW274263   1.973   7.596   5.608
24142SOL     OW74264   1.320  14.406  10.328
24142SOL    HW174265   1.282  14.332  10.282
24142SOL    HW274266   1.248  14.469  10.335
24143SOL     OW74267   2.073   0.102  13.502
24143SOL    HW174268   2.066   0.188  13.544
24143SOL    HW274269   1.998   0.052  13.535
24144SOL     OW74270   6.510   0.428   9.423
24144SOL    HW174271   6.438   0.366   9.434
24144SOL    HW274272   6.476   0.511   9.457
24145SOL     OW74273  13.451  11.436   8.363
24145SOL    HW174274  13.506  11.492   8.309
24145SOL    HW274275  13.421  11.493   8.434
24146SOL     OW74276   3.044   5.020   1.300
24146SOL    HW174277   2.998   5.104   1.295
24146SOL    HW274278   3.137   5.044   1.305
24147SOL     OW74279  13.169  14.699   2.427
24147SOL    HW174280  13.192  14.675   2.517
24147SOL    HW274281  13.193  14.622   2.375
24148SOL     OW74282  10.872  11.436  11.603
24148SOL    HW174283  10.869  11.344  11.576
24148SOL    HW274284  10.966  11.457  11.603
24149SOL     OW74285   7.505   6.699  10.204
24149SOL    HW174286   7.545   6.641  10.269
24149SOL    HW274287   7.443   6.752  10.255
24150SOL     OW74288   8.861  13.301  14.276
24150SOL    HW174289   8.867  13.220  14.327
24150SOL    HW274290   8.783  13.344  14.310
24151SOL     OW74291   3.474   4.202  13.277
24151SOL    HW174292   3.566   4.201  13.250
24151SOL    HW274293   3.437   4.279  13.233
24152SOL     OW74294  11.568  10.852   3.106
24152SOL    HW174295  11.498  10.915   3.094
24152SOL    HW274296  11.568  10.800   3.026
24153SOL     OW74297   9.791   6.900   2.936
24153SOL    HW174298   9.869   6.846   2.922
24153SOL    HW274299   9.739   6.889   2.856
24154SOL     OW74300   3.119   0.005   2.242
24154SOL    HW174301   3.160   0.091   2.233
24154SOL    HW274302   3.193  14.823   2.249
24155SOL     OW74303   9.279   0.385   6.123
24155SOL    HW174304   9.323   0.429   6.196
24155SOL    HW274305   9.245   0.304   6.162
24156SOL     OW74306   2.121   6.975   1.819
24156SOL    HW174307   2.045   6.937   1.864
24156SOL    HW274308   2.083   7.041   1.760
24157SOL     OW74309   7.573   9.382   2.974
24157SOL    HW174310   7.608   9.338   2.897
24157SOL    HW274311   7.644   9.380   3.038
24158SOL     OW74312  10.989   8.271   4.764
24158SOL    HW174313  11.006   8.347   4.708
24158SOL    HW274314  10.968   8.200   4.703
24159SOL     OW74315   7.324   2.037   3.087
24159SOL    HW174316   7.243   1.988   3.069
24159SOL    HW274317   7.373   1.981   3.147
24160SOL     OW74318  12.441  11.566   4.479
24160SOL    HW174319  12.374  11.499   4.489
24160SOL    HW274320  12.405  11.626   4.414
24161SOL     OW74321   4.721   1.304  13.387
24161SOL    HW174322   4.679   1.328  13.304
24161SOL    HW274323   4.654   1.256  13.435
24162SOL     OW74324  10.249   9.218   2.736
24162SOL    HW174325  10.194   9.295   2.754
24162SOL    HW274326  10.308   9.212   2.812
24163SOL     OW74327   5.274   8.523  10.594
24163SOL    HW174328   5.295   8.581  10.667
24163SOL    HW274329   5.312   8.566  10.518
24164SOL     OW74330   4.252   4.153  11.822
24164SOL    HW174331   4.252   4.099  11.743
24164SOL    HW274332   4.296   4.234  11.796
24165SOL     OW74333   9.670   8.658  14.623
24165SOL    HW174334   9.684   8.739  14.573
24165SOL    HW274335   9.737   8.659  14.691
24166SOL     OW74336  12.472   1.957   9.931
24166SOL    HW174337  12.382   1.982   9.951
24166SOL    HW274338  12.525   2.003   9.997
24167SOL     OW74339  11.126   6.186   7.322
24167SOL    HW174340  11.121   6.131   7.401
24167SOL    HW274341  11.188   6.139   7.265
24168SOL     OW74342   4.383   1.490   8.284
24168SOL    HW174343   4.393   1.435   8.362
24168SOL    HW274344   4.402   1.431   8.211
24169SOL     OW74345   1.869  11.123   9.454
24169SOL    HW174346   1.831  11.044   9.416
24169SOL    HW274347   1.817  11.139   9.533
24170SOL     OW74348   0.986   0.018   4.382
24170SOL    HW174349   1.050  14.827   4.388
24170SOL    HW274350   1.034   0.091   4.342
24171SOL     OW74351   8.915   4.836   3.531
24171SOL    HW174352   8.888   4.927   3.535
24171SOL    HW274353   8.847   4.793   3.479
24172SOL     OW74354   6.493   5.500  11.115
24172SOL    HW174355   6.500   5.423  11.172
24172SOL    HW274356   6.573   5.497  11.062
24173SOL     OW74357   1.967  14.497   8.336
24173SOL    HW174358   1.998  14.487   8.426
24173SOL    HW274359   1.943  14.589   8.328
24174SOL     OW74360   5.207   9.112   4.502
24174SOL    HW174361   5.277   9.168   4.534
24174SOL    HW274362   5.220   9.028   4.545
24175SOL     OW74363   5.540  14.175  13.391
24175SOL    HW174364   5.532  14.266  13.420
24175SOL    HW274365   5.486  14.125  13.452
24176SOL     OW74366   9.750   6.589  12.125
24176SOL    HW174367   9.723   6.673  12.088
24176SOL    HW274368   9.741   6.527  12.053
24177SOL     OW74369   3.338  10.463  11.505
24177SOL    HW174370   3.337  10.412  11.424
24177SOL    HW274371   3.302  10.549  11.480
24178SOL     OW74372   9.515   6.694  10.217
24178SOL    HW174373   9.558   6.771  10.252
24178SOL    HW274374   9.447   6.728  10.159
24179SOL     OW74375   8.428  13.139   7.974
24179SOL    HW174376   8.475  13.136   8.057
24179SOL    HW274377   8.396  13.229   7.968
24180SOL     OW74378   1.066   5.524   1.656
24180SOL    HW174379   1.050   5.615   1.631
24180SOL    HW274380   1.137   5.528   1.720
24181SOL     OW74381  14.329   3.847   4.970
24181SOL    HW174382  14.249   3.812   4.931
24181SOL    HW274383  14.304   3.869   5.060
24182SOL     OW74384   6.757  10.776   1.320
24182SOL    HW174385   6.673  10.753   1.280
24182SOL    HW274386   6.799  10.692   1.337
24183SOL     OW74387   5.115   9.509   1.401
24183SOL    HW174388   5.183   9.466   1.349
24183SOL    HW274389   5.039   9.451   1.393
24184SOL     OW74390   2.879   4.945  12.273
24184SOL    HW174391   2.805   4.903  12.317
24184SOL    HW274392   2.886   4.899  12.189
24185SOL     OW74393   2.348  11.670   0.779
24185SOL    HW174394   2.278  11.730   0.754
24185SOL    HW274395   2.395  11.652   0.698
24186SOL     OW74396   2.567  10.522  13.676
24186SOL    HW174397   2.534  10.569  13.752
24186SOL    HW274398   2.512  10.444  13.669
24187SOL     OW74399   7.179   2.090   6.446
24187SOL    HW174400   7.173   2.061   6.355
24187SOL    HW274401   7.168   2.185   6.442
24188SOL     OW74402   3.107  12.708   2.572
24188SOL    HW174403   3.080  12.800   2.575
24188SOL    HW274404   3.202  12.712   2.557
24189SOL     OW74405  10.867  14.263   9.675
24189SOL    HW174406  10.933  14.204   9.638
24189SOL    HW274407  10.917  14.334   9.715
24190SOL     OW74408  12.850   8.958  12.430
24190SOL    HW174409  12.787   8.957  12.358
24190SOL    HW274410  12.913   8.889  12.409
24191SOL     OW74411  13.975  11.507   8.301
24191SOL    HW174412  13.969  11.425   8.350
24191SOL    HW274413  14.018  11.483   8.219
24192SOL     OW74414   2.430   3.740   7.789
24192SOL    HW174415   2.392   3.684   7.721
24192SOL    HW274416   2.380   3.822   7.783
24193SOL     OW74417  11.816   5.570   8.788
24193SOL    HW174418  11.805   5.569   8.693
24193SOL    HW274419  11.726   5.567   8.822
24194SOL     OW74420   3.829   2.789  13.885
24194SOL    HW174421   3.891   2.821  13.820
24194SOL    HW274422   3.837   2.851  13.958
24195SOL     OW74423   1.024   4.273  11.442
24195SOL    HW174424   0.957   4.205  11.445
24195SOL    HW274425   1.097   4.233  11.395
24196SOL     OW74426  14.114   2.460   6.085
24196SOL    HW174427  14.108   2.554   6.067
24196SOL    HW274428  14.035   2.423   6.044
24197SOL     OW74429   0.571   3.799   3.062
24197SOL    HW174430   0.601   3.709   3.073
24197SOL    HW274431   0.642   3.843   3.016
24198SOL     OW74432   5.157   3.124   6.947
24198SOL    HW174433   5.090   3.107   7.013
24198SOL    HW274434   5.121   3.195   6.894
24199SOL     OW74435   4.070   4.529   0.694
24199SOL    HW174436   4.123   4.591   0.745
24199SOL    HW274437   4.008   4.493   0.756
24200SOL     OW74438   2.808   3.336   3.281
24200SOL    HW174439   2.845   3.327   3.368
24200SOL    HW274440   2.740   3.403   3.291
24201SOL     OW74441  12.538   4.061  12.487
24201SOL    HW174442  12.569   4.134  12.541
24201SOL    HW274443  12.610   3.998  12.489
24202SOL     OW74444  11.739   7.996   5.986
24202SOL    HW174445  11.751   7.916   6.037
24202SOL    HW274446  11.647   7.995   5.961
24203SOL     OW74447   0.725  12.335   2.889
24203SOL    HW174448   0.810  12.314   2.852
24203SOL    HW274449   0.744  12.394   2.962
24204SOL     OW74450  13.107  11.524   6.593
24204SOL    HW174451  13.192  11.561   6.567
24204SOL    HW274452  13.045  11.596   6.580
24205SOL     OW74453   0.650   1.727   6.048
24205SOL    HW174454   0.598   1.739   5.969
24205SOL    HW274455   0.691   1.641   6.038
24206SOL     OW74456  12.111  11.446  11.955
24206SOL    HW174457  12.176  11.389  11.913
24206SOL    HW274458  12.087  11.508  11.887
24207SOL     OW74459   9.994   0.857   3.535
24207SOL    HW174460   9.920   0.889   3.483
24207SOL    HW274461  10.071   0.900   3.497
24208SOL     OW74462   0.073   5.128   9.464
24208SOL    HW174463   0.046   5.086   9.546
24208SOL    HW274464   0.024   5.081   9.396
24209SOL     OW74465   4.380   1.327  14.811
24209SOL    HW174466   4.399   1.289  14.725
24209SOL    HW274467   4.388   1.421  14.798
24210SOL     OW74468   8.973   9.859  12.340
24210SOL    HW174469   9.001   9.847  12.431
24210SOL    HW274470   9.009   9.784  12.293
24211SOL     OW74471  14.549   9.255   5.051
24211SOL    HW174472  14.539   9.350   5.060
24211SOL    HW274473  14.517   9.219   5.134
24212SOL     OW74474   5.206   8.178   5.099
24212SOL    HW174475   5.122   8.204   5.061
24212SOL    HW274476   5.263   8.163   5.024
24213SOL     OW74477   1.628  11.121  11.564
24213SOL    HW174478   1.668  11.159  11.642
24213SOL    HW274479   1.607  11.197  11.509
24214SOL     OW74480   2.027  14.643  10.415
24214SOL    HW174481   2.061  14.633  10.326
24214SOL    HW274482   2.087  14.705  10.457
24215SOL     OW74483   2.820  12.953  10.493
24215SOL    HW174484   2.765  13.007  10.549
24215SOL    HW274485   2.765  12.878  10.469
24216SOL     OW74486  13.994   4.490   6.202
24216SOL    HW174487  14.012   4.465   6.112
24216SOL    HW274488  14.031   4.579   6.210
24217SOL     OW74489   7.220   7.676   9.923
24217SOL    HW174490   7.241   7.765   9.895
24217SOL    HW274491   7.287   7.654   9.988
24218SOL     OW74492   2.392  13.713   6.713
24218SOL    HW174493   2.336  13.650   6.668
24218SOL    HW274494   2.397  13.788   6.654
24219SOL     OW74495  14.336  14.636   5.111
24219SOL    HW174496  14.274  14.709   5.113
24219SOL    HW274497  14.281  14.558   5.127
24220SOL     OW74498   6.160   0.494   7.428
24220SOL    HW174499   6.176   0.585   7.453
24220SOL    HW274500   6.161   0.446   7.511
24221SOL     OW74501  10.142   7.372   0.936
24221SOL    HW174502  10.151   7.466   0.918
24221SOL    HW274503  10.090   7.368   1.016
24222SOL     OW74504   8.527   6.136   4.403
24222SOL    HW174505   8.567   6.103   4.323
24222SOL    HW274506   8.527   6.231   4.393
24223SOL     OW74507   9.816  11.607   6.309
24223SOL    HW174508   9.748  11.563   6.360
24223SOL    HW274509   9.880  11.538   6.292
24224SOL     OW74510   1.958   6.383   9.267
24224SOL    HW174511   1.929   6.352   9.353
24224SOL    HW274512   1.931   6.475   9.265
24225SOL     OW74513  13.547   0.472   2.749
24225SOL    HW174514  13.565   0.489   2.842
24225SOL    HW274515  13.549   0.558   2.708
24226SOL     OW74516  10.843  13.518  10.962
24226SOL    HW174517  10.933  13.544  10.980
24226SOL    HW274518  10.800  13.520  11.047
24227SOL     OW74519  11.461   4.509  14.397
24227SOL    HW174520  11.499   4.563  14.328
24227SOL    HW274521  11.369   4.500  14.372
24228SOL     OW74522  14.110   0.723  12.394
24228SOL    HW174523  14.090   0.631  12.408
24228SOL    HW274524  14.138   0.728  12.303
24229SOL     OW74525   5.232   4.029   7.013
24229SOL    HW174526   5.300   4.093   7.033
24229SOL    HW274527   5.176   4.029   7.090
24230SOL     OW74528  14.574  13.093   2.729
24230SOL    HW174529  14.658  13.051   2.712
24230SOL    HW274530  14.584  13.181   2.694
24231SOL     OW74531  14.672   9.536   7.770
24231SOL    HW174532  14.628   9.620   7.755
24231SOL    HW274533  14.717   9.547   7.854
24232SOL     OW74534  14.112  13.363   8.261
24232SOL    HW174535  14.101  13.398   8.350
24232SOL    HW274536  14.073  13.276   8.265
24233SOL     OW74537   1.311   3.867  10.875
24233SOL    HW174538   1.315   3.865  10.971
24233SOL    HW274539   1.392   3.823  10.847
24234SOL     OW74540   5.820   1.227  14.449
24234SOL    HW174541   5.876   1.221  14.371
24234SOL    HW274542   5.823   1.140  14.488
24235SOL     OW74543   0.734   0.058  12.126
24235SOL    HW174544   0.756   0.132  12.069
24235SOL    HW274545   0.803   0.058  12.192
24236SOL     OW74546   0.718  12.165   1.919
24236SOL    HW174547   0.805  12.126   1.930
24236SOL    HW274548   0.703  12.214   2.000
24237SOL     OW74549   8.997   2.002   3.275
24237SOL    HW174550   9.049   2.042   3.206
24237SOL    HW274551   8.967   2.075   3.328
24238SOL     OW74552   1.138  14.791   3.164
24238SOL    HW174553   1.232  14.789   3.148
24238SOL    HW274554   1.130  14.806   3.258
24239SOL     OW74555   1.657  10.780  14.395
24239SOL    HW174556   1.716  10.842  14.437
24239SOL    HW274557   1.691  10.770  14.306
24240SOL     OW74558  11.290  14.024  13.418
24240SOL    HW174559  11.314  14.005  13.327
24240SOL    HW274560  11.258  13.940  13.452
24241SOL     OW74561  14.824   1.682   1.931
24241SOL    HW174562  14.832   1.766   1.886
24241SOL    HW274563  14.827   1.616   1.862
24242SOL     OW74564  13.584   9.230   2.062
24242SOL    HW174565  13.676   9.255   2.067
24242SOL    HW274566  13.539   9.308   2.030
24243SOL     OW74567   8.573  14.552  13.392
24243SOL    HW174568   8.578  14.647  13.406
24243SOL    HW274569   8.647  14.533  13.335
24244SOL     OW74570  13.860   6.397   7.908
24244SOL    HW174571  13.934   6.353   7.950
24244SOL    HW274572  13.827   6.456   7.975
24245SOL     OW74573   0.304   4.145   9.267
24245SOL    HW174574   0.266   4.137   9.355
24245SOL    HW274575   0.248   4.210   9.224
24246SOL     OW74576   5.032   3.511   9.749
24246SOL    HW174577   5.111   3.559   9.726
24246SOL    HW274578   4.990   3.564   9.817
24247SOL     OW74579   0.033   1.933   4.272
24247SOL    HW174580  14.866   1.942   4.355
24247SOL    HW274581   0.039   2.022   4.237
24248SOL     OW74582  13.880   9.136  10.576
24248SOL    HW174583  13.849   9.070  10.638
24248SOL    HW274584  13.940   9.089  10.518
24249SOL     OW74585  10.889   7.058   9.133
24249SOL    HW174586  10.883   6.974   9.179
24249SOL    HW274587  10.859   7.039   9.044
24250SOL     OW74588  13.522  12.848  11.245
24250SOL    HW174589  13.617  12.852  11.252
24250SOL    HW274590  13.505  12.851  11.150
24251SOL     OW74591   3.373  11.032  12.134
24251SOL    HW174592   3.382  10.951  12.085
24251SOL    HW274593   3.337  11.005  12.219
24252SOL     OW74594   3.191   7.811   7.790
24252SOL    HW174595   3.179   7.855   7.874
24252SOL    HW274596   3.155   7.723   7.804
24253SOL     OW74597   9.235  12.764  13.343
24253SOL    HW174598   9.166  12.797  13.287
24253SOL    HW274599   9.190  12.706  13.405
24254SOL     OW74600   6.961   0.589   5.455
24254SOL    HW174601   6.920   0.503   5.458
24254SOL    HW274602   7.052   0.572   5.430
24255SOL     OW74603   3.684   6.608  13.514
24255SOL    HW174604   3.676   6.694  13.555
24255SOL    HW274605   3.776   6.602  13.490
24256SOL     OW74606   8.625   6.060   9.771
24256SOL    HW174607   8.594   6.000   9.704
24256SOL    HW274608   8.558   6.129   9.774
24257SOL     OW74609  13.837   4.479  10.637
24257SOL    HW174610  13.888   4.553  10.604
24257SOL    HW274611  13.890   4.402  10.615
24258SOL     OW74612  14.085   3.578  10.387
24258SOL    HW174613  14.124   3.495  10.358
24258SOL    HW274614  14.053   3.560  10.475
24259SOL     OW74615   7.019  10.421  11.247
24259SOL    HW174616   6.945  10.455  11.297
24259SOL    HW274617   7.043  10.340  11.292
24260SOL     OW74618  14.540   8.607   5.123
24260SOL    HW174619  14.510   8.620   5.213
24260SOL    HW274620  14.488   8.670   5.072
24261SOL     OW74621   1.741  13.785   9.836
24261SOL    HW174622   1.775  13.719   9.896
24261SOL    HW274623   1.743  13.744   9.750
24262SOL     OW74624   4.999  11.765   0.702
24262SOL    HW174625   5.034  11.695   0.757
24262SOL    HW274626   5.026  11.741   0.613
24263SOL     OW74627   7.284  10.056   1.179
24263SOL    HW174628   7.333  10.041   1.098
24263SOL    HW274629   7.223  10.127   1.158
24264SOL     OW74630  12.516   6.216  11.883
24264SOL    HW174631  12.421   6.204  11.891
24264SOL    HW274632  12.552   6.135  11.919
24265SOL     OW74633  13.714   2.490   7.209
24265SOL    HW174634  13.638   2.494   7.267
24265SOL    HW274635  13.766   2.567   7.233
24266SOL     OW74636   4.908   4.676   4.719
24266SOL    HW174637   4.929   4.707   4.807
24266SOL    HW274638   4.942   4.743   4.660
24267SOL     OW74639  11.106  10.839   5.905
24267SOL    HW174640  11.084  10.930   5.889
24267SOL    HW274641  11.132  10.804   5.820
24268SOL     OW74642   0.331   4.473   7.696
24268SOL    HW174643   0.397   4.420   7.741
24268SOL    HW274644   0.248   4.446   7.736
24269SOL     OW74645  14.784  14.597   4.767
24269SOL    HW174646  14.813  14.599   4.858
24269SOL    HW274647  14.740  14.681   4.754
24270SOL     OW74648   7.823  11.890   9.060
24270SOL    HW174649   7.817  11.934   8.975
24270SOL    HW274650   7.870  11.809   9.042
24271SOL     OW74651   1.838   1.440   2.758
24271SOL    HW174652   1.859   1.347   2.764
24271SOL    HW274653   1.917   1.480   2.721
24272SOL     OW74654  10.544   0.571  13.117
24272SOL    HW174655  10.609   0.602  13.054
24272SOL    HW274656  10.502   0.651  13.148
24273SOL     OW74657   2.717   4.404   2.360
24273SOL    HW174658   2.626   4.388   2.336
24273SOL    HW274659   2.724   4.499   2.365
24274SOL     OW74660   7.570  11.166   5.509
24274SOL    HW174661   7.487  11.187   5.550
24274SOL    HW274662   7.560  11.195   5.418
24275SOL     OW74663   4.742   7.730   1.114
24275SOL    HW174664   4.798   7.783   1.058
24275SOL    HW274665   4.790   7.647   1.124
24276SOL     OW74666   3.291  13.651   6.263
24276SOL    HW174667   3.232  13.576   6.267
24276SOL    HW274668   3.232  13.727   6.266
24277SOL     OW74669   9.547   8.836   3.738
24277SOL    HW174670   9.593   8.912   3.774
24277SOL    HW274671   9.460   8.868   3.715
24278SOL     OW74672   1.584   9.533   1.237
24278SOL    HW174673   1.667   9.524   1.189
24278SOL    HW274674   1.518   9.495   1.179
24279SOL     OW74675  10.478   8.531  12.718
24279SOL    HW174676  10.485   8.438  12.741
24279SOL    HW274677  10.389   8.555  12.745
24280SOL     OW74678   4.850   8.579   4.090
24280SOL    HW174679   4.859   8.668   4.057
24280SOL    HW274680   4.772   8.581   4.145
24281SOL     OW74681   2.227   8.452   0.298
24281SOL    HW174682   2.262   8.432   0.385
24281SOL    HW274683   2.248   8.375   0.246
24282SOL     OW74684   3.873   7.744   5.574
24282SOL    HW174685   3.812   7.710   5.509
24282SOL    HW274686   3.871   7.680   5.645
24283SOL     OW74687   4.558   7.856   3.797
24283SOL    HW174688   4.490   7.855   3.865
24283SOL    HW274689   4.524   7.797   3.730
24284SOL     OW74690   6.799  12.066   0.107
24284SOL    HW174691   6.746  12.101   0.178
24284SOL    HW274692   6.866  12.133   0.092
24285SOL     OW74693   2.543   0.137  13.005
24285SOL    HW174694   2.454   0.149  13.038
24285SOL    HW274695   2.551   0.201  12.934
24286SOL     OW74696  13.363  14.374   4.788
24286SOL    HW174697  13.341  14.290   4.747
24286SOL    HW274698  13.378  14.433   4.715
24287SOL     OW74699  11.785  11.979   3.488
24287SOL    HW174700  11.838  11.997   3.410
24287SOL    HW274701  11.719  11.917   3.459
24288SOL     OW74702   5.056  13.437  12.448
24288SOL    HW174703   5.126  13.502  12.457
24288SOL    HW274704   5.071  13.396  12.363
24289SOL     OW74705   1.155   6.613   3.900
24289SOL    HW174706   1.168   6.528   3.942
24289SOL    HW274707   1.076   6.602   3.848
24290SOL     OW74708   6.429   4.354  13.629
24290SOL    HW174709   6.458   4.423  13.688
24290SOL    HW274710   6.488   4.281  13.647
24291SOL     OW74711   8.017   6.314   0.348
24291SOL    HW174712   8.002   6.239   0.405
24291SOL    HW274713   8.047   6.383   0.407
24292SOL     OW74714   1.713   9.711   8.481
24292SOL    HW174715   1.722   9.725   8.575
24292SOL    HW274716   1.645   9.644   8.473
24293SOL     OW74717   7.780   0.937   6.376
24293SOL    HW174718   7.724   0.919   6.300
24293SOL    HW274719   7.733   0.900   6.450
24294SOL     OW74720   6.790   3.597  12.420
24294SOL    HW174721   6.830   3.512  12.398
24294SOL    HW274722   6.747   3.624  12.339
24295SOL     OW74723  14.407   0.247   2.618
24295SOL    HW174724  14.367   0.331   2.593
24295SOL    HW274725  14.500   0.260   2.603
24296SOL     OW74726   8.557  14.834   7.972
24296SOL    HW174727   8.513  14.839   7.887
24296SOL    HW274728   8.602   0.039   7.980
24297SOL     OW74729   0.507   5.761   2.124
24297SOL    HW174730   0.515   5.744   2.030
24297SOL    HW274731   0.555   5.842   2.138
24298SOL     OW74732  13.853   2.493  12.558
24298SOL    HW174733  13.897   2.576  12.541
24298SOL    HW274734  13.836   2.456  12.471
24299SOL     OW74735  12.332  13.345  13.659
24299SOL    HW174736  12.315  13.434  13.690
24299SOL    HW274737  12.417  13.350  13.615
24300SOL     OW74738  12.997   8.243   4.096
24300SOL    HW174739  13.065   8.230   4.030
24300SOL    HW274740  12.944   8.164   4.092
24301SOL     OW74741   8.480   0.238   1.617
24301SOL    HW174742   8.519   0.210   1.534
24301SOL    HW274743   8.523   0.185   1.683
24302SOL     OW74744  11.625   8.046  11.806
24302SOL    HW174745  11.663   7.987  11.871
24302SOL    HW274746  11.693   8.056  11.740
24303SOL     OW74747   4.105  11.399  13.608
24303SOL    HW174748   4.057  11.482  13.614
24303SOL    HW274749   4.148  11.402  13.523
24304SOL     OW74750   2.907   3.334   1.661
24304SOL    HW174751   2.907   3.380   1.577
24304SOL    HW274752   2.941   3.398   1.723
24305SOL     OW74753   4.454   1.704   0.140
24305SOL    HW174754   4.541   1.663   0.133
24305SOL    HW274755   4.471   1.797   0.125
24306SOL     OW74756   7.960   6.976   8.040
24306SOL    HW174757   8.031   6.985   8.104
24306SOL    HW274758   7.918   6.893   8.064
24307SOL     OW74759   0.797   1.056  13.103
24307SOL    HW174760   0.721   1.035  13.049
24307SOL    HW274761   0.863   1.085  13.040
24308SOL     OW74762  13.637  14.760  12.282
24308SOL    HW174763  13.715  14.747  12.228
24308SOL    HW274764  13.613  14.851  12.266
24309SOL     OW74765  14.080   5.733  11.589
24309SOL    HW174766  14.080   5.663  11.523
24309SOL    HW274767  14.172   5.747  11.609
24310SOL     OW74768   1.902  13.291   1.429
24310SOL    HW174769   1.831  13.247   1.383
24310SOL    HW274770   1.913  13.374   1.383
24311SOL     OW74771  12.999   7.506  10.132
24311SOL    HW174772  13.078   7.462  10.101
24311SOL    HW274773  12.989   7.582  10.075
24312SOL     OW74774   5.925   7.025  13.883
24312SOL    HW174775   5.898   6.996  13.796
24312SOL    HW274776   6.021   7.027  13.879
24313SOL     OW74777   8.377   0.978   1.681
24313SOL    HW174778   8.428   1.008   1.606
24313SOL    HW274779   8.429   1.003   1.758
24314SOL     OW74780  10.590   5.618   8.908
24314SOL    HW174781  10.618   5.636   8.998
24314SOL    HW274782  10.659   5.656   8.854
24315SOL     OW74783   4.772  10.357   1.704
24315SOL    HW174784   4.690  10.407   1.699
24315SOL    HW274785   4.802  10.368   1.794
24316SOL     OW74786   1.171   4.759   6.455
24316SOL    HW174787   1.113   4.685   6.474
24316SOL    HW274788   1.125   4.809   6.387
24317SOL     OW74789  14.363  14.159   8.668
24317SOL    HW174790  14.358  14.154   8.573
24317SOL    HW274791  14.445  14.204   8.686
24318SOL     OW74792   4.922  12.241  13.341
24318SOL    HW174793   4.983  12.312  13.362
24318SOL    HW274794   4.936  12.224  13.247
24319SOL     OW74795   8.250   2.708   7.743
24319SOL    HW174796   8.204   2.785   7.710
24319SOL    HW274797   8.192   2.635   7.724
24320SOL     OW74798   6.575   0.568   6.631
24320SOL    HW174799   6.510   0.498   6.630
24320SOL    HW274800   6.653   0.528   6.593
24321SOL     OW74801   8.389   5.030   3.709
24321SOL    HW174802   8.435   5.026   3.792
24321SOL    HW274803   8.454   5.004   3.643
24322SOL     OW74804   5.820   2.049   3.255
24322SOL    HW174805   5.906   2.075   3.289
24322SOL    HW274806   5.772   2.131   3.246
24323SOL     OW74807   4.677   8.581   8.849
24323SOL    HW174808   4.656   8.555   8.939
24323SOL    HW274809   4.767   8.613   8.854
24324SOL     OW74810  12.550   7.865   2.680
24324SOL    HW174811  12.601   7.946   2.682
24324SOL    HW274812  12.578   7.822   2.599
24325SOL     OW74813  12.141   8.563   0.231
24325SOL    HW174814  12.222   8.603   0.264
24325SOL    HW274815  12.140   8.475   0.268
24326SOL     OW74816   9.678   3.691   2.562
24326SOL    HW174817   9.701   3.780   2.535
24326SOL    HW274818   9.582   3.690   2.563
24327SOL     OW74819   5.149   7.381   8.963
24327SOL    HW174820   5.214   7.420   9.021
24327SOL    HW274821   5.131   7.449   8.899
24328SOL     OW74822   7.532   9.928   2.912
24328SOL    HW174823   7.519   9.840   2.948
24328SOL    HW274824   7.444   9.957   2.888
24329SOL     OW74825   9.390  10.164  10.524
24329SOL    HW174826   9.331  10.120  10.463
24329SOL    HW274827   9.478  10.140  10.495
24330SOL     OW74828  10.940  14.055   2.271
24330SOL    HW174829  10.975  14.139   2.302
24330SOL    HW274830  11.014  13.995   2.277
24331SOL     OW74831   3.556  14.557   8.085
24331SOL    HW174832   3.522  14.472   8.056
24331SOL    HW274833   3.522  14.620   8.021
24332SOL     OW74834   1.858  14.054   2.818
24332SOL    HW174835   1.792  14.036   2.752
24332SOL    HW274836   1.911  14.125   2.781
24333SOL     OW74837   1.941   2.818  11.308
24333SOL    HW174838   1.937   2.814  11.404
24333SOL    HW274839   2.028   2.853  11.290
24334SOL     OW74840   7.477   5.232   0.008
24334SOL    HW174841   7.434   5.184  14.817
24334SOL    HW274842   7.500   5.316  14.848
24335SOL     OW74843   5.574   9.808   5.358
24335SOL    HW174844   5.637   9.736   5.363
24335SOL    HW274845   5.585   9.844   5.270
24336SOL     OW74846   3.409   6.706   2.252
24336SOL    HW174847   3.441   6.764   2.184
24336SOL    HW274848   3.386   6.625   2.206
24337SOL     OW74849  10.651   8.771   8.426
24337SOL    HW174850  10.576   8.818   8.390
24337SOL    HW274851  10.616   8.723   8.501
24338SOL     OW74852   6.961   0.933  14.174
24338SOL    HW174853   6.931   1.003  14.117
24338SOL    HW274854   6.885   0.912  14.228
24339SOL     OW74855   9.992   9.318  10.963
24339SOL    HW174856  10.004   9.352  11.052
24339SOL    HW274857  10.059   9.362  10.911
24340SOL     OW74858  12.206   3.813   1.465
24340SOL    HW174859  12.298   3.792   1.450
24340SOL    HW274860  12.163   3.800   1.381
24341SOL     OW74861   6.025   2.774   4.244
24341SOL    HW174862   5.990   2.832   4.311
24341SOL    HW274863   6.044   2.692   4.291
24342SOL     OW74864   4.866   4.107  11.815
24342SOL    HW174865   4.786   4.118  11.763
24342SOL    HW274866   4.921   4.049  11.761
24343SOL     OW74867   6.272  11.141   5.932
24343SOL    HW174868   6.324  11.134   5.852
24343SOL    HW274869   6.245  11.051   5.952
24344SOL     OW74870   0.854  14.698   4.744
24344SOL    HW174871   0.914  14.771   4.736
24344SOL    HW274872   0.769  14.734   4.719
24345SOL     OW74873  13.108  13.933   7.881
24345SOL    HW174874  13.131  13.875   7.953
24345SOL    HW274875  13.043  13.992   7.917
24346SOL     OW74876   9.215   0.401   9.548
24346SOL    HW174877   9.129   0.441   9.532
24346SOL    HW274878   9.272   0.474   9.572
24347SOL     OW74879   0.740  11.560   8.063
24347SOL    HW174880   0.702  11.639   8.025
24347SOL    HW274881   0.669  11.496   8.059
24348SOL     OW74882   3.864   3.973   0.390
24348SOL    HW174883   3.940   3.969   0.448
24348SOL    HW274884   3.837   4.065   0.392
24349SOL     OW74885   9.985   5.297   1.339
24349SOL    HW174886   9.919   5.283   1.272
24349SOL    HW274887  10.067   5.308   1.290
24350SOL     OW74888  12.456   7.956   3.995
24350SOL    HW174889  12.479   8.049   3.991
24350SOL    HW274890  12.512   7.914   3.930
24351SOL     OW74891  11.764   3.265   9.546
24351SOL    HW174892  11.855   3.278   9.518
24351SOL    HW274893  11.713   3.326   9.493
24352SOL     OW74894   8.427  13.503  12.432
24352SOL    HW174895   8.355  13.501  12.368
24352SOL    HW274896   8.503  13.470  12.384
24353SOL     OW74897  13.242   0.816   2.371
24353SOL    HW174898  13.152   0.783   2.368
24353SOL    HW274899  13.247   0.861   2.456
24354SOL     OW74900   3.921  13.938   5.841
24354SOL    HW174901   3.850  13.988   5.801
24354SOL    HW274902   3.989  13.935   5.774
24355SOL     OW74903   8.759   2.037   7.724
24355SOL    HW174904   8.719   2.124   7.718
24355SOL    HW274905   8.808   2.039   7.806
24356SOL     OW74906  10.355   1.682  12.312
24356SOL    HW174907  10.431   1.654  12.261
24356SOL    HW274908  10.393   1.721  12.391
24357SOL     OW74909   5.606   7.128   7.945
24357SOL    HW174910   5.699   7.106   7.955
24357SOL    HW274911   5.568   7.111   8.031
24358SOL     OW74912  12.577   5.638   9.052
24358SOL    HW174913  12.493   5.600   9.023
24358SOL    HW274914  12.638   5.564   9.050
24359SOL     OW74915   2.470   1.897  13.371
24359SOL    HW174916   2.549   1.863  13.414
24359SOL    HW274917   2.402   1.891  13.438
24360SOL     OW74918   2.808   4.643   6.790
24360SOL    HW174919   2.903   4.637   6.802
24360SOL    HW274920   2.789   4.736   6.795
24361SOL     OW74921   5.212   2.408   4.854
24361SOL    HW174922   5.188   2.480   4.912
24361SOL    HW274923   5.167   2.427   4.772
24362SOL     OW74924  14.683   7.599   8.132
24362SOL    HW174925  14.718   7.675   8.087
24362SOL    HW274926  14.728   7.524   8.091
24363SOL     OW74927   1.021   3.096   5.006
24363SOL    HW174928   1.085   3.162   4.980
24363SOL    HW274929   1.045   3.018   4.957
24364SOL     OW74930  11.861   0.355   4.413
24364SOL    HW174931  11.948   0.354   4.454
24364SOL    HW274932  11.819   0.434   4.448
24365SOL     OW74933   4.408   4.930   8.970
24365SOL    HW174934   4.421   4.835   8.972
24365SOL    HW274935   4.353   4.949   9.046
24366SOL     OW74936  12.047   6.006   0.419
24366SOL    HW174937  12.051   6.078   0.357
24366SOL    HW274938  12.004   6.043   0.496
24367SOL     OW74939   7.384  10.561   0.907
24367SOL    HW174940   7.366  10.639   0.856
24367SOL    HW274941   7.408  10.594   0.994
24368SOL     OW74942   1.835   6.159  12.447
24368SOL    HW174943   1.887   6.084  12.477
24368SOL    HW274944   1.788   6.127  12.370
24369SOL     OW74945   2.363  14.406   5.719
24369SOL    HW174946   2.449  14.372   5.744
24369SOL    HW274947   2.363  14.401   5.623
24370SOL     OW74948   9.592   2.239  13.253
24370SOL    HW174949   9.657   2.270  13.317
24370SOL    HW274950   9.644   2.195  13.186
24371SOL     OW74951   9.655   0.596   6.258
24371SOL    HW174952   9.717   0.593   6.331
24371SOL    HW274953   9.708   0.624   6.183
24372SOL     OW74954   9.739  12.741   4.986
24372SOL    HW174955   9.702  12.732   4.898
24372SOL    HW274956   9.663  12.758   5.041
24373SOL     OW74957   7.566  11.605  14.647
24373SOL    HW174958   7.635  11.538  14.650
24373SOL    HW274959   7.493  11.566  14.695
24374SOL     OW74960   2.055  13.410  14.780
24374SOL    HW174961   2.139  13.377  14.813
24374SOL    HW274962   2.069  13.504  14.768
24375SOL     OW74963   2.121  13.851   6.402
24375SOL    HW174964   2.186  13.806   6.348
24375SOL    HW274965   2.137  13.944   6.386
24376SOL     OW74966   6.565   4.468   9.489
24376SOL    HW174967   6.499   4.460   9.557
24376SOL    HW274968   6.649   4.457   9.534
24377SOL     OW74969   2.074  10.960  14.575
24377SOL    HW174970   2.163  10.942  14.604
24377SOL    HW274971   2.083  10.979  14.481
24378SOL     OW74972  12.759   4.943   6.684
24378SOL    HW174973  12.768   4.925   6.777
24378SOL    HW274974  12.838   4.908   6.644
24379SOL     OW74975   7.037   5.255   8.058
24379SOL    HW174976   7.086   5.228   7.980
24379SOL    HW274977   7.055   5.187   8.122
24380SOL     OW74978   5.755   7.032   8.185
24380SOL    HW174979   5.840   6.989   8.183
24380SOL    HW274980   5.772   7.119   8.220
24381SOL     OW74981  11.953   1.265   2.776
24381SOL    HW174982  11.943   1.279   2.870
24381SOL    HW274983  11.868   1.291   2.739
24382SOL     OW74984   2.779   1.280   5.552
24382SOL    HW174985   2.695   1.284   5.505
24382SOL    HW274986   2.767   1.339   5.627
24383SOL     OW74987  12.701   7.861   2.437
24383SOL    HW174988  12.769   7.915   2.476
24383SOL    HW274989  12.710   7.874   2.343
24384SOL     OW74990   1.793  10.223   2.281
24384SOL    HW174991   1.843  10.261   2.353
24384SOL    HW274992   1.703  10.217   2.315
24385SOL     OW74993   6.481   6.654  12.832
24385SOL    HW174994   6.544   6.693  12.893
24385SOL    HW274995   6.527   6.652  12.748
24386SOL     OW74996   9.915   4.062   1.234
24386SOL    HW174997   9.922   3.981   1.286
24386SOL    HW274998   9.941   4.131   1.295
24387SOL     OW74999   5.856   5.063   5.769
24387SOL    HW175000   5.948   5.037   5.765
24387SOL    HW275001   5.811   4.987   5.806
24388SOL     OW75002   2.687   4.808   2.562
24388SOL    HW175003   2.753   4.875   2.580
24388SOL    HW275004   2.603   4.856   2.565
24389SOL     OW75005   5.492  12.198  13.317
24389SOL    HW175006   5.514  12.197  13.224
24389SOL    HW275007   5.552  12.135  13.356
24390SOL     OW75008  10.589   7.901   1.039
24390SOL    HW175009  10.511   7.956   1.048
24390SOL    HW275010  10.577   7.833   1.105
24391SOL     OW75011  10.932   1.380  11.756
24391SOL    HW175012  10.943   1.441  11.683
24391SOL    HW275013  11.009   1.393  11.811
24392SOL     OW75014   4.015  11.342   8.737
24392SOL    HW175015   3.946  11.406   8.719
24392SOL    HW275016   4.097  11.391   8.725
24393SOL     OW75017  11.039   8.076  11.821
24393SOL    HW175018  10.977   8.027  11.875
24393SOL    HW275019  11.088   8.130  11.883
24394SOL     OW75020  13.332  13.898   9.152
24394SOL    HW175021  13.408  13.871   9.100
24394SOL    HW275022  13.357  13.879   9.243
24395SOL     OW75023  10.269   9.236  10.476
24395SOL    HW175024  10.348   9.196  10.438
24395SOL    HW275025  10.228   9.166  10.527
24396SOL     OW75026   2.275  12.532   2.996
24396SOL    HW175027   2.319  12.457   2.955
24396SOL    HW275028   2.347  12.583   3.033
24397SOL     OW75029   0.602  13.488   0.768
24397SOL    HW175030   0.626  13.436   0.845
24397SOL    HW275031   0.514  13.522   0.788
24398SOL     OW75032   2.303   3.665   5.941
24398SOL    HW175033   2.304   3.592   5.879
24398SOL    HW275034   2.357   3.635   6.014
24399SOL     OW75035   4.803   6.775   5.475
24399SOL    HW175036   4.717   6.811   5.454
24399SOL    HW275037   4.800   6.758   5.569
24400SOL     OW75038   0.875  11.493  13.334
24400SOL    HW175039   0.814  11.492  13.408
24400SOL    HW275040   0.841  11.562  13.276
24401SOL     OW75041   8.858  11.002   0.970
24401SOL    HW175042   8.773  10.959   0.977
24401SOL    HW275043   8.839  11.095   0.985
24402SOL     OW75044   2.310  13.771  11.512
24402SOL    HW175045   2.338  13.705  11.449
24402SOL    HW275046   2.217  13.754  11.527
24403SOL     OW75047   5.800   0.273   8.617
24403SOL    HW175048   5.804   0.186   8.656
24403SOL    HW275049   5.795   0.332   8.692
24404SOL     OW75050   9.728   7.519   2.443
24404SOL    HW175051   9.766   7.606   2.445
24404SOL    HW275052   9.764   7.475   2.521
24405SOL     OW75053  13.276  11.097   3.854
24405SOL    HW175054  13.271  11.192   3.841
24405SOL    HW275055  13.188  11.073   3.883
24406SOL     OW75056   1.581   2.734  11.200
24406SOL    HW175057   1.668   2.759  11.169
24406SOL    HW275058   1.593   2.717  11.293
24407SOL     OW75059  12.304   1.091   3.534
24407SOL    HW175060  12.211   1.096   3.514
24407SOL    HW275061  12.314   1.141   3.615
24408SOL     OW75062   5.059   2.941   5.145
24408SOL    HW175063   5.036   2.867   5.202
24408SOL    HW275064   5.029   2.914   5.058
24409SOL     OW75065  14.595   9.875  13.461
24409SOL    HW175066  14.633   9.917  13.384
24409SOL    HW275067  14.618   9.933  13.534
24410SOL     OW75068   8.284   9.262  10.838
24410SOL    HW175069   8.341   9.338  10.848
24410SOL    HW275070   8.342   9.192  10.807
24411SOL     OW75071   8.454  11.512  12.104
24411SOL    HW175072   8.541  11.475  12.090
24411SOL    HW275073   8.471  11.601  12.135
24412SOL     OW75074  10.885  10.521   1.292
24412SOL    HW175075  10.837  10.461   1.349
24412SOL    HW275076  10.857  10.608   1.320
24413SOL     OW75077   6.098   2.302   2.086
24413SOL    HW175078   6.096   2.395   2.111
24413SOL    HW275079   6.071   2.256   2.165
24414SOL     OW75080  13.398   7.238   3.002
24414SOL    HW175081  13.419   7.278   3.087
24414SOL    HW275082  13.317   7.282   2.974
24415SOL     OW75083  10.957   1.042   9.923
24415SOL    HW175084  10.952   0.955   9.884
24415SOL    HW275085  10.908   1.034  10.005
24416SOL     OW75086   2.202  11.288   1.789
24416SOL    HW175087   2.133  11.352   1.769
24416SOL    HW275088   2.157  11.204   1.791
24417SOL     OW75089  13.683   6.396   8.606
24417SOL    HW175090  13.665   6.377   8.514
24417SOL    HW275091  13.607   6.363   8.653
24418SOL     OW75092   5.279   3.986   3.032
24418SOL    HW175093   5.279   4.034   3.115
24418SOL    HW275094   5.329   4.041   2.972
24419SOL     OW75095   2.709  13.156   1.402
24419SOL    HW175096   2.675  13.121   1.320
24419SOL    HW275097   2.670  13.101   1.470
24420SOL     OW75098  10.418   6.402   1.585
24420SOL    HW175099  10.354   6.440   1.645
24420SOL    HW275100  10.462   6.478   1.546
24421SOL     OW75101   6.330  10.138  10.835
24421SOL    HW175102   6.263  10.201  10.862
24421SOL    HW275103   6.408  10.164  10.883
24422SOL     OW75104  14.223   3.278   3.844
24422SOL    HW175105  14.151   3.337   3.867
24422SOL    HW275106  14.195   3.192   3.874
24423SOL     OW75107   7.543  14.345  11.394
24423SOL    HW175108   7.587  14.387  11.321
24423SOL    HW275109   7.598  14.270  11.416
24424SOL     OW75110   1.425   6.114   6.043
24424SOL    HW175111   1.406   6.088   6.133
24424SOL    HW275112   1.504   6.065   6.021
24425SOL     OW75113  13.346  13.137   5.525
24425SOL    HW175114  13.256  13.165   5.540
24425SOL    HW275115  13.357  13.143   5.430
24426SOL     OW75116  14.695   3.102  12.603
24426SOL    HW175117  14.670   3.131  12.515
24426SOL    HW275118  14.683   3.007  12.601
24427SOL     OW75119   0.098  14.345   6.283
24427SOL    HW175120   0.088  14.255   6.253
24427SOL    HW275121   0.075  14.399   6.208
24428SOL     OW75122   6.786   4.221  11.345
24428SOL    HW175123   6.848   4.223  11.271
24428SOL    HW275124   6.701   4.210  11.304
24429SOL     OW75125  12.181   1.351   4.629
24429SOL    HW175126  12.087   1.329   4.635
24429SOL    HW275127  12.220   1.305   4.704
24430SOL     OW75128   6.906  14.751  14.317
24430SOL    HW175129   6.908  14.657  14.299
24430SOL    HW275130   6.978  14.765  14.379
24431SOL     OW75131   7.082  14.432   4.249
24431SOL    HW175132   7.051  14.509   4.201
24431SOL    HW275133   7.157  14.401   4.200
24432SOL     OW75134   1.460   0.993  13.109
24432SOL    HW175135   1.484   0.945  13.030
24432SOL    HW275136   1.377   0.955  13.137
24433SOL     OW75137   4.327  12.622   4.905
24433SOL    HW175138   4.254  12.582   4.953
24433SOL    HW275139   4.403  12.568   4.926
24434SOL     OW75140  13.972  12.311  12.851
24434SOL    HW175141  13.906  12.291  12.785
24434SOL    HW275142  14.054  12.280  12.813
24435SOL     OW75143   6.883  14.013   8.119
24435SOL    HW175144   6.894  13.986   8.210
24435SOL    HW275145   6.806  14.070   8.120
24436SOL     OW75146   4.800  13.352  10.464
24436SOL    HW175147   4.709  13.334  10.441
24436SOL    HW275148   4.848  13.274  10.434
24437SOL     OW75149  14.273   2.065   2.542
24437SOL    HW175150  14.305   2.153   2.562
24437SOL    HW275151  14.350   2.009   2.552
24438SOL     OW75152   2.839   3.217  12.059
24438SOL    HW175153   2.756   3.246  12.096
24438SOL    HW275154   2.815   3.158  11.987
24439SOL     OW75155   4.353   4.120  13.390
24439SOL    HW175156   4.280   4.060  13.374
24439SOL    HW275157   4.412   4.070  13.446
24440SOL     OW75158   2.882  12.334  10.994
24440SOL    HW175159   2.903  12.248  11.031
24440SOL    HW275160   2.883  12.321  10.899
24441SOL     OW75161   8.331   8.394   7.932
24441SOL    HW175162   8.282   8.453   7.876
24441SOL    HW275163   8.423   8.411   7.911
24442SOL     OW75164   0.099  13.798  13.565
24442SOL    HW175165   0.059  13.884  13.561
24442SOL    HW275166   0.025  13.737  13.574
24443SOL     OW75167  13.266  13.307  10.648
24443SOL    HW175168  13.291  13.398  10.630
24443SOL    HW275169  13.187  13.314  10.701
24444SOL     OW75170   8.387   6.400   3.109
24444SOL    HW175171   8.300   6.372   3.081
24444SOL    HW275172   8.387   6.495   3.099
24445SOL     OW75173   4.340   1.635  14.293
24445SOL    HW175174   4.361   1.575  14.221
24445SOL    HW275175   4.247   1.620  14.310
24446SOL     OW75176   2.180  12.756   0.321
24446SOL    HW175177   2.252  12.818   0.330
24446SOL    HW275178   2.113  12.789   0.382
24447SOL     OW75179   7.845  10.779  12.555
24447SOL    HW175180   7.820  10.762  12.645
24447SOL    HW275181   7.853  10.874  12.550
24448SOL     OW75182   9.557   0.639   1.911
24448SOL    HW175183   9.651   0.636   1.932
24448SOL    HW275184   9.518   0.689   1.983
24449SOL     OW75185  11.256   5.342   9.116
24449SOL    HW175186  11.349   5.361   9.128
24449SOL    HW275187  11.253   5.285   9.039
24450SOL     OW75188   4.700   5.191   3.443
24450SOL    HW175189   4.753   5.112   3.427
24450SOL    HW275190   4.762   5.263   3.435
24451SOL     OW75191  13.125   9.702   5.869
24451SOL    HW175192  13.220   9.716   5.866
24451SOL    HW275193  13.114   9.609   5.847
24452SOL     OW75194   1.553  10.633   3.104
24452SOL    HW175195   1.571  10.540   3.117
24452SOL    HW275196   1.564  10.672   3.191
24453SOL     OW75197  11.727   5.776   5.823
24453SOL    HW175198  11.777   5.718   5.764
24453SOL    HW275199  11.636   5.765   5.795
24454SOL     OW75200   6.765   2.011  14.355
24454SOL    HW175201   6.813   1.931  14.338
24454SOL    HW275202   6.686   2.004  14.302
24455SOL     OW75203   2.680  10.715  10.704
24455SOL    HW175204   2.630  10.737  10.626
24455SOL    HW275205   2.639  10.636  10.739
24456SOL     OW75206   9.867  13.640   2.591
24456SOL    HW175207   9.912  13.589   2.524
24456SOL    HW275208   9.776  13.609   2.588
24457SOL     OW75209  11.662   0.356  10.076
24457SOL    HW175210  11.602   0.394  10.012
24457SOL    HW275211  11.614   0.281  10.111
24458SOL     OW75212   0.202  11.648  10.204
24458SOL    HW175213   0.107  11.648  10.221
24458SOL    HW275214   0.226  11.555  10.202
24459SOL     OW75215   8.012  14.773  14.195
24459SOL    HW175216   7.947  14.797  14.128
24459SOL    HW275217   8.040  14.857  14.232
24460SOL     OW75218   0.975   3.557   1.316
24460SOL    HW175219   0.898   3.562   1.373
24460SOL    HW275220   0.981   3.644   1.276
24461SOL     OW75221   8.452  10.003  14.103
24461SOL    HW175222   8.361  10.026  14.123
24461SOL    HW275223   8.445   9.927  14.045
24462SOL     OW75224   2.405  13.619  11.320
24462SOL    HW175225   2.390  13.525  11.311
24462SOL    HW275226   2.474  13.627  11.386
24463SOL     OW75227   7.535  14.043  11.366
24463SOL    HW175228   7.519  13.988  11.442
24463SOL    HW275229   7.452  14.089  11.350
24464SOL     OW75230  11.285  13.115  11.694
24464SOL    HW175231  11.225  13.098  11.767
24464SOL    HW275232  11.326  13.031  11.677
24465SOL     OW75233   0.654  10.414  10.743
24465SOL    HW175234   0.599  10.456  10.809
24465SOL    HW275235   0.658  10.477  10.671
24466SOL     OW75236   1.166  10.530   8.798
24466SOL    HW175237   1.249  10.533   8.845
24466SOL    HW275238   1.146  10.437   8.789
24467SOL     OW75239  14.383   6.011   2.410
24467SOL    HW175240  14.451   6.033   2.346
24467SOL    HW275241  14.430   5.964   2.479
24468SOL     OW75242   5.823   8.159  11.093
24468SOL    HW175243   5.764   8.106  11.038
24468SOL    HW275244   5.862   8.096  11.153
24469SOL     OW75245  10.471   0.717  11.145
24469SOL    HW175246  10.391   0.694  11.192
24469SOL    HW275247  10.530   0.750  11.213
24470SOL     OW75248   7.835   9.524   5.160
24470SOL    HW175249   7.811   9.433   5.142
24470SOL    HW275250   7.876   9.554   5.079
24471SOL     OW75251   1.854   5.310  12.090
24471SOL    HW175252   1.932   5.267  12.054
24471SOL    HW275253   1.877   5.330  12.180
24472SOL     OW75254   3.368   7.315   2.562
24472SOL    HW175255   3.367   7.395   2.509
24472SOL    HW275256   3.288   7.269   2.539
24473SOL     OW75257   9.922   8.554   2.053
24473SOL    HW175258   9.871   8.635   2.063
24473SOL    HW275259   9.939   8.526   2.143
24474SOL     OW75260  12.123  10.190   8.930
24474SOL    HW175261  12.115  10.285   8.946
24474SOL    HW275262  12.208  10.180   8.888
24475SOL     OW75263   8.472   1.752   1.088
24475SOL    HW175264   8.410   1.778   1.020
24475SOL    HW275265   8.418   1.740   1.166
24476SOL     OW75266   9.019  10.658  10.007
24476SOL    HW175267   8.944  10.599  10.008
24476SOL    HW275268   9.040  10.668   9.914
24477SOL     OW75269   1.639   0.631   3.448
24477SOL    HW175270   1.604   0.584   3.373
24477SOL    HW275271   1.720   0.585   3.470
24478SOL     OW75272  14.160   2.086   2.048
24478SOL    HW175273  14.104   2.143   1.995
24478SOL    HW275274  14.235   2.140   2.071
24479SOL     OW75275  11.816   4.977   5.827
24479SOL    HW175276  11.757   4.999   5.755
24479SOL    HW275277  11.884   4.923   5.786
24480SOL     OW75278   2.826   1.280   1.188
24480SOL    HW175279   2.843   1.372   1.211
24480SOL    HW275280   2.905   1.234   1.217
24481SOL     OW75281   6.925   9.458   4.743
24481SOL    HW175282   6.842   9.436   4.701
24481SOL    HW275283   6.936   9.552   4.728
24482SOL     OW75284   6.321   2.574   2.485
24482SOL    HW175285   6.396   2.632   2.479
24482SOL    HW275286   6.278   2.580   2.400
24483SOL     OW75287   1.551  10.002  11.665
24483SOL    HW175288   1.536   9.987  11.759
24483SOL    HW275289   1.542   9.915  11.626
24484SOL     OW75290   0.791   8.841  10.173
24484SOL    HW175291   0.802   8.933  10.147
24484SOL    HW275292   0.851   8.830  10.246
24485SOL     OW75293   7.927   8.711   9.846
24485SOL    HW175294   7.982   8.643   9.884
24485SOL    HW275295   7.938   8.701   9.751
24486SOL     OW75296   1.894  10.149  13.966
24486SOL    HW175297   1.942  10.097  14.031
24486SOL    HW275298   1.949  10.225  13.950
24487SOL     OW75299   6.987  14.611   0.506
24487SOL    HW175300   7.019  14.526   0.477
24487SOL    HW275301   6.981  14.664   0.427
24488SOL     OW75302  10.662  11.175   7.497
24488SOL    HW175303  10.681  11.156   7.589
24488SOL    HW275304  10.646  11.090   7.457
24489SOL     OW75305  13.917   5.017  12.549
24489SOL    HW175306  13.936   4.924  12.564
24489SOL    HW275307  14.002   5.058  12.536
24490SOL     OW75308   3.119  13.356   5.417
24490SOL    HW175309   3.176  13.424   5.452
24490SOL    HW275310   3.091  13.307   5.495
24491SOL     OW75311   9.345   7.637   3.477
24491SOL    HW175312   9.434   7.667   3.491
24491SOL    HW275313   9.316   7.607   3.563
24492SOL     OW75314   5.199  11.220  13.630
24492SOL    HW175315   5.271  11.187  13.684
24492SOL    HW275316   5.120  11.204  13.682
24493SOL     OW75317   1.155  12.104   6.373
24493SOL    HW175318   1.154  12.158   6.294
24493SOL    HW275319   1.235  12.052   6.365
24494SOL     OW75320  11.533   8.881   8.756
24494SOL    HW175321  11.479   8.904   8.831
24494SOL    HW275322  11.523   8.955   8.696
24495SOL     OW75323   2.951   7.909   2.220
24495SOL    HW175324   2.860   7.936   2.232
24495SOL    HW275325   2.964   7.908   2.125
24496SOL     OW75326  14.527   5.503   8.337
24496SOL    HW175327  14.497   5.417   8.308
24496SOL    HW275328  14.531   5.556   8.257
24497SOL     OW75329   5.484   1.956   7.250
24497SOL    HW175330   5.560   1.959   7.308
24497SOL    HW275331   5.514   1.906   7.174
24498SOL     OW75332  11.940   2.924  10.276
24498SOL    HW175333  11.899   2.988  10.335
24498SOL    HW275334  12.016   2.970  10.241
24499SOL     OW75335   7.155  11.603   2.484
24499SOL    HW175336   7.175  11.649   2.566
24499SOL    HW275337   7.150  11.511   2.509
24500SOL     OW75338   7.786   7.254   2.368
24500SOL    HW175339   7.784   7.193   2.442
24500SOL    HW275340   7.809   7.199   2.293
24501SOL     OW75341   9.666   7.843   9.689
24501SOL    HW175342   9.642   7.915   9.632
24501SOL    HW275343   9.678   7.884   9.775
24502SOL     OW75344  13.112  12.276   7.197
24502SOL    HW175345  13.093  12.273   7.103
24502SOL    HW275346  13.190  12.222   7.208
24503SOL     OW75347   0.866   6.015  11.612
24503SOL    HW175348   0.938   6.064  11.652
24503SOL    HW275349   0.788   6.046  11.657
24504SOL     OW75350   1.871   1.496   7.557
24504SOL    HW175351   1.950   1.485   7.505
24504SOL    HW275352   1.871   1.422   7.618
24505SOL     OW75353   5.731   2.547  13.356
24505SOL    HW175354   5.825   2.550  13.371
24505SOL    HW275355   5.715   2.457  13.327
24506SOL     OW75356   4.644  14.120  13.746
24506SOL    HW175357   4.617  14.098  13.835
24506SOL    HW275358   4.625  14.214  13.738
24507SOL     OW75359   9.703   4.635  13.766
24507SOL    HW175360   9.667   4.605  13.683
24507SOL    HW275361   9.795   4.608  13.764
24508SOL     OW75362   9.210  12.027  12.341
24508SOL    HW175363   9.288  12.057  12.294
24508SOL    HW275364   9.185  12.101  12.396
24509SOL     OW75365   7.227  11.136   1.137
24509SOL    HW175366   7.253  11.063   1.079
24509SOL    HW275367   7.206  11.093   1.220
24510SOL     OW75368   5.109   0.478  14.857
24510SOL    HW175369   5.045   0.500   0.045
24510SOL    HW275370   5.179   0.434   0.025
24511SOL     OW75371   8.940  14.052   5.721
24511SOL    HW175372   8.870  14.012   5.669
24511SOL    HW275373   8.941  14.144   5.693
24512SOL     OW75374  10.005   4.436   3.238
24512SOL    HW175375  10.045   4.490   3.306
24512SOL    HW275376   9.976   4.357   3.285
24513SOL     OW75377   0.791  13.657   6.654
24513SOL    HW175378   0.742  13.728   6.696
24513SOL    HW275379   0.818  13.693   6.569
24514SOL     OW75380   4.233   8.769   6.310
24514SOL    HW175381   4.248   8.692   6.364
24514SOL    HW275382   4.175   8.824   6.363
24515SOL     OW75383  12.108   1.639   7.872
24515SOL    HW175384  12.138   1.730   7.882
24515SOL    HW275385  12.178   1.586   7.909
24516SOL     OW75386   7.030   7.524   0.749
24516SOL    HW175387   6.934   7.526   0.752
24516SOL    HW275388   7.051   7.431   0.740
24517SOL     OW75389   7.169   7.620  12.268
24517SOL    HW175390   7.124   7.553  12.319
24517SOL    HW275391   7.155   7.595  12.176
24518SOL     OW75392   5.285   4.808   6.879
24518SOL    HW175393   5.289   4.816   6.974
24518SOL    HW275394   5.206   4.857   6.855
24519SOL     OW75395  14.057  12.610  13.489
24519SOL    HW175396  14.096  12.672  13.551
24519SOL    HW275397  14.090  12.639  13.403
24520SOL     OW75398  10.171   1.679  10.175
24520SOL    HW175399  10.246   1.619  10.168
24520SOL    HW275400  10.186   1.725  10.258
24521SOL     OW75401  13.578   8.635   2.563
24521SOL    HW175402  13.502   8.606   2.513
24521SOL    HW275403  13.578   8.579   2.641
24522SOL     OW75404   6.939   9.707   9.635
24522SOL    HW175405   6.986   9.788   9.656
24522SOL    HW275406   7.008   9.640   9.629
24523SOL     OW75407   0.285  14.171  14.803
24523SOL    HW175408   0.373  14.149  14.771
24523SOL    HW275409   0.277  14.265  14.786
24524SOL     OW75410   0.604  10.510   7.949
24524SOL    HW175411   0.633  10.458   8.024
24524SOL    HW275412   0.647  10.469   7.874
24525SOL     OW75413   7.793  13.600  10.353
24525SOL    HW175414   7.846  13.613  10.432
24525SOL    HW275415   7.716  13.655  10.367
24526SOL     OW75416   7.802   6.115  14.833
24526SOL    HW175417   7.859   6.187  14.860
24526SOL    HW275418   7.721   6.129   0.003
24527SOL     OW75419   4.455   5.211   0.302
24527SOL    HW175420   4.473   5.227   0.210
24527SOL    HW275421   4.472   5.118   0.315
24528SOL     OW75422  14.753  14.184   2.429
24528SOL    HW175423  14.803  14.148   2.356
24528SOL    HW275424  14.668  14.207   2.392
24529SOL     OW75425   9.179  10.151   7.761
24529SOL    HW175426   9.214  10.086   7.822
24529SOL    HW275427   9.094  10.117   7.735
24530SOL     OW75428   2.729   6.840   2.658
24530SOL    HW175429   2.645   6.835   2.613
24530SOL    HW275430   2.708   6.866   2.747
24531SOL     OW75431   3.796  12.441   0.518
24531SOL    HW175432   3.879  12.470   0.557
24531SOL    HW275433   3.741  12.419   0.593
24532SOL     OW75434  13.217  12.046   0.239
24532SOL    HW175435  13.256  12.061   0.325
24532SOL    HW275436  13.273  11.980   0.198
24533SOL     OW75437   8.639  10.088  12.671
24533SOL    HW175438   8.616  10.161  12.614
24533SOL    HW275439   8.591  10.104  12.752
24534SOL     OW75440  13.544   4.899   5.460
24534SOL    HW175441  13.598   4.874   5.535
24534SOL    HW275442  13.599   4.958   5.409
24535SOL     OW75443   2.345   0.069   2.409
24535SOL    HW175444   2.394   0.041   2.331
24535SOL    HW275445   2.383   0.018   2.480
24536SOL     OW75446   0.331   3.140   2.469
24536SOL    HW175447   0.350   3.233   2.464
24536SOL    HW275448   0.274   3.130   2.545
24537SOL     OW75449  11.415   4.119   5.454
24537SOL    HW175450  11.457   4.091   5.372
24537SOL    HW275451  11.321   4.107   5.438
24538SOL     OW75452   5.056  12.825   7.275
24538SOL    HW175453   4.996  12.899   7.276
24538SOL    HW275454   4.999  12.748   7.270
24539SOL     OW75455   7.928   4.906  10.074
24539SOL    HW175456   7.886   4.958  10.141
24539SOL    HW275457   7.990   4.966  10.032
24540SOL     OW75458   4.794   0.517   0.531
24540SOL    HW175459   4.811   0.442   0.588
24540SOL    HW275460   4.778   0.479   0.445
24541SOL     OW75461  10.747   8.050  13.003
24541SOL    HW175462  10.678   8.024  13.064
24541SOL    HW275463  10.824   8.001  13.031
24542SOL     OW75464   3.186  13.193  13.508
24542SOL    HW175465   3.211  13.220  13.419
24542SOL    HW275466   3.148  13.272  13.547
24543SOL     OW75467   6.058   8.169   0.150
24543SOL    HW175468   5.999   8.194   0.079
24543SOL    HW275469   6.142   8.207   0.125
24544SOL     OW75470   1.386   2.538   9.867
24544SOL    HW175471   1.297   2.569   9.882
24544SOL    HW275472   1.441   2.601   9.913
24545SOL     OW75473  14.739   6.406   2.758
24545SOL    HW175474  14.809   6.456   2.717
24545SOL    HW275475  14.665   6.467   2.763
24546SOL     OW75476   8.351   8.478   3.218
24546SOL    HW175477   8.257   8.487   3.202
24546SOL    HW275478   8.368   8.534   3.293
24547SOL     OW75479  12.380  12.610   7.572
24547SOL    HW175480  12.341  12.680   7.625
24547SOL    HW275481  12.472  12.609   7.597
24548SOL     OW75482   4.955   0.575   6.894
24548SOL    HW175483   4.932   0.484   6.906
24548SOL    HW275484   4.901   0.623   6.956
24549SOL     OW75485  11.238   0.554  12.945
24549SOL    HW175486  11.306   0.487  12.939
24549SOL    HW275487  11.258   0.615  12.873
24550SOL     OW75488   0.188  11.649   1.597
24550SOL    HW175489   0.173  11.570   1.546
24550SOL    HW275490   0.101  11.676   1.626
24551SOL     OW75491   1.188   9.367   0.292
24551SOL    HW175492   1.149   9.449   0.260
24551SOL    HW275493   1.209   9.385   0.383
24552SOL     OW75494   1.036   8.911  12.013
24552SOL    HW175495   1.013   8.953  11.930
24552SOL    HW275496   1.046   8.818  11.991
24553SOL     OW75497   5.215   8.381   3.297
24553SOL    HW175498   5.177   8.398   3.211
24553SOL    HW275499   5.168   8.304   3.330
24554SOL     OW75500   1.752  14.066  12.166
24554SOL    HW175501   1.735  13.994  12.227
24554SOL    HW275502   1.803  14.026  12.095
24555SOL     OW75503   3.812  10.788  13.729
24555SOL    HW175504   3.872  10.832  13.669
24555SOL    HW275505   3.838  10.696  13.724
24556SOL     OW75506   3.057   0.391   1.586
24556SOL    HW175507   2.973   0.430   1.563
24556SOL    HW275508   3.053   0.379   1.681
24557SOL     OW75509   9.820  11.865  12.743
24557SOL    HW175510   9.885  11.931  12.724
24557SOL    HW275511   9.828  11.801  12.672
24558SOL     OW75512   7.593   4.714   3.622
24558SOL    HW175513   7.520   4.661   3.590
24558SOL    HW275514   7.584   4.797   3.576
24559SOL     OW75515   7.714   3.325   7.209
24559SOL    HW175516   7.798   3.340   7.252
24559SOL    HW275517   7.735   3.320   7.116
24560SOL     OW75518   4.536   7.611   8.444
24560SOL    HW175519   4.563   7.626   8.354
24560SOL    HW275520   4.552   7.694   8.488
24561SOL     OW75521  13.806   9.704   0.612
24561SOL    HW175522  13.760   9.707   0.527
24561SOL    HW275523  13.876   9.768   0.602
24562SOL     OW75524   0.086  12.075   2.676
24562SOL    HW175525  14.877  12.110   2.673
24562SOL    HW275526   0.085  12.012   2.749
24563SOL     OW75527   9.273   7.779   6.342
24563SOL    HW175528   9.339   7.845   6.361
24563SOL    HW275529   9.242   7.800   6.254
24564SOL     OW75530  13.962   4.492  14.805
24564SOL    HW175531  14.033   4.429  14.800
24564SOL    HW275532  13.922   4.490  14.718
24565SOL     OW75533   2.989   7.926   1.887
24565SOL    HW175534   2.905   7.951   1.849
24565SOL    HW275535   3.054   7.977   1.838
24566SOL     OW75536   7.711  11.076   5.119
24566SOL    HW175537   7.755  11.020   5.184
24566SOL    HW275538   7.657  11.135   5.172
24567SOL     OW75539   6.419   7.728   6.137
24567SOL    HW175540   6.447   7.656   6.082
24567SOL    HW275541   6.495   7.748   6.192
24568SOL     OW75542   9.495   2.100   1.839
24568SOL    HW175543   9.590   2.109   1.833
24568SOL    HW275544   9.481   2.005   1.846
24569SOL     OW75545   4.837  11.256  13.579
24569SOL    HW175546   4.828  11.298  13.665
24569SOL    HW275547   4.890  11.317  13.528
24570SOL     OW75548  10.165   5.714   7.004
24570SOL    HW175549  10.151   5.806   6.982
24570SOL    HW275550  10.077   5.678   7.014
24571SOL     OW75551  13.357   3.625  12.637
24571SOL    HW175552  13.350   3.720  12.633
24571SOL    HW275553  13.420   3.608  12.707
24572SOL     OW75554   4.980  10.459   3.649
24572SOL    HW175555   5.039  10.447   3.574
24572SOL    HW275556   4.896  10.482   3.610
24573SOL     OW75557   7.729  12.393   5.965
24573SOL    HW175558   7.712  12.311   6.011
24573SOL    HW275559   7.657  12.451   5.991
24574SOL     OW75560   8.301   3.096   6.019
24574SOL    HW175561   8.339   3.182   6.000
24574SOL    HW275562   8.248   3.076   5.942
24575SOL     OW75563   4.951   6.552   7.016
24575SOL    HW175564   5.008   6.492   6.968
24575SOL    HW275565   4.898   6.593   6.948
24576SOL     OW75566   4.795   9.521  13.795
24576SOL    HW175567   4.711   9.564  13.810
24576SOL    HW275568   4.848   9.546  13.870
24577SOL     OW75569   5.381  11.452   1.922
24577SOL    HW175570   5.376  11.389   1.994
24577SOL    HW275571   5.335  11.409   1.849
24578SOL     OW75572   0.476   0.321   1.799
24578SOL    HW175573   0.421   0.296   1.874
24578SOL    HW275574   0.459   0.253   1.734
24579SOL     OW75575  11.064  11.230   7.375
24579SOL    HW175576  11.047  11.172   7.301
24579SOL    HW275577  11.090  11.313   7.334
24580SOL     OW75578   7.659  10.435   0.672
24580SOL    HW175579   7.656  10.530   0.685
24580SOL    HW275580   7.568  10.411   0.654
24581SOL     OW75581   9.577   3.503  11.541
24581SOL    HW175582   9.592   3.598  11.538
24581SOL    HW275583   9.512   3.492  11.611
24582SOL     OW75584  11.952   5.367   7.190
24582SOL    HW175585  11.935   5.374   7.284
24582SOL    HW275586  11.946   5.458   7.158
24583SOL     OW75587   4.994  12.617   9.095
24583SOL    HW175588   4.978  12.666   9.175
24583SOL    HW275589   5.049  12.544   9.121
24584SOL     OW75590   7.064  10.662   3.896
24584SOL    HW175591   7.048  10.570   3.916
24584SOL    HW275592   7.097  10.700   3.977
24585SOL     OW75593   0.489   7.987  12.904
24585SOL    HW175594   0.453   7.925  12.966
24585SOL    HW275595   0.584   7.974  12.909
24586SOL     OW75596  11.464   1.894   1.575
24586SOL    HW175597  11.410   1.815   1.583
24586SOL    HW275598  11.403   1.966   1.593
24587SOL     OW75599   2.479   4.652   5.525
24587SOL    HW175600   2.522   4.734   5.551
24587SOL    HW275601   2.525   4.585   5.576
24588SOL     OW75602  11.248   6.562   9.742
24588SOL    HW175603  11.249   6.508   9.663
24588SOL    HW275604  11.304   6.515   9.804
24589SOL     OW75605  10.745  12.754  12.527
24589SOL    HW175606  10.721  12.662  12.516
24589SOL    HW275607  10.715  12.776  12.615
24590SOL     OW75608  12.886  12.561  13.890
24590SOL    HW175609  12.790  12.564  13.884
24590SOL    HW275610  12.909  12.471  13.865
24591SOL     OW75611   1.913   0.195   7.608
24591SOL    HW175612   1.950   0.158   7.528
24591SOL    HW275613   1.975   0.172   7.676
24592SOL     OW75614   9.312   9.814   9.597
24592SOL    HW175615   9.368   9.858   9.660
24592SOL    HW275616   9.329   9.721   9.612
24593SOL     OW75617   2.341   4.441   7.825
24593SOL    HW175618   2.259   4.476   7.790
24593SOL    HW275619   2.349   4.480   7.912
24594SOL     OW75620   0.728   0.111   8.386
24594SOL    HW175621   0.815   0.098   8.423
24594SOL    HW275622   0.744   0.154   8.302
24595SOL     OW75623  13.110  13.108   1.629
24595SOL    HW175624  13.202  13.130   1.649
24595SOL    HW275625  13.062  13.140   1.705
24596SOL     OW75626   4.912   2.739   2.229
24596SOL    HW175627   4.947   2.750   2.140
24596SOL    HW275628   4.990   2.736   2.285
24597SOL     OW75629   5.489   3.211   5.720
24597SOL    HW175630   5.445   3.180   5.799
24597SOL    HW275631   5.507   3.303   5.738
24598SOL     OW75632  12.044  12.904   0.103
24598SOL    HW175633  12.037  12.998   0.085
24598SOL    HW275634  12.046  12.864   0.016
24599SOL     OW75635   5.959   4.007  14.283
24599SOL    HW175636   5.935   4.079  14.341
24599SOL    HW275637   5.927   3.929  14.328
24600SOL     OW75638   7.304   8.089   1.000
24600SOL    HW175639   7.226   8.128   0.961
24600SOL    HW275640   7.308   8.127   1.088
24601SOL     OW75641  13.084   2.293  13.633
24601SOL    HW175642  13.149   2.258  13.572
24601SOL    HW275643  13.001   2.258  13.602
24602SOL     OW75644   1.215   6.810   2.580
24602SOL    HW175645   1.164   6.760   2.516
24602SOL    HW275646   1.152   6.868   2.622
24603SOL     OW75647  13.780   0.197  14.824
24603SOL    HW175648  13.838   0.141  14.772
24603SOL    HW275649  13.721   0.136  14.869
24604SOL     OW75650   2.040  13.038   9.972
24604SOL    HW175651   1.966  13.056   9.913
24604SOL    HW275652   2.105  13.105   9.950
24605SOL     OW75653   9.991  11.762   3.162
24605SOL    HW175654   9.945  11.812   3.095
24605SOL    HW275655  10.070  11.814   3.181
24606SOL     OW75656   9.629  12.872   7.640
24606SOL    HW175657   9.682  12.935   7.689
24606SOL    HW275658   9.646  12.892   7.548
24607SOL     OW75659   9.938   9.838  11.612
24607SOL    HW175660   9.953   9.746  11.593
24607SOL    HW275661  10.023   9.871  11.640
24608SOL     OW75662   6.314   7.758   3.514
24608SOL    HW175663   6.251   7.691   3.543
24608SOL    HW275664   6.286   7.838   3.560
24609SOL     OW75665   1.245   5.408  13.258
24609SOL    HW175666   1.266   5.419  13.165
24609SOL    HW275667   1.212   5.494  13.285
24610SOL     OW75668  10.763   4.189  11.429
24610SOL    HW175669  10.823   4.223  11.363
24610SOL    HW275670  10.791   4.098  11.441
24611SOL     OW75671   8.784   6.542  10.812
24611SOL    HW175672   8.865   6.499  10.837
24611SOL    HW275673   8.802   6.581  10.727
24612SOL     OW75674  10.244   6.013   8.765
24612SOL    HW175675  10.298   5.948   8.812
24612SOL    HW275676  10.164   5.966   8.743
24613SOL     OW75677   3.641   7.807  10.732
24613SOL    HW175678   3.682   7.821  10.646
24613SOL    HW275679   3.584   7.731  10.719
24614SOL     OW75680   6.576   4.146   3.097
24614SOL    HW175681   6.487   4.113   3.102
24614SOL    HW275682   6.626   4.090   3.156
24615SOL     OW75683  12.735   3.847  14.012
24615SOL    HW175684  12.818   3.801  14.008
24615SOL    HW275685  12.759   3.940  14.015
24616SOL     OW75686  13.035  11.364   0.676
24616SOL    HW175687  13.033  11.441   0.619
24616SOL    HW275688  13.128  11.354   0.699
24617SOL     OW75689   0.904   4.578   1.185
24617SOL    HW175690   0.944   4.655   1.225
24617SOL    HW275691   0.921   4.587   1.092
24618SOL     OW75692   8.784  11.758   5.377
24618SOL    HW175693   8.787  11.808   5.459
24618SOL    HW275694   8.728  11.683   5.397
24619SOL     OW75695  10.541   0.407   4.736
24619SOL    HW175696  10.618   0.364   4.697
24619SOL    HW275697  10.489   0.435   4.662
24620SOL     OW75698   2.284   7.476  10.967
24620SOL    HW175699   2.209   7.424  10.939
24620SOL    HW275700   2.292   7.545  10.902
24621SOL     OW75701   9.573   8.171  10.870
24621SOL    HW175702   9.647   8.222  10.838
24621SOL    HW275703   9.610   8.114  10.938
24622SOL     OW75704   8.356   7.830   2.852
24622SOL    HW175705   8.439   7.872   2.831
24622SOL    HW275706   8.380   7.743   2.883
24623SOL     OW75707  13.823  12.510   4.546
24623SOL    HW175708  13.801  12.464   4.465
24623SOL    HW275709  13.824  12.603   4.521
24624SOL     OW75710   5.830  11.416   8.450
24624SOL    HW175711   5.868  11.347   8.395
24624SOL    HW275712   5.756  11.449   8.400
24625SOL     OW75713   5.856   4.705   1.277
24625SOL    HW175714   5.806   4.732   1.200
24625SOL    HW275715   5.881   4.787   1.319
24626SOL     OW75716   6.776   2.683   8.822
24626SOL    HW175717   6.706   2.702   8.760
24626SOL    HW275718   6.839   2.754   8.811
24627SOL     OW75719   6.100   0.111  12.532
24627SOL    HW175720   6.137   0.105  12.620
24627SOL    HW275721   6.059   0.197  12.529
24628SOL     OW75722  13.243   7.044   8.357
24628SOL    HW175723  13.278   6.994   8.431
24628SOL    HW275724  13.229   7.132   8.392
24629SOL     OW75725   1.606   1.390   5.969
24629SOL    HW175726   1.524   1.377   6.017
24629SOL    HW275727   1.620   1.485   5.970
24630SOL     OW75728  10.944  13.752   4.171
24630SOL    HW175729  10.867  13.765   4.226
24630SOL    HW275730  10.999  13.691   4.221
24631SOL     OW75731   3.669  12.906   1.664
24631SOL    HW175732   3.618  12.875   1.590
24631SOL    HW275733   3.738  12.841   1.675
24632SOL     OW75734  14.603   7.159  10.132
24632SOL    HW175735  14.678   7.100  10.121
24632SOL    HW275736  14.629   7.240  10.088
24633SOL     OW75737   9.085   8.004  14.233
24633SOL    HW175738   9.148   7.945  14.191
24633SOL    HW275739   9.125   8.090  14.226
24634SOL     OW75740  13.391   6.506   5.943
24634SOL    HW175741  13.437   6.533   5.864
24634SOL    HW275742  13.422   6.417   5.960
24635SOL     OW75743   7.221   4.109  14.522
24635SOL    HW175744   7.218   4.013  14.512
24635SOL    HW275745   7.197   4.142  14.436
24636SOL     OW75746   1.296   5.372  11.161
24636SOL    HW175747   1.391   5.366  11.149
24636SOL    HW275748   1.270   5.288  11.197
24637SOL     OW75749   7.712   5.247   2.592
24637SOL    HW175750   7.702   5.285   2.504
24637SOL    HW275751   7.805   5.259   2.612
24638SOL     OW75752   8.284   9.950   5.361
24638SOL    HW175753   8.248   9.994   5.437
24638SOL    HW275754   8.274  10.012   5.289
24639SOL     OW75755  10.080  10.375   7.870
24639SOL    HW175756  10.023  10.299   7.859
24639SOL    HW275757  10.119  10.389   7.784
24640SOL     OW75758   4.328   9.782   8.956
24640SOL    HW175759   4.289   9.832   9.027
24640SOL    HW275760   4.261   9.779   8.888
24641SOL     OW75761   4.411   2.291   5.319
24641SOL    HW175762   4.499   2.319   5.294
24641SOL    HW275763   4.424   2.208   5.364
24642SOL     OW75764   5.927   5.188   3.819
24642SOL    HW175765   6.000   5.250   3.826
24642SOL    HW275766   5.924   5.145   3.905
24643SOL     OW75767   6.457   8.125  14.670
24643SOL    HW175768   6.400   8.061  14.628
24643SOL    HW275769   6.483   8.185  14.600
24644SOL     OW75770   6.262   5.443  13.940
24644SOL    HW175771   6.186   5.481  13.985
24644SOL    HW275772   6.267   5.353  13.973
24645SOL     OW75773  12.193   0.983   1.160
24645SOL    HW175774  12.285   1.006   1.170
24645SOL    HW275775  12.189   0.933   1.078
24646SOL     OW75776   4.911   6.650   2.355
24646SOL    HW175777   4.928   6.589   2.427
24646SOL    HW275778   4.951   6.608   2.279
24647SOL     OW75779  12.686   4.483   4.157
24647SOL    HW175780  12.746   4.410   4.143
24647SOL    HW275781  12.602   4.442   4.177
24648SOL     OW75782  14.043   3.129   0.662
24648SOL    HW175783  13.975   3.069   0.632
24648SOL    HW275784  14.000   3.215   0.663
24649SOL     OW75785   1.485   4.979   6.911
24649SOL    HW175786   1.504   4.969   6.817
24649SOL    HW275787   1.564   5.020   6.947
24650SOL     OW75788   8.109   2.716   5.143
24650SOL    HW175789   8.141   2.779   5.207
24650SOL    HW275790   8.062   2.769   5.078
24651SOL     OW75791  11.776   6.858   1.015
24651SOL    HW175792  11.799   6.822   0.929
24651SOL    HW275793  11.821   6.942   1.018
24652SOL     OW75794   0.728   7.672  13.652
24652SOL    HW175795   0.722   7.577  13.640
24652SOL    HW275796   0.809   7.697  13.607
24653SOL     OW75797   7.869   8.226   2.420
24653SOL    HW175798   7.796   8.271   2.378
24653SOL    HW275799   7.829   8.168   2.484
24654SOL     OW75800  13.575  10.831   8.639
24654SOL    HW175801  13.590  10.740   8.664
24654SOL    HW275802  13.487  10.831   8.600
24655SOL     OW75803  11.968   8.889   6.642
24655SOL    HW175804  11.955   8.870   6.735
24655SOL    HW275805  11.957   8.805   6.598
24656SOL     OW75806   7.781   9.113  12.027
24656SOL    HW175807   7.711   9.051  12.047
24656SOL    HW275808   7.788   9.112  11.931
24657SOL     OW75809   1.706   4.454   7.680
24657SOL    HW175810   1.735   4.455   7.589
24657SOL    HW275811   1.669   4.541   7.695
24658SOL     OW75812  12.884  12.749   1.636
24658SOL    HW175813  12.807  12.805   1.630
24658SOL    HW275814  12.852  12.661   1.615
24659SOL     OW75815   0.624  12.378   8.538
24659SOL    HW175816   0.638  12.291   8.501
24659SOL    HW275817   0.564  12.364   8.611
24660SOL     OW75818  11.508  13.927   1.127
24660SOL    HW175819  11.575  13.936   1.059
24660SOL    HW275820  11.425  13.929   1.080
24661SOL     OW75821   0.649   7.004   6.484
24661SOL    HW175822   0.575   6.949   6.459
24661SOL    HW275823   0.697   6.952   6.549
24662SOL     OW75824   3.612  10.158  14.784
24662SOL    HW175825   3.685  10.128  14.730
24662SOL    HW275826   3.599  10.088  14.848
24663SOL     OW75827   8.425   7.486  13.130
24663SOL    HW175828   8.473   7.462  13.051
24663SOL    HW275829   8.373   7.562  13.105
24664SOL     OW75830   2.289  12.571   8.636
24664SOL    HW175831   2.374  12.584   8.678
24664SOL    HW275832   2.307  12.572   8.542
24665SOL     OW75833   8.143   0.209   3.095
24665SOL    HW175834   8.146   0.270   3.022
24665SOL    HW275835   8.230   0.168   3.095
24666SOL     OW75836   8.227   6.951   2.431
24666SOL    HW175837   8.273   6.945   2.515
24666SOL    HW275838   8.146   6.999   2.452
24667SOL     OW75839  13.117   1.410  14.704
24667SOL    HW175840  13.180   1.391  14.773
24667SOL    HW275841  13.042   1.449  14.750
24668SOL     OW75842  13.795   2.925   9.735
24668SOL    HW175843  13.837   2.849   9.776
24668SOL    HW275844  13.835   2.931   9.649
24669SOL     OW75845   7.375   9.891   3.934
24669SOL    HW175846   7.320   9.921   4.007
24669SOL    HW275847   7.344   9.801   3.917
24670SOL     OW75848   1.713  14.603   2.525
24670SOL    HW175849   1.726  14.693   2.494
24670SOL    HW275850   1.790  14.556   2.494
24671SOL     OW75851   3.676   3.376   6.131
24671SOL    HW175852   3.648   3.381   6.039
24671SOL    HW275853   3.755   3.429   6.134
24672SOL     OW75854   7.158   0.043   1.404
24672SOL    HW175855   7.066   0.068   1.395
24672SOL    HW275856   7.157  14.842   1.455
24673SOL     OW75857  12.986   1.236  10.686
24673SOL    HW175858  13.042   1.290  10.742
24673SOL    HW275859  12.970   1.289  10.609
24674SOL     OW75860   6.141  13.172  11.004
24674SOL    HW175861   6.118  13.260  11.032
24674SOL    HW275862   6.230  13.181  10.968
24675SOL     OW75863  14.488   4.376  10.790
24675SOL    HW175864  14.418   4.359  10.727
24675SOL    HW275865  14.551   4.305  10.776
24676SOL     OW75866   5.139  10.533   2.247
24676SOL    HW175867   5.198  10.489   2.185
24676SOL    HW275868   5.072  10.572   2.192
24677SOL     OW75869   8.969  10.114   5.004
24677SOL    HW175870   9.002  10.047   4.944
24677SOL    HW275871   8.880  10.132   4.973
24678SOL     OW75872  10.223   3.141   3.385
24678SOL    HW175873  10.209   3.144   3.480
24678SOL    HW275874  10.254   3.051   3.369
24679SOL     OW75875   7.262   1.447   4.930
24679SOL    HW175876   7.234   1.436   5.021
24679SOL    HW275877   7.215   1.525   4.900
24680SOL     OW75878   7.595   0.073  13.895
24680SOL    HW175879   7.555   0.154  13.863
24680SOL    HW275880   7.535   0.004  13.867
24681SOL     OW75881   3.486   0.436  12.315
24681SOL    HW175882   3.575   0.436  12.279
24681SOL    HW275883   3.438   0.373  12.261
24682SOL     OW75884   8.680   8.650   1.651
24682SOL    HW175885   8.635   8.578   1.693
24682SOL    HW275886   8.767   8.616   1.630
24683SOL     OW75887  14.111   7.654   8.466
24683SOL    HW175888  14.124   7.697   8.382
24683SOL    HW275889  14.021   7.621   8.463
24684SOL     OW75890   9.781  12.274   2.744
24684SOL    HW175891   9.686  12.290   2.743
24684SOL    HW275892   9.804  12.261   2.652
24685SOL     OW75893   1.931   2.846   9.929
24685SOL    HW175894   1.911   2.894  10.009
24685SOL    HW275895   1.902   2.904   9.859
24686SOL     OW75896  10.212   1.260   2.755
24686SOL    HW175897  10.166   1.335   2.717
24686SOL    HW275898  10.219   1.282   2.848
24687SOL     OW75899   1.789   0.828   4.993
24687SOL    HW175900   1.722   0.809   5.058
24687SOL    HW275901   1.871   0.832   5.042
24688SOL     OW75902  12.919   5.485   7.277
24688SOL    HW175903  12.926   5.406   7.225
24688SOL    HW275904  12.828   5.511   7.269
24689SOL     OW75905  12.487  14.501   5.653
24689SOL    HW175906  12.561  14.536   5.603
24689SOL    HW275907  12.488  14.407   5.634
24690SOL     OW75908   6.599  10.093   2.495
24690SOL    HW175909   6.674  10.143   2.528
24690SOL    HW275910   6.528  10.112   2.557
24691SOL     OW75911   8.277  10.233   5.268
24691SOL    HW175912   8.183  10.237   5.250
24691SOL    HW275913   8.302  10.324   5.284
24692SOL     OW75914   9.191   9.542   6.195
24692SOL    HW175915   9.283   9.536   6.170
24692SOL    HW275916   9.182   9.629   6.233
24693SOL     OW75917   2.352   5.527   1.459
24693SOL    HW175918   2.385   5.472   1.387
24693SOL    HW275919   2.277   5.574   1.421
24694SOL     OW75920   1.688   9.891  13.752
24694SOL    HW175921   1.627   9.843  13.697
24694SOL    HW275922   1.687   9.980  13.717
24695SOL     OW75923   1.134   5.637  11.370
24695SOL    HW175924   1.066   5.580  11.334
24695SOL    HW275925   1.199   5.576  11.407
24696SOL     OW75926   1.566  11.808   3.644
24696SOL    HW175927   1.554  11.720   3.681
24696SOL    HW275928   1.511  11.808   3.566
24697SOL     OW75929   4.037   2.618  12.035
24697SOL    HW175930   3.973   2.653  11.972
24697SOL    HW275931   3.990   2.549  12.082
24698SOL     OW75932  13.296  12.510   8.942
24698SOL    HW175933  13.225  12.483   9.000
24698SOL    HW275934  13.362  12.547   9.000
24699SOL     OW75935  10.914   8.297   1.467
24699SOL    HW175936  10.891   8.252   1.548
24699SOL    HW275937  10.965   8.373   1.495
24700SOL     OW75938   4.982   0.852   0.927
24700SOL    HW175939   4.926   0.899   0.865
24700SOL    HW275940   5.054   0.819   0.874
24701SOL     OW75941   5.326   8.664   6.873
24701SOL    HW175942   5.412   8.646   6.834
24701SOL    HW275943   5.266   8.665   6.799
24702SOL     OW75944   9.935  11.149   0.865
24702SOL    HW175945   9.930  11.094   0.786
24702SOL    HW275946   9.991  11.100   0.925
24703SOL     OW75947  10.919   4.949   8.668
24703SOL    HW175948  10.914   4.858   8.698
24703SOL    HW275949  10.827   4.975   8.657
24704SOL     OW75950   3.111  13.183   3.238
24704SOL    HW175951   3.124  13.256   3.299
24704SOL    HW275952   3.156  13.109   3.278
24705SOL     OW75953   8.623   7.208  12.604
24705SOL    HW175954   8.626   7.148  12.529
24705SOL    HW275955   8.713   7.239  12.614
24706SOL     OW75956  13.032   0.040   0.217
24706SOL    HW175957  13.128   0.044   0.215
24706SOL    HW275958  13.006   0.072   0.130
24707SOL     OW75959  11.072  12.337  14.087
24707SOL    HW175960  11.076  12.312  13.995
24707SOL    HW275961  11.160  12.371  14.106
24708SOL     OW75962  11.918   3.767  13.315
24708SOL    HW175963  11.978   3.761  13.241
24708SOL    HW275964  11.833   3.789  13.276
24709SOL     OW75965   4.536   0.623  11.675
24709SOL    HW175966   4.452   0.577  11.681
24709SOL    HW275967   4.602   0.554  11.669
24710SOL     OW75968   2.378   1.379  13.209
24710SOL    HW175969   2.389   1.288  13.182
24710SOL    HW275970   2.373   1.376  13.305
24711SOL     OW75971  10.085   8.140  10.787
24711SOL    HW175972  10.171   8.116  10.753
24711SOL    HW275973  10.044   8.190  10.717
24712SOL     OW75974   8.790   2.989   3.723
24712SOL    HW175975   8.739   3.068   3.706
24712SOL    HW275976   8.754   2.956   3.806
24713SOL     OW75977  12.476  14.047   6.436
24713SOL    HW175978  12.460  14.133   6.474
24713SOL    HW275979  12.516  14.065   6.351
24714SOL     OW75980   3.789   1.316  12.269
24714SOL    HW175981   3.758   1.390  12.321
24714SOL    HW275982   3.806   1.247  12.332
24715SOL     OW75983   0.727   1.557   0.657
24715SOL    HW175984   0.820   1.560   0.681
24715SOL    HW275985   0.721   1.610   0.577
24716SOL     OW75986   4.480  13.571   9.466
24716SOL    HW175987   4.401  13.588   9.415
24716SOL    HW275988   4.498  13.478   9.453
24717SOL     OW75989   6.956   8.800   3.015
24717SOL    HW175990   6.982   8.709   3.027
24717SOL    HW275991   6.866   8.804   3.047
24718SOL     OW75992  11.268  11.746   7.722
24718SOL    HW175993  11.319  11.701   7.790
24718SOL    HW275994  11.226  11.819   7.767
24719SOL     OW75995  11.754   6.811  13.170
24719SOL    HW175996  11.741   6.739  13.107
24719SOL    HW275997  11.835   6.788  13.216
24720SOL     OW75998   3.839   4.092   2.589
24720SOL    HW175999   3.830   4.002   2.558
24720SOL    HW276000   3.755   4.133   2.570
24721SOL     OW76001   4.741  10.500   2.249
24721SOL    HW176002   4.720  10.425   2.193
24721SOL    HW276003   4.817  10.471   2.299
24722SOL     OW76004  10.637   3.209   4.587
24722SOL    HW176005  10.618   3.245   4.674
24722SOL    HW276006  10.716   3.156   4.599
24723SOL     OW76007   1.209   7.210   4.156
24723SOL    HW176008   1.193   7.146   4.225
24723SOL    HW276009   1.260   7.162   4.090
24724SOL     OW76010   8.500  12.081   6.880
24724SOL    HW176011   8.464  11.992   6.884
24724SOL    HW276012   8.426  12.138   6.899
24725SOL     OW76013  13.661  10.389  14.142
24725SOL    HW176014  13.623  10.402  14.228
24725SOL    HW276015  13.704  10.472  14.122
24726SOL     OW76016   4.840   3.337  14.074
24726SOL    HW176017   4.844   3.384  14.157
24726SOL    HW276018   4.748   3.342  14.048
24727SOL     OW76019  11.846  14.658   8.892
24727SOL    HW176020  11.791  14.673   8.969
24727SOL    HW276021  11.814  14.576   8.855
24728SOL     OW76022  12.990   6.351  13.900
24728SOL    HW176023  13.035   6.396  13.971
24728SOL    HW276024  12.976   6.419  13.834
24729SOL     OW76025   1.920  11.094   6.644
24729SOL    HW176026   1.925  11.115   6.551
24729SOL    HW276027   1.837  11.132   6.673
24730SOL     OW76028   9.644   0.593   8.694
24730SOL    HW176029   9.635   0.499   8.712
24730SOL    HW276030   9.602   0.605   8.609
24731SOL     OW76031   1.550   5.804   6.858
24731SOL    HW176032   1.527   5.846   6.775
24731SOL    HW276033   1.626   5.750   6.837
24732SOL     OW76034   4.551   3.657   2.759
24732SOL    HW176035   4.587   3.577   2.797
24732SOL    HW276036   4.626   3.716   2.751
24733SOL     OW76037   2.453   3.319   4.962
24733SOL    HW176038   2.537   3.283   4.932
24733SOL    HW276039   2.431   3.266   5.039
24734SOL     OW76040  14.520   4.568  14.862
24734SOL    HW176041  14.533   4.637   0.047
24734SOL    HW276042  14.604   4.561  14.817
24735SOL     OW76043   1.857   1.208  14.024
24735SOL    HW176044   1.798   1.235  14.095
24735SOL    HW276045   1.890   1.123  14.052
24736SOL     OW76046   2.020  13.469   6.420
24736SOL    HW176047   2.005  13.375   6.424
24736SOL    HW276048   1.933  13.507   6.413
24737SOL     OW76049   0.134   7.333  13.610
24737SOL    HW176050   0.059   7.367  13.659
24737SOL    HW276051   0.130   7.379  13.526
24738SOL     OW76052   8.502   9.954   2.699
24738SOL    HW176053   8.435  10.021   2.688
24738SOL    HW276054   8.503   9.935   2.792
24739SOL     OW76055   2.227   3.456  13.285
24739SOL    HW176056   2.285   3.466  13.360
24739SOL    HW276057   2.271   3.393  13.229
24740SOL     OW76058   3.087   4.620   6.811
24740SOL    HW176059   3.101   4.538   6.858
24740SOL    HW276060   3.166   4.672   6.829
24741SOL     OW76061   1.278  10.433  13.336
24741SOL    HW176062   1.239  10.482  13.264
24741SOL    HW276063   1.205  10.389  13.379
24742SOL     OW76064   8.598   1.920   7.307
24742SOL    HW176065   8.672   1.911   7.367
24742SOL    HW276066   8.522   1.890   7.357
24743SOL     OW76067   5.590   1.341   9.138
24743SOL    HW176068   5.592   1.379   9.225
24743SOL    HW276069   5.641   1.260   9.146
24744SOL     OW76070   7.303   1.095   2.638
24744SOL    HW176071   7.287   1.188   2.623
24744SOL    HW276072   7.226   1.065   2.687
24745SOL     OW76073   2.439   3.201   5.219
24745SOL    HW176074   2.471   3.113   5.238
24745SOL    HW276075   2.377   3.220   5.289
24746SOL     OW76076   4.830  14.418   2.765
24746SOL    HW176077   4.861  14.328   2.774
24746SOL    HW276078   4.801  14.425   2.674
24747SOL     OW76079  10.657  14.461   5.721
24747SOL    HW176080  10.585  14.512   5.684
24747SOL    HW276081  10.688  14.406   5.650
24748SOL     OW76082  13.548   4.964   3.716
24748SOL    HW176083  13.481   4.990   3.652
24748SOL    HW276084  13.603   5.042   3.726
24749SOL     OW76085   0.242  11.097   9.728
24749SOL    HW176086   0.280  11.009   9.724
24749SOL    HW276087   0.152  11.083   9.757
24750SOL     OW76088   2.748   7.170   5.498
24750SOL    HW176089   2.748   7.203   5.588
24750SOL    HW276090   2.694   7.232   5.449
24751SOL     OW76091  12.445   5.023   4.316
24751SOL    HW176092  12.350   5.015   4.306
24751SOL    HW276093  12.480   4.941   4.283
24752SOL     OW76094  10.897   8.386  14.486
24752SOL    HW176095  10.810   8.394  14.448
24752SOL    HW276096  10.956   8.422  14.420
24753SOL     OW76097   9.836  14.707   2.411
24753SOL    HW176098   9.904  14.696   2.478
24753SOL    HW276099   9.820  14.619   2.378
24754SOL     OW76100   3.008  12.220  13.589
24754SOL    HW176101   2.980  12.258  13.672
24754SOL    HW276102   3.059  12.290  13.547
24755SOL     OW76103   7.922   4.993  13.515
24755SOL    HW176104   7.883   5.013  13.600
24755SOL    HW276105   7.987   4.925  13.535
24756SOL     OW76106  13.852   7.952  12.971
24756SOL    HW176107  13.858   7.970  13.065
24756SOL    HW276108  13.943   7.955  12.941
24757SOL     OW76109   9.608   2.323   7.257
24757SOL    HW176110   9.665   2.380   7.206
24757SOL    HW276111   9.520   2.345   7.227
24758SOL     OW76112  12.013   4.330  14.569
24758SOL    HW176113  11.921   4.323  14.592
24758SOL    HW276114  12.014   4.370  14.482
24759SOL     OW76115  10.152   2.531   3.976
24759SOL    HW176116  10.117   2.462   3.919
24759SOL    HW276117  10.190   2.595   3.916
24760SOL     OW76118   8.002   0.598   7.532
24760SOL    HW176119   7.973   0.601   7.441
24760SOL    HW276120   8.007   0.690   7.559
24761SOL     OW76121   2.471  13.493   4.868
24761SOL    HW176122   2.504  13.530   4.950
24761SOL    HW276123   2.455  13.401   4.888
24762SOL     OW76124   3.832  12.274   7.403
24762SOL    HW176125   3.815  12.368   7.395
24762SOL    HW276126   3.912  12.259   7.353
24763SOL     OW76127   6.737   1.003  14.826
24763SOL    HW176128   6.810   0.978   0.003
24763SOL    HW276129   6.667   0.940  14.848
24764SOL     OW76130  12.194   8.411   6.110
24764SOL    HW176131  12.217   8.336   6.055
24764SOL    HW276132  12.275   8.462   6.114
24765SOL     OW76133  13.001   9.982  12.431
24765SOL    HW176134  12.967   9.954  12.346
24765SOL    HW276135  13.094   9.959  12.428
24766SOL     OW76136   4.266   0.867   5.142
24766SOL    HW176137   4.194   0.852   5.203
24766SOL    HW276138   4.328   0.796   5.160
24767SOL     OW76139  12.642   9.309   4.103
24767SOL    HW176140  12.636   9.297   4.198
24767SOL    HW276141  12.699   9.238   4.074
24768SOL     OW76142   9.792   6.995  14.436
24768SOL    HW176143   9.790   7.017  14.343
24768SOL    HW276144   9.750   7.070  14.479
24769SOL     OW76145   2.745   1.286  12.102
24769SOL    HW176146   2.699   1.353  12.152
24769SOL    HW276147   2.710   1.203  12.135
24770SOL     OW76148  11.901   9.758   6.296
24770SOL    HW176149  11.878   9.682   6.350
24770SOL    HW276150  11.952   9.721   6.224
24771SOL     OW76151   1.155   9.688   9.849
24771SOL    HW176152   1.094   9.752   9.886
24771SOL    HW276153   1.220   9.741   9.802
24772SOL     OW76154   4.915  14.723   7.489
24772SOL    HW176155   4.878  14.665   7.556
24772SOL    HW276156   4.861  14.801   7.492
24773SOL     OW76157   5.392  11.655   3.007
24773SOL    HW176158   5.341  11.687   2.933
24773SOL    HW276159   5.326  11.631   3.072
24774SOL     OW76160   8.083  12.342   1.911
24774SOL    HW176161   8.167  12.370   1.876
24774SOL    HW276162   8.096  12.250   1.934
24775SOL     OW76163  13.696  11.140   5.082
24775SOL    HW176164  13.686  11.226   5.041
24775SOL    HW276165  13.753  11.155   5.157
24776SOL     OW76166   3.370   0.064   5.704
24776SOL    HW176167   3.294   0.122   5.695
24776SOL    HW276168   3.373   0.043   5.797
24777SOL     OW76169  14.255   6.469   0.385
24777SOL    HW176170  14.328   6.438   0.439
24777SOL    HW276171  14.296   6.530   0.323
24778SOL     OW76172  13.856  14.256   7.994
24778SOL    HW176173  13.928  14.193   7.999
24778SOL    HW276174  13.808  14.244   8.075
24779SOL     OW76175  11.920   4.338   2.941
24779SOL    HW176176  11.930   4.423   2.983
24779SOL    HW276177  11.826   4.326   2.932
24780SOL     OW76178   1.099  13.858   9.523
24780SOL    HW176179   1.056  13.779   9.488
24780SOL    HW276180   1.027  13.910   9.558
24781SOL     OW76181  10.015  14.011   7.808
24781SOL    HW176182  10.102  14.027   7.772
24781SOL    HW276183   9.956  14.056   7.747
24782SOL     OW76184   5.013  10.424   9.905
24782SOL    HW176185   4.969  10.404   9.987
24782SOL    HW276186   5.088  10.478   9.930
24783SOL     OW76187  13.709  10.474  11.917
24783SOL    HW176188  13.693  10.550  11.861
24783SOL    HW276189  13.728  10.402  11.857
24784SOL     OW76190   0.814   8.041  11.521
24784SOL    HW176191   0.787   7.957  11.486
24784SOL    HW276192   0.736   8.077  11.562
24785SOL     OW76193   9.173  12.170  11.974
24785SOL    HW176194   9.121  12.222  11.913
24785SOL    HW276195   9.235  12.232  12.012
24786SOL     OW76196   6.105   0.687   7.881
24786SOL    HW176197   6.150   0.753   7.828
24786SOL    HW276198   6.012   0.709   7.872
24787SOL     OW76199  12.668   6.735   3.974
24787SOL    HW176200  12.591   6.737   3.917
24787SOL    HW276201  12.738   6.774   3.923
24788SOL     OW76202   7.289   6.664   9.820
24788SOL    HW176203   7.205   6.706   9.806
24788SOL    HW276204   7.341   6.728   9.869
24789SOL     OW76205  12.283   9.499   1.721
24789SOL    HW176206  12.321   9.457   1.644
24789SOL    HW276207  12.279   9.592   1.698
24790SOL     OW76208   2.321  12.248   9.188
24790SOL    HW176209   2.273  12.230   9.107
24790SOL    HW276210   2.283  12.188   9.253
24791SOL     OW76211  12.927  11.615   6.324
24791SOL    HW176212  12.841  11.574   6.334
24791SOL    HW276213  12.947  11.652   6.410
24792SOL     OW76214   0.684  11.839   1.055
24792SOL    HW176215   0.610  11.797   1.012
24792SOL    HW276216   0.760  11.787   1.029
24793SOL     OW76217   3.721   9.570   6.962
24793SOL    HW176218   3.645   9.545   6.909
24793SOL    HW276219   3.795   9.526   6.920
24794SOL     OW76220  11.828   5.557   4.506
24794SOL    HW176221  11.828   5.476   4.558
24794SOL    HW276222  11.737   5.567   4.479
24795SOL     OW76223   8.848   5.172   2.430
24795SOL    HW176224   8.895   5.090   2.446
24795SOL    HW276225   8.822   5.167   2.338
24796SOL     OW76226  10.526   7.843   6.728
24796SOL    HW176227  10.612   7.821   6.764
24796SOL    HW276228  10.473   7.764   6.741
24797SOL     OW76229   0.263   5.684  14.876
24797SOL    HW176230   0.347   5.730   0.004
24797SOL    HW276231   0.232   5.705  14.787
24798SOL     OW76232   8.519   4.006   4.674
24798SOL    HW176233   8.521   4.090   4.628
24798SOL    HW276234   8.593   4.010   4.734
24799SOL     OW76235  14.237   6.508   9.378
24799SOL    HW176236  14.296   6.499   9.454
24799SOL    HW276237  14.191   6.424   9.374
24800SOL     OW76238   7.893   1.205   8.583
24800SOL    HW176239   7.908   1.116   8.614
24800SOL    HW276240   7.881   1.197   8.489
24801SOL     OW76241   5.384  12.444   1.441
24801SOL    HW176242   5.409  12.369   1.386
24801SOL    HW276243   5.428  12.428   1.524
24802SOL     OW76244  14.532   6.213  13.307
24802SOL    HW176245  14.500   6.204  13.217
24802SOL    HW276246  14.598   6.282  13.302
24803SOL     OW76247   0.267  13.355   4.240
24803SOL    HW176248   0.171  13.353   4.234
24803SOL    HW276249   0.290  13.446   4.220
24804SOL     OW76250   7.198   0.098  13.124
24804SOL    HW176251   7.166   0.141  13.203
24804SOL    HW276252   7.191   0.005  13.142
24805SOL     OW76253   1.487   8.047   1.206
24805SOL    HW176254   1.455   8.110   1.142
24805SOL    HW276255   1.575   8.078   1.228
24806SOL     OW76256  13.604  12.129   8.541
24806SOL    HW176257  13.677  12.069   8.559
24806SOL    HW276258  13.607  12.192   8.613
24807SOL     OW76259   7.734  10.528  10.943
24807SOL    HW176260   7.641  10.520  10.962
24807SOL    HW276261   7.742  10.611  10.896
24808SOL     OW76262   5.264  11.360   3.136
24808SOL    HW176263   5.282  11.366   3.042
24808SOL    HW276264   5.231  11.447   3.160
24809SOL     OW76265  10.222  14.577   3.376
24809SOL    HW176266  10.255  14.496   3.415
24809SOL    HW276267  10.209  14.636   3.450
24810SOL     OW76268   6.752   9.186   1.061
24810SOL    HW176269   6.711   9.150   1.140
24810SOL    HW276270   6.773   9.276   1.083
24811SOL     OW76271  14.493   0.089  14.267
24811SOL    HW176272  14.496   0.161  14.204
24811SOL    HW276273  14.421   0.034  14.237
24812SOL     OW76274  12.677  12.325   5.002
24812SOL    HW176275  12.583  12.330   5.020
24812SOL    HW276276  12.687  12.249   4.945
24813SOL     OW76277  13.947   1.370   5.584
24813SOL    HW176278  13.959   1.427   5.509
24813SOL    HW276279  13.948   1.282   5.548
24814SOL     OW76280   3.962  13.679  12.629
24814SOL    HW176281   4.016  13.600  12.620
24814SOL    HW276282   3.964  13.720  12.542
24815SOL     OW76283   9.299   3.756   6.793
24815SOL    HW176284   9.227   3.819   6.795
24815SOL    HW276285   9.327   3.755   6.701
24816SOL     OW76286  13.810   6.122   8.715
24816SOL    HW176287  13.862   6.199   8.737
24816SOL    HW276288  13.783   6.086   8.799
24817SOL     OW76289  14.365  10.942   8.784
24817SOL    HW176290  14.275  10.935   8.815
24817SOL    HW276291  14.363  10.907   8.695
24818SOL     OW76292  12.075  12.664   2.471
24818SOL    HW176293  12.042  12.716   2.544
24818SOL    HW276294  12.050  12.714   2.393
24819SOL     OW76295  10.374   8.496  11.350
24819SOL    HW176296  10.467   8.502  11.372
24819SOL    HW276297  10.340   8.585  11.362
24820SOL     OW76298   0.264   2.102  11.060
24820SOL    HW176299   0.274   2.166  10.990
24820SOL    HW276300   0.323   2.133  11.129
24821SOL     OW76301  12.942   5.982   2.650
24821SOL    HW176302  12.944   6.030   2.733
24821SOL    HW276303  12.849   5.976   2.628
24822SOL     OW76304   1.344   1.067  12.491
24822SOL    HW176305   1.309   1.154  12.475
24822SOL    HW276306   1.267   1.013  12.507
24823SOL     OW76307   2.110   7.305   3.392
24823SOL    HW176308   2.194   7.351   3.388
24823SOL    HW276309   2.084   7.296   3.300
24824SOL     OW76310  10.598   4.150  12.511
24824SOL    HW176311  10.658   4.129  12.582
24824SOL    HW276312  10.516   4.175  12.555
24825SOL     OW76313   0.752   0.101   2.366
24825SOL    HW176314   0.740   0.136   2.455
24825SOL    HW276315   0.666   0.067   2.342
24826SOL     OW76316   5.729  13.410   5.875
24826SOL    HW176317   5.718  13.491   5.825
24826SOL    HW276318   5.821  13.409   5.900
24827SOL     OW76319  11.237  14.751   7.990
24827SOL    HW176320  11.295  14.778   7.919
24827SOL    HW276321  11.288  14.764   8.069
24828SOL     OW76322   1.442  11.727  10.003
24828SOL    HW176323   1.489  11.665  10.059
24828SOL    HW276324   1.370  11.759  10.057
24829SOL     OW76325   1.093   8.505   7.076
24829SOL    HW176326   1.061   8.435   7.018
24829SOL    HW276327   1.117   8.459   7.157
24830SOL     OW76328  10.441   9.044   3.938
24830SOL    HW176329  10.347   9.055   3.955
24830SOL    HW276330  10.459   8.953   3.964
24831SOL     OW76331  12.654   6.196   8.438
24831SOL    HW176332  12.697   6.186   8.523
24831SOL    HW276333  12.566   6.225   8.458
24832SOL     OW76334  10.475  14.102  12.573
24832SOL    HW176335  10.394  14.143  12.605
24832SOL    HW276336  10.461  14.008  12.584
24833SOL     OW76337   3.909   3.137   1.829
24833SOL    HW176338   3.985   3.179   1.788
24833SOL    HW276339   3.904   3.051   1.789
24834SOL     OW76340  12.869   2.700  11.969
24834SOL    HW176341  12.779   2.675  11.949
24834SOL    HW276342  12.894   2.758  11.897
24835SOL     OW76343   1.118  10.834   2.510
24835SOL    HW176344   1.063  10.902   2.471
24835SOL    HW276345   1.060  10.788   2.571
24836SOL     OW76346  10.795   5.718   8.385
24836SOL    HW176347  10.734   5.670   8.330
24836SOL    HW276348  10.777   5.810   8.366
24837SOL     OW76349   1.759  14.806   9.693
24837SOL    HW176350   1.849  14.804   9.658
24837SOL    HW276351   1.768  14.770   9.781
24838SOL     OW76352   9.769   1.164   1.666
24838SOL    HW176353   9.709   1.231   1.633
24838SOL    HW276354   9.837   1.214   1.712
24839SOL     OW76355   2.084   7.116   9.626
24839SOL    HW176356   2.076   7.029   9.666
24839SOL    HW276357   1.995   7.151   9.628
24840SOL     OW76358   2.812   0.976   5.496
24840SOL    HW176359   2.813   1.063   5.537
24840SOL    HW276360   2.789   0.916   5.567
24841SOL     OW76361  11.973   8.368   7.038
24841SOL    HW176362  11.946   8.418   6.961
24841SOL    HW276363  11.908   8.299   7.046
24842SOL     OW76364  11.172  10.177   9.056
24842SOL    HW176365  11.151  10.135   8.973
24842SOL    HW276366  11.106  10.244   9.067
24843SOL     OW76367   1.389   8.798   9.398
24843SOL    HW176368   1.391   8.880   9.349
24843SOL    HW276369   1.475   8.759   9.384
24844SOL     OW76370  14.827   4.684  12.218
24844SOL    HW176371   0.014   4.616  12.219
24844SOL    HW276372  14.749   4.642  12.253
24845SOL     OW76373   2.593   7.525   9.960
24845SOL    HW176374   2.607   7.507  10.053
24845SOL    HW276375   2.681   7.533   9.924
24846SOL     OW76376   5.456   8.398  12.164
24846SOL    HW176377   5.419   8.482  12.137
24846SOL    HW276378   5.517   8.375  12.095
24847SOL     OW76379   9.420   1.336  14.709
24847SOL    HW176380   9.439   1.344  14.615
24847SOL    HW276381   9.494   1.286  14.744
24848SOL     OW76382   0.684   6.377   8.070
24848SOL    HW176383   0.656   6.384   8.161
24848SOL    HW276384   0.627   6.310   8.032
24849SOL     OW76385   9.205  12.307   8.630
24849SOL    HW176386   9.188  12.355   8.549
24849SOL    HW276387   9.291  12.337   8.659
24850SOL     OW76388   5.072  12.838  10.241
24850SOL    HW176389   5.118  12.813  10.321
24850SOL    HW276390   5.120  12.793  10.171
24851SOL     OW76391   6.320  10.742   5.435
24851SOL    HW176392   6.383  10.682   5.395
24851SOL    HW276393   6.284  10.791   5.361
24852SOL     OW76394   3.322  12.104  11.351
24852SOL    HW176395   3.394  12.087  11.411
24852SOL    HW276396   3.321  12.200  11.342
24853SOL     OW76397   5.345   0.152   4.959
24853SOL    HW176398   5.406   0.102   5.013
24853SOL    HW276399   5.262   0.103   4.965
24854SOL     OW76400   0.404   6.925   4.066
24854SOL    HW176401   0.362   6.992   4.013
24854SOL    HW276402   0.354   6.845   4.047
24855SOL     OW76403  10.555   4.460   2.119
24855SOL    HW176404  10.468   4.425   2.103
24855SOL    HW276405  10.581   4.500   2.036
24856SOL     OW76406   8.243  13.991   9.931
24856SOL    HW176407   8.203  14.040  10.003
24856SOL    HW276408   8.287  13.918   9.974
24857SOL     OW76409   7.364  13.646   4.656
24857SOL    HW176410   7.427  13.606   4.715
24857SOL    HW276411   7.358  13.737   4.685
24858SOL     OW76412   7.999  10.352  13.745
24858SOL    HW176413   7.994  10.323  13.653
24858SOL    HW276414   8.033  10.442  13.740
24859SOL     OW76415   4.906   8.426   3.349
24859SOL    HW176416   4.974   8.362   3.329
24859SOL    HW276417   4.919   8.448   3.441
24860SOL     OW76418   8.665   5.794   7.994
24860SOL    HW176419   8.755   5.763   7.983
24860SOL    HW276420   8.661   5.875   7.941
24861SOL     OW76421  14.591   4.220   3.226
24861SOL    HW176422  14.641   4.139   3.236
24861SOL    HW276423  14.603   4.244   3.135
24862SOL     OW76424   4.284  14.006   8.538
24862SOL    HW176425   4.363  13.972   8.495
24862SOL    HW276426   4.232  13.928   8.557
24863SOL     OW76427   9.957  10.666   5.552
24863SOL    HW176428  10.003  10.679   5.634
24863SOL    HW276429   9.890  10.600   5.572
24864SOL     OW76430   8.402  10.272   3.082
24864SOL    HW176431   8.307  10.276   3.093
24864SOL    HW276432   8.415  10.267   2.988
24865SOL     OW76433   9.327   8.726   7.118
24865SOL    HW176434   9.255   8.771   7.162
24865SOL    HW276435   9.290   8.695   7.035
24866SOL     OW76436   3.874  11.768   6.368
24866SOL    HW176437   3.946  11.832   6.375
24866SOL    HW276438   3.811  11.796   6.434
24867SOL     OW76439   2.925   6.621  12.660
24867SOL    HW176440   3.014   6.590  12.644
24867SOL    HW276441   2.880   6.546  12.700
24868SOL     OW76442  12.425   6.007   9.753
24868SOL    HW176443  12.358   5.970   9.696
24868SOL    HW276444  12.376   6.054   9.820
24869SOL     OW76445  13.808   0.398  11.530
24869SOL    HW176446  13.870   0.471  11.540
24869SOL    HW276447  13.752   0.403  11.607
24870SOL     OW76448  12.420   6.354   0.457
24870SOL    HW176449  12.481   6.295   0.502
24870SOL    HW276450  12.334   6.328   0.489
24871SOL     OW76451   9.881   0.023   1.789
24871SOL    HW176452   9.914   0.109   1.763
24871SOL    HW276453   9.940  14.874   1.858
24872SOL     OW76454   3.486   9.606  10.472
24872SOL    HW176455   3.463   9.539  10.408
24872SOL    HW276456   3.579   9.592  10.489
24873SOL     OW76457   1.717   7.152   4.759
24873SOL    HW176458   1.652   7.127   4.693
24873SOL    HW276459   1.720   7.247   4.755
24874SOL     OW76460   1.055  13.347   1.417
24874SOL    HW176461   1.018  13.382   1.337
24874SOL    HW276462   1.052  13.252   1.406
24875SOL     OW76463   0.949   3.038   6.218
24875SOL    HW176464   0.944   3.094   6.295
24875SOL    HW276465   0.860   3.004   6.208
24876SOL     OW76466   4.332  11.355   7.328
24876SOL    HW176467   4.309  11.406   7.250
24876SOL    HW276468   4.249  11.328   7.365
24877SOL     OW76469  10.767  12.237  11.939
24877SOL    HW176470  10.805  12.318  11.907
24877SOL    HW276471  10.756  12.251  12.033
24878SOL     OW76472   5.718   8.737   2.430
24878SOL    HW176473   5.737   8.648   2.401
24878SOL    HW276474   5.735   8.791   2.353
24879SOL     OW76475  11.349   3.840   8.634
24879SOL    HW176476  11.358   3.753   8.673
24879SOL    HW276477  11.416   3.844   8.566
24880SOL     OW76478   5.915  11.060  11.424
24880SOL    HW176479   6.003  11.023  11.428
24880SOL    HW276480   5.857  10.984  11.423
24881SOL     OW76481  14.019   1.238   6.448
24881SOL    HW176482  13.978   1.273   6.528
24881SOL    HW276483  14.075   1.309   6.418
24882SOL     OW76484   8.444  14.402   9.814
24882SOL    HW176485   8.468  14.463   9.745
24882SOL    HW276486   8.453  14.452   9.895
24883SOL     OW76487   5.258   4.799   9.940
24883SOL    HW176488   5.170   4.800   9.903
24883SOL    HW276489   5.245   4.775  10.032
24884SOL     OW76490   5.893   2.866  12.627
24884SOL    HW176491   5.903   2.925  12.701
24884SOL    HW276492   5.934   2.911  12.553
24885SOL     OW76493   5.361   8.509   6.001
24885SOL    HW176494   5.442   8.494   6.049
24885SOL    HW276495   5.326   8.421   5.984
24886SOL     OW76496   5.561   5.889  14.764
24886SOL    HW176497   5.648   5.849  14.756
24886SOL    HW276498   5.510   5.824  14.813
24887SOL     OW76499   7.614   5.270   9.933
24887SOL    HW176500   7.702   5.281   9.969
24887SOL    HW276501   7.609   5.333   9.861
24888SOL     OW76502  10.493   9.439   5.806
24888SOL    HW176503  10.476   9.351   5.771
24888SOL    HW276504  10.411   9.487   5.793
24889SOL     OW76505  10.912   4.495   7.133
24889SOL    HW176506  10.993   4.446   7.150
24889SOL    HW276507  10.843   4.438   7.167
24890SOL     OW76508   0.745   5.907   2.458
24890SOL    HW176509   0.768   5.983   2.404
24890SOL    HW276510   0.829   5.872   2.487
24891SOL     OW76511   8.209   5.453   4.548
24891SOL    HW176512   8.201   5.474   4.641
24891SOL    HW276513   8.268   5.377   4.546
24892SOL     OW76514   7.485   2.739   5.882
24892SOL    HW176515   7.523   2.766   5.798
24892SOL    HW276516   7.391   2.756   5.872
24893SOL     OW76517   3.382  14.187   9.622
24893SOL    HW176518   3.408  14.122   9.558
24893SOL    HW276519   3.305  14.150   9.665
24894SOL     OW76520  10.475   0.834   2.645
24894SOL    HW176521  10.411   0.904   2.631
24894SOL    HW276522  10.560   0.878   2.636
24895SOL     OW76523   7.946  11.625   2.795
24895SOL    HW176524   8.001  11.699   2.770
24895SOL    HW276525   7.949  11.567   2.720
24896SOL     OW76526   4.085   1.722   4.008
24896SOL    HW176527   4.163   1.685   3.968
24896SOL    HW276528   4.106   1.729   4.101
24897SOL     OW76529   4.283   0.682   9.691
24897SOL    HW176530   4.291   0.712   9.781
24897SOL    HW276531   4.222   0.744   9.650
24898SOL     OW76532   5.838   9.526   0.948
24898SOL    HW176533   5.932   9.510   0.957
24898SOL    HW276534   5.819   9.595   1.011
24899SOL     OW76535   8.252   8.024   2.545
24899SOL    HW176536   8.208   7.977   2.616
24899SOL    HW276537   8.295   8.097   2.588
24900SOL     OW76538   8.240  10.003   9.091
24900SOL    HW176539   8.230  10.096   9.114
24900SOL    HW276540   8.202   9.956   9.165
24901SOL     OW76541   6.542   1.800   2.517
24901SOL    HW176542   6.559   1.773   2.426
24901SOL    HW276543   6.526   1.894   2.512
24902SOL     OW76544   4.168   6.929   4.798
24902SOL    HW176545   4.200   6.913   4.887
24902SOL    HW276546   4.158   6.842   4.760
24903SOL     OW76547   7.088  13.729   6.782
24903SOL    HW176548   7.067  13.784   6.857
24903SOL    HW276549   7.003  13.711   6.741
24904SOL     OW76550   8.232   9.511   1.259
24904SOL    HW176551   8.195   9.440   1.312
24904SOL    HW276552   8.304   9.545   1.312
24905SOL     OW76553  11.267   7.737   9.495
24905SOL    HW176554  11.263   7.682   9.573
24905SOL    HW276555  11.294   7.678   9.425
24906SOL     OW76556  10.065  13.002   6.970
24906SOL    HW176557  10.049  12.983   6.878
24906SOL    HW276558   9.979  13.002   7.010
24907SOL     OW76559   7.076  13.381   7.286
24907SOL    HW176560   7.023  13.306   7.313
24907SOL    HW276561   7.012  13.443   7.251
24908SOL     OW76562  11.546  10.748  12.723
24908SOL    HW176563  11.537  10.681  12.791
24908SOL    HW276564  11.524  10.702  12.642
24909SOL     OW76565  14.361   7.891   0.042
24909SOL    HW176566  14.409   7.943   0.107
24909SOL    HW276567  14.298   7.840   0.094
24910SOL     OW76568   8.660   9.068  11.710
24910SOL    HW176569   8.648   9.141  11.771
24910SOL    HW276570   8.603   9.088  11.636
24911SOL     OW76571  13.612  13.144   2.395
24911SOL    HW176572  13.669  13.170   2.323
24911SOL    HW276573  13.530  13.191   2.379
24912SOL     OW76574   9.095  14.030   8.268
24912SOL    HW176575   9.028  14.094   8.292
24912SOL    HW276576   9.176  14.066   8.303
24913SOL     OW76577   8.763   8.472   9.090
24913SOL    HW176578   8.712   8.395   9.115
24913SOL    HW276579   8.854   8.443   9.091
24914SOL     OW76580   7.844   7.381  13.743
24914SOL    HW176581   7.833   7.439  13.818
24914SOL    HW276582   7.857   7.439  13.668
24915SOL     OW76583   0.364  12.083   8.056
24915SOL    HW176584   0.370  12.155   7.992
24915SOL    HW276585   0.337  12.126   8.137
24916SOL     OW76586   8.249   1.760  11.644
24916SOL    HW176587   8.159   1.770  11.672
24916SOL    HW276588   8.301   1.792  11.718
24917SOL     OW76589   9.152   1.890   9.677
24917SOL    HW176590   9.155   1.850   9.590
24917SOL    HW276591   9.177   1.981   9.663
24918SOL     OW76592   3.671  11.254   9.457
24918SOL    HW176593   3.749  11.197   9.462
24918SOL    HW276594   3.597  11.194   9.464
24919SOL     OW76595   9.903   6.880  11.888
24919SOL    HW176596   9.920   6.971  11.910
24919SOL    HW276597   9.808   6.871  11.893
24920SOL     OW76598   0.686  14.759   6.024
24920SOL    HW176599   0.614  14.811   6.061
24920SOL    HW276600   0.687  14.782   5.931
24921SOL     OW76601   7.233   4.776   1.181
24921SOL    HW176602   7.277   4.731   1.109
24921SOL    HW276603   7.291   4.762   1.256
24922SOL     OW76604  10.977  13.064   2.252
24922SOL    HW176605  10.931  13.140   2.287
24922SOL    HW276606  11.060  13.099   2.220
24923SOL     OW76607  14.828   9.999   5.289
24923SOL    HW176608  14.788  10.002   5.376
24923SOL    HW276609   0.028  10.052   5.297
24924SOL     OW76610   8.989   4.693  11.401
24924SOL    HW176611   9.035   4.723  11.479
24924SOL    HW276612   9.040   4.618  11.370
24925SOL     OW76613   6.181   2.236   1.504
24925SOL    HW176614   6.160   2.320   1.462
24925SOL    HW276615   6.163   2.171   1.436
24926SOL     OW76616   3.951  13.771  12.866
24926SOL    HW176617   3.950  13.745  12.774
24926SOL    HW276618   3.938  13.866  12.865
24927SOL     OW76619  13.008   6.000  12.513
24927SOL    HW176620  12.945   6.071  12.520
24927SOL    HW276621  12.954   5.921  12.511
24928SOL     OW76622   7.141   2.817   9.005
24928SOL    HW176623   7.103   2.853   9.085
24928SOL    HW276624   7.215   2.763   9.035
24929SOL     OW76625   3.432   0.480   9.208
24929SOL    HW176626   3.380   0.410   9.169
24929SOL    HW276627   3.478   0.520   9.135
24930SOL     OW76628  11.115  11.561  11.581
24930SOL    HW176629  11.150  11.512  11.507
24930SOL    HW276630  11.190  11.609  11.617
24931SOL     OW76631   4.532   9.855  10.277
24931SOL    HW176632   4.463   9.916  10.301
24931SOL    HW276633   4.521   9.781  10.338
24932SOL     OW76634   2.295   9.281   9.072
24932SOL    HW176635   2.390   9.278   9.062
24932SOL    HW276636   2.261   9.298   8.984
24933SOL     OW76637  10.731  14.776  12.019
24933SOL    HW176638  10.818  14.784  11.981
24933SOL    HW276639  10.702  14.689  11.994
24934SOL     OW76640  14.228   1.044   2.699
24934SOL    HW176641  14.174   1.046   2.777
24934SOL    HW276642  14.172   1.081   2.630
24935SOL     OW76643   0.044  11.212  13.285
24935SOL    HW176644   0.101  11.228  13.210
24935SOL    HW276645   0.059  11.286  13.343
24936SOL     OW76646   1.477  14.578  11.611
24936SOL    HW176647   1.410  14.641  11.587
24936SOL    HW276648   1.432  14.493  11.610
24937SOL     OW76649  10.817   9.103  12.031
24937SOL    HW176650  10.886   9.110  12.098
24937SOL    HW276651  10.856   9.049  11.963
24938SOL     OW76652   1.483  12.935   4.138
24938SOL    HW176653   1.549  13.001   4.154
24938SOL    HW276654   1.522  12.876   4.074
24939SOL     OW76655  14.367   2.249   3.295
24939SOL    HW176656  14.335   2.290   3.376
24939SOL    HW276657  14.338   2.308   3.226
24940SOL     OW76658   4.564  10.533   1.597
24940SOL    HW176659   4.549  10.486   1.515
24940SOL    HW276660   4.482  10.580   1.612
24941SOL     OW76661   5.857   8.454  11.001
24941SOL    HW176662   5.777   8.503  11.023
24941SOL    HW276663   5.834   8.362  11.016
24942SOL     OW76664   9.597   9.329   7.656
24942SOL    HW176665   9.630   9.385   7.586
24942SOL    HW276666   9.521   9.376   7.691
24943SOL     OW76667   0.817   6.495  10.175
24943SOL    HW176668   0.806   6.530  10.087
24943SOL    HW276669   0.844   6.570  10.228
24944SOL     OW76670   2.035   7.285   1.036
24944SOL    HW176671   2.080   7.277   0.952
24944SOL    HW276672   1.954   7.331   1.016
24945SOL     OW76673  11.395   3.431  12.734
24945SOL    HW176674  11.357   3.437  12.822
24945SOL    HW276675  11.482   3.393  12.749
24946SOL     OW76676  12.590  12.226   7.502
24946SOL    HW176677  12.590  12.131   7.511
24946SOL    HW276678  12.506  12.254   7.538
24947SOL     OW76679  12.714   8.447  12.180
24947SOL    HW176680  12.664   8.437  12.261
24947SOL    HW276681  12.798   8.483  12.209
24948SOL     OW76682   7.679  12.453   9.661
24948SOL    HW176683   7.616  12.483   9.596
24948SOL    HW276684   7.754  12.421   9.610
24949SOL     OW76685   5.443   8.243   9.496
24949SOL    HW176686   5.422   8.166   9.550
24949SOL    HW276687   5.455   8.314   9.558
24950SOL     OW76688   2.965  12.081   3.343
24950SOL    HW176689   2.966  12.152   3.279
24950SOL    HW276690   3.008  12.008   3.298
24951SOL     OW76691  11.119  14.600  10.970
24951SOL    HW176692  11.137  14.657  10.896
24951SOL    HW276693  11.111  14.659  11.045
24952SOL     OW76694  13.401   5.712   7.506
24952SOL    HW176695  13.396   5.808   7.510
24952SOL    HW276696  13.419   5.685   7.596
24953SOL     OW76697  12.232   5.536   3.184
24953SOL    HW176698  12.290   5.527   3.108
24953SOL    HW276699  12.292   5.551   3.258
24954SOL     OW76700   4.058   8.203   5.860
24954SOL    HW176701   4.068   8.173   5.950
24954SOL    HW276702   4.097   8.133   5.807
24955SOL     OW76703   0.605   3.727  12.236
24955SOL    HW176704   0.525   3.758  12.278
24955SOL    HW276705   0.672   3.792  12.260
24956SOL     OW76706   3.013   5.856   2.054
24956SOL    HW176707   2.985   5.934   2.102
24956SOL    HW276708   2.961   5.785   2.092
24957SOL     OW76709  12.359  11.958   2.078
24957SOL    HW176710  12.345  11.881   2.134
24957SOL    HW276711  12.436  11.935   2.025
24958SOL     OW76712   0.605   2.493   0.285
24958SOL    HW176713   0.611   2.572   0.337
24958SOL    HW276714   0.695   2.472   0.261
24959SOL     OW76715   3.522  13.450  13.252
24959SOL    HW176716   3.492  13.502  13.177
24959SOL    HW276717   3.473  13.483  13.326
24960SOL     OW76718   8.057  10.483  10.136
24960SOL    HW176719   8.084  10.483  10.045
24960SOL    HW276720   8.137  10.464  10.185
24961SOL     OW76721   8.733   6.094   9.271
24961SOL    HW176722   8.668   6.081   9.202
24961SOL    HW276723   8.803   6.144   9.230
24962SOL     OW76724   5.933  12.015  13.613
24962SOL    HW176725   5.921  11.984  13.703
24962SOL    HW276726   5.851  12.059  13.591
24963SOL     OW76727  12.047   5.318   3.249
24963SOL    HW176728  12.076   5.233   3.213
24963SOL    HW276729  12.075   5.381   3.183
24964SOL     OW76730   5.459   2.204   0.960
24964SOL    HW176731   5.377   2.172   0.924
24964SOL    HW276732   5.437   2.233   1.048
24965SOL     OW76733   3.285   8.406   8.303
24965SOL    HW176734   3.191   8.406   8.321
24965SOL    HW276735   3.318   8.485   8.345
24966SOL     OW76736  10.836   0.274  11.734
24966SOL    HW176737  10.755   0.225  11.725
24966SOL    HW276738  10.827   0.322  11.817
24967SOL     OW76739  14.864  10.348   5.509
24967SOL    HW176740  14.778  10.384   5.485
24967SOL    HW276741   0.021  10.412   5.569
24968SOL     OW76742   2.265  13.302  10.577
24968SOL    HW176743   2.348  13.281  10.532
24968SOL    HW276744   2.224  13.367  10.521
24969SOL     OW76745  10.600  12.999   7.947
24969SOL    HW176746  10.506  13.005   7.932
24969SOL    HW276747  10.613  13.040   8.033
24970SOL     OW76748   0.652  11.993   2.967
24970SOL    HW176749   0.611  12.077   2.987
24970SOL    HW276750   0.693  11.966   3.049
24971SOL     OW76751   7.990   2.308   9.977
24971SOL    HW176752   7.895   2.300   9.984
24971SOL    HW276753   8.018   2.338  10.064
24972SOL     OW76754   3.833   8.370   5.754
24972SOL    HW176755   3.918   8.332   5.776
24972SOL    HW276756   3.837   8.460   5.787
24973SOL     OW76757  10.911   1.623  10.813
24973SOL    HW176758  10.998   1.613  10.852
24973SOL    HW276759  10.924   1.685  10.742
24974SOL     OW76760   6.926   0.647  11.259
24974SOL    HW176761   6.882   0.700  11.325
24974SOL    HW276762   6.883   0.561  11.264
24975SOL     OW76763   7.224   0.968   7.386
24975SOL    HW176764   7.165   0.960   7.460
24975SOL    HW276765   7.174   0.934   7.311
24976SOL     OW76766   6.198   9.168   6.476
24976SOL    HW176767   6.274   9.201   6.524
24976SOL    HW276768   6.229   9.090   6.431
24977SOL     OW76769  12.186  12.010   2.856
24977SOL    HW176770  12.240  12.089   2.849
24977SOL    HW276771  12.200  11.978   2.945
24978SOL     OW76772  13.753  10.747  14.312
24978SOL    HW176773  13.736  10.691  14.236
24978SOL    HW276774  13.712  10.831  14.289
24979SOL     OW76775   9.098   6.490  11.155
24979SOL    HW176776   9.082   6.580  11.127
24979SOL    HW276777   9.137   6.448  11.078
24980SOL     OW76778   1.654   5.962  11.900
24980SOL    HW176779   1.596   6.001  11.965
24980SOL    HW276780   1.605   5.970  11.818
24981SOL     OW76781   6.473   6.578   8.654
24981SOL    HW176782   6.491   6.591   8.747
24981SOL    HW276783   6.379   6.597   8.645
24982SOL     OW76784  11.080   7.239  12.757
24982SOL    HW176785  11.089   7.146  12.736
24982SOL    HW276786  11.073   7.282  12.672
24983SOL     OW76787   3.056  14.569  12.391
24983SOL    HW176788   3.097  14.653  12.371
24983SOL    HW276789   3.128  14.506  12.387
24984SOL     OW76790  11.622   6.059   0.877
24984SOL    HW176791  11.613   6.030   0.787
24984SOL    HW276792  11.634   5.979   0.927
24985SOL     OW76793   4.455  12.483   2.337
24985SOL    HW176794   4.395  12.520   2.273
24985SOL    HW276795   4.500  12.412   2.291
24986SOL     OW76796   3.241   4.223   5.282
24986SOL    HW176797   3.290   4.255   5.357
24986SOL    HW276798   3.150   4.224   5.311
24987SOL     OW76799   0.173   7.812  12.260
24987SOL    HW176800   0.230   7.862  12.319
24987SOL    HW276801   0.172   7.724  12.298
24988SOL     OW76802   8.316  11.777   2.084
24988SOL    HW176803   8.316  11.855   2.029
24988SOL    HW276804   8.225  11.764   2.108
24989SOL     OW76805   4.214  12.123  12.722
24989SOL    HW176806   4.156  12.187  12.765
24989SOL    HW276807   4.160  12.085  12.653
24990SOL     OW76808  12.504   2.311  12.435
24990SOL    HW176809  12.437   2.369  12.473
24990SOL    HW276810  12.461   2.225  12.431
24991SOL     OW76811   9.354  10.605   4.725
24991SOL    HW176812   9.389  10.577   4.810
24991SOL    HW276813   9.410  10.678   4.700
24992SOL     OW76814   2.719   4.517   1.921
24992SOL    HW176815   2.708   4.543   1.830
24992SOL    HW276816   2.704   4.598   1.971
24993SOL     OW76817  13.109   6.769   8.872
24993SOL    HW176818  13.016   6.787   8.879
24993SOL    HW276819  13.114   6.675   8.855
24994SOL     OW76820   7.119  12.547   7.219
24994SOL    HW176821   7.132  12.479   7.285
24994SOL    HW276822   7.046  12.599   7.253
24995SOL     OW76823   5.578   7.517   0.511
24995SOL    HW176824   5.661   7.540   0.469
24995SOL    HW276825   5.575   7.422   0.507
24996SOL     OW76826   2.997   8.157   3.840
24996SOL    HW176827   2.960   8.210   3.770
24996SOL    HW276828   2.921   8.127   3.891
24997SOL     OW76829   8.869   9.044  10.580
24997SOL    HW176830   8.806   8.974  10.564
24997SOL    HW276831   8.954   9.002  10.566
24998SOL     OW76832   5.264  11.482   3.589
24998SOL    HW176833   5.305  11.425   3.524
24998SOL    HW276834   5.252  11.427   3.666
24999SOL     OW76835   6.305   1.210   9.013
24999SOL    HW176836   6.337   1.197   8.923
24999SOL    HW276837   6.211   1.194   9.008
25000SOL     OW76838   7.033   7.391  12.341
25000SOL    HW176839   6.971   7.333  12.296
25000SOL    HW276840   7.040   7.355  12.429
25001SOL     OW76841   4.302   4.404   9.831
25001SOL    HW176842   4.247   4.405   9.754
25001SOL    HW276843   4.368   4.336   9.813
25002SOL     OW76844  11.561  11.111  10.688
25002SOL    HW176845  11.615  11.125  10.610
25002SOL    HW276846  11.553  11.199  10.726
25003SOL     OW76847   2.744   3.934   0.552
25003SOL    HW176848   2.746   3.892   0.638
25003SOL    HW276849   2.651   3.948   0.534
25004SOL     OW76850  10.078   4.820   0.430
25004SOL    HW176851   9.999   4.861   0.465
25004SOL    HW276852  10.083   4.735   0.475
25005SOL     OW76853   6.114   7.082   0.180
25005SOL    HW176854   6.095   7.170   0.146
25005SOL    HW276855   6.073   7.023   0.117
25006SOL     OW76856  13.802   6.574  11.586
25006SOL    HW176857  13.806   6.668  11.574
25006SOL    HW276858  13.820   6.561  11.680
25007SOL     OW76859   2.334   5.633  11.825
25007SOL    HW176860   2.359   5.676  11.743
25007SOL    HW276861   2.411   5.643  11.881
25008SOL     OW76862   1.480   6.395   4.398
25008SOL    HW176863   1.413   6.440   4.449
25008SOL    HW276864   1.536   6.353   4.465
25009SOL     OW76865  10.694   1.470  13.072
25009SOL    HW176866  10.787   1.493  13.067
25009SOL    HW276867  10.692   1.386  13.117
25010SOL     OW76868  12.580  14.633   4.042
25010SOL    HW176869  12.571  14.663   4.133
25010SOL    HW276870  12.602  14.712   3.993
25011SOL     OW76871  12.841   4.916   3.650
25011SOL    HW176872  12.827   4.993   3.705
25011SOL    HW276873  12.770   4.856   3.673
25012SOL     OW76874  10.452   9.871   5.309
25012SOL    HW176875  10.486   9.939   5.367
25012SOL    HW276876  10.466   9.904   5.221
25013SOL     OW76877   8.935  14.614   4.015
25013SOL    HW176878   8.842  14.606   4.036
25013SOL    HW276879   8.937  14.630   3.920
25014SOL     OW76880   9.771   9.767   1.576
25014SOL    HW176881   9.736   9.855   1.590
25014SOL    HW276882   9.771   9.755   1.481
25015SOL     OW76883   9.403   7.974   4.159
25015SOL    HW176884   9.342   7.900   4.169
25015SOL    HW276885   9.405   7.990   4.064
25016SOL     OW76886  14.676   0.153   4.898
25016SOL    HW176887  14.702   0.099   4.973
25016SOL    HW276888  14.742   0.222   4.894
25017SOL     OW76889   9.447  12.533   8.849
25017SOL    HW176890   9.524  12.588   8.861
25017SOL    HW276891   9.373  12.590   8.866
25018SOL     OW76892   7.934  13.982   2.294
25018SOL    HW176893   7.844  13.957   2.273
25018SOL    HW276894   7.929  14.019   2.382
25019SOL     OW76895  11.234  14.649  13.371
25019SOL    HW176896  11.210  14.570  13.321
25019SOL    HW276897  11.233  14.719  13.306
25020SOL     OW76898   0.269   1.047   2.881
25020SOL    HW176899   0.317   1.117   2.838
25020SOL    HW276900   0.199   1.091   2.929
25021SOL     OW76901  11.379   7.279  14.505
25021SOL    HW176902  11.445   7.347  14.518
25021SOL    HW276903  11.300   7.315  14.547
25022SOL     OW76904   7.961  14.054   7.864
25022SOL    HW176905   8.042  14.096   7.892
25022SOL    HW276906   7.908  14.125   7.828
25023SOL     OW76907   2.235   4.736   5.896
25023SOL    HW176908   2.285   4.713   5.974
25023SOL    HW276909   2.291   4.797   5.849
25024SOL     OW76910  11.504   8.458  13.979
25024SOL    HW176911  11.462   8.538  13.948
25024SOL    HW276912  11.598   8.477  13.974
25025SOL     OW76913   6.176  10.588   7.018
25025SOL    HW176914   6.085  10.595   7.047
25025SOL    HW276915   6.175  10.522   6.949
25026SOL     OW76916   8.611   8.919  13.581
25026SOL    HW176917   8.649   8.837  13.549
25026SOL    HW276918   8.582   8.964  13.502
25027SOL     OW76919   5.276  10.213   4.654
25027SOL    HW176920   5.369  10.195   4.640
25027SOL    HW276921   5.268  10.229   4.748
25028SOL     OW76922   1.929   1.602  12.255
25028SOL    HW176923   1.963   1.571  12.170
25028SOL    HW276924   1.908   1.694  12.241
25029SOL     OW76925   1.353   6.202  12.427
25029SOL    HW176926   1.416   6.177  12.495
25029SOL    HW276927   1.349   6.298  12.432
25030SOL     OW76928  10.703  13.960   2.427
25030SOL    HW176929  10.619  13.992   2.394
25030SOL    HW276930  10.768  14.005   2.373
25031SOL     OW76931   0.948   5.379   3.513
25031SOL    HW176932   0.996   5.321   3.572
25031SOL    HW276933   0.969   5.467   3.545
25032SOL     OW76934   1.382   9.051  12.134
25032SOL    HW176935   1.460   9.014  12.176
25032SOL    HW276936   1.311   9.031  12.195
25033SOL     OW76937   2.591   0.797   9.936
25033SOL    HW176938   2.587   0.770  10.028
25033SOL    HW276939   2.679   0.833   9.925
25034SOL     OW76940  11.756   2.280   3.109
25034SOL    HW176941  11.778   2.224   3.035
25034SOL    HW276942  11.708   2.354   3.070
25035SOL     OW76943   3.151   2.601   6.637
25035SOL    HW176944   3.237   2.642   6.630
25035SOL    HW276945   3.094   2.669   6.673
25036SOL     OW76946   1.368  14.493   2.201
25036SOL    HW176947   1.384  14.441   2.279
25036SOL    HW276948   1.428  14.458   2.135
25037SOL     OW76949   3.666  11.620   5.770
25037SOL    HW176950   3.636  11.695   5.823
25037SOL    HW276951   3.600  11.611   5.702
25038SOL     OW76952   6.546   8.571   5.665
25038SOL    HW176953   6.521   8.504   5.601
25038SOL    HW276954   6.533   8.654   5.620
25039SOL     OW76955   4.522   5.439  13.655
25039SOL    HW176956   4.498   5.509  13.716
25039SOL    HW276957   4.492   5.470  13.569
25040SOL     OW76958  13.049   8.943  13.235
25040SOL    HW176959  13.061   8.935  13.330
25040SOL    HW276960  12.967   8.898  13.217
25041SOL     OW76961   1.520   1.416  12.886
25041SOL    HW176962   1.438   1.372  12.908
25041SOL    HW276963   1.544   1.380  12.801
25042SOL     OW76964  11.266   6.249   4.982
25042SOL    HW176965  11.324   6.173   4.993
25042SOL    HW276966  11.219   6.232   4.901
25043SOL     OW76967   3.511   8.398  13.251
25043SOL    HW176968   3.550   8.325  13.298
25043SOL    HW276969   3.482   8.459  13.319
25044SOL     OW76970   7.026   4.148   8.984
25044SOL    HW176971   7.108   4.105   8.960
25044SOL    HW276972   7.026   4.147   9.080
25045SOL     OW76973   9.307   2.381   9.135
25045SOL    HW176974   9.246   2.350   9.203
25045SOL    HW276975   9.306   2.476   9.145
25046SOL     OW76976   8.725   4.612   4.843
25046SOL    HW176977   8.807   4.612   4.892
25046SOL    HW276978   8.660   4.577   4.904
25047SOL     OW76979  10.374   1.559   6.045
25047SOL    HW176980  10.425   1.630   6.082
25047SOL    HW276981  10.295   1.601   6.010
25048SOL     OW76982   8.117   1.057   8.002
25048SOL    HW176983   8.199   1.083   7.960
25048SOL    HW276984   8.069   1.139   8.015
25049SOL     OW76985   4.195   8.678   1.127
25049SOL    HW176986   4.103   8.666   1.149
25049SOL    HW276987   4.205   8.772   1.115
25050SOL     OW76988   5.877  12.004  12.624
25050SOL    HW176989   5.962  11.988  12.665
25050SOL    HW276990   5.861  12.097  12.638
25051SOL     OW76991   4.163   0.513  13.026
25051SOL    HW176992   4.251   0.498  13.060
25051SOL    HW276993   4.175   0.579  12.958
25052SOL     OW76994   1.471   0.675   6.098
25052SOL    HW176995   1.516   0.628   6.028
25052SOL    HW276996   1.516   0.647   6.178
25053SOL     OW76997   5.137   3.670   6.767
25053SOL    HW176998   5.223   3.675   6.808
25053SOL    HW276999   5.155   3.683   6.674
25054SOL     OW77000   8.425  11.357  10.813
25054SOL    HW177001   8.446  11.263  10.819
25054SOL    HW277002   8.392  11.369  10.725
25055SOL     OW77003   4.688   9.438  11.184
25055SOL    HW177004   4.609   9.396  11.218
25055SOL    HW277005   4.760   9.397  11.232
25056SOL     OW77006   5.789   1.444   3.947
25056SOL    HW177007   5.884   1.454   3.941
25056SOL    HW277008   5.765   1.490   4.027
25057SOL     OW77009   3.744   9.052   7.715
25057SOL    HW177010   3.745   9.143   7.744
25057SOL    HW277011   3.768   9.002   7.793
25058SOL     OW77012  10.437  11.903   9.755
25058SOL    HW177013  10.397  11.922   9.840
25058SOL    HW277014  10.404  11.970   9.696
25059SOL     OW77015  10.059   7.323   2.304
25059SOL    HW177016  10.109   7.285   2.232
25059SOL    HW277017  10.066   7.418   2.292
25060SOL     OW77018   6.274  11.115  14.799
25060SOL    HW177019   6.353  11.081  14.758
25060SOL    HW277020   6.280  11.210  14.788
25061SOL     OW77021  13.174   2.114   0.524
25061SOL    HW177022  13.118   2.059   0.579
25061SOL    HW277023  13.129   2.117   0.439
25062SOL     OW77024   5.149   5.831  12.605
25062SOL    HW177025   5.062   5.798  12.580
25062SOL    HW277026   5.197   5.752  12.631
25063SOL     OW77027   9.946   7.915   6.109
25063SOL    HW177028   9.999   7.994   6.103
25063SOL    HW277029  10.004   7.849   6.146
25064SOL     OW77030  10.964   7.603  13.356
25064SOL    HW177031  10.956   7.526  13.300
25064SOL    HW277032  10.888   7.599  13.415
25065SOL     OW77033   0.804   6.672   3.421
25065SOL    HW177034   0.816   6.766   3.408
25065SOL    HW277035   0.848   6.631   3.346
25066SOL     OW77036  13.257   6.766  12.140
25066SOL    HW177037  13.264   6.732  12.052
25066SOL    HW277038  13.165   6.753  12.164
25067SOL     OW77039   7.136   5.845  12.347
25067SOL    HW177040   7.206   5.780  12.350
25067SOL    HW277041   7.133   5.872  12.255
25068SOL     OW77042   4.283   0.991   4.791
25068SOL    HW177043   4.227   1.059   4.753
25068SOL    HW277044   4.368   1.003   4.748
25069SOL     OW77045   1.599   1.037  13.568
25069SOL    HW177046   1.650   1.103  13.521
25069SOL    HW277047   1.532   1.087  13.614
25070SOL     OW77048  12.561   1.125   4.751
25070SOL    HW177049  12.568   1.096   4.842
25070SOL    HW277050  12.503   1.060   4.710
25071SOL     OW77051  11.391   8.445   0.886
25071SOL    HW177052  11.347   8.529   0.878
25071SOL    HW277053  11.325   8.386   0.923
25072SOL     OW77054   5.078   3.692   2.185
25072SOL    HW177055   5.117   3.688   2.272
25072SOL    HW277056   5.001   3.636   2.190
25073SOL     OW77057   3.575  14.197   9.822
25073SOL    HW177058   3.647  14.220   9.764
25073SOL    HW277059   3.496  14.217   9.771
25074SOL     OW77060   2.432  12.263  10.941
25074SOL    HW177061   2.512  12.315  10.949
25074SOL    HW277062   2.377  12.313  10.881
25075SOL     OW77063  13.130   2.900   9.303
25075SOL    HW177064  13.212   2.852   9.292
25075SOL    HW277065  13.080   2.848   9.365
25076SOL     OW77066   2.626   4.839   5.688
25076SOL    HW177067   2.666   4.846   5.774
25076SOL    HW277068   2.699   4.838   5.627
25077SOL     OW77069  13.073  13.354  10.845
25077SOL    HW177070  13.011  13.331  10.776
25077SOL    HW277071  13.082  13.449  10.838
25078SOL     OW77072  14.257   2.259  12.099
25078SOL    HW177073  14.235   2.190  12.036
25078SOL    HW277074  14.224   2.226  12.183
25079SOL     OW77075   8.071   6.487  12.529
25079SOL    HW177076   8.017   6.492  12.450
25079SOL    HW277077   8.161   6.483  12.497
25080SOL     OW77078  13.384   7.459   3.938
25080SOL    HW177079  13.311   7.495   3.988
25080SOL    HW277080  13.345   7.392   3.883
25081SOL     OW77081   3.988  12.140  14.400
25081SOL    HW177082   3.912  12.190  14.372
25081SOL    HW277083   4.046  12.205  14.440
25082SOL     OW77084   1.038   7.029   0.658
25082SOL    HW177085   1.019   7.121   0.638
25082SOL    HW277086   1.128   7.017   0.629
25083SOL     OW77087   8.880  10.569   0.226
25083SOL    HW177088   8.966  10.600   0.255
25083SOL    HW277089   8.842  10.644   0.179
25084SOL     OW77090   3.334   3.825  13.851
25084SOL    HW177091   3.294   3.912  13.860
25084SOL    HW277092   3.262   3.764  13.867
25085SOL     OW77093  12.016  12.168  11.650
25085SOL    HW177094  12.002  12.155  11.744
25085SOL    HW277095  12.027  12.079  11.615
25086SOL     OW77096   9.722   7.900   2.140
25086SOL    HW177097   9.689   7.811   2.148
25086SOL    HW277098   9.709   7.923   2.048
25087SOL     OW77099  14.764  13.977  13.382
25087SOL    HW177100  14.824  14.013  13.448
25087SOL    HW277101  14.677  13.999  13.414
25088SOL     OW77102   9.508   2.184   2.380
25088SOL    HW177103   9.557   2.237   2.443
25088SOL    HW277104   9.555   2.196   2.298
25089SOL     OW77105  12.068   2.413   3.971
25089SOL    HW177106  12.011   2.415   3.895
25089SOL    HW277107  12.107   2.325   3.971
25090SOL     OW77108   9.200  11.792   5.063
25090SOL    HW177109   9.180  11.701   5.041
25090SOL    HW277110   9.156  11.807   5.147
25091SOL     OW77111  14.738  13.477   6.931
25091SOL    HW177112  14.731  13.572   6.933
25091SOL    HW277113  14.690  13.448   7.008
25092SOL     OW77114   6.625  13.189  13.836
25092SOL    HW177115   6.710  13.231  13.825
25092SOL    HW277116   6.603  13.202  13.928
25093SOL     OW77117   3.425   2.451  12.271
25093SOL    HW177118   3.510   2.453  12.314
25093SOL    HW277119   3.401   2.543  12.260
25094SOL     OW77120   6.755   2.708   9.685
25094SOL    HW177121   6.726   2.740   9.600
25094SOL    HW277122   6.831   2.653   9.665
25095SOL     OW77123  12.326  14.480  11.367
25095SOL    HW177124  12.319  14.519  11.279
25095SOL    HW277125  12.249  14.424  11.375
25096SOL     OW77126   1.373   5.262   6.658
25096SOL    HW177127   1.360   5.331   6.723
25096SOL    HW277128   1.365   5.307   6.574
25097SOL     OW77129   2.078   8.050   1.212
25097SOL    HW177130   2.047   8.136   1.183
25097SOL    HW277131   2.060   8.049   1.306
25098SOL     OW77132  10.712  14.427   8.068
25098SOL    HW177133  10.769  14.502   8.054
25098SOL    HW277134  10.704  14.420   8.163
25099SOL     OW77135  11.706   1.107   3.172
25099SOL    HW177136  11.727   1.136   3.261
25099SOL    HW277137  11.626   1.155   3.150
25100SOL     OW77138   4.390   2.385   7.658
25100SOL    HW177139   4.472   2.419   7.622
25100SOL    HW277140   4.406   2.291   7.668
25101SOL     OW77141  13.235   7.931   4.675
25101SOL    HW177142  13.243   7.992   4.601
25101SOL    HW277143  13.155   7.957   4.719
25102SOL     OW77144  14.531   6.444   0.698
25102SOL    HW177145  14.532   6.453   0.603
25102SOL    HW277146  14.623   6.437   0.723
25103SOL     OW77147  10.558  12.368   5.981
25103SOL    HW177148  10.583  12.311   6.053
25103SOL    HW277149  10.462  12.359   5.975
25104SOL     OW77150   3.050  13.657  13.786
25104SOL    HW177151   3.001  13.728  13.744
25104SOL    HW277152   3.067  13.690  13.874
25105SOL     OW77153   1.163   3.747  14.826
25105SOL    HW177154   1.225   3.795   0.001
25105SOL    HW277155   1.110   3.816  14.785
25106SOL     OW77156   2.226   9.534  12.830
25106SOL    HW177157   2.201   9.478  12.756
25106SOL    HW277158   2.158   9.519  12.895
25107SOL     OW77159   6.704   3.422   1.618
25107SOL    HW177160   6.659   3.400   1.699
25107SOL    HW277161   6.719   3.516   1.623
25108SOL     OW77162   3.434  13.231  13.903
25108SOL    HW177163   3.386  13.313  13.892
25108SOL    HW277164   3.377  13.178  13.960
25109SOL     OW77165   1.336  11.503   6.209
25109SOL    HW177166   1.336  11.553   6.290
25109SOL    HW277167   1.274  11.432   6.224
25110SOL     OW77168   6.542  13.882   4.637
25110SOL    HW177169   6.501  13.907   4.554
25110SOL    HW277170   6.618  13.830   4.612
25111SOL     OW77171   5.458   0.801  12.670
25111SOL    HW177172   5.389   0.772  12.611
25111SOL    HW277173   5.500   0.874  12.624
25112SOL     OW77174   8.930  11.806  14.530
25112SOL    HW177175   9.004  11.867  14.533
25112SOL    HW277176   8.856  11.858  14.499
25113SOL     OW77177   0.915   0.813   0.626
25113SOL    HW177178   0.913   0.718   0.636
25113SOL    HW277179   0.938   0.847   0.713
25114SOL     OW77180  12.575   4.836   8.880
25114SOL    HW177181  12.508   4.848   8.812
25114SOL    HW277182  12.614   4.751   8.860
25115SOL     OW77183   9.312   6.862  10.431
25115SOL    HW177184   9.370   6.903  10.495
25115SOL    HW277185   9.348   6.886  10.346
25116SOL     OW77186   4.390   6.556   0.957
25116SOL    HW177187   4.352   6.468   0.952
25116SOL    HW277188   4.371   6.595   0.872
25117SOL     OW77189  10.611   1.864   1.677
25117SOL    HW177190  10.533   1.809   1.672
25117SOL    HW277191  10.588   1.944   1.629
25118SOL     OW77192   7.748   3.550   5.160
25118SOL    HW177193   7.749   3.534   5.255
25118SOL    HW277194   7.655   3.565   5.140
25119SOL     OW77195   6.735   1.091   3.544
25119SOL    HW177196   6.650   1.125   3.571
25119SOL    HW277197   6.742   1.116   3.452
25120SOL     OW77198   1.425  14.771   8.184
25120SOL    HW177199   1.448  14.795   8.094
25120SOL    HW277200   1.413  14.855   8.228
25121SOL     OW77201   8.857   1.450   7.413
25121SOL    HW177202   8.945   1.471   7.446
25121SOL    HW277203   8.798   1.499   7.470
25122SOL     OW77204   4.621  13.682   6.400
25122SOL    HW177205   4.655  13.757   6.351
25122SOL    HW277206   4.569  13.722   6.470
25123SOL     OW77207  13.937  14.034  14.810
25123SOL    HW177208  13.874  13.980  14.762
25123SOL    HW277209  13.994  14.070  14.742
25124SOL     OW77210  13.238   2.109   3.716
25124SOL    HW177211  13.252   2.073   3.803
25124SOL    HW277212  13.155   2.072   3.686
25125SOL     OW77213  13.608   3.218   1.494
25125SOL    HW177214  13.514   3.202   1.497
25125SOL    HW277215  13.644   3.168   1.567
25126SOL     OW77216   7.484   0.992   7.102
25126SOL    HW177217   7.506   1.033   7.019
25126SOL    HW277218   7.392   0.968   7.093
25127SOL     OW77219   4.969  14.688   1.078
25127SOL    HW177220   4.905  14.732   1.135
25127SOL    HW277221   4.918  14.621   1.033
25128SOL     OW77222   1.069  11.883  14.486
25128SOL    HW177223   1.031  11.907  14.570
25128SOL    HW277224   1.145  11.829  14.509
25129SOL     OW77225   7.767   8.231  12.919
25129SOL    HW177226   7.744   8.150  12.872
25129SOL    HW277227   7.720   8.300  12.872
25130SOL     OW77228  10.106   6.824   5.353
25130SOL    HW177229  10.171   6.807   5.421
25130SOL    HW277230  10.022   6.823   5.400
25131SOL     OW77231   3.587   6.790   1.790
25131SOL    HW177232   3.606   6.701   1.764
25131SOL    HW277233   3.584   6.840   1.708
25132SOL     OW77234   8.311   0.074   9.304
25132SOL    HW177235   8.380   0.136   9.281
25132SOL    HW277236   8.236   0.129   9.327
25133SOL     OW77237   4.622  13.568  11.064
25133SOL    HW177238   4.680  13.579  11.139
25133SOL    HW277239   4.578  13.652  11.055
25134SOL     OW77240   4.458   7.242   0.703
25134SOL    HW177241   4.503   7.308   0.650
25134SOL    HW277242   4.521   7.171   0.712
25135SOL     OW77243   6.010  12.468  13.143
25135SOL    HW177244   5.986  12.523  13.068
25135SOL    HW277245   5.990  12.523  13.219
25136SOL     OW77246   4.828   9.289  11.640
25136SOL    HW177247   4.739   9.267  11.612
25136SOL    HW277248   4.866   9.334  11.564
25137SOL     OW77249   1.632  13.945   4.700
25137SOL    HW177250   1.640  14.035   4.668
25137SOL    HW277251   1.630  13.954   4.795
25138SOL     OW77252   6.669   6.293   5.542
25138SOL    HW177253   6.750   6.267   5.586
25138SOL    HW277254   6.691   6.290   5.448
25139SOL     OW77255  12.542   9.472  10.408
25139SOL    HW177256  12.547   9.467  10.504
25139SOL    HW277257  12.622   9.430  10.377
25140SOL     OW77258  13.778  12.535   7.316
25140SOL    HW177259  13.737  12.620   7.335
25140SOL    HW277260  13.771  12.526   7.221
25141SOL     OW77261   6.104   4.629   9.401
25141SOL    HW177262   6.191   4.663   9.418
25141SOL    HW277263   6.115   4.534   9.400
25142SOL     OW77264   4.866   1.324   7.487
25142SOL    HW177265   4.907   1.322   7.573
25142SOL    HW277266   4.924   1.273   7.431
25143SOL     OW77267  11.377  12.032   6.683
25143SOL    HW177268  11.366  12.115   6.728
25143SOL    HW277269  11.352  11.966   6.749
25144SOL     OW77270   2.142   8.743   9.464
25144SOL    HW177271   2.081   8.732   9.538
25144SOL    HW277272   2.221   8.696   9.491
25145SOL     OW77273   2.507   6.501   5.094
25145SOL    HW177274   2.499   6.557   5.017
25145SOL    HW277275   2.477   6.415   5.065
25146SOL     OW77276   2.289   5.975  10.011
25146SOL    HW177277   2.247   5.925   9.942
25146SOL    HW277278   2.382   5.978   9.986
25147SOL     OW77279   7.098   2.541   1.908
25147SOL    HW177280   7.049   2.533   1.827
25147SOL    HW277281   7.172   2.482   1.897
25148SOL     OW77282  11.348  12.293   7.197
25148SOL    HW177283  11.424  12.324   7.245
25148SOL    HW277284  11.339  12.354   7.124
25149SOL     OW77285   0.163   1.280   6.876
25149SOL    HW177286   0.109   1.253   6.802
25149SOL    HW277287   0.240   1.224   6.872
25150SOL     OW77288   0.586  10.631   3.974
25150SOL    HW177289   0.548  10.636   3.886
25150SOL    HW277290   0.655  10.565   3.968
25151SOL     OW77291  11.126   4.199  12.258
25151SOL    HW177292  11.171   4.160  12.183
25151SOL    HW277293  11.062   4.258  12.219
25152SOL     OW77294   0.869   8.443   3.173
25152SOL    HW177295   0.866   8.537   3.159
25152SOL    HW277296   0.917   8.432   3.255
25153SOL     OW77297   9.798  11.718  13.187
25153SOL    HW177298   9.739  11.768  13.131
25153SOL    HW277299   9.740  11.677  13.252
25154SOL     OW77300  14.265  10.878   7.653
25154SOL    HW177301  14.359  10.867   7.643
25154SOL    HW277302  14.228  10.796   7.621
25155SOL     OW77303  14.675  14.434  12.883
25155SOL    HW177304  14.625  14.354  12.865
25155SOL    HW277305  14.753  14.426  12.828
25156SOL     OW77306   7.301   9.248   4.614
25156SOL    HW177307   7.396   9.262   4.605
25156SOL    HW277308   7.280   9.185   4.546
25157SOL     OW77309   9.080  10.605   4.659
25157SOL    HW177310   9.170  10.580   4.678
25157SOL    HW277311   9.032  10.582   4.739
25158SOL     OW77312   7.867   9.078   8.672
25158SOL    HW177313   7.789   9.056   8.723
25158SOL    HW277314   7.937   9.028   8.714
25159SOL     OW77315   2.866   1.773   2.804
25159SOL    HW177316   2.945   1.737   2.765
25159SOL    HW277317   2.854   1.857   2.759
25160SOL     OW77318   0.158  14.415  13.853
25160SOL    HW177319   0.229  14.455  13.904
25160SOL    HW277320   0.121  14.487  13.802
25161SOL     OW77321   3.382   6.951  11.118
25161SOL    HW177322   3.470   6.914  11.119
25161SOL    HW277323   3.362   6.966  11.026
25162SOL     OW77324   1.942   5.683   7.156
25162SOL    HW177325   1.868   5.738   7.129
25162SOL    HW277326   2.000   5.742   7.203
25163SOL     OW77327  12.958  11.003   8.021
25163SOL    HW177328  12.956  11.027   7.929
25163SOL    HW277329  12.870  10.970   8.039
25164SOL     OW77330   4.521   3.647   5.846
25164SOL    HW177331   4.570   3.675   5.768
25164SOL    HW277332   4.513   3.552   5.836
25165SOL     OW77333   6.173   2.182  13.444
25165SOL    HW177334   6.210   2.249  13.386
25165SOL    HW277335   6.250   2.139  13.483
25166SOL     OW77336   3.721   4.510   9.964
25166SOL    HW177337   3.676   4.505   9.880
25166SOL    HW277338   3.694   4.431  10.011
25167SOL     OW77339  12.890   1.497   2.501
25167SOL    HW177340  12.911   1.409   2.533
25167SOL    HW277341  12.969   1.548   2.519
25168SOL     OW77342   6.103   7.288   4.876
25168SOL    HW177343   6.127   7.346   4.948
25168SOL    HW277344   6.123   7.338   4.797
25169SOL     OW77345   0.659   2.236  14.531
25169SOL    HW177346   0.575   2.247  14.487
25169SOL    HW277347   0.639   2.185  14.610
25170SOL     OW77348  11.912   8.509   4.739
25170SOL    HW177349  11.864   8.426   4.736
25170SOL    HW277350  11.901   8.539   4.830
25171SOL     OW77351   3.421   1.103  11.405
25171SOL    HW177352   3.450   1.052  11.481
25171SOL    HW277353   3.381   1.039  11.347
25172SOL     OW77354   0.676   6.250   4.097
25172SOL    HW177355   0.639   6.298   4.171
25172SOL    HW277356   0.712   6.170   4.136
25173SOL     OW77357  10.248  11.328   2.542
25173SOL    HW177358  10.241  11.378   2.622
25173SOL    HW277359  10.342  11.324   2.523
25174SOL     OW77360  10.587   0.956  10.456
25174SOL    HW177361  10.629   1.039  10.476
25174SOL    HW277362  10.553   0.925  10.540
25175SOL     OW77363  13.403   3.067  10.253
25175SOL    HW177364  13.360   3.144  10.289
25175SOL    HW277365  13.344   2.995  10.274
25176SOL     OW77366   3.374  10.040   7.022
25176SOL    HW177367   3.444  10.073   6.966
25176SOL    HW277368   3.419  10.014   7.103
25177SOL     OW77369   6.303  13.529  10.392
25177SOL    HW177370   6.371  13.590  10.364
25177SOL    HW277371   6.294  13.546  10.486
25178SOL     OW77372  11.666  12.145  11.450
25178SOL    HW177373  11.645  12.113  11.538
25178SOL    HW277374  11.605  12.218  11.437
25179SOL     OW77375   0.979   6.845   9.932
25179SOL    HW177376   0.917   6.885   9.993
25179SOL    HW277377   0.988   6.909   9.862
25180SOL     OW77378   1.490   2.252   6.009
25180SOL    HW177379   1.447   2.333   6.035
25180SOL    HW277380   1.540   2.226   6.087
25181SOL     OW77381   5.989   6.858  11.596
25181SOL    HW177382   6.004   6.948  11.566
25181SOL    HW277383   5.944   6.868  11.680
25182SOL     OW77384   9.057  10.538  14.650
25182SOL    HW177385   8.969  10.506  14.628
25182SOL    HW277386   9.070  10.613  14.592
25183SOL     OW77387  11.862   8.628  11.807
25183SOL    HW177388  11.808   8.705  11.789
25183SOL    HW277389  11.801   8.565  11.847
25184SOL     OW77390   2.016   1.665   3.574
25184SOL    HW177391   2.036   1.635   3.663
25184SOL    HW277392   1.925   1.640   3.560
25185SOL     OW77393   8.689   2.632   2.587
25185SOL    HW177394   8.733   2.617   2.670
25185SOL    HW277395   8.672   2.545   2.552
25186SOL     OW77396   5.190  13.881  11.031
25186SOL    HW177397   5.249  13.821  10.985
25186SOL    HW277398   5.111  13.883  10.978
25187SOL     OW77399   6.455   4.579   5.373
25187SOL    HW177400   6.456   4.530   5.291
25187SOL    HW277401   6.501   4.660   5.353
25188SOL     OW77402   6.041   5.365   6.465
25188SOL    HW177403   6.088   5.412   6.397
25188SOL    HW277404   5.962   5.416   6.480
25189SOL     OW77405   6.466   3.247   0.997
25189SOL    HW177406   6.487   3.158   0.971
25189SOL    HW277407   6.402   3.277   0.932
25190SOL     OW77408   3.377  13.188   6.833
25190SOL    HW177409   3.386  13.178   6.928
25190SOL    HW277410   3.299  13.137   6.810
25191SOL     OW77411   2.994   0.884   6.034
25191SOL    HW177412   2.992   0.961   5.976
25191SOL    HW277413   2.984   0.810   5.975
25192SOL     OW77414  13.389   2.096  10.218
25192SOL    HW177415  13.318   2.082  10.281
25192SOL    HW277416  13.357   2.166  10.161
25193SOL     OW77417   2.526   6.651   2.351
25193SOL    HW177418   2.534   6.557   2.334
25193SOL    HW277419   2.504   6.689   2.266
25194SOL     OW77420  13.095   5.472   9.000
25194SOL    HW177421  13.136   5.452   8.916
25194SOL    HW277422  13.073   5.386   9.037
25195SOL     OW77423   5.582   1.057   1.083
25195SOL    HW177424   5.671   1.022   1.088
25195SOL    HW277425   5.592   1.150   1.102
25196SOL     OW77426  13.607   2.465   7.465
25196SOL    HW177427  13.682   2.471   7.525
25196SOL    HW277428  13.558   2.545   7.480
25197SOL     OW77429   2.733   6.992   1.989
25197SOL    HW177430   2.727   6.937   2.067
25197SOL    HW277431   2.717   7.081   2.020
25198SOL     OW77432   6.624  12.819   7.218
25198SOL    HW177433   6.656  12.903   7.249
25198SOL    HW277434   6.529  12.827   7.221
25199SOL     OW77435   9.458   9.862  14.375
25199SOL    HW177436   9.497   9.817  14.299
25199SOL    HW277437   9.482   9.806  14.450
25200SOL     OW77438   1.787   8.446  13.896
25200SOL    HW177439   1.881   8.466  13.897
25200SOL    HW277440   1.759   8.468  13.807
25201SOL     OW77441   3.249  12.286   2.186
25201SOL    HW177442   3.240  12.379   2.205
25201SOL    HW277443   3.163  12.258   2.156
25202SOL     OW77444  14.462   3.103   8.195
25202SOL    HW177445  14.521   3.077   8.266
25202SOL    HW277446  14.385   3.047   8.207
25203SOL     OW77447  10.181   8.557  12.722
25203SOL    HW177448  10.108   8.521  12.773
25203SOL    HW277449  10.168   8.521  12.634
25204SOL     OW77450   9.311   0.574   2.270
25204SOL    HW177451   9.352   0.487   2.275
25204SOL    HW277452   9.233   0.560   2.216
25205SOL     OW77453   3.027   7.779   2.661
25205SOL    HW177454   3.121   7.762   2.651
25205SOL    HW277455   3.004   7.834   2.586
25206SOL     OW77456   3.703   5.269   9.501
25206SOL    HW177457   3.677   5.289   9.411
25206SOL    HW277458   3.692   5.174   9.508
25207SOL     OW77459  14.402   2.898   3.721
25207SOL    HW177460  14.318   2.857   3.741
25207SOL    HW277461  14.379   2.981   3.678
25208SOL     OW77462   0.146   1.087   9.529
25208SOL    HW177463   0.202   1.105   9.454
25208SOL    HW277464   0.200   1.035   9.587
25209SOL     OW77465   5.996   6.569  13.978
25209SOL    HW177466   6.013   6.603  14.066
25209SOL    HW277467   5.993   6.474  13.989
25210SOL     OW77468   0.107   6.289   4.533
25210SOL    HW177469   0.044   6.302   4.604
25210SOL    HW277470   0.055   6.258   4.459
25211SOL     OW77471   4.203   2.514  10.507
25211SOL    HW177472   4.192   2.454  10.433
25211SOL    HW277473   4.114   2.539  10.531
25212SOL     OW77474   2.470   6.444   5.527
25212SOL    HW177475   2.390   6.470   5.480
25212SOL    HW277476   2.537   6.503   5.494
25213SOL     OW77477   2.175  10.181   1.872
25213SOL    HW177478   2.121  10.133   1.935
25213SOL    HW277479   2.265  10.168   1.902
25214SOL     OW77480   6.716  10.632   7.122
25214SOL    HW177481   6.708  10.670   7.209
25214SOL    HW277482   6.768  10.552   7.135
25215SOL     OW77483   7.423   7.245  10.318
25215SOL    HW177484   7.454   7.208  10.401
25215SOL    HW277485   7.372   7.321  10.343
25216SOL     OW77486   1.883  11.143  12.250
25216SOL    HW177487   1.898  11.120  12.158
25216SOL    HW277488   1.789  11.134  12.263
25217SOL     OW77489   5.402   6.463   7.568
25217SOL    HW177490   5.453   6.533   7.526
25217SOL    HW277491   5.463   6.390   7.576
25218SOL     OW77492  12.443   0.158   8.691
25218SOL    HW177493  12.491   0.136   8.770
25218SOL    HW277494  12.403   0.076   8.663
25219SOL     OW77495  14.470  10.926  13.466
25219SOL    HW177496  14.559  10.914  13.433
25219SOL    HW277497  14.434  10.997  13.412
25220SOL     OW77498   4.043  11.065  12.570
25220SOL    HW177499   4.034  11.160  12.578
25220SOL    HW277500   3.991  11.030  12.643
25221SOL     OW77501   8.778   8.787  11.335
25221SOL    HW177502   8.811   8.864  11.290
25221SOL    HW277503   8.837   8.716  11.308
25222SOL     OW77504  12.119   9.806   1.666
25222SOL    HW177505  12.102   9.790   1.759
25222SOL    HW277506  12.197   9.862   1.665
25223SOL     OW77507   0.771  12.543  13.565
25223SOL    HW177508   0.830  12.569  13.493
25223SOL    HW277509   0.689  12.588  13.545
25224SOL     OW77510   6.531   7.328   2.808
25224SOL    HW177511   6.609   7.331   2.751
25224SOL    HW277512   6.541   7.404   2.865
25225SOL     OW77513   0.052   9.444   4.324
25225SOL    HW177514   0.143   9.415   4.327
25225SOL    HW277515   0.005   9.382   4.379
25226SOL     OW77516  10.862  14.717   1.133
25226SOL    HW177517  10.889  14.802   1.168
25226SOL    HW277518  10.871  14.726   1.038
25227SOL     OW77519   5.033   4.642   2.497
25227SOL    HW177520   5.047   4.576   2.429
25227SOL    HW277521   5.120   4.679   2.513
25228SOL     OW77522   8.842   3.183   7.272
25228SOL    HW177523   8.906   3.120   7.239
25228SOL    HW277524   8.768   3.175   7.213
25229SOL     OW77525   0.028   6.497   8.426
25229SOL    HW177526   0.002   6.579   8.383
25229SOL    HW277527  14.871   6.428   8.370
25230SOL     OW77528   0.514  11.946  12.506
25230SOL    HW177529   0.469  11.947  12.421
25230SOL    HW277530   0.607  11.954  12.483
25231SOL     OW77531   1.947   0.459  13.963
25231SOL    HW177532   1.921   0.530  13.904
25231SOL    HW277533   1.900   0.477  14.044
25232SOL     OW77534  12.960   5.191  11.317
25232SOL    HW177535  13.031   5.248  11.287
25232SOL    HW277536  12.937   5.225  11.404
25233SOL     OW77537   0.829   2.738   2.236
25233SOL    HW177538   0.835   2.725   2.331
25233SOL    HW277539   0.842   2.832   2.224
25234SOL     OW77540  10.290  10.589   5.968
25234SOL    HW177541  10.370  10.550   5.932
25234SOL    HW277542  10.275  10.540   6.049
25235SOL     OW77543   5.340   8.917   5.702
25235SOL    HW177544   5.426   8.890   5.736
25235SOL    HW277545   5.287   8.933   5.780
25236SOL     OW77546   7.892   7.260  10.286
25236SOL    HW177547   7.875   7.351  10.308
25236SOL    HW277548   7.985   7.258  10.263
25237SOL     OW77549  12.812   1.771   4.672
25237SOL    HW177550  12.882   1.797   4.732
25237SOL    HW277551  12.740   1.746   4.730
25238SOL     OW77552   1.122   4.261   2.614
25238SOL    HW177553   1.208   4.286   2.648
25238SOL    HW277554   1.126   4.284   2.521
25239SOL     OW77555   3.903  12.815  11.604
25239SOL    HW177556   3.834  12.789  11.665
25239SOL    HW277557   3.884  12.766  11.524
25240SOL     OW77558  14.638  14.408   5.221
25240SOL    HW177559  14.599  14.334   5.174
25240SOL    HW277560  14.700  14.368   5.281
25241SOL     OW77561   4.179   2.240   5.657
25241SOL    HW177562   4.165   2.227   5.563
25241SOL    HW277563   4.130   2.169   5.698
25242SOL     OW77564  12.145   7.595  12.768
25242SOL    HW177565  12.234   7.620  12.793
25242SOL    HW277566  12.093   7.674  12.782
25243SOL     OW77567   7.070   5.055   8.241
25243SOL    HW177568   7.121   5.093   8.312
25243SOL    HW277569   6.988   5.029   8.281
25244SOL     OW77570   3.008   4.213   6.756
25244SOL    HW177571   3.016   4.132   6.705
25244SOL    HW277572   3.098   4.245   6.763
25245SOL     OW77573   7.712   7.583   8.536
25245SOL    HW177574   7.733   7.541   8.452
25245SOL    HW277575   7.796   7.615   8.568
25246SOL     OW77576   4.682  12.346   2.589
25246SOL    HW177577   4.651  12.430   2.623
25246SOL    HW277578   4.695  12.293   2.668
25247SOL     OW77579  10.434  13.224  11.885
25247SOL    HW177580  10.424  13.186  11.973
25247SOL    HW277581  10.503  13.289  11.895
25248SOL     OW77582   9.084   6.057   4.918
25248SOL    HW177583   9.030   6.049   4.997
25248SOL    HW277584   9.026   6.094   4.852
25249SOL     OW77585   3.821   9.239  10.417
25249SOL    HW177586   3.803   9.149  10.444
25249SOL    HW277587   3.749   9.262  10.359
25250SOL     OW77588  12.250  11.082   4.918
25250SOL    HW177589  12.242  11.080   5.014
25250SOL    HW277590  12.216  10.998   4.889
25251SOL     OW77591  10.357   1.366  12.622
25251SOL    HW177592  10.285   1.315  12.585
25251SOL    HW277593  10.314   1.433  12.675
25252SOL     OW77594   5.052  10.075  10.487
25252SOL    HW177595   5.061  10.170  10.499
25252SOL    HW277596   5.142  10.044  10.478
25253SOL     OW77597   1.052   0.017   3.972
25253SOL    HW177598   1.111   0.090   3.953
25253SOL    HW277599   1.111  14.824   3.992
25254SOL     OW77600   7.868   5.285   1.115
25254SOL    HW177601   7.790   5.229   1.121
25254SOL    HW277602   7.939   5.231   1.150
25255SOL     OW77603  12.806  13.251   3.891
25255SOL    HW177604  12.744  13.178   3.891
25255SOL    HW277605  12.806  13.282   3.800
25256SOL     OW77606  13.498   7.268   2.720
25256SOL    HW177607  13.443   7.204   2.765
25256SOL    HW277608  13.514   7.336   2.786
25257SOL     OW77609  10.306   2.886  10.539
25257SOL    HW177610  10.351   2.917  10.461
25257SOL    HW277611  10.326   2.951  10.606
25258SOL     OW77612  14.422   8.431   6.217
25258SOL    HW177613  14.438   8.515   6.261
25258SOL    HW277614  14.338   8.402   6.251
25259SOL     OW77615  11.584  10.915   5.869
25259SOL    HW177616  11.552  10.977   5.934
25259SOL    HW277617  11.510  10.904   5.808
25260SOL     OW77618   7.789  12.041  12.254
25260SOL    HW177619   7.832  11.971  12.302
25260SOL    HW277620   7.861  12.095  12.221
25261SOL     OW77621   3.965   3.807   6.503
25261SOL    HW177622   4.006   3.887   6.470
25261SOL    HW277623   4.014   3.787   6.583
25262SOL     OW77624   6.718   8.547  10.886
25262SOL    HW177625   6.681   8.593  10.811
25262SOL    HW277626   6.650   8.550  10.952
25263SOL     OW77627  12.553   9.784   5.432
25263SOL    HW177628  12.470   9.761   5.473
25263SOL    HW277629  12.619   9.759   5.497
25264SOL     OW77630   9.343  12.365  13.864
25264SOL    HW177631   9.329  12.350  13.770
25264SOL    HW277632   9.437  12.383  13.871
25265SOL     OW77633   6.255   6.634   4.640
25265SOL    HW177634   6.266   6.634   4.545
25265SOL    HW277635   6.330   6.683   4.673
25266SOL     OW77636  14.046  11.595   2.789
25266SOL    HW177637  14.084  11.514   2.754
25266SOL    HW277638  14.122  11.653   2.803
25267SOL     OW77639  12.445  11.825  12.087
25267SOL    HW177640  12.534  11.790  12.089
25267SOL    HW277641  12.398  11.766  12.027
25268SOL     OW77642   0.331   5.390  14.452
25268SOL    HW177643   0.389   5.314  14.447
25268SOL    HW277644   0.261   5.362  14.512
25269SOL     OW77645   0.762   1.308   0.820
25269SOL    HW177646   0.697   1.313   0.890
25269SOL    HW277647   0.738   1.377   0.759
25270SOL     OW77648  12.242  14.391   0.845
25270SOL    HW177649  12.213  14.475   0.881
25270SOL    HW277650  12.262  14.411   0.753
25271SOL     OW77651   1.375   1.652   1.762
25271SOL    HW177652   1.338   1.665   1.675
25271SOL    HW277653   1.413   1.737   1.785
25272SOL     OW77654   9.688   4.801   0.339
25272SOL    HW177655   9.742   4.729   0.372
25272SOL    HW277656   9.655   4.770   0.255
25273SOL     OW77657   4.059   8.775   0.385
25273SOL    HW177658   4.118   8.744   0.453
25273SOL    HW277659   4.031   8.862   0.415
25274SOL     OW77660   1.041   3.142   7.953
25274SOL    HW177661   0.970   3.187   7.907
25274SOL    HW277662   1.075   3.080   7.889
25275SOL     OW77663  11.843   0.772   0.991
25275SOL    HW177664  11.869   0.845   0.935
25275SOL    HW277665  11.855   0.806   1.080
25276SOL     OW77666  12.036   1.923   3.365
25276SOL    HW177667  12.036   1.847   3.307
25276SOL    HW277668  12.020   1.997   3.308
25277SOL     OW77669   7.812  14.030  11.836
25277SOL    HW177670   7.764  13.995  11.761
25277SOL    HW277671   7.901  14.045  11.802
25278SOL     OW77672  14.055   0.242   9.427
25278SOL    HW177673  14.034   0.149   9.432
25278SOL    HW277674  14.027   0.278   9.511
25279SOL     OW77675  10.748   7.219  12.887
25279SOL    HW177676  10.815   7.150  12.891
25279SOL    HW277677  10.686   7.195  12.956
25280SOL     OW77678   3.937   6.855   5.037
25280SOL    HW177679   3.933   6.776   4.983
25280SOL    HW277680   4.030   6.875   5.043
25281SOL     OW77681   4.236  14.299   5.452
25281SOL    HW177682   4.236  14.259   5.365
25281SOL    HW277683   4.147  14.288   5.484
25282SOL     OW77684   3.867  12.503  12.417
25282SOL    HW177685   3.853  12.501  12.322
25282SOL    HW277686   3.878  12.596  12.437
25283SOL     OW77687  12.639   7.172  10.798
25283SOL    HW177688  12.561   7.227  10.792
25283SOL    HW277689  12.708   7.232  10.825
25284SOL     OW77690  11.442  13.004   4.485
25284SOL    HW177691  11.418  12.964   4.569
25284SOL    HW277692  11.441  12.931   4.423
25285SOL     OW77693   0.090  14.532   0.588
25285SOL    HW177694   0.125  14.461   0.642
25285SOL    HW277695   0.138  14.525   0.505
25286SOL     OW77696   8.932   0.024   4.846
25286SOL    HW177697   8.923   0.118   4.865
25286SOL    HW277698   8.880   0.010   4.767
25287SOL     OW77699  14.864   3.543   8.284
25287SOL    HW177700  14.812   3.463   8.276
25287SOL    HW277701   0.075   3.515   8.272
25288SOL     OW77702  13.571   0.030   5.341
25288SOL    HW177703  13.616  14.867   5.267
25288SOL    HW277704  13.496   0.074   5.301
25289SOL     OW77705   9.092  10.871   4.542
25289SOL    HW177706   9.179  10.885   4.505
25289SOL    HW277707   9.086  10.776   4.554
25290SOL     OW77708   4.150   9.222  14.154
25290SOL    HW177709   4.060   9.192  14.163
25290SOL    HW277710   4.156   9.253  14.063
25291SOL     OW77711  13.482  11.320  10.526
25291SOL    HW177712  13.388  11.317  10.542
25291SOL    HW277713  13.494  11.393  10.465
25292SOL     OW77714   4.304   6.647   5.985
25292SOL    HW177715   4.314   6.552   5.983
25292SOL    HW277716   4.245   6.666   5.912
25293SOL     OW77717   9.075  13.136   1.585
25293SOL    HW177718   9.134  13.123   1.659
25293SOL    HW277719   8.994  13.170   1.625
25294SOL     OW77720  13.507   5.327  11.854
25294SOL    HW177721  13.569   5.400  11.850
25294SOL    HW277722  13.531   5.272  11.779
25295SOL     OW77723   3.419   3.414   7.292
25295SOL    HW177724   3.429   3.331   7.246
25295SOL    HW277725   3.325   3.430   7.291
25296SOL     OW77726  10.950  14.396  11.729
25296SOL    HW177727  10.897  14.316  11.734
25296SOL    HW277728  10.967  14.408  11.636
25297SOL     OW77729  13.770   9.871   3.676
25297SOL    HW177730  13.713   9.865   3.753
25297SOL    HW277731  13.750   9.957   3.638
25298SOL     OW77732  13.021   7.631   3.308
25298SOL    HW177733  13.067   7.610   3.389
25298SOL    HW277734  12.932   7.596   3.321
25299SOL     OW77735   3.332  12.013   8.943
25299SOL    HW177736   3.275  12.053   8.877
25299SOL    HW277737   3.384  11.949   8.894
25300SOL     OW77738   0.869  12.692   0.780
25300SOL    HW177739   0.932  12.621   0.794
25300SOL    HW277740   0.790  12.648   0.747
25301SOL     OW77741   8.376   1.028  12.491
25301SOL    HW177742   8.433   1.095  12.453
25301SOL    HW277743   8.426   0.992  12.564
25302SOL     OW77744  14.027  10.272   1.653
25302SOL    HW177745  14.005  10.318   1.573
25302SOL    HW277746  13.953  10.215   1.670
25303SOL     OW77747  10.566   2.539   1.025
25303SOL    HW177748  10.639   2.556   1.084
25303SOL    HW277749  10.546   2.446   1.038
25304SOL     OW77750   9.232   3.254   9.210
25304SOL    HW177751   9.164   3.310   9.172
25304SOL    HW277752   9.184   3.185   9.255
25305SOL     OW77753   8.171   2.308   2.676
25305SOL    HW177754   8.251   2.299   2.729
25305SOL    HW277755   8.101   2.317   2.740
25306SOL     OW77756   5.009   8.677   3.440
25306SOL    HW177757   4.965   8.607   3.393
25306SOL    HW277758   4.961   8.756   3.417
25307SOL     OW77759   0.665   9.534   6.592
25307SOL    HW177760   0.749   9.580   6.593
25307SOL    HW277761   0.687   9.442   6.602
25308SOL     OW77762  10.167  10.127   0.888
25308SOL    HW177763  10.212  10.095   0.966
25308SOL    HW277764  10.075  10.106   0.903
25309SOL     OW77765   7.568   4.448   3.330
25309SOL    HW177766   7.581   4.537   3.298
25309SOL    HW277767   7.513   4.406   3.264
25310SOL     OW77768   0.665   9.456   2.015
25310SOL    HW177769   0.601   9.385   2.008
25310SOL    HW277770   0.750   9.411   2.017
25311SOL     OW77771  13.082   8.563   8.878
25311SOL    HW177772  13.174   8.540   8.870
25311SOL    HW277773  13.037   8.480   8.887
25312SOL     OW77774   2.214   0.540  13.762
25312SOL    HW177775   2.215   0.600  13.836
25312SOL    HW277776   2.192   0.596  13.687
25313SOL     OW77777   3.879   0.972   4.434
25313SOL    HW177778   3.847   0.973   4.344
25313SOL    HW277779   3.808   0.933   4.484
25314SOL     OW77780   2.489  14.090   0.597
25314SOL    HW177781   2.416  14.140   0.561
25314SOL    HW277782   2.515  14.137   0.676
25315SOL     OW77783   9.505   0.615   8.458
25315SOL    HW177784   9.462   0.584   8.379
25315SOL    HW277785   9.461   0.697   8.479
25316SOL     OW77786   6.809   5.329   2.497
25316SOL    HW177787   6.735   5.378   2.535
25316SOL    HW277788   6.841   5.385   2.427
25317SOL     OW77789   9.653   0.751   2.641
25317SOL    HW177790   9.643   0.657   2.654
25317SOL    HW277791   9.564   0.785   2.634
25318SOL     OW77792  10.097   5.025  10.167
25318SOL    HW177793  10.016   5.033  10.117
25318SOL    HW277794  10.128   4.936  10.148
25319SOL     OW77795   8.461  13.123  10.395
25319SOL    HW177796   8.548  13.118  10.435
25319SOL    HW277797   8.425  13.206  10.428
25320SOL     OW77798   8.310   0.439   4.595
25320SOL    HW177799   8.358   0.445   4.513
25320SOL    HW277800   8.293   0.346   4.606
25321SOL     OW77801  12.325   7.390   3.036
25321SOL    HW177802  12.358   7.305   3.064
25321SOL    HW277803  12.241   7.400   3.081
25322SOL     OW77804   8.732   1.705   9.586
25322SOL    HW177805   8.640   1.702   9.612
25322SOL    HW277806   8.760   1.794   9.610
25323SOL     OW77807   0.847   1.111   5.408
25323SOL    HW177808   0.799   1.191   5.426
25323SOL    HW277809   0.812   1.048   5.471
25324SOL     OW77810   3.701   4.382  11.501
25324SOL    HW177811   3.725   4.301  11.546
25324SOL    HW277812   3.725   4.367  11.409
25325SOL     OW77813   2.359   1.614  11.380
25325SOL    HW177814   2.428   1.550  11.367
25325SOL    HW277815   2.321   1.591  11.465
25326SOL     OW77816   8.881  10.926   5.586
25326SOL    HW177817   8.836  10.967   5.512
25326SOL    HW277818   8.832  10.844   5.600
25327SOL     OW77819   8.241   9.064  14.610
25327SOL    HW177820   8.211   9.152  14.636
25327SOL    HW277821   8.335   9.074  14.599
25328SOL     OW77822  10.645   5.444  10.831
25328SOL    HW177823  10.739   5.438  10.847
25328SOL    HW277824  10.638   5.495  10.751
25329SOL     OW77825  11.599   4.773   2.733
25329SOL    HW177826  11.521   4.824   2.753
25329SOL    HW277827  11.586   4.690   2.780
25330SOL     OW77828   3.953   3.994  10.756
25330SOL    HW177829   3.973   4.084  10.782
25330SOL    HW277830   3.964   3.993  10.661
25331SOL     OW77831  10.166  10.291  12.474
25331SOL    HW177832  10.087  10.261  12.427
25331SOL    HW277833  10.229  10.220  12.462
25332SOL     OW77834  14.168  13.992  11.860
25332SOL    HW177835  14.213  14.066  11.901
25332SOL    HW277836  14.235  13.924  11.853
25333SOL     OW77837   1.995   7.343  14.144
25333SOL    HW177838   1.928   7.336  14.212
25333SOL    HW277839   1.951   7.312  14.064
25334SOL     OW77840   6.442   4.936   1.129
25334SOL    HW177841   6.363   4.973   1.090
25334SOL    HW277842   6.438   4.843   1.109
25335SOL     OW77843  13.111   2.816  12.259
25335SOL    HW177844  13.039   2.873  12.288
25335SOL    HW277845  13.183   2.877  12.239
25336SOL     OW77846   3.190   1.154   2.779
25336SOL    HW177847   3.178   1.071   2.732
25336SOL    HW277848   3.103   1.195   2.778
25337SOL     OW77849  14.256   3.553  12.783
25337SOL    HW177850  14.217   3.602  12.855
25337SOL    HW277851  14.213   3.468  12.785
25338SOL     OW77852   1.602   2.097   7.561
25338SOL    HW177853   1.684   2.093   7.611
25338SOL    HW277854   1.534   2.090   7.628
25339SOL     OW77855   7.196   1.356   9.576
25339SOL    HW177856   7.193   1.411   9.654
25339SOL    HW277857   7.212   1.268   9.609
25340SOL     OW77858  11.027   9.645   6.695
25340SOL    HW177859  11.032   9.740   6.706
25340SOL    HW277860  10.951   9.619   6.747
25341SOL     OW77861   7.560   2.639   1.412
25341SOL    HW177862   7.557   2.608   1.503
25341SOL    HW277863   7.614   2.574   1.367
25342SOL     OW77864   6.524  10.952   6.445
25342SOL    HW177865   6.446  11.001   6.471
25342SOL    HW277866   6.596  11.000   6.484
25343SOL     OW77867  10.721   1.553   5.517
25343SOL    HW177868  10.752   1.557   5.427
25343SOL    HW277869  10.800   1.558   5.570
25344SOL     OW77870  10.689   7.261   1.915
25344SOL    HW177871  10.627   7.333   1.903
25344SOL    HW277872  10.766   7.302   1.956
25345SOL     OW77873  14.604   0.646  10.148
25345SOL    HW177874  14.580   0.554  10.155
25345SOL    HW277875  14.699   0.646  10.139
25346SOL     OW77876   3.738   0.856  11.417
25346SOL    HW177877   3.750   0.895  11.503
25346SOL    HW277878   3.805   0.898  11.362
25347SOL     OW77879   8.421  11.301   5.863
25347SOL    HW177880   8.352  11.260   5.812
25347SOL    HW277881   8.435  11.242   5.937
25348SOL     OW77882   7.447   0.704  13.352
25348SOL    HW177883   7.413   0.793  13.336
25348SOL    HW277884   7.372   0.656  13.386
25349SOL     OW77885   7.330   4.597  14.075
25349SOL    HW177886   7.326   4.625  14.167
25349SOL    HW277887   7.298   4.507  14.077
25350SOL     OW77888   1.105  10.465   0.993
25350SOL    HW177889   1.045  10.440   0.923
25350SOL    HW277890   1.177  10.509   0.949
25351SOL     OW77891   7.167   0.069  10.887
25351SOL    HW177892   7.261   0.057  10.904
25351SOL    HW277893   7.126  14.874  10.929
25352SOL     OW77894   1.240  10.391   9.761
25352SOL    HW177895   1.243  10.454   9.834
25352SOL    HW277896   1.228  10.306   9.804
25353SOL     OW77897   0.931   9.961   9.011
25353SOL    HW177898   0.875   9.919   9.076
25353SOL    HW277899   1.020   9.942   9.039
25354SOL     OW77900  10.065  13.522   6.305
25354SOL    HW177901   9.992  13.582   6.292
25354SOL    HW277902  10.044  13.476   6.386
25355SOL     OW77903   1.205   8.126  14.086
25355SOL    HW177904   1.140   8.059  14.109
25355SOL    HW277905   1.243   8.152  14.170
25356SOL     OW77906   5.489   8.813   4.734
25356SOL    HW177907   5.583   8.806   4.717
25356SOL    HW277908   5.448   8.755   4.669
25357SOL     OW77909   9.482   2.304   7.866
25357SOL    HW177910   9.572   2.283   7.840
25357SOL    HW277911   9.429   2.274   7.792
25358SOL     OW77912   9.941   7.908  13.679
25358SOL    HW177913  10.023   7.864  13.657
25358SOL    HW277914   9.894   7.845  13.733
25359SOL     OW77915  12.990  11.052   3.933
25359SOL    HW177916  12.984  11.138   3.975
25359SOL    HW277917  12.903  11.037   3.896
25360SOL     OW77918   5.947   0.308   3.070
25360SOL    HW177919   5.889   0.346   3.136
25360SOL    HW277920   6.019   0.270   3.120
25361SOL     OW77921   5.702  11.446   9.577
25361SOL    HW177922   5.712  11.425   9.484
25361SOL    HW277923   5.620  11.403   9.602
25362SOL     OW77924   0.840   0.421  11.587
25362SOL    HW177925   0.928   0.385  11.573
25362SOL    HW277926   0.808   0.440  11.499
25363SOL     OW77927   4.817   6.756  14.813
25363SOL    HW177928   4.861   6.799  14.740
25363SOL    HW277929   4.797   6.668  14.780
25364SOL     OW77930  14.532   3.151  13.632
25364SOL    HW177931  14.591   3.076  13.635
25364SOL    HW277932  14.490   3.152  13.717
25365SOL     OW77933   3.369  10.444   6.601
25365SOL    HW177934   3.307  10.372   6.585
25365SOL    HW277935   3.317  10.523   6.590
25366SOL     OW77936   3.027   2.297   3.081
25366SOL    HW177937   3.083   2.375   3.073
25366SOL    HW277938   3.060   2.237   3.014
25367SOL     OW77939   3.507   1.030   4.679
25367SOL    HW177940   3.488   0.946   4.637
25367SOL    HW277941   3.457   1.028   4.760
25368SOL     OW77942   3.473   9.445  12.278
25368SOL    HW177943   3.448   9.468  12.189
25368SOL    HW277944   3.533   9.372  12.268
25369SOL     OW77945  13.844   0.929  14.470
25369SOL    HW177946  13.804   0.917  14.556
25369SOL    HW277947  13.914   0.993  14.485
25370SOL     OW77948   4.433   3.304   8.771
25370SOL    HW177949   4.440   3.229   8.831
25370SOL    HW277950   4.473   3.273   8.690
25371SOL     OW77951   9.436  13.974   3.717
25371SOL    HW177952   9.526  13.997   3.694
25371SOL    HW277953   9.410  13.911   3.650
25372SOL     OW77954   9.343   5.769   9.112
25372SOL    HW177955   9.273   5.710   9.085
25372SOL    HW277956   9.303   5.825   9.179
25373SOL     OW77957   8.254   8.340  11.243
25373SOL    HW177958   8.177   8.299  11.283
25373SOL    HW277959   8.275   8.285  11.168
25374SOL     OW77960   0.783  14.731  11.539
25374SOL    HW177961   0.779  14.811  11.592
25374SOL    HW277962   0.832  14.669  11.592
25375SOL     OW77963   3.423   5.072   6.446
25375SOL    HW177964   3.329   5.084   6.458
25375SOL    HW277965   3.432   5.044   6.355
25376SOL     OW77966   2.959   6.985   0.787
25376SOL    HW177967   2.915   6.958   0.867
25376SOL    HW277968   2.959   6.906   0.732
25377SOL     OW77969   8.802   8.176   1.438
25377SOL    HW177970   8.752   8.240   1.387
25377SOL    HW277971   8.758   8.176   1.524
25378SOL     OW77972   8.841   2.888  11.939
25378SOL    HW177973   8.753   2.911  11.907
25378SOL    HW277974   8.896   2.890  11.861
25379SOL     OW77975  11.050  10.461  10.360
25379SOL    HW177976  11.060  10.376  10.404
25379SOL    HW277977  10.956  10.477  10.360
25380SOL     OW77978   5.930   0.876   3.295
25380SOL    HW177979   5.940   0.944   3.228
25380SOL    HW277980   5.866   0.815   3.259
25381SOL     OW77981  13.220   0.539   5.235
25381SOL    HW177982  13.226   0.629   5.265
25381SOL    HW277983  13.311   0.510   5.225
25382SOL     OW77984   5.449   4.147   1.230
25382SOL    HW177985   5.515   4.178   1.169
25382SOL    HW277986   5.468   4.054   1.241
25383SOL     OW77987  10.038   5.793  14.708
25383SOL    HW177988  10.083   5.857  14.764
25383SOL    HW277989   9.962   5.765  14.759
25384SOL     OW77990  12.726   9.784   5.228
25384SOL    HW177991  12.699   9.842   5.157
25384SOL    HW277992  12.669   9.807   5.301
25385SOL     OW77993   7.567   4.985  10.323
25385SOL    HW177994   7.485   4.956  10.363
25385SOL    HW277995   7.606   5.044  10.387
25386SOL     OW77996   1.009   3.742  13.902
25386SOL    HW177997   1.092   3.785  13.883
25386SOL    HW277998   0.956   3.756  13.824
25387SOL     OW77999   2.377   4.899   1.829
25387SOL    HW178000   2.303   4.919   1.887
25387SOL    HW278001   2.344   4.915   1.741
25388SOL     OW78002  12.711  11.167   3.853
25388SOL    HW178003  12.743  11.244   3.807
25388SOL    HW278004  12.651  11.126   3.791
25389SOL     OW78005   6.240   8.112  12.225
25389SOL    HW178006   6.193   8.130  12.144
25389SOL    HW278007   6.184   8.146  12.294
25390SOL     OW78008   3.902   4.512   2.205
25390SOL    HW178009   3.834   4.456   2.167
25390SOL    HW278010   3.944   4.456   2.271
25391SOL     OW78011   5.197   8.532   1.540
25391SOL    HW178012   5.190   8.611   1.486
25391SOL    HW278013   5.107   8.511   1.563
25392SOL     OW78014   3.043  13.244   4.777
25392SOL    HW178015   3.083  13.276   4.697
25392SOL    HW278016   3.023  13.152   4.759
25393SOL     OW78017   6.694   2.711   5.785
25393SOL    HW178018   6.602   2.731   5.805
25393SOL    HW278019   6.690   2.661   5.704
25394SOL     OW78020   7.923  10.835   0.262
25394SOL    HW178021   7.863  10.875   0.198
25394SOL    HW278022   7.896  10.744   0.267
25395SOL     OW78023   1.559  11.933   7.380
25395SOL    HW178024   1.583  11.928   7.288
25395SOL    HW278025   1.475  11.888   7.386
25396SOL     OW78026   4.312  10.015  12.060
25396SOL    HW178027   4.281  10.013  11.969
25396SOL    HW278028   4.251   9.959  12.107
25397SOL     OW78029  12.929  14.349  11.401
25397SOL    HW178030  12.895  14.278  11.454
25397SOL    HW278031  12.905  14.326  11.311
25398SOL     OW78032   1.183   1.349   4.274
25398SOL    HW178033   1.118   1.319   4.211
25398SOL    HW278034   1.249   1.393   4.221
25399SOL     OW78035  11.890   6.208   9.033
25399SOL    HW178036  11.845   6.194   8.950
25399SOL    HW278037  11.885   6.302   9.047
25400SOL     OW78038   3.478   7.682  13.175
25400SOL    HW178039   3.420   7.756  13.189
25400SOL    HW278040   3.492   7.680  13.081
25401SOL     OW78041  11.040   8.646   5.199
25401SOL    HW178042  11.079   8.573   5.248
25401SOL    HW278043  10.950   8.618   5.184
25402SOL     OW78044   2.893  14.002  14.264
25402SOL    HW178045   2.892  13.945  14.187
25402SOL    HW278046   2.985  14.019  14.280
25403SOL     OW78047   5.075   0.769  12.091
25403SOL    HW178048   5.042   0.712  12.022
25403SOL    HW278049   5.005   0.770  12.156
25404SOL     OW78050   8.687   8.510  13.094
25404SOL    HW178051   8.743   8.577  13.055
25404SOL    HW278052   8.666   8.450  13.023
25405SOL     OW78053   1.991  12.683  13.566
25405SOL    HW178054   1.992  12.779  13.563
25405SOL    HW278055   1.902  12.661  13.593
25406SOL     OW78056  12.572   3.283   3.733
25406SOL    HW178057  12.654   3.283   3.683
25406SOL    HW278058  12.574   3.364   3.784
25407SOL     OW78059   0.761   5.641   3.221
25407SOL    HW178060   0.738   5.587   3.297
25407SOL    HW278061   0.729   5.728   3.243
25408SOL     OW78062  13.807   2.574   9.099
25408SOL    HW178063  13.808   2.484   9.065
25408SOL    HW278064  13.899   2.597   9.108
25409SOL     OW78065   4.466  10.223   9.840
25409SOL    HW178066   4.447  10.154   9.777
25409SOL    HW278067   4.380  10.255   9.868
25410SOL     OW78068  14.105  11.355  11.043
25410SOL    HW178069  14.104  11.443  11.081
25410SOL    HW278070  14.130  11.369  10.951
25411SOL     OW78071  10.304   1.051   2.255
25411SOL    HW178072  10.359   1.048   2.334
25411SOL    HW278073  10.365   1.071   2.184
25412SOL     OW78074   2.419   9.121   8.044
25412SOL    HW178075   2.449   9.198   7.996
25412SOL    HW278076   2.423   9.147   8.136
25413SOL     OW78077  10.113  10.223   2.936
25413SOL    HW178078  10.071  10.257   2.857
25413SOL    HW278079  10.087  10.283   3.005
25414SOL     OW78080  10.419   6.096   9.006
25414SOL    HW178081  10.356   6.066   8.941
25414SOL    HW278082  10.501   6.104   8.958
25415SOL     OW78083   3.341  14.590   1.037
25415SOL    HW178084   3.281  14.563   1.107
25415SOL    HW278085   3.358  14.682   1.055
25416SOL     OW78086  14.040   8.896   7.204
25416SOL    HW178087  14.065   8.826   7.144
25416SOL    HW278088  14.124   8.935   7.230
25417SOL     OW78089  10.336   5.076   3.824
25417SOL    HW178090  10.381   5.149   3.782
25417SOL    HW278091  10.249   5.074   3.782
25418SOL     OW78092  12.362   2.365   7.485
25418SOL    HW178093  12.308   2.442   7.468
25418SOL    HW278094  12.448   2.399   7.507
25419SOL     OW78095   9.566   2.806   4.104
25419SOL    HW178096   9.629   2.770   4.166
25419SOL    HW278097   9.548   2.895   4.136
25420SOL     OW78098   9.080   8.852  10.495
25420SOL    HW178099   9.074   8.833  10.401
25420SOL    HW278100   9.152   8.796  10.525
25421SOL     OW78101   0.453   6.127   7.572
25421SOL    HW178102   0.362   6.104   7.551
25421SOL    HW278103   0.469   6.208   7.524
25422SOL     OW78104   0.751  13.196   4.645
25422SOL    HW178105   0.678  13.154   4.600
25422SOL    HW278106   0.710  13.256   4.707
25423SOL     OW78107   1.227   2.845  12.800
25423SOL    HW178108   1.244   2.762  12.756
25423SOL    HW278109   1.314   2.878  12.823
25424SOL     OW78110   3.931  10.776   1.284
25424SOL    HW178111   3.860  10.819   1.236
25424SOL    HW278112   3.892  10.754   1.368
25425SOL     OW78113   2.989  11.801  12.235
25425SOL    HW178114   2.920  11.864  12.217
25425SOL    HW278115   3.024  11.778  12.148
25426SOL     OW78116   1.716  13.557  10.317
25426SOL    HW178117   1.688  13.535  10.228
25426SOL    HW278118   1.717  13.474  10.363
25427SOL     OW78119   0.609   3.934  13.357
25427SOL    HW178120   0.589   3.931  13.450
25427SOL    HW278121   0.678   4.001  13.349
25428SOL     OW78122  10.320  12.599   5.835
25428SOL    HW178123  10.316  12.517   5.885
25428SOL    HW278124  10.231  12.632   5.836
25429SOL     OW78125  14.077   8.477   5.757
25429SOL    HW178126  14.137   8.532   5.705
25429SOL    HW278127  14.118   8.472   5.843
25430SOL     OW78128  12.748  10.530   2.976
25430SOL    HW178129  12.658  10.506   2.956
25430SOL    HW278130  12.747  10.550   3.070
25431SOL     OW78131  13.210   9.405   7.424
25431SOL    HW178132  13.162   9.452   7.355
25431SOL    HW278133  13.171   9.317   7.424
25432SOL     OW78134  12.802   2.309   3.360
25432SOL    HW178135  12.723   2.267   3.394
25432SOL    HW278136  12.852   2.238   3.319
25433SOL     OW78137  14.829   2.934  11.383
25433SOL    HW178138  14.783   2.973  11.458
25433SOL    HW278139  14.765   2.937  11.312
25434SOL     OW78140  11.228  12.713  12.067
25434SOL    HW178141  11.301  12.720  12.128
25434SOL    HW278142  11.217  12.618  12.053
25435SOL     OW78143  12.589  12.954   8.151
25435SOL    HW178144  12.549  13.016   8.090
25435SOL    HW278145  12.641  13.009   8.211
25436SOL     OW78146  11.606   8.936   7.479
25436SOL    HW178147  11.536   8.877   7.503
25436SOL    HW278148  11.642   8.966   7.563
25437SOL     OW78149  14.750   9.448  14.363
25437SOL    HW178150  14.686   9.417  14.299
25437SOL    HW278151  14.819   9.382  14.362
25438SOL     OW78152   6.935   2.182   9.346
25438SOL    HW178153   6.915   2.275   9.334
25438SOL    HW278154   7.019   2.181   9.392
25439SOL     OW78155  12.656  13.117   1.778
25439SOL    HW178156  12.618  13.106   1.865
25439SOL    HW278157  12.703  13.200   1.783
25440SOL     OW78158  12.966  11.946   5.027
25440SOL    HW178159  12.935  12.036   5.018
25440SOL    HW278160  12.887  11.893   5.014
25441SOL     OW78161  10.820  10.275   6.362
25441SOL    HW178162  10.730  10.269   6.395
25441SOL    HW278163  10.872  10.301   6.438
25442SOL     OW78164   4.699   4.470   4.007
25442SOL    HW178165   4.788   4.434   4.007
25442SOL    HW278166   4.662   4.442   4.091
25443SOL     OW78167   3.767   3.742  13.281
25443SOL    HW178168   3.772   3.686  13.358
25443SOL    HW278169   3.713   3.692  13.219
25444SOL     OW78170   3.375   1.322  13.441
25444SOL    HW178171   3.428   1.248  13.412
25444SOL    HW278172   3.391   1.327  13.535
25445SOL     OW78173   9.298   5.938   3.850
25445SOL    HW178174   9.354   5.862   3.861
25445SOL    HW278175   9.271   5.935   3.758
25446SOL     OW78176   5.185   0.512   0.472
25446SOL    HW178177   5.181   0.467   0.556
25446SOL    HW278178   5.271   0.554   0.471
25447SOL     OW78179   0.282  14.679  13.894
25447SOL    HW178180   0.288  14.727  13.976
25447SOL    HW278181   0.259  14.746  13.828
25448SOL     OW78182   2.728   2.138   6.569
25448SOL    HW178183   2.794   2.171   6.507
25448SOL    HW278184   2.650   2.192   6.553
25449SOL     OW78185  14.046  13.100   8.291
25449SOL    HW178186  14.065  13.032   8.355
25449SOL    HW278187  14.105  13.082   8.218
25450SOL     OW78188   1.172  12.607   4.709
25450SOL    HW178189   1.102  12.643   4.764
25450SOL    HW278190   1.178  12.668   4.635
25451SOL     OW78191  14.184   2.802  14.229
25451SOL    HW178192  14.254   2.861  14.256
25451SOL    HW278193  14.132   2.788  14.308
25452SOL     OW78194   5.795   2.528   4.765
25452SOL    HW178195   5.774   2.621   4.771
25452SOL    HW278196   5.783   2.506   4.673
25453SOL     OW78197   5.391   7.743  10.206
25453SOL    HW178198   5.405   7.778  10.294
25453SOL    HW278199   5.330   7.805  10.165
25454SOL     OW78200   9.401   0.601  13.996
25454SOL    HW178201   9.367   0.668  13.937
25454SOL    HW278202   9.381   0.634  14.084
25455SOL     OW78203  14.423   4.634  10.830
25455SOL    HW178204  14.458   4.546  10.819
25455SOL    HW278205  14.419   4.646  10.925
25456SOL     OW78206  10.101  11.024   6.875
25456SOL    HW178207  10.127  11.117   6.875
25456SOL    HW278208  10.119  10.994   6.786
25457SOL     OW78209   9.492   5.756   3.915
25457SOL    HW178210   9.549   5.792   3.847
25457SOL    HW278211   9.540   5.769   3.996
25458SOL     OW78212   8.454   9.800   5.227
25458SOL    HW178213   8.367   9.819   5.262
25458SOL    HW278214   8.485   9.726   5.279
25459SOL     OW78215   8.203   1.251   1.463
25459SOL    HW178216   8.296   1.234   1.474
25459SOL    HW278217   8.195   1.286   1.375
25460SOL     OW78218   5.380   3.268  13.586
25460SOL    HW178219   5.448   3.201  13.592
25460SOL    HW278220   5.396   3.325  13.662
25461SOL     OW78221  14.785   9.560  10.526
25461SOL    HW178222  14.811   9.563  10.434
25461SOL    HW278223  14.823   9.639  10.564
25462SOL     OW78224   3.717  13.083  14.068
25462SOL    HW178225   3.781  13.015  14.047
25462SOL    HW278226   3.743  13.114  14.155
25463SOL     OW78227   2.613   8.796  11.414
25463SOL    HW178228   2.533   8.761  11.453
25463SOL    HW278229   2.650   8.723  11.365
25464SOL     OW78230   4.167   6.952   5.960
25464SOL    HW178231   4.214   6.885   6.008
25464SOL    HW278232   4.228   7.025   5.954
25465SOL     OW78233   4.651  11.073  13.649
25465SOL    HW178234   4.726  11.123  13.617
25465SOL    HW278235   4.583  11.087  13.583
25466SOL     OW78236   8.987   1.880   5.857
25466SOL    HW178237   9.030   1.938   5.795
25466SOL    HW278238   9.009   1.792   5.828
25467SOL     OW78239  10.157   8.792   4.978
25467SOL    HW178240  10.072   8.761   4.946
25467SOL    HW278241  10.136   8.873   5.025
25468SOL     OW78242   6.177  14.863   9.353
25468SOL    HW178243   6.128  14.783   9.334
25468SOL    HW278244   6.111   0.049   9.374
25469SOL     OW78245  13.995   3.818   4.622
25469SOL    HW178246  14.003   3.851   4.533
25469SOL    HW278247  13.908   3.778   4.626
25470SOL     OW78248   0.529   0.561   7.023
25470SOL    HW178249   0.568   0.485   6.979
25470SOL    HW278250   0.571   0.636   6.982
25471SOL     OW78251   1.176  10.238   1.516
25471SOL    HW178252   1.248  10.286   1.475
25471SOL    HW278253   1.218  10.178   1.577
25472SOL     OW78254  10.211  14.657   0.241
25472SOL    HW178255  10.262  14.656   0.321
25472SOL    HW278256  10.197  14.750   0.222
25473SOL     OW78257  11.093  14.607   0.669
25473SOL    HW178258  11.100  14.687   0.617
25473SOL    HW278259  11.184  14.578   0.681
25474SOL     OW78260  11.161   2.382   1.903
25474SOL    HW178261  11.194   2.471   1.896
25474SOL    HW278262  11.239   2.327   1.906
25475SOL     OW78263   1.764   7.987   2.214
25475SOL    HW178264   1.712   7.916   2.176
25475SOL    HW278265   1.824   7.943   2.274
25476SOL     OW78266  12.026   9.305  13.154
25476SOL    HW178267  11.959   9.365  13.123
25476SOL    HW278268  12.107   9.335  13.113
25477SOL     OW78269  13.224  13.906   8.528
25477SOL    HW178270  13.180  13.822   8.537
25477SOL    HW278271  13.184  13.946   8.450
25478SOL     OW78272  11.430   0.648  10.383
25478SOL    HW178273  11.515   0.671  10.422
25478SOL    HW278274  11.446   0.564  10.339
25479SOL     OW78275   1.636  10.612   9.041
25479SOL    HW178276   1.621  10.702   9.071
25479SOL    HW278277   1.652  10.620   8.947
25480SOL     OW78278   9.123   1.109   4.373
25480SOL    HW178279   9.202   1.122   4.425
25480SOL    HW278280   9.154   1.065   4.294
25481SOL     OW78281   0.427   4.848   1.844
25481SOL    HW178282   0.472   4.790   1.783
25481SOL    HW278283   0.369   4.901   1.789
25482SOL     OW78284  11.408  11.642  10.321
25482SOL    HW178285  11.321  11.618  10.289
25482SOL    HW278286  11.463  11.641  10.244
25483SOL     OW78287   6.033  14.740   9.663
25483SOL    HW178288   6.111  14.729   9.609
25483SOL    HW278289   5.992  14.653   9.665
25484SOL     OW78290  10.201  10.843   0.620
25484SOL    HW178291  10.269  10.845   0.687
25484SOL    HW278292  10.181  10.935   0.603
25485SOL     OW78293   5.273   0.130   7.637
25485SOL    HW178294   5.279   0.137   7.541
25485SOL    HW278295   5.184   0.157   7.657
25486SOL     OW78296   8.160   7.324   3.556
25486SOL    HW178297   8.169   7.343   3.463
25486SOL    HW278298   8.215   7.388   3.600
25487SOL     OW78299   5.244   4.921  10.932
25487SOL    HW178300   5.229   4.981  10.859
25487SOL    HW278301   5.292   4.848  10.894
25488SOL     OW78302   0.964   3.385  13.251
25488SOL    HW178303   0.938   3.389  13.342
25488SOL    HW278304   0.956   3.475  13.219
25489SOL     OW78305   3.839  10.690  13.421
25489SOL    HW178306   3.862  10.641  13.499
25489SOL    HW278307   3.855  10.781  13.444
25490SOL     OW78308  10.077  14.493   5.752
25490SOL    HW178309  10.118  14.556   5.810
25490SOL    HW278310  10.072  14.412   5.802
25491SOL     OW78311   6.064   6.180   3.502
25491SOL    HW178312   6.088   6.215   3.588
25491SOL    HW278313   6.133   6.116   3.482
25492SOL     OW78314   9.652   9.144  13.129
25492SOL    HW178315   9.651   9.210  13.060
25492SOL    HW278316   9.741   9.109  13.127
25493SOL     OW78317   2.121  14.680   4.236
25493SOL    HW178318   2.184  14.645   4.300
25493SOL    HW278319   2.063  14.736   4.287
25494SOL     OW78320   2.446   4.620  11.467
25494SOL    HW178321   2.456   4.694  11.408
25494SOL    HW278322   2.533   4.606  11.505
25495SOL     OW78323   1.781   5.728   6.554
25495SOL    HW178324   1.743   5.801   6.505
25495SOL    HW278325   1.869   5.758   6.578
25496SOL     OW78326   1.483  10.244   8.233
25496SOL    HW178327   1.515  10.228   8.322
25496SOL    HW278328   1.561  10.269   8.183
25497SOL     OW78329   1.577   1.833   1.521
25497SOL    HW178330   1.561   1.917   1.479
25497SOL    HW278331   1.652   1.849   1.578
25498SOL     OW78332   6.634   2.362   0.101
25498SOL    HW178333   6.611   2.284   0.051
25498SOL    HW278334   6.715   2.338   0.146
25499SOL     OW78335   3.736   2.405   1.747
25499SOL    HW178336   3.666   2.456   1.787
25499SOL    HW278337   3.800   2.393   1.816
25500SOL     OW78338  13.834  10.777  10.392
25500SOL    HW178339  13.846  10.858  10.442
25500SOL    HW278340  13.901  10.781  10.324
25501SOL     OW78341   2.980   0.713   8.661
25501SOL    HW178342   2.899   0.763   8.674
25501SOL    HW278343   3.010   0.738   8.574
25502SOL     OW78344   9.100   9.807   1.646
25502SOL    HW178345   9.157   9.775   1.576
25502SOL    HW278346   9.153   9.872   1.692
25503SOL     OW78347   2.635   5.881   0.449
25503SOL    HW178348   2.641   5.786   0.449
25503SOL    HW278349   2.726   5.911   0.449
25504SOL     OW78350   0.302  12.079   5.036
25504SOL    HW178351   0.229  12.026   5.004
25504SOL    HW278352   0.352  12.020   5.093
25505SOL     OW78353   6.065   6.918   5.437
25505SOL    HW178354   6.114   6.836   5.434
25505SOL    HW278355   6.090   6.958   5.520
25506SOL     OW78356   6.042  12.193   7.050
25506SOL    HW178357   6.003  12.151   6.973
25506SOL    HW278358   6.130  12.157   7.055
25507SOL     OW78359   7.499   2.423   0.535
25507SOL    HW178360   7.423   2.371   0.511
25507SOL    HW278361   7.486   2.445   0.627
25508SOL     OW78362   4.100   3.885   1.082
25508SOL    HW178363   4.168   3.891   1.014
25508SOL    HW278364   4.137   3.930   1.158
25509SOL     OW78365   3.207  13.243  13.242
25509SOL    HW178366   3.289  13.204  13.211
25509SOL    HW278367   3.211  13.334  13.212
25510SOL     OW78368   3.341   2.449   5.217
25510SOL    HW178369   3.420   2.504   5.217
25510SOL    HW278370   3.336   2.415   5.307
25511SOL     OW78371   3.500   3.760  14.771
25511SOL    HW178372   3.420   3.729  14.814
25511SOL    HW278373   3.570   3.732  14.829
25512SOL     OW78374  10.364   4.886   5.670
25512SOL    HW178375  10.334   4.879   5.579
25512SOL    HW278376  10.376   4.980   5.684
25513SOL     OW78377  14.849   9.231   7.051
25513SOL    HW178378  14.872   9.147   7.091
25513SOL    HW278379   0.023   9.295   7.098
25514SOL     OW78380  13.307   9.922   1.708
25514SOL    HW178381  13.316   9.894   1.799
25514SOL    HW278382  13.226   9.974   1.707
25515SOL     OW78383   1.606   3.198   7.331
25515SOL    HW178384   1.571   3.148   7.258
25515SOL    HW278385   1.683   3.243   7.295
25516SOL     OW78386   3.984   6.362   3.498
25516SOL    HW178387   3.986   6.267   3.490
25516SOL    HW278388   3.949   6.379   3.585
25517SOL     OW78389   1.521  12.857  14.678
25517SOL    HW178390   1.428  12.863  14.659
25517SOL    HW278391   1.549  12.776  14.635
25518SOL     OW78392   5.074   5.478   5.932
25518SOL    HW178393   5.051   5.440   6.017
25518SOL    HW278394   5.006   5.543   5.916
25519SOL     OW78395  10.640   8.544   1.078
25519SOL    HW178396  10.698   8.608   1.118
25519SOL    HW278397  10.675   8.530   0.990
25520SOL     OW78398   2.475   3.515   8.403
25520SOL    HW178399   2.397   3.517   8.349
25520SOL    HW278400   2.444   3.537   8.491
25521SOL     OW78401  12.161   2.335   2.022
25521SOL    HW178402  12.071   2.320   2.051
25521SOL    HW278403  12.152   2.362   1.930
25522SOL     OW78404   4.979   3.039   4.006
25522SOL    HW178405   5.037   3.080   4.070
25522SOL    HW278406   5.034   2.976   3.961
25523SOL     OW78407   2.975   0.773   0.314
25523SOL    HW178408   3.050   0.714   0.321
25523SOL    HW278409   2.899   0.716   0.313
25524SOL     OW78410   0.906  11.985   6.934
25524SOL    HW178411   0.935  11.903   6.974
25524SOL    HW278412   0.899  11.964   6.840
25525SOL     OW78413  12.577   7.861   1.101
25525SOL    HW178414  12.607   7.770   1.110
25525SOL    HW278415  12.485   7.854   1.073
25526SOL     OW78416   7.026  10.897   6.122
25526SOL    HW178417   7.018  10.853   6.207
25526SOL    HW278418   7.008  10.989   6.141
25527SOL     OW78419   3.028   8.452  10.698
25527SOL    HW178420   3.122   8.466  10.708
25527SOL    HW278421   2.994   8.537  10.670
25528SOL     OW78422  14.696  12.360  11.756
25528SOL    HW178423  14.635  12.300  11.714
25528SOL    HW278424  14.639  12.422  11.803
25529SOL     OW78425   1.846   5.143   2.657
25529SOL    HW178426   1.790   5.081   2.704
25529SOL    HW278427   1.905   5.088   2.606
25530SOL     OW78428   6.723   8.069   4.022
25530SOL    HW178429   6.757   8.086   3.934
25530SOL    HW278430   6.713   8.156   4.061
25531SOL     OW78431  11.411  11.182   8.494
25531SOL    HW178432  11.436  11.110   8.553
25531SOL    HW278433  11.470  11.171   8.418
25532SOL     OW78434   3.385   3.934   4.987
25532SOL    HW178435   3.357   3.919   4.897
25532SOL    HW278436   3.466   3.986   4.979
25533SOL     OW78437   0.868   3.234   2.370
25533SOL    HW178438   0.808   3.293   2.325
25533SOL    HW278439   0.954   3.255   2.332
25534SOL     OW78440   1.292   7.328   7.895
25534SOL    HW178441   1.284   7.234   7.911
25534SOL    HW278442   1.208   7.353   7.856
25535SOL     OW78443  13.183   0.906   4.909
25535SOL    HW178444  13.277   0.897   4.926
25535SOL    HW278445  13.161   0.994   4.940
25536SOL     OW78446   9.990   0.595   9.493
25536SOL    HW178447   9.953   0.671   9.537
25536SOL    HW278448   9.918   0.558   9.443
25537SOL     OW78449  10.599   2.282   8.516
25537SOL    HW178450  10.627   2.209   8.570
25537SOL    HW278451  10.582   2.244   8.430
25538SOL     OW78452   9.518   2.977  14.694
25538SOL    HW178453   9.579   3.013  14.630
25538SOL    HW278454   9.458   3.050  14.714
25539SOL     OW78455  11.808   5.441  14.240
25539SOL    HW178456  11.857   5.523  14.231
25539SOL    HW278457  11.810   5.402  14.153
25540SOL     OW78458  10.053   0.154   6.052
25540SOL    HW178459  10.035   0.235   6.100
25540SOL    HW278460  10.101   0.183   5.975
25541SOL     OW78461   1.737   9.779   3.390
25541SOL    HW178462   1.702   9.826   3.466
25541SOL    HW278463   1.689   9.696   3.388
25542SOL     OW78464   5.784   3.271   8.656
25542SOL    HW178465   5.813   3.325   8.582
25542SOL    HW278466   5.833   3.306   8.731
25543SOL     OW78467   3.074   1.892   1.454
25543SOL    HW178468   3.143   1.828   1.474
25543SOL    HW278469   3.054   1.878   1.362
25544SOL     OW78470   2.030  12.520   3.090
25544SOL    HW178471   2.119  12.527   3.054
25544SOL    HW278472   1.987  12.455   3.034
25545SOL     OW78473   9.184   0.522  12.170
25545SOL    HW178474   9.226   0.607  12.159
25545SOL    HW278475   9.102   0.529  12.121
25546SOL     OW78476  11.017   6.170   1.878
25546SOL    HW178477  11.105   6.191   1.848
25546SOL    HW278478  10.960   6.197   1.806
25547SOL     OW78479  11.733  12.605   3.502
25547SOL    HW178480  11.637  12.611   3.495
25547SOL    HW278481  11.749  12.514   3.527
25548SOL     OW78482  13.559   9.241   3.069
25548SOL    HW178483  13.587   9.152   3.050
25548SOL    HW278484  13.487   9.231   3.132
25549SOL     OW78485   0.649  12.592  14.870
25549SOL    HW178486   0.643  12.661   0.057
25549SOL    HW278487   0.735  12.554   0.004
25550SOL     OW78488  13.829   4.156  12.427
25550SOL    HW178489  13.828   4.251  12.419
25550SOL    HW278490  13.818   4.124  12.337
25551SOL     OW78491   4.708   9.377   6.173
25551SOL    HW178492   4.775   9.359   6.240
25551SOL    HW278493   4.643   9.308   6.185
25552SOL     OW78494   0.052   2.559   9.163
25552SOL    HW178495  14.873   2.516   9.225
25552SOL    HW278496   0.060   2.648   9.196
25553SOL     OW78497  11.683   8.680  14.668
25553SOL    HW178498  11.751   8.623  14.704
25553SOL    HW278499  11.628   8.702  14.743
25554SOL     OW78500   3.228   6.384  13.504
25554SOL    HW178501   3.256   6.413  13.591
25554SOL    HW278502   3.272   6.444  13.444
25555SOL     OW78503   4.877  14.512  11.537
25555SOL    HW178504   4.820  14.561  11.477
25555SOL    HW278505   4.940  14.577  11.567
25556SOL     OW78506  11.774   4.524  11.606
25556SOL    HW178507  11.682   4.529  11.630
25556SOL    HW278508  11.810   4.609  11.630
25557SOL     OW78509   5.888   8.065  14.085
25557SOL    HW178510   5.839   8.007  14.027
25557SOL    HW278511   5.922   8.007  14.153
25558SOL     OW78512   8.222   7.756   8.320
25558SOL    HW178513   8.182   7.843   8.319
25558SOL    HW278514   8.313   7.771   8.342
25559SOL     OW78515  12.415   7.119   8.056
25559SOL    HW178516  12.345   7.132   7.992
25559SOL    HW278517  12.370   7.085   8.134
25560SOL     OW78518   9.827   9.578  13.576
25560SOL    HW178519   9.870   9.658  13.606
25560SOL    HW278520   9.736   9.602  13.563
25561SOL     OW78521  13.253  12.213  11.490
25561SOL    HW178522  13.298  12.135  11.459
25561SOL    HW278523  13.198  12.241  11.417
25562SOL     OW78524   6.882  13.814   9.817
25562SOL    HW178525   6.942  13.878   9.855
25562SOL    HW278526   6.796  13.837   9.854
25563SOL     OW78527   0.029   5.823   9.877
25563SOL    HW178528  14.839   5.800   9.938
25563SOL    HW278529   0.094   5.870   9.930
25564SOL     OW78530  13.870   2.724   0.391
25564SOL    HW178531  13.859   2.806   0.343
25564SOL    HW278532  13.964   2.711   0.396
25565SOL     OW78533   6.452  13.983   5.402
25565SOL    HW178534   6.385  14.012   5.340
25565SOL    HW278535   6.512  14.057   5.411
25566SOL     OW78536   7.033   1.225   4.366
25566SOL    HW178537   6.960   1.245   4.308
25566SOL    HW278538   7.018   1.278   4.444
25567SOL     OW78539   6.147  10.904   4.982
25567SOL    HW178540   6.184  10.820   4.955
25567SOL    HW278541   6.189  10.968   4.925
25568SOL     OW78542   6.438   7.865   2.174
25568SOL    HW178543   6.495   7.798   2.138
25568SOL    HW278544   6.385   7.820   2.240
25569SOL     OW78545   0.416  11.509   9.584
25569SOL    HW178546   0.436  11.583   9.642
25569SOL    HW278547   0.502  11.477   9.557
25570SOL     OW78548  11.262  11.127   3.869
25570SOL    HW178549  11.328  11.143   3.802
25570SOL    HW278550  11.187  11.181   3.843
25571SOL     OW78551   7.924  11.714  11.361
25571SOL    HW178552   7.839  11.674  11.380
25571SOL    HW278553   7.903  11.799  11.323
25572SOL     OW78554   7.995   3.169  14.415
25572SOL    HW178555   8.042   3.086  14.409
25572SOL    HW278556   7.988   3.199  14.324
25573SOL     OW78557   7.058   1.024   2.743
25573SOL    HW178558   7.002   1.093   2.708
25573SOL    HW278559   7.072   1.048   2.834
25574SOL     OW78560  13.022  10.862   4.677
25574SOL    HW178561  13.043  10.909   4.757
25574SOL    HW278562  13.096  10.804   4.662
25575SOL     OW78563   5.676  12.903   6.771
25575SOL    HW178564   5.649  12.874   6.684
25575SOL    HW278565   5.594  12.925   6.816
25576SOL     OW78566   9.653  12.685  12.131
25576SOL    HW178567   9.571  12.682  12.181
25576SOL    HW278568   9.627  12.715  12.044
25577SOL     OW78569   6.112   0.145   1.799
25577SOL    HW178570   6.203   0.142   1.769
25577SOL    HW278571   6.087   0.237   1.790
25578SOL     OW78572   9.161  14.719  12.476
25578SOL    HW178573   9.228  14.757  12.532
25578SOL    HW278574   9.148  14.630  12.510
25579SOL     OW78575   1.033   5.074   6.548
25579SOL    HW178576   0.983   5.154   6.562
25579SOL    HW278577   1.069   5.054   6.635
25580SOL     OW78578  11.529  12.344  13.399
25580SOL    HW178579  11.534  12.269  13.340
25580SOL    HW278580  11.598  12.403  13.369
25581SOL     OW78581  13.748   0.379   4.245
25581SOL    HW178582  13.707   0.294   4.263
25581SOL    HW278583  13.740   0.389   4.150
25582SOL     OW78584   9.055   0.811   4.155
25582SOL    HW178585   8.962   0.831   4.144
25582SOL    HW278586   9.100   0.890   4.124
25583SOL     OW78587   5.983   2.260   9.030
25583SOL    HW178588   5.931   2.340   9.022
25583SOL    HW278589   6.025   2.249   8.944
25584SOL     OW78590   7.158  12.131  11.326
25584SOL    HW178591   7.096  12.160  11.393
25584SOL    HW278592   7.137  12.184  11.249
25585SOL     OW78593  11.569   4.580   6.529
25585SOL    HW178594  11.652   4.566   6.484
25585SOL    HW278595  11.505   4.532   6.477
25586SOL     OW78596   3.885   5.756   4.846
25586SOL    HW178597   3.856   5.737   4.757
25586SOL    HW278598   3.824   5.822   4.878
25587SOL     OW78599   9.431   4.160  10.427
25587SOL    HW178600   9.432   4.067  10.449
25587SOL    HW278601   9.424   4.161  10.331
25588SOL     OW78602   8.111   9.048   4.865
25588SOL    HW178603   8.163   9.006   4.933
25588SOL    HW278604   8.155   9.023   4.783
25589SOL     OW78605   6.119   0.311   0.854
25589SOL    HW178606   6.183   0.251   0.815
25589SOL    HW278607   6.143   0.315   0.946
25590SOL     OW78608  11.656   6.219   4.550
25590SOL    HW178609  11.561   6.207   4.547
25590SOL    HW278610  11.690   6.161   4.481
25591SOL     OW78611  11.764  12.039   6.847
25591SOL    HW178612  11.744  12.097   6.774
25591SOL    HW278613  11.856  12.055   6.867
25592SOL     OW78614   7.156   9.561   9.932
25592SOL    HW178615   7.138   9.468   9.946
25592SOL    HW278616   7.170   9.568   9.837
25593SOL     OW78617  11.826  10.441  10.435
25593SOL    HW178618  11.842  10.535  10.448
25593SOL    HW278619  11.798  10.434  10.343
25594SOL     OW78620   8.369   1.623   5.876
25594SOL    HW178621   8.352   1.657   5.789
25594SOL    HW278622   8.287   1.583   5.903
25595SOL     OW78623  10.597   0.117   3.906
25595SOL    HW178624  10.582   0.193   3.962
25595SOL    HW278625  10.518   0.064   3.917
25596SOL     OW78626   4.260  11.703   3.173
25596SOL    HW178627   4.309  11.626   3.200
25596SOL    HW278628   4.294  11.774   3.226
25597SOL     OW78629   0.992   8.002   9.273
25597SOL    HW178630   0.984   7.927   9.332
25597SOL    HW278631   0.917   7.994   9.214
25598SOL     OW78632   4.963   4.401  11.015
25598SOL    HW178633   4.944   4.491  10.988
25598SOL    HW278634   5.058   4.394  11.010
25599SOL     OW78635  14.685   0.743   0.658
25599SOL    HW178636  14.764   0.739   0.712
25599SOL    HW278637  14.717   0.732   0.568
25600SOL     OW78638   8.512  10.043  11.508
25600SOL    HW178639   8.591  10.046  11.454
25600SOL    HW278640   8.449  10.099  11.462
25601SOL     OW78641  14.309   5.237  12.241
25601SOL    HW178642  14.300   5.220  12.147
25601SOL    HW278643  14.274   5.325  12.254
25602SOL     OW78644   3.700   0.638   6.112
25602SOL    HW178645   3.712   0.610   6.202
25602SOL    HW278646   3.605   0.637   6.099
25603SOL     OW78647   9.096   4.978   6.209
25603SOL    HW178648   9.145   4.969   6.291
25603SOL    HW278649   9.109   5.069   6.183
25604SOL     OW78650   9.875   9.986   1.178
25604SOL    HW178651   9.852  10.073   1.145
25604SOL    HW278652   9.947   9.957   1.122
25605SOL     OW78653   6.714  10.462  13.700
25605SOL    HW178654   6.700  10.538  13.644
25605SOL    HW278655   6.630  10.418  13.703
25606SOL     OW78656   2.153   8.754   3.201
25606SOL    HW178657   2.151   8.673   3.151
25606SOL    HW278658   2.068   8.758   3.245
25607SOL     OW78659   1.167   4.919   7.780
25607SOL    HW178660   1.226   4.861   7.733
25607SOL    HW278661   1.081   4.876   7.775
25608SOL     OW78662   2.929   6.778  13.657
25608SOL    HW178663   2.870   6.836  13.609
25608SOL    HW278664   3.010   6.779  13.605
25609SOL     OW78665   3.679   1.090  14.559
25609SOL    HW178666   3.641   1.178  14.564
25609SOL    HW278667   3.736   1.084  14.635
25610SOL     OW78668   8.991   4.398   3.645
25610SOL    HW178669   9.034   4.382   3.561
25610SOL    HW278670   9.018   4.487   3.669
25611SOL     OW78671   9.471  12.081  10.904
25611SOL    HW178672   9.377  12.063  10.893
25611SOL    HW278673   9.490  12.150  10.841
25612SOL     OW78674  13.338   5.949   3.315
25612SOL    HW178675  13.317   6.034   3.275
25612SOL    HW278676  13.280   5.887   3.273
25613SOL     OW78677   2.935  11.474  11.557
25613SOL    HW178678   3.018  11.426  11.560
25613SOL    HW278679   2.959  11.561  11.525
25614SOL     OW78680  14.602  11.339   8.941
25614SOL    HW178681  14.688  11.361   8.975
25614SOL    HW278682  14.619  11.279   8.869
25615SOL     OW78683  14.198   2.961  12.324
25615SOL    HW178684  14.167   3.021  12.256
25615SOL    HW278685  14.292   2.953  12.308
25616SOL     OW78686   4.259   3.007   6.697
25616SOL    HW178687   4.350   2.986   6.714
25616SOL    HW278688   4.258   3.035   6.605
25617SOL     OW78689  14.527  13.567   7.583
25617SOL    HW178690  14.459  13.548   7.648
25617SOL    HW278691  14.479  13.584   7.502
25618SOL     OW78692  12.302   8.510   1.029
25618SOL    HW178693  12.238   8.563   1.075
25618SOL    HW278694  12.356   8.573   0.980
25619SOL     OW78695   4.264   1.416  11.476
25619SOL    HW178696   4.271   1.461  11.391
25619SOL    HW278697   4.270   1.487  11.540
25620SOL     OW78698   4.231   5.407  11.397
25620SOL    HW178699   4.195   5.325  11.430
25620SOL    HW278700   4.298   5.431  11.461
25621SOL     OW78701  13.787   1.224  11.622
25621SOL    HW178702  13.796   1.175  11.704
25621SOL    HW278703  13.821   1.165  11.555
25622SOL     OW78704   3.731  11.296   9.862
25622SOL    HW178705   3.640  11.302   9.832
25622SOL    HW278706   3.725  11.303   9.957
25623SOL     OW78707  10.564  12.521  14.755
25623SOL    HW178708  10.635  12.509  14.691
25623SOL    HW278709  10.506  12.446  14.741
25624SOL     OW78710   0.606  10.239  14.786
25624SOL    HW178711   0.524  10.192  14.801
25624SOL    HW278712   0.581  10.332  14.785
25625SOL     OW78713   7.875   9.244   2.409
25625SOL    HW178714   7.830   9.166   2.439
25625SOL    HW278715   7.898   9.225   2.318
25626SOL     OW78716  10.736  13.056   9.916
25626SOL    HW178717  10.786  13.125   9.871
25626SOL    HW278718  10.647  13.090   9.919
25627SOL     OW78719   4.919   6.285   7.485
25627SOL    HW178720   4.940   6.239   7.404
25627SOL    HW278721   4.983   6.252   7.549
25628SOL     OW78722   3.051   8.540  13.103
25628SOL    HW178723   3.117   8.604  13.076
25628SOL    HW278724   2.995   8.589  13.164
25629SOL     OW78725   3.993   8.282   2.013
25629SOL    HW178726   3.940   8.314   2.086
25629SOL    HW278727   3.978   8.346   1.943
25630SOL     OW78728   0.349   6.835   5.281
25630SOL    HW178729   0.343   6.760   5.339
25630SOL    HW278730   0.292   6.901   5.320
25631SOL     OW78731  13.398   2.836  13.893
25631SOL    HW178732  13.431   2.747  13.899
25631SOL    HW278733  13.329   2.832  13.828
25632SOL     OW78734  10.784   4.008   3.833
25632SOL    HW178735  10.820   4.067   3.767
25632SOL    HW278736  10.733   3.944   3.784
25633SOL     OW78737   1.426   2.225   8.387
25633SOL    HW178738   1.443   2.311   8.426
25633SOL    HW278739   1.421   2.166   8.462
25634SOL     OW78740  12.440  14.638   0.441
25634SOL    HW178741  12.485  14.578   0.381
25634SOL    HW278742  12.470  14.725   0.415
25635SOL     OW78743   5.958   5.597  12.269
25635SOL    HW178744   5.968   5.676  12.216
25635SOL    HW278745   5.871   5.605  12.309
25636SOL     OW78746   9.570  11.963  13.830
25636SOL    HW178747   9.558  12.019  13.753
25636SOL    HW278748   9.503  11.896  13.822
25637SOL     OW78749   1.373  12.398   3.724
25637SOL    HW178750   1.355  12.492   3.714
25637SOL    HW278751   1.462  12.395   3.760
25638SOL     OW78752  13.382   4.917   4.110
25638SOL    HW178753  13.294   4.945   4.134
25638SOL    HW278754  13.421   4.994   4.068
25639SOL     OW78755  13.034   3.099   0.551
25639SOL    HW178756  13.060   3.191   0.554
25639SOL    HW278757  13.111   3.052   0.520
25640SOL     OW78758   8.168   9.343   0.930
25640SOL    HW178759   8.113   9.276   0.888
25640SOL    HW278760   8.142   9.342   1.022
25641SOL     OW78761  12.852   3.379   1.886
25641SOL    HW178762  12.946   3.367   1.896
25641SOL    HW278763  12.816   3.355   1.972
25642SOL     OW78764   1.274   2.995   8.198
25642SOL    HW178765   1.265   2.931   8.268
25642SOL    HW278766   1.307   2.946   8.123
25643SOL     OW78767   8.712  10.309   4.174
25643SOL    HW178768   8.654  10.281   4.246
25643SOL    HW278769   8.697  10.403   4.166
25644SOL     OW78770   7.737   7.383   3.377
25644SOL    HW178771   7.685   7.353   3.451
25644SOL    HW278772   7.780   7.463   3.407
25645SOL     OW78773   4.082   5.589   9.722
25645SOL    HW178774   4.015   5.520   9.720
25645SOL    HW278775   4.165   5.541   9.725
25646SOL     OW78776   6.658   9.550   4.330
25646SOL    HW178777   6.715   9.622   4.303
25646SOL    HW278778   6.575   9.593   4.351
25647SOL     OW78779   5.979  11.428   9.193
25647SOL    HW178780   5.982  11.486   9.269
25647SOL    HW278781   5.908  11.463   9.139
25648SOL     OW78782   4.992  14.204  10.385
25648SOL    HW178783   5.073  14.183  10.338
25648SOL    HW278784   4.933  14.132  10.363
25649SOL     OW78785   0.424  11.309   4.917
25649SOL    HW178786   0.383  11.254   4.984
25649SOL    HW278787   0.460  11.246   4.854
25650SOL     OW78788  12.601   9.968   3.293
25650SOL    HW178789  12.521   9.998   3.249
25650SOL    HW278790  12.661  10.043   3.287
25651SOL     OW78791   6.924   7.230  13.663
25651SOL    HW178792   6.957   7.142  13.684
25651SOL    HW278793   6.986   7.289  13.706
25652SOL     OW78794   4.404   4.210   9.482
25652SOL    HW178795   4.451   4.293   9.477
25652SOL    HW278796   4.401   4.190   9.576
25653SOL     OW78797   6.584  14.532   8.256
25653SOL    HW178798   6.649  14.561   8.193
25653SOL    HW278799   6.543  14.613   8.287
25654SOL     OW78800  11.502  13.000   5.244
25654SOL    HW178801  11.435  12.956   5.296
25654SOL    HW278802  11.453  13.059   5.187
25655SOL     OW78803   8.471   7.479   8.247
25655SOL    HW178804   8.524   7.480   8.327
25655SOL    HW278805   8.451   7.571   8.230
25656SOL     OW78806   5.317   2.109  13.040
25656SOL    HW178807   5.387   2.114  13.105
25656SOL    HW278808   5.260   2.183  13.060
25657SOL     OW78809  10.876   0.847   9.725
25657SOL    HW178810  10.840   0.759   9.736
25657SOL    HW278811  10.801   0.901   9.698
25658SOL     OW78812   8.682   1.500   4.012
25658SOL    HW178813   8.773   1.474   3.999
25658SOL    HW278814   8.684   1.596   4.015
25659SOL     OW78815  13.581   9.222  14.479
25659SOL    HW178816  13.633   9.187  14.407
25659SOL    HW278817  13.490   9.205  14.453
25660SOL     OW78818   1.787   5.706  11.712
25660SOL    HW178819   1.840   5.661  11.646
25660SOL    HW278820   1.774   5.640  11.781
25661SOL     OW78821  14.629  12.825  11.722
25661SOL    HW178822  14.653  12.828  11.814
25661SOL    HW278823  14.542  12.866  11.719
25662SOL     OW78824   7.772   1.017  10.958
25662SOL    HW178825   7.814   1.090  10.913
25662SOL    HW278826   7.805   1.022  11.048
25663SOL     OW78827   3.518   4.084   1.295
25663SOL    HW178828   3.537   3.995   1.268
25663SOL    HW278829   3.568   4.096   1.375
25664SOL     OW78830   0.021   0.219  10.631
25664SOL    HW178831  14.831   0.210  10.567
25664SOL    HW278832  14.856   0.215  10.716
25665SOL     OW78833  14.866  11.762   2.501
25665SOL    HW178834  14.778  11.775   2.538
25665SOL    HW278835   0.036  11.721   2.572
25666SOL     OW78836   2.646   3.970   9.366
25666SOL    HW178837   2.650   4.021   9.285
25666SOL    HW278838   2.552   3.963   9.385
25667SOL     OW78839   8.386  14.187   1.023
25667SOL    HW178840   8.324  14.121   0.994
25667SOL    HW278841   8.357  14.210   1.111
25668SOL     OW78842   2.637   6.899   8.014
25668SOL    HW178843   2.616   6.807   8.031
25668SOL    HW278844   2.596   6.946   8.087
25669SOL     OW78845   4.082   8.892   2.110
25669SOL    HW178846   4.149   8.941   2.063
25669SOL    HW278847   4.117   8.803   2.117
25670SOL     OW78848   9.366  12.212   1.793
25670SOL    HW178849   9.447  12.184   1.751
25670SOL    HW278850   9.395  12.251   1.876
25671SOL     OW78851   8.201  11.723   8.658
25671SOL    HW178852   8.109  11.704   8.639
25671SOL    HW278853   8.219  11.804   8.611
25672SOL     OW78854  11.712   1.142   0.024
25672SOL    HW178855  11.689   1.202  14.833
25672SOL    HW278856  11.791   1.180   0.063
25673SOL     OW78857   0.238   4.203  10.258
25673SOL    HW178858   0.168   4.171  10.201
25673SOL    HW278859   0.306   4.137  10.252
25674SOL     OW78860   9.143   6.959  14.515
25674SOL    HW178861   9.146   6.894  14.444
25674SOL    HW278862   9.131   6.906  14.594
25675SOL     OW78863   0.524   6.065   4.715
25675SOL    HW178864   0.498   6.154   4.693
25675SOL    HW278865   0.558   6.029   4.632
25676SOL     OW78866  14.043  10.271   3.431
25676SOL    HW178867  14.110  10.204   3.443
25676SOL    HW278868  14.038  10.315   3.516
25677SOL     OW78869   4.537  10.761   1.107
25677SOL    HW178870   4.500  10.700   1.172
25677SOL    HW278871   4.523  10.847   1.146
25678SOL     OW78872   4.538   9.609  13.798
25678SOL    HW178873   4.507   9.590  13.887
25678SOL    HW278874   4.466   9.657  13.757
25679SOL     OW78875  14.421   8.895   1.466
25679SOL    HW178876  14.465   8.962   1.519
25679SOL    HW278877  14.429   8.928   1.376
25680SOL     OW78878   6.658  12.199   5.796
25680SOL    HW178879   6.594  12.263   5.765
25680SOL    HW278880   6.627  12.175   5.884
25681SOL     OW78881  12.454   0.890   4.261
25681SOL    HW178882  12.462   0.971   4.210
25681SOL    HW278883  12.504   0.906   4.341
25682SOL     OW78884   1.655  14.848   1.003
25682SOL    HW178885   1.629   0.056   0.972
25682SOL    HW278886   1.610  14.839   1.087
25683SOL     OW78887   2.850   8.104  12.624
25683SOL    HW178888   2.776   8.161  12.604
25683SOL    HW278889   2.838   8.080  12.716
25684SOL     OW78890   6.801  13.403  10.723
25684SOL    HW178891   6.732  13.405  10.790
25684SOL    HW278892   6.754  13.401  10.640
25685SOL     OW78893   3.496   2.974  14.322
25685SOL    HW178894   3.415   3.017  14.294
25685SOL    HW278895   3.477   2.943  14.410
25686SOL     OW78896  12.000   9.733  12.001
25686SOL    HW178897  11.999   9.717  12.095
25686SOL    HW278898  11.992   9.645  11.962
25687SOL     OW78899   7.734   1.589   8.200
25687SOL    HW178900   7.754   1.669   8.248
25687SOL    HW278901   7.648   1.562   8.234
25688SOL     OW78902  13.865   3.973  13.203
25688SOL    HW178903  13.869   3.896  13.146
25688SOL    HW278904  13.937   4.028  13.173
25689SOL     OW78905  13.337  11.883   2.583
25689SOL    HW178906  13.391  11.952   2.621
25689SOL    HW278907  13.277  11.928   2.524
25690SOL     OW78908   6.647   6.159   4.108
25690SOL    HW178909   6.669   6.066   4.119
25690SOL    HW278910   6.575   6.159   4.044
25691SOL     OW78911  11.347   2.831  13.666
25691SOL    HW178912  11.365   2.897  13.733
25691SOL    HW278913  11.425   2.832  13.610
25692SOL     OW78914   4.482   8.690  13.236
25692SOL    HW178915   4.530   8.714  13.156
25692SOL    HW278916   4.463   8.774  13.278
25693SOL     OW78917   4.717   0.903   7.278
25693SOL    HW178918   4.765   0.985   7.271
25693SOL    HW278919   4.634   0.920   7.234
25694SOL     OW78920   7.957  13.850  13.307
25694SOL    HW178921   7.933  13.942  13.310
25694SOL    HW278922   8.006  13.840  13.226
25695SOL     OW78923  13.784   8.678  12.173
25695SOL    HW178924  13.873   8.646  12.156
25695SOL    HW278925  13.750   8.618  12.241
25696SOL     OW78926   2.611   6.671   5.397
25696SOL    HW178927   2.584   6.684   5.307
25696SOL    HW278928   2.657   6.751   5.421
25697SOL     OW78929   4.590  14.511   9.267
25697SOL    HW178930   4.681  14.531   9.246
25697SOL    HW278931   4.577  14.546   9.355
25698SOL     OW78932  10.424   5.803   2.306
25698SOL    HW178933  10.430   5.801   2.402
25698SOL    HW278934  10.451   5.715   2.279
25699SOL     OW78935  10.882   5.607   4.938
25699SOL    HW178936  10.908   5.592   5.029
25699SOL    HW278937  10.934   5.544   4.888
25700SOL     OW78938   5.832   6.706  10.898
25700SOL    HW178939   5.905   6.705  10.836
25700SOL    HW278940   5.779   6.629  10.875
25701SOL     OW78941   5.815  10.591   4.287
25701SOL    HW178942   5.878  10.657   4.316
25701SOL    HW278943   5.863  10.537   4.225
25702SOL     OW78944  12.905  11.822  12.821
25702SOL    HW178945  12.932  11.880  12.892
25702SOL    HW278946  12.810  11.819  12.827
25703SOL     OW78947   7.605   3.885   5.236
25703SOL    HW178948   7.639   3.917   5.320
25703SOL    HW278949   7.510   3.888   5.247
25704SOL     OW78950   8.863   8.907   5.615
25704SOL    HW178951   8.844   8.838   5.551
25704SOL    HW278952   8.846   8.867   5.700
25705SOL     OW78953  11.971   3.248  10.142
25705SOL    HW178954  11.931   3.298  10.070
25705SOL    HW278955  11.935   3.287  10.221
25706SOL     OW78956   6.742   9.197  14.478
25706SOL    HW178957   6.700   9.278  14.508
25706SOL    HW278958   6.680   9.158  14.417
25707SOL     OW78959   3.567   2.293   7.317
25707SOL    HW178960   3.589   2.328   7.231
25707SOL    HW278961   3.478   2.259   7.307
25708SOL     OW78962   3.007  10.495  12.575
25708SOL    HW178963   3.052  10.535  12.500
25708SOL    HW278964   2.969  10.569  12.622
25709SOL     OW78965   3.505   5.298  12.485
25709SOL    HW178966   3.533   5.389  12.484
25709SOL    HW278967   3.584   5.249  12.507
25710SOL     OW78968   3.467   1.270  12.367
25710SOL    HW178969   3.449   1.351  12.321
25710SOL    HW278970   3.563   1.264  12.368
25711SOL     OW78971  10.902  10.605   9.422
25711SOL    HW178972  10.893  10.523   9.372
25711SOL    HW278973  10.951  10.663   9.364
25712SOL     OW78974   6.353   6.083   4.677
25712SOL    HW178975   6.302   6.099   4.757
25712SOL    HW278976   6.320   6.146   4.614
25713SOL     OW78977   6.451   9.763   7.303
25713SOL    HW178978   6.461   9.671   7.281
25713SOL    HW278979   6.529   9.805   7.265
25714SOL     OW78980  11.596   1.489  13.268
25714SOL    HW178981  11.616   1.575  13.232
25714SOL    HW278982  11.622   1.427  13.199
25715SOL     OW78983  14.050  14.679   6.183
25715SOL    HW178984  13.970  14.643   6.221
25715SOL    HW278985  14.121  14.635   6.230
25716SOL     OW78986   9.896   9.546  12.206
25716SOL    HW178987   9.835   9.506  12.268
25716SOL    HW278988   9.860   9.633  12.189
25717SOL     OW78989   4.977  11.396   1.889
25717SOL    HW178990   5.055  11.357   1.851
25717SOL    HW278991   4.952  11.465   1.828
25718SOL     OW78992   5.140   1.776   0.939
25718SOL    HW178993   5.088   1.697   0.954
25718SOL    HW278994   5.101   1.842   0.996
25719SOL     OW78995   4.050  12.460   4.550
25719SOL    HW178996   3.995  12.481   4.474
25719SOL    HW278997   4.007  12.384   4.589
25720SOL     OW78998   4.678   2.063   7.765
25720SOL    HW178999   4.754   2.011   7.743
25720SOL    HW279000   4.636   2.015   7.837
25721SOL     OW79001  13.119  12.648   2.527
25721SOL    HW179002  13.038  12.661   2.577
25721SOL    HW279003  13.188  12.675   2.587
25722SOL     OW79004   3.168   0.104   4.240
25722SOL    HW179005   3.072   0.102   4.245
25722SOL    HW279006   3.191   0.196   4.255
25723SOL     OW79007   1.666  14.074   0.395
25723SOL    HW179008   1.619  14.026   0.462
25723SOL    HW279009   1.631  14.042   0.312
25724SOL     OW79010  14.049  11.251   7.197
25724SOL    HW179011  13.983  11.223   7.260
25724SOL    HW279012  14.038  11.346   7.192
25725SOL     OW79013   8.435   7.226   9.393
25725SOL    HW179014   8.384   7.306   9.380
25725SOL    HW279015   8.372   7.155   9.380
25726SOL     OW79016   9.343  13.842   3.034
25726SOL    HW179017   9.390  13.846   2.950
25726SOL    HW279018   9.402  13.795   3.092
25727SOL     OW79019  10.596   4.760   5.705
25727SOL    HW179020  10.522   4.820   5.690
25727SOL    HW279021  10.635   4.749   5.619
25728SOL     OW79022   8.860  11.705   7.491
25728SOL    HW179023   8.853  11.777   7.428
25728SOL    HW279024   8.914  11.639   7.447
25729SOL     OW79025   7.981   6.199   9.646
25729SOL    HW179026   7.949   6.176   9.734
25729SOL    HW279027   7.983   6.294   9.646
25730SOL     OW79028  13.703  14.429  12.225
25730SOL    HW179029  13.740  14.372  12.157
25730SOL    HW279030  13.776  14.485  12.252
25731SOL     OW79031   5.751   0.379   6.444
25731SOL    HW179032   5.783   0.310   6.384
25731SOL    HW279033   5.776   0.461   6.401
25732SOL     OW79034   7.780   2.416   4.414
25732SOL    HW179035   7.727   2.482   4.368
25732SOL    HW279036   7.818   2.462   4.488
25733SOL     OW79037   3.732   7.830   8.198
25733SOL    HW179038   3.817   7.786   8.193
25733SOL    HW279039   3.681   7.778   8.260
25734SOL     OW79040   9.147   7.466  11.911
25734SOL    HW179041   9.086   7.431  11.847
25734SOL    HW279042   9.176   7.549  11.873
25735SOL     OW79043  10.305   8.279   3.742
25735SOL    HW179044  10.219   8.265   3.781
25735SOL    HW279045  10.312   8.211   3.675
25736SOL     OW79046  12.741   5.513   8.254
25736SOL    HW179047  12.703   5.439   8.207
25736SOL    HW279048  12.824   5.529   8.209
25737SOL     OW79049   4.398  14.565   7.198
25737SOL    HW179050   4.474  14.540   7.250
25737SOL    HW279051   4.401  14.509   7.121
25738SOL     OW79052  13.097   1.401   9.340
25738SOL    HW179053  13.028   1.458   9.374
25738SOL    HW279054  13.161   1.460   9.302
25739SOL     OW79055   6.770   2.058  13.054
25739SOL    HW179056   6.759   2.049  13.148
25739SOL    HW279057   6.861   2.033  13.037
25740SOL     OW79058   9.779   3.237  10.349
25740SOL    HW179059   9.733   3.179  10.410
25740SOL    HW279060   9.762   3.200  10.263
25741SOL     OW79061   1.327  11.707   6.432
25741SOL    HW179062   1.257  11.727   6.494
25741SOL    HW279063   1.396  11.668   6.486
25742SOL     OW79064   2.374   3.920  14.393
25742SOL    HW179065   2.406   3.994  14.444
25742SOL    HW279066   2.441   3.852  14.406
25743SOL     OW79067   0.818   0.444  10.191
25743SOL    HW179068   0.871   0.377  10.233
25743SOL    HW279069   0.865   0.467  10.111
25744SOL     OW79070   1.162   3.893   4.113
25744SOL    HW179071   1.231   3.827   4.117
25744SOL    HW279072   1.147   3.917   4.205
25745SOL     OW79073   3.922  10.427   7.890
25745SOL    HW179074   3.944  10.363   7.822
25745SOL    HW279075   3.992  10.418   7.955
25746SOL     OW79076  13.478  10.389   2.153
25746SOL    HW179077  13.466  10.321   2.220
25746SOL    HW279078  13.542  10.351   2.092
25747SOL     OW79079   4.796   2.174  13.454
25747SOL    HW179080   4.885   2.141  13.445
25747SOL    HW279081   4.765   2.188  13.365
25748SOL     OW79082  12.171   8.340  10.840
25748SOL    HW179083  12.184   8.252  10.876
25748SOL    HW279084  12.078   8.359  10.853
25749SOL     OW79085   3.581  13.824   3.288
25749SOL    HW179086   3.524  13.830   3.211
25749SOL    HW279087   3.538  13.759   3.344
25750SOL     OW79088   2.542  14.515  10.806
25750SOL    HW179089   2.631  14.499  10.837
25750SOL    HW279090   2.498  14.431  10.816
25751SOL     OW79091  10.642   9.806   5.710
25751SOL    HW179092  10.634   9.888   5.662
25751SOL    HW279093  10.708   9.756   5.663
25752SOL     OW79094   2.395   2.907   8.260
25752SOL    HW179095   2.467   2.899   8.323
25752SOL    HW279096   2.436   2.897   8.175
25753SOL     OW79097   6.535   5.345   7.832
25753SOL    HW179098   6.605   5.410   7.838
25753SOL    HW279099   6.459   5.387   7.873
25754SOL     OW79100  13.860  12.235   6.864
25754SOL    HW179101  13.916  12.157   6.858
25754SOL    HW279102  13.855  12.254   6.957
25755SOL     OW79103   8.937   5.628   9.659
25755SOL    HW179104   8.903   5.686   9.591
25755SOL    HW279105   9.026   5.608   9.631
25756SOL     OW79106  11.610   7.358   6.811
25756SOL    HW179107  11.661   7.281   6.787
25756SOL    HW279108  11.521   7.339   6.779
25757SOL     OW79109  11.983  14.550   1.689
25757SOL    HW179110  12.011  14.631   1.731
25757SOL    HW279111  11.970  14.489   1.762
25758SOL     OW79112  11.508   6.076   5.222
25758SOL    HW179113  11.544   6.045   5.305
25758SOL    HW279114  11.539   6.167   5.215
25759SOL     OW79115   9.977   9.658   1.733
25759SOL    HW179116   9.943   9.691   1.816
25759SOL    HW279117   9.916   9.692   1.667
25760SOL     OW79118   2.482  13.392   9.636
25760SOL    HW179119   2.419  13.323   9.616
25760SOL    HW279120   2.546  13.386   9.564
25761SOL     OW79121  12.059   7.307  14.677
25761SOL    HW179122  12.047   7.360  14.756
25761SOL    HW279123  12.044   7.217  14.706
25762SOL     OW79124   1.664   0.820   4.199
25762SOL    HW179125   1.746   0.771   4.201
25762SOL    HW279126   1.667   0.868   4.116
25763SOL     OW79127   7.531  12.317   7.931
25763SOL    HW179128   7.613  12.366   7.922
25763SOL    HW279129   7.475  12.351   7.861
25764SOL     OW79130  11.687  11.664   9.617
25764SOL    HW179131  11.634  11.588   9.592
25764SOL    HW279132  11.624  11.727   9.651
25765SOL     OW79133  10.635   2.174   6.055
25765SOL    HW179134  10.543   2.170   6.029
25765SOL    HW279135  10.638   2.131   6.140
25766SOL     OW79136   8.474  10.360   9.134
25766SOL    HW179137   8.459  10.346   9.040
25766SOL    HW279138   8.392  10.334   9.175
25767SOL     OW79139  12.550   6.139  11.487
25767SOL    HW179140  12.535   6.213  11.428
25767SOL    HW279141  12.462   6.107  11.508
25768SOL     OW79142   7.751  11.219   8.625
25768SOL    HW179143   7.764  11.129   8.654
25768SOL    HW279144   7.768  11.217   8.531
25769SOL     OW79145   6.691   9.715  14.043
25769SOL    HW179146   6.725   9.785  14.098
25769SOL    HW279147   6.713   9.635  14.090
25770SOL     OW79148  14.108   8.841  13.122
25770SOL    HW179149  14.098   8.887  13.205
25770SOL    HW279150  14.123   8.750  13.147
25771SOL     OW79151   0.019  13.652   4.541
25771SOL    HW179152   0.060  13.738   4.530
25771SOL    HW279153   0.089  13.589   4.523
25772SOL     OW79154  10.606  13.093   0.258
25772SOL    HW179155  10.600  13.187   0.240
25772SOL    HW279156  10.605  13.052   0.171
25773SOL     OW79157   1.765   7.329  11.018
25773SOL    HW179158   1.740   7.318  11.110
25773SOL    HW279159   1.772   7.240  10.984
25774SOL     OW79160   7.199   8.437   1.800
25774SOL    HW179161   7.220   8.347   1.826
25774SOL    HW279162   7.232   8.444   1.710
25775SOL     OW79163  11.541  10.210   9.794
25775SOL    HW179164  11.536  10.301   9.763
25775SOL    HW279165  11.455  10.173   9.771
25776SOL     OW79166   7.271  14.501   0.979
25776SOL    HW179167   7.364  14.506   0.959
25776SOL    HW279168   7.229  14.495   0.893
25777SOL     OW79169   3.576  11.168  12.585
25777SOL    HW179170   3.601  11.238  12.646
25777SOL    HW279171   3.508  11.208  12.530
25778SOL     OW79172  13.506  11.417  13.134
25778SOL    HW179173  13.522  11.452  13.047
25778SOL    HW279174  13.593  11.408  13.172
25779SOL     OW79175  13.663   6.562  13.655
25779SOL    HW179176  13.659   6.577  13.561
25779SOL    HW279177  13.748   6.520  13.669
25780SOL     OW79178   0.111   7.149   1.465
25780SOL    HW179179   0.062   7.182   1.540
25780SOL    HW279180   0.122   7.225   1.408
25781SOL     OW79181  13.965   6.152   3.301
25781SOL    HW179182  13.956   6.062   3.269
25781SOL    HW279183  14.035   6.147   3.366
25782SOL     OW79184   5.388  11.553   6.123
25782SOL    HW179185   5.481  11.539   6.138
25782SOL    HW279186   5.345  11.489   6.180
25783SOL     OW79187   6.909   0.531   6.862
25783SOL    HW179188   6.839   0.593   6.883
25783SOL    HW279189   6.867   0.465   6.807
25784SOL     OW79190   1.946  10.657   9.957
25784SOL    HW179191   1.979  10.700  10.035
25784SOL    HW279192   2.012  10.590   9.937
25785SOL     OW79193   0.881   7.708   4.419
25785SOL    HW179194   0.900   7.683   4.329
25785SOL    HW279195   0.892   7.804   4.419
25786SOL     OW79196  14.362   1.895   4.942
25786SOL    HW179197  14.360   1.891   5.038
25786SOL    HW279198  14.438   1.843   4.918
25787SOL     OW79199   9.252  11.479  10.494
25787SOL    HW179200   9.276  11.571  10.502
25787SOL    HW279201   9.336  11.433  10.485
25788SOL     OW79202   3.330  10.609   4.728
25788SOL    HW179203   3.256  10.556   4.758
25788SOL    HW279204   3.320  10.612   4.633
25789SOL     OW79205   9.254   0.672   0.047
25789SOL    HW179206   9.190   0.628   0.103
25789SOL    HW279207   9.311   0.602   0.017
25790SOL     OW79208   0.310   3.525   0.249
25790SOL    HW179209   0.243   3.456   0.250
25790SOL    HW279210   0.308   3.561   0.338
25791SOL     OW79211  11.403  14.489  11.461
25791SOL    HW179212  11.332  14.442  11.418
25791SOL    HW279213  11.406  14.452  11.550
25792SOL     OW79214   4.875   7.947  13.111
25792SOL    HW179215   4.864   7.918  13.020
25792SOL    HW279216   4.817   8.023  13.119
25793SOL     OW79217   3.614   5.757   9.538
25793SOL    HW179218   3.708   5.743   9.551
25793SOL    HW279219   3.596   5.719   9.451
25794SOL     OW79220   6.781   9.028   8.060
25794SOL    HW179221   6.723   9.035   7.984
25794SOL    HW279222   6.725   8.994   8.130
25795SOL     OW79223  10.442  13.478   3.215
25795SOL    HW179224  10.413  13.489   3.305
25795SOL    HW279225  10.411  13.391   3.190
25796SOL     OW79226   1.073   9.273  12.456
25796SOL    HW179227   1.134   9.334  12.415
25796SOL    HW279228   1.003   9.329  12.489
25797SOL     OW79229   0.333   1.904  14.406
25797SOL    HW179230   0.424   1.906  14.376
25797SOL    HW279231   0.287   1.851  14.341
25798SOL     OW79232   9.923   6.011  10.561
25798SOL    HW179233   9.907   6.103  10.542
25798SOL    HW279234  10.016   5.998  10.542
25799SOL     OW79235  13.324  13.542   3.129
25799SOL    HW179236  13.395  13.478   3.137
25799SOL    HW279237  13.253  13.504   3.182
25800SOL     OW79238   6.206   7.443   0.344
25800SOL    HW179239   6.161   7.401   0.418
25800SOL    HW279240   6.136   7.464   0.282
25801SOL     OW79241   0.627  11.980  13.744
25801SOL    HW179242   0.605  11.919  13.814
25801SOL    HW279243   0.549  11.981  13.688
25802SOL     OW79244   2.623  12.134   2.932
25802SOL    HW179245   2.608  12.148   2.838
25802SOL    HW279246   2.629  12.039   2.941
25803SOL     OW79247  12.549   9.145  14.412
25803SOL    HW179248  12.554   9.072  14.473
25803SOL    HW279249  12.608   9.211  14.449
25804SOL     OW79250   4.589  13.511  13.091
25804SOL    HW179251   4.603  13.600  13.058
25804SOL    HW279252   4.547  13.465  13.018
25805SOL     OW79253   6.144   2.961  11.492
25805SOL    HW179254   6.104   2.875  11.479
25805SOL    HW279255   6.076   3.023  11.463
25806SOL     OW79256   6.108   7.646   7.526
25806SOL    HW179257   6.100   7.702   7.449
25806SOL    HW279258   6.046   7.575   7.511
25807SOL     OW79259   2.193   4.149   0.992
25807SOL    HW179260   2.246   4.189   0.923
25807SOL    HW279261   2.110   4.129   0.950
25808SOL     OW79262   4.254   8.466   9.063
25808SOL    HW179263   4.293   8.495   8.980
25808SOL    HW279264   4.239   8.372   9.050
25809SOL     OW79265   6.384  14.667   8.071
25809SOL    HW179266   6.379  14.572   8.082
25809SOL    HW279267   6.301  14.700   8.107
25810SOL     OW79268   5.766   6.221  13.387
25810SOL    HW179269   5.722   6.291  13.338
25810SOL    HW279270   5.805   6.266  13.462
25811SOL     OW79271   4.992  13.916   3.519
25811SOL    HW179272   4.941  13.979   3.469
25811SOL    HW279273   5.038  13.968   3.584
25812SOL     OW79274   0.399   6.232  11.871
25812SOL    HW179275   0.369   6.321  11.850
25812SOL    HW279276   0.334   6.198  11.932
25813SOL     OW79277   2.774   6.940  13.474
25813SOL    HW179278   2.827   6.998  13.419
25813SOL    HW279279   2.729   6.883  13.411
25814SOL     OW79280   0.681   7.317  12.365
25814SOL    HW179281   0.618   7.268  12.312
25814SOL    HW279282   0.765   7.273  12.349
25815SOL     OW79283   2.418   9.104   5.337
25815SOL    HW179284   2.512   9.106   5.320
25815SOL    HW279285   2.399   9.012   5.355
25816SOL     OW79286   2.900   2.695  12.008
25816SOL    HW179287   2.935   2.659  11.926
25816SOL    HW279288   2.977   2.715  12.061
25817SOL     OW79289  13.570   8.357   3.811
25817SOL    HW179290  13.552   8.330   3.901
25817SOL    HW279291  13.577   8.274   3.762
25818SOL     OW79292   2.141   2.821  13.163
25818SOL    HW179293   2.172   2.889  13.103
25818SOL    HW279294   2.212   2.756  13.165
25819SOL     OW79295   0.182  10.460   3.533
25819SOL    HW179296   0.091  10.433   3.547
25819SOL    HW279297   0.209  10.498   3.617
25820SOL     OW79298   6.534   5.851   5.932
25820SOL    HW179299   6.620   5.857   5.975
25820SOL    HW279300   6.546   5.785   5.863
25821SOL     OW79301   4.080  13.337   5.906
25821SOL    HW179302   3.994  13.298   5.890
25821SOL    HW279303   4.142  13.264   5.896
25822SOL     OW79304   7.070   1.762   4.079
25822SOL    HW179305   6.991   1.790   4.032
25822SOL    HW279306   7.050   1.782   4.171
25823SOL     OW79307   1.653  14.847   3.915
25823SOL    HW179308   1.582  14.874   3.857
25823SOL    HW279309   1.649  14.752   3.917
25824SOL     OW79310  12.733   6.414   6.145
25824SOL    HW179311  12.653   6.381   6.105
25824SOL    HW279312  12.759   6.488   6.090
25825SOL     OW79313   3.783   9.421   6.216
25825SOL    HW179314   3.746   9.387   6.135
25825SOL    HW279315   3.834   9.348   6.251
25826SOL     OW79316  14.499   7.627   2.437
25826SOL    HW179317  14.593   7.639   2.438
25826SOL    HW279318  14.463   7.711   2.464
25827SOL     OW79319  11.477   5.926   3.639
25827SOL    HW179320  11.428   5.861   3.690
25827SOL    HW279321  11.431   5.930   3.555
25828SOL     OW79322   8.168   0.508   3.730
25828SOL    HW179323   8.254   0.490   3.692
25828SOL    HW279324   8.152   0.435   3.790
25829SOL     OW79325  14.522  10.750  10.544
25829SOL    HW179326  14.450  10.735  10.606
25829SOL    HW279327  14.595  10.780  10.599
25830SOL     OW79328  13.933   1.137  13.984
25830SOL    HW179329  14.013   1.148  13.933
25830SOL    HW279330  13.958   1.162  14.073
25831SOL     OW79331  13.554  14.065   5.909
25831SOL    HW179332  13.556  13.983   5.959
25831SOL    HW279333  13.566  14.038   5.818
25832SOL     OW79334  10.623   2.709  13.505
25832SOL    HW179335  10.717   2.688  13.506
25832SOL    HW279336  10.579   2.624  13.512
25833SOL     OW79337   1.279  13.472  10.858
25833SOL    HW179338   1.246  13.554  10.895
25833SOL    HW279339   1.374  13.485  10.851
25834SOL     OW79340   1.903   8.917  12.240
25834SOL    HW179341   1.997   8.911  12.257
25834SOL    HW279342   1.863   8.856  12.301
25835SOL     OW79343   1.751   7.788   3.168
25835SOL    HW179344   1.713   7.844   3.235
25835SOL    HW279345   1.824   7.839   3.133
25836SOL     OW79346   3.620   4.515   9.692
25836SOL    HW179347   3.686   4.481   9.630
25836SOL    HW279348   3.546   4.538   9.636
25837SOL     OW79349   3.006   0.908   8.425
25837SOL    HW179350   3.018   0.881   8.334
25837SOL    HW279351   2.911   0.915   8.436
25838SOL     OW79352  10.928  11.974   0.988
25838SOL    HW179353  10.906  11.967   0.896
25838SOL    HW279354  10.868  11.913   1.032
25839SOL     OW79355   5.879  13.620   3.907
25839SOL    HW179356   5.918  13.707   3.918
25839SOL    HW279357   5.850  13.618   3.816
25840SOL     OW79358  13.137   2.287   1.810
25840SOL    HW179359  13.167   2.365   1.856
25840SOL    HW279360  13.111   2.227   1.880
25841SOL     OW79361   8.269  12.816   4.414
25841SOL    HW179362   8.361  12.808   4.389
25841SOL    HW279363   8.269  12.878   4.486
25842SOL     OW79364   1.894   2.300  13.725
25842SOL    HW179365   1.825   2.316  13.660
25842SOL    HW279366   1.936   2.385  13.737
25843SOL     OW79367  12.989   5.919   5.587
25843SOL    HW179368  13.009   5.862   5.512
25843SOL    HW279369  12.939   5.863   5.646
25844SOL     OW79370   9.755   4.448   4.432
25844SOL    HW179371   9.806   4.367   4.441
25844SOL    HW279372   9.746   4.460   4.338
25845SOL     OW79373   2.681   4.829   6.461
25845SOL    HW179374   2.750   4.893   6.444
25845SOL    HW279375   2.724   4.744   6.457
25846SOL     OW79376  14.817  13.595  12.627
25846SOL    HW179377  14.745  13.638  12.673
25846SOL    HW279378  14.779  13.515  12.592
25847SOL     OW79379  10.219  13.353   4.878
25847SOL    HW179380  10.271  13.347   4.958
25847SOL    HW279381  10.154  13.283   4.887
25848SOL     OW79382  10.546  10.200   4.591
25848SOL    HW179383  10.534  10.272   4.654
25848SOL    HW279384  10.640  10.187   4.588
25849SOL     OW79385   0.220   5.766  14.624
25849SOL    HW179386   0.193   5.839  14.568
25849SOL    HW279387   0.309   5.746  14.596
25850SOL     OW79388   8.294  10.967   9.383
25850SOL    HW179389   8.213  11.018   9.370
25850SOL    HW279390   8.309  10.970   9.477
25851SOL     OW79391  10.433   3.419   5.277
25851SOL    HW179392  10.465   3.464   5.355
25851SOL    HW279393  10.401   3.488   5.220
25852SOL     OW79394   9.953   0.317   2.077
25852SOL    HW179395  10.002   0.235   2.083
25852SOL    HW279396   9.920   0.331   2.166
25853SOL     OW79397   1.248   0.450  12.528
25853SOL    HW179398   1.235   0.539  12.496
25853SOL    HW279399   1.301   0.408  12.460
25854SOL     OW79400   1.085   0.196  13.477
25854SOL    HW179401   1.064   0.289  13.464
25854SOL    HW279402   1.169   0.184  13.433
25855SOL     OW79403   3.394  13.050  14.121
25855SOL    HW179404   3.455  12.979  14.098
25855SOL    HW279405   3.449  13.115  14.166
25856SOL     OW79406   2.493  12.905   5.861
25856SOL    HW179407   2.470  12.995   5.838
25856SOL    HW279408   2.522  12.911   5.952
25857SOL     OW79409   1.866  12.683   8.962
25857SOL    HW179410   1.786  12.676   8.910
25857SOL    HW279411   1.877  12.777   8.977
25858SOL     OW79412  11.295  13.754   4.379
25858SOL    HW179413  11.323  13.841   4.350
25858SOL    HW279414  11.344  13.738   4.459
25859SOL     OW79415  11.462   2.260   6.154
25859SOL    HW179416  11.518   2.187   6.129
25859SOL    HW279417  11.465   2.319   6.078
25860SOL     OW79418   4.475  11.267  13.860
25860SOL    HW179419   4.517  11.208  13.798
25860SOL    HW279420   4.507  11.354  13.836
25861SOL     OW79421   6.922   2.420   0.126
25861SOL    HW179422   6.900   2.512   0.139
25861SOL    HW279423   6.979   2.419   0.049
25862SOL     OW79424  11.688   8.742   2.277
25862SOL    HW179425  11.646   8.656   2.273
25862SOL    HW279426  11.641   8.788   2.347
25863SOL     OW79427  12.949   7.439   9.017
25863SOL    HW179428  12.905   7.361   9.052
25863SOL    HW279429  13.029   7.447   9.069
25864SOL     OW79430   9.114   2.412   7.869
25864SOL    HW179431   9.028   2.438   7.901
25864SOL    HW279432   9.121   2.319   7.891
25865SOL     OW79433   8.421   3.284   6.422
25865SOL    HW179434   8.516   3.287   6.430
25865SOL    HW279435   8.390   3.259   6.509
25866SOL     OW79436   0.049   9.324   2.255
25866SOL    HW179437   0.023   9.400   2.307
25866SOL    HW279438   0.017   9.248   2.305
25867SOL     OW79439  11.740  11.506   0.105
25867SOL    HW179440  11.749  11.552   0.021
25867SOL    HW279441  11.657  11.536   0.140
25868SOL     OW79442   6.610   5.874  14.742
25868SOL    HW179443   6.519   5.846  14.739
25868SOL    HW279444   6.608   5.962  14.779
25869SOL     OW79445  11.612  10.671   6.415
25869SOL    HW179446  11.578  10.584   6.396
25869SOL    HW279447  11.674  10.658   6.487
25870SOL     OW79448   0.284   7.442  11.707
25870SOL    HW179449   0.263   7.371  11.767
25870SOL    HW279450   0.237   7.518  11.742
25871SOL     OW79451   1.846   7.740   6.466
25871SOL    HW179452   1.926   7.735   6.415
25871SOL    HW279453   1.778   7.703   6.409
25872SOL     OW79454   8.635   6.088   1.132
25872SOL    HW179455   8.567   6.023   1.112
25872SOL    HW279456   8.713   6.055   1.089
25873SOL     OW79457  11.261   4.748  10.437
25873SOL    HW179458  11.328   4.816  10.442
25873SOL    HW279459  11.287   4.683  10.503
25874SOL     OW79460   8.346  12.376  12.336
25874SOL    HW179461   8.337  12.304  12.274
25874SOL    HW279462   8.276  12.363  12.399
25875SOL     OW79463   5.004  11.747   9.906
25875SOL    HW179464   4.944  11.765   9.979
25875SOL    HW279465   5.061  11.678   9.939
25876SOL     OW79466   7.880   5.870   9.847
25876SOL    HW179467   7.854   5.890   9.757
25876SOL    HW279468   7.804   5.825   9.885
25877SOL     OW79469   1.192  10.741   3.294
25877SOL    HW179470   1.206  10.820   3.243
25877SOL    HW279471   1.145  10.682   3.235
25878SOL     OW79472  13.591  11.296   4.080
25878SOL    HW179473  13.564  11.208   4.053
25878SOL    HW279474  13.545  11.311   4.162
25879SOL     OW79475   0.988   1.464   7.257
25879SOL    HW179476   0.974   1.557   7.272
25879SOL    HW279477   1.078   1.457   7.227
25880SOL     OW79478  14.813  13.040  14.084
25880SOL    HW179479  14.842  13.084  14.004
25880SOL    HW279480  14.859  13.086  14.154
25881SOL     OW79481   0.669   0.010   1.742
25881SOL    HW179482   0.654  14.816   1.801
25881SOL    HW279483   0.584   0.027   1.702
25882SOL     OW79484   3.960   3.503  13.096
25882SOL    HW179485   3.961   3.578  13.036
25882SOL    HW279486   3.938   3.428  13.040
25883SOL     OW79487  13.055   2.019   1.117
25883SOL    HW179488  12.976   2.073   1.120
25883SOL    HW279489  13.100   2.046   1.037
25884SOL     OW79490  13.506   6.556   6.216
25884SOL    HW179491  13.540   6.564   6.127
25884SOL    HW279492  13.446   6.481   6.212
25885SOL     OW79493   0.417  11.814   4.564
25885SOL    HW179494   0.344  11.783   4.618
25885SOL    HW279495   0.495  11.788   4.613
25886SOL     OW79496   0.112  11.494   3.368
25886SOL    HW179497   0.041  11.497   3.304
25886SOL    HW279498   0.131  11.401   3.378
25887SOL     OW79499   1.739   8.454   4.742
25887SOL    HW179500   1.792   8.520   4.697
25887SOL    HW279501   1.667   8.434   4.682
25888SOL     OW79502   2.595   0.706   7.822
25888SOL    HW179503   2.571   0.667   7.739
25888SOL    HW279504   2.679   0.750   7.804
25889SOL     OW79505   9.533  12.338   2.782
25889SOL    HW179506   9.554  12.404   2.848
25889SOL    HW279507   9.452  12.298   2.813
25890SOL     OW79508   5.533   9.561   6.859
25890SOL    HW179509   5.511   9.568   6.766
25890SOL    HW279510   5.557   9.469   6.871
25891SOL     OW79511  12.473  11.556  13.768
25891SOL    HW179512  12.481  11.503  13.689
25891SOL    HW279513  12.440  11.495  13.834
25892SOL     OW79514  13.029  11.569  12.792
25892SOL    HW179515  13.084  11.544  12.866
25892SOL    HW279516  12.968  11.634  12.828
25893SOL     OW79517   1.542   0.736   7.265
25893SOL    HW179518   1.564   0.783   7.345
25893SOL    HW279519   1.603   0.770   7.200
25894SOL     OW79520   9.237   5.644  13.706
25894SOL    HW179521   9.233   5.562  13.657
25894SOL    HW279522   9.235   5.712  13.639
25895SOL     OW79523   4.881   2.641   1.526
25895SOL    HW179524   4.786   2.630   1.533
25895SOL    HW279525   4.891   2.717   1.468
25896SOL     OW79526   9.095   7.003  12.483
25896SOL    HW179527   9.021   6.975  12.537
25896SOL    HW279528   9.108   7.095  12.505
25897SOL     OW79529  14.229   2.397   9.783
25897SOL    HW179530  14.139   2.428   9.795
25897SOL    HW279531  14.283   2.471   9.812
25898SOL     OW79532   9.998   7.534   1.992
25898SOL    HW179533   9.999   7.439   1.981
25898SOL    HW279534   9.952   7.548   2.075
25899SOL     OW79535   2.843   2.339   1.867
25899SOL    HW179536   2.891   2.416   1.835
25899SOL    HW279537   2.912   2.278   1.895
25900SOL     OW79538  13.979  13.440   0.798
25900SOL    HW179539  14.004  13.442   0.891
25900SOL    HW279540  13.903  13.383   0.795
25901SOL     OW79541   0.946   1.960   3.770
25901SOL    HW179542   0.868   2.006   3.800
25901SOL    HW279543   0.985   1.923   3.849
25902SOL     OW79544  10.222   4.821   8.600
25902SOL    HW179545  10.154   4.816   8.666
25902SOL    HW279546  10.286   4.883   8.635
25903SOL     OW79547   1.586   2.904   9.083
25903SOL    HW179548   1.653   2.896   9.152
25903SOL    HW279549   1.539   2.821   9.086
25904SOL     OW79550  10.416   8.121  11.516
25904SOL    HW179551  10.499   8.161  11.543
25904SOL    HW279552  10.440   8.059  11.448
25905SOL     OW79553  14.399   6.363   6.292
25905SOL    HW179554  14.473   6.416   6.320
25905SOL    HW279555  14.431   6.315   6.215
25906SOL     OW79556   1.823   5.270  12.767
25906SOL    HW179557   1.877   5.191  12.773
25906SOL    HW279558   1.778   5.262  12.683
25907SOL     OW79559   5.380  10.066   0.081
25907SOL    HW179560   5.360   9.973   0.064
25907SOL    HW279561   5.472  10.076   0.055
25908SOL     OW79562   7.635   1.594   7.534
25908SOL    HW179563   7.555   1.621   7.490
25908SOL    HW279564   7.623   1.501   7.553
25909SOL     OW79565  12.786   9.712   2.192
25909SOL    HW179566  12.832   9.760   2.260
25909SOL    HW279567  12.761   9.629   2.233
25910SOL     OW79568   5.950   7.671   6.279
25910SOL    HW179569   5.937   7.740   6.344
25910SOL    HW279570   6.032   7.694   6.235
25911SOL     OW79571  13.899   5.004   9.016
25911SOL    HW179572  13.989   5.034   9.016
25911SOL    HW279573  13.885   4.969   9.104
25912SOL     OW79574  14.106   6.524  11.841
25912SOL    HW179575  14.158   6.596  11.877
25912SOL    HW279576  14.015   6.546  11.864
25913SOL     OW79577  11.869   9.842  14.545
25913SOL    HW179578  11.885   9.921  14.493
25913SOL    HW279579  11.803   9.869  14.609
25914SOL     OW79580   2.515   9.435  12.847
25914SOL    HW179581   2.576   9.451  12.775
25914SOL    HW279582   2.433   9.477  12.819
25915SOL     OW79583   4.671   8.596   0.923
25915SOL    HW179584   4.670   8.656   0.848
25915SOL    HW279585   4.715   8.644   0.992
25916SOL     OW79586   6.098  11.081   4.461
25916SOL    HW179587   6.070  11.112   4.547
25916SOL    HW279588   6.187  11.047   4.475
25917SOL     OW79589   2.557   4.205   0.789
25917SOL    HW179590   2.590   4.116   0.796
25917SOL    HW279591   2.635   4.260   0.796
25918SOL     OW79592   4.007   0.619   6.563
25918SOL    HW179593   3.948   0.662   6.624
25918SOL    HW279594   3.951   0.591   6.491
25919SOL     OW79595  10.297   5.357   7.768
25919SOL    HW179596  10.280   5.448   7.792
25919SOL    HW279597  10.390   5.354   7.749
25920SOL     OW79598  12.205  14.281   2.273
25920SOL    HW179599  12.228  14.373   2.284
25920SOL    HW279600  12.240  14.258   2.187
25921SOL     OW79601   7.463  11.287   9.769
25921SOL    HW179602   7.432  11.205   9.731
25921SOL    HW279603   7.482  11.343   9.694
25922SOL     OW79604   3.037  13.032   1.100
25922SOL    HW179605   3.038  13.050   1.194
25922SOL    HW279606   2.989  13.106   1.062
25923SOL     OW79607  14.132   3.928   7.105
25923SOL    HW179608  14.145   3.834   7.096
25923SOL    HW279609  14.194   3.968   7.045
25924SOL     OW79610   3.632   3.334   9.810
25924SOL    HW179611   3.617   3.365   9.899
25924SOL    HW279612   3.591   3.401   9.754
25925SOL     OW79613   9.747   8.820   7.258
25925SOL    HW179614   9.659   8.835   7.293
25925SOL    HW279615   9.740   8.737   7.210
25926SOL     OW79616   4.575   2.535  13.937
25926SOL    HW179617   4.617   2.531  13.851
25926SOL    HW279618   4.484   2.561  13.918
25927SOL     OW79619  11.592   6.472   4.717
25927SOL    HW179620  11.609   6.533   4.645
25927SOL    HW279621  11.529   6.410   4.681
25928SOL     OW79622   7.773   3.415  14.308
25928SOL    HW179623   7.688   3.383  14.338
25928SOL    HW279624   7.830   3.407  14.384
25929SOL     OW79625  14.407  11.225  11.768
25929SOL    HW179626  14.465  11.150  11.783
25929SOL    HW279627  14.323  11.198  11.805
25930SOL     OW79628  11.630  11.648   1.258
25930SOL    HW179629  11.694  11.578   1.271
25930SOL    HW279630  11.566  11.635   1.327
25931SOL     OW79631   6.725   1.214  11.462
25931SOL    HW179632   6.760   1.238  11.376
25931SOL    HW279633   6.728   1.294  11.513
25932SOL     OW79634  13.444   2.504   0.851
25932SOL    HW179635  13.394   2.457   0.918
25932SOL    HW279636  13.530   2.520   0.892
25933SOL     OW79637  12.110   4.468   4.787
25933SOL    HW179638  12.192   4.508   4.758
25933SOL    HW279639  12.046   4.493   4.720
25934SOL     OW79640   6.099   9.074  13.048
25934SOL    HW179641   6.007   9.071  13.022
25934SOL    HW279642   6.132   9.156  13.011
25935SOL     OW79643  12.009   7.485  10.528
25935SOL    HW179644  12.056   7.567  10.509
25935SOL    HW279645  12.053   7.450  10.605
25936SOL     OW79646   7.229   6.870   2.695
25936SOL    HW179647   7.325   6.868   2.687
25936SOL    HW279648   7.199   6.799   2.639
25937SOL     OW79649   7.542   3.068   5.104
25937SOL    HW179650   7.454   3.104   5.090
25937SOL    HW279651   7.588   3.137   5.152
25938SOL     OW79652   4.872   1.926   3.833
25938SOL    HW179653   4.956   1.882   3.848
25938SOL    HW279654   4.893   2.003   3.781
25939SOL     OW79655   5.342   9.285   7.829
25939SOL    HW179656   5.270   9.252   7.883
25939SOL    HW279657   5.310   9.370   7.798
25940SOL     OW79658   6.714   5.796   8.181
25940SOL    HW179659   6.752   5.726   8.128
25940SOL    HW279660   6.620   5.774   8.184
25941SOL     OW79661   2.907  13.852  14.044
25941SOL    HW179662   3.000  13.831  14.033
25941SOL    HW279663   2.863  13.767  14.043
25942SOL     OW79664  12.105  11.876   0.466
25942SOL    HW179665  12.160  11.849   0.393
25942SOL    HW279666  12.098  11.798   0.520
25943SOL     OW79667   1.058   0.220  12.433
25943SOL    HW179668   1.049   0.313  12.411
25943SOL    HW279669   1.121   0.219  12.505
25944SOL     OW79670   8.115   2.097   3.485
25944SOL    HW179671   8.070   2.159   3.543
25944SOL    HW279672   8.206   2.129   3.482
25945SOL     OW79673   1.481   7.012  10.700
25945SOL    HW179674   1.481   7.045  10.790
25945SOL    HW279675   1.425   6.934  10.703
25946SOL     OW79676   6.076   9.187   6.699
25946SOL    HW179677   6.100   9.274   6.732
25946SOL    HW279678   6.101   9.190   6.606
25947SOL     OW79679   3.227  12.912  13.390
25947SOL    HW179680   3.260  12.930  13.302
25947SOL    HW279681   3.192  12.996  13.420
25948SOL     OW79682   9.535   5.448  11.530
25948SOL    HW179683   9.462   5.437  11.468
25948SOL    HW279684   9.601   5.496  11.480
25949SOL     OW79685   2.833  13.274   6.938
25949SOL    HW179686   2.861  13.228   7.018
25949SOL    HW279687   2.805  13.360   6.969
25950SOL     OW79688   5.165   7.470   3.048
25950SOL    HW179689   5.254   7.455   3.081
25950SOL    HW279690   5.163   7.422   2.964
25951SOL     OW79691  13.481   5.366   4.378
25951SOL    HW179692  13.433   5.431   4.430
25951SOL    HW279693  13.545   5.329   4.438
25952SOL     OW79694  11.193   7.982   3.662
25952SOL    HW179695  11.134   8.057   3.648
25952SOL    HW279696  11.171   7.951   3.750
25953SOL     OW79697  14.707   3.698   6.088
25953SOL    HW179698  14.711   3.722   5.995
25953SOL    HW279699  14.680   3.606   6.087
25954SOL     OW79700   2.749   0.742   4.378
25954SOL    HW179701   2.836   0.775   4.400
25954SOL    HW279702   2.729   0.782   4.294
25955SOL     OW79703   7.745   4.033  11.575
25955SOL    HW179704   7.730   3.985  11.493
25955SOL    HW279705   7.811   3.983  11.621
25956SOL     OW79706  10.658   0.441  12.256
25956SOL    HW179707  10.745   0.458  12.222
25956SOL    HW279708  10.654   0.346  12.269
25957SOL     OW79709   0.431   5.213   2.642
25957SOL    HW179710   0.458   5.240   2.730
25957SOL    HW279711   0.511   5.213   2.591
25958SOL     OW79712   8.329  14.449  13.552
25958SOL    HW179713   8.413  14.426  13.591
25958SOL    HW279714   8.327  14.545  13.554
25959SOL     OW79715  10.546   6.930  12.476
25959SOL    HW179716  10.575   6.975  12.555
25959SOL    HW279717  10.625   6.887  12.442
25960SOL     OW79718   9.959  14.841   4.922
25960SOL    HW179719   9.872  14.845   4.962
25960SOL    HW279720   9.947   0.001   4.836
25961SOL     OW79721  11.769   7.365   6.066
25961SOL    HW179722  11.781   7.274   6.037
25961SOL    HW279723  11.674   7.377   6.066
25962SOL     OW79724  13.931   6.315   6.994
25962SOL    HW179725  13.851   6.361   6.971
25962SOL    HW279726  13.968   6.365   7.067
25963SOL     OW79727   9.399   2.956   0.804
25963SOL    HW179728   9.431   3.015   0.736
25963SOL    HW279729   9.455   2.975   0.880
25964SOL     OW79730   8.385  14.140   2.796
25964SOL    HW179731   8.349  14.141   2.884
25964SOL    HW279732   8.349  14.060   2.757
25965SOL     OW79733   3.027   2.552   2.483
25965SOL    HW179734   2.991   2.515   2.564
25965SOL    HW279735   2.963   2.529   2.416
25966SOL     OW79736   3.309  13.543   4.440
25966SOL    HW179737   3.279  13.580   4.357
25966SOL    HW279738   3.231  13.507   4.481
25967SOL     OW79739  11.028   0.430  12.452
25967SOL    HW179740  10.976   0.389  12.521
25967SOL    HW279741  11.033   0.363  12.383
25968SOL     OW79742   2.015   0.176  12.970
25968SOL    HW179743   2.047   0.102  13.022
25968SOL    HW279744   2.058   0.253  13.007
25969SOL     OW79745   1.080   5.601  12.987
25969SOL    HW179746   1.131   5.587  12.908
25969SOL    HW279747   1.036   5.518  13.002
25970SOL     OW79748   2.126  11.195   6.804
25970SOL    HW179749   2.187  11.194   6.730
25970SOL    HW279750   2.040  11.179   6.764
25971SOL     OW79751  10.548   5.425   7.756
25971SOL    HW179752  10.593   5.381   7.827
25971SOL    HW279753  10.601   5.501   7.737
25972SOL     OW79754  11.101  14.598   6.768
25972SOL    HW179755  11.172  14.636   6.821
25972SOL    HW279756  11.021  14.618   6.816
25973SOL     OW79757  10.096  14.419  12.467
25973SOL    HW179758  10.046  14.340  12.448
25973SOL    HW279759  10.158  14.426  12.394
25974SOL     OW79760   1.193  11.999   8.946
25974SOL    HW179761   1.243  12.055   8.887
25974SOL    HW279762   1.127  11.958   8.890
25975SOL     OW79763  10.362  13.047   7.891
25975SOL    HW179764  10.322  12.997   7.820
25975SOL    HW279765  10.384  13.132   7.852
25976SOL     OW79766   6.175   0.418   4.848
25976SOL    HW179767   6.222   0.442   4.928
25976SOL    HW279768   6.217   0.338   4.819
25977SOL     OW79769   1.698  11.338   0.133
25977SOL    HW179770   1.790  11.365   0.129
25977SOL    HW279771   1.650  11.417   0.155
25978SOL     OW79772   4.731   7.518   9.915
25978SOL    HW179773   4.785   7.484   9.843
25978SOL    HW279774   4.641   7.499   9.888
25979SOL     OW79775  11.049  11.630   8.123
25979SOL    HW179776  10.996  11.573   8.177
25979SOL    HW279777  11.094  11.572   8.062
25980SOL     OW79778  14.851   9.997   4.575
25980SOL    HW179779   0.062   9.985   4.602
25980SOL    HW279780  14.817   9.909   4.563
25981SOL     OW79781   2.489   6.243   2.076
25981SOL    HW179782   2.496   6.304   2.002
25981SOL    HW279783   2.471   6.158   2.036
25982SOL     OW79784   5.193   6.206  12.471
25982SOL    HW179785   5.201   6.241  12.382
25982SOL    HW279786   5.181   6.112  12.459
25983SOL     OW79787   9.428  10.532  10.390
25983SOL    HW179788   9.407  10.619  10.356
25983SOL    HW279789   9.498  10.500  10.333
25984SOL     OW79790  14.756  11.339   1.024
25984SOL    HW179791  14.807  11.284   0.964
25984SOL    HW279792  14.665  11.315   1.007
25985SOL     OW79793  13.288   0.721  13.425
25985SOL    HW179794  13.218   0.676  13.471
25985SOL    HW279795  13.277   0.813  13.449
25986SOL     OW79796   5.306   1.238   1.389
25986SOL    HW179797   5.330   1.323   1.354
25986SOL    HW279798   5.335   1.175   1.322
25987SOL     OW79799   4.652  11.685   1.614
25987SOL    HW179800   4.567  11.685   1.658
25987SOL    HW279801   4.640  11.625   1.540
25988SOL     OW79802   7.071  10.769  11.084
25988SOL    HW179803   7.024  10.806  11.158
25988SOL    HW279804   7.163  10.793  11.099
25989SOL     OW79805  13.756   2.176   3.801
25989SOL    HW179806  13.698   2.127   3.742
25989SOL    HW279807  13.843   2.140   3.785
25990SOL     OW79808   0.775   7.257   9.592
25990SOL    HW179809   0.723   7.259   9.672
25990SOL    HW279810   0.713   7.235   9.523
25991SOL     OW79811   1.001   4.122   8.442
25991SOL    HW179812   1.077   4.173   8.467
25991SOL    HW279813   1.035   4.059   8.378
25992SOL     OW79814   8.601   8.417   7.858
25992SOL    HW179815   8.634   8.500   7.824
25992SOL    HW279816   8.648   8.350   7.808
25993SOL     OW79817   4.529   1.874   2.063
25993SOL    HW179818   4.567   1.945   2.010
25993SOL    HW279819   4.604   1.836   2.108
25994SOL     OW79820  12.759   0.730  14.643
25994SOL    HW179821  12.814   0.689  14.709
25994SOL    HW279822  12.683   0.763  14.692
25995SOL     OW79823  10.498   8.275   2.365
25995SOL    HW179824  10.493   8.343   2.298
25995SOL    HW279825  10.469   8.318   2.445
25996SOL     OW79826   0.958   9.498   8.395
25996SOL    HW179827   1.041   9.456   8.370
25996SOL    HW279828   0.924   9.534   8.313
25997SOL     OW79829   5.916   0.253   7.555
25997SOL    HW179830   5.893   0.322   7.494
25997SOL    HW279831   5.921   0.296   7.640
25998SOL     OW79832   9.778  13.893  10.672
25998SOL    HW179833   9.798  13.833  10.601
25998SOL    HW279834   9.784  13.980  10.632
25999SOL     OW79835   1.287   9.593   3.877
25999SOL    HW179836   1.327   9.505   3.878
25999SOL    HW279837   1.361   9.653   3.866
26000SOL     OW79838  10.463   0.044   5.153
26000SOL    HW179839  10.552   0.074   5.173
26000SOL    HW279840  10.414   0.064   5.233
26001SOL     OW79841   6.108  12.073   2.463
26001SOL    HW179842   6.136  12.135   2.395
26001SOL    HW279843   6.181  12.071   2.525
26002SOL     OW79844   5.819   4.116  14.862
26002SOL    HW179845   5.731   4.140   0.011
26002SOL    HW279846   5.866   4.199  14.857
26003SOL     OW79847   2.622  14.668   2.765
26003SOL    HW179848   2.598  14.701   2.852
26003SOL    HW279849   2.716  14.683   2.759
26004SOL     OW79850   8.569   4.995  14.522
26004SOL    HW179851   8.587   4.929  14.455
26004SOL    HW279852   8.475   4.987  14.539
26005SOL     OW79853  11.248   9.371  12.808
26005SOL    HW179854  11.275   9.390  12.898
26005SOL    HW279855  11.167   9.420  12.796
26006SOL     OW79856  14.327   8.247   7.918
26006SOL    HW179857  14.256   8.297   7.876
26006SOL    HW279858  14.380   8.216   7.845
26007SOL     OW79859  10.855  13.081   6.064
26007SOL    HW179860  10.859  13.083   5.968
26007SOL    HW279861  10.943  13.107   6.092
26008SOL     OW79862   3.646  14.306  12.384
26008SOL    HW179863   3.593  14.242  12.337
26008SOL    HW279864   3.681  14.363  12.316
26009SOL     OW79865   0.145   2.191   4.915
26009SOL    HW179866   0.068   2.152   4.957
26009SOL    HW279867   0.109   2.255   4.854
26010SOL     OW79868  13.809  14.772   4.861
26010SOL    HW179869  13.845  14.856   4.832
26010SOL    HW279870  13.748  14.795   4.931
26011SOL     OW79871  11.330  13.153   3.467
26011SOL    HW179872  11.283  13.070   3.466
26011SOL    HW279873  11.422  13.129   3.453
26012SOL     OW79874  12.930   4.730   7.373
26012SOL    HW179875  12.903   4.675   7.299
26012SOL    HW279876  12.882   4.694   7.448
26013SOL     OW79877   4.894  14.294   8.912
26013SOL    HW179878   4.972  14.322   8.865
26013SOL    HW279879   4.868  14.212   8.871
26014SOL     OW79880   8.255  11.736   8.336
26014SOL    HW179881   8.238  11.668   8.270
26014SOL    HW279882   8.284  11.688   8.414
26015SOL     OW79883   6.804   2.067   5.438
26015SOL    HW179884   6.867   2.131   5.472
26015SOL    HW279885   6.834   1.983   5.474
26016SOL     OW79886   2.678   0.795   6.044
26016SOL    HW179887   2.768   0.819   6.021
26016SOL    HW279888   2.636   0.775   5.961
26017SOL     OW79889   8.167   1.318  13.628
26017SOL    HW179890   8.086   1.270  13.644
26017SOL    HW279891   8.230   1.280  13.689
26018SOL     OW79892   4.750   2.491   8.711
26018SOL    HW179893   4.682   2.518   8.772
26018SOL    HW279894   4.804   2.430   8.760
26019SOL     OW79895   4.940  10.713   4.474
26019SOL    HW179896   4.965  10.642   4.533
26019SOL    HW279897   4.999  10.705   4.399
26020SOL     OW79898   9.827   0.848   6.849
26020SOL    HW179899   9.782   0.772   6.886
26020SOL    HW279900   9.883   0.813   6.781
26021SOL     OW79901  14.085  13.122  12.859
26021SOL    HW179902  14.139  13.094  12.785
26021SOL    HW279903  14.147  13.163  12.920
26022SOL     OW79904   9.600   5.967   7.653
26022SOL    HW179905   9.576   5.970   7.560
26022SOL    HW279906   9.645   6.051   7.669
26023SOL     OW79907  13.567   7.673  13.274
26023SOL    HW179908  13.509   7.684  13.349
26023SOL    HW279909  13.624   7.600  13.298
26024SOL     OW79910   5.754   2.728  11.271
26024SOL    HW179911   5.719   2.681  11.346
26024SOL    HW279912   5.682   2.782  11.239
26025SOL     OW79913   2.713  12.098   2.061
26025SOL    HW179914   2.671  12.172   2.104
26025SOL    HW279915   2.661  12.083   1.982
26026SOL     OW79916  13.711   8.092   4.950
26026SOL    HW179917  13.663   8.078   4.868
26026SOL    HW279918  13.801   8.070   4.930
26027SOL     OW79919   8.701   5.218   6.699
26027SOL    HW179920   8.737   5.253   6.617
26027SOL    HW279921   8.706   5.291   6.760
26028SOL     OW79922  11.986   2.777   6.842
26028SOL    HW179923  11.983   2.861   6.796
26028SOL    HW279924  11.985   2.711   6.772
26029SOL     OW79925   7.723  10.226   2.270
26029SOL    HW179926   7.788  10.216   2.201
26029SOL    HW279927   7.761  10.180   2.345
26030SOL     OW79928   3.816   5.929  11.063
26030SOL    HW179929   3.889   5.940  11.002
26030SOL    HW279930   3.782   5.841  11.044
26031SOL     OW79931   4.485  13.454   3.871
26031SOL    HW179932   4.413  13.424   3.816
26031SOL    HW279933   4.486  13.392   3.944
26032SOL     OW79934  11.110   2.370   1.593
26032SOL    HW179935  11.102   2.454   1.638
26032SOL    HW279936  11.022   2.353   1.559
26033SOL     OW79937   2.879  10.545   8.851
26033SOL    HW179938   2.787  10.548   8.876
26033SOL    HW279939   2.923  10.506   8.927
26034SOL     OW79940   9.276   5.872  12.029
26034SOL    HW179941   9.368   5.865  12.001
26034SOL    HW279942   9.253   5.783  12.056
26035SOL     OW79943  14.085   7.165   1.144
26035SOL    HW179944  14.045   7.081   1.170
26035SOL    HW279945  14.078   7.167   1.049
26036SOL     OW79946   9.303  11.057   5.699
26036SOL    HW179947   9.296  10.965   5.724
26036SOL    HW279948   9.215  11.081   5.670
26037SOL     OW79949   9.237   8.257   1.475
26037SOL    HW179950   9.276   8.244   1.562
26037SOL    HW279951   9.298   8.213   1.415
26038SOL     OW79952   6.694   3.074  13.021
26038SOL    HW179953   6.630   3.068  13.092
26038SOL    HW279954   6.657   3.019  12.951
26039SOL     OW79955  14.485   7.528   7.211
26039SOL    HW179956  14.478   7.447   7.161
26039SOL    HW279957  14.471   7.501   7.302
26040SOL     OW79958   2.549  13.565   8.091
26040SOL    HW179959   2.499  13.571   8.172
26040SOL    HW279960   2.640  13.557   8.120
26041SOL     OW79961   5.199   2.023   5.662
26041SOL    HW179962   5.215   2.039   5.755
26041SOL    HW279963   5.106   2.041   5.650
26042SOL     OW79964   0.959  14.549   5.292
26042SOL    HW179965   0.947  14.643   5.303
26042SOL    HW279966   0.907  14.527   5.215
26043SOL     OW79967   0.611   5.728  12.131
26043SOL    HW179968   0.572   5.643  12.112
26043SOL    HW279969   0.544   5.792  12.108
26044SOL     OW79970  10.442   0.108   8.216
26044SOL    HW179971  10.473   0.042   8.154
26044SOL    HW279972  10.466   0.074   8.302
26045SOL     OW79973   3.259   2.553   6.300
26045SOL    HW179974   3.315   2.616   6.346
26045SOL    HW279975   3.265   2.579   6.208
26046SOL     OW79976  13.727   6.582   1.618
26046SOL    HW179977  13.714   6.558   1.526
26046SOL    HW279978  13.804   6.640   1.616
26047SOL     OW79979  10.114   1.970   8.655
26047SOL    HW179980  10.088   2.053   8.616
26047SOL    HW279981  10.078   1.973   8.744
26048SOL     OW79982  11.384   5.413   6.848
26048SOL    HW179983  11.463   5.395   6.797
26048SOL    HW279984  11.356   5.327   6.881
26049SOL     OW79985   3.926  14.038  10.307
26049SOL    HW179986   3.883  14.118  10.336
26049SOL    HW279987   3.955  13.996  10.389
26050SOL     OW79988  12.967  10.378   0.224
26050SOL    HW179989  13.022  10.456   0.233
26050SOL    HW279990  13.029  10.305   0.218
26051SOL     OW79991   4.030   8.410  10.082
26051SOL    HW179992   3.939   8.381  10.073
26051SOL    HW279993   4.072   8.378  10.002
26052SOL     OW79994   6.260  12.222   1.396
26052SOL    HW179995   6.254  12.165   1.319
26052SOL    HW279996   6.228  12.307   1.365
26053SOL     OW79997   4.179  11.251  12.273
26053SOL    HW179998   4.138  11.239  12.187
26053SOL    HW279999   4.226  11.170  12.288
26054SOL     OW80000  11.920   3.829   8.349
26054SOL    HW180001  11.987   3.856   8.412
26054SOL    HW280002  11.856   3.901   8.349
26055SOL     OW80003   6.144   9.437   6.739
26055SOL    HW180004   6.205   9.433   6.813
26055SOL    HW280005   6.189   9.490   6.673
26056SOL     OW80006   0.966   2.231  14.686
26056SOL    HW180007   0.912   2.300  14.648
26056SOL    HW280008   1.056   2.260  14.673
26057SOL     OW80009   4.838  13.408   7.102
26057SOL    HW180010   4.885  13.365   7.030
26057SOL    HW280011   4.900  13.471   7.137
26058SOL     OW80012   4.965   9.417  10.186
26058SOL    HW180013   4.883   9.391  10.227
26058SOL    HW280014   4.963   9.513  10.187
26059SOL     OW80015   5.144   0.297   9.603
26059SOL    HW180016   5.131   0.391   9.595
26059SOL    HW280017   5.117   0.262   9.518
26060SOL     OW80018   5.621   0.026  11.966
26060SOL    HW180019   5.635  14.811  11.977
26060SOL    HW280020   5.573   0.052  12.044
26061SOL     OW80021  11.357   9.742  13.305
26061SOL    HW180022  11.417   9.813  13.283
26061SOL    HW280023  11.405   9.689  13.368
26062SOL     OW80024   3.734  10.869  10.513
26062SOL    HW180025   3.826  10.892  10.501
26062SOL    HW280026   3.728  10.843  10.605
26063SOL     OW80027   7.165   3.267   6.813
26063SOL    HW180028   7.158   3.183   6.858
26063SOL    HW280029   7.138   3.249   6.723
26064SOL     OW80030   8.855   1.911  11.589
26064SOL    HW180031   8.836   1.818  11.572
26064SOL    HW280032   8.769   1.952  11.598
26065SOL     OW80033   2.873   3.899  12.367
26065SOL    HW180034   2.909   3.973  12.319
26065SOL    HW280035   2.912   3.822  12.325
26066SOL     OW80036   1.435   9.388  10.218
26066SOL    HW180037   1.366   9.428  10.165
26066SOL    HW280038   1.391   9.318  10.267
26067SOL     OW80039   3.150  11.301  10.046
26067SOL    HW180040   3.239  11.268  10.035
26067SOL    HW280041   3.123  11.329   9.958
26068SOL     OW80042   2.974   6.147  13.803
26068SOL    HW180043   2.983   6.052  13.804
26068SOL    HW280044   2.937   6.169  13.888
26069SOL     OW80045   6.078   3.087   8.547
26069SOL    HW180046   6.029   3.006   8.562
26069SOL    HW280047   6.040   3.123   8.466
26070SOL     OW80048   1.779   7.194   2.760
26070SOL    HW180049   1.730   7.209   2.841
26070SOL    HW280050   1.846   7.262   2.759
26071SOL     OW80051   6.757  11.531   1.997
26071SOL    HW180052   6.775  11.440   2.021
26071SOL    HW280053   6.780  11.536   1.904
26072SOL     OW80054  12.526   8.521  10.096
26072SOL    HW180055  12.549   8.536  10.004
26072SOL    HW280056  12.609   8.503  10.139
26073SOL     OW80057  12.765  10.513   5.899
26073SOL    HW180058  12.742  10.481   5.986
26073SOL    HW280059  12.850  10.473   5.880
26074SOL     OW80060  14.791   3.185  12.869
26074SOL    HW180061  14.811   3.098  12.905
26074SOL    HW280062  14.729   3.168  12.798
26075SOL     OW80063  13.540  12.629  11.945
26075SOL    HW180064  13.456  12.661  11.979
26075SOL    HW280065  13.558  12.551  11.997
26076SOL     OW80066  12.445  11.165   9.762
26076SOL    HW180067  12.506  11.091   9.764
26076SOL    HW280068  12.444  11.191   9.670
26077SOL     OW80069   2.285  12.372   8.902
26077SOL    HW180070   2.278  12.376   8.806
26077SOL    HW280071   2.202  12.405   8.934
26078SOL     OW80072   7.702   7.737   7.764
26078SOL    HW180073   7.792   7.765   7.752
26078SOL    HW280074   7.654   7.817   7.785
26079SOL     OW80075  14.734   4.354   6.749
26079SOL    HW180076  14.695   4.438   6.771
26079SOL    HW280077  14.707   4.337   6.659
26080SOL     OW80078   1.795  12.678   0.912
26080SOL    HW180079   1.867  12.716   0.963
26080SOL    HW280080   1.742  12.753   0.885
26081SOL     OW80081   7.506   6.595   7.194
26081SOL    HW180082   7.594   6.629   7.211
26081SOL    HW280083   7.511   6.559   7.105
26082SOL     OW80084   0.688   7.585   3.158
26082SOL    HW180085   0.781   7.596   3.177
26082SOL    HW280086   0.659   7.518   3.220
26083SOL     OW80087   2.711  13.540   8.978
26083SOL    HW180088   2.616  13.554   8.988
26083SOL    HW280089   2.727  13.457   9.023
26084SOL     OW80090   8.463  14.706   6.163
26084SOL    HW180091   8.385  14.704   6.108
26084SOL    HW280092   8.503  14.791   6.143
26085SOL     OW80093  13.094   7.396   4.719
26085SOL    HW180094  13.094   7.491   4.704
26085SOL    HW280095  13.013   7.365   4.679
26086SOL     OW80096   2.926   0.600   9.433
26086SOL    HW180097   2.837   0.599   9.397
26086SOL    HW280098   2.932   0.521   9.486
26087SOL     OW80099   0.579   3.412   4.653
26087SOL    HW180100   0.493   3.371   4.644
26087SOL    HW280101   0.605   3.435   4.564
26088SOL     OW80102   5.198   9.928  13.214
26088SOL    HW180103   5.280   9.973  13.193
26088SOL    HW280104   5.150   9.926  13.132
26089SOL     OW80105   4.675   6.922   1.748
26089SOL    HW180106   4.628   6.995   1.706
26089SOL    HW280107   4.733   6.964   1.811
26090SOL     OW80108   0.957   9.111  13.408
26090SOL    HW180109   1.026   9.177  13.404
26090SOL    HW280110   0.904   9.128  13.330
26091SOL     OW80111  12.793   3.097  12.280
26091SOL    HW180112  12.778   3.005  12.258
26091SOL    HW280113  12.722   3.119  12.341
26092SOL     OW80114  12.882  10.358   7.586
26092SOL    HW180115  12.892  10.381   7.679
26092SOL    HW280116  12.820  10.422   7.552
26093SOL     OW80117   3.407   7.951   8.718
26093SOL    HW180118   3.342   7.897   8.673
26093SOL    HW280119   3.377   8.041   8.705
26094SOL     OW80120   1.935   4.109   2.129
26094SOL    HW180121   1.900   4.174   2.190
26094SOL    HW280122   1.904   4.138   2.044
26095SOL     OW80123   2.685   1.148   6.373
26095SOL    HW180124   2.730   1.215   6.322
26095SOL    HW280125   2.738   1.138   6.452
26096SOL     OW80126   0.233  12.636   9.251
26096SOL    HW180127   0.205  12.600   9.334
26096SOL    HW280128   0.280  12.716   9.274
26097SOL     OW80129  13.282  10.294   9.527
26097SOL    HW180130  13.307  10.281   9.436
26097SOL    HW280131  13.365  10.302   9.574
26098SOL     OW80132   4.982  10.063   7.523
26098SOL    HW180133   4.937  10.120   7.584
26098SOL    HW280134   4.999  10.118   7.446
26099SOL     OW80135   2.744   1.050   2.935
26099SOL    HW180136   2.689   1.118   2.974
26099SOL    HW280137   2.822   1.049   2.990
26100SOL     OW80138  12.775   8.209  12.928
26100SOL    HW180139  12.869   8.226  12.932
26100SOL    HW280140  12.742   8.270  12.862
26101SOL     OW80141  13.518   4.918  11.913
26101SOL    HW180142  13.603   4.875  11.908
26101SOL    HW280143  13.462   4.866  11.855
26102SOL     OW80144  13.338   3.379   9.757
26102SOL    HW180145  13.330   3.474   9.743
26102SOL    HW280146  13.383   3.371   9.841
26103SOL     OW80147   6.704  13.769   2.116
26103SOL    HW180148   6.663  13.706   2.057
26103SOL    HW280149   6.796  13.774   2.087
26104SOL     OW80150   5.064   5.584  10.609
26104SOL    HW180151   5.065   5.492  10.585
26104SOL    HW280152   5.146   5.620  10.573
26105SOL     OW80153   3.898  13.919  14.269
26105SOL    HW180154   3.903  13.869  14.351
26105SOL    HW280155   3.989  13.936  14.245
26106SOL     OW80156  11.633   7.476  13.966
26106SOL    HW180157  11.603   7.528  14.042
26106SOL    HW280158  11.572   7.499  13.896
26107SOL     OW80159   7.993  12.559  13.089
26107SOL    HW180160   8.012  12.535  13.180
26107SOL    HW280161   7.900  12.536  13.078
26108SOL     OW80162   0.343  12.421   4.117
26108SOL    HW180163   0.410  12.401   4.182
26108SOL    HW280164   0.386  12.481   4.056
26109SOL     OW80165   7.484   3.652   0.775
26109SOL    HW180166   7.443   3.707   0.708
26109SOL    HW280167   7.539   3.712   0.825
26110SOL     OW80168   9.784   5.038   0.444
26110SOL    HW180169   9.826   5.017   0.528
26110SOL    HW280170   9.756   4.953   0.410
26111SOL     OW80171   8.397   4.116   4.363
26111SOL    HW180172   8.466   4.050   4.354
26111SOL    HW280173   8.323   4.069   4.401
26112SOL     OW80174  10.816  11.598   8.618
26112SOL    HW180175  10.738  11.546   8.604
26112SOL    HW280176  10.791  11.687   8.595
26113SOL     OW80177   0.321   8.884   6.047
26113SOL    HW180178   0.381   8.942   5.999
26113SOL    HW280179   0.338   8.797   6.010
26114SOL     OW80180  12.286   2.133  11.518
26114SOL    HW180181  12.379   2.131  11.496
26114SOL    HW280182  12.265   2.044  11.545
26115SOL     OW80183  11.053   7.133   3.314
26115SOL    HW180184  10.960   7.110   3.315
26115SOL    HW280185  11.078   7.126   3.222
26116SOL     OW80186  12.465   5.469   8.502
26116SOL    HW180187  12.480   5.376   8.521
26116SOL    HW280188  12.417   5.502   8.578
26117SOL     OW80189   6.226   5.549  12.883
26117SOL    HW180190   6.297   5.579  12.827
26117SOL    HW280191   6.263   5.474  12.930
26118SOL     OW80192   9.711  12.755   0.226
26118SOL    HW180193   9.765  12.812   0.172
26118SOL    HW280194   9.694  12.807   0.305
26119SOL     OW80195   9.182   1.262   1.466
26119SOL    HW180196   9.114   1.198   1.442
26119SOL    HW280197   9.265   1.218   1.445
26120SOL     OW80198   2.381   5.600   8.639
26120SOL    HW180199   2.355   5.667   8.702
26120SOL    HW280200   2.334   5.521   8.668
26121SOL     OW80201   1.835   1.177   2.132
26121SOL    HW180202   1.833   1.249   2.195
26121SOL    HW280203   1.890   1.208   2.061
26122SOL     OW80204  14.227   3.726   5.668
26122SOL    HW180205  14.148   3.742   5.720
26122SOL    HW280206  14.253   3.812   5.636
26123SOL     OW80207   2.336  13.206  10.036
26123SOL    HW180208   2.290  13.208   9.952
26123SOL    HW280209   2.417  13.159  10.017
26124SOL     OW80210  11.700   5.472  11.730
26124SOL    HW180211  11.618   5.504  11.767
26124SOL    HW280212  11.765   5.486  11.799
26125SOL     OW80213  12.297  11.716  13.214
26125SOL    HW180214  12.349  11.706  13.295
26125SOL    HW280215  12.210  11.684  13.238
26126SOL     OW80216  12.590   6.843   8.015
26126SOL    HW180217  12.597   6.936   8.040
26126SOL    HW280218  12.656   6.799   8.068
26127SOL     OW80219   9.180   6.200   5.142
26127SOL    HW180220   9.209   6.198   5.233
26127SOL    HW280221   9.085   6.198   5.147
26128SOL     OW80222   4.739   0.359   1.136
26128SOL    HW180223   4.810   0.421   1.151
26128SOL    HW280224   4.778   0.289   1.085
26129SOL     OW80225   7.889   4.549   7.979
26129SOL    HW180226   7.815   4.523   7.924
26129SOL    HW280227   7.859   4.627   8.025
26130SOL     OW80228  11.625   4.321   2.885
26130SOL    HW180229  11.611   4.248   2.946
26130SOL    HW280230  11.590   4.289   2.802
26131SOL     OW80231   4.780  14.576   9.928
26131SOL    HW180232   4.832  14.508   9.885
26131SOL    HW280233   4.801  14.656   9.881
26132SOL     OW80234   7.706   8.028  10.225
26132SOL    HW180235   7.799   8.047  10.235
26132SOL    HW280236   7.701   7.970  10.149
26133SOL     OW80237  10.354   3.448  10.282
26133SOL    HW180238  10.324   3.505  10.211
26133SOL    HW280239  10.369   3.363  10.241
26134SOL     OW80240   5.324   2.437   0.072
26134SOL    HW180241   5.300   2.366   0.132
26134SOL    HW280242   5.342   2.393  14.868
26135SOL     OW80243   2.411   1.815   2.078
26135SOL    HW180244   2.345   1.761   2.035
26135SOL    HW280245   2.392   1.904   2.049
26136SOL     OW80246   1.650   7.331   2.285
26136SOL    HW180247   1.680   7.322   2.376
26136SOL    HW280248   1.564   7.288   2.284
26137SOL     OW80249  10.599   9.322  13.873
26137SOL    HW180250  10.674   9.315  13.814
26137SOL    HW280251  10.564   9.409  13.857
26138SOL     OW80252   1.066  14.284  10.263
26138SOL    HW180253   1.007  14.230  10.210
26138SOL    HW280254   1.118  14.221  10.313
26139SOL     OW80255  14.837   2.948  14.426
26139SOL    HW180256  14.840   2.925  14.518
26139SOL    HW280257  14.795   2.873  14.383
26140SOL     OW80258  12.772   3.664   5.821
26140SOL    HW180259  12.843   3.686   5.761
26140SOL    HW280260  12.717   3.603   5.772
26141SOL     OW80261  12.190  10.502   0.811
26141SOL    HW180262  12.256  10.518   0.878
26141SOL    HW280263  12.215  10.559   0.739
26142SOL     OW80264  14.550   9.789   1.744
26142SOL    HW180265  14.587   9.730   1.810
26142SOL    HW280266  14.563   9.744   1.661
26143SOL     OW80267   1.268   3.297  11.169
26143SOL    HW180268   1.354   3.261  11.188
26143SOL    HW280269   1.272   3.387  11.202
26144SOL     OW80270   3.716  12.412   5.604
26144SOL    HW180271   3.684  12.479   5.543
26144SOL    HW280272   3.637  12.381   5.649
26145SOL     OW80273   5.608  12.796   1.550
26145SOL    HW180274   5.609  12.730   1.618
26145SOL    HW280275   5.696  12.835   1.553
26146SOL     OW80276   4.098  10.569   4.965
26146SOL    HW180277   4.147  10.650   4.951
26146SOL    HW280278   4.013  10.597   4.997
26147SOL     OW80279  11.685  13.814   9.050
26147SOL    HW180280  11.613  13.750   9.048
26147SOL    HW280281  11.663  13.877   8.981
26148SOL     OW80282   3.417   8.688   0.613
26148SOL    HW180283   3.369   8.608   0.594
26148SOL    HW280284   3.480   8.697   0.541
26149SOL     OW80285   6.675   0.257   7.654
26149SOL    HW180286   6.708   0.347   7.654
26149SOL    HW280287   6.635   0.245   7.740
26150SOL     OW80288  11.309   9.657   3.469
26150SOL    HW180289  11.330   9.723   3.402
26150SOL    HW280290  11.338   9.696   3.551
26151SOL     OW80291   1.482  11.510   8.540
26151SOL    HW180292   1.409  11.559   8.502
26151SOL    HW280293   1.456  11.498   8.632
26152SOL     OW80294   3.729  13.011   7.301
26152SOL    HW180295   3.704  12.919   7.286
26152SOL    HW280296   3.746  13.016   7.395
26153SOL     OW80297   3.964  12.229   5.429
26153SOL    HW180298   4.005  12.314   5.445
26153SOL    HW280299   3.898  12.220   5.499
26154SOL     OW80300   2.516   0.446   1.783
26154SOL    HW180301   2.423   0.427   1.789
26154SOL    HW280302   2.559   0.373   1.827
26155SOL     OW80303   6.831   9.044   3.699
26155SOL    HW180304   6.847   9.050   3.605
26155SOL    HW280305   6.759   8.981   3.708
26156SOL     OW80306  10.820   0.038   3.765
26156SOL    HW180307  10.737   0.040   3.813
26156SOL    HW280308  10.794   0.045   3.673
26157SOL     OW80309  11.650   5.653  10.559
26157SOL    HW180310  11.691   5.720  10.614
26157SOL    HW280311  11.660   5.687  10.470
26158SOL     OW80312   6.138  11.972   2.865
26158SOL    HW180313   6.046  11.958   2.842
26158SOL    HW280314   6.136  12.006   2.954
26159SOL     OW80315   7.779  10.348   0.993
26159SOL    HW180316   7.862  10.376   1.032
26159SOL    HW280317   7.736  10.429   0.967
26160SOL     OW80318  11.691   3.578  12.926
26160SOL    HW180319  11.708   3.646  12.860
26160SOL    HW280320  11.662   3.626  13.003
26161SOL     OW80321   0.110   1.137   0.544
26161SOL    HW180322   0.032   1.090   0.514
26161SOL    HW280323   0.179   1.109   0.484
26162SOL     OW80324   2.831  11.837   3.852
26162SOL    HW180325   2.804  11.904   3.789
26162SOL    HW280326   2.840  11.884   3.935
26163SOL     OW80327   5.886   4.764   4.894
26163SOL    HW180328   5.938   4.837   4.862
26163SOL    HW280329   5.932   4.686   4.863
26164SOL     OW80330   6.162  13.251  14.065
26164SOL    HW180331   6.085  13.261  14.121
26164SOL    HW280332   6.127  13.226  13.980
26165SOL     OW80333   7.142   5.961   7.485
26165SOL    HW180334   7.184   5.986   7.402
26165SOL    HW280335   7.211   5.972   7.551
26166SOL     OW80336   1.237   1.944   6.965
26166SOL    HW180337   1.324   1.914   6.991
26166SOL    HW280338   1.254   2.010   6.897
26167SOL     OW80339   1.301   8.923   1.637
26167SOL    HW180340   1.296   8.965   1.722
26167SOL    HW280341   1.344   8.839   1.654
26168SOL     OW80342  13.822   0.641  12.800
26168SOL    HW180343  13.811   0.729  12.837
26168SOL    HW280344  13.822   0.656  12.705
26169SOL     OW80345   4.121   2.337   2.259
26169SOL    HW180346   4.082   2.252   2.238
26169SOL    HW280347   4.215   2.324   2.249
26170SOL     OW80348   0.417  14.146   9.496
26170SOL    HW180349   0.420  14.110   9.407
26170SOL    HW280350   0.435  14.239   9.485
26171SOL     OW80351  10.636  10.038   5.581
26171SOL    HW180352  10.660  10.099   5.651
26171SOL    HW280353  10.552  10.071   5.550
26172SOL     OW80354  13.092  11.783  12.040
26172SOL    HW180355  13.026  11.760  11.975
26172SOL    HW280356  13.175  11.755  12.000
26173SOL     OW80357   8.174  11.213   2.322
26173SOL    HW180358   8.241  11.163   2.367
26173SOL    HW280359   8.218  11.248   2.245
26174SOL     OW80360   2.633   7.833   3.207
26174SOL    HW180361   2.653   7.858   3.297
26174SOL    HW280362   2.612   7.916   3.163
26175SOL     OW80363  12.116   7.109  12.557
26175SOL    HW180364  12.046   7.117  12.622
26175SOL    HW280365  12.077   7.060  12.485
26176SOL     OW80366  14.258   9.704   3.314
26176SOL    HW180367  14.327   9.645   3.285
26176SOL    HW280368  14.182   9.682   3.260
26177SOL     OW80369   1.648   4.955   2.739
26177SOL    HW180370   1.576   5.006   2.702
26177SOL    HW280371   1.608   4.903   2.809
26178SOL     OW80372   0.843  13.657   3.535
26178SOL    HW180373   0.820  13.609   3.455
26178SOL    HW280374   0.834  13.592   3.605
26179SOL     OW80375   7.312   8.120   3.574
26179SOL    HW180376   7.330   8.142   3.482
26179SOL    HW280377   7.367   8.044   3.591
26180SOL     OW80378   9.341  11.135  11.596
26180SOL    HW180379   9.260  11.127  11.545
26180SOL    HW280380   9.335  11.221  11.636
26181SOL     OW80381   7.889  13.676  14.665
26181SOL    HW180382   7.979  13.645  14.666
26181SOL    HW280383   7.850  13.641  14.745
26182SOL     OW80384  10.625   3.360  14.627
26182SOL    HW180385  10.590   3.425  14.566
26182SOL    HW280386  10.551   3.340  14.685
26183SOL     OW80387   2.022   2.545   1.305
26183SOL    HW180388   1.997   2.609   1.239
26183SOL    HW280389   2.118   2.539   1.298
26184SOL     OW80390  14.516   4.361   9.136
26184SOL    HW180391  14.610   4.377   9.151
26184SOL    HW280392  14.498   4.400   9.051
26185SOL     OW80393   1.178  14.417  13.667
26185SOL    HW180394   1.142  14.458  13.588
26185SOL    HW280395   1.104  14.369  13.704
26186SOL     OW80396  10.868   1.326   3.988
26186SOL    HW180397  10.867   1.230   3.987
26186SOL    HW280398  10.824   1.351   3.907
26187SOL     OW80399   6.479   8.715   2.418
26187SOL    HW180400   6.389   8.748   2.421
26187SOL    HW280401   6.529   8.777   2.471
26188SOL     OW80402  11.701   9.472   0.018
26188SOL    HW180403  11.618   9.487   0.064
26188SOL    HW280404  11.756   9.428   0.082
26189SOL     OW80405  14.516   5.672   2.150
26189SOL    HW180406  14.479   5.748   2.106
26189SOL    HW280407  14.611   5.685   2.147
26190SOL     OW80408  10.399   6.554   3.838
26190SOL    HW180409  10.339   6.498   3.789
26190SOL    HW280410  10.343   6.620   3.878
26191SOL     OW80411  14.601   2.825   0.216
26191SOL    HW180412  14.662   2.784   0.154
26191SOL    HW280413  14.545   2.880   0.160
26192SOL     OW80414  14.097  13.019   4.134
26192SOL    HW180415  14.138  12.938   4.103
26192SOL    HW280416  14.094  13.075   4.056
26193SOL     OW80417   6.724  10.659   6.569
26193SOL    HW180418   6.814  10.634   6.588
26193SOL    HW280419   6.674  10.624   6.643
26194SOL     OW80420   9.320   0.082   4.519
26194SOL    HW180421   9.288  14.871   4.525
26194SOL    HW280422   9.378   0.092   4.594
26195SOL     OW80423   3.852   0.925  12.857
26195SOL    HW180424   3.859   1.021  12.849
26195SOL    HW280425   3.864   0.908  12.950
26196SOL     OW80426   2.685   4.358   3.888
26196SOL    HW180427   2.616   4.423   3.899
26196SOL    HW280428   2.640   4.274   3.891
26197SOL     OW80429   2.250   5.980  14.258
26197SOL    HW180430   2.185   6.026  14.205
26197SOL    HW280431   2.204   5.902  14.290
26198SOL     OW80432   9.154   7.039   1.887
26198SOL    HW180433   9.105   6.959   1.871
26198SOL    HW280434   9.089   7.101   1.920
26199SOL     OW80435   4.145  13.328   6.331
26199SOL    HW180436   4.090  13.251   6.317
26199SOL    HW280437   4.099  13.399   6.285
26200SOL     OW80438   1.296   6.830   6.541
26200SOL    HW180439   1.373   6.776   6.560
26200SOL    HW280440   1.267   6.861   6.627
26201SOL     OW80441   2.098  10.120   6.265
26201SOL    HW180442   2.038  10.046   6.256
26201SOL    HW280443   2.185  10.082   6.258
26202SOL     OW80444   0.599  11.365   4.421
26202SOL    HW180445   0.665  11.432   4.437
26202SOL    HW280446   0.516  11.411   4.427
26203SOL     OW80447   2.058   4.374  14.049
26203SOL    HW180448   2.038   4.281  14.038
26203SOL    HW280449   1.986   4.408  14.102
26204SOL     OW80450  10.784   7.562   2.772
26204SOL    HW180451  10.728   7.566   2.695
26204SOL    HW280452  10.752   7.486   2.821
26205SOL     OW80453  10.125  14.785   1.014
26205SOL    HW180454  10.101  14.847   0.944
26205SOL    HW280455  10.042  14.762   1.055
26206SOL     OW80456  10.869   8.235   1.210
26206SOL    HW180457  10.847   8.249   1.302
26206SOL    HW280458  10.902   8.145   1.206
26207SOL     OW80459   6.184   8.178   7.449
26207SOL    HW180460   6.249   8.137   7.506
26207SOL    HW280461   6.175   8.267   7.485
26208SOL     OW80462   3.566   9.293  10.311
26208SOL    HW180463   3.598   9.222  10.255
26208SOL    HW280464   3.472   9.275  10.319
26209SOL     OW80465   1.848  13.055   8.156
26209SOL    HW180466   1.831  12.966   8.188
26209SOL    HW280467   1.852  13.109   8.235
26210SOL     OW80468  13.103   1.339   3.888
26210SOL    HW180469  13.041   1.378   3.950
26210SOL    HW280470  13.131   1.258   3.931
26211SOL     OW80471  10.469  12.167   4.459
26211SOL    HW180472  10.409  12.161   4.384
26211SOL    HW280473  10.517  12.084   4.458
26212SOL     OW80474   6.952   5.059   3.346
26212SOL    HW180475   6.953   5.153   3.332
26212SOL    HW280476   6.977   5.022   3.261
26213SOL     OW80477   4.043   9.122   1.869
26213SOL    HW180478   4.054   9.213   1.840
26213SOL    HW280479   4.127   9.100   1.910
26214SOL     OW80480   7.021   1.272  13.288
26214SOL    HW180481   6.977   1.351  13.259
26214SOL    HW280482   7.107   1.302  13.318
26215SOL     OW80483   1.986   0.142   8.492
26215SOL    HW180484   1.932   0.216   8.464
26215SOL    HW280485   2.019   0.103   8.411
26216SOL     OW80486   3.421  11.447   2.514
26216SOL    HW180487   3.446  11.457   2.422
26216SOL    HW280488   3.448  11.358   2.536
26217SOL     OW80489   9.520  13.478  14.132
26217SOL    HW180490   9.439  13.434  14.157
26217SOL    HW280491   9.552  13.517  14.214
26218SOL     OW80492   2.254   6.874  14.316
26218SOL    HW180493   2.287   6.961  14.341
26218SOL    HW280494   2.318   6.840  14.254
26219SOL     OW80495   4.903   6.778   0.225
26219SOL    HW180496   4.861   6.793   0.141
26219SOL    HW280497   4.835   6.740   0.280
26220SOL     OW80498  13.367  11.436   0.223
26220SOL    HW180499  13.446  11.485   0.200
26220SOL    HW280500  13.340  11.394   0.141
26221SOL     OW80501   7.348   6.884  12.251
26221SOL    HW180502   7.442   6.872  12.257
26221SOL    HW280503   7.328   6.952  12.316
26222SOL     OW80504   9.069  14.120   6.883
26222SOL    HW180505   8.997  14.134   6.944
26222SOL    HW280506   9.088  14.026   6.889
26223SOL     OW80507  11.832   3.896   9.938
26223SOL    HW180508  11.756   3.936   9.894
26223SOL    HW280509  11.884   3.860   9.866
26224SOL     OW80510  13.154   2.951  14.824
26224SOL    HW180511  13.064   2.983  14.817
26224SOL    HW280512  13.207   3.030  14.829
26225SOL     OW80513  11.490   7.630   6.744
26225SOL    HW180514  11.475   7.629   6.649
26225SOL    HW280515  11.518   7.540   6.764
26226SOL     OW80516   3.656   1.040   6.304
26226SOL    HW180517   3.705   1.111   6.262
26226SOL    HW280518   3.623   0.988   6.231
26227SOL     OW80519   7.400  10.006   3.221
26227SOL    HW180520   7.395  10.081   3.281
26227SOL    HW280521   7.388  10.044   3.134
26228SOL     OW80522   4.884   9.463   0.638
26228SOL    HW180523   4.874   9.454   0.543
26228SOL    HW280524   4.934   9.544   0.650
26229SOL     OW80525   6.284   7.437   5.288
26229SOL    HW180526   6.375   7.413   5.270
26229SOL    HW280527   6.262   7.388   5.367
26230SOL     OW80528   3.561   1.879  10.686
26230SOL    HW180529   3.510   1.915  10.614
26230SOL    HW280530   3.514   1.799  10.711
26231SOL     OW80531   2.823  11.904  14.356
26231SOL    HW180532   2.766  11.970  14.317
26231SOL    HW280533   2.832  11.837  14.289
26232SOL     OW80534  10.902   7.024   9.637
26232SOL    HW180535  10.975   6.981   9.593
26232SOL    HW280536  10.942   7.072   9.709
26233SOL     OW80537   2.130  12.905   5.988
26233SOL    HW180538   2.145  12.823   6.035
26233SOL    HW280539   2.045  12.935   6.017
26234SOL     OW80540  14.022  13.994   8.895
26234SOL    HW180541  13.980  14.025   8.815
26234SOL    HW280542  14.088  14.060   8.915
26235SOL     OW80543   6.104  12.899   0.553
26235SOL    HW180544   6.096  12.844   0.631
26235SOL    HW280545   6.048  12.974   0.571
26236SOL     OW80546   2.685  10.685   3.827
26236SOL    HW180547   2.743  10.722   3.893
26236SOL    HW280548   2.599  10.724   3.846
26237SOL     OW80549   4.132   0.280   1.963
26237SOL    HW180550   4.079   0.202   1.950
26237SOL    HW280551   4.191   0.282   1.887
26238SOL     OW80552  13.743   1.732   0.600
26238SOL    HW180553  13.783   1.746   0.514
26238SOL    HW280554  13.724   1.819   0.633
26239SOL     OW80555   7.722   7.456   5.108
26239SOL    HW180556   7.763   7.539   5.131
26239SOL    HW280557   7.767   7.391   5.161
26240SOL     OW80558   6.518  12.147   9.887
26240SOL    HW180559   6.459  12.196   9.945
26240SOL    HW280560   6.553  12.213   9.827
26241SOL     OW80561   0.294   5.407   6.525
26241SOL    HW180562   0.302   5.461   6.603
26241SOL    HW280563   0.332   5.323   6.551
26242SOL     OW80564   4.289   3.396   7.425
26242SOL    HW180565   4.351   3.420   7.356
26242SOL    HW280566   4.223   3.465   7.424
26243SOL     OW80567   9.243  12.586  10.951
26243SOL    HW180568   9.315  12.616  10.895
26243SOL    HW280569   9.252  12.637  11.031
26244SOL     OW80570   4.338   7.472  12.305
26244SOL    HW180571   4.252   7.487  12.266
26244SOL    HW280572   4.326   7.491  12.398
26245SOL     OW80573  10.122   1.313  11.763
26245SOL    HW180574  10.205   1.287  11.804
26245SOL    HW280575  10.142   1.319  11.670
26246SOL     OW80576   8.241  12.721  10.904
26246SOL    HW180577   8.235  12.757  10.816
26246SOL    HW280578   8.333  12.694  10.912
26247SOL     OW80579   3.777   3.708   8.713
26247SOL    HW180580   3.810   3.746   8.632
26247SOL    HW280581   3.843   3.644   8.738
26248SOL     OW80582   1.337  13.121   2.054
26248SOL    HW180583   1.402  13.051   2.062
26248SOL    HW280584   1.262  13.079   2.012
26249SOL     OW80585   4.073   0.308   2.221
26249SOL    HW180586   4.072   0.307   2.125
26249SOL    HW280587   3.988   0.273   2.246
26250SOL     OW80588   8.689   2.317   3.759
26250SOL    HW180589   8.700   2.412   3.770
26250SOL    HW280590   8.623   2.309   3.691
26251SOL     OW80591   2.733   1.759   8.436
26251SOL    HW180592   2.822   1.735   8.409
26251SOL    HW280593   2.745   1.812   8.514
26252SOL     OW80594  11.362   2.192   3.776
26252SOL    HW180595  11.313   2.201   3.694
26252SOL    HW280596  11.365   2.097   3.791
26253SOL     OW80597   3.940  12.060   9.085
26253SOL    HW180598   3.962  11.971   9.114
26253SOL    HW280599   3.868  12.048   9.023
26254SOL     OW80600   4.646   6.739   8.848
26254SOL    HW180601   4.554   6.758   8.828
26254SOL    HW280602   4.659   6.650   8.815
26255SOL     OW80603   4.568  10.357   1.964
26255SOL    HW180604   4.616  10.322   2.039
26255SOL    HW280605   4.476  10.356   1.991
26256SOL     OW80606  12.877  11.802   8.445
26256SOL    HW180607  12.871  11.741   8.371
26256SOL    HW280608  12.940  11.761   8.504
26257SOL     OW80609   4.294  10.591   0.855
26257SOL    HW180610   4.334  10.677   0.867
26257SOL    HW280611   4.327  10.561   0.770
26258SOL     OW80612   5.033   3.449   6.371
26258SOL    HW180613   4.977   3.523   6.395
26258SOL    HW280614   5.095   3.441   6.444
26259SOL     OW80615  10.115   1.044  10.768
26259SOL    HW180616  10.152   1.126  10.736
26259SOL    HW280617  10.137   0.979  10.701
26260SOL     OW80618   0.956   4.302  13.199
26260SOL    HW180619   0.985   4.373  13.142
26260SOL    HW280620   1.008   4.227  13.172
26261SOL     OW80621   4.298   5.916  13.486
26261SOL    HW180622   4.231   5.850  13.469
26261SOL    HW280623   4.249   5.996  13.507
26262SOL     OW80624   9.702   1.035   6.408
26262SOL    HW180625   9.708   1.119   6.454
26262SOL    HW280626   9.638   1.050   6.339
26263SOL     OW80627   1.343  13.884  14.167
26263SOL    HW180628   1.414  13.920  14.113
26263SOL    HW280629   1.265  13.892  14.112
26264SOL     OW80630   4.009   3.130   9.523
26264SOL    HW180631   3.923   3.170   9.536
26264SOL    HW280632   4.071   3.202   9.532
26265SOL     OW80633  13.147   5.323   3.942
26265SOL    HW180634  13.189   5.334   4.028
26265SOL    HW280635  13.143   5.229   3.929
26266SOL     OW80636   4.655   7.706  13.263
26266SOL    HW180637   4.688   7.777  13.210
26266SOL    HW280638   4.593   7.747  13.323
26267SOL     OW80639   6.164  13.448   0.162
26267SOL    HW180640   6.147  13.376   0.222
26267SOL    HW280641   6.183  13.523   0.219
26268SOL     OW80642  12.496   7.770  11.208
26268SOL    HW180643  12.439   7.843  11.184
26268SOL    HW280644  12.438   7.694  11.209
26269SOL     OW80645  14.264  11.206   1.863
26269SOL    HW180646  14.336  11.240   1.810
26269SOL    HW280647  14.273  11.250   1.947
26270SOL     OW80648  11.965   4.225   3.446
26270SOL    HW180649  12.000   4.143   3.481
26270SOL    HW280650  11.878   4.233   3.483
26271SOL     OW80651   0.392  13.338   5.000
26271SOL    HW180652   0.402  13.286   5.079
26271SOL    HW280653   0.297  13.345   4.987
26272SOL     OW80654   3.214   6.013   5.048
26272SOL    HW180655   3.227   6.064   4.969
26272SOL    HW280656   3.121   5.989   5.047
26273SOL     OW80657   8.099   2.880   7.297
26273SOL    HW180658   8.090   2.787   7.275
26273SOL    HW280659   8.034   2.924   7.242
26274SOL     OW80660   1.883   2.980   5.830
26274SOL    HW180661   1.881   2.934   5.746
26274SOL    HW280662   1.866   3.072   5.807
26275SOL     OW80663   4.285   9.283  11.776
26275SOL    HW180664   4.335   9.203  11.791
26275SOL    HW280665   4.348   9.354  11.790
26276SOL     OW80666   9.749   9.993   7.577
26276SOL    HW180667   9.724   9.902   7.563
26276SOL    HW280668   9.715  10.039   7.501
26277SOL     OW80669   6.428   3.351   6.763
26277SOL    HW180670   6.479   3.279   6.801
26277SOL    HW280671   6.436   3.422   6.827
26278SOL     OW80672  11.060   9.655   4.478
26278SOL    HW180673  11.144   9.690   4.450
26278SOL    HW280674  11.047   9.578   4.424
26279SOL     OW80675   8.818   7.811   2.012
26279SOL    HW180676   8.864   7.886   2.049
26279SOL    HW280677   8.770   7.774   2.086
26280SOL     OW80678   3.124  11.999   0.321
26280SOL    HW180679   3.220  11.998   0.324
26280SOL    HW280680   3.098  11.909   0.343
26281SOL     OW80681   6.299   6.909   9.365
26281SOL    HW180682   6.394   6.914   9.356
26281SOL    HW280683   6.284   6.836   9.426
26282SOL     OW80684  14.113   0.700   8.680
26282SOL    HW180685  14.149   0.620   8.719
26282SOL    HW280686  14.020   0.697   8.700
26283SOL     OW80687   1.849   7.122   5.108
26283SOL    HW180688   1.801   7.148   5.187
26283SOL    HW280689   1.834   7.195   5.047
26284SOL     OW80690   1.890   8.597   4.573
26284SOL    HW180691   1.975   8.609   4.615
26284SOL    HW280692   1.912   8.579   4.481
26285SOL     OW80693   0.061   1.519   7.755
26285SOL    HW180694  14.873   1.528   7.822
26285SOL    HW280695   0.019   1.469   7.684
26286SOL     OW80696   1.144  11.634  11.509
26286SOL    HW180697   1.152  11.703  11.443
26286SOL    HW280698   1.093  11.674  11.579
26287SOL     OW80699   4.257   7.015   1.814
26287SOL    HW180700   4.265   7.094   1.867
26287SOL    HW280701   4.204   6.956   1.867
26288SOL     OW80702   9.633   4.148   7.330
26288SOL    HW180703   9.623   4.226   7.275
26288SOL    HW280704   9.545   4.133   7.365
26289SOL     OW80705   2.825   3.596   7.994
26289SOL    HW180706   2.889   3.542   7.946
26289SOL    HW280707   2.871   3.678   8.010
26290SOL     OW80708  14.047  14.594   8.661
26290SOL    HW180709  14.111  14.656   8.626
26290SOL    HW280710  13.964  14.621   8.623
26291SOL     OW80711   7.113   9.628   5.840
26291SOL    HW180712   7.025   9.649   5.871
26291SOL    HW280713   7.101   9.600   5.750
26292SOL     OW80714   9.266   3.922  14.068
26292SOL    HW180715   9.293   3.972  14.145
26292SOL    HW280716   9.174   3.899  14.085
26293SOL     OW80717   7.842  10.659  14.444
26293SOL    HW180718   7.807  10.570  14.439
26293SOL    HW280719   7.844  10.689  14.352
26294SOL     OW80720  13.362   7.972   6.264
26294SOL    HW180721  13.335   7.905   6.328
26294SOL    HW280722  13.383   7.922   6.185
26295SOL     OW80723  10.072  12.788   2.028
26295SOL    HW180724  10.161  12.811   2.000
26295SOL    HW280725  10.029  12.758   1.949
26296SOL     OW80726   0.992   4.309   8.874
26296SOL    HW180727   0.903   4.343   8.885
26296SOL    HW280728   0.988   4.255   8.795
26297SOL     OW80729   2.987  13.338  10.574
26297SOL    HW180730   3.017  13.399  10.507
26297SOL    HW280731   3.033  13.256  10.554
26298SOL     OW80732  14.403   8.444   3.466
26298SOL    HW180733  14.429   8.468   3.554
26298SOL    HW280734  14.485   8.424   3.421
26299SOL     OW80735   4.042   8.598   6.116
26299SOL    HW180736   4.027   8.630   6.205
26299SOL    HW280737   4.001   8.512   6.114
26300SOL     OW80738  13.609   8.623   3.852
26300SOL    HW180739  13.543   8.668   3.905
26300SOL    HW280740  13.585   8.530   3.858
26301SOL     OW80741   0.769   7.358  13.927
26301SOL    HW180742   0.730   7.336  13.842
26301SOL    HW280743   0.861   7.375  13.908
26302SOL     OW80744  12.524   3.751   3.634
26302SOL    HW180745  12.539   3.701   3.554
26302SOL    HW280746  12.601   3.807   3.642
26303SOL     OW80747   0.251  14.056   3.969
26303SOL    HW180748   0.315  14.110   3.922
26303SOL    HW280749   0.296  14.031   4.050
26304SOL     OW80750   0.655   4.134   5.755
26304SOL    HW180751   0.566   4.130   5.789
26304SOL    HW280752   0.645   4.168   5.666
26305SOL     OW80753   0.781   8.152   8.606
26305SOL    HW180754   0.871   8.155   8.637
26305SOL    HW280755   0.761   8.059   8.598
26306SOL     OW80756   9.109   2.624   0.893
26306SOL    HW180757   9.166   2.657   0.823
26306SOL    HW280758   9.022   2.657   0.870
26307SOL     OW80759   3.247  12.930  13.127
26307SOL    HW180760   3.268  12.838  13.117
26307SOL    HW280761   3.332  12.974  13.129
26308SOL     OW80762   0.336   0.406  10.102
26308SOL    HW180763   0.294   0.378  10.183
26308SOL    HW280764   0.272   0.463  10.060
26309SOL     OW80765   1.224   2.212   8.215
26309SOL    HW180766   1.171   2.274   8.264
26309SOL    HW280767   1.302   2.198   8.270
26310SOL     OW80768   2.400   5.096   7.218
26310SOL    HW180769   2.441   5.105   7.132
26310SOL    HW280770   2.375   5.186   7.242
26311SOL     OW80771   7.884   8.716   4.992
26311SOL    HW180772   7.794   8.694   4.970
26311SOL    HW280773   7.877   8.793   5.049
26312SOL     OW80774   8.588   2.958   9.610
26312SOL    HW180775   8.541   3.023   9.557
26312SOL    HW280776   8.527   2.885   9.619
26313SOL     OW80777   0.808   1.017   1.515
26313SOL    HW180778   0.827   1.022   1.609
26313SOL    HW280779   0.715   1.038   1.508
26314SOL     OW80780   8.488   0.264   7.921
26314SOL    HW180781   8.526   0.347   7.951
26314SOL    HW280782   8.500   0.266   7.826
26315SOL     OW80783   2.688  11.338   6.423
26315SOL    HW180784   2.709  11.256   6.378
26315SOL    HW280785   2.661  11.398   6.353
26316SOL     OW80786   9.417  11.052   1.115
26316SOL    HW180787   9.418  10.995   1.039
26316SOL    HW280788   9.504  11.092   1.118
26317SOL     OW80789   2.515   0.454   5.502
26317SOL    HW180790   2.570   0.378   5.483
26317SOL    HW280791   2.461   0.464   5.423
26318SOL     OW80792   4.866   0.415   3.711
26318SOL    HW180793   4.773   0.416   3.688
26318SOL    HW280794   4.894   0.325   3.693
26319SOL     OW80795   7.980   8.980   2.621
26319SOL    HW180796   7.906   8.948   2.671
26319SOL    HW280797   8.017   8.902   2.580
26320SOL     OW80798  10.958   8.733  14.036
26320SOL    HW180799  11.006   8.808  14.001
26320SOL    HW280800  10.992   8.658  13.988
26321SOL     OW80801  10.114   7.180  11.882
26321SOL    HW180802  10.096   7.274  11.887
26321SOL    HW280803  10.061   7.141  11.951
26322SOL     OW80804   5.054   7.793  13.535
26322SOL    HW180805   5.001   7.840  13.599
26322SOL    HW280806   4.993   7.731  13.494
26323SOL     OW80807   1.744   8.965  11.527
26323SOL    HW180808   1.674   8.960  11.592
26323SOL    HW280809   1.712   8.913  11.453
26324SOL     OW80810  14.694   7.812   1.989
26324SOL    HW180811  14.650   7.744   1.938
26324SOL    HW280812  14.785   7.784   1.992
26325SOL     OW80813   4.100   5.684   3.741
26325SOL    HW180814   4.022   5.714   3.788
26325SOL    HW280815   4.085   5.591   3.725
26326SOL     OW80816   4.796   3.954   5.471
26326SOL    HW180817   4.863   3.941   5.538
26326SOL    HW280818   4.834   4.018   5.411
26327SOL     OW80819   2.738   5.250  14.664
26327SOL    HW180820   2.724   5.295  14.747
26327SOL    HW280821   2.690   5.303  14.600
26328SOL     OW80822   7.633   5.613   4.676
26328SOL    HW180823   7.637   5.628   4.582
26328SOL    HW280824   7.539   5.609   4.696
26329SOL     OW80825  14.511   3.287  12.840
26329SOL    HW180826  14.578   3.298  12.908
26329SOL    HW280827  14.498   3.374  12.805
26330SOL     OW80828  13.332   4.231   2.747
26330SOL    HW180829  13.242   4.223   2.715
26330SOL    HW280830  13.329   4.304   2.809
26331SOL     OW80831   9.433   3.372   0.945
26331SOL    HW180832   9.487   3.302   0.909
26331SOL    HW280833   9.423   3.349   1.038
26332SOL     OW80834   7.660  12.924   1.545
26332SOL    HW180835   7.581  12.970   1.517
26332SOL    HW280836   7.640  12.891   1.632
26333SOL     OW80837   5.475   0.599   8.724
26333SOL    HW180838   5.446   0.691   8.725
26333SOL    HW280839   5.398   0.550   8.694
26334SOL     OW80840   8.642   3.922   3.763
26334SOL    HW180841   8.729   3.935   3.727
26334SOL    HW280842   8.649   3.954   3.853
26335SOL     OW80843   7.590   6.738   7.887
26335SOL    HW180844   7.546   6.821   7.868
26335SOL    HW280845   7.594   6.693   7.803
26336SOL     OW80846   8.731  12.916   7.008
26336SOL    HW180847   8.804  12.976   7.022
26336SOL    HW280848   8.765  12.830   7.032
26337SOL     OW80849   3.469   3.560   9.647
26337SOL    HW180850   3.386   3.564   9.695
26337SOL    HW280851   3.450   3.602   9.563
26338SOL     OW80852   9.478   5.862  10.890
26338SOL    HW180853   9.448   5.926  10.954
26338SOL    HW280854   9.571   5.850  10.910
26339SOL     OW80855   8.402  14.515   2.238
26339SOL    HW180856   8.443  14.599   2.260
26339SOL    HW280857   8.413  14.506   2.144
26340SOL     OW80858   3.308   0.984  11.005
26340SOL    HW180859   3.280   0.894  10.989
26340SOL    HW280860   3.243   1.019  11.066
26341SOL     OW80861  10.398  14.523   9.286
26341SOL    HW180862  10.490  14.511   9.263
26341SOL    HW280863  10.350  14.472   9.220
26342SOL     OW80864   8.360  13.528   1.497
26342SOL    HW180865   8.274  13.557   1.468
26342SOL    HW280866   8.342  13.451   1.550
26343SOL     OW80867  10.219   2.604  12.946
26343SOL    HW180868  10.179   2.517  12.950
26343SOL    HW280869  10.187   2.648  13.025
26344SOL     OW80870   5.508  13.966   2.865
26344SOL    HW180871   5.499  13.895   2.802
26344SOL    HW280872   5.458  13.937   2.942
26345SOL     OW80873   3.705   5.857   2.539
26345SOL    HW180874   3.696   5.781   2.597
26345SOL    HW280875   3.630   5.912   2.560
26346SOL     OW80876   3.605   8.558   9.446
26346SOL    HW180877   3.528   8.555   9.389
26346SOL    HW280878   3.575   8.606   9.524
26347SOL     OW80879   2.115   7.013   7.734
26347SOL    HW180880   2.168   7.089   7.756
26347SOL    HW280881   2.174   6.939   7.742
26348SOL     OW80882   0.394  12.677   7.441
26348SOL    HW180883   0.483  12.682   7.478
26348SOL    HW280884   0.402  12.616   7.368
26349SOL     OW80885  12.734   9.029   2.372
26349SOL    HW180886  12.718   9.118   2.404
26349SOL    HW280887  12.647   8.992   2.359
26350SOL     OW80888  11.859   9.499   1.087
26350SOL    HW180889  11.868   9.590   1.059
26350SOL    HW280890  11.833   9.453   1.007
26351SOL     OW80891   5.979  14.422  11.898
26351SOL    HW180892   5.943  14.498  11.944
26351SOL    HW280893   5.935  14.422  11.813
26352SOL     OW80894  11.020   1.216   4.204
26352SOL    HW180895  11.027   1.177   4.117
26352SOL    HW280896  10.959   1.289   4.193
26353SOL     OW80897  12.475   2.418  10.884
26353SOL    HW180898  12.523   2.482  10.936
26353SOL    HW280899  12.504   2.433  10.794
26354SOL     OW80900   4.389  12.357   0.716
26354SOL    HW180901   4.448  12.305   0.661
26354SOL    HW280902   4.325  12.294   0.749
26355SOL     OW80903  10.634   8.505   6.255
26355SOL    HW180904  10.666   8.595   6.267
26355SOL    HW280905  10.539   8.512   6.267
26356SOL     OW80906   6.525  14.720   7.000
26356SOL    HW180907   6.455  14.654   6.994
26356SOL    HW280908   6.599  14.673   7.037
26357SOL     OW80909   0.637   8.639  11.617
26357SOL    HW180910   0.716   8.665  11.664
26357SOL    HW280911   0.583   8.718  11.616
26358SOL     OW80912   0.963  10.056  12.577
26358SOL    HW180913   1.048  10.012  12.583
26358SOL    HW280914   0.972  10.132  12.633
26359SOL     OW80915   6.204   7.897  11.110
26359SOL    HW180916   6.194   7.958  11.036
26359SOL    HW280917   6.190   7.951  11.188
26360SOL     OW80918   2.170   1.098   0.699
26360SOL    HW180919   2.103   1.071   0.762
26360SOL    HW280920   2.223   1.163   0.746
26361SOL     OW80921   5.163   7.539   1.111
26361SOL    HW180922   5.112   7.616   1.137
26361SOL    HW280923   5.219   7.522   1.187
26362SOL     OW80924  12.705  11.641   0.932
26362SOL    HW180925  12.623  11.615   0.974
26362SOL    HW280926  12.705  11.737   0.936
26363SOL     OW80927   9.878  12.234   1.579
26363SOL    HW180928   9.803  12.222   1.637
26363SOL    HW280929   9.905  12.325   1.596
26364SOL     OW80930   6.897  12.423  11.636
26364SOL    HW180931   6.905  12.343  11.583
26364SOL    HW280932   6.829  12.474  11.593
26365SOL     OW80933   9.210   1.696   6.728
26365SOL    HW180934   9.126   1.652   6.737
26365SOL    HW280935   9.263   1.661   6.800
26366SOL     OW80936  14.783   3.195   7.798
26366SOL    HW180937  14.726   3.259   7.754
26366SOL    HW280938  14.727   3.155   7.864
26367SOL     OW80939   3.375  11.934   1.808
26367SOL    HW180940   3.290  11.925   1.767
26367SOL    HW280941   3.437  11.942   1.735
26368SOL     OW80942   5.161   8.309  13.602
26368SOL    HW180943   5.169   8.246  13.530
26368SOL    HW280944   5.113   8.383  13.564
26369SOL     OW80945   6.455  11.394  11.880
26369SOL    HW180946   6.377  11.344  11.856
26369SOL    HW280947   6.469  11.455  11.808
26370SOL     OW80948   8.522   4.306   2.787
26370SOL    HW180949   8.556   4.283   2.700
26370SOL    HW280950   8.561   4.242   2.846
26371SOL     OW80951  14.355   7.181  12.604
26371SOL    HW180952  14.410   7.205  12.530
26371SOL    HW280953  14.350   7.085  12.600
26372SOL     OW80954   4.056   0.252  12.987
26372SOL    HW180955   3.988   0.229  13.049
26372SOL    HW280956   4.083   0.341  13.012
26373SOL     OW80957   9.480   8.133   9.986
26373SOL    HW180958   9.444   8.202  10.040
26373SOL    HW280959   9.422   8.129   9.910
26374SOL     OW80960   6.648   8.064   4.706
26374SOL    HW180961   6.566   8.084   4.751
26374SOL    HW280962   6.624   8.002   4.638
26375SOL     OW80963   0.192   2.814  10.205
26375SOL    HW180964   0.164   2.898  10.241
26375SOL    HW280965   0.201   2.756  10.281
26376SOL     OW80966   1.863   9.044   8.189
26376SOL    HW180967   1.841   9.004   8.104
26376SOL    HW280968   1.790   9.019   8.246
26377SOL     OW80969  14.717   6.743   8.935
26377SOL    HW180970  14.643   6.774   8.883
26377SOL    HW280971  14.762   6.680   8.879
26378SOL     OW80972   0.742   1.257  11.666
26378SOL    HW180973   0.664   1.216  11.628
26378SOL    HW280974   0.736   1.349  11.639
26379SOL     OW80975   7.008   8.587  13.637
26379SOL    HW180976   7.031   8.561  13.548
26379SOL    HW280977   7.013   8.506  13.687
26380SOL     OW80978   6.465   2.837   1.207
26380SOL    HW180979   6.388   2.829   1.151
26380SOL    HW280980   6.532   2.873   1.149
26381SOL     OW80981  13.981   3.683  14.413
26381SOL    HW180982  14.005   3.624  14.485
26381SOL    HW280983  14.059   3.685  14.358
26382SOL     OW80984   5.731   0.743   8.064
26382SOL    HW180985   5.678   0.823   8.063
26382SOL    HW280986   5.671   0.675   8.096
26383SOL     OW80987   2.652   6.553  12.480
26383SOL    HW180988   2.662   6.648  12.492
26383SOL    HW280989   2.649   6.518  12.569
26384SOL     OW80990   6.733   2.161  12.758
26384SOL    HW180991   6.706   2.144  12.848
26384SOL    HW280992   6.826   2.182  12.765
26385SOL     OW80993   3.348  12.712   5.039
26385SOL    HW180994   3.362  12.708   4.945
26385SOL    HW280995   3.423  12.762   5.072
26386SOL     OW80996   9.823  14.481  10.749
26386SOL    HW180997   9.797  14.399  10.792
26386SOL    HW280998   9.848  14.539  10.821
26387SOL     OW80999   5.776  13.097   8.191
26387SOL    HW181000   5.723  13.090   8.271
26387SOL    HW281001   5.799  13.007   8.169
26388SOL     OW81002   1.915  14.219  10.260
26388SOL    HW181003   1.841  14.206  10.202
26388SOL    HW281004   1.985  14.251  10.203
26389SOL     OW81005   4.611   3.982  13.822
26389SOL    HW181006   4.534   3.956  13.771
26389SOL    HW281007   4.658   4.041  13.764
26390SOL     OW81008   3.338   7.906  13.224
26390SOL    HW181009   3.251   7.933  13.253
26390SOL    HW281010   3.372   7.983  13.178
26391SOL     OW81011   6.165   5.947   6.218
26391SOL    HW181012   6.223   6.023   6.217
26391SOL    HW281013   6.224   5.872   6.217
26392SOL     OW81014  11.857  10.653   6.577
26392SOL    HW181015  11.927  10.603   6.535
26392SOL    HW281016  11.833  10.602   6.654
26393SOL     OW81017  10.839   6.718   0.689
26393SOL    HW181018  10.780   6.648   0.717
26393SOL    HW281019  10.799   6.798   0.724
26394SOL     OW81020   0.188  13.806  11.741
26394SOL    HW181021   0.172  13.725  11.693
26394SOL    HW281022   0.188  13.875  11.675
26395SOL     OW81023  11.581   9.312  14.718
26395SOL    HW181024  11.510   9.356  14.673
26395SOL    HW281025  11.587   9.355  14.803
26396SOL     OW81026   3.031   9.351   2.859
26396SOL    HW181027   2.952   9.379   2.813
26396SOL    HW281028   3.010   9.361   2.952
26397SOL     OW81029   4.176   6.719   5.736
26397SOL    HW181030   4.101   6.778   5.727
26397SOL    HW281031   4.138   6.631   5.737
26398SOL     OW81032  13.696   9.585   6.936
26398SOL    HW181033  13.726   9.666   6.976
26398SOL    HW281034  13.767   9.523   6.950
26399SOL     OW81035   7.088  12.369  12.534
26399SOL    HW181036   7.169  12.320  12.526
26399SOL    HW281037   7.086  12.425  12.457
26400SOL     OW81038   4.927   0.765  10.105
26400SOL    HW181039   4.975   0.686  10.128
26400SOL    HW281040   4.910   0.809  10.188
26401SOL     OW81041  13.316  10.666  13.521
26401SOL    HW181042  13.248  10.727  13.494
26401SOL    HW281043  13.269  10.593  13.562
26402SOL     OW81044  13.274   8.617  13.095
26402SOL    HW181045  13.315   8.666  13.167
26402SOL    HW281046  13.345   8.564  13.059
26403SOL     OW81047   8.116   1.645  12.496
26403SOL    HW181048   8.132   1.553  12.474
26403SOL    HW281049   8.192   1.691  12.460
26404SOL     OW81050   6.358   6.750  11.947
26404SOL    HW181051   6.333   6.744  11.855
26404SOL    HW281052   6.274   6.756  11.994
26405SOL     OW81053  12.899   4.231   1.224
26405SOL    HW181054  12.867   4.249   1.313
26405SOL    HW281055  12.917   4.138   1.223
26406SOL     OW81056  12.124   5.750   0.482
26406SOL    HW181057  12.041   5.749   0.528
26406SOL    HW281058  12.135   5.840   0.453
26407SOL     OW81059   4.142   0.769   9.111
26407SOL    HW181060   4.127   0.853   9.068
26407SOL    HW281061   4.095   0.775   9.194
26408SOL     OW81062   8.303   5.753   1.686
26408SOL    HW181063   8.284   5.683   1.748
26408SOL    HW281064   8.357   5.815   1.735
26409SOL     OW81065   1.870  12.383   2.535
26409SOL    HW181066   1.905  12.357   2.450
26409SOL    HW281067   1.844  12.300   2.576
26410SOL     OW81068  11.653   6.052   6.890
26410SOL    HW181069  11.658   6.056   6.794
26410SOL    HW281070  11.735   6.090   6.920
26411SOL     OW81071  13.483   3.392  10.640
26411SOL    HW181072  13.395   3.406  10.675
26411SOL    HW281073  13.482   3.302  10.608
26412SOL     OW81074   4.318  13.941   2.732
26412SOL    HW181075   4.412  13.951   2.716
26412SOL    HW281076   4.312  13.913   2.823
26413SOL     OW81077   7.692  11.932   4.317
26413SOL    HW181078   7.682  11.998   4.386
26413SOL    HW281079   7.636  11.963   4.245
26414SOL     OW81080   8.347   2.939  10.834
26414SOL    HW181081   8.407   2.969  10.767
26414SOL    HW281082   8.400   2.931  10.913
26415SOL     OW81083  12.228  10.114   2.472
26415SOL    HW181084  12.263  10.071   2.394
26415SOL    HW281085  12.134  10.101   2.467
26416SOL     OW81086   3.390   5.363  14.856
26416SOL    HW181087   3.424   5.387  14.770
26416SOL    HW281088   3.297   5.386  14.852
26417SOL     OW81089  13.863   4.109   5.686
26417SOL    HW181090  13.819   4.024   5.687
26417SOL    HW281091  13.853   4.143   5.775
26418SOL     OW81092   3.126   9.321  11.322
26418SOL    HW181093   3.191   9.387  11.346
26418SOL    HW281094   3.167   9.272  11.250
26419SOL     OW81095   1.710  14.119   3.594
26419SOL    HW181096   1.694  14.160   3.509
26419SOL    HW281097   1.622  14.102   3.629
26420SOL     OW81098  14.483   7.347   3.617
26420SOL    HW181099  14.527   7.315   3.696
26420SOL    HW281100  14.509   7.439   3.610
26421SOL     OW81101   4.917  13.641   8.689
26421SOL    HW181102   4.961  13.726   8.681
26421SOL    HW281103   4.875  13.628   8.604
26422SOL     OW81104   2.440   5.392  14.831
26422SOL    HW181105   2.522   5.441  14.828
26422SOL    HW281106   2.452   5.329   0.022
26423SOL     OW81107  10.408   2.135   9.970
26423SOL    HW181108  10.429   2.124  10.063
26423SOL    HW281109  10.314   2.153   9.968
26424SOL     OW81110  10.445   6.016   5.708
26424SOL    HW181111  10.407   5.976   5.630
26424SOL    HW281112  10.373   6.064   5.749
26425SOL     OW81113   0.349  14.627  10.730
26425SOL    HW181114   0.365  14.721  10.740
26425SOL    HW281115   0.257  14.621  10.706
26426SOL     OW81116   9.725   7.383   6.736
26426SOL    HW181117   9.726   7.477   6.721
26426SOL    HW281118   9.652   7.368   6.796
26427SOL     OW81119   2.946   6.017  13.026
26427SOL    HW181120   2.992   5.939  13.058
26427SOL    HW281121   2.865   5.982  12.989
26428SOL     OW81122  14.125  12.233  10.106
26428SOL    HW181123  14.128  12.277  10.021
26428SOL    HW281124  14.203  12.265  10.153
26429SOL     OW81125  13.461   2.558  13.811
26429SOL    HW181126  13.468   2.597  13.724
26429SOL    HW281127  13.543   2.510  13.823
26430SOL     OW81128   7.703   4.200   4.904
26430SOL    HW181129   7.664   4.129   4.956
26430SOL    HW281130   7.682   4.177   4.813
26431SOL     OW81131   6.692   0.473  10.095
26431SOL    HW181132   6.699   0.520  10.012
26431SOL    HW281133   6.771   0.500  10.143
26432SOL     OW81134   4.916   2.949   4.355
26432SOL    HW181135   4.872   3.026   4.318
26432SOL    HW281136   4.885   2.945   4.445
26433SOL     OW81137  12.481   3.193   7.185
26433SOL    HW181138  12.454   3.131   7.253
26433SOL    HW281139  12.542   3.143   7.131
26434SOL     OW81140   4.504   6.329   9.738
26434SOL    HW181141   4.488   6.383   9.816
26434SOL    HW281142   4.440   6.258   9.745
26435SOL     OW81143  12.021  12.056   2.618
26435SOL    HW181144  12.053  12.045   2.707
26435SOL    HW281145  12.032  12.150   2.600
26436SOL     OW81146   0.100  13.497   6.181
26436SOL    HW181147   0.039  13.529   6.248
26436SOL    HW281148   0.103  13.568   6.117
26437SOL     OW81149   7.427   1.762  14.637
26437SOL    HW181150   7.347   1.726  14.600
26437SOL    HW281151   7.443   1.842  14.588
26438SOL     OW81152   8.305  12.017  14.016
26438SOL    HW181153   8.252  12.041  14.091
26438SOL    HW281154   8.338  12.100  13.982
26439SOL     OW81155   0.476  11.222   9.766
26439SOL    HW181156   0.520  11.140   9.787
26439SOL    HW281157   0.382  11.200   9.768
26440SOL     OW81158  13.633   1.178   5.435
26440SOL    HW181159  13.720   1.138   5.436
26440SOL    HW281160  13.631   1.233   5.513
26441SOL     OW81161  10.217   5.755   6.112
26441SOL    HW181162  10.266   5.798   6.042
26441SOL    HW281163  10.157   5.823   6.144
26442SOL     OW81164   2.148  12.431   0.245
26442SOL    HW181165   2.158  12.521   0.277
26442SOL    HW281166   2.053  12.417   0.245
26443SOL     OW81167   8.521  14.840   6.453
26443SOL    HW181168   8.466  14.785   6.398
26443SOL    HW281169   8.567  14.779   6.510
26444SOL     OW81170  14.851   5.793  12.892
26444SOL    HW181171  14.798   5.725  12.849
26444SOL    HW281172   0.025   5.829  12.821
26445SOL     OW81173   2.611  10.114   2.418
26445SOL    HW181174   2.672  10.185   2.441
26445SOL    HW281175   2.553  10.107   2.494
26446SOL     OW81176   3.670  10.827   9.510
26446SOL    HW181177   3.743  10.887   9.528
26446SOL    HW281178   3.619  10.827   9.592
26447SOL     OW81179   7.751  12.913   7.510
26447SOL    HW181180   7.834  12.962   7.515
26447SOL    HW281181   7.778  12.823   7.491
26448SOL     OW81182   0.911   8.277   0.821
26448SOL    HW181183   0.819   8.301   0.807
26448SOL    HW281184   0.908   8.189   0.858
26449SOL     OW81185   7.408   4.391   7.724
26449SOL    HW181186   7.496   4.358   7.745
26449SOL    HW281187   7.368   4.406   7.809
26450SOL     OW81188   7.737  11.512   2.035
26450SOL    HW181189   7.704  11.597   2.062
26450SOL    HW281190   7.660  11.455   2.037
26451SOL     OW81191   7.524   8.754   8.247
26451SOL    HW181192   7.467   8.765   8.170
26451SOL    HW281193   7.553   8.663   8.241
26452SOL     OW81194   7.124   2.388  12.169
26452SOL    HW181195   7.190   2.455  12.154
26452SOL    HW281196   7.042   2.437  12.180
26453SOL     OW81197  13.835  10.597   1.234
26453SOL    HW181198  13.920  10.633   1.257
26453SOL    HW281199  13.845  10.566   1.144
26454SOL     OW81200  11.085  12.833  10.807
26454SOL    HW181201  11.031  12.820  10.886
26454SOL    HW281202  11.155  12.769  10.816
26455SOL     OW81203   9.960   4.146  14.341
26455SOL    HW181204  10.054   4.133  14.335
26455SOL    HW281205   9.939   4.129  14.433
26456SOL     OW81206   9.177   4.118   7.254
26456SOL    HW181207   9.212   4.120   7.165
26456SOL    HW281208   9.086   4.145   7.245
26457SOL     OW81209   7.243   1.463   6.341
26457SOL    HW181210   7.286   1.481   6.425
26457SOL    HW281211   7.291   1.389   6.304
26458SOL     OW81212  14.700   1.002   7.381
26458SOL    HW181213  14.610   0.978   7.357
26458SOL    HW281214  14.746   0.919   7.387
26459SOL     OW81215   7.453   3.826   7.475
26459SOL    HW181216   7.534   3.782   7.449
26459SOL    HW281217   7.480   3.913   7.503
26460SOL     OW81218   9.483   8.391  11.314
26460SOL    HW181219   9.427   8.321  11.348
26460SOL    HW281220   9.544   8.346  11.254
26461SOL     OW81221   7.401  13.531   9.361
26461SOL    HW181222   7.347  13.610   9.354
26461SOL    HW281223   7.455  13.546   9.439
26462SOL     OW81224   0.069   0.541  13.573
26462SOL    HW181225  14.855   0.529  13.587
26462SOL    HW281226   0.081   0.635  13.567
26463SOL     OW81227  13.746   4.449   7.323
26463SOL    HW181228  13.795   4.530   7.313
26463SOL    HW281229  13.808   4.388   7.364
26464SOL     OW81230   3.542  13.636   0.379
26464SOL    HW181231   3.590  13.711   0.413
26464SOL    HW281232   3.453  13.648   0.412
26465SOL     OW81233   0.518   2.833   2.596
26465SOL    HW181234   0.429   2.822   2.629
26465SOL    HW281235   0.544   2.746   2.565
26466SOL     OW81236   6.112   7.418  12.377
26466SOL    HW181237   6.082   7.492  12.324
26466SOL    HW281238   6.168   7.368  12.318
26467SOL     OW81239   2.602   7.285   5.825
26467SOL    HW181240   2.526   7.272   5.881
26467SOL    HW281241   2.613   7.201   5.780
26468SOL     OW81242   3.508  14.544   0.666
26468SOL    HW181243   3.510  14.570   0.574
26468SOL    HW281244   3.450  14.608   0.708
26469SOL     OW81245  10.201  14.239   1.864
26469SOL    HW181246  10.109  14.230   1.887
26469SOL    HW281247  10.200  14.289   1.782
26470SOL     OW81248  14.124   3.830   7.624
26470SOL    HW181249  14.035   3.856   7.649
26470SOL    HW281250  14.111   3.766   7.554
26471SOL     OW81251  14.364   4.350  13.317
26471SOL    HW181252  14.278   4.307  13.320
26471SOL    HW281253  14.345   4.443  13.305
26472SOL     OW81254   3.881   5.888   1.432
26472SOL    HW181255   3.928   5.826   1.376
26472SOL    HW281256   3.946   5.955   1.455
26473SOL     OW81257   8.396   0.480   6.787
26473SOL    HW181258   8.322   0.482   6.727
26473SOL    HW281259   8.449   0.405   6.758
26474SOL     OW81260  12.762   5.669  11.628
26474SOL    HW181261  12.771   5.755  11.587
26474SOL    HW281262  12.802   5.679  11.714
26475SOL     OW81263   0.479   8.191  10.098
26475SOL    HW181264   0.400   8.164  10.050
26475SOL    HW281265   0.548   8.133  10.066
26476SOL     OW81266  13.409   3.708  10.895
26476SOL    HW181267  13.377   3.700  10.805
26476SOL    HW281268  13.498   3.674  10.892
26477SOL     OW81269   9.671  10.160  10.455
26477SOL    HW181270   9.692  10.139  10.364
26477SOL    HW281271   9.689  10.254  10.463
26478SOL     OW81272   2.358   7.955  14.177
26478SOL    HW181273   2.375   8.016  14.249
26478SOL    HW281274   2.306   7.885  14.217
26479SOL     OW81275  10.420  10.998   7.564
26479SOL    HW181276  10.455  11.067   7.620
26479SOL    HW281277  10.335  11.031   7.535
26480SOL     OW81278  10.849   7.785  13.084
26480SOL    HW181279  10.816   7.760  13.171
26480SOL    HW281280  10.829   7.710  13.028
26481SOL     OW81281   6.449  12.143   0.068
26481SOL    HW181282   6.377  12.093   0.028
26481SOL    HW281283   6.438  12.131   0.162
26482SOL     OW81284  13.826   8.928  10.776
26482SOL    HW181285  13.874   8.853  10.811
26482SOL    HW281286  13.877   9.004  10.804
26483SOL     OW81287   2.096   9.245   6.097
26483SOL    HW181288   2.092   9.223   6.190
26483SOL    HW281289   2.084   9.161   6.052
26484SOL     OW81290  14.753  14.299   0.526
26484SOL    HW181291  14.713  14.370   0.475
26484SOL    HW281292  14.846  14.302   0.502
26485SOL     OW81293  10.704   3.768  10.751
26485SOL    HW181294  10.686   3.715  10.829
26485SOL    HW281295  10.782   3.729  10.713
26486SOL     OW81296   8.774  11.454   1.246
26486SOL    HW181297   8.693  11.458   1.297
26486SOL    HW281298   8.832  11.397   1.298
26487SOL     OW81299   4.817  11.451  10.581
26487SOL    HW181300   4.864  11.532  10.598
26487SOL    HW281301   4.833  11.432  10.489
26488SOL     OW81302   3.602   8.572  12.349
26488SOL    HW181303   3.646   8.647  12.390
26488SOL    HW281304   3.555   8.609  12.274
26489SOL     OW81305   7.223   2.667  13.092
26489SOL    HW181306   7.162   2.664  13.018
26489SOL    HW281307   7.175   2.715  13.160
26490SOL     OW81308   5.403   1.758   5.398
26490SOL    HW181309   5.436   1.848   5.405
26490SOL    HW281310   5.319   1.767   5.354
26491SOL     OW81311   2.168  13.691   5.730
26491SOL    HW181312   2.192  13.658   5.643
26491SOL    HW281313   2.159  13.612   5.784
26492SOL     OW81314   0.869   8.033   4.278
26492SOL    HW181315   0.835   8.025   4.367
26492SOL    HW281316   0.959   8.000   4.284
26493SOL     OW81317   3.928   4.893  10.033
26493SOL    HW181318   3.867   4.897   9.960
26493SOL    HW281319   4.000   4.838  10.001
26494SOL     OW81320   3.526   8.797  13.761
26494SOL    HW181321   3.582   8.730  13.722
26494SOL    HW281322   3.510   8.767  13.850
26495SOL     OW81323  11.559   1.556  11.849
26495SOL    HW181324  11.643   1.589  11.879
26495SOL    HW281325  11.566   1.461  11.857
26496SOL     OW81326   0.620  10.343   9.631
26496SOL    HW181327   0.565  10.265   9.636
26496SOL    HW281328   0.575  10.400   9.568
26497SOL     OW81329   6.884   9.706   8.489
26497SOL    HW181330   6.799   9.690   8.448
26497SOL    HW281331   6.905   9.797   8.467
26498SOL     OW81332   8.157   3.843   5.941
26498SOL    HW181333   8.205   3.813   5.863
26498SOL    HW281334   8.195   3.793   6.013
26499SOL     OW81335  10.938   0.702  12.652
26499SOL    HW181336  10.943   0.766  12.723
26499SOL    HW281337  11.017   0.649  12.661
26500SOL     OW81338  13.530   1.155   4.027
26500SOL    HW181339  13.506   1.206   4.104
26500SOL    HW281340  13.611   1.195   3.995
26501SOL     OW81341  10.238  11.482  14.261
26501SOL    HW181342  10.319  11.534  14.264
26501SOL    HW281343  10.267  11.392  14.269
26502SOL     OW81344  13.168   9.916   6.869
26502SOL    HW181345  13.218   9.840   6.840
26502SOL    HW281346  13.234   9.979   6.897
26503SOL     OW81347   8.300   2.887   2.449
26503SOL    HW181348   8.317   2.914   2.359
26503SOL    HW281349   8.337   2.800   2.455
26504SOL     OW81350   6.275   3.876   2.509
26504SOL    HW181351   6.252   3.900   2.598
26504SOL    HW281352   6.362   3.912   2.495
26505SOL     OW81353   5.424   7.703   2.063
26505SOL    HW181354   5.342   7.714   2.015
26505SOL    HW281355   5.400   7.711   2.155
26506SOL     OW81356   4.581   4.505   2.919
26506SOL    HW181357   4.503   4.466   2.959
26506SOL    HW281358   4.569   4.492   2.825
26507SOL     OW81359   4.139   3.502   4.928
26507SOL    HW181360   4.182   3.485   5.011
26507SOL    HW281361   4.119   3.415   4.893
26508SOL     OW81362   7.554   9.014   7.570
26508SOL    HW181363   7.529   8.980   7.655
26508SOL    HW281364   7.650   9.015   7.572
26509SOL     OW81365  10.074  11.537  11.716
26509SOL    HW181366  10.050  11.564  11.804
26509SOL    HW281367  10.013  11.585  11.659
26510SOL     OW81368  10.171   8.263   7.674
26510SOL    HW181369  10.173   8.304   7.587
26510SOL    HW281370  10.107   8.193   7.666
26511SOL     OW81371  11.159  13.849  12.888
26511SOL    HW181372  11.089  13.854  12.823
26511SOL    HW281373  11.114  13.845  12.972
26512SOL     OW81374   5.252  10.497  10.017
26512SOL    HW181375   5.314  10.452  10.074
26512SOL    HW281376   5.252  10.587  10.048
26513SOL     OW81377  11.998   9.161  12.191
26513SOL    HW181378  12.061   9.186  12.258
26513SOL    HW281379  11.926   9.224  12.201
26514SOL     OW81380   4.008  11.665  10.286
26514SOL    HW181381   4.039  11.697  10.371
26514SOL    HW281382   4.088  11.645  10.237
26515SOL     OW81383  10.095  12.085  14.733
26515SOL    HW181384  10.129  11.996  14.736
26515SOL    HW281385  10.116  12.117  14.646
26516SOL     OW81386   6.909   6.847  10.617
26516SOL    HW181387   6.970   6.774  10.604
26516SOL    HW281388   6.929   6.908  10.546
26517SOL     OW81389   5.009   5.637   0.208
26517SOL    HW181390   4.956   5.558   0.194
26517SOL    HW281391   4.945   5.707   0.219
26518SOL     OW81392   8.387   0.282   2.117
26518SOL    HW181393   8.459   0.315   2.173
26518SOL    HW281394   8.394   0.187   2.123
26519SOL     OW81395   8.506  12.690  12.632
26519SOL    HW181396   8.450  12.740  12.571
26519SOL    HW281397   8.495  12.734  12.716
26520SOL     OW81398   6.352   3.975  14.834
26520SOL    HW181399   6.439   3.936  14.840
26520SOL    HW281400   6.304   3.940   0.029
26521SOL     OW81401  14.006   2.126   8.727
26521SOL    HW181402  13.941   2.057   8.740
26521SOL    HW281403  14.043   2.140   8.814
26522SOL     OW81404   7.841   7.621   9.781
26522SOL    HW181405   7.920   7.676   9.776
26522SOL    HW281406   7.781   7.661   9.718
26523SOL     OW81407   6.457   9.923   1.832
26523SOL    HW181408   6.394   9.979   1.878
26523SOL    HW281409   6.411   9.840   1.821
26524SOL     OW81410   5.562  14.477   1.122
26524SOL    HW181411   5.520  14.435   1.197
26524SOL    HW281412   5.604  14.555   1.158
26525SOL     OW81413  11.664   8.096  14.055
26525SOL    HW181414  11.696   8.179  14.019
26525SOL    HW281415  11.583   8.120  14.100
26526SOL     OW81416  14.349   9.467   6.570
26526SOL    HW181417  14.339   9.504   6.658
26526SOL    HW281418  14.376   9.377   6.585
26527SOL     OW81419   2.883   6.164  11.272
26527SOL    HW181420   2.903   6.146  11.364
26527SOL    HW281421   2.942   6.235  11.249
26528SOL     OW81422   0.235   6.491   0.054
26528SOL    HW181423   0.165   6.546   0.018
26528SOL    HW281424   0.316   6.540   0.034
26529SOL     OW81425   4.349  11.149   4.139
26529SOL    HW181426   4.256  11.130   4.147
26529SOL    HW281427   4.369  11.207   4.213
26530SOL     OW81428  10.377   0.806   4.075
26530SOL    HW181429  10.357   0.732   4.018
26530SOL    HW281430  10.466   0.789   4.107
26531SOL     OW81431  10.245   9.208   2.179
26531SOL    HW181432  10.226   9.137   2.240
26531SOL    HW281433  10.176   9.202   2.113
26532SOL     OW81434   3.476   2.434   5.487
26532SOL    HW181435   3.514   2.361   5.438
26532SOL    HW281436   3.538   2.506   5.475
26533SOL     OW81437   9.848   9.377  13.791
26533SOL    HW181438   9.847   9.449  13.728
26533SOL    HW281439   9.758   9.345  13.792
26534SOL     OW81440   0.459   1.935   9.779
26534SOL    HW181441   0.529   1.881   9.816
26534SOL    HW281442   0.381   1.881   9.788
26535SOL     OW81443   2.308   7.716   1.594
26535SOL    HW181444   2.364   7.665   1.535
26535SOL    HW281445   2.233   7.741   1.539
26536SOL     OW81446   0.959   0.332   9.273
26536SOL    HW181447   0.878   0.293   9.240
26536SOL    HW281448   1.006   0.360   9.194
26537SOL     OW81449   4.526   6.582   2.239
26537SOL    HW181450   4.545   6.669   2.203
26537SOL    HW281451   4.550   6.521   2.168
26538SOL     OW81452   6.893   1.133   3.799
26538SOL    HW181453   6.823   1.124   3.864
26538SOL    HW281454   6.847   1.152   3.717
26539SOL     OW81455   7.345   4.934   9.458
26539SOL    HW181456   7.376   4.925   9.368
26539SOL    HW281457   7.276   5.001   9.452
26540SOL     OW81458   9.915   1.512   2.520
26540SOL    HW181459   9.844   1.523   2.457
26540SOL    HW281460   9.873   1.481   2.600
26541SOL     OW81461   3.402   4.504  10.575
26541SOL    HW181462   3.453   4.452  10.513
26541SOL    HW281463   3.313   4.502  10.540
26542SOL     OW81464  13.472   5.569   2.934
26542SOL    HW181465  13.541   5.539   2.875
26542SOL    HW281466  13.499   5.657   2.961
26543SOL     OW81467  11.676   5.262   7.137
26543SOL    HW181468  11.668   5.231   7.227
26543SOL    HW281469  11.656   5.186   7.083
26544SOL     OW81470   5.809   7.680   9.715
26544SOL    HW181471   5.742   7.645   9.656
26544SOL    HW281472   5.784   7.646   9.801
26545SOL     OW81473   0.959   0.551  10.595
26545SOL    HW181474   1.022   0.620  10.612
26545SOL    HW281475   0.913   0.579  10.516
26546SOL     OW81476  12.837   5.086   7.792
26546SOL    HW181477  12.767   5.030   7.758
26546SOL    HW281478  12.878   5.123   7.714
26547SOL     OW81479   1.597   3.277  12.580
26547SOL    HW181480   1.572   3.363  12.614
26547SOL    HW281481   1.688   3.266  12.608
26548SOL     OW81482   9.065   8.792   3.580
26548SOL    HW181483   8.998   8.776   3.514
26548SOL    HW281484   9.110   8.708   3.589
26549SOL     OW81485   7.709   6.631   0.417
26549SOL    HW181486   7.745   6.684   0.346
26549SOL    HW281487   7.777   6.634   0.486
26550SOL     OW81488   3.941  13.492   5.633
26550SOL    HW181489   3.980  13.557   5.574
26550SOL    HW281490   3.895  13.544   5.699
26551SOL     OW81491   8.011   7.531   4.898
26551SOL    HW181492   8.028   7.471   4.969
26551SOL    HW281493   8.023   7.618   4.936
26552SOL     OW81494  11.197   8.504   8.837
26552SOL    HW181495  11.108   8.506   8.873
26552SOL    HW281496  11.237   8.585   8.869
26553SOL     OW81497  13.168   6.540   0.205
26553SOL    HW181498  13.129   6.460   0.169
26553SOL    HW281499  13.184   6.596   0.128
26554SOL     OW81500   6.700   9.675  13.074
26554SOL    HW181501   6.648   9.632  13.005
26554SOL    HW281502   6.710   9.609  13.142
26555SOL     OW81503   4.982  13.657   3.379
26555SOL    HW181504   5.078  13.651   3.379
26555SOL    HW281505   4.963  13.729   3.439
26556SOL     OW81506  10.519   0.961   4.993
26556SOL    HW181507  10.487   0.988   5.079
26556SOL    HW281508  10.584   0.894   5.012
26557SOL     OW81509   6.024   1.638  13.836
26557SOL    HW181510   6.097   1.614  13.780
26557SOL    HW281511   6.011   1.561  13.892
26558SOL     OW81512   4.444  10.897   4.222
26558SOL    HW181513   4.521  10.893   4.164
26558SOL    HW281514   4.385  10.960   4.180
26559SOL     OW81515   1.984   2.187   3.611
26559SOL    HW181516   2.003   2.238   3.532
26559SOL    HW281517   1.925   2.118   3.581
26560SOL     OW81518   9.221   9.601   2.568
26560SOL    HW181519   9.151   9.567   2.513
26560SOL    HW281520   9.294   9.614   2.508
26561SOL     OW81521   6.211   5.951   4.073
26561SOL    HW181522   6.266   5.939   4.150
26561SOL    HW281523   6.133   5.996   4.106
26562SOL     OW81524  10.392  13.748   0.660
26562SOL    HW181525  10.470  13.727   0.710
26562SOL    HW281526  10.422  13.754   0.569
26563SOL     OW81527   7.008   1.876   9.658
26563SOL    HW181528   7.006   1.819   9.581
26563SOL    HW281529   6.919   1.910   9.665
26564SOL     OW81530   6.904  14.710   6.865
26564SOL    HW181531   6.817  14.675   6.843
26564SOL    HW281532   6.941  14.735   6.781
26565SOL     OW81533   3.172  13.508  13.201
26565SOL    HW181534   3.191  13.558  13.122
26565SOL    HW281535   3.231  13.545  13.268
26566SOL     OW81536  10.150   3.164   6.650
26566SOL    HW181537  10.236   3.180   6.613
26566SOL    HW281538  10.166   3.142   6.742
26567SOL     OW81539   9.806   0.747  13.004
26567SOL    HW181540   9.712   0.756  13.018
26567SOL    HW281541   9.815   0.738  12.909
26568SOL     OW81542   4.535  11.811   7.982
26568SOL    HW181543   4.593  11.852   7.919
26568SOL    HW281544   4.526  11.875   8.053
26569SOL     OW81545   1.125  11.147   5.823
26569SOL    HW181546   1.173  11.068   5.848
26569SOL    HW281547   1.033  11.120   5.823
26570SOL     OW81548   0.165  11.906  10.276
26570SOL    HW181549   0.096  11.840  10.266
26570SOL    HW281550   0.240  11.869  10.229
26571SOL     OW81551  11.508   7.513   5.054
26571SOL    HW181552  11.459   7.575   5.109
26571SOL    HW281553  11.544   7.567   4.983
26572SOL     OW81554   7.692   7.705   6.470
26572SOL    HW181555   7.719   7.614   6.456
26572SOL    HW281556   7.599   7.701   6.489
26573SOL     OW81557   9.021  10.425   0.653
26573SOL    HW181558   9.026  10.411   0.747
26573SOL    HW281559   8.989  10.515   0.643
26574SOL     OW81560   5.664   9.953   2.231
26574SOL    HW181561   5.595   9.948   2.298
26574SOL    HW281562   5.720   9.877   2.249
26575SOL     OW81563   2.282  13.850   9.367
26575SOL    HW181564   2.330  13.838   9.449
26575SOL    HW281565   2.223  13.775   9.363
26576SOL     OW81566   4.826   1.837  13.010
26576SOL    HW181567   4.866   1.750  13.009
26576SOL    HW281568   4.900   1.897  13.011
26577SOL     OW81569   2.321   9.740   6.928
26577SOL    HW181570   2.343   9.650   6.903
26577SOL    HW281571   2.346   9.793   6.853
26578SOL     OW81572   7.754   4.329  13.905
26578SOL    HW181573   7.799   4.244  13.900
26578SOL    HW281574   7.677   4.312  13.958
26579SOL     OW81575   1.441   8.871   7.843
26579SOL    HW181576   1.366   8.923   7.871
26579SOL    HW281577   1.428   8.857   7.750
26580SOL     OW81578   5.657   9.190  11.619
26580SOL    HW181579   5.733   9.179  11.675
26580SOL    HW281580   5.693   9.197  11.530
26581SOL     OW81581  11.839   1.027  11.845
26581SOL    HW181582  11.934   1.033  11.857
26581SOL    HW281583  11.827   0.957  11.781
26582SOL     OW81584   1.831   6.852   1.540
26582SOL    HW181585   1.876   6.934   1.518
26582SOL    HW281586   1.739   6.869   1.522
26583SOL     OW81587   9.114   3.082   7.461
26583SOL    HW181588   9.110   3.089   7.366
26583SOL    HW281589   9.199   3.118   7.485
26584SOL     OW81590   7.047  10.457   9.857
26584SOL    HW181591   7.089  10.417   9.781
26584SOL    HW281592   7.059  10.394   9.927
26585SOL     OW81593   3.780   7.396   9.586
26585SOL    HW181594   3.706   7.352   9.544
26585SOL    HW281595   3.848   7.399   9.519
26586SOL     OW81596   7.609  10.659   0.407
26586SOL    HW181597   7.610  10.727   0.340
26586SOL    HW281598   7.692  10.671   0.454
26587SOL     OW81599   0.501   4.194   7.584
26587SOL    HW181600   0.444   4.224   7.513
26587SOL    HW281601   0.519   4.103   7.563
26588SOL     OW81602   6.492   4.770   4.219
26588SOL    HW181603   6.415   4.827   4.226
26588SOL    HW281604   6.466   4.702   4.157
26589SOL     OW81605  10.252   1.304   3.868
26589SOL    HW181606  10.320   1.258   3.820
26589SOL    HW281607  10.174   1.248   3.858
26590SOL     OW81608  10.003  10.267  14.287
26590SOL    HW181609   9.973  10.358  14.281
26590SOL    HW281610  10.055  10.254  14.207
26591SOL     OW81611   1.654   7.211  13.397
26591SOL    HW181612   1.694   7.232  13.313
26591SOL    HW281613   1.728   7.198  13.457
26592SOL     OW81614  12.704   8.153   2.775
26592SOL    HW181615  12.778   8.204   2.807
26592SOL    HW281616  12.663   8.117   2.854
26593SOL     OW81617   9.337   8.377   9.510
26593SOL    HW181618   9.422   8.397   9.549
26593SOL    HW281619   9.347   8.401   9.418
26594SOL     OW81620   2.156   8.772  13.015
26594SOL    HW181621   2.090   8.715  13.052
26594SOL    HW281622   2.109   8.829  12.954
26595SOL     OW81623  14.035   5.390  11.862
26595SOL    HW181624  14.033   5.367  11.769
26595SOL    HW281625  13.968   5.335  11.902
26596SOL     OW81626   6.176  12.281   4.081
26596SOL    HW181627   6.181  12.375   4.066
26596SOL    HW281628   6.115  12.249   4.015
26597SOL     OW81629   6.223   2.095   7.870
26597SOL    HW181630   6.158   2.147   7.917
26597SOL    HW281631   6.182   2.009   7.859
26598SOL     OW81632   9.416  13.072   0.011
26598SOL    HW181633   9.371  13.080   0.095
26598SOL    HW281634   9.350  13.035  14.831
26599SOL     OW81635   1.799   8.798  13.748
26599SOL    HW181636   1.720   8.785  13.801
26599SOL    HW281637   1.766   8.801  13.658
26600SOL     OW81638   7.672   4.596   1.457
26600SOL    HW181639   7.688   4.503   1.444
26600SOL    HW281640   7.673   4.608   1.552
26601SOL     OW81641   3.318  13.986   8.490
26601SOL    HW181642   3.329  13.915   8.553
26601SOL    HW281643   3.225  13.985   8.468
26602SOL     OW81644  12.734   0.338   3.407
26602SOL    HW181645  12.824   0.353   3.436
26602SOL    HW281646  12.732   0.245   3.384
26603SOL     OW81647   9.385   8.762   3.340
26603SOL    HW181648   9.308   8.802   3.300
26603SOL    HW281649   9.373   8.777   3.434
26604SOL     OW81650  10.694  11.576  11.068
26604SOL    HW181651  10.646  11.649  11.029
26604SOL    HW281652  10.628  11.530  11.120
26605SOL     OW81653   0.517   9.425   4.978
26605SOL    HW181654   0.503   9.459   4.889
26605SOL    HW281655   0.445   9.461   5.029
26606SOL     OW81656  11.373  10.283  12.390
26606SOL    HW181657  11.296  10.317  12.344
26606SOL    HW281658  11.384  10.194  12.357
26607SOL     OW81659   3.369   4.925  10.672
26607SOL    HW181660   3.316   4.856  10.713
26607SOL    HW281661   3.443   4.938  10.732
26608SOL     OW81662   4.516  10.945  10.696
26608SOL    HW181663   4.537  10.862  10.737
26608SOL    HW281664   4.474  10.996  10.765
26609SOL     OW81665   0.504  11.109   7.186
26609SOL    HW181666   0.432  11.133   7.244
26609SOL    HW281667   0.533  11.024   7.219
26610SOL     OW81668   1.889  13.869   7.438
26610SOL    HW181669   1.901  13.836   7.349
26610SOL    HW281670   1.874  13.963   7.427
26611SOL     OW81671  10.595   9.573  13.421
26611SOL    HW181672  10.668   9.577  13.483
26611SOL    HW281673  10.517   9.585  13.476
26612SOL     OW81674   7.376   3.290   6.157
26612SOL    HW181675   7.383   3.245   6.240
26612SOL    HW281676   7.417   3.376   6.172
26613SOL     OW81677   4.093  14.234  12.410
26613SOL    HW181678   4.094  14.196  12.322
26613SOL    HW281679   4.111  14.327  12.397
26614SOL     OW81680   2.807   7.155   6.596
26614SOL    HW181681   2.784   7.245   6.576
26614SOL    HW281682   2.848   7.122   6.515
26615SOL     OW81683   6.078   8.605   1.204
26615SOL    HW181684   6.046   8.649   1.125
26615SOL    HW281685   6.100   8.517   1.174
26616SOL     OW81686  10.605  10.183   1.601
26616SOL    HW181687  10.538  10.187   1.669
26616SOL    HW281688  10.672  10.125   1.636
26617SOL     OW81689  14.430   5.910   2.028
26617SOL    HW181690  14.339   5.937   2.034
26617SOL    HW281691  14.471   5.943   2.108
26618SOL     OW81692   4.222   8.479   0.357
26618SOL    HW181693   4.172   8.398   0.357
26618SOL    HW281694   4.212   8.515   0.445
26619SOL     OW81695   1.694   4.576  11.559
26619SOL    HW181696   1.604   4.554  11.583
26619SOL    HW281697   1.701   4.549  11.467
26620SOL     OW81698   1.909   9.074   4.474
26620SOL    HW181699   1.926   9.039   4.561
26620SOL    HW281700   1.878   9.163   4.489
26621SOL     OW81701  14.636   4.288   2.711
26621SOL    HW181702  14.703   4.356   2.710
26621SOL    HW281703  14.614   4.277   2.804
26622SOL     OW81704   1.859  11.255   9.917
26622SOL    HW181705   1.914  11.198   9.971
26622SOL    HW281706   1.796  11.292   9.979
26623SOL     OW81707   5.752  14.129  11.978
26623SOL    HW181708   5.837  14.139  12.021
26623SOL    HW281709   5.767  14.163  11.890
26624SOL     OW81710   3.472   3.260   8.218
26624SOL    HW181711   3.423   3.210   8.285
26624SOL    HW281712   3.410   3.325   8.187
26625SOL     OW81713   6.928   2.354   8.922
26625SOL    HW181714   6.847   2.310   8.896
26625SOL    HW281715   6.913   2.446   8.900
26626SOL     OW81716   3.679   5.891   3.015
26626SOL    HW181717   3.657   5.968   2.963
26626SOL    HW281718   3.773   5.899   3.032
26627SOL     OW81719   0.778   1.114  12.769
26627SOL    HW181720   0.686   1.140  12.762
26627SOL    HW281721   0.822   1.192  12.804
26628SOL     OW81722  10.505  12.642   5.302
26628SOL    HW181723  10.472  12.635   5.392
26628SOL    HW281724  10.443  12.590   5.250
26629SOL     OW81725   2.214   9.640  13.148
26629SOL    HW181726   2.236   9.643  13.241
26629SOL    HW281727   2.153   9.567  13.140
26630SOL     OW81728   4.826  14.485   2.496
26630SOL    HW181729   4.798  14.576   2.488
26630SOL    HW281730   4.776  14.438   2.429
26631SOL     OW81731  14.624   0.301   6.081
26631SOL    HW181732  14.620   0.326   5.989
26631SOL    HW281733  14.544   0.338   6.119
26632SOL     OW81734   8.327   7.507  14.322
26632SOL    HW181735   8.375   7.425  14.311
26632SOL    HW281736   8.257   7.486  14.384
26633SOL     OW81737   1.481  14.043   4.396
26633SOL    HW181738   1.416  13.981   4.428
26633SOL    HW281739   1.475  14.037   4.301
26634SOL     OW81740  11.312  14.471   3.107
26634SOL    HW181741  11.270  14.386   3.096
26634SOL    HW281742  11.254  14.533   3.064
26635SOL     OW81743   2.768   1.890   4.373
26635SOL    HW181744   2.815   1.860   4.450
26635SOL    HW281745   2.676   1.886   4.399
26636SOL     OW81746  13.215   3.884   5.701
26636SOL    HW181747  13.157   3.957   5.718
26636SOL    HW281748  13.260   3.868   5.784
26637SOL     OW81749  11.056   8.279  14.682
26637SOL    HW181750  11.101   8.344  14.736
26637SOL    HW281751  10.975   8.322  14.654
26638SOL     OW81752   6.863   9.962  10.409
26638SOL    HW181753   6.834   9.876  10.441
26638SOL    HW281754   6.957   9.962  10.424
26639SOL     OW81755  10.747   6.654   8.065
26639SOL    HW181756  10.757   6.606   8.147
26639SOL    HW281757  10.728   6.587   8.000
26640SOL     OW81758   1.397   3.401  13.516
26640SOL    HW181759   1.333   3.335  13.542
26640SOL    HW281760   1.463   3.351  13.467
26641SOL     OW81761   7.529   5.179  14.343
26641SOL    HW181762   7.449   5.157  14.296
26641SOL    HW281763   7.568   5.094  14.365
26642SOL     OW81764   1.520   6.848  12.215
26642SOL    HW181765   1.537   6.761  12.250
26642SOL    HW281766   1.428   6.865  12.235
26643SOL     OW81767   0.704   5.106   8.022
26643SOL    HW181768   0.650   5.035   7.987
26643SOL    HW281769   0.746   5.067   8.099
26644SOL     OW81770  12.800  11.974  14.283
26644SOL    HW181771  12.797  11.915  14.207
26644SOL    HW281772  12.873  12.034  14.263
26645SOL     OW81773  10.365  14.357   3.408
26645SOL    HW181774  10.399  14.331   3.493
26645SOL    HW281775  10.431  14.418   3.374
26646SOL     OW81776   3.682   1.720   9.470
26646SOL    HW181777   3.778   1.728   9.466
26646SOL    HW281778   3.651   1.810   9.478
26647SOL     OW81779  10.932  11.617  12.316
26647SOL    HW181780  10.853  11.563  12.309
26647SOL    HW281781  10.999  11.557  12.348
26648SOL     OW81782   3.812  10.759   6.768
26648SOL    HW181783   3.867  10.740   6.844
26648SOL    HW281784   3.774  10.674   6.745
26649SOL     OW81785   9.812  14.635  14.387
26649SOL    HW181786   9.849  14.661  14.472
26649SOL    HW281787   9.796  14.541  14.396
26650SOL     OW81788  14.400   3.843   8.126
26650SOL    HW181789  14.322   3.896   8.111
26650SOL    HW281790  14.397   3.776   8.058
26651SOL     OW81791   0.968  11.621   8.545
26651SOL    HW181792   0.923  11.642   8.463
26651SOL    HW281793   0.915  11.662   8.613
26652SOL     OW81794   2.022   6.031  11.681
26652SOL    HW181795   1.927   6.039  11.681
26652SOL    HW281796   2.041   5.969  11.751
26653SOL     OW81797  13.113   6.162   9.669
26653SOL    HW181798  13.148   6.189   9.584
26653SOL    HW281799  13.189   6.141   9.722
26654SOL     OW81800   5.470   3.407   2.601
26654SOL    HW181801   5.501   3.450   2.521
26654SOL    HW281802   5.504   3.317   2.594
26655SOL     OW81803   4.980  10.507   5.406
26655SOL    HW181804   4.897  10.540   5.373
26655SOL    HW281805   5.041  10.517   5.333
26656SOL     OW81806   1.099  14.224  14.489
26656SOL    HW181807   1.173  14.221  14.428
26656SOL    HW281808   1.088  14.316  14.510
26657SOL     OW81809  10.695   6.367   9.831
26657SOL    HW181810  10.696   6.424   9.908
26657SOL    HW281811  10.661   6.423   9.761
26658SOL     OW81812   9.578  11.381   1.520
26658SOL    HW181813   9.522  11.304   1.511
26658SOL    HW281814   9.584  11.417   1.432
26659SOL     OW81815  10.819   6.061  10.730
26659SOL    HW181816  10.843   6.012  10.809
26659SOL    HW281817  10.725   6.079  10.742
26660SOL     OW81818  14.856   4.072  14.160
26660SOL    HW181819  14.836   4.024  14.080
26660SOL    HW281820   0.064   4.044  14.184
26661SOL     OW81821   9.951   0.794   3.162
26661SOL    HW181822   9.915   0.838   3.239
26661SOL    HW281823   9.881   0.797   3.097
26662SOL     OW81824   2.121   7.220   0.768
26662SOL    HW181825   2.103   7.242   0.677
26662SOL    HW281826   2.146   7.127   0.766
26663SOL     OW81827  14.337   7.764   6.208
26663SOL    HW181828  14.337   7.859   6.216
26663SOL    HW281829  14.429   7.740   6.217
26664SOL     OW81830   5.486  11.887  13.755
26664SOL    HW181831   5.550  11.937  13.704
26664SOL    HW281832   5.402  11.929  13.736
26665SOL     OW81833   5.107  13.195   6.655
26665SOL    HW181834   5.168  13.200   6.581
26665SOL    HW281835   5.023  13.222   6.618
26666SOL     OW81836  11.336  11.902   8.871
26666SOL    HW181837  11.403  11.849   8.915
26666SOL    HW281838  11.311  11.851   8.795
26667SOL     OW81839   2.438   2.945   4.740
26667SOL    HW181840   2.363   3.001   4.758
26667SOL    HW281841   2.512   3.006   4.733
26668SOL     OW81842   2.022   7.376   9.317
26668SOL    HW181843   1.962   7.388   9.391
26668SOL    HW281844   2.100   7.425   9.341
26669SOL     OW81845  11.529  10.524  12.116
26669SOL    HW181846  11.601  10.489  12.064
26669SOL    HW281847  11.450  10.489  12.075
26670SOL     OW81848   5.343   6.171  11.709
26670SOL    HW181849   5.311   6.082  11.721
26670SOL    HW281850   5.294   6.205  11.634
26671SOL     OW81851   2.666  14.719  12.150
26671SOL    HW181852   2.610  14.764  12.214
26671SOL    HW281853   2.605  14.678  12.088
26672SOL     OW81854   4.668   4.473   2.667
26672SOL    HW181855   4.651   4.460   2.574
26672SOL    HW281856   4.716   4.556   2.671
26673SOL     OW81857   7.488   2.030  11.707
26673SOL    HW181858   7.484   2.117  11.668
26673SOL    HW281859   7.431   2.034  11.783
26674SOL     OW81860   2.000   0.624   9.710
26674SOL    HW181861   1.976   0.653   9.798
26674SOL    HW281862   1.919   0.630   9.660
26675SOL     OW81863  10.800   6.027  10.331
26675SOL    HW181864  10.797   6.111  10.377
26675SOL    HW281865  10.741   6.038  10.256
26676SOL     OW81866   4.427   3.293   1.407
26676SOL    HW181867   4.344   3.340   1.415
26676SOL    HW281868   4.494   3.361   1.415
26677SOL     OW81869   1.592   1.486   2.669
26677SOL    HW181870   1.684   1.475   2.690
26677SOL    HW281871   1.556   1.397   2.672
26678SOL     OW81872   1.853   7.694  12.921
26678SOL    HW181873   1.905   7.774  12.936
26678SOL    HW281874   1.885   7.660  12.838
26679SOL     OW81875  10.077   3.988   0.182
26679SOL    HW181876  10.168   3.963   0.200
26679SOL    HW281877  10.084   4.050   0.109
26680SOL     OW81878   6.643  14.091   0.417
26680SOL    HW181879   6.641  14.015   0.477
26680SOL    HW281880   6.555  14.128   0.423
26681SOL     OW81881  11.981  11.478   8.908
26681SOL    HW181882  12.030  11.556   8.934
26681SOL    HW281883  11.889  11.504   8.913
26682SOL     OW81884  14.475   1.484  14.742
26682SOL    HW181885  14.458   1.520  14.829
26682SOL    HW281886  14.570   1.491  14.732
26683SOL     OW81887   7.956   1.966   1.007
26683SOL    HW181888   8.052   1.972   0.999
26683SOL    HW281889   7.924   2.045   0.962
26684SOL     OW81890   3.873   7.180   0.157
26684SOL    HW181891   3.859   7.085   0.155
26684SOL    HW281892   3.814   7.214   0.090
26685SOL     OW81893   5.051  14.819   5.700
26685SOL    HW181894   5.063  14.724   5.713
26685SOL    HW281895   5.135  14.848   5.664
26686SOL     OW81896   7.370   6.232   4.213
26686SOL    HW181897   7.292   6.261   4.260
26686SOL    HW281898   7.432   6.304   4.221
26687SOL     OW81899  13.565   8.411   0.373
26687SOL    HW181900  13.528   8.404   0.286
26687SOL    HW281901  13.564   8.505   0.392
26688SOL     OW81902   2.497   6.163  12.914
26688SOL    HW181903   2.413   6.120  12.924
26688SOL    HW281904   2.493   6.239  12.972
26689SOL     OW81905   3.111  11.007   2.507
26689SOL    HW181906   3.090  11.065   2.580
26689SOL    HW281907   3.201  10.979   2.525
26690SOL     OW81908   9.071   6.779   9.351
26690SOL    HW181909   8.986   6.756   9.390
26690SOL    HW281910   9.106   6.847   9.408
26691SOL     OW81911   5.106   8.882  14.004
26691SOL    HW181912   5.065   8.966  13.981
26691SOL    HW281913   5.033   8.822  14.015
26692SOL     OW81914  13.166   1.102  11.030
26692SOL    HW181915  13.107   1.053  11.087
26692SOL    HW281916  13.252   1.065  11.047
26693SOL     OW81917   7.159   8.445   9.827
26693SOL    HW181918   7.148   8.393   9.747
26693SOL    HW281919   7.141   8.384   9.898
26694SOL     OW81920   8.527   6.256  11.276
26694SOL    HW181921   8.617   6.283  11.294
26694SOL    HW281922   8.489   6.330  11.230
26695SOL     OW81923   7.267   0.964   4.070
26695SOL    HW181924   7.361   0.963   4.054
26695SOL    HW281925   7.234   1.037   4.019
26696SOL     OW81926   9.857   1.071  14.629
26696SOL    HW181927   9.797   1.021  14.684
26696SOL    HW281928   9.943   1.055  14.667
26697SOL     OW81929   6.296   0.356   7.230
26697SOL    HW181930   6.267   0.422   7.293
26697SOL    HW281931   6.346   0.294   7.282
26698SOL     OW81932  13.952   5.872   3.213
26698SOL    HW181933  13.949   5.857   3.119
26698SOL    HW281934  14.025   5.817   3.244
26699SOL     OW81935   6.932  12.614   0.005
26699SOL    HW181936   6.925  12.527  14.847
26699SOL    HW281937   6.842  12.642   0.021
26700SOL     OW81938   3.179   1.687   1.263
26700SOL    HW181939   3.201   1.596   1.246
26700SOL    HW281940   3.234   1.737   1.202
26701SOL     OW81941   0.667   8.071   5.040
26701SOL    HW181942   0.716   8.021   5.105
26701SOL    HW281943   0.663   8.014   4.963
26702SOL     OW81944   0.975   8.993   7.781
26702SOL    HW181945   0.971   9.073   7.728
26702SOL    HW281946   0.925   8.928   7.731
26703SOL     OW81947   7.789   1.102   0.597
26703SOL    HW181948   7.827   1.031   0.651
26703SOL    HW281949   7.843   1.102   0.518
26704SOL     OW81950   1.246   8.381   1.326
26704SOL    HW181951   1.217   8.464   1.365
26704SOL    HW281952   1.172   8.353   1.272
26705SOL     OW81953  11.062   9.477   0.603
26705SOL    HW181954  11.040   9.391   0.638
26705SOL    HW281955  11.154   9.490   0.628
26706SOL     OW81956   6.938  11.881   9.006
26706SOL    HW181957   6.982  11.915   8.928
26706SOL    HW281958   6.964  11.789   9.010
26707SOL     OW81959   0.872   9.973   8.071
26707SOL    HW181960   0.898   9.973   7.979
26707SOL    HW281961   0.891  10.061   8.102
26708SOL     OW81962   0.077   2.607   4.280
26708SOL    HW181963   0.082   2.694   4.240
26708SOL    HW281964   0.023   2.620   4.358
26709SOL     OW81965   9.707   2.109  14.287
26709SOL    HW181966   9.725   2.026  14.331
26709SOL    HW281967   9.686   2.169  14.358
26710SOL     OW81968   2.005   9.674   3.473
26710SOL    HW181969   2.079   9.725   3.508
26710SOL    HW281970   1.937   9.739   3.455
26711SOL     OW81971   1.566   3.186  10.289
26711SOL    HW181972   1.576   3.167  10.382
26711SOL    HW281973   1.513   3.114  10.256
26712SOL     OW81974   9.020   6.355   0.782
26712SOL    HW181975   9.015   6.395   0.695
26712SOL    HW281976   9.094   6.294   0.776
26713SOL     OW81977  11.331   1.919   9.179
26713SOL    HW181978  11.285   1.861   9.118
26713SOL    HW281979  11.364   1.860   9.247
26714SOL     OW81980   9.907   7.493  12.845
26714SOL    HW181981   9.857   7.569  12.816
26714SOL    HW281982   9.842   7.424  12.856
26715SOL     OW81983   8.125   5.638   2.845
26715SOL    HW181984   8.160   5.561   2.890
26715SOL    HW281985   8.203   5.687   2.816
26716SOL     OW81986   4.485  14.354   7.847
26716SOL    HW181987   4.397  14.379   7.874
26716SOL    HW281988   4.476  14.263   7.818
26717SOL     OW81989   4.170   7.884   2.538
26717SOL    HW181990   4.232   7.839   2.480
26717SOL    HW281991   4.095   7.825   2.542
26718SOL     OW81992   9.150   9.080   4.940
26718SOL    HW181993   9.119   9.030   5.016
26718SOL    HW281994   9.079   9.141   4.920
26719SOL     OW81995   5.178   8.864   6.974
26719SOL    HW181996   5.205   8.876   7.065
26719SOL    HW281997   5.230   8.790   6.943
26720SOL     OW81998   6.982   7.537  10.613
26720SOL    HW181999   7.001   7.458  10.663
26720SOL    HW282000   6.887   7.537  10.604
26721SOL     OW82001   0.656   6.314   3.229
26721SOL    HW182002   0.590   6.365   3.276
26721SOL    HW282003   0.607   6.243   3.188
26722SOL     OW82004   8.749  10.654   1.690
26722SOL    HW182005   8.784  10.620   1.772
26722SOL    HW282006   8.752  10.749   1.700
26723SOL     OW82007  11.838   6.699   4.639
26723SOL    HW182008  11.745   6.696   4.613
26723SOL    HW282009  11.873   6.615   4.610
26724SOL     OW82010  13.667   1.719   4.056
26724SOL    HW182011  13.705   1.783   4.116
26724SOL    HW282012  13.641   1.646   4.113
26725SOL     OW82013   5.336   7.746   5.463
26725SOL    HW182014   5.308   7.788   5.382
26725SOL    HW282015   5.432   7.741   5.456
26726SOL     OW82016   9.273   9.157   2.653
26726SOL    HW182017   9.360   9.186   2.624
26726SOL    HW282018   9.243   9.097   2.585
26727SOL     OW82019   2.264   0.853  11.684
26727SOL    HW182020   2.341   0.873  11.631
26727SOL    HW282021   2.294   0.786  11.746
26728SOL     OW82022   3.509  10.978   7.218
26728SOL    HW182023   3.533  10.893   7.254
26728SOL    HW282024   3.414  10.975   7.209
26729SOL     OW82025   6.853  12.897   8.916
26729SOL    HW182026   6.937  12.938   8.934
26729SOL    HW282027   6.854  12.880   8.822
26730SOL     OW82028  13.110  10.055   5.641
26730SOL    HW182029  13.031  10.004   5.626
26730SOL    HW282030  13.090  10.141   5.605
26731SOL     OW82031  11.993   6.577   5.135
26731SOL    HW182032  11.994   6.617   5.222
26731SOL    HW282033  11.923   6.512   5.140
26732SOL     OW82034   3.408   9.046  13.745
26732SOL    HW182035   3.354   9.043  13.824
26732SOL    HW282036   3.456   8.963  13.744
26733SOL     OW82037   9.739   8.352   8.828
26733SOL    HW182038   9.825   8.371   8.792
26733SOL    HW282039   9.733   8.407   8.906
26734SOL     OW82040  10.862   5.685   7.921
26734SOL    HW182041  10.779   5.638   7.933
26734SOL    HW282042  10.919   5.651   7.990
26735SOL     OW82043   1.656   5.345   7.841
26735SOL    HW182044   1.703   5.313   7.918
26735SOL    HW282045   1.580   5.390   7.877
26736SOL     OW82046  11.241  13.639   5.718
26736SOL    HW182047  11.237  13.718   5.664
26736SOL    HW282048  11.163  13.645   5.774
26737SOL     OW82049   7.557   8.792  12.974
26737SOL    HW182050   7.506   8.805  13.054
26737SOL    HW282051   7.647   8.811  12.999
26738SOL     OW82052   4.923   5.662  12.565
26738SOL    HW182053   4.938   5.581  12.614
26738SOL    HW282054   4.848   5.703  12.609
26739SOL     OW82055  14.433   4.533   2.314
26739SOL    HW182056  14.440   4.596   2.243
26739SOL    HW282057  14.524   4.516   2.340
26740SOL     OW82058   5.458   1.445   3.915
26740SOL    HW182059   5.365   1.422   3.919
26740SOL    HW282060   5.501   1.367   3.880
26741SOL     OW82061   7.237   3.849  13.186
26741SOL    HW182062   7.309   3.898  13.226
26741SOL    HW282063   7.181   3.823  13.259
26742SOL     OW82064   5.510   2.803  10.384
26742SOL    HW182065   5.512   2.833  10.475
26742SOL    HW282066   5.439   2.739  10.381
26743SOL     OW82067   6.463  12.581   3.112
26743SOL    HW182068   6.555  12.584   3.084
26743SOL    HW282069   6.416  12.546   3.036
26744SOL     OW82070  10.304  13.932   1.832
26744SOL    HW182071  10.301  13.912   1.738
26744SOL    HW282072  10.311  14.028   1.836
26745SOL     OW82073   0.740   3.131   7.099
26745SOL    HW182074   0.797   3.071   7.147
26745SOL    HW282075   0.777   3.134   7.011
26746SOL     OW82076  12.041   9.793   0.075
26746SOL    HW182077  12.111   9.813   0.012
26746SOL    HW282078  11.971   9.757   0.021
26747SOL     OW82079  10.534   8.693   5.018
26747SOL    HW182080  10.481   8.625   4.976
26747SOL    HW282081  10.622   8.655   5.023
26748SOL     OW82082  13.675   2.919   7.773
26748SOL    HW182083  13.675   3.008   7.738
26748SOL    HW282084  13.616   2.923   7.849
26749SOL     OW82085   7.174  12.913   8.657
26749SOL    HW182086   7.093  12.961   8.643
26749SOL    HW282087   7.153  12.823   8.634
26750SOL     OW82088  14.313   6.112   8.560
26750SOL    HW182089  14.244   6.047   8.549
26750SOL    HW282090  14.277   6.175   8.622
26751SOL     OW82091  11.648   1.739   8.131
26751SOL    HW182092  11.733   1.702   8.106
26751SOL    HW282093  11.589   1.664   8.131
26752SOL     OW82094   0.561  12.687   5.129
26752SOL    HW182095   0.617  12.686   5.207
26752SOL    HW282096   0.617  12.656   5.058
26753SOL     OW82097  13.070  13.633  10.792
26753SOL    HW182098  12.981  13.619  10.760
26753SOL    HW282099  13.083  13.728  10.786
26754SOL     OW82100   9.717   3.247  10.908
26754SOL    HW182101   9.739   3.267  10.998
26754SOL    HW282102   9.687   3.330  10.871
26755SOL     OW82103  10.420  11.930   5.919
26755SOL    HW182104  10.411  12.003   5.858
26755SOL    HW282105  10.335  11.924   5.962
26756SOL     OW82106   0.537  12.460   7.618
26756SOL    HW182107   0.545  12.555   7.621
26756SOL    HW282108   0.577  12.434   7.535
26757SOL     OW82109  13.631   8.836   8.058
26757SOL    HW182110  13.604   8.764   8.002
26757SOL    HW282111  13.556   8.853   8.115
26758SOL     OW82112   9.680   1.680  12.394
26758SOL    HW182113   9.710   1.589  12.393
26758SOL    HW282114   9.667   1.702  12.302
26759SOL     OW82115   7.836   8.196  14.874
26759SOL    HW182116   7.833   8.108  14.837
26759SOL    HW282117   7.790   8.188   0.078
26760SOL     OW82118   4.537   7.633   7.096
26760SOL    HW182119   4.478   7.605   7.026
26760SOL    HW282120   4.555   7.725   7.077
26761SOL     OW82121   7.039   2.761  11.203
26761SOL    HW182122   7.076   2.837  11.158
26761SOL    HW282123   6.953   2.750  11.164
26762SOL     OW82124  14.343   1.450   2.756
26762SOL    HW182125  14.351   1.545   2.760
26762SOL    HW282126  14.249   1.435   2.742
26763SOL     OW82127   2.997  13.139   6.244
26763SOL    HW182128   3.020  13.065   6.299
26763SOL    HW282129   3.063  13.138   6.174
26764SOL     OW82130   2.411   3.181  10.791
26764SOL    HW182131   2.370   3.252  10.840
26764SOL    HW282132   2.482   3.223  10.743
26765SOL     OW82133  12.930   5.038   2.452
26765SOL    HW182134  13.022   5.040   2.479
26765SOL    HW282135  12.897   4.955   2.486
26766SOL     OW82136   8.685  10.994  10.126
26766SOL    HW182137   8.774  10.970  10.153
26766SOL    HW282138   8.695  11.077  10.079
26767SOL     OW82139  12.894   8.321  11.359
26767SOL    HW182140  12.900   8.241  11.412
26767SOL    HW282141  12.941   8.300  11.278
26768SOL     OW82142  13.323  10.136  12.814
26768SOL    HW182143  13.256  10.199  12.785
26768SOL    HW282144  13.320  10.066  12.749
26769SOL     OW82145   0.726   9.511  10.600
26769SOL    HW182146   0.640   9.514  10.641
26769SOL    HW282147   0.769   9.435  10.640
26770SOL     OW82148   9.116  11.122  11.422
26770SOL    HW182149   9.113  11.210  11.384
26770SOL    HW282150   9.032  11.112  11.466
26771SOL     OW82151  10.147  11.948  10.513
26771SOL    HW182152  10.194  12.004  10.452
26771SOL    HW282153  10.054  11.963  10.494
26772SOL     OW82154  12.002   1.091  13.471
26772SOL    HW182155  12.058   1.137  13.409
26772SOL    HW282156  11.920   1.141  13.472
26773SOL     OW82157   3.342  14.860   4.414
26773SOL    HW182158   3.411   0.032   4.373
26773SOL    HW282159   3.264  14.878   4.361
26774SOL     OW82160  10.518   7.245   2.832
26774SOL    HW182161  10.506   7.319   2.772
26774SOL    HW282162  10.437   7.242   2.883
26775SOL     OW82163  11.081   9.313  11.795
26775SOL    HW182164  11.152   9.325  11.858
26775SOL    HW282165  11.062   9.220  11.798
26776SOL     OW82166  13.915  13.734   7.353
26776SOL    HW182167  13.889  13.784   7.430
26776SOL    HW282168  13.935  13.800   7.287
26777SOL     OW82169   3.304  12.124   8.386
26777SOL    HW182170   3.222  12.082   8.413
26777SOL    HW282171   3.364  12.107   8.459
26778SOL     OW82172   4.827   5.281   1.687
26778SOL    HW182173   4.763   5.295   1.616
26778SOL    HW282174   4.887   5.355   1.680
26779SOL     OW82175  12.445   2.115  11.780
26779SOL    HW182176  12.416   2.205  11.798
26779SOL    HW282177  12.490   2.121  11.695
26780SOL     OW82178  11.432  14.359   6.090
26780SOL    HW182179  11.490  14.360   6.166
26780SOL    HW282180  11.469  14.292   6.032
26781SOL     OW82181   8.503  11.778   2.307
26781SOL    HW182182   8.580  11.832   2.290
26781SOL    HW282183   8.459  11.772   2.222
26782SOL     OW82184   9.791  13.922  11.487
26782SOL    HW182185   9.791  13.870  11.567
26782SOL    HW282186   9.849  13.875  11.428
26783SOL     OW82187  11.789  10.908   6.645
26783SOL    HW182188  11.815  10.821   6.615
26783SOL    HW282189  11.739  10.945   6.572
26784SOL     OW82190   6.339  14.587  13.907
26784SOL    HW182191   6.403  14.581  13.836
26784SOL    HW282192   6.270  14.526  13.882
26785SOL     OW82193  10.859  11.589   2.017
26785SOL    HW182194  10.793  11.648   2.054
26785SOL    HW282195  10.852  11.509   2.069
26786SOL     OW82196   3.585   2.306   8.867
26786SOL    HW182197   3.596   2.292   8.773
26786SOL    HW282198   3.506   2.359   8.875
26787SOL     OW82199  12.949  12.637  14.158
26787SOL    HW182200  12.950  12.594  14.072
26787SOL    HW282201  13.016  12.705  14.152
26788SOL     OW82202   8.409   6.774  12.403
26788SOL    HW182203   8.370   6.687  12.414
26788SOL    HW282204   8.486   6.773  12.461
26789SOL     OW82205   8.231   3.676   2.636
26789SOL    HW182206   8.301   3.618   2.667
26789SOL    HW282207   8.151   3.624   2.643
26790SOL     OW82208  11.816  14.316   7.645
26790SOL    HW182209  11.759  14.247   7.677
26790SOL    HW282210  11.899  14.301   7.690
26791SOL     OW82211   4.207   5.323  12.205
26791SOL    HW182212   4.176   5.360  12.123
26791SOL    HW282213   4.160   5.240  12.214
26792SOL     OW82214   7.170   4.635   5.235
26792SOL    HW182215   7.213   4.593   5.160
26792SOL    HW282216   7.091   4.675   5.198
26793SOL     OW82217   3.314   9.214  11.516
26793SOL    HW182218   3.244   9.222  11.451
26793SOL    HW282219   3.365   9.294  11.507
26794SOL     OW82220   9.392   2.161   3.220
26794SOL    HW182221   9.352   2.106   3.154
26794SOL    HW282222   9.384   2.112   3.302
26795SOL     OW82223  12.522   0.940  10.743
26795SOL    HW182224  12.541   1.005  10.675
26795SOL    HW282225  12.482   0.867  10.695
26796SOL     OW82226   8.129   8.900  13.864
26796SOL    HW182227   8.220   8.871  13.877
26796SOL    HW282228   8.130   8.943  13.779
26797SOL     OW82229  10.476   0.904   7.508
26797SOL    HW182230  10.509   0.988   7.540
26797SOL    HW282231  10.517   0.893   7.423
26798SOL     OW82232  13.348  13.069  10.175
26798SOL    HW182233  13.414  13.029  10.119
26798SOL    HW282234  13.393  13.142  10.218
26799SOL     OW82235  10.728  11.144   5.687
26799SOL    HW182236  10.746  11.052   5.667
26799SOL    HW282237  10.669  11.141   5.762
26800SOL     OW82238  10.576  12.492  12.808
26800SOL    HW182239  10.637  12.474  12.879
26800SOL    HW282240  10.490  12.491  12.849
26801SOL     OW82241   4.374   2.102   9.089
26801SOL    HW182242   4.319   2.177   9.111
26801SOL    HW282243   4.410   2.072   9.172
26802SOL     OW82244  10.531  13.727   1.410
26802SOL    HW182245  10.596  13.748   1.343
26802SOL    HW282246  10.479  13.657   1.371
26803SOL     OW82247  14.572   5.828   5.869
26803SOL    HW182248  14.548   5.756   5.811
26803SOL    HW282249  14.500   5.833   5.933
26804SOL     OW82250   3.488   6.002   9.598
26804SOL    HW182251   3.547   5.927   9.607
26804SOL    HW282252   3.419   5.971   9.540
26805SOL     OW82253  14.027   5.835  13.840
26805SOL    HW182254  14.034   5.751  13.886
26805SOL    HW282255  13.941   5.832  13.799
26806SOL     OW82256   7.007  13.640  12.978
26806SOL    HW182257   6.919  13.676  12.965
26806SOL    HW282258   7.004  13.554  12.936
26807SOL     OW82259   8.045  13.088   2.381
26807SOL    HW182260   8.001  13.008   2.353
26807SOL    HW282261   8.093  13.118   2.304
26808SOL     OW82262   5.713   7.186   1.039
26808SOL    HW182263   5.695   7.186   1.133
26808SOL    HW282264   5.806   7.166   1.032
26809SOL     OW82265   9.315   7.367  13.560
26809SOL    HW182266   9.316   7.366  13.464
26809SOL    HW282267   9.248   7.432  13.583
26810SOL     OW82268   1.768   7.952  14.249
26810SOL    HW182269   1.809   7.943  14.335
26810SOL    HW282270   1.783   8.043  14.224
26811SOL     OW82271   8.854  12.220   1.447
26811SOL    HW182272   8.886  12.239   1.535
26811SOL    HW282273   8.930  12.232   1.391
26812SOL     OW82274  11.199   9.598  10.448
26812SOL    HW182275  11.248   9.517  10.434
26812SOL    HW282276  11.194   9.639  10.362
26813SOL     OW82277  13.915  13.461   7.527
26813SOL    HW182278  13.820  13.457   7.517
26813SOL    HW282279  13.947  13.498   7.444
26814SOL     OW82280   3.395   3.192   7.817
26814SOL    HW182281   3.327   3.151   7.870
26814SOL    HW282282   3.477   3.164   7.857
26815SOL     OW82283   5.045   0.932   9.894
26815SOL    HW182284   4.993   0.869   9.944
26815SOL    HW282285   5.012   1.018   9.921
26816SOL     OW82286   4.764   7.636   6.827
26816SOL    HW182287   4.729   7.726   6.832
26816SOL    HW282288   4.809   7.623   6.911
26817SOL     OW82289   2.044   1.163   8.104
26817SOL    HW182290   2.034   1.255   8.129
26817SOL    HW282291   2.078   1.121   8.183
26818SOL     OW82292  12.327   9.669   7.227
26818SOL    HW182293  12.316   9.742   7.288
26818SOL    HW282294  12.421   9.656   7.222
26819SOL     OW82295  12.805   3.960  11.907
26819SOL    HW182296  12.750   4.038  11.916
26819SOL    HW282297  12.745   3.887  11.926
26820SOL     OW82298   2.623   5.911   2.770
26820SOL    HW182299   2.617   5.863   2.853
26820SOL    HW282300   2.642   6.001   2.796
26821SOL     OW82301  11.094  12.688  13.762
26821SOL    HW182302  11.141  12.741  13.826
26821SOL    HW282303  11.015  12.659  13.808
26822SOL     OW82304   5.436   5.077   3.230
26822SOL    HW182305   5.450   4.998   3.283
26822SOL    HW282306   5.513   5.131   3.247
26823SOL     OW82307   6.197  11.502   4.518
26823SOL    HW182308   6.175  11.469   4.605
26823SOL    HW282309   6.293  11.495   4.513
26824SOL     OW82310   2.361   0.536   5.043
26824SOL    HW182311   2.396   0.464   4.989
26824SOL    HW282312   2.336   0.603   4.980
26825SOL     OW82313   7.942   0.303   4.796
26825SOL    HW182314   7.999   0.371   4.833
26825SOL    HW282315   8.002   0.235   4.766
26826SOL     OW82316   5.289  10.065   1.374
26826SOL    HW182317   5.323  10.153   1.389
26826SOL    HW282318   5.367  10.009   1.371
26827SOL     OW82319   1.817   2.347   1.216
26827SOL    HW182320   1.880   2.411   1.250
26827SOL    HW282321   1.735   2.368   1.261
26828SOL     OW82322  11.154   0.660   9.892
26828SOL    HW182323  11.121   0.708   9.816
26828SOL    HW282324  11.231   0.709   9.920
26829SOL     OW82325  14.136   7.909   9.682
26829SOL    HW182326  14.128   7.828   9.734
26829SOL    HW282327  14.062   7.963   9.711
26830SOL     OW82328   7.811   3.365   0.410
26830SOL    HW182329   7.760   3.445   0.399
26830SOL    HW282330   7.898   3.386   0.375
26831SOL     OW82331   3.388   3.864  10.015
26831SOL    HW182332   3.325   3.792  10.008
26831SOL    HW282333   3.360   3.926   9.948
26832SOL     OW82334   0.477   5.657   4.109
26832SOL    HW182335   0.415   5.628   4.044
26832SOL    HW282336   0.519   5.577   4.141
26833SOL     OW82337  13.189  12.795   4.286
26833SOL    HW182338  13.100  12.787   4.322
26833SOL    HW282339  13.176  12.828   4.197
26834SOL     OW82340   4.964   3.615   7.355
26834SOL    HW182341   4.987   3.570   7.436
26834SOL    HW282342   5.007   3.700   7.361
26835SOL     OW82343   2.245   2.349   6.424
26835SOL    HW182344   2.284   2.334   6.337
26835SOL    HW282345   2.178   2.281   6.432
26836SOL     OW82346   7.854   0.797   6.001
26836SOL    HW182347   7.895   0.880   5.975
26836SOL    HW282348   7.785   0.822   6.062
26837SOL     OW82349   3.651   6.705   9.666
26837SOL    HW182350   3.701   6.625   9.683
26837SOL    HW282351   3.680   6.732   9.579
26838SOL     OW82352   1.945   2.881  14.541
26838SOL    HW182353   1.922   2.965  14.582
26838SOL    HW282354   1.995   2.835  14.608
26839SOL     OW82355   3.415   0.748   7.678
26839SOL    HW182356   3.372   0.804   7.613
26839SOL    HW282357   3.392   0.787   7.762
26840SOL     OW82358   4.974   5.006   8.231
26840SOL    HW182359   4.901   5.067   8.220
26840SOL    HW282360   5.050   5.062   8.243
26841SOL     OW82361   9.855  10.804   8.983
26841SOL    HW182362   9.936  10.758   8.966
26841SOL    HW282363   9.786  10.742   8.960
26842SOL     OW82364   5.875   6.892  11.849
26842SOL    HW182365   5.856   6.969  11.903
26842SOL    HW282366   5.792   6.843  11.848
26843SOL     OW82367  13.735  12.731  11.745
26843SOL    HW182368  13.747  12.825  11.736
26843SOL    HW282369  13.675  12.721  11.819
26844SOL     OW82370   7.501   6.892   3.870
26844SOL    HW182371   7.412   6.924   3.884
26844SOL    HW282372   7.495   6.797   3.884
26845SOL     OW82373   7.012  13.855   7.034
26845SOL    HW182374   6.979  13.944   7.039
26845SOL    HW282375   7.011  13.824   7.125
26846SOL     OW82376   9.941   5.840  13.120
26846SOL    HW182377   9.855   5.866  13.087
26846SOL    HW282378   9.996   5.917  13.107
26847SOL     OW82379   1.133  12.283   3.728
26847SOL    HW182380   1.221  12.319   3.724
26847SOL    HW282381   1.134  12.225   3.804
26848SOL     OW82382  13.844   6.319   9.448
26848SOL    HW182383  13.836   6.413   9.467
26848SOL    HW282384  13.935   6.307   9.422
26849SOL     OW82385   8.707   3.888  11.262
26849SOL    HW182386   8.643   3.888  11.333
26849SOL    HW282387   8.791   3.905  11.305
26850SOL     OW82388   9.910   2.529  12.057
26850SOL    HW182389   9.843   2.462  12.069
26850SOL    HW282390   9.981   2.483  12.012
26851SOL     OW82391   9.752  10.290   3.682
26851SOL    HW182392   9.746  10.212   3.737
26851SOL    HW282393   9.832  10.334   3.712
26852SOL     OW82394  13.261   0.567   7.437
26852SOL    HW182395  13.239   0.658   7.454
26852SOL    HW282396  13.247   0.555   7.343
26853SOL     OW82397   0.608   0.167  14.675
26853SOL    HW182398   0.534   0.182  14.616
26853SOL    HW282399   0.647   0.254  14.687
26854SOL     OW82400  12.503   2.558   1.125
26854SOL    HW182401  12.564   2.615   1.171
26854SOL    HW282402  12.417   2.583   1.158
26855SOL     OW82403   1.613   8.550   7.642
26855SOL    HW182404   1.519   8.567   7.643
26855SOL    HW282405   1.620   8.456   7.624
26856SOL     OW82406   8.102   9.865   2.194
26856SOL    HW182407   8.008   9.858   2.210
26856SOL    HW282408   8.138   9.898   2.277
26857SOL     OW82409   0.149   4.025  10.678
26857SOL    HW182410   0.079   3.993  10.621
26857SOL    HW282411   0.157   3.960  10.747
26858SOL     OW82412   2.849   5.886   1.350
26858SOL    HW182413   2.821   5.795   1.347
26858SOL    HW282414   2.924   5.890   1.290
26859SOL     OW82415  11.416   4.418  11.796
26859SOL    HW182416  11.467   4.399  11.875
26859SOL    HW282417  11.413   4.335  11.749
26860SOL     OW82418  10.625   6.770  14.789
26860SOL    HW182419  10.701   6.824  14.771
26860SOL    HW282420  10.650   6.682  14.761
26861SOL     OW82421   9.874   5.385   2.504
26861SOL    HW182422   9.779   5.399   2.504
26861SOL    HW282423   9.893   5.344   2.420
26862SOL     OW82424   2.257   6.490  14.153
26862SOL    HW182425   2.242   6.456  14.241
26862SOL    HW282426   2.252   6.413  14.097
26863SOL     OW82427   4.712   8.844  11.685
26863SOL    HW182428   4.734   8.927  11.729
26863SOL    HW282429   4.616   8.847  11.676
26864SOL     OW82430  13.600  14.030  12.962
26864SOL    HW182431  13.552  14.073  12.891
26864SOL    HW282432  13.538  13.967  12.998
26865SOL     OW82433   1.230   7.627   8.340
26865SOL    HW182434   1.205   7.594   8.254
26865SOL    HW282435   1.150   7.666   8.376
26866SOL     OW82436   9.735   5.177  11.434
26866SOL    HW182437   9.686   5.178  11.517
26866SOL    HW282438   9.790   5.098  11.440
26867SOL     OW82439   9.546   9.040   0.997
26867SOL    HW182440   9.500   8.959   1.016
26867SOL    HW282441   9.482   9.094   0.952
26868SOL     OW82442   2.720   2.531   7.553
26868SOL    HW182443   2.698   2.570   7.468
26868SOL    HW282444   2.811   2.558   7.569
26869SOL     OW82445   0.826  13.666   8.364
26869SOL    HW182446   0.749  13.611   8.372
26869SOL    HW282447   0.897  13.613   8.401
26870SOL     OW82448   2.698   7.653   1.574
26870SOL    HW182449   2.740   7.570   1.594
26870SOL    HW282450   2.630   7.632   1.510
26871SOL     OW82451   0.668  12.308  10.868
26871SOL    HW182452   0.739  12.272  10.815
26871SOL    HW282453   0.591  12.255  10.844
26872SOL     OW82454   8.997   8.134   6.695
26872SOL    HW182455   9.050   8.160   6.771
26872SOL    HW282456   8.970   8.216   6.655
26873SOL     OW82457  11.005   1.950  12.766
26873SOL    HW182458  10.969   1.962  12.678
26873SOL    HW282459  11.077   2.013  12.771
26874SOL     OW82460  11.701  10.164   9.998
26874SOL    HW182461  11.661  10.148  10.083
26874SOL    HW282462  11.629  10.188   9.941
26875SOL     OW82463   1.991   6.202   0.977
26875SOL    HW182464   1.924   6.158   1.029
26875SOL    HW282465   1.943   6.242   0.904
26876SOL     OW82466   2.891   4.743   1.922
26876SOL    HW182467   2.948   4.725   1.997
26876SOL    HW282468   2.890   4.661   1.873
26877SOL     OW82469   3.421   3.274   1.414
26877SOL    HW182470   3.342   3.303   1.459
26877SOL    HW282471   3.426   3.180   1.430
26878SOL     OW82472   6.528   7.125  11.877
26878SOL    HW182473   6.439   7.124  11.843
26878SOL    HW282474   6.584   7.132  11.799
26879SOL     OW82475   2.000   7.980   2.604
26879SOL    HW182476   1.984   7.950   2.514
26879SOL    HW282477   1.912   7.989   2.641
26880SOL     OW82478  14.331   5.357   5.455
26880SOL    HW182479  14.324   5.327   5.546
26880SOL    HW282480  14.359   5.448   5.462
26881SOL     OW82481   6.359   3.140   1.542
26881SOL    HW182482   6.405   3.109   1.464
26881SOL    HW282483   6.428   3.158   1.605
26882SOL     OW82484  13.911  11.854   3.682
26882SOL    HW182485  13.911  11.800   3.603
26882SOL    HW282486  13.830  11.830   3.728
26883SOL     OW82487  11.752  10.949  10.274
26883SOL    HW182488  11.742  10.989  10.188
26883SOL    HW282489  11.678  10.888  10.280
26884SOL     OW82490  11.747   0.058  12.970
26884SOL    HW182491  11.659   0.074  12.934
26884SOL    HW282492  11.745   0.101  13.056
26885SOL     OW82493   9.352  11.690   6.970
26885SOL    HW182494   9.262  11.659   6.969
26885SOL    HW282495   9.388  11.664   6.886
26886SOL     OW82496   7.768   1.884  10.519
26886SOL    HW182497   7.778   1.901  10.613
26886SOL    HW282498   7.673   1.881  10.505
26887SOL     OW82499  14.191  12.803   1.217
26887SOL    HW182500  14.196  12.893   1.185
26887SOL    HW282501  14.221  12.750   1.143
26888SOL     OW82502  12.631   3.824   5.092
26888SOL    HW182503  12.565   3.765   5.055
26888SOL    HW282504  12.626   3.809   5.187
26889SOL     OW82505  10.399   1.463  11.342
26889SOL    HW182506  10.488   1.497  11.348
26889SOL    HW282507  10.391   1.430  11.252
26890SOL     OW82508   8.769  13.696   7.103
26890SOL    HW182509   8.680  13.724   7.124
26890SOL    HW282510   8.821  13.726   7.178
26891SOL     OW82511   4.713   5.944   5.182
26891SOL    HW182512   4.713   5.856   5.143
26891SOL    HW282513   4.725   5.928   5.276
26892SOL     OW82514  10.496   0.224  11.503
26892SOL    HW182515  10.428   0.277  11.542
26892SOL    HW282516  10.509   0.261  11.415
26893SOL     OW82517   6.139   3.867  12.419
26893SOL    HW182518   6.066   3.922  12.389
26893SOL    HW282519   6.199   3.928  12.461
26894SOL     OW82520   1.817   0.509   1.838
26894SOL    HW182521   1.901   0.526   1.881
26894SOL    HW282522   1.797   0.590   1.792
26895SOL     OW82523   0.619   0.085   6.750
26895SOL    HW182524   0.527   0.063   6.764
26895SOL    HW282525   0.647   0.028   6.679
26896SOL     OW82526   8.731   1.236  13.889
26896SOL    HW182527   8.752   1.328  13.906
26896SOL    HW282528   8.753   1.224  13.796
26897SOL     OW82529   5.629   8.425  13.178
26897SOL    HW182530   5.718   8.443  13.209
26897SOL    HW282531   5.588   8.378  13.251
26898SOL     OW82532  11.754  11.663   7.249
26898SOL    HW182533  11.755  11.740   7.193
26898SOL    HW282534  11.759  11.589   7.189
26899SOL     OW82535  13.436   1.679  13.014
26899SOL    HW182536  13.408   1.588  13.016
26899SOL    HW282537  13.462   1.695  12.924
26900SOL     OW82538  11.634   4.097   2.510
26900SOL    HW182539  11.645   4.015   2.559
26900SOL    HW282540  11.720   4.112   2.471
26901SOL     OW82541   6.485  11.194   4.472
26901SOL    HW182542   6.451  11.121   4.523
26901SOL    HW282543   6.421  11.205   4.401
26902SOL     OW82544   0.322   8.188  10.704
26902SOL    HW182545   0.233   8.213  10.726
26902SOL    HW282546   0.369   8.272  10.698
26903SOL     OW82547  12.273   5.265   4.424
26903SOL    HW182548  12.341   5.249   4.489
26903SOL    HW282549  12.192   5.234   4.465
26904SOL     OW82550  11.519   0.206   2.974
26904SOL    HW182551  11.470   0.239   3.049
26904SOL    HW282552  11.595   0.163   3.012
26905SOL     OW82553   9.526   1.560  13.299
26905SOL    HW182554   9.432   1.560  13.315
26905SOL    HW282555   9.551   1.468  13.301
26906SOL     OW82556   8.410   8.872  10.461
26906SOL    HW182557   8.410   8.796  10.402
26906SOL    HW282558   8.397   8.947  10.403
26907SOL     OW82559  11.144   0.275   9.190
26907SOL    HW182560  11.135   0.307   9.279
26907SOL    HW282561  11.230   0.232   9.188
26908SOL     OW82562   7.495   4.313   0.828
26908SOL    HW182563   7.543   4.250   0.774
26908SOL    HW282564   7.436   4.260   0.881
26909SOL     OW82565   1.187   9.486   4.161
26909SOL    HW182566   1.155   9.524   4.079
26909SOL    HW282567   1.208   9.561   4.216
26910SOL     OW82568  12.980   7.915   4.085
26910SOL    HW182569  12.910   7.963   4.042
26910SOL    HW282570  12.942   7.887   4.168
26911SOL     OW82571   5.167  13.897  10.088
26911SOL    HW182572   5.245  13.893  10.031
26911SOL    HW282573   5.103  13.840  10.045
26912SOL     OW82574  12.308  10.918   4.477
26912SOL    HW182575  12.309  10.904   4.382
26912SOL    HW282576  12.363  10.994   4.491
26913SOL     OW82577  14.760   3.484   2.073
26913SOL    HW182578  14.855   3.495   2.060
26913SOL    HW282579  14.736   3.412   2.015
26914SOL     OW82580   6.602   2.061   0.123
26914SOL    HW182581   6.661   2.071   0.197
26914SOL    HW282582   6.655   2.082   0.047
26915SOL     OW82583   4.631   2.464   7.573
26915SOL    HW182584   4.662   2.397   7.512
26915SOL    HW282585   4.596   2.534   7.517
26916SOL     OW82586  11.788   5.917   0.393
26916SOL    HW182587  11.737   5.902   0.473
26916SOL    HW282588  11.876   5.886   0.415
26917SOL     OW82589  10.491   3.898   1.175
26917SOL    HW182590  10.551   3.826   1.155
26917SOL    HW282591  10.449   3.918   1.091
26918SOL     OW82592   5.624   6.141   9.808
26918SOL    HW182593   5.717   6.119   9.815
26918SOL    HW282594   5.600   6.174   9.895
26919SOL     OW82595   8.803   1.955   2.070
26919SOL    HW182596   8.878   2.003   2.037
26919SOL    HW282597   8.730   1.982   2.014
26920SOL     OW82598   8.288   4.686  10.830
26920SOL    HW182599   8.351   4.671  10.901
26920SOL    HW282600   8.331   4.750  10.773
26921SOL     OW82601  11.099  12.450   7.695
26921SOL    HW182602  11.090  12.395   7.618
26921SOL    HW282603  11.010  12.482   7.712
26922SOL     OW82604   0.811   0.856   8.019
26922SOL    HW182605   0.833   0.763   8.020
26922SOL    HW282606   0.857   0.893   8.094
26923SOL     OW82607   5.796  14.415   8.295
26923SOL    HW182608   5.705  14.427   8.265
26923SOL    HW282609   5.848  14.430   8.217
26924SOL     OW82610  11.274   2.960   2.571
26924SOL    HW182611  11.278   2.885   2.513
26924SOL    HW282612  11.349   3.014   2.547
26925SOL     OW82613   9.835   5.413   0.062
26925SOL    HW182614   9.743   5.390   0.067
26925SOL    HW282615   9.839   5.488   0.002
26926SOL     OW82616   2.596   7.026   3.929
26926SOL    HW182617   2.584   7.105   3.981
26926SOL    HW282618   2.507   7.003   3.900
26927SOL     OW82619   3.118   0.814   2.595
26927SOL    HW182620   3.203   0.851   2.621
26927SOL    HW282621   3.056   0.887   2.605
26928SOL     OW82622   1.404   1.686   8.671
26928SOL    HW182623   1.319   1.727   8.653
26928SOL    HW282624   1.396   1.650   8.759
26929SOL     OW82625  14.508   1.215   8.614
26929SOL    HW182626  14.418   1.238   8.640
26929SOL    HW282627  14.499   1.130   8.571
26930SOL     OW82628  11.716   1.389  14.705
26930SOL    HW182629  11.654   1.322  14.677
26930SOL    HW282630  11.664   1.470  14.703
26931SOL     OW82631   5.412   2.576   4.695
26931SOL    HW182632   5.421   2.551   4.787
26931SOL    HW282633   5.349   2.648   4.695
26932SOL     OW82634   7.705  14.514   5.472
26932SOL    HW182635   7.689  14.515   5.566
26932SOL    HW282636   7.660  14.592   5.439
26933SOL     OW82637   2.103  10.084   3.947
26933SOL    HW182638   2.076  10.066   3.857
26933SOL    HW282639   2.140  10.173   3.943
26934SOL     OW82640   1.378   7.541   0.456
26934SOL    HW182641   1.343   7.573   0.373
26934SOL    HW282642   1.426   7.462   0.433
26935SOL     OW82643   6.143   5.069   6.968
26935SOL    HW182644   6.141   4.983   7.009
26935SOL    HW282645   6.057   5.079   6.928
26936SOL     OW82646   0.831  11.956   2.722
26936SOL    HW182647   0.816  11.994   2.809
26936SOL    HW282648   0.808  12.026   2.661
26937SOL     OW82649   8.699   0.410  11.515
26937SOL    HW182650   8.732   0.476  11.577
26937SOL    HW282651   8.758   0.335  11.528
26938SOL     OW82652   7.666   4.574   4.580
26938SOL    HW182653   7.746   4.525   4.558
26938SOL    HW282654   7.646   4.623   4.500
26939SOL     OW82655   3.906   7.940  12.505
26939SOL    HW182656   3.979   7.921  12.445
26939SOL    HW282657   3.937   7.910  12.590
26940SOL     OW82658   5.146  13.903   6.719
26940SOL    HW182659   5.127  13.812   6.743
26940SOL    HW282660   5.196  13.897   6.638
26941SOL     OW82661  12.146  12.774   9.773
26941SOL    HW182662  12.163  12.863   9.804
26941SOL    HW282663  12.204  12.764   9.698
26942SOL     OW82664  12.521  10.393   0.683
26942SOL    HW182665  12.612  10.363   0.681
26942SOL    HW282666  12.515  10.454   0.609
26943SOL     OW82667   9.191   8.397   8.021
26943SOL    HW182668   9.129   8.371   7.953
26943SOL    HW282669   9.155   8.479   8.055
26944SOL     OW82670   3.071  10.443   7.345
26944SOL    HW182671   3.022  10.394   7.279
26944SOL    HW282672   3.035  10.531   7.342
26945SOL     OW82673   1.709   3.087   6.731
26945SOL    HW182674   1.696   3.089   6.636
26945SOL    HW282675   1.773   3.157   6.747
26946SOL     OW82676   4.657   5.326  11.093
26946SOL    HW182677   4.652   5.410  11.139
26946SOL    HW282678   4.709   5.270  11.151
26947SOL     OW82679   0.614   5.684  10.190
26947SOL    HW182680   0.630   5.773  10.220
26947SOL    HW282681   0.689   5.633  10.221
26948SOL     OW82682   1.828   3.183  10.883
26948SOL    HW182683   1.914   3.164  10.921
26948SOL    HW282684   1.816   3.117  10.815
26949SOL     OW82685   7.992   0.043   2.352
26949SOL    HW182686   8.076  14.877   2.353
26949SOL    HW282687   7.991   0.089   2.268
26950SOL     OW82688  13.724  14.496  11.765
26950SOL    HW182689  13.633  14.467  11.771
26950SOL    HW282690  13.720  14.577  11.715
26951SOL     OW82691   9.556  12.694   0.555
26951SOL    HW182692   9.504  12.741   0.490
26951SOL    HW282693   9.495  12.677   0.627
26952SOL     OW82694   1.710   6.340   5.112
26952SOL    HW182695   1.624   6.355   5.150
26952SOL    HW282696   1.771   6.384   5.171
26953SOL     OW82697   6.705   3.927   3.156
26953SOL    HW182698   6.769   3.963   3.094
26953SOL    HW282699   6.658   3.860   3.106
26954SOL     OW82700   6.785   3.006   8.708
26954SOL    HW182701   6.865   2.953   8.706
26954SOL    HW282702   6.804   3.075   8.772
26955SOL     OW82703   3.373   9.853   0.053
26955SOL    HW182704   3.428   9.927   0.076
26955SOL    HW282705   3.284   9.889   0.047
26956SOL     OW82706   0.611   8.698   4.169
26956SOL    HW182707   0.536   8.645   4.141
26956SOL    HW282708   0.571   8.771   4.216
26957SOL     OW82709   4.825   4.915   3.471
26957SOL    HW182710   4.747   4.877   3.510
26957SOL    HW282711   4.891   4.846   3.477
26958SOL     OW82712   9.378   6.352   8.248
26958SOL    HW182713   9.295   6.378   8.288
26958SOL    HW282714   9.420   6.435   8.225
26959SOL     OW82715   5.911   1.851   4.625
26959SOL    HW182716   5.910   1.922   4.560
26959SOL    HW282717   5.931   1.773   4.574
26960SOL     OW82718   6.097  13.066   1.541
26960SOL    HW182719   6.098  13.058   1.445
26960SOL    HW282720   6.157  12.998   1.571
26961SOL     OW82721   2.528  10.920   3.962
26961SOL    HW182722   2.517  11.014   3.971
26961SOL    HW282723   2.623  10.906   3.966
26962SOL     OW82724   0.798   4.416  11.347
26962SOL    HW182725   0.800   4.391  11.255
26962SOL    HW282726   0.884   4.390  11.381
26963SOL     OW82727   7.933   8.577   5.647
26963SOL    HW182728   7.941   8.535   5.733
26963SOL    HW282729   7.955   8.669   5.664
26964SOL     OW82730   5.517  10.437   9.559
26964SOL    HW182731   5.503  10.343   9.573
26964SOL    HW282732   5.563  10.442   9.476
26965SOL     OW82733   2.338   9.615  12.512
26965SOL    HW182734   2.306   9.699  12.479
26965SOL    HW282735   2.417   9.637  12.561
26966SOL     OW82736   8.959   8.467   1.990
26966SOL    HW182737   8.921   8.452   2.077
26966SOL    HW282738   8.907   8.537   1.953
26967SOL     OW82739   0.243  10.639   3.756
26967SOL    HW182740   0.167  10.696   3.761
26967SOL    HW282741   0.225  10.568   3.818
26968SOL     OW82742   8.731   6.919  12.998
26968SOL    HW182743   8.772   6.954  12.919
26968SOL    HW282744   8.644   6.960  13.000
26969SOL     OW82745   0.362  14.773  10.173
26969SOL    HW182746   0.305  14.785  10.249
26969SOL    HW282747   0.348  14.682  10.146
26970SOL     OW82748  14.077  10.374  14.451
26970SOL    HW182749  14.136  10.407  14.518
26970SOL    HW282750  14.109  10.286  14.431
26971SOL     OW82751  14.818   9.931   6.571
26971SOL    HW182752  14.826   9.876   6.648
26971SOL    HW282753  14.763   9.880   6.511
26972SOL     OW82754  14.582  13.900   4.548
26972SOL    HW182755  14.487  13.913   4.556
26972SOL    HW282756  14.597  13.892   4.454
26973SOL     OW82757   3.979   9.764   5.852
26973SOL    HW182758   3.965   9.735   5.942
26973SOL    HW282759   3.956   9.688   5.798
26974SOL     OW82760  14.704   6.515  14.565
26974SOL    HW182761  14.677   6.604  14.589
26974SOL    HW282762  14.657   6.498  14.483
26975SOL     OW82763   7.429   4.434   6.523
26975SOL    HW182764   7.499   4.489   6.559
26975SOL    HW282765   7.366   4.496   6.487
26976SOL     OW82766  11.965  13.359   3.405
26976SOL    HW182767  11.879  13.397   3.388
26976SOL    HW282768  11.948  13.267   3.423
26977SOL     OW82769   9.303  11.436   9.237
26977SOL    HW182770   9.231  11.475   9.188
26977SOL    HW282771   9.261  11.387   9.307
26978SOL     OW82772   8.673   5.202  12.620
26978SOL    HW182773   8.627   5.278  12.585
26978SOL    HW282774   8.637   5.128  12.571
26979SOL     OW82775   0.636  14.166  10.709
26979SOL    HW182776   0.586  14.173  10.790
26979SOL    HW282777   0.616  14.246  10.661
26980SOL     OW82778  11.091  10.305  14.440
26980SOL    HW182779  11.180  10.293  14.471
26980SOL    HW282780  11.091  10.272  14.350
26981SOL     OW82781  12.271   7.663  14.630
26981SOL    HW182782  12.332   7.592  14.610
26981SOL    HW282783  12.241   7.694  14.545
26982SOL     OW82784   1.004   6.535   4.657
26982SOL    HW182785   0.924   6.504   4.613
26982SOL    HW282786   1.011   6.627   4.633
26983SOL     OW82787   7.095  12.317   1.006
26983SOL    HW182788   7.078  12.409   0.987
26983SOL    HW282789   7.190  12.310   1.010
26984SOL     OW82790   7.430   7.482   3.117
26984SOL    HW182791   7.467   7.477   3.205
26984SOL    HW282792   7.404   7.574   3.107
26985SOL     OW82793   9.970  14.430   4.761
26985SOL    HW182794   9.925  14.467   4.685
26985SOL    HW282795   9.917  14.354   4.785
26986SOL     OW82796   4.142   0.298   1.665
26986SOL    HW182797   4.132   0.320   1.572
26986SOL    HW282798   4.054   0.307   1.701
26987SOL     OW82799   5.228   9.732   3.319
26987SOL    HW182800   5.154   9.736   3.258
26987SOL    HW282801   5.269   9.819   3.314
26988SOL     OW82802  10.730   0.482   1.720
26988SOL    HW182803  10.709   0.389   1.711
26988SOL    HW282804  10.646   0.524   1.741
26989SOL     OW82805   4.630  12.221   3.654
26989SOL    HW182806   4.626  12.296   3.714
26989SOL    HW282807   4.683  12.156   3.701
26990SOL     OW82808  10.573   7.545  11.277
26990SOL    HW182809  10.526   7.523  11.196
26990SOL    HW282810  10.632   7.472  11.292
26991SOL     OW82811   3.732   3.783   6.785
26991SOL    HW182812   3.752   3.877   6.787
26991SOL    HW282813   3.778   3.747   6.861
26992SOL     OW82814   5.025   8.751  10.746
26992SOL    HW182815   5.048   8.749  10.653
26992SOL    HW282816   4.990   8.663  10.763
26993SOL     OW82817   2.424   5.965  14.809
26993SOL    HW182818   2.411   6.055  14.780
26993SOL    HW282819   2.357   5.951  14.876
26994SOL     OW82820   4.402   9.843  14.075
26994SOL    HW182821   4.473   9.840  14.010
26994SOL    HW282822   4.402   9.934  14.105
26995SOL     OW82823   1.142  14.610   3.777
26995SOL    HW182824   1.233  14.627   3.750
26995SOL    HW282825   1.138  14.638   3.868
26996SOL     OW82826   1.875   9.817  11.887
26996SOL    HW182827   1.827   9.835  11.968
26996SOL    HW282828   1.832   9.740  11.850
26997SOL     OW82829  12.726   0.782  11.253
26997SOL    HW182830  12.675   0.837  11.313
26997SOL    HW282831  12.751   0.840  11.182
26998SOL     OW82832   1.604   9.013  11.896
26998SOL    HW182833   1.578   8.984  11.808
26998SOL    HW282834   1.581   8.939  11.953
26999SOL     OW82835   5.050   5.627   5.405
26999SOL    HW182836   5.082   5.631   5.314
26999SOL    HW282837   5.068   5.538   5.433
27000SOL     OW82838   3.968   5.992   9.452
27000SOL    HW182839   4.003   5.969   9.366
27000SOL    HW282840   3.939   5.909   9.490
27001SOL     OW82841   4.496   2.780   2.015
27001SOL    HW182842   4.527   2.737   1.936
27001SOL    HW282843   4.570   2.834   2.044
27002SOL     OW82844   1.277  13.345   2.194
27002SOL    HW182845   1.269  13.328   2.288
27002SOL    HW282846   1.297  13.259   2.157
27003SOL     OW82847   3.538  12.925   5.135
27003SOL    HW182848   3.527  12.915   5.229
27003SOL    HW282849   3.614  12.984   5.126
27004SOL     OW82850   0.981   5.645   9.656
27004SOL    HW182851   0.994   5.607   9.743
27004SOL    HW282852   0.907   5.598   9.620
27005SOL     OW82853  10.787   7.238   3.208
27005SOL    HW182854  10.808   7.146   3.225
27005SOL    HW282855  10.819   7.284   3.285
27006SOL     OW82856  11.138   9.777   7.189
27006SOL    HW182857  11.119   9.699   7.137
27006SOL    HW282858  11.054   9.803   7.226
27007SOL     OW82859   1.997   9.228   9.599
27007SOL    HW182860   1.988   9.307   9.651
27007SOL    HW282861   2.080   9.189   9.628
27008SOL     OW82862   3.595   8.740   7.564
27008SOL    HW182863   3.607   8.729   7.659
27008SOL    HW282864   3.677   8.777   7.534
27009SOL     OW82865  10.337   7.469  14.311
27009SOL    HW182866  10.286   7.490  14.389
27009SOL    HW282867  10.421   7.438  14.345
27010SOL     OW82868  14.523   1.650   6.357
27010SOL    HW182869  14.470   1.702   6.297
27010SOL    HW282870  14.467   1.635   6.433
27011SOL     OW82871  12.172  12.861   2.993
27011SOL    HW182872  12.255  12.834   3.031
27011SOL    HW282873  12.195  12.934   2.935
27012SOL     OW82874   4.502   6.279   3.169
27012SOL    HW182875   4.531   6.297   3.258
27012SOL    HW282876   4.428   6.219   3.179
27013SOL     OW82877  11.401   3.279  13.765
27013SOL    HW182878  11.356   3.261  13.847
27013SOL    HW282879  11.432   3.369  13.774
27014SOL     OW82880  11.632   1.774  10.059
27014SOL    HW182881  11.684   1.763  10.139
27014SOL    HW282882  11.693   1.758   9.988
27015SOL     OW82883   2.443  10.260   5.039
27015SOL    HW182884   2.494  10.304   5.107
27015SOL    HW282885   2.477  10.170   5.038
27016SOL     OW82886   1.570  10.435   3.640
27016SOL    HW182887   1.482  10.411   3.610
27016SOL    HW282888   1.555  10.490   3.717
27017SOL     OW82889   1.257   4.981   5.156
27017SOL    HW182890   1.259   4.922   5.231
27017SOL    HW282891   1.273   4.925   5.081
27018SOL     OW82892   7.573   7.287   3.587
27018SOL    HW182893   7.582   7.192   3.586
27018SOL    HW282894   7.581   7.311   3.679
27019SOL     OW82895   9.331  10.757  12.485
27019SOL    HW182896   9.414  10.796  12.511
27019SOL    HW282897   9.270  10.830  12.481
27020SOL     OW82898  11.475   9.117   3.213
27020SOL    HW182899  11.518   9.047   3.261
27020SOL    HW282900  11.382   9.093   3.213
27021SOL     OW82901  10.937   7.370   8.804
27021SOL    HW182902  10.971   7.329   8.884
27021SOL    HW282903  10.856   7.322   8.786
27022SOL     OW82904  12.526  13.112   2.381
27022SOL    HW182905  12.587  13.045   2.349
27022SOL    HW282906  12.486  13.148   2.302
27023SOL     OW82907  14.322  11.223   7.401
27023SOL    HW182908  14.286  11.149   7.352
27023SOL    HW282909  14.287  11.212   7.489
27024SOL     OW82910   4.138   3.290   8.954
27024SOL    HW182911   4.207   3.227   8.974
27024SOL    HW282912   4.186   3.366   8.918
27025SOL     OW82913  14.842   1.901  13.915
27025SOL    HW182914  14.806   1.920  14.002
27025SOL    HW282915   0.003   1.984  13.888
27026SOL     OW82916   9.073   6.235  10.429
27026SOL    HW182917   9.095   6.171  10.497
27026SOL    HW282918   9.142   6.225  10.364
27027SOL     OW82919   9.023  11.517   0.425
27027SOL    HW182920   9.007  11.444   0.365
27027SOL    HW282921   8.940  11.565   0.426
27028SOL     OW82922   3.946   1.754   9.445
27028SOL    HW182923   3.977   1.802   9.522
27028SOL    HW282924   4.023   1.744   9.389
27029SOL     OW82925  13.250   8.200   5.838
27029SOL    HW182926  13.162   8.205   5.800
27029SOL    HW282927  13.243   8.133   5.906
27030SOL     OW82928  13.693   4.802   4.677
27030SOL    HW182929  13.613   4.780   4.630
27030SOL    HW282930  13.664   4.822   4.766
27031SOL     OW82931  12.092   8.089   3.904
27031SOL    HW182932  12.147   8.133   3.839
27031SOL    HW282933  12.003   8.103   3.872
27032SOL     OW82934   4.529   3.825  13.175
27032SOL    HW182935   4.453   3.810  13.118
27032SOL    HW282936   4.584   3.747  13.163
27033SOL     OW82937  10.817   0.271  12.535
27033SOL    HW182938  10.770   0.221  12.468
27033SOL    HW282939  10.819   0.213  12.611
27034SOL     OW82940   3.335  11.605  12.365
27034SOL    HW182941   3.281  11.602  12.285
27034SOL    HW282942   3.387  11.685  12.355
27035SOL     OW82943   0.155   6.586   7.451
27035SOL    HW182944   0.213   6.647   7.405
27035SOL    HW282945   0.122   6.636   7.526
27036SOL     OW82946   2.381  14.594   9.971
27036SOL    HW182947   2.463  14.586   9.923
27036SOL    HW282948   2.349  14.682   9.950
27037SOL     OW82949  12.848   9.756   7.640
27037SOL    HW182950  12.919   9.784   7.583
27037SOL    HW282951  12.768   9.773   7.590
27038SOL     OW82952   1.531   7.051   4.546
27038SOL    HW182953   1.478   6.978   4.577
27038SOL    HW282954   1.492   7.075   4.462
27039SOL     OW82955   5.211  14.123  11.381
27039SOL    HW182956   5.252  14.201  11.419
27039SOL    HW282957   5.186  14.151  11.293
27040SOL     OW82958   5.022   5.521   1.046
27040SOL    HW182959   4.979   5.526   1.132
27040SOL    HW282960   5.069   5.604   1.039
27041SOL     OW82961   3.258   8.166   8.607
27041SOL    HW182962   3.164   8.179   8.619
27041SOL    HW282963   3.264   8.111   8.529
27042SOL     OW82964   8.813   8.085   9.340
27042SOL    HW182965   8.800   8.060   9.249
27042SOL    HW282966   8.734   8.135   9.363
27043SOL     OW82967   5.560   7.593  11.529
27043SOL    HW182968   5.481   7.542  11.511
27043SOL    HW282969   5.557   7.666  11.466
27044SOL     OW82970  12.599   1.592   4.131
27044SOL    HW182971  12.558   1.520   4.084
27044SOL    HW282972  12.616   1.658   4.064
27045SOL     OW82973  10.572  10.188   3.803
27045SOL    HW182974  10.654  10.198   3.754
27045SOL    HW282975  10.562  10.094   3.815
27046SOL     OW82976   3.980  13.707  13.208
27046SOL    HW182977   3.941  13.730  13.292
27046SOL    HW282978   3.910  13.721  13.144
27047SOL     OW82979   2.654   0.967   9.542
27047SOL    HW182980   2.734   1.013   9.566
27047SOL    HW282981   2.601   0.970   9.622
27048SOL     OW82982   1.921  11.601   3.517
27048SOL    HW182983   1.939  11.508   3.527
27048SOL    HW282984   1.853  11.605   3.450
27049SOL     OW82985   1.572  13.172   6.978
27049SOL    HW182986   1.541  13.236   7.042
27049SOL    HW282987   1.597  13.223   6.902
27050SOL     OW82988   0.888   1.828   7.282
27050SOL    HW182989   0.807   1.842   7.232
27050SOL    HW282990   0.958   1.848   7.220
27051SOL     OW82991   1.854   0.654   0.678
27051SOL    HW182992   1.911   0.651   0.755
27051SOL    HW282993   1.833   0.747   0.668
27052SOL     OW82994   0.423   6.310  14.252
27052SOL    HW182995   0.423   6.298  14.347
27052SOL    HW282996   0.452   6.225  14.217
27053SOL     OW82997  11.115   5.498   1.979
27053SOL    HW182998  11.150   5.470   1.895
27053SOL    HW282999  11.153   5.585   1.993
27054SOL     OW83000   4.933  10.567   1.772
27054SOL    HW183001   4.936  10.482   1.729
27054SOL    HW283002   4.872  10.619   1.720
27055SOL     OW83003   0.341  11.473   1.742
27055SOL    HW183004   0.359  11.512   1.828
27055SOL    HW283005   0.300  11.543   1.692
27056SOL     OW83006   7.633   2.132   1.117
27056SOL    HW183007   7.599   2.058   1.169
27056SOL    HW283008   7.725   2.139   1.143
27057SOL     OW83009   1.917   8.275   4.955
27057SOL    HW183010   1.906   8.284   4.861
27057SOL    HW283011   2.012   8.271   4.968
27058SOL     OW83012   5.792   7.220  12.398
27058SOL    HW183013   5.772   7.308  12.366
27058SOL    HW283014   5.812   7.232  12.491
27059SOL     OW83015  12.491  12.384   7.153
27059SOL    HW183016  12.438  12.381   7.073
27059SOL    HW283017  12.429  12.407   7.222
27060SOL     OW83018  10.135  13.040   6.083
27060SOL    HW183019  10.079  13.086   6.146
27060SOL    HW283020  10.222  13.078   6.096
27061SOL     OW83021  13.306   9.144  14.459
27061SOL    HW183022  13.291   9.231  14.420
27061SOL    HW283023  13.280   9.083  14.391
27062SOL     OW83024   9.412   0.141   0.832
27062SOL    HW183025   9.481   0.179   0.887
27062SOL    HW283026   9.362   0.086   0.892
27063SOL     OW83027  13.772  11.921   5.884
27063SOL    HW183028  13.710  11.982   5.843
27063SOL    HW283029  13.806  11.869   5.811
27064SOL     OW83030   0.764   8.997  13.823
27064SOL    HW183031   0.679   8.984  13.866
27064SOL    HW283032   0.765   8.932  13.752
27065SOL     OW83033   3.223   5.703   7.685
27065SOL    HW183034   3.163   5.744   7.747
27065SOL    HW283035   3.174   5.630   7.648
27066SOL     OW83036  14.671  14.598   1.805
27066SOL    HW183037  14.704  14.606   1.894
27066SOL    HW283038  14.744  14.627   1.750
27067SOL     OW83039   6.640   7.096   2.995
27067SOL    HW183040   6.689   7.055   2.924
27067SOL    HW283041   6.555   7.118   2.956
27068SOL     OW83042   0.626   6.040   1.101
27068SOL    HW183043   0.652   6.094   1.175
27068SOL    HW283044   0.700   6.047   1.040
27069SOL     OW83045   8.955  11.612   5.583
27069SOL    HW183046   8.890  11.668   5.624
27069SOL    HW283047   8.984  11.661   5.506
27070SOL     OW83048   6.300   6.264  10.223
27070SOL    HW183049   6.333   6.261  10.313
27070SOL    HW283050   6.308   6.356  10.198
27071SOL     OW83051   4.843   5.449  13.290
27071SOL    HW183052   4.892   5.513  13.238
27071SOL    HW283053   4.906   5.415  13.353
27072SOL     OW83054  13.732  12.638   9.627
27072SOL    HW183055  13.810  12.596   9.591
27072SOL    HW283056  13.689  12.678   9.551
27073SOL     OW83057   0.677   9.606   4.427
27073SOL    HW183058   0.672   9.534   4.490
27073SOL    HW283059   0.587   9.621   4.400
27074SOL     OW83060   0.155  12.973   1.644
27074SOL    HW183061   0.161  13.054   1.593
27074SOL    HW283062   0.068  12.939   1.623
27075SOL     OW83063  10.706   9.332   1.025
27075SOL    HW183064  10.731   9.385   0.949
27075SOL    HW283065  10.698   9.243   0.991
27076SOL     OW83066   9.673  13.400  13.758
27076SOL    HW183067   9.708  13.316  13.728
27076SOL    HW283068   9.745  13.439  13.809
27077SOL     OW83069   7.096   3.894   3.635
27077SOL    HW183070   7.118   3.949   3.710
27077SOL    HW283071   7.167   3.830   3.630
27078SOL     OW83072  12.272  10.787  10.358
27078SOL    HW183073  12.348  10.744  10.321
27078SOL    HW283074  12.300  10.877  10.374
27079SOL     OW83075  13.321   1.452   6.524
27079SOL    HW183076  13.415   1.434   6.521
27079SOL    HW283077  13.300   1.489   6.439
27080SOL     OW83078   2.534   2.358   9.021
27080SOL    HW183079   2.444   2.340   9.050
27080SOL    HW283080   2.589   2.306   9.078
27081SOL     OW83081  13.036   4.917   7.917
27081SOL    HW183082  12.978   4.850   7.880
27081SOL    HW283083  12.990   4.999   7.903
27082SOL     OW83084  10.627   3.063   1.873
27082SOL    HW183085  10.660   2.983   1.834
27082SOL    HW283086  10.577   3.034   1.950
27083SOL     OW83087   2.562  12.608   7.608
27083SOL    HW183088   2.497  12.622   7.677
27083SOL    HW283089   2.533  12.528   7.564
27084SOL     OW83090   4.721   0.389   7.856
27084SOL    HW183091   4.805   0.421   7.890
27084SOL    HW283092   4.657   0.454   7.886
27085SOL     OW83093   8.506  11.559   0.053
27085SOL    HW183094   8.477  11.507  14.858
27085SOL    HW283095   8.487  11.649   0.029
27086SOL     OW83096  13.544   1.253   4.996
27086SOL    HW183097  13.564   1.271   5.087
27086SOL    HW283098  13.629   1.255   4.951
27087SOL     OW83099   1.869   1.143   6.872
27087SOL    HW183100   1.944   1.201   6.869
27087SOL    HW283101   1.819   1.171   6.949
27088SOL     OW83102  11.029  12.178  12.602
27088SOL    HW183103  10.988  12.229  12.671
27088SOL    HW283104  11.004  12.221  12.521
27089SOL     OW83105   4.220   5.465   7.980
27089SOL    HW183106   4.181   5.537   7.932
27089SOL    HW283107   4.314   5.482   7.977
27090SOL     OW83108   7.948  10.729  13.288
27090SOL    HW183109   7.907  10.752  13.205
27090SOL    HW283110   7.963  10.813  13.332
27091SOL     OW83111   2.861  13.767  12.917
27091SOL    HW183112   2.846  13.716  12.838
27091SOL    HW283113   2.831  13.855  12.895
27092SOL     OW83114   7.500   3.979  11.750
27092SOL    HW183115   7.567   3.990  11.818
27092SOL    HW283116   7.548   3.989  11.668
27093SOL     OW83117   0.049   9.621   4.761
27093SOL    HW183118   0.136   9.647   4.729
27093SOL    HW283119   0.061   9.533   4.794
27094SOL     OW83120   3.290   9.573  12.700
27094SOL    HW183121   3.213   9.545  12.650
27094SOL    HW283122   3.354   9.595  12.633
27095SOL     OW83123   9.285   2.266  13.739
27095SOL    HW183124   9.352   2.271  13.807
27095SOL    HW283125   9.327   2.301  13.661
27096SOL     OW83126  12.916   2.898  13.830
27096SOL    HW183127  13.011   2.896  13.832
27096SOL    HW283128  12.892   2.844  13.755
27097SOL     OW83129   2.204   2.763  13.906
27097SOL    HW183130   2.247   2.692  13.953
27097SOL    HW283131   2.125   2.722  13.869
27098SOL     OW83132   4.910   4.250   4.402
27098SOL    HW183133   4.960   4.330   4.384
27098SOL    HW283134   4.846   4.276   4.468
27099SOL     OW83135   1.933  11.096   6.350
27099SOL    HW183136   1.880  11.021   6.325
27099SOL    HW283137   1.906  11.166   6.291
27100SOL     OW83138   0.604   7.058   1.896
27100SOL    HW183139   0.627   7.038   1.986
27100SOL    HW283140   0.547   6.987   1.869
27101SOL     OW83141  12.488   0.153   8.406
27101SOL    HW183142  12.476   0.196   8.491
27101SOL    HW283143  12.565   0.097   8.418
27102SOL     OW83144   6.644   9.115  13.834
27102SOL    HW183145   6.572   9.075  13.784
27102SOL    HW283146   6.687   9.042  13.878
27103SOL     OW83147   5.163   5.230  10.380
27103SOL    HW183148   5.121   5.263  10.301
27103SOL    HW283149   5.256   5.248  10.368
27104SOL     OW83150  10.422   4.775   1.788
27104SOL    HW183151  10.375   4.838   1.734
27104SOL    HW283152  10.484   4.828   1.838
27105SOL     OW83153   1.196   1.007  11.003
27105SOL    HW183154   1.247   1.083  10.976
27105SOL    HW283155   1.146   1.038  11.079
27106SOL     OW83156   0.241  14.822  14.142
27106SOL    HW183157   0.300   0.003  14.185
27106SOL    HW283158   0.172  14.878  14.105
27107SOL     OW83159  14.197  13.127   5.061
27107SOL    HW183160  14.122  13.068   5.061
27107SOL    HW283161  14.262  13.083   5.006
27108SOL     OW83162   1.347   8.741   6.888
27108SOL    HW183163   1.317   8.753   6.978
27108SOL    HW283164   1.437   8.711   6.896
27109SOL     OW83165   0.982   4.965   3.591
27109SOL    HW183166   0.992   4.966   3.496
27109SOL    HW283167   1.056   4.912   3.622
27110SOL     OW83168   0.032   7.554   7.427
27110SOL    HW183169  14.873   7.638   7.403
27110SOL    HW283170  14.838   7.500   7.455
27111SOL     OW83171   7.090  13.297  14.199
27111SOL    HW183172   7.036  13.229  14.161
27111SOL    HW283173   7.179  13.275  14.173
27112SOL     OW83174   5.265   5.857   3.263
27112SOL    HW183175   5.356   5.831   3.279
27112SOL    HW283176   5.226   5.781   3.220
27113SOL     OW83177   6.309   8.876  12.183
27113SOL    HW183178   6.296   8.804  12.121
27113SOL    HW283179   6.268   8.845  12.263
27114SOL     OW83180   3.670   2.331   6.769
27114SOL    HW183181   3.583   2.291   6.764
27114SOL    HW283182   3.656   2.422   6.743
27115SOL     OW83183  10.233  10.536   9.065
27115SOL    HW183184  10.220  10.509   9.155
27115SOL    HW283185  10.297  10.474   9.030
27116SOL     OW83186  14.159   1.415   0.187
27116SOL    HW183187  14.098   1.365   0.241
27116SOL    HW283188  14.245   1.392   0.222
27117SOL     OW83189   2.645   5.795  14.819
27117SOL    HW183190   2.643   5.724  14.755
27117SOL    HW283191   2.571   5.851  14.795
27118SOL     OW83192  14.413   6.612   8.339
27118SOL    HW183193  14.328   6.598   8.380
27118SOL    HW283194  14.399   6.592   8.246
27119SOL     OW83195   6.418   5.416   1.688
27119SOL    HW183196   6.387   5.399   1.599
27119SOL    HW283197   6.458   5.503   1.684
27120SOL     OW83198   3.309   8.965   8.481
27120SOL    HW183199   3.221   8.928   8.483
27120SOL    HW283200   3.320   8.996   8.391
27121SOL     OW83201   4.873  13.492   9.868
27121SOL    HW183202   4.818  13.436   9.814
27121SOL    HW283203   4.955  13.443   9.878
27122SOL     OW83204   2.558  12.977  13.248
27122SOL    HW183205   2.489  12.921  13.285
27122SOL    HW283206   2.589  13.030  13.322
27123SOL     OW83207   9.276   9.736  14.118
27123SOL    HW183208   9.371   9.727  14.127
27123SOL    HW283209   9.262   9.829  14.102
27124SOL     OW83210  11.606  12.974   7.021
27124SOL    HW183211  11.597  13.025   6.940
27124SOL    HW283212  11.700  12.962   7.031
27125SOL     OW83213  12.883   5.554  10.260
27125SOL    HW183214  12.897   5.467  10.223
27125SOL    HW283215  12.803   5.545  10.311
27126SOL     OW83216   3.905   2.898   1.410
27126SOL    HW183217   3.916   2.992   1.423
27126SOL    HW283218   3.959   2.878   1.334
27127SOL     OW83219   0.108   8.563   1.478
27127SOL    HW183220   0.185   8.594   1.524
27127SOL    HW283221   0.071   8.496   1.536
27128SOL     OW83222   8.881   5.280  11.774
27128SOL    HW183223   8.808   5.304  11.715
27128SOL    HW283224   8.854   5.197  11.813
27129SOL     OW83225   6.001   4.879   2.092
27129SOL    HW183226   5.973   4.787   2.100
27129SOL    HW283227   5.938   4.927   2.146
27130SOL     OW83228  12.634  12.796  14.790
27130SOL    HW183229  12.666  12.885  14.776
27130SOL    HW283230  12.704  12.752  14.838
27131SOL     OW83231   9.185   2.690  10.724
27131SOL    HW183232   9.245   2.664  10.654
27131SOL    HW283233   9.200   2.784  10.734
27132SOL     OW83234  10.861  12.550  14.331
27132SOL    HW183235  10.839  12.636  14.369
27132SOL    HW283236  10.955  12.541  14.347
27133SOL     OW83237   2.736   5.689   5.525
27133SOL    HW183238   2.673   5.755   5.555
27133SOL    HW283239   2.682   5.621   5.485
27134SOL     OW83240   3.384   8.104   1.889
27134SOL    HW183241   3.371   8.108   1.984
27134SOL    HW283242   3.317   8.162   1.854
27135SOL     OW83243   5.085  13.396   3.842
27135SOL    HW183244   5.080  13.486   3.811
27135SOL    HW283245   5.065  13.402   3.936
27136SOL     OW83246  10.671   3.548   9.171
27136SOL    HW183247  10.622   3.478   9.128
27136SOL    HW283248  10.702   3.604   9.099
27137SOL     OW83249   9.130   9.568   5.906
27137SOL    HW183250   9.060   9.577   5.971
27137SOL    HW283251   9.109   9.487   5.859
27138SOL     OW83252   7.778  12.017  13.850
27138SOL    HW183253   7.800  11.974  13.932
27138SOL    HW283254   7.710  12.080  13.874
27139SOL     OW83255   7.572   0.844   0.796
27139SOL    HW183256   7.527   0.764   0.769
27139SOL    HW283257   7.502   0.909   0.805
27140SOL     OW83258   8.170   9.805   2.874
27140SOL    HW183259   8.194   9.712   2.871
27140SOL    HW283260   8.151   9.828   2.784
27141SOL     OW83261  13.694   3.822   3.099
27141SOL    HW183262  13.732   3.907   3.124
27141SOL    HW283263  13.612   3.845   3.054
27142SOL     OW83264   3.071   9.647   9.219
27142SOL    HW183265   3.146   9.675   9.166
27142SOL    HW283266   3.099   9.661   9.309
27143SOL     OW83267  14.444  10.783   9.152
27143SOL    HW183268  14.354  10.773   9.122
27143SOL    HW283269  14.484  10.697   9.138
27144SOL     OW83270   7.396  14.680   9.465
27144SOL    HW183271   7.335  14.742   9.425
27144SOL    HW283272   7.377  14.686   9.559
27145SOL     OW83273   8.845   2.928  13.613
27145SOL    HW183274   8.876   2.941  13.523
27145SOL    HW283275   8.806   2.841  13.613
27146SOL     OW83276   8.911  13.864   7.917
27146SOL    HW183277   8.835  13.907   7.957
27146SOL    HW283278   8.874  13.796   7.860
27147SOL     OW83279  13.893   1.910   0.300
27147SOL    HW183280  13.883   1.815   0.293
27147SOL    HW283281  13.812   1.946   0.266
27148SOL     OW83282   6.011  14.390  10.853
27148SOL    HW183283   6.104  14.385  10.835
27148SOL    HW283284   5.977  14.453  10.790
27149SOL     OW83285  10.493  13.275   2.157
27149SOL    HW183286  10.411  13.321   2.175
27149SOL    HW283287  10.556  13.346   2.139
27150SOL     OW83288  10.930  10.205   6.760
27150SOL    HW183289  10.849  10.235   6.718
27150SOL    HW283290  10.999  10.258   6.719
27151SOL     OW83291  10.221  12.842  10.264
27151SOL    HW183292  10.183  12.914  10.213
27151SOL    HW283293  10.308  12.874  10.289
27152SOL     OW83294   2.139   4.982  13.542
27152SOL    HW183295   2.182   4.898  13.559
27152SOL    HW283296   2.056   4.958  13.501
27153SOL     OW83297   2.781   2.240   3.137
27153SOL    HW183298   2.764   2.163   3.083
27153SOL    HW283299   2.852   2.286   3.092
27154SOL     OW83300   1.213   9.955  12.567
27154SOL    HW183301   1.280   9.950  12.635
27154SOL    HW283302   1.244  10.024  12.508
27155SOL     OW83303   4.238  12.229   9.458
27155SOL    HW183304   4.317  12.209   9.509
27155SOL    HW283305   4.272  12.267   9.377
27156SOL     OW83306   3.921   0.998   0.109
27156SOL    HW183307   3.912   1.025   0.018
27156SOL    HW283308   3.904   1.078   0.160
27157SOL     OW83309   4.372  10.922   0.717
27157SOL    HW183310   4.400  10.874   0.639
27157SOL    HW283311   4.278  10.906   0.723
27158SOL     OW83312   6.455   7.125   8.842
27158SOL    HW183313   6.441   7.172   8.924
27158SOL    HW283314   6.522   7.059   8.863
27159SOL     OW83315   2.132   4.621   7.953
27159SOL    HW183316   2.128   4.555   8.022
27159SOL    HW283317   2.110   4.703   7.997
27160SOL     OW83318  12.985  14.611  10.835
27160SOL    HW183319  12.898  14.645  10.812
27160SOL    HW283320  12.996  14.533  10.781
27161SOL     OW83321   9.168  13.288  13.026
27161SOL    HW183322   9.076  13.310  13.013
27161SOL    HW283323   9.171  13.246  13.112
27162SOL     OW83324   4.603  13.372  11.372
27162SOL    HW183325   4.642  13.287  11.395
27162SOL    HW283326   4.664  13.410  11.309
27163SOL     OW83327   6.059  10.489   1.681
27163SOL    HW183328   5.996  10.525   1.619
27163SOL    HW283329   6.116  10.433   1.628
27164SOL     OW83330   5.109   9.636   5.045
27164SOL    HW183331   5.134   9.592   5.127
27164SOL    HW283332   5.160   9.717   5.045
27165SOL     OW83333   7.361   8.179  13.011
27165SOL    HW183334   7.438   8.216  13.054
27165SOL    HW283335   7.362   8.086  13.036
27166SOL     OW83336  14.312  14.096   1.751
27166SOL    HW183337  14.295  14.046   1.672
27166SOL    HW283338  14.238  14.156   1.758
27167SOL     OW83339   6.516  12.378  10.255
27167SOL    HW183340   6.609  12.394  10.273
27167SOL    HW283341   6.472  12.459  10.281
27168SOL     OW83342   4.340   5.497  12.378
27168SOL    HW183343   4.287   5.576  12.368
27168SOL    HW283344   4.303   5.435  12.315
27169SOL     OW83345   2.149  11.713   7.175
27169SOL    HW183346   2.208  11.672   7.112
27169SOL    HW283347   2.126  11.797   7.136
27170SOL     OW83348   7.564   8.727  11.493
27170SOL    HW183349   7.548   8.822  11.487
27170SOL    HW283350   7.476   8.688  11.494
27171SOL     OW83351   4.792  10.611   8.703
27171SOL    HW183352   4.696  10.612   8.694
27171SOL    HW283353   4.806  10.609   8.798
27172SOL     OW83354   0.823   8.025   6.337
27172SOL    HW183355   0.836   7.944   6.286
27172SOL    HW283356   0.771   8.081   6.279
27173SOL     OW83357  14.123  12.052   2.274
27173SOL    HW183358  14.055  12.044   2.341
27173SOL    HW283359  14.116  12.143   2.243
27174SOL     OW83360   8.613   8.141  11.764
27174SOL    HW183361   8.598   8.150  11.858
27174SOL    HW283362   8.542   8.192  11.724
27175SOL     OW83363   2.365  10.581   3.876
27175SOL    HW183364   2.399  10.609   3.962
27175SOL    HW283365   2.329  10.660   3.837
27176SOL     OW83366   6.371  14.826  13.470
27176SOL    HW183367   6.460  14.830  13.433
27176SOL    HW283368   6.366   0.023  13.528
27177SOL     OW83369  14.804  11.554   2.912
27177SOL    HW183370   0.007  11.581   2.873
27177SOL    HW283371  14.775  11.479   2.860
27178SOL     OW83372  12.680   4.590   8.051
27178SOL    HW183373  12.651   4.523   8.113
27178SOL    HW283374  12.601   4.614   8.003
27179SOL     OW83375   8.430   5.150   6.508
27179SOL    HW183376   8.373   5.225   6.524
27179SOL    HW283377   8.500   5.159   6.573
27180SOL     OW83378   0.838   4.385   5.385
27180SOL    HW183379   0.782   4.457   5.356
27180SOL    HW283380   0.927   4.421   5.378
27181SOL     OW83381  13.779   1.784   8.296
27181SOL    HW183382  13.718   1.780   8.222
27181SOL    HW283383  13.734   1.838   8.361
27182SOL     OW83384   4.501   9.433   3.374
27182SOL    HW183385   4.552   9.351   3.375
27182SOL    HW283386   4.441   9.425   3.448
27183SOL     OW83387  12.510  12.580   0.667
27183SOL    HW183388  12.486  12.576   0.760
27183SOL    HW283389  12.434  12.618   0.624
27184SOL     OW83390   9.798   3.192   7.598
27184SOL    HW183391   9.849   3.113   7.613
27184SOL    HW283392   9.806   3.241   7.680
27185SOL     OW83393  10.714   6.734   0.427
27185SOL    HW183394  10.684   6.644   0.440
27185SOL    HW283395  10.771   6.752   0.502
27186SOL     OW83396  10.268  12.115   6.263
27186SOL    HW183397  10.204  12.167   6.214
27186SOL    HW283398  10.297  12.049   6.200
27187SOL     OW83399  13.059  11.085  13.862
27187SOL    HW183400  13.035  11.124  13.945
27187SOL    HW283401  13.035  10.992  13.871
27188SOL     OW83402   5.694  11.941   6.448
27188SOL    HW183403   5.760  11.960   6.382
27188SOL    HW283404   5.624  11.896   6.401
27189SOL     OW83405   4.813   2.361   7.122
27189SOL    HW183406   4.906   2.338   7.125
27189SOL    HW283407   4.802   2.408   7.040
27190SOL     OW83408   5.818   1.278   3.409
27190SOL    HW183409   5.803   1.207   3.346
27190SOL    HW283410   5.736   1.283   3.459
27191SOL     OW83411  12.909   9.015  13.726
27191SOL    HW183412  12.963   9.048  13.798
27191SOL    HW283413  12.851   9.089  13.705
27192SOL     OW83414   0.529   8.201  13.254
27192SOL    HW183415   0.459   8.225  13.194
27192SOL    HW283416   0.565   8.284  13.285
27193SOL     OW83417  12.840  12.392   3.935
27193SOL    HW183418  12.920  12.353   3.969
27193SOL    HW283419  12.774  12.376   4.002
27194SOL     OW83420  11.264   4.235   9.226
27194SOL    HW183421  11.247   4.304   9.291
27194SOL    HW283422  11.310   4.280   9.155
27195SOL     OW83423   3.554   8.829  14.264
27195SOL    HW183424   3.480   8.886  14.243
27195SOL    HW283425   3.532   8.791  14.349
27196SOL     OW83426  11.798   0.758   6.562
27196SOL    HW183427  11.715   0.728   6.599
27196SOL    HW283428  11.783   0.849   6.539
27197SOL     OW83429  12.554   5.571  11.346
27197SOL    HW183430  12.504   5.620  11.280
27197SOL    HW283431  12.607   5.510  11.295
27198SOL     OW83432   7.679  10.883   2.284
27198SOL    HW183433   7.658  10.792   2.304
27198SOL    HW283434   7.632  10.933   2.351
27199SOL     OW83435   7.133   4.409   1.310
27199SOL    HW183436   7.151   4.448   1.224
27199SOL    HW283437   7.044   4.376   1.304
27200SOL     OW83438  13.959  10.390   6.189
27200SOL    HW183439  13.866  10.401   6.169
27200SOL    HW283440  14.004  10.440   6.121
27201SOL     OW83441   8.824   9.766   0.788
27201SOL    HW183442   8.854   9.688   0.834
27201SOL    HW283443   8.888   9.778   0.718
27202SOL     OW83444   3.361   9.896   6.197
27202SOL    HW183445   3.379   9.837   6.270
27202SOL    HW283446   3.294   9.850   6.145
27203SOL     OW83447  12.701  13.847  14.583
27203SOL    HW183448  12.737  13.879  14.500
27203SOL    HW283449  12.654  13.923  14.619
27204SOL     OW83450   2.185   1.565  11.590
27204SOL    HW183451   2.090   1.567  11.601
27204SOL    HW283452   2.213   1.484  11.631
27205SOL     OW83453   8.116  13.584   6.175
27205SOL    HW183454   8.195  13.636   6.161
27205SOL    HW283455   8.132  13.502   6.128
27206SOL     OW83456   0.758  14.753   9.783
27206SOL    HW183457   0.681  14.696   9.785
27206SOL    HW283458   0.796  14.739   9.696
27207SOL     OW83459   5.680   6.563  14.072
27207SOL    HW183460   5.698   6.656  14.077
27207SOL    HW283461   5.736   6.524  14.140
27208SOL     OW83462  11.140  13.138  14.836
27208SOL    HW183463  11.081  13.150   0.030
27208SOL    HW283464  11.219  13.186  14.860
27209SOL     OW83465   2.782   7.883   1.311
27209SOL    HW183466   2.805   7.876   1.403
27209SOL    HW283467   2.838   7.819   1.267
27210SOL     OW83468   1.238   9.949  10.018
27210SOL    HW183469   1.148   9.917  10.009
27210SOL    HW283470   1.229  10.044  10.024
27211SOL     OW83471  12.251  13.300  10.473
27211SOL    HW183472  12.207  13.328  10.393
27211SOL    HW283473  12.341  13.282  10.446
27212SOL     OW83474   7.556   6.676   2.435
27212SOL    HW183475   7.626   6.627   2.392
27212SOL    HW283476   7.483   6.672   2.374
27213SOL     OW83477   8.709  11.917  11.895
27213SOL    HW183478   8.793  11.871  11.884
27213SOL    HW283479   8.733  12.009  11.903
27214SOL     OW83480   4.176  12.190   3.359
27214SOL    HW183481   4.241  12.208   3.428
27214SOL    HW283482   4.193  12.098   3.335
27215SOL     OW83483   6.421   1.912   3.031
27215SOL    HW183484   6.334   1.887   3.065
27215SOL    HW283485   6.418   2.007   3.025
27216SOL     OW83486  11.950   6.109   9.884
27216SOL    HW183487  11.914   6.045   9.823
27216SOL    HW283488  11.874   6.157   9.917
27217SOL     OW83489  12.028   5.022   5.499
27217SOL    HW183490  12.075   5.089   5.449
27217SOL    HW283491  11.946   5.009   5.452
27218SOL     OW83492   7.294  14.046   2.445
27218SOL    HW183493   7.225  14.093   2.492
27218SOL    HW283494   7.253  14.020   2.362
27219SOL     OW83495   9.726   5.916   8.826
27219SOL    HW183496   9.674   5.851   8.779
27219SOL    HW283497   9.685   6.000   8.804
27220SOL     OW83498  10.272   3.416   0.034
27220SOL    HW183499  10.211   3.390   0.103
27220SOL    HW283500  10.254   3.509   0.020
27221SOL     OW83501   0.841  13.419  11.345
27221SOL    HW183502   0.790  13.338  11.350
27221SOL    HW283503   0.929  13.393  11.371
27222SOL     OW83504   9.418  14.308  10.203
27222SOL    HW183505   9.388  14.217  10.198
27222SOL    HW283506   9.495  14.304  10.259
27223SOL     OW83507   2.293   4.294   7.439
27223SOL    HW183508   2.249   4.221   7.483
27223SOL    HW283509   2.230   4.323   7.373
27224SOL     OW83510   5.715   2.311   6.987
27224SOL    HW183511   5.633   2.359   6.977
27224SOL    HW283512   5.781   2.367   6.947
27225SOL     OW83513  10.317   3.420  12.214
27225SOL    HW183514  10.300   3.327  12.230
27225SOL    HW283515  10.249   3.446  12.152
27226SOL     OW83516  10.325   2.828   6.969
27226SOL    HW183517  10.270   2.854   7.043
27226SOL    HW283518  10.263   2.822   6.895
27227SOL     OW83519   0.535   1.985   1.195
27227SOL    HW183520   0.624   1.982   1.228
27227SOL    HW283521   0.520   1.898   1.157
27228SOL     OW83522  11.124   6.996   4.430
27228SOL    HW183523  11.151   7.023   4.341
27228SOL    HW283524  11.128   7.076   4.481
27229SOL     OW83525  14.078  13.509   8.501
27229SOL    HW183526  14.054  13.519   8.594
27229SOL    HW283527  14.165  13.549   8.496
27230SOL     OW83528  14.394  13.432   9.484
27230SOL    HW183529  14.419  13.506   9.429
27230SOL    HW283530  14.471  13.376   9.487
27231SOL     OW83531   1.684  12.161   6.347
27231SOL    HW183532   1.687  12.178   6.442
27231SOL    HW283533   1.756  12.099   6.331
27232SOL     OW83534   4.294  14.823   7.090
27232SOL    HW183535   4.215  14.790   7.133
27232SOL    HW283536   4.356  14.751   7.095
27233SOL     OW83537  10.520   2.388   7.973
27233SOL    HW183538  10.488   2.433   7.894
27233SOL    HW283539  10.485   2.441   8.045
27234SOL     OW83540   9.846   1.636   9.415
27234SOL    HW183541   9.793   1.654   9.493
27234SOL    HW283542   9.932   1.612   9.450
27235SOL     OW83543   4.363   7.384   3.379
27235SOL    HW183544   4.338   7.297   3.410
27235SOL    HW283545   4.396   7.370   3.290
27236SOL     OW83546   7.538  13.975  10.228
27236SOL    HW183547   7.568  14.065  10.242
27236SOL    HW283548   7.497  13.977  10.141
27237SOL     OW83549  10.214   7.356   5.339
27237SOL    HW183550  10.122   7.331   5.335
27237SOL    HW283551  10.234   7.388   5.251
27238SOL     OW83552  11.651   6.328   0.915
27238SOL    HW183553  11.650   6.357   0.824
27238SOL    HW283554  11.627   6.236   0.911
27239SOL     OW83555   9.399  12.499   6.682
27239SOL    HW183556   9.428  12.408   6.675
27239SOL    HW283557   9.459  12.537   6.747
27240SOL     OW83558  10.789   6.164   7.358
27240SOL    HW183559  10.863   6.216   7.388
27240SOL    HW283560  10.725   6.169   7.429
27241SOL     OW83561   8.287  14.585   5.156
27241SOL    HW183562   8.266  14.553   5.068
27241SOL    HW283563   8.315  14.676   5.142
27242SOL     OW83564  13.825   3.100   3.267
27242SOL    HW183565  13.766   3.147   3.208
27242SOL    HW283566  13.837   3.015   3.224
27243SOL     OW83567  12.517  10.554   8.930
27243SOL    HW183568  12.443  10.556   8.991
27243SOL    HW283569  12.526  10.645   8.902
27244SOL     OW83570   8.691   4.592  11.670
27244SOL    HW183571   8.771   4.597  11.723
27244SOL    HW283572   8.722   4.570  11.582
27245SOL     OW83573   1.443  10.755   3.912
27245SOL    HW183574   1.474  10.770   3.823
27245SOL    HW283575   1.459  10.662   3.927
27246SOL     OW83576   1.944   7.495   5.835
27246SOL    HW183577   2.010   7.533   5.777
27246SOL    HW283578   1.958   7.401   5.829
27247SOL     OW83579  12.885  11.649  14.233
27247SOL    HW183580  12.810  11.589  14.233
27247SOL    HW283581  12.868  11.708  14.160
27248SOL     OW83582   6.310   3.501   1.868
27248SOL    HW183583   6.319   3.581   1.817
27248SOL    HW283584   6.295   3.532   1.958
27249SOL     OW83585  13.724   5.712  14.796
27249SOL    HW183586  13.688   5.678  14.714
27249SOL    HW283587  13.819   5.709  14.783
27250SOL     OW83588   4.993   2.794   1.984
27250SOL    HW183589   5.003   2.736   1.909
27250SOL    HW283590   4.949   2.872   1.948
27251SOL     OW83591   2.976  12.627  11.325
27251SOL    HW183592   2.922  12.568  11.379
27251SOL    HW283593   2.978  12.585  11.239
27252SOL     OW83594   0.691  12.248   3.206
27252SOL    HW183595   0.656  12.320   3.154
27252SOL    HW283596   0.716  12.288   3.289
27253SOL     OW83597   5.648  12.406  13.446
27253SOL    HW183598   5.616  12.359  13.370
27253SOL    HW283599   5.739  12.377  13.457
27254SOL     OW83600   8.373   7.351   9.033
27254SOL    HW183601   8.322   7.273   9.054
27254SOL    HW283602   8.362   7.408   9.109
27255SOL     OW83603  13.209  13.900   2.603
27255SOL    HW183604  13.128  13.871   2.561
27255SOL    HW283605  13.279  13.875   2.542
27256SOL     OW83606   1.310   1.328  13.292
27256SOL    HW183607   1.330   1.357  13.203
27256SOL    HW283608   1.385   1.358  13.344
27257SOL     OW83609   4.292   2.063   9.847
27257SOL    HW183610   4.234   2.138   9.833
27257SOL    HW283611   4.310   2.030   9.759
27258SOL     OW83612   7.987   2.521   3.946
27258SOL    HW183613   7.917   2.463   3.975
27258SOL    HW283614   7.941   2.600   3.915
27259SOL     OW83615   6.616   3.354   4.152
27259SOL    HW183616   6.643   3.428   4.206
27259SOL    HW283617   6.523   3.343   4.172
27260SOL     OW83618   7.473  13.392   6.987
27260SOL    HW183619   7.433  13.326   7.044
27260SOL    HW283620   7.407  13.408   6.919
27261SOL     OW83621   0.335  13.597   0.899
27261SOL    HW183622   0.313  13.654   0.825
27261SOL    HW283623   0.327  13.654   0.976
27262SOL     OW83624  12.124  10.352   0.479
27262SOL    HW183625  12.194  10.403   0.437
27262SOL    HW283626  12.165  10.313   0.556
27263SOL     OW83627  10.724  11.588   6.068
27263SOL    HW183628  10.806  11.618   6.107
27263SOL    HW283629  10.750  11.519   6.007
27264SOL     OW83630   6.582   2.304  10.988
27264SOL    HW183631   6.513   2.347  10.939
27264SOL    HW283632   6.664   2.336  10.949
27265SOL     OW83633   6.205   3.228   7.494
27265SOL    HW183634   6.241   3.306   7.536
27265SOL    HW283635   6.259   3.215   7.416
27266SOL     OW83636  12.073   3.583  13.001
27266SOL    HW183637  12.053   3.663  12.953
27266SOL    HW283638  12.169   3.577  13.000
27267SOL     OW83639   6.773   4.199   6.566
27267SOL    HW183640   6.797   4.192   6.658
27267SOL    HW283641   6.747   4.110   6.541
27268SOL     OW83642   1.516  11.390   5.383
27268SOL    HW183643   1.473  11.447   5.447
27268SOL    HW283644   1.483  11.302   5.404
27269SOL     OW83645  13.163   1.857   5.669
27269SOL    HW183646  13.159   1.904   5.585
27269SOL    HW283647  13.251   1.876   5.703
27270SOL     OW83648   5.372  11.421   6.779
27270SOL    HW183649   5.426  11.422   6.859
27270SOL    HW283650   5.283  11.438   6.810
27271SOL     OW83651   1.909  12.736   0.482
27271SOL    HW183652   1.913  12.799   0.555
27271SOL    HW283653   1.853  12.665   0.515
27272SOL     OW83654   6.922   1.250  12.347
27272SOL    HW183655   6.956   1.339  12.348
27272SOL    HW283656   6.947   1.216  12.261
27273SOL     OW83657   3.625   7.685  11.468
27273SOL    HW183658   3.580   7.636  11.537
27273SOL    HW283659   3.584   7.655  11.387
27274SOL     OW83660   5.337   9.411  11.040
27274SOL    HW183661   5.404   9.448  11.098
27274SOL    HW283662   5.337   9.469  10.964
27275SOL     OW83663   4.603   0.700  13.085
27275SOL    HW183664   4.687   0.660  13.063
27275SOL    HW283665   4.544   0.672  13.015
27276SOL     OW83666   7.053  13.288   1.694
27276SOL    HW183667   6.981  13.350   1.703
27276SOL    HW283668   7.112  13.308   1.767
27277SOL     OW83669   5.335   6.231  13.705
27277SOL    HW183670   5.411   6.221  13.763
27277SOL    HW283671   5.281   6.155  13.724
27278SOL     OW83672   2.676   9.428  13.741
27278SOL    HW183673   2.763   9.423  13.703
27278SOL    HW283674   2.669   9.350  13.796
27279SOL     OW83675   0.735   5.404   6.719
27279SOL    HW183676   0.796   5.336   6.746
27279SOL    HW283677   0.651   5.377   6.757
27280SOL     OW83678   9.141  10.802  11.584
27280SOL    HW183679   9.143  10.754  11.502
27280SOL    HW283680   9.057  10.848  11.584
27281SOL     OW83681   4.860  11.489  10.907
27281SOL    HW183682   4.784  11.547  10.908
27281SOL    HW283683   4.837  11.421  10.844
27282SOL     OW83684   0.175   4.259   5.685
27282SOL    HW183685   0.220   4.307   5.754
27282SOL    HW283686   0.091   4.233   5.723
27283SOL     OW83687  11.414   6.065  11.462
27283SOL    HW183688  11.460   6.079  11.544
27283SOL    HW283689  11.365   5.984  11.475
27284SOL     OW83690   4.640  10.125   5.951
27284SOL    HW183691   4.554  10.167   5.949
27284SOL    HW283692   4.700  10.195   5.976
27285SOL     OW83693   3.250   6.694  10.058
27285SOL    HW183694   3.308   6.691   9.981
27285SOL    HW283695   3.163   6.676  10.023
27286SOL     OW83696  10.229  12.550  10.281
27286SOL    HW183697  10.193  12.631  10.245
27286SOL    HW283698  10.300  12.578  10.339
27287SOL     OW83699   3.317   8.540  13.807
27287SOL    HW183700   3.294   8.451  13.834
27287SOL    HW283701   3.410   8.548  13.831
27288SOL     OW83702   2.937  11.376  14.089
27288SOL    HW183703   2.992  11.399  14.014
27288SOL    HW283704   2.847  11.389  14.057
27289SOL     OW83705  11.098   4.519   0.058
27289SOL    HW183706  11.128   4.512   0.148
27289SOL    HW283707  11.160   4.580   0.017
27290SOL     OW83708  11.212   4.114  11.158
27290SOL    HW183709  11.253   4.198  11.179
27290SOL    HW283710  11.133   4.137  11.110
27291SOL     OW83711   4.367   0.029  10.618
27291SOL    HW183712   4.288   0.083  10.630
27291SOL    HW283713   4.437   0.093  10.606
27292SOL     OW83714   9.825  10.608   6.171
27292SOL    HW183715   9.898  10.548   6.160
27292SOL    HW283716   9.812  10.647   6.085
27293SOL     OW83717   8.196   3.748  13.096
27293SOL    HW183718   8.188   3.664  13.141
27293SOL    HW283719   8.246   3.802  13.157
27294SOL     OW83720   5.259   6.595   1.284
27294SOL    HW183721   5.239   6.668   1.343
27294SOL    HW283722   5.216   6.519   1.324
27295SOL     OW83723   0.756   9.840  14.757
27295SOL    HW183724   0.839   9.874  14.789
27295SOL    HW283725   0.690   9.879  14.816
27296SOL     OW83726   5.799   5.968   4.080
27296SOL    HW183727   5.741   6.038   4.109
27296SOL    HW283728   5.833   5.998   3.995
27297SOL     OW83729   5.399  11.650  11.329
27297SOL    HW183730   5.472  11.659  11.390
27297SOL    HW283731   5.328  11.615  11.383
27298SOL     OW83732   4.806  14.209   3.035
27298SOL    HW183733   4.887  14.261   3.036
27298SOL    HW283734   4.736  14.272   3.049
27299SOL     OW83735   2.994   9.531   2.423
27299SOL    HW183736   3.077   9.578   2.426
27299SOL    HW283737   3.018   9.441   2.403
27300SOL     OW83738   2.636   7.126  10.508
27300SOL    HW183739   2.557   7.080  10.481
27300SOL    HW283740   2.610   7.219  10.509
27301SOL     OW83741  11.477   4.583  10.077
27301SOL    HW183742  11.561   4.613  10.041
27301SOL    HW283743  11.425   4.563   9.999
27302SOL     OW83744   4.425   0.125  14.527
27302SOL    HW183745   4.353   0.131  14.591
27302SOL    HW283746   4.383   0.138  14.442
27303SOL     OW83747   7.874   3.025   7.123
27303SOL    HW183748   7.781   3.042   7.135
27303SOL    HW283749   7.880   2.983   7.037
27304SOL     OW83750  14.642   0.327  10.523
27304SOL    HW183751  14.642   0.291  10.435
27304SOL    HW283752  14.550   0.321  10.551
27305SOL     OW83753  12.328   7.057  13.139
27305SOL    HW183754  12.269   7.128  13.115
27305SOL    HW283755  12.399   7.099  13.187
27306SOL     OW83756   9.312   2.083  11.969
27306SOL    HW183757   9.219   2.089  11.989
27306SOL    HW283758   9.338   1.997  12.004
27307SOL     OW83759   9.269   5.662  13.978
27307SOL    HW183760   9.249   5.754  13.998
27307SOL    HW283761   9.256   5.655  13.883
27308SOL     OW83762   3.622   9.778   8.690
27308SOL    HW183763   3.703   9.828   8.693
27308SOL    HW283764   3.646   9.691   8.722
27309SOL     OW83765  10.520  11.592  13.768
27309SOL    HW183766  10.501  11.577  13.675
27309SOL    HW283767  10.461  11.532  13.814
27310SOL     OW83768   9.620  10.287  11.726
27310SOL    HW183769   9.652  10.264  11.639
27310SOL    HW283770   9.632  10.207  11.778
27311SOL     OW83771   6.585   9.723   8.068
27311SOL    HW183772   6.569   9.632   8.045
27311SOL    HW283773   6.611   9.764   7.986
27312SOL     OW83774   8.812   1.014   6.603
27312SOL    HW183775   8.884   0.967   6.646
27312SOL    HW283776   8.736   0.956   6.612
27313SOL     OW83777   5.022  14.331   0.704
27313SOL    HW183778   5.054  14.370   0.786
27313SOL    HW283779   5.100  14.320   0.650
27314SOL     OW83780   5.454   9.491  10.144
27314SOL    HW183781   5.367   9.531  10.153
27314SOL    HW283782   5.514   9.556  10.178
27315SOL     OW83783   0.084   2.352   4.710
27315SOL    HW183784   0.092   2.362   4.615
27315SOL    HW283785   0.139   2.422   4.746
27316SOL     OW83786  12.149   0.244   0.021
27316SOL    HW183787  12.118   0.236  14.811
27316SOL    HW283788  12.241   0.218   0.017
27317SOL     OW83789   9.117   4.812   3.311
27317SOL    HW183790   9.044   4.782   3.365
27317SOL    HW283791   9.187   4.828   3.373
27318SOL     OW83792   1.708  14.130   8.250
27318SOL    HW183793   1.626  14.081   8.248
27318SOL    HW283794   1.748  14.114   8.164
27319SOL     OW83795   2.505  11.697  11.468
27319SOL    HW183796   2.434  11.745  11.426
27319SOL    HW283797   2.585  11.732  11.430
27320SOL     OW83798  10.912   9.440  11.248
27320SOL    HW183799  10.943   9.373  11.187
27320SOL    HW283800  10.910   9.395  11.333
27321SOL     OW83801  13.484   5.013   2.481
27321SOL    HW183802  13.493   4.978   2.392
27321SOL    HW283803  13.564   5.064   2.495
27322SOL     OW83804   3.013   2.375   6.908
27322SOL    HW183805   2.997   2.435   6.980
27322SOL    HW283806   3.081   2.417   6.855
27323SOL     OW83807   1.737   4.570   4.201
27323SOL    HW183808   1.817   4.543   4.247
27323SOL    HW283809   1.768   4.602   4.116
27324SOL     OW83810   0.561   5.896   6.595
27324SOL    HW183811   0.576   5.880   6.502
27324SOL    HW283812   0.630   5.846   6.640
27325SOL     OW83813  11.513   6.691   5.012
27325SOL    HW183814  11.471   6.616   4.970
27325SOL    HW283815  11.587   6.712   4.955
27326SOL     OW83816  11.123  13.324  13.225
27326SOL    HW183817  11.061  13.314  13.297
27326SOL    HW283818  11.162  13.237  13.214
27327SOL     OW83819   8.008   6.189   7.967
27327SOL    HW183820   8.076   6.205   8.032
27327SOL    HW283821   8.001   6.272   7.919
27328SOL     OW83822   1.533  13.416   6.508
27328SOL    HW183823   1.521  13.424   6.414
27328SOL    HW283824   1.546  13.505   6.539
27329SOL     OW83825   1.115   3.719   5.066
27329SOL    HW183826   1.165   3.750   5.142
27329SOL    HW283827   1.129   3.624   5.065
27330SOL     OW83828   5.151  11.514   4.878
27330SOL    HW183829   5.156  11.604   4.844
27330SOL    HW283830   5.214  11.512   4.949
27331SOL     OW83831   0.518   3.542   2.789
27331SOL    HW183832   0.590   3.586   2.834
27331SOL    HW283833   0.488   3.476   2.852
27332SOL     OW83834  14.460   3.656  13.242
27332SOL    HW183835  14.439   3.599  13.168
27332SOL    HW283836  14.513   3.602  13.301
27333SOL     OW83837   8.252   5.402   3.517
27333SOL    HW183838   8.226   5.311   3.528
27333SOL    HW283839   8.340   5.406   3.554
27334SOL     OW83840   1.297  10.180  12.411
27334SOL    HW183841   1.317  10.250  12.349
27334SOL    HW283842   1.383  10.153  12.445
27335SOL     OW83843   6.564   8.788   9.740
27335SOL    HW183844   6.651   8.769   9.704
27335SOL    HW283845   6.503   8.765   9.670
27336SOL     OW83846   2.397   4.466   6.047
27336SOL    HW183847   2.383   4.385   6.096
27336SOL    HW283848   2.340   4.459   5.970
27337SOL     OW83849   6.218  12.604   1.650
27337SOL    HW183850   6.178  12.683   1.688
27337SOL    HW283851   6.201  12.536   1.715
27338SOL     OW83852   5.416  12.169  11.136
27338SOL    HW183853   5.481  12.233  11.108
27338SOL    HW283854   5.397  12.193  11.227
27339SOL     OW83855   0.477   6.449  11.002
27339SOL    HW183856   0.450   6.501  11.077
27339SOL    HW283857   0.409   6.464  10.936
27340SOL     OW83858   6.191   7.738   2.381
27340SOL    HW183859   6.242   7.783   2.449
27340SOL    HW283860   6.128   7.803   2.350
27341SOL     OW83861   9.488  12.164   8.865
27341SOL    HW183862   9.563  12.162   8.805
27341SOL    HW283863   9.414  12.135   8.811
27342SOL     OW83864   4.028  11.109  14.771
27342SOL    HW183865   4.023  11.188  14.717
27342SOL    HW283866   3.977  11.130  14.850
27343SOL     OW83867  10.456   5.444  14.187
27343SOL    HW183868  10.379   5.497  14.207
27343SOL    HW283869  10.526   5.508  14.171
27344SOL     OW83870   9.282   7.925   7.789
27344SOL    HW183871   9.371   7.932   7.825
27344SOL    HW283872   9.287   7.852   7.727
27345SOL     OW83873  12.628  10.260   4.835
27345SOL    HW183874  12.558  10.289   4.893
27345SOL    HW283875  12.708  10.282   4.881
27346SOL     OW83876   5.583  14.560   7.302
27346SOL    HW183877   5.541  14.646   7.310
27346SOL    HW283878   5.595  14.548   7.208
27347SOL     OW83879   0.884  11.676  11.009
27347SOL    HW183880   0.960  11.637  11.052
27347SOL    HW283881   0.862  11.752  11.063
27348SOL     OW83882  10.158   1.227   5.374
27348SOL    HW183883  10.114   1.296   5.422
27348SOL    HW283884  10.242   1.215   5.419
27349SOL     OW83885   6.345   2.398   3.280
27349SOL    HW183886   6.398   2.462   3.234
27349SOL    HW283887   6.269   2.446   3.311
27350SOL     OW83888   0.674   9.614   5.856
27350SOL    HW183889   0.580   9.632   5.863
27350SOL    HW283890   0.697   9.644   5.768
27351SOL     OW83891   5.202   8.590   6.602
27351SOL    HW183892   5.191   8.685   6.605
27351SOL    HW283893   5.247   8.573   6.519
27352SOL     OW83894   2.232   3.956   2.406
27352SOL    HW183895   2.184   3.876   2.426
27352SOL    HW283896   2.324   3.930   2.408
27353SOL     OW83897  12.154   7.140   4.547
27353SOL    HW183898  12.062   7.166   4.549
27353SOL    HW283899  12.159   7.064   4.605
27354SOL     OW83900   5.165   9.437  11.276
27354SOL    HW183901   5.217   9.466  11.201
27354SOL    HW283902   5.177   9.505  11.342
27355SOL     OW83903   7.330  10.504  12.043
27355SOL    HW183904   7.245  10.461  12.046
27355SOL    HW283905   7.314  10.592  12.079
27356SOL     OW83906   1.977   2.835   8.956
27356SOL    HW183907   2.072   2.826   8.943
27356SOL    HW283908   1.955   2.918   8.914
27357SOL     OW83909   5.461   8.988  11.666
27357SOL    HW183910   5.542   9.036  11.648
27357SOL    HW283911   5.470   8.958  11.756
27358SOL     OW83912  10.830   1.575   6.756
27358SOL    HW183913  10.792   1.515   6.820
27358SOL    HW283914  10.901   1.619   6.803
27359SOL     OW83915   2.262   6.310  13.954
27359SOL    HW183916   2.283   6.222  13.924
27359SOL    HW283917   2.319   6.368  13.903
27360SOL     OW83918  13.964  13.709  11.290
27360SOL    HW183919  13.940  13.710  11.198
27360SOL    HW283920  13.918  13.783  11.328
27361SOL     OW83921   4.439   4.350   5.802
27361SOL    HW183922   4.356   4.378   5.764
27361SOL    HW283923   4.419   4.333   5.894
27362SOL     OW83924  14.640   5.461   7.203
27362SOL    HW183925  14.579   5.434   7.135
27362SOL    HW283926  14.719   5.488   7.156
27363SOL     OW83927   5.708   9.303  11.232
27363SOL    HW183928   5.760   9.279  11.156
27363SOL    HW283929   5.648   9.230  11.244
27364SOL     OW83930   3.753   7.300   1.937
27364SOL    HW183931   3.764   7.277   2.029
27364SOL    HW283932   3.798   7.230   1.889
27365SOL     OW83933   5.413  12.403   5.226
27365SOL    HW183934   5.484  12.450   5.268
27365SOL    HW283935   5.423  12.422   5.133
27366SOL     OW83936   5.498   0.395   9.624
27366SOL    HW183937   5.455   0.347   9.694
27366SOL    HW283938   5.503   0.334   9.551
27367SOL     OW83939   9.163  12.542   6.413
27367SOL    HW183940   9.222  12.520   6.341
27367SOL    HW283941   9.175  12.637   6.424
27368SOL     OW83942  12.360   8.477   5.244
27368SOL    HW183943  12.281   8.525   5.220
27368SOL    HW283944  12.421   8.492   5.172
27369SOL     OW83945   5.238   3.830   0.856
27369SOL    HW183946   5.306   3.847   0.921
27369SOL    HW283947   5.277   3.857   0.773
27370SOL     OW83948  13.834   3.077   5.180
27370SOL    HW183949  13.775   3.146   5.210
27370SOL    HW283950  13.876   3.044   5.260
27371SOL     OW83951  10.099   9.436   2.700
27371SOL    HW183952  10.140   9.499   2.759
27371SOL    HW283953  10.011   9.422   2.737
27372SOL     OW83954   7.852  12.026  12.556
27372SOL    HW183955   7.929  12.000  12.608
27372SOL    HW283956   7.806  11.945  12.540
27373SOL     OW83957   4.173   8.546  13.257
27373SOL    HW183958   4.107   8.606  13.222
27373SOL    HW283959   4.257   8.589  13.239
27374SOL     OW83960   2.024  12.604   7.958
27374SOL    HW183961   1.937  12.640   7.939
27374SOL    HW283962   2.007  12.532   8.019
27375SOL     OW83963   0.179  10.795   7.256
27375SOL    HW183964   0.098  10.806   7.206
27375SOL    HW283965   0.199  10.883   7.289
27376SOL     OW83966   1.483   9.986  12.795
27376SOL    HW183967   1.505  10.032  12.715
27376SOL    HW283968   1.565   9.948  12.825
27377SOL     OW83969   7.008  11.047   5.019
27377SOL    HW183970   6.915  11.026   5.008
27377SOL    HW283971   7.037  10.992   5.092
27378SOL     OW83972   1.426  14.081   5.694
27378SOL    HW183973   1.388  14.006   5.650
27378SOL    HW283974   1.439  14.052   5.785
27379SOL     OW83975  13.166   8.336   6.548
27379SOL    HW183976  13.213   8.274   6.492
27379SOL    HW283977  13.075   8.304   6.547
27380SOL     OW83978   7.891  10.245  11.971
27380SOL    HW183979   7.907  10.291  11.889
27380SOL    HW283980   7.822  10.295  12.015
27381SOL     OW83981  14.739   8.875   6.049
27381SOL    HW183982  14.816   8.932   6.041
27381SOL    HW283983  14.765   8.793   6.008
27382SOL     OW83984  10.836   9.834  10.700
27382SOL    HW183985  10.887   9.754  10.692
27382SOL    HW283986  10.877   9.882  10.771
27383SOL     OW83987   9.269   7.943   1.596
27383SOL    HW183988   9.265   7.994   1.677
27383SOL    HW283989   9.247   7.854   1.622
27384SOL     OW83990   4.918  11.376   3.276
27384SOL    HW183991   4.905  11.368   3.371
27384SOL    HW283992   4.851  11.320   3.237
27385SOL     OW83993   4.298   3.879   0.865
27385SOL    HW183994   4.372   3.836   0.907
27385SOL    HW283995   4.294   3.839   0.778
27386SOL     OW83996  14.837   0.215  12.228
27386SOL    HW183997  14.861   0.214  12.135
27386SOL    HW283998  14.805   0.303  12.244
27387SOL     OW83999   8.783   0.486   8.066
27387SOL    HW184000   8.831   0.473   7.984
27387SOL    HW284001   8.692   0.501   8.038
27388SOL     OW84002   0.190  14.639   4.677
27388SOL    HW184003   0.141  14.634   4.759
27388SOL    HW284004   0.161  14.721   4.638
27389SOL     OW84005  11.963   6.675  13.942
27389SOL    HW184006  11.938   6.742  14.006
27389SOL    HW284007  12.016   6.613  13.992
27390SOL     OW84008   6.147  11.595  10.663
27390SOL    HW184009   6.186  11.640  10.738
27390SOL    HW284010   6.069  11.552  10.699
27391SOL     OW84011  12.128   5.374   7.696
27391SOL    HW184012  12.105   5.339   7.782
27391SOL    HW284013  12.147   5.297   7.643
27392SOL     OW84014   6.100  10.330  10.411
27392SOL    HW184015   6.116  10.365  10.323
27392SOL    HW284016   6.071  10.240  10.396
27393SOL     OW84017   5.246   4.069   0.125
27393SOL    HW184018   5.210   4.085   0.212
27393SOL    HW284019   5.230   3.976   0.109
27394SOL     OW84020   8.575   5.835   4.195
27394SOL    HW184021   8.665   5.804   4.205
27394SOL    HW284022   8.541   5.841   4.285
27395SOL     OW84023   8.683  14.400  11.348
27395SOL    HW184024   8.599  14.404  11.394
27395SOL    HW284025   8.732  14.475  11.383
27396SOL     OW84026  14.734   8.149  13.870
27396SOL    HW184027  14.649   8.153  13.914
27396SOL    HW284028  14.713   8.157  13.777
27397SOL     OW84029   9.302   4.299   1.323
27397SOL    HW184030   9.266   4.315   1.236
27397SOL    HW284031   9.360   4.224   1.312
27398SOL     OW84032  11.156   5.624   1.532
27398SOL    HW184033  11.156   5.678   1.453
27398SOL    HW284034  11.126   5.683   1.602
27399SOL     OW84035   9.286   7.485   7.042
27399SOL    HW184036   9.316   7.442   6.962
27399SOL    HW284037   9.236   7.561   7.011
27400SOL     OW84038  14.039  14.363  14.572
27400SOL    HW184039  14.079  14.330  14.652
27400SOL    HW284040  14.106  14.350  14.504
27401SOL     OW84041   2.895  11.612   5.130
27401SOL    HW184042   2.904  11.642   5.221
27401SOL    HW284043   2.949  11.673   5.080
27402SOL     OW84044  12.486   0.430   0.383
27402SOL    HW184045  12.525   0.344   0.368
27402SOL    HW284046  12.406   0.431   0.331
27403SOL     OW84047   6.203  10.494  14.168
27403SOL    HW184048   6.187  10.584  14.199
27403SOL    HW284049   6.298  10.486  14.164
27404SOL     OW84050   9.639   8.818   8.563
27404SOL    HW184051   9.622   8.801   8.471
27404SOL    HW284052   9.617   8.911   8.575
27405SOL     OW84053   8.942   8.508   5.681
27405SOL    HW184054   8.870   8.477   5.627
27405SOL    HW284055   8.911   8.592   5.716
27406SOL     OW84056  10.301   5.352   3.563
27406SOL    HW184057  10.288   5.296   3.487
27406SOL    HW284058  10.395   5.345   3.583
27407SOL     OW84059   8.928   2.282   8.093
27407SOL    HW184060   8.898   2.294   8.183
27407SOL    HW284061   9.023   2.283   8.099
27408SOL     OW84062   8.981   1.711   6.487
27408SOL    HW184063   8.935   1.739   6.565
27408SOL    HW284064   8.971   1.784   6.425
27409SOL     OW84065  11.514   8.463  12.086
27409SOL    HW184066  11.519   8.395  12.153
27409SOL    HW284067  11.573   8.531  12.117
27410SOL     OW84068  13.010   1.627   7.303
27410SOL    HW184069  13.102   1.632   7.280
27410SOL    HW284070  12.964   1.667   7.229
27411SOL     OW84071  11.523  10.977  13.942
27411SOL    HW184072  11.443  11.017  13.975
27411SOL    HW284073  11.581  10.973  14.017
27412SOL     OW84074   5.441   6.173  13.020
27412SOL    HW184075   5.508   6.237  12.998
27412SOL    HW284076   5.392   6.161  12.939
27413SOL     OW84077   3.903   2.186  14.412
27413SOL    HW184078   3.924   2.258  14.471
27413SOL    HW284079   3.944   2.210  14.329
27414SOL     OW84080   5.047  14.135  13.152
27414SOL    HW184081   5.117  14.071  13.160
27414SOL    HW284082   4.978  14.089  13.104
27415SOL     OW84083  13.938  11.394  14.713
27415SOL    HW184084  13.914  11.467  14.656
27415SOL    HW284085  13.993  11.338  14.658
27416SOL     OW84086   1.778   8.746   2.467
27416SOL    HW184087   1.776   8.790   2.552
27416SOL    HW284088   1.864   8.766   2.431
27417SOL     OW84089  10.374   5.021   8.714
27417SOL    HW184090  10.449   5.027   8.774
27417SOL    HW284091  10.397   5.078   8.641
27418SOL     OW84092  10.407  14.845  10.903
27418SOL    HW184093  10.422  14.755  10.933
27418SOL    HW284094  10.336  14.838  10.841
27419SOL     OW84095   7.090  14.093   8.353
27419SOL    HW184096   7.018  14.030   8.363
27419SOL    HW284097   7.139  14.086   8.434
27420SOL     OW84098   1.155  10.233   0.646
27420SOL    HW184099   1.073  10.189   0.621
27420SOL    HW284100   1.190  10.266   0.563
27421SOL     OW84101   2.206   4.179   0.121
27421SOL    HW184102   2.238   4.165   0.032
27421SOL    HW284103   2.112   4.158   0.116
27422SOL     OW84104   9.634  10.085  12.230
27422SOL    HW184105   9.577  10.067  12.305
27422SOL    HW284106   9.623  10.009  12.173
27423SOL     OW84107   9.928  11.813   6.426
27423SOL    HW184108   9.884  11.755   6.364
27423SOL    HW284109   9.980  11.755   6.481
27424SOL     OW84110   0.001   5.392   6.044
27424SOL    HW184111   0.040   5.369   6.129
27424SOL    HW284112   0.072   5.381   5.981
27425SOL     OW84113  12.311  12.744   9.558
27425SOL    HW184114  12.360  12.820   9.527
27425SOL    HW284115  12.253  12.722   9.484
27426SOL     OW84116  14.129   8.288   0.097
27426SOL    HW184117  14.056   8.331   0.142
27426SOL    HW284118  14.198   8.284   0.163
27427SOL     OW84119  14.574   7.169   9.503
27427SOL    HW184120  14.595   7.169   9.597
27427SOL    HW284121  14.553   7.260   9.483
27428SOL     OW84122   6.650   2.280  13.740
27428SOL    HW184123   6.577   2.219  13.750
27428SOL    HW284124   6.647   2.335  13.818
27429SOL     OW84125   8.722   3.582  13.113
27429SOL    HW184126   8.787   3.513  13.123
27429SOL    HW284127   8.688   3.570  13.025
27430SOL     OW84128  13.800   9.614  12.603
27430SOL    HW184129  13.777   9.568  12.683
27430SOL    HW284130  13.866   9.558  12.561
27431SOL     OW84131   5.583   7.124   2.503
27431SOL    HW184132   5.638   7.047   2.487
27431SOL    HW284133   5.599   7.182   2.429
27432SOL     OW84134   5.797  14.053   2.265
27432SOL    HW184135   5.703  14.068   2.272
27432SOL    HW284136   5.805  13.973   2.213
27433SOL     OW84137  10.589  11.959   7.720
27433SOL    HW184138  10.523  11.974   7.788
27433SOL    HW284139  10.568  12.023   7.652
27434SOL     OW84140   9.731   5.637   2.102
27434SOL    HW184141   9.810   5.688   2.119
27434SOL    HW284142   9.757   5.575   2.034
27435SOL     OW84143  12.034   3.923   5.829
27435SOL    HW184144  11.943   3.903   5.851
27435SOL    HW284145  12.085   3.885   5.901
27436SOL     OW84146   9.056   4.449  13.564
27436SOL    HW184147   8.969   4.466  13.601
27436SOL    HW284148   9.090   4.376  13.616
27437SOL     OW84149   2.876   8.282  11.228
27437SOL    HW184150   2.969   8.306  11.230
27437SOL    HW284151   2.868   8.212  11.293
27438SOL     OW84152   0.312   0.888   5.454
27438SOL    HW184153   0.246   0.906   5.521
27438SOL    HW284154   0.325   0.972   5.410
27439SOL     OW84155  11.322   9.460   8.934
27439SOL    HW184156  11.285   9.535   8.982
27439SOL    HW284157  11.247   9.402   8.920
27440SOL     OW84158   0.803   8.517   7.710
27440SOL    HW184159   0.881   8.477   7.672
27440SOL    HW284160   0.748   8.443   7.734
27441SOL     OW84161  14.809  11.774   1.631
27441SOL    HW184162  14.765  11.852   1.665
27441SOL    HW284163  14.739  11.710   1.619
27442SOL     OW84164   3.326   7.038  10.863
27442SOL    HW184165   3.313   6.965  10.802
27442SOL    HW284166   3.382   7.099  10.815
27443SOL     OW84167  11.401   3.285   8.494
27443SOL    HW184168  11.402   3.229   8.416
27443SOL    HW284169  11.411   3.374   8.459
27444SOL     OW84170   0.103   6.705  14.806
27444SOL    HW184171   0.171   6.762  14.771
27444SOL    HW284172   0.061   6.667  14.728
27445SOL     OW84173  11.773  10.309   1.704
27445SOL    HW184174  11.780  10.258   1.785
27445SOL    HW284175  11.687  10.351   1.710
27446SOL     OW84176   5.766   0.817  10.846
27446SOL    HW184177   5.808   0.885  10.793
27446SOL    HW284178   5.729   0.864  10.921
27447SOL     OW84179   8.441   9.712  13.084
27447SOL    HW184180   8.491   9.636  13.114
27447SOL    HW284181   8.458   9.780  13.150
27448SOL     OW84182   5.261   4.774  10.214
27448SOL    HW184183   5.200   4.768  10.288
27448SOL    HW284184   5.327   4.838  10.242
27449SOL     OW84185  14.499  11.374   0.169
27449SOL    HW184186  14.508  11.335   0.082
27449SOL    HW284187  14.587  11.368   0.206
27450SOL     OW84188   8.986   9.808   2.760
27450SOL    HW184189   8.915   9.781   2.702
27450SOL    HW284190   9.013   9.726   2.803
27451SOL     OW84191  12.590   5.868  14.002
27451SOL    HW184192  12.680   5.897  14.009
27451SOL    HW284193  12.568   5.835  14.089
27452SOL     OW84194  14.380   3.965   1.818
27452SOL    HW184195  14.330   4.044   1.840
27452SOL    HW284196  14.427   3.944   1.899
27453SOL     OW84197   3.528  12.830  12.040
27453SOL    HW184198   3.501  12.787  11.959
27453SOL    HW284199   3.552  12.919  12.013
27454SOL     OW84200   2.121   0.781   2.977
27454SOL    HW184201   2.204   0.758   2.934
27454SOL    HW284202   2.127   0.876   2.991
27455SOL     OW84203   6.746   6.083   9.414
27455SOL    HW184204   6.675   6.022   9.396
27455SOL    HW284205   6.704   6.159   9.455
27456SOL     OW84206   3.641   7.059   4.504
27456SOL    HW184207   3.679   7.042   4.590
27456SOL    HW284208   3.626   7.154   4.502
27457SOL     OW84209   9.839   9.971   3.006
27457SOL    HW184210   9.753  10.007   3.025
27457SOL    HW284211   9.869  10.021   2.930
27458SOL     OW84212   8.676  10.250   1.826
27458SOL    HW184213   8.690  10.260   1.732
27458SOL    HW284214   8.697  10.159   1.844
27459SOL     OW84215  14.791   1.086  13.847
27459SOL    HW184216  14.723   1.077  13.781
27459SOL    HW284217  14.872   1.059  13.803
27460SOL     OW84218  14.752  11.017  13.927
27460SOL    HW184219  14.726  11.101  13.890
27460SOL    HW284220  14.847  11.021  13.931
27461SOL     OW84221  13.547   7.557  11.733
27461SOL    HW184222  13.456   7.531  11.750
27461SOL    HW284223  13.540   7.645  11.697
27462SOL     OW84224   7.807   6.101   4.267
27462SOL    HW184225   7.883   6.118   4.211
27462SOL    HW284226   7.733   6.136   4.217
27463SOL     OW84227   8.225   3.294   8.725
27463SOL    HW184228   8.152   3.273   8.666
27463SOL    HW284229   8.295   3.235   8.699
27464SOL     OW84230  14.655  11.185   7.174
27464SOL    HW184231  14.648  11.267   7.125
27464SOL    HW284232  14.583  11.131   7.142
27465SOL     OW84233   2.386   8.372   8.850
27465SOL    HW184234   2.319   8.401   8.788
27465SOL    HW284235   2.465   8.361   8.797
27466SOL     OW84236   7.915   6.404  10.173
27466SOL    HW184237   7.970   6.353  10.232
27466SOL    HW284238   7.934   6.495  10.195
27467SOL     OW84239   1.699   9.722  11.601
27467SOL    HW184240   1.647   9.676  11.536
27467SOL    HW284241   1.722   9.656  11.666
27468SOL     OW84242   0.272   9.152   4.791
27468SOL    HW184243   0.263   9.107   4.707
27468SOL    HW284244   0.343   9.105   4.836
27469SOL     OW84245   1.244  10.566   7.741
27469SOL    HW184246   1.264  10.500   7.674
27469SOL    HW284247   1.330  10.589   7.778
27470SOL     OW84248   7.786   3.002  13.946
27470SOL    HW184249   7.714   2.973  14.002
27470SOL    HW284250   7.746   3.064  13.886
27471SOL     OW84251   2.214   3.833   4.282
27471SOL    HW184252   2.306   3.851   4.304
27471SOL    HW284253   2.218   3.754   4.227
27472SOL     OW84254   5.505   9.887  11.042
27472SOL    HW184255   5.544   9.944  10.975
27472SOL    HW284256   5.475   9.810  10.993
27473SOL     OW84257   9.793   2.869  12.948
27473SOL    HW184258   9.831   2.841  13.031
27473SOL    HW284259   9.702   2.837  12.951
27474SOL     OW84260   3.941   5.256   5.501
27474SOL    HW184261   3.910   5.329   5.554
27474SOL    HW284262   3.888   5.259   5.421
27475SOL     OW84263  12.276   2.410   1.781
27475SOL    HW184264  12.293   2.328   1.735
27475SOL    HW284265  12.350   2.466   1.758
27476SOL     OW84266  12.232   3.753   8.015
27476SOL    HW184267  12.251   3.707   8.097
27476SOL    HW284268  12.137   3.750   8.007
27477SOL     OW84269   9.226  13.857  10.750
27477SOL    HW184270   9.316  13.873  10.722
27477SOL    HW284271   9.223  13.887  10.841
27478SOL     OW84272  10.423   5.868  10.139
27478SOL    HW184273  10.391   5.801  10.079
27478SOL    HW284274  10.350   5.929  10.149
27479SOL     OW84275  12.581  13.544  13.691
27479SOL    HW184276  12.620  13.472  13.741
27479SOL    HW284277  12.487  13.537  13.707
27480SOL     OW84278  10.473   2.417   7.200
27480SOL    HW184279  10.387   2.380   7.220
27480SOL    HW284280  10.469   2.506   7.235
27481SOL     OW84281   4.433   5.251   1.219
27481SOL    HW184282   4.394   5.333   1.251
27481SOL    HW284283   4.524   5.275   1.199
27482SOL     OW84284   4.550   7.612   2.134
27482SOL    HW184285   4.461   7.645   2.137
27482SOL    HW284286   4.548   7.540   2.072
27483SOL     OW84287  13.034  14.063   9.194
27483SOL    HW184288  13.084  14.113   9.258
27483SOL    HW284289  12.958  14.030   9.243
27484SOL     OW84290   0.698   5.157   5.665
27484SOL    HW184291   0.642   5.155   5.587
27484SOL    HW284292   0.730   5.247   5.669
27485SOL     OW84293   8.623   7.623   1.391
27485SOL    HW184294   8.571   7.661   1.461
27485SOL    HW284295   8.580   7.540   1.371
27486SOL     OW84296   9.691   9.003  12.088
27486SOL    HW184297   9.670   8.982  11.996
27486SOL    HW284298   9.772   9.053  12.083
27487SOL     OW84299  13.942  12.462   0.757
27487SOL    HW184300  14.010  12.451   0.690
27487SOL    HW284301  13.972  12.536   0.810
27488SOL     OW84302   0.659   7.595   1.107
27488SOL    HW184303   0.655   7.690   1.103
27488SOL    HW284304   0.619   7.566   1.025
27489SOL     OW84305   4.505   3.314   3.963
27489SOL    HW184306   4.590   3.275   3.942
27489SOL    HW284307   4.492   3.381   3.896
27490SOL     OW84308  14.196  14.315  14.338
27490SOL    HW184309  14.152  14.300  14.255
27490SOL    HW284310  14.276  14.264  14.333
27491SOL     OW84311  13.468  14.521   8.762
27491SOL    HW184312  13.380  14.526   8.726
27491SOL    HW284313  13.491  14.612   8.780
27492SOL     OW84314   4.676  14.628   6.587
27492SOL    HW184315   4.618  14.703   6.587
27492SOL    HW284316   4.711  14.624   6.676
27493SOL     OW84317   6.128  12.340   1.185
27493SOL    HW184318   6.147  12.424   1.227
27493SOL    HW284319   6.130  12.359   1.091
27494SOL     OW84320  11.502   2.402  10.811
27494SOL    HW184321  11.419   2.391  10.856
27494SOL    HW284322  11.493   2.351  10.730
27495SOL     OW84323   8.580   1.965   9.939
27495SOL    HW184324   8.596   1.880   9.980
27495SOL    HW284325   8.558   1.944   9.848
27496SOL     OW84326   4.072   4.108   3.815
27496SOL    HW184327   4.039   4.198   3.812
27496SOL    HW284328   4.106   4.099   3.905
27497SOL     OW84329   0.270   2.172  14.197
27497SOL    HW184330   0.252   2.086  14.162
27497SOL    HW284331   0.204   2.184  14.266
27498SOL     OW84332  13.292   1.538   5.134
27498SOL    HW184333  13.354   1.539   5.061
27498SOL    HW284334  13.242   1.619   5.124
27499SOL     OW84335  14.184   6.102  10.886
27499SOL    HW184336  14.223   6.167  10.828
27499SOL    HW284337  14.176   6.147  10.970
27500SOL     OW84338   9.162   4.084  11.558
27500SOL    HW184339   9.188   4.141  11.485
27500SOL    HW284340   9.167   3.996  11.523
27501SOL     OW84341   0.746   2.229   2.169
27501SOL    HW184342   0.667   2.272   2.136
27501SOL    HW284343   0.761   2.156   2.110
27502SOL     OW84344  10.760   9.017  14.471
27502SOL    HW184345  10.835   8.959  14.480
27502SOL    HW284346  10.719   9.017  14.558
27503SOL     OW84347  12.804   9.710  10.412
27503SOL    HW184348  12.799   9.621  10.445
27503SOL    HW284349  12.841   9.760  10.485
27504SOL     OW84350   9.765   1.764   3.159
27504SOL    HW184351   9.774   1.695   3.093
27504SOL    HW284352   9.749   1.716   3.241
27505SOL     OW84353   6.367   5.044   4.585
27505SOL    HW184354   6.284   5.039   4.632
27505SOL    HW284355   6.420   5.104   4.636
27506SOL     OW84356   5.770  11.848  12.875
27506SOL    HW184357   5.769  11.781  12.807
27506SOL    HW284358   5.860  11.882  12.874
27507SOL     OW84359   0.417  10.758   6.187
27507SOL    HW184360   0.324  10.747   6.206
27507SOL    HW284361   0.440  10.843   6.225
27508SOL     OW84362   3.655   4.011   4.300
27508SOL    HW184363   3.708   4.072   4.248
27508SOL    HW284364   3.595   4.066   4.350
27509SOL     OW84365   5.711  11.024  12.917
27509SOL    HW184366   5.737  11.005  13.007
27509SOL    HW284367   5.615  11.016  12.917
27510SOL     OW84368   9.703   6.815   6.116
27510SOL    HW184369   9.624   6.767   6.141
27510SOL    HW284370   9.670   6.897   6.080
27511SOL     OW84371  13.686   0.976   2.067
27511SOL    HW184372  13.773   0.993   2.031
27511SOL    HW284373  13.681   0.880   2.074
27512SOL     OW84374   4.178   2.412   2.522
27512SOL    HW184375   4.150   2.391   2.433
27512SOL    HW284376   4.190   2.327   2.565
27513SOL     OW84377   0.886   2.703   5.405
27513SOL    HW184378   0.941   2.756   5.347
27513SOL    HW284379   0.940   2.628   5.428
27514SOL     OW84380   0.759   3.493   0.282
27514SOL    HW184381   0.761   3.539   0.198
27514SOL    HW284382   0.851   3.490   0.310
27515SOL     OW84383  11.298   5.515   1.317
27515SOL    HW184384  11.219   5.555   1.281
27515SOL    HW284385  11.288   5.522   1.411
27516SOL     OW84386   7.341  12.011   9.815
27516SOL    HW184387   7.401  12.074   9.774
27516SOL    HW284388   7.254  12.046   9.799
27517SOL     OW84389  13.669  12.246   9.173
27517SOL    HW184390  13.731  12.238   9.101
27517SOL    HW284391  13.660  12.157   9.208
27518SOL     OW84392   2.478   5.280   3.652
27518SOL    HW184393   2.389   5.315   3.647
27518SOL    HW284394   2.468   5.193   3.691
27519SOL     OW84395   5.555   6.320   5.654
27519SOL    HW184396   5.550   6.286   5.744
27519SOL    HW284397   5.527   6.411   5.661
27520SOL     OW84398   6.000   4.453   1.298
27520SOL    HW184399   6.062   4.435   1.368
27520SOL    HW284400   5.946   4.525   1.331
27521SOL     OW84401  11.773   9.448  11.724
27521SOL    HW184402  11.716   9.386  11.679
27521SOL    HW284403  11.723   9.477  11.800
27522SOL     OW84404   0.956   9.390   3.458
27522SOL    HW184405   1.003   9.349   3.385
27522SOL    HW284406   0.864   9.386   3.431
27523SOL     OW84407   0.281   6.555   0.606
27523SOL    HW184408   0.307   6.539   0.515
27523SOL    HW284409   0.186   6.565   0.603
27524SOL     OW84410   2.095   4.867   6.673
27524SOL    HW184411   2.159   4.813   6.626
27524SOL    HW284412   2.147   4.929   6.723
27525SOL     OW84413  11.422   6.610  13.146
27525SOL    HW184414  11.463   6.616  13.060
27525SOL    HW284415  11.337   6.652  13.136
27526SOL     OW84416  13.851   9.746   4.014
27526SOL    HW184417  13.817   9.825   3.972
27526SOL    HW284418  13.815   9.748   4.102
27527SOL     OW84419   9.961   7.440  12.190
27527SOL    HW184420   9.967   7.517  12.247
27527SOL    HW284421  10.007   7.371  12.238
27528SOL     OW84422   5.142   9.182   6.819
27528SOL    HW184423   5.099   9.106   6.859
27528SOL    HW284424   5.222   9.146   6.782
27529SOL     OW84425   6.083   3.916   1.527
27529SOL    HW184426   6.032   3.938   1.605
27529SOL    HW284427   6.080   3.996   1.474
27530SOL     OW84428  12.365   3.274   8.932
27530SOL    HW184429  12.376   3.211   9.004
27530SOL    HW284430  12.322   3.224   8.863
27531SOL     OW84431   7.075   7.447  12.636
27531SOL    HW184432   6.995   7.481  12.596
27531SOL    HW284433   7.093   7.507  12.709
27532SOL     OW84434  13.536   0.966  14.352
27532SOL    HW184435  13.628   0.967  14.379
27532SOL    HW284436  13.538   0.961  14.257
27533SOL     OW84437  13.905   9.722   0.027
27533SOL    HW184438  13.965   9.717  14.833
27533SOL    HW284439  13.854   9.641   0.023
27534SOL     OW84440   1.032  10.333   9.167
27534SOL    HW184441   0.972  10.400   9.197
27534SOL    HW284442   1.040  10.272   9.240
27535SOL     OW84443   4.180  11.402   9.068
27535SOL    HW184444   4.157  11.313   9.040
27535SOL    HW284445   4.110  11.457   9.033
27536SOL     OW84446   1.052   4.297   9.127
27536SOL    HW184447   0.975   4.246   9.150
27536SOL    HW284448   1.047   4.307   9.032
27537SOL     OW84449   5.410   7.122   1.749
27537SOL    HW184450   5.434   7.091   1.837
27537SOL    HW284451   5.334   7.069   1.725
27538SOL     OW84452   7.720  12.554  11.133
27538SOL    HW184453   7.648  12.561  11.195
27538SOL    HW284454   7.798  12.580  11.183
27539SOL     OW84455  12.060   8.731  13.370
27539SOL    HW184456  11.968   8.705  13.373
27539SOL    HW284457  12.077   8.769  13.456
27540SOL     OW84458   2.482  12.205   1.924
27540SOL    HW184459   2.458  12.181   1.834
27540SOL    HW284460   2.528  12.288   1.915
27541SOL     OW84461   8.522  10.872   0.535
27541SOL    HW184462   8.568  10.921   0.603
27541SOL    HW284463   8.487  10.795   0.580
27542SOL     OW84464   3.757   0.360   8.639
27542SOL    HW184465   3.848   0.338   8.621
27542SOL    HW284466   3.713   0.276   8.650
27543SOL     OW84467   9.728   1.722   9.648
27543SOL    HW184468   9.640   1.684   9.655
27543SOL    HW284469   9.716   1.815   9.666
27544SOL     OW84470  13.172   3.903  12.744
27544SOL    HW184471  13.247   3.945  12.702
27544SOL    HW284472  13.121   3.975  12.781
27545SOL     OW84473   1.583   6.072  12.588
27545SOL    HW184474   1.650   6.139  12.574
27545SOL    HW284475   1.632   5.991  12.603
27546SOL     OW84476  14.442   2.611   6.421
27546SOL    HW184477  14.391   2.561   6.485
27546SOL    HW284478  14.528   2.569   6.422
27547SOL     OW84479  11.312  14.819  13.128
27547SOL    HW184480  11.332   0.031  13.107
27547SOL    HW284481  11.245  14.794  13.064
27548SOL     OW84482   3.468   0.992   0.911
27548SOL    HW184483   3.431   1.057   0.971
27548SOL    HW284484   3.434   1.018   0.825
27549SOL     OW84485   3.339   6.516   6.846
27549SOL    HW184486   3.391   6.585   6.807
27549SOL    HW284487   3.391   6.437   6.835
27550SOL     OW84488   3.362   4.629   7.021
27550SOL    HW184489   3.300   4.585   7.079
27550SOL    HW284490   3.312   4.703   6.986
27551SOL     OW84491   4.522   1.924   9.680
27551SOL    HW184492   4.441   1.951   9.638
27551SOL    HW284493   4.566   2.006   9.702
27552SOL     OW84494   3.958   8.286   1.667
27552SOL    HW184495   3.934   8.346   1.738
27552SOL    HW284496   3.953   8.339   1.588
27553SOL     OW84497   0.056   7.504   0.352
27553SOL    HW184498  14.879   7.561   0.300
27553SOL    HW284499   0.027   7.416   0.330
27554SOL     OW84500   9.869   3.948  13.650
27554SOL    HW184501   9.879   3.882  13.719
27554SOL    HW284502   9.926   4.019  13.677
27555SOL     OW84503  11.491  13.223   7.160
27555SOL    HW184504  11.464  13.268   7.080
27555SOL    HW284505  11.487  13.130   7.138
27556SOL     OW84506  10.262   7.393   5.070
27556SOL    HW184507  10.189   7.334   5.050
27556SOL    HW284508  10.261   7.457   4.999
27557SOL     OW84509  10.757   3.268  10.823
27557SOL    HW184510  10.843   3.236  10.797
27557SOL    HW284511  10.731   3.327  10.752
27558SOL     OW84512  13.336   6.905   7.216
27558SOL    HW184513  13.339   6.902   7.312
27558SOL    HW284514  13.245   6.883   7.194
27559SOL     OW84515   4.154   2.703   9.120
27559SOL    HW184516   4.241   2.666   9.107
27559SOL    HW284517   4.170   2.790   9.159
27560SOL     OW84518  10.070   0.835   4.182
27560SOL    HW184519  10.042   0.888   4.257
27560SOL    HW284520  10.152   0.876   4.154
27561SOL     OW84521  12.940   3.147   7.037
27561SOL    HW184522  12.961   3.235   7.004
27561SOL    HW284523  13.025   3.110   7.060
27562SOL     OW84524  10.440  11.101   3.326
27562SOL    HW184525  10.358  11.060   3.352
27562SOL    HW284526  10.508  11.048   3.368
27563SOL     OW84527  11.893   8.245  14.690
27563SOL    HW184528  11.965   8.192  14.724
27563SOL    HW284529  11.853   8.190  14.623
27564SOL     OW84530  13.829  11.730  14.043
27564SOL    HW184531  13.851  11.665  14.110
27564SOL    HW284532  13.741  11.760  14.067
27565SOL     OW84533   5.592   6.866   6.693
27565SOL    HW184534   5.538   6.911   6.628
27565SOL    HW284535   5.674   6.847   6.647
27566SOL     OW84536   4.580  12.991   6.708
27566SOL    HW184537   4.571  12.896   6.706
27566SOL    HW284538   4.558  13.015   6.798
27567SOL     OW84539   6.477   4.239   4.960
27567SOL    HW184540   6.476   4.233   4.865
27567SOL    HW284541   6.406   4.181   4.988
27568SOL     OW84542   5.294   4.931   9.009
27568SOL    HW184543   5.369   4.937   8.950
27568SOL    HW284544   5.234   4.870   8.966
27569SOL     OW84545   4.970  11.573   7.142
27569SOL    HW184546   4.965  11.515   7.218
27569SOL    HW284547   4.926  11.524   7.072
27570SOL     OW84548   9.175   6.406   4.968
27570SOL    HW184549   9.175   6.337   5.035
27570SOL    HW284550   9.221   6.479   5.009
27571SOL     OW84551   0.078   4.656   8.427
27571SOL    HW184552  14.867   4.640   8.402
27571SOL    HW284553   0.112   4.570   8.451
27572SOL     OW84554  10.422   1.099  11.249
27572SOL    HW184555  10.458   1.121  11.335
27572SOL    HW284556  10.465   1.016  11.226
27573SOL     OW84557  14.521  12.171   6.604
27573SOL    HW184558  14.554  12.248   6.557
27573SOL    HW284559  14.453  12.135   6.546
27574SOL     OW84560   2.560   9.021   6.701
27574SOL    HW184561   2.537   9.103   6.744
27574SOL    HW284562   2.601   9.047   6.619
27575SOL     OW84563  10.411   9.311   4.340
27575SOL    HW184564  10.504   9.324   4.359
27575SOL    HW284565  10.376   9.399   4.330
27576SOL     OW84566   0.289  10.412   5.403
27576SOL    HW184567   0.238  10.493   5.404
27576SOL    HW284568   0.295  10.385   5.495
27577SOL     OW84569   0.465  13.636   8.219
27577SOL    HW184570   0.400  13.703   8.241
27577SOL    HW284571   0.443  13.561   8.274
27578SOL     OW84572   5.022   4.571   3.995
27578SOL    HW184573   5.111   4.551   4.022
27578SOL    HW284574   5.030   4.653   3.945
27579SOL     OW84575   7.671   4.126  12.656
27579SOL    HW184576   7.750   4.092  12.698
27579SOL    HW284577   7.600   4.106  12.717
27580SOL     OW84578   3.287   8.109   6.484
27580SOL    HW184579   3.338   8.154   6.417
27580SOL    HW284580   3.290   8.017   6.459
27581SOL     OW84581  13.435   4.854   0.863
27581SOL    HW184582  13.490   4.885   0.791
27581SOL    HW284583  13.346   4.860   0.829
27582SOL     OW84584  14.127   2.025  14.406
27582SOL    HW184585  14.168   2.000  14.324
27582SOL    HW284586  14.081   1.946  14.435
27583SOL     OW84587   7.772  11.971   4.860
27583SOL    HW184588   7.793  11.918   4.783
27583SOL    HW284589   7.856  11.989   4.901
27584SOL     OW84590   4.927   9.678   9.730
27584SOL    HW184591   4.846   9.629   9.741
27584SOL    HW284592   4.978   9.657   9.808
27585SOL     OW84593   9.905  12.181   2.499
27585SOL    HW184594   9.907  12.101   2.552
27585SOL    HW284595   9.997  12.202   2.484
27586SOL     OW84596   4.468   4.790   4.915
27586SOL    HW184597   4.446   4.735   4.991
27586SOL    HW284598   4.509   4.867   4.953
27587SOL     OW84599   8.549   2.195   7.302
27587SOL    HW184600   8.571   2.103   7.318
27587SOL    HW284601   8.486   2.193   7.230
27588SOL     OW84602  10.059   2.387   4.176
27588SOL    HW184603  10.082   2.426   4.261
27588SOL    HW284604  10.094   2.448   4.112
27589SOL     OW84605   0.141   7.732  12.727
27589SOL    HW184606   0.090   7.811  12.708
27589SOL    HW284607   0.231   7.757  12.707
27590SOL     OW84608   8.628  11.979   1.017
27590SOL    HW184609   8.628  12.020   0.930
27590SOL    HW284610   8.585  11.895   1.004
27591SOL     OW84611   1.584   9.324   2.633
27591SOL    HW184612   1.609   9.343   2.724
27591SOL    HW284613   1.659   9.276   2.597
27592SOL     OW84614   5.902  11.200   8.307
27592SOL    HW184615   5.893  11.126   8.367
27592SOL    HW284616   5.947  11.164   8.231
27593SOL     OW84617   1.539   3.484  13.119
27593SOL    HW184618   1.534   3.480  13.215
27593SOL    HW284619   1.456   3.449  13.089
27594SOL     OW84620   0.919   2.514   1.950
27594SOL    HW184621   0.962   2.534   2.033
27594SOL    HW284622   0.909   2.599   1.907
27595SOL     OW84623  10.839   6.327   4.077
27595SOL    HW184624  10.883   6.346   4.160
27595SOL    HW284625  10.752   6.366   4.087
27596SOL     OW84626  11.433   9.933  12.937
27596SOL    HW184627  11.441   9.838  12.925
27596SOL    HW284628  11.492   9.970  12.871
27597SOL     OW84629  13.822  13.104   8.875
27597SOL    HW184630  13.773  13.186   8.867
27597SOL    HW284631  13.759  13.043   8.913
27598SOL     OW84632   8.927  12.602  10.575
27598SOL    HW184633   8.920  12.696  10.561
27598SOL    HW284634   8.972  12.569  10.496
27599SOL     OW84635  10.504   5.447   5.685
27599SOL    HW184636  10.481   5.502   5.610
27599SOL    HW284637  10.595   5.422   5.670
27600SOL     OW84638  10.304   5.123  12.302
27600SOL    HW184639  10.293   5.064  12.227
27600SOL    HW284640  10.227   5.108  12.356
27601SOL     OW84641   1.065  14.708   8.165
27601SOL    HW184642   0.979  14.683   8.200
27601SOL    HW284643   1.125  14.694   8.239
27602SOL     OW84644   1.294  14.311   0.750
27602SOL    HW184645   1.232  14.335   0.681
27602SOL    HW284646   1.359  14.380   0.750
27603SOL     OW84647  14.663  13.624   1.952
27603SOL    HW184648  14.723  13.675   2.006
27603SOL    HW284649  14.590  13.683   1.934
27604SOL     OW84650   9.705  14.185   1.951
27604SOL    HW184651   9.718  14.192   2.045
27604SOL    HW284652   9.659  14.265   1.927
27605SOL     OW84653   3.262   9.630   2.480
27605SOL    HW184654   3.225   9.681   2.408
27605SOL    HW284655   3.283   9.545   2.440
27606SOL     OW84656  11.936   3.696  13.682
27606SOL    HW184657  11.936   3.689  13.777
27606SOL    HW284658  12.019   3.738  13.660
27607SOL     OW84659   0.384   4.059   3.315
27607SOL    HW184660   0.351   4.134   3.364
27607SOL    HW284661   0.436   4.009   3.378
27608SOL     OW84662   8.467  12.126  11.250
27608SOL    HW184663   8.409  12.062  11.209
27608SOL    HW284664   8.464  12.106  11.343
27609SOL     OW84665   6.254   1.128   1.723
27609SOL    HW184666   6.178   1.106   1.669
27609SOL    HW284667   6.227   1.104   1.812
27610SOL     OW84668   0.649  14.073   2.590
27610SOL    HW184669   0.628  14.032   2.507
27610SOL    HW284670   0.721  14.132   2.570
27611SOL     OW84671   5.302  10.053   1.074
27611SOL    HW184672   5.261  10.030   1.157
27611SOL    HW284673   5.248  10.125   1.040
27612SOL     OW84674  14.574  14.326   0.883
27612SOL    HW184675  14.504  14.296   0.825
27612SOL    HW284676  14.530  14.383   0.946
27613SOL     OW84677   7.940   8.843   9.249
27613SOL    HW184678   7.858   8.857   9.202
27613SOL    HW284679   7.999   8.806   9.183
27614SOL     OW84680  11.708   5.971   4.365
27614SOL    HW184681  11.671   5.973   4.277
27614SOL    HW284682  11.773   5.900   4.362
27615SOL     OW84683   1.156  14.829   7.454
27615SOL    HW184684   1.061  14.834   7.461
27615SOL    HW284685   1.174  14.737   7.436
27616SOL     OW84686   7.237  12.231   7.222
27616SOL    HW184687   7.250  12.288   7.146
27616SOL    HW284688   7.143  12.235   7.239
27617SOL     OW84689  14.758   1.045   3.117
27617SOL    HW184690  14.784   1.108   3.184
27617SOL    HW284691  14.773   0.959   3.156
27618SOL     OW84692   4.875   3.571   4.424
27618SOL    HW184693   4.934   3.566   4.348
27618SOL    HW284694   4.845   3.662   4.424
27619SOL     OW84695   7.417   2.916   2.296
27619SOL    HW184696   7.483   2.862   2.339
27619SOL    HW284697   7.404   2.876   2.210
27620SOL     OW84698  12.026   7.525   8.884
27620SOL    HW184699  12.027   7.444   8.935
27620SOL    HW284700  11.952   7.575   8.920
27621SOL     OW84701   0.519  14.713   3.049
27621SOL    HW184702   0.597  14.767   3.062
27621SOL    HW284703   0.553  14.624   3.035
27622SOL     OW84704   8.240   5.724   0.256
27622SOL    HW184705   8.268   5.693   0.342
27622SOL    HW284706   8.311   5.781   0.226
27623SOL     OW84707  11.251  11.902   2.320
27623SOL    HW184708  11.278  11.978   2.269
27623SOL    HW284709  11.164  11.925   2.353
27624SOL     OW84710   0.859  14.172  11.690
27624SOL    HW184711   0.782  14.207  11.735
27624SOL    HW284712   0.862  14.220  11.607
27625SOL     OW84713   9.249   1.406  13.165
27625SOL    HW184714   9.241   1.447  13.251
27625SOL    HW284715   9.219   1.473  13.104
27626SOL     OW84716  12.804  10.297   6.716
27626SOL    HW184717  12.813  10.203   6.699
27626SOL    HW284718  12.795  10.336   6.629
27627SOL     OW84719   7.185  14.247  13.557
27627SOL    HW184720   7.277  14.260  13.580
27627SOL    HW284721   7.169  14.308  13.486
27628SOL     OW84722  12.248   7.166   9.450
27628SOL    HW184723  12.264   7.073   9.466
27628SOL    HW284724  12.326   7.196   9.402
27629SOL     OW84725   8.855  13.189  13.250
27629SOL    HW184726   8.904  13.120  13.296
27629SOL    HW284727   8.907  13.268  13.262
27630SOL     OW84728  13.314  13.908  13.336
27630SOL    HW184729  13.261  13.918  13.257
27630SOL    HW284730  13.373  13.836  13.317
27631SOL     OW84731  14.394   5.758   3.917
27631SOL    HW184732  14.390   5.775   3.823
27631SOL    HW284733  14.487   5.747   3.936
27632SOL     OW84734   1.505  10.621   2.009
27632SOL    HW184735   1.521  10.643   2.101
27632SOL    HW284736   1.505  10.525   2.007
27633SOL     OW84737  11.760   1.216   0.755
27633SOL    HW184738  11.696   1.150   0.727
27633SOL    HW284739  11.708   1.295   0.768
27634SOL     OW84740   8.726  12.373  11.625
27634SOL    HW184741   8.799  12.374  11.688
27634SOL    HW284742   8.767  12.392  11.541
27635SOL     OW84743  14.355   5.643   2.788
27635SOL    HW184744  14.282   5.626   2.847
27635SOL    HW284745  14.390   5.728   2.816
27636SOL     OW84746   9.354   7.815  10.066
27636SOL    HW184747   9.440   7.773  10.074
27636SOL    HW284748   9.361   7.894  10.120
27637SOL     OW84749   0.900  12.255  10.668
27637SOL    HW184750   0.886  12.161  10.653
27637SOL    HW284751   0.980  12.260  10.720
27638SOL     OW84752   3.747  13.101   5.212
27638SOL    HW184753   3.832  13.085   5.170
27638SOL    HW284754   3.760  13.073   5.303
27639SOL     OW84755  11.197  10.168   8.432
27639SOL    HW184756  11.155  10.109   8.369
27639SOL    HW284757  11.282  10.128   8.448
27640SOL     OW84758   6.446   2.885  12.039
27640SOL    HW184759   6.476   2.813  12.096
27640SOL    HW284760   6.374   2.847  11.989
27641SOL     OW84761   6.301   4.369   7.141
27641SOL    HW184762   6.296   4.354   7.047
27641SOL    HW284763   6.307   4.464   7.150
27642SOL     OW84764  12.816  11.463   4.869
27642SOL    HW184765  12.908  11.451   4.843
27642SOL    HW284766  12.772  11.384   4.837
27643SOL     OW84767   6.803   2.973   6.537
27643SOL    HW184768   6.780   3.054   6.491
27643SOL    HW284769   6.870   2.932   6.481
27644SOL     OW84770   5.452   0.232   6.855
27644SOL    HW184771   5.368   0.277   6.852
27644SOL    HW284772   5.506   0.279   6.791
27645SOL     OW84773   2.108   2.436   6.822
27645SOL    HW184774   2.034   2.495   6.838
27645SOL    HW284775   2.070   2.364   6.771
27646SOL     OW84776   4.793   2.583  11.810
27646SOL    HW184777   4.817   2.663  11.858
27646SOL    HW284778   4.840   2.514  11.855
27647SOL     OW84779  10.558   8.686  14.751
27647SOL    HW184780  10.529   8.601  14.785
27647SOL    HW284781  10.514   8.750  14.806
27648SOL     OW84782   1.399  10.871   0.804
27648SOL    HW184783   1.341  10.795   0.816
27648SOL    HW284784   1.368  10.911   0.722
27649SOL     OW84785   9.690   3.001   8.906
27649SOL    HW184786   9.661   3.051   8.983
27649SOL    HW284787   9.619   3.013   8.842
27650SOL     OW84788   2.141   5.481  14.577
27650SOL    HW184789   2.208   5.548  14.569
27650SOL    HW284790   2.061   5.530  14.597
27651SOL     OW84791  12.994   7.768   7.492
27651SOL    HW184792  12.929   7.746   7.425
27651SOL    HW284793  13.010   7.861   7.479
27652SOL     OW84794   4.060   6.837   9.020
27652SOL    HW184795   4.084   6.813   9.110
27652SOL    HW284796   4.143   6.857   8.977
27653SOL     OW84797   8.826   3.506   4.876
27653SOL    HW184798   8.837   3.551   4.960
27653SOL    HW284799   8.911   3.466   4.858
27654SOL     OW84800   2.942   0.443  14.442
27654SOL    HW184801   2.892   0.518  14.471
27654SOL    HW284802   2.921   0.434  14.349
27655SOL     OW84803  13.581   0.680  11.868
27655SOL    HW184804  13.519   0.613  11.839
27655SOL    HW284805  13.647   0.631  11.918
27656SOL     OW84806  11.961  13.726   8.395
27656SOL    HW184807  12.004  13.709   8.479
27656SOL    HW284808  11.879  13.677   8.399
27657SOL     OW84809   2.627  14.543  13.551
27657SOL    HW184810   2.587  14.472  13.500
27657SOL    HW284811   2.619  14.620  13.495
27658SOL     OW84812   3.446   9.296   8.373
27658SOL    HW184813   3.443   9.223   8.312
27658SOL    HW284814   3.354   9.315   8.392
27659SOL     OW84815   6.162   5.977   0.033
27659SOL    HW184816   6.088   6.023  14.872
27659SOL    HW284817   6.144   5.981   0.127
27660SOL     OW84818   1.693   9.998  10.725
27660SOL    HW184819   1.737   9.930  10.674
27660SOL    HW284820   1.758  10.025  10.790
27661SOL     OW84821  11.017   0.463   2.684
27661SOL    HW184822  11.020   0.372   2.653
27661SOL    HW284823  11.026   0.516   2.605
27662SOL     OW84824   9.181   6.090  13.777
27662SOL    HW184825   9.232   6.123  13.703
27662SOL    HW284826   9.206   5.998  13.784
27663SOL     OW84827  12.350   3.096  13.556
27663SOL    HW184828  12.411   3.120  13.627
27663SOL    HW284829  12.384   3.013  13.523
27664SOL     OW84830  10.130   5.501   0.380
27664SOL    HW184831  10.051   5.466   0.421
27664SOL    HW284832  10.137   5.453   0.297
27665SOL     OW84833   1.026  13.555   7.837
27665SOL    HW184834   0.995  13.626   7.780
27665SOL    HW284835   1.059  13.488   7.777
27666SOL     OW84836   3.035   7.026   9.532
27666SOL    HW184837   2.959   7.019   9.474
27666SOL    HW284838   2.998   7.036   9.620
27667SOL     OW84839   4.902  14.750  12.291
27667SOL    HW184840   4.860  14.798  12.220
27667SOL    HW284841   4.830  14.725  12.349
27668SOL     OW84842   9.207   9.341   9.516
27668SOL    HW184843   9.243   9.401   9.581
27668SOL    HW284844   9.283   9.295   9.481
27669SOL     OW84845  11.234  11.275   5.511
27669SOL    HW184846  11.239  11.180   5.523
27669SOL    HW284847  11.198  11.307   5.593
27670SOL     OW84848  13.502  11.163  11.518
27670SOL    HW184849  13.505  11.069  11.539
27670SOL    HW284850  13.585  11.179  11.472
27671SOL     OW84851   6.472   8.495   8.267
27671SOL    HW184852   6.565   8.472   8.262
27671SOL    HW284853   6.455   8.507   8.360
27672SOL     OW84854   5.488   1.061   4.054
27672SOL    HW184855   5.481   0.965   4.050
27672SOL    HW284856   5.417   1.092   3.998
27673SOL     OW84857   4.637   4.001   9.430
27673SOL    HW184858   4.666   3.955   9.352
27673SOL    HW284859   4.599   4.083   9.398
27674SOL     OW84860   2.872   6.515   4.867
27674SOL    HW184861   2.952   6.544   4.822
27674SOL    HW284862   2.830   6.455   4.804
27675SOL     OW84863   9.662   8.914  14.501
27675SOL    HW184864   9.707   8.993  14.531
27675SOL    HW284865   9.701   8.895  14.415
27676SOL     OW84866   2.693  12.701   4.899
27676SOL    HW184867   2.738  12.650   4.832
27676SOL    HW284868   2.649  12.636   4.954
27677SOL     OW84869   4.693   5.725  12.704
27677SOL    HW184870   4.650   5.811  12.700
27677SOL    HW284871   4.639   5.669  12.649
27678SOL     OW84872   2.737   5.759   1.756
27678SOL    HW184873   2.684   5.834   1.783
27678SOL    HW284874   2.684   5.713   1.692
27679SOL     OW84875  13.459   0.681   2.226
27679SOL    HW184876  13.392   0.715   2.284
27679SOL    HW284877  13.417   0.608   2.181
27680SOL     OW84878   3.251  14.774   3.738
27680SOL    HW184879   3.223  14.682   3.738
27680SOL    HW284880   3.346  14.770   3.739
27681SOL     OW84881   2.296   7.533   4.908
27681SOL    HW184882   2.207   7.504   4.886
27681SOL    HW284883   2.296   7.627   4.888
27682SOL     OW84884  13.719   8.908   0.557
27682SOL    HW184885  13.665   8.985   0.575
27682SOL    HW284886  13.772   8.897   0.636
27683SOL     OW84887   5.895   8.125   2.102
27683SOL    HW184888   5.887   8.212   2.062
27683SOL    HW284889   5.827   8.123   2.168
27684SOL     OW84890  13.966   8.384   2.768
27684SOL    HW184891  13.923   8.386   2.854
27684SOL    HW284892  13.899   8.413   2.707
27685SOL     OW84893  13.084   1.228  14.503
27685SOL    HW184894  13.178   1.218  14.484
27685SOL    HW284895  13.081   1.297  14.569
27686SOL     OW84896   5.896   0.340   4.898
27686SOL    HW184897   5.832   0.380   4.957
27686SOL    HW284898   5.971   0.400   4.901
27687SOL     OW84899  13.066  13.338  13.289
27687SOL    HW184900  13.050  13.345  13.195
27687SOL    HW284901  13.082  13.245  13.304
27688SOL     OW84902   3.193   8.270   1.805
27688SOL    HW184903   3.241   8.331   1.750
27688SOL    HW284904   3.122   8.239   1.750
27689SOL     OW84905   3.624   5.049  14.409
27689SOL    HW184906   3.653   5.139  14.403
27689SOL    HW284907   3.649   5.010  14.325
27690SOL     OW84908   1.672   3.957   7.833
27690SOL    HW184909   1.706   4.036   7.874
27690SOL    HW284910   1.634   3.907   7.906
27691SOL     OW84911   6.526   6.135   0.491
27691SOL    HW184912   6.598   6.085   0.452
27691SOL    HW284913   6.543   6.131   0.585
27692SOL     OW84914   1.040   5.082   2.551
27692SOL    HW184915   1.053   5.135   2.473
27692SOL    HW284916   1.120   5.030   2.558
27693SOL     OW84917   2.968  13.783  14.484
27693SOL    HW184918   2.894  13.741  14.528
27693SOL    HW284919   2.978  13.736  14.401
27694SOL     OW84920   2.827   6.315  12.712
27694SOL    HW184921   2.855   6.272  12.792
27694SOL    HW284922   2.749   6.365  12.738
27695SOL     OW84923   0.656   7.801  11.506
27695SOL    HW184924   0.617   7.779  11.591
27695SOL    HW284925   0.582   7.823  11.451
27696SOL     OW84926   7.292   2.116   1.608
27696SOL    HW184927   7.265   2.024   1.596
27696SOL    HW284928   7.362   2.112   1.673
27697SOL     OW84929  14.317  13.585   5.220
27697SOL    HW184930  14.263  13.664   5.214
27697SOL    HW284931  14.277  13.534   5.291
27698SOL     OW84932   6.973   8.540   3.118
27698SOL    HW184933   6.921   8.504   3.190
27698SOL    HW284934   7.059   8.500   3.128
27699SOL     OW84935   7.196   3.670   8.013
27699SOL    HW184936   7.269   3.706   7.962
27699SOL    HW284937   7.151   3.611   7.952
27700SOL     OW84938  10.078   4.468   6.900
27700SOL    HW184939  10.141   4.398   6.887
27700SOL    HW284940  10.007   4.448   6.838
27701SOL     OW84941   2.926   2.773  10.978
27701SOL    HW184942   2.967   2.696  10.940
27701SOL    HW284943   2.835   2.767  10.951
27702SOL     OW84944   9.352  10.994   2.801
27702SOL    HW184945   9.380  11.075   2.843
27702SOL    HW284946   9.314  10.942   2.871
27703SOL     OW84947   1.770   2.688   3.153
27703SOL    HW184948   1.767   2.636   3.073
27703SOL    HW284949   1.862   2.688   3.178
27704SOL     OW84950  14.176  12.205   8.048
27704SOL    HW184951  14.162  12.252   8.130
27704SOL    HW284952  14.126  12.255   7.983
27705SOL     OW84953  13.549   0.799   3.925
27705SOL    HW184954  13.474   0.792   3.866
27705SOL    HW284955  13.521   0.756   4.006
27706SOL     OW84956   7.872   9.922   2.373
27706SOL    HW184957   7.805   9.922   2.304
27706SOL    HW284958   7.864   9.837   2.415
27707SOL     OW84959   9.876  10.825  10.734
27707SOL    HW184960   9.831  10.778  10.664
27707SOL    HW284961   9.958  10.854  10.694
27708SOL     OW84962   2.006   8.561   4.950
27708SOL    HW184963   1.933   8.499   4.941
27708SOL    HW284964   2.020   8.594   4.861
27709SOL     OW84965  12.634   1.245   4.319
27709SOL    HW184966  12.700   1.239   4.388
27709SOL    HW284967  12.564   1.297   4.357
27710SOL     OW84968   7.022   1.942   2.998
27710SOL    HW184969   7.011   2.030   3.035
27710SOL    HW284970   6.954   1.890   3.041
27711SOL     OW84971   0.713   1.133  10.787
27711SOL    HW184972   0.727   1.042  10.761
27711SOL    HW284973   0.701   1.129  10.881
27712SOL     OW84974   6.307  14.505  13.326
27712SOL    HW184975   6.265  14.465  13.250
27712SOL    HW284976   6.236  14.539  13.379
27713SOL     OW84977   4.491   3.976   2.907
27713SOL    HW184978   4.575   4.015   2.885
27713SOL    HW284979   4.435   3.993   2.831
27714SOL     OW84980   1.617   1.147   9.186
27714SOL    HW184981   1.551   1.214   9.167
27714SOL    HW284982   1.689   1.166   9.127
27715SOL     OW84983   9.928   9.184   9.369
27715SOL    HW184984   9.858   9.119   9.365
27715SOL    HW284985   9.883   9.268   9.378
27716SOL     OW84986  10.477   3.405   3.865
27716SOL    HW184987  10.564   3.437   3.843
27716SOL    HW284988  10.489   3.311   3.880
27717SOL     OW84989   4.588   6.933  12.402
27717SOL    HW184990   4.530   7.008  12.388
27717SOL    HW284991   4.659   6.945  12.339
27718SOL     OW84992   0.289  11.227   1.104
27718SOL    HW184993   0.380  11.196   1.110
27718SOL    HW284994   0.241  11.153   1.066
27719SOL     OW84995  11.266   5.632  14.027
27719SOL    HW184996  11.318   5.594  14.097
27719SOL    HW284997  11.325   5.637  13.952
27720SOL     OW84998   9.782   7.890  11.381
27720SOL    HW184999   9.866   7.893  11.335
27720SOL    HW285000   9.798   7.939  11.462
27721SOL     OW85001  10.689   9.914   2.699
27721SOL    HW185002  10.750   9.866   2.644
27721SOL    HW285003  10.632   9.960   2.638
27722SOL     OW85004  14.036   7.515   3.794
27722SOL    HW185005  14.094   7.585   3.824
27722SOL    HW285006  14.094   7.455   3.747
27723SOL     OW85007   3.829   9.356  13.920
27723SOL    HW185008   3.758   9.298  13.893
27723SOL    HW285009   3.908   9.303  13.910
27724SOL     OW85010   9.426   3.477  14.803
27724SOL    HW185011   9.466   3.545  14.857
27724SOL    HW285012   9.366   3.525  14.746
27725SOL     OW85013   3.396  14.490   5.671
27725SOL    HW185014   3.345  14.437   5.732
27725SOL    HW285015   3.451  14.544   5.726
27726SOL     OW85016  10.563   3.430   9.660
27726SOL    HW185017  10.562   3.358   9.596
27726SOL    HW285018  10.471   3.447   9.679
27727SOL     OW85019   2.157   2.781  10.688
27727SOL    HW185020   2.133   2.870  10.663
27727SOL    HW285021   2.232   2.790  10.746
27728SOL     OW85022  11.043   4.325  14.180
27728SOL    HW185023  10.977   4.256  14.178
27728SOL    HW285024  11.085   4.322  14.094
27729SOL     OW85025   9.082   8.825   4.187
27729SOL    HW185026   9.100   8.841   4.095
27729SOL    HW285027   9.068   8.912   4.225
27730SOL     OW85028   1.342   8.354  13.712
27730SOL    HW185029   1.371   8.367  13.621
27730SOL    HW285030   1.255   8.394  13.715
27731SOL     OW85031   1.826   9.690  13.358
27731SOL    HW185032   1.799   9.780  13.376
27731SOL    HW285033   1.911   9.681  13.401
27732SOL     OW85034   9.091   4.899  13.137
27732SOL    HW185035   9.054   4.899  13.049
27732SOL    HW285036   9.053   4.976  13.179
27733SOL     OW85037   1.518   7.632  11.185
27733SOL    HW185038   1.612   7.613  11.191
27733SOL    HW285039   1.478   7.583  11.256
27734SOL     OW85040   4.367   8.061   8.130
27734SOL    HW185041   4.447   8.013   8.149
27734SOL    HW285042   4.337   8.024   8.047
27735SOL     OW85043   8.172  11.655   6.375
27735SOL    HW185044   8.081  11.652   6.345
27735SOL    HW285045   8.177  11.588   6.444
27736SOL     OW85046   7.721   8.740   0.121
27736SOL    HW185047   7.627   8.724   0.128
27736SOL    HW285048   7.757   8.703   0.202
27737SOL     OW85049   5.604   2.424   9.971
27737SOL    HW185050   5.643   2.362  10.033
27737SOL    HW285051   5.673   2.488   9.956
27738SOL     OW85052  14.790  12.724   6.682
27738SOL    HW185053  14.872  12.675   6.691
27738SOL    HW285054  14.816  12.807   6.642
27739SOL     OW85055   2.634   8.275   2.587
27739SOL    HW185056   2.553   8.279   2.536
27739SOL    HW285057   2.692   8.338   2.545
27740SOL     OW85058   1.433   8.886   0.373
27740SOL    HW185059   1.399   8.802   0.340
27740SOL    HW285060   1.515   8.898   0.326
27741SOL     OW85061  11.655  12.378   7.745
27741SOL    HW185062  11.633  12.442   7.678
27741SOL    HW285063  11.744  12.401   7.773
27742SOL     OW85064  10.526  10.702   3.545
27742SOL    HW185065  10.469  10.641   3.497
27742SOL    HW285066  10.490  10.704   3.633
27743SOL     OW85067   9.213   1.620   7.778
27743SOL    HW185068   9.219   1.560   7.854
27743SOL    HW285069   9.155   1.690   7.807
27744SOL     OW85070  12.417   2.648  14.591
27744SOL    HW185071  12.352   2.661  14.521
27744SOL    HW285072  12.501   2.662  14.547
27745SOL     OW85073   0.824   0.113  12.841
27745SOL    HW185074   0.809   0.084  12.931
27745SOL    HW285075   0.914   0.143  12.840
27746SOL     OW85076   9.032   9.198  10.791
27746SOL    HW185077   9.038   9.250  10.872
27746SOL    HW285078   8.965   9.132  10.810
27747SOL     OW85079  14.434   5.020   7.255
27747SOL    HW185080  14.401   4.951   7.313
27747SOL    HW285081  14.497   5.068   7.308
27748SOL     OW85082   4.118   2.201   7.824
27748SOL    HW185083   4.074   2.118   7.803
27748SOL    HW285084   4.082   2.263   7.761
27749SOL     OW85085   6.743   4.643   4.600
27749SOL    HW185086   6.724   4.705   4.531
27749SOL    HW285087   6.804   4.581   4.560
27750SOL     OW85088  14.450  13.227   7.297
27750SOL    HW185089  14.438  13.158   7.233
27750SOL    HW285090  14.478  13.182   7.377
27751SOL     OW85091   2.493  10.815   6.625
27751SOL    HW185092   2.418  10.812   6.565
27751SOL    HW285093   2.468  10.878   6.692
27752SOL     OW85094   8.178   0.661   6.898
27752SOL    HW185095   8.225   0.603   6.958
27752SOL    HW285096   8.222   0.651   6.814
27753SOL     OW85097  13.527   8.974  14.596
27753SOL    HW185098  13.521   9.065  14.570
27753SOL    HW285099  13.451   8.932  14.555
27754SOL     OW85100  13.538  10.967   3.242
27754SOL    HW185101  13.477  11.002   3.177
27754SOL    HW285102  13.587  10.900   3.194
27755SOL     OW85103   9.203   8.401   9.773
27755SOL    HW185104   9.182   8.489   9.806
27755SOL    HW285105   9.252   8.417   9.693
27756SOL     OW85106   5.961  11.610   7.542
27756SOL    HW185107   5.895  11.608   7.473
27756SOL    HW285108   5.933  11.680   7.600
27757SOL     OW85109   0.403   2.947  12.317
27757SOL    HW185110   0.486   2.947  12.271
27757SOL    HW285111   0.382   2.855  12.329
27758SOL     OW85112   7.703  12.928   9.527
27758SOL    HW185113   7.783  12.936   9.476
27758SOL    HW285114   7.633  12.951   9.466
27759SOL     OW85115   1.067  14.867   2.639
27759SOL    HW185116   1.030   0.042   2.708
27759SOL    HW285117   1.095  14.787   2.683
27760SOL     OW85118   7.730   2.019   8.562
27760SOL    HW185119   7.735   1.931   8.601
27760SOL    HW285120   7.744   2.004   8.469
27761SOL     OW85121   4.559   6.541   4.892
27761SOL    HW185122   4.531   6.632   4.882
27761SOL    HW285123   4.606   6.521   4.812
27762SOL     OW85124   5.266   3.285   6.612
27762SOL    HW185125   5.233   3.198   6.631
27762SOL    HW285126   5.357   3.271   6.585
27763SOL     OW85127   5.820   4.257   0.284
27763SOL    HW185128   5.855   4.299   0.363
27763SOL    HW285129   5.725   4.258   0.296
27764SOL     OW85130   5.315  13.379  11.491
27764SOL    HW185131   5.317  13.424  11.407
27764SOL    HW285132   5.326  13.449  11.556
27765SOL     OW85133  12.106   3.939   1.001
27765SOL    HW185134  12.111   3.901   0.913
27765SOL    HW285135  12.165   4.014   0.998
27766SOL     OW85136  12.229   7.006   0.565
27766SOL    HW185137  12.143   6.966   0.572
27766SOL    HW285138  12.239   7.026   0.471
27767SOL     OW85139   9.328   1.226   4.839
27767SOL    HW185140   9.313   1.246   4.747
27767SOL    HW285141   9.243   1.199   4.873
27768SOL     OW85142  11.697   2.672  11.086
27768SOL    HW185143  11.659   2.753  11.120
27768SOL    HW285144  11.649   2.602  11.131
27769SOL     OW85145   0.062   5.027   1.922
27769SOL    HW185146   0.117   5.090   1.875
27769SOL    HW285147   0.098   4.941   1.897
27770SOL     OW85148   5.653  11.993   5.234
27770SOL    HW185149   5.571  12.038   5.250
27770SOL    HW285150   5.629  11.915   5.184
27771SOL     OW85151   8.436  10.659   0.775
27771SOL    HW185152   8.495  10.651   0.850
27771SOL    HW285153   8.434  10.571   0.737
27772SOL     OW85154   9.094  10.574  13.691
27772SOL    HW185155   9.135  10.494  13.723
27772SOL    HW285156   9.139  10.644  13.738
27773SOL     OW85157   8.636   7.613  13.515
27773SOL    HW185158   8.714   7.582  13.467
27773SOL    HW285159   8.589   7.667  13.451
27774SOL     OW85160  12.981   9.032  11.305
27774SOL    HW185161  12.990   8.951  11.254
27774SOL    HW285162  12.926   9.007  11.379
27775SOL     OW85163   8.497   9.045  14.504
27775SOL    HW185164   8.491   9.119  14.443
27775SOL    HW285165   8.554   8.982  14.459
27776SOL     OW85166   8.975  13.460  10.440
27776SOL    HW185167   9.057  13.410  10.443
27776SOL    HW285168   8.990  13.536  10.495
27777SOL     OW85169   7.628   5.161   1.111
27777SOL    HW185170   7.561   5.095   1.096
27777SOL    HW285171   7.581   5.236   1.146
27778SOL     OW85172   2.620  12.935   4.808
27778SOL    HW185173   2.654  12.859   4.855
27778SOL    HW285174   2.525  12.926   4.814
27779SOL     OW85175   7.737   4.598   9.882
27779SOL    HW185176   7.768   4.520   9.836
27779SOL    HW285177   7.756   4.581   9.975
27780SOL     OW85178   9.124  14.632  14.383
27780SOL    HW185179   9.173  14.555  14.356
27780SOL    HW285180   9.092  14.611  14.470
27781SOL     OW85181   7.236   8.064   8.707
27781SOL    HW185182   7.287   7.989   8.676
27781SOL    HW285183   7.285   8.140   8.678
27782SOL     OW85184  12.244   8.772  12.324
27782SOL    HW185185  12.260   8.807  12.236
27782SOL    HW285186  12.149   8.760  12.327
27783SOL     OW85187   9.034   8.512  12.864
27783SOL    HW185188   8.963   8.574  12.877
27783SOL    HW285189   9.047   8.510  12.769
27784SOL     OW85190  10.223   7.822  14.696
27784SOL    HW185191  10.220   7.914  14.720
27784SOL    HW285192  10.222   7.775  14.779
27785SOL     OW85193   0.321   2.140   4.618
27785SOL    HW185194   0.378   2.092   4.678
27785SOL    HW285195   0.242   2.158   4.668
27786SOL     OW85196   5.258   9.785   0.936
27786SOL    HW185197   5.165   9.765   0.947
27786SOL    HW285198   5.267   9.876   0.962
27787SOL     OW85199   5.662  10.223   6.953
27787SOL    HW185200   5.643  10.270   7.034
27787SOL    HW285201   5.637  10.284   6.883
27788SOL     OW85202   2.881   1.423  11.421
27788SOL    HW185203   2.825   1.346  11.424
27788SOL    HW285204   2.855   1.475  11.498
27789SOL     OW85205   1.486  13.752   5.174
27789SOL    HW185206   1.489  13.815   5.103
27789SOL    HW285207   1.578  13.737   5.198
27790SOL     OW85208  13.386  10.128  11.728
27790SOL    HW185209  13.423  10.187  11.794
27790SOL    HW285210  13.459  10.071  11.703
27791SOL     OW85211   0.669  10.465   3.567
27791SOL    HW185212   0.757  10.428   3.557
27791SOL    HW285213   0.619  10.432   3.492
27792SOL     OW85214   0.776  13.763  13.524
27792SOL    HW185215   0.852  13.811  13.491
27792SOL    HW285216   0.759  13.801  13.610
27793SOL     OW85217  10.206  10.265  13.585
27793SOL    HW185218  10.157  10.210  13.525
27793SOL    HW285219  10.164  10.351  13.580
27794SOL     OW85220  12.459   1.271   7.866
27794SOL    HW185221  12.526   1.207   7.892
27794SOL    HW285222  12.491   1.308   7.784
27795SOL     OW85223  10.521  14.059   8.440
27795SOL    HW185224  10.531  14.046   8.346
27795SOL    HW285225  10.604  14.026   8.477
27796SOL     OW85226  12.169   0.987   8.210
27796SOL    HW185227  12.245   0.930   8.208
27796SOL    HW285228  12.201   1.072   8.181
27797SOL     OW85229   5.890   7.040  11.110
27797SOL    HW185230   5.872   6.995  11.193
27797SOL    HW285231   5.841   7.122  11.116
27798SOL     OW85232  13.514  12.343  13.237
27798SOL    HW185233  13.608  12.356  13.226
27798SOL    HW285234  13.490  12.278  13.171
27799SOL     OW85235  13.812   1.277  14.235
27799SOL    HW185236  13.880   1.245  14.295
27799SOL    HW285237  13.840   1.365  14.212
27800SOL     OW85238   4.584  12.452  14.026
27800SOL    HW185239   4.620  12.436  14.114
27800SOL    HW285240   4.639  12.399  13.968
27801SOL     OW85241   7.920   8.547   9.235
27801SOL    HW185242   7.829   8.550   9.264
27801SOL    HW285243   7.921   8.595   9.152
27802SOL     OW85244  13.594  11.601   0.197
27802SOL    HW185245  13.631  11.530   0.144
27802SOL    HW285246  13.621  11.681   0.152
27803SOL     OW85247  11.159  14.460   8.911
27803SOL    HW185248  11.206  14.535   8.875
27803SOL    HW285249  11.185  14.458   9.003
27804SOL     OW85250   2.824   7.217  10.155
27804SOL    HW185251   2.862   7.273  10.222
27804SOL    HW285252   2.800   7.136  10.201
27805SOL     OW85253   5.378   8.235  10.914
27805SOL    HW185254   5.292   8.251  10.952
27805SOL    HW285255   5.373   8.271  10.826
27806SOL     OW85256   0.111  11.727   7.304
27806SOL    HW185257   0.087  11.683   7.222
27806SOL    HW285258   0.027  11.743   7.348
27807SOL     OW85259   7.285   1.244   3.972
27807SOL    HW185260   7.379   1.247   3.987
27807SOL    HW285261   7.252   1.327   4.004
27808SOL     OW85262  10.700   5.951   0.431
27808SOL    HW185263  10.700   5.855   0.430
27808SOL    HW285264  10.631   5.976   0.370
27809SOL     OW85265   7.053  13.545   9.495
27809SOL    HW185266   6.968  13.584   9.516
27809SOL    HW285267   7.117  13.611   9.522
27810SOL     OW85268  13.838  12.675   6.817
27810SOL    HW185269  13.794  12.620   6.752
27810SOL    HW285270  13.895  12.732   6.765
27811SOL     OW85271  12.726   0.094   6.190
27811SOL    HW185272  12.714   0.121   6.281
27811SOL    HW285273  12.820   0.075   6.182
27812SOL     OW85274   7.528  13.432  11.428
27812SOL    HW185275   7.543  13.437  11.522
27812SOL    HW285276   7.460  13.365  11.419
27813SOL     OW85277   8.429   6.485  11.878
27813SOL    HW185278   8.435   6.393  11.905
27813SOL    HW285279   8.431   6.482  11.783
27814SOL     OW85280   9.552   5.507   9.984
27814SOL    HW185281   9.524   5.500   9.893
27814SOL    HW285282   9.496   5.576  10.021
27815SOL     OW85283   5.373   9.437   8.737
27815SOL    HW185284   5.336   9.525   8.740
27815SOL    HW285285   5.316   9.385   8.794
27816SOL     OW85286   1.493  12.647   0.645
27816SOL    HW185287   1.547  12.711   0.598
27816SOL    HW285288   1.499  12.673   0.737
27817SOL     OW85289  13.586   0.902   4.189
27817SOL    HW185290  13.580   0.962   4.115
27817SOL    HW285291  13.535   0.825   4.162
27818SOL     OW85292   9.984   5.615  10.430
27818SOL    HW185293  10.052   5.588  10.492
27818SOL    HW285294  10.029   5.675  10.370
27819SOL     OW85295   4.890   3.350   2.563
27819SOL    HW185296   4.817   3.317   2.616
27819SOL    HW285297   4.853   3.360   2.475
27820SOL     OW85298   1.984   0.425   2.907
27820SOL    HW185299   1.938   0.480   2.970
27820SOL    HW285300   1.922   0.355   2.886
27821SOL     OW85301  12.765   3.948  10.450
27821SOL    HW185302  12.715   4.021  10.414
27821SOL    HW285303  12.714   3.917  10.524
27822SOL     OW85304  12.365   3.813  12.624
27822SOL    HW185305  12.428   3.767  12.568
27822SOL    HW285306  12.300   3.849  12.564
27823SOL     OW85307  14.746   3.031  10.254
27823SOL    HW185308  14.842   3.022  10.257
27823SOL    HW285309  14.717   2.955  10.204
27824SOL     OW85310   8.093   4.566   4.449
27824SOL    HW185311   8.055   4.650   4.473
27824SOL    HW285312   8.162   4.589   4.386
27825SOL     OW85313   3.563  14.086   3.306
27825SOL    HW185314   3.600  13.998   3.309
27825SOL    HW285315   3.635  14.143   3.279
27826SOL     OW85316   1.609   4.003  10.541
27826SOL    HW185317   1.603   4.085  10.493
27826SOL    HW285318   1.526   3.958  10.523
27827SOL     OW85319   1.102  11.177   9.982
27827SOL    HW185320   1.078  11.237   9.912
27827SOL    HW285321   1.069  11.092   9.954
27828SOL     OW85322   4.748   0.676   9.003
27828SOL    HW185323   4.676   0.647   8.946
27828SOL    HW285324   4.724   0.765   9.029
27829SOL     OW85325   6.259  14.188   1.463
27829SOL    HW185326   6.308  14.270   1.460
27829SOL    HW285327   6.313  14.125   1.416
27830SOL     OW85328   3.968  13.872   4.628
27830SOL    HW185329   3.935  13.820   4.555
27830SOL    HW285330   3.978  13.809   4.699
27831SOL     OW85331  11.878  11.284   3.561
27831SOL    HW185332  11.920  11.286   3.647
27831SOL    HW285333  11.789  11.317   3.576
27832SOL     OW85334   1.319   7.051  11.296
27832SOL    HW185335   1.238   7.045  11.347
27832SOL    HW285336   1.327   7.143  11.273
27833SOL     OW85337  13.851  10.212  13.943
27833SOL    HW185338  13.930  10.194  13.995
27833SOL    HW285339  13.797  10.266  14.000
27834SOL     OW85340  14.383   1.384   6.418
27834SOL    HW185341  14.299   1.431   6.421
27834SOL    HW285342  14.426   1.418   6.340
27835SOL     OW85343   0.750   4.519   1.439
27835SOL    HW185344   0.803   4.498   1.362
27835SOL    HW285345   0.720   4.609   1.423
27836SOL     OW85346   3.744   3.352   7.875
27836SOL    HW185347   3.735   3.437   7.831
27836SOL    HW285348   3.737   3.287   7.805
27837SOL     OW85349  12.420   5.517   2.801
27837SOL    HW185350  12.451   5.547   2.886
27837SOL    HW285351  12.440   5.424   2.799
27838SOL     OW85352   7.711  11.290   2.732
27838SOL    HW185353   7.621  11.278   2.762
27838SOL    HW285354   7.705  11.356   2.663
27839SOL     OW85355   3.508   9.316  12.586
27839SOL    HW185356   3.534   9.406  12.564
27839SOL    HW285357   3.430   9.301  12.533
27840SOL     OW85358   5.732   3.875   9.005
27840SOL    HW185359   5.824   3.850   8.988
27840SOL    HW285360   5.690   3.869   8.919
27841SOL     OW85361  11.131   1.587   7.702
27841SOL    HW185362  11.194   1.522   7.671
27841SOL    HW285363  11.059   1.583   7.639
27842SOL     OW85364   6.684  14.289  11.143
27842SOL    HW185365   6.775  14.315  11.136
27842SOL    HW285366   6.634  14.368  11.124
27843SOL     OW85367   6.980   7.245   5.130
27843SOL    HW185368   6.933   7.162   5.139
27843SOL    HW285369   7.072   7.222   5.140
27844SOL     OW85370   2.066  14.628   5.337
27844SOL    HW185371   2.145  14.682   5.347
27844SOL    HW285372   2.078  14.584   5.253
27845SOL     OW85373   1.611   1.454   7.059
27845SOL    HW185374   1.696   1.481   7.092
27845SOL    HW285375   1.548   1.502   7.113
27846SOL     OW85376   0.334   4.440  10.342
27846SOL    HW185377   0.270   4.466  10.408
27846SOL    HW285378   0.296   4.363  10.301
27847SOL     OW85379   3.085   7.419  11.406
27847SOL    HW185380   3.121   7.474  11.476
27847SOL    HW285381   2.997   7.397  11.437
27848SOL     OW85382   6.553  14.102   8.839
27848SOL    HW185383   6.561  14.007   8.824
27848SOL    HW285384   6.642  14.136   8.828
27849SOL     OW85385   0.928  10.547   9.572
27849SOL    HW185386   0.889  10.530   9.486
27849SOL    HW285387   0.998  10.609   9.554
27850SOL     OW85388  12.169   7.649  12.096
27850SOL    HW185389  12.105   7.712  12.063
27850SOL    HW285390  12.132   7.616  12.177
27851SOL     OW85391   6.478  10.771  14.064
27851SOL    HW185392   6.462  10.716  14.141
27851SOL    HW285393   6.546  10.725  14.015
27852SOL     OW85394   3.655   9.080   2.709
27852SOL    HW185395   3.730   9.093   2.651
27852SOL    HW285396   3.623   8.992   2.686
27853SOL     OW85397  10.642   0.904   6.365
27853SOL    HW185398  10.602   0.983   6.402
27853SOL    HW285399  10.687   0.863   6.438
27854SOL     OW85400  14.103  10.787   2.178
27854SOL    HW185401  14.134  10.718   2.120
27854SOL    HW285402  14.048  10.842   2.122
27855SOL     OW85403   2.072   5.292   6.748
27855SOL    HW185404   1.980   5.311   6.766
27855SOL    HW285405   2.113   5.379   6.738
27856SOL     OW85406   1.774   2.688   7.495
27856SOL    HW185407   1.816   2.616   7.542
27856SOL    HW285408   1.681   2.667   7.497
27857SOL     OW85409  14.794  11.566   4.109
27857SOL    HW185410  14.828  11.624   4.041
27857SOL    HW285411  14.778  11.483   4.064
27858SOL     OW85412   9.513   1.343   3.205
27858SOL    HW185413   9.425   1.381   3.213
27858SOL    HW285414   9.523   1.289   3.283
27859SOL     OW85415   8.812   9.584   8.651
27859SOL    HW185416   8.788   9.665   8.697
27859SOL    HW285417   8.803   9.515   8.717
27860SOL     OW85418   9.879   9.902   7.131
27860SOL    HW185419   9.790   9.876   7.154
27860SOL    HW285420   9.934   9.831   7.162
27861SOL     OW85421   6.601   3.963   6.501
27861SOL    HW185422   6.547   3.941   6.425
27861SOL    HW285423   6.548   3.935   6.576
27862SOL     OW85424   3.898  11.838   5.999
27862SOL    HW185425   3.856  11.763   6.041
27862SOL    HW285426   3.895  11.819   5.905
27863SOL     OW85427   9.129   7.696   9.151
27863SOL    HW185428   9.142   7.755   9.225
27863SOL    HW285429   9.139   7.608   9.189
27864SOL     OW85430   8.162  12.145  11.862
27864SOL    HW185431   8.124  12.189  11.785
27864SOL    HW285432   8.162  12.052  11.839
27865SOL     OW85433  10.760   4.766   0.851
27865SOL    HW185434  10.762   4.857   0.821
27865SOL    HW285435  10.845   4.754   0.892
27866SOL     OW85436  11.952   0.147   7.171
27866SOL    HW185437  11.996   0.206   7.110
27866SOL    HW285438  11.900   0.089   7.115
27867SOL     OW85439   7.425  11.284   3.092
27867SOL    HW185440   7.345  11.299   3.143
27867SOL    HW285441   7.394  11.283   3.001
27868SOL     OW85442  12.937   3.561   2.990
27868SOL    HW185443  13.020   3.584   2.949
27868SOL    HW285444  12.919   3.633   3.050
27869SOL     OW85445   6.743   4.439  12.494
27869SOL    HW185446   6.808   4.455  12.563
27869SOL    HW285447   6.732   4.524  12.451
27870SOL     OW85448   9.896  12.080  12.263
27870SOL    HW185449   9.838  12.026  12.210
27870SOL    HW285450   9.984  12.052  12.237
27871SOL     OW85451  12.956  12.330   1.761
27871SOL    HW185452  13.017  12.269   1.721
27871SOL    HW285453  12.882  12.276   1.789
27872SOL     OW85454  11.166  14.230   3.085
27872SOL    HW185455  11.237  14.165   3.089
27872SOL    HW285456  11.129  14.231   3.173
27873SOL     OW85457   3.004   2.120   6.188
27873SOL    HW185458   2.963   2.160   6.265
27873SOL    HW285459   3.097   2.145   6.194
27874SOL     OW85460   3.130   7.455  11.102
27874SOL    HW185461   3.142   7.421  11.191
27874SOL    HW285462   3.171   7.389  11.046
27875SOL     OW85463  12.087  10.051   3.310
27875SOL    HW185464  12.013  10.041   3.369
27875SOL    HW285465  12.143   9.975   3.328
27876SOL     OW85466   6.248   7.109  12.381
27876SOL    HW185467   6.242   7.028  12.331
27876SOL    HW285468   6.253   7.178  12.314
27877SOL     OW85469   9.691   0.346  12.176
27877SOL    HW185470   9.748   0.329  12.251
27877SOL    HW285471   9.729   0.423  12.135
27878SOL     OW85472   9.225   4.910  14.423
27878SOL    HW185473   9.214   4.816  14.406
27878SOL    HW285474   9.187   4.923  14.509
27879SOL     OW85475  14.704   4.965   5.391
27879SOL    HW185476  14.719   4.982   5.298
27879SOL    HW285477  14.641   4.893   5.393
27880SOL     OW85478   4.280  13.430  13.052
27880SOL    HW185479   4.276  13.470  13.139
27880SOL    HW285480   4.243  13.496  12.993
27881SOL     OW85481   1.741   0.223   1.739
27881SOL    HW185482   1.729   0.308   1.780
27881SOL    HW285483   1.811   0.182   1.789
27882SOL     OW85484   0.548   0.121   4.991
27882SOL    HW185485   0.514   0.037   4.961
27882SOL    HW285486   0.623   0.139   4.935
27883SOL     OW85487   4.861   3.049   1.903
27883SOL    HW185488   4.873   3.128   1.956
27883SOL    HW285489   4.875   3.078   1.813
27884SOL     OW85490   8.716   9.467   1.847
27884SOL    HW185491   8.762   9.546   1.816
27884SOL    HW285492   8.776   9.395   1.827
27885SOL     OW85493   8.562   1.522   6.950
27885SOL    HW185494   8.639   1.465   6.946
27885SOL    HW285495   8.591   1.598   7.001
27886SOL     OW85496   0.825   0.327   5.157
27886SOL    HW185497   0.843   0.234   5.152
27886SOL    HW285498   0.824   0.346   5.251
27887SOL     OW85499  12.646   8.020   3.587
27887SOL    HW185500  12.636   8.106   3.546
27887SOL    HW285501  12.563   8.007   3.634
27888SOL     OW85502   0.727   8.432  10.894
27888SOL    HW185503   0.729   8.436  10.990
27888SOL    HW285504   0.816   8.453  10.867
27889SOL     OW85505  13.916   4.700  10.483
27889SOL    HW185506  13.914   4.794  10.467
27889SOL    HW285507  13.919   4.660  10.396
27890SOL     OW85508   8.977   7.563   7.933
27890SOL    HW185509   8.897   7.554   7.881
27890SOL    HW285510   8.988   7.658   7.944
27891SOL     OW85511  10.611   6.504   4.088
27891SOL    HW185512  10.599   6.565   4.161
27891SOL    HW285513  10.534   6.517   4.033
27892SOL     OW85514   6.897  14.388   3.117
27892SOL    HW185515   6.889  14.396   3.022
27892SOL    HW285516   6.888  14.294   3.135
27893SOL     OW85517  11.778  14.580   2.574
27893SOL    HW185518  11.828  14.499   2.570
27893SOL    HW285519  11.803  14.620   2.658
27894SOL     OW85520  11.053  11.489  14.229
27894SOL    HW185521  10.967  11.448  14.242
27894SOL    HW285522  11.110  11.446  14.292
27895SOL     OW85523   4.137   1.797   3.512
27895SOL    HW185524   4.097   1.836   3.591
27895SOL    HW285525   4.160   1.708   3.538
27896SOL     OW85526   5.817  13.441   3.161
27896SOL    HW185527   5.886  13.484   3.212
27896SOL    HW285528   5.807  13.496   3.084
27897SOL     OW85529   4.126   3.931  11.037
27897SOL    HW185530   4.142   3.889  10.953
27897SOL    HW285531   4.146   3.862  11.102
27898SOL     OW85532  13.191   4.614  11.976
27898SOL    HW185533  13.272   4.582  12.018
27898SOL    HW285534  13.182   4.559  11.898
27899SOL     OW85535  10.806  13.191   8.383
27899SOL    HW185536  10.722  13.203   8.338
27899SOL    HW285537  10.865  13.159   8.315
27900SOL     OW85538   6.673   9.111  11.875
27900SOL    HW185539   6.762   9.144  11.860
27900SOL    HW285540   6.644   9.157  11.954
27901SOL     OW85541  12.222   6.306   5.833
27901SOL    HW185542  12.145   6.267   5.874
27901SOL    HW285543  12.241   6.383   5.887
27902SOL     OW85544   8.510  14.429  10.650
27902SOL    HW185545   8.469  14.505  10.690
27902SOL    HW285546   8.436  14.370  10.631
27903SOL     OW85547  13.777  13.067   3.084
27903SOL    HW185548  13.816  13.076   2.997
27903SOL    HW285549  13.683  13.055   3.066
27904SOL     OW85550  13.287  10.349   8.347
27904SOL    HW185551  13.314  10.390   8.265
27904SOL    HW285552  13.192  10.339   8.339
27905SOL     OW85553  13.240   1.814   0.340
27905SOL    HW185554  13.178   1.811   0.413
27905SOL    HW285555  13.206   1.883   0.283
27906SOL     OW85556   3.228   6.594   9.147
27906SOL    HW185557   3.264   6.510   9.119
27906SOL    HW285558   3.297   6.657   9.126
27907SOL     OW85559   4.406   0.608   0.870
27907SOL    HW185560   4.482   0.565   0.830
27907SOL    HW285561   4.441   0.654   0.946
27908SOL     OW85562   8.711   6.508  12.405
27908SOL    HW185563   8.726   6.437  12.342
27908SOL    HW285564   8.770   6.578  12.376
27909SOL     OW85565   3.011   6.563  13.392
27909SOL    HW185566   3.039   6.654  13.383
27909SOL    HW285567   3.046   6.535  13.476
27910SOL     OW85568  14.569   3.035   0.916
27910SOL    HW185569  14.541   3.019   1.006
27910SOL    HW285570  14.659   3.065   0.923
27911SOL     OW85571   7.624   9.965   5.701
27911SOL    HW185572   7.616   9.875   5.671
27911SOL    HW285573   7.655   9.957   5.792
27912SOL     OW85574  13.810  12.866   1.352
27912SOL    HW185575  13.845  12.953   1.370
27912SOL    HW285576  13.755  12.846   1.428
27913SOL     OW85577  10.961   9.952   5.034
27913SOL    HW185578  11.044   9.932   5.078
27913SOL    HW285579  10.986   9.998   4.954
27914SOL     OW85580   8.938   9.224   0.858
27914SOL    HW185581   8.970   9.238   0.769
27914SOL    HW285582   8.898   9.137   0.856
27915SOL     OW85583  14.796   6.519  12.540
27915SOL    HW185584  14.772   6.564  12.459
27915SOL    HW285585  14.784   6.426  12.520
27916SOL     OW85586  14.777   9.212   0.081
27916SOL    HW185587  14.697   9.242   0.123
27916SOL    HW285588  14.815   9.149   0.143
27917SOL     OW85589  11.523   9.743  14.699
27917SOL    HW185590  11.530   9.677  14.768
27917SOL    HW285591  11.589   9.809  14.722
27918SOL     OW85592   0.688   4.107  12.737
27918SOL    HW185593   0.663   4.082  12.648
27918SOL    HW285594   0.648   4.040  12.793
27919SOL     OW85595  13.274  11.192  10.921
27919SOL    HW185596  13.353  11.191  10.866
27919SOL    HW285597  13.207  11.151  10.866
27920SOL     OW85598   8.345   9.234   2.319
27920SOL    HW185599   8.277   9.195   2.374
27920SOL    HW285600   8.330   9.197   2.232
27921SOL     OW85601   1.055   2.888   9.778
27921SOL    HW185602   0.996   2.814   9.787
27921SOL    HW285603   1.040   2.920   9.689
27922SOL     OW85604   3.453  11.896  10.012
27922SOL    HW185605   3.367  11.874  10.048
27922SOL    HW285606   3.447  11.872   9.920
27923SOL     OW85607  11.828   1.474  13.042
27923SOL    HW185608  11.740   1.459  13.006
27923SOL    HW285609  11.865   1.386  13.050
27924SOL     OW85610  10.053   0.739   0.637
27924SOL    HW185611  10.078   0.756   0.546
27924SOL    HW285612   9.987   0.671   0.632
27925SOL     OW85613  11.686   9.723   6.731
27925SOL    HW185614  11.655   9.758   6.814
27925SOL    HW285615  11.781   9.715   6.742
27926SOL     OW85616  10.255  11.080   8.450
27926SOL    HW185617  10.274  11.172   8.432
27926SOL    HW285618  10.267  11.037   8.365
27927SOL     OW85619  12.833  13.313  14.617
27927SOL    HW185620  12.820  13.246  14.550
27927SOL    HW285621  12.928  13.315  14.632
27928SOL     OW85622  11.498   9.586  13.493
27928SOL    HW185623  11.522   9.495  13.476
27928SOL    HW285624  11.578   9.626  13.527
27929SOL     OW85625   2.275   8.128   9.934
27929SOL    HW185626   2.225   8.209   9.928
27929SOL    HW285627   2.249   8.078   9.856
27930SOL     OW85628   9.682   5.445   3.896
27930SOL    HW185629   9.657   5.517   3.954
27930SOL    HW285630   9.709   5.375   3.956
27931SOL     OW85631   3.178   1.946  10.761
27931SOL    HW185632   3.174   1.984  10.673
27931SOL    HW285633   3.087   1.951  10.793
27932SOL     OW85634   6.738   9.945  14.620
27932SOL    HW185635   6.813  10.005  14.626
27932SOL    HW285636   6.747   9.903  14.535
27933SOL     OW85637  14.136   1.867  10.298
27933SOL    HW185638  14.219   1.908  10.324
27933SOL    HW285639  14.104   1.922  10.226
27934SOL     OW85640   0.244   9.906   5.474
27934SOL    HW185641   0.340   9.901   5.477
27934SOL    HW285642   0.225  10.000   5.476
27935SOL     OW85643  12.931  13.833  13.864
27935SOL    HW185644  12.882  13.761  13.823
27935SOL    HW285645  13.014  13.836  13.816
27936SOL     OW85646   7.604  13.364  10.583
27936SOL    HW185647   7.602  13.458  10.565
27936SOL    HW285648   7.691  13.349  10.621
27937SOL     OW85649   3.242  13.258   0.900
27937SOL    HW185650   3.288  13.342   0.905
27937SOL    HW285651   3.262  13.225   0.812
27938SOL     OW85652   1.853   3.457   4.734
27938SOL    HW185653   1.837   3.404   4.812
27938SOL    HW285654   1.899   3.397   4.674
27939SOL     OW85655   6.527   4.887   3.435
27939SOL    HW185656   6.618   4.896   3.463
27939SOL    HW285657   6.525   4.806   3.385
27940SOL     OW85658   8.252  13.284   2.325
27940SOL    HW185659   8.243  13.307   2.233
27940SOL    HW285660   8.198  13.347   2.372
27941SOL     OW85661  11.506   4.391   4.076
27941SOL    HW185662  11.475   4.406   4.166
27941SOL    HW285663  11.533   4.299   4.075
27942SOL     OW85664  12.882  11.391  10.211
27942SOL    HW185665  12.834  11.471  10.189
27942SOL    HW285666  12.817  11.321  10.202
27943SOL     OW85667   9.904   5.534   6.791
27943SOL    HW185668   9.851   5.603   6.750
27943SOL    HW285669   9.895   5.549   6.885
27944SOL     OW85670   2.760   6.130   6.417
27944SOL    HW185671   2.744   6.038   6.437
27944SOL    HW285672   2.673   6.168   6.409
27945SOL     OW85673  11.029   6.096   8.106
27945SOL    HW185674  10.961   6.074   8.043
27945SOL    HW285675  11.108   6.054   8.073
27946SOL     OW85676  11.257   0.963   7.887
27946SOL    HW185677  11.281   0.871   7.878
27946SOL    HW285678  11.170   0.969   7.848
27947SOL     OW85679   9.169  11.087   3.516
27947SOL    HW185680   9.173  10.998   3.553
27947SOL    HW285681   9.256  11.124   3.533
27948SOL     OW85682   6.874   2.947   7.979
27948SOL    HW185683   6.928   2.872   8.007
27948SOL    HW285684   6.937   3.018   7.966
27949SOL     OW85685   9.720   1.976   9.139
27949SOL    HW185686   9.806   1.957   9.177
27949SOL    HW285687   9.694   2.058   9.180
27950SOL     OW85688   4.867   0.720   2.366
27950SOL    HW185689   4.881   0.806   2.405
27950SOL    HW285690   4.896   0.658   2.433
27951SOL     OW85691   7.486  10.954   8.284
27951SOL    HW185692   7.464  10.861   8.276
27951SOL    HW285693   7.568  10.955   8.333
27952SOL     OW85694   3.627  14.386  13.068
27952SOL    HW185695   3.559  14.375  13.134
27952SOL    HW285696   3.589  14.446  13.004
27953SOL     OW85697   8.009   6.123  12.597
27953SOL    HW185698   8.041   6.089  12.680
27953SOL    HW285699   7.984   6.214  12.615
27954SOL     OW85700   4.034   3.108   8.149
27954SOL    HW185701   4.102   3.146   8.095
27954SOL    HW285702   3.969   3.075   8.087
27955SOL     OW85703   7.584   7.978  11.208
27955SOL    HW185704   7.642   8.008  11.277
27955SOL    HW285705   7.497   8.009  11.234
27956SOL     OW85706   2.649   2.978  10.129
27956SOL    HW185707   2.629   3.065  10.095
27956SOL    HW285708   2.612   2.918  10.064
27957SOL     OW85709   1.620   9.295   5.048
27957SOL    HW185710   1.525   9.308   5.059
27957SOL    HW285711   1.657   9.324   5.131
27958SOL     OW85712   3.693  12.738   6.052
27958SOL    HW185713   3.689  12.643   6.044
27958SOL    HW285714   3.682  12.770   5.963
27959SOL     OW85715   7.724   0.933   7.400
27959SOL    HW185716   7.786   0.923   7.328
27959SOL    HW285717   7.651   0.876   7.377
27960SOL     OW85718  13.589  12.803   2.095
27960SOL    HW185719  13.654  12.733   2.085
27960SOL    HW285720  13.626  12.877   2.046
27961SOL     OW85721  10.530   1.021  14.428
27961SOL    HW185722  10.518   0.936  14.385
27961SOL    HW285723  10.532   1.000  14.522
27962SOL     OW85724  10.307  11.897   1.425
27962SOL    HW185725  10.374  11.860   1.482
27962SOL    HW285726  10.254  11.953   1.482
27963SOL     OW85727   9.285   2.942   4.501
27963SOL    HW185728   9.266   2.894   4.420
27963SOL    HW285729   9.377   2.966   4.494
27964SOL     OW85730  11.546   6.863   9.636
27964SOL    HW185731  11.553   6.844   9.730
27964SOL    HW285732  11.637   6.867   9.606
27965SOL     OW85733  14.058   5.202  10.449
27965SOL    HW185734  14.067   5.271  10.383
27965SOL    HW285735  14.148   5.172  10.463
27966SOL     OW85736   6.574   9.133  10.521
27966SOL    HW185737   6.526   9.074  10.463
27966SOL    HW285738   6.579   9.216  10.474
27967SOL     OW85739   6.313  10.397   4.782
27967SOL    HW185740   6.230  10.356   4.759
27967SOL    HW285741   6.335  10.360   4.868
27968SOL     OW85742  13.705  14.400  11.208
27968SOL    HW185743  13.623  14.427  11.250
27968SOL    HW285744  13.768  14.469  11.231
27969SOL     OW85745   9.810   0.583  10.732
27969SOL    HW185746   9.814   0.637  10.653
27969SOL    HW285747   9.808   0.646  10.804
27970SOL     OW85748   9.300  10.375   2.651
27970SOL    HW185749   9.367  10.406   2.589
27970SOL    HW285750   9.350  10.326   2.717
27971SOL     OW85751   7.597   3.716  13.885
27971SOL    HW185752   7.629   3.791  13.835
27971SOL    HW285753   7.675   3.674  13.920
27972SOL     OW85754  10.075   8.102   2.750
27972SOL    HW185755  10.169   8.122   2.755
27972SOL    HW285756  10.033   8.177   2.793
27973SOL     OW85757   8.853   4.127  13.737
27973SOL    HW185758   8.772   4.168  13.765
27973SOL    HW285759   8.834   4.089  13.652
27974SOL     OW85760   9.186   8.544  11.887
27974SOL    HW185761   9.226   8.464  11.854
27974SOL    HW285762   9.092   8.524  11.888
27975SOL     OW85763   7.452  11.232   7.350
27975SOL    HW185764   7.359  11.215   7.333
27975SOL    HW285765   7.494  11.223   7.264
27976SOL     OW85766  14.794   0.238   3.535
27976SOL    HW185767  14.720   0.268   3.588
27976SOL    HW285768  14.849   0.190   3.597
27977SOL     OW85769  14.001  11.881   6.020
27977SOL    HW185770  14.008  11.795   6.061
27977SOL    HW285771  13.912  11.883   5.985
27978SOL     OW85772  14.507   0.205   8.502
27978SOL    HW185773  14.552   0.285   8.473
27978SOL    HW285774  14.577   0.150   8.537
27979SOL     OW85775  10.451  13.227   4.706
27979SOL    HW185776  10.456  13.226   4.801
27979SOL    HW285777  10.473  13.138   4.679
27980SOL     OW85778  10.095   2.143   0.727
27980SOL    HW185779  10.167   2.130   0.664
27980SOL    HW285780  10.045   2.216   0.691
27981SOL     OW85781   0.031  13.193  12.686
27981SOL    HW185782  14.863  13.224  12.763
27981SOL    HW285783   0.010  13.099  12.681
27982SOL     OW85784   0.756  13.585  13.891
27982SOL    HW185785   0.738  13.677  13.873
27982SOL    HW285786   0.712  13.568  13.974
27983SOL     OW85787  11.166  13.279  14.591
27983SOL    HW185788  11.261  13.277  14.588
27983SOL    HW285789  11.142  13.211  14.654
27984SOL     OW85790   8.764  14.538  10.956
27984SOL    HW185791   8.744  14.455  11.000
27984SOL    HW285792   8.729  14.605  11.014
27985SOL     OW85793   1.563   4.867   6.296
27985SOL    HW185794   1.533   4.948   6.257
27985SOL    HW285795   1.570   4.806   6.222
27986SOL     OW85796   8.559   7.412  13.664
27986SOL    HW185797   8.516   7.436  13.746
27986SOL    HW285798   8.580   7.495  13.623
27987SOL     OW85799   5.454   8.185   4.311
27987SOL    HW185800   5.484   8.218   4.396
27987SOL    HW285801   5.528   8.200   4.252
27988SOL     OW85802  14.542  13.983   7.389
27988SOL    HW185803  14.452  13.982   7.357
27988SOL    HW285804  14.570  14.074   7.383
27989SOL     OW85805   2.105  12.500   1.173
27989SOL    HW185806   2.133  12.470   1.259
27989SOL    HW285807   2.062  12.425   1.134
27990SOL     OW85808   6.941   8.092  14.301
27990SOL    HW185809   7.024   8.115  14.343
27990SOL    HW285810   6.936   7.997  14.310
27991SOL     OW85811   0.413   1.539   2.944
27991SOL    HW185812   0.489   1.572   2.992
27991SOL    HW285813   0.353   1.508   3.012
27992SOL     OW85814   6.829   2.876  11.080
27992SOL    HW185815   6.738   2.845  11.081
27992SOL    HW285816   6.824   2.966  11.112
27993SOL     OW85817  10.864   6.965   8.850
27993SOL    HW185818  10.957   6.978   8.829
27993SOL    HW285819  10.855   6.870   8.856
27994SOL     OW85820   5.169   9.902   1.602
27994SOL    HW185821   5.227   9.926   1.530
27994SOL    HW285822   5.175   9.976   1.663
27995SOL     OW85823  14.209   7.244  13.226
27995SOL    HW185824  14.256   7.175  13.179
27995SOL    HW285825  14.276   7.309  13.247
27996SOL     OW85826   9.396  12.128   9.972
27996SOL    HW185827   9.441  12.084  10.044
27996SOL    HW285828   9.466  12.165   9.918
27997SOL     OW85829   9.027  12.404  10.924
27997SOL    HW185830   9.112  12.447  10.912
27997SOL    HW285831   9.037  12.353  11.004
27998SOL     OW85832   1.982   2.865  12.798
27998SOL    HW185833   1.938   2.878  12.882
27998SOL    HW285834   2.010   2.774  12.798
27999SOL     OW85835   0.926   2.307   0.518
27999SOL    HW185836   0.850   2.250   0.531
27999SOL    HW285837   0.896   2.393   0.549
28000SOL     OW85838  11.075   2.033  13.072
28000SOL    HW185839  11.128   2.050  13.151
28000SOL    HW285840  11.111   2.092  13.006
28001SOL     OW85841   9.001  13.924   0.971
28001SOL    HW185842   9.064  13.991   1.000
28001SOL    HW285843   9.031  13.843   1.013
28002SOL     OW85844   7.917   3.732  10.455
28002SOL    HW185845   7.856   3.693  10.393
28002SOL    HW285846   7.979   3.662  10.475
28003SOL     OW85847  14.754   6.899  10.614
28003SOL    HW185848  14.798   6.856  10.541
28003SOL    HW285849  14.754   6.992  10.592
28004SOL     OW85850   8.110   6.366   4.183
28004SOL    HW185851   8.124   6.433   4.249
28004SOL    HW285852   8.191   6.364   4.133
28005SOL     OW85853   5.410   3.960   6.139
28005SOL    HW185854   5.329   4.007   6.123
28005SOL    HW285855   5.479   4.023   6.117
28006SOL     OW85856   4.825   2.229  11.195
28006SOL    HW185857   4.893   2.269  11.140
28006SOL    HW285858   4.752   2.292  11.193
28007SOL     OW85859   6.304   3.060   6.670
28007SOL    HW185860   6.287   2.966   6.661
28007SOL    HW285861   6.324   3.089   6.581
28008SOL     OW85862  11.562   3.024  12.751
28008SOL    HW185863  11.477   3.009  12.710
28008SOL    HW285864  11.567   3.118  12.764
28009SOL     OW85865  13.238   1.280  11.336
28009SOL    HW185866  13.153   1.291  11.293
28009SOL    HW285867  13.234   1.336  11.413
28010SOL     OW85868  12.407   4.906  14.112
28010SOL    HW185869  12.350   4.844  14.067
28010SOL    HW285870  12.348   4.956  14.169
28011SOL     OW85871   0.749  14.381   8.221
28011SOL    HW185872   0.678  14.444   8.208
28011SOL    HW285873   0.758  14.375   8.316
28012SOL     OW85874   1.644   8.688   8.311
28012SOL    HW185875   1.597   8.629   8.369
28012SOL    HW285876   1.577   8.726   8.254
28013SOL     OW85877   8.477   7.620   5.690
28013SOL    HW185878   8.505   7.634   5.781
28013SOL    HW285879   8.435   7.534   5.691
28014SOL     OW85880  10.009  13.685   4.353
28014SOL    HW185881  10.026  13.639   4.271
28014SOL    HW285882  10.071  13.758   4.354
28015SOL     OW85883   5.003   6.023  10.500
28015SOL    HW185884   4.989   6.108  10.543
28015SOL    HW285885   4.922   6.007  10.452
28016SOL     OW85886  11.880   1.814   8.908
28016SOL    HW185887  11.800   1.768   8.934
28016SOL    HW285888  11.853   1.868   8.834
28017SOL     OW85889   4.886  12.172   6.164
28017SOL    HW185890   4.938  12.093   6.149
28017SOL    HW285891   4.912  12.202   6.251
28018SOL     OW85892  10.305   4.632   9.771
28018SOL    HW185893  10.225   4.673   9.739
28018SOL    HW285894  10.376   4.683   9.733
28019SOL     OW85895   0.235   1.407   1.146
28019SOL    HW185896   0.160   1.419   1.088
28019SOL    HW285897   0.200   1.425   1.234
28020SOL     OW85898  12.989   4.682  14.078
28020SOL    HW185899  13.050   4.609  14.065
28020SOL    HW285900  13.000   4.707  14.170
28021SOL     OW85901   9.085   5.547   8.867
28021SOL    HW185902   9.085   5.571   8.960
28021SOL    HW285903   8.994   5.528   8.847
28022SOL     OW85904  12.543   4.274   9.591
28022SOL    HW185905  12.546   4.246   9.683
28022SOL    HW285906  12.597   4.210   9.545
28023SOL     OW85907  10.068  11.950  10.771
28023SOL    HW185908  10.071  11.879  10.834
28023SOL    HW285909  10.101  11.912  10.690
28024SOL     OW85910   8.956  14.764   5.875
28024SOL    HW185911   8.884  14.819   5.906
28024SOL    HW285912   8.931  14.740   5.786
28025SOL     OW85913  14.211   0.657   9.781
28025SOL    HW185914  14.271   0.697   9.719
28025SOL    HW285915  14.253   0.670   9.867
28026SOL     OW85916  14.821   4.220   5.785
28026SOL    HW185917  14.784   4.274   5.855
28026SOL    HW285918  14.787   4.258   5.704
28027SOL     OW85919   7.035   3.823   9.099
28027SOL    HW185920   7.122   3.809   9.063
28027SOL    HW285921   7.047   3.893   9.164
28028SOL     OW85922   3.299  10.239   4.596
28028SOL    HW185923   3.350  10.159   4.581
28028SOL    HW285924   3.309  10.289   4.515
28029SOL     OW85925  11.872  13.848   7.258
28029SOL    HW185926  11.899  13.840   7.349
28029SOL    HW285927  11.827  13.766   7.238
28030SOL     OW85928  11.518   8.347  10.200
28030SOL    HW185929  11.596   8.312  10.157
28030SOL    HW285930  11.463   8.378  10.129
28031SOL     OW85931   4.622   0.378  11.994
28031SOL    HW185932   4.576   0.297  11.973
28031SOL    HW285933   4.686   0.388  11.923
28032SOL     OW85934  12.949   1.114   5.334
28032SOL    HW185935  12.884   1.044   5.335
28032SOL    HW285936  12.979   1.120   5.424
28033SOL     OW85937   5.145  14.870   3.099
28033SOL    HW185938   5.180   0.054   3.161
28033SOL    HW285939   5.059  14.848   3.133
28034SOL     OW85940   3.127  13.749   3.313
28034SOL    HW185941   3.137  13.827   3.259
28034SOL    HW285942   3.161  13.776   3.399
28035SOL     OW85943   3.207  14.008   9.060
28035SOL    HW185944   3.126  14.052   9.083
28035SOL    HW285945   3.183  13.945   8.992
28036SOL     OW85946   1.851  12.403  12.489
28036SOL    HW185947   1.889  12.339  12.428
28036SOL    HW285948   1.924  12.426  12.547
28037SOL     OW85949   8.783   5.959   5.344
28037SOL    HW185950   8.728   6.027   5.304
28037SOL    HW285951   8.735   5.878   5.328
28038SOL     OW85952  10.021   1.723  11.480
28038SOL    HW185953   9.947   1.713  11.540
28038SOL    HW285954  10.075   1.792  11.520
28039SOL     OW85955   9.445   1.854   9.509
28039SOL    HW185956   9.353   1.833   9.490
28039SOL    HW285957   9.495   1.798   9.449
28040SOL     OW85958   2.932   2.423  13.107
28040SOL    HW185959   2.995   2.492  13.124
28040SOL    HW285960   2.969   2.346  13.151
28041SOL     OW85961   3.468   4.753  10.890
28041SOL    HW185962   3.372   4.750  10.891
28041SOL    HW285963   3.492   4.783  10.978
28042SOL     OW85964   4.366   0.878  14.164
28042SOL    HW185965   4.453   0.913  14.148
28042SOL    HW285966   4.309   0.955  14.163
28043SOL     OW85967   7.226   2.642  12.074
28043SOL    HW185968   7.290   2.658  12.144
28043SOL    HW285969   7.174   2.722  12.070
28044SOL     OW85970  12.881   7.689   9.264
28044SOL    HW185971  12.955   7.742   9.234
28044SOL    HW285972  12.915   7.642   9.340
28045SOL     OW85973  13.346  12.684   9.155
28045SOL    HW185974  13.261  12.723   9.133
28045SOL    HW285975  13.400  12.758   9.182
28046SOL     OW85976   3.843   7.502  13.663
28046SOL    HW185977   3.858   7.540  13.576
28046SOL    HW285978   3.780   7.432  13.648
28047SOL     OW85979   8.625   7.338  14.264
28047SOL    HW185980   8.581   7.325  14.180
28047SOL    HW285981   8.560   7.312  14.329
28048SOL     OW85982  14.224  13.441  11.097
28048SOL    HW185983  14.306  13.410  11.136
28048SOL    HW285984  14.206  13.524  11.141
28049SOL     OW85985   4.779  11.521  11.441
28049SOL    HW185986   4.749  11.548  11.354
28049SOL    HW285987   4.851  11.580  11.461
28050SOL     OW85988   1.823   9.083   9.922
28050SOL    HW185989   1.808   9.013   9.859
28050SOL    HW285990   1.781   9.160   9.883
28051SOL     OW85991  13.089   2.813   1.369
28051SOL    HW185992  13.079   2.822   1.274
28051SOL    HW285993  13.008   2.850   1.405
28052SOL     OW85994   0.198  14.641   1.267
28052SOL    HW185995   0.137  14.714   1.256
28052SOL    HW285996   0.179  14.583   1.194
28053SOL     OW85997   5.217   7.359   0.921
28053SOL    HW185998   5.307   7.334   0.944
28053SOL    HW285999   5.196   7.429   0.983
28054SOL     OW86000   9.270   7.049  14.128
28054SOL    HW186001   9.324   6.992  14.073
28054SOL    HW286002   9.307   7.040  14.216
28055SOL     OW86003   1.378   0.468  11.410
28055SOL    HW186004   1.426   0.485  11.491
28055SOL    HW286005   1.331   0.550  11.392
28056SOL     OW86006   7.507   5.697   4.423
28056SOL    HW186007   7.577   5.751   4.386
28056SOL    HW286008   7.444   5.760   4.457
28057SOL     OW86009  10.218  13.204   1.540
28057SOL    HW186010  10.235  13.298   1.540
28057SOL    HW286011  10.207  13.182   1.632
28058SOL     OW86012   0.539   2.145  12.099
28058SOL    HW186013   0.623   2.136  12.054
28058SOL    HW286014   0.557   2.120  12.189
28059SOL     OW86015   3.932   4.221  10.365
28059SOL    HW186016   3.896   4.310  10.371
28059SOL    HW286017   4.027   4.235  10.365
28060SOL     OW86018  13.892   2.909   0.621
28060SOL    HW186019  13.927   2.826   0.653
28060SOL    HW286020  13.840   2.886   0.544
28061SOL     OW86021   9.638  13.292  10.202
28061SOL    HW186022   9.582  13.273  10.126
28061SOL    HW286023   9.716  13.239  10.187
28062SOL     OW86024   0.352  11.034   0.459
28062SOL    HW186025   0.357  10.959   0.400
28062SOL    HW286026   0.368  10.998   0.546
28063SOL     OW86027  12.350   9.819   1.938
28063SOL    HW186028  12.309   9.871   2.007
28063SOL    HW286029  12.397   9.750   1.986
28064SOL     OW86030   6.509  12.128   9.135
28064SOL    HW186031   6.593  12.121   9.089
28064SOL    HW286032   6.532  12.121   9.228
28065SOL     OW86033   8.402  13.122   6.492
28065SOL    HW186034   8.450  13.204   6.479
28065SOL    HW286035   8.446  13.059   6.434
28066SOL     OW86036   1.339   8.643   0.335
28066SOL    HW186037   1.396   8.572   0.305
28066SOL    HW286038   1.270   8.599   0.385
28067SOL     OW86039   6.117   1.197  12.812
28067SOL    HW186040   6.158   1.192  12.725
28067SOL    HW286041   6.059   1.273  12.807
28068SOL     OW86042   5.405  13.573   5.158
28068SOL    HW186043   5.492  13.536   5.165
28068SOL    HW286044   5.412  13.640   5.090
28069SOL     OW86045  14.813  12.667   3.317
28069SOL    HW186046  14.756  12.591   3.329
28069SOL    HW286047  14.858  12.677   3.400
28070SOL     OW86048  10.363   9.997   4.773
28070SOL    HW186049  10.454   9.999   4.746
28070SOL    HW286050  10.341  10.089   4.789
28071SOL     OW86051   6.663   6.385   3.539
28071SOL    HW186052   6.588   6.409   3.484
28071SOL    HW286053   6.739   6.422   3.494
28072SOL     OW86054   3.547   3.572  12.578
28072SOL    HW186055   3.572   3.479  12.580
28072SOL    HW286056   3.605   3.614  12.641
28073SOL     OW86057   8.516   8.295   3.683
28073SOL    HW186058   8.498   8.310   3.590
28073SOL    HW286059   8.606   8.327   3.694
28074SOL     OW86060  13.930   8.873   0.365
28074SOL    HW186061  13.904   8.795   0.315
28074SOL    HW286062  13.861   8.883   0.430
28075SOL     OW86063   1.676  12.045   5.112
28075SOL    HW186064   1.666  11.956   5.145
28075SOL    HW286065   1.622  12.099   5.170
28076SOL     OW86066   5.476  12.658   1.000
28076SOL    HW186067   5.563  12.697   0.996
28076SOL    HW286068   5.441  12.684   1.085
28077SOL     OW86069   2.721  14.349   1.206
28077SOL    HW186070   2.796  14.295   1.184
28077SOL    HW286071   2.647  14.306   1.163
28078SOL     OW86072  13.829   8.524   1.150
28078SOL    HW186073  13.733   8.525   1.155
28078SOL    HW286074  13.850   8.456   1.086
28079SOL     OW86075  10.961  14.042   0.123
28079SOL    HW186076  11.001  13.956   0.134
28079SOL    HW286077  10.878  14.036   0.170
28080SOL     OW86078   2.283  13.024   3.898
28080SOL    HW186079   2.282  13.118   3.876
28080SOL    HW286080   2.373  13.007   3.924
28081SOL     OW86081   6.016   8.485  12.835
28081SOL    HW186082   6.032   8.515  12.924
28081SOL    HW286083   6.026   8.563  12.781
28082SOL     OW86084  12.903   0.281   1.354
28082SOL    HW186085  12.876   0.262   1.264
28082SOL    HW286086  12.920   0.195   1.393
28083SOL     OW86087   2.974  11.066   4.460
28083SOL    HW186088   3.026  11.049   4.381
28083SOL    HW286089   2.914  11.137   4.434
28084SOL     OW86090   4.513   6.515   9.941
28084SOL    HW186091   4.598   6.558   9.943
28084SOL    HW286092   4.501   6.481  10.030
28085SOL     OW86093  11.617  12.048   0.136
28085SOL    HW186094  11.606  12.140   0.160
28085SOL    HW286095  11.699  12.045   0.088
28086SOL     OW86096  11.647   3.528   6.925
28086SOL    HW186097  11.686   3.447   6.892
28086SOL    HW286098  11.648   3.588   6.851
28087SOL     OW86099  11.031   2.220   8.552
28087SOL    HW186100  11.000   2.293   8.605
28087SOL    HW286101  11.090   2.260   8.488
28088SOL     OW86102   2.505  12.159   0.889
28088SOL    HW186103   2.581  12.217   0.895
28088SOL    HW286104   2.513  12.118   0.802
28089SOL     OW86105   7.962   4.690   9.094
28089SOL    HW186106   7.930   4.603   9.070
28089SOL    HW286107   7.903   4.751   9.050
28090SOL     OW86108   5.509  13.780  13.390
28090SOL    HW186109   5.580  13.817  13.443
28090SOL    HW286110   5.553  13.716  13.334
28091SOL     OW86111   1.321   2.361  13.447
28091SOL    HW186112   1.335   2.456  13.444
28091SOL    HW286113   1.268   2.348  13.526
28092SOL     OW86114   1.008   4.107  12.470
28092SOL    HW186115   0.967   4.067  12.393
28092SOL    HW286116   0.994   4.043  12.540
28093SOL     OW86117   7.044   6.362  11.729
28093SOL    HW186118   6.996   6.285  11.759
28093SOL    HW286119   7.134   6.332  11.716
28094SOL     OW86120   3.245   9.141   2.878
28094SOL    HW186121   3.325   9.176   2.917
28094SOL    HW286122   3.175   9.193   2.916
28095SOL     OW86123  12.429   6.018  10.166
28095SOL    HW186124  12.445   5.958  10.239
28095SOL    HW286125  12.389   5.963  10.099
28096SOL     OW86126   9.763   0.434  12.449
28096SOL    HW186127   9.685   0.482  12.418
28096SOL    HW286128   9.753   0.431  12.544
28097SOL     OW86129   4.327   5.085   7.248
28097SOL    HW186130   4.258   5.129   7.297
28097SOL    HW286131   4.297   4.994   7.241
28098SOL     OW86132   7.358   0.589   5.795
28098SOL    HW186133   7.297   0.546   5.734
28098SOL    HW286134   7.371   0.524   5.864
28099SOL     OW86135   2.096   8.078   1.757
28099SOL    HW186136   2.010   8.055   1.792
28099SOL    HW286137   2.153   8.083   1.834
28100SOL     OW86138   0.691  11.754  11.625
28100SOL    HW186139   0.682  11.729  11.534
28100SOL    HW286140   0.601  11.770  11.655
28101SOL     OW86141   3.932   2.495   2.611
28101SOL    HW186142   4.026   2.485   2.620
28101SOL    HW286143   3.896   2.409   2.635
28102SOL     OW86144  14.202  14.711  13.763
28102SOL    HW186145  14.160  14.735  13.846
28102SOL    HW286146  14.198  14.791  13.710
28103SOL     OW86147  12.684   0.324   9.303
28103SOL    HW186148  12.622   0.292   9.238
28103SOL    HW286149  12.648   0.408   9.331
28104SOL     OW86150   4.462  12.953  13.856
28104SOL    HW186151   4.528  12.986  13.917
28104SOL    HW286152   4.403  13.027  13.841
28105SOL     OW86153  13.286   1.238  13.258
28105SOL    HW186154  13.347   1.270  13.192
28105SOL    HW286155  13.199   1.259  13.223
28106SOL     OW86156   2.702   1.784   2.030
28106SOL    HW186157   2.611   1.795   2.056
28106SOL    HW286158   2.741   1.871   2.037
28107SOL     OW86159  11.529   9.283   0.863
28107SOL    HW186160  11.578   9.202   0.849
28107SOL    HW286161  11.596   9.350   0.875
28108SOL     OW86162   5.920   3.111   8.337
28108SOL    HW186163   5.844   3.165   8.319
28108SOL    HW286164   5.943   3.072   8.253
28109SOL     OW86165  10.702  10.079   9.917
28109SOL    HW186166  10.695   9.985   9.932
28109SOL    HW286167  10.621  10.103   9.872
28110SOL     OW86168   7.141  14.260  12.721
28110SOL    HW186169   7.061  14.303  12.750
28110SOL    HW286170   7.129  14.168  12.745
28111SOL     OW86171  12.019   3.509   1.305
28111SOL    HW186172  12.004   3.522   1.399
28111SOL    HW286173  11.941   3.462   1.275
28112SOL     OW86174   3.788   3.955   5.721
28112SOL    HW186175   3.731   4.031   5.732
28112SOL    HW286176   3.876   3.987   5.742
28113SOL     OW86177   3.202  12.272   7.777
28113SOL    HW186178   3.154  12.198   7.738
28113SOL    HW286179   3.293  12.244   7.775
28114SOL     OW86180   0.586   0.657   1.418
28114SOL    HW186181   0.492   0.637   1.421
28114SOL    HW286182   0.627   0.585   1.466
28115SOL     OW86183  10.065  14.142  10.298
28115SOL    HW186184  10.154  14.119  10.325
28115SOL    HW286185  10.066  14.136  10.202
28116SOL     OW86186   5.228   7.291   5.278
28116SOL    HW186187   5.309   7.300   5.229
28116SOL    HW286188   5.255   7.282   5.369
28117SOL     OW86189   1.183   6.589   5.268
28117SOL    HW186190   1.277   6.586   5.288
28117SOL    HW286191   1.154   6.498   5.279
28118SOL     OW86192  14.495   2.103  12.387
28118SOL    HW186193  14.548   2.078  12.463
28118SOL    HW286194  14.405   2.084  12.413
28119SOL     OW86195  11.793   2.358  14.606
28119SOL    HW186196  11.795   2.429  14.542
28119SOL    HW286197  11.883   2.327  14.610
28120SOL     OW86198  12.765   5.073   8.397
28120SOL    HW186199  12.677   5.084   8.361
28120SOL    HW286200  12.757   5.001   8.459
28121SOL     OW86201  11.335  13.144   0.735
28121SOL    HW186202  11.329  13.236   0.709
28121SOL    HW286203  11.288  13.140   0.818
28122SOL     OW86204   5.292  10.005   5.819
28122SOL    HW186205   5.354   9.979   5.751
28122SOL    HW286206   5.275   9.924   5.868
28123SOL     OW86207  14.375  14.370   0.465
28123SOL    HW186208  14.359  14.315   0.541
28123SOL    HW286209  14.420  14.447   0.500
28124SOL     OW86210  14.425  13.476   3.680
28124SOL    HW186211  14.365  13.509   3.613
28124SOL    HW286212  14.374  13.480   3.761
28125SOL     OW86213   2.794   1.547   0.269
28125SOL    HW186214   2.879   1.505   0.258
28125SOL    HW286215   2.730   1.478   0.253
28126SOL     OW86216   7.540   6.944  13.623
28126SOL    HW186217   7.558   7.038  13.618
28126SOL    HW286218   7.472   6.929  13.558
28127SOL     OW86219   9.202   6.918   9.582
28127SOL    HW186220   9.221   6.987   9.519
28127SOL    HW286221   9.147   6.960   9.647
28128SOL     OW86222   2.642   2.771   3.928
28128SOL    HW186223   2.550   2.764   3.901
28128SOL    HW286224   2.648   2.857   3.969
28129SOL     OW86225  12.332   5.201  11.827
28129SOL    HW186226  12.286   5.118  11.841
28129SOL    HW286227  12.395   5.181  11.758
28130SOL     OW86228   1.732   0.954  11.506
28130SOL    HW186229   1.783   0.926  11.430
28130SOL    HW286230   1.709   0.872  11.551
28131SOL     OW86231   1.104   4.036   9.743
28131SOL    HW186232   1.137   4.096   9.676
28131SOL    HW286233   1.172   4.035   9.810
28132SOL     OW86234   3.163   8.562  12.820
28132SOL    HW186235   3.217   8.581  12.743
28132SOL    HW286236   3.217   8.586  12.895
28133SOL     OW86237   5.145   0.161   2.894
28133SOL    HW186238   5.197   0.110   2.832
28133SOL    HW286239   5.132   0.102   2.968
28134SOL     OW86240   3.204  12.979   4.732
28134SOL    HW186241   3.193  12.979   4.827
28134SOL    HW286242   3.116  12.991   4.698
28135SOL     OW86243  14.298  13.280  10.578
28135SOL    HW186244  14.255  13.351  10.529
28135SOL    HW286245  14.283  13.303  10.670
28136SOL     OW86246   9.631   2.038   7.621
28136SOL    HW186247   9.691   1.964   7.632
28136SOL    HW286248   9.656   2.099   7.690
28137SOL     OW86249   9.656  12.946   6.386
28137SOL    HW186250   9.572  12.973   6.349
28137SOL    HW286251   9.647  12.852   6.400
28138SOL     OW86252   4.112   6.860   0.356
28138SOL    HW186253   4.197   6.860   0.310
28138SOL    HW286254   4.048   6.866   0.285
28139SOL     OW86255   2.898  10.607   3.488
28139SOL    HW186256   2.810  10.644   3.490
28139SOL    HW286257   2.954  10.674   3.526
28140SOL     OW86258   6.437  11.380   2.840
28140SOL    HW186259   6.429  11.287   2.820
28140SOL    HW286260   6.367  11.397   2.904
28141SOL     OW86261  14.501   3.852   1.336
28141SOL    HW186262  14.520   3.765   1.301
28141SOL    HW286263  14.564   3.910   1.293
28142SOL     OW86264   9.129   2.333   6.091
28142SOL    HW186265   9.078   2.252   6.088
28142SOL    HW286266   9.100   2.382   6.014
28143SOL     OW86267  12.317   6.284   6.261
28143SOL    HW186268  12.248   6.257   6.322
28143SOL    HW286269  12.317   6.379   6.265
28144SOL     OW86270   6.291   9.126   2.823
28144SOL    HW186271   6.241   9.177   2.760
28144SOL    HW286272   6.247   9.041   2.828
28145SOL     OW86273   4.084   9.657   9.385
28145SOL    HW186274   4.113   9.747   9.402
28145SOL    HW286275   4.149   9.602   9.428
28146SOL     OW86276   8.904   8.638   0.143
28146SOL    HW186277   8.926   8.716   0.195
28146SOL    HW286278   8.942   8.565   0.191
28147SOL     OW86279  12.314  13.569   3.592
28147SOL    HW186280  12.309  13.483   3.633
28147SOL    HW286281  12.397  13.605   3.620
28148SOL     OW86282  14.674  13.409  10.395
28148SOL    HW186283  14.652  13.377  10.482
28148SOL    HW286284  14.681  13.330  10.342
28149SOL     OW86285  13.875   4.381   7.012
28149SOL    HW186286  13.916   4.302   7.048
28149SOL    HW286287  13.911   4.453   7.064
28150SOL     OW86288   6.197   0.888   6.845
28150SOL    HW186289   6.157   0.880   6.758
28150SOL    HW286290   6.254   0.964   6.838
28151SOL     OW86291  13.391   6.575   8.381
28151SOL    HW186292  13.483   6.569   8.406
28151SOL    HW286293  13.387   6.651   8.322
28152SOL     OW86294   3.122   3.953   8.425
28152SOL    HW186295   3.100   3.974   8.334
28152SOL    HW286296   3.218   3.954   8.428
28153SOL     OW86297   6.089   1.816   4.923
28153SOL    HW186298   6.084   1.837   4.830
28153SOL    HW286299   6.032   1.739   4.933
28154SOL     OW86300   9.929   8.403   1.646
28154SOL    HW186301   9.934   8.335   1.578
28154SOL    HW286302   9.962   8.360   1.725
28155SOL     OW86303   6.331   2.177   4.949
28155SOL    HW186304   6.318   2.224   4.867
28155SOL    HW286305   6.275   2.222   5.012
28156SOL     OW86306   0.249  13.819   5.472
28156SOL    HW186307   0.272  13.909   5.452
28156SOL    HW286308   0.248  13.775   5.387
28157SOL     OW86309  14.408   8.487   8.653
28157SOL    HW186310  14.393   8.415   8.714
28157SOL    HW286311  14.323   8.530   8.644
28158SOL     OW86312   9.526   1.958   4.774
28158SOL    HW186313   9.471   1.912   4.837
28158SOL    HW286314   9.554   2.037   4.821
28159SOL     OW86315  14.637   5.127   9.508
28159SOL    HW186316  14.662   5.211   9.470
28159SOL    HW286317  14.686   5.062   9.458
28160SOL     OW86318  12.840   8.529   8.461
28160SOL    HW186319  12.889   8.610   8.445
28160SOL    HW286320  12.762   8.536   8.406
28161SOL     OW86321   8.453  14.691   4.818
28161SOL    HW186322   8.359  14.677   4.812
28161SOL    HW286323   8.473  14.750   4.745
28162SOL     OW86324  14.058   9.555  11.491
28162SOL    HW186325  13.963   9.558  11.484
28162SOL    HW286326  14.085   9.646  11.502
28163SOL     OW86327   2.135   5.379   7.502
28163SOL    HW186328   2.094   5.453   7.547
28163SOL    HW286329   2.206   5.352   7.560
28164SOL     OW86330  13.079   6.346  12.748
28164SOL    HW186331  13.092   6.364  12.654
28164SOL    HW286332  13.081   6.251  12.754
28165SOL     OW86333  12.527   3.549  14.137
28165SOL    HW186334  12.539   3.610  14.063
28165SOL    HW286335  12.464   3.593  14.194
28166SOL     OW86336   8.509   8.746  14.822
28166SOL    HW186337   8.524   8.666  14.771
28166SOL    HW286338   8.596   8.786  14.829
28167SOL     OW86339   8.006   4.967   1.811
28167SOL    HW186340   8.084   4.999   1.767
28167SOL    HW286341   7.990   5.031   1.881
28168SOL     OW86342  11.326   5.027  10.976
28168SOL    HW186343  11.341   5.003  11.067
28168SOL    HW286344  11.271   5.105  10.981
28169SOL     OW86345  11.471   7.026   4.183
28169SOL    HW186346  11.400   7.064   4.234
28169SOL    HW286347  11.489   7.091   4.115
28170SOL     OW86348   8.141  11.487   0.387
28170SOL    HW186349   8.114  11.396   0.400
28170SOL    HW286350   8.208  11.501   0.455
28171SOL     OW86351   9.458  11.001  12.368
28171SOL    HW186352   9.436  11.091  12.344
28171SOL    HW286353   9.373  10.959  12.383
28172SOL     OW86354   6.545   0.633   8.509
28172SOL    HW186355   6.511   0.673   8.589
28172SOL    HW286356   6.514   0.543   8.512
28173SOL     OW86357   2.137   6.220   3.598
28173SOL    HW186358   2.078   6.166   3.547
28173SOL    HW286359   2.080   6.268   3.658
28174SOL     OW86360  13.246   7.735   7.999
28174SOL    HW186361  13.178   7.737   8.066
28174SOL    HW286362  13.200   7.719   7.917
28175SOL     OW86363  10.955   4.719   4.867
28175SOL    HW186364  10.878   4.667   4.845
28175SOL    HW286365  10.935   4.757   4.953
28176SOL     OW86366   5.946  12.478   9.072
28176SOL    HW186367   6.003  12.553   9.086
28176SOL    HW286368   5.994  12.423   9.010
28177SOL     OW86369  14.482   7.847  12.238
28177SOL    HW186370  14.530   7.817  12.160
28177SOL    HW286371  14.414   7.905  12.203
28178SOL     OW86372   0.321  14.150  12.680
28178SOL    HW186373   0.230  14.126  12.699
28178SOL    HW286374   0.334  14.232  12.728
28179SOL     OW86375  11.889  11.357   9.169
28179SOL    HW186376  11.906  11.263   9.176
28179SOL    HW286377  11.949  11.388   9.101
28180SOL     OW86378  12.859   5.635   0.300
28180SOL    HW186379  12.863   5.575   0.374
28180SOL    HW286380  12.826   5.717   0.338
28181SOL     OW86381  11.094   6.133  13.358
28181SOL    HW186382  11.090   6.227  13.342
28181SOL    HW286383  11.028   6.096  13.300
28182SOL     OW86384   4.421  12.741   6.301
28182SOL    HW186385   4.451  12.788   6.224
28182SOL    HW286386   4.445  12.650   6.285
28183SOL     OW86387  13.214  14.124  11.427
28183SOL    HW186388  13.171  14.207  11.446
28183SOL    HW286389  13.190  14.104  11.337
28184SOL     OW86390   3.159  11.871   9.324
28184SOL    HW186391   3.098  11.936   9.290
28184SOL    HW286392   3.211  11.844   9.249
28185SOL     OW86393   7.008   0.180   0.798
28185SOL    HW186394   6.992   0.145   0.886
28185SOL    HW286395   7.087   0.233   0.808
28186SOL     OW86396  14.800   7.427   3.706
28186SOL    HW186397  14.768   7.382   3.629
28186SOL    HW286398  14.723   7.435   3.763
28187SOL     OW86399  11.289   3.374   7.303
28187SOL    HW186400  11.313   3.462   7.333
28187SOL    HW286401  11.282   3.382   7.208
28188SOL     OW86402  11.672   5.490   6.975
28188SOL    HW186403  11.687   5.406   7.019
28188SOL    HW286404  11.576   5.498   6.972
28189SOL     OW86405   9.847  14.730   8.733
28189SOL    HW186406   9.865  14.813   8.776
28189SOL    HW286407   9.778  14.690   8.786
28190SOL     OW86408   8.466   4.633   3.476
28190SOL    HW186409   8.528   4.706   3.479
28190SOL    HW286410   8.453   4.609   3.568
28191SOL     OW86411  13.924  10.496   0.980
28191SOL    HW186412  14.007  10.538   0.957
28191SOL    HW286413  13.947  10.404   0.994
28192SOL     OW86414   1.422   5.829   5.556
28192SOL    HW186415   1.479   5.753   5.544
28192SOL    HW286416   1.379   5.814   5.640
28193SOL     OW86417   4.937  13.883   6.357
28193SOL    HW186418   4.981  13.818   6.411
28193SOL    HW286419   4.926  13.840   6.272
28194SOL     OW86420   7.224   5.358  12.608
28194SOL    HW186421   7.233   5.446  12.645
28194SOL    HW286422   7.284   5.304  12.659
28195SOL     OW86423  13.958   1.691   5.946
28195SOL    HW186424  13.924   1.618   5.895
28195SOL    HW286425  14.050   1.698   5.920
28196SOL     OW86426  12.494   3.484   2.359
28196SOL    HW186427  12.519   3.391   2.363
28196SOL    HW286428  12.431   3.488   2.287
28197SOL     OW86429   2.222   1.318  11.702
28197SOL    HW186430   2.301   1.267  11.718
28197SOL    HW286431   2.150   1.258  11.717
28198SOL     OW86432   1.985  13.181   8.678
28198SOL    HW186433   1.907  13.144   8.636
28198SOL    HW286434   1.951  13.249   8.737
28199SOL     OW86435   9.317   3.301  13.343
28199SOL    HW186436   9.307   3.333  13.433
28199SOL    HW286437   9.266   3.362  13.290
28200SOL     OW86438   9.398  14.423  14.090
28200SOL    HW186439   9.317  14.456  14.050
28200SOL    HW286440   9.402  14.331  14.065
28201SOL     OW86441  10.153   8.819   6.600
28201SOL    HW186442  10.143   8.818   6.696
28201SOL    HW286443  10.238   8.860   6.586
28202SOL     OW86444   6.773   0.989  13.699
28202SOL    HW186445   6.713   1.049  13.654
28202SOL    HW286446   6.829   1.046  13.751
28203SOL     OW86447  10.642   9.824  12.703
28203SOL    HW186448  10.669   9.844  12.793
28203SOL    HW286449  10.710   9.765  12.670
28204SOL     OW86450  11.681   5.557  13.219
28204SOL    HW186451  11.766   5.513  13.216
28204SOL    HW286452  11.649   5.541  13.308
28205SOL     OW86453  14.858   9.352   6.791
28205SOL    HW186454  14.820   9.327   6.875
28205SOL    HW286455   0.062   9.306   6.787
28206SOL     OW86456   4.695  10.449   2.785
28206SOL    HW186457   4.678  10.376   2.845
28206SOL    HW286458   4.714  10.523   2.843
28207SOL     OW86459  10.304   1.895   5.651
28207SOL    HW186460  10.359   1.951   5.595
28207SOL    HW286461  10.365   1.831   5.687
28208SOL     OW86462   1.319   5.949   1.261
28208SOL    HW186463   1.323   5.920   1.170
28208SOL    HW286464   1.409   5.946   1.292
28209SOL     OW86465   3.350  12.023   5.970
28209SOL    HW186466   3.340  11.955   6.037
28209SOL    HW286467   3.308  12.100   6.009
28210SOL     OW86468  12.931  12.221   7.364
28210SOL    HW186469  12.959  12.151   7.423
28210SOL    HW286470  13.006  12.235   7.306
28211SOL     OW86471  13.472  13.677   6.142
28211SOL    HW186472  13.516  13.743   6.196
28211SOL    HW286473  13.473  13.598   6.197
28212SOL     OW86474   8.595   3.393  14.172
28212SOL    HW186475   8.634   3.468  14.216
28212SOL    HW286476   8.665   3.360  14.115
28213SOL     OW86477   1.675  12.811  10.119
28213SOL    HW186478   1.709  12.823  10.030
28213SOL    HW286479   1.648  12.720  10.123
28214SOL     OW86480   3.119   4.625  10.503
28214SOL    HW186481   3.064   4.644  10.426
28214SOL    HW286482   3.057   4.593  10.569
28215SOL     OW86483   4.713  14.702   2.413
28215SOL    HW186484   4.629  14.744   2.396
28215SOL    HW286485   4.777  14.772   2.406
28216SOL     OW86486   9.836   9.318  10.526
28216SOL    HW186487   9.812   9.270  10.447
28216SOL    HW286488   9.759   9.313  10.582
28217SOL     OW86489   9.414   4.479  13.311
28217SOL    HW186490   9.334   4.435  13.282
28217SOL    HW286491   9.383   4.553  13.363
28218SOL     OW86492   5.126   9.002  11.363
28218SOL    HW186493   5.209   9.051  11.359
28218SOL    HW286494   5.149   8.922  11.411
28219SOL     OW86495   8.169   8.485  14.331
28219SOL    HW186496   8.160   8.485  14.427
28219SOL    HW286497   8.257   8.453  14.315
28220SOL     OW86498   2.157  11.235   4.822
28220SOL    HW186499   2.125  11.267   4.738
28220SOL    HW286500   2.134  11.303   4.884
28221SOL     OW86501   0.401  12.215   0.359
28221SOL    HW186502   0.352  12.139   0.327
28221SOL    HW286503   0.397  12.208   0.454
28222SOL     OW86504   8.123   5.805   3.327
28222SOL    HW186505   8.110   5.845   3.413
28222SOL    HW286506   8.218   5.801   3.318
28223SOL     OW86507   2.348  12.143   8.740
28223SOL    HW186508   2.328  12.155   8.833
28223SOL    HW286509   2.263  12.147   8.697
28224SOL     OW86510   2.781   4.548  11.722
28224SOL    HW186511   2.875   4.532  11.727
28224SOL    HW286512   2.747   4.479  11.665
28225SOL     OW86513   4.731   1.081  11.083
28225SOL    HW186514   4.672   1.151  11.056
28225SOL    HW286515   4.803   1.126  11.127
28226SOL     OW86516   1.811   7.619  11.163
28226SOL    HW186517   1.797   7.525  11.171
28226SOL    HW286518   1.906   7.630  11.171
28227SOL     OW86519   9.352   1.704   3.364
28227SOL    HW186520   9.290   1.723   3.293
28227SOL    HW286521   9.349   1.782   3.419
28228SOL     OW86522   1.892   6.092   9.088
28228SOL    HW186523   1.869   6.104   9.180
28228SOL    HW286524   1.881   5.998   9.072
28229SOL     OW86525   8.051   4.514  12.188
28229SOL    HW186526   8.102   4.453  12.135
28229SOL    HW286527   8.002   4.567  12.124
28230SOL     OW86528   9.408   5.436   6.453
28230SOL    HW186529   9.472   5.378   6.412
28230SOL    HW286530   9.440   5.449   6.542
28231SOL     OW86531   1.390  13.092  12.471
28231SOL    HW186532   1.326  13.136  12.415
28231SOL    HW286533   1.469  13.087  12.418
28232SOL     OW86534   9.848  14.227   5.799
28232SOL    HW186535   9.820  14.172   5.725
28232SOL    HW286536   9.943  14.229   5.793
28233SOL     OW86537  12.633   3.219   3.233
28233SOL    HW186538  12.701   3.155   3.210
28233SOL    HW286539  12.674   3.304   3.219
28234SOL     OW86540   9.928   2.366   1.774
28234SOL    HW186541   9.860   2.421   1.811
28234SOL    HW286542  10.007   2.389   1.823
28235SOL     OW86543   1.068   4.333   5.576
28235SOL    HW186544   1.065   4.403   5.642
28235SOL    HW286545   1.117   4.370   5.503
28236SOL     OW86546   6.969   9.447   1.121
28236SOL    HW186547   6.993   9.540   1.126
28236SOL    HW286548   7.051   9.400   1.133
28237SOL     OW86549  11.896  13.914   4.872
28237SOL    HW186550  11.868  13.998   4.835
28237SOL    HW286551  11.937  13.937   4.955
28238SOL     OW86552  12.373   2.926   3.105
28238SOL    HW186553  12.288   2.888   3.083
28238SOL    HW286554  12.377   2.921   3.201
28239SOL     OW86555  10.292  14.177   3.217
28239SOL    HW186556  10.263  14.226   3.140
28239SOL    HW286557  10.308  14.244   3.283
28240SOL     OW86558  10.142   7.238  14.391
28240SOL    HW186559  10.158   7.144  14.400
28240SOL    HW286560  10.137   7.270  14.481
28241SOL     OW86561   6.209   3.646   6.742
28241SOL    HW186562   6.252   3.715   6.693
28241SOL    HW286563   6.277   3.580   6.757
28242SOL     OW86564   7.726   0.993   1.462
28242SOL    HW186565   7.667   1.021   1.392
28242SOL    HW286566   7.769   0.915   1.427
28243SOL     OW86567   0.517  11.906   8.195
28243SOL    HW186568   0.610  11.892   8.174
28243SOL    HW286569   0.490  11.977   8.136
28244SOL     OW86570  13.787   1.841   0.915
28244SOL    HW186571  13.707   1.841   0.861
28244SOL    HW286572  13.830   1.759   0.893
28245SOL     OW86573   3.926   7.114   3.594
28245SOL    HW186574   3.872   7.082   3.522
28245SOL    HW286575   3.961   7.035   3.635
28246SOL     OW86576  13.619   1.407   6.698
28246SOL    HW186577  13.630   1.436   6.608
28246SOL    HW286578  13.592   1.315   6.690
28247SOL     OW86579   5.890   9.953   6.178
28247SOL    HW186580   5.914  10.028   6.233
28247SOL    HW286581   5.975   9.915   6.152
28248SOL     OW86582  12.758   5.103  11.817
28248SOL    HW186583  12.717   5.103  11.904
28248SOL    HW286584  12.746   5.013  11.785
28249SOL     OW86585  12.701   5.358   2.212
28249SOL    HW186586  12.770   5.348   2.277
28249SOL    HW286587  12.707   5.450   2.186
28250SOL     OW86588  13.569   8.034   7.192
28250SOL    HW186589  13.595   7.965   7.252
28250SOL    HW286590  13.524   7.988   7.121
28251SOL     OW86591   0.010  10.976   5.050
28251SOL    HW186592   0.013  10.932   5.135
28251SOL    HW286593  14.869  10.906   4.987
28252SOL     OW86594  13.804  13.784   9.511
28252SOL    HW186595  13.836  13.844   9.443
28252SOL    HW286596  13.864  13.798   9.585
28253SOL     OW86597   5.575   4.256  12.449
28253SOL    HW186598   5.513   4.255  12.522
28253SOL    HW286599   5.616   4.342  12.453
28254SOL     OW86600   2.628   9.081   6.440
28254SOL    HW186601   2.685   9.061   6.365
28254SOL    HW286602   2.540   9.067   6.407
28255SOL     OW86603   6.821   7.842  10.907
28255SOL    HW186604   6.807   7.926  10.863
28255SOL    HW286605   6.866   7.864  10.988
28256SOL     OW86606  11.902  13.828  10.967
28256SOL    HW186607  11.853  13.902  10.934
28256SOL    HW286608  11.949  13.793  10.891
28257SOL     OW86609   5.557   1.415   7.978
28257SOL    HW186610   5.494   1.471   8.023
28257SOL    HW286611   5.638   1.425   8.028
28258SOL     OW86612   9.672   9.055   3.850
28258SOL    HW186613   9.650   9.138   3.808
28258SOL    HW286614   9.697   9.079   3.939
28259SOL     OW86615   4.579   9.376   5.468
28259SOL    HW186616   4.673   9.368   5.452
28259SOL    HW286617   4.572   9.396   5.561
28260SOL     OW86618  13.528  13.956   3.866
28260SOL    HW186619  13.601  13.979   3.808
28260SOL    HW286620  13.456  13.933   3.807
28261SOL     OW86621   1.249  12.573  11.438
28261SOL    HW186622   1.230  12.600  11.528
28261SOL    HW286623   1.166  12.587  11.392
28262SOL     OW86624   7.753  14.307   1.538
28262SOL    HW186625   7.832  14.254   1.530
28262SOL    HW286626   7.689  14.264   1.481
28263SOL     OW86627   1.846  10.730   3.091
28263SOL    HW186628   1.826  10.645   3.130
28263SOL    HW286629   1.916  10.765   3.145
28264SOL     OW86630  14.489  14.684  13.944
28264SOL    HW186631  14.507  14.591  13.959
28264SOL    HW286632  14.499  14.696  13.850
28265SOL     OW86633   1.368   3.099  13.924
28265SOL    HW186634   1.390   3.009  13.901
28265SOL    HW286635   1.422   3.118  14.001
28266SOL     OW86636   3.838  12.483   9.758
28266SOL    HW186637   3.899  12.428   9.709
28266SOL    HW286638   3.760  12.488   9.702
28267SOL     OW86639   8.545   2.007  14.112
28267SOL    HW186640   8.601   2.083  14.127
28267SOL    HW286641   8.457   2.044  14.101
28268SOL     OW86642  14.559   8.626  10.547
28268SOL    HW186643  14.545   8.675  10.628
28268SOL    HW286644  14.638   8.574  10.564
28269SOL     OW86645  10.555   6.648  14.391
28269SOL    HW186646  10.541   6.553  14.390
28269SOL    HW286647  10.648   6.658  14.367
28270SOL     OW86648   0.907   2.496   4.471
28270SOL    HW186649   0.972   2.436   4.509
28270SOL    HW286650   0.954   2.539   4.400
28271SOL     OW86651   2.595   9.100  13.582
28271SOL    HW186652   2.605   9.119  13.675
28271SOL    HW286653   2.685   9.095  13.549
28272SOL     OW86654   5.686   3.630   7.498
28272SOL    HW186655   5.594   3.604   7.505
28272SOL    HW286656   5.734   3.559   7.542
28273SOL     OW86657  14.555  12.286   9.558
28273SOL    HW186658  14.463  12.266   9.542
28273SOL    HW286659  14.559  12.381   9.563
28274SOL     OW86660  11.823   3.993  12.774
28274SOL    HW186661  11.804   4.062  12.710
28274SOL    HW286662  11.919   3.989  12.776
28275SOL     OW86663  13.563   7.493  13.597
28275SOL    HW186664  13.545   7.550  13.523
28275SOL    HW286665  13.623   7.543  13.652
28276SOL     OW86666  10.945  13.588   0.436
28276SOL    HW186667  10.992  13.552   0.361
28276SOL    HW286668  11.012  13.639   0.483
28277SOL     OW86669   7.388   6.335   0.934
28277SOL    HW186670   7.321   6.402   0.927
28277SOL    HW286671   7.357   6.276   1.003
28278SOL     OW86672   1.734   0.384   4.346
28278SOL    HW186673   1.640   0.377   4.333
28278SOL    HW286674   1.754   0.317   4.412
28279SOL     OW86675   2.745  12.409  14.070
28279SOL    HW186676   2.708  12.441  14.152
28279SOL    HW286677   2.803  12.479  14.040
28280SOL     OW86678  13.330  11.691   6.993
28280SOL    HW186679  13.426  11.687   6.997
28280SOL    HW286680  13.304  11.605   6.961
28281SOL     OW86681   3.044   3.420   5.190
28281SOL    HW186682   2.984   3.387   5.257
28281SOL    HW286683   3.068   3.507   5.222
28282SOL     OW86684   5.011   4.035  11.046
28282SOL    HW186685   4.920   4.007  11.055
28282SOL    HW286686   5.013   4.122  11.085
28283SOL     OW86687  10.333   9.686   1.842
28283SOL    HW186688  10.417   9.641   1.838
28283SOL    HW286689  10.276   9.628   1.892
28284SOL     OW86690  11.068  13.309  11.775
28284SOL    HW186691  11.117  13.351  11.846
28284SOL    HW286692  11.049  13.379  11.713
28285SOL     OW86693  13.374  13.627   2.617
28285SOL    HW186694  13.340  13.673   2.694
28285SOL    HW286695  13.448  13.576   2.649
28286SOL     OW86696   5.963  11.768  11.036
28286SOL    HW186697   5.902  11.699  11.008
28286SOL    HW286698   6.049  11.726  11.034
28287SOL     OW86699   4.775  10.628  13.078
28287SOL    HW186700   4.835  10.696  13.046
28287SOL    HW286701   4.690  10.671  13.082
28288SOL     OW86702   9.483  11.012  10.792
28288SOL    HW186703   9.539  11.015  10.870
28288SOL    HW286704   9.396  11.033  10.826
28289SOL     OW86705   3.852   7.030   1.605
28289SOL    HW186706   3.809   6.983   1.533
28289SOL    HW286707   3.936   6.985   1.617
28290SOL     OW86708   3.314  10.805   4.946
28290SOL    HW186709   3.256  10.753   5.001
28290SOL    HW286710   3.318  10.756   4.863
28291SOL     OW86711   1.964   8.513   2.311
28291SOL    HW186712   2.027   8.542   2.377
28291SOL    HW286713   1.998   8.429   2.280
28292SOL     OW86714   6.070   5.480   2.343
28292SOL    HW186715   6.092   5.433   2.423
28292SOL    HW286716   6.036   5.413   2.284
28293SOL     OW86717   7.832  13.049  14.686
28293SOL    HW186718   7.831  13.063  14.591
28293SOL    HW286719   7.867  13.131  14.721
28294SOL     OW86720   5.623   1.882   3.832
28294SOL    HW186721   5.690   1.854   3.769
28294SOL    HW286722   5.667   1.878   3.917
28295SOL     OW86723   8.856   5.383  11.243
28295SOL    HW186724   8.816   5.451  11.188
28295SOL    HW286725   8.893   5.431  11.317
28296SOL     OW86726   6.856   9.157   5.972
28296SOL    HW186727   6.814   9.242   5.960
28296SOL    HW286728   6.830   9.106   5.895
28297SOL     OW86729  10.580  14.328   5.160
28297SOL    HW186730  10.598  14.420   5.142
28297SOL    HW286731  10.658  14.282   5.131
28298SOL     OW86732   3.274  11.834   6.259
28298SOL    HW186733   3.369  11.829   6.258
28298SOL    HW286734   3.254  11.910   6.314
28299SOL     OW86735   4.536  14.650   2.785
28299SOL    HW186736   4.536  14.742   2.813
28299SOL    HW286737   4.628  14.629   2.773
28300SOL     OW86738  11.412   9.466   1.701
28300SOL    HW186739  11.450   9.497   1.783
28300SOL    HW286740  11.373   9.381   1.724
28301SOL     OW86741   6.096   2.756   0.842
28301SOL    HW186742   6.121   2.819   0.910
28301SOL    HW286743   6.005   2.735   0.862
28302SOL     OW86744  10.737   4.853   9.893
28302SOL    HW186745  10.788   4.779   9.859
28302SOL    HW286746  10.794   4.929   9.882
28303SOL     OW86747   4.529   7.850   8.612
28303SOL    HW186748   4.534   7.904   8.691
28303SOL    HW286749   4.450   7.881   8.567
28304SOL     OW86750   8.038   9.958   2.664
28304SOL    HW186751   7.961   9.920   2.622
28304SOL    HW286752   8.013  10.050   2.680
28305SOL     OW86753   2.004  10.803   8.559
28305SOL    HW186754   1.964  10.742   8.496
28305SOL    HW286755   1.933  10.863   8.581
28306SOL     OW86756   6.859  12.756   2.187
28306SOL    HW186757   6.795  12.823   2.165
28306SOL    HW286758   6.893  12.727   2.102
28307SOL     OW86759   2.016  12.286   7.514
28307SOL    HW186760   2.039  12.350   7.581
28307SOL    HW286761   2.022  12.334   7.431
28308SOL     OW86762   2.981   9.017   5.694
28308SOL    HW186763   2.978   8.926   5.662
28308SOL    HW286764   3.065   9.051   5.663
28309SOL     OW86765   9.854   3.942   6.089
28309SOL    HW186766   9.931   3.998   6.087
28309SOL    HW286767   9.780   4.003   6.092
28310SOL     OW86768   3.989   7.050   1.036
28310SOL    HW186769   3.968   7.120   1.098
28310SOL    HW286770   3.951   7.079   0.954
28311SOL     OW86771   7.177   1.371   0.081
28311SOL    HW186772   7.228   1.326   0.148
28311SOL    HW286773   7.213   1.460   0.080
28312SOL     OW86774   4.617  10.558   7.430
28312SOL    HW186775   4.566  10.638   7.446
28312SOL    HW286776   4.570  10.490   7.478
28313SOL     OW86777   3.681   0.072   1.142
28313SOL    HW186778   3.743   0.137   1.173
28313SOL    HW286779   3.612   0.071   1.209
28314SOL     OW86780  14.710  12.034  11.490
28314SOL    HW186781  14.681  11.958  11.540
28314SOL    HW286782  14.794  12.058  11.530
28315SOL     OW86783  14.157  10.238   8.133
28315SOL    HW186784  14.189  10.240   8.042
28315SOL    HW286785  14.206  10.166   8.173
28316SOL     OW86786   4.905   8.781   7.278
28316SOL    HW186787   4.961   8.736   7.342
28316SOL    HW286788   4.820   8.786   7.321
28317SOL     OW86789   9.175  13.052   2.318
28317SOL    HW186790   9.112  12.985   2.292
28317SOL    HW286791   9.125  13.133   2.317
28318SOL     OW86792  11.932  14.582   1.195
28318SOL    HW186793  11.914  14.634   1.273
28318SOL    HW286794  12.002  14.522   1.221
28319SOL     OW86795  13.418   2.189   2.349
28319SOL    HW186796  13.506   2.153   2.339
28319SOL    HW286797  13.370   2.123   2.399
28320SOL     OW86798   8.397   1.102   9.232
28320SOL    HW186799   8.460   1.173   9.218
28320SOL    HW286800   8.322   1.144   9.275
28321SOL     OW86801   6.759   9.176   5.293
28321SOL    HW186802   6.690   9.239   5.275
28321SOL    HW286803   6.715   9.091   5.293
28322SOL     OW86804  14.655   2.191  12.916
28322SOL    HW186805  14.740   2.147  12.911
28322SOL    HW286806  14.603   2.148  12.848
28323SOL     OW86807   8.533  11.140   6.357
28323SOL    HW186808   8.612  11.187   6.332
28323SOL    HW286809   8.501  11.185   6.434
28324SOL     OW86810  13.714   8.384   0.795
28324SOL    HW186811  13.641   8.376   0.856
28324SOL    HW286812  13.700   8.468   0.751
28325SOL     OW86813  14.197  14.068   3.004
28325SOL    HW186814  14.116  14.067   3.055
28325SOL    HW286815  14.254  14.005   3.047
28326SOL     OW86816  10.968  11.520   3.768
28326SOL    HW186817  11.046  11.568   3.798
28326SOL    HW286818  11.000  11.465   3.697
28327SOL     OW86819   9.845   3.760   1.301
28327SOL    HW186820   9.918   3.699   1.313
28327SOL    HW286821   9.768   3.708   1.321
28328SOL     OW86822   3.885   6.066   4.157
28328SOL    HW186823   3.948   6.059   4.228
28328SOL    HW286824   3.799   6.065   4.201
28329SOL     OW86825   3.768  14.488   1.244
28329SOL    HW186826   3.834  14.490   1.313
28329SOL    HW286827   3.760  14.395   1.221
28330SOL     OW86828   6.758   5.146  14.723
28330SOL    HW186829   6.682   5.090  14.706
28330SOL    HW286830   6.820   5.124  14.654
28331SOL     OW86831  14.527  13.937   2.556
28331SOL    HW186832  14.568  13.888   2.485
28331SOL    HW286833  14.498  14.019   2.514
28332SOL     OW86834   4.152   7.315  13.795
28332SOL    HW186835   4.096   7.238  13.802
28332SOL    HW286836   4.230   7.293  13.846
28333SOL     OW86837  10.537   3.841   4.191
28333SOL    HW186838  10.630   3.840   4.213
28333SOL    HW286839  10.523   3.759   4.144
28334SOL     OW86840   9.847  12.939   4.458
28334SOL    HW186841   9.757  12.909   4.445
28334SOL    HW286842   9.839  13.033   4.474
28335SOL     OW86843   3.620   2.221  10.665
28335SOL    HW186844   3.630   2.274  10.744
28335SOL    HW286845   3.695   2.162  10.666
28336SOL     OW86846   1.825   5.850   4.751
28336SOL    HW186847   1.769   5.807   4.687
28336SOL    HW286848   1.871   5.778   4.795
28337SOL     OW86849   8.908  12.893   6.319
28337SOL    HW186850   8.883  12.893   6.226
28337SOL    HW286851   8.907  12.985   6.344
28338SOL     OW86852   4.181  14.519   3.463
28338SOL    HW186853   4.109  14.508   3.525
28338SOL    HW286854   4.228  14.436   3.465
28339SOL     OW86855  10.490   9.085  10.381
28339SOL    HW186856  10.463   8.994  10.390
28339SOL    HW286857  10.585   9.083  10.392
28340SOL     OW86858  10.341  14.662   3.004
28340SOL    HW186859  10.308  14.588   2.953
28340SOL    HW286860  10.278  14.732   2.989
28341SOL     OW86861  10.659   4.723   3.702
28341SOL    HW186862  10.612   4.794   3.659
28341SOL    HW286863  10.593   4.681   3.757
28342SOL     OW86864  12.713  10.094  13.193
28342SOL    HW186865  12.712  10.090  13.097
28342SOL    HW286866  12.805  10.088  13.216
28343SOL     OW86867   1.934   1.561  10.864
28343SOL    HW186868   1.999   1.623  10.833
28343SOL    HW286869   1.895   1.524  10.784
28344SOL     OW86870  13.344   8.872   1.967
28344SOL    HW186871  13.374   8.943   1.910
28344SOL    HW286872  13.283   8.914   2.027
28345SOL     OW86873   7.098   8.807   5.654
28345SOL    HW186874   7.082   8.749   5.729
28345SOL    HW286875   7.193   8.821   5.655
28346SOL     OW86876   4.730  14.051   6.380
28346SOL    HW186877   4.808  13.996   6.375
28346SOL    HW286878   4.721  14.071   6.473
28347SOL     OW86879   4.059   9.433   2.917
28347SOL    HW186880   3.987   9.426   2.855
28347SOL    HW286881   4.068   9.527   2.935
28348SOL     OW86882   4.833  11.105   2.831
28348SOL    HW186883   4.798  11.192   2.809
28348SOL    HW286884   4.910  11.123   2.885
28349SOL     OW86885   0.573   6.743  10.608
28349SOL    HW186886   0.653   6.790  10.588
28349SOL    HW286887   0.557   6.761  10.701
28350SOL     OW86888  13.999   8.997   5.397
28350SOL    HW186889  13.957   9.078   5.369
28350SOL    HW286890  14.088   9.023   5.423
28351SOL     OW86891  13.406   8.140   8.714
28351SOL    HW186892  13.468   8.071   8.691
28351SOL    HW286893  13.378   8.176   8.630
28352SOL     OW86894   3.458   5.400   8.957
28352SOL    HW186895   3.413   5.483   8.972
28352SOL    HW286896   3.417   5.365   8.878
28353SOL     OW86897   4.050   5.548   6.734
28353SOL    HW186898   4.023   5.619   6.792
28353SOL    HW286899   3.997   5.473   6.761
28354SOL     OW86900   8.807   1.915  12.158
28354SOL    HW186901   8.772   1.990  12.206
28354SOL    HW286902   8.901   1.928  12.158
28355SOL     OW86903  11.284   7.184   8.614
28355SOL    HW186904  11.203   7.235   8.608
28355SOL    HW286905  11.316   7.202   8.703
28356SOL     OW86906   0.947  14.347   1.945
28356SOL    HW186907   0.958  14.432   1.902
28356SOL    HW286908   0.907  14.367   2.029
28357SOL     OW86909   0.101   4.330   1.681
28357SOL    HW186910   0.145   4.263   1.629
28357SOL    HW286911   0.013   4.336   1.643
28358SOL     OW86912   0.756   6.863   2.445
28358SOL    HW186913   0.788   6.829   2.528
28358SOL    HW286914   0.661   6.855   2.451
28359SOL     OW86915   2.792   7.443  13.804
28359SOL    HW186916   2.731   7.496  13.856
28359SOL    HW286917   2.859   7.415  13.866
28360SOL     OW86918  11.055   7.308   9.066
28360SOL    HW186919  11.005   7.376   9.111
28360SOL    HW286920  11.020   7.226   9.099
28361SOL     OW86921  10.638  12.331  14.022
28361SOL    HW186922  10.727  12.365  14.023
28361SOL    HW286923  10.648  12.236  14.020
28362SOL     OW86924  13.479   2.755   9.857
28362SOL    HW186925  13.387   2.753   9.882
28362SOL    HW286926  13.490   2.838   9.811
28363SOL     OW86927  12.298   8.110   0.643
28363SOL    HW186928  12.340   8.029   0.669
28363SOL    HW286929  12.366   8.177   0.650
28364SOL     OW86930   7.612   0.190   9.974
28364SOL    HW186931   7.585   0.113   9.925
28364SOL    HW286932   7.559   0.188  10.054
28365SOL     OW86933   0.609  11.817   1.328
28365SOL    HW186934   0.622  11.838   1.236
28365SOL    HW286935   0.541  11.750   1.328
28366SOL     OW86936   5.748   7.558   6.712
28366SOL    HW186937   5.763   7.647   6.745
28366SOL    HW286938   5.717   7.570   6.622
28367SOL     OW86939  10.876   5.281   1.768
28367SOL    HW186940  10.900   5.374   1.766
28367SOL    HW286941  10.811   5.274   1.838
28368SOL     OW86942   7.116  12.862  10.222
28368SOL    HW186943   7.052  12.925  10.256
28368SOL    HW286944   7.198  12.912  10.218
28369SOL     OW86945   8.139  10.541   3.780
28369SOL    HW186946   8.096  10.616   3.740
28369SOL    HW286947   8.229  10.544   3.748
28370SOL     OW86948   2.928  12.965   4.225
28370SOL    HW186949   2.969  12.914   4.155
28370SOL    HW286950   2.905  12.900   4.291
28371SOL     OW86951   8.703   2.178   3.132
28371SOL    HW186952   8.670   2.095   3.165
28371SOL    HW286953   8.781   2.196   3.185
28372SOL     OW86954  14.069   9.953   7.222
28372SOL    HW186955  14.080   9.933   7.315
28372SOL    HW286956  14.055  10.048   7.219
28373SOL     OW86957   1.315   4.673   2.107
28373SOL    HW186958   1.354   4.707   2.026
28373SOL    HW286959   1.238   4.729   2.122
28374SOL     OW86960   4.644   1.572  10.222
28374SOL    HW186961   4.604   1.565  10.308
28374SOL    HW286962   4.584   1.627  10.172
28375SOL     OW86963   8.027  12.873  14.366
28375SOL    HW186964   7.967  12.942  14.396
28375SOL    HW286965   8.114  12.913  14.372
28376SOL     OW86966   7.485  11.701   7.257
28376SOL    HW186967   7.562  11.758   7.264
28376SOL    HW286968   7.421  11.740   7.317
28377SOL     OW86969   8.355   6.988   8.490
28377SOL    HW186970   8.387   7.015   8.404
28377SOL    HW286971   8.433   6.988   8.545
28378SOL     OW86972   1.157  11.044   8.022
28378SOL    HW186973   1.123  11.122   8.065
28378SOL    HW286974   1.147  10.974   8.087
28379SOL     OW86975   4.744  12.228   7.970
28379SOL    HW186976   4.808  12.171   7.927
28379SOL    HW286977   4.706  12.173   8.039
28380SOL     OW86978   5.053   0.287  11.525
28380SOL    HW186979   5.018   0.228  11.459
28380SOL    HW286980   5.112   0.233  11.577
28381SOL     OW86981  12.777   5.919  10.187
28381SOL    HW186982  12.731   5.999  10.160
28381SOL    HW286983  12.725   5.848  10.149
28382SOL     OW86984  13.905   2.314   9.849
28382SOL    HW186985  13.931   2.290   9.938
28382SOL    HW286986  13.844   2.387   9.861
28383SOL     OW86987   0.400   2.896   3.223
28383SOL    HW186988   0.343   2.859   3.291
28383SOL    HW286989   0.446   2.968   3.267
28384SOL     OW86990  12.940  14.686   3.478
28384SOL    HW186991  12.909  14.767   3.438
28384SOL    HW286992  13.000  14.715   3.546
28385SOL     OW86993   7.679   2.743   8.177
28385SOL    HW186994   7.701   2.788   8.258
28385SOL    HW286995   7.676   2.812   8.111
28386SOL     OW86996   5.434   7.019   2.002
28386SOL    HW186997   5.466   6.944   2.051
28386SOL    HW286998   5.386   7.071   2.066
28387SOL     OW86999   9.571   5.688   0.604
28387SOL    HW187000   9.663   5.707   0.582
28387SOL    HW287001   9.536   5.646   0.525
28388SOL     OW87002   3.442   1.985   7.619
28388SOL    HW187003   3.456   2.010   7.710
28388SOL    HW287004   3.435   2.068   7.572
28389SOL     OW87005   2.069   8.693   4.183
28389SOL    HW187006   2.138   8.626   4.182
28389SOL    HW287007   1.998   8.654   4.132
28390SOL     OW87008   1.183  10.635   7.130
28390SOL    HW187009   1.202  10.549   7.167
28390SOL    HW287010   1.218  10.631   7.041
28391SOL     OW87011  11.331   4.195   7.489
28391SOL    HW187012  11.262   4.174   7.426
28391SOL    HW287013  11.411   4.198   7.438
28392SOL     OW87014   1.946   2.103   8.444
28392SOL    HW187015   2.035   2.090   8.412
28392SOL    HW287016   1.932   2.031   8.505
28393SOL     OW87017   8.718  13.072  12.351
28393SOL    HW187018   8.738  13.077  12.444
28393SOL    HW287019   8.627  13.042  12.348
28394SOL     OW87020  14.649  14.119   5.278
28394SOL    HW187021  14.603  14.109   5.194
28394SOL    HW287022  14.644  14.032   5.319
28395SOL     OW87023   8.515   9.827   0.400
28395SOL    HW187024   8.551   9.853   0.485
28395SOL    HW287025   8.558   9.886   0.337
28396SOL     OW87026   1.084   6.955  12.641
28396SOL    HW187027   1.175   6.929  12.626
28396SOL    HW287028   1.050   6.887  12.699
28397SOL     OW87029   9.789   3.857   4.403
28397SOL    HW187030   9.874   3.900   4.416
28397SOL    HW287031   9.739   3.918   4.350
28398SOL     OW87032   9.537   0.179  10.505
28398SOL    HW187033   9.587   0.250  10.465
28398SOL    HW287034   9.500   0.218  10.585
28399SOL     OW87035   6.623   1.165   7.551
28399SOL    HW187036   6.542   1.138   7.593
28399SOL    HW287037   6.692   1.128   7.605
28400SOL     OW87038   6.993   3.284   3.094
28400SOL    HW187039   7.010   3.376   3.114
28400SOL    HW287040   6.959   3.284   3.005
28401SOL     OW87041   5.276   5.891   9.603
28401SOL    HW187042   5.222   5.903   9.681
28401SOL    HW287043   5.216   5.857   9.537
28402SOL     OW87044   4.282   8.063  12.842
28402SOL    HW187045   4.331   8.022  12.913
28402SOL    HW287046   4.349   8.087  12.778
28403SOL     OW87047   1.022   6.206   1.811
28403SOL    HW187048   0.980   6.121   1.800
28403SOL    HW287049   1.085   6.211   1.739
28404SOL     OW87050  11.192   2.584  10.570
28404SOL    HW187051  11.159   2.525  10.503
28404SOL    HW287052  11.132   2.659  10.568
28405SOL     OW87053  10.696   8.854   7.667
28405SOL    HW187054  10.678   8.944   7.637
28405SOL    HW287055  10.781   8.833   7.627
28406SOL     OW87056   7.438  11.462   6.168
28406SOL    HW187057   7.449  11.367   6.175
28406SOL    HW287058   7.514  11.491   6.118
28407SOL     OW87059   1.615  10.793   7.547
28407SOL    HW187060   1.558  10.811   7.472
28407SOL    HW287061   1.558  10.754   7.613
28408SOL     OW87062   1.788   5.628   3.962
28408SOL    HW187063   1.847   5.589   4.026
28408SOL    HW287064   1.763   5.713   4.000
28409SOL     OW87065   4.969   2.006  13.821
28409SOL    HW187066   5.012   2.066  13.759
28409SOL    HW287067   4.884   1.987  13.781
28410SOL     OW87068   2.954   6.255   1.869
28410SOL    HW187069   2.917   6.315   1.804
28410SOL    HW287070   2.909   6.278   1.950
28411SOL     OW87071   3.726   8.658   1.529
28411SOL    HW187072   3.819   8.677   1.517
28411SOL    HW287073   3.723   8.566   1.554
28412SOL     OW87074  13.163   1.571   8.013
28412SOL    HW187075  13.081   1.619   8.028
28412SOL    HW287076  13.190   1.542   8.100
28413SOL     OW87077  11.546   9.713  11.770
28413SOL    HW187078  11.565   9.731  11.862
28413SOL    HW287079  11.575   9.792  11.724
28414SOL     OW87080  10.764   0.852   1.656
28414SOL    HW187081  10.723   0.807   1.582
28414SOL    HW287082  10.808   0.783   1.705
28415SOL     OW87083   6.570  11.488   1.776
28415SOL    HW187084   6.497  11.536   1.815
28415SOL    HW287085   6.635  11.556   1.755
28416SOL     OW87086  10.693  10.483   9.564
28416SOL    HW187087  10.603  10.504   9.541
28416SOL    HW287088  10.746  10.540   9.509
28417SOL     OW87089  13.295   0.155  13.518
28417SOL    HW187090  13.284   0.102  13.597
28417SOL    HW287091  13.209   0.156  13.477
28418SOL     OW87092   2.896  14.686  13.400
28418SOL    HW187093   2.802  14.702  13.394
28418SOL    HW287094   2.926  14.745  13.469
28419SOL     OW87095  12.318  12.879   2.626
28419SOL    HW187096  12.345  12.788   2.623
28419SOL    HW287097  12.372  12.918   2.694
28420SOL     OW87098   0.213   1.206  10.707
28420SOL    HW187099   0.256   1.174  10.627
28420SOL    HW287100   0.228   1.301  10.706
28421SOL     OW87101  10.490   5.919   3.253
28421SOL    HW187102  10.548   5.907   3.178
28421SOL    HW287103  10.537   5.980   3.310
28422SOL     OW87104  10.777   8.924  10.663
28422SOL    HW187105  10.790   8.859  10.732
28422SOL    HW287106  10.761   8.871  10.584
28423SOL     OW87107   6.100  11.620   6.624
28423SOL    HW187108   6.157  11.626   6.700
28423SOL    HW287109   6.039  11.549   6.644
28424SOL     OW87110  13.872   6.653  13.012
28424SOL    HW187111  13.786   6.643  13.053
28424SOL    HW287112  13.891   6.746  13.017
28425SOL     OW87113   5.872  12.813  12.305
28425SOL    HW187114   5.840  12.735  12.261
28425SOL    HW287115   5.828  12.812  12.390
28426SOL     OW87116   2.646   0.420  13.327
28426SOL    HW187117   2.673   0.451  13.241
28426SOL    HW287118   2.720   0.441  13.384
28427SOL     OW87119  13.189   1.895  10.958
28427SOL    HW187120  13.246   1.831  11.001
28427SOL    HW287121  13.144   1.846  10.890
28428SOL     OW87122  10.986   2.887   3.600
28428SOL    HW187123  10.909   2.865   3.653
28428SOL    HW287124  11.019   2.802   3.569
28429SOL     OW87125   6.289   9.478   7.919
28429SOL    HW187126   6.378   9.446   7.905
28429SOL    HW287127   6.234   9.419   7.867
28430SOL     OW87128   4.622   4.505   2.093
28430SOL    HW187129   4.538   4.546   2.115
28430SOL    HW287130   4.659   4.562   2.026
28431SOL     OW87131   3.868   0.912  12.387
28431SOL    HW187132   3.773   0.915  12.399
28431SOL    HW287133   3.901   0.981  12.445
28432SOL     OW87134   6.374   7.049  12.992
28432SOL    HW187135   6.301   7.103  13.022
28432SOL    HW287136   6.380   6.979  13.057
28433SOL     OW87137  11.364   7.822   4.786
28433SOL    HW187138  11.396   7.896   4.733
28433SOL    HW287139  11.327   7.864   4.863
28434SOL     OW87140   1.469   0.468   7.333
28434SOL    HW187141   1.554   0.428   7.320
28434SOL    HW287142   1.470   0.547   7.278
28435SOL     OW87143   3.570  11.397  11.962
28435SOL    HW187144   3.572  11.435  12.050
28435SOL    HW287145   3.620  11.459  11.908
28436SOL     OW87146   1.961   7.054  10.377
28436SOL    HW187147   1.931   7.082  10.291
28436SOL    HW287148   2.021   6.981  10.360
28437SOL     OW87149   4.302   5.498   8.963
28437SOL    HW187150   4.251   5.417   8.958
28437SOL    HW287151   4.392   5.471   8.942
28438SOL     OW87152   8.333  11.858   2.542
28438SOL    HW187153   8.349  11.948   2.515
28438SOL    HW287154   8.359  11.806   2.466
28439SOL     OW87155   2.445   3.018   9.414
28439SOL    HW187156   2.356   2.989   9.435
28439SOL    HW287157   2.495   2.937   9.405
28440SOL     OW87158   9.436   9.151  13.287
28440SOL    HW187159   9.422   9.060  13.313
28440SOL    HW287160   9.508   9.148  13.224
28441SOL     OW87161   4.114   2.821   3.263
28441SOL    HW187162   4.136   2.907   3.300
28441SOL    HW287163   4.191   2.767   3.280
28442SOL     OW87164   1.129   9.152   4.757
28442SOL    HW187165   1.073   9.154   4.835
28442SOL    HW287166   1.159   9.061   4.752
28443SOL     OW87167   4.084  10.789  14.229
28443SOL    HW187168   4.084  10.836  14.146
28443SOL    HW287169   4.106  10.855  14.294
28444SOL     OW87170   8.267  13.333  12.132
28444SOL    HW187171   8.172  13.340  12.118
28444SOL    HW287172   8.276  13.269  12.203
28445SOL     OW87173   3.433  11.337  10.881
28445SOL    HW187174   3.514  11.340  10.829
28445SOL    HW287175   3.417  11.428  10.905
28446SOL     OW87176   9.745   0.863   0.190
28446SOL    HW187177   9.658   0.822   0.187
28446SOL    HW287178   9.740   0.925   0.262
28447SOL     OW87179  13.176   8.862  12.979
28447SOL    HW187180  13.108   8.889  13.041
28447SOL    HW287181  13.212   8.782  13.016
28448SOL     OW87182   2.006  10.004  12.785
28448SOL    HW187183   2.072   9.992  12.717
28448SOL    HW287184   2.050   9.979  12.866
28449SOL     OW87185   5.250  12.460   3.411
28449SOL    HW187186   5.235  12.429   3.501
28449SOL    HW287187   5.218  12.389   3.356
28450SOL     OW87188   3.107   4.808   8.747
28450SOL    HW187189   3.182   4.854   8.785
28450SOL    HW287190   3.053   4.878   8.710
28451SOL     OW87191   2.552   9.011   0.536
28451SOL    HW187192   2.575   9.104   0.532
28451SOL    HW287193   2.484   9.000   0.469
28452SOL     OW87194   8.740  11.760   9.762
28452SOL    HW187195   8.829  11.781   9.733
28452SOL    HW287196   8.752  11.715   9.846
28453SOL     OW87197  10.823  11.791   7.465
28453SOL    HW187198  10.849  11.874   7.504
28453SOL    HW287199  10.818  11.809   7.371
28454SOL     OW87200   1.694  12.510   7.013
28454SOL    HW187201   1.746  12.589   6.997
28454SOL    HW287202   1.603  12.539   7.005
28455SOL     OW87203   9.876  13.337  12.685
28455SOL    HW187204   9.804  13.306  12.739
28455SOL    HW287205   9.944  13.362  12.747
28456SOL     OW87206  11.514   3.482   2.789
28456SOL    HW187207  11.433   3.532   2.781
28456SOL    HW287208  11.572   3.537   2.841
28457SOL     OW87209   0.590  10.155   8.255
28457SOL    HW187210   0.580  10.066   8.219
28457SOL    HW287211   0.593  10.142   8.350
28458SOL     OW87212   5.451   3.650   8.070
28458SOL    HW187213   5.435   3.690   8.156
28458SOL    HW287214   5.474   3.724   8.014
28459SOL     OW87215  14.192   1.193   5.328
28459SOL    HW187216  14.204   1.100   5.347
28459SOL    HW287217  14.257   1.237   5.383
28460SOL     OW87218   6.052  13.566   8.171
28460SOL    HW187219   6.051  13.604   8.259
28460SOL    HW287220   5.988  13.495   8.175
28461SOL     OW87221   3.876   4.820   9.080
28461SOL    HW187222   3.827   4.869   9.014
28461SOL    HW287223   3.886   4.882   9.153
28462SOL     OW87224   6.562   5.586   8.426
28462SOL    HW187225   6.552   5.655   8.361
28462SOL    HW287226   6.506   5.515   8.395
28463SOL     OW87227   4.710   0.661   6.683
28463SOL    HW187228   4.739   0.647   6.773
28463SOL    HW287229   4.648   0.590   6.667
28464SOL     OW87230   6.043   6.600   5.429
28464SOL    HW187231   5.971   6.646   5.385
28464SOL    HW287232   6.061   6.525   5.372
28465SOL     OW87233   6.928   5.772   5.120
28465SOL    HW187234   7.011   5.726   5.131
28465SOL    HW287235   6.872   5.711   5.073
28466SOL     OW87236   7.195   1.732   4.871
28466SOL    HW187237   7.120   1.724   4.931
28466SOL    HW287238   7.210   1.826   4.864
28467SOL     OW87239  13.474  14.153  13.397
28467SOL    HW187240  13.542  14.147  13.330
28467SOL    HW287241  13.426  14.071  13.390
28468SOL     OW87242   4.647   3.320  10.076
28468SOL    HW187243   4.627   3.379  10.148
28468SOL    HW287244   4.720   3.361  10.030
28469SOL     OW87245  13.281  14.721   6.827
28469SOL    HW187246  13.299  14.695   6.736
28469SOL    HW287247  13.244  14.643   6.867
28470SOL     OW87248   4.485   0.545  12.693
28470SOL    HW187249   4.549   0.531  12.763
28470SOL    HW287250   4.424   0.610  12.729
28471SOL     OW87251   1.469  11.924   1.533
28471SOL    HW187252   1.471  11.980   1.456
28471SOL    HW287253   1.457  11.836   1.497
28472SOL     OW87254   7.263   5.187   1.391
28472SOL    HW187255   7.183   5.153   1.432
28472SOL    HW287256   7.319   5.211   1.464
28473SOL     OW87257   0.273   9.300   8.357
28473SOL    HW187258   0.287   9.393   8.377
28473SOL    HW287259   0.355   9.258   8.382
28474SOL     OW87260   3.079   7.711  14.574
28474SOL    HW187261   3.108   7.620  14.575
28474SOL    HW287262   3.141   7.755  14.515
28475SOL     OW87263   4.429   4.085  14.017
28475SOL    HW187264   4.483   4.065  13.940
28475SOL    HW287265   4.472   4.038  14.089
28476SOL     OW87266   5.926   6.325   8.649
28476SOL    HW187267   5.971   6.274   8.582
28476SOL    HW287268   5.863   6.378   8.599
28477SOL     OW87269   2.848   7.628   7.858
28477SOL    HW187270   2.899   7.553   7.828
28477SOL    HW287271   2.793   7.651   7.784
28478SOL     OW87272   0.592  11.936  14.527
28478SOL    HW187273   0.523  11.985  14.573
28478SOL    HW287274   0.649  12.004  14.491
28479SOL     OW87275   9.084  12.044   1.271
28479SOL    HW187276   9.112  11.995   1.194
28479SOL    HW287277   8.989  12.047   1.265
28480SOL     OW87278   2.293  12.986   1.947
28480SOL    HW187279   2.271  12.893   1.950
28480SOL    HW287280   2.320  13.002   1.857
28481SOL     OW87281   7.401  10.203  12.587
28481SOL    HW187282   7.396  10.270  12.655
28481SOL    HW287283   7.395  10.251  12.505
28482SOL     OW87284  12.307  10.403   8.556
28482SOL    HW187285  12.310  10.363   8.643
28482SOL    HW287286  12.289  10.496   8.573
28483SOL     OW87287   6.383  11.088   2.973
28483SOL    HW187288   6.386  11.016   2.909
28483SOL    HW287289   6.475  11.102   2.997
28484SOL     OW87290  14.752   4.167   0.517
28484SOL    HW187291  14.735   4.187   0.609
28484SOL    HW287292  14.848   4.160   0.511
28485SOL     OW87293   7.732   2.109   6.300
28485SOL    HW187294   7.809   2.077   6.347
28485SOL    HW287295   7.731   2.203   6.317
28486SOL     OW87296  11.256  11.305  12.883
28486SOL    HW187297  11.277  11.374  12.820
28486SOL    HW287298  11.260  11.224  12.832
28487SOL     OW87299   1.935  11.245   0.487
28487SOL    HW187300   1.920  11.332   0.524
28487SOL    HW287301   2.026  11.224   0.510
28488SOL     OW87302   1.369   9.043  13.816
28488SOL    HW187303   1.398   9.014  13.729
28488SOL    HW287304   1.273   9.037  13.813
28489SOL     OW87305   1.885   3.211  13.214
28489SOL    HW187306   1.878   3.256  13.298
28489SOL    HW287307   1.897   3.119  13.236
28490SOL     OW87308   1.340   1.238   1.298
28490SOL    HW187309   1.401   1.202   1.234
28490SOL    HW287310   1.261   1.184   1.289
28491SOL     OW87311   1.585   6.178   3.371
28491SOL    HW187312   1.649   6.177   3.442
28491SOL    HW287313   1.502   6.158   3.413
28492SOL     OW87314   5.779  14.172   5.324
28492SOL    HW187315   5.871  14.174   5.351
28492SOL    HW287316   5.766  14.085   5.288
28493SOL     OW87317  13.044  12.901   2.331
28493SOL    HW187318  13.021  12.979   2.380
28493SOL    HW287319  13.087  12.844   2.395
28494SOL     OW87320  10.602   7.192   0.120
28494SOL    HW187321  10.621   7.144   0.200
28494SOL    HW287322  10.561   7.274   0.150
28495SOL     OW87323  11.189   8.784   3.269
28495SOL    HW187324  11.232   8.702   3.244
28495SOL    HW287325  11.228   8.807   3.353
28496SOL     OW87326   3.071   9.496   0.586
28496SOL    HW187327   3.144   9.454   0.539
28496SOL    HW287328   3.006   9.513   0.518
28497SOL     OW87329   1.838   2.856   9.198
28497SOL    HW187330   1.912   2.840   9.139
28497SOL    HW287331   1.814   2.769   9.231
28498SOL     OW87332  14.820  14.445   8.810
28498SOL    HW187333  14.826  14.540   8.816
28498SOL    HW287334  14.754  14.421   8.875
28499SOL     OW87335  11.730   1.876   7.493
28499SOL    HW187336  11.780   1.842   7.567
28499SOL    HW287337  11.644   1.898   7.530
28500SOL     OW87338   3.746  12.012   8.086
28500SOL    HW187339   3.730  12.016   7.992
28500SOL    HW287340   3.684  11.947   8.119
28501SOL     OW87341   9.013  11.610   5.238
28501SOL    HW187342   8.992  11.703   5.241
28501SOL    HW287343   8.929  11.566   5.252
28502SOL     OW87344   8.089   8.502   9.945
28502SOL    HW187345   8.159   8.438   9.958
28502SOL    HW287346   8.010   8.458   9.977
28503SOL     OW87347   4.086  10.923   3.020
28503SOL    HW187348   4.138  10.970   3.086
28503SOL    HW287349   4.135  10.935   2.938
28504SOL     OW87350   2.757   0.208  13.656
28504SOL    HW187351   2.771   0.233  13.564
28504SOL    HW287352   2.751   0.112  13.654
28505SOL     OW87353   3.080   6.143   5.319
28505SOL    HW187354   2.985   6.149   5.306
28505SOL    HW287355   3.116   6.210   5.261
28506SOL     OW87356   1.902   7.445   3.559
28506SOL    HW187357   1.888   7.505   3.486
28506SOL    HW287358   1.976   7.391   3.531
28507SOL     OW87359  12.699   2.761   1.302
28507SOL    HW187360  12.636   2.752   1.373
28507SOL    HW287361  12.683   2.848   1.266
28508SOL     OW87362  13.696   4.431  12.635
28508SOL    HW187363  13.774   4.391  12.595
28508SOL    HW287364  13.666   4.494  12.571
28509SOL     OW87365   1.992  13.694   1.057
28509SOL    HW187366   1.984  13.786   1.031
28509SOL    HW287367   1.905  13.658   1.044
28510SOL     OW87368   6.919   2.599   2.115
28510SOL    HW187369   6.847   2.652   2.081
28510SOL    HW287370   6.987   2.606   2.047
28511SOL     OW87371  12.706   9.707   4.805
28511SOL    HW187372  12.638   9.641   4.822
28511SOL    HW287373  12.674   9.753   4.727
28512SOL     OW87374   0.651   7.603  14.024
28512SOL    HW187375   0.654   7.543  13.950
28512SOL    HW287376   0.700   7.680  13.995
28513SOL     OW87377  11.756   1.220   3.406
28513SOL    HW187378  11.721   1.179   3.485
28513SOL    HW287379  11.745   1.314   3.421
28514SOL     OW87380   6.030  14.038   6.151
28514SOL    HW187381   6.057  13.978   6.221
28514SOL    HW287382   6.046  14.125   6.188
28515SOL     OW87383  12.733   5.773   0.517
28515SOL    HW187384  12.664   5.824   0.475
28515SOL    HW287385  12.707   5.768   0.609
28516SOL     OW87386  11.699   7.113  11.207
28516SOL    HW187387  11.626   7.168  11.237
28516SOL    HW287388  11.664   7.024  11.211
28517SOL     OW87389   4.895   9.713  12.620
28517SOL    HW187390   4.918   9.682  12.532
28517SOL    HW287391   4.850   9.638  12.660
28518SOL     OW87392   4.306   7.992   3.594
28518SOL    HW187393   4.292   8.026   3.682
28518SOL    HW287394   4.316   8.070   3.539
28519SOL     OW87395  11.071  13.363   4.536
28519SOL    HW187396  11.057  13.305   4.611
28519SOL    HW287397  11.152  13.331   4.495
28520SOL     OW87398   0.175   7.070  11.302
28520SOL    HW187399   0.171   6.983  11.263
28520SOL    HW287400   0.165   7.130  11.228
28521SOL     OW87401   2.926  14.834   3.927
28521SOL    HW187402   3.008   0.003   3.933
28521SOL    HW287403   2.870   0.009   3.872
28522SOL     OW87404   6.979  13.891   3.918
28522SOL    HW187405   7.062  13.912   3.874
28522SOL    HW287406   6.991  13.802   3.951
28523SOL     OW87407   8.600   5.953   8.362
28523SOL    HW187408   8.538   5.938   8.291
28523SOL    HW287409   8.567   5.899   8.434
28524SOL     OW87410   3.214   8.252   4.994
28524SOL    HW187411   3.296   8.254   5.044
28524SOL    HW287412   3.147   8.229   5.058
28525SOL     OW87413  12.179   1.390  10.493
28525SOL    HW187414  12.238   1.465  10.483
28525SOL    HW287415  12.154   1.391  10.586
28526SOL     OW87416  11.948  14.112   7.190
28526SOL    HW187417  11.924  14.028   7.229
28526SOL    HW287418  11.876  14.133   7.131
28527SOL     OW87419   3.970   3.165  10.890
28527SOL    HW187420   3.887   3.207  10.869
28527SOL    HW287421   4.037   3.225  10.857
28528SOL     OW87422   9.533   7.396   7.823
28528SOL    HW187423   9.521   7.442   7.906
28528SOL    HW287424   9.598   7.328   7.843
28529SOL     OW87425   0.349   2.093   6.146
28529SOL    HW187426   0.284   2.164   6.151
28529SOL    HW287427   0.404   2.106   6.223
28530SOL     OW87428   7.637  12.105  14.499
28530SOL    HW187429   7.731  12.100  14.513
28530SOL    HW287430   7.603  12.020  14.527
28531SOL     OW87431   1.597   3.004   7.987
28531SOL    HW187432   1.636   3.080   8.032
28531SOL    HW287433   1.672   2.957   7.950
28532SOL     OW87434  14.627   9.294  10.320
28532SOL    HW187435  14.593   9.314  10.408
28532SOL    HW287436  14.549   9.290  10.265
28533SOL     OW87437  14.036   8.745   7.692
28533SOL    HW187438  13.972   8.677   7.712
28533SOL    HW287439  14.002   8.824   7.733
28534SOL     OW87440   9.505   2.778   5.470
28534SOL    HW187441   9.419   2.802   5.502
28534SOL    HW287442   9.528   2.698   5.518
28535SOL     OW87443  12.621  14.260   9.986
28535SOL    HW187444  12.669  14.307   9.919
28535SOL    HW287445  12.565  14.326  10.027
28536SOL     OW87446   3.566  12.882  13.242
28536SOL    HW187447   3.550  12.961  13.295
28536SOL    HW287448   3.660  12.866  13.252
28537SOL     OW87449  13.115  13.724  12.706
28537SOL    HW187450  13.083  13.775  12.632
28537SOL    HW287451  13.104  13.781  12.781
28538SOL     OW87452   9.490   7.558   9.221
28538SOL    HW187453   9.414   7.587   9.171
28538SOL    HW287454   9.529   7.489   9.168
28539SOL     OW87455   3.913  13.171   2.157
28539SOL    HW187456   3.903  13.248   2.213
28539SOL    HW287457   3.957  13.203   2.079
28540SOL     OW87458   9.215  14.419   2.640
28540SOL    HW187459   9.128  14.387   2.664
28540SOL    HW287460   9.275  14.371   2.697
28541SOL     OW87461   2.746   0.864   9.054
28541SOL    HW187462   2.653   0.859   9.075
28541SOL    HW287463   2.781   0.930   9.114
28542SOL     OW87464  13.186  10.753   4.360
28542SOL    HW187465  13.245  10.811   4.408
28542SOL    HW287466  13.204  10.666   4.395
28543SOL     OW87467  12.747   3.120   8.595
28543SOL    HW187468  12.828   3.080   8.627
28543SOL    HW287469  12.765   3.214   8.597
28544SOL     OW87470   4.707   4.384  10.634
28544SOL    HW187471   4.784   4.338  10.666
28544SOL    HW287472   4.733   4.476  10.631
28545SOL     OW87473  10.207   4.275  13.172
28545SOL    HW187474  10.298   4.264  13.145
28545SOL    HW287475  10.189   4.368  13.158
28546SOL     OW87476   5.109   8.649  13.798
28546SOL    HW187477   5.112   8.560  13.833
28546SOL    HW287478   5.108   8.706  13.875
28547SOL     OW87479  11.095   9.767  13.857
28547SOL    HW187480  11.154   9.692  13.863
28547SOL    HW287481  11.007   9.729  13.869
28548SOL     OW87482  13.811   9.155  14.316
28548SOL    HW187483  13.879   9.154  14.383
28548SOL    HW287484  13.857   9.172  14.234
28549SOL     OW87485   9.647  12.975   3.394
28549SOL    HW187486   9.708  13.001   3.324
28549SOL    HW287487   9.701  12.972   3.473
28550SOL     OW87488   4.862   5.932   3.253
28550SOL    HW187489   4.808   5.853   3.265
28550SOL    HW287490   4.911   5.940   3.335
28551SOL     OW87491  14.460   4.610   5.564
28551SOL    HW187492  14.457   4.674   5.492
28551SOL    HW287493  14.444   4.663   5.642
28552SOL     OW87494   1.225   3.859   5.293
28552SOL    HW187495   1.276   3.940   5.300
28552SOL    HW287496   1.136   3.885   5.315
28553SOL     OW87497   4.812   5.998   8.541
28553SOL    HW187498   4.824   5.942   8.618
28553SOL    HW287499   4.862   6.077   8.560
28554SOL     OW87500   6.019   2.112  10.310
28554SOL    HW187501   6.024   2.090  10.403
28554SOL    HW287502   5.954   2.050  10.274
28555SOL     OW87503   7.497  13.040  14.820
28555SOL    HW187504   7.530  13.130  14.818
28555SOL    HW287505   7.575  12.985  14.826
28556SOL     OW87506   8.839   2.019  12.692
28556SOL    HW187507   8.895   2.051  12.763
28556SOL    HW287508   8.754   2.004  12.734
28557SOL     OW87509  11.029  10.300   7.267
28557SOL    HW187510  11.086  10.285   7.343
28557SOL    HW287511  11.083  10.349   7.206
28558SOL     OW87512   9.508   1.045  12.497
28558SOL    HW187513   9.448   1.065  12.569
28558SOL    HW287514   9.590   1.088  12.521
28559SOL     OW87515   1.692   6.484   8.158
28559SOL    HW187516   1.722   6.537   8.084
28559SOL    HW287517   1.608   6.522   8.182
28560SOL     OW87518  11.485  11.854   3.834
28560SOL    HW187519  11.465  11.893   3.919
28560SOL    HW287520  11.555  11.908   3.798
28561SOL     OW87521   6.961  12.234   5.863
28561SOL    HW187522   6.898  12.305   5.853
28561SOL    HW287523   6.908  12.154   5.860
28562SOL     OW87524   0.194   9.727  12.721
28562SOL    HW187525   0.144   9.745  12.800
28562SOL    HW287526   0.258   9.798  12.716
28563SOL     OW87527  14.853  12.281   0.036
28563SOL    HW187528  14.802  12.224  14.858
28563SOL    HW287529  14.817  12.265   0.123
28564SOL     OW87530  12.288   6.091   3.927
28564SOL    HW187531  12.344   6.016   3.906
28564SOL    HW287532  12.272   6.083   4.021
28565SOL     OW87533   8.557   3.058  12.024
28565SOL    HW187534   8.572   2.972  11.986
28565SOL    HW287535   8.462   3.067  12.026
28566SOL     OW87536   6.576   5.534   0.361
28566SOL    HW187537   6.591   5.628   0.360
28566SOL    HW287538   6.660   5.496   0.337
28567SOL     OW87539   7.176   8.718  13.267
28567SOL    HW187540   7.104   8.777  13.290
28567SOL    HW287541   7.142   8.631  13.286
28568SOL     OW87542   4.474   7.887   2.374
28568SOL    HW187543   4.470   7.840   2.458
28568SOL    HW287544   4.456   7.820   2.308
28569SOL     OW87545   4.708   2.592   2.153
28569SOL    HW187546   4.679   2.650   2.082
28569SOL    HW287547   4.788   2.633   2.186
28570SOL     OW87548   4.533   7.008   3.354
28570SOL    HW187549   4.573   7.075   3.409
28570SOL    HW287550   4.515   6.936   3.414
28571SOL     OW87551   2.352  13.131   4.301
28571SOL    HW187552   2.291  13.059   4.317
28571SOL    HW287553   2.305  13.189   4.241
28572SOL     OW87554   7.555   8.025   0.775
28572SOL    HW187555   7.486   8.020   0.841
28572SOL    HW287556   7.618   8.087   0.812
28573SOL     OW87557   7.040  12.486   4.433
28573SOL    HW187558   7.023  12.581   4.431
28573SOL    HW287559   6.994  12.455   4.511
28574SOL     OW87560  12.621   2.043   1.604
28574SOL    HW187561  12.593   1.976   1.666
28574SOL    HW287562  12.710   2.018   1.580
28575SOL     OW87563   3.398  12.237  12.349
28575SOL    HW187564   3.415  12.331  12.356
28575SOL    HW287565   3.397  12.206  12.439
28576SOL     OW87566  13.226   0.465   6.937
28576SOL    HW187567  13.303   0.448   6.882
28576SOL    HW287568  13.153   0.429   6.887
28577SOL     OW87569  11.207   8.097  13.917
28577SOL    HW187570  11.198   8.007  13.883
28577SOL    HW287571  11.262   8.141  13.852
28578SOL     OW87572   6.265   0.230   1.568
28578SOL    HW187573   6.286   0.322   1.583
28578SOL    HW287574   6.317   0.183   1.633
28579SOL     OW87575   6.982   7.217   6.537
28579SOL    HW187576   6.892   7.198   6.565
28579SOL    HW287577   6.980   7.207   6.442
28580SOL     OW87578   4.380   9.085   7.896
28580SOL    HW187579   4.410   9.060   7.983
28580SOL    HW287580   4.399   9.179   7.890
28581SOL     OW87581   3.629  11.902  10.773
28581SOL    HW187582   3.719  11.908  10.807
28581SOL    HW287583   3.636  11.935  10.683
28582SOL     OW87584  11.309   8.787  11.754
28582SOL    HW187585  11.350   8.702  11.738
28582SOL    HW287586  11.260   8.775  11.836
28583SOL     OW87587  14.552   9.913   7.281
28583SOL    HW187588  14.530   9.855   7.208
28583SOL    HW287589  14.645   9.899   7.296
28584SOL     OW87590   3.767   2.291  11.379
28584SOL    HW187591   3.695   2.351  11.361
28584SOL    HW287592   3.828   2.341  11.434
28585SOL     OW87593   5.581   4.266   4.394
28585SOL    HW187594   5.621   4.248   4.480
28585SOL    HW287595   5.647   4.237   4.331
28586SOL     OW87596   8.225   0.309  13.584
28586SOL    HW187597   8.200   0.233  13.531
28586SOL    HW287598   8.200   0.284  13.673
28587SOL     OW87599   7.803  13.404   7.078
28587SOL    HW187600   7.712  13.433   7.083
28587SOL    HW287601   7.842  13.460   7.011
28588SOL     OW87602   7.330   8.752  11.669
28588SOL    HW187603   7.280   8.672  11.686
28588SOL    HW287604   7.361   8.780  11.755
28589SOL     OW87605  13.728   1.919   5.691
28589SOL    HW187606  13.737   2.011   5.716
28589SOL    HW287607  13.661   1.919   5.622
28590SOL     OW87608   5.653  13.155   3.983
28590SOL    HW187609   5.670  13.139   3.890
28590SOL    HW287610   5.725  13.111   4.028
28591SOL     OW87611   5.762  13.628  10.237
28591SOL    HW187612   5.781  13.541  10.272
28591SOL    HW287613   5.731  13.678  10.313
28592SOL     OW87614   1.850   8.066   3.652
28592SOL    HW187615   1.937   8.078   3.689
28592SOL    HW287616   1.795   8.043   3.726
28593SOL     OW87617   4.659   0.156   6.331
28593SOL    HW187618   4.634   0.249   6.337
28593SOL    HW287619   4.748   0.153   6.365
28594SOL     OW87620   5.863   5.363   3.549
28594SOL    HW187621   5.844   5.304   3.622
28594SOL    HW287622   5.822   5.322   3.473
28595SOL     OW87623  11.407   9.902   8.434
28595SOL    HW187624  11.457   9.834   8.478
28595SOL    HW287625  11.414   9.881   8.341
28596SOL     OW87626  13.991   1.290   2.783
28596SOL    HW187627  14.003   1.196   2.798
28596SOL    HW287628  14.032   1.332   2.858
28597SOL     OW87629   6.443   6.897  13.243
28597SOL    HW187630   6.490   6.965  13.291
28597SOL    HW287631   6.417   6.834  13.311
28598SOL     OW87632   3.621   7.207   4.070
28598SOL    HW187633   3.584   7.266   4.136
28598SOL    HW287634   3.634   7.124   4.117
28599SOL     OW87635   8.099   8.784  14.412
28599SOL    HW187636   8.041   8.729  14.359
28599SOL    HW287637   8.170   8.808  14.352
28600SOL     OW87638   1.052   8.560   9.276
28600SOL    HW187639   1.025   8.541   9.366
28600SOL    HW287640   1.131   8.507   9.263
28601SOL     OW87641   5.965   5.215  13.793
28601SOL    HW187642   5.981   5.225  13.887
28601SOL    HW287643   5.953   5.304  13.761
28602SOL     OW87644   1.966  11.002   7.437
28602SOL    HW187645   1.878  11.022   7.407
28602SOL    HW287646   1.968  11.032   7.528
28603SOL     OW87647   6.092   1.400   5.409
28603SOL    HW187648   6.113   1.492   5.421
28603SOL    HW287649   6.176   1.358   5.391
28604SOL     OW87650  10.916   9.967   1.422
28604SOL    HW187651  10.948   9.877   1.431
28604SOL    HW287652  10.952  10.012   1.498
28605SOL     OW87653   4.799  14.355  10.274
28605SOL    HW187654   4.871  14.299  10.304
28605SOL    HW287655   4.839  14.440  10.261
28606SOL     OW87656   3.113   1.194   2.038
28606SOL    HW187657   3.173   1.268   2.036
28606SOL    HW287658   3.170   1.117   2.034
28607SOL     OW87659   9.605  13.823   7.407
28607SOL    HW187660   9.529  13.798   7.353
28607SOL    HW287661   9.571  13.823   7.496
28608SOL     OW87662   6.248   8.658   5.683
28608SOL    HW187663   6.300   8.647   5.604
28608SOL    HW287664   6.201   8.574   5.692
28609SOL     OW87665  12.259   7.031   3.691
28609SOL    HW187666  12.255   6.998   3.601
28609SOL    HW287667  12.236   7.123   3.685
28610SOL     OW87668   9.209   1.616  12.978
28610SOL    HW187669   9.283   1.672  12.953
28610SOL    HW287670   9.168   1.592  12.895
28611SOL     OW87671   3.476  12.665   3.717
28611SOL    HW187672   3.508  12.669   3.627
28611SOL    HW287673   3.537  12.720   3.767
28612SOL     OW87674  12.056  13.589  10.445
28612SOL    HW187675  11.977  13.599  10.499
28612SOL    HW287676  12.045  13.504  10.402
28613SOL     OW87677   4.791   9.851  10.218
28613SOL    HW187678   4.822   9.939  10.198
28613SOL    HW287679   4.696   9.860  10.229
28614SOL     OW87680   2.710   5.710   9.233
28614SOL    HW187681   2.682   5.660   9.156
28614SOL    HW287682   2.755   5.646   9.288
28615SOL     OW87683   4.601   6.651  12.519
28615SOL    HW187684   4.585   6.647  12.613
28615SOL    HW287685   4.624   6.743  12.503
28616SOL     OW87686  10.115   2.299   5.067
28616SOL    HW187687  10.192   2.317   5.014
28616SOL    HW287688  10.112   2.370   5.130
28617SOL     OW87689   4.534   1.672   7.161
28617SOL    HW187690   4.498   1.760   7.171
28617SOL    HW287691   4.629   1.683   7.171
28618SOL     OW87692  10.120  13.863   4.663
28618SOL    HW187693  10.110  13.919   4.740
28618SOL    HW287694  10.212  13.839   4.662
28619SOL     OW87695   3.416  12.166   1.938
28619SOL    HW187696   3.387  12.144   2.026
28619SOL    HW287697   3.374  12.101   1.881
28620SOL     OW87698   0.134  12.306  10.600
28620SOL    HW187699   0.057  12.268  10.558
28620SOL    HW287700   0.099  12.352  10.677
28621SOL     OW87701   9.662   6.815   1.043
28621SOL    HW187702   9.575   6.853   1.053
28621SOL    HW287703   9.718   6.888   1.018
28622SOL     OW87704  11.525  13.040   1.294
28622SOL    HW187705  11.450  12.986   1.321
28622SOL    HW287706  11.516  13.120   1.346
28623SOL     OW87707   0.100   7.322   9.595
28623SOL    HW187708   0.057   7.331   9.680
28623SOL    HW287709   0.190   7.351   9.611
28624SOL     OW87710   5.780   4.838   4.047
28624SOL    HW187711   5.813   4.928   4.050
28624SOL    HW287712   5.814   4.798   4.127
28625SOL     OW87713   8.234  14.209   5.875
28625SOL    HW187714   8.245  14.260   5.955
28625SOL    HW287715   8.188  14.268   5.815
28626SOL     OW87716   5.549  10.917   3.387
28626SOL    HW187717   5.477  10.875   3.340
28626SOL    HW287718   5.508  10.962   3.460
28627SOL     OW87719   4.818  14.495  10.839
28627SOL    HW187720   4.839  14.466  10.928
28627SOL    HW287721   4.902  14.492  10.793
28628SOL     OW87722   7.273  14.807   4.383
28628SOL    HW187723   7.292  14.863   4.308
28628SOL    HW287724   7.323  14.727   4.366
28629SOL     OW87725   1.392   5.848  12.485
28629SOL    HW187726   1.464   5.898  12.525
28629SOL    HW287727   1.321   5.911  12.475
28630SOL     OW87728   4.762   7.004   2.198
28630SOL    HW187729   4.724   7.032   2.282
28630SOL    HW287730   4.811   6.925   2.220
28631SOL     OW87731   3.993   2.837   8.098
28631SOL    HW187732   3.991   2.898   8.172
28631SOL    HW287733   3.975   2.891   8.022
28632SOL     OW87734   5.815  13.194   4.880
28632SOL    HW187735   5.876  13.160   4.946
28632SOL    HW287736   5.730  13.157   4.905
28633SOL     OW87737  12.932   9.909  12.185
28633SOL    HW187738  12.844   9.894  12.149
28633SOL    HW287739  12.975   9.824  12.178
28634SOL     OW87740  12.122   2.228  13.475
28634SOL    HW187741  12.170   2.309  13.489
28634SOL    HW287742  12.098   2.229  13.383
28635SOL     OW87743   5.285   6.438   4.648
28635SOL    HW187744   5.310   6.369   4.710
28635SOL    HW287745   5.335   6.417   4.569
28636SOL     OW87746   6.638   0.368  10.943
28636SOL    HW187747   6.622   0.320  11.025
28636SOL    HW287748   6.622   0.305  10.874
28637SOL     OW87749  12.678   8.677   0.742
28637SOL    HW187750  12.639   8.731   0.811
28637SOL    HW287751  12.693   8.592   0.783
28638SOL     OW87752   9.251  10.874   6.643
28638SOL    HW187753   9.345  10.887   6.657
28638SOL    HW287754   9.239  10.779   6.647
28639SOL     OW87755   3.211  10.671   9.780
28639SOL    HW187756   3.246  10.597   9.830
28639SOL    HW287757   3.117  10.669   9.797
28640SOL     OW87758  10.517   3.179  12.509
28640SOL    HW187759  10.493   3.116  12.441
28640SOL    HW287760  10.590   3.228  12.472
28641SOL     OW87761  12.655   9.507   1.153
28641SOL    HW187762  12.571   9.518   1.196
28641SOL    HW287763  12.648   9.560   1.073
28642SOL     OW87764  12.652  12.581   9.087
28642SOL    HW187765  12.672  12.572   9.181
28642SOL    HW287766  12.725  12.634   9.053
28643SOL     OW87767  13.357   1.853  14.595
28643SOL    HW187768  13.349   1.776  14.652
28643SOL    HW287769  13.310   1.922  14.641
28644SOL     OW87770  13.680   6.626   5.827
28644SOL    HW187771  13.609   6.605   5.766
28644SOL    HW287772  13.672   6.720   5.841
28645SOL     OW87773  11.608  14.211   0.064
28645SOL    HW187774  11.663  14.143   0.102
28645SOL    HW287775  11.534  14.164   0.027
28646SOL     OW87776   7.556   0.555   0.715
28646SOL    HW187777   7.524   0.465   0.720
28646SOL    HW287778   7.649   0.546   0.693
28647SOL     OW87779   2.057   9.889   6.662
28647SOL    HW187780   2.127   9.850   6.610
28647SOL    HW287781   2.047   9.829   6.737
28648SOL     OW87782   3.552  12.435   9.139
28648SOL    HW187783   3.602  12.423   9.219
28648SOL    HW287784   3.602  12.390   9.071
28649SOL     OW87785   1.007  11.326   4.249
28649SOL    HW187786   1.037  11.361   4.333
28649SOL    HW287787   0.915  11.303   4.264
28650SOL     OW87788  13.621   2.754   6.127
28650SOL    HW187789  13.551   2.718   6.073
28650SOL    HW287790  13.604   2.848   6.128
28651SOL     OW87791   9.597   5.567   3.102
28651SOL    HW187792   9.512   5.549   3.063
28651SOL    HW287793   9.577   5.600   3.190
28652SOL     OW87794  10.687  14.813   1.659
28652SOL    HW187795  10.753   0.001   1.669
28652SOL    HW287796  10.735  14.736   1.629
28653SOL     OW87797   7.783  11.181  12.306
28653SOL    HW187798   7.850  11.235  12.263
28653SOL    HW287799   7.710  11.178  12.244
28654SOL     OW87800  11.129   4.671  11.201
28654SOL    HW187801  11.116   4.722  11.281
28654SOL    HW287802  11.213   4.628  11.214
28655SOL     OW87803   2.887  13.225  13.435
28655SOL    HW187804   2.967  13.181  13.461
28655SOL    HW287805   2.916  13.303  13.387
28656SOL     OW87806  14.110   1.192   9.214
28656SOL    HW187807  14.015   1.183   9.210
28656SOL    HW287808  14.133   1.168   9.304
28657SOL     OW87809   5.080   8.268   2.416
28657SOL    HW187810   5.172   8.289   2.430
28657SOL    HW287811   5.051   8.329   2.348
28658SOL     OW87812   6.549   7.154  12.241
28658SOL    HW187813   6.458   7.178  12.258
28658SOL    HW287814   6.546   7.063  12.214
28659SOL     OW87815   9.641   4.759   1.954
28659SOL    HW187816   9.691   4.815   2.014
28659SOL    HW287817   9.695   4.680   1.945
28660SOL     OW87818   0.504   0.619  12.337
28660SOL    HW187819   0.515   0.600  12.244
28660SOL    HW287820   0.422   0.574  12.361
28661SOL     OW87821  13.243  11.712   0.828
28661SOL    HW187822  13.155  11.677   0.816
28661SOL    HW287823  13.301  11.648   0.787
28662SOL     OW87824   3.334   1.728  10.854
28662SOL    HW187825   3.284   1.796  10.807
28662SOL    HW287826   3.268   1.671  10.892
28663SOL     OW87827   1.313   3.521   6.296
28663SOL    HW187828   1.219   3.539   6.306
28663SOL    HW287829   1.316   3.448   6.234
28664SOL     OW87830   1.082   2.478  11.005
28664SOL    HW187831   1.072   2.384  11.019
28664SOL    HW287832   1.131   2.485  10.923
28665SOL     OW87833  12.442  10.857   1.674
28665SOL    HW187834  12.434  10.885   1.765
28665SOL    HW287835  12.536  10.846   1.660
28666SOL     OW87836  14.711   4.959  13.512
28666SOL    HW187837  14.651   5.034  13.505
28666SOL    HW287838  14.738   4.959  13.604
28667SOL     OW87839  12.076  10.849   6.129
28667SOL    HW187840  12.012  10.785   6.097
28667SOL    HW287841  12.160  10.816   6.097
28668SOL     OW87842   3.596   5.300  11.134
28668SOL    HW187843   3.553   5.344  11.061
28668SOL    HW287844   3.606   5.368  11.201
28669SOL     OW87845   1.908  12.213  12.303
28669SOL    HW187846   1.948  12.204  12.217
28669SOL    HW287847   1.938  12.137  12.352
28670SOL     OW87848   7.116  11.661  14.838
28670SOL    HW187849   7.081  11.744  14.871
28670SOL    HW287850   7.073  11.594   0.011
28671SOL     OW87851  13.156   4.880   1.574
28671SOL    HW187852  13.183   4.965   1.540
28671SOL    HW287853  13.116   4.900   1.659
28672SOL     OW87854  13.149  11.577  14.553
28672SOL    HW187855  13.189  11.646  14.500
28672SOL    HW287856  13.071  11.617  14.590
28673SOL     OW87857   1.871   1.801  12.064
28673SOL    HW187858   1.831   1.873  12.015
28673SOL    HW287859   1.941   1.768  12.007
28674SOL     OW87860   8.201   9.841  12.572
28674SOL    HW187861   8.220   9.826  12.480
28674SOL    HW287862   8.282   9.876  12.608
28675SOL     OW87863   7.212  14.174   2.964
28675SOL    HW187864   7.195  14.221   2.882
28675SOL    HW287865   7.159  14.095   2.959
28676SOL     OW87866   5.308  12.604  13.996
28676SOL    HW187867   5.255  12.561  13.929
28676SOL    HW287868   5.257  12.681  14.022
28677SOL     OW87869  14.435   1.460  11.877
28677SOL    HW187870  14.498   1.532  11.883
28677SOL    HW287871  14.445   1.413  11.959
28678SOL     OW87872   9.447   7.337   9.391
28678SOL    HW187873   9.404   7.399   9.332
28678SOL    HW287874   9.389   7.333   9.468
28679SOL     OW87875  12.912  13.606   1.630
28679SOL    HW187876  12.939  13.515   1.617
28679SOL    HW287877  12.817  13.603   1.635
28680SOL     OW87878   7.149   6.625   2.530
28680SOL    HW187879   7.134   6.533   2.507
28680SOL    HW287880   7.219   6.654   2.471
28681SOL     OW87881  12.057  12.344   2.640
28681SOL    HW187882  12.075  12.377   2.728
28681SOL    HW287883  12.130  12.375   2.587
28682SOL     OW87884   7.687   8.382   0.985
28682SOL    HW187885   7.752   8.370   0.916
28682SOL    HW287886   7.653   8.294   1.001
28683SOL     OW87887  13.125  13.631   7.173
28683SOL    HW187888  13.129  13.538   7.196
28683SOL    HW287889  13.032  13.650   7.168
28684SOL     OW87890   5.405   5.322  13.648
28684SOL    HW187891   5.333   5.385  13.643
28684SOL    HW287892   5.437   5.315  13.559
28685SOL     OW87893   4.128   3.737  13.206
28685SOL    HW187894   4.078   3.666  13.165
28685SOL    HW287895   4.209   3.696  13.236
28686SOL     OW87896   4.082   1.531   5.021
28686SOL    HW187897   4.079   1.521   5.116
28686SOL    HW287898   3.998   1.495   4.991
28687SOL     OW87899   2.332  11.881   3.943
28687SOL    HW187900   2.349  11.911   4.032
28687SOL    HW287901   2.240  11.905   3.926
28688SOL     OW87902   0.232   1.726   2.044
28688SOL    HW187903   0.229   1.817   2.074
28688SOL    HW287904   0.175   1.724   1.967
28689SOL     OW87905  13.538   1.020   5.844
28689SOL    HW187906  13.443   1.035   5.849
28689SOL    HW287907  13.577   1.102   5.874
28690SOL     OW87908  12.944  10.186   8.480
28690SOL    HW187909  12.875  10.244   8.512
28690SOL    HW287910  13.009  10.185   8.550
28691SOL     OW87911   6.746   1.819   0.739
28691SOL    HW187912   6.720   1.797   0.828
28691SOL    HW287913   6.804   1.895   0.748
28692SOL     OW87914   2.660   3.385   6.539
28692SOL    HW187915   2.752   3.364   6.524
28692SOL    HW287916   2.661   3.460   6.598
28693SOL     OW87917  10.918  12.530   8.873
28693SOL    HW187918  10.933  12.471   8.799
28693SOL    HW287919  10.931  12.617   8.836
28694SOL     OW87920  12.938   1.477   0.039
28694SOL    HW187921  12.901   1.390   0.053
28694SOL    HW287922  13.000   1.488   0.111
28695SOL     OW87923   7.669   7.487   6.066
28695SOL    HW187924   7.599   7.433   6.029
28695SOL    HW287925   7.750   7.443   6.040
28696SOL     OW87926   7.053   3.092   4.353
28696SOL    HW187927   7.012   3.165   4.305
28696SOL    HW287928   7.139   3.125   4.379
28697SOL     OW87929   4.104  11.981   7.530
28697SOL    HW187930   4.134  12.072   7.533
28697SOL    HW287931   4.118  11.949   7.619
28698SOL     OW87932  10.840   7.755   1.365
28698SOL    HW187933  10.759   7.708   1.346
28698SOL    HW287934  10.837   7.832   1.307
28699SOL     OW87935   4.945  10.322   1.950
28699SOL    HW187936   5.011  10.386   1.976
28699SOL    HW287937   4.975  10.240   1.988
28700SOL     OW87938   3.603   4.584   6.356
28700SOL    HW187939   3.663   4.656   6.337
28700SOL    HW287940   3.556   4.570   6.274
28701SOL     OW87941   1.867   7.446   9.081
28701SOL    HW187942   1.929   7.413   9.146
28701SOL    HW287943   1.871   7.383   9.010
28702SOL     OW87944   6.016  10.244  13.106
28702SOL    HW187945   6.054  10.235  13.018
28702SOL    HW287946   6.091  10.245  13.165
28703SOL     OW87947  13.744   5.278   5.265
28703SOL    HW187948  13.678   5.211   5.248
28703SOL    HW287949  13.736   5.340   5.193
28704SOL     OW87950  12.967   0.231  11.748
28704SOL    HW187951  12.996   0.156  11.697
28704SOL    HW287952  12.953   0.196  11.836
28705SOL     OW87953  14.119  12.861   2.837
28705SOL    HW187954  14.027  12.888   2.835
28705SOL    HW287955  14.165  12.927   2.787
28706SOL     OW87956   9.452  12.273   9.549
28706SOL    HW187957   9.369  12.227   9.561
28706SOL    HW287958   9.464  12.277   9.454
28707SOL     OW87959  12.596   2.505   9.326
28707SOL    HW187960  12.527   2.443   9.347
28707SOL    HW287961  12.649   2.510   9.405
28708SOL     OW87962  10.988   1.228   2.972
28708SOL    HW187963  11.022   1.289   3.038
28708SOL    HW287964  11.055   1.160   2.965
28709SOL     OW87965   5.573  14.667   6.288
28709SOL    HW187966   5.665  14.687   6.268
28709SOL    HW287967   5.524  14.736   6.244
28710SOL     OW87968   8.347   3.412   5.970
28710SOL    HW187969   8.306   3.415   6.057
28710SOL    HW287970   8.411   3.483   5.971
28711SOL     OW87971  12.747  13.636   7.846
28711SOL    HW187972  12.702  13.608   7.766
28711SOL    HW287973  12.839  13.643   7.820
28712SOL     OW87974  11.371   2.342  14.508
28712SOL    HW187975  11.388   2.392  14.587
28712SOL    HW287976  11.289   2.297  14.525
28713SOL     OW87977   4.163  14.351   7.091
28713SOL    HW187978   4.173  14.382   7.180
28713SOL    HW287979   4.124  14.264   7.100
28714SOL     OW87980   7.785  14.677  13.264
28714SOL    HW187981   7.770  14.582  13.258
28714SOL    HW287982   7.831  14.699  13.183
28715SOL     OW87983   9.442   0.064   6.998
28715SOL    HW187984   9.498   0.079   6.922
28715SOL    HW287985   9.450  14.850   7.016
28716SOL     OW87986   5.845   1.672   6.770
28716SOL    HW187987   5.877   1.753   6.810
28716SOL    HW287988   5.914   1.607   6.788
28717SOL     OW87989   9.067   5.242   7.234
28717SOL    HW187990   9.070   5.329   7.273
28717SOL    HW287991   9.014   5.252   7.155
28718SOL     OW87992  12.557   8.994   2.061
28718SOL    HW187993  12.501   9.005   2.138
28718SOL    HW287994  12.518   9.050   1.994
28719SOL     OW87995  11.886   7.063   5.724
28719SOL    HW187996  11.852   6.977   5.700
28719SOL    HW287997  11.947   7.045   5.795
28720SOL     OW87998   4.375  10.177   2.423
28720SOL    HW187999   4.464  10.143   2.427
28720SOL    HW288000   4.345  10.155   2.334
28721SOL     OW88001   0.721   7.808  11.950
28721SOL    HW188002   0.739   7.893  11.911
28721SOL    HW288003   0.656   7.768  11.893
28722SOL     OW88004   0.440   3.390   7.618
28722SOL    HW188005   0.378   3.318   7.609
28722SOL    HW288006   0.394   3.466   7.584
28723SOL     OW88007  10.719   1.674   4.679
28723SOL    HW188008  10.682   1.746   4.627
28723SOL    HW288009  10.680   1.685   4.765
28724SOL     OW88010  10.837   5.525  10.021
28724SOL    HW188011  10.889   5.455  10.060
28724SOL    HW288012  10.829   5.590  10.091
28725SOL     OW88013   9.066   4.731   2.375
28725SOL    HW188014   9.073   4.678   2.296
28725SOL    HW288015   9.154   4.768   2.387
28726SOL     OW88016   0.621   9.864   8.204
28726SOL    HW188017   0.640   9.845   8.296
28726SOL    HW288018   0.707   9.872   8.162
28727SOL     OW88019   0.323   5.912   8.918
28727SOL    HW188020   0.408   5.912   8.962
28727SOL    HW288021   0.289   6.001   8.931
28728SOL     OW88022   7.818   1.134   9.881
28728SOL    HW188023   7.734   1.094   9.861
28728SOL    HW288024   7.811   1.223   9.847
28729SOL     OW88025  13.109  13.551  13.875
28729SOL    HW188026  13.056  13.595  13.942
28729SOL    HW288027  13.170  13.497  13.925
28730SOL     OW88028   4.051   1.035   3.644
28730SOL    HW188029   3.995   1.113   3.637
28730SOL    HW288030   4.002   0.966   3.599
28731SOL     OW88031   5.838   8.370   1.963
28731SOL    HW188032   5.753   8.361   1.919
28731SOL    HW288033   5.903   8.357   1.894
28732SOL     OW88034   4.166   8.211   1.292
28732SOL    HW188035   4.125   8.125   1.297
28732SOL    HW288036   4.259   8.194   1.307
28733SOL     OW88037  11.348   0.179   1.127
28733SOL    HW188038  11.431   0.206   1.090
28733SOL    HW288039  11.366   0.093   1.167
28734SOL     OW88040   4.619   3.306   3.174
28734SOL    HW188041   4.546   3.256   3.138
28734SOL    HW288042   4.670   3.242   3.224
28735SOL     OW88043   4.445   4.967   9.597
28735SOL    HW188044   4.515   5.014   9.643
28735SOL    HW288045   4.465   4.874   9.613
28736SOL     OW88046   5.490   0.191   7.446
28736SOL    HW188047   5.495   0.217   7.354
28736SOL    HW288048   5.520   0.268   7.495
28737SOL     OW88049   6.572   5.429  14.360
28737SOL    HW188050   6.509   5.481  14.410
28737SOL    HW288051   6.644   5.414  14.421
28738SOL     OW88052   0.330  13.071   1.273
28738SOL    HW188053   0.313  12.977   1.279
28738SOL    HW288054   0.329  13.101   1.364
28739SOL     OW88055   5.624   4.755   7.562
28739SOL    HW188056   5.643   4.720   7.650
28739SOL    HW288057   5.529   4.749   7.554
28740SOL     OW88058   9.228   5.119   7.040
28740SOL    HW188059   9.227   5.034   7.085
28740SOL    HW288060   9.162   5.171   7.086
28741SOL     OW88061   8.804   4.425   4.613
28741SOL    HW188062   8.864   4.411   4.539
28741SOL    HW288063   8.837   4.368   4.682
28742SOL     OW88064  12.270   4.334   3.677
28742SOL    HW188065  12.283   4.248   3.716
28742SOL    HW288066  12.272   4.395   3.751
28743SOL     OW88067   0.178  10.508   6.001
28743SOL    HW188068   0.200  10.554   5.921
28743SOL    HW288069   0.193  10.572   6.071
28744SOL     OW88070   9.391  12.211   6.151
28744SOL    HW188071   9.312  12.199   6.203
28744SOL    HW288072   9.420  12.300   6.170
28745SOL     OW88073  13.620   4.813  14.333
28745SOL    HW188074  13.591   4.762  14.257
28745SOL    HW288075  13.546   4.809  14.394
28746SOL     OW88076   5.811   4.428   2.248
28746SOL    HW188077   5.827   4.374   2.326
28746SOL    HW288078   5.752   4.374   2.195
28747SOL     OW88079  13.163   5.685   1.981
28747SOL    HW188080  13.154   5.753   1.913
28747SOL    HW288081  13.089   5.701   2.040
28748SOL     OW88082  14.071   1.432  13.536
28748SOL    HW188083  14.063   1.503  13.599
28748SOL    HW288084  14.161   1.438  13.504
28749SOL     OW88085   5.311   4.008  13.410
28749SOL    HW188086   5.221   3.977  13.401
28749SOL    HW288087   5.365   3.939  13.370
28750SOL     OW88088   8.952  10.854   3.236
28750SOL    HW188089   8.991  10.794   3.299
28750SOL    HW288090   8.887  10.801   3.190
28751SOL     OW88091   6.673   3.828   8.439
28751SOL    HW188092   6.738   3.785   8.494
28751SOL    HW288093   6.672   3.918   8.469
28752SOL     OW88094  14.495   2.687   9.004
28752SOL    HW188095  14.486   2.680   8.909
28752SOL    HW288096  14.508   2.780   9.020
28753SOL     OW88097   8.550   5.163  14.775
28753SOL    HW188098   8.507   5.139  14.694
28753SOL    HW288099   8.559   5.081  14.823
28754SOL     OW88100   4.453   1.509  10.684
28754SOL    HW188101   4.427   1.550  10.767
28754SOL    HW288102   4.432   1.573  10.617
28755SOL     OW88103  12.621  10.792   1.049
28755SOL    HW188104  12.677  10.855   1.004
28755SOL    HW288105  12.631  10.711   0.998
28756SOL     OW88106  11.571   5.781   7.752
28756SOL    HW188107  11.612   5.822   7.828
28756SOL    HW288108  11.627   5.804   7.678
28757SOL     OW88109   9.466  14.586   4.828
28757SOL    HW188110   9.373  14.586   4.804
28757SOL    HW288111   9.468  14.635   4.910
28758SOL     OW88112   0.340  13.645   4.723
28758SOL    HW188113   0.357  13.573   4.662
28758SOL    HW288114   0.310  13.717   4.666
28759SOL     OW88115  10.490   4.919   3.629
28759SOL    HW188116  10.405   4.881   3.609
28759SOL    HW288117  10.494   4.922   3.724
28760SOL     OW88118   7.913   8.972  14.567
28760SOL    HW188119   7.984   8.925  14.523
28760SOL    HW288120   7.833   8.927  14.539
28761SOL     OW88121   9.988  14.139   6.603
28761SOL    HW188122   9.970  14.205   6.670
28761SOL    HW288123   9.906  14.127   6.557
28762SOL     OW88124   1.804   3.191   4.944
28762SOL    HW188125   1.777   3.146   4.864
28762SOL    HW288126   1.889   3.153   4.967
28763SOL     OW88127   3.527   9.007   4.491
28763SOL    HW188128   3.501   8.960   4.412
28763SOL    HW288129   3.477   8.966   4.561
28764SOL     OW88130   9.252   1.720  11.388
28764SOL    HW188131   9.314   1.781  11.347
28764SOL    HW288132   9.186   1.777  11.427
28765SOL     OW88133   8.006   6.753  10.011
28765SOL    HW188134   7.911   6.746   9.997
28765SOL    HW288135   8.017   6.748  10.106
28766SOL     OW88136   8.197   7.074  10.898
28766SOL    HW188137   8.177   7.058  10.990
28766SOL    HW288138   8.165   7.163  10.882
28767SOL     OW88139  14.042   9.076   2.970
28767SOL    HW188140  14.126   9.112   2.941
28767SOL    HW288141  14.064   8.993   3.012
28768SOL     OW88142   1.618  11.638  11.950
28768SOL    HW188143   1.645  11.690  11.875
28768SOL    HW288144   1.699  11.623  11.999
28769SOL     OW88145  11.660   7.233  10.080
28769SOL    HW188146  11.624   7.251  10.166
28769SOL    HW288147  11.755   7.227  10.094
28770SOL     OW88148   0.387   3.711   1.631
28770SOL    HW188149   0.417   3.709   1.722
28770SOL    HW288150   0.302   3.665   1.634
28771SOL     OW88151   6.340  10.654   4.795
28771SOL    HW188152   6.357  10.685   4.705
28771SOL    HW288153   6.336  10.559   4.787
28772SOL     OW88154   1.530   1.806   7.534
28772SOL    HW188155   1.607   1.835   7.583
28772SOL    HW288156   1.457   1.825   7.592
28773SOL     OW88157  10.083  14.455   1.008
28773SOL    HW188158  10.105  14.533   1.060
28773SOL    HW288159  10.071  14.489   0.919
28774SOL     OW88160  12.854   4.244   2.700
28774SOL    HW188161  12.936   4.195   2.691
28774SOL    HW288162  12.786   4.182   2.676
28775SOL     OW88163   8.392   0.403   4.919
28775SOL    HW188164   8.404   0.497   4.928
28775SOL    HW288165   8.394   0.387   4.824
28776SOL     OW88166  13.067   0.222   1.625
28776SOL    HW188167  13.136   0.278   1.589
28776SOL    HW288168  12.995   0.281   1.643
28777SOL     OW88169   0.881   9.738   0.690
28777SOL    HW188170   0.810   9.799   0.671
28777SOL    HW288171   0.923   9.773   0.768
28778SOL     OW88172   3.930   1.775  13.403
28778SOL    HW188173   3.899   1.855  13.443
28778SOL    HW288174   3.862   1.751  13.340
28779SOL     OW88175   5.349  10.192   9.936
28779SOL    HW188176   5.397  10.252   9.993
28779SOL    HW288177   5.325  10.245   9.860
28780SOL     OW88178  11.151   2.858   2.816
28780SOL    HW188179  11.184   2.893   2.733
28780SOL    HW288180  11.105   2.778   2.791
28781SOL     OW88181   8.356  12.426   1.848
28781SOL    HW188182   8.393  12.338   1.835
28781SOL    HW288183   8.383  12.474   1.770
28782SOL     OW88184   6.778  12.757   4.128
28782SOL    HW188185   6.837  12.681   4.126
28782SOL    HW288186   6.779  12.786   4.219
28783SOL     OW88187  12.046   1.938  10.810
28783SOL    HW188188  12.029   1.844  10.813
28783SOL    HW288189  11.965   1.978  10.839
28784SOL     OW88190   8.093   2.035  14.007
28784SOL    HW188191   8.085   2.033  13.911
28784SOL    HW288192   8.081   1.944  14.033
28785SOL     OW88193   3.638   9.911  10.734
28785SOL    HW188194   3.553   9.943  10.703
28785SOL    HW288195   3.701   9.951  10.674
28786SOL     OW88196   9.907   4.359   9.855
28786SOL    HW188197   9.995   4.322   9.859
28786SOL    HW288198   9.853   4.288   9.819
28787SOL     OW88199  14.520  12.814   2.010
28787SOL    HW188200  14.499  12.783   1.921
28787SOL    HW288201  14.436  12.819   2.054
28788SOL     OW88202   4.407   0.288   1.629
28788SOL    HW188203   4.319   0.321   1.648
28788SOL    HW288204   4.413   0.292   1.533
28789SOL     OW88205   7.567   8.947   5.059
28789SOL    HW188206   7.538   9.026   5.013
28789SOL    HW288207   7.660   8.963   5.076
28790SOL     OW88208   9.536   7.595   4.017
28790SOL    HW188209   9.498   7.508   4.031
28790SOL    HW288210   9.488   7.630   3.942
28791SOL     OW88211   2.467   5.255   4.322
28791SOL    HW188212   2.439   5.321   4.386
28791SOL    HW288213   2.540   5.210   4.363
28792SOL     OW88214   5.460  14.800   7.295
28792SOL    HW188215   5.499  14.840   7.217
28792SOL    HW288216   5.468  14.867   7.363
28793SOL     OW88217   0.536   6.145   3.048
28793SOL    HW188218   0.456   6.096   3.067
28793SOL    HW288219   0.569   6.107   2.966
28794SOL     OW88220   9.716  11.559   1.669
28794SOL    HW188221   9.653  11.503   1.624
28794SOL    HW288222   9.774  11.590   1.600
28795SOL     OW88223   9.010  10.927  10.485
28795SOL    HW188224   8.924  10.933  10.444
28795SOL    HW288225   9.002  10.855  10.548
28796SOL     OW88226   7.862   2.686   8.863
28796SOL    HW188227   7.951   2.653   8.850
28796SOL    HW288228   7.859   2.712   8.955
28797SOL     OW88229   9.170   0.631   3.967
28797SOL    HW188230   9.144   0.671   4.050
28797SOL    HW288231   9.088   0.608   3.924
28798SOL     OW88232  10.798   0.943  10.948
28798SOL    HW188233  10.778   1.003  11.020
28798SOL    HW288234  10.890   0.957  10.929
28799SOL     OW88235  11.353   7.467   9.696
28799SOL    HW188236  11.430   7.466   9.639
28799SOL    HW288237  11.279   7.451   9.637
28800SOL     OW88238   7.505   0.126   8.299
28800SOL    HW188239   7.589   0.166   8.318
28800SOL    HW288240   7.489   0.067   8.373
28801SOL     OW88241   2.149   5.804   1.417
28801SOL    HW188242   2.182   5.812   1.327
28801SOL    HW288243   2.191   5.875   1.465
28802SOL     OW88244  14.844  13.576  10.245
28802SOL    HW188245  14.800  13.521  10.310
28802SOL    HW288246  14.781  13.586  10.174
28803SOL     OW88247  13.765   2.688   2.022
28803SOL    HW188248  13.810   2.622   2.076
28803SOL    HW288249  13.760   2.765   2.077
28804SOL     OW88250   6.700   2.578   2.822
28804SOL    HW188251   6.652   2.505   2.862
28804SOL    HW288252   6.643   2.608   2.751
28805SOL     OW88253   0.587  11.198  14.641
28805SOL    HW188254   0.671  11.203  14.595
28805SOL    HW288255   0.524  11.174  14.573
28806SOL     OW88256  12.307   9.166  12.666
28806SOL    HW188257  12.390   9.189  12.708
28806SOL    HW288258  12.328   9.160  12.573
28807SOL     OW88259   0.654   4.417   1.899
28807SOL    HW188260   0.584   4.457   1.847
28807SOL    HW288261   0.665   4.475   1.974
28808SOL     OW88262  13.889  10.941  14.567
28808SOL    HW188263  13.935  10.858  14.549
28808SOL    HW288264  13.798  10.924  14.541
28809SOL     OW88265   3.916   1.534   2.907
28809SOL    HW188266   3.835   1.575   2.938
28809SOL    HW288267   3.959   1.502   2.987
28810SOL     OW88268  12.815   8.264   8.324
28810SOL    HW188269  12.724   8.270   8.353
28810SOL    HW288270  12.834   8.352   8.290
28811SOL     OW88271  14.154  14.193   4.378
28811SOL    HW188272  14.079  14.140   4.349
28811SOL    HW288273  14.131  14.283   4.354
28812SOL     OW88274   6.504  14.501   4.119
28812SOL    HW188275   6.423  14.469   4.158
28812SOL    HW288276   6.549  14.421   4.091
28813SOL     OW88277   6.223   7.366   3.208
28813SOL    HW188278   6.262   7.382   3.294
28813SOL    HW288279   6.266   7.430   3.150
28814SOL     OW88280  12.370   1.351   5.334
28814SOL    HW188281  12.439   1.285   5.324
28814SOL    HW288282  12.349   1.378   5.245
28815SOL     OW88283   0.540   6.262  11.177
28815SOL    HW188284   0.503   6.322  11.113
28815SOL    HW288285   0.619   6.306  11.209
28816SOL     OW88286  10.347   8.040  12.885
28816SOL    HW188287  10.299   8.054  12.966
28816SOL    HW288288  10.295   8.085  12.818
28817SOL     OW88289  11.059  13.002   0.734
28817SOL    HW188290  11.135  12.945   0.747
28817SOL    HW288291  10.988  12.959   0.780
28818SOL     OW88292   0.184  11.153   5.877
28818SOL    HW188293   0.103  11.203   5.883
28818SOL    HW288294   0.247  11.203   5.929
28819SOL     OW88295  13.008  13.770   2.447
28819SOL    HW188296  12.977  13.686   2.481
28819SOL    HW288297  13.033  13.752   2.356
28820SOL     OW88298   0.442   6.784   6.187
28820SOL    HW188299   0.467   6.836   6.111
28820SOL    HW288300   0.361   6.823   6.218
28821SOL     OW88301   4.835   5.528   3.151
28821SOL    HW188302   4.835   5.530   3.246
28821SOL    HW288303   4.817   5.436   3.128
28822SOL     OW88304  11.701   0.742  11.127
28822SOL    HW188305  11.647   0.678  11.175
28822SOL    HW288306  11.785   0.697  11.114
28823SOL     OW88307   8.390   2.044   4.241
28823SOL    HW188308   8.447   1.967   4.237
28823SOL    HW288309   8.308   2.016   4.200
28824SOL     OW88310   1.412  12.008   4.691
28824SOL    HW188311   1.380  11.944   4.755
28824SOL    HW288312   1.459  12.073   4.743
28825SOL     OW88313   2.587  13.253   3.768
28825SOL    HW188314   2.541  13.172   3.747
28825SOL    HW288315   2.680  13.228   3.767
28826SOL     OW88316   4.040   2.921   7.477
28826SOL    HW188317   4.069   2.839   7.438
28826SOL    HW288318   3.983   2.894   7.548
28827SOL     OW88319   0.765   8.252   2.011
28827SOL    HW188320   0.808   8.338   2.003
28827SOL    HW288321   0.673   8.270   1.993
28828SOL     OW88322  12.370   0.435   5.353
28828SOL    HW188323  12.389   0.363   5.412
28828SOL    HW288324  12.279   0.458   5.371
28829SOL     OW88325  14.059   4.541   8.367
28829SOL    HW188326  14.080   4.451   8.394
28829SOL    HW288327  14.143   4.578   8.340
28830SOL     OW88328   3.642  11.096   4.993
28830SOL    HW188329   3.733  11.098   5.024
28830SOL    HW288330   3.592  11.066   5.069
28831SOL     OW88331  12.666  11.886   3.426
28831SOL    HW188332  12.709  11.882   3.512
28831SOL    HW288333  12.632  11.798   3.412
28832SOL     OW88334   6.798   6.059   3.687
28832SOL    HW188335   6.845   6.023   3.762
28832SOL    HW288336   6.867   6.098   3.633
28833SOL     OW88337  10.923   2.082  13.320
28833SOL    HW188338  10.841   2.091  13.368
28833SOL    HW288339  10.902   2.024  13.247
28834SOL     OW88340   0.282   2.606  14.416
28834SOL    HW188341   0.371   2.570  14.406
28834SOL    HW288342   0.247   2.607  14.327
28835SOL     OW88343   1.155  13.662   1.318
28835SOL    HW188344   1.241  13.681   1.357
28835SOL    HW288345   1.103  13.627   1.391
28836SOL     OW88346   3.920   8.067  11.846
28836SOL    HW188347   3.825   8.052  11.847
28836SOL    HW288348   3.958   7.981  11.860
28837SOL     OW88349   3.635   8.668   0.161
28837SOL    HW188350   3.607   8.727   0.230
28837SOL    HW288351   3.729   8.660   0.173
28838SOL     OW88352  10.266   2.703  10.180
28838SOL    HW188353  10.192   2.737  10.130
28838SOL    HW288354  10.341   2.756  10.153
28839SOL     OW88355   7.116   8.972  12.852
28839SOL    HW188356   7.178   8.899  12.865
28839SOL    HW288357   7.140   9.035  12.920
28840SOL     OW88358   6.769   2.239   3.671
28840SOL    HW188359   6.790   2.292   3.594
28840SOL    HW288360   6.743   2.302   3.738
28841SOL     OW88361   1.934  12.624   9.962
28841SOL    HW188362   1.858  12.577   9.996
28841SOL    HW288363   1.898  12.679   9.893
28842SOL     OW88364   2.454   9.182  12.794
28842SOL    HW188365   2.467   9.273  12.822
28842SOL    HW288366   2.524   9.133  12.837
28843SOL     OW88367  13.484  12.885   2.363
28843SOL    HW188368  13.539  12.958   2.393
28843SOL    HW288369  13.523  12.859   2.280
28844SOL     OW88370   2.565   3.386   2.938
28844SOL    HW188371   2.551   3.467   2.988
28844SOL    HW288372   2.533   3.405   2.850
28845SOL     OW88373   8.361   1.207  13.770
28845SOL    HW188374   8.439   1.193  13.716
28845SOL    HW288375   8.395   1.244  13.852
28846SOL     OW88376  11.306  11.776  11.717
28846SOL    HW188377  11.263  11.847  11.671
28846SOL    HW288378  11.307  11.804  11.809
28847SOL     OW88379   7.776   9.787  11.087
28847SOL    HW188380   7.781   9.879  11.113
28847SOL    HW288381   7.724   9.746  11.156
28848SOL     OW88382   1.536  11.847   6.034
28848SOL    HW188383   1.557  11.939   6.047
28848SOL    HW288384   1.448  11.837   6.070
28849SOL     OW88385   5.502   1.691  11.431
28849SOL    HW188386   5.504   1.772  11.482
28849SOL    HW288387   5.521   1.622  11.494
28850SOL     OW88388  14.148  13.819  14.734
28850SOL    HW188389  14.178  13.824  14.644
28850SOL    HW288390  14.093  13.897  14.745
28851SOL     OW88391   3.458   9.801   5.226
28851SOL    HW188392   3.499   9.753   5.155
28851SOL    HW288393   3.531   9.840   5.274
28852SOL     OW88394   1.233  10.818   9.205
28852SOL    HW188395   1.207  10.764   9.279
28852SOL    HW288396   1.222  10.761   9.129
28853SOL     OW88397   4.315  14.830   9.625
28853SOL    HW188398   4.304   0.004   9.704
28853SOL    HW288399   4.266  14.750   9.644
28854SOL     OW88400  12.706  12.406   6.221
28854SOL    HW188401  12.619  12.438   6.196
28854SOL    HW288402  12.757  12.408   6.140
28855SOL     OW88403  14.738   1.948   3.569
28855SOL    HW188404  14.796   1.910   3.503
28855SOL    HW288405  14.790   2.015   3.613
28856SOL     OW88406  14.704   1.884   2.891
28856SOL    HW188407  14.766   1.862   2.960
28856SOL    HW288408  14.750   1.949   2.838
28857SOL     OW88409  11.643  13.728  13.419
28857SOL    HW188410  11.644  13.789  13.493
28857SOL    HW288411  11.612  13.645  13.456
28858SOL     OW88412   4.569   8.965  11.368
28858SOL    HW188413   4.502   8.910  11.409
28858SOL    HW288414   4.636   8.903  11.340
28859SOL     OW88415   4.237   1.344   4.643
28859SOL    HW188416   4.164   1.282   4.649
28859SOL    HW288417   4.277   1.324   4.558
28860SOL     OW88418   8.327  11.054   0.339
28860SOL    HW188419   8.350  11.118   0.406
28860SOL    HW288420   8.410  11.014   0.314
28861SOL     OW88421   1.578   3.760   8.000
28861SOL    HW188422   1.486   3.734   8.004
28861SOL    HW288423   1.612   3.719   7.920
28862SOL     OW88424  12.374  11.921  14.007
28862SOL    HW188425  12.388  11.913  13.912
28862SOL    HW288426  12.431  11.854  14.045
28863SOL     OW88427   9.505   1.419   8.808
28863SOL    HW188428   9.469   1.477   8.741
28863SOL    HW288429   9.569   1.473   8.855
28864SOL     OW88430  13.050  11.962   7.257
28864SOL    HW188431  13.141  11.986   7.274
28864SOL    HW288432  13.043  11.872   7.288
28865SOL     OW88433  14.609  14.715  13.695
28865SOL    HW188434  14.587  14.713  13.602
28865SOL    HW288435  14.664  14.793  13.705
28866SOL     OW88436   4.401  12.700  13.760
28866SOL    HW188437   4.436  12.782  13.796
28866SOL    HW288438   4.362  12.655  13.835
28867SOL     OW88439   5.930  13.430   8.968
28867SOL    HW188440   5.947  13.460   8.879
28867SOL    HW288441   6.006  13.377   8.991
28868SOL     OW88442   0.059   5.855  12.627
28868SOL    HW188443   0.110   5.855  12.546
28868SOL    HW288444   0.043   5.947  12.645
28869SOL     OW88445   9.438  12.265  14.856
28869SOL    HW188446   9.398  12.352  14.856
28869SOL    HW288447   9.444  12.241   0.069
28870SOL     OW88448   1.076   9.935  11.243
28870SOL    HW188449   1.090  10.002  11.176
28870SOL    HW288450   1.161   9.926  11.286
28871SOL     OW88451  14.451   7.602  14.765
28871SOL    HW188452  14.385   7.564  14.823
28871SOL    HW288453  14.513   7.644  14.825
28872SOL     OW88454   4.465   0.248   0.487
28872SOL    HW188455   4.394   0.242   0.423
28872SOL    HW288456   4.447   0.329   0.535
28873SOL     OW88457   7.096   3.377   5.371
28873SOL    HW188458   7.026   3.382   5.436
28873SOL    HW288459   7.176   3.393   5.420
28874SOL     OW88460   2.244   0.752   9.021
28874SOL    HW188461   2.237   0.731   8.928
28874SOL    HW288462   2.166   0.714   9.060
28875SOL     OW88463  12.641  12.497   2.931
28875SOL    HW188464  12.589  12.482   2.851
28875SOL    HW288465  12.671  12.409   2.956
28876SOL     OW88466   8.068   3.834   5.326
28876SOL    HW188467   8.085   3.897   5.396
28876SOL    HW288468   8.147   3.834   5.273
28877SOL     OW88469  10.206   8.644   8.570
28877SOL    HW188470  10.212   8.680   8.481
28877SOL    HW288471  10.112   8.634   8.585
28878SOL     OW88472  10.550   2.297  12.875
28878SOL    HW188473  10.455   2.291  12.883
28878SOL    HW288474  10.574   2.228  12.814
28879SOL     OW88475   5.455   2.003   2.096
28879SOL    HW188476   5.393   2.072   2.122
28879SOL    HW288477   5.400   1.933   2.061
28880SOL     OW88478   0.801   6.164   9.506
28880SOL    HW188479   0.861   6.158   9.431
28880SOL    HW288480   0.832   6.096   9.566
28881SOL     OW88481  13.342   0.155   5.171
28881SOL    HW188482  13.419   0.213   5.178
28881SOL    HW288483  13.274   0.211   5.133
28882SOL     OW88484   3.012   2.625   7.042
28882SOL    HW188485   2.918   2.631   7.060
28882SOL    HW288486   3.054   2.650   7.124
28883SOL     OW88487   1.428   0.449   5.878
28883SOL    HW188488   1.424   0.539   5.846
28883SOL    HW288489   1.468   0.399   5.807
28884SOL     OW88490  11.358   4.536   5.036
28884SOL    HW188491  11.383   4.444   5.030
28884SOL    HW288492  11.267   4.534   5.068
28885SOL     OW88493   3.919   6.112   2.708
28885SOL    HW188494   3.905   6.018   2.718
28885SOL    HW288495   3.907   6.147   2.797
28886SOL     OW88496   1.165   2.706   3.892
28886SOL    HW188497   1.103   2.712   3.965
28886SOL    HW288498   1.114   2.671   3.820
28887SOL     OW88499  13.404   6.312   2.400
28887SOL    HW188500  13.497   6.330   2.405
28887SOL    HW288501  13.386   6.300   2.307
28888SOL     OW88502  13.162  14.816   4.983
28888SOL    HW188503  13.081  14.766   4.975
28888SOL    HW288504  13.171  14.833   5.077
28889SOL     OW88505   6.383   2.624   3.072
28889SOL    HW188506   6.294   2.645   3.046
28889SOL    HW288507   6.435   2.700   3.046
28890SOL     OW88508   3.489   1.174   5.269
28890SOL    HW188509   3.426   1.211   5.331
28890SOL    HW288510   3.456   1.086   5.252
28891SOL     OW88511  10.870  13.918   3.948
28891SOL    HW188512  10.860  13.856   3.876
28891SOL    HW288513  10.901  13.866   4.021
28892SOL     OW88514   4.464   2.906   4.900
28892SOL    HW188515   4.526   2.904   4.827
28892SOL    HW288516   4.514   2.943   4.973
28893SOL     OW88517   3.370   9.308   7.174
28893SOL    HW188518   3.398   9.375   7.236
28893SOL    HW288519   3.311   9.252   7.224
28894SOL     OW88520   3.625  10.575  14.581
28894SOL    HW188521   3.608  10.667  14.602
28894SOL    HW288522   3.540  10.539  14.557
28895SOL     OW88523  14.078  12.883   0.680
28895SOL    HW188524  13.998  12.868   0.730
28895SOL    HW288525  14.131  12.939   0.737
28896SOL     OW88526  12.981  14.867   7.561
28896SOL    HW188527  13.024   0.022   7.482
28896SOL    HW288528  13.051  14.864   7.627
28897SOL     OW88529  13.246  12.442   8.429
28897SOL    HW188530  13.154  12.471   8.428
28897SOL    HW288531  13.260  12.409   8.518
28898SOL     OW88532  10.907   1.013   2.451
28898SOL    HW188533  10.937   0.954   2.520
28898SOL    HW288534  10.974   1.008   2.383
28899SOL     OW88535   7.395  12.996   4.753
28899SOL    HW188536   7.358  12.984   4.666
28899SOL    HW288537   7.352  13.074   4.787
28900SOL     OW88538   5.673  11.431   7.877
28900SOL    HW188539   5.740  11.434   7.945
28900SOL    HW288540   5.720  11.405   7.797
28901SOL     OW88541  10.190   0.665   3.228
28901SOL    HW188542  10.105   0.690   3.191
28901SOL    HW288543  10.239   0.746   3.232
28902SOL     OW88544   4.239   0.669  10.181
28902SOL    HW188545   4.253   0.615  10.259
28902SOL    HW288546   4.182   0.739  10.210
28903SOL     OW88547   7.636   9.224  12.486
28903SOL    HW188548   7.558   9.270  12.518
28903SOL    HW288549   7.692   9.294  12.453
28904SOL     OW88550   0.715   8.037   3.127
28904SOL    HW188551   0.808   8.028   3.148
28904SOL    HW288552   0.690   8.121   3.165
28905SOL     OW88553   1.104   7.594   1.368
28905SOL    HW188554   1.046   7.538   1.316
28905SOL    HW288555   1.044   7.654   1.413
28906SOL     OW88556  12.261  14.001   8.667
28906SOL    HW188557  12.224  14.058   8.600
28906SOL    HW288558  12.203  14.011   8.742
28907SOL     OW88559   6.134  10.827   9.022
28907SOL    HW188560   6.105  10.768   8.952
28907SOL    HW288561   6.211  10.783   9.059
28908SOL     OW88562  11.011   0.252  10.719
28908SOL    HW188563  10.978   0.166  10.747
28908SOL    HW288564  11.085   0.232  10.661
28909SOL     OW88565   5.512   2.979  13.530
28909SOL    HW188566   5.494   2.984  13.623
28909SOL    HW288567   5.488   2.889  13.506
28910SOL     OW88568   8.460   2.031   6.150
28910SOL    HW188569   8.446   1.977   6.072
28910SOL    HW288570   8.532   2.090   6.126
28911SOL     OW88571   7.093   6.665   0.418
28911SOL    HW188572   7.042   6.602   0.467
28911SOL    HW288573   7.029   6.712   0.364
28912SOL     OW88574  11.592   2.035   6.045
28912SOL    HW188575  11.567   1.950   6.080
28912SOL    HW288576  11.543   2.043   5.963
28913SOL     OW88577   7.612   2.598   0.094
28913SOL    HW188578   7.691   2.585   0.041
28913SOL    HW288579   7.634   2.671   0.152
28914SOL     OW88580   5.732   9.774   0.116
28914SOL    HW188581   5.740   9.740   0.027
28914SOL    HW288582   5.696   9.701   0.167
28915SOL     OW88583   0.984   4.398  13.969
28915SOL    HW188584   0.937   4.481  13.961
28915SOL    HW288585   1.073   4.423  13.994
28916SOL     OW88586   0.367   1.525   2.407
28916SOL    HW188587   0.341   1.541   2.497
28916SOL    HW288588   0.413   1.441   2.409
28917SOL     OW88589   0.604   0.814   4.302
28917SOL    HW188590   0.655   0.895   4.312
28917SOL    HW288591   0.661   0.746   4.337
28918SOL     OW88592   8.220   4.159   1.768
28918SOL    HW188593   8.219   4.217   1.692
28918SOL    HW288594   8.139   4.179   1.815
28919SOL     OW88595   1.077   6.347  13.626
28919SOL    HW188596   1.014   6.411  13.593
28919SOL    HW288597   1.161   6.392  13.621
28920SOL     OW88598  11.889   7.595   6.924
28920SOL    HW188599  11.931   7.536   6.861
28920SOL    HW288600  11.812   7.548   6.954
28921SOL     OW88601   8.262  10.914   8.193
28921SOL    HW188602   8.197  10.899   8.261
28921SOL    HW288603   8.214  10.954   8.122
28922SOL     OW88604  12.602  10.168   8.794
28922SOL    HW188605  12.661  10.093   8.785
28922SOL    HW288606  12.643  10.222   8.862
28923SOL     OW88607  14.449   2.710   2.603
28923SOL    HW188608  14.525   2.759   2.634
28923SOL    HW288609  14.484   2.625   2.575
28924SOL     OW88610   0.475  11.361  13.700
28924SOL    HW188611   0.478  11.356  13.795
28924SOL    HW288612   0.539  11.295  13.671
28925SOL     OW88613   3.193   3.995  12.205
28925SOL    HW188614   3.250   4.066  12.175
28925SOL    HW288615   3.240   3.915  12.181
28926SOL     OW88616   5.224   1.517   4.385
28926SOL    HW188617   5.216   1.609   4.359
28926SOL    HW288618   5.147   1.502   4.441
28927SOL     OW88619   0.095  12.514  13.722
28927SOL    HW188620   0.138  12.429  13.724
28927SOL    HW288621   0.166  12.577  13.707
28928SOL     OW88622   3.221   1.608  12.610
28928SOL    HW188623   3.183   1.621  12.697
28928SOL    HW288624   3.165   1.660  12.552
28929SOL     OW88625  12.811  10.729   4.093
28929SOL    HW188626  12.858  10.752   4.173
28929SOL    HW288627  12.880  10.707   4.030
28930SOL     OW88628  11.634  12.193   5.867
28930SOL    HW188629  11.654  12.230   5.780
28930SOL    HW288630  11.626  12.269   5.924
28931SOL     OW88631   8.192   5.167  12.279
28931SOL    HW188632   8.116   5.219  12.302
28931SOL    HW288633   8.224   5.205  12.197
28932SOL     OW88634   6.868   2.450   6.140
28932SOL    HW188635   6.779   2.469   6.110
28932SOL    HW288636   6.868   2.356   6.156
28933SOL     OW88637  11.739  10.982   0.103
28933SOL    HW188638  11.736  11.057   0.044
28933SOL    HW288639  11.811  11.001   0.163
28934SOL     OW88640  11.277  12.240   1.532
28934SOL    HW188641  11.256  12.154   1.496
28934SOL    HW288642  11.212  12.254   1.601
28935SOL     OW88643   1.580  12.553   1.074
28935SOL    HW188644   1.515  12.551   1.004
28935SOL    HW288645   1.655  12.598   1.036
28936SOL     OW88646  11.976   2.405  11.294
28936SOL    HW188647  11.993   2.313  11.273
28936SOL    HW288648  11.963   2.447  11.209
28937SOL     OW88649   8.532  10.139  11.766
28937SOL    HW188650   8.439  10.155  11.785
28937SOL    HW288651   8.531  10.078  11.693
28938SOL     OW88652   5.401  11.100  10.722
28938SOL    HW188653   5.361  11.080  10.807
28938SOL    HW288654   5.486  11.055  10.724
28939SOL     OW88655   5.029   7.153   2.340
28939SOL    HW188656   5.009   7.060   2.349
28939SOL    HW288657   4.957   7.198   2.384
28940SOL     OW88658   5.905   8.837   4.925
28940SOL    HW188659   5.882   8.895   4.997
28940SOL    HW288660   5.889   8.889   4.846
28941SOL     OW88661   8.091   9.458   4.014
28941SOL    HW188662   8.066   9.431   3.926
28941SOL    HW288663   8.029   9.415   4.072
28942SOL     OW88664  10.332  10.475   5.648
28942SOL    HW188665  10.315  10.490   5.741
28942SOL    HW288666  10.258  10.422   5.618
28943SOL     OW88667   4.904  10.076  13.130
28943SOL    HW188668   4.961  10.115  13.196
28943SOL    HW288669   4.885   9.988  13.163
28944SOL     OW88670   7.790   5.068   4.757
28944SOL    HW188671   7.878   5.069   4.793
28944SOL    HW288672   7.744   4.998   4.803
28945SOL     OW88673   5.995   4.374  12.921
28945SOL    HW188674   6.052   4.447  12.945
28945SOL    HW288675   5.978   4.328  13.004
28946SOL     OW88676   0.155   7.387   9.891
28946SOL    HW188677   0.174   7.330   9.965
28946SOL    HW288678   0.180   7.474   9.920
28947SOL     OW88679  14.709  11.201   6.328
28947SOL    HW188680  14.677  11.213   6.239
28947SOL    HW288681  14.656  11.260   6.381
28948SOL     OW88682   7.808   9.593   0.934
28948SOL    HW188683   7.791   9.670   0.989
28948SOL    HW288684   7.797   9.519   0.993
28949SOL     OW88685   8.140  11.034   8.702
28949SOL    HW188686   8.138  10.946   8.740
28949SOL    HW288687   8.227  11.067   8.722
28950SOL     OW88688  12.606   1.398  13.800
28950SOL    HW188689  12.529   1.425  13.750
28950SOL    HW288690  12.580   1.315  13.842
28951SOL     OW88691  14.860   6.977  13.378
28951SOL    HW188692   0.025   6.905  13.422
28951SOL    HW288693   0.036   7.053  13.391
28952SOL     OW88694   7.617   8.221  10.827
28952SOL    HW188695   7.561   8.161  10.777
28952SOL    HW288696   7.699   8.173  10.839
28953SOL     OW88697   8.518   7.842  10.143
28953SOL    HW188698   8.530   7.926  10.186
28953SOL    HW288699   8.605   7.800  10.147
28954SOL     OW88700   0.627   3.092   2.492
28954SOL    HW188701   0.540   3.132   2.484
28954SOL    HW288702   0.611   2.999   2.478
28955SOL     OW88703   0.512  11.682  10.855
28955SOL    HW188704   0.590  11.659  10.805
28955SOL    HW288705   0.440  11.668  10.794
28956SOL     OW88706   5.104   7.659   8.490
28956SOL    HW188707   5.121   7.598   8.417
28956SOL    HW288708   5.010   7.653   8.506
28957SOL     OW88709   5.653   9.602   9.868
28957SOL    HW188710   5.585   9.586   9.802
28957SOL    HW288711   5.633   9.690   9.901
28958SOL     OW88712   6.732   5.528  10.578
28958SOL    HW188713   6.809   5.546  10.523
28958SOL    HW288714   6.726   5.433  10.580
28959SOL     OW88715  11.979  14.258   5.375
28959SOL    HW188716  11.885  14.259   5.360
28959SOL    HW288717  11.990  14.213   5.459
28960SOL     OW88718   8.536   1.640   6.116
28960SOL    HW188719   8.578   1.725   6.107
28960SOL    HW288720   8.482   1.631   6.037
28961SOL     OW88721   8.768   7.766  10.114
28961SOL    HW188722   8.776   7.762  10.019
28961SOL    HW288723   8.857   7.784  10.145
28962SOL     OW88724  11.889  11.301  12.677
28962SOL    HW188725  11.951  11.320  12.747
28962SOL    HW288726  11.804  11.324  12.713
28963SOL     OW88727   8.659   8.809   8.849
28963SOL    HW188728   8.667   8.886   8.906
28963SOL    HW288729   8.614   8.841   8.771
28964SOL     OW88730  12.056   8.574  10.126
28964SOL    HW188731  12.106   8.494  10.108
28964SOL    HW288732  12.047   8.577  10.221
28965SOL     OW88733  10.963  12.101   8.609
28965SOL    HW188734  10.916  12.097   8.693
28965SOL    HW288735  10.964  12.193   8.586
28966SOL     OW88736   0.573   6.458  13.820
28966SOL    HW188737   0.512   6.416  13.759
28966SOL    HW288738   0.653   6.406  13.815
28967SOL     OW88739  13.081   0.674  13.612
28967SOL    HW188740  13.023   0.750  13.615
28967SOL    HW288741  13.041   0.611  13.673
28968SOL     OW88742   8.394   9.101  13.427
28968SOL    HW188743   8.338   9.045  13.481
28968SOL    HW288744   8.342   9.179  13.411
28969SOL     OW88745  11.832   5.032   4.017
28969SOL    HW188746  11.751   5.038   4.067
28969SOL    HW288747  11.884   5.108   4.045
28970SOL     OW88748   8.481   8.712   5.398
28970SOL    HW188749   8.479   8.678   5.309
28970SOL    HW288750   8.457   8.804   5.389
28971SOL     OW88751   2.914   2.251   2.299
28971SOL    HW188752   2.980   2.308   2.260
28971SOL    HW288753   2.833   2.303   2.296
28972SOL     OW88754   3.034   7.108  12.062
28972SOL    HW188755   3.035   7.022  12.104
28972SOL    HW288756   2.952   7.111  12.014
28973SOL     OW88757  14.256   7.275   1.998
28973SOL    HW188758  14.177   7.245   1.954
28973SOL    HW288759  14.302   7.329   1.933
28974SOL     OW88760   7.330  12.260   3.478
28974SOL    HW188761   7.382  12.323   3.529
28974SOL    HW288762   7.327  12.297   3.390
28975SOL     OW88763  13.571  12.985   4.319
28975SOL    HW188764  13.522  12.972   4.238
28975SOL    HW288765  13.534  12.921   4.380
28976SOL     OW88766  14.144   1.608   1.756
28976SOL    HW188767  14.131   1.677   1.691
28976SOL    HW288768  14.159   1.528   1.705
28977SOL     OW88769  12.545   9.051   9.977
28977SOL    HW188770  12.464   9.095  10.003
28977SOL    HW288771  12.550   8.973  10.032
28978SOL     OW88772   1.885   5.357   9.711
28978SOL    HW188773   1.828   5.356   9.788
28978SOL    HW288774   1.846   5.295   9.650
28979SOL     OW88775  12.345   6.531   8.674
28979SOL    HW188776  12.276   6.525   8.608
28979SOL    HW288777  12.408   6.593   8.637
28980SOL     OW88778   3.280  11.123   7.475
28980SOL    HW188779   3.347  11.172   7.428
28980SOL    HW288780   3.327  11.050   7.516
28981SOL     OW88781   2.698   4.190   2.547
28981SOL    HW188782   2.737   4.217   2.630
28981SOL    HW288783   2.698   4.270   2.494
28982SOL     OW88784   9.783  13.010   2.452
28982SOL    HW188785   9.818  12.980   2.368
28982SOL    HW288786   9.690  13.023   2.436
28983SOL     OW88787   4.181   6.797  14.213
28983SOL    HW188788   4.180   6.724  14.275
28983SOL    HW288789   4.092   6.831  14.213
28984SOL     OW88790   4.484   5.667   6.960
28984SOL    HW188791   4.562   5.679   6.905
28984SOL    HW288792   4.422   5.622   6.903
28985SOL     OW88793   6.406   7.704   1.041
28985SOL    HW188794   6.337   7.641   1.018
28985SOL    HW288795   6.414   7.696   1.136
28986SOL     OW88796   0.029   2.261  12.041
28986SOL    HW188797  14.860   2.181  12.060
28986SOL    HW288798   0.120   2.232  12.032
28987SOL     OW88799  11.802   0.599   4.520
28987SOL    HW188800  11.771   0.626   4.606
28987SOL    HW288801  11.898   0.604   4.526
28988SOL     OW88802   6.832  14.411   7.636
28988SOL    HW188803   6.905  14.375   7.687
28988SOL    HW288804   6.801  14.485   7.688
28989SOL     OW88805   8.543   0.153  14.178
28989SOL    HW188806   8.536   0.240  14.219
28989SOL    HW288807   8.630   0.123  14.201
28990SOL     OW88808   8.482   6.215   2.805
28990SOL    HW188809   8.453   6.152   2.872
28990SOL    HW288810   8.571   6.237   2.832
28991SOL     OW88811   4.660  13.881  14.174
28991SOL    HW188812   4.687  13.972  14.177
28991SOL    HW288813   4.667  13.857  14.081
28992SOL     OW88814  14.043   0.005   6.373
28992SOL    HW188815  14.101   0.058   6.318
28992SOL    HW288816  14.006  14.820   6.313
28993SOL     OW88817   6.019   5.363   6.740
28993SOL    HW188818   6.044   5.376   6.648
28993SOL    HW288819   6.100   5.373   6.789
28994SOL     OW88820  10.388   8.375  10.835
28994SOL    HW188821  10.444   8.446  10.803
28994SOL    HW288822  10.409   8.367  10.928
28995SOL     OW88823  10.706   0.901   8.281
28995SOL    HW188824  10.679   0.816   8.315
28995SOL    HW288825  10.720   0.955   8.359
28996SOL     OW88826   6.937   0.687  12.267
28996SOL    HW188827   6.939   0.621  12.197
28996SOL    HW288828   7.019   0.735  12.257
28997SOL     OW88829   4.104   3.610   7.008
28997SOL    HW188830   4.107   3.515   7.010
28997SOL    HW288831   4.194   3.638   7.023
28998SOL     OW88832  12.053   9.071  14.759
28998SOL    HW188833  11.984   9.123  14.718
28998SOL    HW288834  12.059   8.992  14.704
28999SOL     OW88835   8.095   5.485   0.994
28999SOL    HW188836   8.127   5.396   0.979
28999SOL    HW288837   8.022   5.474   1.054
29000SOL     OW88838   4.542  12.904   7.392
29000SOL    HW188839   4.589  12.870   7.468
29000SOL    HW288840   4.528  12.828   7.336
29001SOL     OW88841   1.523   9.700   0.894
29001SOL    HW188842   1.518   9.604   0.897
29001SOL    HW288843   1.475   9.729   0.971
29002SOL     OW88844  10.737   1.383   4.582
29002SOL    HW188845  10.651   1.358   4.617
29002SOL    HW288846  10.736   1.478   4.582
29003SOL     OW88847   4.253   5.970  13.006
29003SOL    HW188848   4.251   5.886  12.960
29003SOL    HW288849   4.180   5.965  13.068
29004SOL     OW88850  14.354   1.991  11.327
29004SOL    HW188851  14.273   2.042  11.327
29004SOL    HW288852  14.424   2.057  11.334
29005SOL     OW88853   2.517   1.357   1.356
29005SOL    HW188854   2.513   1.326   1.266
29005SOL    HW288855   2.608   1.341   1.382
29006SOL     OW88856   8.241   1.571   8.496
29006SOL    HW188857   8.263   1.617   8.577
29006SOL    HW288858   8.326   1.543   8.461
29007SOL     OW88859   8.914   8.237   5.806
29007SOL    HW188860   8.913   8.330   5.786
29007SOL    HW288861   8.921   8.194   5.721
29008SOL     OW88862   8.761   3.085   7.887
29008SOL    HW188863   8.802   3.146   7.948
29008SOL    HW288864   8.773   3.125   7.800
29009SOL     OW88865   8.439   5.110   9.630
29009SOL    HW188866   8.393   5.148   9.705
29009SOL    HW288867   8.531   5.112   9.655
29010SOL     OW88868  11.173   8.112  12.727
29010SOL    HW188869  11.111   8.039  12.720
29010SOL    HW288870  11.122   8.189  12.704
29011SOL     OW88871  11.047   2.382  13.744
29011SOL    HW188872  10.982   2.349  13.682
29011SOL    HW288873  11.100   2.443  13.692
29012SOL     OW88874  14.371   7.386   7.738
29012SOL    HW188875  14.465   7.373   7.754
29012SOL    HW288876  14.354   7.475   7.771
29013SOL     OW88877   3.470  11.283   0.376
29013SOL    HW188878   3.442  11.199   0.342
29013SOL    HW288879   3.439  11.347   0.312
29014SOL     OW88880  10.666   8.004   4.164
29014SOL    HW188881  10.729   8.034   4.098
29014SOL    HW288882  10.679   8.062   4.238
29015SOL     OW88883   9.893   4.021  12.121
29015SOL    HW188884   9.814   4.067  12.150
29015SOL    HW288885   9.934   3.990  12.202
29016SOL     OW88886   3.292  10.920   6.848
29016SOL    HW188887   3.206  10.877   6.844
29016SOL    HW288888   3.274  11.011   6.823
29017SOL     OW88889   7.641   3.008   1.005
29017SOL    HW188890   7.587   2.936   1.036
29017SOL    HW288891   7.641   2.998   0.909
29018SOL     OW88892   1.651   4.992   3.987
29018SOL    HW188893   1.636   4.944   4.068
29018SOL    HW288894   1.663   5.083   4.015
29019SOL     OW88895  11.762   5.339   5.305
29019SOL    HW188896  11.778   5.264   5.363
29019SOL    HW288897  11.821   5.324   5.231
29020SOL     OW88898   8.013   1.254   9.513
29020SOL    HW188899   7.944   1.280   9.451
29020SOL    HW288900   8.004   1.159   9.520
29021SOL     OW88901  11.385   5.966   8.628
29021SOL    HW188902  11.384   5.885   8.677
29021SOL    HW288903  11.299   6.005   8.643
29022SOL     OW88904   2.399   8.191  13.187
29022SOL    HW188905   2.373   8.278  13.158
29022SOL    HW288906   2.458   8.206  13.260
29023SOL     OW88907  11.522   0.701  14.548
29023SOL    HW188908  11.572   0.779  14.525
29023SOL    HW288909  11.582   0.628  14.535
29024SOL     OW88910  10.433   7.425   7.861
29024SOL    HW188911  10.410   7.467   7.778
29024SOL    HW288912  10.415   7.332   7.846
29025SOL     OW88913   0.832   5.914   9.916
29025SOL    HW188914   0.883   5.929   9.836
29025SOL    HW288915   0.784   5.996   9.930
29026SOL     OW88916  13.774   3.406  13.754
29026SOL    HW188917  13.800   3.487  13.709
29026SOL    HW288918  13.782   3.427  13.847
29027SOL     OW88919   2.033   0.911   2.449
29027SOL    HW188920   1.947   0.939   2.481
29027SOL    HW288921   2.035   0.939   2.358
29028SOL     OW88922  10.886   5.346  13.733
29028SOL    HW188923  10.813   5.407  13.742
29028SOL    HW288924  10.958   5.387  13.781
29029SOL     OW88925   2.584   4.186  13.465
29029SOL    HW188926   2.531   4.123  13.417
29029SOL    HW288927   2.674   4.159  13.451
29030SOL     OW88928  10.550   5.134  10.094
29030SOL    HW188929  10.611   5.095  10.031
29030SOL    HW288930  10.585   5.222  10.110
29031SOL     OW88931  13.711   6.086   9.366
29031SOL    HW188932  13.692   6.117   9.278
29031SOL    HW288933  13.759   6.158   9.407
29032SOL     OW88934   3.089   1.995  14.610
29032SOL    HW188935   3.140   1.950  14.542
29032SOL    HW288936   3.137   1.980  14.691
29033SOL     OW88937   9.501   8.269  12.657
29033SOL    HW188938   9.505   8.350  12.607
29033SOL    HW288939   9.444   8.289  12.731
29034SOL     OW88940   9.592   0.200  12.983
29034SOL    HW188941   9.666   0.213  13.043
29034SOL    HW288942   9.630   0.156  12.907
29035SOL     OW88943  11.871  14.043   7.490
29035SOL    HW188944  11.794  14.063   7.544
29035SOL    HW288945  11.844  14.063   7.401
29036SOL     OW88946   7.383   2.202   8.862
29036SOL    HW188947   7.407   2.293   8.841
29036SOL    HW288948   7.405   2.153   8.784
29037SOL     OW88949   8.813   4.693  12.234
29037SOL    HW188950   8.792   4.722  12.322
29037SOL    HW288951   8.777   4.605  12.228
29038SOL     OW88952   9.503   7.103   0.604
29038SOL    HW188953   9.591   7.115   0.640
29038SOL    HW288954   9.445   7.127   0.676
29039SOL     OW88955   1.171  14.560   7.398
29039SOL    HW188956   1.099  14.497   7.410
29039SOL    HW288957   1.205  14.541   7.310
29040SOL     OW88958   8.109   1.088   4.560
29040SOL    HW188959   8.125   1.110   4.652
29040SOL    HW288960   8.185   1.037   4.533
29041SOL     OW88961   5.023  10.911   2.337
29041SOL    HW188962   5.048  10.980   2.399
29041SOL    HW288963   5.088  10.842   2.351
29042SOL     OW88964   2.721   1.316  14.548
29042SOL    HW188965   2.783   1.388  14.539
29042SOL    HW288966   2.775   1.237  14.547
29043SOL     OW88967  10.937   5.860   6.127
29043SOL    HW188968  10.962   5.799   6.196
29043SOL    HW288969  10.945   5.947   6.168
29044SOL     OW88970   0.373  10.337   3.762
29044SOL    HW188971   0.358  10.266   3.700
29044SOL    HW288972   0.466  10.359   3.753
29045SOL     OW88973   2.972   0.007   6.265
29045SOL    HW188974   3.018  14.868   6.347
29045SOL    HW288975   2.927  14.805   6.243
29046SOL     OW88976  13.453   0.715  12.960
29046SOL    HW188977  13.366   0.677  12.971
29046SOL    HW288978  13.503   0.684  13.036
29047SOL     OW88979   7.716   0.809  11.311
29047SOL    HW188980   7.622   0.813  11.293
29047SOL    HW288981   7.722   0.818  11.406
29048SOL     OW88982  10.969  10.869   6.791
29048SOL    HW188983  10.979  10.945   6.734
29048SOL    HW288984  11.048  10.870   6.846
29049SOL     OW88985   4.804  10.340   1.385
29049SOL    HW188986   4.758  10.417   1.351
29049SOL    HW288987   4.762  10.323   1.470
29050SOL     OW88988   3.542   3.820   1.192
29050SOL    HW188989   3.524   3.745   1.248
29050SOL    HW288990   3.582   3.783   1.113
29051SOL     OW88991   0.097  13.768   8.166
29051SOL    HW188992   0.005  13.759   8.140
29051SOL    HW288993   0.144  13.709   8.108
29052SOL     OW88994   7.939  10.170   5.550
29052SOL    HW188995   7.871  10.183   5.484
29052SOL    HW288996   7.983  10.255   5.556
29053SOL     OW88997   3.589   3.487   4.053
29053SOL    HW188998   3.676   3.512   4.084
29053SOL    HW288999   3.579   3.532   3.969
29054SOL     OW89000  14.037  14.687  13.465
29054SOL    HW189001  14.050  14.731  13.549
29054SOL    HW289002  14.105  14.619  13.463
29055SOL     OW89003  14.294   0.686  12.605
29055SOL    HW189004  14.256   0.701  12.692
29055SOL    HW289005  14.231   0.724  12.544
29056SOL     OW89006   1.988   0.940  12.256
29056SOL    HW189007   1.909   0.989  12.281
29056SOL    HW289008   2.050   1.007  12.227
29057SOL     OW89009  11.693   5.769  12.672
29057SOL    HW189010  11.780   5.754  12.709
29057SOL    HW289011  11.702   5.851  12.623
29058SOL     OW89012  14.779   8.347   9.862
29058SOL    HW189013  14.694   8.305   9.879
29058SOL    HW289014  14.757   8.433   9.827
29059SOL     OW89015   0.662   9.422   5.321
29059SOL    HW189016   0.715   9.444   5.397
29059SOL    HW289017   0.661   9.502   5.268
29060SOL     OW89018   7.832   8.059   2.625
29060SOL    HW189019   7.860   7.968   2.612
29060SOL    HW289020   7.878   8.088   2.703
29061SOL     OW89021   1.182   2.282  13.669
29061SOL    HW189022   1.142   2.200  13.699
29061SOL    HW289023   1.215   2.323  13.749
29062SOL     OW89024  13.261   6.804   9.643
29062SOL    HW189025  13.205   6.821   9.567
29062SOL    HW289026  13.261   6.886   9.692
29063SOL     OW89027   4.530   0.556   7.986
29063SOL    HW189028   4.459   0.577   7.926
29063SOL    HW289029   4.588   0.632   7.982
29064SOL     OW89030   2.707   2.740  10.820
29064SOL    HW189031   2.685   2.721  10.729
29064SOL    HW289032   2.695   2.657  10.866
29065SOL     OW89033   7.735  13.377   2.702
29065SOL    HW189034   7.784  13.433   2.762
29065SOL    HW289035   7.798  13.311   2.674
29066SOL     OW89036   7.747   0.228  10.347
29066SOL    HW189037   7.797   0.236  10.266
29066SOL    HW289038   7.809   0.252  10.416
29067SOL     OW89039   9.143   4.208   4.940
29067SOL    HW189040   9.213   4.228   4.878
29067SOL    HW289041   9.163   4.120   4.972
29068SOL     OW89042   9.770  12.419   3.240
29068SOL    HW189043   9.864  12.408   3.253
29068SOL    HW289044   9.730  12.354   3.298
29069SOL     OW89045   5.960  14.810   7.184
29069SOL    HW189046   5.928   0.005   7.133
29069SOL    HW289047   5.986  14.848   7.268
29070SOL     OW89048  14.282   2.844   4.978
29070SOL    HW189049  14.369   2.840   4.938
29070SOL    HW289050  14.291   2.795   5.059
29071SOL     OW89051   9.656   2.018   0.921
29071SOL    HW189052   9.688   2.067   0.845
29071SOL    HW289053   9.673   2.076   0.996
29072SOL     OW89054   6.093   6.025   1.833
29072SOL    HW189055   6.038   5.985   1.901
29072SOL    HW289056   6.058   6.114   1.825
29073SOL     OW89057   3.257   2.280  14.128
29073SOL    HW189058   3.163   2.274  14.112
29073SOL    HW289059   3.267   2.258  14.220
29074SOL     OW89060   9.587  10.535  11.758
29074SOL    HW189061   9.594  10.442  11.737
29074SOL    HW289062   9.614  10.581  11.679
29075SOL     OW89063   5.519  10.884   7.154
29075SOL    HW189064   5.538  10.900   7.247
29075SOL    HW289065   5.542  10.792   7.141
29076SOL     OW89066   0.364   3.209  12.435
29076SOL    HW189067   0.452   3.201  12.472
29076SOL    HW289068   0.360   3.141  12.368
29077SOL     OW89069   6.041   1.213   6.010
29077SOL    HW189070   6.038   1.164   6.092
29077SOL    HW289071   6.105   1.283   6.026
29078SOL     OW89072   1.837  11.853   7.223
29078SOL    HW189073   1.908  11.875   7.164
29078SOL    HW289074   1.854  11.904   7.302
29079SOL     OW89075  13.763   0.671   6.411
29079SOL    HW189076  13.844   0.634   6.376
29079SOL    HW289077  13.747   0.748   6.357
29080SOL     OW89078  12.051  13.654   1.163
29080SOL    HW189079  12.056  13.563   1.137
29080SOL    HW289080  11.992  13.695   1.100
29081SOL     OW89081  10.424  11.894   5.522
29081SOL    HW189082  10.493  11.849   5.472
29081SOL    HW289083  10.387  11.826   5.578
29082SOL     OW89084  10.203  12.536  11.205
29082SOL    HW189085  10.242  12.566  11.288
29082SOL    HW289086  10.278  12.529  11.145
29083SOL     OW89087   5.692  14.195   4.263
29083SOL    HW189088   5.606  14.188   4.222
29083SOL    HW289089   5.748  14.137   4.212
29084SOL     OW89090  11.987   5.068  13.647
29084SOL    HW189091  12.034   5.039  13.725
29084SOL    HW289092  12.023   5.155  13.628
29085SOL     OW89093   6.976   7.487  11.448
29085SOL    HW189094   6.942   7.549  11.383
29085SOL    HW289095   6.902   7.471  11.507
29086SOL     OW89096   9.778  10.371   4.084
29086SOL    HW189097   9.767  10.286   4.041
29086SOL    HW289098   9.775  10.352   4.178
29087SOL     OW89099   0.478   4.792  13.076
29087SOL    HW189100   0.501   4.710  13.121
29087SOL    HW289101   0.562   4.831  13.053
29088SOL     OW89102   4.834  13.807  14.866
29088SOL    HW189103   4.930  13.807  14.866
29088SOL    HW289104   4.810  13.715  14.852
29089SOL     OW89105  11.204  14.097   6.748
29089SOL    HW189106  11.210  14.174   6.804
29089SOL    HW289107  11.201  14.132   6.659
29090SOL     OW89108   2.884   4.730   9.279
29090SOL    HW189109   2.921   4.656   9.327
29090SOL    HW289110   2.807   4.695   9.235
29091SOL     OW89111   7.779   8.163   9.515
29091SOL    HW189112   7.872   8.146   9.497
29091SOL    HW289113   7.733   8.125   9.441
29092SOL     OW89114   6.994   0.253   8.583
29092SOL    HW189115   6.960   0.340   8.562
29092SOL    HW289116   7.060   0.237   8.516
29093SOL     OW89117   1.075   3.543   4.644
29093SOL    HW189118   0.999   3.524   4.590
29093SOL    HW289119   1.049   3.617   4.698
29094SOL     OW89120   1.474   9.809   2.575
29094SOL    HW189121   1.513   9.823   2.489
29094SOL    HW289122   1.422   9.729   2.565
29095SOL     OW89123   4.753   6.297   7.882
29095SOL    HW189124   4.805   6.372   7.909
29095SOL    HW289125   4.816   6.226   7.873
29096SOL     OW89126   2.516   0.622   9.673
29096SOL    HW189127   2.481   0.696   9.623
29096SOL    HW289128   2.557   0.662   9.749
29097SOL     OW89129   7.196  10.716   9.607
29097SOL    HW189130   7.178  10.724   9.700
29097SOL    HW289131   7.155  10.793   9.568
29098SOL     OW89132  12.887   3.128  12.577
29098SOL    HW189133  12.926   3.117  12.490
29098SOL    HW289134  12.960   3.117  12.638
29099SOL     OW89135   7.132  10.789   4.150
29099SOL    HW189136   7.213  10.740   4.168
29099SOL    HW289137   7.118  10.841   4.229
29100SOL     OW89138  12.347   6.532  14.358
29100SOL    HW189139  12.336   6.617  14.399
29100SOL    HW289140  12.432   6.538  14.313
29101SOL     OW89141   9.939   3.226   6.939
29101SOL    HW189142   9.908   3.251   7.026
29101SOL    HW289143   9.869   3.172   6.903
29102SOL     OW89144   5.269  11.383  11.068
29102SOL    HW189145   5.193  11.442  11.069
29102SOL    HW289146   5.259  11.329  11.146
29103SOL     OW89147   1.647  11.238  14.516
29103SOL    HW189148   1.606  11.189  14.444
29103SOL    HW289149   1.623  11.329  14.498
29104SOL     OW89150   9.644   0.057  12.068
29104SOL    HW189151   9.569   0.010  12.104
29104SOL    HW289152   9.636   0.145  12.103
29105SOL     OW89153   8.167   6.336  11.724
29105SOL    HW189154   8.115   6.413  11.747
29105SOL    HW289155   8.199   6.303  11.808
29106SOL     OW89156  13.863   2.679   7.362
29106SOL    HW189157  13.894   2.758   7.405
29106SOL    HW289158  13.904   2.607   7.410
29107SOL     OW89159  12.642   8.132   0.996
29107SOL    HW189160  12.609   8.042   0.990
29107SOL    HW289161  12.667   8.154   0.906
29108SOL     OW89162   3.744  13.607   8.403
29108SOL    HW189163   3.799  13.530   8.411
29108SOL    HW289164   3.732  13.638   8.493
29109SOL     OW89165  10.176   5.978  12.919
29109SOL    HW189166  10.247   5.955  12.979
29109SOL    HW289167  10.190   5.924  12.842
29110SOL     OW89168  14.756   3.395  14.466
29110SOL    HW189169  14.731   3.483  14.495
29110SOL    HW289170  14.847   3.405  14.436
29111SOL     OW89171   4.285  14.130   9.087
29111SOL    HW189172   4.291  14.172   9.001
29111SOL    HW289173   4.353  14.174   9.139
29112SOL     OW89174   4.593   6.917   7.024
29112SOL    HW189175   4.524   6.962   6.975
29112SOL    HW289176   4.669   6.918   6.965
29113SOL     OW89177   3.188  10.485   1.871
29113SOL    HW189178   3.132  10.454   1.942
29113SOL    HW289179   3.267  10.516   1.915
29114SOL     OW89180   8.690  13.617   5.495
29114SOL    HW189181   8.738  13.534   5.497
29114SOL    HW289182   8.646  13.616   5.410
29115SOL     OW89183  14.304  10.252   3.608
29115SOL    HW189184  14.372  10.184   3.606
29115SOL    HW289185  14.264  10.244   3.694
29116SOL     OW89186   3.976   7.067   7.204
29116SOL    HW189187   4.004   7.000   7.142
29116SOL    HW289188   4.024   7.047   7.284
29117SOL     OW89189   5.711   6.268   3.761
29117SOL    HW189190   5.712   6.364   3.753
29117SOL    HW289191   5.642   6.240   3.701
29118SOL     OW89192   2.525   8.836   3.083
29118SOL    HW189193   2.515   8.768   3.017
29118SOL    HW289194   2.496   8.795   3.165
29119SOL     OW89195  11.421   4.486   9.813
29119SOL    HW189196  11.362   4.411   9.814
29119SOL    HW289197  11.504   4.450   9.782
29120SOL     OW89198  14.501   9.348  10.558
29120SOL    HW189199  14.503   9.393  10.642
29120SOL    HW289200  14.465   9.262  10.577
29121SOL     OW89201  13.952   1.859   4.755
29121SOL    HW189202  13.912   1.773   4.739
29121SOL    HW289203  14.041   1.850   4.723
29122SOL     OW89204  11.620   2.199  13.917
29122SOL    HW189205  11.659   2.112  13.925
29122SOL    HW289206  11.687   2.258  13.952
29123SOL     OW89207   1.121   0.009  12.142
29123SOL    HW189208   1.112   0.077  12.210
29123SOL    HW289209   1.198   0.036  12.091
29124SOL     OW89210  12.732   9.645   4.034
29124SOL    HW189211  12.792   9.621   4.104
29124SOL    HW289212  12.697   9.561   4.003
29125SOL     OW89213   2.232   7.335   0.216
29125SOL    HW189214   2.310   7.327   0.162
29125SOL    HW289215   2.235   7.257   0.273
29126SOL     OW89216   5.266  11.563   2.267
29126SOL    HW189217   5.254  11.483   2.215
29126SOL    HW289218   5.310  11.624   2.207
29127SOL     OW89219   5.548   9.409   4.404
29127SOL    HW189220   5.521   9.498   4.381
29127SOL    HW289221   5.642   9.416   4.422
29128SOL     OW89222  12.912  13.810   4.595
29128SOL    HW189223  12.870  13.809   4.509
29128SOL    HW289224  12.993  13.859   4.582
29129SOL     OW89225   5.222  11.084  10.492
29129SOL    HW189226   5.128  11.090  10.507
29129SOL    HW289227   5.260  11.081  10.580
29130SOL     OW89228  12.752   2.674   2.435
29130SOL    HW189229  12.836   2.631   2.449
29130SOL    HW289230  12.721   2.697   2.523
29131SOL     OW89231  13.117   1.784  14.450
29131SOL    HW189232  13.048   1.822  14.504
29131SOL    HW289233  13.197   1.796  14.500
29132SOL     OW89234  10.208   3.824  11.107
29132SOL    HW189235  10.155   3.902  11.124
29132SOL    HW289236  10.179   3.794  11.021
29133SOL     OW89237   7.326   1.192   1.631
29133SOL    HW189238   7.398   1.130   1.645
29133SOL    HW289239   7.364   1.260   1.575
29134SOL     OW89240   8.147  13.785  13.120
29134SOL    HW189241   8.104  13.787  13.034
29134SOL    HW289242   8.187  13.871  13.128
29135SOL     OW89243  14.673  14.450   5.853
29135SOL    HW189244  14.659  14.426   5.761
29135SOL    HW289245  14.656  14.544   5.856
29136SOL     OW89246  13.792   8.892  12.560
29136SOL    HW189247  13.720   8.828  12.556
29136SOL    HW289248  13.837   8.882  12.476
29137SOL     OW89249   9.419  14.554  12.502
29137SOL    HW189250   9.417  14.618  12.573
29137SOL    HW289251   9.338  14.505  12.510
29138SOL     OW89252  14.726   8.840   0.716
29138SOL    HW189253  14.800   8.787   0.688
29138SOL    HW289254  14.758   8.889   0.792
29139SOL     OW89255  11.308   7.105   0.786
29139SOL    HW189256  11.390   7.121   0.739
29139SOL    HW289257  11.335   7.079   0.874
29140SOL     OW89258   3.233   4.403   3.946
29140SOL    HW189259   3.208   4.464   3.876
29140SOL    HW289260   3.216   4.451   4.027
29141SOL     OW89261   2.628   2.589  12.354
29141SOL    HW189262   2.589   2.588  12.441
29141SOL    HW289263   2.683   2.510  12.351
29142SOL     OW89264   2.577  10.600  11.681
29142SOL    HW189265   2.606  10.566  11.765
29142SOL    HW289266   2.621  10.685  11.674
29143SOL     OW89267   0.316   0.537   0.491
29143SOL    HW189268   0.265   0.495   0.422
29143SOL    HW289269   0.261   0.610   0.520
29144SOL     OW89270  12.513   0.759   6.172
29144SOL    HW189271  12.502   0.815   6.095
29144SOL    HW289272  12.602   0.775   6.202
29145SOL     OW89273  10.099  10.940  12.014
29145SOL    HW189274  10.081  10.899  12.099
29145SOL    HW289275  10.150  10.874  11.967
29146SOL     OW89276  13.369   6.247   9.765
29146SOL    HW189277  13.463   6.246   9.781
29146SOL    HW289278  13.358   6.199   9.682
29147SOL     OW89279  11.281  13.869   8.959
29147SOL    HW189280  11.309  13.856   8.868
29147SOL    HW289281  11.299  13.961   8.977
29148SOL     OW89282   2.959   0.083   0.437
29148SOL    HW189283   2.878   0.133   0.438
29148SOL    HW289284   2.935  14.878   0.475
29149SOL     OW89285   9.969   0.486  10.995
29149SOL    HW189286  10.024   0.512  11.069
29149SOL    HW289287  10.027   0.494  10.919
29150SOL     OW89288   8.713  13.568   5.128
29150SOL    HW189289   8.628  13.534   5.098
29150SOL    HW289290   8.770  13.492   5.129
29151SOL     OW89291  14.636   9.558   4.366
29151SOL    HW189292  14.632   9.468   4.400
29151SOL    HW289293  14.544   9.583   4.358
29152SOL     OW89294   7.841  10.162   8.122
29152SOL    HW189295   7.861  10.233   8.062
29152SOL    HW289296   7.809  10.091   8.066
29153SOL     OW89297   1.260   7.444  13.771
29153SOL    HW189298   1.313   7.390  13.829
29153SOL    HW289299   1.322   7.479  13.707
29154SOL     OW89300  13.892   7.018  14.630
29154SOL    HW189301  13.806   6.997  14.666
29154SOL    HW289302  13.879   7.025  14.536
29155SOL     OW89303   2.316   8.257   5.521
29155SOL    HW189304   2.313   8.341   5.475
29155SOL    HW289305   2.227   8.222   5.512
29156SOL     OW89306  11.440   2.859   8.955
29156SOL    HW189307  11.496   2.887   8.883
29156SOL    HW289308  11.421   2.767   8.936
29157SOL     OW89309   3.367  11.601   1.785
29157SOL    HW189310   3.409  11.640   1.709
29157SOL    HW289311   3.296  11.662   1.808
29158SOL     OW89312   5.350   0.155   8.584
29158SOL    HW189313   5.390   0.227   8.535
29158SOL    HW289314   5.257   0.161   8.563
29159SOL     OW89315  11.366   4.722  10.867
29159SOL    HW189316  11.390   4.721  10.960
29159SOL    HW289317  11.448   4.703  10.821
29160SOL     OW89318   7.641   2.620  11.816
29160SOL    HW189319   7.705   2.553  11.840
29160SOL    HW289320   7.586   2.630  11.893
29161SOL     OW89321  13.307   6.587   2.380
29161SOL    HW189322  13.374   6.603   2.314
29161SOL    HW289323  13.322   6.497   2.409
29162SOL     OW89324  14.667  10.768   0.051
29162SOL    HW189325  14.760  10.783   0.070
29162SOL    HW289326  14.651  10.815  14.849
29163SOL     OW89327   6.871  11.703  14.010
29163SOL    HW189328   6.901  11.775  14.066
29163SOL    HW289329   6.915  11.626  14.044
29164SOL     OW89330   6.599   2.738   4.555
29164SOL    HW189331   6.515   2.757   4.514
29164SOL    HW289332   6.664   2.770   4.492
29165SOL     OW89333  10.394   9.633   3.194
29165SOL    HW189334  10.445   9.558   3.163
29165SOL    HW289335  10.318   9.637   3.136
29166SOL     OW89336   6.909   7.855   3.353
29166SOL    HW189337   6.859   7.928   3.315
29166SOL    HW289338   6.851   7.820   3.421
29167SOL     OW89339   0.919   5.381  14.126
29167SOL    HW189340   0.891   5.306  14.073
29167SOL    HW289341   0.994   5.418  14.078
29168SOL     OW89342  11.306  10.975   7.316
29168SOL    HW189343  11.225  10.926   7.331
29168SOL    HW289344  11.307  11.042   7.385
29169SOL     OW89345   7.311   9.429   5.137
29169SOL    HW189346   7.348   9.410   5.051
29169SOL    HW289347   7.220   9.398   5.132
29170SOL     OW89348   1.580   3.254   0.922
29170SOL    HW189349   1.500   3.299   0.948
29170SOL    HW289350   1.578   3.254   0.827
29171SOL     OW89351  10.968   9.389   2.600
29171SOL    HW189352  11.037   9.323   2.593
29171SOL    HW289353  11.004   9.466   2.557
29172SOL     OW89354   1.961   9.343   0.467
29172SOL    HW189355   1.897   9.383   0.525
29172SOL    HW289356   2.021   9.414   0.444
29173SOL     OW89357   7.638   6.783  10.602
29173SOL    HW189358   7.552   6.818  10.624
29173SOL    HW289359   7.624   6.689  10.590
29174SOL     OW89360   8.476   6.697  10.516
29174SOL    HW189361   8.486   6.679  10.423
29174SOL    HW289362   8.483   6.792  10.524
29175SOL     OW89363  12.562   8.176   1.494
29175SOL    HW189364  12.512   8.179   1.412
29175SOL    HW289365  12.576   8.268   1.516
29176SOL     OW89366   0.682   0.338  11.100
29176SOL    HW189367   0.627   0.321  11.176
29176SOL    HW289368   0.712   0.428  11.112
29177SOL     OW89369   0.304   3.031   8.099
29177SOL    HW189370   0.362   3.025   8.023
29177SOL    HW289371   0.354   2.993   8.170
29178SOL     OW89372  10.422   1.256   6.818
29178SOL    HW189373  10.431   1.214   6.733
29178SOL    HW289374  10.456   1.345   6.805
29179SOL     OW89375   0.868   3.445   7.309
29179SOL    HW189376   0.880   3.509   7.380
29179SOL    HW289377   0.776   3.419   7.316
29180SOL     OW89378   2.154   9.209   5.127
29180SOL    HW189379   2.166   9.256   5.210
29180SOL    HW289380   2.222   9.244   5.070
29181SOL     OW89381   6.563   2.526  14.193
29181SOL    HW189382   6.576   2.584  14.267
29181SOL    HW289383   6.646   2.480  14.183
29182SOL     OW89384   2.984   9.783  12.753
29182SOL    HW189385   2.980   9.750  12.663
29182SOL    HW289386   3.017   9.872  12.744
29183SOL     OW89387  14.361   4.805   5.956
29183SOL    HW189388  14.377   4.837   5.867
29183SOL    HW289389  14.273   4.837   5.977
29184SOL     OW89390   4.349  11.516  10.707
29184SOL    HW189391   4.398  11.475  10.636
29184SOL    HW289392   4.413  11.570  10.752
29185SOL     OW89393   8.846   4.709   7.663
29185SOL    HW189394   8.784   4.637   7.662
29185SOL    HW289395   8.910   4.686   7.595
29186SOL     OW89396  14.231   0.736   6.839
29186SOL    HW189397  14.274   0.670   6.784
29186SOL    HW289398  14.195   0.686   6.912
29187SOL     OW89399   8.564   7.652   9.721
29187SOL    HW189400   8.654   7.619   9.713
29187SOL    HW289401   8.509   7.574   9.720
29188SOL     OW89402   8.587  10.225   4.417
29188SOL    HW189403   8.638  10.227   4.497
29188SOL    HW289404   8.496  10.227   4.446
29189SOL     OW89405   7.442   5.166   8.647
29189SOL    HW189406   7.444   5.193   8.555
29189SOL    HW289407   7.408   5.077   8.646
29190SOL     OW89408  14.287   9.015   4.847
29190SOL    HW189409  14.246   9.095   4.880
29190SOL    HW289410  14.215   8.954   4.837
29191SOL     OW89411  10.317  12.790   2.506
29191SOL    HW189412  10.301  12.773   2.599
29191SOL    HW289413  10.249  12.741   2.461
29192SOL     OW89414  10.892   5.201   3.989
29192SOL    HW189415  10.982   5.195   3.958
29192SOL    HW289416  10.888   5.143   4.065
29193SOL     OW89417   4.109   7.912  14.295
29193SOL    HW189418   4.083   7.891  14.384
29193SOL    HW289419   4.055   7.855  14.240
29194SOL     OW89420   9.422   4.900   2.129
29194SOL    HW189421   9.368   4.951   2.069
29194SOL    HW289422   9.360   4.866   2.194
29195SOL     OW89423   4.324  14.630  11.720
29195SOL    HW189424   4.298  14.721  11.709
29195SOL    HW289425   4.420  14.631  11.716
29196SOL     OW89426   6.845  10.379   3.112
29196SOL    HW189427   6.924  10.416   3.151
29196SOL    HW289428   6.831  10.431   3.033
29197SOL     OW89429  12.277   3.960   4.066
29197SOL    HW189430  12.296   3.956   4.159
29197SOL    HW289431  12.333   3.893   4.027
29198SOL     OW89432   2.960   3.748   9.995
29198SOL    HW189433   2.971   3.830  10.044
29198SOL    HW289434   2.891   3.701  10.043
29199SOL     OW89435  14.153  10.422  11.372
29199SOL    HW189436  14.196  10.349  11.327
29199SOL    HW289437  14.068  10.430  11.328
29200SOL     OW89438   4.892   6.836   2.840
29200SOL    HW189439   4.814   6.800   2.798
29200SOL    HW289440   4.871   6.836   2.934
29201SOL     OW89441  13.113   5.755   5.414
29201SOL    HW189442  13.117   5.751   5.318
29201SOL    HW289443  13.126   5.664   5.442
29202SOL     OW89444   2.268   3.282   5.428
29202SOL    HW189445   2.268   3.215   5.496
29202SOL    HW289446   2.179   3.280   5.393
29203SOL     OW89447  14.117  14.461  13.643
29203SOL    HW189448  14.151  14.388  13.696
29203SOL    HW289449  14.160  14.539  13.680
29204SOL     OW89450   9.691  13.077   1.930
29204SOL    HW189451   9.646  13.144   1.880
29204SOL    HW289452   9.677  13.101   2.021
29205SOL     OW89453   8.270   5.557  13.793
29205SOL    HW189454   8.344   5.505  13.824
29205SOL    HW289455   8.193   5.514  13.832
29206SOL     OW89456   4.837   9.507   6.502
29206SOL    HW189457   4.825   9.560   6.423
29206SOL    HW289458   4.920   9.461   6.488
29207SOL     OW89459   1.685  10.343  12.360
29207SOL    HW189460   1.677  10.329  12.266
29207SOL    HW289461   1.725  10.263  12.393
29208SOL     OW89462   6.196   5.005   7.824
29208SOL    HW189463   6.287   4.976   7.832
29208SOL    HW289464   6.148   4.926   7.801
29209SOL     OW89465   1.403  12.515   8.824
29209SOL    HW189466   1.376  12.463   8.900
29209SOL    HW289467   1.337  12.497   8.758
29210SOL     OW89468   5.110   9.673  13.705
29210SOL    HW189469   5.164   9.723  13.765
29210SOL    HW289470   5.021   9.706  13.718
29211SOL     OW89471   6.432   4.831   8.752
29211SOL    HW189472   6.356   4.785   8.785
29211SOL    HW289473   6.491   4.838   8.827
29212SOL     OW89474  14.415   5.071   9.694
29212SOL    HW189475  14.476   5.081   9.621
29212SOL    HW289476  14.442   5.138   9.757
29213SOL     OW89477   9.510   3.327   2.751
29213SOL    HW189478   9.491   3.368   2.666
29213SOL    HW289479   9.580   3.265   2.731
29214SOL     OW89480   4.671  10.105   2.399
29214SOL    HW189481   4.731  10.031   2.393
29214SOL    HW289482   4.671  10.129   2.492
29215SOL     OW89483   9.397   5.211  12.180
29215SOL    HW189484   9.447   5.158  12.242
29215SOL    HW289485   9.463   5.262  12.133
29216SOL     OW89486   0.791   8.763  10.460
29216SOL    HW189487   0.770   8.739  10.551
29216SOL    HW289488   0.736   8.705  10.407
29217SOL     OW89489   0.320   1.873  12.223
29217SOL    HW189490   0.412   1.869  12.248
29217SOL    HW289491   0.278   1.805  12.275
29218SOL     OW89492   5.614   4.184   8.092
29218SOL    HW189493   5.522   4.199   8.112
29218SOL    HW289494   5.655   4.174   8.178
29219SOL     OW89495  11.298   6.129   9.445
29219SOL    HW189496  11.282   6.036   9.429
29219SOL    HW289497  11.392   6.140   9.430
29220SOL     OW89498   9.652   5.742   9.388
29220SOL    HW189499   9.744   5.746   9.363
29220SOL    HW289500   9.614   5.675   9.331
29221SOL     OW89501   8.300  14.042   5.403
29221SOL    HW189502   8.331  13.960   5.442
29221SOL    HW289503   8.206  14.045   5.423
29222SOL     OW89504   1.677  13.334  13.994
29222SOL    HW189505   1.664  13.244  13.963
29222SOL    HW289506   1.767  13.355  13.969
29223SOL     OW89507   7.758   5.600  11.601
29223SOL    HW189508   7.718   5.524  11.644
29223SOL    HW289509   7.718   5.601  11.514
29224SOL     OW89510   8.002   7.028   1.594
29224SOL    HW189511   7.946   6.951   1.595
29224SOL    HW289512   7.956   7.090   1.538
29225SOL     OW89513   5.926   7.129  11.591
29225SOL    HW189514   5.978   7.131  11.511
29225SOL    HW289515   5.842   7.092  11.564
29226SOL     OW89516  13.807   4.228   2.996
29226SOL    HW189517  13.883   4.194   2.949
29226SOL    HW289518  13.794   4.167   3.069
29227SOL     OW89519  13.630   2.481   5.960
29227SOL    HW189520  13.587   2.489   5.875
29227SOL    HW289521  13.567   2.433   6.014
29228SOL     OW89522   7.108   0.817   3.410
29228SOL    HW189523   7.137   0.755   3.478
29228SOL    HW289524   7.183   0.874   3.397
29229SOL     OW89525   7.841   0.660  10.439
29229SOL    HW189526   7.758   0.617  10.422
29229SOL    HW289527   7.854   0.652  10.534
29230SOL     OW89528  12.046   0.913  12.547
29230SOL    HW189529  12.084   0.846  12.490
29230SOL    HW289530  12.089   0.994  12.521
29231SOL     OW89531   4.296  10.759   5.293
29231SOL    HW189532   4.326  10.681   5.246
29231SOL    HW289533   4.232  10.800   5.234
29232SOL     OW89534  11.817   1.807   6.146
29232SOL    HW189535  11.724   1.828   6.147
29232SOL    HW289536  11.860   1.884   6.184
29233SOL     OW89537  11.614   0.302   3.645
29233SOL    HW189538  11.613   0.365   3.717
29233SOL    HW289539  11.694   0.252   3.657
29234SOL     OW89540  11.534   4.131   7.109
29234SOL    HW189541  11.622   4.162   7.131
29234SOL    HW289542  11.549   4.051   7.058
29235SOL     OW89543   2.863  14.579   7.936
29235SOL    HW189544   2.859  14.489   7.968
29235SOL    HW289545   2.879  14.632   8.015
29236SOL     OW89546  10.916  14.084  14.442
29236SOL    HW189547  10.973  14.008  14.451
29236SOL    HW289548  10.876  14.094  14.529
29237SOL     OW89549   5.201  11.693   9.173
29237SOL    HW189550   5.206  11.709   9.268
29237SOL    HW289551   5.208  11.598   9.164
29238SOL     OW89552  11.662  12.377   1.225
29238SOL    HW189553  11.723  12.306   1.243
29238SOL    HW289554  11.576  12.334   1.218
29239SOL     OW89555   9.644   4.573  10.532
29239SOL    HW189556   9.604   4.601  10.450
29239SOL    HW289557   9.706   4.643  10.554
29240SOL     OW89558  14.745   9.434  14.657
29240SOL    HW189559  14.738   9.427  14.562
29240SOL    HW289560  14.656   9.455  14.686
29241SOL     OW89561   5.592   3.210  11.905
29241SOL    HW189562   5.631   3.236  11.821
29241SOL    HW289563   5.538   3.285  11.930
29242SOL     OW89564  12.341   9.895   1.128
29242SOL    HW189565  12.421   9.905   1.179
29242SOL    HW289566  12.354   9.815   1.077
29243SOL     OW89567   0.833   2.077   5.837
29243SOL    HW189568   0.868   2.155   5.878
29243SOL    HW289569   0.754   2.056   5.887
29244SOL     OW89570  12.831   3.059   1.961
29244SOL    HW189571  12.898   3.117   1.925
29244SOL    HW289572  12.748   3.098   1.932
29245SOL     OW89573   0.133  10.920  13.164
29245SOL    HW189574   0.185  10.841  13.176
29245SOL    HW289575   0.111  10.947  13.254
29246SOL     OW89576  14.794   9.928  12.075
29246SOL    HW189577  14.853   9.884  12.137
29246SOL    HW289578  14.851   9.961  12.006
29247SOL     OW89579   0.848  10.597   7.175
29247SOL    HW189580   0.873  10.689   7.176
29247SOL    HW289581   0.818  10.581   7.085
29248SOL     OW89582   2.886  10.572  10.132
29248SOL    HW189583   2.875  10.646  10.072
29248SOL    HW289584   2.827  10.591  10.205
29249SOL     OW89585   6.032   0.116  10.553
29249SOL    HW189586   6.095   0.102  10.482
29249SOL    HW289587   5.947   0.097  10.513
29250SOL     OW89588  13.183   3.944  13.514
29250SOL    HW189589  13.222   3.973  13.597
29250SOL    HW289590  13.235   3.987  13.447
29251SOL     OW89591  12.569   6.653   9.113
29251SOL    HW189592  12.513   6.730   9.117
29251SOL    HW289593  12.528   6.596   9.048
29252SOL     OW89594   8.387   5.435   8.596
29252SOL    HW189595   8.311   5.460   8.544
29252SOL    HW289596   8.360   5.448   8.687
29253SOL     OW89597   6.388  12.537  12.070
29253SOL    HW189598   6.457  12.503  12.126
29253SOL    HW289599   6.324  12.574  12.130
29254SOL     OW89600  13.769   0.983   6.873
29254SOL    HW189601  13.809   0.897   6.868
29254SOL    HW289602  13.694   0.971   6.932
29255SOL     OW89603  11.656   0.720  14.146
29255SOL    HW189604  11.737   0.697  14.100
29255SOL    HW289605  11.651   0.658  14.218
29256SOL     OW89606   7.568  11.070  12.937
29256SOL    HW189607   7.650  11.111  12.963
29256SOL    HW289608   7.517  11.063  13.018
29257SOL     OW89609  10.668   2.325  11.596
29257SOL    HW189610  10.689   2.233  11.579
29257SOL    HW289611  10.604   2.348  11.528
29258SOL     OW89612  14.085   8.693   7.991
29258SOL    HW189613  14.004   8.700   8.041
29258SOL    HW289614  14.073   8.752   7.917
29259SOL     OW89615   4.803   4.520   0.884
29259SOL    HW189616   4.792   4.445   0.943
29259SOL    HW289617   4.756   4.494   0.804
29260SOL     OW89618   9.625   1.455   8.122
29260SOL    HW189619   9.692   1.411   8.071
29260SOL    HW289620   9.669   1.533   8.157
29261SOL     OW89621   0.180   8.529   8.011
29261SOL    HW189622   0.109   8.563   7.958
29261SOL    HW289623   0.258   8.539   7.957
29262SOL     OW89624   8.697   8.294   6.634
29262SOL    HW189625   8.671   8.204   6.655
29262SOL    HW289626   8.733   8.328   6.716
29263SOL     OW89627  10.305   0.776   1.691
29263SOL    HW189628  10.230   0.801   1.745
29263SOL    HW289629  10.351   0.858   1.675
29264SOL     OW89630  12.369   3.547   9.773
29264SOL    HW189631  12.403   3.475   9.720
29264SOL    HW289632  12.448   3.593   9.804
29265SOL     OW89633  11.519   8.608   8.216
29265SOL    HW189634  11.520   8.692   8.169
29265SOL    HW289635  11.543   8.543   8.150
29266SOL     OW89636  14.349   2.199  10.923
29266SOL    HW189637  14.256   2.189  10.902
29266SOL    HW289638  14.349   2.257  11.000
29267SOL     OW89639  10.059  12.048  11.307
29267SOL    HW189640   9.987  12.008  11.258
29267SOL    HW289641  10.123  11.978  11.318
29268SOL     OW89642  14.703   9.145   8.062
29268SOL    HW189643  14.781   9.176   8.107
29268SOL    HW289644  14.662   9.084   8.124
29269SOL     OW89645   8.081   3.142  10.089
29269SOL    HW189646   8.064   3.141   9.995
29269SOL    HW289647   8.172   3.115  10.097
29270SOL     OW89648   8.786  12.285  10.096
29270SOL    HW189649   8.818  12.285  10.005
29270SOL    HW289650   8.691  12.290  10.087
29271SOL     OW89651   2.643   2.634   7.272
29271SOL    HW189652   2.610   2.714   7.232
29271SOL    HW289653   2.593   2.564   7.229
29272SOL     OW89654   6.777   1.982  11.093
29272SOL    HW189655   6.832   1.984  11.172
29272SOL    HW289656   6.833   2.014  11.023
29273SOL     OW89657   9.737   6.286   9.832
29273SOL    HW189658   9.695   6.205   9.860
29273SOL    HW289659   9.753   6.274   9.739
29274SOL     OW89660  11.452   1.828   9.684
29274SOL    HW189661  11.534   1.780   9.698
29274SOL    HW289662  11.390   1.789   9.745
29275SOL     OW89663  10.814   2.172   6.870
29275SOL    HW189664  10.821   2.232   6.943
29275SOL    HW289665  10.765   2.220   6.803
29276SOL     OW89666   4.538   6.490  13.629
29276SOL    HW189667   4.511   6.411  13.676
29276SOL    HW289668   4.489   6.561  13.671
29277SOL     OW89669   9.976   8.739   9.986
29277SOL    HW189670  10.033   8.816   9.989
29277SOL    HW289671  10.022   8.674  10.039
29278SOL     OW89672  10.277   9.178  14.023
29278SOL    HW189673  10.225   9.098  14.016
29278SOL    HW289674  10.220   9.246  13.984
29279SOL     OW89675   5.566   3.633   1.177
29279SOL    HW189676   5.514   3.592   1.108
29279SOL    HW289677   5.572   3.567   1.245
29280SOL     OW89678   8.537  11.983  13.035
29280SOL    HW189679   8.474  11.988  12.963
29280SOL    HW289680   8.623  11.977  12.992
29281SOL     OW89681   7.255   4.739   7.294
29281SOL    HW189682   7.221   4.659   7.254
29281SOL    HW289683   7.303   4.710   7.371
29282SOL     OW89684  13.651   8.953  14.242
29282SOL    HW189685  13.711   9.017  14.282
29282SOL    HW289686  13.598   9.005  14.182
29283SOL     OW89687   5.517  12.672   6.255
29283SOL    HW189688   5.510  12.626   6.338
29283SOL    HW289689   5.609  12.664   6.230
29284SOL     OW89690   8.490   9.104  12.406
29284SOL    HW189691   8.412   9.110  12.461
29284SOL    HW289692   8.484   9.180  12.348
29285SOL     OW89693  14.055  13.256   8.931
29285SOL    HW189694  13.984  13.198   8.903
29285SOL    HW289695  14.115  13.259   8.857
29286SOL     OW89696   2.781   4.354  13.993
29286SOL    HW189697   2.761   4.288  13.926
29286SOL    HW289698   2.759   4.437  13.951
29287SOL     OW89699   9.568   5.747   8.693
29287SOL    HW189700   9.481   5.777   8.664
29287SOL    HW289701   9.551   5.662   8.734
29288SOL     OW89702   9.739   7.060   7.249
29288SOL    HW189703   9.664   7.010   7.217
29288SOL    HW289704   9.709   7.151   7.249
29289SOL     OW89705   3.509  10.865  11.427
29289SOL    HW189706   3.531  10.858  11.520
29289SOL    HW289707   3.538  10.953  11.402
29290SOL     OW89708  13.898   2.994  14.376
29290SOL    HW189709  13.865   2.962  14.292
29290SOL    HW289710  13.914   3.087  14.362
29291SOL     OW89711   6.515  12.030   6.906
29291SOL    HW189712   6.591  12.048   6.850
29291SOL    HW289713   6.535  11.946   6.947
29292SOL     OW89714   3.165   1.252  14.361
29292SOL    HW189715   3.250   1.224  14.327
29292SOL    HW289716   3.158   1.210  14.447
29293SOL     OW89717   3.552   3.457   9.362
29293SOL    HW189718   3.518   3.521   9.299
29293SOL    HW289719   3.510   3.481   9.445
29294SOL     OW89720   3.394   4.506   3.410
29294SOL    HW189721   3.486   4.500   3.385
29294SOL    HW289722   3.346   4.499   3.328
29295SOL     OW89723   1.489   2.505   1.665
29295SOL    HW189724   1.452   2.418   1.679
29295SOL    HW289725   1.584   2.491   1.669
29296SOL     OW89726   4.654   8.613   7.597
29296SOL    HW189727   4.678   8.702   7.571
29296SOL    HW289728   4.685   8.605   7.687
29297SOL     OW89729   9.648   7.873   1.856
29297SOL    HW189730   9.577   7.814   1.832
29297SOL    HW289731   9.723   7.841   1.806
29298SOL     OW89732   6.343  11.793   3.355
29298SOL    HW189733   6.421  11.741   3.339
29298SOL    HW289734   6.375  11.880   3.378
29299SOL     OW89735  13.153  10.778   8.044
29299SOL    HW189736  13.124  10.764   7.954
29299SOL    HW289737  13.112  10.861   8.070
29300SOL     OW89738   9.179   0.114  12.937
29300SOL    HW189739   9.202   0.122  12.845
29300SOL    HW289740   9.089   0.081  12.937
29301SOL     OW89741   4.505   3.162  14.259
29301SOL    HW189742   4.543   3.075  14.275
29301SOL    HW289743   4.432   3.167  14.320
29302SOL     OW89744   7.688  11.718   2.804
29302SOL    HW189745   7.770  11.679   2.834
29302SOL    HW289746   7.623  11.694   2.870
29303SOL     OW89747   0.573  14.042  13.925
29303SOL    HW189748   0.592  14.020  13.834
29303SOL    HW289749   0.498  13.988  13.947
29304SOL     OW89750   6.598   1.217   4.587
29304SOL    HW189751   6.562   1.260   4.509
29304SOL    HW289752   6.690   1.243   4.589
29305SOL     OW89753  14.295  11.455  11.626
29305SOL    HW189754  14.319  11.364  11.641
29305SOL    HW289755  14.341  11.479  11.545
29306SOL     OW89756  11.749   5.927  13.456
29306SOL    HW189757  11.681   5.953  13.394
29306SOL    HW289758  11.820   5.990  13.440
29307SOL     OW89759   0.678   9.003   7.057
29307SOL    HW189760   0.688   9.096   7.037
29307SOL    HW289761   0.601   8.976   7.006
29308SOL     OW89762   6.202  13.981   2.703
29308SOL    HW189763   6.168  14.041   2.637
29308SOL    HW289764   6.258  14.035   2.759
29309SOL     OW89765  11.096   8.069   3.361
29309SOL    HW189766  11.046   8.112   3.431
29309SOL    HW289767  11.116   7.982   3.397
29310SOL     OW89768   0.898   4.824  14.680
29310SOL    HW189769   0.844   4.886  14.731
29310SOL    HW289770   0.987   4.855  14.693
29311SOL     OW89771  14.431   0.076   0.606
29311SOL    HW189772  14.405   0.050   0.517
29311SOL    HW289773  14.361   0.043   0.662
29312SOL     OW89774   5.474  11.632  12.387
29312SOL    HW189775   5.519  11.685  12.320
29312SOL    HW289776   5.491  11.678  12.469
29313SOL     OW89777   0.304   5.046   6.885
29313SOL    HW189778   0.296   5.064   6.978
29313SOL    HW289779   0.307   4.951   6.879
29314SOL     OW89780   6.899   2.807   5.241
29314SOL    HW189781   6.943   2.725   5.261
29314SOL    HW289782   6.946   2.841   5.165
29315SOL     OW89783  14.111   2.311  12.746
29315SOL    HW189784  14.166   2.389  12.733
29315SOL    HW289785  14.032   2.344  12.789
29316SOL     OW89786   1.952  10.060  10.209
29316SOL    HW189787   2.027  10.067  10.268
29316SOL    HW289788   1.896   9.994  10.249
29317SOL     OW89789   6.592   1.233   6.996
29317SOL    HW189790   6.682   1.249   7.025
29317SOL    HW289791   6.581   1.290   6.920
29318SOL     OW89792  12.597  14.821  11.077
29318SOL    HW189793  12.585   0.025  11.032
29318SOL    HW289794  12.562  14.756  11.016
29319SOL     OW89795   1.588   1.129  10.588
29319SOL    HW189796   1.502   1.122  10.547
29319SOL    HW289797   1.592   1.056  10.650
29320SOL     OW89798   3.541   0.804   9.047
29320SOL    HW189799   3.455   0.821   9.084
29320SOL    HW289800   3.553   0.710   9.057
29321SOL     OW89801  11.096  12.256   9.230
29321SOL    HW189802  11.050  12.337   9.206
29321SOL    HW289803  11.174  12.256   9.175
29322SOL     OW89804  14.199   1.012   4.203
29322SOL    HW189805  14.140   1.087   4.193
29322SOL    HW289806  14.236   0.999   4.116
29323SOL     OW89807   7.240  14.853   4.952
29323SOL    HW189808   7.144  14.852   4.946
29323SOL    HW289809   7.267  14.774   4.905
29324SOL     OW89810   5.497  13.595   1.730
29324SOL    HW189811   5.579  13.629   1.693
29324SOL    HW289812   5.508  13.500   1.728
29325SOL     OW89813   1.850  12.973  12.231
29325SOL    HW189814   1.922  12.943  12.287
29325SOL    HW289815   1.780  12.997  12.291
29326SOL     OW89816  14.028   2.553   9.974
29326SOL    HW189817  14.035   2.627   9.914
29326SOL    HW289818  13.969   2.583  10.043
29327SOL     OW89819   6.088   9.667   3.362
29327SOL    HW189820   6.180   9.660   3.386
29327SOL    HW289821   6.044   9.696   3.442
29328SOL     OW89822   5.213  11.074   4.699
29328SOL    HW189823   5.176  10.986   4.694
29328SOL    HW289824   5.139  11.129   4.725
29329SOL     OW89825  12.158   6.668   6.819
29329SOL    HW189826  12.202   6.583   6.811
29329SOL    HW289827  12.155   6.684   6.913
29330SOL     OW89828   3.413   0.367  10.702
29330SOL    HW189829   3.343   0.355  10.638
29330SOL    HW289830   3.470   0.291  10.689
29331SOL     OW89831   6.704   8.403   6.078
29331SOL    HW189832   6.781   8.347   6.090
29331SOL    HW289833   6.633   8.356   6.123
29332SOL     OW89834   9.847  11.969  14.358
29332SOL    HW189835   9.897  12.046  14.332
29332SOL    HW289836   9.910  11.914  14.405
29333SOL     OW89837  12.380   5.599   7.431
29333SOL    HW189838  12.435   5.677   7.424
29333SOL    HW289839  12.400   5.548   7.353
29334SOL     OW89840   1.699   3.047   7.012
29334SOL    HW189841   1.622   3.047   7.069
29334SOL    HW289842   1.688   3.124   6.957
29335SOL     OW89843   9.985   7.202   2.611
29335SOL    HW189844   9.895   7.181   2.586
29335SOL    HW289845  10.019   7.252   2.536
29336SOL     OW89846   7.669   3.427  11.441
29336SOL    HW189847   7.603   3.381  11.492
29336SOL    HW289848   7.621   3.467  11.369
29337SOL     OW89849   2.304   1.760   5.689
29337SOL    HW189850   2.336   1.813   5.762
29337SOL    HW289851   2.375   1.762   5.625
29338SOL     OW89852   3.978  14.865  10.677
29338SOL    HW189853   3.928  14.853  10.597
29338SOL    HW289854   4.043   0.053  10.655
29339SOL     OW89855   9.927  14.693  10.345
29339SOL    HW189856   9.930  14.602  10.318
29339SOL    HW289857   9.967  14.694  10.432
29340SOL     OW89858   7.793   9.154   6.709
29340SOL    HW189859   7.877   9.117   6.685
29340SOL    HW289860   7.801   9.173   6.803
29341SOL     OW89861  14.828   0.993   3.492
29341SOL    HW189862  14.843   0.945   3.573
29341SOL    HW289863  14.739   1.027   3.500
29342SOL     OW89864  10.231   3.077   9.904
29342SOL    HW189865  10.264   2.988   9.890
29342SOL    HW289866  10.145   3.078   9.861
29343SOL     OW89867   6.912   5.783   9.124
29343SOL    HW189868   6.950   5.742   9.046
29343SOL    HW289869   6.969   5.858   9.142
29344SOL     OW89870   2.193   0.026  10.913
29344SOL    HW189871   2.234   0.108  10.940
29344SOL    HW289872   2.207  14.846  10.986
29345SOL     OW89873   5.192  12.284   7.320
29345SOL    HW189874   5.204  12.374   7.292
29345SOL    HW289875   5.160  12.238   7.242
29346SOL     OW89876  10.376   0.336   5.103
29346SOL    HW189877  10.362   0.241   5.107
29346SOL    HW289878  10.405   0.360   5.190
29347SOL     OW89879   1.784   6.111   1.466
29347SOL    HW189880   1.819   6.046   1.528
29347SOL    HW289881   1.853   6.177   1.460
29348SOL     OW89882  13.221   6.483   9.001
29348SOL    HW189883  13.238   6.400   8.957
29348SOL    HW289884  13.136   6.510   8.968
29349SOL     OW89885   4.789   5.548  12.869
29349SOL    HW189886   4.842   5.494  12.811
29349SOL    HW289887   4.742   5.608  12.811
29350SOL     OW89888  14.186   7.507   0.623
29350SOL    HW189889  14.262   7.474   0.576
29350SOL    HW289890  14.169   7.592   0.584
29351SOL     OW89891   0.599   3.525  11.294
29351SOL    HW189892   0.562   3.571  11.370
29351SOL    HW289893   0.551   3.559  11.219
29352SOL     OW89894   3.039  13.298   5.063
29352SOL    HW189895   3.070  13.388   5.072
29352SOL    HW289896   3.036  13.283   4.969
29353SOL     OW89897   0.224   2.345  11.280
29353SOL    HW189898   0.282   2.276  11.313
29353SOL    HW289899   0.238   2.419  11.338
29354SOL     OW89900   1.032   3.407   0.246
29354SOL    HW189901   1.033   3.322   0.202
29354SOL    HW289902   1.083   3.464   0.188
29355SOL     OW89903   0.690  11.236   7.562
29355SOL    HW189904   0.726  11.244   7.651
29355SOL    HW289905   0.764  11.207   7.510
29356SOL     OW89906   5.141  12.878   1.527
29356SOL    HW189907   5.075  12.861   1.459
29356SOL    HW289908   5.202  12.805   1.518
29357SOL     OW89909  11.769   6.812   5.206
29357SOL    HW189910  11.733   6.742   5.152
29357SOL    HW289911  11.827   6.861   5.147
29358SOL     OW89912   5.172   7.183  12.990
29358SOL    HW189913   5.076   7.184  12.993
29358SOL    HW289914   5.196   7.094  13.015
29359SOL     OW89915   8.808  11.935  10.056
29359SOL    HW189916   8.837  11.876  10.126
29359SOL    HW289917   8.845  12.020  10.080
29360SOL     OW89918  12.148   5.441  11.587
29360SOL    HW189919  12.101   5.379  11.643
29360SOL    HW289920  12.185   5.504  11.649
29361SOL     OW89921  12.648   6.697   6.294
29361SOL    HW189922  12.643   6.701   6.199
29361SOL    HW289923  12.741   6.688   6.314
29362SOL     OW89924   9.591  12.834   4.511
29362SOL    HW189925   9.591  12.741   4.491
29362SOL    HW289926   9.558  12.840   4.601
29363SOL     OW89927   7.056  14.049   0.959
29363SOL    HW189928   7.056  13.954   0.946
29363SOL    HW289929   7.146  14.069   0.986
29364SOL     OW89930   8.918   5.209   1.345
29364SOL    HW189931   8.927   5.240   1.435
29364SOL    HW289932   8.849   5.264   1.307
29365SOL     OW89933   6.288   9.918   1.538
29365SOL    HW189934   6.375   9.949   1.517
29365SOL    HW289935   6.238   9.929   1.457
29366SOL     OW89936   7.582   8.409  13.371
29366SOL    HW189937   7.582   8.486  13.314
29366SOL    HW289938   7.659   8.421  13.426
29367SOL     OW89939  10.194   3.156  10.447
29367SOL    HW189940  10.153   3.215  10.384
29367SOL    HW289941  10.173   3.194  10.533
29368SOL     OW89942  10.191   6.018  10.135
29368SOL    HW189943  10.193   6.069  10.053
29368SOL    HW289944  10.163   6.081  10.201
29369SOL     OW89945   5.249   3.941   3.490
29369SOL    HW189946   5.218   3.996   3.563
29369SOL    HW289947   5.172   3.932   3.434
29370SOL     OW89948   7.721   8.480   4.175
29370SOL    HW189949   7.729   8.542   4.248
29370SOL    HW289950   7.762   8.524   4.101
29371SOL     OW89951   9.234   5.653   8.020
29371SOL    HW189952   9.312   5.709   8.026
29371SOL    HW289953   9.259   5.572   8.065
29372SOL     OW89954  12.794  11.778   3.110
29372SOL    HW189955  12.844  11.847   3.153
29372SOL    HW289956  12.705  11.813   3.103
29373SOL     OW89957   5.027  10.884   1.607
29373SOL    HW189958   5.062  10.873   1.519
29373SOL    HW289959   4.970  10.808   1.621
29374SOL     OW89960   4.881  12.685   3.146
29374SOL    HW189961   4.810  12.698   3.209
29374SOL    HW289962   4.959  12.673   3.199
29375SOL     OW89963   2.000   5.266   7.272
29375SOL    HW189964   2.056   5.293   7.345
29375SOL    HW289965   2.016   5.332   7.204
29376SOL     OW89966   4.017   7.651   0.263
29376SOL    HW189967   4.026   7.569   0.214
29376SOL    HW289968   3.949   7.700   0.215
29377SOL     OW89969   7.305  12.761   4.418
29377SOL    HW189970   7.348  12.846   4.424
29377SOL    HW289971   7.358  12.704   4.475
29378SOL     OW89972  12.907  11.686   4.448
29378SOL    HW189973  12.987  11.633   4.443
29378SOL    HW289974  12.837  11.623   4.460
29379SOL     OW89975   4.149   6.804   7.606
29379SOL    HW189976   4.139   6.722   7.654
29379SOL    HW289977   4.221   6.789   7.545
29380SOL     OW89978   0.995   5.074  12.363
29380SOL    HW189979   1.073   5.019  12.355
29380SOL    HW289980   0.927   5.014  12.395
29381SOL     OW89981   3.621  14.192  10.108
29381SOL    HW189982   3.591  14.193  10.017
29381SOL    HW289983   3.713  14.216  10.102
29382SOL     OW89984  14.804   6.245  12.114
29382SOL    HW189985  14.833   6.286  12.032
29382SOL    HW289986  14.735   6.184  12.087
29383SOL     OW89987   0.510  11.005   6.241
29383SOL    HW189988   0.541  11.094   6.224
29383SOL    HW289989   0.588  10.955   6.264
29384SOL     OW89990  10.015   4.788   1.894
29384SOL    HW189991   9.990   4.696   1.899
29384SOL    HW289992  10.025   4.816   1.985
29385SOL     OW89993   5.613   3.299   3.393
29385SOL    HW189994   5.545   3.364   3.376
29385SOL    HW289995   5.596   3.230   3.329
29386SOL     OW89996   2.814   2.991   7.615
29386SOL    HW189997   2.746   2.925   7.625
29386SOL    HW289998   2.814   3.012   7.521
29387SOL     OW89999  14.578   1.174   7.140
29387SOL    HW190000  14.582   1.268   7.161
29387SOL    HW290001  14.537   1.171   7.053
29388SOL     OW90002   0.648  12.149   0.680
29388SOL    HW190003   0.696  12.219   0.636
29388SOL    HW290004   0.697  12.133   0.760
29389SOL     OW90005  12.525   6.350   5.999
29389SOL    HW190006  12.490   6.262   6.009
29389SOL    HW290007  12.448   6.405   5.983
29390SOL     OW90008   4.241   1.772  12.606
29390SOL    HW190009   4.282   1.690  12.578
29390SOL    HW290010   4.264   1.835  12.537
29391SOL     OW90011   0.546  12.234  13.235
29391SOL    HW190012   0.619  12.205  13.180
29391SOL    HW290013   0.534  12.326  13.212
29392SOL     OW90014  13.305   2.126   9.774
29392SOL    HW190015  13.321   2.055   9.711
29392SOL    HW290016  13.225   2.168   9.743
29393SOL     OW90017   2.184  11.158   9.809
29393SOL    HW190018   2.153  11.159   9.900
29393SOL    HW290019   2.256  11.221   9.807
29394SOL     OW90020   9.616  14.376   7.076
29394SOL    HW190021   9.645  14.462   7.108
29394SOL    HW290022   9.623  14.383   6.981
29395SOL     OW90023  10.370   7.122   7.799
29395SOL    HW190024  10.430   7.056   7.763
29395SOL    HW290025  10.318   7.151   7.724
29396SOL     OW90026  10.737  12.958  14.729
29396SOL    HW190027  10.739  12.892  14.798
29396SOL    HW290028  10.822  13.002  14.736
29397SOL     OW90029   0.115   8.700   0.875
29397SOL    HW190030   0.113   8.614   0.915
29397SOL    HW290031   0.063   8.755   0.934
29398SOL     OW90032  12.691   3.942   7.118
29398SOL    HW190033  12.767   3.968   7.066
29398SOL    HW290034  12.619   3.937   7.055
29399SOL     OW90035   5.830  13.407   9.905
29399SOL    HW190036   5.896  13.380   9.969
29399SOL    HW290037   5.747  13.375   9.941
29400SOL     OW90038   2.087  10.900  11.062
29400SOL    HW190039   2.175  10.866  11.046
29400SOL    HW290040   2.040  10.827  11.102
29401SOL     OW90041   9.036  14.451   9.539
29401SOL    HW190042   9.116  14.420   9.581
29401SOL    HW290043   9.060  14.462   9.447
29402SOL     OW90044  10.266   1.755   4.870
29402SOL    HW190045  10.306   1.839   4.847
29402SOL    HW290046  10.173   1.775   4.881
29403SOL     OW90047  13.939   1.534   5.359
29403SOL    HW190048  13.896   1.611   5.395
29403SOL    HW290049  13.959   1.558   5.269
29404SOL     OW90050  11.826   5.274  11.986
29404SOL    HW190051  11.751   5.214  11.988
29404SOL    HW290052  11.789   5.358  12.013
29405SOL     OW90053  14.576   7.729   5.080
29405SOL    HW190054  14.528   7.655   5.042
29405SOL    HW290055  14.639   7.753   5.012
29406SOL     OW90056   3.634  11.750   6.813
29406SOL    HW190057   3.607  11.747   6.905
29406SOL    HW290058   3.694  11.675   6.803
29407SOL     OW90059   8.264   7.649   3.543
29407SOL    HW190060   8.321   7.673   3.616
29407SOL    HW290061   8.317   7.590   3.490
29408SOL     OW90062   5.793   4.364   4.824
29408SOL    HW190063   5.786   4.308   4.901
29408SOL    HW290064   5.778   4.306   4.750
29409SOL     OW90065   9.321  13.831  10.201
29409SOL    HW190066   9.248  13.848  10.261
29409SOL    HW290067   9.360  13.750  10.233
29410SOL     OW90068   9.008   6.287  13.841
29410SOL    HW190069   9.071   6.221  13.811
29410SOL    HW290070   8.940   6.287  13.774
29411SOL     OW90071   7.113   3.146   9.081
29411SOL    HW190072   7.126   3.066   9.133
29411SOL    HW290073   7.200   3.169   9.051
29412SOL     OW90074  10.284  12.485   5.137
29412SOL    HW190075  10.211  12.537   5.104
29412SOL    HW290076  10.345  12.479   5.063
29413SOL     OW90077  14.839   9.738   9.929
29413SOL    HW190078  14.833   9.794   9.851
29413SOL    HW290079   0.016   9.786   9.989
29414SOL     OW90080  10.130   8.074   1.704
29414SOL    HW190081  10.162   8.164   1.717
29414SOL    HW290082  10.047   8.071   1.751
29415SOL     OW90083   1.628  11.225   6.241
29415SOL    HW190084   1.626  11.132   6.220
29415SOL    HW290085   1.623  11.228   6.337
29416SOL     OW90086   5.642   9.574   3.597
29416SOL    HW190087   5.611   9.517   3.527
29416SOL    HW290088   5.583   9.558   3.671
29417SOL     OW90089  10.607  13.480   3.598
29417SOL    HW190090  10.568  13.417   3.658
29417SOL    HW290091  10.696  13.447   3.584
29418SOL     OW90092  12.835  10.299  12.484
29418SOL    HW190093  12.921  10.290  12.524
29418SOL    HW290094  12.837  10.384  12.441
29419SOL     OW90095  14.705  13.613   5.151
29419SOL    HW190096  14.690  13.646   5.240
29419SOL    HW290097  14.772  13.546   5.161
29420SOL     OW90098   4.780   6.109   9.731
29420SOL    HW190099   4.729   6.189   9.718
29420SOL    HW290100   4.717   6.038   9.717
29421SOL     OW90101  12.489  12.408   2.702
29421SOL    HW190102  12.415  12.422   2.643
29421SOL    HW290103  12.549  12.352   2.652
29422SOL     OW90104  13.217  14.105   3.820
29422SOL    HW190105  13.198  14.089   3.728
29422SOL    HW290106  13.230  14.018   3.858
29423SOL     OW90107   1.590  10.534  12.119
29423SOL    HW190108   1.575  10.532  12.024
29423SOL    HW290109   1.682  10.508  12.129
29424SOL     OW90110  10.974  14.492   4.075
29424SOL    HW190111  11.037  14.452   4.015
29424SOL    HW290112  10.929  14.557   4.022
29425SOL     OW90113   6.616   4.100   9.727
29425SOL    HW190114   6.586   4.124   9.640
29425SOL    HW290115   6.540   4.115   9.784
29426SOL     OW90116   4.991   9.949   9.917
29426SOL    HW190117   5.037   9.969   9.836
29426SOL    HW290118   5.043   9.992   9.985
29427SOL     OW90119  12.384   2.056   5.139
29427SOL    HW190120  12.444   2.129   5.122
29427SOL    HW290121  12.438   1.978   5.128
29428SOL     OW90122   9.345  10.595  12.086
29428SOL    HW190123   9.281  10.570  12.020
29428SOL    HW290124   9.425  10.613  12.036
29429SOL     OW90125   8.659   5.710  11.545
29429SOL    HW190126   8.654   5.785  11.605
29429SOL    HW290127   8.688   5.748  11.462
29430SOL     OW90128  11.889  14.166   0.231
29430SOL    HW190129  11.907  14.253   0.195
29430SOL    HW290130  11.950  14.158   0.304
29431SOL     OW90131   2.045  10.402   6.870
29431SOL    HW190132   2.077  10.338   6.807
29431SOL    HW290133   1.960  10.369   6.897
29432SOL     OW90134  10.944   1.415  11.381
29432SOL    HW190135  11.020   1.401  11.325
29432SOL    HW290136  10.980   1.446  11.464
29433SOL     OW90137   8.137   2.800   5.430
29433SOL    HW190138   8.094   2.751   5.500
29433SOL    HW290139   8.146   2.889   5.465
29434SOL     OW90140   4.195   1.761   5.449
29434SOL    HW190141   4.194   1.771   5.354
29434SOL    HW290142   4.255   1.687   5.465
29435SOL     OW90143  12.785  11.407   9.882
29435SOL    HW190144  12.785  11.339   9.814
29435SOL    HW290145  12.692  11.425   9.897
29436SOL     OW90146   7.073  14.785  12.397
29436SOL    HW190147   7.133  14.810  12.326
29436SOL    HW290148   7.026  14.708  12.362
29437SOL     OW90149   7.791  13.945   5.320
29437SOL    HW190150   7.822  14.015   5.377
29437SOL    HW290151   7.733  13.893   5.376
29438SOL     OW90152   3.339  12.254  10.962
29438SOL    HW190153   3.269  12.265  11.027
29438SOL    HW290154   3.369  12.164  10.973
29439SOL     OW90155  10.278   4.731  11.720
29439SOL    HW190156  10.268   4.809  11.775
29439SOL    HW290157  10.284   4.658  11.783
29440SOL     OW90158   8.878  12.130   3.670
29440SOL    HW190159   8.952  12.130   3.609
29440SOL    HW290160   8.911  12.177   3.747
29441SOL     OW90161   6.281  11.126   2.683
29441SOL    HW190162   6.216  11.118   2.753
29441SOL    HW290163   6.230  11.144   2.605
29442SOL     OW90164   5.764  10.000   1.700
29442SOL    HW190165   5.701   9.976   1.769
29442SOL    HW290166   5.848  10.005   1.746
29443SOL     OW90167  13.642   7.160   1.714
29443SOL    HW190168  13.578   7.151   1.644
29443SOL    HW290169  13.704   7.088   1.700
29444SOL     OW90170  12.201   3.552  14.686
29444SOL    HW190171  12.166   3.531  14.773
29444SOL    HW290172  12.148   3.498  14.626
29445SOL     OW90173   8.524   8.080  12.480
29445SOL    HW190174   8.532   8.095  12.574
29445SOL    HW290175   8.451   8.136  12.453
29446SOL     OW90176   4.187  14.723  11.350
29446SOL    HW190177   4.118  14.682  11.298
29446SOL    HW290178   4.242  14.650  11.378
29447SOL     OW90179  13.524  10.125  12.093
29447SOL    HW190180  13.528  10.030  12.092
29447SOL    HW290181  13.614  10.153  12.072
29448SOL     OW90182  11.358   6.564   5.201
29448SOL    HW190183  11.287   6.617   5.237
29448SOL    HW290184  11.418   6.627   5.161
29449SOL     OW90185  14.349  10.301   5.623
29449SOL    HW190186  14.330  10.219   5.668
29449SOL    HW290187  14.442  10.295   5.600
29450SOL     OW90188   4.006  13.906   7.281
29450SOL    HW190189   3.981  13.919   7.373
29450SOL    HW290190   3.983  13.814   7.264
29451SOL     OW90191   5.195   9.038   8.394
29451SOL    HW190192   5.236   8.979   8.458
29451SOL    HW290193   5.221   9.126   8.421
29452SOL     OW90194   9.395  12.528   5.095
29452SOL    HW190195   9.477  12.577   5.099
29452SOL    HW290196   9.335  12.577   5.151
29453SOL     OW90197   1.215  12.628   0.693
29453SOL    HW190198   1.198  12.708   0.643
29453SOL    HW290199   1.309  12.613   0.682
29454SOL     OW90200   9.733   7.933  10.783
29454SOL    HW190201   9.800   7.873  10.750
29454SOL    HW290202   9.777   7.982  10.853
29455SOL     OW90203   8.460  11.153   6.090
29455SOL    HW190204   8.374  11.112   6.101
29455SOL    HW290205   8.486  11.179   6.178
29456SOL     OW90206   9.749  14.091   1.426
29456SOL    HW190207   9.791  14.107   1.511
29456SOL    HW290208   9.779  14.003   1.401
29457SOL     OW90209  14.185   7.051   4.358
29457SOL    HW190210  14.260   7.046   4.417
29457SOL    HW290211  14.155   6.961   4.348
29458SOL     OW90212   0.730   0.218   9.153
29458SOL    HW190213   0.746   0.128   9.127
29458SOL    HW290214   0.635   0.228   9.149
29459SOL     OW90215   9.846   7.720  10.189
29459SOL    HW190216   9.928   7.673  10.174
29459SOL    HW290217   9.872   7.811  10.203
29460SOL     OW90218   8.074  11.392   3.534
29460SOL    HW190219   8.113  11.479   3.536
29460SOL    HW290220   8.108  11.352   3.453
29461SOL     OW90221   4.362   8.761   7.702
29461SOL    HW190222   4.376   8.669   7.677
29461SOL    HW290223   4.400   8.768   7.789
29462SOL     OW90224   2.404  11.756   3.709
29462SOL    HW190225   2.379  11.743   3.801
29462SOL    HW290226   2.363  11.839   3.685
29463SOL     OW90227  12.801   6.466  12.473
29463SOL    HW190228  12.815   6.494  12.564
29463SOL    HW290229  12.817   6.372  12.475
29464SOL     OW90230   4.955   8.846  13.469
29464SOL    HW190231   5.013   8.920  13.454
29464SOL    HW290232   4.868   8.884  13.473
29465SOL     OW90233   1.722  12.050   5.528
29465SOL    HW190234   1.630  12.044   5.555
29465SOL    HW290235   1.718  12.071   5.435
29466SOL     OW90236   5.749   8.691   0.657
29466SOL    HW190237   5.806   8.635   0.709
29466SOL    HW290238   5.699   8.630   0.603
29467SOL     OW90239   5.415  12.545   7.416
29467SOL    HW190240   5.430  12.633   7.381
29467SOL    HW290241   5.502  12.516   7.445
29468SOL     OW90242  14.502  11.148   2.139
29468SOL    HW190243  14.598  11.142   2.131
29468SOL    HW290244  14.471  11.062   2.111
29469SOL     OW90245   8.005  11.211  13.823
29469SOL    HW190246   8.093  11.180  13.842
29469SOL    HW290247   8.012  11.252  13.737
29470SOL     OW90248   6.449   8.904  13.740
29470SOL    HW190249   6.485   8.827  13.695
29470SOL    HW290250   6.370   8.926  13.691
29471SOL     OW90251  13.992   1.530   8.525
29471SOL    HW190252  13.953   1.444   8.507
29471SOL    HW290253  14.016   1.563   8.439
29472SOL     OW90254  14.355   4.874   4.798
29472SOL    HW190255  14.445   4.844   4.811
29472SOL    HW290256  14.362   4.949   4.739
29473SOL     OW90257  13.652   2.611   8.810
29473SOL    HW190258  13.722   2.625   8.747
29473SOL    HW290259  13.653   2.517   8.828
29474SOL     OW90260   7.597  10.572  12.540
29474SOL    HW190261   7.530  10.570  12.472
29474SOL    HW290262   7.676  10.604  12.495
29475SOL     OW90263   1.043  10.625  14.043
29475SOL    HW190264   1.024  10.716  14.021
29475SOL    HW290265   1.120  10.603  13.990
29476SOL     OW90266   2.909   4.297   3.194
29476SOL    HW190267   2.935   4.213   3.155
29476SOL    HW290268   2.818   4.309   3.168
29477SOL     OW90269   5.085   0.540  14.292
29477SOL    HW190270   5.098   0.578  14.379
29477SOL    HW290271   4.990   0.531  14.284
29478SOL     OW90272   2.793  11.978   7.761
29478SOL    HW190273   2.709  11.951   7.798
29478SOL    HW290274   2.770  12.032   7.686
29479SOL     OW90275  11.538   0.482   8.026
29479SOL    HW190276  11.600   0.461   7.955
29479SOL    HW290277  11.454   0.449   7.994
29480SOL     OW90278   2.470   8.762   4.944
29480SOL    HW190279   2.490   8.723   5.029
29480SOL    HW290280   2.548   8.813   4.923
29481SOL     OW90281   1.768   9.452   5.268
29481SOL    HW190282   1.816   9.409   5.339
29481SOL    HW290283   1.823   9.437   5.190
29482SOL     OW90284   8.479  13.159   0.850
29482SOL    HW190285   8.549  13.154   0.785
29482SOL    HW290286   8.405  13.196   0.803
29483SOL     OW90287   8.443   4.092   9.092
29483SOL    HW190288   8.492   4.068   9.171
29483SOL    HW290289   8.352   4.101   9.121
29484SOL     OW90290   2.695  11.434  10.657
29484SOL    HW190291   2.638  11.383  10.601
29484SOL    HW290292   2.675  11.405  10.746
29485SOL     OW90293  11.803  10.073   6.866
29485SOL    HW190294  11.842  10.004   6.813
29485SOL    HW290295  11.826  10.154   6.821
29486SOL     OW90296   0.450   0.493  13.431
29486SOL    HW190297   0.453   0.504  13.526
29486SOL    HW290298   0.374   0.545  13.404
29487SOL     OW90299   8.383   8.649   8.888
29487SOL    HW190300   8.475   8.650   8.862
29487SOL    HW290301   8.337   8.695   8.818
29488SOL     OW90302   0.110   4.236   3.774
29488SOL    HW190303   0.074   4.253   3.687
29488SOL    HW290304   0.166   4.160   3.761
29489SOL     OW90305   8.602   5.524  10.621
29489SOL    HW190306   8.518   5.534  10.576
29489SOL    HW290307   8.665   5.506  10.551
29490SOL     OW90308   9.128  14.741   4.734
29490SOL    HW190309   9.055  14.797   4.761
29490SOL    HW290310   9.119  14.663   4.789
29491SOL     OW90311   8.978   3.828  11.701
29491SOL    HW190312   9.037   3.771  11.652
29491SOL    HW290313   9.027   3.910  11.711
29492SOL     OW90314   1.242   1.097   8.396
29492SOL    HW190315   1.256   1.153   8.319
29492SOL    HW290316   1.191   1.023   8.363
29493SOL     OW90317   3.003  10.635  11.298
29493SOL    HW190318   3.090  10.598  11.303
29493SOL    HW290319   3.000  10.701  11.367
29494SOL     OW90320  11.754   7.315   0.494
29494SOL    HW190321  11.699   7.359   0.428
29494SOL    HW290322  11.759   7.224   0.464
29495SOL     OW90323  12.181   9.165   0.957
29495SOL    HW190324  12.188   9.258   0.938
29495SOL    HW290325  12.132   9.130   0.882
29496SOL     OW90326   3.692   4.095   0.650
29496SOL    HW190327   3.773   4.145   0.657
29496SOL    HW290328   3.711   4.010   0.691
29497SOL     OW90329   5.322   5.619  14.781
29497SOL    HW190330   5.290   5.532  14.755
29497SOL    HW290331   5.264   5.680  14.737
29498SOL     OW90332  14.263   7.529   6.840
29498SOL    HW190333  14.231   7.482   6.762
29498SOL    HW290334  14.184   7.553   6.888
29499SOL     OW90335   5.827   9.896   6.896
29499SOL    HW190336   5.751   9.889   6.838
29499SOL    HW290337   5.852   9.805   6.914
29500SOL     OW90338  10.789   0.257   8.879
29500SOL    HW190339  10.783   0.293   8.790
29500SOL    HW290340  10.700   0.263   8.913
29501SOL     OW90341   3.251   0.754   0.513
29501SOL    HW190342   3.325   0.776   0.458
29501SOL    HW290343   3.212   0.677   0.472
29502SOL     OW90344  10.358  14.648  14.642
29502SOL    HW190345  10.400  14.568  14.612
29502SOL    HW290346  10.430  14.708  14.660
29503SOL     OW90347   2.106   2.076  14.872
29503SOL    HW190348   2.051   2.000  14.853
29503SOL    HW290349   2.191   2.053  14.834
29504SOL     OW90350   6.127   4.464  10.212
29504SOL    HW190351   6.076   4.446  10.292
29504SOL    HW290352   6.108   4.390  10.155
29505SOL     OW90353   3.545  14.859   2.969
29505SOL    HW190354   3.514  14.811   2.892
29505SOL    HW290355   3.638  14.837   2.976
29506SOL     OW90356   9.866   7.905  14.634
29506SOL    HW190357   9.794   7.938  14.580
29506SOL    HW290358   9.910   7.842  14.578
29507SOL     OW90359  10.755  10.558   3.547
29507SOL    HW190360  10.688  10.626   3.548
29507SOL    HW290361  10.838  10.607   3.547
29508SOL     OW90362   3.350   1.981   1.991
29508SOL    HW190363   3.301   2.012   1.915
29508SOL    HW290364   3.437   2.018   1.981
29509SOL     OW90365   7.553   8.814   3.671
29509SOL    HW190366   7.487   8.825   3.602
29509SOL    HW290367   7.636   8.813   3.624
29510SOL     OW90368   1.053   0.046   7.119
29510SOL    HW190369   1.009  14.848   7.154
29510SOL    HW290370   1.146   0.027   7.129
29511SOL     OW90371   3.245   3.484   9.784
29511SOL    HW190372   3.190   3.502   9.707
29511SOL    HW290373   3.265   3.391   9.777
29512SOL     OW90374   6.141   3.978   3.584
29512SOL    HW190375   6.112   4.031   3.658
29512SOL    HW290376   6.092   4.012   3.509
29513SOL     OW90377   1.420   1.930  14.098
29513SOL    HW190378   1.429   1.945  14.004
29513SOL    HW290379   1.510   1.926  14.130
29514SOL     OW90380  13.374   1.008  12.571
29514SOL    HW190381  13.416   1.040  12.651
29514SOL    HW290382  13.320   1.081  12.541
29515SOL     OW90383   8.046   3.616   4.722
29515SOL    HW190384   8.023   3.705   4.746
29515SOL    HW290385   8.091   3.581   4.799
29516SOL     OW90386   6.463   3.057  11.820
29516SOL    HW190387   6.461   3.006  11.901
29516SOL    HW290388   6.483   2.993  11.752
29517SOL     OW90389   8.044   9.734   6.437
29517SOL    HW190390   7.954   9.699   6.433
29517SOL    HW290391   8.033   9.822   6.474
29518SOL     OW90392   7.803   1.935  14.405
29518SOL    HW190393   7.895   1.962  14.413
29518SOL    HW290394   7.806   1.855  14.352
29519SOL     OW90395   5.383   7.392   4.203
29519SOL    HW190396   5.466   7.347   4.215
29519SOL    HW290397   5.317   7.329   4.231
29520SOL     OW90398   3.065   0.273   6.610
29520SOL    HW190399   3.025   0.350   6.570
29520SOL    HW290400   3.013   0.256   6.689
29521SOL     OW90401   6.261   1.147   1.374
29521SOL    HW190402   6.331   1.117   1.432
29521SOL    HW290403   6.193   1.179   1.433
29522SOL     OW90404  14.188   0.003   4.112
29522SOL    HW190405  14.271   0.041   4.141
29522SOL    HW290406  14.123   0.073   4.127
29523SOL     OW90407   3.285   0.640   1.079
29523SOL    HW190408   3.292   0.610   0.988
29523SOL    HW290409   3.195   0.669   1.088
29524SOL     OW90410   3.299  14.573   7.450
29524SOL    HW190411   3.210  14.553   7.423
29524SOL    HW290412   3.346  14.591   7.368
29525SOL     OW90413   6.404   8.047   6.306
29525SOL    HW190414   6.332   8.068   6.366
29525SOL    HW290415   6.415   7.952   6.315
29526SOL     OW90416   3.050   8.199  10.790
29526SOL    HW190417   3.035   8.287  10.757
29526SOL    HW290418   3.092   8.153  10.717
29527SOL     OW90419   4.264   8.637   8.717
29527SOL    HW190420   4.239   8.686   8.795
29527SOL    HW290421   4.304   8.703   8.660
29528SOL     OW90422   7.969   3.902  14.825
29528SOL    HW190423   7.927   3.985  14.846
29528SOL    HW290424   7.897   3.843  14.802
29529SOL     OW90425   4.717   0.684   4.906
29529SOL    HW190426   4.799   0.731   4.918
29529SOL    HW290427   4.648   0.749   4.922
29530SOL     OW90428   9.842   5.415  11.540
29530SOL    HW190429   9.910   5.369  11.589
29530SOL    HW290430   9.801   5.347  11.486
29531SOL     OW90431   0.113  13.531  12.065
29531SOL    HW190432   0.133  13.562  12.154
29531SOL    HW290433   0.199  13.512  12.026
29532SOL     OW90434   7.204   0.466   8.701
29532SOL    HW190435   7.117   0.428   8.686
29532SOL    HW290436   7.187   0.559   8.717
29533SOL     OW90437   0.456   8.228   4.909
29533SOL    HW190438   0.511   8.165   4.955
29533SOL    HW290439   0.456   8.305   4.966
29534SOL     OW90440   6.920   2.953  14.677
29534SOL    HW190441   6.978   2.972  14.751
29534SOL    HW290442   6.975   2.909  14.613
29535SOL     OW90443   8.389  12.147  10.494
29535SOL    HW190444   8.318  12.154  10.559
29535SOL    HW290445   8.346  12.112  10.416
29536SOL     OW90446   2.318   0.397   7.112
29536SOL    HW190447   2.293   0.478   7.068
29536SOL    HW290448   2.242   0.373   7.165
29537SOL     OW90449   4.894  14.345  11.072
29537SOL    HW190450   4.824  14.309  11.127
29537SOL    HW290451   4.934  14.413  11.127
29538SOL     OW90452   1.615   6.307   2.897
29538SOL    HW190453   1.551   6.280   2.963
29538SOL    HW290454   1.692   6.332   2.947
29539SOL     OW90455   6.327   6.624  12.213
29539SOL    HW190456   6.273   6.545  12.212
29539SOL    HW290457   6.378   6.621  12.133
29540SOL     OW90458   3.491   8.911  12.682
29540SOL    HW190459   3.577   8.953  12.686
29540SOL    HW290460   3.470   8.891  12.773
29541SOL     OW90461  12.835  14.767   5.647
29541SOL    HW190462  12.922  14.799   5.625
29541SOL    HW290463  12.848  14.713   5.725
29542SOL     OW90464   4.635  10.562  10.197
29542SOL    HW190465   4.630  10.657  10.191
29542SOL    HW290466   4.575  10.530  10.129
29543SOL     OW90467   0.857   2.207   6.182
29543SOL    HW190468   0.815   2.121   6.180
29543SOL    HW290469   0.938   2.193   6.232
29544SOL     OW90470   5.862  13.034   7.535
29544SOL    HW190471   5.775  13.066   7.562
29544SOL    HW290472   5.851  13.013   7.442
29545SOL     OW90473  10.855   1.963   9.855
29545SOL    HW190474  10.818   2.034   9.803
29545SOL    HW290475  10.794   1.890   9.842
29546SOL     OW90476   0.850  14.475   4.481
29546SOL    HW190477   0.798  14.555   4.485
29546SOL    HW290478   0.889  14.467   4.568
29547SOL     OW90479  11.651  11.962   4.425
29547SOL    HW190480  11.629  12.000   4.340
29547SOL    HW290481  11.614  11.874   4.422
29548SOL     OW90482  11.423   1.085   3.075
29548SOL    HW190483  11.378   1.169   3.074
29548SOL    HW290484  11.422   1.058   3.167
29549SOL     OW90485   6.302   9.884   2.130
29549SOL    HW190486   6.230   9.925   2.179
29549SOL    HW290487   6.381   9.920   2.169
29550SOL     OW90488  14.520  11.855   1.055
29550SOL    HW190489  14.520  11.946   1.084
29550SOL    HW290490  14.575  11.855   0.976
29551SOL     OW90491   0.556   6.552   9.234
29551SOL    HW190492   0.561   6.458   9.214
29551SOL    HW290493   0.532   6.593   9.151
29552SOL     OW90494   8.255   9.262   3.552
29552SOL    HW190495   8.270   9.203   3.626
29552SOL    HW290496   8.312   9.337   3.569
29553SOL     OW90497   7.580   2.679   8.797
29553SOL    HW190498   7.671   2.699   8.818
29553SOL    HW290499   7.530   2.752   8.834
29554SOL     OW90500  14.238   8.921   8.092
29554SOL    HW190501  14.270   8.831   8.086
29554SOL    HW290502  14.176   8.929   8.020
29555SOL     OW90503   4.794  14.504   6.887
29555SOL    HW190504   4.847  14.460   6.953
29555SOL    HW290505   4.839  14.486   6.804
29556SOL     OW90506   1.718  10.431   5.595
29556SOL    HW190507   1.790  10.390   5.547
29556SOL    HW290508   1.739  10.525   5.595
29557SOL     OW90509   3.529   2.076   6.992
29557SOL    HW190510   3.550   2.167   7.016
29557SOL    HW290511   3.469   2.084   6.918
29558SOL     OW90512   7.818  14.803  13.972
29558SOL    HW190513   7.752  14.872  13.978
29558SOL    HW290514   7.778  14.737  13.915
29559SOL     OW90515   2.676   6.908  14.320
29559SOL    HW190516   2.660   7.000  14.297
29559SOL    HW290517   2.737   6.877  14.253
29560SOL     OW90518   2.113  14.396   6.413
29560SOL    HW190519   2.173  14.448   6.466
29560SOL    HW290520   2.087  14.323   6.469
29561SOL     OW90521   5.393  13.287   4.176
29561SOL    HW190522   5.475  13.253   4.139
29561SOL    HW290523   5.379  13.235   4.255
29562SOL     OW90524   8.267  11.275   6.463
29562SOL    HW190525   8.334  11.281   6.531
29562SOL    HW290526   8.186  11.256   6.511
29563SOL     OW90527  11.801  12.347  13.616
29563SOL    HW190528  11.818  12.437  13.644
29563SOL    HW290529  11.802  12.352  13.520
29564SOL     OW90530  11.760  13.065   2.956
29564SOL    HW190531  11.824  13.100   2.895
29564SOL    HW290532  11.766  12.970   2.946
29565SOL     OW90533  12.405   2.591   9.160
29565SOL    HW190534  12.380   2.531   9.090
29565SOL    HW290535  12.482   2.551   9.200
29566SOL     OW90536  14.207   7.079  14.844
29566SOL    HW190537  14.211   7.073  14.749
29566SOL    HW290538  14.116   7.102  14.864
29567SOL     OW90539  11.458   9.919   5.861
29567SOL    HW190540  11.413   9.837   5.881
29567SOL    HW290541  11.432   9.978   5.932
29568SOL     OW90542   9.362   8.629  10.154
29568SOL    HW190543   9.456   8.618  10.140
29568SOL    HW290544   9.326   8.541  10.148
29569SOL     OW90545  13.145   1.288  10.096
29569SOL    HW190546  13.143   1.371  10.050
29569SOL    HW290547  13.157   1.222  10.027
29570SOL     OW90548   8.411   0.870  11.975
29570SOL    HW190549   8.414   0.782  12.014
29570SOL    HW290550   8.463   0.924  12.033
29571SOL     OW90551   4.461   8.247   8.414
29571SOL    HW190552   4.481   8.319   8.474
29571SOL    HW290553   4.541   8.195   8.411
29572SOL     OW90554   2.874  10.359  13.250
29572SOL    HW190555   2.869  10.455  13.259
29572SOL    HW290556   2.936  10.332  13.318
29573SOL     OW90557   4.636   2.181   0.979
29573SOL    HW190558   4.690   2.205   1.054
29573SOL    HW290559   4.677   2.225   0.905
29574SOL     OW90560   9.441   1.662  14.693
29574SOL    HW190561   9.381   1.613  14.638
29574SOL    HW290562   9.514   1.602  14.708
29575SOL     OW90563  14.591  13.177   9.492
29575SOL    HW190564  14.527  13.167   9.422
29575SOL    HW290565  14.595  13.091   9.534
29576SOL     OW90566   9.947   4.390   5.933
29576SOL    HW190567   9.897   4.334   5.874
29576SOL    HW290568  10.030   4.404   5.888
29577SOL     OW90569  11.435   2.639   8.601
29577SOL    HW190570  11.423   2.659   8.508
29577SOL    HW290571  11.420   2.545   8.607
29578SOL     OW90572  11.526   0.881   3.548
29578SOL    HW190573  11.442   0.838   3.560
29578SOL    HW290574  11.590   0.809   3.548
29579SOL     OW90575   7.192   4.469  12.698
29579SOL    HW190576   7.265   4.502  12.752
29579SOL    HW290577   7.206   4.509  12.613
29580SOL     OW90578  10.847   5.112   8.974
29580SOL    HW190579  10.831   5.046   9.042
29580SOL    HW290580  10.785   5.090   8.905
29581SOL     OW90581   9.347  11.521  12.711
29581SOL    HW190582   9.267  11.527  12.762
29581SOL    HW290583   9.417  11.527  12.776
29582SOL     OW90584  14.571   3.745   6.739
29582SOL    HW190585  14.545   3.782   6.655
29582SOL    HW290586  14.507   3.676   6.756
29583SOL     OW90587  14.202  14.520   1.589
29583SOL    HW190588  14.186  14.530   1.495
29583SOL    HW290589  14.131  14.569   1.631
29584SOL     OW90590   9.897   3.596  11.673
29584SOL    HW190591   9.855   3.625  11.591
29584SOL    HW290592   9.827   3.552  11.721
29585SOL     OW90593   3.683  11.736   7.434
29585SOL    HW190594   3.671  11.786   7.515
29585SOL    HW290595   3.755  11.676   7.453
29586SOL     OW90596   0.718   8.236  13.608
29586SOL    HW190597   0.672   8.206  13.686
29586SOL    HW290598   0.650   8.282  13.557
29587SOL     OW90599   5.054   3.729   8.378
29587SOL    HW190600   5.031   3.819   8.402
29587SOL    HW290601   4.988   3.704   8.313
29588SOL     OW90602  10.267   7.102  13.314
29588SOL    HW190603  10.305   7.189  13.327
29588SOL    HW290604  10.184   7.119  13.269
29589SOL     OW90605   9.845   8.632   6.440
29589SOL    HW190606   9.809   8.720   6.423
29589SOL    HW290607   9.821   8.581   6.362
29590SOL     OW90608  12.905   2.964  11.140
29590SOL    HW190609  12.868   2.984  11.054
29590SOL    HW290610  12.833   2.980  11.201
29591SOL     OW90611  11.910  11.427  10.989
29591SOL    HW190612  11.902  11.331  10.986
29591SOL    HW290613  11.826  11.456  11.025
29592SOL     OW90614   5.184  13.912   4.761
29592SOL    HW190615   5.165  14.003   4.739
29592SOL    HW290616   5.237  13.880   4.688
29593SOL     OW90617   7.856   5.559  12.297
29593SOL    HW190618   7.879   5.650  12.316
29593SOL    HW290619   7.807   5.563  12.214
29594SOL     OW90620   4.763   9.824   8.996
29594SOL    HW190621   4.781   9.884   9.068
29594SOL    HW290622   4.834   9.759   9.000
29595SOL     OW90623   0.533  13.879   1.131
29595SOL    HW190624   0.458  13.905   1.077
29595SOL    HW290625   0.545  13.786   1.111
29596SOL     OW90626  13.523   5.987  12.775
29596SOL    HW190627  13.576   6.036  12.838
29596SOL    HW290628  13.457   6.050  12.746
29597SOL     OW90629   7.829  14.458   0.668
29597SOL    HW190630   7.767  14.386   0.670
29597SOL    HW290631   7.782  14.529   0.623
29598SOL     OW90632   4.731  10.876   6.648
29598SOL    HW190633   4.688  10.960   6.663
29598SOL    HW290634   4.669  10.811   6.682
29599SOL     OW90635   4.214   0.295   5.424
29599SOL    HW190636   4.268   0.254   5.357
29599SOL    HW290637   4.240   0.252   5.505
29600SOL     OW90638  13.549   6.679   2.233
29600SOL    HW190639  13.604   6.744   2.189
29600SOL    HW290640  13.545   6.709   2.324
29601SOL     OW90641   1.275   7.983   5.633
29601SOL    HW190642   1.193   7.934   5.635
29601SOL    HW290643   1.324   7.946   5.560
29602SOL     OW90644   0.912  14.535   7.049
29602SOL    HW190645   0.952  14.450   7.026
29602SOL    HW290646   0.875  14.566   6.966
29603SOL     OW90647   0.604   7.413  10.053
29603SOL    HW190648   0.631   7.439  10.142
29603SOL    HW290649   0.635   7.485   9.997
29604SOL     OW90650   1.061   6.864  10.538
29604SOL    HW190651   1.132   6.858  10.601
29604SOL    HW290652   1.045   6.773  10.511
29605SOL     OW90653   4.530  14.345  10.575
29605SOL    HW190654   4.600  14.409  10.560
29605SOL    HW290655   4.521  14.300  10.491
29606SOL     OW90656  11.230   9.825   3.701
29606SOL    HW190657  11.215   9.917   3.680
29606SOL    HW290658  11.142   9.790   3.718
29607SOL     OW90659   4.742  11.812   1.940
29607SOL    HW190660   4.775  11.845   2.023
29607SOL    HW290661   4.739  11.890   1.883
29608SOL     OW90662   6.612   6.359   9.591
29608SOL    HW190663   6.703   6.336   9.610
29608SOL    HW290664   6.562   6.317   9.662
29609SOL     OW90665   2.058   0.621   5.857
29609SOL    HW190666   2.068   0.580   5.771
29609SOL    HW290667   2.110   0.566   5.916
29610SOL     OW90668  10.063   0.657  13.308
29610SOL    HW190669  10.063   0.610  13.225
29610SOL    HW290670  10.073   0.590  13.375
29611SOL     OW90671  11.170   3.945   6.390
29611SOL    HW190672  11.154   3.903   6.306
29611SOL    HW290673  11.263   3.932   6.406
29612SOL     OW90674   8.820   2.574  10.380
29612SOL    HW190675   8.847   2.497  10.430
29612SOL    HW290676   8.787   2.635  10.446
29613SOL     OW90677   6.128   1.676  14.704
29613SOL    HW190678   6.131   1.583  14.725
29613SOL    HW290679   6.220   1.704  14.707
29614SOL     OW90680   2.291   5.563  11.189
29614SOL    HW190681   2.374   5.526  11.158
29614SOL    HW290682   2.311   5.654  11.209
29615SOL     OW90683  12.395   1.311   8.463
29615SOL    HW190684  12.366   1.393   8.502
29615SOL    HW290685  12.336   1.245   8.499
29616SOL     OW90686  14.350  10.771  14.207
29616SOL    HW190687  14.321  10.862  14.196
29616SOL    HW290688  14.272  10.724  14.236
29617SOL     OW90689   1.049   6.676  13.458
29617SOL    HW190690   1.125   6.733  13.452
29617SOL    HW290691   1.052   6.622  13.378
29618SOL     OW90692   5.435   0.644   1.572
29618SOL    HW190693   5.392   0.695   1.641
29618SOL    HW290694   5.457   0.709   1.505
29619SOL     OW90695  10.683   1.271   5.843
29619SOL    HW190696  10.746   1.318   5.897
29619SOL    HW290697  10.617   1.239   5.904
29620SOL     OW90698   5.858   8.775   5.818
29620SOL    HW190699   5.860   8.692   5.772
29620SOL    HW290700   5.947   8.786   5.852
29621SOL     OW90701   9.150   7.357   8.631
29621SOL    HW190702   9.080   7.318   8.578
29621SOL    HW290703   9.168   7.292   8.699
29622SOL     OW90704  11.099  12.006   3.071
29622SOL    HW190705  11.053  12.018   2.988
29622SOL    HW290706  11.084  12.088   3.119
29623SOL     OW90707   9.644   2.430   1.721
29623SOL    HW190708   9.706   2.440   1.649
29623SOL    HW290709   9.595   2.351   1.699
29624SOL     OW90710  11.765   0.321  12.830
29624SOL    HW190711  11.714   0.332  12.750
29624SOL    HW290712  11.739   0.235  12.864
29625SOL     OW90713  14.263   9.562  14.381
29625SOL    HW190714  14.199   9.515  14.329
29625SOL    HW290715  14.301   9.496  14.439
29626SOL     OW90716   7.827  12.232   1.142
29626SOL    HW190717   7.890  12.166   1.114
29626SOL    HW290718   7.876  12.314   1.144
29627SOL     OW90719   2.530   0.656  12.806
29627SOL    HW190720   2.614   0.627  12.842
29627SOL    HW290721   2.512   0.595  12.735
29628SOL     OW90722  11.047   3.090   2.583
29628SOL    HW190723  11.056   3.182   2.606
29628SOL    HW290724  11.136   3.056   2.583
29629SOL     OW90725  14.506   4.100   6.385
29629SOL    HW190726  14.515   4.193   6.405
29629SOL    HW290727  14.567   4.057   6.445
29630SOL     OW90728   2.373  12.172   6.598
29630SOL    HW190729   2.341  12.191   6.509
29630SOL    HW290730   2.380  12.076   6.601
29631SOL     OW90731   4.382   9.107   6.044
29631SOL    HW190732   4.420   9.103   5.956
29631SOL    HW290733   4.347   9.020   6.059
29632SOL     OW90734   6.726   5.314   1.582
29632SOL    HW190735   6.741   5.373   1.656
29632SOL    HW290736   6.786   5.345   1.514
29633SOL     OW90737   1.707  14.632  13.814
29633SOL    HW190738   1.673  14.552  13.773
29633SOL    HW290739   1.779  14.601  13.868
29634SOL     OW90740   1.999  11.741   4.356
29634SOL    HW190741   1.973  11.816   4.304
29634SOL    HW290742   2.094  11.749   4.366
29635SOL     OW90743  13.324   3.946   5.355
29635SOL    HW190744  13.254   3.897   5.312
29635SOL    HW290745  13.394   3.882   5.367
29636SOL     OW90746   7.688  13.362   4.544
29636SOL    HW190747   7.761  13.315   4.585
29636SOL    HW290748   7.706  13.454   4.559
29637SOL     OW90749   9.677   2.364   9.028
29637SOL    HW190750   9.636   2.296   9.082
29637SOL    HW290751   9.632   2.358   8.944
29638SOL     OW90752   6.830   4.279   9.276
29638SOL    HW190753   6.919   4.315   9.272
29638SOL    HW290754   6.808   4.279   9.369
29639SOL     OW90755   3.281   7.733   9.430
29639SOL    HW190756   3.314   7.770   9.512
29639SOL    HW290757   3.186   7.730   9.442
29640SOL     OW90758   9.509   0.632   4.980
29640SOL    HW190759   9.489   0.564   4.917
29640SOL    HW290760   9.427   0.649   5.026
29641SOL     OW90761  12.159   7.681   1.322
29641SOL    HW190762  12.242   7.701   1.365
29641SOL    HW290763  12.183   7.649   1.235
29642SOL     OW90764   3.799   9.351   2.021
29642SOL    HW190765   3.836   9.338   1.934
29642SOL    HW290766   3.872   9.337   2.081
29643SOL     OW90767   6.254  10.705   0.845
29643SOL    HW190768   6.184  10.677   0.904
29643SOL    HW290769   6.256  10.800   0.855
29644SOL     OW90770   6.622   4.493   4.794
29644SOL    HW190771   6.591   4.418   4.742
29644SOL    HW290772   6.652   4.557   4.729
29645SOL     OW90773  11.018  11.743   8.743
29645SOL    HW190774  10.953  11.722   8.676
29645SOL    HW290775  11.097  11.766   8.692
29646SOL     OW90776  12.851   0.006  11.251
29646SOL    HW190777  12.779  14.857  11.307
29646SOL    HW290778  12.812   0.017  11.164
29647SOL     OW90779  11.239  10.533   2.993
29647SOL    HW190780  11.301  10.521   2.920
29647SOL    HW290781  11.158  10.492   2.963
29648SOL     OW90782   1.006   4.154   6.509
29648SOL    HW190783   0.917   4.144   6.476
29648SOL    HW290784   0.996   4.153   6.604
29649SOL     OW90785   5.621  10.690  13.788
29649SOL    HW190786   5.578  10.630  13.728
29649SOL    HW290787   5.657  10.759  13.733
29650SOL     OW90788   8.742   1.714   5.002
29650SOL    HW190789   8.781   1.793   4.964
29650SOL    HW290790   8.765   1.717   5.094
29651SOL     OW90791   2.552   9.982  10.741
29651SOL    HW190792   2.563  10.040  10.816
29651SOL    HW290793   2.636   9.984  10.696
29652SOL     OW90794   3.711   7.692  10.345
29652SOL    HW190795   3.694   7.621  10.407
29652SOL    HW290796   3.766   7.653  10.277
29653SOL     OW90797   4.460   6.132  13.336
29653SOL    HW190798   4.374   6.089  13.331
29653SOL    HW290799   4.493   6.109  13.423
29654SOL     OW90800   2.393   4.253  12.844
29654SOL    HW190801   2.476   4.299  12.831
29654SOL    HW290802   2.327   4.322  12.842
29655SOL     OW90803  12.747   3.580   6.566
29655SOL    HW190804  12.799   3.616   6.493
29655SOL    HW290805  12.679   3.528   6.523
29656SOL     OW90806   6.193  10.166   5.419
29656SOL    HW190807   6.258  10.133   5.357
29656SOL    HW290808   6.188  10.098   5.486
29657SOL     OW90809   2.775  13.489   6.429
29657SOL    HW190810   2.740  13.533   6.352
29657SOL    HW290811   2.725  13.524   6.502
29658SOL     OW90812  13.549   7.266   9.381
29658SOL    HW190813  13.534   7.209   9.306
29658SOL    HW290814  13.559   7.353   9.343
29659SOL     OW90815   0.214   7.380  12.209
29659SOL    HW190816   0.271   7.454  12.233
29659SOL    HW290817   0.230   7.367  12.116
29660SOL     OW90818   9.763   1.616   2.918
29660SOL    HW190819   9.768   1.556   2.843
29660SOL    HW290820   9.705   1.687   2.887
29661SOL     OW90821   2.513  13.488  11.553
29661SOL    HW190822   2.596  13.439  11.552
29661SOL    HW290823   2.509  13.525  11.641
29662SOL     OW90824   1.962  10.225   1.689
29662SOL    HW190825   2.050  10.219   1.726
29662SOL    HW290826   1.909  10.263   1.759
29663SOL     OW90827   8.751  11.021   8.926
29663SOL    HW190828   8.713  10.981   9.004
29663SOL    HW290829   8.722  11.112   8.929
29664SOL     OW90830   6.143  12.276   0.164
29664SOL    HW190831   6.085  12.220   0.112
29664SOL    HW290832   6.209  12.216   0.199
29665SOL     OW90833  14.724   0.445  12.376
29665SOL    HW190834  14.715   0.527  12.327
29665SOL    HW290835  14.651   0.446  12.438
29666SOL     OW90836   4.744   4.032   6.667
29666SOL    HW190837   4.739   4.124   6.693
29666SOL    HW290838   4.815   3.996   6.720
29667SOL     OW90839  14.265   3.207   4.597
29667SOL    HW190840  14.187   3.154   4.581
29667SOL    HW290841  14.239   3.297   4.575
29668SOL     OW90842   2.946   2.708   8.438
29668SOL    HW190843   3.003   2.785   8.439
29668SOL    HW290844   3.005   2.635   8.421
29669SOL     OW90845   0.220   1.280   0.260
29669SOL    HW190846   0.285   1.269   0.330
29669SOL    HW290847   0.218   1.375   0.245
29670SOL     OW90848   6.213   2.988   1.949
29670SOL    HW190849   6.245   2.930   1.879
29670SOL    HW290850   6.153   3.048   1.904
29671SOL     OW90851   5.267   4.527   8.902
29671SOL    HW190852   5.209   4.603   8.893
29671SOL    HW290853   5.211   4.452   8.886
29672SOL     OW90854  11.649   6.709  13.641
29672SOL    HW190855  11.706   6.729  13.566
29672SOL    HW290856  11.580   6.653  13.605
29673SOL     OW90857  12.768   1.640   3.069
29673SOL    HW190858  12.810   1.708   3.122
29673SOL    HW290859  12.787   1.666   2.979
29674SOL     OW90860  14.233   6.520  13.232
29674SOL    HW190861  14.251   6.443  13.285
29674SOL    HW290862  14.174   6.489  13.164
29675SOL     OW90863  10.745   3.538   6.774
29675SOL    HW190864  10.757   3.600   6.702
29675SOL    HW290865  10.768   3.453   6.736
29676SOL     OW90866   5.213   2.761   7.521
29676SOL    HW190867   5.304   2.787   7.511
29676SOL    HW290868   5.201   2.748   7.615
29677SOL     OW90869   9.465   1.841   7.254
29677SOL    HW190870   9.537   1.840   7.191
29677SOL    HW290871   9.461   1.932   7.284
29678SOL     OW90872   8.784   4.386   7.408
29678SOL    HW190873   8.825   4.306   7.376
29678SOL    HW290874   8.847   4.455   7.389
29679SOL     OW90875   2.732  10.788   6.784
29679SOL    HW190876   2.659  10.774   6.724
29679SOL    HW290877   2.711  10.735   6.861
29680SOL     OW90878   2.642   8.571   0.626
29680SOL    HW190879   2.713   8.633   0.611
29680SOL    HW290880   2.585   8.614   0.689
29681SOL     OW90881  11.531   6.166   2.969
29681SOL    HW190882  11.507   6.139   3.057
29681SOL    HW290883  11.488   6.102   2.912
29682SOL     OW90884   4.683   7.162   3.515
29682SOL    HW190885   4.774   7.165   3.485
29682SOL    HW290886   4.682   7.216   3.594
29683SOL     OW90887   5.788   6.776   0.503
29683SOL    HW190888   5.793   6.726   0.584
29683SOL    HW290889   5.803   6.712   0.433
29684SOL     OW90890   0.749  14.515  11.080
29684SOL    HW190891   0.780  14.429  11.050
29684SOL    HW290892   0.658  14.519  11.050
29685SOL     OW90893  10.960  14.073  14.158
29685SOL    HW190894  10.956  14.108  14.247
29685SOL    HW290895  11.021  14.130  14.112
29686SOL     OW90896  10.270  10.085  11.757
29686SOL    HW190897  10.328  10.016  11.789
29686SOL    HW290898  10.232  10.049  11.677
29687SOL     OW90899   1.381   2.153   2.069
29687SOL    HW190900   1.440   2.153   1.994
29687SOL    HW290901   1.307   2.208   2.042
29688SOL     OW90902  13.574   6.093   2.268
29688SOL    HW190903  13.610   6.146   2.338
29688SOL    HW290904  13.501   6.144   2.234
29689SOL     OW90905  13.661   9.529   9.693
29689SOL    HW190906  13.588   9.545   9.634
29689SOL    HW290907  13.647   9.439   9.724
29690SOL     OW90908   0.612   2.020   0.324
29690SOL    HW190909   0.635   2.017   0.231
29690SOL    HW290910   0.552   2.094   0.331
29691SOL     OW90911  13.982   3.776   8.397
29691SOL    HW190912  13.952   3.789   8.307
29691SOL    HW290913  14.074   3.800   8.395
29692SOL     OW90914   7.286   8.517  14.564
29692SOL    HW190915   7.204   8.565  14.571
29692SOL    HW290916   7.260   8.425  14.560
29693SOL     OW90917  12.716   7.935  11.723
29693SOL    HW190918  12.621   7.938  11.729
29693SOL    HW290919  12.747   7.925  11.813
29694SOL     OW90920   4.257   4.740   2.040
29694SOL    HW190921   4.282   4.679   1.971
29694SOL    HW290922   4.330   4.736   2.103
29695SOL     OW90923   1.863   2.261   2.903
29695SOL    HW190924   1.907   2.186   2.863
29695SOL    HW290925   1.932   2.325   2.916
29696SOL     OW90926  12.993   8.214   6.874
29696SOL    HW190927  12.989   8.185   6.965
29696SOL    HW290928  12.989   8.310   6.878
29697SOL     OW90929  13.173  10.874  13.477
29697SOL    HW190930  13.132  10.849  13.394
29697SOL    HW290931  13.138  10.961  13.496
29698SOL     OW90932   7.574  12.536   7.376
29698SOL    HW190933   7.495  12.489   7.401
29698SOL    HW290934   7.553  12.575   7.291
29699SOL     OW90935  14.664  10.799  12.846
29699SOL    HW190936  14.616  10.741  12.787
29699SOL    HW290937  14.675  10.880  12.797
29700SOL     OW90938   0.891   2.396  11.719
29700SOL    HW190939   0.942   2.399  11.800
29700SOL    HW290940   0.934   2.460  11.662
29701SOL     OW90941   3.597   4.510   2.991
29701SOL    HW190942   3.684   4.512   2.951
29701SOL    HW290943   3.568   4.602   2.988
29702SOL     OW90944   1.514   1.488  11.870
29702SOL    HW190945   1.476   1.402  11.889
29702SOL    HW290946   1.568   1.508  11.946
29703SOL     OW90947   4.417   4.667   8.020
29703SOL    HW190948   4.333   4.632   7.991
29703SOL    HW290949   4.478   4.648   7.949
29704SOL     OW90950  11.895   4.084   3.702
29704SOL    HW190951  11.951   4.078   3.780
29704SOL    HW290952  11.940   4.031   3.636
29705SOL     OW90953   1.043   7.205  10.723
29705SOL    HW190954   0.999   7.140  10.778
29705SOL    HW290955   1.030   7.288  10.769
29706SOL     OW90956  14.030  14.779   2.158
29706SOL    HW190957  14.063  14.798   2.070
29706SOL    HW290958  14.104  14.737   2.203
29707SOL     OW90959  14.672  12.898   4.075
29707SOL    HW190960  14.662  12.834   4.145
29707SOL    HW290961  14.604  12.963   4.092
29708SOL     OW90962   1.337   6.548   8.666
29708SOL    HW190963   1.259   6.512   8.708
29708SOL    HW290964   1.391   6.579   8.738
29709SOL     OW90965  10.075   5.962  14.174
29709SOL    HW190966  10.058   5.871  14.150
29709SOL    HW290967  10.135   5.956  14.249
29710SOL     OW90968   6.016   2.048  13.714
29710SOL    HW190969   6.062   2.130  13.732
29710SOL    HW290970   6.078   1.996  13.663
29711SOL     OW90971   1.103   1.600  12.732
29711SOL    HW190972   1.185   1.615  12.686
29711SOL    HW290973   1.111   1.511  12.767
29712SOL     OW90974  13.048   2.219  13.254
29712SOL    HW190975  12.975   2.166  13.287
29712SOL    HW290976  13.111   2.155  13.220
29713SOL     OW90977  12.948  10.947   3.321
29713SOL    HW190978  12.891  10.924   3.247
29713SOL    HW290979  12.888  10.971   3.391
29714SOL     OW90980   7.374   4.163   7.504
29714SOL    HW190981   7.446   4.101   7.509
29714SOL    HW290982   7.383   4.217   7.583
29715SOL     OW90983  12.078   9.930   1.202
29715SOL    HW190984  12.104  10.021   1.219
29715SOL    HW290985  12.161   9.883   1.196
29716SOL     OW90986  11.349   6.689  11.888
29716SOL    HW190987  11.387   6.608  11.923
29716SOL    HW290988  11.256   6.684  11.912
29717SOL     OW90989  13.540   3.048  13.057
29717SOL    HW190990  13.570   2.958  13.070
29717SOL    HW290991  13.554   3.091  13.142
29718SOL     OW90992   0.676   3.332   8.089
29718SOL    HW190993   0.735   3.307   8.017
29718SOL    HW290994   0.618   3.398   8.051
29719SOL     OW90995   9.174  10.209  14.203
29719SOL    HW190996   9.102  10.251  14.250
29719SOL    HW290997   9.171  10.117  14.232
29720SOL     OW90998  11.154   8.299   8.347
29720SOL    HW190999  11.125   8.244   8.420
29720SOL    HW291000  11.247   8.315   8.364
29721SOL     OW91001   3.998   7.351   7.164
29721SOL    HW191002   4.010   7.257   7.173
29721SOL    HW291003   3.942   7.375   7.238
29722SOL     OW91004   1.047  14.389  11.730
29722SOL    HW191005   1.127  14.393  11.677
29722SOL    HW291006   1.074  14.342  11.809
29723SOL     OW91007   1.551   6.832   5.428
29723SOL    HW191008   1.608   6.852   5.353
29723SOL    HW291009   1.500   6.756   5.399
29724SOL     OW91010   9.910   6.013   1.118
29724SOL    HW191011   9.842   6.044   1.177
29724SOL    HW291012   9.973   5.969   1.174
29725SOL     OW91013   2.408  13.202   5.803
29725SOL    HW191014   2.478  13.207   5.869
29725SOL    HW291015   2.455  13.188   5.721
29726SOL     OW91016   5.112   3.038   7.666
29726SOL    HW191017   5.073   2.955   7.693
29726SOL    HW291018   5.159   3.018   7.585
29727SOL     OW91019   9.612  11.040   3.515
29727SOL    HW191020   9.684  10.981   3.539
29727SOL    HW291021   9.540  11.015   3.573
29728SOL     OW91022  10.868   8.946   8.360
29728SOL    HW191023  10.812   8.982   8.290
29728SOL    HW291024  10.821   8.867   8.389
29729SOL     OW91025  11.820  12.421  11.274
29729SOL    HW191026  11.886  12.469  11.324
29729SOL    HW291027  11.743  12.478  11.276
29730SOL     OW91028  12.082   7.655  12.378
29730SOL    HW191029  12.171   7.623  12.396
29730SOL    HW291030  12.088   7.749  12.393
29731SOL     OW91031   1.218  11.259  14.282
29731SOL    HW191032   1.230  11.244  14.188
29731SOL    HW291033   1.270  11.337  14.301
29732SOL     OW91034  13.026  10.390   8.066
29732SOL    HW191035  12.955  10.326   8.071
29732SOL    HW291036  13.010  10.437   7.984
29733SOL     OW91037  14.744   0.777   3.990
29733SOL    HW191038  14.666   0.787   4.043
29733SOL    HW291039  14.765   0.684   3.994
29734SOL     OW91040   9.344   0.240  10.150
29734SOL    HW191041   9.375   0.170  10.093
29734SOL    HW291042   9.341   0.201  10.238
29735SOL     OW91043   5.037   5.875   0.575
29735SOL    HW191044   5.091   5.797   0.588
29735SOL    HW291045   5.087   5.930   0.515
29736SOL     OW91046  14.330  13.119  13.288
29736SOL    HW191047  14.327  13.094  13.380
29736SOL    HW291048  14.423  13.132  13.270
29737SOL     OW91049  14.685   3.372  10.381
29737SOL    HW191050  14.776   3.371  10.410
29737SOL    HW291051  14.656   3.462  10.398
29738SOL     OW91052   3.935  13.018  11.053
29738SOL    HW191053   4.005  12.959  11.079
29738SOL    HW291054   3.887  13.035  11.134
29739SOL     OW91055   0.600  11.634   7.497
29739SOL    HW191056   0.558  11.553   7.525
29739SOL    HW291057   0.529  11.687   7.461
29740SOL     OW91058  11.162   1.755  10.852
29740SOL    HW191059  11.176   1.663  10.874
29740SOL    HW291060  11.141   1.754  10.758
29741SOL     OW91061   7.782   1.849   7.971
29741SOL    HW191062   7.873   1.832   7.946
29741SOL    HW291063   7.748   1.763   7.997
29742SOL     OW91064  10.309   5.658  10.024
29742SOL    HW191065  10.317   5.565  10.045
29742SOL    HW291066  10.293   5.660   9.929
29743SOL     OW91067   5.423  14.791   5.861
29743SOL    HW191068   5.388  14.716   5.812
29743SOL    HW291069   5.518  14.778   5.860
29744SOL     OW91070   5.027   1.200   5.099
29744SOL    HW191071   4.973   1.130   5.064
29744SOL    HW291072   4.983   1.227   5.180
29745SOL     OW91073  11.184   4.922   9.098
29745SOL    HW191074  11.160   4.965   9.016
29745SOL    HW291075  11.280   4.923   9.097
29746SOL     OW91076   1.440   3.523   3.576
29746SOL    HW191077   1.475   3.440   3.610
29746SOL    HW291078   1.480   3.532   3.490
29747SOL     OW91079   5.179   1.040   0.825
29747SOL    HW191080   5.099   1.051   0.774
29747SOL    HW291081   5.245   1.092   0.779
29748SOL     OW91082   8.684   1.770  13.860
29748SOL    HW191083   8.753   1.734  13.804
29748SOL    HW291084   8.688   1.717  13.940
29749SOL     OW91085   2.482  10.292   0.908
29749SOL    HW191086   2.443  10.335   0.984
29749SOL    HW291087   2.570  10.329   0.901
29750SOL     OW91088  14.191   1.387   0.536
29750SOL    HW191089  14.132   1.388   0.461
29750SOL    HW291090  14.269   1.433   0.506
29751SOL     OW91091  11.217   6.235   8.291
29751SOL    HW191092  11.147   6.211   8.230
29751SOL    HW291093  11.269   6.155   8.301
29752SOL     OW91094   3.983   3.193   9.196
29752SOL    HW191095   4.051   3.219   9.134
29752SOL    HW291096   4.000   3.246   9.274
29753SOL     OW91097  10.557   9.643  10.933
29753SOL    HW191098  10.514   9.679  11.010
29753SOL    HW291099  10.647   9.676  10.939
29754SOL     OW91100  10.604   3.477  14.158
29754SOL    HW191101  10.588   3.453  14.067
29754SOL    HW291102  10.547   3.418  14.209
29755SOL     OW91103  12.029   0.623   6.652
29755SOL    HW191104  12.075   0.702   6.624
29755SOL    HW291105  11.937   0.651   6.660
29756SOL     OW91106  12.543  10.820   3.506
29756SOL    HW191107  12.474  10.859   3.453
29756SOL    HW291108  12.616  10.882   3.500
29757SOL     OW91109   3.419  11.950  11.573
29757SOL    HW191110   3.478  11.953  11.648
29757SOL    HW291111   3.410  11.857  11.554
29758SOL     OW91112   4.344  10.142   0.985
29758SOL    HW191113   4.425  10.094   0.970
29758SOL    HW291114   4.329  10.192   0.905
29759SOL     OW91115  10.750  13.269   9.067
29759SOL    HW191116  10.747  13.174   9.076
29759SOL    HW291117  10.784  13.284   8.979
29760SOL     OW91118  11.472   1.972   7.634
29760SOL    HW191119  11.405   1.910   7.607
29760SOL    HW291120  11.441   2.057   7.603
29761SOL     OW91121   3.110   7.087   8.629
29761SOL    HW191122   3.199   7.118   8.613
29761SOL    HW291123   3.110   7.064   8.722
29762SOL     OW91124   4.447   7.029   5.205
29762SOL    HW191125   4.530   7.059   5.243
29762SOL    HW291126   4.452   7.056   5.113
29763SOL     OW91127   3.047   4.693  14.064
29763SOL    HW191128   2.986   4.767  14.063
29763SOL    HW291129   3.048   4.661  13.974
29764SOL     OW91130  12.314   2.094   8.073
29764SOL    HW191131  12.236   2.147   8.089
29764SOL    HW291132  12.377   2.155   8.034
29765SOL     OW91133   8.735   4.104   8.056
29765SOL    HW191134   8.661   4.164   8.053
29765SOL    HW291135   8.807   4.153   8.017
29766SOL     OW91136   2.736   5.861  10.051
29766SOL    HW191137   2.807   5.923  10.062
29766SOL    HW291138   2.714   5.832  10.140
29767SOL     OW91139   8.285  14.106  10.281
29767SOL    HW191140   8.299  14.176  10.216
29767SOL    HW291141   8.360  14.048  10.269
29768SOL     OW91142  12.992   8.048  12.550
29768SOL    HW191143  13.053   8.117  12.575
29768SOL    HW291144  13.048   7.973  12.530
29769SOL     OW91145  13.008   3.826  10.597
29769SOL    HW191146  12.969   3.873  10.524
29769SOL    HW291147  12.961   3.859  10.674
29770SOL     OW91148   4.819   7.984   8.684
29770SOL    HW191149   4.777   7.918   8.739
29770SOL    HW291150   4.903   7.945   8.660
29771SOL     OW91151   0.111   5.193   8.786
29771SOL    HW191152   0.114   5.178   8.881
29771SOL    HW291153   0.150   5.280   8.775
29772SOL     OW91154  12.081   3.750   0.166
29772SOL    HW191155  12.162   3.699   0.152
29772SOL    HW291156  12.076   3.761   0.260
29773SOL     OW91157   4.749  13.293   7.340
29773SOL    HW191158   4.771  13.365   7.399
29773SOL    HW291159   4.797  13.312   7.260
29774SOL     OW91160   5.295   3.577   6.551
29774SOL    HW191161   5.388   3.583   6.527
29774SOL    HW291162   5.290   3.498   6.605
29775SOL     OW91163  13.057   1.253   0.779
29775SOL    HW191164  13.000   1.184   0.813
29775SOL    HW291165  13.102   1.213   0.705
29776SOL     OW91166  11.618   0.106  13.847
29776SOL    HW191167  11.541   0.074  13.895
29776SOL    HW291168  11.610   0.201  13.849
29777SOL     OW91169   6.212   7.876   7.604
29777SOL    HW191170   6.121   7.897   7.582
29777SOL    HW291171   6.223   7.785   7.578
29778SOL     OW91172   2.794   9.507  10.975
29778SOL    HW191173   2.842   9.584  11.005
29778SOL    HW291174   2.861   9.453  10.933
29779SOL     OW91175   2.832  11.548   4.167
29779SOL    HW191176   2.778  11.520   4.240
29779SOL    HW291177   2.769  11.574   4.099
29780SOL     OW91178  14.725  13.410  12.411
29780SOL    HW191179  14.711  13.340  12.347
29780SOL    HW291180  14.741  13.488  12.358
29781SOL     OW91181   8.377  12.334   3.634
29781SOL    HW191182   8.417  12.249   3.616
29781SOL    HW291183   8.421  12.364   3.713
29782SOL     OW91184   1.957   1.867   5.496
29782SOL    HW191185   2.034   1.828   5.455
29782SOL    HW291186   1.970   1.853   5.590
29783SOL     OW91187   1.039  13.846  12.030
29783SOL    HW191188   1.106  13.858  12.097
29783SOL    HW291189   0.958  13.832  12.078
29784SOL     OW91190   2.812  12.377   9.980
29784SOL    HW191191   2.827  12.337  10.066
29784SOL    HW291192   2.888  12.434   9.967
29785SOL     OW91193   2.446   6.597   4.856
29785SOL    HW191194   2.360   6.555   4.853
29785SOL    HW291195   2.460   6.630   4.768
29786SOL     OW91196   4.024  10.434  12.723
29786SOL    HW191197   3.943  10.388  12.743
29786SOL    HW291198   4.002  10.527  12.731
29787SOL     OW91199  14.242  12.329   9.847
29787SOL    HW191200  14.325  12.282   9.837
29787SOL    HW291201  14.198  12.319   9.763
29788SOL     OW91202   0.501   5.013   1.013
29788SOL    HW191203   0.475   4.997   0.922
29788SOL    HW291204   0.430   5.065   1.050
29789SOL     OW91205   7.674   7.231   7.519
29789SOL    HW191206   7.646   7.140   7.533
29789SOL    HW291207   7.677   7.269   7.606
29790SOL     OW91208   9.074   5.929  12.505
29790SOL    HW191209   9.079   5.872  12.581
29790SOL    HW291210   9.131   5.887  12.440
29791SOL     OW91211  12.691   9.417   3.083
29791SOL    HW191212  12.601   9.401   3.111
29791SOL    HW291213  12.700   9.512   3.086
29792SOL     OW91214   5.735  12.674   6.557
29792SOL    HW191215   5.683  12.740   6.511
29792SOL    HW291216   5.755  12.608   6.490
29793SOL     OW91217   4.232   3.473   8.490
29793SOL    HW191218   4.222   3.439   8.579
29793SOL    HW291219   4.217   3.397   8.434
29794SOL     OW91220  13.638   0.126   0.905
29794SOL    HW191221  13.651   0.094   0.816
29794SOL    HW291222  13.725   0.123   0.945
29795SOL     OW91223  12.600   2.383   6.875
29795SOL    HW191224  12.672   2.413   6.930
29795SOL    HW291225  12.592   2.449   6.807
29796SOL     OW91226   7.367  14.244   3.572
29796SOL    HW191227   7.356  14.150   3.554
29796SOL    HW291228   7.404  14.280   3.492
29797SOL     OW91229   0.048   5.928   7.331
29797SOL    HW191230  14.847   5.880   7.350
29797SOL    HW291231   0.019   6.006   7.283
29798SOL     OW91232   1.250   6.333  14.024
29798SOL    HW191233   1.170   6.386  14.014
29798SOL    HW291234   1.318   6.397  14.044
29799SOL     OW91235   4.087   3.068   7.072
29799SOL    HW191236   4.039   2.999   7.119
29799SOL    HW291237   4.020   3.129   7.043
29800SOL     OW91238   3.400   5.951   1.128
29800SOL    HW191239   3.463   5.988   1.191
29800SOL    HW291240   3.418   5.997   1.046
29801SOL     OW91241  12.680   2.787   4.006
29801SOL    HW191242  12.662   2.749   4.091
29801SOL    HW291243  12.621   2.861   3.999
29802SOL     OW91244  10.304  12.119   0.019
29802SOL    HW191245  10.221  12.111  14.852
29802SOL    HW291246  10.286  12.180   0.091
29803SOL     OW91247  11.376   7.932  12.181
29803SOL    HW191248  11.461   7.933  12.136
29803SOL    HW291249  11.312   7.937  12.110
29804SOL     OW91250   8.325   6.535   0.888
29804SOL    HW191251   8.384   6.605   0.862
29804SOL    HW291252   8.381   6.474   0.937
29805SOL     OW91253  12.150   9.897   7.804
29805SOL    HW191254  12.177   9.985   7.828
29805SOL    HW291255  12.215   9.839   7.844
29806SOL     OW91256   9.312   7.644  14.848
29806SOL    HW191257   9.404   7.661  14.828
29806SOL    HW291258   9.301   7.550  14.832
29807SOL     OW91259   4.554   5.153  13.631
29807SOL    HW191260   4.545   5.128  13.539
29807SOL    HW291261   4.558   5.248  13.630
29808SOL     OW91262   5.000   7.985   1.742
29808SOL    HW191263   5.011   7.890   1.745
29808SOL    HW291264   4.985   8.010   1.833
29809SOL     OW91265  11.778  13.507  13.577
29809SOL    HW191266  11.787  13.582  13.636
29809SOL    HW291267  11.684  13.502  13.560
29810SOL     OW91268   7.743   7.402   6.502
29810SOL    HW191269   7.812   7.337   6.487
29810SOL    HW291270   7.725   7.396   6.595
29811SOL     OW91271   0.210  13.419  14.030
29811SOL    HW191272   0.142  13.427  14.097
29811SOL    HW291273   0.291  13.410  14.078
29812SOL     OW91274   2.061   3.164   9.501
29812SOL    HW191275   1.994   3.165   9.433
29812SOL    HW291276   2.118   3.238   9.481
29813SOL     OW91277   9.872   1.364   1.419
29813SOL    HW191278   9.888   1.395   1.330
29813SOL    HW291279   9.916   1.428   1.476
29814SOL     OW91280   3.176   8.678   8.653
29814SOL    HW191281   3.152   8.732   8.578
29814SOL    HW291282   3.214   8.599   8.616
29815SOL     OW91283   0.909   0.231   1.511
29815SOL    HW191284   0.972   0.301   1.494
29815SOL    HW291285   0.865   0.257   1.592
29816SOL     OW91286   7.516   3.147   5.659
29816SOL    HW191287   7.610   3.146   5.643
29816SOL    HW291288   7.483   3.069   5.612
29817SOL     OW91289   1.776   4.804   8.370
29817SOL    HW191290   1.761   4.881   8.425
29817SOL    HW291291   1.871   4.803   8.355
29818SOL     OW91292   3.438   3.521  10.949
29818SOL    HW191293   3.346   3.518  10.924
29818SOL    HW291294   3.477   3.445  10.906
29819SOL     OW91295   1.911  13.827   2.595
29819SOL    HW191296   1.927  13.804   2.503
29819SOL    HW291297   1.922  13.745   2.643
29820SOL     OW91298  11.473   0.403   0.209
29820SOL    HW191299  11.511   0.491   0.215
29820SOL    HW291300  11.389   0.410   0.254
29821SOL     OW91301  14.667  10.421   7.476
29821SOL    HW191302  14.757  10.429   7.509
29821SOL    HW291303  14.657  10.328   7.455
29822SOL     OW91304   9.106   0.520  10.533
29822SOL    HW191305   9.097   0.507  10.439
29822SOL    HW291306   9.196   0.495  10.552
29823SOL     OW91307   9.410   4.986  11.650
29823SOL    HW191308   9.462   4.968  11.571
29823SOL    HW291309   9.341   5.044  11.620
29824SOL     OW91310   1.936  10.565   0.559
29824SOL    HW191311   1.991  10.612   0.497
29824SOL    HW291312   1.938  10.618   0.638
29825SOL     OW91313  12.747   6.419   8.670
29825SOL    HW191314  12.764   6.325   8.678
29825SOL    HW291315  12.714   6.444   8.757
29826SOL     OW91316   0.722   9.893   4.471
29826SOL    HW191317   0.719   9.797   4.475
29826SOL    HW291318   0.744   9.913   4.380
29827SOL     OW91319   4.236   7.715   5.326
29827SOL    HW191320   4.301   7.710   5.256
29827SOL    HW291321   4.219   7.625   5.351
29828SOL     OW91322  12.541   8.497   6.669
29828SOL    HW191323  12.539   8.424   6.607
29828SOL    HW291324  12.516   8.457   6.753
29829SOL     OW91325   0.644  10.107   7.618
29829SOL    HW191326   0.618  10.193   7.651
29829SOL    HW291327   0.567  10.052   7.634
29830SOL     OW91328   5.089  13.365  11.013
29830SOL    HW191329   5.056  13.297  11.072
29830SOL    HW291330   5.012  13.417  10.991
29831SOL     OW91331   3.874   5.975   5.257
29831SOL    HW191332   3.954   6.027   5.259
29831SOL    HW291333   3.883   5.915   5.331
29832SOL     OW91334  10.244  12.211   5.283
29832SOL    HW191335  10.314  12.207   5.349
29832SOL    HW291336  10.256  12.297   5.241
29833SOL     OW91337  11.001  12.737   8.657
29833SOL    HW191338  11.031  12.649   8.635
29833SOL    HW291339  11.019  12.789   8.579
29834SOL     OW91340   1.029  13.737   2.675
29834SOL    HW191341   1.035  13.832   2.686
29834SOL    HW291342   1.079  13.719   2.595
29835SOL     OW91343  11.110   3.508   0.596
29835SOL    HW191344  11.112   3.466   0.510
29835SOL    HW291345  11.055   3.586   0.584
29836SOL     OW91346  12.732   4.628   5.988
29836SOL    HW191347  12.639   4.624   6.013
29836SOL    HW291348  12.763   4.538   5.998
29837SOL     OW91349   0.893   2.441   7.759
29837SOL    HW191350   0.845   2.371   7.803
29837SOL    HW291351   0.896   2.512   7.823
29838SOL     OW91352  12.350  13.401   8.190
29838SOL    HW191353  12.280  13.363   8.242
29838SOL    HW291354  12.363  13.488   8.228
29839SOL     OW91355  13.464  13.274  11.864
29839SOL    HW191356  13.507  13.230  11.938
29839SOL    HW291357  13.373  13.283  11.893
29840SOL     OW91358  10.743   0.662   7.568
29840SOL    HW191359  10.741   0.757   7.558
29840SOL    HW291360  10.819   0.634   7.517
29841SOL     OW91361   7.037  11.694   0.440
29841SOL    HW191362   7.078  11.681   0.525
29841SOL    HW291363   7.013  11.606   0.411
29842SOL     OW91364   1.599   7.742  12.968
29842SOL    HW191365   1.693   7.736  12.955
29842SOL    HW291366   1.586   7.826  13.012
29843SOL     OW91367   7.215   3.859   2.434
29843SOL    HW191368   7.199   3.829   2.344
29843SOL    HW291369   7.131   3.896   2.462
29844SOL     OW91370   8.381  13.242   6.146
29844SOL    HW191371   8.413  13.328   6.173
29844SOL    HW291372   8.288  13.243   6.167
29845SOL     OW91373  13.269  14.147   0.754
29845SOL    HW191374  13.189  14.094   0.756
29845SOL    HW291375  13.315  14.119   0.675
29846SOL     OW91376  11.329   5.694  10.541
29846SOL    HW191377  11.340   5.692  10.446
29846SOL    HW291378  11.418   5.681  10.575
29847SOL     OW91379   8.162   6.107   1.397
29847SOL    HW191380   8.243   6.157   1.392
29847SOL    HW291381   8.107   6.156   1.458
29848SOL     OW91382   9.982  11.712   4.665
29848SOL    HW191383   9.987  11.769   4.741
29848SOL    HW291384   9.905  11.658   4.680
29849SOL     OW91385  13.675  11.345   9.354
29849SOL    HW191386  13.753  11.321   9.305
29849SOL    HW291387  13.607  11.355   9.287
29850SOL     OW91388   3.065  11.149   8.447
29850SOL    HW191389   3.038  11.057   8.446
29850SOL    HW291390   3.157  11.147   8.475
29851SOL     OW91391  14.401   6.443   7.281
29851SOL    HW191392  14.428   6.411   7.367
29851SOL    HW291393  14.483   6.465   7.237
29852SOL     OW91394  10.895  12.269   1.107
29852SOL    HW191395  10.853  12.213   1.041
29852SOL    HW291396  10.825  12.326   1.138
29853SOL     OW91397   4.091   2.502   6.244
29853SOL    HW191398   4.167   2.455   6.212
29853SOL    HW291399   4.019   2.439   6.239
29854SOL     OW91400   7.983   5.674   8.089
29854SOL    HW191401   7.923   5.747   8.105
29854SOL    HW291402   8.038   5.703   8.017
29855SOL     OW91403   6.016   7.199   1.450
29855SOL    HW191404   6.104   7.235   1.438
29855SOL    HW291405   6.002   7.200   1.545
29856SOL     OW91406   9.793  11.532   2.607
29856SOL    HW191407   9.816  11.442   2.585
29856SOL    HW291408   9.782  11.531   2.702
29857SOL     OW91409  14.319  14.856   9.264
29857SOL    HW191410  14.336   0.029   9.186
29857SOL    HW291411  14.399  14.863   9.316
29858SOL     OW91412   2.722   3.137  14.432
29858SOL    HW191413   2.722   3.226  14.467
29858SOL    HW291414   2.703   3.148  14.339
29859SOL     OW91415   3.696   3.236  13.642
29859SOL    HW191416   3.767   3.258  13.581
29859SOL    HW291417   3.678   3.144  13.626
29860SOL     OW91418   3.315   2.333  12.506
29860SOL    HW191419   3.364   2.365  12.430
29860SOL    HW291420   3.361   2.370  12.582
29861SOL     OW91421   2.468  10.702   2.475
29861SOL    HW191422   2.476  10.621   2.424
29861SOL    HW291423   2.520  10.685   2.554
29862SOL     OW91424  14.151  11.480   6.015
29862SOL    HW191425  14.059  11.494   5.990
29862SOL    HW291426  14.191  11.442   5.937
29863SOL     OW91427   5.489   9.965   8.085
29863SOL    HW191428   5.572   9.934   8.048
29863SOL    HW291429   5.511   9.996   8.173
29864SOL     OW91430   0.484   0.463   5.397
29864SOL    HW191431   0.427   0.518   5.450
29864SOL    HW291432   0.440   0.458   5.312
29865SOL     OW91433  14.540   4.074   7.373
29865SOL    HW191434  14.548   4.170   7.380
29865SOL    HW291435  14.492   4.060   7.292
29866SOL     OW91436   2.306   0.035   1.017
29866SOL    HW191437   2.394   0.047   1.053
29866SOL    HW291438   2.319  14.866   0.936
29867SOL     OW91439  13.030   9.112   2.371
29867SOL    HW191440  13.075   9.067   2.442
29867SOL    HW291441  12.938   9.088   2.381
29868SOL     OW91442   7.966   1.735   5.257
29868SOL    HW191443   8.017   1.812   5.231
29868SOL    HW291444   7.939   1.695   5.174
29869SOL     OW91445  11.372   0.474   7.234
29869SOL    HW191446  11.436   0.537   7.202
29869SOL    HW291447  11.387   0.470   7.329
29870SOL     OW91448   7.597  12.596  10.079
29870SOL    HW191449   7.655  12.601  10.155
29870SOL    HW291450   7.650  12.552  10.012
29871SOL     OW91451  11.161   1.691   9.440
29871SOL    HW191452  11.232   1.640   9.480
29871SOL    HW291453  11.181   1.782   9.462
29872SOL     OW91454   0.958   3.335   3.706
29872SOL    HW191455   0.951   3.350   3.612
29872SOL    HW291456   0.937   3.420   3.745
29873SOL     OW91457  10.655   5.780  11.973
29873SOL    HW191458  10.571   5.825  11.969
29873SOL    HW291459  10.643   5.714  12.041
29874SOL     OW91460   8.484   6.698   7.595
29874SOL    HW191461   8.485   6.644   7.674
29874SOL    HW291462   8.391   6.712   7.576
29875SOL     OW91463   8.326  14.418   8.204
29875SOL    HW191464   8.335  14.487   8.269
29875SOL    HW291465   8.236  14.386   8.215
29876SOL     OW91466  13.174   6.614  10.110
29876SOL    HW191467  13.168   6.623  10.015
29876SOL    HW291468  13.091   6.572  10.135
29877SOL     OW91469   8.794  12.627   9.766
29877SOL    HW191470   8.871  12.571   9.780
29877SOL    HW291471   8.721  12.565   9.760
29878SOL     OW91472   3.870  13.690  12.193
29878SOL    HW191473   3.933  13.725  12.256
29878SOL    HW291474   3.883  13.743  12.115
29879SOL     OW91475   8.129   8.792   5.297
29879SOL    HW191476   8.101   8.865   5.352
29879SOL    HW291477   8.164   8.728   5.359
29880SOL     OW91478   8.533   5.716  10.295
29880SOL    HW191479   8.500   5.751  10.212
29880SOL    HW291480   8.473   5.646  10.318
29881SOL     OW91481  10.817   9.013   0.370
29881SOL    HW191482  10.743   9.067   0.343
29881SOL    HW291483  10.885   9.075   0.394
29882SOL     OW91484   3.459  11.314   5.299
29882SOL    HW191485   3.464  11.352   5.211
29882SOL    HW291486   3.529  11.358   5.347
29883SOL     OW91487  14.111  11.460   9.310
29883SOL    HW191488  14.109  11.549   9.345
29883SOL    HW291489  14.205  11.439   9.305
29884SOL     OW91490   8.129   5.406  14.854
29884SOL    HW191491   8.161   5.339   0.034
29884SOL    HW291492   8.206   5.458  14.832
29885SOL     OW91493   6.370   3.170  12.146
29885SOL    HW191494   6.408   3.084  12.163
29885SOL    HW291495   6.427   3.231  12.193
29886SOL     OW91496   2.298   8.657  14.246
29886SOL    HW191497   2.270   8.566  14.247
29886SOL    HW291498   2.289   8.686  14.336
29887SOL     OW91499   2.032   9.418  10.255
29887SOL    HW191500   2.000   9.374  10.333
29887SOL    HW291501   2.128   9.411  10.262
29888SOL     OW91502  13.101   5.499   4.820
29888SOL    HW191503  13.109   5.537   4.732
29888SOL    HW291504  13.050   5.563   4.869
29889SOL     OW91505   7.548  12.293   4.849
29889SOL    HW191506   7.499  12.215   4.822
29889SOL    HW291507   7.640  12.269   4.834
29890SOL     OW91508  13.021   0.353  13.169
29890SOL    HW191509  13.115   0.363  13.157
29890SOL    HW291510  12.993   0.435  13.210
29891SOL     OW91511  10.227   8.874   3.708
29891SOL    HW191512  10.244   8.940   3.776
29891SOL    HW291513  10.133   8.883   3.689
29892SOL     OW91514   8.508  11.825  11.704
29892SOL    HW191515   8.583  11.843  11.761
29892SOL    HW291516   8.480  11.737  11.729
29893SOL     OW91517  14.854   0.984   6.250
29893SOL    HW191518  14.864   1.079   6.241
29893SOL    HW291519   0.016   0.964   6.334
29894SOL     OW91520  13.367   9.253   4.345
29894SOL    HW191521  13.333   9.254   4.256
29894SOL    HW291522  13.329   9.331   4.386
29895SOL     OW91523   7.663   3.057   7.718
29895SOL    HW191524   7.752   3.090   7.710
29895SOL    HW291525   7.651   3.000   7.641
29896SOL     OW91526   7.894   7.892   1.825
29896SOL    HW191527   7.892   7.799   1.845
29896SOL    HW291528   7.937   7.932   1.901
29897SOL     OW91529  12.557   5.963   0.666
29897SOL    HW191530  12.465   5.969   0.693
29897SOL    HW291531  12.576   6.047   0.625
29898SOL     OW91532  13.195   5.065   5.064
29898SOL    HW191533  13.123   5.060   5.126
29898SOL    HW291534  13.199   5.158   5.039
29899SOL     OW91535   2.738  13.098   1.849
29899SOL    HW191536   2.687  13.093   1.929
29899SOL    HW291537   2.722  13.186   1.815
29900SOL     OW91538   2.598   7.080   6.095
29900SOL    HW191539   2.560   6.992   6.100
29900SOL    HW291540   2.525   7.139   6.116
29901SOL     OW91541  13.572  13.885   6.657
29901SOL    HW191542  13.659  13.884   6.616
29901SOL    HW291543  13.588  13.854   6.746
29902SOL     OW91544   7.977  14.463   6.836
29902SOL    HW191545   8.029  14.383   6.838
29902SOL    HW291546   7.994  14.506   6.920
29903SOL     OW91547   5.048   5.975   6.259
29903SOL    HW191548   4.959   5.981   6.295
29903SOL    HW291549   5.036   5.941   6.171
29904SOL     OW91550  10.381   8.179   5.231
29904SOL    HW191551  10.433   8.103   5.255
29904SOL    HW291552  10.443   8.239   5.189
29905SOL     OW91553   9.568  11.563   2.477
29905SOL    HW191554   9.522  11.504   2.537
29905SOL    HW291555   9.658  11.566   2.510
29906SOL     OW91556   1.748   6.915   5.263
29906SOL    HW191557   1.831   6.928   5.309
29906SOL    HW291558   1.745   6.985   5.198
29907SOL     OW91559  12.721   0.655  13.198
29907SOL    HW191560  12.658   0.604  13.248
29907SOL    HW291561  12.693   0.746  13.209
29908SOL     OW91562   7.759  12.157   9.449
29908SOL    HW191563   7.790  12.199   9.529
29908SOL    HW291564   7.836  12.153   9.392
29909SOL     OW91565  13.031   4.549   7.994
29909SOL    HW191566  12.990   4.601   7.925
29909SOL    HW291567  13.008   4.458   7.972
29910SOL     OW91568   2.504   6.442   8.036
29910SOL    HW191569   2.517   6.362   8.086
29910SOL    HW291570   2.546   6.424   7.951
29911SOL     OW91571   4.601   9.121   0.860
29911SOL    HW191572   4.538   9.121   0.931
29911SOL    HW291573   4.613   9.214   0.839
29912SOL     OW91574   5.462  13.936   8.072
29912SOL    HW191575   5.449  13.848   8.038
29912SOL    HW291576   5.485  13.924   8.164
29913SOL     OW91577   2.710   4.105   2.002
29913SOL    HW191578   2.630   4.147   2.034
29913SOL    HW291579   2.680   4.040   1.939
29914SOL     OW91580  11.085   2.491  11.132
29914SOL    HW191581  11.136   2.434  11.190
29914SOL    HW291582  11.057   2.563  11.189
29915SOL     OW91583  11.504   2.297   1.083
29915SOL    HW191584  11.502   2.356   1.158
29915SOL    HW291585  11.491   2.209   1.120
29916SOL     OW91586   5.001   1.394   3.168
29916SOL    HW191587   5.031   1.451   3.097
29916SOL    HW291588   4.939   1.448   3.217
29917SOL     OW91589  14.731   9.004   4.308
29917SOL    HW191590  14.667   8.973   4.372
29917SOL    HW291591  14.795   8.933   4.301
29918SOL     OW91592   2.850  11.661   6.417
29918SOL    HW191593   2.925  11.705   6.457
29918SOL    HW291594   2.821  11.598   6.483
29919SOL     OW91595  13.010  14.713  14.695
29919SOL    HW191596  13.101  14.700  14.670
29919SOL    HW291597  13.001  14.807  14.704
29920SOL     OW91598   3.781   5.049   1.016
29920SOL    HW191599   3.721   5.036   0.943
29920SOL    HW291600   3.736   5.010   1.091
29921SOL     OW91601   8.453  12.425  10.449
29921SOL    HW191602   8.488  12.481  10.519
29921SOL    HW291603   8.457  12.337  10.485
29922SOL     OW91604  12.619  14.144   7.718
29922SOL    HW191605  12.533  14.121   7.752
29922SOL    HW291606  12.650  14.065   7.673
29923SOL     OW91607  12.305  14.345  10.625
29923SOL    HW191608  12.214  14.338  10.597
29923SOL    HW291609  12.356  14.320  10.548
29924SOL     OW91610  10.042  13.517  12.052
29924SOL    HW191611   9.991  13.517  12.132
29924SOL    HW291612  10.074  13.607  12.043
29925SOL     OW91613  13.838   8.149   3.697
29925SOL    HW191614  13.761   8.093   3.706
29925SOL    HW291615  13.860   8.144   3.604
29926SOL     OW91616   5.583  13.013   5.275
29926SOL    HW191617   5.617  13.061   5.199
29926SOL    HW291618   5.571  13.080   5.342
29927SOL     OW91619   6.473   9.549   6.756
29927SOL    HW191620   6.489   9.643   6.754
29927SOL    HW291621   6.508   9.517   6.673
29928SOL     OW91622   8.546   2.513   8.230
29928SOL    HW191623   8.503   2.567   8.163
29928SOL    HW291624   8.511   2.547   8.313
29929SOL     OW91625   9.513   9.830   5.670
29929SOL    HW191626   9.461   9.751   5.685
29929SOL    HW291627   9.603   9.798   5.663
29930SOL     OW91628   4.989  13.107   2.778
29930SOL    HW191629   5.016  13.039   2.840
29930SOL    HW291630   5.068  13.125   2.727
29931SOL     OW91631   2.478   0.187   7.125
29931SOL    HW191632   2.457   0.119   7.062
29931SOL    HW291633   2.409   0.252   7.114
29932SOL     OW91634   2.966  13.860   3.628
29932SOL    HW191635   2.916  13.876   3.547
29932SOL    HW291636   2.948  13.936   3.683
29933SOL     OW91637   3.477  14.204   4.336
29933SOL    HW191638   3.442  14.125   4.375
29933SOL    HW291639   3.549  14.174   4.280
29934SOL     OW91640  14.360  12.577   4.611
29934SOL    HW191641  14.417  12.642   4.570
29934SOL    HW291642  14.310  12.628   4.675
29935SOL     OW91643   6.778  11.377  13.905
29935SOL    HW191644   6.753  11.446  13.844
29935SOL    HW291645   6.858  11.409  13.947
29936SOL     OW91646   3.849  12.824   6.525
29936SOL    HW191647   3.814  12.904   6.564
29936SOL    HW291648   3.934  12.812   6.566
29937SOL     OW91649  10.902   0.810   3.041
29937SOL    HW191650  10.988   0.827   3.080
29937SOL    HW291651  10.915   0.732   2.988
29938SOL     OW91652  14.374   1.287   0.286
29938SOL    HW191653  14.372   1.194   0.306
29938SOL    HW291654  14.425   1.326   0.357
29939SOL     OW91655  13.555   5.745   1.380
29939SOL    HW191656  13.508   5.677   1.429
29939SOL    HW291657  13.646   5.734   1.406
29940SOL     OW91658   5.102   5.105   4.606
29940SOL    HW191659   5.170   5.085   4.542
29940SOL    HW291660   5.134   5.066   4.688
29941SOL     OW91661   8.450  12.550  10.940
29941SOL    HW191662   8.431  12.486  11.010
29941SOL    HW291663   8.441  12.500  10.859
29942SOL     OW91664   8.003   9.237   4.379
29942SOL    HW191665   8.075   9.286   4.417
29942SOL    HW291666   7.945   9.218   4.453
29943SOL     OW91667   5.401   8.892   9.716
29943SOL    HW191668   5.454   8.879   9.794
29943SOL    HW291669   5.347   8.969   9.735
29944SOL     OW91670   2.836   3.165   5.067
29944SOL    HW191671   2.802   3.077   5.087
29944SOL    HW291672   2.795   3.222   5.132
29945SOL     OW91673   5.548  13.850   8.689
29945SOL    HW191674   5.528  13.756   8.695
29945SOL    HW291675   5.589  13.871   8.774
29946SOL     OW91676   5.877   9.518   4.184
29946SOL    HW191677   5.820   9.440   4.180
29946SOL    HW291678   5.959   9.485   4.220
29947SOL     OW91679  11.641   3.133   7.486
29947SOL    HW191680  11.577   3.125   7.416
29947SOL    HW291681  11.639   3.226   7.511
29948SOL     OW91682   4.445  10.437  10.717
29948SOL    HW191683   4.429  10.509  10.779
29948SOL    HW291684   4.389  10.458  10.642
29949SOL     OW91685   9.951   6.553  14.164
29949SOL    HW191686  10.045   6.539  14.156
29949SOL    HW291687   9.914   6.465  14.166
29950SOL     OW91688  11.062  13.880  11.502
29950SOL    HW191689  10.991  13.938  11.527
29950SOL    HW291690  11.019  13.805  11.461
29951SOL     OW91691   6.969   9.193   5.565
29951SOL    HW191692   6.938   9.225   5.480
29951SOL    HW291693   6.946   9.100   5.564
29952SOL     OW91694  12.071   9.671  14.448
29952SOL    HW191695  12.040   9.654  14.359
29952SOL    HW291696  12.007   9.733  14.484
29953SOL     OW91697   8.318  12.302   1.161
29953SOL    HW191698   8.294  12.390   1.133
29953SOL    HW291699   8.306  12.302   1.256
29954SOL     OW91700   3.193   7.981   9.729
29954SOL    HW191701   3.146   7.919   9.785
29954SOL    HW291702   3.279   7.940   9.715
29955SOL     OW91703   0.546   3.037  11.306
29955SOL    HW191704   0.546   3.126  11.270
29955SOL    HW291705   0.614   3.039  11.373
29956SOL     OW91706  14.786   1.338  10.259
29956SOL    HW191707  14.793   1.247  10.289
29956SOL    HW291708  14.804   1.390  10.337
29957SOL     OW91709  11.639  10.537   2.077
29957SOL    HW191710  11.590  10.511   1.999
29957SOL    HW291711  11.726  10.499   2.066
29958SOL     OW91712   1.922   5.883  13.503
29958SOL    HW191713   1.828   5.862  13.507
29958SOL    HW291714   1.934   5.921  13.417
29959SOL     OW91715  13.712  10.845   4.394
29959SOL    HW191716  13.616  10.850   4.385
29959SOL    HW291717  13.743  10.927   4.355
29960SOL     OW91718   6.731   4.968   6.959
29960SOL    HW191719   6.785   4.910   7.011
29960SOL    HW291720   6.701   4.914   6.885
29961SOL     OW91721  11.799  11.407   1.296
29961SOL    HW191722  11.807  11.321   1.336
29961SOL    HW291723  11.890  11.434   1.279
29962SOL     OW91724   6.785  12.300   8.513
29962SOL    HW191725   6.741  12.275   8.432
29962SOL    HW291726   6.876  12.271   8.501
29963SOL     OW91727   3.345  14.705   7.822
29963SOL    HW191728   3.314  14.623   7.860
29963SOL    HW291729   3.438  14.692   7.807
29964SOL     OW91730   0.238  12.640   8.189
29964SOL    HW191731   0.154  12.685   8.187
29964SOL    HW291732   0.300  12.705   8.224
29965SOL     OW91733   2.515   5.965  13.293
29965SOL    HW191734   2.557   5.886  13.259
29965SOL    HW291735   2.582   6.033  13.285
29966SOL     OW91736   3.074  13.687   0.533
29966SOL    HW191737   3.095  13.722   0.447
29966SOL    HW291738   3.147  13.715   0.589
29967SOL     OW91739   8.996   4.485   5.396
29967SOL    HW191740   9.045   4.467   5.476
29967SOL    HW291741   8.979   4.399   5.358
29968SOL     OW91742   8.851   2.790  12.227
29968SOL    HW191743   8.802   2.860  12.270
29968SOL    HW291744   8.850   2.814  12.135
29969SOL     OW91745  11.084   1.174   7.288
29969SOL    HW191746  11.019   1.111   7.317
29969SOL    HW291747  11.089   1.162   7.193
29970SOL     OW91748  11.239   4.697   9.796
29970SOL    HW191749  11.266   4.770   9.852
29970SOL    HW291750  11.312   4.635   9.800
29971SOL     OW91751  12.368  11.532   5.688
29971SOL    HW191752  12.295  11.590   5.671
29971SOL    HW291753  12.445  11.580   5.657
29972SOL     OW91754   0.623   4.793   4.809
29972SOL    HW191755   0.702   4.740   4.814
29972SOL    HW291756   0.597   4.789   4.717
29973SOL     OW91757   4.555  10.180   4.021
29973SOL    HW191758   4.510  10.172   4.105
29973SOL    HW291759   4.647  10.190   4.044
29974SOL     OW91760  11.177   7.643   5.809
29974SOL    HW191761  11.119   7.652   5.885
29974SOL    HW291762  11.117   7.648   5.734
29975SOL     OW91763   6.483   1.735  13.108
29975SOL    HW191764   6.419   1.751  13.038
29975SOL    HW291765   6.452   1.656  13.151
29976SOL     OW91766   3.355  11.474   8.866
29976SOL    HW191767   3.365  11.455   8.773
29976SOL    HW291768   3.273  11.523   8.871
29977SOL     OW91769   2.318  13.878   5.427
29977SOL    HW191770   2.310  13.920   5.513
29977SOL    HW291771   2.298  13.948   5.365
29978SOL     OW91772   2.952   5.813   1.003
29978SOL    HW191773   2.972   5.743   1.065
29978SOL    HW291774   3.036   5.835   0.964
29979SOL     OW91775   1.845   1.669   8.714
29979SOL    HW191776   1.824   1.738   8.777
29979SOL    HW291777   1.930   1.635   8.743
29980SOL     OW91778   2.807  11.779   0.491
29980SOL    HW191779   2.809  11.869   0.459
29980SOL    HW291780   2.864  11.731   0.431
29981SOL     OW91781  12.608   8.864   8.663
29981SOL    HW191782  12.513   8.877   8.662
29981SOL    HW291783  12.619   8.769   8.668
29982SOL     OW91784   3.460  12.114   0.496
29982SOL    HW191785   3.436  12.041   0.438
29982SOL    HW291786   3.532  12.158   0.451
29983SOL     OW91787  14.808  10.656   6.269
29983SOL    HW191788  14.817  10.599   6.345
29983SOL    HW291789  14.782  10.741   6.305
29984SOL     OW91790   5.205   2.581  14.317
29984SOL    HW191791   5.112   2.603  14.320
29984SOL    HW291792   5.243   2.644  14.256
29985SOL     OW91793   0.992   8.855  13.446
29985SOL    HW191794   0.982   8.842  13.541
29985SOL    HW291795   0.982   8.950  13.434
29986SOL     OW91796  12.336   0.406   3.934
29986SOL    HW191797  12.413   0.459   3.913
29986SOL    HW291798  12.261   0.457   3.904
29987SOL     OW91799   6.663   9.389   8.881
29987SOL    HW191800   6.643   9.481   8.863
29987SOL    HW291801   6.693   9.354   8.797
29988SOL     OW91802  12.060   8.312  11.190
29988SOL    HW191803  12.143   8.295  11.233
29988SOL    HW291804  12.046   8.236  11.133
29989SOL     OW91805   5.062   8.358   7.548
29989SOL    HW191806   5.001   8.391   7.614
29989SOL    HW291807   5.124   8.304   7.598
29990SOL     OW91808   8.443   8.491  13.621
29990SOL    HW191809   8.392   8.463  13.544
29990SOL    HW291810   8.479   8.576  13.596
29991SOL     OW91811  14.116   0.927   6.658
29991SOL    HW191812  14.191   0.946   6.601
29991SOL    HW291813  14.151   0.871   6.726
29992SOL     OW91814  13.981   6.051   9.818
29992SOL    HW191815  14.067   6.026   9.785
29992SOL    HW291816  13.920   6.026   9.749
29993SOL     OW91817   6.427  11.499   0.674
29993SOL    HW191818   6.499  11.560   0.691
29993SOL    HW291819   6.351  11.542   0.712
29994SOL     OW91820  13.561   2.022  12.855
29994SOL    HW191821  13.626   2.092  12.864
29994SOL    HW291822  13.591   1.969  12.781
29995SOL     OW91823  14.871   2.475  14.825
29995SOL    HW191824  14.819   2.398  14.849
29995SOL    HW291825   0.059   2.440  14.766
29996SOL     OW91826   3.698   5.145   7.174
29996SOL    HW191827   3.693   5.049   7.181
29996SOL    HW291828   3.616   5.175   7.214
29997SOL     OW91829   5.727   0.290   3.254
29997SOL    HW191830   5.731   0.243   3.338
29997SOL    HW291831   5.669   0.236   3.200
29998SOL     OW91832  10.382  11.541  14.753
29998SOL    HW191833  10.405  11.571  14.841
29998SOL    HW291834  10.450  11.578  14.696
29999SOL     OW91835   8.380   8.561  10.575
29999SOL    HW191836   8.300   8.568  10.626
29999SOL    HW291837   8.377   8.473  10.537
30000SOL     OW91838   4.358   3.031   0.011
30000SOL    HW191839   4.399   3.080   0.082
30000SOL    HW291840   4.330   3.098  14.828
30001SOL     OW91841   3.173   1.319   5.147
30001SOL    HW191842   3.199   1.241   5.098
30001SOL    HW291843   3.093   1.293   5.192
30002SOL     OW91844   3.842   2.558  14.265
30002SOL    HW191845   3.922   2.595  14.227
30002SOL    HW291846   3.814   2.622  14.330
30003SOL     OW91847   9.084  11.376   8.311
30003SOL    HW191848   9.177  11.366   8.293
30003SOL    HW291849   9.072  11.337   8.398
30004SOL     OW91850   0.691   7.273   8.618
30004SOL    HW191851   0.713   7.211   8.549
30004SOL    HW291852   0.756   7.343   8.609
30005SOL     OW91853  13.246   8.821   9.386
30005SOL    HW191854  13.221   8.782   9.469
30005SOL    HW291855  13.209   8.909   9.388
30006SOL     OW91856   8.270   0.979   7.280
30006SOL    HW191857   8.199   1.026   7.236
30006SOL    HW291858   8.275   1.019   7.367
30007SOL     OW91859   3.725  13.741   8.653
30007SOL    HW191860   3.668  13.764   8.726
30007SOL    HW291861   3.770  13.823   8.632
30008SOL     OW91862   6.144   4.894  11.609
30008SOL    HW191863   6.058   4.885  11.649
30008SOL    HW291864   6.126   4.921  11.519
30009SOL     OW91865   7.341   2.221   0.457
30009SOL    HW191866   7.277   2.170   0.406
30009SOL    HW291867   7.418   2.166   0.459
30010SOL     OW91868   7.076  13.032   5.053
30010SOL    HW191869   7.111  13.072   5.133
30010SOL    HW291870   7.019  12.962   5.084
30011SOL     OW91871  14.047   4.961  14.578
30011SOL    HW191872  14.057   5.047  14.538
30011SOL    HW291873  13.963   4.966  14.624
30012SOL     OW91874   0.606   4.160  14.498
30012SOL    HW191875   0.527   4.140  14.448
30012SOL    HW291876   0.668   4.091  14.472
30013SOL     OW91877  13.096   5.552   7.086
30013SOL    HW191878  13.048   5.550   7.169
30013SOL    HW291879  13.116   5.460   7.068
30014SOL     OW91880  14.020   5.390   8.085
30014SOL    HW191881  13.977   5.370   8.001
30014SOL    HW291882  14.013   5.485   8.093
30015SOL     OW91883   3.529  10.536   3.497
30015SOL    HW191884   3.522  10.441   3.500
30015SOL    HW291885   3.479  10.562   3.419
30016SOL     OW91886   1.587   9.441   0.496
30016SOL    HW191887   1.644   9.433   0.573
30016SOL    HW291888   1.612   9.369   0.439
30017SOL     OW91889  10.248   0.965   4.517
30017SOL    HW191890  10.213   0.927   4.598
30017SOL    HW291891  10.267   1.056   4.540
30018SOL     OW91892   4.452   7.591  13.084
30018SOL    HW191893   4.378   7.650  13.071
30018SOL    HW291894   4.510   7.638  13.144
30019SOL     OW91895  14.492   0.076   9.466
30019SOL    HW191896  14.441   0.149   9.503
30019SOL    HW291897  14.493   0.011   9.536
30020SOL     OW91898  11.933   9.958   2.274
30020SOL    HW191899  11.954  10.035   2.327
30020SOL    HW291900  11.842   9.973   2.245
30021SOL     OW91901  12.627  14.107  12.933
30021SOL    HW191902  12.540  14.073  12.915
30021SOL    HW291903  12.635  14.105  13.029
30022SOL     OW91904   1.619   7.906  11.440
30022SOL    HW191905   1.603   8.000  11.448
30022SOL    HW291906   1.683   7.898  11.369
30023SOL     OW91907   6.572  10.187   1.226
30023SOL    HW191908   6.567  10.108   1.280
30023SOL    HW291909   6.572  10.154   1.136
30024SOL     OW91910  13.629   3.452   8.033
30024SOL    HW191911  13.612   3.384   7.967
30024SOL    HW291912  13.599   3.533   7.992
30025SOL     OW91913  11.761   6.291   5.400
30025SOL    HW191914  11.686   6.350   5.387
30025SOL    HW291915  11.801   6.282   5.314
30026SOL     OW91916   6.962   9.440   6.214
30026SOL    HW191917   6.994   9.447   6.304
30026SOL    HW291918   7.039   9.417   6.163
30027SOL     OW91919   7.653   3.946  13.391
30027SOL    HW191920   7.626   4.035  13.414
30027SOL    HW291921   7.616   3.891  13.460
30028SOL     OW91922  10.340   7.858  14.064
30028SOL    HW191923  10.285   7.935  14.049
30028SOL    HW291924  10.418   7.874  14.012
30029SOL     OW91925  10.380  10.499   1.187
30029SOL    HW191926  10.366  10.460   1.101
30029SOL    HW291927  10.361  10.428   1.248
30030SOL     OW91928   3.954   1.899   4.607
30030SOL    HW191929   4.024   1.936   4.554
30030SOL    HW291930   3.999   1.843   4.670
30031SOL     OW91931   5.090   1.280   0.210
30031SOL    HW191932   5.048   1.366   0.209
30031SOL    HW291933   5.018   1.219   0.193
30032SOL     OW91934   0.878   0.818   6.380
30032SOL    HW191935   0.796   0.775   6.403
30032SOL    HW291936   0.946   0.755   6.406
30033SOL     OW91937   1.138   9.700   6.251
30033SOL    HW191938   1.172   9.772   6.197
30033SOL    HW291939   1.170   9.621   6.207
30034SOL     OW91940  10.192   0.030  14.623
30034SOL    HW191941  10.226   0.115  14.651
30034SOL    HW291942  10.258  14.847  14.649
30035SOL     OW91943  11.427  14.115  10.202
30035SOL    HW191944  11.366  14.084  10.135
30035SOL    HW291945  11.390  14.084  10.284
30036SOL     OW91946   0.343   4.483   0.483
30036SOL    HW191947   0.419   4.461   0.537
30036SOL    HW291948   0.359   4.440   0.399
30037SOL     OW91949  11.097   1.246   2.673
30037SOL    HW191950  11.065   1.159   2.650
30037SOL    HW291951  11.162   1.231   2.742
30038SOL     OW91952   5.544   6.841  10.562
30038SOL    HW191953   5.615   6.840  10.627
30038SOL    HW291954   5.467   6.814  10.611
30039SOL     OW91955   9.291   6.472   1.032
30039SOL    HW191956   9.308   6.550   1.085
30039SOL    HW291957   9.326   6.400   1.083
30040SOL     OW91958   1.663   4.276   0.832
30040SOL    HW191959   1.618   4.196   0.861
30040SOL    HW291960   1.637   4.343   0.895
30041SOL     OW91961  13.558   6.417   0.933
30041SOL    HW191962  13.637   6.469   0.949
30041SOL    HW291963  13.522   6.454   0.852
30042SOL     OW91964  14.826   3.216  13.969
30042SOL    HW191965  14.878   3.151  13.920
30042SOL    HW291966  14.871   3.299  13.953
30043SOL     OW91967  12.333   7.806   1.007
30043SOL    HW191968  12.311   7.718   1.036
30043SOL    HW291969  12.255   7.858   1.026
30044SOL     OW91970   4.091   9.927   5.185
30044SOL    HW191971   4.186   9.929   5.199
30044SOL    HW291972   4.080   9.889   5.098
30045SOL     OW91973  12.704  14.425   0.504
30045SOL    HW191974  12.738  14.470   0.426
30045SOL    HW291975  12.685  14.496   0.566
30046SOL     OW91976  11.032  10.973  10.850
30046SOL    HW191977  10.942  10.941  10.846
30046SOL    HW291978  11.059  10.982  10.758
30047SOL     OW91979   9.279  11.282   4.884
30047SOL    HW191980   9.208  11.340   4.911
30047SOL    HW291981   9.321  11.327   4.811
30048SOL     OW91982  13.251   1.854   9.040
30048SOL    HW191983  13.260   1.775   8.985
30048SOL    HW291984  13.186   1.907   8.994
30049SOL     OW91985   2.335   7.508   9.872
30049SOL    HW191986   2.414   7.494   9.925
30049SOL    HW291987   2.299   7.590   9.905
30050SOL     OW91988   9.493   8.324   0.304
30050SOL    HW191989   9.519   8.393   0.364
30050SOL    HW291990   9.532   8.349   0.220
30051SOL     OW91991   8.514  13.809   7.089
30051SOL    HW191992   8.427  13.803   7.128
30051SOL    HW291993   8.533  13.902   7.086
30052SOL     OW91994   7.858   2.891   0.833
30052SOL    HW191995   7.855   2.881   0.929
30052SOL    HW291996   7.944   2.929   0.816
30053SOL     OW91997  13.574   3.311  10.357
30053SOL    HW191998  13.663   3.295  10.389
30053SOL    HW291999  13.530   3.226  10.367
30054SOL     OW92000   7.259  11.909  11.180
30054SOL    HW192001   7.230  12.000  11.186
30054SOL    HW292002   7.300  11.903  11.093
30055SOL     OW92003   1.221   0.300   0.595
30055SOL    HW192004   1.226   0.232   0.527
30055SOL    HW292005   1.129   0.304   0.619
30056SOL     OW92006  13.868   2.151   8.315
30056SOL    HW192007  13.952   2.159   8.361
30056SOL    HW292008  13.890   2.161   8.223
30057SOL     OW92009   9.129   5.513  14.277
30057SOL    HW192010   9.091   5.490  14.362
30057SOL    HW292011   9.220   5.481  14.282
30058SOL     OW92012  14.166  14.458   4.332
30058SOL    HW192013  14.129  14.504   4.257
30058SOL    HW292014  14.216  14.524   4.379
30059SOL     OW92015   1.997   9.932   0.732
30059SOL    HW192016   2.060   9.916   0.802
30059SOL    HW292017   2.049   9.971   0.662
30060SOL     OW92018   2.994   3.132   7.008
30060SOL    HW192019   2.935   3.196   7.048
30060SOL    HW292020   2.965   3.048   7.044
30061SOL     OW92021   9.120  13.894   4.119
30061SOL    HW192022   9.197  13.914   4.065
30061SOL    HW292023   9.151  13.831   4.183
30062SOL     OW92024   9.670   7.627   3.297
30062SOL    HW192025   9.596   7.574   3.266
30062SOL    HW292026   9.640   7.717   3.288
30063SOL     OW92027   6.738  11.718   6.038
30063SOL    HW192028   6.672  11.743   6.103
30063SOL    HW292029   6.688  11.682   5.965
30064SOL     OW92030   8.956   0.831   7.424
30064SOL    HW192031   8.975   0.793   7.510
30064SOL    HW292032   8.916   0.916   7.443
30065SOL     OW92033  12.356   9.858  12.607
30065SOL    HW192034  12.334   9.943  12.570
30065SOL    HW292035  12.274   9.810  12.607
30066SOL     OW92036   3.814  12.065   7.833
30066SOL    HW192037   3.902  12.031   7.851
30066SOL    HW292038   3.827  12.128   7.762
30067SOL     OW92039  12.698  11.878   1.089
30067SOL    HW192040  12.656  11.925   1.017
30067SOL    HW292041  12.665  11.920   1.168
30068SOL     OW92042   5.266   1.257   7.186
30068SOL    HW192043   5.290   1.344   7.218
30068SOL    HW292044   5.341   1.202   7.207
30069SOL     OW92045  10.396   5.492   6.204
30069SOL    HW192046  10.472   5.542   6.175
30069SOL    HW292047  10.406   5.406   6.163
30070SOL     OW92048  11.492   1.669   8.417
30070SOL    HW192049  11.574   1.621   8.427
30070SOL    HW292050  11.464   1.651   8.328
30071SOL     OW92051  14.818  11.052  11.984
30071SOL    HW192052  14.795  11.145  11.991
30071SOL    HW292053   0.019  11.052  11.931
30072SOL     OW92054   6.356   0.115   3.085
30072SOL    HW192055   6.389   0.142   3.000
30072SOL    HW292056   6.434   0.111   3.141
30073SOL     OW92057  14.560  13.358   7.902
30073SOL    HW192058  14.621  13.421   7.939
30073SOL    HW292059  14.599  13.333   7.818
30074SOL     OW92060   0.521   5.110  13.276
30074SOL    HW192061   0.467   5.032  13.292
30074SOL    HW292062   0.597   5.097  13.332
30075SOL     OW92063  11.498   5.832  11.159
30075SOL    HW192064  11.515   5.772  11.232
30075SOL    HW292065  11.457   5.908  11.200
30076SOL     OW92066  10.190  12.964   5.686
30076SOL    HW192067  10.169  12.907   5.612
30076SOL    HW292068  10.276  12.933   5.715
30077SOL     OW92069   3.048   2.895   1.671
30077SOL    HW192070   3.052   2.842   1.751
30077SOL    HW292071   3.026   2.983   1.702
30078SOL     OW92072   6.004  13.203  12.829
30078SOL    HW192073   6.036  13.162  12.909
30078SOL    HW292074   5.910  13.209  12.841
30079SOL     OW92075  12.940   8.042   9.694
30079SOL    HW192076  12.976   8.054   9.607
30079SOL    HW292077  12.946   8.128   9.735
30080SOL     OW92078  12.748   2.264  10.122
30080SOL    HW192079  12.802   2.235  10.196
30080SOL    HW292080  12.683   2.194  10.112
30081SOL     OW92081   5.446   7.764   4.689
30081SOL    HW192082   5.377   7.724   4.636
30081SOL    HW292083   5.436   7.858   4.674
30082SOL     OW92084   6.531   9.281  12.569
30082SOL    HW192085   6.605   9.327  12.609
30082SOL    HW292086   6.524   9.199  12.619
30083SOL     OW92087   1.224  11.490   4.189
30083SOL    HW192088   1.302  11.450   4.227
30083SOL    HW292089   1.155  11.425   4.202
30084SOL     OW92090  12.205  14.191   1.074
30084SOL    HW192091  12.234  14.274   1.036
30084SOL    HW292092  12.286  14.145   1.095
30085SOL     OW92093   6.655   9.846   4.272
30085SOL    HW192094   6.664   9.851   4.177
30085SOL    HW292095   6.565   9.871   4.290
30086SOL     OW92096   1.536   1.815  13.475
30086SOL    HW192097   1.571   1.799  13.563
30086SOL    HW292098   1.457   1.867  13.491
30087SOL     OW92099  13.710   1.044   0.518
30087SOL    HW192100  13.795   1.059   0.559
30087SOL    HW292101  13.718   0.958   0.476
30088SOL     OW92102   0.258   3.868   7.054
30088SOL    HW192103   0.199   3.859   7.129
30088SOL    HW292104   0.322   3.799   7.065
30089SOL     OW92105   9.230   0.830   9.474
30089SOL    HW192106   9.262   0.861   9.559
30089SOL    HW292107   9.136   0.821   9.486
30090SOL     OW92108  11.259  12.679  10.584
30090SOL    HW192109  11.268  12.586  10.607
30090SOL    HW292110  11.333  12.721  10.628
30091SOL     OW92111   0.998  13.697  11.804
30091SOL    HW192112   1.063  13.639  11.845
30091SOL    HW292113   0.979  13.762  11.871
30092SOL     OW92114   0.953   5.854  14.293
30092SOL    HW192115   0.909   5.853  14.378
30092SOL    HW292116   0.917   5.780  14.246
30093SOL     OW92117   6.172   4.244   0.579
30093SOL    HW192118   6.126   4.173   0.624
30093SOL    HW292119   6.263   4.234   0.607
30094SOL     OW92120  10.193   0.235  13.729
30094SOL    HW192121  10.266   0.295  13.715
30094SOL    HW292122  10.170   0.247  13.821
30095SOL     OW92123   3.393   2.660  11.019
30095SOL    HW192124   3.399   2.754  11.001
30095SOL    HW292125   3.299   2.642  11.021
30096SOL     OW92126   6.044   2.322   0.035
30096SOL    HW192127   6.017   2.394   0.093
30096SOL    HW292128   6.128   2.293   0.070
30097SOL     OW92129   0.623   4.102   9.264
30097SOL    HW192130   0.581   4.050   9.196
30097SOL    HW292131   0.550   4.137   9.316
30098SOL     OW92132  12.064   4.181  12.342
30098SOL    HW192133  11.973   4.183  12.313
30098SOL    HW292134  12.096   4.270  12.332
30099SOL     OW92135   8.076  12.387   3.248
30099SOL    HW192136   8.039  12.463   3.292
30099SOL    HW292137   8.170  12.391   3.267
30100SOL     OW92138   6.178  12.873   6.476
30100SOL    HW192139   6.151  12.912   6.558
30100SOL    HW292140   6.096  12.842   6.436
30101SOL     OW92141   2.272  11.804  14.044
30101SOL    HW192142   2.346  11.771  14.094
30101SOL    HW292143   2.251  11.888  14.085
30102SOL     OW92144   4.827   4.511  12.722
30102SOL    HW192145   4.762   4.529  12.791
30102SOL    HW292146   4.871   4.432  12.752
30103SOL     OW92147   7.208   1.532  12.218
30103SOL    HW192148   7.271   1.581  12.271
30103SOL    HW292149   7.123   1.572  12.240
30104SOL     OW92150  11.959   1.714  13.012
30104SOL    HW192151  12.023   1.674  12.954
30104SOL    HW292152  11.895   1.646  13.029
30105SOL     OW92153   3.851   0.344  12.445
30105SOL    HW192154   3.846   0.439  12.432
30105SOL    HW292155   3.765   0.321  12.481
30106SOL     OW92156   7.766   6.841   0.266
30106SOL    HW192157   7.682   6.841   0.220
30106SOL    HW292158   7.803   6.928   0.250
30107SOL     OW92159   7.074  11.164  11.722
30107SOL    HW192160   7.062  11.136  11.631
30107SOL    HW292161   7.079  11.260  11.717
30108SOL     OW92162  14.837   8.754  11.081
30108SOL    HW192163  14.812   8.691  11.013
30108SOL    HW292164   0.007   8.821  11.035
30109SOL     OW92165   3.526  13.327  11.268
30109SOL    HW192166   3.557  13.410  11.305
30109SOL    HW292167   3.589  13.307  11.199
30110SOL     OW92168   0.597  10.937   8.645
30110SOL    HW192169   0.604  10.869   8.578
30110SOL    HW292170   0.687  10.964   8.662
30111SOL     OW92171   8.469   0.440   0.697
30111SOL    HW192172   8.513   0.355   0.689
30111SOL    HW292173   8.408   0.429   0.769
30112SOL     OW92174   6.767  11.569  13.241
30112SOL    HW192175   6.860  11.580  13.218
30112SOL    HW292176   6.757  11.622  13.320
30113SOL     OW92177   6.283   3.558   8.805
30113SOL    HW192178   6.296   3.568   8.710
30113SOL    HW292179   6.299   3.645   8.841
30114SOL     OW92180  11.131   6.877   4.660
30114SOL    HW192181  11.151   6.961   4.701
30114SOL    HW292182  11.121   6.898   4.567
30115SOL     OW92183   3.902  13.084  11.671
30115SOL    HW192184   3.883  12.993  11.651
30115SOL    HW292185   3.990  13.099  11.637
30116SOL     OW92186   0.958   2.008   8.581
30116SOL    HW192187   0.864   2.021   8.565
30116SOL    HW292188   1.001   2.040   8.502
30117SOL     OW92189   6.765   9.336   2.691
30117SOL    HW192190   6.804   9.257   2.728
30117SOL    HW292191   6.701   9.364   2.756
30118SOL     OW92192   8.640  14.154  10.284
30118SOL    HW192193   8.603  14.068  10.264
30118SOL    HW292194   8.723  14.156  10.235
30119SOL     OW92195   2.591   0.950   6.619
30119SOL    HW192196   2.662   0.944   6.683
30119SOL    HW292197   2.566   1.042   6.619
30120SOL     OW92198  14.392  12.771   9.427
30120SOL    HW192199  14.384  12.728   9.512
30120SOL    HW292200  14.306  12.810   9.412
30121SOL     OW92201   0.494   1.366   4.290
30121SOL    HW192202   0.407   1.385   4.326
30121SOL    HW292203   0.500   1.421   4.213
30122SOL     OW92204   4.776   8.918  12.639
30122SOL    HW192205   4.817   8.845  12.593
30122SOL    HW292206   4.703   8.879  12.687
30123SOL     OW92207  13.762   4.566   8.351
30123SOL    HW192208  13.856   4.551   8.363
30123SOL    HW292209  13.752   4.660   8.363
30124SOL     OW92210   6.092   1.842  10.101
30124SOL    HW192211   6.152   1.849  10.027
30124SOL    HW292212   6.149   1.842  10.178
30125SOL     OW92213  11.677   5.059   1.590
30125SOL    HW192214  11.608   5.112   1.549
30125SOL    HW292215  11.756   5.080   1.540
30126SOL     OW92216   9.999   9.819   3.235
30126SOL    HW192217  10.000   9.826   3.331
30126SOL    HW292218   9.983   9.727   3.218
30127SOL     OW92219   7.726   1.964  11.116
30127SOL    HW192220   7.714   1.941  11.208
30127SOL    HW292221   7.686   1.891  11.068
30128SOL     OW92222   1.436   8.840   5.458
30128SOL    HW192223   1.438   8.785   5.536
30128SOL    HW292224   1.434   8.929   5.492
30129SOL     OW92225  13.422   9.663   6.106
30129SOL    HW192226  13.435   9.697   6.018
30129SOL    HW292227  13.477   9.718   6.162
30130SOL     OW92228   0.175   7.866  11.299
30130SOL    HW192229   0.088   7.894  11.326
30130SOL    HW292230   0.167   7.772  11.282
30131SOL     OW92231  13.375   0.012   2.664
30131SOL    HW192232  13.436   0.029   2.736
30131SOL    HW292233  13.430  14.855   2.595
30132SOL     OW92234   9.440  12.708   5.440
30132SOL    HW192235   9.401  12.785   5.482
30132SOL    HW292236   9.528  12.702   5.477
30133SOL     OW92237   0.983  11.588  14.336
30133SOL    HW192238   1.047  11.575  14.406
30133SOL    HW292239   1.036  11.602  14.257
30134SOL     OW92240  11.421   2.228   3.097
30134SOL    HW192241  11.416   2.145   3.145
30134SOL    HW292242  11.414   2.202   3.005
30135SOL     OW92243   1.297   4.792   4.959
30135SOL    HW192244   1.371   4.745   4.920
30135SOL    HW292245   1.222   4.768   4.905
30136SOL     OW92246  13.745  11.060  12.878
30136SOL    HW192247  13.815  11.091  12.936
30136SOL    HW292248  13.730  10.969  12.906
30137SOL     OW92249  10.684   3.747   4.483
30137SOL    HW192250  10.733   3.741   4.565
30137SOL    HW292251  10.633   3.666   4.479
30138SOL     OW92252   6.304   1.228  13.021
30138SOL    HW192253   6.256   1.276  13.089
30138SOL    HW292254   6.236   1.196  12.962
30139SOL     OW92255   5.999  13.122   1.895
30139SOL    HW192256   6.031  13.040   1.857
30139SOL    HW292257   6.010  13.187   1.825
30140SOL     OW92258   4.637   1.205   5.520
30140SOL    HW192259   4.552   1.234   5.487
30140SOL    HW292260   4.618   1.159   5.601
30141SOL     OW92261   9.096  14.169  13.394
30141SOL    HW192262   9.188  14.156  13.371
30141SOL    HW292263   9.087  14.132  13.482
30142SOL     OW92264   2.748   3.852   2.130
30142SOL    HW192265   2.688   3.787   2.092
30142SOL    HW292266   2.725   3.934   2.086
30143SOL     OW92267   8.292  13.037   6.748
30143SOL    HW192268   8.386  13.039   6.768
30143SOL    HW292269   8.285  13.082   6.664
30144SOL     OW92270   5.678   1.590   3.747
30144SOL    HW192271   5.674   1.533   3.825
30144SOL    HW292272   5.772   1.601   3.730
30145SOL     OW92273  12.393   6.490   8.974
30145SOL    HW192274  12.362   6.400   8.985
30145SOL    HW292275  12.392   6.505   8.879
30146SOL     OW92276  11.321  11.551  12.729
30146SOL    HW192277  11.250  11.581  12.672
30146SOL    HW292278  11.374  11.494  12.673
30147SOL     OW92279   7.208   0.395  10.166
30147SOL    HW192280   7.223   0.377  10.258
30147SOL    HW292281   7.121   0.361  10.147
30148SOL     OW92282   0.961   7.715   3.897
30148SOL    HW192283   0.953   7.664   3.816
30148SOL    HW292284   0.995   7.800   3.869
30149SOL     OW92285   5.161  13.609   9.733
30149SOL    HW192286   5.233  13.554   9.767
30149SOL    HW292287   5.183  13.622   9.641
30150SOL     OW92288   7.874  11.128   5.662
30150SOL    HW192289   7.866  11.076   5.742
30150SOL    HW292290   7.787  11.126   5.623
30151SOL     OW92291  11.717   7.431   7.086
30151SOL    HW192292  11.720   7.405   6.994
30151SOL    HW292293  11.637   7.391   7.120
30152SOL     OW92294  10.676   0.671   0.364
30152SOL    HW192295  10.652   0.638   0.451
30152SOL    HW292296  10.768   0.647   0.354
30153SOL     OW92297  10.730   7.331   2.285
30153SOL    HW192298  10.809   7.290   2.320
30153SOL    HW292299  10.762   7.404   2.232
30154SOL     OW92300   4.893  11.626   0.164
30154SOL    HW192301   4.874  11.561   0.233
30154SOL    HW292302   4.958  11.583   0.109
30155SOL     OW92303   7.435   3.120   8.472
30155SOL    HW192304   7.518   3.166   8.480
30155SOL    HW292305   7.460   3.030   8.448
30156SOL     OW92306   3.767   9.238  12.523
30156SOL    HW192307   3.814   9.308  12.569
30156SOL    HW292308   3.675   9.249  12.549
30157SOL     OW92309  13.277   8.251   3.020
30157SOL    HW192310  13.305   8.336   3.056
30157SOL    HW292311  13.359   8.203   3.009
30158SOL     OW92312   5.184   8.365   4.043
30158SOL    HW192313   5.227   8.431   3.988
30158SOL    HW292314   5.231   8.284   4.024
30159SOL     OW92315   9.631  14.543  10.555
30159SOL    HW192316   9.602  14.632  10.577
30159SOL    HW292317   9.714  14.533  10.602
30160SOL     OW92318  10.168   0.583   4.194
30160SOL    HW192319  10.089   0.572   4.141
30160SOL    HW292320  10.171   0.676   4.215
30161SOL     OW92321   2.222   3.313  14.649
30161SOL    HW192322   2.277   3.349  14.719
30161SOL    HW292323   2.214   3.385  14.586
30162SOL     OW92324   0.318   1.632   3.685
30162SOL    HW192325   0.325   1.547   3.727
30162SOL    HW292326   0.373   1.625   3.607
30163SOL     OW92327   9.966   2.014   3.858
30163SOL    HW192328  10.017   2.049   3.930
30163SOL    HW292329  10.007   1.929   3.839
30164SOL     OW92330   1.502   7.418   9.858
30164SOL    HW192331   1.509   7.502   9.903
30164SOL    HW292332   1.410   7.394   9.866
30165SOL     OW92333   3.371   6.831  13.151
30165SOL    HW192334   3.446   6.843  13.092
30165SOL    HW292335   3.350   6.919  13.181
30166SOL     OW92336   7.375   1.230  14.633
30166SOL    HW192337   7.297   1.224  14.689
30166SOL    HW292338   7.379   1.145  14.589
30167SOL     OW92339  13.879   5.369   7.865
30167SOL    HW192340  13.904   5.459   7.841
30167SOL    HW292341  13.790   5.359   7.831
30168SOL     OW92342   0.104   5.209   9.119
30168SOL    HW192343   0.099   5.275   9.188
30168SOL    HW292344   0.022   5.161   9.126
30169SOL     OW92345  10.794   6.810   6.348
30169SOL    HW192346  10.853   6.862   6.293
30169SOL    HW292347  10.767   6.871   6.418
30170SOL     OW92348  13.855  11.594   3.286
30170SOL    HW192349  13.886  11.658   3.222
30170SOL    HW292350  13.824  11.520   3.233
30171SOL     OW92351   4.121  14.728  14.576
30171SOL    HW192352   4.117  14.691  14.665
30171SOL    HW292353   4.144  14.820  14.589
30172SOL     OW92354  10.279  13.473   5.237
30172SOL    HW192355  10.365  13.505   5.209
30172SOL    HW292356  10.299  13.398   5.293
30173SOL     OW92357  13.688  10.556   1.621
30173SOL    HW192358  13.645  10.516   1.697
30173SOL    HW292359  13.623  10.616   1.585
30174SOL     OW92360   6.471   3.222   1.265
30174SOL    HW192361   6.486   3.310   1.301
30174SOL    HW292362   6.475   3.234   1.170
30175SOL     OW92363  13.961   0.724   9.105
30175SOL    HW192364  13.962   0.688   9.193
30175SOL    HW292365  14.052   0.718   9.076
30176SOL     OW92366   8.154   1.468  14.625
30176SOL    HW192367   8.128   1.376  14.634
30176SOL    HW292368   8.083   1.517  14.668
30177SOL     OW92369   2.500  11.464   3.774
30177SOL    HW192370   2.462  11.377   3.789
30177SOL    HW292371   2.464  11.492   3.691
30178SOL     OW92372   6.685   8.305  13.057
30178SOL    HW192373   6.616   8.258  13.010
30178SOL    HW292374   6.717   8.242  13.121
30179SOL     OW92375  11.149  14.032   1.396
30179SOL    HW192376  11.144  14.104   1.459
30179SOL    HW292377  11.058  14.005   1.384
30180SOL     OW92378   0.664   9.281   2.877
30180SOL    HW192379   0.583   9.332   2.875
30180SOL    HW292380   0.637   9.194   2.907
30181SOL     OW92381   2.533   0.774   9.382
30181SOL    HW192382   2.577   0.841   9.434
30181SOL    HW292383   2.587   0.696   9.393
30182SOL     OW92384   3.011   9.590   0.220
30182SOL    HW192385   2.941   9.652   0.199
30182SOL    HW292386   2.971   9.530   0.283
30183SOL     OW92387   4.836   7.071   9.690
30183SOL    HW192388   4.762   7.027   9.649
30183SOL    HW292389   4.892   7.097   9.618
30184SOL     OW92390   6.492   3.061   4.448
30184SOL    HW192391   6.446   3.105   4.376
30184SOL    HW292392   6.427   3.006   4.490
30185SOL     OW92393   2.403   4.880  12.212
30185SOL    HW192394   2.431   4.913  12.298
30185SOL    HW292395   2.337   4.814  12.232
30186SOL     OW92396  11.581  12.514  12.574
30186SOL    HW192397  11.567  12.478  12.661
30186SOL    HW292398  11.514  12.582  12.565
30187SOL     OW92399   3.809  10.541   8.674
30187SOL    HW192400   3.793  10.602   8.602
30187SOL    HW292401   3.726  10.538   8.722
30188SOL     OW92402  10.002   9.189  11.720
30188SOL    HW192403  10.066   9.159  11.785
30188SOL    HW292404  10.010   9.284  11.722
30189SOL     OW92405  13.327   4.868  14.808
30189SOL    HW192406  13.252   4.924  14.785
30189SOL    HW292407  13.371   4.916  14.878
30190SOL     OW92408   3.500   0.970  11.632
30190SOL    HW192409   3.442   0.896  11.650
30190SOL    HW292410   3.584   0.945  11.671
30191SOL     OW92411   9.977  12.398   4.336
30191SOL    HW192412   9.891  12.438   4.348
30191SOL    HW292413  10.034  12.472   4.315
30192SOL     OW92414   0.096  11.827   1.131
30192SOL    HW192415   0.052  11.881   1.065
30192SOL    HW292416   0.069  11.738   1.111
30193SOL     OW92417   2.112   0.249  12.624
30193SOL    HW192418   2.164   0.172  12.602
30193SOL    HW292419   2.122   0.258  12.719
30194SOL     OW92420  13.614   2.157   5.814
30194SOL    HW192421  13.557   2.191   5.884
30194SOL    HW292422  13.665   2.233   5.786
30195SOL     OW92423   8.684  11.814   1.988
30195SOL    HW192424   8.624  11.769   1.928
30195SOL    HW292425   8.655  11.905   1.988
30196SOL     OW92426  14.626   8.734   3.667
30196SOL    HW192427  14.620   8.643   3.694
30196SOL    HW292428  14.538   8.757   3.637
30197SOL     OW92429   2.356   1.085  11.467
30197SOL    HW192430   2.324   1.162  11.421
30197SOL    HW292431   2.279   1.030  11.479
30198SOL     OW92432   4.829   2.828  14.656
30198SOL    HW192433   4.778   2.771  14.599
30198SOL    HW292434   4.915   2.833  14.614
30199SOL     OW92435   4.504   9.542   1.606
30199SOL    HW192436   4.460   9.567   1.687
30199SOL    HW292437   4.484   9.612   1.545
30200SOL     OW92438  13.936  11.428   7.003
30200SOL    HW192439  13.915  11.517   6.974
30200SOL    HW292440  13.872  11.410   7.072
30201SOL     OW92441   5.076  13.545   7.228
30201SOL    HW192442   5.111  13.476   7.284
30201SOL    HW292443   5.063  13.620   7.287
30202SOL     OW92444   4.817  11.847   0.080
30202SOL    HW192445   4.852  11.761   0.105
30202SOL    HW292446   4.768  11.877   0.157
30203SOL     OW92447  14.056  13.381  11.946
30203SOL    HW192448  14.013  13.345  11.868
30203SOL    HW292449  14.143  13.340  11.946
30204SOL     OW92450   8.901  13.698  12.211
30204SOL    HW192451   8.856  13.645  12.144
30204SOL    HW292452   8.837  13.705  12.282
30205SOL     OW92453   4.514   3.649  10.629
30205SOL    HW192454   4.549   3.637  10.717
30205SOL    HW292455   4.463   3.569  10.613
30206SOL     OW92456   1.818  12.515   5.961
30206SOL    HW192457   1.836  12.442   5.902
30206SOL    HW292458   1.785  12.473   6.041
30207SOL     OW92459   4.378   3.709   7.003
30207SOL    HW192460   4.405   3.794   6.969
30207SOL    HW292461   4.458   3.655   6.999
30208SOL     OW92462  14.662  10.948   3.881
30208SOL    HW192463  14.616  10.865   3.897
30208SOL    HW292464  14.616  10.986   3.806
30209SOL     OW92465  11.974   9.554   3.589
30209SOL    HW192466  11.965   9.494   3.662
30209SOL    HW292467  11.961   9.500   3.511
30210SOL     OW92468   6.428  10.621   2.798
30210SOL    HW192469   6.420  10.580   2.884
30210SOL    HW292470   6.478  10.557   2.746
30211SOL     OW92471   8.634   8.202   1.650
30211SOL    HW192472   8.612   8.151   1.729
30211SOL    HW292473   8.636   8.293   1.680
30212SOL     OW92474   5.266   4.542  13.635
30212SOL    HW192475   5.172   4.543  13.619
30212SOL    HW292476   5.287   4.633  13.658
30213SOL     OW92477  11.317  14.180  14.847
30213SOL    HW192478  11.325  14.237  14.771
30213SOL    HW292479  11.273  14.102  14.813
30214SOL     OW92480   0.166   3.905   0.398
30214SOL    HW192481   0.168   3.868   0.487
30214SOL    HW292482   0.084   3.872   0.360
30215SOL     OW92483   4.448   5.291   8.720
30215SOL    HW192484   4.501   5.266   8.645
30215SOL    HW292485   4.387   5.357   8.686
30216SOL     OW92486   8.825   8.969  12.182
30216SOL    HW192487   8.771   8.901  12.221
30216SOL    HW292488   8.770   9.047  12.182
30217SOL     OW92489  10.535  10.510   6.268
30217SOL    HW192490  10.554  10.477   6.181
30217SOL    HW292491  10.458  10.460   6.296
30218SOL     OW92492  10.704  12.282  11.534
30218SOL    HW192493  10.631  12.336  11.563
30218SOL    HW292494  10.665  12.222  11.470
30219SOL     OW92495   1.161   9.949   0.579
30219SOL    HW192496   1.157   9.855   0.559
30219SOL    HW292497   1.245   9.959   0.626
30220SOL     OW92498   5.338   3.119   0.332
30220SOL    HW192499   5.389   3.082   0.260
30220SOL    HW292500   5.248   3.092   0.313
30221SOL     OW92501   2.471   9.589  13.641
30221SOL    HW192502   2.511   9.672  13.665
30221SOL    HW292503   2.532   9.523  13.674
30222SOL     OW92504   2.841   5.237   2.446
30222SOL    HW192505   2.897   5.267   2.518
30222SOL    HW292506   2.754   5.229   2.486
30223SOL     OW92507  13.310  13.226   8.528
30223SOL    HW192508  13.399  13.259   8.531
30223SOL    HW292509  13.292  13.194   8.616
30224SOL     OW92510  14.066   7.243  12.596
30224SOL    HW192511  14.162   7.251  12.594
30224SOL    HW292512  14.036   7.319  12.645
30225SOL     OW92513  10.796   8.369  13.022
30225SOL    HW192514  10.885   8.332  13.017
30225SOL    HW292515  10.741   8.303  12.980
30226SOL     OW92516   6.153   2.025   1.341
30226SOL    HW192517   6.074   1.972   1.329
30226SOL    HW292518   6.218   1.964   1.376
30227SOL     OW92519   2.960   7.762  11.615
30227SOL    HW192520   3.013   7.811  11.679
30227SOL    HW292521   3.018   7.694  11.583
30228SOL     OW92522   1.325   6.713   3.697
30228SOL    HW192523   1.264   6.691   3.768
30228SOL    HW292524   1.319   6.808   3.689
30229SOL     OW92525   3.036  11.744  10.903
30229SOL    HW192526   3.108  11.793  10.942
30229SOL    HW292527   2.975  11.730  10.976
30230SOL     OW92528  14.563   8.688   2.728
30230SOL    HW192529  14.546   8.744   2.652
30230SOL    HW292530  14.501   8.615   2.719
30231SOL     OW92531   1.036   5.975   9.183
30231SOL    HW192532   1.097   6.032   9.135
30231SOL    HW292533   1.056   5.887   9.151
30232SOL     OW92534  13.279   3.911   1.130
30232SOL    HW192535  13.352   3.871   1.178
30232SOL    HW292536  13.258   3.847   1.062
30233SOL     OW92537  10.178   7.796   6.306
30233SOL    HW192538  10.152   7.711   6.342
30233SOL    HW292539  10.172   7.856   6.381
30234SOL     OW92540  11.873   6.449  12.517
30234SOL    HW192541  11.912   6.414  12.437
30234SOL    HW292542  11.782   6.418  12.515
30235SOL     OW92543   8.638   1.272   2.736
30235SOL    HW192544   8.599   1.355   2.765
30235SOL    HW292545   8.720   1.297   2.694
30236SOL     OW92546   7.667   4.285   7.696
30236SOL    HW192547   7.695   4.374   7.718
30236SOL    HW292548   7.739   4.229   7.727
30237SOL     OW92549   9.808  10.351   5.347
30237SOL    HW192550   9.763  10.269   5.328
30237SOL    HW292551   9.809  10.356   5.442
30238SOL     OW92552   5.996   9.987  11.449
30238SOL    HW192553   6.010  10.006  11.542
30238SOL    HW292554   5.903   9.969  11.441
30239SOL     OW92555   0.938   8.271   4.974
30239SOL    HW192556   0.933   8.215   5.051
30239SOL    HW292557   0.920   8.359   5.007
30240SOL     OW92558   0.165   7.018   4.608
30240SOL    HW192559   0.253   7.008   4.571
30240SOL    HW292560   0.179   7.066   4.689
30241SOL     OW92561  10.731  12.321   8.421
30241SOL    HW192562  10.641  12.301   8.449
30241SOL    HW292563  10.721  12.364   8.336
30242SOL     OW92564  14.687  11.079   8.529
30242SOL    HW192565  14.760  11.067   8.469
30242SOL    HW292566  14.676  11.174   8.533
30243SOL     OW92567  13.919   3.445  10.113
30243SOL    HW192568  13.839   3.405  10.076
30243SOL    HW292569  13.990   3.388  10.083
30244SOL     OW92570   4.698   9.038   2.587
30244SOL    HW192571   4.710   9.024   2.493
30244SOL    HW292572   4.760   8.978   2.628
30245SOL     OW92573   9.060   0.313   4.846
30245SOL    HW192574   9.126   0.298   4.778
30245SOL    HW292575   9.095   0.269   4.923
30246SOL     OW92576   4.789  10.245   7.737
30246SOL    HW192577   4.777  10.327   7.786
30246SOL    HW292578   4.854  10.267   7.670
30247SOL     OW92579   7.050  11.631   6.496
30247SOL    HW192580   7.139  11.654   6.522
30247SOL    HW292581   7.062  11.576   6.418
30248SOL     OW92582  10.442  14.772   6.492
30248SOL    HW192583  10.462  14.851   6.542
30248SOL    HW292584  10.399  14.803   6.412
30249SOL     OW92585  12.704   0.038   1.968
30249SOL    HW192586  12.692  14.841   2.024
30249SOL    HW292587  12.617   0.076   1.960
30250SOL     OW92588  13.369  11.820   0.211
30250SOL    HW192589  13.398  11.824   0.120
30250SOL    HW292590  13.424  11.754   0.251
30251SOL     OW92591  11.589  14.077  11.820
30251SOL    HW192592  11.536  14.000  11.839
30251SOL    HW292593  11.678  14.051  11.843
30252SOL     OW92594  13.067   9.280  10.377
30252SOL    HW192595  13.104   9.327  10.451
30252SOL    HW292596  13.113   9.197  10.376
30253SOL     OW92597  14.807  13.217  11.722
30253SOL    HW192598  14.725  13.184  11.761
30253SOL    HW292599  14.808  13.310  11.743
30254SOL     OW92600  12.100  11.104  13.301
30254SOL    HW192601  12.124  11.011  13.307
30254SOL    HW292602  12.092  11.132  13.393
30255SOL     OW92603   3.757   2.612   9.801
30255SOL    HW192604   3.848   2.622   9.831
30255SOL    HW292605   3.705   2.622   9.880
30256SOL     OW92606  13.939   8.148  10.547
30256SOL    HW192607  14.017   8.094  10.537
30256SOL    HW292608  13.877   8.114  10.482
30257SOL     OW92609   5.622  13.885   9.205
30257SOL    HW192610   5.602  13.793   9.220
30257SOL    HW292611   5.685  13.907   9.273
30258SOL     OW92612   2.283  10.831   6.448
30258SOL    HW192613   2.190  10.811   6.445
30258SOL    HW292614   2.319  10.789   6.370
30259SOL     OW92615   1.047  14.660   7.699
30259SOL    HW192616   1.113  14.609   7.650
30259SOL    HW292617   1.094  14.692   7.776
30260SOL     OW92618   6.576   6.473   5.953
30260SOL    HW192619   6.664   6.500   5.980
30260SOL    HW292620   6.570   6.497   5.861
30261SOL     OW92621   8.357  14.871   7.559
30261SOL    HW192622   8.311  14.842   7.481
30261SOL    HW292623   8.290  14.875   7.627
30262SOL     OW92624   2.215  14.160  13.021
30262SOL    HW192625   2.263  14.178  12.940
30262SOL    HW292626   2.207  14.065  13.024
30263SOL     OW92627   2.494   8.174  12.281
30263SOL    HW192628   2.447   8.254  12.258
30263SOL    HW292629   2.579   8.183  12.238
30264SOL     OW92630  12.590  10.549   9.656
30264SOL    HW192631  12.666  10.491   9.646
30264SOL    HW292632  12.627  10.632   9.685
30265SOL     OW92633   6.117   0.933  11.030
30265SOL    HW192634   6.152   0.875  10.963
30265SOL    HW292635   6.056   0.879  11.080
30266SOL     OW92636  11.413  11.056   0.696
30266SOL    HW192637  11.412  11.095   0.609
30266SOL    HW292638  11.504  11.061   0.724
30267SOL     OW92639   6.875  10.192   9.422
30267SOL    HW192640   6.819  10.259   9.384
30267SOL    HW292641   6.885  10.127   9.352
30268SOL     OW92642   5.868   8.531  13.251
30268SOL    HW192643   5.949   8.531  13.200
30268SOL    HW292644   5.891   8.485  13.332
30269SOL     OW92645   2.592   8.215   6.337
30269SOL    HW192646   2.617   8.156   6.408
30269SOL    HW292647   2.659   8.283   6.336
30270SOL     OW92648   5.340   5.661   8.939
30270SOL    HW192649   5.299   5.618   9.015
30270SOL    HW292650   5.380   5.589   8.891
30271SOL     OW92651   9.606   0.621   0.739
30271SOL    HW192652   9.550   0.690   0.774
30271SOL    HW292653   9.626   0.649   0.650
30272SOL     OW92654  14.118   5.864   8.775
30272SOL    HW192655  14.155   5.776   8.783
30272SOL    HW292656  14.187   5.922   8.809
30273SOL     OW92657  14.426  12.706   9.858
30273SOL    HW192658  14.479  12.759   9.916
30273SOL    HW292659  14.399  12.765   9.788
30274SOL     OW92660   3.658   1.084   8.918
30274SOL    HW192661   3.722   1.057   8.983
30274SOL    HW292662   3.579   1.102   8.969
30275SOL     OW92663   0.641   9.065   7.892
30275SOL    HW192664   0.642   8.978   7.933
30275SOL    HW292665   0.559   9.066   7.843
30276SOL     OW92666   8.850   4.973  10.758
30276SOL    HW192667   8.924   5.021  10.721
30276SOL    HW292668   8.858   4.885  10.721
30277SOL     OW92669   1.548  12.282   0.051
30277SOL    HW192670   1.604  12.242  14.864
30277SOL    HW292671   1.601  12.279   0.131
30278SOL     OW92672   5.112   4.701  14.543
30278SOL    HW192673   5.202   4.671  14.535
30278SOL    HW292674   5.116   4.774  14.605
30279SOL     OW92675  13.835   7.669   1.026
30279SOL    HW192676  13.877   7.629   0.949
30279SOL    HW292677  13.862   7.761   1.023
30280SOL     OW92678   6.399   1.625   4.958
30280SOL    HW192679   6.331   1.578   5.005
30280SOL    HW292680   6.373   1.717   4.963
30281SOL     OW92681   9.822   5.567  12.456
30281SOL    HW192682   9.818   5.663  12.457
30281SOL    HW292683   9.771   5.542  12.380
30282SOL     OW92684  12.353  13.223   2.193
30282SOL    HW192685  12.259  13.208   2.183
30282SOL    HW292686  12.372  13.295   2.133
30283SOL     OW92687   1.059  11.392   6.004
30283SOL    HW192688   1.100  11.455   6.063
30283SOL    HW292689   1.106  11.310   6.020
30284SOL     OW92690  13.409   8.088  11.965
30284SOL    HW192691  13.447   8.146  11.899
30284SOL    HW292692  13.423   8.133  12.048
30285SOL     OW92693   7.754   8.752  10.958
30285SOL    HW192694   7.739   8.752  10.863
30285SOL    HW292695   7.723   8.666  10.987
30286SOL     OW92696   4.014   8.658   1.535
30286SOL    HW192697   4.023   8.581   1.478
30286SOL    HW292698   4.060   8.634   1.615
30287SOL     OW92699   7.692   2.410  12.014
30287SOL    HW192700   7.620   2.403  12.077
30287SOL    HW292701   7.686   2.330  11.962
30288SOL     OW92702   8.023   6.977  11.636
30288SOL    HW192703   7.988   6.892  11.663
30288SOL    HW292704   8.039   6.968  11.542
30289SOL     OW92705   1.967   6.836   8.441
30289SOL    HW192706   1.926   6.816   8.525
30289SOL    HW292707   1.975   6.751   8.398
30290SOL     OW92708  13.498   4.723   9.248
30290SOL    HW192709  13.439   4.723   9.173
30290SOL    HW292710  13.489   4.811   9.285
30291SOL     OW92711   7.375   3.457  11.593
30291SOL    HW192712   7.442   3.397  11.625
30291SOL    HW292713   7.385   3.535  11.648
30292SOL     OW92714   2.442   5.206   5.895
30292SOL    HW192715   2.468   5.203   5.803
30292SOL    HW292716   2.404   5.120   5.913
30293SOL     OW92717  13.442  12.059   2.287
30293SOL    HW192718  13.486  12.003   2.350
30293SOL    HW292719  13.443  12.146   2.328
30294SOL     OW92720   0.340   1.249  13.518
30294SOL    HW192721   0.386   1.276  13.598
30294SOL    HW292722   0.270   1.314  13.509
30295SOL     OW92723   8.492   5.345   3.922
30295SOL    HW192724   8.514   5.438   3.925
30295SOL    HW292725   8.397   5.342   3.938
30296SOL     OW92726   9.605   5.829   4.152
30296SOL    HW192727   9.608   5.879   4.233
30296SOL    HW292728   9.649   5.747   4.173
30297SOL     OW92729  10.356   4.183   9.058
30297SOL    HW192730  10.367   4.269   9.018
30297SOL    HW292731  10.262   4.175   9.075
30298SOL     OW92732   0.178   4.686   5.608
30298SOL    HW192733   0.139   4.716   5.690
30298SOL    HW292734   0.237   4.756   5.582
30299SOL     OW92735   1.967   1.770   1.750
30299SOL    HW192736   2.019   1.699   1.713
30299SOL    HW292737   2.028   1.844   1.755
30300SOL     OW92738   3.237   8.092  12.326
30300SOL    HW192739   3.307   8.028  12.343
30300SOL    HW292740   3.162   8.058  12.374
30301SOL     OW92741   5.185   8.424   3.646
30301SOL    HW192742   5.109   8.482   3.655
30301SOL    HW292743   5.147   8.338   3.629
30302SOL     OW92744  13.533   8.718   9.895
30302SOL    HW192745  13.496   8.783   9.835
30302SOL    HW292746  13.610   8.761   9.932
30303SOL     OW92747   0.702  10.083   5.188
30303SOL    HW192748   0.649  10.043   5.119
30303SOL    HW292749   0.789  10.090   5.151
30304SOL     OW92750   3.072   2.152   9.596
30304SOL    HW192751   3.151   2.104   9.621
30304SOL    HW292752   3.019   2.087   9.550
30305SOL     OW92753   1.007   5.563   7.740
30305SOL    HW192754   1.083   5.564   7.682
30305SOL    HW292755   0.941   5.512   7.693
30306SOL     OW92756   0.943   1.340  10.116
30306SOL    HW192757   0.975   1.269  10.172
30306SOL    HW292758   0.991   1.417  10.146
30307SOL     OW92759  12.523   9.003   5.439
30307SOL    HW192760  12.573   9.004   5.357
30307SOL    HW292761  12.564   8.935   5.492
30308SOL     OW92762   8.184  10.450  10.765
30308SOL    HW192763   8.091  10.431  10.755
30308SOL    HW292764   8.188  10.521  10.828
30309SOL     OW92765   6.075   6.627   8.167
30309SOL    HW192766   6.017   6.556   8.194
30309SOL    HW292767   6.163   6.594   8.186
30310SOL     OW92768  11.592   7.038   0.623
30310SOL    HW192769  11.551   7.121   0.645
30310SOL    HW292770  11.527   6.991   0.571
30311SOL     OW92771   1.869   9.003   9.501
30311SOL    HW192772   1.913   8.969   9.579
30311SOL    HW292773   1.882   9.097   9.505
30312SOL     OW92774  10.532   2.854   7.625
30312SOL    HW192775  10.500   2.809   7.547
30312SOL    HW292776  10.485   2.814   7.698
30313SOL     OW92777  14.816   7.329   7.583
30313SOL    HW192778  14.739   7.370   7.622
30313SOL    HW292779  14.784   7.295   7.499
30314SOL     OW92780   8.925  12.709   7.742
30314SOL    HW192781   8.950  12.631   7.692
30314SOL    HW292782   8.969  12.781   7.698
30315SOL     OW92783   0.562   9.916  10.088
30315SOL    HW192784   0.471   9.896  10.109
30315SOL    HW292785   0.574   9.879  10.000
30316SOL     OW92786   4.407  12.134   3.489
30316SOL    HW192787   4.394  12.052   3.536
30316SOL    HW292788   4.468  12.183   3.544
30317SOL     OW92789   6.084   6.313   1.788
30317SOL    HW192790   6.039   6.382   1.740
30317SOL    HW292791   6.025   6.292   1.861
30318SOL     OW92792   9.846  10.084  11.619
30318SOL    HW192793   9.867   9.990  11.620
30318SOL    HW292794   9.764  10.090  11.570
30319SOL     OW92795   3.316   8.585   4.255
30319SOL    HW192796   3.364   8.547   4.182
30319SOL    HW292797   3.226   8.555   4.243
30320SOL     OW92798   9.168  13.812   8.117
30320SOL    HW192799   9.154  13.823   8.022
30320SOL    HW292800   9.145  13.896   8.154
30321SOL     OW92801   0.903   8.682   8.185
30321SOL    HW192802   0.810   8.675   8.206
30321SOL    HW292803   0.910   8.763   8.134
30322SOL     OW92804   0.106   1.256  14.733
30322SOL    HW192805   0.040   1.187  14.722
30322SOL    HW292806   0.159   1.226  14.806
30323SOL     OW92807   3.101   8.896   2.818
30323SOL    HW192808   3.031   8.946   2.861
30323SOL    HW292809   3.179   8.949   2.831
30324SOL     OW92810   9.285   2.019   5.449
30324SOL    HW192811   9.373   2.055   5.440
30324SOL    HW292812   9.256   2.003   5.359
30325SOL     OW92813   7.114   2.907  13.206
30325SOL    HW192814   7.077   2.979  13.154
30325SOL    HW292815   7.147   2.949  13.285
30326SOL     OW92816   8.563   8.977   8.629
30326SOL    HW192817   8.650   8.969   8.589
30326SOL    HW292818   8.516   9.035   8.570
30327SOL     OW92819   8.366   6.174   2.581
30327SOL    HW192820   8.314   6.097   2.605
30327SOL    HW292821   8.411   6.199   2.662
30328SOL     OW92822  10.919   6.988  14.223
30328SOL    HW192823  10.969   6.955  14.296
30328SOL    HW292824  10.969   6.963  14.145
30329SOL     OW92825   1.668  13.744   4.268
30329SOL    HW192826   1.630  13.689   4.200
30329SOL    HW292827   1.711  13.815   4.220
30330SOL     OW92828   6.727  11.671   5.471
30330SOL    HW192829   6.762  11.752   5.431
30330SOL    HW292830   6.731  11.607   5.400
30331SOL     OW92831   2.176   6.095   1.888
30331SOL    HW192832   2.236   6.093   1.963
30331SOL    HW292833   2.092   6.123   1.926
30332SOL     OW92834  11.067   1.944   8.524
30332SOL    HW192835  11.024   1.887   8.461
30332SOL    HW292836  11.006   2.017   8.535
30333SOL     OW92837   0.017   5.552   7.470
30333SOL    HW192838  14.841   5.623   7.440
30333SOL    HW292839   0.006   5.551   7.565
30334SOL     OW92840   7.449   4.757   3.959
30334SOL    HW192841   7.525   4.797   3.916
30334SOL    HW292842   7.379   4.821   3.949
30335SOL     OW92843  13.701   5.588   7.218
30335SOL    HW192844  13.647   5.651   7.265
30335SOL    HW292845  13.756   5.642   7.161
30336SOL     OW92846   4.918   1.166   3.027
30336SOL    HW192847   4.828   1.163   3.058
30336SOL    HW292848   4.958   1.238   3.076
30337SOL     OW92849  14.335   8.975  13.945
30337SOL    HW192850  14.375   8.904  13.894
30337SOL    HW292851  14.403   9.002  14.006
30338SOL     OW92852  10.362   9.089   0.336
30338SOL    HW192853  10.313   9.127   0.263
30338SOL    HW292854  10.295   9.059   0.397
30339SOL     OW92855   5.206  14.128  10.213
30339SOL    HW192856   5.183  14.050  10.163
30339SOL    HW292857   5.268  14.175  10.158
30340SOL     OW92858   7.195   3.382   5.754
30340SOL    HW192859   7.120   3.322   5.752
30340SOL    HW292860   7.251   3.348   5.823
30341SOL     OW92861  12.341  13.526   4.261
30341SOL    HW192862  12.368  13.480   4.340
30341SOL    HW292863  12.364  13.466   4.190
30342SOL     OW92864  10.116   2.006  10.553
30342SOL    HW192865  10.209   1.991  10.570
30342SOL    HW292866  10.072   1.929  10.590
30343SOL     OW92867   8.283   4.656   9.618
30343SOL    HW192868   8.257   4.612   9.699
30343SOL    HW292869   8.371   4.689   9.637
30344SOL     OW92870   2.816   8.392   6.355
30344SOL    HW192871   2.842   8.411   6.265
30344SOL    HW292872   2.898   8.365   6.398
30345SOL     OW92873  12.169   4.934   3.586
30345SOL    HW192874  12.101   4.866   3.588
30345SOL    HW292875  12.123   5.013   3.614
30346SOL     OW92876   5.044   3.958   5.648
30346SOL    HW192877   5.113   4.007   5.693
30346SOL    HW292878   5.080   3.870   5.636
30347SOL     OW92879   8.643  10.659   2.144
30347SOL    HW192880   8.659  10.750   2.171
30347SOL    HW292881   8.629  10.611   2.226
30348SOL     OW92882  11.794   4.042   6.023
30348SOL    HW192883  11.731   4.100   5.980
30348SOL    HW292884  11.791   3.961   5.972
30349SOL     OW92885   4.028   9.976  11.544
30349SOL    HW192886   4.117   9.964  11.578
30349SOL    HW292887   4.010   9.895  11.496
30350SOL     OW92888   0.654  11.538   0.995
30350SOL    HW192889   0.623  11.471   1.056
30350SOL    HW292890   0.746  11.549   1.016
30351SOL     OW92891   1.371   3.903   8.796
30351SOL    HW192892   1.280   3.904   8.768
30351SOL    HW292893   1.366   3.899   8.892
30352SOL     OW92894  12.047  12.622  13.109
30352SOL    HW192895  12.052  12.543  13.056
30352SOL    HW292896  12.117  12.678  13.076
30353SOL     OW92897  13.639   4.477  11.929
30353SOL    HW192898  13.613   4.393  11.969
30353SOL    HW292899  13.645   4.458  11.835
30354SOL     OW92900  12.555   7.538   3.064
30354SOL    HW192901  12.529   7.611   3.121
30354SOL    HW292902  12.475   7.489   3.051
30355SOL     OW92903  14.343   6.374  13.479
30355SOL    HW192904  14.401   6.447  13.502
30355SOL    HW292905  14.402   6.307  13.445
30356SOL     OW92906  13.488   0.385   5.207
30356SOL    HW192907  13.475   0.398   5.301
30356SOL    HW292908  13.579   0.409   5.191
30357SOL     OW92909   9.002  10.439  10.967
30357SOL    HW192910   8.932  10.501  10.948
30357SOL    HW292911   9.012  10.389  10.886
30358SOL     OW92912   7.480  13.764   8.045
30358SOL    HW192913   7.534  13.687   8.062
30358SOL    HW292914   7.471  13.766   7.949
30359SOL     OW92915   5.665   5.280   5.471
30359SOL    HW192916   5.648   5.218   5.542
30359SOL    HW292917   5.661   5.366   5.513
30360SOL     OW92918   0.818   5.034   5.060
30360SOL    HW192919   0.793   4.947   5.031
30360SOL    HW292920   0.856   5.021   5.147
30361SOL     OW92921   3.838  12.247   2.461
30361SOL    HW192922   3.820  12.305   2.536
30361SOL    HW292923   3.777  12.276   2.393
30362SOL     OW92924  12.534   1.771   4.318
30362SOL    HW192925  12.539   1.696   4.259
30362SOL    HW292926  12.555   1.735   4.404
30363SOL     OW92927   0.246   0.996   5.015
30363SOL    HW192928   0.201   0.914   5.036
30363SOL    HW292929   0.327   0.992   5.064
30364SOL     OW92930   5.946   2.073  13.093
30364SOL    HW192931   5.996   2.050  13.015
30364SOL    HW292932   5.879   2.134  13.062
30365SOL     OW92933   8.617   4.873   4.645
30365SOL    HW192934   8.661   4.945   4.600
30365SOL    HW292935   8.635   4.888   4.737
30366SOL     OW92936   7.924   2.161   2.429
30366SOL    HW192937   7.924   2.188   2.520
30366SOL    HW292938   7.923   2.243   2.379
30367SOL     OW92939  12.621   8.350  14.543
30367SOL    HW192940  12.538   8.308  14.520
30367SOL    HW292941  12.672   8.281  14.585
30368SOL     OW92942  13.128   0.632   2.851
30368SOL    HW192943  13.161   0.625   2.762
30368SOL    HW292944  13.177   0.705   2.889
30369SOL     OW92945   7.705   7.192   0.794
30369SOL    HW192946   7.740   7.211   0.707
30369SOL    HW292947   7.699   7.277   0.837
30370SOL     OW92948   5.051  14.121  12.765
30370SOL    HW192949   5.126  14.088  12.717
30370SOL    HW292950   5.088  14.185  12.826
30371SOL     OW92951   1.352  10.816   1.846
30371SOL    HW192952   1.387  10.740   1.893
30371SOL    HW292953   1.399  10.817   1.763
30372SOL     OW92954   6.214   7.283  10.810
30372SOL    HW192955   6.271   7.356  10.784
30372SOL    HW292956   6.126   7.311  10.783
30373SOL     OW92957   9.569   6.142  14.310
30373SOL    HW192958   9.502   6.091  14.265
30373SOL    HW292959   9.552   6.126  14.403
30374SOL     OW92960   0.643   7.209   7.455
30374SOL    HW192961   0.549   7.216   7.472
30374SOL    HW292962   0.682   7.275   7.513
30375SOL     OW92963   5.218   4.588   1.453
30375SOL    HW192964   5.246   4.652   1.519
30375SOL    HW292965   5.292   4.528   1.445
30376SOL     OW92966   2.850  11.619   9.603
30376SOL    HW192967   2.856  11.590   9.512
30376SOL    HW292968   2.791  11.694   9.600
30377SOL     OW92969   4.591   6.003   8.074
30377SOL    HW192970   4.511   5.953   8.056
30377SOL    HW292971   4.561   6.076   8.128
30378SOL     OW92972   6.855   8.004  13.470
30378SOL    HW192973   6.860   8.097  13.491
30378SOL    HW292974   6.946   7.977  13.458
30379SOL     OW92975  11.591   3.870   9.356
30379SOL    HW192976  11.514   3.908   9.399
30379SOL    HW292977  11.599   3.919   9.274
30380SOL     OW92978   4.067   6.032   3.553
30380SOL    HW192979   4.095   5.948   3.515
30380SOL    HW292980   4.008   6.008   3.624
30381SOL     OW92981   3.945   5.593   0.516
30381SOL    HW192982   3.970   5.613   0.425
30381SOL    HW292983   3.948   5.497   0.520
30382SOL     OW92984  11.262   9.943   3.981
30382SOL    HW192985  11.276   9.916   3.890
30382SOL    HW292986  11.240   9.861   4.026
30383SOL     OW92987   1.016   3.835   6.466
30383SOL    HW192988   1.028   3.887   6.545
30383SOL    HW292989   1.019   3.744   6.496
30384SOL     OW92990   6.537  13.246  11.967
30384SOL    HW192991   6.470  13.313  11.984
30384SOL    HW292992   6.545  13.244  11.872
30385SOL     OW92993   2.700   6.958  11.221
30385SOL    HW192994   2.673   7.032  11.276
30385SOL    HW292995   2.744   6.998  11.147
30386SOL     OW92996   7.725   6.872   1.828
30386SOL    HW192997   7.744   6.920   1.748
30386SOL    HW292998   7.805   6.822   1.845
30387SOL     OW92999   1.869  10.307   8.246
30387SOL    HW193000   1.852  10.223   8.203
30387SOL    HW293001   1.819  10.371   8.195
30388SOL     OW93002  10.097   2.494  12.541
30388SOL    HW193003  10.024   2.481  12.480
30388SOL    HW293004  10.174   2.499  12.485
30389SOL     OW93005   9.093   9.550  12.002
30389SOL    HW193006   9.127   9.584  12.085
30389SOL    HW293007   9.050   9.468  12.027
30390SOL     OW93008   3.392   6.460   6.125
30390SOL    HW193009   3.316   6.497   6.078
30390SOL    HW293010   3.381   6.366   6.117
30391SOL     OW93011  12.536  12.577  12.516
30391SOL    HW193012  12.486  12.644  12.469
30391SOL    HW293013  12.569  12.519  12.447
30392SOL     OW93014  10.510   4.528   2.709
30392SOL    HW193015  10.545   4.599   2.655
30392SOL    HW293016  10.582   4.505   2.768
30393SOL     OW93017  13.223  10.717   3.357
30393SOL    HW193018  13.197  10.800   3.316
30393SOL    HW293019  13.296  10.686   3.304
30394SOL     OW93020   3.987   3.505   8.700
30394SOL    HW193021   4.078   3.532   8.716
30394SOL    HW293022   3.970   3.532   8.610
30395SOL     OW93023   0.782   4.882   3.240
30395SOL    HW193024   0.835   4.945   3.289
30395SOL    HW293025   0.846   4.828   3.194
30396SOL     OW93026  12.854  13.595  14.452
30396SOL    HW193027  12.896  13.509  14.459
30396SOL    HW293028  12.814  13.609  14.537
30397SOL     OW93029   5.463   4.517   1.996
30397SOL    HW193030   5.510   4.555   2.070
30397SOL    HW293031   5.374   4.551   2.003
30398SOL     OW93032  11.152   5.034  10.470
30398SOL    HW193033  11.229   5.089  10.482
30398SOL    HW293034  11.165   4.960  10.528
30399SOL     OW93035  14.539  10.799   7.756
30399SOL    HW193036  14.542  10.795   7.852
30399SOL    HW293037  14.542  10.893   7.736
30400SOL     OW93038  10.013  13.397  12.929
30400SOL    HW193039   9.966  13.475  12.958
30400SOL    HW293040   9.957  13.324  12.956
30401SOL     OW93041   3.938   2.549   9.122
30401SOL    HW193042   4.010   2.612   9.123
30401SOL    HW293043   3.874   2.585   9.184
30402SOL     OW93044   8.135  14.224   6.920
30402SOL    HW193045   8.146  14.232   7.015
30402SOL    HW293046   8.132  14.129   6.905
30403SOL     OW93047  12.022   3.279  12.242
30403SOL    HW193048  12.048   3.371  12.239
30403SOL    HW293049  12.057   3.247  12.325
30404SOL     OW93050   7.618  13.984   0.649
30404SOL    HW193051   7.641  13.939   0.568
30404SOL    HW293052   7.697  14.032   0.674
30405SOL     OW93053   4.684   9.551   3.080
30405SOL    HW193054   4.720   9.611   3.015
30405SOL    HW293055   4.596   9.586   3.098
30406SOL     OW93056  11.044   3.921   3.970
30406SOL    HW193057  11.012   3.939   4.058
30406SOL    HW293058  10.967   3.890   3.922
30407SOL     OW93059   2.644   6.488   2.705
30407SOL    HW193060   2.608   6.576   2.702
30407SOL    HW293061   2.630   6.459   2.795
30408SOL     OW93062   8.568   2.372  14.420
30408SOL    HW193063   8.495   2.329  14.376
30408SOL    HW293064   8.530   2.412  14.498
30409SOL     OW93065   8.511  11.052   8.427
30409SOL    HW193066   8.434  11.090   8.470
30409SOL    HW293067   8.504  10.958   8.443
30410SOL     OW93068   1.134  14.136   6.420
30410SOL    HW193069   1.091  14.051   6.424
30410SOL    HW293070   1.173  14.147   6.507
30411SOL     OW93071  11.361   2.713   8.354
30411SOL    HW193072  11.368   2.772   8.279
30411SOL    HW293073  11.279   2.666   8.341
30412SOL     OW93074  12.527   6.765  13.347
30412SOL    HW193075  12.598   6.826  13.364
30412SOL    HW293076  12.515   6.718  13.429
30413SOL     OW93077   3.920   0.185   5.191
30413SOL    HW193078   3.902   0.279   5.197
30413SOL    HW293079   3.847   0.144   5.237
30414SOL     OW93080   4.047  10.278  14.249
30414SOL    HW193081   4.018  10.298  14.338
30414SOL    HW293082   4.082  10.360  14.216
30415SOL     OW93083  12.918  12.379   9.663
30415SOL    HW193084  12.965  12.318   9.720
30415SOL    HW293085  12.981  12.449   9.645
30416SOL     OW93086  10.090  10.504   7.308
30416SOL    HW193087  10.159  10.504   7.241
30416SOL    HW293088  10.060  10.595   7.310
30417SOL     OW93089   6.677   8.760  12.451
30417SOL    HW193090   6.652   8.686  12.395
30417SOL    HW293091   6.614   8.759  12.523
30418SOL     OW93092  12.336   4.526  12.383
30418SOL    HW193093  12.342   4.484  12.297
30418SOL    HW293094  12.245   4.512  12.410
30419SOL     OW93095   4.679   4.916   4.067
30419SOL    HW193096   4.696   4.903   4.160
30419SOL    HW293097   4.584   4.930   4.061
30420SOL     OW93098   1.646   9.550  10.158
30420SOL    HW193099   1.569   9.493  10.158
30420SOL    HW293100   1.720   9.490  10.164
30421SOL     OW93101   6.116  13.290  11.323
30421SOL    HW193102   6.139  13.337  11.403
30421SOL    HW293103   6.166  13.334  11.255
30422SOL     OW93104  13.741  11.679   8.012
30422SOL    HW193105  13.813  11.616   8.019
30422SOL    HW293106  13.784  11.760   7.985
30423SOL     OW93107   8.345   5.667  11.194
30423SOL    HW193108   8.258   5.686  11.230
30423SOL    HW293109   8.362   5.740  11.134
30424SOL     OW93110   7.998   2.537   8.004
30424SOL    HW193111   8.084   2.520   8.041
30424SOL    HW293112   7.936   2.502   8.068
30425SOL     OW93113   2.761  13.703  14.649
30425SOL    HW193114   2.735  13.684  14.739
30425SOL    HW293115   2.693  13.762  14.617
30426SOL     OW93116   5.626   4.950  12.639
30426SOL    HW193117   5.559   4.882  12.632
30426SOL    HW293118   5.605   5.012  12.568
30427SOL     OW93119   3.954  14.262  10.963
30427SOL    HW193120   3.978  14.200  10.895
30427SOL    HW293121   4.024  14.254  11.028
30428SOL     OW93122   9.612  12.109   1.829
30428SOL    HW193123   9.691  12.151   1.863
30428SOL    HW293124   9.642  12.024   1.798
30429SOL     OW93125  14.312   5.829   1.611
30429SOL    HW193126  14.319   5.893   1.541
30429SOL    HW293127  14.236   5.857   1.662
30430SOL     OW93128   5.364   7.732   8.970
30430SOL    HW193129   5.341   7.658   9.026
30430SOL    HW293130   5.296   7.797   8.986
30431SOL     OW93131   4.109   7.440   6.902
30431SOL    HW193132   4.061   7.422   6.983
30431SOL    HW293133   4.066   7.517   6.865
30432SOL     OW93134   9.508   2.306   0.462
30432SOL    HW193135   9.454   2.343   0.391
30432SOL    HW293136   9.446   2.259   0.517
30433SOL     OW93137  12.263  12.408   1.744
30433SOL    HW193138  12.221  12.324   1.761
30433SOL    HW293139  12.193  12.463   1.708
30434SOL     OW93140   8.326  13.092  14.586
30434SOL    HW193141   8.297  13.108  14.676
30434SOL    HW293142   8.350  12.999  14.585
30435SOL     OW93143   3.304   2.649   3.220
30435SOL    HW193144   3.310   2.709   3.294
30435SOL    HW293145   3.281   2.565   3.260
30436SOL     OW93146  13.107  14.469   4.525
30436SOL    HW193147  13.065  14.553   4.543
30436SOL    HW293148  13.200  14.485   4.539
30437SOL     OW93149  10.972  14.793   8.379
30437SOL    HW193150  10.979  14.820   8.470
30437SOL    HW293151  10.901  14.729   8.378
30438SOL     OW93152   1.940   8.603   1.048
30438SOL    HW193153   1.868   8.660   1.072
30438SOL    HW293154   1.946   8.539   1.119
30439SOL     OW93155   4.720  12.558   6.014
30439SOL    HW193156   4.679  12.608   5.944
30439SOL    HW293157   4.801  12.605   6.033
30440SOL     OW93158  12.112   9.466   0.301
30440SOL    HW193159  12.133   9.507   0.385
30440SOL    HW293160  12.152   9.523   0.236
30441SOL     OW93161   1.257  12.636   6.499
30441SOL    HW193162   1.287  12.548   6.522
30441SOL    HW293163   1.238  12.630   6.405
30442SOL     OW93164   4.115   8.464   0.894
30442SOL    HW193165   4.173   8.517   0.950
30442SOL    HW293166   4.137   8.373   0.917
30443SOL     OW93167  10.004  10.496   1.177
30443SOL    HW193168  10.045  10.538   1.101
30443SOL    HW293169  10.065  10.426   1.201
30444SOL     OW93170  12.680   3.565   5.377
30444SOL    HW193171  12.603   3.612   5.408
30444SOL    HW293172  12.649   3.514   5.302
30445SOL     OW93173   8.094  14.615  14.429
30445SOL    HW193174   8.025  14.645  14.369
30445SOL    HW293175   8.175  14.628  14.380
30446SOL     OW93176  10.114   6.907   6.428
30446SOL    HW193177  10.023   6.918   6.398
30446SOL    HW293178  10.114   6.942   6.517
30447SOL     OW93179   4.344   8.990   4.570
30447SOL    HW193180   4.288   8.973   4.646
30447SOL    HW293181   4.367   8.904   4.537
30448SOL     OW93182   3.116   9.941   4.080
30448SOL    HW193183   3.182   9.937   4.011
30448SOL    HW293184   3.104   9.850   4.108
30449SOL     OW93185   3.659   8.543  13.672
30449SOL    HW193186   3.730   8.570  13.730
30449SOL    HW293187   3.687   8.458  13.637
30450SOL     OW93188   0.587  14.403   2.991
30450SOL    HW193189   0.630  14.322   3.020
30450SOL    HW293190   0.565  14.387   2.899
30451SOL     OW93191  14.706   3.582   9.207
30451SOL    HW193192  14.693   3.488   9.194
30451SOL    HW293193  14.687   3.597   9.299
30452SOL     OW93194   6.554  10.833   1.020
30452SOL    HW193195   6.530  10.896   1.088
30452SOL    HW293196   6.595  10.886   0.951
30453SOL     OW93197  14.600   6.318   5.359
30453SOL    HW193198  14.534   6.259   5.396
30453SOL    HW293199  14.662   6.260   5.315
30454SOL     OW93200  11.803   8.090   3.854
30454SOL    HW193201  11.773   8.054   3.938
30454SOL    HW293202  11.749   8.046   3.788
30455SOL     OW93203  14.311   2.157   9.906
30455SOL    HW193204  14.362   2.170   9.986
30455SOL    HW293205  14.272   2.243   9.888
30456SOL     OW93206   4.650  11.353   3.730
30456SOL    HW193207   4.716  11.420   3.746
30456SOL    HW293208   4.698  11.270   3.737
30457SOL     OW93209   9.017  12.087   0.849
30457SOL    HW193210   9.058  12.075   0.763
30457SOL    HW293211   8.946  12.023   0.850
30458SOL     OW93212  11.735   1.177  14.137
30458SOL    HW193213  11.828   1.202  14.144
30458SOL    HW293214  11.694   1.252  14.093
30459SOL     OW93215   2.363  10.346   6.484
30459SOL    HW193216   2.269  10.336   6.494
30459SOL    HW293217   2.390  10.399   6.559
30460SOL     OW93218  10.564   5.453  10.351
30460SOL    HW193219  10.619   5.527  10.326
30460SOL    HW293220  10.618   5.403  10.412
30461SOL     OW93221   9.626   2.101   4.510
30461SOL    HW193222   9.673   2.086   4.591
30461SOL    HW293223   9.558   2.165   4.533
30462SOL     OW93224   8.280   8.694   0.850
30462SOL    HW193225   8.242   8.781   0.858
30462SOL    HW293226   8.339   8.700   0.774
30463SOL     OW93227   0.856   4.363   2.358
30463SOL    HW193228   0.943   4.367   2.317
30463SOL    HW293229   0.850   4.273   2.391
30464SOL     OW93230   4.923  11.733  13.952
30464SOL    HW193231   4.887  11.789  13.883
30464SOL    HW293232   4.985  11.675  13.905
30465SOL     OW93233   5.848   7.950  11.796
30465SOL    HW193234   5.775   7.994  11.839
30465SOL    HW293235   5.906   8.022  11.769
30466SOL     OW93236  12.291  14.618   9.898
30466SOL    HW193237  12.276  14.671   9.821
30466SOL    HW293238  12.305  14.529   9.865
30467SOL     OW93239  14.640   4.777   8.072
30467SOL    HW193240  14.634   4.714   8.143
30467SOL    HW293241  14.551   4.785   8.038
30468SOL     OW93242   8.874   4.470  13.832
30468SOL    HW193243   8.903   4.407  13.898
30468SOL    HW293244   8.949   4.529  13.820
30469SOL     OW93245   2.733   7.046  12.004
30469SOL    HW193246   2.739   7.062  12.098
30469SOL    HW293247   2.696   7.127  11.968
30470SOL     OW93248   2.763  11.920   3.476
30470SOL    HW193249   2.797  11.987   3.417
30470SOL    HW293250   2.736  11.969   3.554
30471SOL     OW93251  14.776   3.347  11.609
30471SOL    HW193252  14.867   3.319  11.602
30471SOL    HW293253  14.757   3.389  11.525
30472SOL     OW93254   8.885   3.987   5.250
30472SOL    HW193255   8.925   3.933   5.182
30472SOL    HW293256   8.959   4.031   5.292
30473SOL     OW93257   4.029  14.534  12.356
30473SOL    HW193258   4.077  14.562  12.278
30473SOL    HW293259   4.008  14.616  12.401
30474SOL     OW93260   9.676   0.633   6.634
30474SOL    HW193261   9.746   0.600   6.690
30474SOL    HW293262   9.721   0.686   6.568
30475SOL     OW93263   2.062   3.268   5.687
30475SOL    HW193264   2.106   3.184   5.701
30475SOL    HW293265   1.974   3.256   5.722
30476SOL     OW93266   9.160   4.892   5.082
30476SOL    HW193267   9.165   4.801   5.110
30476SOL    HW293268   9.140   4.941   5.162
30477SOL     OW93269   9.355   0.907  13.861
30477SOL    HW193270   9.380   0.961  13.786
30477SOL    HW293271   9.424   0.922  13.926
30478SOL     OW93272   4.008  11.338  12.686
30478SOL    HW193273   3.991  11.374  12.599
30478SOL    HW293274   3.928  11.355  12.735
30479SOL     OW93275  14.150   4.813   4.483
30479SOL    HW193276  14.239   4.787   4.458
30479SOL    HW293277  14.130   4.759   4.560
30480SOL     OW93278   1.097   4.504   4.409
30480SOL    HW193279   1.080   4.411   4.426
30480SOL    HW293280   1.182   4.520   4.450
30481SOL     OW93281  13.860   9.935   1.268
30481SOL    HW193282  13.868   9.974   1.180
30481SOL    HW293283  13.853  10.010   1.326
30482SOL     OW93284   8.560   5.786   9.586
30482SOL    HW193285   8.613   5.817   9.512
30482SOL    HW293286   8.556   5.691   9.575
30483SOL     OW93287   0.682   6.447  14.732
30483SOL    HW193288   0.712   6.465  14.643
30483SOL    HW293289   0.738   6.503  14.787
30484SOL     OW93290   0.025   1.981  10.989
30484SOL    HW193291   0.110   2.011  11.020
30484SOL    HW293292  14.842   2.037  11.033
30485SOL     OW93293  14.498  12.420  10.467
30485SOL    HW193294  14.530  12.380  10.548
30485SOL    HW293295  14.556  12.494  10.453
30486SOL     OW93296  13.743   1.100   4.291
30486SOL    HW193297  13.691   1.083   4.369
30486SOL    HW293298  13.720   1.029   4.231
30487SOL     OW93299   5.532   0.738   9.842
30487SOL    HW193300   5.463   0.768   9.901
30487SOL    HW293301   5.568   0.660   9.884
30488SOL     OW93302   3.571   2.184   5.407
30488SOL    HW193303   3.525   2.153   5.329
30488SOL    HW293304   3.576   2.107   5.464
30489SOL     OW93305   8.745   7.805   3.338
30489SOL    HW193306   8.675   7.766   3.286
30489SOL    HW293307   8.723   7.898   3.345
30490SOL     OW93308  12.839   7.070   0.771
30490SOL    HW193309  12.905   7.117   0.823
30490SOL    HW293310  12.840   6.981   0.806
30491SOL     OW93311   1.768   0.664   3.737
30491SOL    HW193312   1.785   0.605   3.664
30491SOL    HW293313   1.817   0.743   3.715
30492SOL     OW93314   8.646   8.893  12.568
30492SOL    HW193315   8.620   8.962  12.507
30492SOL    HW293316   8.673   8.939  12.647
30493SOL     OW93317   1.341   6.559  10.617
30493SOL    HW193318   1.435   6.541  10.620
30493SOL    HW293319   1.305   6.506  10.688
30494SOL     OW93320  12.267   7.903   2.093
30494SOL    HW193321  12.265   7.808   2.101
30494SOL    HW293322  12.180   7.926   2.062
30495SOL     OW93323   3.034   8.959  13.016
30495SOL    HW193324   3.087   8.933  13.091
30495SOL    HW293325   2.944   8.939  13.041
30496SOL     OW93326  10.649   3.818   8.653
30496SOL    HW193327  10.625   3.898   8.699
30496SOL    HW293328  10.723   3.843   8.599
30497SOL     OW93329  11.539   9.760   3.812
30497SOL    HW193330  11.554   9.671   3.782
30497SOL    HW293331  11.454   9.784   3.776
30498SOL     OW93332  13.728  10.759  13.004
30498SOL    HW193333  13.785  10.682  13.011
30498SOL    HW293334  13.748  10.811  13.082
30499SOL     OW93335   3.328  13.274   7.120
30499SOL    HW193336   3.275  13.346   7.084
30499SOL    HW293337   3.267  13.225   7.176
30500SOL     OW93338  11.173  10.252   4.060
30500SOL    HW193339  11.224  10.332   4.054
30500SOL    HW293340  11.099  10.266   4.000
30501SOL     OW93341  11.759   9.948   5.524
30501SOL    HW193342  11.755  10.013   5.594
30501SOL    HW293343  11.669   9.920   5.512
30502SOL     OW93344   8.419  14.751  13.080
30502SOL    HW193345   8.389  14.733  12.991
30502SOL    HW293346   8.339  14.749  13.133
30503SOL     OW93347   8.675  14.256   0.491
30503SOL    HW193348   8.610  14.310   0.447
30503SOL    HW293349   8.710  14.313   0.560
30504SOL     OW93350   1.503  11.994   0.779
30504SOL    HW193351   1.426  12.028   0.826
30504SOL    HW293352   1.530  12.064   0.721
30505SOL     OW93353   3.076  13.835  10.201
30505SOL    HW193354   3.038  13.820  10.287
30505SOL    HW293355   3.157  13.784  10.201
30506SOL     OW93356   5.400   2.989   6.994
30506SOL    HW193357   5.442   3.074   6.979
30506SOL    HW293358   5.307   3.009   6.998
30507SOL     OW93359   7.441   6.835   9.380
30507SOL    HW193360   7.377   6.773   9.344
30507SOL    HW293361   7.483   6.788   9.452
30508SOL     OW93362   6.957   2.395  14.544
30508SOL    HW193363   7.029   2.337  14.520
30508SOL    HW293364   6.879   2.354  14.506
30509SOL     OW93365   1.379  13.881   6.600
30509SOL    HW193366   1.423  13.963   6.577
30509SOL    HW293367   1.313  13.869   6.532
30510SOL     OW93368   6.963  11.171   9.375
30510SOL    HW193369   6.893  11.107   9.361
30510SOL    HW293370   6.972  11.215   9.290
30511SOL     OW93371   4.685  10.196  11.168
30511SOL    HW193372   4.630  10.254  11.116
30511SOL    HW293373   4.751  10.163  11.106
30512SOL     OW93374   5.821   5.493   6.863
30512SOL    HW193375   5.827   5.498   6.958
30512SOL    HW293376   5.905   5.459   6.835
30513SOL     OW93377  13.934   9.462   1.813
30513SOL    HW193378  13.909   9.441   1.723
30513SOL    HW293379  13.897   9.391   1.865
30514SOL     OW93380  13.135   1.508  14.429
30514SOL    HW193381  13.121   1.603  14.424
30514SOL    HW293382  13.115   1.486  14.520
30515SOL     OW93383  14.759   6.955  11.575
30515SOL    HW193384  14.716   7.003  11.646
30515SOL    HW293385  14.714   6.986  11.495
30516SOL     OW93386  11.750  13.583   8.626
30516SOL    HW193387  11.677  13.551   8.574
30516SOL    HW293388  11.774  13.510   8.682
30517SOL     OW93389  11.380   3.142   1.642
30517SOL    HW193390  11.353   3.205   1.709
30517SOL    HW293391  11.409   3.066   1.692
30518SOL     OW93392  12.129   9.289   5.675
30518SOL    HW193393  12.103   9.371   5.716
30518SOL    HW293394  12.062   9.226   5.702
30519SOL     OW93395   8.591  12.016   5.847
30519SOL    HW193396   8.669  12.040   5.797
30519SOL    HW293397   8.522  12.071   5.810
30520SOL     OW93398  12.259   1.130  13.743
30520SOL    HW193399  12.267   1.197  13.676
30520SOL    HW293400  12.167   1.104  13.741
30521SOL     OW93401   9.621   0.907   5.517
30521SOL    HW193402   9.567   0.982   5.494
30521SOL    HW293403   9.577   0.867   5.591
30522SOL     OW93404  11.770   7.633   7.282
30522SOL    HW193405  11.689   7.622   7.332
30522SOL    HW293406  11.770   7.561   7.220
30523SOL     OW93407   2.025  10.142   0.435
30523SOL    HW193408   1.968  10.173   0.506
30523SOL    HW293409   2.113  10.145   0.471
30524SOL     OW93410  12.095   9.312  12.398
30524SOL    HW193411  12.024   9.371  12.375
30524SOL    HW293412  12.095   9.311  12.494
30525SOL     OW93413  12.423   9.486  12.735
30525SOL    HW193414  12.397   9.394  12.744
30525SOL    HW293415  12.447   9.513  12.824
30526SOL     OW93416  10.320   0.228   9.584
30526SOL    HW193417  10.316   0.195   9.674
30526SOL    HW293418  10.229   0.232   9.556
30527SOL     OW93419   9.983   0.411   0.890
30527SOL    HW193420   9.894   0.427   0.921
30527SOL    HW293421  10.027   0.496   0.898
30528SOL     OW93422   9.480   1.586  10.220
30528SOL    HW193423   9.435   1.501  10.226
30528SOL    HW293424   9.491   1.601  10.126
30529SOL     OW93425   0.559   0.341   4.700
30529SOL    HW193426   0.639   0.293   4.720
30529SOL    HW293427   0.543   0.394   4.778
30530SOL     OW93428   1.172  13.677   6.174
30530SOL    HW193429   1.138  13.762   6.144
30530SOL    HW293430   1.264  13.677   6.147
30531SOL     OW93431   4.919   0.242   9.122
30531SOL    HW193432   4.905   0.224   9.029
30531SOL    HW293433   4.879   0.328   9.136
30532SOL     OW93434   1.081   7.784   9.824
30532SOL    HW193435   1.005   7.829   9.787
30532SOL    HW293436   1.063   7.781   9.918
30533SOL     OW93437  12.798   4.430  11.643
30533SOL    HW193438  12.858   4.358  11.626
30533SOL    HW293439  12.752   4.405  11.723
30534SOL     OW93440   9.982   6.968   1.821
30534SOL    HW193441   9.948   7.055   1.800
30534SOL    HW293442  10.074   6.971   1.796
30535SOL     OW93443   4.943   6.691   6.221
30535SOL    HW193444   4.881   6.622   6.243
30535SOL    HW293445   5.012   6.683   6.287
30536SOL     OW93446   7.044  13.619   3.990
30536SOL    HW193447   7.087  13.574   4.062
30536SOL    HW293448   7.013  13.550   3.932
30537SOL     OW93449   4.179   8.572  14.276
30537SOL    HW193450   4.264   8.565  14.231
30537SOL    HW293451   4.146   8.483  14.279
30538SOL     OW93452   3.025   0.011  11.935
30538SOL    HW193453   3.037   0.072  12.008
30538SOL    HW293454   3.110   0.009  11.892
30539SOL     OW93455  14.217  12.518   2.986
30539SOL    HW193456  14.258  12.473   3.060
30539SOL    HW293457  14.287  12.527   2.922
30540SOL     OW93458   1.012   8.142   2.112
30540SOL    HW193459   0.948   8.200   2.070
30540SOL    HW293460   0.961   8.068   2.144
30541SOL     OW93461   3.827  12.535   0.034
30541SOL    HW193462   3.887  12.517  14.841
30541SOL    HW293463   3.744  12.554  14.871
30542SOL     OW93464  10.321   0.011  11.600
30542SOL    HW193465  10.330   0.088  11.544
30542SOL    HW293466  10.411  14.865  11.620
30543SOL     OW93467   6.986  11.342   3.949
30543SOL    HW193468   7.034  11.420   3.921
30543SOL    HW293469   6.920  11.329   3.881
30544SOL     OW93470   4.129  11.269   6.627
30544SOL    HW193471   4.101  11.209   6.696
30544SOL    HW293472   4.203  11.225   6.586
30545SOL     OW93473   4.939  10.513  14.043
30545SOL    HW193474   5.007  10.548  13.984
30545SOL    HW293475   4.865  10.573  14.031
30546SOL     OW93476   9.437  11.183   6.630
30546SOL    HW193477   9.460  11.138   6.548
30546SOL    HW293478   9.437  11.115   6.696
30547SOL     OW93479   4.801   4.244   1.470
30547SOL    HW193480   4.846   4.328   1.480
30547SOL    HW293481   4.708   4.266   1.472
30548SOL     OW93482  10.297   3.346   9.750
30548SOL    HW193483  10.264   3.268   9.795
30548SOL    HW293484  10.295   3.323   9.657
30549SOL     OW93485   2.833  10.199   0.645
30549SOL    HW193486   2.852  10.292   0.657
30549SOL    HW293487   2.910  10.164   0.601
30550SOL     OW93488   0.127  12.658   8.499
30550SOL    HW193489   0.172  12.610   8.429
30550SOL    HW293490   0.152  12.612   8.579
30551SOL     OW93491   7.849   3.652   2.305
30551SOL    HW193492   7.838   3.721   2.370
30551SOL    HW293493   7.760   3.633   2.274
30552SOL     OW93494  10.063   3.776   3.128
30552SOL    HW193495  10.049   3.760   3.222
30552SOL    HW293496  10.158   3.773   3.117
30553SOL     OW93497   9.241  10.583  10.168
30553SOL    HW193498   9.218  10.512  10.227
30553SOL    HW293499   9.166  10.590  10.109
30554SOL     OW93500   6.356   6.028   4.316
30554SOL    HW193501   6.401   6.112   4.309
30554SOL    HW293502   6.419   5.970   4.357
30555SOL     OW93503   3.045  11.397   6.319
30555SOL    HW193504   3.120  11.448   6.289
30555SOL    HW293505   3.022  11.435   6.403
30556SOL     OW93506   3.612  11.819  11.972
30556SOL    HW193507   3.611  11.838  12.065
30556SOL    HW293508   3.589  11.902  11.930
30557SOL     OW93509  12.980   5.638   2.860
30557SOL    HW193510  12.933   5.718   2.885
30557SOL    HW293511  13.004   5.652   2.769
30558SOL     OW93512   4.578  11.455  11.621
30558SOL    HW193513   4.571  11.362  11.597
30558SOL    HW293514   4.664  11.481  11.588
30559SOL     OW93515   8.181  12.061  12.296
30559SOL    HW193516   8.270  12.071  12.263
30559SOL    HW293517   8.149  11.982  12.252
30560SOL     OW93518   7.554   7.408   0.180
30560SOL    HW193519   7.622   7.473   0.199
30560SOL    HW293520   7.576   7.374   0.094
30561SOL     OW93521   4.003  10.830   8.688
30561SOL    HW193522   3.991  10.925   8.690
30561SOL    HW293523   3.932  10.798   8.632
30562SOL     OW93524   8.647   4.909   0.486
30562SOL    HW193525   8.682   4.892   0.399
30562SOL    HW293526   8.666   5.001   0.503
30563SOL     OW93527   0.032  14.727   4.002
30563SOL    HW193528   0.071  14.774   3.929
30563SOL    HW293529   0.087  14.748   4.077
30564SOL     OW93530  14.372   0.059   7.977
30564SOL    HW193531  14.332   0.058   8.064
30564SOL    HW293532  14.429  14.862   7.975
30565SOL     OW93533   8.139  14.544   7.556
30565SOL    HW193534   8.179  14.536   7.643
30565SOL    HW293535   8.093  14.461   7.543
30566SOL     OW93536   9.413   4.876   0.928
30566SOL    HW193537   9.491   4.854   0.877
30566SOL    HW293538   9.343   4.826   0.887
30567SOL     OW93539   9.690   3.302   5.784
30567SOL    HW193540   9.673   3.328   5.693
30567SOL    HW293541   9.757   3.233   5.777
30568SOL     OW93542   4.092   4.222  12.026
30568SOL    HW193543   4.145   4.163  11.972
30568SOL    HW293544   4.155   4.265  12.083
30569SOL     OW93545  12.951   6.812   7.479
30569SOL    HW193546  12.893   6.749   7.438
30569SOL    HW293547  12.998   6.854   7.407
30570SOL     OW93548   8.896   0.985   6.187
30570SOL    HW193549   8.849   1.069   6.185
30570SOL    HW293550   8.974   1.003   6.239
30571SOL     OW93551  13.461   4.064  10.746
30571SOL    HW193552  13.381   4.013  10.754
30571SOL    HW293553  13.432   4.147  10.707
30572SOL     OW93554   4.096  12.359   0.958
30572SOL    HW193555   4.155  12.345   1.031
30572SOL    HW293556   4.018  12.399   0.997
30573SOL     OW93557   6.601  10.971   3.380
30573SOL    HW193558   6.571  11.051   3.423
30573SOL    HW293559   6.576  10.900   3.439
30574SOL     OW93560  10.707   1.062   5.626
30574SOL    HW193561  10.728   1.122   5.555
30574SOL    HW293562  10.667   1.117   5.693
30575SOL     OW93563  13.912   0.688   2.257
30575SOL    HW193564  13.863   0.640   2.190
30575SOL    HW293565  13.844   0.726   2.313
30576SOL     OW93566   8.622   9.520  11.212
30576SOL    HW193567   8.647   9.607  11.181
30576SOL    HW293568   8.683   9.501  11.283
30577SOL     OW93569   6.276  11.097   4.859
30577SOL    HW193570   6.310  11.103   4.949
30577SOL    HW293571   6.294  11.183   4.821
30578SOL     OW93572   9.442  13.463  13.634
30578SOL    HW193573   9.530  13.442  13.664
30578SOL    HW293574   9.454  13.498  13.545
30579SOL     OW93575  13.098   6.108   6.088
30579SOL    HW193576  13.053   6.146   6.012
30579SOL    HW293577  13.098   6.178   6.153
30580SOL     OW93578  10.418   3.043   8.643
30580SOL    HW193579  10.462   3.078   8.720
30580SOL    HW293580  10.449   2.953   8.636
30581SOL     OW93581   2.878   3.814  11.541
30581SOL    HW193582   2.820   3.808  11.616
30581SOL    HW293583   2.948   3.752  11.560
30582SOL     OW93584   0.422  10.957   8.004
30582SOL    HW193585   0.483  11.029   7.986
30582SOL    HW293586   0.432  10.941   8.098
30583SOL     OW93587   3.024   4.897   5.952
30583SOL    HW193588   3.027   4.804   5.973
30583SOL    HW293589   3.093   4.909   5.886
30584SOL     OW93590  11.735   5.787   6.257
30584SOL    HW193591  11.666   5.770   6.322
30584SOL    HW293592  11.688   5.817   6.179
30585SOL     OW93593  13.580   1.592   9.601
30585SOL    HW193594  13.555   1.662   9.661
30585SOL    HW293595  13.540   1.616   9.518
30586SOL     OW93596   8.864  12.866   0.003
30586SOL    HW193597   8.786  12.849  14.830
30586SOL    HW293598   8.883  12.782   0.044
30587SOL     OW93599   6.824  11.460  10.257
30587SOL    HW193600   6.741  11.500  10.234
30587SOL    HW293601   6.801  11.369  10.277
30588SOL     OW93602   7.395   4.387  13.166
30588SOL    HW193603   7.479   4.391  13.121
30588SOL    HW293604   7.372   4.295  13.167
30589SOL     OW93605  13.972  12.329  11.869
30589SOL    HW193606  13.893  12.312  11.818
30589SOL    HW293607  13.948  12.398  11.930
30590SOL     OW93608  14.456   5.661  11.417
30590SOL    HW193609  14.392   5.598  11.385
30590SOL    HW293610  14.523   5.663  11.349
30591SOL     OW93611   6.666   4.409  13.300
30591SOL    HW193612   6.577   4.430  13.270
30591SOL    HW293613   6.686   4.476  13.365
30592SOL     OW93614   7.526   3.126   5.995
30592SOL    HW193615   7.519   3.134   5.900
30592SOL    HW293616   7.463   3.190   6.030
30593SOL     OW93617   6.817  11.053   6.254
30593SOL    HW193618   6.806  11.098   6.338
30593SOL    HW293619   6.831  10.962   6.278
30594SOL     OW93620   3.775   5.351  12.364
30594SOL    HW193621   3.753   5.436  12.403
30594SOL    HW293622   3.772   5.367  12.269
30595SOL     OW93623   3.923   3.898  12.279
30595SOL    HW193624   3.880   3.812  12.273
30595SOL    HW293625   3.932   3.914  12.373
30596SOL     OW93626   1.126  12.210   1.092
30596SOL    HW193627   1.078  12.138   1.050
30596SOL    HW293628   1.215  12.201   1.060
30597SOL     OW93629   5.520  13.552  13.182
30597SOL    HW193630   5.448  13.601  13.141
30597SOL    HW293631   5.484  13.464  13.195
30598SOL     OW93632   1.237  13.583   7.106
30598SOL    HW193633   1.232  13.673   7.138
30598SOL    HW293634   1.149  13.548   7.119
30599SOL     OW93635   4.265   7.510   5.865
30599SOL    HW193636   4.257   7.551   5.779
30599SOL    HW293637   4.295   7.421   5.847
30600SOL     OW93638   0.412   3.076  13.250
30600SOL    HW193639   0.461   3.121  13.319
30600SOL    HW293640   0.347   3.024  13.297
30601SOL     OW93641   6.253  13.444   1.607
30601SOL    HW193642   6.182  13.381   1.625
30601SOL    HW293643   6.332  13.400   1.637
30602SOL     OW93644   9.275  10.824  10.324
30602SOL    HW193645   9.236  10.760  10.265
30602SOL    HW293646   9.325  10.882  10.267
30603SOL     OW93647   9.712   1.803  11.458
30603SOL    HW193648   9.674   1.741  11.396
30603SOL    HW293649   9.786   1.842  11.411
30604SOL     OW93650   7.917   0.389   6.923
30604SOL    HW193651   7.822   0.375   6.926
30604SOL    HW293652   7.926   0.478   6.890
30605SOL     OW93653   7.380   4.325   4.839
30605SOL    HW193654   7.463   4.352   4.799
30605SOL    HW293655   7.346   4.257   4.781
30606SOL     OW93656   6.193   5.396   4.710
30606SOL    HW193657   6.182   5.483   4.749
30606SOL    HW293658   6.280   5.368   4.740
30607SOL     OW93659   9.718   3.464   8.235
30607SOL    HW193660   9.663   3.517   8.293
30607SOL    HW293661   9.783   3.525   8.201
30608SOL     OW93662   5.069   4.309   3.316
30608SOL    HW193663   5.090   4.314   3.409
30608SOL    HW293664   4.977   4.335   3.311
30609SOL     OW93665  10.511   2.150  12.321
30609SOL    HW193666  10.503   2.246  12.319
30609SOL    HW293667  10.562   2.129  12.243
30610SOL     OW93668  12.403   2.304   2.237
30610SOL    HW193669  12.458   2.372   2.276
30610SOL    HW293670  12.334   2.352   2.191
30611SOL     OW93671  14.683   9.468   1.797
30611SOL    HW193672  14.605   9.490   1.848
30611SOL    HW293673  14.666   9.503   1.709
30612SOL     OW93674   9.014  10.226   6.493
30612SOL    HW193675   8.970  10.142   6.510
30612SOL    HW293676   9.007  10.273   6.576
30613SOL     OW93677   1.778   6.545   1.072
30613SOL    HW193678   1.741   6.615   1.126
30613SOL    HW293679   1.812   6.482   1.136
30614SOL     OW93680   6.499   8.883   3.505
30614SOL    HW193681   6.519   8.850   3.593
30614SOL    HW293682   6.582   8.875   3.457
30615SOL     OW93683  12.972   6.339   0.661
30615SOL    HW193684  13.004   6.334   0.571
30615SOL    HW293685  13.026   6.407   0.702
30616SOL     OW93686   6.880   0.655   2.608
30616SOL    HW193687   6.876   0.703   2.691
30616SOL    HW293688   6.970   0.666   2.578
30617SOL     OW93689  13.811   6.878   9.016
30617SOL    HW193690  13.791   6.950   8.956
30617SOL    HW293691  13.907   6.875   9.020
30618SOL     OW93692   9.329   2.100  11.701
30618SOL    HW193693   9.249   2.050  11.685
30618SOL    HW293694   9.327   2.118  11.795
30619SOL     OW93695  10.310  11.196   1.637
30619SOL    HW193696  10.384  11.203   1.697
30619SOL    HW293697  10.262  11.119   1.668
30620SOL     OW93698   2.797  11.288  11.241
30620SOL    HW193699   2.820  11.380  11.229
30620SOL    HW293700   2.734  11.269  11.171
30621SOL     OW93701   5.747   7.358   0.125
30621SOL    HW193702   5.708   7.442   0.150
30621SOL    HW293703   5.687   7.293   0.162
30622SOL     OW93704  11.194   4.548   0.757
30622SOL    HW193705  11.260   4.587   0.699
30622SOL    HW293706  11.201   4.454   0.739
30623SOL     OW93707   0.173   1.479   6.310
30623SOL    HW193708   0.234   1.552   6.315
30623SOL    HW293709   0.099   1.512   6.259
30624SOL     OW93710   1.949  14.291   8.684
30624SOL    HW193711   2.011  14.228   8.720
30624SOL    HW293712   1.923  14.255   8.599
30625SOL     OW93713   9.761   6.826  10.174
30625SOL    HW193714   9.796   6.745  10.211
30625SOL    HW293715   9.699   6.798  10.107
30626SOL     OW93716   1.369  12.983   9.304
30626SOL    HW193717   1.402  13.068   9.332
30626SOL    HW293718   1.294  13.003   9.248
30627SOL     OW93719   0.500   0.339   7.876
30627SOL    HW193720   0.531   0.361   7.964
30627SOL    HW293721   0.426   0.398   7.862
30628SOL     OW93722   0.593   7.875   2.645
30628SOL    HW193723   0.655   7.935   2.686
30628SOL    HW293724   0.614   7.789   2.683
30629SOL     OW93725   2.767  12.327   5.418
30629SOL    HW193726   2.744  12.403   5.366
30629SOL    HW293727   2.781  12.361   5.506
30630SOL     OW93728   6.549   9.072   7.501
30630SOL    HW193729   6.504   9.004   7.450
30630SOL    HW293730   6.600   9.024   7.565
30631SOL     OW93731  10.256   8.066  13.952
30631SOL    HW193732  10.338   8.107  13.978
30631SOL    HW293733  10.263   8.056  13.857
30632SOL     OW93734   8.597   8.198  14.870
30632SOL    HW193735   8.672   8.252  14.847
30632SOL    HW293736   8.528   8.260   0.013
30633SOL     OW93737   4.666   5.012   1.022
30633SOL    HW193738   4.575   5.021   0.994
30633SOL    HW293739   4.669   4.929   1.069
30634SOL     OW93740   8.387  12.454   9.733
30634SOL    HW193741   8.475  12.416   9.738
30634SOL    HW293742   8.353  12.448   9.822
30635SOL     OW93743   5.938   6.113  14.256
30635SOL    HW193744   6.025   6.078  14.274
30635SOL    HW293745   5.923   6.093  14.163
30636SOL     OW93746  14.168  11.334  10.777
30636SOL    HW193747  14.220  11.406  10.742
30636SOL    HW293748  14.128  11.293  10.701
30637SOL     OW93749  13.841   1.621   3.031
30637SOL    HW193750  13.848   1.563   3.107
30637SOL    HW293751  13.929   1.622   2.994
30638SOL     OW93752   5.975   5.417   8.574
30638SOL    HW193753   6.069   5.426   8.586
30638SOL    HW293754   5.963   5.326   8.547
30639SOL     OW93755   5.695   3.301   1.072
30639SOL    HW193756   5.731   3.309   0.984
30639SOL    HW293757   5.603   3.279   1.058
30640SOL     OW93758   1.484   6.187   8.850
30640SOL    HW193759   1.391   6.185   8.871
30640SOL    HW293760   1.528   6.172   8.934
30641SOL     OW93761   3.820  12.218   1.162
30641SOL    HW193762   3.841  12.311   1.159
30641SOL    HW293763   3.836  12.187   1.073
30642SOL     OW93764   6.978   4.326   5.045
30642SOL    HW193765   6.908   4.290   4.990
30642SOL    HW293766   6.944   4.321   5.134
30643SOL     OW93767  13.956  14.857   9.735
30643SOL    HW193768  13.943   0.065   9.771
30643SOL    HW293769  13.932  14.798   9.807
30644SOL     OW93770  11.211   4.153   2.633
30644SOL    HW193771  11.138   4.210   2.607
30644SOL    HW293772  11.253   4.129   2.550
30645SOL     OW93773   3.811   5.940  12.460
30645SOL    HW193774   3.853   6.026  12.469
30645SOL    HW293775   3.718   5.957  12.469
30646SOL     OW93776   2.337   7.802   2.625
30646SOL    HW193777   2.301   7.714   2.615
30646SOL    HW293778   2.417   7.801   2.571
30647SOL     OW93779  14.596   7.679   1.294
30647SOL    HW193780  14.649   7.757   1.276
30647SOL    HW293781  14.531   7.709   1.358
30648SOL     OW93782   4.999   8.729   5.323
30648SOL    HW193783   5.004   8.726   5.227
30648SOL    HW293784   5.010   8.822   5.345
30649SOL     OW93785  13.374   5.542   9.659
30649SOL    HW193786  13.311   5.610   9.637
30649SOL    HW293787  13.341   5.505   9.741
30650SOL     OW93788   1.425   2.732   2.232
30650SOL    HW193789   1.361   2.733   2.160
30650SOL    HW293790   1.509   2.717   2.188
30651SOL     OW93791   2.199   4.937   4.570
30651SOL    HW193792   2.129   4.924   4.634
30651SOL    HW293793   2.278   4.943   4.623
30652SOL     OW93794  10.588   2.942   7.974
30652SOL    HW193795  10.637   3.025   7.976
30652SOL    HW293796  10.500   2.968   7.946
30653SOL     OW93797  11.852   8.193   6.134
30653SOL    HW193798  11.799   8.207   6.212
30653SOL    HW293799  11.802   8.129   6.083
30654SOL     OW93800   3.027  13.249   0.076
30654SOL    HW193801   3.069  13.295   0.003
30654SOL    HW293802   3.091  13.182   0.101
30655SOL     OW93803  13.031   0.117   9.635
30655SOL    HW193804  13.098   0.184   9.620
30655SOL    HW293805  12.988   0.107   9.550
30656SOL     OW93806  10.491  10.561   3.067
30656SOL    HW193807  10.516  10.557   3.160
30656SOL    HW293808  10.565  10.522   3.021
30657SOL     OW93809   2.108  11.592  13.954
30657SOL    HW193810   2.146  11.517  14.001
30657SOL    HW293811   2.158  11.667  13.984
30658SOL     OW93812   4.107   5.682   7.881
30658SOL    HW193813   4.115   5.714   7.791
30658SOL    HW293814   4.052   5.745   7.925
30659SOL     OW93815   3.194   8.301   7.152
30659SOL    HW193816   3.270   8.338   7.108
30659SOL    HW293817   3.134   8.278   7.082
30660SOL     OW93818  13.342   5.052  13.453
30660SOL    HW193819  13.307   5.139  13.471
30660SOL    HW293820  13.437   5.065  13.448
30661SOL     OW93821   8.863   4.509   0.281
30661SOL    HW193822   8.835   4.493   0.191
30661SOL    HW293823   8.791   4.478   0.336
30662SOL     OW93824   0.470  14.632   5.737
30662SOL    HW193825   0.510  14.684   5.668
30662SOL    HW293826   0.517  14.548   5.735
30663SOL     OW93827   1.870   6.015   4.221
30663SOL    HW193828   1.897   5.964   4.297
30663SOL    HW293829   1.826   6.091   4.257
30664SOL     OW93830   4.611  11.828  12.722
30664SOL    HW193831   4.615  11.898  12.787
30664SOL    HW293832   4.537  11.852  12.665
30665SOL     OW93833   8.764  12.905   2.869
30665SOL    HW193834   8.711  12.937   2.795
30665SOL    HW293835   8.820  12.838   2.831
30666SOL     OW93836   5.636  14.669   8.604
30666SOL    HW193837   5.657  14.677   8.511
30666SOL    HW293838   5.612  14.578   8.616
30667SOL     OW93839   5.538   6.568   0.948
30667SOL    HW193840   5.585   6.539   1.026
30667SOL    HW293841   5.517   6.660   0.966
30668SOL     OW93842   3.568  11.156   7.016
30668SOL    HW193843   3.552  11.083   7.076
30668SOL    HW293844   3.638  11.124   6.958
30669SOL     OW93845   2.819   0.847  14.810
30669SOL    HW193846   2.861   0.774  14.856
30669SOL    HW293847   2.774   0.807  14.736
30670SOL     OW93848   5.182   7.342   6.193
30670SOL    HW193849   5.237   7.334   6.115
30670SOL    HW293850   5.241   7.324   6.266
30671SOL     OW93851   5.578   2.369   7.899
30671SOL    HW193852   5.613   2.438   7.955
30671SOL    HW293853   5.571   2.293   7.956
30672SOL     OW93854   6.922   0.862   4.928
30672SOL    HW193855   6.856   0.868   4.997
30672SOL    HW293856   6.946   0.769   4.927
30673SOL     OW93857  10.754   4.352   2.503
30673SOL    HW193858  10.781   4.334   2.413
30673SOL    HW293859  10.701   4.432   2.497
30674SOL     OW93860   5.818   2.618  12.427
30674SOL    HW193861   5.737   2.668  12.425
30674SOL    HW293862   5.840   2.610  12.519
30675SOL     OW93863   3.859   3.455  10.500
30675SOL    HW193864   3.788   3.470  10.563
30675SOL    HW293865   3.826   3.387  10.442
30676SOL     OW93866   8.606   8.572  13.838
30676SOL    HW193867   8.552   8.535  13.768
30676SOL    HW293868   8.688   8.522  13.834
30677SOL     OW93869   0.005  12.117  13.182
30677SOL    HW193870   0.066  12.164  13.239
30677SOL    HW293871   0.037  12.134  13.093
30678SOL     OW93872   8.231  14.800   9.104
30678SOL    HW193873   8.290  14.729   9.079
30678SOL    HW293874   8.278  14.847   9.173
30679SOL     OW93875   8.537   6.052   9.077
30679SOL    HW193876   8.472   5.988   9.107
30679SOL    HW293877   8.564   6.019   8.991
30680SOL     OW93878   9.852   4.616  12.673
30680SOL    HW193879   9.780   4.616  12.736
30680SOL    HW293880   9.931   4.631  12.726
30681SOL     OW93881   4.228   7.535   1.205
30681SOL    HW193882   4.317   7.503   1.212
30681SOL    HW293883   4.204   7.523   1.113
30682SOL     OW93884  14.692  10.993  11.193
30682SOL    HW193885  14.620  10.985  11.132
30682SOL    HW293886  14.769  10.962  11.145
30683SOL     OW93887   6.035  10.645   4.912
30683SOL    HW193888   6.048  10.558   4.875
30683SOL    HW293889   5.969  10.685   4.855
30684SOL     OW93890  11.722   4.668   9.971
30684SOL    HW193891  11.792   4.645   9.910
30684SOL    HW293892  11.756   4.643  10.057
30685SOL     OW93893   5.777   0.943  14.483
30685SOL    HW193894   5.778   0.889  14.404
30685SOL    HW293895   5.726   0.893  14.546
30686SOL     OW93896   0.018   1.836  14.467
30686SOL    HW193897   0.075   1.890  14.412
30686SOL    HW293898   0.038   1.746  14.442
30687SOL     OW93899   6.388  10.818  12.881
30687SOL    HW193900   6.323  10.756  12.848
30687SOL    HW293901   6.467  10.766  12.892
30688SOL     OW93902   2.642   1.253   3.123
30688SOL    HW193903   2.643   1.341   3.161
30688SOL    HW293904   2.550   1.227   3.125
30689SOL     OW93905   2.218  10.049   9.854
30689SOL    HW193906   2.167   9.969   9.862
30689SOL    HW293907   2.272  10.037   9.776
30690SOL     OW93908   1.472  10.155   8.652
30690SOL    HW193909   1.398  10.157   8.713
30690SOL    HW293910   1.474  10.065   8.619
30691SOL     OW93911  14.344   0.694  10.689
30691SOL    HW193912  14.378   0.659  10.607
30691SOL    HW293913  14.249   0.681  10.684
30692SOL     OW93914  14.374   6.717   5.163
30692SOL    HW193915  14.401   6.686   5.250
30692SOL    HW293916  14.396   6.645   5.104
30693SOL     OW93917   9.681  13.253  12.428
30693SOL    HW193918   9.770  13.267  12.461
30693SOL    HW293919   9.687  13.177  12.371
30694SOL     OW93920  12.663  14.522  11.389
30694SOL    HW193921  12.626  14.469  11.319
30694SOL    HW293922  12.752  14.490  11.400
30695SOL     OW93923   4.532  14.471   9.630
30695SOL    HW193924   4.473  14.473   9.706
30695SOL    HW293925   4.493  14.406   9.571
30696SOL     OW93926  14.584   8.318   0.113
30696SOL    HW193927  14.508   8.312   0.054
30696SOL    HW293928  14.649   8.367   0.063
30697SOL     OW93929   4.266  13.949   5.718
30697SOL    HW193930   4.255  13.943   5.813
30697SOL    HW293931   4.359  13.929   5.704
30698SOL     OW93932  10.770   9.596   4.542
30698SOL    HW193933  10.859   9.632   4.536
30698SOL    HW293934  10.775   9.532   4.613
30699SOL     OW93935   2.034   6.133   7.109
30699SOL    HW193936   2.052   6.063   7.046
30699SOL    HW293937   2.090   6.205   7.080
30700SOL     OW93938   9.678   1.333   0.025
30700SOL    HW193939   9.760   1.284   0.024
30700SOL    HW293940   9.690   1.401  14.838
30701SOL     OW93941   1.379   3.648   0.267
30701SOL    HW193942   1.329   3.599   0.201
30701SOL    HW293943   1.363   3.740   0.247
30702SOL     OW93944   7.080   1.001  13.230
30702SOL    HW193945   7.003   0.974  13.280
30702SOL    HW293946   7.088   1.095  13.246
30703SOL     OW93947   3.511   5.544  12.880
30703SOL    HW193948   3.558   5.460  12.876
30703SOL    HW293949   3.420   5.519  12.896
30704SOL     OW93950   9.809   4.727  11.826
30704SOL    HW193951   9.737   4.710  11.886
30704SOL    HW293952   9.786   4.810  11.784
30705SOL     OW93953   3.546   5.741  10.619
30705SOL    HW193954   3.585   5.660  10.586
30705SOL    HW293955   3.459   5.743  10.580
30706SOL     OW93956   8.138   2.938   2.176
30706SOL    HW193957   8.093   2.976   2.251
30706SOL    HW293958   8.143   3.009   2.112
30707SOL     OW93959  14.504  12.502  11.904
30707SOL    HW193960  14.416  12.502  11.867
30707SOL    HW293961  14.491  12.479  11.996
30708SOL     OW93962  13.875  10.386   1.418
30708SOL    HW193963  13.915  10.429   1.343
30708SOL    HW293964  13.829  10.456   1.465
30709SOL     OW93965  12.749  13.732   6.944
30709SOL    HW193966  12.665  13.687   6.954
30709SOL    HW293967  12.797  13.712   7.025
30710SOL     OW93968   3.190   0.049   3.514
30710SOL    HW193969   3.112   0.003   3.484
30710SOL    HW293970   3.200   0.021   3.606
30711SOL     OW93971   8.763  13.457   4.425
30711SOL    HW193972   8.757  13.456   4.329
30711SOL    HW293973   8.802  13.542   4.445
30712SOL     OW93974   4.335   3.843   6.610
30712SOL    HW193975   4.417   3.825   6.564
30712SOL    HW293976   4.353   3.920   6.664
30713SOL     OW93977   2.396   3.492   5.517
30713SOL    HW193978   2.356   3.419   5.470
30713SOL    HW293979   2.453   3.534   5.453
30714SOL     OW93980   4.448   3.036   1.343
30714SOL    HW193981   4.447   3.128   1.370
30714SOL    HW293982   4.539   3.019   1.317
30715SOL     OW93983  10.762  10.801   4.171
30715SOL    HW193984  10.801  10.764   4.250
30715SOL    HW293985  10.690  10.741   4.150
30716SOL     OW93986   7.661   1.418   6.683
30716SOL    HW193987   7.757   1.416   6.682
30716SOL    HW293988   7.635   1.389   6.596
30717SOL     OW93989   1.884  14.470   1.304
30717SOL    HW193990   1.796  14.508   1.306
30717SOL    HW293991   1.912  14.480   1.213
30718SOL     OW93992   6.217  13.615  13.932
30718SOL    HW193993   6.141  13.599  13.876
30718SOL    HW293994   6.281  13.550  13.903
30719SOL     OW93995   7.378   1.352   2.388
30719SOL    HW193996   7.421   1.429   2.425
30719SOL    HW293997   7.369   1.372   2.295
30720SOL     OW93998  13.736  11.064   4.211
30720SOL    HW193999  13.721  11.114   4.131
30720SOL    HW294000  13.831  11.065   4.222
30721SOL     OW94001   2.961   7.174   0.093
30721SOL    HW194002   2.886   7.150   0.148
30721SOL    HW294003   2.980   7.095   0.043
30722SOL     OW94004  11.263  13.439   1.419
30722SOL    HW194005  11.215  13.357   1.413
30722SOL    HW294006  11.291  13.456   1.329
30723SOL     OW94007   4.614   1.145   4.963
30723SOL    HW194008   4.587   1.108   4.879
30723SOL    HW294009   4.690   1.093   4.990
30724SOL     OW94010   3.114  10.077   3.801
30724SOL    HW194011   3.045  10.046   3.860
30724SOL    HW294012   3.138  10.163   3.836
30725SOL     OW94013   8.004  12.206  11.616
30725SOL    HW194014   8.067  12.275  11.594
30725SOL    HW294015   7.943  12.249  11.677
30726SOL     OW94016   3.187   4.785   6.327
30726SOL    HW194017   3.122   4.824   6.385
30726SOL    HW294018   3.200   4.849   6.258
30727SOL     OW94019   9.955   1.347  10.716
30727SOL    HW194020   9.933   1.420  10.659
30727SOL    HW294021   9.871   1.306  10.736
30728SOL     OW94022   8.597  13.656  11.511
30728SOL    HW194023   8.506  13.652  11.539
30728SOL    HW294024   8.603  13.739  11.463
30729SOL     OW94025  13.008  10.572   9.153
30729SOL    HW194026  13.006  10.573   9.058
30729SOL    HW294027  13.023  10.480   9.176
30730SOL     OW94028   3.021  11.059   2.945
30730SOL    HW194029   3.071  11.141   2.951
30730SOL    HW294030   3.041  11.025   2.858
30731SOL     OW94031   4.231   7.053   2.988
30731SOL    HW194032   4.159   7.007   2.944
30731SOL    HW294033   4.268   6.988   3.047
30732SOL     OW94034   1.578  10.926   5.213
30732SOL    HW194035   1.593  10.964   5.300
30732SOL    HW294036   1.489  10.952   5.191
30733SOL     OW94037   3.788   2.110   5.125
30733SOL    HW194038   3.712   2.090   5.071
30733SOL    HW294039   3.840   2.170   5.070
30734SOL     OW94040  11.796   8.133   2.542
30734SOL    HW194041  11.847   8.121   2.622
30734SOL    HW294042  11.754   8.048   2.527
30735SOL     OW94043  12.866   9.318  11.571
30735SOL    HW194044  12.954   9.283  11.590
30735SOL    HW294045  12.861   9.318  11.475
30736SOL     OW94046   8.176  12.445  11.618
30736SOL    HW194047   8.216  12.524  11.657
30736SOL    HW294048   8.251  12.397  11.582
30737SOL     OW94049  11.026   4.443  10.335
30737SOL    HW194050  11.105   4.446  10.389
30737SOL    HW294051  11.008   4.350  10.324
30738SOL     OW94052   4.578   3.533   9.618
30738SOL    HW194053   4.530   3.507   9.696
30738SOL    HW294054   4.581   3.453   9.565
30739SOL     OW94055  10.404   6.272   2.992
30739SOL    HW194056  10.464   6.347   2.989
30739SOL    HW294057  10.424   6.228   3.075
30740SOL     OW94058   9.322  12.009  11.782
30740SOL    HW194059   9.272  12.074  11.831
30740SOL    HW294060   9.346  11.943  11.847
30741SOL     OW94061   5.248   1.832   2.016
30741SOL    HW194062   5.202   1.907   1.977
30741SOL    HW294063   5.242   1.763   1.950
30742SOL     OW94064   5.759   4.695  10.260
30742SOL    HW194065   5.746   4.752  10.184
30742SOL    HW294066   5.850   4.708  10.284
30743SOL     OW94067  14.640   6.439   7.161
30743SOL    HW194068  14.660   6.446   7.254
30743SOL    HW294069  14.705   6.378   7.127
30744SOL     OW94070   7.595   7.068  11.681
30744SOL    HW194071   7.504   7.092  11.697
30744SOL    HW294072   7.592   7.013  11.603
30745SOL     OW94073   5.563  10.937  11.577
30745SOL    HW194074   5.518  10.976  11.502
30745SOL    HW294075   5.589  10.849  11.547
30746SOL     OW94076   4.338   6.343  11.840
30746SOL    HW194077   4.334   6.262  11.789
30746SOL    HW294078   4.402   6.398  11.794
30747SOL     OW94079  13.487   8.731   0.012
30747SOL    HW194080  13.422   8.695  14.831
30747SOL    HW294081  13.571   8.710  14.853
30748SOL     OW94082  10.645   9.932  10.981
30748SOL    HW194083  10.723   9.878  10.994
30748SOL    HW294084  10.679  10.015  10.948
30749SOL     OW94085   5.427  12.474   8.413
30749SOL    HW194086   5.521  12.484   8.424
30749SOL    HW294087   5.399  12.552   8.365
30750SOL     OW94088  12.962  13.769   6.132
30750SOL    HW194089  12.891  13.832   6.146
30750SOL    HW294090  13.032  13.798   6.191
30751SOL     OW94091   8.377   6.301   1.445
30751SOL    HW194092   8.453   6.287   1.389
30751SOL    HW294093   8.314   6.348   1.389
30752SOL     OW94094   6.017  10.534  12.288
30752SOL    HW194095   6.063  10.485  12.356
30752SOL    HW294096   6.017  10.475  12.213
30753SOL     OW94097   6.984   8.597   4.147
30753SOL    HW194098   6.990   8.634   4.059
30753SOL    HW294099   6.980   8.502   4.134
30754SOL     OW94100  13.316   4.636  14.101
30754SOL    HW194101  13.304   4.548  14.064
30754SOL    HW294102  13.402   4.633  14.142
30755SOL     OW94103   2.327  11.886  11.259
30755SOL    HW194104   2.248  11.835  11.244
30755SOL    HW294105   2.297  11.977  11.264
30756SOL     OW94106   1.970  13.448  10.937
30756SOL    HW194107   1.973  13.381  10.868
30756SOL    HW294108   2.034  13.514  10.909
30757SOL     OW94109   2.642  13.036   5.321
30757SOL    HW194110   2.644  12.954   5.371
30757SOL    HW294111   2.695  13.018   5.244
30758SOL     OW94112   3.656   9.634  13.594
30758SOL    HW194113   3.561   9.645  13.594
30758SOL    HW294114   3.670   9.540  13.584
30759SOL     OW94115  13.915  13.729   8.336
30759SOL    HW194116  13.841  13.680   8.298
30759SOL    HW294117  13.905  13.717   8.430
30760SOL     OW94118   6.633  12.996   2.106
30760SOL    HW194119   6.587  12.951   2.177
30760SOL    HW294120   6.657  13.081   2.143
30761SOL     OW94121  10.951   8.006   6.302
30761SOL    HW194122  10.891   7.978   6.233
30761SOL    HW294123  11.031   7.958   6.285
30762SOL     OW94124   9.183  11.908   1.475
30762SOL    HW194125   9.167  11.820   1.441
30762SOL    HW294126   9.144  11.967   1.411
30763SOL     OW94127  11.501  14.802   7.837
30763SOL    HW194128  11.502  14.712   7.872
30763SOL    HW294129  11.570  14.804   7.772
30764SOL     OW94130  13.855  12.395  13.971
30764SOL    HW194131  13.893  12.425  14.054
30764SOL    HW294132  13.864  12.470  13.912
30765SOL     OW94133  11.625   8.943   6.003
30765SOL    HW194134  11.714   8.936   5.969
30765SOL    HW294135  11.636   8.942   6.098
30766SOL     OW94136   6.512   7.442   4.805
30766SOL    HW194137   6.437   7.470   4.754
30766SOL    HW294138   6.491   7.353   4.832
30767SOL     OW94139  11.113   1.587  14.224
30767SOL    HW194140  11.043   1.558  14.165
30767SOL    HW294141  11.149   1.506  14.260
30768SOL     OW94142  11.897   9.912   1.420
30768SOL    HW194143  11.905   9.937   1.328
30768SOL    HW294144  11.986   9.923   1.456
30769SOL     OW94145   3.520  12.441   0.626
30769SOL    HW194146   3.533  12.532   0.654
30769SOL    HW294147   3.507  12.446   0.532
30770SOL     OW94148   4.494  11.608  11.385
30770SOL    HW194149   4.433  11.677  11.410
30770SOL    HW294150   4.521  11.568  11.467
30771SOL     OW94151  12.598   6.270   6.669
30771SOL    HW194152  12.635   6.188   6.635
30771SOL    HW294153  12.605   6.331   6.596
30772SOL     OW94154   3.193   8.319  11.230
30772SOL    HW194155   3.213   8.226  11.230
30772SOL    HW294156   3.250   8.356  11.297
30773SOL     OW94157   0.345   5.123  14.015
30773SOL    HW194158   0.406   5.190  13.984
30773SOL    HW294159   0.271   5.127  13.955
30774SOL     OW94160  14.026   5.183   6.431
30774SOL    HW194161  14.010   5.111   6.491
30774SOL    HW294162  13.992   5.153   6.347
30775SOL     OW94163   3.252  10.296  13.556
30775SOL    HW194164   3.325  10.252  13.512
30775SOL    HW294165   3.241  10.248  13.638
30776SOL     OW94166   0.440   4.278   7.876
30776SOL    HW194167   0.416   4.232   7.956
30776SOL    HW294168   0.478   4.209   7.820
30777SOL     OW94169   9.738   5.579  14.302
30777SOL    HW194170   9.812   5.635  14.280
30777SOL    HW294171   9.662   5.638  14.306
30778SOL     OW94172   0.659  14.765  11.910
30778SOL    HW194173   0.748  14.732  11.900
30778SOL    HW294174   0.662  14.821  11.988
30779SOL     OW94175   0.478  14.387   1.418
30779SOL    HW194176   0.541  14.329   1.375
30779SOL    HW294177   0.518  14.474   1.414
30780SOL     OW94178  12.721  13.498  11.919
30780SOL    HW194179  12.746  13.553  11.994
30780SOL    HW294180  12.785  13.427  11.919
30781SOL     OW94181   4.263   8.383   5.816
30781SOL    HW194182   4.192   8.324   5.839
30781SOL    HW294183   4.285   8.359   5.726
30782SOL     OW94184   3.739   9.304   1.335
30782SOL    HW194185   3.738   9.324   1.241
30782SOL    HW294186   3.782   9.219   1.341
30783SOL     OW94187   7.285   1.546  14.300
30783SOL    HW194188   7.257   1.622  14.351
30783SOL    HW294189   7.336   1.584  14.228
30784SOL     OW94190   9.691   6.179  13.812
30784SOL    HW194191   9.698   6.139  13.899
30784SOL    HW294192   9.675   6.272  13.830
30785SOL     OW94193   9.711   6.741  11.166
30785SOL    HW194194   9.673   6.824  11.194
30785SOL    HW294195   9.703   6.743  11.070
30786SOL     OW94196  10.078   9.305   5.851
30786SOL    HW194197  10.016   9.316   5.924
30786SOL    HW294198  10.156   9.268   5.892
30787SOL     OW94199   0.330  14.014  10.410
30787SOL    HW194200   0.304  13.974  10.493
30787SOL    HW294201   0.249  14.017  10.359
30788SOL     OW94202   8.508   6.121   2.334
30788SOL    HW194203   8.471   6.192   2.282
30788SOL    HW294204   8.473   6.135   2.422
30789SOL     OW94205  13.605  14.387   7.284
30789SOL    HW194206  13.666  14.351   7.348
30789SOL    HW294207  13.575  14.470   7.323
30790SOL     OW94208  13.246  10.065   6.173
30790SOL    HW194209  13.282   9.984   6.207
30790SOL    HW294210  13.320  10.125   6.166
30791SOL     OW94211   8.350   3.788   7.952
30791SOL    HW194212   8.260   3.820   7.945
30791SOL    HW294213   8.393   3.820   7.872
30792SOL     OW94214   0.215  10.496   8.432
30792SOL    HW194215   0.138  10.531   8.389
30792SOL    HW294216   0.281  10.566   8.425
30793SOL     OW94217  10.154   4.724  14.013
30793SOL    HW194218  10.247   4.726  13.992
30793SOL    HW294219  10.149   4.689  14.102
30794SOL     OW94220   0.180   5.196  13.314
30794SOL    HW194221   0.236   5.139  13.262
30794SOL    HW294222   0.190   5.163  13.404
30795SOL     OW94223   7.018  13.170   3.120
30795SOL    HW194224   7.089  13.110   3.141
30795SOL    HW294225   6.988  13.202   3.205
30796SOL     OW94226   0.023   9.744   6.766
30796SOL    HW194227   0.119   9.750   6.766
30796SOL    HW294228   0.003   9.682   6.696
30797SOL     OW94229  13.783  10.348  10.010
30797SOL    HW194230  13.782  10.295   9.930
30797SOL    HW294231  13.799  10.437   9.980
30798SOL     OW94232  12.317   2.268   9.810
30798SOL    HW194233  12.280   2.200   9.867
30798SOL    HW294234  12.325   2.225   9.724
30799SOL     OW94235   2.155   1.318   3.631
30799SOL    HW194236   2.084   1.380   3.648
30799SOL    HW294237   2.134   1.242   3.684
30800SOL     OW94238   5.677   5.629   9.743
30800SOL    HW194239   5.643   5.719   9.739
30800SOL    HW294240   5.710   5.612   9.655
30801SOL     OW94241  13.718   2.416   5.125
30801SOL    HW194242  13.725   2.334   5.076
30801SOL    HW294243  13.804   2.428   5.165
30802SOL     OW94244   4.680   6.635   3.781
30802SOL    HW194245   4.635   6.605   3.860
30802SOL    HW294246   4.650   6.575   3.713
30803SOL     OW94247   9.126  14.720  10.719
30803SOL    HW194248   9.058  14.736  10.654
30803SOL    HW294249   9.090  14.650  10.775
30804SOL     OW94250   9.364   3.622   2.621
30804SOL    HW194251   9.401   3.546   2.577
30804SOL    HW294252   9.276   3.594   2.648
30805SOL     OW94253   5.081   8.931   2.593
30805SOL    HW194254   5.173   8.937   2.566
30805SOL    HW294255   5.067   8.838   2.610
30806SOL     OW94256   4.514   5.737  10.021
30806SOL    HW194257   4.575   5.810  10.015
30806SOL    HW294258   4.454   5.761  10.092
30807SOL     OW94259  11.526   4.288  12.343
30807SOL    HW194260  11.480   4.364  12.306
30807SOL    HW294261  11.510   4.218  12.281
30808SOL     OW94262   9.427   9.260  14.165
30808SOL    HW194263   9.480   9.253  14.085
30808SOL    HW294264   9.371   9.182  14.162
30809SOL     OW94265   5.558   9.188  10.737
30809SOL    HW194266   5.609   9.265  10.713
30809SOL    HW294267   5.483   9.189  10.676
30810SOL     OW94268   7.932   3.045   3.342
30810SOL    HW194269   7.983   3.001   3.410
30810SOL    HW294270   7.968   3.013   3.260
30811SOL     OW94271   2.249  13.514  11.773
30811SOL    HW194272   2.299  13.564  11.837
30811SOL    HW294273   2.218  13.580  11.710
30812SOL     OW94274   7.381   0.827  10.712
30812SOL    HW194275   7.383   0.759  10.644
30812SOL    HW294276   7.451   0.802  10.772
30813SOL     OW94277   1.381   2.927   6.572
30813SOL    HW194278   1.396   2.986   6.646
30813SOL    HW294279   1.405   2.841   6.605
30814SOL     OW94280  11.288   0.464  10.748
30814SOL    HW194281  11.349   0.537  10.737
30814SOL    HW294282  11.203   0.501  10.721
30815SOL     OW94283   2.288   1.599   6.714
30815SOL    HW194284   2.361   1.659   6.730
30815SOL    HW294285   2.210   1.649   6.739
30816SOL     OW94286   4.095   5.533   5.768
30816SOL    HW194287   4.010   5.504   5.801
30816SOL    HW294288   4.128   5.594   5.833
30817SOL     OW94289   1.145  14.799   5.892
30817SOL    HW194290   1.155  14.722   5.949
30817SOL    HW294291   1.234  14.817   5.862
30818SOL     OW94292   5.343   6.536  13.394
30818SOL    HW194293   5.362   6.549  13.301
30818SOL    HW294294   5.360   6.443  13.409
30819SOL     OW94295   1.546   0.195   9.286
30819SOL    HW194296   1.585   0.214   9.371
30819SOL    HW294297   1.506   0.277   9.258
30820SOL     OW94298  10.540  14.643  10.524
30820SOL    HW194299  10.616  14.604  10.566
30820SOL    HW294300  10.524  14.589  10.447
30821SOL     OW94301  14.056   4.635   9.849
30821SOL    HW194302  14.021   4.701   9.908
30821SOL    HW294303  14.006   4.556   9.870
30822SOL     OW94304   7.475   0.820   4.261
30822SOL    HW194305   7.505   0.883   4.194
30822SOL    HW294306   7.411   0.869   4.313
30823SOL     OW94307   6.275  14.752   4.807
30823SOL    HW194308   6.294  14.748   4.713
30823SOL    HW294309   6.194  14.803   4.813
30824SOL     OW94310   9.491  10.550   0.329
30824SOL    HW194311   9.516  10.637   0.297
30824SOL    HW294312   9.551  10.490   0.286
30825SOL     OW94313   6.264   9.613   0.107
30825SOL    HW194314   6.260   9.666   0.186
30825SOL    HW294315   6.183   9.633   0.061
30826SOL     OW94316   6.784   3.979   7.166
30826SOL    HW194317   6.813   3.982   7.074
30826SOL    HW294318   6.773   4.071   7.190
30827SOL     OW94319   1.721   9.496  13.218
30827SOL    HW194320   1.699   9.433  13.286
30827SOL    HW294321   1.745   9.576  13.266
30828SOL     OW94322  12.306   2.485   0.498
30828SOL    HW194323  12.346   2.443   0.422
30828SOL    HW294324  12.314   2.421   0.568
30829SOL     OW94325  11.513   8.416   5.185
30829SOL    HW194326  11.458   8.387   5.112
30829SOL    HW294327  11.458   8.401   5.263
30830SOL     OW94328   5.106  14.540   1.619
30830SOL    HW194329   5.196  14.554   1.590
30830SOL    HW294330   5.058  14.522   1.538
30831SOL     OW94331  13.014   9.917   6.640
30831SOL    HW194332  13.049   9.917   6.729
30831SOL    HW294333  13.057   9.991   6.597
30832SOL     OW94334   6.618   7.673   7.386
30832SOL    HW194335   6.592   7.725   7.462
30832SOL    HW294336   6.598   7.583   7.410
30833SOL     OW94337  12.453   1.917  12.943
30833SOL    HW194338  12.379   1.865  12.910
30833SOL    HW294339  12.478   1.973  12.869
30834SOL     OW94340   0.863  14.111   8.329
30834SOL    HW194341   0.833  14.180   8.270
30834SOL    HW294342   0.943  14.146   8.368
30835SOL     OW94343   5.438   0.862   5.951
30835SOL    HW194344   5.361   0.903   5.912
30835SOL    HW294345   5.473   0.807   5.881
30836SOL     OW94346  11.147  11.679  14.065
30836SOL    HW194347  11.118  11.604  14.117
30836SOL    HW294348  11.136  11.652  13.974
30837SOL     OW94349  11.542  13.446   0.768
30837SOL    HW194350  11.499  13.411   0.690
30837SOL    HW294351  11.492  13.410   0.842
30838SOL     OW94352   5.298  13.351   3.486
30838SOL    HW194353   5.308  13.373   3.394
30838SOL    HW294354   5.365  13.284   3.502
30839SOL     OW94355   0.686  14.420  10.626
30839SOL    HW194356   0.642  14.486  10.679
30839SOL    HW294357   0.730  14.470  10.557
30840SOL     OW94358   2.582  13.236   8.761
30840SOL    HW194359   2.632  13.267   8.837
30840SOL    HW294360   2.525  13.309   8.739
30841SOL     OW94361   2.611  12.175   3.212
30841SOL    HW194362   2.666  12.218   3.146
30841SOL    HW294363   2.612  12.083   3.188
30842SOL     OW94364   9.381   2.479  14.877
30842SOL    HW194365   9.302   2.496  14.827
30842SOL    HW294366   9.436   2.556  14.862
30843SOL     OW94367  14.811   2.622   0.993
30843SOL    HW194368  14.723   2.592   1.015
30843SOL    HW294369  14.820   2.705   1.040
30844SOL     OW94370   3.850  11.126   6.141
30844SOL    HW194371   3.779  11.171   6.096
30844SOL    HW294372   3.807  11.079   6.212
30845SOL     OW94373   7.175  13.961  13.317
30845SOL    HW194374   7.179  13.927  13.406
30845SOL    HW294375   7.209  13.890  13.262
30846SOL     OW94376  13.870   3.776   0.639
30846SOL    HW194377  13.880   3.797   0.546
30846SOL    HW294378  13.871   3.861   0.683
30847SOL     OW94379  13.998   6.827   9.279
30847SOL    HW194380  14.093   6.833   9.289
30847SOL    HW294381  13.984   6.827   9.184
30848SOL     OW94382  13.664   5.714  14.231
30848SOL    HW194383  13.611   5.730  14.152
30848SOL    HW294384  13.688   5.801  14.261
30849SOL     OW94385   1.343  13.240  13.476
30849SOL    HW194386   1.399  13.185  13.421
30849SOL    HW294387   1.260  13.193  13.481
30850SOL     OW94388   1.110   4.558  12.841
30850SOL    HW194389   1.058   4.557  12.761
30850SOL    HW294390   1.047   4.541  12.911
30851SOL     OW94391   3.193   5.417   7.612
30851SOL    HW194392   3.251   5.354   7.655
30851SOL    HW294393   3.151   5.367   7.542
30852SOL     OW94394   2.714  14.388   1.473
30852SOL    HW194395   2.632  14.352   1.505
30852SOL    HW294396   2.724  14.350   1.385
30853SOL     OW94397   8.912   1.971   4.931
30853SOL    HW194398   8.996   1.941   4.895
30853SOL    HW294399   8.930   2.059   4.965
30854SOL     OW94400   4.988   9.780   3.187
30854SOL    HW194401   5.033   9.828   3.117
30854SOL    HW294402   4.957   9.700   3.145
30855SOL     OW94403   2.794   9.017   4.248
30855SOL    HW194404   2.748   9.063   4.178
30855SOL    HW294405   2.825   8.936   4.207
30856SOL     OW94406   0.701   4.635   5.291
30856SOL    HW194407   0.624   4.650   5.345
30856SOL    HW294408   0.673   4.657   5.202
30857SOL     OW94409   2.271   6.079   7.360
30857SOL    HW194410   2.281   6.051   7.451
30857SOL    HW294411   2.259   6.174   7.366
30858SOL     OW94412   6.780   6.784   6.461
30858SOL    HW194413   6.806   6.696   6.434
30858SOL    HW294414   6.845   6.808   6.527
30859SOL     OW94415   4.276   9.400  12.253
30859SOL    HW194416   4.277   9.485  12.297
30859SOL    HW294417   4.233   9.341  12.315
30860SOL     OW94418  13.585  10.790   4.135
30860SOL    HW194419  13.591  10.704   4.176
30860SOL    HW294420  13.671  10.830   4.152
30861SOL     OW94421  12.484   5.916  12.482
30861SOL    HW194422  12.434   5.843  12.519
30861SOL    HW294423  12.470   5.989  12.543
30862SOL     OW94424   8.961  13.495   1.327
30862SOL    HW194425   8.991  13.502   1.417
30862SOL    HW294426   8.868  13.473   1.334
30863SOL     OW94427   2.852  11.545  11.861
30863SOL    HW194428   2.772  11.593  11.844
30863SOL    HW294429   2.885  11.520  11.775
30864SOL     OW94430  10.357  10.048  13.250
30864SOL    HW194431  10.330  10.006  13.332
30864SOL    HW294432  10.277  10.085  13.214
30865SOL     OW94433   3.458   6.615  11.901
30865SOL    HW194434   3.427   6.528  11.877
30865SOL    HW294435   3.381   6.671  11.894
30866SOL     OW94436  13.305  10.802   9.335
30866SOL    HW194437  13.340  10.813   9.424
30866SOL    HW294438  13.216  10.770   9.349
30867SOL     OW94439  13.202   6.514   2.096
30867SOL    HW194440  13.111   6.503   2.068
30867SOL    HW294441  13.198   6.578   2.166
30868SOL     OW94442   0.743   0.443   7.789
30868SOL    HW194443   0.780   0.393   7.716
30868SOL    HW294444   0.652   0.413   7.795
30869SOL     OW94445   4.911   1.604  13.208
30869SOL    HW194446   4.908   1.691  13.247
30869SOL    HW294447   4.819   1.581  13.195
30870SOL     OW94448   9.782   8.212  12.681
30870SOL    HW194449   9.796   8.273  12.609
30870SOL    HW294450   9.689   8.219  12.701
30871SOL     OW94451   0.047  13.174   7.688
30871SOL    HW194452   0.018  13.111   7.622
30871SOL    HW294453  14.850  13.228   7.706
30872SOL     OW94454   2.792   7.433   6.455
30872SOL    HW194455   2.733   7.445   6.530
30872SOL    HW294456   2.852   7.507   6.461
30873SOL     OW94457  11.013   0.752   4.660
30873SOL    HW194458  10.943   0.796   4.613
30873SOL    HW294459  11.093   0.797   4.633
30874SOL     OW94460   8.307   7.733  13.078
30874SOL    HW194461   8.239   7.754  13.142
30874SOL    HW294462   8.360   7.813  13.073
30875SOL     OW94463  14.713  11.168   4.984
30875SOL    HW194464  14.656  11.138   4.913
30875SOL    HW294465  14.762  11.091   5.010
30876SOL     OW94466   8.172  12.528   4.518
30876SOL    HW194467   8.209  12.461   4.460
30876SOL    HW294468   8.174  12.608   4.467
30877SOL     OW94469   2.826   2.776  12.748
30877SOL    HW194470   2.868   2.861  12.748
30877SOL    HW294471   2.753   2.785  12.809
30878SOL     OW94472   9.371  11.771   5.493
30878SOL    HW194473   9.364  11.738   5.403
30878SOL    HW294474   9.456  11.739   5.523
30879SOL     OW94475  14.496   3.760   2.478
30879SOL    HW194476  14.526   3.842   2.516
30879SOL    HW294477  14.575   3.706   2.471
30880SOL     OW94478  10.670   7.354   8.997
30880SOL    HW194479  10.690   7.293   8.927
30880SOL    HW294480  10.684   7.303   9.077
30881SOL     OW94481   6.447  11.373   7.995
30881SOL    HW194482   6.501  11.306   8.035
30881SOL    HW294483   6.486  11.388   7.909
30882SOL     OW94484  10.514   1.358   5.643
30882SOL    HW194485  10.579   1.384   5.579
30882SOL    HW294486  10.561   1.357   5.726
30883SOL     OW94487   5.637   5.562   9.047
30883SOL    HW194488   5.575   5.497   9.014
30883SOL    HW294489   5.721   5.536   9.009
30884SOL     OW94490   9.294   4.591   7.905
30884SOL    HW194491   9.232   4.663   7.890
30884SOL    HW294492   9.304   4.587   8.000
30885SOL     OW94493  14.159  10.885   0.185
30885SOL    HW194494  14.216  10.924   0.251
30885SOL    HW294495  14.217  10.865   0.112
30886SOL     OW94496   8.013   4.500   0.678
30886SOL    HW194497   7.949   4.433   0.702
30886SOL    HW294498   8.007   4.505   0.583
30887SOL     OW94499  14.618  14.247   6.052
30887SOL    HW194500  14.683  14.280   5.991
30887SOL    HW294501  14.603  14.156   6.024
30888SOL     OW94502  11.865  14.122  12.304
30888SOL    HW194503  11.874  14.029  12.287
30888SOL    HW294504  11.780  14.130  12.349
30889SOL     OW94505   0.002   1.755  14.728
30889SOL    HW194506   0.007   1.775  14.634
30889SOL    HW294507   0.031   1.836  14.771
30890SOL     OW94508  12.339   7.631  12.443
30890SOL    HW194509  12.353   7.715  12.487
30890SOL    HW294510  12.410   7.576  12.476
30891SOL     OW94511  10.049  14.505  14.244
30891SOL    HW194512  10.117  14.521  14.309
30891SOL    HW294513   9.967  14.521  14.290
30892SOL     OW94514  14.703  10.800   2.297
30892SOL    HW194515  14.610  10.781   2.306
30892SOL    HW294516  14.726  10.847   2.377
30893SOL     OW94517  14.464   0.504   9.480
30893SOL    HW194518  14.374   0.498   9.510
30893SOL    HW294519  14.458   0.525   9.387
30894SOL     OW94520   2.853   6.128  13.505
30894SOL    HW194521   2.894   6.206  13.541
30894SOL    HW294522   2.868   6.060  13.571
30895SOL     OW94523   3.785   5.996  14.810
30895SOL    HW194524   3.728   6.018   0.004
30895SOL    HW294525   3.739   6.029  14.733
30896SOL     OW94526   4.343   8.205   9.549
30896SOL    HW194527   4.373   8.170   9.465
30896SOL    HW294528   4.323   8.127   9.601
30897SOL     OW94529   5.861   7.229   9.336
30897SOL    HW194530   5.870   7.140   9.304
30897SOL    HW294531   5.926   7.279   9.286
30898SOL     OW94532   1.939   0.909   0.303
30898SOL    HW194533   1.986   0.843   0.353
30898SOL    HW294534   1.866   0.861   0.264
30899SOL     OW94535  11.759   9.552   9.627
30899SOL    HW194536  11.850   9.529   9.645
30899SOL    HW294537  11.760   9.646   9.612
30900SOL     OW94538  11.486   6.538  11.018
30900SOL    HW194539  11.496   6.616  10.963
30900SOL    HW294540  11.391   6.524  11.021
30901SOL     OW94541   2.269   0.958   2.589
30901SOL    HW194542   2.287   0.867   2.610
30901SOL    HW294543   2.185   0.957   2.545
30902SOL     OW94544  11.785   8.998   9.544
30902SOL    HW194545  11.868   9.040   9.522
30902SOL    HW294546  11.804   8.904   9.547
30903SOL     OW94547   6.206   4.723   4.376
30903SOL    HW194548   6.233   4.742   4.466
30903SOL    HW294549   6.244   4.794   4.324
30904SOL     OW94550   1.456  13.517   8.338
30904SOL    HW194551   1.515  13.519   8.263
30904SOL    HW294552   1.506  13.557   8.409
30905SOL     OW94553   1.858   8.355   2.647
30905SOL    HW194554   1.809   8.438   2.645
30905SOL    HW294555   1.793   8.289   2.671
30906SOL     OW94556   1.471   9.894  14.242
30906SOL    HW194557   1.555   9.886  14.196
30906SOL    HW294558   1.412   9.933  14.177
30907SOL     OW94559  13.930  10.064   6.691
30907SOL    HW194560  14.018  10.057   6.726
30907SOL    HW294561  13.921   9.989   6.633
30908SOL     OW94562   9.971   0.129  12.737
30908SOL    HW194563  10.008   0.162  12.655
30908SOL    HW294564  10.046   0.093  12.784
30909SOL     OW94565   8.799   4.545   6.615
30909SOL    HW194566   8.796   4.610   6.546
30909SOL    HW294567   8.844   4.470   6.576
30910SOL     OW94568  10.421  13.037  13.585
30910SOL    HW194569  10.378  12.952  13.588
30910SOL    HW294570  10.512  13.018  13.610
30911SOL     OW94571   6.482  11.713  14.476
30911SOL    HW194572   6.450  11.677  14.393
30911SOL    HW294573   6.409  11.702  14.537
30912SOL     OW94574   2.455   5.981  12.183
30912SOL    HW194575   2.360   5.973  12.177
30912SOL    HW294576   2.480   6.031  12.106
30913SOL     OW94577  13.939  14.602   5.474
30913SOL    HW194578  13.960  14.600   5.568
30913SOL    HW294579  13.990  14.676   5.440
30914SOL     OW94580   8.803  11.256   1.468
30914SOL    HW194581   8.713  11.278   1.444
30914SOL    HW294582   8.799  11.163   1.491
30915SOL     OW94583   1.616   1.727   2.596
30915SOL    HW194584   1.650   1.770   2.674
30915SOL    HW294585   1.598   1.637   2.624
30916SOL     OW94586   2.472   6.305   7.445
30916SOL    HW194587   2.561   6.340   7.453
30916SOL    HW294588   2.433   6.320   7.531
30917SOL     OW94589   6.498   7.951   0.033
30917SOL    HW194590   6.583   7.979   0.068
30917SOL    HW294591   6.485   8.007  14.836
30918SOL     OW94592  10.333  13.187   9.667
30918SOL    HW194593  10.369  13.108   9.708
30918SOL    HW294594  10.410  13.235   9.638
30919SOL     OW94595  11.264  12.043   2.747
30919SOL    HW194596  11.308  11.959   2.761
30919SOL    HW294597  11.336  12.105   2.736
30920SOL     OW94598   8.691  12.866   9.640
30920SOL    HW194599   8.639  12.815   9.578
30920SOL    HW294600   8.746  12.802   9.684
30921SOL     OW94601  11.215   0.761   8.296
30921SOL    HW194602  11.221   0.696   8.365
30921SOL    HW294603  11.187   0.713   8.218
30922SOL     OW94604  13.978  12.141   1.168
30922SOL    HW194605  13.982  12.146   1.263
30922SOL    HW294606  13.913  12.074   1.150
30923SOL     OW94607  14.387   7.287   5.507
30923SOL    HW194608  14.316   7.334   5.550
30923SOL    HW294609  14.402   7.335   5.425
30924SOL     OW94610   6.276   5.236  14.368
30924SOL    HW194611   6.334   5.212  14.441
30924SOL    HW294612   6.240   5.154  14.337
30925SOL     OW94613  14.363   2.279  14.821
30925SOL    HW194614  14.287   2.270  14.763
30925SOL    HW294615  14.326   2.306   0.025
30926SOL     OW94616   8.672   7.624   4.019
30926SOL    HW194617   8.701   7.668   4.099
30926SOL    HW294618   8.746   7.633   3.959
30927SOL     OW94619   2.379   3.242  11.620
30927SOL    HW194620   2.346   3.308  11.681
30927SOL    HW294621   2.320   3.247  11.545
30928SOL     OW94622  13.682   8.160   6.378
30928SOL    HW194623  13.760   8.189   6.425
30928SOL    HW294624  13.610   8.207   6.419
30929SOL     OW94625  11.253   3.879   1.262
30929SOL    HW194626  11.244   3.792   1.223
30929SOL    HW294627  11.346   3.900   1.252
30930SOL     OW94628   2.303   6.419   3.491
30930SOL    HW194629   2.272   6.333   3.517
30930SOL    HW294630   2.244   6.480   3.536
30931SOL     OW94631   8.176   2.894   9.881
30931SOL    HW194632   8.087   2.915   9.854
30931SOL    HW294633   8.173   2.891   9.976
30932SOL     OW94634   3.537  11.697   6.381
30932SOL    HW194635   3.524  11.618   6.434
30932SOL    HW294636   3.557  11.765   6.445
30933SOL     OW94637   3.067   2.360   7.922
30933SOL    HW194638   3.078   2.411   7.842
30933SOL    HW294639   3.031   2.421   7.985
30934SOL     OW94640   3.877   3.724  11.538
30934SOL    HW194641   3.861   3.640  11.495
30934SOL    HW294642   3.789   3.754  11.564
30935SOL     OW94643  10.688  13.757   5.158
30935SOL    HW194644  10.740  13.823   5.114
30935SOL    HW294645  10.751  13.692   5.188
30936SOL     OW94646   6.974   9.852   5.659
30936SOL    HW194647   7.020   9.887   5.735
30936SOL    HW294648   7.012   9.900   5.585
30937SOL     OW94649   5.358   3.701   6.231
30937SOL    HW194650   5.410   3.769   6.187
30937SOL    HW294651   5.277   3.697   6.181
30938SOL     OW94652   8.733  14.132   9.307
30938SOL    HW194653   8.661  14.121   9.369
30938SOL    HW294654   8.757  14.042   9.283
30939SOL     OW94655  14.589   1.005   2.351
30939SOL    HW194656  14.585   1.071   2.420
30939SOL    HW294657  14.649   0.938   2.385
30940SOL     OW94658  14.606   9.434   2.209
30940SOL    HW194659  14.691   9.444   2.253
30940SOL    HW294660  14.542   9.458   2.275
30941SOL     OW94661   3.591   5.365   7.568
30941SOL    HW194662   3.621   5.293   7.623
30941SOL    HW294663   3.670   5.414   7.547
30942SOL     OW94664   7.049  12.697   9.588
30942SOL    HW194665   7.006  12.623   9.630
30942SOL    HW294666   7.124  12.716   9.643
30943SOL     OW94667   5.844  11.848   0.350
30943SOL    HW194668   5.850  11.755   0.372
30943SOL    HW294669   5.850  11.892   0.435
30944SOL     OW94670   1.968   3.044   2.866
30944SOL    HW194671   2.026   3.005   2.932
30944SOL    HW294672   1.895   2.983   2.859
30945SOL     OW94673   5.989  10.834   2.549
30945SOL    HW194674   6.084  10.829   2.539
30945SOL    HW294675   5.957  10.858   2.462
30946SOL     OW94676  11.423   0.127   7.976
30946SOL    HW194677  11.444   0.097   8.064
30946SOL    HW294678  11.446   0.054   7.919
30947SOL     OW94679   5.096   5.347   6.821
30947SOL    HW194680   5.168   5.332   6.759
30947SOL    HW294681   5.044   5.267   6.818
30948SOL     OW94682   6.756   8.077  10.507
30948SOL    HW194683   6.831   8.055  10.562
30948SOL    HW294684   6.743   8.171  10.519
30949SOL     OW94685   3.841   5.394  13.981
30949SOL    HW194686   3.817   5.484  14.002
30949SOL    HW294687   3.930   5.401  13.946
30950SOL     OW94688   3.825  13.651   3.284
30950SOL    HW194689   3.760  13.719   3.302
30950SOL    HW294690   3.860  13.674   3.198
30951SOL     OW94691   1.195  14.163   6.952
30951SOL    HW194692   1.200  14.084   6.898
30951SOL    HW294693   1.262  14.149   7.020
30952SOL     OW94694   5.039  14.608  13.161
30952SOL    HW194695   5.089  14.599  13.080
30952SOL    HW294696   5.015  14.701  13.165
30953SOL     OW94697   7.109  11.952   0.363
30953SOL    HW194698   7.079  11.861   0.370
30953SOL    HW294699   7.041  12.002   0.408
30954SOL     OW94700   5.781  10.674   9.537
30954SOL    HW194701   5.798  10.580   9.543
30954SOL    HW294702   5.790  10.706   9.626
30955SOL     OW94703   6.029  10.609   0.525
30955SOL    HW194704   6.077  10.688   0.551
30955SOL    HW294705   6.031  10.554   0.603
30956SOL     OW94706   2.752   6.537  13.410
30956SOL    HW194707   2.736   6.595  13.336
30956SOL    HW294708   2.847   6.531  13.416
30957SOL     OW94709  11.663   3.154   2.230
30957SOL    HW194710  11.592   3.167   2.167
30957SOL    HW294711  11.705   3.239   2.237
30958SOL     OW94712  12.672  10.169  13.989
30958SOL    HW194713  12.635  10.254  13.967
30958SOL    HW294714  12.597  10.119  14.023
30959SOL     OW94715  13.235   4.260  12.884
30959SOL    HW194716  13.213   4.273  12.792
30959SOL    HW294717  13.199   4.336  12.929
30960SOL     OW94718   5.021  11.151  11.342
30960SOL    HW194719   5.110  11.178  11.318
30960SOL    HW294720   4.986  11.111  11.262
30961SOL     OW94721  13.733   4.952   4.066
30961SOL    HW194722  13.648   4.996   4.072
30961SOL    HW294723  13.712   4.861   4.045
30962SOL     OW94724   7.524   4.916  14.453
30962SOL    HW194725   7.570   4.906  14.536
30962SOL    HW294726   7.442   4.960  14.475
30963SOL     OW94727   8.456   6.080   6.606
30963SOL    HW194728   8.495   6.002   6.646
30963SOL    HW294729   8.485   6.077   6.515
30964SOL     OW94730  10.263   6.842  11.910
30964SOL    HW194731  10.216   6.815  11.832
30964SOL    HW294732  10.303   6.761  11.944
30965SOL     OW94733   5.768   7.487  12.315
30965SOL    HW194734   5.845   7.522  12.360
30965SOL    HW294735   5.699   7.550  12.335
30966SOL     OW94736   6.069   4.684   8.666
30966SOL    HW194737   6.133   4.700   8.735
30966SOL    HW294738   6.100   4.734   8.591
30967SOL     OW94739  10.377   3.245   7.202
30967SOL    HW194740  10.397   3.175   7.140
30967SOL    HW294741  10.291   3.278   7.173
30968SOL     OW94742   8.463   0.881   8.939
30968SOL    HW194743   8.436   0.793   8.912
30968SOL    HW294744   8.384   0.920   8.976
30969SOL     OW94745   5.224   2.198  10.348
30969SOL    HW194746   5.279   2.148  10.408
30969SOL    HW294747   5.173   2.132  10.301
30970SOL     OW94748   4.097   2.897  10.582
30970SOL    HW194749   4.070   2.898  10.674
30970SOL    HW294750   4.056   2.974  10.544
30971SOL     OW94751   8.259   7.602   9.893
30971SOL    HW194752   8.278   7.572   9.982
30971SOL    HW294753   8.316   7.549   9.838
30972SOL     OW94754  14.041  13.252  14.598
30972SOL    HW194755  14.079  13.339  14.583
30972SOL    HW294756  13.951  13.260  14.565
30973SOL     OW94757   7.280   7.773   5.983
30973SOL    HW194758   7.368   7.776   5.945
30973SOL    HW294759   7.293   7.795   6.075
30974SOL     OW94760   8.689  12.596   4.327
30974SOL    HW194761   8.768  12.558   4.289
30974SOL    HW294762   8.694  12.575   4.420
30975SOL     OW94763   6.597   7.038  10.646
30975SOL    HW194764   6.639   7.019  10.562
30975SOL    HW294765   6.544   7.116  10.630
30976SOL     OW94766   5.958   5.009   3.611
30976SOL    HW194767   5.939   5.065   3.687
30976SOL    HW294768   6.045   5.039   3.582
30977SOL     OW94769   6.232  13.764   8.580
30977SOL    HW194770   6.148  13.764   8.535
30977SOL    HW294771   6.292  13.718   8.521
30978SOL     OW94772   9.244  13.100   4.272
30978SOL    HW194773   9.302  13.024   4.276
30978SOL    HW294774   9.283  13.163   4.333
30979SOL     OW94775  10.107   5.971   6.894
30979SOL    HW194776  10.018   5.977   6.930
30979SOL    HW294777  10.095   5.983   6.800
30980SOL     OW94778  11.425   5.056   7.991
30980SOL    HW194779  11.381   5.125   8.040
30980SOL    HW294780  11.428   4.982   8.053
30981SOL     OW94781  10.788  12.598   3.449
30981SOL    HW194782  10.706  12.587   3.400
30981SOL    HW294783  10.814  12.688   3.432
30982SOL     OW94784   5.500   9.265  14.051
30982SOL    HW194785   5.447   9.186  14.043
30982SOL    HW294786   5.549   9.253  14.133
30983SOL     OW94787   6.247  11.994  14.846
30983SOL    HW194788   6.228  11.907   0.002
30983SOL    HW294789   6.166  12.021  14.804
30984SOL     OW94790   6.439   0.120  13.061
30984SOL    HW194791   6.353   0.158  13.042
30984SOL    HW294792   6.421   0.028  13.080
30985SOL     OW94793  14.409  11.988   7.378
30985SOL    HW194794  14.361  11.930   7.437
30985SOL    HW294795  14.354  12.066   7.372
30986SOL     OW94796  11.905   8.449   6.398
30986SOL    HW194797  11.848   8.390   6.349
30986SOL    HW294798  11.945   8.394   6.465
30987SOL     OW94799   0.482  11.123   2.542
30987SOL    HW194800   0.416  11.147   2.606
30987SOL    HW294801   0.565  11.148   2.582
30988SOL     OW94802   0.564  12.433  13.852
30988SOL    HW194803   0.586  12.345  13.884
30988SOL    HW294804   0.515  12.417  13.771
30989SOL     OW94805   9.757  11.468   4.331
30989SOL    HW194806   9.707  11.504   4.258
30989SOL    HW294807   9.718  11.508   4.409
30990SOL     OW94808   6.921   4.112   5.836
30990SOL    HW194809   6.857   4.071   5.893
30990SOL    HW294810   7.005   4.073   5.862
30991SOL     OW94811   9.691   1.668   0.363
30991SOL    HW194812   9.673   1.625   0.446
30991SOL    HW294813   9.781   1.701   0.373
30992SOL     OW94814  12.753   2.806   3.318
30992SOL    HW194815  12.745   2.799   3.223
30992SOL    HW294816  12.715   2.724   3.351
30993SOL     OW94817  14.525   1.454  12.606
30993SOL    HW194818  14.528   1.399  12.684
30993SOL    HW294819  14.435   1.487  12.603
30994SOL     OW94820   8.258   4.002   4.746
30994SOL    HW194821   8.242   4.007   4.840
30994SOL    HW294822   8.354   3.994   4.739
30995SOL     OW94823   7.092  13.634  11.006
30995SOL    HW194824   7.103  13.707  10.945
30995SOL    HW294825   7.015  13.658  11.058
30996SOL     OW94826  13.392   4.481  14.399
30996SOL    HW194827  13.451   4.484  14.324
30996SOL    HW294828  13.343   4.400  14.386
30997SOL     OW94829   5.502   9.776  11.299
30997SOL    HW194830   5.498   9.835  11.224
30997SOL    HW294831   5.524   9.690  11.261
30998SOL     OW94832  14.324  11.974  11.803
30998SOL    HW194833  14.289  11.939  11.721
30998SOL    HW294834  14.407  12.014  11.778
30999SOL     OW94835   8.626   9.070   5.261
30999SOL    HW194836   8.646   9.164   5.262
30999SOL    HW294837   8.615   9.049   5.169
31000SOL     OW94838   5.236   0.303   5.885
31000SOL    HW194839   5.301   0.372   5.904
31000SOL    HW294840   5.222   0.260   5.969
31001SOL     OW94841   6.476   0.848   4.027
31001SOL    HW194842   6.467   0.767   3.977
31001SOL    HW294843   6.477   0.820   4.119
31002SOL     OW94844   4.451   8.803   0.498
31002SOL    HW194845   4.480   8.768   0.414
31002SOL    HW294846   4.389   8.739   0.531
31003SOL     OW94847   2.686   1.225  10.169
31003SOL    HW194848   2.770   1.179  10.165
31003SOL    HW294849   2.648   1.198  10.253
31004SOL     OW94850   1.518  13.266   3.941
31004SOL    HW194851   1.545  13.310   4.022
31004SOL    HW294852   1.581  13.194   3.930
31005SOL     OW94853   1.002   2.670   8.161
31005SOL    HW194854   0.980   2.720   8.240
31005SOL    HW294855   1.043   2.590   8.193
31006SOL     OW94856  12.909   9.194   4.153
31006SOL    HW194857  12.965   9.269   4.134
31006SOL    HW294858  12.965   9.118   4.140
31007SOL     OW94859   6.905   4.627  12.122
31007SOL    HW194860   6.853   4.547  12.114
31007SOL    HW294861   6.986   4.600  12.166
31008SOL     OW94862   1.551   5.911  10.561
31008SOL    HW194863   1.555   5.917  10.466
31008SOL    HW294864   1.474   5.962  10.586
31009SOL     OW94865   4.049   5.649   1.634
31009SOL    HW194866   4.087   5.698   1.707
31009SOL    HW294867   3.959   5.681   1.628
31010SOL     OW94868  11.633   1.596   0.044
31010SOL    HW194869  11.631   1.606  14.829
31010SOL    HW294870  11.546   1.560   0.065
31011SOL     OW94871  10.962   0.440  13.505
31011SOL    HW194872  10.953   0.485  13.421
31011SOL    HW294873  10.955   0.510  13.570
31012SOL     OW94874  10.554   3.872   9.448
31012SOL    HW194875  10.553   3.846   9.540
31012SOL    HW294876  10.548   3.791   9.399
31013SOL     OW94877   4.436  10.267   1.726
31013SOL    HW194878   4.435  10.348   1.676
31013SOL    HW294879   4.476  10.291   1.809
31014SOL     OW94880   1.958   2.550   6.344
31014SOL    HW194881   1.956   2.455   6.353
31014SOL    HW294882   2.017   2.580   6.414
31015SOL     OW94883  11.358   9.371   3.489
31015SOL    HW194884  11.351   9.464   3.508
31015SOL    HW294885  11.406   9.367   3.406
31016SOL     OW94886   5.285   1.114   8.141
31016SOL    HW194887   5.291   1.110   8.237
31016SOL    HW294888   5.252   1.028   8.116
31017SOL     OW94889  14.075   5.979   8.545
31017SOL    HW194890  13.985   5.956   8.524
31017SOL    HW294891  14.095   5.927   8.623
31018SOL     OW94892   5.267   4.438   4.135
31018SOL    HW194893   5.353   4.478   4.147
31018SOL    HW294894   5.256   4.383   4.213
31019SOL     OW94895   0.004   4.892  13.302
31019SOL    HW194896   0.084   4.860  13.341
31019SOL    HW294897  14.833   4.928  13.375
31020SOL     OW94898  11.410   4.900   7.000
31020SOL    HW194899  11.333   4.843   6.991
31020SOL    HW294900  11.461   4.883   6.921
31021SOL     OW94901   4.476   8.168   4.380
31021SOL    HW194902   4.397   8.221   4.384
31021SOL    HW294903   4.547   8.231   4.367
31022SOL     OW94904  14.831   4.853   3.956
31022SOL    HW194905  14.792   4.766   3.967
31022SOL    HW294906  14.767   4.914   3.991
31023SOL     OW94907   8.250   3.901   1.679
31023SOL    HW194908   8.218   3.980   1.723
31023SOL    HW294909   8.200   3.830   1.718
31024SOL     OW94910   1.189  13.215   7.326
31024SOL    HW194911   1.104  13.218   7.281
31024SOL    HW294912   1.186  13.289   7.386
31025SOL     OW94913   1.847  10.423  12.031
31025SOL    HW194914   1.802  10.338  12.039
31025SOL    HW294915   1.873  10.428  11.939
31026SOL     OW94916  11.561  10.009  13.495
31026SOL    HW194917  11.518  10.031  13.413
31026SOL    HW294918  11.504  10.044  13.563
31027SOL     OW94919   5.987   3.597   7.244
31027SOL    HW194920   6.014   3.621   7.155
31027SOL    HW294921   5.972   3.503   7.240
31028SOL     OW94922   0.343   7.734  13.883
31028SOL    HW194923   0.288   7.788  13.826
31028SOL    HW294924   0.328   7.644  13.853
31029SOL     OW94925   1.468   5.450   7.291
31029SOL    HW194926   1.489   5.533   7.249
31029SOL    HW294927   1.382   5.426   7.258
31030SOL     OW94928   8.947  13.711   5.303
31030SOL    HW194929   8.853  13.715   5.282
31030SOL    HW294930   8.990  13.730   5.220
31031SOL     OW94931   8.603   2.252   0.030
31031SOL    HW194932   8.522   2.301   0.016
31031SOL    HW294933   8.647   2.254  14.824
31032SOL     OW94934   7.572  12.620   5.386
31032SOL    HW194935   7.630  12.562   5.336
31032SOL    HW294936   7.502  12.644   5.326
31033SOL     OW94937   0.083   0.016   5.475
31033SOL    HW194938   0.013   0.070   5.437
31033SOL    HW294939   0.099  14.828   5.410
31034SOL     OW94940   6.473  12.630   9.163
31034SOL    HW194941   6.491  12.562   9.098
31034SOL    HW294942   6.505  12.594   9.246
31035SOL     OW94943   1.958  13.460   8.754
31035SOL    HW194944   1.938  13.551   8.732
31035SOL    HW294945   2.047  13.446   8.724
31036SOL     OW94946   3.447   7.942   5.600
31036SOL    HW194947   3.469   7.856   5.637
31036SOL    HW294948   3.521   7.964   5.545
31037SOL     OW94949  14.513   2.078   2.905
31037SOL    HW194950  14.544   2.148   2.847
31037SOL    HW294951  14.565   2.002   2.880
31038SOL     OW94952   9.211   5.094   7.894
31038SOL    HW194953   9.276   5.026   7.878
31038SOL    HW294954   9.142   5.077   7.830
31039SOL     OW94955   0.968   1.490  13.563
31039SOL    HW194956   0.973   1.440  13.644
31039SOL    HW294957   1.000   1.431  13.496
31040SOL     OW94958   2.754   0.984   1.312
31040SOL    HW194959   2.708   1.050   1.364
31040SOL    HW294960   2.825   0.955   1.369
31041SOL     OW94961   4.995   8.059   3.904
31041SOL    HW194962   4.976   8.042   3.996
31041SOL    HW294963   4.944   7.994   3.856
31042SOL     OW94964   7.214  14.524   3.272
31042SOL    HW194965   7.190  14.434   3.290
31042SOL    HW294966   7.243  14.523   3.180
31043SOL     OW94967   6.704  13.020  13.416
31043SOL    HW194968   6.675  13.052  13.330
31043SOL    HW294969   6.752  13.094  13.454
31044SOL     OW94970   8.310   6.021   4.581
31044SOL    HW194971   8.355   6.088   4.529
31044SOL    HW294972   8.307   6.058   4.669
31045SOL     OW94973   9.633   7.370   3.578
31045SOL    HW194974   9.694   7.432   3.618
31045SOL    HW294975   9.558   7.369   3.636
31046SOL     OW94976   9.506   0.421  13.162
31046SOL    HW194977   9.466   0.468  13.235
31046SOL    HW294978   9.574   0.367  13.202
31047SOL     OW94979   0.002   6.018   9.362
31047SOL    HW194980  14.862   6.045   9.273
31047SOL    HW294981   0.020   6.100   9.409
31048SOL     OW94982   6.023   1.763   0.056
31048SOL    HW194983   6.099   1.799   0.101
31048SOL    HW294984   6.060   1.704  14.870
31049SOL     OW94985   6.106   6.285   9.747
31049SOL    HW194986   6.176   6.347   9.729
31049SOL    HW294987   6.027   6.338   9.753
31050SOL     OW94988   1.167   6.593  11.373
31050SOL    HW194989   1.086   6.543  11.366
31050SOL    HW294990   1.236   6.531  11.352
31051SOL     OW94991   8.877   5.001   9.541
31051SOL    HW194992   8.857   5.088   9.505
31051SOL    HW294993   8.829   4.940   9.485
31052SOL     OW94994   8.195   7.164   8.686
31052SOL    HW194995   8.239   7.139   8.604
31052SOL    HW294996   8.247   7.122   8.755
31053SOL     OW94997  11.841   6.635   4.056
31053SOL    HW194998  11.893   6.679   3.989
31053SOL    HW294999  11.904   6.581   4.104
31054SOL     OW95000   4.282  14.152  14.255
31054SOL    HW195001   4.356  14.198  14.295
31054SOL    HW295002   4.229  14.222  14.215
31055SOL     OW95003   5.064   3.713   1.287
31055SOL    HW195004   5.036   3.626   1.260
31055SOL    HW295005   5.043   3.769   1.213
31056SOL     OW95006  13.487   3.932   7.241
31056SOL    HW195007  13.446   4.005   7.193
31056SOL    HW295008  13.511   3.869   7.173
31057SOL     OW95009   2.958   8.832   1.660
31057SOL    HW195010   3.035   8.871   1.701
31057SOL    HW295011   2.892   8.828   1.729
31058SOL     OW95012  11.035  12.069   4.820
31058SOL    HW195013  11.069  11.990   4.779
31058SOL    HW295014  11.112  12.124   4.837
31059SOL     OW95015  11.774   8.563  10.952
31059SOL    HW195016  11.765   8.636  10.890
31059SOL    HW295017  11.831   8.500  10.907
31060SOL     OW95018   7.690  11.960   8.670
31060SOL    HW195019   7.693  12.001   8.583
31060SOL    HW295020   7.706  12.031   8.731
31061SOL     OW95021   1.594  13.003   7.331
31061SOL    HW195022   1.588  13.023   7.424
31061SOL    HW295023   1.586  12.908   7.326
31062SOL     OW95024   5.720   6.039   5.784
31062SOL    HW195025   5.626   6.025   5.785
31062SOL    HW295026   5.734   6.112   5.845
31063SOL     OW95027  14.496   0.409   8.220
31063SOL    HW195028  14.528   0.409   8.130
31063SOL    HW295029  14.411   0.453   8.215
31064SOL     OW95030  12.792  14.243  10.273
31064SOL    HW195031  12.809  14.329  10.235
31064SOL    HW295032  12.733  14.200  10.211
31065SOL     OW95033   2.882  10.093   7.412
31065SOL    HW195034   2.807  10.124   7.361
31065SOL    HW295035   2.901  10.165   7.472
31066SOL     OW95036   0.947  14.166   1.521
31066SOL    HW195037   0.985  14.153   1.608
31066SOL    HW295038   0.964  14.083   1.475
31067SOL     OW95039   3.656  11.111   4.087
31067SOL    HW195040   3.682  11.157   4.168
31067SOL    HW295041   3.734  11.115   4.032
31068SOL     OW95042   3.700   0.120  14.841
31068SOL    HW195043   3.664   0.149   0.046
31068SOL    HW295044   3.650   0.168  14.776
31069SOL     OW95045   5.000  12.972   0.234
31069SOL    HW195046   5.071  12.928   0.188
31069SOL    HW295047   4.954  12.902   0.281
31070SOL     OW95048   6.422  14.709   3.953
31070SOL    HW195049   6.455  14.641   4.012
31070SOL    HW295050   6.363  14.762   4.007
31071SOL     OW95051   2.811   6.089  10.521
31071SOL    HW195052   2.829   6.090  10.427
31071SOL    HW295053   2.808   5.996  10.543
31072SOL     OW95054   6.031  10.648   5.184
31072SOL    HW195055   6.087  10.722   5.208
31072SOL    HW295056   6.040  10.641   5.089
31073SOL     OW95057   0.796   8.679   9.399
31073SOL    HW195058   0.769   8.755   9.347
31073SOL    HW295059   0.848   8.716   9.469
31074SOL     OW95060   8.471   9.713  14.011
31074SOL    HW195061   8.401   9.654  13.985
31074SOL    HW295062   8.474   9.707  14.106
31075SOL     OW95063  13.122   7.782   9.240
31075SOL    HW195064  13.138   7.690   9.262
31075SOL    HW295065  13.209   7.821   9.234
31076SOL     OW95066  10.281   8.218  12.639
31076SOL    HW195067  10.295   8.220  12.545
31076SOL    HW295068  10.190   8.192  12.650
31077SOL     OW95069   4.499  13.324  14.243
31077SOL    HW195070   4.528  13.238  14.272
31077SOL    HW295071   4.574  13.358  14.193
31078SOL     OW95072  13.331   3.014   8.822
31078SOL    HW195073  13.278   2.940   8.793
31078SOL    HW295074  13.390   2.978   8.887
31079SOL     OW95075  12.169   3.300   5.820
31079SOL    HW195076  12.223   3.363   5.773
31079SOL    HW295077  12.093   3.350   5.849
31080SOL     OW95078   3.539   2.438   6.461
31080SOL    HW195079   3.464   2.485   6.496
31080SOL    HW295080   3.613   2.467   6.514
31081SOL     OW95081   2.279   2.026   1.572
31081SOL    HW195082   2.365   2.068   1.573
31081SOL    HW295083   2.218   2.094   1.601
31082SOL     OW95084   8.400   4.135  10.663
31082SOL    HW195085   8.381   4.131  10.757
31082SOL    HW295086   8.492   4.109  10.656
31083SOL     OW95087   2.820   5.910   6.745
31083SOL    HW195088   2.812   5.985   6.804
31083SOL    HW295089   2.913   5.904   6.726
31084SOL     OW95090   0.518   1.337  12.874
31084SOL    HW195091   0.463   1.414  12.887
31084SOL    HW295092   0.456   1.267  12.853
31085SOL     OW95093   7.534   6.811   4.448
31085SOL    HW195094   7.452   6.780   4.487
31085SOL    HW295095   7.517   6.902   4.425
31086SOL     OW95096   5.795   5.111  11.482
31086SOL    HW195097   5.823   5.165  11.555
31086SOL    HW295098   5.734   5.166  11.433
31087SOL     OW95099  14.160   0.839   3.631
31087SOL    HW195100  14.227   0.863   3.567
31087SOL    HW295101  14.112   0.767   3.591
31088SOL     OW95102   4.161   9.993  10.143
31088SOL    HW195103   4.223  10.012  10.072
31088SOL    HW295104   4.207   9.931  10.199
31089SOL     OW95105  11.928   2.974  13.091
31089SOL    HW195106  11.963   3.030  13.160
31089SOL    HW295107  11.911   2.890  13.134
31090SOL     OW95108   0.374  10.065  13.092
31090SOL    HW195109   0.383   9.974  13.064
31090SOL    HW295110   0.452  10.081  13.146
31091SOL     OW95111  13.990   2.180   7.477
31091SOL    HW195112  13.908   2.167   7.429
31091SOL    HW295113  14.055   2.132   7.425
31092SOL     OW95114   8.548  12.998  11.131
31092SOL    HW195115   8.542  12.916  11.082
31092SOL    HW295116   8.639  13.024  11.122
31093SOL     OW95117   5.252   9.115   9.827
31093SOL    HW195118   5.177   9.160   9.787
31093SOL    HW295119   5.307   9.186   9.859
31094SOL     OW95120   4.026   8.064   1.540
31094SOL    HW195121   3.969   8.048   1.464
31094SOL    HW295122   4.001   8.151   1.571
31095SOL     OW95123   5.177   1.183  13.864
31095SOL    HW195124   5.152   1.091  13.869
31095SOL    HW295125   5.260   1.182  13.816
31096SOL     OW95126   7.672   7.565   1.834
31096SOL    HW195127   7.620   7.617   1.895
31096SOL    HW295128   7.631   7.580   1.749
31097SOL     OW95129   2.751  13.071   8.553
31097SOL    HW195130   2.760  13.067   8.458
31097SOL    HW295131   2.669  13.119   8.567
31098SOL     OW95132   7.290   1.312  12.505
31098SOL    HW195133   7.367   1.281  12.551
31098SOL    HW295134   7.314   1.399  12.472
31099SOL     OW95135  13.962   6.969   6.645
31099SOL    HW195136  13.920   6.923   6.573
31099SOL    HW295137  13.984   6.900   6.708
31100SOL     OW95138   4.847  13.967   7.641
31100SOL    HW195139   4.774  14.019   7.606
31100SOL    HW295140   4.810  13.881   7.657
31101SOL     OW95141  14.814  14.851   0.262
31101SOL    HW195142  14.763  14.783   0.218
31101SOL    HW295143  14.756   0.004   0.331
31102SOL     OW95144   7.496   7.097   2.788
31102SOL    HW195145   7.503   7.005   2.762
31102SOL    HW295146   7.571   7.111   2.846
31103SOL     OW95147  14.808   9.330  10.028
31103SOL    HW195148  14.868   9.256  10.033
31103SOL    HW295149  14.838   9.380   9.952
31104SOL     OW95150   7.148   9.481   7.235
31104SOL    HW195151   7.077   9.462   7.297
31104SOL    HW295152   7.228   9.472   7.287
31105SOL     OW95153   6.428  12.159  14.645
31105SOL    HW195154   6.493  12.198  14.703
31105SOL    HW295155   6.393  12.085  14.694
31106SOL     OW95156   2.376  12.405   0.426
31106SOL    HW195157   2.306  12.402   0.361
31106SOL    HW295158   2.426  12.324   0.412
31107SOL     OW95159   4.834   8.080   6.476
31107SOL    HW195160   4.742   8.068   6.452
31107SOL    HW295161   4.853   8.171   6.452
31108SOL     OW95162   1.384  13.847   2.730
31108SOL    HW195163   1.312  13.839   2.668
31108SOL    HW295164   1.369  13.932   2.772
31109SOL     OW95165  13.015   3.367   3.738
31109SOL    HW195166  12.960   3.353   3.815
31109SOL    HW295167  12.958   3.412   3.676
31110SOL     OW95168  10.800   3.942   1.584
31110SOL    HW195169  10.774   3.888   1.510
31110SOL    HW295170  10.895   3.955   1.573
31111SOL     OW95171  13.484   9.768  10.570
31111SOL    HW195172  13.499   9.830  10.499
31111SOL    HW295173  13.540   9.693  10.549
31112SOL     OW95174   0.607   3.084   9.426
31112SOL    HW195175   0.522   3.072   9.385
31112SOL    HW295176   0.640   3.167   9.392
31113SOL     OW95177   5.857   0.252   6.205
31113SOL    HW195178   5.944   0.212   6.208
31113SOL    HW295179   5.870   0.335   6.159
31114SOL     OW95180   2.541   4.341   8.672
31114SOL    HW195181   2.454   4.380   8.662
31114SOL    HW295182   2.524   4.252   8.702
31115SOL     OW95183   2.286   1.373   0.552
31115SOL    HW195184   2.268   1.282   0.574
31115SOL    HW295185   2.285   1.376   0.456
31116SOL     OW95186   8.946  13.368   6.291
31116SOL    HW195187   9.012  13.403   6.350
31116SOL    HW295188   8.942  13.430   6.219
31117SOL     OW95189  12.602  10.763   6.437
31117SOL    HW195190  12.545  10.745   6.511
31117SOL    HW295191  12.576  10.698   6.371
31118SOL     OW95192  10.346   2.457   5.362
31118SOL    HW195193  10.356   2.447   5.456
31118SOL    HW295194  10.255   2.434   5.344
31119SOL     OW95195  10.726   6.430  13.154
31119SOL    HW195196  10.768   6.353  13.116
31119SOL    HW295197  10.651   6.395  13.202
31120SOL     OW95198   9.538   5.225   4.132
31120SOL    HW195199   9.469   5.289   4.149
31120SOL    HW295200   9.616   5.263   4.173
31121SOL     OW95201   4.879   6.109   2.992
31121SOL    HW195202   4.946   6.097   2.925
31121SOL    HW295203   4.873   6.023   3.035
31122SOL     OW95204  12.113  13.782   5.116
31122SOL    HW195205  12.184  13.772   5.179
31122SOL    HW295206  12.079  13.870   5.133
31123SOL     OW95207   5.273  14.317   9.317
31123SOL    HW195208   5.216  14.243   9.297
31123SOL    HW295209   5.334  14.283   9.383
31124SOL     OW95210   6.059   3.279  11.057
31124SOL    HW195211   6.127   3.212  11.046
31124SOL    HW295212   6.101   3.361  11.028
31125SOL     OW95213  12.906  10.789   4.343
31125SOL    HW195214  12.998  10.806   4.361
31125SOL    HW295215  12.880  10.724   4.409
31126SOL     OW95216  10.623  13.437  14.534
31126SOL    HW195217  10.537  13.398  14.548
31126SOL    HW295218  10.605  13.517  14.484
31127SOL     OW95219   8.495   4.252   1.092
31127SOL    HW195220   8.542   4.218   1.169
31127SOL    HW295221   8.425   4.305   1.128
31128SOL     OW95222   6.483  14.631  13.652
31128SOL    HW195223   6.507  14.560  13.592
31128SOL    HW295224   6.419  14.682  13.603
31129SOL     OW95225  11.847   4.266  11.627
31129SOL    HW195226  11.854   4.262  11.722
31129SOL    HW295227  11.837   4.359  11.607
31130SOL     OW95228  14.317   0.092   3.551
31130SOL    HW195229  14.255   0.129   3.489
31130SOL    HW295230  14.272   0.016   3.588
31131SOL     OW95231  12.961   7.043   6.235
31131SOL    HW195232  13.038   7.001   6.275
31131SOL    HW295233  12.905   7.065   6.309
31132SOL     OW95234   1.117  11.496   9.337
31132SOL    HW195235   1.152  11.582   9.313
31132SOL    HW295236   1.133  11.441   9.260
31133SOL     OW95237   5.344   8.748   8.060
31133SOL    HW195238   5.380   8.796   7.985
31133SOL    HW295239   5.265   8.796   8.084
31134SOL     OW95240   8.277   6.993  13.194
31134SOL    HW195241   8.229   7.075  13.195
31134SOL    HW295242   8.347   7.006  13.258
31135SOL     OW95243  13.697   8.738   6.680
31135SOL    HW195244  13.643   8.672   6.635
31135SOL    HW295245  13.644   8.818   6.675
31136SOL     OW95246   2.605  14.226   5.338
31136SOL    HW195247   2.642  14.214   5.425
31136SOL    HW295248   2.646  14.157   5.285
31137SOL     OW95249  14.868   6.228  13.927
31137SOL    HW195250   0.082   6.236  13.944
31137SOL    HW295251  14.855   6.275  13.844
31138SOL     OW95252  12.114  14.189   8.517
31138SOL    HW195253  12.117  14.200   8.422
31138SOL    HW295254  12.156  14.268   8.552
31139SOL     OW95255  10.290  12.622   1.563
31139SOL    HW195256  10.216  12.659   1.515
31139SOL    HW295257  10.274  12.527   1.563
31140SOL     OW95258  11.157   5.352   3.155
31140SOL    HW195259  11.119   5.267   3.135
31140SOL    HW295260  11.082   5.407   3.179
31141SOL     OW95261   4.193   5.273   1.628
31141SOL    HW195262   4.120   5.288   1.567
31141SOL    HW295263   4.150   5.250   1.710
31142SOL     OW95264   5.069   5.806   8.936
31142SOL    HW195265   5.109   5.812   9.022
31142SOL    HW295266   5.068   5.712   8.916
31143SOL     OW95267  11.945   0.038   6.459
31143SOL    HW195268  12.025   0.055   6.509
31143SOL    HW295269  11.961   0.078   6.374
31144SOL     OW95270  10.823   8.040   6.538
31144SOL    HW195271  10.878   8.042   6.460
31144SOL    HW295272  10.769   7.962   6.528
31145SOL     OW95273  14.318   5.124   4.129
31145SOL    HW195274  14.248   5.103   4.190
31145SOL    HW295275  14.356   5.206   4.162
31146SOL     OW95276   9.143   4.417  13.976
31146SOL    HW195277   9.213   4.385  13.919
31146SOL    HW295278   9.173   4.503  14.005
31147SOL     OW95279   5.902  11.983  10.415
31147SOL    HW195280   5.976  11.922  10.422
31147SOL    HW295281   5.845  11.944  10.348
31148SOL     OW95282   6.213   7.114  12.655
31148SOL    HW195283   6.207   7.086  12.564
31148SOL    HW295284   6.240   7.205  12.651
31149SOL     OW95285   6.811   1.517   7.108
31149SOL    HW195286   6.776   1.590   7.057
31149SOL    HW295287   6.834   1.556   7.192
31150SOL     OW95288   2.306   3.856   5.181
31150SOL    HW195289   2.276   3.929   5.127
31150SOL    HW295290   2.247   3.784   5.159
31151SOL     OW95291   4.014  14.023   5.602
31151SOL    HW195292   4.104  14.026   5.634
31151SOL    HW295293   3.998  14.109   5.563
31152SOL     OW95294   5.948   7.558   9.202
31152SOL    HW195295   5.996   7.539   9.283
31152SOL    HW295296   5.875   7.613   9.229
31153SOL     OW95297   4.256   2.310   8.756
31153SOL    HW195298   4.195   2.350   8.693
31153SOL    HW295299   4.201   2.253   8.809
31154SOL     OW95300   2.492   9.866   8.049
31154SOL    HW195301   2.549   9.909   8.113
31154SOL    HW295302   2.482   9.930   7.978
31155SOL     OW95303   4.001   6.885   8.512
31155SOL    HW195304   4.022   6.809   8.458
31155SOL    HW295305   3.906   6.888   8.515
31156SOL     OW95306  11.232  11.711   0.475
31156SOL    HW195307  11.235  11.805   0.495
31156SOL    HW295308  11.144  11.696   0.440
31157SOL     OW95309   8.828   4.660   4.398
31157SOL    HW195310   8.921   4.645   4.415
31157SOL    HW295311   8.803   4.590   4.337
31158SOL     OW95312  12.857  11.151  12.081
31158SOL    HW195313  12.898  11.168  11.996
31158SOL    HW295314  12.836  11.057  12.079
31159SOL     OW95315  11.122  13.764  10.689
31159SOL    HW195316  11.135  13.673  10.662
31159SOL    HW295317  11.187  13.778  10.758
31160SOL     OW95318  13.718  11.801  13.298
31160SOL    HW195319  13.775  11.810  13.375
31160SOL    HW295320  13.773  11.759  13.232
31161SOL     OW95321   7.850   4.242   0.888
31161SOL    HW195322   7.780   4.224   0.951
31161SOL    HW295323   7.896   4.158   0.879
31162SOL     OW95324   4.532   3.571   3.265
31162SOL    HW195325   4.560   3.481   3.250
31162SOL    HW295326   4.562   3.619   3.188
31163SOL     OW95327   3.839   5.552   7.229
31163SOL    HW195328   3.894   5.473   7.227
31163SOL    HW295329   3.815   5.567   7.138
31164SOL     OW95330  13.356  11.819   9.783
31164SOL    HW195331  13.344  11.891   9.721
31164SOL    HW295332  13.294  11.752   9.754
31165SOL     OW95333  10.733   7.132   5.372
31165SOL    HW195334  10.796   7.081   5.321
31165SOL    HW295335  10.647   7.101   5.343
31166SOL     OW95336   3.795   2.136   6.645
31166SOL    HW195337   3.739   2.189   6.701
31166SOL    HW295338   3.776   2.166   6.556
31167SOL     OW95339   5.313   8.118   4.864
31167SOL    HW195340   5.358   8.034   4.859
31167SOL    HW295341   5.376   8.181   4.828
31168SOL     OW95342   7.119   5.907  13.482
31168SOL    HW195343   7.043   5.937  13.531
31168SOL    HW295344   7.093   5.915  13.390
31169SOL     OW95345  12.082   0.056   6.088
31169SOL    HW195346  12.089   0.124   6.156
31169SOL    HW295347  12.077  14.854   6.137
31170SOL     OW95348  13.506   2.503   4.969
31170SOL    HW195349  13.571   2.451   5.016
31170SOL    HW295350  13.522   2.482   4.877
31171SOL     OW95351  12.433  13.923   4.961
31171SOL    HW195352  12.519  13.899   4.926
31171SOL    HW295353  12.447  13.927   5.056
31172SOL     OW95354   0.651  13.613   0.049
31172SOL    HW195355   0.635  13.545  14.863
31172SOL    HW295356   0.573  13.669   0.044
31173SOL     OW95357   9.596   8.290   8.510
31173SOL    HW195358   9.578   8.384   8.510
31173SOL    HW295359   9.672   8.280   8.567
31174SOL     OW95360   7.457  10.946   3.091
31174SOL    HW195361   7.484  11.011   3.156
31174SOL    HW295362   7.537  10.899   3.069
31175SOL     OW95363  11.433  10.824   1.861
31175SOL    HW195364  11.342  10.845   1.881
31175SOL    HW295365  11.428  10.753   1.796
31176SOL     OW95366   8.311  11.858   5.808
31176SOL    HW195367   8.279  11.786   5.754
31176SOL    HW295368   8.371  11.906   5.750
31177SOL     OW95369   0.021   9.970   2.800
31177SOL    HW195370   0.039  10.017   2.881
31177SOL    HW295371   0.021  10.038   2.733
31178SOL     OW95372   8.701   9.838  12.388
31178SOL    HW195373   8.797   9.837  12.387
31178SOL    HW295374   8.677   9.755  12.430
31179SOL     OW95375   0.851  14.206  14.206
31179SOL    HW195376   0.789  14.141  14.238
31179SOL    HW295377   0.823  14.288  14.245
31180SOL     OW95378  14.287  10.530   9.610
31180SOL    HW195379  14.221  10.472   9.572
31180SOL    HW295380  14.242  10.575   9.681
31181SOL     OW95381   8.790   5.210   9.867
31181SOL    HW195382   8.879   5.184   9.890
31181SOL    HW295383   8.800   5.279   9.802
31182SOL     OW95384   0.502   4.969   2.063
31182SOL    HW195385   0.499   4.942   1.971
31182SOL    HW295386   0.563   4.907   2.103
31183SOL     OW95387   2.805  12.272   7.814
31183SOL    HW195388   2.845  12.190   7.787
31183SOL    HW295389   2.820  12.331   7.740
31184SOL     OW95390   7.768   9.502   0.342
31184SOL    HW195391   7.765   9.530   0.250
31184SOL    HW295392   7.860   9.481   0.357
31185SOL     OW95393   3.002  10.843   6.202
31185SOL    HW195394   3.006  10.861   6.296
31185SOL    HW295395   3.086  10.873   6.168
31186SOL     OW95396   5.863   7.961   1.306
31186SOL    HW195397   5.851   7.990   1.396
31186SOL    HW295398   5.812   7.880   1.299
31187SOL     OW95399  11.737   4.658   4.909
31187SOL    HW195400  11.735   4.572   4.866
31187SOL    HW295401  11.807   4.705   4.865
31188SOL     OW95402  11.508  14.838   5.804
31188SOL    HW195403  11.470  14.775   5.865
31188SOL    HW295404  11.550  14.784   5.737
31189SOL     OW95405   2.864   5.514   8.045
31189SOL    HW195406   2.915   5.531   7.966
31189SOL    HW295407   2.788   5.464   8.014
31190SOL     OW95408  12.029  10.206   6.044
31190SOL    HW195409  12.098  10.140   6.041
31190SOL    HW295410  11.981  10.195   5.962
31191SOL     OW95411   5.538   5.563   7.601
31191SOL    HW195412   5.590   5.497   7.648
31191SOL    HW295413   5.511   5.519   7.520
31192SOL     OW95414   3.788   2.018  10.071
31192SOL    HW195415   3.742   2.009  10.154
31192SOL    HW295416   3.812   2.111  10.066
31193SOL     OW95417  14.581  12.882   4.578
31193SOL    HW195418  14.528  12.889   4.499
31193SOL    HW295419  14.553  12.955   4.633
31194SOL     OW95420  11.903   5.285   5.599
31194SOL    HW195421  11.912   5.274   5.693
31194SOL    HW295422  11.836   5.222   5.574
31195SOL     OW95423   4.184   1.669   9.296
31195SOL    HW195424   4.266   1.708   9.326
31195SOL    HW295425   4.200   1.648   9.204
31196SOL     OW95426   8.680   2.658   8.858
31196SOL    HW195427   8.719   2.578   8.824
31196SOL    HW295428   8.614   2.683   8.793
31197SOL     OW95429   3.141   6.085   5.605
31197SOL    HW195430   3.233   6.060   5.594
31197SOL    HW295431   3.104   6.075   5.517
31198SOL     OW95432  10.561   1.579   0.200
31198SOL    HW195433  10.617   1.513   0.240
31198SOL    HW295434  10.594   1.662   0.235
31199SOL     OW95435   0.241   8.046   3.578
31199SOL    HW195436   0.165   7.998   3.609
31199SOL    HW295437   0.294   8.062   3.656
31200SOL     OW95438  12.215  13.738  10.264
31200SOL    HW195439  12.158  13.689  10.323
31200SOL    HW295440  12.215  13.828  10.298
31201SOL     OW95441   6.889  13.249   4.929
31201SOL    HW195442   6.947  13.172   4.929
31201SOL    HW295443   6.808  13.218   4.889
31202SOL     OW95444   8.822  11.931  11.335
31202SOL    HW195445   8.794  11.994  11.269
31202SOL    HW295446   8.761  11.858  11.326
31203SOL     OW95447   5.043  11.350  14.162
31203SOL    HW195448   5.078  11.316  14.245
31203SOL    HW295449   5.083  11.437  14.154
31204SOL     OW95450   0.396   1.586  12.911
31204SOL    HW195451   0.394   1.649  12.984
31204SOL    HW295452   0.457   1.624  12.848
31205SOL     OW95453  14.281   3.746   6.949
31205SOL    HW195454  14.321   3.832   6.958
31205SOL    HW295455  14.347   3.694   6.903
31206SOL     OW95456  14.213  14.122   6.737
31206SOL    HW195457  14.216  14.216   6.753
31206SOL    HW295458  14.304  14.099   6.716
31207SOL     OW95459  12.504   5.569  13.054
31207SOL    HW195460  12.513   5.567  13.149
31207SOL    HW295461  12.535   5.484  13.024
31208SOL     OW95462   6.926   3.102  13.649
31208SOL    HW195463   6.915   3.013  13.683
31208SOL    HW295464   6.855   3.112  13.586
31209SOL     OW95465   8.758   1.526   6.207
31209SOL    HW195466   8.674   1.549   6.169
31209SOL    HW295467   8.747   1.543   6.301
31210SOL     OW95468   4.239   0.724   8.452
31210SOL    HW195469   4.180   0.748   8.524
31210SOL    HW295470   4.260   0.632   8.469
31211SOL     OW95471   0.964  12.604  13.388
31211SOL    HW195472   0.958  12.594  13.293
31211SOL    HW295473   1.054  12.634  13.403
31212SOL     OW95474   7.546   7.400   6.294
31212SOL    HW195475   7.593   7.446   6.224
31212SOL    HW295476   7.614   7.376   6.357
31213SOL     OW95477   1.253   9.704   2.354
31213SOL    HW195478   1.174   9.678   2.401
31213SOL    HW295479   1.248   9.800   2.350
31214SOL     OW95480   0.050   0.227   0.801
31214SOL    HW195481  14.862   0.203   0.864
31214SOL    HW295482   0.132   0.199   0.842
31215SOL     OW95483  13.471  14.462  11.325
31215SOL    HW195484  13.482  14.385  11.382
31215SOL    HW295485  13.456  14.535  11.386
31216SOL     OW95486  10.712   6.192   2.278
31216SOL    HW195487  10.653   6.181   2.202
31216SOL    HW295488  10.752   6.106   2.289
31217SOL     OW95489   4.935  14.445   6.675
31217SOL    HW195490   4.973  14.383   6.612
31217SOL    HW295491   5.011  14.487   6.715
31218SOL     OW95492   7.854   9.694   4.038
31218SOL    HW195493   7.916   9.764   4.020
31218SOL    HW295494   7.903   9.614   4.020
31219SOL     OW95495   6.965  14.855  13.279
31219SOL    HW195496   6.974   0.062  13.319
31219SOL    HW295497   6.881  14.857  13.233
31220SOL     OW95498  12.083   6.308   3.954
31220SOL    HW195499  12.091   6.224   3.999
31220SOL    HW295500  11.989   6.320   3.943
31221SOL     OW95501   3.344   1.832   6.092
31221SOL    HW195502   3.407   1.774   6.048
31221SOL    HW295503   3.311   1.888   6.022
31222SOL     OW95504  10.932  10.754   3.479
31222SOL    HW195505  10.941  10.769   3.385
31222SOL    HW295506  11.020  10.766   3.514
31223SOL     OW95507   5.246   0.233   4.252
31223SOL    HW195508   5.319   0.263   4.199
31223SOL    HW295509   5.172   0.286   4.223
31224SOL     OW95510  11.962  13.714  12.971
31224SOL    HW195511  11.927  13.795  13.008
31224SOL    HW295512  11.974  13.657  13.047
31225SOL     OW95513   4.724   9.678   5.587
31225SOL    HW195514   4.800   9.694   5.643
31225SOL    HW295515   4.757   9.621   5.517
31226SOL     OW95516   8.702   2.401  13.587
31226SOL    HW195517   8.662   2.316  13.567
31226SOL    HW295518   8.664   2.425  13.672
31227SOL     OW95519  10.215   6.492   3.638
31227SOL    HW195520  10.208   6.475   3.545
31227SOL    HW295521  10.176   6.415   3.680
31228SOL     OW95522  14.866   9.864   7.233
31228SOL    HW195523   0.038   9.898   7.306
31228SOL    HW295524  14.839   9.942   7.185
31229SOL     OW95525   1.268  11.521   2.494
31229SOL    HW195526   1.232  11.498   2.408
31229SOL    HW295527   1.250  11.614   2.503
31230SOL     OW95528  11.824  10.777  13.422
31230SOL    HW195529  11.757  10.722  13.383
31230SOL    HW295530  11.776  10.838  13.478
31231SOL     OW95531   1.140   6.708   6.351
31231SOL    HW195532   1.197   6.720   6.426
31231SOL    HW295533   1.055   6.740   6.380
31232SOL     OW95534  12.624   1.149   8.316
31232SOL    HW195535  12.612   1.067   8.363
31232SOL    HW295536  12.559   1.208   8.354
31233SOL     OW95537  10.688   4.854   1.643
31233SOL    HW195538  10.722   4.765   1.652
31233SOL    HW295539  10.759   4.903   1.602
31234SOL     OW95540   0.140   3.429   9.573
31234SOL    HW195541   0.069   3.405   9.633
31234SOL    HW295542   0.112   3.513   9.537
31235SOL     OW95543   4.270   6.755   4.041
31235SOL    HW195544   4.214   6.678   4.036
31235SOL    HW295545   4.209   6.828   4.048
31236SOL     OW95546  13.626  10.575  14.793
31236SOL    HW195547  13.565  10.610  14.858
31236SOL    HW295548  13.713  10.592  14.829
31237SOL     OW95549   5.162   5.085   6.600
31237SOL    HW195550   5.108   5.056   6.526
31237SOL    HW295551   5.168   5.180   6.589
31238SOL     OW95552  11.002  10.128   4.795
31238SOL    HW195553  10.940  10.194   4.827
31238SOL    HW295554  11.087  10.171   4.799
31239SOL     OW95555   4.984   9.086   7.540
31239SOL    HW195556   5.020   9.105   7.453
31239SOL    HW295557   4.958   9.171   7.575
31240SOL     OW95558   1.661   7.764   2.057
31240SOL    HW195559   1.620   7.679   2.074
31240SOL    HW295560   1.634   7.786   1.968
31241SOL     OW95561   0.194  10.635   5.738
31241SOL    HW195562   0.100  10.633   5.724
31241SOL    HW295563   0.218  10.727   5.724
31242SOL     OW95564  11.178  12.496  11.765
31242SOL    HW195565  11.185  12.407  11.732
31242SOL    HW295566  11.177  12.487  11.860
31243SOL     OW95567   6.878  14.120   3.260
31243SOL    HW195568   6.789  14.115   3.226
31243SOL    HW295569   6.909  14.029   3.259
31244SOL     OW95570  10.787  11.001  10.403
31244SOL    HW195571  10.852  11.050  10.454
31244SOL    HW295572  10.735  11.069  10.359
31245SOL     OW95573   7.095   8.257   5.678
31245SOL    HW195574   7.034   8.190   5.710
31245SOL    HW295575   7.095   8.324   5.746
31246SOL     OW95576  13.521  10.198   0.926
31246SOL    HW195577  13.475  10.259   0.869
31246SOL    HW295578  13.533  10.246   1.008
31247SOL     OW95579   8.284  10.106  11.347
31247SOL    HW195580   8.206  10.063  11.384
31247SOL    HW295581   8.320  10.040  11.287
31248SOL     OW95582  14.190   8.937  10.680
31248SOL    HW195583  14.135   8.922  10.602
31248SOL    HW295584  14.157   8.875  10.744
31249SOL     OW95585   0.850  11.827  13.980
31249SOL    HW195586   0.871  11.843  14.072
31249SOL    HW295587   0.888  11.901  13.933
31250SOL     OW95588   4.012   2.611   1.348
31250SOL    HW195589   3.969   2.550   1.408
31250SOL    HW295590   3.957   2.612   1.270
31251SOL     OW95591   5.416   0.560  11.308
31251SOL    HW195592   5.488   0.613  11.342
31251SOL    HW295593   5.414   0.580  11.214
31252SOL     OW95594   8.087  11.939  14.471
31252SOL    HW195595   8.015  11.978  14.520
31252SOL    HW295596   8.048  11.865  14.425
31253SOL     OW95597  10.788  11.584   2.847
31253SOL    HW195598  10.849  11.657   2.849
31253SOL    HW295599  10.817  11.526   2.918
31254SOL     OW95600   3.481   8.716   3.641
31254SOL    HW195601   3.499   8.640   3.696
31254SOL    HW295602   3.533   8.701   3.561
31255SOL     OW95603   1.782   5.949  10.172
31255SOL    HW195604   1.744   5.926  10.087
31255SOL    HW295605   1.869   5.908  10.171
31256SOL     OW95606  14.479  12.123  10.136
31256SOL    HW195607  14.433  12.195  10.180
31256SOL    HW295608  14.451  12.045  10.184
31257SOL     OW95609  10.381   7.090  11.891
31257SOL    HW195610  10.356   6.999  11.907
31257SOL    HW295611  10.299   7.137  11.880
31258SOL     OW95612  14.764   4.711   0.995
31258SOL    HW195613  14.704   4.732   1.065
31258SOL    HW295614  14.714   4.723   0.915
31259SOL     OW95615   2.385   2.263   4.508
31259SOL    HW195616   2.325   2.239   4.578
31259SOL    HW295617   2.394   2.358   4.516
31260SOL     OW95618  10.137   9.740   8.946
31260SOL    HW195619  10.111   9.716   9.034
31260SOL    HW295620  10.163   9.832   8.953
31261SOL     OW95621   1.909   1.591  11.310
31261SOL    HW195622   1.867   1.519  11.357
31261SOL    HW295623   1.910   1.664  11.372
31262SOL     OW95624  14.611   3.655  10.666
31262SOL    HW195625  14.612   3.579  10.723
31262SOL    HW295626  14.628   3.729  10.724
31263SOL     OW95627   9.692   4.811   6.592
31263SOL    HW195628   9.693   4.906   6.607
31263SOL    HW295629   9.684   4.773   6.680
31264SOL     OW95630   1.113   4.147   7.132
31264SOL    HW195631   1.156   4.124   7.215
31264SOL    HW295632   1.185   4.167   7.073
31265SOL     OW95633   6.634   8.093  13.881
31265SOL    HW195634   6.553   8.091  13.830
31265SOL    HW295635   6.704   8.097  13.815
31266SOL     OW95636  11.518  12.681   9.843
31266SOL    HW195637  11.438  12.712   9.886
31266SOL    HW295638  11.556  12.759   9.803
31267SOL     OW95639   4.563   9.633   9.162
31267SOL    HW195640   4.632   9.683   9.119
31267SOL    HW295641   4.610   9.572   9.219
31268SOL     OW95642   8.727   4.047   7.471
31268SOL    HW195643   8.759   3.957   7.471
31268SOL    HW295644   8.707   4.066   7.379
31269SOL     OW95645   1.493  12.408   3.406
31269SOL    HW195646   1.465  12.326   3.445
31269SOL    HW295647   1.498  12.469   3.479
31270SOL     OW95648   0.250   7.230   6.902
31270SOL    HW195649   0.186   7.216   6.833
31270SOL    HW295650   0.198   7.255   6.979
31271SOL     OW95651   3.207  10.826   8.804
31271SOL    HW195652   3.216  10.817   8.898
31271SOL    HW295653   3.166  10.745   8.775
31272SOL     OW95654   1.017   1.716   6.019
31272SOL    HW195655   0.975   1.630   6.012
31272SOL    HW295656   1.017   1.750   5.930
31273SOL     OW95657  12.102  12.422  12.400
31273SOL    HW195658  12.093  12.503  12.451
31273SOL    HW295659  12.194  12.397  12.411
31274SOL     OW95660   1.940   3.586   9.557
31274SOL    HW195661   1.943   3.664   9.612
31274SOL    HW295662   1.875   3.529   9.598
31275SOL     OW95663   3.803  11.502   8.989
31275SOL    HW195664   3.809  11.501   9.084
31275SOL    HW295665   3.873  11.561   8.961
31276SOL     OW95666   1.712   8.694   8.905
31276SOL    HW195667   1.656   8.768   8.925
31276SOL    HW295668   1.654   8.630   8.864
31277SOL     OW95669  14.266   3.830   6.081
31277SOL    HW195670  14.311   3.911   6.059
31277SOL    HW295671  14.173   3.853   6.077
31278SOL     OW95672   9.994   2.287  10.484
31278SOL    HW195673   9.931   2.347  10.523
31278SOL    HW295674  10.040   2.248  10.559
31279SOL     OW95675   7.752   0.132   5.350
31279SOL    HW195676   7.804   0.170   5.421
31279SOL    HW295677   7.670   0.181   5.352
31280SOL     OW95678  14.502   1.606   3.121
31280SOL    HW195679  14.566   1.540   3.149
31280SOL    HW295680  14.417   1.571   3.148
31281SOL     OW95681  10.143   2.105   0.318
31281SOL    HW195682  10.072   2.042   0.304
31281SOL    HW295683  10.102   2.190   0.303
31282SOL     OW95684  13.080  13.182   9.775
31282SOL    HW195685  13.171  13.152   9.783
31282SOL    HW295686  13.037  13.152   9.855
31283SOL     OW95687  14.601   8.402  11.248
31283SOL    HW195688  14.679   8.398  11.193
31283SOL    HW295689  14.536   8.349  11.202
31284SOL     OW95690  13.724   5.815   9.406
31284SOL    HW195691  13.673   5.821   9.487
31284SOL    HW295692  13.735   5.905   9.378
31285SOL     OW95693   1.165   7.965   0.975
31285SOL    HW195694   1.224   7.942   0.904
31285SOL    HW295695   1.186   7.903   1.045
31286SOL     OW95696   4.825   8.111   3.581
31286SOL    HW195697   4.821   8.159   3.664
31286SOL    HW295698   4.837   8.019   3.607
31287SOL     OW95699   5.532   2.894   4.791
31287SOL    HW195700   5.482   2.830   4.842
31287SOL    HW295701   5.623   2.865   4.798
31288SOL     OW95702  11.927   5.161  12.294
31288SOL    HW195703  11.925   5.248  12.332
31288SOL    HW295704  11.970   5.172  12.209
31289SOL     OW95705   1.075   5.157   2.236
31289SOL    HW195706   1.013   5.156   2.163
31289SOL    HW295707   1.161   5.157   2.194
31290SOL     OW95708   0.768   0.333  12.577
31290SOL    HW195709   0.852   0.289  12.573
31290SOL    HW295710   0.716   0.291  12.508
31291SOL     OW95711  10.174   1.709   5.943
31291SOL    HW195712  10.125   1.791   5.938
31291SOL    HW295713  10.113   1.642   5.910
31292SOL     OW95714  10.323  13.937  13.101
31292SOL    HW195715  10.408  13.970  13.073
31292SOL    HW295716  10.296  13.996  13.171
31293SOL     OW95717   7.330  14.288   5.041
31293SOL    HW195718   7.362  14.377   5.056
31293SOL    HW295719   7.256  14.279   5.100
31294SOL     OW95720   5.202   1.546   1.232
31294SOL    HW195721   5.271   1.551   1.166
31294SOL    HW295722   5.139   1.483   1.197
31295SOL     OW95723   0.272   0.321  14.273
31295SOL    HW195724   0.317   0.406  14.280
31295SOL    HW295725   0.332   0.267  14.222
31296SOL     OW95726   3.138  13.700   0.974
31296SOL    HW195727   3.095  13.667   0.895
31296SOL    HW295728   3.109  13.640   1.043
31297SOL     OW95729   3.836  12.725  11.353
31297SOL    HW195730   3.793  12.733  11.267
31297SOL    HW295731   3.852  12.631  11.363
31298SOL     OW95732  11.492  13.934   1.892
31298SOL    HW195733  11.458  13.853   1.855
31298SOL    HW295734  11.587  13.926   1.884
31299SOL     OW95735   0.603   6.131  14.067
31299SOL    HW195736   0.573   6.048  14.105
31299SOL    HW295737   0.691   6.142  14.103
31300SOL     OW95738   3.835  11.283  10.910
31300SOL    HW195739   3.811  11.191  10.906
31300SOL    HW295740   3.785  11.324  10.840
31301SOL     OW95741   9.380   3.743   6.023
31301SOL    HW195742   9.301   3.689   6.012
31301SOL    HW295743   9.419   3.746   5.936
31302SOL     OW95744   2.116  10.742  14.305
31302SOL    HW195745   2.051  10.812  14.298
31302SOL    HW295746   2.065  10.661  14.300
31303SOL     OW95747   6.569   5.770  14.407
31303SOL    HW195748   6.614   5.851  14.384
31303SOL    HW295749   6.576   5.765  14.502
31304SOL     OW95750   4.852  10.796  12.027
31304SOL    HW195751   4.878  10.812  12.118
31304SOL    HW295752   4.764  10.833  12.021
31305SOL     OW95753  12.854  12.927  11.783
31305SOL    HW195754  12.877  12.845  11.739
31305SOL    HW295755  12.825  12.985  11.713
31306SOL     OW95756   7.044  12.655   9.284
31306SOL    HW195757   7.118  12.602   9.253
31306SOL    HW295758   7.056  12.658   9.379
31307SOL     OW95759   6.868   5.103   4.073
31307SOL    HW195760   6.948   5.142   4.037
31307SOL    HW295761   6.887   5.009   4.077
31308SOL     OW95762  14.522  11.883  13.759
31308SOL    HW195763  14.561  11.856  13.675
31308SOL    HW295764  14.527  11.804  13.814
31309SOL     OW95765  14.491  11.020  13.088
31309SOL    HW195766  14.585  11.001  13.091
31309SOL    HW295767  14.452  10.941  13.050
31310SOL     OW95768  10.093   7.837   8.867
31310SOL    HW195769  10.044   7.871   8.942
31310SOL    HW295770  10.032   7.777   8.823
31311SOL     OW95771   9.849   9.702  13.844
31311SOL    HW195772   9.846   9.798  13.843
31311SOL    HW295773   9.924   9.681  13.900
31312SOL     OW95774   3.168   5.517   3.550
31312SOL    HW195775   3.201   5.584   3.489
31312SOL    HW295776   3.083   5.493   3.514
31313SOL     OW95777   8.690   5.791   2.888
31313SOL    HW195778   8.751   5.864   2.889
31313SOL    HW295779   8.697   5.754   2.800
31314SOL     OW95780   7.917   5.803   5.572
31314SOL    HW195781   7.895   5.894   5.555
31314SOL    HW295782   8.007   5.804   5.604
31315SOL     OW95783   4.802  10.972   6.399
31315SOL    HW195784   4.770  10.928   6.479
31315SOL    HW295785   4.825  10.900   6.341
31316SOL     OW95786  14.040   8.441   1.360
31316SOL    HW195787  14.087   8.523   1.342
31316SOL    HW295788  13.959   8.448   1.309
31317SOL     OW95789  14.445  12.660  11.577
31317SOL    HW195790  14.421  12.602  11.649
31317SOL    HW295791  14.526  12.702  11.605
31318SOL     OW95792   0.177   0.391  13.340
31318SOL    HW195793   0.101   0.333  13.344
31318SOL    HW295794   0.162   0.456  13.409
31319SOL     OW95795  12.091  10.308   1.338
31319SOL    HW195796  12.011  10.334   1.384
31319SOL    HW295797  12.062  10.283   1.251
31320SOL     OW95798   6.355   9.327  13.317
31320SOL    HW195799   6.400   9.245  13.340
31320SOL    HW295800   6.286   9.336  13.383
31321SOL     OW95801   6.894   3.191  12.864
31321SOL    HW195802   6.883   3.281  12.833
31321SOL    HW295803   6.816   3.174  12.916
31322SOL     OW95804   5.574   8.560   8.969
31322SOL    HW195805   5.554   8.504   9.045
31322SOL    HW295806   5.659   8.598   8.989
31323SOL     OW95807   1.930   2.043  11.454
31323SOL    HW195808   1.953   2.131  11.423
31323SOL    HW295809   1.848   2.023  11.409
31324SOL     OW95810   7.319   2.298   2.416
31324SOL    HW195811   7.248   2.350   2.378
31324SOL    HW295812   7.278   2.250   2.488
31325SOL     OW95813   2.156  13.647   0.202
31325SOL    HW195814   2.223  13.712   0.224
31325SOL    HW295815   2.194  13.598   0.130
31326SOL     OW95816  11.148  11.352   4.794
31326SOL    HW195817  11.122  11.358   4.702
31326SOL    HW295818  11.069  11.377   4.842
31327SOL     OW95819  10.561   3.145   8.433
31327SOL    HW195820  10.492   3.112   8.490
31327SOL    HW295821  10.633   3.167   8.493
31328SOL     OW95822   3.988  13.515   8.200
31328SOL    HW195823   3.934  13.448   8.242
31328SOL    HW295824   4.037  13.554   8.272
31329SOL     OW95825  12.834  14.384  14.445
31329SOL    HW195826  12.869  14.295  14.440
31329SOL    HW295827  12.804  14.404  14.356
31330SOL     OW95828  11.025   8.219   3.770
31330SOL    HW195829  10.941   8.199   3.730
31330SOL    HW295830  11.003   8.265   3.851
31331SOL     OW95831  11.868   2.969   7.506
31331SOL    HW195832  11.793   3.021   7.478
31331SOL    HW295833  11.924   3.032   7.552
31332SOL     OW95834  10.454   0.999   5.279
31332SOL    HW195835  10.447   1.079   5.331
31332SOL    HW295836  10.522   0.948   5.323
31333SOL     OW95837   9.750   4.962  14.598
31333SOL    HW195838   9.760   4.873  14.564
31333SOL    HW295839   9.779   4.957  14.688
31334SOL     OW95840  11.484  12.597  14.315
31334SOL    HW195841  11.470  12.610  14.409
31334SOL    HW295842  11.577  12.617  14.302
31335SOL     OW95843   3.809   1.664   1.452
31335SOL    HW195844   3.894   1.681   1.494
31335SOL    HW295845   3.787   1.574   1.478
31336SOL     OW95846   7.983  14.124  14.041
31336SOL    HW195847   7.951  14.034  14.041
31336SOL    HW295848   7.938  14.166  13.968
31337SOL     OW95849   7.890   8.257   2.058
31337SOL    HW195850   7.794   8.254   2.056
31337SOL    HW295851   7.912   8.267   2.151
31338SOL     OW95852   9.581   6.316   1.826
31338SOL    HW195853   9.672   6.286   1.825
31338SOL    HW295854   9.552   6.299   1.916
31339SOL     OW95855  13.006   6.197   4.588
31339SOL    HW195856  12.913   6.211   4.567
31339SOL    HW295857  13.052   6.230   4.511
31340SOL     OW95858   6.047   7.507   7.995
31340SOL    HW195859   6.135   7.542   7.980
31340SOL    HW295860   6.057   7.412   7.990
31341SOL     OW95861   7.271  14.372  11.017
31341SOL    HW195862   7.256  14.355  11.110
31341SOL    HW295863   7.306  14.461  11.013
31342SOL     OW95864  14.062   3.312   1.740
31342SOL    HW195865  14.009   3.357   1.674
31342SOL    HW295866  14.104   3.382   1.789
31343SOL     OW95867   9.928  13.585   8.765
31343SOL    HW195868   9.939  13.612   8.857
31343SOL    HW295869   9.890  13.662   8.723
31344SOL     OW95870   6.038   2.176   4.439
31344SOL    HW195871   6.050   2.256   4.490
31344SOL    HW295872   5.943   2.166   4.432
31345SOL     OW95873   1.603   5.754   7.524
31345SOL    HW195874   1.651   5.689   7.473
31345SOL    HW295875   1.518   5.760   7.481
31346SOL     OW95876   6.470  12.026   3.746
31346SOL    HW195877   6.424  11.960   3.798
31346SOL    HW295878   6.493  12.095   3.810
31347SOL     OW95879   9.694   6.525   0.081
31347SOL    HW195880   9.789   6.530   0.069
31347SOL    HW295881   9.659   6.508  14.874
31348SOL     OW95882   4.890   1.320   4.740
31348SOL    HW195883   4.805   1.347   4.706
31348SOL    HW295884   4.889   1.349   4.831
31349SOL     OW95885   4.843   7.907  14.138
31349SOL    HW195886   4.818   7.895  14.047
31349SOL    HW295887   4.793   7.983  14.167
31350SOL     OW95888   8.983   1.751   6.113
31350SOL    HW195889   8.946   1.790   6.033
31350SOL    HW295890   8.942   1.800   6.184
31351SOL     OW95891  12.045  14.861  14.070
31351SOL    HW195892  12.096  14.783  14.049
31351SOL    HW295893  12.081   0.049  14.012
31352SOL     OW95894   7.283  11.640   7.657
31352SOL    HW195895   7.281  11.598   7.743
31352SOL    HW295896   7.286  11.568   7.595
31353SOL     OW95897   9.008  14.207   0.329
31353SOL    HW195898   9.011  14.143   0.257
31353SOL    HW295899   9.015  14.154   0.408
31354SOL     OW95900  12.030   7.132   8.608
31354SOL    HW195901  12.018   7.091   8.523
31354SOL    HW295902  11.975   7.210   8.605
31355SOL     OW95903   3.576  11.616   8.896
31355SOL    HW195904   3.503  11.555   8.903
31355SOL    HW295905   3.644  11.579   8.953
31356SOL     OW95906   4.062  10.432   0.813
31356SOL    HW195907   4.143  10.481   0.827
31356SOL    HW295908   3.997  10.499   0.794
31357SOL     OW95909   8.372  12.850   2.310
31357SOL    HW195910   8.294  12.851   2.255
31357SOL    HW295911   8.438  12.804   2.257
31358SOL     OW95912  13.674  11.750   5.284
31358SOL    HW195913  13.644  11.761   5.194
31358SOL    HW295914  13.595  11.725   5.333
31359SOL     OW95915   8.952   5.351  10.946
31359SOL    HW195916   8.861   5.322  10.941
31359SOL    HW295917   8.995   5.285  10.999
31360SOL     OW95918   3.502   2.341   6.196
31360SOL    HW195919   3.505   2.376   6.285
31360SOL    HW295920   3.430   2.388   6.154
31361SOL     OW95921   5.074   4.923   5.522
31361SOL    HW195922   5.159   4.888   5.547
31361SOL    HW295923   5.093   5.011   5.489
31362SOL     OW95924   8.092   3.389   0.388
31362SOL    HW195925   8.151   3.419   0.318
31362SOL    HW295926   8.145   3.394   0.467
31363SOL     OW95927   4.838   4.233   8.876
31363SOL    HW195928   4.762   4.272   8.920
31363SOL    HW295929   4.811   4.143   8.860
31364SOL     OW95930   1.594   2.967   0.733
31364SOL    HW195931   1.507   2.995   0.704
31364SOL    HW295932   1.585   2.956   0.827
31365SOL     OW95933  14.169  14.688   2.350
31365SOL    HW195934  14.226  14.633   2.404
31365SOL    HW295935  14.153  14.766   2.404
31366SOL     OW95936  12.729   2.442  12.749
31366SOL    HW195937  12.789   2.430  12.675
31366SOL    HW295938  12.649   2.396  12.723
31367SOL     OW95939   0.242  11.998  10.981
31367SOL    HW195940   0.335  12.007  11.002
31367SOL    HW295941   0.203  12.078  11.015
31368SOL     OW95942   3.858   8.638  12.970
31368SOL    HW195943   3.946   8.602  12.974
31368SOL    HW295944   3.803   8.572  13.013
31369SOL     OW95945  13.151  14.596   6.444
31369SOL    HW195946  13.083  14.609   6.510
31369SOL    HW295947  13.104  14.568   6.366
31370SOL     OW95948   2.546   6.266   2.563
31370SOL    HW195949   2.549   6.279   2.468
31370SOL    HW295950   2.561   6.353   2.600
31371SOL     OW95951   1.062   7.404   7.472
31371SOL    HW195952   1.103   7.331   7.518
31371SOL    HW295953   0.969   7.380   7.468
31372SOL     OW95954   7.810   2.670   3.391
31372SOL    HW195955   7.891   2.708   3.357
31372SOL    HW295956   7.758   2.746   3.417
31373SOL     OW95957   9.401  14.185   5.719
31373SOL    HW195958   9.317  14.167   5.677
31373SOL    HW295959   9.463  14.191   5.647
31374SOL     OW95960   5.723   1.911  12.162
31374SOL    HW195961   5.632   1.883  12.158
31374SOL    HW295962   5.757   1.870  12.242
31375SOL     OW95963   5.722   4.112   2.832
31375SOL    HW195964   5.728   4.118   2.928
31375SOL    HW295965   5.765   4.191   2.800
31376SOL     OW95966   4.296   4.737  14.781
31376SOL    HW195967   4.249   4.820  14.771
31376SOL    HW295968   4.283   4.712  14.872
31377SOL     OW95969  11.001   3.667   8.664
31377SOL    HW195970  10.991   3.603   8.735
31377SOL    HW295971  11.074   3.633   8.612
31378SOL     OW95972  10.573   8.629   5.473
31378SOL    HW195973  10.660   8.613   5.436
31378SOL    HW295974  10.524   8.549   5.454
31379SOL     OW95975  11.755  11.939   4.145
31379SOL    HW195976  11.784  11.990   4.070
31379SOL    HW295977  11.795  11.853   4.132
31380SOL     OW95978   4.085   5.021  14.582
31380SOL    HW195979   4.139   5.099  14.598
31380SOL    HW295980   3.997   5.055  14.571
31381SOL     OW95981   6.270   3.207   8.290
31381SOL    HW195982   6.254   3.130   8.235
31381SOL    HW295983   6.194   3.263   8.273
31382SOL     OW95984  11.064  12.240   1.697
31382SOL    HW195985  11.038  12.331   1.683
31382SOL    HW295986  10.991  12.202   1.746
31383SOL     OW95987   1.676   2.024  14.818
31383SOL    HW195988   1.630   1.991  14.741
31383SOL    HW295989   1.613   2.085  14.859
31384SOL     OW95990  12.776  11.691   2.323
31384SOL    HW195991  12.857  11.740   2.313
31384SOL    HW295992  12.759  11.653   2.237
31385SOL     OW95993   1.847   4.869  13.305
31385SOL    HW195994   1.804   4.953  13.288
31385SOL    HW295995   1.868   4.872  13.399
31386SOL     OW95996   7.171   6.216   3.704
31386SOL    HW195997   7.138   6.126   3.697
31386SOL    HW295998   7.161   6.238   3.796
31387SOL     OW95999  13.967   2.280   1.135
31387SOL    HW196000  13.917   2.324   1.067
31387SOL    HW296001  13.902   2.241   1.192
31388SOL     OW96002   2.267   8.279  14.332
31388SOL    HW196003   2.229   8.301  14.417
31388SOL    HW296004   2.311   8.195  14.347
31389SOL     OW96005   3.265   4.378   9.318
31389SOL    HW196006   3.301   4.290   9.308
31389SOL    HW296007   3.217   4.394   9.236
31390SOL     OW96008  12.318   9.295   0.315
31390SOL    HW196009  12.282   9.234   0.251
31390SOL    HW296010  12.257   9.369   0.315
31391SOL     OW96011   3.999   3.052   4.065
31391SOL    HW196012   4.080   3.037   4.113
31391SOL    HW296013   3.966   3.136   4.098
31392SOL     OW96014   4.608  14.387  13.662
31392SOL    HW196015   4.570  14.462  13.615
31392SOL    HW296016   4.702  14.395  13.647
31393SOL     OW96017  14.303   9.050   7.249
31393SOL    HW196018  14.265   9.088   7.171
31393SOL    HW296019  14.394   9.081   7.249
31394SOL     OW96020   1.065  12.671  10.917
31394SOL    HW196021   1.140  12.617  10.893
31394SOL    HW296022   1.088  12.709  11.002
31395SOL     OW96023   3.478   4.920   7.842
31395SOL    HW196024   3.554   4.968   7.876
31395SOL    HW296025   3.403   4.964   7.881
31396SOL     OW96026  14.868  12.104  11.831
31396SOL    HW196027  14.855  12.141  11.744
31396SOL    HW296028   0.048  12.165  11.875
31397SOL     OW96029   2.755  13.528   7.045
31397SOL    HW196030   2.662  13.552   7.036
31397SOL    HW296031   2.802  13.598   6.999
31398SOL     OW96032  12.328   7.972  11.432
31398SOL    HW196033  12.416   8.006  11.415
31398SOL    HW296034  12.343   7.886  11.472
31399SOL     OW96035   2.816  11.002   6.033
31399SOL    HW196036   2.885  11.064   6.056
31399SOL    HW296037   2.852  10.917   6.055
31400SOL     OW96038   1.810   4.642   5.278
31400SOL    HW196039   1.843   4.564   5.233
31400SOL    HW296040   1.811   4.620   5.371
31401SOL     OW96041   9.879   6.939   8.898
31401SOL    HW196042   9.926   7.009   8.853
31401SOL    HW296043   9.923   6.931   8.982
31402SOL     OW96044  14.818   0.267   2.489
31402SOL    HW196045  14.772   0.185   2.472
31402SOL    HW296046   0.008   0.269   2.424
31403SOL     OW96047   8.826   6.606   2.862
31403SOL    HW196048   8.761   6.633   2.798
31403SOL    HW296049   8.886   6.549   2.813
31404SOL     OW96050  14.777  11.162   6.603
31404SOL    HW196051  14.790  11.235   6.664
31404SOL    HW296052  14.686  11.173   6.572
31405SOL     OW96053   3.995   1.455   0.250
31405SOL    HW196054   4.042   1.492   0.176
31405SOL    HW296055   3.976   1.530   0.307
31406SOL     OW96056   8.280   5.981   7.253
31406SOL    HW196057   8.201   6.029   7.229
31406SOL    HW296058   8.277   5.901   7.201
31407SOL     OW96059   4.989   1.293   8.025
31407SOL    HW196060   5.018   1.245   8.103
31407SOL    HW296061   4.996   1.385   8.050
31408SOL     OW96062   3.879   2.838   7.673
31408SOL    HW196063   3.921   2.779   7.737
31408SOL    HW296064   3.785   2.827   7.688
31409SOL     OW96065   4.659  10.416   5.798
31409SOL    HW196066   4.719  10.410   5.723
31409SOL    HW296067   4.706  10.471   5.861
31410SOL     OW96068  13.083   0.180   8.607
31410SOL    HW196069  13.140   0.252   8.580
31410SOL    HW296070  12.995   0.219   8.611
31411SOL     OW96071   4.583   4.418   9.430
31411SOL    HW196072   4.624   4.497   9.396
31411SOL    HW296073   4.654   4.355   9.437
31412SOL     OW96074   3.372   8.088   6.918
31412SOL    HW196075   3.405   8.119   7.002
31412SOL    HW296076   3.389   8.161   6.858
31413SOL     OW96077   4.044   1.198  11.557
31413SOL    HW196078   4.077   1.154  11.636
31413SOL    HW296079   4.117   1.252  11.528
31414SOL     OW96080   6.838   0.804   1.769
31414SOL    HW196081   6.750   0.821   1.803
31414SOL    HW296082   6.871   0.733   1.823
31415SOL     OW96083   9.546  10.175   9.673
31415SOL    HW196084   9.502  10.091   9.685
31415SOL    HW296085   9.639  10.157   9.688
31416SOL     OW96086   8.103   5.313   8.422
31416SOL    HW196087   8.114   5.401   8.458
31416SOL    HW296088   8.052   5.326   8.342
31417SOL     OW96089  13.613   4.477  11.642
31417SOL    HW196090  13.549   4.407  11.639
31417SOL    HW296091  13.599   4.526  11.560
31418SOL     OW96092  11.390   5.350  12.261
31418SOL    HW196093  11.426   5.304  12.337
31418SOL    HW296094  11.299   5.368  12.285
31419SOL     OW96095   9.452  12.900   6.191
31419SOL    HW196096   9.398  12.976   6.216
31419SOL    HW296097   9.389  12.832   6.169
31420SOL     OW96098  11.833  10.345  13.199
31420SOL    HW196099  11.875  10.324  13.282
31420SOL    HW296100  11.742  10.318  13.211
31421SOL     OW96101  12.049   2.191  10.080
31421SOL    HW196102  12.137   2.162  10.056
31421SOL    HW296103  12.060   2.282  10.108
31422SOL     OW96104   1.934   4.528  10.819
31422SOL    HW196105   2.018   4.487  10.839
31422SOL    HW296106   1.897   4.550  10.905
31423SOL     OW96107  13.011   0.649  13.233
31423SOL    HW196108  12.920   0.678  13.242
31423SOL    HW296109  13.058   0.697  13.301
31424SOL     OW96110   0.908   6.359   9.230
31424SOL    HW196111   0.892   6.420   9.302
31424SOL    HW296112   0.999   6.374   9.205
31425SOL     OW96113   8.247   2.018  12.187
31425SOL    HW196114   8.199   1.969  12.121
31425SOL    HW296115   8.187   2.087  12.215
31426SOL     OW96116  13.844  13.892   6.502
31426SOL    HW196117  13.883  13.813   6.465
31426SOL    HW296118  13.917  13.954   6.507
31427SOL     OW96119  14.365   4.378   8.813
31427SOL    HW196120  14.380   4.459   8.862
31427SOL    HW296121  14.451   4.357   8.776
31428SOL     OW96122   4.363   3.478   2.173
31428SOL    HW196123   4.331   3.524   2.251
31428SOL    HW296124   4.307   3.400   2.167
31429SOL     OW96125   0.528   7.353  11.936
31429SOL    HW196126   0.539   7.419  11.867
31429SOL    HW296127   0.436   7.329  11.932
31430SOL     OW96128  14.412  13.709  13.407
31430SOL    HW196129  14.405  13.718  13.312
31430SOL    HW296130  14.502  13.681  13.423
31431SOL     OW96131   8.275   1.342   1.022
31431SOL    HW196132   8.211   1.411   1.036
31431SOL    HW296133   8.345   1.360   1.085
31432SOL     OW96134   0.827  12.288   1.212
31432SOL    HW196135   0.866  12.349   1.150
31432SOL    HW296136   0.876  12.207   1.201
31433SOL     OW96137   5.932  13.605   4.339
31433SOL    HW196138   6.024  13.632   4.344
31433SOL    HW296139   5.920  13.574   4.250
31434SOL     OW96140  12.357   4.799   4.492
31434SOL    HW196141  12.285   4.822   4.551
31434SOL    HW296142  12.386   4.883   4.456
31435SOL     OW96143  11.017  11.039   3.752
31435SOL    HW196144  10.978  11.020   3.667
31435SOL    HW296145  11.064  10.959   3.775
31436SOL     OW96146   4.318   9.377   1.374
31436SOL    HW196147   4.393   9.434   1.355
31436SOL    HW296148   4.322   9.363   1.468
31437SOL     OW96149  14.639   5.724   2.984
31437SOL    HW196150  14.593   5.642   3.002
31437SOL    HW296151  14.570   5.787   2.962
31438SOL     OW96152   0.630  12.572   0.668
31438SOL    HW196153   0.572  12.557   0.742
31438SOL    HW296154   0.578  12.549   0.591
31439SOL     OW96155   9.686   5.809  14.019
31439SOL    HW196156   9.771   5.775  13.991
31439SOL    HW296157   9.623   5.767  13.961
31440SOL     OW96158  14.015   3.617   7.962
31440SOL    HW196159  13.954   3.631   7.890
31440SOL    HW296160  13.968   3.560   8.023
31441SOL     OW96161  12.439   8.414   1.259
31441SOL    HW196162  12.364   8.388   1.312
31441SOL    HW296163  12.402   8.438   1.174
31442SOL     OW96164   1.901   1.024   7.627
31442SOL    HW196165   1.897   1.083   7.551
31442SOL    HW296166   1.929   1.080   7.699
31443SOL     OW96167  10.923  13.360   3.303
31443SOL    HW196168  10.966  13.355   3.218
31443SOL    HW296169  10.922  13.270   3.335
31444SOL     OW96170  10.929   7.003  12.971
31444SOL    HW196171  10.874   6.925  12.974
31444SOL    HW296172  11.001   6.980  12.912
31445SOL     OW96173   5.125   6.768   9.072
31445SOL    HW196174   5.087   6.752   8.986
31445SOL    HW296175   5.050   6.775   9.131
31446SOL     OW96176  13.630   0.013   6.842
31446SOL    HW196177  13.645   0.078   6.773
31446SOL    HW296178  13.677  14.815   6.813
31447SOL     OW96179   8.729   2.480   1.088
31447SOL    HW196180   8.766   2.569   1.092
31447SOL    HW296181   8.672   2.481   1.012
31448SOL     OW96182   2.743  12.513   2.996
31448SOL    HW196183   2.805  12.577   3.032
31448SOL    HW296184   2.657  12.547   3.020
31449SOL     OW96185   4.829   3.129  13.136
31449SOL    HW196186   4.796   3.041  13.116
31449SOL    HW296187   4.880   3.153  13.058
31450SOL     OW96188   1.080   8.120  11.631
31450SOL    HW196189   0.995   8.097  11.595
31450SOL    HW296190   1.061   8.169  11.710
31451SOL     OW96191   1.382   9.010   4.904
31451SOL    HW196192   1.298   8.965   4.914
31451SOL    HW296193   1.427   8.963   4.834
31452SOL     OW96194  12.085  10.990  10.401
31452SOL    HW196195  12.049  11.009  10.314
31452SOL    HW296196  12.142  10.914  10.387
31453SOL     OW96197  10.599  14.372   6.509
31453SOL    HW196198  10.531  14.382   6.442
31453SOL    HW296199  10.666  14.435   6.484
31454SOL     OW96200  12.281  10.060  13.416
31454SOL    HW196201  12.321  10.060  13.503
31454SOL    HW296202  12.344  10.107  13.361
31455SOL     OW96203   7.432   3.412   7.139
31455SOL    HW196204   7.430   3.475   7.211
31455SOL    HW296205   7.510   3.358   7.156
31456SOL     OW96206   1.935   7.722  11.555
31456SOL    HW196207   2.005   7.751  11.496
31456SOL    HW296208   1.883   7.661  11.502
31457SOL     OW96209  11.294  12.980   5.504
31457SOL    HW196210  11.248  12.995   5.587
31457SOL    HW296211  11.225  12.960   5.441
31458SOL     OW96212   4.079   1.441   8.178
31458SOL    HW196213   3.989   1.418   8.201
31458SOL    HW296214   4.105   1.376   8.113
31459SOL     OW96215   0.035   0.498  12.556
31459SOL    HW196216  14.859   0.440  12.608
31459SOL    HW296217  14.872   0.501  12.470
31460SOL     OW96218   1.491   9.590  11.476
31460SOL    HW196219   1.492   9.531  11.401
31460SOL    HW296220   1.475   9.533  11.551
31461SOL     OW96221   8.302   9.440   8.512
31461SOL    HW196222   8.239   9.485   8.456
31461SOL    HW296223   8.252   9.367   8.549
31462SOL     OW96224   7.606   4.929   1.640
31462SOL    HW196225   7.516   4.939   1.670
31462SOL    HW296226   7.610   4.980   1.559
31463SOL     OW96227  10.838  13.241  14.616
31463SOL    HW196228  10.772  13.274  14.676
31463SOL    HW296229  10.868  13.318  14.568
31464SOL     OW96230   1.008  13.594   3.824
31464SOL    HW196231   1.064  13.635   3.890
31464SOL    HW296232   0.993  13.505   3.858
31465SOL     OW96233  12.497  11.080   4.044
31465SOL    HW196234  12.571  11.027   4.016
31465SOL    HW296235  12.534  11.167   4.061
31466SOL     OW96236   4.710  10.452   9.416
31466SOL    HW196237   4.714  10.443   9.511
31466SOL    HW296238   4.620  10.482   9.399
31467SOL     OW96239  13.671   7.035   1.291
31467SOL    HW196240  13.662   6.978   1.368
31467SOL    HW296241  13.759   7.017   1.258
31468SOL     OW96242   7.902  13.915   1.320
31468SOL    HW196243   7.993  13.894   1.297
31468SOL    HW296244   7.908  13.990   1.379
31469SOL     OW96245   4.047   0.376  13.421
31469SOL    HW196246   4.018   0.452  13.470
31469SOL    HW296247   4.132   0.402  13.384
31470SOL     OW96248  14.252   2.546   1.323
31470SOL    HW196249  14.276   2.462   1.362
31470SOL    HW296250  14.215   2.524   1.238
31471SOL     OW96251   2.880  10.446   9.736
31471SOL    HW196252   2.885  10.535   9.770
31471SOL    HW296253   2.884  10.455   9.641
31472SOL     OW96254   0.844  10.714   7.736
31472SOL    HW196255   0.937  10.726   7.752
31472SOL    HW296256   0.801  10.739   7.818
31473SOL     OW96257  11.183   4.316  13.163
31473SOL    HW196258  11.202   4.256  13.091
31473SOL    HW296259  11.128   4.265  13.223
31474SOL     OW96260   5.527  10.841   1.528
31474SOL    HW196261   5.612  10.835   1.486
31474SOL    HW296262   5.464  10.838   1.455
31475SOL     OW96263   0.547   5.947   4.439
31475SOL    HW196264   0.633   5.910   4.417
31475SOL    HW296265   0.494   5.872   4.464
31476SOL     OW96266   6.982  10.168   2.364
31476SOL    HW196267   7.061  10.194   2.318
31476SOL    HW296268   6.985  10.216   2.446
31477SOL     OW96269   2.643   8.760  11.917
31477SOL    HW196270   2.548   8.759  11.905
31477SOL    HW296271   2.678   8.732  11.833
31478SOL     OW96272   6.865   4.320   6.328
31478SOL    HW196273   6.817   4.281   6.401
31478SOL    HW296274   6.945   4.269   6.320
31479SOL     OW96275   0.124   5.582  11.453
31479SOL    HW196276   0.135   5.633  11.373
31479SOL    HW296277   0.177   5.503  11.440
31480SOL     OW96278   3.469   2.866   5.072
31480SOL    HW196279   3.382   2.828   5.084
31480SOL    HW296280   3.529   2.796   5.098
31481SOL     OW96281  11.460  14.072   2.575
31481SOL    HW196282  11.428  13.983   2.560
31481SOL    HW296283  11.555  14.066   2.563
31482SOL     OW96284   7.415  14.097   3.111
31482SOL    HW196285   7.360  14.082   3.188
31482SOL    HW296286   7.356  14.137   3.047
31483SOL     OW96287  12.597   4.362   7.788
31483SOL    HW196288  12.602   4.380   7.694
31483SOL    HW296289  12.510   4.392   7.814
31484SOL     OW96290  14.584   6.488  14.320
31484SOL    HW196291  14.639   6.438  14.260
31484SOL    HW296292  14.555   6.563  14.268
31485SOL     OW96293   2.110   3.436   1.446
31485SOL    HW196294   2.157   3.380   1.385
31485SOL    HW296295   2.104   3.384   1.527
31486SOL     OW96296   9.075   1.005   1.672
31486SOL    HW196297   9.066   1.043   1.584
31486SOL    HW296298   9.161   0.963   1.671
31487SOL     OW96299  10.241   0.550  10.891
31487SOL    HW196300  10.326   0.508  10.907
31487SOL    HW296301  10.258   0.644  10.897
31488SOL     OW96302   7.792  13.823  12.267
31488SOL    HW196303   7.801  13.880  12.191
31488SOL    HW296304   7.813  13.735  12.234
31489SOL     OW96305  13.225  11.289   8.586
31489SOL    HW196306  13.280  11.237   8.528
31489SOL    HW296307  13.189  11.226   8.648
31490SOL     OW96308   8.095   3.061   2.549
31490SOL    HW196309   8.161   2.992   2.548
31490SOL    HW296310   8.145   3.142   2.549
31491SOL     OW96311   1.022   1.459   3.728
31491SOL    HW196312   1.083   1.463   3.802
31491SOL    HW296313   1.011   1.550   3.702
31492SOL     OW96314   5.644   4.845   6.364
31492SOL    HW196315   5.660   4.774   6.301
31492SOL    HW296316   5.729   4.886   6.376
31493SOL     OW96317  10.456  13.747   0.407
31493SOL    HW196318  10.519  13.675   0.410
31493SOL    HW296319  10.438  13.759   0.313
31494SOL     OW96320   1.249  10.079   4.140
31494SOL    HW196321   1.269   9.989   4.168
31494SOL    HW296322   1.288  10.086   4.053
31495SOL     OW96323  10.555  11.360   6.427
31495SOL    HW196324  10.620  11.292   6.447
31495SOL    HW296325  10.488  11.315   6.376
31496SOL     OW96326   0.757   2.343  10.973
31496SOL    HW196327   0.787   2.434  10.982
31496SOL    HW296328   0.818   2.304  10.910
31497SOL     OW96329   7.453   3.793   8.725
31497SOL    HW196330   7.530   3.849   8.716
31497SOL    HW296331   7.438   3.759   8.637
31498SOL     OW96332   6.411   7.641   3.752
31498SOL    HW196333   6.468   7.696   3.806
31498SOL    HW296334   6.414   7.681   3.665
31499SOL     OW96335  13.778   7.406  11.711
31499SOL    HW196336  13.709   7.473  11.709
31499SOL    HW296337  13.855   7.453  11.743
31500SOL     OW96338   4.806  11.959   9.240
31500SOL    HW196339   4.860  11.903   9.184
31500SOL    HW296340   4.816  12.046   9.203
31501SOL     OW96341   0.118  11.331   4.179
31501SOL    HW196342   0.083  11.257   4.129
31501SOL    HW296343   0.195  11.359   4.130
31502SOL     OW96344  13.110   1.738   4.693
31502SOL    HW196345  13.126   1.787   4.613
31502SOL    HW296346  13.175   1.772   4.755
31503SOL     OW96347  11.834   3.363   1.178
31503SOL    HW196348  11.823   3.416   1.099
31503SOL    HW296349  11.746   3.335   1.201
31504SOL     OW96350   4.372   5.341  11.658
31504SOL    HW196351   4.378   5.396  11.736
31504SOL    HW296352   4.367   5.252  11.692
31505SOL     OW96353   7.063  13.265   8.705
31505SOL    HW196354   7.119  13.309   8.769
31505SOL    HW296355   6.991  13.228   8.757
31506SOL     OW96356   3.893  10.848  11.063
31506SOL    HW196357   3.885  10.791  11.139
31506SOL    HW296358   3.927  10.931  11.098
31507SOL     OW96359   4.590   9.627   8.313
31507SOL    HW196360   4.514   9.677   8.345
31507SOL    HW296361   4.603   9.560   8.380
31508SOL     OW96362   0.063  13.369   5.545
31508SOL    HW196363   0.002  13.330   5.483
31508SOL    HW296364   0.015  13.369   5.628
31509SOL     OW96365  12.045   1.216  14.526
31509SOL    HW196366  12.002   1.141  14.485
31509SOL    HW296367  12.112   1.244  14.463
31510SOL     OW96368   3.917  14.816   1.219
31510SOL    HW196369   3.845  14.836   1.160
31510SOL    HW296370   3.877  14.809   1.305
31511SOL     OW96371   6.015   2.719   8.096
31511SOL    HW196372   5.940   2.778   8.091
31511SOL    HW296373   6.088   2.770   8.062
31512SOL     OW96374  12.403  12.214   2.173
31512SOL    HW196375  12.463  12.252   2.110
31512SOL    HW296376  12.393  12.123   2.145
31513SOL     OW96377   4.822   0.219   8.851
31513SOL    HW196378   4.816   0.187   8.760
31513SOL    HW296379   4.841   0.312   8.842
31514SOL     OW96380   1.518   3.679   6.319
31514SOL    HW196381   1.500   3.773   6.316
31514SOL    HW296382   1.436   3.637   6.294
31515SOL     OW96383  10.792   6.227   7.658
31515SOL    HW196384  10.864   6.166   7.671
31515SOL    HW296385  10.786   6.275   7.741
31516SOL     OW96386  10.712   4.878   2.151
31516SOL    HW196387  10.630   4.898   2.105
31516SOL    HW296388  10.777   4.932   2.107
31517SOL     OW96389  14.117  10.023   5.105
31517SOL    HW196390  14.064  10.004   5.028
31517SOL    HW296391  14.149  10.112   5.091
31518SOL     OW96392   5.098   4.753  13.397
31518SOL    HW196393   5.007   4.758  13.366
31518SOL    HW296394   5.145   4.709  13.326
31519SOL     OW96395   7.813   7.159  13.244
31519SOL    HW196396   7.756   7.168  13.168
31519SOL    HW296397   7.792   7.073  13.280
31520SOL     OW96398   5.329  10.199  14.006
31520SOL    HW196399   5.411  10.247  14.011
31520SOL    HW296400   5.308  10.176  14.096
31521SOL     OW96401   1.269   2.378  14.217
31521SOL    HW196402   1.268   2.283  14.231
31521SOL    HW296403   1.213   2.413  14.286
31522SOL     OW96404  13.374  10.363   0.763
31522SOL    HW196405  13.287  10.327   0.750
31522SOL    HW296406  13.370  10.451   0.725
31523SOL     OW96407   1.806   5.044   6.059
31523SOL    HW196408   1.852   5.109   6.111
31523SOL    HW296409   1.872   4.978   6.038
31524SOL     OW96410  13.225  14.788  11.231
31524SOL    HW196411  13.202  14.786  11.138
31524SOL    HW296412  13.153  14.743  11.275
31525SOL     OW96413  11.302  13.564  10.378
31525SOL    HW196414  11.300  13.477  10.338
31525SOL    HW296415  11.243  13.556  10.454
31526SOL     OW96416   9.300   5.543   7.000
31526SOL    HW196417   9.362   5.614   6.983
31526SOL    HW296418   9.355   5.470   7.028
31527SOL     OW96419   2.423   5.328   5.219
31527SOL    HW196420   2.389   5.410   5.182
31527SOL    HW296421   2.372   5.315   5.299
31528SOL     OW96422   4.203   4.522   6.720
31528SOL    HW196423   4.233   4.574   6.645
31528SOL    HW296424   4.107   4.531   6.718
31529SOL     OW96425   1.599   2.810  11.476
31529SOL    HW196426   1.580   2.757  11.554
31529SOL    HW296427   1.683   2.852  11.497
31530SOL     OW96428   0.559   2.570  12.504
31530SOL    HW196429   0.570   2.486  12.549
31530SOL    HW296430   0.525   2.629  12.571
31531SOL     OW96431   6.956   9.064  10.125
31531SOL    HW196432   6.957   9.159  10.134
31531SOL    HW296433   6.988   9.047  10.037
31532SOL     OW96434   0.918  10.840   4.102
31532SOL    HW196435   0.988  10.876   4.156
31532SOL    HW296436   0.922  10.889   4.020
31533SOL     OW96437   8.798  11.659   2.168
31533SOL    HW196438   8.746  11.714   2.109
31533SOL    HW296439   8.884  11.701   2.170
31534SOL     OW96440   1.875   9.255   5.482
31534SOL    HW196441   1.958   9.238   5.528
31534SOL    HW296442   1.808   9.224   5.542
31535SOL     OW96443  10.715   0.611   9.794
31535SOL    HW196444  10.644   0.561   9.833
31535SOL    HW296445  10.747   0.668   9.864
31536SOL     OW96446   7.670  14.394   2.095
31536SOL    HW196447   7.742  14.431   2.147
31536SOL    HW296448   7.673  14.442   2.012
31537SOL     OW96449   6.209  14.434   0.720
31537SOL    HW196450   6.203  14.528   0.735
31537SOL    HW296451   6.255  14.425   0.637
31538SOL     OW96452   0.301   8.050   0.496
31538SOL    HW196453   0.375   8.006   0.455
31538SOL    HW296454   0.238   7.980   0.515
31539SOL     OW96455   0.914   2.701   8.791
31539SOL    HW196456   0.884   2.613   8.769
31539SOL    HW296457   0.845   2.759   8.759
31540SOL     OW96458   6.870  12.906   8.641
31540SOL    HW196459   6.886  12.869   8.554
31540SOL    HW296460   6.813  12.981   8.625
31541SOL     OW96461   8.713  13.563   8.846
31541SOL    HW196462   8.791  13.550   8.793
31541SOL    HW296463   8.658  13.487   8.828
31542SOL     OW96464   1.072  10.788  14.273
31542SOL    HW196465   1.167  10.781  14.288
31542SOL    HW296466   1.044  10.697  14.263
31543SOL     OW96467   4.435   7.996   7.238
31543SOL    HW196468   4.475   7.977   7.153
31543SOL    HW296469   4.507   8.031   7.290
31544SOL     OW96470   0.671   2.411   6.173
31544SOL    HW196471   0.744   2.349   6.176
31544SOL    HW296472   0.604   2.368   6.121
31545SOL     OW96473   8.264   7.954   9.664
31545SOL    HW196474   8.322   7.916   9.731
31545SOL    HW296475   8.323   8.006   9.609
31546SOL     OW96476   5.359   0.784   3.826
31546SOL    HW196477   5.389   0.819   3.743
31546SOL    HW296478   5.428   0.723   3.853
31547SOL     OW96479  14.693  12.858   2.416
31547SOL    HW196480  14.605  12.827   2.436
31547SOL    HW296481  14.721  12.805   2.341
31548SOL     OW96482   5.357   5.617  12.192
31548SOL    HW196483   5.302   5.618  12.271
31548SOL    HW296484   5.360   5.709  12.164
31549SOL     OW96485   0.026  12.053   6.280
31549SOL    HW196486  14.859  12.045   6.364
31549SOL    HW296487  14.872  12.134   6.243
31550SOL     OW96488  11.843   3.472   3.396
31550SOL    HW196489  11.777   3.463   3.465
31550SOL    HW296490  11.792   3.483   3.315
31551SOL     OW96491   2.755   3.424   0.601
31551SOL    HW196492   2.815   3.446   0.529
31551SOL    HW296493   2.680   3.482   0.589
31552SOL     OW96494  11.383   8.340  11.327
31552SOL    HW196495  11.312   8.329  11.263
31552SOL    HW296496  11.379   8.260  11.380
31553SOL     OW96497   4.229  14.142   2.277
31553SOL    HW196498   4.203  14.146   2.369
31553SOL    HW296499   4.147  14.129   2.230
31554SOL     OW96500  12.306   1.634   1.324
31554SOL    HW196501  12.350   1.568   1.270
31554SOL    HW296502  12.236   1.668   1.269
31555SOL     OW96503   1.435   4.172  14.159
31555SOL    HW196504   1.400   4.195  14.073
31555SOL    HW296505   1.363   4.189  14.220
31556SOL     OW96506   3.547   2.749  14.143
31556SOL    HW196507   3.485   2.698  14.195
31556SOL    HW296508   3.554   2.833  14.190
31557SOL     OW96509   6.553  12.182   7.919
31557SOL    HW196510   6.596  12.187   7.833
31557SOL    HW296511   6.621  12.209   7.981
31558SOL     OW96512   3.303  10.736  14.006
31558SOL    HW196513   3.393  10.709  13.992
31558SOL    HW296514   3.302  10.768  14.097
31559SOL     OW96515  10.186   9.791  10.703
31559SOL    HW196516  10.280   9.797  10.687
31559SOL    HW296517  10.161   9.877  10.734
31560SOL     OW96518   3.737   7.866   9.644
31560SOL    HW196519   3.690   7.937   9.601
31560SOL    HW296520   3.696   7.786   9.611
31561SOL     OW96521   6.441   0.707   8.131
31561SOL    HW196522   6.393   0.779   8.171
31561SOL    HW296523   6.479   0.744   8.051
31562SOL     OW96524   2.804  13.212   6.417
31562SOL    HW196525   2.874  13.196   6.354
31562SOL    HW296526   2.799  13.308   6.422
31563SOL     OW96527   4.639   3.197   2.393
31563SOL    HW196528   4.551   3.226   2.416
31563SOL    HW296529   4.626   3.116   2.344
31564SOL     OW96530   0.373   5.742   1.482
31564SOL    HW196531   0.395   5.793   1.404
31564SOL    HW296532   0.371   5.807   1.553
31565SOL     OW96533   6.109   0.139   4.857
31565SOL    HW196534   6.037   0.086   4.822
31565SOL    HW296535   6.073   0.228   4.861
31566SOL     OW96536  10.057   4.092   9.100
31566SOL    HW196537  10.012   4.142   9.031
31566SOL    HW296538  10.047   4.145   9.179
31567SOL     OW96539  14.043   5.304  13.397
31567SOL    HW196540  14.092   5.377  13.360
31567SOL    HW296541  14.106   5.260  13.454
31568SOL     OW96542   8.329   2.854  12.807
31568SOL    HW196543   8.343   2.940  12.768
31568SOL    HW296544   8.321   2.872  12.901
31569SOL     OW96545   2.501   0.978   5.310
31569SOL    HW196546   2.534   1.045   5.369
31569SOL    HW296547   2.405   0.986   5.315
31570SOL     OW96548   6.471  11.595   4.028
31570SOL    HW196549   6.566  11.600   4.025
31570SOL    HW296550   6.451  11.504   4.049
31571SOL     OW96551   0.245   3.015  11.415
31571SOL    HW196552   0.289   2.975  11.340
31571SOL    HW296553   0.153   2.991  11.405
31572SOL     OW96554   0.103   6.982   5.439
31572SOL    HW196555   0.100   6.976   5.534
31572SOL    HW296556   0.178   7.038   5.420
31573SOL     OW96557  11.232   3.503   3.347
31573SOL    HW196558  11.222   3.594   3.319
31573SOL    HW296559  11.259   3.509   3.439
31574SOL     OW96560   9.565  11.332   5.565
31574SOL    HW196561   9.562  11.267   5.495
31574SOL    HW296562   9.518  11.292   5.638
31575SOL     OW96563  10.889   1.451   1.433
31575SOL    HW196564  10.819   1.503   1.395
31575SOL    HW296565  10.956   1.447   1.364
31576SOL     OW96566   0.608   9.664   6.322
31576SOL    HW196567   0.604   9.591   6.383
31576SOL    HW296568   0.698   9.662   6.289
31577SOL     OW96569   3.425   3.896   9.129
31577SOL    HW196570   3.490   3.960   9.158
31577SOL    HW296571   3.343   3.927   9.167
31578SOL     OW96572  14.550   7.371  14.240
31578SOL    HW196573  14.468   7.421  14.237
31578SOL    HW296574  14.618   7.438  14.242
31579SOL     OW96575  10.446  12.008   7.942
31579SOL    HW196576  10.353  11.984   7.943
31579SOL    HW296577  10.458  12.059   8.022
31580SOL     OW96578   0.017  14.403   1.672
31580SOL    HW196579   0.087  14.390   1.607
31580SOL    HW296580   0.051  14.471   1.730
31581SOL     OW96581   1.779  13.277   3.429
31581SOL    HW196582   1.686  13.288   3.412
31581SOL    HW296583   1.785  13.203   3.489
31582SOL     OW96584   8.505   4.909   0.934
31582SOL    HW196585   8.436   4.857   0.975
31582SOL    HW296586   8.458   4.968   0.875
31583SOL     OW96587   0.908  12.002   7.488
31583SOL    HW196588   0.892  11.944   7.413
31583SOL    HW296589   0.835  11.986   7.547
31584SOL     OW96590   2.717   8.500  11.338
31584SOL    HW196591   2.631   8.495  11.297
31584SOL    HW296592   2.760   8.418  11.316
31585SOL     OW96593  10.011   9.032   2.718
31585SOL    HW196594   9.980   9.061   2.804
31585SOL    HW296595  10.078   9.096   2.694
31586SOL     OW96596  10.771   9.711   2.513
31586SOL    HW196597  10.718   9.645   2.470
31586SOL    HW296598  10.861   9.678   2.507
31587SOL     OW96599  13.891   3.036   3.963
31587SOL    HW196600  13.818   3.039   4.025
31587SOL    HW296601  13.869   3.102   3.897
31588SOL     OW96602   6.491  10.994  13.449
31588SOL    HW196603   6.583  11.013  13.466
31588SOL    HW296604   6.454  10.978  13.536
31589SOL     OW96605   1.194   7.247   8.631
31589SOL    HW196606   1.244   7.321   8.595
31589SOL    HW296607   1.223   7.171   8.581
31590SOL     OW96608   7.387   7.860  11.739
31590SOL    HW196609   7.358   7.785  11.791
31590SOL    HW296610   7.426   7.822  11.661
31591SOL     OW96611  12.967  13.726   4.017
31591SOL    HW196612  12.956  13.631   4.010
31591SOL    HW296613  12.914  13.762   3.947
31592SOL     OW96614   6.398  10.591   6.102
31592SOL    HW196615   6.422  10.680   6.075
31592SOL    HW296616   6.476  10.539   6.085
31593SOL     OW96617  13.135  14.866   4.220
31593SOL    HW196618  13.045  14.871   4.250
31593SOL    HW296619  13.132   0.012   4.128
31594SOL     OW96620   6.245   5.284   0.512
31594SOL    HW196621   6.300   5.250   0.441
31594SOL    HW296622   6.269   5.376   0.518
31595SOL     OW96623  10.082  12.058   2.092
31595SOL    HW196624  10.054  12.129   2.149
31595SOL    HW296625  10.178  12.057   2.101
31596SOL     OW96626   3.816   3.162   8.752
31596SOL    HW196627   3.814   3.251   8.787
31596SOL    HW296628   3.725   3.132   8.758
31597SOL     OW96629  14.551   8.862   0.503
31597SOL    HW196630  14.611   8.811   0.448
31597SOL    HW296631  14.605   8.894   0.575
31598SOL     OW96632   8.652   3.458   6.676
31598SOL    HW196633   8.625   3.373   6.641
31598SOL    HW296634   8.579   3.516   6.654
31599SOL     OW96635   1.240  11.547  12.582
31599SOL    HW196636   1.258  11.617  12.520
31599SOL    HW296637   1.316  11.489  12.575
31600SOL     OW96638   9.988   3.933  12.352
31600SOL    HW196639  10.054   3.868  12.373
31600SOL    HW296640   9.980   3.985  12.432
31601SOL     OW96641   9.736   4.487   7.508
31601SOL    HW196642   9.820   4.448   7.534
31601SOL    HW296643   9.672   4.419   7.530
31602SOL     OW96644   9.098  14.515   0.651
31602SOL    HW196645   9.125  14.601   0.618
31602SOL    HW296646   9.158  14.454   0.608
31603SOL     OW96647   0.174   4.500   8.099
31603SOL    HW196648   0.139   4.576   8.052
31603SOL    HW296649   0.172   4.429   8.034
31604SOL     OW96650   9.418   0.928   4.755
31604SOL    HW196651   9.423   0.872   4.678
31604SOL    HW296652   9.417   1.017   4.720
31605SOL     OW96653   9.779   8.225   0.342
31605SOL    HW196654   9.772   8.178   0.259
31605SOL    HW296655   9.703   8.197   0.393
31606SOL     OW96656  14.136  11.737   2.402
31606SOL    HW196657  14.080  11.715   2.328
31606SOL    HW296658  14.075  11.749   2.475
31607SOL     OW96659   9.204   7.963   4.424
31607SOL    HW196660   9.185   7.878   4.464
31607SOL    HW296661   9.193   7.947   4.330
31608SOL     OW96662   4.411  14.289   9.272
31608SOL    HW196663   4.331  14.342   9.273
31608SOL    HW296664   4.481  14.351   9.257
31609SOL     OW96665  13.036   8.969   3.548
31609SOL    HW196666  13.108   8.957   3.610
31609SOL    HW296667  12.975   8.899   3.568
31610SOL     OW96668   9.813   6.329   0.832
31610SOL    HW196669   9.816   6.245   0.876
31610SOL    HW296670   9.873   6.385   0.881
31611SOL     OW96671   5.307   5.053   3.747
31611SOL    HW196672   5.375   5.047   3.815
31611SOL    HW296673   5.261   4.969   3.752
31612SOL     OW96674   6.174   3.209   9.929
31612SOL    HW196675   6.153   3.276   9.994
31612SOL    HW296676   6.194   3.131   9.980
31613SOL     OW96677   6.612   4.967   9.596
31613SOL    HW196678   6.625   4.984   9.503
31613SOL    HW296679   6.522   4.938   9.603
31614SOL     OW96680   6.294   3.732   2.170
31614SOL    HW196681   6.374   3.765   2.129
31614SOL    HW296682   6.231   3.804   2.163
31615SOL     OW96683   9.258  10.835  14.281
31615SOL    HW196684   9.211  10.918  14.289
31615SOL    HW296685   9.351  10.859  14.282
31616SOL     OW96686  10.730  11.838   6.697
31616SOL    HW196687  10.724  11.764   6.635
31616SOL    HW296688  10.727  11.797   6.783
31617SOL     OW96689  14.128   8.867   2.030
31617SOL    HW196690  14.120   8.878   2.125
31617SOL    HW296691  14.062   8.802   2.008
31618SOL     OW96692   3.175   5.580   8.803
31618SOL    HW196693   3.236   5.566   8.875
31618SOL    HW296694   3.228   5.620   8.734
31619SOL     OW96695  10.782   6.020   4.012
31619SOL    HW196696  10.794   6.115   4.008
31619SOL    HW296697  10.772   6.000   4.105
31620SOL     OW96698  14.284  13.650   9.639
31620SOL    HW196699  14.376  13.652   9.666
31620SOL    HW296700  14.286  13.671   9.545
31621SOL     OW96701  11.647  13.781   6.842
31621SOL    HW196702  11.665  13.715   6.909
31621SOL    HW296703  11.723  13.839   6.846
31622SOL     OW96704   5.123   0.810   7.459
31622SOL    HW196705   5.172   0.851   7.531
31622SOL    HW296706   5.046   0.773   7.501
31623SOL     OW96707  14.386   6.535   2.561
31623SOL    HW196708  14.359   6.561   2.649
31623SOL    HW296709  14.414   6.617   2.520
31624SOL     OW96710   2.051  14.154   7.620
31624SOL    HW196711   2.094  14.127   7.540
31624SOL    HW296712   2.008  14.237   7.597
31625SOL     OW96713   8.863   1.492  14.676
31625SOL    HW196714   8.793   1.555  14.662
31625SOL    HW296715   8.883   1.498  14.769
31626SOL     OW96716  11.865  14.103   3.523
31626SOL    HW196717  11.895  14.180   3.474
31626SOL    HW296718  11.770  14.102   3.509
31627SOL     OW96719   3.537   4.464  12.451
31627SOL    HW196720   3.520   4.469  12.545
31627SOL    HW296721   3.586   4.544  12.432
31628SOL     OW96722  10.262   8.702   9.421
31628SOL    HW196723  10.185   8.758   9.415
31628SOL    HW296724  10.280   8.675   9.331
31629SOL     OW96725   7.432   8.891   8.673
31629SOL    HW196726   7.386   8.809   8.690
31629SOL    HW296727   7.425   8.903   8.578
31630SOL     OW96728  11.049  13.005   7.668
31630SOL    HW196729  10.959  12.998   7.703
31630SOL    HW296730  11.069  13.099   7.676
31631SOL     OW96731   8.076  12.516   6.164
31631SOL    HW196732   8.007  12.579   6.185
31631SOL    HW296733   8.143  12.531   6.230
31632SOL     OW96734  13.346  10.315  12.041
31632SOL    HW196735  13.399  10.238  12.065
31632SOL    HW296736  13.256  10.288  12.058
31633SOL     OW96737  10.434  12.161   5.459
31633SOL    HW196738  10.430  12.067   5.475
31633SOL    HW296739  10.522  12.175   5.423
31634SOL     OW96740  13.754  11.682  11.433
31634SOL    HW196741  13.712  11.737  11.499
31634SOL    HW296742  13.822  11.635  11.482
31635SOL     OW96743   7.168   5.391   3.499
31635SOL    HW196744   7.125   5.460   3.448
31635SOL    HW296745   7.245   5.369   3.447
31636SOL     OW96746   9.128   8.281   2.677
31636SOL    HW196747   9.162   8.365   2.708
31636SOL    HW296748   9.197   8.219   2.698
31637SOL     OW96749  14.205   9.781  11.445
31637SOL    HW196750  14.292   9.820  11.442
31637SOL    HW296751  14.156   9.827  11.377
31638SOL     OW96752   8.452  10.271  14.605
31638SOL    HW196753   8.478  10.340  14.543
31638SOL    HW296754   8.524  10.208  14.601
31639SOL     OW96755   9.463  11.280   0.206
31639SOL    HW196756   9.397  11.234   0.155
31639SOL    HW296757   9.417  11.306   0.286
31640SOL     OW96758   9.438   0.016  11.509
31640SOL    HW196759   9.404  14.810  11.484
31640SOL    HW296760   9.365   0.076  11.498
31641SOL     OW96761   2.616   1.148   0.501
31641SOL    HW196762   2.703   1.186   0.494
31641SOL    HW296763   2.578   1.186   0.580
31642SOL     OW96764  14.728   4.209   0.771
31642SOL    HW196765  14.661   4.261   0.815
31642SOL    HW296766  14.803   4.209   0.830
31643SOL     OW96767  14.766   8.423  13.462
31643SOL    HW196768  14.734   8.334  13.454
31643SOL    HW296769  14.750   8.462  13.376
31644SOL     OW96770   3.856   3.526   3.712
31644SOL    HW196771   3.791   3.558   3.775
31644SOL    HW296772   3.902   3.604   3.684
31645SOL     OW96773  13.958   1.851  12.655
31645SOL    HW196774  13.990   1.924  12.709
31645SOL    HW296775  13.985   1.875  12.566
31646SOL     OW96776   8.660  12.866  10.159
31646SOL    HW196777   8.607  12.834  10.086
31646SOL    HW296778   8.690  12.787  10.204
31647SOL     OW96779   6.131  10.471   2.193
31647SOL    HW196780   6.120  10.519   2.111
31647SOL    HW296781   6.043  10.470   2.232
31648SOL     OW96782   8.145   9.692   4.385
31648SOL    HW196783   8.124   9.785   4.376
31648SOL    HW296784   8.211   9.675   4.317
31649SOL     OW96785   7.144   3.791   1.059
31649SOL    HW196786   7.216   3.852   1.041
31649SOL    HW296787   7.187   3.709   1.081
31650SOL     OW96788   2.082  11.685   1.542
31650SOL    HW196789   2.006  11.721   1.495
31650SOL    HW296790   2.093  11.598   1.505
31651SOL     OW96791  12.527   5.446   4.397
31651SOL    HW196792  12.452   5.390   4.374
31651SOL    HW296793  12.598   5.384   4.415
31652SOL     OW96794   1.128   5.454   9.332
31652SOL    HW196795   1.075   5.434   9.255
31652SOL    HW296796   1.163   5.369   9.360
31653SOL     OW96797   4.313   2.916  13.097
31653SOL    HW196798   4.350   2.887  13.180
31653SOL    HW296799   4.254   2.845  13.071
31654SOL     OW96800  12.985   5.477   7.720
31654SOL    HW196801  13.027   5.511   7.799
31654SOL    HW296802  12.892   5.499   7.731
31655SOL     OW96803  11.401   0.839   3.235
31655SOL    HW196804  11.451   0.895   3.294
31655SOL    HW296805  11.436   0.751   3.249
31656SOL     OW96806  12.033  11.874   4.013
31656SOL    HW196807  12.059  11.931   4.085
31656SOL    HW296808  12.073  11.789   4.034
31657SOL     OW96809  14.803   6.718   5.483
31657SOL    HW196810  14.876   6.694   5.540
31657SOL    HW296811  14.736   6.652   5.501
31658SOL     OW96812   3.689  14.092   5.672
31658SOL    HW196813   3.753  14.119   5.606
31658SOL    HW296814   3.678  14.170   5.727
31659SOL     OW96815   0.764  11.355   0.836
31659SOL    HW196816   0.730  11.429   0.887
31659SOL    HW296817   0.842  11.327   0.884
31660SOL     OW96818   4.656  12.204   8.388
31660SOL    HW196819   4.630  12.293   8.364
31660SOL    HW296820   4.619  12.191   8.476
31661SOL     OW96821   4.881  11.762   4.671
31661SOL    HW196822   4.881  11.669   4.695
31661SOL    HW296823   4.942  11.803   4.732
31662SOL     OW96824   2.120   7.434   2.332
31662SOL    HW196825   2.105   7.346   2.297
31662SOL    HW296826   2.049   7.447   2.395
31663SOL     OW96827  11.103   6.366   0.272
31663SOL    HW196828  11.173   6.405   0.219
31663SOL    HW296829  11.119   6.272   0.266
31664SOL     OW96830   8.315   6.616   8.442
31664SOL    HW196831   8.235   6.639   8.489
31664SOL    HW296832   8.350   6.700   8.412
31665SOL     OW96833  12.892   7.777   2.748
31665SOL    HW196834  12.975   7.782   2.796
31665SOL    HW296835  12.831   7.737   2.810
31666SOL     OW96836  13.051  13.460   5.904
31666SOL    HW196837  13.145  13.471   5.912
31666SOL    HW296838  13.038  13.365   5.900
31667SOL     OW96839  13.608  11.849  14.069
31667SOL    HW196840  13.601  11.890  14.156
31667SOL    HW296841  13.521  11.861  14.030
31668SOL     OW96842   0.043   9.358   9.497
31668SOL    HW196843   0.095   9.404   9.563
31668SOL    HW296844   0.106   9.333   9.430
31669SOL     OW96845  12.278  13.173   1.224
31669SOL    HW196846  12.339  13.201   1.155
31669SOL    HW296847  12.194  13.165   1.179
31670SOL     OW96848   4.672   5.157   4.589
31670SOL    HW196849   4.723   5.183   4.513
31670SOL    HW296850   4.605   5.099   4.554
31671SOL     OW96851   7.568  14.821  10.173
31671SOL    HW196852   7.487  14.778  10.198
31671SOL    HW296853   7.559   0.031  10.205
31672SOL     OW96854   7.476  14.130   5.654
31672SOL    HW196855   7.387  14.121   5.687
31672SOL    HW296856   7.528  14.070   5.708
31673SOL     OW96857   1.327  11.267  11.762
31673SOL    HW196858   1.290  11.193  11.714
31673SOL    HW296859   1.253  11.325  11.777
31674SOL     OW96860   9.285   4.389   6.701
31674SOL    HW196861   9.343   4.313   6.702
31674SOL    HW296862   9.228   4.378   6.777
31675SOL     OW96863   6.009   0.590   0.232
31675SOL    HW196864   6.103   0.583   0.218
31675SOL    HW296865   5.973   0.606   0.145
31676SOL     OW96866   0.089   0.792  14.748
31676SOL    HW196867   0.109   0.826  14.836
31676SOL    HW296868   0.172   0.755  14.718
31677SOL     OW96869   6.863   9.493   0.404
31677SOL    HW196870   6.811   9.413   0.414
31677SOL    HW296871   6.849   9.518   0.312
31678SOL     OW96872   3.989   9.977   7.338
31678SOL    HW196873   3.899   9.984   7.306
31678SOL    HW296874   4.023   9.898   7.297
31679SOL     OW96875   8.311   9.970  10.458
31679SOL    HW196876   8.243   9.938  10.400
31679SOL    HW296877   8.268  10.039  10.509
31680SOL     OW96878   6.086  11.941   4.288
31680SOL    HW196879   6.042  11.859   4.311
31680SOL    HW296880   6.149  11.915   4.220
31681SOL     OW96881  11.939   4.092   2.581
31681SOL    HW196882  11.939   4.044   2.664
31681SOL    HW296883  11.928   4.184   2.606
31682SOL     OW96884   0.885   3.052   3.250
31682SOL    HW196885   0.960   3.013   3.207
31682SOL    HW296886   0.870   2.997   3.327
31683SOL     OW96887   7.295   1.704  11.083
31683SOL    HW196888   7.224   1.759  11.051
31683SOL    HW296889   7.296   1.629  11.023
31684SOL     OW96890   3.002   3.025  13.111
31684SOL    HW196891   2.924   2.970  13.110
31684SOL    HW296892   3.045   3.004  13.194
31685SOL     OW96893   2.523   2.437   4.005
31685SOL    HW196894   2.546   2.422   3.913
31685SOL    HW296895   2.597   2.487   4.040
31686SOL     OW96896   1.608  10.035  10.005
31686SOL    HW196897   1.538   9.971  10.019
31686SOL    HW296898   1.684   9.998  10.051
31687SOL     OW96899  14.725   5.143  12.756
31687SOL    HW196900  14.756   5.213  12.699
31687SOL    HW296901  14.695   5.074  12.697
31688SOL     OW96902  12.229   2.725  10.854
31688SOL    HW196903  12.151   2.674  10.831
31688SOL    HW296904  12.252   2.771  10.773
31689SOL     OW96905   1.141  12.972   8.823
31689SOL    HW196906   1.056  12.996   8.787
31689SOL    HW296907   1.120  12.918   8.899
31690SOL     OW96908  14.693  13.794   3.520
31690SOL    HW196909  14.712  13.861   3.454
31690SOL    HW296910  14.773  13.743   3.526
31691SOL     OW96911   7.955  12.618  10.449
31691SOL    HW196912   7.940  12.659  10.364
31691SOL    HW296913   8.048  12.596  10.449
31692SOL     OW96914   5.765   6.043   8.755
31692SOL    HW196915   5.836   6.057   8.816
31692SOL    HW296916   5.716   5.969   8.790
31693SOL     OW96917  14.698  14.390  13.970
31693SOL    HW196918  14.709  14.295  13.959
31693SOL    HW296919  14.604  14.404  13.960
31694SOL     OW96920   2.169   0.688   8.404
31694SOL    HW196921   2.218   0.672   8.485
31694SOL    HW296922   2.209   0.629   8.340
31695SOL     OW96923   4.864   5.478  11.330
31695SOL    HW196924   4.808   5.421  11.384
31695SOL    HW296925   4.823   5.564  11.337
31696SOL     OW96926   7.453   1.782   0.393
31696SOL    HW196927   7.533   1.733   0.410
31696SOL    HW296928   7.422   1.748   0.309
31697SOL     OW96929   0.572  10.959  12.559
31697SOL    HW196930   0.525  10.889  12.604
31697SOL    HW296931   0.543  10.953  12.468
31698SOL     OW96932   3.064   5.980   8.328
31698SOL    HW196933   3.072   5.978   8.232
31698SOL    HW296934   3.033   6.069   8.347
31699SOL     OW96935  10.180   5.809   6.491
31699SOL    HW196936  10.164   5.847   6.405
31699SOL    HW296937  10.153   5.876   6.553
31700SOL     OW96938   6.855   1.470  11.166
31700SOL    HW196939   6.766   1.496  11.188
31700SOL    HW296940   6.868   1.388  11.213
31701SOL     OW96941   7.536   0.581   5.514
31701SOL    HW196942   7.539   0.600   5.608
31701SOL    HW296943   7.625   0.600   5.483
31702SOL     OW96944  14.210  12.251   0.289
31702SOL    HW196945  14.273  12.267   0.359
31702SOL    HW296946  14.150  12.325   0.293
31703SOL     OW96947  10.087   3.523  10.434
31703SOL    HW196948  10.178   3.502  10.414
31703SOL    HW296949  10.043   3.519  10.350
31704SOL     OW96950   7.389   5.418  10.071
31704SOL    HW196951   7.441   5.356  10.020
31704SOL    HW296952   7.429   5.503  10.054
31705SOL     OW96953   9.825   4.690   8.094
31705SOL    HW196954   9.785   4.771   8.127
31705SOL    HW296955   9.808   4.692   8.000
31706SOL     OW96956   7.887  13.627   2.287
31706SOL    HW196957   7.940  13.637   2.208
31706SOL    HW296958   7.854  13.537   2.283
31707SOL     OW96959   2.567  11.266   3.490
31707SOL    HW196960   2.526  11.330   3.432
31707SOL    HW296961   2.626  11.317   3.545
31708SOL     OW96962   8.877   7.478   0.953
31708SOL    HW196963   8.969   7.461   0.934
31708SOL    HW296964   8.876   7.504   1.045
31709SOL     OW96965  14.667   8.051  11.068
31709SOL    HW196966  14.702   8.043  10.980
31709SOL    HW296967  14.574   8.030  11.059
31710SOL     OW96968   8.921   4.457   9.049
31710SOL    HW196969   8.942   4.546   9.019
31710SOL    HW296970   8.933   4.403   8.971
31711SOL     OW96971   5.695   4.485   1.536
31711SOL    HW196972   5.608   4.447   1.540
31711SOL    HW296973   5.682   4.571   1.496
31712SOL     OW96974  10.046  11.491   6.799
31712SOL    HW196975   9.957  11.517   6.777
31712SOL    HW296976  10.066  11.539   6.880
31713SOL     OW96977   4.783   8.996   4.578
31713SOL    HW196978   4.729   8.930   4.621
31713SOL    HW296979   4.873   8.971   4.600
31714SOL     OW96980  11.443  10.380   1.153
31714SOL    HW196981  11.388  10.304   1.171
31714SOL    HW296982  11.382  10.453   1.143
31715SOL     OW96983   3.264  14.512  13.343
31715SOL    HW196984   3.176  14.479  13.324
31715SOL    HW296985   3.275  14.587  13.284
31716SOL     OW96986   8.528   4.312   5.303
31716SOL    HW196987   8.577   4.393   5.320
31716SOL    HW296988   8.514   4.312   5.209
31717SOL     OW96989  12.919  13.901  12.562
31717SOL    HW196990  12.889  13.933  12.648
31717SOL    HW296991  12.990  13.960  12.538
31718SOL     OW96992   3.048  13.603   1.432
31718SOL    HW196993   3.067  13.513   1.461
31718SOL    HW296994   3.038  13.596   1.337
31719SOL     OW96995   5.377  13.343   9.229
31719SOL    HW196996   5.287  13.340   9.261
31719SOL    HW296997   5.423  13.277   9.281
31720SOL     OW96998   6.478   5.776   9.671
31720SOL    HW196999   6.463   5.831   9.748
31720SOL    HW297000   6.567   5.743   9.682
31721SOL     OW97001   6.532   6.967   0.251
31721SOL    HW197002   6.592   6.957   0.325
31721SOL    HW297003   6.476   7.041   0.276
31722SOL     OW97004   1.532  12.875   6.929
31722SOL    HW197005   1.553  12.967   6.942
31722SOL    HW297006   1.437  12.872   6.931
31723SOL     OW97007   8.804   7.476   7.375
31723SOL    HW197008   8.780   7.393   7.333
31723SOL    HW297009   8.854   7.450   7.452
31724SOL     OW97010   3.214   4.530  12.176
31724SOL    HW197011   3.258   4.471  12.237
31724SOL    HW297012   3.267   4.609  12.177
31725SOL     OW97013   2.797  12.158   8.078
31725SOL    HW197014   2.796  12.194   7.990
31725SOL    HW297015   2.723  12.200   8.122
31726SOL     OW97016   3.045   6.443   7.827
31726SOL    HW197017   3.029   6.502   7.753
31726SOL    HW297018   3.055   6.357   7.788
31727SOL     OW97019   9.503   7.047   9.366
31727SOL    HW197020   9.474   7.138   9.375
31727SOL    HW297021   9.447   6.999   9.427
31728SOL     OW97022   8.434   1.346   8.748
31728SOL    HW197023   8.391   1.293   8.682
31728SOL    HW297024   8.506   1.388   8.702
31729SOL     OW97025  13.593   4.429   2.670
31729SOL    HW197026  13.639   4.355   2.631
31729SOL    HW297027  13.582   4.404   2.762
31730SOL     OW97028   6.705   6.045  13.403
31730SOL    HW197029   6.624   6.062  13.355
31730SOL    HW297030   6.682   5.977  13.466
31731SOL     OW97031   6.991   7.951  12.553
31731SOL    HW197032   6.896   7.946  12.543
31731SOL    HW297033   7.022   7.975  12.465
31732SOL     OW97034   1.636   6.660   6.249
31732SOL    HW197035   1.642   6.755   6.234
31732SOL    HW297036   1.618   6.623   6.163
31733SOL     OW97037   1.184  11.872  11.303
31733SOL    HW197038   1.224  11.874  11.216
31733SOL    HW297039   1.230  11.940  11.352
31734SOL     OW97040   0.339   1.087   6.825
31734SOL    HW197041   0.288   1.046   6.755
31734SOL    HW297042   0.429   1.082   6.795
31735SOL     OW97043   7.479   2.899   4.597
31735SOL    HW197044   7.431   2.935   4.672
31735SOL    HW297045   7.423   2.917   4.522
31736SOL     OW97046   8.720   6.380   0.924
31736SOL    HW197047   8.705   6.448   0.990
31736SOL    HW297048   8.789   6.416   0.868
31737SOL     OW97049  13.294   9.983  11.078
31737SOL    HW197050  13.371   9.930  11.058
31737SOL    HW297051  13.264   9.950  11.163
31738SOL     OW97052  12.249   9.587  13.988
31738SOL    HW197053  12.229   9.502  14.026
31738SOL    HW297054  12.305   9.568  13.913
31739SOL     OW97055   9.611  11.090   3.132
31739SOL    HW197056   9.537  11.045   3.172
31739SOL    HW297057   9.632  11.037   3.055
31740SOL     OW97058   3.580   4.100   4.707
31740SOL    HW197059   3.530   4.139   4.778
31740SOL    HW297060   3.537   4.131   4.627
31741SOL     OW97061  12.753   0.833   5.639
31741SOL    HW197062  12.728   0.877   5.557
31741SOL    HW297063  12.766   0.904   5.701
31742SOL     OW97064   3.258   2.357   6.516
31742SOL    HW197065   3.259   2.397   6.430
31742SOL    HW297066   3.224   2.425   6.574
31743SOL     OW97067  13.706   6.521   3.701
31743SOL    HW197068  13.714   6.440   3.751
31743SOL    HW297069  13.660   6.495   3.621
31744SOL     OW97070   9.441  10.462   5.302
31744SOL    HW197071   9.513  10.462   5.240
31744SOL    HW297072   9.476  10.419   5.380
31745SOL     OW97073   2.456   8.646   0.414
31745SOL    HW197074   2.381   8.593   0.438
31745SOL    HW297075   2.531   8.601   0.453
31746SOL     OW97076  12.857   1.762   2.835
31746SOL    HW197077  12.799   1.704   2.786
31746SOL    HW297078  12.834   1.850   2.806
31747SOL     OW97079   2.208   9.025   8.845
31747SOL    HW197080   2.289   8.976   8.854
31747SOL    HW297081   2.236   9.113   8.819
31748SOL     OW97082  14.739   6.979   7.118
31748SOL    HW197083  14.652   6.959   7.082
31748SOL    HW297084  14.793   6.996   7.040
31749SOL     OW97085   9.467  11.945  10.164
31749SOL    HW197086   9.389  11.951  10.220
31749SOL    HW297087   9.495  11.854  10.173
31750SOL     OW97088  12.086   4.177   3.218
31750SOL    HW197089  12.046   4.224   3.291
31750SOL    HW297090  12.025   4.104   3.201
31751SOL     OW97091  14.471   1.913   0.584
31751SOL    HW197092  14.505   1.981   0.642
31751SOL    HW297093  14.459   1.837   0.640
31752SOL     OW97094  13.105   2.364   6.387
31752SOL    HW197095  13.104   2.457   6.410
31752SOL    HW297096  13.048   2.322   6.452
31753SOL     OW97097   5.939   1.300   1.740
31753SOL    HW197098   5.961   1.384   1.780
31753SOL    HW297099   5.932   1.239   1.814
31754SOL     OW97100   5.599   0.620   1.206
31754SOL    HW197101   5.521   0.636   1.153
31754SOL    HW297102   5.630   0.534   1.177
31755SOL     OW97103   3.417   0.208   4.131
31755SOL    HW197104   3.468   0.140   4.086
31755SOL    HW297105   3.340   0.162   4.164
31756SOL     OW97106   1.135   7.963   8.346
31756SOL    HW197107   1.190   7.995   8.417
31756SOL    HW297108   1.113   7.873   8.372
31757SOL     OW97109   5.897   9.013   4.684
31757SOL    HW197110   5.981   9.060   4.683
31757SOL    HW297111   5.835   9.075   4.646
31758SOL     OW97112   9.919   0.514   1.888
31758SOL    HW197113   9.949   0.594   1.931
31758SOL    HW297114   9.903   0.453   1.960
31759SOL     OW97115   8.932  14.261  10.595
31759SOL    HW197116   8.851  14.230  10.554
31759SOL    HW297117   8.954  14.193  10.659
31760SOL     OW97118   6.403   9.462  14.444
31760SOL    HW197119   6.374   9.403  14.513
31760SOL    HW297120   6.463   9.523  14.488
31761SOL     OW97121   1.635   2.159   5.793
31761SOL    HW197122   1.610   2.180   5.882
31761SOL    HW297123   1.694   2.229   5.767
31762SOL     OW97124   4.230  13.165   5.471
31762SOL    HW197125   4.293  13.231   5.496
31762SOL    HW297126   4.148  13.192   5.512
31763SOL     OW97127   6.648   0.766   1.110
31763SOL    HW197128   6.655   0.706   1.185
31763SOL    HW297129   6.637   0.709   1.035
31764SOL     OW97130   4.545  14.205   2.726
31764SOL    HW197131   4.594  14.143   2.780
31764SOL    HW297132   4.611  14.259   2.684
31765SOL     OW97133  11.029  10.566  14.474
31765SOL    HW197134  10.999  10.601  14.390
31765SOL    HW297135  11.027  10.471  14.463
31766SOL     OW97136   2.959   0.135  12.484
31766SOL    HW197137   2.993   0.068  12.544
31766SOL    HW297138   2.931   0.206  12.542
31767SOL     OW97139   2.453  10.224   0.624
31767SOL    HW197140   2.454  10.283   0.699
31767SOL    HW297141   2.412  10.275   0.554
31768SOL     OW97142   1.585   4.394  14.166
31768SOL    HW197143   1.527   4.319  14.161
31768SOL    HW297144   1.579   4.423  14.258
31769SOL     OW97145   4.547   4.885   2.107
31769SOL    HW197146   4.544   4.805   2.159
31769SOL    HW297147   4.564   4.955   2.170
31770SOL     OW97148  14.132  12.704   0.455
31770SOL    HW197149  14.184  12.640   0.505
31770SOL    HW297150  14.085  12.754   0.522
31771SOL     OW97151  14.569   8.572  14.353
31771SOL    HW197152  14.648   8.615  14.387
31771SOL    HW297153  14.498   8.605  14.409
31772SOL     OW97154  14.247   6.836   7.810
31772SOL    HW197155  14.305   6.768   7.843
31772SOL    HW297156  14.214   6.879   7.889
31773SOL     OW97157   3.712  10.199  13.745
31773SOL    HW197158   3.718  10.224  13.838
31773SOL    HW297159   3.647  10.259  13.708
31774SOL     OW97160   2.651   4.722   7.847
31774SOL    HW197161   2.641   4.630   7.822
31774SOL    HW297162   2.725   4.723   7.907
31775SOL     OW97163  14.809   6.422   0.714
31775SOL    HW197164  14.817   6.347   0.656
31775SOL    HW297165  14.844   6.391   0.798
31776SOL     OW97166   7.783  12.235   4.736
31776SOL    HW197167   7.865  12.272   4.703
31776SOL    HW297168   7.810  12.162   4.792
31777SOL     OW97169   1.613  12.874   5.826
31777SOL    HW197170   1.691  12.906   5.782
31777SOL    HW297171   1.573  12.813   5.764
31778SOL     OW97172   9.225   5.066   5.606
31778SOL    HW197173   9.311   5.032   5.583
31778SOL    HW297174   9.190   5.002   5.669
31779SOL     OW97175  12.454   2.811   3.759
31779SOL    HW197176  12.516   2.829   3.688
31779SOL    HW297177  12.440   2.896   3.800
31780SOL     OW97178  12.897   4.605   9.922
31780SOL    HW197179  12.826   4.666   9.940
31780SOL    HW297180  12.975   4.660   9.913
31781SOL     OW97181  11.040  12.475   5.479
31781SOL    HW197182  10.995  12.556   5.455
31781SOL    HW297183  11.059  12.485   5.573
31782SOL     OW97184   3.976   5.998  10.205
31782SOL    HW197185   4.072   6.003  10.204
31782SOL    HW297186   3.954   5.972  10.294
31783SOL     OW97187   3.837  10.200  14.047
31783SOL    HW197188   3.815  10.107  14.040
31783SOL    HW297189   3.910  10.203  14.109
31784SOL     OW97190   8.233   9.488   5.119
31784SOL    HW197191   8.194   9.424   5.060
31784SOL    HW297192   8.199   9.572   5.090
31785SOL     OW97193  11.578   3.717   7.439
31785SOL    HW197194  11.491   3.703   7.402
31785SOL    HW297195  11.636   3.668   7.383
31786SOL     OW97196  12.117   0.152  12.822
31786SOL    HW197197  12.061   0.215  12.776
31786SOL    HW297198  12.206   0.174  12.792
31787SOL     OW97199  12.939  14.145  14.394
31787SOL    HW197200  12.979  14.167  14.310
31787SOL    HW297201  12.927  14.051  14.392
31788SOL     OW97202   6.036  11.157  14.449
31788SOL    HW197203   5.966  11.222  14.439
31788SOL    HW297204   6.115  11.209  14.464
31789SOL     OW97205   2.074   4.518   9.596
31789SOL    HW197206   2.136   4.447   9.577
31789SOL    HW297207   2.129   4.593   9.618
31790SOL     OW97208   8.967   9.567   4.914
31790SOL    HW197209   8.921   9.642   4.952
31790SOL    HW297210   9.005   9.601   4.833
31791SOL     OW97211  12.796   4.721   7.089
31791SOL    HW197212  12.875   4.688   7.045
31791SOL    HW297213  12.772   4.651   7.151
31792SOL     OW97214   7.000  11.451   5.688
31792SOL    HW197215   6.998  11.499   5.606
31792SOL    HW297216   6.972  11.514   5.754
31793SOL     OW97217   9.089  13.829   2.366
31793SOL    HW197218   9.135  13.745   2.371
31793SOL    HW297219   9.020  13.823   2.432
31794SOL     OW97220   0.782  10.996   8.919
31794SOL    HW197221   0.825  11.037   8.844
31794SOL    HW297222   0.741  11.069   8.966
31795SOL     OW97223  11.900   6.183   2.044
31795SOL    HW197224  11.987   6.185   2.084
31795SOL    HW297225  11.910   6.234   1.963
31796SOL     OW97226   3.423   5.760   7.856
31796SOL    HW197227   3.354   5.743   7.792
31796SOL    HW297228   3.388   5.829   7.912
31797SOL     OW97229  11.455  12.314  11.410
31797SOL    HW197230  11.362  12.325  11.427
31797SOL    HW297231  11.469  12.352  11.323
31798SOL     OW97232   3.771  10.092  11.678
31798SOL    HW197233   3.678  10.107  11.666
31798SOL    HW297234   3.804  10.070  11.590
31799SOL     OW97235  11.091   5.030   7.216
31799SOL    HW197236  11.067   5.037   7.124
31799SOL    HW297237  11.010   5.046   7.264
31800SOL     OW97238  13.970  12.949  10.061
31800SOL    HW197239  14.031  12.972  10.130
31800SOL    HW297240  13.907  12.891  10.103
31801SOL     OW97241  10.037  10.521   1.595
31801SOL    HW197242  10.031  10.430   1.624
31801SOL    HW297243  10.129  10.532   1.571
31802SOL     OW97244  14.651  11.882   8.369
31802SOL    HW197245  14.585  11.853   8.306
31802SOL    HW297246  14.702  11.947   8.322
31803SOL     OW97247  13.682   9.087   4.236
31803SOL    HW197248  13.761   9.075   4.183
31803SOL    HW297249  13.706   9.155   4.299
31804SOL     OW97250   3.647   7.312   0.879
31804SOL    HW197251   3.648   7.401   0.846
31804SOL    HW297252   3.634   7.257   0.801
31805SOL     OW97253   6.137  14.094   1.743
31805SOL    HW197254   6.156  14.073   1.651
31805SOL    HW297255   6.163  14.016   1.792
31806SOL     OW97256   8.211   9.146  12.450
31806SOL    HW197257   8.128   9.120  12.491
31806SOL    HW297258   8.186   9.204  12.378
31807SOL     OW97259   3.006   8.312  10.421
31807SOL    HW197260   2.972   8.313  10.511
31807SOL    HW297261   2.998   8.220  10.394
31808SOL     OW97262   2.384   2.647   1.561
31808SOL    HW197263   2.455   2.618   1.619
31808SOL    HW297264   2.310   2.662   1.620
31809SOL     OW97265   0.771   7.257  11.355
31809SOL    HW197266   0.827   7.230  11.282
31809SOL    HW297267   0.795   7.198  11.426
31810SOL     OW97268  13.654   4.045   1.151
31810SOL    HW197269  13.648   4.011   1.241
31810SOL    HW297270  13.567   4.080   1.133
31811SOL     OW97271  11.981  13.150   2.369
31811SOL    HW197272  12.007  13.240   2.348
31811SOL    HW297273  12.046  13.120   2.432
31812SOL     OW97274   1.934  10.669   0.820
31812SOL    HW197275   1.866  10.658   0.886
31812SOL    HW297276   1.904  10.742   0.766
31813SOL     OW97277   2.220   9.590   5.689
31813SOL    HW197278   2.153   9.530   5.722
31813SOL    HW297279   2.278   9.604   5.763
31814SOL     OW97280   2.458  13.629  14.676
31814SOL    HW197281   2.541  13.585  14.659
31814SOL    HW297282   2.480  13.722  14.677
31815SOL     OW97283   4.732  10.266  12.141
31815SOL    HW197284   4.706  10.203  12.208
31815SOL    HW297285   4.675  10.248  12.067
31816SOL     OW97286  12.254   5.966   6.894
31816SOL    HW197287  12.301   6.050   6.892
31816SOL    HW297288  12.163   5.990   6.881
31817SOL     OW97289   1.425   7.998   8.702
31817SOL    HW197290   1.462   8.077   8.661
31817SOL    HW297291   1.391   7.947   8.628
31818SOL     OW97292   1.257   9.149  12.689
31818SOL    HW197293   1.247   9.227  12.743
31818SOL    HW297294   1.167   9.124  12.666
31819SOL     OW97295   3.676   2.400  14.642
31819SOL    HW197296   3.746   2.461  14.668
31819SOL    HW297297   3.600   2.457  14.626
31820SOL     OW97298   8.778  11.059  14.541
31820SOL    HW197299   8.737  11.036  14.457
31820SOL    HW297300   8.863  11.095  14.517
31821SOL     OW97301  12.326  14.650   4.976
31821SOL    HW197302  12.322  14.647   5.071
31821SOL    HW297303  12.300  14.740   4.954
31822SOL     OW97304   9.412   9.016   9.314
31822SOL    HW197305   9.350   9.020   9.387
31822SOL    HW297306   9.388   8.936   9.267
31823SOL     OW97307   5.280   1.265   5.844
31823SOL    HW197308   5.282   1.171   5.827
31823SOL    HW297309   5.187   1.287   5.839
31824SOL     OW97310   4.750   2.943   0.994
31824SOL    HW197311   4.815   2.876   1.018
31824SOL    HW297312   4.666   2.904   1.016
31825SOL     OW97313   8.718   1.140  11.934
31825SOL    HW197314   8.771   1.215  11.907
31825SOL    HW297315   8.772   1.094  11.998
31826SOL     OW97316   7.726   9.541   6.166
31826SOL    HW197317   7.790   9.470   6.171
31826SOL    HW297318   7.748   9.598   6.240
31827SOL     OW97319   2.029   2.326   3.377
31827SOL    HW197320   1.985   2.272   3.311
31827SOL    HW297321   2.120   2.332   3.347
31828SOL     OW97322  12.026   2.880   5.098
31828SOL    HW197323  11.948   2.907   5.147
31828SOL    HW297324  12.064   2.962   5.067
31829SOL     OW97325  12.448  12.866   9.962
31829SOL    HW197326  12.431  12.940   9.904
31829SOL    HW297327  12.476  12.796   9.903
31830SOL     OW97328   5.213  11.237  14.394
31830SOL    HW197329   5.223  11.159  14.450
31830SOL    HW297330   5.257  11.307  14.443
31831SOL     OW97331  12.446  13.331   9.880
31831SOL    HW197332  12.384  13.323   9.953
31831SOL    HW297333  12.429  13.254   9.825
31832SOL     OW97334  13.531   3.226   8.211
31832SOL    HW197335  13.605   3.279   8.240
31832SOL    HW297336  13.478   3.286   8.158
31833SOL     OW97337   5.487   6.170  13.989
31833SOL    HW197338   5.569   6.160  13.941
31833SOL    HW297339   5.459   6.080  14.007
31834SOL     OW97340   0.503   4.967   2.786
31834SOL    HW197341   0.518   5.060   2.770
31834SOL    HW297342   0.410   4.954   2.772
31835SOL     OW97343   3.578  11.301   6.528
31835SOL    HW197344   3.584  11.206   6.535
31835SOL    HW297345   3.484  11.319   6.526
31836SOL     OW97346  13.281   2.396   2.235
31836SOL    HW197347  13.327   2.324   2.278
31836SOL    HW297348  13.191   2.390   2.269
31837SOL     OW97349  12.650   1.060   5.084
31837SOL    HW197350  12.732   1.016   5.061
31837SOL    HW297351  12.589   0.988   5.101
31838SOL     OW97352  13.651   9.695   6.672
31838SOL    HW197353  13.677   9.655   6.755
31838SOL    HW297354  13.661   9.625   6.607
31839SOL     OW97355  11.246   7.132  14.827
31839SOL    HW197356  11.204   7.049  14.851
31839SOL    HW297357  11.334   7.127  14.865
31840SOL     OW97358   9.580  10.433   6.000
31840SOL    HW197359   9.511  10.396   5.946
31840SOL    HW297360   9.568  10.528   5.993
31841SOL     OW97361  13.893   7.319  13.214
31841SOL    HW197362  13.981   7.292  13.240
31841SOL    HW297363  13.891   7.308  13.119
31842SOL     OW97364   7.580   5.441   7.285
31842SOL    HW197365   7.608   5.530   7.308
31842SOL    HW297366   7.660   5.399   7.253
31843SOL     OW97367   2.737   4.357  14.322
31843SOL    HW197368   2.703   4.290  14.262
31843SOL    HW297369   2.732   4.439  14.273
31844SOL     OW97370   8.201  10.414   9.573
31844SOL    HW197371   8.107  10.426   9.558
31844SOL    HW297372   8.238  10.502   9.564
31845SOL     OW97373   3.419   4.699  12.897
31845SOL    HW197374   3.501   4.680  12.943
31845SOL    HW297375   3.446   4.714  12.806
31846SOL     OW97376   6.792  11.044   5.819
31846SOL    HW197377   6.768  10.994   5.741
31846SOL    HW297378   6.873  11.089   5.795
31847SOL     OW97379  14.513   5.193  14.292
31847SOL    HW197380  14.590   5.223  14.243
31847SOL    HW297381  14.441   5.201  14.230
31848SOL     OW97382   4.821   4.403   3.323
31848SOL    HW197383   4.784   4.472   3.268
31848SOL    HW297384   4.767   4.406   3.403
31849SOL     OW97385   3.324   5.624  14.576
31849SOL    HW197386   3.264   5.552  14.555
31849SOL    HW297387   3.268   5.693  14.611
31850SOL     OW97388  14.013   4.242  13.934
31850SOL    HW197389  14.054   4.193  13.863
31850SOL    HW297390  14.080   4.304  13.962
31851SOL     OW97391   0.373   1.162   5.363
31851SOL    HW197392   0.443   1.227   5.363
31851SOL    HW297393   0.334   1.168   5.450
31852SOL     OW97394   6.206   1.368  14.783
31852SOL    HW197395   6.152   1.341  14.857
31852SOL    HW297396   6.230   1.286  14.740
31853SOL     OW97397   7.054   6.353   3.507
31853SOL    HW197398   7.009   6.433   3.535
31853SOL    HW297399   7.099   6.323   3.586
31854SOL     OW97400   3.027   5.313  10.088
31854SOL    HW197401   3.057   5.230  10.127
31854SOL    HW297402   3.092   5.377  10.116
31855SOL     OW97403   9.117  14.579   9.897
31855SOL    HW197404   9.042  14.534   9.857
31855SOL    HW297405   9.142  14.523   9.970
31856SOL     OW97406  13.099   1.210  13.815
31856SOL    HW197407  13.133   1.122  13.833
31856SOL    HW297408  13.174   1.256  13.777
31857SOL     OW97409   1.534   6.674   1.399
31857SOL    HW197410   1.491   6.590   1.388
31857SOL    HW297411   1.588   6.664   1.477
31858SOL     OW97412   6.527   8.610   1.372
31858SOL    HW197413   6.616   8.631   1.400
31858SOL    HW297414   6.528   8.515   1.356
31859SOL     OW97415   5.307  12.350  11.851
31859SOL    HW197416   5.383  12.404  11.826
31859SOL    HW297417   5.231  12.403  11.827
31860SOL     OW97418  14.184  14.065  14.182
31860SOL    HW197419  14.243  14.085  14.109
31860SOL    HW297420  14.243  14.034  14.252
31861SOL     OW97421  10.328   5.713   7.477
31861SOL    HW197422  10.417   5.717   7.442
31861SOL    HW297423  10.275   5.761   7.414
31862SOL     OW97424  13.578  12.400  10.423
31862SOL    HW197425  13.618  12.405  10.510
31862SOL    HW297426  13.492  12.362  10.439
31863SOL     OW97427  14.853   3.171   1.855
31863SOL    HW197428   0.012   3.087   1.833
31863SOL    HW297429  14.772   3.175   1.803
31864SOL     OW97430   1.567   2.044   4.166
31864SOL    HW197431   1.494   1.987   4.142
31864SOL    HW297432   1.533   2.098   4.238
31865SOL     OW97433   0.325  10.201   4.597
31865SOL    HW197434   0.399  10.257   4.620
31865SOL    HW297435   0.362  10.132   4.543
31866SOL     OW97436   1.982   9.727   0.033
31866SOL    HW197437   2.074   9.727   0.007
31866SOL    HW297438   1.934   9.702  14.833
31867SOL     OW97439   7.805   8.904   9.970
31867SOL    HW197440   7.839   8.844   9.904
31867SOL    HW297441   7.825   8.863  10.054
31868SOL     OW97442   1.741   4.856  11.493
31868SOL    HW197443   1.823   4.836  11.448
31868SOL    HW297444   1.711   4.773  11.529
31869SOL     OW97445   4.085   6.852   7.041
31869SOL    HW197446   4.178   6.830   7.038
31869SOL    HW297447   4.042   6.780   6.995
31870SOL     OW97448   3.176   6.851   0.167
31870SOL    HW197449   3.222   6.861   0.250
31870SOL    HW297450   3.151   6.758   0.164
31871SOL     OW97451   6.546  14.492   2.346
31871SOL    HW197452   6.617  14.555   2.356
31871SOL    HW297453   6.512  14.481   2.435
31872SOL     OW97454   3.046   3.867   7.476
31872SOL    HW197455   3.008   3.890   7.391
31872SOL    HW297456   2.971   3.854   7.533
31873SOL     OW97457   8.826   4.088   4.600
31873SOL    HW197458   8.846   4.004   4.640
31873SOL    HW297459   8.861   4.153   4.661
31874SOL     OW97460  10.637  11.006   3.739
31874SOL    HW197461  10.607  10.971   3.655
31874SOL    HW297462  10.626  10.933   3.801
31875SOL     OW97463   2.207   1.171  13.595
31875SOL    HW197464   2.147   1.238  13.562
31875SOL    HW297465   2.163   1.136  13.673
31876SOL     OW97466   9.272   4.592  10.688
31876SOL    HW197467   9.329   4.566  10.616
31876SOL    HW297468   9.305   4.543  10.764
31877SOL     OW97469   9.068  12.611   4.612
31877SOL    HW197470   9.061  12.516   4.622
31877SOL    HW297471   9.016  12.647   4.685
31878SOL     OW97472   8.498   1.730  12.142
31878SOL    HW197473   8.437   1.739  12.216
31878SOL    HW297474   8.443   1.696  12.070
31879SOL     OW97475  10.031   6.040   1.687
31879SOL    HW197476  10.093   5.982   1.731
31879SOL    HW297477  10.068   6.054   1.600
31880SOL     OW97478   2.889   4.167   1.425
31880SOL    HW197479   2.908   4.251   1.382
31880SOL    HW297480   2.954   4.162   1.496
31881SOL     OW97481   3.336   2.053   9.933
31881SOL    HW197482   3.306   2.142   9.914
31881SOL    HW297483   3.317   2.004   9.852
31882SOL     OW97484  13.034   7.660   6.406
31882SOL    HW197485  13.076   7.593   6.352
31882SOL    HW297486  12.943   7.631   6.415
31883SOL     OW97487   6.883   3.694  13.612
31883SOL    HW197488   6.835   3.770  13.580
31883SOL    HW297489   6.908   3.716  13.701
31884SOL     OW97490   6.553   3.712   4.536
31884SOL    HW197491   6.473   3.765   4.539
31884SOL    HW297492   6.541   3.656   4.459
31885SOL     OW97493   0.273   7.324  13.048
31885SOL    HW197494   0.240   7.314  12.959
31885SOL    HW297495   0.361   7.286  13.046
31886SOL     OW97496   2.934   9.208   9.950
31886SOL    HW197497   3.004   9.253   9.904
31886SOL    HW297498   2.979   9.138   9.998
31887SOL     OW97499   9.275  14.289   4.236
31887SOL    HW197500   9.201  14.322   4.184
31887SOL    HW297501   9.291  14.357   4.301
31888SOL     OW97502   6.498  11.679   7.991
31888SOL    HW197503   6.581  11.632   7.997
31888SOL    HW297504   6.475  11.674   7.898
31889SOL     OW97505   4.653   2.488  12.487
31889SOL    HW197506   4.658   2.584  12.488
31889SOL    HW297507   4.715   2.460  12.555
31890SOL     OW97508  10.502   3.297   9.420
31890SOL    HW197509  10.532   3.360   9.355
31890SOL    HW297510  10.414   3.273   9.391
31891SOL     OW97511   6.939  14.351   4.681
31891SOL    HW197512   7.013  14.410   4.667
31891SOL    HW297513   6.949  14.283   4.615
31892SOL     OW97514  11.952   1.552   2.003
31892SOL    HW197515  11.860   1.565   2.027
31892SOL    HW297516  11.961   1.457   1.997
31893SOL     OW97517   9.499   5.684  14.850
31893SOL    HW197518   9.487   5.768   0.015
31893SOL    HW297519   9.443   5.623   0.017
31894SOL     OW97520   2.426   8.741   1.990
31894SOL    HW197521   2.456   8.795   1.917
31894SOL    HW297522   2.492   8.754   2.058
31895SOL     OW97523   9.321  14.031   7.555
31895SOL    HW197524   9.264  14.061   7.626
31895SOL    HW297525   9.402  14.006   7.598
31896SOL     OW97526   0.732   8.858  14.547
31896SOL    HW197527   0.730   8.927  14.613
31896SOL    HW297528   0.685   8.785  14.588
31897SOL     OW97529  10.619   1.418   9.044
31897SOL    HW197530  10.561   1.495   9.043
31897SOL    HW297531  10.705   1.454   9.066
31898SOL     OW97532   7.870   0.772   1.273
31898SOL    HW197533   7.883   0.757   1.180
31898SOL    HW297534   7.952   0.811   1.303
31899SOL     OW97535   9.421  13.464   5.463
31899SOL    HW197536   9.478  13.406   5.514
31899SOL    HW297537   9.475  13.492   5.389
31900SOL     OW97538   3.553  12.827  10.412
31900SOL    HW197539   3.472  12.798  10.454
31900SOL    HW297540   3.551  12.922  10.418
31901SOL     OW97541  14.518  10.494   9.140
31901SOL    HW197542  14.476  10.449   9.214
31901SOL    HW297543  14.546  10.424   9.082
31902SOL     OW97544   1.804   2.256   6.792
31902SOL    HW197545   1.775   2.312   6.865
31902SOL    HW297546   1.775   2.301   6.713
31903SOL     OW97547  14.480   7.963   2.756
31903SOL    HW197548  14.548   8.002   2.813
31903SOL    HW297549  14.493   7.869   2.764
31904SOL     OW97550  11.658   1.091   5.876
31904SOL    HW197551  11.632   1.018   5.931
31904SOL    HW297552  11.651   1.058   5.787
31905SOL     OW97553   0.278   7.177   4.260
31905SOL    HW197554   0.219   7.123   4.209
31905SOL    HW297555   0.222   7.220   4.325
31906SOL     OW97556   3.973  13.825   2.483
31906SOL    HW197557   4.061  13.788   2.473
31906SOL    HW297558   3.973  13.863   2.571
31907SOL     OW97559  14.650   2.634   4.619
31907SOL    HW197560  14.606   2.552   4.598
31907SOL    HW297561  14.650   2.683   4.537
31908SOL     OW97562   5.318   8.446   7.725
31908SOL    HW197563   5.321   8.489   7.639
31908SOL    HW297564   5.374   8.500   7.780
31909SOL     OW97565   1.092  12.808   1.564
31909SOL    HW197566   1.175  12.834   1.604
31909SOL    HW297567   1.117  12.777   1.477
31910SOL     OW97568   9.766   7.704   6.362
31910SOL    HW197569   9.840   7.689   6.302
31910SOL    HW297570   9.710   7.627   6.352
31911SOL     OW97571   5.423  11.947  12.493
31911SOL    HW197572   5.375  11.946  12.575
31911SOL    HW297573   5.499  11.892  12.509
31912SOL     OW97574   6.838   3.144  11.167
31912SOL    HW197575   6.792   3.185  11.240
31912SOL    HW297576   6.847   3.213  11.102
31913SOL     OW97577  11.287  12.715   8.829
31913SOL    HW197578  11.266  12.733   8.737
31913SOL    HW297579  11.305  12.621   8.831
31914SOL     OW97580  14.702  14.514   7.062
31914SOL    HW197581  14.612  14.529   7.090
31914SOL    HW297582  14.694  14.454   6.988
31915SOL     OW97583   8.688   1.269  11.289
31915SOL    HW197584   8.601   1.305  11.300
31915SOL    HW297585   8.736   1.335  11.240
31916SOL     OW97586  11.940   7.591   1.946
31916SOL    HW197587  11.885   7.593   2.024
31916SOL    HW297588  11.936   7.501   1.916
31917SOL     OW97589   2.332  14.249  12.798
31917SOL    HW197590   2.241  14.231  12.775
31917SOL    HW297591   2.368  14.293  12.722
31918SOL     OW97592   6.051   1.354   7.944
31918SOL    HW197593   6.032   1.303   7.865
31918SOL    HW297594   6.104   1.427   7.914
31919SOL     OW97595   3.072   8.842   2.527
31919SOL    HW197596   3.109   8.823   2.613
31919SOL    HW297597   3.041   8.932   2.534
31920SOL     OW97598   6.910  10.040   9.184
31920SOL    HW197599   6.816  10.056   9.172
31920SOL    HW297600   6.952  10.105   9.128
31921SOL     OW97601  11.377   7.290   5.491
31921SOL    HW197602  11.401   7.197   5.483
31921SOL    HW297603  11.461   7.335   5.498
31922SOL     OW97604   7.790   8.610  12.880
31922SOL    HW197605   7.801   8.675  12.811
31922SOL    HW297606   7.711   8.562  12.856
31923SOL     OW97607   3.327   6.328   4.068
31923SOL    HW197608   3.325   6.382   3.989
31923SOL    HW297609   3.267   6.371   4.129
31924SOL     OW97610   4.721   9.017   4.255
31924SOL    HW197611   4.764   9.002   4.340
31924SOL    HW297612   4.652   8.951   4.252
31925SOL     OW97613  11.131   2.870   7.099
31925SOL    HW197614  11.199   2.923   7.058
31925SOL    HW297615  11.173   2.830   7.175
31926SOL     OW97616   0.781   9.697   4.112
31926SOL    HW197617   0.795   9.652   4.028
31926SOL    HW297618   0.868   9.727   4.138
31927SOL     OW97619   6.045   2.678   7.338
31927SOL    HW197620   6.117   2.631   7.380
31927SOL    HW297621   6.056   2.769   7.365
31928SOL     OW97622   6.175   6.844   1.902
31928SOL    HW197623   6.234   6.912   1.936
31928SOL    HW297624   6.230   6.791   1.845
31929SOL     OW97625   1.030  10.616   5.172
31929SOL    HW197626   1.025  10.541   5.231
31929SOL    HW297627   0.976  10.683   5.214
31930SOL     OW97628   3.720   2.621  12.382
31930SOL    HW197629   3.702   2.699  12.330
31930SOL    HW297630   3.774   2.566  12.324
31931SOL     OW97631  13.589   5.268   8.717
31931SOL    HW197632  13.611   5.314   8.636
31931SOL    HW297633  13.670   5.270   8.768
31932SOL     OW97634   2.376   9.960   6.363
31932SOL    HW197635   2.432  10.027   6.403
31932SOL    HW297636   2.345   9.908   6.438
31933SOL     OW97637   0.620   1.274  10.520
31933SOL    HW197638   0.610   1.311  10.608
31933SOL    HW297639   0.674   1.338  10.473
31934SOL     OW97640   5.720  10.640  12.404
31934SOL    HW197641   5.755  10.688  12.329
31934SOL    HW297642   5.796  10.601  12.446
31935SOL     OW97643   3.248   4.212  12.590
31935SOL    HW197644   3.292   4.134  12.556
31935SOL    HW297645   3.156   4.198  12.570
31936SOL     OW97646  14.363   0.109  13.034
31936SOL    HW197647  14.308   0.187  13.026
31936SOL    HW297648  14.336   0.053  12.961
31937SOL     OW97649  10.066   2.387  12.952
31937SOL    HW197650  10.112   2.305  12.935
31937SOL    HW297651   9.989   2.362  13.002
31938SOL     OW97652  11.795   2.086  12.269
31938SOL    HW197653  11.875   2.043  12.302
31938SOL    HW297654  11.724   2.043  12.316
31939SOL     OW97655   9.996  14.272   5.013
31939SOL    HW197656  10.026  14.211   5.081
31939SOL    HW297657  10.047  14.352   5.029
31940SOL     OW97658  14.323   9.402   9.902
31940SOL    HW197659  14.288   9.437   9.820
31940SOL    HW297660  14.296   9.466   9.968
31941SOL     OW97661  12.136   7.008   4.809
31941SOL    HW197662  12.171   7.097   4.813
31941SOL    HW297663  12.170   6.966   4.888
31942SOL     OW97664   7.031  12.473  12.790
31942SOL    HW197665   7.044  12.390  12.837
31942SOL    HW297666   7.063  12.455  12.701
31943SOL     OW97667   6.649  11.871   6.518
31943SOL    HW197668   6.625  11.802   6.580
31943SOL    HW297669   6.735  11.902   6.549
31944SOL     OW97670   2.133  11.854  12.839
31944SOL    HW197671   2.200  11.843  12.907
31944SOL    HW297672   2.178  11.830  12.758
31945SOL     OW97673  11.613   6.188   8.258
31945SOL    HW197674  11.593   6.268   8.306
31945SOL    HW297675  11.540   6.129   8.277
31946SOL     OW97676  13.434  13.928   1.851
31946SOL    HW197677  13.424  13.833   1.849
31946SOL    HW297678  13.493  13.948   1.779
31947SOL     OW97679  12.409   0.542   4.231
31947SOL    HW197680  12.380   0.451   4.225
31947SOL    HW297681  12.358   0.588   4.165
31948SOL     OW97682  10.695   9.061  11.134
31948SOL    HW197683  10.696   9.138  11.078
31948SOL    HW297684  10.658   9.091  11.216
31949SOL     OW97685   4.731   8.246   1.288
31949SOL    HW197686   4.731   8.191   1.367
31949SOL    HW297687   4.818   8.285   1.286
31950SOL     OW97688   7.205  13.068  14.091
31950SOL    HW197689   7.285  13.100  14.133
31950SOL    HW297690   7.166  13.009  14.156
31951SOL     OW97691   9.514  13.911  13.887
31951SOL    HW197692   9.588  13.906  13.948
31951SOL    HW297693   9.472  13.825  13.893
31952SOL     OW97694  10.215   5.570  14.162
31952SOL    HW197695  10.203   5.604  14.074
31952SOL    HW297696  10.141   5.606  14.212
31953SOL     OW97697  11.768  13.214   8.194
31953SOL    HW197698  11.684  13.223   8.150
31953SOL    HW297699  11.755  13.254   8.280
31954SOL     OW97700   2.808   7.073  11.018
31954SOL    HW197701   2.768   7.090  10.933
31954SOL    HW297702   2.831   7.160  11.052
31955SOL     OW97703  11.335  14.589   8.326
31955SOL    HW197704  11.346  14.667   8.380
31955SOL    HW297705  11.253  14.550   8.357
31956SOL     OW97706   3.557  10.665   1.449
31956SOL    HW197707   3.506  10.665   1.368
31956SOL    HW297708   3.558  10.757   1.477
31957SOL     OW97709   1.909   3.033  10.614
31957SOL    HW197710   2.005   3.032  10.618
31957SOL    HW297711   1.889   3.082  10.534
31958SOL     OW97712   1.906  10.547   2.116
31958SOL    HW197713   1.817  10.568   2.145
31958SOL    HW297714   1.946  10.632   2.096
31959SOL     OW97715   2.688   3.634  12.207
31959SOL    HW197716   2.665   3.725  12.188
31959SOL    HW297717   2.703   3.594  12.121
31960SOL     OW97718  10.591  10.920   6.914
31960SOL    HW197719  10.662  10.856   6.922
31960SOL    HW297720  10.552  10.902   6.828
31961SOL     OW97721   5.145   4.410  10.366
31961SOL    HW197722   5.080   4.366  10.420
31961SOL    HW297723   5.118   4.502  10.365
31962SOL     OW97724   8.561  13.757   0.974
31962SOL    HW197725   8.579  13.850   0.975
31962SOL    HW297726   8.491  13.746   0.910
31963SOL     OW97727   2.759   2.636  11.543
31963SOL    HW197728   2.737   2.559  11.596
31963SOL    HW297729   2.802   2.600  11.465
31964SOL     OW97730  13.923   4.879   8.160
31964SOL    HW197731  14.002   4.848   8.116
31964SOL    HW297732  13.941   4.867   8.253
31965SOL     OW97733   4.310   1.958  10.603
31965SOL    HW197734   4.346   2.024  10.662
31965SOL    HW297735   4.234   2.001  10.563
31966SOL     OW97736   9.310   1.429   4.296
31966SOL    HW197737   9.392   1.470   4.269
31966SOL    HW297738   9.294   1.362   4.230
31967SOL     OW97739   2.143  11.164   9.225
31967SOL    HW197740   2.214  11.102   9.205
31967SOL    HW297741   2.070  11.135   9.170
31968SOL     OW97742  10.049   9.183  14.192
31968SOL    HW197743   9.962   9.177  14.153
31968SOL    HW297744  10.093   9.254  14.144
31969SOL     OW97745   0.060   9.605  12.080
31969SOL    HW197746   0.111   9.684  12.062
31969SOL    HW297747   0.096   9.571  12.162
31970SOL     OW97748   9.975   1.042   9.547
31970SOL    HW197749  10.063   1.049   9.584
31970SOL    HW297750   9.955   1.130   9.516
31971SOL     OW97751  12.873  13.570   3.437
31971SOL    HW197752  12.820  13.503   3.395
31971SOL    HW297753  12.907  13.622   3.364
31972SOL     OW97754   8.281  13.025  13.388
31972SOL    HW197755   8.240  12.995  13.469
31972SOL    HW297756   8.227  13.100  13.361
31973SOL     OW97757   6.822  10.833   2.155
31973SOL    HW197758   6.810  10.903   2.219
31973SOL    HW297759   6.826  10.878   2.071
31974SOL     OW97760   6.196   3.948   8.000
31974SOL    HW197761   6.287   3.949   7.970
31974SOL    HW297762   6.165   4.038   7.986
31975SOL     OW97763   0.213  12.450   8.017
31975SOL    HW197764   0.186  12.500   7.940
31975SOL    HW297765   0.212  12.513   8.089
31976SOL     OW97766   6.431   0.929  11.949
31976SOL    HW197767   6.435   0.879  12.031
31976SOL    HW297768   6.377   0.875  11.891
31977SOL     OW97769   6.445   9.568   0.958
31977SOL    HW197770   6.528   9.521   0.962
31977SOL    HW297771   6.448   9.615   0.874
31978SOL     OW97772   8.215  11.353  11.481
31978SOL    HW197773   8.170  11.398  11.409
31978SOL    HW297774   8.158  11.366  11.557
31979SOL     OW97775   8.814   9.793   4.484
31979SOL    HW197776   8.755   9.802   4.409
31979SOL    HW297777   8.805   9.876   4.532
31980SOL     OW97778   7.565  12.341   3.291
31980SOL    HW197779   7.561  12.352   3.386
31980SOL    HW297780   7.568  12.246   3.278
31981SOL     OW97781  11.084   1.329   8.643
31981SOL    HW197782  11.130   1.301   8.723
31981SOL    HW297783  10.992   1.331   8.668
31982SOL     OW97784   5.476   0.411   2.707
31982SOL    HW197785   5.438   0.431   2.622
31982SOL    HW297786   5.533   0.336   2.691
31983SOL     OW97787   7.459   1.435   8.267
31983SOL    HW197788   7.424   1.373   8.204
31983SOL    HW297789   7.445   1.393   8.352
31984SOL     OW97790   1.044   8.639   2.568
31984SOL    HW197791   0.957   8.650   2.530
31984SOL    HW297792   1.029   8.643   2.663
31985SOL     OW97793  12.679   3.349   5.162
31985SOL    HW197794  12.592   3.315   5.184
31985SOL    HW297795  12.739   3.288   5.204
31986SOL     OW97796  14.269  14.336   9.644
31986SOL    HW197797  14.339  14.284   9.684
31986SOL    HW297798  14.241  14.395   9.714
31987SOL     OW97799   3.846   2.413   8.815
31987SOL    HW197800   3.784   2.352   8.855
31987SOL    HW297801   3.823   2.498   8.851
31988SOL     OW97802   6.723   7.132   7.879
31988SOL    HW197803   6.685   7.208   7.834
31988SOL    HW297804   6.802   7.165   7.921
31989SOL     OW97805   1.117   4.260  12.779
31989SOL    HW197806   1.079   4.338  12.738
31989SOL    HW297807   1.041   4.211  12.810
31990SOL     OW97808   7.234  11.273   0.085
31990SOL    HW197809   7.194  11.236   0.007
31990SOL    HW297810   7.315  11.313   0.053
31991SOL     OW97811  11.371  13.152   5.042
31991SOL    HW197812  11.415  13.236   5.024
31991SOL    HW297813  11.288  13.158   4.994
31992SOL     OW97814  11.213   5.004  10.010
31992SOL    HW197815  11.296   5.034   9.972
31992SOL    HW297816  11.236   4.922  10.054
31993SOL     OW97817   1.937   9.958   1.681
31993SOL    HW197818   1.948   9.927   1.771
31993SOL    HW297819   1.944  10.053   1.688
31994SOL     OW97820  13.619  12.297   5.038
31994SOL    HW197821  13.688  12.354   5.072
31994SOL    HW297822  13.635  12.293   4.944
31995SOL     OW97823   3.049   0.485  12.768
31995SOL    HW197824   3.013   0.540  12.697
31995SOL    HW297825   2.973   0.462  12.821
31996SOL     OW97826   5.214  13.935   0.550
31996SOL    HW197827   5.269  14.010   0.529
31996SOL    HW297828   5.162  13.921   0.470
31997SOL     OW97829   4.848   7.507  11.165
31997SOL    HW197830   4.907   7.564  11.214
31997SOL    HW297831   4.860   7.534  11.073
31998SOL     OW97832   6.702   1.471  10.010
31998SOL    HW197833   6.615   1.432  10.018
31998SOL    HW297834   6.746   1.447  10.091
31999SOL     OW97835  12.228  13.138  12.888
31999SOL    HW197836  12.242  13.190  12.967
31999SOL    HW297837  12.300  13.075  12.888
32000SOL     OW97838   0.761   5.575   0.411
32000SOL    HW197839   0.811   5.656   0.420
32000SOL    HW297840   0.672   5.599   0.435
32001SOL     OW97841   0.008   1.639   6.656
32001SOL    HW197842   0.044   1.707   6.599
32001SOL    HW297843   0.004   1.561   6.601
32002SOL     OW97844  13.906   5.428   6.460
32002SOL    HW197845  13.932   5.345   6.421
32002SOL    HW297846  13.851   5.470   6.395
32003SOL     OW97847  13.908   4.115   3.887
32003SOL    HW197848  13.992   4.097   3.929
32003SOL    HW297849  13.879   4.030   3.854
32004SOL     OW97850   9.849  12.552   1.549
32004SOL    HW197851   9.855  12.635   1.502
32004SOL    HW297852   9.755  12.533   1.553
32005SOL     OW97853   6.107   3.298   4.199
32005SOL    HW197854   6.086   3.368   4.262
32005SOL    HW297855   6.023   3.277   4.158
32006SOL     OW97856   1.828  10.039   8.161
32006SOL    HW197857   1.843   9.961   8.214
32006SOL    HW297858   1.908  10.047   8.108
32007SOL     OW97859  12.512   0.527   7.996
32007SOL    HW197860  12.547   0.450   8.040
32007SOL    HW297861  12.430   0.497   7.956
32008SOL     OW97862   8.980   4.433   0.562
32008SOL    HW197863   8.924   4.381   0.619
32008SOL    HW297864   8.929   4.512   0.544
32009SOL     OW97865   5.836   7.115   4.603
32009SOL    HW197866   5.837   7.200   4.648
32009SOL    HW297867   5.793   7.056   4.665
32010SOL     OW97868  14.306   4.874  10.871
32010SOL    HW197869  14.233   4.879  10.810
32010SOL    HW297870  14.345   4.787  10.855
32011SOL     OW97871   2.744  12.784   3.183
32011SOL    HW197872   2.796  12.771   3.263
32011SOL    HW297873   2.797  12.842   3.129
32012SOL     OW97874   9.747  10.959  14.120
32012SOL    HW197875   9.804  11.026  14.156
32012SOL    HW297876   9.660  10.980  14.154
32013SOL     OW97877  14.246   2.486   3.709
32013SOL    HW197878  14.288   2.408   3.672
32013SOL    HW297879  14.183   2.514   3.642
32014SOL     OW97880   5.104  11.399   4.213
32014SOL    HW197881   5.034  11.392   4.148
32014SOL    HW297882   5.172  11.339   4.181
32015SOL     OW97883   7.670  11.639  12.395
32015SOL    HW197884   7.698  11.576  12.462
32015SOL    HW297885   7.751  11.683  12.369
32016SOL     OW97886   0.533   5.819   3.273
32016SOL    HW197887   0.497   5.891   3.221
32016SOL    HW297888   0.518   5.741   3.220
32017SOL     OW97889   4.200  13.835  13.938
32017SOL    HW197890   4.222  13.869  13.851
32017SOL    HW297891   4.241  13.749  13.941
32018SOL     OW97892  14.345  13.992  10.956
32018SOL    HW197893  14.387  14.001  11.041
32018SOL    HW297894  14.302  14.076  10.941
32019SOL     OW97895   6.023   1.312  13.820
32019SOL    HW197896   5.986   1.225  13.835
32019SOL    HW297897   6.110   1.309  13.861
32020SOL     OW97898   8.643   4.182   5.682
32020SOL    HW197899   8.685   4.260   5.644
32020SOL    HW297900   8.623   4.127   5.606
32021SOL     OW97901   3.694  14.371   5.707
32021SOL    HW197902   3.662  14.371   5.617
32021SOL    HW297903   3.648  14.443   5.749
32022SOL     OW97904   2.682   9.618   4.901
32022SOL    HW197905   2.753   9.679   4.878
32022SOL    HW297906   2.636   9.604   4.819
32023SOL     OW97907   3.615  10.477   4.166
32023SOL    HW197908   3.686  10.418   4.142
32023SOL    HW297909   3.612  10.541   4.095
32024SOL     OW97910   7.276   4.465  14.745
32024SOL    HW197911   7.344   4.420  14.795
32024SOL    HW297912   7.300   4.452  14.653
32025SOL     OW97913   9.525   1.664   3.643
32025SOL    HW197914   9.537   1.749   3.686
32025SOL    HW297915   9.606   1.650   3.594
32026SOL     OW97916   8.843   0.603   1.133
32026SOL    HW197917   8.801   0.575   1.052
32026SOL    HW297918   8.797   0.556   1.202
32027SOL     OW97919   9.517   4.343  14.032
32027SOL    HW197920   9.599   4.384  14.059
32027SOL    HW297921   9.499   4.380  13.946
32028SOL     OW97922   6.451   6.575   3.154
32028SOL    HW197923   6.375   6.630   3.135
32028SOL    HW297924   6.514   6.635   3.194
32029SOL     OW97925   7.358   7.565   4.727
32029SOL    HW197926   7.417   7.611   4.667
32029SOL    HW297927   7.395   7.580   4.813
32030SOL     OW97928   3.737  12.412   9.442
32030SOL    HW197929   3.707  12.361   9.517
32030SOL    HW297930   3.757  12.346   9.375
32031SOL     OW97931   3.089  10.494   0.952
32031SOL    HW197932   3.112  10.488   1.045
32031SOL    HW297933   3.018  10.557   0.949
32032SOL     OW97934   1.061  14.656  10.931
32032SOL    HW197935   0.977  14.671  10.889
32032SOL    HW297936   1.125  14.699  10.874
32033SOL     OW97937   1.642  14.363   7.616
32033SOL    HW197938   1.557  14.344   7.578
32033SOL    HW297939   1.632  14.343   7.709
32034SOL     OW97940   5.197   9.153   1.644
32034SOL    HW197941   5.183   9.058   1.636
32034SOL    HW297942   5.188   9.186   1.555
32035SOL     OW97943   2.876   0.664   1.800
32035SOL    HW197944   2.781   0.653   1.812
32035SOL    HW297945   2.913   0.653   1.887
32036SOL     OW97946   6.660   3.749   9.312
32036SOL    HW197947   6.566   3.734   9.304
32036SOL    HW297948   6.674   3.833   9.268
32037SOL     OW97949   4.677   3.803   5.682
32037SOL    HW197950   4.675   3.861   5.606
32037SOL    HW297951   4.734   3.848   5.744
32038SOL     OW97952   7.146   3.135  12.980
32038SOL    HW197953   7.099   3.142  12.896
32038SOL    HW297954   7.228   3.091  12.957
32039SOL     OW97955   6.223   0.209  10.106
32039SOL    HW197956   6.129   0.215  10.091
32039SOL    HW297957   6.258   0.171  10.025
32040SOL     OW97958  10.402  14.077  11.879
32040SOL    HW197959  10.383  14.101  11.788
32040SOL    HW297960  10.411  13.982  11.878
32041SOL     OW97961   5.220   4.910   1.360
32041SOL    HW197962   5.151   4.938   1.420
32041SOL    HW297963   5.178   4.910   1.274
32042SOL     OW97964  12.529   2.389   0.921
32042SOL    HW197965  12.515   2.294   0.923
32042SOL    HW297966  12.544   2.413   1.013
32043SOL     OW97967   2.492  13.852   8.816
32043SOL    HW197968   2.493  13.941   8.780
32043SOL    HW297969   2.437  13.802   8.756
32044SOL     OW97970  12.521  11.126   0.601
32044SOL    HW197971  12.433  11.134   0.563
32044SOL    HW297972  12.536  11.209   0.646
32045SOL     OW97973  14.602   7.034   2.082
32045SOL    HW197974  14.520   7.049   2.129
32045SOL    HW297975  14.630   6.948   2.111
32046SOL     OW97976  14.086   7.260   0.883
32046SOL    HW197977  14.110   7.350   0.905
32046SOL    HW297978  14.083   7.259   0.787
32047SOL     OW97979   3.855   5.681   9.997
32047SOL    HW197980   3.762   5.669  10.016
32047SOL    HW297981   3.899   5.609  10.044
32048SOL     OW97982   0.452   4.690  14.701
32048SOL    HW197983   0.369   4.711  14.659
32048SOL    HW297984   0.436   4.702  14.794
32049SOL     OW97985   7.627   8.256  11.930
32049SOL    HW197986   7.569   8.271  12.005
32049SOL    HW297987   7.704   8.309  11.949
32050SOL     OW97988   0.976   8.894  11.477
32050SOL    HW197989   1.032   8.867  11.405
32050SOL    HW297990   1.031   8.886  11.555
32051SOL     OW97991   3.686   2.851   4.515
32051SOL    HW197992   3.630   2.928   4.528
32051SOL    HW297993   3.632   2.790   4.466
32052SOL     OW97994   4.174   5.072  12.567
32052SOL    HW197995   4.119   5.144  12.537
32052SOL    HW297996   4.119   5.026  12.631
32053SOL     OW97997   8.494   7.200   1.849
32053SOL    HW197998   8.475   7.189   1.755
32053SOL    HW297999   8.412   7.177   1.893
32054SOL     OW98000   7.089   3.855   8.212
32054SOL    HW198001   6.999   3.830   8.233
32054SOL    HW298002   7.120   3.787   8.152
32055SOL     OW98003   1.910   0.248   0.679
32055SOL    HW198004   1.890   0.317   0.742
32055SOL    HW298005   1.826   0.208   0.660
32056SOL     OW98006   5.892  14.791  14.369
32056SOL    HW198007   5.909  14.703  14.335
32056SOL    HW298008   5.961  14.845  14.331
32057SOL     OW98009  12.530   5.514   5.560
32057SOL    HW198010  12.521   5.607   5.579
32057SOL    HW298011  12.440   5.482   5.553
32058SOL     OW98012   3.749  13.849  13.844
32058SOL    HW198013   3.823  13.794  13.873
32058SOL    HW298014   3.772  13.937  13.874
32059SOL     OW98015   4.881  12.594   5.261
32059SOL    HW198016   4.975  12.579   5.271
32059SOL    HW298017   4.860  12.659   5.328
32060SOL     OW98018  10.903  12.136   0.371
32060SOL    HW198019  10.849  12.057   0.370
32060SOL    HW298020  10.896  12.171   0.282
32061SOL     OW98021   8.031  10.170   8.888
32061SOL    HW198022   8.051  10.188   8.980
32061SOL    HW298023   8.116  10.158   8.846
32062SOL     OW98024   1.940  12.688   5.704
32062SOL    HW198025   1.847  12.663   5.703
32062SOL    HW298026   1.977  12.641   5.778
32063SOL     OW98027   4.370  14.169   3.202
32063SOL    HW198028   4.282  14.156   3.169
32063SOL    HW298029   4.381  14.101   3.269
32064SOL     OW98030   3.183   6.373   5.120
32064SOL    HW198031   3.170   6.461   5.084
32064SOL    HW298032   3.205   6.319   5.045
32065SOL     OW98033   1.868   4.815   1.916
32065SOL    HW198034   1.910   4.735   1.884
32065SOL    HW298035   1.834   4.792   2.003
32066SOL     OW98036   4.083   5.788   3.380
32066SOL    HW198037   4.121   5.708   3.416
32066SOL    HW298038   3.990   5.783   3.403
32067SOL     OW98039   8.392   1.344   3.439
32067SOL    HW198040   8.454   1.381   3.502
32067SOL    HW298041   8.419   1.253   3.430
32068SOL     OW98042  14.073   8.539   2.413
32068SOL    HW198043  14.007   8.593   2.369
32068SOL    HW298044  14.122   8.601   2.467
32069SOL     OW98045   8.555  12.671   2.763
32069SOL    HW198046   8.519  12.623   2.837
32069SOL    HW298047   8.556  12.762   2.791
32070SOL     OW98048  10.840   6.360   0.537
32070SOL    HW198049  10.879   6.445   0.515
32070SOL    HW298050  10.753   6.363   0.497
32071SOL     OW98051   0.869   4.667  13.975
32071SOL    HW198052   0.803   4.682  14.044
32071SOL    HW298053   0.924   4.745  13.978
32072SOL     OW98054   0.377  10.927  11.418
32072SOL    HW198055   0.364  11.022  11.415
32072SOL    HW298056   0.295  10.890  11.385
32073SOL     OW98057   8.371   5.789   3.232
32073SOL    HW198058   8.382   5.717   3.294
32073SOL    HW298059   8.442   5.849   3.252
32074SOL     OW98060   8.033  13.811   8.267
32074SOL    HW198061   8.035  13.906   8.274
32074SOL    HW298062   8.093  13.792   8.194
32075SOL     OW98063   9.061   0.861   2.497
32075SOL    HW198064   9.138   0.811   2.524
32075SOL    HW298065   9.096   0.942   2.460
32076SOL     OW98066   5.579   7.316   9.702
32076SOL    HW198067   5.507   7.370   9.670
32076SOL    HW298068   5.656   7.350   9.655
32077SOL     OW98069   5.925   9.925   4.052
32077SOL    HW198070   5.856   9.991   4.056
32077SOL    HW298071   5.879   9.842   4.043
32078SOL     OW98072   0.408   4.677   2.078
32078SOL    HW198073   0.439   4.685   1.988
32078SOL    HW298074   0.345   4.748   2.089
32079SOL     OW98075  14.453  12.030  10.988
32079SOL    HW198076  14.388  12.100  10.986
32079SOL    HW298077  14.447  11.989  10.902
32080SOL     OW98078   0.770  12.801   6.264
32080SOL    HW198079   0.842  12.859   6.288
32080SOL    HW298080   0.692  12.857   6.269
32081SOL     OW98081  13.823   5.924   1.280
32081SOL    HW198082  13.895   5.987   1.281
32081SOL    HW298083  13.853   5.854   1.338
32082SOL     OW98084   8.095   9.088   3.912
32082SOL    HW198085   8.029   9.035   3.866
32082SOL    HW298086   8.044   9.152   3.962
32083SOL     OW98087   7.598   3.364   1.257
32083SOL    HW198088   7.638   3.378   1.171
32083SOL    HW298089   7.660   3.308   1.303
32084SOL     OW98090   9.787   0.324  10.296
32084SOL    HW198091   9.792   0.266  10.372
32084SOL    HW298092   9.697   0.358  10.296
32085SOL     OW98093  13.104   4.580  13.518
32085SOL    HW198094  13.040   4.613  13.580
32085SOL    HW298095  13.176   4.643  13.522
32086SOL     OW98096   9.630   8.091  14.776
32086SOL    HW198097   9.561   8.047  14.825
32086SOL    HW298098   9.628   8.050  14.689
32087SOL     OW98099  14.130   0.247  13.471
32087SOL    HW198100  14.207   0.239  13.415
32087SOL    HW298101  14.056   0.255  13.410
32088SOL     OW98102  12.564  14.677   4.355
32088SOL    HW198103  12.495  14.667   4.420
32088SOL    HW298104  12.626  14.607   4.374
32089SOL     OW98105  13.356   8.882  11.538
32089SOL    HW198106  13.426   8.831  11.497
32089SOL    HW298107  13.275   8.835  11.514
32090SOL     OW98108  13.744  10.664  11.643
32090SOL    HW198109  13.797  10.732  11.600
32090SOL    HW298110  13.766  10.584  11.595
32091SOL     OW98111  11.457   5.596   7.502
32091SOL    HW198112  11.390   5.587   7.435
32091SOL    HW298113  11.485   5.507   7.522
32092SOL     OW98114   7.809  11.241  11.795
32092SOL    HW198115   7.745  11.297  11.752
32092SOL    HW298116   7.779  11.235  11.886
32093SOL     OW98117   1.315   3.831  11.161
32093SOL    HW198118   1.245   3.882  11.201
32093SOL    HW298119   1.392   3.847  11.216
32094SOL     OW98120   6.022  10.434   6.822
32094SOL    HW198121   6.080  10.448   6.747
32094SOL    HW298122   6.010  10.339   6.825
32095SOL     OW98123  11.121  10.424   8.762
32095SOL    HW198124  11.185  10.427   8.833
32095SOL    HW298125  11.045  10.471   8.797
32096SOL     OW98126  11.136   0.854   2.276
32096SOL    HW198127  11.227   0.833   2.255
32096SOL    HW298128  11.085   0.789   2.227
32097SOL     OW98129   1.350   7.039   5.610
32097SOL    HW198130   1.408   7.015   5.681
32097SOL    HW298131   1.296   6.962   5.595
32098SOL     OW98132   8.932  11.411   9.476
32098SOL    HW198133   8.924  11.505   9.461
32098SOL    HW298134   8.886  11.396   9.559
32099SOL     OW98135  14.655   0.316   6.803
32099SOL    HW198136  14.569   0.317   6.761
32099SOL    HW298137  14.680   0.223   6.806
32100SOL     OW98138   0.340   4.715   6.033
32100SOL    HW198139   0.259   4.753   6.068
32100SOL    HW298140   0.355   4.637   6.088
32101SOL     OW98141  14.273  13.924  12.280
32101SOL    HW198142  14.205  13.857  12.271
32101SOL    HW298143  14.320  13.899  12.360
32102SOL     OW98144  14.259   4.170  12.606
32102SOL    HW198145  14.206   4.146  12.530
32102SOL    HW298146  14.196   4.202  12.670
32103SOL     OW98147  13.053   6.241   8.567
32103SOL    HW198148  13.079   6.186   8.493
32103SOL    HW298149  13.013   6.180   8.629
32104SOL     OW98150   0.233   8.272  14.297
32104SOL    HW198151   0.316   8.231  14.272
32104SOL    HW298152   0.259   8.346  14.352
32105SOL     OW98153   4.151   9.922  14.052
32105SOL    HW198154   4.235   9.881  14.033
32105SOL    HW298155   4.088   9.871  14.002
32106SOL     OW98156  13.821   2.415  11.769
32106SOL    HW198157  13.828   2.460  11.684
32106SOL    HW298158  13.732   2.379  11.770
32107SOL     OW98159  10.136   6.329   0.340
32107SOL    HW198160  10.146   6.419   0.308
32107SOL    HW298161  10.060   6.332   0.397
32108SOL     OW98162   9.447  13.344  13.059
32108SOL    HW198163   9.353  13.335  13.042
32108SOL    HW298164   9.478  13.401  12.988
32109SOL     OW98165   3.306  14.793  10.481
32109SOL    HW198166   3.262  14.737  10.545
32109SOL    HW298167   3.395  14.803  10.514
32110SOL     OW98168   8.033  14.486  14.062
32110SOL    HW198169   8.032  14.575  14.096
32110SOL    HW298170   8.099  14.488  13.992
32111SOL     OW98171   5.841   5.135   0.770
32111SOL    HW198172   5.929   5.168   0.754
32111SOL    HW298173   5.802   5.200   0.829
32112SOL     OW98174   8.908   3.395  12.418
32112SOL    HW198175   8.856   3.434  12.348
32112SOL    HW298176   8.950   3.320  12.377
32113SOL     OW98177   8.609   4.353   2.068
32113SOL    HW198178   8.587   4.315   2.153
32113SOL    HW298179   8.654   4.282   2.022
32114SOL     OW98180   9.740   6.247   2.845
32114SOL    HW198181   9.760   6.167   2.894
32114SOL    HW298182   9.743   6.221   2.753
32115SOL     OW98183  13.141   3.376  12.790
32115SOL    HW198184  13.236   3.363  12.783
32115SOL    HW298185  13.115   3.410  12.704
32116SOL     OW98186   5.996   3.052  12.444
32116SOL    HW198187   6.081   3.094  12.457
32116SOL    HW298188   5.940   3.120  12.407
32117SOL     OW98189   6.902   4.498  14.244
32117SOL    HW198190   6.820   4.457  14.272
32117SOL    HW298191   6.912   4.573  14.302
32118SOL     OW98192  13.007   3.679  11.681
32118SOL    HW198193  12.955   3.688  11.601
32118SOL    HW298194  13.070   3.751  11.676
32119SOL     OW98195   8.320  11.462   9.879
32119SOL    HW198196   8.225  11.451   9.877
32119SOL    HW298197   8.334  11.554   9.854
32120SOL     OW98198  13.609   3.314   4.355
32120SOL    HW198199  13.556   3.320   4.275
32120SOL    HW298200  13.628   3.405   4.378
32121SOL     OW98201  12.091   3.041  13.723
32121SOL    HW198202  12.065   3.119  13.674
32121SOL    HW298203  12.173   3.014  13.682
32122SOL     OW98204  12.430   1.473   0.924
32122SOL    HW198205  12.372   1.427   0.984
32122SOL    HW298206  12.476   1.403   0.877
32123SOL     OW98207  11.738   9.612   1.723
32123SOL    HW198208  11.760   9.705   1.715
32123SOL    HW298209  11.682   9.594   1.648
32124SOL     OW98210   9.681   8.625   5.509
32124SOL    HW198211   9.625   8.588   5.441
32124SOL    HW298212   9.770   8.606   5.481
32125SOL     OW98213   0.342   4.564   2.779
32125SOL    HW198214   0.324   4.642   2.830
32125SOL    HW298215   0.308   4.583   2.691
32126SOL     OW98216   4.826  12.460   3.990
32126SOL    HW198217   4.785  12.385   3.946
32126SOL    HW298218   4.894  12.489   3.928
32127SOL     OW98219   6.643   2.315  12.512
32127SOL    HW198220   6.588   2.299  12.435
32127SOL    HW298221   6.598   2.269  12.583
32128SOL     OW98222  13.185   5.976   2.867
32128SOL    HW198223  13.125   5.910   2.834
32128SOL    HW298224  13.238   6.001   2.791
32129SOL     OW98225  13.093  13.373   6.316
32129SOL    HW198226  13.107  13.367   6.410
32129SOL    HW298227  13.132  13.457   6.291
32130SOL     OW98228   4.925  11.648   2.768
32130SOL    HW198229   4.926  11.624   2.675
32130SOL    HW298230   4.859  11.717   2.774
32131SOL     OW98231   1.737   6.881  14.545
32131SOL    HW198232   1.691   6.805  14.508
32131SOL    HW298233   1.829   6.865  14.525
32132SOL     OW98234  12.694  10.141  14.619
32132SOL    HW198235  12.698  10.152  14.714
32132SOL    HW298236  12.634  10.068  14.606
32133SOL     OW98237  14.416   0.873   4.936
32133SOL    HW198238  14.378   0.929   4.868
32133SOL    HW298239  14.349   0.806   4.951
32134SOL     OW98240   7.172   3.904   1.932
32134SOL    HW198241   7.237   3.904   2.002
32134SOL    HW298242   7.204   3.838   1.870
32135SOL     OW98243   8.320   4.729   4.713
32135SOL    HW198244   8.362   4.790   4.773
32135SOL    HW298245   8.234   4.712   4.752
32136SOL     OW98246   9.956   8.704   9.369
32136SOL    HW198247   9.925   8.670   9.453
32136SOL    HW298248   9.912   8.650   9.303
32137SOL     OW98249  12.182   6.256  14.708
32137SOL    HW198250  12.099   6.301  14.694
32137SOL    HW298251  12.167   6.201  14.785
32138SOL     OW98252  13.490  11.717   4.889
32138SOL    HW198253  13.557  11.726   4.821
32138SOL    HW298254  13.440  11.640   4.864
32139SOL     OW98255  12.751   6.427   4.044
32139SOL    HW198256  12.677   6.484   4.024
32139SOL    HW298257  12.759   6.370   3.967
32140SOL     OW98258  13.665  11.900   1.381
32140SOL    HW198259  13.638  11.984   1.342
32140SOL    HW298260  13.607  11.835   1.340
32141SOL     OW98261   3.442  12.070   9.671
32141SOL    HW198262   3.407  11.985   9.700
32141SOL    HW298263   3.368  12.130   9.679
32142SOL     OW98264  12.899  13.064   7.446
32142SOL    HW198265  12.939  13.150   7.433
32142SOL    HW298266  12.945  13.026   7.520
32143SOL     OW98267   1.199   3.988   8.301
32143SOL    HW198268   1.143   3.927   8.252
32143SOL    HW298269   1.241   3.933   8.367
32144SOL     OW98270  10.046   9.552   7.848
32144SOL    HW198271  10.042   9.628   7.906
32144SOL    HW298272  10.128   9.563   7.800
32145SOL     OW98273  12.696   1.297  14.161
32145SOL    HW198274  12.647   1.263  14.086
32145SOL    HW298275  12.785   1.263  14.149
32146SOL     OW98276   2.855   5.965   7.194
32146SOL    HW198277   2.806   5.885   7.175
32146SOL    HW298278   2.885   5.955   7.284
32147SOL     OW98279   1.674   6.121   7.644
32147SOL    HW198280   1.698   6.104   7.553
32147SOL    HW298281   1.758   6.132   7.689
32148SOL     OW98282   6.505  14.769  11.645
32148SOL    HW198283   6.505  14.710  11.569
32148SOL    HW298284   6.417  14.762  11.681
32149SOL     OW98285   4.363   2.813   3.549
32149SOL    HW198286   4.319   2.728   3.555
32149SOL    HW298287   4.392   2.819   3.458
32150SOL     OW98288  13.889  13.125   2.583
32150SOL    HW198289  13.984  13.132   2.592
32150SOL    HW298290  13.875  13.051   2.523
32151SOL     OW98291   1.036   3.415   3.450
32151SOL    HW198292   1.027   3.511   3.456
32151SOL    HW298293   1.117   3.402   3.401
32152SOL     OW98294   5.457   9.072   7.020
32152SOL    HW198295   5.478   8.981   7.040
32152SOL    HW298296   5.373   9.068   6.974
32153SOL     OW98297   2.951   9.037   8.575
32153SOL    HW198298   2.940   9.009   8.665
32153SOL    HW298299   2.862   9.049   8.542
32154SOL     OW98300  14.153   6.640   2.021
32154SOL    HW198301  14.162   6.666   2.112
32154SOL    HW298302  14.111   6.715   1.979
32155SOL     OW98303   5.051   3.726   8.656
32155SOL    HW198304   4.967   3.765   8.631
32155SOL    HW298305   5.099   3.717   8.574
32156SOL     OW98306  10.794   6.628  12.066
32156SOL    HW198307  10.799   6.559  12.132
32156SOL    HW298308  10.702   6.653  12.065
32157SOL     OW98309   3.376   2.485  12.968
32157SOL    HW198310   3.288   2.448  12.961
32157SOL    HW298311   3.375   2.534  13.050
32158SOL     OW98312   2.677   8.255   9.559
32158SOL    HW198313   2.610   8.211   9.611
32158SOL    HW298314   2.629   8.293   9.485
32159SOL     OW98315  14.395   1.887  12.616
32159SOL    HW198316  14.482   1.926  12.623
32159SOL    HW298317  14.335   1.959  12.636
32160SOL     OW98318   3.421   8.960   0.509
32160SOL    HW198319   3.472   9.013   0.569
32160SOL    HW298320   3.390   8.886   0.562
32161SOL     OW98321   5.137   4.961   9.587
32161SOL    HW198322   5.196   5.030   9.556
32161SOL    HW298323   5.193   4.884   9.597
32162SOL     OW98324   8.490  13.972   0.653
32162SOL    HW198325   8.464  14.051   0.701
32162SOL    HW298326   8.456  13.984   0.565
32163SOL     OW98327  14.086   3.564   6.851
32163SOL    HW198328  14.150   3.628   6.882
32163SOL    HW298329  14.131   3.480   6.859
32164SOL     OW98330   1.778   8.986   7.674
32164SOL    HW198331   1.733   8.925   7.616
32164SOL    HW298332   1.862   9.003   7.632
32165SOL     OW98333   4.741  13.626   9.173
32165SOL    HW198334   4.810  13.673   9.126
32165SOL    HW298335   4.716  13.684   9.245
32166SOL     OW98336  11.738  10.432   5.412
32166SOL    HW198337  11.736  10.397   5.501
32166SOL    HW298338  11.755  10.526   5.423
32167SOL     OW98339   6.316   4.315  13.941
32167SOL    HW198340   6.309   4.406  13.913
32167SOL    HW298341   6.406   4.290  13.918
32168SOL     OW98342   3.062  11.979   9.733
32168SOL    HW198343   3.090  11.911   9.672
32168SOL    HW298344   3.024  11.930   9.807
32169SOL     OW98345  10.790   6.575  14.606
32169SOL    HW198346  10.792   6.653  14.551
32169SOL    HW298347  10.782   6.502  14.544
32170SOL     OW98348   2.172   0.002  11.994
32170SOL    HW198349   2.125   0.002  11.911
32170SOL    HW298350   2.195   0.094  12.009
32171SOL     OW98351  13.906  10.081  13.354
32171SOL    HW198352  13.872  10.157  13.307
32171SOL    HW298353  13.962  10.118  13.422
32172SOL     OW98354   3.483   8.882  12.953
32172SOL    HW198355   3.428   8.959  12.940
32172SOL    HW298356   3.541   8.906  13.026
32173SOL     OW98357   1.961  13.903   5.905
32173SOL    HW198358   1.994  13.993   5.906
32173SOL    HW298359   2.037  13.849   5.925
32174SOL     OW98360   9.989   1.772   4.867
32174SOL    HW198361   9.961   1.830   4.796
32174SOL    HW298362   9.977   1.684   4.833
32175SOL     OW98363   8.100  13.670   1.534
32175SOL    HW198364   8.097  13.596   1.595
32175SOL    HW298365   8.081  13.747   1.588
32176SOL     OW98366   2.948   9.105   9.604
32176SOL    HW198367   2.918   9.180   9.553
32176SOL    HW298368   2.903   9.113   9.688
32177SOL     OW98369  10.320   8.188   7.871
32177SOL    HW198370  10.253   8.191   7.803
32177SOL    HW298371  10.359   8.101   7.864
32178SOL     OW98372   3.797   7.366   2.691
32178SOL    HW198373   3.807   7.456   2.658
32178SOL    HW298374   3.785   7.313   2.613
32179SOL     OW98375   0.381   8.960   1.427
32179SOL    HW198376   0.471   8.986   1.410
32179SOL    HW298377   0.338   9.040   1.458
32180SOL     OW98378   0.663   5.779   3.508
32180SOL    HW198379   0.749   5.820   3.498
32180SOL    HW298380   0.619   5.797   3.425
32181SOL     OW98381  11.905   1.759   1.600
32181SOL    HW198382  11.830   1.772   1.658
32181SOL    HW298383  11.871   1.780   1.512
32182SOL     OW98384   4.152  14.562   3.106
32182SOL    HW198385   4.228  14.566   3.048
32182SOL    HW298386   4.176  14.616   3.181
32183SOL     OW98387   5.384   2.264   9.963
32183SOL    HW198388   5.366   2.224   9.878
32183SOL    HW298389   5.453   2.328   9.945
32184SOL     OW98390  14.192   1.279   6.923
32184SOL    HW198391  14.113   1.226   6.928
32184SOL    HW298392  14.199   1.302   6.830
32185SOL     OW98393   6.625   3.390  13.680
32185SOL    HW198394   6.658   3.341  13.755
32185SOL    HW298395   6.654   3.340  13.604
32186SOL     OW98396   6.219  14.515  11.194
32186SOL    HW198397   6.222  14.488  11.286
32186SOL    HW298398   6.194  14.607  11.197
32187SOL     OW98399   0.324   3.437  13.218
32187SOL    HW198400   0.374   3.415  13.297
32187SOL    HW298401   0.376   3.401  13.146
32188SOL     OW98402  13.366   4.008  13.303
32188SOL    HW198403  13.362   3.914  13.283
32188SOL    HW298404  13.326   4.050  13.226
32189SOL     OW98405   9.035  12.887   4.965
32189SOL    HW198406   9.045  12.794   4.988
32189SOL    HW298407   9.061  12.934   5.043
32190SOL     OW98408  14.147  12.807  11.217
32190SOL    HW198409  14.117  12.892  11.249
32190SOL    HW298410  14.215  12.828  11.153
32191SOL     OW98411   9.883   9.211  14.461
32191SOL    HW198412   9.958   9.153  14.446
32191SOL    HW298413   9.857   9.240  14.374
32192SOL     OW98414  12.774   9.929   3.014
32192SOL    HW198415  12.845   9.972   3.062
32192SOL    HW298416  12.784   9.836   3.034
32193SOL     OW98417   3.391   5.693   1.047
32193SOL    HW198418   3.399   5.788   1.060
32193SOL    HW298419   3.442   5.655   1.119
32194SOL     OW98420   5.630   0.627   2.843
32194SOL    HW198421   5.601   0.697   2.902
32194SOL    HW298422   5.553   0.571   2.832
32195SOL     OW98423   1.263   2.829   7.459
32195SOL    HW198424   1.255   2.818   7.365
32195SOL    HW298425   1.331   2.895   7.470
32196SOL     OW98426   3.126   2.951  13.350
32196SOL    HW198427   3.214   2.914  13.359
32196SOL    HW298428   3.116   3.007  13.428
32197SOL     OW98429  13.490   8.364   0.110
32197SOL    HW198430  13.549   8.376   0.036
32197SOL    HW298431  13.417   8.313   0.075
32198SOL     OW98432   5.016   8.481   8.988
32198SOL    HW198433   5.049   8.506   8.902
32198SOL    HW298434   5.078   8.520   9.050
32199SOL     OW98435  14.453   9.832  11.026
32199SOL    HW198436  14.534   9.794  10.989
32199SOL    HW298437  14.443   9.915  10.981
32200SOL     OW98438  13.785   5.543   8.933
32200SOL    HW198439  13.830   5.461   8.955
32200SOL    HW298440  13.836   5.611   8.976
32201SOL     OW98441  11.517   6.865   3.676
32201SOL    HW198442  11.564   6.858   3.593
32201SOL    HW298443  11.457   6.939   3.663
32202SOL     OW98444  10.165  11.087   0.475
32202SOL    HW198445  10.112  11.076   0.397
32202SOL    HW298446  10.138  11.171   0.512
32203SOL     OW98447   8.085  10.643   5.322
32203SOL    HW198448   8.124  10.646   5.235
32203SOL    HW298449   8.011  10.583   5.313
32204SOL     OW98450  14.646   4.287   2.205
32204SOL    HW198451  14.654   4.308   2.298
32204SOL    HW298452  14.621   4.195   2.203
32205SOL     OW98453  11.579   7.606   0.019
32205SOL    HW198454  11.601   7.651  14.817
32205SOL    HW298455  11.499   7.650   0.050
32206SOL     OW98456   3.273   0.207   2.566
32206SOL    HW198457   3.249   0.286   2.613
32206SOL    HW298458   3.367   0.198   2.580
32207SOL     OW98459   0.179   2.496   0.990
32207SOL    HW198460   0.197   2.455   0.905
32207SOL    HW298461   0.099   2.547   0.977
32208SOL     OW98462   0.462   7.796   3.699
32208SOL    HW198463   0.461   7.766   3.608
32208SOL    HW298464   0.555   7.812   3.718
32209SOL     OW98465   2.099  11.539   8.387
32209SOL    HW198466   2.089  11.592   8.309
32209SOL    HW298467   2.119  11.601   8.457
32210SOL     OW98468   9.133   4.645   5.183
32210SOL    HW198469   9.103   4.609   5.266
32210SOL    HW298470   9.123   4.574   5.120
32211SOL     OW98471   5.750  11.782  13.307
32211SOL    HW198472   5.760  11.758  13.216
32211SOL    HW298473   5.829  11.750  13.350
32212SOL     OW98474   5.242   0.554   7.196
32212SOL    HW198475   5.206   0.466   7.206
32212SOL    HW298476   5.329   0.541   7.158
32213SOL     OW98477   7.961   8.672   1.032
32213SOL    HW198478   7.990   8.763   1.033
32213SOL    HW298479   8.016   8.629   0.967
32214SOL     OW98480   0.726  12.819   8.833
32214SOL    HW198481   0.634  12.796   8.825
32214SOL    HW298482   0.762  12.806   8.745
32215SOL     OW98483   3.725   8.378   7.803
32215SOL    HW198484   3.782   8.304   7.826
32215SOL    HW298485   3.716   8.373   7.708
32216SOL     OW98486   1.261  12.816   2.024
32216SOL    HW198487   1.302  12.733   1.999
32216SOL    HW298488   1.197  12.833   1.955
32217SOL     OW98489   3.909  10.402   2.901
32217SOL    HW198490   3.988  10.371   2.857
32217SOL    HW298491   3.900  10.493   2.872
32218SOL     OW98492  12.028   5.037   3.137
32218SOL    HW198493  11.982   4.984   3.072
32218SOL    HW298494  12.121   5.031   3.113
32219SOL     OW98495   4.338   2.782   0.211
32219SOL    HW198496   4.248   2.799   0.236
32219SOL    HW298497   4.378   2.869   0.204
32220SOL     OW98498   1.546   9.885   2.945
32220SOL    HW198499   1.629   9.852   2.912
32220SOL    HW298500   1.481   9.821   2.917
32221SOL     OW98501   5.718   0.152   2.995
32221SOL    HW198502   5.732   0.082   3.059
32221SOL    HW298503   5.793   0.210   3.006
32222SOL     OW98504  10.593   3.536   6.376
32222SOL    HW198505  10.500   3.515   6.365
32222SOL    HW298506  10.638   3.477   6.316
32223SOL     OW98507  12.246  14.051   4.800
32223SOL    HW198508  12.291  13.988   4.857
32223SOL    HW298509  12.218  14.121   4.859
32224SOL     OW98510   7.543  13.795   9.966
32224SOL    HW198511   7.477  13.820   9.901
32224SOL    HW298512   7.543  13.700   9.965
32225SOL     OW98513   2.134   9.106   4.330
32225SOL    HW198514   2.153   9.200   4.327
32225SOL    HW298515   2.048   9.100   4.372
32226SOL     OW98516   3.426   1.737  14.219
32226SOL    HW198517   3.500   1.779  14.262
32226SOL    HW298518   3.420   1.651  14.261
32227SOL     OW98519   4.261   8.693   9.728
32227SOL    HW198520   4.229   8.768   9.777
32227SOL    HW298521   4.351   8.681   9.758
32228SOL     OW98522   9.781   1.215   2.419
32228SOL    HW198523   9.857   1.207   2.362
32228SOL    HW298524   9.814   1.193   2.506
32229SOL     OW98525   4.921   6.520   8.516
32229SOL    HW198526   4.833   6.538   8.485
32229SOL    HW298527   4.972   6.506   8.435
32230SOL     OW98528   7.556  11.681  14.305
32230SOL    HW198529   7.624  11.618  14.282
32230SOL    HW298530   7.534  11.661  14.396
32231SOL     OW98531   2.019   5.181   5.591
32231SOL    HW198532   2.033   5.089   5.568
32231SOL    HW298533   2.053   5.190   5.679
32232SOL     OW98534   6.478  10.425  11.773
32232SOL    HW198535   6.558  10.465  11.806
32232SOL    HW298536   6.497  10.405  11.681
32233SOL     OW98537  10.947   8.791  11.280
32233SOL    HW198538  10.925   8.766  11.369
32233SOL    HW298539  11.001   8.870  11.290
32234SOL     OW98540   1.688  10.462   4.744
32234SOL    HW198541   1.662  10.369   4.750
32234SOL    HW298542   1.783  10.461   4.751
32235SOL     OW98543   8.847   2.620  14.156
32235SOL    HW198544   8.865   2.602  14.248
32235SOL    HW298545   8.752   2.616  14.149
32236SOL     OW98546   7.909   7.477   2.465
32236SOL    HW198547   7.884   7.390   2.435
32236SOL    HW298548   7.877   7.481   2.556
32237SOL     OW98549   5.158  13.864   5.057
32237SOL    HW198550   5.063  13.872   5.051
32237SOL    HW298551   5.191  13.911   4.980
32238SOL     OW98552   6.651   9.166   1.313
32238SOL    HW198553   6.638   9.095   1.376
32238SOL    HW298554   6.733   9.207   1.340
32239SOL     OW98555  11.103  12.294  13.102
32239SOL    HW198556  11.163  12.262  13.035
32239SOL    HW298557  11.036  12.226  13.110
32240SOL     OW98558   8.753  13.877   5.575
32240SOL    HW198559   8.736  13.925   5.494
32240SOL    HW298560   8.722  13.788   5.557
32241SOL     OW98561  11.889   3.512   1.540
32241SOL    HW198562  11.882   3.419   1.561
32241SOL    HW298563  11.820   3.554   1.592
32242SOL     OW98564  13.585  13.658   0.416
32242SOL    HW198565  13.490  13.671   0.419
32242SOL    HW298566  13.619  13.719   0.481
32243SOL     OW98567   5.931   6.783  12.826
32243SOL    HW198568   5.953   6.711  12.884
32243SOL    HW298569   6.015   6.820  12.800
32244SOL     OW98570   9.185   5.761   6.846
32244SOL    HW198571   9.209   5.744   6.755
32244SOL    HW298572   9.202   5.678   6.891
32245SOL     OW98573   0.930   2.824   1.349
32245SOL    HW198574   0.917   2.862   1.262
32245SOL    HW298575   0.885   2.740   1.345
32246SOL     OW98576  13.545   6.867   8.054
32246SOL    HW198577  13.472   6.843   8.112
32246SOL    HW298578  13.511   6.939   8.001
32247SOL     OW98579   0.171   1.756  11.401
32247SOL    HW198580   0.228   1.805  11.460
32247SOL    HW298581   0.101   1.722  11.457
32248SOL     OW98582   8.064  12.146   9.051
32248SOL    HW198583   8.112  12.202   8.990
32248SOL    HW298584   8.029  12.075   8.997
32249SOL     OW98585   4.512  11.671   5.404
32249SOL    HW198586   4.471  11.594   5.365
32249SOL    HW298587   4.477  11.675   5.493
32250SOL     OW98588   4.898  10.129  11.495
32250SOL    HW198589   4.893  10.119  11.400
32250SOL    HW298590   4.968  10.070  11.522
32251SOL     OW98591  10.725   0.936   9.393
32251SOL    HW198592  10.664   0.936   9.466
32251SOL    HW298593  10.761   0.847   9.393
32252SOL     OW98594  14.186   9.096  11.484
32252SOL    HW198595  14.107   9.136  11.520
32252SOL    HW298596  14.252   9.164  11.488
32253SOL     OW98597   9.988  14.849   9.832
32253SOL    HW198598   9.939  14.835   9.751
32253SOL    HW298599   9.940  14.797   9.897
32254SOL     OW98600   9.707  14.369  13.144
32254SOL    HW198601   9.683  14.283  13.177
32254SOL    HW298602   9.694  14.363  13.049
32255SOL     OW98603   3.723   7.000   4.249
32255SOL    HW198604   3.812   7.033   4.250
32255SOL    HW298605   3.690   7.017   4.338
32256SOL     OW98606   1.124   4.122  11.816
32256SOL    HW198607   1.111   4.176  11.894
32256SOL    HW298608   1.219   4.122  11.803
32257SOL     OW98609   0.130   2.373   4.431
32257SOL    HW198610   0.144   2.448   4.373
32257SOL    HW298611   0.038   2.349   4.417
32258SOL     OW98612  14.770   1.684  10.250
32258SOL    HW198613  14.700   1.619  10.243
32258SOL    HW298614  14.826   1.651  10.320
32259SOL     OW98615  10.487   2.172  11.811
32259SOL    HW198616  10.551   2.238  11.839
32259SOL    HW298617  10.507   2.157  11.719
32260SOL     OW98618   1.729  11.273   9.174
32260SOL    HW198619   1.657  11.213   9.158
32260SOL    HW298620   1.808  11.222   9.154
32261SOL     OW98621   3.380   7.784   7.196
32261SOL    HW198622   3.453   7.755   7.250
32261SOL    HW298623   3.318   7.711   7.198
32262SOL     OW98624  11.273   5.211   8.186
32262SOL    HW198625  11.205   5.232   8.121
32262SOL    HW298626  11.314   5.296   8.204
32263SOL     OW98627   0.294  12.684   4.661
32263SOL    HW198628   0.236  12.611   4.639
32263SOL    HW298629   0.330  12.661   4.747
32264SOL     OW98630   9.799   6.264  10.298
32264SOL    HW198631   9.831   6.308  10.219
32264SOL    HW298632   9.842   6.178  10.297
32265SOL     OW98633  11.286  13.881   3.795
32265SOL    HW198634  11.256  13.807   3.848
32265SOL    HW298635  11.212  13.899   3.736
32266SOL     OW98636   0.336   8.307   4.668
32266SOL    HW198637   0.243   8.296   4.647
32266SOL    HW298638   0.342   8.286   4.762
32267SOL     OW98639   8.615   2.779   6.052
32267SOL    HW198640   8.586   2.791   6.143
32267SOL    HW298641   8.536   2.751   6.005
32268SOL     OW98642   9.187  13.176   6.561
32268SOL    HW198643   9.179  13.272   6.565
32268SOL    HW298644   9.184  13.155   6.468
32269SOL     OW98645  13.177   1.367   4.469
32269SOL    HW198646  13.096   1.411   4.493
32269SOL    HW298647  13.173   1.359   4.374
32270SOL     OW98648  11.090   7.721  14.126
32270SOL    HW198649  11.140   7.696  14.205
32270SOL    HW298650  11.150   7.777  14.077
32271SOL     OW98651  13.874   6.408  10.405
32271SOL    HW198652  13.854   6.453  10.323
32271SOL    HW298653  13.932   6.337  10.380
32272SOL     OW98654   2.242   2.134   0.806
32272SOL    HW198655   2.235   2.167   0.717
32272SOL    HW298656   2.305   2.062   0.800
32273SOL     OW98657   2.296  12.142   2.364
32273SOL    HW198658   2.237  12.068   2.347
32273SOL    HW298659   2.308  12.183   2.279
32274SOL     OW98660   6.141   0.040  13.327
32274SOL    HW198661   6.173   0.077  13.245
32274SOL    HW298662   6.214   0.047  13.388
32275SOL     OW98663   4.402   4.678  12.237
32275SOL    HW198664   4.366   4.706  12.322
32275SOL    HW298665   4.326   4.679  12.178
32276SOL     OW98666  10.039   6.514   0.659
32276SOL    HW198667  10.022   6.483   0.748
32276SOL    HW298668  10.083   6.598   0.670
32277SOL     OW98669  13.985   9.617   7.598
32277SOL    HW198670  13.896   9.595   7.625
32277SOL    HW298671  14.034   9.627   7.679
32278SOL     OW98672  14.114  12.437  11.060
32278SOL    HW198673  14.028  12.455  11.096
32278SOL    HW298674  14.117  12.486  10.978
32279SOL     OW98675   4.895   0.496  13.415
32279SOL    HW198676   4.923   0.529  13.501
32279SOL    HW298677   4.824   0.435  13.434
32280SOL     OW98678  13.150  13.624   8.850
32280SOL    HW198679  13.103  13.705   8.868
32280SOL    HW298680  13.233  13.633   8.896
32281SOL     OW98681   8.015   0.032   1.728
32281SOL    HW198682   8.110   0.043   1.715
32281SOL    HW298683   7.996   0.085   1.805
32282SOL     OW98684  11.571   1.672   0.442
32282SOL    HW198685  11.477   1.692   0.450
32282SOL    HW298686  11.611   1.757   0.422
32283SOL     OW98687  14.648  12.284  11.395
32283SOL    HW198688  14.682  12.211  11.446
32283SOL    HW298689  14.561  12.301  11.432
32284SOL     OW98690   7.580   5.954  10.784
32284SOL    HW198691   7.607   5.978  10.695
32284SOL    HW298692   7.484   5.950  10.779
32285SOL     OW98693   5.173   4.552   0.890
32285SOL    HW198694   5.160   4.642   0.859
32285SOL    HW298695   5.147   4.555   0.982
32286SOL     OW98696   3.120   9.165   4.976
32286SOL    HW198697   3.168   9.245   4.953
32286SOL    HW298698   3.032   9.195   4.997
32287SOL     OW98699   1.756   2.109   5.099
32287SOL    HW198700   1.835   2.144   5.057
32287SOL    HW298701   1.714   2.055   5.032
32288SOL     OW98702   0.253   4.549  10.956
32288SOL    HW198703   0.314   4.583  11.021
32288SOL    HW298704   0.303   4.547  10.874
32289SOL     OW98705  14.349   7.251  10.234
32289SOL    HW198706  14.429   7.215  10.196
32289SOL    HW298707  14.278   7.199  10.195
32290SOL     OW98708  12.139   5.932   2.875
32290SOL    HW198709  12.165   6.022   2.895
32290SOL    HW298710  12.098   5.938   2.789
32291SOL     OW98711   1.326   5.349   5.728
32291SOL    HW198712   1.317   5.268   5.678
32291SOL    HW298713   1.240   5.391   5.720
32292SOL     OW98714   7.845   3.249  11.287
32292SOL    HW198715   7.793   3.303  11.346
32292SOL    HW298716   7.856   3.303  11.209
32293SOL     OW98717   1.935   7.155   1.254
32293SOL    HW198718   1.989   7.199   1.188
32293SOL    HW298719   1.874   7.102   1.204
32294SOL     OW98720   4.872   0.628  13.034
32294SOL    HW198721   4.917   0.571  12.971
32294SOL    HW298722   4.936   0.640  13.104
32295SOL     OW98723  10.140   5.474  10.586
32295SOL    HW198724  10.130   5.442  10.496
32295SOL    HW298725  10.194   5.407  10.629
32296SOL     OW98726   7.305   2.607   2.344
32296SOL    HW198727   7.294   2.541   2.275
32296SOL    HW298728   7.226   2.599   2.398
32297SOL     OW98729   1.742   3.594  11.091
32297SOL    HW198730   1.709   3.515  11.048
32297SOL    HW298731   1.770   3.565  11.177
32298SOL     OW98732   1.679   0.530  13.241
32298SOL    HW198733   1.624   0.469  13.191
32298SOL    HW298734   1.680   0.609  13.188
32299SOL     OW98735   4.776  13.797   8.895
32299SOL    HW198736   4.854  13.780   8.842
32299SOL    HW298737   4.810  13.838   8.974
32300SOL     OW98738  10.183   3.711   7.723
32300SOL    HW198739  10.146   3.795   7.752
32300SOL    HW298740  10.135   3.691   7.643
32301SOL     OW98741   1.643   0.510  10.926
32301SOL    HW198742   1.617   0.509  11.018
32301SOL    HW298743   1.587   0.577  10.886
32302SOL     OW98744   1.235   6.633  14.242
32302SOL    HW198745   1.314   6.601  14.284
32302SOL    HW298746   1.262   6.715  14.199
32303SOL     OW98747   7.467   5.571   2.233
32303SOL    HW198748   7.422   5.654   2.214
32303SOL    HW298749   7.400   5.517   2.275
32304SOL     OW98750  10.862  10.488   6.569
32304SOL    HW198751  10.904  10.543   6.635
32304SOL    HW298752  10.806  10.429   6.619
32305SOL     OW98753   7.237   7.955   5.727
32305SOL    HW198754   7.241   8.018   5.799
32305SOL    HW298755   7.286   7.996   5.656
32306SOL     OW98756   9.382   3.441  10.024
32306SOL    HW198757   9.396   3.387  10.102
32306SOL    HW298758   9.371   3.378   9.953
32307SOL     OW98759  13.330   2.976   4.092
32307SOL    HW198760  13.271   2.914   4.048
32307SOL    HW298761  13.377   3.018   4.020
32308SOL     OW98762  11.118   6.511   0.674
32308SOL    HW198763  11.203   6.470   0.689
32308SOL    HW298764  11.066   6.488   0.750
32309SOL     OW98765  11.164   9.963   8.251
32309SOL    HW198766  11.228   9.894   8.269
32309SOL    HW298767  11.079   9.920   8.265
32310SOL     OW98768   4.816   0.026   7.010
32310SOL    HW198769   4.766  14.834   7.049
32310SOL    HW298770   4.908   0.003   7.025
32311SOL     OW98771  13.720   2.671   6.399
32311SOL    HW198772  13.678   2.663   6.313
32311SOL    HW298773  13.784   2.601   6.401
32312SOL     OW98774   5.372   5.404  11.803
32312SOL    HW198775   5.309   5.470  11.830
32312SOL    HW298776   5.355   5.329  11.860
32313SOL     OW98777   0.816  10.497  11.928
32313SOL    HW198778   0.853  10.454  12.005
32313SOL    HW298779   0.786  10.582  11.960
32314SOL     OW98780  13.634  14.646   4.240
32314SOL    HW198781  13.569  14.620   4.176
32314SOL    HW298782  13.675  14.564   4.268
32315SOL     OW98783   0.217  10.916   3.884
32315SOL    HW198784   0.160  10.886   3.955
32315SOL    HW298785   0.305  10.908   3.920
32316SOL     OW98786   5.587  13.109   1.072
32316SOL    HW198787   5.526  13.142   1.138
32316SOL    HW298788   5.642  13.183   1.049
32317SOL     OW98789   8.370  10.559  12.415
32317SOL    HW198790   8.354  10.599  12.500
32317SOL    HW298791   8.367  10.464  12.432
32318SOL     OW98792   1.812   7.584  13.269
32318SOL    HW198793   1.876   7.515  13.283
32318SOL    HW298794   1.752   7.550  13.203
32319SOL     OW98795   7.276  13.767   7.034
32319SOL    HW198796   7.190  13.800   7.059
32319SOL    HW298797   7.262  13.724   6.950
32320SOL     OW98798  13.490  11.707  13.463
32320SOL    HW198799  13.417  11.689  13.404
32320SOL    HW298800  13.556  11.747  13.406
32321SOL     OW98801   2.747  10.781   6.279
32321SOL    HW198802   2.829  10.785   6.230
32321SOL    HW298803   2.680  10.767   6.213
32322SOL     OW98804   3.206   5.899   6.044
32322SOL    HW198805   3.143   5.835   6.080
32322SOL    HW298806   3.153   5.955   5.987
32323SOL     OW98807   4.964   3.606   2.630
32323SOL    HW198808   4.966   3.518   2.591
32323SOL    HW298809   4.973   3.590   2.724
32324SOL     OW98810   5.887   2.148   1.166
32324SOL    HW198811   5.964   2.127   1.113
32324SOL    HW298812   5.904   2.108   1.251
32325SOL     OW98813   0.622   3.974  12.450
32325SOL    HW198814   0.641   3.988  12.358
32325SOL    HW298815   0.693   3.917  12.481
32326SOL     OW98816  14.079   1.623   0.035
32326SOL    HW198817  14.025   1.580  14.849
32326SOL    HW298818  14.106   1.553   0.094
32327SOL     OW98819   6.173   3.302   3.552
32327SOL    HW198820   6.211   3.352   3.625
32327SOL    HW298821   6.082   3.332   3.548
32328SOL     OW98822   8.496  11.946   4.158
32328SOL    HW198823   8.582  11.969   4.195
32328SOL    HW298824   8.448  11.910   4.232
32329SOL     OW98825   4.761   6.760  12.080
32329SOL    HW198826   4.779   6.810  12.159
32329SOL    HW298827   4.814   6.803  12.012
32330SOL     OW98828  13.216  11.221   9.559
32330SOL    HW198829  13.188  11.133   9.533
32330SOL    HW298830  13.311  11.214   9.569
32331SOL     OW98831   2.250  10.529  14.101
32331SOL    HW198832   2.266  10.501  14.191
32331SOL    HW298833   2.308  10.473  14.048
32332SOL     OW98834   2.600   1.087   3.854
32332SOL    HW198835   2.676   1.033   3.834
32332SOL    HW298836   2.573   1.123   3.770
32333SOL     OW98837   2.126   5.909   9.072
32333SOL    HW198838   2.178   5.982   9.039
32333SOL    HW298839   2.038   5.925   9.037
32334SOL     OW98840  14.815   6.494   4.679
32334SOL    HW198841  14.733   6.447   4.694
32334SOL    HW298842  14.794   6.557   4.610
32335SOL     OW98843   3.085  14.287   4.306
32335SOL    HW198844   3.110  14.277   4.214
32335SOL    HW298845   2.994  14.319   4.302
32336SOL     OW98846  14.615  14.408   6.287
32336SOL    HW198847  14.651  14.479   6.234
32336SOL    HW298848  14.590  14.341   6.223
32337SOL     OW98849   6.558  12.427   0.038
32337SOL    HW198850   6.522  12.497   0.093
32337SOL    HW298851   6.516  12.347   0.071
32338SOL     OW98852   0.630   8.494   1.144
32338SOL    HW198853   0.632   8.531   1.056
32338SOL    HW298854   0.705   8.434   1.146
32339SOL     OW98855   7.221   2.736   1.562
32339SOL    HW198856   7.289   2.703   1.620
32339SOL    HW298857   7.265   2.800   1.506
32340SOL     OW98858   5.764  10.913   9.419
32340SOL    HW198859   5.775  10.848   9.489
32340SOL    HW298860   5.751  10.996   9.465
32341SOL     OW98861  13.590   8.693  13.003
32341SOL    HW198862  13.628   8.633  13.068
32341SOL    HW298863  13.558   8.767  13.055
32342SOL     OW98864   3.015   4.255   9.168
32342SOL    HW198865   2.983   4.236   9.080
32342SOL    HW298866   3.047   4.345   9.163
32343SOL     OW98867  14.592  13.663   6.679
32343SOL    HW198868  14.562  13.722   6.610
32343SOL    HW298869  14.629  13.721   6.746
32344SOL     OW98870   7.698   2.914   1.333
32344SOL    HW198871   7.732   2.897   1.245
32344SOL    HW298872   7.622   2.856   1.342
32345SOL     OW98873   7.814  13.082   2.847
32345SOL    HW198874   7.871  13.152   2.876
32345SOL    HW298875   7.793  13.104   2.756
32346SOL     OW98876   8.197   3.927   1.234
32346SOL    HW198877   8.137   3.929   1.159
32346SOL    HW298878   8.248   3.847   1.222
32347SOL     OW98879  12.847   1.435   8.955
32347SOL    HW198880  12.821   1.351   8.918
32347SOL    HW298881  12.799   1.441   9.038
32348SOL     OW98882   6.447   0.117   1.750
32348SOL    HW198883   6.482   0.097   1.837
32348SOL    HW298884   6.443   0.032   1.706
32349SOL     OW98885   5.970  14.335   0.825
32349SOL    HW198886   5.927  14.398   0.767
32349SOL    HW298887   6.063  14.345   0.805
32350SOL     OW98888  10.555  12.754   8.654
32350SOL    HW198889  10.460  12.744   8.641
32350SOL    HW298890  10.575  12.840   8.618
32351SOL     OW98891   2.366  12.291  10.096
32351SOL    HW198892   2.304  12.303  10.168
32351SOL    HW298893   2.311  12.267  10.021
32352SOL     OW98894  13.436  14.417  12.324
32352SOL    HW198895  13.413  14.504  12.355
32352SOL    HW298896  13.531  14.420  12.312
32353SOL     OW98897  13.838  11.667   6.878
32353SOL    HW198898  13.811  11.585   6.835
32353SOL    HW298899  13.852  11.728   6.806
32354SOL     OW98900   5.461   8.170   0.775
32354SOL    HW198901   5.494   8.084   0.800
32354SOL    HW298902   5.366   8.160   0.777
32355SOL     OW98903  11.555   1.418  12.233
32355SOL    HW198904  11.577   1.393  12.323
32355SOL    HW298905  11.479   1.475  12.242
32356SOL     OW98906   3.961   8.077  10.958
32356SOL    HW198907   3.896   8.021  10.999
32356SOL    HW298908   3.966   8.046  10.868
32357SOL     OW98909   6.145  12.493   4.375
32357SOL    HW198910   6.075  12.437   4.409
32357SOL    HW298911   6.224  12.465   4.422
32358SOL     OW98912   1.603   7.423   5.490
32358SOL    HW198913   1.648   7.492   5.538
32358SOL    HW298914   1.543   7.384   5.554
32359SOL     OW98915   0.317   4.942   1.342
32359SOL    HW198916   0.268   5.023   1.325
32359SOL    HW298917   0.401   4.971   1.377
32360SOL     OW98918   8.040   1.410   8.361
32360SOL    HW198919   8.119   1.413   8.415
32360SOL    HW298920   8.040   1.494   8.315
32361SOL     OW98921   9.917   5.733   9.369
32361SOL    HW198922   9.951   5.701   9.452
32361SOL    HW298923   9.996   5.751   9.317
32362SOL     OW98924   3.643  11.886   1.419
32362SOL    HW198925   3.660  11.900   1.512
32362SOL    HW298926   3.708  11.940   1.374
32363SOL     OW98927   1.244   5.968  11.814
32363SOL    HW198928   1.228   5.909  11.741
32363SOL    HW298929   1.185   6.042  11.799
32364SOL     OW98930   6.315  11.418  14.769
32364SOL    HW198931   6.330  11.508  14.740
32364SOL    HW298932   6.393  11.395  14.819
32365SOL     OW98933   2.091   2.911   3.068
32365SOL    HW198934   2.186   2.902   3.072
32365SOL    HW298935   2.066   2.943   3.155
32366SOL     OW98936  11.048   1.398   7.013
32366SOL    HW198937  10.976   1.414   7.074
32366SOL    HW298938  11.072   1.307   7.028
32367SOL     OW98939   0.235   1.259   6.471
32367SOL    HW198940   0.201   1.280   6.558
32367SOL    HW298941   0.190   1.320   6.412
32368SOL     OW98942   9.317  13.914  11.263
32368SOL    HW198943   9.402  13.955  11.272
32368SOL    HW298944   9.334  13.820  11.278
32369SOL     OW98945   4.639   8.721   3.815
32369SOL    HW198946   4.592   8.791   3.860
32369SOL    HW298947   4.718   8.708   3.868
32370SOL     OW98948  10.028  13.455  10.061
32370SOL    HW198949  10.105  13.405  10.034
32370SOL    HW298950   9.961  13.434   9.996
32371SOL     OW98951   9.461   2.975   7.337
32371SOL    HW198952   9.476   3.063   7.302
32371SOL    HW298953   9.425   2.990   7.424
32372SOL     OW98954  11.627   7.155   1.579
32372SOL    HW198955  11.609   7.166   1.673
32372SOL    HW298956  11.549   7.189   1.535
32373SOL     OW98957   4.591   2.885  11.512
32373SOL    HW198958   4.636   2.801  11.517
32373SOL    HW298959   4.658   2.945  11.478
32374SOL     OW98960   5.327   5.195   7.330
32374SOL    HW198961   5.292   5.252   7.261
32374SOL    HW298962   5.389   5.139   7.284
32375SOL     OW98963   7.720   0.057   0.356
32375SOL    HW198964   7.743   0.093   0.270
32375SOL    HW298965   7.628   0.081   0.368
32376SOL     OW98966   3.637   6.124  13.914
32376SOL    HW198967   3.714   6.153  13.964
32376SOL    HW298968   3.663   6.135  13.822
32377SOL     OW98969   2.228  11.380  13.721
32377SOL    HW198970   2.243  11.287  13.703
32377SOL    HW298971   2.301  11.405  13.778
32378SOL     OW98972   0.155   2.912   4.361
32378SOL    HW198973   0.189   2.928   4.273
32378SOL    HW298974   0.164   2.996   4.406
32379SOL     OW98975   8.781   4.064   4.338
32379SOL    HW198976   8.820   4.083   4.424
32379SOL    HW298977   8.711   4.002   4.357
32380SOL     OW98978   5.211   2.859  10.527
32380SOL    HW198979   5.162   2.796  10.473
32380SOL    HW298980   5.256   2.805  10.592
32381SOL     OW98981  13.079   2.498   8.464
32381SOL    HW198982  13.006   2.509   8.524
32381SOL    HW298983  13.135   2.574   8.480
32382SOL     OW98984   5.427   6.009   2.479
32382SOL    HW198985   5.460   6.063   2.406
32382SOL    HW298986   5.408   5.924   2.439
32383SOL     OW98987  11.231   3.637   1.085
32383SOL    HW198988  11.202   3.683   1.007
32383SOL    HW298989  11.300   3.578   1.055
32384SOL     OW98990   8.637  14.862   9.488
32384SOL    HW198991   8.625   0.066   9.443
32384SOL    HW298992   8.704  14.816   9.437
32385SOL     OW98993  14.120  10.618  10.497
32385SOL    HW198994  14.070  10.570  10.563
32385SOL    HW298995  14.115  10.709  10.524
32386SOL     OW98996  14.298   2.404   5.852
32386SOL    HW198997  14.341   2.489   5.862
32386SOL    HW298998  14.221   2.409   5.908
32387SOL     OW98999   2.402   4.581  11.921
32387SOL    HW199000   2.448   4.509  11.964
32387SOL    HW299001   2.387   4.550  11.831
32388SOL     OW99002   2.780   2.019   5.463
32388SOL    HW199003   2.833   2.097   5.447
32388SOL    HW299004   2.739   2.035   5.548
32389SOL     OW99005  10.357   5.748   0.865
32389SOL    HW199006  10.288   5.808   0.896
32389SOL    HW299007  10.340   5.667   0.912
32390SOL     OW99008   8.261  12.354   1.433
32390SOL    HW199009   8.310  12.394   1.504
32390SOL    HW299010   8.169  12.370   1.455
32391SOL     OW99011   7.470  12.009   4.177
32391SOL    HW199012   7.466  12.098   4.214
32391SOL    HW299013   7.380  11.990   4.152
32392SOL     OW99014  14.028  12.250   5.807
32392SOL    HW199015  14.057  12.339   5.787
32392SOL    HW299016  13.933  12.252   5.793
32393SOL     OW99017  11.033   4.589  13.314
32393SOL    HW199018  10.969   4.519  13.320
32393SOL    HW299019  11.106   4.560  13.369
32394SOL     OW99020  11.000   0.854   1.890
32394SOL    HW199021  11.047   0.771   1.881
32394SOL    HW299022  10.960   0.849   1.977
32395SOL     OW99023  13.886   3.684  10.245
32395SOL    HW199024  13.874   3.618  10.177
32395SOL    HW299025  13.961   3.653  10.296
32396SOL     OW99026   0.664  14.105   5.453
32396SOL    HW199027   0.691  14.160   5.379
32396SOL    HW299028   0.655  14.017   5.415
32397SOL     OW99029   3.506   6.240  14.126
32397SOL    HW199030   3.529   6.203  14.041
32397SOL    HW299031   3.506   6.335  14.112
32398SOL     OW99032   8.833  11.489   1.822
32398SOL    HW199033   8.793  11.516   1.740
32398SOL    HW299034   8.874  11.569   1.856
32399SOL     OW99035   2.313  11.871  13.284
32399SOL    HW199036   2.291  11.822  13.205
32399SOL    HW299037   2.308  11.963  13.257
32400SOL     OW99038   7.470   2.852   3.175
32400SOL    HW199039   7.525   2.876   3.101
32400SOL    HW299040   7.522   2.875   3.252
32401SOL     OW99041   5.984  11.375   9.905
32401SOL    HW199042   6.053  11.368   9.840
32401SOL    HW299043   5.931  11.449   9.876
32402SOL     OW99044   5.338   1.638  10.055
32402SOL    HW199045   5.413   1.599  10.010
32402SOL    HW299046   5.290   1.684   9.985
32403SOL     OW99047  13.190   0.639   7.159
32403SOL    HW199048  13.186   0.572   7.091
32403SOL    HW299049  13.259   0.699   7.129
32404SOL     OW99050  10.306   7.620  12.226
32404SOL    HW199051  10.215   7.604  12.200
32404SOL    HW299052  10.349   7.536  12.216
32405SOL     OW99053  14.749   6.299   8.354
32405SOL    HW199054  14.671   6.260   8.394
32405SOL    HW299055  14.759   6.253   8.270
32406SOL     OW99056   6.919   7.563   3.726
32406SOL    HW199057   7.004   7.585   3.688
32406SOL    HW299058   6.928   7.472   3.755
32407SOL     OW99059   4.249   4.139   0.793
32407SOL    HW199060   4.327   4.169   0.747
32407SOL    HW299061   4.274   4.053   0.829
32408SOL     OW99062   0.755   5.098   7.420
32408SOL    HW199063   0.662   5.080   7.410
32408SOL    HW299064   0.784   5.036   7.487
32409SOL     OW99065   3.184   0.538  14.542
32409SOL    HW199066   3.110   0.486  14.512
32409SOL    HW299067   3.217   0.491  14.619
32410SOL     OW99068   5.279  14.183   6.675
32410SOL    HW199069   5.291  14.197   6.769
32410SOL    HW299070   5.233  14.100   6.668
32411SOL     OW99071   4.311   3.491   1.697
32411SOL    HW199072   4.261   3.509   1.618
32411SOL    HW299073   4.402   3.486   1.668
32412SOL     OW99074  14.634  12.590  10.234
32412SOL    HW199075  14.645  12.545  10.151
32412SOL    HW299076  14.548  12.632  10.228
32413SOL     OW99077  12.277  14.861  11.461
32413SOL    HW199078  12.213  14.836  11.394
32413SOL    HW299079  12.347  14.797  11.453
32414SOL     OW99080   1.874   1.160  10.517
32414SOL    HW199081   1.867   1.216  10.439
32414SOL    HW299082   1.786   1.161  10.554
32415SOL     OW99083  13.128  13.637  14.603
32415SOL    HW199084  13.170  13.609  14.685
32415SOL    HW299085  13.149  13.730  14.596
32416SOL     OW99086  10.838   8.383   5.218
32416SOL    HW199087  10.841   8.396   5.313
32416SOL    HW299088  10.849   8.289   5.206
32417SOL     OW99089  12.387   4.038   6.290
32417SOL    HW199090  12.392   4.091   6.211
32417SOL    HW299091  12.294   4.034   6.311
32418SOL     OW99092   6.197  14.059   0.582
32418SOL    HW199093   6.285  14.097   0.575
32418SOL    HW299094   6.188  14.006   0.503
32419SOL     OW99095  10.621   8.532   1.403
32419SOL    HW199096  10.584   8.479   1.332
32419SOL    HW299097  10.601   8.483   1.483
32420SOL     OW99098   8.763  14.096  12.758
32420SOL    HW199099   8.842  14.095  12.704
32420SOL    HW299100   8.789  14.051  12.838
32421SOL     OW99101   8.209  11.269   9.606
32421SOL    HW199102   8.115  11.250   9.606
32421SOL    HW299103   8.220  11.335   9.537
32422SOL     OW99104  12.275   2.361   5.057
32422SOL    HW199105  12.211   2.313   5.110
32422SOL    HW299106  12.359   2.342   5.099
32423SOL     OW99107   8.976   4.807  11.133
32423SOL    HW199108   8.959   4.809  11.227
32423SOL    HW299109   8.986   4.714  11.113
32424SOL     OW99110  14.206  11.657   6.869
32424SOL    HW199111  14.238  11.589   6.809
32424SOL    HW299112  14.148  11.711   6.814
32425SOL     OW99113  13.858   6.564  11.958
32425SOL    HW199114  13.790   6.630  11.966
32425SOL    HW299115  13.825   6.490  12.009
32426SOL     OW99116  12.883   4.933   5.550
32426SOL    HW199117  12.889   4.891   5.464
32426SOL    HW299118  12.896   4.861   5.612
32427SOL     OW99119   2.153  12.072   3.256
32427SOL    HW199120   2.079  12.124   3.287
32427SOL    HW299121   2.112  11.993   3.219
32428SOL     OW99122   1.973   1.301  13.480
32428SOL    HW199123   1.882   1.327  13.491
32428SOL    HW299124   1.993   1.321  13.388
32429SOL     OW99125  12.540  13.378   7.210
32429SOL    HW199126  12.600  13.305   7.194
32429SOL    HW299127  12.529  13.419   7.124
32430SOL     OW99128   6.565   8.290   5.429
32430SOL    HW199129   6.593   8.329   5.346
32430SOL    HW299130   6.645   8.253   5.466
32431SOL     OW99131   7.496  11.694   4.227
32431SOL    HW199132   7.492  11.711   4.133
32431SOL    HW299133   7.545  11.612   4.235
32432SOL     OW99134   0.043   9.189  11.786
32432SOL    HW199135   0.086   9.272  11.807
32432SOL    HW299136   0.040   9.188  11.690
32433SOL     OW99137   6.977   8.107  12.024
32433SOL    HW199138   6.936   8.193  12.035
32433SOL    HW299139   6.906   8.044  12.039
32434SOL     OW99140   4.750  14.270   9.139
32434SOL    HW199141   4.788  14.281   9.052
32434SOL    HW299142   4.708  14.184   9.137
32435SOL     OW99143  13.243   2.855   9.939
32435SOL    HW199144  13.229   2.950   9.945
32435SOL    HW299145  13.234   2.824  10.028
32436SOL     OW99146  13.570  14.634   7.833
32436SOL    HW199147  13.621  14.705   7.795
32436SOL    HW299148  13.602  14.625   7.922
32437SOL     OW99149   8.596   9.787   2.171
32437SOL    HW199150   8.545   9.770   2.251
32437SOL    HW299151   8.542   9.847   2.121
32438SOL     OW99152   3.844  14.860   7.933
32438SOL    HW199153   3.936  14.868   7.957
32438SOL    HW299154   3.820  14.770   7.959
32439SOL     OW99155  10.593   4.982  11.802
32439SOL    HW199156  10.607   4.911  11.739
32439SOL    HW299157  10.568   5.057  11.747
32440SOL     OW99158  14.337   4.085   5.996
32440SOL    HW199159  14.274   4.083   5.924
32440SOL    HW299160  14.324   4.171   6.037
32441SOL     OW99161   6.785  12.857   6.876
32441SOL    HW199162   6.808  12.901   6.794
32441SOL    HW299163   6.739  12.777   6.848
32442SOL     OW99164   9.672  14.504   3.045
32442SOL    HW199165   9.749  14.447   3.047
32442SOL    HW299166   9.623  14.481   3.123
32443SOL     OW99167  10.927   3.239   2.134
32443SOL    HW199168  10.965   3.307   2.189
32443SOL    HW299169  10.943   3.157   2.181
32444SOL     OW99170   3.677   6.667   6.716
32444SOL    HW199171   3.646   6.577   6.724
32444SOL    HW299172   3.686   6.682   6.622
32445SOL     OW99173   1.453   8.441   2.985
32445SOL    HW199174   1.370   8.486   3.001
32445SOL    HW299175   1.455   8.370   3.050
32446SOL     OW99176   3.064   6.015   1.475
32446SOL    HW199177   3.071   5.984   1.566
32446SOL    HW299178   2.985   5.972   1.442
32447SOL     OW99179   7.388   4.250   0.057
32447SOL    HW199180   7.361   4.161   0.034
32447SOL    HW299181   7.481   4.254   0.034
32448SOL     OW99182   6.437   5.706  13.461
32448SOL    HW199183   6.490   5.664  13.529
32448SOL    HW299184   6.417   5.793  13.497
32449SOL     OW99185   1.802  11.491  12.534
32449SOL    HW199186   1.759  11.519  12.453
32449SOL    HW299187   1.827  11.572  12.577
32450SOL     OW99188   3.451   7.777   4.847
32450SOL    HW199189   3.539   7.801   4.817
32450SOL    HW299190   3.441   7.686   4.818
32451SOL     OW99191  12.585   6.398   1.501
32451SOL    HW199192  12.662   6.417   1.447
32451SOL    HW299193  12.514   6.386   1.439
32452SOL     OW99194   1.535  10.107   3.121
32452SOL    HW199195   1.531  10.074   3.211
32452SOL    HW299196   1.544  10.029   3.067
32453SOL     OW99197  10.016   9.799  13.529
32453SOL    HW199198  10.098   9.824  13.570
32453SOL    HW299199   9.976   9.881  13.502
32454SOL     OW99200   7.493   7.944  13.879
32454SOL    HW199201   7.478   7.849  13.877
32454SOL    HW299202   7.425   7.977  13.938
32455SOL     OW99203  13.082   1.683   3.429
32455SOL    HW199204  12.992   1.660   3.448
32455SOL    HW299205  13.093   1.771   3.466
32456SOL     OW99206  11.161   1.940  10.206
32456SOL    HW199207  11.178   1.997  10.280
32456SOL    HW299208  11.122   1.997  10.140
32457SOL     OW99209   0.200   9.297   5.444
32457SOL    HW199210   0.228   9.292   5.352
32457SOL    HW299211   0.278   9.329   5.490
32458SOL     OW99212   8.864  11.273   7.816
32458SOL    HW199213   8.899  11.307   7.734
32458SOL    HW299214   8.770  11.269   7.802
32459SOL     OW99215  12.631   7.101   4.866
32459SOL    HW199216  12.668   7.188   4.857
32459SOL    HW299217  12.552   7.114   4.919
32460SOL     OW99218   3.932  10.132   4.365
32460SOL    HW199219   4.001  10.177   4.413
32460SOL    HW299220   3.965  10.126   4.275
32461SOL     OW99221   3.035   5.804  13.155
32461SOL    HW199222   2.981   5.767  13.224
32461SOL    HW299223   3.118   5.826  13.198
32462SOL     OW99224  14.165  14.025   1.980
32462SOL    HW199225  14.205  14.043   1.894
32462SOL    HW299226  14.239  14.008   2.037
32463SOL     OW99227   8.553   5.726  12.628
32463SOL    HW199228   8.479   5.754  12.575
32463SOL    HW299229   8.622   5.789  12.608
32464SOL     OW99230   3.599   5.574   6.022
32464SOL    HW199231   3.552   5.529   6.092
32464SOL    HW299232   3.580   5.667   6.037
32465SOL     OW99233   5.600  13.358   1.695
32465SOL    HW199234   5.589  13.263   1.692
32465SOL    HW299235   5.614  13.383   1.603
32466SOL     OW99236  12.935   4.032  13.760
32466SOL    HW199237  12.928   3.949  13.713
32466SOL    HW299238  12.851   4.076  13.745
32467SOL     OW99239   1.011  10.064   6.079
32467SOL    HW199240   0.981  10.038   5.992
32467SOL    HW299241   1.086  10.007   6.097
32468SOL     OW99242  11.192   9.338   8.383
32468SOL    HW199243  11.247   9.313   8.457
32468SOL    HW299244  11.112   9.286   8.394
32469SOL     OW99245  10.625   7.948  14.482
32469SOL    HW199246  10.621   7.981  14.392
32469SOL    HW299247  10.718   7.952  14.505
32470SOL     OW99248  11.547   5.972   4.141
32470SOL    HW199249  11.474   5.912   4.125
32470SOL    HW299250  11.526   6.050   4.089
32471SOL     OW99251   6.819   1.108  11.005
32471SOL    HW199252   6.875   1.149  10.939
32471SOL    HW299253   6.736   1.156  10.998
32472SOL     OW99254   3.992   6.874   1.947
32472SOL    HW199255   3.921   6.920   1.901
32472SOL    HW299256   4.001   6.921   2.030
32473SOL     OW99257   9.248  13.138   2.769
32473SOL    HW199258   9.251  13.052   2.812
32473SOL    HW299259   9.307  13.193   2.820
32474SOL     OW99260   7.035   5.173   8.855
32474SOL    HW199261   6.978   5.230   8.803
32474SOL    HW299262   7.099   5.233   8.894
32475SOL     OW99263   5.889   1.580   4.205
32475SOL    HW199264   5.894   1.675   4.200
32475SOL    HW299265   5.866   1.562   4.297
32476SOL     OW99266  14.261   8.709   2.548
32476SOL    HW199267  14.294   8.790   2.587
32476SOL    HW299268  14.233   8.656   2.622
32477SOL     OW99269  13.346  12.562   2.378
32477SOL    HW199270  13.412  12.626   2.405
32477SOL    HW299271  13.263  12.602   2.403
32478SOL     OW99272   5.748   2.685  10.443
32478SOL    HW199273   5.733   2.658  10.533
32478SOL    HW299274   5.662   2.715  10.412
32479SOL     OW99275   3.056   6.691   6.244
32479SOL    HW199276   3.026   6.739   6.322
32479SOL    HW299277   3.001   6.613   6.242
32480SOL     OW99278  14.632   3.445  13.403
32480SOL    HW199279  14.615   3.379  13.336
32480SOL    HW299280  14.551   3.446  13.456
32481SOL     OW99281  14.850   7.392   8.003
32481SOL    HW199282   0.001   7.454   7.938
32481SOL    HW299283  14.832   7.312   7.953
32482SOL     OW99284   9.799   7.517   0.813
32482SOL    HW199285   9.844   7.549   0.891
32482SOL    HW299286   9.713   7.489   0.845
32483SOL     OW99287   2.609  10.927   4.690
32483SOL    HW199288   2.667  10.915   4.615
32483SOL    HW299289   2.577  10.839   4.710
32484SOL     OW99290   7.281   5.748   6.255
32484SOL    HW199291   7.227   5.670   6.270
32484SOL    HW299292   7.367   5.724   6.290
32485SOL     OW99293  12.937   3.920   0.681
32485SOL    HW199294  12.890   3.969   0.613
32485SOL    HW299295  12.938   3.830   0.649
32486SOL     OW99296  13.465  13.086   1.135
32486SOL    HW199297  13.445  13.145   1.208
32486SOL    HW299298  13.429  13.001   1.162
32487SOL     OW99299  14.108  11.459  12.808
32487SOL    HW199300  14.189  11.443  12.759
32487SOL    HW299301  14.042  11.406  12.763
32488SOL     OW99302   3.817  11.513  14.769
32488SOL    HW199303   3.752  11.576  14.737
32488SOL    HW299304   3.800  11.433  14.718
32489SOL     OW99305  13.606  13.442   5.230
32489SOL    HW199306  13.593  13.443   5.136
32489SOL    HW299307  13.518  13.446   5.267
32490SOL     OW99308  11.964  12.461  14.625
32490SOL    HW199309  12.041  12.485  14.676
32490SOL    HW299310  11.890  12.492  14.678
32491SOL     OW99311   3.558   7.376   1.757
32491SOL    HW199312   3.607   7.357   1.837
32491SOL    HW299313   3.597   7.320   1.690
32492SOL     OW99314  12.807   8.955   1.967
32492SOL    HW199315  12.713   8.952   1.985
32492SOL    HW299316  12.846   8.902   2.036
32493SOL     OW99317  13.806   0.500  12.356
32493SOL    HW199318  13.886   0.467  12.397
32493SOL    HW299319  13.755   0.536  12.429
32494SOL     OW99320  11.874  10.144   4.461
32494SOL    HW199321  11.791  10.165   4.417
32494SOL    HW299322  11.852  10.146   4.554
32495SOL     OW99323   7.155  12.686   4.178
32495SOL    HW199324   7.156  12.711   4.270
32495SOL    HW299325   7.217  12.745   4.136
32496SOL     OW99326  13.382   3.741   8.178
32496SOL    HW199327  13.416   3.831   8.187
32496SOL    HW299328  13.451   3.695   8.131
32497SOL     OW99329  13.311   7.855  13.185
32497SOL    HW199330  13.244   7.850  13.254
32497SOL    HW299331  13.267   7.897  13.112
32498SOL     OW99332   2.314   9.694   7.748
32498SOL    HW199333   2.266   9.687   7.830
32498SOL    HW299334   2.319   9.605   7.715
32499SOL     OW99335  13.382  10.815  12.362
32499SOL    HW199336  13.375  10.909  12.345
32499SOL    HW299337  13.326  10.775  12.296
32500SOL     OW99338   3.278  12.263   3.139
32500SOL    HW199339   3.314  12.235   3.223
32500SOL    HW299340   3.183  12.251   3.149
32501SOL     OW99341  12.478  13.136   6.120
32501SOL    HW199342  12.556  13.173   6.161
32501SOL    HW299343  12.471  13.182   6.037
32502SOL     OW99344   5.698  10.704   2.283
32502SOL    HW199345   5.759  10.776   2.301
32502SOL    HW299346   5.694  10.699   2.188
32503SOL     OW99347   2.903   7.734   0.621
32503SOL    HW199348   2.966   7.739   0.549
32503SOL    HW299349   2.939   7.792   0.688
32504SOL     OW99350   0.414   9.342  11.848
32504SOL    HW199351   0.508   9.351  11.836
32504SOL    HW299352   0.401   9.348  11.942
32505SOL     OW99353   0.042   0.314   9.400
32505SOL    HW199354  14.877   0.394   9.376
32505SOL    HW299355   0.073   0.329   9.489
32506SOL     OW99356  14.103   7.806   8.236
32506SOL    HW199357  14.063   7.892   8.249
32506SOL    HW299358  14.195   7.824   8.221
32507SOL     OW99359   5.562   4.967  10.544
32507SOL    HW199360   5.649   4.958  10.584
32507SOL    HW299361   5.546   5.061  10.542
32508SOL     OW99362   2.734  11.257  14.438
32508SOL    HW199363   2.780  11.340  14.424
32508SOL    HW299364   2.781  11.215  14.510
32509SOL     OW99365   7.022   0.733   1.595
32509SOL    HW199366   6.961   0.667   1.562
32509SOL    HW299367   6.976   0.773   1.668
32510SOL     OW99368   2.648   6.460   6.793
32510SOL    HW199369   2.594   6.462   6.713
32510SOL    HW299370   2.726   6.411   6.768
32511SOL     OW99371  10.942  10.427  12.830
32511SOL    HW199372  10.866  10.409  12.775
32511SOL    HW299373  10.943  10.358  12.895
32512SOL     OW99374   5.278   1.184   6.365
32512SOL    HW199375   5.219   1.179   6.439
32512SOL    HW299376   5.334   1.107   6.372
32513SOL     OW99377   9.178   3.918  10.376
32513SOL    HW199378   9.257   3.948  10.421
32513SOL    HW299379   9.207   3.845  10.322
32514SOL     OW99380  14.056  12.932   0.994
32514SOL    HW199381  13.989  12.909   0.930
32514SOL    HW299382  14.119  12.984   0.946
32515SOL     OW99383   1.541   8.275  13.905
32515SOL    HW199384   1.621   8.329  13.908
32515SOL    HW299385   1.506   8.288  13.817
32516SOL     OW99386   1.876   6.930  11.918
32516SOL    HW199387   1.954   6.884  11.886
32516SOL    HW299388   1.873   7.010  11.867
32517SOL     OW99389   7.964  14.098   2.582
32517SOL    HW199390   8.029  14.166   2.562
32517SOL    HW299391   7.949  14.106   2.676
32518SOL     OW99392   3.958   6.101   8.413
32518SOL    HW199393   4.001   6.176   8.453
32518SOL    HW299394   3.926   6.049   8.488
32519SOL     OW99395   9.858  13.474   5.795
32519SOL    HW199396   9.921  13.437   5.857
32519SOL    HW299397   9.773  13.464   5.838
32520SOL     OW99398   7.381  10.542  13.102
32520SOL    HW199399   7.412  10.452  13.116
32520SOL    HW299400   7.433  10.595  13.162
32521SOL     OW99401   2.532   4.543  14.071
32521SOL    HW199402   2.578   4.577  14.148
32521SOL    HW299403   2.582   4.576  13.996
32522SOL     OW99404   7.662   5.145   0.180
32522SOL    HW199405   7.726   5.217   0.176
32522SOL    HW299406   7.598   5.167   0.112
32523SOL     OW99407   4.009   1.008  13.475
32523SOL    HW199408   4.093   0.971  13.448
32523SOL    HW299409   4.028   1.054  13.557
32524SOL     OW99410   6.801   5.762   9.698
32524SOL    HW199411   6.802   5.787   9.605
32524SOL    HW299412   6.877   5.704   9.707
32525SOL     OW99413   0.889   9.742   6.005
32525SOL    HW199414   0.809   9.715   5.960
32525SOL    HW299415   0.882   9.704   6.093
32526SOL     OW99416   9.973   1.358   9.986
32526SOL    HW199417   9.986   1.407  10.067
32526SOL    HW299418  10.037   1.287   9.990
32527SOL     OW99419   7.704   9.535   2.731
32527SOL    HW199420   7.730   9.562   2.820
32527SOL    HW299421   7.689   9.441   2.738
32528SOL     OW99422  14.527  13.059   8.753
32528SOL    HW199423  14.578  13.083   8.830
32528SOL    HW299424  14.539  12.964   8.746
32529SOL     OW99425   9.037   4.221   1.508
32529SOL    HW199426   9.057   4.275   1.584
32529SOL    HW299427   9.115   4.226   1.453
32530SOL     OW99428   0.900  12.820  10.326
32530SOL    HW199429   0.956  12.810  10.402
32530SOL    HW299430   0.815  12.847  10.362
32531SOL     OW99431   3.569   5.611   8.416
32531SOL    HW199432   3.512   5.659   8.356
32531SOL    HW299433   3.615   5.679   8.465
32532SOL     OW99434  12.466  13.878   8.394
32532SOL    HW199435  12.561  13.868   8.380
32532SOL    HW299436  12.459  13.920   8.479
32533SOL     OW99437   6.129   0.350  14.472
32533SOL    HW199438   6.109   0.258  14.485
32533SOL    HW299439   6.224   0.356  14.480
32534SOL     OW99440  10.915  12.708   1.802
32534SOL    HW199441  10.940  12.755   1.881
32534SOL    HW299442  10.832  12.748   1.776
32535SOL     OW99443   0.328   5.014   3.645
32535SOL    HW199444   0.376   4.990   3.566
32535SOL    HW299445   0.279   5.092   3.621
32536SOL     OW99446   7.471  12.339  13.846
32536SOL    HW199447   7.442  12.324  13.756
32536SOL    HW299448   7.449  12.258  13.892
32537SOL     OW99449   0.976   7.784   1.524
32537SOL    HW199450   0.897   7.758   1.571
32537SOL    HW299451   1.045   7.786   1.591
32538SOL     OW99452  12.718  13.613  11.014
32538SOL    HW199453  12.693  13.681  11.078
32538SOL    HW299454  12.727  13.661  10.931
32539SOL     OW99455   7.483  13.505   3.813
32539SOL    HW199456   7.566  13.488   3.770
32539SOL    HW299457   7.504  13.509   3.906
32540SOL     OW99458  13.366   7.534   4.326
32540SOL    HW199459  13.273   7.516   4.310
32540SOL    HW299460  13.407   7.447   4.324
32541SOL     OW99461  12.084   7.839   6.120
32541SOL    HW199462  12.000   7.810   6.085
32541SOL    HW299463  12.145   7.829   6.046
32542SOL     OW99464   4.607  13.739   0.506
32542SOL    HW199465   4.620  13.756   0.412
32542SOL    HW299466   4.696  13.737   0.542
32543SOL     OW99467   7.519  14.593   0.952
32543SOL    HW199468   7.518  14.685   0.979
32543SOL    HW299469   7.611  14.568   0.954
32544SOL     OW99470  10.688   8.144  14.708
32544SOL    HW199471  10.732   8.112  14.787
32544SOL    HW299472  10.749   8.124  14.637
32545SOL     OW99473   2.725  11.286   1.329
32545SOL    HW199474   2.773  11.246   1.257
32545SOL    HW299475   2.674  11.356   1.289
32546SOL     OW99476   8.640   0.488  11.273
32546SOL    HW199477   8.590   0.569  11.263
32546SOL    HW299478   8.636   0.469  11.366
32547SOL     OW99479  13.330   7.562   0.812
32547SOL    HW199480  13.244   7.604   0.822
32547SOL    HW299481  13.372   7.572   0.897
32548SOL     OW99482   5.164   8.299  11.048
32548SOL    HW199483   5.130   8.339  11.127
32548SOL    HW299484   5.087   8.285  10.993
32549SOL     OW99485   1.800   4.375  10.035
32549SOL    HW199486   1.852   4.455  10.036
32549SOL    HW299487   1.714   4.402  10.067
32550SOL     OW99488  11.426   5.377   7.889
32550SOL    HW199489  11.440   5.297   7.838
32550SOL    HW299490  11.510   5.424   7.883
32551SOL     OW99491   3.759   9.670   7.360
32551SOL    HW199492   3.834   9.691   7.305
32551SOL    HW299493   3.686   9.664   7.298
32552SOL     OW99494   7.752   4.709  10.435
32552SOL    HW199495   7.700   4.783  10.466
32552SOL    HW299496   7.694   4.634  10.443
32553SOL     OW99497   1.862  14.148   5.181
32553SOL    HW199498   1.929  14.080   5.179
32553SOL    HW299499   1.910  14.227   5.206
32554SOL     OW99500   7.330  14.768   5.494
32554SOL    HW199501   7.316  14.842   5.552
32554SOL    HW299502   7.266  14.780   5.424
32555SOL     OW99503   4.550  12.737   8.356
32555SOL    HW199504   4.498  12.776   8.426
32555SOL    HW299505   4.625  12.796   8.345
32556SOL     OW99506   7.219   6.562   3.225
32556SOL    HW199507   7.157   6.595   3.290
32556SOL    HW299508   7.287   6.629   3.220
32557SOL     OW99509   7.149   8.488   8.899
32557SOL    HW199510   7.166   8.406   8.854
32557SOL    HW299511   7.211   8.488   8.973
32558SOL     OW99512  11.109  14.763   3.371
32558SOL    HW199513  11.201  14.741   3.360
32558SOL    HW299514  11.108  14.828   3.442
32559SOL     OW99515   4.397   7.429   5.624
32559SOL    HW199516   4.397   7.337   5.596
32559SOL    HW299517   4.431   7.477   5.548
32560SOL     OW99518   7.575  14.719  14.645
32560SOL    HW199519   7.559  14.782  14.715
32560SOL    HW299520   7.531  14.755  14.568
32561SOL     OW99521   7.671  12.659   7.735
32561SOL    HW199522   7.731  12.612   7.677
32561SOL    HW299523   7.602  12.693   7.677
32562SOL     OW99524   9.036   5.091   7.664
32562SOL    HW199525   9.071   5.028   7.601
32562SOL    HW299526   8.952   5.116   7.628
32563SOL     OW99527  11.914  12.198   5.984
32563SOL    HW199528  11.864  12.181   5.904
32563SOL    HW299529  11.911  12.293   5.995
32564SOL     OW99530  11.360   4.320   1.708
32564SOL    HW199531  11.320   4.375   1.641
32564SOL    HW299532  11.441   4.366   1.732
32565SOL     OW99533   0.758  14.668   6.863
32565SOL    HW199534   0.721  14.753   6.837
32565SOL    HW299535   0.690  14.629   6.919
32566SOL     OW99536  10.021   4.495   3.962
32566SOL    HW199537   9.973   4.411   3.961
32566SOL    HW299538  10.019   4.523   4.053
32567SOL     OW99539   9.636   1.214  14.513
32567SOL    HW199540   9.727   1.197  14.535
32567SOL    HW299541   9.593   1.128  14.520
32568SOL     OW99542  12.147  14.707   1.945
32568SOL    HW199543  12.075  14.645   1.955
32568SOL    HW299544  12.112  14.776   1.889
32569SOL     OW99545   6.897   9.629   6.021
32569SOL    HW199546   6.805   9.604   6.015
32569SOL    HW299547   6.932   9.577   6.094
32570SOL     OW99548   2.345   3.735  13.671
32570SOL    HW199549   2.322   3.779  13.589
32570SOL    HW299550   2.332   3.801  13.738
32571SOL     OW99551   6.036   4.891   2.863
32571SOL    HW199552   6.118   4.922   2.824
32571SOL    HW299553   6.060   4.812   2.910
32572SOL     OW99554   3.064   0.758   9.230
32572SOL    HW199555   3.017   0.696   9.175
32572SOL    HW299556   3.015   0.758   9.313
32573SOL     OW99557   0.858   9.367  14.730
32573SOL    HW199558   0.824   9.314  14.658
32573SOL    HW299559   0.798   9.441  14.736
32574SOL     OW99560   7.036   1.659   4.598
32574SOL    HW199561   6.991   1.690   4.519
32574SOL    HW299562   7.081   1.737   4.632
32575SOL     OW99563   0.373   6.682   2.382
32575SOL    HW199564   0.324   6.627   2.443
32575SOL    HW299565   0.423   6.742   2.438
32576SOL     OW99566  10.237  13.552   2.812
32576SOL    HW199567  10.196  13.475   2.772
32576SOL    HW299568  10.302  13.516   2.872
32577SOL     OW99569  13.818   4.056   0.734
32577SOL    HW199570  13.815   4.076   0.828
32577SOL    HW299571  13.728   4.031   0.712
32578SOL     OW99572   3.168  11.624   6.558
32578SOL    HW199573   3.121  11.706   6.571
32578SOL    HW299574   3.260  11.647   6.573
32579SOL     OW99575  10.178  12.897   2.887
32579SOL    HW199576  10.122  12.825   2.917
32579SOL    HW299577  10.123  12.946   2.827
32580SOL     OW99578  12.108  11.759  13.727
32580SOL    HW199579  12.191  11.793  13.763
32580SOL    HW299580  12.066  11.836  13.688
32581SOL     OW99581   9.518   8.569   5.285
32581SOL    HW199582   9.431   8.536   5.264
32581SOL    HW299583   9.526   8.649   5.232
32582SOL     OW99584  10.246   6.364  14.065
32582SOL    HW199585  10.274   6.273  14.065
32582SOL    HW299586  10.177   6.368  13.999
32583SOL     OW99587  13.703   2.958   5.636
32583SOL    HW199588  13.635   3.026   5.633
32583SOL    HW299589  13.655   2.876   5.647
32584SOL     OW99590   8.422  13.722   7.410
32584SOL    HW199591   8.350  13.730   7.473
32584SOL    HW299592   8.501  13.730   7.463
32585SOL     OW99593   9.842   4.306  13.739
32585SOL    HW199594   9.855   4.380  13.680
32585SOL    HW299595   9.772   4.334  13.798
32586SOL     OW99596   9.988  13.924   3.645
32586SOL    HW199597  10.059  13.867   3.619
32586SOL    HW299598   9.954  13.960   3.563
32587SOL     OW99599   7.666  10.524  11.909
32587SOL    HW199600   7.738  10.500  11.850
32587SOL    HW299601   7.631  10.440  11.939
32588SOL     OW99602   0.555   7.592   1.479
32588SOL    HW199603   0.640   7.584   1.521
32588SOL    HW299604   0.516   7.671   1.516
32589SOL     OW99605   2.073   5.246   4.808
32589SOL    HW199606   2.052   5.332   4.844
32589SOL    HW299607   2.107   5.264   4.720
32590SOL     OW99608   0.610  12.097   8.896
32590SOL    HW199609   0.533  12.043   8.915
32590SOL    HW299610   0.643  12.123   8.982
32591SOL     OW99611  11.045   1.548  12.073
32591SOL    HW199612  10.967   1.497  12.096
32591SOL    HW299613  11.031   1.633  12.116
32592SOL     OW99614  10.399   5.215   5.795
32592SOL    HW199615  10.432   5.291   5.746
32592SOL    HW299616  10.477   5.178   5.836
32593SOL     OW99617  13.988   2.831   6.485
32593SOL    HW199618  13.987   2.768   6.557
32593SOL    HW299619  14.081   2.854   6.474
32594SOL     OW99620  11.176   7.973   9.423
32594SOL    HW199621  11.213   7.891   9.455
32594SOL    HW299622  11.226   7.993   9.343
32595SOL     OW99623   7.882   2.580  13.286
32595SOL    HW199624   7.884   2.669  13.251
32595SOL    HW299625   7.943   2.531  13.231
32596SOL     OW99626   8.666  11.198   8.686
32596SOL    HW199627   8.754  11.162   8.678
32596SOL    HW299628   8.643  11.227   8.598
32597SOL     OW99629   5.370   1.926   3.053
32597SOL    HW199630   5.439   1.951   2.992
32597SOL    HW299631   5.363   2.000   3.114
32598SOL     OW99632   0.840   2.538   8.413
32598SOL    HW199633   0.750   2.571   8.416
32598SOL    HW299634   0.894   2.617   8.415
32599SOL     OW99635   8.623  11.895   8.917
32599SOL    HW199636   8.617  11.938   9.002
32599SOL    HW299637   8.703  11.931   8.878
32600SOL     OW99638  14.629   5.805  14.239
32600SOL    HW199639  14.674   5.849  14.167
32600SOL    HW299640  14.596   5.876  14.294
32601SOL     OW99641   7.773   7.446   2.701
32601SOL    HW199642   7.678   7.433   2.707
32601SOL    HW299643   7.802   7.451   2.792
32602SOL     OW99644  13.230   7.763   8.567
32602SOL    HW199645  13.244   7.688   8.625
32602SOL    HW299646  13.185   7.727   8.491
32603SOL     OW99647   0.430   7.160  11.333
32603SOL    HW199648   0.337   7.136  11.337
32603SOL    HW299649   0.435   7.243  11.381
32604SOL     OW99650   0.520   6.182   5.556
32604SOL    HW199651   0.457   6.254   5.566
32604SOL    HW299652   0.570   6.205   5.478
32605SOL     OW99653  10.033   7.844  12.763
32605SOL    HW199654   9.961   7.787  12.735
32605SOL    HW299655  10.030   7.842  12.858
32606SOL     OW99656   7.606   2.662  12.725
32606SOL    HW199657   7.608   2.568  12.705
32606SOL    HW299658   7.644   2.668  12.813
32607SOL     OW99659   6.363  11.793   2.404
32607SOL    HW199660   6.377  11.711   2.451
32607SOL    HW299661   6.348  11.858   2.472
32608SOL     OW99662   1.622   1.321   7.352
32608SOL    HW199663   1.654   1.284   7.433
32608SOL    HW299664   1.630   1.416   7.364
32609SOL     OW99665   9.539   2.819  14.357
32609SOL    HW199666   9.545   2.905  14.314
32609SOL    HW299667   9.602   2.764  14.311
32610SOL     OW99668  14.425  10.031   1.783
32610SOL    HW199669  14.448   9.942   1.810
32610SOL    HW299670  14.486  10.050   1.711
32611SOL     OW99671   4.325  10.527  13.205
32611SOL    HW199672   4.357  10.508  13.117
32611SOL    HW299673   4.243  10.573  13.192
32612SOL     OW99674   8.286  14.411   0.014
32612SOL    HW199675   8.240  14.480   0.061
32612SOL    HW299676   8.268  14.429  14.801
32613SOL     OW99677   1.356  13.257  12.985
32613SOL    HW199678   1.318  13.343  13.005
32613SOL    HW299679   1.419  13.276  12.915
32614SOL     OW99680  13.717  11.042  12.133
32614SOL    HW199681  13.794  10.995  12.164
32614SOL    HW299682  13.679  11.082  12.211
32615SOL     OW99683   7.764  13.417   4.092
32615SOL    HW199684   7.765  13.503   4.134
32615SOL    HW299685   7.687  13.374   4.128
32616SOL     OW99686   3.295  13.920   0.130
32616SOL    HW199687   3.305  13.842   0.076
32616SOL    HW299688   3.237  13.893   0.201
32617SOL     OW99689   2.318   5.837   2.773
32617SOL    HW199690   2.315   5.932   2.762
32617SOL    HW299691   2.244   5.805   2.721
32618SOL     OW99692  12.136   3.943  11.009
32618SOL    HW199693  12.184   3.896  11.077
32618SOL    HW299694  12.119   4.029  11.047
32619SOL     OW99695   6.444   5.654   8.163
32619SOL    HW199696   6.394   5.583   8.204
32619SOL    HW299697   6.458   5.624   8.073
32620SOL     OW99698  12.374   9.965  12.092
32620SOL    HW199699  12.297  10.007  12.054
32620SOL    HW299700  12.408  10.030  12.154
32621SOL     OW99701   7.513  11.204   6.134
32621SOL    HW199702   7.564  11.211   6.054
32621SOL    HW299703   7.455  11.130   6.120
32622SOL     OW99704   2.468   8.788  13.424
32622SOL    HW199705   2.397   8.797  13.488
32622SOL    HW299706   2.423   8.770  13.341
32623SOL     OW99707  11.129   1.397   3.248
32623SOL    HW199708  11.140   1.490   3.264
32623SOL    HW299709  11.133   1.357   3.335
32624SOL     OW99710  12.722   5.034   2.984
32624SOL    HW199711  12.676   5.111   3.019
32624SOL    HW299712  12.751   5.061   2.897
32625SOL     OW99713  13.868   4.209   4.462
32625SOL    HW199714  13.900   4.168   4.542
32625SOL    HW299715  13.916   4.291   4.455
32626SOL     OW99716   3.446   0.512  10.924
32626SOL    HW199717   3.432   0.455  10.849
32626SOL    HW299718   3.400   0.469  10.996
32627SOL     OW99719   9.788   7.270   7.761
32627SOL    HW199720   9.828   7.184   7.778
32627SOL    HW299721   9.779   7.274   7.666
32628SOL     OW99722  11.496   2.528  11.641
32628SOL    HW199723  11.524   2.525  11.733
32628SOL    HW299724  11.406   2.559  11.644
32629SOL     OW99725  13.122   5.761   8.367
32629SOL    HW199726  13.029   5.743   8.361
32629SOL    HW299727  13.128   5.854   8.387
32630SOL     OW99728  10.241   0.218  11.127
32630SOL    HW199729  10.289   0.142  11.160
32630SOL    HW299730  10.308   0.270  11.082
32631SOL     OW99731   9.576   3.053  14.205
32631SOL    HW199732   9.495   3.074  14.159
32631SOL    HW299733   9.638   3.120  14.174
32632SOL     OW99734   6.862   5.371   6.385
32632SOL    HW199735   6.781   5.414   6.358
32632SOL    HW299736   6.864   5.289   6.336
32633SOL     OW99737   0.683   5.914   7.199
32633SOL    HW199738   0.751   5.846   7.195
32633SOL    HW299739   0.618   5.886   7.134
32634SOL     OW99740   7.657   2.273  13.062
32634SOL    HW199741   7.622   2.288  12.974
32634SOL    HW299742   7.581   2.249  13.115
32635SOL     OW99743   3.430  14.209   2.186
32635SOL    HW199744   3.424  14.299   2.154
32635SOL    HW299745   3.343  14.189   2.220
32636SOL     OW99746  13.936   3.964   2.411
32636SOL    HW199747  13.996   3.957   2.485
32636SOL    HW299748  13.851   3.982   2.450
32637SOL     OW99749   7.759   9.346   4.834
32637SOL    HW199750   7.800   9.260   4.844
32637SOL    HW299751   7.832   9.407   4.838
32638SOL     OW99752   7.264  12.965   7.048
32638SOL    HW199753   7.253  13.059   7.060
32638SOL    HW299754   7.297  12.933   7.132
32639SOL     OW99755   4.017  10.013   3.328
32639SOL    HW199756   3.943   9.980   3.377
32639SOL    HW299757   4.093   9.972   3.368
32640SOL     OW99758   8.113  12.851   1.291
32640SOL    HW199759   8.037  12.895   1.252
32640SOL    HW299760   8.077  12.775   1.337
32641SOL     OW99761  14.532   3.308   3.844
32641SOL    HW199762  14.448   3.294   3.888
32641SOL    HW299763  14.572   3.221   3.840
32642SOL     OW99764  12.437  13.480   3.150
32642SOL    HW199765  12.363  13.430   3.182
32642SOL    HW299766  12.423  13.488   3.055
32643SOL     OW99767  11.872   3.053  10.535
32643SOL    HW199768  11.890   3.009  10.618
32643SOL    HW299769  11.794   3.106  10.552
32644SOL     OW99770  11.062  10.854   8.728
32644SOL    HW199771  11.054  10.899   8.813
32644SOL    HW299772  11.053  10.761   8.749
32645SOL     OW99773   5.157   6.342  12.736
32645SOL    HW199774   5.096   6.402  12.696
32645SOL    HW299775   5.180   6.280  12.667
32646SOL     OW99776  12.113  13.689  11.900
32646SOL    HW199777  12.138  13.602  11.870
32646SOL    HW299778  12.158  13.749  11.840
32647SOL     OW99779  12.602   5.160   0.693
32647SOL    HW199780  12.545   5.121   0.760
32647SOL    HW299781  12.542   5.185   0.623
32648SOL     OW99782   8.465   0.231   5.700
32648SOL    HW199783   8.373   0.247   5.679
32648SOL    HW299784   8.504   0.318   5.709
32649SOL     OW99785  11.424  11.360  14.217
32649SOL    HW199786  11.357  11.354  14.148
32649SOL    HW299787  11.504  11.327  14.175
32650SOL     OW99788  10.723  10.936   9.252
32650SOL    HW199789  10.664  10.869   9.217
32650SOL    HW299790  10.809  10.914   9.214
32651SOL     OW99791  11.390   8.868   7.670
32651SOL    HW199792  11.349   8.807   7.732
32651SOL    HW299793  11.395   8.951   7.719
32652SOL     OW99794   9.404   5.564  12.589
32652SOL    HW199795   9.334   5.499  12.583
32652SOL    HW299796   9.457   5.536  12.664
32653SOL     OW99797  13.747   5.104   8.413
32653SOL    HW199798  13.740   5.184   8.465
32653SOL    HW299799  13.813   5.124   8.347
32654SOL     OW99800  12.632   7.902   5.134
32654SOL    HW199801  12.703   7.942   5.183
32654SOL    HW299802  12.585   7.975   5.095
32655SOL     OW99803  14.527   4.737   2.090
32655SOL    HW199804  14.517   4.794   2.167
32655SOL    HW299805  14.594   4.780   2.037
32656SOL     OW99806   2.100   7.195   5.538
32656SOL    HW199807   2.028   7.255   5.519
32656SOL    HW299808   2.179   7.247   5.522
32657SOL     OW99809   0.585  10.985  10.744
32657SOL    HW199810   0.644  10.990  10.819
32657SOL    HW299811   0.506  11.031  10.774
32658SOL     OW99812   2.389   8.839   5.362
32658SOL    HW199813   2.408   8.833   5.455
32658SOL    HW299814   2.447   8.776   5.321
32659SOL     OW99815  14.623   1.990   8.208
32659SOL    HW199816  14.622   1.938   8.288
32659SOL    HW299817  14.616   2.081   8.239
32660SOL     OW99818   6.891  11.208  10.697
32660SOL    HW199819   6.824  11.260  10.740
32660SOL    HW299820   6.848  11.175  10.618
32661SOL     OW99821   5.528   1.528   5.293
32661SOL    HW199822   5.492   1.602   5.342
32661SOL    HW299823   5.618   1.521   5.324
32662SOL     OW99824  14.034  13.781   2.923
32662SOL    HW199825  13.999  13.753   2.839
32662SOL    HW299826  14.006  13.872   2.932
32663SOL     OW99827   4.077   1.334   7.048
32663SOL    HW199828   4.158   1.317   6.999
32663SOL    HW299829   4.023   1.257   7.031
32664SOL     OW99830   4.753   6.087   4.021
32664SOL    HW199831   4.715   6.173   4.001
32664SOL    HW299832   4.786   6.055   3.938
32665SOL     OW99833  14.880   0.282   6.510
32665SOL    HW199834   0.042   0.271   6.595
32665SOL    HW299835  14.804   0.223   6.513
32666SOL     OW99836   6.644   1.407   9.316
32666SOL    HW199837   6.550   1.399   9.301
32666SOL    HW299838   6.678   1.439   9.232
32667SOL     OW99839   5.712  13.205  12.845
32667SOL    HW199840   5.637  13.203  12.786
32667SOL    HW299841   5.689  13.145  12.916
32668SOL     OW99842   0.403   9.381   7.586
32668SOL    HW199843   0.446   9.431   7.655
32668SOL    HW299844   0.330   9.338   7.629
32669SOL     OW99845   4.957   0.684   1.384
32669SOL    HW199846   4.905   0.733   1.448
32669SOL    HW299847   4.933   0.593   1.398
32670SOL     OW99848  12.791  11.433   1.888
32670SOL    HW199849  12.785  11.351   1.938
32670SOL    HW299850  12.735  11.417   1.811
32671SOL     OW99851  11.443  14.334  10.549
32671SOL    HW199852  11.349  14.319  10.545
32671SOL    HW299853  11.476  14.262  10.604
32672SOL     OW99854  14.039   7.280   0.636
32672SOL    HW199855  14.067   7.369   0.617
32672SOL    HW299856  14.072   7.228   0.563
32673SOL     OW99857   5.731   3.246   9.326
32673SOL    HW199858   5.662   3.210   9.382
32673SOL    HW299859   5.692   3.247   9.238
32674SOL     OW99860   4.672   4.126  11.625
32674SOL    HW199861   4.620   4.199  11.591
32674SOL    HW299862   4.607   4.065  11.661
32675SOL     OW99863   0.676  11.180  11.484
32675SOL    HW199864   0.685  11.268  11.448
32675SOL    HW299865   0.603  11.141  11.435
32676SOL     OW99866   6.050   8.055   7.258
32676SOL    HW199867   6.105   8.085   7.185
32676SOL    HW299868   6.097   8.082   7.337
32677SOL     OW99869   8.511   7.077  10.256
32677SOL    HW199870   8.559   7.155  10.282
32677SOL    HW299871   8.479   7.097  10.168
32678SOL     OW99872   3.394   9.053  10.066
32678SOL    HW199873   3.447   8.989  10.020
32678SOL    HW299874   3.399   9.027  10.158
32679SOL     OW99875  12.326  11.003   0.910
32679SOL    HW199876  12.387  10.939   0.874
32679SOL    HW299877  12.366  11.088   0.890
32680SOL     OW99878   2.653  13.514   5.118
32680SOL    HW199879   2.704  13.578   5.168
32680SOL    HW299880   2.718  13.456   5.079
32681SOL     OW99881  13.235   4.476  11.729
32681SOL    HW199882  13.282   4.474  11.645
32681SOL    HW299883  13.178   4.399  11.727
32682SOL     OW99884   0.149   7.012   5.024
32682SOL    HW199885   0.098   6.948   5.073
32682SOL    HW299886   0.224   7.030   5.081
32683SOL     OW99887   8.783  11.477   5.236
32683SOL    HW199888   8.704  11.530   5.233
32683SOL    HW299889   8.756  11.395   5.278
32684SOL     OW99890   0.531  11.975   1.861
32684SOL    HW199891   0.572  12.059   1.881
32684SOL    HW299892   0.535  11.926   1.944
32685SOL     OW99893  14.461   7.806   1.508
32685SOL    HW199894  14.448   7.899   1.489
32685SOL    HW299895  14.372   7.770   1.513
32686SOL     OW99896   0.470   0.843   4.699
32686SOL    HW199897   0.450   0.915   4.759
32686SOL    HW299898   0.404   0.850   4.630
32687SOL     OW99899   9.950   1.949   0.619
32687SOL    HW199900  10.030   1.979   0.661
32687SOL    HW299901   9.979   1.883   0.557
32688SOL     OW99902  10.866   0.521  10.777
32688SOL    HW199903  10.895   0.436  10.743
32688SOL    HW299904  10.938   0.581  10.756
32689SOL     OW99905   1.209  11.922   1.685
32689SOL    HW199906   1.231  11.982   1.756
32689SOL    HW299907   1.280  11.933   1.621
32690SOL     OW99908   9.808   0.584   7.316
32690SOL    HW199909   9.885   0.633   7.289
32690SOL    HW299910   9.791   0.524   7.243
32691SOL     OW99911   8.829  14.419   0.201
32691SOL    HW199912   8.818  14.374   0.118
32691SOL    HW299913   8.884  14.361   0.254
32692SOL     OW99914   3.784   5.700   1.634
32692SOL    HW199915   3.801   5.765   1.565
32692SOL    HW299916   3.799   5.748   1.716
32693SOL     OW99917  13.465   7.910  10.501
32693SOL    HW199918  13.509   7.874  10.424
32693SOL    HW299919  13.421   7.835  10.541
32694SOL     OW99920   3.179   1.769   6.317
32694SOL    HW199921   3.240   1.829   6.273
32694SOL    HW299922   3.232   1.722   6.380
32695SOL     OW99923   9.879   5.482   0.823
32695SOL    HW199924   9.940   5.544   0.783
32695SOL    HW299925   9.912   5.471   0.912
32696SOL     OW99926   2.089   1.430   7.320
32696SOL    HW199927   2.110   1.523   7.329
32696SOL    HW299928   2.172   1.385   7.333
32697SOL     OW99929   9.114  13.223   5.101
32697SOL    HW199930   9.136  13.288   5.167
32697SOL    HW299931   9.190  13.223   5.041
32698SOL     OW99932   0.350   6.070   4.106
32698SOL    HW199933   0.391   6.132   4.166
32698SOL    HW299934   0.423   6.031   4.057
32699SOL     OW99935   4.548   3.288   6.190
32699SOL    HW199936   4.492   3.317   6.262
32699SOL    HW299937   4.492   3.291   6.112
32700SOL     OW99938  11.945  13.387   2.156
32700SOL    HW199939  11.962  13.450   2.226
32700SOL    HW299940  11.884  13.431   2.097
32701SOL     OW99941   1.706   6.684   2.090
32701SOL    HW199942   1.785   6.687   2.145
32701SOL    HW299943   1.738   6.698   2.001
32702SOL     OW99944   6.678   0.500   9.199
32702SOL    HW199945   6.590   0.468   9.221
32702SOL    HW299946   6.664   0.556   9.122
32703SOL     OW99947   2.049  12.690  11.055
32703SOL    HW199948   2.022  12.770  11.099
32703SOL    HW299949   1.994  12.621  11.093
32704SOL     OW99950   3.119   5.177   0.307
32704SOL    HW199951   3.204   5.218   0.322
32704SOL    HW299952   3.139   5.095   0.263
32705SOL     OW99953   0.969  14.480   3.516
32705SOL    HW199954   0.912  14.517   3.584
32705SOL    HW299955   0.909  14.437   3.456
32706SOL     OW99956   7.182  10.717   2.074
32706SOL    HW199957   7.156  10.714   2.166
32706SOL    HW299958   7.101  10.739   2.027
32707SOL     OW99959  13.940  10.743   6.291
32707SOL    HW199960  13.926  10.728   6.385
32707SOL    HW299961  14.033  10.728   6.277
32708SOL     OW99962   1.269   1.488   1.997
32708SOL    HW199963   1.323   1.411   2.011
32708SOL    HW299964   1.269   1.501   1.902
32709SOL     OW99965  10.920  14.430  12.084
32709SOL    HW199966  11.007  14.425  12.045
32709SOL    HW299967  10.935  14.460  12.173
32710SOL     OW99968   0.104   8.888   5.556
32710SOL    HW199969   0.092   8.892   5.461
32710SOL    HW299970   0.192   8.924   5.570
32711SOL     OW99971   3.309   5.676   4.169
32711SOL    HW199972   3.383   5.723   4.130
32711SOL    HW299973   3.231   5.724   4.138
32712SOL     OW99974   7.582  13.423   1.370
32712SOL    HW199975   7.640  13.480   1.420
32712SOL    HW299976   7.509  13.480   1.345
32713SOL     OW99977   6.891   4.957   9.694
32713SOL    HW199978   6.963   4.895   9.703
32713SOL    HW299979   6.817   4.905   9.665
32714SOL     OW99980   4.579  10.090   7.820
32714SOL    HW199981   4.524  10.067   7.745
32714SOL    HW299982   4.644  10.151   7.784
32715SOL     OW99983   4.453   3.217  11.186
32715SOL    HW199984   4.514   3.283  11.155
32715SOL    HW299985   4.394   3.202  11.113
32716SOL     OW99986  13.310   0.861   9.825
32716SOL    HW199987  13.373   0.837   9.757
32716SOL    HW299988  13.326   0.797   9.895
32717SOL     OW99989   3.036   1.053   5.824
32717SOL    HW199990   3.060   1.145   5.831
32717SOL    HW299991   3.073   1.025   5.740
32718SOL     OW99992   3.001  14.136  10.581
32718SOL    HW199993   3.055  14.061  10.555
32718SOL    HW299994   2.968  14.172  10.499
32719SOL     OW99995   0.533   5.115   9.568
32719SOL    HW199996   0.512   5.201   9.533
32719SOL    HW299997   0.476   5.106   9.645
32720SOL     OW99998   7.930   4.972   6.368
32720SOL    HW199999   7.983   4.982   6.289
32720SOL    HW2    0   7.864   5.041   6.361
32721SOL     OW    1   1.116   9.646   9.007
32721SOL    HW1    2   1.128   9.741   9.009
32721SOL    HW2    3   1.162   9.618   8.928
32722SOL     OW    4   6.316   1.900  11.381
32722SOL    HW1    5   6.357   1.949  11.453
32722SOL    HW2    6   6.388   1.855  11.338
32723SOL     OW    7   8.993  13.252   3.226
32723SOL    HW1    8   8.935  13.185   3.189
32723SOL    HW2    9   9.081  13.218   3.210
32724SOL     OW   10  12.219   3.808   6.923
32724SOL    HW1   11  12.252   3.718   6.924
32724SOL    HW2   12  12.232   3.837   6.832
32725SOL     OW   13   9.633   5.329   0.829
32725SOL    HW1   14   9.727   5.346   0.829
32725SOL    HW2   15   9.617   5.280   0.911
32726SOL     OW   16   7.129   0.748  14.325
32726SOL    HW1   17   7.080   0.794  14.257
32726SOL    HW2   18   7.209   0.719  14.282
32727SOL     OW   19  13.400   1.139  14.805
32727SOL    HW1   20  13.384   1.106   0.014
32727SOL    HW2   21  13.328   1.102  14.753
32728SOL     OW   22   6.488  11.788  10.770
32728SOL    HW1   23   6.468  11.795  10.677
32728SOL    HW2   24   6.467  11.697  10.793
32729SOL     OW   25   5.954   9.576   1.495
32729SOL    HW1   26   5.923   9.506   1.552
32729SOL    HW2   27   5.885   9.642   1.498
32730SOL     OW   28  11.871  12.516   8.132
32730SOL    HW1   29  11.784  12.488   8.159
32730SOL    HW2   30  11.903  12.570   8.204
32731SOL     OW   31   1.676   5.234   9.326
32731SOL    HW1   32   1.708   5.231   9.236
32731SOL    HW2   33   1.621   5.313   9.329
32732SOL     OW   34  13.397   6.354   4.376
32732SOL    HW1   35  13.302   6.347   4.364
32732SOL    HW2   36  13.417   6.446   4.358
32733SOL     OW   37   2.193   0.712   8.772
32733SOL    HW1   38   2.114   0.664   8.746
32733SOL    HW2   39   2.184   0.798   8.730
32734SOL     OW   40  13.749  11.957   3.222
32734SOL    HW1   41  13.672  11.965   3.166
32734SOL    HW2   42  13.811  11.904   3.171
32735SOL     OW   43   8.504   6.189   0.852
32735SOL    HW1   44   8.569   6.260   0.858
32735SOL    HW2   45   8.556   6.109   0.850
32736SOL     OW   46   5.686   5.286   8.437
32736SOL    HW1   47   5.779   5.303   8.429
32736SOL    HW2   48   5.679   5.195   8.465
32737SOL     OW   49   0.959  10.496  14.879
32737SOL    HW1   50   0.895  10.431   0.029
32737SOL    HW2   51   1.041  10.447  14.872
32738SOL     OW   52  10.427   8.253  12.379
32738SOL    HW1   53  10.450   8.337  12.419
32738SOL    HW2   54  10.431   8.270  12.285
32739SOL     OW   55  11.379  12.668   9.382
32739SOL    HW1   56  11.309  12.646   9.321
32739SOL    HW2   57  11.431  12.734   9.336
32740SOL     OW   58  11.391  13.207   7.827
32740SOL    HW1   59  11.320  13.271   7.824
32740SOL    HW2   60  11.359  13.138   7.885
32741SOL     OW   61   1.940   2.707   1.495
32741SOL    HW1   62   1.845   2.693   1.504
32741SOL    HW2   63   1.966   2.654   1.420
32742SOL     OW   64  12.175   0.442  12.565
32742SOL    HW1   65  12.181   0.433  12.660
32742SOL    HW2   66  12.126   0.365  12.536
32743SOL     OW   67   9.513  13.944   8.411
32743SOL    HW1   68   9.503  14.031   8.372
32743SOL    HW2   69   9.592  13.952   8.465
32744SOL     OW   70   2.860   4.963   9.423
32744SOL    HW1   71   2.865   4.884   9.371
32744SOL    HW2   72   2.782   4.951   9.478
32745SOL     OW   73   0.009   3.511  13.972
32745SOL    HW1   74  14.862   3.591  14.018
32745SOL    HW2   75   0.076   3.472  14.029
32746SOL     OW   76  10.499   7.134  11.063
32746SOL    HW1   77  10.426   7.169  11.013
32746SOL    HW2   78  10.496   7.040  11.048
32747SOL     OW   79   0.980  12.462   9.635
32747SOL    HW1   80   1.074  12.464   9.616
32747SOL    HW2   81   0.969  12.517   9.712
32748SOL     OW   82   7.149   5.331  13.570
32748SOL    HW1   83   7.168   5.349  13.478
32748SOL    HW2   84   7.082   5.262  13.567
32749SOL     OW   85   6.456   9.110   8.621
32749SOL    HW1   86   6.414   9.140   8.701
32749SOL    HW2   87   6.396   9.138   8.551
32750SOL     OW   88  12.760  13.626  14.727
32750SOL    HW1   89  12.768  13.701  14.668
32750SOL    HW2   90  12.672  13.635  14.765
32751SOL     OW   91   0.403  12.654   5.793
32751SOL    HW1   92   0.314  12.681   5.769
32751SOL    HW2   93   0.455  12.734   5.786
32752SOL     OW   94  12.883  14.406   0.134
32752SOL    HW1   95  12.881  14.415   0.039
32752SOL    HW2   96  12.908  14.493   0.166
32753SOL     OW   97   2.884   1.557   3.857
32753SOL    HW1   98   2.896   1.580   3.765
32753SOL    HW2   99   2.806   1.501   3.857
32754SOL     OW  100  13.816  11.023   6.309
32754SOL    HW1  101  13.871  10.948   6.331
32754SOL    HW2  102  13.873  11.099   6.317
32755SOL     OW  103   5.789   2.949   5.802
32755SOL    HW1  104   5.814   2.884   5.736
32755SOL    HW2  105   5.873   2.983   5.834
32756SOL     OW  106   7.758   7.306   1.864
32756SOL    HW1  107   7.744   7.298   1.958
32756SOL    HW2  108   7.742   7.399   1.845
32757SOL     OW  109   0.040   0.222   3.998
32757SOL    HW1  110  14.861   0.207   4.073
32757SOL    HW2  111   0.123   0.249   4.037
32758SOL     OW  112  14.372   5.350   2.731
32758SOL    HW1  113  14.455   5.348   2.779
32758SOL    HW2  114  14.306   5.322   2.794
32759SOL     OW  115   3.165  14.482   1.468
32759SOL    HW1  116   3.229  14.551   1.480
32759SOL    HW2  117   3.181  14.422   1.541
32760SOL     OW  118   3.228   6.785   8.761
32760SOL    HW1  119   3.312   6.742   8.778
32760SOL    HW2  120   3.212   6.838   8.839
32761SOL     OW  121   7.202   5.339  12.287
32761SOL    HW1  122   7.279   5.349  12.232
32761SOL    HW2  123   7.235   5.350  12.377
32762SOL     OW  124   3.965   6.633  10.026
32762SOL    HW1  125   4.028   6.630  10.099
32762SOL    HW2  126   4.019   6.657   9.950
32763SOL     OW  127  13.742   4.380   5.801
32763SOL    HW1  128  13.663   4.326   5.799
32763SOL    HW2  129  13.720   4.455   5.745
32764SOL     OW  130   5.262   4.699   2.301
32764SOL    HW1  131   5.332   4.759   2.324
32764SOL    HW2  132   5.200   4.752   2.252
32765SOL     OW  133  13.397   5.230  13.763
32765SOL    HW1  134  13.356   5.302  13.810
32765SOL    HW2  135  13.426   5.170  13.831
32766SOL     OW  136   6.395   3.211  11.010
32766SOL    HW1  137   6.314   3.160  11.019
32766SOL    HW2  138   6.459   3.164  11.063
32767SOL     OW  139   1.423   1.599   5.664
32767SOL    HW1  140   1.377   1.629   5.585
32767SOL    HW2  141   1.513   1.586   5.635
32768SOL     OW  142   6.256  12.627   1.969
32768SOL    HW1  143   6.164  12.623   1.994
32768SOL    HW2  144   6.294  12.545   2.001
32769SOL     OW  145   2.768   0.396   4.634
32769SOL    HW1  146   2.789   0.473   4.686
32769SOL    HW2  147   2.825   0.402   4.558
32770SOL     OW  148   4.217  13.228   2.461
32770SOL    HW1  149   4.261  13.292   2.517
32770SOL    HW2  150   4.174  13.169   2.522
32771SOL     OW  151  12.080   4.477  12.422
32771SOL    HW1  152  12.023   4.553  12.425
32771SOL    HW2  153  12.072   4.436  12.508
32772SOL     OW  154  10.053  12.281   9.910
32772SOL    HW1  155  10.066  12.256  10.001
32772SOL    HW2  156  10.094  12.211   9.859
32773SOL     OW  157   2.446   1.399  10.994
32773SOL    HW1  158   2.360   1.417  10.954
32773SOL    HW2  159   2.426   1.340  11.066
32774SOL     OW  160   5.014  10.763   7.905
32774SOL    HW1  161   5.049  10.677   7.882
32774SOL    HW2  162   4.943  10.744   7.966
32775SOL     OW  163   4.851   5.329  14.784
32775SOL    HW1  164   4.916   5.259  14.787
32775SOL    HW2  165   4.845   5.362  14.874
32776SOL     OW  166   3.026   6.009   5.840
32776SOL    HW1  167   3.005   5.917   5.851
32776SOL    HW2  168   3.049   6.018   5.748
32777SOL     OW  169   2.376  11.772   4.539
32777SOL    HW1  170   2.445  11.829   4.504
32777SOL    HW2  171   2.311  11.832   4.575
32778SOL     OW  172  12.355   1.459  10.966
32778SOL    HW1  173  12.379   1.549  10.946
32778SOL    HW2  174  12.438   1.415  10.985
32779SOL     OW  175   0.129  13.087   5.646
32779SOL    HW1  176   0.042  13.052   5.625
32779SOL    HW2  177   0.141  13.161   5.587
32780SOL     OW  178   2.848   1.848   9.031
32780SOL    HW1  179   2.879   1.936   9.009
32780SOL    HW2  180   2.805   1.818   8.951
32781SOL     OW  181   0.823  14.183  10.165
32781SOL    HW1  182   0.816  14.223  10.079
32781SOL    HW2  183   0.732  14.172  10.194
32782SOL     OW  184  14.380   6.249   2.065
32782SOL    HW1  185  14.397   6.156   2.083
32782SOL    HW2  186  14.288   6.252   2.038
32783SOL     OW  187  10.444   4.085   2.624
32783SOL    HW1  188  10.429   4.144   2.698
32783SOL    HW2  189  10.358   4.076   2.583
32784SOL     OW  190  11.044   4.512  11.472
32784SOL    HW1  191  11.038   4.607  11.483
32784SOL    HW2  192  11.131   4.498  11.433
32785SOL     OW  193   6.519   4.738  11.056
32785SOL    HW1  194   6.544   4.647  11.072
32785SOL    HW2  195   6.527   4.780  11.142
32786SOL     OW  196   9.377   9.741   3.769
32786SOL    HW1  197   9.411   9.740   3.680
32786SOL    HW2  198   9.320   9.664   3.774
32787SOL     OW  199  14.676   0.038   2.435
32787SOL    HW1  200  14.591  14.876   2.440
32787SOL    HW2  201  14.723  14.869   2.367
32788SOL     OW  202  12.761   0.985  11.793
32788SOL    HW1  203  12.751   0.891  11.778
32788SOL    HW2  204  12.852   1.003  11.770
32789SOL     OW  205   6.938  13.270  13.269
32789SOL    HW1  206   7.026  13.307  13.275
32789SOL    HW2  207   6.939  13.218  13.189
32790SOL     OW  208  12.560   6.546   1.737
32790SOL    HW1  209  12.607   6.625   1.710
32790SOL    HW2  210  12.573   6.485   1.665
32791SOL     OW  211   8.027   4.089  13.617
32791SOL    HW1  212   7.992   4.000  13.610
32791SOL    HW2  213   7.998   4.133  13.537
32792SOL     OW  214  14.119   9.605  14.703
32792SOL    HW1  215  14.102   9.530  14.759
32792SOL    HW2  216  14.132   9.568  14.616
32793SOL     OW  217   0.562   8.338   8.912
32793SOL    HW1  218   0.625   8.409   8.901
32793SOL    HW2  219   0.493   8.375   8.968
32794SOL     OW  220   5.997   2.379   8.409
32794SOL    HW1  221   6.043   2.332   8.340
32794SOL    HW2  222   5.931   2.317   8.441
32795SOL     OW  223   3.379   9.851  13.801
32795SOL    HW1  224   3.375   9.816  13.712
32795SOL    HW2  225   3.404   9.777  13.855
32796SOL     OW  226  11.105   9.185   3.463
32796SOL    HW1  227  11.174   9.172   3.527
32796SOL    HW2  228  11.025   9.161   3.509
32797SOL     OW  229  11.239   9.885  11.664
32797SOL    HW1  230  11.247   9.852  11.574
32797SOL    HW2  231  11.328   9.882  11.699
32798SOL     OW  232   3.154   1.183  14.618
32798SOL    HW1  233   3.061   1.163  14.614
32798SOL    HW2  234   3.182   1.147  14.703
32799SOL     OW  235   3.486   4.294   7.862
32799SOL    HW1  236   3.450   4.339   7.938
32799SOL    HW2  237   3.435   4.327   7.788
32800SOL     OW  238   8.193   5.351  13.367
32800SOL    HW1  239   8.208   5.299  13.289
32800SOL    HW2  240   8.100   5.342  13.385
32801SOL     OW  241  10.245   5.697  12.798
32801SOL    HW1  242  10.300   5.711  12.721
32801SOL    HW2  243  10.299   5.644  12.857
32802SOL     OW  244   6.531   2.520  13.654
32802SOL    HW1  245   6.598   2.455  13.672
32802SOL    HW2  246   6.524   2.572  13.735
32803SOL     OW  247   1.596   7.037   8.737
32803SOL    HW1  248   1.634   6.968   8.683
32803SOL    HW2  249   1.568   7.104   8.675
32804SOL     OW  250   3.959   7.524   7.712
32804SOL    HW1  251   3.986   7.602   7.664
32804SOL    HW2  252   4.032   7.506   7.772
32805SOL     OW  253   5.470   5.773   3.908
32805SOL    HW1  254   5.517   5.737   3.983
32805SOL    HW2  255   5.381   5.786   3.939
32806SOL     OW  256   0.775   0.459  13.997
32806SOL    HW1  257   0.704   0.503  14.044
32806SOL    HW2  258   0.803   0.522  13.931
32807SOL     OW  259  10.178   7.490   2.679
32807SOL    HW1  260  10.205   7.436   2.753
32807SOL    HW2  261  10.232   7.459   2.606
32808SOL     OW  262   9.863  12.932   7.788
32808SOL    HW1  263   9.843  12.845   7.822
32808SOL    HW2  264   9.913  12.916   7.708
32809SOL     OW  265   4.225   5.035   8.562
32809SOL    HW1  266   4.218   5.038   8.658
32809SOL    HW2  267   4.148   5.083   8.531
32810SOL     OW  268   7.322   4.554   5.455
32810SOL    HW1  269   7.414   4.577   5.448
32810SOL    HW2  270   7.282   4.589   5.375
32811SOL     OW  271  10.074   6.248   7.220
32811SOL    HW1  272  10.135   6.215   7.154
32811SOL    HW2  273  10.075   6.343   7.209
32812SOL     OW  274   4.493   1.091  12.172
32812SOL    HW1  275   4.472   1.056  12.086
32812SOL    HW2  276   4.587   1.110  12.169
32813SOL     OW  277   1.977   5.435   5.080
32813SOL    HW1  278   1.932   5.467   5.158
32813SOL    HW2  279   1.954   5.498   5.012
32814SOL     OW  280  10.471  13.623   9.386
32814SOL    HW1  281  10.403  13.666   9.333
32814SOL    HW2  282  10.528  13.580   9.323
32815SOL     OW  283   2.150   8.353   6.848
32815SOL    HW1  284   2.239   8.320   6.837
32815SOL    HW2  285   2.095   8.293   6.799
32816SOL     OW  286   1.147  11.398   0.411
32816SOL    HW1  287   1.118  11.471   0.357
32816SOL    HW2  288   1.106  11.321   0.371
32817SOL     OW  289   4.376   6.972   4.460
32817SOL    HW1  290   4.419   6.901   4.506
32817SOL    HW2  291   4.439   7.000   4.393
32818SOL     OW  292   2.460   5.789   7.400
32818SOL    HW1  293   2.427   5.871   7.438
32818SOL    HW2  294   2.388   5.756   7.346
32819SOL     OW  295  14.522  11.018   0.083
32819SOL    HW1  296  14.462  11.012   0.008
32819SOL    HW2  297  14.552  10.928   0.097
32820SOL     OW  298   5.497  13.026   4.572
32820SOL    HW1  299   5.511  12.933   4.555
32820SOL    HW2  300   5.519  13.070   4.489
32821SOL     OW  301   3.241   8.617   7.444
32821SOL    HW1  302   3.300   8.542   7.447
32821SOL    HW2  303   3.298   8.692   7.426
32822SOL     OW  304  11.970   5.286   8.200
32822SOL    HW1  305  12.005   5.368   8.235
32822SOL    HW2  306  11.884   5.309   8.165
32823SOL     OW  307   6.313   7.915  14.606
32823SOL    HW1  308   6.273   7.827  14.606
32823SOL    HW2  309   6.238   7.975  14.607
32824SOL     OW  310  12.662   6.851   7.239
32824SOL    HW1  311  12.641   6.939   7.268
32824SOL    HW2  312  12.609   6.793   7.295
32825SOL     OW  313   1.647  10.776   8.185
32825SOL    HW1  314   1.555  10.784   8.157
32825SOL    HW2  315   1.697  10.810   8.112
32826SOL     OW  316  14.029   2.623   6.673
32826SOL    HW1  317  14.042   2.544   6.621
32826SOL    HW2  318  14.105   2.625   6.732
32827SOL     OW  319   7.277  13.089   9.911
32827SOL    HW1  320   7.368  13.076   9.936
32827SOL    HW2  321   7.246  13.159   9.969
32828SOL     OW  322   4.056   2.417  11.234
32828SOL    HW1  323   4.121   2.410  11.164
32828SOL    HW2  324   4.053   2.510  11.255
32829SOL     OW  325   1.610   3.396   8.852
32829SOL    HW1  326   1.577   3.347   8.776
32829SOL    HW2  327   1.561   3.478   8.849
32830SOL     OW  328   1.759   8.231   2.115
32830SOL    HW1  329   1.679   8.249   2.066
32830SOL    HW2  330   1.738   8.155   2.169
32831SOL     OW  331   6.696  13.685   8.167
32831SOL    HW1  332   6.707  13.727   8.252
32831SOL    HW2  333   6.631  13.617   8.182
32832SOL     OW  334   9.017   1.862  11.359
32832SOL    HW1  335   8.970   1.930  11.407
32832SOL    HW2  336   8.949   1.813  11.313
32833SOL     OW  337  13.069  13.740   2.167
32833SOL    HW1  338  13.112  13.712   2.086
32833SOL    HW2  339  13.111  13.824   2.188
32834SOL     OW  340  12.905   6.510   5.921
32834SOL    HW1  341  12.975   6.541   5.863
32834SOL    HW2  342  12.826   6.514   5.868
32835SOL     OW  343  14.026   4.688  14.483
32835SOL    HW1  344  14.056   4.774  14.513
32835SOL    HW2  345  14.006   4.700  14.391
32836SOL     OW  346  13.929   5.510   3.122
32836SOL    HW1  347  13.839   5.542   3.125
32836SOL    HW2  348  13.925   5.422   3.161
32837SOL     OW  349   8.389   8.787  12.627
32837SOL    HW1  350   8.480   8.802  12.601
32837SOL    HW2  351   8.392   8.780  12.722
32838SOL     OW  352   6.187  11.304   0.586
32838SOL    HW1  353   6.252  11.331   0.651
32838SOL    HW2  354   6.103  11.317   0.630
32839SOL     OW  355   7.694   9.875   2.162
32839SOL    HW1  356   7.702   9.788   2.200
32839SOL    HW2  357   7.620   9.868   2.101
32840SOL     OW  358   8.379   5.094   2.779
32840SOL    HW1  359   8.442   5.134   2.839
32840SOL    HW2  360   8.354   5.012   2.821
32841SOL     OW  361  13.326   7.532  13.169
32841SOL    HW1  362  13.266   7.579  13.228
32841SOL    HW2  363  13.401   7.591  13.160
32842SOL     OW  364   9.001   2.389   5.484
32842SOL    HW1  365   9.050   2.337   5.548
32842SOL    HW2  366   9.056   2.467   5.470
32843SOL     OW  367   1.807   5.844  14.423
32843SOL    HW1  368   1.716   5.876  14.420
32843SOL    HW2  369   1.837   5.869  14.510
32844SOL     OW  370  14.228   8.619   9.090
32844SOL    HW1  371  14.170   8.543   9.089
32844SOL    HW2  372  14.219   8.654   9.179
32845SOL     OW  373   2.005   9.183   1.080
32845SOL    HW1  374   2.040   9.265   1.114
32845SOL    HW2  375   2.081   9.139   1.042
32846SOL     OW  376  11.201  11.025   5.145
32846SOL    HW1  377  11.146  11.076   5.085
32846SOL    HW2  378  11.208  10.939   5.105
32847SOL     OW  379   7.994   3.422   7.656
32847SOL    HW1  380   7.982   3.482   7.729
32847SOL    HW2  381   8.079   3.382   7.673
32848SOL     OW  382  11.648   7.354   5.465
32848SOL    HW1  383  11.658   7.447   5.486
32848SOL    HW2  384  11.701   7.342   5.385
32849SOL     OW  385   8.545   9.592   3.816
32849SOL    HW1  386   8.512   9.596   3.906
32849SOL    HW2  387   8.615   9.657   3.814
32850SOL     OW  388   3.799  12.971   5.448
32850SOL    HW1  389   3.729  12.915   5.480
32850SOL    HW2  390   3.876  12.945   5.498
32851SOL     OW  391   5.779  14.877   8.654
32851SOL    HW1  392   5.734  14.794   8.635
32851SOL    HW2  393   5.827  14.860   8.735
32852SOL     OW  394   4.879  10.258  10.979
32852SOL    HW1  395   4.907  10.278  10.890
32852SOL    HW2  396   4.842  10.340  11.012
32853SOL     OW  397  10.381   8.524   0.036
32853SOL    HW1  398  10.460   8.481   0.068
32853SOL    HW2  399  10.310   8.488   0.089
32854SOL     OW  400  11.401   2.554   5.122
32854SOL    HW1  401  11.469   2.612   5.090
32854SOL    HW2  402  11.442   2.467   5.124
32855SOL     OW  403  12.404   9.743  10.421
32855SOL    HW1  404  12.447   9.658  10.413
32855SOL    HW2  405  12.390   9.771  10.331
32856SOL     OW  406  11.584   1.005  14.245
32856SOL    HW1  407  11.623   0.926  14.208
32856SOL    HW2  408  11.637   1.077  14.210
32857SOL     OW  409  10.700   6.432   7.894
32857SOL    HW1  410  10.711   6.352   7.946
32857SOL    HW2  411  10.612   6.424   7.857
32858SOL     OW  412   8.738   9.901   7.600
32858SOL    HW1  413   8.669   9.877   7.538
32858SOL    HW2  414   8.694   9.956   7.665
32859SOL     OW  415   1.375   5.866   0.272
32859SOL    HW1  416   1.433   5.933   0.237
32859SOL    HW2  417   1.309   5.915   0.320
32860SOL     OW  418   1.843   9.077   4.056
32860SOL    HW1  419   1.822   9.009   4.120
32860SOL    HW2  420   1.758   9.115   4.032
32861SOL     OW  421   6.791   8.302  10.809
32861SOL    HW1  422   6.781   8.390  10.846
32861SOL    HW2  423   6.771   8.313  10.716
32862SOL     OW  424   8.011   8.631  10.892
32862SOL    HW1  425   8.019   8.666  10.803
32862SOL    HW2  426   7.952   8.692  10.937
32863SOL     OW  427  12.532  10.058   2.548
32863SOL    HW1  428  12.607  10.067   2.606
32863SOL    HW2  429  12.456  10.070   2.605
32864SOL     OW  430   7.887  10.559   0.215
32864SOL    HW1  431   7.840  10.477   0.229
32864SOL    HW2  432   7.934  10.545   0.133
32865SOL     OW  433   7.278   6.412   5.096
32865SOL    HW1  434   7.249   6.437   5.184
32865SOL    HW2  435   7.372   6.395   5.105
32866SOL     OW  436   3.682   4.335   1.131
32866SOL    HW1  437   3.737   4.262   1.100
32866SOL    HW2  438   3.593   4.305   1.118
32867SOL     OW  439  13.049   4.143   8.959
32867SOL    HW1  440  13.115   4.101   8.903
32867SOL    HW2  441  13.061   4.237   8.944
32868SOL     OW  442  14.007  12.174   1.432
32868SOL    HW1  443  13.981  12.117   1.504
32868SOL    HW2  444  13.963  12.257   1.450
32869SOL     OW  445   9.328   4.293   8.607
32869SOL    HW1  446   9.337   4.340   8.691
32869SOL    HW2  447   9.417   4.287   8.574
32870SOL     OW  448   0.636   7.961   1.575
32870SOL    HW1  449   0.598   7.897   1.634
32870SOL    HW2  450   0.560   7.999   1.529
32871SOL     OW  451   1.418   7.340  11.118
32871SOL    HW1  452   1.461   7.367  11.199
32871SOL    HW2  453   1.455   7.254  11.098
32872SOL     OW  454   7.208  10.823  12.615
32872SOL    HW1  455   7.146  10.823  12.688
32872SOL    HW2  456   7.288  10.860  12.652
32873SOL     OW  457   8.937   8.584   1.584
32873SOL    HW1  458   8.935   8.491   1.606
32873SOL    HW2  459   9.030   8.606   1.579
32874SOL     OW  460  10.477  10.778   6.263
32874SOL    HW1  461  10.496  10.688   6.290
32874SOL    HW2  462  10.386  10.793   6.290
32875SOL     OW  463   1.502   8.763  13.844
32875SOL    HW1  464   1.412   8.781  13.816
32875SOL    HW2  465   1.502   8.779  13.938
32876SOL     OW  466   8.425  11.049   6.838
32876SOL    HW1  467   8.516  11.063   6.812
32876SOL    HW2  468   8.427  11.048   6.933
32877SOL     OW  469   1.968  12.360   2.885
32877SOL    HW1  470   2.049  12.343   2.836
32877SOL    HW2  471   1.929  12.435   2.841
32878SOL     OW  472  12.687   4.497   4.871
32878SOL    HW1  473  12.741   4.452   4.936
32878SOL    HW2  474  12.702   4.448   4.790
32879SOL     OW  475   5.048  12.708  10.522
32879SOL    HW1  476   5.018  12.799  10.531
32879SOL    HW2  477   5.143  12.713  10.529
32880SOL     OW  478  11.749   0.689  13.074
32880SOL    HW1  479  11.730   0.604  13.113
32880SOL    HW2  480  11.838   0.679  13.038
32881SOL     OW  481  12.909   6.653  12.675
32881SOL    HW1  482  12.962   6.648  12.755
32881SOL    HW2  483  12.972   6.671  12.605
32882SOL     OW  484  12.475   4.244   4.950
32882SOL    HW1  485  12.500   4.268   5.039
32882SOL    HW2  486  12.442   4.155   4.958
32883SOL     OW  487   5.990   9.817  11.720
32883SOL    HW1  488   6.083   9.841  11.725
32883SOL    HW2  489   5.989   9.733  11.674
32884SOL     OW  490   5.736   5.648   3.341
32884SOL    HW1  491   5.702   5.594   3.413
32884SOL    HW2  492   5.778   5.722   3.384
32885SOL     OW  493  11.022   3.288   7.282
32885SOL    HW1  494  11.012   3.196   7.305
32885SOL    HW2  495  11.103   3.315   7.326
32886SOL     OW  496   2.927  12.616  14.087
32886SOL    HW1  497   2.953  12.657  14.005
32886SOL    HW2  498   2.921  12.689  14.150
32887SOL     OW  499  11.363   4.395  12.128
32887SOL    HW1  500  11.326   4.320  12.083
32887SOL    HW2  501  11.291   4.458  12.136
32888SOL     OW  502   3.000   0.276   2.482
32888SOL    HW1  503   3.089   0.262   2.448
32888SOL    HW2  504   3.001   0.366   2.516
32889SOL     OW  505   7.873   2.795   0.000
32889SOL    HW1  506   7.851   2.853   0.073
32889SOL    HW2  507   7.939   2.842  14.830
32890SOL     OW  508   3.994  11.311   1.664
32890SOL    HW1  509   3.996  11.292   1.758
32890SOL    HW2  510   4.027  11.232   1.622
32891SOL     OW  511   9.368   3.540   4.394
32891SOL    HW1  512   9.384   3.628   4.428
32891SOL    HW2  513   9.351   3.553   4.301
32892SOL     OW  514  12.612  12.825   1.427
32892SOL    HW1  515  12.545  12.884   1.392
32892SOL    HW2  516  12.619  12.850   1.519
32893SOL     OW  517   5.643   1.277  13.360
32893SOL    HW1  518   5.681   1.355  13.401
32893SOL    HW2  519   5.708   1.250  13.296
32894SOL     OW  520   8.683   1.149   7.766
32894SOL    HW1  521   8.776   1.127   7.776
32894SOL    HW2  522   8.660   1.194   7.848
32895SOL     OW  523   8.278  12.048   0.934
32895SOL    HW1  524   8.253  12.111   1.001
32895SOL    HW2  525   8.214  11.977   0.943
32896SOL     OW  526   3.684   8.771   3.007
32896SOL    HW1  527   3.752   8.836   3.028
32896SOL    HW2  528   3.660   8.790   2.916
32897SOL     OW  529   9.641   7.542   1.842
32897SOL    HW1  530   9.592   7.546   1.760
32897SOL    HW2  531   9.733   7.549   1.815
32898SOL     OW  532  11.882   7.318  11.996
32898SOL    HW1  533  11.953   7.307  12.059
32898SOL    HW2  534  11.910   7.392  11.942
32899SOL     OW  535   5.784   4.619   5.524
32899SOL    HW1  536   5.807   4.653   5.611
32899SOL    HW2  537   5.852   4.553   5.505
32900SOL     OW  538   6.419   2.081   2.764
32900SOL    HW1  539   6.343   2.140   2.762
32900SOL    HW2  540   6.488   2.131   2.720
32901SOL     OW  541   6.215  13.514   3.315
32901SOL    HW1  542   6.293  13.568   3.321
32901SOL    HW2  543   6.199  13.504   3.221
32902SOL     OW  544   7.473   5.791  11.563
32902SOL    HW1  545   7.419   5.784  11.641
32902SOL    HW2  546   7.472   5.884  11.541
32903SOL     OW  547   2.028  13.115   8.411
32903SOL    HW1  548   2.067  13.154   8.489
32903SOL    HW2  549   1.950  13.070   8.443
32904SOL     OW  550   8.240   5.126  13.562
32904SOL    HW1  551   8.259   5.200  13.503
32904SOL    HW2  552   8.264   5.049  13.511
32905SOL     OW  553   6.587  12.738   6.240
32905SOL    HW1  554   6.547  12.819   6.274
32905SOL    HW2  555   6.603  12.756   6.147
32906SOL     OW  556   3.856  14.532   4.010
32906SOL    HW1  557   3.931  14.586   4.032
32906SOL    HW2  558   3.872  14.449   4.056
32907SOL     OW  559  14.578   4.595  12.334
32907SOL    HW1  560  14.559   4.668  12.393
32907SOL    HW2  561  14.499   4.586  12.281
32908SOL     OW  562  13.534  13.587   7.958
32908SOL    HW1  563  13.625  13.572   7.982
32908SOL    HW2  564  13.538  13.657   7.892
32909SOL     OW  565  12.056  11.716  13.333
32909SOL    HW1  566  11.996  11.769  13.386
32909SOL    HW2  567  12.020  11.627  13.340
32910SOL     OW  568   9.008  12.321  14.101
32910SOL    HW1  569   9.096  12.320  14.137
32910SOL    HW2  570   8.955  12.365  14.168
32911SOL     OW  571   9.962   7.679  12.417
32911SOL    HW1  572   9.870   7.656  12.421
32911SOL    HW2  573   9.966   7.753  12.357
32912SOL     OW  574   4.636   4.037  13.292
32912SOL    HW1  575   4.635   4.094  13.215
32912SOL    HW2  576   4.575   3.966  13.270
32913SOL     OW  577  10.780   0.565   2.177
32913SOL    HW1  578  10.853   0.526   2.224
32913SOL    HW2  579  10.731   0.613   2.243
32914SOL     OW  580   7.144   6.904   1.221
32914SOL    HW1  581   7.172   6.988   1.187
32914SOL    HW2  582   7.208   6.841   1.187
32915SOL     OW  583   2.651  10.744   3.468
32915SOL    HW1  584   2.623  10.824   3.512
32915SOL    HW2  585   2.609  10.673   3.518
32916SOL     OW  586  13.090   2.721   0.692
32916SOL    HW1  587  13.133   2.646   0.652
32916SOL    HW2  588  13.154   2.756   0.754
32917SOL     OW  589  13.912   9.754  11.669
32917SOL    HW1  590  13.891   9.667  11.701
32917SOL    HW2  591  13.856   9.813  11.720
32918SOL     OW  592  10.342  10.563   4.669
32918SOL    HW1  593  10.248  10.544   4.673
32918SOL    HW2  594  10.347  10.659   4.666
32919SOL     OW  595   5.835   2.150  12.083
32919SOL    HW1  596   5.801   2.063  12.104
32919SOL    HW2  597   5.809   2.205  12.158
32920SOL     OW  598   0.413   4.298   3.639
32920SOL    HW1  599   0.373   4.363   3.697
32920SOL    HW2  600   0.443   4.229   3.697
32921SOL     OW  601  13.618   6.817  12.202
32921SOL    HW1  602  13.634   6.833  12.295
32921SOL    HW2  603  13.548   6.878  12.179
32922SOL     OW  604  10.256   8.791  14.455
32922SOL    HW1  605  10.234   8.723  14.519
32922SOL    HW2  606  10.301   8.744  14.385
32923SOL     OW  607  12.290   1.040   8.990
32923SOL    HW1  608  12.355   1.064   8.923
32923SOL    HW2  609  12.228   1.113   8.990
32924SOL     OW  610   4.954   4.547   9.398
32924SOL    HW1  611   5.015   4.473   9.396
32924SOL    HW2  612   4.989   4.604   9.467
32925SOL     OW  613   4.310   7.511   8.536
32925SOL    HW1  614   4.262   7.592   8.552
32925SOL    HW2  615   4.397   7.540   8.507
32926SOL     OW  616   7.742   8.071   9.783
32926SOL    HW1  617   7.804   8.104   9.719
32926SOL    HW2  618   7.657   8.077   9.740
32927SOL     OW  619   4.620   9.184  10.120
32927SOL    HW1  620   4.531   9.169  10.149
32927SOL    HW2  621   4.673   9.179  10.200
32928SOL     OW  622  11.276  13.067  10.303
32928SOL    HW1  623  11.213  13.003  10.337
32928SOL    HW2  624  11.321  13.021  10.233
32929SOL     OW  625  10.400  12.879   9.026
32929SOL    HW1  626  10.396  12.942   9.097
32929SOL    HW2  627  10.488  12.888   8.990
32930SOL     OW  628   4.845   2.256  13.925
32930SOL    HW1  629   4.820   2.263  14.017
32930SOL    HW2  630   4.812   2.170  13.898
32931SOL     OW  631   9.270  11.556   8.110
32931SOL    HW1  632   9.321  11.635   8.128
32931SOL    HW2  633   9.182  11.587   8.090
32932SOL     OW  634   8.464  11.588   9.128
32932SOL    HW1  635   8.410  11.598   9.050
32932SOL    HW2  636   8.527  11.519   9.105
32933SOL     OW  637   9.034   7.048   8.456
32933SOL    HW1  638   9.029   6.963   8.498
32933SOL    HW2  639   9.127   7.060   8.438
32934SOL     OW  640  10.703   7.017  10.705
32934SOL    HW1  641  10.635   7.072  10.666
32934SOL    HW2  642  10.660   6.932  10.719
32935SOL     OW  643   7.362   3.762  13.482
32935SOL    HW1  644   7.291   3.699  13.473
32935SOL    HW2  645   7.319   3.847  13.476
32936SOL     OW  646   0.693  12.537   5.643
32936SOL    HW1  647   0.636  12.570   5.713
32936SOL    HW2  648   0.632  12.516   5.571
32937SOL     OW  649  13.956  13.453   6.491
32937SOL    HW1  650  14.039  13.438   6.536
32937SOL    HW2  651  13.967  13.537   6.447
32938SOL     OW  652   9.247  10.160   5.127
32938SOL    HW1  653   9.180  10.201   5.072
32938SOL    HW2  654   9.328  10.169   5.076
32939SOL     OW  655   3.162   0.256  13.954
32939SOL    HW1  656   3.161   0.167  13.918
32939SOL    HW2  657   3.115   0.308  13.889
32940SOL     OW  658  14.061  11.698   6.226
32940SOL    HW1  659  14.085  11.740   6.309
32940SOL    HW2  660  13.973  11.663   6.242
32941SOL     OW  661   2.903   1.720   4.209
32941SOL    HW1  662   2.893   1.753   4.119
32941SOL    HW2  663   2.853   1.781   4.263
32942SOL     OW  664   5.251   6.731  14.124
32942SOL    HW1  665   5.201   6.661  14.168
32942SOL    HW2  666   5.265   6.698  14.036
32943SOL     OW  667  12.722   0.560   5.529
32943SOL    HW1  668  12.707   0.655   5.529
32943SOL    HW2  669  12.691   0.531   5.614
32944SOL     OW  670  13.396   4.132  14.004
32944SOL    HW1  671  13.350   4.120  14.087
32944SOL    HW2  672  13.468   4.069  14.007
32945SOL     OW  673   5.017   9.707  12.318
32945SOL    HW1  674   5.043   9.772  12.253
32945SOL    HW2  675   5.002   9.627  12.267
32946SOL     OW  676  10.235   8.669  12.361
32946SOL    HW1  677  10.278   8.720  12.293
32946SOL    HW2  678  10.258   8.713  12.443
32947SOL     OW  679   7.317  10.997   9.335
32947SOL    HW1  680   7.224  10.972   9.334
32947SOL    HW2  681   7.359  10.933   9.278
32948SOL     OW  682   5.174   7.945   0.401
32948SOL    HW1  683   5.226   7.878   0.445
32948SOL    HW2  684   5.124   7.987   0.471
32949SOL     OW  685  14.292  13.708   6.424
32949SOL    HW1  686  14.249  13.786   6.390
32949SOL    HW2  687  14.362  13.742   6.480
32950SOL     OW  688  12.057   1.641  13.334
32950SOL    HW1  689  12.048   1.641  13.429
32950SOL    HW2  690  11.973   1.610  13.301
32951SOL     OW  691  14.443   4.988   0.935
32951SOL    HW1  692  14.482   5.074   0.920
32951SOL    HW2  693  14.353   4.996   0.905
32952SOL     OW  694   4.952   4.476   1.429
32952SOL    HW1  695   4.891   4.549   1.443
32952SOL    HW2  696   5.039   4.517   1.430
32953SOL     OW  697   2.868   5.822  10.788
32953SOL    HW1  698   2.947   5.867  10.819
32953SOL    HW2  699   2.796   5.877  10.820
32954SOL     OW  700  10.773   2.596   2.733
32954SOL    HW1  701  10.770   2.692   2.724
32954SOL    HW2  702  10.683   2.568   2.716
32955SOL     OW  703   4.962  12.054  11.193
32955SOL    HW1  704   4.947  12.090  11.280
32955SOL    HW2  705   4.999  12.128  11.143
32956SOL     OW  706   7.299   8.814   8.398
32956SOL    HW1  707   7.313   8.758   8.474
32956SOL    HW2  708   7.364   8.784   8.334
32957SOL     OW  709   6.668   7.766  13.488
32957SOL    HW1  710   6.716   7.695  13.529
32957SOL    HW2  711   6.726   7.842  13.493
32958SOL     OW  712  13.427   0.922  12.273
32958SOL    HW1  713  13.409   0.948  12.364
32958SOL    HW2  714  13.373   0.981  12.221
32959SOL     OW  715   2.623   6.595   5.844
32959SOL    HW1  716   2.605   6.502   5.858
32959SOL    HW2  717   2.683   6.597   5.770
32960SOL     OW  718   5.761   3.031   9.825
32960SOL    HW1  719   5.783   3.072   9.909
32960SOL    HW2  720   5.739   2.941   9.847
32961SOL     OW  721   9.401   1.850   9.072
32961SOL    HW1  722   9.372   1.772   9.024
32961SOL    HW2  723   9.469   1.818   9.131
32962SOL     OW  724   2.695   2.424   3.752
32962SOL    HW1  725   2.607   2.396   3.730
32962SOL    HW2  726   2.705   2.509   3.709
32963SOL     OW  727   8.863   1.717   0.258
32963SOL    HW1  728   8.954   1.742   0.271
32963SOL    HW2  729   8.822   1.729   0.344
32964SOL     OW  730  14.845  12.330   5.560
32964SOL    HW1  731  14.826  12.357   5.650
32964SOL    HW2  732  14.800  12.395   5.506
32965SOL     OW  733   2.748   1.057   3.283
32965SOL    HW1  734   2.736   1.145   3.247
32965SOL    HW2  735   2.806   1.013   3.220
32966SOL     OW  736   1.899   7.898   0.843
32966SOL    HW1  737   1.955   7.850   0.782
32966SOL    HW2  738   1.929   7.989   0.837
32967SOL     OW  739  13.404  14.797  12.563
32967SOL    HW1  740  13.350  14.759  12.632
32967SOL    HW2  741  13.362  14.770  12.482
32968SOL     OW  742  11.064   0.404   1.727
32968SOL    HW1  743  10.994   0.339   1.723
32968SOL    HW2  744  11.054   0.444   1.814
32969SOL     OW  745   4.747   5.325   9.251
32969SOL    HW1  746   4.711   5.413   9.264
32969SOL    HW2  747   4.673   5.266   9.266
32970SOL     OW  748   5.015   3.254   2.033
32970SOL    HW1  749   5.094   3.285   2.077
32970SOL    HW2  750   5.035   3.260   1.940
32971SOL     OW  751   5.507  12.046   2.333
32971SOL    HW1  752   5.492  11.998   2.414
32971SOL    HW2  753   5.440  12.115   2.333
32972SOL     OW  754   7.501   0.670   5.243
32972SOL    HW1  755   7.592   0.651   5.262
32972SOL    HW2  756   7.461   0.690   5.328
32973SOL     OW  757   6.190   2.491   2.710
32973SOL    HW1  758   6.232   2.540   2.639
32973SOL    HW2  759   6.100   2.481   2.682
32974SOL     OW  760  14.874   4.251   5.070
32974SOL    HW1  761  14.845   4.175   5.019
32974SOL    HW2  762   0.059   4.215   5.131
32975SOL     OW  763   2.255   3.113  11.984
32975SOL    HW1  764   2.186   3.098  11.919
32975SOL    HW2  765   2.317   3.041  11.969
32976SOL     OW  766  10.058   1.126   0.510
32976SOL    HW1  767  10.055   1.034   0.484
32976SOL    HW2  768  10.038   1.125   0.604
32977SOL     OW  769  10.737   0.197   4.356
32977SOL    HW1  770  10.814   0.166   4.308
32977SOL    HW2  771  10.666   0.195   4.292
32978SOL     OW  772  14.353   8.677  14.740
32978SOL    HW1  773  14.430   8.732  14.755
32978SOL    HW2  774  14.366   8.639  14.654
32979SOL     OW  775   5.847  11.396   4.447
32979SOL    HW1  776   5.767  11.344   4.447
32979SOL    HW2  777   5.832  11.464   4.513
32980SOL     OW  778  13.261   7.844   6.553
32980SOL    HW1  779  13.198   7.907   6.586
32980SOL    HW2  780  13.208   7.769   6.526
32981SOL     OW  781   4.440   2.126  10.063
32981SOL    HW1  782   4.390   2.093   9.988
32981SOL    HW2  783   4.394   2.091  10.139
32982SOL     OW  784   8.278   8.943   8.992
32982SOL    HW1  785   8.339   9.014   8.970
32982SOL    HW2  786   8.325   8.890   9.056
32983SOL     OW  787   1.289  13.378   6.036
32983SOL    HW1  788   1.278  13.295   5.989
32983SOL    HW2  789   1.262  13.445   5.974
32984SOL     OW  790  11.400  11.409   0.285
32984SOL    HW1  791  11.483  11.445   0.315
32984SOL    HW2  792  11.423  11.353   0.211
32985SOL     OW  793   5.891   6.497   0.922
32985SOL    HW1  794   5.961   6.561   0.910
32985SOL    HW2  795   5.935   6.412   0.915
32986SOL     OW  796   0.731   7.975  14.390
32986SOL    HW1  797   0.639   7.956  14.410
32986SOL    HW2  798   0.781   7.918  14.449
32987SOL     OW  799   1.636   0.381   6.958
32987SOL    HW1  800   1.547   0.391   6.924
32987SOL    HW2  801   1.667   0.471   6.970
32988SOL     OW  802  11.475   1.068   9.122
32988SOL    HW1  803  11.505   0.992   9.172
32988SOL    HW2  804  11.436   1.031   9.043
32989SOL     OW  805   5.011   5.538   0.682
32989SOL    HW1  806   5.103   5.514   0.673
32989SOL    HW2  807   5.002   5.566   0.772
32990SOL     OW  808   5.210  11.962   4.572
32990SOL    HW1  809   5.139  12.002   4.523
32990SOL    HW2  810   5.270  11.928   4.505
32991SOL     OW  811   8.128  13.301   4.796
32991SOL    HW1  812   8.221  13.278   4.801
32991SOL    HW2  813   8.106  13.332   4.884
32992SOL     OW  814   8.269  12.838   8.551
32992SOL    HW1  815   8.317  12.862   8.472
32992SOL    HW2  816   8.183  12.812   8.520
32993SOL     OW  817   1.717  14.643   4.205
32993SOL    HW1  818   1.761  14.625   4.288
32993SOL    HW2  819   1.637  14.690   4.231
32994SOL     OW  820   2.164   8.838  14.851
32994SOL    HW1  821   2.216   8.918  14.842
32994SOL    HW2  822   2.224   8.775   0.011
32995SOL     OW  823  11.245  10.223   4.845
32995SOL    HW1  824  11.219  10.307   4.882
32995SOL    HW2  825  11.335  10.210   4.877
32996SOL     OW  826   1.510  10.712   0.275
32996SOL    HW1  827   1.531  10.779   0.210
32996SOL    HW2  828   1.480  10.637   0.223
32997SOL     OW  829  12.124   2.649   9.522
32997SOL    HW1  830  12.032   2.627   9.531
32997SOL    HW2  831  12.154   2.598   9.447
32998SOL     OW  832  10.513  13.835   5.360
32998SOL    HW1  833  10.554  13.827   5.274
32998SOL    HW2  834  10.487  13.746   5.382
32999SOL     OW  835   0.555   2.702   7.545
32999SOL    HW1  836   0.547   2.624   7.600
32999SOL    HW2  837   0.466   2.734   7.533
33000SOL     OW  838  12.305   9.186   3.446
33000SOL    HW1  839  12.231   9.186   3.507
33000SOL    HW2  840  12.264   9.182   3.359
33001SOL     OW  841  14.598   7.713  12.026
33001SOL    HW1  842  14.591   7.736  11.933
33001SOL    HW2  843  14.690   7.689  12.038
33002SOL     OW  844  10.485   4.908   0.345
33002SOL    HW1  845  10.573   4.917   0.382
33002SOL    HW2  846  10.498   4.875   0.257
33003SOL     OW  847  10.007   6.101  12.206
33003SOL    HW1  848   9.984   6.110  12.298
33003SOL    HW2  849   9.973   6.180  12.165
33004SOL     OW  850   2.272  10.100   2.209
33004SOL    HW1  851   2.333  10.169   2.181
33004SOL    HW2  852   2.252  10.122   2.300
33005SOL     OW  853   0.228  12.352   5.501
33005SOL    HW1  854   0.238  12.280   5.439
33005SOL    HW2  855   0.136  12.378   5.494
33006SOL     OW  856  14.873   2.974   7.431
33006SOL    HW1  857   0.031   3.010   7.512
33006SOL    HW2  858   0.016   2.881   7.433
33007SOL     OW  859   7.574   0.175   6.603
33007SOL    HW1  860   7.626   0.130   6.536
33007SOL    HW2  861   7.571   0.113   6.676
33008SOL     OW  862   6.177  12.621  10.285
33008SOL    HW1  863   6.154  12.638  10.376
33008SOL    HW2  864   6.125  12.543  10.262
33009SOL     OW  865  10.629  11.511   9.849
33009SOL    HW1  866  10.543  11.493   9.887
33009SOL    HW2  867  10.650  11.431   9.800
33010SOL     OW  868   7.281   7.018   0.166
33010SOL    HW1  869   7.208   6.981   0.117
33010SOL    HW2  870   7.290   7.107   0.133
33011SOL     OW  871   7.895  11.061   4.739
33011SOL    HW1  872   7.801  11.044   4.740
33011SOL    HW2  873   7.917  11.066   4.646
33012SOL     OW  874   2.767  10.133   4.770
33012SOL    HW1  875   2.854  10.151   4.733
33012SOL    HW2  876   2.785  10.092   4.854
33013SOL     OW  877   3.869   5.907   0.983
33013SOL    HW1  878   3.810   5.843   0.941
33013SOL    HW2  879   3.827   5.927   1.066
33014SOL     OW  880   5.168  10.051  10.070
33014SOL    HW1  881   5.185  10.076  10.161
33014SOL    HW2  882   5.222  10.110  10.018
33015SOL     OW  883   3.200   5.964   3.620
33015SOL    HW1  884   3.212   5.876   3.656
33015SOL    HW2  885   3.181   6.019   3.696
33016SOL     OW  886   3.695   1.023   1.083
33016SOL    HW1  887   3.775   0.999   1.036
33016SOL    HW2  888   3.626   1.014   1.018
33017SOL     OW  889  11.600   3.823   5.408
33017SOL    HW1  890  11.588   3.789   5.320
33017SOL    HW2  891  11.512   3.827   5.445
33018SOL     OW  892   7.887   3.894   5.120
33018SOL    HW1  893   7.936   3.852   5.190
33018SOL    HW2  894   7.796   3.869   5.136
33019SOL     OW  895  10.246  11.160  12.717
33019SOL    HW1  896  10.210  11.176  12.805
33019SOL    HW2  897  10.341  11.160  12.730
33020SOL     OW  898   1.756   7.862  11.012
33020SOL    HW1  899   1.815   7.895  10.945
33020SOL    HW2  900   1.766   7.767  11.008
33021SOL     OW  901  13.552  11.826  11.592
33021SOL    HW1  902  13.496  11.771  11.647
33021SOL    HW2  903  13.516  11.815  11.504
33022SOL     OW  904   4.841   5.325  10.386
33022SOL    HW1  905   4.873   5.246  10.342
33022SOL    HW2  906   4.877   5.320  10.474
33023SOL     OW  907   9.500   7.806  10.891
33023SOL    HW1  908   9.489   7.735  10.828
33023SOL    HW2  909   9.578   7.852  10.860
33024SOL     OW  910   0.758   5.338   4.285
33024SOL    HW1  911   0.846   5.362   4.315
33024SOL    HW2  912   0.754   5.243   4.298
33025SOL     OW  913  10.061  11.270  11.709
33025SOL    HW1  914  10.043  11.259  11.615
33025SOL    HW2  915  10.070  11.365  11.720
33026SOL     OW  916   7.461   7.149   8.746
33026SOL    HW1  917   7.460   7.146   8.650
33026SOL    HW2  918   7.420   7.233   8.768
33027SOL     OW  919   5.397   0.130   6.475
33027SOL    HW1  920   5.394   0.072   6.551
33027SOL    HW2  921   5.360   0.078   6.404
33028SOL     OW  922   3.710  12.299  11.179
33028SOL    HW1  923   3.722  12.205  11.195
33028SOL    HW2  924   3.789  12.325  11.131
33029SOL     OW  925   0.294  14.746  12.085
33029SOL    HW1  926   0.351  14.678  12.122
33029SOL    HW2  927   0.300  14.734  11.991
33030SOL     OW  928  12.231   1.163   4.387
33030SOL    HW1  929  12.237   1.210   4.471
33030SOL    HW2  930  12.200   1.229   4.325
33031SOL     OW  931   2.119  11.037   1.731
33031SOL    HW1  932   2.100  11.060   1.640
33031SOL    HW2  933   2.047  10.979   1.756
33032SOL     OW  934   1.374   7.816  12.678
33032SOL    HW1  935   1.448   7.876  12.681
33032SOL    HW2  936   1.384   7.768  12.596
33033SOL     OW  937   9.116   2.293   9.734
33033SOL    HW1  938   9.142   2.228   9.669
33033SOL    HW2  939   9.162   2.265   9.814
33034SOL     OW  940   0.836  10.044   1.332
33034SOL    HW1  941   0.882  10.120   1.367
33034SOL    HW2  942   0.785  10.011   1.406
33035SOL     OW  943   7.970   7.782   3.840
33035SOL    HW1  944   7.884   7.751   3.811
33035SOL    HW2  945   7.951   7.863   3.887
33036SOL     OW  946   7.114   6.563   5.521
33036SOL    HW1  947   7.184   6.518   5.474
33036SOL    HW2  948   7.157   6.640   5.559
33037SOL     OW  949   1.202  13.734   3.705
33037SOL    HW1  950   1.132  13.684   3.748
33037SOL    HW2  951   1.156  13.806   3.662
33038SOL     OW  952   8.437  14.591   4.007
33038SOL    HW1  953   8.385  14.592   4.088
33038SOL    HW2  954   8.472  14.502   4.003
33039SOL     OW  955   9.774  13.173   1.014
33039SOL    HW1  956   9.739  13.105   1.072
33039SOL    HW2  957   9.826  13.125   0.949
33040SOL     OW  958   1.666  11.786  10.264
33040SOL    HW1  959   1.666  11.703  10.217
33040SOL    HW2  960   1.758  11.808  10.275
33041SOL     OW  961  12.886   4.727  14.586
33041SOL    HW1  962  12.864   4.727  14.493
33041SOL    HW2  963  12.958   4.665  14.594
33042SOL     OW  964  11.931   4.270   9.235
33042SOL    HW1  965  11.911   4.360   9.259
33042SOL    HW2  966  11.953   4.227   9.318
33043SOL     OW  967   0.859   5.350   6.358
33043SOL    HW1  968   0.908   5.365   6.439
33043SOL    HW2  969   0.812   5.268   6.373
33044SOL     OW  970  11.157  13.801   9.438
33044SOL    HW1  971  11.191  13.754   9.362
33044SOL    HW2  972  11.073  13.836   9.409
33045SOL     OW  973  12.935  13.654   1.217
33045SOL    HW1  974  12.894  13.668   1.302
33045SOL    HW2  975  12.969  13.564   1.221
33046SOL     OW  976   3.575  12.401   0.130
33046SOL    HW1  977   3.591  12.488   0.094
33046SOL    HW2  978   3.646  12.347   0.093
33047SOL     OW  979   5.937   6.317   9.099
33047SOL    HW1  980   6.030   6.335   9.112
33047SOL    HW2  981   5.897   6.403   9.086
33048SOL     OW  982   6.367   5.474   5.315
33048SOL    HW1  983   6.352   5.538   5.385
33048SOL    HW2  984   6.298   5.493   5.251
33049SOL     OW  985   3.988   6.495   5.732
33049SOL    HW1  986   3.925   6.566   5.747
33049SOL    HW2  987   3.951   6.420   5.778
33050SOL     OW  988  14.095   8.708   8.344
33050SOL    HW1  989  14.015   8.718   8.293
33050SOL    HW2  990  14.155   8.773   8.307
33051SOL     OW  991   9.496  12.558  11.106
33051SOL    HW1  992   9.578  12.603  11.088
33051SOL    HW2  993   9.500  12.478  11.053
33052SOL     OW  994   4.109  14.104  14.479
33052SOL    HW1  995   4.159  14.156  14.541
33052SOL    HW2  996   4.147  14.126  14.394
33053SOL     OW  997   9.329  13.456   0.098
33053SOL    HW1  998   9.311  13.546   0.070
33053SOL    HW2  999   9.245  13.424   0.132
33054SOL     OW 1000  14.016  10.203  12.814
33054SOL    HW1 1001  13.985  10.217  12.725
33054SOL    HW2 1002  13.944  10.156  12.857
33055SOL     OW 1003   5.037   7.757   3.272
33055SOL    HW1 1004   5.128   7.779   3.251
33055SOL    HW2 1005   5.014   7.688   3.210
33056SOL     OW 1006  11.082  12.424   4.725
33056SOL    HW1 1007  11.131  12.348   4.756
33056SOL    HW2 1008  11.005  12.386   4.682
33057SOL     OW 1009   3.610   5.011   8.309
33057SOL    HW1 1010   3.648   5.088   8.269
33057SOL    HW2 1011   3.516   5.018   8.290
33058SOL     OW 1012  14.338   3.946   0.422
33058SOL    HW1 1013  14.252   3.927   0.384
33058SOL    HW2 1014  14.336   3.903   0.508
33059SOL     OW 1015  11.079   1.318   6.675
33059SOL    HW1 1016  11.135   1.382   6.633
33059SOL    HW2 1017  11.137   1.270   6.734
33060SOL     OW 1018   0.512  14.589  11.439
33060SOL    HW1 1019   0.605  14.568  11.453
33060SOL    HW2 1020   0.510  14.636  11.356
33061SOL     OW 1021  13.362  10.336   3.769
33061SOL    HW1 1022  13.405  10.417   3.794
33061SOL    HW2 1023  13.339  10.349   3.676
33062SOL     OW 1024  11.723   4.066   9.214
33062SOL    HW1 1025  11.761   4.147   9.178
33062SOL    HW2 1026  11.798   4.017   9.247
33063SOL     OW 1027  14.748   7.093   8.809
33063SOL    HW1 1028  14.749   7.023   8.743
33063SOL    HW2 1029  14.838   7.127   8.808
33064SOL     OW 1030  13.069  10.463   7.041
33064SOL    HW1 1031  12.984  10.503   7.027
33064SOL    HW2 1032  13.051  10.369   7.041
33065SOL     OW 1033   2.734  13.876   2.961
33065SOL    HW1 1034   2.788  13.918   2.893
33065SOL    HW2 1035   2.795  13.862   3.034
33066SOL     OW 1036   8.160   7.259   2.209
33066SOL    HW1 1037   8.221   7.241   2.280
33066SOL    HW2 1038   8.164   7.354   2.198
33067SOL     OW 1039   2.468  10.696   1.233
33067SOL    HW1 1040   2.429  10.659   1.312
33067SOL    HW2 1041   2.456  10.791   1.242
33068SOL     OW 1042   3.565   8.424   0.271
33068SOL    HW1 1043   3.609   8.339   0.281
33068SOL    HW2 1044   3.636   8.488   0.277
33069SOL     OW 1045   5.869   1.042   1.919
33069SOL    HW1 1046   5.793   1.014   1.869
33069SOL    HW2 1047   5.837   1.116   1.971
33070SOL     OW 1048  10.970   1.817   8.061
33070SOL    HW1 1049  11.030   1.879   8.103
33070SOL    HW2 1050  10.888   1.865   8.052
33071SOL     OW 1051   9.654   2.678  13.194
33071SOL    HW1 1052   9.611   2.739  13.134
33071SOL    HW2 1053   9.583   2.633  13.239
33072SOL     OW 1054  13.863   1.379   3.652
33072SOL    HW1 1055  13.863   1.285   3.672
33072SOL    HW2 1056  13.812   1.419   3.722
33073SOL     OW 1057   0.871   9.619   6.262
33073SOL    HW1 1058   0.857   9.533   6.302
33073SOL    HW2 1059   0.966   9.632   6.264
33074SOL     OW 1060  11.447   9.935   2.339
33074SOL    HW1 1061  11.423   9.856   2.387
33074SOL    HW2 1062  11.441   9.909   2.247
33075SOL     OW 1063   4.684   3.255   2.727
33075SOL    HW1 1064   4.624   3.301   2.669
33075SOL    HW2 1065   4.675   3.162   2.704
33076SOL     OW 1066   7.187  13.098   6.375
33076SOL    HW1 1067   7.215  13.162   6.441
33076SOL    HW2 1068   7.155  13.151   6.302
33077SOL     OW 1069  12.614  12.537  13.837
33077SOL    HW1 1070  12.543  12.582  13.790
33077SOL    HW2 1071  12.569  12.481  13.900
33078SOL     OW 1072   7.590   2.276   2.849
33078SOL    HW1 1073   7.678   2.311   2.834
33078SOL    HW2 1074   7.546   2.341   2.904
33079SOL     OW 1075  11.112  14.501   3.487
33079SOL    HW1 1076  11.153  14.518   3.572
33079SOL    HW2 1077  11.125  14.582   3.437
33080SOL     OW 1078   5.914   2.731  12.164
33080SOL    HW1 1079   5.889   2.687  12.246
33080SOL    HW2 1080   6.002   2.764  12.180
33081SOL     OW 1081  14.867   9.270   0.982
33081SOL    HW1 1082  14.814   9.315   1.047
33081SOL    HW2 1083  14.820   9.282   0.900
33082SOL     OW 1084   7.699   1.691   6.908
33082SOL    HW1 1085   7.748   1.609   6.908
33082SOL    HW2 1086   7.716   1.730   6.822
33083SOL     OW 1087  13.304   0.106  13.806
33083SOL    HW1 1088  13.396   0.124  13.788
33083SOL    HW2 1089  13.306   0.040  13.876
33084SOL     OW 1090   1.164   4.371   1.927
33084SOL    HW1 1091   1.143   4.296   1.982
33084SOL    HW2 1092   1.103   4.439   1.954
33085SOL     OW 1093  14.861   9.534  12.597
33085SOL    HW1 1094   0.053   9.588  12.564
33085SOL    HW2 1095  14.817   9.589  12.662
33086SOL     OW 1096  11.156   7.148   1.519
33086SOL    HW1 1097  11.237   7.192   1.543
33086SOL    HW2 1098  11.142   7.083   1.587
33087SOL     OW 1099   3.204   7.702   1.335
33087SOL    HW1 1100   3.199   7.692   1.240
33087SOL    HW2 1101   3.246   7.787   1.348
33088SOL     OW 1102   1.946  10.357   2.765
33088SOL    HW1 1103   1.956  10.451   2.757
33088SOL    HW2 1104   1.881  10.345   2.834
33089SOL     OW 1105   6.717  10.800  10.044
33089SOL    HW1 1106   6.663  10.865  10.001
33089SOL    HW2 1107   6.660  10.760  10.109
33090SOL     OW 1108  13.306   4.829   5.586
33090SOL    HW1 1109  13.247   4.858   5.517
33090SOL    HW2 1110  13.389   4.872   5.567
33091SOL     OW 1111   1.733  12.876  12.811
33091SOL    HW1 1112   1.672  12.940  12.775
33091SOL    HW2 1113   1.691  12.791  12.797
33092SOL     OW 1114   8.188  12.486   9.948
33092SOL    HW1 1115   8.145  12.571   9.943
33092SOL    HW2 1116   8.234  12.487  10.032
33093SOL     OW 1117  10.027   6.747   2.662
33093SOL    HW1 1118  10.022   6.739   2.757
33093SOL    HW2 1119  10.062   6.663   2.633
33094SOL     OW 1120   0.645   9.378  13.504
33094SOL    HW1 1121   0.608   9.333  13.580
33094SOL    HW2 1122   0.623   9.470  13.517
33095SOL     OW 1123  10.326   5.843   0.386
33095SOL    HW1 1124  10.235   5.872   0.392
33095SOL    HW2 1125  10.332   5.773   0.452
33096SOL     OW 1126   9.863   2.080   2.662
33096SOL    HW1 1127   9.923   2.039   2.725
33096SOL    HW2 1128   9.834   2.160   2.706
33097SOL     OW 1129   7.047   5.995   0.391
33097SOL    HW1 1130   7.119   6.036   0.439
33097SOL    HW2 1131   7.046   5.904   0.422
33098SOL     OW 1132  11.181  11.559   5.700
33098SOL    HW1 1133  11.268  11.551   5.661
33098SOL    HW2 1134  11.182  11.643   5.746
33099SOL     OW 1135   1.235   5.148   4.069
33099SOL    HW1 1136   1.306   5.204   4.036
33099SOL    HW2 1137   1.257   5.134   4.161
33100SOL     OW 1138   3.015   1.587  14.861
33100SOL    HW1 1139   3.082   1.640   0.025
33100SOL    HW2 1140   3.006   1.509   0.036
33101SOL     OW 1141   0.256   9.425   4.631
33101SOL    HW1 1142   0.239   9.366   4.558
33101SOL    HW2 1143   0.205   9.389   4.703
33102SOL     OW 1144   7.317   7.943  13.344
33102SOL    HW1 1145   7.316   8.022  13.399
33102SOL    HW2 1146   7.262   7.881  13.391
33103SOL     OW 1147  10.471   8.184  14.031
33103SOL    HW1 1148  10.555   8.155  13.997
33103SOL    HW2 1149  10.491   8.264  14.080
33104SOL     OW 1150  13.909   8.429   9.921
33104SOL    HW1 1151  13.936   8.403  10.008
33104SOL    HW2 1152  13.816   8.410   9.917
33105SOL     OW 1153   8.898  11.919   8.105
33105SOL    HW1 1154   8.925  11.983   8.170
33105SOL    HW2 1155   8.901  11.835   8.151
33106SOL     OW 1156  11.469  13.607   4.085
33106SOL    HW1 1157  11.439  13.559   4.162
33106SOL    HW2 1158  11.524  13.677   4.120
33107SOL     OW 1159   0.879   8.901   1.313
33107SOL    HW1 1160   0.937   8.827   1.297
33107SOL    HW2 1161   0.937   8.976   1.324
33108SOL     OW 1162   7.532   8.473   0.794
33108SOL    HW1 1163   7.585   8.426   0.858
33108SOL    HW2 1164   7.587   8.546   0.766
33109SOL     OW 1165   3.825  13.567  13.538
33109SOL    HW1 1166   3.876  13.646  13.522
33109SOL    HW2 1167   3.739  13.585  13.500
33110SOL     OW 1168   4.176   0.126  11.376
33110SOL    HW1 1169   4.230   0.176  11.316
33110SOL    HW2 1170   4.190   0.035  11.351
33111SOL     OW 1171   7.259  11.221   6.736
33111SOL    HW1 1172   7.207  11.297   6.763
33111SOL    HW2 1173   7.233  11.152   6.796
33112SOL     OW 1174   7.375  10.945   0.485
33112SOL    HW1 1175   7.330  11.024   0.455
33112SOL    HW2 1176   7.341  10.875   0.430
33113SOL     OW 1177  12.672   5.555   7.250
33113SOL    HW1 1178  12.581   5.530   7.269
33113SOL    HW2 1179  12.670   5.582   7.158
33114SOL     OW 1180   9.733  13.043  12.278
33114SOL    HW1 1181   9.681  13.035  12.197
33114SOL    HW2 1182   9.686  12.990  12.342
33115SOL     OW 1183  10.827  13.543   2.510
33115SOL    HW1 1184  10.740  13.552   2.550
33115SOL    HW2 1185  10.862  13.632   2.508
33116SOL     OW 1186  13.962  14.009   4.318
33116SOL    HW1 1187  13.919  14.052   4.245
33116SOL    HW2 1188  13.940  13.916   4.307
33117SOL     OW 1189   8.257  13.738   0.272
33117SOL    HW1 1190   8.326  13.768   0.331
33117SOL    HW2 1191   8.187  13.707   0.330
33118SOL     OW 1192  12.307   0.894  11.686
33118SOL    HW1 1193  12.272   0.887  11.598
33118SOL    HW2 1194  12.300   0.806  11.723
33119SOL     OW 1195  13.265  13.436   8.314
33119SOL    HW1 1196  13.293  13.404   8.399
33119SOL    HW2 1197  13.191  13.380   8.290
33120SOL     OW 1198   4.815   8.399  12.316
33120SOL    HW1 1199   4.904   8.433  12.325
33120SOL    HW2 1200   4.763   8.474  12.291
33121SOL     OW 1201   0.523  12.024   7.486
33121SOL    HW1 1202   0.491  11.947   7.439
33121SOL    HW2 1203   0.509  12.003   7.578
33122SOL     OW 1204   0.795   5.041   9.538
33122SOL    HW1 1205   0.836   5.128   9.537
33122SOL    HW2 1206   0.701   5.058   9.530
33123SOL     OW 1207  10.260  14.033   7.688
33123SOL    HW1 1208  10.282  13.948   7.649
33123SOL    HW2 1209  10.337  14.088   7.670
33124SOL     OW 1210   5.507   6.483  10.615
33124SOL    HW1 1211   5.585   6.429  10.618
33124SOL    HW2 1212   5.434   6.420  10.615
33125SOL     OW 1213   4.529  13.326   6.212
33125SOL    HW1 1214   4.464  13.268   6.251
33125SOL    HW2 1215   4.608  13.273   6.204
33126SOL     OW 1216   5.358   3.958   4.858
33126SOL    HW1 1217   5.355   3.884   4.918
33126SOL    HW2 1218   5.275   3.953   4.810
33127SOL     OW 1219   0.005   4.081   2.489
33127SOL    HW1 1220   0.009   4.176   2.500
33127SOL    HW2 1221   0.064   4.063   2.416
33128SOL     OW 1222   6.677   5.047   1.512
33128SOL    HW1 1223   6.697   5.137   1.535
33128SOL    HW2 1224   6.690   5.043   1.417
33129SOL     OW 1225  13.915   7.000   9.967
33129SOL    HW1 1226  13.928   6.947  10.045
33129SOL    HW2 1227  13.927   6.939   9.894
33130SOL     OW 1228   4.058   7.987   6.602
33130SOL    HW1 1229   4.104   8.051   6.657
33130SOL    HW2 1230   3.987   7.954   6.657
33131SOL     OW 1231   7.599   9.902   6.250
33131SOL    HW1 1232   7.687   9.909   6.286
33131SOL    HW2 1233   7.559   9.830   6.298
33132SOL     OW 1234   3.590   2.730   0.013
33132SOL    HW1 1235   3.631   2.692   0.091
33132SOL    HW2 1236   3.507   2.682   0.005
33133SOL     OW 1237   1.672  13.389  10.110
33133SOL    HW1 1238   1.615  13.314  10.128
33133SOL    HW2 1239   1.661  13.405  10.016
33134SOL     OW 1240  12.790  13.515  13.063
33134SOL    HW1 1241  12.814  13.607  13.074
33134SOL    HW2 1242  12.787  13.502  12.968
33135SOL     OW 1243   5.326   2.622   1.255
33135SOL    HW1 1244   5.261   2.657   1.194
33135SOL    HW2 1245   5.403   2.605   1.200
33136SOL     OW 1246  11.200  13.504   7.259
33136SOL    HW1 1247  11.240  13.575   7.208
33136SOL    HW2 1248  11.274  13.452   7.289
33137SOL     OW 1249  12.724  12.426  10.962
33137SOL    HW1 1250  12.663  12.492  10.994
33137SOL    HW2 1251  12.746  12.374  11.040
33138SOL     OW 1252   6.315  11.109   9.062
33138SOL    HW1 1253   6.383  11.117   9.129
33138SOL    HW2 1254   6.328  11.021   9.026
33139SOL     OW 1255  11.139   6.283  13.921
33139SOL    HW1 1256  11.219   6.242  13.889
33139SOL    HW2 1257  11.084   6.211  13.950
33140SOL     OW 1258   7.136   1.033   1.791
33140SOL    HW1 1259   7.111   1.005   1.703
33140SOL    HW2 1260   7.181   1.116   1.778
33141SOL     OW 1261   7.712   1.483   5.621
33141SOL    HW1 1262   7.655   1.492   5.698
33141SOL    HW2 1263   7.795   1.450   5.656
33142SOL     OW 1264  12.686   3.963   1.303
33142SOL    HW1 1265  12.760   3.924   1.256
33142SOL    HW2 1266  12.717   3.970   1.393
33143SOL     OW 1267   2.696  11.704   0.033
33143SOL    HW1 1268   2.706  11.661   0.118
33143SOL    HW2 1269   2.752  11.654  14.853
33144SOL     OW 1270   4.507   3.612   8.512
33144SOL    HW1 1271   4.425   3.579   8.551
33144SOL    HW2 1272   4.491   3.706   8.501
33145SOL     OW 1273   9.769   9.040  13.869
33145SOL    HW1 1274   9.714   8.993  13.932
33145SOL    HW2 1275   9.707   9.081  13.809
33146SOL     OW 1276  13.143   4.562   7.605
33146SOL    HW1 1277  13.185   4.642   7.637
33146SOL    HW2 1278  13.213   4.496   7.606
33147SOL     OW 1279  12.838  10.668   4.702
33147SOL    HW1 1280  12.816  10.688   4.793
33147SOL    HW2 1281  12.917  10.720   4.684
33148SOL     OW 1282  14.277   9.805  14.813
33148SOL    HW1 1283  14.226   9.733  14.775
33148SOL    HW2 1284  14.329   9.763   0.002
33149SOL     OW 1285  11.360   1.291  11.598
33149SOL    HW1 1286  11.293   1.338  11.649
33149SOL    HW2 1287  11.404   1.235  11.662
33150SOL     OW 1288   7.801   9.770  14.378
33150SOL    HW1 1289   7.870   9.756  14.444
33150SOL    HW2 1290   7.810   9.695  14.318
33151SOL     OW 1291   8.799   8.915   1.692
33151SOL    HW1 1292   8.750   8.963   1.759
33151SOL    HW2 1293   8.756   8.831   1.685
33152SOL     OW 1294   3.615   7.955  11.593
33152SOL    HW1 1295   3.588   8.032  11.544
33152SOL    HW2 1296   3.584   7.881  11.541
33153SOL     OW 1297   5.348  14.808  13.363
33153SOL    HW1 1298   5.347  14.718  13.332
33153SOL    HW2 1299   5.306  14.859  13.293
33154SOL     OW 1300   4.117   9.057  11.165
33154SOL    HW1 1301   4.167   8.976  11.166
33154SOL    HW2 1302   4.171   9.118  11.114
33155SOL     OW 1303   0.125  14.491  11.922
33155SOL    HW1 1304   0.048  14.437  11.905
33155SOL    HW2 1305   0.198  14.442  11.884
33156SOL     OW 1306   0.535   4.585   8.970
33156SOL    HW1 1307   0.477   4.533   9.024
33156SOL    HW2 1308   0.491   4.670   8.962
33157SOL     OW 1309  11.236   7.972   9.725
33157SOL    HW1 1310  11.286   7.891   9.724
33157SOL    HW2 1311  11.175   7.963   9.652
33158SOL     OW 1312   5.056  11.075   7.239
33158SOL    HW1 1313   5.098  11.048   7.321
33158SOL    HW2 1314   5.066  10.999   7.181
33159SOL     OW 1315   3.590  14.063   2.646
33159SOL    HW1 1316   3.647  14.033   2.576
33159SOL    HW2 1317   3.559  14.149   2.617
33160SOL     OW 1318   7.551   0.031   3.953
33160SOL    HW1 1319   7.535   0.061   3.864
33160SOL    HW2 1320   7.529   0.105   4.009
33161SOL     OW 1321   6.022   2.177   5.646
33161SOL    HW1 1322   5.954   2.159   5.581
33161SOL    HW2 1323   6.103   2.146   5.605
33162SOL     OW 1324   8.037   0.636   6.164
33162SOL    HW1 1325   8.000   0.554   6.198
33162SOL    HW2 1326   7.966   0.699   6.173
33163SOL     OW 1327   9.968   2.351  11.057
33163SOL    HW1 1328  10.001   2.385  11.140
33163SOL    HW2 1329   9.876   2.378  11.055
33164SOL     OW 1330   5.188  14.592   2.977
33164SOL    HW1 1331   5.158  14.578   2.888
33164SOL    HW2 1332   5.156  14.679   3.000
33165SOL     OW 1333   6.629  14.259  13.046
33165SOL    HW1 1334   6.672  14.210  12.975
33165SOL    HW2 1335   6.596  14.338  13.004
33166SOL     OW 1336   0.579  10.167   3.883
33166SOL    HW1 1337   0.569  10.184   3.977
33166SOL    HW2 1338   0.620  10.080   3.879
33167SOL     OW 1339  14.367  10.889   6.030
33167SOL    HW1 1340  14.411  10.828   6.090
33167SOL    HW2 1341  14.344  10.963   6.086
33168SOL     OW 1342   2.931   4.168  12.293
33168SOL    HW1 1343   3.012   4.148  12.246
33168SOL    HW2 1344   2.910   4.258  12.269
33169SOL     OW 1345   7.796   8.586   3.746
33169SOL    HW1 1346   7.783   8.669   3.700
33169SOL    HW2 1347   7.714   8.537   3.732
33170SOL     OW 1348   3.224   4.284   2.904
33170SOL    HW1 1349   3.234   4.213   2.841
33170SOL    HW2 1350   3.289   4.265   2.972
33171SOL     OW 1351   9.001   0.566   5.922
33171SOL    HW1 1352   9.087   0.598   5.895
33171SOL    HW2 1353   8.998   0.582   6.016
33172SOL     OW 1354   4.344   3.132  14.465
33172SOL    HW1 1355   4.294   3.052  14.475
33172SOL    HW2 1356   4.362   3.161  14.555
33173SOL     OW 1357   3.660  10.771   5.514
33173SOL    HW1 1358   3.714  10.694   5.532
33173SOL    HW2 1359   3.672  10.787   5.420
33174SOL     OW 1360   7.979  14.359  14.333
33174SOL    HW1 1361   8.037  14.412  14.387
33174SOL    HW2 1362   8.009  14.374  14.243
33175SOL     OW 1363   3.614   7.181  10.139
33175SOL    HW1 1364   3.709   7.184  10.145
33175SOL    HW2 1365   3.594   7.216  10.052
33176SOL     OW 1366   2.008   1.130  11.776
33176SOL    HW1 1367   1.963   1.072  11.714
33176SOL    HW2 1368   2.060   1.071  11.830
33177SOL     OW 1369  10.616  11.485   1.874
33177SOL    HW1 1370  10.680  11.508   1.941
33177SOL    HW2 1371  10.539  11.458   1.923
33178SOL     OW 1372   9.008   2.933   5.908
33178SOL    HW1 1373   8.953   2.951   5.984
33178SOL    HW2 1374   8.955   2.962   5.833
33179SOL     OW 1375   4.718   2.675   4.407
33179SOL    HW1 1376   4.705   2.758   4.453
33179SOL    HW2 1377   4.760   2.699   4.324
33180SOL     OW 1378   9.024  14.099   6.005
33180SOL    HW1 1379   9.054  14.021   6.052
33180SOL    HW2 1380   9.018  14.070   5.914
33181SOL     OW 1381   1.857   4.867  14.579
33181SOL    HW1 1382   1.953   4.872  14.580
33181SOL    HW2 1383   1.834   4.864  14.486
33182SOL     OW 1384  11.754   1.727  10.279
33182SOL    HW1 1385  11.807   1.648  10.282
33182SOL    HW2 1386  11.811   1.796  10.311
33183SOL     OW 1387   8.278   9.110   3.309
33183SOL    HW1 1388   8.266   9.151   3.395
33183SOL    HW2 1389   8.364   9.138   3.280
33184SOL     OW 1390  13.203   6.907   5.371
33184SOL    HW1 1391  13.166   6.995   5.369
33184SOL    HW2 1392  13.128   6.849   5.360
33185SOL     OW 1393   0.473  14.312   5.240
33185SOL    HW1 1394   0.412  14.359   5.183
33185SOL    HW2 1395   0.506  14.240   5.185
33186SOL     OW 1396   0.493   2.571   1.038
33186SOL    HW1 1397   0.539   2.488   1.022
33186SOL    HW2 1398   0.400   2.547   1.035
33187SOL     OW 1399   4.818   7.044   7.851
33187SOL    HW1 1400   4.785   6.957   7.873
33187SOL    HW2 1401   4.826   7.089   7.936
33188SOL     OW 1402   8.143   6.624   5.271
33188SOL    HW1 1403   8.143   6.577   5.188
33188SOL    HW2 1404   8.199   6.700   5.256
33189SOL     OW 1405  12.967   7.004  10.839
33189SOL    HW1 1406  13.022   6.930  10.813
33189SOL    HW2 1407  12.963   7.059  10.761
33190SOL     OW 1408   5.567  13.603   9.179
33190SOL    HW1 1409   5.561  13.603   9.084
33190SOL    HW2 1410   5.624  13.529   9.199
33191SOL     OW 1411   8.589  14.148  12.557
33191SOL    HW1 1412   8.668  14.128  12.607
33191SOL    HW2 1413   8.588  14.243  12.550
33192SOL     OW 1414   5.564   3.127   2.623
33192SOL    HW1 1415   5.589   3.090   2.708
33192SOL    HW2 1416   5.532   3.052   2.573
33193SOL     OW 1417   3.364   4.541   8.831
33193SOL    HW1 1418   3.316   4.472   8.785
33193SOL    HW2 1419   3.417   4.495   8.896
33194SOL     OW 1420   7.137  11.187  14.685
33194SOL    HW1 1421   7.048  11.151  14.688
33194SOL    HW2 1422   7.138  11.242  14.606
33195SOL     OW 1423  10.763   6.028  11.863
33195SOL    HW1 1424  10.726   6.115  11.879
33195SOL    HW2 1425  10.697   5.968  11.898
33196SOL     OW 1426   8.036   7.643  14.574
33196SOL    HW1 1427   8.051   7.661  14.667
33196SOL    HW2 1428   8.058   7.724  14.529
33197SOL     OW 1429   1.761   8.778   0.567
33197SOL    HW1 1430   1.777   8.693   0.526
33197SOL    HW2 1431   1.668   8.777   0.589
33198SOL     OW 1432   1.442  11.708   0.787
33198SOL    HW1 1433   1.402  11.697   0.701
33198SOL    HW2 1434   1.474  11.799   0.787
33199SOL     OW 1435   1.456   4.954   5.855
33199SOL    HW1 1436   1.490   4.995   5.934
33199SOL    HW2 1437   1.362   4.975   5.855
33200SOL     OW 1438   3.415   2.685   6.629
33200SOL    HW1 1439   3.479   2.733   6.681
33200SOL    HW2 1440   3.413   2.732   6.545
33201SOL     OW 1441  14.135  12.851   3.475
33201SOL    HW1 1442  14.195  12.873   3.404
33201SOL    HW2 1443  14.052  12.893   3.450
33202SOL     OW 1444  13.303  11.361   5.119
33202SOL    HW1 1445  13.328  11.269   5.123
33202SOL    HW2 1446  13.325  11.388   5.030
33203SOL     OW 1447  13.955   1.990  13.097
33203SOL    HW1 1448  13.969   2.068  13.151
33203SOL    HW2 1449  14.018   1.927  13.130
33204SOL     OW 1450   6.522   7.825  12.240
33204SOL    HW1 1451   6.568   7.751  12.200
33204SOL    HW2 1452   6.502   7.795  12.329
33205SOL     OW 1453   7.206   1.247   9.977
33205SOL    HW1 1454   7.181   1.318   9.918
33205SOL    HW2 1455   7.273   1.286  10.034
33206SOL     OW 1456  14.367  12.343   8.524
33206SOL    HW1 1457  14.417  12.346   8.606
33206SOL    HW2 1458  14.359  12.434   8.497
33207SOL     OW 1459   7.573   0.034   0.002
33207SOL    HW1 1460   7.502   0.049   0.063
33207SOL    HW2 1461   7.574   0.112  14.826
33208SOL     OW 1462   5.552   1.788   0.040
33208SOL    HW1 1463   5.535   1.719  14.856
33208SOL    HW2 1464   5.617   1.844  14.877
33209SOL     OW 1465  13.928   1.938   8.064
33209SOL    HW1 1466  13.951   1.855   8.022
33209SOL    HW2 1467  13.896   1.913   8.151
33210SOL     OW 1468  13.994  12.509  14.181
33210SOL    HW1 1469  14.002  12.533  14.274
33210SOL    HW2 1470  13.970  12.591  14.137
33211SOL     OW 1471  13.074   0.032   5.592
33211SOL    HW1 1472  13.142   0.085   5.633
33211SOL    HW2 1473  13.100   0.027   5.500
33212SOL     OW 1474   4.274   7.004  10.295
33212SOL    HW1 1475   4.185   7.029  10.320
33212SOL    HW2 1476   4.310   6.961  10.372
33213SOL     OW 1477   2.016   2.379   5.391
33213SOL    HW1 1478   2.061   2.323   5.328
33213SOL    HW2 1479   1.964   2.319   5.444
33214SOL     OW 1480  14.481   5.375   2.466
33214SOL    HW1 1481  14.417   5.425   2.417
33214SOL    HW2 1482  14.435   5.344   2.543
33215SOL     OW 1483   3.372   3.341   5.702
33215SOL    HW1 1484   3.368   3.392   5.622
33215SOL    HW2 1485   3.282   3.337   5.732
33216SOL     OW 1486   6.052  11.648   1.140
33216SOL    HW1 1487   6.088  11.629   1.226
33216SOL    HW2 1488   5.999  11.571   1.119
33217SOL     OW 1489   1.305   6.907  14.185
33217SOL    HW1 1490   1.275   6.923  14.095
33217SOL    HW2 1491   1.379   6.967  14.197
33218SOL     OW 1492   0.732   5.278   7.841
33218SOL    HW1 1493   0.743   5.227   7.921
33218SOL    HW2 1494   0.820   5.283   7.803
33219SOL     OW 1495  12.479   4.310  12.161
33219SOL    HW1 1496  12.558   4.313  12.214
33219SOL    HW2 1497  12.433   4.232  12.191
33220SOL     OW 1498   5.428   1.787   1.734
33220SOL    HW1 1499   5.491   1.843   1.689
33220SOL    HW2 1500   5.439   1.700   1.694
33221SOL     OW 1501   5.050   0.917   7.756
33221SOL    HW1 1502   4.955   0.908   7.756
33221SOL    HW2 1503   5.082   0.844   7.808
33222SOL     OW 1504   1.232   3.944   1.074
33222SOL    HW1 1505   1.197   3.949   1.163
33222SOL    HW2 1506   1.320   3.907   1.085
33223SOL     OW 1507   6.337   5.047   3.345
33223SOL    HW1 1508   6.416   4.992   3.348
33223SOL    HW2 1509   6.332   5.076   3.254
33224SOL     OW 1510   7.415   2.611   9.700
33224SOL    HW1 1511   7.395   2.703   9.715
33224SOL    HW2 1512   7.509   2.610   9.678
33225SOL     OW 1513  13.054  14.772   6.028
33225SOL    HW1 1514  13.047  14.866   6.015
33225SOL    HW2 1515  13.140  14.749   5.991
33226SOL     OW 1516   3.048   5.923   1.725
33226SOL    HW1 1517   2.993   5.957   1.795
33226SOL    HW2 1518   3.072   5.835   1.753
33227SOL     OW 1519  10.208  14.847  12.406
33227SOL    HW1 1520  10.176   0.057  12.419
33227SOL    HW2 1521  10.134  14.801  12.367
33228SOL     OW 1522  11.792   9.922   4.166
33228SOL    HW1 1523  11.886   9.915   4.152
33228SOL    HW2 1524  11.760   9.973   4.091
33229SOL     OW 1525   9.244  13.486   4.254
33229SOL    HW1 1526   9.153  13.457   4.247
33229SOL    HW2 1527   9.288  13.414   4.300
33230SOL     OW 1528  14.749  11.494   4.357
33230SOL    HW1 1529  14.691  11.564   4.390
33230SOL    HW2 1530  14.767  11.520   4.267
33231SOL     OW 1531   1.948  10.500   6.491
33231SOL    HW1 1532   1.898  10.544   6.559
33231SOL    HW2 1533   1.986  10.571   6.439
33232SOL     OW 1534   8.836   5.773   9.419
33232SOL    HW1 1535   8.872   5.851   9.462
33232SOL    HW2 1536   8.789   5.808   9.343
33233SOL     OW 1537   9.836   8.978   0.743
33233SOL    HW1 1538   9.917   9.026   0.729
33233SOL    HW2 1539   9.770   9.028   0.695
33234SOL     OW 1540   9.930   1.139   2.054
33234SOL    HW1 1541   9.952   1.200   2.124
33234SOL    HW2 1542   9.907   1.194   1.980
33235SOL     OW 1543   1.803  14.092   8.944
33235SOL    HW1 1544   1.811  14.169   9.001
33235SOL    HW2 1545   1.892  14.076   8.912
33236SOL     OW 1546   2.548   6.297   3.062
33236SOL    HW1 1547   2.597   6.238   3.005
33236SOL    HW2 1548   2.567   6.384   3.029
33237SOL     OW 1549   2.238   2.642  11.148
33237SOL    HW1 1550   2.292   2.702  11.096
33237SOL    HW2 1551   2.260   2.663  11.239
33238SOL     OW 1552   6.135  12.950   8.659
33238SOL    HW1 1553   6.224  12.945   8.696
33238SOL    HW2 1554   6.135  13.032   8.609
33239SOL     OW 1555   5.879  13.581   3.621
33239SOL    HW1 1556   5.844  13.669   3.607
33239SOL    HW2 1557   5.802  13.525   3.630
33240SOL     OW 1558   5.007   9.789   6.480
33240SOL    HW1 1559   5.072   9.830   6.423
33240SOL    HW2 1560   4.925   9.834   6.459
33241SOL     OW 1561   2.169  11.414   8.047
33241SOL    HW1 1562   2.109  11.415   7.973
33241SOL    HW2 1563   2.118  11.449   8.120
33242SOL     OW 1564   1.764   1.096   4.655
33242SOL    HW1 1565   1.805   1.096   4.741
33242SOL    HW2 1566   1.801   1.173   4.611
33243SOL     OW 1567   2.078   8.908   0.557
33243SOL    HW1 1568   2.017   8.890   0.485
33243SOL    HW2 1569   2.114   8.994   0.537
33244SOL     OW 1570   4.887  10.141   3.931
33244SOL    HW1 1571   4.797  10.157   3.905
33244SOL    HW2 1572   4.938  10.205   3.882
33245SOL     OW 1573  13.784   0.352   0.843
33245SOL    HW1 1574  13.769   0.411   0.916
33245SOL    HW2 1575  13.720   0.282   0.854
33246SOL     OW 1576  11.008   0.855   2.646
33246SOL    HW1 1577  11.072   0.786   2.629
33246SOL    HW2 1578  10.978   0.838   2.736
33247SOL     OW 1579  11.510  12.523  11.626
33247SOL    HW1 1580  11.473  12.456  11.569
33247SOL    HW2 1581  11.604  12.523  11.606
33248SOL     OW 1582   0.821   3.265   7.842
33248SOL    HW1 1583   0.862   3.334   7.791
33248SOL    HW2 1584   0.748   3.235   7.788
33249SOL     OW 1585   5.553  13.955   6.293
33249SOL    HW1 1586   5.603  14.014   6.237
33249SOL    HW2 1587   5.478  14.007   6.322
33250SOL     OW 1588  13.773   5.880   3.465
33250SOL    HW1 1589  13.701   5.831   3.426
33250SOL    HW2 1590  13.845   5.871   3.403
33251SOL     OW 1591  14.456   9.471   7.021
33251SOL    HW1 1592  14.441   9.522   7.100
33251SOL    HW2 1593  14.502   9.393   7.051
33252SOL     OW 1594   6.283  10.500   7.841
33252SOL    HW1 1595   6.291  10.595   7.836
33252SOL    HW2 1596   6.371  10.467   7.824
33253SOL     OW 1597   8.200   2.817   3.753
33253SOL    HW1 1598   8.210   2.726   3.779
33253SOL    HW2 1599   8.277   2.861   3.789
33254SOL     OW 1600  13.086   4.759   8.195
33254SOL    HW1 1601  13.080   4.697   8.123
33254SOL    HW2 1602  13.054   4.842   8.159
33255SOL     OW 1603  10.875  14.355   2.141
33255SOL    HW1 1604  10.780  14.344   2.147
33255SOL    HW2 1605  10.910  14.303   2.213
33256SOL     OW 1606   7.307   1.224   6.958
33256SOL    HW1 1607   7.248   1.150   6.950
33256SOL    HW2 1608   7.351   1.229   6.873
33257SOL     OW 1609   2.044  14.208   4.774
33257SOL    HW1 1610   2.073  14.182   4.861
33257SOL    HW2 1611   2.120  14.191   4.718
33258SOL     OW 1612  13.559   7.291  10.604
33258SOL    HW1 1613  13.585   7.283  10.696
33258SOL    HW2 1614  13.631   7.339  10.563
33259SOL     OW 1615   1.814  11.262   3.572
33259SOL    HW1 1616   1.814  11.329   3.641
33259SOL    HW2 1617   1.890  11.208   3.592
33260SOL     OW 1618   0.050   0.213  13.508
33260SOL    HW1 1619   0.075   0.136  13.457
33260SOL    HW2 1620   0.040   0.180  13.597
33261SOL     OW 1621   1.845   1.709   8.055
33261SOL    HW1 1622   1.891   1.738   8.133
33261SOL    HW2 1623   1.910   1.658   8.006
33262SOL     OW 1624   0.578   3.353   2.016
33262SOL    HW1 1625   0.507   3.415   2.004
33262SOL    HW2 1626   0.658   3.406   2.011
33263SOL     OW 1627  12.849   6.859  11.503
33263SOL    HW1 1628  12.775   6.904  11.462
33263SOL    HW2 1629  12.894   6.816  11.430
33264SOL     OW 1630  14.710   6.565   8.039
33264SOL    HW1 1631  14.771   6.582   7.967
33264SOL    HW2 1632  14.655   6.493   8.008
33265SOL     OW 1633   1.490   6.108  14.077
33265SOL    HW1 1634   1.461   6.083  14.165
33265SOL    HW2 1635   1.435   6.183  14.054
33266SOL     OW 1636   8.329  14.081  11.380
33266SOL    HW1 1637   8.382  14.088  11.459
33266SOL    HW2 1638   8.375  14.017  11.325
33267SOL     OW 1639   2.905   8.212  14.722
33267SOL    HW1 1640   2.835   8.147  14.725
33267SOL    HW2 1641   2.979   8.171  14.768
33268SOL     OW 1642   8.963   7.000   9.992
33268SOL    HW1 1643   8.869   6.986   9.983
33268SOL    HW2 1644   9.002   6.918   9.962
33269SOL     OW 1645   2.378   2.050  14.817
33269SOL    HW1 1646   2.376   1.956  14.835
33269SOL    HW2 1647   2.463   2.066  14.776
33270SOL     OW 1648  14.522   2.514  12.288
33270SOL    HW1 1649  14.442   2.505  12.339
33270SOL    HW2 1650  14.515   2.448  12.219
33271SOL     OW 1651   8.847  10.958   4.445
33271SOL    HW1 1652   8.934  10.925   4.467
33271SOL    HW2 1653   8.787  10.889   4.474
33272SOL     OW 1654  11.827   0.346  12.354
33272SOL    HW1 1655  11.836   0.324  12.261
33272SOL    HW2 1656  11.738   0.317  12.377
33273SOL     OW 1657   7.659   7.906   8.460
33273SOL    HW1 1658   7.710   7.828   8.441
33273SOL    HW2 1659   7.574   7.872   8.488
33274SOL     OW 1660   3.534   7.884  10.323
33274SOL    HW1 1661   3.561   7.915  10.237
33274SOL    HW2 1662   3.595   7.814  10.345
33275SOL     OW 1663   1.601   1.555  11.625
33275SOL    HW1 1664   1.611   1.650  11.637
33275SOL    HW2 1665   1.569   1.523  11.709
33276SOL     OW 1666   9.385   7.134  14.374
33276SOL    HW1 1667   9.397   7.083  14.454
33276SOL    HW2 1668   9.462   7.191  14.371
33277SOL     OW 1669   6.592   9.397   2.325
33277SOL    HW1 1670   6.532   9.386   2.251
33277SOL    HW2 1671   6.577   9.487   2.354
33278SOL     OW 1672   8.978   6.690   7.393
33278SOL    HW1 1673   9.011   6.714   7.307
33278SOL    HW2 1674   8.907   6.628   7.376
33279SOL     OW 1675   0.701  14.442   2.450
33279SOL    HW1 1676   0.634  14.476   2.509
33279SOL    HW2 1677   0.777  14.498   2.464
33280SOL     OW 1678   8.496   1.502   2.797
33280SOL    HW1 1679   8.481   1.550   2.715
33280SOL    HW2 1680   8.418   1.448   2.807
33281SOL     OW 1681   1.975  14.482  13.883
33281SOL    HW1 1682   1.990  14.428  13.806
33281SOL    HW2 1683   2.054  14.536  13.890
33282SOL     OW 1684  13.856   2.730   4.154
33282SOL    HW1 1685  13.923   2.663   4.141
33282SOL    HW2 1686  13.893   2.809   4.117
33283SOL     OW 1687  14.126   6.097   0.323
33283SOL    HW1 1688  14.055   6.110   0.385
33283SOL    HW2 1689  14.194   6.053   0.373
33284SOL     OW 1690   0.740  13.475  12.357
33284SOL    HW1 1691   0.679  13.407  12.331
33284SOL    HW2 1692   0.685  13.547  12.389
33285SOL     OW 1693   0.231   5.470   5.547
33285SOL    HW1 1694   0.179   5.550   5.537
33285SOL    HW2 1695   0.297   5.476   5.478
33286SOL     OW 1696  14.829   1.902   4.540
33286SOL    HW1 1697  14.735   1.901   4.524
33286SOL    HW2 1698  14.844   1.831   4.602
33287SOL     OW 1699   4.402   9.654   5.848
33287SOL    HW1 1700   4.468   9.655   5.917
33287SOL    HW2 1701   4.359   9.739   5.856
33288SOL     OW 1702   2.988  11.620   3.814
33288SOL    HW1 1703   3.026  11.609   3.901
33288SOL    HW2 1704   2.940  11.703   3.819
33289SOL     OW 1705   3.229  13.813   3.580
33289SOL    HW1 1706   3.274  13.897   3.579
33289SOL    HW2 1707   3.141  13.833   3.613
33290SOL     OW 1708   9.888  10.033   1.770
33290SOL    HW1 1709   9.928   9.981   1.700
33290SOL    HW2 1710   9.935  10.005   1.849
33291SOL     OW 1711  13.614   1.518   1.556
33291SOL    HW1 1712  13.585   1.577   1.625
33291SOL    HW2 1713  13.706   1.541   1.542
33292SOL     OW 1714   7.390   1.577  12.412
33292SOL    HW1 1715   7.340   1.658  12.404
33292SOL    HW2 1716   7.442   1.588  12.491
33293SOL     OW 1717  11.656   9.482   4.087
33293SOL    HW1 1718  11.576   9.529   4.064
33293SOL    HW2 1719  11.649   9.399   4.039
33294SOL     OW 1720  14.832   5.359   2.967
33294SOL    HW1 1721  14.876   5.323   2.890
33294SOL    HW2 1722  14.739   5.348   2.949
33295SOL     OW 1723  13.280   1.529   9.199
33295SOL    HW1 1724  13.270   1.597   9.133
33295SOL    HW2 1725  13.374   1.509   9.200
33296SOL     OW 1726  10.538  10.205  14.227
33296SOL    HW1 1727  10.506  10.294  14.246
33296SOL    HW2 1728  10.491  10.180  14.147
33297SOL     OW 1729  14.431   5.005   9.133
33297SOL    HW1 1730  14.396   5.050   9.056
33297SOL    HW2 1731  14.384   4.921   9.135
33298SOL     OW 1732  13.731  13.165  13.959
33298SOL    HW1 1733  13.704  13.186  14.049
33298SOL    HW2 1734  13.715  13.246  13.910
33299SOL     OW 1735   8.666  14.675   8.169
33299SOL    HW1 1736   8.684  14.725   8.249
33299SOL    HW2 1737   8.627  14.738   8.109
33300SOL     OW 1738  13.609   3.034   2.505
33300SOL    HW1 1739  13.638   3.123   2.484
33300SOL    HW2 1740  13.572   3.001   2.424
33301SOL     OW 1741  12.702   3.772   6.122
33301SOL    HW1 1742  12.611   3.770   6.151
33301SOL    HW2 1743  12.697   3.782   6.027
33302SOL     OW 1744   2.906   8.790  14.314
33302SOL    HW1 1745   2.865   8.870  14.280
33302SOL    HW2 1746   2.950   8.818  14.394
33303SOL     OW 1747   5.152   6.329  11.033
33303SOL    HW1 1748   5.187   6.373  11.111
33303SOL    HW2 1749   5.229   6.308  10.980
33304SOL     OW 1750  12.462   0.055   0.896
33304SOL    HW1 1751  12.516  14.877   0.842
33304SOL    HW2 1752  12.459   0.138   0.848
33305SOL     OW 1753  13.414  12.335   6.410
33305SOL    HW1 1754  13.504  12.349   6.382
33305SOL    HW2 1755  13.415  12.247   6.449
33306SOL     OW 1756   8.751  12.724   7.489
33306SOL    HW1 1757   8.775  12.813   7.514
33306SOL    HW2 1758   8.666  12.734   7.445
33307SOL     OW 1759   2.654   3.791  13.608
33307SOL    HW1 1760   2.563   3.819  13.619
33307SOL    HW2 1761   2.692   3.800  13.695
33308SOL     OW 1762   1.629  11.494   5.137
33308SOL    HW1 1763   1.679  11.413   5.124
33308SOL    HW2 1764   1.561  11.470   5.200
33309SOL     OW 1765   8.147   8.302   5.006
33309SOL    HW1 1766   8.115   8.372   5.064
33309SOL    HW2 1767   8.067   8.264   4.969
33310SOL     OW 1768   8.059   0.864   0.175
33310SOL    HW1 1769   7.988   0.801   0.185
33310SOL    HW2 1770   8.134   0.821   0.217
33311SOL     OW 1771   8.614  13.305   2.675
33311SOL    HW1 1772   8.634  13.266   2.760
33311SOL    HW2 1773   8.551  13.374   2.694
33312SOL     OW 1774  10.590   6.987   9.853
33312SOL    HW1 1775  10.621   6.939   9.776
33312SOL    HW2 1776  10.609   7.079   9.834
33313SOL     OW 1777  11.692   4.009  12.391
33313SOL    HW1 1778  11.756   3.940  12.370
33313SOL    HW2 1779  11.729   4.088  12.352
33314SOL     OW 1780   5.505   0.643   7.076
33314SOL    HW1 1781   5.558   0.721   7.087
33314SOL    HW2 1782   5.482   0.642   6.983
33315SOL     OW 1783  14.608   8.863   9.871
33315SOL    HW1 1784  14.669   8.867   9.798
33315SOL    HW2 1785  14.596   8.954   9.899
33316SOL     OW 1786   9.653   1.087  14.231
33316SOL    HW1 1787   9.576   1.140  14.211
33316SOL    HW2 1788   9.719   1.151  14.259
33317SOL     OW 1789  12.346   6.342   7.702
33317SOL    HW1 1790  12.428   6.316   7.744
33317SOL    HW2 1791  12.343   6.292   7.621
33318SOL     OW 1792   8.860   6.072   0.096
33318SOL    HW1 1793   8.935   6.128   0.076
33318SOL    HW2 1794   8.829   6.041   0.011
33319SOL     OW 1795   1.062   3.267   2.181
33319SOL    HW1 1796   1.097   3.192   2.133
33319SOL    HW2 1797   1.047   3.333   2.113
33320SOL     OW 1798  11.749   9.502   2.746
33320SOL    HW1 1799  11.797   9.584   2.742
33320SOL    HW2 1800  11.658   9.526   2.734
33321SOL     OW 1801  13.397   0.220   3.277
33321SOL    HW1 1802  13.436   0.198   3.193
33321SOL    HW2 1803  13.334   0.289   3.257
33322SOL     OW 1804   6.170  11.820   4.944
33322SOL    HW1 1805   6.109  11.754   4.909
33322SOL    HW2 1806   6.253  11.801   4.902
33323SOL     OW 1807   5.612   8.595   3.321
33323SOL    HW1 1808   5.561   8.567   3.397
33323SOL    HW2 1809   5.665   8.668   3.354
33324SOL     OW 1810  11.961   5.246   7.870
33324SOL    HW1 1811  11.906   5.221   7.796
33324SOL    HW2 1812  11.903   5.241   7.946
33325SOL     OW 1813   1.062   9.631   9.273
33325SOL    HW1 1814   1.030   9.721   9.268
33325SOL    HW2 1815   1.081   9.608   9.182
33326SOL     OW 1816  10.312   5.988   2.861
33326SOL    HW1 1817  10.360   6.027   2.935
33326SOL    HW2 1818  10.299   5.897   2.887
33327SOL     OW 1819   1.333   3.319  14.799
33327SOL    HW1 1820   1.373   3.237  14.771
33327SOL    HW2 1821   1.400   3.385  14.785
33328SOL     OW 1822   4.802  11.570   3.821
33328SOL    HW1 1823   4.889  11.530   3.815
33328SOL    HW2 1824   4.801  11.615   3.905
33329SOL     OW 1825   9.937  10.241   5.990
33329SOL    HW1 1826  10.009  10.191   5.952
33329SOL    HW2 1827   9.890  10.178   6.044
33330SOL     OW 1828   3.918   1.742   6.348
33330SOL    HW1 1829   3.836   1.710   6.386
33330SOL    HW2 1830   3.979   1.742   6.421
33331SOL     OW 1831  10.157   5.275  14.408
33331SOL    HW1 1832  10.165   5.268  14.313
33331SOL    HW2 1833  10.137   5.367  14.424
33332SOL     OW 1834  11.951   3.687   7.942
33332SOL    HW1 1835  11.934   3.755   7.876
33332SOL    HW2 1836  11.865   3.654   7.966
33333SOL     OW 1837   4.145  13.517  13.848
33333SOL    HW1 1838   4.195  13.501  13.928
33333SOL    HW2 1839   4.110  13.431  13.825
33334SOL     OW 1840  13.574   3.939   4.468
33334SOL    HW1 1841  13.595   4.021   4.512
33334SOL    HW2 1842  13.558   3.877   4.540
33335SOL     OW 1843   4.609  10.672  14.143
33335SOL    HW1 1844   4.683  10.708  14.094
33335SOL    HW2 1845   4.543  10.654  14.076
33336SOL     OW 1846  14.535   4.184   9.975
33336SOL    HW1 1847  14.589   4.159   9.900
33336SOL    HW2 1848  14.569   4.269  10.001
33337SOL     OW 1849  14.247  13.089  12.605
33337SOL    HW1 1850  14.287  13.002  12.596
33337SOL    HW2 1851  14.218  13.111  12.517
33338SOL     OW 1852   4.224  11.792  12.075
33338SOL    HW1 1853   4.208  11.840  12.156
33338SOL    HW2 1854   4.191  11.704  12.092
33339SOL     OW 1855  10.344   3.379   3.635
33339SOL    HW1 1856  10.278   3.311   3.624
33339SOL    HW2 1857  10.374   3.369   3.725
33340SOL     OW 1858   7.780   4.104   0.355
33340SOL    HW1 1859   7.718   4.173   0.332
33340SOL    HW2 1860   7.858   4.124   0.304
33341SOL     OW 1861   5.477  11.062   4.621
33341SOL    HW1 1862   5.388  11.078   4.653
33341SOL    HW2 1863   5.470  10.983   4.568
33342SOL     OW 1864   7.319   9.387   6.369
33342SOL    HW1 1865   7.320   9.294   6.346
33342SOL    HW2 1866   7.241   9.397   6.424
33343SOL     OW 1867   3.428   0.976   2.506
33343SOL    HW1 1868   3.394   1.004   2.591
33343SOL    HW2 1869   3.516   0.944   2.526
33344SOL     OW 1870  10.312   3.677   6.144
33344SOL    HW1 1871  10.288   3.689   6.236
33344SOL    HW2 1872  10.407   3.666   6.145
33345SOL     OW 1873   5.111   2.124   5.916
33345SOL    HW1 1874   5.043   2.065   5.948
33345SOL    HW2 1875   5.079   2.212   5.939
33346SOL     OW 1876  11.333  14.187   4.045
33346SOL    HW1 1877  11.273  14.192   4.119
33346SOL    HW2 1878  11.290  14.239   3.976
33347SOL     OW 1879   8.781  12.493  13.731
33347SOL    HW1 1880   8.779  12.488  13.636
33347SOL    HW2 1881   8.851  12.433  13.757
33348SOL     OW 1882  11.118   0.232   3.684
33348SOL    HW1 1883  11.029   0.265   3.667
33348SOL    HW2 1884  11.111   0.137   3.677
33349SOL     OW 1885  12.444   9.730   3.054
33349SOL    HW1 1886  12.516   9.726   3.117
33349SOL    HW2 1887  12.458   9.655   2.996
33350SOL     OW 1888  11.384  10.894   3.843
33350SOL    HW1 1889  11.368  10.845   3.762
33350SOL    HW2 1890  11.298  10.930   3.866
33351SOL     OW 1891   4.735   7.080  13.254
33351SOL    HW1 1892   4.671   7.144  13.286
33351SOL    HW2 1893   4.817   7.130  13.247
33352SOL     OW 1894   5.426   8.164   3.333
33352SOL    HW1 1895   5.463   8.174   3.421
33352SOL    HW2 1896   5.388   8.249   3.312
33353SOL     OW 1897   0.513   3.744   7.612
33353SOL    HW1 1898   0.587   3.687   7.632
33353SOL    HW2 1899   0.464   3.750   7.694
33354SOL     OW 1900   1.533  12.914   1.956
33354SOL    HW1 1901   1.586  12.885   1.881
33354SOL    HW2 1902   1.506  12.832   1.998
33355SOL     OW 1903   0.723   1.706   7.467
33355SOL    HW1 1904   0.783   1.758   7.413
33355SOL    HW2 1905   0.677   1.770   7.520
33356SOL     OW 1906   2.783   3.767   8.328
33356SOL    HW1 1907   2.833   3.777   8.247
33356SOL    HW2 1908   2.847   3.786   8.397
33357SOL     OW 1909   5.273   9.373   1.780
33357SOL    HW1 1910   5.260   9.457   1.735
33357SOL    HW2 1911   5.253   9.308   1.713
33358SOL     OW 1912   6.325   4.260  11.002
33358SOL    HW1 1913   6.270   4.264  11.079
33358SOL    HW2 1914   6.277   4.204  10.941
33359SOL     OW 1915   9.115   0.395   0.711
33359SOL    HW1 1916   9.199   0.360   0.679
33359SOL    HW2 1917   9.087   0.332   0.777
33360SOL     OW 1918  10.017  10.326   2.097
33360SOL    HW1 1919  10.006  10.419   2.079
33360SOL    HW2 1920   9.931  10.287   2.082
33361SOL     OW 1921   8.409   0.585   7.750
33361SOL    HW1 1922   8.369   0.515   7.699
33361SOL    HW2 1923   8.375   0.666   7.711
33362SOL     OW 1924  14.717   2.992  10.822
33362SOL    HW1 1925  14.745   2.999  10.913
33362SOL    HW2 1926  14.622   2.998  10.826
33363SOL     OW 1927  13.734   6.278  13.405
33363SOL    HW1 1928  13.729   6.371  13.383
33363SOL    HW2 1929  13.712   6.233  13.323
33364SOL     OW 1930   9.387   2.648  10.030
33364SOL    HW1 1931   9.420   2.588   9.963
33364SOL    HW2 1932   9.461   2.662  10.089
33365SOL     OW 1933  11.477   7.429   0.390
33365SOL    HW1 1934  11.410   7.362   0.373
33365SOL    HW2 1935  11.458   7.497   0.326
33366SOL     OW 1936  13.323   8.336   8.091
33366SOL    HW1 1937  13.283   8.340   8.178
33366SOL    HW2 1938  13.391   8.269   8.099
33367SOL     OW 1939  13.890   7.339  13.682
33367SOL    HW1 1940  13.933   7.313  13.601
33367SOL    HW2 1941  13.830   7.267  13.702
33368SOL     OW 1942   1.812  11.831   1.700
33368SOL    HW1 1943   1.871  11.869   1.766
33368SOL    HW2 1944   1.803  11.901   1.635
33369SOL     OW 1945   9.612   0.670   1.595
33369SOL    HW1 1946   9.555   0.708   1.662
33369SOL    HW2 1947   9.664   0.744   1.564
33370SOL     OW 1948   2.728  12.898  11.822
33370SOL    HW1 1949   2.767  12.983  11.841
33370SOL    HW2 1950   2.679  12.877  11.901
33371SOL     OW 1951   8.110   5.824   7.559
33371SOL    HW1 1952   8.174   5.793   7.494
33371SOL    HW2 1953   8.069   5.744   7.591
33372SOL     OW 1954   3.904   6.451   0.534
33372SOL    HW1 1955   3.919   6.389   0.605
33372SOL    HW2 1956   3.929   6.403   0.455
33373SOL     OW 1957   9.566  12.452  10.810
33373SOL    HW1 1958   9.533  12.370  10.773
33373SOL    HW2 1959   9.635  12.479  10.750
33374SOL     OW 1960   0.163  13.601   6.611
33374SOL    HW1 1961   0.183  13.534   6.546
33374SOL    HW2 1962   0.131  13.552   6.687
33375SOL     OW 1963   2.006  12.842  14.395
33375SOL    HW1 1964   1.952  12.764  14.383
33375SOL    HW2 1965   1.944  12.915  14.392
33376SOL     OW 1966  14.305  12.856  13.860
33376SOL    HW1 1967  14.395  12.835  13.886
33376SOL    HW2 1968  14.310  12.943  13.821
33377SOL     OW 1969   8.307  11.162  11.816
33377SOL    HW1 1970   8.217  11.180  11.787
33377SOL    HW2 1971   8.317  11.213  11.896
33378SOL     OW 1972   6.211   0.436  12.617
33378SOL    HW1 1973   6.241   0.525  12.638
33378SOL    HW2 1974   6.273   0.405  12.551
33379SOL     OW 1975   9.467   6.760   0.337
33379SOL    HW1 1976   9.420   6.695   0.389
33379SOL    HW2 1977   9.515   6.812   0.401
33380SOL     OW 1978  13.911  14.446   6.951
33380SOL    HW1 1979  13.866  14.371   6.910
33380SOL    HW2 1980  13.850  14.477   7.017
33381SOL     OW 1981  13.894   0.200   0.650
33381SOL    HW1 1982  13.887   0.267   0.718
33381SOL    HW2 1983  13.805   0.165   0.641
33382SOL     OW 1984   6.467   4.375   4.106
33382SOL    HW1 1985   6.511   4.324   4.174
33382SOL    HW2 1986   6.520   4.360   4.028
33383SOL     OW 1987   1.381  10.472   8.011
33383SOL    HW1 1988   1.474  10.453   8.024
33383SOL    HW2 1989   1.357  10.421   7.934
33384SOL     OW 1990  13.417   8.841  13.501
33384SOL    HW1 1991  13.456   8.853  13.587
33384SOL    HW2 1992  13.437   8.923  13.454
33385SOL     OW 1993  11.438   7.330   4.789
33385SOL    HW1 1994  11.426   7.277   4.710
33385SOL    HW2 1995  11.533   7.330   4.803
33386SOL     OW 1996   7.233   9.289   6.673
33386SOL    HW1 1997   7.307   9.230   6.686
33386SOL    HW2 1998   7.266   9.375   6.701
33387SOL     OW 1999   9.289  14.441   4.476
33387SOL    HW1 2000   9.365  14.386   4.494
33387SOL    HW2 2001   9.319  14.530   4.493
33388SOL     OW 2002   7.231  11.410   7.516
33388SOL    HW1 2003   7.214  11.329   7.466
33388SOL    HW2 2004   7.154  11.464   7.500
33389SOL     OW 2005  10.365   0.660   8.126
33389SOL    HW1 2006  10.327   0.578   8.157
33389SOL    HW2 2007  10.418   0.691   8.199
33390SOL     OW 2008   1.421   5.183  10.064
33390SOL    HW1 2009   1.434   5.108  10.005
33390SOL    HW2 2010   1.486   5.171  10.133
33391SOL     OW 2011   1.189  12.366   5.447
33391SOL    HW1 2012   1.172  12.448   5.494
33391SOL    HW2 2013   1.185  12.299   5.515
33392SOL     OW 2014  10.730  14.794  10.997
33392SOL    HW1 2015  10.799  14.826  10.939
33392SOL    HW2 2016  10.667  14.865  11.001
33393SOL     OW 2017  13.237   0.710  12.244
33393SOL    HW1 2018  13.291   0.788  12.227
33393SOL    HW2 2019  13.300   0.638  12.244
33394SOL     OW 2020  13.026  12.676   7.697
33394SOL    HW1 2021  12.957  12.626   7.740
33394SOL    HW2 2022  13.056  12.619   7.626
33395SOL     OW 2023   8.898   6.754   6.627
33395SOL    HW1 2024   8.823   6.810   6.646
33395SOL    HW2 2025   8.933   6.787   6.545
33396SOL     OW 2026   5.805   7.766  12.155
33396SOL    HW1 2027   5.794   7.849  12.107
33396SOL    HW2 2028   5.716   7.737  12.172
33397SOL     OW 2029   9.864   7.019   0.945
33397SOL    HW1 2030   9.953   7.020   0.980
33397SOL    HW2 2031   9.824   7.100   0.977
33398SOL     OW 2032   8.665   5.884   3.651
33398SOL    HW1 2033   8.636   5.874   3.561
33398SOL    HW2 2034   8.588   5.865   3.704
33399SOL     OW 2035  12.657   1.569   1.328
33399SOL    HW1 2036  12.711   1.616   1.391
33399SOL    HW2 2037  12.697   1.589   1.243
33400SOL     OW 2038   3.943  13.608   1.489
33400SOL    HW1 2039   3.927  13.517   1.513
33400SOL    HW2 2040   3.922  13.613   1.396
33401SOL     OW 2041  13.356  13.533  11.151
33401SOL    HW1 2042  13.266  13.506  11.135
33401SOL    HW2 2043  13.375  13.502  11.239
33402SOL     OW 2044   2.256   5.261   7.724
33402SOL    HW1 2045   2.211   5.311   7.792
33402SOL    HW2 2046   2.252   5.170   7.754
33403SOL     OW 2047  12.978  10.099  13.222
33403SOL    HW1 2048  13.014  10.067  13.139
33403SOL    HW2 2049  13.044  10.159  13.255
33404SOL     OW 2050   6.337  12.299   5.249
33404SOL    HW1 2051   6.295  12.356   5.313
33404SOL    HW2 2052   6.361  12.221   5.299
33405SOL     OW 2053   5.765   5.013   1.062
33405SOL    HW1 2054   5.751   4.925   1.026
33405SOL    HW2 2055   5.684   5.033   1.108
33406SOL     OW 2056  11.198  14.232  10.636
33406SOL    HW1 2057  11.194  14.182  10.718
33406SOL    HW2 2058  11.111  14.220  10.597
33407SOL     OW 2059   0.477   5.236  11.130
33407SOL    HW1 2060   0.442   5.151  11.100
33407SOL    HW2 2061   0.507   5.278  11.050
33408SOL     OW 2062   3.871   1.251  11.105
33408SOL    HW1 2063   3.819   1.283  11.030
33408SOL    HW2 2064   3.813   1.263  11.180
33409SOL     OW 2065   5.860  14.273   1.080
33409SOL    HW1 2066   5.890  14.307   0.995
33409SOL    HW2 2067   5.772  14.309   1.090
33410SOL     OW 2068  13.565   7.532   9.286
33410SOL    HW1 2069  13.539   7.531   9.194
33410SOL    HW2 2070  13.613   7.614   9.297
33411SOL     OW 2071  10.236   9.323   4.644
33411SOL    HW1 2072  10.276   9.272   4.714
33411SOL    HW2 2073  10.300   9.391   4.624
33412SOL     OW 2074   7.580   6.126   6.081
33412SOL    HW1 2075   7.509   6.171   6.127
33412SOL    HW2 2076   7.550   6.035   6.075
33413SOL     OW 2077  13.714   2.641   1.082
33413SOL    HW1 2078  13.707   2.549   1.058
33413SOL    HW2 2079  13.642   2.656   1.143
33414SOL     OW 2080   4.524   3.621  14.233
33414SOL    HW1 2081   4.563   3.630  14.320
33414SOL    HW2 2082   4.589   3.657  14.174
33415SOL     OW 2083  10.479   5.403  13.641
33415SOL    HW1 2084  10.462   5.380  13.732
33415SOL    HW2 2085  10.393   5.400  13.599
33416SOL     OW 2086   9.862  10.229   5.625
33416SOL    HW1 2087   9.804  10.157   5.602
33416SOL    HW2 2088   9.822  10.269   5.702
33417SOL     OW 2089  14.522  11.526   8.732
33417SOL    HW1 2090  14.436  11.525   8.691
33417SOL    HW2 2091  14.521  11.450   8.790
33418SOL     OW 2092   9.347   7.547  14.487
33418SOL    HW1 2093   9.299   7.485  14.543
33418SOL    HW2 2094   9.435   7.550  14.524
33419SOL     OW 2095   7.438   3.906  10.010
33419SOL    HW1 2096   7.401   3.883   9.925
33419SOL    HW2 2097   7.508   3.968   9.989
33420SOL     OW 2098  11.855   8.858   3.946
33420SOL    HW1 2099  11.764   8.851   3.975
33420SOL    HW2 2100  11.906   8.831   4.021
33421SOL     OW 2101   0.691   7.305   8.083
33421SOL    HW1 2102   0.710   7.227   8.031
33421SOL    HW2 2103   0.738   7.291   8.165
33422SOL     OW 2104   7.000  11.993   2.711
33422SOL    HW1 2105   6.953  11.987   2.627
33422SOL    HW2 2106   7.044  12.078   2.708
33423SOL     OW 2107   4.473   3.770   0.002
33423SOL    HW1 2108   4.443   3.859   0.020
33423SOL    HW2 2109   4.428   3.746  14.801
33424SOL     OW 2110   0.152   3.342  12.571
33424SOL    HW1 2111   0.112   3.398  12.505
33424SOL    HW2 2112   0.228   3.304  12.527
33425SOL     OW 2113  11.137   0.040   5.598
33425SOL    HW1 2114  11.165  14.859   5.666
33425SOL    HW2 2115  11.211   0.101   5.590
33426SOL     OW 2116   0.094   2.608  10.835
33426SOL    HW1 2117   0.008   2.640  10.860
33426SOL    HW2 2118   0.128   2.566  10.914
33427SOL     OW 2119   8.788  12.759  13.531
33427SOL    HW1 2120   8.771  12.851  13.512
33427SOL    HW2 2121   8.870  12.759  13.581
33428SOL     OW 2122   5.422   1.568   1.550
33428SOL    HW1 2123   5.507   1.555   1.507
33428SOL    HW2 2124   5.407   1.486   1.598
33429SOL     OW 2125  11.380  13.901  11.906
33429SOL    HW1 2126  11.307  13.872  11.852
33429SOL    HW2 2127  11.433  13.823  11.920
33430SOL     OW 2128   9.793   7.222   7.486
33430SOL    HW1 2129   9.865   7.278   7.459
33430SOL    HW2 2130   9.792   7.150   7.423
33431SOL     OW 2131   3.842   0.602  11.407
33431SOL    HW1 2132   3.794   0.685  11.402
33431SOL    HW2 2133   3.777   0.540  11.442
33432SOL     OW 2134   4.394   4.320   4.175
33432SOL    HW1 2135   4.469   4.377   4.192
33432SOL    HW2 2136   4.382   4.271   4.256
33433SOL     OW 2137   8.440  11.305   5.487
33433SOL    HW1 2138   8.490  11.230   5.517
33433SOL    HW2 2139   8.454  11.372   5.554
33434SOL     OW 2140  11.113   0.424  11.439
33434SOL    HW1 2141  11.063   0.457  11.364
33434SOL    HW2 2142  11.111   0.329  11.427
33435SOL     OW 2143  11.269   6.845  12.197
33435SOL    HW1 2144  11.278   6.934  12.164
33435SOL    HW2 2145  11.200   6.806  12.145
33436SOL     OW 2146  14.776   3.914   1.904
33436SOL    HW1 2147  14.800   3.996   1.947
33436SOL    HW2 2148  14.754   3.940   1.815
33437SOL     OW 2149   7.492   8.933   9.039
33437SOL    HW1 2150   7.487   8.852   8.988
33437SOL    HW2 2151   7.401   8.956   9.057
33438SOL     OW 2152   7.955   6.731   1.857
33438SOL    HW1 2153   7.921   6.652   1.899
33438SOL    HW2 2154   8.008   6.699   1.784
33439SOL     OW 2155   5.733   2.923   0.096
33439SOL    HW1 2156   5.694   2.852   0.147
33439SOL    HW2 2157   5.675   2.998   0.112
33440SOL     OW 2158   7.243  10.198  14.817
33440SOL    HW1 2159   7.221  10.279  14.863
33440SOL    HW2 2160   7.267  10.226  14.729
33441SOL     OW 2161   9.702  10.420   0.208
33441SOL    HW1 2162   9.775  10.465   0.165
33441SOL    HW2 2163   9.661  10.370   0.137
33442SOL     OW 2164   0.116   8.550   2.075
33442SOL    HW1 2165   0.184   8.525   2.138
33442SOL    HW2 2166   0.157   8.536   1.990
33443SOL     OW 2167   9.342  11.425  14.871
33443SOL    HW1 2168   9.312  11.516  14.873
33443SOL    HW2 2169   9.426  11.428  14.825
33444SOL     OW 2170   2.082   2.645   1.988
33444SOL    HW1 2171   2.148   2.577   1.999
33444SOL    HW2 2172   2.062   2.675   2.077
33445SOL     OW 2173   0.073   2.421   8.153
33445SOL    HW1 2174   0.149   2.374   8.188
33445SOL    HW2 2175   0.017   2.352   8.115
33446SOL     OW 2176   3.125  11.089   9.730
33446SOL    HW1 2177   3.092  11.054   9.813
33446SOL    HW2 2178   3.156  11.177   9.751
33447SOL     OW 2179   3.617   2.418  10.878
33447SOL    HW1 2180   3.533   2.434  10.921
33447SOL    HW2 2181   3.682   2.435  10.946
33448SOL     OW 2182   6.665   0.830  10.944
33448SOL    HW1 2183   6.725   0.855  10.874
33448SOL    HW2 2184   6.593   0.893  10.938
33449SOL     OW 2185  13.749   0.012   6.491
33449SOL    HW1 2186  13.779   0.015   6.400
33449SOL    HW2 2187  13.818  14.844   6.537
33450SOL     OW 2188   1.340  11.985   8.483
33450SOL    HW1 2189   1.274  11.921   8.456
33450SOL    HW2 2190   1.324  12.061   8.428
33451SOL     OW 2191   2.746  12.128  14.240
33451SOL    HW1 2192   2.745  12.203  14.300
33451SOL    HW2 2193   2.669  12.141  14.184
33452SOL     OW 2194   4.086   0.447   8.289
33452SOL    HW1 2195   4.082   0.542   8.286
33452SOL    HW2 2196   4.177   0.426   8.266
33453SOL     OW 2197   3.204   2.473  10.440
33453SOL    HW1 2198   3.252   2.552  10.465
33453SOL    HW2 2199   3.270   2.418  10.398
33454SOL     OW 2200   7.277   4.937  13.588
33454SOL    HW1 2201   7.351   4.879  13.606
33454SOL    HW2 2202   7.249   4.968  13.674
33455SOL     OW 2203   8.006   0.311   1.297
33455SOL    HW1 2204   8.019   0.353   1.212
33455SOL    HW2 2205   8.051   0.368   1.359
33456SOL     OW 2206   0.041   0.109  10.276
33456SOL    HW1 2207  14.859   0.177  10.250
33456SOL    HW2 2208   0.106   0.107  10.206
33457SOL     OW 2209  14.786   5.323  10.422
33457SOL    HW1 2210  14.781   5.405  10.470
33457SOL    HW2 2211  14.816   5.348  10.334
33458SOL     OW 2212   5.541   4.259   3.084
33458SOL    HW1 2213   5.613   4.317   3.107
33458SOL    HW2 2214   5.511   4.223   3.167
33459SOL     OW 2215   2.268   1.757  10.995
33459SOL    HW1 2216   2.341   1.720  10.946
33459SOL    HW2 2217   2.243   1.688  11.057
33460SOL     OW 2218   3.305   8.683   8.367
33460SOL    HW1 2219   3.312   8.726   8.282
33460SOL    HW2 2220   3.227   8.721   8.407
33461SOL     OW 2221   4.536  12.562   1.147
33461SOL    HW1 2222   4.533  12.618   1.225
33461SOL    HW2 2223   4.468  12.496   1.163
33462SOL     OW 2224   1.349   8.632   7.638
33462SOL    HW1 2225   1.268   8.638   7.688
33462SOL    HW2 2226   1.360   8.719   7.599
33463SOL     OW 2227   3.062  12.317  12.599
33463SOL    HW1 2228   3.092  12.283  12.684
33463SOL    HW2 2229   3.051  12.411  12.614
33464SOL     OW 2230  14.244   4.947   9.984
33464SOL    HW1 2231  14.212   4.865  10.020
33464SOL    HW2 2232  14.208   4.950   9.895
33465SOL     OW 2233   6.316   5.240   6.594
33465SOL    HW1 2234   6.300   5.153   6.631
33465SOL    HW2 2235   6.408   5.258   6.614
33466SOL     OW 2236   4.340   6.797  10.927
33466SOL    HW1 2237   4.258   6.791  10.879
33466SOL    HW2 2238   4.327   6.868  10.990
33467SOL     OW 2239   7.051   5.717  11.499
33467SOL    HW1 2240   7.100   5.788  11.457
33467SOL    HW2 2241   7.051   5.646  11.435
33468SOL     OW 2242  13.755  12.351   9.874
33468SOL    HW1 2243  13.759  12.446   9.887
33468SOL    HW2 2244  13.742  12.316   9.962
33469SOL     OW 2245   8.288  12.685   4.922
33469SOL    HW1 2246   8.264  12.651   5.009
33469SOL    HW2 2247   8.205  12.700   4.878
33470SOL     OW 2248  13.648   9.710  11.160
33470SOL    HW1 2249  13.599   9.628  11.157
33470SOL    HW2 2250  13.734   9.689  11.126
33471SOL     OW 2251  13.791  11.482   7.644
33471SOL    HW1 2252  13.813  11.575   7.654
33471SOL    HW2 2253  13.742  11.462   7.724
33472SOL     OW 2254   4.307   2.648  13.901
33472SOL    HW1 2255   4.324   2.735  13.938
33472SOL    HW2 2256   4.249   2.664  13.827
33473SOL     OW 2257  13.472   8.598  10.545
33473SOL    HW1 2258  13.473   8.579  10.638
33473SOL    HW2 2259  13.535   8.670  10.534
33474SOL     OW 2260   8.994   7.786   7.598
33474SOL    HW1 2261   8.983   7.873   7.637
33474SOL    HW2 2262   9.087   7.783   7.573
33475SOL     OW 2263   6.940   0.059   6.026
33475SOL    HW1 2264   6.901  14.852   6.013
33475SOL    HW2 2265   7.007   0.066   5.957
33476SOL     OW 2266   7.103  14.265   7.014
33476SOL    HW1 2267   7.093  14.322   6.938
33476SOL    HW2 2268   7.197  14.255   7.024
33477SOL     OW 2269  10.944   8.283  13.632
33477SOL    HW1 2270  10.955   8.310  13.723
33477SOL    HW2 2271  11.029   8.249  13.606
33478SOL     OW 2272   4.618   1.689   5.500
33478SOL    HW1 2273   4.652   1.772   5.536
33478SOL    HW2 2274   4.585   1.712   5.413
33479SOL     OW 2275   3.727   8.706  10.966
33479SOL    HW1 2276   3.705   8.756  11.045
33479SOL    HW2 2277   3.653   8.720  10.907
33480SOL     OW 2278   7.514  10.107   3.769
33480SOL    HW1 2279   7.561  10.023   3.772
33480SOL    HW2 2280   7.438  10.094   3.825
33481SOL     OW 2281   3.823   9.471   7.531
33481SOL    HW1 2282   3.799   9.552   7.486
33481SOL    HW2 2283   3.744   9.417   7.528
33482SOL     OW 2284   3.526  13.158  10.508
33482SOL    HW1 2285   3.482  13.240  10.529
33482SOL    HW2 2286   3.526  13.109  10.591
33483SOL     OW 2287  13.077   6.533   9.466
33483SOL    HW1 2288  13.116   6.605   9.417
33483SOL    HW2 2289  13.053   6.571   9.550
33484SOL     OW 2290   0.420  12.948   8.649
33484SOL    HW1 2291   0.368  12.925   8.726
33484SOL    HW2 2292   0.419  12.869   8.595
33485SOL     OW 2293   3.947   8.024   2.910
33485SOL    HW1 2294   3.929   8.117   2.924
33485SOL    HW2 2295   4.033   8.022   2.868
33486SOL     OW 2296   2.779   8.579  12.120
33486SOL    HW1 2297   2.702   8.629  12.094
33486SOL    HW2 2298   2.838   8.644  12.159
33487SOL     OW 2299   2.380  12.320  12.201
33487SOL    HW1 2300   2.328  12.353  12.128
33487SOL    HW2 2301   2.463  12.368  12.196
33488SOL     OW 2302  13.066   0.376  10.673
33488SOL    HW1 2303  12.986   0.403  10.628
33488SOL    HW2 2304  13.132   0.371  10.603
33489SOL     OW 2305  14.092  10.506   4.017
33489SOL    HW1 2306  14.167  10.446   4.022
33489SOL    HW2 2307  14.125  10.582   3.970
33490SOL     OW 2308   4.739   8.821   6.536
33490SOL    HW1 2309   4.697   8.820   6.622
33490SOL    HW2 2310   4.675   8.862   6.478
33491SOL     OW 2311  11.342  11.572   4.749
33491SOL    HW1 2312  11.429  11.549   4.782
33491SOL    HW2 2313  11.287  11.497   4.770
33492SOL     OW 2314   9.163   8.990   6.288
33492SOL    HW1 2315   9.114   9.064   6.255
33492SOL    HW2 2316   9.104   8.947   6.349
33493SOL     OW 2317  10.778   6.381  11.604
33493SOL    HW1 2318  10.700   6.328  11.622
33493SOL    HW2 2319  10.746   6.449  11.544
33494SOL     OW 2320   0.485  13.058   0.962
33494SOL    HW1 2321   0.398  13.098   0.958
33494SOL    HW2 2322   0.487  13.014   1.047
33495SOL     OW 2323   7.243  10.104   1.611
33495SOL    HW1 2324   7.226  10.080   1.702
33495SOL    HW2 2325   7.261  10.021   1.567
33496SOL     OW 2326   0.558   8.184   0.990
33496SOL    HW1 2327   0.537   8.120   0.922
33496SOL    HW2 2328   0.600   8.256   0.944
33497SOL     OW 2329   7.274  12.470   9.308
33497SOL    HW1 2330   7.352  12.521   9.284
33497SOL    HW2 2331   7.301  12.417   9.382
33498SOL     OW 2332  13.060  10.434   0.905
33498SOL    HW1 2333  12.989  10.396   0.854
33498SOL    HW2 2334  13.134  10.375   0.890
33499SOL     OW 2335   3.404   3.805   4.733
33499SOL    HW1 2336   3.489   3.809   4.690
33499SOL    HW2 2337   3.391   3.712   4.751
33500SOL     OW 2338   7.631   1.587  14.650
33500SOL    HW1 2339   7.553   1.640  14.636
33500SOL    HW2 2340   7.600   1.512  14.701
33501SOL     OW 2341   5.446   2.816  10.920
33501SOL    HW1 2342   5.506   2.764  10.973
33501SOL    HW2 2343   5.389   2.859  10.983
33502SOL     OW 2344  10.050   9.384   8.163
33502SOL    HW1 2345  10.057   9.289   8.162
33502SOL    HW2 2346   9.969   9.403   8.116
33503SOL     OW 2347  10.993   6.557   0.433
33503SOL    HW1 2348  11.038   6.542   0.516
33503SOL    HW2 2349  11.041   6.504   0.369
33504SOL     OW 2350   9.420   9.541   5.905
33504SOL    HW1 2351   9.367   9.462   5.897
33504SOL    HW2 2352   9.412   9.583   5.819
33505SOL     OW 2353  13.632   0.627  13.151
33505SOL    HW1 2354  13.611   0.700  13.209
33505SOL    HW2 2355  13.725   0.608  13.168
33506SOL     OW 2356  12.931   9.048  14.524
33506SOL    HW1 2357  12.922   9.117  14.590
33506SOL    HW2 2358  12.935   9.094  14.441
33507SOL     OW 2359   5.601  10.994  12.532
33507SOL    HW1 2360   5.642  10.918  12.571
33507SOL    HW2 2361   5.515  11.000  12.574
33508SOL     OW 2362   0.329   1.976   4.115
33508SOL    HW1 2363   0.246   2.018   4.092
33508SOL    HW2 2364   0.305   1.911   4.181
33509SOL     OW 2365  14.271   4.739  11.963
33509SOL    HW1 2366  14.250   4.830  11.986
33509SOL    HW2 2367  14.303   4.745  11.873
33510SOL     OW 2368   5.386   2.592  14.556
33510SOL    HW1 2369   5.380   2.679  14.594
33510SOL    HW2 2370   5.326   2.593  14.482
33511SOL     OW 2371   9.066  13.389  14.679
33511SOL    HW1 2372   9.085  13.481  14.660
33511SOL    HW2 2373   9.025  13.391  14.766
33512SOL     OW 2374  13.025   9.287  11.195
33512SOL    HW1 2375  12.997   9.201  11.227
33512SOL    HW2 2376  12.946   9.341  11.197
33513SOL     OW 2377  12.238  13.904   2.551
33513SOL    HW1 2378  12.289  13.935   2.476
33513SOL    HW2 2379  12.280  13.944   2.627
33514SOL     OW 2380   5.736   2.452   6.529
33514SOL    HW1 2381   5.658   2.495   6.563
33514SOL    HW2 2382   5.739   2.368   6.574
33515SOL     OW 2383  14.860  14.728   8.826
33515SOL    HW1 2384  14.780  14.754   8.872
33515SOL    HW2 2385  14.872  14.795   8.760
33516SOL     OW 2386   3.220   3.890   0.186
33516SOL    HW1 2387   3.287   3.932   0.132
33516SOL    HW2 2388   3.218   3.941   0.267
33517SOL     OW 2389  13.472  11.687  11.328
33517SOL    HW1 2390  13.462  11.660  11.236
33517SOL    HW2 2391  13.474  11.605  11.377
33518SOL     OW 2392  10.522   2.285   2.526
33518SOL    HW1 2393  10.497   2.195   2.507
33518SOL    HW2 2394  10.455   2.338   2.485
33519SOL     OW 2395   9.007  10.745   6.511
33519SOL    HW1 2396   9.008  10.710   6.600
33519SOL    HW2 2397   8.916  10.740   6.484
33520SOL     OW 2398   5.911  12.867  14.621
33520SOL    HW1 2399   6.004  12.866  14.597
33520SOL    HW2 2400   5.910  12.891  14.713
33521SOL     OW 2401  12.040  10.483  13.551
33521SOL    HW1 2402  12.043  10.577  13.570
33521SOL    HW2 2403  12.077  10.476  13.463
33522SOL     OW 2404   6.808  10.082   5.039
33522SOL    HW1 2405   6.846  10.104   5.124
33522SOL    HW2 2406   6.884  10.058   4.985
33523SOL     OW 2407   7.830   1.380   9.748
33523SOL    HW1 2408   7.885   1.456   9.730
33523SOL    HW2 2409   7.770   1.375   9.674
33524SOL     OW 2410   6.371   7.511   7.466
33524SOL    HW1 2411   6.375   7.465   7.383
33524SOL    HW2 2412   6.277   7.529   7.479
33525SOL     OW 2413   6.144   3.037   9.711
33525SOL    HW1 2414   6.157   2.951   9.750
33525SOL    HW2 2415   6.146   3.098   9.785
33526SOL     OW 2416   7.051  14.180   2.569
33526SOL    HW1 2417   7.106  14.248   2.530
33526SOL    HW2 2418   6.964  14.220   2.574
33527SOL     OW 2419  13.063  11.994   1.256
33527SOL    HW1 2420  13.124  11.973   1.328
33527SOL    HW2 2421  13.060  11.914   1.204
33528SOL     OW 2422  13.061   4.084   5.785
33528SOL    HW1 2423  13.053   4.168   5.831
33528SOL    HW2 2424  12.972   4.063   5.759
33529SOL     OW 2425  14.308   9.625  10.089
33529SOL    HW1 2426  14.263   9.709  10.077
33529SOL    HW2 2427  14.398   9.643  10.064
33530SOL     OW 2428   9.501   7.858  13.643
33530SOL    HW1 2429   9.495   7.764  13.658
33530SOL    HW2 2430   9.433   7.877  13.579
33531SOL     OW 2431  13.907   1.118   5.487
33531SOL    HW1 2432  13.915   1.028   5.517
33531SOL    HW2 2433  13.961   1.121   5.408
33532SOL     OW 2434   3.014  14.484   7.723
33532SOL    HW1 2435   2.951  14.433   7.672
33532SOL    HW2 2436   2.961  14.529   7.788
33533SOL     OW 2437   9.753  12.628  13.554
33533SOL    HW1 2438   9.717  12.540  13.567
33533SOL    HW2 2439   9.718  12.655  13.469
33534SOL     OW 2440   4.397   6.746   1.185
33534SOL    HW1 2441   4.321   6.805   1.181
33534SOL    HW2 2442   4.394   6.698   1.102
33535SOL     OW 2443   2.397   7.348   6.853
33535SOL    HW1 2444   2.311   7.354   6.813
33535SOL    HW2 2445   2.390   7.276   6.916
33536SOL     OW 2446   9.640   2.989   3.717
33536SOL    HW1 2447   9.708   2.990   3.650
33536SOL    HW2 2448   9.558   2.997   3.668
33537SOL     OW 2449  14.512   5.623  13.504
33537SOL    HW1 2450  14.482   5.696  13.558
33537SOL    HW2 2451  14.441   5.608  13.442
33538SOL     OW 2452   7.009   2.217   4.271
33538SOL    HW1 2453   7.091   2.199   4.317
33538SOL    HW2 2454   7.034   2.271   4.197
33539SOL     OW 2455   8.959   6.967   2.818
33539SOL    HW1 2456   8.996   6.920   2.743
33539SOL    HW2 2457   8.977   7.059   2.799
33540SOL     OW 2458  11.409   7.355   7.696
33540SOL    HW1 2459  11.488   7.357   7.641
33540SOL    HW2 2460  11.426   7.285   7.759
33541SOL     OW 2461   9.375   6.394   3.629
33541SOL    HW1 2462   9.346   6.387   3.720
33541SOL    HW2 2463   9.427   6.315   3.614
33542SOL     OW 2464   9.280  11.761   2.697
33542SOL    HW1 2465   9.187  11.740   2.697
33542SOL    HW2 2466   9.303  11.767   2.604
33543SOL     OW 2467  10.340   4.419   6.375
33543SOL    HW1 2468  10.389   4.501   6.371
33543SOL    HW2 2469  10.281   4.430   6.449
33544SOL     OW 2470   0.164  13.990   9.799
33544SOL    HW1 2471   0.158  13.948   9.885
33544SOL    HW2 2472   0.155  14.083   9.818
33545SOL     OW 2473   5.446  11.150   6.184
33545SOL    HW1 2474   5.432  11.111   6.270
33545SOL    HW2 2475   5.536  11.182   6.186
33546SOL     OW 2476   4.174  13.467   1.979
33546SOL    HW1 2477   4.231  13.500   1.910
33546SOL    HW2 2478   4.121  13.399   1.936
33547SOL     OW 2479  13.288  11.638   8.814
33547SOL    HW1 2480  13.294  11.551   8.855
33547SOL    HW2 2481  13.379  11.665   8.804
33548SOL     OW 2482  13.855  13.150   8.601
33548SOL    HW1 2483  13.811  13.112   8.677
33548SOL    HW2 2484  13.848  13.082   8.534
33549SOL     OW 2485  12.106   2.377   1.490
33549SOL    HW1 2486  12.069   2.346   1.407
33549SOL    HW2 2487  12.058   2.328   1.557
33550SOL     OW 2488   5.956   0.531   8.320
33550SOL    HW1 2489   6.016   0.501   8.387
33550SOL    HW2 2490   5.990   0.616   8.293
33551SOL     OW 2491  14.660  12.073   7.451
33551SOL    HW1 2492  14.577  12.053   7.408
33551SOL    HW2 2493  14.640  12.066   7.545
33552SOL     OW 2494   6.074   4.824   7.077
33552SOL    HW1 2495   6.095   4.791   7.164
33552SOL    HW2 2496   6.060   4.745   7.024
33553SOL     OW 2497   3.110   7.609  13.210
33553SOL    HW1 2498   3.092   7.613  13.304
33553SOL    HW2 2499   3.175   7.539  13.201
33554SOL     OW 2500   9.676   5.138   7.897
33554SOL    HW1 2501   9.728   5.208   7.858
33554SOL    HW2 2502   9.634   5.095   7.823
33555SOL     OW 2503   5.191   9.146   9.528
33555SOL    HW1 2504   5.127   9.207   9.562
33555SOL    HW2 2505   5.148   9.060   9.532
33556SOL     OW 2506   3.249   7.199  12.627
33556SOL    HW1 2507   3.224   7.164  12.712
33556SOL    HW2 2508   3.216   7.134  12.564
33557SOL     OW 2509   2.742   5.992   0.721
33557SOL    HW1 2510   2.698   6.040   0.650
33557SOL    HW2 2511   2.813   5.945   0.677
33558SOL     OW 2512  11.752   1.136   0.304
33558SOL    HW1 2513  11.707   1.113   0.223
33558SOL    HW2 2514  11.721   1.224   0.326
33559SOL     OW 2515   2.057   6.034  13.677
33559SOL    HW1 2516   2.146   6.003  13.663
33559SOL    HW2 2517   2.002   5.974  13.626
33560SOL     OW 2518  11.176  11.036   2.712
33560SOL    HW1 2519  11.197  11.124   2.743
33560SOL    HW2 2520  11.111  11.051   2.643
33561SOL     OW 2521  10.443   5.648   0.628
33561SOL    HW1 2522  10.434   5.560   0.665
33561SOL    HW2 2523  10.417   5.707   0.700
33562SOL     OW 2524  10.576  14.137   9.424
33562SOL    HW1 2525  10.548  14.086   9.348
33562SOL    HW2 2526  10.513  14.209   9.429
33563SOL     OW 2527   9.260  13.893  11.663
33563SOL    HW1 2528   9.350  13.899  11.632
33563SOL    HW2 2529   9.207  13.886  11.583
33564SOL     OW 2530   4.056   7.852   6.368
33564SOL    HW1 2531   4.135   7.798   6.370
33564SOL    HW2 2532   4.064   7.909   6.444
33565SOL     OW 2533   2.583   7.615   8.266
33565SOL    HW1 2534   2.572   7.610   8.171
33565SOL    HW2 2535   2.671   7.580   8.281
33566SOL     OW 2536   0.370   3.175   4.414
33566SOL    HW1 2537   0.438   3.130   4.464
33566SOL    HW2 2538   0.289   3.155   4.460
33567SOL     OW 2539  14.097   3.177   7.657
33567SOL    HW1 2540  14.073   3.121   7.731
33567SOL    HW2 2541  14.029   3.160   7.591
33568SOL     OW 2542  10.502   6.667   4.757
33568SOL    HW1 2543  10.509   6.590   4.701
33568SOL    HW2 2544  10.432   6.719   4.718
33569SOL     OW 2545   7.392   5.291   1.600
33569SOL    HW1 2546   7.347   5.365   1.642
33569SOL    HW2 2547   7.469   5.330   1.559
33570SOL     OW 2548   3.113   6.225   7.684
33570SOL    HW1 2549   3.075   6.186   7.605
33570SOL    HW2 2550   3.198   6.182   7.693
33571SOL     OW 2551  12.478   9.031   0.117
33571SOL    HW1 2552  12.465   8.946   0.074
33571SOL    HW2 2553  12.467   9.013   0.211
33572SOL     OW 2554   8.706   9.546   1.150
33572SOL    HW1 2555   8.621   9.570   1.114
33572SOL    HW2 2556   8.691   9.461   1.191
33573SOL     OW 2557   2.041   8.353   8.988
33573SOL    HW1 2558   2.117   8.298   9.008
33573SOL    HW2 2559   2.023   8.401   9.068
33574SOL     OW 2560   4.136   2.765   2.676
33574SOL    HW1 2561   4.217   2.751   2.627
33574SOL    HW2 2562   4.163   2.761   2.768
33575SOL     OW 2563   4.776   2.648  11.131
33575SOL    HW1 2564   4.791   2.585  11.061
33575SOL    HW2 2565   4.812   2.730  11.096
33576SOL     OW 2566   7.645  12.106   1.665
33576SOL    HW1 2567   7.667  12.181   1.609
33576SOL    HW2 2568   7.610  12.041   1.605
33577SOL     OW 2569   7.348   0.238   6.461
33577SOL    HW1 2570   7.328   0.149   6.430
33577SOL    HW2 2571   7.440   0.234   6.487
33578SOL     OW 2572   2.585   1.669  14.159
33578SOL    HW1 2573   2.498   1.636  14.183
33578SOL    HW2 2574   2.629   1.594  14.119
33579SOL     OW 2575   2.627  10.177  10.964
33579SOL    HW1 2576   2.590  10.256  11.003
33579SOL    HW2 2577   2.671  10.132  11.036
33580SOL     OW 2578  14.309   7.396   1.764
33580SOL    HW1 2579  14.359   7.444   1.698
33580SOL    HW2 2580  14.258   7.333   1.714
33581SOL     OW 2581   4.201  13.493   1.279
33581SOL    HW1 2582   4.260  13.562   1.308
33581SOL    HW2 2583   4.255  13.435   1.226
33582SOL     OW 2584  14.347   7.847   1.009
33582SOL    HW1 2585  14.412   7.788   1.046
33582SOL    HW2 2586  14.305   7.887   1.085
33583SOL     OW 2587   3.955   6.535   2.946
33583SOL    HW1 2588   3.951   6.501   3.035
33583SOL    HW2 2589   4.049   6.536   2.925
33584SOL     OW 2590   3.916  14.677  11.277
33584SOL    HW1 2591   3.887  14.751  11.330
33584SOL    HW2 2592   3.842  14.658  11.219
33585SOL     OW 2593  13.521  10.164  13.987
33585SOL    HW1 2594  13.482  10.119  14.062
33585SOL    HW2 2595  13.565  10.240  14.025
33586SOL     OW 2596   5.807   6.346   5.270
33586SOL    HW1 2597   5.842   6.348   5.359
33586SOL    HW2 2598   5.712   6.352   5.281
33587SOL     OW 2599   5.632  14.420   5.112
33587SOL    HW1 2600   5.708  14.362   5.110
33587SOL    HW2 2601   5.654  14.487   5.177
33588SOL     OW 2602  10.081  11.509  11.177
33588SOL    HW1 2603  10.164  11.541  11.142
33588SOL    HW2 2604  10.103  11.424  11.216
33589SOL     OW 2605  11.914   1.884   9.187
33589SOL    HW1 2606  11.835   1.929   9.156
33589SOL    HW2 2607  11.945   1.834   9.111
33590SOL     OW 2608  11.258  12.981   7.224
33590SOL    HW1 2609  11.264  13.051   7.290
33590SOL    HW2 2610  11.201  13.016   7.156
33591SOL     OW 2611  11.222   2.537   6.988
33591SOL    HW1 2612  11.165   2.510   6.916
33591SOL    HW2 2613  11.307   2.554   6.947
33592SOL     OW 2614  11.215   5.398   4.455
33592SOL    HW1 2615  11.181   5.317   4.494
33592SOL    HW2 2616  11.305   5.404   4.486
33593SOL     OW 2617   7.445   1.599   9.438
33593SOL    HW1 2618   7.508   1.585   9.367
33593SOL    HW2 2619   7.483   1.667   9.492
33594SOL     OW 2620   9.980  10.415   8.549
33594SOL    HW1 2621   9.978  10.333   8.499
33594SOL    HW2 2622   9.889  10.442   8.554
33595SOL     OW 2623  12.113   3.683   0.625
33595SOL    HW1 2624  12.064   3.745   0.571
33595SOL    HW2 2625  12.187   3.657   0.570
33596SOL     OW 2626   3.250   7.472  14.590
33596SOL    HW1 2627   3.301   7.406  14.544
33596SOL    HW2 2628   3.186   7.422  14.641
33597SOL     OW 2629   8.658   6.245  13.196
33597SOL    HW1 2630   8.718   6.180  13.232
33597SOL    HW2 2631   8.588   6.194  13.156
33598SOL     OW 2632   3.649  13.624   1.216
33598SOL    HW1 2633   3.739  13.653   1.233
33598SOL    HW2 2634   3.613  13.691   1.158
33599SOL     OW 2635  14.523   9.493  14.796
33599SOL    HW1 2636  14.512   9.584  14.821
33599SOL    HW2 2637  14.513   9.444  14.877
33600SOL     OW 2638  10.590   9.887  11.268
33600SOL    HW1 2639  10.647   9.906  11.193
33600SOL    HW2 2640  10.647   9.894  11.344
33601SOL     OW 2641   2.622  13.755  10.697
33601SOL    HW1 2642   2.595  13.664  10.686
33601SOL    HW2 2643   2.662  13.779  10.613
33602SOL     OW 2644   1.464   8.729   1.173
33602SOL    HW1 2645   1.479   8.657   1.112
33602SOL    HW2 2646   1.446   8.805   1.117
33603SOL     OW 2647   9.960   5.904   7.144
33603SOL    HW1 2648   9.890   5.851   7.182
33603SOL    HW2 2649   9.920   5.989   7.128
33604SOL     OW 2650   6.564   5.039  10.116
33604SOL    HW1 2651   6.600   5.117  10.076
33604SOL    HW2 2652   6.470   5.055  10.120
33605SOL     OW 2653   7.255   0.329   2.800
33605SOL    HW1 2654   7.250   0.365   2.711
33605SOL    HW2 2655   7.244   0.405   2.857
33606SOL     OW 2656   9.703   9.762   4.883
33606SOL    HW1 2657   9.708   9.676   4.925
33606SOL    HW2 2658   9.712   9.742   4.789
33607SOL     OW 2659  11.889  13.360   4.389
33607SOL    HW1 2660  11.808  13.360   4.337
33607SOL    HW2 2661  11.946  13.422   4.345
33608SOL     OW 2662   5.393   5.304  10.899
33608SOL    HW1 2663   5.336   5.379  10.885
33608SOL    HW2 2664   5.472   5.323  10.849
33609SOL     OW 2665   0.573   6.501  14.099
33609SOL    HW1 2666   0.562   6.475  14.008
33609SOL    HW2 2667   0.529   6.431  14.149
33610SOL     OW 2668  14.689  12.454   2.909
33610SOL    HW1 2669  14.755  12.429   2.973
33610SOL    HW2 2670  14.626  12.507   2.958
33611SOL     OW 2671   2.476   5.645  14.155
33611SOL    HW1 2672   2.426   5.681  14.081
33611SOL    HW2 2673   2.566   5.673  14.138
33612SOL     OW 2674   8.619   7.840  14.718
33612SOL    HW1 2675   8.562   7.782  14.668
33612SOL    HW2 2676   8.663   7.783  14.781
33613SOL     OW 2677   7.060   8.347   0.632
33613SOL    HW1 2678   7.085   8.255   0.642
33613SOL    HW2 2679   7.129   8.385   0.579
33614SOL     OW 2680   6.650  10.864   3.115
33614SOL    HW1 2681   6.662  10.935   3.177
33614SOL    HW2 2682   6.657  10.906   3.029
33615SOL     OW 2683   0.409  13.560   9.003
33615SOL    HW1 2684   0.320  13.537   8.977
33615SOL    HW2 2685   0.436  13.627   8.941
33616SOL     OW 2686   8.153   1.055   1.959
33616SOL    HW1 2687   8.150   1.106   1.877
33616SOL    HW2 2688   8.123   1.116   2.026
33617SOL     OW 2689  12.105  14.296   5.680
33617SOL    HW1 2690  12.124  14.387   5.659
33617SOL    HW2 2691  12.066  14.299   5.768
33618SOL     OW 2692   2.035   4.763   2.831
33618SOL    HW1 2693   2.122   4.764   2.791
33618SOL    HW2 2694   1.981   4.715   2.769
33619SOL     OW 2695  12.230   3.025   8.435
33619SOL    HW1 2696  12.324   3.015   8.424
33619SOL    HW2 2697  12.209   2.975   8.514
33620SOL     OW 2698   7.465  12.643   9.633
33620SOL    HW1 2699   7.478  12.695   9.712
33620SOL    HW2 2700   7.408  12.571   9.661
33621SOL     OW 2701  14.675   3.444   6.903
33621SOL    HW1 2702  14.711   3.495   6.975
33621SOL    HW2 2703  14.590   3.485   6.884
33622SOL     OW 2704   5.214   5.201   1.245
33622SOL    HW1 2705   5.237   5.113   1.274
33622SOL    HW2 2706   5.189   5.190   1.153
33623SOL     OW 2707   2.635   1.175   4.112
33623SOL    HW1 2708   2.614   1.167   4.019
33623SOL    HW2 2709   2.730   1.164   4.115
33624SOL     OW 2710   1.436   6.291   4.911
33624SOL    HW1 2711   1.480   6.215   4.873
33624SOL    HW2 2712   1.440   6.275   5.006
33625SOL     OW 2713   1.271   1.470  12.339
33625SOL    HW1 2714   1.225   1.546  12.303
33625SOL    HW2 2715   1.305   1.424  12.262
33626SOL     OW 2716  13.444   4.612   0.311
33626SOL    HW1 2717  13.376   4.649   0.367
33626SOL    HW2 2718  13.402   4.536   0.270
33627SOL     OW 2719  13.445  13.078  13.722
33627SOL    HW1 2720  13.378  13.144  13.704
33627SOL    HW2 2721  13.410  12.998  13.684
33628SOL     OW 2722   1.489  10.787  13.274
33628SOL    HW1 2723   1.464  10.879  13.269
33628SOL    HW2 2724   1.578  10.788  13.308
33629SOL     OW 2725   0.936   6.535   7.157
33629SOL    HW1 2726   0.992   6.482   7.214
33629SOL    HW2 2727   0.848   6.526   7.195
33630SOL     OW 2728   4.590   7.883   7.578
33630SOL    HW1 2729   4.569   7.940   7.504
33630SOL    HW2 2730   4.686   7.878   7.578
33631SOL     OW 2731   1.321  12.491  10.884
33631SOL    HW1 2732   1.369  12.548  10.944
33631SOL    HW2 2733   1.382  12.476  10.811
33632SOL     OW 2734  11.039   7.109   3.719
33632SOL    HW1 2735  10.984   7.050   3.668
33632SOL    HW2 2736  11.018   7.196   3.685
33633SOL     OW 2737   2.272  11.262   2.699
33633SOL    HW1 2738   2.282  11.167   2.704
33633SOL    HW2 2739   2.189  11.280   2.744
33634SOL     OW 2740   4.987  12.499  13.430
33634SOL    HW1 2741   4.981  12.558  13.504
33634SOL    HW2 2742   5.029  12.550  13.361
33635SOL     OW 2743  11.948   9.135  12.953
33635SOL    HW1 2744  12.002   9.191  13.009
33635SOL    HW2 2745  11.923   9.062  13.009
33636SOL     OW 2746   5.841   1.150  13.145
33636SOL    HW1 2747   5.901   1.152  13.219
33636SOL    HW2 2748   5.791   1.069  13.156
33637SOL     OW 2749  12.717  13.555  11.642
33637SOL    HW1 2750  12.739  13.647  11.653
33637SOL    HW2 2751  12.717  13.519  11.731
33638SOL     OW 2752   3.596   5.135   0.194
33638SOL    HW1 2753   3.637   5.110   0.276
33638SOL    HW2 2754   3.551   5.056   0.164
33639SOL     OW 2755   1.522   8.917   8.975
33639SOL    HW1 2756   1.438   8.960   8.983
33639SOL    HW2 2757   1.586   8.988   8.977
33640SOL     OW 2758   1.380   1.927   6.611
33640SOL    HW1 2759   1.330   2.009   6.607
33640SOL    HW2 2760   1.328   1.865   6.560
33641SOL     OW 2761  10.827  13.446   6.312
33641SOL    HW1 2762  10.773  13.382   6.265
33641SOL    HW2 2763  10.907  13.399   6.333
33642SOL     OW 2764   5.802   8.084   8.628
33642SOL    HW1 2765   5.762   8.000   8.651
33642SOL    HW2 2766   5.763   8.106   8.544
33643SOL     OW 2767   3.696   4.879   7.344
33643SOL    HW1 2768   3.666   4.800   7.299
33643SOL    HW2 2769   3.620   4.909   7.393
33644SOL     OW 2770   7.147   5.796   5.588
33644SOL    HW1 2771   7.167   5.715   5.540
33644SOL    HW2 2772   7.173   5.777   5.678
33645SOL     OW 2773   7.993   7.795  12.950
33645SOL    HW1 2774   7.919   7.769  13.004
33645SOL    HW2 2775   7.983   7.889  12.939
33646SOL     OW 2776   5.992  12.361   3.136
33646SOL    HW1 2777   5.910  12.326   3.101
33646SOL    HW2 2778   6.039  12.393   3.060
33647SOL     OW 2779  13.892   6.772   9.519
33647SOL    HW1 2780  13.970   6.724   9.548
33647SOL    HW2 2781  13.910   6.791   9.427
33648SOL     OW 2782   5.348   9.056   8.666
33648SOL    HW1 2783   5.282   9.052   8.736
33648SOL    HW2 2784   5.357   8.965   8.637
33649SOL     OW 2785   8.896   0.369   2.022
33649SOL    HW1 2786   8.943   0.431   2.078
33649SOL    HW2 2787   8.931   0.384   1.934
33650SOL     OW 2788   7.089   5.951   3.706
33650SOL    HW1 2789   7.030   5.939   3.780
33650SOL    HW2 2790   7.158   5.886   3.720
33651SOL     OW 2791   6.253   1.688  12.224
33651SOL    HW1 2792   6.173   1.673  12.273
33651SOL    HW2 2793   6.254   1.782  12.206
33652SOL     OW 2794   0.166   4.769   7.032
33652SOL    HW1 2795   0.245   4.730   7.070
33652SOL    HW2 2796   0.097   4.753   7.097
33653SOL     OW 2797   0.640   5.001  11.977
33653SOL    HW1 2798   0.663   4.937  11.909
33653SOL    HW2 2799   0.724   5.039  12.003
33654SOL     OW 2800   4.963   6.518  12.961
33654SOL    HW1 2801   4.980   6.504  12.868
33654SOL    HW2 2802   4.876   6.556  12.965
33655SOL     OW 2803   8.759  10.743  14.206
33655SOL    HW1 2804   8.807  10.662  14.228
33655SOL    HW2 2805   8.776  10.755  14.112
33656SOL     OW 2806   7.033   2.822   4.290
33656SOL    HW1 2807   7.027   2.795   4.198
33656SOL    HW2 2808   7.025   2.917   4.289
33657SOL     OW 2809   5.636   3.770   4.878
33657SOL    HW1 2810   5.563   3.828   4.896
33657SOL    HW2 2811   5.617   3.732   4.792
33658SOL     OW 2812   9.708  11.203  12.560
33658SOL    HW1 2813   9.707  11.123  12.611
33658SOL    HW2 2814   9.754  11.266  12.615
33659SOL     OW 2815   3.584   2.692   4.216
33659SOL    HW1 2816   3.533   2.764   4.180
33659SOL    HW2 2817   3.524   2.648   4.276
33660SOL     OW 2818  12.650  13.660  14.296
33660SOL    HW1 2819  12.587  13.636  14.364
33660SOL    HW2 2820  12.735  13.632  14.332
33661SOL     OW 2821   8.021   1.614  13.746
33661SOL    HW1 2822   7.929   1.592  13.758
33661SOL    HW2 2823   8.068   1.536  13.776
33662SOL     OW 2824   9.171   1.268   7.627
33662SOL    HW1 2825   9.171   1.364   7.621
33662SOL    HW2 2826   9.255   1.242   7.589
33663SOL     OW 2827  10.037   1.477   5.900
33663SOL    HW1 2828   9.946   1.451   5.889
33663SOL    HW2 2829  10.084   1.431   5.831
33664SOL     OW 2830   1.252   1.394  11.183
33664SOL    HW1 2831   1.215   1.457  11.245
33664SOL    HW2 2832   1.185   1.386  11.114
33665SOL     OW 2833   5.057  10.565   7.019
33665SOL    HW1 2834   5.120  10.508   7.064
33665SOL    HW2 2835   5.026  10.512   6.945
33666SOL     OW 2836   2.193  11.466   3.073
33666SOL    HW1 2837   2.271  11.417   3.045
33666SOL    HW2 2838   2.134  11.462   2.997
33667SOL     OW 2839   7.461   9.638   1.207
33667SOL    HW1 2840   7.488   9.547   1.211
33667SOL    HW2 2841   7.389   9.645   1.269
33668SOL     OW 2842   7.399  12.974   2.593
33668SOL    HW1 2843   7.458  12.917   2.544
33668SOL    HW2 2844   7.437  13.062   2.583
33669SOL     OW 2845   3.138   4.468   4.228
33669SOL    HW1 2846   3.138   4.376   4.253
33669SOL    HW2 2847   3.046   4.492   4.226
33670SOL     OW 2848   2.047  12.323   4.117
33670SOL    HW1 2849   1.999  12.253   4.072
33670SOL    HW2 2850   1.981  12.368   4.169
33671SOL     OW 2851  12.326  11.713  12.681
33671SOL    HW1 2852  12.268  11.694  12.607
33671SOL    HW2 2853  12.405  11.750  12.641
33672SOL     OW 2854  10.961   5.791  14.721
33672SOL    HW1 2855  11.054   5.768  14.721
33672SOL    HW2 2856  10.954   5.865  14.660
33673SOL     OW 2857   0.354   9.029   9.294
33673SOL    HW1 2858   0.362   9.084   9.217
33673SOL    HW2 2859   0.267   8.991   9.288
33674SOL     OW 2860  12.872  14.274   7.727
33674SOL    HW1 2861  12.781  14.262   7.756
33674SOL    HW2 2862  12.891  14.195   7.677
33675SOL     OW 2863   0.188  12.709   3.869
33675SOL    HW1 2864   0.229  12.730   3.953
33675SOL    HW2 2865   0.126  12.781   3.854
33676SOL     OW 2866  13.387  14.691   3.796
33676SOL    HW1 2867  13.356  14.607   3.762
33676SOL    HW2 2868  13.459  14.716   3.739
33677SOL     OW 2869  10.412   3.859   0.171
33677SOL    HW1 2870  10.447   3.937   0.127
33677SOL    HW2 2871  10.489   3.810   0.198
33678SOL     OW 2872   7.066   2.483  13.823
33678SOL    HW1 2873   7.076   2.570  13.863
33678SOL    HW2 2874   7.126   2.427  13.873
33679SOL     OW 2875   4.325   3.313   6.335
33679SOL    HW1 2876   4.307   3.380   6.402
33679SOL    HW2 2877   4.238   3.290   6.301
33680SOL     OW 2878   4.937  10.635   2.596
33680SOL    HW1 2879   4.867  10.699   2.594
33680SOL    HW2 2880   4.995  10.664   2.666
33681SOL     OW 2881   7.816   8.646  11.388
33681SOL    HW1 2882   7.728   8.664  11.421
33681SOL    HW2 2883   7.848   8.732  11.359
33682SOL     OW 2884  12.703   5.348  13.196
33682SOL    HW1 2885  12.643   5.371  13.268
33682SOL    HW2 2886  12.648   5.302  13.133
33683SOL     OW 2887   2.402   9.090  14.248
33683SOL    HW1 2888   2.447   9.158  14.298
33683SOL    HW2 2889   2.456   9.012  14.260
33684SOL     OW 2890   2.014   9.435  13.090
33684SOL    HW1 2891   2.039   9.368  13.026
33684SOL    HW2 2892   1.955   9.390  13.150
33685SOL     OW 2893   3.744   0.773   3.416
33685SOL    HW1 2894   3.710   0.776   3.506
33685SOL    HW2 2895   3.823   0.827   3.418
33686SOL     OW 2896   4.057   2.977   6.044
33686SOL    HW1 2897   4.079   2.885   6.062
33686SOL    HW2 2898   3.962   2.980   6.049
33687SOL     OW 2899   2.225   1.880   6.527
33687SOL    HW1 2900   2.286   1.813   6.558
33687SOL    HW2 2901   2.260   1.963   6.561
33688SOL     OW 2902  10.385   2.090   3.743
33688SOL    HW1 2903  10.315   2.139   3.787
33688SOL    HW2 2904  10.412   2.024   3.807
33689SOL     OW 2905  14.872   6.640  13.842
33689SOL    HW1 2906  14.805   6.708  13.834
33689SOL    HW2 2907  14.829   6.560  13.812
33690SOL     OW 2908   7.148   3.826   0.284
33690SOL    HW1 2909   7.151   3.747   0.339
33690SOL    HW2 2910   7.084   3.805   0.216
33691SOL     OW 2911   1.312  13.196   3.781
33691SOL    HW1 2912   1.237  13.245   3.813
33691SOL    HW2 2913   1.382  13.215   3.844
33692SOL     OW 2914   1.345  10.777  14.867
33692SOL    HW1 2915   1.433  10.814  14.860
33692SOL    HW2 2916   1.332  10.730  14.786
33693SOL     OW 2917   7.826   1.751   3.425
33693SOL    HW1 2918   7.755   1.809   3.451
33693SOL    HW2 2919   7.894   1.809   3.391
33694SOL     OW 2920  13.465  10.823  10.562
33694SOL    HW1 2921  13.480  10.829  10.468
33694SOL    HW2 2922  13.456  10.729  10.579
33695SOL     OW 2923   5.105   6.649  14.780
33695SOL    HW1 2924   5.019   6.656  14.822
33695SOL    HW2 2925   5.089   6.670  14.688
33696SOL     OW 2926   0.997   1.155   4.995
33696SOL    HW1 2927   1.047   1.135   4.915
33696SOL    HW2 2928   0.924   1.094   4.993
33697SOL     OW 2929   9.532   4.193  13.341
33697SOL    HW1 2930   9.475   4.150  13.278
33697SOL    HW2 2931   9.562   4.122  13.399
33698SOL     OW 2932   9.695   9.313   3.763
33698SOL    HW1 2933   9.612   9.360   3.754
33698SOL    HW2 2934   9.756   9.378   3.797
33699SOL     OW 2935   6.400   9.066  12.008
33699SOL    HW1 2936   6.449   9.117  12.073
33699SOL    HW2 2937   6.354   9.000  12.059
33700SOL     OW 2938   6.150   1.804  14.336
33700SOL    HW1 2939   6.057   1.823  14.342
33700SOL    HW2 2940   6.187   1.837  14.418
33701SOL     OW 2941   1.394  10.772   8.691
33701SOL    HW1 2942   1.459  10.708   8.662
33701SOL    HW2 2943   1.311  10.737   8.660
33702SOL     OW 2944   6.080   4.021   7.051
33702SOL    HW1 2945   6.013   3.960   7.021
33702SOL    HW2 2946   6.049   4.107   7.023
33703SOL     OW 2947   0.504  10.640   0.065
33703SOL    HW1 2948   0.479  10.548   0.069
33703SOL    HW2 2949   0.427  10.684   0.028
33704SOL     OW 2950   3.270   5.253  11.217
33704SOL    HW1 2951   3.254   5.322  11.153
33704SOL    HW2 2952   3.346   5.284  11.267
33705SOL     OW 2953   1.833   4.445   0.332
33705SOL    HW1 2954   1.901   4.424   0.268
33705SOL    HW2 2955   1.841   4.378   0.400
33706SOL     OW 2956   1.526   7.905   2.944
33706SOL    HW1 2957   1.606   7.853   2.937
33706SOL    HW2 2958   1.488   7.903   2.857
33707SOL     OW 2959   0.214  12.304  11.896
33707SOL    HW1 2960   0.294  12.332  11.852
33707SOL    HW2 2961   0.242  12.233  11.955
33708SOL     OW 2962   8.748  13.362  10.311
33708SOL    HW1 2963   8.831  13.391  10.349
33708SOL    HW2 2964   8.771  13.283  10.262
33709SOL     OW 2965   6.978  13.016   5.664
33709SOL    HW1 2966   6.956  13.109   5.661
33709SOL    HW2 2967   6.961  12.985   5.575
33710SOL     OW 2968  11.710  14.195   1.792
33710SOL    HW1 2969  11.780  14.151   1.744
33710SOL    HW2 2970  11.633  14.184   1.737
33711SOL     OW 2971   8.499   8.336   4.419
33711SOL    HW1 2972   8.483   8.242   4.430
33711SOL    HW2 2973   8.530   8.366   4.504
33712SOL     OW 2974   7.916   5.567   0.463
33712SOL    HW1 2975   7.897   5.646   0.514
33712SOL    HW2 2976   7.895   5.494   0.522
33713SOL     OW 2977   7.977   6.196  13.876
33713SOL    HW1 2978   8.067   6.227  13.872
33713SOL    HW2 2979   7.960   6.180  13.969
33714SOL     OW 2980  12.586   5.387   1.891
33714SOL    HW1 2981  12.542   5.466   1.858
33714SOL    HW2 2982  12.645   5.419   1.958
33715SOL     OW 2983   4.252   3.280   9.590
33715SOL    HW1 2984   4.274   3.194   9.625
33715SOL    HW2 2985   4.316   3.295   9.520
33716SOL     OW 2986   5.578   7.707   5.767
33716SOL    HW1 2987   5.567   7.784   5.823
33716SOL    HW2 2988   5.489   7.673   5.756
33717SOL     OW 2989   9.074   2.818   8.619
33717SOL    HW1 2990   9.010   2.836   8.688
33717SOL    HW2 2991   9.144   2.769   8.664
33718SOL     OW 2992  12.273  12.055  10.163
33718SOL    HW1 2993  12.266  12.042  10.069
33718SOL    HW2 2994  12.216  11.989  10.201
33719SOL     OW 2995   1.448   3.048  14.223
33719SOL    HW1 2996   1.508   3.104  14.174
33719SOL    HW2 2997   1.398   3.108  14.279
33720SOL     OW 2998  13.177   9.228   8.846
33720SOL    HW1 2999  13.272   9.218   8.836
33720SOL    HW2 3000  13.145   9.238   8.757
33721SOL     OW 3001   5.550   0.204  12.874
33721SOL    HW1 3002   5.528   0.152  12.951
33721SOL    HW2 3003   5.533   0.295  12.900
33722SOL     OW 3004   4.296   5.077   4.801
33722SOL    HW1 3005   4.374   5.127   4.825
33722SOL    HW2 3006   4.261   5.047   4.885
33723SOL     OW 3007   3.809  14.201   3.513
33723SOL    HW1 3008   3.790  14.140   3.585
33723SOL    HW2 3009   3.838  14.145   3.441
33724SOL     OW 3010   6.690   7.260   0.517
33724SOL    HW1 3011   6.649   7.174   0.523
33724SOL    HW2 3012   6.618   7.320   0.498
33725SOL     OW 3013   8.608   3.805   9.208
33725SOL    HW1 3014   8.601   3.747   9.133
33725SOL    HW2 3015   8.636   3.889   9.172
33726SOL     OW 3016   2.480   3.985  13.280
33726SOL    HW1 3017   2.442   4.034  13.208
33726SOL    HW2 3018   2.551   3.934  13.240
33727SOL     OW 3019   8.667   4.038  14.252
33727SOL    HW1 3020   8.662   4.043  14.157
33727SOL    HW2 3021   8.715   4.117  14.278
33728SOL     OW 3022  12.003   0.410   9.565
33728SOL    HW1 3023  11.985   0.321   9.535
33728SOL    HW2 3024  11.949   0.420   9.643
33729SOL     OW 3025  10.411   6.588   2.617
33729SOL    HW1 3026  10.336   6.540   2.581
33729SOL    HW2 3027  10.380   6.618   2.702
33730SOL     OW 3028   0.789   9.235  12.137
33730SOL    HW1 3029   0.727   9.277  12.076
33730SOL    HW2 3030   0.801   9.299  12.207
33731SOL     OW 3031   4.705   0.040   9.200
33731SOL    HW1 3032   4.753   0.016   9.279
33731SOL    HW2 3033   4.754   0.114   9.164
33732SOL     OW 3034   5.446   0.215   8.223
33732SOL    HW1 3035   5.511   0.171   8.167
33732SOL    HW2 3036   5.413   0.145   8.279
33733SOL     OW 3037  13.341   4.336  12.249
33733SOL    HW1 3038  13.412   4.359  12.188
33733SOL    HW2 3039  13.342   4.241  12.251
33734SOL     OW 3040   4.119   5.190   1.874
33734SOL    HW1 3041   4.150   5.104   1.904
33734SOL    HW2 3042   4.031   5.198   1.911
33735SOL     OW 3043   6.978   5.461   9.020
33735SOL    HW1 3044   6.923   5.448   9.098
33735SOL    HW2 3045   6.916   5.463   8.947
33736SOL     OW 3046   2.588   6.841   9.587
33736SOL    HW1 3047   2.527   6.781   9.545
33736SOL    HW2 3048   2.608   6.906   9.519
33737SOL     OW 3049   9.898  12.858  10.774
33737SOL    HW1 3050   9.850  12.777  10.755
33737SOL    HW2 3051   9.915  12.854  10.868
33738SOL     OW 3052  12.577  12.722   4.598
33738SOL    HW1 3053  12.491  12.694   4.630
33738SOL    HW2 3054  12.624  12.750   4.677
33739SOL     OW 3055   3.386   7.501   5.802
33739SOL    HW1 3056   3.388   7.406   5.790
33739SOL    HW2 3057   3.302   7.528   5.766
33740SOL     OW 3058   9.486   8.426   1.320
33740SOL    HW1 3059   9.510   8.411   1.412
33740SOL    HW2 3060   9.442   8.345   1.294
33741SOL     OW 3061   6.180   7.295   9.315
33741SOL    HW1 3062   6.210   7.342   9.237
33741SOL    HW2 3063   6.248   7.311   9.380
33742SOL     OW 3064   2.155   7.097   6.066
33742SOL    HW1 3065   2.208   7.052   6.132
33742SOL    HW2 3066   2.084   7.137   6.116
33743SOL     OW 3067   8.973   6.957   7.098
33743SOL    HW1 3068   8.887   6.989   7.070
33743SOL    HW2 3069   9.015   7.032   7.138
33744SOL     OW 3070   9.162  14.632   6.615
33744SOL    HW1 3071   9.193  14.636   6.706
33744SOL    HW2 3072   9.168  14.723   6.584
33745SOL     OW 3073   9.752   0.699   4.602
33745SOL    HW1 3074   9.813   0.700   4.676
33745SOL    HW2 3075   9.714   0.611   4.604
33746SOL     OW 3076   9.388   2.634   1.435
33746SOL    HW1 3077   9.411   2.547   1.467
33746SOL    HW2 3078   9.315   2.661   1.491
33747SOL     OW 3079   6.004  10.563   9.947
33747SOL    HW1 3080   6.027  10.476   9.913
33747SOL    HW2 3081   5.917  10.551   9.985
33748SOL     OW 3082   1.128  13.085  10.335
33748SOL    HW1 3083   1.099  13.059  10.247
33748SOL    HW2 3084   1.053  13.131  10.372
33749SOL     OW 3085  14.130  14.532   0.289
33749SOL    HW1 3086  14.126  14.626   0.302
33749SOL    HW2 3087  14.105  14.495   0.374
33750SOL     OW 3088   4.980  13.144  10.304
33750SOL    HW1 3089   5.075  13.133  10.290
33750SOL    HW2 3090   4.953  13.205  10.235
33751SOL     OW 3091  11.206   3.706  11.990
33751SOL    HW1 3092  11.166   3.767  12.052
33751SOL    HW2 3093  11.299   3.729  11.990
33752SOL     OW 3094   1.867   4.573  13.826
33752SOL    HW1 3095   1.829   4.540  13.745
33752SOL    HW2 3096   1.840   4.509  13.892
33753SOL     OW 3097   3.370   9.614   4.757
33753SOL    HW1 3098   3.361   9.708   4.743
33753SOL    HW2 3099   3.362   9.576   4.669
33754SOL     OW 3100  13.386   8.424  14.509
33754SOL    HW1 3101  13.413   8.415  14.601
33754SOL    HW2 3102  13.304   8.473  14.512
33755SOL     OW 3103   9.510   0.353   5.954
33755SOL    HW1 3104   9.449   0.371   6.025
33755SOL    HW2 3105   9.456   0.317   5.884
33756SOL     OW 3106   7.950  11.644   1.926
33756SOL    HW1 3107   7.954  11.605   1.839
33756SOL    HW2 3108   7.864  11.619   1.960
33757SOL     OW 3109   4.016  13.182   3.924
33757SOL    HW1 3110   3.969  13.245   3.869
33757SOL    HW2 3111   4.035  13.109   3.866
33758SOL     OW 3112  10.427   9.557  13.133
33758SOL    HW1 3113  10.450   9.588  13.221
33758SOL    HW2 3114  10.442   9.633  13.077
33759SOL     OW 3115   4.885  13.454   7.775
33759SOL    HW1 3116   4.973  13.456   7.738
33759SOL    HW2 3117   4.851  13.367   7.752
33760SOL     OW 3118  11.718   7.484   6.511
33760SOL    HW1 3119  11.739   7.572   6.542
33760SOL    HW2 3120  11.801   7.449   6.480
33761SOL     OW 3121   2.651   5.234   8.168
33761SOL    HW1 3122   2.654   5.304   8.103
33761SOL    HW2 3123   2.615   5.159   8.121
33762SOL     OW 3124  10.048   5.575   6.533
33762SOL    HW1 3125  10.064   5.548   6.443
33762SOL    HW2 3126  10.088   5.661   6.540
33763SOL     OW 3127   6.999   3.879   8.689
33763SOL    HW1 3128   7.076   3.845   8.733
33763SOL    HW2 3129   6.925   3.844   8.739
33764SOL     OW 3130  14.072  14.282   1.241
33764SOL    HW1 3131  14.022  14.334   1.179
33764SOL    HW2 3132  14.008  14.258   1.309
33765SOL     OW 3133   2.310  14.837   7.817
33765SOL    HW1 3134   2.278  14.816   7.904
33765SOL    HW2 3135   2.284  14.763   7.762
33766SOL     OW 3136   7.820   1.957  13.441
33766SOL    HW1 3137   7.756   2.025  13.420
33766SOL    HW2 3138   7.882   1.960  13.368
33767SOL     OW 3139   7.918   1.049   2.763
33767SOL    HW1 3140   7.940   1.029   2.672
33767SOL    HW2 3141   7.908   1.144   2.764
33768SOL     OW 3142  13.962   1.906  12.384
33768SOL    HW1 3143  13.879   1.925  12.339
33768SOL    HW2 3144  14.009   1.849  12.323
33769SOL     OW 3145  11.862   7.893   7.162
33769SOL    HW1 3146  11.818   7.887   7.247
33769SOL    HW2 3147  11.852   7.805   7.124
33770SOL     OW 3148  12.046   8.941  14.374
33770SOL    HW1 3149  11.987   8.940  14.299
33770SOL    HW2 3150  11.992   8.910  14.447
33771SOL     OW 3151   0.916   2.741   6.063
33771SOL    HW1 3152   0.885   2.824   6.099
33771SOL    HW2 3153   0.900   2.748   5.969
33772SOL     OW 3154  11.950   6.827  12.727
33772SOL    HW1 3155  12.020   6.843  12.790
33772SOL    HW2 3156  11.871   6.821  12.780
33773SOL     OW 3157   8.922   5.416  13.744
33773SOL    HW1 3158   8.897   5.346  13.804
33773SOL    HW2 3159   8.873   5.492  13.773
33774SOL     OW 3160   6.148   4.870  11.131
33774SOL    HW1 3161   6.186   4.914  11.055
33774SOL    HW2 3162   6.125   4.782  11.099
33775SOL     OW 3163  10.928  13.895   9.312
33775SOL    HW1 3164  10.909  13.985   9.287
33775SOL    HW2 3165  10.868  13.842   9.261
33776SOL     OW 3166   2.270  13.337   7.498
33776SOL    HW1 3167   2.196  13.391   7.524
33776SOL    HW2 3168   2.340  13.360   7.559
33777SOL     OW 3169   1.881  13.425   5.253
33777SOL    HW1 3170   1.968  13.408   5.290
33777SOL    HW2 3171   1.891  13.407   5.159
33778SOL     OW 3172   6.334  12.835   1.165
33778SOL    HW1 3173   6.291  12.911   1.126
33778SOL    HW2 3174   6.284  12.760   1.132
33779SOL     OW 3175  14.422  12.837   2.443
33779SOL    HW1 3176  14.362  12.903   2.479
33779SOL    HW2 3177  14.416  12.763   2.504
33780SOL     OW 3178  12.186  10.852  12.629
33780SOL    HW1 3179  12.236  10.779  12.593
33780SOL    HW2 3180  12.165  10.907  12.554
33781SOL     OW 3181   8.144   6.972   0.991
33781SOL    HW1 3182   8.088   7.032   1.041
33781SOL    HW2 3183   8.117   6.985   0.900
33782SOL     OW 3184   0.686  14.541   6.483
33782SOL    HW1 3185   0.676  14.458   6.529
33782SOL    HW2 3186   0.638  14.528   6.401
33783SOL     OW 3187  10.534   8.203   8.800
33783SOL    HW1 3188  10.518   8.205   8.895
33783SOL    HW2 3189  10.447   8.208   8.761
33784SOL     OW 3190   5.921   2.948   9.149
33784SOL    HW1 3191   5.827   2.968   9.152
33784SOL    HW2 3192   5.964   3.028   9.181
33785SOL     OW 3193   5.771   0.996  11.395
33785SOL    HW1 3194   5.763   0.993  11.491
33785SOL    HW2 3195   5.750   1.087  11.372
33786SOL     OW 3196  11.393   6.988   4.929
33786SOL    HW1 3197  11.473   7.029   4.895
33786SOL    HW2 3198  11.424   6.913   4.979
33787SOL     OW 3199  13.353  10.544   5.027
33787SOL    HW1 3200  13.380  10.513   4.940
33787SOL    HW2 3201  13.282  10.605   5.010
33788SOL     OW 3202  13.833  11.216   5.884
33788SOL    HW1 3203  13.798  11.172   5.962
33788SOL    HW2 3204  13.814  11.156   5.812
33789SOL     OW 3205   1.371   8.279   4.890
33789SOL    HW1 3206   1.400   8.351   4.946
33789SOL    HW2 3207   1.280   8.299   4.870
33790SOL     OW 3208   5.580   4.293  11.696
33790SOL    HW1 3209   5.591   4.339  11.613
33790SOL    HW2 3210   5.493   4.319  11.726
33791SOL     OW 3211   8.343   4.056   6.616
33791SOL    HW1 3212   8.265   4.073   6.668
33791SOL    HW2 3213   8.345   4.125   6.550
33792SOL     OW 3214   9.013   7.119   2.378
33792SOL    HW1 3215   9.104   7.090   2.364
33792SOL    HW2 3216   9.011   7.207   2.339
33793SOL     OW 3217  13.871  11.960  14.524
33793SOL    HW1 3218  13.897  11.869  14.538
33793SOL    HW2 3219  13.904  12.006  14.601
33794SOL     OW 3220   7.691   5.534  14.722
33794SOL    HW1 3221   7.611   5.584  14.738
33794SOL    HW2 3222   7.674   5.488  14.640
33795SOL     OW 3223  10.164   7.703   8.539
33795SOL    HW1 3224  10.256   7.724   8.556
33795SOL    HW2 3225  10.165   7.654   8.457
33796SOL     OW 3226   2.915  13.795   2.092
33796SOL    HW1 3227   2.841  13.784   2.152
33796SOL    HW2 3228   2.890  13.869   2.037
33797SOL     OW 3229   0.091   9.413   3.575
33797SOL    HW1 3230   0.184   9.394   3.563
33797SOL    HW2 3231   0.081   9.432   3.668
33798SOL     OW 3232   8.099  10.288   0.332
33798SOL    HW1 3233   8.137  10.374   0.314
33798SOL    HW2 3234   8.011  10.307   0.364
33799SOL     OW 3235   1.633   2.705   3.866
33799SOL    HW1 3236   1.653   2.747   3.949
33799SOL    HW2 3237   1.559   2.647   3.885
33800SOL     OW 3238  14.604   4.001   8.218
33800SOL    HW1 3239  14.672   4.019   8.153
33800SOL    HW2 3240  14.553   3.929   8.180
33801SOL     OW 3241  11.815   4.438  12.620
33801SOL    HW1 3242  11.763   4.385  12.559
33801SOL    HW2 3243  11.887   4.381  12.644
33802SOL     OW 3244   1.425  10.600  12.847
33802SOL    HW1 3245   1.453  10.652  12.922
33802SOL    HW2 3246   1.478  10.633  12.774
33803SOL     OW 3247  13.773   9.787  12.140
33803SOL    HW1 3248  13.790   9.737  12.220
33803SOL    HW2 3249  13.860   9.811  12.108
33804SOL     OW 3250   7.419  12.648   3.603
33804SOL    HW1 3251   7.412  12.684   3.691
33804SOL    HW2 3252   7.329  12.648   3.570
33805SOL     OW 3253   2.162   8.839   4.391
33805SOL    HW1 3254   2.143   8.795   4.308
33805SOL    HW2 3255   2.161   8.932   4.369
33806SOL     OW 3256   3.228  11.645  12.129
33806SOL    HW1 3257   3.157  11.656  12.066
33806SOL    HW2 3258   3.277  11.727  12.125
33807SOL     OW 3259  13.051  14.175  10.804
33807SOL    HW1 3260  13.138  14.194  10.838
33807SOL    HW2 3261  13.015  14.261  10.780
33808SOL     OW 3262  14.245   3.334   6.834
33808SOL    HW1 3263  14.299   3.266   6.794
33808SOL    HW2 3264  14.261   3.326   6.928
33809SOL     OW 3265   9.641   1.301   4.276
33809SOL    HW1 3266   9.648   1.209   4.250
33809SOL    HW2 3267   9.547   1.314   4.288
33810SOL     OW 3268   1.909   2.131  13.977
33810SOL    HW1 3269   1.940   2.197  14.040
33810SOL    HW2 3270   1.888   2.181  13.898
33811SOL     OW 3271  10.623   0.088   0.684
33811SOL    HW1 3272  10.532   0.094   0.654
33811SOL    HW2 3273  10.668   0.158   0.637
33812SOL     OW 3274   9.264   8.543  14.067
33812SOL    HW1 3275   9.326   8.532  13.995
33812SOL    HW2 3276   9.299   8.489  14.138
33813SOL     OW 3277   4.104  14.292   0.052
33813SOL    HW1 3278   4.199  14.290   0.040
33813SOL    HW2 3279   4.068  14.268  14.846
33814SOL     OW 3280   3.032  11.106   0.419
33814SOL    HW1 3281   3.063  11.142   0.336
33814SOL    HW2 3282   2.941  11.082   0.403
33815SOL     OW 3283   6.717   6.674  10.722
33815SOL    HW1 3284   6.792   6.615  10.718
33815SOL    HW2 3285   6.744   6.750  10.670
33816SOL     OW 3286   3.450  11.374   1.523
33816SOL    HW1 3287   3.535  11.336   1.547
33816SOL    HW2 3288   3.473  11.454   1.476
33817SOL     OW 3289   6.756   6.597   7.194
33817SOL    HW1 3290   6.664   6.577   7.176
33817SOL    HW2 3291   6.765   6.587   7.288
33818SOL     OW 3292   7.902  11.392   7.384
33818SOL    HW1 3293   7.807  11.393   7.397
33818SOL    HW2 3294   7.932  11.315   7.434
33819SOL     OW 3295  11.203   1.232   1.119
33819SOL    HW1 3296  11.123   1.179   1.112
33819SOL    HW2 3297  11.267   1.174   1.162
33820SOL     OW 3298   2.993   4.661   2.160
33820SOL    HW1 3299   3.075   4.629   2.197
33820SOL    HW2 3300   2.929   4.650   2.230
33821SOL     OW 3301   5.498   3.842   7.869
33821SOL    HW1 3302   5.555   3.915   7.844
33821SOL    HW2 3303   5.442   3.829   7.792
33822SOL     OW 3304  10.018   2.269   9.571
33822SOL    HW1 3305   9.944   2.273   9.630
33822SOL    HW2 3306   9.979   2.266   9.483
33823SOL     OW 3307   4.496  10.578   8.625
33823SOL    HW1 3308   4.489  10.490   8.590
33823SOL    HW2 3309   4.453  10.633   8.559
33824SOL     OW 3310  11.269   0.330   8.039
33824SOL    HW1 3311  11.240   0.388   7.969
33824SOL    HW2 3312  11.323   0.264   7.995
33825SOL     OW 3313   4.046   3.446  11.917
33825SOL    HW1 3314   4.099   3.397  11.854
33825SOL    HW2 3315   3.957   3.415  11.903
33826SOL     OW 3316   6.243   4.383   3.225
33826SOL    HW1 3317   6.224   4.351   3.137
33826SOL    HW2 3318   6.338   4.373   3.235
33827SOL     OW 3319  10.633   6.977   7.734
33827SOL    HW1 3320  10.585   6.938   7.661
33827SOL    HW2 3321  10.608   6.925   7.810
33828SOL     OW 3322  13.676   7.642   8.482
33828SOL    HW1 3323  13.758   7.595   8.495
33828SOL    HW2 3324  13.665   7.645   8.387
33829SOL     OW 3325   0.814   0.583  12.369
33829SOL    HW1 3326   0.809   0.673  12.336
33829SOL    HW2 3327   0.726   0.547  12.353
33830SOL     OW 3328  11.155  10.843  14.690
33830SOL    HW1 3329  11.126  10.754  14.670
33830SOL    HW2 3330  11.122  10.896  14.617
33831SOL     OW 3331  13.715   5.239   3.469
33831SOL    HW1 3332  13.632   5.222   3.514
33831SOL    HW2 3333  13.780   5.188   3.518
33832SOL     OW 3334   9.485  10.081  14.242
33832SOL    HW1 3335   9.470  10.006  14.300
33832SOL    HW2 3336   9.580  10.087  14.235
33833SOL     OW 3337  12.083   2.126   7.066
33833SOL    HW1 3338  12.016   2.136   7.133
33833SOL    HW2 3339  12.137   2.053   7.096
33834SOL     OW 3340   0.755   8.868   7.259
33834SOL    HW1 3341   0.727   8.910   7.178
33834SOL    HW2 3342   0.696   8.794   7.270
33835SOL     OW 3343   5.580   5.966   3.575
33835SOL    HW1 3344   5.649   6.032   3.581
33835SOL    HW2 3345   5.572   5.948   3.482
33836SOL     OW 3346   4.065   5.104  12.161
33836SOL    HW1 3347   4.033   5.028  12.210
33836SOL    HW2 3348   4.144   5.072  12.117
33837SOL     OW 3349  11.141  11.443  12.419
33837SOL    HW1 3350  11.149  11.374  12.485
33837SOL    HW2 3351  11.201  11.416  12.349
33838SOL     OW 3352  11.256   9.771  11.421
33838SOL    HW1 3353  11.179   9.727  11.386
33838SOL    HW2 3354  11.291   9.821  11.348
33839SOL     OW 3355   5.272  10.389  14.314
33839SOL    HW1 3356   5.320  10.439  14.248
33839SOL    HW2 3357   5.332  10.383  14.388
33840SOL     OW 3358   6.551   1.244  13.945
33840SOL    HW1 3359   6.502   1.311  13.993
33840SOL    HW2 3360   6.635   1.285  13.927
33841SOL     OW 3361  14.725  13.301  14.505
33841SOL    HW1 3362  14.775  13.220  14.504
33841SOL    HW2 3363  14.768  13.355  14.572
33842SOL     OW 3364  12.779  13.853  12.306
33842SOL    HW1 3365  12.809  13.885  12.391
33842SOL    HW2 3366  12.803  13.922  12.244
33843SOL     OW 3367   9.144   7.140  11.424
33843SOL    HW1 3368   9.130   7.225  11.382
33843SOL    HW2 3369   9.062   7.123  11.471
33844SOL     OW 3370  11.883   0.955   0.504
33844SOL    HW1 3371  11.972   0.950   0.469
33844SOL    HW2 3372  11.830   0.988   0.431
33845SOL     OW 3373   7.002   3.618  11.885
33845SOL    HW1 3374   6.990   3.709  11.858
33845SOL    HW2 3375   6.971   3.567  11.811
33846SOL     OW 3376   7.482   8.128   5.624
33846SOL    HW1 3377   7.518   8.039   5.617
33846SOL    HW2 3378   7.468   8.140   5.718
33847SOL     OW 3379   1.021   6.206  12.947
33847SOL    HW1 3380   1.033   6.178  12.857
33847SOL    HW2 3381   1.097   6.262  12.966
33848SOL     OW 3382   1.877   8.370   4.254
33848SOL    HW1 3383   1.854   8.346   4.344
33848SOL    HW2 3384   1.805   8.335   4.201
33849SOL     OW 3385   4.360   9.023  12.360
33849SOL    HW1 3386   4.399   9.022  12.273
33849SOL    HW2 3387   4.431   8.997  12.419
33850SOL     OW 3388   0.022  10.154   0.784
33850SOL    HW1 3389  14.870  10.237   0.747
33850SOL    HW2 3390   0.011  10.091   0.713
33851SOL     OW 3391   1.781  10.714   1.406
33851SOL    HW1 3392   1.711  10.659   1.441
33851SOL    HW2 3393   1.858  10.687   1.456
33852SOL     OW 3394   1.304   1.811   5.124
33852SOL    HW1 3395   1.318   1.717   5.117
33852SOL    HW2 3396   1.236   1.821   5.190
33853SOL     OW 3397  12.781   5.717  13.259
33853SOL    HW1 3398  12.797   5.688  13.349
33853SOL    HW2 3399  12.711   5.659  13.228
33854SOL     OW 3400   8.251   5.541   8.825
33854SOL    HW1 3401   8.291   5.605   8.885
33854SOL    HW2 3402   8.201   5.594   8.763
33855SOL     OW 3403   0.235  12.801   1.310
33855SOL    HW1 3404   0.255  12.731   1.247
33855SOL    HW2 3405   0.228  12.756   1.394
33856SOL     OW 3406   2.635   7.005  14.587
33856SOL    HW1 3407   2.572   6.958  14.642
33856SOL    HW2 3408   2.658   6.943  14.518
33857SOL     OW 3409   1.883   8.624   3.953
33857SOL    HW1 3410   1.919   8.576   3.878
33857SOL    HW2 3411   1.795   8.588   3.964
33858SOL     OW 3412   1.355   9.027  11.300
33858SOL    HW1 3413   1.450   9.041  11.307
33858SOL    HW2 3414   1.336   9.041  11.207
33859SOL     OW 3415   5.138  10.305  10.261
33859SOL    HW1 3416   5.057  10.351  10.236
33859SOL    HW2 3417   5.200  10.328  10.191
33860SOL     OW 3418   1.806   7.051  10.944
33860SOL    HW1 3419   1.860   7.026  10.869
33860SOL    HW2 3420   1.848   7.009  11.019
33861SOL     OW 3421  13.789   4.738  13.140
33861SOL    HW1 3422  13.756   4.825  13.164
33861SOL    HW2 3423  13.765   4.728  13.048
33862SOL     OW 3424  12.273   5.552   9.735
33862SOL    HW1 3425  12.183   5.584   9.722
33862SOL    HW2 3426  12.328   5.626   9.711
33863SOL     OW 3427   2.544   0.421   3.594
33863SOL    HW1 3428   2.565   0.488   3.529
33863SOL    HW2 3429   2.501   0.352   3.544
33864SOL     OW 3430  10.802   5.170   3.684
33864SOL    HW1 3431  10.842   5.162   3.770
33864SOL    HW2 3432  10.853   5.112   3.628
33865SOL     OW 3433   1.639   7.498  13.682
33865SOL    HW1 3434   1.633   7.411  13.721
33865SOL    HW2 3435   1.732   7.509  13.661
33866SOL     OW 3436  12.445   1.240  10.556
33866SOL    HW1 3437  12.530   1.210  10.524
33866SOL    HW2 3438  12.403   1.278  10.479
33867SOL     OW 3439  14.369   4.262   5.598
33867SOL    HW1 3440  14.285   4.256   5.644
33867SOL    HW2 3441  14.432   4.280   5.667
33868SOL     OW 3442  12.003   0.951  13.870
33868SOL    HW1 3443  11.947   1.014  13.825
33868SOL    HW2 3444  12.035   0.998  13.947
33869SOL     OW 3445   1.280  14.704  12.727
33869SOL    HW1 3446   1.254  14.675  12.814
33869SOL    HW2 3447   1.368  14.668  12.715
33870SOL     OW 3448  12.867   1.613   1.539
33870SOL    HW1 3449  12.851   1.593   1.631
33870SOL    HW2 3450  12.950   1.569   1.520
33871SOL     OW 3451   3.125   7.909   5.337
33871SOL    HW1 3452   3.088   7.901   5.424
33871SOL    HW2 3453   3.053   7.889   5.277
33872SOL     OW 3454   2.785   2.574   6.060
33872SOL    HW1 3455   2.719   2.628   6.104
33872SOL    HW2 3456   2.846   2.550   6.130
33873SOL     OW 3457   5.624   7.674  14.456
33873SOL    HW1 3458   5.603   7.691  14.365
33873SOL    HW2 3459   5.614   7.759  14.499
33874SOL     OW 3460  11.386   7.098   8.340
33874SOL    HW1 3461  11.355   7.112   8.429
33874SOL    HW2 3462  11.345   7.016   8.312
33875SOL     OW 3463   0.912   3.623   5.620
33875SOL    HW1 3464   0.962   3.697   5.654
33875SOL    HW2 3465   0.841   3.610   5.684
33876SOL     OW 3466   9.601  12.804  11.300
33876SOL    HW1 3467   9.584  12.855  11.220
33876SOL    HW2 3468   9.637  12.722  11.268
33877SOL     OW 3469  12.020   8.589   3.671
33877SOL    HW1 3470  11.941   8.589   3.616
33877SOL    HW2 3471  12.000   8.528   3.742
33878SOL     OW 3472  12.082   2.562   1.250
33878SOL    HW1 3473  12.166   2.558   1.298
33878SOL    HW2 3474  12.103   2.528   1.163
33879SOL     OW 3475   8.961   9.329   7.751
33879SOL    HW1 3476   8.879   9.344   7.704
33879SOL    HW2 3477   9.028   9.328   7.683
33880SOL     OW 3478  11.784   7.771   8.978
33880SOL    HW1 3479  11.876   7.799   8.981
33880SOL    HW2 3480  11.735   7.853   8.983
33881SOL     OW 3481   1.869  13.829   1.324
33881SOL    HW1 3482   1.845  13.853   1.234
33881SOL    HW2 3483   1.786  13.832   1.372
33882SOL     OW 3484   0.769   9.614  14.155
33882SOL    HW1 3485   0.813   9.556  14.092
33882SOL    HW2 3486   0.700   9.560  14.194
33883SOL     OW 3487   4.818  13.169   5.715
33883SOL    HW1 3488   4.735  13.190   5.757
33883SOL    HW2 3489   4.882  13.167   5.786
33884SOL     OW 3490   1.408   1.210  11.967
33884SOL    HW1 3491   1.441   1.204  12.057
33884SOL    HW2 3492   1.479   1.176  11.913
33885SOL     OW 3493   5.694   3.046  11.548
33885SOL    HW1 3494   5.711   3.108  11.618
33885SOL    HW2 3495   5.663   2.967  11.593
33886SOL     OW 3496   8.970   9.829   9.153
33886SOL    HW1 3497   8.981   9.754   9.094
33886SOL    HW2 3498   8.992   9.905   9.100
33887SOL     OW 3499   0.170  11.470   6.633
33887SOL    HW1 3500   0.076  11.489   6.639
33887SOL    HW2 3501   0.174  11.384   6.591
33888SOL     OW 3502   1.480   6.232   0.474
33888SOL    HW1 3503   1.528   6.295   0.528
33888SOL    HW2 3504   1.545   6.166   0.451
33889SOL     OW 3505   4.161   1.515   6.454
33889SOL    HW1 3506   4.198   1.582   6.512
33889SOL    HW2 3507   4.091   1.476   6.506
33890SOL     OW 3508  13.848   7.073   4.979
33890SOL    HW1 3509  13.863   7.035   4.893
33890SOL    HW2 3510  13.756   7.101   4.977
33891SOL     OW 3511   4.483   4.089   5.676
33891SOL    HW1 3512   4.470   4.183   5.685
33891SOL    HW2 3513   4.404   4.050   5.714
33892SOL     OW 3514   8.315  13.725   2.487
33892SOL    HW1 3515   8.268  13.777   2.421
33892SOL    HW2 3516   8.407  13.742   2.469
33893SOL     OW 3517  10.647   6.544   3.226
33893SOL    HW1 3518  10.673   6.543   3.318
33893SOL    HW2 3519  10.678   6.629   3.194
33894SOL     OW 3520   6.941   0.639   1.959
33894SOL    HW1 3521   6.873   0.581   1.992
33894SOL    HW2 3522   6.983   0.674   2.038
33895SOL     OW 3523  12.938   4.107  12.304
33895SOL    HW1 3524  12.900   4.032  12.348
33895SOL    HW2 3525  12.996   4.069  12.238
33896SOL     OW 3526   4.016  12.800   7.287
33896SOL    HW1 3527   3.924  12.815   7.307
33896SOL    HW2 3528   4.061  12.808   7.371
33897SOL     OW 3529  10.501   7.794  13.820
33897SOL    HW1 3530  10.517   7.702  13.796
33897SOL    HW2 3531  10.484   7.837  13.736
33898SOL     OW 3532  12.833   6.722   7.096
33898SOL    HW1 3533  12.781   6.779   7.153
33898SOL    HW2 3534  12.775   6.650   7.075
33899SOL     OW 3535   9.993   4.071   7.449
33899SOL    HW1 3536  10.077   4.042   7.485
33899SOL    HW2 3537  10.013   4.092   7.358
33900SOL     OW 3538   8.734   5.034   8.285
33900SOL    HW1 3539   8.824   5.000   8.282
33900SOL    HW2 3540   8.726   5.087   8.206
33901SOL     OW 3541   7.418  13.934   7.202
33901SOL    HW1 3542   7.500  13.889   7.222
33901SOL    HW2 3543   7.360  13.865   7.169
33902SOL     OW 3544  12.609  10.178   8.360
33902SOL    HW1 3545  12.513  10.183   8.360
33902SOL    HW2 3546  12.636  10.237   8.431
33903SOL     OW 3547   8.292   2.409  10.900
33903SOL    HW1 3548   8.366   2.402  10.960
33903SOL    HW2 3549   8.216   2.382  10.953
33904SOL     OW 3550   9.191   8.792   4.442
33904SOL    HW1 3551   9.219   8.701   4.432
33904SOL    HW2 3552   9.158   8.817   4.356
33905SOL     OW 3553   2.446   2.325   2.880
33905SOL    HW1 3554   2.444   2.253   2.943
33905SOL    HW2 3555   2.489   2.397   2.926
33906SOL     OW 3556   3.061   4.043  12.816
33906SOL    HW1 3557   3.032   4.072  12.730
33906SOL    HW2 3558   3.111   4.117  12.851
33907SOL     OW 3559   5.419  11.655  13.929
33907SOL    HW1 3560   5.418  11.741  13.886
33907SOL    HW2 3561   5.333  11.619  13.910
33908SOL     OW 3562   8.235  14.033   9.458
33908SOL    HW1 3563   8.220  13.951   9.505
33908SOL    HW2 3564   8.267  14.094   9.524
33909SOL     OW 3565   4.101  12.338   0.078
33909SOL    HW1 3566   4.041  12.370   0.146
33909SOL    HW2 3567   4.051  12.269   0.034
33910SOL     OW 3568   1.034   7.001   8.459
33910SOL    HW1 3569   1.128   7.014   8.469
33910SOL    HW2 3570   0.997   7.089   8.465
33911SOL     OW 3571   6.251   6.172   0.515
33911SOL    HW1 3572   6.206   6.243   0.468
33911SOL    HW2 3573   6.338   6.168   0.475
33912SOL     OW 3574   9.538  12.153   2.129
33912SOL    HW1 3575   9.585  12.138   2.047
33912SOL    HW2 3576   9.599  12.123   2.197
33913SOL     OW 3577  11.209   9.074   3.229
33913SOL    HW1 3578  11.158   8.993   3.216
33913SOL    HW2 3579  11.166   9.117   3.302
33914SOL     OW 3580   5.490   3.396   3.853
33914SOL    HW1 3581   5.441   3.339   3.912
33914SOL    HW2 3582   5.550   3.337   3.807
33915SOL     OW 3583  10.455   9.036   2.431
33915SOL    HW1 3584  10.513   9.032   2.507
33915SOL    HW2 3585  10.507   9.080   2.364
33916SOL     OW 3586  11.374  13.132   3.897
33916SOL    HW1 3587  11.421  13.215   3.897
33916SOL    HW2 3588  11.433  13.071   3.853
33917SOL     OW 3589   9.853   2.922  14.625
33917SOL    HW1 3590   9.850   2.828  14.611
33917SOL    HW2 3591   9.815   2.961  14.546
33918SOL     OW 3592  10.784   4.994   2.677
33918SOL    HW1 3593  10.708   5.045   2.704
33918SOL    HW2 3594  10.778   4.913   2.728
33919SOL     OW 3595   0.248   4.129   4.271
33919SOL    HW1 3596   0.241   4.119   4.366
33919SOL    HW2 3597   0.163   4.100   4.238
33920SOL     OW 3598   9.443  12.437   0.392
33920SOL    HW1 3599   9.479  12.505   0.449
33920SOL    HW2 3600   9.500  12.438   0.315
33921SOL     OW 3601  14.532   0.443   7.699
33921SOL    HW1 3602  14.579   0.361   7.685
33921SOL    HW2 3603  14.543   0.492   7.617
33922SOL     OW 3604   8.285   5.125  14.879
33922SOL    HW1 3605   8.363   5.179  14.864
33922SOL    HW2 3606   8.299   5.088   0.087
33923SOL     OW 3607   5.641  10.227  10.962
33923SOL    HW1 3608   5.707  10.218  11.030
33923SOL    HW2 3609   5.662  10.311  10.920
33924SOL     OW 3610   2.172   7.376   8.980
33924SOL    HW1 3611   2.124   7.311   8.929
33924SOL    HW2 3612   2.160   7.348   9.071
33925SOL     OW 3613   7.005   2.537  10.203
33925SOL    HW1 3614   6.940   2.504  10.265
33925SOL    HW2 3615   7.025   2.462  10.147
33926SOL     OW 3616  13.986   3.859   1.675
33926SOL    HW1 3617  14.078   3.845   1.696
33926SOL    HW2 3618  13.966   3.794   1.608
33927SOL     OW 3619   5.306  13.202   2.179
33927SOL    HW1 3620   5.295  13.119   2.132
33927SOL    HW2 3621   5.391  13.194   2.223
33928SOL     OW 3622  14.056   8.909  11.056
33928SOL    HW1 3623  14.118   8.967  11.101
33928SOL    HW2 3624  13.972   8.956  11.060
33929SOL     OW 3625  14.581   2.688  10.995
33929SOL    HW1 3626  14.593   2.652  10.907
33929SOL    HW2 3627  14.489   2.672  11.015
33930SOL     OW 3628  11.525  10.492   5.245
33930SOL    HW1 3629  11.560  10.529   5.164
33930SOL    HW2 3630  11.598  10.496   5.307
33931SOL     OW 3631   7.468  12.021   4.583
33931SOL    HW1 3632   7.533  12.078   4.542
33931SOL    HW2 3633   7.384  12.056   4.552
33932SOL     OW 3634   1.225   3.490   9.110
33932SOL    HW1 3635   1.278   3.420   9.072
33932SOL    HW2 3636   1.172   3.521   9.036
33933SOL     OW 3637  12.032   5.875   3.787
33933SOL    HW1 3638  11.949   5.902   3.828
33933SOL    HW2 3639  12.060   5.800   3.839
33934SOL     OW 3640  11.182  11.873  10.070
33934SOL    HW1 3641  11.255  11.907  10.122
33934SOL    HW2 3642  11.224  11.834   9.992
33935SOL     OW 3643   1.771  13.500   6.907
33935SOL    HW1 3644   1.806  13.528   6.823
33935SOL    HW2 3645   1.685  13.464   6.887
33936SOL     OW 3646  11.453   5.064  11.250
33936SOL    HW1 3647  11.385   5.031  11.308
33936SOL    HW2 3648  11.448   5.159  11.260
33937SOL     OW 3649   2.280   5.115   0.169
33937SOL    HW1 3650   2.374   5.130   0.159
33937SOL    HW2 3651   2.249   5.097   0.081
33938SOL     OW 3652  10.615  12.907   6.520
33938SOL    HW1 3653  10.681  12.840   6.501
33938SOL    HW2 3654  10.555  12.903   6.446
33939SOL     OW 3655   9.800   6.036   7.362
33939SOL    HW1 3656   9.822   6.052   7.270
33939SOL    HW2 3657   9.706   6.018   7.362
33940SOL     OW 3658   1.980   9.999   2.733
33940SOL    HW1 3659   1.947  10.039   2.813
33940SOL    HW2 3660   1.902   9.964   2.689
33941SOL     OW 3661   9.821  13.692   4.710
33941SOL    HW1 3662   9.905  13.651   4.691
33941SOL    HW2 3663   9.833  13.736   4.794
33942SOL     OW 3664  14.749  12.788   3.062
33942SOL    HW1 3665  14.664  12.791   3.018
33942SOL    HW2 3666  14.731  12.746   3.146
33943SOL     OW 3667   3.960  10.606  12.349
33943SOL    HW1 3668   3.956  10.700  12.367
33943SOL    HW2 3669   3.985  10.600  12.257
33944SOL     OW 3670   7.456  12.107  11.951
33944SOL    HW1 3671   7.426  12.045  12.017
33944SOL    HW2 3672   7.443  12.061  11.867
33945SOL     OW 3673   3.871   2.990   3.582
33945SOL    HW1 3674   3.953   2.966   3.539
33945SOL    HW2 3675   3.879   3.084   3.598
33946SOL     OW 3676   6.701   9.264   9.864
33946SOL    HW1 3677   6.785   9.251   9.820
33946SOL    HW2 3678   6.695   9.358   9.880
33947SOL     OW 3679   3.603   8.526   3.477
33947SOL    HW1 3680   3.682   8.551   3.429
33947SOL    HW2 3681   3.629   8.449   3.528
33948SOL     OW 3682   1.448  10.852   4.912
33948SOL    HW1 3683   1.375  10.820   4.965
33948SOL    HW2 3684   1.508  10.777   4.906
33949SOL     OW 3685  10.188  10.677  11.334
33949SOL    HW1 3686  10.153  10.596  11.296
33949SOL    HW2 3687  10.143  10.747  11.286
33950SOL     OW 3688   4.500   9.316  12.139
33950SOL    HW1 3689   4.411   9.340  12.166
33950SOL    HW2 3690   4.557   9.376  12.187
33951SOL     OW 3691   8.853   3.810  12.726
33951SOL    HW1 3692   8.879   3.817  12.818
33951SOL    HW2 3693   8.883   3.723  12.699
33952SOL     OW 3694   0.751   1.008  13.606
33952SOL    HW1 3695   0.820   1.027  13.542
33952SOL    HW2 3696   0.670   1.039  13.565
33953SOL     OW 3697  13.193   3.680   4.565
33953SOL    HW1 3698  13.245   3.711   4.492
33953SOL    HW2 3699  13.124   3.626   4.525
33954SOL     OW 3700   1.124   3.067   9.974
33954SOL    HW1 3701   1.039   3.082  10.016
33954SOL    HW2 3702   1.107   3.003   9.905
33955SOL     OW 3703   0.400   4.608   7.169
33955SOL    HW1 3704   0.365   4.589   7.256
33955SOL    HW2 3705   0.389   4.526   7.120
33956SOL     OW 3706   1.471  11.738   4.175
33956SOL    HW1 3707   1.495  11.687   4.098
33956SOL    HW2 3708   1.479  11.677   4.248
33957SOL     OW 3709   2.163   8.044  13.197
33957SOL    HW1 3710   2.159   7.988  13.119
33957SOL    HW2 3711   2.256   8.059  13.211
33958SOL     OW 3712  12.317   7.103  14.776
33958SOL    HW1 3713  12.297   7.055  14.856
33958SOL    HW2 3714  12.308   7.195  14.800
33959SOL     OW 3715   7.339   8.648   5.894
33959SOL    HW1 3716   7.245   8.664   5.896
33959SOL    HW2 3717   7.351   8.583   5.825
33960SOL     OW 3718  11.822  11.591   6.048
33960SOL    HW1 3719  11.918  11.594   6.048
33960SOL    HW2 3720  11.800  11.523   5.985
33961SOL     OW 3721   6.034  10.795   1.389
33961SOL    HW1 3722   6.097  10.851   1.434
33961SOL    HW2 3723   6.084  10.717   1.364
33962SOL     OW 3724  14.197  13.510  10.180
33962SOL    HW1 3725  14.161  13.526  10.092
33962SOL    HW2 3726  14.203  13.415  10.186
33963SOL     OW 3727   5.885   4.493   4.116
33963SOL    HW1 3728   5.889   4.549   4.194
33963SOL    HW2 3729   5.919   4.547   4.045
33964SOL     OW 3730   7.803  10.296   6.278
33964SOL    HW1 3731   7.712  10.285   6.305
33964SOL    HW2 3732   7.853  10.255   6.348
33965SOL     OW 3733  13.568   0.951  10.538
33965SOL    HW1 3734  13.517   1.033  10.537
33965SOL    HW2 3735  13.657   0.979  10.558
33966SOL     OW 3736   0.321   5.511   3.325
33966SOL    HW1 3737   0.344   5.553   3.242
33966SOL    HW2 3738   0.243   5.458   3.304
33967SOL     OW 3739   3.152   7.242   3.392
33967SOL    HW1 3740   3.201   7.252   3.310
33967SOL    HW2 3741   3.140   7.332   3.424
33968SOL     OW 3742  14.859   0.452   8.839
33968SOL    HW1 3743  14.777   0.409   8.812
33968SOL    HW2 3744  14.831   0.526   8.892
33969SOL     OW 3745   7.585  11.288   4.582
33969SOL    HW1 3746   7.595  11.203   4.624
33969SOL    HW2 3747   7.671  11.306   4.544
33970SOL     OW 3748   6.350   9.597   1.965
33970SOL    HW1 3749   6.341   9.666   1.899
33970SOL    HW2 3750   6.261   9.569   1.983
33971SOL     OW 3751  11.570   0.144   8.990
33971SOL    HW1 3752  11.536   0.109   9.073
33971SOL    HW2 3753  11.570   0.239   9.003
33972SOL     OW 3754   3.987   7.683   2.500
33972SOL    HW1 3755   3.898   7.658   2.475
33972SOL    HW2 3756   4.040   7.605   2.483
33973SOL     OW 3757   0.518   4.120  11.367
33973SOL    HW1 3758   0.441   4.161  11.329
33973SOL    HW2 3759   0.495   4.103  11.459
33974SOL     OW 3760  14.770  10.540   6.021
33974SOL    HW1 3761  14.752  10.569   6.111
33974SOL    HW2 3762  14.864  10.521   6.020
33975SOL     OW 3763   4.206   5.684   8.780
33975SOL    HW1 3764   4.147   5.746   8.822
33975SOL    HW2 3765   4.250   5.639   8.853
33976SOL     OW 3766  10.406   2.051  12.781
33976SOL    HW1 3767  10.483   2.013  12.824
33976SOL    HW2 3768  10.425   2.044  12.687
33977SOL     OW 3769   6.713   8.485   6.964
33977SOL    HW1 3770   6.619   8.474   6.952
33977SOL    HW2 3771   6.722   8.563   7.019
33978SOL     OW 3772   1.437  13.589   2.954
33978SOL    HW1 3773   1.375  13.637   2.899
33978SOL    HW2 3774   1.523  13.615   2.919
33979SOL     OW 3775   9.608   9.802   2.155
33979SOL    HW1 3776   9.656   9.862   2.212
33979SOL    HW2 3777   9.520   9.838   2.151
33980SOL     OW 3778   3.464   3.125   5.554
33980SOL    HW1 3779   3.423   3.203   5.591
33980SOL    HW2 3780   3.509   3.083   5.628
33981SOL     OW 3781  12.430   8.167  14.518
33981SOL    HW1 3782  12.369   8.225  14.471
33981SOL    HW2 3783  12.416   8.081  14.480
33982SOL     OW 3784   7.509   2.065   0.118
33982SOL    HW1 3785   7.536   2.070   0.210
33982SOL    HW2 3786   7.546   2.143   0.077
33983SOL     OW 3787  12.393   6.738   4.907
33983SOL    HW1 3788  12.300   6.745   4.889
33983SOL    HW2 3789  12.399   6.716   5.000
33984SOL     OW 3790   5.543  11.540  11.114
33984SOL    HW1 3791   5.485  11.464  11.105
33984SOL    HW2 3792   5.507  11.589  11.187
33985SOL     OW 3793   6.048   9.246   2.697
33985SOL    HW1 3794   5.994   9.251   2.776
33985SOL    HW2 3795   5.995   9.197   2.635
33986SOL     OW 3796   1.070   5.942   5.270
33986SOL    HW1 3797   1.104   6.012   5.326
33986SOL    HW2 3798   1.073   5.864   5.324
33987SOL     OW 3799   1.689   1.914   8.138
33987SOL    HW1 3800   1.672   1.827   8.100
33987SOL    HW2 3801   1.781   1.931   8.118
33988SOL     OW 3802   6.423   0.637  10.356
33988SOL    HW1 3803   6.467   0.564  10.314
33988SOL    HW2 3804   6.444   0.628  10.449
33989SOL     OW 3805   6.644  13.702   3.559
33989SOL    HW1 3806   6.702  13.778   3.552
33989SOL    HW2 3807   6.631  13.690   3.653
33990SOL     OW 3808  12.785   1.456   5.886
33990SOL    HW1 3809  12.791   1.386   5.821
33990SOL    HW2 3810  12.875   1.487   5.896
33991SOL     OW 3811   4.275  11.208   1.854
33991SOL    HW1 3812   4.347  11.153   1.887
33991SOL    HW2 3813   4.318  11.276   1.803
33992SOL     OW 3814  10.375   3.964   0.951
33992SOL    HW1 3815  10.368   3.893   0.887
33992SOL    HW2 3816  10.296   4.017   0.938
33993SOL     OW 3817  12.170   6.064   7.176
33993SOL    HW1 3818  12.162   5.994   7.111
33993SOL    HW2 3819  12.223   6.025   7.246
33994SOL     OW 3820  12.562  10.181   6.129
33994SOL    HW1 3821  12.492  10.245   6.134
33994SOL    HW2 3822  12.639  10.227   6.162
33995SOL     OW 3823   6.316   0.886   0.170
33995SOL    HW1 3824   6.373   0.961   0.152
33995SOL    HW2 3825   6.300   0.890   0.264
33996SOL     OW 3826   9.209   2.182  12.448
33996SOL    HW1 3827   9.203   2.136  12.532
33996SOL    HW2 3828   9.203   2.275  12.472
33997SOL     OW 3829   4.983   6.173   2.703
33997SOL    HW1 3830   4.917   6.184   2.634
33997SOL    HW2 3831   4.972   6.251   2.758
33998SOL     OW 3832   4.208  10.347  12.072
33998SOL    HW1 3833   4.295  10.358  12.111
33998SOL    HW2 3834   4.189  10.254  12.083
33999SOL     OW 3835  12.195  11.513   2.178
33999SOL    HW1 3836  12.141  11.510   2.257
33999SOL    HW2 3837  12.139  11.555   2.113
34000SOL     OW 3838   5.352   8.736   0.891
34000SOL    HW1 3839   5.358   8.657   0.837
34000SOL    HW2 3840   5.293   8.794   0.842
34001SOL     OW 3841  10.236   9.773   0.819
34001SOL    HW1 3842  10.288   9.846   0.787
34001SOL    HW2 3843  10.296   9.698   0.816
34002SOL     OW 3844  13.315   8.015   2.370
34002SOL    HW1 3845  13.336   7.933   2.325
34002SOL    HW2 3846  13.337   7.997   2.462
34003SOL     OW 3847  12.023   8.228   0.113
34003SOL    HW1 3848  12.031   8.215   0.019
34003SOL    HW2 3849  11.952   8.292   0.123
34004SOL     OW 3850  11.080   8.868   2.708
34004SOL    HW1 3851  11.139   8.850   2.781
34004SOL    HW2 3852  11.026   8.941   2.739
34005SOL     OW 3853   7.586  12.709  14.623
34005SOL    HW1 3854   7.662  12.692  14.568
34005SOL    HW2 3855   7.619  12.702  14.713
34006SOL     OW 3856   3.909   0.410   5.615
34006SOL    HW1 3857   3.967   0.453   5.553
34006SOL    HW2 3858   3.824   0.406   5.571
34007SOL     OW 3859  12.584   9.080   6.940
34007SOL    HW1 3860  12.632   9.002   6.969
34007SOL    HW2 3861  12.644   9.122   6.877
34008SOL     OW 3862   2.651   4.239  13.778
34008SOL    HW1 3863   2.729   4.261  13.728
34008SOL    HW2 3864   2.581   4.291  13.738
34009SOL     OW 3865   1.315   3.244  10.812
34009SOL    HW1 3866   1.299   3.218  10.903
34009SOL    HW2 3867   1.237   3.213  10.765
34010SOL     OW 3868   5.283  14.848   6.853
34010SOL    HW1 3869   5.228   0.043   6.875
34010SOL    HW2 3870   5.368   0.007   6.832
34011SOL     OW 3871  11.564   6.142   5.584
34011SOL    HW1 3872  11.561   6.046   5.574
34011SOL    HW2 3873  11.611   6.173   5.506
34012SOL     OW 3874   2.196  10.594  10.682
34012SOL    HW1 3875   2.123  10.654  10.699
34012SOL    HW2 3876   2.233  10.576  10.768
34013SOL     OW 3877   2.109   8.769  11.277
34013SOL    HW1 3878   2.149   8.758  11.191
34013SOL    HW2 3879   2.062   8.852  11.272
34014SOL     OW 3880   4.972   3.288   1.756
34014SOL    HW1 3881   4.911   3.352   1.793
34014SOL    HW2 3882   5.047   3.339   1.728
34015SOL     OW 3883   3.446  11.952   7.952
34015SOL    HW1 3884   3.476  11.862   7.963
34015SOL    HW2 3885   3.364  11.956   8.000
34016SOL     OW 3886  11.644   5.724  12.360
34016SOL    HW1 3887  11.687   5.638  12.355
34016SOL    HW2 3888  11.551   5.705  12.355
34017SOL     OW 3889   6.400  13.079   9.023
34017SOL    HW1 3890   6.486  13.036   9.014
34017SOL    HW2 3891   6.418  13.157   9.075
34018SOL     OW 3892  12.211   7.531  11.786
34018SOL    HW1 3893  12.127   7.566  11.815
34018SOL    HW2 3894  12.265   7.608  11.769
34019SOL     OW 3895   5.403   7.605  13.047
34019SOL    HW1 3896   5.456   7.685  13.040
34019SOL    HW2 3897   5.392   7.592  13.141
34020SOL     OW 3898  10.105  14.241  13.010
34020SOL    HW1 3899  10.154  14.279  12.937
34020SOL    HW2 3900  10.172  14.210  13.070
34021SOL     OW 3901   6.011  11.285   0.003
34021SOL    HW1 3902   6.057  11.353  14.833
34021SOL    HW2 3903   5.927  11.276  14.837
34022SOL     OW 3904   6.126   2.622  10.339
34022SOL    HW1 3905   6.189   2.602  10.408
34022SOL    HW2 3906   6.063   2.681  10.380
34023SOL     OW 3907  13.887   3.663  14.081
34023SOL    HW1 3908  13.925   3.575  14.083
34023SOL    HW2 3909  13.810   3.657  14.138
34024SOL     OW 3910  11.947   9.949  11.178
34024SOL    HW1 3911  11.991  10.024  11.219
34024SOL    HW2 3912  11.903   9.904  11.251
34025SOL     OW 3913  14.485   4.680  14.371
34025SOL    HW1 3914  14.416   4.626  14.331
34025SOL    HW2 3915  14.511   4.741  14.301
34026SOL     OW 3916   5.906   7.053   8.466
34026SOL    HW1 3917   5.954   7.129   8.499
34026SOL    HW2 3918   5.968   7.010   8.407
34027SOL     OW 3919   1.226   4.038   4.867
34027SOL    HW1 3920   1.309   4.049   4.913
34027SOL    HW2 3921   1.220   3.944   4.850
34028SOL     OW 3922  14.302  11.764   0.840
34028SOL    HW1 3923  14.344  11.787   0.923
34028SOL    HW2 3924  14.313  11.670   0.832
34029SOL     OW 3925   6.225  13.301  12.211
34029SOL    HW1 3926   6.257  13.370  12.153
34029SOL    HW2 3927   6.210  13.345  12.295
34030SOL     OW 3928  12.073   4.348   3.990
34030SOL    HW1 3929  12.166   4.330   4.005
34030SOL    HW2 3930  12.036   4.264   3.963
34031SOL     OW 3931  10.627   1.443  12.801
34031SOL    HW1 3932  10.654   1.441  12.893
34031SOL    HW2 3933  10.569   1.368  12.791
34032SOL     OW 3934  10.075   3.946  14.746
34032SOL    HW1 3935  10.113   4.009  14.684
34032SOL    HW2 3936  10.002   3.907  14.698
34033SOL     OW 3937   1.817   5.841   6.092
34033SOL    HW1 3938   1.847   5.913   6.147
34033SOL    HW2 3939   1.889   5.778   6.093
34034SOL     OW 3940  11.467  12.636  11.890
34034SOL    HW1 3941  11.392  12.691  11.910
34034SOL    HW2 3942  11.452  12.606  11.800
34035SOL     OW 3943  13.163  11.912   0.639
34035SOL    HW1 3944  13.071  11.923   0.664
34035SOL    HW2 3945  13.202  11.864   0.712
34036SOL     OW 3946  11.115  11.321   0.223
34036SOL    HW1 3947  11.136  11.230   0.246
34036SOL    HW2 3948  11.195  11.369   0.243
34037SOL     OW 3949   3.128   2.353  12.791
34037SOL    HW1 3950   3.122   2.449  12.792
34037SOL    HW2 3951   3.063   2.326  12.727
34038SOL     OW 3952   1.856   4.030  11.020
34038SOL    HW1 3953   1.843   3.965  10.952
34038SOL    HW2 3954   1.770   4.043  11.059
34039SOL     OW 3955   5.052   1.621  10.214
34039SOL    HW1 3956   5.107   1.598  10.139
34039SOL    HW2 3957   4.993   1.546  10.225
34040SOL     OW 3958   3.085  11.846   3.292
34040SOL    HW1 3959   3.108  11.812   3.206
34040SOL    HW2 3960   3.054  11.769   3.341
34041SOL     OW 3961   5.731   1.515   1.251
34041SOL    HW1 3962   5.791   1.534   1.323
34041SOL    HW2 3963   5.701   1.601   1.221
34042SOL     OW 3964  14.492   8.748   9.303
34042SOL    HW1 3965  14.428   8.719   9.368
34042SOL    HW2 3966  14.551   8.806   9.352
34043SOL     OW 3967   3.316  11.538  12.634
34043SOL    HW1 3968   3.294  11.445  12.645
34043SOL    HW2 3969   3.331  11.548  12.540
34044SOL     OW 3970   7.201   1.799  14.396
34044SOL    HW1 3971   7.245   1.879  14.368
34044SOL    HW2 3972   7.161   1.821  14.479
34045SOL     OW 3973   1.018   7.747   8.459
34045SOL    HW1 3974   1.027   7.734   8.553
34045SOL    HW2 3975   0.925   7.736   8.442
34046SOL     OW 3976   1.936  12.288  13.726
34046SOL    HW1 3977   1.916  12.203  13.689
34046SOL    HW2 3978   1.953  12.344  13.650
34047SOL     OW 3979  10.067   6.476  12.083
34047SOL    HW1 3980  10.056   6.548  12.146
34047SOL    HW2 3981  10.053   6.517  11.998
34048SOL     OW 3982   6.095   6.745   1.186
34048SOL    HW1 3983   6.188   6.761   1.168
34048SOL    HW2 3984   6.077   6.797   1.265
34049SOL     OW 3985  13.922   4.901   2.386
34049SOL    HW1 3986  13.889   4.887   2.297
34049SOL    HW2 3987  13.918   4.815   2.427
34050SOL     OW 3988   8.445  11.481   2.621
34050SOL    HW1 3989   8.368  11.428   2.639
34050SOL    HW2 3990   8.448  11.487   2.525
34051SOL     OW 3991   3.130  10.154   2.988
34051SOL    HW1 3992   3.076  10.226   2.954
34051SOL    HW2 3993   3.104  10.078   2.936
34052SOL     OW 3994   0.562  13.870  11.426
34052SOL    HW1 3995   0.516  13.791  11.454
34052SOL    HW2 3996   0.630  13.883  11.493
34053SOL     OW 3997   8.674   1.666   7.494
34053SOL    HW1 3998   8.694   1.756   7.468
34053SOL    HW2 3999   8.635   1.627   7.416
34054SOL     OW 4000   6.998   4.013  11.204
34054SOL    HW1 4001   7.018   3.926  11.238
34054SOL    HW2 4002   7.067   4.069  11.239
34055SOL     OW 4003   2.144   6.505  10.046
34055SOL    HW1 4004   2.096   6.423  10.034
34055SOL    HW2 4005   2.142   6.548   9.961
34056SOL     OW 4006   5.568  10.313   0.634
34056SOL    HW1 4007   5.540  10.306   0.543
34056SOL    HW2 4008   5.627  10.388   0.635
34057SOL     OW 4009   1.288   2.029  12.530
34057SOL    HW1 4010   1.324   1.950  12.492
34057SOL    HW2 4011   1.362   2.069  12.577
34058SOL     OW 4012   3.618  14.838   0.502
34058SOL    HW1 4013   3.600  14.839   0.596
34058SOL    HW2 4014   3.553   0.017   0.464
34059SOL     OW 4015   8.745   2.621   3.301
34059SOL    HW1 4016   8.654   2.646   3.286
34059SOL    HW2 4017   8.775   2.680   3.371
34060SOL     OW 4018   8.759  10.345   8.714
34060SOL    HW1 4019   8.696  10.303   8.656
34060SOL    HW2 4020   8.823  10.384   8.655
34061SOL     OW 4021   8.217  12.882   6.954
34061SOL    HW1 4022   8.295  12.839   6.988
34061SOL    HW2 4023   8.249  12.936   6.881
34062SOL     OW 4024   7.561   2.204   6.767
34062SOL    HW1 4025   7.637   2.204   6.826
34062SOL    HW2 4026   7.534   2.112   6.763
34063SOL     OW 4027   9.285   4.352  10.874
34063SOL    HW1 4028   9.365   4.310  10.843
34063SOL    HW2 4029   9.308   4.390  10.958
34064SOL     OW 4030  12.318   4.797  12.470
34064SOL    HW1 4031  12.390   4.805  12.534
34064SOL    HW2 4032  12.323   4.707  12.440
34065SOL     OW 4033  14.775   8.724   0.405
34065SOL    HW1 4034  14.814   8.645   0.367
34065SOL    HW2 4035  14.827   8.740   0.484
34066SOL     OW 4036   6.567  13.049   9.598
34066SOL    HW1 4037   6.543  13.141   9.583
34066SOL    HW2 4038   6.613  13.023   9.519
34067SOL     OW 4039   7.206  13.984  10.578
34067SOL    HW1 4040   7.250  14.053  10.529
34067SOL    HW2 4041   7.117  14.017  10.593
34068SOL     OW 4042   2.008   3.569   1.724
34068SOL    HW1 4043   2.078   3.633   1.714
34068SOL    HW2 4044   1.980   3.551   1.634
34069SOL     OW 4045   6.707   5.873   2.197
34069SOL    HW1 4046   6.649   5.799   2.181
34069SOL    HW2 4047   6.678   5.940   2.135
34070SOL     OW 4048   9.249   5.954  14.007
34070SOL    HW1 4049   9.207   6.038  13.989
34070SOL    HW2 4050   9.335   5.978  14.043
34071SOL     OW 4051   3.333   9.655   9.050
34071SOL    HW1 4052   3.337   9.722   9.118
34071SOL    HW2 4053   3.422   9.653   9.014
34072SOL     OW 4054  11.566   6.602   9.641
34072SOL    HW1 4055  11.544   6.581   9.551
34072SOL    HW2 4056  11.550   6.696   9.649
34073SOL     OW 4057   4.980  13.276  14.049
34073SOL    HW1 4058   4.908  13.340  14.047
34073SOL    HW2 4059   4.940  13.197  14.085
34074SOL     OW 4060   3.845   7.311   3.184
34074SOL    HW1 4061   3.922   7.351   3.225
34074SOL    HW2 4062   3.847   7.344   3.094
34075SOL     OW 4063  12.581  12.363   4.229
34075SOL    HW1 4064  12.486  12.366   4.240
34075SOL    HW2 4065  12.608  12.280   4.267
34076SOL     OW 4066  13.963   7.475  11.355
34076SOL    HW1 4067  14.041   7.531  11.354
34076SOL    HW2 4068  13.896   7.528  11.312
34077SOL     OW 4069  14.686   7.381  12.819
34077SOL    HW1 4070  14.708   7.473  12.805
34077SOL    HW2 4071  14.676   7.345  12.730
34078SOL     OW 4072  12.462  12.118   0.691
34078SOL    HW1 4073  12.371  12.093   0.674
34078SOL    HW2 4074  12.499  12.132   0.604
34079SOL     OW 4075   0.255   6.472   9.134
34079SOL    HW1 4076   0.215   6.391   9.102
34079SOL    HW2 4077   0.186   6.537   9.129
34080SOL     OW 4078  12.777  10.071   6.579
34080SOL    HW1 4079  12.799  10.068   6.486
34080SOL    HW2 4080  12.829  10.001   6.618
34081SOL     OW 4081   0.935   7.924   4.896
34081SOL    HW1 4082   0.905   7.985   4.828
34081SOL    HW2 4083   1.009   7.969   4.937
34082SOL     OW 4084   0.654  14.073   6.349
34082SOL    HW1 4085   0.588  14.142   6.352
34082SOL    HW2 4086   0.684  14.073   6.258
34083SOL     OW 4087   0.944  11.459  10.218
34083SOL    HW1 4088   0.935  11.364  10.230
34083SOL    HW2 4089   1.007  11.467  10.146
34084SOL     OW 4090   1.756  10.121  12.583
34084SOL    HW1 4091   1.758  10.042  12.637
34084SOL    HW2 4092   1.780  10.191  12.644
34085SOL     OW 4093   1.722   4.009  13.896
34085SOL    HW1 4094   1.676   3.935  13.937
34085SOL    HW2 4095   1.652   4.060  13.854
34086SOL     OW 4096   2.585   0.303  13.841
34086SOL    HW1 4097   2.602   0.299  13.747
34086SOL    HW2 4098   2.489   0.300  13.848
34087SOL     OW 4099  14.343   1.449  11.429
34087SOL    HW1 4100  14.310   1.527  11.385
34087SOL    HW2 4101  14.300   1.376  11.385
34088SOL     OW 4102   5.515  14.766  10.389
34088SOL    HW1 4103   5.432  14.800  10.423
34088SOL    HW2 4104   5.508  14.671  10.398
34089SOL     OW 4105  13.187   4.069  14.195
34089SOL    HW1 4106  13.110   4.094  14.144
34089SOL    HW2 4107  13.187   3.973  14.194
34090SOL     OW 4108   4.838  12.996  14.111
34090SOL    HW1 4109   4.763  13.032  14.064
34090SOL    HW2 4110   4.810  12.908  14.138
34091SOL     OW 4111   7.064  12.652  11.258
34091SOL    HW1 4112   7.036  12.742  11.239
34091SOL    HW2 4113   7.109  12.624  11.179
34092SOL     OW 4114   4.539  12.660   9.140
34092SOL    HW1 4115   4.512  12.723   9.073
34092SOL    HW2 4116   4.471  12.593   9.139
34093SOL     OW 4117  13.047   4.459  14.524
34093SOL    HW1 4118  13.112   4.392  14.502
34093SOL    HW2 4119  12.978   4.411  14.570
34094SOL     OW 4120   7.087  13.831   5.606
34094SOL    HW1 4121   7.131  13.886   5.671
34094SOL    HW2 4122   7.004  13.807   5.646
34095SOL     OW 4123   7.335   1.555   6.028
34095SOL    HW1 4124   7.262   1.583   5.973
34095SOL    HW2 4125   7.329   1.611   6.106
34096SOL     OW 4126  14.752  11.793   0.641
34096SOL    HW1 4127  14.701  11.871   0.664
34096SOL    HW2 4128  14.843  11.821   0.647
34097SOL     OW 4129   9.325   4.320   4.389
34097SOL    HW1 4130   9.373   4.382   4.444
34097SOL    HW2 4131   9.254   4.288   4.445
34098SOL     OW 4132   2.503   7.183  13.519
34098SOL    HW1 4133   2.572   7.248  13.509
34098SOL    HW2 4134   2.489   7.176  13.613
34099SOL     OW 4135  10.519   6.460  12.802
34099SOL    HW1 4136  10.513   6.553  12.824
34099SOL    HW2 4137  10.429   6.434  12.782
34100SOL     OW 4138  12.426   7.539   5.609
34100SOL    HW1 4139  12.501   7.585   5.573
34100SOL    HW2 4140  12.463   7.477   5.671
34101SOL     OW 4141   6.355  14.805   0.917
34101SOL    HW1 4142   6.386  14.723   0.878
34101SOL    HW2 4143   6.372  14.794   1.011
34102SOL     OW 4144   3.744  13.064  12.044
34102SOL    HW1 4145   3.773  13.151  12.070
34102SOL    HW2 4146   3.662  13.079  11.998
34103SOL     OW 4147  10.966  13.176  12.559
34103SOL    HW1 4148  11.022  13.138  12.627
34103SOL    HW2 4149  10.923  13.100  12.518
34104SOL     OW 4150   9.251   3.138  10.996
34104SOL    HW1 4151   9.299   3.213  11.029
34104SOL    HW2 4152   9.167   3.174  10.966
34105SOL     OW 4153  13.978   0.868   0.740
34105SOL    HW1 4154  13.967   0.802   0.672
34105SOL    HW2 4155  13.895   0.868   0.787
34106SOL     OW 4156   0.020  13.249   6.522
34106SOL    HW1 4157  14.866  13.295   6.599
34106SOL    HW2 4158   0.077  13.313   6.479
34107SOL     OW 4159  10.722  11.333   9.670
34107SOL    HW1 4160  10.734  11.339   9.576
34107SOL    HW2 4161  10.713  11.240   9.688
34108SOL     OW 4162   6.954  12.722   2.985
34108SOL    HW1 4163   7.004  12.801   2.965
34108SOL    HW2 4164   6.862  12.747   2.973
34109SOL     OW 4165  10.778   8.750   8.066
34109SOL    HW1 4166  10.826   8.818   8.018
34109SOL    HW2 4167  10.792   8.670   8.016
34110SOL     OW 4168   4.844   3.048  13.978
34110SOL    HW1 4169   4.792   3.047  13.898
34110SOL    HW2 4170   4.839   3.138  14.010
34111SOL     OW 4171   4.484  11.924   2.312
34111SOL    HW1 4172   4.516  11.997   2.366
34111SOL    HW2 4173   4.393  11.913   2.339
34112SOL     OW 4174   2.068  14.310  10.454
34112SOL    HW1 4175   2.003  14.282  10.390
34112SOL    HW2 4176   2.048  14.402  10.471
34113SOL     OW 4177  11.767   6.416   7.656
34113SOL    HW1 4178  11.695   6.478   7.653
34113SOL    HW2 4179  11.754   6.360   7.580
34114SOL     OW 4180  13.073   3.746   4.953
34114SOL    HW1 4181  13.120   3.678   4.904
34114SOL    HW2 4182  12.981   3.719   4.950
34115SOL     OW 4183   1.148  14.232   7.427
34115SOL    HW1 4184   1.053  14.228   7.439
34115SOL    HW2 4185   1.171  14.145   7.395
34116SOL     OW 4186  13.453   6.096  11.516
34116SOL    HW1 4187  13.470   6.148  11.594
34116SOL    HW2 4188  13.433   6.008  11.549
34117SOL     OW 4189  12.703   8.137  10.548
34117SOL    HW1 4190  12.626   8.100  10.504
34117SOL    HW2 4191  12.672   8.158  10.636
34118SOL     OW 4192   6.850  13.095   9.245
34118SOL    HW1 4193   6.841  13.000   9.238
34118SOL    HW2 4194   6.839  13.112   9.339
34119SOL     OW 4195   2.885   2.917   4.038
34119SOL    HW1 4196   2.808   2.956   3.996
34119SOL    HW2 4197   2.949   2.908   3.968
34120SOL     OW 4198  12.044   6.433   7.605
34120SOL    HW1 4199  12.077   6.345   7.626
34120SOL    HW2 4200  11.959   6.438   7.649
34121SOL     OW 4201   4.178  13.674   6.889
34121SOL    HW1 4202   4.209  13.710   6.972
34121SOL    HW2 4203   4.116  13.740   6.856
34122SOL     OW 4204   1.125  13.006   7.747
34122SOL    HW1 4205   1.121  12.979   7.839
34122SOL    HW2 4206   1.194  12.952   7.709
34123SOL     OW 4207  14.415  10.127   4.159
34123SOL    HW1 4208  14.422  10.201   4.099
34123SOL    HW2 4209  14.342  10.075   4.126
34124SOL     OW 4210   1.136  12.404   3.467
34124SOL    HW1 4211   1.134  12.357   3.550
34124SOL    HW2 4212   1.180  12.345   3.406
34125SOL     OW 4213  11.196  10.085   3.636
34125SOL    HW1 4214  11.101  10.093   3.638
34125SOL    HW2 4215  11.218  10.082   3.543
34126SOL     OW 4216   4.813   9.957  10.573
34126SOL    HW1 4217   4.903   9.964  10.543
34126SOL    HW2 4218   4.787   9.867  10.553
34127SOL     OW 4219   3.742   4.500   7.815
34127SOL    HW1 4220   3.735   4.595   7.806
34127SOL    HW2 4221   3.661   4.473   7.859
34128SOL     OW 4222   7.550   6.826   0.520
34128SOL    HW1 4223   7.616   6.896   0.513
34128SOL    HW2 4224   7.596   6.748   0.490
34129SOL     OW 4225   5.574   0.018   0.390
34129SOL    HW1 4226   5.597   0.023   0.483
34129SOL    HW2 4227   5.596   0.105   0.356
34130SOL     OW 4228   4.960  14.305   5.283
34130SOL    HW1 4229   4.889  14.270   5.338
34130SOL    HW2 4230   5.037  14.300   5.339
34131SOL     OW 4231   3.252   8.028   8.379
34131SOL    HW1 4232   3.287   7.940   8.362
34131SOL    HW2 4233   3.224   8.059   8.293
34132SOL     OW 4234   1.609   1.233  10.885
34132SOL    HW1 4235   1.601   1.207  10.793
34132SOL    HW2 4236   1.703   1.240  10.900
34133SOL     OW 4237   1.197   5.707  14.756
34133SOL    HW1 4238   1.193   5.775  14.689
34133SOL    HW2 4239   1.168   5.752  14.836
34134SOL     OW 4240   9.711   6.423  10.663
34134SOL    HW1 4241   9.636   6.462  10.707
34134SOL    HW2 4242   9.707   6.330  10.687
34135SOL     OW 4243   9.191  14.557   8.784
34135SOL    HW1 4244   9.149  14.554   8.698
34135SOL    HW2 4245   9.140  14.622   8.833
34136SOL     OW 4246   0.290  13.001   0.699
34136SOL    HW1 4247   0.294  13.064   0.770
34136SOL    HW2 4248   0.219  13.032   0.643
34137SOL     OW 4249   7.966  12.455   5.443
34137SOL    HW1 4250   7.880  12.426   5.474
34137SOL    HW2 4251   7.964  12.441   5.348
34138SOL     OW 4252  11.617  12.378  10.413
34138SOL    HW1 4253  11.674  12.301  10.402
34138SOL    HW2 4254  11.678  12.451  10.424
34139SOL     OW 4255   5.887  11.787   7.059
34139SOL    HW1 4256   5.844  11.839   7.127
34139SOL    HW2 4257   5.949  11.848   7.019
34140SOL     OW 4258  12.090   4.635   0.567
34140SOL    HW1 4259  12.101   4.602   0.656
34140SOL    HW2 4260  12.069   4.728   0.578
34141SOL     OW 4261  11.251   6.126  14.543
34141SOL    HW1 4262  11.317   6.189  14.571
34141SOL    HW2 4263  11.282   6.094  14.458
34142SOL     OW 4264  11.651   0.272   0.063
34142SOL    HW1 4265  11.717   0.339   0.082
34142SOL    HW2 4266  11.568   0.310   0.092
34143SOL     OW 4267   6.111   6.536   8.470
34143SOL    HW1 4268   6.090   6.497   8.555
34143SOL    HW2 4269   6.103   6.631   8.484
34144SOL     OW 4270  10.176   9.897  12.613
34144SOL    HW1 4271  10.096   9.948  12.631
34144SOL    HW2 4272  10.247   9.951  12.647
34145SOL     OW 4273  10.492   3.319   8.240
34145SOL    HW1 4274  10.540   3.389   8.285
34145SOL    HW2 4275  10.506   3.242   8.295
34146SOL     OW 4276  13.319   8.802   5.961
34146SOL    HW1 4277  13.260   8.835   5.893
34146SOL    HW2 4278  13.401   8.848   5.946
34147SOL     OW 4279  11.081   4.724  11.918
34147SOL    HW1 4280  11.005   4.691  11.966
34147SOL    HW2 4281  11.110   4.651  11.865
34148SOL     OW 4282  14.618   8.783  14.800
34148SOL    HW1 4283  14.615   8.839  14.878
34148SOL    HW2 4284  14.674   8.710  14.824
34149SOL     OW 4285   8.830  10.368   6.124
34149SOL    HW1 4286   8.881  10.416   6.189
34149SOL    HW2 4287   8.739  10.386   6.148
34150SOL     OW 4288   9.499   9.531   4.801
34150SOL    HW1 4289   9.425   9.472   4.784
34150SOL    HW2 4290   9.461   9.603   4.852
34151SOL     OW 4291   5.521   8.308  12.585
34151SOL    HW1 4292   5.524   8.212  12.587
34151SOL    HW2 4293   5.589   8.334  12.647
34152SOL     OW 4294   4.077   0.064   8.696
34152SOL    HW1 4295   3.999   0.074   8.642
34152SOL    HW2 4296   4.118  14.863   8.665
34153SOL     OW 4297   8.612  14.294   6.972
34153SOL    HW1 4298   8.682  14.298   6.907
34153SOL    HW2 4299   8.557  14.370   6.952
34154SOL     OW 4300   1.470   5.293  10.837
34154SOL    HW1 4301   1.457   5.200  10.817
34154SOL    HW2 4302   1.405   5.338  10.783
34155SOL     OW 4303   2.540  10.532   7.337
34155SOL    HW1 4304   2.522  10.554   7.428
34155SOL    HW2 4305   2.584  10.609   7.301
34156SOL     OW 4306   5.122  12.356  10.568
34156SOL    HW1 4307   5.148  12.369  10.477
34156SOL    HW2 4308   5.103  12.444  10.601
34157SOL     OW 4309   2.645   7.139   6.938
34157SOL    HW1 4310   2.650   7.140   6.842
34157SOL    HW2 4311   2.649   7.231   6.963
34158SOL     OW 4312   0.677   8.584   3.552
34158SOL    HW1 4313   0.594   8.603   3.507
34158SOL    HW2 4314   0.651   8.536   3.631
34159SOL     OW 4315   2.077   8.717  13.464
34159SOL    HW1 4316   2.003   8.682  13.514
34159SOL    HW2 4317   2.099   8.647  13.402
34160SOL     OW 4318   9.003   3.332   1.225
34160SOL    HW1 4319   8.981   3.272   1.296
34160SOL    HW2 4320   8.926   3.389   1.218
34161SOL     OW 4321   7.021  12.015   6.909
34161SOL    HW1 4322   7.041  11.979   6.995
34161SOL    HW2 4323   7.080  12.089   6.898
34162SOL     OW 4324   7.857   5.868  13.931
34162SOL    HW1 4325   7.880   5.947  13.883
34162SOL    HW2 4326   7.765   5.880  13.955
34163SOL     OW 4327   2.963   4.401   5.280
34163SOL    HW1 4328   2.868   4.390   5.285
34163SOL    HW2 4329   2.980   4.483   5.326
34164SOL     OW 4330   4.946   4.351   3.853
34164SOL    HW1 4331   4.981   4.437   3.879
34164SOL    HW2 4332   4.980   4.290   3.919
34165SOL     OW 4333   7.511   2.423   3.818
34165SOL    HW1 4334   7.420   2.396   3.803
34165SOL    HW2 4335   7.536   2.468   3.737
34166SOL     OW 4336   8.606  11.092   5.579
34166SOL    HW1 4337   8.631  11.074   5.670
34166SOL    HW2 4338   8.537  11.028   5.560
34167SOL     OW 4339  11.626   7.402   4.560
34167SOL    HW1 4340  11.645   7.380   4.469
34167SOL    HW2 4341  11.550   7.459   4.556
34168SOL     OW 4342   9.384  11.899   4.889
34168SOL    HW1 4343   9.356  11.838   4.821
34168SOL    HW2 4344   9.330  11.878   4.965
34169SOL     OW 4345   0.151   9.258   8.736
34169SOL    HW1 4346   0.160   9.185   8.675
34169SOL    HW2 4347   0.218   9.320   8.708
34170SOL     OW 4348   3.314   0.338   8.274
34170SOL    HW1 4349   3.407   0.313   8.273
34170SOL    HW2 4350   3.309   0.408   8.339
34171SOL     OW 4351   0.311   0.338   9.326
34171SOL    HW1 4352   0.217   0.349   9.314
34171SOL    HW2 4353   0.334   0.397   9.398
34172SOL     OW 4354   4.219   9.076   4.331
34172SOL    HW1 4355   4.192   9.156   4.377
34172SOL    HW2 4356   4.275   9.030   4.393
34173SOL     OW 4357   6.163  13.862  14.672
34173SOL    HW1 4358   6.246  13.856  14.624
34173SOL    HW2 4359   6.125  13.774  14.664
34174SOL     OW 4360   1.802   9.153   8.632
34174SOL    HW1 4361   1.849   9.082   8.588
34174SOL    HW2 4362   1.813   9.228   8.573
34175SOL     OW 4363  12.059  10.885  12.962
34175SOL    HW1 4364  12.107  10.817  12.914
34175SOL    HW2 4365  11.997  10.836  13.015
34176SOL     OW 4366   1.205  13.456   8.399
34176SOL    HW1 4367   1.269  13.487   8.334
34176SOL    HW2 4368   1.183  13.535   8.449
34177SOL     OW 4369   5.551   4.551  13.489
34177SOL    HW1 4370   5.514   4.640  13.494
34177SOL    HW2 4371   5.480   4.498  13.452
34178SOL     OW 4372   8.207   9.572  13.646
34178SOL    HW1 4373   8.263   9.648  13.629
34178SOL    HW2 4374   8.178   9.544  13.559
34179SOL     OW 4375  12.736   6.292   3.775
34179SOL    HW1 4376  12.819   6.275   3.730
34179SOL    HW2 4377  12.681   6.335   3.710
34180SOL     OW 4378   8.255  11.297   8.905
34180SOL    HW1 4379   8.319  11.241   8.862
34180SOL    HW2 4380   8.249  11.262   8.994
34181SOL     OW 4381   1.875   2.435  10.504
34181SOL    HW1 4382   1.922   2.434  10.588
34181SOL    HW2 4383   1.800   2.378  10.519
34182SOL     OW 4384   5.083   5.688   6.290
34182SOL    HW1 4385   5.171   5.724   6.295
34182SOL    HW2 4386   5.026   5.764   6.288
34183SOL     OW 4387   7.746  11.212  14.135
34183SOL    HW1 4388   7.830  11.171  14.152
34183SOL    HW2 4389   7.730  11.196  14.042
34184SOL     OW 4390   4.070  10.729   2.689
34184SOL    HW1 4391   4.022  10.762   2.614
34184SOL    HW2 4392   4.008  10.671   2.734
34185SOL     OW 4393   9.790  10.846   7.645
34185SOL    HW1 4394   9.716  10.786   7.651
34185SOL    HW2 4395   9.850  10.804   7.583
34186SOL     OW 4396  13.975  13.002  12.196
34186SOL    HW1 4397  13.903  12.951  12.233
34186SOL    HW2 4398  14.029  13.026  12.272
34187SOL     OW 4399  14.135  13.859   3.675
34187SOL    HW1 4400  14.206  13.842   3.738
34187SOL    HW2 4401  14.068  13.794   3.697
34188SOL     OW 4402   9.619   2.347   9.705
34188SOL    HW1 4403   9.612   2.325   9.798
34188SOL    HW2 4404   9.619   2.263   9.659
34189SOL     OW 4405   1.020   5.282   3.217
34189SOL    HW1 4406   0.960   5.338   3.265
34189SOL    HW2 4407   0.985   5.280   3.128
34190SOL     OW 4408   9.562   3.931   3.618
34190SOL    HW1 4409   9.557   3.914   3.713
34190SOL    HW2 4410   9.655   3.927   3.598
34191SOL     OW 4411   5.574   3.230   6.973
34191SOL    HW1 4412   5.592   3.256   7.064
34191SOL    HW2 4413   5.652   3.180   6.947
34192SOL     OW 4414   7.393  11.162   5.310
34192SOL    HW1 4415   7.390  11.109   5.230
34192SOL    HW2 4416   7.428  11.246   5.282
34193SOL     OW 4417  11.817   6.324   5.096
34193SOL    HW1 4418  11.739   6.301   5.045
34193SOL    HW2 4419  11.890   6.315   5.034
34194SOL     OW 4420   4.335  12.776   6.949
34194SOL    HW1 4421   4.240  12.769   6.945
34194SOL    HW2 4422   4.363  12.696   6.994
34195SOL     OW 4423   3.318   2.251  14.595
34195SOL    HW1 4424   3.391   2.223  14.539
34195SOL    HW2 4425   3.356   2.316  14.653
34196SOL     OW 4426   4.414   5.120  14.064
34196SOL    HW1 4427   4.383   5.105  13.975
34196SOL    HW2 4428   4.509   5.112  14.057
34197SOL     OW 4429   6.965   9.502   5.206
34197SOL    HW1 4430   6.992   9.594   5.211
34197SOL    HW2 4431   6.869   9.505   5.213
34198SOL     OW 4432   8.486   0.902   9.410
34198SOL    HW1 4433   8.469   0.981   9.358
34198SOL    HW2 4434   8.500   0.833   9.345
34199SOL     OW 4435   3.388   2.503  14.241
34199SOL    HW1 4436   3.464   2.446  14.253
34199SOL    HW2 4437   3.330   2.453  14.183
34200SOL     OW 4438   7.074  13.313   2.314
34200SOL    HW1 4439   7.169  13.304   2.321
34200SOL    HW2 4440   7.042  13.224   2.299
34201SOL     OW 4441   6.425   9.650  14.012
34201SOL    HW1 4442   6.427   9.582  13.944
34201SOL    HW2 4443   6.517   9.673  14.026
34202SOL     OW 4444   2.487   7.419   3.030
34202SOL    HW1 4445   2.513   7.328   3.043
34202SOL    HW2 4446   2.440   7.443   3.111
34203SOL     OW 4447  10.393  10.575  12.845
34203SOL    HW1 4448  10.335  10.514  12.800
34203SOL    HW2 4449  10.459  10.519  12.887
34204SOL     OW 4450   0.562   5.793   5.954
34204SOL    HW1 4451   0.554   5.850   5.877
34204SOL    HW2 4452   0.537   5.850   6.028
34205SOL     OW 4453  10.678   2.350   5.413
34205SOL    HW1 4454  10.604   2.377   5.358
34205SOL    HW2 4455  10.721   2.281   5.363
34206SOL     OW 4456   1.099  10.236   4.554
34206SOL    HW1 4457   1.045  10.239   4.634
34206SOL    HW2 4458   1.072  10.314   4.505
34207SOL     OW 4459   1.692   6.860   6.951
34207SOL    HW1 4460   1.658   6.898   6.870
34207SOL    HW2 4461   1.747   6.929   6.988
34208SOL     OW 4462  14.576   9.149   9.210
34208SOL    HW1 4463  14.515   9.221   9.194
34208SOL    HW2 4464  14.608   9.165   9.299
34209SOL     OW 4465  14.672   8.915   2.425
34209SOL    HW1 4466  14.601   8.922   2.360
34209SOL    HW2 4467  14.689   8.821   2.431
34210SOL     OW 4468  13.808   5.506   5.486
34210SOL    HW1 4469  13.716   5.530   5.497
34210SOL    HW2 4470  13.817   5.490   5.392
34211SOL     OW 4471  10.266   3.828   9.474
34211SOL    HW1 4472  10.259   3.902   9.533
34211SOL    HW2 4473  10.360   3.812   9.466
34212SOL     OW 4474  13.701   8.100   2.319
34212SOL    HW1 4475  13.772   8.159   2.295
34212SOL    HW2 4476  13.621   8.147   2.293
34213SOL     OW 4477   1.456  12.194   2.527
34213SOL    HW1 4478   1.509  12.121   2.496
34213SOL    HW2 4479   1.501  12.272   2.493
34214SOL     OW 4480  14.707  11.489   5.799
34214SOL    HW1 4481  14.624  11.505   5.845
34214SOL    HW2 4482  14.681  11.455   5.714
34215SOL     OW 4483   9.466   9.869  11.639
34215SOL    HW1 4484   9.510   9.813  11.575
34215SOL    HW2 4485   9.458   9.954  11.595
34216SOL     OW 4486   5.520  13.618   9.962
34216SOL    HW1 4487   5.552  13.533   9.993
34216SOL    HW2 4488   5.559  13.628   9.875
34217SOL     OW 4489   6.677   8.573   3.637
34217SOL    HW1 4490   6.692   8.649   3.693
34217SOL    HW2 4491   6.720   8.500   3.682
34218SOL     OW 4492  12.033   7.923  13.819
34218SOL    HW1 4493  12.017   7.852  13.757
34218SOL    HW2 4494  12.051   7.879  13.902
34219SOL     OW 4495   0.060   3.801   8.689
34219SOL    HW1 4496   0.113   3.861   8.741
34219SOL    HW2 4497  14.871   3.771   8.748
34220SOL     OW 4498   8.304   6.314   8.793
34220SOL    HW1 4499   8.254   6.319   8.874
34220SOL    HW2 4500   8.244   6.345   8.726
34221SOL     OW 4501  13.467   9.493  13.175
34221SOL    HW1 4502  13.417   9.570  13.200
34221SOL    HW2 4503  13.547   9.499  13.227
34222SOL     OW 4504   2.241  12.126  11.297
34222SOL    HW1 4505   2.199  12.180  11.364
34222SOL    HW2 4506   2.300  12.186  11.251
34223SOL     OW 4507  12.545   7.036  13.736
34223SOL    HW1 4508  12.538   7.132  13.741
34223SOL    HW2 4509  12.637   7.020  13.717
34224SOL     OW 4510   3.666   0.487  11.220
34224SOL    HW1 4511   3.739   0.516  11.274
34224SOL    HW2 4512   3.611   0.565  11.210
34225SOL     OW 4513   1.159   3.885   2.900
34225SOL    HW1 4514   1.103   3.961   2.881
34225SOL    HW2 4515   1.103   3.809   2.885
34226SOL     OW 4516   5.232  10.746   2.398
34226SOL    HW1 4517   5.326  10.731   2.404
34226SOL    HW2 4518   5.195  10.660   2.376
34227SOL     OW 4519   9.911  12.727  12.257
34227SOL    HW1 4520   9.913  12.798  12.320
34227SOL    HW2 4521   9.820  12.722  12.228
34228SOL     OW 4522   6.492   2.241  12.302
34228SOL    HW1 4523   6.498   2.145  12.309
34228SOL    HW2 4524   6.452   2.256  12.217
34229SOL     OW 4525  11.952   9.781   3.142
34229SOL    HW1 4526  11.963   9.755   3.233
34229SOL    HW2 4527  11.857   9.784   3.129
34230SOL     OW 4528   1.298   0.943   9.706
34230SOL    HW1 4529   1.313   1.017   9.648
34230SOL    HW2 4530   1.274   0.983   9.790
34231SOL     OW 4531   2.805   4.650  13.351
34231SOL    HW1 4532   2.768   4.711  13.287
34231SOL    HW2 4533   2.730   4.616  13.399
34232SOL     OW 4534  14.673   3.515   3.940
34232SOL    HW1 4535  14.630   3.440   3.900
34232SOL    HW2 4536  14.761   3.515   3.902
34233SOL     OW 4537  14.782  12.541   7.930
34233SOL    HW1 4538  14.822  12.488   7.999
34233SOL    HW2 4539  14.853  12.597   7.899
34234SOL     OW 4540  12.209  12.403   7.635
34234SOL    HW1 4541  12.125  12.420   7.593
34234SOL    HW2 4542  12.260  12.483   7.620
34235SOL     OW 4543  12.818  13.344   3.648
34235SOL    HW1 4544  12.824  13.278   3.579
34235SOL    HW2 4545  12.893  13.402   3.633
34236SOL     OW 4546   4.963   9.012   6.554
34236SOL    HW1 4547   4.896   8.948   6.531
34236SOL    HW2 4548   4.914   9.088   6.585
34237SOL     OW 4549  11.885  10.798  13.142
34237SOL    HW1 4550  11.890  10.792  13.237
34237SOL    HW2 4551  11.823  10.869  13.126
34238SOL     OW 4552   1.605   6.990   7.807
34238SOL    HW1 4553   1.607   7.067   7.749
34238SOL    HW2 4554   1.690   6.948   7.793
34239SOL     OW 4555  12.150   1.156   4.039
34239SOL    HW1 4556  12.188   1.218   4.101
34239SOL    HW2 4557  12.064   1.192   4.018
34240SOL     OW 4558   2.388   7.503   2.518
34240SOL    HW1 4559   2.450   7.510   2.446
34240SOL    HW2 4560   2.307   7.471   2.478
34241SOL     OW 4561   5.394  14.530   1.539
34241SOL    HW1 4562   5.469  14.579   1.505
34241SOL    HW2 4563   5.427  14.490   1.620
34242SOL     OW 4564  13.341   8.833   1.578
34242SOL    HW1 4565  13.349   8.773   1.504
34242SOL    HW2 4566  13.248   8.855   1.581
34243SOL     OW 4567  10.789   4.141  14.513
34243SOL    HW1 4568  10.880   4.121  14.534
34243SOL    HW2 4569  10.773   4.097  14.430
34244SOL     OW 4570   5.303   8.212   1.774
34244SOL    HW1 4571   5.252   8.159   1.836
34244SOL    HW2 4572   5.393   8.184   1.788
34245SOL     OW 4573   2.591   8.600   7.323
34245SOL    HW1 4574   2.495   8.600   7.317
34245SOL    HW2 4575   2.620   8.561   7.241
34246SOL     OW 4576   8.765   2.841   1.974
34246SOL    HW1 4577   8.797   2.918   1.927
34246SOL    HW2 4578   8.670   2.846   1.967
34247SOL     OW 4579   1.036   4.791   4.660
34247SOL    HW1 4580   0.999   4.780   4.572
34247SOL    HW2 4581   0.992   4.868   4.695
34248SOL     OW 4582   1.108  10.159   5.203
34248SOL    HW1 4583   1.180  10.218   5.183
34248SOL    HW2 4584   1.148  10.073   5.210
34249SOL     OW 4585   2.558   1.440  11.343
34249SOL    HW1 4586   2.586   1.439  11.435
34249SOL    HW2 4587   2.628   1.485  11.297
34250SOL     OW 4588   9.982   5.670   2.863
34250SOL    HW1 4589   9.992   5.589   2.813
34250SOL    HW2 4590   9.956   5.642   2.951
34251SOL     OW 4591   3.767   4.704   8.258
34251SOL    HW1 4592   3.687   4.720   8.209
34251SOL    HW2 4593   3.747   4.730   8.348
34252SOL     OW 4594   2.142  14.209  12.246
34252SOL    HW1 4595   2.199  14.267  12.196
34252SOL    HW2 4596   2.108  14.264  12.317
34253SOL     OW 4597   4.988   4.374  12.248
34253SOL    HW1 4598   5.037   4.394  12.328
34253SOL    HW2 4599   5.054   4.339  12.188
34254SOL     OW 4600   9.952  11.317   8.216
34254SOL    HW1 4601   9.968  11.308   8.310
34254SOL    HW2 4602  10.038  11.310   8.176
34255SOL     OW 4603   3.338   1.628   0.352
34255SOL    HW1 4604   3.399   1.663   0.287
34255SOL    HW2 4605   3.267   1.692   0.354
34256SOL     OW 4606   6.012  13.277   1.699
34256SOL    HW1 4607   6.036  13.202   1.645
34256SOL    HW2 4608   5.948  13.325   1.646
34257SOL     OW 4609   0.671   6.328  10.356
34257SOL    HW1 4610   0.717   6.401  10.314
34257SOL    HW2 4611   0.679   6.256  10.293
34258SOL     OW 4612  12.872   7.842  12.663
34258SOL    HW1 4613  12.930   7.859  12.737
34258SOL    HW2 4614  12.880   7.920  12.608
34259SOL     OW 4615   6.499  14.784   6.731
34259SOL    HW1 4616   6.502  14.738   6.815
34259SOL    HW2 4617   6.529  14.719   6.667
34260SOL     OW 4618   7.384  13.111  13.490
34260SOL    HW1 4619   7.377  13.171  13.416
34260SOL    HW2 4620   7.456  13.053  13.467
34261SOL     OW 4621  14.594   4.534   7.836
34261SOL    HW1 4622  14.668   4.523   7.896
34261SOL    HW2 4623  14.566   4.445   7.815
34262SOL     OW 4624   2.724   0.402  10.064
34262SOL    HW1 4625   2.738   0.422  10.157
34262SOL    HW2 4626   2.803   0.433  10.021
34263SOL     OW 4627   7.833  12.991  10.575
34263SOL    HW1 4628   7.906  13.052  10.569
34263SOL    HW2 4629   7.868  12.916  10.624
34264SOL     OW 4630  10.402   4.046  10.790
34264SOL    HW1 4631  10.491   4.070  10.762
34264SOL    HW2 4632  10.349   4.122  10.765
34265SOL     OW 4633   4.442  11.988   0.239
34265SOL    HW1 4634   4.364  11.953   0.198
34265SOL    HW2 4635   4.413  12.069   0.281
34266SOL     OW 4636   6.795  13.815   1.510
34266SOL    HW1 4637   6.743  13.823   1.430
34266SOL    HW2 4638   6.786  13.900   1.553
34267SOL     OW 4639   1.403  11.925  11.460
34267SOL    HW1 4640   1.477  11.867  11.446
34267SOL    HW2 4641   1.376  11.910  11.551
34268SOL     OW 4642  13.227   7.425   5.253
34268SOL    HW1 4643  13.261   7.386   5.173
34268SOL    HW2 4644  13.186   7.351   5.300
34269SOL     OW 4645   9.258   4.446   7.389
34269SOL    HW1 4646   9.328   4.455   7.454
34269SOL    HW2 4647   9.213   4.365   7.413
34270SOL     OW 4648   0.227   9.808  10.376
34270SOL    HW1 4649   0.215   9.777  10.286
34270SOL    HW2 4650   0.322   9.802  10.391
34271SOL     OW 4651  12.145   4.413  14.131
34271SOL    HW1 4652  12.161   4.319  14.141
34271SOL    HW2 4653  12.227   4.454  14.156
34272SOL     OW 4654   8.455   3.002   4.485
34272SOL    HW1 4655   8.369   3.044   4.476
34272SOL    HW2 4656   8.509   3.043   4.418
34273SOL     OW 4657  11.779   5.635   1.620
34273SOL    HW1 4658  11.791   5.726   1.647
34273SOL    HW2 4659  11.804   5.584   1.697
34274SOL     OW 4660   5.658   8.818   1.446
34274SOL    HW1 4661   5.665   8.745   1.508
34274SOL    HW2 4662   5.566   8.816   1.418
34275SOL     OW 4663   0.095   1.634  13.696
34275SOL    HW1 4664   0.094   1.674  13.783
34275SOL    HW2 4665   0.153   1.690  13.645
34276SOL     OW 4666   6.438   9.120   5.758
34276SOL    HW1 4667   6.471   9.042   5.803
34276SOL    HW2 4668   6.511   9.148   5.702
34277SOL     OW 4669   1.147  11.409   8.487
34277SOL    HW1 4670   1.100  11.342   8.536
34277SOL    HW2 4671   1.100  11.490   8.505
34278SOL     OW 4672   8.062   1.134   7.678
34278SOL    HW1 4673   8.157   1.135   7.667
34278SOL    HW2 4674   8.044   1.211   7.732
34279SOL     OW 4675   5.707   5.185  13.995
34279SOL    HW1 4676   5.696   5.135  13.914
34279SOL    HW2 4677   5.740   5.271  13.967
34280SOL     OW 4678   0.294   7.344   0.101
34280SOL    HW1 4679   0.353   7.304   0.037
34280SOL    HW2 4680   0.215   7.364   0.051
34281SOL     OW 4681   7.590   0.071   3.673
34281SOL    HW1 4682   7.680   0.038   3.680
34281SOL    HW2 4683   7.597   0.164   3.694
34282SOL     OW 4684  12.285   2.235   5.570
34282SOL    HW1 4685  12.234   2.315   5.558
34282SOL    HW2 4686  12.236   2.167   5.524
34283SOL     OW 4687  12.952  14.423  10.657
34283SOL    HW1 4688  12.881  14.470  10.613
34283SOL    HW2 4689  12.965  14.344  10.605
34284SOL     OW 4690   6.217  11.679   8.661
34284SOL    HW1 4691   6.275  11.717   8.594
34284SOL    HW2 4692   6.253  11.710   8.744
34285SOL     OW 4693  12.095  11.216   5.643
34285SOL    HW1 4694  12.188  11.212   5.665
34285SOL    HW2 4695  12.055  11.263   5.716
34286SOL     OW 4696   9.227   4.531   7.124
34286SOL    HW1 4697   9.302   4.486   7.163
34286SOL    HW2 4698   9.156   4.519   7.187
34287SOL     OW 4699   1.607   4.201   0.203
34287SOL    HW1 4700   1.588   4.158   0.286
34287SOL    HW2 4701   1.529   4.253   0.184
34288SOL     OW 4702   9.175   8.174  13.952
34288SOL    HW1 4703   9.090   8.218  13.951
34288SOL    HW2 4704   9.201   8.175  14.044
34289SOL     OW 4705   1.143   4.997  11.705
34289SOL    HW1 4706   1.061   4.976  11.660
34289SOL    HW2 4707   1.211   4.967  11.645
34290SOL     OW 4708   7.910  10.985   3.336
34290SOL    HW1 4709   7.977  10.966   3.402
34290SOL    HW2 4710   7.960  11.008   3.258
34291SOL     OW 4711  12.243  10.432   2.768
34291SOL    HW1 4712  12.157  10.391   2.777
34291SOL    HW2 4713  12.227  10.525   2.783
34292SOL     OW 4714  11.596  13.500   8.406
34292SOL    HW1 4715  11.609  13.583   8.360
34292SOL    HW2 4716  11.507  13.472   8.382
34293SOL     OW 4717   5.924   3.290   8.921
34293SOL    HW1 4718   5.981   3.366   8.936
34293SOL    HW2 4719   5.985   3.216   8.915
34294SOL     OW 4720  13.010  12.422   3.097
34294SOL    HW1 4721  12.959  12.401   3.175
34294SOL    HW2 4722  12.974  12.506   3.068
34295SOL     OW 4723  14.405  10.651   3.491
34295SOL    HW1 4724  14.387  10.577   3.433
34295SOL    HW2 4725  14.337  10.646   3.558
34296SOL     OW 4726  14.197   2.021   3.845
34296SOL    HW1 4727  14.133   2.013   3.774
34296SOL    HW2 4728  14.148   2.062   3.916
34297SOL     OW 4729   2.662  14.736   8.326
34297SOL    HW1 4730   2.713  14.660   8.357
34297SOL    HW2 4731   2.668  14.799   8.397
34298SOL     OW 4732   5.371   7.907  12.461
34298SOL    HW1 4733   5.420   7.866  12.533
34298SOL    HW2 4734   5.438   7.930  12.397
34299SOL     OW 4735  10.358  11.395   1.278
34299SOL    HW1 4736  10.296  11.323   1.277
34299SOL    HW2 4737  10.328  11.452   1.349
34300SOL     OW 4738  14.606  10.882   6.841
34300SOL    HW1 4739  14.586  10.832   6.761
34300SOL    HW2 4740  14.666  10.951   6.811
34301SOL     OW 4741   3.985   2.393   7.668
34301SOL    HW1 4742   3.910   2.433   7.712
34301SOL    HW2 4743   4.056   2.456   7.677
34302SOL     OW 4744   2.318   7.027   8.121
34302SOL    HW1 4745   2.399   6.998   8.162
34302SOL    HW2 4746   2.265   6.947   8.114
34303SOL     OW 4747  11.860  13.726  11.988
34303SOL    HW1 4748  11.888  13.677  12.066
34303SOL    HW2 4749  11.942  13.745  11.941
34304SOL     OW 4750  11.988   0.613   2.609
34304SOL    HW1 4751  12.001   0.519   2.597
34304SOL    HW2 4752  11.933   0.640   2.535
34305SOL     OW 4753  13.122   1.398   9.000
34305SOL    HW1 4754  13.124   1.377   9.094
34305SOL    HW2 4755  13.028   1.401   8.979
34306SOL     OW 4756  14.339  11.187  14.634
34306SOL    HW1 4757  14.284  11.265  14.629
34306SOL    HW2 4758  14.287  11.124  14.683
34307SOL     OW 4759   4.186   1.267   6.711
34307SOL    HW1 4760   4.216   1.294   6.798
34307SOL    HW2 4761   4.247   1.198   6.685
34308SOL     OW 4762   6.744   2.190   4.386
34308SOL    HW1 4763   6.816   2.198   4.323
34308SOL    HW2 4764   6.705   2.105   4.368
34309SOL     OW 4765   2.718   3.055  10.906
34309SOL    HW1 4766   2.723   3.024  10.816
34309SOL    HW2 4767   2.661   3.131  10.902
34310SOL     OW 4768   8.072  13.494   1.726
34310SOL    HW1 4769   8.073  13.402   1.753
34310SOL    HW2 4770   7.993  13.530   1.765
34311SOL     OW 4771   7.924   3.444   1.402
34311SOL    HW1 4772   7.866   3.447   1.326
34311SOL    HW2 4773   8.008   3.415   1.365
34312SOL     OW 4774   5.717   7.806   4.690
34312SOL    HW1 4775   5.625   7.782   4.678
34312SOL    HW2 4776   5.751   7.743   4.753
34313SOL     OW 4777   2.482   1.922   5.359
34313SOL    HW1 4778   2.544   1.984   5.397
34313SOL    HW2 4779   2.485   1.940   5.265
34314SOL     OW 4780   6.341  13.614   9.370
34314SOL    HW1 4781   6.426  13.652   9.348
34314SOL    HW2 4782   6.279  13.663   9.316
34315SOL     OW 4783  14.694   5.747   6.594
34315SOL    HW1 4784  14.753   5.744   6.519
34315SOL    HW2 4785  14.627   5.810   6.568
34316SOL     OW 4786   3.876   7.378  10.852
34316SOL    HW1 4787   3.818   7.380  10.776
34316SOL    HW2 4788   3.858   7.294  10.894
34317SOL     OW 4789   8.281   2.745  11.044
34317SOL    HW1 4790   8.287   2.797  11.124
34317SOL    HW2 4791   8.250   2.807  10.978
34318SOL     OW 4792   3.278   6.673   1.845
34318SOL    HW1 4793   3.355   6.727   1.827
34318SOL    HW2 4794   3.206   6.720   1.803
34319SOL     OW 4795   1.044  13.170  11.354
34319SOL    HW1 4796   1.115  13.208  11.406
34319SOL    HW2 4797   1.024  13.088  11.398
34320SOL     OW 4798  10.950  14.727   7.484
34320SOL    HW1 4799  10.959  14.783   7.562
34320SOL    HW2 4800  11.031  14.676   7.481
34321SOL     OW 4801   4.560   0.316   2.671
34321SOL    HW1 4802   4.588   0.267   2.594
34321SOL    HW2 4803   4.482   0.363   2.642
34322SOL     OW 4804  14.138   6.299  12.852
34322SOL    HW1 4805  14.169   6.210  12.867
34322SOL    HW2 4806  14.157   6.315  12.759
34323SOL     OW 4807   4.047  14.004   7.754
34323SOL    HW1 4808   4.046  13.915   7.789
34323SOL    HW2 4809   3.994  14.000   7.675
34324SOL     OW 4810   7.687   8.594   4.736
34324SOL    HW1 4811   7.663   8.501   4.737
34324SOL    HW2 4812   7.665   8.625   4.824
34325SOL     OW 4813   9.715   7.849   8.825
34325SOL    HW1 4814   9.742   7.852   8.734
34325SOL    HW2 4815   9.715   7.756   8.847
34326SOL     OW 4816  10.913   7.508  11.232
34326SOL    HW1 4817  10.866   7.561  11.168
34326SOL    HW2 4818  10.924   7.423  11.189
34327SOL     OW 4819  10.240   5.493   5.955
34327SOL    HW1 4820  10.273   5.548   6.026
34327SOL    HW2 4821  10.223   5.554   5.883
34328SOL     OW 4822  14.259   1.867   6.328
34328SOL    HW1 4823  14.295   1.895   6.244
34328SOL    HW2 4824  14.314   1.910   6.394
34329SOL     OW 4825   1.773   6.958   4.068
34329SOL    HW1 4826   1.708   6.927   4.005
34329SOL    HW2 4827   1.818   6.879   4.098
34330SOL     OW 4828   6.257   1.641   9.283
34330SOL    HW1 4829   6.267   1.547   9.268
34330SOL    HW2 4830   6.163   1.657   9.272
34331SOL     OW 4831   3.508   6.544  14.002
34331SOL    HW1 4832   3.508   6.637  13.982
34331SOL    HW2 4833   3.421   6.513  13.977
34332SOL     OW 4834  10.693   4.534  14.607
34332SOL    HW1 4835  10.651   4.463  14.656
34332SOL    HW2 4836  10.628   4.558  14.540
34333SOL     OW 4837   2.758   6.118  13.255
34333SOL    HW1 4838   2.803   6.130  13.339
34333SOL    HW2 4839   2.828   6.097  13.193
34334SOL     OW 4840  10.376   7.608   3.452
34334SOL    HW1 4841  10.329   7.687   3.479
34334SOL    HW2 4842  10.343   7.589   3.364
34335SOL     OW 4843  14.787  10.470   2.779
34335SOL    HW1 4844   0.001  10.457   2.764
34335SOL    HW2 4845  14.751  10.481   2.691
34336SOL     OW 4846  12.291   6.157   5.173
34336SOL    HW1 4847  12.265   6.211   5.248
34336SOL    HW2 4848  12.329   6.220   5.112
34337SOL     OW 4849  14.497   7.468  12.111
34337SOL    HW1 4850  14.554   7.546  12.112
34337SOL    HW2 4851  14.409   7.503  12.126
34338SOL     OW 4852   1.540   5.313   5.445
34338SOL    HW1 4853   1.620   5.316   5.392
34338SOL    HW2 4854   1.558   5.247   5.512
34339SOL     OW 4855   1.503  12.227  11.743
34339SOL    HW1 4856   1.486  12.133  11.751
34339SOL    HW2 4857   1.507  12.259  11.834
34340SOL     OW 4858   3.953  12.374  14.611
34340SOL    HW1 4859   3.958  12.434  14.536
34340SOL    HW2 4860   4.028  12.398  14.665
34341SOL     OW 4861   9.294  10.246   3.772
34341SOL    HW1 4862   9.294  10.159   3.814
34341SOL    HW2 4863   9.214  10.247   3.720
34342SOL     OW 4864  13.442   3.858   2.945
34342SOL    HW1 4865  13.481   3.867   2.858
34342SOL    HW2 4866  13.417   3.766   2.950
34343SOL     OW 4867   6.472  14.607  11.444
34343SOL    HW1 4868   6.519  14.524  11.435
34343SOL    HW2 4869   6.384  14.582  11.473
34344SOL     OW 4870   3.506   1.402  13.969
34344SOL    HW1 4871   3.564   1.327  13.986
34344SOL    HW2 4872   3.420   1.373  14.000
34345SOL     OW 4873  11.374   9.834   1.811
34345SOL    HW1 4874  11.309   9.898   1.782
34345SOL    HW2 4875  11.422   9.811   1.731
34346SOL     OW 4876   3.667   3.555  14.410
34346SOL    HW1 4877   3.584   3.572  14.454
34346SOL    HW2 4878   3.726   3.623  14.442
34347SOL     OW 4879   1.495   6.570   5.017
34347SOL    HW1 4880   1.461   6.498   4.963
34347SOL    HW2 4881   1.585   6.581   4.988
34348SOL     OW 4882   0.105   6.359  11.409
34348SOL    HW1 4883   0.159   6.287  11.376
34348SOL    HW2 4884   0.017   6.322  11.416
34349SOL     OW 4885   7.907   3.108   9.314
34349SOL    HW1 4886   7.995   3.071   9.303
34349SOL    HW2 4887   7.883   3.086   9.404
34350SOL     OW 4888   1.160   9.332   8.353
34350SOL    HW1 4889   1.250   9.302   8.345
34350SOL    HW2 4890   1.107   9.254   8.335
34351SOL     OW 4891   1.806   6.648   6.823
34351SOL    HW1 4892   1.775   6.723   6.874
34351SOL    HW2 4893   1.841   6.687   6.742
34352SOL     OW 4894  13.099   3.340  11.656
34352SOL    HW1 4895  13.095   3.434  11.638
34352SOL    HW2 4896  13.107   3.300  11.570
34353SOL     OW 4897   6.729   8.307   2.504
34353SOL    HW1 4898   6.773   8.283   2.423
34353SOL    HW2 4899   6.743   8.401   2.513
34354SOL     OW 4900  14.304   2.703   1.653
34354SOL    HW1 4901  14.217   2.724   1.686
34354SOL    HW2 4902  14.300   2.609   1.635
34355SOL     OW 4903  13.116   5.429  11.956
34355SOL    HW1 4904  13.175   5.504  11.967
34355SOL    HW2 4905  13.174   5.353  11.953
34356SOL     OW 4906  10.972   7.046  12.257
34356SOL    HW1 4907  10.952   7.055  12.350
34356SOL    HW2 4908  11.067   7.052  12.251
34357SOL     OW 4909  12.957   3.077   4.208
34357SOL    HW1 4910  13.011   3.043   4.137
34357SOL    HW2 4911  12.869   3.044   4.189
34358SOL     OW 4912   8.391   3.029   4.747
34358SOL    HW1 4913   8.439   3.024   4.664
34358SOL    HW2 4914   8.332   2.953   4.744
34359SOL     OW 4915   3.667   9.678   6.026
34359SOL    HW1 4916   3.692   9.586   6.019
34359SOL    HW2 4917   3.663   9.709   5.935
34360SOL     OW 4918  10.911   0.461  12.163
34360SOL    HW1 4919  10.961   0.383  12.187
34360SOL    HW2 4920  10.959   0.534  12.202
34361SOL     OW 4921   6.961  10.755   3.488
34361SOL    HW1 4922   6.950  10.669   3.448
34361SOL    HW2 4923   6.907  10.752   3.567
34362SOL     OW 4924   9.189  10.825   4.987
34362SOL    HW1 4925   9.198  10.745   5.040
34362SOL    HW2 4926   9.270  10.873   5.003
34363SOL     OW 4927   8.506   9.840   1.720
34363SOL    HW1 4928   8.451   9.919   1.722
34363SOL    HW2 4929   8.444   9.768   1.706
34364SOL     OW 4930   5.638   9.241   7.785
34364SOL    HW1 4931   5.647   9.230   7.691
34364SOL    HW2 4932   5.553   9.283   7.797
34365SOL     OW 4933   9.130  13.847   6.155
34365SOL    HW1 4934   9.157  13.884   6.239
34365SOL    HW2 4935   9.203  13.791   6.128
34366SOL     OW 4936   5.800   1.370  12.472
34366SOL    HW1 4937   5.741   1.295  12.473
34366SOL    HW2 4938   5.752   1.440  12.517
34367SOL     OW 4939   7.190  12.725  14.718
34367SOL    HW1 4940   7.104  12.726  14.761
34367SOL    HW2 4941   7.186  12.650  14.659
34368SOL     OW 4942  13.291   9.395   9.870
34368SOL    HW1 4943  13.241   9.471   9.900
34368SOL    HW2 4944  13.271   9.388   9.777
34369SOL     OW 4945   9.267   5.290   9.991
34369SOL    HW1 4946   9.326   5.335   9.931
34369SOL    HW2 4947   9.325   5.234  10.044
34370SOL     OW 4948   8.799   5.063  11.020
34370SOL    HW1 4949   8.868   5.012  11.062
34370SOL    HW2 4950   8.800   5.033  10.929
34371SOL     OW 4951   4.924  14.368   8.132
34371SOL    HW1 4952   4.875  14.361   8.050
34371SOL    HW2 4953   5.015  14.381   8.105
34372SOL     OW 4954   8.247   4.241  12.412
34372SOL    HW1 4955   8.224   4.312  12.472
34372SOL    HW2 4956   8.272   4.169  12.470
34373SOL     OW 4957   7.795  10.300   0.239
34373SOL    HW1 4958   7.747  10.279   0.159
34373SOL    HW2 4959   7.772  10.229   0.299
34374SOL     OW 4960   8.769   5.513   2.451
34374SOL    HW1 4961   8.753   5.423   2.423
34374SOL    HW2 4962   8.861   5.529   2.429
34375SOL     OW 4963   7.405   6.034   2.459
34375SOL    HW1 4964   7.356   6.108   2.424
34375SOL    HW2 4965   7.436   5.987   2.382
34376SOL     OW 4966   5.028   9.943   0.799
34376SOL    HW1 4967   5.043  10.026   0.754
34376SOL    HW2 4968   4.988   9.967   0.883
34377SOL     OW 4969  12.960  12.114  13.277
34377SOL    HW1 4970  13.021  12.182  13.304
34377SOL    HW2 4971  12.890  12.161  13.232
34378SOL     OW 4972   4.167  13.126  11.603
34378SOL    HW1 4973   4.254  13.143  11.641
34378SOL    HW2 4974   4.166  13.178  11.522
34379SOL     OW 4975   9.442   3.021   8.781
34379SOL    HW1 4976   9.379   3.070   8.835
34379SOL    HW2 4977   9.458   3.077   8.705
34380SOL     OW 4978   9.032   9.473  12.718
34380SOL    HW1 4979   9.112   9.427  12.743
34380SOL    HW2 4980   9.007   9.435  12.634
34381SOL     OW 4981   0.778  10.764  13.176
34381SOL    HW1 4982   0.817  10.741  13.092
34381SOL    HW2 4983   0.852  10.784  13.232
34382SOL     OW 4984   4.727   7.504  11.658
34382SOL    HW1 4985   4.694   7.480  11.744
34382SOL    HW2 4986   4.788   7.433  11.635
34383SOL     OW 4987   3.400   7.241   2.072
34383SOL    HW1 4988   3.329   7.301   2.097
34383SOL    HW2 4989   3.366   7.194   1.995
34384SOL     OW 4990  13.653  13.435  10.885
34384SOL    HW1 4991  13.674  13.520  10.846
34384SOL    HW2 4992  13.673  13.445  10.978
34385SOL     OW 4993  12.870   4.832   3.153
34385SOL    HW1 4994  12.960   4.800   3.154
34385SOL    HW2 4995  12.868   4.900   3.086
34386SOL     OW 4996   6.724  13.208   6.565
34386SOL    HW1 4997   6.642  13.219   6.613
34386SOL    HW2 4998   6.761  13.296   6.559
34387SOL     OW 4999   6.805   6.057   2.516
34387SOL    HW1 5000   6.879   6.116   2.500
34387SOL    HW2 5001   6.729   6.104   2.483
34388SOL     OW 5002   1.200   0.692  12.315
34388SOL    HW1 5003   1.291   0.715  12.336
34388SOL    HW2 5004   1.154   0.776  12.312
34389SOL     OW 5005   5.579  13.899  13.803
34389SOL    HW1 5006   5.620  13.889  13.889
34389SOL    HW2 5007   5.641  13.951  13.753
34390SOL     OW 5008   3.105   5.661   9.999
34390SOL    HW1 5009   3.023   5.613   9.988
34390SOL    HW2 5010   3.096   5.703  10.085
34391SOL     OW 5011  10.668   9.920   8.486
34391SOL    HW1 5012  10.721   9.840   8.487
34391SOL    HW2 5013  10.719   9.983   8.537
34392SOL     OW 5014   9.038  13.405  13.304
34392SOL    HW1 5015   9.014  13.463  13.376
34392SOL    HW2 5016   9.121  13.367  13.332
34393SOL     OW 5017   1.024   2.131  13.469
34393SOL    HW1 5018   1.086   2.166  13.533
34393SOL    HW2 5019   1.069   2.055  13.432
34394SOL     OW 5020   9.493   0.907   2.391
34394SOL    HW1 5021   9.584   0.878   2.391
34394SOL    HW2 5022   9.497   1.002   2.380
34395SOL     OW 5023   5.612   9.533  12.757
34395SOL    HW1 5024   5.554   9.577  12.819
34395SOL    HW2 5025   5.609   9.441  12.782
34396SOL     OW 5026   2.380  11.964   1.275
34396SOL    HW1 5027   2.362  12.058   1.282
34396SOL    HW2 5028   2.464  11.959   1.229
34397SOL     OW 5029   3.116   0.739   9.583
34397SOL    HW1 5030   3.039   0.699   9.543
34397SOL    HW2 5031   3.187   0.721   9.521
34398SOL     OW 5032   7.144   7.451  13.573
34398SOL    HW1 5033   7.065   7.439  13.519
34398SOL    HW2 5034   7.180   7.363  13.582
34399SOL     OW 5035  10.571   0.089   5.490
34399SOL    HW1 5036  10.634   0.053   5.428
34399SOL    HW2 5037  10.592   0.183   5.493
34400SOL     OW 5038   0.568   9.964   4.970
34400SOL    HW1 5039   0.557   9.884   4.919
34400SOL    HW2 5040   0.591  10.031   4.905
34401SOL     OW 5041  12.913   6.384   9.133
34401SOL    HW1 5042  12.995   6.376   9.084
34401SOL    HW2 5043  12.926   6.329   9.211
34402SOL     OW 5044  12.849  11.302  12.958
34402SOL    HW1 5045  12.819  11.366  12.893
34402SOL    HW2 5046  12.935  11.275  12.927
34403SOL     OW 5047  12.608  11.636   5.585
34403SOL    HW1 5048  12.645  11.722   5.564
34403SOL    HW2 5049  12.681  11.576   5.577
34404SOL     OW 5050  10.978   2.973   1.616
34404SOL    HW1 5051  10.883   2.985   1.616
34404SOL    HW2 5052  10.991   2.884   1.582
34405SOL     OW 5053   9.028   2.088  13.577
34405SOL    HW1 5054   9.066   2.106  13.491
34405SOL    HW2 5055   8.952   2.032  13.558
34406SOL     OW 5056  11.670  14.349  12.214
34406SOL    HW1 5057  11.635  14.271  12.258
34406SOL    HW2 5058  11.765  14.343  12.228
34407SOL     OW 5059   3.244   8.651  11.903
34407SOL    HW1 5060   3.318   8.701  11.938
34407SOL    HW2 5061   3.257   8.562  11.935
34408SOL     OW 5062   5.070   2.866  13.647
34408SOL    HW1 5063   5.103   2.915  13.572
34408SOL    HW2 5064   4.979   2.846  13.625
34409SOL     OW 5065  12.644   2.764   2.185
34409SOL    HW1 5066  12.685   2.726   2.107
34409SOL    HW2 5067  12.690   2.725   2.258
34410SOL     OW 5068  11.342   9.010   0.275
34410SOL    HW1 5069  11.381   8.952   0.210
34410SOL    HW2 5070  11.278   9.062   0.226
34411SOL     OW 5071  14.387   7.534  11.455
34411SOL    HW1 5072  14.317   7.565  11.397
34411SOL    HW2 5073  14.426   7.460  11.407
34412SOL     OW 5074   0.006  13.697  13.916
34412SOL    HW1 5075  14.805  13.726  13.874
34412SOL    HW2 5076  14.871  13.604  13.936
34413SOL     OW 5077   7.264   4.036   2.180
34413SOL    HW1 5078   7.285   4.094   2.253
34413SOL    HW2 5079   7.335   4.050   2.117
34414SOL     OW 5080   4.805   3.665   7.635
34414SOL    HW1 5081   4.776   3.590   7.583
34414SOL    HW2 5082   4.829   3.627   7.720
34415SOL     OW 5083  11.152   7.396   4.428
34415SOL    HW1 5084  11.061   7.424   4.428
34415SOL    HW2 5085  11.159   7.332   4.499
34416SOL     OW 5086   5.666  14.005   9.901
34416SOL    HW1 5087   5.752  14.013   9.942
34416SOL    HW2 5088   5.682  14.021   9.808
34417SOL     OW 5089   4.971  11.914   5.551
34417SOL    HW1 5090   5.040  11.850   5.569
34417SOL    HW2 5091   5.012  11.978   5.493
34418SOL     OW 5092  14.196   0.514   4.378
34418SOL    HW1 5093  14.188   0.536   4.285
34418SOL    HW2 5094  14.154   0.429   4.386
34419SOL     OW 5095  11.350  10.905  10.091
34419SOL    HW1 5096  11.389  10.824  10.124
34419SOL    HW2 5097  11.357  10.966  10.164
34420SOL     OW 5098   2.929  12.056   9.434
34420SOL    HW1 5099   2.949  12.012   9.516
34420SOL    HW2 5100   3.008  12.106   9.414
34421SOL     OW 5101  14.445   7.261  11.487
34421SOL    HW1 5102  14.391   7.307  11.552
34421SOL    HW2 5103  14.533   7.294  11.503
34422SOL     OW 5104  10.614   1.967  10.989
34422SOL    HW1 5105  10.520   1.983  10.998
34422SOL    HW2 5106  10.622   1.908  10.914
34423SOL     OW 5107   3.118   4.249  11.530
34423SOL    HW1 5108   3.206   4.243  11.568
34423SOL    HW2 5109   3.134   4.280  11.440
34424SOL     OW 5110   0.289  13.107  14.093
34424SOL    HW1 5111   0.303  13.017  14.121
34424SOL    HW2 5112   0.205  13.131  14.133
34425SOL     OW 5113   2.127   8.453  13.653
34425SOL    HW1 5114   2.094   8.454  13.563
34425SOL    HW2 5115   2.220   8.475  13.644
34426SOL     OW 5116   1.020   7.215   1.035
34426SOL    HW1 5117   1.055   7.170   1.113
34426SOL    HW2 5118   1.033   7.153   0.964
34427SOL     OW 5119  13.257   5.905  14.118
34427SOL    HW1 5120  13.236   5.917  14.211
34427SOL    HW2 5121  13.351   5.886  14.117
34428SOL     OW 5122   8.753   2.498   7.660
34428SOL    HW1 5123   8.731   2.591   7.673
34428SOL    HW2 5124   8.713   2.475   7.576
34429SOL     OW 5125   0.688   3.528  13.558
34429SOL    HW1 5126   0.645   3.539  13.473
34429SOL    HW2 5127   0.735   3.445  13.550
34430SOL     OW 5128   6.354  12.257  10.068
34430SOL    HW1 5129   6.419  12.271  10.137
34430SOL    HW2 5130   6.270  12.258  10.113
34431SOL     OW 5131  10.862   8.121   3.552
34431SOL    HW1 5132  10.823   8.034   3.547
34431SOL    HW2 5133  10.805   8.176   3.500
34432SOL     OW 5134   6.944  10.111   3.053
34432SOL    HW1 5135   6.871  10.170   3.071
34432SOL    HW2 5136   6.912  10.025   3.080
34433SOL     OW 5137   9.942  14.342   6.803
34433SOL    HW1 5138   9.959  14.364   6.894
34433SOL    HW2 5139  10.001  14.399   6.753
34434SOL     OW 5140   3.572  14.809  12.908
34434SOL    HW1 5141   3.653  14.850  12.938
34434SOL    HW2 5142   3.518   0.002  12.876
34435SOL     OW 5143   9.551  10.761   9.262
34435SOL    HW1 5144   9.478  10.726   9.313
34435SOL    HW2 5145   9.528  10.742   9.171
34436SOL     OW 5146  13.923  11.344   4.881
34436SOL    HW1 5147  13.864  11.340   4.956
34436SOL    HW2 5148  13.899  11.267   4.828
34437SOL     OW 5149   3.941  10.292   8.679
34437SOL    HW1 5150   3.870  10.353   8.696
34437SOL    HW2 5151   3.930  10.267   8.587
34438SOL     OW 5152  14.592   9.310  12.528
34438SOL    HW1 5153  14.571   9.387  12.581
34438SOL    HW2 5154  14.510   9.287  12.485
34439SOL     OW 5155   7.412  14.238   6.765
34439SOL    HW1 5156   7.506  14.242   6.782
34439SOL    HW2 5157   7.377  14.188   6.839
34440SOL     OW 5158  12.899  12.125   4.361
34440SOL    HW1 5159  12.988  12.089   4.356
34440SOL    HW2 5160  12.907  12.213   4.324
34441SOL     OW 5161   3.320  13.925   1.021
34441SOL    HW1 5162   3.262  13.852   0.999
34441SOL    HW2 5163   3.393  13.916   0.960
34442SOL     OW 5164  10.645   4.812   2.893
34442SOL    HW1 5165  10.693   4.762   2.828
34442SOL    HW2 5166  10.661   4.766   2.976
34443SOL     OW 5167   9.351   4.411  13.791
34443SOL    HW1 5168   9.416   4.417  13.721
34443SOL    HW2 5169   9.298   4.335  13.767
34444SOL     OW 5170   7.405  13.284   0.049
34444SOL    HW1 5171   7.406  13.207   0.105
34444SOL    HW2 5172   7.325  13.274  14.876
34445SOL     OW 5173   1.873   5.366   0.271
34445SOL    HW1 5174   1.926   5.302   0.318
34445SOL    HW2 5175   1.829   5.417   0.339
34446SOL     OW 5176  12.973  13.687   5.090
34446SOL    HW1 5177  12.942  13.745   5.021
34446SOL    HW2 5178  13.024  13.743   5.148
34447SOL     OW 5179   8.854   0.176  11.516
34447SOL    HW1 5180   8.944   0.209  11.521
34447SOL    HW2 5181   8.859   0.085  11.546
34448SOL     OW 5182   0.080   1.542  12.166
34448SOL    HW1 5183   0.126   1.593  12.099
34448SOL    HW2 5184   0.150   1.512  12.225
34449SOL     OW 5185   6.515   8.658   6.758
34449SOL    HW1 5186   6.510   8.610   6.675
34449SOL    HW2 5187   6.596   8.709   6.750
34450SOL     OW 5188   5.793   6.411  10.785
34450SOL    HW1 5189   5.884   6.389  10.802
34450SOL    HW2 5190   5.782   6.397  10.690
34451SOL     OW 5191   8.028   1.851  11.388
34451SOL    HW1 5192   8.112   1.897  11.382
34451SOL    HW2 5193   7.982   1.893  11.461
34452SOL     OW 5194   6.423   9.717   7.569
34452SOL    HW1 5195   6.434   9.792   7.628
34452SOL    HW2 5196   6.445   9.751   7.482
34453SOL     OW 5197   7.243   7.100  14.603
34453SOL    HW1 5198   7.228   7.049  14.523
34453SOL    HW2 5199   7.156   7.105  14.643
34454SOL     OW 5200  12.308   3.296  11.634
34454SOL    HW1 5201  12.285   3.208  11.602
34454SOL    HW2 5202  12.404   3.292  11.644
34455SOL     OW 5203   6.505  11.553  10.874
34455SOL    HW1 5204   6.465  11.529  10.958
34455SOL    HW2 5205   6.472  11.488  10.812
34456SOL     OW 5206  11.361   9.008   6.180
34456SOL    HW1 5207  11.431   8.945   6.198
34456SOL    HW2 5208  11.406   9.091   6.167
34457SOL     OW 5209  14.453   5.320   3.789
34457SOL    HW1 5210  14.483   5.229   3.795
34457SOL    HW2 5211  14.358   5.315   3.796
34458SOL     OW 5212  11.264   2.271  14.125
34458SOL    HW1 5213  11.312   2.188  14.118
34458SOL    HW2 5214  11.320   2.335  14.082
34459SOL     OW 5215  13.076  10.786   5.128
34459SOL    HW1 5216  13.098  10.699   5.159
34459SOL    HW2 5217  12.982  10.794   5.143
34460SOL     OW 5218  13.406   5.457   7.408
34460SOL    HW1 5219  13.444   5.542   7.430
34460SOL    HW2 5220  13.312   5.467   7.425
34461SOL     OW 5221   5.414   2.025   5.491
34461SOL    HW1 5222   5.417   2.105   5.438
34461SOL    HW2 5223   5.329   2.028   5.535
34462SOL     OW 5224   5.337  10.422   7.916
34462SOL    HW1 5225   5.399  10.490   7.941
34462SOL    HW2 5226   5.251  10.466   7.920
34463SOL     OW 5227   5.615  12.352   2.830
34463SOL    HW1 5228   5.652  12.432   2.793
34463SOL    HW2 5229   5.555  12.382   2.898
34464SOL     OW 5230   7.382   1.108  12.756
34464SOL    HW1 5231   7.368   1.166  12.830
34464SOL    HW2 5232   7.477   1.110  12.741
34465SOL     OW 5233   0.328   7.976   3.301
34465SOL    HW1 5234   0.298   7.985   3.392
34465SOL    HW2 5235   0.408   7.923   3.308
34466SOL     OW 5236   7.623   4.972  12.215
34466SOL    HW1 5237   7.631   5.051  12.161
34466SOL    HW2 5238   7.713   4.953  12.242
34467SOL     OW 5239   7.720  12.019   7.852
34467SOL    HW1 5240   7.732  12.114   7.851
34467SOL    HW2 5241   7.652  12.004   7.919
34468SOL     OW 5242   0.682   3.529   7.650
34468SOL    HW1 5243   0.605   3.479   7.621
34468SOL    HW2 5244   0.671   3.535   7.745
34469SOL     OW 5245   6.454   5.389   3.093
34469SOL    HW1 5246   6.441   5.298   3.065
34469SOL    HW2 5247   6.366   5.425   3.099
34470SOL     OW 5248   3.543  10.740   9.025
34470SOL    HW1 5249   3.564  10.794   8.949
34470SOL    HW2 5250   3.582  10.785   9.099
34471SOL     OW 5251   9.749  11.027   6.820
34471SOL    HW1 5252   9.808  11.019   6.745
34471SOL    HW2 5253   9.799  10.991   6.893
34472SOL     OW 5254  11.233   9.778   3.035
34472SOL    HW1 5255  11.271   9.823   3.111
34472SOL    HW2 5256  11.184   9.847   2.990
34473SOL     OW 5257   1.474  12.511   9.899
34473SOL    HW1 5258   1.409  12.457   9.854
34473SOL    HW2 5259   1.424  12.586   9.932
34474SOL     OW 5260   4.974  11.448   4.446
34474SOL    HW1 5261   5.014  11.416   4.365
34474SOL    HW2 5262   4.886  11.475   4.420
34475SOL     OW 5263   5.166   4.224  12.084
34475SOL    HW1 5264   5.100   4.173  12.037
34475SOL    HW2 5265   5.223   4.159  12.124
34476SOL     OW 5266   4.049   4.331  14.224
34476SOL    HW1 5267   4.124   4.274  14.213
34476SOL    HW2 5268   3.986   4.301  14.158
34477SOL     OW 5269   4.834   7.968   1.991
34477SOL    HW1 5270   4.766   7.978   2.058
34477SOL    HW2 5271   4.905   8.024   2.021
34478SOL     OW 5272  14.100   1.618   2.987
34478SOL    HW1 5273  14.160   1.685   3.021
34478SOL    HW2 5274  14.147   1.536   3.002
34479SOL     OW 5275   7.858   6.379  12.294
34479SOL    HW1 5276   7.801   6.419  12.360
34479SOL    HW2 5277   7.872   6.290  12.325
34480SOL     OW 5278  13.935  14.536   4.809
34480SOL    HW1 5279  13.930  14.475   4.883
34480SOL    HW2 5280  13.908  14.620   4.845
34481SOL     OW 5281  10.841  10.147   4.537
34481SOL    HW1 5282  10.848  10.081   4.468
34481SOL    HW2 5283  10.868  10.102   4.617
34482SOL     OW 5284   3.334   2.016   5.537
34482SOL    HW1 5285   3.379   2.071   5.601
34482SOL    HW2 5286   3.322   2.072   5.460
34483SOL     OW 5287   0.917  12.124   7.872
34483SOL    HW1 5288   0.884  12.034   7.880
34483SOL    HW2 5289   0.868  12.174   7.937
34484SOL     OW 5290  12.972   9.924  13.427
34484SOL    HW1 5291  12.939   9.995  13.372
34484SOL    HW2 5292  12.896   9.870  13.446
34485SOL     OW 5293   0.453   9.824   5.178
34485SOL    HW1 5294   0.498   9.876   5.112
34485SOL    HW2 5295   0.369   9.867   5.190
34486SOL     OW 5296  14.688   4.957   5.678
34486SOL    HW1 5297  14.703   4.970   5.584
34486SOL    HW2 5298  14.761   5.001   5.721
34487SOL     OW 5299  10.709   0.708  12.898
34487SOL    HW1 5300  10.791   0.755  12.911
34487SOL    HW2 5301  10.703   0.695  12.803
34488SOL     OW 5302   5.538   6.404   0.289
34488SOL    HW1 5303   5.574   6.417   0.377
34488SOL    HW2 5304   5.587   6.330   0.253
34489SOL     OW 5305   0.878   4.183   9.554
34489SOL    HW1 5306   0.799   4.223   9.590
34489SOL    HW2 5307   0.849   4.099   9.518
34490SOL     OW 5308   8.678   8.176   9.579
34490SOL    HW1 5309   8.638   8.262   9.589
34490SOL    HW2 5310   8.630   8.120   9.641
34491SOL     OW 5311   6.043   2.115   0.607
34491SOL    HW1 5312   6.052   2.020   0.615
34491SOL    HW2 5313   5.964   2.136   0.657
34492SOL     OW 5314   2.427   9.152   8.697
34492SOL    HW1 5315   2.356   9.139   8.634
34492SOL    HW2 5316   2.439   9.247   8.701
34493SOL     OW 5317   5.513   4.519  10.851
34493SOL    HW1 5318   5.591   4.485  10.894
34493SOL    HW2 5319   5.441   4.467  10.886
34494SOL     OW 5320  12.966   6.777   5.080
34494SOL    HW1 5321  12.997   6.755   5.168
34494SOL    HW2 5322  12.886   6.828   5.095
34495SOL     OW 5323   5.096  13.402  11.746
34495SOL    HW1 5324   5.113  13.312  11.719
34495SOL    HW2 5325   5.075  13.448  11.665
34496SOL     OW 5326   8.669   5.381  10.833
34496SOL    HW1 5327   8.618   5.407  10.910
34496SOL    HW2 5328   8.648   5.446  10.767
34497SOL     OW 5329   2.412   5.656   9.468
34497SOL    HW1 5330   2.499   5.686   9.492
34497SOL    HW2 5331   2.376   5.726   9.414
34498SOL     OW 5332  11.931   0.729  14.025
34498SOL    HW1 5333  11.991   0.721  14.099
34498SOL    HW2 5334  11.947   0.817  13.991
34499SOL     OW 5335   7.887  11.601   3.705
34499SOL    HW1 5336   7.857  11.692   3.709
34499SOL    HW2 5337   7.966  11.605   3.650
34500SOL     OW 5338  13.747  11.778   8.890
34500SOL    HW1 5339  13.838  11.749   8.890
34500SOL    HW2 5340  13.719  11.771   8.982
34501SOL     OW 5341   9.268   1.752   7.426
34501SOL    HW1 5342   9.319   1.754   7.507
34501SOL    HW2 5343   9.329   1.781   7.358
34502SOL     OW 5344  12.913   5.677  14.471
34502SOL    HW1 5345  12.987   5.638  14.516
34502SOL    HW2 5346  12.908   5.632  14.387
34503SOL     OW 5347  14.678  13.578   4.107
34503SOL    HW1 5348  14.717  13.491   4.102
34503SOL    HW2 5349  14.635  13.590   4.022
34504SOL     OW 5350   4.889  11.199   0.744
34504SOL    HW1 5351   4.959  11.197   0.810
34504SOL    HW2 5352   4.840  11.278   0.765
34505SOL     OW 5353   0.819  12.110   8.675
34505SOL    HW1 5354   0.865  12.182   8.717
34505SOL    HW2 5355   0.729  12.118   8.706
34506SOL     OW 5356   4.169   2.621  11.066
34506SOL    HW1 5357   4.258   2.609  11.034
34506SOL    HW2 5358   4.170   2.708  11.107
34507SOL     OW 5359   5.560  11.983   3.905
34507SOL    HW1 5360   5.546  12.042   3.979
34507SOL    HW2 5361   5.636  11.931   3.931
34508SOL     OW 5362  10.231   4.819  10.050
34508SOL    HW1 5363  10.200   4.733  10.018
34508SOL    HW2 5364  10.316   4.830  10.009
34509SOL     OW 5365   6.822  12.390   6.661
34509SOL    HW1 5366   6.874  12.464   6.694
34509SOL    HW2 5367   6.742  12.430   6.628
34510SOL     OW 5368   6.307   5.140  10.132
34510SOL    HW1 5369   6.284   5.231  10.150
34510SOL    HW2 5370   6.238   5.089  10.174
34511SOL     OW 5371   8.355  11.715  10.168
34511SOL    HW1 5372   8.302  11.725  10.247
34511SOL    HW2 5373   8.407  11.795  10.164
34512SOL     OW 5374   9.466  13.938   1.664
34512SOL    HW1 5375   9.559  13.963   1.670
34512SOL    HW2 5376   9.443  13.915   1.754
34513SOL     OW 5377   5.352   1.005   4.920
34513SOL    HW1 5378   5.429   0.966   4.877
34513SOL    HW2 5379   5.277   0.968   4.872
34514SOL     OW 5380  12.777   8.262   7.314
34514SOL    HW1 5381  12.822   8.329   7.262
34514SOL    HW2 5382  12.696   8.244   7.266
34515SOL     OW 5383   1.576  10.268  10.363
34515SOL    HW1 5384   1.669  10.260  10.342
34515SOL    HW2 5385   1.572  10.254  10.458
34516SOL     OW 5386   2.948   0.389  13.032
34516SOL    HW1 5387   2.884   0.459  13.041
34516SOL    HW2 5388   2.900   0.309  13.052
34517SOL     OW 5389  11.585   6.335  11.169
34517SOL    HW1 5390  11.544   6.402  11.115
34517SOL    HW2 5391  11.555   6.353  11.258
34518SOL     OW 5392   4.757  14.758   1.760
34518SOL    HW1 5393   4.757  14.666   1.784
34518SOL    HW2 5394   4.712  14.761   1.675
34519SOL     OW 5395   4.607   2.115  11.027
34519SOL    HW1 5396   4.564   2.078  11.104
34519SOL    HW2 5397   4.583   2.208  11.028
34520SOL     OW 5398   5.387  14.536   7.763
34520SOL    HW1 5399   5.452  14.602   7.789
34520SOL    HW2 5400   5.421  14.454   7.798
34521SOL     OW 5401   0.303  12.361   4.490
34521SOL    HW1 5402   0.237  12.407   4.542
34521SOL    HW2 5403   0.293  12.269   4.515
34522SOL     OW 5404   8.485  11.651   7.369
34522SOL    HW1 5405   8.512  11.743   7.375
34522SOL    HW2 5406   8.499  11.629   7.277
34523SOL     OW 5407   7.890  11.425   8.251
34523SOL    HW1 5408   7.853  11.442   8.164
34523SOL    HW2 5409   7.931  11.339   8.243
34524SOL     OW 5410  13.191  10.239  11.144
34524SOL    HW1 5411  13.134  10.205  11.213
34524SOL    HW2 5412  13.222  10.162  11.098
34525SOL     OW 5413   8.281   3.394   0.172
34525SOL    HW1 5414   8.323   3.419   0.089
34525SOL    HW2 5415   8.350   3.354   0.224
34526SOL     OW 5416  10.890   0.647  11.530
34526SOL    HW1 5417  10.928   0.564  11.502
34526SOL    HW2 5418  10.805   0.623  11.567
34527SOL     OW 5419   1.107   5.068   7.162
34527SOL    HW1 5420   1.091   5.040   7.252
34527SOL    HW2 5421   1.201   5.055   7.149
34528SOL     OW 5422   4.860   6.965   7.270
34528SOL    HW1 5423   4.769   6.970   7.241
34528SOL    HW2 5424   4.894   6.885   7.232
34529SOL     OW 5425   4.739  13.342   0.281
34529SOL    HW1 5426   4.750  13.383   0.366
34529SOL    HW2 5427   4.808  13.275   0.277
34530SOL     OW 5428   7.521   9.578   4.490
34530SOL    HW1 5429   7.486   9.658   4.450
34530SOL    HW2 5430   7.475   9.571   4.573
34531SOL     OW 5431   6.894   8.463   4.529
34531SOL    HW1 5432   6.870   8.493   4.617
34531SOL    HW2 5433   6.873   8.536   4.471
34532SOL     OW 5434   1.808   4.575  10.569
34532SOL    HW1 5435   1.716   4.599  10.564
34532SOL    HW2 5436   1.823   4.554  10.661
34533SOL     OW 5437   1.527   4.630   8.111
34533SOL    HW1 5438   1.525   4.724   8.133
34533SOL    HW2 5439   1.473   4.589   8.178
34534SOL     OW 5440   3.920   1.636  11.461
34534SOL    HW1 5441   4.003   1.654  11.418
34534SOL    HW2 5442   3.879   1.569  11.406
34535SOL     OW 5443   6.204   5.164   9.238
34535SOL    HW1 5444   6.152   5.157   9.158
34535SOL    HW2 5445   6.155   5.116   9.304
34536SOL     OW 5446   0.440   3.146   5.269
34536SOL    HW1 5447   0.364   3.088   5.260
34536SOL    HW2 5448   0.469   3.161   5.179
34537SOL     OW 5449   2.415  13.562  14.121
34537SOL    HW1 5450   2.345  13.497  14.114
34537SOL    HW2 5451   2.376  13.636  14.167
34538SOL     OW 5452   8.121   3.933  13.331
34538SOL    HW1 5453   8.120   3.923  13.426
34538SOL    HW2 5454   8.211   3.910  13.305
34539SOL     OW 5455   0.277   9.856   3.972
34539SOL    HW1 5456   0.352   9.862   3.913
34539SOL    HW2 5457   0.256   9.948   3.993
34540SOL     OW 5458   2.651   7.831   4.720
34540SOL    HW1 5459   2.618   7.919   4.739
34540SOL    HW2 5460   2.663   7.830   4.626
34541SOL     OW 5461   1.085  11.183   8.665
34541SOL    HW1 5462   1.089  11.104   8.720
34541SOL    HW2 5463   1.148  11.243   8.706
34542SOL     OW 5464   2.906   6.416   5.394
34542SOL    HW1 5465   2.965   6.437   5.322
34542SOL    HW2 5466   2.824   6.390   5.351
34543SOL     OW 5467   2.249   7.688  12.972
34543SOL    HW1 5468   2.220   7.612  12.921
34543SOL    HW2 5469   2.342   7.672  12.989
34544SOL     OW 5470  12.851   0.790   2.620
34544SOL    HW1 5471  12.910   0.865   2.630
34544SOL    HW2 5472  12.898   0.731   2.561
34545SOL     OW 5473  11.978   1.850  13.947
34545SOL    HW1 5474  11.967   1.807  14.032
34545SOL    HW2 5475  12.069   1.834  13.923
34546SOL     OW 5476  11.194   9.070  13.417
34546SOL    HW1 5477  11.203   9.156  13.375
34546SOL    HW2 5478  11.124   9.027  13.368
34547SOL     OW 5479   2.734   6.913   3.686
34547SOL    HW1 5480   2.692   6.827   3.690
34547SOL    HW2 5481   2.730   6.946   3.776
34548SOL     OW 5482   7.592   1.008   6.840
34548SOL    HW1 5483   7.541   0.988   6.762
34548SOL    HW2 5484   7.681   1.019   6.808
34549SOL     OW 5485   6.223  14.390  10.498
34549SOL    HW1 5486   6.175  14.335  10.436
34549SOL    HW2 5487   6.315  14.372  10.479
34550SOL     OW 5488   9.383   4.141   6.680
34550SOL    HW1 5489   9.426   4.121   6.764
34550SOL    HW2 5490   9.443   4.106   6.614
34551SOL     OW 5491   8.031   6.327   9.299
34551SOL    HW1 5492   8.032   6.291   9.210
34551SOL    HW2 5493   7.939   6.345   9.317
34552SOL     OW 5494   2.683   6.894   4.886
34552SOL    HW1 5495   2.699   6.806   4.920
34552SOL    HW2 5496   2.617   6.931   4.943
34553SOL     OW 5497   2.221   5.397  11.797
34553SOL    HW1 5498   2.260   5.481  11.820
34553SOL    HW2 5499   2.171   5.415  11.718
34554SOL     OW 5500   2.541   4.588  14.596
34554SOL    HW1 5501   2.561   4.682  14.595
34554SOL    HW2 5502   2.445   4.584  14.602
34555SOL     OW 5503   3.613  12.464   3.349
34555SOL    HW1 5504   3.643  12.532   3.409
34555SOL    HW2 5505   3.645  12.382   3.387
34556SOL     OW 5506   9.231  10.497   2.232
34556SOL    HW1 5507   9.289  10.573   2.230
34556SOL    HW2 5508   9.230  10.465   2.142
34557SOL     OW 5509   0.172   6.484  11.634
34557SOL    HW1 5510   0.144   6.447  11.551
34557SOL    HW2 5511   0.101   6.462  11.695
34558SOL     OW 5512  13.805  13.093   8.126
34558SOL    HW1 5513  13.806  13.185   8.152
34558SOL    HW2 5514  13.877  13.053   8.175
34559SOL     OW 5515   1.600  12.810   9.217
34559SOL    HW1 5516   1.635  12.875   9.156
34559SOL    HW2 5517   1.520  12.850   9.251
34560SOL     OW 5518   0.789  10.140   7.097
34560SOL    HW1 5519   0.749  10.127   7.184
34560SOL    HW2 5520   0.714  10.152   7.039
34561SOL     OW 5521  14.532  14.102   8.148
34561SOL    HW1 5522  14.443  14.071   8.132
34561SOL    HW2 5523  14.527  14.145   8.234
34562SOL     OW 5524   9.093   7.818  10.171
34562SOL    HW1 5525   9.158   7.807  10.102
34562SOL    HW2 5526   9.136   7.784  10.250
34563SOL     OW 5527   0.866   2.206   3.144
34563SOL    HW1 5528   0.800   2.267   3.112
34563SOL    HW2 5529   0.847   2.197   3.237
34564SOL     OW 5530   9.308  13.351   1.780
34564SOL    HW1 5531   9.292  13.417   1.713
34564SOL    HW2 5532   9.294  13.268   1.736
34565SOL     OW 5533   5.931   5.872   2.000
34565SOL    HW1 5534   5.899   5.782   2.009
34565SOL    HW2 5535   5.944   5.902   2.090
34566SOL     OW 5536  11.474   4.577   8.500
34566SOL    HW1 5537  11.564   4.608   8.508
34566SOL    HW2 5538  11.426   4.623   8.569
34567SOL     OW 5539   6.388  13.045   1.952
34567SOL    HW1 5540   6.458  13.030   2.016
34567SOL    HW2 5541   6.388  12.966   1.898
34568SOL     OW 5542   5.228  13.546  13.189
34568SOL    HW1 5543   5.198  13.508  13.106
34568SOL    HW2 5544   5.198  13.637  13.187
34569SOL     OW 5545   1.729   3.793   8.537
34569SOL    HW1 5546   1.734   3.747   8.452
34569SOL    HW2 5547   1.640   3.826   8.541
34570SOL     OW 5548  14.273  11.384   3.658
34570SOL    HW1 5549  14.197  11.422   3.615
34570SOL    HW2 5550  14.242  11.299   3.691
34571SOL     OW 5551   1.830  11.584  12.140
34571SOL    HW1 5552   1.773  11.559  12.213
34571SOL    HW2 5553   1.912  11.611  12.181
34572SOL     OW 5554   1.814   3.454   1.183
34572SOL    HW1 5555   1.735   3.430   1.232
34572SOL    HW2 5556   1.785   3.523   1.123
34573SOL     OW 5557   2.499   1.962   0.916
34573SOL    HW1 5558   2.456   2.019   0.980
34573SOL    HW2 5559   2.431   1.902   0.888
34574SOL     OW 5560   1.203  13.944  11.522
34574SOL    HW1 5561   1.207  13.849  11.535
34574SOL    HW2 5562   1.162  13.978  11.602
34575SOL     OW 5563   6.738   9.935  13.112
34575SOL    HW1 5564   6.720   9.842  13.098
34575SOL    HW2 5565   6.750   9.944  13.206
34576SOL     OW 5566  14.715  11.800  11.832
34576SOL    HW1 5567  14.680  11.889  11.832
34576SOL    HW2 5568  14.655  11.750  11.887
34577SOL     OW 5569  13.521   4.526   8.543
34577SOL    HW1 5570  13.599   4.534   8.487
34577SOL    HW2 5571  13.538   4.587   8.615
34578SOL     OW 5572  10.774   9.992   4.059
34578SOL    HW1 5573  10.817   9.909   4.080
34578SOL    HW2 5574  10.811  10.018   3.974
34579SOL     OW 5575   5.027  12.337   2.191
34579SOL    HW1 5576   4.959  12.375   2.135
34579SOL    HW2 5577   4.979  12.301   2.265
34580SOL     OW 5578   6.956   7.334   8.788
34580SOL    HW1 5579   7.034   7.367   8.743
34580SOL    HW2 5580   6.910   7.283   8.720
34581SOL     OW 5581   2.367   4.993   5.537
34581SOL    HW1 5582   2.303   5.058   5.507
34581SOL    HW2 5583   2.318   4.911   5.538
34582SOL     OW 5584  13.896   5.950  12.345
34582SOL    HW1 5585  13.829   6.018  12.338
34582SOL    HW2 5586  13.883   5.914  12.433
34583SOL     OW 5587   7.539   3.945  10.698
34583SOL    HW1 5588   7.443   3.950  10.695
34583SOL    HW2 5589   7.561   3.874  10.638
34584SOL     OW 5590   9.509   4.380   6.301
34584SOL    HW1 5591   9.519   4.404   6.393
34584SOL    HW2 5592   9.519   4.463   6.254
34585SOL     OW 5593  11.951   0.063  11.442
34585SOL    HW1 5594  11.906   0.110  11.372
34585SOL    HW2 5595  11.981  14.862  11.401
34586SOL     OW 5596   3.149   2.482   8.355
34586SOL    HW1 5597   3.146   2.411   8.292
34586SOL    HW2 5598   3.223   2.536   8.327
34587SOL     OW 5599  12.891   4.431   7.668
34587SOL    HW1 5600  12.884   4.351   7.616
34587SOL    HW2 5601  12.981   4.461   7.654
34588SOL     OW 5602   5.299   4.088   1.999
34588SOL    HW1 5603   5.362   4.066   1.930
34588SOL    HW2 5604   5.262   4.003   2.026
34589SOL     OW 5605   5.308   2.194   9.721
34589SOL    HW1 5606   5.219   2.182   9.687
34589SOL    HW2 5607   5.364   2.188   9.644
34590SOL     OW 5608   3.873  13.289   3.714
34590SOL    HW1 5609   3.869  13.218   3.650
34590SOL    HW2 5610   3.860  13.368   3.662
34591SOL     OW 5611   5.336   6.066  10.044
34591SOL    HW1 5612   5.277   6.030  10.110
34591SOL    HW2 5613   5.286   6.138  10.004
34592SOL     OW 5614   4.571  10.362  11.674
34592SOL    HW1 5615   4.585  10.268  11.686
34592SOL    HW2 5616   4.604  10.380  11.586
34593SOL     OW 5617   3.315  12.725   7.304
34593SOL    HW1 5618   3.248  12.771   7.254
34593SOL    HW2 5619   3.356  12.792   7.358
34594SOL     OW 5620   5.249   8.460   4.344
34594SOL    HW1 5621   5.203   8.469   4.260
34594SOL    HW2 5622   5.209   8.383   4.385
34595SOL     OW 5623   7.589   6.469   0.235
34595SOL    HW1 5624   7.640   6.389   0.229
34595SOL    HW2 5625   7.624   6.515   0.311
34596SOL     OW 5626   4.080   4.245   1.041
34596SOL    HW1 5627   4.030   4.167   1.066
34596SOL    HW2 5628   4.131   4.216   0.965
34597SOL     OW 5629  12.478   8.877   6.482
34597SOL    HW1 5630  12.400   8.864   6.428
34597SOL    HW2 5631  12.449   8.856   6.571
34598SOL     OW 5632  14.307  13.154  10.069
34598SOL    HW1 5633  14.296  13.196  10.154
34598SOL    HW2 5634  14.353  13.219  10.016
34599SOL     OW 5635  12.743   0.212  12.949
34599SOL    HW1 5636  12.825   0.258  12.928
34599SOL    HW2 5637  12.733   0.148  12.878
34600SOL     OW 5638  11.044   1.987   6.643
34600SOL    HW1 5639  10.968   2.047   6.645
34600SOL    HW2 5640  11.040   1.942   6.727
34601SOL     OW 5641   4.469   9.143  10.396
34601SOL    HW1 5642   4.408   9.198  10.347
34601SOL    HW2 5643   4.552   9.191  10.394
34602SOL     OW 5644   7.435  12.003  10.259
34602SOL    HW1 5645   7.347  11.988  10.223
34602SOL    HW2 5646   7.462  12.087  10.221
34603SOL     OW 5647   7.980   4.901  12.115
34603SOL    HW1 5648   7.984   4.975  12.175
34603SOL    HW2 5649   8.072   4.876  12.102
34604SOL     OW 5650   4.654   6.575   2.900
34604SOL    HW1 5651   4.658   6.634   2.824
34604SOL    HW2 5652   4.638   6.634   2.974
34605SOL     OW 5653  12.597   3.559  13.010
34605SOL    HW1 5654  12.558   3.474  13.031
34605SOL    HW2 5655  12.659   3.575  13.081
34606SOL     OW 5656   5.538  11.991  12.066
34606SOL    HW1 5657   5.615  12.030  12.026
34606SOL    HW2 5658   5.493  12.064  12.108
34607SOL     OW 5659   8.087  12.184   0.082
34607SOL    HW1 5660   8.045  12.220   0.160
34607SOL    HW2 5661   8.044  12.100   0.068
34608SOL     OW 5662  10.190   5.602   7.861
34608SOL    HW1 5663  10.161   5.671   7.920
34608SOL    HW2 5664  10.246   5.646   7.797
34609SOL     OW 5665   4.228   6.206   8.007
34609SOL    HW1 5666   4.323   6.202   8.016
34609SOL    HW2 5667   4.211   6.175   7.918
34610SOL     OW 5668  12.609  11.708   7.857
34610SOL    HW1 5669  12.593  11.637   7.919
34610SOL    HW2 5670  12.572  11.785   7.900
34611SOL     OW 5671   0.822  13.703   8.952
34611SOL    HW1 5672   0.814  13.649   8.874
34611SOL    HW2 5673   0.768  13.780   8.934
34612SOL     OW 5674   1.648   9.000   5.880
34612SOL    HW1 5675   1.708   8.994   5.955
34612SOL    HW2 5676   1.678   9.077   5.831
34613SOL     OW 5677   2.426   7.155   4.532
34613SOL    HW1 5678   2.497   7.205   4.574
34613SOL    HW2 5679   2.471   7.094   4.473
34614SOL     OW 5680  11.966   0.367   2.368
34614SOL    HW1 5681  11.919   0.287   2.391
34614SOL    HW2 5682  11.915   0.437   2.410
34615SOL     OW 5683  10.182  14.503   0.526
34615SOL    HW1 5684  10.215  14.467   0.609
34615SOL    HW2 5685  10.152  14.426   0.477
34616SOL     OW 5686   2.676   9.964   0.897
34616SOL    HW1 5687   2.669  10.056   0.922
34616SOL    HW2 5688   2.659   9.915   0.978
34617SOL     OW 5689  14.133   7.438   2.180
34617SOL    HW1 5690  14.155   7.387   2.102
34617SOL    HW2 5691  14.047   7.477   2.160
34618SOL     OW 5692   6.297   1.851  14.118
34618SOL    HW1 5693   6.230   1.876  14.054
34618SOL    HW2 5694   6.247   1.821  14.194
34619SOL     OW 5695   6.691   3.627   1.236
34619SOL    HW1 5696   6.774   3.624   1.188
34619SOL    HW2 5697   6.633   3.678   1.180
34620SOL     OW 5698   4.657   6.472   6.372
34620SOL    HW1 5699   4.697   6.497   6.288
34620SOL    HW2 5700   4.564   6.490   6.361
34621SOL     OW 5701   7.097   7.850  11.125
34621SOL    HW1 5702   7.133   7.938  11.118
34621SOL    HW2 5703   7.170   7.798  11.160
34622SOL     OW 5704   5.739   2.328  12.284
34622SOL    HW1 5705   5.648   2.303  12.302
34622SOL    HW2 5706   5.738   2.423  12.281
34623SOL     OW 5707   9.887  14.127  14.643
34623SOL    HW1 5708   9.793  14.124  14.664
34623SOL    HW2 5709   9.914  14.216  14.666
34624SOL     OW 5710   0.486   5.932  14.194
34624SOL    HW1 5711   0.490   5.917  14.288
34624SOL    HW2 5712   0.430   5.862  14.161
34625SOL     OW 5713   8.150  11.619  13.642
34625SOL    HW1 5714   8.086  11.592  13.576
34625SOL    HW2 5715   8.226  11.646  13.591
34626SOL     OW 5716  10.993  11.832  11.613
34626SOL    HW1 5717  10.981  11.829  11.708
34626SOL    HW2 5718  11.015  11.742  11.589
34627SOL     OW 5719  12.132   3.218   1.410
34627SOL    HW1 5720  12.110   3.211   1.317
34627SOL    HW2 5721  12.052   3.190   1.455
34628SOL     OW 5722  10.532  14.278  12.970
34628SOL    HW1 5723  10.455  14.335  12.960
34628SOL    HW2 5724  10.583  14.293  12.891
34629SOL     OW 5725   9.549   7.271   8.258
34629SOL    HW1 5726   9.543   7.238   8.347
34629SOL    HW2 5727   9.488   7.345   8.255
34630SOL     OW 5728   1.763  12.108   2.616
34630SOL    HW1 5729   1.766  12.037   2.552
34630SOL    HW2 5730   1.710  12.073   2.688
34631SOL     OW 5731  12.872  11.500   9.095
34631SOL    HW1 5732  12.792  11.497   9.147
34631SOL    HW2 5733  12.843  11.481   9.006
34632SOL     OW 5734   1.966   0.230   5.759
34632SOL    HW1 5735   2.029   0.257   5.826
34632SOL    HW2 5736   1.980   0.291   5.686
34633SOL     OW 5737   5.782   6.418   9.474
34633SOL    HW1 5738   5.827   6.496   9.444
34633SOL    HW2 5739   5.759   6.371   9.394
34634SOL     OW 5740   8.678   6.943  12.512
34634SOL    HW1 5741   8.717   6.857  12.494
34634SOL    HW2 5742   8.657   6.978  12.426
34635SOL     OW 5743   7.437  14.110   9.978
34635SOL    HW1 5744   7.467  14.062   9.900
34635SOL    HW2 5745   7.477  14.196   9.970
34636SOL     OW 5746  10.221   1.352  13.996
34636SOL    HW1 5747  10.164   1.349  13.919
34636SOL    HW2 5748  10.165   1.388  14.065
34637SOL     OW 5749   1.581  10.410  12.586
34637SOL    HW1 5750   1.597  10.370  12.500
34637SOL    HW2 5751   1.668  10.418  12.626
34638SOL     OW 5752   5.586   7.101   0.213
34638SOL    HW1 5753   5.491   7.107   0.200
34638SOL    HW2 5754   5.619   7.061   0.133
34639SOL     OW 5755   4.490   1.277  13.084
34639SOL    HW1 5756   4.427   1.229  13.138
34639SOL    HW2 5757   4.451   1.363  13.073
34640SOL     OW 5758   6.042  10.019  13.392
34640SOL    HW1 5759   6.042   9.947  13.328
34640SOL    HW2 5760   5.996  10.090  13.347
34641SOL     OW 5761   1.904   2.157  12.473
34641SOL    HW1 5762   1.839   2.208  12.521
34641SOL    HW2 5763   1.987   2.201  12.492
34642SOL     OW 5764  13.314   1.569   0.840
34642SOL    HW1 5765  13.327   1.531   0.927
34642SOL    HW2 5766  13.225   1.543   0.816
34643SOL     OW 5767   1.911   6.777   8.697
34643SOL    HW1 5768   1.840   6.773   8.761
34643SOL    HW2 5769   1.983   6.728   8.737
34644SOL     OW 5770   5.932  14.523   8.686
34644SOL    HW1 5771   5.855  14.471   8.663
34644SOL    HW2 5772   5.998  14.459   8.712
34645SOL     OW 5773   3.562   8.266   1.721
34645SOL    HW1 5774   3.524   8.190   1.765
34645SOL    HW2 5775   3.593   8.322   1.792
34646SOL     OW 5776  13.041   3.594   0.971
34646SOL    HW1 5777  12.969   3.533   0.955
34646SOL    HW2 5778  13.000   3.681   0.970
34647SOL     OW 5779  11.800   8.131   8.342
34647SOL    HW1 5780  11.792   8.048   8.295
34647SOL    HW2 5781  11.711   8.166   8.343
34648SOL     OW 5782   1.178  10.328   3.848
34648SOL    HW1 5783   1.174  10.409   3.899
34648SOL    HW2 5784   1.161  10.356   3.758
34649SOL     OW 5785   4.510   9.847   5.470
34649SOL    HW1 5786   4.585   9.790   5.490
34649SOL    HW2 5787   4.443   9.820   5.533
34650SOL     OW 5788   0.686   4.716   7.486
34650SOL    HW1 5789   0.607   4.756   7.522
34650SOL    HW2 5790   0.758   4.764   7.528
34651SOL     OW 5791   3.498   0.247   2.748
34651SOL    HW1 5792   3.438   0.239   2.822
34651SOL    HW2 5793   3.555   0.320   2.772
34652SOL     OW 5794   9.432   2.441  13.172
34652SOL    HW1 5795   9.430   2.493  13.253
34652SOL    HW2 5796   9.491   2.368  13.191
34653SOL     OW 5797   8.716   8.364   5.168
34653SOL    HW1 5798   8.662   8.426   5.118
34653SOL    HW2 5799   8.685   8.373   5.258
34654SOL     OW 5800   3.806   2.779   6.872
34654SOL    HW1 5801   3.867   2.843   6.838
34654SOL    HW2 5802   3.858   2.699   6.882
34655SOL     OW 5803   0.185   0.350   2.383
34655SOL    HW1 5804   0.269   0.384   2.414
34655SOL    HW2 5805   0.158   0.411   2.315
34656SOL     OW 5806   7.533  12.836   8.340
34656SOL    HW1 5807   7.558  12.918   8.297
34656SOL    HW2 5808   7.460  12.861   8.397
34657SOL     OW 5809   1.913   7.945  10.791
34657SOL    HW1 5810   1.965   7.917  10.716
34657SOL    HW2 5811   1.972   7.999  10.843
34658SOL     OW 5812   8.318  12.825   0.064
34658SOL    HW1 5813   8.307  12.804   0.157
34658SOL    HW2 5814   8.342  12.917   0.062
34659SOL     OW 5815  14.039  12.437  13.077
34659SOL    HW1 5816  13.958  12.442  13.129
34659SOL    HW2 5817  14.010  12.404  12.992
34660SOL     OW 5818   4.981   9.064   8.223
34660SOL    HW1 5819   4.905   9.010   8.246
34660SOL    HW2 5820   5.043   9.050   8.295
34661SOL     OW 5821   2.826   8.207   4.983
34661SOL    HW1 5822   2.840   8.292   4.942
34661SOL    HW2 5823   2.897   8.199   5.047
34662SOL     OW 5824   3.935   8.593   2.040
34662SOL    HW1 5825   3.952   8.627   2.128
34662SOL    HW2 5826   3.875   8.656   2.001
34663SOL     OW 5827   5.473   6.629   9.087
34663SOL    HW1 5828   5.451   6.549   9.135
34663SOL    HW2 5829   5.459   6.606   8.995
34664SOL     OW 5830   6.191  12.490  10.849
34664SOL    HW1 5831   6.201  12.396  10.835
34664SOL    HW2 5832   6.275  12.518  10.884
34665SOL     OW 5833   2.536   7.721  11.202
34665SOL    HW1 5834   2.467   7.721  11.135
34665SOL    HW2 5835   2.586   7.801  11.185
34666SOL     OW 5836   4.691   3.721   1.336
34666SOL    HW1 5837   4.648   3.806   1.333
34666SOL    HW2 5838   4.780   3.740   1.365
34667SOL     OW 5839  13.019  10.019   4.733
34667SOL    HW1 5840  13.044  10.016   4.640
34667SOL    HW2 5841  12.970  10.100   4.742
34668SOL     OW 5842  14.354   7.482  13.259
34668SOL    HW1 5843  14.422   7.481  13.192
34668SOL    HW2 5844  14.392   7.531  13.332
34669SOL     OW 5845   7.698   7.893  10.001
34669SOL    HW1 5846   7.710   7.955   9.929
34669SOL    HW2 5847   7.652   7.819   9.962
34670SOL     OW 5848   2.849   2.840   4.579
34670SOL    HW1 5849   2.870   2.747   4.587
34670SOL    HW2 5850   2.788   2.845   4.505
34671SOL     OW 5851   7.968   7.920   9.952
34671SOL    HW1 5852   7.887   7.879   9.985
34671SOL    HW2 5853   8.015   7.849   9.908
34672SOL     OW 5854   6.067  12.905   8.266
34672SOL    HW1 5855   6.126  12.981   8.264
34672SOL    HW2 5856   6.057  12.880   8.174
34673SOL     OW 5857  14.221   5.479  13.297
34673SOL    HW1 5858  14.290   5.426  13.257
34673SOL    HW2 5859  14.208   5.551  13.236
34674SOL     OW 5860   4.512   6.452  10.206
34674SOL    HW1 5861   4.506   6.419  10.296
34674SOL    HW2 5862   4.605   6.471  10.194
34675SOL     OW 5863   0.220   8.957  13.984
34675SOL    HW1 5864   0.139   8.925  13.946
34675SOL    HW2 5865   0.212   8.941  14.078
34676SOL     OW 5866  13.226  10.672   8.313
34676SOL    HW1 5867  13.142  10.629   8.302
34676SOL    HW2 5868  13.246  10.709   8.227
34677SOL     OW 5869  12.133   4.917   2.352
34677SOL    HW1 5870  12.212   4.923   2.406
34677SOL    HW2 5871  12.070   4.870   2.407
34678SOL     OW 5872  10.312   6.156   6.531
34678SOL    HW1 5873  10.242   6.100   6.563
34678SOL    HW2 5874  10.300   6.158   6.436
34679SOL     OW 5875  14.014  14.097   4.597
34679SOL    HW1 5876  13.966  14.169   4.557
34679SOL    HW2 5877  14.105  14.127   4.597
34680SOL     OW 5878  13.413   4.085   9.299
34680SOL    HW1 5879  13.488   4.123   9.254
34680SOL    HW2 5880  13.337   4.129   9.261
34681SOL     OW 5881   4.637  13.809  13.915
34681SOL    HW1 5882   4.583  13.732  13.898
34681SOL    HW2 5883   4.578  13.883  13.902
34682SOL     OW 5884   7.728   1.055   9.507
34682SOL    HW1 5885   7.695   0.999   9.437
34682SOL    HW2 5886   7.815   1.021   9.527
34683SOL     OW 5887   0.109   9.133   1.873
34683SOL    HW1 5888   0.113   9.039   1.857
34683SOL    HW2 5889   0.015   9.153   1.880
34684SOL     OW 5890   6.966   4.208   6.795
34684SOL    HW1 5891   7.031   4.253   6.740
34684SOL    HW2 5892   7.006   4.206   6.882
34685SOL     OW 5893  13.046  11.627   5.088
34685SOL    HW1 5894  12.975  11.681   5.055
34685SOL    HW2 5895  13.121  11.686   5.096
34686SOL     OW 5896   9.934   4.892  14.002
34686SOL    HW1 5897  10.012   4.840  13.984
34686SOL    HW2 5898   9.925   4.890  14.097
34687SOL     OW 5899  11.449  12.779  10.777
34687SOL    HW1 5900  11.543  12.790  10.760
34687SOL    HW2 5901  11.445  12.742  10.865
34688SOL     OW 5902  14.612   5.237   8.874
34688SOL    HW1 5903  14.668   5.243   8.797
34688SOL    HW2 5904  14.609   5.326   8.909
34689SOL     OW 5905  10.514   3.560  14.477
34689SOL    HW1 5906  10.548   3.605  14.400
34689SOL    HW2 5907  10.432   3.521  14.448
34690SOL     OW 5908  12.026   4.482   3.521
34690SOL    HW1 5909  12.053   4.513   3.607
34690SOL    HW2 5910  12.038   4.387   3.524
34691SOL     OW 5911   8.783   1.060   8.711
34691SOL    HW1 5912   8.832   1.119   8.654
34691SOL    HW2 5913   8.787   0.975   8.668
34692SOL     OW 5914   1.772   0.109  10.633
34692SOL    HW1 5915   1.727   0.158  10.702
34692SOL    HW2 5916   1.826   0.045  10.681
34693SOL     OW 5917   7.575  11.001   4.546
34693SOL    HW1 5918   7.576  11.035   4.457
34693SOL    HW2 5919   7.483  10.987   4.566
34694SOL     OW 5920   8.909   6.175  10.221
34694SOL    HW1 5921   8.838   6.114  10.241
34694SOL    HW2 5922   8.945   6.198  10.306
34695SOL     OW 5923   1.872   4.456   3.447
34695SOL    HW1 5924   1.888   4.532   3.503
34695SOL    HW2 5925   1.790   4.419   3.480
34696SOL     OW 5926   0.882   4.776   4.990
34696SOL    HW1 5927   0.952   4.767   4.925
34696SOL    HW2 5928   0.852   4.687   5.006
34697SOL     OW 5929  12.162  13.252   1.514
34697SOL    HW1 5930  12.140  13.168   1.475
34697SOL    HW2 5931  12.199  13.303   1.442
34698SOL     OW 5932   6.592   0.845  11.287
34698SOL    HW1 5933   6.558   0.908  11.350
34698SOL    HW2 5934   6.604   0.764  11.337
34699SOL     OW 5935   0.616   1.345   3.994
34699SOL    HW1 5936   0.594   1.436   3.974
34699SOL    HW2 5937   0.654   1.348   4.081
34700SOL     OW 5938  13.266   9.293   9.123
34700SOL    HW1 5939  13.332   9.227   9.104
34700SOL    HW2 5940  13.213   9.298   9.044
34701SOL     OW 5941  10.965   8.924   0.988
34701SOL    HW1 5942  10.998   8.888   1.071
34701SOL    HW2 5943  10.976   8.852   0.925
34702SOL     OW 5944   7.136   0.030   9.188
34702SOL    HW1 5945   7.215   0.069   9.225
34702SOL    HW2 5946   7.064   0.080   9.226
34703SOL     OW 5947   6.507   6.858   0.805
34703SOL    HW1 5948   6.542   6.946   0.794
34703SOL    HW2 5949   6.536   6.831   0.892
34704SOL     OW 5950  13.073  14.047   6.680
34704SOL    HW1 5951  13.035  13.985   6.618
34704SOL    HW2 5952  13.167  14.030   6.675
34705SOL     OW 5953   2.803  10.377   7.911
34705SOL    HW1 5954   2.782  10.287   7.936
34705SOL    HW2 5955   2.763  10.388   7.825
34706SOL     OW 5956  14.852   4.348  13.048
34706SOL    HW1 5957  14.853   4.414  12.979
34706SOL    HW2 5958  14.760   4.345  13.076
34707SOL     OW 5959   5.741   9.644   8.243
34707SOL    HW1 5960   5.804   9.692   8.298
34707SOL    HW2 5961   5.664   9.634   8.298
34708SOL     OW 5962   2.607   4.548  13.527
34708SOL    HW1 5963   2.545   4.483  13.558
34708SOL    HW2 5964   2.562   4.632  13.540
34709SOL     OW 5965  14.315   3.397   2.716
34709SOL    HW1 5966  14.283   3.483   2.744
34709SOL    HW2 5967  14.237   3.340   2.720
34710SOL     OW 5968  11.877   9.027   9.148
34710SOL    HW1 5969  11.934   9.092   9.107
34710SOL    HW2 5970  11.789   9.065   9.143
34711SOL     OW 5971   9.352   1.327  10.299
34711SOL    HW1 5972   9.309   1.392  10.354
34711SOL    HW2 5973   9.431   1.304  10.348
34712SOL     OW 5974  12.944   8.071   4.497
34712SOL    HW1 5975  12.913   8.121   4.574
34712SOL    HW2 5976  13.036   8.094   4.490
34713SOL     OW 5977   8.176   0.385   1.986
34713SOL    HW1 5978   8.193   0.398   1.892
34713SOL    HW2 5979   8.252   0.336   2.017
34714SOL     OW 5980  12.924   9.551   0.191
34714SOL    HW1 5981  13.004   9.599   0.212
34714SOL    HW2 5982  12.859   9.584   0.253
34715SOL     OW 5983   3.204   8.087   6.114
34715SOL    HW1 5984   3.253   8.042   6.045
34715SOL    HW2 5985   3.176   8.017   6.173
34716SOL     OW 5986  11.379   6.732  13.926
34716SOL    HW1 5987  11.448   6.797  13.917
34716SOL    HW2 5988  11.425   6.648  13.932
34717SOL     OW 5989   3.961   8.896  12.906
34717SOL    HW1 5990   3.928   8.815  12.946
34717SOL    HW2 5991   3.965   8.958  12.979
34718SOL     OW 5992   6.985   8.102  12.916
34718SOL    HW1 5993   6.935   8.028  12.950
34718SOL    HW2 5994   7.067   8.064  12.885
34719SOL     OW 5995  12.326  10.082   3.637
34719SOL    HW1 5996  12.342   9.991   3.660
34719SOL    HW2 5997  12.293  10.122   3.717
34720SOL     OW 5998   8.468   0.480  10.658
34720SOL    HW1 5999   8.464   0.572  10.684
34720SOL    HW2 6000   8.550   0.447  10.696
34721SOL     OW 6001   0.720   2.885   9.693
34721SOL    HW1 6002   0.687   2.907   9.606
34721SOL    HW2 6003   0.643   2.895   9.750
34722SOL     OW 6004  11.655   7.525   8.842
34722SOL    HW1 6005  11.681   7.617   8.838
34722SOL    HW2 6006  11.573   7.521   8.793
34723SOL     OW 6007  12.041   9.581   9.294
34723SOL    HW1 6008  12.039   9.615   9.384
34723SOL    HW2 6009  11.992   9.499   9.298
34724SOL     OW 6010   1.346  10.958   6.588
34724SOL    HW1 6011   1.290  11.036   6.588
34724SOL    HW2 6012   1.299  10.894   6.535
34725SOL     OW 6013  14.169   8.660  10.737
34725SOL    HW1 6014  14.168   8.581  10.684
34725SOL    HW2 6015  14.121   8.636  10.817
34726SOL     OW 6016   8.144   1.572   9.623
34726SOL    HW1 6017   8.056   1.571   9.586
34726SOL    HW2 6018   8.130   1.587   9.716
34727SOL     OW 6019  11.219  12.179  12.015
34727SOL    HW1 6020  11.312  12.160  12.023
34727SOL    HW2 6021  11.192  12.137  11.934
34728SOL     OW 6022   9.566   5.839   4.782
34728SOL    HW1 6023   9.601   5.827   4.870
34728SOL    HW2 6024   9.620   5.783   4.726
34729SOL     OW 6025   3.999  11.784   7.045
34729SOL    HW1 6026   3.999  11.857   6.983
34729SOL    HW2 6027   4.021  11.823   7.129
34730SOL     OW 6028  10.771  12.493   5.586
34730SOL    HW1 6029  10.860  12.480   5.619
34730SOL    HW2 6030  10.761  12.427   5.517
34731SOL     OW 6031   5.048  13.643   6.467
34731SOL    HW1 6032   4.959  13.618   6.442
34731SOL    HW2 6033   5.062  13.600   6.551
34732SOL     OW 6034   1.267  12.152  14.091
34732SOL    HW1 6035   1.180  12.140  14.130
34732SOL    HW2 6036   1.253  12.134  13.998
34733SOL     OW 6037  13.029  14.138   4.044
34733SOL    HW1 6038  13.092  14.084   3.996
34733SOL    HW2 6039  12.961  14.157   3.979
34734SOL     OW 6040   5.102   5.000   2.591
34734SOL    HW1 6041   5.063   5.004   2.504
34734SOL    HW2 6042   5.132   4.910   2.601
34735SOL     OW 6043   0.413   1.972   7.284
34735SOL    HW1 6044   0.382   2.055   7.320
34735SOL    HW2 6045   0.435   1.920   7.361
34736SOL     OW 6046   3.767   6.834  10.085
34736SOL    HW1 6047   3.805   6.758  10.041
34736SOL    HW2 6048   3.836   6.865  10.143
34737SOL     OW 6049   9.896  12.621  13.155
34737SOL    HW1 6050   9.962  12.689  13.141
34737SOL    HW2 6051   9.931  12.569  13.227
34738SOL     OW 6052  10.153   6.440   6.470
34738SOL    HW1 6053  10.093   6.366   6.464
34738SOL    HW2 6054  10.195   6.443   6.384
34739SOL     OW 6055   6.905  11.505   0.843
34739SOL    HW1 6056   6.857  11.463   0.771
34739SOL    HW2 6057   6.942  11.432   0.893
34740SOL     OW 6058   8.680   7.259   1.529
34740SOL    HW1 6059   8.704   7.168   1.549
34740SOL    HW2 6060   8.729   7.311   1.593
34741SOL     OW 6061  12.687  10.420   0.149
34741SOL    HW1 6062  12.643  10.336   0.160
34741SOL    HW2 6063  12.775  10.406   0.186
34742SOL     OW 6064   2.252   0.529   8.186
34742SOL    HW1 6065   2.331   0.493   8.145
34742SOL    HW2 6066   2.193   0.454   8.194
34743SOL     OW 6067   5.285   2.292   1.208
34743SOL    HW1 6068   5.216   2.293   1.142
34743SOL    HW2 6069   5.271   2.372   1.258
34744SOL     OW 6070  12.700  10.795   9.263
34744SOL    HW1 6071  12.692  10.710   9.222
34744SOL    HW2 6072  12.724  10.776   9.354
34745SOL     OW 6073   7.807   4.442   6.360
34745SOL    HW1 6074   7.795   4.523   6.410
34745SOL    HW2 6075   7.724   4.428   6.316
34746SOL     OW 6076  10.044   5.705   0.817
34746SOL    HW1 6077  10.114   5.765   0.841
34746SOL    HW2 6078   9.989   5.700   0.895
34747SOL     OW 6079  11.620   9.025  10.762
34747SOL    HW1 6080  11.697   9.003  10.815
34747SOL    HW2 6081  11.548   8.977  10.803
34748SOL     OW 6082  11.706   3.008   1.201
34748SOL    HW1 6083  11.696   3.000   1.295
34748SOL    HW2 6084  11.775   2.946   1.178
34749SOL     OW 6085   7.201   3.661   7.107
34749SOL    HW1 6086   7.234   3.624   7.189
34749SOL    HW2 6087   7.138   3.597   7.075
34750SOL     OW 6088   0.941   8.502   4.064
34750SOL    HW1 6089   0.932   8.597   4.075
34750SOL    HW2 6090   0.956   8.490   3.971
34751SOL     OW 6091   0.814   5.790   7.977
34751SOL    HW1 6092   0.837   5.838   7.897
34751SOL    HW2 6093   0.835   5.699   7.957
34752SOL     OW 6094   3.594   1.459   5.893
34752SOL    HW1 6095   3.630   1.390   5.949
34752SOL    HW2 6096   3.536   1.413   5.832
34753SOL     OW 6097   9.895   9.017   1.563
34753SOL    HW1 6098   9.887   9.002   1.657
34753SOL    HW2 6099   9.935   9.104   1.556
34754SOL     OW 6100   4.063   2.580   0.390
34754SOL    HW1 6101   4.116   2.629   0.453
34754SOL    HW2 6102   4.091   2.489   0.401
34755SOL     OW 6103   9.088  12.136   5.137
34755SOL    HW1 6104   9.071  12.165   5.227
34755SOL    HW2 6105   9.094  12.041   5.143
34756SOL     OW 6106  11.600   4.120   4.215
34756SOL    HW1 6107  11.657   4.154   4.284
34756SOL    HW2 6108  11.529   4.076   4.263
34757SOL     OW 6109  10.174   0.209   3.912
34757SOL    HW1 6110  10.149   0.295   3.877
34757SOL    HW2 6111  10.168   0.150   3.836
34758SOL     OW 6112   6.517   6.059   1.671
34758SOL    HW1 6113   6.460   6.009   1.729
34758SOL    HW2 6114   6.485   6.150   1.679
34759SOL     OW 6115   5.196  12.836   7.041
34759SOL    HW1 6116   5.134  12.885   6.987
34759SOL    HW2 6117   5.168  12.852   7.131
34760SOL     OW 6118  12.984   4.862   5.185
34760SOL    HW1 6119  13.019   4.777   5.158
34760SOL    HW2 6120  12.941   4.896   5.107
34761SOL     OW 6121   8.639   8.743   0.896
34761SOL    HW1 6122   8.728   8.719   0.923
34761SOL    HW2 6123   8.585   8.668   0.922
34762SOL     OW 6124   4.445  11.233   2.670
34762SOL    HW1 6125   4.373  11.251   2.610
34762SOL    HW2 6126   4.408  11.248   2.757
34763SOL     OW 6127   1.431  14.407   6.608
34763SOL    HW1 6128   1.522  14.381   6.593
34763SOL    HW2 6129   1.432  14.446   6.696
34764SOL     OW 6130   2.346  11.133   6.392
34764SOL    HW1 6131   2.379  11.143   6.303
34764SOL    HW2 6132   2.321  11.041   6.398
34765SOL     OW 6133   1.044   0.601   0.221
34765SOL    HW1 6134   1.067   0.620   0.312
34765SOL    HW2 6135   1.033   0.687   0.180
34766SOL     OW 6136  11.366  13.155  13.208
34766SOL    HW1 6137  11.458  13.168  13.233
34766SOL    HW2 6138  11.335  13.085  13.265
34767SOL     OW 6139  13.397   6.330  14.168
34767SOL    HW1 6140  13.358   6.270  14.104
34767SOL    HW2 6141  13.348   6.411  14.158
34768SOL     OW 6142   5.646   4.758   1.546
34768SOL    HW1 6143   5.567   4.763   1.599
34768SOL    HW2 6144   5.704   4.824   1.584
34769SOL     OW 6145  14.186   7.039   5.256
34769SOL    HW1 6146  14.263   7.043   5.199
34769SOL    HW2 6147  14.221   7.023   5.343
34770SOL     OW 6148   8.531  12.922  13.270
34770SOL    HW1 6149   8.581  12.940  13.350
34770SOL    HW2 6150   8.450  12.973  13.281
34771SOL     OW 6151  11.120   0.437   9.395
34771SOL    HW1 6152  11.130   0.528   9.367
34771SOL    HW2 6153  11.163   0.434   9.480
34772SOL     OW 6154   8.903   9.904  10.303
34772SOL    HW1 6155   8.948   9.924  10.385
34772SOL    HW2 6156   8.816   9.874  10.330
34773SOL     OW 6157  10.604  13.547   2.657
34773SOL    HW1 6158  10.551  13.625   2.676
34773SOL    HW2 6159  10.540  13.481   2.630
34774SOL     OW 6160   1.821   4.199  14.403
34774SOL    HW1 6161   1.910   4.162  14.401
34774SOL    HW2 6162   1.768   4.137  14.352
34775SOL     OW 6163   5.683   2.145   5.158
34775SOL    HW1 6164   5.770   2.110   5.138
34775SOL    HW2 6165   5.649   2.174   5.073
34776SOL     OW 6166   1.000   0.148   8.739
34776SOL    HW1 6167   1.028   0.233   8.704
34776SOL    HW2 6168   1.037   0.144   8.826
34777SOL     OW 6169   1.294  14.024   8.579
34777SOL    HW1 6170   1.222  14.020   8.642
34777SOL    HW2 6171   1.256  13.992   8.497
34778SOL     OW 6172  11.334   0.381   5.219
34778SOL    HW1 6173  11.336   0.449   5.152
34778SOL    HW2 6174  11.275   0.315   5.185
34779SOL     OW 6175  10.907   0.450  14.487
34779SOL    HW1 6176  10.823   0.436  14.530
34779SOL    HW2 6177  10.895   0.531  14.436
34780SOL     OW 6178   3.983   6.516   2.325
34780SOL    HW1 6179   4.051   6.449   2.315
34780SOL    HW2 6180   4.007   6.584   2.262
34781SOL     OW 6181  11.117   6.808  12.446
34781SOL    HW1 6182  11.184   6.835  12.383
34781SOL    HW2 6183  11.041   6.863  12.425
34782SOL     OW 6184  13.226   1.207  11.676
34782SOL    HW1 6185  13.161   1.250  11.732
34782SOL    HW2 6186  13.305   1.261  11.686
34783SOL     OW 6187   6.866   2.007   0.240
34783SOL    HW1 6188   6.873   2.063   0.163
34783SOL    HW2 6189   6.835   1.923   0.206
34784SOL     OW 6190   8.787  10.598   1.345
34784SOL    HW1 6191   8.843  10.521   1.358
34784SOL    HW2 6192   8.735  10.603   1.425
34785SOL     OW 6193   1.207  14.398   4.604
34785SOL    HW1 6194   1.263  14.350   4.542
34785SOL    HW2 6195   1.227  14.490   4.588
34786SOL     OW 6196   2.082  14.178   6.921
34786SOL    HW1 6197   2.101  14.264   6.884
34786SOL    HW2 6198   2.030  14.134   6.853
34787SOL     OW 6199   1.369  12.241   2.831
34787SOL    HW1 6200   1.339  12.321   2.874
34787SOL    HW2 6201   1.424  12.271   2.759
34788SOL     OW 6202  10.746  13.176   6.673
34788SOL    HW1 6203  10.758  13.103   6.613
34788SOL    HW2 6204  10.723  13.134   6.756
34789SOL     OW 6205  13.346   1.828   4.884
34789SOL    HW1 6206  13.379   1.849   4.972
34789SOL    HW2 6207  13.424   1.802   4.835
34790SOL     OW 6208  14.828   6.058   2.340
34790SOL    HW1 6209  14.852   6.144   2.373
34790SOL    HW2 6210  14.850   6.062   2.246
34791SOL     OW 6211   6.172   7.313   5.870
34791SOL    HW1 6212   6.119   7.372   5.923
34791SOL    HW2 6213   6.119   7.233   5.864
34792SOL     OW 6214  10.952   7.476   4.941
34792SOL    HW1 6215  10.952   7.496   5.034
34792SOL    HW2 6216  11.040   7.501   4.911
34793SOL     OW 6217   3.926   4.752   4.547
34793SOL    HW1 6218   4.007   4.798   4.526
34793SOL    HW2 6219   3.946   4.660   4.532
34794SOL     OW 6220  13.398   4.891   5.109
34794SOL    HW1 6221  13.305   4.913   5.106
34794SOL    HW2 6222  13.405   4.820   5.172
34795SOL     OW 6223  12.361   1.353   5.047
34795SOL    HW1 6224  12.290   1.311   4.999
34795SOL    HW2 6225  12.428   1.371   4.982
34796SOL     OW 6226   3.878  11.204  11.931
34796SOL    HW1 6227   3.916  11.124  11.894
34796SOL    HW2 6228   3.954  11.256  11.957
34797SOL     OW 6229  11.016   2.114  11.226
34797SOL    HW1 6230  10.928   2.077  11.225
34797SOL    HW2 6231  11.039   2.126  11.134
34798SOL     OW 6232  10.440  10.740   8.445
34798SOL    HW1 6233  10.439  10.814   8.506
34798SOL    HW2 6234  10.425  10.663   8.500
34799SOL     OW 6235   8.426   4.006   0.406
34799SOL    HW1 6236   8.471   3.927   0.436
34799SOL    HW2 6237   8.357   3.974   0.348
34800SOL     OW 6238  11.295   4.807  11.618
34800SOL    HW1 6239  11.356   4.803  11.545
34800SOL    HW2 6240  11.291   4.717  11.651
34801SOL     OW 6241   4.437  13.675   9.738
34801SOL    HW1 6242   4.347  13.701   9.720
34801SOL    HW2 6243   4.458  13.611   9.669
34802SOL     OW 6244   4.845   0.191   1.383
34802SOL    HW1 6245   4.813   0.208   1.294
34802SOL    HW2 6246   4.913   0.257   1.397
34803SOL     OW 6247   9.888   3.609   2.167
34803SOL    HW1 6248   9.926   3.590   2.081
34803SOL    HW2 6249   9.808   3.657   2.148
34804SOL     OW 6250   6.869  14.055  13.692
34804SOL    HW1 6251   6.826  14.037  13.608
34804SOL    HW2 6252   6.806  14.025  13.758
34805SOL     OW 6253  13.642   9.074  10.392
34805SOL    HW1 6254  13.602   9.159  10.413
34805SOL    HW2 6255  13.577   9.031  10.336
34806SOL     OW 6256   3.611   7.891   7.114
34806SOL    HW1 6257   3.515   7.891   7.121
34806SOL    HW2 6258   3.632   7.976   7.076
34807SOL     OW 6259   1.890  12.772   8.278
34807SOL    HW1 6260   1.875  12.760   8.372
34807SOL    HW2 6261   1.985  12.784   8.270
34808SOL     OW 6262   8.185   1.518  11.422
34808SOL    HW1 6263   8.132   1.443  11.449
34808SOL    HW2 6264   8.179   1.580  11.495
34809SOL     OW 6265  13.606   0.788   5.717
34809SOL    HW1 6266  13.541   0.782   5.647
34809SOL    HW2 6267  13.583   0.868   5.765
34810SOL     OW 6268  13.113  11.391   6.256
34810SOL    HW1 6269  13.208  11.380   6.253
34810SOL    HW2 6270  13.092  11.389   6.350
34811SOL     OW 6271   9.206  12.366   5.328
34811SOL    HW1 6272   9.141  12.434   5.347
34811SOL    HW2 6273   9.158  12.284   5.339
34812SOL     OW 6274  11.147  13.293   9.275
34812SOL    HW1 6275  11.062  13.261   9.306
34812SOL    HW2 6276  11.146  13.276   9.181
34813SOL     OW 6277  14.347   9.658   7.221
34813SOL    HW1 6278  14.310   9.727   7.167
34813SOL    HW2 6279  14.291   9.657   7.299
34814SOL     OW 6280   2.189   1.850   7.786
34814SOL    HW1 6281   2.232   1.934   7.771
34814SOL    HW2 6282   2.244   1.806   7.850
34815SOL     OW 6283   0.936   4.336  10.642
34815SOL    HW1 6284   0.999   4.404  10.620
34815SOL    HW2 6285   0.853   4.367  10.606
34816SOL     OW 6286  10.024   8.499  12.916
34816SOL    HW1 6287   9.939   8.463  12.940
34816SOL    HW2 6288  10.016   8.593  12.931
34817SOL     OW 6289  11.157   6.862  11.418
34817SOL    HW1 6290  11.243   6.900  11.399
34817SOL    HW2 6291  11.118   6.923  11.481
34818SOL     OW 6292   5.693  12.877   7.845
34818SOL    HW1 6293   5.635  12.820   7.895
34818SOL    HW2 6294   5.650  12.962   7.845
34819SOL     OW 6295   3.462  12.624   9.416
34819SOL    HW1 6296   3.531  12.615   9.482
34819SOL    HW2 6297   3.493  12.696   9.360
34820SOL     OW 6298   6.626   9.861   8.666
34820SOL    HW1 6299   6.614   9.887   8.575
34820SOL    HW2 6300   6.716   9.885   8.687
34821SOL     OW 6301   6.918   0.145   7.926
34821SOL    HW1 6302   6.933   0.113   7.837
34821SOL    HW2 6303   6.978   0.219   7.935
34822SOL     OW 6304   4.073  11.845  14.037
34822SOL    HW1 6305   4.083  11.920  14.096
34822SOL    HW2 6306   4.157  11.800  14.042
34823SOL     OW 6307   2.380   1.164   3.069
34823SOL    HW1 6308   2.396   1.087   3.124
34823SOL    HW2 6309   2.285   1.171   3.065
34824SOL     OW 6310   9.698   3.742   6.507
34824SOL    HW1 6311   9.646   3.778   6.436
34824SOL    HW2 6312   9.728   3.657   6.475
34825SOL     OW 6313   7.023   0.681   9.607
34825SOL    HW1 6314   7.068   0.686   9.523
34825SOL    HW2 6315   6.942   0.730   9.594
34826SOL     OW 6316   5.173   5.596   3.207
34826SOL    HW1 6317   5.137   5.528   3.149
34826SOL    HW2 6318   5.169   5.558   3.294
34827SOL     OW 6319  10.780   3.578   9.589
34827SOL    HW1 6320  10.702   3.545   9.632
34827SOL    HW2 6321  10.749   3.614   9.506
34828SOL     OW 6322   6.530  10.834  14.514
34828SOL    HW1 6323   6.436  10.836  14.531
34828SOL    HW2 6324   6.554  10.742  14.520
34829SOL     OW 6325  14.111   5.897   7.322
34829SOL    HW1 6326  14.186   5.839   7.318
34829SOL    HW2 6327  14.120   5.944   7.405
34830SOL     OW 6328   9.609   9.350  12.963
34830SOL    HW1 6329   9.651   9.432  12.937
34830SOL    HW2 6330   9.552   9.375  13.036
34831SOL     OW 6331   1.910  10.358   1.045
34831SOL    HW1 6332   1.837  10.341   0.986
34831SOL    HW2 6333   1.897  10.448   1.074
34832SOL     OW 6334   4.854  12.924  11.703
34832SOL    HW1 6335   4.763  12.947  11.689
34832SOL    HW2 6336   4.904  12.991  11.657
34833SOL     OW 6337   7.201   4.272   0.754
34833SOL    HW1 6338   7.202   4.348   0.696
34833SOL    HW2 6339   7.279   4.283   0.808
34834SOL     OW 6340   9.033  13.003  12.591
34834SOL    HW1 6341   9.118  12.996  12.634
34834SOL    HW2 6342   9.050  13.056  12.513
34835SOL     OW 6343  10.888  11.749   4.933
34835SOL    HW1 6344  10.955  11.760   4.866
34835SOL    HW2 6345  10.814  11.710   4.887
34836SOL     OW 6346   7.425   3.770   1.944
34836SOL    HW1 6347   7.401   3.751   1.854
34836SOL    HW2 6348   7.510   3.727   1.956
34837SOL     OW 6349   1.612  12.431   2.001
34837SOL    HW1 6350   1.528  12.440   2.047
34837SOL    HW2 6351   1.664  12.375   2.057
34838SOL     OW 6352   2.899   6.627   1.426
34838SOL    HW1 6353   2.984   6.594   1.457
34838SOL    HW2 6354   2.920   6.672   1.345
34839SOL     OW 6355   6.897   3.152  13.198
34839SOL    HW1 6356   6.972   3.207  13.173
34839SOL    HW2 6357   6.867   3.114  13.116
34840SOL     OW 6358   6.143  14.272   6.255
34840SOL    HW1 6359   6.204  14.273   6.181
34840SOL    HW2 6360   6.198  14.281   6.332
34841SOL     OW 6361   4.452   9.097   9.742
34841SOL    HW1 6362   4.460   9.011   9.783
34841SOL    HW2 6363   4.357   9.111   9.736
34842SOL     OW 6364   7.853   4.977  13.766
34842SOL    HW1 6365   7.772   4.926  13.772
34842SOL    HW2 6366   7.862   5.018  13.852
34843SOL     OW 6367   4.040   8.336   8.458
34843SOL    HW1 6368   4.086   8.297   8.384
34843SOL    HW2 6369   4.038   8.267   8.524
34844SOL     OW 6370   1.307  10.598  11.198
34844SOL    HW1 6371   1.255  10.525  11.233
34844SOL    HW2 6372   1.289  10.597  11.104
34845SOL     OW 6373   7.106   0.960  11.243
34845SOL    HW1 6374   7.019   0.931  11.217
34845SOL    HW2 6375   7.092   1.006  11.326
34846SOL     OW 6376   8.891  11.264  11.495
34846SOL    HW1 6377   8.842  11.283  11.414
34846SOL    HW2 6378   8.910  11.350  11.532
34847SOL     OW 6379   1.806   2.632   2.665
34847SOL    HW1 6380   1.778   2.719   2.694
34847SOL    HW2 6381   1.901   2.639   2.656
34848SOL     OW 6382   8.355   2.641   1.436
34848SOL    HW1 6383   8.274   2.667   1.392
34848SOL    HW2 6384   8.419   2.635   1.366
34849SOL     OW 6385  13.152  12.550  11.123
34849SOL    HW1 6386  13.247  12.537  11.121
34849SOL    HW2 6387  13.141  12.645  11.130
34850SOL     OW 6388   4.022  10.576   9.284
34850SOL    HW1 6389   4.070  10.518   9.225
34850SOL    HW2 6390   4.004  10.654   9.232
34851SOL     OW 6391   4.938  12.925  14.656
34851SOL    HW1 6392   5.022  12.946  14.697
34851SOL    HW2 6393   4.873  12.968  14.712
34852SOL     OW 6394   8.678   9.218  12.133
34852SOL    HW1 6395   8.593   9.245  12.168
34852SOL    HW2 6396   8.665   9.216  12.038
34853SOL     OW 6397   4.586  12.480   8.401
34853SOL    HW1 6398   4.577  12.575   8.401
34853SOL    HW2 6399   4.541  12.452   8.482
34854SOL     OW 6400   2.150   2.555   6.562
34854SOL    HW1 6401   2.181   2.478   6.514
34854SOL    HW2 6402   2.215   2.569   6.631
34855SOL     OW 6403   2.998   4.247   6.395
34855SOL    HW1 6404   3.087   4.276   6.416
34855SOL    HW2 6405   2.941   4.310   6.441
34856SOL     OW 6406   0.253   8.035  10.017
34856SOL    HW1 6407   0.228   7.958  10.068
34856SOL    HW2 6408   0.178   8.095  10.026
34857SOL     OW 6409   9.678   7.938   6.037
34857SOL    HW1 6410   9.654   7.861   5.985
34857SOL    HW2 6411   9.771   7.927   6.054
34858SOL     OW 6412  11.183   8.872   9.743
34858SOL    HW1 6413  11.215   8.818   9.816
34858SOL    HW2 6414  11.253   8.935   9.728
34859SOL     OW 6415   4.034  14.678   1.839
34859SOL    HW1 6416   4.061  14.614   1.905
34859SOL    HW2 6417   4.116  14.707   1.798
34860SOL     OW 6418   9.217  12.325  12.459
34860SOL    HW1 6419   9.266  12.267  12.517
34860SOL    HW2 6420   9.278  12.396  12.438
34861SOL     OW 6421  10.635   9.060   5.103
34861SOL    HW1 6422  10.653   8.990   5.165
34861SOL    HW2 6423  10.575   9.118   5.150
34862SOL     OW 6424   4.344  11.951  13.556
34862SOL    HW1 6425   4.409  12.012  13.590
34862SOL    HW2 6426   4.283  12.007  13.507
34863SOL     OW 6427   1.057   7.989   7.909
34863SOL    HW1 6428   0.968   7.979   7.942
34863SOL    HW2 6429   1.067   8.084   7.896
34864SOL     OW 6430   7.304  13.286   3.804
34864SOL    HW1 6431   7.314  13.238   3.722
34864SOL    HW2 6432   7.363  13.361   3.796
34865SOL     OW 6433  12.256  10.917  12.333
34865SOL    HW1 6434  12.341  10.929  12.376
34865SOL    HW2 6435  12.277  10.895  12.243
34866SOL     OW 6436  10.010  10.084   7.569
34866SOL    HW1 6437   9.930  10.041   7.537
34866SOL    HW2 6438  10.081  10.036   7.526
34867SOL     OW 6439   1.749   2.087  14.435
34867SOL    HW1 6440   1.817   2.036  14.391
34867SOL    HW2 6441   1.795   2.164  14.468
34868SOL     OW 6442  10.218   2.459  10.057
34868SOL    HW1 6443  10.151   2.395  10.081
34868SOL    HW2 6444  10.221   2.520  10.131
34869SOL     OW 6445   1.674   6.871   8.251
34869SOL    HW1 6446   1.613   6.801   8.228
34869SOL    HW2 6447   1.634   6.951   8.218
34870SOL     OW 6448   7.922   9.818   9.553
34870SOL    HW1 6449   7.850   9.757   9.561
34870SOL    HW2 6450   7.886   9.902   9.584
34871SOL     OW 6451   8.697  11.910  14.419
34871SOL    HW1 6452   8.747  11.950  14.349
34871SOL    HW2 6453   8.618  11.876  14.376
34872SOL     OW 6454  10.878   9.255  11.434
34872SOL    HW1 6455  10.787   9.246  11.462
34872SOL    HW2 6456  10.926   9.192  11.488
34873SOL     OW 6457  10.127  10.990   4.322
34873SOL    HW1 6458  10.206  10.943   4.295
34873SOL    HW2 6459  10.078  10.925   4.373
34874SOL     OW 6460   1.076   0.874   8.310
34874SOL    HW1 6461   1.126   0.816   8.254
34874SOL    HW2 6462   1.014   0.817   8.356
34875SOL     OW 6463   0.901   0.213   6.980
34875SOL    HW1 6464   0.970   0.166   7.028
34875SOL    HW2 6465   0.820   0.184   7.021
34876SOL     OW 6466  14.082   1.535   2.521
34876SOL    HW1 6467  14.024   1.543   2.446
34876SOL    HW2 6468  14.125   1.620   2.527
34877SOL     OW 6469   1.983   9.489   3.666
34877SOL    HW1 6470   1.992   9.548   3.591
34877SOL    HW2 6471   1.888   9.484   3.680
34878SOL     OW 6472  10.086   3.328  10.657
34878SOL    HW1 6473  10.077   3.399  10.594
34878SOL    HW2 6474  10.179   3.330  10.681
34879SOL     OW 6475   7.448   0.598   4.454
34879SOL    HW1 6476   7.478   0.614   4.543
34879SOL    HW2 6477   7.471   0.678   4.406
34880SOL     OW 6478   3.432   9.318   9.651
34880SOL    HW1 6479   3.367   9.279   9.592
34880SOL    HW2 6480   3.406   9.288   9.738
34881SOL     OW 6481  14.497   0.013   0.169
34881SOL    HW1 6482  14.577  14.859   0.128
34881SOL    HW2 6483  14.453  14.816   0.205
34882SOL     OW 6484  14.074   7.746   1.222
34882SOL    HW1 6485  13.987   7.711   1.241
34882SOL    HW2 6486  14.060   7.806   1.148
34883SOL     OW 6487   4.281   0.148   7.838
34883SOL    HW1 6488   4.216   0.205   7.878
34883SOL    HW2 6489   4.248   0.131   7.749
34884SOL     OW 6490   6.323   6.633   0.828
34884SOL    HW1 6491   6.353   6.691   0.758
34884SOL    HW2 6492   6.351   6.546   0.800
34885SOL     OW 6493   7.443   9.901  14.064
34885SOL    HW1 6494   7.443   9.987  14.022
34885SOL    HW2 6495   7.357   9.864  14.044
34886SOL     OW 6496   0.819  12.185  10.241
34886SOL    HW1 6497   0.836  12.125  10.315
34886SOL    HW2 6498   0.783  12.263  10.282
34887SOL     OW 6499   2.250   6.255   2.547
34887SOL    HW1 6500   2.297   6.176   2.520
34887SOL    HW2 6501   2.286   6.324   2.490
34888SOL     OW 6502  10.417  13.833  11.783
34888SOL    HW1 6503  10.322  13.829  11.792
34888SOL    HW2 6504  10.448  13.747  11.809
34889SOL     OW 6505   4.164   7.914   1.274
34889SOL    HW1 6506   4.174   7.880   1.363
34889SOL    HW2 6507   4.242   7.884   1.228
34890SOL     OW 6508   1.553  13.129   8.406
34890SOL    HW1 6509   1.473  13.169   8.440
34890SOL    HW2 6510   1.525  13.045   8.369
34891SOL     OW 6511   5.996   6.518   3.847
34891SOL    HW1 6512   6.059   6.590   3.843
34891SOL    HW2 6513   5.932   6.539   3.779
34892SOL     OW 6514   2.133   6.744   2.534
34892SOL    HW1 6515   2.056   6.693   2.559
34892SOL    HW2 6516   2.184   6.685   2.478
34893SOL     OW 6517   8.543   6.424   3.800
34893SOL    HW1 6518   8.559   6.479   3.724
34893SOL    HW2 6519   8.523   6.338   3.763
34894SOL     OW 6520   8.940   3.969   4.033
34894SOL    HW1 6521   8.932   4.056   4.072
34894SOL    HW2 6522   8.853   3.930   4.044
34895SOL     OW 6523  10.466   9.060  12.109
34895SOL    HW1 6524  10.551   9.043  12.068
34895SOL    HW2 6525  10.414   8.983  12.089
34896SOL     OW 6526   5.950   5.645  10.421
34896SOL    HW1 6527   5.980   5.710  10.357
34896SOL    HW2 6528   5.986   5.675  10.504
34897SOL     OW 6529   5.515   0.256   0.742
34897SOL    HW1 6530   5.578   0.320   0.709
34897SOL    HW2 6531   5.565   0.202   0.804
34898SOL     OW 6532  11.415  10.786  13.318
34898SOL    HW1 6533  11.337  10.738  13.288
34898SOL    HW2 6534  11.470  10.793  13.240
34899SOL     OW 6535   9.940   2.372  10.238
34899SOL    HW1 6536   9.927   2.465  10.257
34899SOL    HW2 6537   9.975   2.335  10.319
34900SOL     OW 6538   0.952   3.692   2.843
34900SOL    HW1 6539   0.881   3.754   2.857
34900SOL    HW2 6540   0.952   3.637   2.922
34901SOL     OW 6541   5.502   2.818   1.780
34901SOL    HW1 6542   5.448   2.886   1.820
34901SOL    HW2 6543   5.510   2.751   1.848
34902SOL     OW 6544   6.466  10.010   0.462
34902SOL    HW1 6545   6.443  10.041   0.549
34902SOL    HW2 6546   6.399  10.048   0.404
34903SOL     OW 6547  13.448   4.612  12.059
34903SOL    HW1 6548  13.503   4.643  12.131
34903SOL    HW2 6549  13.506   4.558  12.005
34904SOL     OW 6550   4.710   3.540   5.609
34904SOL    HW1 6551   4.687   3.633   5.609
34904SOL    HW2 6552   4.771   3.530   5.682
34905SOL     OW 6553  10.817   1.870  11.184
34905SOL    HW1 6554  10.839   1.801  11.122
34905SOL    HW2 6555  10.725   1.890  11.166
34906SOL     OW 6556  10.863  11.630   9.330
34906SOL    HW1 6557  10.788  11.666   9.283
34906SOL    HW2 6558  10.935  11.634   9.267
34907SOL     OW 6559  10.607   1.793   1.260
34907SOL    HW1 6560  10.588   1.738   1.335
34907SOL    HW2 6561  10.527   1.844   1.246
34908SOL     OW 6562  12.185   4.585   2.667
34908SOL    HW1 6563  12.173   4.490   2.659
34908SOL    HW2 6564  12.270   4.602   2.628
34909SOL     OW 6565   7.616   2.169  10.415
34909SOL    HW1 6566   7.594   2.077  10.430
34909SOL    HW2 6567   7.560   2.195  10.341
34910SOL     OW 6568  14.213   4.663   5.130
34910SOL    HW1 6569  14.195   4.575   5.095
34910SOL    HW2 6570  14.301   4.656   5.167
34911SOL     OW 6571  11.421   5.136   5.269
34911SOL    HW1 6572  11.390   5.223   5.245
34911SOL    HW2 6573  11.364   5.109   5.341
34912SOL     OW 6574   4.155   3.225   1.749
34912SOL    HW1 6575   4.248   3.202   1.743
34912SOL    HW2 6576   4.154   3.321   1.750
34913SOL     OW 6577  10.841   8.537   5.914
34913SOL    HW1 6578  10.773   8.562   5.853
34913SOL    HW2 6579  10.862   8.617   5.962
34914SOL     OW 6580   4.259   2.959   1.510
34914SOL    HW1 6581   4.317   2.989   1.441
34914SOL    HW2 6582   4.306   2.977   1.591
34915SOL     OW 6583  14.810   6.384  13.146
34915SOL    HW1 6584  14.845   6.295  13.158
34915SOL    HW2 6585  14.733   6.372  13.091
34916SOL     OW 6586  11.280   8.871  13.192
34916SOL    HW1 6587  11.200   8.913  13.161
34916SOL    HW2 6588  11.251   8.806  13.255
34917SOL     OW 6589   7.951  14.367   2.174
34917SOL    HW1 6590   7.943  14.392   2.082
34917SOL    HW2 6591   7.921  14.444   2.223
34918SOL     OW 6592  10.047  12.706   0.274
34918SOL    HW1 6593  10.083  12.775   0.219
34918SOL    HW2 6594  10.002  12.647   0.213
34919SOL     OW 6595   3.079   8.646   8.917
34919SOL    HW1 6596   3.084   8.677   8.827
34919SOL    HW2 6597   3.029   8.713   8.963
34920SOL     OW 6598   7.964  12.411  12.185
34920SOL    HW1 6599   7.880  12.405  12.230
34920SOL    HW2 6600   7.955  12.486  12.127
34921SOL     OW 6601   8.865   2.523   4.487
34921SOL    HW1 6602   8.782   2.486   4.456
34921SOL    HW2 6603   8.931   2.482   4.432
34922SOL     OW 6604   1.531   5.634  12.914
34922SOL    HW1 6605   1.483   5.614  12.995
34922SOL    HW2 6606   1.495   5.573  12.849
34923SOL     OW 6607   5.447   5.996   6.636
34923SOL    HW1 6608   5.388   6.005   6.561
34923SOL    HW2 6609   5.535   6.007   6.599
34924SOL     OW 6610   4.435   0.430   8.950
34924SOL    HW1 6611   4.496   0.385   9.009
34924SOL    HW2 6612   4.348   0.404   8.981
34925SOL     OW 6613   8.935   3.788   1.143
34925SOL    HW1 6614   8.865   3.803   1.080
34925SOL    HW2 6615   8.987   3.717   1.106
34926SOL     OW 6616  11.122  11.132  14.462
34926SOL    HW1 6617  11.055  11.133  14.530
34926SOL    HW2 6618  11.165  11.047  14.472
34927SOL     OW 6619   7.836  11.245  10.339
34927SOL    HW1 6620   7.910  11.306  10.334
34927SOL    HW2 6621   7.875  11.158  10.327
34928SOL     OW 6622  11.634   9.551   7.989
34928SOL    HW1 6623  11.683   9.469   7.986
34928SOL    HW2 6624  11.622   9.568   8.082
34929SOL     OW 6625   0.002   8.287   7.543
34929SOL    HW1 6626   0.082   8.338   7.533
34929SOL    HW2 6627  14.820   8.325   7.481
34930SOL     OW 6628  10.202   8.042   8.489
34930SOL    HW1 6629  10.268   7.975   8.506
34930SOL    HW2 6630  10.124   7.993   8.464
34931SOL     OW 6631   8.489  11.672  14.529
34931SOL    HW1 6632   8.504  11.725  14.450
34931SOL    HW2 6633   8.575  11.636  14.550
34932SOL     OW 6634  13.491   4.022  11.294
34932SOL    HW1 6635  13.504   3.940  11.341
34932SOL    HW2 6636  13.539   4.011  11.212
34933SOL     OW 6637   5.477  11.942   6.213
34933SOL    HW1 6638   5.568  11.974   6.210
34933SOL    HW2 6639   5.457  11.918   6.122
34934SOL     OW 6640   2.451   6.889  11.138
34934SOL    HW1 6641   2.544   6.895  11.155
34934SOL    HW2 6642   2.445   6.846  11.052
34935SOL     OW 6643   0.126   0.630   5.291
34935SOL    HW1 6644   0.203   0.663   5.245
34935SOL    HW2 6645   0.149   0.540   5.313
34936SOL     OW 6646  11.041   0.101  14.779
34936SOL    HW1 6647  11.007   0.021  14.819
34936SOL    HW2 6648  10.995   0.172  14.823
34937SOL     OW 6649   3.343   5.024   5.042
34937SOL    HW1 6650   3.337   5.086   5.115
34937SOL    HW2 6651   3.390   5.072   4.974
34938SOL     OW 6652  14.011  10.206   7.394
34938SOL    HW1 6653  13.968  10.270   7.337
34938SOL    HW2 6654  14.001  10.241   7.482
34939SOL     OW 6655   9.099  13.853  10.373
34939SOL    HW1 6656   9.016  13.850  10.326
34939SOL    HW2 6657   9.080  13.813  10.458
34940SOL     OW 6658   4.842   3.114   7.979
34940SOL    HW1 6659   4.821   3.176   7.909
34940SOL    HW2 6660   4.760   3.104   8.026
34941SOL     OW 6661   3.534   7.906  12.744
34941SOL    HW1 6662   3.568   7.949  12.666
34941SOL    HW2 6663   3.469   7.966  12.779
34942SOL     OW 6664   0.558   7.539  10.867
34942SOL    HW1 6665   0.503   7.608  10.831
34942SOL    HW2 6666   0.515   7.513  10.948
34943SOL     OW 6667   1.766  10.166   6.532
34943SOL    HW1 6668   1.766  10.188   6.625
34943SOL    HW2 6669   1.821  10.088   6.526
34944SOL     OW 6670   2.343   9.499  10.018
34944SOL    HW1 6671   2.311   9.428   9.962
34944SOL    HW2 6672   2.353   9.458  10.104
34945SOL     OW 6673   1.935   8.045  11.453
34945SOL    HW1 6674   1.924   7.974  11.390
34945SOL    HW2 6675   1.928   8.125  11.400
34946SOL     OW 6676   5.950   1.039   0.106
34946SOL    HW1 6677   6.007   0.980   0.057
34946SOL    HW2 6678   6.009   1.108   0.137
34947SOL     OW 6679  10.685   9.194  11.630
34947SOL    HW1 6680  10.691   9.236  11.716
34947SOL    HW2 6681  10.692   9.100  11.649
34948SOL     OW 6682   9.922   1.094  12.269
34948SOL    HW1 6683   9.884   1.013  12.235
34948SOL    HW2 6684   9.892   1.098  12.360
34949SOL     OW 6685   4.131  14.873   4.025
34949SOL    HW1 6686   4.126  14.796   4.082
34949SOL    HW2 6687   4.131  14.837   3.937
34950SOL     OW 6688  14.126   3.167  12.164
34950SOL    HW1 6689  14.203   3.161  12.108
34950SOL    HW2 6690  14.133   3.253  12.206
34951SOL     OW 6691  12.420   5.195   8.542
34951SOL    HW1 6692  12.336   5.153   8.563
34951SOL    HW2 6693  12.472   5.186   8.622
34952SOL     OW 6694   4.521  13.041  10.952
34952SOL    HW1 6695   4.607  13.082  10.952
34952SOL    HW2 6696   4.531  12.963  10.897
34953SOL     OW 6697   1.568   2.228  11.628
34953SOL    HW1 6698   1.609   2.186  11.552
34953SOL    HW2 6699   1.560   2.320  11.603
34954SOL     OW 6700  13.035   1.919   8.889
34954SOL    HW1 6701  12.953   1.965   8.908
34954SOL    HW2 6702  13.011   1.826   8.891
34955SOL     OW 6703   5.648   7.667   9.471
34955SOL    HW1 6704   5.710   7.672   9.398
34955SOL    HW2 6705   5.624   7.758   9.489
34956SOL     OW 6706   5.845  14.157   0.302
34956SOL    HW1 6707   5.909  14.111   0.249
34956SOL    HW2 6708   5.892  14.179   0.383
34957SOL     OW 6709   9.083   0.829  13.904
34957SOL    HW1 6710   9.054   0.835  13.813
34957SOL    HW2 6711   9.177   0.845  13.901
34958SOL     OW 6712   3.528   6.234  13.423
34958SOL    HW1 6713   3.449   6.224  13.370
34958SOL    HW2 6714   3.504   6.298  13.490
34959SOL     OW 6715   5.201   6.426   4.189
34959SOL    HW1 6716   5.143   6.352   4.210
34959SOL    HW2 6717   5.161   6.501   4.233
34960SOL     OW 6718   2.780   7.971   7.637
34960SOL    HW1 6719   2.711   8.007   7.693
34960SOL    HW2 6720   2.745   7.886   7.608
34961SOL     OW 6721   1.682   5.476   0.569
34961SOL    HW1 6722   1.613   5.409   0.564
34961SOL    HW2 6723   1.639   5.553   0.607
34962SOL     OW 6724   7.595   8.671  14.716
34962SOL    HW1 6725   7.624   8.713  14.797
34962SOL    HW2 6726   7.505   8.703  14.703
34963SOL     OW 6727   7.319  10.623   1.380
34963SOL    HW1 6728   7.355  10.638   1.293
34963SOL    HW2 6729   7.384  10.659   1.440
34964SOL     OW 6730   0.755   2.887   6.837
34964SOL    HW1 6731   0.739   2.796   6.815
34964SOL    HW2 6732   0.670   2.920   6.866
34965SOL     OW 6733   8.437  12.970  11.793
34965SOL    HW1 6734   8.374  13.003  11.729
34965SOL    HW2 6735   8.394  12.893  11.831
34966SOL     OW 6736  11.071   7.895  13.275
34966SOL    HW1 6737  11.037   7.814  13.314
34966SOL    HW2 6738  11.107   7.867  13.191
34967SOL     OW 6739   5.891  10.422   6.016
34967SOL    HW1 6740   5.890  10.435   5.921
34967SOL    HW2 6741   5.966  10.365   6.032
34968SOL     OW 6742  12.771  13.798  13.179
34968SOL    HW1 6743  12.693  13.751  13.209
34968SOL    HW2 6744  12.742  13.890  13.172
34969SOL     OW 6745   8.564   6.199  11.672
34969SOL    HW1 6746   8.608   6.284  11.680
34969SOL    HW2 6747   8.509   6.207  11.595
34970SOL     OW 6748   6.856  10.949  14.116
34970SOL    HW1 6749   6.827  10.971  14.028
34970SOL    HW2 6750   6.788  10.985  14.173
34971SOL     OW 6751  11.983   8.506  12.281
34971SOL    HW1 6752  11.986   8.602  12.278
34971SOL    HW2 6753  12.039   8.478  12.208
34972SOL     OW 6754   3.084   2.691  14.186
34972SOL    HW1 6755   3.006   2.675  14.239
34972SOL    HW2 6756   3.153   2.639  14.229
34973SOL     OW 6757   9.720  14.098   6.158
34973SOL    HW1 6758   9.628  14.103   6.133
34973SOL    HW2 6759   9.757  14.183   6.132
34974SOL     OW 6760   0.937   9.579   7.710
34974SOL    HW1 6761   0.908   9.589   7.801
34974SOL    HW2 6762   0.999   9.506   7.712
34975SOL     OW 6763   5.282   0.014   3.564
34975SOL    HW1 6764   5.297  14.834   3.638
34975SOL    HW2 6765   5.323  14.849   3.490
34976SOL     OW 6766   0.680  12.865   5.639
34976SOL    HW1 6767   0.584  12.863   5.637
34976SOL    HW2 6768   0.702  12.957   5.623
34977SOL     OW 6769   2.243   7.600   0.273
34977SOL    HW1 6770   2.160   7.629   0.311
34977SOL    HW2 6771   2.242   7.505   0.283
34978SOL     OW 6772  14.181   8.489   3.827
34978SOL    HW1 6773  14.148   8.525   3.909
34978SOL    HW2 6774  14.107   8.493   3.766
34979SOL     OW 6775  13.263   1.038   1.566
34979SOL    HW1 6776  13.217   0.955   1.579
34979SOL    HW2 6777  13.348   1.025   1.609
34980SOL     OW 6778   7.247   6.636  13.610
34980SOL    HW1 6779   7.310   6.601  13.547
34980SOL    HW2 6780   7.162   6.612  13.575
34981SOL     OW 6781   6.864   7.460   7.352
34981SOL    HW1 6782   6.858   7.541   7.403
34981SOL    HW2 6783   6.956   7.434   7.358
34982SOL     OW 6784   9.974   3.812  14.235
34982SOL    HW1 6785  10.015   3.777  14.156
34982SOL    HW2 6786   9.890   3.766  14.240
34983SOL     OW 6787  11.544  13.387   9.605
34983SOL    HW1 6788  11.488  13.312   9.625
34983SOL    HW2 6789  11.500  13.431   9.532
34984SOL     OW 6790   8.620   5.801   1.680
34984SOL    HW1 6791   8.618   5.822   1.586
34984SOL    HW2 6792   8.563   5.866   1.720
34985SOL     OW 6793   2.952   0.476   6.442
34985SOL    HW1 6794   2.887   0.466   6.372
34985SOL    HW2 6795   2.981   0.567   6.434
34986SOL     OW 6796   8.754   4.592  10.518
34986SOL    HW1 6797   8.689   4.604  10.449
34986SOL    HW2 6798   8.838   4.598  10.473
34987SOL     OW 6799  13.011  11.008  12.307
34987SOL    HW1 6800  12.922  10.999  12.342
34987SOL    HW2 6801  13.000  11.050  12.222
34988SOL     OW 6802  10.680  10.164  13.577
34988SOL    HW1 6803  10.603  10.219  13.560
34988SOL    HW2 6804  10.690  10.165  13.672
34989SOL     OW 6805  13.831   7.834   5.120
34989SOL    HW1 6806  13.842   7.757   5.175
34989SOL    HW2 6807  13.755   7.814   5.065
34990SOL     OW 6808  13.936   0.333   6.499
34990SOL    HW1 6809  13.894   0.393   6.562
34990SOL    HW2 6810  13.954   0.254   6.550
34991SOL     OW 6811   7.319   1.779   0.628
34991SOL    HW1 6812   7.362   1.835   0.692
34991SOL    HW2 6813   7.371   1.787   0.548
34992SOL     OW 6814   7.923  12.007   3.002
34992SOL    HW1 6815   7.834  11.973   2.988
34992SOL    HW2 6816   7.909  12.097   3.032
34993SOL     OW 6817  11.612   3.143  12.408
34993SOL    HW1 6818  11.655   3.134  12.323
34993SOL    HW2 6819  11.670   3.201  12.457
34994SOL     OW 6820  11.988   6.902   6.385
34994SOL    HW1 6821  11.910   6.953   6.363
34994SOL    HW2 6822  12.022   6.942   6.465
34995SOL     OW 6823  11.454   0.844   5.808
34995SOL    HW1 6824  11.448   0.810   5.897
34995SOL    HW2 6825  11.394   0.789   5.757
34996SOL     OW 6826   2.029   8.923   2.450
34996SOL    HW1 6827   2.048   8.983   2.522
34996SOL    HW2 6828   1.997   8.979   2.380
34997SOL     OW 6829   9.269   3.786   3.160
34997SOL    HW1 6830   9.332   3.852   3.131
34997SOL    HW2 6831   9.296   3.706   3.116
34998SOL     OW 6832   6.478   7.579   9.256
34998SOL    HW1 6833   6.455   7.639   9.327
34998SOL    HW2 6834   6.434   7.614   9.179
34999SOL     OW 6835   6.358   9.267   8.847
34999SOL    HW1 6836   6.429   9.318   8.885
34999SOL    HW2 6837   6.307   9.237   8.922
35000SOL     OW 6838  14.110  14.251  10.891
35000SOL    HW1 6839  14.095  14.203  10.809
35000SOL    HW2 6840  14.202  14.274  10.889
35001SOL     OW 6841  14.167  10.900   3.186
35001SOL    HW1 6842  14.126  10.867   3.265
35001SOL    HW2 6843  14.250  10.852   3.180
35002SOL     OW 6844  13.538   7.575   1.070
35002SOL    HW1 6845  13.605   7.638   1.044
35002SOL    HW2 6846  13.585   7.492   1.080
35003SOL     OW 6847  13.130  14.809   3.671
35003SOL    HW1 6848  13.150  14.863   3.595
35003SOL    HW2 6849  13.209  14.756   3.684
35004SOL     OW 6850   1.115   0.841   8.617
35004SOL    HW1 6851   1.101   0.935   8.606
35004SOL    HW2 6852   1.206   0.827   8.590
35005SOL     OW 6853   8.819   8.348   0.911
35005SOL    HW1 6854   8.886   8.289   0.944
35005SOL    HW2 6855   8.803   8.319   0.821
35006SOL     OW 6856   3.359  11.563   3.705
35006SOL    HW1 6857   3.421  11.536   3.772
35006SOL    HW2 6858   3.342  11.484   3.654
35007SOL     OW 6859   2.465   5.091  10.373
35007SOL    HW1 6860   2.524   5.080  10.447
35007SOL    HW2 6861   2.380   5.058  10.404
35008SOL     OW 6862   0.716  14.379   8.484
35008SOL    HW1 6863   0.784  14.414   8.542
35008SOL    HW2 6864   0.635  14.418   8.517
35009SOL     OW 6865   4.365  10.120   3.252
35009SOL    HW1 6866   4.386  10.181   3.322
35009SOL    HW2 6867   4.300  10.165   3.198
35010SOL     OW 6868   7.799   0.878  13.045
35010SOL    HW1 6869   7.708   0.859  13.067
35010SOL    HW2 6870   7.850   0.836  13.114
35011SOL     OW 6871  11.526   6.998   9.950
35011SOL    HW1 6872  11.476   7.018   9.871
35011SOL    HW2 6873  11.561   7.082   9.978
35012SOL     OW 6874  14.414   5.935   7.194
35012SOL    HW1 6875  14.356   6.004   7.226
35012SOL    HW2 6876  14.397   5.861   7.253
35013SOL     OW 6877   9.069   9.733   0.353
35013SOL    HW1 6878   9.079   9.818   0.396
35013SOL    HW2 6879   9.020   9.752   0.273
35014SOL     OW 6880   8.250   4.022   0.760
35014SOL    HW1 6881   8.316   3.959   0.731
35014SOL    HW2 6882   8.187   4.026   0.688
35015SOL     OW 6883   3.767   4.797   1.793
35015SOL    HW1 6884   3.823   4.759   1.861
35015SOL    HW2 6885   3.788   4.890   1.795
35016SOL     OW 6886   1.818  11.972  14.082
35016SOL    HW1 6887   1.821  11.882  14.050
35016SOL    HW2 6888   1.900  12.012  14.054
35017SOL     OW 6889   3.811  10.999   1.535
35017SOL    HW1 6890   3.846  10.926   1.585
35017SOL    HW2 6891   3.876  11.014   1.466
35018SOL     OW 6892  13.358   6.254   8.462
35018SOL    HW1 6893  13.406   6.172   8.478
35018SOL    HW2 6894  13.399   6.290   8.384
35019SOL     OW 6895   6.115   0.640   4.671
35019SOL    HW1 6896   6.129   0.559   4.721
35019SOL    HW2 6897   6.188   0.697   4.695
35020SOL     OW 6898   8.521  14.705  13.747
35020SOL    HW1 6899   8.548  14.622  13.708
35020SOL    HW2 6900   8.447  14.734  13.694
35021SOL     OW 6901   2.217   4.905   0.307
35021SOL    HW1 6902   2.248   4.983   0.263
35021SOL    HW2 6903   2.158   4.863   0.244
35022SOL     OW 6904   9.389   4.317   9.532
35022SOL    HW1 6905   9.344   4.236   9.508
35022SOL    HW2 6906   9.457   4.290   9.593
35023SOL     OW 6907   9.531  12.997  10.335
35023SOL    HW1 6908   9.566  13.023  10.250
35023SOL    HW2 6909   9.565  12.909  10.350
35024SOL     OW 6910   1.764  12.284   7.313
35024SOL    HW1 6911   1.817  12.308   7.237
35024SOL    HW2 6912   1.775  12.357   7.374
35025SOL     OW 6913  12.447  10.267   3.229
35025SOL    HW1 6914  12.362  10.279   3.272
35025SOL    HW2 6915  12.428  10.210   3.154
35026SOL     OW 6916   6.746  14.591   1.336
35026SOL    HW1 6917   6.788  14.611   1.420
35026SOL    HW2 6918   6.667  14.646   1.336
35027SOL     OW 6919   1.669   4.306  13.241
35027SOL    HW1 6920   1.647   4.214  13.254
35027SOL    HW2 6921   1.765   4.308  13.242
35028SOL     OW 6922  10.917  12.101  13.044
35028SOL    HW1 6923  10.928  12.034  12.977
35028SOL    HW2 6924  10.865  12.059  13.112
35029SOL     OW 6925   1.353   8.542  12.987
35029SOL    HW1 6926   1.420   8.478  13.011
35029SOL    HW2 6927   1.365   8.613  13.050
35030SOL     OW 6928   0.473  10.032   5.529
35030SOL    HW1 6929   0.417  10.108   5.517
35030SOL    HW2 6930   0.559  10.060   5.498
35031SOL     OW 6931  10.346   0.591  12.096
35031SOL    HW1 6932  10.264   0.543  12.086
35031SOL    HW2 6933  10.414   0.524  12.087
35032SOL     OW 6934   2.423  14.379   4.245
35032SOL    HW1 6935   2.375  14.449   4.289
35032SOL    HW2 6936   2.514  14.408   4.247
35033SOL     OW 6937   3.134   1.144   3.430
35033SOL    HW1 6938   3.158   1.134   3.337
35033SOL    HW2 6939   3.148   1.236   3.449
35034SOL     OW 6940   6.342  14.494   9.815
35034SOL    HW1 6941   6.331  14.443   9.734
35034SOL    HW2 6942   6.292  14.445   9.881
35035SOL     OW 6943  12.254   1.519  13.169
35035SOL    HW1 6944  12.235   1.534  13.076
35035SOL    HW2 6945  12.181   1.561  13.215
35036SOL     OW 6946   9.979   7.275  11.204
35036SOL    HW1 6947  10.016   7.203  11.255
35036SOL    HW2 6948  10.034   7.350  11.225
35037SOL     OW 6949  11.069  13.928   8.063
35037SOL    HW1 6950  11.116  13.991   8.009
35037SOL    HW2 6951  11.134  13.895   8.124
35038SOL     OW 6952  11.158   4.691  14.668
35038SOL    HW1 6953  11.155   4.606  14.624
35038SOL    HW2 6954  11.230   4.737  14.624
35039SOL     OW 6955  11.574  10.425  10.610
35039SOL    HW1 6956  11.493  10.473  10.591
35039SOL    HW2 6957  11.630  10.441  10.534
35040SOL     OW 6958  10.020   8.209  13.020
35040SOL    HW1 6959  10.090   8.144  13.017
35040SOL    HW2 6960   9.992   8.219  12.929
35041SOL     OW 6961  10.312   2.880   3.358
35041SOL    HW1 6962  10.328   2.906   3.268
35041SOL    HW2 6963  10.336   2.787   3.361
35042SOL     OW 6964   7.707   2.583   5.990
35042SOL    HW1 6965   7.644   2.651   5.966
35042SOL    HW2 6966   7.763   2.574   5.912
35043SOL     OW 6967   3.699   2.573   6.648
35043SOL    HW1 6968   3.790   2.591   6.669
35043SOL    HW2 6969   3.659   2.659   6.640
35044SOL     OW 6970   7.060  10.332  12.133
35044SOL    HW1 6971   7.097  10.315  12.220
35044SOL    HW2 6972   7.013  10.415  12.144
35045SOL     OW 6973  14.520  10.073   2.480
35045SOL    HW1 6974  14.433  10.103   2.504
35045SOL    HW2 6975  14.576  10.101   2.553
35046SOL     OW 6976   4.477   8.056  13.672
35046SOL    HW1 6977   4.412   8.032  13.606
35046SOL    HW2 6978   4.470   7.988  13.739
35047SOL     OW 6979   9.348  14.519   6.836
35047SOL    HW1 6980   9.436  14.548   6.810
35047SOL    HW2 6981   9.331  14.564   6.919
35048SOL     OW 6982   0.476   1.896  10.443
35048SOL    HW1 6983   0.480   1.959  10.371
35048SOL    HW2 6984   0.559   1.848  10.438
35049SOL     OW 6985   1.984   0.140   6.940
35049SOL    HW1 6986   2.074   0.161   6.916
35049SOL    HW2 6987   1.931   0.209   6.899
35050SOL     OW 6988  13.909   9.969   0.803
35050SOL    HW1 6989  13.921   9.958   0.709
35050SOL    HW2 6990  13.868   9.887   0.832
35051SOL     OW 6991   0.354   9.308   3.608
35051SOL    HW1 6992   0.377   9.260   3.529
35051SOL    HW2 6993   0.371   9.247   3.679
35052SOL     OW 6994   7.375   0.812  11.334
35052SOL    HW1 6995   7.334   0.873  11.273
35052SOL    HW2 6996   7.321   0.734  11.330
35053SOL     OW 6997   5.794   2.355   6.062
35053SOL    HW1 6998   5.854   2.422   6.031
35053SOL    HW2 6999   5.828   2.273   6.026
35054SOL     OW 7000  13.131  14.179   9.786
35054SOL    HW1 7001  13.111  14.206   9.696
35054SOL    HW2 7002  13.212  14.225   9.807
35055SOL     OW 7003  10.552  13.943   4.083
35055SOL    HW1 7004  10.599  13.953   4.000
35055SOL    HW2 7005  10.466  13.909   4.058
35056SOL     OW 7006   4.716   8.035   2.645
35056SOL    HW1 7007   4.778   8.043   2.572
35056SOL    HW2 7008   4.772   8.026   2.723
35057SOL     OW 7009   6.851   2.891  13.306
35057SOL    HW1 7010   6.919   2.864  13.244
35057SOL    HW2 7011   6.861   2.985  13.314
35058SOL     OW 7012   3.291  11.583   4.665
35058SOL    HW1 7013   3.354  11.653   4.683
35058SOL    HW2 7014   3.289  11.577   4.570
35059SOL     OW 7015  13.234  12.071   6.912
35059SOL    HW1 7016  13.294  12.092   6.840
35059SOL    HW2 7017  13.285  12.086   6.991
35060SOL     OW 7018   2.010   2.648   5.460
35060SOL    HW1 7019   2.006   2.560   5.423
35060SOL    HW2 7020   2.064   2.639   5.539
35061SOL     OW 7021   9.077  14.871   0.706
35061SOL    HW1 7022   9.086   0.047   0.784
35061SOL    HW2 7023   9.164  14.871   0.666
35062SOL     OW 7024   7.020   5.274   9.956
35062SOL    HW1 7025   6.998   5.182   9.971
35062SOL    HW2 7026   7.052   5.305  10.040
35063SOL     OW 7027  10.394  12.560  11.018
35063SOL    HW1 7028  10.345  12.641  10.998
35063SOL    HW2 7029  10.385  12.507  10.939
35064SOL     OW 7030   2.524   5.297  12.217
35064SOL    HW1 7031   2.619   5.293  12.213
35064SOL    HW2 7032   2.503   5.288  12.309
35065SOL     OW 7033   4.108   7.828   3.033
35065SOL    HW1 7034   4.033   7.885   3.013
35065SOL    HW2 7035   4.184   7.885   3.022
35066SOL     OW 7036   5.345  12.887   6.201
35066SOL    HW1 7037   5.395  12.948   6.255
35066SOL    HW2 7038   5.391  12.803   6.212
35067SOL     OW 7039   3.027  13.525  10.390
35067SOL    HW1 7040   3.080  13.550  10.314
35067SOL    HW2 7041   2.984  13.606  10.417
35068SOL     OW 7042   4.524   7.710   0.082
35068SOL    HW1 7043   4.501   7.799   0.111
35068SOL    HW2 7044   4.618   7.716   0.063
35069SOL     OW 7045  13.661   2.047   2.296
35069SOL    HW1 7046  13.651   2.087   2.383
35069SOL    HW2 7047  13.726   1.978   2.310
35070SOL     OW 7048  10.313   0.405   1.708
35070SOL    HW1 7049  10.323   0.313   1.733
35070SOL    HW2 7050  10.358   0.454   1.777
35071SOL     OW 7051  11.126   0.631   2.493
35071SOL    HW1 7052  11.194   0.697   2.483
35071SOL    HW2 7053  11.100   0.609   2.403
35072SOL     OW 7054   7.980  10.250   4.933
35072SOL    HW1 7055   8.022  10.330   4.901
35072SOL    HW2 7056   7.887  10.265   4.920
35073SOL     OW 7057   4.705   8.989  13.516
35073SOL    HW1 7058   4.654   9.055  13.563
35073SOL    HW2 7059   4.705   8.913  13.573
35074SOL     OW 7060   5.566   6.494  13.616
35074SOL    HW1 7061   5.515   6.476  13.538
35074SOL    HW2 7062   5.520   6.449  13.687
35075SOL     OW 7063   6.589   3.273   2.108
35075SOL    HW1 7064   6.591   3.340   2.177
35075SOL    HW2 7065   6.511   3.221   2.127
35076SOL     OW 7066   0.073   7.875  14.165
35076SOL    HW1 7067   0.003   7.884  14.229
35076SOL    HW2 7068   0.027   7.864  14.081
35077SOL     OW 7069   9.686  11.041  13.137
35077SOL    HW1 7070   9.774  11.002  13.133
35077SOL    HW2 7071   9.688  11.113  13.073
35078SOL     OW 7072  10.247   6.830   4.658
35078SOL    HW1 7073  10.160   6.871   4.657
35078SOL    HW2 7074  10.251   6.780   4.577
35079SOL     OW 7075   2.591   0.043   1.498
35079SOL    HW1 7076   2.608   0.052   1.591
35079SOL    HW2 7077   2.577   0.132   1.467
35080SOL     OW 7078  12.427   0.154   3.566
35080SOL    HW1 7079  12.374   0.167   3.488
35080SOL    HW2 7080  12.491   0.087   3.541
35081SOL     OW 7081  12.110   0.705   4.128
35081SOL    HW1 7082  12.110   0.765   4.202
35081SOL    HW2 7083  12.124   0.618   4.167
35082SOL     OW 7084   6.507  13.634   3.339
35082SOL    HW1 7085   6.544  13.653   3.425
35082SOL    HW2 7086   6.500  13.719   3.296
35083SOL     OW 7087   1.035   1.341  13.787
35083SOL    HW1 7088   0.971   1.315  13.853
35083SOL    HW2 7089   1.048   1.262  13.733
35084SOL     OW 7090   9.509  11.022   4.011
35084SOL    HW1 7091   9.517  10.993   4.101
35084SOL    HW2 7092   9.432  10.976   3.978
35085SOL     OW 7093   5.441   9.312  12.297
35085SOL    HW1 7094   5.535   9.312  12.316
35085SOL    HW2 7095   5.400   9.343  12.377
35086SOL     OW 7096  12.702   0.275   4.334
35086SOL    HW1 7097  12.628   0.218   4.312
35086SOL    HW2 7098  12.663   0.362   4.345
35087SOL     OW 7099   9.135   2.033   6.694
35087SOL    HW1 7100   9.210   1.974   6.681
35087SOL    HW2 7101   9.104   2.013   6.782
35088SOL     OW 7102  14.207  14.048  13.384
35088SOL    HW1 7103  14.222  14.136  13.417
35088SOL    HW2 7104  14.177  14.060  13.294
35089SOL     OW 7105   1.116   5.780   2.068
35089SOL    HW1 7106   1.168   5.811   1.993
35089SOL    HW2 7107   1.155   5.824   2.143
35090SOL     OW 7108   0.516   1.351   6.947
35090SOL    HW1 7109   0.539   1.359   6.854
35090SOL    HW2 7110   0.482   1.261   6.956
35091SOL     OW 7111  12.964  11.095   1.637
35091SOL    HW1 7112  12.886  11.108   1.582
35091SOL    HW2 7113  12.972  11.176   1.686
35092SOL     OW 7114  12.921  12.990  10.304
35092SOL    HW1 7115  12.850  13.016  10.363
35092SOL    HW2 7116  12.991  12.961  10.363
35093SOL     OW 7117   6.545  13.285   3.408
35093SOL    HW1 7118   6.470  13.286   3.468
35093SOL    HW2 7119   6.541  13.198   3.367
35094SOL     OW 7120  13.846   3.844   3.814
35094SOL    HW1 7121  13.761   3.818   3.850
35094SOL    HW2 7122  13.902   3.767   3.826
35095SOL     OW 7123  11.741   2.499  14.834
35095SOL    HW1 7124  11.783   2.453  14.760
35095SOL    HW2 7125  11.746   2.592  14.810
35096SOL     OW 7126   5.469   1.422  11.104
35096SOL    HW1 7127   5.458   1.436  11.010
35096SOL    HW2 7128   5.388   1.456  11.143
35097SOL     OW 7129   3.017   7.830   8.046
35097SOL    HW1 7130   2.996   7.922   8.064
35097SOL    HW2 7131   2.961   7.808   7.972
35098SOL     OW 7132   0.737   9.184  11.630
35098SOL    HW1 7133   0.674   9.138  11.574
35098SOL    HW2 7134   0.801   9.221  11.569
35099SOL     OW 7135  12.895   5.032   4.995
35099SOL    HW1 7136  12.808   5.011   4.963
35099SOL    HW2 7137  12.920   5.112   4.947
35100SOL     OW 7138  12.655   0.247   0.274
35100SOL    HW1 7139  12.743   0.247   0.312
35100SOL    HW2 7140  12.663   0.300   0.195
35101SOL     OW 7141  14.065  11.500   7.316
35101SOL    HW1 7142  14.021  11.584   7.330
35101SOL    HW2 7143  14.150  11.523   7.280
35102SOL     OW 7144   5.502   9.015  13.669
35102SOL    HW1 7145   5.491   8.947  13.603
35102SOL    HW2 7146   5.456   9.091  13.632
35103SOL     OW 7147  12.447   5.020  14.533
35103SOL    HW1 7148  12.508   5.001  14.605
35103SOL    HW2 7149  12.502   5.018  14.455
35104SOL     OW 7150  10.969   0.002   5.166
35104SOL    HW1 7151  11.057   0.010   5.202
35104SOL    HW2 7152  10.976   0.037   5.077
35105SOL     OW 7153  13.484  10.534   3.627
35105SOL    HW1 7154  13.393  10.524   3.598
35105SOL    HW2 7155  13.536  10.517   3.549
35106SOL     OW 7156   6.018   8.289  14.278
35106SOL    HW1 7157   6.113   8.299  14.281
35106SOL    HW2 7158   6.001   8.247  14.194
35107SOL     OW 7159   5.022   1.788  10.470
35107SOL    HW1 7160   5.010   1.745  10.385
35107SOL    HW2 7161   4.937   1.780  10.513
35108SOL     OW 7162  13.190   3.107   9.844
35108SOL    HW1 7163  13.220   3.067   9.762
35108SOL    HW2 7164  13.196   3.201   9.829
35109SOL     OW 7165   4.940   7.369   6.302
35109SOL    HW1 7166   5.032   7.372   6.273
35109SOL    HW2 7167   4.893   7.421   6.237
35110SOL     OW 7168   6.182   6.991   8.292
35110SOL    HW1 7169   6.268   6.968   8.257
35110SOL    HW2 7170   6.186   7.086   8.305
35111SOL     OW 7171  12.514   0.017  13.350
35111SOL    HW1 7172  12.455   0.044  13.279
35111SOL    HW2 7173  12.597   0.001  13.306
35112SOL     OW 7174   0.312  14.526   2.088
35112SOL    HW1 7175   0.398  14.483   2.084
35112SOL    HW2 7176   0.276  14.499   2.172
35113SOL     OW 7177   6.344   0.778  12.951
35113SOL    HW1 7178   6.418   0.827  12.987
35113SOL    HW2 7179   6.360   0.688  12.979
35114SOL     OW 7180  11.945   2.171   9.320
35114SOL    HW1 7181  11.874   2.194   9.379
35114SOL    HW2 7182  11.981   2.090   9.356
35115SOL     OW 7183   1.644  12.528   9.123
35115SOL    HW1 7184   1.609  12.615   9.103
35115SOL    HW2 7185   1.739  12.539   9.118
35116SOL     OW 7186   0.185  12.235   5.264
35116SOL    HW1 7187   0.230  12.179   5.201
35116SOL    HW2 7188   0.092  12.212   5.255
35117SOL     OW 7189  11.711  13.312  12.763
35117SOL    HW1 7190  11.732  13.362  12.842
35117SOL    HW2 7191  11.687  13.225  12.794
35118SOL     OW 7192  10.915  13.322  13.417
35118SOL    HW1 7193  10.856  13.249  13.430
35118SOL    HW2 7194  10.859  13.400  13.419
35119SOL     OW 7195  11.545   3.715  10.692
35119SOL    HW1 7196  11.594   3.660  10.753
35119SOL    HW2 7197  11.582   3.694  10.606
35120SOL     OW 7198   0.926  10.831   2.116
35120SOL    HW1 7199   0.926  10.868   2.205
35120SOL    HW2 7200   0.987  10.887   2.068
35121SOL     OW 7201   3.024   0.212  12.164
35121SOL    HW1 7202   3.052   0.163  12.241
35121SOL    HW2 7203   2.997   0.297  12.198
35122SOL     OW 7204  10.577   4.586  10.030
35122SOL    HW1 7205  10.550   4.609  10.119
35122SOL    HW2 7206  10.625   4.662   9.999
35123SOL     OW 7207   0.629  11.664  10.015
35123SOL    HW1 7208   0.711  11.674  10.063
35123SOL    HW2 7209   0.616  11.569  10.010
35124SOL     OW 7210   8.742   7.581   7.783
35124SOL    HW1 7211   8.730   7.673   7.761
35124SOL    HW2 7212   8.667   7.537   7.743
35125SOL     OW 7213   3.689  10.792   5.255
35125SOL    HW1 7214   3.654  10.757   5.173
35125SOL    HW2 7215   3.729  10.876   5.230
35126SOL     OW 7216   6.776   7.882  14.580
35126SOL    HW1 7217   6.819   7.933  14.648
35126SOL    HW2 7218   6.722   7.819  14.627
35127SOL     OW 7219   3.982   5.053   3.662
35127SOL    HW1 7220   3.953   5.088   3.577
35127SOL    HW2 7221   3.902   5.050   3.714
35128SOL     OW 7222   5.630  10.574   2.064
35128SOL    HW1 7223   5.588  10.543   2.145
35128SOL    HW2 7224   5.566  10.554   1.995
35129SOL     OW 7225   2.226  10.813   1.489
35129SOL    HW1 7226   2.242  10.844   1.578
35129SOL    HW2 7227   2.288  10.863   1.435
35130SOL     OW 7228   4.357  12.592  13.994
35130SOL    HW1 7229   4.330  12.601  14.085
35130SOL    HW2 7230   4.449  12.566  13.999
35131SOL     OW 7231   1.811   5.464   9.103
35131SOL    HW1 7232   1.816   5.480   9.009
35131SOL    HW2 7233   1.770   5.543   9.139
35132SOL     OW 7234  14.007  12.924   0.192
35132SOL    HW1 7235  14.048  12.968   0.118
35132SOL    HW2 7236  14.074  12.924   0.260
35133SOL     OW 7237   3.623   1.950   3.481
35133SOL    HW1 7238   3.590   2.010   3.548
35133SOL    HW2 7239   3.596   1.863   3.511
35134SOL     OW 7240  14.018  12.086   1.747
35134SOL    HW1 7241  14.011  12.170   1.702
35134SOL    HW2 7242  14.049  12.109   1.835
35135SOL     OW 7243   8.746   6.646  11.064
35135SOL    HW1 7244   8.780   6.586  11.130
35135SOL    HW2 7245   8.745   6.595  10.983
35136SOL     OW 7246   8.851  14.704   7.592
35136SOL    HW1 7247   8.882  14.720   7.503
35136SOL    HW2 7248   8.846  14.791   7.632
35137SOL     OW 7249   9.220   0.326   2.389
35137SOL    HW1 7250   9.147   0.302   2.446
35137SOL    HW2 7251   9.181   0.335   2.302
35138SOL     OW 7252   5.753   8.861   3.379
35138SOL    HW1 7253   5.700   8.931   3.341
35138SOL    HW2 7254   5.842   8.880   3.351
35139SOL     OW 7255   5.273  12.167   4.760
35139SOL    HW1 7256   5.356  12.164   4.808
35139SOL    HW2 7257   5.288  12.110   4.684
35140SOL     OW 7258   3.133   9.413   6.953
35140SOL    HW1 7259   3.184   9.338   6.923
35140SOL    HW2 7260   3.195   9.466   7.003
35141SOL     OW 7261  10.099  13.571  14.596
35141SOL    HW1 7262  10.078  13.645  14.653
35141SOL    HW2 7263  10.041  13.582  14.520
35142SOL     OW 7264   1.832   7.670   8.016
35142SOL    HW1 7265   1.813   7.612   8.089
35142SOL    HW2 7266   1.894   7.733   8.051
35143SOL     OW 7267   1.000  13.295   8.384
35143SOL    HW1 7268   0.986  13.260   8.296
35143SOL    HW2 7269   1.072  13.357   8.375
35144SOL     OW 7270   2.628  10.425  14.080
35144SOL    HW1 7271   2.657  10.362  14.014
35144SOL    HW2 7272   2.699  10.428  14.144
35145SOL     OW 7273  14.028   6.801  14.760
35145SOL    HW1 7274  13.973   6.869  14.721
35145SOL    HW2 7275  13.973   6.723  14.759
35146SOL     OW 7276  11.976   7.691   7.453
35146SOL    HW1 7277  12.004   7.600   7.462
35146SOL    HW2 7278  11.899   7.686   7.396
35147SOL     OW 7279   7.664   1.179   7.205
35147SOL    HW1 7280   7.611   1.101   7.187
35147SOL    HW2 7281   7.659   1.230   7.125
35148SOL     OW 7282  12.576   6.543  10.017
35148SOL    HW1 7283  12.494   6.511   9.980
35148SOL    HW2 7284  12.554   6.564  10.108
35149SOL     OW 7285   8.626   3.280  10.257
35149SOL    HW1 7286   8.622   3.303  10.164
35149SOL    HW2 7287   8.536   3.290  10.288
35150SOL     OW 7288   1.017  10.776  11.537
35150SOL    HW1 7289   1.079  10.843  11.510
35150SOL    HW2 7290   1.053  10.740  11.618
35151SOL     OW 7291   9.305  11.745   0.835
35151SOL    HW1 7292   9.399  11.724   0.835
35151SOL    HW2 7293   9.265  11.672   0.787
35152SOL     OW 7294   4.199  10.995   2.427
35152SOL    HW1 7295   4.268  10.929   2.420
35152SOL    HW2 7296   4.170  10.990   2.518
35153SOL     OW 7297  10.163   6.439   2.116
35153SOL    HW1 7298  10.184   6.372   2.052
35153SOL    HW2 7299  10.233   6.434   2.181
35154SOL     OW 7300  13.023   8.234   1.181
35154SOL    HW1 7301  13.091   8.168   1.191
35154SOL    HW2 7302  12.998   8.230   1.088
35155SOL     OW 7303  10.713   8.755   3.366
35155SOL    HW1 7304  10.685   8.793   3.283
35155SOL    HW2 7305  10.714   8.829   3.427
35156SOL     OW 7306   1.459  13.458   2.481
35156SOL    HW1 7307   1.509  13.410   2.547
35156SOL    HW2 7308   1.369  13.425   2.490
35157SOL     OW 7309   9.310   2.434   9.531
35157SOL    HW1 7310   9.320   2.377   9.607
35157SOL    HW2 7311   9.232   2.402   9.486
35158SOL     OW 7312   8.044  13.749  11.157
35158SOL    HW1 7313   8.074  13.838  11.139
35158SOL    HW2 7314   7.972  13.735  11.096
35159SOL     OW 7315   0.648  11.331  10.557
35159SOL    HW1 7316   0.558  11.299  10.560
35159SOL    HW2 7317   0.667  11.340  10.464
35160SOL     OW 7318   2.254   0.204   3.245
35160SOL    HW1 7319   2.256   0.251   3.162
35160SOL    HW2 7320   2.163   0.210   3.274
35161SOL     OW 7321   1.033   8.613   6.471
35161SOL    HW1 7322   1.090   8.546   6.511
35161SOL    HW2 7323   1.088   8.655   6.406
35162SOL     OW 7324   2.971  14.766   0.677
35162SOL    HW1 7325   2.901  14.737   0.735
35162SOL    HW2 7326   3.044  14.788   0.736
35163SOL     OW 7327   4.493  14.681   4.387
35163SOL    HW1 7328   4.542  14.759   4.411
35163SOL    HW2 7329   4.425  14.674   4.454
35164SOL     OW 7330   7.269   0.576   5.082
35164SOL    HW1 7331   7.251   0.483   5.094
35164SOL    HW2 7332   7.287   0.608   5.170
35165SOL     OW 7333   7.928   3.260   8.044
35165SOL    HW1 7334   7.857   3.213   8.088
35165SOL    HW2 7335   7.911   3.352   8.064
35166SOL     OW 7336   4.277   5.278   4.067
35166SOL    HW1 7337   4.336   5.331   4.014
35166SOL    HW2 7338   4.245   5.210   4.008
35167SOL     OW 7339   6.284   9.491   4.453
35167SOL    HW1 7340   6.337   9.568   4.475
35167SOL    HW2 7341   6.201   9.527   4.421
35168SOL     OW 7342   3.719   2.291   3.403
35168SOL    HW1 7343   3.779   2.254   3.468
35168SOL    HW2 7344   3.776   2.314   3.329
35169SOL     OW 7345   4.830   4.280   9.451
35169SOL    HW1 7346   4.854   4.192   9.481
35169SOL    HW2 7347   4.870   4.339   9.515
35170SOL     OW 7348   9.514   5.998   7.379
35170SOL    HW1 7349   9.461   6.053   7.321
35170SOL    HW2 7350   9.473   5.911   7.371
35171SOL     OW 7351   3.830   0.433  14.268
35171SOL    HW1 7352   3.851   0.371  14.338
35171SOL    HW2 7353   3.914   0.476  14.249
35172SOL     OW 7354  10.773  13.113  10.450
35172SOL    HW1 7355  10.789  13.026  10.415
35172SOL    HW2 7356  10.808  13.111  10.538
35173SOL     OW 7357   7.257   8.388   3.419
35173SOL    HW1 7358   7.338   8.373   3.468
35173SOL    HW2 7359   7.281   8.451   3.351
35174SOL     OW 7360   6.614  14.191  14.687
35174SOL    HW1 7361   6.655  14.278  14.682
35174SOL    HW2 7362   6.582  14.175  14.598
35175SOL     OW 7363   8.740   1.409   9.829
35175SOL    HW1 7364   8.789   1.482   9.865
35175SOL    HW2 7365   8.660   1.405   9.881
35176SOL     OW 7366   0.406   0.983   2.011
35176SOL    HW1 7367   0.471   1.005   2.077
35176SOL    HW2 7368   0.329   0.954   2.060
35177SOL     OW 7369   0.704   4.138   8.016
35177SOL    HW1 7370   0.735   4.155   7.927
35177SOL    HW2 7371   0.784   4.137   8.070
35178SOL     OW 7372  14.410   0.705   2.173
35178SOL    HW1 7373  14.351   0.660   2.112
35178SOL    HW2 7374  14.362   0.784   2.198
35179SOL     OW 7375   2.573   4.904   9.518
35179SOL    HW1 7376   2.497   4.874   9.467
35179SOL    HW2 7377   2.540   4.978   9.569
35180SOL     OW 7378  14.742   0.302  14.060
35180SOL    HW1 7379  14.787   0.373  14.104
35180SOL    HW2 7380  14.743   0.230  14.124
35181SOL     OW 7381   9.703  11.158   0.162
35181SOL    HW1 7382   9.699  11.166   0.257
35181SOL    HW2 7383   9.624  11.202   0.130
35182SOL     OW 7384   6.547   3.455   1.380
35182SOL    HW1 7385   6.608   3.421   1.445
35182SOL    HW2 7386   6.603   3.502   1.317
35183SOL     OW 7387   7.161   1.078   6.610
35183SOL    HW1 7388   7.237   1.135   6.601
35183SOL    HW2 7389   7.194   1.002   6.657
35184SOL     OW 7390  10.862   3.495   3.390
35184SOL    HW1 7391  10.876   3.417   3.444
35184SOL    HW2 7392  10.818   3.462   3.312
35185SOL     OW 7393  14.385  10.477   4.613
35185SOL    HW1 7394  14.356  10.434   4.693
35185SOL    HW2 7395  14.410  10.405   4.555
35186SOL     OW 7396  12.918   3.734   7.614
35186SOL    HW1 7397  13.001   3.705   7.652
35186SOL    HW2 7398  12.880   3.790   7.680
35187SOL     OW 7399   4.117   0.801  13.203
35187SOL    HW1 7400   4.178   0.855  13.153
35187SOL    HW2 7401   4.147   0.807  13.293
35188SOL     OW 7402   0.104  11.157  13.898
35188SOL    HW1 7403   0.111  11.184  13.807
35188SOL    HW2 7404   0.191  11.126  13.921
35189SOL     OW 7405   0.165   5.351   9.351
35189SOL    HW1 7406   0.170   5.408   9.427
35189SOL    HW2 7407   0.129   5.269   9.385
35190SOL     OW 7408  13.050   4.314   8.320
35190SOL    HW1 7409  13.141   4.331   8.297
35190SOL    HW2 7410  12.999   4.367   8.259
35191SOL     OW 7411   3.262  12.923   7.855
35191SOL    HW1 7412   3.170  12.935   7.876
35191SOL    HW2 7413   3.310  12.966   7.925
35192SOL     OW 7414  14.829  14.280   3.587
35192SOL    HW1 7415  14.796  14.292   3.498
35192SOL    HW2 7416  14.803  14.360   3.633
35193SOL     OW 7417   2.936   9.389   8.316
35193SOL    HW1 7418   2.999   9.445   8.360
35193SOL    HW2 7419   2.986   9.311   8.291
35194SOL     OW 7420   1.063  11.270   8.131
35194SOL    HW1 7421   0.992  11.235   8.184
35194SOL    HW2 7422   1.019  11.321   8.063
35195SOL     OW 7423   6.586  13.964  12.225
35195SOL    HW1 7424   6.515  14.022  12.254
35195SOL    HW2 7425   6.655  14.024  12.198
35196SOL     OW 7426   1.463   6.095   9.739
35196SOL    HW1 7427   1.454   6.188   9.757
35196SOL    HW2 7428   1.380   6.057   9.769
35197SOL     OW 7429  10.107   5.016   9.140
35197SOL    HW1 7430  10.180   4.954   9.150
35197SOL    HW2 7431  10.144   5.100   9.167
35198SOL     OW 7432   8.878  10.587  11.404
35198SOL    HW1 7433   8.841  10.578  11.316
35198SOL    HW2 7434   8.812  10.549  11.461
35199SOL     OW 7435   4.237  11.066   3.220
35199SOL    HW1 7436   4.267  11.070   3.311
35199SOL    HW2 7437   4.295  11.126   3.172
35200SOL     OW 7438   8.828   6.644  10.546
35200SOL    HW1 7439   8.907   6.597  10.519
35200SOL    HW2 7440   8.821   6.716  10.484
35201SOL     OW 7441  12.785  13.370   1.818
35201SOL    HW1 7442  12.847  13.353   1.748
35201SOL    HW2 7443  12.768  13.464   1.813
35202SOL     OW 7444   8.569  13.940  14.121
35202SOL    HW1 7445   8.530  13.983  14.197
35202SOL    HW2 7446   8.654  13.909  14.153
35203SOL     OW 7447   5.065   4.961  10.385
35203SOL    HW1 7448   5.120   5.039  10.393
35203SOL    HW2 7449   4.988   4.991  10.335
35204SOL     OW 7450   4.006   8.781   2.735
35204SOL    HW1 7451   4.002   8.816   2.646
35204SOL    HW2 7452   3.949   8.839   2.786
35205SOL     OW 7453  11.353   5.423   2.264
35205SOL    HW1 7454  11.282   5.486   2.252
35205SOL    HW2 7455  11.433   5.473   2.245
35206SOL     OW 7456   9.410   0.971   9.306
35206SOL    HW1 7457   9.393   1.062   9.330
35206SOL    HW2 7458   9.336   0.922   9.341
35207SOL     OW 7459  14.066   3.696   3.156
35207SOL    HW1 7460  14.124   3.763   3.121
35207SOL    HW2 7461  14.029   3.735   3.235
35208SOL     OW 7462  11.686   7.898   2.568
35208SOL    HW1 7463  11.700   7.806   2.546
35208SOL    HW2 7464  11.594   7.903   2.592
35209SOL     OW 7465   9.087  11.039   7.780
35209SOL    HW1 7466   9.135  11.059   7.700
35209SOL    HW2 7467   9.152  11.002   7.839
35210SOL     OW 7468  10.475  10.257   2.140
35210SOL    HW1 7469  10.473  10.162   2.155
35210SOL    HW2 7470  10.411  10.293   2.201
35211SOL     OW 7471   4.288  12.634  14.536
35211SOL    HW1 7472   4.329  12.548  14.542
35211SOL    HW2 7473   4.260  12.641  14.445
35212SOL     OW 7474   4.627  10.936   2.951
35212SOL    HW1 7475   4.684  11.005   2.917
35212SOL    HW2 7476   4.542  10.951   2.908
35213SOL     OW 7477   1.943   1.584  14.042
35213SOL    HW1 7478   1.954   1.516  13.975
35213SOL    HW2 7479   1.921   1.663  13.993
35214SOL     OW 7480   5.894  14.290  12.305
35214SOL    HW1 7481   5.930  14.230  12.240
35214SOL    HW2 7482   5.831  14.237  12.354
35215SOL     OW 7483  13.249  13.432   1.173
35215SOL    HW1 7484  13.303  13.494   1.222
35215SOL    HW2 7485  13.296  13.419   1.091
35216SOL     OW 7486   8.349   0.264   1.117
35216SOL    HW1 7487   8.327   0.289   1.207
35216SOL    HW2 7488   8.326   0.171   1.113
35217SOL     OW 7489  12.496   3.415   7.024
35217SOL    HW1 7490  12.569   3.465   7.060
35217SOL    HW2 7491  12.479   3.348   7.090
35218SOL     OW 7492   7.995   1.943   4.398
35218SOL    HW1 7493   8.054   2.018   4.407
35218SOL    HW2 7494   7.947   1.941   4.480
35219SOL     OW 7495   2.579   1.165  10.399
35219SOL    HW1 7496   2.536   1.085  10.370
35219SOL    HW2 7497   2.517   1.206  10.459
35220SOL     OW 7498   4.925   0.063  10.778
35220SOL    HW1 7499   4.846   0.053  10.831
35220SOL    HW2 7500   4.979  14.868  10.802
35221SOL     OW 7501   7.596   9.563  12.284
35221SOL    HW1 7502   7.619   9.487  12.231
35221SOL    HW2 7503   7.680   9.606  12.301
35222SOL     OW 7504  12.435   0.570   2.445
35222SOL    HW1 7505  12.498   0.563   2.516
35222SOL    HW2 7506  12.378   0.494   2.455
35223SOL     OW 7507  14.476  11.642   7.684
35223SOL    HW1 7508  14.525  11.646   7.602
35223SOL    HW2 7509  14.434  11.556   7.683
35224SOL     OW 7510  13.224  14.490   3.664
35224SOL    HW1 7511  13.176  14.454   3.739
35224SOL    HW2 7512  13.175  14.461   3.587
35225SOL     OW 7513  10.360   1.857   6.381
35225SOL    HW1 7514  10.409   1.873   6.300
35225SOL    HW2 7515  10.268   1.854   6.353
35226SOL     OW 7516   0.509   5.319  12.645
35226SOL    HW1 7517   0.437   5.381  12.655
35226SOL    HW2 7518   0.538   5.330  12.555
35227SOL     OW 7519  14.051  11.106   4.340
35227SOL    HW1 7520  14.075  11.014   4.327
35227SOL    HW2 7521  14.088  11.151   4.264
35228SOL     OW 7522   1.640   4.600   3.882
35228SOL    HW1 7523   1.575   4.664   3.854
35228SOL    HW2 7524   1.589   4.522   3.903
35229SOL     OW 7525   3.365   5.295   0.319
35229SOL    HW1 7526   3.373   5.273   0.226
35229SOL    HW2 7527   3.397   5.216   0.364
35230SOL     OW 7528  10.451  11.715   7.995
35230SOL    HW1 7529  10.389  11.679   7.932
35230SOL    HW2 7530  10.451  11.809   7.977
35231SOL     OW 7531   8.657   0.126  12.015
35231SOL    HW1 7532   8.750   0.103  12.015
35231SOL    HW2 7533   8.645   0.178  11.935
35232SOL     OW 7534   0.972  13.322  13.490
35232SOL    HW1 7535   0.887  13.338  13.529
35232SOL    HW2 7536   0.968  13.231  13.460
35233SOL     OW 7537   8.927  14.874   2.578
35233SOL    HW1 7538   8.964   0.076   2.610
35233SOL    HW2 7539   8.986  14.806   2.611
35234SOL     OW 7540   7.204  11.400   9.130
35234SOL    HW1 7541   7.237  11.360   9.210
35234SOL    HW2 7542   7.277  11.452   9.097
35235SOL     OW 7543   9.095   1.962  10.646
35235SOL    HW1 7544   9.073   2.049  10.680
35235SOL    HW2 7545   9.092   1.905  10.723
35236SOL     OW 7546   2.326   1.867   4.633
35236SOL    HW1 7547   2.271   1.944   4.644
35236SOL    HW2 7548   2.288   1.821   4.558
35237SOL     OW 7549  13.514   1.458   1.305
35237SOL    HW1 7550  13.443   1.413   1.351
35237SOL    HW2 7551  13.577   1.481   1.373
35238SOL     OW 7552   6.627  10.383   1.804
35238SOL    HW1 7553   6.624  10.318   1.733
35238SOL    HW2 7554   6.637  10.331   1.884
35239SOL     OW 7555  14.640   2.240   8.342
35239SOL    HW1 7556  14.689   2.322   8.338
35239SOL    HW2 7557  14.644   2.214   8.434
35240SOL     OW 7558   8.127   5.538   7.451
35240SOL    HW1 7559   8.042   5.498   7.467
35240SOL    HW2 7560   8.190   5.472   7.480
35241SOL     OW 7561   1.108  13.054   9.200
35241SOL    HW1 7562   1.113  13.111   9.123
35241SOL    HW2 7563   1.045  13.098   9.257
35242SOL     OW 7564  10.658   9.876  10.504
35242SOL    HW1 7565  10.718   9.858  10.577
35242SOL    HW2 7566  10.704   9.844  10.427
35243SOL     OW 7567  11.807  12.489   0.617
35243SOL    HW1 7568  11.752  12.450   0.548
35243SOL    HW2 7569  11.758  12.475   0.698
35244SOL     OW 7570   2.648   4.514   6.033
35244SOL    HW1 7571   2.669   4.496   6.125
35244SOL    HW2 7572   2.555   4.490   6.024
35245SOL     OW 7573   2.918   2.089  10.280
35245SOL    HW1 7574   2.855   2.147  10.323
35245SOL    HW2 7575   2.971   2.147  10.226
35246SOL     OW 7576   7.095   8.711   8.774
35246SOL    HW1 7577   7.155   8.700   8.700
35246SOL    HW2 7578   7.114   8.637   8.831
35247SOL     OW 7579   7.805   7.146  12.508
35247SOL    HW1 7580   7.833   7.216  12.448
35247SOL    HW2 7581   7.869   7.148  12.579
35248SOL     OW 7582   5.318   4.328   1.366
35248SOL    HW1 7583   5.230   4.336   1.332
35248SOL    HW2 7584   5.354   4.250   1.323
35249SOL     OW 7585   8.686   8.518  14.830
35249SOL    HW1 7586   8.761   8.548   0.001
35249SOL    HW2 7587   8.723   8.455  14.768
35250SOL     OW 7588   8.021   5.672  11.334
35250SOL    HW1 7589   8.027   5.746  11.395
35250SOL    HW2 7590   7.997   5.598  11.389
35251SOL     OW 7591   0.306   3.048   7.326
35251SOL    HW1 7592   0.225   3.056   7.275
35251SOL    HW2 7593   0.375   3.042   7.259
35252SOL     OW 7594   3.786   9.023   1.886
35252SOL    HW1 7595   3.881   9.016   1.893
35252SOL    HW2 7596   3.772   9.075   1.807
35253SOL     OW 7597   8.033   0.629  11.979
35253SOL    HW1 7598   8.007   0.541  12.004
35253SOL    HW2 7599   8.014   0.634  11.885
35254SOL     OW 7600   4.988   0.602  11.902
35254SOL    HW1 7601   4.989   0.518  11.950
35254SOL    HW2 7602   5.025   0.580  11.816
35255SOL     OW 7603   2.975   0.676   6.223
35255SOL    HW1 7604   2.994   0.758   6.178
35255SOL    HW2 7605   3.018   0.609   6.171
35256SOL     OW 7606   3.703  11.782   5.333
35256SOL    HW1 7607   3.630  11.724   5.310
35256SOL    HW2 7608   3.772  11.758   5.271
35257SOL     OW 7609   9.945  13.336   8.444
35257SOL    HW1 7610   9.861  13.377   8.461
35257SOL    HW2 7611   9.984  13.388   8.374
35258SOL     OW 7612   7.555  12.992   1.006
35258SOL    HW1 7613   7.468  12.966   1.036
35258SOL    HW2 7614   7.614  12.928   1.046
35259SOL     OW 7615   5.147   0.358  11.806
35259SOL    HW1 7616   5.154   0.292  11.738
35259SOL    HW2 7617   5.226   0.348  11.858
35260SOL     OW 7618   2.489   1.773   6.711
35260SOL    HW1 7619   2.492   1.800   6.619
35260SOL    HW2 7620   2.547   1.835   6.756
35261SOL     OW 7621   5.115  13.719   3.830
35261SOL    HW1 7622   5.150  13.662   3.762
35261SOL    HW2 7623   5.147  13.806   3.806
35262SOL     OW 7624   8.552   7.117   6.828
35262SOL    HW1 7625   8.475   7.137   6.880
35262SOL    HW2 7626   8.575   7.200   6.785
35263SOL     OW 7627   2.751  12.912  10.189
35263SOL    HW1 7628   2.790  12.859  10.120
35263SOL    HW2 7629   2.805  12.894  10.266
35264SOL     OW 7630  14.367  14.610   5.380
35264SOL    HW1 7631  14.413  14.531   5.354
35264SOL    HW2 7632  14.375  14.669   5.305
35265SOL     OW 7633   8.628   4.433   8.630
35265SOL    HW1 7634   8.578   4.490   8.689
35265SOL    HW2 7635   8.709   4.481   8.614
35266SOL     OW 7636   8.860   6.415   6.977
35266SOL    HW1 7637   8.949   6.386   6.959
35266SOL    HW2 7638   8.822   6.346   7.030
35267SOL     OW 7639   6.972   2.137   4.610
35267SOL    HW1 7640   6.940   2.164   4.524
35267SOL    HW2 7641   7.030   2.208   4.637
35268SOL     OW 7642  12.546  13.324  13.030
35268SOL    HW1 7643  12.548  13.412  13.068
35268SOL    HW2 7644  12.530  13.339  12.937
35269SOL     OW 7645   2.744   7.056   1.201
35269SOL    HW1 7646   2.773   7.104   1.278
35269SOL    HW2 7647   2.825   7.033   1.156
35270SOL     OW 7648   3.572  10.424  12.069
35270SOL    HW1 7649   3.611  10.497  12.020
35270SOL    HW2 7650   3.482  10.418  12.035
35271SOL     OW 7651  10.158   9.524   5.216
35271SOL    HW1 7652  10.144   9.437   5.178
35271SOL    HW2 7653  10.152   9.584   5.142
35272SOL     OW 7654   3.770  13.787   0.500
35272SOL    HW1 7655   3.835  13.804   0.431
35272SOL    HW2 7656   3.800  13.706   0.541
35273SOL     OW 7657   3.386  14.061   5.151
35273SOL    HW1 7658   3.333  13.993   5.108
35273SOL    HW2 7659   3.461  14.014   5.187
35274SOL     OW 7660  14.077   8.621   3.103
35274SOL    HW1 7661  14.138   8.550   3.123
35274SOL    HW2 7662  14.132   8.698   3.094
35275SOL     OW 7663  11.578  14.256   4.147
35275SOL    HW1 7664  11.510  14.217   4.092
35275SOL    HW2 7665  11.654  14.265   4.089
35276SOL     OW 7666   3.368   4.279   8.218
35276SOL    HW1 7667   3.462   4.266   8.231
35276SOL    HW2 7668   3.345   4.348   8.280
35277SOL     OW 7669   1.238   1.554   6.030
35277SOL    HW1 7670   1.282   1.566   6.114
35277SOL    HW2 7671   1.170   1.621   6.027
35278SOL     OW 7672  12.290   2.549   6.858
35278SOL    HW1 7673  12.219   2.504   6.812
35278SOL    HW2 7674  12.346   2.584   6.789
35279SOL     OW 7675  11.023   2.459  10.235
35279SOL    HW1 7676  11.092   2.519  10.208
35279SOL    HW2 7677  11.069   2.388  10.280
35280SOL     OW 7678   0.186  11.730   4.855
35280SOL    HW1 7679   0.252  11.665   4.830
35280SOL    HW2 7680   0.134  11.741   4.776
35281SOL     OW 7681   6.964  12.952   9.476
35281SOL    HW1 7682   7.044  12.962   9.425
35281SOL    HW2 7683   6.977  12.870   9.524
35282SOL     OW 7684   7.796   3.460  10.762
35282SOL    HW1 7685   7.737   3.518  10.714
35282SOL    HW2 7686   7.777   3.372  10.729
35283SOL     OW 7687   0.383   5.556   2.313
35283SOL    HW1 7688   0.384   5.570   2.218
35283SOL    HW2 7689   0.452   5.615   2.345
35284SOL     OW 7690   9.767   8.577   6.725
35284SOL    HW1 7691   9.684   8.623   6.733
35284SOL    HW2 7692   9.789   8.584   6.632
35285SOL     OW 7693   6.319   5.598   7.360
35285SOL    HW1 7694   6.314   5.570   7.451
35285SOL    HW2 7695   6.239   5.563   7.320
35286SOL     OW 7696  12.219   9.805   3.678
35286SOL    HW1 7697  12.137   9.850   3.695
35286SOL    HW2 7698  12.225   9.739   3.748
35287SOL     OW 7699   4.646   1.072  12.583
35287SOL    HW1 7700   4.710   1.021  12.633
35287SOL    HW2 7701   4.694   1.100  12.505
35288SOL     OW 7702  10.599   6.897   7.485
35288SOL    HW1 7703  10.532   6.850   7.433
35288SOL    HW2 7704  10.639   6.958   7.422
35289SOL     OW 7705   2.130   7.221   7.064
35289SOL    HW1 7706   2.134   7.298   7.007
35289SOL    HW2 7707   2.221   7.193   7.073
35290SOL     OW 7708   4.309  10.617   1.589
35290SOL    HW1 7709   4.252  10.541   1.592
35290SOL    HW2 7710   4.250  10.692   1.581
35291SOL     OW 7711   5.045  10.539  10.549
35291SOL    HW1 7712   5.111  10.592  10.504
35291SOL    HW2 7713   5.073  10.538  10.641
35292SOL     OW 7714   5.629   5.839   8.869
35292SOL    HW1 7715   5.645   5.821   8.962
35292SOL    HW2 7716   5.535   5.827   8.858
35293SOL     OW 7717   5.757  13.053  12.260
35293SOL    HW1 7718   5.762  13.068  12.354
35293SOL    HW2 7719   5.798  12.968  12.247
35294SOL     OW 7720   8.188  14.731   2.358
35294SOL    HW1 7721   8.215  14.713   2.448
35294SOL    HW2 7722   8.217  14.654   2.309
35295SOL     OW 7723   3.565   5.437   5.430
35295SOL    HW1 7724   3.509   5.511   5.407
35295SOL    HW2 7725   3.504   5.364   5.442
35296SOL     OW 7726   6.427   0.118  11.205
35296SOL    HW1 7727   6.363   0.189  11.209
35296SOL    HW2 7728   6.487   0.136  11.278
35297SOL     OW 7729   8.447   2.632   9.628
35297SOL    HW1 7730   8.508   2.636   9.554
35297SOL    HW2 7731   8.499   2.594   9.700
35298SOL     OW 7732   3.882   9.881  14.369
35298SOL    HW1 7733   3.861   9.858  14.278
35298SOL    HW2 7734   3.977   9.889  14.370
35299SOL     OW 7735  12.015   0.636  11.588
35299SOL    HW1 7736  12.008   0.689  11.509
35299SOL    HW2 7737  11.946   0.570  11.578
35300SOL     OW 7738  11.920   4.148   0.508
35300SOL    HW1 7739  11.852   4.213   0.491
35300SOL    HW2 7740  11.996   4.199   0.536
35301SOL     OW 7741   2.077   5.728   6.075
35301SOL    HW1 7742   2.110   5.810   6.112
35301SOL    HW2 7743   2.092   5.737   5.981
35302SOL     OW 7744   5.910   8.441   0.715
35302SOL    HW1 7745   5.887   8.359   0.760
35302SOL    HW2 7746   5.858   8.440   0.635
35303SOL     OW 7747  13.892   7.012  12.590
35303SOL    HW1 7748  13.944   7.092  12.597
35303SOL    HW2 7749  13.802   7.042  12.580
35304SOL     OW 7750   8.499  11.305   9.217
35304SOL    HW1 7751   8.546  11.307   9.134
35304SOL    HW2 7752   8.508  11.215   9.248
35305SOL     OW 7753   8.664   6.104   1.957
35305SOL    HW1 7754   8.754   6.126   1.931
35305SOL    HW2 7755   8.672   6.076   2.049
35306SOL     OW 7756  11.131   9.216  13.912
35306SOL    HW1 7757  11.158   9.287  13.854
35306SOL    HW2 7758  11.140   9.253  14.000
35307SOL     OW 7759   9.070  10.158  11.871
35307SOL    HW1 7760   9.020  10.120  11.943
35307SOL    HW2 7761   9.161  10.155  11.900
35308SOL     OW 7762   6.951   0.003   9.813
35308SOL    HW1 7763   6.907  14.797   9.821
35308SOL    HW2 7764   6.918   0.053   9.888
35309SOL     OW 7765  11.337   2.776   3.289
35309SOL    HW1 7766  11.392   2.698   3.285
35309SOL    HW2 7767  11.314   2.795   3.197
35310SOL     OW 7768   9.687  11.256  11.770
35310SOL    HW1 7769   9.678  11.202  11.691
35310SOL    HW2 7770   9.744  11.328  11.743
35311SOL     OW 7771  14.400   2.555  12.931
35311SOL    HW1 7772  14.492   2.537  12.946
35311SOL    HW2 7773  14.398   2.644  12.896
35312SOL     OW 7774  10.129  10.963   7.265
35312SOL    HW1 7775  10.217  10.986   7.232
35312SOL    HW2 7776  10.093  11.046   7.295
35313SOL     OW 7777  14.011  14.147   7.206
35313SOL    HW1 7778  13.927  14.185   7.180
35313SOL    HW2 7779  14.049  14.212   7.264
35314SOL     OW 7780  13.836   5.147   3.217
35314SOL    HW1 7781  13.754   5.182   3.251
35314SOL    HW2 7782  13.811   5.100   3.138
35315SOL     OW 7783   9.523   3.271   8.186
35315SOL    HW1 7784   9.462   3.338   8.215
35315SOL    HW2 7785   9.608   3.300   8.218
35316SOL     OW 7786  10.860   4.312   9.344
35316SOL    HW1 7787  10.922   4.352   9.404
35316SOL    HW2 7788  10.774   4.329   9.383
35317SOL     OW 7789   2.080  13.056   4.377
35317SOL    HW1 7790   2.003  13.093   4.421
35317SOL    HW2 7791   2.044  12.991   4.317
35318SOL     OW 7792   5.833   8.752   9.949
35318SOL    HW1 7793   5.888   8.680   9.919
35318SOL    HW2 7794   5.890   8.829   9.945
35319SOL     OW 7795   0.308  11.366   5.206
35319SOL    HW1 7796   0.320  11.393   5.297
35319SOL    HW2 7797   0.256  11.435   5.167
35320SOL     OW 7798   0.972   4.195  13.787
35320SOL    HW1 7799   0.950   4.222  13.698
35320SOL    HW2 7800   0.985   4.276  13.835
35321SOL     OW 7801   7.327   6.139  11.153
35321SOL    HW1 7802   7.240   6.110  11.126
35321SOL    HW2 7803   7.323   6.234  11.151
35322SOL     OW 7804   7.639   8.979  11.456
35322SOL    HW1 7805   7.711   8.922  11.430
35322SOL    HW2 7806   7.627   9.038  11.382
35323SOL     OW 7807   1.497   9.104   7.537
35323SOL    HW1 7808   1.451   9.172   7.488
35323SOL    HW2 7809   1.589   9.115   7.512
35324SOL     OW 7810  12.268  10.506   7.871
35324SOL    HW1 7811  12.330  10.530   7.802
35324SOL    HW2 7812  12.252  10.413   7.857
35325SOL     OW 7813   0.254   3.126   9.066
35325SOL    HW1 7814   0.303   3.146   8.986
35325SOL    HW2 7815   0.170   3.093   9.035
35326SOL     OW 7816   5.665  14.601   1.510
35326SOL    HW1 7817   5.747  14.558   1.484
35326SOL    HW2 7818   5.672  14.610   1.605
35327SOL     OW 7819  12.992   5.184  10.150
35327SOL    HW1 7820  12.948   5.223  10.074
35327SOL    HW2 7821  13.084   5.206  10.139
35328SOL     OW 7822   7.860   6.805   0.822
35328SOL    HW1 7823   7.923   6.867   0.785
35328SOL    HW2 7824   7.851   6.736   0.756
35329SOL     OW 7825   0.749   4.429   8.880
35329SOL    HW1 7826   0.696   4.352   8.861
35329SOL    HW2 7827   0.685   4.499   8.893
35330SOL     OW 7828   2.978   3.448  13.907
35330SOL    HW1 7829   3.024   3.383  13.959
35330SOL    HW2 7830   2.886   3.420  13.909
35331SOL     OW 7831   7.931   9.153  13.619
35331SOL    HW1 7832   7.871   9.138  13.692
35331SOL    HW2 7833   7.925   9.247  13.602
35332SOL     OW 7834   2.867   4.584   1.004
35332SOL    HW1 7835   2.900   4.650   1.065
35332SOL    HW2 7836   2.933   4.581   0.935
35333SOL     OW 7837  14.158   7.736   9.210
35333SOL    HW1 7838  14.164   7.803   9.278
35333SOL    HW2 7839  14.139   7.785   9.130
35334SOL     OW 7840   4.012   1.923  10.912
35334SOL    HW1 7841   4.055   1.839  10.892
35334SOL    HW2 7842   3.919   1.903  10.914
35335SOL     OW 7843   9.306   2.932  10.294
35335SOL    HW1 7844   9.244   2.873  10.250
35335SOL    HW2 7845   9.252   3.004  10.325
35336SOL     OW 7846  11.675   9.288   5.505
35336SOL    HW1 7847  11.652   9.377   5.478
35336SOL    HW2 7848  11.599   9.235   5.481
35337SOL     OW 7849   8.094  10.444   9.870
35337SOL    HW1 7850   8.020  10.501   9.849
35337SOL    HW2 7851   8.159  10.463   9.802
35338SOL     OW 7852  11.848  11.891   2.032
35338SOL    HW1 7853  11.930  11.917   1.992
35338SOL    HW2 7854  11.874  11.848   2.114
35339SOL     OW 7855   0.695   4.776   1.373
35339SOL    HW1 7856   0.648   4.857   1.393
35339SOL    HW2 7857   0.715   4.783   1.280
35340SOL     OW 7858   8.519   7.780   4.857
35340SOL    HW1 7859   8.507   7.736   4.941
35340SOL    HW2 7860   8.523   7.873   4.879
35341SOL     OW 7861  10.542   1.640   8.507
35341SOL    HW1 7862  10.516   1.700   8.577
35341SOL    HW2 7863  10.566   1.559   8.552
35342SOL     OW 7864   5.109  14.814   4.462
35342SOL    HW1 7865   5.179  14.868   4.496
35342SOL    HW2 7866   5.036  14.875   4.447
35343SOL     OW 7867   2.957   7.111   2.070
35343SOL    HW1 7868   3.037   7.058   2.066
35343SOL    HW2 7869   2.893   7.061   2.020
35344SOL     OW 7870   2.757  10.643  11.147
35344SOL    HW1 7871   2.804  10.680  11.072
35344SOL    HW2 7872   2.813  10.662  11.222
35345SOL     OW 7873   3.752   3.723  10.295
35345SOL    HW1 7874   3.786   3.710  10.384
35345SOL    HW2 7875   3.812   3.786  10.255
35346SOL     OW 7876   0.078  10.921   5.408
35346SOL    HW1 7877  14.872  10.897   5.443
35346SOL    HW2 7878   0.090  11.012   5.434
35347SOL     OW 7879   4.017   1.122   5.860
35347SOL    HW1 7880   4.071   1.169   5.796
35347SOL    HW2 7881   4.019   1.031   5.832
35348SOL     OW 7882   6.781   2.220   8.272
35348SOL    HW1 7883   6.803   2.145   8.327
35348SOL    HW2 7884   6.737   2.181   8.196
35349SOL     OW 7885   0.604   3.623   6.195
35349SOL    HW1 7886   0.685   3.661   6.230
35349SOL    HW2 7887   0.626   3.597   6.106
35350SOL     OW 7888  11.552   3.769  11.511
35350SOL    HW1 7889  11.552   3.734  11.600
35350SOL    HW2 7890  11.463   3.800  11.496
35351SOL     OW 7891  13.647  12.659  10.998
35351SOL    HW1 7892  13.709  12.732  11.000
35351SOL    HW2 7893  13.699  12.584  10.970
35352SOL     OW 7894   6.600   6.423   0.520
35352SOL    HW1 7895   6.577   6.336   0.487
35352SOL    HW2 7896   6.525   6.478   0.497
35353SOL     OW 7897   2.145  11.966   6.110
35353SOL    HW1 7898   2.145  12.027   6.037
35353SOL    HW2 7899   2.136  11.880   6.070
35354SOL     OW 7900  13.130   0.823  11.768
35354SOL    HW1 7901  13.129   0.736  11.809
35354SOL    HW2 7902  13.214   0.860  11.794
35355SOL     OW 7903  13.319   0.981   2.634
35355SOL    HW1 7904  13.313   1.037   2.556
35355SOL    HW2 7905  13.397   1.013   2.680
35356SOL     OW 7906  11.095   1.030   6.071
35356SOL    HW1 7907  11.043   1.056   5.995
35356SOL    HW2 7908  11.144   0.953   6.041
35357SOL     OW 7909   9.494   0.846   3.654
35357SOL    HW1 7910   9.459   0.870   3.740
35357SOL    HW2 7911   9.549   0.920   3.629
35358SOL     OW 7912   7.723  13.805   0.205
35358SOL    HW1 7913   7.667  13.774   0.135
35358SOL    HW2 7914   7.755  13.890   0.175
35359SOL     OW 7915   3.198   2.175   8.858
35359SOL    HW1 7916   3.229   2.237   8.792
35359SOL    HW2 7917   3.272   2.116   8.873
35360SOL     OW 7918  11.574   2.101  10.093
35360SOL    HW1 7919  11.518   2.041  10.044
35360SOL    HW2 7920  11.658   2.057  10.098
35361SOL     OW 7921   5.074   5.769  11.610
35361SOL    HW1 7922   5.006   5.725  11.661
35361SOL    HW2 7923   5.043   5.763  11.520
35362SOL     OW 7924   9.426   5.854   6.503
35362SOL    HW1 7925   9.358   5.901   6.552
35362SOL    HW2 7926   9.495   5.919   6.488
35363SOL     OW 7927   9.926   9.176   6.207
35363SOL    HW1 7928   9.951   9.123   6.282
35363SOL    HW2 7929   9.977   9.141   6.134
35364SOL     OW 7930  13.395  14.045   6.971
35364SOL    HW1 7931  13.391  14.126   7.022
35364SOL    HW2 7932  13.332  13.987   7.014
35365SOL     OW 7933  14.142   5.452  14.533
35365SOL    HW1 7934  14.171   5.430  14.622
35365SOL    HW2 7935  14.181   5.539  14.517
35366SOL     OW 7936  14.472   6.800   6.615
35366SOL    HW1 7937  14.556   6.762   6.641
35366SOL    HW2 7938  14.495   6.880   6.568
35367SOL     OW 7939   1.234  10.009  14.628
35367SOL    HW1 7940   1.182   9.934  14.601
35367SOL    HW2 7941   1.206  10.080  14.569
35368SOL     OW 7942   9.727  11.180   0.445
35368SOL    HW1 7943   9.787  11.135   0.505
35368SOL    HW2 7944   9.669  11.230   0.503
35369SOL     OW 7945   3.664   5.776   2.252
35369SOL    HW1 7946   3.685   5.784   2.345
35369SOL    HW2 7947   3.569   5.764   2.249
35370SOL     OW 7948  10.318  12.702  13.232
35370SOL    HW1 7949  10.388  12.767  13.228
35370SOL    HW2 7950  10.362  12.621  13.258
35371SOL     OW 7951   4.701   8.855   7.424
35371SOL    HW1 7952   4.615   8.833   7.389
35371SOL    HW2 7953   4.683   8.900   7.506
35372SOL     OW 7954   7.112  10.447   1.816
35372SOL    HW1 7955   7.206  10.459   1.831
35372SOL    HW2 7956   7.074  10.534   1.830
35373SOL     OW 7957   5.925   9.095   1.606
35373SOL    HW1 7958   5.963   9.011   1.631
35373SOL    HW2 7959   6.000   9.149   1.580
35374SOL     OW 7960   5.523  12.926   8.203
35374SOL    HW1 7961   5.615  12.901   8.201
35374SOL    HW2 7962   5.524  13.022   8.204
35375SOL     OW 7963  13.075  11.324   9.063
35375SOL    HW1 7964  12.986  11.357   9.047
35375SOL    HW2 7965  13.082  11.319   9.158
35376SOL     OW 7966  13.107   7.178   4.026
35376SOL    HW1 7967  13.136   7.093   3.992
35376SOL    HW2 7968  13.012   7.178   4.016
35377SOL     OW 7969   2.440   6.693   8.112
35377SOL    HW1 7970   2.481   6.702   8.198
35377SOL    HW2 7971   2.452   6.601   8.089
35378SOL     OW 7972   5.218  11.596  12.680
35378SOL    HW1 7973   5.306  11.570  12.651
35378SOL    HW2 7974   5.233  11.667  12.742
35379SOL     OW 7975   8.885   5.724   0.474
35379SOL    HW1 7976   8.903   5.810   0.512
35379SOL    HW2 7977   8.964   5.672   0.494
35380SOL     OW 7978  12.305  13.345   5.871
35380SOL    HW1 7979  12.318  13.439   5.881
35380SOL    HW2 7980  12.263  13.318   5.953
35381SOL     OW 7981   9.674   0.071   1.093
35381SOL    HW1 7982   9.629   0.155   1.088
35381SOL    HW2 7983   9.728   0.077   1.172
35382SOL     OW 7984   1.422  14.516  11.045
35382SOL    HW1 7985   1.481  14.526  11.120
35382SOL    HW2 7986   1.337  14.547  11.078
35383SOL     OW 7987   7.897   1.922   2.902
35383SOL    HW1 7988   7.925   1.865   2.974
35383SOL    HW2 7989   7.828   1.976   2.941
35384SOL     OW 7990  10.115   3.796   4.796
35384SOL    HW1 7991  10.164   3.845   4.729
35384SOL    HW2 7992  10.126   3.848   4.876
35385SOL     OW 7993   5.623   3.035   9.097
35385SOL    HW1 7994   5.555   2.998   9.041
35385SOL    HW2 7995   5.658   3.109   9.047
35386SOL     OW 7996   8.647  11.397  11.851
35386SOL    HW1 7997   8.707  11.457  11.807
35386SOL    HW2 7998   8.590  11.364  11.782
35387SOL     OW 7999  11.553  10.716  10.980
35387SOL    HW1 8000  11.498  10.643  11.006
35387SOL    HW2 8001  11.637  10.677  10.957
35388SOL     OW 8002   7.786  13.054  14.376
35388SOL    HW1 8003   7.798  13.125  14.313
35388SOL    HW2 8004   7.692  13.042  14.382
35389SOL     OW 8005   7.295   3.782   3.936
35389SOL    HW1 8006   7.258   3.859   3.893
35389SOL    HW2 8007   7.336   3.815   4.016
35390SOL     OW 8008  10.851   8.979   3.065
35390SOL    HW1 8009  10.832   9.048   3.128
35390SOL    HW2 8010  10.866   9.026   2.983
35391SOL     OW 8011   1.784  14.312  10.925
35391SOL    HW1 8012   1.699  14.298  10.965
35391SOL    HW2 8013   1.778  14.269  10.840
35392SOL     OW 8014  10.785  11.388   9.420
35392SOL    HW1 8015  10.771  11.477   9.386
35392SOL    HW2 8016  10.835  11.344   9.351
35393SOL     OW 8017  10.166   1.214   6.899
35393SOL    HW1 8018  10.259   1.205   6.878
35393SOL    HW2 8019  10.164   1.242   6.990
35394SOL     OW 8020   1.840   5.232   3.115
35394SOL    HW1 8021   1.933   5.251   3.129
35394SOL    HW2 8022   1.839   5.159   3.052
35395SOL     OW 8023  10.119  11.287   6.096
35395SOL    HW1 8024  10.115  11.199   6.060
35395SOL    HW2 8025  10.030  11.321   6.085
35396SOL     OW 8026   3.988   7.013   6.159
35396SOL    HW1 8027   4.002   7.084   6.221
35396SOL    HW2 8028   4.067   7.012   6.106
35397SOL     OW 8029  14.576   1.543   7.203
35397SOL    HW1 8030  14.650   1.539   7.264
35397SOL    HW2 8031  14.617   1.560   7.118
35398SOL     OW 8032  14.754  12.379   6.908
35398SOL    HW1 8033  14.811  12.346   6.839
35398SOL    HW2 8034  14.727  12.300   6.956
35399SOL     OW 8035  11.070  11.044  10.563
35399SOL    HW1 8036  11.112  11.130  10.571
35399SOL    HW2 8037  11.120  10.998  10.496
35400SOL     OW 8038  10.203   5.618   3.692
35400SOL    HW1 8039  10.253   5.619   3.773
35400SOL    HW2 8040  10.236   5.541   3.645
35401SOL     OW 8041  11.844   1.401   5.321
35401SOL    HW1 8042  11.911   1.428   5.384
35401SOL    HW2 8043  11.770   1.373   5.375
35402SOL     OW 8044  14.329   8.783   9.849
35402SOL    HW1 8045  14.422   8.796   9.832
35402SOL    HW2 8046  14.324   8.700   9.895
35403SOL     OW 8047  11.866  14.693   1.472
35403SOL    HW1 8048  11.937  14.656   1.525
35403SOL    HW2 8049  11.828  14.762   1.526
35404SOL     OW 8050   4.384  13.150   4.478
35404SOL    HW1 8051   4.309  13.145   4.537
35404SOL    HW2 8052   4.349  13.124   4.393
35405SOL     OW 8053  10.784   4.134   0.573
35405SOL    HW1 8054  10.739   4.184   0.641
35405SOL    HW2 8055  10.752   4.171   0.491
35406SOL     OW 8056   3.035  11.010  10.229
35406SOL    HW1 8057   3.061  11.009  10.137
35406SOL    HW2 8058   3.050  11.100  10.258
35407SOL     OW 8059   3.266   5.731  14.149
35407SOL    HW1 8060   3.346   5.724  14.201
35407SOL    HW2 8061   3.284   5.802  14.088
35408SOL     OW 8062   5.442  11.857   7.365
35408SOL    HW1 8063   5.364  11.826   7.411
35408SOL    HW2 8064   5.429  11.831   7.274
35409SOL     OW 8065   8.026   1.584   1.579
35409SOL    HW1 8066   8.108   1.597   1.625
35409SOL    HW2 8067   7.983   1.512   1.626
35410SOL     OW 8068   8.407   5.935  12.232
35410SOL    HW1 8069   8.323   5.951  12.274
35410SOL    HW2 8070   8.414   5.840  12.227
35411SOL     OW 8071   6.109   0.481   5.859
35411SOL    HW1 8072   6.191   0.530   5.853
35411SOL    HW2 8073   6.095   0.449   5.770
35412SOL     OW 8074  13.834   7.841   7.890
35412SOL    HW1 8075  13.867   7.763   7.846
35412SOL    HW2 8076  13.818   7.813   7.981
35413SOL     OW 8077  12.792   2.836  12.206
35413SOL    HW1 8078  12.754   2.774  12.268
35413SOL    HW2 8079  12.835   2.781  12.140
35414SOL     OW 8080   4.522   6.355   9.416
35414SOL    HW1 8081   4.574   6.426   9.379
35414SOL    HW2 8082   4.565   6.335   9.499
35415SOL     OW 8083   4.648  11.509   4.043
35415SOL    HW1 8084   4.628  11.465   3.960
35415SOL    HW2 8085   4.740  11.492   4.058
35416SOL     OW 8086   2.148   8.360   9.937
35416SOL    HW1 8087   2.233   8.401   9.922
35416SOL    HW2 8088   2.110   8.411  10.009
35417SOL     OW 8089  14.463   2.082   3.760
35417SOL    HW1 8090  14.388   2.036   3.799
35417SOL    HW2 8091  14.485   2.029   3.683
35418SOL     OW 8092   4.388   2.052   0.700
35418SOL    HW1 8093   4.405   2.032   0.608
35418SOL    HW2 8094   4.439   1.987   0.749
35419SOL     OW 8095   0.450  11.992  11.413
35419SOL    HW1 8096   0.455  12.084  11.440
35419SOL    HW2 8097   0.484  11.943  11.487
35420SOL     OW 8098  13.821  14.765  14.617
35420SOL    HW1 8099  13.901  14.768  14.565
35420SOL    HW2 8100  13.847  14.718  14.697
35421SOL     OW 8101  12.077  10.980   4.127
35421SOL    HW1 8102  12.162  10.943   4.150
35421SOL    HW2 8103  12.076  11.065   4.171
35422SOL     OW 8104   5.981   6.215   4.796
35422SOL    HW1 8105   5.984   6.209   4.891
35422SOL    HW2 8106   6.008   6.305   4.776
35423SOL     OW 8107   4.426  11.144   3.725
35423SOL    HW1 8108   4.500  11.201   3.706
35423SOL    HW2 8109   4.392  11.176   3.809
35424SOL     OW 8110  14.369   6.091  13.945
35424SOL    HW1 8111  14.343   6.003  13.919
35424SOL    HW2 8112  14.289   6.131  13.980
35425SOL     OW 8113   1.808   7.963   4.852
35425SOL    HW1 8114   1.716   7.988   4.848
35425SOL    HW2 8115   1.838   7.994   4.937
35426SOL     OW 8116   0.469   0.978   5.196
35426SOL    HW1 8117   0.555   1.007   5.167
35426SOL    HW2 8118   0.433   1.052   5.244
35427SOL     OW 8119   3.937   6.804   3.029
35427SOL    HW1 8120   3.932   6.719   2.986
35427SOL    HW2 8121   3.900   6.789   3.116
35428SOL     OW 8122  13.490   3.401   3.771
35428SOL    HW1 8123  13.403   3.425   3.805
35428SOL    HW2 8124  13.493   3.440   3.684
35429SOL     OW 8125  11.736   4.456   2.619
35429SOL    HW1 8126  11.694   4.519   2.560
35429SOL    HW2 8127  11.663   4.415   2.665
35430SOL     OW 8128   3.518   6.668  10.253
35430SOL    HW1 8129   3.611   6.666  10.229
35430SOL    HW2 8130   3.473   6.629  10.179
35431SOL     OW 8131  13.952   8.200   2.255
35431SOL    HW1 8132  13.977   8.292   2.251
35431SOL    HW2 8133  14.018   8.154   2.203
35432SOL     OW 8134   0.638   2.152   2.801
35432SOL    HW1 8135   0.574   2.087   2.831
35432SOL    HW2 8136   0.663   2.122   2.714
35433SOL     OW 8137   3.755   2.712   0.495
35433SOL    HW1 8138   3.762   2.622   0.528
35433SOL    HW2 8139   3.790   2.707   0.406
35434SOL     OW 8140  10.972  13.998   6.973
35434SOL    HW1 8141  11.014  13.987   7.058
35434SOL    HW2 8142  10.958  14.092   6.965
35435SOL     OW 8143   4.833   6.835  10.193
35435SOL    HW1 8144   4.812   6.891  10.267
35435SOL    HW2 8145   4.748   6.810  10.157
35436SOL     OW 8146  11.790   5.612   3.754
35436SOL    HW1 8147  11.721   5.586   3.693
35436SOL    HW2 8148  11.871   5.590   3.709
35437SOL     OW 8149  12.007  14.329   5.942
35437SOL    HW1 8150  11.991  14.239   5.972
35437SOL    HW2 8151  12.043  14.373   6.019
35438SOL     OW 8152   6.605   0.997   6.794
35438SOL    HW1 8153   6.668   1.033   6.731
35438SOL    HW2 8154   6.650   1.001   6.878
35439SOL     OW 8155   1.975  11.714  11.393
35439SOL    HW1 8156   2.014  11.746  11.474
35439SOL    HW2 8157   2.040  11.736  11.326
35440SOL     OW 8158   4.500  11.432  10.480
35440SOL    HW1 8159   4.563  11.364  10.502
35440SOL    HW2 8160   4.545  11.514  10.498
35441SOL     OW 8161   0.369   9.072  10.145
35441SOL    HW1 8162   0.363   9.117  10.229
35441SOL    HW2 8163   0.414   8.990  10.165
35442SOL     OW 8164   8.356   8.196   9.832
35442SOL    HW1 8165   8.299   8.242   9.893
35442SOL    HW2 8166   8.298   8.131   9.791
35443SOL     OW 8167   3.985  11.651  11.165
35443SOL    HW1 8168   3.921  11.612  11.105
35443SOL    HW2 8169   4.051  11.690  11.107
35444SOL     OW 8170   0.214  12.539   8.772
35444SOL    HW1 8171   0.173  12.452   8.773
35444SOL    HW2 8172   0.240  12.555   8.863
35445SOL     OW 8173   1.169   9.055   7.172
35445SOL    HW1 8174   1.123   9.139   7.169
35445SOL    HW2 8175   1.134   9.005   7.099
35446SOL     OW 8176  12.631   4.046   2.644
35446SOL    HW1 8177  12.633   4.107   2.570
35446SOL    HW2 8178  12.558   4.076   2.698
35447SOL     OW 8179   7.247   9.095  11.656
35447SOL    HW1 8180   7.333   9.081  11.695
35447SOL    HW2 8181   7.246   9.188  11.632
35448SOL     OW 8182   9.296   6.107   3.457
35448SOL    HW1 8183   9.250   6.030   3.489
35448SOL    HW2 8184   9.336   6.145   3.536
35449SOL     OW 8185   1.413   2.346   9.661
35449SOL    HW1 8186   1.400   2.423   9.716
35449SOL    HW2 8187   1.501   2.316   9.682
35450SOL     OW 8188   2.533   3.363   6.273
35450SOL    HW1 8189   2.570   3.368   6.361
35450SOL    HW2 8190   2.469   3.292   6.277
35451SOL     OW 8191   9.954  12.913  14.563
35451SOL    HW1 8192   9.869  12.947  14.591
35451SOL    HW2 8193   9.975  12.846  14.628
35452SOL     OW 8194   2.749  12.340   7.278
35452SOL    HW1 8195   2.669  12.318   7.327
35452SOL    HW2 8196   2.751  12.276   7.207
35453SOL     OW 8197   6.408   9.699   4.363
35453SOL    HW1 8198   6.377   9.789   4.373
35453SOL    HW2 8199   6.409   9.685   4.268
35454SOL     OW 8200  13.896   5.714   9.121
35454SOL    HW1 8201  13.838   5.699   9.196
35454SOL    HW2 8202  13.976   5.749   9.160
35455SOL     OW 8203  11.230  12.874   6.850
35455SOL    HW1 8204  11.145  12.897   6.888
35455SOL    HW2 8205  11.281  12.955   6.855
35456SOL     OW 8206  12.431   3.653   3.352
35456SOL    HW1 8207  12.369   3.629   3.421
35456SOL    HW2 8208  12.382   3.713   3.296
35457SOL     OW 8209   7.839  10.538   1.243
35457SOL    HW1 8210   7.891  10.615   1.264
35457SOL    HW2 8211   7.783  10.565   1.170
35458SOL     OW 8212  12.279  10.586  11.204
35458SOL    HW1 8213  12.274  10.509  11.262
35458SOL    HW2 8214  12.200  10.635  11.223
35459SOL     OW 8215  11.548   5.015  13.493
35459SOL    HW1 8216  11.591   4.981  13.414
35459SOL    HW2 8217  11.458   4.984  13.486
35460SOL     OW 8218   7.768   2.489   8.178
35460SOL    HW1 8219   7.698   2.428   8.153
35460SOL    HW2 8220   7.726   2.575   8.177
35461SOL     OW 8221   0.780   2.414   7.512
35461SOL    HW1 8222   0.737   2.330   7.520
35461SOL    HW2 8223   0.806   2.437   7.601
35462SOL     OW 8224  10.747  12.960   7.605
35462SOL    HW1 8225  10.797  12.903   7.546
35462SOL    HW2 8226  10.683  12.901   7.646
35463SOL     OW 8227   8.930   0.443   4.581
35463SOL    HW1 8228   8.886   0.372   4.534
35463SOL    HW2 8229   9.009   0.403   4.617
35464SOL     OW 8230  13.942   2.892   2.446
35464SOL    HW1 8231  13.980   2.810   2.478
35464SOL    HW2 8232  13.867   2.864   2.393
35465SOL     OW 8233   9.925   2.534   7.333
35465SOL    HW1 8234   9.846   2.529   7.280
35465SOL    HW2 8235   9.952   2.626   7.328
35466SOL     OW 8236  10.904   4.566  14.206
35466SOL    HW1 8237  10.810   4.545  14.204
35466SOL    HW2 8238  10.948   4.482  14.191
35467SOL     OW 8239  12.711   5.960  12.332
35467SOL    HW1 8240  12.629   5.969  12.380
35467SOL    HW2 8241  12.686   5.931  12.245
35468SOL     OW 8242  10.450   5.946   6.233
35468SOL    HW1 8243  10.397   5.880   6.188
35468SOL    HW2 8244  10.386   6.010   6.266
35469SOL     OW 8245  11.139  12.550   2.645
35469SOL    HW1 8246  11.229  12.541   2.613
35469SOL    HW2 8247  11.142  12.624   2.706
35470SOL     OW 8248   9.479  11.655   4.039
35470SOL    HW1 8249   9.519  11.607   3.967
35470SOL    HW2 8250   9.548  11.711   4.072
35471SOL     OW 8251   9.955   5.719   4.101
35471SOL    HW1 8252  10.011   5.773   4.157
35471SOL    HW2 8253   9.902   5.668   4.162
35472SOL     OW 8254   9.572  14.841   3.511
35472SOL    HW1 8255   9.658   0.002   3.511
35472SOL    HW2 8256   9.580  14.766   3.452
35473SOL     OW 8257  10.536  11.606   1.236
35473SOL    HW1 8258  10.480  11.536   1.270
35473SOL    HW2 8259  10.500  11.686   1.275
35474SOL     OW 8260  11.420   4.708  14.190
35474SOL    HW1 8261  11.470   4.748  14.261
35474SOL    HW2 8262  11.350   4.771  14.172
35475SOL     OW 8263   0.792   3.899   3.722
35475SOL    HW1 8264   0.843   3.820   3.701
35475SOL    HW2 8265   0.798   3.907   3.817
35476SOL     OW 8266   1.062   0.325   4.737
35476SOL    HW1 8267   1.149   0.289   4.754
35476SOL    HW2 8268   1.058   0.404   4.791
35477SOL     OW 8269   9.631  12.444   8.240
35477SOL    HW1 8270   9.632  12.533   8.276
35477SOL    HW2 8271   9.681  12.449   8.159
35478SOL     OW 8272   0.586   7.237   8.886
35478SOL    HW1 8273   0.644   7.190   8.946
35478SOL    HW2 8274   0.645   7.282   8.825
35479SOL     OW 8275  10.014  13.983  13.719
35479SOL    HW1 8276  10.010  14.053  13.784
35479SOL    HW2 8277  10.107  13.973  13.699
35480SOL     OW 8278   0.126   0.879   1.400
35480SOL    HW1 8279   0.191   0.949   1.396
35480SOL    HW2 8280   0.087   0.878   1.313
35481SOL     OW 8281   8.831   0.590   9.086
35481SOL    HW1 8282   8.803   0.522   9.024
35481SOL    HW2 8283   8.806   0.673   9.044
35482SOL     OW 8284  13.795   4.839   3.338
35482SOL    HW1 8285  13.837   4.907   3.391
35482SOL    HW2 8286  13.704   4.868   3.331
35483SOL     OW 8287   6.834   9.401   4.100
35483SOL    HW1 8288   6.868   9.325   4.053
35483SOL    HW2 8289   6.889   9.405   4.179
35484SOL     OW 8290   1.502  13.518   9.222
35484SOL    HW1 8291   1.427  13.577   9.220
35484SOL    HW2 8292   1.483  13.451   9.156
35485SOL     OW 8293   0.337   1.603   2.678
35485SOL    HW1 8294   0.376   1.577   2.761
35485SOL    HW2 8295   0.243   1.604   2.694
35486SOL     OW 8296   9.401   9.929   4.759
35486SOL    HW1 8297   9.449   9.881   4.692
35486SOL    HW2 8298   9.368  10.007   4.715
35487SOL     OW 8299  11.843   3.421   2.520
35487SOL    HW1 8300  11.748   3.422   2.516
35487SOL    HW2 8301  11.864   3.485   2.588
35488SOL     OW 8302   6.220   3.711   7.799
35488SOL    HW1 8303   6.231   3.672   7.886
35488SOL    HW2 8304   6.212   3.805   7.816
35489SOL     OW 8305   1.444   2.251   6.969
35489SOL    HW1 8306   1.399   2.249   7.053
35489SOL    HW2 8307   1.467   2.343   6.955
35490SOL     OW 8308   1.809   5.731   5.063
35490SOL    HW1 8309   1.740   5.775   5.114
35490SOL    HW2 8310   1.766   5.705   4.982
35491SOL     OW 8311   7.914   8.203   9.962
35491SOL    HW1 8312   7.876   8.146   9.895
35491SOL    HW2 8313   7.977   8.147  10.008
35492SOL     OW 8314   0.632  12.870  10.437
35492SOL    HW1 8315   0.652  12.859  10.530
35492SOL    HW2 8316   0.553  12.817  10.423
35493SOL     OW 8317   4.576   2.169  14.459
35493SOL    HW1 8318   4.504   2.160  14.397
35493SOL    HW2 8319   4.641   2.106  14.429
35494SOL     OW 8320   2.876   8.606  13.708
35494SOL    HW1 8321   2.810   8.605  13.777
35494SOL    HW2 8322   2.826   8.609  13.626
35495SOL     OW 8323   8.799   3.416   8.579
35495SOL    HW1 8324   8.817   3.443   8.489
35495SOL    HW2 8325   8.792   3.321   8.576
35496SOL     OW 8326   2.371  11.033   9.468
35496SOL    HW1 8327   2.419  11.019   9.550
35496SOL    HW2 8328   2.279  11.019   9.492
35497SOL     OW 8329   0.180   4.715  14.692
35497SOL    HW1 8330   0.221   4.762  14.764
35497SOL    HW2 8331   0.131   4.782  14.644
35498SOL     OW 8332   2.093  13.261  13.512
35498SOL    HW1 8333   2.171  13.257  13.568
35498SOL    HW2 8334   2.115  13.207  13.436
35499SOL     OW 8335   0.614  14.021  14.263
35499SOL    HW1 8336   0.552  14.033  14.191
35499SOL    HW2 8337   0.635  13.927  14.261
35500SOL     OW 8338   1.262  12.267   4.509
35500SOL    HW1 8339   1.199  12.254   4.580
35500SOL    HW2 8340   1.276  12.180   4.473
35501SOL     OW 8341   3.915   6.537  10.430
35501SOL    HW1 8342   3.997   6.587  10.431
35501SOL    HW2 8343   3.926   6.474  10.359
35502SOL     OW 8344   1.702   9.217   5.679
35502SOL    HW1 8345   1.674   9.300   5.718
35502SOL    HW2 8346   1.623   9.182   5.638
35503SOL     OW 8347  12.878   0.346   6.988
35503SOL    HW1 8348  12.904   0.328   7.079
35503SOL    HW2 8349  12.951   0.313   6.936
35504SOL     OW 8350   0.091   6.811   3.758
35504SOL    HW1 8351   0.025   6.793   3.825
35504SOL    HW2 8352   0.055   6.885   3.709
35505SOL     OW 8353   4.200   3.081   9.977
35505SOL    HW1 8354   4.230   2.992   9.995
35505SOL    HW2 8355   4.159   3.075   9.891
35506SOL     OW 8356   1.353  11.987   9.438
35506SOL    HW1 8357   1.413  11.935   9.490
35506SOL    HW2 8358   1.408  12.027   9.370
35507SOL     OW 8359  12.820   8.869   3.916
35507SOL    HW1 8360  12.802   8.777   3.938
35507SOL    HW2 8361  12.766   8.919   3.977
35508SOL     OW 8362  14.007  14.741   7.653
35508SOL    HW1 8363  14.052  14.657   7.655
35508SOL    HW2 8364  14.056  14.796   7.715
35509SOL     OW 8365  13.526   1.303  14.161
35509SOL    HW1 8366  13.607   1.282  14.207
35509SOL    HW2 8367  13.510   1.226  14.105
35510SOL     OW 8368   4.942  11.036  10.530
35510SOL    HW1 8369   4.901  11.115  10.566
35510SOL    HW2 8370   4.906  10.964  10.582
35511SOL     OW 8371  12.885   7.140   5.982
35511SOL    HW1 8372  12.864   7.056   5.940
35511SOL    HW2 8373  12.898   7.117   6.074
35512SOL     OW 8374  10.793   0.578   1.448
35512SOL    HW1 8375  10.805   0.494   1.403
35512SOL    HW2 8376  10.813   0.559   1.540
35513SOL     OW 8377  13.886   5.682   1.464
35513SOL    HW1 8378  13.855   5.600   1.501
35513SOL    HW2 8379  13.871   5.747   1.533
35514SOL     OW 8380   7.758   7.800   0.707
35514SOL    HW1 8381   7.847   7.782   0.677
35514SOL    HW2 8382   7.770   7.843   0.791
35515SOL     OW 8383   3.266   7.856   6.398
35515SOL    HW1 8384   3.232   7.812   6.476
35515SOL    HW2 8385   3.188   7.877   6.347
35516SOL     OW 8386   3.717   4.042  11.478
35516SOL    HW1 8387   3.703   4.018  11.386
35516SOL    HW2 8388   3.683   3.967  11.528
35517SOL     OW 8389   7.033  10.176   6.530
35517SOL    HW1 8390   7.064  10.089   6.555
35517SOL    HW2 8391   7.101  10.210   6.473
35518SOL     OW 8392  11.204  13.364   2.365
35518SOL    HW1 8393  11.146  13.369   2.440
35518SOL    HW2 8394  11.285  13.326   2.399
35519SOL     OW 8395   9.686  11.283   8.192
35519SOL    HW1 8396   9.782  11.285   8.195
35519SOL    HW2 8397   9.662  11.204   8.241
35520SOL     OW 8398  13.181   0.035  10.229
35520SOL    HW1 8399  13.250  14.859  10.194
35520SOL    HW2 8400  13.181   0.018  10.323
35521SOL     OW 8401   9.955  11.428   0.791
35521SOL    HW1 8402   9.927  11.368   0.859
35521SOL    HW2 8403   9.913  11.511   0.812
35522SOL     OW 8404   2.093   0.176   7.375
35522SOL    HW1 8405   2.104   0.266   7.406
35522SOL    HW2 8406   2.175   0.132   7.400
35523SOL     OW 8407   5.309   3.670   3.560
35523SOL    HW1 8408   5.257   3.600   3.521
35523SOL    HW2 8409   5.261   3.750   3.539
35524SOL     OW 8410  14.066   1.412  12.159
35524SOL    HW1 8411  14.094   1.359  12.083
35524SOL    HW2 8412  14.129   1.388  12.227
35525SOL     OW 8413   2.966  13.133   2.290
35525SOL    HW1 8414   2.875  13.149   2.263
35525SOL    HW2 8415   3.010  13.216   2.274
35526SOL     OW 8416   9.333  14.672  11.425
35526SOL    HW1 8417   9.375  14.587  11.411
35526SOL    HW2 8418   9.240  14.656  11.412
35527SOL     OW 8419   8.230   9.052   9.688
35527SOL    HW1 8420   8.173   9.073   9.761
35527SOL    HW2 8421   8.293   9.125   9.685
35528SOL     OW 8422  10.616   8.472  12.139
35528SOL    HW1 8423  10.611   8.376  12.132
35528SOL    HW2 8424  10.528   8.502  12.116
35529SOL     OW 8425  11.020   6.484  10.591
35529SOL    HW1 8426  10.969   6.507  10.513
35529SOL    HW2 8427  11.026   6.388  10.588
35530SOL     OW 8428   2.952   9.812   5.010
35530SOL    HW1 8429   2.878   9.870   4.995
35530SOL    HW2 8430   3.025   9.851   4.961
35531SOL     OW 8431  13.549   5.214  10.827
35531SOL    HW1 8432  13.554   5.226  10.732
35531SOL    HW2 8433  13.626   5.163  10.849
35532SOL     OW 8434   5.475   9.027  10.979
35532SOL    HW1 8435   5.396   8.985  10.945
35532SOL    HW2 8436   5.517   9.065  10.902
35533SOL     OW 8437   0.688   5.181   1.107
35533SOL    HW1 8438   0.631   5.107   1.083
35533SOL    HW2 8439   0.696   5.175   1.202
35534SOL     OW 8440   2.897  13.056  14.756
35534SOL    HW1 8441   2.914  13.113  14.830
35534SOL    HW2 8442   2.983  13.028  14.727
35535SOL     OW 8443   4.576  13.305  10.019
35535SOL    HW1 8444   4.559  13.292   9.926
35535SOL    HW2 8445   4.489  13.301  10.060
35536SOL     OW 8446  12.911   7.576   2.219
35536SOL    HW1 8447  12.839   7.532   2.264
35536SOL    HW2 8448  12.872   7.607   2.137
35537SOL     OW 8449   6.633  10.594  14.568
35537SOL    HW1 8450   6.648  10.501  14.585
35537SOL    HW2 8451   6.708  10.638  14.607
35538SOL     OW 8452   2.123   5.439  14.295
35538SOL    HW1 8453   2.208   5.450  14.251
35538SOL    HW2 8454   2.146   5.422  14.386
35539SOL     OW 8455  12.874  12.000   3.244
35539SOL    HW1 8456  12.793  11.974   3.288
35539SOL    HW2 8457  12.930  12.032   3.315
35540SOL     OW 8458   5.213   1.279   4.855
35540SOL    HW1 8459   5.135   1.257   4.905
35540SOL    HW2 8460   5.238   1.366   4.887
35541SOL     OW 8461  10.018   6.780   2.105
35541SOL    HW1 8462   9.977   6.727   2.173
35541SOL    HW2 8463   9.963   6.767   2.028
35542SOL     OW 8464   5.594   9.868   9.928
35542SOL    HW1 8465   5.650   9.923   9.874
35542SOL    HW2 8466   5.611   9.895  10.018
35543SOL     OW 8467  12.188   4.142   8.889
35543SOL    HW1 8468  12.170   4.176   8.977
35543SOL    HW2 8469  12.108   4.159   8.840
35544SOL     OW 8470   9.747   3.861   5.069
35544SOL    HW1 8471   9.696   3.899   4.998
35544SOL    HW2 8472   9.691   3.869   5.146
35545SOL     OW 8473   0.879   3.325  13.495
35545SOL    HW1 8474   0.810   3.262  13.474
35545SOL    HW2 8475   0.907   3.302  13.584
35546SOL     OW 8476  10.898  13.687   7.910
35546SOL    HW1 8477  10.819  13.721   7.869
35546SOL    HW2 8478  10.869  13.652   7.994
35547SOL     OW 8479   9.544  13.240  14.709
35547SOL    HW1 8480   9.629  13.256  14.751
35547SOL    HW2 8481   9.497  13.186  14.772
35548SOL     OW 8482   4.120   9.271   6.452
35548SOL    HW1 8483   4.112   9.288   6.358
35548SOL    HW2 8484   4.089   9.351   6.494
35549SOL     OW 8485   3.797  12.971   1.316
35549SOL    HW1 8486   3.856  13.002   1.385
35549SOL    HW2 8487   3.765  12.887   1.348
35550SOL     OW 8488  12.912  14.577   7.744
35550SOL    HW1 8489  12.910  14.484   7.766
35550SOL    HW2 8490  12.854  14.619   7.809
35551SOL     OW 8491   4.890   7.908   7.584
35551SOL    HW1 8492   4.973   7.923   7.538
35551SOL    HW2 8493   4.856   7.995   7.602
35552SOL     OW 8494   6.243   2.201   7.492
35552SOL    HW1 8495   6.246   2.231   7.583
35552SOL    HW2 8496   6.163   2.241   7.457
35553SOL     OW 8497   9.229   9.036   2.421
35553SOL    HW1 8498   9.227   9.108   2.359
35553SOL    HW2 8499   9.146   8.991   2.409
35554SOL     OW 8500   6.329  13.108  11.300
35554SOL    HW1 8501   6.266  13.166  11.340
35554SOL    HW2 8502   6.335  13.033  11.360
35555SOL     OW 8503  11.820  13.174  10.314
35555SOL    HW1 8504  11.758  13.187  10.386
35555SOL    HW2 8505  11.902  13.150  10.358
35556SOL     OW 8506  12.493  13.914  11.334
35556SOL    HW1 8507  12.432  13.985  11.353
35556SOL    HW2 8508  12.449  13.835  11.365
35557SOL     OW 8509   5.179   3.076  11.388
35557SOL    HW1 8510   5.134   3.144  11.438
35557SOL    HW2 8511   5.126   2.997  11.403
35558SOL     OW 8512   3.517  12.652   7.018
35558SOL    HW1 8513   3.460  12.595   7.069
35558SOL    HW2 8514   3.550  12.596   6.947
35559SOL     OW 8515   4.285   4.270   8.018
35559SOL    HW1 8516   4.263   4.311   7.934
35559SOL    HW2 8517   4.352   4.206   7.997
35560SOL     OW 8518   1.791   1.607   9.008
35560SOL    HW1 8519   1.865   1.591   8.949
35560SOL    HW2 8520   1.720   1.553   8.974
35561SOL     OW 8521  11.675   4.086   0.188
35561SOL    HW1 8522  11.584   4.111   0.173
35561SOL    HW2 8523  11.679   4.064   0.281
35562SOL     OW 8524   3.995   5.331   7.206
35562SOL    HW1 8525   4.071   5.385   7.182
35562SOL    HW2 8526   4.021   5.287   7.287
35563SOL     OW 8527  14.798  13.336   5.815
35563SOL    HW1 8528  14.867  13.306   5.875
35563SOL    HW2 8529  14.720  13.288   5.843
35564SOL     OW 8530  13.289   0.308  10.488
35564SOL    HW1 8531  13.245   0.223  10.493
35564SOL    HW2 8532  13.270   0.339  10.400
35565SOL     OW 8533  13.972  13.669   5.863
35565SOL    HW1 8534  13.911  13.716   5.806
35565SOL    HW2 8535  13.916  13.633   5.933
35566SOL     OW 8536   3.590   3.331  11.849
35566SOL    HW1 8537   3.608   3.241  11.877
35566SOL    HW2 8538   3.594   3.328  11.753
35567SOL     OW 8539  11.158   8.203   4.492
35567SOL    HW1 8540  11.162   8.274   4.556
35567SOL    HW2 8541  11.191   8.126   4.540
35568SOL     OW 8542  11.085   5.084   1.735
35568SOL    HW1 8543  11.037   5.167   1.733
35568SOL    HW2 8544  11.155   5.098   1.798
35569SOL     OW 8545   0.162   0.760   0.595
35569SOL    HW1 8546   0.151   0.806   0.678
35569SOL    HW2 8547   0.075   0.762   0.554
35570SOL     OW 8548   9.911   8.439   6.243
35570SOL    HW1 8549   9.956   8.505   6.190
35570SOL    HW2 8550   9.837   8.411   6.188
35571SOL     OW 8551   2.877   1.339   8.270
35571SOL    HW1 8552   2.846   1.400   8.202
35571SOL    HW2 8553   2.946   1.289   8.228
35572SOL     OW 8554  13.876   9.681   1.981
35572SOL    HW1 8555  13.938   9.752   1.963
35572SOL    HW2 8556  13.890   9.618   1.910
35573SOL     OW 8557   1.161   3.128   4.616
35573SOL    HW1 8558   1.153   3.195   4.685
35573SOL    HW2 8559   1.164   3.178   4.535
35574SOL     OW 8560   5.792   0.372  12.328
35574SOL    HW1 8561   5.866   0.359  12.387
35574SOL    HW2 8562   5.724   0.412  12.382
35575SOL     OW 8563   1.634  12.408   5.230
35575SOL    HW1 8564   1.677  12.447   5.306
35575SOL    HW2 8565   1.583  12.335   5.266
35576SOL     OW 8566   2.148   2.935   9.357
35576SOL    HW1 8567   2.071   2.945   9.302
35576SOL    HW2 8568   2.137   2.999   9.427
35577SOL     OW 8569   7.794  13.734   7.076
35577SOL    HW1 8570   7.876  13.736   7.027
35577SOL    HW2 8571   7.729  13.769   7.016
35578SOL     OW 8572   1.449  12.360   6.542
35578SOL    HW1 8573   1.475  12.268   6.543
35578SOL    HW2 8574   1.391  12.369   6.618
35579SOL     OW 8575  10.859  12.672   4.367
35579SOL    HW1 8576  10.821  12.654   4.281
35579SOL    HW2 8577  10.859  12.587   4.411
35580SOL     OW 8578   6.611   2.679   3.296
35580SOL    HW1 8579   6.681   2.700   3.358
35580SOL    HW2 8580   6.656   2.637   3.223
35581SOL     OW 8581  11.390  12.917   3.233
35581SOL    HW1 8582  11.451  12.990   3.216
35581SOL    HW2 8583  11.366  12.927   3.325
35582SOL     OW 8584  14.694   1.058   0.757
35582SOL    HW1 8585  14.740   0.974   0.765
35582SOL    HW2 8586  14.683   1.070   0.663
35583SOL     OW 8587   8.092   5.946   3.567
35583SOL    HW1 8588   8.077   5.889   3.643
35583SOL    HW2 8589   8.187   5.952   3.559
35584SOL     OW 8590   9.610   7.369  14.866
35584SOL    HW1 8591   9.538   7.340   0.043
35584SOL    HW2 8592   9.673   7.408   0.046
35585SOL     OW 8593   4.108   9.499  10.197
35585SOL    HW1 8594   4.018   9.530  10.201
35585SOL    HW2 8595   4.101   9.405  10.182
35586SOL     OW 8596   5.897   2.532   2.615
35586SOL    HW1 8597   5.909   2.626   2.624
35586SOL    HW2 8598   5.834   2.523   2.543
35587SOL     OW 8599  10.650  12.605  13.711
35587SOL    HW1 8600  10.565  12.612  13.667
35587SOL    HW2 8601  10.661  12.512  13.729
35588SOL     OW 8602   2.303   7.602  11.668
35588SOL    HW1 8603   2.334   7.649  11.591
35588SOL    HW2 8604   2.209   7.593  11.655
35589SOL     OW 8605   1.761   4.407   6.061
35589SOL    HW1 8606   1.667   4.389   6.068
35589SOL    HW2 8607   1.803   4.327   6.092
35590SOL     OW 8608  11.414   1.969   4.664
35590SOL    HW1 8609  11.484   2.000   4.607
35590SOL    HW2 8610  11.451   1.894   4.710
35591SOL     OW 8611   1.976   9.037  11.249
35591SOL    HW1 8612   1.966   9.120  11.203
35591SOL    HW2 8613   1.888   9.000  11.252
35592SOL     OW 8614   5.929  12.515   5.137
35592SOL    HW1 8615   6.014  12.479   5.161
35592SOL    HW2 8616   5.875  12.505   5.216
35593SOL     OW 8617  11.211   1.111   4.402
35593SOL    HW1 8618  11.142   1.135   4.340
35593SOL    HW2 8619  11.260   1.193   4.414
35594SOL     OW 8620  10.511   2.810   4.780
35594SOL    HW1 8621  10.540   2.888   4.827
35594SOL    HW2 8622  10.491   2.747   4.849
35595SOL     OW 8623   3.948   2.260   8.022
35595SOL    HW1 8624   3.861   2.245   7.985
35595SOL    HW2 8625   4.007   2.208   7.967
35596SOL     OW 8626  12.073   3.405   4.747
35596SOL    HW1 8627  12.115   3.450   4.820
35596SOL    HW2 8628  12.060   3.472   4.680
35597SOL     OW 8629   4.755   0.195  11.396
35597SOL    HW1 8630   4.760   0.227  11.306
35597SOL    HW2 8631   4.786   0.268  11.450
35598SOL     OW 8632   3.520   6.354   8.597
35598SOL    HW1 8633   3.458   6.359   8.670
35598SOL    HW2 8634   3.493   6.424   8.537
35599SOL     OW 8635  11.583   1.378  12.494
35599SOL    HW1 8636  11.503   1.394  12.544
35599SOL    HW2 8637  11.618   1.297  12.529
35600SOL     OW 8638   7.380   5.283   2.844
35600SOL    HW1 8639   7.357   5.347   2.911
35600SOL    HW2 8640   7.365   5.198   2.887
35601SOL     OW 8641  12.842  11.681  14.492
35601SOL    HW1 8642  12.850  11.678  14.397
35601SOL    HW2 8643  12.873  11.769  14.516
35602SOL     OW 8644   4.548   9.793   0.366
35602SOL    HW1 8645   4.491   9.727   0.327
35602SOL    HW2 8646   4.582   9.752   0.445
35603SOL     OW 8647   8.493  12.186  13.225
35603SOL    HW1 8648   8.456  12.246  13.160
35603SOL    HW2 8649   8.536  12.117  13.172
35604SOL     OW 8650   2.513   4.141   3.448
35604SOL    HW1 8651   2.447   4.071   3.454
35604SOL    HW2 8652   2.595   4.095   3.434
35605SOL     OW 8653   3.239   5.124  10.817
35605SOL    HW1 8654   3.301   5.134  10.888
35605SOL    HW2 8655   3.285   5.071  10.752
35606SOL     OW 8656   5.133   8.589   7.366
35606SOL    HW1 8657   5.122   8.529   7.440
35606SOL    HW2 8658   5.179   8.664   7.402
35607SOL     OW 8659   3.593  10.314   5.200
35607SOL    HW1 8660   3.528  10.383   5.184
35607SOL    HW2 8661   3.658  10.327   5.130
35608SOL     OW 8662   3.861  14.831   0.917
35608SOL    HW1 8663   3.787  14.781   0.949
35608SOL    HW2 8664   3.846  14.841   0.823
35609SOL     OW 8665   9.329   1.710   3.959
35609SOL    HW1 8666   9.359   1.801   3.964
35609SOL    HW2 8667   9.406   1.658   3.980
35610SOL     OW 8668  12.978   7.817   5.099
35610SOL    HW1 8669  12.933   7.780   5.175
35610SOL    HW2 8670  13.017   7.742   5.055
35611SOL     OW 8671   8.686  13.606  11.984
35611SOL    HW1 8672   8.742  13.529  11.991
35611SOL    HW2 8673   8.600  13.577  12.012
35612SOL     OW 8674   9.081   1.512   2.973
35612SOL    HW1 8675   9.053   1.461   2.897
35612SOL    HW2 8676   9.002   1.523   3.026
35613SOL     OW 8677   0.161   1.037   2.543
35613SOL    HW1 8678   0.190   0.973   2.610
35613SOL    HW2 8679   0.066   1.033   2.546
35614SOL     OW 8680   8.771   1.457  13.259
35614SOL    HW1 8681   8.831   1.487  13.191
35614SOL    HW2 8682   8.792   1.364  13.270
35615SOL     OW 8683  14.239  12.283   2.699
35615SOL    HW1 8684  14.208  12.225   2.630
35615SOL    HW2 8685  14.289  12.226   2.757
35616SOL     OW 8686  12.410   7.324  10.773
35616SOL    HW1 8687  12.374   7.393  10.717
35616SOL    HW2 8688  12.459   7.371  10.840
35617SOL     OW 8689  13.561   2.517   6.689
35617SOL    HW1 8690  13.599   2.599   6.656
35617SOL    HW2 8691  13.468   2.522   6.664
35618SOL     OW 8692   8.450   6.560  13.801
35618SOL    HW1 8693   8.462   6.501  13.875
35618SOL    HW2 8694   8.517   6.534  13.738
35619SOL     OW 8695  12.292   7.190   2.772
35619SOL    HW1 8696  12.254   7.153   2.852
35619SOL    HW2 8697  12.236   7.265   2.752
35620SOL     OW 8698   4.252  12.126   7.105
35620SOL    HW1 8699   4.235  12.037   7.135
35620SOL    HW2 8700   4.343  12.123   7.074
35621SOL     OW 8701  14.621   4.881   9.879
35621SOL    HW1 8702  14.618   4.866   9.785
35621SOL    HW2 8703  14.710   4.856   9.904
35622SOL     OW 8704   4.058   8.198  13.441
35622SOL    HW1 8705   4.026   8.198  13.351
35622SOL    HW2 8706   4.059   8.290  13.467
35623SOL     OW 8707   1.994   6.750   0.117
35623SOL    HW1 8708   1.998   6.834   0.163
35623SOL    HW2 8709   1.902   6.742   0.092
35624SOL     OW 8710   6.941   9.978  12.925
35624SOL    HW1 8711   6.954  10.073  12.916
35624SOL    HW2 8712   6.875   9.970  12.993
35625SOL     OW 8713   6.604   7.388   6.789
35625SOL    HW1 8714   6.517   7.384   6.748
35625SOL    HW2 8715   6.619   7.481   6.804
35626SOL     OW 8716   6.461   2.054   2.402
35626SOL    HW1 8717   6.388   2.010   2.358
35626SOL    HW2 8718   6.445   2.147   2.388
35627SOL     OW 8719   7.131   7.375   0.358
35627SOL    HW1 8720   7.194   7.442   0.331
35627SOL    HW2 8721   7.169   7.293   0.328
35628SOL     OW 8722  13.243   7.546   2.824
35628SOL    HW1 8723  13.317   7.567   2.768
35628SOL    HW2 8724  13.205   7.630   2.846
35629SOL     OW 8725   2.900   0.076  13.318
35629SOL    HW1 8726   2.850   0.117  13.247
35629SOL    HW2 8727   2.955   0.011  13.274
35630SOL     OW 8728  11.518   6.758   8.544
35630SOL    HW1 8729  11.583   6.749   8.613
35630SOL    HW2 8730  11.569   6.753   8.463
35631SOL     OW 8731  12.877  10.956   5.469
35631SOL    HW1 8732  12.971  10.973   5.470
35631SOL    HW2 8733  12.851  10.959   5.561
35632SOL     OW 8734   7.128   6.007   7.036
35632SOL    HW1 8735   7.179   6.059   7.099
35632SOL    HW2 8736   7.080   6.072   6.986
35633SOL     OW 8737  13.261   4.124  14.863
35633SOL    HW1 8738  13.269   4.149  14.771
35633SOL    HW2 8739  13.302   4.196   0.032
35634SOL     OW 8740  11.288   2.938  14.551
35634SOL    HW1 8741  11.204   2.947  14.596
35634SOL    HW2 8742  11.331   2.866  14.597
35635SOL     OW 8743  14.003  10.836   4.822
35635SOL    HW1 8744  13.966  10.788   4.748
35635SOL    HW2 8745  14.094  10.851   4.797
35636SOL     OW 8746  13.039   2.481  10.676
35636SOL    HW1 8747  13.103   2.439  10.620
35636SOL    HW2 8748  13.020   2.565  10.633
35637SOL     OW 8749   9.519  14.014  10.219
35637SOL    HW1 8750   9.524  14.034  10.313
35637SOL    HW2 8751   9.444  13.954  10.212
35638SOL     OW 8752   6.261  14.741   5.173
35638SOL    HW1 8753   6.324  14.753   5.102
35638SOL    HW2 8754   6.180  14.779   5.139
35639SOL     OW 8755   1.010   1.121   2.041
35639SOL    HW1 8756   1.040   1.198   1.992
35639SOL    HW2 8757   0.940   1.154   2.097
35640SOL     OW 8758   6.351  10.574   9.834
35640SOL    HW1 8759   6.346  10.561   9.739
35640SOL    HW2 8760   6.432  10.622   9.848
35641SOL     OW 8761   9.844  11.308   6.091
35641SOL    HW1 8762   9.833  11.213   6.096
35641SOL    HW2 8763   9.816  11.331   6.002
35642SOL     OW 8764  14.865   4.910  14.041
35642SOL    HW1 8765   0.056   4.957  14.085
35642SOL    HW2 8766   0.023   4.827  14.015
35643SOL     OW 8767  12.049   8.883   5.244
35643SOL    HW1 8768  11.993   8.959   5.230
35643SOL    HW2 8769  12.124   8.917   5.293
35644SOL     OW 8770  11.192   4.364   3.739
35644SOL    HW1 8771  11.212   4.273   3.718
35644SOL    HW2 8772  11.261   4.414   3.695
35645SOL     OW 8773   7.371   9.774  14.596
35645SOL    HW1 8774   7.423   9.793  14.518
35645SOL    HW2 8775   7.292   9.826  14.586
35646SOL     OW 8776  14.721   7.680   4.824
35646SOL    HW1 8777  14.681   7.765   4.808
35646SOL    HW2 8778  14.814   7.700   4.838
35647SOL     OW 8779   2.541  12.199   7.394
35647SOL    HW1 8780   2.486  12.213   7.471
35647SOL    HW2 8781   2.482  12.164   7.328
35648SOL     OW 8782  14.850   2.013   9.489
35648SOL    HW1 8783  14.840   2.003   9.583
35648SOL    HW2 8784   0.046   1.959   9.467
35649SOL     OW 8785   3.645   7.256  10.655
35649SOL    HW1 8786   3.660   7.162  10.647
35649SOL    HW2 8787   3.553   7.264  10.680
35650SOL     OW 8788   5.072  13.087   1.970
35650SOL    HW1 8789   5.109  13.174   1.981
35650SOL    HW2 8790   5.022  13.092   1.889
35651SOL     OW 8791   8.704  13.850   5.964
35651SOL    HW1 8792   8.705  13.935   6.009
35651SOL    HW2 8793   8.632  13.858   5.900
35652SOL     OW 8794  12.258   1.924   7.161
35652SOL    HW1 8795  12.222   1.838   7.183
35652SOL    HW2 8796  12.342   1.904   7.120
35653SOL     OW 8797  12.016   5.252  10.145
35653SOL    HW1 8798  12.108   5.253  10.172
35653SOL    HW2 8799  11.968   5.225  10.224
35654SOL     OW 8800   0.042   5.231  11.187
35654SOL    HW1 8801   0.089   5.258  11.108
35654SOL    HW2 8802   0.111   5.216  11.252
35655SOL     OW 8803   1.736   3.778  13.624
35655SOL    HW1 8804   1.764   3.778  13.533
35655SOL    HW2 8805   1.675   3.704  13.631
35656SOL     OW 8806   5.596   3.911   8.742
35656SOL    HW1 8807   5.625   4.002   8.736
35656SOL    HW2 8808   5.562   3.891   8.654
35657SOL     OW 8809   0.417   8.422  13.663
35657SOL    HW1 8810   0.330   8.420  13.624
35657SOL    HW2 8811   0.450   8.333  13.654
35658SOL     OW 8812   2.026   9.723   4.615
35658SOL    HW1 8813   1.966   9.732   4.689
35658SOL    HW2 8814   2.051   9.813   4.594
35659SOL     OW 8815   8.632   7.378   3.061
35659SOL    HW1 8816   8.690   7.366   2.985
35659SOL    HW2 8817   8.657   7.309   3.122
35660SOL     OW 8818   2.045  12.999   0.433
35660SOL    HW1 8819   2.119  13.056   0.413
35660SOL    HW2 8820   1.969  13.043   0.394
35661SOL     OW 8821   0.017   1.599   4.655
35661SOL    HW1 8822  14.808   1.564   4.645
35661SOL    HW2 8823   0.074   1.523   4.646
35662SOL     OW 8824   3.482   1.056   8.686
35662SOL    HW1 8825   3.521   1.058   8.773
35662SOL    HW2 8826   3.494   1.145   8.652
35663SOL     OW 8827   7.006   2.694   0.024
35663SOL    HW1 8828   7.091   2.652   0.009
35663SOL    HW2 8829   6.954   2.667  14.828
35664SOL     OW 8830   5.362   4.213  12.594
35664SOL    HW1 8831   5.387   4.120  12.591
35664SOL    HW2 8832   5.351   4.232  12.687
35665SOL     OW 8833   4.643   2.960  12.702
35665SOL    HW1 8834   4.592   2.881  12.682
35665SOL    HW2 8835   4.620   2.982  12.792
35666SOL     OW 8836   7.289  13.873   8.445
35666SOL    HW1 8837   7.370  13.924   8.437
35666SOL    HW2 8838   7.260  13.860   8.355
35667SOL     OW 8839   1.912   5.186  13.747
35667SOL    HW1 8840   1.829   5.217  13.784
35667SOL    HW2 8841   1.951   5.132  13.816
35668SOL     OW 8842   1.977  14.392   4.391
35668SOL    HW1 8843   2.011  14.303   4.386
35668SOL    HW2 8844   2.034  14.442   4.333
35669SOL     OW 8845  11.714   3.196  14.416
35669SOL    HW1 8846  11.620   3.213  14.426
35669SOL    HW2 8847  11.719   3.131  14.346
35670SOL     OW 8848   6.687   5.153   8.454
35670SOL    HW1 8849   6.695   5.095   8.378
35670SOL    HW2 8850   6.714   5.099   8.528
35671SOL     OW 8851   7.181  12.702   1.861
35671SOL    HW1 8852   7.178  12.675   1.953
35671SOL    HW2 8853   7.264  12.667   1.828
35672SOL     OW 8854   3.438   0.878  13.848
35672SOL    HW1 8855   3.407   0.931  13.775
35672SOL    HW2 8856   3.369   0.813  13.862
35673SOL     OW 8857   8.931   9.414   8.467
35673SOL    HW1 8858   8.916   9.489   8.525
35673SOL    HW2 8859   8.937   9.452   8.379
35674SOL     OW 8860   0.173   5.044  13.550
35674SOL    HW1 8861   0.090   5.014  13.589
35674SOL    HW2 8862   0.239   5.021  13.615
35675SOL     OW 8863   1.091   8.869  10.257
35675SOL    HW1 8864   1.176   8.825  10.256
35675SOL    HW2 8865   1.072   8.885  10.165
35676SOL     OW 8866   3.353  10.311  13.880
35676SOL    HW1 8867   3.366  10.264  13.962
35676SOL    HW2 8868   3.284  10.375  13.898
35677SOL     OW 8869   8.435   3.146  11.374
35677SOL    HW1 8870   8.508   3.196  11.411
35677SOL    HW2 8871   8.357   3.195  11.399
35678SOL     OW 8872   1.871   8.879   0.802
35678SOL    HW1 8873   1.826   8.855   0.721
35678SOL    HW2 8874   1.961   8.897   0.775
35679SOL     OW 8875   6.647   6.794   1.032
35679SOL    HW1 8876   6.731   6.833   1.058
35679SOL    HW2 8877   6.671   6.708   0.999
35680SOL     OW 8878   4.526   2.585  10.557
35680SOL    HW1 8879   4.503   2.674  10.585
35680SOL    HW2 8880   4.482   2.573  10.473
35681SOL     OW 8881  11.448   0.881   1.185
35681SOL    HW1 8882  11.405   0.960   1.152
35681SOL    HW2 8883  11.419   0.874   1.276
35682SOL     OW 8884   6.220   0.747   0.882
35682SOL    HW1 8885   6.241   0.664   0.838
35682SOL    HW2 8886   6.179   0.720   0.964
35683SOL     OW 8887  12.013   2.569  13.682
35683SOL    HW1 8888  12.080   2.616  13.634
35683SOL    HW2 8889  11.956   2.532  13.615
35684SOL     OW 8890   0.438   8.424   5.776
35684SOL    HW1 8891   0.390   8.343   5.762
35684SOL    HW2 8892   0.490   8.435   5.696
35685SOL     OW 8893   2.316  10.771   5.863
35685SOL    HW1 8894   2.241  10.766   5.804
35685SOL    HW2 8895   2.384  10.815   5.812
35686SOL     OW 8896   7.234   2.761   4.864
35686SOL    HW1 8897   7.150   2.797   4.893
35686SOL    HW2 8898   7.223   2.750   4.769
35687SOL     OW 8899   3.552   0.782   8.735
35687SOL    HW1 8900   3.533   0.824   8.819
35687SOL    HW2 8901   3.554   0.854   8.672
35688SOL     OW 8902   9.029   9.340   5.782
35688SOL    HW1 8903   8.942   9.300   5.792
35688SOL    HW2 8904   9.065   9.301   5.703
35689SOL     OW 8905   3.904   9.285   8.604
35689SOL    HW1 8906   3.975   9.224   8.621
35689SOL    HW2 8907   3.830   9.230   8.580
35690SOL     OW 8908  14.557   5.099   3.083
35690SOL    HW1 8909  14.628   5.054   3.129
35690SOL    HW2 8910  14.500   5.028   3.052
35691SOL     OW 8911  12.263  12.472   2.514
35691SOL    HW1 8912  12.324  12.463   2.441
35691SOL    HW2 8913  12.205  12.544   2.488
35692SOL     OW 8914   1.727   7.539   2.732
35692SOL    HW1 8915   1.720   7.474   2.662
35692SOL    HW2 8916   1.796   7.504   2.789
35693SOL     OW 8917   1.460   5.176  12.519
35693SOL    HW1 8918   1.439   5.144  12.431
35693SOL    HW2 8919   1.421   5.111  12.578
35694SOL     OW 8920   6.462   0.516   7.737
35694SOL    HW1 8921   6.406   0.473   7.803
35694SOL    HW2 8922   6.429   0.483   7.653
35695SOL     OW 8923   0.405   9.316  10.534
35695SOL    HW1 8924   0.368   9.233  10.503
35695SOL    HW2 8925   0.329   9.363  10.570
35696SOL     OW 8926  10.932  14.724   9.715
35696SOL    HW1 8927  10.919  14.817   9.697
35696SOL    HW2 8928  10.849  14.695   9.753
35697SOL     OW 8929  11.331   8.523   5.814
35697SOL    HW1 8930  11.404   8.576   5.784
35697SOL    HW2 8931  11.277   8.584   5.865
35698SOL     OW 8932  10.733  13.325   4.408
35698SOL    HW1 8933  10.656  13.268   4.418
35698SOL    HW2 8934  10.796  13.272   4.359
35699SOL     OW 8935  14.025   6.713   2.897
35699SOL    HW1 8936  13.980   6.719   2.981
35699SOL    HW2 8937  13.989   6.785   2.846
35700SOL     OW 8938   5.416   8.596   2.377
35700SOL    HW1 8939   5.448   8.683   2.400
35700SOL    HW2 8940   5.324   8.609   2.356
35701SOL     OW 8941  12.801   6.599   9.274
35701SOL    HW1 8942  12.808   6.518   9.224
35701SOL    HW2 8943  12.713   6.630   9.256
35702SOL     OW 8944   4.349   2.292   7.063
35702SOL    HW1 8945   4.401   2.247   7.130
35702SOL    HW2 8946   4.398   2.278   6.982
35703SOL     OW 8947   5.513   3.522  13.668
35703SOL    HW1 8948   5.553   3.605  13.643
35703SOL    HW2 8949   5.553   3.500  13.752
35704SOL     OW 8950   7.161   6.878   4.993
35704SOL    HW1 8951   7.176   6.960   5.040
35704SOL    HW2 8952   7.108   6.825   5.052
35705SOL     OW 8953   8.136   0.230   7.337
35705SOL    HW1 8954   8.042   0.235   7.353
35705SOL    HW2 8955   8.156   0.307   7.283
35706SOL     OW 8956   8.497  13.933  10.242
35706SOL    HW1 8957   8.483  13.899  10.154
35706SOL    HW2 8958   8.471  13.862  10.300
35707SOL     OW 8959  14.136  11.641   4.346
35707SOL    HW1 8960  14.194  11.586   4.399
35707SOL    HW2 8961  14.195  11.691   4.290
35708SOL     OW 8962   5.342   4.786   3.932
35708SOL    HW1 8963   5.337   4.691   3.924
35708SOL    HW2 8964   5.306   4.804   4.019
35709SOL     OW 8965  11.013  10.417   3.441
35709SOL    HW1 8966  10.941  10.434   3.502
35709SOL    HW2 8967  10.978  10.352   3.380
35710SOL     OW 8968   3.162  11.560   2.540
35710SOL    HW1 8969   3.254  11.536   2.540
35710SOL    HW2 8970   3.116  11.480   2.566
35711SOL     OW 8971   5.708  10.375  12.243
35711SOL    HW1 8972   5.799  10.352  12.227
35711SOL    HW2 8973   5.697  10.363  12.337
35712SOL     OW 8974  13.678   8.178   8.905
35712SOL    HW1 8975  13.703   8.197   8.815
35712SOL    HW2 8976  13.641   8.090   8.903
35713SOL     OW 8977   3.064  14.132   2.149
35713SOL    HW1 8978   2.974  14.164   2.153
35713SOL    HW2 8979   3.067  14.059   2.211
35714SOL     OW 8980   8.596   7.743  12.873
35714SOL    HW1 8981   8.683   7.709  12.854
35714SOL    HW2 8982   8.536   7.686  12.825
35715SOL     OW 8983   0.404  11.481   2.020
35715SOL    HW1 8984   0.481  11.467   1.964
35715SOL    HW2 8985   0.419  11.567   2.060
35716SOL     OW 8986  13.462   5.335   0.514
35716SOL    HW1 8987  13.375   5.314   0.549
35716SOL    HW2 8988  13.450   5.419   0.469
35717SOL     OW 8989  12.169   8.395   0.621
35717SOL    HW1 8990  12.166   8.408   0.527
35717SOL    HW2 8991  12.254   8.355   0.638
35718SOL     OW 8992   3.238  14.139   5.685
35718SOL    HW1 8993   3.278  14.053   5.693
35718SOL    HW2 8994   3.251  14.180   5.771
35719SOL     OW 8995   4.608   3.529  11.324
35719SOL    HW1 8996   4.670   3.575  11.267
35719SOL    HW2 8997   4.546   3.596  11.351
35720SOL     OW 8998  14.257  13.282   5.287
35720SOL    HW1 8999  14.346  13.309   5.268
35720SOL    HW2 9000  14.222  13.251   5.203
35721SOL     OW 9001  12.340   8.439  13.518
35721SOL    HW1 9002  12.434   8.432  13.538
35721SOL    HW2 9003  12.315   8.526  13.549
35722SOL     OW 9004   0.042  14.820   2.524
35722SOL    HW1 9005   0.060  14.781   2.610
35722SOL    HW2 9006  14.846  14.877   2.540
35723SOL     OW 9007  12.532   4.718   2.069
35723SOL    HW1 9008  12.491   4.797   2.104
35723SOL    HW2 9009  12.475   4.646   2.097
35724SOL     OW 9010  11.518   8.067  12.924
35724SOL    HW1 9011  11.429   8.101  12.916
35724SOL    HW2 9012  11.570   8.141  12.955
35725SOL     OW 9013  14.405   2.724  11.849
35725SOL    HW1 9014  14.381   2.811  11.880
35725SOL    HW2 9015  14.323   2.686  11.818
35726SOL     OW 9016  13.023  13.388   4.235
35726SOL    HW1 9017  13.075  13.462   4.268
35726SOL    HW2 9018  12.937  13.398   4.276
35727SOL     OW 9019   9.052  11.449  13.180
35727SOL    HW1 9020   9.060  11.369  13.233
35727SOL    HW2 9021   9.124  11.504  13.211
35728SOL     OW 9022   4.554  11.615   1.930
35728SOL    HW1 9023   4.553  11.575   2.018
35728SOL    HW2 9024   4.619  11.684   1.936
35729SOL     OW 9025  10.919   1.587   3.641
35729SOL    HW1 9026  10.898   1.494   3.651
35729SOL    HW2 9027  10.992   1.588   3.578
35730SOL     OW 9028  14.634   5.017  14.814
35730SOL    HW1 9029  14.636   4.963   0.013
35730SOL    HW2 9030  14.691   4.972  14.752
35731SOL     OW 9031   1.880  10.957   8.834
35731SOL    HW1 9032   1.821  10.991   8.766
35731SOL    HW2 9033   1.962  11.003   8.819
35732SOL     OW 9034   4.099   0.087   0.896
35732SOL    HW1 9035   4.012   0.051   0.914
35732SOL    HW2 9036   4.139   0.097   0.982
35733SOL     OW 9037   0.881  11.803   9.314
35733SOL    HW1 9038   0.812  11.789   9.379
35733SOL    HW2 9039   0.933  11.875   9.349
35734SOL     OW 9040   0.667  12.158   9.170
35734SOL    HW1 9041   0.762  12.164   9.161
35734SOL    HW2 9042   0.647  12.207   9.250
35735SOL     OW 9043   0.473   0.705   9.624
35735SOL    HW1 9044   0.535   0.731   9.557
35735SOL    HW2 9045   0.519   0.721   9.707
35736SOL     OW 9046  14.783   1.528  14.115
35736SOL    HW1 9047  14.729   1.468  14.064
35736SOL    HW2 9048  14.730   1.607  14.124
35737SOL     OW 9049   2.076   8.394   9.424
35737SOL    HW1 9050   2.025   8.466   9.388
35737SOL    HW2 9051   2.144   8.378   9.358
35738SOL     OW 9052   5.125   5.126  12.975
35738SOL    HW1 9053   5.215   5.102  12.953
35738SOL    HW2 9054   5.107   5.202  12.920
35739SOL     OW 9055   2.618   6.498   6.192
35739SOL    HW1 9056   2.641   6.590   6.176
35739SOL    HW2 9057   2.670   6.449   6.128
35740SOL     OW 9058   0.288   3.431   2.605
35740SOL    HW1 9059   0.381   3.436   2.584
35740SOL    HW2 9060   0.286   3.422   2.701
35741SOL     OW 9061   3.638   2.417   2.997
35741SOL    HW1 9062   3.725   2.381   2.977
35741SOL    HW2 9063   3.579   2.343   2.989
35742SOL     OW 9064   2.385   8.424   2.801
35742SOL    HW1 9065   2.432   8.352   2.843
35742SOL    HW2 9066   2.296   8.392   2.790
35743SOL     OW 9067   6.211   0.842   3.418
35743SOL    HW1 9068   6.130   0.854   3.369
35743SOL    HW2 9069   6.218   0.747   3.431
35744SOL     OW 9070   1.250  13.867   5.610
35744SOL    HW1 9071   1.289  13.782   5.631
35744SOL    HW2 9072   1.193  13.850   5.535
35745SOL     OW 9073  10.500   0.353  11.277
35745SOL    HW1 9074  10.420   0.391  11.243
35745SOL    HW2 9075  10.569   0.387  11.220
35746SOL     OW 9076   8.168   2.095   3.194
35746SOL    HW1 9077   8.113   2.104   3.272
35746SOL    HW2 9078   8.222   2.018   3.211
35747SOL     OW 9079  10.886   6.956   2.834
35747SOL    HW1 9080  10.871   6.876   2.885
35747SOL    HW2 9081  10.800   6.981   2.801
35748SOL     OW 9082  11.111  14.641   6.059
35748SOL    HW1 9083  11.041  14.701   6.083
35748SOL    HW2 9084  11.191  14.685   6.088
35749SOL     OW 9085   5.335  10.931  11.353
35749SOL    HW1 9086   5.418  10.948  11.310
35749SOL    HW2 9087   5.349  10.850  11.402
35750SOL     OW 9088   0.287   4.314   4.601
35750SOL    HW1 9089   0.250   4.344   4.518
35750SOL    HW2 9090   0.342   4.387   4.630
35751SOL     OW 9091  10.812   1.804   7.767
35751SOL    HW1 9092  10.846   1.714   7.771
35751SOL    HW2 9093  10.772   1.818   7.853
35752SOL     OW 9094  12.750   3.618   1.744
35752SOL    HW1 9095  12.792   3.545   1.788
35752SOL    HW2 9096  12.714   3.672   1.815
35753SOL     OW 9097   0.478   7.789   8.570
35753SOL    HW1 9098   0.529   7.852   8.620
35753SOL    HW2 9099   0.433   7.736   8.636
35754SOL     OW 9100   4.072   8.756   3.953
35754SOL    HW1 9101   4.027   8.839   3.937
35754SOL    HW2 9102   4.162   8.771   3.925
35755SOL     OW 9103   2.977  13.129   6.619
35755SOL    HW1 9104   2.924  13.157   6.545
35755SOL    HW2 9105   3.035  13.062   6.584
35756SOL     OW 9106   2.219   2.695  10.441
35756SOL    HW1 9107   2.186   2.697  10.531
35756SOL    HW2 9108   2.304   2.738  10.446
35757SOL     OW 9109   0.828   5.300   5.382
35757SOL    HW1 9110   0.789   5.343   5.458
35757SOL    HW2 9111   0.784   5.337   5.307
35758SOL     OW 9112   6.389  11.678   6.540
35758SOL    HW1 9113   6.459  11.690   6.605
35758SOL    HW2 9114   6.321  11.740   6.567
35759SOL     OW 9115   8.412   7.266   4.366
35759SOL    HW1 9116   8.473   7.210   4.414
35759SOL    HW2 9117   8.385   7.332   4.430
35760SOL     OW 9118  10.419   3.355   6.770
35760SOL    HW1 9119  10.461   3.426   6.820
35760SOL    HW2 9120  10.392   3.396   6.688
35761SOL     OW 9121   6.874   5.627   8.030
35761SOL    HW1 9122   6.821   5.548   8.018
35761SOL    HW2 9123   6.958   5.595   8.063
35762SOL     OW 9124   1.523  10.370   3.191
35762SOL    HW1 9125   1.498  10.290   3.143
35762SOL    HW2 9126   1.541  10.339   3.280
35763SOL     OW 9127  10.712  13.798   4.282
35763SOL    HW1 9128  10.703  13.799   4.377
35763SOL    HW2 9129  10.649  13.863   4.251
35764SOL     OW 9130   9.328   3.977  13.688
35764SOL    HW1 9131   9.392   3.958  13.757
35764SOL    HW2 9132   9.246   3.942  13.722
35765SOL     OW 9133   7.620   6.922  14.359
35765SOL    HW1 9134   7.698   6.866  14.356
35765SOL    HW2 9135   7.559   6.881  14.297
35766SOL     OW 9136  10.837   1.418   6.010
35766SOL    HW1 9137  10.828   1.452   6.099
35766SOL    HW2 9138  10.926   1.385   6.006
35767SOL     OW 9139  10.156  13.165   3.772
35767SOL    HW1 9140  10.103  13.099   3.817
35767SOL    HW2 9141  10.246  13.138   3.787
35768SOL     OW 9142  11.057   5.074  14.145
35768SOL    HW1 9143  11.032   5.019  14.071
35768SOL    HW2 9144  11.004   5.042  14.218
35769SOL     OW 9145  11.889  13.149   5.003
35769SOL    HW1 9146  11.937  13.225   4.970
35769SOL    HW2 9147  11.825  13.185   5.064
35770SOL     OW 9148   8.303   9.118   8.514
35770SOL    HW1 9149   8.218   9.125   8.470
35770SOL    HW2 9150   8.291   9.047   8.577
35771SOL     OW 9151   1.038   4.369  11.083
35771SOL    HW1 9152   1.024   4.284  11.040
35771SOL    HW2 9153   0.969   4.425  11.048
35772SOL     OW 9154   4.809   6.153   1.594
35772SOL    HW1 9155   4.837   6.122   1.680
35772SOL    HW2 9156   4.889   6.186   1.553
35773SOL     OW 9157   6.341  14.111   4.204
35773SOL    HW1 9158   6.427  14.135   4.171
35773SOL    HW2 9159   6.280  14.145   4.138
35774SOL     OW 9160   3.375   3.537   2.384
35774SOL    HW1 9161   3.367   3.622   2.341
35774SOL    HW2 9162   3.469   3.530   2.404
35775SOL     OW 9163   2.186  13.022   4.953
35775SOL    HW1 9164   2.197  13.071   4.872
35775SOL    HW2 9165   2.160  13.087   5.017
35776SOL     OW 9166  14.160   5.324   1.567
35776SOL    HW1 9167  14.230   5.389   1.566
35776SOL    HW2 9168  14.133   5.320   1.659
35777SOL     OW 9169   9.049   8.433   3.322
35777SOL    HW1 9170   9.002   8.483   3.389
35777SOL    HW2 9171   9.063   8.496   3.251
35778SOL     OW 9172   5.073   1.172   3.289
35778SOL    HW1 9173   5.138   1.202   3.352
35778SOL    HW2 9174   5.034   1.252   3.254
35779SOL     OW 9175   9.332   5.885   0.742
35779SOL    HW1 9176   9.412   5.938   0.744
35779SOL    HW2 9177   9.363   5.795   0.756
35780SOL     OW 9178   0.268   9.187   6.465
35780SOL    HW1 9179   0.309   9.237   6.536
35780SOL    HW2 9180   0.331   9.117   6.446
35781SOL     OW 9181   3.190   2.847  12.970
35781SOL    HW1 9182   3.127   2.899  13.019
35781SOL    HW2 9183   3.251   2.911  12.934
35782SOL     OW 9184   2.195   4.703  14.749
35782SOL    HW1 9185   2.174   4.785  14.704
35782SOL    HW2 9186   2.112   4.674  14.786
35783SOL     OW 9187  10.301   4.600  12.842
35783SOL    HW1 9188  10.305   4.639  12.755
35783SOL    HW2 9189  10.384   4.554  12.852
35784SOL     OW 9190   3.472   0.793   0.367
35784SOL    HW1 9191   3.532   0.867   0.373
35784SOL    HW2 9192   3.522   0.718   0.400
35785SOL     OW 9193   9.332   7.376   0.654
35785SOL    HW1 9194   9.377   7.398   0.573
35785SOL    HW2 9195   9.265   7.313   0.628
35786SOL     OW 9196  12.251   8.422   1.939
35786SOL    HW1 9197  12.300   8.355   1.988
35786SOL    HW2 9198  12.171   8.435   1.991
35787SOL     OW 9199  12.603   0.567   9.355
35787SOL    HW1 9200  12.566   0.590   9.270
35787SOL    HW2 9201  12.534   0.591   9.417
35788SOL     OW 9202  13.563  14.479   1.083
35788SOL    HW1 9203  13.608  14.488   1.168
35788SOL    HW2 9204  13.548  14.384   1.075
35789SOL     OW 9205  11.992   4.982  12.089
35789SOL    HW1 9206  11.958   4.991  12.178
35789SOL    HW2 9207  11.928   5.028  12.034
35790SOL     OW 9208  10.029  13.768  12.765
35790SOL    HW1 9209  10.080  13.843  12.795
35790SOL    HW2 9210   9.938  13.793  12.779
35791SOL     OW 9211   0.394   4.013   4.061
35791SOL    HW1 9212   0.453   4.080   4.026
35791SOL    HW2 9213   0.347   4.057   4.132
35792SOL     OW 9214   2.587   4.182   4.377
35792SOL    HW1 9215   2.619   4.264   4.416
35792SOL    HW2 9216   2.521   4.151   4.439
35793SOL     OW 9217   7.607  10.778   2.781
35793SOL    HW1 9218   7.559  10.696   2.795
35793SOL    HW2 9219   7.538  10.843   2.770
35794SOL     OW 9220   6.764   8.423  12.594
35794SOL    HW1 9221   6.834   8.439  12.530
35794SOL    HW2 9222   6.801   8.358  12.653
35795SOL     OW 9223   2.186   0.768   6.447
35795SOL    HW1 9224   2.096   0.767   6.415
35795SOL    HW2 9225   2.235   0.814   6.379
35796SOL     OW 9226  12.553   3.201  10.122
35796SOL    HW1 9227  12.480   3.257  10.095
35796SOL    HW2 9228  12.513   3.133  10.177
35797SOL     OW 9229   8.990   8.550   7.056
35797SOL    HW1 9230   8.987   8.638   7.019
35797SOL    HW2 9231   9.083   8.526   7.054
35798SOL     OW 9232  13.210   4.928   4.769
35798SOL    HW1 9233  13.232   4.988   4.698
35798SOL    HW2 9234  13.195   4.985   4.844
35799SOL     OW 9235  14.647   8.257   0.611
35799SOL    HW1 9236  14.641   8.333   0.554
35799SOL    HW2 9237  14.739   8.255   0.640
35800SOL     OW 9238   1.312   4.140   5.460
35800SOL    HW1 9239   1.340   4.227   5.487
35800SOL    HW2 9240   1.260   4.107   5.534
35801SOL     OW 9241   2.366  10.775   1.814
35801SOL    HW1 9242   2.357  10.841   1.883
35801SOL    HW2 9243   2.397  10.697   1.859
35802SOL     OW 9244   2.575  13.060  13.759
35802SOL    HW1 9245   2.613  12.979  13.793
35802SOL    HW2 9246   2.634  13.129  13.789
35803SOL     OW 9247   0.684   6.427  13.311
35803SOL    HW1 9248   0.752   6.375  13.269
35803SOL    HW2 9249   0.620   6.444  13.242
35804SOL     OW 9250   6.602   1.775   9.779
35804SOL    HW1 9251   6.572   1.685   9.793
35804SOL    HW2 9252   6.537   1.814   9.721
35805SOL     OW 9253   6.656   5.205  12.900
35805SOL    HW1 9254   6.561   5.190  12.903
35805SOL    HW2 9255   6.665   5.290  12.857
35806SOL     OW 9256   6.171  14.584   2.704
35806SOL    HW1 9257   6.115  14.583   2.626
35806SOL    HW2 9258   6.248  14.634   2.676
35807SOL     OW 9259   7.298  14.563   7.571
35807SOL    HW1 9260   7.208  14.586   7.546
35807SOL    HW2 9261   7.353  14.625   7.523
35808SOL     OW 9262   2.946  11.734  13.559
35808SOL    HW1 9263   2.986  11.816  13.530
35808SOL    HW2 9264   2.861  11.760  13.594
35809SOL     OW 9265   6.045   3.355   3.900
35809SOL    HW1 9266   5.956   3.376   3.930
35809SOL    HW2 9267   6.101   3.420   3.941
35810SOL     OW 9268  14.308   9.835   6.332
35810SOL    HW1 9269  14.262   9.757   6.302
35810SOL    HW2 9270  14.334   9.880   6.251
35811SOL     OW 9271   1.597   4.638   9.369
35811SOL    HW1 9272   1.578   4.670   9.281
35811SOL    HW2 9273   1.680   4.591   9.360
35812SOL     OW 9274   4.878   7.171   4.394
35812SOL    HW1 9275   4.834   7.255   4.406
35812SOL    HW2 9276   4.810   7.114   4.357
35813SOL     OW 9277   5.669   8.384  11.987
35813SOL    HW1 9278   5.745   8.428  11.949
35813SOL    HW2 9279   5.657   8.305  11.934
35814SOL     OW 9280   2.344   8.713   6.131
35814SOL    HW1 9281   2.345   8.635   6.074
35814SOL    HW2 9282   2.428   8.710   6.177
35815SOL     OW 9283  10.289   2.410   0.735
35815SOL    HW1 9284  10.209   2.451   0.766
35815SOL    HW2 9285  10.261   2.322   0.709
35816SOL     OW 9286   8.186   7.600   8.870
35816SOL    HW1 9287   8.132   7.537   8.822
35816SOL    HW2 9288   8.202   7.558   8.955
35817SOL     OW 9289   7.663   8.472  10.680
35817SOL    HW1 9290   7.686   8.398  10.737
35817SOL    HW2 9291   7.568   8.469  10.674
35818SOL     OW 9292  10.407  10.112   9.340
35818SOL    HW1 9293  10.325  10.158   9.358
35818SOL    HW2 9294  10.476  10.172   9.370
35819SOL     OW 9295   4.766  14.557  13.319
35819SOL    HW1 9296   4.697  14.554  13.253
35819SOL    HW2 9297   4.847  14.562  13.269
35820SOL     OW 9298   6.546  14.109  10.877
35820SOL    HW1 9299   6.457  14.145  10.884
35820SOL    HW2 9300   6.602  14.186  10.865
35821SOL     OW 9301  10.421   0.270   3.550
35821SOL    HW1 9302  10.377   0.238   3.472
35821SOL    HW2 9303  10.358   0.256   3.621
35822SOL     OW 9304   3.744   7.817   3.177
35822SOL    HW1 9305   3.827   7.782   3.209
35822SOL    HW2 9306   3.678   7.756   3.210
35823SOL     OW 9307   9.479   1.089  11.958
35823SOL    HW1 9308   9.530   1.051  12.030
35823SOL    HW2 9309   9.539   1.086  11.883
35824SOL     OW 9310  11.465  10.169  13.710
35824SOL    HW1 9311  11.385  10.222  13.712
35824SOL    HW2 9312  11.525  10.215  13.768
35825SOL     OW 9313   5.528  14.837  14.636
35825SOL    HW1 9314   5.470   0.026  14.604
35825SOL    HW2 9315   5.562  14.872  14.719
35826SOL     OW 9316   4.093   4.725  11.568
35826SOL    HW1 9317   4.106   4.745  11.475
35826SOL    HW2 9318   4.177   4.746  11.609
35827SOL     OW 9319  13.013   7.506   6.655
35827SOL    HW1 9320  13.002   7.594   6.620
35827SOL    HW2 9321  13.103   7.503   6.686
35828SOL     OW 9322   9.305   9.949  13.216
35828SOL    HW1 9323   9.308   9.981  13.306
35828SOL    HW2 9324   9.267  10.021  13.166
35829SOL     OW 9325   0.457   2.260   0.354
35829SOL    HW1 9326   0.517   2.328   0.324
35829SOL    HW2 9327   0.394   2.306   0.409
35830SOL     OW 9328   6.482  13.748   8.949
35830SOL    HW1 9329   6.462  13.654   8.948
35830SOL    HW2 9330   6.406  13.789   8.909
35831SOL     OW 9331  14.457  11.714   5.691
35831SOL    HW1 9332  14.547  11.712   5.659
35831SOL    HW2 9333  14.443  11.805   5.717
35832SOL     OW 9334  11.501   0.144  12.902
35832SOL    HW1 9335  11.460   0.223  12.938
35832SOL    HW2 9336  11.444   0.118  12.830
35833SOL     OW 9337   6.769   2.354  10.093
35833SOL    HW1 9338   6.757   2.424  10.157
35833SOL    HW2 9339   6.692   2.360  10.036
35834SOL     OW 9340  10.035   5.308  13.242
35834SOL    HW1 9341   9.955   5.355  13.215
35834SOL    HW2 9342  10.092   5.377  13.276
35835SOL     OW 9343   1.388   8.920   6.688
35835SOL    HW1 9344   1.381   8.846   6.749
35835SOL    HW2 9345   1.386   8.997   6.744
35836SOL     OW 9346   5.198   2.905  12.623
35836SOL    HW1 9347   5.109   2.935  12.639
35836SOL    HW2 9348   5.222   2.855  12.701
35837SOL     OW 9349   0.593  13.358   7.570
35837SOL    HW1 9350   0.583  13.378   7.663
35837SOL    HW2 9351   0.598  13.263   7.566
35838SOL     OW 9352   0.144   1.326   9.881
35838SOL    HW1 9353   0.123   1.247   9.931
35838SOL    HW2 9354   0.099   1.313   9.797
35839SOL     OW 9355  12.353   2.601   7.115
35839SOL    HW1 9356  12.324   2.524   7.163
35839SOL    HW2 9357  12.319   2.589   7.026
35840SOL     OW 9358   2.863   1.593  10.164
35840SOL    HW1 9359   2.929   1.652  10.128
35840SOL    HW2 9360   2.913   1.521  10.203
35841SOL     OW 9361   8.988   2.521  12.353
35841SOL    HW1 9362   8.978   2.515  12.448
35841SOL    HW2 9363   9.067   2.573  12.341
35842SOL     OW 9364   8.746  11.720  10.707
35842SOL    HW1 9365   8.710  11.635  10.734
35842SOL    HW2 9366   8.675  11.782  10.724
35843SOL     OW 9367   3.894   8.886   5.568
35843SOL    HW1 9368   3.925   8.829   5.498
35843SOL    HW2 9369   3.810   8.848   5.594
35844SOL     OW 9370  10.502  12.078  10.848
35844SOL    HW1 9371  10.461  12.002  10.807
35844SOL    HW2 9372  10.553  12.118  10.778
35845SOL     OW 9373   6.207  13.808  10.005
35845SOL    HW1 9374   6.135  13.768   9.956
35845SOL    HW2 9375   6.246  13.869   9.943
35846SOL     OW 9376   0.075  12.210  11.590
35846SOL    HW1 9377   0.081  12.303  11.610
35846SOL    HW2 9378   0.142  12.195  11.524
35847SOL     OW 9379   3.869   8.871  11.418
35847SOL    HW1 9380   3.873   8.964  11.396
35847SOL    HW2 9381   3.795   8.864  11.479
35848SOL     OW 9382   5.677   2.714   6.292
35848SOL    HW1 9383   5.728   2.699   6.371
35848SOL    HW2 9384   5.741   2.715   6.221
35849SOL     OW 9385   8.182  14.129   7.550
35849SOL    HW1 9386   8.196  14.084   7.634
35849SOL    HW2 9387   8.268  14.130   7.508
35850SOL     OW 9388   0.242   2.538   8.720
35850SOL    HW1 9389   0.243   2.478   8.795
35850SOL    HW2 9390   0.302   2.497   8.657
35851SOL     OW 9391  11.401   2.026  14.164
35851SOL    HW1 9392  11.354   1.942  14.165
35851SOL    HW2 9393  11.405   2.052  14.256
35852SOL     OW 9394   6.393   2.006   7.417
35852SOL    HW1 9395   6.424   2.048   7.337
35852SOL    HW2 9396   6.346   2.075   7.465
35853SOL     OW 9397   4.503   6.961   2.874
35853SOL    HW1 9398   4.460   6.893   2.822
35853SOL    HW2 9399   4.480   7.043   2.830
35854SOL     OW 9400   9.893   0.235   7.839
35854SOL    HW1 9401   9.849   0.272   7.915
35854SOL    HW2 9402   9.829   0.243   7.768
35855SOL     OW 9403  10.054   2.569  13.210
35855SOL    HW1 9404   9.985   2.537  13.152
35855SOL    HW2 9405  10.116   2.496  13.218
35856SOL     OW 9406   9.404  13.594   0.464
35856SOL    HW1 9407   9.435  13.516   0.419
35856SOL    HW2 9408   9.375  13.562   0.549
35857SOL     OW 9409  10.964   2.044   6.279
35857SOL    HW1 9410  11.027   2.114   6.258
35857SOL    HW2 9411  11.015   1.980   6.329
35858SOL     OW 9412   3.252   3.567   3.969
35858SOL    HW1 9413   3.235   3.613   4.051
35858SOL    HW2 9414   3.299   3.631   3.915
35859SOL     OW 9415   7.682   8.440   3.138
35859SOL    HW1 9416   7.620   8.391   3.083
35859SOL    HW2 9417   7.650   8.530   3.135
35860SOL     OW 9418   0.198  10.945  14.634
35860SOL    HW1 9419   0.172  10.866  14.587
35860SOL    HW2 9420   0.204  11.012  14.565
35861SOL     OW 9421   5.148  10.949   7.521
35861SOL    HW1 9422   5.242  10.948   7.536
35861SOL    HW2 9423   5.121  10.858   7.533
35862SOL     OW 9424   8.074   8.467   3.146
35862SOL    HW1 9425   7.996   8.432   3.188
35862SOL    HW2 9426   8.042   8.504   3.064
35863SOL     OW 9427  10.937  12.279   7.425
35863SOL    HW1 9428  11.024  12.318   7.418
35863SOL    HW2 9429  10.882  12.332   7.366
35864SOL     OW 9430   0.253  10.689   6.974
35864SOL    HW1 9431   0.298  10.773   6.966
35864SOL    HW2 9432   0.250  10.672   7.068
35865SOL     OW 9433   0.946   1.311   7.536
35865SOL    HW1 9434   0.998   1.372   7.587
35865SOL    HW2 9435   0.900   1.365   7.473
35866SOL     OW 9436   3.721  13.056   6.378
35866SOL    HW1 9437   3.758  13.092   6.458
35866SOL    HW2 9438   3.673  12.978   6.406
35867SOL     OW 9439  13.466   2.718   2.856
35867SOL    HW1 9440  13.537   2.668   2.896
35867SOL    HW2 9441  13.456   2.679   2.769
35868SOL     OW 9442   0.229   6.606  13.639
35868SOL    HW1 9443   0.165   6.633  13.705
35868SOL    HW2 9444   0.273   6.687  13.613
35869SOL     OW 9445   4.647   8.189  12.740
35869SOL    HW1 9446   4.644   8.235  12.824
35869SOL    HW2 9447   4.732   8.146  12.739
35870SOL     OW 9448   5.691  13.866   8.938
35870SOL    HW1 9449   5.701  13.772   8.921
35870SOL    HW2 9450   5.629  13.872   9.010
35871SOL     OW 9451  10.076   4.299   6.300
35871SOL    HW1 9452  10.040   4.376   6.255
35871SOL    HW2 9453  10.162   4.327   6.329
35872SOL     OW 9454   3.257   4.715   9.073
35872SOL    HW1 9455   3.268   4.727   8.978
35872SOL    HW2 9456   3.219   4.797   9.103
35873SOL     OW 9457  14.056   9.308   1.194
35873SOL    HW1 9458  13.974   9.302   1.242
35873SOL    HW2 9459  14.066   9.223   1.152
35874SOL     OW 9460  11.188   2.226   0.856
35874SOL    HW1 9461  11.148   2.140   0.842
35874SOL    HW2 9462  11.114   2.287   0.860
35875SOL     OW 9463   8.761   8.854  14.837
35875SOL    HW1 9464   8.780   8.947  14.850
35875SOL    HW2 9465   8.791   8.812   0.038
35876SOL     OW 9466   9.605   0.029   4.097
35876SOL    HW1 9467   9.552   0.059   4.171
35876SOL    HW2 9468   9.631   0.110   4.052
35877SOL     OW 9469  10.283   5.146  14.167
35877SOL    HW1 9470  10.378   5.157  14.172
35877SOL    HW2 9471  10.264   5.148  14.073
35878SOL     OW 9472   2.848   4.063   7.842
35878SOL    HW1 9473   2.818   3.975   7.821
35878SOL    HW2 9474   2.890   4.093   7.761
35879SOL     OW 9475  11.105   8.010   9.110
35879SOL    HW1 9476  11.179   7.954   9.133
35879SOL    HW2 9477  11.030   7.950   9.104
35880SOL     OW 9478  13.802   6.821   0.414
35880SOL    HW1 9479  13.802   6.759   0.486
35880SOL    HW2 9480  13.834   6.903   0.453
35881SOL     OW 9481  13.824  12.158   2.112
35881SOL    HW1 9482  13.759  12.099   2.074
35881SOL    HW2 9483  13.776  12.237   2.134
35882SOL     OW 9484   5.892   6.027  11.162
35882SOL    HW1 9485   5.858   6.013  11.250
35882SOL    HW2 9486   5.825   6.080  11.118
35883SOL     OW 9487   7.898  10.887   4.957
35883SOL    HW1 9488   7.928  10.947   4.888
35883SOL    HW2 9489   7.966  10.892   5.024
35884SOL     OW 9490  13.246   4.655   4.764
35884SOL    HW1 9491  13.234   4.748   4.781
35884SOL    HW2 9492  13.165   4.615   4.795
35885SOL     OW 9493   5.633  11.709   5.918
35885SOL    HW1 9494   5.551  11.704   5.869
35885SOL    HW2 9495   5.625  11.640   5.985
35886SOL     OW 9496   5.821  10.365   1.828
35886SOL    HW1 9497   5.906  10.396   1.797
35886SOL    HW2 9498   5.841  10.285   1.877
35887SOL     OW 9499   4.619   1.264   0.061
35887SOL    HW1 9500   4.535   1.288   0.023
35887SOL    HW2 9501   4.681   1.327   0.024
35888SOL     OW 9502   8.686   2.234  14.133
35888SOL    HW1 9503   8.647   2.316  14.161
35888SOL    HW2 9504   8.695   2.243  14.038
35889SOL     OW 9505  11.994   5.323   2.677
35889SOL    HW1 9506  11.929   5.347   2.611
35889SOL    HW2 9507  12.034   5.406   2.702
35890SOL     OW 9508   5.266  11.249  13.352
35890SOL    HW1 9509   5.218  11.318  13.307
35890SOL    HW2 9510   5.238  11.255  13.443
35891SOL     OW 9511  13.455  10.964   8.880
35891SOL    HW1 9512  13.445  11.054   8.910
35891SOL    HW2 9513  13.470  10.971   8.786
35892SOL     OW 9514   7.421  14.756   7.386
35892SOL    HW1 9515   7.391  14.830   7.438
35892SOL    HW2 9516   7.461  14.795   7.308
35893SOL     OW 9517   5.087  10.818   7.125
35893SOL    HW1 9518   5.131  10.763   7.190
35893SOL    HW2 9519   5.038  10.756   7.071
35894SOL     OW 9520   5.461  14.666   9.494
35894SOL    HW1 9521   5.382  14.661   9.548
35894SOL    HW2 9522   5.430  14.648   9.405
35895SOL     OW 9523   3.657   7.985  11.866
35895SOL    HW1 9524   3.576   7.962  11.911
35895SOL    HW2 9525   3.636   7.976  11.773
35896SOL     OW 9526   8.204   9.691   2.516
35896SOL    HW1 9527   8.258   9.612   2.525
35896SOL    HW2 9528   8.129   9.676   2.572
35897SOL     OW 9529   0.977   5.218   4.092
35897SOL    HW1 9530   1.061   5.174   4.086
35897SOL    HW2 9531   0.993   5.294   4.148
35898SOL     OW 9532   1.275   9.976   4.914
35898SOL    HW1 9533   1.245  10.066   4.902
35898SOL    HW2 9534   1.360   9.984   4.957
35899SOL     OW 9535  13.325  11.919  13.153
35899SOL    HW1 9536  13.318  11.823  13.147
35899SOL    HW2 9537  13.302  11.950  13.066
35900SOL     OW 9538   1.814  13.209   4.855
35900SOL    HW1 9539   1.793  13.144   4.788
35900SOL    HW2 9540   1.849  13.158   4.928
35901SOL     OW 9541   2.675   7.649  10.816
35901SOL    HW1 9542   2.623   7.570  10.829
35901SOL    HW2 9543   2.702   7.646  10.724
35902SOL     OW 9544  14.124   6.454   3.679
35902SOL    HW1 9545  14.214   6.486   3.679
35902SOL    HW2 9546  14.133   6.359   3.691
35903SOL     OW 9547   2.987  14.364   8.097
35903SOL    HW1 9548   2.974  14.438   8.156
35903SOL    HW2 9549   3.037  14.301   8.149
35904SOL     OW 9550   1.497   1.472   3.414
35904SOL    HW1 9551   1.409   1.460   3.378
35904SOL    HW2 9552   1.541   1.530   3.351
35905SOL     OW 9553   1.169   0.163  10.158
35905SOL    HW1 9554   1.232   0.218  10.111
35905SOL    HW2 9555   1.178   0.077  10.117
35906SOL     OW 9556  13.112  11.197  12.878
35906SOL    HW1 9557  13.192  11.245  12.856
35906SOL    HW2 9558  13.102  11.133  12.808
35907SOL     OW 9559  13.518  10.473  11.582
35907SOL    HW1 9560  13.470  10.458  11.663
35907SOL    HW2 9561  13.580  10.543  11.603
35908SOL     OW 9562  12.680  12.070   9.227
35908SOL    HW1 9563  12.705  11.978   9.226
35908SOL    HW2 9564  12.631  12.081   9.145
35909SOL     OW 9565   1.025   4.125   4.103
35909SOL    HW1 9566   1.066   4.043   4.075
35909SOL    HW2 9567   1.096   4.188   4.103
35910SOL     OW 9568  12.432   5.204   0.233
35910SOL    HW1 9569  12.385   5.168   0.158
35910SOL    HW2 9570  12.372   5.268   0.271
35911SOL     OW 9571   5.311   9.470  13.987
35911SOL    HW1 9572   5.241   9.426  14.034
35911SOL    HW2 9573   5.391   9.426  14.016
35912SOL     OW 9574  10.848   4.243   7.999
35912SOL    HW1 9575  10.847   4.161   8.048
35912SOL    HW2 9576  10.856   4.217   7.908
35913SOL     OW 9577   0.958   1.026  11.669
35913SOL    HW1 9578   0.926   1.116  11.661
35913SOL    HW2 9579   0.954   1.008  11.763
35914SOL     OW 9580   7.907  12.271   3.062
35914SOL    HW1 9581   7.981  12.303   3.115
35914SOL    HW2 9582   7.877  12.348   3.013
35915SOL     OW 9583  10.783  12.814   8.046
35915SOL    HW1 9584  10.723  12.823   8.121
35915SOL    HW2 9585  10.732  12.842   7.971
35916SOL     OW 9586  11.574  12.156  13.890
35916SOL    HW1 9587  11.518  12.085  13.920
35916SOL    HW2 9588  11.554  12.164  13.796
35917SOL     OW 9589   3.731  13.525  10.474
35917SOL    HW1 9590   3.644  13.497  10.502
35917SOL    HW2 9591   3.724  13.531  10.378
35918SOL     OW 9592   4.676   2.803  13.693
35918SOL    HW1 9593   4.639   2.873  13.747
35918SOL    HW2 9594   4.601   2.752  13.663
35919SOL     OW 9595  13.775   0.449   5.292
35919SOL    HW1 9596  13.763   0.537   5.255
35919SOL    HW2 9597  13.775   0.463   5.387
35920SOL     OW 9598   5.345   6.157  11.277
35920SOL    HW1 9599   5.301   6.230  11.233
35920SOL    HW2 9600   5.274   6.097  11.301
35921SOL     OW 9601   0.417   6.029   3.641
35921SOL    HW1 9602   0.509   6.054   3.633
35921SOL    HW2 9603   0.420   5.941   3.679
35922SOL     OW 9604   9.395   9.789  11.879
35922SOL    HW1 9605   9.421   9.825  11.794
35922SOL    HW2 9606   9.315   9.836  11.902
35923SOL     OW 9607  11.482   2.651  10.431
35923SOL    HW1 9608  11.415   2.608  10.484
35923SOL    HW2 9609  11.457   2.743  10.430
35924SOL     OW 9610   6.574   5.673  10.837
35924SOL    HW1 9611   6.631   5.725  10.895
35924SOL    HW2 9612   6.632   5.606  10.802
35925SOL     OW 9613   6.569   0.223   4.947
35925SOL    HW1 9614   6.592   0.259   5.033
35925SOL    HW2 9615   6.607   0.135   4.948
35926SOL     OW 9616  10.363   1.262   4.429
35926SOL    HW1 9617  10.410   1.333   4.474
35926SOL    HW2 9618  10.417   1.244   4.352
35927SOL     OW 9619   7.787  10.990  13.627
35927SOL    HW1 9620   7.866  10.961  13.672
35927SOL    HW2 9621   7.811  10.991  13.534
35928SOL     OW 9622  10.665  12.172   6.396
35928SOL    HW1 9623  10.582  12.151   6.438
35928SOL    HW2 9624  10.728  12.111   6.435
35929SOL     OW 9625   5.222  11.780   8.220
35929SOL    HW1 9626   5.165  11.832   8.277
35929SOL    HW2 9627   5.214  11.691   8.254
35930SOL     OW 9628   1.407  12.791   3.581
35930SOL    HW1 9629   1.388  12.884   3.590
35930SOL    HW2 9630   1.495  12.788   3.544
35931SOL     OW 9631  11.945   0.274  10.075
35931SOL    HW1 9632  11.855   0.295  10.051
35931SOL    HW2 9633  11.948   0.178  10.072
35932SOL     OW 9634   0.464   6.585  11.236
35932SOL    HW1 9635   0.492   6.556  11.322
35932SOL    HW2 9636   0.474   6.680  11.238
35933SOL     OW 9637   2.759   7.223   2.674
35933SOL    HW1 9638   2.686   7.284   2.661
35933SOL    HW2 9639   2.765   7.176   2.591
35934SOL     OW 9640   2.174   0.858   9.710
35934SOL    HW1 9641   2.100   0.797   9.717
35934SOL    HW2 9642   2.184   0.873   9.617
35935SOL     OW 9643   2.204   6.209   9.800
35935SOL    HW1 9644   2.295   6.184   9.814
35935SOL    HW2 9645   2.176   6.156   9.725
35936SOL     OW 9646   9.219   0.717  12.508
35936SOL    HW1 9647   9.128   0.698  12.529
35936SOL    HW2 9648   9.250   0.640  12.460
35937SOL     OW 9649   8.439   2.180   5.204
35937SOL    HW1 9650   8.362   2.191   5.260
35937SOL    HW2 9651   8.442   2.260   5.151
35938SOL     OW 9652   2.227   1.533   4.816
35938SOL    HW1 9653   2.211   1.439   4.816
35938SOL    HW2 9654   2.164   1.569   4.878
35939SOL     OW 9655   5.705   4.318  13.021
35939SOL    HW1 9656   5.739   4.236  13.055
35939SOL    HW2 9657   5.618   4.296  12.987
35940SOL     OW 9658   1.662   8.525  12.814
35940SOL    HW1 9659   1.651   8.503  12.907
35940SOL    HW2 9660   1.751   8.499  12.793
35941SOL     OW 9661  12.026   9.033   8.225
35941SOL    HW1 9662  12.090   8.966   8.204
35941SOL    HW2 9663  11.990   9.060   8.141
35942SOL     OW 9664  11.039   8.161   7.233
35942SOL    HW1 9665  11.075   8.074   7.252
35942SOL    HW2 9666  10.967   8.145   7.171
35943SOL     OW 9667   2.799   1.173  13.089
35943SOL    HW1 9668   2.706   1.152  13.095
35943SOL    HW2 9669   2.815   1.183  12.995
35944SOL     OW 9670   2.646   5.341   7.914
35944SOL    HW1 9671   2.667   5.271   7.853
35944SOL    HW2 9672   2.605   5.409   7.861
35945SOL     OW 9673   2.621  10.627   2.689
35945SOL    HW1 9674   2.595  10.555   2.746
35945SOL    HW2 9675   2.699  10.664   2.730
35946SOL     OW 9676  12.670  13.344   8.457
35946SOL    HW1 9677  12.732  13.378   8.522
35946SOL    HW2 9678  12.627  13.422   8.422
35947SOL     OW 9679   1.653  12.547  14.659
35947SOL    HW1 9680   1.726  12.539  14.720
35947SOL    HW2 9681   1.575  12.540  14.713
35948SOL     OW 9682   3.930  14.780  10.142
35948SOL    HW1 9683   3.858  14.804  10.085
35948SOL    HW2 9684   3.926  14.684  10.147
35949SOL     OW 9685  13.100  13.816   2.898
35949SOL    HW1 9686  13.083  13.834   2.805
35949SOL    HW2 9687  13.195  13.804   2.904
35950SOL     OW 9688   6.689   9.573   8.680
35950SOL    HW1 9689   6.663   9.665   8.681
35950SOL    HW2 9690   6.625   9.531   8.624
35951SOL     OW 9691   1.730   5.358   8.597
35951SOL    HW1 9692   1.669   5.358   8.671
35951SOL    HW2 9693   1.816   5.376   8.636
35952SOL     OW 9694   9.939   6.029   7.641
35952SOL    HW1 9695   9.860   6.045   7.591
35952SOL    HW2 9696  10.011   6.057   7.584
35953SOL     OW 9697  10.442   7.365   3.572
35953SOL    HW1 9698  10.406   7.438   3.522
35953SOL    HW2 9699  10.503   7.323   3.511
35954SOL     OW 9700   2.838   8.974   6.768
35954SOL    HW1 9701   2.757   9.025   6.776
35954SOL    HW2 9702   2.849   8.933   6.854
35955SOL     OW 9703  12.754   6.254  13.139
35955SOL    HW1 9704  12.808   6.229  13.065
35955SOL    HW2 9705  12.666   6.225  13.116
35956SOL     OW 9706  10.848   9.662   6.283
35956SOL    HW1 9707  10.845   9.570   6.310
35956SOL    HW2 9708  10.834   9.712   6.363
35957SOL     OW 9709   7.001   7.750   5.952
35957SOL    HW1 9710   7.000   7.748   5.857
35957SOL    HW2 9711   7.094   7.760   5.975
35958SOL     OW 9712  10.626   0.066  11.669
35958SOL    HW1 9713  10.653  14.873  11.613
35958SOL    HW2 9714  10.594   0.133  11.608
35959SOL     OW 9715   0.173   6.923   1.088
35959SOL    HW1 9716   0.155   6.868   1.164
35959SOL    HW2 9717   0.260   6.896   1.059
35960SOL     OW 9718   2.384   5.516   1.941
35960SOL    HW1 9719   2.349   5.579   1.878
35960SOL    HW2 9720   2.478   5.513   1.923
35961SOL     OW 9721   3.492   2.164   5.725
35961SOL    HW1 9722   3.534   2.219   5.791
35961SOL    HW2 9723   3.564   2.121   5.679
35962SOL     OW 9724   7.399   8.214  12.734
35962SOL    HW1 9725   7.314   8.220  12.690
35962SOL    HW2 9726   7.380   8.175  12.819
35963SOL     OW 9727   1.318   0.748   6.486
35963SOL    HW1 9728   1.228   0.714   6.481
35963SOL    HW2 9729   1.373   0.673   6.462
35964SOL     OW 9730   4.464  14.004   0.896
35964SOL    HW1 9731   4.434  14.083   0.852
35964SOL    HW2 9732   4.485  14.032   0.985
35965SOL     OW 9733   7.952  14.805   4.303
35965SOL    HW1 9734   7.884  14.785   4.238
35965SOL    HW2 9735   8.034  14.804   4.253
35966SOL     OW 9736  14.183   4.784   8.155
35966SOL    HW1 9737  14.161   4.755   8.067
35966SOL    HW2 9738  14.274   4.757   8.167
35967SOL     OW 9739  13.880  14.327   6.398
35967SOL    HW1 9740  13.949  14.290   6.342
35967SOL    HW2 9741  13.924  14.346   6.481
35968SOL     OW 9742   5.750   4.029   7.209
35968SOL    HW1 9743   5.655   4.027   7.214
35968SOL    HW2 9744   5.770   4.011   7.117
35969SOL     OW 9745  13.302  10.060   3.201
35969SOL    HW1 9746  13.250   9.985   3.232
35969SOL    HW2 9747  13.390  10.025   3.193
35970SOL     OW 9748  12.042  12.718  11.792
35970SOL    HW1 9749  12.137  12.716  11.778
35970SOL    HW2 9750  12.017  12.625  11.798
35971SOL     OW 9751   9.960  11.707  12.418
35971SOL    HW1 9752  10.005  11.626  12.443
35971SOL    HW2 9753  10.001  11.732  12.335
35972SOL     OW 9754   6.485   8.092   1.006
35972SOL    HW1 9755   6.466   8.045   0.925
35972SOL    HW2 9756   6.416   8.065   1.066
35973SOL     OW 9757   6.292   4.059  12.208
35973SOL    HW1 9758   6.372   4.109  12.226
35973SOL    HW2 9759   6.288   3.994  12.277
35974SOL     OW 9760   1.356   6.845   4.616
35974SOL    HW1 9761   1.283   6.846   4.677
35974SOL    HW2 9762   1.327   6.789   4.544
35975SOL     OW 9763  12.708   0.733   0.704
35975SOL    HW1 9764  12.628   0.713   0.655
35975SOL    HW2 9765  12.677   0.773   0.785
35976SOL     OW 9766  14.856  12.737   7.199
35976SOL    HW1 9767  14.807  12.655   7.204
35976SOL    HW2 9768   0.050  12.724   7.258
35977SOL     OW 9769   2.920  13.010   4.690
35977SOL    HW1 9770   2.856  13.047   4.630
35977SOL    HW2 9771   2.868  12.959   4.752
35978SOL     OW 9772   2.394  10.529   5.549
35978SOL    HW1 9773   2.323  10.473   5.518
35978SOL    HW2 9774   2.376  10.614   5.511
35979SOL     OW 9775   3.792   4.695   0.808
35979SOL    HW1 9776   3.845   4.764   0.847
35979SOL    HW2 9777   3.787   4.627   0.875
35980SOL     OW 9778   7.515   5.807   0.876
35980SOL    HW1 9779   7.515   5.816   0.781
35980SOL    HW2 9780   7.526   5.714   0.891
35981SOL     OW 9781  10.113   4.919   7.609
35981SOL    HW1 9782  10.118   4.981   7.682
35981SOL    HW2 9783  10.031   4.941   7.565
35982SOL     OW 9784   8.209   4.485  12.530
35982SOL    HW1 9785   8.243   4.563  12.486
35982SOL    HW2 9786   8.120   4.510  12.556
35983SOL     OW 9787   7.240   5.488   2.594
35983SOL    HW1 9788   7.187   5.565   2.572
35983SOL    HW2 9789   7.299   5.519   2.663
35984SOL     OW 9790   4.536  14.529  14.469
35984SOL    HW1 9791   4.453  14.558  14.430
35984SOL    HW2 9792   4.602  14.589  14.435
35985SOL     OW 9793   0.999   8.141   0.604
35985SOL    HW1 9794   1.094   8.151   0.606
35985SOL    HW2 9795   0.969   8.185   0.683
35986SOL     OW 9796   1.886   9.186  14.054
35986SOL    HW1 9797   1.935   9.118  14.007
35986SOL    HW2 9798   1.796   9.154  14.054
35987SOL     OW 9799  11.595  13.981   4.503
35987SOL    HW1 9800  11.507  14.013   4.484
35987SOL    HW2 9801  11.596  13.969   4.598
35988SOL     OW 9802  14.641  10.400   3.148
35988SOL    HW1 9803  14.720  10.421   3.198
35988SOL    HW2 9804  14.674  10.365   3.065
35989SOL     OW 9805   7.600   1.343   7.560
35989SOL    HW1 9806   7.682   1.317   7.518
35989SOL    HW2 9807   7.532   1.314   7.498
35990SOL     OW 9808   7.211   5.360   6.963
35990SOL    HW1 9809   7.234   5.444   6.925
35990SOL    HW2 9810   7.206   5.377   7.057
35991SOL     OW 9811   2.903   0.699   5.849
35991SOL    HW1 9812   2.969   0.631   5.837
35991SOL    HW2 9813   2.827   0.670   5.799
35992SOL     OW 9814  11.242   1.741   8.601
35992SOL    HW1 9815  11.325   1.758   8.556
35992SOL    HW2 9816  11.182   1.807   8.567
35993SOL     OW 9817   3.655   9.424   8.460
35993SOL    HW1 9818   3.578   9.375   8.429
35993SOL    HW2 9819   3.729   9.378   8.421
35994SOL     OW 9820   2.792  11.566  11.302
35994SOL    HW1 9821   2.849  11.546  11.376
35994SOL    HW2 9822   2.767  11.657  11.315
35995SOL     OW 9823  12.204  12.944   4.513
35995SOL    HW1 9824  12.250  13.020   4.477
35995SOL    HW2 9825  12.160  12.977   4.591
35996SOL     OW 9826   2.671  12.594   3.434
35996SOL    HW1 9827   2.665  12.647   3.513
35996SOL    HW2 9828   2.581  12.587   3.402
35997SOL     OW 9829  14.132   1.809   8.932
35997SOL    HW1 9830  14.146   1.714   8.938
35997SOL    HW2 9831  14.107   1.823   8.840
35998SOL     OW 9832   1.705   0.892  11.956
35998SOL    HW1 9833   1.685   0.828  11.887
35998SOL    HW2 9834   1.789   0.863  11.992
35999SOL     OW 9835   1.436   8.385  14.116
35999SOL    HW1 9836   1.480   8.333  14.048
35999SOL    HW2 9837   1.464   8.475  14.099
36000SOL     OW 9838   2.338   8.155   0.231
36000SOL    HW1 9839   2.416   8.210   0.224
36000SOL    HW2 9840   2.366   8.068   0.202
36001SOL     OW 9841  13.722  13.448  11.141
36001SOL    HW1 9842  13.816  13.427  11.144
36001SOL    HW2 9843  13.685  13.400  11.215
36002SOL     OW 9844   0.305   5.197   9.781
36002SOL    HW1 9845   0.210   5.200   9.793
36002SOL    HW2 9846   0.335   5.132   9.844
36003SOL     OW 9847   2.635   0.879   0.611
36003SOL    HW1 9848   2.644   0.971   0.584
36003SOL    HW2 9849   2.601   0.883   0.700
36004SOL     OW 9850  13.582   0.185   3.886
36004SOL    HW1 9851  13.519   0.132   3.935
36004SOL    HW2 9852  13.661   0.132   3.883
36005SOL     OW 9853   8.181  11.921   9.193
36005SOL    HW1 9854   8.253  11.890   9.138
36005SOL    HW2 9855   8.153  12.004   9.152
36006SOL     OW 9856   7.694   2.640  13.476
36006SOL    HW1 9857   7.747   2.697  13.532
36006SOL    HW2 9858   7.747   2.628  13.397
36007SOL     OW 9859   3.538   0.826   2.126
36007SOL    HW1 9860   3.509   0.832   2.035
36007SOL    HW2 9861   3.477   0.882   2.175
36008SOL     OW 9862   1.425   4.145  10.935
36008SOL    HW1 9863   1.371   4.066  10.931
36008SOL    HW2 9864   1.498   4.128  10.877
36009SOL     OW 9865  14.366  13.052  14.772
36009SOL    HW1 9866  14.365  13.101  14.690
36009SOL    HW2 9867  14.281  13.070  14.812
36010SOL     OW 9868   9.618  14.464  11.853
36010SOL    HW1 9869   9.642  14.478  11.761
36010SOL    HW2 9870   9.644  14.545  11.897
36011SOL     OW 9871  10.278   9.166  12.318
36011SOL    HW1 9872  10.276   9.262  12.316
36011SOL    HW2 9873  10.359   9.143  12.273
36012SOL     OW 9874   3.607  13.830   8.235
36012SOL    HW1 9875   3.522  13.788   8.242
36012SOL    HW2 9876   3.663  13.782   8.296
36013SOL     OW 9877   6.523   7.247  13.122
36013SOL    HW1 9878   6.489   7.169  13.078
36013SOL    HW2 9879   6.558   7.215  13.205
36014SOL     OW 9880  12.770   6.582  11.207
36014SOL    HW1 9881  12.707   6.627  11.151
36014SOL    HW2 9882  12.855   6.609  11.173
36015SOL     OW 9883   3.885   0.798  13.642
36015SOL    HW1 9884   3.914   0.884  13.612
36015SOL    HW2 9885   3.826   0.816  13.716
36016SOL     OW 9886   5.772  11.030   1.262
36016SOL    HW1 9887   5.686  11.072   1.265
36016SOL    HW2 9888   5.754  10.937   1.251
36017SOL     OW 9889   8.132  10.163   0.897
36017SOL    HW1 9890   8.218  10.122   0.892
36017SOL    HW2 9891   8.107  10.177   0.806
36018SOL     OW 9892   1.750  12.365   5.745
36018SOL    HW1 9893   1.672  12.318   5.775
36018SOL    HW2 9894   1.818  12.298   5.740
36019SOL     OW 9895   3.772   6.530   7.086
36019SOL    HW1 9896   3.830   6.580   7.145
36019SOL    HW2 9897   3.691   6.580   7.084
36020SOL     OW 9898   8.872  11.003   5.309
36020SOL    HW1 9899   8.914  10.918   5.298
36020SOL    HW2 9900   8.941  11.067   5.289
36021SOL     OW 9901   5.955   7.183   2.703
36021SOL    HW1 9902   5.985   7.256   2.649
36021SOL    HW2 9903   5.932   7.115   2.640
36022SOL     OW 9904  13.437   2.720  13.264
36022SOL    HW1 9905  13.390   2.705  13.183
36022SOL    HW2 9906  13.440   2.816  13.272
36023SOL     OW 9907   1.115   5.446   5.533
36023SOL    HW1 9908   1.080   5.533   5.551
36023SOL    HW2 9909   1.182   5.460   5.467
36024SOL     OW 9910  10.945  11.057   3.142
36024SOL    HW1 9911  10.852  11.056   3.121
36024SOL    HW2 9912  10.985  11.000   3.076
36025SOL     OW 9913   0.944   9.804   9.640
36025SOL    HW1 9914   0.957   9.724   9.590
36025SOL    HW2 9915   0.921   9.774   9.728
36026SOL     OW 9916   5.631  10.805   5.810
36026SOL    HW1 9917   5.636  10.748   5.733
36026SOL    HW2 9918   5.591  10.886   5.777
36027SOL     OW 9919   5.828   6.275   5.575
36027SOL    HW1 9920   5.736   6.296   5.592
36027SOL    HW2 9921   5.857   6.230   5.655
36028SOL     OW 9922   7.519  13.114  14.485
36028SOL    HW1 9923   7.508  13.181  14.552
36028SOL    HW2 9924   7.484  13.034  14.524
36029SOL     OW 9925   9.508   6.430  10.157
36029SOL    HW1 9926   9.553   6.381  10.225
36029SOL    HW2 9927   9.505   6.520  10.191
36030SOL     OW 9928  14.627   1.446  11.500
36030SOL    HW1 9929  14.535   1.460  11.477
36030SOL    HW2 9930  14.635   1.351  11.511
36031SOL     OW 9931  12.665   8.455   5.894
36031SOL    HW1 9932  12.662   8.486   5.804
36031SOL    HW2 9933  12.755   8.473   5.923
36032SOL     OW 9934   2.804  10.225   5.172
36032SOL    HW1 9935   2.864  10.265   5.109
36032SOL    HW2 9936   2.808  10.283   5.249
36033SOL     OW 9937  12.783   0.535  12.957
36033SOL    HW1 9938  12.775   0.549  13.052
36033SOL    HW2 9939  12.757   0.618  12.918
36034SOL     OW 9940  13.146   8.627   6.618
36034SOL    HW1 9941  13.173   8.536   6.628
36034SOL    HW2 9942  13.105   8.630   6.531
36035SOL     OW 9943   3.967   6.256  14.368
36035SOL    HW1 9944   3.942   6.182  14.313
36035SOL    HW2 9945   3.960   6.222  14.458
36036SOL     OW 9946   0.928   3.342   0.736
36036SOL    HW1 9947   0.943   3.267   0.794
36036SOL    HW2 9948   0.987   3.327   0.662
36037SOL     OW 9949   3.698   6.649   8.672
36037SOL    HW1 9950   3.739   6.601   8.744
36037SOL    HW2 9951   3.604   6.643   8.689
36038SOL     OW 9952   8.980   1.553   1.930
36038SOL    HW1 9953   9.036   1.543   1.854
36038SOL    HW2 9954   8.891   1.536   1.897
36039SOL     OW 9955   1.728   2.903   2.782
36039SOL    HW1 9956   1.664   2.943   2.722
36039SOL    HW2 9957   1.675   2.853   2.843
36040SOL     OW 9958   5.994   3.393   6.815
36040SOL    HW1 9959   6.027   3.419   6.901
36040SOL    HW2 9960   5.914   3.443   6.803
36041SOL     OW 9961   6.016   5.281   4.505
36041SOL    HW1 9962   5.979   5.342   4.441
36041SOL    HW2 9963   6.087   5.330   4.547
36042SOL     OW 9964   5.299  11.831   4.954
36042SOL    HW1 9965   5.210  11.852   4.982
36042SOL    HW2 9966   5.299  11.844   4.859
36043SOL     OW 9967  13.791  12.799   9.837
36043SOL    HW1 9968  13.832  12.756   9.912
36043SOL    HW2 9969  13.771  12.727   9.777
36044SOL     OW 9970   5.875   6.716   6.345
36044SOL    HW1 9971   5.899   6.723   6.252
36044SOL    HW2 9972   5.903   6.629   6.370
36045SOL     OW 9973  11.789   4.345  14.047
36045SOL    HW1 9974  11.807   4.330  13.954
36045SOL    HW2 9975  11.803   4.439  14.059
36046SOL     OW 9976   3.393   4.834   5.402
36046SOL    HW1 9977   3.343   4.868   5.476
36046SOL    HW2 9978   3.332   4.839   5.328
36047SOL     OW 9979   8.139  10.090   6.252
36047SOL    HW1 9980   8.227  10.089   6.289
36047SOL    HW2 9981   8.081  10.093   6.328
36048SOL     OW 9982   7.626   8.519  11.177
36048SOL    HW1 9983   7.553   8.546  11.232
36048SOL    HW2 9984   7.704   8.555  11.220
36049SOL     OW 9985  13.762   1.872   6.993
36049SOL    HW1 9986  13.756   1.807   6.923
36049SOL    HW2 9987  13.705   1.943   6.966
36050SOL     OW 9988   8.280   2.687  11.427
36050SOL    HW1 9989   8.187   2.682  11.451
36050SOL    HW2 9990   8.286   2.765  11.371
36051SOL     OW 9991  10.963  13.912  13.614
36051SOL    HW1 9992  11.012  13.916  13.696
36051SOL    HW2 9993  11.014  13.851  13.560
36052SOL     OW 9994   1.144   9.812   8.481
36052SOL    HW1 9995   1.183   9.734   8.443
36052SOL    HW2 9996   1.090   9.848   8.411
36053SOL     OW 9997   5.023   1.797   3.539
36053SOL    HW1 9998   5.112   1.815   3.509
36053SOL    HW2 9999   5.016   1.840   3.624
36054SOL     OW10000   4.587   3.443  10.326
36054SOL    HW110001   4.547   3.438  10.413
36054SOL    HW210002   4.634   3.527  10.327
36055SOL     OW10003  13.328   3.472  14.670
36055SOL    HW110004  13.260   3.534  14.697
36055SOL    HW210005  13.308   3.454  14.578
36056SOL     OW10006   1.543  13.648   8.773
36056SOL    HW110007   1.463  13.698   8.756
36056SOL    HW210008   1.590  13.699   8.838
36057SOL     OW10009   7.625  12.578  13.105
36057SOL    HW110010   7.664  12.537  13.182
36057SOL    HW210011   7.549  12.524  13.085
36058SOL     OW10012   3.569   9.538   4.285
36058SOL    HW110013   3.562   9.456   4.237
36058SOL    HW210014   3.511   9.528   4.360
36059SOL     OW10015  11.398   1.256   3.672
36059SOL    HW110016  11.410   1.299   3.756
36059SOL    HW210017  11.352   1.320   3.619
36060SOL     OW10018   1.406  12.738   4.914
36060SOL    HW110019   1.430  12.677   4.844
36060SOL    HW210020   1.479  12.735   4.975
36061SOL     OW10021   3.725   5.189   5.747
36061SOL    HW110022   3.791   5.141   5.795
36061SOL    HW210023   3.766   5.273   5.726
36062SOL     OW10024   8.940   7.822   0.998
36062SOL    HW110025   8.890   7.765   1.057
36062SOL    HW210026   8.902   7.807   0.912
36063SOL     OW10027  14.029  14.422  11.396
36063SOL    HW110028  14.053  14.442  11.306
36063SOL    HW210029  14.070  14.492  11.447
36064SOL     OW10030  13.702   2.391   5.459
36064SOL    HW110031  13.710   2.310   5.410
36064SOL    HW210032  13.741   2.372   5.544
36065SOL     OW10033   0.786  14.853  11.206
36065SOL    HW110034   0.868  14.805  11.219
36065SOL    HW210035   0.800   0.023  11.125
36066SOL     OW10036  11.053  14.409   1.726
36066SOL    HW110037  11.123  14.365   1.679
36066SOL    HW210038  11.070  14.390   1.819
36067SOL     OW10039   6.705   8.963  13.154
36067SOL    HW110040   6.748   8.958  13.240
36067SOL    HW210041   6.777   8.970  13.092
36068SOL     OW10042   6.058   0.460  10.578
36068SOL    HW110043   6.142   0.422  10.554
36068SOL    HW210044   6.004   0.450  10.499
36069SOL     OW10045   1.557   1.399   0.508
36069SOL    HW110046   1.585   1.344   0.435
36069SOL    HW210047   1.475   1.439   0.478
36070SOL     OW10048   3.925  14.317   4.147
36070SOL    HW110049   3.886  14.286   4.229
36070SOL    HW210050   4.019  14.324   4.167
36071SOL     OW10051   8.153  10.320   2.302
36071SOL    HW110052   8.073  10.288   2.343
36071SOL    HW210053   8.211  10.244   2.299
36072SOL     OW10054   4.471  11.981   5.693
36072SOL    HW110055   4.488  12.068   5.729
36072SOL    HW210056   4.557  11.939   5.687
36073SOL     OW10057  13.039   5.926   9.540
36073SOL    HW110058  13.054   5.997   9.602
36073SOL    HW210059  12.978   5.963   9.476
36074SOL     OW10060   7.344   1.441   0.778
36074SOL    HW110061   7.290   1.520   0.781
36074SOL    HW210062   7.293   1.378   0.728
36075SOL     OW10063  14.511   4.318   7.719
36075SOL    HW110064  14.561   4.336   7.639
36075SOL    HW210065  14.474   4.231   7.705
36076SOL     OW10066   4.250   5.452   2.833
36076SOL    HW110067   4.289   5.486   2.913
36076SOL    HW210068   4.253   5.357   2.842
36077SOL     OW10069   8.349   6.994  14.500
36077SOL    HW110070   8.371   6.920  14.443
36077SOL    HW210071   8.265   6.970  14.539
36078SOL     OW10072  11.965   7.310   8.355
36078SOL    HW110073  11.961   7.404   8.373
36078SOL    HW210074  11.911   7.299   8.276
36079SOL     OW10075  13.723   7.984  13.918
36079SOL    HW110076  13.662   7.915  13.889
36079SOL    HW210077  13.684   8.065  13.887
36080SOL     OW10078   4.902   7.549   6.084
36080SOL    HW110079   4.816   7.580   6.056
36080SOL    HW210080   4.948   7.527   6.002
36081SOL     OW10081  14.386   4.325  13.701
36081SOL    HW110082  14.339   4.387  13.646
36081SOL    HW210083  14.331   4.247  13.702
36082SOL     OW10084  14.843  11.572  12.350
36082SOL    HW110085   0.043  11.548  12.398
36082SOL    HW210086  14.873  11.585  12.260
36083SOL     OW10087  14.544   4.794  14.624
36083SOL    HW110088  14.551   4.745  14.705
36083SOL    HW210089  14.508   4.732  14.561
36084SOL     OW10090   5.994  10.152   6.825
36084SOL    HW110091   6.018  10.122   6.737
36084SOL    HW210092   5.900  10.133   6.832
36085SOL     OW10093   0.524   7.163  12.984
36085SOL    HW110094   0.510   7.118  12.901
36085SOL    HW210095   0.575   7.240  12.961
36086SOL     OW10096   8.083  10.623   5.968
36086SOL    HW110097   8.126  10.700   6.005
36086SOL    HW210098   8.008  10.608   6.026
36087SOL     OW10099   6.416   5.328   0.866
36087SOL    HW110100   6.488   5.341   0.927
36087SOL    HW210101   6.340   5.310   0.921
36088SOL     OW10102   6.285   6.373  14.515
36088SOL    HW110103   6.353   6.305  14.508
36088SOL    HW210104   6.308   6.437  14.447
36089SOL     OW10105  12.567  12.029   5.559
36089SOL    HW110106  12.570  12.103   5.620
36089SOL    HW210107  12.583  12.069   5.473
36090SOL     OW10108  12.286   5.805   8.269
36090SOL    HW110109  12.319   5.724   8.229
36090SOL    HW210110  12.359   5.866   8.264
36091SOL     OW10111   4.422   1.869   2.764
36091SOL    HW110112   4.380   1.823   2.691
36091SOL    HW210113   4.448   1.799   2.825
36092SOL     OW10114   0.844   7.512   7.935
36092SOL    HW110115   0.772   7.480   7.988
36092SOL    HW210116   0.918   7.455   7.957
36093SOL     OW10117   8.986   8.802   9.940
36093SOL    HW110118   9.035   8.839   9.867
36093SOL    HW210119   9.002   8.708   9.934
36094SOL     OW10120   0.319   1.389   7.684
36094SOL    HW110121   0.262   1.458   7.650
36094SOL    HW210122   0.268   1.348   7.754
36095SOL     OW10123   2.953  13.578   4.226
36095SOL    HW110124   3.004  13.497   4.231
36095SOL    HW210125   2.968  13.621   4.310
36096SOL     OW10126   0.663   9.258  14.018
36096SOL    HW110127   0.628   9.237  14.104
36096SOL    HW210128   0.603   9.324  13.983
36097SOL     OW10129   2.549   9.866  11.394
36097SOL    HW110130   2.499   9.901  11.321
36097SOL    HW210131   2.627   9.828  11.355
36098SOL     OW10132   9.735   0.924   4.430
36098SOL    HW110133   9.823   0.960   4.423
36098SOL    HW210134   9.747   0.842   4.479
36099SOL     OW10135   4.426   8.917  11.666
36099SOL    HW110136   4.409   8.946  11.756
36099SOL    HW210137   4.342   8.928  11.621
36100SOL     OW10138   2.327  14.395  13.139
36100SOL    HW110139   2.331  14.300  13.129
36100SOL    HW210140   2.233  14.415  13.141
36101SOL     OW10141  13.643  14.546   9.750
36101SOL    HW110142  13.656  14.530   9.843
36101SOL    HW210143  13.561  14.594   9.745
36102SOL     OW10144   0.978   5.556   2.174
36102SOL    HW110145   1.011   5.643   2.147
36102SOL    HW210146   0.982   5.504   2.094
36103SOL     OW10147   4.672   1.661   8.057
36103SOL    HW110148   4.587   1.673   8.014
36103SOL    HW210149   4.713   1.747   8.056
36104SOL     OW10150  13.825  13.164  11.457
36104SOL    HW110151  13.837  13.249  11.500
36104SOL    HW210152  13.761  13.118  11.511
36105SOL     OW10153   9.952   8.159   4.407
36105SOL    HW110154   9.943   8.064   4.408
36105SOL    HW210155   9.876   8.191   4.456
36106SOL     OW10156  10.501   4.799   9.633
36106SOL    HW110157  10.492   4.828   9.542
36106SOL    HW210158  10.595   4.787   9.646
36107SOL     OW10159  12.440   8.029  10.476
36107SOL    HW110160  12.436   8.000  10.384
36107SOL    HW210161  12.395   8.113  10.476
36108SOL     OW10162  10.395  12.041  12.745
36108SOL    HW110163  10.476  12.018  12.699
36108SOL    HW210164  10.326  11.994  12.697
36109SOL     OW10165   9.871  12.356   0.980
36109SOL    HW110166   9.841  12.441   0.949
36109SOL    HW210167   9.797  12.297   0.964
36110SOL     OW10168   4.015  11.985   0.238
36110SOL    HW110169   3.921  12.003   0.226
36110SOL    HW210170   4.022  11.890   0.232
36111SOL     OW10171  11.992   6.252   0.309
36111SOL    HW110172  12.049   6.229   0.235
36111SOL    HW210173  11.908   6.213   0.286
36112SOL     OW10174  12.503   6.059   2.232
36112SOL    HW110175  12.566   6.107   2.286
36112SOL    HW210176  12.451   6.128   2.190
36113SOL     OW10177  10.820   3.453  13.685
36113SOL    HW110178  10.896   3.406  13.651
36113SOL    HW210179  10.745   3.402  13.655
36114SOL     OW10180  11.392  14.025  14.344
36114SOL    HW110181  11.455  13.987  14.406
36114SOL    HW210182  11.382  13.959  14.276
36115SOL     OW10183   7.415   5.617   8.754
36115SOL    HW110184   7.360   5.596   8.829
36115SOL    HW210185   7.414   5.713   8.750
36116SOL     OW10186   2.086   7.849   3.912
36116SOL    HW110187   2.078   7.776   3.852
36116SOL    HW210188   1.995   7.878   3.927
36117SOL     OW10189   1.333   8.499  10.786
36117SOL    HW110190   1.332   8.453  10.702
36117SOL    HW210191   1.319   8.430  10.851
36118SOL     OW10192   9.997   5.698   7.518
36118SOL    HW110193  10.057   5.753   7.468
36118SOL    HW210194   9.960   5.638   7.454
36119SOL     OW10195  12.418  12.350   8.153
36119SOL    HW110196  12.359  12.291   8.107
36119SOL    HW210197  12.503  12.338   8.109
36120SOL     OW10198   1.359  11.472  11.377
36120SOL    HW110199   1.401  11.437  11.298
36120SOL    HW210200   1.306  11.545  11.346
36121SOL     OW10201   4.666   8.082   7.356
36121SOL    HW110202   4.741   8.048   7.306
36121SOL    HW210203   4.692   8.171   7.380
36122SOL     OW10204   8.020   7.256   0.043
36122SOL    HW110205   8.077   7.227  14.852
36122SOL    HW210206   8.034   7.350   0.049
36123SOL     OW10207   4.613   8.327  11.082
36123SOL    HW110208   4.537   8.328  11.140
36123SOL    HW210209   4.648   8.416  11.086
36124SOL     OW10210   3.772   3.852   8.281
36124SOL    HW110211   3.744   3.824   8.195
36124SOL    HW210212   3.841   3.916   8.264
36125SOL     OW10213   1.511   0.218   4.520
36125SOL    HW110214   1.522   0.167   4.440
36125SOL    HW210215   1.584   0.192   4.575
36126SOL     OW10216  14.209   3.327   1.075
36126SOL    HW110217  14.193   3.236   1.101
36126SOL    HW210218  14.257   3.319   0.992
36127SOL     OW10219   6.839   1.938   2.452
36127SOL    HW110220   6.861   1.998   2.380
36127SOL    HW210221   6.770   1.984   2.500
36128SOL     OW10222   6.106   8.210  12.445
36128SOL    HW110223   6.162   8.287  12.453
36128SOL    HW210224   6.017   8.243  12.460
36129SOL     OW10225   9.087   4.948  14.109
36129SOL    HW110226   9.174   4.984  14.095
36129SOL    HW210227   9.028   5.008  14.063
36130SOL     OW10228   0.411   3.781   7.908
36130SOL    HW110229   0.488   3.819   7.952
36130SOL    HW210230   0.377   3.853   7.855
36131SOL     OW10231   0.462   8.672   0.680
36131SOL    HW110232   0.465   8.613   0.605
36131SOL    HW210233   0.476   8.759   0.642
36132SOL     OW10234   9.763  13.074   8.024
36132SOL    HW110235   9.737  13.164   8.040
36132SOL    HW210236   9.785  13.071   7.931
36133SOL     OW10237   3.603   3.532   3.191
36133SOL    HW110238   3.522   3.579   3.208
36133SOL    HW210239   3.606   3.464   3.257
36134SOL     OW10240  13.275   9.111  13.383
36134SOL    HW110241  13.250   9.020  13.371
36134SOL    HW210242  13.193   9.156  13.404
36135SOL     OW10243   4.883   0.158   4.347
36135SOL    HW110244   4.857   0.201   4.429
36135SOL    HW210245   4.929   0.226   4.298
36136SOL     OW10246   9.823   2.679  13.685
36136SOL    HW110247   9.810   2.731  13.606
36136SOL    HW210248   9.742   2.629  13.695
36137SOL     OW10249   2.511  14.266   2.117
36137SOL    HW110250   2.482  14.203   2.051
36137SOL    HW210251   2.452  14.253   2.191
36138SOL     OW10252  12.438  12.600  14.370
36138SOL    HW110253  12.484  12.637  14.446
36138SOL    HW210254  12.375  12.538  14.408
36139SOL     OW10255   1.813   0.243   4.551
36139SOL    HW110256   1.907   0.260   4.560
36139SOL    HW210257   1.784   0.220   4.639
36140SOL     OW10258  13.972   8.784   1.670
36140SOL    HW110259  13.933   8.699   1.652
36140SOL    HW210260  14.061   8.765   1.701
36141SOL     OW10261  11.476   3.425  11.449
36141SOL    HW110262  11.386   3.392  11.457
36141SOL    HW210263  11.493   3.467  11.533
36142SOL     OW10264   5.544   3.502   8.437
36142SOL    HW110265   5.543   3.409   8.462
36142SOL    HW210266   5.455   3.519   8.406
36143SOL     OW10267  14.414   0.047  12.027
36143SOL    HW110268  14.462   0.085  11.953
36143SOL    HW210269  14.334   0.101  12.033
36144SOL     OW10270   2.606   1.675   9.972
36144SOL    HW110271   2.549   1.668   9.894
36144SOL    HW210272   2.684   1.719   9.940
36145SOL     OW10273  13.634   6.554  11.159
36145SOL    HW110274  13.669   6.498  11.089
36145SOL    HW210275  13.556   6.507  11.189
36146SOL     OW10276   9.894  12.431   9.535
36146SOL    HW110277   9.818  12.413   9.480
36146SOL    HW210278   9.864  12.416   9.624
36147SOL     OW10279  11.406  14.730   0.544
36147SOL    HW110280  11.377  14.690   0.462
36147SOL    HW210281  11.397  14.661   0.609
36148SOL     OW10282   9.473  13.042   6.925
36148SOL    HW110283   9.527  12.964   6.928
36148SOL    HW210284   9.511  13.095   6.854
36149SOL     OW10285   5.738  14.062   6.113
36149SOL    HW110286   5.708  13.988   6.060
36149SOL    HW210287   5.827  14.040   6.138
36150SOL     OW10288   2.937  13.667   9.128
36150SOL    HW110289   2.870  13.630   9.071
36150SOL    HW210290   2.995  13.594   9.149
36151SOL     OW10291   1.465   0.761   0.865
36151SOL    HW110292   1.439   0.708   0.941
36151SOL    HW210293   1.406   0.836   0.867
36152SOL     OW10294  14.067   0.944   9.947
36152SOL    HW110295  14.022   0.909   9.871
36152SOL    HW210296  13.997   0.964  10.009
36153SOL     OW10297  10.545  12.154  13.794
36153SOL    HW110298  10.600  12.080  13.820
36153SOL    HW210299  10.604  12.214  13.748
36154SOL     OW10300  11.638   0.977  14.507
36154SOL    HW110301  11.616   1.066  14.537
36154SOL    HW210302  11.608   0.975  14.416
36155SOL     OW10303   6.560  13.814  11.352
36155SOL    HW110304   6.611  13.735  11.369
36155SOL    HW210305   6.577  13.870  11.428
36156SOL     OW10306   2.791  10.330   2.468
36156SOL    HW110307   2.795  10.424   2.484
36156SOL    HW210308   2.879  10.306   2.442
36157SOL     OW10309   9.933   0.518   0.499
36157SOL    HW110310   9.858   0.536   0.443
36157SOL    HW210311  10.010   0.531   0.443
36158SOL     OW10312  10.261   8.079  12.009
36158SOL    HW110313  10.257   7.998  12.060
36158SOL    HW210314  10.223   8.056  11.924
36159SOL     OW10315   1.085   7.336  13.305
36159SOL    HW110316   1.119   7.308  13.390
36159SOL    HW210317   1.035   7.415  13.324
36160SOL     OW10318   9.660   1.188  11.488
36160SOL    HW110319   9.684   1.279  11.469
36160SOL    HW210320   9.663   1.182  11.583
36161SOL     OW10321  12.958  11.758   1.078
36161SOL    HW110322  12.863  11.759   1.075
36161SOL    HW210323  12.985  11.773   0.987
36162SOL     OW10324   0.134   7.200   1.073
36162SOL    HW110325   0.165   7.110   1.084
36162SOL    HW210326   0.150   7.241   1.159
36163SOL     OW10327   0.453   7.280   8.373
36163SOL    HW110328   0.372   7.299   8.325
36163SOL    HW210329   0.453   7.185   8.383
36164SOL     OW10330   1.258   1.709  10.446
36164SOL    HW110331   1.199   1.648  10.401
36164SOL    HW210332   1.209   1.791  10.452
36165SOL     OW10333  11.463   7.029   2.098
36165SOL    HW110334  11.383   7.034   2.046
36165SOL    HW210335  11.479   6.935   2.107
36166SOL     OW10336   1.366  10.747  10.279
36166SOL    HW110337   1.347  10.819  10.340
36166SOL    HW210338   1.286  10.695  10.278
36167SOL     OW10339   6.448   1.364  10.023
36167SOL    HW110340   6.438   1.300  10.093
36167SOL    HW210341   6.413   1.446  10.059
36168SOL     OW10342   9.342  13.852   0.561
36168SOL    HW110343   9.355  13.760   0.538
36168SOL    HW210344   9.332  13.852   0.656
36169SOL     OW10345   3.901   9.774  10.117
36169SOL    HW110346   3.819   9.783  10.165
36169SOL    HW210347   3.939   9.862  10.118
36170SOL     OW10348  11.055  11.613   1.391
36170SOL    HW110349  10.982  11.644   1.336
36170SOL    HW210350  11.061  11.677   1.461
36171SOL     OW10351  11.163  11.040   8.955
36171SOL    HW110352  11.172  11.099   9.030
36171SOL    HW210353  11.174  11.097   8.879
36172SOL     OW10354   0.869   3.159   9.714
36172SOL    HW110355   0.867   3.063   9.710
36172SOL    HW210356   0.847   3.180   9.804
36173SOL     OW10357   4.763  12.326   9.150
36173SOL    HW110358   4.692  12.265   9.169
36173SOL    HW210359   4.720  12.411   9.141
36174SOL     OW10360   3.267   6.293  14.437
36174SOL    HW110361   3.345   6.347  14.448
36174SOL    HW210362   3.279   6.249  14.353
36175SOL     OW10363  10.625   7.258   9.862
36175SOL    HW110364  10.552   7.318   9.876
36175SOL    HW210365  10.702   7.308   9.888
36176SOL     OW10366   9.941  13.147   0.763
36176SOL    HW110367  10.009  13.079   0.758
36176SOL    HW210368   9.987  13.229   0.744
36177SOL     OW10369  13.368   5.329  14.514
36177SOL    HW110370  13.311   5.303  14.441
36177SOL    HW210371  13.443   5.370  14.472
36178SOL     OW10372  10.611   7.459  10.902
36178SOL    HW110373  10.674   7.527  10.924
36178SOL    HW210374  10.640   7.382  10.951
36179SOL     OW10375   6.038   0.569   1.457
36179SOL    HW110376   6.018   0.583   1.550
36179SOL    HW210377   6.062   0.656   1.425
36180SOL     OW10378   6.491  11.243  11.608
36180SOL    HW110379   6.531  11.157  11.623
36180SOL    HW210380   6.404  11.236  11.646
36181SOL     OW10381   5.059   6.697   9.444
36181SOL    HW110382   5.001   6.757   9.397
36181SOL    HW210383   5.142   6.703   9.396
36182SOL     OW10384  12.930   4.920   9.061
36182SOL    HW110385  12.957   4.829   9.051
36182SOL    HW210386  12.945   4.959   8.975
36183SOL     OW10387   6.100   4.707   3.065
36183SOL    HW110388   6.066   4.731   3.151
36183SOL    HW210389   6.195   4.702   3.077
36184SOL     OW10390  11.110   7.664   4.623
36184SOL    HW110391  11.025   7.639   4.586
36184SOL    HW210392  11.110   7.760   4.621
36185SOL     OW10393   9.093  13.673  14.667
36185SOL    HW110394   9.156  13.724  14.615
36185SOL    HW210395   9.022  13.734  14.685
36186SOL     OW10396  13.700   4.005   2.517
36186SOL    HW110397  13.728   4.090   2.551
36186SOL    HW210398  13.606   4.014   2.506
36187SOL     OW10399  14.041   7.884  14.333
36187SOL    HW110400  14.068   7.922  14.416
36187SOL    HW210401  14.039   7.958  14.272
36188SOL     OW10402  14.062   0.868   2.463
36188SOL    HW110403  14.040   0.814   2.387
36188SOL    HW210404  14.158   0.874   2.461
36189SOL     OW10405   5.603   6.754   2.610
36189SOL    HW110406   5.608   6.748   2.705
36189SOL    HW210407   5.510   6.737   2.590
36190SOL     OW10408  13.988  10.172  11.546
36190SOL    HW110409  14.083  10.167  11.535
36190SOL    HW210410  13.953  10.105  11.487
36191SOL     OW10411  12.140  14.129  11.100
36191SOL    HW110412  12.126  14.037  11.123
36191SOL    HW210413  12.055  14.171  11.112
36192SOL     OW10414   5.026  10.628   1.403
36192SOL    HW110415   4.959  10.654   1.340
36192SOL    HW210416   5.109  10.650   1.361
36193SOL     OW10417   5.823   5.411  13.178
36193SOL    HW110418   5.794   5.499  13.153
36193SOL    HW210419   5.918   5.418  13.183
36194SOL     OW10420  12.312  11.817   5.997
36194SOL    HW110421  12.254  11.811   6.073
36194SOL    HW210422  12.372  11.888   6.018
36195SOL     OW10423   2.899   5.661  13.356
36195SOL    HW110424   2.816   5.669  13.402
36195SOL    HW210425   2.900   5.571  13.324
36196SOL     OW10426  14.857  12.941   9.382
36196SOL    HW110427  14.818  12.881   9.318
36196SOL    HW210428  14.810  12.922   9.463
36197SOL     OW10429  10.862   2.852   4.264
36197SOL    HW110430  10.898   2.936   4.290
36197SOL    HW210431  10.772   2.853   4.296
36198SOL     OW10432  14.263  12.254   7.468
36198SOL    HW110433  14.171  12.258   7.442
36198SOL    HW210434  14.266  12.301   7.552
36199SOL     OW10435   2.543   2.051  11.104
36199SOL    HW110436   2.465   2.025  11.153
36199SOL    HW210437   2.615   2.039  11.167
36200SOL     OW10438  11.065   8.709  13.374
36200SOL    HW110439  11.002   8.769  13.412
36200SOL    HW210440  11.016   8.659  13.309
36201SOL     OW10441   7.781  13.528  12.209
36201SOL    HW110442   7.764  13.437  12.182
36201SOL    HW210443   7.811  13.520  12.300
36202SOL     OW10444  14.812   9.036  11.312
36202SOL    HW110445   0.015   8.992  11.291
36202SOL    HW210446  14.830   9.082  11.394
36203SOL     OW10447  13.498   6.115  10.126
36203SOL    HW110448  13.433   6.183  10.109
36203SOL    HW210449  13.506   6.069  10.043
36204SOL     OW10450   6.750   2.254  14.471
36204SOL    HW110451   6.663   2.249  14.510
36204SOL    HW210452   6.764   2.169  14.431
36205SOL     OW10453   9.452  11.224   2.909
36205SOL    HW110454   9.516  11.222   2.980
36205SOL    HW210455   9.392  11.295   2.932
36206SOL     OW10456   6.865   8.957   5.675
36206SOL    HW110457   6.953   8.921   5.661
36206SOL    HW210458   6.813   8.883   5.707
36207SOL     OW10459   2.283  10.602   8.148
36207SOL    HW110460   2.325  10.516   8.150
36207SOL    HW210461   2.190  10.584   8.134
36208SOL     OW10462   0.506  10.406   4.693
36208SOL    HW110463   0.486  10.430   4.784
36208SOL    HW210464   0.490  10.487   4.643
36209SOL     OW10465  11.427  13.373   7.371
36209SOL    HW110466  11.456  13.325   7.449
36209SOL    HW210467  11.444  13.313   7.298
36210SOL     OW10468   4.656   5.968   7.768
36210SOL    HW110469   4.618   5.982   7.854
36210SOL    HW210470   4.608   6.028   7.711
36211SOL     OW10471   0.286  12.931  12.053
36211SOL    HW110472   0.235  12.871  11.999
36211SOL    HW210473   0.221  12.991  12.091
36212SOL     OW10474  10.684   4.374  10.964
36212SOL    HW110475  10.731   4.291  10.977
36212SOL    HW210476  10.748   4.441  10.988
36213SOL     OW10477   5.736   5.526  11.927
36213SOL    HW110478   5.672   5.458  11.948
36213SOL    HW210479   5.702   5.605  11.969
36214SOL     OW10480   0.521   4.194  11.880
36214SOL    HW110481   0.512   4.271  11.936
36214SOL    HW210482   0.609   4.202  11.843
36215SOL     OW10483   3.215   9.819  12.028
36215SOL    HW110484   3.130   9.803  12.070
36215SOL    HW210485   3.274   9.833  12.102
36216SOL     OW10486   0.104   4.549  11.823
36216SOL    HW110487   0.029   4.504  11.862
36216SOL    HW210488   0.092   4.641  11.847
36217SOL     OW10489   1.065   3.852   3.320
36217SOL    HW110490   1.038   3.926   3.266
36217SOL    HW210491   0.988   3.795   3.324
36218SOL     OW10492   7.694  12.641   1.470
36218SOL    HW110493   7.638  12.577   1.513
36218SOL    HW210494   7.652  12.725   1.486
36219SOL     OW10495   8.925   7.476   7.607
36219SOL    HW110496   8.852   7.527   7.643
36219SOL    HW210497   8.941   7.408   7.672
36220SOL     OW10498   1.534  14.590   5.194
36220SOL    HW110499   1.619  14.552   5.216
36220SOL    HW210500   1.537  14.679   5.229
36221SOL     OW10501  14.623   0.190   3.281
36221SOL    HW110502  14.647   0.239   3.203
36221SOL    HW210503  14.687   0.219   3.347
36222SOL     OW10504   3.304   3.897  10.451
36222SOL    HW110505   3.367   3.890  10.380
36222SOL    HW210506   3.358   3.905  10.530
36223SOL     OW10507  11.705  14.191   0.657
36223SOL    HW110508  11.720  14.254   0.586
36223SOL    HW210509  11.753  14.227   0.731
36224SOL     OW10510   1.426  13.686  10.662
36224SOL    HW110511   1.412  13.594  10.639
36224SOL    HW210512   1.436  13.731  10.578
36225SOL     OW10513   7.084   8.483   8.037
36225SOL    HW110514   7.121   8.423   7.972
36225SOL    HW210515   7.059   8.427   8.110
36226SOL     OW10516   2.012   9.170   2.290
36226SOL    HW110517   1.989   9.160   2.198
36226SOL    HW210518   2.062   9.252   2.293
36227SOL     OW10519   0.350   1.265   2.175
36227SOL    HW110520   0.322   1.356   2.179
36227SOL    HW210521   0.328   1.230   2.262
36228SOL     OW10522  11.853  10.666  13.887
36228SOL    HW110523  11.780  10.718  13.852
36228SOL    HW210524  11.920  10.669  13.818
36229SOL     OW10525  11.760   7.491  10.450
36229SOL    HW110526  11.717   7.518  10.531
36229SOL    HW210527  11.851   7.477  10.474
36230SOL     OW10528  14.431  11.896  11.226
36230SOL    HW110529  14.431  11.949  11.146
36230SOL    HW210530  14.518  11.910  11.264
36231SOL     OW10531   6.254  11.709  13.946
36231SOL    HW110532   6.297  11.794  13.954
36231SOL    HW210533   6.326  11.648  13.927
36232SOL     OW10534   1.101  10.943   1.947
36232SOL    HW110535   1.166  10.876   1.966
36232SOL    HW210536   1.137  10.992   1.873
36233SOL     OW10537  10.569   7.921  12.557
36233SOL    HW110538  10.574   7.914  12.653
36233SOL    HW210539  10.605   7.839  12.525
36234SOL     OW10540  10.480   7.537   0.396
36234SOL    HW110541  10.387   7.529   0.420
36234SOL    HW210542  10.527   7.503   0.472
36235SOL     OW10543   1.416   8.768  14.879
36235SOL    HW110544   1.366   8.687   0.008
36235SOL    HW210545   1.507   8.739  14.869
36236SOL     OW10546   4.262   8.892   9.331
36236SOL    HW110547   4.328   8.842   9.283
36236SOL    HW210548   4.283   8.984   9.311
36237SOL     OW10549   6.901   5.230   3.687
36237SOL    HW110550   6.958   5.268   3.621
36237SOL    HW210551   6.827   5.291   3.692
36238SOL     OW10552  11.811  13.593   0.552
36238SOL    HW110553  11.771  13.507   0.565
36238SOL    HW210554  11.905  13.577   0.562
36239SOL     OW10555   9.683  14.737  11.897
36239SOL    HW110556   9.660  14.816  11.946
36239SOL    HW210557   9.710  14.770  11.811
36240SOL     OW10558  11.653   8.206  11.537
36240SOL    HW110559  11.707   8.131  11.563
36240SOL    HW210560  11.691   8.235  11.454
36241SOL     OW10561  11.560   4.158   6.846
36241SOL    HW110562  11.567   4.240   6.798
36241SOL    HW210563  11.556   4.183   6.938
36242SOL     OW10564   8.181  10.124   9.496
36242SOL    HW110565   8.087  10.121   9.478
36242SOL    HW210566   8.198  10.215   9.522
36243SOL     OW10567   2.864   6.615   4.384
36243SOL    HW110568   2.844   6.605   4.291
36243SOL    HW210569   2.779   6.614   4.428
36244SOL     OW10570  14.611  14.793  14.430
36244SOL    HW110571  14.567  14.869  14.391
36244SOL    HW210572  14.544  14.754  14.486
36245SOL     OW10573  14.217   0.934   5.407
36245SOL    HW110574  14.282   0.872   5.374
36245SOL    HW210575  14.237   0.945   5.499
36246SOL     OW10576  12.829   8.267   1.402
36246SOL    HW110577  12.768   8.269   1.328
36246SOL    HW210578  12.909   8.229   1.365
36247SOL     OW10579   8.101   9.139   0.618
36247SOL    HW110580   8.037   9.150   0.688
36247SOL    HW210581   8.113   9.227   0.582
36248SOL     OW10582  14.474   5.709   6.369
36248SOL    HW110583  14.547   5.714   6.306
36248SOL    HW210584  14.459   5.799   6.396
36249SOL     OW10585   0.947   5.265  12.688
36249SOL    HW110586   0.966   5.183  12.734
36249SOL    HW210587   0.870   5.300  12.733
36250SOL     OW10588   6.828   2.795   2.499
36250SOL    HW110589   6.850   2.863   2.563
36250SOL    HW210590   6.882   2.720   2.524
36251SOL     OW10591   1.085   4.917  11.376
36251SOL    HW110592   1.157   4.860  11.402
36251SOL    HW210593   1.022   4.858  11.336
36252SOL     OW10594  12.906   9.827  13.825
36252SOL    HW110595  12.998   9.853  13.824
36252SOL    HW210596  12.893   9.790  13.913
36253SOL     OW10597  10.100   8.717   3.199
36253SOL    HW110598  10.060   8.667   3.128
36253SOL    HW210599  10.151   8.653   3.249
36254SOL     OW10600  13.678   3.667   0.786
36254SOL    HW110601  13.607   3.663   0.722
36254SOL    HW210602  13.754   3.695   0.736
36255SOL     OW10603   9.637  14.823   5.308
36255SOL    HW110604   9.669  14.823   5.399
36255SOL    HW210605   9.673  14.743   5.270
36256SOL     OW10606  10.370   8.257   0.629
36256SOL    HW110607  10.456   8.299   0.631
36256SOL    HW210608  10.377   8.190   0.562
36257SOL     OW10609   6.317  10.754  12.542
36257SOL    HW110610   6.269  10.768  12.461
36257SOL    HW210611   6.409  10.769  12.520
36258SOL     OW10612   0.680   2.789   0.250
36258SOL    HW110613   0.627   2.794   0.171
36258SOL    HW210614   0.765   2.757   0.220
36259SOL     OW10615   7.659   7.375   2.147
36259SOL    HW110616   7.681   7.335   2.231
36259SOL    HW210617   7.686   7.467   2.156
36260SOL     OW10618   1.433   5.968   6.283
36260SOL    HW110619   1.368   5.922   6.336
36260SOL    HW210620   1.466   5.902   6.222
36261SOL     OW10621   5.448   9.025   4.312
36261SOL    HW110622   5.508   9.088   4.273
36261SOL    HW210623   5.361   9.052   4.282
36262SOL     OW10624   1.785   9.824   1.919
36262SOL    HW110625   1.798   9.823   2.014
36262SOL    HW210626   1.692   9.847   1.908
36263SOL     OW10627   6.086   6.155   7.906
36263SOL    HW110628   6.179   6.136   7.918
36263SOL    HW210629   6.083   6.248   7.884
36264SOL     OW10630   7.106   9.456  12.894
36264SOL    HW110631   7.060   9.534  12.923
36264SOL    HW210632   7.177   9.445  12.958
36265SOL     OW10633  12.165   3.001  11.861
36265SOL    HW110634  12.250   3.040  11.839
36265SOL    HW210635  12.104   3.075  11.858
36266SOL     OW10636   8.235   6.514   9.264
36266SOL    HW110637   8.308   6.454   9.278
36266SOL    HW210638   8.156   6.460   9.276
36267SOL     OW10639   4.423   1.405  10.318
36267SOL    HW110640   4.470   1.370  10.242
36267SOL    HW210641   4.408   1.330  10.374
36268SOL     OW10642   0.830   8.812   6.525
36268SOL    HW110643   0.895   8.750   6.491
36268SOL    HW210644   0.767   8.758   6.572
36269SOL     OW10645   3.371   2.315   2.110
36269SOL    HW110646   3.351   2.223   2.092
36269SOL    HW210647   3.455   2.313   2.156
36270SOL     OW10648   9.313  12.882   0.893
36270SOL    HW110649   9.345  12.972   0.901
36270SOL    HW210650   9.219  12.891   0.879
36271SOL     OW10651   8.399   7.435   9.683
36271SOL    HW110652   8.317   7.389   9.663
36271SOL    HW210653   8.463   7.365   9.696
36272SOL     OW10654   4.271  10.763   9.643
36272SOL    HW110655   4.365  10.747   9.636
36272SOL    HW210656   4.230  10.683   9.610
36273SOL     OW10657  12.514   7.372   5.816
36273SOL    HW110658  12.430   7.414   5.835
36273SOL    HW210659  12.552   7.354   5.902
36274SOL     OW10660  11.822   7.719   3.079
36274SOL    HW110661  11.814   7.728   3.174
36274SOL    HW210662  11.733   7.736   3.046
36275SOL     OW10663  11.439   7.147  12.544
36275SOL    HW110664  11.508   7.083  12.525
36275SOL    HW210665  11.416   7.183  12.459
36276SOL     OW10666   4.189  12.287   6.073
36276SOL    HW110667   4.113  12.345   6.079
36276SOL    HW210668   4.181  12.247   5.986
36277SOL     OW10669   0.493  10.514   1.188
36277SOL    HW110670   0.492  10.431   1.141
36277SOL    HW210671   0.568  10.562   1.151
36278SOL     OW10672   5.433   6.922  13.484
36278SOL    HW110673   5.397   6.999  13.440
36278SOL    HW210674   5.466   6.867  13.414
36279SOL     OW10675   4.718   6.310  13.440
36279SOL    HW110676   4.688   6.361  13.515
36279SOL    HW210677   4.780   6.368  13.395
36280SOL     OW10678  12.610   4.496   1.252
36280SOL    HW110679  12.693   4.542   1.268
36280SOL    HW210680  12.582   4.467   1.339
36281SOL     OW10681   8.365   3.287  10.210
36281SOL    HW110682   8.408   3.231  10.145
36281SOL    HW210683   8.334   3.363  10.159
36282SOL     OW10684  13.575   1.554   3.357
36282SOL    HW110685  13.651   1.596   3.397
36282SOL    HW210686  13.573   1.586   3.267
36283SOL     OW10687  13.894   0.162   3.492
36283SOL    HW110688  13.835   0.134   3.422
36283SOL    HW210689  13.852   0.240   3.529
36284SOL     OW10690  14.013   6.444  10.818
36284SOL    HW110691  13.972   6.414  10.899
36284SOL    HW210692  14.016   6.539  10.826
36285SOL     OW10693   8.152   8.601   4.770
36285SOL    HW110694   8.082   8.537   4.784
36285SOL    HW210695   8.215   8.555   4.715
36286SOL     OW10696  12.886   6.573   0.441
36286SOL    HW110697  12.829   6.504   0.474
36286SOL    HW210698  12.897   6.633   0.515
36287SOL     OW10699  10.489  10.126   7.405
36287SOL    HW110700  10.490  10.088   7.317
36287SOL    HW210701  10.397  10.148   7.421
36288SOL     OW10702   7.946   8.656   1.693
36288SOL    HW110703   7.957   8.564   1.717
36288SOL    HW210704   7.891   8.654   1.615
36289SOL     OW10705   6.163  11.866   7.571
36289SOL    HW110706   6.245  11.856   7.620
36289SOL    HW210707   6.094  11.854   7.637
36290SOL     OW10708   4.343  13.085   4.201
36290SOL    HW110709   4.366  12.993   4.187
36290SOL    HW210710   4.413  13.134   4.158
36291SOL     OW10711   8.926  11.750   1.877
36291SOL    HW110712   8.841  11.781   1.906
36291SOL    HW210713   8.952  11.814   1.809
36292SOL     OW10714   2.899  13.430  14.660
36292SOL    HW110715   2.819  13.451  14.708
36292SOL    HW210716   2.966  13.485  14.698
36293SOL     OW10717   8.589  12.666   0.025
36293SOL    HW110718   8.499  12.694   0.043
36293SOL    HW210719   8.623  12.639   0.110
36294SOL     OW10720   9.407   3.944   0.801
36294SOL    HW110721   9.468   3.911   0.735
36294SOL    HW210722   9.388   4.034   0.774
36295SOL     OW10723   3.465   1.314  13.679
36295SOL    HW110724   3.487   1.376  13.748
36295SOL    HW210725   3.462   1.229  13.723
36296SOL     OW10726   6.272  13.985  10.799
36296SOL    HW110727   6.213  14.030  10.860
36296SOL    HW210728   6.289  13.901  10.840
36297SOL     OW10729   3.365   0.091   6.960
36297SOL    HW110730   3.390   0.049   6.878
36297SOL    HW210731   3.446   0.093   7.012
36298SOL     OW10732  14.553   7.712   2.755
36298SOL    HW110733  14.462   7.687   2.740
36298SOL    HW210734  14.571   7.687   2.845
36299SOL     OW10735   7.106  10.554   1.072
36299SOL    HW110736   7.192  10.522   1.044
36299SOL    HW210737   7.054  10.475   1.084
36300SOL     OW10738   8.340  12.827  12.063
36300SOL    HW110739   8.279  12.887  12.104
36300SOL    HW210740   8.302  12.740  12.077
36301SOL     OW10741   1.275  12.610  10.474
36301SOL    HW110742   1.222  12.581  10.548
36301SOL    HW210743   1.280  12.705  10.485
36302SOL     OW10744   8.188  12.284  10.982
36302SOL    HW110745   8.269  12.261  11.027
36302SOL    HW210746   8.167  12.372  11.012
36303SOL     OW10747   3.401   8.158   4.819
36303SOL    HW110748   3.392   8.090   4.886
36303SOL    HW210749   3.324   8.213   4.830
36304SOL     OW10750  14.754  13.446  13.954
36304SOL    HW110751  14.828  13.388  13.936
36304SOL    HW210752  14.680  13.406  13.907
36305SOL     OW10753   0.838   7.867   9.689
36305SOL    HW110754   0.752   7.837   9.657
36305SOL    HW210755   0.818   7.940   9.747
36306SOL     OW10756   9.181   5.687   2.780
36306SOL    HW110757   9.113   5.748   2.807
36306SOL    HW210758   9.252   5.743   2.748
36307SOL     OW10759  10.214  14.733   9.602
36307SOL    HW110760  10.119  14.740   9.593
36307SOL    HW210761  10.248  14.762   9.517
36308SOL     OW10762  13.238   6.279   2.616
36308SOL    HW110763  13.169   6.240   2.562
36308SOL    HW210764  13.317   6.269   2.563
36309SOL     OW10765  11.516  12.713   0.643
36309SOL    HW110766  11.475  12.646   0.697
36309SOL    HW210767  11.583  12.752   0.700
36310SOL     OW10768  11.870   2.457   5.226
36310SOL    HW110769  11.826   2.542   5.222
36310SOL    HW210770  11.890   2.435   5.135
36311SOL     OW10771   8.389   5.328   0.842
36311SOL    HW110772   8.297   5.301   0.835
36311SOL    HW210773   8.393   5.411   0.795
36312SOL     OW10774  12.804  10.084  13.708
36312SOL    HW110775  12.724  10.103  13.758
36312SOL    HW210776  12.851  10.020  13.761
36313SOL     OW10777   5.572   1.729  13.409
36313SOL    HW110778   5.598   1.784  13.335
36313SOL    HW210779   5.478   1.743  13.419
36314SOL     OW10780  14.029   8.473   3.579
36314SOL    HW110781  14.072   8.537   3.523
36314SOL    HW210782  13.945   8.456   3.537
36315SOL     OW10783   8.183   6.148   3.349
36315SOL    HW110784   8.248   6.081   3.329
36315SOL    HW210785   8.147   6.123   3.434
36316SOL     OW10786   8.042   6.702   2.164
36316SOL    HW110787   8.092   6.776   2.128
36316SOL    HW210788   7.964   6.743   2.203
36317SOL     OW10789  10.920   9.583  14.092
36317SOL    HW110790  10.866   9.662  14.089
36317SOL    HW210791  10.978   9.596  14.167
36318SOL     OW10792  12.149   2.557   7.455
36318SOL    HW110793  12.120   2.538   7.366
36318SOL    HW210794  12.159   2.653   7.456
36319SOL     OW10795  12.203   6.697  10.847
36319SOL    HW110796  12.205   6.608  10.812
36319SOL    HW210797  12.119   6.703  10.894
36320SOL     OW10798   1.112   3.383   9.668
36320SOL    HW110799   1.201   3.359   9.694
36320SOL    HW210800   1.069   3.299   9.651
36321SOL     OW10801  12.701   9.387   9.752
36321SOL    HW110802  12.608   9.408   9.743
36321SOL    HW210803  12.721   9.331   9.677
36322SOL     OW10804  10.415   5.917   6.660
36322SOL    HW110805  10.412   6.001   6.613
36322SOL    HW210806  10.430   5.852   6.592
36323SOL     OW10807   1.252   9.393   6.452
36323SOL    HW110808   1.291   9.360   6.533
36323SOL    HW210809   1.255   9.319   6.392
36324SOL     OW10810  14.030  13.312   9.850
36324SOL    HW110811  14.107  13.364   9.829
36324SOL    HW210812  14.049  13.225   9.815
36325SOL     OW10813   1.058   4.910   1.035
36325SOL    HW110814   1.051   4.881   0.944
36325SOL    HW210815   1.149   4.895   1.059
36326SOL     OW10816  10.283   4.799   6.474
36326SOL    HW110817  10.210   4.745   6.446
36326SOL    HW210818  10.360   4.743   6.465
36327SOL     OW10819   0.478   2.617   7.962
36327SOL    HW110820   0.397   2.666   7.953
36327SOL    HW210821   0.543   2.681   7.990
36328SOL     OW10822   9.220   3.930   1.536
36328SOL    HW110823   9.166   3.941   1.458
36328SOL    HW210824   9.302   3.975   1.516
36329SOL     OW10825  10.792   4.666   6.956
36329SOL    HW110826  10.822   4.604   7.023
36329SOL    HW210827  10.801   4.752   6.998
36330SOL     OW10828   6.677  10.945   4.176
36330SOL    HW110829   6.752  10.958   4.117
36330SOL    HW210830   6.634  10.866   4.143
36331SOL     OW10831   7.552   6.572   3.545
36331SOL    HW110832   7.589   6.648   3.590
36331SOL    HW210833   7.459   6.574   3.566
36332SOL     OW10834  13.726   0.219  14.017
36332SOL    HW110835  13.786   0.263  13.957
36332SOL    HW210836  13.639   0.249  13.990
36333SOL     OW10837   2.216  14.098   6.323
36333SOL    HW110838   2.218  14.189   6.293
36333SOL    HW210839   2.282  14.054   6.270
36334SOL     OW10840   0.565   6.921   3.531
36334SOL    HW110841   0.559   6.833   3.493
36334SOL    HW210842   0.639   6.916   3.591
36335SOL     OW10843   6.094   1.997   4.146
36335SOL    HW110844   6.047   1.953   4.216
36335SOL    HW210845   6.170   2.037   4.190
36336SOL     OW10846   9.723   0.103   5.003
36336SOL    HW110847   9.652   0.161   5.031
36336SOL    HW210848   9.801   0.137   5.049
36337SOL     OW10849   9.645   2.494   4.854
36337SOL    HW110850   9.585   2.532   4.790
36337SOL    HW210851   9.732   2.510   4.818
36338SOL     OW10852   0.770   8.420   6.133
36338SOL    HW110853   0.772   8.494   6.193
36338SOL    HW210854   0.833   8.443   6.064
36339SOL     OW10855   6.204  13.332   7.836
36339SOL    HW110856   6.202  13.275   7.759
36339SOL    HW210857   6.144  13.404   7.813
36340SOL     OW10858   1.024  14.262   9.873
36340SOL    HW110859   0.931  14.284   9.873
36340SOL    HW210860   1.026  14.166   9.880
36341SOL     OW10861   2.345  11.565  11.656
36341SOL    HW110862   2.347  11.644  11.709
36341SOL    HW210863   2.417  11.576  11.594
36342SOL     OW10864  14.413   5.988   5.675
36342SOL    HW110865  14.335   5.933   5.666
36342SOL    HW210866  14.467   5.944   5.741
36343SOL     OW10867  10.645  14.503   1.189
36343SOL    HW110868  10.594  14.508   1.271
36343SOL    HW210869  10.723  14.556   1.207
36344SOL     OW10870  14.570   1.505   3.733
36344SOL    HW110871  14.620   1.549   3.802
36344SOL    HW210872  14.618   1.526   3.653
36345SOL     OW10873   0.520   2.959  10.132
36345SOL    HW110874   0.492   3.050  10.127
36345SOL    HW210875   0.504   2.934  10.223
36346SOL     OW10876   6.549   6.307   8.868
36346SOL    HW110877   6.519   6.238   8.928
36346SOL    HW210878   6.497   6.293   8.789
36347SOL     OW10879   4.419  11.994   6.070
36347SOL    HW110880   4.357  12.035   6.010
36347SOL    HW210881   4.368  11.928   6.116
36348SOL     OW10882   1.185   0.852   4.906
36348SOL    HW110883   1.234   0.784   4.951
36348SOL    HW210884   1.138   0.806   4.836
36349SOL     OW10885   9.341  13.917   4.999
36349SOL    HW110886   9.332  13.828   5.033
36349SOL    HW210887   9.435  13.930   4.987
36350SOL     OW10888   5.797   8.675  10.369
36350SOL    HW110889   5.882   8.716  10.352
36350SOL    HW210890   5.813   8.612  10.438
36351SOL     OW10891   4.487  11.370  13.278
36351SOL    HW110892   4.553  11.437  13.260
36351SOL    HW210893   4.449  11.351  13.192
36352SOL     OW10894   0.622   3.235   6.139
36352SOL    HW110895   0.642   3.143   6.159
36352SOL    HW210896   0.559   3.261   6.206
36353SOL     OW10897   9.183  13.110  11.576
36353SOL    HW110898   9.247  13.180  11.588
36353SOL    HW210899   9.103  13.156  11.548
36354SOL     OW10900   4.127   9.873   0.685
36354SOL    HW110901   4.144   9.876   0.591
36354SOL    HW210902   4.060   9.941   0.699
36355SOL     OW10903   7.160  14.043   1.545
36355SOL    HW110904   7.181  14.060   1.453
36355SOL    HW210905   7.157  13.948   1.552
36356SOL     OW10906   1.626   4.776   2.317
36356SOL    HW110907   1.643   4.700   2.373
36356SOL    HW210908   1.711   4.819   2.310
36357SOL     OW10909   2.890   0.007   0.093
36357SOL    HW110910   2.960   0.065   0.060
36357SOL    HW210911   2.936  14.806   0.115
36358SOL     OW10912   5.472  10.698  11.434
36358SOL    HW110913   5.512  10.667  11.515
36358SOL    HW210914   5.396  10.642  11.421
36359SOL     OW10915   3.149   5.956   3.367
36359SOL    HW110916   3.154   5.958   3.462
36359SOL    HW210917   3.056   5.968   3.348
36360SOL     OW10918  11.720   9.495   6.994
36360SOL    HW110919  11.815   9.496   6.980
36360SOL    HW210920  11.703   9.572   7.047
36361SOL     OW10921  14.040  12.457   0.334
36361SOL    HW110922  14.044  12.531   0.394
36361SOL    HW210923  13.949  12.455   0.304
36362SOL     OW10924   4.757   3.928   7.534
36362SOL    HW110925   4.731   3.940   7.443
36362SOL    HW210926   4.752   3.834   7.548
36363SOL     OW10927  14.332   3.604   5.893
36363SOL    HW110928  14.307   3.622   5.802
36363SOL    HW210929  14.332   3.689   5.936
36364SOL     OW10930  13.834  14.864   9.040
36364SOL    HW110931  13.890  14.788   9.025
36364SOL    HW210932  13.813  14.860   9.133
36365SOL     OW10933   7.130  11.029  13.777
36365SOL    HW110934   7.200  10.991  13.725
36365SOL    HW210935   7.051  10.986  13.746
36366SOL     OW10936   7.711   3.971   2.257
36366SOL    HW110937   7.749   3.924   2.331
36366SOL    HW210938   7.785   4.015   2.215
36367SOL     OW10939   7.184   4.067  10.903
36367SOL    HW110940   7.251   4.122  10.944
36367SOL    HW210941   7.101   4.107  10.929
36368SOL     OW10942   1.247   1.420   7.677
36368SOL    HW110943   1.165   1.421   7.725
36368SOL    HW210944   1.315   1.414   7.744
36369SOL     OW10945   5.658   7.215   3.552
36369SOL    HW110946   5.668   7.144   3.615
36369SOL    HW210947   5.573   7.253   3.573
36370SOL     OW10948  14.707   3.942   0.738
36370SOL    HW110949  14.707   3.943   0.642
36370SOL    HW210950  14.705   4.035   0.762
36371SOL     OW10951   5.465  10.949  12.099
36371SOL    HW110952   5.431  11.010  12.165
36371SOL    HW210953   5.491  11.005  12.026
36372SOL     OW10954   3.689  14.852  12.584
36372SOL    HW110955   3.697   0.039  12.653
36372SOL    HW210956   3.649   0.019  12.511
36373SOL     OW10957   7.712  11.526   3.217
36373SOL    HW110958   7.723  11.504   3.309
36373SOL    HW210959   7.695  11.442   3.174
36374SOL     OW10960   4.799   4.859  12.721
36374SOL    HW110961   4.721   4.904  12.754
36374SOL    HW210962   4.768   4.813  12.643
36375SOL     OW10963   0.855  12.048   3.196
36375SOL    HW110964   0.794  12.122   3.203
36375SOL    HW210965   0.854  12.008   3.283
36376SOL     OW10966  10.007  11.208  10.932
36376SOL    HW110967   9.930  11.262  10.914
36376SOL    HW210968   9.975  11.118  10.932
36377SOL     OW10969   4.583  14.285   7.358
36377SOL    HW110970   4.628  14.362   7.394
36377SOL    HW210971   4.557  14.312   7.270
36378SOL     OW10972   2.189   6.624   4.481
36378SOL    HW110973   2.269   6.667   4.452
36378SOL    HW210974   2.137   6.695   4.520
36379SOL     OW10975  11.815   8.408   1.310
36379SOL    HW110976  11.798   8.409   1.216
36379SOL    HW210977  11.740   8.363   1.348
36380SOL     OW10978   3.379   4.346   8.551
36380SOL    HW110979   3.317   4.392   8.496
36380SOL    HW210980   3.327   4.314   8.625
36381SOL     OW10981   8.609  14.766   0.306
36381SOL    HW110982   8.586  14.752   0.214
36381SOL    HW210983   8.543  14.827   0.338
36382SOL     OW10984   7.736  13.674  13.352
36382SOL    HW110985   7.673  13.740  13.380
36382SOL    HW210986   7.816  13.724  13.335
36383SOL     OW10987  10.642   7.158  13.637
36383SOL    HW110988  10.681   7.192  13.718
36383SOL    HW210989  10.550   7.143  13.659
36384SOL     OW10990   1.269   7.973  13.523
36384SOL    HW110991   1.236   8.054  13.482
36384SOL    HW210992   1.342   7.947  13.467
36385SOL     OW10993  10.078   0.225  12.486
36385SOL    HW110994  10.008   0.211  12.422
36385SOL    HW210995  10.120   0.306  12.457
36386SOL     OW10996  13.885  11.065   7.474
36386SOL    HW110997  13.953  11.126   7.500
36386SOL    HW210998  13.855  11.097   7.389
36387SOL     OW10999   5.561   4.423   8.398
36387SOL    HW111000   5.624   4.353   8.410
36387SOL    HW211001   5.546   4.458   8.486
36388SOL     OW11002   1.885   4.765   9.546
36388SOL    HW111003   1.878   4.706   9.471
36388SOL    HW211004   1.930   4.713   9.613
36389SOL     OW11005  11.878   4.402   6.028
36389SOL    HW111006  11.795   4.364   5.997
36389SOL    HW211007  11.889   4.482   5.977
36390SOL     OW11008  10.063  13.741   7.907
36390SOL    HW111009  10.049  13.835   7.893
36390SOL    HW211010  10.011  13.720   7.985
36391SOL     OW11011   5.767  13.082   6.582
36391SOL    HW111012   5.747  13.065   6.674
36391SOL    HW211013   5.731  13.169   6.564
36392SOL     OW11014   0.980  10.005   3.939
36392SOL    HW111015   0.987  10.063   4.014
36392SOL    HW211016   0.952  10.061   3.867
36393SOL     OW11017   4.546   5.666  12.193
36393SOL    HW111018   4.623   5.685  12.246
36393SOL    HW211019   4.490   5.614  12.252
36394SOL     OW11020  12.322  10.822   5.979
36394SOL    HW111021  12.417  10.814   5.977
36394SOL    HW211022  12.297  10.840   5.889
36395SOL     OW11023  12.426   3.327  14.629
36395SOL    HW111024  12.433   3.296  14.538
36395SOL    HW211025  12.355   3.391  14.627
36396SOL     OW11026   5.290   9.639  11.730
36396SOL    HW111027   5.320   9.719  11.773
36396SOL    HW211028   5.262   9.582  11.802
36397SOL     OW11029   3.060   2.905  11.601
36397SOL    HW111030   3.105   2.829  11.564
36397SOL    HW211031   3.059   2.889  11.695
36398SOL     OW11032   9.171   1.417  11.843
36398SOL    HW111033   9.223   1.362  11.784
36398SOL    HW211034   9.231   1.440  11.914
36399SOL     OW11035  10.437   0.058   2.071
36399SOL    HW111036  10.498   0.062   2.144
36399SOL    HW211037  10.473  14.871   2.013
36400SOL     OW11038   7.474   9.338   5.334
36400SOL    HW111039   7.438   9.376   5.415
36400SOL    HW211040   7.412   9.363   5.266
36401SOL     OW11041  10.781   0.098  10.252
36401SOL    HW111042  10.693   0.101  10.288
36401SOL    HW211043  10.790   0.180  10.203
36402SOL     OW11044  10.158   1.633   9.619
36402SOL    HW111045  10.218   1.703   9.644
36402SOL    HW211046  10.090   1.634   9.687
36403SOL     OW11047   4.582   8.106   6.060
36403SOL    HW111048   4.606   8.198   6.047
36403SOL    HW211049   4.499   8.096   6.015
36404SOL     OW11050   3.055   6.889   1.835
36404SOL    HW111051   3.109   6.932   1.901
36404SOL    HW211052   3.015   6.815   1.881
36405SOL     OW11053  11.565  14.468  14.542
36405SOL    HW111054  11.608  14.527  14.604
36405SOL    HW211055  11.575  14.512  14.458
36406SOL     OW11056  13.037   4.193   2.112
36406SOL    HW111057  13.071   4.273   2.071
36406SOL    HW211058  12.999   4.223   2.194
36407SOL     OW11059   0.423   8.640   3.491
36407SOL    HW111060   0.372   8.698   3.434
36407SOL    HW211061   0.363   8.618   3.562
36408SOL     OW11062   7.407   0.820   2.918
36408SOL    HW111063   7.390   0.760   2.845
36408SOL    HW211064   7.437   0.900   2.876
36409SOL     OW11065  11.741  13.130  10.978
36409SOL    HW111066  11.729  13.045  10.937
36409SOL    HW211067  11.754  13.111  11.071
36410SOL     OW11068  14.836   2.807   9.055
36410SOL    HW111069  14.852   2.885   9.108
36410SOL    HW211070  14.771   2.757   9.105
36411SOL     OW11071  12.398   4.469  14.797
36411SOL    HW111072  12.449   4.389  14.799
36411SOL    HW211073  12.448   4.531  14.851
36412SOL     OW11074   6.286   2.787  14.583
36412SOL    HW111075   6.330   2.841  14.649
36412SOL    HW211076   6.200   2.828  14.572
36413SOL     OW11077  11.991   0.653  11.151
36413SOL    HW111078  12.044   0.640  11.072
36413SOL    HW211079  12.007   0.574  11.202
36414SOL     OW11080   6.431  14.324   8.332
36414SOL    HW111081   6.489  14.255   8.300
36414SOL    HW211082   6.461  14.403   8.287
36415SOL     OW11083   2.877   8.474  12.658
36415SOL    HW111084   2.922   8.407  12.606
36415SOL    HW211085   2.784   8.460  12.638
36416SOL     OW11086   3.730   7.362   5.855
36416SOL    HW111087   3.790   7.288   5.855
36416SOL    HW211088   3.787   7.439   5.861
36417SOL     OW11089   7.258   3.294   3.984
36417SOL    HW111090   7.311   3.238   3.927
36417SOL    HW211091   7.240   3.372   3.932
36418SOL     OW11092   3.173   7.975   8.988
36418SOL    HW111093   3.241   8.011   9.045
36418SOL    HW211094   3.104   8.041   8.988
36419SOL     OW11095   7.772   0.389  13.682
36419SOL    HW111096   7.698   0.444  13.656
36419SOL    HW211097   7.752   0.303  13.646
36420SOL     OW11098   9.663  14.042   8.625
36420SOL    HW111099   9.731  14.105   8.601
36420SOL    HW211100   9.624  14.078   8.704
36421SOL     OW11101   8.912   5.173  10.452
36421SOL    HW111102   8.834   5.154  10.503
36421SOL    HW211103   8.909   5.268  10.438
36422SOL     OW11104  12.051   1.688  11.473
36422SOL    HW111105  12.029   1.608  11.520
36422SOL    HW211106  12.086   1.658  11.389
36423SOL     OW11107   7.421  12.298   6.119
36423SOL    HW111108   7.344  12.281   6.064
36423SOL    HW211109   7.385  12.314   6.206
36424SOL     OW11110  11.171  13.682  12.119
36424SOL    HW111111  11.214  13.739  12.183
36424SOL    HW211112  11.081  13.674  12.149
36425SOL     OW11113  14.287  11.347   0.330
36425SOL    HW111114  14.310  11.254   0.332
36425SOL    HW211115  14.347  11.385   0.266
36426SOL     OW11116   5.653  12.118  14.480
36426SOL    HW111117   5.636  12.177  14.554
36426SOL    HW211118   5.567  12.085  14.455
36427SOL     OW11119   7.814   9.971   4.888
36427SOL    HW111120   7.752   9.997   4.820
36427SOL    HW211121   7.781  10.013   4.968
36428SOL     OW11122   3.338  12.173   3.774
36428SOL    HW111123   3.409  12.109   3.787
36428SOL    HW211124   3.352  12.207   3.686
36429SOL     OW11125  12.851   3.172  12.013
36429SOL    HW111126  12.932   3.123  11.997
36429SOL    HW211127  12.823   3.142  12.100
36430SOL     OW11128   4.807   9.235  13.379
36430SOL    HW111129   4.756   9.164  13.418
36430SOL    HW211130   4.784   9.312  13.431
36431SOL     OW11131  13.679   1.268   6.000
36431SOL    HW111132  13.755   1.223   6.036
36431SOL    HW211133  13.644   1.318   6.074
36432SOL     OW11134   4.819  10.313  13.899
36432SOL    HW111135   4.745  10.328  13.840
36432SOL    HW211136   4.847  10.400  13.926
36433SOL     OW11137   7.046  10.659   5.990
36433SOL    HW111138   6.951  10.662   6.003
36433SOL    HW211139   7.075  10.748   6.010
36434SOL     OW11140  10.271   5.033   0.006
36434SOL    HW111141  10.261   5.028   0.101
36434SOL    HW211142  10.192   5.076  14.855
36435SOL     OW11143   1.846   3.060  13.511
36435SOL    HW111144   1.764   3.009  13.509
36435SOL    HW211145   1.851   3.093  13.600
36436SOL     OW11146   9.659  12.362   0.661
36436SOL    HW111147   9.699  12.325   0.740
36436SOL    HW211148   9.603  12.292   0.627
36437SOL     OW11149  10.018   0.753   7.223
36437SOL    HW111150  10.078   0.827   7.209
36437SOL    HW211151  10.063   0.678   7.185
36438SOL     OW11152   2.272   1.648   0.582
36438SOL    HW111153   2.279   1.553   0.581
36438SOL    HW211154   2.182   1.666   0.609
36439SOL     OW11155  10.965  13.469  12.923
36439SOL    HW111156  11.041  13.411  12.920
36439SOL    HW211157  10.919  13.453  12.841
36440SOL     OW11158   3.734  11.810   0.999
36440SOL    HW111159   3.696  11.897   1.014
36440SOL    HW211160   3.746  11.805   0.905
36441SOL     OW11161   3.291   6.090   1.752
36441SOL    HW111162   3.264   6.182   1.745
36441SOL    HW211163   3.216   6.040   1.720
36442SOL     OW11164   5.980   6.145  14.826
36442SOL    HW111165   5.890   6.138  14.795
36442SOL    HW211166   6.015   6.222  14.780
36443SOL     OW11167  12.978  12.384   2.495
36443SOL    HW111168  12.984  12.345   2.408
36443SOL    HW211169  13.042  12.455   2.493
36444SOL     OW11170  12.174   3.070  11.195
36444SOL    HW111171  12.085   3.066  11.231
36444SOL    HW211172  12.206   3.156  11.220
36445SOL     OW11173   0.453   6.528   4.814
36445SOL    HW111174   0.431   6.568   4.898
36445SOL    HW211175   0.463   6.602   4.754
36446SOL     OW11176   8.664  12.507   4.593
36446SOL    HW111177   8.705  12.459   4.665
36446SOL    HW211178   8.581  12.537   4.629
36447SOL     OW11179   4.719   8.609   5.330
36447SOL    HW111180   4.700   8.687   5.279
36447SOL    HW211181   4.813   8.613   5.348
36448SOL     OW11182  14.100   1.910   0.794
36448SOL    HW111183  14.026   1.935   0.849
36448SOL    HW211184  14.060   1.888   0.710
36449SOL     OW11185   9.032   8.960   2.785
36449SOL    HW111186   9.006   9.049   2.760
36449SOL    HW211187   9.108   8.941   2.730
36450SOL     OW11188   8.488   5.467  12.740
36450SOL    HW111189   8.443   5.428  12.666
36450SOL    HW211190   8.510   5.556  12.711
36451SOL     OW11191  13.514   1.824   0.347
36451SOL    HW111192  13.508   1.797   0.439
36451SOL    HW211193  13.423   1.825   0.317
36452SOL     OW11194  11.041   5.076  11.362
36452SOL    HW111195  11.003   5.008  11.308
36452SOL    HW211196  11.002   5.063  11.449
36453SOL     OW11197   0.353  11.287   6.024
36453SOL    HW111198   0.367  11.378   6.000
36453SOL    HW211199   0.424  11.267   6.086
36454SOL     OW11200  11.836  10.963   5.276
36454SOL    HW111201  11.868  11.027   5.213
36454SOL    HW211202  11.867  10.994   5.361
36455SOL     OW11203   3.821   2.276  11.897
36455SOL    HW111204   3.864   2.250  11.816
36455SOL    HW211205   3.823   2.197  11.951
36456SOL     OW11206   7.369   3.034  14.147
36456SOL    HW111207   7.303   2.979  14.189
36456SOL    HW211208   7.320   3.103  14.103
36457SOL     OW11209  11.112   6.566  13.841
36457SOL    HW111210  11.173   6.606  13.903
36457SOL    HW211211  11.079   6.489  13.887
36458SOL     OW11212   2.908   8.318  13.701
36458SOL    HW111213   2.954   8.402  13.695
36458SOL    HW211214   2.976   8.252  13.690
36459SOL     OW11215   2.172   8.518   2.498
36459SOL    HW111216   2.158   8.450   2.564
36459SOL    HW211217   2.155   8.601   2.544
36460SOL     OW11218  11.913   6.491   7.932
36460SOL    HW111219  11.972   6.559   7.899
36460SOL    HW211220  11.948   6.410   7.896
36461SOL     OW11221   3.131   5.118   6.886
36461SOL    HW111222   3.199   5.159   6.832
36461SOL    HW211223   3.061   5.184   6.890
36462SOL     OW11224   4.744   0.710  11.995
36462SOL    HW111225   4.818   0.677  11.944
36462SOL    HW211226   4.700   0.631  12.026
36463SOL     OW11227  14.292  14.500  11.613
36463SOL    HW111228  14.336  14.548  11.684
36463SOL    HW211229  14.227  14.562  11.580
36464SOL     OW11230   2.235   8.038   2.994
36464SOL    HW111231   2.303   7.989   2.948
36464SOL    HW211232   2.279   8.076   3.070
36465SOL     OW11233   0.481   1.181   9.823
36465SOL    HW111234   0.428   1.138   9.890
36465SOL    HW211235   0.562   1.205   9.869
36466SOL     OW11236   4.015  11.369   2.574
36466SOL    HW111237   4.010  11.463   2.592
36466SOL    HW211238   4.097  11.358   2.526
36467SOL     OW11239  10.748   8.721   9.733
36467SOL    HW111240  10.815   8.696   9.670
36467SOL    HW211241  10.779   8.685   9.816
36468SOL     OW11242  13.942   3.240   8.837
36468SOL    HW111243  14.013   3.290   8.879
36468SOL    HW211244  13.896   3.198   8.910
36469SOL     OW11245   1.814  11.430   4.800
36469SOL    HW111246   1.807  11.348   4.750
36469SOL    HW211247   1.727  11.469   4.794
36470SOL     OW11248   0.027   3.680  12.579
36470SOL    HW111249   0.105   3.694  12.634
36470SOL    HW211250  14.833   3.692  12.639
36471SOL     OW11251  10.447  10.121   0.107
36471SOL    HW111252  10.355  10.102   0.085
36471SOL    HW211253  10.445  10.211   0.139
36472SOL     OW11254   7.220   0.554   0.994
36472SOL    HW111255   7.244   0.477   0.943
36472SOL    HW211256   7.286   0.558   1.063
36473SOL     OW11257   0.281  10.100   5.871
36473SOL    HW111258   0.294  10.005   5.876
36473SOL    HW211259   0.298  10.131   5.960
36474SOL     OW11260  14.332   6.531   6.687
36474SOL    HW111261  14.247   6.521   6.643
36474SOL    HW211262  14.360   6.619   6.665
36475SOL     OW11263   2.033   6.857   5.945
36475SOL    HW111264   2.074   6.928   5.995
36475SOL    HW211265   2.040   6.886   5.854
36476SOL     OW11266   6.332   3.420   2.858
36476SOL    HW111267   6.405   3.361   2.876
36476SOL    HW211268   6.367   3.485   2.798
36477SOL     OW11269  14.204   7.715   4.935
36477SOL    HW111270  14.264   7.643   4.956
36477SOL    HW211271  14.218   7.778   5.006
36478SOL     OW11272  11.120  14.369   7.816
36478SOL    HW111273  11.025  14.356   7.816
36478SOL    HW211274  11.156  14.280   7.819
36479SOL     OW11275   0.181   4.986   3.083
36479SOL    HW111276   0.252   5.051   3.090
36479SOL    HW211277   0.174   4.950   3.171
36480SOL     OW11278   4.202   0.071   7.569
36480SOL    HW111279   4.138   0.142   7.571
36480SOL    HW211280   4.232   0.068   7.478
36481SOL     OW11281   9.589  14.601   6.701
36481SOL    HW111282   9.603  14.554   6.619
36481SOL    HW211283   9.635  14.549   6.767
36482SOL     OW11284   2.437   6.678   2.708
36482SOL    HW111285   2.441   6.744   2.639
36482SOL    HW211286   2.380   6.716   2.774
36483SOL     OW11287   4.530   3.827  10.249
36483SOL    HW111288   4.507   3.912  10.285
36483SOL    HW211289   4.551   3.845  10.157
36484SOL     OW11290  14.014   5.488   1.963
36484SOL    HW111291  14.042   5.467   2.052
36484SOL    HW211292  13.954   5.562   1.973
36485SOL     OW11293   8.255  11.143   5.707
36485SOL    HW111294   8.174  11.155   5.756
36485SOL    HW211295   8.233  11.169   5.618
36486SOL     OW11296   3.378   8.140   5.825
36486SOL    HW111297   3.353   8.153   5.734
36486SOL    HW211298   3.364   8.047   5.841
36487SOL     OW11299   0.086   9.591   7.647
36487SOL    HW111300  14.879   9.611   7.682
36487SOL    HW211301   0.131   9.546   7.719
36488SOL     OW11302   6.020  11.862  13.211
36488SOL    HW111303   6.018  11.846  13.306
36488SOL    HW211304   5.948  11.809  13.176
36489SOL     OW11305   5.186   1.738   8.258
36489SOL    HW111306   5.179   1.801   8.329
36489SOL    HW211307   5.209   1.656   8.301
36490SOL     OW11308   7.151  10.543  12.630
36490SOL    HW111309   7.075  10.536  12.688
36490SOL    HW211310   7.185  10.631  12.646
36491SOL     OW11311  12.737  10.970   0.773
36491SOL    HW111312  12.764  11.054   0.736
36491SOL    HW211313  12.810  10.944   0.829
36492SOL     OW11314  13.848   5.009  13.486
36492SOL    HW111315  13.907   5.021  13.413
36492SOL    HW211316  13.903   5.015  13.564
36493SOL     OW11317   3.008  13.428   8.033
36493SOL    HW111318   3.069  13.358   8.010
36493SOL    HW211319   2.938  13.385   8.082
36494SOL     OW11320  12.811   0.118  10.510
36494SOL    HW111321  12.846   0.195  10.465
36494SOL    HW211322  12.820   0.138  10.603
36495SOL     OW11323   5.450  10.587   8.121
36495SOL    HW111324   5.519  10.652   8.104
36495SOL    HW211325   5.408  10.617   8.202
36496SOL     OW11326   7.384  12.775   4.916
36496SOL    HW111327   7.447  12.803   4.983
36496SOL    HW211328   7.386  12.845   4.851
36497SOL     OW11329   9.717   7.922   6.963
36497SOL    HW111330   9.726   7.991   6.898
36497SOL    HW211331   9.644   7.869   6.931
36498SOL     OW11332  13.014   2.139   6.768
36498SOL    HW111333  13.031   2.054   6.809
36498SOL    HW211334  12.942   2.176   6.819
36499SOL     OW11335   9.925   7.379  14.205
36499SOL    HW111336   9.996   7.440  14.185
36499SOL    HW211337   9.963   7.316  14.266
36500SOL     OW11338  13.649  10.008  13.588
36500SOL    HW111339  13.614   9.978  13.504
36500SOL    HW211340  13.744  10.003  13.577
36501SOL     OW11341   4.888  12.790  12.217
36501SOL    HW111342   4.851  12.851  12.153
36501SOL    HW211343   4.860  12.704  12.186
36502SOL     OW11344   3.432   7.517   0.067
36502SOL    HW111345   3.486   7.441   0.047
36502SOL    HW211346   3.442   7.575  14.871
36503SOL     OW11347   5.864  12.207  10.296
36503SOL    HW111348   5.872  12.128  10.349
36503SOL    HW211349   5.771  12.231  10.303
36504SOL     OW11350   0.789   6.341  13.754
36504SOL    HW111351   0.853   6.279  13.790
36504SOL    HW211352   0.767   6.305  13.668
36505SOL     OW11353   2.484  10.383   8.633
36505SOL    HW111354   2.434  10.459   8.605
36505SOL    HW211355   2.424  10.309   8.621
36506SOL     OW11356   5.975  12.169   3.328
36506SOL    HW111357   5.943  12.219   3.403
36506SOL    HW211358   5.963  12.227   3.254
36507SOL     OW11359  12.371   2.791   2.646
36507SOL    HW111360  12.277   2.801   2.631
36507SOL    HW211361  12.410   2.871   2.610
36508SOL     OW11362   1.854   8.198  14.104
36508SOL    HW111363   1.798   8.139  14.055
36508SOL    HW211364   1.876   8.268  14.043
36509SOL     OW11365  12.441   6.270   8.258
36509SOL    HW111366  12.426   6.256   8.351
36509SOL    HW211367  12.525   6.315   8.254
36510SOL     OW11368   5.796   5.487  13.976
36510SOL    HW111369   5.802   5.578  14.005
36510SOL    HW211370   5.716   5.484  13.923
36511SOL     OW11371   5.594   7.973   0.441
36511SOL    HW111372   5.535   7.900   0.460
36511SOL    HW211373   5.658   7.972   0.512
36512SOL     OW11374   9.726   4.683   8.385
36512SOL    HW111375   9.690   4.647   8.466
36512SOL    HW211376   9.808   4.724   8.412
36513SOL     OW11377   9.410   5.762  11.585
36513SOL    HW111378   9.314   5.756  11.590
36513SOL    HW211379   9.440   5.675  11.608
36514SOL     OW11380  10.113   7.908   9.477
36514SOL    HW111381  10.125   7.950   9.562
36514SOL    HW211382  10.027   7.866   9.482
36515SOL     OW11383   6.832  14.215  11.790
36515SOL    HW111384   6.777  14.283  11.752
36515SOL    HW211385   6.906  14.262  11.827
36516SOL     OW11386  12.049   9.596  11.245
36516SOL    HW111387  12.122   9.603  11.183
36516SOL    HW211388  11.972   9.625  11.195
36517SOL     OW11389   0.387   7.776  13.082
36517SOL    HW111390   0.373   7.747  13.172
36517SOL    HW211391   0.359   7.702  13.028
36518SOL     OW11392   2.007  14.299  13.684
36518SOL    HW111393   2.023  14.248  13.764
36518SOL    HW211394   1.915  14.283  13.663
36519SOL     OW11395   1.028   7.667   5.846
36519SOL    HW111396   1.022   7.636   5.937
36519SOL    HW211397   1.108   7.720   5.844
36520SOL     OW11398   8.786   0.758   0.036
36520SOL    HW111399   8.729   0.718  14.850
36520SOL    HW211400   8.863   0.786  14.867
36521SOL     OW11401   7.334   4.911   8.630
36521SOL    HW111402   7.239   4.900   8.624
36521SOL    HW211403   7.369   4.823   8.622
36522SOL     OW11404   2.258   4.010   0.324
36522SOL    HW111405   2.353   4.002   0.316
36522SOL    HW211406   2.234   4.076   0.259
36523SOL     OW11407   2.867  11.376   1.910
36523SOL    HW111408   2.776  11.373   1.938
36523SOL    HW211409   2.893  11.284   1.904
36524SOL     OW11410  12.948   3.070   3.784
36524SOL    HW111411  12.910   3.122   3.855
36524SOL    HW211412  12.989   3.134   3.726
36525SOL     OW11413  12.580  13.334   8.841
36525SOL    HW111414  12.553  13.342   8.932
36525SOL    HW211415  12.664  13.287   8.844
36526SOL     OW11416  14.009  10.602   2.861
36526SOL    HW111417  13.987  10.613   2.953
36526SOL    HW211418  13.999  10.508   2.846
36527SOL     OW11419  14.758   9.014   8.807
36527SOL    HW111420  14.839   9.023   8.858
36527SOL    HW211421  14.738   8.920   8.810
36528SOL     OW11422  11.233  10.662   6.621
36528SOL    HW111423  11.326  10.644   6.633
36528SOL    HW211424  11.190  10.620   6.695
36529SOL     OW11425   4.873  11.175   9.591
36529SOL    HW111426   4.822  11.094   9.593
36529SOL    HW211427   4.907  11.184   9.680
36530SOL     OW11428   9.626  12.058   7.820
36530SOL    HW111429   9.638  12.012   7.903
36530SOL    HW211430   9.532  12.072   7.813
36531SOL     OW11431   8.855   4.834  13.392
36531SOL    HW111432   8.816   4.914  13.357
36531SOL    HW211433   8.853   4.772  13.319
36532SOL     OW11434   3.029   5.441   1.338
36532SOL    HW111435   3.033   5.483   1.424
36532SOL    HW211436   2.981   5.359   1.353
36533SOL     OW11437  13.802  14.109   9.755
36533SOL    HW111438  13.734  14.155   9.805
36533SOL    HW211439  13.847  14.179   9.708
36534SOL     OW11440   8.925   4.515   6.878
36534SOL    HW111441   9.020   4.528   6.874
36534SOL    HW211442   8.894   4.535   6.790
36535SOL     OW11443   1.349  10.227  13.837
36535SOL    HW111444   1.390  10.246  13.753
36535SOL    HW211445   1.387  10.290  13.898
36536SOL     OW11446   3.589   5.922  14.240
36536SOL    HW111447   3.535   5.976  14.183
36536SOL    HW211448   3.527   5.882  14.301
36537SOL     OW11449  12.104   7.265   8.963
36537SOL    HW111450  12.024   7.229   9.000
36537SOL    HW211451  12.170   7.251   9.032
36538SOL     OW11452   4.062  12.545  10.432
36538SOL    HW111453   3.980  12.594  10.437
36538SOL    HW211454   4.052  12.488  10.356
36539SOL     OW11455   7.059   3.230   3.332
36539SOL    HW111456   7.039   3.239   3.238
36539SOL    HW211457   7.113   3.151   3.337
36540SOL     OW11458   1.767  11.534  12.853
36540SOL    HW111459   1.755  11.447  12.892
36540SOL    HW211460   1.826  11.579  12.913
36541SOL     OW11461   2.959   4.172  12.584
36541SOL    HW111462   2.936   4.154  12.493
36541SOL    HW211463   2.876   4.193  12.627
36542SOL     OW11464   3.149   6.508  10.893
36542SOL    HW111465   3.181   6.523  10.982
36542SOL    HW211466   3.215   6.548  10.837
36543SOL     OW11467   1.522  11.061  13.445
36543SOL    HW111468   1.570  11.139  13.419
36543SOL    HW211469   1.580  10.988  13.420
36544SOL     OW11470  12.050   5.237   8.802
36544SOL    HW111471  12.042   5.295   8.878
36544SOL    HW211472  11.986   5.270   8.740
36545SOL     OW11473   1.460   9.694   8.679
36545SOL    HW111474   1.440   9.774   8.629
36545SOL    HW211475   1.533   9.719   8.735
36546SOL     OW11476   3.224  11.016   1.454
36546SOL    HW111477   3.293  11.059   1.404
36546SOL    HW211478   3.254  11.020   1.545
36547SOL     OW11479   9.935  14.654  10.943
36547SOL    HW111480   9.878  14.730  10.932
36547SOL    HW211481   9.947  14.646  11.037
36548SOL     OW11482   7.760   9.025   2.259
36548SOL    HW111483   7.702   8.950   2.262
36548SOL    HW211484   7.705   9.097   2.227
36549SOL     OW11485   2.476  11.253   9.968
36549SOL    HW111486   2.568  11.271   9.986
36549SOL    HW211487   2.459  11.296   9.884
36550SOL     OW11488   6.446   5.803   6.882
36550SOL    HW111489   6.438   5.708   6.893
36550SOL    HW211490   6.367   5.839   6.924
36551SOL     OW11491   1.614   0.431   3.245
36551SOL    HW111492   1.544   0.445   3.182
36551SOL    HW211493   1.608   0.338   3.267
36552SOL     OW11494   3.755  13.257  14.319
36552SOL    HW111495   3.780  13.218  14.403
36552SOL    HW211496   3.781  13.349  14.327
36553SOL     OW11497   8.281   2.775   3.357
36553SOL    HW111498   8.278   2.680   3.342
36553SOL    HW211499   8.360   2.789   3.409
36554SOL     OW11500   6.052   6.872   7.223
36554SOL    HW111501   5.960   6.898   7.227
36554SOL    HW211502   6.056   6.788   7.268
36555SOL     OW11503   4.187   1.963   7.973
36555SOL    HW111504   4.192   1.946   7.879
36555SOL    HW211505   4.093   1.957   7.993
36556SOL     OW11506  14.789  10.342  10.804
36556SOL    HW111507  14.718  10.279  10.793
36556SOL    HW211508  14.818  10.330  10.895
36557SOL     OW11509   1.512   0.539  14.639
36557SOL    HW111510   1.521   0.488  14.719
36557SOL    HW211511   1.602   0.557  14.611
36558SOL     OW11512  11.940   2.407   6.831
36558SOL    HW111513  12.018   2.408   6.775
36558SOL    HW211514  11.866   2.401   6.770
36559SOL     OW11515   5.881   7.864   8.177
36559SOL    HW111516   5.905   7.897   8.090
36559SOL    HW211517   5.953   7.890   8.234
36560SOL     OW11518  10.285  12.782  11.491
36560SOL    HW111519  10.297  12.801  11.584
36560SOL    HW211520  10.343  12.708  11.473
36561SOL     OW11521   3.990  11.090   8.618
36561SOL    HW111522   4.001  11.182   8.639
36561SOL    HW211523   4.023  11.081   8.529
36562SOL     OW11524  10.264  10.661  10.876
36562SOL    HW111525  10.302  10.663  10.788
36562SOL    HW211526  10.223  10.575  10.882
36563SOL     OW11527  12.551   4.781   6.961
36563SOL    HW111528  12.595   4.717   6.904
36563SOL    HW211529  12.616   4.802   7.028
36564SOL     OW11530   9.857  10.061   2.735
36564SOL    HW111531   9.789  10.002   2.703
36564SOL    HW211532   9.849  10.139   2.680
36565SOL     OW11533   6.445   8.952   1.058
36565SOL    HW111534   6.536   8.924   1.047
36565SOL    HW211535   6.415   8.908   1.138
36566SOL     OW11536  10.287  13.298   0.976
36566SOL    HW111537  10.324  13.372   0.929
36566SOL    HW211538  10.224  13.336   1.037
36567SOL     OW11539  11.465  13.252   2.417
36567SOL    HW111540  11.478  13.195   2.342
36567SOL    HW211541  11.548  13.248   2.465
36568SOL     OW11542   9.229   7.572   6.528
36568SOL    HW111543   9.230   7.647   6.469
36568SOL    HW211544   9.317   7.535   6.522
36569SOL     OW11545   5.070   3.331   6.811
36569SOL    HW111546   4.988   3.311   6.767
36569SOL    HW211547   5.136   3.328   6.742
36570SOL     OW11548  10.815  13.137   7.862
36570SOL    HW111549  10.758  13.073   7.904
36570SOL    HW211550  10.755  13.200   7.821
36571SOL     OW11551   6.382  12.578  14.303
36571SOL    HW111552   6.417  12.511  14.362
36571SOL    HW211553   6.413  12.661  14.340
36572SOL     OW11554  10.043  10.564   8.053
36572SOL    HW111555   9.979  10.612   7.999
36572SOL    HW211556  10.059  10.483   8.005
36573SOL     OW11557   4.670   8.029   2.288
36573SOL    HW111558   4.614   7.959   2.321
36573SOL    HW211559   4.637   8.108   2.330
36574SOL     OW11560   3.843   5.542  14.862
36574SOL    HW111561   3.748   5.552  14.875
36574SOL    HW211562   3.874   5.631  14.843
36575SOL     OW11563  10.358   2.028  10.981
36575SOL    HW111564  10.361   2.104  10.923
36575SOL    HW211565  10.284   2.045  11.039
36576SOL     OW11566   3.990   4.037  12.871
36576SOL    HW111567   3.985   4.064  12.963
36576SOL    HW211568   4.074   3.991  12.865
36577SOL     OW11569   8.858  13.779   4.634
36577SOL    HW111570   8.870  13.731   4.716
36577SOL    HW211571   8.939  13.764   4.586
36578SOL     OW11572   4.430  13.079  11.730
36578SOL    HW111573   4.483  13.067  11.808
36578SOL    HW211574   4.451  13.005  11.674
36579SOL     OW11575  12.962  10.370   4.304
36579SOL    HW111576  12.905  10.327   4.240
36579SOL    HW211577  12.914  10.448   4.331
36580SOL     OW11578   5.832   2.109   5.466
36580SOL    HW111579   5.829   2.032   5.409
36580SOL    HW211580   5.840   2.183   5.405
36581SOL     OW11581   2.228  13.794  14.213
36581SOL    HW111582   2.153  13.762  14.164
36581SOL    HW211583   2.236  13.886  14.189
36582SOL     OW11584  11.729  10.093  10.931
36582SOL    HW111585  11.796  10.160  10.948
36582SOL    HW211586  11.654  10.141  10.898
36583SOL     OW11587  13.316   4.640  10.105
36583SOL    HW111588  13.395   4.665  10.153
36583SOL    HW211589  13.341   4.560  10.058
36584SOL     OW11590  12.419   7.659  12.782
36584SOL    HW111591  12.434   7.594  12.850
36584SOL    HW211592  12.502   7.666  12.735
36585SOL     OW11593   9.873  10.814   0.237
36585SOL    HW111594   9.916  10.873   0.175
36585SOL    HW211595   9.943  10.758   0.270
36586SOL     OW11596  10.262   7.353  11.600
36586SOL    HW111597  10.310   7.408  11.661
36586SOL    HW211598  10.175   7.343  11.639
36587SOL     OW11599   5.480  14.622   1.987
36587SOL    HW111600   5.564  14.604   2.029
36587SOL    HW211601   5.462  14.714   2.008
36588SOL     OW11602  12.699  11.759   9.184
36588SOL    HW111603  12.673  11.668   9.202
36588SOL    HW211604  12.681  11.770   9.090
36589SOL     OW11605   4.602  14.813  14.437
36589SOL    HW111606   4.558  14.783  14.357
36589SOL    HW211607   4.541  14.875  14.476
36590SOL     OW11608   5.521   4.600   5.979
36590SOL    HW111609   5.600   4.558   5.947
36590SOL    HW211610   5.460   4.596   5.906
36591SOL     OW11611   3.010  10.434   5.394
36591SOL    HW111612   3.041  10.499   5.458
36591SOL    HW211613   3.084  10.376   5.380
36592SOL     OW11614  12.248   9.982   5.813
36592SOL    HW111615  12.152   9.980   5.811
36592SOL    HW211616  12.271   9.964   5.904
36593SOL     OW11617   1.000  14.061  13.206
36593SOL    HW111618   1.018  14.011  13.286
36593SOL    HW211619   1.005  13.996  13.136
36594SOL     OW11620   5.466   0.952   5.512
36594SOL    HW111621   5.511   0.907   5.440
36594SOL    HW211622   5.398   0.891   5.540
36595SOL     OW11623   4.176   1.321  10.914
36595SOL    HW111624   4.168   1.377  10.991
36595SOL    HW211625   4.113   1.251  10.929
36596SOL     OW11626  10.172  12.856   4.219
36596SOL    HW111627  10.248  12.883   4.270
36596SOL    HW211628  10.194  12.881   4.129
36597SOL     OW11629   5.805   6.708   9.691
36597SOL    HW111630   5.885   6.711   9.640
36597SOL    HW211631   5.735   6.725   9.628
36598SOL     OW11632   3.515  14.251   3.080
36598SOL    HW111633   3.478  14.170   3.116
36598SOL    HW211634   3.515  14.237   2.985
36599SOL     OW11635   1.723   6.398  11.489
36599SOL    HW111636   1.756   6.408  11.400
36599SOL    HW211637   1.714   6.488  11.521
36600SOL     OW11638  10.687   8.644   8.877
36600SOL    HW111639  10.707   8.567   8.824
36600SOL    HW211640  10.735   8.716   8.834
36601SOL     OW11641   5.754   6.516  13.408
36601SOL    HW111642   5.706   6.548  13.484
36601SOL    HW211643   5.811   6.588  13.383
36602SOL     OW11644   9.545   5.969   9.246
36602SOL    HW111645   9.515   5.925   9.167
36602SOL    HW211646   9.605   5.906   9.286
36603SOL     OW11647   0.053  12.209   6.759
36603SOL    HW111648   0.130  12.152   6.769
36603SOL    HW211649   0.052  12.230   6.665
36604SOL     OW11650  12.964   6.824   1.094
36604SOL    HW111651  12.900   6.887   1.127
36604SOL    HW211652  13.041   6.877   1.071
36605SOL     OW11653   5.325   8.388  11.383
36605SOL    HW111654   5.369   8.303  11.390
36605SOL    HW211655   5.271   8.393  11.462
36606SOL     OW11656  12.108   2.110  11.319
36606SOL    HW111657  12.148   2.132  11.403
36606SOL    HW211658  12.163   2.154  11.254
36607SOL     OW11659   1.784  10.277   9.817
36607SOL    HW111660   1.754  10.282   9.907
36607SOL    HW211661   1.875  10.247   9.824
36608SOL     OW11662  14.248   5.586   8.778
36608SOL    HW111663  14.248   5.537   8.696
36608SOL    HW211664  14.183   5.540   8.832
36609SOL     OW11665   8.940  10.405   5.157
36609SOL    HW111666   8.882  10.350   5.210
36609SOL    HW211667   8.975  10.345   5.090
36610SOL     OW11668  12.808  13.266  14.238
36610SOL    HW111669  12.779  13.225  14.157
36610SOL    HW211670  12.741  13.331  14.259
36611SOL     OW11671   2.121   2.889   7.569
36611SOL    HW111672   2.140   2.918   7.658
36611SOL    HW211673   2.118   2.793   7.575
36612SOL     OW11674  10.711   6.802   6.763
36612SOL    HW111675  10.647   6.732   6.751
36612SOL    HW211676  10.702   6.856   6.684
36613SOL     OW11677   9.730  14.157  11.848
36613SOL    HW111678   9.695  14.244  11.826
36613SOL    HW211679   9.822  14.172  11.868
36614SOL     OW11680   3.489   0.495   0.063
36614SOL    HW111681   3.512   0.402   0.070
36614SOL    HW211682   3.430   0.511   0.136
36615SOL     OW11683   9.237  12.776  14.767
36615SOL    HW111684   9.307  12.822  14.720
36615SOL    HW211685   9.161  12.834  14.760
36616SOL     OW11686  12.632   2.654  13.869
36616SOL    HW111687  12.629   2.743  13.834
36616SOL    HW211688  12.687   2.661  13.947
36617SOL     OW11689  14.628  11.567   5.120
36617SOL    HW111690  14.648  11.585   5.212
36617SOL    HW211691  14.712  11.547   5.080
36618SOL     OW11692   9.392   3.218  13.725
36618SOL    HW111693   9.463   3.209  13.662
36618SOL    HW211694   9.397   3.309  13.753
36619SOL     OW11695   0.031   7.530  14.689
36619SOL    HW111696   0.123   7.541  14.715
36619SOL    HW211697  14.864   7.600  14.735
36620SOL     OW11698  10.156   8.784  10.478
36620SOL    HW111699  10.223   8.752  10.537
36620SOL    HW211700  10.083   8.808  10.535
36621SOL     OW11701  12.260   7.003   5.063
36621SOL    HW111702  12.351   7.031   5.071
36621SOL    HW211703  12.238   6.967   5.149
36622SOL     OW11704  12.999   5.759  11.828
36622SOL    HW111705  13.037   5.830  11.776
36622SOL    HW211706  13.073   5.706  11.855
36623SOL     OW11707   0.504   9.571   8.004
36623SOL    HW111708   0.547   9.562   8.089
36623SOL    HW211709   0.419   9.609   8.025
36624SOL     OW11710   3.883   9.089   1.277
36624SOL    HW111711   3.923   9.059   1.359
36624SOL    HW211712   3.956   9.121   1.225
36625SOL     OW11713  10.115  10.192  13.848
36625SOL    HW111714  10.024  10.223  13.842
36625SOL    HW211715  10.152  10.209  13.762
36626SOL     OW11716   0.909   1.482   5.967
36626SOL    HW111717   0.938   1.396   5.938
36626SOL    HW211718   0.887   1.471   6.059
36627SOL     OW11719  10.512  10.189   9.718
36627SOL    HW111720  10.558  10.233   9.647
36627SOL    HW211721  10.480  10.107   9.679
36628SOL     OW11722  11.030   3.940   9.531
36628SOL    HW111723  10.996   3.984   9.454
36628SOL    HW211724  10.997   3.992   9.605
36629SOL     OW11725   4.240  12.627   3.431
36629SOL    HW111726   4.182  12.566   3.385
36629SOL    HW211727   4.202  12.713   3.412
36630SOL     OW11728   7.925   5.169   9.167
36630SOL    HW111729   7.966   5.105   9.225
36630SOL    HW211730   7.944   5.137   9.079
36631SOL     OW11731  11.605   7.156   7.616
36631SOL    HW111732  11.579   7.066   7.595
36631SOL    HW211733  11.556   7.210   7.555
36632SOL     OW11734  14.623   9.244   2.606
36632SOL    HW111735  14.531   9.235   2.582
36632SOL    HW211736  14.671   9.191   2.542
36633SOL     OW11737   7.943   2.605   4.608
36633SOL    HW111738   8.012   2.627   4.545
36633SOL    HW211739   7.886   2.682   4.608
36634SOL     OW11740  11.777   5.209   3.307
36634SOL    HW111741  11.873   5.216   3.301
36634SOL    HW211742  11.752   5.166   3.225
36635SOL     OW11743   4.730  12.639   3.739
36635SOL    HW111744   4.808  12.619   3.790
36635SOL    HW211745   4.763  12.681   3.660
36636SOL     OW11746   3.059   1.741   7.992
36636SOL    HW111747   2.976   1.783   7.971
36636SOL    HW211748   3.122   1.783   7.933
36637SOL     OW11749   1.587   3.702  10.208
36637SOL    HW111750   1.560   3.616  10.175
36637SOL    HW211751   1.666   3.722  10.157
36638SOL     OW11752   6.556   4.115   9.373
36638SOL    HW111753   6.482   4.156   9.415
36638SOL    HW211754   6.522   4.083   9.289
36639SOL     OW11755  14.024  13.784   0.251
36639SOL    HW111756  14.025  13.768   0.346
36639SOL    HW211757  13.955  13.728   0.218
36640SOL     OW11758   9.065  13.786   1.812
36640SOL    HW111759   9.053  13.866   1.761
36640SOL    HW211760   9.002  13.724   1.775
36641SOL     OW11761   5.220   2.637  10.145
36641SOL    HW111762   5.268   2.563  10.182
36641SOL    HW211763   5.281   2.677  10.084
36642SOL     OW11764   2.626   4.669   4.803
36642SOL    HW111765   2.619   4.697   4.711
36642SOL    HW211766   2.597   4.744   4.854
36643SOL     OW11767  12.691  11.679  13.580
36643SOL    HW111768  12.710  11.592  13.545
36643SOL    HW211769  12.722  11.739  13.513
36644SOL     OW11770   8.395  10.432   5.926
36644SOL    HW111771   8.452  10.364   5.961
36644SOL    HW211772   8.360  10.477   6.003
36645SOL     OW11773  12.665   5.933  13.172
36645SOL    HW111774  12.718   5.868  13.219
36645SOL    HW211775  12.575   5.914  13.198
36646SOL     OW11776  14.782  11.094   0.165
36646SOL    HW111777  14.814  11.180   0.192
36646SOL    HW211778  14.700  11.112   0.119
36647SOL     OW11779   3.125   0.516   6.820
36647SOL    HW111780   3.156   0.435   6.861
36647SOL    HW211781   3.184   0.530   6.746
36648SOL     OW11782   1.505   1.621   9.617
36648SOL    HW111783   1.449   1.551   9.582
36648SOL    HW211784   1.499   1.691   9.552
36649SOL     OW11785   7.687  14.754  11.482
36649SOL    HW111786   7.770  14.790  11.451
36649SOL    HW211787   7.711  14.699  11.556
36650SOL     OW11788   0.637   5.853   1.587
36650SOL    HW111789   0.628   5.763   1.557
36650SOL    HW211790   0.726   5.859   1.620
36651SOL     OW11791  11.401   7.320  13.445
36651SOL    HW111792  11.329   7.285  13.497
36651SOL    HW211793  11.456   7.243  13.425
36652SOL     OW11794  13.884   7.889  14.622
36652SOL    HW111795  13.818   7.922  14.683
36652SOL    HW211796  13.952   7.956  14.620
36653SOL     OW11797   3.169  13.014  13.948
36653SOL    HW111798   3.194  13.094  13.995
36653SOL    HW211799   3.193  12.943  14.008
36654SOL     OW11800   6.430   4.201   6.778
36654SOL    HW111801   6.407   4.202   6.685
36654SOL    HW211802   6.375   4.270   6.816
36655SOL     OW11803   9.055   1.823   7.881
36655SOL    HW111804   9.042   1.796   7.973
36655SOL    HW211805   8.977   1.875   7.861
36656SOL     OW11806  13.526   9.127  14.068
36656SOL    HW111807  13.470   9.096  13.997
36656SOL    HW211808  13.482   9.206  14.101
36657SOL     OW11809   6.129   3.354  10.414
36657SOL    HW111810   6.066   3.282  10.406
36657SOL    HW211811   6.107   3.413  10.342
36658SOL     OW11812   5.416   1.016   9.018
36658SOL    HW111813   5.421   1.089   8.956
36658SOL    HW211814   5.367   1.051   9.092
36659SOL     OW11815   4.835   8.250   2.864
36659SOL    HW111816   4.771   8.202   2.918
36659SOL    HW211817   4.787   8.328   2.835
36660SOL     OW11818   5.939   4.717  13.865
36660SOL    HW111819   5.913   4.745  13.777
36660SOL    HW211820   5.858   4.685  13.905
36661SOL     OW11821   8.642  14.559   5.593
36661SOL    HW111822   8.603  14.594   5.513
36661SOL    HW211823   8.653  14.465   5.576
36662SOL     OW11824   6.693  11.918   8.066
36662SOL    HW111825   6.630  11.888   8.000
36662SOL    HW211826   6.709  11.841   8.121
36663SOL     OW11827   6.999   5.227   7.403
36663SOL    HW111828   7.017   5.179   7.323
36663SOL    HW211829   6.965   5.312   7.373
36664SOL     OW11830   5.277   1.948  10.465
36664SOL    HW111831   5.190   1.906  10.465
36664SOL    HW211832   5.330   1.893  10.407
36665SOL     OW11833   4.985   4.164  14.770
36665SOL    HW111834   5.073   4.202  14.774
36665SOL    HW211835   4.931   4.233  14.732
36666SOL     OW11836   8.431   1.891   5.431
36666SOL    HW111837   8.496   1.929   5.489
36666SOL    HW211838   8.474   1.887   5.345
36667SOL     OW11839   2.608   4.021   2.359
36667SOL    HW111840   2.624   4.076   2.436
36667SOL    HW211841   2.639   4.073   2.285
36668SOL     OW11842   7.594  14.209   1.346
36668SOL    HW111843   7.514  14.157   1.345
36668SOL    HW211844   7.573  14.285   1.291
36669SOL     OW11845   0.501   4.242   2.276
36669SOL    HW111846   0.451   4.165   2.300
36669SOL    HW211847   0.435   4.307   2.250
36670SOL     OW11848   0.928   1.503   5.389
36670SOL    HW111849   0.951   1.577   5.445
36670SOL    HW211850   0.991   1.435   5.413
36671SOL     OW11851  13.667   1.204  11.184
36671SOL    HW111852  13.600   1.196  11.252
36671SOL    HW211853  13.706   1.116  11.178
36672SOL     OW11854  12.462   4.201   7.449
36672SOL    HW111855  12.456   4.108   7.473
36672SOL    HW211856  12.376   4.223   7.415
36673SOL     OW11857  11.272  11.008   1.013
36673SOL    HW111858  11.364  10.985   1.001
36673SOL    HW211859  11.254  11.073   0.945
36674SOL     OW11860  11.333  11.394   2.651
36674SOL    HW111861  11.242  11.422   2.660
36674SOL    HW211862  11.358  11.421   2.563
36675SOL     OW11863  10.326  12.502   2.907
36675SOL    HW111864  10.242  12.548   2.908
36675SOL    HW211865  10.358  12.509   2.997
36676SOL     OW11866  14.396   1.915   7.292
36676SOL    HW111867  14.477   1.876   7.327
36676SOL    HW211868  14.427   1.976   7.225
36677SOL     OW11869   4.799  13.911   7.264
36677SOL    HW111870   4.723  13.966   7.241
36677SOL    HW211871   4.778  13.876   7.350
36678SOL     OW11872   5.492   6.080   5.527
36678SOL    HW111873   5.523   6.169   5.542
36678SOL    HW211874   5.472   6.046   5.614
36679SOL     OW11875   8.259  13.801   8.499
36679SOL    HW111876   8.242  13.742   8.427
36679SOL    HW211877   8.177  13.803   8.549
36680SOL     OW11878  12.542   8.887  10.195
36680SOL    HW111879  12.500   8.808  10.229
36680SOL    HW211880  12.523   8.954  10.261
36681SOL     OW11881   4.296   9.481   0.882
36681SOL    HW111882   4.215   9.527   0.859
36681SOL    HW211883   4.358   9.506   0.813
36682SOL     OW11884   2.327   8.892   1.143
36682SOL    HW111885   2.303   8.864   1.232
36682SOL    HW211886   2.261   8.852   1.087
36683SOL     OW11887  14.683   1.578   2.118
36683SOL    HW111888  14.735   1.620   2.049
36683SOL    HW211889  14.743   1.574   2.193
36684SOL     OW11890   9.193   4.413   8.370
36684SOL    HW111891   9.233   4.359   8.439
36684SOL    HW211892   9.100   4.412   8.390
36685SOL     OW11893  12.569   0.233   3.793
36685SOL    HW111894  12.524   0.205   3.713
36685SOL    HW211895  12.536   0.321   3.810
36686SOL     OW11896   2.681   6.311  14.703
36686SOL    HW111897   2.763   6.359  14.714
36686SOL    HW211898   2.691   6.233  14.759
36687SOL     OW11899   8.337   1.174   7.872
36687SOL    HW111900   8.431   1.189   7.869
36687SOL    HW211901   8.298   1.261   7.883
36688SOL     OW11902   2.781   1.664   3.365
36688SOL    HW111903   2.783   1.758   3.380
36688SOL    HW211904   2.693   1.637   3.392
36689SOL     OW11905   4.991   5.959  13.514
36689SOL    HW111906   5.077   5.932  13.484
36689SOL    HW211907   4.934   5.947  13.438
36690SOL     OW11908   0.535   7.206  12.171
36690SOL    HW111909   0.455   7.154  12.182
36690SOL    HW211910   0.516   7.265  12.098
36691SOL     OW11911   5.988   6.350  10.254
36691SOL    HW111912   6.077   6.317  10.246
36691SOL    HW211913   5.954   6.349  10.165
36692SOL     OW11914  12.597   7.604   2.497
36692SOL    HW111915  12.662   7.574   2.560
36692SOL    HW211916  12.635   7.683   2.459
36693SOL     OW11917  10.015   1.284   9.418
36693SOL    HW111918  10.092   1.227   9.427
36693SOL    HW211919  10.052   1.372   9.408
36694SOL     OW11920  13.629  14.735  13.287
36694SOL    HW111921  13.647  14.785  13.207
36694SOL    HW211922  13.564  14.670  13.260
36695SOL     OW11923   2.205   1.133   4.037
36695SOL    HW111924   2.241   1.222   4.032
36695SOL    HW211925   2.281   1.077   4.052
36696SOL     OW11926  12.526   9.053   9.281
36696SOL    HW111927  12.500   8.973   9.235
36696SOL    HW211928  12.451   9.074   9.336
36697SOL     OW11929   6.344   7.409   3.988
36697SOL    HW111930   6.262   7.454   3.971
36697SOL    HW211931   6.386   7.403   3.902
36698SOL     OW11932   0.999   2.220   2.715
36698SOL    HW111933   1.027   2.190   2.802
36698SOL    HW211934   0.944   2.149   2.682
36699SOL     OW11935  13.268   8.543  14.096
36699SOL    HW111936  13.196   8.595  14.063
36699SOL    HW211937  13.308   8.598  14.164
36700SOL     OW11938  11.543  13.176   7.550
36700SOL    HW111939  11.547  13.080   7.547
36700SOL    HW211940  11.505  13.196   7.635
36701SOL     OW11941   5.829   7.075   3.329
36701SOL    HW111942   5.829   6.982   3.350
36701SOL    HW211943   5.772   7.115   3.395
36702SOL     OW11944   1.044  14.499  14.561
36702SOL    HW111945   1.026  14.530  14.649
36702SOL    HW211946   0.959  14.502  14.517
36703SOL     OW11947   2.401  11.006   6.796
36703SOL    HW111948   2.377  11.077   6.735
36703SOL    HW211949   2.325  10.998   6.854
36704SOL     OW11950   4.602  14.340   5.265
36704SOL    HW111951   4.540  14.394   5.314
36704SOL    HW211952   4.641  14.283   5.330
36705SOL     OW11953   2.512   1.987  10.008
36705SOL    HW111954   2.418   1.972  10.009
36705SOL    HW211955   2.526   2.056  10.073
36706SOL     OW11956   1.602   7.071  12.360
36706SOL    HW111957   1.587   6.994  12.306
36706SOL    HW211958   1.514   7.106  12.378
36707SOL     OW11959   0.612   1.780   3.845
36707SOL    HW111960   0.678   1.717   3.874
36707SOL    HW211961   0.530   1.731   3.846
36708SOL     OW11962   2.627  10.306   8.387
36708SOL    HW111963   2.678  10.343   8.315
36708SOL    HW211964   2.645  10.364   8.461
36709SOL     OW11965   3.028   1.077   3.651
36709SOL    HW111966   3.081   1.077   3.571
36709SOL    HW211967   2.979   1.159   3.647
36710SOL     OW11968   5.891   9.273   7.343
36710SOL    HW111969   5.931   9.202   7.392
36710SOL    HW211970   5.925   9.353   7.384
36711SOL     OW11971   2.428   8.141   2.178
36711SOL    HW111972   2.495   8.192   2.131
36711SOL    HW211973   2.429   8.177   2.266
36712SOL     OW11974   1.623   1.296   2.984
36712SOL    HW111975   1.686   1.367   2.999
36712SOL    HW211976   1.607   1.298   2.889
36713SOL     OW11977   3.527  13.732   9.688
36713SOL    HW111978   3.530  13.812   9.740
36713SOL    HW211979   3.588  13.673   9.731
36714SOL     OW11980   8.252   9.530   6.431
36714SOL    HW111981   8.280   9.561   6.517
36714SOL    HW211982   8.170   9.577   6.415
36715SOL     OW11983   5.052  10.325   4.902
36715SOL    HW111984   5.012  10.262   4.962
36715SOL    HW211985   5.003  10.315   4.821
36716SOL     OW11986  11.827  14.588   3.629
36716SOL    HW111987  11.899  14.530   3.605
36716SOL    HW211988  11.762  14.575   3.560
36717SOL     OW11989   6.095   5.613  14.133
36717SOL    HW111990   6.158   5.574  14.193
36717SOL    HW211991   6.012   5.610  14.181
36718SOL     OW11992   4.312   8.000  13.467
36718SOL    HW111993   4.300   8.090  13.436
36718SOL    HW211994   4.272   7.946  13.399
36719SOL     OW11995   4.377  13.277   6.990
36719SOL    HW111996   4.441  13.326   7.041
36719SOL    HW211997   4.412  13.188   6.986
36720SOL     OW11998   2.706   6.085  14.847
36720SOL    HW111999   2.677   6.004   0.011
36720SOL    HW212000   2.781   6.057  14.795
36721SOL     OW12001   1.259   6.840  14.477
36721SOL    HW112002   1.184   6.895  14.503
36721SOL    HW212003   1.264   6.851  14.382
36722SOL     OW12004   6.606   4.587   7.164
36722SOL    HW112005   6.513   4.607   7.151
36722SOL    HW212006   6.649   4.672   7.163
36723SOL     OW12007   9.766   7.340   7.143
36723SOL    HW112008   9.701   7.311   7.078
36723SOL    HW212009   9.838   7.375   7.091
36724SOL     OW12010   0.618   1.003   2.168
36724SOL    HW112011   0.587   0.982   2.256
36724SOL    HW212012   0.700   0.954   2.159
36725SOL     OW12013  12.956  11.112   7.765
36725SOL    HW112014  13.031  11.100   7.707
36725SOL    HW212015  12.883  11.072   7.718
36726SOL     OW12016   4.236   5.020   5.047
36726SOL    HW112017   4.226   5.098   5.101
36726SOL    HW212018   4.306   4.970   5.088
36727SOL     OW12019   6.944   7.254   0.564
36727SOL    HW112020   7.000   7.305   0.506
36727SOL    HW212021   6.855   7.268   0.530
36728SOL     OW12022   6.851   5.080   2.604
36728SOL    HW112023   6.946   5.084   2.606
36728SOL    HW212024   6.824   5.159   2.557
36729SOL     OW12025   1.550  14.291  13.936
36729SOL    HW112026   1.524  14.382  13.921
36729SOL    HW212027   1.520  14.244  13.858
36730SOL     OW12028   7.196   1.993   0.865
36730SOL    HW112029   7.179   2.072   0.915
36730SOL    HW212030   7.235   1.932   0.928
36731SOL     OW12031  13.702   8.504   9.288
36731SOL    HW112032  13.607   8.494   9.285
36731SOL    HW212033  13.731   8.476   9.201
36732SOL     OW12034  10.797  10.757   1.434
36732SOL    HW112035  10.761  10.845   1.443
36732SOL    HW212036  10.763  10.709   1.509
36733SOL     OW12037   5.608   9.211   8.975
36733SOL    HW112038   5.582   9.126   8.940
36733SOL    HW212039   5.528   9.263   8.977
36734SOL     OW12040   3.670   8.128  12.937
36734SOL    HW112041   3.690   8.088  13.022
36734SOL    HW212042   3.578   8.110  12.922
36735SOL     OW12043   6.062   9.007   6.916
36735SOL    HW112044   6.073   9.066   6.842
36735SOL    HW212045   6.030   8.925   6.877
36736SOL     OW12046   9.197   1.674  11.703
36736SOL    HW112047   9.147   1.593  11.705
36736SOL    HW212048   9.225   1.683  11.612
36737SOL     OW12049   5.079  12.104   1.261
36737SOL    HW112050   5.138  12.152   1.202
36737SOL    HW212051   5.083  12.152   1.344
36738SOL     OW12052  12.104   0.908   7.385
36738SOL    HW112053  12.156   0.927   7.464
36738SOL    HW212054  12.148   0.833   7.345
36739SOL     OW12055  14.109  14.381  12.092
36739SOL    HW112056  14.117  14.300  12.143
36739SOL    HW212057  14.078  14.352  12.006
36740SOL     OW12058   1.192   5.469   4.004
36740SOL    HW112059   1.241   5.431   3.932
36740SOL    HW212060   1.103   5.478   3.971
36741SOL     OW12061  14.547  12.290   4.950
36741SOL    HW112062  14.517  12.312   5.038
36741SOL    HW212063  14.473  12.314   4.894
36742SOL     OW12064  12.576   7.348   0.179
36742SOL    HW112065  12.580   7.374   0.087
36742SOL    HW212066  12.541   7.424   0.225
36743SOL     OW12067  11.765   8.866  14.316
36743SOL    HW112068  11.689   8.820  14.352
36743SOL    HW212069  11.840   8.815  14.346
36744SOL     OW12070   9.599   6.063  10.007
36744SOL    HW112071   9.667   5.996   9.995
36744SOL    HW212072   9.617   6.100  10.094
36745SOL     OW12073   0.417  14.544   8.995
36745SOL    HW112074   0.349  14.576   8.935
36745SOL    HW212075   0.480  14.616   8.999
36746SOL     OW12076   9.920  13.816   4.960
36746SOL    HW112077   9.985  13.881   4.935
36746SOL    HW212078   9.931  13.806   5.055
36747SOL     OW12079   3.996   0.092   8.987
36747SOL    HW112080   3.909   0.129   9.000
36747SOL    HW212081   4.013   0.103   8.893
36748SOL     OW12082   9.412   1.847  14.483
36748SOL    HW112083   9.414   1.779  14.550
36748SOL    HW212084   9.366   1.920  14.524
36749SOL     OW12085   8.788   9.667   3.098
36749SOL    HW112086   8.818   9.580   3.126
36749SOL    HW212087   8.866   9.707   3.059
36750SOL     OW12088  13.679   8.791   7.093
36750SOL    HW112089  13.739   8.732   7.048
36750SOL    HW212090  13.600   8.739   7.106
36751SOL     OW12091   6.875   2.298  11.826
36751SOL    HW112092   6.941   2.243  11.785
36751SOL    HW212093   6.922   2.377  11.853
36752SOL     OW12094  10.000  10.048  12.339
36752SOL    HW112095   9.934  10.060  12.407
36752SOL    HW212096   9.970   9.972  12.289
36753SOL     OW12097   8.718   1.832  11.905
36753SOL    HW112098   8.744   1.914  11.862
36753SOL    HW212099   8.726   1.851  11.998
36754SOL     OW12100  13.549  11.242  14.591
36754SOL    HW112101  13.455  11.257  14.581
36754SOL    HW212102  13.557  11.150  14.614
36755SOL     OW12103   5.870  10.676   7.129
36755SOL    HW112104   5.787  10.648   7.169
36755SOL    HW212105   5.850  10.685   7.036
36756SOL     OW12106   6.757   9.242  14.815
36756SOL    HW112107   6.817   9.293  14.761
36756SOL    HW212108   6.788   9.152  14.808
36757SOL     OW12109   7.689   9.577   3.379
36757SOL    HW112110   7.714   9.621   3.461
36757SOL    HW212111   7.630   9.639   3.336
36758SOL     OW12112  14.531   5.226   4.714
36758SOL    HW112113  14.449   5.220   4.664
36758SOL    HW212114  14.504   5.223   4.806
36759SOL     OW12115   0.320   7.741   0.110
36759SOL    HW112116   0.291   7.783   0.191
36759SOL    HW212117   0.300   7.805   0.041
36760SOL     OW12118   1.832  10.174   0.246
36760SOL    HW112119   1.771  10.212   0.309
36760SOL    HW212120   1.915  10.167   0.295
36761SOL     OW12121   8.713  12.060   0.457
36761SOL    HW112122   8.623  12.031   0.441
36761SOL    HW212123   8.750  11.991   0.512
36762SOL     OW12124  12.951   9.811   8.616
36762SOL    HW112125  13.031   9.825   8.565
36762SOL    HW212126  12.983   9.780   8.701
36763SOL     OW12127  13.622  10.054  11.602
36763SOL    HW112128  13.651   9.965  11.619
36763SOL    HW212129  13.580  10.050  11.516
36764SOL     OW12130   7.496  13.256   2.559
36764SOL    HW112131   7.588  13.274   2.578
36764SOL    HW212132   7.457  13.342   2.543
36765SOL     OW12133  12.319   9.652   9.242
36765SOL    HW112134  12.228   9.624   9.246
36765SOL    HW212135  12.364   9.596   9.305
36766SOL     OW12136   0.224   1.176  11.061
36766SOL    HW112137   0.167   1.245  11.028
36766SOL    HW212138   0.262   1.137  10.982
36767SOL     OW12139   7.977  13.307  14.770
36767SOL    HW112140   8.034  13.378  14.742
36767SOL    HW212141   7.905  13.351  14.816
36768SOL     OW12142  11.877   7.630  12.667
36768SOL    HW112143  11.916   7.693  12.727
36768SOL    HW212144  11.945   7.563  12.656
36769SOL     OW12145  13.845   9.955   4.692
36769SOL    HW112146  13.879   9.892   4.628
36769SOL    HW212147  13.916  10.018   4.703
36770SOL     OW12148  14.562   9.154   4.139
36770SOL    HW112149  14.501   9.182   4.208
36770SOL    HW212150  14.615   9.087   4.181
36771SOL     OW12151   0.968   1.629   2.517
36771SOL    HW112152   0.887   1.583   2.493
36771SOL    HW212153   0.969   1.706   2.460
36772SOL     OW12154   0.173   5.776   2.161
36772SOL    HW112155   0.244   5.791   2.224
36772SOL    HW212156   0.097   5.757   2.215
36773SOL     OW12157   9.748   7.324  11.381
36773SOL    HW112158   9.814   7.393  11.395
36773SOL    HW212159   9.727   7.330  11.287
36774SOL     OW12160   9.839  13.530   7.109
36774SOL    HW112161   9.922  13.516   7.154
36774SOL    HW212162   9.798  13.603   7.156
36775SOL     OW12163   6.963  13.395  12.845
36775SOL    HW112164   6.878  13.410  12.887
36775SOL    HW212165   6.989  13.308  12.875
36776SOL     OW12166   4.898   8.604   9.929
36776SOL    HW112167   4.887   8.534   9.865
36776SOL    HW212168   4.917   8.560  10.012
36777SOL     OW12169   7.781  14.295   0.043
36777SOL    HW112170   7.836  14.325   0.115
36777SOL    HW212171   7.743  14.375   0.007
36778SOL     OW12172   9.806   7.622   9.192
36778SOL    HW112173   9.730   7.668   9.155
36778SOL    HW212174   9.819   7.548   9.133
36779SOL     OW12175  10.555  14.271  10.360
36779SOL    HW112176  10.532  14.203  10.297
36779SOL    HW212177  10.498  14.255  10.435
36780SOL     OW12178   3.117   5.112   5.418
36780SOL    HW112179   3.120   5.040   5.355
36780SOL    HW212180   3.041   5.164   5.390
36781SOL     OW12181   6.159   0.696  12.099
36781SOL    HW112182   6.226   0.651  12.150
36781SOL    HW212183   6.158   0.785  12.134
36782SOL     OW12184   3.612   4.434   6.072
36782SOL    HW112185   3.704   4.456   6.086
36782SOL    HW212186   3.602   4.346   6.109
36783SOL     OW12187   0.241   7.664   5.392
36783SOL    HW112188   0.164   7.673   5.447
36783SOL    HW212189   0.310   7.633   5.451
36784SOL     OW12190   2.901  13.512   7.280
36784SOL    HW112191   2.828  13.499   7.219
36784SOL    HW212192   2.887  13.446   7.348
36785SOL     OW12193   7.639   7.818  12.353
36785SOL    HW112194   7.641   7.743  12.414
36785SOL    HW212195   7.593   7.784  12.276
36786SOL     OW12196  13.248   0.515   0.066
36786SOL    HW112197  13.199   0.590   0.033
36786SOL    HW212198  13.192   0.477   0.133
36787SOL     OW12199   7.284  10.194  10.736
36787SOL    HW112200   7.284  10.177  10.830
36787SOL    HW212201   7.194  10.219  10.716
36788SOL     OW12202   6.224  13.746   3.762
36788SOL    HW112203   6.189  13.723   3.676
36788SOL    HW212204   6.215  13.667   3.815
36789SOL     OW12205   3.500   7.045   2.546
36789SOL    HW112206   3.440   7.119   2.536
36789SOL    HW212207   3.443   6.969   2.558
36790SOL     OW12208  14.484   3.728   9.093
36790SOL    HW112209  14.559   3.748   9.149
36790SOL    HW212210  14.458   3.813   9.056
36791SOL     OW12211   4.555   2.402   2.626
36791SOL    HW112212   4.563   2.324   2.572
36791SOL    HW212213   4.573   2.474   2.565
36792SOL     OW12214   0.660   4.447   7.431
36792SOL    HW112215   0.665   4.535   7.469
36792SOL    HW212216   0.586   4.405   7.475
36793SOL     OW12217   9.125   2.956   7.755
36793SOL    HW112218   9.115   2.976   7.662
36793SOL    HW212219   9.092   2.866   7.764
36794SOL     OW12220   7.822   8.215   8.904
36794SOL    HW112221   7.871   8.269   8.843
36794SOL    HW212222   7.735   8.206   8.864
36795SOL     OW12223   9.364   2.046  10.325
36795SOL    HW112224   9.384   2.091  10.406
36795SOL    HW212225   9.271   2.065  10.309
36796SOL     OW12226   1.304  10.043   2.595
36796SOL    HW112227   1.355   9.965   2.617
36796SOL    HW212228   1.287  10.036   2.502
36797SOL     OW12229   1.540   2.744   2.921
36797SOL    HW112230   1.511   2.721   2.833
36797SOL    HW212231   1.599   2.672   2.946
36798SOL     OW12232   5.309  14.389   7.138
36798SOL    HW112233   5.285  14.463   7.194
36798SOL    HW212234   5.405  14.386   7.141
36799SOL     OW12235   2.452  10.234  11.862
36799SOL    HW112236   2.427  10.324  11.843
36799SOL    HW212237   2.483  10.236  11.952
36800SOL     OW12238   0.679   6.456   0.613
36800SOL    HW112239   0.740   6.500   0.672
36800SOL    HW212240   0.654   6.523   0.550
36801SOL     OW12241   7.228   0.496   9.695
36801SOL    HW112242   7.235   0.469   9.786
36801SOL    HW212243   7.142   0.538   9.689
36802SOL     OW12244  14.451   7.394  10.897
36802SOL    HW112245  14.455   7.350  10.812
36802SOL    HW212246  14.520   7.352  10.948
36803SOL     OW12247   4.465   9.793   1.500
36803SOL    HW112248   4.519   9.807   1.422
36803SOL    HW212249   4.502   9.852   1.565
36804SOL     OW12250  11.551   5.564  13.461
36804SOL    HW112251  11.462   5.597  13.468
36804SOL    HW212252  11.545   5.472  13.485
36805SOL     OW12253   4.148   7.522  13.194
36805SOL    HW112254   4.071   7.471  13.217
36805SOL    HW212255   4.127   7.612  13.220
36806SOL     OW12256  14.632   1.864   7.962
36806SOL    HW112257  14.582   1.934   7.920
36806SOL    HW212258  14.642   1.892   8.053
36807SOL     OW12259   6.413   9.212   6.622
36807SOL    HW112260   6.462   9.207   6.539
36807SOL    HW212261   6.480   9.206   6.690
36808SOL     OW12262   0.278   8.484   9.375
36808SOL    HW112263   0.194   8.439   9.387
36808SOL    HW212264   0.300   8.516   9.463
36809SOL     OW12265  13.603   5.236  11.331
36809SOL    HW112266  13.614   5.306  11.266
36809SOL    HW212267  13.639   5.273  11.412
36810SOL     OW12268   5.237   8.337   6.659
36810SOL    HW112269   5.166   8.287   6.619
36810SOL    HW212270   5.228   8.425   6.624
36811SOL     OW12271   3.542   8.868   2.105
36811SOL    HW112272   3.606   8.919   2.155
36811SOL    HW212273   3.590   8.790   2.078
36812SOL     OW12274  11.507  10.200   5.590
36812SOL    HW112275  11.486  10.266   5.524
36812SOL    HW212276  11.559  10.247   5.655
36813SOL     OW12277   2.158  11.235   7.291
36813SOL    HW112278   2.106  11.157   7.271
36813SOL    HW212279   2.191  11.265   7.207
36814SOL     OW12280   7.639   7.565   8.268
36814SOL    HW112281   7.636   7.604   8.180
36814SOL    HW212282   7.680   7.479   8.255
36815SOL     OW12283   7.502   5.752  12.051
36815SOL    HW112284   7.436   5.814  12.020
36815SOL    HW212285   7.518   5.695  11.975
36816SOL     OW12286   1.342   1.405   8.118
36816SOL    HW112287   1.333   1.499   8.135
36816SOL    HW212288   1.268   1.366   8.164
36817SOL     OW12289   0.920   7.608   3.616
36817SOL    HW112290   0.842   7.554   3.625
36817SOL    HW212291   0.937   7.611   3.522
36818SOL     OW12292   5.793   7.775   2.330
36818SOL    HW112293   5.753   7.705   2.381
36818SOL    HW212294   5.816   7.841   2.394
36819SOL     OW12295  11.650   3.345  12.798
36819SOL    HW112296  11.666   3.425  12.848
36819SOL    HW212297  11.660   3.274  12.862
36820SOL     OW12298  11.746  12.205   3.939
36820SOL    HW112299  11.690  12.240   4.008
36820SOL    HW212300  11.685  12.164   3.877
36821SOL     OW12301   8.505  11.901  10.620
36821SOL    HW112302   8.454  11.981  10.610
36821SOL    HW212303   8.464  11.855  10.693
36822SOL     OW12304  11.894   3.925   8.900
36822SOL    HW112305  11.915   4.006   8.945
36822SOL    HW212306  11.813   3.944   8.852
36823SOL     OW12307   2.415   4.790  13.454
36823SOL    HW112308   2.414   4.744  13.370
36823SOL    HW212309   2.348   4.745  13.506
36824SOL     OW12310  11.274   7.827   5.987
36824SOL    HW112311  11.338   7.880   5.941
36824SOL    HW212312  11.234   7.772   5.920
36825SOL     OW12313   9.118   2.966   6.597
36825SOL    HW112314   9.083   2.898   6.655
36825SOL    HW212315   9.071   3.045   6.621
36826SOL     OW12316  12.028   0.846   8.680
36826SOL    HW112317  11.968   0.920   8.692
36826SOL    HW212318  12.065   0.860   8.593
36827SOL     OW12319  11.608   5.036   6.356
36827SOL    HW112320  11.591   4.990   6.274
36827SOL    HW212321  11.540   5.005   6.416
36828SOL     OW12322  14.731   3.165   6.984
36828SOL    HW112323  14.764   3.255   6.992
36828SOL    HW212324  14.712   3.138   7.073
36829SOL     OW12325   5.935  14.247   3.120
36829SOL    HW112326   5.975  14.301   3.188
36829SOL    HW212327   6.010  14.210   3.072
36830SOL     OW12328   4.800   2.480  10.428
36830SOL    HW112329   4.788   2.445  10.339
36830SOL    HW212330   4.719   2.527  10.446
36831SOL     OW12331   2.553   4.999   8.981
36831SOL    HW112332   2.570   5.061   9.051
36831SOL    HW212333   2.640   4.980   8.945
36832SOL     OW12334   5.758   7.429   8.844
36832SOL    HW112335   5.770   7.337   8.821
36832SOL    HW212336   5.746   7.430   8.939
36833SOL     OW12337   6.732   3.669   2.730
36833SOL    HW112338   6.804   3.728   2.749
36833SOL    HW212339   6.675   3.675   2.807
36834SOL     OW12340   7.972   7.264   4.105
36834SOL    HW112341   8.050   7.267   4.050
36834SOL    HW212342   8.002   7.296   4.191
36835SOL     OW12343   3.850  10.240   2.630
36835SOL    HW112344   3.826  10.162   2.680
36835SOL    HW212345   3.768  10.289   2.620
36836SOL     OW12346   1.227   8.524   3.248
36836SOL    HW112347   1.201   8.517   3.340
36836SOL    HW212348   1.296   8.590   3.248
36837SOL     OW12349   0.702   4.797   2.181
36837SOL    HW112350   0.765   4.863   2.207
36837SOL    HW212351   0.651   4.779   2.260
36838SOL     OW12352  14.718  12.777   1.181
36838SOL    HW112353  14.734  12.701   1.237
36838SOL    HW212354  14.649  12.826   1.225
36839SOL     OW12355   3.978  10.052  13.255
36839SOL    HW112356   3.914  10.050  13.183
36839SOL    HW212357   4.061  10.068  13.211
36840SOL     OW12358  13.744  14.429   5.582
36840SOL    HW112359  13.720  14.518   5.606
36840SOL    HW212360  13.778  14.436   5.493
36841SOL     OW12361   1.424   5.569   4.390
36841SOL    HW112362   1.499   5.579   4.332
36841SOL    HW212363   1.373   5.498   4.351
36842SOL     OW12364   3.630  11.224   3.538
36842SOL    HW112365   3.716  11.263   3.526
36842SOL    HW212366   3.591  11.274   3.609
36843SOL     OW12367  12.252   9.121  14.434
36843SOL    HW112368  12.336   9.103  14.392
36843SOL    HW212369  12.204   9.039  14.429
36844SOL     OW12370  14.670  14.194   9.417
36844SOL    HW112371  14.737  14.126   9.409
36844SOL    HW212372  14.716  14.268   9.456
36845SOL     OW12373   1.555   2.821   4.973
36845SOL    HW112374   1.617   2.777   4.914
36845SOL    HW212375   1.606   2.843   5.050
36846SOL     OW12376   5.637   2.866  12.751
36846SOL    HW112377   5.725   2.870  12.713
36846SOL    HW212378   5.646   2.811  12.828
36847SOL     OW12379  13.821  10.455   9.090
36847SOL    HW112380  13.793  10.443   9.181
36847SOL    HW212381  13.818  10.550   9.077
36848SOL     OW12382   3.691  14.162  13.832
36848SOL    HW112383   3.655  14.142  13.746
36848SOL    HW212384   3.640  14.237  13.863
36849SOL     OW12385   9.095   2.319   6.612
36849SOL    HW112386   9.137   2.325   6.526
36849SOL    HW212387   9.135   2.242   6.652
36850SOL     OW12388   1.122   4.587   8.771
36850SOL    HW112389   1.207   4.612   8.736
36850SOL    HW212390   1.138   4.569   8.864
36851SOL     OW12391   4.793   8.801  11.371
36851SOL    HW112392   4.848   8.813  11.448
36851SOL    HW212393   4.832   8.727  11.324
36852SOL     OW12394   8.682  14.722   6.942
36852SOL    HW112395   8.753  14.743   6.882
36852SOL    HW212396   8.652  14.807   6.974
36853SOL     OW12397  13.067   5.337   6.800
36853SOL    HW112398  13.032   5.311   6.715
36853SOL    HW212399  13.035   5.270   6.861
36854SOL     OW12400   6.126   7.700  14.613
36854SOL    HW112401   6.115   7.651  14.695
36854SOL    HW212402   6.045   7.684  14.565
36855SOL     OW12403  13.823   1.049  11.850
36855SOL    HW112404  13.863   0.964  11.830
36855SOL    HW212405  13.808   1.046  11.944
36856SOL     OW12406   2.349   1.285   6.120
36856SOL    HW112407   2.392   1.337   6.052
36856SOL    HW212408   2.415   1.220   6.146
36857SOL     OW12409   4.530   6.808   5.442
36857SOL    HW112410   4.481   6.852   5.512
36857SOL    HW212411   4.471   6.812   5.366
36858SOL     OW12412   5.386   6.347   3.413
36858SOL    HW112413   5.402   6.332   3.506
36858SOL    HW212414   5.379   6.442   3.404
36859SOL     OW12415   1.201  12.843   6.665
36859SOL    HW112416   1.237  12.771   6.613
36859SOL    HW212417   1.108  12.845   6.643
36860SOL     OW12418   0.961  12.806   5.590
36860SOL    HW112419   0.965  12.731   5.650
36860SOL    HW212420   0.869  12.831   5.589
36861SOL     OW12421   0.564   0.348   8.413
36861SOL    HW112422   0.560   0.402   8.492
36861SOL    HW212423   0.650   0.307   8.417
36862SOL     OW12424   4.564   6.555  12.238
36862SOL    HW112425   4.602   6.616  12.300
36862SOL    HW212426   4.574   6.469  12.279
36863SOL     OW12427  12.715   1.638  13.343
36863SOL    HW112428  12.712   1.551  13.382
36863SOL    HW212429  12.640   1.640  13.283
36864SOL     OW12430   2.291   0.805   6.732
36864SOL    HW112431   2.299   0.900   6.746
36864SOL    HW212432   2.250   0.798   6.645
36865SOL     OW12433   8.492   5.271   6.281
36865SOL    HW112434   8.407   5.282   6.238
36865SOL    HW212435   8.475   5.211   6.353
36866SOL     OW12436   7.341  10.686   0.410
36866SOL    HW112437   7.307  10.605   0.449
36866SOL    HW212438   7.436  10.679   0.418
36867SOL     OW12439   4.973   3.990  12.028
36867SOL    HW112440   5.011   3.909  11.993
36867SOL    HW212441   4.910   4.017  11.961
36868SOL     OW12442   7.888  13.102  11.045
36868SOL    HW112443   7.931  13.017  11.050
36868SOL    HW212444   7.888  13.134  11.136
36869SOL     OW12445   7.877   1.719   2.710
36869SOL    HW112446   7.887   1.812   2.732
36869SOL    HW212447   7.956   1.678   2.746
36870SOL     OW12448   4.336   7.692   9.234
36870SOL    HW112449   4.343   7.769   9.178
36870SOL    HW212450   4.422   7.651   9.231
36871SOL     OW12451   6.090   5.932  12.890
36871SOL    HW112452   6.043   6.015  12.902
36871SOL    HW212453   6.180   5.952  12.914
36872SOL     OW12454   2.763   8.907   0.416
36872SOL    HW112455   2.743   8.965   0.343
36872SOL    HW212456   2.692   8.921   0.479
36873SOL     OW12457  11.359  14.004   9.839
36873SOL    HW112458  11.327  13.976   9.754
36873SOL    HW212459  11.304  14.079   9.862
36874SOL     OW12460   0.046   7.779   5.632
36874SOL    HW112461   0.028   7.694   5.672
36874SOL    HW212462  14.851   7.833   5.658
36875SOL     OW12463   8.619   8.992   5.000
36875SOL    HW112464   8.579   8.907   4.979
36875SOL    HW212465   8.701   8.993   4.949
36876SOL     OW12466   3.549  13.237   7.945
36876SOL    HW112467   3.546  13.270   8.034
36876SOL    HW212468   3.626  13.279   7.906
36877SOL     OW12469  14.845   0.526   2.998
36877SOL    HW112470  14.761   0.561   3.027
36877SOL    HW212471   0.026   0.600   3.003
36878SOL     OW12472  14.371   4.931   1.619
36878SOL    HW112473  14.391   4.852   1.570
36878SOL    HW212474  14.281   4.919   1.649
36879SOL     OW12475   6.066   4.089   8.827
36879SOL    HW112476   6.015   4.013   8.854
36879SOL    HW212477   6.152   4.054   8.804
36880SOL     OW12478   3.142   2.326   1.036
36880SOL    HW112479   3.163   2.316   1.129
36880SOL    HW212480   3.047   2.313   1.032
36881SOL     OW12481   9.980  12.410  14.424
36881SOL    HW112482  10.037  12.427  14.499
36881SOL    HW212483   9.946  12.496  14.399
36882SOL     OW12484   1.093  13.713   4.040
36882SOL    HW112485   1.138  13.787   3.999
36882SOL    HW212486   1.157  13.676   4.101
36883SOL     OW12487   1.456   3.862  13.927
36883SOL    HW112488   1.380   3.920  13.928
36883SOL    HW212489   1.433   3.794  13.863
36884SOL     OW12490  14.145  10.998   2.932
36884SOL    HW112491  14.055  11.014   2.904
36884SOL    HW212492  14.137  10.939   3.007
36885SOL     OW12493   1.214   3.094   7.283
36885SOL    HW112494   1.145   3.042   7.242
36885SOL    HW212495   1.166   3.153   7.342
36886SOL     OW12496   1.686  11.835   4.518
36886SOL    HW112497   1.739  11.797   4.589
36886SOL    HW212498   1.692  11.929   4.532
36887SOL     OW12499   7.789   9.640   3.003
36887SOL    HW112500   7.794   9.566   3.064
36887SOL    HW212501   7.849   9.705   3.039
36888SOL     OW12502  13.488   5.228  12.600
36888SOL    HW112503  13.432   5.167  12.648
36888SOL    HW212504  13.488   5.308  12.653
36889SOL     OW12505  13.836   3.814   9.703
36889SOL    HW112506  13.848   3.828   9.797
36889SOL    HW212507  13.801   3.725   9.697
36890SOL     OW12508   3.881   5.195   2.508
36890SOL    HW112509   3.934   5.255   2.560
36890SOL    HW212510   3.814   5.250   2.468
36891SOL     OW12511   4.568   7.818  14.086
36891SOL    HW112512   4.629   7.779  14.150
36891SOL    HW212513   4.481   7.799  14.122
36892SOL     OW12514   2.528   5.739  12.253
36892SOL    HW112515   2.504   5.820  12.208
36892SOL    HW212516   2.455   5.720  12.311
36893SOL     OW12517   0.787   6.473   8.884
36893SOL    HW112518   0.762   6.388   8.921
36893SOL    HW212519   0.748   6.538   8.942
36894SOL     OW12520  12.198   4.963  11.762
36894SOL    HW112521  12.168   4.953  11.671
36894SOL    HW212522  12.224   4.874  11.788
36895SOL     OW12523   4.759   6.410  14.848
36895SOL    HW112524   4.767   6.323  14.809
36895SOL    HW212525   4.837   6.417   0.024
36896SOL     OW12526   1.805   8.867  13.122
36896SOL    HW112527   1.833   8.936  13.181
36896SOL    HW212528   1.770   8.913  13.046
36897SOL     OW12529  10.031   3.936  13.419
36897SOL    HW112530  10.012   4.029  13.406
36897SOL    HW212531   9.965   3.906  13.482
36898SOL     OW12532   6.628   3.847  14.813
36898SOL    HW112533   6.638   3.888   0.019
36898SOL    HW212534   6.709   3.796  14.801
36899SOL     OW12535  14.014   0.970   0.373
36899SOL    HW112536  14.065   0.964   0.455
36899SOL    HW212537  13.993   0.880   0.351
36900SOL     OW12538  10.471   9.070   0.911
36900SOL    HW112539  10.491   9.062   0.818
36900SOL    HW212540  10.555   9.052   0.955
36901SOL     OW12541  11.721   4.970  12.644
36901SOL    HW112542  11.691   5.060  12.657
36901SOL    HW212543  11.753   4.943  12.730
36902SOL     OW12544  12.180  11.647   5.184
36902SOL    HW112545  12.200  11.737   5.208
36902SOL    HW212546  12.143  11.608   5.263
36903SOL     OW12547   4.919   4.812  14.333
36903SOL    HW112548   4.972   4.773  14.402
36903SOL    HW212549   4.946   4.765  14.253
36904SOL     OW12550   3.260   0.364  10.487
36904SOL    HW112551   3.252   0.360  10.392
36904SOL    HW212552   3.202   0.295  10.519
36905SOL     OW12553   9.108  12.689  11.394
36905SOL    HW112554   9.186  12.713  11.344
36905SOL    HW212555   9.039  12.679  11.328
36906SOL     OW12556   4.122   4.102   4.109
36906SOL    HW112557   4.135   4.016   4.149
36906SOL    HW212558   4.042   4.135   4.149
36907SOL     OW12559  10.077   5.899   5.166
36907SOL    HW112560  10.135   5.970   5.139
36907SOL    HW212561   9.991   5.941   5.176
36908SOL     OW12562   7.099  12.270   9.262
36908SOL    HW112563   7.169  12.334   9.269
36908SOL    HW212564   7.111  12.229   9.176
36909SOL     OW12565   2.341   3.609  14.149
36909SOL    HW112566   2.414   3.660  14.115
36909SOL    HW212567   2.308   3.560  14.074
36910SOL     OW12568   9.252   4.556   1.732
36910SOL    HW112569   9.255   4.488   1.799
36910SOL    HW212570   9.162   4.555   1.701
36911SOL     OW12571   0.340  11.450   0.837
36911SOL    HW112572   0.337  11.356   0.855
36911SOL    HW212573   0.343  11.491   0.923
36912SOL     OW12574  14.671   2.273  14.815
36912SOL    HW112575  14.577   2.256  14.824
36912SOL    HW212576  14.710   2.186  14.810
36913SOL     OW12577  10.929   8.496  11.150
36913SOL    HW112578  10.957   8.487  11.059
36913SOL    HW212579  10.952   8.586  11.173
36914SOL     OW12580   2.955  13.179  11.366
36914SOL    HW112581   2.919  13.249  11.311
36914SOL    HW212582   2.954  13.101  11.310
36915SOL     OW12583   8.071   1.874   3.769
36915SOL    HW112584   8.049   1.920   3.850
36915SOL    HW212585   8.000   1.812   3.757
36916SOL     OW12586   1.171   1.776   2.684
36916SOL    HW112587   1.152   1.729   2.765
36916SOL    HW212588   1.181   1.708   2.618
36917SOL     OW12589  13.046   9.202  10.916
36917SOL    HW112590  12.952   9.223  10.915
36917SOL    HW212591  13.076   9.229  11.002
36918SOL     OW12592  14.801  11.413   4.748
36918SOL    HW112593  14.775  11.505   4.746
36918SOL    HW212594  14.720  11.365   4.736
36919SOL     OW12595   6.837   8.076   5.808
36919SOL    HW112596   6.750   8.043   5.787
36919SOL    HW212597   6.860   8.033   5.891
36920SOL     OW12598  13.656  13.660   8.327
36920SOL    HW112599  13.570  13.670   8.285
36920SOL    HW212600  13.661  13.734   8.388
36921SOL     OW12601  11.667   2.879   4.056
36921SOL    HW112602  11.677   2.953   3.996
36921SOL    HW212603  11.574   2.876   4.076
36922SOL     OW12604   0.017   0.590  10.177
36922SOL    HW112605   0.059   0.541  10.106
36922SOL    HW212606   0.090   0.618  10.232
36923SOL     OW12607   4.234   0.920   1.971
36923SOL    HW112608   4.247   0.839   2.019
36923SOL    HW212609   4.245   0.989   2.036
36924SOL     OW12610  11.201  10.146   2.360
36924SOL    HW112611  11.138  10.201   2.407
36924SOL    HW212612  11.180  10.057   2.387
36925SOL     OW12613   9.504   4.766   4.488
36925SOL    HW112614   9.496   4.671   4.497
36925SOL    HW212615   9.415   4.797   4.476
36926SOL     OW12616   0.006   4.682   4.619
36926SOL    HW112617   0.004   4.591   4.649
36926SOL    HW212618   0.078   4.686   4.557
36927SOL     OW12619   1.498   7.295  14.795
36927SOL    HW112620   1.459   7.213  14.764
36927SOL    HW212621   1.570   7.312  14.735
36928SOL     OW12622  11.449   5.091   4.912
36928SOL    HW112623  11.411   5.177   4.931
36928SOL    HW212624  11.523   5.084   4.972
36929SOL     OW12625   7.617   0.454   7.756
36929SOL    HW112626   7.564   0.506   7.817
36929SOL    HW212627   7.617   0.366   7.793
36930SOL     OW12628   9.158  13.710   8.458
36930SOL    HW112629   9.226  13.710   8.390
36930SOL    HW212630   9.076  13.705   8.410
36931SOL     OW12631   2.301  11.557   7.738
36931SOL    HW112632   2.337  11.499   7.670
36931SOL    HW212633   2.233  11.607   7.693
36932SOL     OW12634  12.741   7.647  14.655
36932SOL    HW112635  12.818   7.635  14.710
36932SOL    HW212636  12.751   7.583  14.584
36933SOL     OW12637  13.490  10.475   5.729
36933SOL    HW112638  13.556  10.406   5.728
36933SOL    HW212639  13.486  10.505   5.639
36934SOL     OW12640   3.274   8.619   7.770
36934SOL    HW112641   3.301   8.632   7.680
36934SOL    HW212642   3.299   8.528   7.790
36935SOL     OW12643  11.875   6.301   9.431
36935SOL    HW112644  11.920   6.217   9.418
36935SOL    HW212645  11.831   6.292   9.515
36936SOL     OW12646   2.056  13.769   3.719
36936SOL    HW112647   2.073  13.738   3.630
36936SOL    HW212648   2.030  13.861   3.707
36937SOL     OW12649   6.229   5.810   5.843
36937SOL    HW112650   6.309   5.847   5.881
36937SOL    HW212651   6.189   5.883   5.795
36938SOL     OW12652   2.147   7.157   8.785
36938SOL    HW112653   2.219   7.124   8.838
36938SOL    HW212654   2.177   7.146   8.695
36939SOL     OW12655   4.760   5.512   3.686
36939SOL    HW112656   4.786   5.485   3.774
36939SOL    HW212657   4.673   5.549   3.697
36940SOL     OW12658   3.199  10.984   0.974
36940SOL    HW112659   3.287  11.015   0.994
36940SOL    HW212660   3.192  10.990   0.879
36941SOL     OW12661   9.730   7.245   9.432
36941SOL    HW112662   9.766   7.333   9.445
36941SOL    HW212663   9.636   7.255   9.448
36942SOL     OW12664   2.513   5.335  14.519
36942SOL    HW112665   2.496   5.422  14.484
36942SOL    HW212666   2.449   5.278  14.476
36943SOL     OW12667   5.494   4.242  10.006
36943SOL    HW112668   5.454   4.238   9.919
36943SOL    HW212669   5.426   4.210  10.065
36944SOL     OW12670   3.475   9.124   7.479
36944SOL    HW112671   3.468   9.096   7.571
36944SOL    HW212672   3.392   9.098   7.440
36945SOL     OW12673  13.211   3.704  12.913
36945SOL    HW112674  13.155   3.631  12.885
36945SOL    HW212675  13.216   3.761  12.836
36946SOL     OW12676  10.703  13.760  11.208
36946SOL    HW112677  10.774  13.783  11.148
36946SOL    HW212678  10.623  13.778  11.159
36947SOL     OW12679   9.526   8.205   4.244
36947SOL    HW112680   9.483   8.120   4.241
36947SOL    HW212681   9.457   8.268   4.264
36948SOL     OW12682  13.407   8.187   9.880
36948SOL    HW112683  13.401   8.107   9.828
36948SOL    HW212684  13.496   8.187   9.915
36949SOL     OW12685  13.932   4.353   7.498
36949SOL    HW112686  13.954   4.404   7.576
36949SOL    HW212687  14.012   4.305   7.477
36950SOL     OW12688  13.099   4.651  13.814
36950SOL    HW112689  13.043   4.725  13.793
36950SOL    HW212690  13.152   4.680  13.888
36951SOL     OW12691   2.752   0.881  12.016
36951SOL    HW112692   2.719   0.791  12.016
36951SOL    HW212693   2.839   0.874  12.056
36952SOL     OW12694   0.920   1.314   4.555
36952SOL    HW112695   0.844   1.341   4.605
36952SOL    HW212696   0.925   1.376   4.482
36953SOL     OW12697  13.752   4.538   2.898
36953SOL    HW112698  13.708   4.453   2.908
36953SOL    HW212699  13.824   4.521   2.838
36954SOL     OW12700  14.179   7.838  11.165
36954SOL    HW112701  14.130   7.869  11.089
36954SOL    HW212702  14.126   7.864  11.240
36955SOL     OW12703  10.834  10.365  12.329
36955SOL    HW112704  10.748  10.394  12.298
36955SOL    HW212705  10.873  10.443  12.369
36956SOL     OW12706   4.881  10.371  12.917
36956SOL    HW112707   4.918  10.444  12.867
36956SOL    HW212708   4.802  10.408  12.956
36957SOL     OW12709   8.283   1.286  10.239
36957SOL    HW112710   8.265   1.282  10.333
36957SOL    HW212711   8.374   1.316  10.233
36958SOL     OW12712  12.257  11.641   1.492
36958SOL    HW112713  12.263  11.566   1.550
36958SOL    HW212714  12.179  11.625   1.439
36959SOL     OW12715   2.645   2.005  10.510
36959SOL    HW112716   2.704   2.077  10.532
36959SOL    HW212717   2.701   1.928  10.502
36960SOL     OW12718   0.618   8.991  14.780
36960SOL    HW112719   0.682   9.062  14.776
36960SOL    HW212720   0.637   8.945  14.862
36961SOL     OW12721  13.864   5.149  14.404
36961SOL    HW112722  13.910   5.214  14.351
36961SOL    HW212723  13.870   5.068  14.353
36962SOL     OW12724  11.718   0.889   4.476
36962SOL    HW112725  11.752   0.951   4.540
36962SOL    HW212726  11.695   0.812   4.528
36963SOL     OW12727   6.924   2.568   1.669
36963SOL    HW112728   6.956   2.555   1.580
36963SOL    HW212729   6.938   2.661   1.687
36964SOL     OW12730   6.218   3.468   2.291
36964SOL    HW112731   6.122   3.471   2.292
36964SOL    HW212732   6.243   3.546   2.242
36965SOL     OW12733  12.131   0.429   6.446
36965SOL    HW112734  12.206   0.465   6.399
36965SOL    HW212735  12.112   0.493   6.514
36966SOL     OW12736  10.509  11.316   7.293
36966SOL    HW112737  10.547  11.262   7.362
36966SOL    HW212738  10.577  11.379   7.270
36967SOL     OW12739   6.059   2.501   3.252
36967SOL    HW112740   5.969   2.505   3.220
36967SOL    HW212741   6.071   2.583   3.301
36968SOL     OW12742   0.481  14.864  11.500
36968SOL    HW112743   0.565   0.013  11.464
36968SOL    HW212744   0.475  14.771  11.477
36969SOL     OW12745  12.935   5.510   5.516
36969SOL    HW112746  12.910   5.418   5.522
36969SOL    HW212747  13.031   5.509   5.512
36970SOL     OW12748  14.168  12.628  14.453
36970SOL    HW112749  14.210  12.545  14.474
36970SOL    HW212750  14.149  12.667  14.539
36971SOL     OW12751   1.788   5.357   1.099
36971SOL    HW112752   1.834   5.414   1.160
36971SOL    HW212753   1.766   5.413   1.025
36972SOL     OW12754   4.406   7.435   9.977
36972SOL    HW112755   4.322   7.440  10.023
36972SOL    HW212756   4.467   7.481  10.035
36973SOL     OW12757   0.448   5.198   8.451
36973SOL    HW112758   0.522   5.229   8.503
36973SOL    HW212759   0.463   5.234   8.364
36974SOL     OW12760  11.217   8.875   4.881
36974SOL    HW112761  11.199   8.869   4.975
36974SOL    HW212762  11.306   8.911   4.876
36975SOL     OW12763  11.543  12.061  13.577
36975SOL    HW112764  11.513  12.149  13.554
36975SOL    HW212765  11.635  12.060  13.553
36976SOL     OW12766   4.478   9.024   7.152
36976SOL    HW112767   4.554   9.019   7.093
36976SOL    HW212768   4.412   8.969   7.110
36977SOL     OW12769  13.252   3.167  11.795
36977SOL    HW112770  13.202   3.092  11.764
36977SOL    HW212771  13.208   3.243  11.755
36978SOL     OW12772   8.407   3.194  13.429
36978SOL    HW112773   8.467   3.152  13.491
36978SOL    HW212774   8.320   3.183  13.469
36979SOL     OW12775   6.920  10.726   3.157
36979SOL    HW112776   6.910  10.807   3.208
36979SOL    HW212777   6.850  10.730   3.092
36980SOL     OW12778   0.475  13.570  13.679
36980SOL    HW112779   0.522  13.597  13.757
36980SOL    HW212780   0.429  13.490  13.705
36981SOL     OW12781   6.106   2.749   3.349
36981SOL    HW112782   6.198   2.753   3.324
36981SOL    HW212783   6.107   2.736   3.444
36982SOL     OW12784   3.501   5.686   4.832
36982SOL    HW112785   3.561   5.737   4.777
36982SOL    HW212786   3.495   5.736   4.913
36983SOL     OW12787  12.812   0.801   1.728
36983SOL    HW112788  12.716   0.795   1.731
36983SOL    HW212789  12.830   0.895   1.725
36984SOL     OW12790   2.063  10.668  12.606
36984SOL    HW112791   2.072  10.706  12.519
36984SOL    HW212792   1.984  10.709  12.642
36985SOL     OW12793   1.490   5.879   8.426
36985SOL    HW112794   1.455   5.924   8.503
36985SOL    HW212795   1.538   5.804   8.463
36986SOL     OW12796   4.483   5.836   5.802
36986SOL    HW112797   4.536   5.784   5.862
36986SOL    HW212798   4.394   5.829   5.836
36987SOL     OW12799   4.115   2.316   1.438
36987SOL    HW112800   4.080   2.227   1.438
36987SOL    HW212801   4.049   2.369   1.482
36988SOL     OW12802   6.097   8.111   9.926
36988SOL    HW112803   6.152   8.126   9.849
36988SOL    HW212804   6.012   8.146   9.901
36989SOL     OW12805   8.387   0.013   2.162
36989SOL    HW112806   8.394   0.015   2.258
36989SOL    HW212807   8.362  14.803   2.142
36990SOL     OW12808   7.717   0.422   9.415
36990SOL    HW112809   7.703   0.498   9.471
36990SOL    HW212810   7.751   0.354   9.473
36991SOL     OW12811   4.348  13.861   1.361
36991SOL    HW112812   4.261  13.888   1.331
36991SOL    HW212813   4.360  13.905   1.445
36992SOL     OW12814   8.388   6.575   7.860
36992SOL    HW112815   8.391   6.554   7.953
36992SOL    HW212816   8.372   6.491   7.817
36993SOL     OW12817   2.769   6.733  10.800
36993SOL    HW112818   2.791   6.740  10.707
36993SOL    HW212819   2.842   6.774  10.846
36994SOL     OW12820   2.950   3.171   6.439
36994SOL    HW112821   2.947   3.177   6.344
36994SOL    HW212822   3.043   3.164   6.460
36995SOL     OW12823   1.642   5.563  14.068
36995SOL    HW112824   1.547   5.553  14.069
36995SOL    HW212825   1.659   5.626  13.998
36996SOL     OW12826   7.454   0.045   7.899
36996SOL    HW112827   7.405   0.024   7.819
36996SOL    HW212828   7.420   0.130   7.926
36997SOL     OW12829   4.173  11.504   4.817
36997SOL    HW112830   4.240  11.495   4.884
36997SOL    HW212831   4.123  11.582   4.843
36998SOL     OW12832  10.491  10.350  11.716
36998SOL    HW112833  10.505  10.445  11.724
36998SOL    HW212834  10.466  10.338  11.625
36999SOL     OW12835   7.350  10.336  13.337
36999SOL    HW112836   7.321  10.281  13.264
36999SOL    HW212837   7.408  10.279  13.388
37000SOL     OW12838  12.782   7.953   6.520
37000SOL    HW112839  12.750   8.009   6.590
37000SOL    HW212840  12.734   7.871   6.531
37001SOL     OW12841   0.457  12.516  11.496
37001SOL    HW112842   0.398  12.576  11.450
37001SOL    HW212843   0.485  12.565  11.573
37002SOL     OW12844   0.698   4.422   3.889
37002SOL    HW112845   0.784   4.391   3.863
37002SOL    HW212846   0.647   4.342   3.905
37003SOL     OW12847  11.024  12.196  11.057
37003SOL    HW112848  11.056  12.170  11.144
37003SOL    HW212849  10.982  12.280  11.071
37004SOL     OW12850   5.591   5.321   1.928
37004SOL    HW112851   5.537   5.314   2.006
37004SOL    HW212852   5.608   5.231   1.901
37005SOL     OW12853  11.855   4.286  11.887
37005SOL    HW112854  11.762   4.265  11.887
37005SOL    HW212855  11.864   4.352  11.956
37006SOL     OW12856   8.584   5.424   8.028
37006SOL    HW112857   8.540   5.354   8.077
37006SOL    HW212858   8.527   5.500   8.039
37007SOL     OW12859   1.795   3.229   5.695
37007SOL    HW112860   1.716   3.243   5.746
37007SOL    HW212861   1.765   3.220   5.605
37008SOL     OW12862  11.936   6.199   3.558
37008SOL    HW112863  11.926   6.276   3.613
37008SOL    HW212864  11.847   6.166   3.544
37009SOL     OW12865   9.632   5.942  11.754
37009SOL    HW112866   9.608   6.023  11.709
37009SOL    HW212867   9.586   5.874  11.705
37010SOL     OW12868   1.759   2.475   1.722
37010SOL    HW112869   1.773   2.400   1.780
37010SOL    HW212870   1.830   2.469   1.658
37011SOL     OW12871  10.723   4.891  13.499
37011SOL    HW112872  10.768   4.809  13.519
37011SOL    HW212873  10.785   4.960  13.526
37012SOL     OW12874  12.491   9.499  13.540
37012SOL    HW112875  12.402   9.473  13.519
37012SOL    HW212876  12.494   9.593  13.521
37013SOL     OW12877   2.318  12.598  13.054
37013SOL    HW112878   2.265  12.674  13.027
37013SOL    HW212879   2.339  12.615  13.146
37014SOL     OW12880   3.608  11.854   3.052
37014SOL    HW112881   3.619  11.783   3.115
37014SOL    HW212882   3.523  11.893   3.074
37015SOL     OW12883   6.509   3.403   6.508
37015SOL    HW112884   6.465   3.378   6.589
37015SOL    HW212885   6.513   3.323   6.457
37016SOL     OW12886   5.741   2.314   0.712
37016SOL    HW112887   5.778   2.236   0.752
37016SOL    HW212888   5.817   2.364   0.682
37017SOL     OW12889   3.007  12.815   5.914
37017SOL    HW112890   2.953  12.794   5.837
37017SOL    HW212891   3.080  12.865   5.879
37018SOL     OW12892   6.842   4.036   3.372
37018SOL    HW112893   6.780   3.972   3.337
37018SOL    HW212894   6.918   4.030   3.314
37019SOL     OW12895  11.542   0.366   0.843
37019SOL    HW112896  11.581   0.310   0.910
37019SOL    HW212897  11.461   0.320   0.818
37020SOL     OW12898   5.418   4.240   9.738
37020SOL    HW112899   5.391   4.326   9.770
37020SOL    HW212900   5.448   4.256   9.649
37021SOL     OW12901   9.187   8.817  11.828
37021SOL    HW112902   9.163   8.869  11.904
37021SOL    HW212903   9.228   8.738  11.865
37022SOL     OW12904   4.774   3.513  12.337
37022SOL    HW112905   4.838   3.580  12.315
37022SOL    HW212906   4.691   3.545  12.301
37023SOL     OW12907  13.507   9.411  14.138
37023SOL    HW112908  13.531   9.468  14.211
37023SOL    HW212909  13.500   9.469  14.062
37024SOL     OW12910  12.467   9.866  12.858
37024SOL    HW112911  12.560   9.843  12.856
37024SOL    HW212912  12.438   9.855  12.767
37025SOL     OW12913   3.620   6.237   0.425
37025SOL    HW112914   3.604   6.166   0.486
37025SOL    HW212915   3.535   6.282   0.418
37026SOL     OW12916   1.720   9.914   2.658
37026SOL    HW112917   1.686  10.004   2.666
37026SOL    HW212918   1.643   9.861   2.637
37027SOL     OW12919   8.953  11.510  10.827
37027SOL    HW112920   8.960  11.433  10.770
37027SOL    HW212921   8.988  11.582  10.775
37028SOL     OW12922   5.018   5.542   8.735
37028SOL    HW112923   5.059   5.476   8.791
37028SOL    HW212924   4.930   5.554   8.772
37029SOL     OW12925   3.984   1.131   2.605
37029SOL    HW112926   3.996   1.137   2.510
37029SOL    HW212927   3.973   1.222   2.632
37030SOL     OW12928  11.065   0.196   1.916
37030SOL    HW112929  11.049   0.121   1.858
37030SOL    HW212930  10.999   0.188   1.985
37031SOL     OW12931  12.130   3.181   8.242
37031SOL    HW112932  12.162   3.121   8.309
37031SOL    HW212933  12.053   3.223   8.281
37032SOL     OW12934   2.392  11.865  11.668
37032SOL    HW112935   2.392  11.959  11.646
37032SOL    HW212936   2.301  11.838  11.655
37033SOL     OW12937  11.633  13.127  13.342
37033SOL    HW112938  11.706  13.167  13.295
37033SOL    HW212939  11.648  13.033  13.333
37034SOL     OW12940  11.694  11.609   3.821
37034SOL    HW112941  11.693  11.705   3.823
37034SOL    HW212942  11.778  11.585   3.858
37035SOL     OW12943   7.589  10.839  13.867
37035SOL    HW112944   7.650  10.909  13.891
37035SOL    HW212945   7.529  10.879  13.805
37036SOL     OW12946  11.411  11.408  11.070
37036SOL    HW112947  11.356  11.366  11.004
37036SOL    HW212948  11.353  11.471  11.113
37037SOL     OW12949   7.097   5.221  11.291
37037SOL    HW112950   7.121   5.145  11.343
37037SOL    HW212951   7.014   5.251  11.329
37038SOL     OW12952   7.589   2.903  14.107
37038SOL    HW112953   7.508   2.949  14.127
37038SOL    HW212954   7.568   2.810  14.116
37039SOL     OW12955   6.323   3.881   4.537
37039SOL    HW112956   6.351   3.971   4.516
37039SOL    HW212957   6.343   3.872   4.631
37040SOL     OW12958  14.196   7.295   6.997
37040SOL    HW112959  14.139   7.283   7.073
37040SOL    HW212960  14.140   7.335   6.931
37041SOL     OW12961   7.502   2.442   5.340
37041SOL    HW112962   7.579   2.400   5.300
37041SOL    HW212963   7.523   2.536   5.337
37042SOL     OW12964  12.877  10.491  11.276
37042SOL    HW112965  12.882  10.412  11.221
37042SOL    HW212966  12.920  10.559  11.224
37043SOL     OW12967  10.710   6.882  13.859
37043SOL    HW112968  10.790   6.900  13.811
37043SOL    HW212969  10.643   6.934  13.814
37044SOL     OW12970  14.136   8.376  14.641
37044SOL    HW112971  14.207   8.383  14.705
37044SOL    HW212972  14.093   8.293  14.661
37045SOL     OW12973  13.991   4.662   6.470
37045SOL    HW112974  13.995   4.570   6.498
37045SOL    HW212975  14.083   4.687   6.460
37046SOL     OW12976   0.659   0.832  12.613
37046SOL    HW112977   0.565   0.815  12.607
37046SOL    HW212978   0.698   0.746  12.631
37047SOL     OW12979  11.583   5.110   8.272
37047SOL    HW112980  11.670   5.109   8.312
37047SOL    HW212981  11.562   5.204   8.265
37048SOL     OW12982   9.264  11.546  10.205
37048SOL    HW112983   9.181  11.581  10.173
37048SOL    HW212984   9.239  11.475  10.264
37049SOL     OW12985   4.817   9.007   1.479
37049SOL    HW112986   4.797   9.063   1.404
37049SOL    HW212987   4.825   9.067   1.553
37050SOL     OW12988   3.546   4.494   0.906
37050SOL    HW112989   3.617   4.434   0.928
37050SOL    HW212990   3.466   4.442   0.919
37051SOL     OW12991   7.709   9.320  14.417
37051SOL    HW112992   7.787   9.348  14.369
37051SOL    HW212993   7.694   9.230  14.387
37052SOL     OW12994   1.360   2.964  11.390
37052SOL    HW112995   1.374   2.999  11.302
37052SOL    HW212996   1.436   2.910  11.407
37053SOL     OW12997   2.867   6.193   7.908
37053SOL    HW112998   2.916   6.205   7.826
37053SOL    HW212999   2.928   6.147   7.966
37054SOL     OW13000   7.354   6.479   5.374
37054SOL    HW113001   7.384   6.520   5.456
37054SOL    HW213002   7.434   6.467   5.323
37055SOL     OW13003   7.845   8.444   0.026
37055SOL    HW113004   7.936   8.468   0.006
37055SOL    HW213005   7.837   8.354  14.875
37056SOL     OW13006  13.639   8.633   0.644
37056SOL    HW113007  13.548   8.622   0.619
37056SOL    HW213008  13.663   8.719   0.610
37057SOL     OW13009   8.271   4.015   5.613
37057SOL    HW113010   8.329   4.091   5.605
37057SOL    HW213011   8.189   4.050   5.646
37058SOL     OW13012   8.329   9.340  12.697
37058SOL    HW113013   8.273   9.411  12.665
37058SOL    HW213014   8.414   9.357  12.657
37059SOL     OW13015   8.697   0.131  10.931
37059SOL    HW113016   8.612   0.093  10.954
37059SOL    HW213017   8.726   0.176  11.010
37060SOL     OW13018   0.508  12.315   8.788
37060SOL    HW113019   0.553  12.233   8.811
37060SOL    HW213020   0.452  12.333   8.863
37061SOL     OW13021   5.448  10.123   7.872
37061SOL    HW113022   5.433  10.049   7.930
37061SOL    HW213023   5.442  10.200   7.928
37062SOL     OW13024  14.470   3.054  12.387
37062SOL    HW113025  14.493   2.965  12.359
37062SOL    HW213026  14.542   3.108  12.355
37063SOL     OW13027   4.704   0.009  14.149
37063SOL    HW113028   4.697  14.840  14.231
37063SOL    HW213029   4.746  14.828  14.088
37064SOL     OW13030  13.867   2.128   4.612
37064SOL    HW113031  13.882   2.049   4.665
37064SOL    HW213032  13.785   2.165   4.647
37065SOL     OW13033  10.222   6.544   4.714
37065SOL    HW113034  10.300   6.506   4.673
37065SOL    HW213035  10.239   6.537   4.808
37066SOL     OW13036   0.072   2.170  13.898
37066SOL    HW113037   0.024   2.246  13.930
37066SOL    HW213038   0.143   2.158  13.962
37067SOL     OW13039  12.004  11.349   4.444
37067SOL    HW113040  11.940  11.300   4.392
37067SOL    HW213041  11.977  11.336   4.535
37068SOL     OW13042   7.143   0.293  12.763
37068SOL    HW113043   7.120   0.268  12.674
37068SOL    HW213044   7.065   0.337  12.797
37069SOL     OW13045   5.398  13.683   4.864
37069SOL    HW113046   5.397  13.706   4.771
37069SOL    HW213047   5.309  13.653   4.883
37070SOL     OW13048  14.208  11.040   9.366
37070SOL    HW113049  14.175  10.974   9.306
37070SOL    HW213050  14.297  11.059   9.335
37071SOL     OW13051  14.490   8.981   5.307
37071SOL    HW113052  14.494   8.958   5.214
37071SOL    HW213053  14.535   8.909   5.351
37072SOL     OW13054  13.326  11.283  14.865
37072SOL    HW113055  13.266  11.320  14.801
37072SOL    HW213056  13.301  11.191  14.871
37073SOL     OW13057   7.422   0.291   6.832
37073SOL    HW113058   7.330   0.272   6.814
37073SOL    HW213059   7.469   0.261   6.754
37074SOL     OW13060   7.899   6.392  11.366
37074SOL    HW113061   7.857   6.473  11.394
37074SOL    HW213062   7.839   6.354  11.303
37075SOL     OW13063   8.168   3.479   4.952
37075SOL    HW113064   8.213   3.526   5.022
37075SOL    HW213065   8.227   3.407   4.929
37076SOL     OW13066   6.994   0.200   7.343
37076SOL    HW113067   7.025   0.134   7.280
37076SOL    HW213068   7.072   0.251   7.363
37077SOL     OW13069  14.087   0.401  13.680
37077SOL    HW113070  14.103   0.353  13.599
37077SOL    HW213071  13.992   0.411  13.684
37078SOL     OW13072  13.233  14.135   8.159
37078SOL    HW113073  13.287  14.066   8.197
37078SOL    HW213074  13.284  14.167   8.085
37079SOL     OW13075   0.360   7.909   9.766
37079SOL    HW113076   0.282   7.865   9.731
37079SOL    HW213077   0.326   7.965   9.836
37080SOL     OW13078  10.871   1.416   0.825
37080SOL    HW113079  10.836   1.371   0.902
37080SOL    HW213080  10.859   1.355   0.753
37081SOL     OW13081   1.721   8.055   1.372
37081SOL    HW113082   1.815   8.053   1.354
37081SOL    HW213083   1.715   8.084   1.463
37082SOL     OW13084   2.272   3.029  13.774
37082SOL    HW113085   2.295   2.978  13.696
37082SOL    HW213086   2.249   2.963  13.839
37083SOL     OW13087   6.832   9.089  12.609
37083SOL    HW113088   6.798   9.105  12.521
37083SOL    HW213089   6.892   9.015  12.598
37084SOL     OW13090   1.849   2.335   6.110
37084SOL    HW113091   1.807   2.390   6.044
37084SOL    HW213092   1.777   2.309   6.168
37085SOL     OW13093   9.436   2.960  12.746
37085SOL    HW113094   9.342   2.956  12.726
37085SOL    HW213095   9.479   2.934  12.665
37086SOL     OW13096  11.322   9.517   8.209
37086SOL    HW113097  11.255   9.464   8.252
37086SOL    HW213098  11.404   9.493   8.253
37087SOL     OW13099   2.267   0.456   0.877
37087SOL    HW113100   2.290   0.546   0.853
37087SOL    HW213101   2.285   0.405   0.798
37088SOL     OW13102   1.518   9.960   6.112
37088SOL    HW113103   1.532   9.933   6.203
37088SOL    HW213104   1.603   9.992   6.082
37089SOL     OW13105   7.646  12.060   8.367
37089SOL    HW113106   7.697  12.026   8.293
37089SOL    HW213107   7.691  12.141   8.391
37090SOL     OW13108   7.557   6.209   0.046
37090SOL    HW113109   7.468   6.175   0.051
37090SOL    HW213110   7.547   6.301   0.021
37091SOL     OW13111   7.935  11.977   0.973
37091SOL    HW113112   7.848  11.993   0.938
37091SOL    HW213113   7.992  11.980   0.896
37092SOL     OW13114   3.590  10.095   8.709
37092SOL    HW113115   3.671  10.139   8.736
37092SOL    HW213116   3.594  10.009   8.749
37093SOL     OW13117  11.847   1.587   7.228
37093SOL    HW113118  11.890   1.501   7.222
37093SOL    HW213119  11.806   1.599   7.142
37094SOL     OW13120   9.160   4.829  10.434
37094SOL    HW113121   9.226   4.853  10.499
37094SOL    HW213122   9.199   4.851  10.350
37095SOL     OW13123   3.694   0.500  12.169
37095SOL    HW113124   3.683   0.595  12.169
37095SOL    HW213125   3.780   0.486  12.130
37096SOL     OW13126   4.763   5.208  11.927
37096SOL    HW113127   4.779   5.199  11.833
37096SOL    HW213128   4.741   5.300  11.939
37097SOL     OW13129  13.207   7.721   3.149
37097SOL    HW113130  13.273   7.653   3.133
37097SOL    HW213131  13.149   7.684   3.216
37098SOL     OW13132   6.187   4.474   2.059
37098SOL    HW113133   6.216   4.442   2.144
37098SOL    HW213134   6.252   4.540   2.035
37099SOL     OW13135   1.353   0.611   0.396
37099SOL    HW113136   1.422   0.632   0.458
37099SOL    HW213137   1.273   0.643   0.438
37100SOL     OW13138  14.325  14.164  12.985
37100SOL    HW113139  14.312  14.143  12.893
37100SOL    HW213140  14.268  14.103  13.032
37101SOL     OW13141  13.730   0.418   8.709
37101SOL    HW113142  13.762   0.468   8.784
37101SOL    HW213143  13.715   0.330   8.743
37102SOL     OW13144   9.561   0.356  10.023
37102SOL    HW113145   9.630   0.291  10.031
37102SOL    HW213146   9.488   0.319  10.073
37103SOL     OW13147   2.909   4.289  13.658
37103SOL    HW113148   2.940   4.200  13.645
37103SOL    HW213149   2.967   4.343  13.605
37104SOL     OW13150   4.455  14.056  11.742
37104SOL    HW113151   4.454  13.976  11.795
37104SOL    HW213152   4.393  14.038  11.670
37105SOL     OW13153   2.726  10.131   5.559
37105SOL    HW113154   2.751  10.173   5.641
37105SOL    HW213155   2.711  10.203   5.498
37106SOL     OW13156   3.896   1.414   4.289
37106SOL    HW113157   3.920   1.360   4.213
37106SOL    HW213158   3.803   1.397   4.302
37107SOL     OW13159   4.935  11.799  13.391
37107SOL    HW113160   4.997  11.823  13.322
37107SOL    HW213161   4.948  11.865  13.459
37108SOL     OW13162   1.299  11.101   4.670
37108SOL    HW113163   1.260  11.022   4.710
37108SOL    HW213164   1.231  11.168   4.680
37109SOL     OW13165  13.582   7.802  10.262
37109SOL    HW113166  13.578   7.726  10.204
37109SOL    HW213167  13.517   7.862  10.228
37110SOL     OW13168   3.661   2.011  10.332
37110SOL    HW113169   3.623   2.097  10.349
37110SOL    HW213170   3.711   1.991  10.411
37111SOL     OW13171  10.182   9.707   0.102
37111SOL    HW113172  10.113   9.650   0.135
37111SOL    HW213173  10.222   9.743   0.181
37112SOL     OW13174  10.857   5.646   0.997
37112SOL    HW113175  10.917   5.666   1.069
37112SOL    HW213176  10.788   5.713   1.005
37113SOL     OW13177   8.777  11.978   1.304
37113SOL    HW113178   8.757  12.063   1.345
37113SOL    HW213179   8.713  11.971   1.233
37114SOL     OW13180   9.808  11.892   7.324
37114SOL    HW113181   9.720  11.910   7.289
37114SOL    HW213182   9.811  11.796   7.329
37115SOL     OW13183   9.237   9.889   5.256
37115SOL    HW113184   9.144   9.867   5.253
37115SOL    HW213185   9.241   9.981   5.228
37116SOL     OW13186  14.824  11.358  10.694
37116SOL    HW113187  14.810  11.279  10.641
37116SOL    HW213188  14.739  11.374  10.736
37117SOL     OW13189   5.132   4.496   1.756
37117SOL    HW113190   5.119   4.506   1.851
37117SOL    HW213191   5.097   4.576   1.718
37118SOL     OW13192   6.609  13.607   4.239
37118SOL    HW113193   6.610  13.697   4.207
37118SOL    HW213194   6.518  13.580   4.234
37119SOL     OW13195   9.677   0.306   4.464
37119SOL    HW113196   9.682   0.339   4.553
37119SOL    HW213197   9.588   0.327   4.435
37120SOL     OW13198   4.857   8.369   2.269
37120SOL    HW113199   4.781   8.334   2.222
37120SOL    HW213200   4.871   8.308   2.341
37121SOL     OW13201   5.038  10.942  13.580
37121SOL    HW113202   5.005  11.030  13.564
37121SOL    HW213203   5.124  10.941  13.536
37122SOL     OW13204   7.402  12.289   0.224
37122SOL    HW113205   7.319  12.295   0.273
37122SOL    HW213206   7.389  12.344   0.147
37123SOL     OW13207   3.652   1.871   1.476
37123SOL    HW113208   3.589   1.831   1.536
37123SOL    HW213209   3.717   1.802   1.461
37124SOL     OW13210   2.162  13.528   3.758
37124SOL    HW113211   2.168  13.617   3.794
37124SOL    HW213212   2.074  13.523   3.721
37125SOL     OW13213  14.019  11.954   8.690
37125SOL    HW113214  14.034  11.942   8.784
37125SOL    HW213215  14.100  11.925   8.649
37126SOL     OW13216   0.526   2.383  10.853
37126SOL    HW113217   0.608   2.367  10.900
37126SOL    HW213218   0.487   2.458  10.898
37127SOL     OW13219  10.528   5.757   6.466
37127SOL    HW113220  10.534   5.813   6.389
37127SOL    HW213221  10.524   5.668   6.431
37128SOL     OW13222   9.193  10.729   5.548
37128SOL    HW113223   9.152  10.768   5.625
37128SOL    HW213224   9.202  10.637   5.569
37129SOL     OW13225   0.116   1.906  14.204
37129SOL    HW113226   0.140   1.880  14.115
37129SOL    HW213227   0.021   1.917  14.200
37130SOL     OW13228   0.569  13.904   2.387
37130SOL    HW113229   0.624  13.873   2.316
37130SOL    HW213230   0.536  13.825   2.429
37131SOL     OW13231   1.340   9.830   1.460
37131SOL    HW113232   1.398   9.762   1.428
37131SOL    HW213233   1.252   9.796   1.442
37132SOL     OW13234   1.896   1.236   9.341
37132SOL    HW113235   1.808   1.268   9.323
37132SOL    HW213236   1.886   1.175   9.414
37133SOL     OW13237   7.027   6.249   8.987
37133SOL    HW113238   6.977   6.235   9.067
37133SOL    HW213239   7.042   6.343   8.984
37134SOL     OW13240  10.916   3.143  12.507
37134SOL    HW113241  10.882   3.179  12.589
37134SOL    HW213242  10.958   3.216  12.463
37135SOL     OW13243   6.609   4.889  12.262
37135SOL    HW113244   6.669   4.939  12.207
37135SOL    HW213245   6.659   4.873  12.343
37136SOL     OW13246   2.921   1.250   2.781
37136SOL    HW113247   2.877   1.331   2.754
37136SOL    HW213248   2.864   1.214   2.849
37137SOL     OW13249  12.355  12.755   1.103
37137SOL    HW113250  12.358  12.831   1.162
37137SOL    HW213251  12.324  12.683   1.158
37138SOL     OW13252   4.496   1.639  13.535
37138SOL    HW113253   4.530   1.727  13.518
37138SOL    HW213254   4.435   1.623  13.462
37139SOL     OW13255   2.658   8.727  10.153
37139SOL    HW113256   2.682   8.745  10.062
37139SOL    HW213257   2.717   8.781  10.205
37140SOL     OW13258   4.955   7.691   7.279
37140SOL    HW113259   4.893   7.763   7.267
37140SOL    HW213260   4.924   7.646   7.357
37141SOL     OW13261  13.500   8.906   3.334
37141SOL    HW113262  13.532   8.881   3.421
37141SOL    HW213263  13.408   8.927   3.347
37142SOL     OW13264   2.298  12.807  11.631
37142SOL    HW113265   2.261  12.771  11.550
37142SOL    HW213266   2.356  12.738  11.663
37143SOL     OW13267   5.081   9.055  14.502
37143SOL    HW113268   5.137   9.022  14.573
37143SOL    HW213269   5.068   9.148  14.523
37144SOL     OW13270   3.653   9.083   8.472
37144SOL    HW113271   3.628   9.031   8.395
37144SOL    HW213272   3.589   9.154   8.475
37145SOL     OW13273  11.446   9.332  10.123
37145SOL    HW113274  11.425   9.238  10.121
37145SOL    HW213275  11.541   9.334  10.132
37146SOL     OW13276   1.480   2.379   2.256
37146SOL    HW113277   1.464   2.411   2.167
37146SOL    HW213278   1.426   2.300   2.263
37147SOL     OW13279  12.947   1.531  10.844
37147SOL    HW113280  12.862   1.572  10.827
37147SOL    HW213281  12.998   1.546  10.764
37148SOL     OW13282   6.769   9.748   1.347
37148SOL    HW113283   6.791   9.750   1.440
37148SOL    HW213284   6.689   9.696   1.342
37149SOL     OW13285   2.425   2.356  11.967
37149SOL    HW113286   2.405   2.388  12.055
37149SOL    HW213287   2.437   2.436  11.914
37150SOL     OW13288   2.397   8.673   9.800
37150SOL    HW113289   2.409   8.585   9.836
37150SOL    HW213290   2.426   8.666   9.709
37151SOL     OW13291   5.213  11.092   6.071
37151SOL    HW113292   5.139  11.116   6.126
37151SOL    HW213293   5.290  11.107   6.126
37152SOL     OW13294   5.438   8.919   1.641
37152SOL    HW113295   5.386   8.940   1.564
37152SOL    HW213296   5.521   8.967   1.627
37153SOL     OW13297  14.823  12.698   9.539
37153SOL    HW113298   0.024  12.646   9.537
37153SOL    HW213299  14.787  12.688   9.451
37154SOL     OW13300  10.942   9.347   1.671
37154SOL    HW113301  10.870   9.328   1.732
37154SOL    HW213302  10.929   9.440   1.649
37155SOL     OW13303   4.544   2.917  11.992
37155SOL    HW113304   4.623   2.887  12.037
37155SOL    HW213305   4.476   2.856  12.022
37156SOL     OW13306   5.509   3.723   3.364
37156SOL    HW113307   5.502   3.640   3.317
37156SOL    HW213308   5.439   3.720   3.429
37157SOL     OW13309   6.896  13.661  12.038
37157SOL    HW113310   6.940  13.584  12.004
37157SOL    HW213311   6.864  13.707  11.960
37158SOL     OW13312  10.221  11.325  13.565
37158SOL    HW113313  10.248  11.326  13.473
37158SOL    HW213314  10.129  11.301  13.562
37159SOL     OW13315   7.157   3.478   2.389
37159SOL    HW113316   7.161   3.383   2.376
37159SOL    HW213317   7.212   3.514   2.320
37160SOL     OW13318   2.189   2.475  14.565
37160SOL    HW113319   2.198   2.431  14.481
37160SOL    HW213320   2.194   2.568  14.545
37161SOL     OW13321   0.857   0.709   8.865
37161SOL    HW113322   0.796   0.642   8.834
37161SOL    HW213323   0.924   0.659   8.913
37162SOL     OW13324   9.743  13.551   5.266
37162SOL    HW113325   9.824  13.533   5.218
37162SOL    HW213326   9.771  13.597   5.345
37163SOL     OW13327   7.086   1.273   8.103
37163SOL    HW113328   7.112   1.199   8.047
37163SOL    HW213329   7.100   1.350   8.048
37164SOL     OW13330   1.716  12.758  13.591
37164SOL    HW113331   1.736  12.815  13.665
37164SOL    HW213332   1.696  12.673  13.630
37165SOL     OW13333  12.235  14.019   4.182
37165SOL    HW113334  12.211  13.926   4.180
37165SOL    HW213335  12.164  14.060   4.232
37166SOL     OW13336   8.349   0.727   6.570
37166SOL    HW113337   8.287   0.655   6.583
37166SOL    HW213338   8.335   0.753   6.479
37167SOL     OW13339   2.159   9.257   1.770
37167SOL    HW113340   2.078   9.225   1.730
37167SOL    HW213341   2.208   9.177   1.789
37168SOL     OW13342   9.971   8.666   1.763
37168SOL    HW113343   9.905   8.614   1.717
37168SOL    HW213344   9.960   8.642   1.855
37169SOL     OW13345   7.997   9.591   2.643
37169SOL    HW113346   7.957   9.573   2.558
37169SOL    HW213347   8.017   9.505   2.680
37170SOL     OW13348   0.367   1.682   8.479
37170SOL    HW113349   0.337   1.719   8.396
37170SOL    HW213350   0.405   1.597   8.455
37171SOL     OW13351  11.351   6.348   2.887
37171SOL    HW113352  11.410   6.306   2.949
37171SOL    HW213353  11.383   6.322   2.801
37172SOL     OW13354  11.188   1.362  12.453
37172SOL    HW113355  11.232   1.328  12.532
37172SOL    HW213356  11.227   1.311  12.381
37173SOL     OW13357   0.156   4.214   5.262
37173SOL    HW113358   0.220   4.284   5.270
37173SOL    HW213359   0.092   4.232   5.330
37174SOL     OW13360   3.621   7.318   2.212
37174SOL    HW113361   3.548   7.322   2.274
37174SOL    HW213362   3.580   7.295   2.129
37175SOL     OW13363   0.914   2.964   7.305
37175SOL    HW113364   0.862   2.906   7.361
37175SOL    HW213365   0.921   3.046   7.356
37176SOL     OW13366   4.698   5.852   9.399
37176SOL    HW113367   4.714   5.762   9.428
37176SOL    HW213368   4.765   5.904   9.444
37177SOL     OW13369  14.173  14.078   0.810
37177SOL    HW113370  14.196  14.019   0.738
37177SOL    HW213371  14.100  14.035   0.854
37178SOL     OW13372   8.922   9.839  10.725
37178SOL    HW113373   9.004   9.814  10.767
37178SOL    HW213374   8.855   9.788  10.771
37179SOL     OW13375   1.428  13.741   4.665
37179SOL    HW113376   1.503  13.800   4.662
37179SOL    HW213377   1.384  13.753   4.580
37180SOL     OW13378  11.227   1.277   6.076
37180SOL    HW113379  11.236   1.182   6.075
37180SOL    HW213380  11.299   1.308   6.131
37181SOL     OW13381  10.532  11.081   9.399
37181SOL    HW113382  10.582  11.102   9.478
37181SOL    HW213383  10.597  11.082   9.329
37182SOL     OW13384   9.691   4.722  14.485
37182SOL    HW113385   9.713   4.629  14.481
37182SOL    HW213386   9.598   4.725  14.462
37183SOL     OW13387   1.505   4.401   7.101
37183SOL    HW113388   1.539   4.467   7.040
37183SOL    HW213389   1.415   4.428   7.117
37184SOL     OW13390   6.720   3.145   1.215
37184SOL    HW113391   6.744   3.198   1.139
37184SOL    HW213392   6.625   3.158   1.224
37185SOL     OW13393   6.431   3.157  13.479
37185SOL    HW113394   6.462   3.248  13.480
37185SOL    HW213395   6.339   3.164  13.455
37186SOL     OW13396   1.329  13.051   1.681
37186SOL    HW113397   1.389  13.121   1.653
37186SOL    HW213398   1.245  13.095   1.691
37187SOL     OW13399   8.304  11.133  13.727
37187SOL    HW113400   8.286  11.219  13.763
37187SOL    HW213401   8.360  11.149  13.651
37188SOL     OW13402   1.553   0.688   0.611
37188SOL    HW113403   1.648   0.675   0.614
37188SOL    HW213404   1.525   0.686   0.702
37189SOL     OW13405  13.888   5.332   0.208
37189SOL    HW113406  13.822   5.301   0.270
37189SOL    HW213407  13.958   5.367   0.263
37190SOL     OW13408   0.745  12.574  13.994
37190SOL    HW113409   0.816  12.596  13.933
37190SOL    HW213410   0.689  12.515  13.944
37191SOL     OW13411   2.317   8.307   3.802
37191SOL    HW113412   2.361   8.230   3.766
37191SOL    HW213413   2.382   8.377   3.797
37192SOL     OW13414   2.579   3.535   3.913
37192SOL    HW113415   2.602   3.473   3.844
37192SOL    HW213416   2.658   3.586   3.927
37193SOL     OW13417   4.539   6.922  10.153
37193SOL    HW113418   4.605   6.985  10.182
37193SOL    HW213419   4.455   6.964  10.172
37194SOL     OW13420   2.779  13.687   1.238
37194SOL    HW113421   2.729  13.640   1.305
37194SOL    HW213422   2.840  13.623   1.203
37195SOL     OW13423  13.341  11.345   0.485
37195SOL    HW113424  13.311  11.263   0.445
37195SOL    HW213425  13.342  11.408   0.412
37196SOL     OW13426   0.846  13.790   4.844
37196SOL    HW113427   0.892  13.825   4.767
37196SOL    HW213428   0.877  13.843   4.917
37197SOL     OW13429   4.251   8.950   0.685
37197SOL    HW113430   4.305   8.887   0.731
37197SOL    HW213431   4.285   9.035   0.713
37198SOL     OW13432   2.999  14.174   6.789
37198SOL    HW113433   2.991  14.116   6.714
37198SOL    HW213434   3.044  14.252   6.755
37199SOL     OW13435   5.824  10.589  11.203
37199SOL    HW113436   5.905  10.547  11.174
37199SOL    HW213437   5.775  10.519  11.247
37200SOL     OW13438  10.179   8.590   6.460
37200SOL    HW113439  10.155   8.674   6.501
37200SOL    HW213440  10.095   8.549   6.440
37201SOL     OW13441   4.750   0.429  10.486
37201SOL    HW113442   4.805   0.352  10.500
37201SOL    HW213443   4.786   0.472  10.408
37202SOL     OW13444   7.523  14.552  12.966
37202SOL    HW113445   7.448  14.513  12.921
37202SOL    HW213446   7.598  14.528  12.912
37203SOL     OW13447   3.987  12.248   7.159
37203SOL    HW113448   3.954  12.300   7.086
37203SOL    HW213449   4.066  12.206   7.126
37204SOL     OW13450  13.539  12.774   0.247
37204SOL    HW113451  13.484  12.796   0.172
37204SOL    HW213452  13.593  12.852   0.262
37205SOL     OW13453   6.462  13.015   4.391
37205SOL    HW113454   6.511  13.003   4.310
37205SOL    HW213455   6.431  12.927   4.414
37206SOL     OW13456   7.846   9.381  10.545
37206SOL    HW113457   7.845   9.398  10.451
37206SOL    HW213458   7.922   9.429  10.578
37207SOL     OW13459   4.043  11.176   8.958
37207SOL    HW113460   4.026  11.222   8.876
37207SOL    HW213461   3.973  11.111   8.964
37208SOL     OW13462   4.659   2.675  14.528
37208SOL    HW113463   4.573   2.679  14.571
37208SOL    HW213464   4.678   2.581  14.523
37209SOL     OW13465   7.454   1.516  13.212
37209SOL    HW113466   7.527   1.456  13.228
37209SOL    HW213467   7.447   1.520  13.117
37210SOL     OW13468  10.629  11.107  11.658
37210SOL    HW113469  10.596  11.021  11.630
37210SOL    HW213470  10.670  11.090  11.743
37211SOL     OW13471   0.243   6.096   3.383
37211SOL    HW113472   0.175   6.029   3.382
37211SOL    HW213473   0.308   6.066   3.446
37212SOL     OW13474   2.366   2.008  14.259
37212SOL    HW113475   2.443   1.991  14.313
37212SOL    HW213476   2.300   2.041  14.320
37213SOL     OW13477   1.661   8.357  11.719
37213SOL    HW113478   1.580   8.307  11.713
37213SOL    HW213479   1.686   8.352  11.811
37214SOL     OW13480   4.621   2.692   6.395
37214SOL    HW113481   4.609   2.729   6.308
37214SOL    HW213482   4.646   2.767   6.450
37215SOL     OW13483  14.476   1.547   2.521
37215SOL    HW113484  14.569   1.531   2.505
37215SOL    HW213485  14.450   1.481   2.584
37216SOL     OW13486   9.113  11.231  12.767
37216SOL    HW113487   9.177  11.199  12.831
37216SOL    HW213488   9.081  11.152  12.724
37217SOL     OW13489   2.167  12.767   9.948
37217SOL    HW113490   2.134  12.856   9.963
37217SOL    HW213491   2.097  12.724   9.899
37218SOL     OW13492  10.733   4.863   6.487
37218SOL    HW113493  10.664   4.895   6.546
37218SOL    HW213494  10.726   4.918   6.409
37219SOL     OW13495   0.450   5.702   4.487
37219SOL    HW113496   0.385   5.655   4.435
37219SOL    HW213497   0.527   5.646   4.486
37220SOL     OW13498   4.365  13.008  11.226
37220SOL    HW113499   4.332  12.990  11.138
37220SOL    HW213500   4.341  13.100  11.242
37221SOL     OW13501  12.964  12.920   3.245
37221SOL    HW113502  12.918  12.836   3.245
37221SOL    HW213503  12.989  12.934   3.336
37222SOL     OW13504   6.354   6.278   1.711
37222SOL    HW113505   6.401   6.355   1.744
37222SOL    HW213506   6.266   6.285   1.747
37223SOL     OW13507  12.833   6.023   9.370
37223SOL    HW113508  12.793   5.987   9.291
37223SOL    HW213509  12.796   5.972   9.442
37224SOL     OW13510   8.204   8.543   3.607
37224SOL    HW113511   8.193   8.468   3.549
37224SOL    HW213512   8.170   8.512   3.692
37225SOL     OW13513   1.812   6.711   5.907
37225SOL    HW113514   1.810   6.737   5.815
37225SOL    HW213515   1.887   6.759   5.943
37226SOL     OW13516  14.400   2.404  10.723
37226SOL    HW113517  14.405   2.336  10.790
37226SOL    HW213518  14.464   2.470  10.751
37227SOL     OW13519   6.705   1.292  13.185
37227SOL    HW113520   6.755   1.366  13.218
37227SOL    HW213521   6.707   1.302  13.090
37228SOL     OW13522   1.369  10.850  11.560
37228SOL    HW113523   1.341  10.807  11.480
37228SOL    HW213524   1.308  10.923  11.571
37229SOL     OW13525   6.270  10.535   2.433
37229SOL    HW113526   6.196  10.495   2.478
37229SOL    HW213527   6.246  10.536   2.341
37230SOL     OW13528   3.738   1.418   5.295
37230SOL    HW113529   3.646   1.438   5.280
37230SOL    HW213530   3.743   1.398   5.388
37231SOL     OW13531   1.403   8.937  13.516
37231SOL    HW113532   1.404   9.030  13.492
37231SOL    HW213533   1.333   8.900  13.463
37232SOL     OW13534   7.669   0.653  13.890
37232SOL    HW113535   7.627   0.630  13.807
37232SOL    HW213536   7.611   0.619  13.958
37233SOL     OW13537  13.423   5.211   9.199
37233SOL    HW113538  13.415   5.303   9.175
37233SOL    HW213539  13.460   5.212   9.288
37234SOL     OW13540   0.165  14.010   5.954
37234SOL    HW113541   0.246  14.060   5.954
37234SOL    HW213542   0.117  14.042   5.878
37235SOL     OW13543   3.636  13.199   6.803
37235SOL    HW113544   3.660  13.161   6.887
37235SOL    HW213545   3.541  13.186   6.796
37236SOL     OW13546   0.888   8.023  12.576
37236SOL    HW113547   0.812   7.969  12.595
37236SOL    HW213548   0.953   7.962  12.542
37237SOL     OW13549  11.553  10.373   8.738
37237SOL    HW113550  11.519  10.454   8.776
37237SOL    HW213551  11.554  10.390   8.643
37238SOL     OW13552   1.928   4.550  10.306
37238SOL    HW113553   1.990   4.622  10.309
37238SOL    HW213554   1.878   4.557  10.388
37239SOL     OW13555   6.184   6.417   3.026
37239SOL    HW113556   6.256   6.354   3.033
37239SOL    HW213557   6.219   6.499   3.060
37240SOL     OW13558  10.899   3.082  11.404
37240SOL    HW113559  10.951   3.011  11.442
37240SOL    HW213560  10.870   3.134  11.479
37241SOL     OW13561   1.494   8.744  10.014
37241SOL    HW113562   1.429   8.774  10.078
37241SOL    HW213563   1.446   8.684   9.958
37242SOL     OW13564   2.175   3.320  13.598
37242SOL    HW113565   2.263   3.359  13.605
37242SOL    HW213566   2.147   3.308  13.689
37243SOL     OW13567   3.737   7.644   4.117
37243SOL    HW113568   3.656   7.661   4.166
37243SOL    HW213569   3.712   7.658   4.025
37244SOL     OW13570   7.933  12.487  14.052
37244SOL    HW113571   7.888  12.422  14.106
37244SOL    HW213572   7.912  12.571  14.093
37245SOL     OW13573   3.631  14.856   5.652
37245SOL    HW113574   3.690  14.838   5.726
37245SOL    HW213575   3.546  14.874   5.693
37246SOL     OW13576   8.762  12.736  14.250
37246SOL    HW113577   8.691  12.744  14.187
37246SOL    HW213578   8.837  12.777  14.207
37247SOL     OW13579  11.527   6.575   5.698
37247SOL    HW113580  11.444   6.605   5.662
37247SOL    HW213581  11.504   6.534   5.782
37248SOL     OW13582   7.735   4.903   9.211
37248SOL    HW113583   7.743   4.913   9.116
37248SOL    HW213584   7.731   4.992   9.244
37249SOL     OW13585   4.812   4.137  10.167
37249SOL    HW113586   4.900   4.121  10.201
37249SOL    HW213587   4.758   4.149  10.245
37250SOL     OW13588   8.230  13.531   8.405
37250SOL    HW113589   8.138  13.512   8.388
37250SOL    HW213590   8.277  13.489   8.332
37251SOL     OW13591  13.573   4.728   3.998
37251SOL    HW113592  13.510   4.792   4.033
37251SOL    HW213593  13.519   4.652   3.976
37252SOL     OW13594   4.231   5.169   2.205
37252SOL    HW113595   4.266   5.094   2.156
37252SOL    HW213596   4.229   5.139   2.296
37253SOL     OW13597   6.645   6.284  12.519
37253SOL    HW113598   6.707   6.215  12.496
37253SOL    HW213599   6.698   6.353  12.558
37254SOL     OW13600  10.592   5.154  12.858
37254SOL    HW113601  10.686   5.134  12.859
37254SOL    HW213602  10.552   5.083  12.909
37255SOL     OW13603   6.514   0.721   0.829
37255SOL    HW113604   6.426   0.687   0.815
37255SOL    HW213605   6.502   0.816   0.835
37256SOL     OW13606   8.470   4.425  11.665
37256SOL    HW113607   8.418   4.430  11.745
37256SOL    HW213608   8.540   4.489  11.677
37257SOL     OW13609  11.482  13.542   1.920
37257SOL    HW113610  11.452  13.455   1.893
37257SOL    HW213611  11.461  13.598   1.845
37258SOL     OW13612   9.430   0.199   6.340
37258SOL    HW113613   9.523   0.181   6.351
37258SOL    HW213614   9.391   0.115   6.314
37259SOL     OW13615  13.663  13.043   9.814
37259SOL    HW113616  13.725  13.093   9.762
37259SOL    HW213617  13.693  12.952   9.807
37260SOL     OW13618  10.294   9.082  13.651
37260SOL    HW113619  10.212   9.126  13.675
37260SOL    HW213620  10.309   9.108  13.560
37261SOL     OW13621   3.045   9.431  11.554
37261SOL    HW113622   3.080   9.370  11.489
37261SOL    HW213623   2.953   9.406  11.563
37262SOL     OW13624   6.634   3.819  12.948
37262SOL    HW113625   6.589   3.769  13.016
37262SOL    HW213626   6.614   3.910  12.969
37263SOL     OW13627  13.807   3.212  11.061
37263SOL    HW113628  13.769   3.126  11.047
37263SOL    HW213629  13.743   3.273  11.025
37264SOL     OW13630  14.464   8.333   5.527
37264SOL    HW113631  14.458   8.249   5.480
37264SOL    HW213632  14.554   8.361   5.514
37265SOL     OW13633   2.234   0.437  10.274
37265SOL    HW113634   2.210   0.376  10.343
37265SOL    HW213635   2.305   0.393  10.226
37266SOL     OW13636   7.276  11.076  13.036
37266SOL    HW113637   7.272  11.094  12.942
37266SOL    HW213638   7.209  11.133  13.075
37267SOL     OW13639  12.047  12.894   8.365
37267SOL    HW113640  12.092  12.978   8.373
37267SOL    HW213641  12.063  12.867   8.275
37268SOL     OW13642   0.597   8.698   8.681
37268SOL    HW113643   0.586   8.752   8.603
37268SOL    HW213644   0.631   8.759   8.747
37269SOL     OW13645  12.952   5.268  10.720
37269SOL    HW113646  12.961   5.216  10.800
37269SOL    HW213647  12.921   5.205  10.654
37270SOL     OW13648   5.749   9.303  13.070
37270SOL    HW113649   5.778   9.214  13.086
37270SOL    HW213650   5.743   9.342  13.157
37271SOL     OW13651  12.149   6.909  12.897
37271SOL    HW113652  12.234   6.944  12.872
37271SOL    HW213653  12.118   6.969  12.965
37272SOL     OW13654   4.666   4.850   1.265
37272SOL    HW113655   4.640   4.758   1.261
37272SOL    HW213656   4.587   4.897   1.293
37273SOL     OW13657   9.965   5.717   3.769
37273SOL    HW113658   9.995   5.766   3.845
37273SOL    HW213659  10.046   5.688   3.726
37274SOL     OW13660  13.193  14.465   6.862
37274SOL    HW113661  13.103  14.489   6.883
37274SOL    HW213662  13.187  14.416   6.781
37275SOL     OW13663  10.736  11.285  13.835
37275SOL    HW113664  10.679  11.238  13.896
37275SOL    HW213665  10.775  11.355  13.887
37276SOL     OW13666   3.998  13.944   0.538
37276SOL    HW113667   4.045  14.025   0.559
37276SOL    HW213668   4.017  13.886   0.611
37277SOL     OW13669   8.563   4.549  14.449
37277SOL    HW113670   8.648   4.507  14.456
37277SOL    HW213671   8.531   4.525  14.362
37278SOL     OW13672   1.730   9.226   6.124
37278SOL    HW113673   1.725   9.132   6.143
37278SOL    HW213674   1.781   9.262   6.197
37279SOL     OW13675   7.634   5.791  11.017
37279SOL    HW113676   7.574   5.717  11.013
37279SOL    HW213677   7.610   5.845  10.942
37280SOL     OW13678   4.222   4.952   9.176
37280SOL    HW113679   4.260   4.936   9.262
37280SOL    HW213680   4.129   4.969   9.193
37281SOL     OW13681  11.276   6.853   9.757
37281SOL    HW113682  11.363   6.871   9.721
37281SOL    HW213683  11.266   6.758   9.747
37282SOL     OW13684   6.455  13.678   7.032
37282SOL    HW113685   6.551  13.682   7.032
37282SOL    HW213686   6.428  13.745   7.094
37283SOL     OW13687  11.657   3.193   4.281
37283SOL    HW113688  11.646   3.100   4.261
37283SOL    HW213689  11.678   3.194   4.375
37284SOL     OW13690   1.446   9.397   5.587
37284SOL    HW113691   1.387   9.323   5.599
37284SOL    HW213692   1.488   9.381   5.502
37285SOL     OW13693   3.595   7.066   3.758
37285SOL    HW113694   3.528   7.044   3.822
37285SOL    HW213695   3.594   7.162   3.754
37286SOL     OW13696   5.528  13.451  12.503
37286SOL    HW113697   5.534  13.434  12.596
37286SOL    HW213698   5.618  13.474  12.477
37287SOL     OW13699  12.267   1.599   9.483
37287SOL    HW113700  12.275   1.672   9.545
37287SOL    HW213701  12.323   1.623   9.410
37288SOL     OW13702  13.097   5.657   4.214
37288SOL    HW113703  13.044   5.581   4.237
37288SOL    HW213704  13.052   5.732   4.254
37289SOL     OW13705   4.010  12.125  10.441
37289SOL    HW113706   4.020  12.120  10.346
37289SOL    HW213707   3.925  12.167  10.453
37290SOL     OW13708   1.370   9.208  13.463
37290SOL    HW113709   1.340   9.232  13.551
37290SOL    HW213710   1.452   9.257  13.452
37291SOL     OW13711  12.671  11.001   0.411
37291SOL    HW113712  12.622  11.029   0.488
37291SOL    HW213713  12.729  11.074   0.391
37292SOL     OW13714  12.833  12.977   2.624
37292SOL    HW113715  12.863  13.052   2.572
37292SOL    HW213716  12.822  13.013   2.712
37293SOL     OW13717  14.400   8.850   1.931
37293SOL    HW113718  14.434   8.788   1.996
37293SOL    HW213719  14.316   8.879   1.967
37294SOL     OW13720   1.448  11.703   5.111
37294SOL    HW113721   1.469  11.616   5.146
37294SOL    HW213722   1.421  11.754   5.187
37295SOL     OW13723  11.479   6.084   1.800
37295SOL    HW113724  11.516   6.034   1.872
37295SOL    HW213725  11.555   6.119   1.753
37296SOL     OW13726   5.863   7.699   0.102
37296SOL    HW113727   5.933   7.760   0.125
37296SOL    HW213728   5.873   7.685   0.008
37297SOL     OW13729  11.853  11.756   5.724
37297SOL    HW113730  11.812  11.685   5.774
37297SOL    HW213731  11.944  11.728   5.715
37298SOL     OW13732   8.158   4.627  14.763
37298SOL    HW113733   8.195   4.594  14.681
37298SOL    HW213734   8.229   4.676  14.804
37299SOL     OW13735   6.666  13.356   9.612
37299SOL    HW113736   6.714  13.407   9.677
37299SOL    HW213737   6.731  13.293   9.578
37300SOL     OW13738  11.502   2.428   0.071
37300SOL    HW113739  11.590   2.452   0.042
37300SOL    HW213740  11.503   2.444   0.166
37301SOL     OW13741  13.762   6.476   9.193
37301SOL    HW113742  13.777   6.489   9.287
37301SOL    HW213743  13.668   6.490   9.182
37302SOL     OW13744   7.352  11.038   5.064
37302SOL    HW113745   7.281  11.086   5.022
37302SOL    HW213746   7.427  11.049   5.005
37303SOL     OW13747  12.763   9.393   6.090
37303SOL    HW113748  12.767   9.337   6.168
37303SOL    HW213749  12.825   9.463   6.108
37304SOL     OW13750   0.314   3.615   8.661
37304SOL    HW113751   0.316   3.645   8.570
37304SOL    HW213752   0.223   3.629   8.689
37305SOL     OW13753   4.556   3.773  12.825
37305SOL    HW113754   4.472   3.803  12.862
37305SOL    HW213755   4.581   3.842  12.764
37306SOL     OW13756   5.227   0.649  13.027
37306SOL    HW113757   5.263   0.734  13.002
37306SOL    HW213758   5.182   0.666  13.110
37307SOL     OW13759  14.584  11.391   1.295
37307SOL    HW113760  14.665  11.341   1.293
37307SOL    HW213761  14.609  11.475   1.333
37308SOL     OW13762  14.430   2.821  12.863
37308SOL    HW113763  14.440   2.853  12.953
37308SOL    HW213764  14.405   2.898  12.813
37309SOL     OW13765   4.978   0.429  12.849
37309SOL    HW113766   5.037   0.373  12.899
37309SOL    HW213767   4.899   0.377  12.836
37310SOL     OW13768   4.318   3.756   0.619
37310SOL    HW113769   4.327   3.662   0.604
37310SOL    HW213770   4.398   3.794   0.582
37311SOL     OW13771   9.138  12.437   7.249
37311SOL    HW113772   9.103  12.377   7.184
37311SOL    HW213773   9.120  12.395   7.333
37312SOL     OW13774   7.010  14.578   4.468
37312SOL    HW113775   7.075  14.581   4.538
37312SOL    HW213776   7.050  14.523   4.400
37313SOL     OW13777  14.195   2.560  12.634
37313SOL    HW113778  14.282   2.535  12.663
37313SOL    HW213779  14.192   2.655  12.645
37314SOL     OW13780  11.411  13.610  13.043
37314SOL    HW113781  11.501  13.577  13.047
37314SOL    HW213782  11.409  13.681  13.106
37315SOL     OW13783   4.703  10.239   2.175
37315SOL    HW113784   4.764  10.176   2.137
37315SOL    HW213785   4.668  10.195   2.253
37316SOL     OW13786  10.037   1.945   5.621
37316SOL    HW113787  10.027   1.858   5.584
37316SOL    HW213788  10.126   1.948   5.655
37317SOL     OW13789   6.573   7.118   0.927
37317SOL    HW113790   6.645   7.126   0.864
37317SOL    HW213791   6.611   7.149   1.010
37318SOL     OW13792   0.765  10.693   3.445
37318SOL    HW113793   0.725  10.640   3.515
37318SOL    HW213794   0.767  10.782   3.481
37319SOL     OW13795   7.010   2.925  12.523
37319SOL    HW113796   7.014   2.844  12.471
37319SOL    HW213797   7.027   2.995  12.460
37320SOL     OW13798   4.996  10.187   8.454
37320SOL    HW113799   5.073  10.131   8.447
37320SOL    HW213800   5.007  10.234   8.536
37321SOL     OW13801   9.296   2.570   6.768
37321SOL    HW113802   9.323   2.607   6.852
37321SOL    HW213803   9.243   2.494   6.791
37322SOL     OW13804   9.682   0.067   2.565
37322SOL    HW113805   9.647   0.062   2.476
37322SOL    HW213806   9.776   0.082   2.553
37323SOL     OW13807   9.960  10.911   2.898
37323SOL    HW113808  10.005  10.888   2.817
37323SOL    HW213809  10.021  10.885   2.967
37324SOL     OW13810   6.523  11.315  12.845
37324SOL    HW113811   6.485  11.227  12.852
37324SOL    HW213812   6.447  11.373  12.843
37325SOL     OW13813   7.066  13.409   5.265
37325SOL    HW113814   7.061  13.460   5.346
37325SOL    HW213815   6.974  13.396   5.239
37326SOL     OW13816  10.773  12.511   5.846
37326SOL    HW113817  10.783  12.499   5.751
37326SOL    HW213818  10.719  12.437   5.874
37327SOL     OW13819  11.503  12.243  11.753
37327SOL    HW113820  11.570  12.311  11.752
37327SOL    HW213821  11.488  12.225  11.845
37328SOL     OW13822   2.694   2.820  14.777
37328SOL    HW113823   2.705   2.820  14.873
37328SOL    HW213824   2.777   2.789  14.743
37329SOL     OW13825   9.006   2.211   8.980
37329SOL    HW113826   8.934   2.159   8.945
37329SOL    HW213827   9.084   2.172   8.942
37330SOL     OW13828  12.663   4.674   0.427
37330SOL    HW113829  12.693   4.764   0.436
37330SOL    HW213830  12.743   4.622   0.422
37331SOL     OW13831   4.250   9.550   4.566
37331SOL    HW113832   4.330   9.498   4.578
37331SOL    HW213833   4.277   9.622   4.509
37332SOL     OW13834   4.587   8.948   7.647
37332SOL    HW113835   4.623   8.972   7.733
37332SOL    HW213836   4.502   8.909   7.666
37333SOL     OW13837   1.025  11.729  14.856
37333SOL    HW113838   0.958  11.775   0.026
37333SOL    HW213839   0.976  11.665  14.803
37334SOL     OW13840   4.199   6.663   8.309
37334SOL    HW113841   4.271   6.715   8.272
37334SOL    HW213842   4.137   6.654   8.237
37335SOL     OW13843   5.041   1.526   0.937
37335SOL    HW113844   5.056   1.476   1.018
37335SOL    HW213845   5.088   1.477   0.870
37336SOL     OW13846   3.245   6.080   3.892
37336SOL    HW113847   3.160   6.094   3.933
37336SOL    HW213848   3.262   6.163   3.846
37337SOL     OW13849   0.040  12.565  14.309
37337SOL    HW113850   0.125  12.588  14.271
37337SOL    HW213851   0.030  12.626  14.382
37338SOL     OW13852   0.247   3.336   6.134
37338SOL    HW113853   0.214   3.412   6.086
37338SOL    HW213854   0.169   3.281   6.149
37339SOL     OW13855  11.267  13.439   7.778
37339SOL    HW113856  11.257  13.497   7.854
37339SOL    HW213857  11.331  13.484   7.723
37340SOL     OW13858   1.921   0.636   3.121
37340SOL    HW113859   1.975   0.698   3.072
37340SOL    HW213860   1.922   0.669   3.211
37341SOL     OW13861   4.310  12.189   2.283
37341SOL    HW113862   4.393  12.223   2.248
37341SOL    HW213863   4.283  12.254   2.348
37342SOL     OW13864   4.311  14.638  14.387
37342SOL    HW113865   4.292  14.703  14.319
37342SOL    HW213866   4.246  14.654  14.455
37343SOL     OW13867   3.557   7.275   1.127
37343SOL    HW113868   3.617   7.283   1.053
37343SOL    HW213869   3.598   7.326   1.197
37344SOL     OW13870   3.096  11.408  11.120
37344SOL    HW113871   3.028  11.404  11.053
37344SOL    HW213872   3.112  11.502  11.132
37345SOL     OW13873   9.538   2.112   5.368
37345SOL    HW113874   9.603   2.095   5.436
37345SOL    HW213875   9.579   2.082   5.287
37346SOL     OW13876  10.835  14.661   3.890
37346SOL    HW113877  10.840  14.745   3.845
37346SOL    HW213878  10.744  14.634   3.879
37347SOL     OW13879   0.181  11.078   4.111
37347SOL    HW113880   0.264  11.095   4.067
37347SOL    HW213881   0.189  10.989   4.145
37348SOL     OW13882   2.727   8.396   0.851
37348SOL    HW113883   2.645   8.386   0.898
37348SOL    HW213884   2.712   8.471   0.792
37349SOL     OW13885  12.823   7.545   2.615
37349SOL    HW113886  12.846   7.633   2.646
37349SOL    HW213887  12.904   7.510   2.578
37350SOL     OW13888   5.737   8.958  10.460
37350SOL    HW113889   5.772   8.880  10.417
37350SOL    HW213890   5.683   9.000  10.393
37351SOL     OW13891   6.903   5.604  11.089
37351SOL    HW113892   6.951   5.619  11.008
37351SOL    HW213893   6.823   5.558  11.062
37352SOL     OW13894   9.568  10.113  14.800
37352SOL    HW113895   9.554  10.206  14.817
37352SOL    HW213896   9.650  10.109  14.751
37353SOL     OW13897   8.667  14.132   2.805
37353SOL    HW113898   8.573  14.117   2.793
37353SOL    HW213899   8.699  14.053   2.849
37354SOL     OW13900   4.504  14.329   3.999
37354SOL    HW113901   4.577  14.277   3.966
37354SOL    HW213902   4.536  14.419   3.998
37355SOL     OW13903  12.144  11.990   7.415
37355SOL    HW113904  12.069  11.940   7.447
37355SOL    HW213905  12.181  12.030   7.494
37356SOL     OW13906   3.737   0.267   6.912
37356SOL    HW113907   3.739   0.361   6.895
37356SOL    HW213908   3.692   0.258   6.996
37357SOL     OW13909  11.718   5.269   6.435
37357SOL    HW113910  11.698   5.179   6.411
37357SOL    HW213911  11.670   5.283   6.517
37358SOL     OW13912   9.994  10.598   5.069
37358SOL    HW113913  10.064  10.554   5.117
37358SOL    HW213914   9.921  10.601   5.130
37359SOL     OW13915   8.797   3.976   2.201
37359SOL    HW113916   8.773   3.974   2.293
37359SOL    HW213917   8.713   3.973   2.154
37360SOL     OW13918   9.409  11.753  11.918
37360SOL    HW113919   9.489  11.706  11.942
37360SOL    HW213920   9.350  11.685  11.885
37361SOL     OW13921   4.928   6.879   9.281
37361SOL    HW113922   4.870   6.851   9.210
37361SOL    HW213923   4.914   6.974   9.286
37362SOL     OW13924   9.039   2.532   9.851
37362SOL    HW113925   9.013   2.482   9.928
37362SOL    HW213926   9.097   2.473   9.803
37363SOL     OW13927   0.208   4.978   4.844
37363SOL    HW113928   0.299   5.008   4.838
37363SOL    HW213929   0.156   5.050   4.809
37364SOL     OW13930  14.569   8.010  14.432
37364SOL    HW113931  14.517   8.090  14.432
37364SOL    HW213932  14.536   7.960  14.506
37365SOL     OW13933   7.003   9.850  10.163
37365SOL    HW113934   7.069   9.890  10.220
37365SOL    HW213935   6.921   9.855  10.213
37366SOL     OW13936  14.679   2.676  14.863
37366SOL    HW113937  14.599   2.640   0.021
37366SOL    HW213938  14.739   2.601  14.857
37367SOL     OW13939   4.834   0.299  11.175
37367SOL    HW113940   4.895   0.373  11.171
37367SOL    HW213941   4.771   0.316  11.105
37368SOL     OW13942  12.164   9.502   4.637
37368SOL    HW113943  12.171   9.462   4.724
37368SOL    HW213944  12.112   9.440   4.587
37369SOL     OW13945   9.293   3.198   8.925
37369SOL    HW113946   9.282   3.188   9.020
37369SOL    HW213947   9.253   3.283   8.906
37370SOL     OW13948   6.249  11.218  11.187
37370SOL    HW113949   6.243  11.233  11.281
37370SOL    HW213950   6.337  11.182  11.175
37371SOL     OW13951   0.047  14.874   6.643
37371SOL    HW113952   0.131   0.036   6.625
37371SOL    HW213953   0.042  14.802   6.580
37372SOL     OW13954   2.260   1.180   4.610
37372SOL    HW113955   2.261   1.118   4.537
37372SOL    HW213956   2.344   1.226   4.602
37373SOL     OW13957  13.176   0.445  10.267
37373SOL    HW113958  13.209   0.411  10.183
37373SOL    HW213959  13.117   0.516  10.242
37374SOL     OW13960   9.945   2.116   6.706
37374SOL    HW113961  10.024   2.062   6.709
37374SOL    HW213962   9.972   2.194   6.657
37375SOL     OW13963  10.885   5.603  13.202
37375SOL    HW113964  10.942   5.527  13.206
37375SOL    HW213965  10.833   5.598  13.282
37376SOL     OW13966  14.355   1.587   9.628
37376SOL    HW113967  14.346   1.631   9.712
37376SOL    HW213968  14.432   1.627   9.588
37377SOL     OW13969   7.707   9.182   0.449
37377SOL    HW113970   7.731   9.275   0.447
37377SOL    HW213971   7.775   9.139   0.397
37378SOL     OW13972  14.681  14.140  11.147
37378SOL    HW113973  14.600  14.103  11.182
37378SOL    HW213974  14.691  14.223  11.193
37379SOL     OW13975  14.259   0.913  11.677
37379SOL    HW113976  14.336   0.969  11.682
37379SOL    HW213977  14.220   0.933  11.592
37380SOL     OW13978  10.673   9.026   6.176
37380SOL    HW113979  10.726   9.054   6.101
37380SOL    HW213980  10.707   9.076   6.250
37381SOL     OW13981  11.199  11.552  10.148
37381SOL    HW113982  11.191  11.482  10.082
37381SOL    HW213983  11.191  11.633  10.097
37382SOL     OW13984  14.808   1.404  13.403
37382SOL    HW113985  14.806   1.392  13.498
37382SOL    HW213986  14.751   1.479  13.387
37383SOL     OW13987   1.397   2.642   4.134
37383SOL    HW113988   1.410   2.560   4.085
37383SOL    HW213989   1.349   2.615   4.213
37384SOL     OW13990  12.378   2.027  11.097
37384SOL    HW113991  12.338   2.108  11.131
37384SOL    HW213992  12.365   1.963  11.168
37385SOL     OW13993   9.320  10.691   4.340
37385SOL    HW113994   9.381  10.668   4.270
37385SOL    HW213995   9.240  10.717   4.295
37386SOL     OW13996   1.023   0.511   4.948
37386SOL    HW113997   0.929   0.509   4.929
37386SOL    HW213998   1.028   0.538   5.040
37387SOL     OW13999  13.192  10.723   4.888
37387SOL    HW114000  13.139  10.765   4.955
37387SOL    HW214001  13.239  10.795   4.846
37388SOL     OW14002   5.270   3.185   5.925
37388SOL    HW114003   5.192   3.220   5.968
37388SOL    HW214004   5.257   3.090   5.925
37389SOL     OW14005   0.334  14.764  14.452
37389SOL    HW114006   0.272  14.720  14.511
37389SOL    HW214007   0.351  14.699  14.383
37390SOL     OW14008   7.131   6.082   7.903
37390SOL    HW114009   7.058   6.024   7.924
37390SOL    HW214010   7.186   6.031   7.843
37391SOL     OW14011  11.851   1.554   6.770
37391SOL    HW114012  11.869   1.639   6.728
37391SOL    HW214013  11.824   1.577   6.859
37392SOL     OW14014   5.886  10.660   6.872
37392SOL    HW114015   5.932  10.578   6.855
37392SOL    HW214016   5.896  10.710   6.791
37393SOL     OW14017  13.280   4.737   6.946
37393SOL    HW114018  13.336   4.687   7.006
37393SOL    HW214019  13.331   4.743   6.865
37394SOL     OW14020   6.889   3.911   1.633
37394SOL    HW114021   6.960   3.968   1.664
37394SOL    HW214022   6.903   3.828   1.678
37395SOL     OW14023   0.757  12.411   7.809
37395SOL    HW114024   0.693  12.420   7.738
37395SOL    HW214025   0.841  12.399   7.764
37396SOL     OW14026  13.494  12.359   4.055
37396SOL    HW114027  13.408  12.388   4.087
37396SOL    HW214028  13.547  12.349   4.134
37397SOL     OW14029   0.865  11.181   2.141
37397SOL    HW114030   0.840  11.197   2.232
37397SOL    HW214031   0.783  11.184   2.092
37398SOL     OW14032   6.125   6.879   4.054
37398SOL    HW114033   6.121   6.857   4.147
37398SOL    HW214034   6.204   6.933   4.046
37399SOL     OW14035   9.751   1.639  14.374
37399SOL    HW114036   9.707   1.557  14.352
37399SOL    HW214037   9.742   1.693  14.296
37400SOL     OW14038   0.911   0.708   4.101
37400SOL    HW114039   0.971   0.760   4.155
37400SOL    HW214040   0.897   0.628   4.150
37401SOL     OW14041   9.285   3.538  13.469
37401SOL    HW114042   9.287   3.520  13.563
37401SOL    HW214043   9.317   3.628  13.461
37402SOL     OW14044   2.261  10.755   6.158
37402SOL    HW114045   2.257  10.816   6.085
37402SOL    HW214046   2.216  10.677   6.127
37403SOL     OW14047   6.350  10.695   9.152
37403SOL    HW114048   6.303  10.614   9.173
37403SOL    HW214049   6.318  10.759   9.216
37404SOL     OW14050  12.700   3.134   2.635
37404SOL    HW114051  12.787   3.096   2.643
37404SOL    HW214052  12.689   3.187   2.715
37405SOL     OW14053   5.345   0.865   0.511
37405SOL    HW114054   5.412   0.934   0.512
37405SOL    HW214055   5.394   0.784   0.520
37406SOL     OW14056   9.485   0.721   4.529
37406SOL    HW114057   9.563   0.727   4.586
37406SOL    HW214058   9.519   0.690   4.445
37407SOL     OW14059   8.581   3.862   2.838
37407SOL    HW114060   8.546   3.847   2.751
37407SOL    HW214061   8.667   3.821   2.837
37408SOL     OW14062   1.589   4.069   6.547
37408SOL    HW114063   1.610   4.161   6.561
37408SOL    HW214064   1.495   4.069   6.528
37409SOL     OW14065   1.404  14.725   9.284
37409SOL    HW114066   1.433  14.652   9.229
37409SOL    HW214067   1.412  14.691   9.374
37410SOL     OW14068   0.901   4.195   3.464
37410SOL    HW114069   0.881   4.282   3.431
37410SOL    HW214070   0.939   4.149   3.389
37411SOL     OW14071   9.445   9.663   7.365
37411SOL    HW114072   9.486   9.724   7.426
37411SOL    HW214073   9.354   9.658   7.394
37412SOL     OW14074   6.776   4.556  10.346
37412SOL    HW114075   6.815   4.470  10.328
37412SOL    HW214076   6.839   4.619  10.310
37413SOL     OW14077  11.456  10.516   5.895
37413SOL    HW114078  11.405  10.452   5.944
37413SOL    HW214079  11.409  10.599   5.907
37414SOL     OW14080   8.840   3.923  10.493
37414SOL    HW114081   8.779   3.968  10.435
37414SOL    HW214082   8.919   3.912  10.441
37415SOL     OW14083   5.881   7.956  10.882
37415SOL    HW114084   5.957   7.966  10.939
37415SOL    HW214085   5.900   8.012  10.806
37416SOL     OW14086   5.200   3.983  11.245
37416SOL    HW114087   5.206   4.067  11.291
37416SOL    HW214088   5.132   3.997  11.179
37417SOL     OW14089  10.031   5.033  14.447
37417SOL    HW114090  10.083   5.109  14.420
37417SOL    HW214091   9.982   5.064  14.524
37418SOL     OW14092   8.902   3.243   2.971
37418SOL    HW114093   8.950   3.214   2.893
37418SOL    HW214094   8.958   3.217   3.045
37419SOL     OW14095  11.140   1.263   3.489
37419SOL    HW114096  11.105   1.287   3.574
37419SOL    HW214097  11.169   1.172   3.499
37420SOL     OW14098   4.156  13.046   7.034
37420SOL    HW114099   4.173  12.964   7.082
37420SOL    HW214100   4.223  13.106   7.067
37421SOL     OW14101  13.281   4.448   7.317
37421SOL    HW114102  13.217   4.390   7.276
37421SOL    HW214103  13.296   4.409   7.403
37422SOL     OW14104   3.626   9.660   5.043
37422SOL    HW114105   3.698   9.707   5.001
37422SOL    HW214106   3.612   9.583   4.988
37423SOL     OW14107   6.385  13.211   0.098
37423SOL    HW114108   6.338  13.190   0.179
37423SOL    HW214109   6.316  13.222   0.032
37424SOL     OW14110   2.844  10.808   9.617
37424SOL    HW114111   2.775  10.761   9.664
37424SOL    HW214112   2.851  10.763   9.532
37425SOL     OW14113   6.683   4.709   9.345
37425SOL    HW114114   6.650   4.623   9.373
37425SOL    HW214115   6.693   4.701   9.250
37426SOL     OW14116   4.233   6.503   6.954
37426SOL    HW114117   4.230   6.419   7.000
37426SOL    HW214118   4.297   6.554   7.004
37427SOL     OW14119  11.386   7.224  11.868
37427SOL    HW114120  11.478   7.237  11.848
37427SOL    HW214121  11.360   7.149  11.816
37428SOL     OW14122   8.000   1.279   6.885
37428SOL    HW114123   8.094   1.274   6.868
37428SOL    HW214124   7.965   1.198   6.849
37429SOL     OW14125  10.633   1.415  11.038
37429SOL    HW114126  10.657   1.366  10.959
37429SOL    HW214127  10.623   1.505  11.008
37430SOL     OW14128   3.032  13.932   6.971
37430SOL    HW114129   2.973  13.857   6.971
37430SOL    HW214130   3.001  13.986   6.897
37431SOL     OW14131  13.438   1.617   3.778
37431SOL    HW114132  13.346   1.610   3.804
37431SOL    HW214133  13.436   1.651   3.689
37432SOL     OW14134   9.415   3.984   3.038
37432SOL    HW114135   9.428   4.043   2.964
37432SOL    HW214136   9.463   3.905   3.014
37433SOL     OW14137  12.093  12.608   8.301
37433SOL    HW114138  12.170  12.580   8.350
37433SOL    HW214139  12.102  12.703   8.296
37434SOL     OW14140  14.219  14.164   9.006
37434SOL    HW114141  14.198  14.256   9.022
37434SOL    HW214142  14.312  14.157   9.027
37435SOL     OW14143  11.257  14.776   6.286
37435SOL    HW114144  11.266  14.870   6.275
37435SOL    HW214145  11.195  14.765   6.358
37436SOL     OW14146  13.498   4.116  12.903
37436SOL    HW114147  13.438   4.171  12.853
37436SOL    HW214148  13.562   4.176  12.940
37437SOL     OW14149   8.009   2.199   8.057
37437SOL    HW114150   7.925   2.161   8.033
37437SOL    HW214151   8.073   2.148   8.007
37438SOL     OW14152  12.905   3.294   9.708
37438SOL    HW114153  12.974   3.358   9.686
37438SOL    HW214154  12.827   3.347   9.720
37439SOL     OW14155   3.827   9.710   4.273
37439SOL    HW114156   3.750   9.661   4.301
37439SOL    HW214157   3.900   9.652   4.293
37440SOL     OW14158   7.531   9.097  11.221
37440SOL    HW114159   7.452   9.096  11.275
37440SOL    HW214160   7.516   9.029  11.155
37441SOL     OW14161   7.931  14.266   7.478
37441SOL    HW114162   7.901  14.235   7.564
37441SOL    HW214163   8.025  14.250   7.478
37442SOL     OW14164   6.050   1.799  12.561
37442SOL    HW114165   6.028   1.797  12.654
37442SOL    HW214166   6.015   1.883  12.530
37443SOL     OW14167  11.041  13.356   4.161
37443SOL    HW114168  11.039  13.424   4.227
37443SOL    HW214169  11.120  13.305   4.180
37444SOL     OW14170   2.113   1.123   5.042
37444SOL    HW114171   2.071   1.102   5.125
37444SOL    HW214172   2.203   1.092   5.051
37445SOL     OW14173  13.010   3.142   2.944
37445SOL    HW114174  12.962   3.183   3.016
37445SOL    HW214175  13.076   3.206   2.920
37446SOL     OW14176   9.689   1.691  10.771
37446SOL    HW114177   9.734   1.743  10.705
37446SOL    HW214178   9.700   1.741  10.852
37447SOL     OW14179  10.838   6.379   2.449
37447SOL    HW114180  10.843   6.337   2.534
37447SOL    HW214181  10.790   6.317   2.394
37448SOL     OW14182  13.209   2.177   8.885
37448SOL    HW114183  13.118   2.207   8.895
37448SOL    HW214184  13.203   2.106   8.821
37449SOL     OW14185   8.351  14.685  12.831
37449SOL    HW114186   8.364  14.591  12.816
37449SOL    HW214187   8.286  14.712  12.766
37450SOL     OW14188   6.600  13.846   4.095
37450SOL    HW114189   6.583  13.885   4.009
37450SOL    HW214190   6.681  13.889   4.125
37451SOL     OW14191   4.482   6.232   8.215
37451SOL    HW114192   4.405   6.278   8.249
37451SOL    HW214193   4.508   6.174   8.286
37452SOL     OW14194   4.611  12.645  13.352
37452SOL    HW114195   4.690  12.698  13.356
37452SOL    HW214196   4.602  12.607  13.439
37453SOL     OW14197   2.905   5.916   0.411
37453SOL    HW114198   2.945   5.863   0.343
37453SOL    HW214199   2.932   5.875   0.493
37454SOL     OW14200   6.636   7.171   2.325
37454SOL    HW114201   6.707   7.109   2.310
37454SOL    HW214202   6.665   7.225   2.398
37455SOL     OW14203   1.582   1.943   2.084
37455SOL    HW114204   1.612   2.033   2.100
37455SOL    HW214205   1.527   1.923   2.160
37456SOL     OW14206   2.676  11.971  13.217
37456SOL    HW114207   2.668  11.889  13.167
37456SOL    HW214208   2.769  11.978  13.236
37457SOL     OW14209  10.934   6.955  13.746
37457SOL    HW114210  10.987   7.029  13.775
37457SOL    HW214211  10.977   6.925  13.666
37458SOL     OW14212   1.047   5.514   6.252
37458SOL    HW114213   0.986   5.580   6.220
37458SOL    HW214214   1.001   5.472   6.325
37459SOL     OW14215   2.148   2.693   3.402
37459SOL    HW114216   2.077   2.640   3.439
37459SOL    HW214217   2.155   2.768   3.461
37460SOL     OW14218   5.965   2.555   5.996
37460SOL    HW114219   6.025   2.582   5.927
37460SOL    HW214220   6.015   2.567   6.077
37461SOL     OW14221   9.763   7.687  12.741
37461SOL    HW114222   9.700   7.627  12.702
37461SOL    HW214223   9.710   7.761  12.770
37462SOL     OW14224  13.827   8.635   0.221
37462SOL    HW114225  13.796   8.609   0.135
37462SOL    HW214226  13.748   8.660   0.269
37463SOL     OW14227   8.945   0.027   5.178
37463SOL    HW114228   8.925   0.094   5.242
37463SOL    HW214229   8.884   0.043   5.106
37464SOL     OW14230   3.780   9.117   0.455
37464SOL    HW114231   3.870   9.093   0.478
37464SOL    HW214232   3.767   9.078   0.368
37465SOL     OW14233  11.920  11.154  13.525
37465SOL    HW114234  11.846  11.098  13.506
37465SOL    HW214235  11.883  11.241  13.536
37466SOL     OW14236   6.530   2.324   0.853
37466SOL    HW114237   6.591   2.371   0.910
37466SOL    HW214238   6.586   2.271   0.796
37467SOL     OW14239  10.292   0.615  10.095
37467SOL    HW114240  10.298   0.527  10.060
37467SOL    HW214241  10.200   0.639  10.086
37468SOL     OW14242   1.529  14.613   8.938
37468SOL    HW114243   1.522  14.557   9.015
37468SOL    HW214244   1.492  14.561   8.867
37469SOL     OW14245  11.440  11.526   0.005
37469SOL    HW114246  11.473  11.589  14.821
37469SOL    HW214247  11.379  11.577   0.059
37470SOL     OW14248  13.861   9.039   2.631
37470SOL    HW114249  13.860   8.952   2.672
37470SOL    HW214250  13.833   9.023   2.541
37471SOL     OW14251  13.953  11.997   3.906
37471SOL    HW114252  14.024  11.946   3.947
37471SOL    HW214253  13.946  11.961   3.818
37472SOL     OW14254   6.884   3.431   8.493
37472SOL    HW114255   6.955   3.386   8.446
37472SOL    HW214256   6.804   3.391   8.459
37473SOL     OW14257   8.731   1.832   8.145
37473SOL    HW114258   8.783   1.758   8.114
37473SOL    HW214259   8.650   1.828   8.094
37474SOL     OW14260  10.158  12.738   8.756
37474SOL    HW114261  10.135  12.788   8.834
37474SOL    HW214262  10.161  12.647   8.786
37475SOL     OW14263   5.989   7.695   7.030
37475SOL    HW114264   6.003   7.709   7.123
37475SOL    HW214265   5.930   7.765   7.003
37476SOL     OW14266   4.294   1.992   5.059
37476SOL    HW114267   4.223   1.979   5.121
37476SOL    HW214268   4.319   1.904   5.031
37477SOL     OW14269   5.130  11.007   8.341
37477SOL    HW114270   5.208  10.952   8.349
37477SOL    HW214271   5.057  10.949   8.364
37478SOL     OW14272   2.419  11.258   4.911
37478SOL    HW114273   2.427  11.328   4.977
37478SOL    HW214274   2.326  11.258   4.887
37479SOL     OW14275  11.727   7.408  13.592
37479SOL    HW114276  11.709   7.329  13.542
37479SOL    HW214277  11.807   7.443  13.552
37480SOL     OW14278   3.978   8.963   1.509
37480SOL    HW114279   4.004   8.871   1.518
37480SOL    HW214280   4.052   9.012   1.543
37481SOL     OW14281  11.016   3.140  10.490
37481SOL    HW114282  11.028   3.107  10.580
37481SOL    HW214283  11.076   3.087  10.438
37482SOL     OW14284   3.790   6.956  11.376
37482SOL    HW114285   3.748   6.893  11.434
37482SOL    HW214286   3.729   7.029  11.372
37483SOL     OW14287   1.425  14.542  13.880
37483SOL    HW114288   1.458  14.562  13.792
37483SOL    HW214289   1.342  14.588  13.885
37484SOL     OW14290   1.530   4.132   5.289
37484SOL    HW114291   1.548   4.038   5.302
37484SOL    HW214292   1.459   4.150   5.351
37485SOL     OW14293   2.231   1.666   0.877
37485SOL    HW114294   2.324   1.667   0.853
37485SOL    HW214295   2.186   1.709   0.805
37486SOL     OW14296   8.405   7.162  12.751
37486SOL    HW114297   8.361   7.105  12.688
37486SOL    HW214298   8.490   7.181  12.711
37487SOL     OW14299   2.964   9.773  10.041
37487SOL    HW114300   2.873   9.785  10.069
37487SOL    HW214301   2.992   9.859  10.012
37488SOL     OW14302  10.373   0.591   4.946
37488SOL    HW114303  10.435   0.613   5.016
37488SOL    HW214304  10.296   0.646   4.963
37489SOL     OW14305   4.250   6.536   3.113
37489SOL    HW114306   4.278   6.463   3.169
37489SOL    HW214307   4.260   6.613   3.168
37490SOL     OW14308   3.904   3.164  12.320
37490SOL    HW114309   3.928   3.122  12.237
37490SOL    HW214310   3.943   3.251  12.314
37491SOL     OW14311   7.531  10.403   5.984
37491SOL    HW114312   7.442  10.436   5.969
37491SOL    HW214313   7.524  10.309   5.970
37492SOL     OW14314   6.895   1.435   1.588
37492SOL    HW114315   6.850   1.376   1.648
37492SOL    HW214316   6.980   1.452   1.629
37493SOL     OW14317  13.470  14.298   3.723
37493SOL    HW114318  13.414  14.285   3.646
37493SOL    HW214319  13.416  14.270   3.797
37494SOL     OW14320  12.588  12.525   3.300
37494SOL    HW114321  12.646  12.575   3.243
37494SOL    HW214322  12.586  12.437   3.261
37495SOL     OW14323   5.374   3.107   7.402
37495SOL    HW114324   5.451   3.163   7.415
37495SOL    HW214325   5.314   3.160   7.350
37496SOL     OW14326   5.503  11.681   7.121
37496SOL    HW114327   5.418  11.654   7.087
37496SOL    HW214328   5.560  11.684   7.043
37497SOL     OW14329  10.294   5.787  14.545
37497SOL    HW114330  10.223   5.770  14.607
37497SOL    HW214331  10.374   5.766  14.593
37498SOL     OW14332  13.771  10.630   0.163
37498SOL    HW114333  13.724  10.711   0.182
37498SOL    HW214334  13.748  10.571   0.234
37499SOL     OW14335  14.404   9.810  13.143
37499SOL    HW114336  14.456   9.859  13.080
37499SOL    HW214337  14.469   9.762  13.195
37500SOL     OW14338   0.953   2.934  12.309
37500SOL    HW114339   0.974   2.876  12.236
37500SOL    HW214340   1.037   2.964  12.341
37501SOL     OW14341  12.850   9.462  12.977
37501SOL    HW114342  12.844   9.372  12.944
37501SOL    HW214343  12.778   9.469  13.039
37502SOL     OW14344   3.955   7.679   3.199
37502SOL    HW114345   4.010   7.601   3.201
37502SOL    HW214346   4.011   7.746   3.158
37503SOL     OW14347  13.414   6.840  14.616
37503SOL    HW114348  13.387   6.930  14.600
37503SOL    HW214349  13.335   6.796  14.647
37504SOL     OW14350  12.931   3.158   5.921
37504SOL    HW114351  12.964   3.248   5.925
37504SOL    HW214352  12.838   3.165   5.944
37505SOL     OW14353   7.163  11.457   6.343
37505SOL    HW114354   7.227  11.407   6.394
37505SOL    HW214355   7.124  11.393   6.284
37506SOL     OW14356   7.263   1.872  12.737
37506SOL    HW114357   7.186   1.894  12.685
37506SOL    HW214358   7.231   1.808  12.801
37507SOL     OW14359   6.730  14.206   2.837
37507SOL    HW114360   6.787  14.281   2.854
37507SOL    HW214361   6.782  14.130   2.862
37508SOL     OW14362  11.755  12.572   2.212
37508SOL    HW114363  11.759  12.561   2.307
37508SOL    HW214364  11.793  12.658   2.196
37509SOL     OW14365   5.650   6.313  11.035
37509SOL    HW114366   5.719   6.327  11.100
37509SOL    HW214367   5.670   6.375  10.965
37510SOL     OW14368   0.215   7.570   3.956
37510SOL    HW114369   0.304   7.555   3.988
37510SOL    HW214370   0.216   7.660   3.924
37511SOL     OW14371  14.688   3.745   5.821
37511SOL    HW114372  14.655   3.835   5.819
37511SOL    HW214373  14.670   3.711   5.733
37512SOL     OW14374   3.506  12.724   0.657
37512SOL    HW114375   3.480  12.800   0.709
37512SOL    HW214376   3.491  12.750   0.566
37513SOL     OW14377   0.724   2.279   1.272
37513SOL    HW114378   0.739   2.277   1.367
37513SOL    HW214379   0.801   2.237   1.234
37514SOL     OW14380   3.856   6.281  11.774
37514SOL    HW114381   3.839   6.311  11.863
37514SOL    HW214382   3.844   6.358  11.720
37515SOL     OW14383  11.933   5.416   9.769
37515SOL    HW114384  11.987   5.346   9.805
37515SOL    HW214385  11.847   5.403   9.809
37516SOL     OW14386   0.672   1.157   2.639
37516SOL    HW114387   0.668   1.076   2.588
37516SOL    HW214388   0.597   1.151   2.698
37517SOL     OW14389  14.634   2.768  14.302
37517SOL    HW114390  14.568   2.728  14.359
37517SOL    HW214391  14.588   2.781  14.219
37518SOL     OW14392  14.247   6.772   7.172
37518SOL    HW114393  14.335   6.748   7.202
37518SOL    HW214394  14.189   6.711   7.217
37519SOL     OW14395  14.027   6.604   3.265
37519SOL    HW114396  13.992   6.599   3.353
37519SOL    HW214397  13.982   6.677   3.224
37520SOL     OW14398   7.670   1.163   3.821
37520SOL    HW114399   7.633   1.224   3.885
37520SOL    HW214400   7.594   1.118   3.784
37521SOL     OW14401   0.222  13.569  10.353
37521SOL    HW114402   0.227  13.504  10.283
37521SOL    HW214403   0.146  13.623  10.330
37522SOL     OW14404   5.183   5.818   6.965
37522SOL    HW114405   5.201   5.817   7.059
37522SOL    HW214406   5.130   5.739   6.950
37523SOL     OW14407   2.792   3.301   7.158
37523SOL    HW114408   2.733   3.363   7.202
37523SOL    HW214409   2.850   3.270   7.228
37524SOL     OW14410   7.256   9.648   5.358
37524SOL    HW114411   7.284   9.584   5.424
37524SOL    HW214412   7.279   9.607   5.274
37525SOL     OW14413   6.874   0.054   3.065
37525SOL    HW114414   6.870  14.839   3.072
37525SOL    HW214415   6.784   0.083   3.079
37526SOL     OW14416   5.115   0.628   6.256
37526SOL    HW114417   5.026   0.655   6.232
37526SOL    HW214418   5.115   0.533   6.244
37527SOL     OW14419  10.004   0.794   8.887
37527SOL    HW114420   9.910   0.785   8.904
37527SOL    HW214421  10.008   0.826   8.797
37528SOL     OW14422  11.557  10.436   1.405
37528SOL    HW114423  11.485  10.486   1.443
37528SOL    HW214424  11.537  10.430   1.312
37529SOL     OW14425  14.367   9.986   7.491
37529SOL    HW114426  14.342   9.894   7.488
37529SOL    HW214427  14.449   9.991   7.442
37530SOL     OW14428   9.754   9.483  12.497
37530SOL    HW114429   9.838   9.527  12.486
37530SOL    HW214430   9.759   9.407  12.439
37531SOL     OW14431   9.272   8.631  12.940
37531SOL    HW114432   9.199   8.574  12.914
37531SOL    HW214433   9.240   8.720  12.923
37532SOL     OW14434  12.535  11.311   5.971
37532SOL    HW114435  12.610  11.309   5.911
37532SOL    HW214436  12.523  11.403   5.990
37533SOL     OW14437   8.805   7.515  11.321
37533SOL    HW114438   8.790   7.539  11.229
37533SOL    HW214439   8.890   7.472  11.321
37534SOL     OW14440   5.267  12.668   9.293
37534SOL    HW114441   5.183  12.668   9.339
37534SOL    HW214442   5.254  12.611   9.218
37535SOL     OW14443   8.090   7.734  10.859
37535SOL    HW114444   8.160   7.795  10.836
37535SOL    HW214445   8.059   7.764  10.944
37536SOL     OW14446   9.291   9.702   4.935
37536SOL    HW114447   9.212   9.720   4.986
37536SOL    HW214448   9.295   9.772   4.871
37537SOL     OW14449   9.300  13.751   7.446
37537SOL    HW114450   9.234  13.707   7.392
37537SOL    HW214451   9.271  13.842   7.450
37538SOL     OW14452   9.661   5.182   9.783
37538SOL    HW114453   9.745   5.214   9.751
37538SOL    HW214454   9.662   5.200   9.877
37539SOL     OW14455  10.116  13.111   7.598
37539SOL    HW114456  10.062  13.059   7.538
37539SOL    HW214457  10.196  13.128   7.549
37540SOL     OW14458   6.643   4.306   4.359
37540SOL    HW114459   6.642   4.231   4.299
37540SOL    HW214460   6.680   4.378   4.307
37541SOL     OW14461   5.862  10.851   0.689
37541SOL    HW114462   5.788  10.877   0.635
37541SOL    HW214463   5.833  10.866   0.779
37542SOL     OW14464   2.461  10.631  12.941
37542SOL    HW114465   2.454  10.541  12.973
37542SOL    HW214466   2.407  10.682  13.002
37543SOL     OW14467   3.583   1.594  13.006
37543SOL    HW114468   3.511   1.598  13.070
37543SOL    HW214469   3.597   1.501  12.992
37544SOL     OW14470   8.935   3.182   3.623
37544SOL    HW114471   8.877   3.108   3.638
37544SOL    HW214472   9.010   3.146   3.576
37545SOL     OW14473  11.607   2.711   2.408
37545SOL    HW114474  11.630   2.637   2.352
37545SOL    HW214475  11.650   2.786   2.367
37546SOL     OW14476   6.702   5.243  10.023
37546SOL    HW114477   6.676   5.215   9.935
37546SOL    HW214478   6.704   5.339  10.017
37547SOL     OW14479   6.126   7.783   0.735
37547SOL    HW114480   6.054   7.757   0.678
37547SOL    HW214481   6.092   7.856   0.786
37548SOL     OW14482   3.295   0.481   5.456
37548SOL    HW114483   3.329   0.396   5.430
37548SOL    HW214484   3.211   0.461   5.499
37549SOL     OW14485   5.107   4.799   0.796
37549SOL    HW114486   5.089   4.883   0.837
37549SOL    HW214487   5.119   4.820   0.703
37550SOL     OW14488  10.979   8.999   0.088
37550SOL    HW114489  11.006   9.089   0.104
37550SOL    HW214490  10.884   9.004   0.076
37551SOL     OW14491  12.680   8.365   3.796
37551SOL    HW114492  12.734   8.295   3.757
37551SOL    HW214493  12.714   8.445   3.756
37552SOL     OW14494   2.172  11.339   9.426
37552SOL    HW114495   2.183  11.251   9.390
37552SOL    HW214496   2.079  11.357   9.417
37553SOL     OW14497  13.854  12.488  10.887
37553SOL    HW114498  13.853  12.430  10.812
37553SOL    HW214499  13.920  12.554  10.866
37554SOL     OW14500  11.194   1.087   2.926
37554SOL    HW114501  11.214   1.005   2.882
37554SOL    HW214502  11.270   1.103   2.983
37555SOL     OW14503   5.297  13.903   6.482
37555SOL    HW114504   5.303  13.998   6.472
37555SOL    HW214505   5.298  13.869   6.393
37556SOL     OW14506   8.468   2.341   8.632
37556SOL    HW114507   8.473   2.246   8.636
37556SOL    HW214508   8.560   2.370   8.627
37557SOL     OW14509   2.897   3.863   9.251
37557SOL    HW114510   2.921   3.946   9.292
37557SOL    HW214511   2.863   3.809   9.322
37558SOL     OW14512   6.972   8.048   1.000
37558SOL    HW114513   6.971   7.981   1.069
37558SOL    HW214514   6.892   8.098   1.015
37559SOL     OW14515  11.731   9.270   8.844
37559SOL    HW114516  11.768   9.357   8.860
37559SOL    HW214517  11.807   9.215   8.826
37560SOL     OW14518   1.827   8.574   8.142
37560SOL    HW114519   1.771   8.636   8.189
37560SOL    HW214520   1.797   8.576   8.052
37561SOL     OW14521   7.253   6.193   2.282
37561SOL    HW114522   7.180   6.237   2.326
37561SOL    HW214523   7.223   6.102   2.272
37562SOL     OW14524  14.425   5.663  11.054
37562SOL    HW114525  14.401   5.728  11.120
37562SOL    HW214526  14.357   5.671  10.988
37563SOL     OW14527  10.803   4.985   9.472
37563SOL    HW114528  10.723   5.011   9.426
37563SOL    HW214529  10.874   5.007   9.411
37564SOL     OW14530   5.091   0.834   9.027
37564SOL    HW114531   5.042   0.899   8.976
37564SOL    HW214532   5.067   0.853   9.118
37565SOL     OW14533   4.169   3.211  13.844
37565SOL    HW114534   4.180   3.305  13.861
37565SOL    HW214535   4.161   3.205  13.749
37566SOL     OW14536  14.022   4.195   8.201
37566SOL    HW114537  14.018   4.205   8.296
37566SOL    HW214538  13.954   4.254   8.168
37567SOL     OW14539   2.596   7.116   9.811
37567SOL    HW114540   2.611   7.025   9.834
37567SOL    HW214541   2.542   7.113   9.732
37568SOL     OW14542  12.618   6.931   3.536
37568SOL    HW114543  12.578   6.940   3.623
37568SOL    HW214544  12.658   6.843   3.538
37569SOL     OW14545   5.307  13.201   5.687
37569SOL    HW114546   5.385  13.202   5.632
37569SOL    HW214547   5.268  13.115   5.671
37570SOL     OW14548  11.031   9.237   6.381
37570SOL    HW114549  11.061   9.282   6.302
37570SOL    HW214550  11.104   9.180   6.406
37571SOL     OW14551   5.139   5.274   3.788
37571SOL    HW114552   5.203   5.203   3.782
37571SOL    HW214553   5.054   5.231   3.782
37572SOL     OW14554  10.960   2.008  14.043
37572SOL    HW114555  10.879   1.967  14.015
37572SOL    HW214556  10.987   2.061  13.968
37573SOL     OW14557   8.947  14.128   8.647
37573SOL    HW114558   8.888  14.053   8.636
37573SOL    HW214559   9.008  14.100   8.715
37574SOL     OW14560  12.596   3.211   2.392
37574SOL    HW114561  12.644   3.171   2.319
37574SOL    HW214562  12.650   3.192   2.469
37575SOL     OW14563  11.364  13.111   8.786
37575SOL    HW114564  11.298  13.180   8.783
37575SOL    HW214565  11.369  13.078   8.696
37576SOL     OW14566   8.257   3.240  10.484
37576SOL    HW114567   8.262   3.299  10.408
37576SOL    HW214568   8.190   3.279  10.540
37577SOL     OW14569   3.607   2.956  12.454
37577SOL    HW114570   3.511   2.949  12.455
37577SOL    HW214571   3.636   2.873  12.417
37578SOL     OW14572   3.681   3.704   7.091
37578SOL    HW114573   3.767   3.722   7.053
37578SOL    HW214574   3.680   3.753   7.173
37579SOL     OW14575   9.518  11.004  13.344
37579SOL    HW114576   9.556  10.937  13.400
37579SOL    HW214577   9.576  11.008  13.268
37580SOL     OW14578  13.771   5.776  13.721
37580SOL    HW114579  13.705   5.830  13.764
37580SOL    HW214580  13.769   5.804  13.629
37581SOL     OW14581   8.528   5.526  14.412
37581SOL    HW114582   8.599   5.560  14.466
37581SOL    HW214583   8.461   5.500  14.475
37582SOL     OW14584   2.299   4.367   3.858
37582SOL    HW114585   2.260   4.406   3.780
37582SOL    HW214586   2.338   4.285   3.828
37583SOL     OW14587  12.994  14.649  12.534
37583SOL    HW114588  13.011  14.555  12.524
37583SOL    HW214589  13.075  14.684  12.571
37584SOL     OW14590   7.734   3.487   5.437
37584SOL    HW114591   7.791   3.546   5.486
37584SOL    HW214592   7.656   3.478   5.491
37585SOL     OW14593   0.932  12.607  12.305
37585SOL    HW114594   0.909  12.656  12.384
37585SOL    HW214595   1.007  12.553  12.331
37586SOL     OW14596   2.911   1.818  14.429
37586SOL    HW114597   2.850   1.778  14.490
37586SOL    HW214598   2.976   1.861  14.485
37587SOL     OW14599   3.739   8.090   5.718
37587SOL    HW114600   3.779   8.176   5.732
37587SOL    HW214601   3.646   8.109   5.708
37588SOL     OW14602   1.740   8.206   9.265
37588SOL    HW114603   1.660   8.231   9.310
37588SOL    HW214604   1.741   8.260   9.185
37589SOL     OW14605   6.116  10.100   8.713
37589SOL    HW114606   6.084  10.151   8.639
37589SOL    HW214607   6.075  10.140   8.789
37590SOL     OW14608   0.349  12.671   4.914
37590SOL    HW114609   0.423  12.703   4.966
37590SOL    HW214610   0.358  12.575   4.918
37591SOL     OW14611   4.803   1.450  14.192
37591SOL    HW114612   4.885   1.410  14.220
37591SOL    HW214613   4.829   1.532  14.150
37592SOL     OW14614   6.043   9.970   4.733
37592SOL    HW114615   6.115  10.020   4.770
37592SOL    HW214616   6.077   9.881   4.726
37593SOL     OW14617   8.286  14.610   8.787
37593SOL    HW114618   8.240  14.540   8.740
37593SOL    HW214619   8.282  14.584   8.879
37594SOL     OW14620   3.658   8.209  14.345
37594SOL    HW114621   3.641   8.291  14.298
37594SOL    HW214622   3.648   8.233  14.437
37595SOL     OW14623   6.024   1.246   9.205
37595SOL    HW114624   5.974   1.164   9.205
37595SOL    HW214625   5.968   1.309   9.159
37596SOL     OW14626   6.053   9.832  13.634
37596SOL    HW114627   6.023   9.851  13.545
37596SOL    HW214628   5.973   9.821  13.685
37597SOL     OW14629   5.094  10.685   3.415
37597SOL    HW114630   5.006  10.706   3.386
37597SOL    HW214631   5.095  10.589   3.422
37598SOL     OW14632   5.894   5.047  10.569
37598SOL    HW114633   5.967   5.100  10.601
37598SOL    HW214634   5.887   4.976  10.633
37599SOL     OW14635  10.720   1.217  14.673
37599SOL    HW114636  10.629   1.224  14.644
37599SOL    HW214637  10.768   1.189  14.595
37600SOL     OW14638  13.690  14.674  13.551
37600SOL    HW114639  13.703  14.715  13.465
37600SOL    HW214640  13.736  14.590  13.545
37601SOL     OW14641  14.871  14.490  14.140
37601SOL    HW114642  14.812  14.455  14.074
37601SOL    HW214643   0.009  14.580  14.111
37602SOL     OW14644  12.234  12.026   9.881
37602SOL    HW114645  12.204  11.960   9.819
37602SOL    HW214646  12.191  12.107   9.854
37603SOL     OW14647   3.532   3.751   1.515
37603SOL    HW114648   3.451   3.794   1.542
37603SOL    HW214649   3.506   3.692   1.445
37604SOL     OW14650  11.021   0.432   7.804
37604SOL    HW114651  11.023   0.455   7.897
37604SOL    HW214652  10.929   0.443   7.778
37605SOL     OW14653  11.928   7.867   3.472
37605SOL    HW114654  11.876   7.902   3.400
37605SOL    HW214655  11.944   7.943   3.529
37606SOL     OW14656   0.505   8.777  11.872
37606SOL    HW114657   0.496   8.866  11.836
37606SOL    HW214658   0.537   8.790  11.961
37607SOL     OW14659   3.337   3.568   4.793
37607SOL    HW114660   3.296   3.483   4.777
37607SOL    HW214661   3.418   3.547   4.839
37608SOL     OW14662  10.092  13.576   4.113
37608SOL    HW114663  10.167  13.587   4.054
37608SOL    HW214664  10.078  13.482   4.117
37609SOL     OW14665   6.449   4.056   7.797
37609SOL    HW114666   6.505   4.016   7.731
37609SOL    HW214667   6.370   4.083   7.748
37610SOL     OW14668   2.924   7.963  11.895
37610SOL    HW114669   2.853   8.011  11.852
37610SOL    HW214670   2.880   7.898  11.949
37611SOL     OW14671   2.087  11.083  13.052
37611SOL    HW114672   2.058  11.087  12.961
37611SOL    HW214673   2.163  11.141  13.056
37612SOL     OW14674  13.352   8.659   5.467
37612SOL    HW114675  13.288   8.718   5.505
37612SOL    HW214676  13.418   8.647   5.535
37613SOL     OW14677   1.728   1.488  13.678
37613SOL    HW114678   1.673   1.491  13.599
37613SOL    HW214679   1.720   1.397  13.708
37614SOL     OW14680   1.027   6.996   2.634
37614SOL    HW114681   0.993   7.081   2.606
37614SOL    HW214682   1.018   6.997   2.730
37615SOL     OW14683   0.646  13.963   0.166
37615SOL    HW114684   0.653  13.955   0.070
37615SOL    HW214685   0.735  13.949   0.197
37616SOL     OW14686   9.845   0.025   3.479
37616SOL    HW114687   9.887   0.074   3.550
37616SOL    HW214688   9.834   0.088   3.409
37617SOL     OW14689   5.150   3.948   2.783
37617SOL    HW114690   5.212   3.877   2.767
37617SOL    HW214691   5.171   3.978   2.871
37618SOL     OW14692   6.780  11.780  12.551
37618SOL    HW114693   6.832  11.817  12.480
37618SOL    HW214694   6.743  11.857  12.596
37619SOL     OW14695   9.645   2.707   0.869
37619SOL    HW114696   9.631   2.765   0.943
37619SOL    HW214697   9.736   2.724   0.843
37620SOL     OW14698   2.529   1.837   6.469
37620SOL    HW114699   2.616   1.845   6.431
37620SOL    HW214700   2.477   1.789   6.404
37621SOL     OW14701   5.208   7.634   9.345
37621SOL    HW114702   5.130   7.587   9.375
37621SOL    HW214703   5.275   7.615   9.411
37622SOL     OW14704   7.001  14.771   0.261
37622SOL    HW114705   6.913  14.808   0.268
37622SOL    HW214706   6.992  14.697   0.201
37623SOL     OW14707  11.615  12.825  12.159
37623SOL    HW114708  11.575  12.883  12.093
37623SOL    HW214709  11.682  12.778  12.110
37624SOL     OW14710  14.459   1.364  11.115
37624SOL    HW114711  14.478   1.444  11.164
37624SOL    HW214712  14.432   1.301  11.182
37625SOL     OW14713   0.169  12.881  11.336
37625SOL    HW114714   0.238  12.924  11.287
37625SOL    HW214715   0.141  12.946  11.400
37626SOL     OW14716   8.598   4.566   8.199
37626SOL    HW114717   8.525   4.570   8.262
37626SOL    HW214718   8.653   4.641   8.221
37627SOL     OW14719   3.178   7.478   2.887
37627SOL    HW114720   3.220   7.399   2.851
37627SOL    HW214721   3.113   7.502   2.820
37628SOL     OW14722   9.099   2.701   2.863
37628SOL    HW114723   9.133   2.632   2.920
37628SOL    HW214724   9.132   2.782   2.902
37629SOL     OW14725  10.184   9.984   2.782
37629SOL    HW114726  10.115   9.919   2.766
37629SOL    HW214727  10.137  10.062   2.811
37630SOL     OW14728   9.058   6.218  14.348
37630SOL    HW114729   9.095   6.255  14.267
37630SOL    HW214730   8.986   6.278  14.370
37631SOL     OW14731   1.535   7.869   5.114
37631SOL    HW114732   1.495   7.787   5.085
37631SOL    HW214733   1.543   7.920   5.034
37632SOL     OW14734   8.840  13.171  11.761
37632SOL    HW114735   8.811  13.170  11.852
37632SOL    HW214736   8.822  13.083  11.729
37633SOL     OW14737  11.468   0.108  14.671
37633SOL    HW114738  11.494   0.044  14.604
37633SOL    HW214739  11.499   0.070  14.753
37634SOL     OW14740   5.300  11.520  12.063
37634SOL    HW114741   5.211  11.530  12.030
37634SOL    HW214742   5.311  11.590  12.127
37635SOL     OW14743  13.441   6.260   6.055
37635SOL    HW114744  13.529   6.222   6.048
37635SOL    HW214745  13.410   6.234   6.142
37636SOL     OW14746   2.152   6.452  11.939
37636SOL    HW114747   2.222   6.401  11.896
37636SOL    HW214748   2.093   6.475  11.867
37637SOL     OW14749   6.096  10.707   3.834
37637SOL    HW114750   6.076  10.698   3.741
37637SOL    HW214751   6.182  10.666   3.844
37638SOL     OW14752   5.446   1.198   4.728
37638SOL    HW114753   5.375   1.201   4.793
37638SOL    HW214754   5.526   1.194   4.780
37639SOL     OW14755   6.178   7.674   4.141
37639SOL    HW114756   6.159   7.765   4.166
37639SOL    HW214757   6.145   7.622   4.214
37640SOL     OW14758   3.851  14.144   4.377
37640SOL    HW114759   3.811  14.086   4.442
37640SOL    HW214760   3.945  14.127   4.385
37641SOL     OW14761  10.934   8.047   0.663
37641SOL    HW114762  10.955   7.954   0.661
37641SOL    HW214763  10.876   8.061   0.589
37642SOL     OW14764   4.121   6.729  11.223
37642SOL    HW114765   4.120   6.734  11.318
37642SOL    HW214766   4.158   6.813  11.195
37643SOL     OW14767  12.262  12.711   5.342
37643SOL    HW114768  12.334  12.770   5.365
37643SOL    HW214769  12.193  12.770   5.309
37644SOL     OW14770  12.695   0.440  14.866
37644SOL    HW114771  12.650   0.494   0.050
37644SOL    HW214772  12.786   0.468  14.870
37645SOL     OW14773   3.655   6.682  14.224
37645SOL    HW114774   3.672   6.761  14.275
37645SOL    HW214775   3.565   6.658  14.246
37646SOL     OW14776  10.663  11.076   2.291
37646SOL    HW114777  10.587  11.125   2.257
37646SOL    HW214778  10.720  11.066   2.215
37647SOL     OW14779   4.652   5.584   1.382
37647SOL    HW114780   4.604   5.651   1.333
37647SOL    HW214781   4.743   5.594   1.355
37648SOL     OW14782  12.158   2.223  14.465
37648SOL    HW114783  12.188   2.288  14.402
37648SOL    HW214784  12.075   2.190  14.428
37649SOL     OW14785   5.415   6.297   2.827
37649SOL    HW114786   5.332   6.280   2.873
37649SOL    HW214787   5.478   6.314   2.897
37650SOL     OW14788   8.573   8.035   4.907
37650SOL    HW114789   8.524   8.094   4.966
37650SOL    HW214790   8.662   8.071   4.906
37651SOL     OW14791  14.691  11.250   2.702
37651SOL    HW114792  14.687  11.311   2.628
37651SOL    HW214793  14.635  11.291   2.768
37652SOL     OW14794   7.168   5.857   9.429
37652SOL    HW114795   7.261   5.871   9.410
37652SOL    HW214796   7.151   5.913   9.505
37653SOL     OW14797  14.247   2.316  14.410
37653SOL    HW114798  14.185   2.364  14.465
37653SOL    HW214799  14.215   2.226  14.411
37654SOL     OW14800  10.160   6.569  11.183
37654SOL    HW114801  10.217   6.558  11.106
37654SOL    HW214802  10.074   6.541  11.152
37655SOL     OW14803  14.800   5.450   8.376
37655SOL    HW114804  14.825   5.361   8.354
37655SOL    HW214805  14.707   5.455   8.353
37656SOL     OW14806   6.669   8.911   8.263
37656SOL    HW114807   6.576   8.914   8.239
37656SOL    HW214808   6.673   8.850   8.337
37657SOL     OW14809  14.125   7.197  13.484
37657SOL    HW114810  14.130   7.212  13.389
37657SOL    HW214811  14.158   7.108  13.496
37658SOL     OW14812  11.829   8.534  11.392
37658SOL    HW114813  11.919   8.541  11.426
37658SOL    HW214814  11.813   8.617  11.348
37659SOL     OW14815   4.573   9.471   8.106
37659SOL    HW114816   4.661   9.457   8.073
37659SOL    HW214817   4.579   9.550   8.159
37660SOL     OW14818   0.130  13.588   4.896
37660SOL    HW114819   0.076  13.542   4.832
37660SOL    HW214820   0.216  13.594   4.855
37661SOL     OW14821  11.397  13.290  10.368
37661SOL    HW114822  11.363  13.210  10.328
37661SOL    HW214823  11.379  13.281  10.462
37662SOL     OW14824  13.516   2.242   1.734
37662SOL    HW114825  13.515   2.220   1.827
37662SOL    HW214826  13.454   2.181   1.693
37663SOL     OW14827   0.693   7.243  10.476
37663SOL    HW114828   0.698   7.328  10.432
37663SOL    HW214829   0.729   7.259  10.563
37664SOL     OW14830   3.748  14.290   2.943
37664SOL    HW114831   3.774  14.199   2.927
37664SOL    HW214832   3.690  14.285   3.019
37665SOL     OW14833   9.436   0.548   3.964
37665SOL    HW114834   9.341   0.557   3.961
37665SOL    HW214835   9.452   0.454   3.951
37666SOL     OW14836   2.629   1.392   3.866
37666SOL    HW114837   2.583   1.420   3.945
37666SOL    HW214838   2.560   1.367   3.805
37667SOL     OW14839  10.249   7.303   2.891
37667SOL    HW114840  10.195   7.375   2.923
37667SOL    HW214841  10.188   7.230   2.880
37668SOL     OW14842   6.975   5.367  10.574
37668SOL    HW114843   7.057   5.322  10.552
37668SOL    HW214844   6.963   5.430  10.502
37669SOL     OW14845  12.823  10.531  12.722
37669SOL    HW114846  12.805  10.517  12.629
37669SOL    HW214847  12.916  10.555  12.725
37670SOL     OW14848   1.488  12.790   3.908
37670SOL    HW114849   1.424  12.758   3.844
37670SOL    HW214850   1.533  12.711   3.938
37671SOL     OW14851   2.764   4.915   0.951
37671SOL    HW114852   2.805   4.870   1.025
37671SOL    HW214853   2.792   4.864   0.874
37672SOL     OW14854   2.682  11.269   5.732
37672SOL    HW114855   2.699  11.197   5.672
37672SOL    HW214856   2.769  11.291   5.768
37673SOL     OW14857   9.417   0.033  13.423
37673SOL    HW114858   9.427   0.075  13.337
37673SOL    HW214859   9.426   0.105  13.486
37674SOL     OW14860   2.429   4.407  13.662
37674SOL    HW114861   2.364   4.454  13.714
37674SOL    HW214862   2.379   4.341  13.614
37675SOL     OW14863   0.428   9.962   7.674
37675SOL    HW114864   0.382   9.882   7.700
37675SOL    HW214865   0.375  10.033   7.709
37676SOL     OW14866  14.474  10.531  14.327
37676SOL    HW114867  14.461  10.614  14.282
37676SOL    HW214868  14.416  10.535  14.404
37677SOL     OW14869   2.042  12.879   7.147
37677SOL    HW114870   1.969  12.941   7.147
37677SOL    HW214871   2.087  12.894   7.230
37678SOL     OW14872   2.508  11.907   8.345
37678SOL    HW114873   2.478  11.875   8.430
37678SOL    HW214874   2.541  11.995   8.363
37679SOL     OW14875  13.012   1.091   5.583
37679SOL    HW114876  13.091   1.107   5.635
37679SOL    HW214877  12.942   1.136   5.631
37680SOL     OW14878  11.276  12.363   6.044
37680SOL    HW114879  11.289  12.400   5.956
37680SOL    HW214880  11.334  12.415   6.100
37681SOL     OW14881   6.358   4.579  14.742
37681SOL    HW114882   6.440   4.582  14.792
37681SOL    HW214883   6.316   4.497  14.768
37682SOL     OW14884   1.990   5.653   5.624
37682SOL    HW114885   1.992   5.667   5.529
37682SOL    HW214886   1.905   5.613   5.640
37683SOL     OW14887   7.939  13.654   3.594
37683SOL    HW114888   7.929  13.600   3.515
37683SOL    HW214889   8.031  13.681   3.592
37684SOL     OW14890   7.463  12.392  10.493
37684SOL    HW114891   7.539  12.435  10.533
37684SOL    HW214892   7.501  12.328  10.433
37685SOL     OW14893  12.415   8.294   2.514
37685SOL    HW114894  12.335   8.313   2.464
37685SOL    HW214895  12.406   8.203   2.542
37686SOL     OW14896   2.747   1.806   4.790
37686SOL    HW114897   2.702   1.890   4.796
37686SOL    HW214898   2.677   1.744   4.767
37687SOL     OW14899  11.206   9.456   2.031
37687SOL    HW114900  11.198   9.540   2.076
37687SOL    HW214901  11.192   9.476   1.939
37688SOL     OW14902   7.967   6.437  14.740
37688SOL    HW114903   7.948   6.400  14.827
37688SOL    HW214904   8.061   6.419  14.727
37689SOL     OW14905   6.600   8.316   5.159
37689SOL    HW114906   6.674   8.377   5.162
37689SOL    HW214907   6.531   8.366   5.114
37690SOL     OW14908   8.517  13.477  14.651
37690SOL    HW114909   8.572  13.497  14.575
37690SOL    HW214910   8.509  13.561  14.697
37691SOL     OW14911   6.736   3.310  11.360
37691SOL    HW114912   6.740   3.401  11.391
37691SOL    HW214913   6.661   3.273  11.406
37692SOL     OW14914   9.244   1.016   6.184
37692SOL    HW114915   9.224   0.923   6.188
37692SOL    HW214916   9.184   1.056   6.247
37693SOL     OW14917  11.192   9.918  14.065
37693SOL    HW114918  11.271   9.947  14.018
37693SOL    HW214919  11.140   9.874  13.998
37694SOL     OW14920   0.410   9.179   9.543
37694SOL    HW114921   0.375   9.126   9.471
37694SOL    HW214922   0.429   9.116   9.612
37695SOL     OW14923  13.101   0.601   1.403
37695SOL    HW114924  13.117   0.686   1.446
37695SOL    HW214925  13.046   0.554   1.465
37696SOL     OW14926   3.326   6.044   7.752
37696SOL    HW114927   3.413   6.007   7.740
37696SOL    HW214928   3.324   6.074   7.843
37697SOL     OW14929   1.165   3.521  12.476
37697SOL    HW114930   1.190   3.429  12.474
37697SOL    HW214931   1.117   3.535  12.394
37698SOL     OW14932  11.609   0.308   1.904
37698SOL    HW114933  11.585   0.216   1.901
37698SOL    HW214934  11.527   0.354   1.923
37699SOL     OW14935   5.308   3.538   4.642
37699SOL    HW114936   5.354   3.461   4.675
37699SOL    HW214937   5.333   3.544   4.550
37700SOL     OW14938   1.202  11.085   1.728
37700SOL    HW114939   1.286  11.127   1.710
37700SOL    HW214940   1.222  10.991   1.729
37701SOL     OW14941  13.735   1.492   7.104
37701SOL    HW114942  13.734   1.441   7.185
37701SOL    HW214943  13.644   1.492   7.075
37702SOL     OW14944  10.097   5.931   1.331
37702SOL    HW114945  10.114   6.021   1.358
37702SOL    HW214946  10.157   5.878   1.384
37703SOL     OW14947  11.651   4.971  13.265
37703SOL    HW114948  11.716   4.901  13.267
37703SOL    HW214949  11.618   4.971  13.176
37704SOL     OW14950   6.388   6.695   6.937
37704SOL    HW114951   6.428   6.648   7.010
37704SOL    HW214952   6.454   6.691   6.867
37705SOL     OW14953   4.942   7.092   6.282
37705SOL    HW114954   5.014   7.042   6.320
37705SOL    HW214955   4.974   7.182   6.279
37706SOL     OW14956   8.592  11.784   4.907
37706SOL    HW114957   8.554  11.742   4.831
37706SOL    HW214958   8.546  11.746   4.982
37707SOL     OW14959   7.010   2.540   5.549
37707SOL    HW114960   6.949   2.480   5.592
37707SOL    HW214961   6.992   2.531   5.456
37708SOL     OW14962   2.321  11.691   2.190
37708SOL    HW114963   2.382  11.633   2.236
37708SOL    HW214964   2.247  11.635   2.167
37709SOL     OW14965  12.679   4.017   7.737
37709SOL    HW114966  12.638   4.006   7.651
37709SOL    HW214967  12.684   4.112   7.748
37710SOL     OW14968  10.824  12.493   1.502
37710SOL    HW114969  10.754  12.534   1.553
37710SOL    HW214970  10.887  12.563   1.486
37711SOL     OW14971   3.603   9.578   3.632
37711SOL    HW114972   3.548   9.602   3.558
37711SOL    HW214973   3.643   9.494   3.606
37712SOL     OW14974   5.613  14.877  13.275
37712SOL    HW114975   5.694  14.854  13.320
37712SOL    HW214976   5.545  14.830  13.322
37713SOL     OW14977  10.731  11.675   0.068
37713SOL    HW114978  10.695  11.592   0.036
37713SOL    HW214979  10.803  11.695   0.009
37714SOL     OW14980  11.788   6.783   5.750
37714SOL    HW114981  11.794   6.688   5.746
37714SOL    HW214982  11.696   6.803   5.736
37715SOL     OW14983  11.206  11.301  14.031
37715SOL    HW114984  11.150  11.322  13.956
37715SOL    HW214985  11.150  11.312  14.107
37716SOL     OW14986   7.211   2.482   9.831
37716SOL    HW114987   7.289   2.527   9.797
37716SOL    HW214988   7.145   2.494   9.762
37717SOL     OW14989   6.145   5.027   9.908
37717SOL    HW114990   6.120   5.109   9.951
37717SOL    HW214991   6.210   4.988   9.967
37718SOL     OW14992   6.423  12.561   2.263
37718SOL    HW114993   6.416  12.507   2.184
37718SOL    HW214994   6.468  12.505   2.326
37719SOL     OW14995   4.535   8.771  12.468
37719SOL    HW114996   4.441   8.754  12.477
37719SOL    HW214997   4.547   8.859  12.505
37720SOL     OW14998   1.148  13.430   0.604
37720SOL    HW114999   1.055  13.437   0.581
37720SOL    HW215000   1.152  13.457   0.695
37721SOL     OW15001  11.282   0.812   0.701
37721SOL    HW115002  11.196   0.770   0.706
37721SOL    HW215003  11.282   0.856   0.616
37722SOL     OW15004   8.012  11.626   4.711
37722SOL    HW115005   8.065  11.578   4.774
37722SOL    HW215006   7.928  11.579   4.709
37723SOL     OW15007   1.073   8.198  12.317
37723SOL    HW115008   1.014   8.178  12.245
37723SOL    HW215009   1.072   8.119  12.371
37724SOL     OW15010   8.790   6.327  14.391
37724SOL    HW115011   8.713   6.366  14.350
37724SOL    HW215012   8.818   6.392  14.455
37725SOL     OW15013  11.112   9.949   6.079
37725SOL    HW115014  11.102   9.854   6.083
37725SOL    HW215015  11.105   9.977   6.171
37726SOL     OW15016   3.516  13.493   6.204
37726SOL    HW115017   3.506  13.403   6.235
37726SOL    HW215018   3.427  13.525   6.193
37727SOL     OW15019   2.829  12.119  14.699
37727SOL    HW115020   2.854  12.165  14.779
37727SOL    HW215021   2.760  12.058  14.727
37728SOL     OW15022   7.289   1.092   0.493
37728SOL    HW115023   7.239   1.132   0.565
37728SOL    HW215024   7.278   0.998   0.506
37729SOL     OW15025   4.904   0.671   7.598
37729SOL    HW115026   4.893   0.741   7.662
37729SOL    HW215027   4.971   0.614   7.636
37730SOL     OW15028   2.005   7.170  12.403
37730SOL    HW115029   2.016   7.222  12.324
37730SOL    HW215030   2.087   7.182  12.452
37731SOL     OW15031   5.486   8.968   7.397
37731SOL    HW115032   5.525   9.056   7.398
37731SOL    HW215033   5.560   8.910   7.382
37732SOL     OW15034  14.536   5.676   4.595
37732SOL    HW115035  14.559   5.588   4.564
37732SOL    HW215036  14.467   5.661   4.660
37733SOL     OW15037  10.611   5.407   8.474
37733SOL    HW115038  10.585   5.317   8.452
37733SOL    HW215039  10.661   5.398   8.555
37734SOL     OW15040   0.607   4.259  11.009
37734SOL    HW115041   0.668   4.203  11.057
37734SOL    HW215042   0.521   4.235  11.043
37735SOL     OW15043   1.943   4.359   2.549
37735SOL    HW115044   1.998   4.422   2.502
37735SOL    HW215045   2.003   4.315   2.609
37736SOL     OW15046  13.108  14.278  14.632
37736SOL    HW115047  13.028  14.295  14.682
37736SOL    HW215048  13.096  14.328  14.551
37737SOL     OW15049   9.029  10.405   2.629
37737SOL    HW115050   9.043  10.477   2.691
37737SOL    HW215051   9.113  10.358   2.627
37738SOL     OW15052  11.229   0.240   4.322
37738SOL    HW115053  11.239   0.145   4.329
37738SOL    HW215054  11.315   0.275   4.345
37739SOL     OW15055  11.015  13.596  13.216
37739SOL    HW115056  11.044  13.642  13.138
37739SOL    HW215057  11.050  13.507  13.206
37740SOL     OW15058   7.578   9.784   4.796
37740SOL    HW115059   7.578   9.784   4.891
37740SOL    HW215060   7.667   9.759   4.771
37741SOL     OW15061   5.321   6.744  12.301
37741SOL    HW115062   5.253   6.716  12.240
37741SOL    HW215063   5.370   6.811  12.254
37742SOL     OW15064   2.863  12.229   1.678
37742SOL    HW115065   2.864  12.300   1.741
37742SOL    HW215066   2.900  12.154   1.725
37743SOL     OW15067   0.126  13.468   6.875
37743SOL    HW115068   0.123  13.372   6.868
37743SOL    HW215069   0.035  13.493   6.888
37744SOL     OW15070   0.125  13.026   9.090
37744SOL    HW115071   0.197  13.085   9.069
37744SOL    HW215072   0.107  13.043   9.183
37745SOL     OW15073  13.372   6.209  12.687
37745SOL    HW115074  13.286   6.183  12.720
37745SOL    HW215075  13.352   6.270  12.616
37746SOL     OW15076   8.197  13.415  12.574
37746SOL    HW115077   8.211  13.335  12.522
37746SOL    HW215078   8.239  13.484  12.523
37747SOL     OW15079  14.055  12.088  14.154
37747SOL    HW115080  14.126  12.034  14.189
37747SOL    HW215081  14.077  12.177  14.181
37748SOL     OW15082   0.440  13.599   0.299
37748SOL    HW115083   0.428  13.670   0.236
37748SOL    HW215084   0.395  13.629   0.378
37749SOL     OW15085   5.291   5.677   2.030
37749SOL    HW115086   5.291   5.646   2.121
37749SOL    HW215087   5.213   5.732   2.024
37750SOL     OW15088   6.577   3.949   7.558
37750SOL    HW115089   6.596   3.902   7.477
37750SOL    HW215090   6.523   4.023   7.532
37751SOL     OW15091   1.169   7.678   9.241
37751SOL    HW115092   1.085   7.685   9.196
37751SOL    HW215093   1.151   7.619   9.315
37752SOL     OW15094   6.263  10.664  13.536
37752SOL    HW115095   6.211  10.587  13.558
37752SOL    HW215096   6.236  10.688  13.448
37753SOL     OW15097   3.176   7.195  11.059
37753SOL    HW115098   3.271   7.183  11.052
37753SOL    HW215099   3.139   7.123  11.008
37754SOL     OW15100   8.212   2.079  11.015
37754SOL    HW115101   8.216   2.162  11.063
37754SOL    HW215102   8.273   2.090  10.942
37755SOL     OW15103   4.989   5.772   5.643
37755SOL    HW115104   4.961   5.849   5.594
37755SOL    HW215105   5.010   5.707   5.576
37756SOL     OW15106   7.642  10.568  11.618
37756SOL    HW115107   7.608  10.496  11.670
37756SOL    HW215108   7.567  10.627  11.606
37757SOL     OW15109  11.774   9.982   0.172
37757SOL    HW115110  11.760  10.074   0.194
37757SOL    HW215111  11.837   9.951   0.236
37758SOL     OW15112   6.792   6.457   6.748
37758SOL    HW115113   6.882   6.487   6.757
37758SOL    HW215114   6.776   6.403   6.825
37759SOL     OW15115  13.575   8.699  12.570
37759SOL    HW115116  13.516   8.733  12.637
37759SOL    HW215117  13.527   8.710  12.488
37760SOL     OW15118   1.683   9.871   1.636
37760SOL    HW115119   1.773   9.900   1.651
37760SOL    HW215120   1.640   9.948   1.598
37761SOL     OW15121  11.824  11.275   7.290
37761SOL    HW115122  11.897  11.237   7.241
37761SOL    HW215123  11.777  11.327   7.225
37762SOL     OW15124   3.949   5.308   8.800
37762SOL    HW115125   3.868   5.346   8.833
37762SOL    HW215126   4.011   5.318   8.873
37763SOL     OW15127   4.887  13.947  14.446
37763SOL    HW115128   4.953  13.938  14.377
37763SOL    HW215129   4.938  13.968  14.525
37764SOL     OW15130  11.041   8.947  11.860
37764SOL    HW115131  11.117   8.920  11.911
37764SOL    HW215132  10.970   8.889  11.890
37765SOL     OW15133   6.751   9.835   9.482
37765SOL    HW115134   6.821   9.802   9.537
37765SOL    HW215135   6.691   9.879   9.542
37766SOL     OW15136   2.270   5.658  10.714
37766SOL    HW115137   2.196   5.598  10.708
37766SOL    HW215138   2.340   5.614  10.665
37767SOL     OW15139   7.092   7.682  10.431
37767SOL    HW115140   7.015   7.705  10.378
37767SOL    HW215141   7.063   7.610  10.486
37768SOL     OW15142  13.014   4.882   1.819
37768SOL    HW115143  12.967   4.952   1.864
37768SOL    HW215144  13.028   4.816   1.886
37769SOL     OW15145   4.495   9.986   6.938
37769SOL    HW115146   4.501  10.021   6.850
37769SOL    HW215147   4.517   9.894   6.930
37770SOL     OW15148   1.851   8.597   5.510
37770SOL    HW115149   1.814   8.636   5.431
37770SOL    HW215150   1.849   8.667   5.575
37771SOL     OW15151  14.228  10.301   7.169
37771SOL    HW115152  14.315  10.268   7.149
37771SOL    HW215153  14.219  10.291   7.264
37772SOL     OW15154  10.388  10.676   6.623
37772SOL    HW115155  10.386  10.629   6.706
37772SOL    HW215156  10.481  10.692   6.605
37773SOL     OW15157  10.983   5.773  12.811
37773SOL    HW115158  11.052   5.755  12.874
37773SOL    HW215159  10.908   5.721  12.841
37774SOL     OW15160   8.316   1.377   7.223
37774SOL    HW115161   8.307   1.375   7.127
37774SOL    HW215162   8.297   1.288   7.251
37775SOL     OW15163   7.476   0.011   6.857
37775SOL    HW115164   7.465   0.105   6.873
37775SOL    HW215165   7.398  14.866   6.807
37776SOL     OW15166  13.252   1.247  10.357
37776SOL    HW115167  13.184   1.253  10.290
37776SOL    HW215168  13.335   1.254  10.308
37777SOL     OW15169   1.992   3.311   0.357
37777SOL    HW115170   2.050   3.264   0.417
37777SOL    HW215171   1.948   3.376   0.412
37778SOL     OW15172   6.167   6.790   8.506
37778SOL    HW115173   6.146   6.858   8.442
37778SOL    HW215174   6.187   6.838   8.586
37779SOL     OW15175   2.749  10.928   5.306
37779SOL    HW115176   2.725  10.991   5.238
37779SOL    HW215177   2.832  10.960   5.341
37780SOL     OW15178   2.803   3.025   9.327
37780SOL    HW115179   2.737   2.974   9.374
37780SOL    HW215180   2.887   2.996   9.362
37781SOL     OW15181  14.759   5.288   5.760
37781SOL    HW115182  14.717   5.329   5.684
37781SOL    HW215183  14.796   5.361   5.809
37782SOL     OW15184   6.066   5.386  12.548
37782SOL    HW115185   5.999   5.350  12.605
37782SOL    HW215186   6.050   5.345  12.463
37783SOL     OW15187  10.921   2.680  11.262
37783SOL    HW115188  10.849   2.630  11.299
37783SOL    HW215189  10.884   2.766  11.242
37784SOL     OW15190   7.343   7.992  12.519
37784SOL    HW115191   7.363   8.020  12.430
37784SOL    HW215192   7.330   8.074  12.568
37785SOL     OW15193  11.594   7.663   4.810
37785SOL    HW115194  11.505   7.692   4.790
37785SOL    HW215195  11.617   7.605   4.737
37786SOL     OW15196  12.873   4.319   5.288
37786SOL    HW115197  12.953   4.357   5.326
37786SOL    HW215198  12.876   4.227   5.314
37787SOL     OW15199   1.520   1.575   1.227
37787SOL    HW115200   1.433   1.545   1.253
37787SOL    HW215201   1.544   1.521   1.152
37788SOL     OW15202  13.590   4.180   9.940
37788SOL    HW115203  13.547   4.103   9.902
37788SOL    HW215204  13.671   4.191   9.890
37789SOL     OW15205  10.002   1.090  13.657
37789SOL    HW115206  10.016   1.122  13.747
37789SOL    HW215207  10.053   1.010  13.651
37790SOL     OW15208  12.693  12.526   2.231
37790SOL    HW115209  12.704  12.553   2.322
37790SOL    HW215210  12.744  12.590   2.181
37791SOL     OW15211   6.055   2.646   6.717
37791SOL    HW115212   6.135   2.680   6.676
37791SOL    HW215213   6.079   2.627   6.807
37792SOL     OW15214  10.431   7.347   0.868
37792SOL    HW115215  10.430   7.255   0.896
37792SOL    HW215216  10.341   7.376   0.878
37793SOL     OW15217   0.687   4.180   1.387
37793SOL    HW115218   0.656   4.238   1.457
37793SOL    HW215219   0.638   4.208   1.309
37794SOL     OW15220  12.437   0.854   1.374
37794SOL    HW115221  12.462   0.918   1.308
37794SOL    HW215222  12.382   0.791   1.328
37795SOL     OW15223   7.913   6.619   6.264
37795SOL    HW115224   7.898   6.671   6.185
37795SOL    HW215225   7.962   6.543   6.233
37796SOL     OW15226   6.841   1.286   2.291
37796SOL    HW115227   6.788   1.226   2.343
37796SOL    HW215228   6.916   1.234   2.262
37797SOL     OW15229   1.107   0.286   7.279
37797SOL    HW115230   1.067   0.265   7.195
37797SOL    HW215231   1.048   0.246   7.344
37798SOL     OW15232   0.551  12.123   8.436
37798SOL    HW115233   0.515  12.074   8.511
37798SOL    HW215234   0.572  12.055   8.371
37799SOL     OW15235  12.877   9.228   1.662
37799SOL    HW115236  12.888   9.165   1.733
37799SOL    HW215237  12.875   9.174   1.582
37800SOL     OW15238   2.152   3.095   2.195
37800SOL    HW115239   2.233   3.096   2.143
37800SOL    HW215240   2.101   3.169   2.161
37801SOL     OW15241   1.588  10.532   6.058
37801SOL    HW115242   1.589  10.570   6.146
37801SOL    HW215243   1.591  10.437   6.073
37802SOL     OW15244   3.776   7.810   7.293
37802SOL    HW115245   3.863   7.813   7.254
37802SOL    HW215246   3.716   7.827   7.221
37803SOL     OW15247   1.970  14.312  11.327
37803SOL    HW115248   1.922  14.387  11.292
37803SOL    HW215249   1.942  14.238  11.273
37804SOL     OW15250   1.556   9.279   3.415
37804SOL    HW115251   1.486   9.316   3.362
37804SOL    HW215252   1.523   9.282   3.505
37805SOL     OW15253   4.664   5.879  13.885
37805SOL    HW115254   4.735   5.941  13.901
37805SOL    HW215255   4.698   5.821  13.816
37806SOL     OW15256   0.583  13.678  12.445
37806SOL    HW115257   0.592  13.772  12.455
37806SOL    HW215258   0.490  13.664  12.426
37807SOL     OW15259   7.101   1.361  12.042
37807SOL    HW115260   7.137   1.417  12.110
37807SOL    HW215261   7.141   1.393  11.961
37808SOL     OW15262  10.217   0.542   9.711
37808SOL    HW115263  10.134   0.502   9.686
37808SOL    HW215264  10.193   0.611   9.773
37809SOL     OW15265   5.124   0.110   8.887
37809SOL    HW115266   5.136   0.115   8.793
37809SOL    HW215267   5.164   0.191   8.921
37810SOL     OW15268   8.138  10.096  12.400
37810SOL    HW115269   8.232  10.093  12.418
37810SOL    HW215270   8.130  10.151  12.322
37811SOL     OW15271   3.258   2.873   8.175
37811SOL    HW115272   3.335   2.816   8.186
37811SOL    HW215273   3.209   2.864   8.257
37812SOL     OW15274  14.118   5.938  12.165
37812SOL    HW115275  14.031   5.938  12.204
37812SOL    HW215276  14.102   5.944  12.070
37813SOL     OW15277  10.004   9.686  14.700
37813SOL    HW115278  10.014   9.763  14.756
37813SOL    HW215279  10.063   9.621  14.738
37814SOL     OW15280   8.290  14.280  10.628
37814SOL    HW115281   8.273  14.186  10.621
37814SOL    HW215282   8.210  14.322  10.594
37815SOL     OW15283   3.524   1.667   0.146
37815SOL    HW115284   3.579   1.612   0.201
37815SOL    HW215285   3.561   1.657   0.058
37816SOL     OW15286   0.273   1.906   8.624
37816SOL    HW115287   0.293   1.819   8.589
37816SOL    HW215288   0.352   1.957   8.609
37817SOL     OW15289   0.898   4.880   5.984
37817SOL    HW115290   0.973   4.885   6.042
37817SOL    HW215291   0.931   4.838   5.904
37818SOL     OW15292  13.276   3.283   1.235
37818SOL    HW115293  13.298   3.305   1.144
37818SOL    HW215294  13.253   3.368   1.274
37819SOL     OW15295  12.189  13.608   7.358
37819SOL    HW115296  12.119  13.556   7.317
37819SOL    HW215297  12.143  13.662   7.422
37820SOL     OW15298   7.539   7.111  12.600
37820SOL    HW115299   7.622   7.104  12.552
37820SOL    HW215300   7.541   7.200  12.637
37821SOL     OW15301  13.775   5.115   5.795
37821SOL    HW115302  13.801   5.109   5.703
37821SOL    HW215303  13.692   5.163   5.794
37822SOL     OW15304   9.973   8.318   1.927
37822SOL    HW115305   9.942   8.402   1.961
37822SOL    HW215306  10.051   8.298   1.978
37823SOL     OW15307   4.678   0.834  10.698
37823SOL    HW115308   4.658   0.912  10.750
37823SOL    HW215309   4.746   0.789  10.747
37824SOL     OW15310   7.700  10.635   1.022
37824SOL    HW115311   7.637  10.648   0.951
37824SOL    HW215312   7.758  10.712   1.018
37825SOL     OW15313   0.493  12.419  10.137
37825SOL    HW115314   0.426  12.351  10.145
37825SOL    HW215315   0.525  12.411  10.048
37826SOL     OW15316   6.313   6.237   8.657
37826SOL    HW115317   6.338   6.251   8.566
37826SOL    HW215318   6.241   6.298   8.672
37827SOL     OW15319   7.212   1.176   8.329
37827SOL    HW115320   7.157   1.207   8.258
37827SOL    HW215321   7.263   1.253   8.355
37828SOL     OW15322   6.428  12.943  10.645
37828SOL    HW115323   6.495  12.959  10.711
37828SOL    HW215324   6.354  12.907  10.695
37829SOL     OW15325   1.369   3.258  14.354
37829SOL    HW115326   1.295   3.228  14.408
37829SOL    HW215327   1.424   3.307  14.415
37830SOL     OW15328  13.651  14.843   1.529
37830SOL    HW115329  13.700  14.767   1.560
37830SOL    HW215330  13.595  14.808   1.459
37831SOL     OW15331   0.689  12.411  14.524
37831SOL    HW115332   0.676  12.505  14.526
37831SOL    HW215333   0.721  12.389  14.612
37832SOL     OW15334  13.527   4.292   2.331
37832SOL    HW115335  13.485   4.224   2.384
37832SOL    HW215336  13.479   4.291   2.248
37833SOL     OW15337   5.216   1.119  12.959
37833SOL    HW115338   5.273   1.055  12.916
37833SOL    HW215339   5.128   1.085  12.947
37834SOL     OW15340   9.547   6.164   1.377
37834SOL    HW115341   9.515   6.220   1.448
37834SOL    HW215342   9.638   6.146   1.399
37835SOL     OW15343   6.758   5.914   4.204
37835SOL    HW115344   6.709   5.846   4.158
37835SOL    HW215345   6.850   5.887   4.198
37836SOL     OW15346  14.588  13.281  14.259
37836SOL    HW115347  14.598  13.185  14.257
37836SOL    HW215348  14.627  13.307  14.342
37837SOL     OW15349  11.079  12.676  14.386
37837SOL    HW115350  11.030  12.749  14.349
37837SOL    HW215351  11.155  12.717  14.427
37838SOL     OW15352   0.914  13.036  11.894
37838SOL    HW115353   0.907  13.110  11.834
37838SOL    HW215354   0.842  13.048  11.956
37839SOL     OW15355   4.349   6.179   2.168
37839SOL    HW115356   4.430   6.188   2.217
37839SOL    HW215357   4.352   6.091   2.132
37840SOL     OW15358   4.232   6.000  14.405
37840SOL    HW115359   4.294   5.939  14.444
37840SOL    HW215360   4.191   5.951  14.333
37841SOL     OW15361   5.903  14.430   7.024
37841SOL    HW115362   5.945  14.396   6.945
37841SOL    HW215363   5.869  14.516   6.999
37842SOL     OW15364  13.424   0.502   1.044
37842SOL    HW115365  13.519   0.496   1.053
37842SOL    HW215366  13.401   0.430   0.984
37843SOL     OW15367   4.329   1.178   2.134
37843SOL    HW115368   4.372   1.202   2.216
37843SOL    HW215369   4.364   1.239   2.070
37844SOL     OW15370   3.860   7.024   8.875
37844SOL    HW115371   3.860   7.100   8.933
37844SOL    HW215372   3.937   6.974   8.900
37845SOL     OW15373   4.487   6.130   0.366
37845SOL    HW115374   4.578   6.128   0.396
37845SOL    HW215375   4.487   6.078   0.286
37846SOL     OW15376   7.039   1.191  10.537
37846SOL    HW115377   7.056   1.169  10.629
37846SOL    HW215378   7.019   1.285  10.538
37847SOL     OW15379   6.099   2.656   8.365
37847SOL    HW115380   6.074   2.688   8.278
37847SOL    HW215381   6.046   2.577   8.377
37848SOL     OW15382   0.914   1.850  13.216
37848SOL    HW115383   0.898   1.829  13.308
37848SOL    HW215384   0.963   1.774  13.184
37849SOL     OW15385   9.504   2.011   8.464
37849SOL    HW115386   9.579   1.961   8.496
37849SOL    HW215387   9.542   2.095   8.436
37850SOL     OW15388  12.001  14.498   7.931
37850SOL    HW115389  11.920  14.549   7.937
37850SOL    HW215390  12.067  14.552   7.973
37851SOL     OW15391  10.819  13.031   1.745
37851SOL    HW115392  10.778  12.998   1.825
37851SOL    HW215393  10.762  13.102   1.715
37852SOL     OW15394   3.408   7.920  11.933
37852SOL    HW115395   3.426   7.834  11.973
37852SOL    HW215396   3.328   7.950  11.976
37853SOL     OW15397  12.763  10.094   2.721
37853SOL    HW115398  12.859  10.092   2.718
37853SOL    HW215399  12.742  10.103   2.814
37854SOL     OW15400   5.117   9.303   4.233
37854SOL    HW115401   5.042   9.311   4.292
37854SOL    HW215402   5.094   9.230   4.175
37855SOL     OW15403   9.186   6.139   4.283
37855SOL    HW115404   9.228   6.080   4.221
37855SOL    HW215405   9.093   6.136   4.260
37856SOL     OW15406  11.268   6.956   7.740
37856SOL    HW115407  11.188   6.909   7.763
37856SOL    HW215408  11.336   6.888   7.738
37857SOL     OW15409   1.199   3.857   7.597
37857SOL    HW115410   1.169   3.937   7.554
37857SOL    HW215411   1.275   3.884   7.649
37858SOL     OW15412   7.308   7.763   9.291
37858SOL    HW115413   7.219   7.760   9.327
37858SOL    HW215414   7.324   7.675   9.259
37859SOL     OW15415  13.907   4.817   2.934
37859SOL    HW115416  13.817   4.831   2.905
37859SOL    HW215417  13.910   4.725   2.961
37860SOL     OW15418  10.284  12.331  12.287
37860SOL    HW115419  10.360  12.317  12.342
37860SOL    HW215420  10.228  12.390  12.336
37861SOL     OW15421   9.045   9.230  11.508
37861SOL    HW115422   9.092   9.173  11.447
37861SOL    HW215423   9.110   9.256  11.572
37862SOL     OW15424   8.834   6.954  13.735
37862SOL    HW115425   8.925   6.982  13.738
37862SOL    HW215426   8.790   7.008  13.802
37863SOL     OW15427  13.854  10.236   2.557
37863SOL    HW115428  13.827  10.280   2.476
37863SOL    HW215429  13.818  10.147   2.549
37864SOL     OW15430  14.035   3.451   9.734
37864SOL    HW115431  13.964   3.443   9.670
37864SOL    HW215432  14.079   3.366   9.733
37865SOL     OW15433  13.697  12.215  11.773
37865SOL    HW115434  13.619  12.160  11.768
37865SOL    HW215435  13.761  12.169  11.719
37866SOL     OW15436  13.714  12.583   4.104
37866SOL    HW115437  13.691  12.499   4.145
37866SOL    HW215438  13.807  12.593   4.122
37867SOL     OW15439   7.683  13.313   0.841
37867SOL    HW115440   7.627  13.261   0.783
37867SOL    HW215441   7.701  13.255   0.915
37868SOL     OW15442   2.160   0.070   0.767
37868SOL    HW115443   2.129   0.032   0.849
37868SOL    HW215444   2.081   0.087   0.717
37869SOL     OW15445   7.438   7.692  12.203
37869SOL    HW115446   7.478   7.611  12.173
37869SOL    HW215447   7.352   7.667  12.235
37870SOL     OW15448  11.400  12.453  10.901
37870SOL    HW115449  11.308  12.473  10.881
37870SOL    HW215450  11.419  12.503  10.980
37871SOL     OW15451   4.643   3.174  14.724
37871SOL    HW115452   4.639   3.095  14.778
37871SOL    HW215453   4.650   3.141  14.634
37872SOL     OW15454   4.750   7.393  13.874
37872SOL    HW115455   4.784   7.315  13.829
37872SOL    HW215456   4.828   7.447  13.889
37873SOL     OW15457  14.553   7.134   1.614
37873SOL    HW115458  14.464   7.152   1.585
37873SOL    HW215459  14.543   7.086   1.696
37874SOL     OW15460  11.623   8.403   9.802
37874SOL    HW115461  11.663   8.459   9.869
37874SOL    HW215462  11.683   8.407   9.728
37875SOL     OW15463   8.094  10.256   1.319
37875SOL    HW115464   8.019  10.288   1.369
37875SOL    HW215465   8.082  10.162   1.314
37876SOL     OW15466   9.880   2.447  10.700
37876SOL    HW115467   9.941   2.520  10.713
37876SOL    HW215468   9.793   2.487  10.701
37877SOL     OW15469   7.867   4.792   1.146
37877SOL    HW115470   7.810   4.733   1.196
37877SOL    HW215471   7.857   4.764   1.056
37878SOL     OW15472  14.544  11.269  14.784
37878SOL    HW115473  14.630  11.244  14.752
37878SOL    HW215474  14.483  11.237  14.717
37879SOL     OW15475  13.689  14.113  12.215
37879SOL    HW115476  13.700  14.171  12.140
37879SOL    HW215477  13.671  14.172  12.289
37880SOL     OW15478   2.192   8.851   9.225
37880SOL    HW115479   2.259   8.920   9.220
37880SOL    HW215480   2.195   8.820   9.315
37881SOL     OW15481   6.062   6.464  14.264
37881SOL    HW115482   5.976   6.424  14.261
37881SOL    HW215483   6.123   6.390  14.271
37882SOL     OW15484   4.342  13.680   5.344
37882SOL    HW115485   4.434  13.654   5.353
37882SOL    HW215486   4.338  13.728   5.262
37883SOL     OW15487   7.130   5.814  10.869
37883SOL    HW115488   7.152   5.724  10.845
37883SOL    HW215489   7.065   5.841  10.805
37884SOL     OW15490  12.302  13.070   0.718
37884SOL    HW115491  12.372  13.052   0.655
37884SOL    HW215492  12.275  12.983   0.748
37885SOL     OW15493   1.271   6.160  14.245
37885SOL    HW115494   1.256   6.219  14.172
37885SOL    HW215495   1.211   6.191  14.313
37886SOL     OW15496   7.363  10.246   8.295
37886SOL    HW115497   7.300  10.246   8.223
37886SOL    HW215498   7.433  10.304   8.265
37887SOL     OW15499  12.300  10.842   4.188
37887SOL    HW115500  12.263  10.759   4.220
37887SOL    HW215501  12.378  10.816   4.140
37888SOL     OW15502   2.078   7.253   1.766
37888SOL    HW115503   2.120   7.275   1.850
37888SOL    HW215504   1.987   7.282   1.776
37889SOL     OW15505   6.037   5.182  11.898
37889SOL    HW115506   6.122   5.155  11.863
37889SOL    HW215507   6.014   5.114  11.961
37890SOL     OW15508   6.371  11.798   3.897
37890SOL    HW115509   6.409  11.714   3.923
37890SOL    HW215510   6.338  11.783   3.809
37891SOL     OW15511   6.448  11.918   4.523
37891SOL    HW115512   6.542  11.899   4.523
37891SOL    HW215513   6.412  11.860   4.456
37892SOL     OW15514   5.650   9.307   0.168
37892SOL    HW115515   5.569   9.266   0.198
37892SOL    HW215516   5.716   9.279   0.231
37893SOL     OW15517   7.716   0.907   9.027
37893SOL    HW115518   7.623   0.915   9.005
37893SOL    HW215519   7.734   0.814   9.023
37894SOL     OW15520   5.739   8.422   0.512
37894SOL    HW115521   5.666   8.360   0.510
37894SOL    HW215522   5.773   8.421   0.422
37895SOL     OW15523   8.333  11.605   1.236
37895SOL    HW115524   8.281  11.682   1.261
37895SOL    HW215525   8.268  11.536   1.223
37896SOL     OW15526   2.785   4.321   0.533
37896SOL    HW115527   2.739   4.374   0.598
37896SOL    HW215528   2.861   4.287   0.580
37897SOL     OW15529   7.516   7.679   2.462
37897SOL    HW115530   7.569   7.604   2.435
37897SOL    HW215531   7.518   7.738   2.386
37898SOL     OW15532   9.489  11.393  10.109
37898SOL    HW115533   9.543  11.334  10.056
37898SOL    HW215534   9.403  11.391  10.067
37899SOL     OW15535  12.340   3.191   3.022
37899SOL    HW115536  12.337   3.113   3.078
37899SOL    HW215537  12.313   3.159   2.936
37900SOL     OW15538   0.780   9.312   8.413
37900SOL    HW115539   0.823   9.275   8.490
37900SOL    HW215540   0.827   9.394   8.397
37901SOL     OW15541   4.757   5.294   2.271
37901SOL    HW115542   4.706   5.353   2.327
37901SOL    HW215543   4.848   5.322   2.283
37902SOL     OW15544   2.582   4.932   0.005
37902SOL    HW115545   2.539   5.009  14.848
37902SOL    HW215546   2.511   4.870   0.022
37903SOL     OW15547   9.835  10.501  13.520
37903SOL    HW115548   9.827  10.458  13.435
37903SOL    HW215549   9.820  10.593  13.501
37904SOL     OW15550   5.428   4.847   2.879
37904SOL    HW115551   5.465   4.764   2.908
37904SOL    HW215552   5.362   4.869   2.944
37905SOL     OW15553   2.556  10.068  11.589
37905SOL    HW115554   2.465  10.095  11.586
37905SOL    HW215555   2.571  10.025  11.505
37906SOL     OW15556   4.703   5.393   9.959
37906SOL    HW115557   4.655   5.436   9.889
37906SOL    HW215558   4.796   5.409   9.939
37907SOL     OW15559  11.035   3.356  10.687
37907SOL    HW115560  11.017   3.292  10.618
37907SOL    HW215561  11.129   3.368  10.685
37908SOL     OW15562  10.125   9.364   9.354
37908SOL    HW115563  10.090   9.405   9.434
37908SOL    HW215564  10.071   9.286   9.341
37909SOL     OW15565   3.482  11.833  11.211
37909SOL    HW115566   3.515  11.824  11.301
37909SOL    HW215567   3.546  11.786  11.158
37910SOL     OW15568  10.989   4.553   1.503
37910SOL    HW115569  10.933   4.590   1.435
37910SOL    HW215570  10.958   4.592   1.584
37911SOL     OW15571   2.369   6.885   1.035
37911SOL    HW115572   2.429   6.834   1.089
37911SOL    HW215573   2.426   6.940   0.982
37912SOL     OW15574  11.520   0.044   6.991
37912SOL    HW115575  11.491   0.134   7.007
37912SOL    HW215576  11.598   0.053   6.937
37913SOL     OW15577   1.984   5.042  14.140
37913SOL    HW115578   1.993   4.998  14.056
37913SOL    HW215579   2.035   4.989  14.201
37914SOL     OW15580  14.462   3.634   4.072
37914SOL    HW115581  14.404   3.611   3.999
37914SOL    HW215582  14.546   3.595   4.048
37915SOL     OW15583  13.050   2.078   0.285
37915SOL    HW115584  13.097   2.111   0.208
37915SOL    HW215585  12.957   2.087   0.263
37916SOL     OW15586  10.481  11.251   2.177
37916SOL    HW115587  10.441  11.175   2.135
37916SOL    HW215588  10.407  11.306   2.203
37917SOL     OW15589  13.909   7.066  10.588
37917SOL    HW115590  13.936   7.156  10.603
37917SOL    HW215591  13.912   7.055  10.493
37918SOL     OW15592  14.120   4.520  10.849
37918SOL    HW115593  14.133   4.604  10.805
37918SOL    HW215594  14.171   4.458  10.797
37919SOL     OW15595  11.838  13.677   1.497
37919SOL    HW115596  11.766  13.621   1.467
37919SOL    HW215597  11.828  13.758   1.447
37920SOL     OW15598   6.669  10.932   6.695
37920SOL    HW115599   6.667  10.846   6.651
37920SOL    HW215600   6.762  10.950   6.709
37921SOL     OW15601   7.048   1.884   0.544
37921SOL    HW115602   7.133   1.853   0.575
37921SOL    HW215603   7.002   1.913   0.622
37922SOL     OW15604   1.465   7.666  11.511
37922SOL    HW115605   1.519   7.737  11.474
37922SOL    HW215606   1.388   7.711  11.546
37923SOL     OW15607   2.590   8.678   5.193
37923SOL    HW115608   2.643   8.733   5.251
37923SOL    HW215609   2.654   8.631   5.140
37924SOL     OW15610  12.031   5.630   0.908
37924SOL    HW115611  12.105   5.576   0.877
37924SOL    HW215612  12.073   5.706   0.948
37925SOL     OW15613  12.495  12.689   2.521
37925SOL    HW115614  12.467  12.740   2.445
37925SOL    HW215615  12.539  12.613   2.483
37926SOL     OW15616   5.746   7.765  10.513
37926SOL    HW115617   5.695   7.836  10.553
37926SOL    HW215618   5.821   7.810  10.472
37927SOL     OW15619   9.688   4.110   9.066
37927SOL    HW115620   9.597   4.125   9.092
37927SOL    HW215621   9.682   4.069   8.980
37928SOL     OW15622  10.898  12.139  11.710
37928SOL    HW115623  10.881  12.148  11.804
37928SOL    HW215624  10.834  12.198  11.669
37929SOL     OW15625   0.183  11.247   3.500
37929SOL    HW115626   0.227  11.243   3.585
37929SOL    HW215627   0.143  11.161   3.489
37930SOL     OW15628  14.045   1.619  10.351
37930SOL    HW115629  14.111   1.552  10.334
37930SOL    HW215630  14.089   1.702  10.334
37931SOL     OW15631  13.829  10.435   5.649
37931SOL    HW115632  13.850  10.528   5.646
37931SOL    HW215633  13.809  10.412   5.558
37932SOL     OW15634  12.236   0.232   0.499
37932SOL    HW115635  12.243   0.220   0.404
37932SOL    HW215636  12.144   0.256   0.514
37933SOL     OW15637   6.340  10.874  13.668
37933SOL    HW115638   6.319  10.783  13.644
37933SOL    HW215639   6.292  10.890  13.748
37934SOL     OW15640   8.798  14.355   3.161
37934SOL    HW115641   8.736  14.285   3.182
37934SOL    HW215642   8.828  14.335   3.072
37935SOL     OW15643   0.272   6.512  10.843
37935SOL    HW115644   0.207   6.535  10.909
37935SOL    HW215645   0.235   6.542  10.761
37936SOL     OW15646  10.833  11.979   8.851
37936SOL    HW115647  10.896  11.918   8.889
37936SOL    HW215648  10.768  11.993   8.920
37937SOL     OW15649  11.322   0.446   4.569
37937SOL    HW115650  11.409   0.448   4.529
37937SOL    HW215651  11.266   0.491   4.506
37938SOL     OW15652   5.231  14.756   1.222
37938SOL    HW115653   5.141  14.728   1.205
37938SOL    HW215654   5.285  14.686   1.186
37939SOL     OW15655  13.394   7.227   5.997
37939SOL    HW115656  13.302   7.252   6.007
37939SOL    HW215657  13.443   7.299   6.036
37940SOL     OW15658   0.126  13.735  11.336
37940SOL    HW115659   0.167  13.809  11.291
37940SOL    HW215660   0.140  13.660  11.277
37941SOL     OW15661   6.625  13.703  13.280
37941SOL    HW115662   6.593  13.646  13.210
37941SOL    HW215663   6.565  13.687  13.353
37942SOL     OW15664   6.782   4.351   3.155
37942SOL    HW115665   6.708   4.299   3.122
37942SOL    HW215666   6.859   4.303   3.127
37943SOL     OW15667   2.899   3.359  10.036
37943SOL    HW115668   2.902   3.450  10.065
37943SOL    HW215669   2.965   3.315  10.089
37944SOL     OW15670   2.139   9.348  12.638
37944SOL    HW115671   2.193   9.341  12.559
37944SOL    HW215672   2.049   9.348  12.606
37945SOL     OW15673   3.704   5.687  14.079
37945SOL    HW115674   3.793   5.720  14.070
37945SOL    HW215675   3.659   5.753  14.132
37946SOL     OW15676   3.123   8.551   2.418
37946SOL    HW115677   3.074   8.554   2.336
37946SOL    HW215678   3.086   8.622   2.470
37947SOL     OW15679   0.581   6.923   8.850
37947SOL    HW115680   0.569   7.010   8.811
37947SOL    HW215681   0.498   6.906   8.895
37948SOL     OW15682   4.980   2.888  13.237
37948SOL    HW115683   5.041   2.849  13.299
37948SOL    HW215684   5.034   2.911  13.161
37949SOL     OW15685   5.560  11.565   2.687
37949SOL    HW115686   5.477  11.603   2.661
37949SOL    HW215687   5.614  11.567   2.608
37950SOL     OW15688   6.316   1.582  13.751
37950SOL    HW115689   6.373   1.648  13.791
37950SOL    HW215690   6.377   1.518  13.714
37951SOL     OW15691   6.943  13.069   3.742
37951SOL    HW115692   6.927  12.983   3.780
37951SOL    HW215693   6.863  13.088   3.692
37952SOL     OW15694  13.648  12.063  14.805
37952SOL    HW115695  13.574  12.084  14.862
37952SOL    HW215696  13.698  12.144  14.799
37953SOL     OW15697   7.009  12.236   4.222
37953SOL    HW115698   7.027  12.315   4.172
37953SOL    HW215699   6.963  12.266   4.300
37954SOL     OW15700  12.761   6.024   9.786
37954SOL    HW115701  12.674   5.994   9.757
37954SOL    HW215702  12.761   6.118   9.768
37955SOL     OW15703   9.332   3.213   2.365
37955SOL    HW115704   9.350   3.143   2.428
37955SOL    HW215705   9.349   3.174   2.280
37956SOL     OW15706   6.356   1.854  11.915
37956SOL    HW115707   6.443   1.867  11.951
37956SOL    HW215708   6.297   1.893  11.980
37957SOL     OW15709  11.691   4.094   8.679
37957SOL    HW115710  11.707   4.177   8.633
37957SOL    HW215711  11.689   4.028   8.609
37958SOL     OW15712  10.429   7.141  10.548
37958SOL    HW115713  10.342   7.102  10.555
37958SOL    HW215714  10.457   7.121  10.459
37959SOL     OW15715  12.960   8.438  12.877
37959SOL    HW115716  12.949   8.440  12.782
37959SOL    HW215717  12.886   8.489  12.910
37960SOL     OW15718  12.065  13.545  11.040
37960SOL    HW115719  12.145  13.576  10.998
37960SOL    HW215720  12.085  13.545  11.133
37961SOL     OW15721   7.123   7.507  14.225
37961SOL    HW115722   7.207   7.468  14.248
37961SOL    HW215723   7.064   7.482  14.297
37962SOL     OW15724   1.997   3.053  11.863
37962SOL    HW115725   1.967   3.066  11.773
37962SOL    HW215726   1.942   3.112  11.915
37963SOL     OW15727   7.378   4.398   1.557
37963SOL    HW115728   7.295   4.365   1.591
37963SOL    HW215729   7.353   4.462   1.491
37964SOL     OW15730  11.229  12.820   5.847
37964SOL    HW115731  11.171  12.779   5.912
37964SOL    HW215732  11.192  12.907   5.835
37965SOL     OW15733  11.673  11.460   4.643
37965SOL    HW115734  11.595  11.413   4.612
37965SOL    HW215735  11.740  11.392   4.649
37966SOL     OW15736   2.861   7.500   5.771
37966SOL    HW115737   2.872   7.423   5.716
37966SOL    HW215738   2.882   7.470   5.860
37967SOL     OW15739   9.657  12.654  14.178
37967SOL    HW115740   9.641  12.707  14.100
37967SOL    HW215741   9.658  12.564  14.147
37968SOL     OW15742   2.006   7.309  10.446
37968SOL    HW115743   1.952   7.292  10.523
37968SOL    HW215744   1.986   7.235  10.387
37969SOL     OW15745  13.114   6.207  13.122
37969SOL    HW115746  13.179   6.137  13.127
37969SOL    HW215747  13.053   6.178  13.054
37970SOL     OW15748   2.220  12.101   0.491
37970SOL    HW115749   2.228  12.188   0.530
37970SOL    HW215750   2.136  12.104   0.445
37971SOL     OW15751   1.563   8.372  10.330
37971SOL    HW115752   1.647   8.349  10.289
37971SOL    HW215753   1.500   8.367  10.259
37972SOL     OW15754  13.714   8.581   3.608
37972SOL    HW115755  13.646   8.541   3.553
37972SOL    HW215756  13.682   8.571   3.697
37973SOL     OW15757   5.996   7.510   8.436
37973SOL    HW115758   5.937   7.568   8.484
37973SOL    HW215759   5.957   7.503   8.349
37974SOL     OW15760   4.656   8.509   9.781
37974SOL    HW115761   4.663   8.508   9.686
37974SOL    HW215762   4.681   8.597   9.807
37975SOL     OW15763  10.042   0.349  12.933
37975SOL    HW115764   9.992   0.336  12.852
37975SOL    HW215765  10.125   0.303  12.918
37976SOL     OW15766  10.522  11.233   5.887
37976SOL    HW115767  10.518  11.290   5.963
37976SOL    HW215768  10.501  11.289   5.813
37977SOL     OW15769  13.368   2.341   8.679
37977SOL    HW115770  13.396   2.249   8.673
37977SOL    HW215771  13.450   2.391   8.684
37978SOL     OW15772   3.708  12.664   2.882
37978SOL    HW115773   3.722  12.727   2.953
37978SOL    HW215774   3.771  12.688   2.815
37979SOL     OW15775   7.131   9.289   8.120
37979SOL    HW115776   7.210   9.285   8.174
37979SOL    HW215777   7.119   9.382   8.101
37980SOL     OW15778   1.390   6.732   5.747
37980SOL    HW115779   1.436   6.653   5.720
37980SOL    HW215780   1.316   6.739   5.686
37981SOL     OW15781   3.060   2.437   2.202
37981SOL    HW115782   3.146   2.475   2.186
37981SOL    HW215783   2.998   2.507   2.179
37982SOL     OW15784   0.202  10.681   5.447
37982SOL    HW115785   0.192  10.776   5.438
37982SOL    HW215786   0.222  10.668   5.540
37983SOL     OW15787   4.262  11.649   7.862
37983SOL    HW115788   4.349  11.609   7.867
37983SOL    HW215789   4.208  11.583   7.819
37984SOL     OW15790   7.985   3.207   5.902
37984SOL    HW115791   7.960   3.181   5.990
37984SOL    HW215792   7.965   3.300   5.898
37985SOL     OW15793   3.601  12.590   1.833
37985SOL    HW115794   3.573  12.545   1.753
37985SOL    HW215795   3.678  12.640   1.807
37986SOL     OW15796   3.178   6.479  12.626
37986SOL    HW115797   3.249   6.511  12.682
37986SOL    HW215798   3.172   6.385  12.646
37987SOL     OW15799   3.499  14.141  12.228
37987SOL    HW115800   3.417  14.117  12.270
37987SOL    HW215801   3.517  14.069  12.167
37988SOL     OW15802  10.658   6.045   0.696
37988SOL    HW115803  10.684   6.008   0.611
37988SOL    HW215804  10.568   6.073   0.684
37989SOL     OW15805  10.585  13.446  13.534
37989SOL    HW115806  10.627  13.382  13.591
37989SOL    HW215807  10.656  13.479  13.479
37990SOL     OW15808   4.870   4.882  13.244
37990SOL    HW115809   4.796   4.943  13.243
37990SOL    HW215810   4.874   4.847  13.155
37991SOL     OW15811   2.960  12.824   8.526
37991SOL    HW115812   2.959  12.729   8.511
37991SOL    HW215813   2.870  12.847   8.547
37992SOL     OW15814   2.022  14.378   7.476
37992SOL    HW115815   2.102  14.425   7.501
37992SOL    HW215816   1.951  14.436   7.503
37993SOL     OW15817  10.116  13.214   9.191
37993SOL    HW115818  10.051  13.153   9.226
37993SOL    HW215819  10.104  13.209   9.096
37994SOL     OW15820  14.750  11.259  14.362
37994SOL    HW115821  14.718  11.194  14.299
37994SOL    HW215822  14.785  11.330  14.308
37995SOL     OW15823   0.834   3.502   4.060
37995SOL    HW115824   0.925   3.521   4.037
37995SOL    HW215825   0.826   3.528   4.152
37996SOL     OW15826   6.399   5.655   4.661
37996SOL    HW115827   6.456   5.579   4.671
37996SOL    HW215828   6.323   5.636   4.717
37997SOL     OW15829   1.186   8.446  12.001
37997SOL    HW115830   1.172   8.484  12.088
37997SOL    HW215831   1.277   8.417  12.003
37998SOL     OW15832  12.419   1.393   6.959
37998SOL    HW115833  12.464   1.313   6.987
37998SOL    HW215834  12.486   1.461   6.961
37999SOL     OW15835  10.923   8.229  11.179
37999SOL    HW115836  11.017   8.209  11.179
37999SOL    HW215837  10.917   8.317  11.143
38000SOL     OW15838   7.714  10.631  10.172
38000SOL    HW115839   7.807  10.624  10.194
38000SOL    HW215840   7.712  10.686  10.094
38001SOL     OW15841   6.356  11.195   4.223
38001SOL    HW115842   6.264  11.220   4.225
38001SOL    HW215843   6.356  11.101   4.241
38002SOL     OW15844   2.146  11.776  12.554
38002SOL    HW115845   2.223  11.765  12.499
38002SOL    HW215846   2.139  11.693  12.602
38003SOL     OW15847   3.716   3.013   7.023
38003SOL    HW115848   3.748   3.009   7.113
38003SOL    HW215849   3.757   2.938   6.980
38004SOL     OW15850  13.766   9.220   1.753
38004SOL    HW115851  13.766   9.129   1.724
38004SOL    HW215852  13.709   9.265   1.691
38005SOL     OW15853  14.622   8.235   6.964
38005SOL    HW115854  14.586   8.159   7.008
38005SOL    HW215855  14.715   8.237   6.989
38006SOL     OW15856   3.511  10.343  14.402
38006SOL    HW115857   3.506  10.255  14.439
38006SOL    HW215858   3.591  10.380  14.441
38007SOL     OW15859   7.035  13.914   4.608
38007SOL    HW115860   7.054  13.981   4.673
38007SOL    HW215861   7.119  13.897   4.566
38008SOL     OW15862  12.800   8.692  11.603
38008SOL    HW115863  12.764   8.615  11.560
38008SOL    HW215864  12.825   8.662  11.690
38009SOL     OW15865  10.859   9.465  10.393
38009SOL    HW115866  10.883   9.504  10.477
38009SOL    HW215867  10.766   9.483  10.383
38010SOL     OW15868  12.629   0.912  13.184
38010SOL    HW115869  12.587   0.896  13.100
38010SOL    HW215870  12.652   1.005  13.183
38011SOL     OW15871  10.283  13.122   3.483
38011SOL    HW115872  10.214  13.058   3.465
38011SOL    HW215873  10.345  13.075   3.539
38012SOL     OW15874   1.624   0.801  13.904
38012SOL    HW115875   1.548   0.754  13.936
38012SOL    HW215876   1.627   0.882  13.956
38013SOL     OW15877   6.622   3.179   2.719
38013SOL    HW115878   6.563   3.198   2.793
38013SOL    HW215879   6.564   3.149   2.649
38014SOL     OW15880   9.706   5.826   0.826
38014SOL    HW115881   9.704   5.824   0.922
38014SOL    HW215882   9.698   5.734   0.801
38015SOL     OW15883  14.565   4.235   8.608
38015SOL    HW115884  14.484   4.185   8.597
38015SOL    HW215885  14.635   4.171   8.592
38016SOL     OW15886   9.851  13.327   7.849
38016SOL    HW115887   9.898  13.403   7.814
38016SOL    HW215888   9.916  13.257   7.851
38017SOL     OW15889   4.557   0.428   6.949
38017SOL    HW115890   4.501   0.352   6.934
38017SOL    HW215891   4.503   0.488   7.001
38018SOL     OW15892   6.829  12.683   6.488
38018SOL    HW115893   6.778  12.702   6.409
38018SOL    HW215894   6.763  12.665   6.555
38019SOL     OW15895  13.246   4.453   2.898
38019SOL    HW115896  13.279   4.445   2.987
38019SOL    HW215897  13.151   4.445   2.906
38020SOL     OW15898  13.229   5.621  11.033
38020SOL    HW115899  13.277   5.685  11.085
38020SOL    HW215900  13.297   5.570  10.989
38021SOL     OW15901  13.567   6.553   7.993
38021SOL    HW115902  13.654   6.585   8.017
38021SOL    HW215903  13.532   6.517   8.075
38022SOL     OW15904  14.062   4.223   0.196
38022SOL    HW115905  14.110   4.301   0.223
38022SOL    HW215906  13.970   4.246   0.205
38023SOL     OW15907  10.627  12.904   9.588
38023SOL    HW115908  10.573  12.842   9.538
38023SOL    HW215909  10.572  12.929   9.662
38024SOL     OW15910   0.246  12.338  11.392
38024SOL    HW115911   0.324  12.393  11.403
38024SOL    HW215912   0.173  12.399  11.391
38025SOL     OW15913   7.574   6.655   4.851
38025SOL    HW115914   7.597   6.748   4.844
38025SOL    HW215915   7.478   6.653   4.846
38026SOL     OW15916  13.375   2.255   0.375
38026SOL    HW115917  13.368   2.170   0.419
38026SOL    HW215918  13.285   2.277   0.352
38027SOL     OW15919  13.826  10.939  11.081
38027SOL    HW115920  13.736  10.971  11.072
38027SOL    HW215921  13.852  10.916  10.992
38028SOL     OW15922   8.231  14.198   3.043
38028SOL    HW115923   8.208  14.227   3.132
38028SOL    HW215924   8.178  14.254   2.986
38029SOL     OW15925   2.815   1.405   0.819
38029SOL    HW115926   2.873   1.329   0.808
38029SOL    HW215927   2.874   1.481   0.817
38030SOL     OW15928  14.707   1.541   3.485
38030SOL    HW115929  14.735   1.593   3.410
38030SOL    HW215930  14.651   1.473   3.447
38031SOL     OW15931  14.746  14.618   4.490
38031SOL    HW115932  14.787  14.591   4.571
38031SOL    HW215933  14.742  14.539   4.437
38032SOL     OW15934   2.436  14.789  11.403
38032SOL    HW115935   2.458  14.704  11.365
38032SOL    HW215936   2.381  14.769  11.479
38033SOL     OW15937   2.134   5.178  10.986
38033SOL    HW115938   2.199   5.134  10.931
38033SOL    HW215939   2.185   5.221  11.054
38034SOL     OW15940   3.315   6.375   9.872
38034SOL    HW115941   3.354   6.288   9.885
38034SOL    HW215942   3.232   6.357   9.828
38035SOL     OW15943   7.622   5.436   7.768
38035SOL    HW115944   7.580   5.384   7.700
38035SOL    HW215945   7.632   5.523   7.729
38036SOL     OW15946  10.533   3.535   1.988
38036SOL    HW115947  10.475   3.522   2.063
38036SOL    HW215948  10.590   3.458   1.987
38037SOL     OW15949   0.393   0.842   8.278
38037SOL    HW115950   0.350   0.758   8.293
38037SOL    HW215951   0.484   0.827   8.303
38038SOL     OW15952   7.959  12.155   6.515
38038SOL    HW115953   7.866  12.134   6.514
38038SOL    HW215954   7.997  12.096   6.449
38039SOL     OW15955  10.482  12.835   1.423
38039SOL    HW115956  10.424  12.783   1.479
38039SOL    HW215957  10.427  12.909   1.395
38040SOL     OW15958   6.439   8.174   4.832
38040SOL    HW115959   6.363   8.116   4.833
38040SOL    HW215960   6.415   8.245   4.891
38041SOL     OW15961  12.356  13.880   7.009
38041SOL    HW115962  12.276  13.827   7.019
38041SOL    HW215963  12.375  13.911   7.098
38042SOL     OW15964   8.367  13.861   2.911
38042SOL    HW115965   8.337  13.883   2.822
38042SOL    HW215966   8.455  13.826   2.898
38043SOL     OW15967   2.531  11.819  13.414
38043SOL    HW115968   2.586  11.863  13.349
38043SOL    HW215969   2.442  11.848  13.394
38044SOL     OW15970  11.318   3.630   2.026
38044SOL    HW115971  11.304   3.547   2.072
38044SOL    HW215972  11.334   3.605   1.935
38045SOL     OW15973   2.348   5.841  11.209
38045SOL    HW115974   2.375   5.874  11.123
38045SOL    HW215975   2.261   5.878  11.222
38046SOL     OW15976  10.802   1.544   4.965
38046SOL    HW115977  10.805   1.596   5.045
38046SOL    HW215978  10.889   1.557   4.925
38047SOL     OW15979   6.270  11.275   1.218
38047SOL    HW115980   6.188  11.233   1.246
38047SOL    HW215981   6.338  11.232   1.270
38048SOL     OW15982   8.676  14.232  10.548
38048SOL    HW115983   8.619  14.302  10.581
38048SOL    HW215984   8.635  14.206  10.465
38049SOL     OW15985   2.610   6.593  11.392
38049SOL    HW115986   2.695   6.636  11.388
38049SOL    HW215987   2.550   6.662  11.421
38050SOL     OW15988   2.869  12.765   9.969
38050SOL    HW115989   2.920  12.685   9.953
38050SOL    HW215990   2.934  12.835   9.973
38051SOL     OW15991   5.798   7.303   8.184
38051SOL    HW115992   5.808   7.396   8.203
38051SOL    HW215993   5.708   7.294   8.153
38052SOL     OW15994   8.055   8.354   1.040
38052SOL    HW115995   7.988   8.388   1.099
38052SOL    HW215996   8.082   8.429   0.988
38053SOL     OW15997   3.136  14.546   1.203
38053SOL    HW115998   3.145  14.540   1.299
38053SOL    HW215999   3.088  14.467   1.179
38054SOL     OW16000   9.120   7.078  12.034
38054SOL    HW116001   9.164   7.023  11.968
38054SOL    HW216002   9.190   7.134  12.068
38055SOL     OW16003   1.125  13.414   9.205
38055SOL    HW116004   1.149  13.342   9.147
38055SOL    HW216005   1.047  13.452   9.164
38056SOL     OW16006   7.678   2.180   3.539
38056SOL    HW116007   7.620   2.108   3.513
38056SOL    HW216008   7.748   2.137   3.588
38057SOL     OW16009  13.507   3.438   7.228
38057SOL    HW116010  13.466   3.406   7.148
38057SOL    HW216011  13.441   3.496   7.267
38058SOL     OW16012   1.635   0.719  11.726
38058SOL    HW116013   1.706   0.666  11.762
38058SOL    HW216014   1.573   0.656  11.691
38059SOL     OW16015   0.939   9.014   0.563
38059SOL    HW116016   0.932   8.986   0.654
38059SOL    HW216017   0.923   8.935   0.512
38060SOL     OW16018  13.313   5.360   6.367
38060SOL    HW116019  13.391   5.413   6.383
38060SOL    HW216020  13.288   5.380   6.277
38061SOL     OW16021   4.292   9.102   5.073
38061SOL    HW116022   4.301   9.162   5.147
38061SOL    HW216023   4.200   9.077   5.074
38062SOL     OW16024   7.557   5.496   1.986
38062SOL    HW116025   7.625   5.433   2.011
38062SOL    HW216026   7.516   5.521   2.068
38063SOL     OW16027   1.315  12.034  13.290
38063SOL    HW116028   1.281  11.996  13.371
38063SOL    HW216029   1.374  12.104  13.320
38064SOL     OW16030  13.704  11.567  12.043
38064SOL    HW116031  13.758  11.487  12.048
38064SOL    HW216032  13.717  11.598  11.953
38065SOL     OW16033  13.934  13.128   4.514
38065SOL    HW116034  14.023  13.161   4.503
38065SOL    HW216035  13.932  13.095   4.604
38066SOL     OW16036  12.739   4.089   5.108
38066SOL    HW116037  12.720   4.005   5.066
38066SOL    HW216038  12.793   4.066   5.184
38067SOL     OW16039   4.606   0.555   2.404
38067SOL    HW116040   4.634   0.530   2.492
38067SOL    HW216041   4.676   0.611   2.371
38068SOL     OW16042   5.360   2.164   0.587
38068SOL    HW116043   5.299   2.237   0.599
38068SOL    HW216044   5.304   2.089   0.567
38069SOL     OW16045   0.984  12.661  14.519
38069SOL    HW116046   0.949  12.596  14.458
38069SOL    HW216047   0.913  12.677  14.581
38070SOL     OW16048  14.647   4.461   6.249
38070SOL    HW116049  14.585   4.527   6.216
38070SOL    HW216050  14.721   4.511   6.281
38071SOL     OW16051   0.149  10.016   2.283
38071SOL    HW116052   0.082   9.952   2.309
38071SOL    HW216053   0.232   9.977   2.312
38072SOL     OW16054   3.434   7.442   9.686
38072SOL    HW116055   3.342   7.427   9.663
38072SOL    HW216056   3.460   7.516   9.630
38073SOL     OW16057   4.227   3.242  11.862
38073SOL    HW116058   4.286   3.248  11.936
38073SOL    HW216059   4.218   3.148  11.845
38074SOL     OW16060  12.801  11.898  10.571
38074SOL    HW116061  12.895  11.905  10.584
38074SOL    HW216062  12.791  11.885  10.476
38075SOL     OW16063   6.124   5.898   9.514
38075SOL    HW116064   6.030   5.883   9.528
38075SOL    HW216065   6.164   5.882   9.599
38076SOL     OW16066  14.155   0.934  12.989
38076SOL    HW116067  14.222   0.951  13.056
38076SOL    HW216068  14.171   0.845  12.960
38077SOL     OW16069  12.996   7.995   2.103
38077SOL    HW116070  12.920   7.940   2.120
38077SOL    HW216071  13.008   8.046   2.183
38078SOL     OW16072   2.793   8.453   7.459
38078SOL    HW116073   2.765   8.505   7.383
38078SOL    HW216074   2.721   8.393   7.475
38079SOL     OW16075  12.991  10.675  11.114
38079SOL    HW116076  13.046  10.737  11.066
38079SOL    HW216077  12.907  10.677  11.068
38080SOL     OW16078  11.471  10.921   9.600
38080SOL    HW116079  11.543  10.871   9.561
38080SOL    HW216080  11.508  10.960   9.678
38081SOL     OW16081   2.096   7.169  14.723
38081SOL    HW116082   2.188   7.147  14.711
38081SOL    HW216083   2.064   7.105  14.787
38082SOL     OW16084  12.468   2.934  11.435
38082SOL    HW116085  12.485   2.906  11.525
38082SOL    HW216086  12.381   2.974  11.438
38083SOL     OW16087   8.748   7.594   9.418
38083SOL    HW116088   8.750   7.557   9.506
38083SOL    HW216089   8.835   7.633   9.406
38084SOL     OW16090   4.886  11.567  13.470
38084SOL    HW116091   4.903  11.653  13.430
38084SOL    HW216092   4.823  11.586  13.540
38085SOL     OW16093  13.723   2.280   8.026
38085SOL    HW116094  13.671   2.308   8.102
38085SOL    HW216095  13.814   2.293   8.054
38086SOL     OW16096   3.530   3.907   4.077
38086SOL    HW116097   3.599   3.955   4.032
38086SOL    HW216098   3.558   3.906   4.169
38087SOL     OW16099   6.763   6.226  11.856
38087SOL    HW116100   6.762   6.179  11.772
38087SOL    HW216101   6.715   6.307  11.839
38088SOL     OW16102  12.200   2.311  11.701
38088SOL    HW116103  12.281   2.346  11.739
38088SOL    HW216104  12.229   2.243  11.640
38089SOL     OW16105  10.531   2.972   4.978
38089SOL    HW116106  10.561   2.984   5.068
38089SOL    HW216107  10.436   2.966   4.984
38090SOL     OW16108   4.767   0.688   0.911
38090SOL    HW116109   4.840   0.740   0.944
38090SOL    HW216110   4.753   0.720   0.822
38091SOL     OW16111   6.977   9.681  12.962
38091SOL    HW116112   6.892   9.690  13.007
38091SOL    HW216113   6.982   9.759  12.906
38092SOL     OW16114   5.292   1.867   7.516
38092SOL    HW116115   5.247   1.837   7.594
38092SOL    HW216116   5.384   1.845   7.531
38093SOL     OW16117  12.710   5.856   5.335
38093SOL    HW116118  12.640   5.908   5.376
38093SOL    HW216119  12.751   5.809   5.408
38094SOL     OW16120  13.623  10.378   3.136
38094SOL    HW116121  13.672  10.409   3.059
38094SOL    HW216122  13.656  10.289   3.151
38095SOL     OW16123   2.165   7.505  12.038
38095SOL    HW116124   2.135   7.415  12.046
38095SOL    HW216125   2.087   7.554  12.011
38096SOL     OW16126  11.481   7.933   8.698
38096SOL    HW116127  11.487   7.921   8.603
38096SOL    HW216128  11.389   7.919   8.718
38097SOL     OW16129   1.452   2.568   9.522
38097SOL    HW116130   1.386   2.634   9.539
38097SOL    HW216131   1.407   2.485   9.534
38098SOL     OW16132   7.794   3.293   8.752
38098SOL    HW116133   7.841   3.376   8.741
38098SOL    HW216134   7.705   3.311   8.722
38099SOL     OW16135   3.668  14.584   6.155
38099SOL    HW116136   3.606  14.657   6.158
38099SOL    HW216137   3.616  14.507   6.180
38100SOL     OW16138   1.629   9.283  11.053
38100SOL    HW116139   1.588   9.356  11.007
38100SOL    HW216140   1.612   9.207  10.997
38101SOL     OW16141  14.351   2.836   7.933
38101SOL    HW116142  14.278   2.882   7.892
38101SOL    HW216143  14.320   2.815   8.021
38102SOL     OW16144   3.870   6.605   6.051
38102SOL    HW116145   3.897   6.540   5.986
38102SOL    HW216146   3.774   6.607   6.044
38103SOL     OW16147   8.288  13.786  11.850
38103SOL    HW116148   8.297  13.772  11.944
38103SOL    HW216149   8.372  13.823  11.823
38104SOL     OW16150  13.636   2.746   6.852
38104SOL    HW116151  13.652   2.775   6.762
38104SOL    HW216152  13.710   2.688   6.872
38105SOL     OW16153   4.505   2.276   4.681
38105SOL    HW116154   4.588   2.287   4.727
38105SOL    HW216155   4.455   2.216   4.736
38106SOL     OW16156  11.726   2.968   7.191
38106SOL    HW116157  11.658   2.926   7.245
38106SOL    HW216158  11.785   2.896   7.168
38107SOL     OW16159  14.043   0.218  11.134
38107SOL    HW116160  14.003   0.251  11.054
38107SOL    HW216161  14.023   0.285  11.200
38108SOL     OW16162   0.606   7.283   0.048
38108SOL    HW116163   0.589   7.272  14.834
38108SOL    HW216164   0.574   7.370   0.069
38109SOL     OW16165   0.487  12.281   6.898
38109SOL    HW116166   0.496  12.189   6.923
38109SOL    HW216167   0.511  12.330   6.977
38110SOL     OW16168  10.166  13.784   5.697
38110SOL    HW116169  10.162  13.808   5.790
38110SOL    HW216170  10.174  13.689   5.697
38111SOL     OW16171  14.295   3.929  11.844
38111SOL    HW116172  14.370   3.936  11.903
38111SOL    HW216173  14.233   3.994  11.876
38112SOL     OW16174   3.036   4.131   5.941
38112SOL    HW116175   3.068   4.116   5.851
38112SOL    HW216176   2.968   4.065   5.953
38113SOL     OW16177   1.388   8.675   8.968
38113SOL    HW116178   1.392   8.669   8.872
38113SOL    HW216179   1.427   8.760   8.988
38114SOL     OW16180   4.728   0.749   2.956
38114SOL    HW116181   4.722   0.669   3.009
38114SOL    HW216182   4.818   0.780   2.969
38115SOL     OW16183   3.884  14.819  10.423
38115SOL    HW116184   3.930  14.812  10.340
38115SOL    HW216185   3.857  14.729  10.443
38116SOL     OW16186   2.111   6.747   1.704
38116SOL    HW116187   2.124   6.836   1.737
38116SOL    HW216188   2.139   6.690   1.776
38117SOL     OW16189  11.377   0.268  11.706
38117SOL    HW116190  11.443   0.219  11.755
38117SOL    HW216191  11.354   0.210  11.633
38118SOL     OW16192   0.171   4.079  11.224
38118SOL    HW116193   0.194   4.012  11.288
38118SOL    HW216194   0.143   4.154  11.277
38119SOL     OW16195  11.600   5.897   6.046
38119SOL    HW116196  11.533   5.830   6.058
38119SOL    HW216197  11.647   5.870   5.967
38120SOL     OW16198  12.377  11.878  14.841
38120SOL    HW116199  12.437  11.813  14.804
38120SOL    HW216200  12.433  11.933   0.018
38121SOL     OW16201   5.966   8.635   1.878
38121SOL    HW116202   5.963   8.550   1.921
38121SOL    HW216203   5.947   8.698   1.948
38122SOL     OW16204  14.614  12.015   7.726
38122SOL    HW116205  14.528  11.977   7.707
38122SOL    HW216206  14.594  12.100   7.766
38123SOL     OW16207   9.469   7.083   0.887
38123SOL    HW116208   9.538   7.147   0.905
38123SOL    HW216209   9.459   7.034   0.969
38124SOL     OW16210   1.592   2.432  11.413
38124SOL    HW116211   1.589   2.498  11.483
38124SOL    HW216212   1.673   2.451  11.366
38125SOL     OW16213   3.581   8.345   9.669
38125SOL    HW116214   3.539   8.362   9.585
38125SOL    HW216215   3.674   8.339   9.649
38126SOL     OW16216   6.422   8.803  14.018
38126SOL    HW116217   6.511   8.782  13.992
38126SOL    HW216218   6.391   8.864  13.951
38127SOL     OW16219   8.314   4.676  12.311
38127SOL    HW116220   8.219   4.669  12.299
38127SOL    HW216221   8.332   4.770  12.306
38128SOL     OW16222   1.613   1.153   5.743
38128SOL    HW116223   1.696   1.174   5.701
38128SOL    HW216224   1.606   1.217   5.815
38129SOL     OW16225   7.074   6.002  11.832
38129SOL    HW116226   7.148   5.983  11.773
38129SOL    HW216227   7.005   6.032  11.774
38130SOL     OW16228   2.398   3.797   1.458
38130SOL    HW116229   2.411   3.759   1.372
38130SOL    HW216230   2.487   3.807   1.494
38131SOL     OW16231  14.058   6.236   6.767
38131SOL    HW116232  14.005   6.279   6.834
38131SOL    HW216233  14.148   6.250   6.795
38132SOL     OW16234   5.364   2.164   4.797
38132SOL    HW116235   5.354   2.147   4.703
38132SOL    HW216236   5.333   2.253   4.809
38133SOL     OW16237   5.309   5.224   1.902
38133SOL    HW116238   5.261   5.281   1.962
38133SOL    HW216239   5.322   5.277   1.823
38134SOL     OW16240   7.131   8.066   1.727
38134SOL    HW116241   7.060   8.128   1.715
38134SOL    HW216242   7.094   7.982   1.698
38135SOL     OW16243   6.727   3.275   0.711
38135SOL    HW116244   6.672   3.350   0.733
38135SOL    HW216245   6.787   3.308   0.644
38136SOL     OW16246   9.972   2.269   7.715
38136SOL    HW116247  10.034   2.305   7.651
38136SOL    HW216248   9.974   2.175   7.701
38137SOL     OW16249   5.777  14.123   0.782
38137SOL    HW116250   5.729  14.202   0.805
38137SOL    HW216251   5.869  14.147   0.792
38138SOL     OW16252   9.258  12.797  13.823
38138SOL    HW116253   9.209  12.719  13.848
38138SOL    HW216254   9.286  12.835  13.907
38139SOL     OW16255   8.806   1.465   6.545
38139SOL    HW116256   8.862   1.537   6.515
38139SOL    HW216257   8.732   1.509   6.587
38140SOL     OW16258   2.897   2.322  12.613
38140SOL    HW116259   2.846   2.347  12.536
38140SOL    HW216260   2.940   2.241  12.587
38141SOL     OW16261   1.697   1.865   7.772
38141SOL    HW116262   1.770   1.817   7.812
38141SOL    HW216263   1.736   1.949   7.747
38142SOL     OW16264   5.797   7.482   7.806
38142SOL    HW116265   5.815   7.390   7.789
38142SOL    HW216266   5.874   7.514   7.851
38143SOL     OW16267  11.270   3.956   0.444
38143SOL    HW116268  11.346   4.009   0.470
38143SOL    HW216269  11.212   4.017   0.399
38144SOL     OW16270   3.403  13.755   3.888
38144SOL    HW116271   3.322  13.796   3.857
38144SOL    HW216272   3.456  13.828   3.920
38145SOL     OW16273   2.537   3.205   4.347
38145SOL    HW116274   2.504   3.118   4.324
38145SOL    HW216275   2.630   3.193   4.361
38146SOL     OW16276   4.057   5.449  13.470
38146SOL    HW116277   4.118   5.414  13.535
38146SOL    HW216278   3.981   5.391  13.473
38147SOL     OW16279  14.284   4.478   9.848
38147SOL    HW116280  14.191   4.502   9.852
38147SOL    HW216281  14.323   4.524   9.922
38148SOL     OW16282  13.675   6.976  10.668
38148SOL    HW116283  13.639   7.046  10.723
38148SOL    HW216284  13.757   7.012  10.635
38149SOL     OW16285  11.800  12.859   6.638
38149SOL    HW116286  11.895  12.865   6.640
38149SOL    HW216287  11.781  12.768   6.658
38150SOL     OW16288   5.660   5.271   0.903
38150SOL    HW116289   5.664   5.366   0.899
38150SOL    HW216290   5.627   5.251   0.990
38151SOL     OW16291  11.427   7.136  11.606
38151SOL    HW116292  11.427   7.065  11.670
38151SOL    HW216293  11.400   7.094  11.524
38152SOL     OW16294  12.772   2.369  10.715
38152SOL    HW116295  12.718   2.437  10.673
38152SOL    HW216296  12.862   2.401  10.704
38153SOL     OW16297   7.721   1.520   2.621
38153SOL    HW116298   7.775   1.589   2.658
38153SOL    HW216299   7.631   1.553   2.626
38154SOL     OW16300   6.044  11.042   7.593
38154SOL    HW116301   6.112  11.059   7.658
38154SOL    HW216302   6.091  11.017   7.514
38155SOL     OW16303  10.657  12.522   8.145
38155SOL    HW116304  10.588  12.555   8.203
38155SOL    HW216305  10.694  12.600   8.104
38156SOL     OW16306  11.853   2.608   0.744
38156SOL    HW116307  11.910   2.570   0.677
38156SOL    HW216308  11.888   2.575   0.827
38157SOL     OW16309  12.475   9.990   7.841
38157SOL    HW116310  12.478  10.081   7.870
38157SOL    HW216311  12.519   9.991   7.755
38158SOL     OW16312  11.772  11.129   2.282
38158SOL    HW116313  11.706  11.196   2.264
38158SOL    HW216314  11.728  11.047   2.261
38159SOL     OW16315   8.223   8.410   8.818
38159SOL    HW116316   8.143   8.416   8.872
38159SOL    HW216317   8.274   8.487   8.843
38160SOL     OW16318  13.904   0.188   5.222
38160SOL    HW116319  13.842   0.251   5.258
38160SOL    HW216320  13.952   0.237   5.155
38161SOL     OW16321   1.606   0.521  12.698
38161SOL    HW116322   1.674   0.496  12.760
38161SOL    HW216323   1.524   0.495  12.740
38162SOL     OW16324   8.509   3.685   4.167
38162SOL    HW116325   8.592   3.662   4.208
38162SOL    HW216326   8.443   3.656   4.230
38163SOL     OW16327   6.369   1.550   8.938
38163SOL    HW116328   6.418   1.627   8.908
38163SOL    HW216329   6.408   1.529   9.023
38164SOL     OW16330   5.228   2.551   3.068
38164SOL    HW116331   5.270   2.476   3.026
38164SOL    HW216332   5.196   2.604   2.994
38165SOL     OW16333   0.965   5.456   1.929
38165SOL    HW116334   0.881   5.502   1.937
38165SOL    HW216335   0.972   5.434   1.836
38166SOL     OW16336   2.874   3.413   3.556
38166SOL    HW116337   2.924   3.428   3.636
38166SOL    HW216338   2.918   3.340   3.513
38167SOL     OW16339   6.624  11.237   4.158
38167SOL    HW116340   6.536  11.224   4.193
38167SOL    HW216341   6.667  11.152   4.168
38168SOL     OW16342  14.397   2.645   3.464
38168SOL    HW116343  14.357   2.558   3.461
38168SOL    HW216344  14.325   2.706   3.447
38169SOL     OW16345   0.164   5.812   0.812
38169SOL    HW116346   0.147   5.883   0.874
38169SOL    HW216347   0.165   5.733   0.867
38170SOL     OW16348   6.785   9.646  13.414
38170SOL    HW116349   6.746   9.678  13.495
38170SOL    HW216350   6.714   9.597  13.372
38171SOL     OW16351   0.951   6.845   1.719
38171SOL    HW116352   0.891   6.804   1.657
38171SOL    HW216353   0.974   6.775   1.780
38172SOL     OW16354   0.102   6.759   2.696
38172SOL    HW116355   0.023   6.768   2.748
38172SOL    HW216356   0.135   6.848   2.685
38173SOL     OW16357   8.196   2.064  10.545
38173SOL    HW116358   8.191   2.102  10.457
38173SOL    HW216359   8.155   1.978  10.536
38174SOL     OW16360   9.010  12.337  11.825
38174SOL    HW116361   9.035  12.368  11.738
38174SOL    HW216362   9.002  12.417  11.877
38175SOL     OW16363   6.231   1.202   2.491
38175SOL    HW116364   6.282   1.274   2.453
38175SOL    HW216365   6.287   1.167   2.560
38176SOL     OW16366  13.431  12.782   0.560
38176SOL    HW116367  13.404  12.752   0.647
38176SOL    HW216368  13.388  12.720   0.499
38177SOL     OW16369   7.745  13.279   1.754
38177SOL    HW116370   7.780  13.252   1.670
38177SOL    HW216371   7.654  13.303   1.736
38178SOL     OW16372  13.669  10.278   7.553
38178SOL    HW116373  13.623  10.330   7.618
38178SOL    HW216374  13.639  10.313   7.469
38179SOL     OW16375   6.507  14.432  13.481
38179SOL    HW116376   6.530  14.348  13.443
38179SOL    HW216377   6.432  14.462  13.430
38180SOL     OW16378   3.837   9.297   5.177
38180SOL    HW116379   3.877   9.210   5.175
38180SOL    HW216380   3.793   9.301   5.262
38181SOL     OW16381   3.745   0.029   9.960
38181SOL    HW116382   3.729  14.842   9.893
38181SOL    HW216383   3.752   0.111   9.911
38182SOL     OW16384   9.640   3.009   0.315
38182SOL    HW116385   9.596   3.027   0.399
38182SOL    HW216386   9.671   3.095   0.286
38183SOL     OW16387   2.660  14.602  13.973
38183SOL    HW116388   2.588  14.584  14.033
38183SOL    HW216389   2.737  14.608  14.029
38184SOL     OW16390  10.339   6.670   6.930
38184SOL    HW116391  10.252   6.708   6.915
38184SOL    HW216392  10.322   6.587   6.975
38185SOL     OW16393  10.662   8.816  12.176
38185SOL    HW116394  10.572   8.849  12.181
38185SOL    HW216395  10.671   8.759  12.252
38186SOL     OW16396   1.483   5.827   4.309
38186SOL    HW116397   1.426   5.895   4.272
38186SOL    HW216398   1.423   5.768   4.354
38187SOL     OW16399  11.959  12.583   9.839
38187SOL    HW116400  11.900  12.600   9.767
38187SOL    HW216401  12.025  12.653   9.835
38188SOL     OW16402   6.736  13.377   0.890
38188SOL    HW116403   6.716  13.299   0.942
38188SOL    HW216404   6.820  13.408   0.924
38189SOL     OW16405  12.054  13.178   1.075
38189SOL    HW116406  12.012  13.128   1.005
38189SOL    HW216407  11.986  13.187   1.142
38190SOL     OW16408   3.129   5.301  10.646
38190SOL    HW116409   3.147   5.222  10.696
38190SOL    HW216410   3.212   5.349  10.647
38191SOL     OW16411   3.691   0.407  11.503
38191SOL    HW116412   3.650   0.330  11.465
38191SOL    HW216413   3.763   0.372  11.556
38192SOL     OW16414   4.041  12.624   1.300
38192SOL    HW116415   3.963  12.635   1.354
38192SOL    HW216416   4.100  12.695   1.327
38193SOL     OW16417   5.297   2.826   9.898
38193SOL    HW116418   5.325   2.886   9.967
38193SOL    HW216419   5.204   2.842   9.888
38194SOL     OW16420   6.996  11.171   5.309
38194SOL    HW116421   7.055  11.231   5.263
38194SOL    HW216422   6.917  11.223   5.325
38195SOL     OW16423  10.175   7.115   4.437
38195SOL    HW116424  10.106   7.049   4.447
38195SOL    HW216425  10.158   7.154   4.351
38196SOL     OW16426  13.713  14.108   2.191
38196SOL    HW116427  13.730  14.086   2.282
38196SOL    HW216428  13.618  14.096   2.181
38197SOL     OW16429   9.161  12.454   8.413
38197SOL    HW116430   9.092  12.520   8.406
38197SOL    HW216431   9.242  12.503   8.398
38198SOL     OW16432   9.215   0.684  11.933
38198SOL    HW116433   9.162   0.706  11.856
38198SOL    HW216434   9.306   0.698  11.905
38199SOL     OW16435   9.422   5.777   1.505
38199SOL    HW116436   9.436   5.866   1.537
38199SOL    HW216437   9.510   5.740   1.499
38200SOL     OW16438  12.129   6.301  11.328
38200SOL    HW116439  12.044   6.344  11.318
38200SOL    HW216440  12.107   6.208  11.338
38201SOL     OW16441   5.172  12.315  12.629
38201SOL    HW116442   5.170  12.295  12.535
38201SOL    HW216443   5.206  12.404  12.634
38202SOL     OW16444   7.303  10.720   5.521
38202SOL    HW116445   7.372  10.777   5.488
38202SOL    HW216446   7.222  10.768   5.505
38203SOL     OW16447  11.530  12.629   6.475
38203SOL    HW116448  11.581  12.685   6.416
38203SOL    HW216449  11.488  12.691   6.536
38204SOL     OW16450  11.344   7.503   2.872
38204SOL    HW116451  11.312   7.462   2.791
38204SOL    HW216452  11.313   7.447   2.942
38205SOL     OW16453   4.091  13.825   1.206
38205SOL    HW116454   4.051  13.739   1.195
38205SOL    HW216455   4.046  13.880   1.142
38206SOL     OW16456   9.151   0.332  14.817
38206SOL    HW116457   9.187   0.421  14.816
38206SOL    HW216458   9.216   0.281  14.865
38207SOL     OW16459   0.517   2.139   7.715
38207SOL    HW116460   0.513   2.125   7.810
38207SOL    HW216461   0.609   2.126   7.693
38208SOL     OW16462   1.249  10.694   6.876
38208SOL    HW116463   1.276  10.773   6.830
38208SOL    HW216464   1.155  10.687   6.858
38209SOL     OW16465   5.784   8.728   3.611
38209SOL    HW116466   5.733   8.647   3.604
38209SOL    HW216467   5.770   8.772   3.527
38210SOL     OW16468  14.588   2.691   7.637
38210SOL    HW116469  14.587   2.769   7.692
38210SOL    HW216470  14.668   2.699   7.585
38211SOL     OW16471   1.733  11.694   0.554
38211SOL    HW116472   1.639  11.691   0.537
38211SOL    HW216473   1.768  11.749   0.484
38212SOL     OW16474   4.619   7.076   3.098
38212SOL    HW116475   4.546   7.072   3.160
38212SOL    HW216476   4.585   7.036   3.018
38213SOL     OW16477   6.486   3.495   3.478
38213SOL    HW116478   6.525   3.564   3.532
38213SOL    HW216479   6.475   3.536   3.392
38214SOL     OW16480   3.113  14.659   4.748
38214SOL    HW116481   3.161  14.576   4.755
38214SOL    HW216482   3.090  14.665   4.655
38215SOL     OW16483  13.920   6.376   8.743
38215SOL    HW116484  13.831   6.393   8.710
38215SOL    HW216485  13.934   6.443   8.810
38216SOL     OW16486  12.776   8.431   4.457
38216SOL    HW116487  12.736   8.398   4.376
38216SOL    HW216488  12.869   8.441   4.435
38217SOL     OW16489  11.340  10.534   7.044
38217SOL    HW116490  11.370  10.450   7.080
38217SOL    HW216491  11.280  10.568   7.111
38218SOL     OW16492   7.231   0.796   4.645
38218SOL    HW116493   7.300   0.862   4.650
38218SOL    HW216494   7.276   0.713   4.661
38219SOL     OW16495   4.179   8.420   3.493
38219SOL    HW116496   4.267   8.416   3.530
38219SOL    HW216497   4.184   8.367   3.413
38220SOL     OW16498  11.369  13.106  14.378
38220SOL    HW116499  11.331  13.177  14.325
38220SOL    HW216500  11.335  13.026  14.338
38221SOL     OW16501   0.442   6.743   2.116
38221SOL    HW116502   0.521   6.797   2.108
38221SOL    HW216503   0.441   6.716   2.208
38222SOL     OW16504   0.397  14.417   5.535
38222SOL    HW116505   0.462  14.424   5.604
38222SOL    HW216506   0.446  14.431   5.454
38223SOL     OW16507  12.165   3.540   4.971
38223SOL    HW116508  12.157   3.624   5.017
38223SOL    HW216509  12.188   3.478   5.039
38224SOL     OW16510  12.148   7.726   9.638
38224SOL    HW116511  12.169   7.749   9.548
38224SOL    HW216512  12.232   7.728   9.684
38225SOL     OW16513   4.064   2.210   8.306
38225SOL    HW116514   4.076   2.242   8.217
38225SOL    HW216515   3.971   2.218   8.323
38226SOL     OW16516   9.399   0.229   8.279
38226SOL    HW116517   9.394   0.246   8.185
38226SOL    HW216518   9.492   0.223   8.298
38227SOL     OW16519   6.989   5.842   3.466
38227SOL    HW116520   7.015   5.899   3.393
38227SOL    HW216521   7.040   5.874   3.540
38228SOL     OW16522   9.522   1.293   2.360
38228SOL    HW116523   9.610   1.278   2.395
38228SOL    HW216524   9.468   1.311   2.437
38229SOL     OW16525  14.802   8.884   1.020
38229SOL    HW116526  14.785   8.908   1.111
38229SOL    HW216527   0.002   8.933   0.996
38230SOL     OW16528   0.430   5.044   9.976
38230SOL    HW116529   0.462   4.971   9.923
38230SOL    HW216530   0.354   5.010  10.022
38231SOL     OW16531   5.791  11.342  13.312
38231SOL    HW116532   5.710  11.328  13.362
38231SOL    HW216533   5.840  11.406  13.364
38232SOL     OW16534   4.882   7.631  10.284
38232SOL    HW116535   4.946   7.689  10.326
38232SOL    HW216536   4.840   7.586  10.357
38233SOL     OW16537   8.427   2.474  10.639
38233SOL    HW116538   8.468   2.407  10.694
38233SOL    HW216539   8.365   2.518  10.697
38234SOL     OW16540   8.923   7.660  12.323
38234SOL    HW116541   8.829   7.666  12.343
38234SOL    HW216542   8.938   7.732  12.262
38235SOL     OW16543   9.175   4.341   6.937
38235SOL    HW116544   9.182   4.410   7.003
38235SOL    HW216545   9.215   4.265   6.978
38236SOL     OW16546   7.827   2.315   9.653
38236SOL    HW116547   7.742   2.310   9.698
38236SOL    HW216548   7.845   2.409   9.646
38237SOL     OW16549   0.579  10.367  11.846
38237SOL    HW116550   0.498  10.417  11.856
38237SOL    HW216551   0.648  10.427  11.875
38238SOL     OW16552   9.928  10.307  10.654
38238SOL    HW116553   9.854  10.339  10.603
38238SOL    HW216554  10.005  10.334  10.604
38239SOL     OW16555   5.281   5.481   4.094
38239SOL    HW116556   5.240   5.493   4.008
38239SOL    HW216557   5.303   5.570   4.122
38240SOL     OW16558  11.164  10.459  10.832
38240SOL    HW116559  11.118  10.421  10.758
38240SOL    HW216560  11.101  10.519  10.873
38241SOL     OW16561  12.600   7.173   7.622
38241SOL    HW116562  12.585   7.214   7.708
38241SOL    HW216563  12.550   7.092   7.625
38242SOL     OW16564   0.571  13.957   0.756
38242SOL    HW116565   0.609  14.040   0.786
38242SOL    HW216566   0.477  13.969   0.765
38243SOL     OW16567   8.761  10.829  13.185
38243SOL    HW116568   8.798  10.883  13.115
38243SOL    HW216569   8.744  10.745  13.144
38244SOL     OW16570   7.484   5.269   5.794
38244SOL    HW116571   7.504   5.220   5.715
38244SOL    HW216572   7.567   5.271   5.843
38245SOL     OW16573   8.019   9.074  12.153
38245SOL    HW116574   8.018   8.994  12.206
38245SOL    HW216575   7.930   9.081  12.119
38246SOL     OW16576   4.860   7.315  14.320
38246SOL    HW116577   4.949   7.337  14.348
38246SOL    HW216578   4.843   7.374  14.246
38247SOL     OW16579  10.823   7.557  14.874
38247SOL    HW116580  10.845   7.610  14.797
38247SOL    HW216581  10.740   7.515  14.851
38248SOL     OW16582   4.446   0.796   5.822
38248SOL    HW116583   4.487   0.755   5.899
38248SOL    HW216584   4.459   0.890   5.835
38249SOL     OW16585   2.159   9.492  11.360
38249SOL    HW116586   2.228   9.444  11.313
38249SOL    HW216587   2.203   9.568  11.397
38250SOL     OW16588  11.064  10.932  13.010
38250SOL    HW116589  11.116  10.852  13.012
38250SOL    HW216590  10.973  10.902  13.013
38251SOL     OW16591   9.466   4.794   8.307
38251SOL    HW116592   9.554   4.764   8.282
38251SOL    HW216593   9.478   4.887   8.327
38252SOL     OW16594   6.457   1.426   7.422
38252SOL    HW116595   6.528   1.398   7.479
38252SOL    HW216596   6.397   1.474   7.479
38253SOL     OW16597   6.725  10.771   2.673
38253SOL    HW116598   6.750  10.862   2.655
38253SOL    HW216599   6.652  10.755   2.615
38254SOL     OW16600   9.635   2.823  13.899
38254SOL    HW116601   9.624   2.736  13.859
38254SOL    HW216602   9.556   2.871  13.873
38255SOL     OW16603   1.020  13.325   5.258
38255SOL    HW116604   1.070  13.406   5.250
38255SOL    HW216605   1.086  13.257   5.272
38256SOL     OW16606   9.474  11.562   2.012
38256SOL    HW116607   9.480  11.489   1.950
38256SOL    HW216608   9.468  11.640   1.957
38257SOL     OW16609  11.918  13.674   5.743
38257SOL    HW116610  11.983  13.740   5.769
38257SOL    HW216611  11.970  13.599   5.715
38258SOL     OW16612   5.543   0.491   3.317
38258SOL    HW116613   5.619   0.432   3.321
38258SOL    HW216614   5.483   0.449   3.256
38259SOL     OW16615  10.990   5.423   0.303
38259SOL    HW116616  10.948   5.506   0.280
38259SOL    HW216617  10.979   5.368   0.225
38260SOL     OW16618  11.937  11.259  11.330
38260SOL    HW116619  11.961  11.221  11.246
38260SOL    HW216620  11.908  11.185  11.383
38261SOL     OW16621   6.072  12.391   8.561
38261SOL    HW116622   6.062  12.454   8.632
38261SOL    HW216623   6.114  12.315   8.601
38262SOL     OW16624   8.133   9.350   2.715
38262SOL    HW116625   8.070   9.306   2.772
38262SOL    HW216626   8.149   9.287   2.644
38263SOL     OW16627  12.936   0.237   3.746
38263SOL    HW116628  12.954   0.290   3.823
38263SOL    HW216629  13.012   0.249   3.690
38264SOL     OW16630  14.255   7.607  12.075
38264SOL    HW116631  14.316   7.677  12.052
38264SOL    HW216632  14.168   7.643  12.054
38265SOL     OW16633   3.296   0.732  10.293
38265SOL    HW116634   3.241   0.701  10.365
38265SOL    HW216635   3.360   0.662  10.279
38266SOL     OW16636   2.961  12.731   2.952
38266SOL    HW116637   2.931  12.691   2.870
38266SOL    HW216638   2.973  12.823   2.931
38267SOL     OW16639  12.961  10.095  14.842
38267SOL    HW116640  12.866  10.088  14.841
38267SOL    HW216641  12.992  10.005  14.854
38268SOL     OW16642   1.528  11.058   4.526
38268SOL    HW116643   1.547  10.964   4.531
38268SOL    HW216644   1.450  11.069   4.581
38269SOL     OW16645   8.085  12.466  12.843
38269SOL    HW116646   8.069  12.486  12.936
38269SOL    HW216647   8.180  12.458  12.836
38270SOL     OW16648  10.516   6.263  12.996
38270SOL    HW116649  10.535   6.351  12.964
38270SOL    HW216650  10.573   6.206  12.946
38271SOL     OW16651   0.442   7.311  13.641
38271SOL    HW116652   0.427   7.404  13.626
38271SOL    HW216653   0.391   7.267  13.572
38272SOL     OW16654  11.609  12.508   8.234
38272SOL    HW116655  11.541  12.444   8.213
38272SOL    HW216656  11.601  12.522   8.328
38273SOL     OW16657   8.254   4.891   1.606
38273SOL    HW116658   8.323   4.829   1.584
38273SOL    HW216659   8.300   4.972   1.628
38274SOL     OW16660   4.097   8.398   7.105
38274SOL    HW116661   4.185   8.410   7.141
38274SOL    HW216662   4.089   8.468   7.040
38275SOL     OW16663  11.072   4.810   2.755
38275SOL    HW116664  11.034   4.894   2.729
38275SOL    HW216665  11.009   4.773   2.817
38276SOL     OW16666   8.129   2.234   4.930
38276SOL    HW116667   8.046   2.187   4.926
38276SOL    HW216668   8.129   2.276   5.016
38277SOL     OW16669  12.280   7.405   1.547
38277SOL    HW116670  12.334   7.332   1.576
38277SOL    HW216671  12.211   7.364   1.493
38278SOL     OW16672   0.307   7.377   4.981
38278SOL    HW116673   0.314   7.460   5.027
38278SOL    HW216674   0.298   7.312   5.050
38279SOL     OW16675   5.302  10.186  10.441
38279SOL    HW116676   5.237  10.224  10.382
38279SOL    HW216677   5.326  10.258  10.499
38280SOL     OW16678   1.126  13.697   8.495
38280SOL    HW116679   1.072  13.777   8.499
38280SOL    HW216680   1.195  13.718   8.433
38281SOL     OW16681   8.578   7.636   9.192
38281SOL    HW116682   8.602   7.547   9.165
38281SOL    HW216683   8.628   7.650   9.273
38282SOL     OW16684  12.530  14.802   6.588
38282SOL    HW116685  12.612  14.789   6.540
38282SOL    HW216686  12.466  14.827   6.522
38283SOL     OW16687   9.175   5.207  10.519
38283SOL    HW116688   9.172   5.181  10.611
38283SOL    HW216689   9.095   5.169  10.481
38284SOL     OW16690   5.781  11.770  14.479
38284SOL    HW116691   5.790  11.846  14.537
38284SOL    HW216692   5.866  11.726  14.485
38285SOL     OW16693  10.588  13.575  10.727
38285SOL    HW116694  10.681  13.562  10.744
38285SOL    HW216695  10.577  13.670  10.726
38286SOL     OW16696   3.426   7.715  11.714
38286SOL    HW116697   3.450   7.671  11.795
38286SOL    HW216698   3.432   7.809  11.735
38287SOL     OW16699   4.715   3.343  13.265
38287SOL    HW116700   4.690   3.308  13.180
38287SOL    HW216701   4.792   3.292  13.291
38288SOL     OW16702   2.389  10.350   8.143
38288SOL    HW116703   2.394  10.294   8.066
38288SOL    HW216704   2.456  10.316   8.202
38289SOL     OW16705   5.219   9.499   5.272
38289SOL    HW116706   5.148   9.438   5.289
38289SOL    HW216707   5.298   9.452   5.299
38290SOL     OW16708   5.499   6.638   5.766
38290SOL    HW116709   5.417   6.619   5.813
38290SOL    HW216710   5.562   6.659   5.836
38291SOL     OW16711   3.531   6.365   7.419
38291SOL    HW116712   3.437   6.359   7.402
38291SOL    HW216713   3.566   6.281   7.391
38292SOL     OW16714   2.950   1.759   9.244
38292SOL    HW116715   2.891   1.791   9.176
38292SOL    HW216716   3.035   1.751   9.200
38293SOL     OW16717  10.227   3.079   9.018
38293SOL    HW116718  10.256   3.004   8.967
38293SOL    HW216719  10.204   3.146   8.953
38294SOL     OW16720   2.891   0.186   9.905
38294SOL    HW116721   2.935   0.102   9.918
38294SOL    HW216722   2.807   0.176   9.950
38295SOL     OW16723  13.529   5.879  13.487
38295SOL    HW116724  13.572   5.958  13.455
38295SOL    HW216725  13.471   5.910  13.557
38296SOL     OW16726   9.708   0.061  11.407
38296SOL    HW116727   9.691   0.065  11.313
38296SOL    HW216728   9.626   0.030  11.445
38297SOL     OW16729   0.657   9.518   0.699
38297SOL    HW116730   0.719   9.571   0.750
38297SOL    HW216731   0.639   9.572   0.622
38298SOL     OW16732   1.110   2.664  11.207
38298SOL    HW116733   1.093   2.603  11.136
38298SOL    HW216734   1.029   2.664  11.259
38299SOL     OW16735   6.988  12.590  10.368
38299SOL    HW116736   6.921  12.533  10.407
38299SOL    HW216737   7.012  12.545  10.286
38300SOL     OW16738   9.610  11.732   1.018
38300SOL    HW116739   9.681  11.793   1.040
38300SOL    HW216740   9.540  11.753   1.081
38301SOL     OW16741  13.933   6.874   2.705
38301SOL    HW116742  13.862   6.934   2.682
38301SOL    HW216743  13.917   6.797   2.651
38302SOL     OW16744   8.206   1.877  12.603
38302SOL    HW116745   8.253   1.875  12.520
38302SOL    HW216746   8.161   1.792  12.606
38303SOL     OW16747   5.211   5.797   7.294
38303SOL    HW116748   5.219   5.706   7.265
38303SOL    HW216749   5.293   5.838   7.265
38304SOL     OW16750  11.642   1.963  14.065
38304SOL    HW116751  11.564   2.013  14.091
38304SOL    HW216752  11.663   1.910  14.141
38305SOL     OW16753   1.770  11.094   0.895
38305SOL    HW116754   1.726  11.009   0.900
38305SOL    HW216755   1.703  11.158   0.921
38306SOL     OW16756   4.263   6.365  12.656
38306SOL    HW116757   4.358   6.369  12.670
38306SOL    HW216758   4.237   6.279  12.690
38307SOL     OW16759   8.649   3.989   0.181
38307SOL    HW116760   8.577   4.051   0.190
38307SOL    HW216761   8.619   3.927   0.114
38308SOL     OW16762   3.413   5.391   2.128
38308SOL    HW116763   3.504   5.367   2.109
38308SOL    HW216764   3.417   5.430   2.216
38309SOL     OW16765   2.332   3.279   3.942
38309SOL    HW116766   2.420   3.302   3.913
38309SOL    HW216767   2.312   3.342   4.011
38310SOL     OW16768   0.643  14.429  11.831
38310SOL    HW116769   0.603  14.351  11.868
38310SOL    HW216770   0.571  14.490  11.817
38311SOL     OW16771  13.998   7.507  12.676
38311SOL    HW116772  13.905   7.517  12.695
38311SOL    HW216773  14.042   7.559  12.744
38312SOL     OW16774   6.400   0.164  10.542
38312SOL    HW116775   6.318   0.197  10.505
38312SOL    HW216776   6.396   0.070  10.528
38313SOL     OW16777  10.901   0.736  14.339
38313SOL    HW116778  10.918   0.812  14.284
38313SOL    HW216779  10.928   0.763  14.426
38314SOL     OW16780   4.931  14.827   2.093
38314SOL    HW116781   4.854  14.778   2.062
38314SOL    HW216782   4.898  14.879   2.166
38315SOL     OW16783   0.795  12.538   8.947
38315SOL    HW116784   0.827  12.467   8.892
38315SOL    HW216785   0.707  12.556   8.914
38316SOL     OW16786  10.553   2.576   8.739
38316SOL    HW116787  10.477   2.630   8.715
38316SOL    HW216788  10.622   2.604   8.679
38317SOL     OW16789  13.389   3.989   6.868
38317SOL    HW116790  13.335   3.966   6.943
38317SOL    HW216791  13.374   3.919   6.805
38318SOL     OW16792   2.297   8.341   4.568
38318SOL    HW116793   2.277   8.286   4.492
38318SOL    HW216794   2.281   8.430   4.537
38319SOL     OW16795  12.212  11.913   5.262
38319SOL    HW116796  12.125  11.945   5.289
38319SOL    HW216797  12.260  11.903   5.345
38320SOL     OW16798   2.187   1.774   7.488
38320SOL    HW116799   2.097   1.744   7.480
38320SOL    HW216800   2.226   1.716   7.553
38321SOL     OW16801  11.897  10.419   2.068
38321SOL    HW116802  11.949  10.428   2.149
38321SOL    HW216803  11.944  10.472   2.004
38322SOL     OW16804   6.558  10.524   6.757
38322SOL    HW116805   6.614  10.449   6.778
38322SOL    HW216806   6.525  10.554   6.842
38323SOL     OW16807  11.904   0.627   8.210
38323SOL    HW116808  11.974   0.593   8.154
38323SOL    HW216809  11.879   0.710   8.170
38324SOL     OW16810  14.692   1.339   2.447
38324SOL    HW116811  14.725   1.251   2.462
38324SOL    HW216812  14.769   1.390   2.422
38325SOL     OW16813   5.820   5.736   4.968
38325SOL    HW116814   5.730   5.715   4.991
38325SOL    HW216815   5.844   5.670   4.903
38326SOL     OW16816  10.446   7.380  10.682
38326SOL    HW116817  10.511   7.322  10.642
38326SOL    HW216818  10.494   7.429  10.748
38327SOL     OW16819  11.883  10.439  12.000
38327SOL    HW116820  11.866  10.349  12.028
38327SOL    HW216821  11.966  10.462  12.042
38328SOL     OW16822   7.723   1.717   4.280
38328SOL    HW116823   7.690   1.627   4.280
38328SOL    HW216824   7.669   1.762   4.345
38329SOL     OW16825   3.069   4.410   6.993
38329SOL    HW116826   3.104   4.328   7.025
38329SOL    HW216827   2.987   4.422   7.041
38330SOL     OW16828   1.539  12.774   2.628
38330SOL    HW116829   1.631  12.799   2.630
38330SOL    HW216830   1.500  12.830   2.561
38331SOL     OW16831   7.956  11.108   2.472
38331SOL    HW116832   7.920  11.045   2.410
38331SOL    HW216833   8.009  11.168   2.418
38332SOL     OW16834   6.390   0.385   6.143
38332SOL    HW116835   6.484   0.403   6.146
38332SOL    HW216836   6.383   0.291   6.127
38333SOL     OW16837   2.963   9.886   9.341
38333SOL    HW116838   2.939   9.795   9.354
38333SOL    HW216839   2.976   9.920   9.430
38334SOL     OW16840   1.636  12.244  10.821
38334SOL    HW116841   1.612  12.178  10.756
38334SOL    HW216842   1.597  12.325  10.789
38335SOL     OW16843  13.687   0.822  11.242
38335SOL    HW116844  13.688   0.737  11.199
38335SOL    HW216845  13.765   0.867  11.209
38336SOL     OW16846   1.022   1.171   1.418
38336SOL    HW116847   0.963   1.117   1.470
38336SOL    HW216848   1.045   1.116   1.343
38337SOL     OW16849  14.134  11.618  12.536
38337SOL    HW116850  14.172  11.540  12.578
38337SOL    HW216851  14.108  11.588  12.449
38338SOL     OW16852  12.541   5.762  14.239
38338SOL    HW116853  12.565   5.780  14.330
38338SOL    HW216854  12.446   5.762  14.238
38339SOL     OW16855   6.459  12.382   9.026
38339SOL    HW116856   6.468  12.304   9.082
38339SOL    HW216857   6.547  12.397   8.991
38340SOL     OW16858  11.295   2.959   1.480
38340SOL    HW116859  11.324   3.039   1.523
38340SOL    HW216860  11.214   2.935   1.526
38341SOL     OW16861   0.897   1.902   4.437
38341SOL    HW116862   0.833   1.957   4.392
38341SOL    HW216863   0.846   1.855   4.503
38342SOL     OW16864  14.390   2.668   5.840
38342SOL    HW116865  14.406   2.680   5.934
38342SOL    HW216866  14.295   2.668   5.832
38343SOL     OW16867  12.767   9.270   6.357
38343SOL    HW116868  12.750   9.187   6.401
38343SOL    HW216869  12.860   9.287   6.373
38344SOL     OW16870   5.182   1.049  12.081
38344SOL    HW116871   5.140   0.965  12.063
38344SOL    HW216872   5.177   1.096  11.998
38345SOL     OW16873   4.084   5.664   6.486
38345SOL    HW116874   4.029   5.743   6.480
38345SOL    HW216875   4.064   5.628   6.572
38346SOL     OW16876  11.669   5.401   1.332
38346SOL    HW116877  11.720   5.321   1.343
38346SOL    HW216878  11.602   5.378   1.268
38347SOL     OW16879  13.914  11.591  14.284
38347SOL    HW116880  13.964  11.510  14.275
38347SOL    HW216881  13.980  11.658  14.298
38348SOL     OW16882  10.259   7.285   9.219
38348SOL    HW116883  10.166   7.264   9.227
38348SOL    HW216884  10.261   7.366   9.168
38349SOL     OW16885  12.554  14.320   0.860
38349SOL    HW116886  12.482  14.293   0.917
38349SOL    HW216887  12.589  14.400   0.900
38350SOL     OW16888  11.611   3.567   9.797
38350SOL    HW116889  11.690   3.520   9.822
38350SOL    HW216890  11.641   3.636   9.738
38351SOL     OW16891  13.120   8.367  13.463
38351SOL    HW116892  13.083   8.443  13.419
38351SOL    HW216893  13.087   8.292  13.412
38352SOL     OW16894  12.303  14.449   3.290
38352SOL    HW116895  12.353  14.414   3.217
38352SOL    HW216896  12.332  14.398   3.366
38353SOL     OW16897   1.493  14.397   1.067
38353SOL    HW116898   1.476  14.305   1.083
38353SOL    HW216899   1.577  14.397   1.021
38354SOL     OW16900   6.811   7.007   9.660
38354SOL    HW116901   6.784   7.087   9.614
38354SOL    HW216902   6.873   7.037   9.726
38355SOL     OW16903   0.500   1.285   7.483
38355SOL    HW116904   0.459   1.325   7.560
38355SOL    HW216905   0.559   1.353   7.449
38356SOL     OW16906   6.280   7.384  12.724
38356SOL    HW116907   6.265   7.437  12.803
38356SOL    HW216908   6.322   7.444  12.662
38357SOL     OW16909   1.183   0.876   9.123
38357SOL    HW116910   1.214   0.786   9.133
38357SOL    HW216911   1.219   0.905   9.040
38358SOL     OW16912   3.434  14.055   3.585
38358SOL    HW116913   3.497  14.012   3.643
38358SOL    HW216914   3.482  14.071   3.504
38359SOL     OW16915   1.988   0.848   6.973
38359SOL    HW116916   1.970   0.895   7.055
38359SOL    HW216917   2.082   0.861   6.959
38360SOL     OW16918   9.241  13.972  13.549
38360SOL    HW116919   9.272  13.911  13.616
38360SOL    HW216920   9.313  13.979  13.486
38361SOL     OW16921   7.031  13.126  11.529
38361SOL    HW116922   7.057  13.038  11.558
38361SOL    HW216923   7.051  13.126  11.435
38362SOL     OW16924   9.036   0.980  13.371
38362SOL    HW116925   8.955   0.959  13.418
38362SOL    HW216926   9.066   0.895  13.338
38363SOL     OW16927   1.178  10.247  12.119
38363SOL    HW116928   1.186  10.167  12.170
38363SOL    HW216929   1.106  10.295  12.161
38364SOL     OW16930  14.082  12.490   4.906
38364SOL    HW116931  14.094  12.575   4.864
38364SOL    HW216932  14.158  12.439   4.878
38365SOL     OW16933  11.394   2.213  13.765
38365SOL    HW116934  11.398   2.299  13.724
38365SOL    HW216935  11.478   2.203  13.809
38366SOL     OW16936   4.819   5.750  10.607
38366SOL    HW116937   4.793   5.791  10.690
38366SOL    HW216938   4.915   5.756  10.606
38367SOL     OW16939  11.214  14.265   0.635
38367SOL    HW116940  11.175  14.179   0.619
38367SOL    HW216941  11.211  14.310   0.550
38368SOL     OW16942   6.571  10.381   6.386
38368SOL    HW116943   6.559  10.472   6.360
38368SOL    HW216944   6.665  10.372   6.401
38369SOL     OW16945   1.028  11.564   3.682
38369SOL    HW116946   1.029  11.528   3.593
38369SOL    HW216947   1.112  11.537   3.720
38370SOL     OW16948   0.267  10.796   1.638
38370SOL    HW116949   0.245  10.749   1.719
38370SOL    HW216950   0.303  10.729   1.580
38371SOL     OW16951   6.313  12.502   9.893
38371SOL    HW116952   6.348  12.445   9.961
38371SOL    HW216953   6.390  12.530   9.843
38372SOL     OW16954  10.435  12.291  11.535
38372SOL    HW116955  10.343  12.268  11.520
38372SOL    HW216956  10.449  12.273  11.628
38373SOL     OW16957  11.793  12.185   1.906
38373SOL    HW116958  11.823  12.260   1.957
38373SOL    HW216959  11.802  12.110   1.966
38374SOL     OW16960   1.875  13.605  13.186
38374SOL    HW116961   1.943  13.667  13.212
38374SOL    HW216962   1.923  13.525  13.163
38375SOL     OW16963  10.045  14.534   7.772
38375SOL    HW116964  10.135  14.521   7.804
38375SOL    HW216965   9.991  14.489   7.837
38376SOL     OW16966  10.713  11.418   1.463
38376SOL    HW116967  10.766  11.341   1.485
38376SOL    HW216968  10.717  11.424   1.368
38377SOL     OW16969   3.054   2.401  14.419
38377SOL    HW116970   3.000   2.380  14.496
38377SOL    HW216971   3.058   2.320  14.369
38378SOL     OW16972   3.625  12.305  14.351
38378SOL    HW116973   3.537  12.311  14.314
38378SOL    HW216974   3.684  12.327  14.279
38379SOL     OW16975  13.608  11.051  13.144
38379SOL    HW116976  13.559  11.127  13.114
38379SOL    HW216977  13.554  10.976  13.118
38380SOL     OW16978  14.523   4.140   6.979
38380SOL    HW116979  14.590   4.086   6.936
38380SOL    HW216980  14.548   4.230   6.960
38381SOL     OW16981   0.952  14.064   1.987
38381SOL    HW116982   0.890  14.019   1.930
38381SOL    HW216983   0.930  14.157   1.977
38382SOL     OW16984   8.053  12.324  10.602
38382SOL    HW116985   8.076  12.417  10.603
38382SOL    HW216986   7.978  12.319  10.542
38383SOL     OW16987  13.475   4.429   4.417
38383SOL    HW116988  13.390   4.390   4.437
38383SOL    HW216989  13.466   4.521   4.442
38384SOL     OW16990  11.953  10.276  11.600
38384SOL    HW116991  11.950  10.292  11.506
38384SOL    HW216992  11.931  10.361  11.639
38385SOL     OW16993  11.841   7.099   8.953
38385SOL    HW116994  11.756   7.055   8.954
38385SOL    HW216995  11.898   7.037   8.907
38386SOL     OW16996   6.882   2.653   6.321
38386SOL    HW116997   6.907   2.594   6.250
38386SOL    HW216998   6.899   2.603   6.401
38387SOL     OW16999  12.112   0.593   9.015
38387SOL    HW117000  12.111   0.689   9.005
38387SOL    HW217001  12.128   0.579   9.108
38388SOL     OW17002  10.542   4.945  10.288
38388SOL    HW117003  10.633   4.971  10.304
38388SOL    HW217004  10.510   5.007  10.223
38389SOL     OW17005  10.509   7.091  12.128
38389SOL    HW117006  10.464   7.084  12.044
38389SOL    HW217007  10.448   7.053  12.191
38390SOL     OW17008  12.808  13.775   0.790
38390SOL    HW117009  12.757  13.848   0.754
38390SOL    HW217010  12.823  13.799   0.881
38391SOL     OW17011  13.097   6.767  11.599
38391SOL    HW117012  13.006   6.798  11.592
38391SOL    HW217013  13.123   6.751  11.508
38392SOL     OW17014   0.161   4.917  10.663
38392SOL    HW117015   0.143   4.885  10.575
38392SOL    HW217016   0.241   4.872  10.690
38393SOL     OW17017  11.939   8.147  13.702
38393SOL    HW117018  11.978   8.109  13.781
38393SOL    HW217019  12.013   8.159  13.642
38394SOL     OW17020   4.246   4.844  10.947
38394SOL    HW117021   4.200   4.760  10.943
38394SOL    HW217022   4.180   4.906  10.978
38395SOL     OW17023  13.926   3.636  11.129
38395SOL    HW117024  13.838   3.636  11.093
38395SOL    HW217025  13.916   3.598  11.216
38396SOL     OW17026  10.147   4.554   0.551
38396SOL    HW117027  10.226   4.500   0.544
38396SOL    HW217028  10.100   4.520   0.627
38397SOL     OW17029   5.986   1.234  11.950
38397SOL    HW117030   6.028   1.188  11.877
38397SOL    HW217031   6.058   1.265  12.004
38398SOL     OW17032   9.844   4.957   1.776
38398SOL    HW117033   9.795   4.898   1.718
38398SOL    HW217034   9.906   4.901   1.822
38399SOL     OW17035  10.769  11.201   3.580
38399SOL    HW117036  10.779  11.262   3.652
38399SOL    HW217037  10.710  11.133   3.614
38400SOL     OW17038   2.838  11.520  14.388
38400SOL    HW117039   2.848  11.550  14.297
38400SOL    HW217040   2.759  11.565  14.419
38401SOL     OW17041  13.999  12.713   8.094
38401SOL    HW117042  13.926  12.653   8.105
38401SOL    HW217043  14.011  12.752   8.181
38402SOL     OW17044  11.574   6.328   9.698
38402SOL    HW117045  11.481   6.319   9.678
38402SOL    HW217046  11.587   6.422   9.709
38403SOL     OW17047  12.565   1.534   0.465
38403SOL    HW117048  12.476   1.562   0.443
38403SOL    HW217049  12.622   1.588   0.409
38404SOL     OW17050   5.382   8.164  10.100
38404SOL    HW117051   5.316   8.096  10.086
38404SOL    HW217052   5.419   8.180  10.013
38405SOL     OW17053  11.851  13.519  13.314
38405SOL    HW117054  11.936  13.563  13.308
38405SOL    HW217055  11.830  13.521  13.407
38406SOL     OW17056  12.045   6.004  14.015
38406SOL    HW117057  12.100   5.959  13.950
38406SOL    HW217058  12.100   6.075  14.047
38407SOL     OW17059   1.878   4.663  12.305
38407SOL    HW117060   1.928   4.730  12.258
38407SOL    HW217061   1.788   4.676  12.275
38408SOL     OW17062   9.337   7.893  11.618
38408SOL    HW117063   9.259   7.842  11.595
38408SOL    HW217064   9.347   7.880  11.712
38409SOL     OW17065   5.547   7.093  11.320
38409SOL    HW117066   5.591   7.011  11.342
38409SOL    HW217067   5.618   7.153  11.298
38410SOL     OW17068  11.058  12.539   3.572
38410SOL    HW117069  11.000  12.573   3.504
38410SOL    HW217070  11.141  12.522   3.528
38411SOL     OW17071  12.603   3.061  12.540
38411SOL    HW117072  12.684   3.064  12.592
38411SOL    HW217073  12.533   3.057  12.604
38412SOL     OW17074   4.709  13.243  13.814
38412SOL    HW117075   4.751  13.320  13.853
38412SOL    HW217076   4.668  13.276  13.734
38413SOL     OW17077   8.362  10.008   0.903
38413SOL    HW117078   8.453  10.035   0.897
38413SOL    HW217079   8.366   9.915   0.926
38414SOL     OW17080  10.832   1.041   4.810
38414SOL    HW117081  10.778   1.111   4.848
38414SOL    HW217082  10.853   1.073   4.722
38415SOL     OW17083   9.246   0.930   8.052
38415SOL    HW117084   9.337   0.902   8.048
38415SOL    HW217085   9.195   0.850   8.038
38416SOL     OW17086   4.029   3.392  12.215
38416SOL    HW117087   4.016   3.419  12.124
38416SOL    HW217088   4.124   3.380  12.223
38417SOL     OW17089   7.261   5.988   8.641
38417SOL    HW117090   7.215   5.995   8.724
38417SOL    HW217091   7.216   6.049   8.583
38418SOL     OW17092  10.031   7.745   1.459
38418SOL    HW117093  10.071   7.829   1.436
38418SOL    HW217094  10.071   7.682   1.398
38419SOL     OW17095   0.617  12.703   4.150
38419SOL    HW117096   0.695  12.657   4.119
38419SOL    HW217097   0.549  12.679   4.086
38420SOL     OW17098   1.428   1.103   6.465
38420SOL    HW117099   1.443   1.127   6.557
38420SOL    HW217100   1.375   1.023   6.470
38421SOL     OW17101  13.995   9.244  13.264
38421SOL    HW117102  13.954   9.312  13.318
38421SOL    HW217103  14.019   9.288  13.183
38422SOL     OW17104   6.936  13.851   3.301
38422SOL    HW117105   6.876  13.795   3.254
38422SOL    HW217106   7.006  13.793   3.331
38423SOL     OW17107   0.931   9.144   9.517
38423SOL    HW117108   1.000   9.169   9.579
38423SOL    HW217109   0.881   9.076   9.562
38424SOL     OW17110   4.463   6.226   5.663
38424SOL    HW117111   4.406   6.191   5.732
38424SOL    HW217112   4.429   6.314   5.647
38425SOL     OW17113  10.461   5.109   2.285
38425SOL    HW117114  10.454   5.097   2.380
38425SOL    HW217115  10.474   5.021   2.250
38426SOL     OW17116   5.661   2.900  13.134
38426SOL    HW117117   5.690   2.850  13.211
38426SOL    HW217118   5.581   2.856  13.106
38427SOL     OW17119   0.695   7.035   7.257
38427SOL    HW117120   0.645   6.965   7.298
38427SOL    HW217121   0.688   7.109   7.317
38428SOL     OW17122  13.926   1.605   5.099
38428SOL    HW117123  13.833   1.618   5.120
38428SOL    HW217124  13.929   1.601   5.004
38429SOL     OW17125   9.231  14.369   9.025
38429SOL    HW117126   9.232  14.352   8.931
38429SOL    HW217127   9.265  14.457   9.035
38430SOL     OW17128  13.952   1.980  13.446
38430SOL    HW117129  13.920   2.064  13.413
38430SOL    HW217130  13.882   1.950  13.504
38431SOL     OW17131   3.854  13.180   9.410
38431SOL    HW117132   3.839  13.272   9.431
38431SOL    HW217133   3.936  13.180   9.361
38432SOL     OW17134  10.131   5.244   8.354
38432SOL    HW117135  10.178   5.161   8.361
38432SOL    HW217136  10.162   5.282   8.271
38433SOL     OW17137  12.062   5.517   9.458
38433SOL    HW117138  12.013   5.436   9.469
38433SOL    HW217139  12.133   5.494   9.398
38434SOL     OW17140   8.239   8.387  12.677
38434SOL    HW117141   8.154   8.353  12.704
38434SOL    HW217142   8.289   8.310  12.650
38435SOL     OW17143   7.435  13.829   0.829
38435SOL    HW117144   7.483  13.865   0.755
38435SOL    HW217145   7.382  13.758   0.792
38436SOL     OW17146  11.107   7.685   9.143
38436SOL    HW117147  11.123   7.647   9.057
38436SOL    HW217148  11.016   7.661   9.163
38437SOL     OW17149   8.777   2.463   2.098
38437SOL    HW117150   8.771   2.383   2.151
38437SOL    HW217151   8.687   2.483   2.075
38438SOL     OW17152  11.373   5.555   9.822
38438SOL    HW117153  11.427   5.620   9.866
38438SOL    HW217154  11.408   5.471   9.851
38439SOL     OW17155   3.173  14.122   3.651
38439SOL    HW117156   3.180  14.210   3.687
38439SOL    HW217157   3.258  14.106   3.610
38440SOL     OW17158  14.398  12.274  13.542
38440SOL    HW117159  14.337  12.220  13.593
38440SOL    HW217160  14.343  12.342  13.504
38441SOL     OW17161   8.647   1.765  10.120
38441SOL    HW117162   8.723   1.708  10.133
38441SOL    HW217163   8.579   1.707  10.087
38442SOL     OW17164  11.278   0.692   3.739
38442SOL    HW117165  11.330   0.631   3.687
38442SOL    HW217166  11.189   0.683   3.705
38443SOL     OW17167  14.590  13.634   3.844
38443SOL    HW117168  14.533  13.558   3.857
38443SOL    HW217169  14.540  13.691   3.785
38444SOL     OW17170  10.981  11.032   7.123
38444SOL    HW117171  10.978  11.097   7.053
38444SOL    HW217172  11.063  10.986   7.110
38445SOL     OW17173  13.901  11.680   1.568
38445SOL    HW117174  13.816  11.723   1.566
38445SOL    HW217175  13.885  11.596   1.610
38446SOL     OW17176   3.504  11.489  13.013
38446SOL    HW117177   3.596  11.509  13.028
38446SOL    HW217178   3.494  11.398  13.043
38447SOL     OW17179   3.551  14.087   7.472
38447SOL    HW117180   3.631  14.088   7.420
38447SOL    HW217181   3.505  14.167   7.446
38448SOL     OW17182  14.802   6.745   7.292
38448SOL    HW117183  14.815   6.833   7.257
38448SOL    HW217184  14.854   6.743   7.372
38449SOL     OW17185   6.184   4.837  12.048
38449SOL    HW117186   6.109   4.896  12.043
38449SOL    HW217187   6.220   4.851  12.136
38450SOL     OW17188  10.755   8.515   0.826
38450SOL    HW117189  10.813   8.451   0.868
38450SOL    HW217190  10.716   8.469   0.752
38451SOL     OW17191  10.114   7.172   8.494
38451SOL    HW117192  10.176   7.100   8.482
38451SOL    HW217193  10.051   7.163   8.422
38452SOL     OW17194  14.827   2.375   2.376
38452SOL    HW117195   0.041   2.356   2.381
38452SOL    HW217196  14.822   2.464   2.341
38453SOL     OW17197   6.322   2.888   4.626
38453SOL    HW117198   6.350   2.891   4.717
38453SOL    HW217199   6.266   2.965   4.616
38454SOL     OW17200   7.549  10.763  11.924
38454SOL    HW117201   7.523  10.757  12.016
38454SOL    HW217202   7.584  10.677  11.903
38455SOL     OW17203  11.165  12.776   0.407
38455SOL    HW117204  11.090  12.833   0.394
38455SOL    HW217205  11.229  12.829   0.455
38456SOL     OW17206  11.119  13.329   5.700
38456SOL    HW117207  11.081  13.396   5.757
38456SOL    HW217208  11.131  13.372   5.616
38457SOL     OW17209   2.300   9.090  13.238
38457SOL    HW117210   2.353   9.017  13.272
38457SOL    HW217211   2.335   9.167  13.281
38458SOL     OW17212   7.636   0.055  10.569
38458SOL    HW117213   7.680   0.089  10.491
38458SOL    HW217214   7.706   0.043  10.633
38459SOL     OW17215  13.501  12.146  10.068
38459SOL    HW117216  13.452  12.097  10.001
38459SOL    HW217217  13.444  12.219  10.090
38460SOL     OW17218   9.988  13.421   6.561
38460SOL    HW117219  10.024  13.376   6.638
38460SOL    HW217220   9.920  13.478   6.596
38461SOL     OW17221  10.807  14.195   1.044
38461SOL    HW117222  10.870  14.256   1.005
38461SOL    HW217223  10.829  14.194   1.138
38462SOL     OW17224   8.497   0.753  14.343
38462SOL    HW117225   8.583   0.735  14.304
38462SOL    HW217226   8.494   0.848  14.352
38463SOL     OW17227   3.344   9.917   3.912
38463SOL    HW117228   3.431   9.956   3.907
38463SOL    HW217229   3.359   9.827   3.940
38464SOL     OW17230  11.587   5.541  12.593
38464SOL    HW117231  11.632   5.625  12.595
38464SOL    HW217232  11.520   5.551  12.525
38465SOL     OW17233   8.019   6.957   5.084
38465SOL    HW117234   7.929   6.989   5.079
38465SOL    HW217235   8.044   6.968   5.176
38466SOL     OW17236   1.122   4.938   8.684
38466SOL    HW117237   1.166   4.961   8.602
38466SOL    HW217238   1.067   4.864   8.662
38467SOL     OW17239  13.774  11.317   2.852
38467SOL    HW117240  13.701  11.255   2.859
38467SOL    HW217241  13.741  11.387   2.797
38468SOL     OW17242   6.339   1.357   1.069
38468SOL    HW117243   6.425   1.336   1.106
38468SOL    HW217244   6.306   1.273   1.038
38469SOL     OW17245  11.177   8.460  14.863
38469SOL    HW117246  11.130   8.540   0.009
38469SOL    HW217247  11.227   8.435   0.061
38470SOL     OW17248  12.095  14.111  12.711
38470SOL    HW117249  12.008  14.145  12.730
38470SOL    HW217250  12.080  14.020  12.687
38471SOL     OW17251   7.242   0.927   7.023
38471SOL    HW117252   7.198   0.956   6.943
38471SOL    HW217253   7.170   0.896   7.079
38472SOL     OW17254   9.095   4.431   7.772
38472SOL    HW117255   9.178   4.473   7.793
38472SOL    HW217256   9.056   4.410   7.857
38473SOL     OW17257  10.577   6.778   7.051
38473SOL    HW117258  10.542   6.801   7.137
38473SOL    HW217259  10.499   6.769   6.995
38474SOL     OW17260   8.290   0.696   5.328
38474SOL    HW117261   8.328   0.745   5.401
38474SOL    HW217262   8.228   0.757   5.288
38475SOL     OW17263   2.577   6.400  14.087
38475SOL    HW117264   2.609   6.386  13.997
38475SOL    HW217265   2.534   6.485  14.084
38476SOL     OW17266   2.804   5.765   4.405
38476SOL    HW117267   2.855   5.844   4.425
38476SOL    HW217268   2.835   5.700   4.467
38477SOL     OW17269   9.294   9.557  13.388
38477SOL    HW117270   9.225   9.623  13.387
38477SOL    HW217271   9.364   9.595  13.441
38478SOL     OW17272   6.395  11.650   0.375
38478SOL    HW117273   6.374  11.556   0.382
38478SOL    HW217274   6.481  11.659   0.414
38479SOL     OW17275  13.903  10.351   0.293
38479SOL    HW117276  13.863  10.270   0.261
38479SOL    HW217277  13.830  10.409   0.311
38480SOL     OW17278   6.136   2.292   7.195
38480SOL    HW117279   6.088   2.359   7.146
38480SOL    HW217280   6.082   2.277   7.273
38481SOL     OW17281  14.112  10.913   0.979
38481SOL    HW117282  14.111  10.817   0.980
38481SOL    HW217283  14.092  10.936   0.888
38482SOL     OW17284  10.834   3.342  10.262
38482SOL    HW117285  10.809   3.290  10.185
38482SOL    HW217286  10.876   3.280  10.321
38483SOL     OW17287   0.003   9.862  12.349
38483SOL    HW117288  14.859   9.927  12.415
38483SOL    HW217289   0.075   9.813  12.388
38484SOL     OW17290   0.022   6.838  13.120
38484SOL    HW117291   0.112   6.870  13.111
38484SOL    HW217292  14.859   6.903  13.176
38485SOL     OW17293   7.601  11.985   3.478
38485SOL    HW117294   7.685  11.941   3.475
38485SOL    HW217295   7.622  12.078   3.479
38486SOL     OW17296   7.340  10.093   5.690
38486SOL    HW117297   7.431  10.062   5.689
38486SOL    HW217298   7.307  10.077   5.602
38487SOL     OW17299   7.714   4.767   1.832
38487SOL    HW117300   7.755   4.695   1.784
38487SOL    HW217301   7.689   4.829   1.763
38488SOL     OW17302   9.807  10.815   8.127
38488SOL    HW117303   9.859  10.877   8.178
38488SOL    HW217304   9.718  10.851   8.129
38489SOL     OW17305   2.246  14.094   3.397
38489SOL    HW117306   2.243  14.161   3.329
38489SOL    HW217307   2.276  14.015   3.353
38490SOL     OW17308   8.404   1.712   9.631
38490SOL    HW117309   8.418   1.806   9.622
38490SOL    HW217310   8.369   1.685   9.546
38491SOL     OW17311  11.804   7.830   1.308
38491SOL    HW117312  11.860   7.904   1.284
38491SOL    HW217313  11.717   7.869   1.320
38492SOL     OW17314  13.141   7.988  13.899
38492SOL    HW117315  13.057   8.020  13.932
38492SOL    HW217316  13.191   7.967  13.978
38493SOL     OW17317   4.654   3.960   5.100
38493SOL    HW117318   4.712   3.891   5.066
38493SOL    HW217319   4.607   3.917   5.172
38494SOL     OW17320   9.174   2.272   8.182
38494SOL    HW117321   9.199   2.203   8.243
38494SOL    HW217322   9.247   2.333   8.183
38495SOL     OW17323   2.960  12.818   7.677
38495SOL    HW117324   2.944  12.803   7.770
38495SOL    HW217325   2.977  12.912   7.671
38496SOL     OW17326  13.104   1.130   9.614
38496SOL    HW117327  13.192   1.168   9.607
38496SOL    HW217328  13.058   1.163   9.537
38497SOL     OW17329  12.754   2.252  11.346
38497SOL    HW117330  12.676   2.261  11.291
38497SOL    HW217331  12.813   2.198  11.293
38498SOL     OW17332  14.019   4.119   4.663
38498SOL    HW117333  14.095   4.176   4.676
38498SOL    HW217334  14.056   4.038   4.628
38499SOL     OW17335   7.358   2.358   5.097
38499SOL    HW117336   7.417   2.406   5.040
38499SOL    HW217337   7.367   2.400   5.183
38500SOL     OW17338   0.450  10.440  10.960
38500SOL    HW117339   0.504  10.456  11.037
38500SOL    HW217340   0.408  10.356  10.977
38501SOL     OW17341   4.845   0.326   2.299
38501SOL    HW117342   4.843   0.382   2.222
38501SOL    HW217343   4.900   0.372   2.362
38502SOL     OW17344  13.678  12.143   7.681
38502SOL    HW117345  13.687  12.066   7.624
38502SOL    HW217346  13.659  12.215   7.621
38503SOL     OW17347  13.772   5.292  13.888
38503SOL    HW117348  13.748   5.384  13.897
38503SOL    HW217349  13.790   5.280  13.795
38504SOL     OW17350  11.292   4.454   1.254
38504SOL    HW117351  11.264   4.363   1.261
38504SOL    HW217352  11.210   4.502   1.239
38505SOL     OW17353   0.981   8.526  13.953
38505SOL    HW117354   0.973   8.545  14.046
38505SOL    HW217355   1.064   8.478  13.946
38506SOL     OW17356  13.017  12.930   1.446
38506SOL    HW117357  13.072  12.986   1.501
38506SOL    HW217358  13.004  12.851   1.498
38507SOL     OW17359   1.250   6.499   1.630
38507SOL    HW117360   1.274   6.518   1.540
38507SOL    HW217361   1.304   6.558   1.682
38508SOL     OW17362   4.854  14.494   3.013
38508SOL    HW117363   4.780  14.550   3.038
38508SOL    HW217364   4.851  14.491   2.918
38509SOL     OW17365   5.823  10.883   3.687
38509SOL    HW117366   5.803  10.888   3.780
38509SOL    HW217367   5.881  10.807   3.679
38510SOL     OW17368   5.520   1.170   7.331
38510SOL    HW117369   5.518   1.082   7.369
38510SOL    HW217370   5.579   1.162   7.256
38511SOL     OW17371   7.342   7.406   3.512
38511SOL    HW117372   7.277   7.341   3.540
38511SOL    HW217373   7.426   7.364   3.526
38512SOL     OW17374   9.506   8.297  10.295
38512SOL    HW117375   9.547   8.371  10.251
38512SOL    HW217376   9.503   8.322  10.387
38513SOL     OW17377   5.562   2.508   7.068
38513SOL    HW117378   5.481   2.508   7.120
38513SOL    HW217379   5.615   2.578   7.106
38514SOL     OW17380   7.303  12.821   6.325
38514SOL    HW117381   7.228  12.879   6.339
38514SOL    HW217382   7.361  12.870   6.267
38515SOL     OW17383   5.093   2.434   9.827
38515SOL    HW117384   5.091   2.365   9.893
38515SOL    HW217385   5.186   2.446   9.808
38516SOL     OW17386  12.438  13.519  14.460
38516SOL    HW117387  12.445  13.607  14.496
38516SOL    HW217388  12.354  13.486  14.491
38517SOL     OW17389   2.754   1.818   5.116
38517SOL    HW117390   2.774   1.813   5.023
38517SOL    HW217391   2.731   1.909   5.132
38518SOL     OW17392   7.909   3.023   8.239
38518SOL    HW117393   7.883   2.963   8.309
38518SOL    HW217394   7.831   3.077   8.224
38519SOL     OW17395   3.357   8.478   5.483
38519SOL    HW117396   3.420   8.490   5.554
38519SOL    HW217397   3.350   8.384   5.472
38520SOL     OW17398   4.320   4.324  14.421
38520SOL    HW117399   4.364   4.393  14.371
38520SOL    HW217400   4.294   4.260  14.355
38521SOL     OW17401   5.451   2.708   2.570
38521SOL    HW117402   5.389   2.638   2.547
38521SOL    HW217403   5.456   2.705   2.665
38522SOL     OW17404   8.925   6.965  10.717
38522SOL    HW117405   9.002   6.917  10.746
38522SOL    HW217406   8.850   6.914  10.748
38523SOL     OW17407   6.871   3.335   7.112
38523SOL    HW117408   6.842   3.243   7.107
38523SOL    HW217409   6.845   3.363   7.200
38524SOL     OW17410   6.486   3.017   9.821
38524SOL    HW117411   6.577   3.043   9.840
38524SOL    HW217412   6.436   3.050   9.896
38525SOL     OW17413   6.271   3.501   0.115
38525SOL    HW117414   6.227   3.500   0.200
38525SOL    HW217415   6.205   3.534   0.054
38526SOL     OW17416   0.398  11.706  11.706
38526SOL    HW117417   0.359  11.791  11.729
38526SOL    HW217418   0.324  11.654  11.675
38527SOL     OW17419   8.230   6.391  14.701
38527SOL    HW117420   8.265   6.309  14.668
38527SOL    HW217421   8.289   6.416  14.772
38528SOL     OW17422   8.302   2.783   0.636
38528SOL    HW117423   8.385   2.796   0.590
38528SOL    HW217424   8.245   2.743   0.571
38529SOL     OW17425  11.001   2.476  12.998
38529SOL    HW117426  11.011   2.543  12.930
38529SOL    HW217427  10.926   2.424  12.969
38530SOL     OW17428  14.575  14.794   6.700
38530SOL    HW117429  14.609  14.816   6.613
38530SOL    HW217430  14.614  14.859   6.758
38531SOL     OW17431   0.594   4.649   2.763
38531SOL    HW117432   0.511   4.608   2.784
38531SOL    HW217433   0.581   4.742   2.782
38532SOL     OW17434   8.104  13.904  11.484
38532SOL    HW117435   8.088  13.864  11.399
38532SOL    HW217436   8.165  13.976  11.466
38533SOL     OW17437   7.225   9.947  12.991
38533SOL    HW117438   7.278   9.877  12.954
38533SOL    HW217439   7.153   9.958  12.930
38534SOL     OW17440   7.629  10.340   2.565
38534SOL    HW117441   7.634  10.370   2.655
38534SOL    HW217442   7.712  10.294   2.550
38535SOL     OW17443   7.655  14.430   8.531
38535SOL    HW117444   7.638  14.392   8.445
38535SOL    HW217445   7.699  14.360   8.580
38536SOL     OW17446  12.349   4.538   2.194
38536SOL    HW117447  12.375   4.588   2.271
38536SOL    HW217448  12.255   4.554   2.185
38537SOL     OW17449   9.698  12.218  14.249
38537SOL    HW117450   9.666  12.266  14.326
38537SOL    HW217451   9.751  12.147  14.286
38538SOL     OW17452  13.441   1.303   3.744
38538SOL    HW117453  13.492   1.380   3.770
38538SOL    HW217454  13.393   1.331   3.665
38539SOL     OW17455   0.234  11.947   1.769
38539SOL    HW117456   0.325  11.976   1.776
38539SOL    HW217457   0.228  11.908   1.681
38540SOL     OW17458  10.598   7.937   8.306
38540SOL    HW117459  10.518   7.914   8.258
38540SOL    HW217460  10.566   7.986   8.381
38541SOL     OW17461   7.967   8.656   9.573
38541SOL    HW117462   7.906   8.628   9.504
38541SOL    HW217463   8.007   8.574   9.604
38542SOL     OW17464  11.581   6.882  10.910
38542SOL    HW117465  11.652   6.934  10.873
38542SOL    HW217466  11.515   6.946  10.936
38543SOL     OW17467   6.260   1.807   6.619
38543SOL    HW117468   6.218   1.770   6.541
38543SOL    HW217469   6.258   1.902   6.604
38544SOL     OW17470  10.738   1.109   2.198
38544SOL    HW117471  10.774   1.030   2.160
38544SOL    HW217472  10.813   1.151   2.241
38545SOL     OW17473   9.334   7.987   2.429
38545SOL    HW117474   9.305   7.941   2.349
38545SOL    HW217475   9.412   7.939   2.456
38546SOL     OW17476   2.785  14.667   0.858
38546SOL    HW117477   2.796  14.576   0.832
38546SOL    HW217478   2.800  14.667   0.953
38547SOL     OW17479   0.483  14.057   8.776
38547SOL    HW117480   0.473  14.051   8.681
38547SOL    HW217481   0.524  14.142   8.791
38548SOL     OW17482   5.955  14.107  13.891
38548SOL    HW117483   6.033  14.154  13.920
38548SOL    HW217484   5.884  14.169  13.903
38549SOL     OW17485   8.133   7.921   3.000
38549SOL    HW117486   8.213   7.891   2.956
38549SOL    HW217487   8.164   7.979   3.069
38550SOL     OW17488   3.293  12.416  12.768
38550SOL    HW117489   3.313  12.332  12.726
38550SOL    HW217490   3.377  12.462  12.772
38551SOL     OW17491   1.908  13.684  11.826
38551SOL    HW117492   1.924  13.725  11.911
38551SOL    HW217493   1.879  13.595  11.848
38552SOL     OW17494   5.751  11.878   9.001
38552SOL    HW117495   5.693  11.852   8.930
38552SOL    HW217496   5.825  11.817   8.996
38553SOL     OW17497  10.524   6.891  10.945
38553SOL    HW117498  10.582   6.843  11.005
38553SOL    HW217499  10.511   6.831  10.871
38554SOL     OW17500   3.889   9.549  11.693
38554SOL    HW117501   3.813   9.491  11.693
38554SOL    HW217502   3.854   9.633  11.724
38555SOL     OW17503   8.855   6.365   6.697
38555SOL    HW117504   8.929   6.305   6.697
38555SOL    HW217505   8.781   6.312   6.729
38556SOL     OW17506   1.372   8.130   5.858
38556SOL    HW117507   1.322   8.097   5.783
38556SOL    HW217508   1.461   8.143   5.823
38557SOL     OW17509   6.883  14.442   8.067
38557SOL    HW117510   6.860  14.534   8.074
38557SOL    HW217511   6.913  14.418   8.154
38558SOL     OW17512  10.887   4.973   1.975
38558SOL    HW117513  10.924   5.005   1.893
38558SOL    HW217514  10.962   4.965   2.034
38559SOL     OW17515  13.511   1.907   4.298
38559SOL    HW117516  13.421   1.940   4.288
38559SOL    HW217517  13.562   1.956   4.234
38560SOL     OW17518   6.157  11.192  11.555
38560SOL    HW117519   6.066  11.218  11.542
38560SOL    HW217520   6.161  11.101  11.527
38561SOL     OW17521   0.705  13.305  12.981
38561SOL    HW117522   0.629  13.352  12.946
38561SOL    HW217523   0.692  13.305  13.076
38562SOL     OW17524   7.177   0.713  14.723
38562SOL    HW117525   7.220   0.798  14.715
38562SOL    HW217526   7.084   0.731  14.709
38563SOL     OW17527  10.360  13.679   9.849
38563SOL    HW117528  10.272  13.663   9.813
38563SOL    HW217529  10.366  13.620   9.924
38564SOL     OW17530   6.085   4.326   0.841
38564SOL    HW117531   6.103   4.232   0.842
38564SOL    HW217532   6.017   4.336   0.774
38565SOL     OW17533  14.524   0.634   4.758
38565SOL    HW117534  14.443   0.588   4.736
38565SOL    HW217535  14.495   0.709   4.810
38566SOL     OW17536  13.670   7.992   6.161
38566SOL    HW117537  13.667   8.067   6.220
38566SOL    HW217538  13.683   8.030   6.074
38567SOL     OW17539   6.365   4.307  10.056
38567SOL    HW117540   6.288   4.331  10.107
38567SOL    HW217541   6.340   4.324   9.965
38568SOL     OW17542  10.999   1.732  13.293
38568SOL    HW117543  11.053   1.779  13.355
38568SOL    HW217544  10.923   1.703  13.344
38569SOL     OW17545  10.342  12.385   2.478
38569SOL    HW117546  10.379  12.447   2.415
38569SOL    HW217547  10.406  12.381   2.548
38570SOL     OW17548   9.291  12.530   9.478
38570SOL    HW117549   9.299  12.481   9.560
38570SOL    HW217550   9.312  12.467   9.410
38571SOL     OW17551  12.365   4.812  10.548
38571SOL    HW117552  12.302   4.750  10.585
38571SOL    HW217553  12.313   4.890  10.527
38572SOL     OW17554   8.287  14.573   2.733
38572SOL    HW117555   8.249  14.658   2.712
38572SOL    HW217556   8.357  14.561   2.669
38573SOL     OW17557   1.130   3.297   2.821
38573SOL    HW117558   1.215   3.339   2.832
38573SOL    HW217559   1.118   3.245   2.900
38574SOL     OW17560   5.162  14.748  12.741
38574SOL    HW117561   5.119  14.796  12.670
38574SOL    HW217562   5.185  14.663  12.703
38575SOL     OW17563   7.356  12.302  13.531
38575SOL    HW117564   7.383  12.301  13.440
38575SOL    HW217565   7.264  12.330  13.529
38576SOL     OW17566  13.776  13.852  14.664
38576SOL    HW117567  13.796  13.791  14.593
38576SOL    HW217568  13.684  13.834  14.685
38577SOL     OW17569   8.888   9.075   8.163
38577SOL    HW117570   8.896   8.980   8.166
38577SOL    HW217571   8.876   9.095   8.070
38578SOL     OW17572   5.055   0.703   0.649
38578SOL    HW117573   4.976   0.650   0.644
38578SOL    HW217574   5.088   0.707   0.559
38579SOL     OW17575  12.503  10.443  13.684
38579SOL    HW117576  12.532  10.423  13.774
38579SOL    HW217577  12.509  10.539  13.679
38580SOL     OW17578  14.305   4.035  14.063
38580SOL    HW117579  14.295   4.114  14.116
38580SOL    HW217580  14.230   3.981  14.086
38581SOL     OW17581  10.381  14.572   5.332
38581SOL    HW117582  10.312  14.594   5.269
38581SOL    HW217583  10.462  14.597   5.288
38582SOL     OW17584  14.141  12.295   3.267
38582SOL    HW117585  14.108  12.229   3.328
38582SOL    HW217586  14.082  12.290   3.191
38583SOL     OW17587   7.216  10.648  13.924
38583SOL    HW117588   7.196  10.654  13.831
38583SOL    HW217589   7.134  10.671  13.968
38584SOL     OW17590   6.903  10.545  12.824
38584SOL    HW117591   6.879  10.634  12.797
38584SOL    HW217592   6.955  10.556  12.903
38585SOL     OW17593  14.215   9.451  11.311
38585SOL    HW117594  14.140   9.499  11.346
38585SOL    HW217595  14.258   9.414  11.388
38586SOL     OW17596  13.829   8.714   2.926
38586SOL    HW117597  13.826   8.718   2.830
38586SOL    HW217598  13.804   8.624   2.946
38587SOL     OW17599   6.583   0.760  14.677
38587SOL    HW117600   6.517   0.768  14.746
38587SOL    HW217601   6.652   0.705  14.716
38588SOL     OW17602   9.163   0.298   8.400
38588SOL    HW117603   9.085   0.307   8.345
38588SOL    HW217604   9.234   0.280   8.338
38589SOL     OW17605  10.637   5.552   8.233
38589SOL    HW117606  10.622   5.503   8.314
38589SOL    HW217607  10.550   5.585   8.209
38590SOL     OW17608   1.759  12.520   0.539
38590SOL    HW117609   1.665  12.522   0.522
38590SOL    HW217610   1.768  12.464   0.617
38591SOL     OW17611   7.452   9.346   8.042
38591SOL    HW117612   7.416   9.326   8.129
38591SOL    HW217613   7.531   9.396   8.060
38592SOL     OW17614   8.036  13.700   6.917
38592SOL    HW117615   8.123  13.685   6.880
38592SOL    HW217616   7.979  13.639   6.869
38593SOL     OW17617  13.288   6.717  11.759
38593SOL    HW117618  13.357   6.751  11.703
38593SOL    HW217619  13.207   6.738  11.713
38594SOL     OW17620   4.629   6.214  13.143
38594SOL    HW117621   4.558   6.191  13.202
38594SOL    HW217622   4.708   6.203  13.194
38595SOL     OW17623   9.531  12.263  12.981
38595SOL    HW117624   9.596  12.273  13.051
38595SOL    HW217625   9.548  12.177  12.943
38596SOL     OW17626   7.575   7.674   5.255
38596SOL    HW117627   7.587   7.588   5.296
38596SOL    HW217628   7.662   7.714   5.259
38597SOL     OW17629   9.264   9.522   3.952
38597SOL    HW117630   9.206   9.458   3.992
38597SOL    HW217631   9.295   9.575   4.026
38598SOL     OW17632  12.295   1.966   3.521
38598SOL    HW117633  12.291   2.059   3.499
38598SOL    HW217634  12.212   1.930   3.488
38599SOL     OW17635  10.182  14.478   1.664
38599SOL    HW117636  10.143  14.418   1.601
38599SOL    HW217637  10.275  14.478   1.645
38600SOL     OW17638   8.259   8.187  11.796
38600SOL    HW117639   8.254   8.261  11.857
38600SOL    HW217640   8.191   8.205  11.731
38601SOL     OW17641   4.424   2.495   8.916
38601SOL    HW117642   4.376   2.453   8.845
38601SOL    HW217643   4.426   2.588   8.891
38602SOL     OW17644  10.876   0.978   3.662
38602SOL    HW117645  10.805   0.915   3.670
38602SOL    HW217646  10.831   1.063   3.653
38603SOL     OW17647  13.424   2.081   6.624
38603SOL    HW117648  13.520   2.084   6.617
38603SOL    HW217649  13.394   2.158   6.576
38604SOL     OW17650   2.359   1.394   2.866
38604SOL    HW117651   2.349   1.332   2.793
38604SOL    HW217652   2.384   1.340   2.940
38605SOL     OW17653   3.400   6.436  12.817
38605SOL    HW117654   3.467   6.471  12.875
38605SOL    HW217655   3.446   6.418  12.735
38606SOL     OW17656  13.645   7.500  12.251
38606SOL    HW117657  13.600   7.417  12.235
38606SOL    HW217658  13.637   7.549  12.169
38607SOL     OW17659   7.578   6.760  11.801
38607SOL    HW117660   7.563   6.672  11.838
38607SOL    HW217661   7.528   6.818  11.858
38608SOL     OW17662   0.034   5.001   2.426
38608SOL    HW117663   0.014   4.997   2.332
38608SOL    HW217664   0.123   5.035   2.430
38609SOL     OW17665  11.598  10.448   3.082
38609SOL    HW117666  11.582  10.358   3.054
38609SOL    HW217667  11.545  10.459   3.161
38610SOL     OW17668   8.083   3.188  14.174
38610SOL    HW117669   8.060   3.114  14.117
38610SOL    HW217670   8.179   3.192  14.170
38611SOL     OW17671   6.467   1.717   0.225
38611SOL    HW117672   6.471   1.745   0.133
38611SOL    HW217673   6.558   1.713   0.254
38612SOL     OW17674  13.223  11.871   2.860
38612SOL    HW117675  13.257  11.858   2.771
38612SOL    HW217676  13.129  11.878   2.848
38613SOL     OW17677   4.831   0.633  10.819
38613SOL    HW117678   4.766   0.567  10.843
38613SOL    HW217679   4.835   0.691  10.895
38614SOL     OW17680  13.059   7.167   5.319
38614SOL    HW117681  13.004   7.173   5.397
38614SOL    HW217682  12.999   7.185   5.246
38615SOL     OW17683   4.849   9.061  11.797
38615SOL    HW117684   4.854   9.143  11.747
38615SOL    HW217685   4.866   9.088  11.887
38616SOL     OW17686   5.210  12.917   7.476
38616SOL    HW117687   5.150  12.887   7.408
38616SOL    HW217688   5.153  12.944   7.548
38617SOL     OW17689   0.378   3.988   8.464
38617SOL    HW117690   0.451   4.006   8.405
38617SOL    HW217691   0.304   4.034   8.425
38618SOL     OW17692   9.087   1.269  12.805
38618SOL    HW117693   9.025   1.307  12.742
38618SOL    HW217694   9.165   1.324  12.798
38619SOL     OW17695   4.397   2.663  11.320
38619SOL    HW117696   4.393   2.636  11.228
38619SOL    HW217697   4.415   2.757  11.317
38620SOL     OW17698  13.583   6.717   8.970
38620SOL    HW117699  13.653   6.771   9.007
38620SOL    HW217700  13.591   6.729   8.876
38621SOL     OW17701   1.082   1.423   0.519
38621SOL    HW117702   1.094   1.465   0.434
38621SOL    HW217703   1.115   1.487   0.582
38622SOL     OW17704   7.038   0.759  10.425
38622SOL    HW117705   7.052   0.774  10.519
38622SOL    HW217706   7.058   0.844  10.385
38623SOL     OW17707  13.677  12.380   3.709
38623SOL    HW117708  13.679  12.288   3.737
38623SOL    HW217709  13.705  12.378   3.617
38624SOL     OW17710   4.581   0.013   0.555
38624SOL    HW117711   4.555   0.106   0.555
38624SOL    HW217712   4.645   0.007   0.626
38625SOL     OW17713  11.796   0.335   9.293
38625SOL    HW117714  11.842   0.289   9.363
38625SOL    HW217715  11.831   0.297   9.212
38626SOL     OW17716  14.063  13.531  13.667
38626SOL    HW117717  14.010  13.521  13.588
38626SOL    HW217718  14.013  13.592  13.721
38627SOL     OW17719   6.431   9.654   4.085
38627SOL    HW117720   6.507   9.597   4.075
38627SOL    HW217721   6.391   9.657   3.998
38628SOL     OW17722   7.794   9.544   3.675
38628SOL    HW117723   7.856   9.485   3.632
38628SOL    HW217724   7.839   9.628   3.679
38629SOL     OW17725   3.802   1.909  13.750
38629SOL    HW117726   3.897   1.894  13.755
38629SOL    HW217727   3.770   1.889  13.838
38630SOL     OW17728   7.236   0.661   0.239
38630SOL    HW117729   7.146   0.684   0.262
38630SOL    HW217730   7.279   0.642   0.322
38631SOL     OW17731   1.313   4.327  10.552
38631SOL    HW117732   1.298   4.391  10.622
38631SOL    HW217733   1.269   4.248  10.583
38632SOL     OW17734   8.958   4.723   1.149
38632SOL    HW117735   8.894   4.770   1.096
38632SOL    HW217736   8.962   4.773   1.231
38633SOL     OW17737   9.515  13.960  13.618
38633SOL    HW117738   9.507  13.982  13.711
38633SOL    HW217739   9.605  13.927  13.609
38634SOL     OW17740  10.550   0.900   6.120
38634SOL    HW117741  10.527   0.807   6.115
38634SOL    HW217742  10.575   0.913   6.212
38635SOL     OW17743   8.129   0.071   1.252
38635SOL    HW117744   8.091   0.158   1.237
38635SOL    HW217745   8.081   0.037   1.328
38636SOL     OW17746   8.908  11.010   4.128
38636SOL    HW117747   8.883  11.078   4.191
38636SOL    HW217748   8.845  11.018   4.057
38637SOL     OW17749  14.547   0.818   4.167
38637SOL    HW117750  14.543   0.750   4.235
38637SOL    HW217751  14.518   0.898   4.210
38638SOL     OW17752  14.106  14.782   7.291
38638SOL    HW117753  14.161  14.774   7.369
38638SOL    HW217754  14.152  14.845   7.235
38639SOL     OW17755   9.174  14.184  14.659
38639SOL    HW117756   9.216  14.187  14.572
38639SOL    HW217757   9.208  14.261  14.704
38640SOL     OW17758   0.218   3.098  12.081
38640SOL    HW117759   0.158   3.131  12.015
38640SOL    HW217760   0.165   3.039  12.135
38641SOL     OW17761   1.031   2.783   1.873
38641SOL    HW117762   1.068   2.830   1.798
38641SOL    HW217763   0.960   2.839   1.905
38642SOL     OW17764   7.473   8.188   0.076
38642SOL    HW117765   7.542   8.254   0.081
38642SOL    HW217766   7.437   8.185   0.165
38643SOL     OW17767   2.538   5.209   0.183
38643SOL    HW117768   2.553   5.223   0.276
38643SOL    HW217769   2.619   5.235   0.140
38644SOL     OW17770   2.485   8.655   2.302
38644SOL    HW117771   2.399   8.697   2.310
38644SOL    HW217772   2.501   8.618   2.389
38645SOL     OW17773  11.854   1.059   8.898
38645SOL    HW117774  11.787   1.125   8.883
38645SOL    HW217775  11.805   0.981   8.925
38646SOL     OW17776   1.159   6.141  11.424
38646SOL    HW117777   1.112   6.081  11.366
38646SOL    HW217778   1.211   6.084  11.481
38647SOL     OW17779   4.666  10.852  13.483
38647SOL    HW117780   4.702  10.900  13.558
38647SOL    HW217781   4.670  10.915  13.411
38648SOL     OW17782  13.667  12.380   2.157
38648SOL    HW117783  13.722  12.443   2.110
38648SOL    HW217784  13.580  12.393   2.121
38649SOL     OW17785  11.397   2.954   2.052
38649SOL    HW117786  11.422   3.032   2.002
38649SOL    HW217787  11.344   2.987   2.124
38650SOL     OW17788  11.840   9.405   0.308
38650SOL    HW117789  11.868   9.333   0.252
38650SOL    HW217790  11.917   9.463   0.313
38651SOL     OW17791   2.911  11.599  10.636
38651SOL    HW117792   2.984  11.539  10.623
38651SOL    HW217793   2.835  11.541  10.650
38652SOL     OW17794  10.215   8.244   1.172
38652SOL    HW117795  10.175   8.305   1.234
38652SOL    HW217796  10.224   8.294   1.091
38653SOL     OW17797   8.083  10.089   5.150
38653SOL    HW117798   8.047  10.146   5.082
38653SOL    HW217799   8.011  10.032   5.176
38654SOL     OW17800  14.747   4.644   9.069
38654SOL    HW117801  14.683   4.708   9.039
38654SOL    HW217802  14.779   4.602   8.988
38655SOL     OW17803  12.400   6.553  12.337
38655SOL    HW117804  12.484   6.599  12.332
38655SOL    HW217805  12.422   6.461  12.326
38656SOL     OW17806  12.283   3.125   2.746
38656SOL    HW117807  12.330   3.108   2.664
38656SOL    HW217808  12.245   3.211   2.734
38657SOL     OW17809  12.346   2.439   3.032
38657SOL    HW117810  12.379   2.498   2.964
38657SOL    HW217811  12.266   2.482   3.063
38658SOL     OW17812   0.486  11.655   9.182
38658SOL    HW117813   0.396  11.637   9.209
38658SOL    HW217814   0.477  11.705   9.100
38659SOL     OW17815  11.538   6.800  14.526
38659SOL    HW117816  11.631   6.822  14.527
38659SOL    HW217817  11.505   6.833  14.610
38660SOL     OW17818   9.064   0.910   3.583
38660SOL    HW117819   9.095   0.890   3.671
38660SOL    HW217820   9.142   0.901   3.528
38661SOL     OW17821   0.570   2.779  11.252
38661SOL    HW117822   0.537   2.761  11.340
38661SOL    HW217823   0.582   2.873  11.250
38662SOL     OW17824  10.368  10.324   8.972
38662SOL    HW117825  10.340  10.298   8.884
38662SOL    HW217826  10.400  10.243   9.012
38663SOL     OW17827   6.127   8.686   7.155
38663SOL    HW117828   6.099   8.735   7.233
38663SOL    HW217829   6.111   8.746   7.082
38664SOL     OW17830   9.035   7.833  11.096
38664SOL    HW117831   9.128   7.821  11.113
38664SOL    HW217832   9.026   7.818  11.002
38665SOL     OW17833   1.142  13.460   5.547
38665SOL    HW117834   1.047  13.471   5.549
38665SOL    HW217835   1.166  13.437   5.636
38666SOL     OW17836   5.454  11.704   9.501
38666SOL    HW117837   5.543  11.738   9.488
38666SOL    HW217838   5.442  11.641   9.430
38667SOL     OW17839   0.612  12.635   2.429
38667SOL    HW117840   0.700  12.601   2.417
38667SOL    HW217841   0.567  12.569   2.481
38668SOL     OW17842   4.991  12.780   6.700
38668SOL    HW117843   4.929  12.725   6.652
38668SOL    HW217844   5.043  12.823   6.632
38669SOL     OW17845  13.032   6.758  11.987
38669SOL    HW117846  12.977   6.836  11.997
38669SOL    HW217847  12.972   6.690  11.957
38670SOL     OW17848   3.962   0.461  12.036
38670SOL    HW117849   4.015   0.524  11.987
38670SOL    HW217850   4.022   0.425  12.102
38671SOL     OW17851   4.988   1.242   9.094
38671SOL    HW117852   4.948   1.328   9.080
38671SOL    HW217853   5.080   1.255   9.073
38672SOL     OW17854   7.808  12.301   6.828
38672SOL    HW117855   7.785  12.215   6.793
38672SOL    HW217856   7.899  12.291   6.858
38673SOL     OW17857  14.331  14.023  14.850
38673SOL    HW117858  14.300  13.935  14.869
38673SOL    HW217859  14.345  14.062   0.057
38674SOL     OW17860  11.668   1.971  11.999
38674SOL    HW117861  11.715   2.009  12.074
38674SOL    HW217862  11.579   1.957  12.032
38675SOL     OW17863  12.559  14.306   7.199
38675SOL    HW117864  12.621  14.270   7.135
38675SOL    HW217865  12.504  14.365   7.149
38676SOL     OW17866  13.468   4.182   3.835
38676SOL    HW117867  13.391   4.239   3.834
38676SOL    HW217868  13.516   4.208   3.913
38677SOL     OW17869  10.652   0.320  12.884
38677SOL    HW117870  10.739   0.359  12.871
38677SOL    HW217871  10.606   0.336  12.801
38678SOL     OW17872   0.964   9.967   7.388
38678SOL    HW117873   1.029  10.012   7.333
38678SOL    HW217874   1.013   9.940   7.465
38679SOL     OW17875  13.123   6.738   5.962
38679SOL    HW117876  13.063   6.664   5.967
38679SOL    HW217877  13.195   6.706   5.907
38680SOL     OW17878  11.789   3.467  10.683
38680SOL    HW117879  11.804   3.415  10.762
38680SOL    HW217880  11.760   3.552  10.715
38681SOL     OW17881   2.339   4.811   2.866
38681SOL    HW117882   2.369   4.779   2.781
38681SOL    HW217883   2.408   4.871   2.895
38682SOL     OW17884  14.216   9.131   1.412
38682SOL    HW117885  14.170   9.121   1.496
38682SOL    HW217886  14.150   9.107   1.347
38683SOL     OW17887   9.560  10.076  13.424
38683SOL    HW117888   9.469  10.069  13.453
38683SOL    HW217889   9.605  10.119  13.497
38684SOL     OW17890   0.563   6.948   1.430
38684SOL    HW117891   0.513   7.013   1.480
38684SOL    HW217892   0.536   6.962   1.339
38685SOL     OW17893   4.807   1.160  13.887
38685SOL    HW117894   4.776   1.142  13.798
38685SOL    HW217895   4.849   1.246  13.880
38686SOL     OW17896   5.982   1.549   0.872
38686SOL    HW117897   6.074   1.574   0.885
38686SOL    HW217898   5.939   1.630   0.847
38687SOL     OW17899  11.893   7.251  12.706
38687SOL    HW117900  11.957   7.300  12.653
38687SOL    HW217901  11.822   7.231  12.644
38688SOL     OW17902  11.663   4.048  11.596
38688SOL    HW117903  11.744   4.098  11.597
38688SOL    HW217904  11.689   3.959  11.571
38689SOL     OW17905   4.198  13.360   6.591
38689SOL    HW117906   4.203  13.365   6.496
38689SOL    HW217907   4.275  13.310   6.617
38690SOL     OW17908  10.640   8.554   3.891
38690SOL    HW117909  10.690   8.585   3.967
38690SOL    HW217910  10.573   8.496   3.928
38691SOL     OW17911  11.566   3.671  14.539
38691SOL    HW117912  11.547   3.765  14.548
38691SOL    HW217913  11.662   3.667  14.535
38692SOL     OW17914   9.005  11.717   2.676
38692SOL    HW117915   8.981  11.791   2.732
38692SOL    HW217916   8.971  11.641   2.722
38693SOL     OW17917   9.543   2.373  13.991
38693SOL    HW117918   9.486   2.303  14.023
38693SOL    HW217919   9.582   2.410  14.070
38694SOL     OW17920   6.651  12.044   5.570
38694SOL    HW117921   6.645  12.116   5.633
38694SOL    HW217922   6.737  12.005   5.585
38695SOL     OW17923   9.050  11.135   5.633
38695SOL    HW117924   8.985  11.191   5.676
38695SOL    HW217925   9.002  11.057   5.608
38696SOL     OW17926   8.548  13.755   2.723
38696SOL    HW117927   8.550  13.772   2.629
38696SOL    HW217928   8.600  13.676   2.735
38697SOL     OW17929  10.980  10.932   7.722
38697SOL    HW117930  11.043  10.995   7.687
38697SOL    HW217931  11.002  10.850   7.678
38698SOL     OW17932  11.515   2.028   1.175
38698SOL    HW117933  11.587   2.049   1.234
38698SOL    HW217934  11.469   1.955   1.218
38699SOL     OW17935  11.330   6.792  14.717
38699SOL    HW117936  11.304   6.707  14.680
38699SOL    HW217937  11.300   6.856  14.653
38700SOL     OW17938  14.222  14.184   2.736
38700SOL    HW117939  14.130  14.211   2.734
38700SOL    HW217940  14.239  14.164   2.828
38701SOL     OW17941   0.815   2.432   8.781
38701SOL    HW117942   0.795   2.452   8.872
38701SOL    HW217943   0.892   2.375   8.785
38702SOL     OW17944  11.904   4.174   0.988
38702SOL    HW117945  11.873   4.260   0.959
38702SOL    HW217946  11.998   4.187   1.003
38703SOL     OW17947   6.706   2.856  13.998
38703SOL    HW117948   6.611   2.858  13.998
38703SOL    HW217949   6.732   2.945  13.972
38704SOL     OW17950   6.964  13.814   2.033
38704SOL    HW117951   7.012  13.876   2.088
38704SOL    HW217952   6.923  13.869   1.966
38705SOL     OW17953   0.791   3.932   8.510
38705SOL    HW117954   0.832   3.861   8.560
38705SOL    HW217955   0.814   3.913   8.419
38706SOL     OW17956   3.224  10.486   1.571
38706SOL    HW117957   3.213  10.567   1.521
38706SOL    HW217958   3.214  10.512   1.662
38707SOL     OW17959  13.756  11.162   8.786
38707SOL    HW117960  13.839  11.173   8.832
38707SOL    HW217961  13.694  11.217   8.834
38708SOL     OW17962   9.865   6.975   8.461
38708SOL    HW117963   9.822   6.975   8.546
38708SOL    HW217964   9.861   7.066   8.432
38709SOL     OW17965   6.008   2.691   3.971
38709SOL    HW117966   6.083   2.631   3.972
38709SOL    HW217967   6.006   2.728   4.059
38710SOL     OW17968   2.587   0.022   6.237
38710SOL    HW117969   2.629   0.062   6.313
38710SOL    HW217970   2.532   0.091   6.200
38711SOL     OW17971   2.983  13.158  13.085
38711SOL    HW117972   3.045  13.183  13.017
38711SOL    HW217973   3.036  13.109  13.149
38712SOL     OW17974   5.869  13.328  14.096
38712SOL    HW117975   5.777  13.304  14.105
38712SOL    HW217976   5.893  13.299  14.008
38713SOL     OW17977   4.421   0.570   3.142
38713SOL    HW117978   4.333   0.546   3.114
38713SOL    HW217979   4.457   0.618   3.068
38714SOL     OW17980   9.952   7.172  12.523
38714SOL    HW117981   9.988   7.210  12.603
38714SOL    HW217982  10.020   7.183  12.457
38715SOL     OW17983   7.002  11.971  13.660
38715SOL    HW117984   7.097  11.986  13.655
38715SOL    HW217985   6.964  12.058  13.661
38716SOL     OW17986  14.452   1.474   6.012
38716SOL    HW117987  14.365   1.459   5.975
38716SOL    HW217988  14.506   1.500   5.937
38717SOL     OW17989   7.563   0.726   4.970
38717SOL    HW117990   7.518   0.739   5.053
38717SOL    HW217991   7.642   0.780   4.977
38718SOL     OW17992   0.295  14.809   2.001
38718SOL    HW117993   0.387  14.792   1.979
38718SOL    HW217994   0.261  14.724   2.029
38719SOL     OW17995   8.034   7.920   8.807
38719SOL    HW117996   7.975   7.975   8.755
38719SOL    HW217997   8.081   7.981   8.862
38720SOL     OW17998   2.007   8.812   6.740
38720SOL    HW117999   1.947   8.863   6.794
38720SOL    HW218000   2.059   8.761   6.802
38721SOL     OW18001   2.387   1.078  12.099
38721SOL    HW118002   2.335   1.040  12.028
38721SOL    HW218003   2.379   1.014  12.170
38722SOL     OW18004   7.700  10.310   4.911
38722SOL    HW118005   7.623  10.258   4.933
38722SOL    HW218006   7.665  10.394   4.881
38723SOL     OW18007  10.796  13.861   6.510
38723SOL    HW118008  10.781  13.769   6.533
38723SOL    HW218009  10.857  13.892   6.577
38724SOL     OW18010   0.860   8.605   1.181
38724SOL    HW118011   0.875   8.581   1.273
38724SOL    HW218012   0.768   8.584   1.166
38725SOL     OW18013   7.329  12.777   2.990
38725SOL    HW118014   7.249  12.813   2.951
38725SOL    HW218015   7.400  12.825   2.947
38726SOL     OW18016   9.498   0.575   7.287
38726SOL    HW118017   9.502   0.665   7.319
38726SOL    HW218018   9.534   0.523   7.359
38727SOL     OW18019   3.539  11.982   3.825
38727SOL    HW118020   3.570  11.943   3.743
38727SOL    HW218021   3.481  11.916   3.863
38728SOL     OW18022   9.112  12.352   3.173
38728SOL    HW118023   9.132  12.369   3.265
38728SOL    HW218024   9.188  12.386   3.125
38729SOL     OW18025   5.972   6.773   5.849
38729SOL    HW118026   5.995   6.690   5.806
38729SOL    HW218027   5.945   6.830   5.777
38730SOL     OW18028   6.489   1.635   5.847
38730SOL    HW118029   6.544   1.691   5.793
38730SOL    HW218030   6.534   1.551   5.850
38731SOL     OW18031   8.925   2.924   4.997
38731SOL    HW118032   8.871   2.905   4.921
38731SOL    HW218033   8.944   3.018   4.990
38732SOL     OW18034   8.685   2.344  11.328
38732SOL    HW118035   8.750   2.368  11.394
38732SOL    HW218036   8.638   2.426  11.311
38733SOL     OW18037   7.540   6.740   6.326
38733SOL    HW118038   7.553   6.813   6.387
38733SOL    HW218039   7.544   6.662   6.382
38734SOL     OW18040   1.228   8.633   5.922
38734SOL    HW118041   1.265   8.577   5.854
38734SOL    HW218042   1.304   8.674   5.963
38735SOL     OW18043   0.291  12.346   7.605
38735SOL    HW118044   0.386  12.356   7.590
38735SOL    HW218045   0.263  12.287   7.535
38736SOL     OW18046   8.474  10.821  10.139
38736SOL    HW118047   8.551  10.877  10.147
38736SOL    HW218048   8.461  10.786  10.227
38737SOL     OW18049   1.379   1.308   4.928
38737SOL    HW118050   1.317   1.238   4.907
38737SOL    HW218051   1.405   1.344   4.842
38738SOL     OW18052  13.978   0.311   3.779
38738SOL    HW118053  14.070   0.284   3.783
38738SOL    HW218054  13.932   0.245   3.831
38739SOL     OW18055   5.955   6.129   6.850
38739SOL    HW118056   5.933   6.079   6.928
38739SOL    HW218057   6.028   6.082   6.810
38740SOL     OW18058   0.432   4.553   0.200
38740SOL    HW118059   0.434   4.458   0.194
38740SOL    HW218060   0.508   4.582   0.149
38741SOL     OW18061   7.029   7.471   2.831
38741SOL    HW118062   7.099   7.463   2.766
38741SOL    HW218063   7.033   7.388   2.879
38742SOL     OW18064  12.907   2.360   1.674
38742SOL    HW118065  12.980   2.334   1.730
38742SOL    HW218066  12.942   2.353   1.585
38743SOL     OW18067  13.002  13.829  11.979
38743SOL    HW118068  12.947  13.865  11.911
38743SOL    HW218069  13.077  13.791  11.932
38744SOL     OW18070  13.496   9.271   5.236
38744SOL    HW118071  13.536   9.298   5.319
38744SOL    HW218072  13.441   9.196   5.259
38745SOL     OW18073  13.502   6.184   7.282
38745SOL    HW118074  13.571   6.232   7.328
38745SOL    HW218075  13.481   6.239   7.207
38746SOL     OW18076   4.439   3.997  11.978
38746SOL    HW118077   4.490   4.067  12.019
38746SOL    HW218078   4.377   4.042  11.921
38747SOL     OW18079  10.408   9.650  12.733
38747SOL    HW118080  10.446   9.634  12.646
38747SOL    HW218081  10.316   9.624  12.724
38748SOL     OW18082   2.714  11.047  14.087
38748SOL    HW118083   2.764  10.987  14.032
38748SOL    HW218084   2.781  11.092  14.140
38749SOL     OW18085   9.938   0.234  11.419
38749SOL    HW118086   9.893   0.150  11.423
38749SOL    HW218087   9.906   0.275  11.338
38750SOL     OW18088   0.919   3.805   1.863
38750SOL    HW118089   0.922   3.893   1.900
38750SOL    HW218090   0.899   3.817   1.771
38751SOL     OW18091   4.910   9.322  12.243
38751SOL    HW118092   4.972   9.358  12.306
38751SOL    HW218093   4.848   9.393  12.226
38752SOL     OW18094   8.492   0.180  11.506
38752SOL    HW118095   8.583   0.205  11.521
38752SOL    HW218096   8.450   0.260  11.477
38753SOL     OW18097   2.901   9.480   3.113
38753SOL    HW118098   2.928   9.561   3.070
38753SOL    HW218099   2.898   9.502   3.206
38754SOL     OW18100   6.027   5.150  13.371
38754SOL    HW118101   6.093   5.152  13.441
38754SOL    HW218102   5.944   5.139  13.418
38755SOL     OW18103   0.487  13.374  10.978
38755SOL    HW118104   0.440  13.308  10.926
38755SOL    HW218105   0.464  13.457  10.939
38756SOL     OW18106  12.770   2.900   5.019
38756SOL    HW118107  12.719   2.830   5.058
38756SOL    HW218108  12.859   2.886   5.051
38757SOL     OW18109   0.032   4.820  14.327
38757SOL    HW118110   0.113   4.774  14.349
38757SOL    HW218111   0.056   4.912  14.330
38758SOL     OW18112   6.414  14.204   0.498
38758SOL    HW118113   6.475  14.241   0.562
38758SOL    HW218114   6.401  14.274   0.434
38759SOL     OW18115   9.636   7.787   3.725
38759SOL    HW118116   9.574   7.729   3.769
38759SOL    HW218117   9.719   7.739   3.726
38760SOL     OW18118  10.244   6.610  13.730
38760SOL    HW118119  10.177   6.677  13.714
38760SOL    HW218120  10.200   6.544  13.783
38761SOL     OW18121   2.045   2.744   2.766
38761SOL    HW118122   2.020   2.816   2.824
38761SOL    HW218123   2.117   2.701   2.811
38762SOL     OW18124   8.113  12.355   9.647
38762SOL    HW118125   8.163  12.406   9.710
38762SOL    HW218126   8.132  12.264   9.668
38763SOL     OW18127   4.603   7.728  11.734
38763SOL    HW118128   4.694   7.697  11.739
38763SOL    HW218129   4.552   7.650  11.716
38764SOL     OW18130  12.872  14.092   5.209
38764SOL    HW118131  12.905  14.155   5.274
38764SOL    HW218132  12.947  14.038   5.187
38765SOL     OW18133   9.289  14.202   2.926
38765SOL    HW118134   9.257  14.292   2.932
38765SOL    HW218135   9.234  14.153   2.988
38766SOL     OW18136   0.607   2.741  13.604
38766SOL    HW118137   0.527   2.741  13.655
38766SOL    HW218138   0.675   2.715  13.666
38767SOL     OW18139  11.182  11.470  10.750
38767SOL    HW118140  11.191  11.561  10.723
38767SOL    HW218141  11.093  11.463  10.786
38768SOL     OW18142   1.635   4.857   9.747
38768SOL    HW118143   1.621   4.762   9.749
38768SOL    HW218144   1.724   4.869   9.782
38769SOL     OW18145   4.097   1.153  12.928
38769SOL    HW118146   4.088   1.235  12.879
38769SOL    HW218147   4.064   1.174  13.016
38770SOL     OW18148   5.030  12.422   8.070
38770SOL    HW118149   4.975  12.488   8.028
38770SOL    HW218150   5.118  12.439   8.037
38771SOL     OW18151   3.541   4.154  12.809
38771SOL    HW118152   3.543   4.180  12.717
38771SOL    HW218153   3.572   4.063  12.809
38772SOL     OW18154   0.074   4.177   4.045
38772SOL    HW118155   0.100   4.240   3.977
38772SOL    HW218156  14.870   4.211   4.077
38773SOL     OW18157   6.810  11.791   3.385
38773SOL    HW118158   6.764  11.846   3.449
38773SOL    HW218159   6.783  11.825   3.300
38774SOL     OW18160  12.657  13.760   5.347
38774SOL    HW118161  12.617  13.693   5.404
38774SOL    HW218162  12.751  13.749   5.359
38775SOL     OW18163  13.176   6.783   4.360
38775SOL    HW118164  13.094   6.738   4.380
38775SOL    HW218165  13.150   6.864   4.317
38776SOL     OW18166  12.763  10.901  12.089
38776SOL    HW118167  12.745  10.823  12.036
38776SOL    HW218168  12.722  10.883  12.174
38777SOL     OW18169   0.465   1.329  13.766
38777SOL    HW118170   0.517   1.394  13.719
38777SOL    HW218171   0.528   1.262  13.793
38778SOL     OW18172   6.886  13.013   6.683
38778SOL    HW118173   6.966  13.062   6.701
38778SOL    HW218174   6.825  13.079   6.650
38779SOL     OW18175  10.220  14.462   2.852
38779SOL    HW118176  10.205  14.372   2.825
38779SOL    HW218177  10.253  14.505   2.773
38780SOL     OW18178   6.890   7.121   7.073
38780SOL    HW118179   6.848   7.123   6.988
38780SOL    HW218180   6.828   7.076   7.130
38781SOL     OW18181   4.876   7.767   4.216
38781SOL    HW118182   4.903   7.825   4.146
38781SOL    HW218183   4.815   7.706   4.175
38782SOL     OW18184   5.222  14.446   0.523
38782SOL    HW118185   5.277  14.487   0.589
38782SOL    HW218186   5.241  14.493   0.442
38783SOL     OW18187  13.216   5.464   2.852
38783SOL    HW118188  13.298   5.510   2.871
38783SOL    HW218189  13.148   5.530   2.865
38784SOL     OW18190   6.241   7.866   6.511
38784SOL    HW118191   6.279   7.898   6.593
38784SOL    HW218192   6.272   7.776   6.503
38785SOL     OW18193   9.398   9.136   1.699
38785SOL    HW118194   9.480   9.112   1.656
38785SOL    HW218195   9.421   9.210   1.755
38786SOL     OW18196   3.231   4.810   5.172
38786SOL    HW118197   3.145   4.772   5.154
38786SOL    HW218198   3.238   4.884   5.113
38787SOL     OW18199  13.823   1.221  13.123
38787SOL    HW118200  13.758   1.152  13.108
38787SOL    HW218201  13.837   1.219  13.218
38788SOL     OW18202  13.778   7.709   9.245
38788SOL    HW118203  13.778   7.759   9.163
38788SOL    HW218204  13.834   7.633   9.227
38789SOL     OW18205   4.953   6.542   5.261
38789SOL    HW118206   4.964   6.496   5.344
38789SOL    HW218207   4.859   6.536   5.242
38790SOL     OW18208   1.585  10.775   6.546
38790SOL    HW118209   1.525  10.839   6.585
38790SOL    HW218210   1.650  10.758   6.614
38791SOL     OW18211   0.926  14.835   9.577
38791SOL    HW118212   0.994  14.768   9.571
38791SOL    HW218213   0.961   0.029   9.527
38792SOL     OW18214   6.263  12.199  10.859
38792SOL    HW118215   6.324  12.162  10.795
38792SOL    HW218216   6.218  12.123  10.896
38793SOL     OW18217   5.760  13.660   6.652
38793SOL    HW118218   5.696  13.728   6.631
38793SOL    HW218219   5.770  13.611   6.571
38794SOL     OW18220   1.155  11.864   2.282
38794SOL    HW118221   1.169  11.956   2.258
38794SOL    HW218222   1.146  11.819   2.199
38795SOL     OW18223  13.766   3.056  14.608
38795SOL    HW118224  13.822   3.105  14.548
38795SOL    HW218225  13.795   2.965  14.599
38796SOL     OW18226  11.438  10.865  14.792
38796SOL    HW118227  11.446  10.846   0.006
38796SOL    HW218228  11.348  10.843  14.770
38797SOL     OW18229   2.672  11.626   3.068
38797SOL    HW118230   2.617  11.676   3.007
38797SOL    HW218231   2.738  11.585   3.014
38798SOL     OW18232  12.746   8.313  14.188
38798SOL    HW118233  12.790   8.315  14.104
38798SOL    HW218234  12.813   8.339  14.251
38799SOL     OW18235   8.803   3.231  14.070
38799SOL    HW118236   8.842   3.163  14.015
38799SOL    HW218237   8.743   3.183  14.127
38800SOL     OW18238   3.021   9.019   6.338
38800SOL    HW118239   2.964   8.991   6.410
38800SOL    HW218240   2.964   9.071   6.282
38801SOL     OW18241  13.071   1.835   4.435
38801SOL    HW118242  13.075   1.825   4.340
38801SOL    HW218243  12.987   1.878   4.452
38802SOL     OW18244  10.233  10.708   6.417
38802SOL    HW118245  10.160  10.661   6.457
38802SOL    HW218246  10.296  10.721   6.488
38803SOL     OW18247   8.168   6.486  12.007
38803SOL    HW118248   8.250   6.517  11.969
38803SOL    HW218249   8.193   6.448  12.091
38804SOL     OW18250   6.301   9.201   8.411
38804SOL    HW118251   6.213   9.233   8.389
38804SOL    HW218252   6.359   9.274   8.389
38805SOL     OW18253   4.310  10.483   3.341
38805SOL    HW118254   4.273  10.411   3.392
38805SOL    HW218255   4.281  10.562   3.387
38806SOL     OW18256   9.433   1.327  12.655
38806SOL    HW118257   9.511   1.382  12.667
38806SOL    HW218258   9.395   1.358  12.573
38807SOL     OW18259   6.181  11.853   1.392
38807SOL    HW118260   6.206  11.767   1.356
38807SOL    HW218261   6.173  11.910   1.316
38808SOL     OW18262   0.620  10.237   0.353
38808SOL    HW118263   0.668  10.305   0.400
38808SOL    HW218264   0.635  10.158   0.404
38809SOL     OW18265   3.708  14.369   2.670
38809SOL    HW118266   3.730  14.353   2.762
38809SOL    HW218267   3.667  14.456   2.670
38810SOL     OW18268   5.310  13.679  10.899
38810SOL    HW118269   5.331  13.587  10.890
38810SOL    HW218270   5.354  13.722  10.826
38811SOL     OW18271  11.929  10.246  12.965
38811SOL    HW118272  12.023  10.257  12.960
38811SOL    HW218273  11.905  10.283  13.050
38812SOL     OW18274   5.843  11.084   0.359
38812SOL    HW118275   5.778  11.056   0.423
38812SOL    HW218276   5.819  11.037   0.279
38813SOL     OW18277   9.616   0.981   1.310
38813SOL    HW118278   9.627   1.057   1.253
38813SOL    HW218279   9.585   0.911   1.252
38814SOL     OW18280   7.428   7.080   6.034
38814SOL    HW118281   7.494   7.016   6.059
38814SOL    HW218282   7.347   7.047   6.073
38815SOL     OW18283   4.983   8.798   5.610
38815SOL    HW118284   4.919   8.741   5.652
38815SOL    HW218285   4.938   8.883   5.602
38816SOL     OW18286   9.766   4.640   9.235
38816SOL    HW118287   9.781   4.664   9.143
38816SOL    HW218288   9.728   4.552   9.231
38817SOL     OW18289   5.712  11.521   8.692
38817SOL    HW118290   5.629  11.553   8.656
38817SOL    HW218291   5.749  11.467   8.622
38818SOL     OW18292  10.824  14.087  13.475
38818SOL    HW118293  10.874  14.015  13.513
38818SOL    HW218294  10.774  14.123  13.548
38819SOL     OW18295   1.898   3.687   8.734
38819SOL    HW118296   1.964   3.755   8.720
38819SOL    HW218297   1.826   3.711   8.677
38820SOL     OW18298   3.357  11.142   4.196
38820SOL    HW118299   3.404  11.182   4.269
38820SOL    HW218300   3.395  11.054   4.189
38821SOL     OW18301   6.967   0.804   0.302
38821SOL    HW118302   6.973   0.850   0.386
38821SOL    HW218303   6.882   0.760   0.306
38822SOL     OW18304   0.371   9.840   2.329
38822SOL    HW118305   0.343   9.767   2.275
38822SOL    HW218306   0.445   9.805   2.380
38823SOL     OW18307  10.913   9.978   2.212
38823SOL    HW118308  10.895   9.966   2.305
38823SOL    HW218309  10.977  10.049   2.209
38824SOL     OW18310   8.579  10.222  10.502
38824SOL    HW118311   8.577  10.135  10.542
38824SOL    HW218312   8.490  10.256  10.513
38825SOL     OW18313   8.879   2.444  11.066
38825SOL    HW118314   8.819   2.372  11.089
38825SOL    HW218315   8.933   2.456  11.144
38826SOL     OW18316   6.970  10.111   4.627
38826SOL    HW118317   6.938  10.068   4.548
38826SOL    HW218318   6.959  10.205   4.609
38827SOL     OW18319   9.543   9.874   8.138
38827SOL    HW118320   9.545   9.968   8.153
38827SOL    HW218321   9.456   9.846   8.165
38828SOL     OW18322  10.791  13.904   9.824
38828SOL    HW118323  10.830  13.820   9.799
38828SOL    HW218324  10.768  13.945   9.741
38829SOL     OW18325   1.394  10.330   9.254
38829SOL    HW118326   1.472  10.382   9.272
38829SOL    HW218327   1.367  10.298   9.340
38830SOL     OW18328  14.277   3.161   3.318
38830SOL    HW118329  14.241   3.180   3.231
38830SOL    HW218330  14.366   3.196   3.315
38831SOL     OW18331  13.707  13.239   0.038
38831SOL    HW118332  13.728  13.146   0.043
38831SOL    HW218333  13.679  13.263   0.127
38832SOL     OW18334   2.712   2.455  11.793
38832SOL    HW118335   2.682   2.482  11.879
38832SOL    HW218336   2.781   2.391  11.810
38833SOL     OW18337   9.572   7.916   9.412
38833SOL    HW118338   9.563   7.832   9.457
38833SOL    HW218339   9.599   7.892   9.323
38834SOL     OW18340   1.113   4.973   6.287
38834SOL    HW118341   1.198   5.018   6.278
38834SOL    HW218342   1.086   4.993   6.377
38835SOL     OW18343  10.846   3.539   8.942
38835SOL    HW118344  10.917   3.588   8.984
38835SOL    HW218345  10.863   3.448   8.964
38836SOL     OW18346   6.093   2.424  12.208
38836SOL    HW118347   6.012   2.458  12.171
38836SOL    HW218348   6.071   2.334  12.233
38837SOL     OW18349   0.591   4.675   2.409
38837SOL    HW118350   0.572   4.585   2.435
38837SOL    HW218351   0.505   4.714   2.394
38838SOL     OW18352   5.617  13.559   2.336
38838SOL    HW118353   5.650  13.614   2.407
38838SOL    HW218354   5.552  13.613   2.292
38839SOL     OW18355   9.888   5.027   3.338
38839SOL    HW118356   9.869   4.964   3.269
38839SOL    HW218357   9.838   4.997   3.413
38840SOL     OW18358   3.113  13.493   9.237
38840SOL    HW118359   3.116  13.480   9.332
38840SOL    HW218360   3.143  13.410   9.200
38841SOL     OW18361   9.906   5.335   7.097
38841SOL    HW118362   9.968   5.293   7.038
38841SOL    HW218363   9.820   5.308   7.065
38842SOL     OW18364   5.669   4.693   9.170
38842SOL    HW118365   5.617   4.724   9.243
38842SOL    HW218366   5.730   4.764   9.152
38843SOL     OW18367  14.859   3.783   5.383
38843SOL    HW118368   0.051   3.839   5.413
38843SOL    HW218369  14.853   3.800   5.289
38844SOL     OW18370   5.794   1.850   1.195
38844SOL    HW118371   5.824   1.911   1.262
38844SOL    HW218372   5.869   1.841   1.136
38845SOL     OW18373   1.509   9.152   8.562
38845SOL    HW118374   1.494   9.175   8.470
38845SOL    HW218375   1.601   9.127   8.566
38846SOL     OW18376  14.760   5.324   9.723
38846SOL    HW118377  14.830   5.259   9.717
38846SOL    HW218378  14.686   5.282   9.680
38847SOL     OW18379  11.720   3.653   2.965
38847SOL    HW118380  11.691   3.737   3.001
38847SOL    HW218381  11.806   3.670   2.928
38848SOL     OW18382   7.906   9.468  13.643
38848SOL    HW118383   7.956   9.439  13.720
38848SOL    HW218384   7.897   9.562  13.655
38849SOL     OW18385  12.303  13.618  13.364
38849SOL    HW118386  12.232  13.677  13.339
38849SOL    HW218387  12.264  13.531  13.360
38850SOL     OW18388  10.584   0.244   6.103
38850SOL    HW118389  10.642   0.208   6.170
38850SOL    HW218390  10.502   0.260   6.149
38851SOL     OW18391   4.949   0.526  11.217
38851SOL    HW118392   5.012   0.524  11.289
38851SOL    HW218393   4.914   0.615  11.218
38852SOL     OW18394  10.050   3.012   2.093
38852SOL    HW118395  10.086   3.028   2.006
38852SOL    HW218396  10.000   3.091   2.114
38853SOL     OW18397  12.977   5.708  10.952
38853SOL    HW118398  12.988   5.698  10.857
38853SOL    HW218399  13.049   5.659  10.990
38854SOL     OW18400   1.256   6.399  10.823
38854SOL    HW118401   1.262   6.451  10.903
38854SOL    HW218402   1.290   6.313  10.848
38855SOL     OW18403  13.528  11.297   4.705
38855SOL    HW118404  13.602  11.249   4.668
38855SOL    HW218405  13.486  11.339   4.630
38856SOL     OW18406   8.344   9.137   6.585
38856SOL    HW118407   8.338   9.104   6.674
38856SOL    HW218408   8.403   9.212   6.590
38857SOL     OW18409   7.168   1.503   1.638
38857SOL    HW118410   7.215   1.586   1.648
38857SOL    HW218411   7.205   1.463   1.559
38858SOL     OW18412  14.617   6.777  12.773
38858SOL    HW118413  14.703   6.807  12.743
38858SOL    HW218414  14.568   6.858  12.790
38859SOL     OW18415   5.960   7.197  12.772
38859SOL    HW118416   6.041   7.168  12.731
38859SOL    HW218417   5.972   7.291  12.787
38860SOL     OW18418   5.190   6.315   9.368
38860SOL    HW118419   5.151   6.330   9.454
38860SOL    HW218420   5.124   6.266   9.320
38861SOL     OW18421   8.111   7.443  12.842
38861SOL    HW118422   8.110   7.523  12.789
38861SOL    HW218423   8.120   7.474  12.932
38862SOL     OW18424   0.331   7.859   8.985
38862SOL    HW118425   0.273   7.923   8.943
38862SOL    HW218426   0.273   7.787   9.009
38863SOL     OW18427   0.144   6.669   1.904
38863SOL    HW118428   0.184   6.643   1.821
38863SOL    HW218429   0.187   6.752   1.926
38864SOL     OW18430   9.405  13.597   2.833
38864SOL    HW118431   9.485  13.563   2.793
38864SOL    HW218432   9.407  13.564   2.923
38865SOL     OW18433   5.416   7.873  12.077
38865SOL    HW118434   5.437   7.917  12.160
38865SOL    HW218435   5.467   7.792  12.080
38866SOL     OW18436   9.509   9.918   6.041
38866SOL    HW118437   9.501   9.957   6.129
38866SOL    HW218438   9.423   9.880   6.024
38867SOL     OW18439  11.113   3.091  12.171
38867SOL    HW118440  11.156   3.028  12.229
38867SOL    HW218441  11.021   3.088  12.198
38868SOL     OW18442  11.470  12.253   8.194
38868SOL    HW118443  11.537  12.192   8.225
38868SOL    HW218444  11.431  12.210   8.118
38869SOL     OW18445   0.379   9.425   8.668
38869SOL    HW118446   0.435   9.398   8.741
38869SOL    HW218447   0.424   9.499   8.628
38870SOL     OW18448   1.320  11.486   0.891
38870SOL    HW118449   1.266  11.451   0.820
38870SOL    HW218450   1.355  11.568   0.857
38871SOL     OW18451   5.980  10.336  12.112
38871SOL    HW118452   6.001  10.246  12.089
38871SOL    HW218453   5.971  10.381  12.028
38872SOL     OW18454   3.941   5.001   8.461
38872SOL    HW118455   3.929   5.095   8.448
38872SOL    HW218456   3.964   4.967   8.375
38873SOL     OW18457   9.816   1.413   3.132
38873SOL    HW118458   9.874   1.348   3.092
38873SOL    HW218459   9.791   1.470   3.059
38874SOL     OW18460   3.096   5.533   6.002
38874SOL    HW118461   3.102   5.568   5.914
38874SOL    HW218462   3.050   5.601   6.052
38875SOL     OW18463   9.911  11.069   1.196
38875SOL    HW118464   9.978  11.056   1.129
38875SOL    HW218465   9.950  11.130   1.258
38876SOL     OW18466   7.483  13.118   0.747
38876SOL    HW118467   7.443  13.036   0.720
38876SOL    HW218468   7.519  13.100   0.834
38877SOL     OW18469   5.181   7.346   7.073
38877SOL    HW118470   5.203   7.337   7.166
38877SOL    HW218471   5.128   7.425   7.069
38878SOL     OW18472  10.899   7.160   7.954
38878SOL    HW118473  10.927   7.244   7.991
38878SOL    HW218474  10.816   7.142   7.998
38879SOL     OW18475  10.784   1.058   2.965
38879SOL    HW118476  10.850   1.126   2.953
38879SOL    HW218477  10.834   0.982   2.997
38880SOL     OW18478   3.709   5.956  10.698
38880SOL    HW118479   3.796   5.918  10.703
38880SOL    HW218480   3.651   5.881  10.683
38881SOL     OW18481  11.781   0.532   5.094
38881SOL    HW118482  11.806   0.532   5.186
38881SOL    HW218483  11.730   0.613   5.083
38882SOL     OW18484   7.769  13.837  10.760
38882SOL    HW118485   7.759  13.792  10.676
38882SOL    HW218486   7.679  13.856  10.786
38883SOL     OW18487   8.434  12.141   3.374
38883SOL    HW118488   8.459  12.116   3.463
38883SOL    HW218489   8.500  12.205   3.348
38884SOL     OW18490   9.196   8.058   1.826
38884SOL    HW118491   9.236   8.044   1.912
38884SOL    HW218492   9.111   8.098   1.845
38885SOL     OW18493   6.398   2.363  11.806
38885SOL    HW118494   6.481   2.317  11.805
38885SOL    HW218495   6.411   2.437  11.747
38886SOL     OW18496   1.816   2.853   7.858
38886SOL    HW118497   1.794   2.765   7.887
38886SOL    HW218498   1.910   2.861   7.873
38887SOL     OW18499   3.440   0.078   9.093
38887SOL    HW118500   3.382   0.154   9.085
38887SOL    HW218501   3.380   0.003   9.096
38888SOL     OW18502   3.251  10.187   5.029
38888SOL    HW118503   3.294  10.155   5.109
38888SOL    HW218504   3.308  10.257   4.998
38889SOL     OW18505  10.573  10.405  12.955
38889SOL    HW118506  10.511  10.350  12.907
38889SOL    HW218507  10.642  10.345  12.984
38890SOL     OW18508  10.691   2.497   1.738
38890SOL    HW118509  10.768   2.451   1.772
38890SOL    HW218510  10.617   2.453   1.778
38891SOL     OW18511   4.653  12.102  10.594
38891SOL    HW118512   4.671  12.011  10.568
38891SOL    HW218513   4.739  12.144  10.592
38892SOL     OW18514   1.703   4.326  10.982
38892SOL    HW118515   1.667   4.410  10.951
38892SOL    HW218516   1.667   4.261  10.921
38893SOL     OW18517   0.145   5.808  14.338
38893SOL    HW118518   0.239   5.794  14.339
38893SOL    HW218519   0.131   5.876  14.272
38894SOL     OW18520   4.095   1.305   0.558
38894SOL    HW118521   4.103   1.300   0.653
38894SOL    HW218522   4.034   1.235   0.535
38895SOL     OW18523  12.466   5.335  13.653
38895SOL    HW118524  12.404   5.262  13.661
38895SOL    HW218525  12.530   5.305  13.588
38896SOL     OW18526   3.849  10.592  13.171
38896SOL    HW118527   3.834  10.502  13.198
38896SOL    HW218528   3.844  10.643  13.253
38897SOL     OW18529   8.352   3.776   7.626
38897SOL    HW118530   8.353   3.698   7.681
38897SOL    HW218531   8.265   3.814   7.639
38898SOL     OW18532   2.742   4.794   3.536
38898SOL    HW118533   2.727   4.725   3.471
38898SOL    HW218534   2.694   4.870   3.503
38899SOL     OW18535  12.878  10.100  10.310
38899SOL    HW118536  12.958  10.065  10.349
38899SOL    HW218537  12.878  10.063  10.221
38900SOL     OW18538   3.400  11.320   8.362
38900SOL    HW118539   3.471  11.257   8.369
38900SOL    HW218540   3.335  11.278   8.305
38901SOL     OW18541   0.463   5.856  10.846
38901SOL    HW118542   0.429   5.768  10.865
38901SOL    HW218543   0.514   5.845  10.765
38902SOL     OW18544   7.806   6.753   9.418
38902SOL    HW118545   7.777   6.832   9.464
38902SOL    HW218546   7.901   6.763   9.410
38903SOL     OW18547   9.003  12.837   3.312
38903SOL    HW118548   9.095  12.846   3.337
38903SOL    HW218549   8.955  12.881   3.382
38904SOL     OW18550   5.916  11.525   5.568
38904SOL    HW118551   6.008  11.530   5.596
38904SOL    HW218552   5.873  11.596   5.615
38905SOL     OW18553   6.395  13.826  13.861
38905SOL    HW118554   6.470  13.821  13.920
38905SOL    HW218555   6.337  13.756  13.891
38906SOL     OW18556   3.113   2.924   8.426
38906SOL    HW118557   3.192   2.930   8.480
38906SOL    HW218558   3.073   3.011   8.433
38907SOL     OW18559  13.252  11.578   8.080
38907SOL    HW118560  13.274  11.640   8.149
38907SOL    HW218561  13.168  11.608   8.047
38908SOL     OW18562   4.333   3.706  14.622
38908SOL    HW118563   4.411   3.686  14.570
38908SOL    HW218564   4.298   3.786  14.583
38909SOL     OW18565   1.707   2.233   4.482
38909SOL    HW118566   1.673   2.216   4.570
38909SOL    HW218567   1.792   2.188   4.480
38910SOL     OW18568   7.742  12.932  10.327
38910SOL    HW118569   7.747  12.955  10.420
38910SOL    HW218570   7.653  12.900  10.315
38911SOL     OW18571   7.232   2.819   5.812
38911SOL    HW118572   7.243   2.819   5.717
38911SOL    HW218573   7.137   2.813   5.826
38912SOL     OW18574  11.000   8.632   6.504
38912SOL    HW118575  11.036   8.611   6.591
38912SOL    HW218576  10.915   8.588   6.502
38913SOL     OW18577   4.534   0.878   9.398
38913SOL    HW118578   4.564   0.833   9.477
38913SOL    HW218579   4.498   0.809   9.342
38914SOL     OW18580   0.162   0.383   0.270
38914SOL    HW118581   0.133   0.456   0.216
38914SOL    HW218582   0.081   0.341   0.299
38915SOL     OW18583  11.432   6.544   4.344
38915SOL    HW118584  11.350   6.584   4.370
38915SOL    HW218585  11.410   6.452   4.328
38916SOL     OW18586   5.262  11.566   4.447
38916SOL    HW118587   5.182  11.595   4.490
38916SOL    HW218588   5.282  11.482   4.488
38917SOL     OW18589  12.701  12.684  10.776
38917SOL    HW118590  12.772  12.620  10.773
38917SOL    HW218591  12.623  12.635  10.749
38918SOL     OW18592  10.162  14.679   5.937
38918SOL    HW118593  10.254  14.687   5.964
38918SOL    HW218594  10.113  14.687   6.019
38919SOL     OW18595   7.543  12.305  12.372
38919SOL    HW118596   7.519  12.215  12.391
38919SOL    HW218597   7.549  12.309  12.276
38920SOL     OW18598   8.259   0.459   3.310
38920SOL    HW118599   8.269   0.520   3.238
38920SOL    HW218600   8.167   0.432   3.307
38921SOL     OW18601   1.637   8.952  12.558
38921SOL    HW118602   1.622   8.858  12.571
38921SOL    HW218603   1.578   8.976  12.486
38922SOL     OW18604   2.435  13.593   3.200
38922SOL    HW118605   2.407  13.624   3.286
38922SOL    HW218606   2.526  13.565   3.213
38923SOL     OW18607   1.272  12.152   6.031
38923SOL    HW118608   1.221  12.076   6.059
38923SOL    HW218609   1.233  12.225   6.079
38924SOL     OW18610  10.720  13.787  14.037
38924SOL    HW118611  10.725  13.871  14.083
38924SOL    HW218612  10.772  13.727  14.091
38925SOL     OW18613   5.495   6.824  12.829
38925SOL    HW118614   5.549   6.901  12.849
38925SOL    HW218615   5.454   6.844  12.745
38926SOL     OW18616   4.503   4.071   6.111
38926SOL    HW118617   4.537   3.982   6.101
38926SOL    HW218618   4.410   4.064   6.091
38927SOL     OW18619  14.464  10.660   1.989
38927SOL    HW118620  14.371  10.637   1.979
38927SOL    HW218621  14.510  10.596   1.936
38928SOL     OW18622   5.001  13.285   6.915
38928SOL    HW118623   4.921  13.245   6.882
38928SOL    HW218624   5.063  13.279   6.843
38929SOL     OW18625   2.930   4.842  12.041
38929SOL    HW118626   2.884   4.759  12.028
38929SOL    HW218627   3.017   4.827  12.004
38930SOL     OW18628   6.688   9.880   2.325
38930SOL    HW118629   6.782   9.881   2.341
38930SOL    HW218630   6.652   9.943   2.387
38931SOL     OW18631  10.436   6.286   6.740
38931SOL    HW118632  10.386   6.261   6.662
38931SOL    HW218633  10.438   6.206   6.793
38932SOL     OW18634   2.206   3.759   8.958
38932SOL    HW118635   2.172   3.747   8.869
38932SOL    HW218636   2.300   3.768   8.947
38933SOL     OW18637   3.633   7.706   3.874
38933SOL    HW118638   3.643   7.704   3.779
38933SOL    HW218639   3.556   7.652   3.891
38934SOL     OW18640   1.956  12.479   0.821
38934SOL    HW118641   1.900  12.549   0.855
38934SOL    HW218642   1.895  12.416   0.783
38935SOL     OW18643   4.945   9.355   4.732
38935SOL    HW118644   5.023   9.403   4.760
38935SOL    HW218645   4.898   9.336   4.813
38936SOL     OW18646  13.917   7.282   7.536
38936SOL    HW118647  13.915   7.277   7.440
38936SOL    HW218648  13.998   7.330   7.555
38937SOL     OW18649   9.171   4.526   4.641
38937SOL    HW118650   9.219   4.572   4.710
38937SOL    HW218651   9.184   4.433   4.661
38938SOL     OW18652   0.260  12.476   6.146
38938SOL    HW118653   0.352  12.503   6.141
38938SOL    HW218654   0.260  12.401   6.205
38939SOL     OW18655   6.585  12.104   0.905
38939SOL    HW118656   6.613  12.020   0.941
38939SOL    HW218657   6.666  12.148   0.879
38940SOL     OW18658  13.367   2.987  13.379
38940SOL    HW118659  13.290   2.976  13.323
38940SOL    HW218660  13.342   3.055  13.441
38941SOL     OW18661   4.820   6.718  13.858
38941SOL    HW118662   4.769   6.730  13.778
38941SOL    HW218663   4.910   6.706  13.827
38942SOL     OW18664  13.131  10.918   2.897
38942SOL    HW118665  13.057  10.869   2.932
38942SOL    HW218666  13.133  10.895   2.804
38943SOL     OW18667   0.852   8.780   7.671
38943SOL    HW118668   0.829   8.695   7.708
38943SOL    HW218669   0.810   8.782   7.586
38944SOL     OW18670   6.740   8.678  13.384
38944SOL    HW118671   6.686   8.700  13.460
38944SOL    HW218672   6.742   8.582  13.383
38945SOL     OW18673   1.153   2.300   2.100
38945SOL    HW118674   1.118   2.380   2.141
38945SOL    HW218675   1.128   2.308   2.008
38946SOL     OW18676   7.396   3.556  12.821
38946SOL    HW118677   7.477   3.506  12.833
38946SOL    HW218678   7.356   3.558  12.907
38947SOL     OW18679   5.681   4.724  14.710
38947SOL    HW118680   5.654   4.636  14.685
38947SOL    HW218681   5.615   4.753  14.773
38948SOL     OW18682  14.678  13.785   7.490
38948SOL    HW118683  14.624  13.707   7.476
38948SOL    HW218684  14.622  13.858   7.463
38949SOL     OW18685   2.693  11.826   2.685
38949SOL    HW118686   2.636  11.867   2.620
38949SOL    HW218687   2.781  11.855   2.661
38950SOL     OW18688   4.771   5.622   6.838
38950SOL    HW118689   4.865   5.608   6.825
38950SOL    HW218690   4.754   5.584   6.924
38951SOL     OW18691   5.829  10.953   0.071
38951SOL    HW118692   5.924  10.938   0.068
38951SOL    HW218693   5.808  10.987  14.864
38952SOL     OW18694  11.339  13.621   8.463
38952SOL    HW118695  11.369  13.588   8.548
38952SOL    HW218696  11.285  13.551   8.427
38953SOL     OW18697  10.059  10.490   6.509
38953SOL    HW118698  10.057  10.446   6.594
38953SOL    HW218699  10.003  10.438   6.453
38954SOL     OW18700   0.046   5.399   1.512
38954SOL    HW118701   0.089   5.314   1.504
38954SOL    HW218702   0.033   5.410   1.606
38955SOL     OW18703   5.857   6.777  13.346
38955SOL    HW118704   5.800   6.837  13.393
38955SOL    HW218705   5.944   6.817  13.350
38956SOL     OW18706   8.470   2.769  14.700
38956SOL    HW118707   8.418   2.735  14.772
38956SOL    HW218708   8.448   2.862  14.695
38957SOL     OW18709   8.984   9.782   7.106
38957SOL    HW118710   8.952   9.860   7.153
38957SOL    HW218711   8.968   9.710   7.167
38958SOL     OW18712   8.048   1.292   2.918
38958SOL    HW118713   7.965   1.317   2.877
38958SOL    HW218714   8.030   1.207   2.957
38959SOL     OW18715  11.091  12.905  11.899
38959SOL    HW118716  11.120  12.860  11.979
38959SOL    HW218717  11.044  12.983  11.931
38960SOL     OW18718   9.559   1.448  14.389
38960SOL    HW118719   9.578   1.356  14.410
38960SOL    HW218720   9.464   1.450  14.378
38961SOL     OW18721   5.214   9.365   2.844
38961SOL    HW118722   5.271   9.421   2.896
38961SOL    HW218723   5.158   9.425   2.796
38962SOL     OW18724   0.216  10.190  12.412
38962SOL    HW118725   0.131  10.228  12.392
38962SOL    HW218726   0.267  10.199  12.331
38963SOL     OW18727   2.075  11.438   0.869
38963SOL    HW118728   2.101  11.382   0.797
38963SOL    HW218729   1.998  11.485   0.837
38964SOL     OW18730   4.344  11.337   5.583
38964SOL    HW118731   4.252  11.323   5.605
38964SOL    HW218732   4.366  11.421   5.623
38965SOL     OW18733   7.498   4.616  12.107
38965SOL    HW118734   7.460   4.569  12.033
38965SOL    HW218735   7.571   4.665  12.069
38966SOL     OW18736   1.675   6.709   3.603
38966SOL    HW118737   1.659   6.746   3.516
38966SOL    HW218738   1.675   6.614   3.589
38967SOL     OW18739   6.387  13.240   1.316
38967SOL    HW118740   6.420  13.160   1.276
38967SOL    HW218741   6.307  13.260   1.268
38968SOL     OW18742  13.531   8.140  13.394
38968SOL    HW118743  13.557   8.097  13.312
38968SOL    HW218744  13.484   8.219  13.366
38969SOL     OW18745   7.221   0.375  13.959
38969SOL    HW118746   7.200   0.446  13.899
38969SOL    HW218747   7.181   0.297  13.921
38970SOL     OW18748   7.858   5.329   1.773
38970SOL    HW118749   7.873   5.416   1.809
38970SOL    HW218750   7.919   5.273   1.820
38971SOL     OW18751   3.246   7.075   4.400
38971SOL    HW118752   3.248   7.087   4.495
38971SOL    HW218753   3.169   7.020   4.384
38972SOL     OW18754   4.665   3.973   8.118
38972SOL    HW118755   4.756   3.940   8.119
38972SOL    HW218756   4.660   4.032   8.192
38973SOL     OW18757   3.944   5.836  12.228
38973SOL    HW118758   3.899   5.877  12.302
38973SOL    HW218759   3.901   5.874  12.151
38974SOL     OW18760  13.623   1.505  13.227
38974SOL    HW118761  13.618   1.596  13.258
38974SOL    HW218762  13.682   1.461  13.287
38975SOL     OW18763   4.331  10.057   8.804
38975SOL    HW118764   4.402  10.041   8.866
38975SOL    HW218765   4.332   9.980   8.747
38976SOL     OW18766  14.333   0.754   1.496
38976SOL    HW118767  14.349   0.660   1.504
38976SOL    HW218768  14.331   0.785   1.587
38977SOL     OW18769  11.447  10.021   1.008
38977SOL    HW118770  11.376  10.008   0.944
38977SOL    HW218771  11.514   9.958   0.982
38978SOL     OW18772  13.062   5.485  13.404
38978SOL    HW118773  13.004   5.551  13.442
38978SOL    HW218774  13.121   5.534  13.348
38979SOL     OW18775   4.023   3.721  14.795
38979SOL    HW118776   4.039   3.712   0.010
38979SOL    HW218777   4.075   3.797  14.769
38980SOL     OW18778   7.437   6.644   5.551
38980SOL    HW118779   7.516   6.633   5.603
38980SOL    HW218780   7.385   6.708   5.601
38981SOL     OW18781   0.773   5.231   3.927
38981SOL    HW118782   0.845   5.218   3.989
38981SOL    HW218783   0.705   5.170   3.957
38982SOL     OW18784  10.510   0.220   2.668
38982SOL    HW118785  10.513   0.181   2.755
38982SOL    HW218786  10.422   0.259   2.662
38983SOL     OW18787  10.599   6.876  11.728
38983SOL    HW118788  10.621   6.969  11.729
38983SOL    HW218789  10.670   6.834  11.777
38984SOL     OW18790   4.024  14.685  11.793
38984SOL    HW118791   3.994  14.594  11.797
38984SOL    HW218792   4.119  14.679  11.797
38985SOL     OW18793  11.620   7.539  10.099
38985SOL    HW118794  11.561   7.581  10.162
38985SOL    HW218795  11.585   7.450  10.090
38986SOL     OW18796  13.283   1.353  11.069
38986SOL    HW118797  13.250   1.267  11.042
38986SOL    HW218798  13.295   1.346  11.163
38987SOL     OW18799  11.907   9.976   0.430
38987SOL    HW118800  12.000   9.958   0.447
38987SOL    HW218801  11.903  10.070   0.414
38988SOL     OW18802   5.557  13.141  11.197
38988SOL    HW118803   5.471  13.183  11.194
38988SOL    HW218804   5.610  13.200  11.250
38989SOL     OW18805   6.029   0.130   9.708
38989SOL    HW118806   5.974   0.154   9.634
38989SOL    HW218807   6.021   0.034   9.714
38990SOL     OW18808   2.967  11.979   4.293
38990SOL    HW118809   3.062  11.983   4.286
38990SOL    HW218810   2.950  11.906   4.352
38991SOL     OW18811  13.201   4.568   2.608
38991SOL    HW118812  13.236   4.552   2.696
38991SOL    HW218813  13.180   4.481   2.575
38992SOL     OW18814   2.825   8.218  10.937
38992SOL    HW118815   2.848   8.257  11.022
38992SOL    HW218816   2.909   8.205  10.893
38993SOL     OW18817  14.418  11.977   5.708
38993SOL    HW118818  14.474  12.041   5.752
38993SOL    HW218819  14.330  11.995   5.741
38994SOL     OW18820   1.394   7.023  13.697
38994SOL    HW118821   1.312   7.065  13.724
38994SOL    HW218822   1.420   6.970  13.773
38995SOL     OW18823  12.640  10.419  12.892
38995SOL    HW118824  12.628  10.478  12.967
38995SOL    HW218825  12.702  10.465  12.836
38996SOL     OW18826   0.019   6.539   6.606
38996SOL    HW118827   0.061   6.568   6.525
38996SOL    HW218828  14.846   6.614   6.634
38997SOL     OW18829   6.359   4.782   4.646
38997SOL    HW118830   6.405   4.839   4.585
38997SOL    HW218831   6.403   4.795   4.730
38998SOL     OW18832   4.316   6.395   9.076
38998SOL    HW118833   4.311   6.465   9.141
38998SOL    HW218834   4.262   6.425   9.004
38999SOL     OW18835   8.216   0.784   9.438
38999SOL    HW118836   8.305   0.816   9.424
38999SOL    HW218837   8.224   0.721   9.510
39000SOL     OW18838   1.177   6.729   1.287
39000SOL    HW118839   1.215   6.644   1.309
39000SOL    HW218840   1.094   6.731   1.335
39001SOL     OW18841   8.613  12.784  10.979
39001SOL    HW118842   8.548  12.714  10.975
39001SOL    HW218843   8.696  12.739  10.993
39002SOL     OW18844   0.951   2.317   5.659
39002SOL    HW118845   1.020   2.370   5.619
39002SOL    HW218846   0.985   2.297   5.746
39003SOL     OW18847   2.651   7.949  11.121
39003SOL    HW118848   2.673   8.036  11.155
39003SOL    HW218849   2.713   7.934  11.051
39004SOL     OW18850   9.092  13.897  11.433
39004SOL    HW118851   9.146  13.918  11.357
39004SOL    HW218852   9.032  13.829  11.402
39005SOL     OW18853   5.048  13.916   1.650
39005SOL    HW118854   5.046  13.821   1.659
39005SOL    HW218855   5.104  13.932   1.574
39006SOL     OW18856   4.005   0.088   9.712
39006SOL    HW118857   4.030   0.151   9.644
39006SOL    HW218858   4.074   0.095   9.778
39007SOL     OW18859  12.962   5.276   8.434
39007SOL    HW118860  12.882   5.225   8.427
39007SOL    HW218861  12.984   5.298   8.343
39008SOL     OW18862  14.227  11.146   7.670
39008SOL    HW118863  14.215  11.054   7.647
39008SOL    HW218864  14.146  11.189   7.643
39009SOL     OW18865  10.163   0.011  12.041
39009SOL    HW118866  10.071   0.034  12.057
39009SOL    HW218867  10.189   0.065  11.966
39010SOL     OW18868   5.103   9.602  14.723
39010SOL    HW118869   5.171   9.552  14.769
39010SOL    HW218870   5.076   9.544  14.651
39011SOL     OW18871  10.329  11.046   5.804
39011SOL    HW118872  10.268  11.044   5.878
39011SOL    HW218873  10.387  11.119   5.823
39012SOL     OW18874   9.992  10.233  11.441
39012SOL    HW118875   9.922  10.298  11.445
39012SOL    HW218876   9.968  10.167  11.507
39013SOL     OW18877  10.627   2.789  13.140
39013SOL    HW118878  10.609   2.879  13.113
39013SOL    HW218879  10.559   2.737  13.096
39014SOL     OW18880   7.157   2.768   5.542
39014SOL    HW118881   7.121   2.682   5.520
39014SOL    HW218882   7.166   2.812   5.457
39015SOL     OW18883   1.695  13.487   5.583
39015SOL    HW118884   1.788  13.477   5.601
39015SOL    HW218885   1.686  13.578   5.555
39016SOL     OW18886  13.958   4.824  11.127
39016SOL    HW118887  13.974   4.909  11.086
39016SOL    HW218888  13.938   4.845  11.218
39017SOL     OW18889  12.091   7.191  12.973
39017SOL    HW118890  12.140   7.206  12.893
39017SOL    HW218891  12.016   7.250  12.966
39018SOL     OW18892  10.783   4.799   1.381
39018SOL    HW118893  10.853   4.829   1.323
39018SOL    HW218894  10.727   4.876   1.393
39019SOL     OW18895   9.846   9.039  10.023
39019SOL    HW118896   9.937   9.043  10.051
39019SOL    HW218897   9.802   8.987  10.092
39020SOL     OW18898   7.223   3.937   7.137
39020SOL    HW118899   7.162   3.926   7.210
39020SOL    HW218900   7.212   3.857   7.085
39021SOL     OW18901   0.874   5.570   2.892
39021SOL    HW118902   0.791   5.534   2.860
39021SOL    HW218903   0.861   5.577   2.987
39022SOL     OW18904   4.190   6.359   1.760
39022SOL    HW118905   4.240   6.410   1.824
39022SOL    HW218906   4.108   6.338   1.805
39023SOL     OW18907   0.807   3.480   2.041
39023SOL    HW118908   0.806   3.532   2.121
39023SOL    HW218909   0.836   3.540   1.973
39024SOL     OW18910  14.037   3.314  13.175
39024SOL    HW118911  14.027   3.351  13.263
39024SOL    HW218912  13.948   3.286  13.151
39025SOL     OW18913   8.836   4.729   5.420
39025SOL    HW118914   8.867   4.646   5.454
39025SOL    HW218915   8.905   4.792   5.441
39026SOL     OW18916   3.242   3.581   1.540
39026SOL    HW118917   3.155   3.620   1.545
39026SOL    HW218918   3.265   3.583   1.447
39027SOL     OW18919  14.567   1.780   3.322
39027SOL    HW118920  14.515   1.841   3.270
39027SOL    HW218921  14.571   1.700   3.270
39028SOL     OW18922   5.386   3.125   3.578
39028SOL    HW118923   5.430   3.044   3.552
39028SOL    HW218924   5.301   3.122   3.536
39029SOL     OW18925  12.474   3.919   0.789
39029SOL    HW118926  12.480   3.834   0.833
39029SOL    HW218927  12.532   3.976   0.840
39030SOL     OW18928  10.529  10.609   5.271
39030SOL    HW118929  10.444  10.565   5.277
39030SOL    HW218930  10.508  10.700   5.250
39031SOL     OW18931   2.650  14.417  10.011
39031SOL    HW118932   2.744  14.403   9.999
39031SOL    HW218933   2.642  14.459  10.096
39032SOL     OW18934   4.937   0.411  13.703
39032SOL    HW118935   4.952   0.376  13.790
39032SOL    HW218936   4.936   0.333  13.646
39033SOL     OW18937   5.161   1.163   7.822
39033SOL    HW118938   5.100   1.089   7.822
39033SOL    HW218939   5.141   1.210   7.903
39034SOL     OW18940   1.685   2.554   5.070
39034SOL    HW118941   1.689   2.649   5.085
39034SOL    HW218942   1.768   2.521   5.103
39035SOL     OW18943  14.516  11.392  10.870
39035SOL    HW118944  14.476  11.458  10.927
39035SOL    HW218945  14.463  11.313  10.883
39036SOL     OW18946   6.010   9.217  14.630
39036SOL    HW118947   5.915   9.232  14.630
39036SOL    HW218948   6.046   9.285  14.687
39037SOL     OW18949   2.825  14.441   3.498
39037SOL    HW118950   2.739  14.404   3.478
39037SOL    HW218951   2.846  14.407   3.585
39038SOL     OW18952   1.467   4.456   4.168
39038SOL    HW118953   1.405   4.528   4.157
39038SOL    HW218954   1.547   4.498   4.198
39039SOL     OW18955  11.048   7.109   5.376
39039SOL    HW118956  11.057   7.024   5.333
39039SOL    HW218957  11.034   7.088   5.468
39040SOL     OW18958   6.025  10.850   9.979
39040SOL    HW118959   6.016  10.755   9.969
39040SOL    HW218960   6.009  10.866  10.072
39041SOL     OW18961   2.670  10.824   7.222
39041SOL    HW118962   2.633  10.832   7.310
39041SOL    HW218963   2.738  10.891   7.218
39042SOL     OW18964   4.326   9.981   6.391
39042SOL    HW118965   4.236  10.014   6.386
39042SOL    HW218966   4.333   9.943   6.479
39043SOL     OW18967   2.505   1.930   3.862
39043SOL    HW118968   2.480   1.999   3.924
39043SOL    HW218969   2.590   1.958   3.828
39044SOL     OW18970  14.838  12.910   4.991
39044SOL    HW118971   0.053  12.906   5.000
39044SOL    HW218972  14.821  12.883   4.901
39045SOL     OW18973   3.979  11.635  13.601
39045SOL    HW118974   3.888  11.652  13.575
39045SOL    HW218975   4.003  11.710  13.654
39046SOL     OW18976  10.429   8.489  14.487
39046SOL    HW118977  10.472   8.406  14.467
39046SOL    HW218978  10.355   8.465  14.543
39047SOL     OW18979   0.312  13.531   3.837
39047SOL    HW118980   0.399  13.568   3.819
39047SOL    HW218981   0.263  13.603   3.876
39048SOL     OW18982   9.043   5.476  13.255
39048SOL    HW118983   9.136   5.460  13.243
39048SOL    HW218984   9.035   5.572  13.254
39049SOL     OW18985  14.568  14.830   5.448
39049SOL    HW118986  14.517  14.750   5.440
39049SOL    HW218987  14.655  14.806   5.418
39050SOL     OW18988  12.034  13.184   0.101
39050SOL    HW118989  11.964  13.202   0.164
39050SOL    HW218990  12.025  13.254   0.036
39051SOL     OW18991   1.048   0.670  12.992
39051SOL    HW118992   1.081   0.745  12.943
39051SOL    HW218993   0.960   0.656  12.958
39052SOL     OW18994  13.353  10.848   0.748
39052SOL    HW118995  13.423  10.853   0.813
39052SOL    HW218996  13.290  10.787   0.786
39053SOL     OW18997  10.980   2.212   2.439
39053SOL    HW118998  10.934   2.278   2.387
39053SOL    HW218999  10.917   2.187   2.506
39054SOL     OW19000   0.836  12.840  14.759
39054SOL    HW119001   0.909  12.890  14.723
39054SOL    HW219002   0.878  12.771  14.811
39055SOL     OW19003   3.848  10.980   6.561
39055SOL    HW119004   3.846  10.885   6.578
39055SOL    HW219005   3.894  11.017   6.636
39056SOL     OW19006  14.828   0.880   6.008
39056SOL    HW119007  14.834   0.931   6.089
39056SOL    HW219008  14.763   0.927   5.955
39057SOL     OW19009   3.528   7.342   6.689
39057SOL    HW119010   3.612   7.297   6.699
39057SOL    HW219011   3.525   7.369   6.597
39058SOL     OW19012   2.033  14.820  11.768
39058SOL    HW119013   2.022  14.732  11.805
39058SOL    HW219014   2.071  14.805  11.682
39059SOL     OW19015  13.300   9.349   4.832
39059SOL    HW119016  13.243   9.337   4.908
39059SOL    HW219017  13.291   9.442   4.809
39060SOL     OW19018  10.736   1.933  14.365
39060SOL    HW119019  10.692   1.848  14.366
39060SOL    HW219020  10.817   1.918  14.317
39061SOL     OW19021   8.812   8.570   4.410
39061SOL    HW119022   8.862   8.616   4.479
39061SOL    HW219023   8.738   8.531   4.456
39062SOL     OW19024  12.212   1.137   5.448
39062SOL    HW119025  12.247   1.173   5.529
39062SOL    HW219026  12.236   1.200   5.380
39063SOL     OW19027   4.279   3.589   2.737
39063SOL    HW119028   4.371   3.605   2.755
39063SOL    HW219029   4.236   3.673   2.751
39064SOL     OW19030   6.620   8.886   5.004
39064SOL    HW119031   6.715   8.899   5.001
39064SOL    HW219032   6.598   8.845   4.920
39065SOL     OW19033  10.902   9.553   8.770
39065SOL    HW119034  10.891   9.502   8.689
39065SOL    HW219035  10.967   9.505   8.821
39066SOL     OW19036   8.269   1.943   4.666
39066SOL    HW119037   8.299   1.868   4.614
39066SOL    HW219038   8.195   1.909   4.717
39067SOL     OW19039   0.554  14.148  10.210
39067SOL    HW119040   0.499  14.123  10.284
39067SOL    HW219041   0.533  14.084  10.142
39068SOL     OW19042  13.040   2.532   7.851
39068SOL    HW119043  13.036   2.442   7.819
39068SOL    HW219044  13.090   2.579   7.784
39069SOL     OW19045   7.906   2.144  11.051
39069SOL    HW119046   7.828   2.092  11.068
39069SOL    HW219047   7.977   2.080  11.043
39070SOL     OW19048   4.468   5.926   2.004
39070SOL    HW119049   4.499   5.855   2.060
39070SOL    HW219050   4.513   5.913   1.920
39071SOL     OW19051   0.577   7.129  13.815
39071SOL    HW119052   0.643   7.085  13.761
39071SOL    HW219053   0.514   7.164  13.752
39072SOL     OW19054  14.530   2.823  13.692
39072SOL    HW119055  14.449   2.821  13.743
39072SOL    HW219056  14.506   2.784  13.608
39073SOL     OW19057   5.942  11.843   7.742
39073SOL    HW119058   5.872  11.907   7.733
39073SOL    HW219059   5.940  11.818   7.834
39074SOL     OW19060  11.551  10.177   7.869
39074SOL    HW119061  11.490  10.162   7.797
39074SOL    HW219062  11.637  10.182   7.827
39075SOL     OW19063   8.592  10.221   6.029
39075SOL    HW119064   8.575  10.129   6.049
39075SOL    HW219065   8.669  10.220   5.972
39076SOL     OW19066   7.164   6.331   4.356
39076SOL    HW119067   7.159   6.375   4.441
39076SOL    HW219068   7.076   6.294   4.343
39077SOL     OW19069  12.384  10.513   0.210
39077SOL    HW119070  12.316  10.449   0.191
39077SOL    HW219071  12.466  10.465   0.198
39078SOL     OW19072   2.042  10.431  11.107
39078SOL    HW119073   2.091  10.362  11.063
39078SOL    HW219074   2.019  10.395  11.192
39079SOL     OW19075   8.787   7.916  13.419
39079SOL    HW119076   8.705   7.871  13.402
39079SOL    HW219077   8.793   7.920  13.515
39080SOL     OW19078  13.987   1.556   1.978
39080SOL    HW119079  14.010   1.626   2.039
39080SOL    HW219080  14.039   1.575   1.900
39081SOL     OW19081   5.257  12.052   5.994
39081SOL    HW119082   5.287  11.963   6.010
39081SOL    HW219083   5.252  12.060   5.899
39082SOL     OW19084   3.696   1.297  10.877
39082SOL    HW119085   3.716   1.298  10.784
39082SOL    HW219086   3.628   1.364  10.888
39083SOL     OW19087   2.961   2.572   3.914
39083SOL    HW119088   3.039   2.612   3.954
39083SOL    HW219089   2.987   2.556   3.824
39084SOL     OW19090   9.874   1.121   7.503
39084SOL    HW119091   9.864   1.072   7.585
39084SOL    HW219092   9.851   1.059   7.434
39085SOL     OW19093   7.393  12.719   0.974
39085SOL    HW119094   7.411  12.771   0.895
39085SOL    HW219095   7.306  12.749   1.002
39086SOL     OW19096  10.548   7.712  11.961
39086SOL    HW119097  10.501   7.667  11.891
39086SOL    HW219098  10.573   7.643  12.022
39087SOL     OW19099  10.959   0.325   0.031
39087SOL    HW119100  10.927   0.406  14.869
39087SOL    HW219101  11.043   0.350   0.069
39088SOL     OW19102   9.992  12.441  11.054
39088SOL    HW119103   9.929  12.394  11.108
39088SOL    HW219104  10.068  12.455  11.110
39089SOL     OW19105   8.996   0.932  11.501
39089SOL    HW119106   9.051   0.912  11.426
39089SOL    HW219107   8.925   0.985  11.466
39090SOL     OW19108   3.954   3.950  12.573
39090SOL    HW119109   3.955   3.857  12.597
39090SOL    HW219110   4.026   3.988  12.624
39091SOL     OW19111   7.716   1.587  10.886
39091SOL    HW119112   7.669   1.537  10.953
39091SOL    HW219113   7.648   1.616  10.825
39092SOL     OW19114   8.687  14.531  10.438
39092SOL    HW119115   8.745  14.480  10.380
39092SOL    HW219116   8.615  14.471  10.458
39093SOL     OW19117   6.316  10.671   8.593
39093SOL    HW119118   6.363  10.750   8.620
39093SOL    HW219119   6.247  10.704   8.534
39094SOL     OW19120   4.080  12.197  12.433
39094SOL    HW119121   4.079  12.270  12.495
39094SOL    HW219122   4.162  12.206  12.385
39095SOL     OW19123   0.233   2.675   9.981
39095SOL    HW119124   0.234   2.724  10.063
39095SOL    HW219125   0.146   2.637   9.976
39096SOL     OW19126   9.966   4.362   1.195
39096SOL    HW119127   9.884   4.410   1.199
39096SOL    HW219128   9.966   4.323   1.107
39097SOL     OW19129  11.529  11.429  12.608
39097SOL    HW119130  11.564  11.483  12.537
39097SOL    HW219131  11.547  11.339  12.581
39098SOL     OW19132   3.945   8.008   5.573
39098SOL    HW119133   3.871   8.028   5.631
39098SOL    HW219134   3.944   7.912   5.565
39099SOL     OW19135   2.021   5.545   6.272
39099SOL    HW119136   2.097   5.489   6.286
39099SOL    HW219137   2.050   5.609   6.208
39100SOL     OW19138   5.622   5.983   4.433
39100SOL    HW119139   5.618   5.904   4.379
39100SOL    HW219140   5.676   5.959   4.508
39101SOL     OW19141   5.010  13.497   5.441
39101SOL    HW119142   5.056  13.498   5.358
39101SOL    HW219143   4.922  13.466   5.419
39102SOL     OW19144   8.727   1.231   1.064
39102SOL    HW119145   8.750   1.146   1.028
39102SOL    HW219146   8.649   1.214   1.117
39103SOL     OW19147  12.289   5.853   5.337
39103SOL    HW119148  12.213   5.904   5.310
39103SOL    HW219149  12.340   5.912   5.392
39104SOL     OW19150  12.759   8.677  10.290
39104SOL    HW119151  12.773   8.585  10.265
39104SOL    HW219152  12.797   8.727  10.218
39105SOL     OW19153  10.326   8.803   7.397
39105SOL    HW119154  10.278   8.832   7.319
39105SOL    HW219155  10.352   8.884   7.441
39106SOL     OW19156   0.978   6.014   5.771
39106SOL    HW119157   1.056   5.977   5.812
39106SOL    HW219158   0.954   6.088   5.826
39107SOL     OW19159   6.128  12.870  10.679
39107SOL    HW119160   6.073  12.817  10.621
39107SOL    HW219161   6.077  12.949  10.694
39108SOL     OW19162   7.123  14.723   8.399
39108SOL    HW119163   7.119  14.678   8.314
39108SOL    HW219164   7.151  14.654   8.461
39109SOL     OW19165  10.368   3.587   9.846
39109SOL    HW119166  10.302   3.630   9.792
39109SOL    HW219167  10.363   3.495   9.821
39110SOL     OW19168   5.455  14.070   0.924
39110SOL    HW119169   5.498  14.025   0.851
39110SOL    HW219170   5.363  14.074   0.898
39111SOL     OW19171  14.711  11.025  12.706
39111SOL    HW119172  14.742  11.105  12.748
39111SOL    HW219173  14.788  10.991  12.659
39112SOL     OW19174   4.707  14.745   8.621
39112SOL    HW119175   4.682  14.702   8.703
39112SOL    HW219176   4.681  14.683   8.553
39113SOL     OW19177   4.026  10.490  14.860
39113SOL    HW119178   3.970  10.485   0.057
39113SOL    HW219179   4.105  10.441   0.005
39114SOL     OW19180  12.246   7.254   4.863
39114SOL    HW119181  12.226   7.340   4.826
39114SOL    HW219182  12.337   7.261   4.894
39115SOL     OW19183   0.704   3.028   0.902
39115SOL    HW119184   0.699   3.119   0.931
39115SOL    HW219185   0.612   3.000   0.897
39116SOL     OW19186   7.890  12.881   2.268
39116SOL    HW119187   7.800  12.849   2.274
39116SOL    HW219188   7.944  12.805   2.290
39117SOL     OW19189   2.105  10.872   3.621
39117SOL    HW119190   2.171  10.859   3.688
39117SOL    HW219191   2.024  10.837   3.659
39118SOL     OW19192   7.072   6.620   9.388
39118SOL    HW119193   7.150   6.642   9.337
39118SOL    HW219194   7.102   6.556   9.452
39119SOL     OW19195  11.510   0.999   4.293
39119SOL    HW119196  11.580   0.957   4.342
39119SOL    HW219197  11.430   0.977   4.341
39120SOL     OW19198   8.168  13.492   9.450
39120SOL    HW119199   8.115  13.427   9.496
39120SOL    HW219200   8.258  13.460   9.459
39121SOL     OW19201   7.579   3.204  12.065
39121SOL    HW119202   7.501   3.182  12.116
39121SOL    HW219203   7.650   3.155  12.107
39122SOL     OW19204   3.733  12.042   8.886
39122SOL    HW119205   3.662  12.030   8.950
39122SOL    HW219206   3.715  12.127   8.846
39123SOL     OW19207  13.292   0.297  14.788
39123SOL    HW119208  13.287   0.227  14.853
39123SOL    HW219209  13.278   0.377  14.839
39124SOL     OW19210   4.057   8.742   3.483
39124SOL    HW119211   3.967   8.748   3.452
39124SOL    HW219212   4.057   8.667   3.543
39125SOL     OW19213   5.269   5.698   4.482
39125SOL    HW119214   5.183   5.726   4.451
39125SOL    HW219215   5.327   5.772   4.464
39126SOL     OW19216  10.312   1.136  12.853
39126SOL    HW119217  10.281   1.183  12.775
39126SOL    HW219218  10.255   1.060  12.860
39127SOL     OW19219   7.000   8.927   6.628
39127SOL    HW119220   7.016   9.016   6.597
39127SOL    HW219221   7.053   8.919   6.707
39128SOL     OW19222  10.628   9.624   6.123
39128SOL    HW119223  10.684   9.604   6.048
39128SOL    HW219224  10.688   9.659   6.189
39129SOL     OW19225   9.751  13.527   8.503
39129SOL    HW119226   9.716  13.573   8.579
39129SOL    HW219227   9.674  13.502   8.453
39130SOL     OW19228   0.714  10.250   6.720
39130SOL    HW119229   0.684  10.196   6.647
39130SOL    HW219230   0.648  10.235   6.789
39131SOL     OW19231   6.491   8.926   1.773
39131SOL    HW119232   6.428   8.945   1.703
39131SOL    HW219233   6.487   8.831   1.785
39132SOL     OW19234   8.756   5.046   4.514
39132SOL    HW119235   8.850   5.043   4.499
39132SOL    HW219236   8.729   5.133   4.484
39133SOL     OW19237  12.985   3.073  10.687
39133SOL    HW119238  13.008   3.002  10.627
39133SOL    HW219239  12.925   3.033  10.750
39134SOL     OW19240  10.718  10.124  10.585
39134SOL    HW119241  10.707  10.032  10.562
39134SOL    HW219242  10.655  10.170  10.530
39135SOL     OW19243   7.655  13.169   2.306
39135SOL    HW119244   7.689  13.173   2.217
39135SOL    HW219245   7.616  13.082   2.312
39136SOL     OW19246   5.174   3.399   4.360
39136SOL    HW119247   5.105   3.366   4.417
39136SOL    HW219248   5.127   3.444   4.289
39137SOL     OW19249   7.787   3.826   1.500
39137SOL    HW119250   7.870   3.805   1.459
39137SOL    HW219251   7.761   3.745   1.544
39138SOL     OW19252  14.286   9.073   3.216
39138SOL    HW119253  14.260   9.138   3.281
39138SOL    HW219254  14.366   9.108   3.177
39139SOL     OW19255   7.047   3.541   6.415
39139SOL    HW119256   7.136   3.577   6.418
39139SOL    HW219257   7.020   3.535   6.506
39140SOL     OW19258   0.496   9.220   2.523
39140SOL    HW119259   0.542   9.159   2.464
39140SOL    HW219260   0.461   9.164   2.592
39141SOL     OW19261  10.114  14.755   5.177
39141SOL    HW119262  10.070  14.793   5.101
39141SOL    HW219263  10.085  14.808   5.251
39142SOL     OW19264   2.628   8.992   9.102
39142SOL    HW119265   2.549   9.028   9.144
39142SOL    HW219266   2.700   9.025   9.156
39143SOL     OW19267   9.533   9.027   4.716
39143SOL    HW119268   9.514   9.094   4.782
39143SOL    HW219269   9.560   8.951   4.767
39144SOL     OW19270   6.880   7.231   1.859
39144SOL    HW119271   6.974   7.211   1.866
39144SOL    HW219272   6.840   7.187   1.934
39145SOL     OW19273  13.208   1.370   2.816
39145SOL    HW119274  13.290   1.383   2.863
39145SOL    HW219275  13.205   1.441   2.751
39146SOL     OW19276   8.774   2.171   4.533
39146SOL    HW119277   8.793   2.100   4.472
39146SOL    HW219278   8.759   2.247   4.477
39147SOL     OW19279  10.218   0.341   2.679
39147SOL    HW119280  10.164   0.366   2.754
39147SOL    HW219281  10.226   0.422   2.628
39148SOL     OW19282  13.571   7.455   8.029
39148SOL    HW119283  13.549   7.393   8.098
39148SOL    HW219284  13.486   7.490   8.001
39149SOL     OW19285   3.171   8.328   3.241
39149SOL    HW119286   3.183   8.329   3.147
39149SOL    HW219287   3.231   8.394   3.274
39150SOL     OW19288   0.445   4.031  10.263
39150SOL    HW119289   0.493   4.106  10.227
39150SOL    HW219290   0.478   3.956  10.214
39151SOL     OW19291   2.214   0.026  12.535
39151SOL    HW119292   2.228  14.861  12.451
39151SOL    HW219293   2.183  14.837  12.594
39152SOL     OW19294   5.070  13.808   2.466
39152SOL    HW119295   5.103  13.763   2.544
39152SOL    HW219296   4.998  13.754   2.436
39153SOL     OW19297   3.161   0.935   9.755
39153SOL    HW119298   3.137   0.861   9.699
39153SOL    HW219299   3.199   0.894   9.833
39154SOL     OW19300   6.869   9.020   8.967
39154SOL    HW119301   6.921   9.082   9.018
39154SOL    HW219302   6.783   9.063   8.959
39155SOL     OW19303  12.133  11.399   1.617
39155SOL    HW119304  12.135  11.336   1.545
39155SOL    HW219305  12.200  11.368   1.678
39156SOL     OW19306   6.553   8.313   9.562
39156SOL    HW119307   6.476   8.318   9.618
39156SOL    HW219308   6.559   8.400   9.523
39157SOL     OW19309  11.457   7.620   6.463
39157SOL    HW119310  11.532   7.661   6.420
39157SOL    HW219311  11.406   7.581   6.391
39158SOL     OW19312  10.834   5.535   9.453
39158SOL    HW119313  10.811   5.581   9.535
39158SOL    HW219314  10.799   5.447   9.465
39159SOL     OW19315  12.418   5.942   8.614
39159SOL    HW119316  12.327   5.957   8.641
39159SOL    HW219317  12.467   6.013   8.654
39160SOL     OW19318   3.535   6.458   4.569
39160SOL    HW119319   3.525   6.518   4.495
39160SOL    HW219320   3.551   6.515   4.644
39161SOL     OW19321  11.798   5.546   0.308
39161SOL    HW119322  11.762   5.469   0.266
39161SOL    HW219323  11.760   5.620   0.261
39162SOL     OW19324  12.255   3.401   4.234
39162SOL    HW119325  12.169   3.381   4.270
39162SOL    HW219326  12.278   3.486   4.272
39163SOL     OW19327  11.484  12.397   2.339
39163SOL    HW119328  11.420  12.361   2.278
39163SOL    HW219329  11.564  12.408   2.287
39164SOL     OW19330   0.624  12.994   8.152
39164SOL    HW119331   0.626  13.013   8.246
39164SOL    HW219332   0.583  13.072   8.113
39165SOL     OW19333   3.408   1.162   9.047
39165SOL    HW119334   3.434   1.196   9.133
39165SOL    HW219335   3.376   1.074   9.064
39166SOL     OW19336  10.170   0.016   4.316
39166SOL    HW119337  10.112  14.867   4.386
39166SOL    HW219338  10.118   0.008   4.236
39167SOL     OW19339   1.510  11.805   1.264
39167SOL    HW119340   1.466  11.723   1.287
39167SOL    HW219341   1.590  11.778   1.220
39168SOL     OW19342  10.957   0.354   2.298
39168SOL    HW119343  10.912   0.324   2.219
39168SOL    HW219344  10.889   0.357   2.366
39169SOL     OW19345  11.807   9.275   4.536
39169SOL    HW119346  11.739   9.320   4.486
39169SOL    HW219347  11.766   9.253   4.619
39170SOL     OW19348  10.330  12.288  10.513
39170SOL    HW119349  10.378  12.357  10.558
39170SOL    HW219350  10.303  12.228  10.583
39171SOL     OW19351  12.330   5.283   4.134
39171SOL    HW119352  12.331   5.231   4.215
39171SOL    HW219353  12.262   5.348   4.149
39172SOL     OW19354   9.901   5.238   4.129
39172SOL    HW119355   9.986   5.268   4.161
39172SOL    HW219356   9.842   5.249   4.204
39173SOL     OW19357   3.984   4.722  10.722
39173SOL    HW119358   4.027   4.773  10.654
39173SOL    HW219359   3.907   4.774  10.746
39174SOL     OW19360  12.994   3.866   8.784
39174SOL    HW119361  12.913   3.908   8.812
39174SOL    HW219362  13.007   3.795   8.846
39175SOL     OW19363   1.505   2.400  12.444
39175SOL    HW119364   1.430   2.441  12.402
39175SOL    HW219365   1.468   2.360  12.523
39176SOL     OW19366   6.222  12.159  11.462
39176SOL    HW119367   6.318  12.163  11.456
39176SOL    HW219368   6.201  12.210  11.540
39177SOL     OW19369  11.674   1.505   9.186
39177SOL    HW119370  11.736   1.434   9.205
39177SOL    HW219371  11.638   1.529   9.271
39178SOL     OW19372  11.953   1.909   1.327
39178SOL    HW119373  11.973   1.823   1.290
39178SOL    HW219374  12.032   1.934   1.375
39179SOL     OW19375   8.185   3.139  12.611
39179SOL    HW119376   8.102   3.110  12.650
39179SOL    HW219377   8.195   3.084  12.533
39180SOL     OW19378   8.914   1.205  13.238
39180SOL    HW119379   8.972   1.139  13.277
39180SOL    HW219380   8.896   1.172  13.150
39181SOL     OW19381  10.142  12.095  14.028
39181SOL    HW119382  10.095  12.096  14.112
39181SOL    HW219383  10.233  12.079  14.052
39182SOL     OW19384  10.981   4.665   7.390
39182SOL    HW119385  11.070   4.658   7.422
39182SOL    HW219386  10.975   4.599   7.321
39183SOL     OW19387   9.654   0.965   3.886
39183SOL    HW119388   9.620   0.895   3.942
39183SOL    HW219389   9.746   0.941   3.872
39184SOL     OW19390   2.353   1.332   7.997
39184SOL    HW119391   2.300   1.341   7.917
39184SOL    HW219392   2.427   1.390   7.983
39185SOL     OW19393  14.504   9.769   1.232
39185SOL    HW119394  14.444   9.821   1.286
39185SOL    HW219395  14.591   9.792   1.265
39186SOL     OW19396  13.455   7.073   7.880
39186SOL    HW119397  13.481   7.118   7.800
39186SOL    HW219398  13.496   7.123   7.950
39187SOL     OW19399   4.576   9.680   3.785
39187SOL    HW119400   4.645   9.617   3.806
39187SOL    HW219401   4.619   9.765   3.785
39188SOL     OW19402   4.610  13.110  14.037
39188SOL    HW119403   4.518  13.116  14.062
39188SOL    HW219404   4.621  13.177  13.970
39189SOL     OW19405  11.794   9.752  12.707
39189SOL    HW119406  11.832   9.665  12.693
39189SOL    HW219407  11.868   9.812  12.695
39190SOL     OW19408   3.231  11.166   5.434
39190SOL    HW119409   3.283  11.233   5.391
39190SOL    HW219410   3.262  11.083   5.397
39191SOL     OW19411   2.671  12.518   4.399
39191SOL    HW119412   2.676  12.430   4.361
39191SOL    HW219413   2.577  12.538   4.399
39192SOL     OW19414  12.757   5.958   4.488
39192SOL    HW119415  12.691   5.985   4.552
39192SOL    HW219416  12.838   5.997   4.520
39193SOL     OW19417  13.250  13.991   4.712
39193SOL    HW119418  13.344  13.980   4.725
39193SOL    HW219419  13.239  14.080   4.681
39194SOL     OW19420   0.291  13.800   7.832
39194SOL    HW119421   0.312  13.878   7.883
39194SOL    HW219422   0.281  13.730   7.897
39195SOL     OW19423   4.141  14.146   8.321
39195SOL    HW119424   4.188  14.225   8.348
39195SOL    HW219425   4.179  14.077   8.375
39196SOL     OW19426   6.863   4.147   9.888
39196SOL    HW119427   6.834   4.232   9.920
39196SOL    HW219428   6.788   4.112   9.841
39197SOL     OW19429   9.032   2.004  12.019
39197SOL    HW119430   9.063   1.931  11.966
39197SOL    HW219431   8.957   2.039  11.971
39198SOL     OW19432   4.548   9.365   3.752
39198SOL    HW119433   4.496   9.402   3.823
39198SOL    HW219434   4.490   9.367   3.676
39199SOL     OW19435   2.596   7.757   8.538
39199SOL    HW119436   2.566   7.847   8.531
39199SOL    HW219437   2.531   7.715   8.595
39200SOL     OW19438  12.626  10.984   2.332
39200SOL    HW119439  12.665  10.941   2.256
39200SOL    HW219440  12.685  11.057   2.352
39201SOL     OW19441   1.670  12.473  13.618
39201SOL    HW119442   1.636  12.388  13.590
39201SOL    HW219443   1.684  12.463  13.712
39202SOL     OW19444   9.026   9.188   6.436
39202SOL    HW119445   9.042   9.238   6.516
39202SOL    HW219446   9.091   9.221   6.373
39203SOL     OW19447  10.129  11.951  12.857
39203SOL    HW119448  10.137  11.858  12.875
39203SOL    HW219449  10.170  11.994  12.932
39204SOL     OW19450  12.086   8.678  14.726
39204SOL    HW119451  12.055   8.590  14.749
39204SOL    HW219452  12.177   8.680  14.755
39205SOL     OW19453  12.958   2.105   7.128
39205SOL    HW119454  12.980   2.013   7.134
39205SOL    HW219455  12.887   2.109   7.064
39206SOL     OW19456  14.543   3.313   9.456
39206SOL    HW119457  14.493   3.246   9.410
39206SOL    HW219458  14.496   3.394   9.437
39207SOL     OW19459   1.656   4.322   3.540
39207SOL    HW119460   1.621   4.261   3.474
39207SOL    HW219461   1.649   4.274   3.623
39208SOL     OW19462   2.677  14.833  13.842
39208SOL    HW119463   2.660  14.746  13.876
39208SOL    HW219464   2.592  14.862  13.806
39209SOL     OW19465   1.984   2.164   1.356
39209SOL    HW119466   2.011   2.075   1.334
39209SOL    HW219467   1.938   2.195   1.278
39210SOL     OW19468  13.023   9.640  13.186
39210SOL    HW119469  13.006   9.593  13.104
39210SOL    HW219470  12.936   9.665  13.218
39211SOL     OW19471   1.573   9.924   6.395
39211SOL    HW119472   1.668   9.929   6.385
39211SOL    HW219473   1.554   9.968   6.477
39212SOL     OW19474  13.336   2.140  13.230
39212SOL    HW119475  13.332   2.044  13.231
39212SOL    HW219476  13.420   2.160  13.189
39213SOL     OW19477   7.172   4.327   6.657
39213SOL    HW119478   7.257   4.370   6.653
39213SOL    HW219479   7.123   4.365   6.584
39214SOL     OW19480   2.102   3.847   5.881
39214SOL    HW119481   2.181   3.807   5.915
39214SOL    HW219482   2.109   3.940   5.905
39215SOL     OW19483   0.837   8.158  12.153
39215SOL    HW119484   0.774   8.122  12.216
39215SOL    HW219485   0.846   8.250  12.178
39216SOL     OW19486   8.036   1.295  11.458
39216SOL    HW119487   8.087   1.237  11.401
39216SOL    HW219488   7.950   1.252  11.465
39217SOL     OW19489   5.749   7.310  12.650
39217SOL    HW119490   5.829   7.282  12.694
39217SOL    HW219491   5.770   7.397  12.615
39218SOL     OW19492   9.215  13.461  11.420
39218SOL    HW119493   9.130  13.489  11.455
39218SOL    HW219494   9.267  13.440  11.498
39219SOL     OW19495   6.702   3.699  12.650
39219SOL    HW119496   6.738   3.786  12.668
39219SOL    HW219497   6.743   3.673  12.567
39220SOL     OW19498   7.893   4.510   2.158
39220SOL    HW119499   7.918   4.577   2.095
39220SOL    HW219500   7.885   4.556   2.241
39221SOL     OW19501  10.583   9.546  10.406
39221SOL    HW119502  10.539   9.503  10.332
39221SOL    HW219503  10.518   9.547  10.476
39222SOL     OW19504  13.029   3.395  14.623
39222SOL    HW119505  13.094   3.400  14.553
39222SOL    HW219506  13.031   3.482  14.664
39223SOL     OW19507   7.875   6.203  14.122
39223SOL    HW119508   7.808   6.164  14.179
39223SOL    HW219509   7.942   6.236  14.182
39224SOL     OW19510   1.346  13.177  11.434
39224SOL    HW119511   1.347  13.128  11.352
39224SOL    HW219512   1.382  13.117  11.499
39225SOL     OW19513   3.766   7.282   6.311
39225SOL    HW119514   3.860   7.291   6.297
39225SOL    HW219515   3.758   7.218   6.382
39226SOL     OW19516   7.151   9.638   8.474
39226SOL    HW119517   7.207   9.713   8.489
39226SOL    HW219518   7.062   9.674   8.474
39227SOL     OW19519   4.273   6.275   1.522
39227SOL    HW119520   4.226   6.322   1.591
39227SOL    HW219521   4.353   6.326   1.510
39228SOL     OW19522   6.589   9.505   1.791
39228SOL    HW119523   6.520   9.530   1.853
39228SOL    HW219524   6.629   9.427   1.830
39229SOL     OW19525   4.575   9.828   9.641
39229SOL    HW119526   4.667   9.844   9.623
39229SOL    HW219527   4.534   9.822   9.555
39230SOL     OW19528   0.833   8.090   2.702
39230SOL    HW119529   0.897   8.156   2.676
39230SOL    HW219530   0.759   8.140   2.735
39231SOL     OW19531  11.882  10.924   8.349
39231SOL    HW119532  11.929  10.909   8.431
39231SOL    HW219533  11.856  10.837   8.319
39232SOL     OW19534  14.750   7.667  13.588
39232SOL    HW119535  14.742   7.730  13.660
39232SOL    HW219536  14.746   7.721  13.509
39233SOL     OW19537   6.983  12.005   4.993
39233SOL    HW119538   6.962  12.098   4.997
39233SOL    HW219539   7.024  11.987   5.077
39234SOL     OW19540   5.033   5.762  13.994
39234SOL    HW119541   5.062   5.805  14.074
39234SOL    HW219542   4.958   5.815  13.965
39235SOL     OW19543  12.664  13.598   0.554
39235SOL    HW119544  12.676  13.598   0.459
39235SOL    HW219545  12.748  13.629   0.588
39236SOL     OW19546   2.469   7.130  12.260
39236SOL    HW119547   2.454   7.210  12.209
39236SOL    HW219548   2.564   7.120  12.260
39237SOL     OW19549  13.812  12.477  13.230
39237SOL    HW119550  13.803  12.570  13.248
39237SOL    HW219551  13.808  12.435  13.316
39238SOL     OW19552   3.479  11.209   6.040
39238SOL    HW119553   3.552  11.204   5.978
39238SOL    HW219554   3.480  11.299   6.072
39239SOL     OW19555   9.547   7.924   3.053
39239SOL    HW119556   9.460   7.914   3.092
39239SOL    HW219557   9.607   7.901   3.124
39240SOL     OW19558   9.895   7.674   9.726
39240SOL    HW119559   9.857   7.700   9.642
39240SOL    HW219560   9.825   7.686   9.789
39241SOL     OW19561   8.921   6.513   3.299
39241SOL    HW119562   8.930   6.499   3.393
39241SOL    HW219563   9.007   6.546   3.271
39242SOL     OW19564   9.676  13.503   2.904
39242SOL    HW119565   9.679  13.532   2.995
39242SOL    HW219566   9.756  13.451   2.893
39243SOL     OW19567   2.311   3.232   7.260
39243SOL    HW119568   2.256   3.305   7.288
39243SOL    HW219569   2.401   3.263   7.271
39244SOL     OW19570   0.502   0.515   8.830
39244SOL    HW119571   0.555   0.528   8.909
39244SOL    HW219572   0.414   0.498   8.863
39245SOL     OW19573   7.657   2.621  11.449
39245SOL    HW119574   7.652   2.698  11.392
39245SOL    HW219575   7.630   2.653  11.535
39246SOL     OW19576   6.905   1.214  11.271
39246SOL    HW119577   6.999   1.229  11.272
39246SOL    HW219578   6.894   1.138  11.213
39247SOL     OW19579   4.394   6.377   7.355
39247SOL    HW119580   4.471   6.321   7.352
39247SOL    HW219581   4.380   6.395   7.448
39248SOL     OW19582   4.311   3.327  10.015
39248SOL    HW119583   4.269   3.242  10.021
39248SOL    HW219584   4.346   3.342  10.103
39249SOL     OW19585   9.071   2.190   5.072
39249SOL    HW119586   9.051   2.277   5.038
39249SOL    HW219587   9.142   2.204   5.135
39250SOL     OW19588   8.505  13.198   2.420
39250SOL    HW119589   8.526  13.211   2.513
39250SOL    HW219590   8.409  13.189   2.419
39251SOL     OW19591   8.260  12.652  12.267
39251SOL    HW119592   8.221  12.730  12.306
39251SOL    HW219593   8.215  12.579  12.310
39252SOL     OW19594   5.426   9.201  12.883
39252SOL    HW119595   5.431   9.287  12.924
39252SOL    HW219596   5.452   9.140  12.952
39253SOL     OW19597   6.906   9.873   0.558
39253SOL    HW119598   6.878   9.830   0.639
39253SOL    HW219599   6.826   9.909   0.521
39254SOL     OW19600  13.806   6.569   8.155
39254SOL    HW119601  13.837   6.654   8.187
39254SOL    HW219602  13.789   6.519   8.235
39255SOL     OW19603   2.746   1.742  13.224
39255SOL    HW119604   2.697   1.752  13.306
39255SOL    HW219605   2.755   1.647  13.214
39256SOL     OW19606   2.074   7.958   2.093
39256SOL    HW119607   2.090   8.010   2.171
39256SOL    HW219608   1.986   7.982   2.066
39257SOL     OW19609   9.867   0.801   8.333
39257SOL    HW119610   9.951   0.844   8.348
39257SOL    HW219611   9.805   0.853   8.385
39258SOL     OW19612  14.538   6.165   0.717
39258SOL    HW119613  14.528   6.248   0.670
39258SOL    HW219614  14.464   6.163   0.778
39259SOL     OW19615   8.463   0.908   0.026
39259SOL    HW119616   8.399   0.944   0.089
39259SOL    HW219617   8.427   0.931  14.820
39260SOL     OW19618  12.257   4.300   2.575
39260SOL    HW119619  12.266   4.222   2.520
39260SOL    HW219620  12.163   4.318   2.576
39261SOL     OW19621   0.532   5.427   4.418
39261SOL    HW119622   0.461   5.409   4.356
39261SOL    HW219623   0.600   5.363   4.395
39262SOL     OW19624  12.646  12.634   4.160
39262SOL    HW119625  12.634  12.539   4.169
39262SOL    HW219626  12.673  12.663   4.247
39263SOL     OW19627   8.751  11.648   2.834
39263SOL    HW119628   8.711  11.633   2.919
39263SOL    HW219629   8.735  11.741   2.816
39264SOL     OW19630   0.700  14.478  13.372
39264SOL    HW119631   0.676  14.449  13.460
39264SOL    HW219632   0.753  14.406  13.337
39265SOL     OW19633   6.028  13.107   0.845
39265SOL    HW119634   5.992  13.176   0.789
39265SOL    HW219635   5.977  13.029   0.823
39266SOL     OW19636   5.845   8.978   9.730
39266SOL    HW119637   5.869   9.047   9.668
39266SOL    HW219638   5.804   9.025   9.803
39267SOL     OW19639   5.443   4.175   2.851
39267SOL    HW119640   5.458   4.215   2.936
39267SOL    HW219641   5.528   4.141   2.825
39268SOL     OW19642  10.252   2.583   5.805
39268SOL    HW119643  10.267   2.643   5.732
39268SOL    HW219644  10.339   2.564   5.840
39269SOL     OW19645   7.229  10.372   2.770
39269SOL    HW119646   7.223  10.393   2.677
39269SOL    HW219647   7.189  10.447   2.814
39270SOL     OW19648   9.432   0.649   9.398
39270SOL    HW119649   9.363   0.715   9.387
39270SOL    HW219650   9.429   0.626   9.491
39271SOL     OW19651   5.891   5.459   8.065
39271SOL    HW119652   5.852   5.373   8.081
39271SOL    HW219653   5.954   5.444   7.994
39272SOL     OW19654   0.758  10.717  12.112
39272SOL    HW119655   0.794  10.804  12.093
39272SOL    HW219656   0.776  10.704  12.205
39273SOL     OW19657  12.833   1.279   5.673
39273SOL    HW119658  12.748   1.238   5.693
39273SOL    HW219659  12.816   1.335   5.598
39274SOL     OW19660  14.122  12.403   3.897
39274SOL    HW119661  14.130  12.352   3.817
39274SOL    HW219662  14.030  12.431   3.899
39275SOL     OW19663  10.244   5.360   8.822
39275SOL    HW119664  10.235   5.375   8.728
39275SOL    HW219665  10.338   5.360   8.838
39276SOL     OW19666   6.993   5.584  13.350
39276SOL    HW119667   7.027   5.546  13.269
39276SOL    HW219668   7.067   5.629  13.389
39277SOL     OW19669  14.019  12.378   7.884
39277SOL    HW119670  13.960  12.384   7.809
39277SOL    HW219671  14.066  12.461   7.883
39278SOL     OW19672   6.313  10.066  10.563
39278SOL    HW119673   6.297  10.078  10.656
39278SOL    HW219674   6.406  10.085  10.552
39279SOL     OW19675  13.923   5.663   8.135
39279SOL    HW119676  13.838   5.658   8.091
39279SOL    HW219677  13.987   5.670   8.063
39280SOL     OW19678   0.186  14.685   5.329
39280SOL    HW119679   0.278  14.711   5.333
39280SOL    HW219680   0.185  14.609   5.271
39281SOL     OW19681   4.441   8.889  12.721
39281SOL    HW119682   4.348   8.871  12.711
39281SOL    HW219683   4.446   8.966  12.778
39282SOL     OW19684  13.676   9.299  12.488
39282SOL    HW119685  13.619   9.366  12.451
39282SOL    HW219686  13.757   9.345  12.511
39283SOL     OW19687   9.493   3.215   8.595
39283SOL    HW119688   9.523   3.208   8.505
39283SOL    HW219689   9.398   3.223   8.589
39284SOL     OW19690   4.694   5.994   1.368
39284SOL    HW119691   4.603   5.971   1.386
39284SOL    HW219692   4.721   6.047   1.443
39285SOL     OW19693   4.729   6.199   6.960
39285SOL    HW119694   4.685   6.284   6.962
39285SOL    HW219695   4.804   6.209   7.019
39286SOL     OW19696   8.426   8.975   4.647
39286SOL    HW119697   8.507   9.025   4.631
39286SOL    HW219698   8.358   9.042   4.655
39287SOL     OW19699   2.520   1.171   3.627
39287SOL    HW119700   2.596   1.216   3.592
39287SOL    HW219701   2.448   1.233   3.616
39288SOL     OW19702   3.188   9.256   2.121
39288SOL    HW119703   3.271   9.227   2.083
39288SOL    HW219704   3.212   9.327   2.180
39289SOL     OW19705   3.380   7.094   1.845
39289SOL    HW119706   3.448   7.059   1.786
39289SOL    HW219707   3.298   7.083   1.796
39290SOL     OW19708   5.765  14.412   1.778
39290SOL    HW119709   5.784  14.479   1.712
39290SOL    HW219710   5.848  14.399   1.823
39291SOL     OW19711  13.235   9.195  12.343
39291SOL    HW119712  13.195   9.263  12.397
39291SOL    HW219713  13.316   9.236  12.310
39292SOL     OW19714   2.934  13.178   7.161
39292SOL    HW119715   2.928  13.094   7.205
39292SOL    HW219716   2.999  13.227   7.211
39293SOL     OW19717   6.432   4.225   1.929
39293SOL    HW119718   6.479   4.296   1.973
39293SOL    HW219719   6.500   4.178   1.881
39294SOL     OW19720  13.939  11.989  13.170
39294SOL    HW119721  14.014  11.958  13.220
39294SOL    HW219722  13.937  11.934  13.092
39295SOL     OW19723   0.535   4.530  11.398
39295SOL    HW119724   0.610   4.481  11.364
39295SOL    HW219725   0.551   4.535  11.492
39296SOL     OW19726  11.389   6.336   7.908
39296SOL    HW119727  11.333   6.411   7.928
39296SOL    HW219728  11.371   6.316   7.816
39297SOL     OW19729   4.787   7.658  14.603
39297SOL    HW119730   4.768   7.738  14.554
39297SOL    HW219731   4.707   7.640  14.651
39298SOL     OW19732   1.271   0.455   6.114
39298SOL    HW119733   1.329   0.455   6.039
39298SOL    HW219734   1.226   0.539   6.110
39299SOL     OW19735   8.012  12.114   2.064
39299SOL    HW119736   7.928  12.071   2.083
39299SOL    HW219737   8.073  12.041   2.051
39300SOL     OW19738  13.711  11.979   6.151
39300SOL    HW119739  13.686  11.898   6.195
39300SOL    HW219740  13.729  11.953   6.061
39301SOL     OW19741  11.870  11.704  14.794
39301SOL    HW119742  11.841  11.745  14.712
39301SOL    HW219743  11.951  11.659  14.771
39302SOL     OW19744  12.630   6.189   0.534
39302SOL    HW119745  12.687   6.212   0.460
39302SOL    HW219746  12.687   6.198   0.611
39303SOL     OW19747   4.598   2.562  14.837
39303SOL    HW119748   4.692   2.568  14.826
39303SOL    HW219749   4.585   2.487   0.015
39304SOL     OW19750   0.263   7.287  11.936
39304SOL    HW119751   0.267   7.192  11.931
39304SOL    HW219752   0.170   7.307  11.940
39305SOL     OW19753   1.534   4.330   9.506
39305SOL    HW119754   1.501   4.388   9.437
39305SOL    HW219755   1.464   4.327   9.571
39306SOL     OW19756   5.092   3.259   5.552
39306SOL    HW119757   5.052   3.233   5.469
39306SOL    HW219758   5.059   3.196   5.615
39307SOL     OW19759   4.852   8.997  10.639
39307SOL    HW119760   4.879   8.991  10.548
39307SOL    HW219761   4.778   8.936  10.646
39308SOL     OW19762   6.883   4.154   4.254
39308SOL    HW119763   6.858   4.246   4.247
39308SOL    HW219764   6.966   4.156   4.302
39309SOL     OW19765   0.259  13.660   5.245
39309SOL    HW119766   0.311  13.678   5.166
39309SOL    HW219767   0.181  13.615   5.214
39310SOL     OW19768  12.241  10.129  12.667
39310SOL    HW119769  12.304  10.176  12.613
39310SOL    HW219770  12.156  10.165  12.642
39311SOL     OW19771   0.288   2.134  11.802
39311SOL    HW119772   0.236   2.211  11.780
39311SOL    HW219773   0.282   2.127  11.897
39312SOL     OW19774   5.199  13.078   4.825
39312SOL    HW119775   5.142  13.154   4.820
39312SOL    HW219776   5.188  13.046   4.915
39313SOL     OW19777   2.812  10.803   8.711
39313SOL    HW119778   2.778  10.863   8.777
39313SOL    HW219779   2.809  10.717   8.754
39314SOL     OW19780   2.999   5.258   3.953
39314SOL    HW119781   3.049   5.309   4.017
39314SOL    HW219782   2.938   5.207   4.007
39315SOL     OW19783   5.212   0.901  11.423
39315SOL    HW119784   5.169   0.820  11.395
39315SOL    HW219785   5.261   0.877  11.501
39316SOL     OW19786  13.599   2.472   4.713
39316SOL    HW119787  13.683   2.503   4.681
39316SOL    HW219788  13.546   2.461   4.634
39317SOL     OW19789   1.875   1.309  12.990
39317SOL    HW119790   1.783   1.314  13.013
39317SOL    HW219791   1.892   1.216  12.975
39318SOL     OW19792   5.753  11.673   3.562
39318SOL    HW119793   5.680  11.728   3.534
39318SOL    HW219794   5.745  11.594   3.508
39319SOL     OW19795   1.329   5.532   9.032
39319SOL    HW119796   1.297   5.618   9.008
39319SOL    HW219797   1.350   5.539   9.125
39320SOL     OW19798  14.159   2.779   7.122
39320SOL    HW119799  14.201   2.865   7.118
39320SOL    HW219800  14.070   2.794   7.092
39321SOL     OW19801   5.640   6.223  10.543
39321SOL    HW119802   5.704   6.191  10.480
39321SOL    HW219803   5.640   6.156  10.612
39322SOL     OW19804   0.423   0.167  12.898
39322SOL    HW119805   0.334   0.138  12.919
39322SOL    HW219806   0.449   0.112  12.823
39323SOL     OW19807  11.836   0.986   2.031
39323SOL    HW119808  11.906   0.929   2.063
39323SOL    HW219809  11.784   0.930   1.973
39324SOL     OW19810   5.602   1.781   7.054
39324SOL    HW119811   5.613   1.766   6.960
39324SOL    HW219812   5.690   1.801   7.085
39325SOL     OW19813   9.573  14.165   7.742
39325SOL    HW119814   9.535  14.249   7.717
39325SOL    HW219815   9.542  14.150   7.831
39326SOL     OW19816   4.407   8.450  14.098
39326SOL    HW119817   4.396   8.396  14.176
39326SOL    HW219818   4.443   8.391  14.032
39327SOL     OW19819   8.522   7.855  12.073
39327SOL    HW119820   8.437   7.850  12.029
39327SOL    HW219821   8.556   7.941  12.051
39328SOL     OW19822   8.124  10.871   7.597
39328SOL    HW119823   8.113  10.945   7.536
39328SOL    HW219824   8.197  10.822   7.561
39329SOL     OW19825  10.213   6.341   6.193
39329SOL    HW119826  10.175   6.359   6.107
39329SOL    HW219827  10.287   6.401   6.200
39330SOL     OW19828  12.626   1.232  14.872
39330SOL    HW119829  12.550   1.176  14.860
39330SOL    HW219830  12.623   1.293  14.798
39331SOL     OW19831   1.747  10.834   2.485
39331SOL    HW119832   1.835  10.797   2.478
39331SOL    HW219833   1.712  10.800   2.567
39332SOL     OW19834  11.357   3.156   7.416
39332SOL    HW119835  11.354   3.193   7.504
39332SOL    HW219836  11.365   3.232   7.359
39333SOL     OW19837   0.920   3.036   0.724
39333SOL    HW119838   0.880   3.053   0.639
39333SOL    HW219839   0.846   3.017   0.782
39334SOL     OW19840   3.404   7.555   2.434
39334SOL    HW119841   3.381   7.643   2.461
39334SOL    HW219842   3.470   7.567   2.366
39335SOL     OW19843   7.618   8.402   0.172
39335SOL    HW119844   7.702   8.417   0.129
39335SOL    HW219845   7.607   8.476   0.231
39336SOL     OW19846   6.220   6.015  14.299
39336SOL    HW119847   6.225   6.016  14.394
39336SOL    HW219848   6.265   5.935  14.273
39337SOL     OW19849   8.712  14.528   4.538
39337SOL    HW119850   8.757  14.487   4.464
39337SOL    HW219851   8.772  14.517   4.612
39338SOL     OW19852   2.509  14.177  13.161
39338SOL    HW119853   2.532  14.232  13.236
39338SOL    HW219854   2.575  14.197  13.095
39339SOL     OW19855   9.080   8.159   9.208
39339SOL    HW119856   9.085   8.105   9.130
39339SOL    HW219857   9.002   8.129   9.254
39340SOL     OW19858  11.409   6.045  10.917
39340SOL    HW119859  11.440   5.956  10.899
39340SOL    HW219860  11.411   6.052  11.012
39341SOL     OW19861  14.054   5.255  13.054
39341SOL    HW119862  13.989   5.324  13.067
39341SOL    HW219863  14.138   5.299  13.068
39342SOL     OW19864  12.497   6.695   7.367
39342SOL    HW119865  12.429   6.716   7.431
39342SOL    HW219866  12.545   6.622   7.407
39343SOL     OW19867   8.538   2.496  11.796
39343SOL    HW119868   8.601   2.559  11.829
39343SOL    HW219869   8.483   2.546  11.735
39344SOL     OW19870   3.524  14.784   3.215
39344SOL    HW119871   3.519  14.821   3.127
39344SOL    HW219872   3.506  14.691   3.203
39345SOL     OW19873   3.561  10.399  13.620
39345SOL    HW119874   3.474  10.413  13.584
39345SOL    HW219875   3.588  10.485  13.654
39346SOL     OW19876  11.496   8.656   6.147
39346SOL    HW119877  11.588   8.650   6.119
39346SOL    HW219878  11.491   8.740   6.193
39347SOL     OW19879   1.996   9.631   6.444
39347SOL    HW119880   2.052   9.567   6.487
39347SOL    HW219881   2.032   9.639   6.356
39348SOL     OW19882  12.110  12.057   2.028
39348SOL    HW119883  12.086  12.086   2.116
39348SOL    HW219884  12.204  12.041   2.033
39349SOL     OW19885   0.181  13.771  14.644
39349SOL    HW119886   0.273  13.798  14.641
39349SOL    HW219887   0.160  13.770  14.737
39350SOL     OW19888   1.976   9.266  11.979
39350SOL    HW119889   2.056   9.213  11.987
39350SOL    HW219890   1.918   9.233  12.047
39351SOL     OW19891  11.198   1.372  14.731
39351SOL    HW119892  11.109   1.386  14.762
39351SOL    HW219893  11.236   1.311  14.794
39352SOL     OW19894  10.447   2.404   2.122
39352SOL    HW119895  10.520   2.346   2.143
39352SOL    HW219896  10.369   2.356   2.150
39353SOL     OW19897  10.133  12.110   0.741
39353SOL    HW119898  10.216  12.144   0.706
39353SOL    HW219899  10.070  12.179   0.722
39354SOL     OW19900  11.350  14.661   7.340
39354SOL    HW119901  11.415  14.689   7.276
39354SOL    HW219902  11.316  14.743   7.377
39355SOL     OW19903   6.124   9.845  11.268
39355SOL    HW119904   6.104   9.755  11.293
39355SOL    HW219905   6.109   9.896  11.348
39356SOL     OW19906   7.179  13.788  13.817
39356SOL    HW119907   7.152  13.861  13.762
39356SOL    HW219908   7.259  13.755  13.775
39357SOL     OW19909   7.185   2.821   5.244
39357SOL    HW119910   7.279   2.802   5.241
39357SOL    HW219911   7.176   2.906   5.202
39358SOL     OW19912   1.671   9.122   8.924
39358SOL    HW119913   1.632   9.209   8.914
39358SOL    HW219914   1.719   9.107   8.843
39359SOL     OW19915   4.874   5.298   0.584
39359SOL    HW119916   4.903   5.372   0.637
39359SOL    HW219917   4.826   5.242   0.645
39360SOL     OW19918   9.192  12.270  10.089
39360SOL    HW119919   9.245  12.232  10.019
39360SOL    HW219920   9.132  12.201  10.115
39361SOL     OW19921   1.985  10.840   6.712
39361SOL    HW119922   1.971  10.929   6.680
39361SOL    HW219923   2.010  10.852   6.804
39362SOL     OW19924   5.456   1.203  14.755
39362SOL    HW119925   5.448   1.181  14.662
39362SOL    HW219926   5.541   1.167  14.781
39363SOL     OW19927   0.526   7.274  14.682
39363SOL    HW119928   0.432   7.258  14.690
39363SOL    HW219929   0.533   7.345  14.618
39364SOL     OW19930   8.167   9.482   5.644
39364SOL    HW119931   8.162   9.428   5.565
39364SOL    HW219932   8.178   9.572   5.611
39365SOL     OW19933   1.139  12.365  12.103
39365SOL    HW119934   1.160  12.333  12.015
39365SOL    HW219935   1.189  12.447  12.111
39366SOL     OW19936   8.027   6.164   5.005
39366SOL    HW119937   8.041   6.072   4.985
39366SOL    HW219938   8.003   6.165   5.098
39367SOL     OW19939  14.077  14.640   4.155
39367SOL    HW119940  14.111  14.729   4.144
39367SOL    HW219941  13.986  14.645   4.128
39368SOL     OW19942  10.540   4.665  10.276
39368SOL    HW119943  10.478   4.655  10.348
39368SOL    HW219944  10.549   4.759  10.264
39369SOL     OW19945   6.180   3.793  13.865
39369SOL    HW119946   6.164   3.854  13.937
39369SOL    HW219947   6.266   3.755  13.885
39370SOL     OW19948   8.030   6.463   8.991
39370SOL    HW119949   7.936   6.452   8.980
39370SOL    HW219950   8.046   6.554   8.967
39371SOL     OW19951   0.869   1.927   0.448
39371SOL    HW119952   0.800   1.982   0.412
39371SOL    HW219953   0.842   1.838   0.426
39372SOL     OW19954  14.357  11.762   4.204
39372SOL    HW119955  14.348  11.843   4.253
39372SOL    HW219956  14.436  11.775   4.150
39373SOL     OW19957   5.632   3.108   5.508
39373SOL    HW119958   5.563   3.135   5.569
39373SOL    HW219959   5.712   3.146   5.544
39374SOL     OW19960  11.182   8.184  13.566
39374SOL    HW119961  11.238   8.240  13.620
39374SOL    HW219962  11.177   8.102  13.614
39375SOL     OW19963   7.092   9.619   0.466
39375SOL    HW119964   7.005   9.579   0.463
39375SOL    HW219965   7.152   9.545   0.474
39376SOL     OW19966   7.588   0.518   7.248
39376SOL    HW119967   7.574   0.595   7.303
39376SOL    HW219968   7.519   0.523   7.182
39377SOL     OW19969   6.869   9.969   4.372
39377SOL    HW119970   6.943   9.908   4.372
39377SOL    HW219971   6.802   9.926   4.318
39378SOL     OW19972   0.705   0.957   9.982
39378SOL    HW119973   0.696   1.052   9.985
39378SOL    HW219974   0.798   0.941   9.994
39379SOL     OW19975  13.298   7.223   0.478
39379SOL    HW119976  13.359   7.184   0.416
39379SOL    HW219977  13.353   7.259   0.548
39380SOL     OW19978   0.608   3.472   3.591
39380SOL    HW119979   0.605   3.389   3.639
39380SOL    HW219980   0.579   3.537   3.654
39381SOL     OW19981   3.023   9.382   9.475
39381SOL    HW119982   3.022   9.364   9.381
39381SOL    HW219983   3.067   9.467   9.483
39382SOL     OW19984   6.766  11.703  14.484
39382SOL    HW119985   6.777  11.637  14.553
39382SOL    HW219986   6.671  11.715  14.478
39383SOL     OW19987   0.336   3.406   7.177
39383SOL    HW119988   0.408   3.412   7.114
39383SOL    HW219989   0.270   3.353   7.133
39384SOL     OW19990  11.129   5.368   6.302
39384SOL    HW119991  11.160   5.399   6.387
39384SOL    HW219992  11.142   5.274   6.304
39385SOL     OW19993  13.413  13.267   2.766
39385SOL    HW119994  13.478  13.309   2.708
39385SOL    HW219995  13.462  13.199   2.811
39386SOL     OW19996   2.195  12.186   0.172
39386SOL    HW119997   2.287  12.190   0.143
39386SOL    HW219998   2.170  12.277   0.184
39387SOL     OW19999   4.308   6.711  13.616
39387SOL    HW120000   4.295   6.690  13.524
39387SOL    HW220001   4.222   6.695  13.657
39388SOL     OW20002   3.635   4.701   7.128
39388SOL    HW120003   3.649   4.782   7.079
39388SOL    HW220004   3.562   4.658   7.084
39389SOL     OW20005   4.230   6.380   3.392
39389SOL    HW120006   4.147   6.393   3.438
39389SOL    HW220007   4.250   6.287   3.404
39390SOL     OW20008  14.154   0.404   9.813
39390SOL    HW120009  14.180   0.491   9.783
39390SOL    HW220010  14.062   0.413   9.839
39391SOL     OW20011   1.181   5.083   4.579
39391SOL    HW120012   1.096   5.110   4.613
39391SOL    HW220013   1.233   5.163   4.579
39392SOL     OW20014   4.154  13.161   4.638
39392SOL    HW120015   4.132  13.069   4.631
39392SOL    HW220016   4.070  13.206   4.646
39393SOL     OW20017   2.274   9.459  11.879
39393SOL    HW120018   2.358   9.483  11.916
39393SOL    HW220019   2.285   9.367  11.853
39394SOL     OW20020   0.296   7.828   3.900
39394SOL    HW120021   0.341   7.809   3.819
39394SOL    HW220022   0.310   7.922   3.914
39395SOL     OW20023  14.793   4.615   0.682
39395SOL    HW120024  14.820   4.706   0.695
39395SOL    HW220025  14.860   4.563   0.726
39396SOL     OW20026   8.912   8.785   2.190
39396SOL    HW120027   8.988   8.829   2.151
39396SOL    HW220028   8.838   8.843   2.170
39397SOL     OW20029   2.688   2.899   1.075
39397SOL    HW120030   2.600   2.862   1.085
39397SOL    HW220031   2.745   2.839   1.123
39398SOL     OW20032  10.843   8.169  14.172
39398SOL    HW120033  10.912   8.107  14.147
39398SOL    HW220034  10.886   8.254  14.168
39399SOL     OW20035   6.365  11.064  12.768
39399SOL    HW120036   6.399  10.983  12.805
39399SOL    HW220037   6.276  11.042  12.741
39400SOL     OW20038   4.579   4.303  12.310
39400SOL    HW120039   4.590   4.375  12.372
39400SOL    HW220040   4.636   4.234  12.343
39401SOL     OW20041   6.021  14.737   1.831
39401SOL    HW120042   6.090  14.803   1.836
39401SOL    HW220043   5.941  14.784   1.856
39402SOL     OW20044   0.239   9.335   0.269
39402SOL    HW120045   0.188   9.315   0.348
39402SOL    HW220046   0.320   9.286   0.280
39403SOL     OW20047  11.749  12.735  11.945
39403SOL    HW120048  11.823  12.722  11.885
39403SOL    HW220049  11.672  12.726  11.889
39404SOL     OW20050   2.152  10.234   8.807
39404SOL    HW120051   2.077  10.182   8.836
39404SOL    HW220052   2.113  10.308   8.761
39405SOL     OW20053  13.895   3.775   5.039
39405SOL    HW120054  13.910   3.788   4.945
39405SOL    HW220055  13.976   3.734   5.070
39406SOL     OW20056  13.060  13.799   0.428
39406SOL    HW120057  12.970  13.786   0.456
39406SOL    HW220058  13.053  13.844   0.344
39407SOL     OW20059   3.859   8.190  12.758
39407SOL    HW120060   3.799   8.183  12.832
39407SOL    HW220061   3.884   8.099  12.739
39408SOL     OW20062   3.491   6.958  10.261
39408SOL    HW120063   3.536   7.020  10.202
39408SOL    HW220064   3.538   6.876  10.248
39409SOL     OW20065  12.835  10.587   2.307
39409SOL    HW120066  12.823  10.609   2.215
39409SOL    HW220067  12.906  10.644   2.336
39410SOL     OW20068  10.651  10.771   6.608
39410SOL    HW120069  10.674  10.730   6.525
39410SOL    HW220070  10.658  10.865   6.591
39411SOL     OW20071  14.594   3.258   7.612
39411SOL    HW120072  14.530   3.263   7.683
39411SOL    HW220073  14.580   3.339   7.562
39412SOL     OW20074  10.754   1.234   5.438
39412SOL    HW120075  10.718   1.238   5.349
39412SOL    HW220076  10.837   1.281   5.432
39413SOL     OW20077  12.290   0.038  11.784
39413SOL    HW120078  12.302   0.132  11.770
39413SOL    HW220079  12.286   0.000  11.696
39414SOL     OW20080   7.692  10.989   2.019
39414SOL    HW120081   7.656  10.971   2.105
39414SOL    HW220082   7.673  10.910   1.968
39415SOL     OW20083  14.824  10.522   4.794
39415SOL    HW120084  14.844  10.437   4.754
39415SOL    HW220085  14.836  10.585   4.723
39416SOL     OW20086  10.709   7.154  13.281
39416SOL    HW120087  10.727   7.080  13.338
39416SOL    HW220088  10.791   7.204  13.280
39417SOL     OW20089  13.947  11.148  10.298
39417SOL    HW120090  13.938  11.053  10.307
39417SOL    HW220091  13.859  11.179  10.278
39418SOL     OW20092  14.729   4.964   0.767
39418SOL    HW120093  14.636   4.976   0.789
39418SOL    HW220094  14.750   5.038   0.709
39419SOL     OW20095   9.142   3.559   5.621
39419SOL    HW120096   9.194   3.568   5.701
39419SOL    HW220097   9.195   3.505   5.563
39420SOL     OW20098   6.562   1.276  10.687
39420SOL    HW120099   6.565   1.261  10.781
39420SOL    HW220100   6.543   1.190  10.649
39421SOL     OW20101  11.371  14.271   1.276
39421SOL    HW120102  11.293  14.250   1.327
39421SOL    HW220103  11.428  14.317   1.337
39422SOL     OW20104   3.057   9.765  13.973
39422SOL    HW120105   2.980   9.736  14.022
39422SOL    HW220106   3.038   9.743  13.882
39423SOL     OW20107   8.010   9.300  14.772
39423SOL    HW120108   8.068   9.300  14.695
39423SOL    HW220109   8.060   9.251  14.838
39424SOL     OW20110   5.584   8.471   3.073
39424SOL    HW120111   5.595   8.523   3.153
39424SOL    HW220112   5.600   8.381   3.101
39425SOL     OW20113  14.656  10.040   0.706
39425SOL    HW120114  14.576   9.989   0.716
39425SOL    HW220115  14.637  10.100   0.633
39426SOL     OW20116  14.589  12.199   2.468
39426SOL    HW120117  14.581  12.103   2.464
39426SOL    HW220118  14.657  12.214   2.534
39427SOL     OW20119  14.148  10.928  13.792
39427SOL    HW120120  14.070  10.890  13.752
39427SOL    HW220121  14.121  10.950  13.881
39428SOL     OW20122   2.492  13.491  13.805
39428SOL    HW120123   2.549  13.451  13.739
39428SOL    HW220124   2.410  13.442  13.799
39429SOL     OW20125   6.305   1.591  11.499
39429SOL    HW120126   6.231   1.542  11.533
39429SOL    HW220127   6.268   1.648  11.432
39430SOL     OW20128   1.946   5.008  11.857
39430SOL    HW120129   1.877   5.057  11.812
39430SOL    HW220130   1.999   5.075  11.901
39431SOL     OW20131   6.367  13.227   2.520
39431SOL    HW120132   6.414  13.311   2.523
39431SOL    HW220133   6.288  13.247   2.469
39432SOL     OW20134   2.748   0.226   7.219
39432SOL    HW120135   2.809   0.252   7.150
39432SOL    HW220136   2.663   0.218   7.175
39433SOL     OW20137  13.088   5.306   5.877
39433SOL    HW120138  13.050   5.219   5.888
39433SOL    HW220139  13.153   5.295   5.808
39434SOL     OW20140   5.323  11.677   0.565
39434SOL    HW120141   5.314  11.593   0.520
39434SOL    HW220142   5.299  11.743   0.499
39435SOL     OW20143   6.525   9.371  11.801
39435SOL    HW120144   6.563   9.313  11.867
39435SOL    HW220145   6.580   9.450  11.803
39436SOL     OW20146  10.830   1.013   8.564
39436SOL    HW120147  10.866   1.078   8.625
39436SOL    HW220148  10.897   0.945   8.559
39437SOL     OW20149  11.630   5.906   5.414
39437SOL    HW120150  11.583   5.823   5.426
39437SOL    HW220151  11.707   5.898   5.471
39438SOL     OW20152  14.469   7.884   3.124
39438SOL    HW120153  14.547   7.828   3.120
39438SOL    HW220154  14.418   7.847   3.196
39439SOL     OW20155   4.031  14.469   9.911
39439SOL    HW120156   4.007  14.460  10.003
39439SOL    HW220157   4.065  14.382   9.887
39440SOL     OW20158   4.672   7.493  10.181
39440SOL    HW120159   4.712   7.559  10.237
39440SOL    HW220160   4.703   7.515  10.093
39441SOL     OW20161   6.998  14.666  12.156
39441SOL    HW120162   6.944  14.589  12.139
39441SOL    HW220163   7.027  14.694  12.070
39442SOL     OW20164   5.798  13.656   2.095
39442SOL    HW120165   5.732  13.641   2.163
39442SOL    HW220166   5.772  13.598   2.023
39443SOL     OW20167  13.908   2.756   7.828
39443SOL    HW120168  13.838   2.820   7.815
39443SOL    HW220169  13.884   2.682   7.773
39444SOL     OW20170   6.151   7.762   5.455
39444SOL    HW120171   6.184   7.694   5.513
39444SOL    HW220172   6.077   7.721   5.410
39445SOL     OW20173   6.163   1.217   3.798
39445SOL    HW120174   6.191   1.145   3.741
39445SOL    HW220175   6.191   1.296   3.752
39446SOL     OW20176   8.727  13.715   7.468
39446SOL    HW120177   8.749  13.762   7.387
39446SOL    HW220178   8.792  13.744   7.532
39447SOL     OW20179  14.328  13.626   2.254
39447SOL    HW120180  14.239  13.662   2.254
39447SOL    HW220181  14.334  13.577   2.172
39448SOL     OW20182   3.048   2.973   9.138
39448SOL    HW120183   2.969   2.961   9.085
39448SOL    HW220184   3.076   2.884   9.161
39449SOL     OW20185   1.059   1.351  13.020
39449SOL    HW120186   1.106   1.366  12.938
39449SOL    HW220187   0.970   1.331  12.994
39450SOL     OW20188   3.411   1.921   9.337
39450SOL    HW120189   3.462   1.906   9.258
39450SOL    HW220190   3.475   1.946   9.403
39451SOL     OW20191  13.381   4.348   0.497
39451SOL    HW120192  13.452   4.364   0.560
39451SOL    HW220193  13.420   4.289   0.433
39452SOL     OW20194   7.784  10.263   5.339
39452SOL    HW120195   7.727  10.340   5.347
39452SOL    HW220196   7.860  10.294   5.290
39453SOL     OW20197   9.217   7.622   5.194
39453SOL    HW120198   9.136   7.599   5.240
39453SOL    HW220199   9.263   7.539   5.184
39454SOL     OW20200   1.716   3.688   3.681
39454SOL    HW120201   1.660   3.766   3.682
39454SOL    HW220202   1.727   3.665   3.773
39455SOL     OW20203   9.214   3.901   4.723
39455SOL    HW120204   9.306   3.897   4.699
39455SOL    HW220205   9.204   3.834   4.791
39456SOL     OW20206   8.312   1.494   7.848
39456SOL    HW120207   8.280   1.507   7.938
39456SOL    HW220208   8.368   1.570   7.832
39457SOL     OW20209   0.532   8.103  12.600
39457SOL    HW120210   0.569   8.184  12.565
39457SOL    HW220211   0.446   8.128  12.633
39458SOL     OW20212  14.329  14.223   3.874
39458SOL    HW120213  14.417  14.214   3.910
39458SOL    HW220214  14.340  14.212   3.780
39459SOL     OW20215  13.106   3.392   8.841
39459SOL    HW120216  13.134   3.369   8.929
39459SOL    HW220217  13.183   3.435   8.802
39460SOL     OW20218   0.158   0.177  13.948
39460SOL    HW120219   0.236   0.231  13.962
39460SOL    HW220220   0.088   0.224  13.994
39461SOL     OW20221  11.185   2.100   7.851
39461SOL    HW120222  11.166   2.012   7.818
39461SOL    HW220223  11.125   2.112   7.925
39462SOL     OW20224   2.865   5.897  13.686
39462SOL    HW120225   2.835   5.886  13.776
39462SOL    HW220226   2.901   5.812  13.661
39463SOL     OW20227   2.375   8.904   0.332
39463SOL    HW120228   2.435   8.829   0.335
39463SOL    HW220229   2.293   8.870   0.368
39464SOL     OW20230   8.221  14.842   2.701
39464SOL    HW120231   8.182   0.041   2.662
39464SOL    HW220232   8.184  14.838   2.790
39465SOL     OW20233   3.521  11.229   0.634
39465SOL    HW120234   3.442  11.280   0.654
39465SOL    HW220235   3.547  11.259   0.547
39466SOL     OW20236   2.673   7.156  14.801
39466SOL    HW120237   2.669   7.090  14.732
39466SOL    HW220238   2.767   7.165  14.819
39467SOL     OW20239   3.116  13.119   4.383
39467SOL    HW120240   3.200  13.075   4.398
39467SOL    HW220241   3.057  13.050   4.354
39468SOL     OW20242   0.975   5.678   4.234
39468SOL    HW120243   0.988   5.584   4.222
39468SOL    HW220244   0.883   5.686   4.260
39469SOL     OW20245   9.210   0.357   7.640
39469SOL    HW120246   9.230   0.444   7.675
39469SOL    HW220247   9.119   0.364   7.610
39470SOL     OW20248   6.010   1.637   2.467
39470SOL    HW120249   6.102   1.635   2.492
39470SOL    HW220250   5.963   1.607   2.545
39471SOL     OW20251   4.097  10.727   5.498
39471SOL    HW120252   4.013  10.770   5.483
39471SOL    HW220253   4.137  10.722   5.412
39472SOL     OW20254   2.193   9.797   5.494
39472SOL    HW120255   2.193   9.722   5.554
39472SOL    HW220256   2.277   9.840   5.511
39473SOL     OW20257   9.416   2.440   3.290
39473SOL    HW120258   9.474   2.451   3.215
39473SOL    HW220259   9.392   2.347   3.288
39474SOL     OW20260  13.430  14.716   9.089
39474SOL    HW120261  13.438  14.728   8.995
39474SOL    HW220262  13.389  14.796   9.121
39475SOL     OW20263   0.528   3.905  14.300
39475SOL    HW120264   0.598   3.963  14.269
39475SOL    HW220265   0.535   3.826  14.246
39476SOL     OW20266   4.004   4.092  11.583
39476SOL    HW120267   4.040   4.031  11.648
39476SOL    HW220268   3.911   4.067  11.576
39477SOL     OW20269   0.804   8.506   5.020
39477SOL    HW120270   0.866   8.576   5.040
39477SOL    HW220271   0.724   8.532   5.065
39478SOL     OW20272   2.036  11.822   4.092
39478SOL    HW120273   2.023  11.838   3.999
39478SOL    HW220274   2.122  11.782   4.099
39479SOL     OW20275   0.268  11.168   6.788
39479SOL    HW120276   0.245  11.202   6.702
39479SOL    HW220277   0.311  11.241   6.833
39480SOL     OW20278  11.245   4.379  14.578
39480SOL    HW120279  11.330   4.418  14.560
39480SOL    HW220280  11.195   4.390  14.497
39481SOL     OW20281   1.438   3.606   2.662
39481SOL    HW120282   1.382   3.597   2.585
39481SOL    HW220283   1.526   3.620   2.626
39482SOL     OW20284  13.558  13.795   7.535
39482SOL    HW120285  13.626  13.849   7.496
39482SOL    HW220286  13.486  13.795   7.472
39483SOL     OW20287   0.549   6.735   7.984
39483SOL    HW120288   0.612   6.729   8.055
39483SOL    HW220289   0.464   6.721   8.025
39484SOL     OW20290   3.243  11.376   1.847
39484SOL    HW120291   3.163  11.425   1.829
39484SOL    HW220292   3.312  11.442   1.845
39485SOL     OW20293   7.144   4.700   0.800
39485SOL    HW120294   7.077   4.765   0.819
39485SOL    HW220295   7.133   4.634   0.868
39486SOL     OW20296  12.834   0.857   2.925
39486SOL    HW120297  12.917   0.901   2.946
39486SOL    HW220298  12.847   0.821   2.838
39487SOL     OW20299   6.627   5.024   7.494
39487SOL    HW120300   6.633   5.082   7.419
39487SOL    HW220301   6.633   4.936   7.457
39488SOL     OW20302  11.074   5.197   9.621
39488SOL    HW120303  11.113   5.217   9.536
39488SOL    HW220304  11.050   5.104   9.615
39489SOL     OW20305   8.703   0.599   1.725
39489SOL    HW120306   8.745   0.685   1.729
39489SOL    HW220307   8.718   0.562   1.812
39490SOL     OW20308   6.626   7.306   7.695
39490SOL    HW120309   6.628   7.273   7.605
39490SOL    HW220310   6.567   7.382   7.691
39491SOL     OW20311  12.328   5.043   1.108
39491SOL    HW120312  12.350   5.012   1.195
39491SOL    HW220313  12.233   5.049   1.107
39492SOL     OW20314   7.642   6.187   4.051
39492SOL    HW120315   7.547   6.194   4.054
39492SOL    HW220316   7.667   6.228   3.968
39493SOL     OW20317   2.141  12.216  11.542
39493SOL    HW120318   2.090  12.136  11.530
39493SOL    HW220319   2.082  12.277  11.586
39494SOL     OW20320   9.683   1.132   2.974
39494SOL    HW120321   9.647   1.202   3.029
39494SOL    HW220322   9.777   1.135   2.991
39495SOL     OW20323   0.602   2.747   8.404
39495SOL    HW120324   0.672   2.813   8.396
39495SOL    HW220325   0.551   2.776   8.480
39496SOL     OW20326  14.123   6.177   5.407
39496SOL    HW120327  14.054   6.228   5.450
39496SOL    HW220328  14.084   6.091   5.393
39497SOL     OW20329   5.580   8.336   7.222
39497SOL    HW120330   5.531   8.418   7.228
39497SOL    HW220331   5.602   8.314   7.313
39498SOL     OW20332   3.133  13.056   7.633
39498SOL    HW120333   3.188  13.114   7.685
39498SOL    HW220334   3.145  12.970   7.673
39499SOL     OW20335   1.095   4.162   2.104
39499SOL    HW120336   1.026   4.120   2.054
39499SOL    HW220337   1.162   4.094   2.114
39500SOL     OW20338  14.668  12.031  12.227
39500SOL    HW120339  14.607  11.964  12.258
39500SOL    HW220340  14.670  12.096  12.298
39501SOL     OW20341   8.223   2.905  13.203
39501SOL    HW120342   8.191   2.963  13.272
39501SOL    HW220343   8.310   2.937  13.183
39502SOL     OW20344   7.249   1.801   9.728
39502SOL    HW120345   7.158   1.826   9.713
39502SOL    HW220346   7.299   1.859   9.670
39503SOL     OW20347  14.346   5.275  13.104
39503SOL    HW120348  14.349   5.181  13.123
39503SOL    HW220349  14.388   5.284  13.019
39504SOL     OW20350   4.094   6.578   2.030
39504SOL    HW120351   4.035   6.591   1.956
39504SOL    HW220352   4.159   6.514   1.998
39505SOL     OW20353   7.374  14.696   9.735
39505SOL    HW120354   7.445  14.710   9.797
39505SOL    HW220355   7.307  14.760   9.759
39506SOL     OW20356   4.778  14.324   6.277
39506SOL    HW120357   4.725  14.245   6.278
39506SOL    HW220358   4.715  14.396   6.274
39507SOL     OW20359   9.519  14.766   5.044
39507SOL    HW120360   9.483  14.824   5.111
39507SOL    HW220361   9.568  14.824   4.986
39508SOL     OW20362   6.061   0.353   3.780
39508SOL    HW120363   6.001   0.291   3.821
39508SOL    HW220364   6.131   0.365   3.844
39509SOL     OW20365   2.803   0.069   5.019
39509SOL    HW120366   2.864   0.007   4.979
39509SOL    HW220367   2.720   0.052   4.975
39510SOL     OW20368   8.132   6.430  13.657
39510SOL    HW120369   8.068   6.495  13.626
39510SOL    HW220370   8.217   6.468  13.636
39511SOL     OW20371   8.346   7.927  10.821
39511SOL    HW120372   8.404   7.859  10.857
39511SOL    HW220373   8.401   7.974  10.758
39512SOL     OW20374  14.789   4.134   7.750
39512SOL    HW120375  14.856   4.121   7.683
39512SOL    HW220376  14.706   4.128   7.703
39513SOL     OW20377   5.634   7.966   5.257
39513SOL    HW120378   5.685   8.039   5.292
39513SOL    HW220379   5.597   7.922   5.334
39514SOL     OW20380   7.583   2.060  14.577
39514SOL    HW120381   7.657   2.032  14.524
39514SOL    HW220382   7.617   2.135  14.627
39515SOL     OW20383   0.986   1.448   7.872
39515SOL    HW120384   0.968   1.458   7.965
39515SOL    HW220385   0.923   1.506   7.829
39516SOL     OW20386   1.156   6.602   7.744
39516SOL    HW120387   1.169   6.644   7.659
39516SOL    HW220388   1.153   6.674   7.806
39517SOL     OW20389   7.318   7.968  12.165
39517SOL    HW120390   7.349   7.989  12.077
39517SOL    HW220391   7.370   7.892  12.191
39518SOL     OW20392   2.986   6.101   9.443
39518SOL    HW120393   2.966   6.158   9.369
39518SOL    HW220394   2.916   6.036   9.443
39519SOL     OW20395   4.163   0.241  13.828
39519SOL    HW120396   4.227   0.271  13.764
39519SOL    HW220397   4.122   0.165  13.787
39520SOL     OW20398  13.343   4.996  13.190
39520SOL    HW120399  13.318   5.078  13.147
39520SOL    HW220400  13.373   5.023  13.277
39521SOL     OW20401  12.639   9.429   3.447
39521SOL    HW120402  12.726   9.470   3.445
39521SOL    HW220403  12.583   9.495   3.488
39522SOL     OW20404   6.762   9.243  11.093
39522SOL    HW120405   6.851   9.271  11.072
39522SOL    HW220406   6.762   9.149  11.079
39523SOL     OW20407   2.507   3.566   9.687
39523SOL    HW120408   2.535   3.474   9.684
39523SOL    HW220409   2.478   3.579   9.777
39524SOL     OW20410   2.507   9.525   0.832
39524SOL    HW120411   2.420   9.543   0.798
39524SOL    HW220412   2.566   9.577   0.777
39525SOL     OW20413  12.634  12.976  12.471
39525SOL    HW120414  12.542  12.991  12.451
39525SOL    HW220415  12.670  12.934  12.393
39526SOL     OW20416   9.675   0.263   8.823
39526SOL    HW120417   9.612   0.253   8.751
39526SOL    HW220418   9.621   0.278   8.900
39527SOL     OW20419   5.446   0.471  10.385
39527SOL    HW120420   5.414   0.472  10.475
39527SOL    HW220421   5.523   0.528  10.386
39528SOL     OW20422   8.347   3.986  10.905
39528SOL    HW120423   8.402   4.009  10.980
39528SOL    HW220424   8.337   3.891  10.911
39529SOL     OW20425  13.318   3.536   8.782
39529SOL    HW120426  13.355   3.619   8.812
39529SOL    HW220427  13.314   3.545   8.687
39530SOL     OW20428   0.433   5.731   7.967
39530SOL    HW120429   0.515   5.683   7.964
39530SOL    HW220430   0.442   5.798   7.899
39531SOL     OW20431   7.047   4.472   7.547
39531SOL    HW120432   7.089   4.555   7.568
39531SOL    HW220433   7.042   4.426   7.631
39532SOL     OW20434  12.412   9.015   2.333
39532SOL    HW120435  12.404   9.108   2.356
39532SOL    HW220436  12.326   8.978   2.355
39533SOL     OW20437   5.753   4.466   1.874
39533SOL    HW120438   5.676   4.465   1.931
39533SOL    HW220439   5.720   4.494   1.789
39534SOL     OW20440   5.425   2.058   1.346
39534SOL    HW120441   5.390   2.142   1.317
39534SOL    HW220442   5.348   2.005   1.368
39535SOL     OW20443  10.038  10.067   7.283
39535SOL    HW120444   9.977  10.024   7.223
39535SOL    HW220445  10.121  10.020   7.272
39536SOL     OW20446   0.337   7.847   7.620
39536SOL    HW120447   0.402   7.801   7.567
39536SOL    HW220448   0.388   7.906   7.675
39537SOL     OW20449  14.792   4.593  14.750
39537SOL    HW120450   0.004   4.608  14.775
39537SOL    HW220451  14.796   4.583  14.655
39538SOL     OW20452   3.335   3.288  14.064
39538SOL    HW120453   3.363   3.352  13.999
39538SOL    HW220454   3.392   3.213  14.051
39539SOL     OW20455   6.409  10.471  12.387
39539SOL    HW120456   6.364  10.497  12.307
39539SOL    HW220457   6.359  10.395  12.418
39540SOL     OW20458  12.662  14.795   7.282
39540SOL    HW120459  12.602  14.783   7.356
39540SOL    HW220460  12.738  14.740   7.304
39541SOL     OW20461   0.283   6.133   9.704
39541SOL    HW120462   0.241   6.185   9.773
39541SOL    HW220463   0.217   6.069   9.678
39542SOL     OW20464   4.648   1.956   2.334
39542SOL    HW120465   4.619   1.983   2.422
39542SOL    HW220466   4.609   1.870   2.322
39543SOL     OW20467   8.434   8.632   7.686
39543SOL    HW120468   8.340   8.628   7.665
39543SOL    HW220469   8.478   8.625   7.601
39544SOL     OW20470   3.733   6.410   4.108
39544SOL    HW120471   3.761   6.346   4.043
39544SOL    HW220472   3.652   6.374   4.145
39545SOL     OW20473   4.379   3.748  12.515
39545SOL    HW120474   4.444   3.683  12.541
39545SOL    HW220475   4.316   3.699  12.462
39546SOL     OW20476  14.194   5.567   9.448
39546SOL    HW120477  14.159   5.614   9.523
39546SOL    HW220478  14.199   5.476   9.476
39547SOL     OW20479   0.362   4.502   1.684
39547SOL    HW120480   0.280   4.461   1.713
39547SOL    HW220481   0.336   4.564   1.617
39548SOL     OW20482   3.716  12.672   8.335
39548SOL    HW120483   3.742  12.685   8.244
39548SOL    HW220484   3.671  12.588   8.336
39549SOL     OW20485   5.883  12.805  10.524
39549SOL    HW120486   5.825  12.875  10.552
39549SOL    HW220487   5.870  12.800  10.429
39550SOL     OW20488  14.083   9.407  13.063
39550SOL    HW120489  14.108   9.499  13.068
39550SOL    HW220490  14.153   9.366  13.012
39551SOL     OW20491   3.604   6.927   3.517
39551SOL    HW120492   3.598   6.996   3.584
39551SOL    HW220493   3.573   6.969   3.437
39552SOL     OW20494   4.435  13.621   2.913
39552SOL    HW120495   4.412  13.655   2.827
39552SOL    HW220496   4.488  13.691   2.953
39553SOL     OW20497   5.113   5.063  13.244
39553SOL    HW120498   5.094   5.075  13.151
39553SOL    HW220499   5.208   5.063  13.249
39554SOL     OW20500   7.554   3.285   3.556
39554SOL    HW120501   7.637   3.277   3.509
39554SOL    HW220502   7.567   3.234   3.636
39555SOL     OW20503  13.825  10.572   7.705
39555SOL    HW120504  13.800  10.551   7.795
39555SOL    HW220505  13.821  10.667   7.701
39556SOL     OW20506  11.513   8.221   3.854
39556SOL    HW120507  11.530   8.175   3.772
39556SOL    HW220508  11.471   8.155   3.911
39557SOL     OW20509   2.362  11.491  14.394
39557SOL    HW120510   2.377  11.508  14.487
39557SOL    HW220511   2.267  11.485  14.386
39558SOL     OW20512   7.887   0.924   8.092
39558SOL    HW120513   7.828   0.877   8.033
39558SOL    HW220514   7.951   0.964   8.035
39559SOL     OW20515   7.302  13.851   0.507
39559SOL    HW120516   7.338  13.764   0.527
39559SOL    HW220517   7.304  13.856   0.412
39560SOL     OW20518   4.182  13.469   2.999
39560SOL    HW120519   4.183  13.493   3.092
39560SOL    HW220520   4.249  13.524   2.959
39561SOL     OW20521   3.626   9.351   4.945
39561SOL    HW120522   3.641   9.299   4.866
39561SOL    HW220523   3.712   9.356   4.987
39562SOL     OW20524  14.154  10.296   9.818
39562SOL    HW120525  14.243  10.328   9.809
39562SOL    HW220526  14.146  10.272   9.910
39563SOL     OW20527   0.455   8.430   1.346
39563SOL    HW120528   0.533   8.396   1.303
39563SOL    HW220529   0.398   8.458   1.274
39564SOL     OW20530   8.369   8.665   2.813
39564SOL    HW120531   8.403   8.587   2.858
39564SOL    HW220532   8.347   8.726   2.884
39565SOL     OW20533   3.375  14.596   2.202
39565SOL    HW120534   3.382  14.576   2.109
39565SOL    HW220535   3.313  14.531   2.236
39566SOL     OW20536   8.099   0.858  14.115
39566SOL    HW120537   8.039   0.797  14.071
39566SOL    HW220538   8.186   0.831  14.087
39567SOL     OW20539  14.691   7.991   4.882
39567SOL    HW120540  14.768   8.046   4.871
39567SOL    HW220541  14.639   8.035   4.949
39568SOL     OW20542   5.537   3.072  12.429
39568SOL    HW120543   5.581   3.157  12.419
39568SOL    HW220544   5.514   3.047  12.340
39569SOL     OW20545   2.809   9.767   0.162
39569SOL    HW120546   2.791   9.835   0.097
39569SOL    HW220547   2.739   9.702   0.148
39570SOL     OW20548   9.571   9.861   3.975
39570SOL    HW120549   9.488   9.857   3.928
39570SOL    HW220550   9.547   9.848   4.067
39571SOL     OW20551   2.170  12.626   4.074
39571SOL    HW120552   2.212  12.552   4.118
39571SOL    HW220553   2.090  12.590   4.037
39572SOL     OW20554   3.052   2.368  10.654
39572SOL    HW120555   3.129   2.340  10.704
39572SOL    HW220556   3.088   2.415  10.579
39573SOL     OW20557   4.287  10.729  10.355
39573SOL    HW120558   4.276  10.798  10.421
39573SOL    HW220559   4.262  10.770  10.273
39574SOL     OW20560  14.136   0.255   1.435
39574SOL    HW120561  14.177   0.265   1.521
39574SOL    HW220562  14.205   0.278   1.373
39575SOL     OW20563   0.764   0.820  14.506
39575SOL    HW120564   0.787   0.902  14.550
39575SOL    HW220565   0.845   0.794  14.461
39576SOL     OW20566  11.601  10.677   8.591
39576SOL    HW120567  11.612  10.771   8.607
39576SOL    HW220568  11.512  10.669   8.557
39577SOL     OW20569   8.155   5.450   4.826
39577SOL    HW120570   8.159   5.369   4.877
39577SOL    HW220571   8.094   5.506   4.874
39578SOL     OW20572  13.491   7.928   8.579
39578SOL    HW120573  13.535   7.873   8.514
39578SOL    HW220574  13.410   7.881   8.598
39579SOL     OW20575  11.558   7.452   9.500
39579SOL    HW120576  11.533   7.442   9.408
39579SOL    HW220577  11.602   7.537   9.504
39580SOL     OW20578   4.687  12.489  14.283
39580SOL    HW120579   4.711  12.472  14.374
39580SOL    HW220580   4.771  12.505  14.239
39581SOL     OW20581  10.243  14.647   4.530
39581SOL    HW120582  10.338  14.640   4.529
39581SOL    HW220583  10.226  14.739   4.549
39582SOL     OW20584   5.208   5.083   6.228
39582SOL    HW120585   5.234   5.089   6.136
39582SOL    HW220586   5.253   5.005   6.261
39583SOL     OW20587   2.866  14.483  10.630
39583SOL    HW120588   2.929  14.490  10.558
39583SOL    HW220589   2.786  14.453  10.588
39584SOL     OW20590   9.920  14.658  10.055
39584SOL    HW120591   9.923  14.671  10.150
39584SOL    HW220592   9.954  14.569  10.042
39585SOL     OW20593   5.946   6.584   4.360
39585SOL    HW120594   6.009   6.519   4.390
39585SOL    HW220595   5.943   6.573   4.265
39586SOL     OW20596   3.740   3.072   6.517
39586SOL    HW120597   3.742   3.153   6.467
39586SOL    HW220598   3.812   3.020   6.481
39587SOL     OW20599  10.349  10.336   7.861
39587SOL    HW120600  10.272  10.385   7.888
39587SOL    HW220601  10.392  10.313   7.944
39588SOL     OW20602  13.281   0.342   8.504
39588SOL    HW120603  13.361   0.377   8.541
39588SOL    HW220604  13.260   0.401   8.431
39589SOL     OW20605  14.755  10.304  13.359
39589SOL    HW120606  14.675  10.352  13.335
39589SOL    HW220607  14.741  10.216  13.325
39590SOL     OW20608  13.367   6.827   3.633
39590SOL    HW120609  13.297   6.782   3.680
39590SOL    HW220610  13.382   6.774   3.555
39591SOL     OW20611  10.211   0.959   7.409
39591SOL    HW120612  10.227   0.952   7.315
39591SOL    HW220613  10.297   0.956   7.449
39592SOL     OW20614   5.019   3.327   9.165
39592SOL    HW120615   5.075   3.311   9.090
39592SOL    HW220616   5.066   3.289   9.239
39593SOL     OW20617   3.395   7.481  10.882
39593SOL    HW120618   3.438   7.520  10.806
39593SOL    HW220619   3.358   7.556  10.930
39594SOL     OW20620   0.146   0.236   7.060
39594SOL    HW120621   0.130   0.331   7.064
39594SOL    HW220622   0.065   0.196   7.091
39595SOL     OW20623   1.341  13.096   0.422
39595SOL    HW120624   1.431  13.110   0.394
39595SOL    HW220625   1.288  13.132   0.351
39596SOL     OW20626   5.177   7.227   4.310
39596SOL    HW120627   5.181   7.132   4.311
39596SOL    HW220628   5.084   7.248   4.321
39597SOL     OW20629   5.282  11.706   6.968
39597SOL    HW120630   5.208  11.668   6.920
39597SOL    HW220631   5.300  11.788   6.922
39598SOL     OW20632  13.017  14.841   1.034
39598SOL    HW120633  13.048   0.046   1.000
39598SOL    HW220634  13.078  14.820   1.105
39599SOL     OW20635   9.903  10.932   7.044
39599SOL    HW120636   9.998  10.939   7.045
39599SOL    HW220637   9.883  10.854   7.095
39600SOL     OW20638   7.376  14.174  12.928
39600SOL    HW120639   7.327  14.252  12.954
39600SOL    HW220640   7.311  14.118  12.885
39601SOL     OW20641   7.551  12.468   1.630
39601SOL    HW120642   7.605  12.397   1.595
39601SOL    HW220643   7.466  12.427   1.648
39602SOL     OW20644  11.982   6.037  10.288
39602SOL    HW120645  12.013   5.954  10.253
39602SOL    HW220646  12.061   6.091  10.295
39603SOL     OW20647  10.321  14.803   0.544
39603SOL    HW120648  10.365  14.752   0.475
39603SOL    HW220649  10.371  14.783   0.623
39604SOL     OW20650  14.517   8.659   2.115
39604SOL    HW120651  14.609   8.686   2.113
39604SOL    HW220652  14.503   8.629   2.205
39605SOL     OW20653   2.639  10.952   2.433
39605SOL    HW120654   2.728  10.946   2.397
39605SOL    HW220655   2.611  10.860   2.440
39606SOL     OW20656   3.291  13.461  11.193
39606SOL    HW120657   3.279  13.456  11.098
39606SOL    HW220658   3.376  13.421  11.209
39607SOL     OW20659  13.894   3.256   0.252
39607SOL    HW120660  13.836   3.321   0.292
39607SOL    HW220661  13.928   3.298   0.174
39608SOL     OW20662   5.478   8.546   0.121
39608SOL    HW120663   5.462   8.604   0.046
39608SOL    HW220664   5.442   8.462   0.093
39609SOL     OW20665   3.768  10.018   1.446
39609SOL    HW120666   3.770  10.106   1.408
39609SOL    HW220667   3.681  10.011   1.485
39610SOL     OW20668  13.953  10.242   2.095
39610SOL    HW120669  13.950  10.162   2.146
39610SOL    HW220670  14.044  10.247   2.064
39611SOL     OW20671   2.038   0.758   7.558
39611SOL    HW120672   1.977   0.826   7.588
39611SOL    HW220673   2.094   0.802   7.494
39612SOL     OW20674  13.785  13.561   0.256
39612SOL    HW120675  13.766  13.471   0.284
39612SOL    HW220676  13.721  13.614   0.305
39613SOL     OW20677   8.053  11.116   9.115
39613SOL    HW120678   8.080  11.198   9.157
39613SOL    HW220679   8.134  11.067   9.104
39614SOL     OW20680  12.301  11.549  14.557
39614SOL    HW120681  12.363  11.616  14.529
39614SOL    HW220682  12.275  11.505  14.477
39615SOL     OW20683   5.979   8.235  10.822
39615SOL    HW120684   6.029   8.251  10.903
39615SOL    HW220685   5.983   8.319  10.775
39616SOL     OW20686   2.570   6.209  13.613
39616SOL    HW120687   2.582   6.279  13.677
39616SOL    HW220688   2.657   6.197  13.575
39617SOL     OW20689   5.184   4.878   3.029
39617SOL    HW120690   5.222   4.808   3.083
39617SOL    HW220691   5.110   4.837   2.985
39618SOL     OW20692   7.217   5.435   0.741
39618SOL    HW120693   7.279   5.450   0.670
39618SOL    HW220694   7.204   5.340   0.742
39619SOL     OW20695   1.262   6.714   4.368
39619SOL    HW120696   1.227   6.638   4.323
39619SOL    HW220697   1.347   6.730   4.327
39620SOL     OW20698   0.201  14.456   8.555
39620SOL    HW120699   0.170  14.546   8.544
39620SOL    HW220700   0.122  14.403   8.556
39621SOL     OW20701   6.499   0.060   5.363
39621SOL    HW120702   6.410   0.065   5.397
39621SOL    HW220703   6.503  14.856   5.316
39622SOL     OW20704   8.000   0.583   5.670
39622SOL    HW120705   8.052   0.646   5.720
39622SOL    HW220706   7.909   0.603   5.691
39623SOL     OW20707   7.035   1.027   6.323
39623SOL    HW120708   6.962   1.088   6.322
39623SOL    HW220709   7.099   1.065   6.264
39624SOL     OW20710   8.911   1.560  13.040
39624SOL    HW120711   8.869   1.596  12.961
39624SOL    HW220712   9.004   1.559  13.019
39625SOL     OW20713   8.388  14.365  12.717
39625SOL    HW120714   8.371  14.271  12.704
39625SOL    HW220715   8.478  14.378  12.689
39626SOL     OW20716   1.115  12.296  12.659
39626SOL    HW120717   1.102  12.235  12.586
39626SOL    HW220718   1.036  12.351  12.658
39627SOL     OW20719   8.826   8.964  13.018
39627SOL    HW120720   8.808   9.044  12.969
39627SOL    HW220721   8.904   8.984  13.069
39628SOL     OW20722   5.322  10.633  14.709
39628SOL    HW120723   5.401  10.584  14.731
39628SOL    HW220724   5.253  10.566  14.704
39629SOL     OW20725   3.396   5.004  11.335
39629SOL    HW120726   3.383   5.044  11.421
39629SOL    HW220727   3.345   5.059  11.276
39630SOL     OW20728   2.082   6.927   2.736
39630SOL    HW120729   2.112   6.873   2.808
39630SOL    HW220730   2.109   6.880   2.657
39631SOL     OW20731   3.086   2.877   4.342
39631SOL    HW120732   3.081   2.966   4.379
39631SOL    HW220733   2.995   2.856   4.318
39632SOL     OW20734   3.305  11.367   0.722
39632SOL    HW120735   3.295  11.430   0.793
39632SOL    HW220736   3.218  11.328   0.712
39633SOL     OW20737  11.616   2.994   3.278
39633SOL    HW120738  11.537   3.048   3.282
39633SOL    HW220739  11.681   3.043   3.328
39634SOL     OW20740   6.619   1.033   8.041
39634SOL    HW120741   6.641   0.948   8.003
39634SOL    HW220742   6.584   1.013   8.127
39635SOL     OW20743   1.353   9.708  11.080
39635SOL    HW120744   1.332   9.791  11.038
39635SOL    HW220745   1.272   9.681  11.124
39636SOL     OW20746  10.378   6.025  12.101
39636SOL    HW120747  10.369   6.120  12.098
39636SOL    HW220748  10.409   6.002  12.014
39637SOL     OW20749   8.423   1.204   2.106
39637SOL    HW120750   8.375   1.134   2.061
39637SOL    HW220751   8.366   1.231   2.177
39638SOL     OW20752  12.635  10.160   2.975
39638SOL    HW120753  12.715  10.213   2.978
39638SOL    HW220754  12.663  10.073   3.005
39639SOL     OW20755   2.082   8.518   1.586
39639SOL    HW120756   2.137   8.459   1.637
39639SOL    HW220757   2.109   8.503   1.495
39640SOL     OW20758  13.569   8.798   6.209
39640SOL    HW120759  13.589   8.838   6.124
39640SOL    HW220760  13.583   8.868   6.273
39641SOL     OW20761   2.073   2.070   7.524
39641SOL    HW120762   1.982   2.040   7.515
39641SOL    HW220763   2.124   1.989   7.535
39642SOL     OW20764  13.266  13.802   0.958
39642SOL    HW120765  13.309  13.742   0.897
39642SOL    HW220766  13.214  13.860   0.903
39643SOL     OW20767   1.644   7.987   5.468
39643SOL    HW120768   1.659   7.893   5.481
39643SOL    HW220769   1.725   8.018   5.426
39644SOL     OW20770   3.447   8.822  12.234
39644SOL    HW120771   3.489   8.825  12.320
39644SOL    HW220772   3.394   8.902  12.230
39645SOL     OW20773   5.859   1.097   9.788
39645SOL    HW120774   5.931   1.045   9.823
39645SOL    HW220775   5.857   1.176   9.842
39646SOL     OW20776   4.266   2.939  10.250
39646SOL    HW120777   4.344   2.971  10.205
39646SOL    HW220778   4.300   2.887  10.323
39647SOL     OW20779   4.208  13.546   3.257
39647SOL    HW120780   4.148  13.601   3.306
39647SOL    HW220781   4.287  13.543   3.310
39648SOL     OW20782  10.304  11.729  11.673
39648SOL    HW120783  10.242  11.660  11.649
39648SOL    HW220784  10.384  11.683  11.699
39649SOL     OW20785   4.550  12.203   0.528
39649SOL    HW120786   4.519  12.246   0.448
39649SOL    HW220787   4.491  12.128   0.540
39650SOL     OW20788   8.962   4.912   2.531
39650SOL    HW120789   9.026   4.889   2.598
39650SOL    HW220790   8.972   4.844   2.464
39651SOL     OW20791   4.302   0.460  11.739
39651SOL    HW120792   4.295   0.365  11.749
39651SOL    HW220793   4.229   0.495  11.792
39652SOL     OW20794   6.066  14.565   6.306
39652SOL    HW120795   6.118  14.576   6.386
39652SOL    HW220796   6.131  14.561   6.236
39653SOL     OW20797  13.506  11.770  14.350
39653SOL    HW120798  13.541  11.839  14.406
39653SOL    HW220799  13.565  11.695  14.364
39654SOL     OW20800   4.697   7.230   3.770
39654SOL    HW120801   4.711   7.178   3.850
39654SOL    HW220802   4.786   7.255   3.743
39655SOL     OW20803   3.055  12.779   0.124
39655SOL    HW120804   3.031  12.784   0.031
39655SOL    HW220805   2.972  12.770   0.170
39656SOL     OW20806   3.194   8.049  14.531
39656SOL    HW120807   3.189   8.084  14.620
39656SOL    HW220808   3.107   8.065  14.495
39657SOL     OW20809   6.133  10.955   5.675
39657SOL    HW120810   6.082  11.016   5.622
39657SOL    HW220811   6.087  10.951   5.759
39658SOL     OW20812  10.910   0.139   2.128
39658SOL    HW120813  10.840   0.092   2.082
39658SOL    HW220814  10.910   0.100   2.216
39659SOL     OW20815   2.495   0.307   8.486
39659SOL    HW120816   2.503   0.274   8.397
39659SOL    HW220817   2.429   0.251   8.527
39660SOL     OW20818   5.082   5.721   6.580
39660SOL    HW120819   5.157   5.767   6.542
39660SOL    HW220820   5.076   5.640   6.530
39661SOL     OW20821   8.741  12.885   3.984
39661SOL    HW120822   8.649  12.861   3.995
39661SOL    HW220823   8.776  12.891   4.073
39662SOL     OW20824  12.197  10.990   7.856
39662SOL    HW120825  12.135  10.943   7.912
39662SOL    HW220826  12.142  11.042   7.798
39663SOL     OW20827   1.757  12.165  14.779
39663SOL    HW120828   1.802  12.083  14.756
39663SOL    HW220829   1.826  12.220  14.817
39664SOL     OW20830   2.424   4.029   9.737
39664SOL    HW120831   2.386   3.966   9.676
39664SOL    HW220832   2.518   4.026   9.718
39665SOL     OW20833   2.302  10.048   0.932
39665SOL    HW120834   2.242  10.089   0.994
39665SOL    HW220835   2.375  10.110   0.924
39666SOL     OW20836   6.940  10.967  11.932
39666SOL    HW120837   6.905  10.889  11.976
39666SOL    HW220838   6.864  11.021  11.915
39667SOL     OW20839   4.351  12.472   4.564
39667SOL    HW120840   4.363  12.422   4.483
39667SOL    HW220841   4.256  12.475   4.577
39668SOL     OW20842  12.991   2.735   7.017
39668SOL    HW120843  13.072   2.771   7.053
39668SOL    HW220844  12.927   2.744   7.088
39669SOL     OW20845   6.605  12.823  13.574
39669SOL    HW120846   6.635  12.892  13.514
39669SOL    HW220847   6.684  12.794  13.619
39670SOL     OW20848   0.453   5.301   5.864
39670SOL    HW120849   0.526   5.360   5.881
39670SOL    HW220850   0.486   5.214   5.886
39671SOL     OW20851  11.397  13.787   6.044
39671SOL    HW120852  11.390  13.836   5.962
39671SOL    HW220853  11.447  13.844   6.102
39672SOL     OW20854   6.310  12.121  12.680
39672SOL    HW120855   6.294  12.213  12.705
39672SOL    HW220856   6.373  12.126  12.608
39673SOL     OW20857   7.784   9.094  13.847
39673SOL    HW120858   7.734   9.167  13.810
39673SOL    HW220859   7.808   9.123  13.935
39674SOL     OW20860   2.283   1.842   8.609
39674SOL    HW120861   2.304   1.854   8.516
39674SOL    HW220862   2.200   1.888   8.621
39675SOL     OW20863   7.307   7.412   4.504
39675SOL    HW120864   7.396   7.378   4.507
39675SOL    HW220865   7.290   7.446   4.592
39676SOL     OW20866   4.952   2.180   3.717
39676SOL    HW120867   4.921   2.270   3.720
39676SOL    HW220868   5.030   2.179   3.772
39677SOL     OW20869   2.294   6.517   5.312
39677SOL    HW120870   2.237   6.590   5.287
39677SOL    HW220871   2.339   6.493   5.230
39678SOL     OW20872   7.812  11.422  14.495
39678SOL    HW120873   7.783  11.421  14.404
39678SOL    HW220874   7.877  11.492  14.498
39679SOL     OW20875   3.573  13.243   0.190
39679SOL    HW120876   3.614  13.213   0.109
39679SOL    HW220877   3.632  13.311   0.223
39680SOL     OW20878  14.221  13.461   5.502
39680SOL    HW120879  14.221  13.400   5.427
39680SOL    HW220880  14.151  13.523   5.482
39681SOL     OW20881   0.029   5.365   2.216
39681SOL    HW120882  14.835   5.351   2.156
39681SOL    HW220883  14.867   5.384   2.300
39682SOL     OW20884   7.599   4.650  14.015
39682SOL    HW120885   7.510   4.615  14.015
39682SOL    HW220886   7.607   4.698  14.097
39683SOL     OW20887   1.809   0.027   5.953
39683SOL    HW120888   1.865  14.859   5.892
39683SOL    HW220889   1.825  14.866   6.038
39684SOL     OW20890   5.822   3.484   5.573
39684SOL    HW120891   5.760   3.533   5.627
39684SOL    HW220892   5.832   3.400   5.618
39685SOL     OW20893   9.013   8.386  11.378
39685SOL    HW120894   9.048   8.322  11.439
39685SOL    HW220895   8.981   8.334  11.304
39686SOL     OW20896   5.250   6.114   8.588
39686SOL    HW120897   5.160   6.083   8.577
39686SOL    HW220898   5.281   6.072   8.668
39687SOL     OW20899   8.099  13.191   5.256
39687SOL    HW120900   8.037  13.150   5.196
39687SOL    HW220901   8.047  13.252   5.308
39688SOL     OW20902  10.641   2.210   1.841
39688SOL    HW120903  10.736   2.195   1.839
39688SOL    HW220904  10.609   2.151   1.909
39689SOL     OW20905   0.059   6.261  10.516
39689SOL    HW120906   0.070   6.222  10.429
39689SOL    HW220907   0.099   6.198  10.576
39690SOL     OW20908   6.207  12.384   8.889
39690SOL    HW120909   6.227  12.346   8.803
39690SOL    HW220910   6.290  12.378   8.937
39691SOL     OW20911   9.421  13.145   8.989
39691SOL    HW120912   9.372  13.063   8.981
39691SOL    HW220913   9.397  13.195   8.911
39692SOL     OW20914   2.291  10.694   2.094
39692SOL    HW120915   2.311  10.773   2.144
39692SOL    HW220916   2.196  10.699   2.080
39693SOL     OW20917   1.558   9.663   8.221
39693SOL    HW120918   1.530   9.602   8.290
39693SOL    HW220919   1.624   9.615   8.172
39694SOL     OW20920   0.349   6.541   8.423
39694SOL    HW120921   0.379   6.596   8.496
39694SOL    HW220922   0.272   6.496   8.458
39695SOL     OW20923   2.002  13.869  10.956
39695SOL    HW120924   1.963  13.796  11.004
39695SOL    HW220925   1.954  13.872  10.873
39696SOL     OW20926   2.452  10.400  13.383
39696SOL    HW120927   2.483  10.318  13.343
39696SOL    HW220928   2.437  10.377  13.474
39697SOL     OW20929  14.391  14.454  11.333
39697SOL    HW120930  14.349  14.368  11.341
39697SOL    HW220931  14.395  14.487  11.423
39698SOL     OW20932   5.629  11.665  11.460
39698SOL    HW120933   5.703  11.645  11.403
39698SOL    HW220934   5.663  11.658  11.549
39699SOL     OW20935  10.974   1.694  14.521
39699SOL    HW120936  10.906   1.708  14.585
39699SOL    HW220937  10.966   1.767  14.459
39700SOL     OW20938   0.065   2.225  14.401
39700SOL    HW120939  14.870   2.168  14.421
39700SOL    HW220940   0.052   2.302  14.457
39701SOL     OW20941   3.235   5.498  13.188
39701SOL    HW120942   3.318   5.534  13.219
39701SOL    HW220943   3.220   5.421  13.243
39702SOL     OW20944   0.004   1.120   8.482
39702SOL    HW120945  14.815   1.126   8.417
39702SOL    HW220946   0.054   1.042   8.457
39703SOL     OW20947  13.648   1.767   9.160
39703SOL    HW120948  13.726   1.720   9.128
39703SOL    HW220949  13.661   1.775   9.254
39704SOL     OW20950   0.214   1.492  14.676
39704SOL    HW120951   0.155   1.559  14.711
39704SOL    HW220952   0.168   1.410  14.690
39705SOL     OW20953   4.072   4.694   2.709
39705SOL    HW120954   4.013   4.657   2.643
39705SOL    HW220955   4.101   4.619   2.760
39706SOL     OW20956   9.482   8.524   4.743
39706SOL    HW120957   9.435   8.549   4.822
39706SOL    HW220958   9.493   8.430   4.749
39707SOL     OW20959  11.525   6.411   1.672
39707SOL    HW120960  11.479   6.479   1.722
39707SOL    HW220961  11.488   6.417   1.584
39708SOL     OW20962   0.523   5.537   6.963
39708SOL    HW120963   0.578   5.460   6.975
39708SOL    HW220964   0.500   5.564   7.052
39709SOL     OW20965   5.555  13.667   7.683
39709SOL    HW120966   5.502  13.651   7.605
39709SOL    HW220967   5.630  13.716   7.650
39710SOL     OW20968   0.301   5.283  11.334
39710SOL    HW120969   0.343   5.263  11.250
39710SOL    HW220970   0.353   5.355  11.369
39711SOL     OW20971   2.558  14.638   6.328
39711SOL    HW120972   2.520  14.719   6.294
39711SOL    HW220973   2.650  14.643   6.302
39712SOL     OW20974   4.813   5.849   0.189
39712SOL    HW120975   4.793   5.905   0.264
39712SOL    HW220976   4.747   5.872   0.123
39713SOL     OW20977   6.949   1.053  12.968
39713SOL    HW120978   6.974   1.084  13.055
39713SOL    HW220979   6.969   0.960  12.969
39714SOL     OW20980   6.444   6.244   9.274
39714SOL    HW120981   6.450   6.187   9.350
39714SOL    HW220982   6.452   6.184   9.199
39715SOL     OW20983  14.380   0.669   9.978
39715SOL    HW120984  14.444   0.697  10.043
39715SOL    HW220985  14.433   0.638   9.904
39716SOL     OW20986  10.689   7.768   2.498
39716SOL    HW120987  10.781   7.747   2.481
39716SOL    HW220988  10.653   7.788   2.411
39717SOL     OW20989  14.082   3.251   6.070
39717SOL    HW120990  14.055   3.166   6.103
39717SOL    HW220991  14.157   3.232   6.013
39718SOL     OW20992   7.190   7.076   7.323
39718SOL    HW120993   7.283   7.052   7.323
39718SOL    HW220994   7.190   7.170   7.305
39719SOL     OW20995   0.999   6.291   9.922
39719SOL    HW120996   1.007   6.381   9.951
39719SOL    HW220997   1.030   6.292   9.832
39720SOL     OW20998   3.924   4.254   0.469
39720SOL    HW120999   4.016   4.264   0.492
39720SOL    HW221000   3.879   4.323   0.519
39721SOL     OW21001   7.664  14.759   3.098
39721SOL    HW121002   7.752  14.750   3.063
39721SOL    HW221003   7.667  14.840   3.150
39722SOL     OW21004   3.909  12.415   6.611
39722SOL    HW121005   3.827  12.387   6.652
39722SOL    HW221006   3.949  12.473   6.676
39723SOL     OW21007  11.108  12.771   2.059
39723SOL    HW121008  11.014  12.785   2.067
39723SOL    HW221009  11.117  12.676   2.053
39724SOL     OW21010   5.880  11.904   3.490
39724SOL    HW121011   5.963  11.905   3.441
39724SOL    HW221012   5.870  11.814   3.518
39725SOL     OW21013   0.429   6.309   9.928
39725SOL    HW121014   0.397   6.393   9.960
39725SOL    HW221015   0.490   6.331   9.858
39726SOL     OW21016   7.351   1.982  14.271
39726SOL    HW121017   7.357   1.923  14.196
39726SOL    HW221018   7.440   2.016  14.281
39727SOL     OW21019  10.565   6.366   8.213
39727SOL    HW121020  10.649   6.407   8.228
39727SOL    HW221021  10.501   6.431   8.241
39728SOL     OW21022   7.207   4.167  11.307
39728SOL    HW121023   7.188   4.183  11.400
39728SOL    HW221024   7.290   4.120  11.308
39729SOL     OW21025   7.310   9.438  13.089
39729SOL    HW121026   7.359   9.486  13.156
39729SOL    HW221027   7.377   9.389  13.042
39730SOL     OW21028  14.685   1.902  10.026
39730SOL    HW121029  14.764   1.950  10.001
39730SOL    HW221030  14.699   1.878  10.118
39731SOL     OW21031  10.087  10.715  13.340
39731SOL    HW121032  10.027  10.699  13.268
39731SOL    HW221033  10.167  10.746  13.297
39732SOL     OW21034  10.433   9.318  14.205
39732SOL    HW121035  10.356   9.266  14.185
39732SOL    HW221036  10.504   9.275  14.156
39733SOL     OW21037   0.105   9.477  13.503
39733SOL    HW121038   0.075   9.408  13.563
39733SOL    HW221039   0.100   9.437  13.416
39734SOL     OW21040  13.842  14.741  13.772
39734SOL    HW121041  13.899  14.815  13.748
39734SOL    HW221042  13.795  14.721  13.691
39735SOL     OW21043   6.196   1.722   3.536
39735SOL    HW121044   6.137   1.702   3.609
39735SOL    HW221045   6.241   1.640   3.519
39736SOL     OW21046  11.355   6.538  10.369
39736SOL    HW121047  11.264   6.526  10.342
39736SOL    HW221048  11.407   6.502  10.298
39737SOL     OW21049  11.662   3.012   2.978
39737SOL    HW121050  11.651   3.020   3.072
39737SOL    HW221051  11.577   3.039   2.942
39738SOL     OW21052   7.198   9.485   9.667
39738SOL    HW121053   7.269   9.512   9.609
39738SOL    HW221054   7.234   9.412   9.717
39739SOL     OW21055   9.097   3.993   6.065
39739SOL    HW121056   9.117   3.983   6.158
39739SOL    HW221057   9.159   4.059   6.034
39740SOL     OW21058   9.846   6.207   8.620
39740SOL    HW121059   9.784   6.240   8.685
39740SOL    HW221060   9.904   6.281   8.603
39741SOL     OW21061  10.208   7.937   6.578
39741SOL    HW121062  10.249   7.962   6.661
39741SOL    HW221063  10.114   7.935   6.597
39742SOL     OW21064   7.599  13.664   8.760
39742SOL    HW121065   7.543  13.630   8.690
39742SOL    HW221066   7.622  13.752   8.732
39743SOL     OW21067   2.394   5.832   9.696
39743SOL    HW121068   2.395   5.897   9.626
39743SOL    HW221069   2.449   5.870   9.765
39744SOL     OW21070   6.465   5.446   3.385
39744SOL    HW121071   6.462   5.427   3.291
39744SOL    HW221072   6.508   5.532   3.391
39745SOL     OW21073   1.340  10.984   1.427
39745SOL    HW121074   1.260  10.947   1.465
39745SOL    HW221075   1.409  10.923   1.453
39746SOL     OW21076   0.298  12.559   7.158
39746SOL    HW121077   0.257  12.513   7.085
39746SOL    HW221078   0.384  12.517   7.167
39747SOL     OW21079   4.459   8.472   3.272
39747SOL    HW121080   4.452   8.441   3.362
39747SOL    HW221081   4.413   8.556   3.272
39748SOL     OW21082   9.684   4.034   0.294
39748SOL    HW121083   9.641   4.081   0.366
39748SOL    HW221084   9.777   4.032   0.319
39749SOL     OW21085  12.053   1.750   0.860
39749SOL    HW121086  11.958   1.742   0.848
39749SOL    HW221087  12.076   1.829   0.810
39750SOL     OW21088  12.144   0.037   9.777
39750SOL    HW121089  12.209  14.855   9.745
39750SOL    HW221090  12.062   0.009   9.737
39751SOL     OW21091   4.685   3.667   3.510
39751SOL    HW121092   4.600   3.706   3.529
39751SOL    HW221093   4.675   3.627   3.424
39752SOL     OW21094   1.697   3.284   9.087
39752SOL    HW121095   1.666   3.346   9.021
39752SOL    HW221096   1.734   3.212   9.036
39753SOL     OW21097  11.932   5.760   7.885
39753SOL    HW121098  12.010   5.772   7.939
39753SOL    HW221099  11.863   5.808   7.930
39754SOL     OW21100   6.300  11.062   3.386
39754SOL    HW121101   6.233  11.056   3.455
39754SOL    HW221102   6.368  11.118   3.422
39755SOL     OW21103   6.882  11.363   7.272
39755SOL    HW121104   6.955  11.302   7.278
39755SOL    HW221105   6.923  11.449   7.264
39756SOL     OW21106  14.348  11.444   8.965
39756SOL    HW121107  14.344  11.466   9.058
39756SOL    HW221108  14.436  11.410   8.952
39757SOL     OW21109  12.071   8.441   5.006
39757SOL    HW121110  12.086   8.404   4.919
39757SOL    HW221111  12.047   8.366   5.061
39758SOL     OW21112   7.759   3.982   8.134
39758SOL    HW121113   7.735   4.061   8.184
39758SOL    HW221114   7.813   3.932   8.195
39759SOL     OW21115   4.444   5.323   1.777
39759SOL    HW121116   4.471   5.238   1.742
39759SOL    HW221117   4.382   5.356   1.711
39760SOL     OW21118   4.193  10.544   9.517
39760SOL    HW121119   4.144  10.478   9.567
39760SOL    HW221120   4.132  10.574   9.450
39761SOL     OW21121   3.553   4.821  11.147
39761SOL    HW121122   3.502   4.851  11.222
39761SOL    HW221123   3.630   4.778  11.186
39762SOL     OW21124  11.775   4.248   1.233
39762SOL    HW121125  11.681   4.249   1.216
39762SOL    HW221126  11.811   4.189   1.167
39763SOL     OW21127  13.710  10.663  12.668
39763SOL    HW121128  13.654  10.642  12.743
39763SOL    HW221129  13.687  10.597  12.602
39764SOL     OW21130  14.537   5.561   7.438
39764SOL    HW121131  14.549   5.492   7.372
39764SOL    HW221132  14.507   5.514   7.516
39765SOL     OW21133  14.614   5.623  11.802
39765SOL    HW121134  14.644   5.638  11.713
39765SOL    HW221135  14.521   5.601  11.794
39766SOL     OW21136  10.533   9.574  13.874
39766SOL    HW121137  10.442   9.590  13.851
39766SOL    HW221138  10.572   9.661  13.881
39767SOL     OW21139   5.543  13.780   6.529
39767SOL    HW121140   5.591  13.846   6.479
39767SOL    HW221141   5.451  13.798   6.509
39768SOL     OW21142   9.179  12.838   6.413
39768SOL    HW121143   9.084  12.845   6.401
39768SOL    HW221144   9.214  12.918   6.375
39769SOL     OW21145   9.043  10.628   1.562
39769SOL    HW121146   8.953  10.619   1.593
39769SOL    HW221147   9.088  10.551   1.597
39770SOL     OW21148   9.789   7.965   7.852
39770SOL    HW121149   9.717   8.005   7.803
39770SOL    HW221150   9.847   8.038   7.873
39771SOL     OW21151  13.238   7.788   9.584
39771SOL    HW121152  13.248   7.824   9.496
39771SOL    HW221153  13.143   7.787   9.598
39772SOL     OW21154  10.336   4.296   0.986
39772SOL    HW121155  10.365   4.297   1.077
39772SOL    HW221156  10.242   4.278   0.991
39773SOL     OW21157  13.760   6.468   4.752
39773SOL    HW121158  13.797   6.553   4.730
39773SOL    HW221159  13.682   6.461   4.696
39774SOL     OW21160  10.422   5.456   9.649
39774SOL    HW121161  10.385   5.409   9.575
39774SOL    HW221162  10.484   5.395   9.688
39775SOL     OW21163   4.909   5.385  13.991
39775SOL    HW121164   4.822   5.416  13.969
39775SOL    HW221165   4.951   5.370  13.906
39776SOL     OW21166   2.982   3.930   2.578
39776SOL    HW121167   2.928   3.902   2.503
39776SOL    HW221168   3.057   3.973   2.539
39777SOL     OW21169   3.609   4.810  13.212
39777SOL    HW121170   3.515   4.817  13.226
39777SOL    HW221171   3.648   4.821  13.298
39778SOL     OW21172   2.752   5.317   7.211
39778SOL    HW121173   2.676   5.364   7.176
39778SOL    HW221174   2.727   5.296   7.301
39779SOL     OW21175  10.066   0.998   8.323
39779SOL    HW121176  10.106   0.982   8.238
39779SOL    HW221177  10.138   0.991   8.385
39780SOL     OW21178   3.952   6.922   5.811
39780SOL    HW121179   4.036   6.937   5.854
39780SOL    HW221180   3.887   6.939   5.879
39781SOL     OW21181   3.016   6.549  11.492
39781SOL    HW121182   2.963   6.615  11.447
39781SOL    HW221183   3.050   6.493  11.422
39782SOL     OW21184   9.076   9.196   5.534
39782SOL    HW121185   9.102   9.241   5.453
39782SOL    HW221186   9.136   9.122   5.541
39783SOL     OW21187  12.868  11.840   0.257
39783SOL    HW121188  12.950  11.819   0.302
39783SOL    HW221189  12.879  11.804   0.169
39784SOL     OW21190  12.453   9.713   8.611
39784SOL    HW121191  12.427   9.724   8.520
39784SOL    HW221192  12.409   9.632   8.639
39785SOL     OW21193  10.033   0.216   0.012
39785SOL    HW121194   9.983   0.298   0.005
39785SOL    HW221195   9.986   0.154  14.836
39786SOL     OW21196   8.831  12.416  13.401
39786SOL    HW121197   8.757  12.469  13.372
39786SOL    HW221198   8.889  12.477  13.445
39787SOL     OW21199   7.562  11.745   2.551
39787SOL    HW121200   7.610  11.757   2.633
39787SOL    HW221201   7.603  11.806   2.490
39788SOL     OW21202   7.014  11.002   4.615
39788SOL    HW121203   7.023  11.098   4.613
39788SOL    HW221204   6.923  10.986   4.590
39789SOL     OW21205   1.201   7.598   7.356
39789SOL    HW121206   1.262   7.625   7.425
39789SOL    HW221207   1.164   7.516   7.388
39790SOL     OW21208  13.168   3.688   2.873
39790SOL    HW121209  13.249   3.660   2.831
39790SOL    HW221210  13.117   3.729   2.803
39791SOL     OW21211   5.586   9.441   1.871
39791SOL    HW121212   5.558   9.525   1.907
39791SOL    HW221213   5.662   9.416   1.923
39792SOL     OW21214  14.834   7.355   3.089
39792SOL    HW121215   0.023   7.308   3.137
39792SOL    HW221216  14.803   7.292   3.024
39793SOL     OW21217   9.755   6.704  13.387
39793SOL    HW121218   9.839   6.683  13.427
39793SOL    HW221219   9.777   6.749  13.306
39794SOL     OW21220  13.044   0.847   0.574
39794SOL    HW121221  13.109   0.898   0.622
39794SOL    HW221222  13.060   0.757   0.600
39795SOL     OW21223  12.191   1.958   1.432
39795SOL    HW121224  12.186   1.981   1.525
39795SOL    HW221225  12.277   1.916   1.423
39796SOL     OW21226   9.507   1.679   7.939
39796SOL    HW121227   9.448   1.617   7.895
39796SOL    HW221228   9.576   1.624   7.976
39797SOL     OW21229   8.549   9.418   4.476
39797SOL    HW121230   8.616   9.404   4.542
39797SOL    HW221231   8.475   9.457   4.524
39798SOL     OW21232  13.611   0.093   0.635
39798SOL    HW121233  13.520   0.065   0.645
39798SOL    HW221234  13.633   0.071   0.544
39799SOL     OW21235   7.962   9.764  14.579
39799SOL    HW121236   7.894   9.718  14.627
39799SOL    HW221237   8.031   9.780  14.643
39800SOL     OW21238   4.396   7.371   2.313
39800SOL    HW121239   4.434   7.398   2.397
39800SOL    HW221240   4.367   7.453   2.273
39801SOL     OW21241   3.783   9.641  13.883
39801SOL    HW121242   3.740   9.647  13.798
39801SOL    HW221243   3.798   9.547  13.896
39802SOL     OW21244   6.340   4.595   6.355
39802SOL    HW121245   6.379   4.552   6.279
39802SOL    HW221246   6.353   4.688   6.339
39803SOL     OW21247   9.695   3.726   4.614
39803SOL    HW121248   9.754   3.652   4.629
39803SOL    HW221249   9.732   3.771   4.539
39804SOL     OW21250   7.273  10.782   5.804
39804SOL    HW121251   7.259  10.763   5.712
39804SOL    HW221252   7.368  10.781   5.815
39805SOL     OW21253   5.986  11.997   8.199
39805SOL    HW121254   5.988  12.081   8.152
39805SOL    HW221255   6.005  12.021   8.290
39806SOL     OW21256   5.058   0.142  13.569
39806SOL    HW121257   5.149   0.138  13.598
39806SOL    HW221258   5.060   0.192  13.487
39807SOL     OW21259  11.871   0.575  12.540
39807SOL    HW121260  11.843   0.509  12.478
39807SOL    HW221261  11.936   0.627  12.492
39808SOL     OW21262  10.688   4.074   6.937
39808SOL    HW121263  10.753   4.105   7.000
39808SOL    HW221264  10.628   4.147   6.925
39809SOL     OW21265   0.194   8.939   3.177
39809SOL    HW121266   0.175   8.979   3.262
39809SOL    HW221267   0.108   8.927   3.137
39810SOL     OW21268   2.580   3.632   5.709
39810SOL    HW121269   2.668   3.664   5.691
39810SOL    HW221270   2.548   3.600   5.625
39811SOL     OW21271   6.930   7.591   7.590
39811SOL    HW121272   7.020   7.597   7.620
39811SOL    HW221273   6.882   7.555   7.665
39812SOL     OW21274  11.518   6.946   5.774
39812SOL    HW121275  11.559   7.029   5.746
39812SOL    HW221276  11.465   6.919   5.699
39813SOL     OW21277   7.512  11.956   1.498
39813SOL    HW121278   7.485  11.867   1.519
39813SOL    HW221279   7.439  11.993   1.449
39814SOL     OW21280  12.308  12.840  11.691
39814SOL    HW121281  12.336  12.872  11.605
39814SOL    HW221282  12.244  12.906  11.721
39815SOL     OW21283  10.925  11.228  10.076
39815SOL    HW121284  10.871  11.306  10.066
39815SOL    HW221285  11.002  11.258  10.124
39816SOL     OW21286   8.741   8.981   2.097
39816SOL    HW121287   8.743   9.067   2.138
39816SOL    HW221288   8.709   8.997   2.008
39817SOL     OW21289  11.220  14.064   7.128
39817SOL    HW121290  11.274  13.993   7.094
39817SOL    HW221291  11.239  14.138   7.072
39818SOL     OW21292   5.828   0.584   2.401
39818SOL    HW121293   5.810   0.560   2.492
39818SOL    HW221294   5.894   0.654   2.407
39819SOL     OW21295  13.136   9.058   9.340
39819SOL    HW121296  13.126   9.040   9.246
39819SOL    HW221297  13.068   9.123   9.360
39820SOL     OW21298   1.588   3.616   9.831
39820SOL    HW121299   1.504   3.639   9.871
39820SOL    HW221300   1.626   3.700   9.806
39821SOL     OW21301   8.317   1.002   2.270
39821SOL    HW121302   8.257   1.070   2.238
39821SOL    HW221303   8.276   0.970   2.351
39822SOL     OW21304   9.230   8.572   3.570
39822SOL    HW121305   9.259   8.507   3.634
39822SOL    HW221306   9.241   8.527   3.485
39823SOL     OW21307   3.413   9.302   8.983
39823SOL    HW121308   3.491   9.255   9.011
39823SOL    HW221309   3.340   9.243   9.005
39824SOL     OW21310   8.877  13.866  11.950
39824SOL    HW121311   8.932  13.942  11.969
39824SOL    HW221312   8.844  13.838  12.036
39825SOL     OW21313  12.405  13.437   0.810
39825SOL    HW121314  12.385  13.389   0.729
39825SOL    HW221315  12.328  13.492   0.826
39826SOL     OW21316   6.555   5.223  11.058
39826SOL    HW121317   6.557   5.198  11.150
39826SOL    HW221318   6.554   5.140  11.010
39827SOL     OW21319   2.260   3.220   8.885
39827SOL    HW121320   2.264   3.174   8.968
39827SOL    HW221321   2.177   3.193   8.846
39828SOL     OW21322   3.822  11.576   1.903
39828SOL    HW121323   3.736  11.538   1.883
39828SOL    HW221324   3.851  11.528   1.980
39829SOL     OW21325   8.511  13.916   3.851
39829SOL    HW121326   8.481  13.961   3.930
39829SOL    HW221327   8.441  13.932   3.786
39830SOL     OW21328  13.254   5.669  11.915
39830SOL    HW121329  13.293   5.744  11.961
39830SOL    HW221330  13.323   5.639  11.856
39831SOL     OW21331   5.770  13.277   1.011
39831SOL    HW121332   5.840  13.215   0.991
39831SOL    HW221333   5.810  13.363   1.003
39832SOL     OW21334   0.878   7.570   1.971
39832SOL    HW121335   0.837   7.513   2.037
39832SOL    HW221336   0.972   7.563   1.988
39833SOL     OW21337   0.129   6.994  12.399
39833SOL    HW121338   0.082   6.914  12.421
39833SOL    HW221339   0.216   6.982  12.438
39834SOL     OW21340  12.744  13.366  12.184
39834SOL    HW121341  12.812  13.381  12.118
39834SOL    HW221342  12.689  13.444  12.179
39835SOL     OW21343   9.200  10.570  11.127
39835SOL    HW121344   9.146  10.511  11.075
39835SOL    HW221345   9.271  10.514  11.160
39836SOL     OW21346   7.059  10.380   9.288
39836SOL    HW121347   7.021  10.338   9.366
39836SOL    HW221348   7.020  10.334   9.214
39837SOL     OW21349   1.336  10.907  12.292
39837SOL    HW121350   1.431  10.915  12.297
39837SOL    HW221351   1.316  10.917  12.199
39838SOL     OW21352   1.749  13.419   9.862
39838SOL    HW121353   1.744  13.406   9.767
39838SOL    HW221354   1.821  13.481   9.874
39839SOL     OW21355   9.276   1.087  12.704
39839SOL    HW121356   9.334   1.159  12.727
39839SOL    HW221357   9.189   1.127  12.697
39840SOL     OW21358   3.252   1.409   8.166
39840SOL    HW121359   3.227   1.383   8.254
39840SOL    HW221360   3.213   1.342   8.109
39841SOL     OW21361  11.754   0.420   8.787
39841SOL    HW121362  11.772   0.511   8.808
39841SOL    HW221363  11.685   0.394   8.849
39842SOL     OW21364  13.386   8.800  12.127
39842SOL    HW121365  13.466   8.836  12.166
39842SOL    HW221366  13.368   8.857  12.052
39843SOL     OW21367  12.634   4.613  11.308
39843SOL    HW121368  12.717   4.660  11.320
39843SOL    HW221369  12.654   4.547  11.242
39844SOL     OW21370  13.327  12.636   7.194
39844SOL    HW121371  13.247  12.624   7.144
39844SOL    HW221372  13.300  12.632   7.285
39845SOL     OW21373  10.750   6.319   4.776
39845SOL    HW121374  10.698   6.276   4.844
39845SOL    HW221375  10.735   6.266   4.697
39846SOL     OW21376   1.202  14.623   6.080
39846SOL    HW121377   1.296  14.630   6.097
39846SOL    HW221378   1.161  14.643   6.165
39847SOL     OW21379   4.831   9.643   6.261
39847SOL    HW121380   4.858   9.558   6.228
39847SOL    HW221381   4.886   9.706   6.215
39848SOL     OW21382   9.318   1.039   5.713
39848SOL    HW121383   9.320   0.944   5.704
39848SOL    HW221384   9.251   1.067   5.650
39849SOL     OW21385   1.377  12.645   6.003
39849SOL    HW121386   1.419  12.687   5.927
39849SOL    HW221387   1.294  12.611   5.969
39850SOL     OW21388   9.668   4.968  12.624
39850SOL    HW121389   9.755   4.945  12.654
39850SOL    HW221390   9.659   4.925  12.539
39851SOL     OW21391   7.840   2.587   1.157
39851SOL    HW121392   7.774   2.536   1.205
39851SOL    HW221393   7.924   2.548   1.184
39852SOL     OW21394  12.237   0.207   1.777
39852SOL    HW121395  12.265   0.226   1.687
39852SOL    HW221396  12.223   0.112   1.778
39853SOL     OW21397   1.712   3.115   0.333
39853SOL    HW121398   1.747   3.027   0.341
39853SOL    HW221399   1.761   3.154   0.260
39854SOL     OW21400   1.654  12.054  14.274
39854SOL    HW121401   1.726  12.024  14.219
39854SOL    HW221402   1.579  12.058  14.214
39855SOL     OW21403   8.481   1.333   4.008
39855SOL    HW121404   8.418   1.360   4.075
39855SOL    HW221405   8.556   1.391   4.022
39856SOL     OW21406  14.427   2.785  13.201
39856SOL    HW121407  14.492   2.719  13.177
39856SOL    HW221408  14.463   2.826  13.280
39857SOL     OW21409   6.893   6.630   2.654
39857SOL    HW121410   6.959   6.637   2.585
39857SOL    HW221411   6.943   6.634   2.736
39858SOL     OW21412   8.564  11.994   8.063
39858SOL    HW121413   8.657  12.010   8.080
39858SOL    HW221414   8.535  12.070   8.012
39859SOL     OW21415   5.713   0.731   3.147
39859SOL    HW121416   5.640   0.787   3.118
39859SOL    HW221417   5.674   0.676   3.215
39860SOL     OW21418   3.526  12.380   2.573
39860SOL    HW121419   3.599  12.436   2.599
39860SOL    HW221420   3.531  12.376   2.478
39861SOL     OW21421   0.163  10.728   6.194
39861SOL    HW121422   0.072  10.700   6.204
39861SOL    HW221423   0.158  10.815   6.154
39862SOL     OW21424  13.716   4.846  12.863
39862SOL    HW121425  13.660   4.916  12.897
39862SOL    HW221426  13.654   4.784  12.823
39863SOL     OW21427   8.766   5.646   7.095
39863SOL    HW121428   8.736   5.728   7.057
39863SOL    HW221429   8.857   5.663   7.121
39864SOL     OW21430   4.108  14.359   4.509
39864SOL    HW121431   4.049  14.311   4.567
39864SOL    HW221432   4.114  14.447   4.548
39865SOL     OW21433   0.800   6.262  14.362
39865SOL    HW121434   0.785   6.204  14.437
39865SOL    HW221435   0.785   6.350  14.396
39866SOL     OW21436   7.470  11.144  13.973
39866SOL    HW121437   7.503  11.069  14.023
39866SOL    HW221438   7.430  11.201  14.039
39867SOL     OW21439   5.297   2.099   7.956
39867SOL    HW121440   5.343   2.083   7.874
39867SOL    HW221441   5.249   2.181   7.942
39868SOL     OW21442   9.192   9.787  11.589
39868SOL    HW121443   9.275   9.741  11.579
39868SOL    HW221444   9.215   9.870  11.629
39869SOL     OW21445   0.145   4.045   1.216
39869SOL    HW121446   0.197   3.994   1.278
39869SOL    HW221447   0.177   4.135   1.228
39870SOL     OW21448  12.291  10.435   7.050
39870SOL    HW121449  12.298  10.340   7.060
39870SOL    HW221450  12.291  10.449   6.955
39871SOL     OW21451   2.919  13.409   6.083
39871SOL    HW121452   2.912  13.315   6.102
39871SOL    HW221453   2.829  13.437   6.066
39872SOL     OW21454   3.513  12.738  12.710
39872SOL    HW121455   3.489  12.776  12.625
39872SOL    HW221456   3.553  12.654  12.688
39873SOL     OW21457   0.441   1.676   2.192
39873SOL    HW121458   0.358   1.676   2.144
39873SOL    HW221459   0.422   1.623   2.270
39874SOL     OW21460   0.879   8.867  12.858
39874SOL    HW121461   0.874   8.884  12.952
39874SOL    HW221462   0.821   8.932  12.819
39875SOL     OW21463  14.177  10.727   9.034
39875SOL    HW121464  14.088  10.735   9.001
39875SOL    HW221465  14.231  10.713   8.956
39876SOL     OW21466   8.338  11.399   2.942
39876SOL    HW121467   8.266  11.446   2.984
39876SOL    HW221468   8.410  11.462   2.942
39877SOL     OW21469   6.553   1.834  11.015
39877SOL    HW121470   6.533   1.883  10.935
39877SOL    HW221471   6.624   1.884  11.056
39878SOL     OW21472   6.062   8.822   5.397
39878SOL    HW121473   6.090   8.731   5.406
39878SOL    HW221474   6.056   8.854   5.487
39879SOL     OW21475   3.704  10.968   3.579
39879SOL    HW121476   3.655  10.922   3.511
39879SOL    HW221477   3.688  11.061   3.561
39880SOL     OW21478   6.293   7.105   3.148
39880SOL    HW121479   6.234   7.067   3.083
39880SOL    HW221480   6.261   7.194   3.160
39881SOL     OW21481  10.131  10.794   8.191
39881SOL    HW121482  10.215  10.749   8.204
39881SOL    HW221483  10.080  10.734   8.137
39882SOL     OW21484  12.108  12.964  13.126
39882SOL    HW121485  12.154  12.914  13.059
39882SOL    HW221486  12.155  12.944  13.207
39883SOL     OW21487  10.260   8.949   7.094
39883SOL    HW121488  10.170   8.928   7.067
39883SOL    HW221489  10.314   8.928   7.018
39884SOL     OW21490   7.921   8.638   8.711
39884SOL    HW121491   7.850   8.693   8.677
39884SOL    HW221492   8.001   8.681   8.680
39885SOL     OW21493   5.988   5.753  13.358
39885SOL    HW121494   5.966   5.813  13.429
39885SOL    HW221495   5.922   5.769  13.291
39886SOL     OW21496   4.453   0.971  12.786
39886SOL    HW121497   4.361   0.996  12.789
39886SOL    HW221498   4.491   1.027  12.718
39887SOL     OW21499   7.444   4.987   0.963
39887SOL    HW121500   7.398   5.068   0.944
39887SOL    HW221501   7.376   4.921   0.972
39888SOL     OW21502  14.139  10.172   0.155
39888SOL    HW121503  14.113  10.249   0.104
39888SOL    HW221504  14.058  10.124   0.170
39889SOL     OW21505  14.657   8.911   9.493
39889SOL    HW121506  14.653   9.002   9.463
39889SOL    HW221507  14.698   8.915   9.579
39890SOL     OW21508   5.988  11.636   0.404
39890SOL    HW121509   6.055  11.691   0.445
39890SOL    HW221510   6.029  11.602   0.325
39891SOL     OW21511   9.041  12.829  13.617
39891SOL    HW121512   9.095  12.870  13.684
39891SOL    HW221513   9.029  12.896  13.550
39892SOL     OW21514   4.552   5.694   2.702
39892SOL    HW121515   4.479   5.749   2.731
39892SOL    HW221516   4.618   5.703   2.770
39893SOL     OW21517   5.042  10.933  11.872
39893SOL    HW121518   4.980  10.955  11.802
39893SOL    HW221519   4.993  10.874  11.929
39894SOL     OW21520   1.422   3.944  13.411
39894SOL    HW121521   1.419   3.856  13.373
39894SOL    HW221522   1.495   3.987  13.367
39895SOL     OW21523   9.780   0.479  13.404
39895SOL    HW121524   9.871   0.469  13.431
39895SOL    HW221525   9.785   0.500  13.310
39896SOL     OW21526   5.461  13.268  13.100
39896SOL    HW121527   5.539  13.220  13.074
39896SOL    HW221528   5.414  13.208  13.158
39897SOL     OW21529   5.582   7.255  11.548
39897SOL    HW121530   5.533   7.334  11.571
39897SOL    HW221531   5.579   7.252  11.452
39898SOL     OW21532  14.032  13.383   1.056
39898SOL    HW121533  14.106  13.385   1.116
39898SOL    HW221534  13.974  13.315   1.091
39899SOL     OW21535   2.792   2.253   7.521
39899SOL    HW121536   2.759   2.341   7.537
39899SOL    HW221537   2.716   2.203   7.491
39900SOL     OW21538  11.972   5.581  10.634
39900SOL    HW121539  11.931   5.660  10.597
39900SOL    HW221540  11.903   5.542  10.688
39901SOL     OW21541   3.417   9.221   0.779
39901SOL    HW121542   3.322   9.211   0.767
39901SOL    HW221543   3.452   9.217   0.690
39902SOL     OW21544   6.064   0.915   2.693
39902SOL    HW121545   5.970   0.909   2.711
39902SOL    HW221546   6.104   0.928   2.779
39903SOL     OW21547   3.794   4.718   4.135
39903SOL    HW121548   3.711   4.737   4.178
39903SOL    HW221549   3.769   4.694   4.045
39904SOL     OW21550   7.230   4.617  13.817
39904SOL    HW121551   7.292   4.580  13.755
39904SOL    HW221552   7.264   4.592  13.903
39905SOL     OW21553   2.545   7.382  11.433
39905SOL    HW121554   2.574   7.474  11.426
39905SOL    HW221555   2.468   7.377  11.377
39906SOL     OW21556  11.614   0.613   7.125
39906SOL    HW121557  11.709   0.615   7.114
39906SOL    HW221558  11.581   0.572   7.045
39907SOL     OW21559   2.876   4.944   9.757
39907SOL    HW121560   2.971   4.945   9.745
39907SOL    HW221561   2.864   4.960   9.851
39908SOL     OW21562   1.695  12.521  14.109
39908SOL    HW121563   1.785  12.524  14.140
39908SOL    HW221564   1.651  12.461  14.169
39909SOL     OW21565   5.295   4.065  13.678
39909SOL    HW121566   5.316   4.039  13.588
39909SOL    HW221567   5.283   4.160  13.674
39910SOL     OW21568   5.090   8.475  12.346
39910SOL    HW121569   5.127   8.478  12.435
39910SOL    HW221570   5.137   8.403  12.304
39911SOL     OW21571   7.436  13.026   4.440
39911SOL    HW121572   7.428  13.110   4.484
39911SOL    HW221573   7.526  13.026   4.405
39912SOL     OW21574   6.087   6.882  13.380
39912SOL    HW121575   6.120   6.918  13.298
39912SOL    HW221576   6.137   6.802  13.393
39913SOL     OW21577   8.576   7.132   7.202
39913SOL    HW121578   8.535   7.106   7.284
39913SOL    HW221579   8.591   7.226   7.212
39914SOL     OW21580   3.731  13.278  10.283
39914SOL    HW121581   3.702  13.188  10.270
39914SOL    HW221582   3.762  13.281  10.373
39915SOL     OW21583   1.352   3.318  12.251
39915SOL    HW121584   1.412   3.384  12.287
39915SOL    HW221585   1.410   3.250  12.216
39916SOL     OW21586   5.500   6.327  12.069
39916SOL    HW121587   5.438   6.357  12.002
39916SOL    HW221588   5.479   6.235  12.081
39917SOL     OW21589   5.169   7.640  13.997
39917SOL    HW121590   5.232   7.638  14.069
39917SOL    HW221591   5.220   7.669  13.922
39918SOL     OW21592  13.075  13.595   9.721
39918SOL    HW121593  13.069  13.581   9.816
39918SOL    HW221594  13.148  13.656   9.710
39919SOL     OW21595   6.983  13.454  10.498
39919SOL    HW121596   6.981  13.443  10.593
39919SOL    HW221597   6.969  13.548  10.485
39920SOL     OW21598  11.531   4.805   9.716
39920SOL    HW121599  11.581   4.743   9.769
39920SOL    HW221600  11.583   4.885   9.715
39921SOL     OW21601  10.758  10.010   5.218
39921SOL    HW121602  10.751  10.106   5.224
39921SOL    HW221603  10.822   9.996   5.147
39922SOL     OW21604  13.382  13.691  10.842
39922SOL    HW121605  13.309  13.703  10.902
39922SOL    HW221606  13.447  13.644  10.893
39923SOL     OW21607  14.724   9.054  10.236
39923SOL    HW121608  14.681   9.136  10.261
39923SOL    HW221609  14.805   9.081  10.193
39924SOL     OW21610   7.940   5.789  10.644
39924SOL    HW121611   8.034   5.796  10.631
39924SOL    HW221612   7.907   5.751  10.562
39925SOL     OW21613   1.969   3.286   4.547
39925SOL    HW121614   1.898   3.228   4.575
39925SOL    HW221615   1.981   3.265   4.454
39926SOL     OW21616  10.105   3.453  13.759
39926SOL    HW121617  10.074   3.536  13.795
39926SOL    HW221618  10.185   3.476  13.711
39927SOL     OW21619   2.383  14.480   1.458
39927SOL    HW121620   2.335  14.483   1.375
39927SOL    HW221621   2.401  14.572   1.479
39928SOL     OW21622   6.386   3.134   2.512
39928SOL    HW121623   6.321   3.064   2.511
39928SOL    HW221624   6.356   3.196   2.446
39929SOL     OW21625   2.179   9.528  14.766
39929SOL    HW121626   2.195   9.501  14.856
39929SOL    HW221627   2.189   9.448  14.715
39930SOL     OW21628  10.566   7.773  12.224
39930SOL    HW121629  10.537   7.825  12.149
39930SOL    HW221630  10.498   7.706  12.235
39931SOL     OW21631   6.285  13.548   1.352
39931SOL    HW121632   6.307  13.461   1.317
39931SOL    HW221633   6.267  13.532   1.444
39932SOL     OW21634   1.417   7.569  13.547
39932SOL    HW121635   1.510   7.573  13.570
39932SOL    HW221636   1.410   7.620  13.467
39933SOL     OW21637   3.101   7.311  10.648
39933SOL    HW121638   3.033   7.354  10.699
39933SOL    HW221639   3.061   7.227  10.622
39934SOL     OW21640  10.333   1.896   1.206
39934SOL    HW121641  10.280   1.947   1.145
39934SOL    HW221642  10.283   1.815   1.220
39935SOL     OW21643   7.866  11.998  13.186
39935SOL    HW121644   7.790  11.946  13.161
39935SOL    HW221645   7.920  11.937  13.237
39936SOL     OW21646   0.406   7.710  10.435
39936SOL    HW121647   0.415   7.800  10.403
39936SOL    HW221648   0.355   7.666  10.366
39937SOL     OW21649  13.031  14.217   5.378
39937SOL    HW121650  13.108  14.262   5.343
39937SOL    HW221651  13.066  14.158   5.445
39938SOL     OW21652  12.356  12.737  12.385
39938SOL    HW121653  12.384  12.798  12.316
39938SOL    HW221654  12.267  12.712  12.359
39939SOL     OW21655   0.963  10.249   2.806
39939SOL    HW121656   0.908  10.232   2.883
39939SOL    HW221657   1.053  10.249   2.841
39940SOL     OW21658   4.635   4.145  13.030
39940SOL    HW121659   4.591   4.131  12.947
39940SOL    HW221660   4.651   4.239  13.034
39941SOL     OW21661   0.244  13.691   2.749
39941SOL    HW121662   0.175  13.747   2.712
39941SOL    HW221663   0.218  13.679   2.840
39942SOL     OW21664   2.859   2.991  11.389
39942SOL    HW121665   2.921   2.971  11.459
39942SOL    HW221666   2.911   2.988  11.309
39943SOL     OW21667   4.814   0.526  14.274
39943SOL    HW121668   4.752   0.454  14.264
39943SOL    HW221669   4.784   0.593  14.212
39944SOL     OW21670  14.233   6.326  10.713
39944SOL    HW121671  14.302   6.391  10.723
39944SOL    HW221672  14.152   6.375  10.721
39945SOL     OW21673   5.438   9.572   6.605
39945SOL    HW121674   5.359   9.523   6.579
39945SOL    HW221675   5.491   9.577   6.526
39946SOL     OW21676   1.265  12.730   4.391
39946SOL    HW121677   1.327  12.783   4.442
39946SOL    HW221678   1.255  12.777   4.309
39947SOL     OW21679   9.535   6.538   3.890
39947SOL    HW121680   9.562   6.620   3.849
39947SOL    HW221681   9.605   6.476   3.870
39948SOL     OW21682  10.672   1.528   6.536
39948SOL    HW121683  10.742   1.524   6.602
39948SOL    HW221684  10.625   1.445   6.548
39949SOL     OW21685   8.321   5.893  14.505
39949SOL    HW121686   8.343   5.947  14.429
39949SOL    HW221687   8.276   5.817  14.468
39950SOL     OW21688  10.403   5.026   1.509
39950SOL    HW121689  10.361   5.099   1.463
39950SOL    HW221690  10.335   4.958   1.510
39951SOL     OW21691   1.791   9.155   2.040
39951SOL    HW121692   1.786   9.081   2.100
39951SOL    HW221693   1.705   9.197   2.047
39952SOL     OW21694   9.401   0.040  13.135
39952SOL    HW121695   9.319   0.067  13.093
39952SOL    HW221696   9.470   0.078  13.081
39953SOL     OW21697   3.466   3.099   6.932
39953SOL    HW121698   3.436   3.157   7.002
39953SOL    HW221699   3.559   3.087   6.949
39954SOL     OW21700   9.440   8.486  12.507
39954SOL    HW121701   9.396   8.568  12.527
39954SOL    HW221702   9.511   8.511  12.448
39955SOL     OW21703   2.116  12.909   7.418
39955SOL    HW121704   2.105  12.859   7.499
39955SOL    HW221705   2.187  12.970   7.437
39956SOL     OW21706   5.541  13.200   2.594
39956SOL    HW121707   5.603  13.271   2.580
39956SOL    HW221708   5.595  13.127   2.625
39957SOL     OW21709  13.672   3.686  10.830
39957SOL    HW121710  13.720   3.768  10.841
39957SOL    HW221711  13.684   3.664  10.737
39958SOL     OW21712  13.662   5.873  12.248
39958SOL    HW121713  13.615   5.854  12.329
39958SOL    HW221714  13.750   5.897  12.275
39959SOL     OW21715   3.908   1.669   5.378
39959SOL    HW121716   3.856   1.712   5.311
39959SOL    HW221717   3.960   1.604   5.330
39960SOL     OW21718   4.530   0.082   4.819
39960SOL    HW121719   4.612   0.048   4.782
39960SOL    HW221720   4.486   0.124   4.745
39961SOL     OW21721  10.162  13.347  11.834
39961SOL    HW121722  10.234  13.284  11.834
39961SOL    HW221723  10.131  13.347  11.925
39962SOL     OW21724  10.067   4.455   7.926
39962SOL    HW121725  10.095   4.376   7.879
39962SOL    HW221726  10.072   4.525   7.861
39963SOL     OW21727   3.001   6.640   8.999
39963SOL    HW121728   3.042   6.642   8.913
39963SOL    HW221729   3.074   6.632   9.060
39964SOL     OW21730   6.193   9.999   5.843
39964SOL    HW121731   6.281  10.027   5.818
39964SOL    HW221732   6.206   9.916   5.889
39965SOL     OW21733  12.302   4.631   3.923
39965SOL    HW121734  12.395   4.610   3.914
39965SOL    HW221735  12.288   4.637   4.017
39966SOL     OW21736   3.479  12.873   3.139
39966SOL    HW121737   3.520  12.899   3.056
39966SOL    HW221738   3.504  12.781   3.150
39967SOL     OW21739   6.843   2.099  10.216
39967SOL    HW121740   6.762   2.073  10.258
39967SOL    HW221741   6.817   2.164  10.151
39968SOL     OW21742   5.158   6.915   7.308
39968SOL    HW121743   5.076   6.874   7.280
39968SOL    HW221744   5.208   6.843   7.347
39969SOL     OW21745   5.048   8.137  14.073
39969SOL    HW121746   5.032   8.202  14.141
39969SOL    HW221747   5.078   8.060  14.120
39970SOL     OW21748   3.983   8.116  11.574
39970SOL    HW121749   3.943   8.199  11.547
39970SOL    HW221750   3.956   8.106  11.666
39971SOL     OW21751   2.938   6.767   5.729
39971SOL    HW121752   2.946   6.803   5.818
39971SOL    HW221753   3.027   6.745   5.703
39972SOL     OW21754   6.130   6.435  12.305
39972SOL    HW121755   6.117   6.363  12.243
39972SOL    HW221756   6.211   6.413  12.351
39973SOL     OW21757   0.289   0.380  11.440
39973SOL    HW121758   0.314   0.388  11.532
39973SOL    HW221759   0.280   0.471  11.410
39974SOL     OW21760   3.491   7.185   1.456
39974SOL    HW121761   3.577   7.228   1.452
39974SOL    HW221762   3.435   7.237   1.400
39975SOL     OW21763   3.978  10.724  10.180
39975SOL    HW121764   4.034  10.792  10.142
39975SOL    HW221765   4.017  10.706  10.266
39976SOL     OW21766  12.288   2.530  12.483
39976SOL    HW121767  12.276   2.624  12.472
39976SOL    HW221768  12.205   2.500  12.520
39977SOL     OW21769  11.938  14.574   7.244
39977SOL    HW121770  11.848  14.549   7.266
39977SOL    HW221771  11.929  14.624   7.163
39978SOL     OW21772  12.516   5.790   0.850
39978SOL    HW121773  12.583   5.778   0.917
39978SOL    HW221774  12.538   5.873   0.807
39979SOL     OW21775   0.559   2.583   2.745
39979SOL    HW121776   0.492   2.598   2.812
39979SOL    HW221777   0.636   2.630   2.776
39980SOL     OW21778   1.449   2.736   7.225
39980SOL    HW121779   1.536   2.708   7.197
39980SOL    HW221780   1.405   2.655   7.251
39981SOL     OW21781  10.990   5.126   2.811
39981SOL    HW121782  10.909   5.090   2.776
39981SOL    HW221783  10.994   5.093   2.901
39982SOL     OW21784   3.099   0.197   0.017
39982SOL    HW121785   3.159   0.255  14.850
39982SOL    HW221786   3.113   0.111  14.857
39983SOL     OW21787   7.129   2.784  10.202
39983SOL    HW121788   7.097   2.698  10.229
39983SOL    HW221789   7.150   2.773  10.109
39984SOL     OW21790   4.121  10.594   6.090
39984SOL    HW121791   4.069  10.673   6.104
39984SOL    HW221792   4.109  10.573   5.997
39985SOL     OW21793   2.539  13.502   5.504
39985SOL    HW121794   2.467  13.516   5.443
39985SOL    HW221795   2.559  13.409   5.498
39986SOL     OW21796   7.382   4.801   6.930
39986SOL    HW121797   7.417   4.863   6.993
39986SOL    HW221798   7.421   4.827   6.846
39987SOL     OW21799  13.521   2.556   2.632
39987SOL    HW121800  13.564   2.477   2.599
39987SOL    HW221801  13.587   2.625   2.624
39988SOL     OW21802   9.621   9.074  14.799
39988SOL    HW121803   9.677   9.025  14.740
39988SOL    HW221804   9.649   9.048   0.007
39989SOL     OW21805   3.306   3.805   9.704
39989SOL    HW121806   3.286   3.893   9.738
39989SOL    HW221807   3.227   3.778   9.658
39990SOL     OW21808  12.623   1.472  10.730
39990SOL    HW121809  12.631   1.377  10.738
39990SOL    HW221810  12.606   1.503  10.819
39991SOL     OW21811  11.027   8.573   4.052
39991SOL    HW121812  11.048   8.634   3.981
39991SOL    HW221813  11.110   8.528   4.070
39992SOL     OW21814  13.731   6.989   8.359
39992SOL    HW121815  13.809   6.998   8.304
39992SOL    HW221816  13.762   6.946   8.439
39993SOL     OW21817  13.638  13.481   2.187
39993SOL    HW121818  13.548  13.455   2.211
39993SOL    HW221819  13.626  13.554   2.127
39994SOL     OW21820   8.320  12.699  11.432
39994SOL    HW121821   8.397  12.645  11.450
39994SOL    HW221822   8.249  12.636  11.422
39995SOL     OW21823  14.173  14.842   4.650
39995SOL    HW121824  14.176  14.846   4.745
39995SOL    HW221825  14.081  14.855   4.628
39996SOL     OW21826  13.274   5.445   8.252
39996SOL    HW121827  13.281   5.479   8.341
39996SOL    HW221828  13.305   5.354   8.258
39997SOL     OW21829  13.003   3.183   7.781
39997SOL    HW121830  12.967   3.271   7.776
39997SOL    HW221831  12.930   3.126   7.755
39998SOL     OW21832   0.300  10.116   3.371
39998SOL    HW121833   0.207  10.134   3.386
39998SOL    HW221834   0.343  10.149   3.449
39999SOL     OW21835   2.353  10.431   8.890
39999SOL    HW121836   2.304  10.354   8.859
39999SOL    HW221837   2.285  10.489   8.925
40000SOL     OW21838   2.090   0.259   8.737
40000SOL    HW121839   2.080   0.216   8.821
40000SOL    HW221840   2.064   0.193   8.672
40001SOL     OW21841   3.240   5.346  13.609
40001SOL    HW121842   3.285   5.429  13.624
40001SOL    HW221843   3.151   5.360  13.643
40002SOL     OW21844   2.017  12.006  12.472
40002SOL    HW121845   2.045  12.072  12.535
40002SOL    HW221846   2.016  11.924  12.521
40003SOL     OW21847   0.686   7.469   3.621
40003SOL    HW121848   0.642   7.482   3.537
40003SOL    HW221849   0.678   7.375   3.638
40004SOL     OW21850   6.722   5.443  12.727
40004SOL    HW121851   6.751   5.534  12.741
40004SOL    HW221852   6.719   5.434  12.632
40005SOL     OW21853   3.566   6.974   1.098
40005SOL    HW121854   3.564   7.069   1.099
40005SOL    HW221855   3.523   6.950   1.016
40006SOL     OW21856   5.049  13.267   9.916
40006SOL    HW121857   5.045  13.339   9.978
40006SOL    HW221858   5.140  13.236   9.921
40007SOL     OW21859  14.266  10.118   1.018
40007SOL    HW121860  14.345  10.135   0.968
40007SOL    HW221861  14.284  10.154   1.105
40008SOL     OW21862   8.900   8.470   9.689
40008SOL    HW121863   8.905   8.375   9.685
40008SOL    HW221864   8.921   8.492   9.779
40009SOL     OW21865  12.380   4.354  10.203
40009SOL    HW121866  12.398   4.262  10.184
40009SOL    HW221867  12.409   4.401  10.124
40010SOL     OW21868   9.551   7.218  11.896
40010SOL    HW121869   9.602   7.156  11.844
40010SOL    HW221870   9.608   7.240  11.970
40011SOL     OW21871  10.891  13.124   0.352
40011SOL    HW121872  10.874  13.053   0.415
40011SOL    HW221873  10.804  13.156   0.329
40012SOL     OW21874  12.276  10.154   7.242
40012SOL    HW121875  12.275  10.193   7.329
40012SOL    HW221876  12.346  10.089   7.245
40013SOL     OW21877   5.156   2.067  12.124
40013SOL    HW121878   5.196   2.109  12.201
40013SOL    HW221879   5.148   2.137  12.060
40014SOL     OW21880   1.130   5.777   0.140
40014SOL    HW121881   1.179   5.847   0.183
40014SOL    HW221882   1.038   5.800   0.154
40015SOL     OW21883   0.533  13.148  10.386
40015SOL    HW121884   0.467  13.131  10.454
40015SOL    HW221885   0.601  13.082  10.401
40016SOL     OW21886   8.731   8.460  12.703
40016SOL    HW121887   8.776   8.433  12.623
40016SOL    HW221888   8.716   8.554  12.691
40017SOL     OW21889  10.816   0.217   0.278
40017SOL    HW121890  10.760   0.141   0.260
40017SOL    HW221891  10.800   0.276   0.205
40018SOL     OW21892   9.310   0.548   6.565
40018SOL    HW121893   9.230   0.538   6.513
40018SOL    HW221894   9.283   0.602   6.640
40019SOL     OW21895  14.018  14.126  11.428
40019SOL    HW121896  13.976  14.197  11.477
40019SOL    HW221897  13.954  14.101  11.362
40020SOL     OW21898  13.602  13.932  11.500
40020SOL    HW121899  13.638  13.878  11.430
40020SOL    HW221900  13.678  13.956  11.554
40021SOL     OW21901   8.298  13.641  12.776
40021SOL    HW121902   8.273  13.560  12.733
40021SOL    HW221903   8.215  13.683  12.798
40022SOL     OW21904   2.892  13.422   2.009
40022SOL    HW121905   2.862  13.470   2.086
40022SOL    HW221906   2.964  13.367   2.041
40023SOL     OW21907   0.793   8.451  12.220
40023SOL    HW121908   0.852   8.475  12.292
40023SOL    HW221909   0.706   8.473  12.253
40024SOL     OW21910   3.140  11.283  14.746
40024SOL    HW121911   3.184  11.202  14.720
40024SOL    HW221912   3.049  11.269  14.721
40025SOL     OW21913   0.370  13.266   5.994
40025SOL    HW121914   0.413  13.279   6.078
40025SOL    HW221915   0.403  13.337   5.939
40026SOL     OW21916  13.721   0.410   3.971
40026SOL    HW121917  13.673   0.460   3.905
40026SOL    HW221918  13.706   0.318   3.947
40027SOL     OW21919   1.823  13.885  10.724
40027SOL    HW121920   1.770  13.870  10.646
40027SOL    HW221921   1.895  13.941  10.694
40028SOL     OW21922   2.992   6.734   9.791
40028SOL    HW121923   2.984   6.723   9.886
40028SOL    HW221924   3.010   6.646   9.758
40029SOL     OW21925  10.450   5.829   8.805
40029SOL    HW121926  10.481   5.743   8.834
40029SOL    HW221927  10.530   5.880   8.791
40030SOL     OW21928  13.024   1.876   9.196
40030SOL    HW121929  12.997   1.966   9.181
40030SOL    HW221930  13.115   1.873   9.167
40031SOL     OW21931   8.278   9.710   0.340
40031SOL    HW121932   8.326   9.711   0.257
40031SOL    HW221933   8.334   9.757   0.401
40032SOL     OW21934  11.430  11.907   1.589
40032SOL    HW121935  11.455  11.827   1.636
40032SOL    HW221936  11.335  11.900   1.580
40033SOL     OW21937   9.432  14.717  12.082
40033SOL    HW121938   9.428  14.715  11.986
40033SOL    HW221939   9.341  14.709  12.110
40034SOL     OW21940   0.021   7.030   5.703
40034SOL    HW121941   0.001   7.101   5.764
40034SOL    HW221942   0.067   6.965   5.757
40035SOL     OW21943   7.045   6.958   3.541
40035SOL    HW121944   7.108   7.030   3.539
40035SOL    HW221945   6.963   6.997   3.509
40036SOL     OW21946   8.322  10.815   1.814
40036SOL    HW121947   8.309  10.728   1.850
40036SOL    HW221948   8.301  10.874   1.887
40037SOL     OW21949   8.079   0.463   1.091
40037SOL    HW121950   8.066   0.556   1.106
40037SOL    HW221951   8.169   0.456   1.057
40038SOL     OW21952  11.954   2.131   9.041
40038SOL    HW121953  11.929   2.136   9.133
40038SOL    HW221954  11.877   2.094   8.997
40039SOL     OW21955  13.857   0.661   9.466
40039SOL    HW121956  13.811   0.584   9.433
40039SOL    HW221957  13.810   0.736   9.428
40040SOL     OW21958   3.104   1.198  11.934
40040SOL    HW121959   3.143   1.117  11.966
40040SOL    HW221960   3.014   1.173  11.911
40041SOL     OW21961   9.008   9.866   3.310
40041SOL    HW121962   8.921   9.825   3.313
40041SOL    HW221963   9.020   9.891   3.219
40042SOL     OW21964   6.097   0.331   1.349
40042SOL    HW121965   6.148   0.276   1.409
40042SOL    HW221966   6.059   0.399   1.404
40043SOL     OW21967   6.987   8.592   2.035
40043SOL    HW121968   7.072   8.586   1.992
40043SOL    HW221969   6.926   8.617   1.965
40044SOL     OW21970   9.130   8.914   0.924
40044SOL    HW121971   9.098   8.833   0.965
40044SOL    HW221972   9.088   8.984   0.973
40045SOL     OW21973   4.248   3.830  10.805
40045SOL    HW121974   4.334   3.869  10.818
40045SOL    HW221975   4.203   3.890  10.745
40046SOL     OW21976   5.712   1.956  14.554
40046SOL    HW121977   5.755   1.945  14.639
40046SOL    HW221978   5.719   2.050  14.536
40047SOL     OW21979  10.008  11.216   8.537
40047SOL    HW121980  10.037  11.265   8.613
40047SOL    HW221981  10.074  11.148   8.525
40048SOL     OW21982   3.520   8.460  14.878
40048SOL    HW121983   3.593   8.522  14.871
40048SOL    HW221984   3.535   8.415   0.082
40049SOL     OW21985   8.401   0.830   4.309
40049SOL    HW121986   8.441   0.766   4.250
40049SOL    HW221987   8.448   0.911   4.290
40050SOL     OW21988  12.597   1.572   5.158
40050SOL    HW121989  12.635   1.516   5.226
40050SOL    HW221990  12.547   1.512   5.103
40051SOL     OW21991   3.882   6.114  14.026
40051SOL    HW121992   3.876   6.083  14.116
40051SOL    HW221993   3.927   6.198  14.031
40052SOL     OW21994   9.994  12.971   2.647
40052SOL    HW121995   9.920  12.998   2.592
40052SOL    HW221996   9.982  12.876   2.657
40053SOL     OW21997   5.090   3.274  10.795
40053SOL    HW121998   5.054   3.355  10.758
40053SOL    HW221999   5.158   3.247  10.733
40054SOL     OW22000   5.245  10.110   3.595
40054SOL    HW122001   5.316  10.146   3.541
40054SOL    HW222002   5.172  10.098   3.534
40055SOL     OW22003  10.115   3.093   0.866
40055SOL    HW122004  10.125   3.033   0.940
40055SOL    HW222005  10.139   3.179   0.901
40056SOL     OW22006  13.665   2.817   3.878
40056SOL    HW122007  13.592   2.782   3.827
40056SOL    HW222008  13.668   2.762   3.956
40057SOL     OW22009   8.812   2.650   5.578
40057SOL    HW122010   8.791   2.681   5.666
40057SOL    HW222011   8.776   2.561   5.575
40058SOL     OW22012   0.421  14.473   3.214
40058SOL    HW122013   0.447  14.438   3.129
40058SOL    HW222014   0.470  14.554   3.223
40059SOL     OW22015   2.448   3.368   3.464
40059SOL    HW122016   2.388   3.395   3.395
40059SOL    HW222017   2.392   3.347   3.538
40060SOL     OW22018  11.316   1.580  13.805
40060SOL    HW122019  11.379   1.616  13.743
40060SOL    HW222020  11.267   1.656  13.837
40061SOL     OW22021   0.331   8.266   1.556
40061SOL    HW122022   0.375   8.200   1.503
40061SOL    HW222023   0.331   8.345   1.502
40062SOL     OW22024  13.389  14.562  14.151
40062SOL    HW122025  13.329  14.501  14.194
40062SOL    HW222026  13.460  14.574  14.214
40063SOL     OW22027   5.551   4.087   2.318
40063SOL    HW122028   5.617   4.100   2.387
40063SOL    HW222029   5.504   4.008   2.345
40064SOL     OW22030  12.370   5.173   6.629
40064SOL    HW122031  12.331   5.213   6.706
40064SOL    HW222032  12.297   5.134   6.582
40065SOL     OW22033  12.072   4.528   4.279
40065SOL    HW122034  12.039   4.512   4.191
40065SOL    HW222035  12.160   4.565   4.266
40066SOL     OW22036   5.660   1.036  11.915
40066SOL    HW122037   5.730   0.999  11.969
40066SOL    HW222038   5.581   0.991  11.945
40067SOL     OW22039   5.099   6.378  13.683
40067SOL    HW122040   5.186   6.342  13.702
40067SOL    HW222041   5.080   6.348  13.594
40068SOL     OW22042  13.002   8.342   8.579
40068SOL    HW122043  12.949   8.416   8.550
40068SOL    HW222044  13.033   8.301   8.499
40069SOL     OW22045   5.736   7.388   2.896
40069SOL    HW122046   5.664   7.409   2.837
40069SOL    HW222047   5.813   7.427   2.854
40070SOL     OW22048   6.601  12.864   9.301
40070SOL    HW122049   6.566  12.913   9.226
40070SOL    HW222050   6.686  12.833   9.272
40071SOL     OW22051  13.380   1.315   0.564
40071SOL    HW122052  13.365   1.408   0.576
40071SOL    HW222053  13.460   1.310   0.511
40072SOL     OW22054   3.186  11.558  13.667
40072SOL    HW122055   3.201  11.621  13.738
40072SOL    HW222056   3.122  11.601  13.610
40073SOL     OW22057   2.640   2.786   5.028
40073SOL    HW122058   2.728   2.760   4.999
40073SOL    HW222059   2.598   2.820   4.949
40074SOL     OW22060   0.957   5.052  14.290
40074SOL    HW122061   1.030   5.063  14.229
40074SOL    HW222062   0.996   5.011  14.367
40075SOL     OW22063  10.300   2.118   0.568
40075SOL    HW122064  10.392   2.092   0.570
40075SOL    HW222065  10.265   2.078   0.489
40076SOL     OW22066   2.817   5.182   6.672
40076SOL    HW122067   2.768   5.254   6.633
40076SOL    HW222068   2.819   5.201   6.765
40077SOL     OW22069   8.766   8.326  10.399
40077SOL    HW122070   8.708   8.369  10.336
40077SOL    HW222071   8.706   8.283  10.460
40078SOL     OW22072   2.075  11.704   8.121
40078SOL    HW122073   2.065  11.772   8.054
40078SOL    HW222074   2.009  11.639   8.099
40079SOL     OW22075   7.515  11.449  10.510
40079SOL    HW122076   7.527  11.459  10.415
40079SOL    HW222077   7.423  11.473  10.524
40080SOL     OW22078   0.513   0.156   6.399
40080SOL    HW122079   0.545   0.174   6.311
40080SOL    HW222080   0.571   0.088   6.433
40081SOL     OW22081   9.755  13.560   3.168
40081SOL    HW122082   9.775  13.495   3.235
40081SOL    HW222083   9.839  13.601   3.148
40082SOL     OW22084   9.859  11.346  12.173
40082SOL    HW122085   9.885  11.288  12.101
40082SOL    HW222086   9.766  11.361  12.158
40083SOL     OW22087   0.170   7.648   3.503
40083SOL    HW122088   0.153   7.667   3.595
40083SOL    HW222089   0.266   7.654   3.496
40084SOL     OW22090   4.474   2.467   4.283
40084SOL    HW122091   4.563   2.492   4.308
40084SOL    HW222092   4.431   2.549   4.258
40085SOL     OW22093   3.083   4.836  11.060
40085SOL    HW122094   3.039   4.899  11.002
40085SOL    HW222095   3.120   4.890  11.130
40086SOL     OW22096   5.818   6.455   7.476
40086SOL    HW122097   5.731   6.424   7.503
40086SOL    HW222098   5.873   6.442   7.553
40087SOL     OW22099  14.123   7.528   2.453
40087SOL    HW122100  14.173   7.610   2.463
40087SOL    HW222101  14.153   7.492   2.369
40088SOL     OW22102  13.761   3.829   7.283
40088SOL    HW122103  13.697   3.900   7.280
40088SOL    HW222104  13.785   3.814   7.191
40089SOL     OW22105   5.836   8.489   7.579
40089SOL    HW122106   5.875   8.499   7.492
40089SOL    HW222107   5.840   8.395   7.596
40090SOL     OW22108  14.400   8.228  11.178
40090SOL    HW122109  14.305   8.230  11.170
40090SOL    HW222110  14.426   8.146  11.136
40091SOL     OW22111   3.706  12.339   8.941
40091SOL    HW122112   3.799  12.348   8.921
40091SOL    HW222113   3.662  12.355   8.857
40092SOL     OW22114   2.376  10.725   9.023
40092SOL    HW122115   2.308  10.716   8.957
40092SOL    HW222116   2.393  10.819   9.026
40093SOL     OW22117   8.576  11.678   7.108
40093SOL    HW122118   8.526  11.618   7.053
40093SOL    HW222119   8.511  11.738   7.143
40094SOL     OW22120  14.695   4.601   4.915
40094SOL    HW122121  14.706   4.556   4.998
40094SOL    HW222122  14.735   4.544   4.850
40095SOL     OW22123   8.757   1.626   2.204
40095SOL    HW122124   8.688   1.569   2.237
40095SOL    HW222125   8.775   1.593   2.116
40096SOL     OW22126   0.407   9.006   7.474
40096SOL    HW122127   0.485   9.048   7.436
40096SOL    HW222128   0.421   8.913   7.460
40097SOL     OW22129   7.260   5.338  13.853
40097SOL    HW122130   7.278   5.357  13.761
40097SOL    HW222131   7.171   5.303  13.853
40098SOL     OW22132  12.402  11.722   3.982
40098SOL    HW122133  12.328  11.720   3.921
40098SOL    HW222134  12.450  11.641   3.964
40099SOL     OW22135   9.139   3.978   6.769
40099SOL    HW122136   9.079   3.965   6.842
40099SOL    HW222137   9.172   4.067   6.782
40100SOL     OW22138   0.786  14.137   9.326
40100SOL    HW122139   0.757  14.218   9.283
40100SOL    HW222140   0.831  14.088   9.258
40101SOL     OW22141   1.424   5.917   4.641
40101SOL    HW122142   1.333   5.898   4.664
40101SOL    HW222143   1.465   5.831   4.635
40102SOL     OW22144  14.727  13.428   6.676
40102SOL    HW122145  14.685  13.512   6.663
40102SOL    HW222146  14.744  13.423   6.770
40103SOL     OW22147  13.766  14.226   7.118
40103SOL    HW122148  13.708  14.181   7.057
40103SOL    HW222149  13.710  14.292   7.160
40104SOL     OW22150   1.601   5.478   4.597
40104SOL    HW122151   1.682   5.452   4.553
40104SOL    HW222152   1.548   5.517   4.527
40105SOL     OW22153   6.216  14.367  13.107
40105SOL    HW122154   6.260  14.362  13.022
40105SOL    HW222155   6.127  14.337  13.090
40106SOL     OW22156   1.941   9.719   8.121
40106SOL    HW122157   2.004   9.658   8.082
40106SOL    HW222158   1.984   9.750   8.201
40107SOL     OW22159  14.388   2.750  10.664
40107SOL    HW122160  14.394   2.770  10.571
40107SOL    HW222161  14.330   2.673  10.668
40108SOL     OW22162   6.059   0.071  12.243
40108SOL    HW122163   6.100   0.052  12.327
40108SOL    HW222164   6.130   0.067  12.179
40109SOL     OW22165  13.323   9.795   4.426
40109SOL    HW122166  13.272   9.793   4.507
40109SOL    HW222167  13.312   9.884   4.392
40110SOL     OW22168   3.667  11.995   8.371
40110SOL    HW122169   3.682  12.057   8.300
40110SOL    HW222170   3.670  12.048   8.451
40111SOL     OW22171   1.524   4.189   2.462
40111SOL    HW122172   1.596   4.138   2.426
40111SOL    HW222173   1.450   4.127   2.464
40112SOL     OW22174   5.986  14.866  14.739
40112SOL    HW122175   5.920  14.797  14.748
40112SOL    HW222176   5.935   0.068  14.736
40113SOL     OW22177   9.196   4.331   1.055
40113SOL    HW122178   9.176   4.295   0.969
40113SOL    HW222179   9.218   4.422   1.039
40114SOL     OW22180  12.544   8.265  10.334
40114SOL    HW122181  12.523   8.191  10.277
40114SOL    HW222182  12.625   8.239  10.379
40115SOL     OW22183  10.686   2.999   9.041
40115SOL    HW122184  10.667   2.934   8.974
40115SOL    HW222185  10.769   2.971   9.080
40116SOL     OW22186   9.243  13.023   1.196
40116SOL    HW122187   9.282  13.066   1.120
40116SOL    HW222188   9.282  13.068   1.271
40117SOL     OW22189   1.579   0.454   7.759
40117SOL    HW122190   1.588   0.363   7.732
40117SOL    HW222191   1.608   0.505   7.683
40118SOL     OW22192   4.018   1.825  10.595
40118SOL    HW122193   4.057   1.776  10.668
40118SOL    HW222194   4.085   1.887  10.570
40119SOL     OW22195   5.390   9.679   9.005
40119SOL    HW122196   5.323   9.742   9.031
40119SOL    HW222197   5.386   9.677   8.909
40120SOL     OW22198   6.743  10.464  13.215
40120SOL    HW122199   6.793  10.393  13.255
40120SOL    HW222200   6.652  10.436  13.222
40121SOL     OW22201   4.337   2.666   2.207
40121SOL    HW122202   4.264   2.723   2.181
40121SOL    HW222203   4.402   2.678   2.138
40122SOL     OW22204   5.009   6.143  14.308
40122SOL    HW122205   5.058   6.153  14.389
40122SOL    HW222206   4.928   6.192  14.323
40123SOL     OW22207  10.873  11.179  11.560
40123SOL    HW122208  10.913  11.098  11.594
40123SOL    HW222209  10.784  11.178  11.596
40124SOL     OW22210   1.496  10.216   0.768
40124SOL    HW122211   1.487  10.137   0.715
40124SOL    HW222212   1.463  10.287   0.712
40125SOL     OW22213   7.722   9.378   8.088
40125SOL    HW122214   7.740   9.444   8.021
40125SOL    HW222215   7.722   9.427   8.171
40126SOL     OW22216  12.831  14.757  10.338
40126SOL    HW122217  12.858  14.814  10.265
40126SOL    HW222218  12.835  14.814  10.415
40127SOL     OW22219   1.344   6.042   4.034
40127SOL    HW122220   1.361   6.108   4.101
40127SOL    HW222221   1.250   6.023   4.042
40128SOL     OW22222   6.511   6.995  14.464
40128SOL    HW122223   6.529   7.086  14.441
40128SOL    HW222224   6.597   6.957  14.482
40129SOL     OW22225   7.722  14.837   6.810
40129SOL    HW122226   7.628  14.844   6.827
40129SOL    HW222227   7.763  14.874   6.887
40130SOL     OW22228  12.103   0.840   3.690
40130SOL    HW122229  12.074   0.916   3.641
40130SOL    HW222230  12.084   0.861   3.781
40131SOL     OW22231   8.806   9.349   5.033
40131SOL    HW122232   8.786   9.336   5.125
40131SOL    HW222233   8.845   9.436   5.029
40132SOL     OW22234  10.630  12.906  13.687
40132SOL    HW122235  10.637  12.917  13.782
40132SOL    HW222236  10.613  12.813  13.675
40133SOL     OW22237  14.371   6.534   4.043
40133SOL    HW122238  14.327   6.460   4.084
40133SOL    HW222239  14.444   6.555   4.101
40134SOL     OW22240  14.603  10.984   0.387
40134SOL    HW122241  14.656  11.008   0.311
40134SOL    HW222242  14.597  11.065   0.439
40135SOL     OW22243   4.876   3.885  10.455
40135SOL    HW122244   4.805   3.841  10.409
40135SOL    HW222245   4.832   3.941  10.519
40136SOL     OW22246  13.816   7.431  10.511
40136SOL    HW122247  13.781   7.423  10.422
40136SOL    HW222248  13.904   7.395  10.506
40137SOL     OW22249  14.802  10.756   9.386
40137SOL    HW122250  14.741  10.685   9.366
40137SOL    HW222251  14.803  10.810   9.308
40138SOL     OW22252   4.555  14.043   4.955
40138SOL    HW122253   4.542  14.002   5.041
40138SOL    HW222254   4.560  13.970   4.894
40139SOL     OW22255  12.805   1.858   5.258
40139SOL    HW122256  12.834   1.799   5.187
40139SOL    HW222257  12.727   1.900   5.223
40140SOL     OW22258  13.160   8.518   5.304
40140SOL    HW122259  13.240   8.552   5.343
40140SOL    HW222260  13.190   8.449   5.245
40141SOL     OW22261  13.306   1.226   6.245
40141SOL    HW122262  13.297   1.134   6.272
40141SOL    HW222263  13.280   1.226   6.153
40142SOL     OW22264   7.915   6.202   2.032
40142SOL    HW122265   7.837   6.165   1.991
40142SOL    HW222266   7.931   6.145   2.108
40143SOL     OW22267   5.407   6.184   6.144
40143SOL    HW122268   5.363   6.199   6.228
40143SOL    HW222269   5.356   6.115   6.102
40144SOL     OW22270  11.842   7.150   7.113
40144SOL    HW122271  11.834   7.124   7.205
40144SOL    HW222272  11.793   7.232   7.107
40145SOL     OW22273   5.296  12.652   3.023
40145SOL    HW122274   5.387  12.628   3.005
40145SOL    HW222275   5.296  12.748   3.024
40146SOL     OW22276   6.484   3.792   1.046
40146SOL    HW122277   6.478   3.846   0.967
40146SOL    HW222278   6.409   3.733   1.041
40147SOL     OW22279   2.281   1.945   5.107
40147SOL    HW122280   2.301   2.039   5.106
40147SOL    HW222281   2.356   1.904   5.064
40148SOL     OW22282  13.040  10.315  11.485
40148SOL    HW122283  13.122  10.363  11.470
40148SOL    HW222284  13.016  10.282  11.399
40149SOL     OW22285   0.719   0.368  14.544
40149SOL    HW122286   0.813   0.372  14.526
40149SOL    HW222287   0.690   0.458  14.537
40150SOL     OW22288  11.035   2.279  11.445
40150SOL    HW122289  11.016   2.208  11.507
40150SOL    HW222290  11.029   2.237  11.359
40151SOL     OW22291   4.143   7.983   9.649
40151SOL    HW122292   4.181   7.920   9.588
40151SOL    HW222293   4.065   8.016   9.603
40152SOL     OW22294   0.210  14.275   8.169
40152SOL    HW122295   0.222  14.299   8.260
40152SOL    HW222296   0.120  14.242   8.165
40153SOL     OW22297   6.040   7.358  14.229
40153SOL    HW122298   5.945   7.364  14.240
40153SOL    HW222299   6.068   7.448  14.212
40154SOL     OW22300  14.709  11.733  13.269
40154SOL    HW122301  14.670  11.811  13.308
40154SOL    HW222302  14.799  11.731  13.303
40155SOL     OW22303  11.723   0.768  12.706
40155SOL    HW122304  11.734   0.749  12.613
40155SOL    HW222305  11.792   0.716  12.748
40156SOL     OW22306   6.558  14.272  13.718
40156SOL    HW122307   6.556  14.312  13.805
40156SOL    HW222308   6.508  14.333  13.662
40157SOL     OW22309   9.283   0.956  10.463
40157SOL    HW122310   9.238   0.921  10.540
40157SOL    HW222311   9.235   0.919  10.388
40158SOL     OW22312  14.464   5.515   3.582
40158SOL    HW122313  14.554   5.500   3.611
40158SOL    HW222314  14.412   5.453   3.633
40159SOL     OW22315  11.248  14.244   2.538
40159SOL    HW122316  11.329  14.194   2.549
40159SOL    HW222317  11.245  14.301   2.615
40160SOL     OW22318   0.201   9.372   2.033
40160SOL    HW122319   0.158   9.368   2.118
40160SOL    HW222320   0.197   9.282   1.999
40161SOL     OW22321   4.965  13.502   2.471
40161SOL    HW122322   4.898  13.483   2.405
40161SOL    HW222323   5.027  13.430   2.463
40162SOL     OW22324  12.954  13.460   3.991
40162SOL    HW122325  12.994  13.435   4.074
40162SOL    HW222326  12.894  13.388   3.971
40163SOL     OW22327   6.313   2.481  12.370
40163SOL    HW122328   6.231   2.500  12.325
40163SOL    HW222329   6.362   2.427  12.308
40164SOL     OW22330  14.122   0.310   2.050
40164SOL    HW122331  14.138   0.271   2.136
40164SOL    HW222332  14.096   0.237   1.995
40165SOL     OW22333  11.189   4.517   0.352
40165SOL    HW122334  11.128   4.452   0.387
40165SOL    HW222335  11.275   4.484   0.375
40166SOL     OW22336   1.060   3.576   6.533
40166SOL    HW122337   1.008   3.516   6.480
40166SOL    HW222338   1.070   3.531   6.617
40167SOL     OW22339   0.477   5.228  12.390
40167SOL    HW122340   0.424   5.172  12.448
40167SOL    HW222341   0.471   5.187  12.304
40168SOL     OW22342   5.223  12.264   9.565
40168SOL    HW122343   5.147  12.251   9.621
40168SOL    HW222344   5.260  12.347   9.595
40169SOL     OW22345   9.918   2.654  10.368
40169SOL    HW122346   9.933   2.747  10.384
40169SOL    HW222347   9.949   2.611  10.448
40170SOL     OW22348   0.481   3.119   4.095
40170SOL    HW122349   0.543   3.052   4.064
40170SOL    HW222350   0.536   3.195   4.112
40171SOL     OW22351  14.468   4.525   3.982
40171SOL    HW122352  14.397   4.555   3.926
40171SOL    HW222353  14.541   4.583   3.962
40172SOL     OW22354   4.602  11.978   4.923
40172SOL    HW122355   4.680  12.001   4.974
40172SOL    HW222356   4.622  11.892   4.886
40173SOL     OW22357   8.231   7.855   4.146
40173SOL    HW122358   8.304   7.850   4.084
40173SOL    HW222359   8.163   7.904   4.099
40174SOL     OW22360   0.631  10.559   5.005
40174SOL    HW122361   0.635  10.484   5.064
40174SOL    HW222362   0.542  10.593   5.017
40175SOL     OW22363   8.438  11.440   3.937
40175SOL    HW122364   8.518  11.430   3.987
40175SOL    HW222365   8.373  11.387   3.983
40176SOL     OW22366  10.364   0.123   4.806
40176SOL    HW122367  10.375   0.080   4.891
40176SOL    HW222368  10.422   0.075   4.747
40177SOL     OW22369   6.959   5.827   0.125
40177SOL    HW122370   6.889   5.855   0.184
40177SOL    HW222371   7.036   5.877   0.155
40178SOL     OW22372  12.101  14.007   8.884
40178SOL    HW122373  12.122  13.966   8.968
40178SOL    HW222374  12.017  14.050   8.899
40179SOL     OW22375  14.000   5.629  14.768
40179SOL    HW122376  14.077   5.632  14.825
40179SOL    HW222377  13.963   5.542  14.782
40180SOL     OW22378  12.421   4.810  11.294
40180SOL    HW122379  12.461   4.855  11.220
40180SOL    HW222380  12.477   4.734  11.309
40181SOL     OW22381   5.158  13.766  11.285
40181SOL    HW122382   5.064  13.782  11.294
40181SOL    HW222383   5.179  13.797  11.197
40182SOL     OW22384   6.009   5.130   9.656
40182SOL    HW122385   6.020   5.102   9.747
40182SOL    HW222386   6.043   5.219   9.654
40183SOL     OW22387   4.714   5.638   2.934
40183SOL    HW122388   4.646   5.676   2.990
40183SOL    HW222389   4.779   5.604   2.996
40184SOL     OW22390   5.558   4.597  11.810
40184SOL    HW122391   5.630   4.587  11.872
40184SOL    HW222392   5.529   4.508  11.792
40185SOL     OW22393   3.106   6.477   2.622
40185SOL    HW122394   3.198   6.493   2.643
40185SOL    HW222395   3.057   6.514   2.696
40186SOL     OW22396   1.181  12.844   7.125
40186SOL    HW122397   1.088  12.833   7.105
40186SOL    HW222398   1.216  12.894   7.051
40187SOL     OW22399   0.159   3.298   4.897
40187SOL    HW122400   0.154   3.202   4.894
40187SOL    HW222401   0.093   3.323   4.962
40188SOL     OW22402  13.671   4.102  13.340
40188SOL    HW122403  13.594   4.046  13.347
40188SOL    HW222404  13.722   4.065  13.268
40189SOL     OW22405  14.553   5.918   9.524
40189SOL    HW122406  14.562   5.854   9.454
40189SOL    HW222407  14.525   5.866   9.600
40190SOL     OW22408   4.482   9.189   9.456
40190SOL    HW122409   4.458   9.123   9.522
40190SOL    HW222410   4.531   9.255   9.505
40191SOL     OW22411   6.475   7.656   1.648
40191SOL    HW122412   6.496   7.749   1.660
40191SOL    HW222413   6.411   7.655   1.576
40192SOL     OW22414   6.556  12.419  14.424
40192SOL    HW122415   6.595  12.422  14.511
40192SOL    HW222416   6.608  12.355  14.376
40193SOL     OW22417   9.530  14.831  10.355
40193SOL    HW122418   9.621  14.847  10.333
40193SOL    HW222419   9.502   0.031  10.400
40194SOL     OW22420   1.025  12.706   8.280
40194SOL    HW122421   1.105  12.681   8.234
40194SOL    HW222422   1.012  12.798   8.258
40195SOL     OW22423   4.850   4.229   7.936
40195SOL    HW122424   4.801   4.294   7.886
40195SOL    HW222425   4.789   4.156   7.946
40196SOL     OW22426  11.916   5.779   5.250
40196SOL    HW122427  11.830   5.783   5.208
40196SOL    HW222428  11.952   5.867   5.238
40197SOL     OW22429   2.147   5.198  10.379
40197SOL    HW122430   2.174   5.177  10.289
40197SOL    HW222431   2.165   5.119  10.429
40198SOL     OW22432  11.298   4.067   9.685
40198SOL    HW122433  11.391   4.071   9.707
40198SOL    HW222434  11.261   4.146   9.726
40199SOL     OW22435   6.060   3.143   5.467
40199SOL    HW122436   6.014   3.130   5.551
40199SOL    HW222437   6.152   3.155   5.492
40200SOL     OW22438  12.777  13.923   2.376
40200SOL    HW122439  12.869  13.901   2.390
40200SOL    HW222440  12.767  13.925   2.281
40201SOL     OW22441   6.964   9.023   0.978
40201SOL    HW122442   7.030   9.044   1.044
40201SOL    HW222443   6.886   9.070   1.006
40202SOL     OW22444  14.226  13.838   8.759
40202SOL    HW122445  14.181  13.881   8.832
40202SOL    HW222446  14.164  13.846   8.686
40203SOL     OW22447   2.949  12.089   5.742
40203SOL    HW122448   3.015  12.151   5.710
40203SOL    HW222449   2.951  12.099   5.837
40204SOL     OW22450   4.897  12.969   0.801
40204SOL    HW122451   4.833  12.959   0.731
40204SOL    HW222452   4.873  13.052   0.844
40205SOL     OW22453  12.297   0.845   5.426
40205SOL    HW122454  12.258   0.930   5.445
40205SOL    HW222455  12.390   0.864   5.414
40206SOL     OW22456   2.321   7.872   7.075
40206SOL    HW122457   2.244   7.926   7.089
40206SOL    HW222458   2.288   7.782   7.074
40207SOL     OW22459  13.918   1.111  11.361
40207SOL    HW122460  13.914   1.195  11.316
40207SOL    HW222461  13.938   1.048  11.292
40208SOL     OW22462  13.025   9.540   7.264
40208SOL    HW122463  12.973   9.575   7.191
40208SOL    HW222464  12.960   9.501   7.323
40209SOL     OW22465   0.484  14.329   9.774
40209SOL    HW122466   0.502  14.342   9.681
40209SOL    HW222467   0.445  14.242   9.779
40210SOL     OW22468   2.072   4.508  12.169
40210SOL    HW122469   2.091   4.572  12.100
40210SOL    HW222470   1.978   4.518  12.185
40211SOL     OW22471  11.393   0.836   4.061
40211SOL    HW122472  11.468   0.778   4.077
40211SOL    HW222473  11.403   0.906   4.125
40212SOL     OW22474   7.611   0.507   9.182
40212SOL    HW122475   7.651   0.488   9.267
40212SOL    HW222476   7.593   0.421   9.144
40213SOL     OW22477   1.207   0.154   5.252
40213SOL    HW122478   1.144   0.224   5.273
40213SOL    HW222479   1.257   0.189   5.178
40214SOL     OW22480   4.304   8.215  14.759
40214SOL    HW122481   4.321   8.185  14.670
40214SOL    HW222482   4.304   8.135  14.812
40215SOL     OW22483   8.363   1.011  11.547
40215SOL    HW122484   8.392   1.064  11.621
40215SOL    HW222485   8.427   0.940  11.541
40216SOL     OW22486   9.987   5.347   8.965
40216SOL    HW122487   9.937   5.304   8.895
40216SOL    HW222488  10.077   5.346   8.935
40217SOL     OW22489  10.851  14.408   3.256
40217SOL    HW122490  10.930  14.374   3.299
40217SOL    HW222491  10.804  14.329   3.227
40218SOL     OW22492   9.907  12.910   2.246
40218SOL    HW122493   9.950  12.873   2.168
40218SOL    HW222494   9.909  12.839   2.310
40219SOL     OW22495   6.417  11.852   1.776
40219SOL    HW122496   6.435  11.945   1.792
40219SOL    HW222497   6.352  11.853   1.706
40220SOL     OW22498   1.736   4.234  11.690
40220SOL    HW122499   1.816   4.285  11.703
40220SOL    HW222500   1.714   4.248  11.598
40221SOL     OW22501   0.042   2.047   3.382
40221SOL    HW122502   0.084   2.129   3.357
40221SOL    HW222503   0.114   1.987   3.401
40222SOL     OW22504   8.781  12.713  12.567
40222SOL    HW122505   8.691  12.694  12.594
40222SOL    HW222506   8.818  12.762  12.641
40223SOL     OW22507   9.516  10.722   8.369
40223SOL    HW122508   9.516  10.632   8.336
40223SOL    HW222509   9.521  10.776   8.290
40224SOL     OW22510   2.697   0.749   3.674
40224SOL    HW122511   2.741   0.682   3.621
40224SOL    HW222512   2.769   0.800   3.712
40225SOL     OW22513  12.336  12.994   5.088
40225SOL    HW122514  12.320  13.045   5.009
40225SOL    HW222515  12.319  13.055   5.160
40226SOL     OW22516   4.514   9.605  10.381
40226SOL    HW122517   4.593   9.586  10.330
40226SOL    HW222518   4.519   9.547  10.457
40227SOL     OW22519   4.976   9.677  11.695
40227SOL    HW122520   4.996   9.586  11.715
40227SOL    HW222521   4.895   9.696  11.742
40228SOL     OW22522   9.790   4.752   2.908
40228SOL    HW122523   9.696   4.766   2.916
40228SOL    HW222524   9.804   4.664   2.943
40229SOL     OW22525   5.955  14.334   9.027
40229SOL    HW122526   5.910  14.390   8.964
40229SOL    HW222527   6.028  14.297   8.978
40230SOL     OW22528   0.138   4.123   7.992
40230SOL    HW122529   0.229   4.142   8.013
40230SOL    HW222530   0.122   4.037   8.031
40231SOL     OW22531   0.296   0.149   3.484
40231SOL    HW122532   0.336   0.198   3.555
40231SOL    HW222533   0.302   0.057   3.511
40232SOL     OW22534   3.560   0.872   3.212
40232SOL    HW122535   3.479   0.894   3.258
40232SOL    HW222536   3.629   0.883   3.277
40233SOL     OW22537   2.970   5.693  10.505
40233SOL    HW122538   3.013   5.770  10.542
40233SOL    HW222539   2.967   5.630  10.577
40234SOL     OW22540   3.632   6.242   8.139
40234SOL    HW122541   3.577   6.315   8.168
40234SOL    HW222542   3.592   6.215   8.056
40235SOL     OW22543   9.150   9.406   9.218
40235SOL    HW122544   9.235   9.407   9.263
40235SOL    HW222545   9.165   9.351   9.140
40236SOL     OW22546   2.060  10.168   7.702
40236SOL    HW122547   2.030  10.256   7.680
40236SOL    HW222548   2.079  10.172   7.796
40237SOL     OW22549  14.443  10.021   9.558
40237SOL    HW122550  14.526   9.973   9.571
40237SOL    HW222551  14.429  10.019   9.463
40238SOL     OW22552   2.261   5.885   7.788
40238SOL    HW122553   2.244   5.791   7.789
40238SOL    HW222554   2.260   5.911   7.880
40239SOL     OW22555   8.731   3.736   0.950
40239SOL    HW122556   8.660   3.800   0.944
40239SOL    HW222557   8.687   3.651   0.948
40240SOL     OW22558   6.393   6.947   9.845
40240SOL    HW122559   6.404   7.023   9.789
40240SOL    HW222560   6.355   6.981   9.925
40241SOL     OW22561   0.886   6.863   5.709
40241SOL    HW122562   0.919   6.788   5.758
40241SOL    HW222563   0.889   6.836   5.618
40242SOL     OW22564  13.529   2.379   9.599
40242SOL    HW122565  13.556   2.322   9.672
40242SOL    HW222566  13.492   2.319   9.534
40243SOL     OW22567  14.549   2.724   8.323
40243SOL    HW122568  14.596   2.711   8.405
40243SOL    HW222569  14.592   2.664   8.261
40244SOL     OW22570  11.620   7.490   3.182
40244SOL    HW122571  11.694   7.528   3.229
40244SOL    HW222572  11.578   7.432   3.246
40245SOL     OW22573   0.867   9.391   6.411
40245SOL    HW122574   0.868   9.388   6.506
40245SOL    HW222575   0.842   9.303   6.384
40246SOL     OW22576  11.781   8.363   0.172
40246SOL    HW122577  11.685   8.362   0.169
40246SOL    HW222578  11.803   8.298   0.239
40247SOL     OW22579   5.496   7.789  11.769
40247SOL    HW122580   5.550   7.772  11.692
40247SOL    HW222581   5.406   7.782  11.737
40248SOL     OW22582  10.975  11.872   3.308
40248SOL    HW122583  10.942  11.793   3.264
40248SOL    HW222584  11.042  11.906   3.249
40249SOL     OW22585   1.419   8.561   9.568
40249SOL    HW122586   1.349   8.497   9.557
40249SOL    HW222587   1.373   8.642   9.590
40250SOL     OW22588   2.278  12.221  10.596
40250SOL    HW122589   2.320  12.285  10.654
40250SOL    HW222590   2.222  12.169  10.654
40251SOL     OW22591   1.105  12.498  10.643
40251SOL    HW122592   1.057  12.454  10.573
40251SOL    HW222593   1.118  12.429  10.709
40252SOL     OW22594   8.754   9.678  14.512
40252SOL    HW122595   8.746   9.587  14.541
40252SOL    HW222596   8.842   9.704  14.540
40253SOL     OW22597  13.490   7.804  11.630
40253SOL    HW122598  13.577   7.808  11.590
40253SOL    HW222599  13.430   7.833  11.562
40254SOL     OW22600  11.067   0.238  10.363
40254SOL    HW122601  11.155   0.208  10.384
40254SOL    HW222602  11.073   0.334  10.363
40255SOL     OW22603   4.099   4.252   1.470
40255SOL    HW122604   4.053   4.294   1.543
40255SOL    HW222605   4.163   4.194   1.512
40256SOL     OW22606  12.198   4.778   3.352
40256SOL    HW122607  12.110   4.810   3.335
40256SOL    HW222608  12.212   4.796   3.445
40257SOL     OW22609   8.322  10.361  11.748
40257SOL    HW122610   8.252  10.327  11.692
40257SOL    HW222611   8.366  10.427  11.695
40258SOL     OW22612  11.786   3.809  14.192
40258SOL    HW122613  11.717   3.864  14.154
40258SOL    HW222614  11.753   3.719  14.182
40259SOL     OW22615   6.133   0.983  10.704
40259SOL    HW122616   6.202   0.962  10.641
40259SOL    HW222617   6.180   1.004  10.785
40260SOL     OW22618  13.431  11.777  14.769
40260SOL    HW122619  13.415  11.688  14.737
40260SOL    HW222620  13.525  11.780  14.784
40261SOL     OW22621  14.191   9.054   8.589
40261SOL    HW122622  14.146   8.987   8.640
40261SOL    HW222623  14.151   9.051   8.503
40262SOL     OW22624   6.379   0.052   3.636
40262SOL    HW122625   6.445   0.072   3.703
40262SOL    HW222626   6.337  14.851   3.667
40263SOL     OW22627   7.118   7.518  12.032
40263SOL    HW122628   7.103   7.423  12.034
40263SOL    HW222629   7.053   7.551  11.970
40264SOL     OW22630   4.014   3.410  10.733
40264SOL    HW122631   4.075   3.347  10.696
40264SOL    HW222632   3.964   3.443  10.658
40265SOL     OW22633   1.069  13.537  14.248
40265SOL    HW122634   1.109  13.507  14.167
40265SOL    HW222635   1.039  13.457  14.291
40266SOL     OW22636  14.585  11.247   0.479
40266SOL    HW122637  14.670  11.263   0.438
40266SOL    HW222638  14.554  11.335   0.503
40267SOL     OW22639   2.866   5.418  13.267
40267SOL    HW122640   2.838   5.365  13.342
40267SOL    HW222641   2.921   5.359  13.216
40268SOL     OW22642  14.852   8.286   3.888
40268SOL    HW122643  14.783   8.299   3.953
40268SOL    HW222644   0.017   8.207   3.916
40269SOL     OW22645   6.477   4.018   9.143
40269SOL    HW122646   6.508   4.075   9.073
40269SOL    HW222647   6.464   3.933   9.101
40270SOL     OW22648   3.496  12.410   9.889
40270SOL    HW122649   3.473  12.400   9.981
40270SOL    HW222650   3.415  12.437   9.847
40271SOL     OW22651   1.710   3.785   2.115
40271SOL    HW122652   1.708   3.689   2.108
40271SOL    HW222653   1.770   3.813   2.046
40272SOL     OW22654   3.271   6.064   2.674
40272SOL    HW122655   3.244   6.122   2.746
40272SOL    HW222656   3.226   5.982   2.692
40273SOL     OW22657   5.688   1.875   6.023
40273SOL    HW122658   5.736   1.948   5.984
40273SOL    HW222659   5.738   1.797   5.998
40274SOL     OW22660   7.187   4.232   9.702
40274SOL    HW122661   7.197   4.205   9.793
40274SOL    HW222662   7.165   4.326   9.707
40275SOL     OW22663   1.907  12.181   5.036
40275SOL    HW122664   1.824  12.137   5.055
40275SOL    HW222665   1.974  12.123   5.072
40276SOL     OW22666   3.259  13.271   3.984
40276SOL    HW122667   3.312  13.293   3.907
40276SOL    HW222668   3.323  13.254   4.053
40277SOL     OW22669   9.433   9.369   3.780
40277SOL    HW122670   9.403   9.394   3.868
40277SOL    HW222671   9.394   9.435   3.722
40278SOL     OW22672   5.637   3.261   1.758
40278SOL    HW122673   5.616   3.266   1.851
40278SOL    HW222674   5.693   3.184   1.750
40279SOL     OW22675   4.011  12.752   9.638
40279SOL    HW122676   4.006  12.690   9.711
40279SOL    HW222677   4.026  12.697   9.561
40280SOL     OW22678  12.906  14.522  13.918
40280SOL    HW122679  12.926  14.615  13.910
40280SOL    HW222680  12.964  14.479  13.855
40281SOL     OW22681   4.884   5.580   5.107
40281SOL    HW122682   4.814   5.646   5.113
40281SOL    HW222683   4.848   5.503   5.151
40282SOL     OW22684   6.219   8.225   0.876
40282SOL    HW122685   6.287   8.291   0.887
40282SOL    HW222686   6.243   8.178   0.797
40283SOL     OW22687  10.754   6.330   4.451
40283SOL    HW122688  10.775   6.419   4.477
40283SOL    HW222689  10.658   6.326   4.456
40284SOL     OW22690   7.215  14.249   8.147
40284SOL    HW122691   7.269  14.192   8.092
40284SOL    HW222692   7.161  14.189   8.198
40285SOL     OW22693   4.133   4.874  10.558
40285SOL    HW122694   4.222   4.875  10.595
40285SOL    HW222695   4.130   4.948  10.499
40286SOL     OW22696   3.238   9.982   9.637
40286SOL    HW122697   3.154   9.949   9.667
40286SOL    HW222698   3.251  10.063   9.686
40287SOL     OW22699   9.021  14.870   2.293
40287SOL    HW122700   9.051  14.850   2.381
40287SOL    HW222701   9.060   0.075   2.272
40288SOL     OW22702  13.580  13.780  12.796
40288SOL    HW122703  13.666  13.818  12.780
40288SOL    HW222704  13.576  13.705  12.736
40289SOL     OW22705   7.816   5.825   0.529
40289SOL    HW122706   7.749   5.779   0.478
40289SOL    HW222707   7.769   5.862   0.603
40290SOL     OW22708  12.527   5.556   0.399
40290SOL    HW122709  12.553   5.553   0.491
40290SOL    HW222710  12.528   5.650   0.377
40291SOL     OW22711  14.018  12.588   5.407
40291SOL    HW122712  14.059  12.501   5.412
40291SOL    HW222713  14.087  12.648   5.437
40292SOL     OW22714   5.872  11.532  13.514
40292SOL    HW122715   5.797  11.579  13.551
40292SOL    HW222716   5.942  11.544  13.578
40293SOL     OW22717  10.894  12.757   5.459
40293SOL    HW122718  10.818  12.752   5.517
40293SOL    HW222719  10.903  12.850   5.439
40294SOL     OW22720   1.399   5.178  13.572
40294SOL    HW122721   1.306   5.165  13.554
40294SOL    HW222722   1.415   5.270  13.551
40295SOL     OW22723   2.301   8.218   9.038
40295SOL    HW122724   2.366   8.148   9.044
40295SOL    HW222725   2.330   8.272   8.964
40296SOL     OW22726   8.098  12.504  12.432
40296SOL    HW122727   8.053  12.431  12.388
40296SOL    HW222728   8.027  12.556  12.469
40297SOL     OW22729   6.279   8.139   9.720
40297SOL    HW122730   6.357   8.085   9.735
40297SOL    HW222731   6.234   8.096   9.647
40298SOL     OW22732   5.426  11.163   0.662
40298SOL    HW122733   5.340  11.133   0.632
40298SOL    HW222734   5.457  11.219   0.590
40299SOL     OW22735   0.960   7.774  12.842
40299SOL    HW122736   0.910   7.855  12.836
40299SOL    HW222737   0.986   7.755  12.752
40300SOL     OW22738   4.178   2.297   0.317
40300SOL    HW122739   4.107   2.233   0.313
40300SOL    HW222740   4.167   2.350   0.237
40301SOL     OW22741   6.998   7.359  11.049
40301SOL    HW122742   6.975   7.447  11.079
40301SOL    HW222743   7.047   7.321  11.122
40302SOL     OW22744  13.021  14.329   9.579
40302SOL    HW122745  12.950  14.358   9.522
40302SOL    HW222746  13.077  14.406   9.588
40303SOL     OW22747   8.008   0.541  13.726
40303SOL    HW122748   8.083   0.539  13.666
40303SOL    HW222749   7.937   0.500  13.677
40304SOL     OW22750   8.765  12.112   3.952
40304SOL    HW122751   8.768  12.089   4.045
40304SOL    HW222752   8.803  12.036   3.908
40305SOL     OW22753  12.409   1.578  10.575
40305SOL    HW122754  12.465   1.527  10.634
40305SOL    HW222755  12.467   1.602  10.502
40306SOL     OW22756  12.666  10.901  11.261
40306SOL    HW122757  12.702  10.865  11.180
40306SOL    HW222758  12.580  10.861  11.270
40307SOL     OW22759   9.077   0.210   0.926
40307SOL    HW122760   9.070   0.284   0.987
40307SOL    HW222761   9.156   0.164   0.955
40308SOL     OW22762   9.484  12.636   7.691
40308SOL    HW122763   9.455  12.592   7.611
40308SOL    HW222764   9.524  12.718   7.661
40309SOL     OW22765  10.916   4.240   7.422
40309SOL    HW122766  10.992   4.289   7.390
40309SOL    HW222767  10.861   4.306   7.463
40310SOL     OW22768   0.552   5.925   5.598
40310SOL    HW122769   0.545   6.020   5.596
40310SOL    HW222770   0.644   5.907   5.578
40311SOL     OW22771  14.147  13.054   9.864
40311SOL    HW122772  14.065  13.022   9.902
40311SOL    HW222773  14.198  13.083   9.939
40312SOL     OW22774   0.565   9.764  10.851
40312SOL    HW122775   0.606   9.704  10.914
40312SOL    HW222776   0.484   9.720  10.825
40313SOL     OW22777   7.109  12.328   5.071
40313SOL    HW122778   7.046  12.314   5.001
40313SOL    HW222779   7.175  12.386   5.033
40314SOL     OW22780   5.249   7.658   0.755
40314SOL    HW122781   5.231   7.745   0.791
40314SOL    HW222782   5.289   7.610   0.828
40315SOL     OW22783   3.615   6.025   6.089
40315SOL    HW122784   3.614   6.120   6.081
40315SOL    HW222785   3.707   6.000   6.086
40316SOL     OW22786   4.115  14.688  12.152
40316SOL    HW122787   4.073  14.761  12.108
40316SOL    HW222788   4.191  14.727  12.196
40317SOL     OW22789   5.458  14.229   5.034
40317SOL    HW122790   5.531  14.171   5.014
40317SOL    HW222791   5.496  14.298   5.088
40318SOL     OW22792   2.220  12.021   9.027
40318SOL    HW122793   2.189  11.936   8.997
40318SOL    HW222794   2.144  12.078   9.021
40319SOL     OW22795   8.523  13.125   4.385
40319SOL    HW122796   8.617  13.120   4.366
40319SOL    HW222797   8.494  13.034   4.387
40320SOL     OW22798   6.685  12.090   0.377
40320SOL    HW122799   6.751  12.030   0.413
40320SOL    HW222800   6.709  12.176   0.410
40321SOL     OW22801   6.102   1.328  10.898
40321SOL    HW122802   6.035   1.316  10.831
40321SOL    HW222803   6.073   1.405  10.947
40322SOL     OW22804   5.151   8.860   7.488
40322SOL    HW122805   5.192   8.863   7.574
40322SOL    HW222806   5.093   8.935   7.487
40323SOL     OW22807   3.842  11.526   0.291
40323SOL    HW122808   3.776  11.573   0.342
40323SOL    HW222809   3.874  11.591   0.229
40324SOL     OW22810  14.457   2.103   9.108
40324SOL    HW122811  14.475   2.095   9.202
40324SOL    HW222812  14.543   2.120   9.069
40325SOL     OW22813   7.271   4.142   5.802
40325SOL    HW122814   7.315   4.212   5.754
40325SOL    HW222815   7.298   4.061   5.758
40326SOL     OW22816   4.451   7.398   0.426
40326SOL    HW122817   4.512   7.466   0.456
40326SOL    HW222818   4.450   7.406   0.331
40327SOL     OW22819  12.366   8.831   5.908
40327SOL    HW122820  12.360   8.921   5.874
40327SOL    HW222821  12.442   8.832   5.965
40328SOL     OW22822   7.211   7.521  11.684
40328SOL    HW122823   7.268   7.595  11.660
40328SOL    HW222824   7.126   7.561  11.700
40329SOL     OW22825   4.457  10.880   4.500
40329SOL    HW122826   4.441  10.874   4.406
40329SOL    HW222827   4.412  10.804   4.537
40330SOL     OW22828   0.091  12.037   9.646
40330SOL    HW122829  14.877  12.051   9.656
40330SOL    HW222830   0.127  12.124   9.628
40331SOL     OW22831   9.911   3.468   1.468
40331SOL    HW122832   9.997   3.473   1.426
40331SOL    HW222833   9.929   3.474   1.562
40332SOL     OW22834   4.467  14.266   2.191
40332SOL    HW122835   4.392  14.209   2.209
40332SOL    HW222836   4.441  14.352   2.225
40333SOL     OW22837   3.814  10.013  13.020
40333SOL    HW122838   3.723   9.996  12.997
40333SOL    HW222839   3.863   9.991  12.941
40334SOL     OW22840   1.697  14.635   0.775
40334SOL    HW122841   1.622  14.607   0.723
40334SOL    HW222842   1.662  14.706   0.829
40335SOL     OW22843   6.661  10.665   8.714
40335SOL    HW122844   6.584  10.713   8.683
40335SOL    HW222845   6.735  10.708   8.670
40336SOL     OW22846   4.401   4.152   8.490
40336SOL    HW122847   4.374   4.216   8.425
40336SOL    HW222848   4.394   4.198   8.574
40337SOL     OW22849   6.920   2.633  14.651
40337SOL    HW122850   6.935   2.679  14.569
40337SOL    HW222851   6.933   2.540  14.630
40338SOL     OW22852   9.263   1.763   4.279
40338SOL    HW122853   9.314   1.695   4.236
40338SOL    HW222854   9.196   1.788   4.215
40339SOL     OW22855   2.065  11.652  12.254
40339SOL    HW122856   2.079  11.559  12.272
40339SOL    HW222857   2.076  11.695  12.340
40340SOL     OW22858   0.231   7.641  11.868
40340SOL    HW122859   0.204   7.731  11.848
40340SOL    HW222860   0.285   7.649  11.947
40341SOL     OW22861  14.281  10.091  14.824
40341SOL    HW122862  14.284   9.995  14.832
40341SOL    HW222863  14.223  10.118   0.016
40342SOL     OW22864   6.652   8.363   2.079
40342SOL    HW122865   6.616   8.296   2.138
40342SOL    HW222866   6.746   8.362   2.097
40343SOL     OW22867   0.441  12.255   9.728
40343SOL    HW122868   0.490  12.295   9.799
40343SOL    HW222869   0.413  12.170   9.764
40344SOL     OW22870   6.712  12.380   5.495
40344SOL    HW122871   6.650  12.355   5.564
40344SOL    HW222872   6.692  12.472   5.477
40345SOL     OW22873  14.516   3.096   0.310
40345SOL    HW122874  14.478   3.172   0.354
40345SOL    HW222875  14.459   3.081   0.234
40346SOL     OW22876   8.528   0.134   6.003
40346SOL    HW122877   8.512   0.172   5.917
40346SOL    HW222878   8.466   0.178   6.061
40347SOL     OW22879   9.593  14.509   5.483
40347SOL    HW122880   9.638  14.557   5.413
40347SOL    HW222881   9.660  14.495   5.549
40348SOL     OW22882  11.477   3.424  10.416
40348SOL    HW122883  11.439   3.375  10.343
40348SOL    HW222884  11.402   3.472  10.454
40349SOL     OW22885   1.634   1.777   3.494
40349SOL    HW122886   1.621   1.807   3.584
40349SOL    HW222887   1.546   1.752   3.465
40350SOL     OW22888   9.377   4.114   7.430
40350SOL    HW122889   9.360   4.167   7.508
40350SOL    HW222890   9.296   4.120   7.379
40351SOL     OW22891   3.586   7.924   3.550
40351SOL    HW122892   3.660   7.961   3.503
40351SOL    HW222893   3.591   7.830   3.534
40352SOL     OW22894   4.418   8.542   9.301
40352SOL    HW122895   4.323   8.532   9.291
40352SOL    HW222896   4.430   8.562   9.394
40353SOL     OW22897   1.691   1.802  12.346
40353SOL    HW122898   1.730   1.803  12.434
40353SOL    HW222899   1.733   1.875  12.301
40354SOL     OW22900  14.290  10.203   8.505
40354SOL    HW122901  14.365  10.151   8.534
40354SOL    HW222902  14.312  10.293   8.529
40355SOL     OW22903   8.680  12.531  12.831
40355SOL    HW122904   8.637  12.502  12.751
40355SOL    HW222905   8.634  12.610  12.857
40356SOL     OW22906   1.545   2.515   5.687
40356SOL    HW122907   1.532   2.456   5.612
40356SOL    HW222908   1.615   2.574   5.658
40357SOL     OW22909   6.516   3.027  11.140
40357SOL    HW122910   6.545   3.013  11.231
40357SOL    HW222911   6.471   2.946  11.117
40358SOL     OW22912   2.876   9.720  13.625
40358SOL    HW122913   2.854   9.735  13.533
40358SOL    HW222914   2.970   9.708  13.626
40359SOL     OW22915  11.988   1.595  14.380
40359SOL    HW122916  12.072   1.600  14.334
40359SOL    HW222917  12.010   1.619  14.470
40360SOL     OW22918   7.676  10.692   8.714
40360SOL    HW122919   7.620  10.699   8.791
40360SOL    HW222920   7.765  10.700   8.749
40361SOL     OW22921   1.031  13.148   2.247
40361SOL    HW122922   0.997  13.235   2.269
40361SOL    HW222923   0.968  13.087   2.285
40362SOL     OW22924   0.271   0.527   4.897
40362SOL    HW122925   0.206   0.459   4.913
40362SOL    HW222926   0.220   0.609   4.893
40363SOL     OW22927   3.428   9.925   4.747
40363SOL    HW122928   3.479   9.960   4.820
40363SOL    HW222929   3.486   9.932   4.672
40364SOL     OW22930  10.758   6.796   5.451
40364SOL    HW122931  10.701   6.871   5.436
40364SOL    HW222932  10.699   6.726   5.479
40365SOL     OW22933   9.371   1.797   5.816
40365SOL    HW122934   9.415   1.770   5.735
40365SOL    HW222935   9.280   1.769   5.805
40366SOL     OW22936   8.309   4.796   3.325
40366SOL    HW122937   8.350   4.727   3.377
40366SOL    HW222938   8.376   4.820   3.260
40367SOL     OW22939   5.811   3.825  12.949
40367SOL    HW122940   5.725   3.808  12.911
40367SOL    HW222941   5.858   3.875  12.883
40368SOL     OW22942   6.265  14.078   8.582
40368SOL    HW122943   6.336  14.031   8.625
40368SOL    HW222944   6.285  14.074   8.489
40369SOL     OW22945  11.172   9.370  13.095
40369SOL    HW122946  11.146   9.461  13.111
40369SOL    HW222947  11.102   9.318  13.134
40370SOL     OW22948   7.118   6.171   8.484
40370SOL    HW122949   7.100   6.173   8.390
40370SOL    HW222950   7.036   6.200   8.524
40371SOL     OW22951   4.544   5.536  12.585
40371SOL    HW122952   4.462   5.511  12.542
40371SOL    HW222953   4.611   5.481  12.545
40372SOL     OW22954   5.878   0.060   0.171
40372SOL    HW122955   5.839   0.070   0.084
40372SOL    HW222956   5.888   0.150   0.203
40373SOL     OW22957  10.393  10.521   3.395
40373SOL    HW122958  10.426  10.431   3.400
40373SOL    HW222959  10.299  10.513   3.407
40374SOL     OW22960   5.961  12.135   0.018
40374SOL    HW122961   5.896  12.193  14.859
40374SOL    HW222962   5.911  12.057   0.044
40375SOL     OW22963  12.795   8.816   4.949
40375SOL    HW122964  12.857   8.832   4.878
40375SOL    HW222965  12.848   8.781   5.020
40376SOL     OW22966   8.539   6.041  11.010
40376SOL    HW122967   8.528   6.098  11.086
40376SOL    HW222968   8.593   5.969  11.042
40377SOL     OW22969  10.136   7.603  10.723
40377SOL    HW122970  10.155   7.647  10.640
40377SOL    HW222971  10.040   7.607  10.731
40378SOL     OW22972   2.145   4.155   3.599
40378SOL    HW122973   2.197   4.117   3.528
40378SOL    HW222974   2.167   4.248   3.597
40379SOL     OW22975   2.070   3.847  13.816
40379SOL    HW122976   2.038   3.762  13.787
40379SOL    HW222977   2.091   3.834  13.909
40380SOL     OW22978   4.364  10.982  11.924
40380SOL    HW122979   4.335  10.973  12.015
40380SOL    HW222980   4.298  11.040  11.885
40381SOL     OW22981   9.615   7.851   9.134
40381SOL    HW122982   9.615   7.928   9.078
40381SOL    HW222983   9.531   7.809   9.118
40382SOL     OW22984   9.123  10.383   1.678
40382SOL    HW122985   9.096  10.333   1.754
40382SOL    HW222986   9.218  10.368   1.671
40383SOL     OW22987   0.150  10.168   0.413
40383SOL    HW122988   0.073  10.223   0.399
40383SOL    HW222989   0.116  10.088   0.453
40384SOL     OW22990  12.867   8.707   1.099
40384SOL    HW122991  12.801   8.774   1.084
40384SOL    HW222992  12.826   8.648   1.163
40385SOL     OW22993   1.255   8.819   2.605
40385SOL    HW122994   1.205   8.775   2.536
40385SOL    HW222995   1.307   8.749   2.645
40386SOL     OW22996   2.632   8.903  12.162
40386SOL    HW122997   2.701   8.968  12.170
40386SOL    HW222998   2.643   8.867  12.074
40387SOL     OW22999  13.666   4.543   3.181
40387SOL    HW123000  13.643   4.636   3.169
40387SOL    HW223001  13.677   4.510   3.092
40388SOL     OW23002  10.478   3.815  10.622
40388SOL    HW123003  10.432   3.889  10.662
40388SOL    HW223004  10.557   3.804  10.674
40389SOL     OW23005  14.343   1.903  13.035
40389SOL    HW123006  14.350   1.836  12.967
40389SOL    HW223007  14.281   1.867  13.099
40390SOL     OW23008   3.704  11.111   1.232
40390SOL    HW123009   3.716  11.023   1.196
40390SOL    HW223010   3.791  11.135   1.265
40391SOL     OW23011  11.254  11.042  13.939
40391SOL    HW123012  11.219  11.129  13.956
40391SOL    HW223013  11.215  11.017  13.855
40392SOL     OW23014   8.752   3.282   9.217
40392SOL    HW123015   8.681   3.252   9.275
40392SOL    HW223016   8.789   3.358   9.262
40393SOL     OW23017   8.605   1.665  14.732
40393SOL    HW123018   8.613   1.709  14.816
40393SOL    HW223019   8.662   1.716  14.673
40394SOL     OW23020   9.484   4.667  12.651
40394SOL    HW123021   9.416   4.652  12.716
40394SOL    HW223022   9.563   4.685  12.702
40395SOL     OW23023   4.088   3.942   0.560
40395SOL    HW123024   4.108   4.022   0.609
40395SOL    HW223025   4.159   3.882   0.581
40396SOL     OW23026   6.369   7.946   8.123
40396SOL    HW123027   6.447   7.939   8.178
40396SOL    HW223028   6.375   8.033   8.084
40397SOL     OW23029   2.983   1.183   9.319
40397SOL    HW123030   3.053   1.127   9.353
40397SOL    HW223031   3.025   1.269   9.308
40398SOL     OW23032   8.061  12.381   7.789
40398SOL    HW123033   8.138  12.324   7.782
40398SOL    HW223034   8.086  12.446   7.855
40399SOL     OW23035   5.915   4.876  11.763
40399SOL    HW123036   5.831   4.920  11.773
40399SOL    HW223037   5.914   4.806  11.829
40400SOL     OW23038   6.886   4.515   8.692
40400SOL    HW123039   6.861   4.483   8.779
40400SOL    HW223040   6.876   4.610   8.699
40401SOL     OW23041  10.760   3.177   8.603
40401SOL    HW123042  10.795   3.266   8.591
40401SOL    HW223043  10.831   3.128   8.644
40402SOL     OW23044   6.759   1.565  12.111
40402SOL    HW123045   6.675   1.568  12.157
40402SOL    HW223046   6.741   1.610  12.028
40403SOL     OW23047  13.637  10.200   3.653
40403SOL    HW123048  13.543  10.194   3.638
40403SOL    HW223049  13.650  10.286   3.692
40404SOL     OW23050   4.569   1.911   0.875
40404SOL    HW123051   4.656   1.883   0.906
40404SOL    HW223052   4.555   1.995   0.918
40405SOL     OW23053   8.829  11.825   6.004
40405SOL    HW123054   8.895  11.789   5.944
40405SOL    HW223055   8.745  11.804   5.963
40406SOL     OW23056   6.923  12.578   7.931
40406SOL    HW123057   6.900  12.623   8.012
40406SOL    HW223058   6.853  12.603   7.870
40407SOL     OW23059   0.030   3.002   9.231
40407SOL    HW123060   0.098   2.981   9.294
40407SOL    HW223061  14.870   3.083   9.263
40408SOL     OW23062   4.763   2.839   8.362
40408SOL    HW123063   4.680   2.863   8.322
40408SOL    HW223064   4.777   2.905   8.430
40409SOL     OW23065   9.144  12.817   7.591
40409SOL    HW123066   9.155  12.853   7.503
40409SOL    HW223067   9.165  12.724   7.583
40410SOL     OW23068   8.523   9.575   9.794
40410SOL    HW123069   8.485   9.566   9.881
40410SOL    HW223070   8.495   9.661   9.764
40411SOL     OW23071   6.494   2.584  13.934
40411SOL    HW123072   6.542   2.582  14.016
40411SOL    HW223073   6.409   2.623  13.956
40412SOL     OW23074   1.366   8.638  13.527
40412SOL    HW123075   1.323   8.717  13.559
40412SOL    HW223076   1.296   8.573  13.521
40413SOL     OW23077   7.775  10.567   5.929
40413SOL    HW123078   7.817  10.563   6.015
40413SOL    HW223079   7.761  10.476   5.905
40414SOL     OW23080   7.524   4.477   3.919
40414SOL    HW123081   7.517   4.571   3.936
40414SOL    HW223082   7.619   4.460   3.916
40415SOL     OW23083   0.185  11.606  11.606
40415SOL    HW123084   0.166  11.519  11.572
40415SOL    HW223085   0.126  11.617  11.680
40416SOL     OW23086   5.764  10.260   8.839
40416SOL    HW123087   5.851  10.295   8.859
40416SOL    HW223088   5.753  10.187   8.900
40417SOL     OW23089   1.137  11.347   1.425
40417SOL    HW123090   1.140  11.324   1.518
40417SOL    HW223091   1.125  11.442   1.425
40418SOL     OW23092  13.930   5.867   6.598
40418SOL    HW123093  13.998   5.917   6.553
40418SOL    HW223094  13.913   5.916   6.678
40419SOL     OW23095   7.057   3.081   7.435
40419SOL    HW123096   7.073   3.054   7.344
40419SOL    HW223097   7.055   3.177   7.432
40420SOL     OW23098  14.785   2.805   4.440
40420SOL    HW123099  14.712   2.853   4.400
40420SOL    HW223100  14.862   2.859   4.421
40421SOL     OW23101   8.221   3.756   3.166
40421SOL    HW123102   8.303   3.738   3.120
40421SOL    HW223103   8.245   3.817   3.236
40422SOL     OW23104   1.575   2.160   6.253
40422SOL    HW123105   1.578   2.074   6.294
40422SOL    HW223106   1.522   2.214   6.312
40423SOL     OW23107  10.586   3.771   6.199
40423SOL    HW123108  10.593   3.746   6.291
40423SOL    HW223109  10.622   3.697   6.150
40424SOL     OW23110  13.759   5.200  12.672
40424SOL    HW123111  13.807   5.131  12.627
40424SOL    HW223112  13.672   5.198  12.634
40425SOL     OW23113   5.803  12.544   6.037
40425SOL    HW123114   5.821  12.452   6.020
40425SOL    HW223115   5.849  12.592   5.968
40426SOL     OW23116   3.970  13.910   6.477
40426SOL    HW123117   4.061  13.912   6.507
40426SOL    HW223118   3.973  13.946   6.389
40427SOL     OW23119  13.583  11.630   0.518
40427SOL    HW123120  13.612  11.721   0.522
40427SOL    HW223121  13.564  11.615   0.425
40428SOL     OW23122  14.131  10.160  14.189
40428SOL    HW123123  14.162  10.156  14.279
40428SOL    HW223124  14.165  10.080  14.148
40429SOL     OW23125   8.741   5.668   0.219
40429SOL    HW123126   8.784   5.661   0.134
40429SOL    HW223127   8.812   5.683   0.281
40430SOL     OW23128   6.194   1.610   0.593
40430SOL    HW123129   6.214   1.623   0.500
40430SOL    HW223130   6.188   1.515   0.603
40431SOL     OW23131   1.784   5.748  12.409
40431SOL    HW123132   1.755   5.667  12.451
40431SOL    HW223133   1.818   5.720  12.324
40432SOL     OW23134   9.621  10.936   9.898
40432SOL    HW123135   9.554  10.882   9.856
40432SOL    HW223136   9.699  10.882   9.899
40433SOL     OW23137   4.145   9.900   5.638
40433SOL    HW123138   4.111   9.892   5.727
40433SOL    HW223139   4.193   9.983   5.639
40434SOL     OW23140   5.151   1.780   4.401
40434SOL    HW123141   5.205   1.812   4.328
40434SOL    HW223142   5.065   1.818   4.387
40435SOL     OW23143   2.703  12.116   6.262
40435SOL    HW123144   2.685  12.209   6.251
40435SOL    HW223145   2.727  12.085   6.175
40436SOL     OW23146  11.575   0.673   2.628
40436SOL    HW123147  11.568   0.601   2.566
40436SOL    HW223148  11.576   0.632   2.714
40437SOL     OW23149   2.222   0.616   6.945
40437SOL    HW123150   2.159   0.561   6.899
40437SOL    HW223151   2.250   0.681   6.881
40438SOL     OW23152   7.212   8.618   4.546
40438SOL    HW123153   7.282   8.660   4.596
40438SOL    HW223154   7.182   8.546   4.601
40439SOL     OW23155  11.446   3.464   7.878
40439SOL    HW123156  11.387   3.539   7.867
40439SOL    HW223157  11.533   3.503   7.881
40440SOL     OW23158  14.805   5.653   2.271
40440SOL    HW123159  14.766   5.571   2.302
40440SOL    HW223160  14.810   5.708   2.349
40441SOL     OW23161   5.255  10.791  14.211
40441SOL    HW123162   5.166  10.825  14.204
40441SOL    HW223163   5.272  10.788  14.305
40442SOL     OW23164  13.110   7.213   2.034
40442SOL    HW123165  13.016   7.194   2.032
40442SOL    HW223166  13.116   7.303   2.067
40443SOL     OW23167  11.270  14.801   8.491
40443SOL    HW123168  11.260  14.851   8.572
40443SOL    HW223169  11.223  14.853   8.425
40444SOL     OW23170  10.250   1.742   0.284
40444SOL    HW123171  10.267   1.654   0.250
40444SOL    HW223172  10.327   1.793   0.258
40445SOL     OW23173  11.609   5.819   0.991
40445SOL    HW123174  11.593   5.748   1.053
40445SOL    HW223175  11.621   5.775   0.907
40446SOL     OW23176  10.021   2.397   5.923
40446SOL    HW123177  10.018   2.481   5.878
40446SOL    HW223178   9.982   2.414   6.009
40447SOL     OW23179  13.398   5.233   6.064
40447SOL    HW123180  13.384   5.327   6.064
40447SOL    HW223181  13.320   5.196   6.104
40448SOL     OW23182  13.926   7.022  10.324
40448SOL    HW123183  13.985   7.054  10.255
40448SOL    HW223184  13.866   6.963  10.279
40449SOL     OW23185  12.763   6.642   8.364
40449SOL    HW123186  12.794   6.554   8.383
40449SOL    HW223187  12.680   6.628   8.317
40450SOL     OW23188   6.302  11.083   0.773
40450SOL    HW123189   6.319  11.169   0.813
40450SOL    HW223190   6.210  11.087   0.746
40451SOL     OW23191   6.258   1.097   0.991
40451SOL    HW123192   6.323   1.058   1.048
40451SOL    HW223193   6.174   1.066   1.026
40452SOL     OW23194   6.652   2.411   5.300
40452SOL    HW123195   6.710   2.343   5.266
40452SOL    HW223196   6.609   2.448   5.223
40453SOL     OW23197  13.146   7.289   9.995
40453SOL    HW123198  13.219   7.319  10.049
40453SOL    HW223199  13.176   7.206   9.958
40454SOL     OW23200   3.721   0.453   1.537
40454SOL    HW123201   3.632   0.465   1.571
40454SOL    HW223202   3.708   0.425   1.446
40455SOL     OW23203   8.746   5.868  13.426
40455SOL    HW123204   8.762   5.773  13.424
40455SOL    HW223205   8.659   5.879  13.387
40456SOL     OW23206   8.230   9.711   6.173
40456SOL    HW123207   8.265   9.731   6.259
40456SOL    HW223208   8.148   9.665   6.190
40457SOL     OW23209   4.379   3.979   2.453
40457SOL    HW123210   4.456   3.942   2.410
40457SOL    HW223211   4.313   3.910   2.446
40458SOL     OW23212   9.137   2.165  10.227
40458SOL    HW123213   9.072   2.234  10.217
40458SOL    HW223214   9.100   2.107  10.294
40459SOL     OW23215  13.858   5.453   5.972
40459SOL    HW123216  13.903   5.490   5.896
40459SOL    HW223217  13.913   5.380   6.000
40460SOL     OW23218   9.065   3.527   2.200
40460SOL    HW123219   9.050   3.480   2.281
40460SOL    HW223220   9.037   3.616   2.218
40461SOL     OW23221   3.667   2.588   2.188
40461SOL    HW123222   3.684   2.633   2.270
40461SOL    HW223223   3.753   2.578   2.148
40462SOL     OW23224  10.946  12.152   7.927
40462SOL    HW123225  10.908  12.141   7.840
40462SOL    HW223226  10.993  12.071   7.944
40463SOL     OW23227  13.377   7.113   0.844
40463SOL    HW123228  13.434   7.086   0.916
40463SOL    HW223229  13.430   7.172   0.792
40464SOL     OW23230  13.448   2.748   8.623
40464SOL    HW123231  13.522   2.718   8.675
40464SOL    HW223232  13.489   2.787   8.545
40465SOL     OW23233   2.963   2.741  12.509
40465SOL    HW123234   2.936   2.727  12.599
40465SOL    HW223235   2.887   2.782  12.467
40466SOL     OW23236   3.506   7.971  14.031
40466SOL    HW123237   3.567   8.043  14.018
40466SOL    HW223238   3.499   7.962  14.126
40467SOL     OW23239   9.035   0.438   1.780
40467SOL    HW123240   9.108   0.486   1.820
40467SOL    HW223241   9.046   0.453   1.686
40468SOL     OW23242  13.756  13.497  14.662
40468SOL    HW123243  13.820  13.496  14.733
40468SOL    HW223244  13.797  13.551  14.595
40469SOL     OW23245  12.324   3.504  13.449
40469SOL    HW123246  12.281   3.572  13.501
40469SOL    HW223247  12.417   3.514  13.469
40470SOL     OW23248   2.020   8.514   0.789
40470SOL    HW123249   2.012   8.497   0.883
40470SOL    HW223250   1.930   8.513   0.757
40471SOL     OW23251   4.987   8.760  12.971
40471SOL    HW123252   5.059   8.822  12.981
40471SOL    HW223253   5.002   8.694  13.039
40472SOL     OW23254  10.312   2.054   7.004
40472SOL    HW123255  10.405   2.035   7.020
40472SOL    HW223256  10.268   2.023   7.083
40473SOL     OW23257   4.318  13.848   3.076
40473SOL    HW123258   4.412  13.858   3.089
40473SOL    HW223259   4.283  13.834   3.164
40474SOL     OW23260   0.836   8.533   7.275
40474SOL    HW123261   0.903   8.599   7.260
40474SOL    HW223262   0.840   8.476   7.198
40475SOL     OW23263   9.959  14.005   6.994
40475SOL    HW123264   9.891  14.058   7.036
40475SOL    HW223265  10.018  13.981   7.065
40476SOL     OW23266   0.695   6.649   4.138
40476SOL    HW123267   0.744   6.650   4.220
40476SOL    HW223268   0.603   6.651   4.165
40477SOL     OW23269   6.545   0.452   0.349
40477SOL    HW123270   6.591   0.522   0.304
40477SOL    HW223271   6.614   0.392   0.377
40478SOL     OW23272   2.887  10.190  12.190
40478SOL    HW123273   2.905  10.259  12.126
40478SOL    HW223274   2.973  10.163  12.222
40479SOL     OW23275  10.788  10.967   0.353
40479SOL    HW123276  10.881  10.990   0.344
40479SOL    HW223277  10.751  11.038   0.407
40480SOL     OW23278   0.631  12.596   6.535
40480SOL    HW123279   0.610  12.587   6.628
40480SOL    HW223280   0.643  12.690   6.522
40481SOL     OW23281   4.059   3.186  14.801
40481SOL    HW123282   4.018   3.257  14.849
40481SOL    HW223283   4.100   3.228  14.726
40482SOL     OW23284   0.224   3.525  13.762
40482SOL    HW123285   0.192   3.460  13.699
40482SOL    HW223286   0.145   3.560  13.802
40483SOL     OW23287  13.778   8.093   5.712
40483SOL    HW123288  13.715   8.138   5.656
40483SOL    HW223289  13.851   8.071   5.654
40484SOL     OW23290  14.148   3.190   9.126
40484SOL    HW123291  14.125   3.274   9.087
40484SOL    HW223292  14.166   3.133   9.051
40485SOL     OW23293   0.494   3.049   8.304
40485SOL    HW123294   0.482   3.143   8.290
40485SOL    HW223295   0.577   3.029   8.261
40486SOL     OW23296  13.944   5.883  12.890
40486SOL    HW123297  13.884   5.812  12.912
40486SOL    HW223298  13.915   5.956  12.946
40487SOL     OW23299  14.165   9.648  13.168
40487SOL    HW123300  14.250   9.691  13.179
40487SOL    HW223301  14.102   9.712  13.200
40488SOL     OW23302  13.031   9.541   6.467
40488SOL    HW123303  13.054   9.568   6.379
40488SOL    HW223304  13.024   9.445   6.462
40489SOL     OW23305   2.546  13.140   5.595
40489SOL    HW123306   2.542  13.057   5.547
40489SOL    HW223307   2.599  13.197   5.540
40490SOL     OW23308   7.382   6.170   2.986
40490SOL    HW123309   7.367   6.264   2.988
40490SOL    HW223310   7.469   6.159   3.026
40491SOL     OW23311  11.133   8.871   9.173
40491SOL    HW123312  11.163   8.819   9.248
40491SOL    HW223313  11.161   8.960   9.193
40492SOL     OW23314  13.213  12.838   6.688
40492SOL    HW123315  13.304  12.807   6.692
40492SOL    HW223316  13.212  12.899   6.614
40493SOL     OW23317  13.695  13.022   0.324
40493SOL    HW123318  13.610  13.064   0.331
40493SOL    HW223319  13.708  13.009   0.230
40494SOL     OW23320  11.795   8.425  12.775
40494SOL    HW123321  11.853   8.434  12.699
40494SOL    HW223322  11.754   8.511  12.783
40495SOL     OW23323  13.196   8.682  13.602
40495SOL    HW123324  13.236   8.685  13.688
40495SOL    HW223325  13.263   8.716  13.543
40496SOL     OW23326   8.199  10.684  12.267
40496SOL    HW123327   8.266  10.628  12.304
40496SOL    HW223328   8.214  10.680  12.172
40497SOL     OW23329   7.804   8.117   0.868
40497SOL    HW123330   7.879   8.096   0.924
40497SOL    HW223331   7.834   8.191   0.816
40498SOL     OW23332   6.246   2.214  14.550
40498SOL    HW123333   6.172   2.269  14.578
40498SOL    HW223334   6.249   2.226  14.455
40499SOL     OW23335  13.077   8.037   8.844
40499SOL    HW123336  13.010   7.974   8.870
40499SOL    HW223337  13.077   8.032   8.748
40500SOL     OW23338   6.024  14.175   2.080
40500SOL    HW123339   5.978  14.183   1.997
40500SOL    HW223340   5.970  14.115   2.132
40501SOL     OW23341   5.652  10.050   0.012
40501SOL    HW123342   5.673   9.967   0.055
40501SOL    HW223343   5.731  10.103   0.021
40502SOL     OW23344   7.999   4.936   3.484
40502SOL    HW123345   8.080   4.886   3.472
40502SOL    HW223346   7.960   4.941   3.397
40503SOL     OW23347   5.400   1.889  11.576
40503SOL    HW123348   5.321   1.937  11.551
40503SOL    HW223349   5.425   1.928  11.660
40504SOL     OW23350   8.704   2.768   7.010
40504SOL    HW123351   8.729   2.796   7.099
40504SOL    HW223352   8.711   2.673   7.013
40505SOL     OW23353   4.678   5.436   7.708
40505SOL    HW123354   4.678   5.362   7.769
40505SOL    HW223355   4.656   5.512   7.762
40506SOL     OW23356  11.146  14.011   0.887
40506SOL    HW123357  11.143  13.934   0.829
40506SOL    HW223358  11.152  13.974   0.975
40507SOL     OW23359  13.279  10.056   1.950
40507SOL    HW123360  13.222  10.118   1.903
40507SOL    HW223361  13.219  10.001   1.999
40508SOL     OW23362   2.193   0.750   2.135
40508SOL    HW123363   2.173   0.727   2.225
40508SOL    HW223364   2.114   0.792   2.102
40509SOL     OW23365  14.665  13.667   7.851
40509SOL    HW123366  14.746  13.617   7.839
40509SOL    HW223367  14.631  13.677   7.762
40510SOL     OW23368   2.572  11.994   9.872
40510SOL    HW123369   2.636  12.062   9.854
40510SOL    HW223370   2.576  11.981   9.967
40511SOL     OW23371   9.255   0.812  12.770
40511SOL    HW123372   9.228   0.902  12.750
40511SOL    HW223373   9.263   0.770  12.684
40512SOL     OW23374  10.733   2.100  10.299
40512SOL    HW123375  10.809   2.075  10.246
40512SOL    HW223376  10.754   2.188  10.331
40513SOL     OW23377   9.147   8.870   8.880
40513SOL    HW123378   9.130   8.830   8.965
40513SOL    HW223379   9.123   8.803   8.816
40514SOL     OW23380   6.320   4.887   6.530
40514SOL    HW123381   6.239   4.909   6.484
40514SOL    HW223382   6.388   4.890   6.463
40515SOL     OW23383  12.082   1.209   8.958
40515SOL    HW123384  12.046   1.298   8.950
40515SOL    HW223385  12.030   1.157   8.897
40516SOL     OW23386  11.676   4.019   6.575
40516SOL    HW123387  11.701   3.972   6.496
40516SOL    HW223388  11.720   4.104   6.567
40517SOL     OW23389   7.099  10.307  10.076
40517SOL    HW123390   7.139  10.276  10.156
40517SOL    HW223391   7.151  10.267  10.006
40518SOL     OW23392   1.078  14.034  11.805
40518SOL    HW123393   1.067  13.972  11.877
40518SOL    HW223394   0.989  14.062  11.784
40519SOL     OW23395  13.661  10.235  12.354
40519SOL    HW123396  13.685  10.233  12.261
40519SOL    HW223397  13.595  10.168  12.364
40520SOL     OW23398   5.780   7.473  10.727
40520SOL    HW123399   5.718   7.543  10.747
40520SOL    HW223400   5.728   7.407  10.681
40521SOL     OW23401   6.334   0.439   5.124
40521SOL    HW123402   6.402   0.450   5.191
40521SOL    HW223403   6.331   0.344   5.109
40522SOL     OW23404   0.388  11.018   5.425
40522SOL    HW123405   0.399  11.089   5.363
40522SOL    HW223406   0.293  11.001   5.426
40523SOL     OW23407   8.440   5.494   2.306
40523SOL    HW123408   8.481   5.511   2.390
40523SOL    HW223409   8.390   5.413   2.319
40524SOL     OW23410   1.157   2.623  14.876
40524SOL    HW123411   1.194   2.631   0.084
40524SOL    HW223412   1.173   2.709  14.836
40525SOL     OW23413   1.633  10.464   8.103
40525SOL    HW123414   1.691  10.501   8.036
40525SOL    HW223415   1.582  10.538   8.134
40526SOL     OW23416   2.642  14.644   7.221
40526SOL    HW123417   2.713  14.593   7.182
40526SOL    HW223418   2.683  14.727   7.246
40527SOL     OW23419  10.313   3.770   1.328
40527SOL    HW123420  10.256   3.834   1.372
40527SOL    HW223421  10.380   3.823   1.286
40528SOL     OW23422  10.072   1.131  14.805
40528SOL    HW123423  10.133   1.127  14.878
40528SOL    HW223424  10.068   1.223  14.781
40529SOL     OW23425   6.609   3.872  12.283
40529SOL    HW123426   6.598   3.872  12.188
40529SOL    HW223427   6.544   3.809  12.315
40530SOL     OW23428  11.410   0.180   3.228
40530SOL    HW123429  11.383   0.162   3.319
40530SOL    HW223430  11.500   0.150   3.223
40531SOL     OW23431   7.205   9.520  10.882
40531SOL    HW123432   7.271   9.450  10.878
40531SOL    HW223433   7.160   9.505  10.966
40532SOL     OW23434  10.975   9.189   8.383
40532SOL    HW123435  10.956   9.096   8.373
40532SOL    HW223436  10.930   9.231   8.310
40533SOL     OW23437  10.373  12.818  13.842
40533SOL    HW123438  10.316  12.749  13.875
40533SOL    HW223439  10.355  12.821  13.748
40534SOL     OW23440   2.143   5.528   8.160
40534SOL    HW123441   2.237   5.510   8.162
40534SOL    HW223442   2.102   5.442   8.166
40535SOL     OW23443   3.658   3.500   2.406
40535SOL    HW123444   3.742   3.468   2.372
40535SOL    HW223445   3.652   3.463   2.494
40536SOL     OW23446   0.632  11.824   2.344
40536SOL    HW123447   0.712  11.798   2.297
40536SOL    HW223448   0.614  11.751   2.403
40537SOL     OW23449   4.150   9.159   2.657
40537SOL    HW123450   4.246   9.155   2.653
40537SOL    HW223451   4.128   9.124   2.743
40538SOL     OW23452  10.170  13.601  11.713
40538SOL    HW123453  10.194  13.554  11.634
40538SOL    HW223454  10.190  13.540  11.784
40539SOL     OW23455  12.721  14.074  13.176
40539SOL    HW123456  12.696  14.058  13.267
40539SOL    HW223457  12.806  14.119  13.181
40540SOL     OW23458   2.528   0.963   3.370
40540SOL    HW123459   2.518   0.971   3.465
40540SOL    HW223460   2.617   0.993   3.353
40541SOL     OW23461  12.729  10.151  12.916
40541SOL    HW123462  12.752  10.243  12.933
40541SOL    HW223463  12.706  10.149  12.823
40542SOL     OW23464   3.038   1.008   7.721
40542SOL    HW123465   3.094   1.084   7.738
40542SOL    HW223466   3.084   0.959   7.653
40543SOL     OW23467   9.326   5.686  10.007
40543SOL    HW123468   9.380   5.695   9.928
40543SOL    HW223469   9.241   5.658   9.974
40544SOL     OW23470  13.734  12.140   3.841
40544SOL    HW123471  13.671  12.129   3.912
40544SOL    HW223472  13.815  12.100   3.874
40545SOL     OW23473  13.027   9.484   5.679
40545SOL    HW123474  13.102   9.512   5.627
40545SOL    HW223475  12.951   9.510   5.627
40546SOL     OW23476  14.271   1.474   4.729
40546SOL    HW123477  14.356   1.432   4.745
40546SOL    HW223478  14.290   1.544   4.667
40547SOL     OW23479   6.430   5.484  11.811
40547SOL    HW123480   6.505   5.475  11.869
40547SOL    HW223481   6.402   5.394  11.795
40548SOL     OW23482   9.390  12.874   0.439
40548SOL    HW123483   9.298  12.891   0.461
40548SOL    HW223484   9.405  12.924   0.359
40549SOL     OW23485   0.966   6.453  11.641
40549SOL    HW123486   0.984   6.547  11.632
40549SOL    HW223487   0.890   6.449  11.699
40550SOL     OW23488   3.205  13.539   3.604
40550SOL    HW123489   3.224  13.632   3.611
40550SOL    HW223490   3.114  13.530   3.633
40551SOL     OW23491  14.259   7.147   2.573
40551SOL    HW123492  14.222   7.147   2.485
40551SOL    HW223493  14.274   7.054   2.593
40552SOL     OW23494   7.574  11.424   4.240
40552SOL    HW123495   7.549  11.370   4.315
40552SOL    HW223496   7.651  11.380   4.203
40553SOL     OW23497  11.340  13.713  14.722
40553SOL    HW123498  11.352  13.626  14.684
40553SOL    HW223499  11.246  13.721  14.736
40554SOL     OW23500   5.403  10.317  10.668
40554SOL    HW123501   5.390  10.243  10.727
40554SOL    HW223502   5.418  10.392  10.726
40555SOL     OW23503  14.095   6.676   5.788
40555SOL    HW123504  14.063   6.707   5.873
40555SOL    HW223505  14.041   6.721   5.724
40556SOL     OW23506   9.834  12.100   0.370
40556SOL    HW123507   9.818  12.194   0.374
40556SOL    HW223508   9.885  12.081   0.449
40557SOL     OW23509  11.287   8.072   4.264
40557SOL    HW123510  11.246   8.120   4.335
40557SOL    HW223511  11.244   7.986   4.266
40558SOL     OW23512   3.346  10.914   4.532
40558SOL    HW123513   3.336  11.001   4.492
40558SOL    HW223514   3.438  10.892   4.518
40559SOL     OW23515  11.524   1.924   5.066
40559SOL    HW123516  11.442   1.896   5.107
40559SOL    HW223517  11.549   2.003   5.114
40560SOL     OW23518  12.096   0.141   2.510
40560SOL    HW123519  12.029   0.154   2.443
40560SOL    HW223520  12.150   0.070   2.477
40561SOL     OW23521  10.925   5.007  11.613
40561SOL    HW123522  10.834   4.977  11.610
40561SOL    HW223523  10.936   5.037  11.703
40562SOL     OW23524   1.614   6.229   8.368
40562SOL    HW123525   1.573   6.204   8.285
40562SOL    HW223526   1.661   6.310   8.348
40563SOL     OW23527   3.557   0.097   7.172
40563SOL    HW123528   3.516   0.125   7.254
40563SOL    HW223529   3.611   0.021   7.197
40564SOL     OW23530   2.541  12.669  12.025
40564SOL    HW123531   2.455  12.702  12.052
40564SOL    HW223532   2.561  12.601  12.090
40565SOL     OW23533  12.177   4.122  14.162
40565SOL    HW123534  12.145   4.074  14.238
40565SOL    HW223535  12.144   4.072  14.087
40566SOL     OW23536   7.657   2.864   9.030
40566SOL    HW123537   7.720   2.916   8.981
40566SOL    HW223538   7.615   2.927   9.089
40567SOL     OW23539   1.027   3.584  10.425
40567SOL    HW123540   0.993   3.499  10.399
40567SOL    HW223541   1.088   3.608  10.355
40568SOL     OW23542   8.815  11.532  12.490
40568SOL    HW123543   8.899  11.487  12.498
40568SOL    HW223544   8.766  11.504  12.567
40569SOL     OW23545  11.019  13.496   3.073
40569SOL    HW123546  11.039  13.435   3.002
40569SOL    HW223547  10.940  13.542   3.044
40570SOL     OW23548   2.756   0.073  10.136
40570SOL    HW123549   2.673   0.042  10.173
40570SOL    HW223550   2.807   0.102  10.211
40571SOL     OW23551  11.349   2.733  12.789
40571SOL    HW123552  11.347   2.736  12.694
40571SOL    HW223553  11.401   2.654  12.809
40572SOL     OW23554   0.438   1.462   0.062
40572SOL    HW123555   0.454   1.369   0.075
40572SOL    HW223556   0.398   1.468  14.855
40573SOL     OW23557   2.024  11.677   0.175
40573SOL    HW123558   2.019  11.582   0.192
40573SOL    HW223559   2.095  11.707   0.232
40574SOL     OW23560  10.607  13.843   1.669
40574SOL    HW123561  10.575  13.819   1.581
40574SOL    HW223562  10.557  13.921   1.692
40575SOL     OW23563   2.405   1.900   7.392
40575SOL    HW123564   2.381   1.936   7.306
40575SOL    HW223565   2.324   1.861   7.425
40576SOL     OW23566   0.113   8.303   6.206
40576SOL    HW123567   0.045   8.370   6.206
40576SOL    HW223568   0.193   8.350   6.232
40577SOL     OW23569  13.482   8.916   6.916
40577SOL    HW123570  13.565   8.887   6.953
40577SOL    HW223571  13.505   8.992   6.863
40578SOL     OW23572  11.355  11.908  11.194
40578SOL    HW123573  11.437  11.902  11.243
40578SOL    HW223574  11.302  11.971  11.244
40579SOL     OW23575   6.159   5.475   4.127
40579SOL    HW123576   6.213   5.522   4.190
40579SOL    HW223577   6.161   5.384   4.157
40580SOL     OW23578  11.029  14.330   2.357
40580SOL    HW123579  11.004  14.321   2.449
40580SOL    HW223580  11.123  14.348   2.359
40581SOL     OW23581   1.379  13.908  13.203
40581SOL    HW123582   1.371  13.859  13.121
40581SOL    HW223583   1.399  13.841  13.269
40582SOL     OW23584  14.540   2.738   8.612
40582SOL    HW123585  14.482   2.667   8.583
40582SOL    HW223586  14.620   2.693   8.639
40583SOL     OW23587   2.564   2.249   0.841
40583SOL    HW123588   2.554   2.247   0.746
40583SOL    HW223589   2.606   2.165   0.862
40584SOL     OW23590  10.298   5.170  10.033
40584SOL    HW123591  10.227   5.133  10.086
40584SOL    HW223592  10.377   5.128  10.066
40585SOL     OW23593   5.076  11.654  14.795
40585SOL    HW123594   5.073  11.563  14.764
40585SOL    HW223595   5.169  11.672  14.807
40586SOL     OW23596  13.590   1.044  13.041
40586SOL    HW123597  13.564   1.135  13.053
40586SOL    HW223598  13.517   0.993  13.078
40587SOL     OW23599   8.927   3.400  14.801
40587SOL    HW123600   9.000   3.386  14.862
40587SOL    HW223601   8.851   3.366  14.848
40588SOL     OW23602   4.735   0.026   0.161
40588SOL    HW123603   4.714   0.055   0.072
40588SOL    HW223604   4.826  14.875   0.155
40589SOL     OW23605   3.837  11.165  10.328
40589SOL    HW123606   3.885  11.129  10.402
40589SOL    HW223607   3.745  11.150  10.349
40590SOL     OW23608  13.579   4.612   7.917
40590SOL    HW123609  13.495   4.601   7.961
40590SOL    HW223610  13.563   4.680   7.851
40591SOL     OW23611  13.632   7.652  10.945
40591SOL    HW123612  13.694   7.594  10.990
40591SOL    HW223613  13.557   7.657  11.004
40592SOL     OW23614   6.762  12.716   3.308
40592SOL    HW123615   6.721  12.712   3.395
40592SOL    HW223616   6.766  12.810   3.288
40593SOL     OW23617   5.049  10.695   3.835
40593SOL    HW123618   5.054  10.635   3.761
40593SOL    HW223619   5.137  10.692   3.874
40594SOL     OW23620   4.816  11.784  14.234
40594SOL    HW123621   4.798  11.744  14.148
40594SOL    HW223622   4.777  11.723  14.297
40595SOL     OW23623   1.243   9.568   8.783
40595SOL    HW123624   1.256   9.481   8.746
40595SOL    HW223625   1.302   9.625   8.733
40596SOL     OW23626   4.464   6.794   4.854
40596SOL    HW123627   4.470   6.815   4.761
40596SOL    HW223628   4.501   6.870   4.899
40597SOL     OW23629  11.275   2.587  13.363
40597SOL    HW123630  11.371   2.591  13.355
40597SOL    HW223631  11.249   2.521  13.299
40598SOL     OW23632   4.500  13.425   0.233
40598SOL    HW123633   4.592  13.401   0.247
40598SOL    HW223634   4.484  13.404   0.141
40599SOL     OW23635   4.147   7.957  11.196
40599SOL    HW123636   4.137   8.052  11.186
40599SOL    HW223637   4.221   7.934  11.139
40600SOL     OW23638   2.775  11.868   7.348
40600SOL    HW123639   2.682  11.851   7.364
40600SOL    HW223640   2.817  11.783   7.355
40601SOL     OW23641   6.688   5.963   5.077
40601SOL    HW123642   6.765   5.919   5.042
40601SOL    HW223643   6.614   5.911   5.047
40602SOL     OW23644   8.384  10.376  10.602
40602SOL    HW123645   8.384  10.461  10.559
40602SOL    HW223646   8.300  10.372  10.648
40603SOL     OW23647   5.665   3.088   7.808
40603SOL    HW123648   5.758   3.067   7.801
40603SOL    HW223649   5.651   3.102   7.902
40604SOL     OW23650   8.136   4.359   5.749
40604SOL    HW123651   8.231   4.363   5.736
40604SOL    HW223652   8.117   4.265   5.753
40605SOL     OW23653   0.468   2.537   8.305
40605SOL    HW123654   0.519   2.615   8.326
40605SOL    HW223655   0.390   2.571   8.262
40606SOL     OW23656   0.427  10.723  12.570
40606SOL    HW123657   0.498  10.672  12.532
40606SOL    HW223658   0.362  10.658  12.598
40607SOL     OW23659  12.438   4.118  14.186
40607SOL    HW123660  12.343   4.116  14.176
40607SOL    HW223661  12.452   4.128  14.280
40608SOL     OW23662   1.521   4.036  13.665
40608SOL    HW123663   1.565   3.956  13.693
40608SOL    HW223664   1.473   4.011  13.586
40609SOL     OW23665   1.502  13.199  14.194
40609SOL    HW123666   1.516  13.214  14.101
40609SOL    HW223667   1.497  13.287  14.232
40610SOL     OW23668   4.552   0.983   3.013
40610SOL    HW123669   4.612   0.909   3.015
40610SOL    HW223670   4.473   0.951   3.057
40611SOL     OW23671   1.591   8.733  12.048
40611SOL    HW123672   1.578   8.708  11.957
40611SOL    HW223673   1.577   8.652  12.098
40612SOL     OW23674   4.464   5.393  10.116
40612SOL    HW123675   4.545   5.429  10.080
40612SOL    HW223676   4.480   5.389  10.211
40613SOL     OW23677   6.688   8.900   2.079
40613SOL    HW123678   6.660   8.818   2.120
40613SOL    HW223679   6.782   8.889   2.064
40614SOL     OW23680   9.695  10.479   8.551
40614SOL    HW123681   9.672  10.499   8.460
40614SOL    HW223682   9.717  10.563   8.589
40615SOL     OW23683   6.332   6.252   7.952
40615SOL    HW123684   6.404   6.197   7.982
40615SOL    HW223685   6.375   6.324   7.906
40616SOL     OW23686   8.014   0.588   1.778
40616SOL    HW123687   8.070   0.650   1.825
40616SOL    HW223688   8.075   0.528   1.734
40617SOL     OW23689  13.416   8.423   4.365
40617SOL    HW123690  13.329   8.461   4.377
40617SOL    HW223691  13.471   8.469   4.429
40618SOL     OW23692   7.458   3.930  14.851
40618SOL    HW123693   7.528   3.866  14.838
40618SOL    HW223694   7.391   3.907  14.786
40619SOL     OW23695   4.229   1.023  14.616
40619SOL    HW123696   4.309   1.074  14.625
40619SOL    HW223697   4.254   0.947  14.563
40620SOL     OW23698  12.902  10.933   0.995
40620SOL    HW123699  12.969  10.900   1.054
40620SOL    HW223700  12.912  11.028   0.998
40621SOL     OW23701   7.579  10.911  13.234
40621SOL    HW123702   7.485  10.895  13.231
40621SOL    HW223703   7.593  10.960  13.315
40622SOL     OW23704   4.429   2.248  12.140
40622SOL    HW123705   4.513   2.295  12.138
40622SOL    HW223706   4.413   2.232  12.233
40623SOL     OW23707  12.228  13.960   3.589
40623SOL    HW123708  12.158  13.895   3.587
40623SOL    HW223709  12.191  14.034   3.638
40624SOL     OW23710  12.490  12.167  14.031
40624SOL    HW123711  12.481  12.072  14.043
40624SOL    HW223712  12.417  12.191  13.973
40625SOL     OW23713   8.116  12.746   9.929
40625SOL    HW123714   8.048  12.813   9.923
40625SOL    HW223715   8.160  12.749   9.844
40626SOL     OW23716   6.017   3.919  14.801
40626SOL    HW123717   5.956   3.991  14.814
40626SOL    HW223718   6.074   3.948  14.730
40627SOL     OW23719  12.575   2.995  13.312
40627SOL    HW123720  12.624   3.076  13.321
40627SOL    HW223721  12.493   3.020  13.270
40628SOL     OW23722   8.512   8.389   4.844
40628SOL    HW123723   8.565   8.421   4.771
40628SOL    HW223724   8.429   8.365   4.804
40629SOL     OW23725   0.087   0.057  11.707
40629SOL    HW123726   0.116  14.852  11.740
40629SOL    HW223727   0.155   0.083  11.644
40630SOL     OW23728   7.970   9.500   0.111
40630SOL    HW123729   7.948   9.584   0.069
40630SOL    HW223730   7.994   9.443   0.038
40631SOL     OW23731   4.013  12.563   3.868
40631SOL    HW123732   4.081  12.497   3.853
40631SOL    HW223733   3.994  12.557   3.962
40632SOL     OW23734   7.642   5.446  10.741
40632SOL    HW123735   7.715   5.500  10.773
40632SOL    HW223736   7.631   5.379  10.808
40633SOL     OW23737  13.636  13.375   0.571
40633SOL    HW123738  13.608  13.465   0.586
40633SOL    HW223739  13.646  13.338   0.659
40634SOL     OW23740  11.642   8.459   3.537
40634SOL    HW123741  11.693   8.422   3.609
40634SOL    HW223742  11.596   8.383   3.499
40635SOL     OW23743   4.131   5.901   0.858
40635SOL    HW123744   4.057   5.902   0.920
40635SOL    HW223745   4.092   5.871   0.776
40636SOL     OW23746  12.408   5.655   4.522
40636SOL    HW123747  12.451   5.570   4.511
40636SOL    HW223748  12.469   5.705   4.576
40637SOL     OW23749   5.465   5.888   1.901
40637SOL    HW123750   5.404   5.956   1.873
40637SOL    HW223751   5.412   5.830   1.956
40638SOL     OW23752   7.168  10.708  11.778
40638SOL    HW123753   7.232  10.767  11.818
40638SOL    HW223754   7.220  10.644  11.731
40639SOL     OW23755   6.489   3.596  12.796
40639SOL    HW123756   6.567   3.622  12.747
40639SOL    HW223757   6.497   3.641  12.880
40640SOL     OW23758   4.868   1.910   3.341
40640SOL    HW123759   4.930   1.872   3.403
40640SOL    HW223760   4.865   2.003   3.365
40641SOL     OW23761   3.104   0.405   1.212
40641SOL    HW123762   3.081   0.477   1.153
40641SOL    HW223763   3.161   0.349   1.160
40642SOL     OW23764   0.572   6.949   3.164
40642SOL    HW123765   0.498   6.939   3.105
40642SOL    HW223766   0.538   7.000   3.237
40643SOL     OW23767  11.385   4.090   2.040
40643SOL    HW123768  11.434   4.020   2.082
40643SOL    HW223769  11.447   4.163   2.034
40644SOL     OW23770  11.313  14.227   9.614
40644SOL    HW123771  11.221  14.226   9.639
40644SOL    HW223772  11.325  14.146   9.565
40645SOL     OW23773   5.714   6.330  12.992
40645SOL    HW123774   5.702   6.335  13.087
40645SOL    HW223775   5.730   6.421  12.965
40646SOL     OW23776   7.186  12.907   0.307
40646SOL    HW123777   7.124  12.885   0.238
40646SOL    HW223778   7.198  13.002   0.299
40647SOL     OW23779  13.245  11.053   6.471
40647SOL    HW123780  13.334  11.027   6.494
40647SOL    HW223781  13.240  11.044   6.376
40648SOL     OW23782   3.905   6.785   0.213
40648SOL    HW123783   3.897   6.750   0.302
40648SOL    HW223784   3.821   6.827   0.196
40649SOL     OW23785  13.453   2.551   1.184
40649SOL    HW123786  13.389   2.484   1.163
40649SOL    HW223787  13.409   2.634   1.166
40650SOL     OW23788   0.627   0.698   5.586
40650SOL    HW123789   0.673   0.615   5.576
40650SOL    HW223790   0.610   0.705   5.680
40651SOL     OW23791   2.834   8.196   8.375
40651SOL    HW123792   2.922   8.212   8.410
40651SOL    HW223793   2.849   8.133   8.304
40652SOL     OW23794  10.611  10.911   5.285
40652SOL    HW123795  10.670  10.884   5.356
40652SOL    HW223796  10.551  10.973   5.326
40653SOL     OW23797   7.224  14.861   7.724
40653SOL    HW123798   7.229  14.765   7.721
40653SOL    HW223799   7.147   0.003   7.671
40654SOL     OW23800   5.000  12.360  11.829
40654SOL    HW123801   4.933  12.313  11.879
40654SOL    HW223802   4.983  12.336  11.738
40655SOL     OW23803   5.389   2.665   7.255
40655SOL    HW123804   5.409   2.721   7.330
40655SOL    HW223805   5.305   2.698   7.223
40656SOL     OW23806   5.195   8.609  12.599
40656SOL    HW123807   5.224   8.629  12.688
40656SOL    HW223808   5.275   8.584  12.552
40657SOL     OW23809  14.466   4.328   0.917
40657SOL    HW123810  14.463   4.299   0.826
40657SOL    HW223811  14.408   4.404   0.919
40658SOL     OW23812  12.097   9.845   4.928
40658SOL    HW123813  12.028   9.782   4.909
40658SOL    HW223814  12.166   9.794   4.969
40659SOL     OW23815  14.809   2.350   0.638
40659SOL    HW123816  14.805   2.319   0.729
40659SOL    HW223817  14.807   2.445   0.645
40660SOL     OW23818   9.206   3.633   9.950
40660SOL    HW123819   9.254   3.555   9.977
40660SOL    HW223820   9.233   3.647   9.859
40661SOL     OW23821   8.893   6.032   1.290
40661SOL    HW123822   8.804   6.058   1.267
40661SOL    HW223823   8.948   6.102   1.255
40662SOL     OW23824   4.964  14.430  14.306
40662SOL    HW123825   4.959  14.437  14.211
40662SOL    HW223826   5.004  14.512  14.334
40663SOL     OW23827   8.167   3.944  14.224
40663SOL    HW123828   8.080   3.928  14.187
40663SOL    HW223829   8.167   3.896  14.306
40664SOL     OW23830   1.376   9.983  13.969
40664SOL    HW123831   1.362  10.065  13.923
40664SOL    HW223832   1.378   9.916  13.901
40665SOL     OW23833   2.563   1.940   1.345
40665SOL    HW123834   2.542   1.877   1.276
40665SOL    HW223835   2.635   1.899   1.393
40666SOL     OW23836  11.230   8.889   8.698
40666SOL    HW123837  11.304   8.940   8.666
40666SOL    HW223838  11.175   8.952   8.744
40667SOL     OW23839   1.312   1.221  12.999
40667SOL    HW123840   1.221   1.201  13.019
40667SOL    HW223841   1.361   1.149  13.039
40668SOL     OW23842  13.038   5.300   2.712
40668SOL    HW123843  13.092   5.342   2.779
40668SOL    HW223844  13.100   5.268   2.647
40669SOL     OW23845  11.509  13.520  10.854
40669SOL    HW123846  11.600  13.540  10.875
40669SOL    HW223847  11.501  13.426  10.870
40670SOL     OW23848  14.750  10.037  13.242
40670SOL    HW123849  14.841  10.067  13.251
40670SOL    HW223850  14.739  10.021  13.148
40671SOL     OW23851   2.851  10.921   3.379
40671SOL    HW123852   2.780  10.858   3.363
40671SOL    HW223853   2.827  10.963   3.461
40672SOL     OW23854   9.346  10.715   3.137
40672SOL    HW123855   9.367  10.796   3.184
40672SOL    HW223856   9.269  10.738   3.084
40673SOL     OW23857   9.856   9.062   5.469
40673SOL    HW123858   9.832   9.138   5.522
40673SOL    HW223859   9.915   9.011   5.525
40674SOL     OW23860  13.283  11.824  10.050
40674SOL    HW123861  13.343  11.833   9.975
40674SOL    HW223862  13.228  11.750  10.027
40675SOL     OW23863  12.805  13.444   4.866
40675SOL    HW123864  12.773  13.488   4.945
40675SOL    HW223865  12.785  13.352   4.881
40676SOL     OW23866   6.320   0.907   6.138
40676SOL    HW123867   6.236   0.950   6.128
40676SOL    HW223868   6.356   0.904   6.049
40677SOL     OW23869   0.325  14.131  12.172
40677SOL    HW123870   0.234  14.103  12.180
40677SOL    HW223871   0.339  14.188  12.248
40678SOL     OW23872  13.438   5.316  12.176
40678SOL    HW123873  13.347   5.343  12.188
40678SOL    HW223874  13.485   5.357  12.249
40679SOL     OW23875   6.523  10.827  12.382
40679SOL    HW123876   6.570  10.801  12.302
40679SOL    HW223877   6.593  10.847  12.445
40680SOL     OW23878   3.404   0.342  14.093
40680SOL    HW123879   3.326   0.311  14.047
40680SOL    HW223880   3.407   0.436  14.074
40681SOL     OW23881   0.072  14.717   2.807
40681SOL    HW123882   0.029  14.788   2.856
40681SOL    HW223883   0.057  14.639   2.861
40682SOL     OW23884  13.563   2.335   4.185
40682SOL    HW123885  13.574   2.429   4.170
40682SOL    HW223886  13.485   2.329   4.240
40683SOL     OW23887   5.253   8.929  10.854
40683SOL    HW123888   5.219   9.017  10.842
40683SOL    HW223889   5.183   8.871  10.825
40684SOL     OW23890   0.877   4.981  11.569
40684SOL    HW123891   0.800   5.034  11.546
40684SOL    HW223892   0.934   4.988  11.492
40685SOL     OW23893   8.793  13.282  14.584
40685SOL    HW123894   8.879  13.324  14.588
40685SOL    HW223895   8.775  13.256  14.675
40686SOL     OW23896   0.626   2.295  11.674
40686SOL    HW123897   0.719   2.316  11.672
40686SOL    HW223898   0.596   2.325  11.760
40687SOL     OW23899  14.598  14.007  13.821
40687SOL    HW123900  14.600  13.912  13.811
40687SOL    HW223901  14.679  14.029  13.867
40688SOL     OW23902   3.051   8.678   3.344
40688SOL    HW123903   3.139   8.641   3.336
40688SOL    HW223904   3.035   8.679   3.439
40689SOL     OW23905  14.154   9.595  12.361
40689SOL    HW123906  14.145   9.687  12.337
40689SOL    HW223907  14.248   9.576  12.351
40690SOL     OW23908  11.432   2.117   5.833
40690SOL    HW123909  11.338   2.113   5.855
40690SOL    HW223910  11.452   2.210   5.829
40691SOL     OW23911   4.914  11.500   9.429
40691SOL    HW123912   4.906  11.584   9.474
40691SOL    HW223913   4.841  11.499   9.367
40692SOL     OW23914   9.446   8.705   8.022
40692SOL    HW123915   9.472   8.792   8.052
40692SOL    HW223916   9.501   8.645   8.072
40693SOL     OW23917   3.383   2.635   7.884
40693SOL    HW123918   3.446   2.612   7.815
40693SOL    HW223919   3.399   2.728   7.901
40694SOL     OW23920   9.971   5.300   9.492
40694SOL    HW123921   9.901   5.316   9.429
40694SOL    HW223922   9.944   5.220   9.538
40695SOL     OW23923   9.876   5.472  10.758
40695SOL    HW123924   9.882   5.430  10.672
40695SOL    HW223925   9.934   5.420  10.814
40696SOL     OW23926   1.964  13.838  11.328
40696SOL    HW123927   1.949  13.818  11.420
40696SOL    HW223928   1.931  13.761  11.280
40697SOL     OW23929   9.271   1.625   1.383
40697SOL    HW123930   9.311   1.543   1.356
40697SOL    HW223931   9.264   1.677   1.303
40698SOL     OW23932  11.414  12.821   8.199
40698SOL    HW123933  11.340  12.778   8.156
40698SOL    HW223934  11.491  12.777   8.162
40699SOL     OW23935  14.212  10.698  10.061
40699SOL    HW123936  14.196  10.710   9.968
40699SOL    HW223937  14.296  10.740  10.077
40700SOL     OW23938   4.954  10.627  12.688
40700SOL    HW123939   4.968  10.570  12.612
40700SOL    HW223940   5.040  10.665  12.705
40701SOL     OW23941  12.451   1.333   6.643
40701SOL    HW123942  12.398   1.402   6.602
40701SOL    HW223943  12.393   1.295   6.709
40702SOL     OW23944   3.269   0.821  12.979
40702SOL    HW123945   3.357   0.795  13.005
40702SOL    HW223946   3.216   0.811  13.058
40703SOL     OW23947   1.270  12.546   0.300
40703SOL    HW123948   1.176  12.553   0.316
40703SOL    HW223949   1.278  12.527   0.207
40704SOL     OW23950   4.340   9.192   5.606
40704SOL    HW123951   4.250   9.225   5.613
40704SOL    HW223952   4.392   9.254   5.657
40705SOL     OW23953  11.985  12.420   1.774
40705SOL    HW123954  11.987  12.328   1.749
40705SOL    HW223955  11.942  12.420   1.860
40706SOL     OW23956  11.678   7.688  14.660
40706SOL    HW123957  11.772   7.702  14.650
40706SOL    HW223958  11.644   7.773  14.686
40707SOL     OW23959   4.031  13.461   9.951
40707SOL    HW123960   4.085  13.539   9.965
40707SOL    HW223961   4.094  13.389   9.955
40708SOL     OW23962   5.964   9.297   4.401
40708SOL    HW123963   6.038   9.296   4.462
40708SOL    HW223964   5.899   9.353   4.443
40709SOL     OW23965   6.629  11.346   5.743
40709SOL    HW123966   6.569  11.420   5.734
40709SOL    HW223967   6.686  11.370   5.816
40710SOL     OW23968   1.073  12.265   4.757
40710SOL    HW123969   1.152  12.303   4.795
40710SOL    HW223970   1.002  12.294   4.815
40711SOL     OW23971   3.435  12.030   9.402
40711SOL    HW123972   3.347  12.069   9.398
40711SOL    HW223973   3.466  12.049   9.490
40712SOL     OW23974  14.236  11.651  12.944
40712SOL    HW123975  14.181  11.580  12.911
40712SOL    HW223976  14.311  11.608  12.985
40713SOL     OW23977   4.892   5.895   1.908
40713SOL    HW123978   4.891   5.990   1.919
40713SOL    HW223979   4.800   5.872   1.891
40714SOL     OW23980  14.197   2.395   4.415
40714SOL    HW123981  14.160   2.483   4.417
40714SOL    HW223982  14.121   2.337   4.422
40715SOL     OW23983   5.343   9.066   2.291
40715SOL    HW123984   5.277   9.136   2.295
40715SOL    HW223985   5.329   9.025   2.205
40716SOL     OW23986  13.719  13.021   1.945
40716SOL    HW123987  13.648  13.071   1.906
40716SOL    HW223988  13.741  13.069   2.025
40717SOL     OW23989  10.250   0.832  14.124
40717SOL    HW123990  10.164   0.808  14.092
40717SOL    HW223991  10.255   0.927  14.112
40718SOL     OW23992   8.006   9.853   8.390
40718SOL    HW123993   7.999   9.947   8.371
40718SOL    HW223994   7.973   9.844   8.479
40719SOL     OW23995   4.258  13.286   7.368
40719SOL    HW123996   4.324  13.233   7.324
40719SOL    HW223997   4.218  13.339   7.299
40720SOL     OW23998   2.441   7.388  12.130
40720SOL    HW123999   2.368   7.400  12.070
40720SOL    HW224000   2.417   7.440  12.207
40721SOL     OW24001   8.927   7.222   7.710
40721SOL    HW124002   8.955   7.190   7.796
40721SOL    HW224003   8.833   7.204   7.707
40722SOL     OW24004   4.599   0.759   8.380
40722SOL    HW124005   4.678   0.806   8.355
40722SOL    HW224006   4.527   0.814   8.348
40723SOL     OW24007   1.531  12.130   6.119
40723SOL    HW124008   1.437  12.131   6.104
40723SOL    HW224009   1.546  12.198   6.185
40724SOL     OW24010   2.712   4.819  11.791
40724SOL    HW124011   2.717   4.726  11.768
40724SOL    HW224012   2.671   4.820  11.878
40725SOL     OW24013  14.109   4.238  11.074
40725SOL    HW124014  14.156   4.166  11.032
40725SOL    HW224015  14.162   4.315  11.056
40726SOL     OW24016  14.316  10.410   3.378
40726SOL    HW124017  14.297  10.352   3.452
40726SOL    HW224018  14.262  10.377   3.307
40727SOL     OW24019   9.756   8.868  10.218
40727SOL    HW124020   9.695   8.863  10.291
40727SOL    HW224021   9.829   8.811  10.243
40728SOL     OW24022   5.074  14.849  12.485
40728SOL    HW124023   5.021  14.793  12.428
40728SOL    HW224024   5.121   0.027  12.425
40729SOL     OW24025   1.266  10.231  10.871
40729SOL    HW124026   1.360  10.215  10.863
40729SOL    HW224027   1.239  10.264  10.785
40730SOL     OW24028   3.029   8.569   7.996
40730SOL    HW124029   2.937   8.546   7.993
40730SOL    HW224030   3.070   8.518   7.926
40731SOL     OW24031   7.962   1.155   0.237
40731SOL    HW124032   7.949   1.069   0.198
40731SOL    HW224033   7.994   1.210   0.165
40732SOL     OW24034   8.314  10.948  12.718
40732SOL    HW124035   8.356  10.972  12.801
40732SOL    HW224036   8.222  10.935  12.741
40733SOL     OW24037  12.720  14.821  14.573
40733SOL    HW124038  12.662  14.870  14.632
40733SOL    HW224039  12.714  14.866  14.490
40734SOL     OW24040   9.852   1.209   9.201
40734SOL    HW124041   9.886   1.223   9.289
40734SOL    HW224042   9.888   1.125   9.174
40735SOL     OW24043  14.735  13.490   8.569
40735SOL    HW124044  14.689  13.574   8.570
40735SOL    HW224045  14.810  13.505   8.511
40736SOL     OW24046  14.009   5.891   7.075
40736SOL    HW124047  14.047   5.887   7.163
40736SOL    HW224048  13.923   5.850   7.085
40737SOL     OW24049   6.085   2.293   5.872
40737SOL    HW124050   6.101   2.383   5.845
40737SOL    HW224051   6.097   2.241   5.792
40738SOL     OW24052   4.400  13.160   3.778
40738SOL    HW124053   4.312  13.197   3.773
40738SOL    HW224054   4.452  13.214   3.719
40739SOL     OW24055   4.343   0.554  14.000
40739SOL    HW124056   4.342   0.641  13.960
40739SOL    HW224057   4.260   0.548  14.047
40740SOL     OW24058  14.016  12.649   1.329
40740SOL    HW124059  14.086  12.708   1.303
40740SOL    HW224060  13.940  12.706   1.344
40741SOL     OW24061   8.493  14.737   1.441
40741SOL    HW124062   8.521  14.823   1.408
40741SOL    HW224063   8.569  14.680   1.429
40742SOL     OW24064   0.161   2.561   3.070
40742SOL    HW124065   0.188   2.484   3.019
40742SOL    HW224066   0.194   2.636   3.020
40743SOL     OW24067   8.673   7.860   2.483
40743SOL    HW124068   8.684   7.863   2.578
40743SOL    HW224069   8.652   7.768   2.464
40744SOL     OW24070   5.521  10.598   4.639
40744SOL    HW124071   5.602  10.548   4.647
40744SOL    HW224072   5.484  10.599   4.727
40745SOL     OW24073   6.421   9.403   8.243
40745SOL    HW124074   6.458   9.426   8.328
40745SOL    HW224075   6.356   9.471   8.226
40746SOL     OW24076   2.441  11.578  14.694
40746SOL    HW124077   2.422  11.621  14.777
40746SOL    HW224078   2.486  11.497  14.719
40747SOL     OW24079  14.390   8.316   1.770
40747SOL    HW124080  14.364   8.226   1.749
40747SOL    HW224081  14.426   8.350   1.688
40748SOL     OW24082   0.063  12.284   4.370
40748SOL    HW124083   0.048  12.317   4.281
40748SOL    HW224084   0.152  12.312   4.392
40749SOL     OW24085   7.998   1.628   4.484
40749SOL    HW124086   8.036   1.681   4.413
40749SOL    HW224087   7.926   1.682   4.518
40750SOL     OW24088  10.512  12.960  10.353
40750SOL    HW124089  10.508  13.019  10.428
40750SOL    HW224090  10.596  12.979  10.312
40751SOL     OW24091   1.897  10.457   3.229
40751SOL    HW124092   1.976  10.484   3.184
40751SOL    HW224093   1.926  10.387   3.288
40752SOL     OW24094   4.098  10.425   8.086
40752SOL    HW124095   4.175  10.404   8.034
40752SOL    HW224096   4.133  10.472   8.162
40753SOL     OW24097  10.628   6.672   4.993
40753SOL    HW124098  10.580   6.664   4.911
40753SOL    HW224099  10.718   6.651   4.970
40754SOL     OW24100   8.424   6.923   1.055
40754SOL    HW124101   8.414   6.999   1.112
40754SOL    HW224102   8.344   6.923   1.002
40755SOL     OW24103   6.002   4.084   3.375
40755SOL    HW124104   5.989   4.143   3.302
40755SOL    HW224105   5.929   4.023   3.370
40756SOL     OW24106   6.228  14.101   8.922
40756SOL    HW124107   6.305  14.122   8.974
40756SOL    HW224108   6.245  14.013   8.888
40757SOL     OW24109   2.036   2.392   3.781
40757SOL    HW124110   1.963   2.403   3.842
40757SOL    HW224111   2.020   2.308   3.739
40758SOL     OW24112   4.676   3.085  13.753
40758SOL    HW124113   4.686   3.121  13.665
40758SOL    HW224114   4.584   3.062  13.759
40759SOL     OW24115   6.411  13.865   3.242
40759SOL    HW124116   6.455  13.918   3.309
40759SOL    HW224117   6.318  13.879   3.259
40760SOL     OW24118   1.082   0.789  10.260
40760SOL    HW124119   1.052   0.700  10.244
40760SOL    HW224120   1.165   0.796  10.213
40761SOL     OW24121   8.758  12.206  14.571
40761SOL    HW124122   8.692  12.148  14.609
40761SOL    HW224123   8.793  12.256  14.645
40762SOL     OW24124  12.108   3.745   3.213
40762SOL    HW124125  12.099   3.669   3.155
40762SOL    HW224126  12.075   3.715   3.298
40763SOL     OW24127  14.039   2.441  14.568
40763SOL    HW124128  13.968   2.493  14.531
40763SOL    HW224129  14.001   2.400  14.646
40764SOL     OW24130   9.306   5.121  11.188
40764SOL    HW124131   9.333   5.165  11.107
40764SOL    HW224132   9.387   5.110  11.238
40765SOL     OW24133   8.574  14.550  14.243
40765SOL    HW124134   8.565  14.595  14.159
40765SOL    HW224135   8.669  14.542  14.256
40766SOL     OW24136   7.289   1.314   2.115
40766SOL    HW124137   7.235   1.357   2.049
40766SOL    HW224138   7.328   1.239   2.069
40767SOL     OW24139   6.520  10.179   4.966
40767SOL    HW124140   6.591  10.125   5.001
40767SOL    HW224141   6.548  10.269   4.986
40768SOL     OW24142  13.367   6.415   9.972
40768SOL    HW124143  13.366   6.353   9.899
40768SOL    HW224144  13.275   6.424   9.997
40769SOL     OW24145   0.223   2.554   6.087
40769SOL    HW124146   0.253   2.567   5.997
40769SOL    HW224147   0.217   2.642   6.123
40770SOL     OW24148   0.519   6.760   5.657
40770SOL    HW124149   0.555   6.789   5.573
40770SOL    HW224150   0.507   6.842   5.707
40771SOL     OW24151  12.640  12.620   5.270
40771SOL    HW124152  12.734  12.614   5.257
40771SOL    HW224153  12.614  12.533   5.300
40772SOL     OW24154   3.988   6.836   1.242
40772SOL    HW124155   3.998   6.931   1.246
40772SOL    HW224156   3.963   6.819   1.152
40773SOL     OW24157   8.307   2.537   7.063
40773SOL    HW124158   8.389   2.528   7.112
40773SOL    HW224159   8.288   2.449   7.030
40774SOL     OW24160  14.536  10.998  11.917
40774SOL    HW124161  14.629  11.007  11.896
40774SOL    HW224162  14.526  11.043  12.001
40775SOL     OW24163   5.622   9.875  12.509
40775SOL    HW124164   5.569   9.810  12.463
40775SOL    HW224165   5.695   9.892  12.449
40776SOL     OW24166   5.406   3.917   2.486
40776SOL    HW124167   5.377   3.969   2.561
40776SOL    HW224168   5.487   3.875   2.516
40777SOL     OW24169  11.883  11.165   6.707
40777SOL    HW124170  11.958  11.177   6.648
40777SOL    HW224171  11.850  11.078   6.686
40778SOL     OW24172  11.985   3.678   6.920
40778SOL    HW124173  11.922   3.722   6.977
40778SOL    HW224174  12.061   3.736   6.919
40779SOL     OW24175   9.986  12.322  12.105
40779SOL    HW124176   9.952  12.344  12.192
40779SOL    HW224177   9.972  12.228  12.098
40780SOL     OW24178   0.067   8.948  13.443
40780SOL    HW124179   0.028   8.911  13.522
40780SOL    HW224180   0.147   8.897  13.430
40781SOL     OW24181  13.285   5.209  11.943
40781SOL    HW124182  13.366   5.256  11.922
40781SOL    HW224183  13.301   5.171  12.030
40782SOL     OW24184  10.259  10.016   5.800
40782SOL    HW124185  10.180   9.974   5.834
40782SOL    HW224186  10.270   9.980   5.713
40783SOL     OW24187   2.678   9.884  12.508
40783SOL    HW124188   2.667   9.849  12.419
40783SOL    HW224189   2.740   9.956  12.498
40784SOL     OW24190  10.459   7.408   4.838
40784SOL    HW124191  10.388   7.471   4.829
40784SOL    HW224192  10.462   7.362   4.754
40785SOL     OW24193   3.330   2.525   7.200
40785SOL    HW124194   3.324   2.433   7.225
40785SOL    HW224195   3.241   2.559   7.211
40786SOL     OW24196   5.476   4.753   3.212
40786SOL    HW124197   5.421   4.678   3.186
40786SOL    HW224198   5.531   4.719   3.282
40787SOL     OW24199  11.700   7.790   0.325
40787SOL    HW124200  11.729   7.698   0.323
40787SOL    HW224201  11.729   7.822   0.411
40788SOL     OW24202  14.596   5.662  10.585
40788SOL    HW124203  14.639   5.736  10.542
40788SOL    HW224204  14.511   5.654  10.542
40789SOL     OW24205   2.674  11.127  10.745
40789SOL    HW124206   2.770  11.120  10.738
40789SOL    HW224207   2.647  11.153  10.657
40790SOL     OW24208   4.020  11.046   4.650
40790SOL    HW124209   4.082  11.023   4.718
40790SOL    HW224210   4.016  11.142   4.651
40791SOL     OW24211  14.291   0.313   9.308
40791SOL    HW124212  14.358   0.292   9.373
40791SOL    HW224213  14.212   0.271   9.341
40792SOL     OW24214   4.335   9.166   3.198
40792SOL    HW124215   4.347   9.249   3.244
40792SOL    HW224216   4.346   9.099   3.266
40793SOL     OW24217  11.582   2.108  12.488
40793SOL    HW124218  11.612   2.079  12.574
40793SOL    HW224219  11.542   2.194  12.505
40794SOL     OW24220   7.471  14.099   9.697
40794SOL    HW124221   7.469  14.193   9.684
40794SOL    HW224222   7.559  14.072   9.672
40795SOL     OW24223   5.833   2.141  13.896
40795SOL    HW124224   5.803   2.181  13.814
40795SOL    HW224225   5.908   2.087  13.870
40796SOL     OW24226  13.925  11.964   6.369
40796SOL    HW124227  13.870  11.937   6.296
40796SOL    HW224228  13.868  12.018   6.425
40797SOL     OW24229   5.118  11.897   1.568
40797SOL    HW124230   5.205  11.903   1.528
40797SOL    HW224231   5.133  11.861   1.655
40798SOL     OW24232   2.196  10.952   6.992
40798SOL    HW124233   2.259  10.928   7.060
40798SOL    HW224234   2.125  10.996   7.039
40799SOL     OW24235   1.305  14.496   7.143
40799SOL    HW124236   1.384  14.549   7.150
40799SOL    HW224237   1.274  14.511   7.054
40800SOL     OW24238   6.971   3.350   1.830
40800SOL    HW124239   6.919   3.392   1.762
40800SOL    HW224240   6.951   3.401   1.909
40801SOL     OW24241   4.678  11.684   6.999
40801SOL    HW124242   4.674  11.655   6.907
40801SOL    HW224243   4.663  11.778   6.995
40802SOL     OW24244   6.537   2.379   9.959
40802SOL    HW124245   6.524   2.420   9.874
40802SOL    HW224246   6.535   2.451  10.021
40803SOL     OW24247   5.740   9.584  11.722
40803SOL    HW124248   5.832   9.559  11.717
40803SOL    HW224249   5.733   9.636  11.802
40804SOL     OW24250   3.847  10.939  11.797
40804SOL    HW124251   3.799  10.922  11.878
40804SOL    HW224252   3.914  10.870  11.794
40805SOL     OW24253   9.294   3.805  12.999
40805SOL    HW124254   9.211   3.758  13.005
40805SOL    HW224255   9.354   3.756  13.055
40806SOL     OW24256   2.307   7.205  12.465
40806SOL    HW124257   2.337   7.287  12.426
40806SOL    HW224258   2.358   7.137  12.421
40807SOL     OW24259  14.500  10.088  14.395
40807SOL    HW124260  14.552  10.016  14.359
40807SOL    HW224261  14.527  10.094  14.486
40808SOL     OW24262  14.096  11.495  13.244
40808SOL    HW124263  14.046  11.457  13.317
40808SOL    HW224264  14.172  11.535  13.286
40809SOL     OW24265   6.752  13.592   1.808
40809SOL    HW124266   6.760  13.543   1.726
40809SOL    HW224267   6.672  13.559   1.849
40810SOL     OW24268   0.384   0.486   2.884
40810SOL    HW124269   0.364   0.545   2.956
40810SOL    HW224270   0.303   0.436   2.870
40811SOL     OW24271   0.523   5.831   6.986
40811SOL    HW124272   0.506   5.741   7.014
40811SOL    HW224273   0.452   5.852   6.925
40812SOL     OW24274   1.691   1.862  14.179
40812SOL    HW124275   1.719   1.776  14.211
40812SOL    HW224276   1.728   1.869  14.092
40813SOL     OW24277   8.489  12.825   4.031
40813SOL    HW124278   8.437  12.902   4.056
40813SOL    HW224279   8.433  12.751   4.051
40814SOL     OW24280   5.473   3.791  13.297
40814SOL    HW124281   5.457   3.705  13.335
40814SOL    HW224282   5.562   3.785  13.261
40815SOL     OW24283   9.206   1.411   0.297
40815SOL    HW124284   9.266   1.342   0.269
40815SOL    HW224285   9.176   1.383   0.384
40816SOL     OW24286   9.411  11.253   4.354
40816SOL    HW124287   9.435  11.240   4.446
40816SOL    HW224288   9.477  11.203   4.306
40817SOL     OW24289   6.863  12.826  11.488
40817SOL    HW124290   6.788  12.800  11.542
40817SOL    HW224291   6.823  12.866  11.410
40818SOL     OW24292   7.891   2.936   9.888
40818SOL    HW124293   7.868   3.024   9.920
40818SOL    HW224294   7.808   2.898   9.860
40819SOL     OW24295   5.310   9.190  11.353
40819SOL    HW124296   5.336   9.230  11.436
40819SOL    HW224297   5.257   9.257  11.310
40820SOL     OW24298  11.589  10.493   8.301
40820SOL    HW124299  11.514  10.539   8.339
40820SOL    HW224300  11.626  10.444   8.374
40821SOL     OW24301  13.166  11.756  13.506
40821SOL    HW124302  13.201  11.842  13.484
40821SOL    HW224303  13.146  11.761  13.600
40822SOL     OW24304   3.121   2.485   5.078
40822SOL    HW124305   3.206   2.465   5.116
40822SOL    HW224306   3.134   2.477   4.984
40823SOL     OW24307   3.056   2.541  10.913
40823SOL    HW124308   2.972   2.516  10.874
40823SOL    HW224309   3.089   2.460  10.952
40824SOL     OW24310  10.039   4.295   0.095
40824SOL    HW124311  10.029   4.325   0.185
40824SOL    HW224312  10.134   4.285   0.084
40825SOL     OW24313  13.168  11.381   8.278
40825SOL    HW124314  13.183  11.442   8.206
40825SOL    HW224315  13.238  11.401   8.341
40826SOL     OW24316   1.421   2.670   4.545
40826SOL    HW124317   1.420   2.739   4.478
40826SOL    HW224318   1.457   2.594   4.500
40827SOL     OW24319   5.438  10.042   6.949
40827SOL    HW124320   5.507  10.094   6.908
40827SOL    HW224321   5.435   9.961   6.899
40828SOL     OW24322   5.908  11.481  12.331
40828SOL    HW124323   5.856  11.409  12.368
40828SOL    HW224324   5.849  11.523  12.269
40829SOL     OW24325   2.723   6.168   1.258
40829SOL    HW124326   2.637   6.207   1.270
40829SOL    HW224327   2.716   6.117   1.177
40830SOL     OW24328  12.524   7.558   6.420
40830SOL    HW124329  12.486   7.612   6.350
40830SOL    HW224330  12.453   7.499   6.445
40831SOL     OW24331  11.382  12.278   5.645
40831SOL    HW124332  11.417  12.320   5.566
40831SOL    HW224333  11.395  12.343   5.714
40832SOL     OW24334   0.994  12.348   7.702
40832SOL    HW124335   1.030  12.321   7.617
40832SOL    HW224336   0.983  12.266   7.750
40833SOL     OW24337  14.363   5.885   3.670
40833SOL    HW124338  14.338   5.973   3.641
40833SOL    HW224339  14.285   5.832   3.656
40834SOL     OW24340  11.743   3.363  10.288
40834SOL    HW124341  11.725   3.383  10.380
40834SOL    HW224342  11.724   3.446  10.242
40835SOL     OW24343   9.374   6.696   2.930
40835SOL    HW124344   9.460   6.660   2.954
40835SOL    HW224345   9.367   6.777   2.981
40836SOL     OW24346   0.183  12.362  12.937
40836SOL    HW124347   0.107  12.419  12.931
40836SOL    HW224348   0.152  12.277  12.905
40837SOL     OW24349  13.799  10.845   7.692
40837SOL    HW124350  13.797  10.874   7.783
40837SOL    HW224351  13.800  10.925   7.641
40838SOL     OW24352  11.202   5.522   7.402
40838SOL    HW124353  11.190   5.572   7.321
40838SOL    HW224354  11.234   5.437   7.374
40839SOL     OW24355   0.165   9.043  13.174
40839SOL    HW124356   0.148   8.979  13.244
40839SOL    HW224357   0.225   8.997  13.115
40840SOL     OW24358   9.946   3.591   8.168
40840SOL    HW124359   9.930   3.679   8.134
40840SOL    HW224360   9.961   3.604   8.262
40841SOL     OW24361   8.910   3.408   8.835
40841SOL    HW124362   8.884   3.500   8.825
40841SOL    HW224363   8.884   3.367   8.752
40842SOL     OW24364   2.811  12.751   3.900
40842SOL    HW124365   2.773  12.817   3.958
40842SOL    HW224366   2.905  12.754   3.920
40843SOL     OW24367  11.926  12.827  11.294
40843SOL    HW124368  11.960  12.862  11.212
40843SOL    HW224369  11.945  12.733  11.290
40844SOL     OW24370  13.662   6.345   2.409
40844SOL    HW124371  13.754   6.327   2.427
40844SOL    HW224372  13.654   6.440   2.415
40845SOL     OW24373  10.788   1.618   3.108
40845SOL    HW124374  10.731   1.676   3.158
40845SOL    HW224375  10.869   1.667   3.097
40846SOL     OW24376   3.182  10.874   8.447
40846SOL    HW124377   3.090  10.881   8.470
40846SOL    HW224378   3.228  10.918   8.518
40847SOL     OW24379  10.467   6.563   9.808
40847SOL    HW124380  10.459   6.657   9.820
40847SOL    HW224381  10.456   6.550   9.714
40848SOL     OW24382  10.903   6.113   0.484
40848SOL    HW124383  10.819   6.069   0.469
40848SOL    HW224384  10.879   6.196   0.526
40849SOL     OW24385  10.285  12.749   6.828
40849SOL    HW124386  10.202  12.702   6.831
40849SOL    HW224387  10.346  12.693   6.876
40850SOL     OW24388   7.108   0.094   2.212
40850SOL    HW124389   7.017   0.065   2.215
40850SOL    HW224390   7.115   0.160   2.281
40851SOL     OW24391   5.299   0.844   2.247
40851SOL    HW124392   5.358   0.817   2.176
40851SOL    HW224393   5.260   0.926   2.216
40852SOL     OW24394   3.516   1.734   9.988
40852SOL    HW124395   3.586   1.758   9.928
40852SOL    HW224396   3.556   1.738  10.075
40853SOL     OW24397   9.806  14.834  13.041
40853SOL    HW124398   9.792   0.021  13.109
40853SOL    HW224399   9.885  14.862  12.995
40854SOL     OW24400   4.724   4.336  14.284
40854SOL    HW124401   4.776   4.255  14.275
40854SOL    HW224402   4.790   4.405  14.287
40855SOL     OW24403   2.126   1.285   5.804
40855SOL    HW124404   2.217   1.281   5.772
40855SOL    HW224405   2.120   1.370   5.847
40856SOL     OW24406   6.492   7.649   5.488
40856SOL    HW124407   6.500   7.580   5.422
40856SOL    HW224408   6.581   7.681   5.500
40857SOL     OW24409   1.184   6.118   8.513
40857SOL    HW124410   1.277   6.099   8.518
40857SOL    HW224411   1.159   6.143   8.602
40858SOL     OW24412  13.245  12.268  12.685
40858SOL    HW124413  13.270  12.356  12.714
40858SOL    HW224414  13.151  12.275  12.668
40859SOL     OW24415  11.368   6.166   0.140
40859SOL    HW124416  11.379   6.095   0.203
40859SOL    HW224417  11.351   6.122   0.057
40860SOL     OW24418   4.542   9.283  14.067
40860SOL    HW124419   4.567   9.374  14.048
40860SOL    HW224420   4.483   9.259  13.996
40861SOL     OW24421   2.119   0.472  14.358
40861SOL    HW124422   2.160   0.416  14.292
40861SOL    HW224423   2.191   0.527  14.390
40862SOL     OW24424  14.356   3.623   8.867
40862SOL    HW124425  14.400   3.541   8.846
40862SOL    HW224426  14.391   3.648   8.953
40863SOL     OW24427   3.760  10.168   3.619
40863SOL    HW124428   3.734  10.260   3.614
40863SOL    HW224429   3.678  10.121   3.639
40864SOL     OW24430  11.528   6.268   7.089
40864SOL    HW124431  11.441   6.234   7.066
40864SOL    HW224432  11.557   6.314   7.010
40865SOL     OW24433  11.497  14.266   9.163
40865SOL    HW124434  11.563  14.333   9.144
40865SOL    HW224435  11.414  14.314   9.164
40866SOL     OW24436  10.853   1.171  13.262
40866SOL    HW124437  10.767   1.212  13.275
40866SOL    HW224438  10.886   1.156  13.350
40867SOL     OW24439   4.501   6.191   7.623
40867SOL    HW124440   4.491   6.254   7.695
40867SOL    HW224441   4.415   6.186   7.583
40868SOL     OW24442   2.976  12.305   8.644
40868SOL    HW124443   3.008  12.233   8.590
40868SOL    HW224444   3.050  12.328   8.700
40869SOL     OW24445   3.344   7.494   4.960
40869SOL    HW124446   3.367   7.504   4.867
40869SOL    HW224447   3.333   7.400   4.971
40870SOL     OW24448   1.115   2.943   3.166
40870SOL    HW124449   1.177   2.919   3.234
40870SOL    HW224450   1.141   2.892   3.089
40871SOL     OW24451   7.593   3.751   4.338
40871SOL    HW124452   7.595   3.768   4.243
40871SOL    HW224453   7.549   3.828   4.375
40872SOL     OW24454   4.075  11.011  11.465
40872SOL    HW124455   3.988  11.033  11.497
40872SOL    HW224456   4.089  10.920  11.493
40873SOL     OW24457  11.337   6.851  10.721
40873SOL    HW124458  11.416   6.835  10.773
40873SOL    HW224459  11.265   6.833  10.780
40874SOL     OW24460   1.113   7.108   6.866
40874SOL    HW124461   1.193   7.063   6.838
40874SOL    HW224462   1.134   7.201   6.858
40875SOL     OW24463  12.730   2.905   6.220
40875SOL    HW124464  12.813   2.862   6.243
40875SOL    HW224465  12.703   2.948   6.301
40876SOL     OW24466  13.595   1.197   0.171
40876SOL    HW124467  13.658   1.223   0.104
40876SOL    HW224468  13.614   1.254   0.246
40877SOL     OW24469  10.073   5.193   2.865
40877SOL    HW124470   9.995   5.149   2.897
40877SOL    HW224471  10.072   5.178   2.770
40878SOL     OW24472   6.282   8.030  11.364
40878SOL    HW124473   6.373   8.052  11.385
40878SOL    HW224474   6.263   8.079  11.284
40879SOL     OW24475   0.760   9.485  12.968
40879SOL    HW124476   0.763   9.580  12.974
40879SOL    HW224477   0.834   9.456  13.021
40880SOL     OW24478   8.151   5.798   4.667
40880SOL    HW124479   8.228   5.781   4.721
40880SOL    HW224480   8.181   5.860   4.601
40881SOL     OW24481   1.527  14.145  11.759
40881SOL    HW124482   1.520  14.232  11.797
40881SOL    HW224483   1.618  14.140  11.728
40882SOL     OW24484  13.205   6.628   6.862
40882SOL    HW124485  13.169   6.552   6.815
40882SOL    HW224486  13.299   6.609   6.869
40883SOL     OW24487  10.273   2.400  11.270
40883SOL    HW124488  10.203   2.450  11.313
40883SOL    HW224489  10.284   2.443  11.185
40884SOL     OW24490   5.586   9.846   6.774
40884SOL    HW124491   5.623   9.812   6.692
40884SOL    HW224492   5.556   9.768   6.821
40885SOL     OW24493  13.691   3.708  13.860
40885SOL    HW124494  13.694   3.648  13.934
40885SOL    HW224495  13.641   3.661  13.793
40886SOL     OW24496   5.545  13.670  11.178
40886SOL    HW124497   5.524  13.761  11.156
40886SOL    HW224498   5.602  13.676  11.255
40887SOL     OW24499   0.446   9.730   1.829
40887SOL    HW124500   0.383   9.795   1.860
40887SOL    HW224501   0.395   9.674   1.770
40888SOL     OW24502  14.144   6.990  11.939
40888SOL    HW124503  14.064   6.982  11.991
40888SOL    HW224504  14.168   7.082  11.945
40889SOL     OW24505   7.004   4.942  10.432
40889SOL    HW124506   7.049   5.012  10.478
40889SOL    HW224507   6.969   4.985  10.353
40890SOL     OW24508  14.805   3.206   1.063
40890SOL    HW124509  14.850   3.141   1.010
40890SOL    HW224510  14.855   3.209   1.145
40891SOL     OW24511   0.616   8.813  12.621
40891SOL    HW124512   0.707   8.818  12.591
40891SOL    HW224513   0.605   8.890  12.677
40892SOL     OW24514   9.383   7.253  13.938
40892SOL    HW124515   9.340   7.182  13.986
40892SOL    HW224516   9.415   7.211  13.858
40893SOL     OW24517  11.484   2.844   6.839
40893SOL    HW124518  11.468   2.765   6.787
40893SOL    HW224519  11.559   2.822   6.894
40894SOL     OW24520  12.542   6.819   0.945
40894SOL    HW124521  12.479   6.748   0.950
40894SOL    HW224522  12.511   6.874   0.872
40895SOL     OW24523   7.908  13.427  10.658
40895SOL    HW124524   7.961  13.410  10.736
40895SOL    HW224525   7.935  13.514  10.628
40896SOL     OW24526   3.911   8.685  14.296
40896SOL    HW124527   3.925   8.694  14.390
40896SOL    HW224528   3.996   8.660  14.260
40897SOL     OW24529   1.821   6.978   4.518
40897SOL    HW124530   1.733   6.969   4.553
40897SOL    HW224531   1.839   6.894   4.474
40898SOL     OW24532   8.033   8.078   9.744
40898SOL    HW124533   8.007   8.030   9.822
40898SOL    HW224534   8.121   8.046   9.724
40899SOL     OW24535   9.931  14.407   3.839
40899SOL    HW124536   9.992  14.464   3.886
40899SOL    HW224537   9.971  14.320   3.845
40900SOL     OW24538  11.635   7.712   5.861
40900SOL    HW124539  11.698   7.720   5.932
40900SOL    HW224540  11.575   7.785   5.875
40901SOL     OW24541   7.220   4.926   9.768
40901SOL    HW124542   7.232   4.872   9.690
40901SOL    HW224543   7.254   4.872   9.839
40902SOL     OW24544   8.788   3.475   7.901
40902SOL    HW124545   8.830   3.423   7.970
40902SOL    HW224546   8.794   3.565   7.933
40903SOL     OW24547  11.216   8.840  12.026
40903SOL    HW124548  11.198   8.755  12.065
40903SOL    HW224549  11.298   8.870  12.067
40904SOL     OW24550   7.620   7.708   0.965
40904SOL    HW124551   7.663   7.786   1.000
40904SOL    HW224552   7.527   7.724   0.977
40905SOL     OW24553  12.294   6.659   9.332
40905SOL    HW124554  12.214   6.608   9.335
40905SOL    HW224555  12.324   6.662   9.423
40906SOL     OW24556  13.545  12.210  13.490
40906SOL    HW124557  13.549  12.122  13.454
40906SOL    HW224558  13.512  12.264  13.418
40907SOL     OW24559   5.961   1.585   5.158
40907SOL    HW124560   5.971   1.650   5.227
40907SOL    HW224561   5.916   1.511   5.200
40908SOL     OW24562  13.166   3.823   5.204
40908SOL    HW124563  13.142   3.809   5.113
40908SOL    HW224564  13.085   3.808   5.253
40909SOL     OW24565   1.990  13.935  13.468
40909SOL    HW124566   1.977  13.845  13.500
40909SOL    HW224567   1.902  13.966  13.448
40910SOL     OW24568   3.753   5.011   0.366
40910SOL    HW124569   3.693   4.953   0.414
40910SOL    HW224570   3.793   4.955   0.300
40911SOL     OW24571  13.259   2.903   0.837
40911SOL    HW124572  13.341   2.892   0.791
40911SOL    HW224573  13.259   2.995   0.866
40912SOL     OW24574  11.434   9.308  11.052
40912SOL    HW124575  11.505   9.249  11.077
40912SOL    HW224576  11.363   9.286  11.112
40913SOL     OW24577   3.483   3.789   6.945
40913SOL    HW124578   3.531   3.818   6.867
40913SOL    HW224579   3.550   3.751   7.001
40914SOL     OW24580   7.450   9.572   9.565
40914SOL    HW124581   7.473   9.657   9.527
40914SOL    HW224582   7.498   9.508   9.513
40915SOL     OW24583   4.047   7.831  11.907
40915SOL    HW124584   4.101   7.883  11.966
40915SOL    HW224585   4.105   7.762  11.876
40916SOL     OW24586  13.781   6.058  13.568
40916SOL    HW124587  13.849   6.019  13.513
40916SOL    HW224588  13.757   6.139  13.523
40917SOL     OW24589  10.079  11.626   9.114
40917SOL    HW124590  10.083  11.596   9.204
40917SOL    HW224591   9.992  11.665   9.105
40918SOL     OW24592   0.350  11.415  10.211
40918SOL    HW124593   0.397  11.396  10.130
40918SOL    HW224594   0.343  11.330  10.255
40919SOL     OW24595   5.185   9.954   7.178
40919SOL    HW124596   5.211  10.010   7.251
40919SOL    HW224597   5.238   9.875   7.188
40920SOL     OW24598   1.423   2.221  12.994
40920SOL    HW124599   1.458   2.138  12.961
40920SOL    HW224600   1.350   2.241  12.934
40921SOL     OW24601  14.353  12.967  11.397
40921SOL    HW124602  14.260  12.971  11.378
40921SOL    HW224603  14.381  12.881  11.364
40922SOL     OW24604   2.705   7.333  13.473
40922SOL    HW124605   2.768   7.389  13.518
40922SOL    HW224606   2.695   7.373  13.386
40923SOL     OW24607   0.617  14.241   0.773
40923SOL    HW124608   0.676  14.213   0.703
40923SOL    HW224609   0.558  14.304   0.731
40924SOL     OW24610   2.762   7.632   0.951
40924SOL    HW124611   2.787   7.588   0.870
40924SOL    HW224612   2.817   7.710   0.955
40925SOL     OW24613   8.963   6.009   9.493
40925SOL    HW124614   9.037   5.973   9.542
40925SOL    HW224615   8.993   6.094   9.462
40926SOL     OW24616   1.890   6.226  10.594
40926SOL    HW124617   1.976   6.194  10.564
40926SOL    HW224618   1.885   6.315  10.562
40927SOL     OW24619   9.809   3.053  13.555
40927SOL    HW124620   9.806   2.959  13.540
40927SOL    HW224621   9.890   3.082  13.513
40928SOL     OW24622   2.454   2.832  10.521
40928SOL    HW124623   2.460   2.927  10.536
40928SOL    HW224624   2.544   2.805  10.507
40929SOL     OW24625   4.317   8.027   9.319
40929SOL    HW124626   4.234   8.074   9.309
40929SOL    HW224627   4.353   8.023   9.231
40930SOL     OW24628  13.794  11.671  12.986
40930SOL    HW124629  13.706  11.643  12.960
40930SOL    HW224630  13.844  11.589  12.992
40931SOL     OW24631  13.925   1.349   9.474
40931SOL    HW124632  13.998   1.300   9.510
40931SOL    HW224633  13.958   1.439   9.466
40932SOL     OW24634   4.147   9.884  12.974
40932SOL    HW124635   4.083   9.813  12.964
40932SOL    HW224636   4.171   9.907  12.884
40933SOL     OW24637   4.482   1.129  13.567
40933SOL    HW124638   4.574   1.121  13.594
40933SOL    HW224639   4.444   1.043  13.586
40934SOL     OW24640   8.770  10.502   7.227
40934SOL    HW124641   8.723  10.569   7.177
40934SOL    HW224642   8.742  10.516   7.318
40935SOL     OW24643   6.485  10.884   8.709
40935SOL    HW124644   6.458  10.907   8.798
40935SOL    HW224645   6.506  10.968   8.669
40936SOL     OW24646   7.901  10.035   1.040
40936SOL    HW124647   7.962  10.072   0.977
40936SOL    HW224648   7.957   9.987   1.102
40937SOL     OW24649   5.533   8.826   2.651
40937SOL    HW124650   5.558   8.760   2.715
40937SOL    HW224651   5.601   8.821   2.583
40938SOL     OW24652  13.051   0.780   8.733
40938SOL    HW124653  13.136   0.778   8.688
40938SOL    HW224654  12.987   0.765   8.663
40939SOL     OW24655   7.155   3.044   8.110
40939SOL    HW124656   7.234   2.993   8.091
40939SOL    HW224657   7.113   2.998   8.183
40940SOL     OW24658   5.596  14.714   6.587
40940SOL    HW124659   5.574  14.667   6.506
40940SOL    HW224660   5.565  14.657   6.657
40941SOL     OW24661   7.174   8.016   2.662
40941SOL    HW124662   7.171   8.106   2.630
40941SOL    HW224663   7.243   7.974   2.612
40942SOL     OW24664   2.822  13.430   0.132
40942SOL    HW124665   2.882  13.496   0.167
40942SOL    HW224666   2.879  13.356   0.111
40943SOL     OW24667   6.824  10.362  13.954
40943SOL    HW124668   6.777  10.279  13.965
40943SOL    HW224669   6.812  10.385  13.862
40944SOL     OW24670   7.195   4.929   7.126
40944SOL    HW124671   7.252   4.929   7.049
40944SOL    HW224672   7.224   4.853   7.176
40945SOL     OW24673   0.692  11.927   3.477
40945SOL    HW124674   0.626  11.995   3.494
40945SOL    HW224675   0.773  11.964   3.510
40946SOL     OW24676   5.758   4.980  14.686
40946SOL    HW124677   5.737   4.887  14.696
40946SOL    HW224678   5.787   5.007  14.774
40947SOL     OW24679   4.241   6.546  12.971
40947SOL    HW124680   4.334   6.524  12.962
40947SOL    HW224681   4.205   6.473  13.021
40948SOL     OW24682  13.180  10.972   1.806
40948SOL    HW124683  13.125  11.009   1.737
40948SOL    HW224684  13.229  10.902   1.763
40949SOL     OW24685  10.723  11.854  11.194
40949SOL    HW124686  10.730  11.852  11.289
40949SOL    HW224687  10.648  11.798  11.174
40950SOL     OW24688   8.569   9.927   0.657
40950SOL    HW124689   8.491   9.874   0.675
40950SOL    HW224690   8.615   9.932   0.741
40951SOL     OW24691   7.683   1.073  11.746
40951SOL    HW124692   7.649   1.024  11.821
40951SOL    HW224693   7.732   1.145  11.785
40952SOL     OW24694  12.538  12.889   6.216
40952SOL    HW124695  12.544  12.976   6.176
40952SOL    HW224696  12.627  12.869   6.245
40953SOL     OW24697  11.142  14.610   2.956
40953SOL    HW124698  11.125  14.680   2.892
40953SOL    HW224699  11.070  14.618   3.019
40954SOL     OW24700   9.931   7.447   1.114
40954SOL    HW124701   9.920   7.395   1.194
40954SOL    HW224702   9.869   7.520   1.125
40955SOL     OW24703   7.033  13.932   2.664
40955SOL    HW124704   7.029  14.026   2.645
40955SOL    HW224705   7.126  13.913   2.675
40956SOL     OW24706  12.957  13.786   5.845
40956SOL    HW124707  13.035  13.767   5.792
40956SOL    HW224708  12.986  13.774   5.935
40957SOL     OW24709   4.150  12.256   1.287
40957SOL    HW124710   4.137  12.288   1.376
40957SOL    HW224711   4.066  12.217   1.262
40958SOL     OW24712   5.795  12.572  11.724
40958SOL    HW124713   5.849  12.518  11.781
40958SOL    HW224714   5.835  12.659  11.728
40959SOL     OW24715  14.131  13.970   1.216
40959SOL    HW124716  14.143  14.061   1.191
40959SOL    HW224717  14.134  13.921   1.134
40960SOL     OW24718   3.481  13.269   6.344
40960SOL    HW124719   3.455  13.177   6.333
40960SOL    HW224720   3.427  13.302   6.415
40961SOL     OW24721  10.665   1.429   9.817
40961SOL    HW124722  10.745   1.377   9.825
40961SOL    HW224723  10.595   1.364   9.808
40962SOL     OW24724  12.317   2.190   8.684
40962SOL    HW124725  12.276   2.181   8.597
40962SOL    HW224726  12.319   2.101   8.718
40963SOL     OW24727   8.885   2.399  11.546
40963SOL    HW124728   8.811   2.354  11.587
40963SOL    HW224729   8.961   2.373  11.600
40964SOL     OW24730  11.177   9.548   4.915
40964SOL    HW124731  11.212   9.464   4.946
40964SOL    HW224732  11.186   9.607   4.990
40965SOL     OW24733   4.963  12.972   6.889
40965SOL    HW124734   4.956  13.045   6.828
40965SOL    HW224735   4.980  12.895   6.835
40966SOL     OW24736   1.209   7.575  14.433
40966SOL    HW124737   1.211   7.482  14.411
40966SOL    HW224738   1.297   7.607  14.413
40967SOL     OW24739   5.341   4.302  12.862
40967SOL    HW124740   5.250   4.307  12.892
40967SOL    HW224741   5.376   4.390  12.876
40968SOL     OW24742  14.219   6.617  12.316
40968SOL    HW124743  14.276   6.585  12.385
40968SOL    HW224744  14.192   6.704  12.344
40969SOL     OW24745   8.503   8.420   0.786
40969SOL    HW124746   8.570   8.382   0.729
40969SOL    HW224747   8.420   8.398   0.744
40970SOL     OW24748  10.445   9.932   8.938
40970SOL    HW124749  10.359   9.966   8.911
40970SOL    HW224750  10.432   9.904   9.028
40971SOL     OW24751   3.856   7.886  12.113
40971SOL    HW124752   3.912   7.893  12.036
40971SOL    HW224753   3.823   7.975  12.127
40972SOL     OW24754   9.080   8.880  13.200
40972SOL    HW124755   9.148   8.884  13.267
40972SOL    HW224756   9.000   8.858  13.248
40973SOL     OW24757  10.812  12.839  10.378
40973SOL    HW124758  10.824  12.853  10.284
40973SOL    HW224759  10.830  12.746  10.391
40974SOL     OW24760   6.235  13.050   1.012
40974SOL    HW124761   6.305  13.020   0.955
40974SOL    HW224762   6.163  13.072   0.953
40975SOL     OW24763  12.342  10.512   7.607
40975SOL    HW124764  12.268  10.554   7.563
40975SOL    HW224765  12.415  10.571   7.593
40976SOL     OW24766   2.273   1.313   8.565
40976SOL    HW124767   2.275   1.301   8.660
40976SOL    HW224768   2.203   1.378   8.551
40977SOL     OW24769  12.864  12.219   5.153
40977SOL    HW124770  12.947  12.264   5.138
40977SOL    HW224771  12.801  12.268   5.101
40978SOL     OW24772   3.170   0.515   7.867
40978SOL    HW124773   3.181   0.553   7.780
40978SOL    HW224774   3.102   0.568   7.908
40979SOL     OW24775  10.243   8.328  12.908
40979SOL    HW124776  10.150   8.346  12.915
40979SOL    HW224777  10.254   8.291  12.820
40980SOL     OW24778   5.106   8.693   2.364
40980SOL    HW124779   5.106   8.697   2.268
40980SOL    HW224780   5.177   8.752   2.390
40981SOL     OW24781   8.275   0.682   0.175
40981SOL    HW124782   8.264   0.651   0.084
40981SOL    HW224783   8.368   0.672   0.193
40982SOL     OW24784   8.190   4.794   8.216
40982SOL    HW124785   8.188   4.890   8.219
40982SOL    HW224786   8.207   4.774   8.124
40983SOL     OW24787  10.584   5.262   9.744
40983SOL    HW124788  10.646   5.221   9.805
40983SOL    HW224789  10.515   5.196   9.733
40984SOL     OW24790  13.596   8.741   7.614
40984SOL    HW124791  13.597   8.825   7.660
40984SOL    HW224792  13.667   8.748   7.550
40985SOL     OW24793   3.790  12.953   8.130
40985SOL    HW124794   3.746  13.012   8.192
40985SOL    HW224795   3.719  12.906   8.087
40986SOL     OW24796   8.127   3.805   3.589
40986SOL    HW124797   8.049   3.858   3.605
40986SOL    HW224798   8.195   3.846   3.643
40987SOL     OW24799  14.315   8.225  13.714
40987SOL    HW124800  14.336   8.302  13.767
40987SOL    HW224801  14.245   8.181  13.762
40988SOL     OW24802  14.577  13.956  14.168
40988SOL    HW124803  14.540  13.881  14.215
40988SOL    HW224804  14.501  14.000  14.130
40989SOL     OW24805   3.992   6.597  12.950
40989SOL    HW124806   3.967   6.600  12.858
40989SOL    HW224807   4.088   6.594  12.949
40990SOL     OW24808  11.090   0.631  10.693
40990SOL    HW124809  11.137   0.674  10.765
40990SOL    HW224810  11.083   0.700  10.626
40991SOL     OW24811  12.303   3.574   7.191
40991SOL    HW124812  12.369   3.565   7.122
40991SOL    HW224813  12.276   3.665   7.187
40992SOL     OW24814  10.428  10.034   8.453
40992SOL    HW124815  10.427  10.046   8.358
40992SOL    HW224816  10.514   9.999   8.472
40993SOL     OW24817   1.648   4.339   5.553
40993SOL    HW124818   1.562   4.334   5.512
40993SOL    HW224819   1.674   4.248   5.567
40994SOL     OW24820   4.487  12.145   8.590
40994SOL    HW124821   4.426  12.075   8.564
40994SOL    HW224822   4.464  12.164   8.681
40995SOL     OW24823   9.891   9.376  10.181
40995SOL    HW124824   9.986   9.387  10.186
40995SOL    HW224825   9.872   9.302  10.238
40996SOL     OW24826   7.277   4.679   0.332
40996SOL    HW124827   7.356   4.627   0.335
40996SOL    HW224828   7.228   4.645   0.257
40997SOL     OW24829   9.960   3.161   6.272
40997SOL    HW124830  10.044   3.118   6.257
40997SOL    HW224831   9.942   3.147   6.365
40998SOL     OW24832  11.385  10.510  11.045
40998SOL    HW124833  11.342  10.511  10.959
40998SOL    HW224834  11.313  10.519  11.107
40999SOL     OW24835   2.084  11.321   6.176
40999SOL    HW124836   2.135  11.365   6.108
40999SOL    HW224837   1.994  11.322   6.143
41000SOL     OW24838  12.957  13.190   3.215
41000SOL    HW124839  13.011  13.118   3.249
41000SOL    HW224840  12.879  13.189   3.270
41001SOL     OW24841   0.712   7.600   2.709
41001SOL    HW124842   0.760   7.610   2.627
41001SOL    HW224843   0.669   7.515   2.702
41002SOL     OW24844  14.454  14.129   2.340
41002SOL    HW124845  14.437  14.101   2.250
41002SOL    HW224846  14.370  14.162   2.371
41003SOL     OW24847   3.955  14.030  12.814
41003SOL    HW124848   4.011  14.086  12.761
41003SOL    HW224849   3.947  14.076  12.898
41004SOL     OW24850  14.569  13.607  11.344
41004SOL    HW124851  14.522  13.551  11.282
41004SOL    HW224852  14.566  13.558  11.426
41005SOL     OW24853   4.826   0.058   4.767
41005SOL    HW124854   4.769  14.864   4.787
41005SOL    HW224855   4.915   0.023   4.776
41006SOL     OW24856  12.673   0.561   8.659
41006SOL    HW124857  12.751   0.608   8.631
41006SOL    HW224858  12.684   0.549   8.753
41007SOL     OW24859   4.869   9.250   1.695
41007SOL    HW124860   4.887   9.311   1.623
41007SOL    HW224861   4.860   9.306   1.772
41008SOL     OW24862   0.380  13.703   0.599
41008SOL    HW124863   0.341  13.791   0.597
41008SOL    HW224864   0.472  13.718   0.578
41009SOL     OW24865   9.248   1.005   5.303
41009SOL    HW124866   9.233   0.925   5.353
41009SOL    HW224867   9.272   1.071   5.369
41010SOL     OW24868   5.647   3.833   2.590
41010SOL    HW124869   5.738   3.862   2.595
41010SOL    HW224870   5.643   3.757   2.649
41011SOL     OW24871  10.080   1.798   6.384
41011SOL    HW124872  10.106   1.733   6.449
41011SOL    HW224873   9.992   1.824   6.409
41012SOL     OW24874   7.013   2.586  11.440
41012SOL    HW124875   7.049   2.603  11.353
41012SOL    HW224876   7.008   2.673  11.482
41013SOL     OW24877  11.404  13.606  14.421
41013SOL    HW124878  11.416  13.531  14.480
41013SOL    HW224879  11.491  13.646  14.417
41014SOL     OW24880   7.019  13.513   3.443
41014SOL    HW124881   7.042  13.454   3.515
41014SOL    HW224882   6.924  13.503   3.432
41015SOL     OW24883   2.741  10.896  12.225
41015SOL    HW124884   2.710  10.811  12.258
41015SOL    HW224885   2.704  10.960  12.286
41016SOL     OW24886  11.193   0.181   2.310
41016SOL    HW124887  11.258   0.252   2.305
41016SOL    HW224888  11.114   0.219   2.273
41017SOL     OW24889   2.046  11.830   3.457
41017SOL    HW124890   2.128  11.807   3.413
41017SOL    HW224891   1.999  11.747   3.465
41018SOL     OW24892  11.960   3.161   4.851
41018SOL    HW124893  11.978   3.248   4.816
41018SOL    HW224894  12.031   3.145   4.914
41019SOL     OW24895  11.780   7.477  11.405
41019SOL    HW124896  11.752   7.463  11.315
41019SOL    HW224897  11.837   7.554  11.401
41020SOL     OW24898   6.787  14.091   3.926
41020SOL    HW124899   6.812  14.131   4.009
41020SOL    HW224900   6.843  14.013   3.919
41021SOL     OW24901  13.332   3.662   9.875
41021SOL    HW124902  13.305   3.711   9.797
41021SOL    HW224903  13.327   3.726   9.946
41022SOL     OW24904   4.743   7.528   3.294
41022SOL    HW124905   4.817   7.572   3.337
41022SOL    HW224906   4.783   7.454   3.249
41023SOL     OW24907  14.265  10.160   9.135
41023SOL    HW124908  14.191  10.207   9.097
41023SOL    HW224909  14.301  10.221   9.199
41024SOL     OW24910   4.595   2.221   1.461
41024SOL    HW124911   4.601   2.258   1.549
41024SOL    HW224912   4.519   2.264   1.422
41025SOL     OW24913   2.686   6.039  12.790
41025SOL    HW124914   2.616   6.095  12.824
41025SOL    HW224915   2.676   5.957  12.840
41026SOL     OW24916   7.221   3.395  13.550
41026SOL    HW124917   7.231   3.471  13.492
41026SOL    HW224918   7.266   3.324  13.504
41027SOL     OW24919   4.307   3.666  10.257
41027SOL    HW124920   4.392   3.709  10.251
41027SOL    HW224921   4.288   3.664  10.351
41028SOL     OW24922   8.080   3.709   9.357
41028SOL    HW124923   8.150   3.770   9.333
41028SOL    HW224924   8.125   3.641   9.407
41029SOL     OW24925   7.607  14.370  14.553
41029SOL    HW124926   7.575  14.437  14.492
41029SOL    HW224927   7.602  14.411  14.639
41030SOL     OW24928   0.669   2.906   4.070
41030SOL    HW124929   0.647   2.817   4.098
41030SOL    HW224930   0.665   2.903   3.974
41031SOL     OW24931   7.437   3.235   8.021
41031SOL    HW124932   7.356   3.260   8.066
41031SOL    HW224933   7.426   3.141   8.005
41032SOL     OW24934  10.331   9.822  14.779
41032SOL    HW124935  10.270   9.770  14.830
41032SOL    HW224936  10.363   9.763  14.711
41033SOL     OW24937   3.377   8.901  11.643
41033SOL    HW124938   3.328   8.881  11.723
41033SOL    HW224939   3.358   8.828  11.584
41034SOL     OW24940   7.728   5.368  11.740
41034SOL    HW124941   7.822   5.356  11.730
41034SOL    HW224942   7.691   5.283  11.717
41035SOL     OW24943   0.513  12.687  11.708
41035SOL    HW124944   0.453  12.762  11.708
41035SOL    HW224945   0.575  12.706  11.779
41036SOL     OW24946  12.446  11.145   2.164
41036SOL    HW124947  12.471  11.089   2.237
41036SOL    HW224948  12.379  11.095   2.117
41037SOL     OW24949   0.851   3.669   6.903
41037SOL    HW124950   0.886   3.595   6.953
41037SOL    HW224951   0.856   3.743   6.964
41038SOL     OW24952  11.098  13.581  11.020
41038SOL    HW124953  11.173  13.632  10.988
41038SOL    HW224954  11.129  13.491  11.020
41039SOL     OW24955   1.983   9.173   3.620
41039SOL    HW124956   2.056   9.198   3.677
41039SOL    HW224957   2.012   9.196   3.532
41040SOL     OW24958  13.251  14.485   8.240
41040SOL    HW124959  13.309  14.539   8.295
41040SOL    HW224960  13.294  14.400   8.237
41041SOL     OW24961   9.170  14.120  11.169
41041SOL    HW124962   9.217  14.042  11.198
41041SOL    HW224963   9.077  14.097  11.179
41042SOL     OW24964   1.120   2.707  14.277
41042SOL    HW124965   1.196   2.733  14.225
41042SOL    HW224966   1.157   2.683  14.362
41043SOL     OW24967   5.517  13.659   5.564
41043SOL    HW124968   5.557  13.709   5.493
41043SOL    HW224969   5.431  13.700   5.576
41044SOL     OW24970   1.981   7.074   9.943
41044SOL    HW124971   1.886   7.069   9.935
41044SOL    HW224972   2.015   7.014   9.876
41045SOL     OW24973  12.691   1.907  13.216
41045SOL    HW124974  12.728   1.881  13.131
41045SOL    HW224975  12.666   1.824  13.257
41046SOL     OW24976   0.162   1.089  10.019
41046SOL    HW124977   0.094   1.047  10.070
41046SOL    HW224978   0.209   1.145  10.081
41047SOL     OW24979   2.825   5.826   8.118
41047SOL    HW124980   2.875   5.750   8.087
41047SOL    HW224981   2.834   5.823   8.214
41048SOL     OW24982   5.955   3.082   0.900
41048SOL    HW124983   5.873   3.085   0.949
41048SOL    HW224984   6.012   3.144   0.944
41049SOL     OW24985   5.731   1.433   7.722
41049SOL    HW124986   5.650   1.412   7.769
41049SOL    HW224987   5.738   1.364   7.655
41050SOL     OW24988   6.469   4.991  14.140
41050SOL    HW124989   6.539   4.974  14.203
41050SOL    HW224990   6.388   4.984  14.191
41051SOL     OW24991   9.079   7.115   5.667
41051SOL    HW124992   8.986   7.106   5.686
41051SOL    HW224993   9.112   7.025   5.667
41052SOL     OW24994   7.352   0.968   6.205
41052SOL    HW124995   7.264   0.989   6.237
41052SOL    HW224996   7.349   0.988   6.112
41053SOL     OW24997   8.272   0.633  14.469
41053SOL    HW124998   8.352   0.664  14.427
41053SOL    HW224999   8.202   0.672  14.416
41054SOL     OW25000   8.266   8.679   5.556
41054SOL    HW125001   8.265   8.605   5.616
41054SOL    HW225002   8.355   8.680   5.521
41055SOL     OW25003   1.501   2.595  11.622
41055SOL    HW125004   1.507   2.578  11.716
41055SOL    HW225005   1.414   2.563  11.598
41056SOL     OW25006   5.011  11.597   2.494
41056SOL    HW125007   5.001  11.516   2.443
41056SOL    HW225008   5.028  11.665   2.429
41057SOL     OW25009   1.248   7.830   5.868
41057SOL    HW125010   1.236   7.881   5.788
41057SOL    HW225011   1.342   7.812   5.872
41058SOL     OW25012  13.923  13.995   3.535
41058SOL    HW125013  13.902  13.910   3.497
41058SOL    HW225014  13.988  13.976   3.603
41059SOL     OW25015  13.723   0.181   4.704
41059SOL    HW125016  13.806   0.207   4.743
41059SOL    HW225017  13.657   0.218   4.763
41060SOL     OW25018   7.256   4.438  11.240
41060SOL    HW125019   7.335   4.440  11.186
41060SOL    HW225020   7.248   4.347  11.266
41061SOL     OW25021  10.345   3.005   5.825
41061SOL    HW125022  10.293   3.055   5.887
41061SOL    HW225023  10.386   2.937   5.877
41062SOL     OW25024   0.912   8.323   8.944
41062SOL    HW125025   0.858   8.371   9.008
41062SOL    HW225026   0.868   8.338   8.860
41063SOL     OW25027  11.298   2.812   2.336
41063SOL    HW125028  11.255   2.739   2.290
41063SOL    HW225029  11.386   2.779   2.355
41064SOL     OW25030   4.849  10.040   6.340
41064SOL    HW125031   4.885  10.097   6.273
41064SOL    HW225032   4.783   9.988   6.295
41065SOL     OW25033   1.791  13.448  11.864
41065SOL    HW125034   1.748  13.416  11.785
41065SOL    HW225035   1.783  13.375  11.926
41066SOL     OW25036   4.142   3.810  13.656
41066SOL    HW125037   4.080   3.870  13.615
41066SOL    HW225038   4.093   3.729  13.667
41067SOL     OW25039  13.266   8.232   1.817
41067SOL    HW125040  13.249   8.138   1.824
41067SOL    HW225041  13.234   8.255   1.730
41068SOL     OW25042   3.117  10.550   0.561
41068SOL    HW125043   3.096  10.572   0.470
41068SOL    HW225044   3.033  10.522   0.598
41069SOL     OW25045   4.509   6.448  14.440
41069SOL    HW125046   4.465   6.364  14.435
41069SOL    HW225047   4.479   6.485  14.523
41070SOL     OW25048   6.426  10.174   3.699
41070SOL    HW125049   6.341  10.169   3.656
41070SOL    HW225050   6.483  10.120   3.646
41071SOL     OW25051   2.761  13.362   1.540
41071SOL    HW125052   2.842  13.326   1.577
41071SOL    HW225053   2.735  13.297   1.475
41072SOL     OW25054   4.362   6.898   0.718
41072SOL    HW125055   4.399   6.964   0.777
41072SOL    HW225056   4.290   6.943   0.674
41073SOL     OW25057  12.669  10.568   7.885
41073SOL    HW125058  12.623  10.565   7.968
41073SOL    HW225059  12.676  10.661   7.864
41074SOL     OW25060  12.570  13.254   5.904
41074SOL    HW125061  12.638  13.303   5.858
41074SOL    HW225062  12.492  13.309   5.899
41075SOL     OW25063   7.824   1.621   7.768
41075SOL    HW125064   7.765   1.632   7.693
41075SOL    HW225065   7.789   1.545   7.814
41076SOL     OW25066   3.607   8.347   2.380
41076SOL    HW125067   3.523   8.391   2.368
41076SOL    HW225068   3.657   8.407   2.435
41077SOL     OW25069  11.754   0.205   8.002
41077SOL    HW125070  11.720   0.212   8.092
41077SOL    HW225071  11.687   0.248   7.948
41078SOL     OW25072  11.428   6.345  13.231
41078SOL    HW125073  11.441   6.435  13.199
41078SOL    HW225074  11.334   6.331  13.224
41079SOL     OW25075   6.974  12.484   5.530
41079SOL    HW125076   6.986  12.477   5.625
41079SOL    HW225077   6.913  12.413   5.509
41080SOL     OW25078  10.149   0.314   5.602
41080SOL    HW125079  10.057   0.320   5.629
41080SOL    HW225080  10.163   0.392   5.548
41081SOL     OW25081   1.320   2.121  11.769
41081SOL    HW125082   1.397   2.167  11.736
41081SOL    HW225083   1.252   2.188  11.774
41082SOL     OW25084   1.768  12.660  14.443
41082SOL    HW125085   1.707  12.635  14.374
41082SOL    HW225086   1.725  12.635  14.524
41083SOL     OW25087   1.848  12.255   9.481
41083SOL    HW125088   1.936  12.278   9.513
41083SOL    HW225089   1.801  12.227   9.560
41084SOL     OW25090   6.091   8.716   3.585
41084SOL    HW125091   6.000   8.713   3.613
41084SOL    HW225092   6.138   8.758   3.657
41085SOL     OW25093   0.578   6.815   7.394
41085SOL    HW125094   0.537   6.846   7.476
41085SOL    HW225095   0.572   6.720   7.399
41086SOL     OW25096   7.266  13.007   3.212
41086SOL    HW125097   7.357  12.978   3.221
41086SOL    HW225098   7.217  12.927   3.194
41087SOL     OW25099   4.374  13.337   1.129
41087SOL    HW125100   4.446  13.370   1.075
41087SOL    HW225101   4.322  13.283   1.070
41088SOL     OW25102  14.745  10.327  14.088
41088SOL    HW125103  14.793  10.288  14.162
41088SOL    HW225104  14.653  10.319  14.113
41089SOL     OW25105   9.286   7.956  10.814
41089SOL    HW125106   9.347   7.900  10.863
41089SOL    HW225107   9.202   7.910  10.819
41090SOL     OW25108   2.538  11.856   1.867
41090SOL    HW125109   2.531  11.813   1.782
41090SOL    HW225110   2.449  11.885   1.886
41091SOL     OW25111  11.309   3.063   7.739
41091SOL    HW125112  11.294   3.025   7.653
41091SOL    HW225113  11.326   3.156   7.721
41092SOL     OW25114   0.723  14.765  10.529
41092SOL    HW125115   0.811  14.754  10.491
41092SOL    HW225116   0.681  14.831  10.473
41093SOL     OW25117   2.110   8.023   8.051
41093SOL    HW125118   2.198   8.043   8.019
41093SOL    HW225119   2.115   8.036   8.145
41094SOL     OW25120  10.906   1.770   5.149
41094SOL    HW125121  10.949   1.709   5.210
41094SOL    HW225122  10.962   1.848   5.150
41095SOL     OW25123  13.325   1.959   2.461
41095SOL    HW125124  13.392   1.891   2.464
41095SOL    HW225125  13.272   1.937   2.385
41096SOL     OW25126   8.476   5.643  14.793
41096SOL    HW125127   8.430   5.579  14.740
41096SOL    HW225128   8.565   5.608  14.802
41097SOL     OW25129   4.021   3.882   1.653
41097SOL    HW125130   3.937   3.895   1.608
41097SOL    HW225131   3.997   3.861   1.743
41098SOL     OW25132  12.971  10.771   1.328
41098SOL    HW125133  12.876  10.762   1.336
41098SOL    HW225134  12.984  10.856   1.285
41099SOL     OW25135  11.592   1.414  10.535
41099SOL    HW125136  11.677   1.454  10.517
41099SOL    HW225137  11.530   1.467  10.486
41100SOL     OW25138  14.577   7.450   8.681
41100SOL    HW125139  14.573   7.529   8.734
41100SOL    HW225140  14.493   7.445   8.636
41101SOL     OW25141  11.996  12.030   5.430
41101SOL    HW125142  11.962  11.997   5.347
41101SOL    HW225143  11.923  12.021   5.491
41102SOL     OW25144   2.929  10.360   2.897
41102SOL    HW125145   2.845  10.333   2.861
41102SOL    HW225146   2.906  10.416   2.972
41103SOL     OW25147   4.958   1.260   6.282
41103SOL    HW125148   5.016   1.303   6.220
41103SOL    HW225149   5.016   1.208   6.337
41104SOL     OW25150   9.572   1.007  13.990
41104SOL    HW125151   9.590   1.088  13.943
41104SOL    HW225152   9.600   1.025  14.080
41105SOL     OW25153  14.514   6.406   3.064
41105SOL    HW125154  14.461   6.328   3.075
41105SOL    HW225155  14.603   6.372   3.052
41106SOL     OW25156   8.002   4.958  13.112
41106SOL    HW125157   7.940   4.902  13.159
41106SOL    HW225158   8.088   4.918  13.130
41107SOL     OW25159  11.451   8.106   5.104
41107SOL    HW125160  11.444   8.180   5.045
41107SOL    HW225161  11.540   8.110   5.138
41108SOL     OW25162  12.245  14.267   6.913
41108SOL    HW125163  12.238  14.280   6.818
41108SOL    HW225164  12.179  14.201   6.933
41109SOL     OW25165  14.744   9.392   5.786
41109SOL    HW125166  14.811   9.346   5.836
41109SOL    HW225167  14.780   9.398   5.697
41110SOL     OW25168   5.090  13.782   1.128
41110SOL    HW125169   5.174  13.785   1.083
41110SOL    HW225170   5.107  13.728   1.206
41111SOL     OW25171   5.889   8.578   6.557
41111SOL    HW125172   5.984   8.582   6.548
41111SOL    HW225173   5.873   8.500   6.609
41112SOL     OW25174   8.628   2.729   0.866
41112SOL    HW125175   8.589   2.660   0.812
41112SOL    HW225176   8.664   2.791   0.803
41113SOL     OW25177   6.435  12.793  12.332
41113SOL    HW125178   6.344  12.807  12.305
41113SOL    HW225179   6.484  12.864  12.290
41114SOL     OW25180   6.919  12.140  12.490
41114SOL    HW125181   6.946  12.225  12.524
41114SOL    HW225182   6.851  12.110  12.550
41115SOL     OW25183   4.913   3.826   7.963
41115SOL    HW125184   5.002   3.851   7.991
41115SOL    HW225185   4.919   3.820   7.868
41116SOL     OW25186   7.459  13.512  11.913
41116SOL    HW125187   7.430  13.507  12.004
41116SOL    HW225188   7.506  13.596  11.907
41117SOL     OW25189   9.515  12.505  11.379
41117SOL    HW125190   9.443  12.450  11.407
41117SOL    HW225191   9.510  12.504  11.283
41118SOL     OW25192   6.117   3.283  13.095
41118SOL    HW125193   6.026   3.292  13.069
41118SOL    HW225194   6.160   3.361  13.058
41119SOL     OW25195   7.494   4.509  12.847
41119SOL    HW125196   7.535   4.474  12.926
41119SOL    HW225197   7.468   4.598  12.870
41120SOL     OW25198   6.903   4.309   5.295
41120SOL    HW125199   6.831   4.368   5.321
41120SOL    HW225200   6.968   4.319   5.364
41121SOL     OW25201   1.479   8.704   6.013
41121SOL    HW125202   1.563   8.703   6.059
41121SOL    HW225203   1.444   8.792   6.027
41122SOL     OW25204  11.575   3.504   4.423
41122SOL    HW125205  11.580   3.414   4.456
41122SOL    HW225206  11.656   3.545   4.453
41123SOL     OW25207   1.543   1.091   9.446
41123SOL    HW125208   1.574   1.167   9.496
41123SOL    HW225209   1.580   1.103   9.359
41124SOL     OW25210   1.652   5.093   3.290
41124SOL    HW125211   1.714   5.108   3.218
41124SOL    HW225212   1.627   5.182   3.318
41125SOL     OW25213   5.393   7.696   2.575
41125SOL    HW125214   5.410   7.758   2.504
41125SOL    HW225215   5.466   7.709   2.636
41126SOL     OW25216   6.419  12.317   4.256
41126SOL    HW125217   6.405  12.410   4.236
41126SOL    HW225218   6.346  12.272   4.212
41127SOL     OW25219   3.050  14.468   3.015
41127SOL    HW125220   3.098  14.471   3.097
41127SOL    HW225221   2.993  14.545   3.017
41128SOL     OW25222   2.901   2.036  11.794
41128SOL    HW125223   2.895   2.060  11.701
41128SOL    HW225224   2.933   1.946  11.794
41129SOL     OW25225   7.344  12.986   8.911
41129SOL    HW125226   7.294  13.047   8.965
41129SOL    HW225227   7.293  12.976   8.831
41130SOL     OW25228   6.920   5.485   7.331
41130SOL    HW125229   6.840   5.486   7.384
41130SOL    HW225230   6.939   5.577   7.314
41131SOL     OW25231   5.405  11.884   9.065
41131SOL    HW125232   5.348  11.846   9.132
41131SOL    HW225233   5.357  11.871   8.983
41132SOL     OW25234  14.221   7.827   1.882
41132SOL    HW125235  14.194   7.853   1.794
41132SOL    HW225236  14.179   7.741   1.895
41133SOL     OW25237  13.407  11.112   5.094
41133SOL    HW125238  13.501  11.103   5.079
41133SOL    HW225239  13.384  11.036   5.148
41134SOL     OW25240  14.503   9.722   0.059
41134SOL    HW125241  14.494   9.733   0.154
41134SOL    HW225242  14.552   9.798   0.031
41135SOL     OW25243   5.858   2.881   8.890
41135SOL    HW125244   5.806   2.941   8.837
41135SOL    HW225245   5.801   2.807   8.906
41136SOL     OW25246   1.018   7.074   9.071
41136SOL    HW125247   1.053   7.083   8.982
41136SOL    HW225248   0.924   7.058   9.058
41137SOL     OW25249  11.435   2.792   7.721
41137SOL    HW125250  11.342   2.772   7.727
41137SOL    HW225251  11.439   2.883   7.691
41138SOL     OW25252  12.214  10.225   7.875
41138SOL    HW125253  12.210  10.214   7.970
41138SOL    HW225254  12.306  10.206   7.853
41139SOL     OW25255   0.609  14.743   8.925
41139SOL    HW125256   0.669  14.726   8.998
41139SOL    HW225257   0.608  14.838   8.917
41140SOL     OW25258  11.688   2.445   9.737
41140SOL    HW125259  11.637   2.522   9.762
41140SOL    HW225260  11.675   2.384   9.809
41141SOL     OW25261   3.989   2.899   4.840
41141SOL    HW125262   3.898   2.920   4.860
41141SOL    HW225263   3.984   2.824   4.781
41142SOL     OW25264   7.243  11.892  11.463
41142SOL    HW125265   7.238  11.932  11.376
41142SOL    HW225266   7.246  11.965  11.524
41143SOL     OW25267   8.102  10.879   5.129
41143SOL    HW125268   8.190  10.918   5.121
41143SOL    HW225269   8.093  10.860   5.222
41144SOL     OW25270   0.432   1.914   7.032
41144SOL    HW125271   0.412   1.821   7.020
41144SOL    HW225272   0.454   1.922   7.124
41145SOL     OW25273  12.169  11.891   6.474
41145SOL    HW125274  12.163  11.983   6.499
41145SOL    HW225275  12.165  11.843   6.557
41146SOL     OW25276   6.388   7.511  14.061
41146SOL    HW125277   6.431   7.437  14.106
41146SOL    HW225278   6.450   7.583  14.069
41147SOL     OW25279   2.560   0.907   4.474
41147SOL    HW125280   2.531   0.875   4.560
41147SOL    HW225281   2.625   0.843   4.446
41148SOL     OW25282   1.482  10.587  13.450
41148SOL    HW125283   1.561  10.563  13.402
41148SOL    HW225284   1.410  10.556  13.395
41149SOL     OW25285   5.372   0.805  11.636
41149SOL    HW125286   5.384   0.744  11.709
41149SOL    HW225287   5.429   0.771  11.567
41150SOL     OW25288   1.265  11.911   5.711
41150SOL    HW125289   1.204  11.847   5.748
41150SOL    HW225290   1.324  11.859   5.656
41151SOL     OW25291   6.780   4.803   4.171
41151SOL    HW125292   6.818   4.854   4.243
41151SOL    HW225293   6.694   4.775   4.204
41152SOL     OW25294   6.019  13.344   6.777
41152SOL    HW125295   6.000  13.259   6.816
41152SOL    HW225296   5.936  13.392   6.784
41153SOL     OW25297   0.558   1.610   4.842
41153SOL    HW125298   0.479   1.556   4.839
41153SOL    HW225299   0.568   1.633   4.934
41154SOL     OW25300   9.003   0.075   3.593
41154SOL    HW125301   8.982   0.073   3.499
41154SOL    HW225302   9.098   0.082   3.595
41155SOL     OW25303  11.368   3.875  10.104
41155SOL    HW125304  11.429   3.948  10.114
41155SOL    HW225305  11.394   3.833  10.022
41156SOL     OW25306   7.144   0.071  13.627
41156SOL    HW125307   7.222   0.042  13.580
41156SOL    HW225308   7.079   0.004  13.610
41157SOL     OW25309   3.696   0.630  10.877
41157SOL    HW125310   3.731   0.541  10.874
41157SOL    HW225311   3.601   0.619  10.883
41158SOL     OW25312   0.319   1.294  14.010
41158SOL    HW125313   0.373   1.306  13.931
41158SOL    HW225314   0.230   1.312  13.980
41159SOL     OW25315   5.769   2.384   4.047
41159SOL    HW125316   5.685   2.344   4.073
41159SOL    HW225317   5.829   2.310   4.040
41160SOL     OW25318   1.812   7.841   4.044
41160SOL    HW125319   1.865   7.782   4.098
41160SOL    HW225320   1.736   7.861   4.099
41161SOL     OW25321   2.441   6.580   3.915
41161SOL    HW125322   2.403   6.667   3.930
41161SOL    HW225323   2.433   6.536   4.000
41162SOL     OW25324   1.736   7.219   8.284
41162SOL    HW125325   1.802   7.156   8.312
41162SOL    HW225326   1.715   7.195   8.194
41163SOL     OW25327  13.552   9.263   1.184
41163SOL    HW125328  13.482   9.202   1.159
41163SOL    HW225329  13.610   9.266   1.108
41164SOL     OW25330   7.964   2.538   5.350
41164SOL    HW125331   7.908   2.521   5.274
41164SOL    HW225332   8.048   2.565   5.312
41165SOL     OW25333   3.166  10.485  13.241
41165SOL    HW125334   3.144  10.537  13.319
41165SOL    HW225335   3.246  10.526  13.208
41166SOL     OW25336   3.503   0.738   4.209
41166SOL    HW125337   3.428   0.754   4.151
41166SOL    HW225338   3.517   0.643   4.204
41167SOL     OW25339  11.767   7.388   0.756
41167SOL    HW125340  11.745   7.359   0.667
41167SOL    HW225341  11.697   7.449   0.779
41168SOL     OW25342   6.693   5.025   8.699
41168SOL    HW125343   6.725   5.056   8.784
41168SOL    HW225344   6.711   4.931   8.700
41169SOL     OW25345  14.718   3.996   8.614
41169SOL    HW125346  14.811   3.974   8.616
41169SOL    HW225347  14.674   3.911   8.609
41170SOL     OW25348  13.783   6.300   4.441
41170SOL    HW125349  13.694   6.263   4.441
41170SOL    HW225350  13.829   6.248   4.507
41171SOL     OW25351  12.281  11.697   3.395
41171SOL    HW125352  12.232  11.675   3.316
41171SOL    HW225353  12.281  11.792   3.397
41172SOL     OW25354   6.687  13.449   2.808
41172SOL    HW125355   6.707  13.543   2.799
41172SOL    HW225356   6.715  13.427   2.897
41173SOL     OW25357   9.471   6.687   3.558
41173SOL    HW125358   9.398   6.726   3.509
41173SOL    HW225359   9.429   6.624   3.617
41174SOL     OW25360  11.346   3.413   9.961
41174SOL    HW125361  11.395   3.448   9.886
41174SOL    HW225362  11.336   3.320   9.942
41175SOL     OW25363  12.334   7.051  11.683
41175SOL    HW125364  12.269   6.991  11.649
41175SOL    HW225365  12.313   7.135  11.643
41176SOL     OW25366   3.195   6.588  13.719
41176SOL    HW125367   3.275   6.640  13.707
41176SOL    HW225368   3.139   6.641  13.775
41177SOL     OW25369   4.637   2.326   9.001
41177SOL    HW125370   4.563   2.386   9.000
41177SOL    HW225371   4.598   2.240   9.018
41178SOL     OW25372   9.782  10.802   2.091
41178SOL    HW125373   9.777  10.869   2.159
41178SOL    HW225374   9.742  10.843   2.015
41179SOL     OW25375   8.344  13.045   7.576
41179SOL    HW125376   8.271  13.006   7.528
41179SOL    HW225377   8.375  13.115   7.520
41180SOL     OW25378   3.940   2.580   2.919
41180SOL    HW125379   3.915   2.584   3.012
41180SOL    HW225380   3.894   2.654   2.879
41181SOL     OW25381   6.550   6.251   4.349
41181SOL    HW125382   6.566   6.225   4.258
41181SOL    HW225383   6.636   6.281   4.380
41182SOL     OW25384   0.549   6.012  11.332
41182SOL    HW125385   0.644   6.005  11.337
41182SOL    HW225386   0.533   6.102  11.303
41183SOL     OW25387  11.982   3.687   3.508
41183SOL    HW125388  11.948   3.609   3.464
41183SOL    HW225389  11.949   3.681   3.598
41184SOL     OW25390   5.872   8.486   6.278
41184SOL    HW125391   5.840   8.406   6.237
41184SOL    HW225392   5.855   8.474   6.371
41185SOL     OW25393   3.735  13.160  14.581
41185SOL    HW125394   3.681  13.083  14.595
41185SOL    HW225395   3.821  13.137  14.617
41186SOL     OW25396   1.117  13.343   6.286
41186SOL    HW125397   1.172  13.399   6.342
41186SOL    HW225398   1.139  13.369   6.197
41187SOL     OW25399   8.340  12.278   0.012
41187SOL    HW125400   8.312  12.307  14.804
41187SOL    HW225401   8.266  12.227   0.045
41188SOL     OW25402   4.591   6.018   0.846
41188SOL    HW125403   4.550   5.979   0.769
41188SOL    HW225404   4.633   5.945   0.891
41189SOL     OW25405  14.717   5.394   3.314
41189SOL    HW125406  14.711   5.473   3.259
41189SOL    HW225407  14.722   5.427   3.403
41190SOL     OW25408   7.868  14.108   3.408
41190SOL    HW125409   7.818  14.116   3.327
41190SOL    HW225410   7.802  14.103   3.477
41191SOL     OW25411   2.477   3.941  10.712
41191SOL    HW125412   2.555   3.902  10.672
41191SOL    HW225413   2.410   3.873  10.703
41192SOL     OW25414   3.347   8.556   8.867
41192SOL    HW125415   3.266   8.606   8.881
41192SOL    HW225416   3.417   8.620   8.878
41193SOL     OW25417   8.344  12.680   2.598
41193SOL    HW125418   8.422  12.647   2.641
41193SOL    HW225419   8.367  12.769   2.571
41194SOL     OW25420   8.329   2.972   1.289
41194SOL    HW125421   8.253   2.916   1.305
41194SOL    HW225422   8.351   2.958   1.197
41195SOL     OW25423   7.594   9.614   7.769
41195SOL    HW125424   7.629   9.635   7.682
41195SOL    HW225425   7.671   9.604   7.824
41196SOL     OW25426   2.333   3.157   6.243
41196SOL    HW125427   2.267   3.226   6.248
41196SOL    HW225428   2.321   3.106   6.323
41197SOL     OW25429   0.379   9.057  11.891
41197SOL    HW125430   0.452   9.066  11.952
41197SOL    HW225431   0.368   9.145  11.853
41198SOL     OW25432  12.180  11.290   8.057
41198SOL    HW125433  12.175  11.226   8.128
41198SOL    HW225434  12.110  11.266   7.997
41199SOL     OW25435  13.205   3.553   0.355
41199SOL    HW125436  13.164   3.497   0.289
41199SOL    HW225437  13.245   3.491   0.417
41200SOL     OW25438  11.989   3.729   4.174
41200SOL    HW125439  12.009   3.691   4.259
41200SOL    HW225440  12.050   3.802   4.166
41201SOL     OW25441   4.151  11.844  12.337
41201SOL    HW125442   4.078  11.902  12.357
41201SOL    HW225443   4.130  11.762  12.381
41202SOL     OW25444  14.345   8.506  11.668
41202SOL    HW125445  14.330   8.412  11.662
41202SOL    HW225446  14.385   8.530  11.585
41203SOL     OW25447  12.568   6.304   2.698
41203SOL    HW125448  12.528   6.391   2.694
41203SOL    HW225449  12.505   6.247   2.654
41204SOL     OW25450  10.103   4.325  10.484
41204SOL    HW125451  10.098   4.232  10.505
41204SOL    HW225452  10.145   4.365  10.560
41205SOL     OW25453   6.998   4.619  11.653
41205SOL    HW125454   6.921   4.650  11.605
41205SOL    HW225455   6.969   4.539  11.697
41206SOL     OW25456   2.108   5.717   4.962
41206SOL    HW125457   2.062   5.790   5.003
41206SOL    HW225458   2.184   5.757   4.919
41207SOL     OW25459   3.152   5.643   5.482
41207SOL    HW125460   3.096   5.709   5.442
41207SOL    HW225461   3.115   5.560   5.453
41208SOL     OW25462  11.823  10.223   6.458
41208SOL    HW125463  11.760  10.274   6.508
41208SOL    HW225464  11.791  10.133   6.464
41209SOL     OW25465  12.846   0.086   2.678
41209SOL    HW125466  12.921   0.101   2.735
41209SOL    HW225467  12.816  14.878   2.700
41210SOL     OW25468  13.988   0.385  11.966
41210SOL    HW125469  13.995   0.481  11.968
41210SOL    HW225470  13.907   0.366  12.013
41211SOL     OW25471  12.058   4.908  10.996
41211SOL    HW125472  12.122   4.847  11.031
41211SOL    HW225473  12.073   4.989  11.045
41212SOL     OW25474   4.238   0.038   2.420
41212SOL    HW125475   4.244   0.133   2.414
41212SOL    HW225476   4.144   0.020   2.416
41213SOL     OW25477   4.530  13.906   4.495
41213SOL    HW125478   4.569  13.837   4.442
41213SOL    HW225479   4.442  13.918   4.459
41214SOL     OW25480   1.953   2.774  14.065
41214SOL    HW125481   1.989   2.837  14.128
41214SOL    HW225482   1.945   2.823  13.983
41215SOL     OW25483  12.299   2.011  10.826
41215SOL    HW125484  12.311   2.025  10.919
41215SOL    HW225485  12.205   2.014  10.813
41216SOL     OW25486   8.625   6.165  14.092
41216SOL    HW125487   8.716   6.141  14.110
41216SOL    HW225488   8.593   6.097  14.034
41217SOL     OW25489   7.983   3.986  10.419
41217SOL    HW125490   8.031   3.951  10.344
41217SOL    HW225491   7.938   3.911  10.457
41218SOL     OW25492   8.379   4.297   6.196
41218SOL    HW125493   8.322   4.257   6.262
41218SOL    HW225494   8.377   4.236   6.123
41219SOL     OW25495   5.918   8.945   4.268
41219SOL    HW125496   5.984   8.908   4.326
41219SOL    HW225497   5.932   8.900   4.185
41220SOL     OW25498   4.855   0.920   6.598
41220SOL    HW125499   4.801   0.850   6.635
41220SOL    HW225500   4.925   0.932   6.663
41221SOL     OW25501   4.705   9.226  10.684
41221SOL    HW125502   4.782   9.241  10.740
41221SOL    HW225503   4.685   9.133  10.696
41222SOL     OW25504  13.212   5.107  10.755
41222SOL    HW125505  13.173   5.030  10.796
41222SOL    HW225506  13.138   5.155  10.719
41223SOL     OW25507  11.740   3.983  11.028
41223SOL    HW125508  11.687   3.957  11.103
41223SOL    HW225509  11.795   4.054  11.060
41224SOL     OW25510   9.399   3.159   5.429
41224SOL    HW125511   9.397   3.210   5.510
41224SOL    HW225512   9.465   3.091   5.446
41225SOL     OW25513   8.530   4.857   9.188
41225SOL    HW125514   8.457   4.916   9.173
41225SOL    HW225515   8.496   4.792   9.249
41226SOL     OW25516   3.210   4.923   3.197
41226SOL    HW125517   3.231   4.890   3.109
41226SOL    HW225518   3.124   4.963   3.187
41227SOL     OW25519  13.362   9.482  14.757
41227SOL    HW125520  13.434   9.460  14.816
41227SOL    HW225521  13.283   9.466  14.809
41228SOL     OW25522   6.055   3.419   2.809
41228SOL    HW125523   6.151   3.420   2.814
41228SOL    HW225524   6.028   3.502   2.849
41229SOL     OW25525  14.002  13.899   8.611
41229SOL    HW125526  13.938  13.840   8.650
41229SOL    HW225527  13.963  13.986   8.618
41230SOL     OW25528   2.387  11.165   0.047
41230SOL    HW125529   2.461  11.125   0.093
41230SOL    HW225530   2.370  11.245   0.096
41231SOL     OW25531  11.305   1.760  14.165
41231SOL    HW125532  11.298   1.761  14.069
41231SOL    HW225533  11.246   1.690  14.193
41232SOL     OW25534   8.409   9.184   9.182
41232SOL    HW125535   8.442   9.095   9.172
41232SOL    HW225536   8.314   9.176   9.169
41233SOL     OW25537   0.545   4.749   6.229
41233SOL    HW125538   0.550   4.665   6.274
41233SOL    HW225539   0.555   4.727   6.136
41234SOL     OW25540   5.899   9.617  12.170
41234SOL    HW125541   5.946   9.573  12.099
41234SOL    HW225542   5.910   9.710  12.152
41235SOL     OW25543   5.764  12.407   8.381
41235SOL    HW125544   5.723  12.443   8.460
41235SOL    HW225545   5.848  12.453   8.374
41236SOL     OW25546   5.184   0.045   2.290
41236SOL    HW125547   5.188  14.860   2.219
41236SOL    HW225548   5.243   0.115   2.261
41237SOL     OW25549   1.921   1.477   4.764
41237SOL    HW125550   1.855   1.479   4.834
41237SOL    HW225551   1.964   1.392   4.774
41238SOL     OW25552   1.034   8.695  13.761
41238SOL    HW125553   1.102   8.749  13.802
41238SOL    HW225554   1.016   8.627  13.825
41239SOL     OW25555  10.137   4.592  11.284
41239SOL    HW125556  10.180   4.608  11.200
41239SOL    HW225557  10.204   4.614  11.349
41240SOL     OW25558   1.332  10.160   9.055
41240SOL    HW125559   1.370  10.206   9.129
41240SOL    HW225560   1.245  10.199   9.045
41241SOL     OW25561  13.992   0.956   1.705
41241SOL    HW125562  13.939   0.957   1.785
41241SOL    HW225563  13.927   0.954   1.634
41242SOL     OW25564   6.368   2.380   6.592
41242SOL    HW125565   6.420   2.432   6.531
41242SOL    HW225566   6.405   2.292   6.587
41243SOL     OW25567   9.738   9.228  14.215
41243SOL    HW125568   9.674   9.256  14.281
41243SOL    HW225569   9.709   9.270  14.134
41244SOL     OW25570  11.568   0.828  10.557
41244SOL    HW125571  11.533   0.760  10.615
41244SOL    HW225572  11.530   0.910  10.589
41245SOL     OW25573  10.540   3.731  14.231
41245SOL    HW125574  10.534   3.788  14.154
41245SOL    HW225575  10.554   3.643  14.195
41246SOL     OW25576   8.078   7.757   9.768
41246SOL    HW125577   8.132   7.820   9.721
41246SOL    HW225578   8.141   7.706   9.819
41247SOL     OW25579  10.410   0.209   0.254
41247SOL    HW125580  10.442   0.147   0.320
41247SOL    HW225581  10.323   0.234   0.286
41248SOL     OW25582   5.911   4.788   2.422
41248SOL    HW125583   5.947   4.710   2.381
41248SOL    HW225584   5.880   4.758   2.508
41249SOL     OW25585  12.927   8.069   8.178
41249SOL    HW125586  12.893   8.071   8.089
41249SOL    HW225587  12.875   8.136   8.224
41250SOL     OW25588   5.353   3.710   9.438
41250SOL    HW125589   5.310   3.743   9.359
41250SOL    HW225590   5.438   3.755   9.440
41251SOL     OW25591   5.280   9.733  12.436
41251SOL    HW125592   5.187   9.724  12.414
41251SOL    HW225593   5.314   9.796  12.372
41252SOL     OW25594  12.669   3.525   3.276
41252SOL    HW125595  12.594   3.555   3.327
41252SOL    HW225596  12.740   3.585   3.298
41253SOL     OW25597  11.338  12.677  12.582
41253SOL    HW125598  11.310  12.764  12.609
41253SOL    HW225599  11.258  12.625  12.583
41254SOL     OW25600   0.314   7.048   9.596
41254SOL    HW125601   0.227   7.072   9.628
41254SOL    HW225602   0.320   6.954   9.612
41255SOL     OW25603  14.008   6.734  10.886
41255SOL    HW125604  14.012   6.789  10.808
41255SOL    HW225605  13.963   6.788  10.952
41256SOL     OW25606   8.666   4.574   1.207
41256SOL    HW125607   8.673   4.657   1.253
41256SOL    HW225608   8.611   4.593   1.131
41257SOL     OW25609  13.399   8.071   4.014
41257SOL    HW125610  13.338   8.013   4.060
41257SOL    HW225611  13.444   8.014   3.953
41258SOL     OW25612   4.125  13.297  12.373
41258SOL    HW125613   4.178  13.263  12.300
41258SOL    HW225614   4.128  13.228  12.439
41259SOL     OW25615   7.522   9.653   2.969
41259SOL    HW125616   7.482   9.574   2.931
41259SOL    HW225617   7.608   9.624   2.998
41260SOL     OW25618  12.200   1.299   9.275
41260SOL    HW125619  12.182   1.206   9.292
41260SOL    HW225620  12.126   1.345   9.315
41261SOL     OW25621  12.499   0.648   6.877
41261SOL    HW125622  12.451   0.575   6.840
41261SOL    HW225623  12.506   0.711   6.805
41262SOL     OW25624  11.947   3.070   5.908
41262SOL    HW125625  11.943   3.160   5.873
41262SOL    HW225626  12.036   3.062   5.943
41263SOL     OW25627   5.583  10.520  13.568
41263SOL    HW125628   5.617  10.432  13.581
41263SOL    HW225629   5.636  10.556  13.497
41264SOL     OW25630   6.936   5.064   6.777
41264SOL    HW125631   6.873   5.060   6.848
41264SOL    HW225632   6.952   5.158   6.765
41265SOL     OW25633  14.230   3.505   2.996
41265SOL    HW125634  14.216   3.416   3.028
41265SOL    HW225635  14.188   3.561   3.062
41266SOL     OW25636   5.350   0.359  12.023
41266SOL    HW125637   5.426   0.388  12.074
41266SOL    HW225638   5.283   0.340  12.088
41267SOL     OW25639  14.566   6.922  14.363
41267SOL    HW125640  14.577   7.017  14.361
41267SOL    HW225641  14.584   6.897  14.453
41268SOL     OW25642   6.831   6.070   6.812
41268SOL    HW125643   6.900   6.136   6.821
41268SOL    HW225644   6.760   6.103   6.867
41269SOL     OW25645  11.837   4.776   3.887
41269SOL    HW125646  11.741   4.771   3.890
41269SOL    HW225647  11.857   4.863   3.921
41270SOL     OW25648   4.249  11.532   2.296
41270SOL    HW125649   4.230  11.623   2.320
41270SOL    HW225650   4.163  11.491   2.288
41271SOL     OW25651  10.560   7.133  13.949
41271SOL    HW125652  10.647   7.168  13.964
41271SOL    HW225653  10.505   7.210  13.938
41272SOL     OW25654   8.398  10.750   8.938
41272SOL    HW125655   8.437  10.708   9.014
41272SOL    HW225656   8.416  10.689   8.866
41273SOL     OW25657   8.602  13.304   5.261
41273SOL    HW125658   8.520  13.340   5.227
41273SOL    HW225659   8.656  13.291   5.183
41274SOL     OW25660   0.226   4.943   5.283
41274SOL    HW125661   0.149   4.888   5.270
41274SOL    HW225662   0.272   4.903   5.357
41275SOL     OW25663   2.304  14.113   1.184
41275SOL    HW125664   2.240  14.106   1.254
41275SOL    HW225665   2.317  14.023   1.154
41276SOL     OW25666  13.276   4.384  13.414
41276SOL    HW125667  13.224   4.452  13.457
41276SOL    HW225668  13.352   4.373  13.471
41277SOL     OW25669  12.227  13.221   4.441
41277SOL    HW125670  12.134  13.242   4.432
41277SOL    HW225671  12.266  13.301   4.476
41278SOL     OW25672   3.702  13.017  10.198
41278SOL    HW125673   3.796  12.997  10.195
41278SOL    HW225674   3.666  12.976  10.120
41279SOL     OW25675   0.721   4.869   5.684
41279SOL    HW125676   0.708   4.963   5.697
41279SOL    HW225677   0.639   4.830   5.715
41280SOL     OW25678   2.879  12.067   5.221
41280SOL    HW125679   2.895  12.091   5.130
41280SOL    HW225680   2.784  12.072   5.230
41281SOL     OW25681   8.059   4.525  10.498
41281SOL    HW125682   8.118   4.529  10.572
41281SOL    HW225683   8.015   4.611  10.498
41282SOL     OW25684  14.350   2.576  14.184
41282SOL    HW125685  14.417   2.637  14.152
41282SOL    HW225686  14.269   2.628  14.183
41283SOL     OW25687   8.199   8.842   3.330
41283SOL    HW125688   8.202   8.938   3.323
41283SOL    HW225689   8.188   8.825   3.424
41284SOL     OW25690   6.643   3.426   3.864
41284SOL    HW125691   6.620   3.519   3.864
41284SOL    HW225692   6.635   3.399   3.956
41285SOL     OW25693   5.562   4.580   9.594
41285SOL    HW125694   5.504   4.649   9.625
41285SOL    HW225695   5.642   4.591   9.644
41286SOL     OW25696   4.684  12.584   0.383
41286SOL    HW125697   4.696  12.545   0.469
41286SOL    HW225698   4.671  12.509   0.325
41287SOL     OW25699   8.402  13.471   2.746
41287SOL    HW125700   8.309  13.449   2.737
41287SOL    HW225701   8.408  13.561   2.714
41288SOL     OW25702  13.862  12.694   2.020
41288SOL    HW125703  13.932  12.645   2.062
41288SOL    HW225704  13.879  12.685   1.926
41289SOL     OW25705   9.205   3.086   4.745
41289SOL    HW125706   9.232   3.037   4.667
41289SOL    HW225707   9.250   3.041   4.817
41290SOL     OW25708  12.636   1.104   8.033
41290SOL    HW125709  12.630   1.009   8.027
41290SOL    HW225710  12.629   1.123   8.127
41291SOL     OW25711   9.957   9.234   7.354
41291SOL    HW125712   9.883   9.189   7.312
41291SOL    HW225713   9.923   9.260   7.440
41292SOL     OW25714   3.249  14.683   5.570
41292SOL    HW125715   3.309  14.756   5.584
41292SOL    HW225716   3.297  14.606   5.599
41293SOL     OW25717   1.628   8.094   5.718
41293SOL    HW125718   1.647   8.044   5.639
41293SOL    HW225719   1.714   8.113   5.756
41294SOL     OW25720  10.290   7.237  10.923
41294SOL    HW125721  10.198   7.222  10.903
41294SOL    HW225722  10.329   7.262  10.839
41295SOL     OW25723   3.829   1.936   9.241
41295SOL    HW125724   3.755   1.995   9.232
41295SOL    HW225725   3.825   1.905   9.332
41296SOL     OW25726  10.102   2.056   4.535
41296SOL    HW125727  10.059   2.140   4.549
41296SOL    HW225728  10.033   1.991   4.546
41297SOL     OW25729  14.155  12.016   0.038
41297SOL    HW125730  14.250  12.025   0.045
41297SOL    HW225731  14.122  12.048   0.122
41298SOL     OW25732  12.096   0.871   8.972
41298SOL    HW125733  12.164   0.938   8.982
41298SOL    HW225734  12.090   0.857   8.877
41299SOL     OW25735  13.695   2.173   4.994
41299SOL    HW125736  13.696   2.183   4.899
41299SOL    HW225737  13.614   2.125   5.013
41300SOL     OW25738  13.906   8.068   9.392
41300SOL    HW125739  13.865   7.983   9.409
41300SOL    HW225740  13.866   8.099   9.311
41301SOL     OW25741   0.106   4.998   8.050
41301SOL    HW125742   0.103   4.992   8.146
41301SOL    HW225743   0.180   5.057   8.032
41302SOL     OW25744   4.344  12.606   2.557
41302SOL    HW125745   4.267  12.637   2.509
41302SOL    HW225746   4.411  12.594   2.489
41303SOL     OW25747   9.626   2.702  10.154
41303SOL    HW125748   9.692   2.738  10.096
41303SOL    HW225749   9.633   2.753  10.234
41304SOL     OW25750  14.787  12.078   8.250
41304SOL    HW125751  14.721  12.139   8.282
41304SOL    HW225752  14.866  12.131   8.240
41305SOL     OW25753   2.035   4.777   8.337
41305SOL    HW125754   2.079   4.692   8.324
41305SOL    HW225755   2.054   4.800   8.428
41306SOL     OW25756   0.299   6.152  13.477
41306SOL    HW125757   0.330   6.100  13.403
41306SOL    HW225758   0.235   6.096  13.521
41307SOL     OW25759   7.940   6.318   9.915
41307SOL    HW125760   7.905   6.362   9.992
41307SOL    HW225761   7.965   6.389   9.856
41308SOL     OW25762   8.115   2.910   8.074
41308SOL    HW125763   8.052   2.926   8.144
41308SOL    HW225764   8.166   2.990   8.069
41309SOL     OW25765   4.357  13.570   6.742
41309SOL    HW125766   4.304  13.614   6.809
41309SOL    HW225767   4.295  13.517   6.693
41310SOL     OW25768   5.701   5.789   6.457
41310SOL    HW125769   5.696   5.769   6.550
41310SOL    HW225770   5.668   5.878   6.449
41311SOL     OW25771   7.365   0.698   2.671
41311SOL    HW125772   7.415   0.675   2.593
41311SOL    HW225773   7.391   0.633   2.736
41312SOL     OW25774   1.579  11.791  12.396
41312SOL    HW125775   1.587  11.851  12.471
41312SOL    HW225776   1.613  11.842  12.322
41313SOL     OW25777   7.293   7.634   0.063
41313SOL    HW125778   7.274   7.652   0.155
41313SOL    HW225779   7.208   7.614   0.024
41314SOL     OW25780  10.520   3.888   6.768
41314SOL    HW125781  10.553   3.933   6.690
41314SOL    HW225782  10.577   3.918   6.839
41315SOL     OW25783  11.404   7.296   1.387
41315SOL    HW125784  11.339   7.320   1.321
41315SOL    HW225785  11.409   7.372   1.445
41316SOL     OW25786  11.492  12.093   1.839
41316SOL    HW125787  11.524  12.108   1.928
41316SOL    HW225788  11.428  12.022   1.848
41317SOL     OW25789   0.904   7.846   2.030
41317SOL    HW125790   0.897   7.901   1.952
41317SOL    HW225791   0.880   7.759   2.000
41318SOL     OW25792   8.467   7.124   0.781
41318SOL    HW125793   8.464   7.159   0.692
41318SOL    HW225794   8.477   7.201   0.837
41319SOL     OW25795  13.295   6.190   4.647
41319SOL    HW125796  13.202   6.212   4.661
41319SOL    HW225797  13.341   6.272   4.664
41320SOL     OW25798  13.928  13.038   3.731
41320SOL    HW125799  13.849  13.063   3.684
41320SOL    HW225800  13.897  12.980   3.801
41321SOL     OW25801   0.805   9.926   8.690
41321SOL    HW125802   0.879   9.897   8.743
41321SOL    HW225803   0.742   9.961   8.753
41322SOL     OW25804   1.265   4.520  14.063
41322SOL    HW125805   1.357   4.539  14.084
41322SOL    HW225806   1.218   4.599  14.089
41323SOL     OW25807   6.388   2.806  11.045
41323SOL    HW125808   6.349   2.733  11.093
41323SOL    HW225809   6.456   2.765  10.991
41324SOL     OW25810  10.681   6.552  10.069
41324SOL    HW125811  10.714   6.642  10.063
41324SOL    HW225812  10.629   6.551  10.149
41325SOL     OW25813   1.776  10.898  11.623
41325SOL    HW125814   1.735  10.983  11.603
41325SOL    HW225815   1.754  10.881  11.714
41326SOL     OW25816   5.191   2.561   5.617
41326SOL    HW125817   5.238   2.564   5.701
41326SOL    HW225818   5.202   2.471   5.587
41327SOL     OW25819   1.119   8.835   4.391
41327SOL    HW125820   1.091   8.793   4.310
41327SOL    HW225821   1.042   8.834   4.448
41328SOL     OW25822  10.330   3.168   4.620
41328SOL    HW125823  10.410   3.117   4.604
41328SOL    HW225824  10.349   3.255   4.587
41329SOL     OW25825   7.891   2.638   2.267
41329SOL    HW125826   7.954   2.691   2.219
41329SOL    HW225827   7.940   2.604   2.342
41330SOL     OW25828   4.909   1.200   2.760
41330SOL    HW125829   4.920   1.178   2.852
41330SOL    HW225830   4.835   1.147   2.731
41331SOL     OW25831  12.501   7.183  12.010
41331SOL    HW125832  12.547   7.104  11.981
41331SOL    HW225833  12.409   7.166  11.990
41332SOL     OW25834   2.215   7.452  13.979
41332SOL    HW125835   2.169   7.418  14.056
41332SOL    HW225836   2.174   7.537  13.963
41333SOL     OW25837  14.610   6.061  12.063
41333SOL    HW125838  14.555   6.010  12.122
41333SOL    HW225839  14.623   6.004  11.987
41334SOL     OW25840   9.622   9.641   6.780
41334SOL    HW125841   9.574   9.592   6.847
41334SOL    HW225842   9.554   9.671   6.719
41335SOL     OW25843   9.171   3.642   4.824
41335SOL    HW125844   9.187   3.582   4.897
41335SOL    HW225845   9.159   3.584   4.748
41336SOL     OW25846   0.171   2.397  10.659
41336SOL    HW125847   0.141   2.471  10.713
41336SOL    HW225848   0.202   2.333  10.723
41337SOL     OW25849   7.022  11.782   4.836
41337SOL    HW125850   6.999  11.861   4.885
41337SOL    HW225851   7.093  11.810   4.778
41338SOL     OW25852   8.599   0.293   7.262
41338SOL    HW125853   8.518   0.308   7.310
41338SOL    HW225854   8.667   0.329   7.319
41339SOL     OW25855   3.151   3.469   7.329
41339SOL    HW125856   3.111   3.492   7.245
41339SOL    HW225857   3.157   3.552   7.376
41340SOL     OW25858   1.161   3.482  11.836
41340SOL    HW125859   1.128   3.469  11.925
41340SOL    HW225860   1.227   3.413  11.825
41341SOL     OW25861  13.340   8.328  10.213
41341SOL    HW125862  13.264   8.347  10.157
41341SOL    HW225863  13.407   8.390  10.184
41342SOL     OW25864   8.266   1.927   6.329
41342SOL    HW125865   8.310   1.984   6.265
41342SOL    HW225866   8.230   1.856   6.276
41343SOL     OW25867   4.149   7.515  10.077
41343SOL    HW125868   4.107   7.602  10.083
41343SOL    HW225869   4.076   7.453  10.081
41344SOL     OW25870   4.435   6.878  10.553
41344SOL    HW125871   4.408   6.791  10.582
41344SOL    HW225872   4.422   6.934  10.630
41345SOL     OW25873   2.316   5.393   0.954
41345SOL    HW125874   2.321   5.480   0.993
41345SOL    HW225875   2.237   5.394   0.901
41346SOL     OW25876  12.536   3.177  10.606
41346SOL    HW125877  12.443   3.182  10.630
41346SOL    HW225878  12.536   3.174  10.511
41347SOL     OW25879   7.862   0.270  10.607
41347SOL    HW125880   7.837   0.313  10.689
41347SOL    HW225881   7.891   0.183  10.634
41348SOL     OW25882   7.306  11.072  11.444
41348SOL    HW125883   7.394  11.089  11.413
41348SOL    HW225884   7.296  10.977  11.438
41349SOL     OW25885   5.903  11.969   2.025
41349SOL    HW125886   5.912  12.043   1.964
41349SOL    HW225887   5.822  11.988   2.073
41350SOL     OW25888   2.474   9.357   6.536
41350SOL    HW125889   2.437   9.345   6.623
41350SOL    HW225890   2.561   9.394   6.552
41351SOL     OW25891   6.620   2.009   6.871
41351SOL    HW125892   6.525   2.000   6.863
41351SOL    HW225893   6.633   2.049   6.957
41352SOL     OW25894   4.506   3.076   7.517
41352SOL    HW125895   4.444   3.127   7.568
41352SOL    HW225896   4.451   3.024   7.458
41353SOL     OW25897   9.023  13.845  12.419
41353SOL    HW125898   8.936  13.808  12.404
41353SOL    HW225899   9.081  13.793  12.363
41354SOL     OW25900   0.967   6.382   8.076
41354SOL    HW125901   1.000   6.307   8.026
41354SOL    HW225902   0.875   6.390   8.051
41355SOL     OW25903  14.189   9.980  12.697
41355SOL    HW125904  14.207  10.074  12.689
41355SOL    HW225905  14.094   9.973  12.684
41356SOL     OW25906   9.829   1.125   6.812
41356SOL    HW125907   9.756   1.136   6.872
41356SOL    HW225908   9.845   1.031   6.811
41357SOL     OW25909   8.458  11.087   2.898
41357SOL    HW125910   8.386  11.027   2.880
41357SOL    HW225911   8.501  11.049   2.975
41358SOL     OW25912  13.758  11.258  11.383
41358SOL    HW125913  13.848  11.277  11.358
41358SOL    HW225914  13.705  11.315  11.328
41359SOL     OW25915  11.843   4.521  14.859
41359SOL    HW125916  11.841   4.462  14.784
41359SOL    HW225917  11.902   4.478   0.042
41360SOL     OW25918   0.085   3.056   8.573
41360SOL    HW125919   0.023   3.091   8.507
41360SOL    HW225920   0.076   3.116   8.647
41361SOL     OW25921   5.288  10.806   1.027
41361SOL    HW125922   5.231  10.854   0.968
41361SOL    HW225923   5.376  10.837   1.007
41362SOL     OW25924   7.693  13.620   0.654
41362SOL    HW125925   7.729  13.534   0.634
41362SOL    HW225926   7.599  13.612   0.634
41363SOL     OW25927   9.279   6.177   3.088
41363SOL    HW125928   9.343   6.124   3.042
41363SOL    HW225929   9.306   6.267   3.072
41364SOL     OW25930   5.516  14.775   0.058
41364SOL    HW125931   5.430  14.738   0.038
41364SOL    HW225932   5.497  14.861   0.095
41365SOL     OW25933   8.691  14.295   5.495
41365SOL    HW125934   8.687  14.201   5.481
41365SOL    HW225935   8.675  14.333   5.408
41366SOL     OW25936  11.383   8.898  12.919
41366SOL    HW125937  11.365   8.805  12.903
41366SOL    HW225938  11.359   8.912  13.010
41367SOL     OW25939   7.146   4.032  10.476
41367SOL    HW125940   7.232   4.048  10.437
41367SOL    HW225941   7.165   4.002  10.565
41368SOL     OW25942   2.015   3.491  13.100
41368SOL    HW125943   2.053   3.462  13.183
41368SOL    HW225944   1.945   3.428  13.083
41369SOL     OW25945   0.779   1.372   4.259
41369SOL    HW125946   0.743   1.432   4.324
41369SOL    HW225947   0.874   1.377   4.271
41370SOL     OW25948   6.689  11.167   6.033
41370SOL    HW125949   6.717  11.120   5.955
41370SOL    HW225950   6.732  11.121   6.106
41371SOL     OW25951   4.936   1.974   5.675
41371SOL    HW125952   4.916   1.958   5.768
41371SOL    HW225953   4.853   2.006   5.639
41372SOL     OW25954   2.347  12.670  14.016
41372SOL    HW125955   2.399  12.629  13.947
41372SOL    HW225956   2.319  12.598  14.072
41373SOL     OW25957   4.916   4.667   5.212
41373SOL    HW125958   4.850   4.652   5.144
41373SOL    HW225959   4.960   4.583   5.222
41374SOL     OW25960  13.380   5.477   2.306
41374SOL    HW125961  13.394   5.391   2.267
41374SOL    HW225962  13.435   5.477   2.384
41375SOL     OW25963  14.214   9.666  11.772
41375SOL    HW125964  14.224   9.738  11.709
41375SOL    HW225965  14.120   9.661  11.786
41376SOL     OW25966  12.414   5.666  12.540
41376SOL    HW125967  12.351   5.602  12.507
41376SOL    HW225968  12.490   5.615  12.565
41377SOL     OW25969  13.873   6.246   4.182
41377SOL    HW125970  13.863   6.240   4.277
41377SOL    HW225971  13.834   6.166   4.148
41378SOL     OW25972  10.417  11.723   4.553
41378SOL    HW125973  10.443  11.641   4.511
41378SOL    HW225974  10.398  11.698   4.644
41379SOL     OW25975   3.960   7.994   0.276
41379SOL    HW125976   3.976   7.911   0.230
41379SOL    HW225977   3.959   8.060   0.207
41380SOL     OW25978   4.074  12.110  10.141
41380SOL    HW125979   4.110  12.024  10.162
41380SOL    HW225980   4.094  12.122  10.048
41381SOL     OW25981   6.073   0.779   8.275
41381SOL    HW125982   6.091   0.838   8.201
41381SOL    HW225983   6.158   0.771   8.319
41382SOL     OW25984   4.150   4.890   5.657
41382SOL    HW125985   4.076   4.889   5.596
41382SOL    HW225986   4.175   4.982   5.662
41383SOL     OW25987   2.705   9.732   0.685
41383SOL    HW125988   2.612   9.742   0.669
41383SOL    HW225989   2.736   9.820   0.707
41384SOL     OW25990   3.565  14.812  10.573
41384SOL    HW125991   3.563   0.015  10.622
41384SOL    HW225992   3.631  14.760  10.619
41385SOL     OW25993   6.777   3.534   8.108
41385SOL    HW125994   6.735   3.534   8.022
41385SOL    HW225995   6.789   3.626   8.129
41386SOL     OW25996   7.107  12.391  10.153
41386SOL    HW125997   7.082  12.325  10.088
41386SOL    HW225998   7.163  12.343  10.215
41387SOL     OW25999   9.530   6.801   1.650
41387SOL    HW126000   9.452   6.749   1.631
41387SOL    HW226001   9.499   6.891   1.651
41388SOL     OW26002   5.145   0.953   5.205
41388SOL    HW126003   5.215   0.929   5.144
41388SOL    HW226004   5.112   1.036   5.171
41389SOL     OW26005   7.984  11.007   4.464
41389SOL    HW126006   7.998  10.994   4.370
41389SOL    HW226007   8.063  11.052   4.495
41390SOL     OW26008  12.663  13.211  11.430
41390SOL    HW126009  12.665  13.215  11.334
41390SOL    HW226010  12.743  13.256  11.457
41391SOL     OW26011   0.814   8.040  14.122
41391SOL    HW126012   0.770   8.012  14.202
41391SOL    HW226013   0.897   7.992  14.122
41392SOL     OW26014  11.152   5.232  10.965
41392SOL    HW126015  11.120   5.273  11.046
41392SOL    HW226016  11.210   5.297  10.927
41393SOL     OW26017   7.411   4.713   0.691
41393SOL    HW126018   7.326   4.747   0.718
41393SOL    HW226019   7.474   4.779   0.721
41394SOL     OW26020   4.037   0.850  14.663
41394SOL    HW126021   4.095   0.780  14.695
41394SOL    HW226022   4.091   0.928  14.664
41395SOL     OW26023   4.549  12.937  11.937
41395SOL    HW126024   4.547  12.842  11.947
41395SOL    HW226025   4.471  12.968  11.984
41396SOL     OW26026   2.176   9.152   2.637
41396SOL    HW126027   2.229   9.185   2.710
41396SOL    HW226028   2.109   9.219   2.624
41397SOL     OW26029   2.042  13.540   5.913
41397SOL    HW126030   2.017  13.579   5.996
41397SOL    HW226031   1.977  13.572   5.850
41398SOL     OW26032   7.300   1.908   5.951
41398SOL    HW126033   7.278   1.967   5.879
41398SOL    HW226034   7.393   1.889   5.938
41399SOL     OW26035   4.810   1.697   7.157
41399SOL    HW126036   4.885   1.647   7.126
41399SOL    HW226037   4.848   1.774   7.201
41400SOL     OW26038   1.572   1.907   6.411
41400SOL    HW126039   1.600   1.820   6.381
41400SOL    HW226040   1.501   1.889   6.473
41401SOL     OW26041   0.384   4.762   8.192
41401SOL    HW126042   0.390   4.857   8.183
41401SOL    HW226043   0.301   4.747   8.237
41402SOL     OW26044  11.122   7.654   6.735
41402SOL    HW126045  11.063   7.593   6.781
41402SOL    HW226046  11.102   7.641   6.642
41403SOL     OW26047   9.381   5.388   6.034
41403SOL    HW126048   9.441   5.353   6.100
41403SOL    HW226049   9.358   5.313   5.980
41404SOL     OW26050  12.212   9.425  13.535
41404SOL    HW126051  12.233   9.368  13.609
41404SOL    HW226052  12.140   9.380  13.490
41405SOL     OW26053   1.448  10.770  10.625
41405SOL    HW126054   1.473  10.750  10.715
41405SOL    HW226055   1.457  10.687  10.579
41406SOL     OW26056  14.021   4.070   6.198
41406SOL    HW126057  13.999   3.978   6.178
41406SOL    HW226058  14.093   4.064   6.260
41407SOL     OW26059   2.024  12.509   8.671
41407SOL    HW126060   2.010  12.424   8.713
41407SOL    HW226061   2.118  12.521   8.673
41408SOL     OW26062   9.204  13.393   5.626
41408SOL    HW126063   9.281  13.400   5.569
41408SOL    HW226064   9.146  13.463   5.597
41409SOL     OW26065   6.267   7.886   1.948
41409SOL    HW126066   6.349   7.882   1.997
41409SOL    HW226067   6.270   7.970   1.902
41410SOL     OW26068   3.840  14.458   9.155
41410SOL    HW126069   3.856  14.533   9.212
41410SOL    HW226070   3.925  14.414   9.150
41411SOL     OW26071  12.695  13.552   9.386
41411SOL    HW126072  12.613  13.508   9.365
41411SOL    HW226073  12.736  13.568   9.301
41412SOL     OW26074  14.351   7.889   5.083
41412SOL    HW126075  14.391   7.955   5.027
41412SOL    HW226076  14.424   7.834   5.112
41413SOL     OW26077   1.342   4.698   8.688
41413SOL    HW126078   1.364   4.738   8.603
41413SOL    HW226079   1.423   4.658   8.717
41414SOL     OW26080   3.630   5.052  13.060
41414SOL    HW126081   3.623   4.979  13.121
41414SOL    HW226082   3.617   5.130  13.115
41415SOL     OW26083  13.349  13.208   6.251
41415SOL    HW126084  13.378  13.228   6.162
41415SOL    HW226085  13.285  13.276   6.271
41416SOL     OW26086   7.634  13.537   1.043
41416SOL    HW126087   7.652  13.629   1.021
41416SOL    HW226088   7.645  13.491   0.960
41417SOL     OW26089   5.115   5.579   7.592
41417SOL    HW126090   5.162   5.496   7.596
41417SOL    HW226091   5.033   5.563   7.639
41418SOL     OW26092   7.115   5.746  14.691
41418SOL    HW126093   7.034   5.792  14.714
41418SOL    HW226094   7.086   5.656  14.672
41419SOL     OW26095  10.486   3.849  11.569
41419SOL    HW126096  10.459   3.941  11.569
41419SOL    HW226097  10.488   3.824  11.661
41420SOL     OW26098  12.281   4.304  10.894
41420SOL    HW126099  12.365   4.270  10.924
41420SOL    HW226100  12.303   4.376  10.835
41421SOL     OW26101   2.098   5.244   2.875
41421SOL    HW126102   2.020   5.290   2.845
41421SOL    HW226103   2.103   5.266   2.968
41422SOL     OW26104   9.773   0.301  10.764
41422SOL    HW126105   9.773   0.316  10.858
41422SOL    HW226106   9.781   0.389  10.726
41423SOL     OW26107   4.465   0.661   3.703
41423SOL    HW126108   4.493   0.748   3.675
41423SOL    HW226109   4.377   0.674   3.738
41424SOL     OW26110  14.545   1.943  11.108
41424SOL    HW126111  14.593   1.863  11.131
41424SOL    HW226112  14.484   1.955  11.181
41425SOL     OW26113  10.067   6.157  13.074
41425SOL    HW126114  10.102   6.090  13.015
41425SOL    HW226115  10.144   6.199  13.111
41426SOL     OW26116  12.052   7.191   4.161
41426SOL    HW126117  12.029   7.098   4.162
41426SOL    HW226118  11.971   7.235   4.186
41427SOL     OW26119   0.175   9.412  11.396
41427SOL    HW126120   0.222   9.429  11.477
41427SOL    HW226121   0.243   9.402  11.329
41428SOL     OW26122   4.242   3.937   2.059
41428SOL    HW126123   4.253   3.861   2.002
41428SOL    HW226124   4.147   3.947   2.068
41429SOL     OW26125   7.811  13.305   4.857
41429SOL    HW126126   7.734  13.254   4.833
41429SOL    HW226127   7.881  13.272   4.801
41430SOL     OW26128  12.808  13.207   8.850
41430SOL    HW126129  12.897  13.237   8.871
41430SOL    HW226130  12.820  13.119   8.815
41431SOL     OW26131  11.794   4.543   7.153
41431SOL    HW126132  11.836   4.583   7.077
41431SOL    HW226133  11.734   4.611   7.184
41432SOL     OW26134   7.122   8.888   0.792
41432SOL    HW126135   7.079   8.907   0.708
41432SOL    HW226136   7.066   8.930   0.858
41433SOL     OW26137   9.377  10.572   3.364
41433SOL    HW126138   9.383  10.589   3.270
41433SOL    HW226139   9.453  10.617   3.401
41434SOL     OW26140   4.928   6.954  13.591
41434SOL    HW126141   4.879   7.010  13.652
41434SOL    HW226142   4.950   6.876  13.642
41435SOL     OW26143   2.820   4.848   8.167
41435SOL    HW126144   2.740   4.874   8.212
41435SOL    HW226145   2.890   4.894   8.215
41436SOL     OW26146   5.206   1.996  10.868
41436SOL    HW126147   5.198   2.087  10.840
41436SOL    HW226148   5.151   1.990  10.946
41437SOL     OW26149   5.586   1.408   0.165
41437SOL    HW126150   5.626   1.476   0.111
41437SOL    HW226151   5.604   1.327   0.117
41438SOL     OW26152   2.351  11.371   0.243
41438SOL    HW126153   2.311  11.326   0.318
41438SOL    HW226154   2.418  11.427   0.282
41439SOL     OW26155   8.508   3.573   9.551
41439SOL    HW126156   8.560   3.500   9.583
41439SOL    HW226157   8.428   3.532   9.518
41440SOL     OW26158   8.321   4.141   7.638
41440SOL    HW126159   8.365   4.140   7.552
41440SOL    HW226160   8.358   4.066   7.684
41441SOL     OW26161   6.579   7.247  12.743
41441SOL    HW126162   6.487   7.231  12.764
41441SOL    HW226163   6.602   7.326  12.792
41442SOL     OW26164   9.819  14.643   7.455
41442SOL    HW126165   9.860  14.698   7.387
41442SOL    HW226166   9.818  14.698   7.533
41443SOL     OW26167  12.192  14.370   5.241
41443SOL    HW126168  12.120  14.316   5.274
41443SOL    HW226169  12.184  14.453   5.289
41444SOL     OW26170   1.553   4.477  10.196
41444SOL    HW126171   1.501   4.514  10.125
41444SOL    HW226172   1.558   4.547  10.261
41445SOL     OW26173  10.968   1.235   5.185
41445SOL    HW126174  10.994   1.250   5.094
41445SOL    HW226175  10.954   1.141   5.190
41446SOL     OW26176   9.747   6.550   8.307
41446SOL    HW126177   9.740   6.455   8.300
41446SOL    HW226178   9.810   6.574   8.239
41447SOL     OW26179  11.374   6.701   0.243
41447SOL    HW126180  11.410   6.727   0.158
41447SOL    HW226181  11.366   6.605   0.238
41448SOL     OW26182   5.070  10.965  10.232
41448SOL    HW126183   5.036  10.878  10.213
41448SOL    HW226184   5.040  10.983  10.321
41449SOL     OW26185  12.915   4.215   2.366
41449SOL    HW126186  12.903   4.120   2.376
41449SOL    HW226187  12.827   4.251   2.377
41450SOL     OW26188   9.634   3.686  12.762
41450SOL    HW126189   9.699   3.634  12.809
41450SOL    HW226190   9.561   3.626  12.747
41451SOL     OW26191  12.907   6.266   2.380
41451SOL    HW126192  12.962   6.344   2.386
41451SOL    HW226193  12.960   6.196   2.417
41452SOL     OW26194   2.252  14.574   2.413
41452SOL    HW126195   2.324  14.615   2.462
41452SOL    HW226196   2.288  14.561   2.325
41453SOL     OW26197   7.080  13.057   7.600
41453SOL    HW126198   7.019  13.081   7.530
41453SOL    HW226199   7.166  13.075   7.563
41454SOL     OW26200   9.749   0.760  11.986
41454SOL    HW126201   9.807   0.821  11.940
41454SOL    HW226202   9.786   0.753  12.074
41455SOL     OW26203   5.608  14.067   3.951
41455SOL    HW126204   5.556  14.120   4.011
41455SOL    HW226205   5.587  13.976   3.975
41456SOL     OW26206   1.200  14.093  10.398
41456SOL    HW126207   1.233  14.135  10.478
41456SOL    HW226208   1.128  14.038  10.427
41457SOL     OW26209  10.015   1.575   7.814
41457SOL    HW126210   9.996   1.650   7.871
41457SOL    HW226211   9.944   1.576   7.750
41458SOL     OW26212  13.029  11.672  10.455
41458SOL    HW126213  13.020  11.586  10.414
41458SOL    HW226214  13.122  11.681  10.473
41459SOL     OW26215   0.270   2.787   3.515
41459SOL    HW126216   0.258   2.714   3.575
41459SOL    HW226217   0.182   2.805   3.481
41460SOL     OW26218   8.053   3.203   2.852
41460SOL    HW126219   8.078   3.258   2.926
41460SOL    HW226220   8.114   3.229   2.782
41461SOL     OW26221  11.519   7.371   6.094
41461SOL    HW126222  11.459   7.436   6.131
41461SOL    HW226223  11.480   7.347   6.010
41462SOL     OW26224  14.648  14.531   1.427
41462SOL    HW126225  14.674  14.620   1.449
41462SOL    HW226226  14.634  14.488   1.511
41463SOL     OW26227   7.899   1.611   5.053
41463SOL    HW126228   7.831   1.650   4.998
41463SOL    HW226229   7.979   1.616   5.000
41464SOL     OW26230   4.968   2.559   7.584
41464SOL    HW126231   4.879   2.581   7.610
41464SOL    HW226232   4.984   2.609   7.504
41465SOL     OW26233   0.502  13.619  10.093
41465SOL    HW126234   0.476  13.641  10.182
41465SOL    HW226235   0.597  13.611  10.097
41466SOL     OW26236  14.640  13.585   0.832
41466SOL    HW126237  14.720  13.623   0.869
41466SOL    HW226238  14.619  13.512   0.889
41467SOL     OW26239   3.669  12.620   6.489
41467SOL    HW126240   3.748  12.673   6.487
41467SOL    HW226241   3.609  12.668   6.547
41468SOL     OW26242   4.237   5.939  10.124
41468SOL    HW126243   4.292   5.876  10.169
41468SOL    HW226244   4.179   5.886  10.070
41469SOL     OW26245   8.214   9.750  11.707
41469SOL    HW126246   8.168   9.711  11.781
41469SOL    HW226247   8.210   9.683  11.639
41470SOL     OW26248  11.572   7.628  10.626
41470SOL    HW126249  11.484   7.598  10.603
41470SOL    HW226250  11.589   7.701  10.567
41471SOL     OW26251   3.994   0.698   9.539
41471SOL    HW126252   3.920   0.647   9.571
41471SOL    HW226253   3.957   0.784   9.519
41472SOL     OW26254   6.614   2.674   1.367
41472SOL    HW126255   6.566   2.723   1.300
41472SOL    HW226256   6.683   2.735   1.395
41473SOL     OW26257   3.477   7.559   1.074
41473SOL    HW126258   3.498   7.558   0.980
41473SOL    HW226259   3.522   7.482   1.109
41474SOL     OW26260   2.782   4.546  10.346
41474SOL    HW126261   2.719   4.618  10.345
41474SOL    HW226262   2.817   4.544  10.257
41475SOL     OW26263  12.251   7.440   2.031
41475SOL    HW126264  12.255   7.347   2.011
41475SOL    HW226265  12.242   7.483   1.946
41476SOL     OW26266   8.573   9.260   8.768
41476SOL    HW126267   8.663   9.255   8.800
41476SOL    HW226268   8.548   9.169   8.755
41477SOL     OW26269   8.634  11.297   8.979
41477SOL    HW126270   8.702  11.364   8.969
41477SOL    HW226271   8.589  11.295   8.895
41478SOL     OW26272  10.936   2.639  13.900
41478SOL    HW126273  10.937   2.617  13.993
41478SOL    HW226274  11.025   2.621  13.870
41479SOL     OW26275  12.870   0.208   5.719
41479SOL    HW126276  12.786   0.185   5.680
41479SOL    HW226277  12.930   0.139   5.688
41480SOL     OW26278  13.961   3.467   1.035
41480SOL    HW126279  13.988   3.543   0.983
41480SOL    HW226280  14.043   3.424   1.058
41481SOL     OW26281   2.677   7.749   6.002
41481SOL    HW126282   2.714   7.676   5.953
41481SOL    HW226283   2.603   7.711   6.049
41482SOL     OW26284  11.873  14.790   8.404
41482SOL    HW126285  11.954  14.838   8.423
41482SOL    HW226286  11.882  14.709   8.455
41483SOL     OW26287  12.790  13.324   0.963
41483SOL    HW126288  12.752  13.411   0.947
41483SOL    HW226289  12.826  13.329   1.052
41484SOL     OW26290   8.088  13.280   6.514
41484SOL    HW126291   8.145  13.231   6.454
41484SOL    HW226292   8.145  13.350   6.549
41485SOL     OW26293   2.198   4.692  10.382
41485SOL    HW126294   2.234   4.612  10.421
41485SOL    HW226295   2.251   4.706  10.304
41486SOL     OW26296  13.720   7.476  13.351
41486SOL    HW126297  13.782   7.521  13.408
41486SOL    HW226298  13.774   7.421  13.296
41487SOL     OW26299   6.761  12.828   8.148
41487SOL    HW126300   6.765  12.814   8.053
41487SOL    HW226301   6.807  12.911   8.162
41488SOL     OW26302  11.849  12.214   9.597
41488SOL    HW126303  11.775  12.154   9.589
41488SOL    HW226304  11.860  12.226   9.691
41489SOL     OW26305   2.525  10.036  13.927
41489SOL    HW126306   2.603  10.092  13.928
41489SOL    HW226307   2.452  10.097  13.929
41490SOL     OW26308   3.966   7.441   1.757
41490SOL    HW126309   3.922   7.372   1.707
41490SOL    HW226310   3.906   7.515   1.753
41491SOL     OW26311  10.035  12.796  10.556
41491SOL    HW126312   9.996  12.851  10.488
41491SOL    HW226313   9.988  12.820  10.636
41492SOL     OW26314   7.952  11.653  12.113
41492SOL    HW126315   8.046  11.663  12.099
41492SOL    HW226316   7.914  11.650  12.025
41493SOL     OW26317   4.902   6.171   1.895
41493SOL    HW126318   4.878   6.255   1.856
41493SOL    HW226319   4.895   6.185   1.989
41494SOL     OW26320   4.380  11.011   2.882
41494SOL    HW126321   4.357  10.946   2.816
41494SOL    HW226322   4.340  11.092   2.851
41495SOL     OW26323   7.451   0.957   7.606
41495SOL    HW126324   7.380   0.988   7.549
41495SOL    HW226325   7.530   0.967   7.552
41496SOL     OW26326   3.327   2.783   7.037
41496SOL    HW126327   3.287   2.847   6.977
41496SOL    HW226328   3.351   2.835   7.114
41497SOL     OW26329   6.846   2.199   1.809
41497SOL    HW126330   6.771   2.153   1.772
41497SOL    HW226331   6.810   2.280   1.845
41498SOL     OW26332  11.201   9.486   1.409
41498SOL    HW126333  11.255   9.409   1.428
41498SOL    HW226334  11.173   9.474   1.318
41499SOL     OW26335   9.386  14.691   7.092
41499SOL    HW126336   9.341  14.696   7.176
41499SOL    HW226337   9.476  14.667   7.114
41500SOL     OW26338  14.800  10.430   1.350
41500SOL    HW126339  14.860  10.359   1.329
41500SOL    HW226340  14.753  10.401   1.428
41501SOL     OW26341  10.329   9.462   9.810
41501SOL    HW126342  10.353   9.437   9.720
41501SOL    HW226343  10.269   9.393   9.839
41502SOL     OW26344   5.114   0.315  13.370
41502SOL    HW126345   5.194   0.348  13.411
41502SOL    HW226346   5.049   0.384  13.386
41503SOL     OW26347   0.551   0.383  13.035
41503SOL    HW126348   0.611   0.416  12.968
41503SOL    HW226349   0.536   0.292  13.012
41504SOL     OW26350  13.897   6.934  12.026
41504SOL    HW126351  13.833   6.936  12.097
41504SOL    HW226352  13.869   6.860  11.971
41505SOL     OW26353   8.802  10.104  10.768
41505SOL    HW126354   8.786  10.056  10.849
41505SOL    HW226355   8.729  10.079  10.711
41506SOL     OW26356   4.473  10.697   5.680
41506SOL    HW126357   4.459  10.606   5.653
41506SOL    HW226358   4.435  10.702   5.768
41507SOL     OW26359  13.896   2.207  13.267
41507SOL    HW126360  13.858   2.269  13.329
41507SOL    HW226361  13.964   2.256  13.221
41508SOL     OW26362   3.637  11.966   1.667
41508SOL    HW126363   3.677  11.893   1.713
41508SOL    HW226364   3.654  12.042   1.722
41509SOL     OW26365   0.680  13.338   2.605
41509SOL    HW126366   0.592  13.302   2.593
41509SOL    HW226367   0.666  13.427   2.639
41510SOL     OW26368  10.969  11.856   1.890
41510SOL    HW126369  10.951  11.769   1.925
41510SOL    HW226370  10.888  11.881   1.844
41511SOL     OW26371   4.645   1.463  12.878
41511SOL    HW126372   4.556   1.437  12.854
41511SOL    HW226373   4.693   1.381  12.887
41512SOL     OW26374   1.797  13.213   4.379
41512SOL    HW126375   1.843  13.296   4.367
41512SOL    HW226376   1.745  13.225   4.459
41513SOL     OW26377   4.155   8.375   9.838
41513SOL    HW126378   4.120   8.407   9.755
41513SOL    HW226379   4.249   8.388   9.831
41514SOL     OW26380   4.882  14.164   2.725
41514SOL    HW126381   4.933  14.112   2.788
41514SOL    HW226382   4.910  14.132   2.639
41515SOL     OW26383   3.775   7.297   4.750
41515SOL    HW126384   3.788   7.341   4.665
41515SOL    HW226385   3.859   7.255   4.768
41516SOL     OW26386   3.816   9.815  11.023
41516SOL    HW126387   3.868   9.893  11.045
41516SOL    HW226388   3.861   9.776  10.949
41517SOL     OW26389   0.414   8.863   4.831
41517SOL    HW126390   0.344   8.801   4.854
41517SOL    HW226391   0.411   8.866   4.736
41518SOL     OW26392   5.398   6.272  13.434
41518SOL    HW126393   5.448   6.202  13.393
41518SOL    HW226394   5.375   6.237  13.520
41519SOL     OW26395   3.861   9.360   8.259
41519SOL    HW126396   3.864   9.354   8.163
41519SOL    HW226397   3.909   9.283   8.289
41520SOL     OW26398  11.064  13.644   1.181
41520SOL    HW126399  10.991  13.625   1.240
41520SOL    HW226400  11.036  13.608   1.096
41521SOL     OW26401  10.711   0.754   3.213
41521SOL    HW126402  10.783   0.765   3.151
41521SOL    HW226403  10.726   0.668   3.252
41522SOL     OW26404  12.302   4.697  13.987
41522SOL    HW126405  12.215   4.671  13.960
41522SOL    HW226406  12.345   4.616  14.015
41523SOL     OW26407   2.080   3.619   8.397
41523SOL    HW126408   2.088   3.634   8.303
41523SOL    HW226409   2.158   3.660   8.435
41524SOL     OW26410   8.452   6.583   1.890
41524SOL    HW126411   8.405   6.627   1.961
41524SOL    HW226412   8.427   6.491   1.899
41525SOL     OW26413  10.869   5.160  13.422
41525SOL    HW126414  10.885   5.185  13.513
41525SOL    HW226415  10.778   5.186  13.406
41526SOL     OW26416   9.544  14.211   8.292
41526SOL    HW126417   9.606  14.280   8.315
41526SOL    HW226418   9.588  14.161   8.223
41527SOL     OW26419   3.186   1.153   0.265
41527SOL    HW126420   3.240   1.232   0.257
41527SOL    HW226421   3.204   1.121   0.354
41528SOL     OW26422   0.443   8.469   5.058
41528SOL    HW126423   0.471   8.550   5.101
41528SOL    HW226424   0.354   8.487   5.029
41529SOL     OW26425  12.898   5.222   8.041
41529SOL    HW126426  12.867   5.179   7.962
41529SOL    HW226427  12.819   5.243   8.091
41530SOL     OW26428  10.301   0.917  10.299
41530SOL    HW126429  10.303   0.844  10.360
41530SOL    HW226430  10.325   0.993  10.351
41531SOL     OW26431   8.414  13.070   0.084
41531SOL    HW126432   8.331  13.115   0.067
41531SOL    HW226433   8.474  13.107   0.019
41532SOL     OW26434   3.788  13.307   5.840
41532SOL    HW126435   3.794  13.376   5.906
41532SOL    HW226436   3.802  13.226   5.889
41533SOL     OW26437  13.332   3.275   4.208
41533SOL    HW126438  13.320   3.193   4.159
41533SOL    HW226439  13.332   3.248   4.300
41534SOL     OW26440   0.402   7.986   6.347
41534SOL    HW126441   0.456   8.059   6.379
41534SOL    HW226442   0.375   8.012   6.259
41535SOL     OW26443   0.038   1.979   7.607
41535SOL    HW126444   0.000   1.973   7.695
41535SOL    HW226445   0.117   1.926   7.611
41536SOL     OW26446   6.200   9.871   2.526
41536SOL    HW126447   6.242   9.910   2.602
41536SOL    HW226448   6.148   9.942   2.488
41537SOL     OW26449  11.479  11.675   5.381
41537SOL    HW126450  11.540  11.695   5.311
41537SOL    HW226451  11.397  11.717   5.355
41538SOL     OW26452   8.344   3.392   1.108
41538SOL    HW126453   8.304   3.473   1.078
41538SOL    HW226454   8.274   3.327   1.103
41539SOL     OW26455  13.399   8.807   8.201
41539SOL    HW126456  13.338   8.872   8.236
41539SOL    HW226457  13.342   8.745   8.155
41540SOL     OW26458   7.583  14.001  12.959
41540SOL    HW126459   7.497  14.042  12.946
41540SOL    HW226460   7.568  13.908  12.940
41541SOL     OW26461   5.796  14.310   2.830
41541SOL    HW126462   5.822  14.229   2.875
41541SOL    HW226463   5.839  14.305   2.744
41542SOL     OW26464  14.697  11.895  11.232
41542SOL    HW126465  14.733  11.935  11.311
41542SOL    HW226466  14.762  11.830  11.207
41543SOL     OW26467  13.689   8.768  10.468
41543SOL    HW126468  13.656   8.835  10.528
41543SOL    HW226469  13.719   8.817  10.391
41544SOL     OW26470  10.425   2.625  14.797
41544SOL    HW126471  10.478   2.685  14.849
41544SOL    HW226472  10.336   2.636  14.833
41545SOL     OW26473   1.236  12.563  14.777
41545SOL    HW126474   1.312  12.561  14.835
41545SOL    HW226475   1.263  12.512  14.701
41546SOL     OW26476  10.370  14.032   2.796
41546SOL    HW126477  10.405  13.943   2.789
41546SOL    HW226478  10.378  14.068   2.707
41547SOL     OW26479  14.117   8.132   8.941
41547SOL    HW126480  14.108   8.120   8.846
41547SOL    HW226481  14.068   8.059   8.979
41548SOL     OW26482   9.768   8.668   6.120
41548SOL    HW126483   9.745   8.674   6.028
41548SOL    HW226484   9.712   8.598   6.154
41549SOL     OW26485   6.437   7.516   7.740
41549SOL    HW126486   6.379   7.444   7.763
41549SOL    HW226487   6.430   7.524   7.645
41550SOL     OW26488   3.561   6.966   1.591
41550SOL    HW126489   3.606   6.927   1.516
41550SOL    HW226490   3.519   7.045   1.555
41551SOL     OW26491   1.438   9.723   5.017
41551SOL    HW126492   1.492   9.754   5.091
41551SOL    HW226493   1.355   9.768   5.029
41552SOL     OW26494   2.613   3.659  14.241
41552SOL    HW126495   2.603   3.694  14.330
41552SOL    HW226496   2.622   3.737  14.186
41553SOL     OW26497   8.805   3.806   7.197
41553SOL    HW126498   8.820   3.810   7.291
41553SOL    HW226499   8.730   3.863   7.182
41554SOL     OW26500   0.614  14.420   5.724
41554SOL    HW126501   0.622  14.325   5.733
41554SOL    HW226502   0.689  14.455   5.773
41555SOL     OW26503   8.167   9.818  14.074
41555SOL    HW126504   8.078   9.839  14.101
41555SOL    HW226505   8.220   9.834  14.153
41556SOL     OW26506   5.884   6.440   8.250
41556SOL    HW126507   5.898   6.351   8.218
41556SOL    HW226508   5.826   6.430   8.326
41557SOL     OW26509   3.847  10.914   9.901
41557SOL    HW126510   3.752  10.926   9.896
41557SOL    HW226511   3.865  10.910   9.995
41558SOL     OW26512   4.889  11.783  10.153
41558SOL    HW126513   4.960  11.841  10.180
41558SOL    HW226514   4.809  11.834  10.169
41559SOL     OW26515   5.043   9.086  13.328
41559SOL    HW126516   4.973   9.151  13.340
41559SOL    HW226517   5.117   9.136  13.294
41560SOL     OW26518   0.167   4.859   4.101
41560SOL    HW126519   0.086   4.843   4.052
41560SOL    HW226520   0.228   4.894   4.036
41561SOL     OW26521   4.842   3.360   6.638
41561SOL    HW126522   4.817   3.388   6.551
41561SOL    HW226523   4.758   3.349   6.685
41562SOL     OW26524  13.879  11.202   0.274
41562SOL    HW126525  13.822  11.271   0.239
41562SOL    HW226526  13.833  11.170   0.352
41563SOL     OW26527  12.460  10.530   7.304
41563SOL    HW126528  12.482  10.464   7.239
41563SOL    HW226529  12.372  10.560   7.281
41564SOL     OW26530  14.248  10.672   4.474
41564SOL    HW126531  14.160  10.635   4.462
41564SOL    HW226532  14.291  10.612   4.534
41565SOL     OW26533   9.816   7.335  13.736
41565SOL    HW126534   9.768   7.367  13.812
41565SOL    HW226535   9.813   7.239  13.744
41566SOL     OW26536  13.600   0.555   3.747
41566SOL    HW126537  13.514   0.592   3.729
41566SOL    HW226538  13.662   0.624   3.723
41567SOL     OW26539   5.787   8.881   2.864
41567SOL    HW126540   5.739   8.908   2.942
41567SOL    HW226541   5.762   8.790   2.850
41568SOL     OW26542   0.582   1.183   7.821
41568SOL    HW126543   0.499   1.135   7.821
41568SOL    HW226544   0.619   1.168   7.734
41569SOL     OW26545  10.858   7.539   8.414
41569SOL    HW126546  10.770   7.560   8.445
41569SOL    HW226547  10.851   7.545   8.318
41570SOL     OW26548   9.385   6.092   8.387
41570SOL    HW126549   9.394   6.185   8.365
41570SOL    HW226550   9.324   6.091   8.461
41571SOL     OW26551   1.598  11.761  13.663
41571SOL    HW126552   1.637  11.673  13.669
41571SOL    HW226553   1.512  11.752  13.704
41572SOL     OW26554   7.292  11.052  13.513
41572SOL    HW126555   7.351  11.023  13.443
41572SOL    HW226556   7.322  11.141  13.534
41573SOL     OW26557   2.666   3.432  13.898
41573SOL    HW126558   2.577   3.411  13.871
41573SOL    HW226559   2.659   3.455  13.990
41574SOL     OW26560   1.364   7.305   2.858
41574SOL    HW126561   1.366   7.257   2.775
41574SOL    HW226562   1.280   7.352   2.856
41575SOL     OW26563   3.713   5.647  10.398
41575SOL    HW126564   3.701   5.740  10.378
41575SOL    HW226565   3.752   5.610  10.318
41576SOL     OW26566   2.217   2.715  14.466
41576SOL    HW126567   2.304   2.736  14.501
41576SOL    HW226568   2.168   2.796  14.472
41577SOL     OW26569   1.631   7.918   9.190
41577SOL    HW126570   1.692   7.990   9.202
41577SOL    HW226571   1.553   7.957   9.150
41578SOL     OW26572   6.409   9.389  13.858
41578SOL    HW126573   6.321   9.377  13.823
41578SOL    HW226574   6.415   9.326  13.930
41579SOL     OW26575  12.799  10.092   5.126
41579SOL    HW126576  12.706  10.080   5.111
41579SOL    HW226577  12.806  10.123   5.216
41580SOL     OW26578   3.264  14.724  12.152
41580SOL    HW126579   3.250  14.747  12.243
41580SOL    HW226580   3.321  14.647  12.155
41581SOL     OW26581  14.439   1.860   5.530
41581SOL    HW126582  14.466   1.942   5.571
41581SOL    HW226583  14.486   1.858   5.447
41582SOL     OW26584   9.107   5.889  11.369
41582SOL    HW126585   9.115   5.820  11.434
41582SOL    HW226586   9.134   5.968  11.415
41583SOL     OW26587   0.268   8.389   7.364
41583SOL    HW126588   0.244   8.302   7.394
41583SOL    HW226589   0.356   8.379   7.327
41584SOL     OW26590   6.121   2.473  11.813
41584SOL    HW126591   6.201   2.421  11.810
41584SOL    HW226592   6.095   2.483  11.721
41585SOL     OW26593  10.415  13.784   7.022
41585SOL    HW126594  10.402  13.750   6.934
41585SOL    HW226595  10.472  13.720   7.065
41586SOL     OW26596   6.714   4.612   5.043
41586SOL    HW126597   6.805   4.636   5.060
41586SOL    HW226598   6.715   4.569   4.958
41587SOL     OW26599  11.250   4.506   1.921
41587SOL    HW126600  11.297   4.432   1.882
41587SOL    HW226601  11.164   4.471   1.942
41588SOL     OW26602   2.150   3.243  13.846
41588SOL    HW126603   2.109   3.204  13.924
41588SOL    HW226604   2.216   3.178  13.820
41589SOL     OW26605  13.639   6.313  10.521
41589SOL    HW126606  13.732   6.317  10.498
41589SOL    HW226607  13.611   6.226  10.491
41590SOL     OW26608   6.504   4.245   6.167
41590SOL    HW126609   6.491   4.216   6.077
41590SOL    HW226610   6.488   4.340   6.164
41591SOL     OW26611   2.133   7.275   8.194
41591SOL    HW126612   2.082   7.265   8.113
41591SOL    HW226613   2.195   7.346   8.175
41592SOL     OW26614   4.621   2.186  13.737
41592SOL    HW126615   4.655   2.252  13.677
41592SOL    HW226616   4.651   2.103  13.700
41593SOL     OW26617  11.499  12.436   9.710
41593SOL    HW126618  11.499  12.515   9.764
41593SOL    HW226619  11.406  12.420   9.692
41594SOL     OW26620   3.489  13.991  14.656
41594SOL    HW126621   3.531  14.075  14.675
41594SOL    HW226622   3.519  13.968  14.568
41595SOL     OW26623   1.346  11.859  13.506
41595SOL    HW126624   1.267  11.813  13.479
41595SOL    HW226625   1.400  11.791  13.546
41596SOL     OW26626   4.800   0.927   8.272
41596SOL    HW126627   4.894   0.913   8.284
41596SOL    HW226628   4.793   1.015   8.235
41597SOL     OW26629  10.158  14.284   4.291
41597SOL    HW126630  10.158  14.271   4.386
41597SOL    HW226631  10.121  14.371   4.279
41598SOL     OW26632   7.777   3.192  10.690
41598SOL    HW126633   7.753   3.120  10.749
41598SOL    HW226634   7.758   3.158  10.603
41599SOL     OW26635   9.212  13.781   0.211
41599SOL    HW126636   9.192  13.779   0.117
41599SOL    HW226637   9.304  13.807   0.215
41600SOL     OW26638   9.160  12.901   2.607
41600SOL    HW126639   9.210  12.890   2.687
41600SOL    HW226640   9.213  12.959   2.553
41601SOL     OW26641   7.931  11.213   9.573
41601SOL    HW126642   7.861  11.236   9.513
41601SOL    HW226643   7.917  11.271   9.649
41602SOL     OW26644  10.602   0.522   7.310
41602SOL    HW126645  10.572   0.494   7.397
41602SOL    HW226646  10.698   0.525   7.319
41603SOL     OW26647  12.618   8.775  12.428
41603SOL    HW126648  12.589   8.740  12.344
41603SOL    HW226649  12.554   8.842  12.450
41604SOL     OW26650   3.730  13.297  11.084
41604SOL    HW126651   3.688  13.349  11.016
41604SOL    HW226652   3.782  13.360  11.134
41605SOL     OW26653   0.695  12.797  10.963
41605SOL    HW126654   0.695  12.711  11.004
41605SOL    HW226655   0.622  12.843  11.004
41606SOL     OW26656   8.052  11.844  12.688
41606SOL    HW126657   8.045  11.910  12.756
41606SOL    HW226658   8.017  11.764  12.727
41607SOL     OW26659  10.069  10.693   5.776
41607SOL    HW126660  10.039  10.783   5.789
41607SOL    HW226661  10.155  10.691   5.818
41608SOL     OW26662   4.565   3.042   8.067
41608SOL    HW126663   4.510   2.972   8.102
41608SOL    HW226664   4.512   3.121   8.077
41609SOL     OW26665  11.399   2.194   8.020
41609SOL    HW126666  11.466   2.126   8.013
41609SOL    HW226667  11.353   2.192   7.936
41610SOL     OW26668   4.046   2.881   6.829
41610SOL    HW126669   4.115   2.930   6.783
41610SOL    HW226670   4.069   2.892   6.922
41611SOL     OW26671   9.895   1.024  11.175
41611SOL    HW126672   9.874   1.028  11.268
41611SOL    HW226673   9.974   0.968  11.171
41612SOL     OW26674   1.174   4.462   6.556
41612SOL    HW126675   1.133   4.410   6.486
41612SOL    HW226676   1.100   4.496   6.607
41613SOL     OW26677   8.202  13.409   3.556
41613SOL    HW126678   8.239  13.471   3.493
41613SOL    HW226679   8.168  13.464   3.627
41614SOL     OW26680   5.679   5.413   6.649
41614SOL    HW126681   5.736   5.478   6.608
41614SOL    HW226682   5.688   5.428   6.743
41615SOL     OW26683   4.210  11.726   5.923
41615SOL    HW126684   4.153  11.767   5.989
41615SOL    HW226685   4.209  11.788   5.849
41616SOL     OW26686   3.651  12.422   3.008
41616SOL    HW126687   3.580  12.442   3.068
41616SOL    HW226688   3.655  12.497   2.949
41617SOL     OW26689   9.103   5.365   9.791
41617SOL    HW126690   9.147   5.341   9.873
41617SOL    HW226691   9.064   5.450   9.809
41618SOL     OW26692   9.286  13.745   4.271
41618SOL    HW126693   9.266  13.655   4.247
41618SOL    HW226694   9.374  13.742   4.307
41619SOL     OW26695  10.964   8.733   4.337
41619SOL    HW126696  11.017   8.669   4.290
41619SOL    HW226697  11.011   8.748   4.419
41620SOL     OW26698   6.102  10.388   1.139
41620SOL    HW126699   6.093  10.474   1.179
41620SOL    HW226700   6.183  10.353   1.174
41621SOL     OW26701  10.051  12.716   5.866
41621SOL    HW126702   9.977  12.662   5.840
41621SOL    HW226703  10.029  12.804   5.836
41622SOL     OW26704  11.245   1.485   2.833
41622SOL    HW126705  11.290   1.568   2.820
41622SOL    HW226706  11.210   1.463   2.746
41623SOL     OW26707   3.244   0.699  11.020
41623SOL    HW126708   3.257   0.674  10.929
41623SOL    HW226709   3.308   0.645  11.069
41624SOL     OW26710   1.830   5.126   9.531
41624SOL    HW126711   1.912   5.135   9.481
41624SOL    HW226712   1.761   5.143   9.467
41625SOL     OW26713  14.037  10.237  12.212
41625SOL    HW126714  14.009  10.327  12.229
41625SOL    HW226715  14.132  10.238  12.228
41626SOL     OW26716   1.797   5.906   8.553
41626SOL    HW126717   1.783   5.811   8.561
41626SOL    HW226718   1.744   5.931   8.478
41627SOL     OW26719  12.338   9.249  10.005
41627SOL    HW126720  12.256   9.212  10.037
41627SOL    HW226721  12.328   9.248   9.909
41628SOL     OW26722  10.363   0.746  11.513
41628SOL    HW126723  10.388   0.685  11.582
41628SOL    HW226724  10.433   0.811  11.511
41629SOL     OW26725   2.591  12.647   7.248
41629SOL    HW126726   2.552  12.581   7.305
41629SOL    HW226727   2.531  12.721   7.253
41630SOL     OW26728   7.891  11.756  14.325
41630SOL    HW126729   7.867  11.779  14.235
41630SOL    HW226730   7.909  11.662  14.322
41631SOL     OW26731  11.137  12.150   1.008
41631SOL    HW126732  11.058  12.098   0.995
41631SOL    HW226733  11.107  12.231   1.048
41632SOL     OW26734   3.349  13.340   2.286
41632SOL    HW126735   3.333  13.420   2.337
41632SOL    HW226736   3.331  13.269   2.346
41633SOL     OW26737   6.000  14.258   9.783
41633SOL    HW126738   6.036  14.177   9.746
41633SOL    HW226739   6.037  14.263   9.871
41634SOL     OW26740  14.776   5.784   6.900
41634SOL    HW126741  14.727   5.805   6.820
41634SOL    HW226742  14.861   5.825   6.888
41635SOL     OW26743   0.931  12.421  11.001
41635SOL    HW126744   0.999  12.360  10.972
41635SOL    HW226745   0.951  12.503  10.955
41636SOL     OW26746  14.020  13.847   1.682
41636SOL    HW126747  14.014  13.901   1.603
41636SOL    HW226748  14.087  13.782   1.661
41637SOL     OW26749  10.445   3.638   7.651
41637SOL    HW126750  10.370   3.697   7.649
41637SOL    HW226751  10.472   3.637   7.744
41638SOL     OW26752   0.425   5.777  11.343
41638SOL    HW126753   0.439   5.736  11.258
41638SOL    HW226754   0.467   5.862  11.337
41639SOL     OW26755   0.441   3.683  14.757
41639SOL    HW126756   0.393   3.618  14.706
41639SOL    HW226757   0.386   3.698  14.834
41640SOL     OW26758  12.876  14.673   7.401
41640SOL    HW126759  12.913  14.701   7.484
41640SOL    HW226760  12.806  14.612   7.425
41641SOL     OW26761   2.863   0.631   9.057
41641SOL    HW126762   2.822   0.717   9.060
41641SOL    HW226763   2.798   0.574   9.017
41642SOL     OW26764   7.888   2.323   3.450
41642SOL    HW126765   7.801   2.286   3.468
41642SOL    HW226766   7.894   2.398   3.508
41643SOL     OW26767   0.595   2.833   3.817
41643SOL    HW126768   0.546   2.888   3.755
41643SOL    HW226769   0.538   2.758   3.833
41644SOL     OW26770  14.759   4.233  14.668
41644SOL    HW126771  14.724   4.280  14.593
41644SOL    HW226772  14.729   4.283  14.744
41645SOL     OW26773  12.053  13.741  13.799
41645SOL    HW126774  11.987  13.690  13.846
41645SOL    HW226775  12.001  13.806  13.750
41646SOL     OW26776   6.598  13.242  14.096
41646SOL    HW126777   6.611  13.332  14.126
41646SOL    HW226778   6.552  13.199  14.167
41647SOL     OW26779   9.246   7.619  13.685
41647SOL    HW126780   9.176   7.683  13.695
41647SOL    HW226781   9.267   7.593  13.775
41648SOL     OW26782  14.067   5.647   0.353
41648SOL    HW126783  14.057   5.729   0.402
41648SOL    HW226784  14.055   5.578   0.419
41649SOL     OW26785  10.924   3.008   2.860
41649SOL    HW126786  10.994   2.943   2.853
41649SOL    HW226787  10.967   3.087   2.893
41650SOL     OW26788   0.344  12.593  11.054
41650SOL    HW126789   0.365  12.514  11.005
41650SOL    HW226790   0.392  12.662  11.009
41651SOL     OW26791   1.903   9.729   5.738
41651SOL    HW126792   1.818   9.770   5.723
41651SOL    HW226793   1.895   9.642   5.698
41652SOL     OW26794   9.263   8.725  12.538
41652SOL    HW126795   9.214   8.788  12.484
41652SOL    HW226796   9.329   8.778  12.582
41653SOL     OW26797   9.143  14.456  14.008
41653SOL    HW126798   9.110  14.381  13.958
41653SOL    HW226799   9.137  14.530  13.948
41654SOL     OW26800   7.981   5.014  12.778
41654SOL    HW126801   7.908   4.954  12.761
41654SOL    HW226802   7.999   5.004  12.871
41655SOL     OW26803   3.930  14.464   3.579
41655SOL    HW126804   3.887  14.383   3.553
41655SOL    HW226805   3.864  14.532   3.566
41656SOL     OW26806   2.205   9.305   8.476
41656SOL    HW126807   2.281   9.363   8.465
41656SOL    HW226808   2.194   9.265   8.390
41657SOL     OW26809   8.546  10.829   6.069
41657SOL    HW126810   8.634  10.843   6.035
41657SOL    HW226811   8.489  10.837   5.992
41658SOL     OW26812   0.063   6.041  13.544
41658SOL    HW126813  14.874   5.984  13.508
41658SOL    HW226814   0.086   6.000  13.628
41659SOL     OW26815   8.764   6.516   7.967
41659SOL    HW126816   8.721   6.481   7.889
41659SOL    HW226817   8.853   6.535   7.939
41660SOL     OW26818   7.579   3.396   0.854
41660SOL    HW126819   7.555   3.465   0.791
41660SOL    HW226820   7.495   3.360   0.883
41661SOL     OW26821  13.251  14.427   2.675
41661SOL    HW126822  13.345  14.438   2.662
41661SOL    HW226823  13.233  14.337   2.647
41662SOL     OW26824   6.109   5.100   8.740
41662SOL    HW126825   6.181   5.073   8.798
41662SOL    HW226826   6.138   5.075   8.653
41663SOL     OW26827   2.072   3.233   3.297
41663SOL    HW126828   1.995   3.235   3.239
41663SOL    HW226829   2.074   3.143   3.330
41664SOL     OW26830  13.607   0.145   4.305
41664SOL    HW126831  13.617   0.072   4.367
41664SOL    HW226832  13.512   0.160   4.301
41665SOL     OW26833   1.597   2.758   8.208
41665SOL    HW126834   1.664   2.727   8.147
41665SOL    HW226835   1.518   2.709   8.184
41666SOL     OW26836   8.200   9.275  13.367
41666SOL    HW126837   8.191   9.209  13.299
41666SOL    HW226838   8.134   9.341  13.347
41667SOL     OW26839  12.747  11.001   7.632
41667SOL    HW126840  12.802  10.950   7.572
41667SOL    HW226841  12.689  10.936   7.672
41668SOL     OW26842   1.921   7.332  13.653
41668SOL    HW126843   1.938   7.413  13.702
41668SOL    HW226844   1.944   7.353  13.563
41669SOL     OW26845  13.464   6.056   1.947
41669SOL    HW126846  13.415   6.122   1.898
41669SOL    HW226847  13.398   6.013   2.002
41670SOL     OW26848  14.321   9.190   0.289
41670SOL    HW126849  14.363   9.221   0.369
41670SOL    HW226850  14.297   9.099   0.307
41671SOL     OW26851  13.565   0.839  13.321
41671SOL    HW126852  13.528   0.772  13.379
41671SOL    HW226853  13.489   0.876  13.276
41672SOL     OW26854  12.158   8.071   0.881
41672SOL    HW126855  12.192   8.117   0.958
41672SOL    HW226856  12.207   8.106   0.807
41673SOL     OW26857  14.732   4.477  11.916
41673SOL    HW126858  14.665   4.542  11.932
41673SOL    HW226859  14.749   4.438  12.001
41674SOL     OW26860   5.189   6.296   9.921
41674SOL    HW126861   5.111   6.352   9.927
41674SOL    HW226862   5.202   6.284   9.827
41675SOL     OW26863   9.309   6.512   2.471
41675SOL    HW126864   9.312   6.422   2.438
41675SOL    HW226865   9.307   6.503   2.566
41676SOL     OW26866   6.950   0.458   9.924
41676SOL    HW126867   6.918   0.419  10.006
41676SOL    HW226868   6.919   0.548   9.927
41677SOL     OW26869   8.069  13.289   7.933
41677SOL    HW126870   8.086  13.350   7.862
41677SOL    HW226871   8.018  13.218   7.894
41678SOL     OW26872   2.510   4.689  10.288
41678SOL    HW126873   2.500   4.753  10.218
41678SOL    HW226874   2.521   4.606  10.242
41679SOL     OW26875   4.475   9.266   6.254
41679SOL    HW126876   4.500   9.185   6.299
41679SOL    HW226877   4.439   9.237   6.170
41680SOL     OW26878   1.699   6.045  13.251
41680SOL    HW126879   1.755   6.030  13.327
41680SOL    HW226880   1.749   6.010  13.177
41681SOL     OW26881   6.041   6.434   6.032
41681SOL    HW126882   5.995   6.382   5.966
41681SOL    HW226883   6.124   6.458   5.990
41682SOL     OW26884   2.735   1.971   9.826
41682SOL    HW126885   2.696   1.955   9.740
41682SOL    HW226886   2.661   1.989   9.883
41683SOL     OW26887   0.270   8.670  13.794
41683SOL    HW126888   0.193   8.703  13.840
41683SOL    HW226889   0.283   8.582  13.829
41684SOL     OW26890   0.772  12.645   3.629
41684SOL    HW126891   0.782  12.740   3.630
41684SOL    HW226892   0.838  12.615   3.566
41685SOL     OW26893   4.950  10.798  14.258
41685SOL    HW126894   4.934  10.857  14.331
41685SOL    HW226895   4.966  10.712  14.298
41686SOL     OW26896  13.998   1.005   2.028
41686SOL    HW126897  13.986   1.036   2.118
41686SOL    HW226898  14.039   1.079   1.983
41687SOL     OW26899   0.364  13.634   5.924
41687SOL    HW126900   0.292  13.617   5.984
41687SOL    HW226901   0.323  13.638   5.838
41688SOL     OW26902   9.259   4.428  12.561
41688SOL    HW126903   9.230   4.519  12.565
41688SOL    HW226904   9.300   4.412  12.646
41689SOL     OW26905   0.628   0.577   0.752
41689SOL    HW126906   0.674   0.534   0.824
41689SOL    HW226907   0.681   0.654   0.732
41690SOL     OW26908  12.702   0.476   5.805
41690SOL    HW126909  12.744   0.391   5.819
41690SOL    HW226910  12.623   0.472   5.859
41691SOL     OW26911   7.700  10.257   3.917
41691SOL    HW126912   7.626  10.221   3.867
41691SOL    HW226913   7.669  10.342   3.948
41692SOL     OW26914  12.095   9.447  10.194
41692SOL    HW126915  12.186   9.420  10.181
41692SOL    HW226916  12.045   9.365  10.184
41693SOL     OW26917   4.180   8.204   1.016
41693SOL    HW126918   4.092   8.167   1.016
41693SOL    HW226919   4.206   8.205   1.108
41694SOL     OW26920   9.388   3.782   1.805
41694SOL    HW126921   9.294   3.774   1.821
41694SOL    HW226922   9.423   3.823   1.884
41695SOL     OW26923   4.353   4.480   1.386
41695SOL    HW126924   4.285   4.432   1.338
41695SOL    HW226925   4.314   4.565   1.405
41696SOL     OW26926   1.701   4.288  10.538
41696SOL    HW126927   1.735   4.302  10.450
41696SOL    HW226928   1.778   4.295  10.595
41697SOL     OW26929  14.197   5.170  11.548
41697SOL    HW126930  14.109   5.156  11.583
41697SOL    HW226931  14.255   5.127  11.612
41698SOL     OW26932   4.714   7.654   8.973
41698SOL    HW126933   4.777   7.657   8.900
41698SOL    HW226934   4.662   7.734   8.962
41699SOL     OW26935  13.327  11.595   6.451
41699SOL    HW126936  13.365  11.520   6.406
41699SOL    HW226937  13.299  11.654   6.381
41700SOL     OW26938  13.533   4.461   8.229
41700SOL    HW126939  13.466   4.527   8.244
41700SOL    HW226940  13.612   4.497   8.270
41701SOL     OW26941   1.854   6.735  10.782
41701SOL    HW126942   1.821   6.777  10.861
41701SOL    HW226943   1.888   6.651  10.812
41702SOL     OW26944   3.028   9.764  14.285
41702SOL    HW126945   2.958   9.814  14.325
41702SOL    HW226946   3.104   9.823  14.285
41703SOL     OW26947  10.700   3.439  10.625
41703SOL    HW126948  10.777   3.495  10.624
41703SOL    HW226949  10.630   3.493  10.589
41704SOL     OW26950   3.949   3.941   2.031
41704SOL    HW126951   3.885   3.894   1.978
41704SOL    HW226952   3.926   3.918   2.121
41705SOL     OW26953   3.200   2.995   6.883
41705SOL    HW126954   3.128   3.044   6.921
41705SOL    HW226955   3.278   3.048   6.901
41706SOL     OW26956  11.166   7.435  12.920
41706SOL    HW126957  11.256   7.466  12.907
41706SOL    HW226958  11.158   7.358  12.864
41707SOL     OW26959   7.510  13.625   1.781
41707SOL    HW126960   7.422  13.651   1.807
41707SOL    HW226961   7.508  13.530   1.779
41708SOL     OW26962   7.607   3.244  14.701
41708SOL    HW126963   7.593   3.171  14.641
41708SOL    HW226964   7.579   3.211  14.787
41709SOL     OW26965   3.210  12.663   1.182
41709SOL    HW126966   3.209  12.576   1.223
41709SOL    HW226967   3.248  12.648   1.095
41710SOL     OW26968   1.499   7.866   8.043
41710SOL    HW126969   1.476   7.810   8.116
41710SOL    HW226970   1.594   7.874   8.047
41711SOL     OW26971   9.839  11.033   0.640
41711SOL    HW126972   9.834  10.942   0.610
41711SOL    HW226973   9.775  11.038   0.711
41712SOL     OW26974   9.488  14.554  10.092
41712SOL    HW126975   9.449  14.470  10.115
41712SOL    HW226976   9.518  14.591  10.175
41713SOL     OW26977   0.834   7.059  10.121
41713SOL    HW126978   0.872   7.142  10.094
41713SOL    HW226979   0.854   7.053  10.215
41714SOL     OW26980   3.937  12.294   4.937
41714SOL    HW126981   4.013  12.343   4.907
41714SOL    HW226982   3.899  12.348   5.007
41715SOL     OW26983   2.277  14.300   1.822
41715SOL    HW126984   2.333  14.377   1.812
41715SOL    HW226985   2.188  14.335   1.825
41716SOL     OW26986  13.126   6.036   1.277
41716SOL    HW126987  13.205   6.015   1.327
41716SOL    HW226988  13.140   6.125   1.246
41717SOL     OW26989   0.910   1.033   3.622
41717SOL    HW126990   0.940   1.116   3.585
41717SOL    HW226991   0.991   0.990   3.652
41718SOL     OW26992   3.626  10.760  12.365
41718SOL    HW126993   3.646  10.853  12.375
41718SOL    HW226994   3.712  10.718  12.353
41719SOL     OW26995  10.476  13.505  10.043
41719SOL    HW126996  10.546  13.571  10.039
41719SOL    HW226997  10.522  13.422  10.037
41720SOL     OW26998   7.201   6.033   9.724
41720SOL    HW126999   7.291   6.063   9.711
41720SOL    HW227000   7.179   6.062   9.812
41721SOL     OW27001  12.221  12.770  10.975
41721SOL    HW127002  12.304  12.812  10.999
41721SOL    HW227003  12.234  12.677  10.994
41722SOL     OW27004   5.817   6.800   3.348
41722SOL    HW127005   5.893   6.759   3.307
41722SOL    HW227006   5.781   6.734   3.406
41723SOL     OW27007  11.486   8.270  14.572
41723SOL    HW127008  11.449   8.355  14.599
41723SOL    HW227009  11.445   8.252  14.488
41724SOL     OW27010  12.197  13.471   8.468
41724SOL    HW127011  12.268  13.529   8.494
41724SOL    HW227012  12.159  13.440   8.550
41725SOL     OW27013   0.506   3.086   1.988
41725SOL    HW127014   0.533   3.178   1.999
41725SOL    HW227015   0.444   3.071   2.059
41726SOL     OW27016   9.460   9.800   8.853
41726SOL    HW127017   9.423   9.756   8.929
41726SOL    HW227018   9.397   9.786   8.784
41727SOL     OW27019  12.072   4.980   0.147
41727SOL    HW127020  12.116   5.034   0.081
41727SOL    HW227021  12.128   4.903   0.157
41728SOL     OW27022   8.309   7.742  14.201
41728SOL    HW127023   8.303   7.663  14.255
41728SOL    HW227024   8.389   7.786  14.233
41729SOL     OW27025  13.112  10.767  10.255
41729SOL    HW127026  13.037  10.802  10.208
41729SOL    HW227027  13.100  10.672  10.251
41730SOL     OW27028   1.728  13.666   9.198
41730SOL    HW127029   1.658  13.606   9.221
41730SOL    HW227030   1.689  13.753   9.205
41731SOL     OW27031   6.898  12.730  10.919
41731SOL    HW127032   6.817  12.751  10.873
41731SOL    HW227033   6.927  12.647  10.880
41732SOL     OW27034   3.019   8.605   6.996
41732SOL    HW127035   3.020   8.542   7.069
41732SOL    HW227036   3.107   8.644   6.998
41733SOL     OW27037  11.628   2.102   7.347
41733SOL    HW127038  11.649   2.023   7.396
41733SOL    HW227039  11.534   2.114   7.361
41734SOL     OW27040  11.737   3.452   3.147
41734SOL    HW127041  11.720   3.519   3.081
41734SOL    HW227042  11.654   3.406   3.157
41735SOL     OW27043   1.109   8.568   8.818
41735SOL    HW127044   1.185   8.613   8.781
41735SOL    HW227045   1.146   8.503   8.877
41736SOL     OW27046   6.519   6.212   7.603
41736SOL    HW127047   6.543   6.237   7.692
41736SOL    HW227048   6.488   6.293   7.563
41737SOL     OW27049   7.020   7.216  11.955
41737SOL    HW127050   7.056   7.128  11.968
41737SOL    HW227051   7.050   7.241  11.868
41738SOL     OW27052  11.535  13.916   7.098
41738SOL    HW127053  11.476  13.906   7.023
41738SOL    HW227054  11.621  13.931   7.060
41739SOL     OW27055  10.649   8.806   9.297
41739SOL    HW127056  10.598   8.789   9.376
41739SOL    HW227057  10.658   8.720   9.256
41740SOL     OW27058  13.252  12.020  13.488
41740SOL    HW127059  13.193  12.092  13.467
41740SOL    HW227060  13.315  12.018  13.416
41741SOL     OW27061  12.545   8.725   2.591
41741SOL    HW127062  12.531   8.739   2.497
41741SOL    HW227063  12.521   8.808   2.632
41742SOL     OW27064   0.158   2.265   9.900
41742SOL    HW127065   0.243   2.257   9.945
41742SOL    HW227066   0.101   2.203   9.944
41743SOL     OW27067   4.178   7.474  11.554
41743SOL    HW127068   4.086   7.487  11.530
41743SOL    HW227069   4.227   7.527  11.490
41744SOL     OW27070  14.366   9.367   5.914
41744SOL    HW127071  14.378   9.460   5.899
41744SOL    HW227072  14.271   9.354   5.913
41745SOL     OW27073   3.562   4.369   7.330
41745SOL    HW127074   3.613   4.371   7.411
41745SOL    HW227075   3.627   4.378   7.261
41746SOL     OW27076  12.702   2.836   8.101
41746SOL    HW127077  12.615   2.869   8.079
41746SOL    HW227078  12.729   2.886   8.178
41747SOL     OW27079   2.489  11.268   4.293
41747SOL    HW127080   2.401  11.254   4.329
41747SOL    HW227081   2.515  11.354   4.326
41748SOL     OW27082   9.860   8.244   7.424
41748SOL    HW127083   9.923   8.229   7.354
41748SOL    HW227084   9.792   8.299   7.384
41749SOL     OW27085   1.853  11.113   4.443
41749SOL    HW127086   1.858  11.068   4.358
41749SOL    HW227087   1.866  11.043   4.507
41750SOL     OW27088  11.242   5.007   1.158
41750SOL    HW127089  11.255   4.947   1.231
41750SOL    HW227090  11.252   4.952   1.080
41751SOL     OW27091   2.026   6.839   9.798
41751SOL    HW127092   2.018   6.817   9.890
41751SOL    HW227093   2.084   6.773   9.761
41752SOL     OW27094   0.935   5.721   5.676
41752SOL    HW127095   0.862   5.695   5.621
41752SOL    HW227096   0.917   5.811   5.701
41753SOL     OW27097  12.640  11.740   6.243
41753SOL    HW127098  12.590  11.664   6.216
41753SOL    HW227099  12.675  11.777   6.162
41754SOL     OW27100  11.528   8.789   5.124
41754SOL    HW127101  11.570   8.801   5.209
41754SOL    HW227102  11.596   8.811   5.060
41755SOL     OW27103   6.373   4.095   5.678
41755SOL    HW127104   6.402   4.152   5.607
41755SOL    HW227105   6.283   4.122   5.696
41756SOL     OW27106   5.769  12.495   2.138
41756SOL    HW127107   5.799  12.406   2.157
41756SOL    HW227108   5.694  12.509   2.196
41757SOL     OW27109   2.838  13.572  11.751
41757SOL    HW127110   2.915  13.588  11.804
41757SOL    HW227111   2.865  13.504  11.689
41758SOL     OW27112   9.114   6.828  13.314
41758SOL    HW127113   9.136   6.893  13.248
41758SOL    HW227114   9.039   6.781  13.278
41759SOL     OW27115   5.338  12.692   1.238
41759SOL    HW127116   5.261  12.690   1.180
41759SOL    HW227117   5.337  12.606   1.281
41760SOL     OW27118   0.866  10.133  13.341
41760SOL    HW127119   0.788  10.175  13.378
41760SOL    HW227120   0.873  10.169  13.253
41761SOL     OW27121   7.316   7.241   5.547
41761SOL    HW127122   7.292   7.209   5.634
41761SOL    HW227123   7.310   7.163   5.491
41762SOL     OW27124   6.952  10.947  10.403
41762SOL    HW127125   6.975  10.857  10.379
41762SOL    HW227126   6.994  11.001  10.336
41763SOL     OW27127   1.862  11.462  11.601
41763SOL    HW127128   1.815  11.402  11.659
41763SOL    HW227129   1.810  11.465  11.521
41764SOL     OW27130  12.822  14.293   9.816
41764SOL    HW127131  12.872  14.264   9.893
41764SOL    HW227132  12.880  14.275   9.742
41765SOL     OW27133  12.046  14.853   1.749
41765SOL    HW127134  11.980   0.043   1.745
41765SOL    HW227135  12.081  14.849   1.660
41766SOL     OW27136  12.545   6.917   7.720
41766SOL    HW127137  12.543   6.829   7.682
41766SOL    HW227138  12.637   6.931   7.743
41767SOL     OW27139   9.269   8.738   1.949
41767SOL    HW127140   9.277   8.666   1.886
41767SOL    HW227141   9.349   8.790   1.936
41768SOL     OW27142  10.603  12.851  14.268
41768SOL    HW127143  10.583  12.944  14.275
41768SOL    HW227144  10.603  12.833  14.174
41769SOL     OW27145   3.771  13.369   7.820
41769SOL    HW127146   3.847  13.414   7.856
41769SOL    HW227147   3.805  13.324   7.742
41770SOL     OW27148   5.483   0.324  14.198
41770SOL    HW127149   5.558   0.322  14.256
41770SOL    HW227150   5.469   0.416  14.179
41771SOL     OW27151   6.459   9.684   8.995
41771SOL    HW127152   6.386   9.667   9.054
41771SOL    HW227153   6.524   9.729   9.050
41772SOL     OW27154   9.702   9.646   0.880
41772SOL    HW127155   9.665   9.611   0.799
41772SOL    HW227156   9.764   9.578   0.908
41773SOL     OW27157   7.924   3.420   3.208
41773SOL    HW127158   7.944   3.513   3.206
41773SOL    HW227159   7.946   3.388   3.121
41774SOL     OW27160  11.221  14.396   2.749
41774SOL    HW127161  11.225  14.492   2.754
41774SOL    HW227162  11.262  14.366   2.830
41775SOL     OW27163   6.856   0.573  12.599
41775SOL    HW127164   6.904   0.632  12.541
41775SOL    HW227165   6.846   0.492  12.549
41776SOL     OW27166   1.629   8.234  10.852
41776SOL    HW127167   1.651   8.151  10.811
41776SOL    HW227168   1.709   8.261  10.897
41777SOL     OW27169   8.622  13.675   3.865
41777SOL    HW127170   8.603  13.769   3.866
41777SOL    HW227171   8.707  13.667   3.908
41778SOL     OW27172   1.574   1.250   4.175
41778SOL    HW127173   1.564   1.311   4.248
41778SOL    HW227174   1.657   1.205   4.193
41779SOL     OW27175   1.374  13.310   1.842
41779SOL    HW127176   1.365  13.228   1.891
41779SOL    HW227177   1.397  13.375   1.909
41780SOL     OW27178  12.590  10.009   4.741
41780SOL    HW127179  12.625  10.094   4.770
41780SOL    HW227180  12.513  10.032   4.688
41781SOL     OW27181  13.269   5.826  10.844
41781SOL    HW127182  13.272   5.748  10.901
41781SOL    HW227183  13.345   5.877  10.871
41782SOL     OW27184   9.726  10.662   3.585
41782SOL    HW127185   9.708  10.603   3.658
41782SOL    HW227186   9.750  10.745   3.627
41783SOL     OW27187   0.238   4.589   6.340
41783SOL    HW127188   0.301   4.641   6.389
41783SOL    HW227189   0.290   4.544   6.273
41784SOL     OW27190   1.110  14.101   4.866
41784SOL    HW127191   1.034  14.063   4.912
41784SOL    HW227192   1.153  14.156   4.931
41785SOL     OW27193   4.768   3.943  11.131
41785SOL    HW127194   4.680   3.925  11.098
41785SOL    HW227195   4.756   3.961  11.224
41786SOL     OW27196   6.144   6.067   1.268
41786SOL    HW127197   6.214   6.016   1.227
41786SOL    HW227198   6.184   6.153   1.283
41787SOL     OW27199   9.631   5.011   6.881
41787SOL    HW127200   9.690   5.086   6.886
41787SOL    HW227201   9.561   5.039   6.823
41788SOL     OW27202   2.230   7.051   3.445
41788SOL    HW127203   2.194   6.990   3.509
41788SOL    HW227204   2.165   7.122   3.440
41789SOL     OW27205  11.511   0.860   9.294
41789SOL    HW127206  11.434   0.848   9.349
41789SOL    HW227207  11.530   0.772   9.261
41790SOL     OW27208   4.438   3.308   2.532
41790SOL    HW127209   4.393   3.236   2.576
41790SOL    HW227210   4.376   3.381   2.537
41791SOL     OW27211   5.749   7.937   3.813
41791SOL    HW127212   5.681   7.885   3.771
41791SOL    HW227213   5.758   7.899   3.901
41792SOL     OW27214   0.027  11.096   4.355
41792SOL    HW127215   0.110  11.090   4.307
41792SOL    HW227216   0.012  11.190   4.365
41793SOL     OW27217  14.693   6.115  10.695
41793SOL    HW127218  14.786   6.113  10.718
41793SOL    HW227219  14.660   6.031  10.727
41794SOL     OW27220   0.319   5.493  13.258
41794SOL    HW127221   0.334   5.400  13.245
41794SOL    HW227222   0.360   5.535  13.182
41795SOL     OW27223   1.653   8.826   6.569
41795SOL    HW127224   1.612   8.768   6.633
41795SOL    HW227225   1.612   8.911   6.584
41796SOL     OW27226  13.958   9.946   9.831
41796SOL    HW127227  13.924   9.870   9.784
41796SOL    HW227228  14.053   9.944   9.815
41797SOL     OW27229   4.406   8.329  10.086
41797SOL    HW127230   4.450   8.308  10.004
41797SOL    HW227231   4.360   8.249  10.111
41798SOL     OW27232   0.573  13.625  13.385
41798SOL    HW127233   0.525  13.630  13.467
41798SOL    HW227234   0.650  13.680  13.397
41799SOL     OW27235   7.602  13.548   9.135
41799SOL    HW127236   7.656  13.494   9.192
41799SOL    HW227237   7.512  13.518   9.151
41800SOL     OW27238   0.014   7.248   1.707
41800SOL    HW127239  14.835   7.251   1.783
41800SOL    HW227240   0.044   7.338   1.696
41801SOL     OW27241   0.371  12.155   0.656
41801SOL    HW127242   0.453  12.124   0.696
41801SOL    HW227243   0.330  12.076   0.621
41802SOL     OW27244  10.330  13.335  14.330
41802SOL    HW127245  10.332  13.373  14.419
41802SOL    HW227246  10.244  13.357  14.296
41803SOL     OW27247   5.299   0.975   7.637
41803SOL    HW127248   5.355   0.941   7.707
41803SOL    HW227249   5.222   1.010   7.683
41804SOL     OW27250   9.358   2.111   2.611
41804SOL    HW127251   9.338   2.018   2.598
41804SOL    HW227252   9.398   2.138   2.529
41805SOL     OW27253   0.912  12.091  11.493
41805SOL    HW127254   0.853  12.092  11.418
41805SOL    HW227255   0.965  12.170  11.483
41806SOL     OW27256   9.253  10.513  14.850
41806SOL    HW127257   9.188  10.531  14.783
41806SOL    HW227258   9.311  10.590  14.849
41807SOL     OW27259   0.080   3.530   3.006
41807SOL    HW127260   0.043   3.451   2.966
41807SOL    HW227261   0.005   3.577   3.041
41808SOL     OW27262  10.281  14.603  10.438
41808SOL    HW127263  10.268  14.548  10.514
41808SOL    HW227264  10.354  14.660  10.461
41809SOL     OW27265   9.461   9.301   3.422
41809SOL    HW127266   9.501   9.225   3.378
41809SOL    HW227267   9.512   9.311   3.502
41810SOL     OW27268   3.681   7.644   1.997
41810SOL    HW127269   3.670   7.551   2.021
41810SOL    HW227270   3.622   7.656   1.922
41811SOL     OW27271  14.797   7.986   7.622
41811SOL    HW127272  14.738   8.019   7.690
41811SOL    HW227273  14.819   8.064   7.570
41812SOL     OW27274   5.531   3.781   2.989
41812SOL    HW127275   5.487   3.865   3.001
41812SOL    HW227276   5.579   3.768   3.071
41813SOL     OW27277  11.670  12.109   8.849
41813SOL    HW127278  11.575  12.108   8.862
41813SOL    HW227279  11.681  12.103   8.754
41814SOL     OW27280   5.648   1.885  12.876
41814SOL    HW127281   5.709   1.929  12.817
41814SOL    HW227282   5.562   1.919  12.850
41815SOL     OW27283  14.674   6.034   2.643
41815SOL    HW127284  14.651   5.943   2.624
41815SOL    HW227285  14.728   6.061   2.569
41816SOL     OW27286   5.265  14.866   0.280
41816SOL    HW127287   5.215  14.870   0.362
41816SOL    HW227288   5.349   0.028   0.301
41817SOL     OW27289  14.649  14.704   5.855
41817SOL    HW127290  14.649  14.793   5.889
41817SOL    HW227291  14.730  14.698   5.803
41818SOL     OW27292   7.349   5.717   0.231
41818SOL    HW127293   7.375   5.693   0.320
41818SOL    HW227294   7.429   5.748   0.190
41819SOL     OW27295   6.303  14.012  12.269
41819SOL    HW127296   6.247  14.068  12.323
41819SOL    HW227297   6.251  13.934  12.253
41820SOL     OW27298   1.600   7.248  13.786
41820SOL    HW127299   1.520   7.219  13.829
41820SOL    HW227300   1.601   7.203  13.702
41821SOL     OW27301   5.098   1.915   8.042
41821SOL    HW127302   5.120   1.889   8.131
41821SOL    HW227303   5.169   1.973   8.015
41822SOL     OW27304   7.599   3.501  14.740
41822SOL    HW127305   7.614   3.482  14.833
41822SOL    HW227306   7.600   3.416  14.698
41823SOL     OW27307   0.494  12.867   7.937
41823SOL    HW127308   0.570  12.911   7.973
41823SOL    HW227309   0.458  12.818   8.011
41824SOL     OW27310   7.353   0.284   1.882
41824SOL    HW127311   7.258   0.296   1.877
41824SOL    HW227312   7.372   0.284   1.976
41825SOL     OW27313   7.868  14.864  10.730
41825SOL    HW127314   7.827   0.001  10.815
41825SOL    HW227315   7.956  14.834  10.752
41826SOL     OW27316   8.223  13.360   6.856
41826SOL    HW127317   8.240  13.454   6.850
41826SOL    HW227318   8.307  13.319   6.836
41827SOL     OW27319   9.056  14.529  11.110
41827SOL    HW127320   9.125  14.481  11.156
41827SOL    HW227321   9.048  14.486  11.026
41828SOL     OW27322   6.116  13.503  10.036
41828SOL    HW127323   6.180  13.433  10.050
41828SOL    HW227324   6.091  13.531  10.124
41829SOL     OW27325   7.464   6.609   1.686
41829SOL    HW127326   7.484   6.621   1.779
41829SOL    HW227327   7.378   6.650   1.675
41830SOL     OW27328   1.302  12.483   7.354
41830SOL    HW127329   1.357  12.412   7.318
41830SOL    HW227330   1.343  12.504   7.438
41831SOL     OW27331  12.832   9.751   5.854
41831SOL    HW127332  12.808   9.817   5.788
41831SOL    HW227333  12.927   9.744   5.846
41832SOL     OW27334   2.463  13.730   1.211
41832SOL    HW127335   2.422  13.770   1.287
41832SOL    HW227336   2.524  13.666   1.248
41833SOL     OW27337  10.875   1.656   5.920
41833SOL    HW127338  10.866   1.563   5.940
41833SOL    HW227339  10.927   1.692   5.992
41834SOL     OW27340  13.558   7.585   5.226
41834SOL    HW127341  13.572   7.634   5.144
41834SOL    HW227342  13.620   7.625   5.288
41835SOL     OW27343   9.342  14.569   2.421
41835SOL    HW127344   9.303  14.494   2.466
41835SOL    HW227345   9.297  14.573   2.337
41836SOL     OW27346   0.277   9.656   2.968
41836SOL    HW127347   0.184   9.677   2.971
41836SOL    HW227348   0.318   9.735   2.932
41837SOL     OW27349   3.124   3.370   5.787
41837SOL    HW127350   3.110   3.457   5.825
41837SOL    HW227351   3.036   3.337   5.769
41838SOL     OW27352   9.028  13.682   3.819
41838SOL    HW127353   8.975  13.704   3.896
41838SOL    HW227354   9.063  13.596   3.838
41839SOL     OW27355   1.683   6.789  11.026
41839SOL    HW127356   1.654   6.830  11.107
41839SOL    HW227357   1.620   6.719  11.011
41840SOL     OW27358   4.753   6.723   9.111
41840SOL    HW127359   4.693   6.730   9.185
41840SOL    HW227360   4.697   6.720   9.034
41841SOL     OW27361   5.977  10.007   7.722
41841SOL    HW127362   6.049   9.956   7.760
41841SOL    HW227363   5.898   9.960   7.749
41842SOL     OW27364  11.802   5.141  14.184
41842SOL    HW127365  11.877   5.179  14.139
41842SOL    HW227366  11.839   5.090  14.255
41843SOL     OW27367   4.337   6.798   1.476
41843SOL    HW127368   4.400   6.738   1.517
41843SOL    HW227369   4.340   6.777   1.383
41844SOL     OW27370  12.480  14.320   2.555
41844SOL    HW127371  12.502  14.376   2.481
41844SOL    HW227372  12.503  14.232   2.526
41845SOL     OW27373  11.185  14.197   8.213
41845SOL    HW127374  11.118  14.241   8.161
41845SOL    HW227375  11.138  14.132   8.264
41846SOL     OW27376   0.482   4.612   5.439
41846SOL    HW127377   0.444   4.700   5.444
41846SOL    HW227378   0.412   4.553   5.465
41847SOL     OW27379   9.709   6.455  11.529
41847SOL    HW127380   9.615   6.443  11.546
41847SOL    HW227381   9.738   6.371  11.494
41848SOL     OW27382   2.243   0.170   9.303
41848SOL    HW127383   2.284   0.240   9.253
41848SOL    HW227384   2.305   0.152   9.374
41849SOL     OW27385   5.047   5.821   9.407
41849SOL    HW127386   4.993   5.898   9.422
41849SOL    HW227387   5.004   5.751   9.457
41850SOL     OW27388   5.764   7.437  14.214
41850SOL    HW127389   5.675   7.423  14.182
41850SOL    HW227390   5.802   7.500  14.152
41851SOL     OW27391   1.940   3.004   6.360
41851SOL    HW127392   1.861   3.003   6.414
41851SOL    HW227393   1.910   2.982   6.272
41852SOL     OW27394   9.714   3.936   9.270
41852SOL    HW127395   9.701   3.846   9.243
41852SOL    HW227396   9.717   3.986   9.189
41853SOL     OW27397  13.355   0.197   5.905
41853SOL    HW127398  13.318   0.268   5.852
41853SOL    HW227399  13.436   0.234   5.941
41854SOL     OW27400  13.712   6.727   6.730
41854SOL    HW127401  13.808   6.733   6.730
41854SOL    HW227402  13.693   6.645   6.685
41855SOL     OW27403   0.686   9.553  14.845
41855SOL    HW127404   0.627   9.619  14.809
41855SOL    HW227405   0.672   9.558   0.060
41856SOL     OW27406   8.152   4.517  12.860
41856SOL    HW127407   8.057   4.533  12.864
41856SOL    HW227408   8.169   4.503  12.767
41857SOL     OW27409   4.854   9.953   9.197
41857SOL    HW127410   4.809  10.004   9.264
41857SOL    HW227411   4.926   9.910   9.244
41858SOL     OW27412   2.370   8.629  10.603
41858SOL    HW127413   2.429   8.681  10.548
41858SOL    HW227414   2.406   8.541  10.600
41859SOL     OW27415  12.496  13.935   5.706
41859SOL    HW127416  12.550  14.005   5.743
41859SOL    HW227417  12.504  13.863   5.768
41860SOL     OW27418   9.934   2.363   6.556
41860SOL    HW127419  10.014   2.357   6.504
41860SOL    HW227420   9.873   2.412   6.500
41861SOL     OW27421   1.166   6.843  10.930
41861SOL    HW127422   1.082   6.882  10.904
41861SOL    HW227423   1.145   6.752  10.951
41862SOL     OW27424   7.545  13.747   3.051
41862SOL    HW127425   7.539  13.790   2.965
41862SOL    HW227426   7.471  13.686   3.051
41863SOL     OW27427   4.329   2.919   2.961
41863SOL    HW127428   4.286   2.842   2.924
41863SOL    HW227429   4.258   2.968   3.003
41864SOL     OW27430   3.054   5.574  13.013
41864SOL    HW127431   3.026   5.650  13.063
41864SOL    HW227432   3.118   5.530  13.070
41865SOL     OW27433   1.268   0.748  11.065
41865SOL    HW127434   1.359   0.745  11.096
41865SOL    HW227435   1.255   0.839  11.038
41866SOL     OW27436   7.545  11.641   6.365
41866SOL    HW127437   7.504  11.573   6.311
41866SOL    HW227438   7.595  11.592   6.430
41867SOL     OW27439   2.476  10.340   3.943
41867SOL    HW127440   2.447  10.430   3.927
41867SOL    HW227441   2.553  10.330   3.888
41868SOL     OW27442  14.428  14.372   1.589
41868SOL    HW127443  14.359  14.438   1.593
41868SOL    HW227444  14.391  14.303   1.534
41869SOL     OW27445   6.050   2.573   0.183
41869SOL    HW127446   6.136   2.562   0.225
41869SOL    HW227447   6.067   2.632   0.109
41870SOL     OW27448   2.917  12.037  11.009
41870SOL    HW127449   3.007  12.011  10.992
41870SOL    HW227450   2.867  12.005  10.934
41871SOL     OW27451   5.664   0.678  12.791
41871SOL    HW127452   5.590   0.718  12.745
41871SOL    HW227453   5.741   0.716  12.750
41872SOL     OW27454   5.336   5.360   4.919
41872SOL    HW127455   5.407   5.310   4.878
41872SOL    HW227456   5.325   5.437   4.863
41873SOL     OW27457   2.097   1.903   1.156
41873SOL    HW127458   2.028   1.842   1.133
41873SOL    HW227459   2.120   1.882   1.246
41874SOL     OW27460   0.034   9.490   9.824
41874SOL    HW127461   0.009   9.580   9.845
41874SOL    HW227462   0.126   9.496   9.799
41875SOL     OW27463   8.280   0.035   1.659
41875SOL    HW127464   8.274  14.844   1.595
41875SOL    HW227465   8.355   0.087   1.630
41876SOL     OW27466   3.239   7.125   8.136
41876SOL    HW127467   3.152   7.099   8.167
41876SOL    HW227468   3.296   7.114   8.213
41877SOL     OW27469   6.906   4.768   1.533
41877SOL    HW127470   6.988   4.778   1.581
41877SOL    HW227471   6.844   4.824   1.579
41878SOL     OW27472   1.644   3.035  13.258
41878SOL    HW127473   1.738   3.054  13.257
41878SOL    HW227474   1.627   3.006  13.347
41879SOL     OW27475   4.593   1.518   1.664
41879SOL    HW127476   4.532   1.492   1.595
41879SOL    HW227477   4.565   1.606   1.688
41880SOL     OW27478   6.133   5.263  14.732
41880SOL    HW127479   6.123   5.275  14.826
41880SOL    HW227480   6.228   5.259  14.718
41881SOL     OW27481   6.734  12.571  14.259
41881SOL    HW127482   6.673  12.574  14.332
41881SOL    HW227483   6.802  12.508  14.286
41882SOL     OW27484   1.876  13.132  13.293
41882SOL    HW127485   1.812  13.072  13.330
41882SOL    HW227486   1.851  13.140  13.201
41883SOL     OW27487  12.354   6.623   1.497
41883SOL    HW127488  12.430   6.630   1.555
41883SOL    HW227489  12.375   6.550   1.439
41884SOL     OW27490  10.563   0.053   9.872
41884SOL    HW127491  10.515   0.038   9.953
41884SOL    HW227492  10.590  14.845   9.844
41885SOL     OW27493   2.278  11.315   1.292
41885SOL    HW127494   2.362  11.286   1.257
41885SOL    HW227495   2.298  11.342   1.382
41886SOL     OW27496   8.304   3.768   5.725
41886SOL    HW127497   8.399   3.763   5.740
41886SOL    HW227498   8.292   3.844   5.668
41887SOL     OW27499  11.505   1.246   8.293
41887SOL    HW127500  11.521   1.158   8.327
41887SOL    HW227501  11.592   1.285   8.287
41888SOL     OW27502  10.859   1.500   9.153
41888SOL    HW127503  10.900   1.578   9.190
41888SOL    HW227504  10.869   1.433   9.222
41889SOL     OW27505   1.126   5.478  14.007
41889SOL    HW127506   1.105   5.571  14.011
41889SOL    HW227507   1.221   5.474  14.011
41890SOL     OW27508  14.477  14.545   6.710
41890SOL    HW127509  14.504  14.636   6.722
41890SOL    HW227510  14.545  14.506   6.655
41891SOL     OW27511  10.683   7.333  10.588
41891SOL    HW127512  10.750   7.389  10.626
41891SOL    HW227513  10.722   7.300  10.507
41892SOL     OW27514   6.151  11.173  13.557
41892SOL    HW127515   6.145  11.189  13.463
41892SOL    HW227516   6.127  11.080  13.567
41893SOL     OW27517   7.093   1.726  10.866
41893SOL    HW127518   7.097   1.715  10.771
41893SOL    HW227519   7.013   1.776  10.881
41894SOL     OW27520  13.811  11.097   7.218
41894SOL    HW127521  13.774  11.164   7.160
41894SOL    HW227522  13.840  11.028   7.158
41895SOL     OW27523   5.627   8.221   7.484
41895SOL    HW127524   5.719   8.244   7.497
41895SOL    HW227525   5.600   8.185   7.569
41896SOL     OW27526  10.184   4.599   0.124
41896SOL    HW127527  10.164   4.505   0.126
41896SOL    HW227528  10.121   4.635   0.061
41897SOL     OW27529   0.539   2.296  14.210
41897SOL    HW127530   0.596   2.245  14.151
41897SOL    HW227531   0.457   2.246  14.212
41898SOL     OW27532  11.075   4.908  12.472
41898SOL    HW127533  11.116   4.823  12.456
41898SOL    HW227534  11.023   4.924  12.393
41899SOL     OW27535  14.678   6.381   2.215
41899SOL    HW127536  14.702   6.404   2.125
41899SOL    HW227537  14.753   6.411   2.267
41900SOL     OW27538   0.296   1.243   1.786
41900SOL    HW127539   0.359   1.218   1.853
41900SOL    HW227540   0.212   1.210   1.818
41901SOL     OW27541   6.582   6.743   6.277
41901SOL    HW127542   6.648   6.754   6.345
41901SOL    HW227543   6.507   6.703   6.322
41902SOL     OW27544   1.455   0.308   4.119
41902SOL    HW127545   1.501   0.237   4.164
41902SOL    HW227546   1.464   0.383   4.178
41903SOL     OW27547  12.962   4.650  11.692
41903SOL    HW127548  13.044   4.623  11.731
41903SOL    HW227549  12.914   4.568  11.677
41904SOL     OW27550   2.766  12.773   5.800
41904SOL    HW127551   2.703  12.844   5.810
41904SOL    HW227552   2.722  12.708   5.745
41905SOL     OW27553  13.993   7.375   6.818
41905SOL    HW127554  13.901   7.369   6.844
41905SOL    HW227555  14.000   7.316   6.743
41906SOL     OW27556   4.754   7.552  14.163
41906SOL    HW127557   4.802   7.586  14.239
41906SOL    HW227558   4.798   7.591  14.088
41907SOL     OW27559   7.023   2.418   6.810
41907SOL    HW127560   7.045   2.330   6.841
41907SOL    HW227561   7.071   2.477   6.867
41908SOL     OW27562   4.425  11.514   3.280
41908SOL    HW127563   4.462  11.485   3.363
41908SOL    HW227564   4.500  11.546   3.230
41909SOL     OW27565  10.300   9.984   3.476
41909SOL    HW127566  10.300   9.968   3.381
41909SOL    HW227567  10.390   9.971   3.503
41910SOL     OW27568  10.504   5.093   9.116
41910SOL    HW127569  10.414   5.125   9.115
41910SOL    HW227570  10.556   5.170   9.141
41911SOL     OW27571   0.455  13.808  14.618
41911SOL    HW127572   0.523  13.875  14.619
41911SOL    HW227573   0.455  13.774  14.529
41912SOL     OW27574   9.965  13.022  11.784
41912SOL    HW127575  10.027  12.950  11.794
41912SOL    HW227576   9.953  13.057  11.873
41913SOL     OW27577   7.435   8.737   0.422
41913SOL    HW127578   7.474   8.824   0.422
41913SOL    HW227579   7.346   8.749   0.456
41914SOL     OW27580   7.097   8.706  14.612
41914SOL    HW127581   7.077   8.795  14.582
41914SOL    HW227582   7.011   8.670  14.636
41915SOL     OW27583   3.831   1.689   4.308
41915SOL    HW127584   3.917   1.730   4.314
41915SOL    HW227585   3.849   1.595   4.301
41916SOL     OW27586   0.321   9.757   6.472
41916SOL    HW127587   0.391   9.694   6.458
41916SOL    HW227588   0.289   9.739   6.560
41917SOL     OW27589   8.220   3.912   8.730
41917SOL    HW127590   8.225   4.001   8.695
41917SOL    HW227591   8.298   3.868   8.694
41918SOL     OW27592  14.518   6.899   4.569
41918SOL    HW127593  14.608   6.931   4.577
41918SOL    HW227594  14.486   6.893   4.659
41919SOL     OW27595   0.937   7.935   2.929
41919SOL    HW127596   0.883   7.986   2.869
41919SOL    HW227597   0.922   7.975   3.015
41920SOL     OW27598   9.473  13.911   0.001
41920SOL    HW127599   9.478  13.865   0.086
41920SOL    HW227600   9.387  13.887  14.846
41921SOL     OW27601  12.279   8.501   1.694
41921SOL    HW127602  12.365   8.459   1.688
41921SOL    HW227603  12.249   8.482   1.783
41922SOL     OW27604   2.810  14.501  10.913
41922SOL    HW127605   2.856  14.512  10.830
41922SOL    HW227606   2.876  14.516  10.979
41923SOL     OW27607   0.525  13.002   6.265
41923SOL    HW127608   0.490  13.029   6.180
41923SOL    HW227609   0.498  13.071   6.325
41924SOL     OW27610  11.766   4.254   7.126
41924SOL    HW127611  11.822   4.219   7.057
41924SOL    HW227612  11.754   4.346   7.102
41925SOL     OW27613   7.439   9.080   8.363
41925SOL    HW127614   7.386   9.001   8.363
41925SOL    HW227615   7.508   9.063   8.299
41926SOL     OW27616   0.935   9.270   1.059
41926SOL    HW127617   0.840   9.264   1.069
41926SOL    HW227618   0.946   9.313   0.974
41927SOL     OW27619  10.830   9.983  12.298
41927SOL    HW127620  10.801  10.070  12.270
41927SOL    HW227621  10.750   9.942  12.332
41928SOL     OW27622   1.752   3.014   8.299
41928SOL    HW127623   1.699   2.934   8.291
41928SOL    HW227624   1.838   2.984   8.327
41929SOL     OW27625  10.448   4.082  14.694
41929SOL    HW127626  10.461   3.988  14.684
41929SOL    HW227627  10.355   4.096  14.675
41930SOL     OW27628  13.199   0.960   6.332
41930SOL    HW127629  13.108   0.986   6.349
41930SOL    HW227630  13.228   0.921   6.414
41931SOL     OW27631  11.654   5.959  11.892
41931SOL    HW127632  11.722   6.027  11.897
41931SOL    HW227633  11.643   5.930  11.982
41932SOL     OW27634  14.293   8.377   2.280
41932SOL    HW127635  14.214   8.414   2.319
41932SOL    HW227636  14.294   8.286   2.311
41933SOL     OW27637  12.001  10.088   7.532
41933SOL    HW127638  11.924  10.064   7.583
41933SOL    HW227639  12.036  10.165   7.576
41934SOL     OW27640  12.920   4.929   2.177
41934SOL    HW127641  12.910   4.835   2.162
41934SOL    HW227642  12.929   4.938   2.271
41935SOL     OW27643   5.760   4.104  12.578
41935SOL    HW127644   5.720   4.177  12.529
41935SOL    HW227645   5.697   4.085  12.648
41936SOL     OW27646   3.078   3.598  13.494
41936SOL    HW127647   3.009   3.535  13.473
41936SOL    HW227648   3.086   3.653  13.417
41937SOL     OW27649   1.562   7.349   6.770
41937SOL    HW127650   1.578   7.420   6.708
41937SOL    HW227651   1.483   7.307   6.738
41938SOL     OW27652   1.097   9.820   1.820
41938SOL    HW127653   1.047   9.791   1.896
41938SOL    HW227654   1.031   9.848   1.757
41939SOL     OW27655  11.779   5.777   9.371
41939SOL    HW127656  11.744   5.802   9.286
41939SOL    HW227657  11.714   5.808   9.434
41940SOL     OW27658   7.563   9.847  10.847
41940SOL    HW127659   7.636   9.790  10.872
41940SOL    HW227660   7.601   9.935  10.843
41941SOL     OW27661   9.548   2.393  10.366
41941SOL    HW127662   9.453   2.384  10.353
41941SOL    HW227663   9.580   2.431  10.285
41942SOL     OW27664   3.588   6.046   6.420
41942SOL    HW127665   3.600   6.047   6.325
41942SOL    HW227666   3.677   6.053   6.455
41943SOL     OW27667   8.098   3.201   0.642
41943SOL    HW127668   8.023   3.253   0.612
41943SOL    HW227669   8.164   3.211   0.574
41944SOL     OW27670  13.359   9.396  12.106
41944SOL    HW127671  13.395   9.452  12.037
41944SOL    HW227672  13.288   9.348  12.062
41945SOL     OW27673   1.570   1.506   1.570
41945SOL    HW127674   1.564   1.602   1.576
41945SOL    HW227675   1.657   1.490   1.534
41946SOL     OW27676   8.668   5.782   4.612
41946SOL    HW127677   8.734   5.775   4.681
41946SOL    HW227678   8.658   5.875   4.597
41947SOL     OW27679   0.642   9.874   9.809
41947SOL    HW127680   0.677   9.958   9.841
41947SOL    HW227681   0.714   9.812   9.819
41948SOL     OW27682  12.094  11.577  14.757
41948SOL    HW127683  12.150  11.535  14.692
41948SOL    HW227684  12.125  11.544  14.841
41949SOL     OW27685   0.572   4.242   4.111
41949SOL    HW127686   0.635   4.185   4.067
41949SOL    HW227687   0.586   4.224   4.204
41950SOL     OW27688   3.290  13.220   9.058
41950SOL    HW127689   3.386  13.219   9.050
41950SOL    HW227690   3.269  13.135   9.097
41951SOL     OW27691   0.317  12.181   8.329
41951SOL    HW127692   0.273  12.214   8.407
41951SOL    HW227693   0.409  12.171   8.355
41952SOL     OW27694   3.491   8.829   1.452
41952SOL    HW127695   3.487   8.862   1.362
41952SOL    HW227696   3.580   8.794   1.460
41953SOL     OW27697   2.025  12.007   9.736
41953SOL    HW127698   1.976  11.934   9.700
41953SOL    HW227699   2.038  11.984   9.829
41954SOL     OW27700   9.690   4.824   3.236
41954SOL    HW127701   9.642   4.813   3.153
41954SOL    HW227702   9.687   4.738   3.277
41955SOL     OW27703   0.216  12.717  13.416
41955SOL    HW127704   0.212  12.621  13.417
41955SOL    HW227705   0.226  12.739  13.323
41956SOL     OW27706   0.371  13.988  14.088
41956SOL    HW127707   0.318  13.937  14.026
41956SOL    HW227708   0.314  13.999  14.164
41957SOL     OW27709  11.940   6.037   3.056
41957SOL    HW127710  11.955   5.987   2.976
41957SOL    HW227711  11.892   5.977   3.114
41958SOL     OW27712   3.793   9.130   5.818
41958SOL    HW127713   3.758   9.215   5.843
41958SOL    HW227714   3.874   9.122   5.868
41959SOL     OW27715   0.577   0.837   1.858
41959SOL    HW127716   0.515   0.869   1.923
41959SOL    HW227717   0.534   0.853   1.774
41960SOL     OW27718   0.358   7.656   5.047
41960SOL    HW127719   0.339   7.707   5.125
41960SOL    HW227720   0.452   7.668   5.032
41961SOL     OW27721   4.265  11.216  12.766
41961SOL    HW127722   4.169  11.219  12.767
41961SOL    HW227723   4.289  11.251  12.680
41962SOL     OW27724  10.278  10.987  13.411
41962SOL    HW127725  10.367  10.985  13.376
41962SOL    HW227726  10.289  10.972  13.505
41963SOL     OW27727   6.218  14.425  12.556
41963SOL    HW127728   6.295  14.431  12.612
41963SOL    HW227729   6.178  14.512  12.561
41964SOL     OW27730   3.596  13.600  13.747
41964SOL    HW127731   3.662  13.670  13.739
41964SOL    HW227732   3.647  13.521  13.766
41965SOL     OW27733   2.094   1.808  10.491
41965SOL    HW127734   2.014   1.769  10.457
41965SOL    HW227735   2.097   1.895  10.452
41966SOL     OW27736  13.404  12.092   4.886
41966SOL    HW127737  13.493  12.056   4.892
41966SOL    HW227738  13.376  12.100   4.977
41967SOL     OW27739   5.395   0.813   7.874
41967SOL    HW127740   5.460   0.874   7.908
41967SOL    HW227741   5.313   0.838   7.917
41968SOL     OW27742  13.382  10.587  10.414
41968SOL    HW127743  13.398  10.503  10.457
41968SOL    HW227744  13.326  10.566  10.340
41969SOL     OW27745  13.653  12.988   0.602
41969SOL    HW127746  13.576  12.932   0.606
41969SOL    HW227747  13.674  12.994   0.509
41970SOL     OW27748  13.173   4.861   8.646
41970SOL    HW127749  13.178   4.783   8.591
41970SOL    HW227750  13.256   4.861   8.693
41971SOL     OW27751  14.823   8.987  12.232
41971SOL    HW127752  14.862   8.900  12.243
41971SOL    HW227753  14.822   9.001  12.137
41972SOL     OW27754  13.692   6.149  14.523
41972SOL    HW127755  13.628   6.209  14.485
41972SOL    HW227756  13.766   6.151  14.463
41973SOL     OW27757   0.645   8.366   0.817
41973SOL    HW127758   0.635   8.461   0.820
41973SOL    HW227759   0.587   8.338   0.745
41974SOL     OW27760   2.958  14.756   7.503
41974SOL    HW127761   2.999  14.761   7.589
41974SOL    HW227762   2.993  14.675   7.464
41975SOL     OW27763  10.717   9.217   9.306
41975SOL    HW127764  10.638   9.178   9.341
41975SOL    HW227765  10.724   9.181   9.217
41976SOL     OW27766   7.639   0.526   6.347
41976SOL    HW127767   7.586   0.476   6.409
41976SOL    HW227768   7.590   0.608   6.335
41977SOL     OW27769   3.585  10.106   6.858
41977SOL    HW127770   3.672  10.128   6.893
41977SOL    HW227771   3.585  10.141   6.769
41978SOL     OW27772  10.321   1.921  13.488
41978SOL    HW127773  10.389   1.855  13.492
41978SOL    HW227774  10.361   2.000  13.524
41979SOL     OW27775  11.543  12.134   2.109
41979SOL    HW127776  11.468  12.134   2.167
41979SOL    HW227777  11.619  12.143   2.167
41980SOL     OW27778   4.286   7.181   0.030
41980SOL    HW127779   4.367   7.165  14.861
41980SOL    HW227780   4.311   7.171   0.122
41981SOL     OW27781   4.274   6.871  12.721
41981SOL    HW127782   4.189   6.917  12.720
41981SOL    HW227783   4.262   6.799  12.783
41982SOL     OW27784  11.465   2.965  10.394
41982SOL    HW127785  11.523   3.032  10.359
41982SOL    HW227786  11.482   2.966  10.488
41983SOL     OW27787  11.840   7.878   0.078
41983SOL    HW127788  11.784   7.825   0.135
41983SOL    HW227789  11.919   7.895   0.130
41984SOL     OW27790   5.498   8.007   2.993
41984SOL    HW127791   5.411   8.019   3.030
41984SOL    HW227792   5.497   7.917   2.959
41985SOL     OW27793  13.561   1.411  11.043
41985SOL    HW127794  13.475   1.384  11.011
41985SOL    HW227795  13.590   1.340  11.100
41986SOL     OW27796  14.313   0.043   7.501
41986SOL    HW127797  14.359   0.023   7.419
41986SOL    HW227798  14.298   0.137   7.498
41987SOL     OW27799   3.751   3.907   9.064
41987SOL    HW127800   3.698   3.861   9.129
41987SOL    HW227801   3.834   3.860   9.063
41988SOL     OW27802   0.006  14.879  10.862
41988SOL    HW127803  14.833  14.801  10.843
41988SOL    HW227804  14.830   0.052  10.919
41989SOL     OW27805   6.073   8.744  11.133
41989SOL    HW127806   5.995   8.798  11.117
41989SOL    HW227807   6.076   8.734  11.228
41990SOL     OW27808  11.781   4.971  11.364
41990SOL    HW127809  11.846   4.947  11.431
41990SOL    HW227810  11.697   4.959  11.408
41991SOL     OW27811   1.910   1.366  10.320
41991SOL    HW127812   1.840   1.413  10.276
41991SOL    HW227813   1.990   1.411  10.293
41992SOL     OW27814  12.868   1.820  11.645
41992SOL    HW127815  12.880   1.909  11.678
41992SOL    HW227816  12.885   1.764  11.721
41993SOL     OW27817   7.971   1.126   1.088
41993SOL    HW127818   8.050   1.080   1.116
41993SOL    HW227819   7.901   1.061   1.098
41994SOL     OW27820   6.141   8.870   9.759
41994SOL    HW127821   6.061   8.917   9.733
41994SOL    HW227822   6.160   8.904   9.847
41995SOL     OW27823  11.141   6.577  11.547
41995SOL    HW127824  11.162   6.659  11.503
41995SOL    HW227825  11.198   6.512  11.505
41996SOL     OW27826  14.140   8.618   2.758
41996SOL    HW127827  14.082   8.542   2.752
41996SOL    HW227828  14.108   8.666   2.834
41997SOL     OW27829   4.932   1.506   8.483
41997SOL    HW127830   4.983   1.563   8.540
41997SOL    HW227831   4.847   1.498   8.528
41998SOL     OW27832  11.469  12.294   0.488
41998SOL    HW127833  11.412  12.266   0.559
41998SOL    HW227834  11.554  12.254   0.509
41999SOL     OW27835  14.841   5.610  12.645
41999SOL    HW127836  14.750   5.638  12.633
41999SOL    HW227837   0.011   5.692  12.651
42000SOL     OW27838   7.626   6.599  12.160
42000SOL    HW127839   7.614   6.554  12.244
42000SOL    HW227840   7.718   6.585  12.137
42001SOL     OW27841  10.659  11.143  14.085
42001SOL    HW127842  10.619  11.103  14.163
42001SOL    HW227843  10.723  11.078  14.055
42002SOL     OW27844  13.980   5.512  12.631
42002SOL    HW127845  13.921   5.489  12.559
42002SOL    HW227846  13.971   5.440  12.694
42003SOL     OW27847   9.716   7.312  12.869
42003SOL    HW127848   9.667   7.256  12.810
42003SOL    HW227849   9.655   7.332  12.940
42004SOL     OW27850   1.063  14.837   6.461
42004SOL    HW127851   1.117  14.826   6.539
42004SOL    HW227852   0.999  14.766   6.466
42005SOL     OW27853  12.471  14.524   7.587
42005SOL    HW127854  12.539  14.476   7.539
42005SOL    HW227855  12.412  14.456   7.619
42006SOL     OW27856   5.610  13.339   4.543
42006SOL    HW127857   5.629  13.350   4.636
42006SOL    HW227858   5.518  13.311   4.541
42007SOL     OW27859   3.706  14.166   7.860
42007SOL    HW127860   3.712  14.226   7.934
42007SOL    HW227861   3.720  14.079   7.899
42008SOL     OW27862  13.406  10.476  13.296
42008SOL    HW127863  13.434  10.566  13.311
42008SOL    HW227864  13.460  10.446  13.223
42009SOL     OW27865   3.710   8.524   4.229
42009SOL    HW127866   3.731   8.556   4.142
42009SOL    HW227867   3.717   8.429   4.223
42010SOL     OW27868   4.618   3.814   6.042
42010SOL    HW127869   4.700   3.829   5.996
42010SOL    HW227870   4.568   3.756   5.985
42011SOL     OW27871  11.783   7.867  14.114
42011SOL    HW127872  11.724   7.814  14.060
42011SOL    HW227873  11.750   7.956  14.104
42012SOL     OW27874  13.746   7.799   4.400
42012SOL    HW127875  13.757   7.893   4.419
42012SOL    HW227876  13.756   7.757   4.486
42013SOL     OW27877  12.626   1.604  10.963
42013SOL    HW127878  12.553   1.652  11.002
42013SOL    HW227879  12.691   1.599  11.034
42014SOL     OW27880   4.617   2.593  12.811
42014SOL    HW127881   4.605   2.507  12.851
42014SOL    HW227882   4.682   2.636  12.867
42015SOL     OW27883   9.071   2.915  10.963
42015SOL    HW127884   9.126   2.994  10.970
42015SOL    HW227885   8.989   2.938  11.007
42016SOL     OW27886  14.260   8.991   6.745
42016SOL    HW127887  14.239   9.082   6.767
42016SOL    HW227888  14.213   8.975   6.663
42017SOL     OW27889   2.814  14.748   1.376
42017SOL    HW127890   2.831  14.695   1.453
42017SOL    HW227891   2.749  14.813   1.404
42018SOL     OW27892  11.314   1.510   3.613
42018SOL    HW127893  11.262   1.475   3.685
42018SOL    HW227894  11.302   1.605   3.619
42019SOL     OW27895  13.552  14.124   4.095
42019SOL    HW127896  13.635  14.166   4.071
42019SOL    HW227897  13.535  14.063   4.023
42020SOL     OW27898   5.881   5.175   6.881
42020SOL    HW127899   5.948   5.236   6.852
42020SOL    HW227900   5.837   5.146   6.801
42021SOL     OW27901  10.452   0.412  13.819
42021SOL    HW127902  10.538   0.422  13.862
42021SOL    HW227903  10.399   0.483  13.855
42022SOL     OW27904   4.726   2.274   0.205
42022SOL    HW127905   4.650   2.313   0.162
42022SOL    HW227906   4.756   2.207   0.144
42023SOL     OW27907   9.391   1.334  12.007
42023SOL    HW127908   9.458   1.393  11.973
42023SOL    HW227909   9.408   1.250  11.965
42024SOL     OW27910  11.973   0.316   5.606
42024SOL    HW127911  12.051   0.310   5.551
42024SOL    HW227912  11.972   0.234   5.655
42025SOL     OW27913   1.896   0.781   9.914
42025SOL    HW127914   1.821   0.743   9.960
42025SOL    HW227915   1.954   0.811   9.984
42026SOL     OW27916   3.567   1.175   6.036
42026SOL    HW127917   3.639   1.165   5.973
42026SOL    HW227918   3.489   1.149   5.987
42027SOL     OW27919   7.317  14.430   8.935
42027SOL    HW127920   7.255  14.483   8.885
42027SOL    HW227921   7.263  14.368   8.983
42028SOL     OW27922   8.035   5.927  12.139
42028SOL    HW127923   8.063   5.860  12.201
42028SOL    HW227924   8.105   5.929  12.073
42029SOL     OW27925  13.881   5.688   4.947
42029SOL    HW127926  13.966   5.718   4.913
42029SOL    HW227927  13.821   5.760   4.927
42030SOL     OW27928  10.800  11.803   9.547
42030SOL    HW127929  10.840  11.729   9.502
42030SOL    HW227930  10.766  11.766   9.629
42031SOL     OW27931  13.896   0.439   1.990
42031SOL    HW127932  13.982   0.401   2.007
42031SOL    HW227933  13.835   0.381   2.036
42032SOL     OW27934  12.127   5.484   4.294
42032SOL    HW127935  12.048   5.448   4.253
42032SOL    HW227936  12.124   5.454   4.384
42033SOL     OW27937  10.625  10.929  10.659
42033SOL    HW127938  10.554  10.864  10.656
42033SOL    HW227939  10.704  10.876  10.671
42034SOL     OW27940  11.115   6.078   9.970
42034SOL    HW127941  11.130   6.012   9.902
42034SOL    HW227942  11.060   6.033  10.034
42035SOL     OW27943   4.803   8.697   7.813
42035SOL    HW127944   4.859   8.772   7.832
42035SOL    HW227945   4.864   8.623   7.805
42036SOL     OW27946   3.736   9.883   4.088
42036SOL    HW127947   3.769   9.816   4.148
42036SOL    HW227948   3.686   9.834   4.023
42037SOL     OW27949   4.245   3.515   8.784
42037SOL    HW127950   4.292   3.576   8.842
42037SOL    HW227951   4.300   3.437   8.783
42038SOL     OW27952   0.376   2.596  10.263
42038SOL    HW127953   0.360   2.507  10.293
42038SOL    HW227954   0.353   2.595  10.170
42039SOL     OW27955   6.701   9.318   1.575
42039SOL    HW127956   6.712   9.373   1.653
42039SOL    HW227957   6.784   9.325   1.529
42040SOL     OW27958  10.429   9.041   6.307
42040SOL    HW127959  10.398   9.121   6.266
42040SOL    HW227960  10.511   9.021   6.262
42041SOL     OW27961  13.837   9.390   6.090
42041SOL    HW127962  13.859   9.372   5.999
42041SOL    HW227963  13.808   9.306   6.126
42042SOL     OW27964   8.584  11.249  11.068
42042SOL    HW127965   8.551  11.180  11.125
42042SOL    HW227966   8.505  11.294  11.038
42043SOL     OW27967  10.969  12.458   9.769
42043SOL    HW127968  10.987  12.538   9.818
42043SOL    HW227969  10.880  12.434   9.793
42044SOL     OW27970  13.791   9.226   0.206
42044SOL    HW127971  13.722   9.175   0.248
42044SOL    HW227972  13.745   9.280   0.142
42045SOL     OW27973  11.810   4.256  12.281
42045SOL    HW127974  11.829   4.335  12.231
42045SOL    HW227975  11.714   4.249  12.282
42046SOL     OW27976  10.876   7.227   1.328
42046SOL    HW127977  10.929   7.209   1.405
42046SOL    HW227978  10.932   7.205   1.254
42047SOL     OW27979   0.995   7.410   8.138
42047SOL    HW127980   0.910   7.412   8.181
42047SOL    HW227981   1.025   7.501   8.141
42048SOL     OW27982   2.112  12.084  14.338
42048SOL    HW127983   2.198  12.042  14.333
42048SOL    HW227984   2.085  12.095  14.247
42049SOL     OW27985  12.137  10.177   8.175
42049SOL    HW127986  12.118  10.085   8.154
42049SOL    HW227987  12.053  10.212   8.204
42050SOL     OW27988   3.204   7.478   3.825
42050SOL    HW127989   3.214   7.396   3.777
42050SOL    HW227990   3.170   7.540   3.759
42051SOL     OW27991   3.197   6.750  14.208
42051SOL    HW127992   3.285   6.716  14.224
42051SOL    HW227993   3.198   6.839  14.243
42052SOL     OW27994   9.007   3.319   6.446
42052SOL    HW127995   9.022   3.282   6.359
42052SOL    HW227996   8.941   3.387   6.432
42053SOL     OW27997  11.613  10.007   3.955
42053SOL    HW127998  11.671  10.055   3.897
42053SOL    HW227999  11.596   9.924   3.911
42054SOL     OW28000  14.512   9.300   8.344
42054SOL    HW128001  14.492   9.235   8.277
42054SOL    HW228002  14.545   9.248   8.418
42055SOL     OW28003   3.379   5.372   3.415
42055SOL    HW128004   3.309   5.419   3.460
42055SOL    HW228005   3.341   5.346   3.331
42056SOL     OW28006   4.080   4.131   8.983
42056SOL    HW128007   4.172   4.119   9.007
42056SOL    HW228008   4.083   4.170   8.895
42057SOL     OW28009  10.170   2.058   9.647
42057SOL    HW128010  10.123   2.138   9.622
42057SOL    HW228011  10.157   1.998   9.573
42058SOL     OW28012   0.561  13.613   3.792
42058SOL    HW128013   0.630  13.547   3.792
42058SOL    HW228014   0.603  13.692   3.826
42059SOL     OW28015  10.103   1.161  11.378
42059SOL    HW128016  10.183   1.169  11.326
42059SOL    HW228017  10.048   1.235  11.350
42060SOL     OW28018  13.113  14.338  12.204
42060SOL    HW128019  13.046  14.367  12.266
42060SOL    HW228020  13.152  14.418  12.170
42061SOL     OW28021  12.648  10.986  12.976
42061SOL    HW128022  12.570  10.952  13.020
42061SOL    HW228023  12.692  11.039  13.043
42062SOL     OW28024   8.319   5.011   8.070
42062SOL    HW128025   8.253   5.046   8.011
42062SOL    HW228026   8.314   5.067   8.148
42063SOL     OW28027   7.475  14.830   8.569
42063SOL    HW128028   7.451  14.739   8.556
42063SOL    HW228029   7.425  14.858   8.645
42064SOL     OW28030  13.227   5.973  12.314
42064SOL    HW128031  13.164   5.999  12.382
42064SOL    HW228032  13.261   5.889  12.344
42065SOL     OW28033   3.368  11.647  12.864
42065SOL    HW128034   3.346  11.588  12.792
42065SOL    HW228035   3.406  11.590  12.931
42066SOL     OW28036  11.237   9.195  11.250
42066SOL    HW128037  11.307   9.189  11.315
42066SOL    HW228038  11.162   9.228  11.299
42067SOL     OW28039  12.935   8.540  13.592
42067SOL    HW128040  12.906   8.550  13.501
42067SOL    HW228041  13.029   8.525  13.586
42068SOL     OW28042  10.301   6.122   4.215
42068SOL    HW128043  10.258   6.200   4.182
42068SOL    HW228044  10.256   6.049   4.172
42069SOL     OW28045   7.448   9.006   9.439
42069SOL    HW128046   7.414   8.928   9.396
42069SOL    HW228047   7.370   9.055   9.466
42070SOL     OW28048   0.865  11.213   3.315
42070SOL    HW128049   0.847  11.133   3.365
42070SOL    HW228050   0.803  11.277   3.349
42071SOL     OW28051  14.625   7.385   0.108
42071SOL    HW128052  14.699   7.368   0.166
42071SOL    HW228053  14.611   7.480   0.115
42072SOL     OW28054   4.312   8.361  12.446
42072SOL    HW128055   4.297   8.451  12.416
42072SOL    HW228056   4.302   8.307  12.368
42073SOL     OW28057  13.615   6.480   1.302
42073SOL    HW128058  13.547   6.547   1.308
42073SOL    HW228059  13.578   6.405   1.350
42074SOL     OW28060  12.150  10.927  11.047
42074SOL    HW128061  12.080  10.982  11.012
42074SOL    HW228062  12.139  10.932  11.142
42075SOL     OW28063   6.856  11.058  10.967
42075SOL    HW128064   6.947  11.078  10.986
42075SOL    HW228065   6.858  11.014  10.882
42076SOL     OW28066   6.556  13.506   0.177
42076SOL    HW128067   6.487  13.538   0.119
42076SOL    HW228068   6.559  13.570   0.248
42077SOL     OW28069   0.041   8.827  11.700
42077SOL    HW128070   0.052   8.852  11.792
42077SOL    HW228071  14.827   8.837  11.683
42078SOL     OW28072   1.727   5.597   5.787
42078SOL    HW128073   1.761   5.510   5.811
42078SOL    HW228074   1.692   5.586   5.699
42079SOL     OW28075   5.111   3.664   3.936
42079SOL    HW128076   5.081   3.588   3.886
42079SOL    HW228077   5.081   3.739   3.885
42080SOL     OW28078   1.245   1.921   5.630
42080SOL    HW128079   1.306   1.993   5.611
42080SOL    HW228080   1.279   1.882   5.710
42081SOL     OW28081   2.097  10.525   8.966
42081SOL    HW128082   2.055  10.489   8.888
42081SOL    HW228083   2.115  10.616   8.943
42082SOL     OW28084   7.879  11.901   3.505
42082SOL    HW128085   7.887  11.876   3.413
42082SOL    HW228086   7.969  11.904   3.537
42083SOL     OW28087  12.535   6.985   2.564
42083SOL    HW128088  12.483   6.919   2.610
42083SOL    HW228089  12.623   6.976   2.601
42084SOL     OW28090   3.104  13.828   0.299
42084SOL    HW128091   3.140  13.883   0.368
42084SOL    HW228092   3.050  13.888   0.247
42085SOL     OW28093   4.579  13.822   2.386
42085SOL    HW128094   4.514  13.868   2.332
42085SOL    HW228095   4.582  13.872   2.467
42086SOL     OW28096   5.844  13.298   8.008
42086SOL    HW128097   5.842  13.216   8.056
42086SOL    HW228098   5.935  13.308   7.979
42087SOL     OW28099  13.835   3.678   7.753
42087SOL    HW128100  13.863   3.765   7.781
42087SOL    HW228101  13.775   3.694   7.680
42088SOL     OW28102   6.609   6.802   1.441
42088SOL    HW128103   6.606   6.829   1.533
42088SOL    HW228104   6.589   6.882   1.392
42089SOL     OW28105  12.801  13.899   8.997
42089SOL    HW128106  12.737  13.889   8.927
42089SOL    HW228107  12.791  13.990   9.026
42090SOL     OW28108   1.188   4.092   1.322
42090SOL    HW128109   1.234   4.151   1.381
42090SOL    HW228110   1.096   4.117   1.330
42091SOL     OW28111  10.316   6.295  14.843
42091SOL    HW128112  10.394   6.304   0.017
42091SOL    HW228113  10.332   6.216  14.790
42092SOL     OW28114   0.055   9.256  14.330
42092SOL    HW128115   0.102   9.259  14.247
42092SOL    HW228116   0.123   9.242  14.396
42093SOL     OW28117  11.172   7.804  10.734
42093SOL    HW128118  11.162   7.892  10.770
42093SOL    HW228119  11.178   7.818  10.639
42094SOL     OW28120   4.717  11.469   2.476
42094SOL    HW128121   4.798  11.494   2.431
42094SOL    HW228122   4.678  11.403   2.420
42095SOL     OW28123  10.230  12.470   6.655
42095SOL    HW128124  10.268  12.551   6.623
42095SOL    HW228125  10.305  12.411   6.665
42096SOL     OW28126   4.776   6.766  12.934
42096SOL    HW128127   4.801   6.858  12.925
42096SOL    HW228128   4.704   6.767  12.997
42097SOL     OW28129   0.864  10.867   1.359
42097SOL    HW128130   0.888  10.934   1.295
42097SOL    HW228131   0.791  10.820   1.318
42098SOL     OW28132   4.946   2.777  14.018
42098SOL    HW128133   4.969   2.768  14.110
42098SOL    HW228134   4.904   2.862  14.011
42099SOL     OW28135   7.295   6.632  13.892
42099SOL    HW128136   7.338   6.553  13.924
42099SOL    HW228137   7.285   6.618  13.798
42100SOL     OW28138   4.877   0.555   4.719
42100SOL    HW128139   4.833   0.607   4.787
42100SOL    HW228140   4.913   0.621   4.660
42101SOL     OW28141  12.791   9.429  13.557
42101SOL    HW128142  12.816   9.516  13.588
42101SOL    HW228143  12.698   9.435  13.539
42102SOL     OW28144  12.638   4.923   7.642
42102SOL    HW128145  12.626   4.974   7.562
42102SOL    HW228146  12.713   4.867   7.624
42103SOL     OW28147  13.602   1.313   0.943
42103SOL    HW128148  13.645   1.389   0.903
42103SOL    HW228149  13.652   1.238   0.910
42104SOL     OW28150   0.962   9.296   0.794
42104SOL    HW128151   0.995   9.337   0.714
42104SOL    HW228152   0.875   9.264   0.771
42105SOL     OW28153  14.847   9.236  11.519
42105SOL    HW128154  14.879   9.299  11.454
42105SOL    HW228155  14.799   9.290  11.582
42106SOL     OW28156   7.396   4.289  10.998
42106SOL    HW128157   7.436   4.360  11.048
42106SOL    HW228158   7.337   4.332  10.936
42107SOL     OW28159  14.431  10.626  13.106
42107SOL    HW128160  14.510  10.648  13.056
42107SOL    HW228161  14.461  10.561  13.170
42108SOL     OW28162  12.100   8.251   4.790
42108SOL    HW128163  12.186   8.212   4.772
42108SOL    HW228164  12.039   8.199   4.738
42109SOL     OW28165   1.050   7.746  10.870
42109SOL    HW128166   0.958   7.740  10.895
42109SOL    HW228167   1.085   7.817  10.924
42110SOL     OW28168   8.611   1.460   0.358
42110SOL    HW128169   8.660   1.531   0.398
42110SOL    HW228170   8.564   1.419   0.432
42111SOL     OW28171   9.029  12.850   1.961
42111SOL    HW128172   9.057  12.773   2.011
42111SOL    HW228173   8.970  12.815   1.895
42112SOL     OW28174  12.580  14.608   3.707
42112SOL    HW128175  12.491  14.574   3.694
42112SOL    HW228176  12.578  14.646   3.795
42113SOL     OW28177  14.205   4.315   3.914
42113SOL    HW128178  14.221   4.223   3.936
42113SOL    HW228179  14.256   4.364   3.978
42114SOL     OW28180  13.742  13.391   1.863
42114SOL    HW128181  13.680  13.463   1.875
42114SOL    HW228182  13.828  13.433   1.869
42115SOL     OW28183  12.343   1.027   6.270
42115SOL    HW128184  12.386   0.945   6.243
42115SOL    HW228185  12.394   1.057   6.345
42116SOL     OW28186  12.422  14.646   8.521
42116SOL    HW128187  12.449  14.641   8.429
42116SOL    HW228188  12.502  14.671   8.568
42117SOL     OW28189   3.373   9.439  11.353
42117SOL    HW128190   3.441   9.457  11.417
42117SOL    HW228191   3.404   9.483  11.273
42118SOL     OW28192   4.547   5.544   9.274
42118SOL    HW128193   4.537   5.503   9.360
42118SOL    HW228194   4.495   5.624   9.279
42119SOL     OW28195  14.410  10.821  14.593
42119SOL    HW128196  14.487  10.853  14.545
42119SOL    HW228197  14.380  10.746  14.542
42120SOL     OW28198   8.567   6.795   7.905
42120SOL    HW128199   8.521   6.716   7.877
42120SOL    HW228200   8.609   6.771   7.988
42121SOL     OW28201   1.454  11.133   3.645
42121SOL    HW128202   1.388  11.089   3.591
42121SOL    HW228203   1.531  11.077   3.642
42122SOL     OW28204   4.080  13.627  11.415
42122SOL    HW128205   4.168  13.645  11.380
42122SOL    HW228206   4.056  13.542  11.378
42123SOL     OW28207   7.535   6.167   5.794
42123SOL    HW128208   7.572   6.253   5.776
42123SOL    HW228209   7.569   6.143   5.880
42124SOL     OW28210   9.504   0.313   6.581
42124SOL    HW128211   9.475   0.267   6.503
42124SOL    HW228212   9.445   0.388   6.588
42125SOL     OW28213  10.981  11.617  11.109
42125SOL    HW128214  11.026  11.697  11.139
42125SOL    HW228215  10.888  11.639  11.114
42126SOL     OW28216  13.547   8.769   4.793
42126SOL    HW128217  13.485   8.778   4.865
42126SOL    HW228218  13.612   8.706   4.825
42127SOL     OW28219  10.818   6.735  14.390
42127SOL    HW128220  10.831   6.827  14.412
42127SOL    HW228221  10.894   6.713  14.337
42128SOL     OW28222   4.748  14.080   0.889
42128SOL    HW128223   4.759  14.003   0.944
42128SOL    HW228224   4.768  14.051   0.801
42129SOL     OW28225   5.174  12.379  10.307
42129SOL    HW128226   5.221  12.339  10.234
42129SOL    HW228227   5.138  12.461  10.271
42130SOL     OW28228   5.128  12.675   3.261
42130SOL    HW128229   5.182  12.650   3.186
42130SOL    HW228230   5.162  12.624   3.334
42131SOL     OW28231  11.756  14.275  10.455
42131SOL    HW128232  11.783  14.311  10.371
42131SOL    HW228233  11.691  14.337  10.488
42132SOL     OW28234   0.605   1.656   5.125
42132SOL    HW128235   0.693   1.683   5.098
42132SOL    HW228236   0.615   1.628   5.216
42133SOL     OW28237   3.803   0.912   6.056
42133SOL    HW128238   3.777   0.820   6.054
42133SOL    HW228239   3.842   0.928   5.970
42134SOL     OW28240   8.908   5.642   4.732
42134SOL    HW128241   8.860   5.691   4.799
42134SOL    HW228242   8.843   5.585   4.692
42135SOL     OW28243  10.425   3.759   2.664
42135SOL    HW128244  10.506   3.727   2.703
42135SOL    HW228245  10.452   3.819   2.596
42136SOL     OW28246   0.986   7.515  14.554
42136SOL    HW128247   1.069   7.538  14.514
42136SOL    HW228248   0.988   7.420  14.561
42137SOL     OW28249   2.102   8.786   5.808
42137SOL    HW128250   2.027   8.727   5.805
42137SOL    HW228251   2.173   8.734   5.846
42138SOL     OW28252   7.705   8.339  10.349
42138SOL    HW128253   7.745   8.262  10.389
42138SOL    HW228254   7.611   8.325  10.362
42139SOL     OW28255   8.166   3.729   1.899
42139SOL    HW128256   8.204   3.692   1.979
42139SOL    HW228257   8.075   3.749   1.922
42140SOL     OW28258   1.948   5.204   8.466
42140SOL    HW128259   1.931   5.252   8.547
42140SOL    HW228260   1.869   5.152   8.451
42141SOL     OW28261  13.153  12.345  14.435
42141SOL    HW128262  13.121  12.435  14.442
42141SOL    HW228263  13.180  12.337  14.344
42142SOL     OW28264   3.843  12.419  13.368
42142SOL    HW128265   3.875  12.330  13.383
42142SOL    HW228266   3.775  12.432  13.435
42143SOL     OW28267   8.969   0.944   5.797
42143SOL    HW128268   8.881   0.911   5.813
42143SOL    HW228269   9.002   0.893   5.723
42144SOL     OW28270   5.052   2.033   8.795
42144SOL    HW128271   5.069   2.086   8.717
42144SOL    HW228272   4.998   1.961   8.764
42145SOL     OW28273   8.121   0.495   5.007
42145SOL    HW128274   8.215   0.505   5.019
42145SOL    HW228275   8.097   0.567   4.947
42146SOL     OW28276   9.105   5.432  13.558
42146SOL    HW128277   9.069   5.491  13.492
42146SOL    HW228278   9.039   5.432  13.628
42147SOL     OW28279   9.180   9.287  13.322
42147SOL    HW128280   9.211   9.371  13.355
42147SOL    HW228281   9.257   9.230  13.326
42148SOL     OW28282  11.138  14.002  14.696
42148SOL    HW128283  11.161  13.924  14.746
42148SOL    HW228284  11.101  13.968  14.614
42149SOL     OW28285   7.402   6.787   8.273
42149SOL    HW128286   7.405   6.730   8.197
42149SOL    HW228287   7.492   6.792   8.304
42150SOL     OW28288   1.809  11.618   1.949
42150SOL    HW128289   1.770  11.662   1.874
42150SOL    HW228290   1.816  11.687   2.016
42151SOL     OW28291   1.239   4.772   1.767
42151SOL    HW128292   1.189   4.807   1.840
42151SOL    HW228293   1.254   4.847   1.710
42152SOL     OW28294   5.143  10.253   4.409
42152SOL    HW128295   5.180  10.180   4.459
42152SOL    HW228296   5.106  10.212   4.331
42153SOL     OW28297  14.594   6.286   0.992
42153SOL    HW128298  14.561   6.238   0.916
42153SOL    HW228299  14.566   6.376   0.977
42154SOL     OW28300  10.284  10.266   4.854
42154SOL    HW128301  10.273  10.278   4.948
42154SOL    HW228302  10.327  10.346   4.825
42155SOL     OW28303   5.128   5.122  13.949
42155SOL    HW128304   5.165   5.104  14.036
42155SOL    HW228305   5.172   5.060  13.891
42156SOL     OW28306   2.634   3.802  12.893
42156SOL    HW128307   2.707   3.798  12.832
42156SOL    HW228308   2.617   3.896  12.905
42157SOL     OW28309   6.463   3.020   0.860
42157SOL    HW128310   6.414   2.968   0.797
42157SOL    HW228311   6.551   3.025   0.823
42158SOL     OW28312  12.393   8.269   2.115
42158SOL    HW128313  12.393   8.184   2.159
42158SOL    HW228314  12.476   8.309   2.139
42159SOL     OW28315   6.374   4.109   9.873
42159SOL    HW128316   6.324   4.032   9.898
42159SOL    HW228317   6.382   4.160   9.954
42160SOL     OW28318   6.159   7.013  11.018
42160SOL    HW128319   6.203   7.077  10.962
42160SOL    HW228320   6.069   7.043  11.022
42161SOL     OW28321  13.003   6.507   7.790
42161SOL    HW128322  13.006   6.602   7.782
42161SOL    HW228323  13.011   6.475   7.700
42162SOL     OW28324   5.688  12.786   8.736
42162SOL    HW128325   5.617  12.840   8.702
42162SOL    HW228326   5.748  12.848   8.777
42163SOL     OW28327   3.089   8.030   4.310
42163SOL    HW128328   3.080   8.064   4.399
42163SOL    HW228329   3.004   8.049   4.269
42164SOL     OW28330   3.570   4.851   5.074
42164SOL    HW128331   3.485   4.895   5.070
42164SOL    HW228332   3.580   4.826   5.165
42165SOL     OW28333   7.194   5.771   7.178
42165SOL    HW128334   7.152   5.796   7.260
42165SOL    HW228335   7.149   5.824   7.111
42166SOL     OW28336  10.749   5.974   8.575
42166SOL    HW128337  10.690   6.047   8.592
42166SOL    HW228338  10.804   6.005   8.503
42167SOL     OW28339  12.446   9.183  13.569
42167SOL    HW128340  12.448   9.279  13.575
42167SOL    HW228341  12.474   9.153  13.656
42168SOL     OW28342  10.024   2.817   0.399
42168SOL    HW128343  10.110   2.818   0.358
42168SOL    HW228344   9.999   2.724   0.401
42169SOL     OW28345   5.887   9.141  13.464
42169SOL    HW128346   5.835   9.219  13.448
42169SOL    HW228347   5.846   9.101  13.542
42170SOL     OW28348  12.860  13.142   7.012
42170SOL    HW128349  12.770  13.140   7.044
42170SOL    HW228350  12.898  13.060   7.043
42171SOL     OW28351   9.997  10.756   3.779
42171SOL    HW128352   9.982  10.773   3.872
42171SOL    HW228353   9.941  10.819   3.734
42172SOL     OW28354  10.717   3.157   8.218
42172SOL    HW128355  10.765   3.238   8.234
42172SOL    HW228356  10.675   3.137   8.302
42173SOL     OW28357  11.015   8.740   3.042
42173SOL    HW128358  11.060   8.749   3.126
42173SOL    HW228359  10.949   8.810   3.042
42174SOL     OW28360  10.335  10.395  10.113
42174SOL    HW128361  10.280  10.318  10.100
42174SOL    HW228362  10.350  10.430  10.025
42175SOL     OW28363  13.963   1.571   8.053
42175SOL    HW128364  13.906   1.497   8.073
42175SOL    HW228365  13.921   1.614   7.978
42176SOL     OW28366   7.253   2.424   6.386
42176SOL    HW128367   7.337   2.428   6.339
42176SOL    HW228368   7.277   2.391   6.473
42177SOL     OW28369   6.756  11.860   9.693
42177SOL    HW128370   6.822  11.830   9.630
42177SOL    HW228371   6.748  11.954   9.676
42178SOL     OW28372   3.967  14.754  10.932
42178SOL    HW128373   4.007  14.806  11.002
42178SOL    HW228374   3.952  14.817  10.861
42179SOL     OW28375   7.846  12.882  13.904
42179SOL    HW128376   7.871  12.964  13.863
42179SOL    HW228377   7.751  12.888  13.915
42180SOL     OW28378   8.653   0.017  13.061
42180SOL    HW128379   8.662   0.071  13.139
42180SOL    HW228380   8.575  14.843  13.076
42181SOL     OW28381  14.214  12.711   4.790
42181SOL    HW128382  14.206  12.806   4.778
42181SOL    HW228383  14.274  12.702   4.864
42182SOL     OW28384   0.922   4.499   7.646
42182SOL    HW128385   0.843   4.454   7.676
42182SOL    HW228386   0.901   4.527   7.557
42183SOL     OW28387   8.425   7.159  14.841
42183SOL    HW128388   8.508   7.197  14.815
42183SOL    HW228389   8.442   7.118   0.047
42184SOL     OW28390   8.291   8.556   2.577
42184SOL    HW128391   8.271   8.464   2.596
42184SOL    HW228392   8.343   8.586   2.652
42185SOL     OW28393   3.691  14.206   6.985
42185SOL    HW128394   3.623  14.213   7.052
42185SOL    HW228395   3.756  14.271   7.009
42186SOL     OW28396   5.984  13.000  11.918
42186SOL    HW128397   6.024  13.037  11.997
42186SOL    HW228398   5.895  13.035  11.917
42187SOL     OW28399   7.012   1.876   5.491
42187SOL    HW128400   7.071   1.924   5.434
42187SOL    HW228401   6.961   1.821   5.431
42188SOL     OW28402   9.910   4.221   1.460
42188SOL    HW128403   9.838   4.281   1.441
42188SOL    HW228404   9.914   4.218   1.556
42189SOL     OW28405   9.421  12.301   1.448
42189SOL    HW128406   9.326  12.289   1.446
42189SOL    HW228407   9.455  12.214   1.465
42190SOL     OW28408   5.037   7.383  10.008
42190SOL    HW128409   5.098   7.352  10.074
42190SOL    HW228410   5.026   7.310   9.947
42191SOL     OW28411   7.143   8.527   7.704
42191SOL    HW128412   7.100   8.579   7.637
42191SOL    HW228413   7.121   8.436   7.681
42192SOL     OW28414   6.955   5.416   5.355
42192SOL    HW128415   6.959   5.358   5.279
42192SOL    HW228416   6.874   5.391   5.399
42193SOL     OW28417   9.255   7.654   8.147
42193SOL    HW128418   9.180   7.641   8.090
42193SOL    HW228419   9.283   7.744   8.131
42194SOL     OW28420   3.693   3.705  12.302
42194SOL    HW128421   3.639   3.779  12.330
42194SOL    HW228422   3.631   3.633  12.289
42195SOL     OW28423   9.478   3.542   0.333
42195SOL    HW128424   9.454   3.587   0.414
42195SOL    HW228425   9.417   3.468   0.327
42196SOL     OW28426   5.917   0.511   1.141
42196SOL    HW128427   5.952   0.587   1.093
42196SOL    HW228428   5.957   0.517   1.227
42197SOL     OW28429   2.923   8.706   0.857
42197SOL    HW128430   2.890   8.796   0.861
42197SOL    HW228431   2.856   8.654   0.901
42198SOL     OW28432   0.725   0.676  13.157
42198SOL    HW128433   0.639   0.635  13.170
42198SOL    HW228434   0.750   0.651  13.068
42199SOL     OW28435   3.435   7.384   4.235
42199SOL    HW128436   3.365   7.318   4.233
42199SOL    HW228437   3.396   7.462   4.197
42200SOL     OW28438   6.689   2.691  13.191
42200SOL    HW128439   6.733   2.669  13.109
42200SOL    HW228440   6.746   2.756  13.232
42201SOL     OW28441  10.705   8.302  11.584
42201SOL    HW128442  10.784   8.262  11.547
42201SOL    HW228443  10.676   8.364  11.517
42202SOL     OW28444   3.095   9.089   6.013
42202SOL    HW128445   3.098   9.139   6.095
42202SOL    HW228446   3.071   9.153   5.947
42203SOL     OW28447  12.354   5.323   0.612
42203SOL    HW128448  12.429   5.381   0.600
42203SOL    HW228449  12.310   5.324   0.528
42204SOL     OW28450  12.793   6.969   7.823
42204SOL    HW128451  12.786   6.998   7.913
42204SOL    HW228452  12.846   7.036   7.780
42205SOL     OW28453   6.443   8.672   0.685
42205SOL    HW128454   6.512   8.607   0.666
42205SOL    HW228455   6.434   8.722   0.604
42206SOL     OW28456   5.692  11.328   5.842
42206SOL    HW128457   5.653  11.243   5.862
42206SOL    HW228458   5.786  11.313   5.850
42207SOL     OW28459   7.746  11.021   8.046
42207SOL    HW128460   7.684  11.089   8.074
42207SOL    HW228461   7.690  10.948   8.019
42208SOL     OW28462   2.036   3.314   6.645
42208SOL    HW128463   2.061   3.368   6.720
42208SOL    HW228464   1.940   3.319   6.643
42209SOL     OW28465   6.590   8.773   0.184
42209SOL    HW128466   6.525   8.833   0.148
42209SOL    HW228467   6.588   8.790   0.278
42210SOL     OW28468   1.816   8.077   3.294
42210SOL    HW128469   1.903   8.103   3.325
42210SOL    HW228470   1.783   8.019   3.362
42211SOL     OW28471  13.159   9.670   0.288
42211SOL    HW128472  13.244   9.687   0.247
42211SOL    HW228473  13.179   9.607   0.358
42212SOL     OW28474   0.432  13.101  12.254
42212SOL    HW128475   0.350  13.105  12.203
42212SOL    HW228476   0.452  13.008  12.261
42213SOL     OW28477  11.668  13.080   1.058
42213SOL    HW128478  11.609  13.152   1.035
42213SOL    HW228479  11.613  13.018   1.106
42214SOL     OW28480  14.708   3.635   9.475
42214SOL    HW128481  14.792   3.658   9.515
42214SOL    HW228482  14.649   3.707   9.501
42215SOL     OW28483  12.263  10.692   8.082
42215SOL    HW128484  12.292  10.612   8.038
42215SOL    HW228485  12.291  10.763   8.025
42216SOL     OW28486  10.650   5.324   1.944
42216SOL    HW128487  10.575   5.273   1.916
42216SOL    HW228488  10.623   5.415   1.933
42217SOL     OW28489  13.632  14.531   1.999
42217SOL    HW128490  13.725  14.509   2.009
42217SOL    HW228491  13.624  14.617   2.041
42218SOL     OW28492   8.492  12.967  11.436
42218SOL    HW128493   8.529  12.974  11.348
42218SOL    HW228494   8.430  12.894  11.430
42219SOL     OW28495   2.958  14.324   0.025
42219SOL    HW128496   2.955  14.362   0.113
42219SOL    HW228497   2.957  14.229   0.040
42220SOL     OW28498   3.005   0.670   3.850
42220SOL    HW128499   2.936   0.603   3.850
42220SOL    HW228500   3.079   0.628   3.808
42221SOL     OW28501  12.194  12.003  13.299
42221SOL    HW128502  12.198  11.909  13.315
42221SOL    HW228503  12.115  12.015  13.245
42222SOL     OW28504   8.483  13.489  10.935
42222SOL    HW128505   8.537  13.434  10.878
42222SOL    HW228506   8.547  13.537  10.989
42223SOL     OW28507  13.732   0.807   8.049
42223SOL    HW128508  13.649   0.763   8.065
42223SOL    HW228509  13.798   0.745   8.080
42224SOL     OW28510  10.044   5.716   3.403
42224SOL    HW128511  10.054   5.621   3.414
42224SOL    HW228512  10.134   5.749   3.407
42225SOL     OW28513   3.969   2.634  10.674
42225SOL    HW128514   3.980   2.583  10.754
42225SOL    HW228515   3.952   2.723  10.705
42226SOL     OW28516  10.417   3.617  12.746
42226SOL    HW128517  10.359   3.583  12.678
42226SOL    HW228518  10.391   3.570  12.825
42227SOL     OW28519  12.354  11.432   4.856
42227SOL    HW128520  12.405  11.478   4.923
42227SOL    HW228521  12.263  11.456   4.875
42228SOL     OW28522   5.736  10.846   8.823
42228SOL    HW128523   5.785  10.809   8.749
42228SOL    HW228524   5.788  10.921   8.851
42229SOL     OW28525   0.158   3.263   7.050
42229SOL    HW128526   0.124   3.200   7.114
42229SOL    HW228527   0.155   3.215   6.967
42230SOL     OW28528  14.185   5.338   3.793
42230SOL    HW128529  14.112   5.398   3.809
42230SOL    HW228530  14.154   5.282   3.722
42231SOL     OW28531   4.067   0.049  13.602
42231SOL    HW128532   4.012   0.001  13.664
42231SOL    HW228533   4.016   0.049  13.520
42232SOL     OW28534  14.676   8.488   4.774
42232SOL    HW128535  14.606   8.428   4.747
42232SOL    HW228536  14.630   8.560   4.818
42233SOL     OW28537  12.998   4.305   5.956
42233SOL    HW128538  13.060   4.378   5.955
42233SOL    HW228539  12.998   4.276   6.047
42234SOL     OW28540   0.031   7.098   6.247
42234SOL    HW128541  14.833   7.043   6.258
42234SOL    HW228542   0.026   7.161   6.319
42235SOL     OW28543   1.759   1.004   2.522
42235SOL    HW128544   1.741   0.910   2.518
42235SOL    HW228545   1.731   1.037   2.437
42236SOL     OW28546   6.414   5.324   0.279
42236SOL    HW128547   6.474   5.252   0.261
42236SOL    HW228548   6.471   5.400   0.292
42237SOL     OW28549   6.389  13.305   6.132
42237SOL    HW128550   6.374  13.337   6.221
42237SOL    HW228551   6.369  13.379   6.075
42238SOL     OW28552   2.556   4.803  12.001
42238SOL    HW128553   2.486   4.743  11.976
42238SOL    HW228554   2.518   4.856  12.071
42239SOL     OW28555   6.907   3.717  10.229
42239SOL    HW128556   6.920   3.756  10.142
42239SOL    HW228557   6.883   3.626  10.211
42240SOL     OW28558  13.222  14.416   7.623
42240SOL    HW128559  13.185  14.354   7.685
42240SOL    HW228560  13.317  14.405   7.630
42241SOL     OW28561  10.022  11.202   7.352
42241SOL    HW128562  10.093  11.266   7.350
42241SOL    HW228563   9.979  11.211   7.268
42242SOL     OW28564   5.110  12.555   8.819
42242SOL    HW128565   5.138  12.469   8.790
42242SOL    HW228566   5.053  12.538   8.894
42243SOL     OW28567   9.612   1.083  10.592
42243SOL    HW128568   9.704   1.059  10.608
42243SOL    HW228569   9.615   1.139  10.515
42244SOL     OW28570   8.307   2.258  11.328
42244SOL    HW128571   8.268   2.344  11.312
42244SOL    HW228572   8.320   2.254  11.423
42245SOL     OW28573   1.815   3.752  10.590
42245SOL    HW128574   1.727   3.727  10.564
42245SOL    HW228575   1.814   3.748  10.686
42246SOL     OW28576   9.967   2.654   9.155
42246SOL    HW128577  10.047   2.661   9.208
42246SOL    HW228578   9.932   2.743   9.152
42247SOL     OW28579   5.095   5.200  11.641
42247SOL    HW128580   5.121   5.110  11.659
42247SOL    HW228581   5.127   5.217  11.552
42248SOL     OW28582  10.807   4.465   7.503
42248SOL    HW128583  10.732   4.509   7.542
42248SOL    HW228584  10.860   4.536   7.467
42249SOL     OW28585  10.622   6.349   2.720
42249SOL    HW128586  10.621   6.255   2.735
42249SOL    HW228587  10.576   6.386   2.795
42250SOL     OW28588   6.638  13.082   7.845
42250SOL    HW128589   6.581  13.065   7.920
42250SOL    HW228590   6.616  13.171   7.818
42251SOL     OW28591   1.591   4.464   1.931
42251SOL    HW128592   1.549   4.461   2.017
42251SOL    HW228593   1.523   4.498   1.873
42252SOL     OW28594  12.139   6.031   2.180
42252SOL    HW128595  12.069   5.989   2.230
42252SOL    HW228596  12.133   5.990   2.093
42253SOL     OW28597   0.074   6.446   6.204
42253SOL    HW128598  14.858   6.436   6.205
42253SOL    HW228599   0.105   6.374   6.150
42254SOL     OW28600   9.731  13.597   7.589
42254SOL    HW128601   9.808  13.541   7.580
42254SOL    HW228602   9.762  13.671   7.642
42255SOL     OW28603  10.821   2.935  14.402
42255SOL    HW128604  10.843   2.845  14.424
42255SOL    HW228605  10.791   2.932  14.312
42256SOL     OW28606   4.237   7.246   1.958
42256SOL    HW128607   4.143   7.239   1.942
42256SOL    HW228608   4.247   7.222   2.051
42257SOL     OW28609   9.488   7.868   5.633
42257SOL    HW128610   9.525   7.956   5.640
42257SOL    HW228611   9.439   7.856   5.714
42258SOL     OW28612   3.794   5.568  11.485
42258SOL    HW128613   3.881   5.581  11.446
42258SOL    HW228614   3.799   5.482  11.527
42259SOL     OW28615   1.361  12.309  13.845
42259SOL    HW128616   1.404  12.236  13.888
42259SOL    HW228617   1.397  12.311  13.756
42260SOL     OW28618   7.266  10.874   6.454
42260SOL    HW128619   7.239  10.880   6.546
42260SOL    HW228620   7.361  10.862   6.457
42261SOL     OW28621   7.805  12.339   7.158
42261SOL    HW128622   7.717  12.313   7.131
42261SOL    HW228623   7.818  12.425   7.118
42262SOL     OW28624  13.423   3.291  11.270
42262SOL    HW128625  13.391   3.331  11.351
42262SOL    HW228626  13.373   3.335  11.201
42263SOL     OW28627   6.684  11.513   6.325
42263SOL    HW128628   6.589  11.516   6.312
42263SOL    HW228629   6.708  11.602   6.348
42264SOL     OW28630  11.442  13.093   4.170
42264SOL    HW128631  11.483  13.007   4.161
42264SOL    HW228632  11.392  13.105   4.088
42265SOL     OW28633   1.869   1.250  12.681
42265SOL    HW128634   1.954   1.208  12.665
42265SOL    HW228635   1.890   1.329  12.730
42266SOL     OW28636   7.958  14.825   5.612
42266SOL    HW128637   7.869  14.849   5.637
42266SOL    HW228638   7.980  14.753   5.669
42267SOL     OW28639  10.273   3.932  11.971
42267SOL    HW128640  10.263   3.839  11.954
42267SOL    HW228641  10.335   3.937  12.044
42268SOL     OW28642   1.831   1.721  14.552
42268SOL    HW128643   1.873   1.721  14.466
42268SOL    HW228644   1.800   1.631  14.563
42269SOL     OW28645  13.968   3.397   0.055
42269SOL    HW128646  13.925   3.482   0.050
42269SOL    HW228647  14.059   3.416   0.075
42270SOL     OW28648   1.882   0.006  13.709
42270SOL    HW128649   1.926   0.083  13.743
42270SOL    HW228650   1.796   0.007  13.751
42271SOL     OW28651   3.010   7.618   6.363
42271SOL    HW128652   2.974   7.671   6.434
42271SOL    HW228653   3.098   7.595   6.393
42272SOL     OW28654   7.557   6.652   2.062
42272SOL    HW128655   7.641   6.635   2.106
42272SOL    HW228656   7.530   6.738   2.095
42273SOL     OW28657  14.551  12.206   8.333
42273SOL    HW128658  14.501  12.144   8.386
42273SOL    HW228659  14.512  12.291   8.352
42274SOL     OW28660   7.350   5.196  11.496
42274SOL    HW128661   7.346   5.285  11.530
42274SOL    HW228662   7.264   5.159  11.515
42275SOL     OW28663  13.238   7.534   9.206
42275SOL    HW128664  13.197   7.448   9.210
42275SOL    HW228665  13.312   7.523   9.147
42276SOL     OW28666   8.324  13.305   3.848
42276SOL    HW128667   8.238  13.269   3.829
42276SOL    HW228668   8.369  13.305   3.764
42277SOL     OW28669   4.182  14.730   5.783
42277SOL    HW128670   4.151  14.815   5.814
42277SOL    HW228671   4.277  14.734   5.795
42278SOL     OW28672   4.311   2.379  13.558
42278SOL    HW128673   4.221   2.376  13.525
42278SOL    HW228674   4.363   2.337  13.489
42279SOL     OW28675  10.285   7.750  11.697
42279SOL    HW128676  10.288   7.791  11.610
42279SOL    HW228677  10.259   7.821  11.756
42280SOL     OW28678   9.522   0.573  12.423
42280SOL    HW128679   9.497   0.605  12.336
42280SOL    HW228680   9.448   0.519  12.451
42281SOL     OW28681  13.526   1.103   3.563
42281SOL    HW128682  13.562   1.157   3.493
42281SOL    HW228683  13.534   1.157   3.642
42282SOL     OW28684  14.839   4.958  11.572
42282SOL    HW128685   0.049   4.990  11.563
42282SOL    HW228686  14.842   4.867  11.543
42283SOL     OW28687  11.839  14.129  12.813
42283SOL    HW128688  11.816  14.047  12.771
42283SOL    HW228689  11.828  14.112  12.907
42284SOL     OW28690   3.746  10.262   9.701
42284SOL    HW128691   3.678  10.326   9.680
42284SOL    HW228692   3.702  10.199   9.759
42285SOL     OW28693  12.952   9.310   0.090
42285SOL    HW128694  12.934   9.402   0.108
42285SOL    HW228695  12.867   9.267   0.094
42286SOL     OW28696   3.960  14.250  14.718
42286SOL    HW128697   3.950  14.307  14.641
42286SOL    HW228698   3.927  14.166  14.689
42287SOL     OW28699   4.178   7.279  10.917
42287SOL    HW128700   4.159   7.370  10.894
42287SOL    HW228701   4.190   7.279  11.012
42288SOL     OW28702   0.057   3.951  11.028
42288SOL    HW128703   0.108   3.973  11.106
42288SOL    HW228704  14.868   3.893  11.060
42289SOL     OW28705  13.907  13.909   7.137
42289SOL    HW128706  13.968  13.864   7.078
42289SOL    HW228707  13.953  13.990   7.161
42290SOL     OW28708  13.973   4.484  12.710
42290SOL    HW128709  13.877   4.481  12.711
42290SOL    HW228710  14.000   4.396  12.735
42291SOL     OW28711   5.734   5.195   4.627
42291SOL    HW128712   5.738   5.101   4.613
42291SOL    HW228713   5.822   5.226   4.607
42292SOL     OW28714   5.621  13.429   8.118
42292SOL    HW128715   5.699  13.398   8.071
42292SOL    HW228716   5.630  13.392   8.206
42293SOL     OW28717  11.771  12.630  14.340
42293SOL    HW128718  11.836  12.561  14.324
42293SOL    HW228719  11.785  12.656  14.431
42294SOL     OW28720   5.782  10.981   0.941
42294SOL    HW128721   5.860  10.961   0.993
42294SOL    HW228722   5.738  11.051   0.991
42295SOL     OW28723  11.327   6.135   5.928
42295SOL    HW128724  11.403   6.131   5.870
42295SOL    HW228725  11.361   6.167   6.011
42296SOL     OW28726   7.035   4.491   6.917
42296SOL    HW128727   7.062   4.567   6.865
42296SOL    HW228728   6.968   4.449   6.863
42297SOL     OW28729  10.469   9.092   9.782
42297SOL    HW128730  10.505   9.091   9.693
42297SOL    HW228731  10.375   9.107   9.769
42298SOL     OW28732   9.676   2.612   4.263
42298SOL    HW128733   9.727   2.551   4.210
42298SOL    HW228734   9.638   2.559   4.332
42299SOL     OW28735   6.354   5.719   6.227
42299SOL    HW128736   6.427   5.779   6.244
42299SOL    HW228737   6.381   5.670   6.149
42300SOL     OW28738   2.109   7.886   8.802
42300SOL    HW128739   2.028   7.903   8.851
42300SOL    HW228740   2.125   7.966   8.753
42301SOL     OW28741  14.660   1.116  14.325
42301SOL    HW128742  14.652   1.193  14.381
42301SOL    HW228743  14.596   1.054  14.359
42302SOL     OW28744   6.743   7.396  10.926
42302SOL    HW128745   6.731   7.301  10.917
42302SOL    HW228746   6.837   7.409  10.923
42303SOL     OW28747   7.078   8.868   6.357
42303SOL    HW128748   7.012   8.825   6.303
42303SOL    HW228749   7.040   8.873   6.444
42304SOL     OW28750   6.208   9.713  13.257
42304SOL    HW128751   6.169   9.788  13.213
42304SOL    HW228752   6.274   9.680  13.196
42305SOL     OW28753   9.644  12.688   1.303
42305SOL    HW128754   9.555  12.696   1.268
42305SOL    HW228755   9.635  12.624   1.374
42306SOL     OW28756   3.695   8.489  10.084
42306SOL    HW128757   3.675   8.533  10.001
42306SOL    HW228758   3.691   8.559  10.149
42307SOL     OW28759   6.278   7.096   6.637
42307SOL    HW128760   6.371   7.083   6.616
42307SOL    HW228761   6.260   7.028   6.702
42308SOL     OW28762   8.250  12.802   5.563
42308SOL    HW128763   8.216  12.880   5.519
42308SOL    HW228764   8.181  12.777   5.624
42309SOL     OW28765  10.852  13.376  12.674
42309SOL    HW128766  10.869  13.296  12.624
42309SOL    HW228767  10.776  13.415  12.632
42310SOL     OW28768   9.320   0.304   1.412
42310SOL    HW128769   9.254   0.260   1.359
42310SOL    HW228770   9.315   0.261   1.497
42311SOL     OW28771  11.809   7.914  11.063
42311SOL    HW128772  11.797   7.899  11.157
42311SOL    HW228773  11.782   7.831  11.023
42312SOL     OW28774  11.837  10.743   1.159
42312SOL    HW128775  11.812  10.727   1.250
42312SOL    HW228776  11.901  10.674   1.140
42313SOL     OW28777   0.243   8.526  11.534
42313SOL    HW128778   0.205   8.524  11.446
42313SOL    HW228779   0.187   8.467  11.586
42314SOL     OW28780   6.330   9.431   7.598
42314SOL    HW128781   6.383   9.408   7.675
42314SOL    HW228782   6.332   9.527   7.595
42315SOL     OW28783   6.966  12.866   7.344
42315SOL    HW128784   6.907  12.835   7.412
42315SOL    HW228785   6.969  12.795   7.280
42316SOL     OW28786   6.209   9.317  12.175
42316SOL    HW128787   6.235   9.377  12.245
42316SOL    HW228788   6.245   9.233  12.202
42317SOL     OW28789  12.934  10.572   1.726
42317SOL    HW128790  12.990  10.596   1.653
42317SOL    HW228791  12.883  10.497   1.694
42318SOL     OW28792   2.843   8.308   8.063
42318SOL    HW128793   2.795   8.387   8.037
42318SOL    HW228794   2.901   8.289   7.990
42319SOL     OW28795   1.877   1.131   1.633
42319SOL    HW128796   1.907   1.222   1.629
42319SOL    HW228797   1.811   1.131   1.702
42320SOL     OW28798   6.529  10.657   6.389
42320SOL    HW128799   6.611  10.646   6.437
42320SOL    HW228800   6.522  10.751   6.375
42321SOL     OW28801   7.379  11.656   6.888
42321SOL    HW128802   7.409  11.589   6.949
42321SOL    HW228803   7.325  11.715   6.941
42322SOL     OW28804   9.890   0.080  11.151
42322SOL    HW128805   9.965   0.040  11.197
42322SOL    HW228806   9.817   0.021  11.167
42323SOL     OW28807   8.971   5.944   1.814
42323SOL    HW128808   8.940   5.971   1.727
42323SOL    HW228809   8.944   5.853   1.822
42324SOL     OW28810   4.212   7.715   8.284
42324SOL    HW128811   4.222   7.729   8.190
42324SOL    HW228812   4.178   7.626   8.291
42325SOL     OW28813   3.045   5.707  13.597
42325SOL    HW128814   2.997   5.689  13.516
42325SOL    HW228815   3.116   5.766  13.571
42326SOL     OW28816   9.887  10.680  14.505
42326SOL    HW128817   9.888  10.608  14.569
42326SOL    HW228818   9.799  10.717  14.513
42327SOL     OW28819   6.125   1.120   5.766
42327SOL    HW128820   6.070   1.086   5.695
42327SOL    HW228821   6.064   1.141   5.836
42328SOL     OW28822   8.811  10.898  11.254
42328SOL    HW128823   8.730  10.892  11.203
42328SOL    HW228824   8.870  10.951  11.201
42329SOL     OW28825   8.542   0.157  12.248
42329SOL    HW128826   8.450   0.143  12.228
42329SOL    HW228827   8.588   0.134  12.167
42330SOL     OW28828   5.259   4.982   8.278
42330SOL    HW128829   5.218   5.046   8.336
42330SOL    HW228830   5.253   5.022   8.191
42331SOL     OW28831   8.818   6.443   1.494
42331SOL    HW128832   8.854   6.499   1.563
42331SOL    HW228833   8.748   6.395   1.538
42332SOL     OW28834  10.909   5.327   7.410
42332SOL    HW128835  10.871   5.240   7.403
42332SOL    HW228836  10.938   5.333   7.501
42333SOL     OW28837   0.374  10.712   8.360
42333SOL    HW128838   0.387  10.683   8.270
42333SOL    HW228839   0.349  10.804   8.353
42334SOL     OW28840   1.242  12.539   9.628
42334SOL    HW128841   1.316  12.495   9.587
42334SOL    HW228842   1.259  12.633   9.613
42335SOL     OW28843   4.263   3.986  11.268
42335SOL    HW128844   4.205   3.915  11.298
42335SOL    HW228845   4.210   4.033  11.204
42336SOL     OW28846   7.749  14.472   1.172
42336SOL    HW128847   7.656  14.449   1.175
42336SOL    HW228848   7.759  14.542   1.237
42337SOL     OW28849  10.037  11.487   7.170
42337SOL    HW128850   9.991  11.414   7.130
42337SOL    HW228851  10.107  11.447   7.221
42338SOL     OW28852  13.813   7.148  13.954
42338SOL    HW128853  13.859   7.113  13.878
42338SOL    HW228854  13.829   7.084  14.023
42339SOL     OW28855  13.872  11.338   0.835
42339SOL    HW128856  13.903  11.278   0.768
42339SOL    HW228857  13.854  11.420   0.789
42340SOL     OW28858   4.286   4.300  12.195
42340SOL    HW128859   4.348   4.279  12.264
42340SOL    HW228860   4.337   4.347  12.129
42341SOL     OW28861   5.706   8.890   2.200
42341SOL    HW128862   5.688   8.976   2.163
42341SOL    HW228863   5.630   8.837   2.174
42342SOL     OW28864   2.157   6.558   8.326
42342SOL    HW128865   2.188   6.571   8.416
42342SOL    HW228866   2.062   6.570   8.331
42343SOL     OW28867   5.265  10.712  10.262
42343SOL    HW128868   5.190  10.738  10.209
42343SOL    HW228869   5.250  10.753  10.348
42344SOL     OW28870   3.890   0.544   3.320
42344SOL    HW128871   3.859   0.630   3.349
42344SOL    HW228872   3.972   0.530   3.367
42345SOL     OW28873   5.925  11.816   8.020
42345SOL    HW128874   5.951  11.882   8.084
42345SOL    HW228875   5.958  11.733   8.055
42346SOL     OW28876  14.759   7.625  11.063
42346SOL    HW128877  14.777   7.654  11.153
42346SOL    HW228878  14.747   7.531  11.070
42347SOL     OW28879   2.308   9.799  12.942
42347SOL    HW128880   2.302   9.715  12.897
42347SOL    HW228881   2.253   9.788  13.020
42348SOL     OW28882  11.086   4.965   4.826
42348SOL    HW128883  11.055   5.041   4.875
42348SOL    HW228884  11.024   4.896   4.847
42349SOL     OW28885  14.777   8.809   3.145
42349SOL    HW128886  14.753   8.833   3.234
42349SOL    HW228887  14.775   8.713   3.144
42350SOL     OW28888  12.628   8.925  13.188
42350SOL    HW128889  12.666   8.902  13.103
42350SOL    HW228890  12.597   8.842  13.224
42351SOL     OW28891   3.923   3.912  13.127
42351SOL    HW128892   3.863   3.869  13.188
42351SOL    HW228893   4.006   3.866  13.139
42352SOL     OW28894   8.143   7.555   2.850
42352SOL    HW128895   8.065   7.591   2.893
42352SOL    HW228896   8.168   7.480   2.905
42353SOL     OW28897  13.513  10.553   3.927
42353SOL    HW128898  13.605  10.550   3.953
42353SOL    HW228899  13.513  10.603   3.845
42354SOL     OW28900   4.528   7.559   5.423
42354SOL    HW128901   4.612   7.600   5.444
42354SOL    HW228902   4.497   7.606   5.346
42355SOL     OW28903   5.626  11.001   1.961
42355SOL    HW128904   5.709  10.965   1.928
42355SOL    HW228905   5.637  11.003   2.056
42356SOL     OW28906  10.376  12.845  12.259
42356SOL    HW128907  10.306  12.806  12.207
42356SOL    HW228908  10.444  12.866  12.196
42357SOL     OW28909   7.813  13.894   3.067
42357SOL    HW128910   7.724  13.867   3.047
42357SOL    HW228911   7.845  13.933   2.986
42358SOL     OW28912  11.460   2.015   0.732
42358SOL    HW128913  11.488   2.094   0.779
42358SOL    HW228914  11.456   2.042   0.641
42359SOL     OW28915   7.565  13.438  12.514
42359SOL    HW128916   7.489  13.477  12.557
42359SOL    HW228917   7.632  13.507  12.516
42360SOL     OW28918  10.061  11.426   1.822
42360SOL    HW128919   9.976  11.461   1.848
42360SOL    HW228920  10.073  11.456   1.732
42361SOL     OW28921   1.567   5.046  13.301
42361SOL    HW128922   1.580   4.951  13.305
42361SOL    HW228923   1.496   5.058  13.238
42362SOL     OW28924   8.838   8.616   8.604
42362SOL    HW128925   8.828   8.527   8.571
42362SOL    HW228926   8.849   8.606   8.698
42363SOL     OW28927  10.758  10.573   5.121
42363SOL    HW128928  10.726  10.604   5.037
42363SOL    HW228929  10.702  10.616   5.185
42364SOL     OW28930   6.475  13.389   0.555
42364SOL    HW128931   6.426  13.410   0.634
42364SOL    HW228932   6.450  13.458   0.493
42365SOL     OW28933  14.728   2.149   4.666
42365SOL    HW128934  14.802   2.210   4.668
42365SOL    HW228935  14.766   2.066   4.636
42366SOL     OW28936   7.170   1.210   0.725
42366SOL    HW128937   7.091   1.238   0.772
42366SOL    HW228938   7.222   1.164   0.791
42367SOL     OW28939   3.486  11.176   5.651
42367SOL    HW128940   3.513  11.154   5.562
42367SOL    HW228941   3.560  11.226   5.687
42368SOL     OW28942  14.270   7.116   1.352
42368SOL    HW128943  14.213   7.126   1.276
42368SOL    HW228944  14.355   7.148   1.322
42369SOL     OW28945  11.908   3.542   8.622
42369SOL    HW128946  11.946   3.483   8.687
42369SOL    HW228947  11.846   3.488   8.574
42370SOL     OW28948   3.502   5.115   2.432
42370SOL    HW128949   3.519   5.036   2.482
42370SOL    HW228950   3.476   5.084   2.345
42371SOL     OW28951   6.725  11.714   2.696
42371SOL    HW128952   6.806  11.668   2.720
42371SOL    HW228953   6.655  11.652   2.718
42372SOL     OW28954  14.696   8.188   3.358
42372SOL    HW128955  14.763   8.121   3.342
42372SOL    HW228956  14.705   8.209   3.451
42373SOL     OW28957   2.813   7.441  13.243
42373SOL    HW128958   2.827   7.533  13.263
42373SOL    HW228959   2.776   7.441  13.155
42374SOL     OW28960   9.726   2.866   9.770
42374SOL    HW128961   9.800   2.833   9.822
42374SOL    HW228962   9.711   2.799   9.704
42375SOL     OW28963   6.978   5.557   6.711
42375SOL    HW128964   7.023   5.587   6.790
42375SOL    HW228965   7.045   5.564   6.642
42376SOL     OW28966   7.569   7.231   1.312
42376SOL    HW128967   7.584   7.279   1.230
42376SOL    HW228968   7.657   7.221   1.350
42377SOL     OW28969  10.583  11.201   6.927
42377SOL    HW128970  10.676  11.219   6.935
42377SOL    HW228971  10.578  11.106   6.916
42378SOL     OW28972  13.674   5.528   0.885
42378SOL    HW128973  13.739   5.528   0.815
42378SOL    HW228974  13.713   5.578   0.956
42379SOL     OW28975   0.986  11.458   1.914
42379SOL    HW128976   1.061  11.459   1.973
42379SOL    HW228977   1.015  11.407   1.839
42380SOL     OW28978  12.372   8.940   0.631
42380SOL    HW128979  12.285   8.950   0.591
42380SOL    HW228980  12.367   8.859   0.680
42381SOL     OW28981   9.075   2.552   2.418
42381SOL    HW128982   9.170   2.552   2.416
42381SOL    HW228983   9.048   2.500   2.343
42382SOL     OW28984  14.555  10.063   9.891
42382SOL    HW128985  14.546   9.972   9.862
42382SOL    HW228986  14.648  10.083   9.876
42383SOL     OW28987   3.702   4.644  11.343
42383SOL    HW128988   3.679   4.559  11.381
42383SOL    HW228989   3.796   4.638  11.327
42384SOL     OW28990   5.143   3.539  11.549
42384SOL    HW128991   5.212   3.581  11.600
42384SOL    HW228992   5.152   3.578  11.461
42385SOL     OW28993   6.406   7.230   5.795
42385SOL    HW128994   6.390   7.139   5.817
42385SOL    HW228995   6.324   7.275   5.817
42386SOL     OW28996  10.021  11.544   4.981
42386SOL    HW128997   9.968  11.598   5.039
42386SOL    HW228998  10.111  11.574   4.995
42387SOL     OW28999   2.263   5.533   5.106
42387SOL    HW129000   2.261   5.623   5.074
42387SOL    HW229001   2.174   5.501   5.093
42388SOL     OW29002   6.225   9.365   4.931
42388SOL    HW129003   6.304   9.312   4.921
42388SOL    HW229004   6.235   9.406   5.017
42389SOL     OW29005  13.855   7.687  10.332
42389SOL    HW129006  13.771   7.727  10.310
42389SOL    HW229007  13.835   7.594  10.344
42390SOL     OW29008  11.183  14.004   2.842
42390SOL    HW129009  11.182  13.928   2.784
42390SOL    HW229010  11.096  14.043   2.832
42391SOL     OW29011   3.010  13.696   9.558
42391SOL    HW129012   3.100  13.667   9.576
42391SOL    HW229013   2.968  13.700   9.643
42392SOL     OW29014  13.288  12.407   3.132
42392SOL    HW129015  13.283  12.372   3.221
42392SOL    HW229016  13.204  12.385   3.093
42393SOL     OW29017  13.044  10.012   3.110
42393SOL    HW129018  13.068   9.925   3.142
42393SOL    HW229019  13.124  10.046   3.071
42394SOL     OW29020   3.931   3.831  14.193
42394SOL    HW129021   3.877   3.902  14.230
42394SOL    HW229022   3.918   3.838  14.098
42395SOL     OW29023   8.353   0.459  12.637
42395SOL    HW129024   8.289   0.463  12.566
42395SOL    HW229025   8.401   0.378  12.622
42396SOL     OW29026   6.108   9.578   1.269
42396SOL    HW129027   6.072   9.589   1.357
42396SOL    HW229028   6.070   9.495   1.238
42397SOL     OW29029   6.574  12.774  11.602
42397SOL    HW129030   6.535  12.815  11.679
42397SOL    HW229031   6.534  12.820  11.528
42398SOL     OW29032   2.204   3.749   1.658
42398SOL    HW129033   2.249   3.762   1.574
42398SOL    HW229034   2.273   3.759   1.724
42399SOL     OW29035  12.974  10.577   6.206
42399SOL    HW129036  13.013  10.495   6.234
42399SOL    HW229037  13.031  10.610   6.137
42400SOL     OW29038   9.208   3.279  12.519
42400SOL    HW129039   9.142   3.295  12.587
42400SOL    HW229040   9.164   3.222  12.456
42401SOL     OW29041   6.850  10.805   3.755
42401SOL    HW129042   6.915  10.742   3.785
42401SOL    HW229043   6.771  10.783   3.804
42402SOL     OW29044  14.865  10.687  10.438
42402SOL    HW129045   0.029  10.620  10.491
42402SOL    HW229046  14.819  10.637  10.370
42403SOL     OW29047   1.721  10.399  11.340
42403SOL    HW129048   1.683  10.314  11.362
42403SOL    HW229049   1.812  10.380  11.315
42404SOL     OW29050   4.879   6.538   7.925
42404SOL    HW129051   4.959   6.504   7.965
42404SOL    HW229052   4.910   6.597   7.856
42405SOL     OW29053   4.448  10.688  12.870
42405SOL    HW129054   4.534  10.659  12.840
42405SOL    HW229055   4.409  10.610  12.910
42406SOL     OW29056   0.709   3.529  11.778
42406SOL    HW129057   0.796   3.504  11.747
42406SOL    HW229058   0.694   3.474  11.855
42407SOL     OW29059  14.257  13.564  11.802
42407SOL    HW129060  14.164  13.550  11.785
42407SOL    HW229061  14.259  13.631  11.870
42408SOL     OW29062  12.511   7.206   8.868
42408SOL    HW129063  12.451   7.166   8.806
42408SOL    HW229064  12.503   7.300   8.853
42409SOL     OW29065  14.779   2.133   5.050
42409SOL    HW129066  14.773   2.040   5.071
42409SOL    HW229067  14.699   2.152   5.001
42410SOL     OW29068   4.298   6.385   5.953
42410SOL    HW129069   4.288   6.322   5.881
42410SOL    HW229070   4.382   6.362   5.993
42411SOL     OW29071   5.007   3.965   3.119
42411SOL    HW129072   5.102   3.961   3.113
42411SOL    HW229073   4.989   3.982   3.211
42412SOL     OW29074   6.383   7.775   7.233
42412SOL    HW129075   6.413   7.865   7.245
42412SOL    HW229076   6.452   7.722   7.273
42413SOL     OW29077  13.591   6.625   0.043
42413SOL    HW129078  13.643   6.567   0.099
42413SOL    HW229079  13.655   6.672  14.870
42414SOL     OW29080   1.133   9.508   6.704
42414SOL    HW129081   1.154   9.488   6.612
42414SOL    HW229082   1.193   9.453   6.754
42415SOL     OW29083   7.460   3.687  14.246
42415SOL    HW129084   7.403   3.632  14.193
42415SOL    HW229085   7.420   3.685  14.333
42416SOL     OW29086  14.830   2.199   3.705
42416SOL    HW129087   0.036   2.235   3.730
42416SOL    HW229088  14.797   2.259   3.639
42417SOL     OW29089   5.056   9.683   3.874
42417SOL    HW129090   5.074   9.697   3.781
42417SOL    HW229091   5.133   9.637   3.907
42418SOL     OW29092   9.439   7.843  10.465
42418SOL    HW129093   9.492   7.810  10.392
42418SOL    HW229094   9.444   7.774  10.531
42419SOL     OW29095  12.907   9.562   3.477
42419SOL    HW129096  12.902   9.657   3.471
42419SOL    HW229097  13.000   9.542   3.468
42420SOL     OW29098   1.457  13.344   9.022
42420SOL    HW129099   1.427  13.362   8.933
42420SOL    HW229100   1.538  13.294   9.010
42421SOL     OW29101   8.113   8.881  11.236
42421SOL    HW129102   8.110   8.788  11.210
42421SOL    HW229103   8.025   8.913  11.219
42422SOL     OW29104   2.573   6.028   8.307
42422SOL    HW129105   2.611   6.059   8.225
42422SOL    HW229106   2.546   5.938   8.289
42423SOL     OW29107   7.712   6.472   2.298
42423SOL    HW129108   7.792   6.420   2.310
42423SOL    HW229109   7.644   6.407   2.281
42424SOL     OW29110  10.075   1.598   2.986
42424SOL    HW129111  10.105   1.688   2.977
42424SOL    HW229112  10.008   1.588   2.919
42425SOL     OW29113   1.927  13.116   5.364
42425SOL    HW129114   1.982  13.065   5.423
42425SOL    HW229115   1.935  13.206   5.395
42426SOL     OW29116   6.026  11.533  10.415
42426SOL    HW129117   6.062  11.589  10.483
42426SOL    HW229118   6.067  11.447  10.431
42427SOL     OW29119  10.492   1.971   3.982
42427SOL    HW129120  10.431   1.967   4.056
42427SOL    HW229121  10.546   1.893   3.991
42428SOL     OW29122   6.107   4.230   7.961
42428SOL    HW129123   6.029   4.182   7.930
42428SOL    HW229124   6.087   4.252   8.051
42429SOL     OW29125   7.804   3.379   6.198
42429SOL    HW129126   7.770   3.389   6.110
42429SOL    HW229127   7.734   3.411   6.255
42430SOL     OW29128   8.652  12.983  10.787
42430SOL    HW129129   8.691  13.038  10.855
42430SOL    HW229130   8.604  12.916  10.835
42431SOL     OW29131   4.307  11.339  10.996
42431SOL    HW129132   4.351  11.423  10.989
42431SOL    HW229133   4.365  11.277  10.951
42432SOL     OW29134   6.355   3.709   7.362
42432SOL    HW129135   6.419   3.768   7.322
42432SOL    HW229136   6.405   3.660   7.428
42433SOL     OW29137   5.823  13.607   2.918
42433SOL    HW129138   5.868  13.691   2.907
42433SOL    HW229139   5.846  13.557   2.840
42434SOL     OW29140   2.903   4.979   3.166
42434SOL    HW129141   2.911   4.889   3.197
42434SOL    HW229142   2.911   5.033   3.245
42435SOL     OW29143   6.472   8.063   7.859
42435SOL    HW129144   6.536   8.064   7.788
42435SOL    HW229145   6.519   8.025   7.933
42436SOL     OW29146  12.705   3.951   2.965
42436SOL    HW129147  12.624   3.911   2.932
42436SOL    HW229148  12.712   3.922   3.055
42437SOL     OW29149  12.649   2.711   5.251
42437SOL    HW129150  12.584   2.680   5.189
42437SOL    HW229151  12.702   2.634   5.271
42438SOL     OW29152   3.340   4.448  10.247
42438SOL    HW129153   3.349   4.456  10.152
42438SOL    HW229154   3.267   4.388  10.259
42439SOL     OW29155   0.226   8.147  10.419
42439SOL    HW129156   0.266   8.223  10.377
42439SOL    HW229157   0.259   8.149  10.508
42440SOL     OW29158   7.489   7.324   5.947
42440SOL    HW129159   7.466   7.232   5.955
42440SOL    HW229160   7.406   7.371   5.952
42441SOL     OW29161   9.299  10.574   6.571
42441SOL    HW129162   9.388  10.586   6.539
42441SOL    HW229163   9.310  10.541   6.660
42442SOL     OW29164   0.328   0.116   2.918
42442SOL    HW129165   0.279   0.042   2.956
42442SOL    HW229166   0.267   0.190   2.924
42443SOL     OW29167  10.124   9.748   4.566
42443SOL    HW129168  10.126   9.655   4.589
42443SOL    HW229169  10.213   9.769   4.539
42444SOL     OW29170   0.251  11.825   9.737
42444SOL    HW129171   0.221  11.914   9.721
42444SOL    HW229172   0.171  11.773   9.741
42445SOL     OW29173   6.659   5.049   5.487
42445SOL    HW129174   6.656   5.047   5.392
42445SOL    HW229175   6.591   5.113   5.511
42446SOL     OW29176  12.072  13.955   2.917
42446SOL    HW129177  12.095  13.900   2.991
42446SOL    HW229178  11.982  13.982   2.934
42447SOL     OW29179   5.025   6.990   3.344
42447SOL    HW129180   5.068   6.946   3.271
42447SOL    HW229181   4.955   7.041   3.304
42448SOL     OW29182   7.505   1.134   2.062
42448SOL    HW129183   7.443   1.064   2.041
42448SOL    HW229184   7.590   1.092   2.060
42449SOL     OW29185  13.591   4.812   1.598
42449SOL    HW129186  13.654   4.787   1.531
42449SOL    HW229187  13.553   4.894   1.566
42450SOL     OW29188  10.971  10.575   5.873
42450SOL    HW129189  11.033  10.634   5.830
42450SOL    HW229190  10.887  10.593   5.830
42451SOL     OW29191   7.262  11.526   1.913
42451SOL    HW129192   7.217  11.489   1.989
42451SOL    HW229193   7.211  11.605   1.891
42452SOL     OW29194   9.761   9.887  10.439
42452SOL    HW129195   9.727   9.972  10.469
42452SOL    HW229196   9.856   9.897  10.442
42453SOL     OW29197   2.492  14.296  13.447
42453SOL    HW129198   2.504  14.204  13.469
42453SOL    HW229199   2.397  14.309  13.448
42454SOL     OW29200  10.588   2.975  10.795
42454SOL    HW129201  10.636   2.988  10.712
42454SOL    HW229202  10.626   2.895  10.832
42455SOL     OW29203  12.524  10.353  14.498
42455SOL    HW129204  12.571  10.290  14.553
42455SOL    HW229205  12.542  10.438  14.537
42456SOL     OW29206   1.253  10.794   0.390
42456SOL    HW129207   1.325  10.741   0.355
42456SOL    HW229208   1.176  10.760   0.345
42457SOL     OW29209   9.313   8.350  11.734
42457SOL    HW129210   9.372   8.408  11.685
42457SOL    HW229211   9.246   8.325  11.670
42458SOL     OW29212  12.152   6.364   8.474
42458SOL    HW129213  12.075   6.403   8.515
42458SOL    HW229214  12.118   6.315   8.399
42459SOL     OW29215  10.666   1.932  13.412
42459SOL    HW129216  10.615   1.992  13.357
42459SOL    HW229217  10.636   1.845  13.387
42460SOL     OW29218  11.869   1.771   7.721
42460SOL    HW129219  11.914   1.829   7.782
42460SOL    HW229220  11.891   1.682   7.750
42461SOL     OW29221   6.352   8.890   3.261
42461SOL    HW129222   6.431   8.938   3.240
42461SOL    HW229223   6.382   8.814   3.312
42462SOL     OW29224   7.077   8.565   2.456
42462SOL    HW129225   7.002   8.585   2.399
42462SOL    HW229226   7.039   8.515   2.528
42463SOL     OW29227  13.389   4.381   9.959
42463SOL    HW129228  13.460   4.318   9.974
42463SOL    HW229229  13.408   4.418   9.873
42464SOL     OW29230   6.412  13.041   6.405
42464SOL    HW129231   6.429  12.987   6.482
42464SOL    HW229232   6.381  13.124   6.441
42465SOL     OW29233   3.470   8.346   5.962
42465SOL    HW129234   3.470   8.277   5.896
42465SOL    HW229235   3.516   8.307   6.036
42466SOL     OW29236   6.974   5.482  14.538
42466SOL    HW129237   7.020   5.476  14.454
42466SOL    HW229238   7.018   5.417  14.594
42467SOL     OW29239  13.811   7.713   1.301
42467SOL    HW129240  13.742   7.681   1.360
42467SOL    HW229241  13.789   7.675   1.216
42468SOL     OW29242   3.082  12.270  14.277
42468SOL    HW129243   3.029  12.266  14.197
42468SOL    HW229244   3.046  12.201  14.333
42469SOL     OW29245   7.416  10.800  13.576
42469SOL    HW129246   7.409  10.837  13.488
42469SOL    HW229247   7.428  10.876  13.634
42470SOL     OW29248   0.743  14.524   3.194
42470SOL    HW129249   0.817  14.465   3.207
42470SOL    HW229250   0.678  14.471   3.147
42471SOL     OW29251   7.434  11.585   3.406
42471SOL    HW129252   7.458  11.645   3.335
42471SOL    HW229253   7.516  11.563   3.448
42472SOL     OW29254   3.602  12.124   6.676
42472SOL    HW129255   3.640  12.117   6.764
42472SOL    HW229256   3.621  12.213   6.649
42473SOL     OW29257   9.277   8.498   8.907
42473SOL    HW129258   9.324   8.523   8.986
42473SOL    HW229259   9.196   8.549   8.911
42474SOL     OW29260   5.535   5.891   8.402
42474SOL    HW129261   5.507   5.860   8.488
42474SOL    HW229262   5.545   5.986   8.413
42475SOL     OW29263   2.896  12.822   6.186
42475SOL    HW129264   2.807  12.832   6.151
42475SOL    HW229265   2.948  12.789   6.113
42476SOL     OW29266   2.226   1.401  14.173
42476SOL    HW129267   2.285   1.466  14.212
42476SOL    HW229268   2.140   1.421  14.211
42477SOL     OW29269  11.514  13.520   0.426
42477SOL    HW129270  11.559  13.540   0.344
42477SOL    HW229271  11.498  13.426   0.423
42478SOL     OW29272   4.309   6.288   2.518
42478SOL    HW129273   4.361   6.208   2.507
42478SOL    HW229274   4.247   6.285   2.446
42479SOL     OW29275   0.720  14.239   4.389
42479SOL    HW129276   0.795  14.297   4.405
42479SOL    HW229277   0.758  14.151   4.387
42480SOL     OW29278  12.959   2.145   8.599
42480SOL    HW129279  12.956   2.158   8.694
42480SOL    HW229280  13.047   2.173   8.573
42481SOL     OW29281  11.516  13.090   2.172
42481SOL    HW129282  11.475  13.028   2.112
42481SOL    HW229283  11.576  13.140   2.117
42482SOL     OW29284  11.956   7.839  12.122
42482SOL    HW129285  11.887   7.791  12.167
42482SOL    HW229286  11.944   7.930  12.148
42483SOL     OW29287  11.788  12.504  12.905
42483SOL    HW129288  11.794  12.425  12.850
42483SOL    HW229289  11.835  12.571  12.855
42484SOL     OW29290   8.848  13.160   6.397
42484SOL    HW129291   8.767  13.201   6.365
42484SOL    HW229292   8.918  13.216   6.362
42485SOL     OW29293  14.444  12.687  10.641
42485SOL    HW129294  14.520  12.713  10.589
42485SOL    HW229295  14.390  12.636  10.582
42486SOL     OW29296   9.366  11.820  10.800
42486SOL    HW129297   9.298  11.881  10.828
42486SOL    HW229298   9.365  11.751  10.867
42487SOL     OW29299   2.327  11.242   6.648
42487SOL    HW129300   2.341  11.207   6.560
42487SOL    HW229301   2.400  11.304   6.661
42488SOL     OW29302  10.385   4.062  11.751
42488SOL    HW129303  10.361   4.015  11.831
42488SOL    HW229304  10.311   4.049  11.692
42489SOL     OW29305   2.012   1.372  13.873
42489SOL    HW129306   2.008   1.349  13.780
42489SOL    HW229307   1.985   1.292  13.919
42490SOL     OW29308  13.465   8.237   2.256
42490SOL    HW129309  13.414   8.161   2.283
42490SOL    HW229310  13.461   8.236   2.160
42491SOL     OW29311   5.232  11.915   2.277
42491SOL    HW129312   5.264  12.005   2.275
42491SOL    HW229313   5.300  11.867   2.324
42492SOL     OW29314   8.180   0.544  13.475
42492SOL    HW129315   8.102   0.547  13.420
42492SOL    HW229316   8.193   0.451  13.493
42493SOL     OW29317  13.320   9.981   1.226
42493SOL    HW129318  13.326   9.914   1.294
42493SOL    HW229319  13.403  10.028   1.231
42494SOL     OW29320   9.383   3.037   0.467
42494SOL    HW129321   9.386   2.947   0.500
42494SOL    HW229322   9.375   3.028   0.372
42495SOL     OW29323   4.269   4.147  14.222
42495SOL    HW129324   4.254   4.059  14.256
42495SOL    HW229325   4.321   4.134  14.142
42496SOL     OW29326  14.181   0.592   0.325
42496SOL    HW129327  14.087   0.575   0.324
42496SOL    HW229328  14.219   0.519   0.276
42497SOL     OW29329   2.533   1.470   5.450
42497SOL    HW129330   2.572   1.467   5.362
42497SOL    HW229331   2.495   1.383   5.463
42498SOL     OW29332   5.839   4.279   0.726
42498SOL    HW129333   5.811   4.208   0.784
42498SOL    HW229334   5.822   4.246   0.638
42499SOL     OW29335   4.520   7.843   0.729
42499SOL    HW129336   4.511   7.902   0.804
42499SOL    HW229337   4.447   7.781   0.738
42500SOL     OW29338   0.127   0.745   7.190
42500SOL    HW129339   0.148   0.775   7.101
42500SOL    HW229340   0.207   0.761   7.240
42501SOL     OW29341   2.687   9.230   9.354
42501SOL    HW129342   2.634   9.309   9.358
42501SOL    HW229343   2.644   9.168   9.413
42502SOL     OW29344   9.345   0.299   0.596
42502SOL    HW129345   9.420   0.327   0.543
42502SOL    HW229346   9.384   0.254   0.671
42503SOL     OW29347   4.450   9.653  13.426
42503SOL    HW129348   4.517   9.714  13.457
42503SOL    HW229349   4.381   9.708  13.390
42504SOL     OW29350   0.660  14.778   0.499
42504SOL    HW129351   0.625  14.804   0.584
42504SOL    HW229352   0.604  14.823   0.435
42505SOL     OW29353   3.796  14.145   6.144
42505SOL    HW129354   3.826  14.236   6.140
42505SOL    HW229355   3.872  14.096   6.176
42506SOL     OW29356   3.736   7.639  11.099
42506SOL    HW129357   3.796   7.713  11.116
42506SOL    HW229358   3.724   7.639  11.005
42507SOL     OW29359   5.592   0.212   5.988
42507SOL    HW129360   5.649   0.166   5.926
42507SOL    HW229361   5.603   0.165   6.070
42508SOL     OW29362  12.380  13.623   0.563
42508SOL    HW129363  12.462  13.661   0.596
42508SOL    HW229364  12.367  13.665   0.478
42509SOL     OW29365   6.538  14.710  14.057
42509SOL    HW129366   6.627  14.697  14.026
42509SOL    HW229367   6.483  14.674  13.988
42510SOL     OW29368   4.189  13.837   5.119
42510SOL    HW129369   4.224  13.809   5.034
42510SOL    HW229370   4.094  13.831   5.109
42511SOL     OW29371   9.725   7.837   8.532
42511SOL    HW129372   9.670   7.915   8.536
42511SOL    HW229373   9.664   7.763   8.532
42512SOL     OW29374   9.225   0.520   7.253
42512SOL    HW129375   9.302   0.468   7.272
42512SOL    HW229376   9.239   0.602   7.302
42513SOL     OW29377  12.256  10.969   2.983
42513SOL    HW129378  12.305  10.887   2.990
42513SOL    HW229379  12.293  11.025   3.051
42514SOL     OW29380  13.889   4.394   1.608
42514SOL    HW129381  13.841   4.321   1.568
42514SOL    HW229382  13.980   4.366   1.609
42515SOL     OW29383   4.193  10.965   9.307
42515SOL    HW129384   4.223  10.920   9.228
42515SOL    HW229385   4.245  10.927   9.378
42516SOL     OW29386   8.094  10.600   8.606
42516SOL    HW129387   8.132  10.588   8.519
42516SOL    HW229388   8.002  10.576   8.594
42517SOL     OW29389   8.040   0.192   8.213
42517SOL    HW129390   7.977   0.123   8.232
42517SOL    HW229391   8.113   0.148   8.170
42518SOL     OW29392   1.841   5.611  14.267
42518SOL    HW129393   1.826   5.684  14.327
42518SOL    HW229394   1.781   5.628  14.194
42519SOL     OW29395   7.634  12.679   8.510
42519SOL    HW129396   7.644  12.589   8.481
42519SOL    HW229397   7.597  12.725   8.434
42520SOL     OW29398   9.089  10.654   8.128
42520SOL    HW129399   9.003  10.644   8.087
42520SOL    HW229400   9.151  10.643   8.056
42521SOL     OW29401   5.887   5.049   7.120
42521SOL    HW129402   5.857   5.094   7.041
42521SOL    HW229403   5.918   4.964   7.088
42522SOL     OW29404   6.480   8.402  14.834
42522SOL    HW129405   6.489   8.455   0.034
42522SOL    HW229406   6.558   8.422  14.783
42523SOL     OW29407   2.198   2.674   5.219
42523SOL    HW129408   2.255   2.643   5.289
42523SOL    HW229409   2.117   2.699   5.263
42524SOL     OW29410   8.067  12.069   7.041
42524SOL    HW129411   8.053  12.134   7.109
42524SOL    HW229412   7.999  12.003   7.057
42525SOL     OW29413  14.408   7.607  13.502
42525SOL    HW129414  14.466   7.672  13.541
42525SOL    HW229415  14.342   7.590  13.569
42526SOL     OW29416   5.506  10.744   7.838
42526SOL    HW129417   5.425  10.721   7.793
42526SOL    HW229418   5.547  10.810   7.781
42527SOL     OW29419  11.354   3.261  10.225
42527SOL    HW129420  11.281   3.204  10.201
42527SOL    HW229421  11.332   3.345  10.187
42528SOL     OW29422   8.403   2.097  10.110
42528SOL    HW129423   8.449   2.076  10.191
42528SOL    HW229424   8.460   2.062  10.041
42529SOL     OW29425  10.655  13.953   7.231
42529SOL    HW129426  10.718  13.888   7.200
42529SOL    HW229427  10.626  13.998   7.152
42530SOL     OW29428  11.029   9.601   0.916
42530SOL    HW129429  10.989   9.667   0.860
42530SOL    HW229430  11.116   9.587   0.878
42531SOL     OW29431  10.119  10.744   7.597
42531SOL    HW129432  10.108  10.781   7.685
42531SOL    HW229433  10.168  10.663   7.611
42532SOL     OW29434  14.483  14.198   9.734
42532SOL    HW129435  14.491  14.103   9.742
42532SOL    HW229436  14.542  14.221   9.662
42533SOL     OW29437   0.801  11.651  12.002
42533SOL    HW129438   0.744  11.580  11.972
42533SOL    HW229439   0.758  11.683  12.082
42534SOL     OW29440  14.375   5.116  12.664
42534SOL    HW129441  14.303   5.097  12.604
42534SOL    HW229442  14.427   5.183  12.619
42535SOL     OW29443   9.637  11.363  12.031
42535SOL    HW129444   9.680  11.329  11.953
42535SOL    HW229445   9.573  11.297  12.054
42536SOL     OW29446   4.766  14.528   2.192
42536SOL    HW129447   4.725  14.568   2.269
42536SOL    HW229448   4.697  14.527   2.126
42537SOL     OW29449   0.118   6.329   7.519
42537SOL    HW129450   0.024   6.316   7.507
42537SOL    HW229451   0.134   6.418   7.487
42538SOL     OW29452   1.090   9.730  14.664
42538SOL    HW129453   1.010   9.728  14.611
42538SOL    HW229454   1.160   9.741  14.600
42539SOL     OW29455   3.095   8.939  12.084
42539SOL    HW129456   3.037   8.894  12.145
42539SOL    HW229457   3.157   8.987  12.140
42540SOL     OW29458   8.278  13.916  13.552
42540SOL    HW129459   8.244  13.906  13.641
42540SOL    HW229460   8.302  14.009  13.546
42541SOL     OW29461   1.842   1.458   5.574
42541SOL    HW129462   1.889   1.455   5.491
42541SOL    HW229463   1.885   1.393   5.629
42542SOL     OW29464  13.205   1.328  12.197
42542SOL    HW129465  13.121   1.372  12.213
42542SOL    HW229466  13.271   1.395  12.216
42543SOL     OW29467   7.912   2.608   9.743
42543SOL    HW129468   7.885   2.599   9.835
42543SOL    HW229469   8.004   2.584   9.742
42544SOL     OW29470  11.862   7.952   2.793
42544SOL    HW129471  11.813   7.924   2.715
42544SOL    HW229472  11.798   7.999   2.846
42545SOL     OW29473  12.210   4.398   8.725
42545SOL    HW129474  12.129   4.354   8.749
42545SOL    HW229475  12.277   4.330   8.729
42546SOL     OW29476   8.157   2.779   1.050
42546SOL    HW129477   8.152   2.815   0.961
42546SOL    HW229478   8.241   2.734   1.053
42547SOL     OW29479  11.997  13.805   9.360
42547SOL    HW129480  11.963  13.782   9.446
42547SOL    HW229481  11.919  13.834   9.311
42548SOL     OW29482   2.553   8.269   7.456
42548SOL    HW129483   2.545   8.202   7.524
42548SOL    HW229484   2.537   8.222   7.374
42549SOL     OW29485   6.139   7.151   7.414
42549SOL    HW129486   6.101   7.122   7.331
42549SOL    HW229487   6.088   7.230   7.436
42550SOL     OW29488  11.444   0.075   8.256
42550SOL    HW129489  11.348   0.072   8.259
42550SOL    HW229490  11.470   0.108   8.342
42551SOL     OW29491   8.424   0.860   7.880
42551SOL    HW129492   8.477   0.837   7.957
42551SOL    HW229493   8.447   0.951   7.862
42552SOL     OW29494  10.489  14.090  13.998
42552SOL    HW129495  10.416  14.102  14.059
42552SOL    HW229496  10.548  14.030  14.044
42553SOL     OW29497   3.634   9.159   3.650
42553SOL    HW129498   3.713   9.125   3.692
42553SOL    HW229499   3.566   9.096   3.671
42554SOL     OW29500   0.783   1.427   3.280
42554SOL    HW129501   0.784   1.346   3.230
42554SOL    HW229502   0.755   1.401   3.368
42555SOL     OW29503   4.562  14.173   5.830
42555SOL    HW129504   4.549  14.267   5.837
42555SOL    HW229505   4.630  14.153   5.895
42556SOL     OW29506   8.338   6.830   9.570
42556SOL    HW129507   8.311   6.914   9.534
42556SOL    HW229508   8.296   6.826   9.656
42557SOL     OW29509   9.433  11.158   1.517
42557SOL    HW129510   9.354  11.201   1.486
42557SOL    HW229511   9.466  11.109   1.441
42558SOL     OW29512   5.076  11.859   6.614
42558SOL    HW129513   5.014  11.924   6.646
42558SOL    HW229514   5.152  11.869   6.670
42559SOL     OW29515  14.767   3.659  14.178
42559SOL    HW129516  14.809   3.636  14.262
42559SOL    HW229517  14.705   3.728  14.200
42560SOL     OW29518   9.211   3.024  14.544
42560SOL    HW129519   9.188   2.946  14.492
42560SOL    HW229520   9.255   3.082  14.481
42561SOL     OW29521   4.553  12.903   6.114
42561SOL    HW129522   4.584  12.912   6.024
42561SOL    HW229523   4.632  12.882   6.164
42562SOL     OW29524   3.459   7.941  12.396
42562SOL    HW129525   3.438   7.868  12.454
42562SOL    HW229526   3.492   8.009  12.455
42563SOL     OW29527   2.773  12.374   3.823
42563SOL    HW129528   2.697  12.431   3.824
42563SOL    HW229529   2.802  12.371   3.914
42564SOL     OW29530  10.779   6.970   0.927
42564SOL    HW129531  10.705   6.968   0.866
42564SOL    HW229532  10.849   7.012   0.879
42565SOL     OW29533   1.512   9.202   1.731
42565SOL    HW129534   1.474   9.282   1.696
42565SOL    HW229535   1.482   9.133   1.672
42566SOL     OW29536  11.682  13.832   2.532
42566SOL    HW129537  11.760  13.875   2.568
42566SOL    HW229538  11.673  13.870   2.444
42567SOL     OW29539  10.949  12.533  14.814
42567SOL    HW129540  10.992  12.525  14.728
42567SOL    HW229541  11.021  12.542  14.876
42568SOL     OW29542   1.211   7.128  13.481
42568SOL    HW129543   1.272   7.055  13.489
42568SOL    HW229544   1.267   7.206  13.477
42569SOL     OW29545   3.211  12.335  13.933
42569SOL    HW129546   3.126  12.303  13.961
42569SOL    HW229547   3.266  12.256  13.927
42570SOL     OW29548   5.208   8.069   7.994
42570SOL    HW129549   5.237   8.159   8.013
42570SOL    HW229550   5.280   8.031   7.944
42571SOL     OW29551   2.210  10.663   4.903
42571SOL    HW129552   2.166  10.742   4.873
42571SOL    HW229553   2.240  10.685   4.991
42572SOL     OW29554   4.813  14.809  12.032
42572SOL    HW129555   4.875  14.876  12.005
42572SOL    HW229556   4.816  14.744  11.962
42573SOL     OW29557  10.792   9.887   3.196
42573SOL    HW129558  10.726   9.956   3.194
42573SOL    HW229559  10.786   9.846   3.110
42574SOL     OW29560   9.520  11.993   7.571
42574SOL    HW129561   9.573  11.986   7.650
42574SOL    HW229562   9.433  11.963   7.597
42575SOL     OW29563  13.770   7.657   2.704
42575SOL    HW129564  13.825   7.591   2.746
42575SOL    HW229565  13.824   7.736   2.703
42576SOL     OW29566  12.769   7.821  14.327
42576SOL    HW129567  12.698   7.768  14.290
42576SOL    HW229568  12.740   7.911  14.316
42577SOL     OW29569  10.480   7.413   0.152
42577SOL    HW129570  10.442   7.450   0.232
42577SOL    HW229571  10.499   7.490   0.098
42578SOL     OW29572   4.945   8.936   7.785
42578SOL    HW129573   4.855   8.963   7.801
42578SOL    HW229574   4.976   8.994   7.715
42579SOL     OW29575  13.512   6.339   0.096
42579SOL    HW129576  13.496   6.244   0.089
42579SOL    HW229577  13.425   6.376   0.111
42580SOL     OW29578   5.629  11.185  14.842
42580SOL    HW129579   5.710  11.155  14.801
42580SOL    HW229580   5.569  11.200  14.768
42581SOL     OW29581   7.770  14.156   7.193
42581SOL    HW129582   7.771  14.061   7.178
42581SOL    HW229583   7.809  14.166   7.280
42582SOL     OW29584   4.384  10.261   3.824
42582SOL    HW129585   4.336  10.343   3.832
42582SOL    HW229586   4.448  10.264   3.896
42583SOL     OW29587  12.719  10.434   1.561
42583SOL    HW129588  12.742  10.342   1.571
42583SOL    HW229589  12.624  10.434   1.547
42584SOL     OW29590   1.747  14.717   1.536
42584SOL    HW129591   1.819  14.658   1.514
42584SOL    HW229592   1.670  14.660   1.540
42585SOL     OW29593   7.976  10.155   2.422
42585SOL    HW129594   7.936  10.078   2.381
42585SOL    HW229595   7.928  10.165   2.504
42586SOL     OW29596   6.104   7.008   2.253
42586SOL    HW129597   6.099   7.084   2.310
42586SOL    HW229598   6.196   7.002   2.228
42587SOL     OW29599   3.585   4.101   5.492
42587SOL    HW129600   3.643   4.178   5.488
42587SOL    HW229601   3.618   4.043   5.423
42588SOL     OW29602   4.253  10.137   7.925
42588SOL    HW129603   4.296  10.217   7.954
42588SOL    HW229604   4.325  10.078   7.903
42589SOL     OW29605  14.370   8.919   0.319
42589SOL    HW129606  14.430   8.910   0.393
42589SOL    HW229607  14.428   8.924   0.243
42590SOL     OW29608   5.079  14.871   5.346
42590SOL    HW129609   5.164   0.017   5.381
42590SOL    HW229610   5.079   0.024   5.257
42591SOL     OW29611  10.428   2.697   5.554
42591SOL    HW129612  10.367   2.736   5.491
42591SOL    HW229613  10.514   2.718   5.519
42592SOL     OW29614   9.169  13.329   2.598
42592SOL    HW129615   9.174  13.250   2.652
42592SOL    HW229616   9.076  13.351   2.595
42593SOL     OW29617   8.971   5.860   7.191
42593SOL    HW129618   9.029   5.795   7.152
42593SOL    HW229619   9.014   5.884   7.273
42594SOL     OW29620  10.019   7.585   0.496
42594SOL    HW129621   9.967   7.523   0.548
42594SOL    HW229622   9.989   7.671   0.523
42595SOL     OW29623   8.430  11.933   7.597
42595SOL    HW129624   8.510  11.881   7.585
42595SOL    HW229625   8.362  11.884   7.552
42596SOL     OW29626   8.352  10.837  10.808
42596SOL    HW129627   8.269  10.797  10.834
42596SOL    HW229628   8.419  10.776  10.840
42597SOL     OW29629   3.436  13.211   8.585
42597SOL    HW129630   3.465  13.281   8.526
42597SOL    HW229631   3.375  13.254   8.645
42598SOL     OW29632   9.106   6.085   8.046
42598SOL    HW129633   9.202   6.085   8.045
42598SOL    HW229634   9.083   6.158   8.104
42599SOL     OW29635   8.310  10.273  14.169
42599SOL    HW129636   8.317  10.289  14.264
42599SOL    HW229637   8.399  10.284  14.137
42600SOL     OW29638   4.097  11.614   6.208
42600SOL    HW129639   4.017  11.624   6.259
42600SOL    HW229640   4.099  11.521   6.185
42601SOL     OW29641   7.642   5.136   6.313
42601SOL    HW129642   7.555   5.148   6.352
42601SOL    HW229643   7.655   5.213   6.258
42602SOL     OW29644   1.283   9.757  14.423
42602SOL    HW129645   1.306   9.819  14.354
42602SOL    HW229646   1.350   9.689  14.418
42603SOL     OW29647   8.074   2.153  11.455
42603SOL    HW129648   8.150   2.095  11.465
42603SOL    HW229649   8.080   2.184  11.365
42604SOL     OW29650   5.122   9.584  10.678
42604SOL    HW129651   5.182   9.655  10.658
42604SOL    HW229652   5.109   9.589  10.773
42605SOL     OW29653   1.900  11.713  11.765
42605SOL    HW129654   1.924  11.697  11.856
42605SOL    HW229655   1.915  11.629  11.721
42606SOL     OW29656  12.842   3.527   6.981
42606SOL    HW129657  12.780   3.593   6.950
42606SOL    HW229658  12.855   3.547   7.074
42607SOL     OW29659   5.391   4.816   9.498
42607SOL    HW129660   5.390   4.827   9.403
42607SOL    HW229661   5.461   4.873   9.529
42608SOL     OW29662   3.349  11.196   6.743
42608SOL    HW129663   3.433  11.150   6.739
42608SOL    HW229664   3.368  11.276   6.792
42609SOL     OW29665   4.173  14.692   8.603
42609SOL    HW129666   4.145  14.601   8.608
42609SOL    HW229667   4.240  14.693   8.535
42610SOL     OW29668   2.676   9.720   9.824
42610SOL    HW129669   2.654   9.630   9.848
42610SOL    HW229670   2.612   9.774   9.870
42611SOL     OW29671   9.197   9.131   3.072
42611SOL    HW129672   9.240   9.051   3.042
42611SOL    HW229673   9.269   9.186   3.103
42612SOL     OW29674   9.662   8.073  10.295
42612SOL    HW129675   9.677   8.072  10.390
42612SOL    HW229676   9.644   8.165  10.275
42613SOL     OW29677  12.294   5.322   1.789
42613SOL    HW129678  12.261   5.314   1.878
42613SOL    HW229679  12.378   5.368   1.799
42614SOL     OW29680   7.321  14.130   4.359
42614SOL    HW129681   7.346  14.038   4.369
42614SOL    HW229682   7.302  14.140   4.266
42615SOL     OW29683   2.778   3.463   6.147
42615SOL    HW129684   2.749   3.552   6.127
42615SOL    HW229685   2.699   3.418   6.176
42616SOL     OW29686   6.915   2.667   1.283
42616SOL    HW129687   6.891   2.752   1.321
42616SOL    HW229688   6.948   2.688   1.196
42617SOL     OW29689  10.923  10.792   2.689
42617SOL    HW129690  11.016  10.768   2.687
42617SOL    HW229691  10.918  10.871   2.635
42618SOL     OW29692   2.181   4.921   3.540
42618SOL    HW129693   2.156   4.848   3.596
42618SOL    HW229694   2.166   4.889   3.451
42619SOL     OW29695   1.380   3.716  13.266
42619SOL    HW129696   1.383   3.765  13.184
42619SOL    HW229697   1.287   3.697  13.280
42620SOL     OW29698  12.435   3.259   5.893
42620SOL    HW129699  12.351   3.265   5.937
42620SOL    HW229700  12.419   3.202   5.818
42621SOL     OW29701   1.056   4.408  14.519
42621SOL    HW129702   1.136   4.443  14.558
42621SOL    HW229703   0.994   4.481  14.521
42622SOL     OW29704   6.193  10.289   6.615
42622SOL    HW129705   6.180  10.194   6.616
42622SOL    HW229706   6.287  10.301   6.622
42623SOL     OW29707   8.638   1.783   8.610
42623SOL    HW129708   8.631   1.847   8.539
42623SOL    HW229709   8.720   1.804   8.654
42624SOL     OW29710   8.897  12.571   8.452
42624SOL    HW129711   8.841  12.644   8.426
42624SOL    HW229712   8.838  12.496   8.453
42625SOL     OW29713   3.783   7.884   4.346
42625SOL    HW129714   3.764   7.815   4.410
42625SOL    HW229715   3.699   7.930   4.335
42626SOL     OW29716  11.340  12.899   1.459
42626SOL    HW129717  11.390  12.884   1.540
42626SOL    HW229718  11.264  12.842   1.467
42627SOL     OW29719  14.620   1.661  12.964
42627SOL    HW129720  14.527   1.639  12.966
42627SOL    HW229721  14.641   1.668  12.871
42628SOL     OW29722  12.072   4.739   7.492
42628SOL    HW129723  12.014   4.783   7.553
42628SOL    HW229724  12.112   4.669   7.543
42629SOL     OW29725  11.673   0.097   3.161
42629SOL    HW129726  11.737   0.108   3.230
42629SOL    HW229727  11.699   0.017   3.116
42630SOL     OW29728   1.952   3.573  10.049
42630SOL    HW129729   2.040   3.596  10.080
42630SOL    HW229730   1.905   3.657  10.047
42631SOL     OW29731  13.547   9.996   0.344
42631SOL    HW129732  13.481  10.013   0.277
42631SOL    HW229733  13.530  10.060   0.412
42632SOL     OW29734   5.520   3.971   3.480
42632SOL    HW129735   5.424   3.963   3.473
42632SOL    HW229736   5.553   3.898   3.429
42633SOL     OW29737   1.104   0.336  10.483
42633SOL    HW129738   1.061   0.410  10.525
42633SOL    HW229739   1.036   0.295  10.429
42634SOL     OW29740  14.259  10.653  11.016
42634SOL    HW129741  14.180  10.602  11.000
42634SOL    HW229742  14.247  10.689  11.104
42635SOL     OW29743   6.091   6.252   3.897
42635SOL    HW129744   6.062   6.231   3.986
42635SOL    HW229745   6.053   6.338   3.879
42636SOL     OW29746   1.337   7.804  10.706
42636SOL    HW129747   1.350   7.788  10.799
42636SOL    HW229748   1.248   7.774  10.689
42637SOL     OW29749  10.507   0.128  13.773
42637SOL    HW129750  10.594   0.096  13.750
42637SOL    HW229751  10.517   0.223  13.777
42638SOL     OW29752   4.168   1.190  12.112
42638SOL    HW129753   4.087   1.177  12.062
42638SOL    HW229754   4.234   1.210  12.045
42639SOL     OW29755   7.513   0.665   3.749
42639SOL    HW129756   7.484   0.594   3.807
42639SOL    HW229757   7.522   0.623   3.663
42640SOL     OW29758   0.161   0.094   5.875
42640SOL    HW129759   0.190   0.127   5.960
42640SOL    HW229760   0.069   0.070   5.889
42641SOL     OW29761  14.577   2.386   0.248
42641SOL    HW129762  14.589   2.297   0.280
42641SOL    HW229763  14.596   2.381   0.154
42642SOL     OW29764  11.317   4.807  10.142
42642SOL    HW129765  11.370   4.727  10.145
42642SOL    HW229766  11.267   4.806  10.224
42643SOL     OW29767   7.855   2.389   0.737
42643SOL    HW129768   7.776   2.411   0.787
42643SOL    HW229769   7.898   2.473   0.722
42644SOL     OW29770  12.700   8.486   7.974
42644SOL    HW129771  12.746   8.570   7.978
42644SOL    HW229772  12.667   8.472   8.062
42645SOL     OW29773   4.668   3.692  10.421
42645SOL    HW129774   4.603   3.742  10.373
42645SOL    HW229775   4.626   3.671  10.505
42646SOL     OW29776  10.622  14.490   7.444
42646SOL    HW129777  10.705  14.449   7.420
42646SOL    HW229778  10.625  14.577   7.403
42647SOL     OW29779   9.955  14.642   2.916
42647SOL    HW129780   9.863  14.656   2.939
42647SOL    HW229781   9.992  14.730   2.914
42648SOL     OW29782   7.406  11.336   2.212
42648SOL    HW129783   7.432  11.410   2.267
42648SOL    HW229784   7.407  11.369   2.123
42649SOL     OW29785  14.329   5.093   4.551
42649SOL    HW129786  14.237   5.112   4.570
42649SOL    HW229787  14.326   5.018   4.492
42650SOL     OW29788   4.616   4.943  11.616
42650SOL    HW129789   4.618   4.863  11.564
42650SOL    HW229790   4.679   4.928  11.686
42651SOL     OW29791   4.674   0.767   8.002
42651SOL    HW129792   4.647   0.855   8.028
42651SOL    HW229793   4.753   0.750   8.053
42652SOL     OW29794   6.431  13.790   7.713
42652SOL    HW129795   6.396  13.808   7.800
42652SOL    HW229796   6.411  13.869   7.662
42653SOL     OW29797   8.988  10.667  13.273
42653SOL    HW129798   9.054  10.654  13.341
42653SOL    HW229799   8.906  10.678  13.322
42654SOL     OW29800   9.412  12.111   3.344
42654SOL    HW129801   9.383  12.137   3.432
42654SOL    HW229802   9.351  12.042   3.318
42655SOL     OW29803  12.634   2.663   4.529
42655SOL    HW129804  12.634   2.711   4.612
42655SOL    HW229805  12.541   2.645   4.512
42656SOL     OW29806  14.104   2.529   8.276
42656SOL    HW129807  14.047   2.591   8.321
42656SOL    HW229808  14.088   2.545   8.183
42657SOL     OW29809   1.694  12.610   5.695
42657SOL    HW129810   1.601  12.633   5.686
42657SOL    HW229811   1.693  12.518   5.722
42658SOL     OW29812   4.524   5.654   1.618
42658SOL    HW129813   4.573   5.637   1.537
42658SOL    HW229814   4.443   5.603   1.608
42659SOL     OW29815  11.219  10.991   6.951
42659SOL    HW129816  11.303  10.958   6.982
42659SOL    HW229817  11.223  11.085   6.968
42660SOL     OW29818   4.785   1.162   8.169
42660SOL    HW129819   4.772   1.247   8.210
42660SOL    HW229820   4.848   1.179   8.098
42661SOL     OW29821  13.862  13.132   9.647
42661SOL    HW129822  13.866  13.201   9.581
42661SOL    HW229823  13.944  13.083   9.636
42662SOL     OW29824  10.749   0.923  14.073
42662SOL    HW129825  10.737   0.939  13.980
42662SOL    HW229826  10.735   1.009  14.114
42663SOL     OW29827   2.716   0.039   8.536
42663SOL    HW129828   2.686   0.102   8.601
42663SOL    HW229829   2.780  14.864   8.583
42664SOL     OW29830   7.099   7.434   5.496
42664SOL    HW129831   7.119   7.491   5.570
42664SOL    HW229832   7.147   7.353   5.514
42665SOL     OW29833   8.780   9.611   5.698
42665SOL    HW129834   8.688   9.592   5.717
42665SOL    HW229835   8.815   9.644   5.781
42666SOL     OW29836   8.366  10.867  10.434
42666SOL    HW129837   8.404  10.939  10.484
42666SOL    HW229838   8.295  10.907  10.384
42667SOL     OW29839   4.497   2.285  14.701
42667SOL    HW129840   4.514   2.378  14.687
42667SOL    HW229841   4.540   2.241  14.627
42668SOL     OW29842  12.946   4.757  12.018
42668SOL    HW129843  12.915   4.707  12.093
42668SOL    HW229844  13.014   4.702  11.979
42669SOL     OW29845   6.772   0.411  10.655
42669SOL    HW129846   6.719   0.336  10.682
42669SOL    HW229847   6.729   0.487  10.695
42670SOL     OW29848   0.028  13.318  11.251
42670SOL    HW129849  14.865  13.254  11.193
42670SOL    HW229850   0.046  13.393  11.195
42671SOL     OW29851  13.922   8.225   3.158
42671SOL    HW129852  13.943   8.164   3.087
42671SOL    HW229853  14.000   8.279   3.168
42672SOL     OW29854  12.524   9.508   5.573
42672SOL    HW129855  12.483   9.507   5.660
42672SOL    HW229856  12.471   9.568   5.522
42673SOL     OW29857   9.218   2.075   9.240
42673SOL    HW129858   9.193   2.123   9.161
42673SOL    HW229859   9.212   1.983   9.215
42674SOL     OW29860  14.747   5.447   5.261
42674SOL    HW129861  14.672   5.404   5.220
42674SOL    HW229862  14.815   5.447   5.194
42675SOL     OW29863   6.674  10.696   4.890
42675SOL    HW129864   6.693  10.786   4.914
42675SOL    HW229865   6.578  10.690   4.892
42676SOL     OW29866   9.595  11.983   0.380
42676SOL    HW129867   9.676  12.013   0.339
42676SOL    HW229868   9.606  12.002   0.473
42677SOL     OW29869   1.924   4.136  10.038
42677SOL    HW129870   1.910   4.229  10.022
42677SOL    HW229871   2.016   4.130  10.066
42678SOL     OW29872   8.845  12.316   2.641
42678SOL    HW129873   8.756  12.334   2.611
42678SOL    HW229874   8.836  12.301   2.735
42679SOL     OW29875   9.996   8.612  12.266
42679SOL    HW129876   9.936   8.680  12.294
42679SOL    HW229877  10.069   8.617  12.328
42680SOL     OW29878   7.150  11.966   8.526
42680SOL    HW129879   7.221  11.924   8.478
42680SOL    HW229880   7.070  11.929   8.488
42681SOL     OW29881   4.392   0.807  10.815
42681SOL    HW129882   4.378   0.869  10.887
42681SOL    HW229883   4.460   0.847  10.762
42682SOL     OW29884   9.337   8.279   9.199
42682SOL    HW129885   9.397   8.213   9.164
42682SOL    HW229886   9.254   8.232   9.210
42683SOL     OW29887   4.565  13.658   3.663
42683SOL    HW129888   4.619  13.586   3.631
42683SOL    HW229889   4.553  13.640   3.756
42684SOL     OW29890   1.258   7.351  11.829
42684SOL    HW129891   1.168   7.343  11.797
42684SOL    HW229892   1.286   7.261  11.843
42685SOL     OW29893  11.107   5.828   1.352
42685SOL    HW129894  11.180   5.862   1.299
42685SOL    HW229895  11.087   5.899   1.413
42686SOL     OW29896   6.730   5.301   6.052
42686SOL    HW129897   6.678   5.330   6.127
42686SOL    HW229898   6.802   5.364   6.046
42687SOL     OW29899   8.310  13.734   7.695
42687SOL    HW129900   8.284  13.826   7.699
42687SOL    HW229901   8.241  13.687   7.740
42688SOL     OW29902  12.428   8.473   6.385
42688SOL    HW129903  12.438   8.504   6.295
42688SOL    HW229904  12.453   8.548   6.439
42689SOL     OW29905  10.329   8.232   9.042
42689SOL    HW129906  10.260   8.195   9.099
42689SOL    HW229907  10.308   8.199   8.955
42690SOL     OW29908   0.832   8.352  13.195
42690SOL    HW129909   0.898   8.344  13.126
42690SOL    HW229910   0.797   8.441  13.184
42691SOL     OW29911  11.296   0.693  10.171
42691SOL    HW129912  11.341   0.708  10.254
42691SOL    HW229913  11.330   0.760  10.112
42692SOL     OW29914   8.399  14.362   1.379
42692SOL    HW129915   8.370  14.271   1.381
42692SOL    HW229916   8.342  14.403   1.315
42693SOL     OW29917  13.859  12.861  13.529
42693SOL    HW129918  13.781  12.917  13.538
42693SOL    HW229919  13.825  12.772  13.530
42694SOL     OW29920  13.456   4.178  11.582
42694SOL    HW129921  13.479   4.149  11.494
42694SOL    HW229922  13.502   4.117  11.640
42695SOL     OW29923   2.646   8.392   5.348
42695SOL    HW129924   2.562   8.434   5.368
42695SOL    HW229925   2.698   8.404   5.428
42696SOL     OW29926   9.116  11.952   0.069
42696SOL    HW129927   9.211  11.949   0.057
42696SOL    HW229928   9.091  11.861   0.084
42697SOL     OW29929   7.515   5.305  10.510
42697SOL    HW129930   7.572   5.305  10.433
42697SOL    HW229931   7.552   5.371  10.567
42698SOL     OW29932   7.003  10.848   1.492
42698SOL    HW129933   6.934  10.797   1.533
42698SOL    HW229934   6.984  10.845   1.398
42699SOL     OW29935   4.285   9.884   4.001
42699SOL    HW129936   4.325   9.884   3.913
42699SOL    HW229937   4.348   9.836   4.055
42700SOL     OW29938   4.032  10.596   8.805
42700SOL    HW129939   4.011  10.688   8.795
42700SOL    HW229940   3.965  10.550   8.755
42701SOL     OW29941   0.755  12.319  14.168
42701SOL    HW129942   0.723  12.405  14.194
42701SOL    HW229943   0.695  12.290  14.100
42702SOL     OW29944   9.079   0.285   3.144
42702SOL    HW129945   9.133   0.224   3.094
42702SOL    HW229946   9.142   0.343   3.187
42703SOL     OW29947  11.241   1.013   6.694
42703SOL    HW129948  11.166   0.982   6.644
42703SOL    HW229949  11.231   0.973   6.780
42704SOL     OW29950   2.073   5.967  10.579
42704SOL    HW129951   2.048   5.875  10.576
42704SOL    HW229952   2.102   5.987  10.490
42705SOL     OW29953  13.968  10.559   3.377
42705SOL    HW129954  14.035  10.494   3.400
42705SOL    HW229955  13.890  10.532   3.426
42706SOL     OW29956   7.417  13.151   6.739
42706SOL    HW129957   7.376  13.084   6.685
42706SOL    HW229958   7.498  13.110   6.770
42707SOL     OW29959   8.325  14.016   4.053
42707SOL    HW129960   8.320  14.087   3.988
42707SOL    HW229961   8.291  14.055   4.134
42708SOL     OW29962   5.926  14.856   8.888
42708SOL    HW129963   6.011   0.015   8.909
42708SOL    HW229964   5.880  14.853   8.972
42709SOL     OW29965   3.819   1.973   7.001
42709SOL    HW129966   3.725   1.987   7.015
42709SOL    HW229967   3.852   2.058   6.974
42710SOL     OW29968   5.611   9.535  12.156
42710SOL    HW129969   5.688   9.546  12.212
42710SOL    HW229970   5.637   9.468  12.093
42711SOL     OW29971  13.794   8.839   7.352
42711SOL    HW129972  13.763   8.823   7.263
42711SOL    HW229973  13.887   8.818   7.349
42712SOL     OW29974   3.128   6.452   1.482
42712SOL    HW129975   3.189   6.460   1.409
42712SOL    HW229976   3.081   6.371   1.465
42713SOL     OW29977  14.087  11.925   8.954
42713SOL    HW129978  14.010  11.922   9.011
42713SOL    HW229979  14.144  11.856   8.987
42714SOL     OW29980   6.890  10.126   1.048
42714SOL    HW129981   6.884  10.065   0.974
42714SOL    HW229982   6.803  10.124   1.088
42715SOL     OW29983  12.378   9.360   2.313
42715SOL    HW129984  12.350   9.433   2.368
42715SOL    HW229985  12.472   9.353   2.329
42716SOL     OW29986  14.756   1.935  10.292
42716SOL    HW129987  14.696   1.956  10.363
42716SOL    HW229988  14.765   1.840  10.294
42717SOL     OW29989   0.865   1.739  14.731
42717SOL    HW129990   0.803   1.709  14.665
42717SOL    HW229991   0.904   1.818  14.694
42718SOL     OW29992   8.445  14.699   1.726
42718SOL    HW129993   8.472  14.707   1.635
42718SOL    HW229994   8.400  14.781   1.745
42719SOL     OW29995   8.344   2.118  10.775
42719SOL    HW129996   8.320   2.090  10.687
42719SOL    HW229997   8.415   2.181  10.761
42720SOL     OW29998   5.281  11.566   7.350
42720SOL    HW129999   5.226  11.613   7.412
42720SOL    HW230000   5.227  11.559   7.270
42721SOL     OW30001   3.514   9.318   4.115
42721SOL    HW130002   3.500   9.225   4.098
42721SOL    HW230003   3.436   9.361   4.079
42722SOL     OW30004  10.518  14.141   5.431
42722SOL    HW130005  10.544  14.050   5.423
42722SOL    HW230006  10.447  14.152   5.367
42723SOL     OW30007  10.753  14.260   8.597
42723SOL    HW130008  10.709  14.300   8.672
42723SOL    HW230009  10.721  14.169   8.597
42724SOL     OW30010  13.457  13.253   3.654
42724SOL    HW130011  13.515  13.252   3.730
42724SOL    HW230012  13.504  13.201   3.588
42725SOL     OW30013  11.135   7.883  12.075
42725SOL    HW130014  11.130   7.820  12.003
42725SOL    HW230015  11.046   7.891  12.107
42726SOL     OW30016   2.030   8.519   6.084
42726SOL    HW130017   1.967   8.509   6.155
42726SOL    HW230018   2.069   8.605   6.099
42727SOL     OW30019  11.721  11.028   6.120
42727SOL    HW130020  11.642  11.081   6.106
42727SOL    HW230021  11.688  10.946   6.158
42728SOL     OW30022  13.454  12.724   0.949
42728SOL    HW130023  13.388  12.711   0.881
42728SOL    HW230024  13.420  12.794   1.004
42729SOL     OW30025   7.147   2.332   4.666
42729SOL    HW130026   7.174   2.337   4.575
42729SOL    HW230027   7.201   2.397   4.711
42730SOL     OW30028  13.338   8.299   0.497
42730SOL    HW130029  13.292   8.227   0.453
42730SOL    HW230030  13.424   8.300   0.457
42731SOL     OW30031   8.227   1.006   3.604
42731SOL    HW130032   8.272   0.936   3.651
42731SOL    HW230033   8.258   1.086   3.645
42732SOL     OW30034   5.084   6.988   1.106
42732SOL    HW130035   5.001   7.035   1.110
42732SOL    HW230036   5.091   6.958   1.016
42733SOL     OW30037   9.142   1.078   4.018
42733SOL    HW130038   9.071   1.045   3.963
42733SOL    HW230039   9.104   1.152   4.065
42734SOL     OW30040  10.938   8.169   7.502
42734SOL    HW130041  10.846   8.161   7.475
42734SOL    HW230042  10.984   8.194   7.423
42735SOL     OW30043  12.264   7.432   6.975
42735SOL    HW130044  12.261   7.488   7.052
42735SOL    HW230045  12.340   7.376   6.989
42736SOL     OW30046  11.942   4.199   6.923
42736SOL    HW130047  11.968   4.139   6.853
42736SOL    HW230048  11.956   4.287   6.886
42737SOL     OW30049   1.760   3.527   5.466
42737SOL    HW130050   1.852   3.500   5.462
42737SOL    HW230051   1.711   3.445   5.469
42738SOL     OW30052   7.854  10.802  14.696
42738SOL    HW130053   7.928  10.743  14.711
42738SOL    HW230054   7.831  10.790  14.604
42739SOL     OW30055   4.033   9.001  12.577
42739SOL    HW130056   4.091   8.931  12.607
42739SOL    HW230057   3.981   8.962  12.508
42740SOL     OW30058   5.503  14.441   1.777
42740SOL    HW130059   5.486  14.498   1.852
42740SOL    HW230060   5.597  14.421   1.783
42741SOL     OW30061   9.744   1.951   8.592
42741SOL    HW130062   9.771   2.028   8.642
42741SOL    HW230063   9.737   1.882   8.657
42742SOL     OW30064  10.975   5.374  11.540
42742SOL    HW130065  10.887   5.369  11.504
42742SOL    HW230066  10.998   5.284  11.563
42743SOL     OW30067   0.772   6.486   5.587
42743SOL    HW130068   0.713   6.503   5.660
42743SOL    HW230069   0.736   6.537   5.514
42744SOL     OW30070   1.011  13.950   8.517
42744SOL    HW130071   0.924  13.937   8.481
42744SOL    HW230072   1.015  14.044   8.536
42745SOL     OW30073  13.837   5.027   6.275
42745SOL    HW130074  13.783   5.053   6.200
42745SOL    HW230075  13.782   5.046   6.351
42746SOL     OW30076   3.111   1.782   3.902
42746SOL    HW130077   3.186   1.723   3.912
42746SOL    HW230078   3.035   1.724   3.895
42747SOL     OW30079   3.405   1.950   6.533
42747SOL    HW130080   3.447   1.986   6.455
42747SOL    HW230081   3.445   1.864   6.545
42748SOL     OW30082   7.016   2.289   5.912
42748SOL    HW130083   6.927   2.259   5.932
42748SOL    HW230084   7.056   2.302   5.998
42749SOL     OW30085   3.171   1.016   5.564
42749SOL    HW130086   3.225   1.095   5.571
42749SOL    HW230087   3.121   1.029   5.484
42750SOL     OW30088   8.251   6.325   6.988
42750SOL    HW130089   8.219   6.266   6.920
42750SOL    HW230090   8.346   6.321   6.980
42751SOL     OW30091  14.106   1.789   3.671
42751SOL    HW130092  14.092   1.703   3.710
42751SOL    HW230093  14.200   1.792   3.654
42752SOL     OW30094   0.073  10.015   1.319
42752SOL    HW130095   0.115  10.101   1.324
42752SOL    HW230096   0.146   9.954   1.305
42753SOL     OW30097   8.133   2.853  13.562
42753SOL    HW130098   8.102   2.820  13.646
42753SOL    HW230099   8.130   2.776  13.504
42754SOL     OW30100  10.990   3.588  14.434
42754SOL    HW130101  11.041   3.511  14.457
42754SOL    HW230102  10.922   3.555  14.375
42755SOL     OW30103   3.106  14.837  14.775
42755SOL    HW130104   3.142  14.758  14.816
42755SOL    HW230105   3.059  14.805  14.698
42756SOL     OW30106   1.200   6.992   4.347
42756SOL    HW130107   1.191   6.897   4.356
42756SOL    HW230108   1.152   7.029   4.421
42757SOL     OW30109   3.696   9.026   9.913
42757SOL    HW130110   3.716   8.946   9.865
42757SOL    HW230111   3.699   9.095   9.846
42758SOL     OW30112   8.648  11.632   8.892
42758SOL    HW130113   8.713  11.606   8.957
42758SOL    HW230114   8.657  11.727   8.886
42759SOL     OW30115   5.297   9.155   1.301
42759SOL    HW130116   5.379   9.192   1.334
42759SOL    HW230117   5.256   9.226   1.251
42760SOL     OW30118   9.594  11.177  12.879
42760SOL    HW130119   9.642  11.096  12.859
42760SOL    HW230120   9.505  11.160  12.851
42761SOL     OW30121  10.091   2.004   2.816
42761SOL    HW130122  10.122   1.923   2.775
42761SOL    HW230123  10.122   2.074   2.758
42762SOL     OW30124  10.240  11.823   7.601
42762SOL    HW130125  10.191  11.759   7.549
42762SOL    HW230126  10.319  11.839   7.549
42763SOL     OW30127   8.911  10.658  10.620
42763SOL    HW130128   8.841  10.639  10.558
42763SOL    HW230129   8.988  10.613  10.585
42764SOL     OW30130  12.364   3.912   1.144
42764SOL    HW130131  12.282   3.938   1.186
42764SOL    HW230132  12.416   3.992   1.142
42765SOL     OW30133  13.518  12.938  10.922
42765SOL    HW130134  13.474  12.990  10.989
42765SOL    HW230135  13.457  12.867  10.903
42766SOL     OW30136   8.995   7.877   0.221
42766SOL    HW130137   9.024   7.950   0.276
42766SOL    HW230138   9.054   7.879   0.146
42767SOL     OW30139  12.548   4.978   0.102
42767SOL    HW130140  12.549   5.060   0.151
42767SOL    HW230141  12.478   4.927   0.143
42768SOL     OW30142  11.155   9.449   9.593
42768SOL    HW130143  11.064   9.429   9.572
42768SOL    HW230144  11.204   9.372   9.564
42769SOL     OW30145  14.649   3.370   8.268
42769SOL    HW130146  14.585   3.409   8.328
42769SOL    HW230147  14.596   3.329   8.200
42770SOL     OW30148   3.875   8.977   2.935
42770SOL    HW130149   3.811   9.048   2.928
42770SOL    HW230150   3.956   9.020   2.961
42771SOL     OW30151   5.823   3.059   1.700
42771SOL    HW130152   5.918   3.068   1.687
42771SOL    HW230153   5.811   2.967   1.723
42772SOL     OW30154   8.696   9.014   6.190
42772SOL    HW130155   8.760   9.023   6.119
42772SOL    HW230156   8.659   8.927   6.178
42773SOL     OW30157  13.383   5.952   3.577
42773SOL    HW130158  13.423   5.870   3.606
42773SOL    HW230159  13.377   5.943   3.482
42774SOL     OW30160   6.596   0.821   4.275
42774SOL    HW130161   6.635   0.906   4.256
42774SOL    HW230162   6.671   0.761   4.280
42775SOL     OW30163  10.345   4.276   2.013
42775SOL    HW130164  10.371   4.186   2.031
42775SOL    HW230165  10.288   4.269   1.936
42776SOL     OW30166   0.290  10.672   8.721
42776SOL    HW130167   0.335  10.591   8.694
42776SOL    HW230168   0.358  10.724   8.762
42777SOL     OW30169   4.537   7.879   8.213
42777SOL    HW130170   4.630   7.864   8.231
42777SOL    HW230171   4.519   7.827   8.134
42778SOL     OW30172   3.335  13.497   5.553
42778SOL    HW130173   3.409  13.456   5.597
42778SOL    HW230174   3.288  13.543   5.623
42779SOL     OW30175  14.583   3.908   5.273
42779SOL    HW130176  14.508   3.850   5.289
42779SOL    HW230177  14.643   3.855   5.222
42780SOL     OW30178   7.428  11.786   2.106
42780SOL    HW130179   7.439  11.718   2.173
42780SOL    HW230180   7.369  11.850   2.146
42781SOL     OW30181   0.013   4.284  14.356
42781SOL    HW130182   0.022   4.218  14.288
42781SOL    HW230183  14.799   4.284  14.378
42782SOL     OW30184  11.835   4.237   6.436
42782SOL    HW130185  11.899   4.197   6.378
42782SOL    HW230186  11.770   4.275   6.377
42783SOL     OW30187  10.766   1.112   8.017
42783SOL    HW130188  10.782   1.163   8.097
42783SOL    HW230189  10.686   1.064   8.035
42784SOL     OW30190   0.814  13.648  11.172
42784SOL    HW130191   0.848  13.574  11.223
42784SOL    HW230192   0.850  13.634  11.084
42785SOL     OW30193  11.875  14.216  11.159
42785SOL    HW130194  11.811  14.171  11.215
42785SOL    HW230195  11.821  14.262  11.094
42786SOL     OW30196   4.595   4.882   5.500
42786SOL    HW130197   4.579   4.960   5.446
42786SOL    HW230198   4.689   4.866   5.492
42787SOL     OW30199  12.415   1.328   9.538
42787SOL    HW130200  12.432   1.235   9.518
42787SOL    HW230201  12.358   1.357   9.466
42788SOL     OW30202   6.061  13.414   3.499
42788SOL    HW130203   6.112  13.464   3.435
42788SOL    HW230204   6.013  13.481   3.548
42789SOL     OW30205   8.099  14.791   0.784
42789SOL    HW130206   8.149  14.771   0.705
42789SOL    HW230207   8.055  14.708   0.805
42790SOL     OW30208   8.341   0.892  14.577
42790SOL    HW130209   8.246   0.890  14.579
42790SOL    HW230210   8.364   0.984  14.589
42791SOL     OW30211   3.060   8.304   0.090
42791SOL    HW130212   3.083   8.357   0.167
42791SOL    HW230213   2.987   8.352   0.050
42792SOL     OW30214  12.548   4.335   8.505
42792SOL    HW130215  12.506   4.269   8.560
42792SOL    HW230216  12.634   4.299   8.484
42793SOL     OW30217   9.940   1.904   5.351
42793SOL    HW130218  10.019   1.884   5.401
42793SOL    HW230219   9.902   1.980   5.394
42794SOL     OW30220  14.142  10.128  13.544
42794SOL    HW130221  14.193  10.206  13.567
42794SOL    HW230222  14.195  10.084  13.477
42795SOL     OW30223  13.535   0.333   8.216
42795SOL    HW130224  13.560   0.410   8.166
42795SOL    HW230225  13.477   0.367   8.284
42796SOL     OW30226   7.634   4.875   2.426
42796SOL    HW130227   7.571   4.913   2.364
42796SOL    HW230228   7.616   4.781   2.424
42797SOL     OW30229   2.676   8.781   9.450
42797SOL    HW130230   2.766   8.814   9.451
42797SOL    HW230231   2.621   8.859   9.446
42798SOL     OW30232   5.703   5.192  12.257
42798SOL    HW130233   5.766   5.225  12.322
42798SOL    HW230234   5.704   5.258  12.188
42799SOL     OW30235  14.716   6.313   1.886
42799SOL    HW130236  14.670   6.333   1.804
42799SOL    HW230237  14.760   6.395   1.910
42800SOL     OW30238  12.009   2.707   3.323
42800SOL    HW130239  12.047   2.737   3.405
42800SOL    HW230240  11.914   2.711   3.338
42801SOL     OW30241   5.464   0.397   6.401
42801SOL    HW130242   5.430   0.308   6.407
42801SOL    HW230243   5.557   0.386   6.382
42802SOL     OW30244   6.239   9.892  10.348
42802SOL    HW130245   6.250   9.979  10.309
42802SOL    HW230246   6.259   9.904  10.440
42803SOL     OW30247  10.519   2.653   3.460
42803SOL    HW130248  10.609   2.631   3.439
42803SOL    HW230249  10.466   2.594   3.406
42804SOL     OW30250   3.821   4.878  12.528
42804SOL    HW130251   3.782   4.947  12.475
42804SOL    HW230252   3.780   4.887  12.614
42805SOL     OW30253  12.573   5.189  10.092
42805SOL    HW130254  12.490   5.236  10.084
42805SOL    HW230255  12.627   5.225  10.021
42806SOL     OW30256   6.453   6.405   6.718
42806SOL    HW130257   6.451   6.501   6.717
42806SOL    HW230258   6.366   6.379   6.747
42807SOL     OW30259  11.036  14.692   0.049
42807SOL    HW130260  11.051  14.613  14.877
42807SOL    HW230261  11.122  14.716   0.083
42808SOL     OW30262   8.512  12.279   7.954
42808SOL    HW130263   8.522  12.226   7.876
42808SOL    HW230264   8.582  12.344   7.949
42809SOL     OW30265  12.087   6.420   0.810
42809SOL    HW130266  12.159   6.458   0.859
42809SOL    HW230267  12.008   6.446   0.858
42810SOL     OW30268   7.133   1.134   6.078
42810SOL    HW130269   7.194   1.206   6.093
42810SOL    HW230270   7.168   1.088   6.002
42811SOL     OW30271  11.847  10.636   9.982
42811SOL    HW130272  11.927  10.636  10.035
42811SOL    HW230273  11.869  10.691   9.907
42812SOL     OW30274   8.313   1.289   4.584
42812SOL    HW130275   8.384   1.304   4.647
42812SOL    HW230276   8.349   1.318   4.500
42813SOL     OW30277  13.849  14.870   0.428
42813SOL    HW130278  13.905   0.067   0.413
42813SOL    HW230279  13.837  14.832   0.341
42814SOL     OW30280  13.529   7.037   3.600
42814SOL    HW130281  13.461   6.977   3.632
42814SOL    HW230282  13.484   7.091   3.535
42815SOL     OW30283   4.486   9.236   8.777
42815SOL    HW130284   4.527   9.164   8.825
42815SOL    HW230285   4.533   9.314   8.805
42816SOL     OW30286  11.745   0.630   0.491
42816SOL    HW130287  11.693   0.556   0.520
42816SOL    HW230288  11.818   0.635   0.553
42817SOL     OW30289   6.126   9.622  11.031
42817SOL    HW130290   6.094   9.682  11.098
42817SOL    HW230291   6.177   9.678  10.972
42818SOL     OW30292   8.824   1.976   3.771
42818SOL    HW130293   8.875   2.047   3.810
42818SOL    HW230294   8.837   1.985   3.677
42819SOL     OW30295   4.547  12.822   9.395
42819SOL    HW130296   4.612  12.771   9.444
42819SOL    HW230297   4.544  12.781   9.309
42820SOL     OW30298  11.735  13.773   4.414
42820SOL    HW130299  11.725  13.784   4.319
42820SOL    HW230300  11.712  13.859   4.450
42821SOL     OW30301   4.862   9.238  13.748
42821SOL    HW130302   4.849   9.330  13.774
42821SOL    HW230303   4.780   9.213  13.707
42822SOL     OW30304   5.826   7.829   6.770
42822SOL    HW130305   5.789   7.916   6.756
42822SOL    HW230306   5.911   7.846   6.811
42823SOL     OW30307  12.956  12.101   8.989
42823SOL    HW130308  13.024  12.045   9.028
42823SOL    HW230309  12.936  12.165   9.057
42824SOL     OW30310  13.377   1.111   6.748
42824SOL    HW130311  13.337   1.025   6.757
42824SOL    HW230312  13.379   1.128   6.654
42825SOL     OW30313  11.522   9.093   6.626
42825SOL    HW130314  11.606   9.089   6.579
42825SOL    HW230315  11.464   9.035   6.577
42826SOL     OW30316  13.092  12.831   7.347
42826SOL    HW130317  13.041  12.900   7.390
42826SOL    HW230318  13.071  12.840   7.254
42827SOL     OW30319  10.363  10.797   5.161
42827SOL    HW130320  10.338  10.856   5.089
42827SOL    HW230321  10.292  10.805   5.224
42828SOL     OW30322   3.957   1.056   1.900
42828SOL    HW130323   4.032   1.013   1.941
42828SOL    HW230324   3.952   1.017   1.813
42829SOL     OW30325   9.850  14.812   9.141
42829SOL    HW130326   9.796   0.004   9.175
42829SOL    HW230327   9.796  14.734   9.154
42830SOL     OW30328   1.145   7.879   5.248
42830SOL    HW130329   1.110   7.848   5.332
42830SOL    HW230330   1.111   7.967   5.239
42831SOL     OW30331   0.704   4.060   1.644
42831SOL    HW130332   0.619   4.039   1.683
42831SOL    HW230333   0.686   4.075   1.551
42832SOL     OW30334   4.944  14.626   8.950
42832SOL    HW130335   4.972  14.695   9.010
42832SOL    HW230336   4.988  14.547   8.981
42833SOL     OW30337   7.584   0.392  12.750
42833SOL    HW130338   7.667   0.407  12.706
42833SOL    HW230339   7.606   0.390  12.843
42834SOL     OW30340  13.300  14.740   7.257
42834SOL    HW130341  13.377  14.756   7.202
42834SOL    HW230342  13.226  14.768   7.204
42835SOL     OW30343   4.532  14.412   1.934
42835SOL    HW130344   4.536  14.364   2.017
42835SOL    HW230345   4.469  14.363   1.881
42836SOL     OW30346   9.760   4.729   4.493
42836SOL    HW130347   9.668   4.752   4.507
42836SOL    HW230348   9.758   4.640   4.458
42837SOL     OW30349  10.805  11.830   7.842
42837SOL    HW130350  10.730  11.867   7.796
42837SOL    HW230351  10.809  11.739   7.814
42838SOL     OW30352  11.488   5.216  11.753
42838SOL    HW130353  11.579   5.224  11.726
42838SOL    HW230354  11.490   5.228  11.848
42839SOL     OW30355   2.374   2.346   8.141
42839SOL    HW130356   2.402   2.329   8.051
42839SOL    HW230357   2.284   2.377   8.133
42840SOL     OW30358   2.004  11.804  14.803
42840SOL    HW130359   2.055  11.750  14.742
42840SOL    HW230360   2.000  11.752   0.003
42841SOL     OW30361  11.566   4.326   3.720
42841SOL    HW130362  11.515   4.385   3.776
42841SOL    HW230363  11.650   4.317   3.765
42842SOL     OW30364   2.864   7.560   9.979
42842SOL    HW130365   2.900   7.591  10.062
42842SOL    HW230366   2.910   7.477   9.963
42843SOL     OW30367   6.577  11.377  13.610
42843SOL    HW130368   6.608  11.355  13.521
42843SOL    HW230369   6.653  11.416  13.652
42844SOL     OW30370   1.367   6.912   0.667
42844SOL    HW130371   1.443   6.887   0.614
42844SOL    HW230372   1.346   6.834   0.718
42845SOL     OW30373   1.236   9.466  13.175
42845SOL    HW130374   1.284   9.462  13.092
42845SOL    HW230375   1.143   9.465  13.149
42846SOL     OW30376   5.424   2.446   7.681
42846SOL    HW130377   5.503   2.458   7.627
42846SOL    HW230378   5.457   2.409   7.763
42847SOL     OW30379  10.211   5.632   4.476
42847SOL    HW130380  10.275   5.562   4.461
42847SOL    HW230381  10.206   5.640   4.571
42848SOL     OW30382   6.654   5.525   4.640
42848SOL    HW130383   6.727   5.568   4.595
42848SOL    HW230384   6.684   5.516   4.730
42849SOL     OW30385   9.765   3.060   4.410
42849SOL    HW130386   9.847   3.104   4.431
42849SOL    HW230387   9.779   3.025   4.322
42850SOL     OW30388   9.663  11.442   1.268
42850SOL    HW130389   9.608  11.494   1.209
42850SOL    HW230390   9.725  11.504   1.305
42851SOL     OW30391  13.407  10.733   9.605
42851SOL    HW130392  13.423  10.720   9.698
42851SOL    HW230393  13.442  10.654   9.563
42852SOL     OW30394  12.827  11.193   1.311
42852SOL    HW130395  12.790  11.195   1.399
42852SOL    HW230396  12.848  11.285   1.291
42853SOL     OW30397  11.859   2.494   2.494
42853SOL    HW130398  11.868   2.577   2.542
42853SOL    HW230399  11.926   2.499   2.426
42854SOL     OW30400   4.746   2.361   5.821
42854SOL    HW130401   4.697   2.309   5.885
42854SOL    HW230402   4.830   2.379   5.865
42855SOL     OW30403   4.804  14.110   0.578
42855SOL    HW130404   4.873  14.155   0.627
42855SOL    HW230405   4.828  14.120   0.486
42856SOL     OW30406  13.035   5.904   1.028
42856SOL    HW130407  13.036   5.809   1.042
42856SOL    HW230408  13.062   5.941   1.112
42857SOL     OW30409   6.960   1.646   1.954
42857SOL    HW130410   6.893   1.605   1.899
42857SOL    HW230411   6.958   1.738   1.928
42858SOL     OW30412  11.447   8.443  13.345
42858SOL    HW130413  11.445   8.530  13.386
42858SOL    HW230414  11.538   8.415  13.352
42859SOL     OW30415  10.506  12.000  13.541
42859SOL    HW130416  10.431  11.998  13.602
42859SOL    HW230417  10.581  12.018  13.597
42860SOL     OW30418  10.752  14.393   4.479
42860SOL    HW130419  10.683  14.340   4.519
42860SOL    HW230420  10.753  14.365   4.387
42861SOL     OW30421   2.323   7.231  12.786
42861SOL    HW130422   2.393   7.287  12.753
42861SOL    HW230423   2.288   7.187  12.708
42862SOL     OW30424   9.178   1.581   3.802
42862SOL    HW130425   9.230   1.575   3.722
42862SOL    HW230426   9.228   1.639   3.859
42863SOL     OW30427  14.658   1.994  11.757
42863SOL    HW130428  14.739   2.009  11.708
42863SOL    HW230429  14.675   1.916  11.809
42864SOL     OW30430   5.205   1.266  14.188
42864SOL    HW130431   5.192   1.337  14.125
42864SOL    HW230432   5.271   1.209  14.146
42865SOL     OW30433   4.124   3.701   6.259
42865SOL    HW130434   4.160   3.770   6.314
42865SOL    HW230435   4.032   3.693   6.287
42866SOL     OW30436   4.895   6.022   9.492
42866SOL    HW130437   4.928   6.084   9.426
42866SOL    HW230438   4.869   6.077   9.565
42867SOL     OW30439   9.730   9.729   5.269
42867SOL    HW130440   9.642   9.766   5.257
42867SOL    HW230441   9.714   9.644   5.311
42868SOL     OW30442   3.008   3.150   9.710
42868SOL    HW130443   2.942   3.090   9.746
42868SOL    HW230444   2.963   3.234   9.704
42869SOL     OW30445   4.491   7.287   8.122
42869SOL    HW130446   4.488   7.241   8.038
42869SOL    HW230447   4.534   7.225   8.181
42870SOL     OW30448   3.292   3.743   6.622
42870SOL    HW130449   3.244   3.727   6.703
42870SOL    HW230450   3.343   3.663   6.608
42871SOL     OW30451   8.412  10.288   6.346
42871SOL    HW130452   8.490  10.237   6.366
42871SOL    HW230453   8.352  10.268   6.418
42872SOL     OW30454   0.376   1.415   4.603
42872SOL    HW130455   0.405   1.505   4.592
42872SOL    HW230456   0.426   1.382   4.677
42873SOL     OW30457   0.614   4.815  14.338
42873SOL    HW130458   0.549   4.866  14.387
42873SOL    HW230459   0.641   4.746  14.398
42874SOL     OW30460  10.654   8.455  11.321
42874SOL    HW130461  10.731   8.469  11.266
42874SOL    HW230462  10.606   8.385  11.276
42875SOL     OW30463  14.248   0.858   8.949
42875SOL    HW130464  14.310   0.926   8.975
42875SOL    HW230465  14.167   0.905   8.930
42876SOL     OW30466   9.838  13.810  10.929
42876SOL    HW130467   9.804  13.853  10.851
42876SOL    HW230468   9.853  13.881  10.991
42877SOL     OW30469   9.932  11.684   9.656
42877SOL    HW130470   9.945  11.597   9.694
42877SOL    HW230471   9.899  11.737   9.729
42878SOL     OW30472   5.130   0.865   1.974
42878SOL    HW130473   5.136   0.940   2.033
42878SOL    HW230474   5.053   0.883   1.920
42879SOL     OW30475  14.550  11.944   1.743
42879SOL    HW130476  14.575  11.950   1.836
42879SOL    HW230477  14.459  11.974   1.741
42880SOL     OW30478   1.354  13.632   3.243
42880SOL    HW130479   1.361  13.559   3.181
42880SOL    HW230480   1.343  13.710   3.188
42881SOL     OW30481   8.065  14.814   4.982
42881SOL    HW130482   8.053  14.761   5.061
42881SOL    HW230483   8.050   0.025   5.012
42882SOL     OW30484   6.509   4.197   7.193
42882SOL    HW130485   6.466   4.282   7.185
42882SOL    HW230486   6.601   4.215   7.171
42883SOL     OW30487   8.490   2.760   0.177
42883SOL    HW130488   8.476   2.853   0.195
42883SOL    HW230489   8.409   2.732   0.134
42884SOL     OW30490   2.357   1.280   9.597
42884SOL    HW130491   2.439   1.247   9.559
42884SOL    HW230492   2.371   1.276   9.692
42885SOL     OW30493   6.985   1.492   7.659
42885SOL    HW130494   6.941   1.434   7.597
42885SOL    HW230495   7.068   1.514   7.615
42886SOL     OW30496   6.283   2.993  13.850
42886SOL    HW130497   6.341   2.974  13.776
42886SOL    HW230498   6.237   3.073  13.825
42887SOL     OW30499  11.163   8.055   5.729
42887SOL    HW130500  11.083   8.010   5.757
42887SOL    HW230501  11.221   7.985   5.700
42888SOL     OW30502  10.063   8.622   7.865
42888SOL    HW130503  10.016   8.557   7.814
42888SOL    HW230504  10.064   8.586   7.954
42889SOL     OW30505   1.941  13.837   7.165
42889SOL    HW130506   1.859  13.802   7.130
42889SOL    HW230507   2.007  13.813   7.100
42890SOL     OW30508   8.726   2.574   3.880
42890SOL    HW130509   8.814   2.609   3.863
42890SOL    HW230510   8.742   2.494   3.930
42891SOL     OW30511  12.587   5.158  10.737
42891SOL    HW130512  12.651   5.203  10.683
42891SOL    HW230513  12.508   5.212  10.731
42892SOL     OW30514  11.002   5.263  12.974
42892SOL    HW130515  10.975   5.347  12.936
42892SOL    HW230516  11.012   5.281  13.067
42893SOL     OW30517   4.313   7.214   5.959
42893SOL    HW130518   4.375   7.171   5.900
42893SOL    HW230519   4.367   7.251   6.029
42894SOL     OW30520   7.437   9.396   1.641
42894SOL    HW130521   7.492   9.328   1.604
42894SOL    HW230522   7.469   9.477   1.601
42895SOL     OW30523   5.981  13.091  10.798
42895SOL    HW130524   6.030  13.132  10.870
42895SOL    HW230525   5.926  13.161  10.763
42896SOL     OW30526   2.204   1.463   0.256
42896SOL    HW130527   2.253   1.546   0.260
42896SOL    HW230528   2.244   1.416   0.182
42897SOL     OW30529  14.529  11.668   3.122
42897SOL    HW130530  14.540  11.753   3.163
42897SOL    HW230531  14.617  11.631   3.118
42898SOL     OW30532  12.814  14.461   6.641
42898SOL    HW130533  12.762  14.456   6.721
42898SOL    HW230534  12.769  14.402   6.580
42899SOL     OW30535   6.158  12.556   6.766
42899SOL    HW130536   6.230  12.492   6.762
42899SOL    HW230537   6.185  12.617   6.834
42900SOL     OW30538  12.069   1.267  13.288
42900SOL    HW130539  11.985   1.306  13.261
42900SOL    HW230540  12.100   1.221  13.210
42901SOL     OW30541   3.974   1.653   9.853
42901SOL    HW130542   4.025   1.687   9.780
42901SOL    HW230543   4.040   1.633   9.920
42902SOL     OW30544  13.027   6.420  11.139
42902SOL    HW130545  12.961   6.360  11.103
42902SOL    HW230546  13.027   6.401  11.233
42903SOL     OW30547   6.665  11.872   9.940
42903SOL    HW130548   6.611  11.951   9.940
42903SOL    HW230549   6.690  11.860   9.848
42904SOL     OW30550  11.871  10.163   1.946
42904SOL    HW130551  11.802  10.132   2.004
42904SOL    HW230552  11.885  10.254   1.972
42905SOL     OW30553   1.991   5.474  13.935
42905SOL    HW130554   1.950   5.470  14.022
42905SOL    HW230555   1.966   5.391  13.893
42906SOL     OW30556   0.776   1.080   9.155
42906SOL    HW130557   0.718   1.135   9.208
42906SOL    HW230558   0.717   1.014   9.117
42907SOL     OW30559   7.318  14.312  10.728
42907SOL    HW130560   7.321  14.316  10.824
42907SOL    HW230561   7.409  14.301  10.701
42908SOL     OW30562   9.971   2.906  10.627
42908SOL    HW130563  10.040   2.939  10.568
42908SOL    HW230564   9.944   2.983  10.677
42909SOL     OW30565   0.915   4.074   1.921
42909SOL    HW130566   0.929   4.162   1.885
42909SOL    HW230567   0.833   4.081   1.969
42910SOL     OW30568  13.103  10.583  14.050
42910SOL    HW130569  13.038  10.526  14.010
42910SOL    HW230570  13.185  10.533  14.046
42911SOL     OW30571   3.786  14.459  12.217
42911SOL    HW130572   3.876  14.452  12.250
42911SOL    HW230573   3.755  14.544  12.249
42912SOL     OW30574  10.941   0.008  10.466
42912SOL    HW130575  10.905  14.842  10.390
42912SOL    HW230576  10.981   0.087  10.430
42913SOL     OW30577   8.852   3.679   4.657
42913SOL    HW130578   8.826   3.620   4.728
42913SOL    HW230579   8.884   3.757   4.702
42914SOL     OW30580  14.370   0.045   4.307
42914SOL    HW130581  14.456   0.024   4.345
42914SOL    HW230582  14.313   0.060   4.383
42915SOL     OW30583   7.176   9.786  13.243
42915SOL    HW130584   7.148   9.840  13.170
42915SOL    HW230585   7.234   9.720  13.204
42916SOL     OW30586  13.579   3.006  14.368
42916SOL    HW130587  13.633   2.994  14.445
42916SOL    HW230588  13.605   2.935  14.309
42917SOL     OW30589   1.863   5.664  12.143
42917SOL    HW130590   1.808   5.619  12.079
42917SOL    HW230591   1.908   5.732  12.093
42918SOL     OW30592   5.607   4.668   4.439
42918SOL    HW130593   5.653   4.601   4.489
42918SOL    HW230594   5.551   4.711   4.503
42919SOL     OW30595  11.520   9.657   4.962
42919SOL    HW130596  11.442   9.632   5.012
42919SOL    HW230597  11.593   9.626   5.015
42920SOL     OW30598   8.892  14.068  13.587
42920SOL    HW130599   8.888  14.101  13.497
42920SOL    HW230600   8.801  14.064  13.615
42921SOL     OW30601  12.121   1.001   5.191
42921SOL    HW130602  12.164   0.938   5.134
42921SOL    HW230603  12.192   1.057   5.223
42922SOL     OW30604  11.533   0.085   6.397
42922SOL    HW130605  11.463   0.082   6.332
42922SOL    HW230606  11.606   0.127   6.352
42923SOL     OW30607   6.461  11.010  10.869
42923SOL    HW130608   6.385  11.049  10.827
42923SOL    HW230609   6.463  10.920  10.836
42924SOL     OW30610  13.056   1.477   6.976
42924SOL    HW130611  13.088   1.565   6.997
42924SOL    HW230612  13.135   1.428   6.951
42925SOL     OW30613   5.713   6.155   7.686
42925SOL    HW130614   5.672   6.208   7.617
42925SOL    HW230615   5.654   6.080   7.697
42926SOL     OW30616  11.780   6.794   8.654
42926SOL    HW130617  11.862   6.829   8.689
42926SOL    HW230618  11.731   6.871   8.627
42927SOL     OW30619   6.375  14.633   5.896
42927SOL    HW130620   6.356  14.722   5.868
42927SOL    HW230621   6.450  14.606   5.842
42928SOL     OW30622   5.671  12.285   3.826
42928SOL    HW130623   5.613  12.275   3.751
42928SOL    HW230624   5.723  12.205   3.827
42929SOL     OW30625   4.540   0.556   4.457
42929SOL    HW130626   4.566   0.465   4.448
42929SOL    HW230627   4.448   0.553   4.483
42930SOL     OW30628  12.933   3.594   9.784
42930SOL    HW130629  12.936   3.687   9.807
42930SOL    HW230630  12.982   3.551   9.855
42931SOL     OW30631   0.177  13.025   5.272
42931SOL    HW130632   0.260  13.060   5.303
42931SOL    HW230633   0.200  12.946   5.224
42932SOL     OW30634  10.904   3.637   0.468
42932SOL    HW130635  10.903   3.729   0.444
42932SOL    HW230636  10.853   3.594   0.399
42933SOL     OW30637   5.023  14.149  14.845
42933SOL    HW130638   4.995  14.238  14.823
42933SOL    HW230639   5.087  14.160   0.036
42934SOL     OW30640   8.663   2.211  14.624
42934SOL    HW130641   8.642   2.131  14.576
42934SOL    HW230642   8.641   2.282  14.564
42935SOL     OW30643   1.045   3.416  10.902
42935SOL    HW130644   1.050   3.401  10.997
42935SOL    HW230645   0.956   3.447  10.887
42936SOL     OW30646  11.887   5.481   6.674
42936SOL    HW130647  11.853   5.395   6.696
42936SOL    HW230648  11.914   5.474   6.582
42937SOL     OW30649  13.318   1.160   4.869
42937SOL    HW130650  13.391   1.177   4.929
42937SOL    HW230651  13.359   1.132   4.787
42938SOL     OW30652   5.547   2.657  14.093
42938SOL    HW130653   5.621   2.670  14.152
42938SOL    HW230654   5.505   2.577  14.125
42939SOL     OW30655  13.220  12.060  12.416
42939SOL    HW130656  13.306  12.028  12.443
42939SOL    HW230657  13.237  12.141  12.370
42940SOL     OW30658   4.086   5.263   3.021
42940SOL    HW130659   4.032   5.258   2.942
42940SOL    HW230660   4.170   5.226   2.996
42941SOL     OW30661   2.677  10.400  14.565
42941SOL    HW130662   2.628  10.441  14.636
42941SOL    HW230663   2.626  10.418  14.487
42942SOL     OW30664  11.118  14.155  12.281
42942SOL    HW130665  11.176  14.079  12.285
42942SOL    HW230666  11.145  14.210  12.355
42943SOL     OW30667   9.307   5.678  11.262
42943SOL    HW130668   9.225   5.726  11.256
42943SOL    HW230669   9.374   5.741  11.235
42944SOL     OW30670  14.311   2.296   4.979
42944SOL    HW130671  14.234   2.352   4.968
42944SOL    HW230672  14.320   2.284   5.074
42945SOL     OW30673   5.768   4.209   4.605
42945SOL    HW130674   5.840   4.210   4.543
42945SOL    HW230675   5.761   4.117   4.633
42946SOL     OW30676   4.422   2.445   8.448
42946SOL    HW130677   4.432   2.439   8.353
42946SOL    HW230678   4.362   2.373   8.470
42947SOL     OW30679  14.287   4.264   7.184
42947SOL    HW130680  14.376   4.282   7.153
42947SOL    HW230681  14.232   4.328   7.139
42948SOL     OW30682  12.528   5.589  14.786
42948SOL    HW130683  12.555   5.549  14.869
42948SOL    HW230684  12.479   5.520  14.741
42949SOL     OW30685   4.710  10.569   3.273
42949SOL    HW130686   4.683  10.498   3.215
42949SOL    HW230687   4.636  10.630   3.272
42950SOL     OW30688   7.757   4.307   1.433
42950SOL    HW130689   7.715   4.221   1.439
42950SOL    HW230690   7.851   4.287   1.427
42951SOL     OW30691  13.291   1.410   6.821
42951SOL    HW130692  13.277   1.410   6.727
42951SOL    HW230693  13.314   1.319   6.842
42952SOL     OW30694  14.755   7.674   2.369
42952SOL    HW130695  14.797   7.598   2.328
42952SOL    HW230696  14.826   7.737   2.381
42953SOL     OW30697   1.087   7.797  10.588
42953SOL    HW130698   1.038   7.725  10.628
42953SOL    HW230699   1.034   7.824  10.513
42954SOL     OW30700  10.362   9.107   3.473
42954SOL    HW130701  10.266   9.112   3.471
42954SOL    HW230702  10.382   9.016   3.455
42955SOL     OW30703  14.314   9.212   0.841
42955SOL    HW130704  14.328   9.138   0.781
42955SOL    HW230705  14.219   9.224   0.841
42956SOL     OW30706  11.177   1.226  11.820
42956SOL    HW130707  11.184   1.255  11.911
42956SOL    HW230708  11.119   1.150  11.824
42957SOL     OW30709  10.486   2.470   7.699
42957SOL    HW130710  10.479   2.387   7.651
42957SOL    HW230711  10.415   2.524   7.664
42958SOL     OW30712  14.549   5.312  12.547
42958SOL    HW130713  14.537   5.400  12.513
42958SOL    HW230714  14.642   5.306  12.568
42959SOL     OW30715   0.580  13.477   1.861
42959SOL    HW130716   0.645  13.467   1.931
42959SOL    HW230717   0.622  13.534   1.797
42960SOL     OW30718   6.733   5.476   7.073
42960SOL    HW130719   6.800   5.542   7.056
42960SOL    HW230720   6.674   5.517   7.137
42961SOL     OW30721  13.881   8.405   5.554
42961SOL    HW130722  13.905   8.412   5.462
42961SOL    HW230723  13.944   8.461   5.599
42962SOL     OW30724   7.673   9.719   8.178
42962SOL    HW130725   7.693   9.680   8.263
42962SOL    HW230726   7.759   9.742   8.142
42963SOL     OW30727  11.031   2.801  10.581
42963SOL    HW130728  11.046   2.863  10.652
42963SOL    HW230729  11.037   2.853  10.501
42964SOL     OW30730   7.870   5.326   0.174
42964SOL    HW130731   7.876   5.421   0.173
42964SOL    HW230732   7.962   5.297   0.172
42965SOL     OW30733   6.755  12.065   9.004
42965SOL    HW130734   6.829  12.004   9.003
42965SOL    HW230735   6.748  12.095   8.914
42966SOL     OW30736   7.302   5.010   2.864
42966SOL    HW130737   7.299   4.914   2.867
42966SOL    HW230738   7.379   5.030   2.810
42967SOL     OW30739  12.683  11.351  13.181
42967SOL    HW130740  12.595  11.368  13.146
42967SOL    HW230741  12.735  11.326  13.105
42968SOL     OW30742  11.712   1.897  14.315
42968SOL    HW130743  11.655   1.973  14.328
42968SOL    HW230744  11.744   1.875  14.403
42969SOL     OW30745   8.982   6.448   4.510
42969SOL    HW130746   9.065   6.433   4.466
42969SOL    HW230747   9.006   6.473   4.600
42970SOL     OW30748  11.868  11.028  13.803
42970SOL    HW130749  11.954  11.003  13.838
42970SOL    HW230750  11.820  10.946  13.797
42971SOL     OW30751  10.549  10.855   7.764
42971SOL    HW130752  10.498  10.800   7.824
42971SOL    HW230753  10.486  10.881   7.697
42972SOL     OW30754   3.878   2.263   9.996
42972SOL    HW130755   3.970   2.242   9.983
42972SOL    HW230756   3.847   2.287   9.908
42973SOL     OW30757  13.269   4.322   8.132
42973SOL    HW130758  13.279   4.321   8.037
42973SOL    HW230759  13.355   4.348   8.165
42974SOL     OW30760   7.324  10.402   9.226
42974SOL    HW130761   7.348  10.481   9.275
42974SOL    HW230762   7.233  10.384   9.252
42975SOL     OW30763  12.051   7.440   3.147
42975SOL    HW130764  11.976   7.438   3.088
42975SOL    HW230765  12.051   7.529   3.183
42976SOL     OW30766   4.018  10.290   1.662
42976SOL    HW130767   4.000  10.220   1.600
42976SOL    HW230768   3.947  10.285   1.726
42977SOL     OW30769   6.157  13.276  13.673
42977SOL    HW130770   6.088  13.241  13.729
42977SOL    HW230771   6.238  13.245  13.712
42978SOL     OW30772   7.372   9.302  12.557
42978SOL    HW130773   7.359   9.369  12.490
42978SOL    HW230774   7.284   9.283  12.589
42979SOL     OW30775  10.788   7.845   3.470
42979SOL    HW130776  10.738   7.769   3.499
42979SOL    HW230777  10.762   7.858   3.379
42980SOL     OW30778   9.894   5.018   1.153
42980SOL    HW130779   9.853   4.999   1.237
42980SOL    HW230780   9.983   5.045   1.175
42981SOL     OW30781   4.324   9.381   3.568
42981SOL    HW130782   4.240   9.390   3.522
42981SOL    HW230783   4.305   9.320   3.639
42982SOL     OW30784   4.848   9.324  10.913
42982SOL    HW130785   4.774   9.371  10.951
42982SOL    HW230786   4.913   9.392  10.895
42983SOL     OW30787   8.242   2.251   5.672
42983SOL    HW130788   8.224   2.157   5.684
42983SOL    HW230789   8.174   2.281   5.613
42984SOL     OW30790   2.103   8.377   6.493
42984SOL    HW130791   2.098   8.356   6.399
42984SOL    HW230792   2.026   8.336   6.531
42985SOL     OW30793  12.839   0.757   5.349
42985SOL    HW130794  12.922   0.751   5.396
42985SOL    HW230795  12.852   0.706   5.269
42986SOL     OW30796  12.141   7.564   3.705
42986SOL    HW130797  12.209   7.591   3.766
42986SOL    HW230798  12.079   7.514   3.759
42987SOL     OW30799  11.028   9.047  13.195
42987SOL    HW130800  11.051   9.053  13.102
42987SOL    HW230801  10.998   9.135  13.218
42988SOL     OW30802   3.162   5.138  13.036
42988SOL    HW130803   3.206   5.059  13.003
42988SOL    HW230804   3.167   5.199  12.963
42989SOL     OW30805   5.904   6.566   6.616
42989SOL    HW130806   5.914   6.488   6.670
42989SOL    HW230807   5.974   6.625   6.645
42990SOL     OW30808  10.680  13.121  10.842
42990SOL    HW130809  10.676  13.029  10.867
42990SOL    HW230810  10.614  13.163  10.898
42991SOL     OW30811   0.889  12.848   3.052
42991SOL    HW130812   0.864  12.838   2.960
42991SOL    HW230813   0.984  12.833   3.052
42992SOL     OW30814   8.105   0.916  10.609
42992SOL    HW130815   8.025   0.935  10.560
42992SOL    HW230816   8.146   0.845  10.560
42993SOL     OW30817  12.874   3.683  14.350
42993SOL    HW130818  12.933   3.754  14.377
42993SOL    HW230819  12.789   3.726  14.338
42994SOL     OW30820   5.237   9.295  14.260
42994SOL    HW130821   5.291   9.234  14.310
42994SOL    HW230822   5.217   9.249  14.179
42995SOL     OW30823   0.001  12.072   7.904
42995SOL    HW130824  14.848  12.160   7.883
42995SOL    HW230825   0.003  12.070   7.999
42996SOL     OW30826   0.092   0.501  10.469
42996SOL    HW130827   0.055   0.459  10.547
42996SOL    HW230828   0.129   0.430  10.418
42997SOL     OW30829  13.710  14.437   0.702
42997SOL    HW130830  13.787  14.388   0.733
42997SOL    HW230831  13.719  14.523   0.743
42998SOL     OW30832   9.704  13.294   1.622
42998SOL    HW130833   9.627  13.267   1.672
42998SOL    HW230834   9.691  13.256   1.535
42999SOL     OW30835   7.147  14.258   9.046
42999SOL    HW130836   7.057  14.241   9.072
42999SOL    HW230837   7.166  14.191   8.979
43000SOL     OW30838   0.905   7.932  13.254
43000SOL    HW130839   0.883   7.849  13.211
43000SOL    HW230840   0.915   7.908  13.346
43001SOL     OW30841  10.115   4.708   7.010
43001SOL    HW130842  10.091   4.721   7.102
43001SOL    HW230843  10.090   4.617   6.992
43002SOL     OW30844   7.975  12.456   5.884
43002SOL    HW130845   8.022  12.447   5.967
43002SOL    HW230846   7.884  12.436   5.905
43003SOL     OW30847  11.371  14.112  12.484
43003SOL    HW130848  11.374  14.060  12.565
43003SOL    HW230849  11.328  14.054  12.421
43004SOL     OW30850  13.632   3.573   3.009
43004SOL    HW130851  13.665   3.638   3.071
43004SOL    HW230852  13.710   3.522   2.984
43005SOL     OW30853  11.404   4.658  13.001
43005SOL    HW130854  11.315   4.674  12.970
43005SOL    HW230855  11.393   4.612  13.084
43006SOL     OW30856   7.521   6.482   6.141
43006SOL    HW130857   7.545   6.450   6.228
43006SOL    HW230858   7.453   6.548   6.157
43007SOL     OW30859   2.113   9.615  11.752
43007SOL    HW130860   2.067   9.554  11.694
43007SOL    HW230861   2.181   9.562  11.794
43008SOL     OW30862   3.133   9.579  13.575
43008SOL    HW130863   3.199   9.539  13.632
43008SOL    HW230864   3.085   9.505  13.538
43009SOL     OW30865   1.511  13.715   6.428
43009SOL    HW130866   1.494  13.778   6.499
43009SOL    HW230867   1.519  13.770   6.350
43010SOL     OW30868   9.250   0.129   0.349
43010SOL    HW130869   9.206   0.212   0.364
43010SOL    HW230870   9.262   0.091   0.437
43011SOL     OW30871   8.459  11.165   8.124
43011SOL    HW130872   8.458  11.082   8.171
43011SOL    HW230873   8.383  11.161   8.066
43012SOL     OW30874  10.067   5.562   6.284
43012SOL    HW130875  10.135   5.600   6.229
43012SOL    HW230876   9.990   5.616   6.268
43013SOL     OW30877   6.230   5.829   5.319
43013SOL    HW130878   6.169   5.777   5.371
43013SOL    HW230879   6.316   5.803   5.351
43014SOL     OW30880   6.270  10.597  12.774
43014SOL    HW130881   6.337  10.533  12.798
43014SOL    HW230882   6.305  10.641  12.697
43015SOL     OW30883  12.685   9.892   9.632
43015SOL    HW130884  12.669   9.963   9.694
43015SOL    HW230885  12.705   9.816   9.687
43016SOL     OW30886  11.874   0.076   4.567
43016SOL    HW130887  11.896   0.118   4.484
43016SOL    HW230888  11.791   0.118   4.593
43017SOL     OW30889   7.357  14.060   8.911
43017SOL    HW130890   7.407  14.000   8.967
43017SOL    HW230891   7.298  14.003   8.862
43018SOL     OW30892   6.353   6.688   2.207
43018SOL    HW130893   6.394   6.665   2.290
43018SOL    HW230894   6.267   6.723   2.231
43019SOL     OW30895   5.575  10.879   6.406
43019SOL    HW130896   5.623  10.905   6.328
43019SOL    HW230897   5.556  10.786   6.392
43020SOL     OW30898  12.166   9.791  11.397
43020SOL    HW130899  12.185   9.857  11.330
43020SOL    HW230900  12.109   9.728  11.353
43021SOL     OW30901  13.423   9.877   4.047
43021SOL    HW130902  13.356   9.945   4.046
43021SOL    HW230903  13.385   9.806   4.099
43022SOL     OW30904   8.902  11.802   1.478
43022SOL    HW130905   8.919  11.852   1.558
43022SOL    HW230906   8.841  11.857   1.429
43023SOL     OW30907   8.104   6.919   3.738
43023SOL    HW130908   8.045   6.980   3.695
43023SOL    HW230909   8.050   6.878   3.806
43024SOL     OW30910  13.108   7.670   4.663
43024SOL    HW130911  13.055   7.741   4.701
43024SOL    HW230912  13.199   7.699   4.675
43025SOL     OW30913   7.650   6.832  11.436
43025SOL    HW130914   7.698   6.892  11.378
43025SOL    HW230915   7.714   6.766  11.460
43026SOL     OW30916   4.117  11.532  10.839
43026SOL    HW130917   4.191  11.511  10.781
43026SOL    HW230918   4.130  11.478  10.916
43027SOL     OW30919   5.261  12.004  12.274
43027SOL    HW130920   5.175  11.990  12.314
43027SOL    HW230921   5.323  11.999  12.347
43028SOL     OW30922   0.047   2.672  12.300
43028SOL    HW130923   0.132   2.630  12.303
43028SOL    HW230924   0.058   2.754  12.349
43029SOL     OW30925  14.612  12.337   1.433
43029SOL    HW130926  14.622  12.378   1.518
43029SOL    HW230927  14.615  12.243   1.450
43030SOL     OW30928   3.809  11.780   0.445
43030SOL    HW130929   3.716  11.756   0.450
43030SOL    HW230930   3.812  11.852   0.382
43031SOL     OW30931   6.444   6.969  13.732
43031SOL    HW130932   6.446   6.988  13.826
43031SOL    HW230933   6.410   7.049  13.692
43032SOL     OW30934   7.290   9.685   2.625
43032SOL    HW130935   7.287   9.605   2.678
43032SOL    HW230936   7.243   9.750   2.678
43033SOL     OW30937   9.434   4.615  11.408
43033SOL    HW130938   9.474   4.604  11.495
43033SOL    HW230939   9.506   4.641  11.351
43034SOL     OW30940   8.976  13.388   0.545
43034SOL    HW130941   9.044  13.433   0.495
43034SOL    HW230942   8.894  13.420   0.508
43035SOL     OW30943  14.486   5.948  12.978
43035SOL    HW130944  14.397   5.963  12.946
43035SOL    HW230945  14.492   5.853  12.987
43036SOL     OW30946  11.899  11.410   3.172
43036SOL    HW130947  11.935  11.331   3.212
43036SOL    HW230948  11.970  11.443   3.117
43037SOL     OW30949  13.507  13.779  14.759
43037SOL    HW130950  13.489  13.699  14.810
43037SOL    HW230951  13.495  13.850  14.822
43038SOL     OW30952   1.499  14.535  10.134
43038SOL    HW130953   1.589  14.510  10.159
43038SOL    HW230954   1.444  14.487  10.196
43039SOL     OW30955  10.452   7.289  10.181
43039SOL    HW130956  10.446   7.310  10.088
43039SOL    HW230957  10.361   7.276  10.208
43040SOL     OW30958   1.787   2.087   0.529
43040SOL    HW130959   1.874   2.073   0.494
43040SOL    HW230960   1.775   2.017   0.594
43041SOL     OW30961   5.986   0.877   7.522
43041SOL    HW130962   5.963   0.844   7.609
43041SOL    HW230963   6.082   0.879   7.521
43042SOL     OW30964  13.597   8.971   5.043
43042SOL    HW130965  13.558   9.055   5.019
43042SOL    HW230966  13.524   8.909   5.040
43043SOL     OW30967  14.332   4.529   2.741
43043SOL    HW130968  14.424   4.550   2.724
43043SOL    HW230969  14.335   4.467   2.815
43044SOL     OW30970   7.498   1.750   9.082
43044SOL    HW130971   7.540   1.805   9.015
43044SOL    HW230972   7.543   1.772   9.163
43045SOL     OW30973  14.092   5.049   3.255
43045SOL    HW130974  14.148   5.070   3.180
43045SOL    HW230975  14.009   5.093   3.237
43046SOL     OW30976   4.037   7.301   6.046
43046SOL    HW130977   4.126   7.264   6.055
43046SOL    HW230978   4.008   7.272   5.960
43047SOL     OW30979   8.596   4.486   5.047
43047SOL    HW130980   8.607   4.543   5.123
43047SOL    HW230981   8.501   4.486   5.031
43048SOL     OW30982   3.429  11.232  12.355
43048SOL    HW130983   3.432  11.327  12.358
43048SOL    HW230984   3.441  11.210  12.263
43049SOL     OW30985   5.468  10.815   7.449
43049SOL    HW130986   5.482  10.765   7.529
43049SOL    HW230987   5.448  10.904   7.480
43050SOL     OW30988  12.680   0.594   5.122
43050SOL    HW130989  12.718   0.680   5.106
43050SOL    HW230990  12.631   0.574   5.043
43051SOL     OW30991  12.740  12.512   2.511
43051SOL    HW130992  12.808  12.446   2.502
43051SOL    HW230993  12.784  12.587   2.551
43052SOL     OW30994   0.744   1.436   8.376
43052SOL    HW130995   0.726   1.492   8.451
43052SOL    HW230996   0.660   1.428   8.331
43053SOL     OW30997   8.875  10.279   3.726
43053SOL    HW130998   8.956  10.259   3.679
43053SOL    HW230999   8.860  10.372   3.708
43054SOL     OW31000  11.643   3.094   3.851
43054SOL    HW131001  11.638   3.189   3.856
43054SOL    HW231002  11.572   3.069   3.791
43055SOL     OW31003   2.224  12.430  10.307
43055SOL    HW131004   2.263  12.516  10.290
43055SOL    HW231005   2.237  12.416  10.401
43056SOL     OW31006  10.583  12.195   3.608
43056SOL    HW131007  10.637  12.145   3.546
43056SOL    HW231008  10.532  12.254   3.553
43057SOL     OW31009  11.539   2.214  10.599
43057SOL    HW131010  11.562   2.158  10.525
43057SOL    HW231011  11.501   2.153  10.663
43058SOL     OW31012  10.143  10.332  14.839
43058SOL    HW131013  10.159  10.323   0.053
43058SOL    HW231014  10.148  10.243  14.805
43059SOL     OW31015   7.960  11.715   0.456
43059SOL    HW131016   7.991  11.634   0.416
43059SOL    HW231017   8.036  11.772   0.459
43060SOL     OW31018   7.546  14.291   3.383
43060SOL    HW131019   7.541  14.359   3.316
43060SOL    HW231020   7.581  14.215   3.338
43061SOL     OW31021   3.254   6.970  10.130
43061SOL    HW131022   3.270   6.887  10.085
43061SOL    HW231023   3.326   6.976  10.193
43062SOL     OW31024  14.406   6.794   2.452
43062SOL    HW131025  14.469   6.782   2.381
43062SOL    HW231026  14.449   6.856   2.511
43063SOL     OW31027   7.579  12.383   3.003
43063SOL    HW131028   7.603  12.374   3.095
43063SOL    HW231029   7.620  12.309   2.960
43064SOL     OW31030   0.357   3.436   9.748
43064SOL    HW131031   0.391   3.346   9.746
43064SOL    HW231032   0.314   3.447   9.664
43065SOL     OW31033   3.932   9.890   0.390
43065SOL    HW131034   3.869   9.917   0.456
43065SOL    HW231035   3.964   9.805   0.419
43066SOL     OW31036   4.135  13.369   4.361
43066SOL    HW131037   4.098  13.430   4.297
43066SOL    HW231038   4.128  13.283   4.320
43067SOL     OW31039   7.734   2.708   7.312
43067SOL    HW131040   7.764   2.626   7.352
43067SOL    HW231041   7.775   2.708   7.226
43068SOL     OW31042   2.801   5.436   3.084
43068SOL    HW131043   2.821   5.510   3.141
43068SOL    HW231044   2.712   5.452   3.053
43069SOL     OW31045   3.199  13.016   6.498
43069SOL    HW131046   3.222  12.947   6.561
43069SOL    HW231047   3.205  12.973   6.413
43070SOL     OW31048   2.072  13.411   2.053
43070SOL    HW131049   2.059  13.317   2.042
43070SOL    HW231050   2.069  13.447   1.964
43071SOL     OW31051  11.007   1.079  13.770
43071SOL    HW131052  11.076   1.017  13.795
43071SOL    HW231053  10.927   1.027  13.769
43072SOL     OW31054   4.001   1.444  12.514
43072SOL    HW131055   4.070   1.468  12.452
43072SOL    HW231056   3.921   1.479  12.476
43073SOL     OW31057  13.275  12.119  11.026
43073SOL    HW131058  13.309  12.156  11.107
43073SOL    HW231059  13.303  12.180  10.958
43074SOL     OW31060   6.941  10.254   0.453
43074SOL    HW131061   6.914  10.303   0.376
43074SOL    HW231062   6.976  10.320   0.513
43075SOL     OW31063  14.435   3.472  14.357
43075SOL    HW131064  14.500   3.458  14.288
43075SOL    HW231065  14.456   3.558  14.393
43076SOL     OW31066  14.682  13.212   4.238
43076SOL    HW131067  14.587  13.224   4.245
43076SOL    HW231068  14.700  13.217   4.144
43077SOL     OW31069   9.214   6.726   8.252
43077SOL    HW131070   9.285   6.786   8.271
43077SOL    HW231071   9.209   6.670   8.330
43078SOL     OW31072  10.191  13.855   0.839
43078SOL    HW131073  10.259  13.817   0.783
43078SOL    HW231074  10.234  13.864   0.925
43079SOL     OW31075  10.221   8.795   8.052
43079SOL    HW131076  10.241   8.740   7.976
43079SOL    HW231077  10.249   8.883   8.026
43080SOL     OW31078   5.035   5.564  13.783
43080SOL    HW131079   4.941   5.585  13.777
43080SOL    HW231080   5.056   5.574  13.876
43081SOL     OW31081  12.786  11.397   4.213
43081SOL    HW131082  12.732  11.319   4.200
43081SOL    HW231083  12.785  11.410   4.308
43082SOL     OW31084  12.747   0.010   8.434
43082SOL    HW131085  12.791   0.009   8.348
43082SOL    HW231086  12.814  14.860   8.495
43083SOL     OW31087  14.344  13.396  12.675
43083SOL    HW131088  14.343  13.353  12.589
43083SOL    HW231089  14.257  13.379  12.711
43084SOL     OW31090  10.612   1.321  13.330
43084SOL    HW131091  10.579   1.408  13.353
43084SOL    HW231092  10.581   1.264  13.400
43085SOL     OW31093  12.108  12.169   1.782
43085SOL    HW131094  12.091  12.127   1.867
43085SOL    HW231095  12.132  12.097   1.724
43086SOL     OW31096   4.012   1.393   5.266
43086SOL    HW131097   4.024   1.316   5.211
43086SOL    HW231098   3.917   1.405   5.271
43087SOL     OW31099   0.948  11.102  11.535
43087SOL    HW131100   0.862  11.143  11.533
43087SOL    HW231101   0.972  11.092  11.443
43088SOL     OW31102   6.063   8.345  10.279
43088SOL    HW131103   6.000   8.339  10.351
43088SOL    HW231104   6.088   8.254  10.261
43089SOL     OW31105   9.674   5.304   9.307
43089SOL    HW131106   9.676   5.391   9.267
43089SOL    HW231107   9.698   5.244   9.237
43090SOL     OW31108   4.582  13.763  12.984
43090SOL    HW131109   4.582  13.752  12.889
43090SOL    HW231110   4.618  13.850  12.998
43091SOL     OW31111   4.247  13.538   7.488
43091SOL    HW131112   4.193  13.524   7.566
43091SOL    HW231113   4.249  13.452   7.445
43092SOL     OW31114  10.543  10.360  12.494
43092SOL    HW131115  10.531  10.441  12.542
43092SOL    HW231116  10.520  10.381  12.404
43093SOL     OW31117  12.242   7.432   4.513
43093SOL    HW131118  12.239   7.337   4.517
43093SOL    HW231119  12.227   7.460   4.603
43094SOL     OW31120   7.957   6.333   2.654
43094SOL    HW131121   8.024   6.286   2.704
43094SOL    HW231122   7.874   6.300   2.687
43095SOL     OW31123   9.394  11.625   5.245
43095SOL    HW131124   9.402  11.636   5.150
43095SOL    HW231125   9.330  11.555   5.255
43096SOL     OW31126   4.161   0.467   0.854
43096SOL    HW131127   4.155   0.417   0.935
43096SOL    HW231128   4.247   0.510   0.859
43097SOL     OW31129  11.228   9.694   9.035
43097SOL    HW131130  11.248   9.783   9.008
43097SOL    HW231131  11.175   9.704   9.115
43098SOL     OW31132   6.435  10.386  13.743
43098SOL    HW131133   6.408  10.296  13.764
43098SOL    HW231134   6.371  10.442  13.787
43099SOL     OW31135   5.860   3.870   0.688
43099SOL    HW131136   5.779   3.887   0.641
43099SOL    HW231137   5.838   3.883   0.780
43100SOL     OW31138   2.163   0.011   1.491
43100SOL    HW131139   2.140  14.839   1.414
43100SOL    HW231140   2.085   0.064   1.508
43101SOL     OW31141  12.219   9.991   5.280
43101SOL    HW131142  12.124   9.994   5.269
43101SOL    HW231143  12.238  10.064   5.339
43102SOL     OW31144  10.074   2.500   0.865
43102SOL    HW131145  10.069   2.547   0.948
43102SOL    HW231146   9.988   2.459   0.856
43103SOL     OW31147  13.359   2.793  11.984
43103SOL    HW131148  13.295   2.727  11.958
43103SOL    HW231149  13.395   2.826  11.902
43104SOL     OW31150  10.352   6.745   1.253
43104SOL    HW131151  10.408   6.716   1.325
43104SOL    HW231152  10.266   6.756   1.292
43105SOL     OW31153   0.490   6.439  12.562
43105SOL    HW131154   0.443   6.502  12.617
43105SOL    HW231155   0.563   6.489  12.526
43106SOL     OW31156  13.878   5.711   2.086
43106SOL    HW131157  13.815   5.782   2.083
43106SOL    HW231158  13.946   5.742   2.146
43107SOL     OW31159   2.186  11.736   5.672
43107SOL    HW131160   2.213  11.644   5.669
43107SOL    HW231161   2.115  11.739   5.736
43108SOL     OW31162   6.203   8.053   7.806
43108SOL    HW131163   6.287   8.062   7.851
43108SOL    HW231164   6.222   7.993   7.733
43109SOL     OW31165  12.063  12.123  14.185
43109SOL    HW131166  11.997  12.092  14.247
43109SOL    HW231167  12.059  12.061  14.113
43110SOL     OW31168   0.940  13.384   4.816
43110SOL    HW131169   0.902  13.350   4.736
43110SOL    HW231170   0.868  13.430   4.860
43111SOL     OW31171  10.409   9.093   4.529
43111SOL    HW131172  10.399   9.166   4.468
43111SOL    HW231173  10.415   9.134   4.615
43112SOL     OW31174   2.241   8.910  11.861
43112SOL    HW131175   2.308   8.914  11.793
43112SOL    HW231176   2.158   8.919  11.814
43113SOL     OW31177  12.094  11.296   1.198
43113SOL    HW131178  12.173  11.245   1.181
43113SOL    HW231179  12.071  11.335   1.114
43114SOL     OW31180   0.059   7.506   7.754
43114SOL    HW131181   0.006   7.462   7.687
43114SOL    HW231182   0.051   7.599   7.734
43115SOL     OW31183  12.356  13.897  10.744
43115SOL    HW131184  12.319  13.974  10.786
43115SOL    HW231185  12.393  13.929  10.662
43116SOL     OW31186   8.974  11.076  11.092
43116SOL    HW131187   9.067  11.063  11.076
43116SOL    HW231188   8.969  11.159  11.138
43117SOL     OW31189  12.613  11.849  10.864
43117SOL    HW131190  12.676  11.916  10.839
43117SOL    HW231191  12.666  11.773  10.886
43118SOL     OW31192   1.218   3.096   7.661
43118SOL    HW131193   1.240   3.093   7.568
43118SOL    HW231194   1.218   3.004   7.689
43119SOL     OW31195   3.361   0.666   7.358
43119SOL    HW131196   3.308   0.690   7.282
43119SOL    HW231197   3.356   0.743   7.415
43120SOL     OW31198   0.720  10.024   2.054
43120SOL    HW131199   0.727  10.101   2.110
43120SOL    HW231200   0.729  10.058   1.965
43121SOL     OW31201   7.908   6.984   4.721
43121SOL    HW131202   7.813   6.972   4.718
43121SOL    HW231203   7.937   6.966   4.631
43122SOL     OW31204  11.596  14.739   4.444
43122SOL    HW131205  11.633  14.827   4.443
43122SOL    HW231206  11.586  14.715   4.352
43123SOL     OW31207   7.563  14.491   3.824
43123SOL    HW131208   7.575  14.489   3.729
43123SOL    HW231209   7.524  14.406   3.845
43124SOL     OW31210   3.110   2.929   7.712
43124SOL    HW131211   3.022   2.966   7.715
43124SOL    HW231212   3.155   2.967   7.787
43125SOL     OW31213   0.778   0.568   4.906
43125SOL    HW131214   0.684   0.574   4.926
43125SOL    HW231215   0.794   0.639   4.844
43126SOL     OW31216  12.918  12.465  13.146
43126SOL    HW131217  12.997  12.480  13.094
43126SOL    HW231218  12.855  12.529  13.114
43127SOL     OW31219  12.727   9.702  13.318
43127SOL    HW131220  12.649   9.753  13.299
43127SOL    HW231221  12.733   9.701  13.414
43128SOL     OW31222  13.412   8.351   0.809
43128SOL    HW131223  13.376   8.429   0.851
43128SOL    HW231224  13.354   8.336   0.734
43129SOL     OW31225  13.207   1.489   9.939
43129SOL    HW131226  13.168   1.559   9.886
43129SOL    HW231227  13.298   1.517   9.952
43130SOL     OW31228  14.345   9.314  11.510
43130SOL    HW131229  14.418   9.373  11.494
43130SOL    HW231230  14.334   9.315  11.605
43131SOL     OW31231  14.471  14.867  12.518
43131SOL    HW131232  14.428   0.047  12.456
43131SOL    HW231233  14.550  14.839  12.473
43132SOL     OW31234   2.526   4.006  11.755
43132SOL    HW131235   2.501   3.942  11.822
43132SOL    HW231236   2.501   3.964  11.673
43133SOL     OW31237   5.215   3.361   0.165
43133SOL    HW131238   5.233   3.455   0.160
43133SOL    HW231239   5.160   3.351   0.243
43134SOL     OW31240  12.092   5.326  10.583
43134SOL    HW131241  12.118   5.277  10.661
43134SOL    HW231242  12.055   5.407  10.617
43135SOL     OW31243   4.451  10.232   4.852
43135SOL    HW131244   4.406  10.313   4.875
43135SOL    HW231245   4.448  10.229   4.756
43136SOL     OW31246   3.301   6.653  10.427
43136SOL    HW131247   3.376   6.681  10.374
43136SOL    HW231248   3.250   6.734  10.441
43137SOL     OW31249  13.138   2.563   4.681
43137SOL    HW131250  13.156   2.647   4.724
43137SOL    HW231251  13.042   2.557   4.681
43138SOL     OW31252  12.921   8.886   4.649
43138SOL    HW131253  12.906   8.794   4.629
43138SOL    HW231254  12.999   8.886   4.704
43139SOL     OW31255   2.574   4.160   8.420
43139SOL    HW131256   2.504   4.162   8.486
43139SOL    HW231257   2.605   4.069   8.420
43140SOL     OW31258  12.479  10.454   1.405
43140SOL    HW131259  12.418  10.511   1.359
43140SOL    HW231260  12.561  10.461   1.356
43141SOL     OW31261   1.411  10.303  12.777
43141SOL    HW131262   1.469  10.359  12.727
43141SOL    HW231263   1.326  10.347  12.772
43142SOL     OW31264  10.986   1.106   1.194
43142SOL    HW131265  10.932   1.048   1.248
43142SOL    HW231266  10.923   1.164   1.150
43143SOL     OW31267   9.510   5.080   3.887
43143SOL    HW131268   9.527   5.113   3.975
43143SOL    HW231269   9.495   5.158   3.834
43144SOL     OW31270   3.439  13.526   4.030
43144SOL    HW131271   3.509  13.477   3.986
43144SOL    HW231272   3.422  13.600   3.973
43145SOL     OW31273   9.836  11.427  12.686
43145SOL    HW131274   9.930  11.424  12.668
43145SOL    HW231275   9.801  11.487  12.620
43146SOL     OW31276   7.253   1.364   5.194
43146SOL    HW131277   7.267   1.270   5.190
43146SOL    HW231278   7.325   1.396   5.249
43147SOL     OW31279   9.466  14.844   6.641
43147SOL    HW131280   9.533   0.016   6.686
43147SOL    HW231281   9.487  14.754   6.663
43148SOL     OW31282  12.733   8.033   6.097
43148SOL    HW131283  12.712   7.940   6.107
43148SOL    HW231284  12.711   8.072   6.182
43149SOL     OW31285   5.230   5.405  14.648
43149SOL    HW131286   5.293   5.384  14.579
43149SOL    HW231287   5.153   5.437  14.600
43150SOL     OW31288   0.921   9.494   0.519
43150SOL    HW131289   0.963   9.524   0.439
43150SOL    HW231290   0.887   9.574   0.560
43151SOL     OW31291   0.547   0.028  10.333
43151SOL    HW131292   0.588   0.071  10.259
43151SOL    HW231293   0.520  14.822  10.300
43152SOL     OW31294   5.565  11.490   1.031
43152SOL    HW131295   5.625  11.482   1.105
43152SOL    HW231296   5.478  11.493   1.071
43153SOL     OW31297  13.299   5.592   1.233
43153SOL    HW131298  13.330   5.509   1.270
43153SOL    HW231299  13.353   5.659   1.276
43154SOL     OW31300   0.977  12.013   4.388
43154SOL    HW131301   1.032  11.984   4.460
43154SOL    HW231302   0.964  12.107   4.405
43155SOL     OW31303  10.105   5.435  12.877
43155SOL    HW131304  10.020   5.462  12.843
43155SOL    HW231305  10.148   5.516  12.902
43156SOL     OW31306   4.962   5.876   8.222
43156SOL    HW131307   5.054   5.874   8.250
43156SOL    HW231308   4.912   5.857   8.301
43157SOL     OW31309   7.260  11.994   1.005
43157SOL    HW131310   7.224  11.906   0.996
43157SOL    HW231311   7.354  11.981   1.014
43158SOL     OW31312   8.002  11.189  10.000
43158SOL    HW131313   7.995  11.100   9.964
43158SOL    HW231314   8.078  11.185  10.058
43159SOL     OW31315   0.373   6.510  10.564
43159SOL    HW131316   0.437   6.579  10.582
43159SOL    HW231317   0.384   6.448  10.636
43160SOL     OW31318   9.964  13.873  12.384
43160SOL    HW131319   9.980  13.820  12.306
43160SOL    HW231320   9.870  13.865  12.400
43161SOL     OW31321   8.998  12.287  13.235
43161SOL    HW131322   8.956  12.337  13.305
43161SOL    HW231323   8.925  12.261  13.178
43162SOL     OW31324   4.840  14.573   9.213
43162SOL    HW131325   4.933  14.586   9.234
43162SOL    HW231326   4.839  14.494   9.160
43163SOL     OW31327   6.677   2.149   2.637
43163SOL    HW131328   6.749   2.200   2.673
43163SOL    HW231329   6.633   2.209   2.576
43164SOL     OW31330   0.024   0.421   0.627
43164SOL    HW131331   0.054   0.348   0.680
43164SOL    HW231332  14.860   0.380   0.553
43165SOL     OW31333   3.388   1.403   2.280
43165SOL    HW131334   3.407   1.329   2.222
43165SOL    HW231335   3.322   1.454   2.234
43166SOL     OW31336   1.133   6.585   8.423
43166SOL    HW131337   1.214   6.538   8.442
43166SOL    HW231338   1.072   6.516   8.397
43167SOL     OW31339  11.747   3.725   4.041
43167SOL    HW131340  11.827   3.743   4.091
43167SOL    HW231341  11.676   3.748   4.100
43168SOL     OW31342   1.939   5.236   4.267
43168SOL    HW131343   1.844   5.230   4.277
43168SOL    HW231344   1.970   5.147   4.282
43169SOL     OW31345   2.752   2.962   5.501
43169SOL    HW131346   2.741   3.056   5.517
43169SOL    HW231347   2.806   2.931   5.574
43170SOL     OW31348   5.915   7.784   2.816
43170SOL    HW131349   5.870   7.817   2.894
43170SOL    HW231350   5.999   7.829   2.816
43171SOL     OW31351  13.446  14.369  14.344
43171SOL    HW131352  13.519  14.422  14.374
43171SOL    HW231353  13.445  14.294  14.404
43172SOL     OW31354   9.418   9.869  11.078
43172SOL    HW131355   9.415   9.835  10.988
43172SOL    HW231356   9.326   9.876  11.104
43173SOL     OW31357   6.006   9.830  10.750
43173SOL    HW131358   6.028   9.741  10.725
43173SOL    HW231359   5.935   9.855  10.690
43174SOL     OW31360   4.692  11.041   0.541
43174SOL    HW131361   4.624  11.100   0.575
43174SOL    HW231362   4.774  11.089   0.556
43175SOL     OW31363   9.807   1.128   9.934
43175SOL    HW131364   9.815   1.088  10.021
43175SOL    HW231365   9.854   1.211   9.941
43176SOL     OW31366  13.318   6.631  10.990
43176SOL    HW131367  13.410   6.644  10.968
43176SOL    HW231368  13.305   6.680  11.071
43177SOL     OW31369   0.892   4.547   6.612
43177SOL    HW131370   0.874   4.469   6.664
43177SOL    HW231371   0.902   4.617   6.677
43178SOL     OW31372   0.752   8.089   9.457
43178SOL    HW131373   0.679   8.059   9.510
43178SOL    HW231374   0.825   8.032   9.481
43179SOL     OW31375  13.829   8.712  11.002
43179SOL    HW131376  13.860   8.680  10.917
43179SOL    HW231377  13.867   8.651  11.065
43180SOL     OW31378  12.389   1.119  14.786
43180SOL    HW131379  12.389   1.089  14.695
43180SOL    HW231380  12.304   1.162  14.796
43181SOL     OW31381  11.565   3.957   8.186
43181SOL    HW131382  11.542   3.955   8.093
43181SOL    HW231383  11.485   3.932   8.232
43182SOL     OW31384   2.983   2.638  11.749
43182SOL    HW131385   2.902   2.680  11.719
43182SOL    HW231386   3.006   2.577  11.680
43183SOL     OW31387  10.415  13.742   2.768
43183SOL    HW131388  10.331  13.702   2.746
43183SOL    HW231389  10.453  13.684   2.834
43184SOL     OW31390   3.000  14.426   9.487
43184SOL    HW131391   3.062  14.499   9.492
43184SOL    HW231392   3.004  14.385   9.574
43185SOL     OW31393   2.692   0.482   0.722
43185SOL    HW131394   2.704   0.472   0.817
43185SOL    HW231395   2.757   0.422   0.684
43186SOL     OW31396   6.363   6.031   8.813
43186SOL    HW131397   6.347   6.100   8.749
43186SOL    HW231398   6.284   5.977   8.811
43187SOL     OW31399  12.469  13.407  13.358
43187SOL    HW131400  12.408  13.334  13.349
43187SOL    HW231401  12.417  13.484  13.336
43188SOL     OW31402   3.171  11.836  10.451
43188SOL    HW131403   3.214  11.756  10.422
43188SOL    HW231404   3.216  11.859  10.532
43189SOL     OW31405  10.784   8.925   4.267
43189SOL    HW131406  10.698   8.933   4.309
43189SOL    HW231407  10.829   8.857   4.317
43190SOL     OW31408  11.443   1.991   4.186
43190SOL    HW131409  11.455   2.086   4.198
43190SOL    HW231410  11.525   1.961   4.149
43191SOL     OW31411   7.594   0.980   4.772
43191SOL    HW131412   7.675   1.016   4.736
43191SOL    HW231413   7.529   0.998   4.704
43192SOL     OW31414   6.443   8.031   5.225
43192SOL    HW131415   6.490   8.112   5.247
43192SOL    HW231416   6.425   7.991   5.310
43193SOL     OW31417   9.506   6.766  14.373
43193SOL    HW131418   9.539   6.823  14.303
43193SOL    HW231419   9.411   6.768  14.363
43194SOL     OW31420   7.212   8.004  11.501
43194SOL    HW131421   7.259   8.015  11.584
43194SOL    HW231422   7.206   7.909  11.489
43195SOL     OW31423  12.387   8.935   8.477
43195SOL    HW131424  12.315   8.898   8.529
43195SOL    HW231425  12.346   9.005   8.426
43196SOL     OW31426   6.746  10.529  10.418
43196SOL    HW131427   6.800  10.608  10.417
43196SOL    HW231428   6.785  10.472  10.351
43197SOL     OW31429   2.370   6.344   8.636
43197SOL    HW131430   2.368   6.250   8.617
43197SOL    HW231431   2.442   6.378   8.584
43198SOL     OW31432  11.480  12.154  10.498
43198SOL    HW131433  11.411  12.162  10.433
43198SOL    HW231434  11.532  12.234  10.488
43199SOL     OW31435   1.857   5.331   2.412
43199SOL    HW131436   1.835   5.299   2.500
43199SOL    HW231437   1.947   5.364   2.421
43200SOL     OW31438   3.852   1.468   2.440
43200SOL    HW131439   3.841   1.559   2.412
43200SOL    HW231440   3.946   1.458   2.452
43201SOL     OW31441  13.071  10.784  13.247
43201SOL    HW131442  13.070  10.856  13.184
43201SOL    HW231443  13.028  10.712  13.201
43202SOL     OW31444  14.669   3.071   8.011
43202SOL    HW131445  14.756   3.056   8.047
43202SOL    HW231446  14.610   3.065   8.086
43203SOL     OW31447   2.132   8.630   4.697
43203SOL    HW131448   2.150   8.719   4.727
43203SOL    HW231449   2.197   8.615   4.628
43204SOL     OW31450  10.802  13.023   5.788
43204SOL    HW131451  10.736  12.959   5.816
43204SOL    HW231452  10.776  13.046   5.699
43205SOL     OW31453  13.986   4.267   5.503
43205SOL    HW131454  13.946   4.207   5.566
43205SOL    HW231455  13.954   4.354   5.530
43206SOL     OW31456   5.837   8.493  14.108
43206SOL    HW131457   5.907   8.445  14.063
43206SOL    HW231458   5.877   8.524  14.189
43207SOL     OW31459   0.818  11.231   2.429
43207SOL    HW131460   0.746  11.285   2.462
43207SOL    HW231461   0.892  11.254   2.485
43208SOL     OW31462   8.128   3.384   3.022
43208SOL    HW131463   8.208   3.384   3.074
43208SOL    HW231464   8.133   3.464   2.970
43209SOL     OW31465   8.847   2.501   7.941
43209SOL    HW131466   8.779   2.497   7.874
43209SOL    HW231467   8.844   2.416   7.984
43210SOL     OW31468  10.278   7.963  12.409
43210SOL    HW131469  10.264   7.894  12.474
43210SOL    HW231470  10.366   7.996  12.427
43211SOL     OW31471   2.269  12.436  11.974
43211SOL    HW131472   2.325  12.452  11.898
43211SOL    HW231473   2.270  12.518  12.023
43212SOL     OW31474   7.958   0.503   5.229
43212SOL    HW131475   7.877   0.502   5.178
43212SOL    HW231476   8.027   0.512   5.163
43213SOL     OW31477   2.836   2.923   7.077
43213SOL    HW131478   2.898   2.900   7.147
43213SOL    HW231479   2.781   2.845   7.068
43214SOL     OW31480  14.193  14.375  10.090
43214SOL    HW131481  14.248  14.342  10.161
43214SOL    HW231482  14.181  14.300  10.032
43215SOL     OW31483   2.230  10.667   2.937
43215SOL    HW131484   2.180  10.600   2.891
43215SOL    HW231485   2.316  10.627   2.953
43216SOL     OW31486   4.573   9.248  11.557
43216SOL    HW131487   4.596   9.172  11.503
43216SOL    HW231488   4.481   9.266  11.536
43217SOL     OW31489   7.962   4.280  12.593
43217SOL    HW131490   7.943   4.259  12.501
43217SOL    HW231491   7.895   4.344  12.617
43218SOL     OW31492   8.962  12.359   2.105
43218SOL    HW131493   8.942  12.352   2.198
43218SOL    HW231494   9.051  12.395   2.103
43219SOL     OW31495   5.792   8.147   5.424
43219SOL    HW131496   5.864   8.095   5.460
43219SOL    HW231497   5.733   8.160   5.499
43220SOL     OW31498   3.308   1.598   3.908
43220SOL    HW131499   3.285   1.506   3.907
43220SOL    HW231500   3.395   1.600   3.948
43221SOL     OW31501  14.171   0.482   7.625
43221SOL    HW131502  14.108   0.533   7.573
43221SOL    HW231503  14.218   0.548   7.677
43222SOL     OW31504  14.758  13.228   1.778
43222SOL    HW131505  14.716  13.309   1.749
43222SOL    HW231506  14.815  13.255   1.850
43223SOL     OW31507   4.222   1.916   4.779
43223SOL    HW131508   4.203   2.003   4.815
43223SOL    HW231509   4.303   1.928   4.729
43224SOL     OW31510   9.028   4.627   8.708
43224SOL    HW131511   9.004   4.553   8.651
43224SOL    HW231512   9.120   4.643   8.687
43225SOL     OW31513   9.573   1.210   3.941
43225SOL    HW131514   9.492   1.186   3.897
43225SOL    HW231515   9.618   1.127   3.955
43226SOL     OW31516   6.902   9.082  13.589
43226SOL    HW131517   6.892   9.002  13.641
43226SOL    HW231518   6.923   9.150  13.654
43227SOL     OW31519   8.183   4.226  13.337
43227SOL    HW131520   8.258   4.171  13.314
43227SOL    HW231521   8.153   4.262  13.253
43228SOL     OW31522   4.683   1.553   6.909
43228SOL    HW131523   4.713   1.612   6.979
43228SOL    HW231524   4.723   1.588   6.830
43229SOL     OW31525  14.688   4.421   5.602
43229SOL    HW131526  14.703   4.494   5.662
43229SOL    HW231527  14.593   4.415   5.594
43230SOL     OW31528   9.785   5.669  10.194
43230SOL    HW131529   9.778   5.742  10.256
43230SOL    HW231530   9.775   5.590  10.247
43231SOL     OW31531  10.593   5.122   4.455
43231SOL    HW131532  10.651   5.180   4.404
43231SOL    HW231533  10.524   5.180   4.487
43232SOL     OW31534  13.365   1.920   8.778
43232SOL    HW131535  13.424   1.900   8.851
43232SOL    HW231536  13.392   1.862   8.708
43233SOL     OW31537  12.505   6.163   7.435
43233SOL    HW131538  12.430   6.107   7.454
43233SOL    HW231539  12.561   6.110   7.379
43234SOL     OW31540  14.052   8.411   9.068
43234SOL    HW131541  14.070   8.375   9.155
43234SOL    HW231542  14.079   8.342   9.007
43235SOL     OW31543   0.439   9.610   7.445
43235SOL    HW131544   0.498   9.647   7.511
43235SOL    HW231545   0.414   9.525   7.479
43236SOL     OW31546   5.615  12.404   1.590
43236SOL    HW131547   5.673  12.465   1.637
43236SOL    HW231548   5.656  12.392   1.505
43237SOL     OW31549   9.840   8.087   8.894
43237SOL    HW131550   9.799   8.161   8.848
43237SOL    HW231551   9.794   8.010   8.861
43238SOL     OW31552  13.234   6.880   7.734
43238SOL    HW131553  13.150   6.835   7.726
43238SOL    HW231554  13.252   6.880   7.828
43239SOL     OW31555  11.799  10.047   7.722
43239SOL    HW131556  11.781   9.983   7.791
43239SOL    HW231557  11.832  10.124   7.769
43240SOL     OW31558  11.790   0.898   6.302
43240SOL    HW131559  11.865   0.839   6.306
43240SOL    HW231560  11.828   0.984   6.286
43241SOL     OW31561  10.729   1.897   2.643
43241SOL    HW131562  10.659   1.891   2.708
43241SOL    HW231563  10.738   1.990   2.626
43242SOL     OW31564  13.042  14.455   4.941
43242SOL    HW131565  13.069  14.438   4.851
43242SOL    HW231566  12.980  14.385   4.961
43243SOL     OW31567   6.542   9.581   0.080
43243SOL    HW131568   6.453   9.598   0.050
43243SOL    HW231569   6.598   9.617   0.011
43244SOL     OW31570   4.053  13.140   7.673
43244SOL    HW131571   4.050  13.086   7.594
43244SOL    HW231572   4.004  13.219   7.650
43245SOL     OW31573   2.577  11.708  10.718
43245SOL    HW131574   2.619  11.750  10.792
43245SOL    HW231575   2.609  11.618  10.720
43246SOL     OW31576   8.989   0.299  12.459
43246SOL    HW131577   8.908   0.260  12.493
43246SOL    HW231578   8.989   0.277  12.366
43247SOL     OW31579   7.491  14.377   1.165
43247SOL    HW131580   7.400  14.408   1.158
43247SOL    HW231581   7.508  14.337   1.080
43248SOL     OW31582   0.107   5.352   4.567
43248SOL    HW131583   0.085   5.425   4.508
43248SOL    HW231584   0.203   5.353   4.570
43249SOL     OW31585   1.657  10.145   3.787
43249SOL    HW131586   1.589  10.202   3.750
43249SOL    HW231587   1.739  10.194   3.774
43250SOL     OW31588   6.900   3.611  13.169
43250SOL    HW131589   6.848   3.680  13.211
43250SOL    HW231590   6.908   3.639  13.078
43251SOL     OW31591  11.740   6.663  14.231
43251SOL    HW131592  11.747   6.677  14.326
43251SOL    HW231593  11.784   6.738  14.192
43252SOL     OW31594   7.136   3.834   4.237
43252SOL    HW131595   7.072   3.847   4.166
43252SOL    HW231596   7.207   3.895   4.216
43253SOL     OW31597   8.442   1.897   8.154
43253SOL    HW131598   8.446   1.802   8.169
43253SOL    HW231599   8.426   1.935   8.240
43254SOL     OW31600   3.243   0.562  14.279
43254SOL    HW131601   3.249   0.553  14.374
43254SOL    HW231602   3.166   0.511  14.254
43255SOL     OW31603   8.372   6.623   2.298
43255SOL    HW131604   8.387   6.715   2.277
43255SOL    HW231605   8.281   6.618   2.324
43256SOL     OW31606   3.614   6.808   6.471
43256SOL    HW131607   3.538   6.859   6.497
43256SOL    HW231608   3.581   6.747   6.405
43257SOL     OW31609  13.112   2.188   0.033
43257SOL    HW131610  13.134   2.121  14.849
43257SOL    HW231611  13.158   2.267   0.003
43258SOL     OW31612   4.351  12.003  14.680
43258SOL    HW131613   4.425  12.062  14.698
43258SOL    HW231614   4.279  12.039  14.731
43259SOL     OW31615   3.548   0.160  11.046
43259SOL    HW131616   3.462   0.200  11.060
43259SOL    HW231617   3.543   0.077  11.094
43260SOL     OW31618   1.868  13.980  10.413
43260SOL    HW131619   1.951  14.001  10.457
43260SOL    HW231620   1.834  14.064  10.385
43261SOL     OW31621   2.657   4.389   3.142
43261SOL    HW131622   2.574   4.371   3.185
43261SOL    HW231623   2.635   4.398   3.049
43262SOL     OW31624  10.636   3.397  13.497
43262SOL    HW131625  10.711   3.367  13.445
43262SOL    HW231626  10.566   3.336  13.475
43263SOL     OW31627  14.330   1.208  11.689
43263SOL    HW131628  14.344   1.302  11.694
43263SOL    HW231629  14.248   1.199  11.640
43264SOL     OW31630   8.344   0.352  14.731
43264SOL    HW131631   8.367   0.428  14.783
43264SOL    HW231632   8.280   0.305  14.784
43265SOL     OW31633   5.460   0.494   7.833
43265SOL    HW131634   5.399   0.448   7.892
43265SOL    HW231635   5.444   0.587   7.850
43266SOL     OW31636  12.285  11.646  11.412
43266SOL    HW131637  12.232  11.571  11.385
43266SOL    HW231638  12.371  11.609  11.429
43267SOL     OW31639  12.521   1.858   5.664
43267SOL    HW131640  12.434   1.829   5.692
43267SOL    HW231641  12.575   1.849   5.742
43268SOL     OW31642  10.746   9.926  12.945
43268SOL    HW131643  10.699   9.985  13.002
43268SOL    HW231644  10.796   9.983  12.886
43269SOL     OW31645   4.502   7.820  13.795
43269SOL    HW131646   4.530   7.795  13.883
43269SOL    HW231647   4.566   7.779  13.737
43270SOL     OW31648   5.862   5.111   7.377
43270SOL    HW131649   5.932   5.072   7.429
43270SOL    HW231650   5.879   5.083   7.287
43271SOL     OW31651   5.588   4.358   9.388
43271SOL    HW131652   5.660   4.336   9.329
43271SOL    HW231653   5.603   4.449   9.411
43272SOL     OW31654  14.482   4.017  13.064
43272SOL    HW131655  14.486   3.922  13.052
43272SOL    HW231656  14.555   4.036  13.124
43273SOL     OW31657   0.381   1.430  13.288
43273SOL    HW131658   0.317   1.493  13.321
43273SOL    HW231659   0.392   1.368  13.359
43274SOL     OW31660   0.510   9.528   4.731
43274SOL    HW131661   0.416   9.537   4.712
43274SOL    HW231662   0.536   9.449   4.684
43275SOL     OW31663   2.069  11.341  12.548
43275SOL    HW131664   2.080  11.343  12.453
43275SOL    HW231665   1.975  11.346  12.562
43276SOL     OW31666   8.641   7.359  13.278
43276SOL    HW131667   8.692   7.435  13.306
43276SOL    HW231668   8.552   7.391  13.271
43277SOL     OW31669  10.337   9.087   3.153
43277SOL    HW131670  10.269   9.139   3.196
43277SOL    HW231671  10.325   8.999   3.188
43278SOL     OW31672  13.922   7.049  13.705
43278SOL    HW131673  14.013   7.033  13.730
43278SOL    HW231674  13.909   6.994  13.627
43279SOL     OW31675  11.633   4.470   9.480
43279SOL    HW131676  11.600   4.385   9.508
43279SOL    HW231677  11.719   4.451   9.443
43280SOL     OW31678  12.460   6.672   7.083
43280SOL    HW131679  12.437   6.580   7.094
43280SOL    HW231680  12.483   6.702   7.171
43281SOL     OW31681  11.589   1.723   2.038
43281SOL    HW131682  11.521   1.773   2.083
43281SOL    HW231683  11.640   1.683   2.109
43282SOL     OW31684  13.266  11.894   6.372
43282SOL    HW131685  13.275  11.923   6.281
43282SOL    HW231686  13.172  11.880   6.383
43283SOL     OW31687  11.228   2.125  13.303
43283SOL    HW131688  11.311   2.153  13.342
43283SOL    HW231689  11.169   2.118  13.378
43284SOL     OW31690   1.565   1.489   9.945
43284SOL    HW131691   1.617   1.523   9.872
43284SOL    HW231692   1.480   1.530   9.935
43285SOL     OW31693   0.746   8.516   1.484
43285SOL    HW131694   0.836   8.543   1.466
43285SOL    HW231695   0.697   8.597   1.493
43286SOL     OW31696   2.793  12.992   3.471
43286SOL    HW131697   2.743  13.015   3.549
43286SOL    HW231698   2.845  13.070   3.452
43287SOL     OW31699  11.967  11.773  12.305
43287SOL    HW131700  11.876  11.802  12.297
43287SOL    HW231701  12.018  11.853  12.309
43288SOL     OW31702  12.282   8.489  12.297
43288SOL    HW131703  12.279   8.574  12.341
43288SOL    HW231704  12.255   8.507  12.207
43289SOL     OW31705   6.299   2.447   9.042
43289SOL    HW131706   6.347   2.486   8.969
43289SOL    HW231707   6.320   2.354   9.037
43290SOL     OW31708   3.355   8.322  12.231
43290SOL    HW131709   3.401   8.368  12.301
43290SOL    HW231710   3.330   8.239  12.270
43291SOL     OW31711   6.714   3.368  14.751
43291SOL    HW131712   6.665   3.379  14.833
43291SOL    HW231713   6.739   3.275  14.751
43292SOL     OW31714   2.160  10.158  10.346
43292SOL    HW131715   2.197  10.076  10.379
43292SOL    HW231716   2.206  10.226  10.396
43293SOL     OW31717   3.985   2.793   5.623
43293SOL    HW131718   3.987   2.812   5.529
43293SOL    HW231719   4.066   2.830   5.657
43294SOL     OW31720   6.047   1.479   6.839
43294SOL    HW131721   5.999   1.399   6.861
43294SOL    HW231722   6.106   1.493   6.913
43295SOL     OW31723   9.668   6.732   3.744
43295SOL    HW131724   9.602   6.729   3.674
43295SOL    HW231725   9.750   6.751   3.698
43296SOL     OW31726   6.445   2.158   1.966
43296SOL    HW131727   6.423   2.184   1.877
43296SOL    HW231728   6.369   2.107   1.996
43297SOL     OW31729  14.559   1.606   0.780
43297SOL    HW131730  14.622   1.534   0.768
43297SOL    HW231731  14.476   1.563   0.798
43298SOL     OW31732   7.572  14.813   1.558
43298SOL    HW131733   7.635  14.741   1.563
43298SOL    HW231734   7.590  14.866   1.636
43299SOL     OW31735   0.116  12.352   9.690
43299SOL    HW131736   0.090  12.378   9.602
43299SOL    HW231737   0.204  12.389   9.701
43300SOL     OW31738  11.876   9.009  11.230
43300SOL    HW131739  11.882   8.934  11.289
43300SOL    HW231740  11.939   9.072  11.265
43301SOL     OW31741  12.524  12.228  10.111
43301SOL    HW131742  12.584  12.300  10.092
43301SOL    HW231743  12.516  12.180  10.029
43302SOL     OW31744  12.852  10.938  13.557
43302SOL    HW131745  12.854  10.915  13.650
43302SOL    HW231746  12.769  10.983  13.545
43303SOL     OW31747   1.568  13.547  11.231
43303SOL    HW131748   1.508  13.551  11.305
43303SOL    HW231749   1.516  13.572  11.155
43304SOL     OW31750  13.187  13.309   2.930
43304SOL    HW131751  13.212  13.377   2.993
43304SOL    HW231752  13.268  13.288   2.883
43305SOL     OW31753   7.767  13.815  12.693
43305SOL    HW131754   7.801  13.843  12.778
43305SOL    HW231755   7.768  13.894  12.639
43306SOL     OW31756   9.966  11.166  11.966
43306SOL    HW131757   9.988  11.196  11.878
43306SOL    HW231758  10.022  11.090  11.980
43307SOL     OW31759  11.735   3.309   8.539
43307SOL    HW131760  11.691   3.276   8.460
43307SOL    HW231761  11.669   3.303   8.608
43308SOL     OW31762   5.940   6.906   2.578
43308SOL    HW131763   5.977   6.943   2.497
43308SOL    HW231764   5.851   6.881   2.554
43309SOL     OW31765   6.793   2.114   8.777
43309SOL    HW131766   6.841   2.105   8.695
43309SOL    HW231767   6.800   2.027   8.818
43310SOL     OW31768   6.049   4.314  14.146
43310SOL    HW131769   6.080   4.403  14.129
43310SOL    HW231770   5.988   4.323  14.219
43311SOL     OW31771   5.906  13.526   9.232
43311SOL    HW131772   5.903  13.542   9.137
43311SOL    HW231773   5.824  13.481   9.251
43312SOL     OW31774  13.617   9.178   2.508
43312SOL    HW131775  13.707   9.194   2.536
43312SOL    HW231776  13.614   9.085   2.488
43313SOL     OW31777  12.060   7.482  11.166
43313SOL    HW131778  12.008   7.424  11.110
43313SOL    HW231779  12.096   7.425  11.233
43314SOL     OW31780   6.424  11.264   6.419
43314SOL    HW131781   6.412  11.226   6.332
43314SOL    HW231782   6.436  11.358   6.403
43315SOL     OW31783   1.289   5.004   1.642
43315SOL    HW131784   1.331   5.006   1.556
43315SOL    HW231785   1.335   5.071   1.692
43316SOL     OW31786   6.333   6.322  12.501
43316SOL    HW131787   6.377   6.274  12.431
43316SOL    HW231788   6.401   6.338  12.566
43317SOL     OW31789  13.636  10.253   8.744
43317SOL    HW131790  13.558  10.228   8.792
43317SOL    HW231791  13.636  10.196   8.667
43318SOL     OW31792   2.743   5.816   6.226
43318SOL    HW131793   2.712   5.837   6.314
43318SOL    HW231794   2.674   5.850   6.168
43319SOL     OW31795   8.257   4.316   8.399
43319SOL    HW131796   8.186   4.375   8.373
43319SOL    HW231797   8.337   4.368   8.388
43320SOL     OW31798   5.307   1.992   2.410
43320SOL    HW131799   5.369   1.930   2.370
43320SOL    HW231800   5.275   2.044   2.336
43321SOL     OW31801   9.498   6.233  13.259
43321SOL    HW131802   9.430   6.293  13.289
43321SOL    HW231803   9.543   6.205  13.339
43322SOL     OW31804  14.163   6.808   8.400
43322SOL    HW131805  14.138   6.872   8.333
43322SOL    HW231806  14.138   6.723   8.362
43323SOL     OW31807   1.057  10.555  12.113
43323SOL    HW131808   0.973  10.599  12.125
43323SOL    HW231809   1.114  10.594  12.179
43324SOL     OW31810  13.874   8.725   0.944
43324SOL    HW131811  13.850   8.736   1.036
43324SOL    HW231812  13.791   8.708   0.899
43325SOL     OW31813   8.696   4.857   1.613
43325SOL    HW131814   8.646   4.937   1.628
43325SOL    HW231815   8.675   4.801   1.688
43326SOL     OW31816   6.978   0.485  13.461
43326SOL    HW131817   7.017   0.572  13.467
43326SOL    HW231818   6.886   0.500  13.440
43327SOL     OW31819   2.643  11.510   4.387
43327SOL    HW131820   2.672  11.558   4.464
43327SOL    HW231821   2.561  11.553   4.361
43328SOL     OW31822   1.554  11.435   7.733
43328SOL    HW131823   1.573  11.411   7.824
43328SOL    HW231824   1.639  11.438   7.691
43329SOL     OW31825   6.074   8.870   0.660
43329SOL    HW131826   6.103   8.781   0.638
43329SOL    HW231827   5.989   8.858   0.702
43330SOL     OW31828   1.519   6.672   2.946
43330SOL    HW131829   1.475   6.655   3.030
43330SOL    HW231830   1.469   6.621   2.883
43331SOL     OW31831  14.258   5.374  11.064
43331SOL    HW131832  14.244   5.417  10.980
43331SOL    HW231833  14.273   5.282  11.042
43332SOL     OW31834   9.244   9.172   7.428
43332SOL    HW131835   9.310   9.123   7.478
43332SOL    HW231836   9.171   9.112   7.419
43333SOL     OW31837   0.306   2.554   9.702
43333SOL    HW131838   0.363   2.522   9.772
43333SOL    HW231839   0.240   2.606   9.747
43334SOL     OW31840   8.471  12.309  10.770
43334SOL    HW131841   8.406  12.239  10.768
43334SOL    HW231842   8.551  12.268  10.735
43335SOL     OW31843   4.041   4.337  12.947
43335SOL    HW131844   4.078   4.258  12.907
43335SOL    HW231845   4.050   4.323  13.041
43336SOL     OW31846  13.484  11.139   9.796
43336SOL    HW131847  13.567  11.146   9.844
43336SOL    HW231848  13.495  11.198   9.721
43337SOL     OW31849   1.168  10.744   8.512
43337SOL    HW131850   1.108  10.676   8.543
43337SOL    HW231851   1.115  10.823   8.509
43338SOL     OW31852  12.762   9.246   9.028
43338SOL    HW131853  12.797   9.328   8.994
43338SOL    HW231854  12.764   9.186   8.954
43339SOL     OW31855   9.047  10.135   9.282
43339SOL    HW131856   8.994  10.060   9.309
43339SOL    HW231857   9.117  10.139   9.346
43340SOL     OW31858   7.559  11.374  12.849
43340SOL    HW131859   7.481  11.428  12.842
43340SOL    HW231860   7.537  11.292  12.805
43341SOL     OW31861   8.648   2.529   4.890
43341SOL    HW131862   8.636   2.445   4.846
43341SOL    HW231863   8.742   2.548   4.879
43342SOL     OW31864   7.550   8.270  13.153
43342SOL    HW131865   7.591   8.189  13.184
43342SOL    HW231866   7.541   8.324  13.231
43343SOL     OW31867  11.582  13.868   5.113
43343SOL    HW131868  11.572  13.795   5.174
43343SOL    HW231869  11.611  13.827   5.032
43344SOL     OW31870  12.979   7.748  10.024
43344SOL    HW131871  13.023   7.827  10.057
43344SOL    HW231872  12.919   7.781   9.957
43345SOL     OW31873   8.470   5.213  13.757
43345SOL    HW131874   8.396   5.166  13.797
43345SOL    HW231875   8.433   5.250  13.676
43346SOL     OW31876  14.003   4.948   7.464
43346SOL    HW131877  14.004   5.038   7.497
43346SOL    HW231878  14.009   4.957   7.369
43347SOL     OW31879   6.095   9.330   5.388
43347SOL    HW131880   6.186   9.342   5.413
43347SOL    HW231881   6.045   9.355   5.465
43348SOL     OW31882  11.757  10.976   2.628
43348SOL    HW131883  11.819  10.990   2.557
43348SOL    HW231884  11.787  11.035   2.697
43349SOL     OW31885   5.197  11.956   3.780
43349SOL    HW131886   5.171  12.007   3.703
43349SOL    HW231887   5.258  11.891   3.747
43350SOL     OW31888   3.870  11.451   1.218
43350SOL    HW131889   3.894  11.465   1.126
43350SOL    HW231890   3.896  11.361   1.237
43351SOL     OW31891  11.278   2.059  11.292
43351SOL    HW131892  11.182   2.062  11.287
43351SOL    HW231893  11.299   1.966  11.295
43352SOL     OW31894   2.189   1.333   5.453
43352SOL    HW131895   2.211   1.383   5.374
43352SOL    HW231896   2.180   1.398   5.522
43353SOL     OW31897   1.290   8.299   7.556
43353SOL    HW131898   1.346   8.222   7.544
43353SOL    HW231899   1.303   8.325   7.647
43354SOL     OW31900   9.843   8.579  14.074
43354SOL    HW131901   9.834   8.584  13.979
43354SOL    HW231902   9.759   8.610  14.107
43355SOL     OW31903   8.544   9.161   4.348
43355SOL    HW131904   8.541   9.253   4.373
43355SOL    HW231905   8.581   9.116   4.424
43356SOL     OW31906   9.165   3.836  10.963
43356SOL    HW131907   9.157   3.849  10.868
43356SOL    HW231908   9.075   3.828  10.994
43357SOL     OW31909   6.899   7.536  13.949
43357SOL    HW131910   6.897   7.597  14.024
43357SOL    HW231911   6.992   7.519  13.936
43358SOL     OW31912   5.834   7.584  14.699
43358SOL    HW131913   5.743   7.567  14.725
43358SOL    HW231914   5.828   7.611  14.608
43359SOL     OW31915   1.387   4.065   3.970
43359SOL    HW131916   1.439   4.016   3.906
43359SOL    HW231917   1.329   4.000   4.009
43360SOL     OW31918   1.179   6.208   1.601
43360SOL    HW131919   1.177   6.301   1.580
43360SOL    HW231920   1.239   6.170   1.536
43361SOL     OW31921   5.597   1.854   0.787
43361SOL    HW131922   5.506   1.862   0.760
43361SOL    HW231923   5.600   1.892   0.875
43362SOL     OW31924   6.290  14.165   9.308
43362SOL    HW131925   6.244  14.094   9.351
43362SOL    HW231926   6.309  14.132   9.220
43363SOL     OW31927  13.137   1.075   9.889
43363SOL    HW131928  13.202   1.009   9.865
43363SOL    HW231929  13.095   1.099   9.806
43364SOL     OW31930   1.531   3.080   4.268
43364SOL    HW131931   1.558   2.994   4.300
43364SOL    HW231932   1.611   3.117   4.230
43365SOL     OW31933  13.749   7.127  10.951
43365SOL    HW131934  13.809   7.192  10.916
43365SOL    HW231935  13.663   7.170  10.951
43366SOL     OW31936   4.021   7.224   6.355
43366SOL    HW131937   4.068   7.306   6.371
43366SOL    HW231938   4.044   7.169   6.430
43367SOL     OW31939   6.329   5.831   2.124
43367SOL    HW131940   6.294   5.777   2.195
43367SOL    HW231941   6.364   5.909   2.168
43368SOL     OW31942   9.190   2.022   1.530
43368SOL    HW131943   9.124   2.046   1.465
43368SOL    HW231944   9.227   2.105   1.559
43369SOL     OW31945   9.729  14.031   4.261
43369SOL    HW131946   9.755  13.969   4.330
43369SOL    HW231947   9.640  14.058   4.286
43370SOL     OW31948   7.701   4.694   5.463
43370SOL    HW131949   7.646   4.732   5.394
43370SOL    HW231950   7.720   4.605   5.433
43371SOL     OW31951   5.637   6.477   6.888
43371SOL    HW131952   5.705   6.430   6.839
43371SOL    HW231953   5.558   6.424   6.877
43372SOL     OW31954  13.318  13.065  12.194
43372SOL    HW131955  13.405  13.054  12.155
43372SOL    HW231956  13.335  13.084  12.286
43373SOL     OW31957   4.545   6.982  13.959
43373SOL    HW131958   4.511   6.937  14.036
43373SOL    HW231959   4.486   6.955  13.888
43374SOL     OW31960   4.995  14.624   0.457
43374SOL    HW131961   4.978  14.672   0.538
43374SOL    HW231962   5.063  14.561   0.481
43375SOL     OW31963   1.802   3.977   1.042
43375SOL    HW131964   1.819   4.058   1.091
43375SOL    HW231965   1.845   3.992   0.958
43376SOL     OW31966  14.033   0.920   7.706
43376SOL    HW131967  14.065   0.835   7.677
43376SOL    HW231968  14.089   0.943   7.780
43377SOL     OW31969   4.524   7.886  11.959
43377SOL    HW131970   4.537   7.817  11.894
43377SOL    HW231971   4.578   7.959  11.928
43378SOL     OW31972  12.013   3.175   0.124
43378SOL    HW131973  11.960   3.230   0.182
43378SOL    HW231974  12.008   3.218   0.039
43379SOL     OW31975   5.141  12.911  13.434
43379SOL    HW131976   5.092  12.991  13.419
43379SOL    HW231977   5.206  12.934  13.500
43380SOL     OW31978  11.624   7.911  12.080
43380SOL    HW131979  11.671   7.843  12.128
43380SOL    HW231980  11.656   7.993  12.116
43381SOL     OW31981   2.436  12.564   2.055
43381SOL    HW131982   2.459  12.628   2.123
43381SOL    HW231983   2.400  12.490   2.103
43382SOL     OW31984   5.737   0.505   9.684
43382SOL    HW131985   5.715   0.537   9.771
43382SOL    HW231986   5.684   0.426   9.673
43383SOL     OW31987   8.556   9.162   2.496
43383SOL    HW131988   8.491   9.207   2.444
43383SOL    HW231989   8.633   9.156   2.439
43384SOL     OW31990   8.342   8.322  13.438
43384SOL    HW131991   8.302   8.238  13.417
43384SOL    HW231992   8.421   8.325  13.385
43385SOL     OW31993  13.297   2.640  11.062
43385SOL    HW131994  13.291   2.545  11.055
43385SOL    HW231995  13.234   2.663  11.131
43386SOL     OW31996  11.291   7.450   6.928
43386SOL    HW131997  11.329   7.419   6.847
43386SOL    HW231998  11.277   7.544   6.914
43387SOL     OW31999   6.317   4.241  11.827
43387SOL    HW132000   6.309   4.250  11.732
43387SOL    HW232001   6.269   4.161  11.847
43388SOL     OW32002  13.507   3.917   4.211
43388SOL    HW132003  13.517   3.992   4.153
43388SOL    HW232004  13.519   3.953   4.299
43389SOL     OW32005   2.013   3.602   6.267
43389SOL    HW132006   1.923   3.614   6.236
43389SOL    HW232007   2.066   3.649   6.203
43390SOL     OW32008   1.730   5.171   6.531
43390SOL    HW132009   1.688   5.096   6.573
43390SOL    HW232010   1.761   5.225   6.604
43391SOL     OW32011   4.624  13.156   8.589
43391SOL    HW132012   4.700  13.139   8.533
43391SOL    HW232013   4.628  13.250   8.606
43392SOL     OW32014  14.296  14.362   6.868
43392SOL    HW132015  14.229  14.430   6.863
43392SOL    HW232016  14.371  14.398   6.822
43393SOL     OW32017   4.372   0.244   4.646
43393SOL    HW132018   4.332   0.329   4.664
43393SOL    HW232019   4.298   0.187   4.624
43394SOL     OW32020   3.027   3.757   3.152
43394SOL    HW132021   3.046   3.826   3.216
43394SOL    HW232022   2.939   3.777   3.120
43395SOL     OW32023   8.412  11.260   2.197
43395SOL    HW132024   8.434  11.268   2.290
43395SOL    HW232025   8.464  11.327   2.153
43396SOL     OW32026   8.628  12.402   6.752
43396SOL    HW132027   8.710  12.418   6.705
43396SOL    HW232028   8.622  12.307   6.757
43397SOL     OW32029   8.489   6.956  10.529
43397SOL    HW132030   8.465   6.979  10.439
43397SOL    HW232031   8.584   6.965  10.531
43398SOL     OW32032  10.544   5.652   5.882
43398SOL    HW132033  10.588   5.620   5.960
43398SOL    HW232034  10.555   5.581   5.818
43399SOL     OW32035   1.399  13.050  11.759
43399SOL    HW132036   1.306  13.064  11.780
43399SOL    HW232037   1.432  12.997  11.830
43400SOL     OW32038   4.981  14.023  11.477
43400SOL    HW132039   5.026  13.987  11.554
43400SOL    HW232040   5.050  14.031  11.411
43401SOL     OW32041   3.886   2.251   3.174
43401SOL    HW132042   3.905   2.270   3.082
43401SOL    HW232043   3.829   2.174   3.171
43402SOL     OW32044  13.325   2.691  11.419
43402SOL    HW132045  13.381   2.671  11.494
43402SOL    HW232046  13.252   2.628  11.425
43403SOL     OW32047   3.501   8.075   2.351
43403SOL    HW132048   3.543   8.006   2.403
43403SOL    HW232049   3.557   8.151   2.363
43404SOL     OW32050  12.952   7.011  13.953
43404SOL    HW132051  13.017   6.943  13.933
43404SOL    HW232052  12.980   7.087  13.902
43405SOL     OW32053   8.496  10.432  12.884
43405SOL    HW132054   8.496  10.527  12.890
43405SOL    HW232055   8.410  10.409  12.849
43406SOL     OW32056   5.692   1.400   3.119
43406SOL    HW132057   5.648   1.410   3.035
43406SOL    HW232058   5.637   1.447   3.181
43407SOL     OW32059   6.239  11.722   8.091
43407SOL    HW132060   6.209  11.802   8.046
43407SOL    HW232061   6.324  11.703   8.052
43408SOL     OW32062   4.280   2.438   9.524
43408SOL    HW132063   4.369   2.465   9.503
43408SOL    HW232064   4.262   2.367   9.463
43409SOL     OW32065  12.535  10.059   0.617
43409SOL    HW132066  12.610  10.109   0.585
43409SOL    HW232067  12.535  10.074   0.712
43410SOL     OW32068   2.131   1.695  10.721
43410SOL    HW132069   2.145   1.716  10.629
43410SOL    HW232070   2.151   1.776  10.768
43411SOL     OW32071   9.870   3.023   0.013
43411SOL    HW132072   9.943   2.962   0.021
43411SOL    HW232073   9.819   2.989  14.819
43412SOL     OW32074   2.877  10.702  12.733
43412SOL    HW132075   2.892  10.792  12.705
43412SOL    HW232076   2.851  10.710  12.825
43413SOL     OW32077  10.765   5.720  12.382
43413SOL    HW132078  10.706   5.789  12.416
43413SOL    HW232079  10.827   5.767  12.327
43414SOL     OW32080  12.480  10.665  10.219
43414SOL    HW132081  12.565  10.656  10.262
43414SOL    HW232082  12.479  10.596  10.153
43415SOL     OW32083   4.135   6.155  12.839
43415SOL    HW132084   4.174   6.111  12.915
43415SOL    HW232085   4.160   6.101  12.765
43416SOL     OW32086   1.726   3.709   8.223
43416SOL    HW132087   1.683   3.628   8.251
43416SOL    HW232088   1.674   3.740   8.149
43417SOL     OW32089   2.518   2.009   2.466
43417SOL    HW132090   2.427   2.009   2.437
43417SOL    HW232091   2.540   2.101   2.476
43418SOL     OW32092   3.837   3.503   5.715
43418SOL    HW132093   3.779   3.493   5.790
43418SOL    HW232094   3.789   3.558   5.654
43419SOL     OW32095   3.748  14.068   0.034
43419SOL    HW132096   3.841  14.052   0.041
43419SOL    HW232097   3.742  14.155  14.873
43420SOL     OW32098  11.407   4.645   9.519
43420SOL    HW132099  11.498   4.616   9.510
43420SOL    HW232100  11.410   4.710   9.590
43421SOL     OW32101   9.379  10.354  11.188
43421SOL    HW132102   9.457  10.355  11.242
43421SOL    HW232103   9.411  10.334  11.100
43422SOL     OW32104  12.812   7.870  13.648
43422SOL    HW132105  12.793   7.799  13.588
43422SOL    HW232106  12.888   7.914  13.611
43423SOL     OW32107   5.846  12.549   1.687
43423SOL    HW132108   5.838  12.617   1.754
43423SOL    HW232109   5.915  12.491   1.720
43424SOL     OW32110   9.759   9.718   5.601
43424SOL    HW132111   9.750   9.669   5.519
43424SOL    HW232112   9.851   9.708   5.625
43425SOL     OW32113  13.213   6.943   3.019
43425SOL    HW132114  13.194   6.850   3.003
43425SOL    HW232115  13.261   6.972   2.941
43426SOL     OW32116   7.287   8.624  13.724
43426SOL    HW132117   7.193   8.616  13.711
43426SOL    HW232118   7.320   8.662  13.642
43427SOL     OW32119   7.770   2.350  13.720
43427SOL    HW132120   7.732   2.426  13.676
43427SOL    HW232121   7.820   2.305  13.651
43428SOL     OW32122  12.427  12.918  14.522
43428SOL    HW132123  12.380  12.875  14.594
43428SOL    HW232124  12.495  12.855  14.497
43429SOL     OW32125  12.356   9.415  14.600
43429SOL    HW132126  12.387   9.351  14.664
43429SOL    HW232127  12.262   9.399  14.593
43430SOL     OW32128   4.090   6.476   6.718
43430SOL    HW132129   4.025   6.522   6.771
43430SOL    HW232130   4.164   6.462   6.778
43431SOL     OW32131   5.286   1.659   9.495
43431SOL    HW132132   5.290   1.752   9.471
43431SOL    HW232133   5.341   1.652   9.573
43432SOL     OW32134   8.263   2.512   8.072
43432SOL    HW132135   8.315   2.587   8.102
43432SOL    HW232136   8.289   2.441   8.131
43433SOL     OW32137   4.491  12.406   4.185
43433SOL    HW132138   4.450  12.472   4.128
43433SOL    HW232139   4.508  12.332   4.126
43434SOL     OW32140   1.350   2.730   8.096
43434SOL    HW132141   1.370   2.640   8.069
43434SOL    HW232142   1.266   2.749   8.055
43435SOL     OW32143  14.359   5.602   9.994
43435SOL    HW132144  14.426   5.605   9.926
43435SOL    HW232145  14.344   5.694  10.017
43436SOL     OW32146   0.332   1.131   3.551
43436SOL    HW132147   0.293   1.063   3.606
43436SOL    HW232148   0.424   1.133   3.578
43437SOL     OW32149  12.180   7.286  11.334
43437SOL    HW132150  12.165   7.267  11.426
43437SOL    HW232151  12.275   7.294  11.327
43438SOL     OW32152  14.012  14.455   8.250
43438SOL    HW132153  14.025  14.545   8.280
43438SOL    HW232154  14.009  14.462   8.155
43439SOL     OW32155  13.437   4.082   2.521
43439SOL    HW132156  13.420   4.104   2.613
43439SOL    HW232157  13.350   4.065   2.484
43440SOL     OW32158   5.608   0.013  13.597
43440SOL    HW132159   5.522  14.852  13.609
43440SOL    HW232160   5.600   0.098  13.642
43441SOL     OW32161   0.566   8.852  13.940
43441SOL    HW132162   0.553   8.778  13.881
43441SOL    HW232163   0.480   8.893  13.946
43442SOL     OW32164  10.866   7.378   0.371
43442SOL    HW132165  10.941   7.323   0.395
43442SOL    HW232166  10.888   7.412   0.284
43443SOL     OW32167  10.836  13.168  11.712
43443SOL    HW132168  10.924  13.186  11.744
43443SOL    HW232169  10.845  13.168  11.616
43444SOL     OW32170  13.160   1.708  11.811
43444SOL    HW132171  13.075   1.698  11.855
43444SOL    HW232172  13.200   1.785  11.852
43445SOL     OW32173  12.191   4.548   1.268
43445SOL    HW132174  12.234   4.576   1.349
43445SOL    HW232175  12.225   4.460   1.252
43446SOL     OW32176   5.229   0.662  14.050
43446SOL    HW132177   5.318   0.650  14.083
43446SOL    HW232178   5.173   0.639  14.124
43447SOL     OW32179  11.398   9.052   2.683
43447SOL    HW132180  11.455   9.045   2.759
43447SOL    HW232181  11.430   8.985   2.623
43448SOL     OW32182   8.900  10.687  10.890
43448SOL    HW132183   8.991  10.705  10.913
43448SOL    HW232184   8.897  10.698  10.795
43449SOL     OW32185  11.419   6.950   8.732
43449SOL    HW132186  11.419   7.041   8.704
43449SOL    HW232187  11.413   6.899   8.651
43450SOL     OW32188   3.499   3.594   4.486
43450SOL    HW132189   3.511   3.591   4.581
43450SOL    HW232190   3.405   3.601   4.474
43451SOL     OW32191  10.686   2.888   3.976
43451SOL    HW132192  10.729   2.859   3.895
43451SOL    HW232193  10.752   2.875   4.044
43452SOL     OW32194   2.984  13.301  14.291
43452SOL    HW132195   3.036  13.275  14.367
43452SOL    HW232196   2.901  13.254  14.300
43453SOL     OW32197   4.233   8.305   3.247
43453SOL    HW132198   4.303   8.370   3.254
43453SOL    HW232199   4.247   8.263   3.162
43454SOL     OW32200   6.519  13.482   8.094
43454SOL    HW132201   6.594  13.423   8.089
43454SOL    HW232202   6.447  13.427   8.123
43455SOL     OW32203  12.678   9.195  12.448
43455SOL    HW132204  12.724   9.113  12.467
43455SOL    HW232205  12.651   9.186  12.356
43456SOL     OW32206  11.617   2.647   1.013
43456SOL    HW132207  11.702   2.629   1.051
43456SOL    HW232208  11.590   2.565   0.973
43457SOL     OW32209   3.451  12.000  10.976
43457SOL    HW132210   3.509  11.965  10.908
43457SOL    HW232211   3.465  11.943  11.051
43458SOL     OW32212   7.584   6.211  12.059
43458SOL    HW132213   7.489   6.222  12.067
43458SOL    HW232214   7.603   6.238  11.969
43459SOL     OW32215   2.251   7.732   7.417
43459SOL    HW132216   2.298   7.815   7.410
43459SOL    HW232217   2.306   7.679   7.474
43460SOL     OW32218   4.851   4.881   8.830
43460SOL    HW132219   4.872   4.948   8.896
43460SOL    HW232220   4.873   4.923   8.747
43461SOL     OW32221   1.179   1.076  11.899
43461SOL    HW132222   1.254   1.118  11.940
43461SOL    HW232223   1.195   0.982  11.910
43462SOL     OW32224   9.720   4.656   6.150
43462SOL    HW132225   9.739   4.728   6.210
43462SOL    HW232226   9.625   4.647   6.152
43463SOL     OW32227   7.876  14.200   4.782
43463SOL    HW132228   7.903  14.290   4.802
43463SOL    HW232229   7.804  14.210   4.719
43464SOL     OW32230  12.281  14.417  13.987
43464SOL    HW132231  12.284  14.330  14.027
43464SOL    HW232232  12.326  14.407  13.903
43465SOL     OW32233   2.253  12.415   2.461
43465SOL    HW132234   2.296  12.330   2.450
43465SOL    HW232235   2.324  12.477   2.475
43466SOL     OW32236   7.721  14.503  10.059
43466SOL    HW132237   7.777  14.580  10.060
43466SOL    HW232238   7.781  14.429  10.068
43467SOL     OW32239  10.972  12.248  11.430
43467SOL    HW132240  10.945  12.212  11.515
43467SOL    HW232241  10.912  12.322  11.416
43468SOL     OW32242   1.803   1.700   4.461
43468SOL    HW132243   1.840   1.620   4.424
43468SOL    HW232244   1.749   1.736   4.391
43469SOL     OW32245  10.717  13.848  12.660
43469SOL    HW132246  10.757  13.842  12.746
43469SOL    HW232247  10.766  13.786  12.606
43470SOL     OW32248   7.961   3.415  10.066
43470SOL    HW132249   8.049   3.399  10.032
43470SOL    HW232250   7.958   3.369  10.150
43471SOL     OW32251   7.406   0.717  11.988
43471SOL    HW132252   7.449   0.802  11.981
43471SOL    HW232253   7.446   0.676  12.065
43472SOL     OW32254   9.537  10.190   9.243
43472SOL    HW132255   9.490  10.166   9.163
43472SOL    HW232256   9.627  10.161   9.226
43473SOL     OW32257   6.956   1.333   8.937
43473SOL    HW132258   7.027   1.371   8.989
43473SOL    HW232259   6.994   1.254   8.898
43474SOL     OW32260  11.671  14.462   9.123
43474SOL    HW132261  11.764  14.439   9.117
43474SOL    HW232262  11.669  14.557   9.110
43475SOL     OW32263  12.499   5.774   2.159
43475SOL    HW132264  12.515   5.849   2.216
43475SOL    HW232265  12.447   5.809   2.087
43476SOL     OW32266   8.210   8.483   8.522
43476SOL    HW132267   8.223   8.474   8.616
43476SOL    HW232268   8.189   8.395   8.491
43477SOL     OW32269   8.610   8.066  12.757
43477SOL    HW132270   8.701   8.041  12.771
43477SOL    HW232271   8.560   7.986  12.773
43478SOL     OW32272   8.747   7.971  11.384
43478SOL    HW132273   8.744   8.064  11.361
43478SOL    HW232274   8.687   7.963  11.458
43479SOL     OW32275   4.844   8.371   6.708
43479SOL    HW132276   4.881   8.373   6.620
43479SOL    HW232277   4.915   8.400   6.765
43480SOL     OW32278  10.247   2.192   4.750
43480SOL    HW132279  10.286   2.120   4.799
43480SOL    HW232280  10.195   2.150   4.682
43481SOL     OW32281   6.004   5.372   3.266
43481SOL    HW132282   5.950   5.410   3.197
43481SOL    HW232283   5.990   5.277   3.257
43482SOL     OW32284   2.998  14.272  13.779
43482SOL    HW132285   2.949  14.235  13.852
43482SOL    HW232286   2.945  14.347  13.750
43483SOL     OW32287   7.904   4.910   7.043
43483SOL    HW132288   7.865   4.917   7.129
43483SOL    HW232289   7.928   5.000   7.020
43484SOL     OW32290   3.922   3.300  14.089
43484SOL    HW132291   4.004   3.268  14.127
43484SOL    HW232292   3.898   3.375  14.144
43485SOL     OW32293   8.460   4.087  10.201
43485SOL    HW132294   8.378   4.065  10.157
43485SOL    HW232295   8.436   4.157  10.262
43486SOL     OW32296   0.073   2.938   9.920
43486SOL    HW132297   0.144   2.986   9.878
43486SOL    HW232298   0.052   2.868   9.859
43487SOL     OW32299   4.557   1.461   5.217
43487SOL    HW132300   4.651   1.449   5.205
43487SOL    HW232301   4.521   1.373   5.226
43488SOL     OW32302  12.773   9.594   2.467
43488SOL    HW132303  12.787   9.583   2.561
43488SOL    HW232304  12.694   9.648   2.460
43489SOL     OW32305  11.349   1.253   8.845
43489SOL    HW132306  11.384   1.173   8.805
43489SOL    HW232307  11.284   1.222   8.908
43490SOL     OW32308   4.029   2.862  11.708
43490SOL    HW132309   4.089   2.819  11.647
43490SOL    HW232310   4.013   2.948  11.669
43491SOL     OW32311   1.845   0.995  13.741
43491SOL    HW132312   1.779   1.063  13.726
43491SOL    HW232313   1.794   0.914  13.750
43492SOL     OW32314  14.193  11.827   7.937
43492SOL    HW132315  14.100  11.823   7.959
43492SOL    HW232316  14.234  11.872   8.011
43493SOL     OW32317   9.384  10.658   7.126
43493SOL    HW132318   9.446  10.587   7.110
43493SOL    HW232319   9.348  10.639   7.213
43494SOL     OW32320  10.813   7.242   4.681
43494SOL    HW132321  10.779   7.243   4.771
43494SOL    HW232322  10.760   7.306   4.634
43495SOL     OW32323   5.782   2.227   8.452
43495SOL    HW132324   5.763   2.217   8.359
43495SOL    HW232325   5.698   2.250   8.492
43496SOL     OW32326   3.477   6.359  10.426
43496SOL    HW132327   3.451   6.386  10.337
43496SOL    HW232328   3.560   6.403  10.441
43497SOL     OW32329   3.515   6.920   0.826
43497SOL    HW132330   3.421   6.921   0.808
43497SOL    HW232331   3.556   6.950   0.745
43498SOL     OW32332   3.901  12.157  13.413
43498SOL    HW132333   3.877  12.164  13.506
43498SOL    HW232334   3.884  12.065  13.391
43499SOL     OW32335   0.393   5.734   8.256
43499SOL    HW132336   0.483   5.766   8.259
43499SOL    HW232337   0.377   5.715   8.164
43500SOL     OW32338  14.038   9.256   5.604
43500SOL    HW132339  14.130   9.229   5.602
43500SOL    HW232340  14.029   9.317   5.531
43501SOL     OW32341   1.994   0.012   7.186
43501SOL    HW132342   2.029   0.072   7.252
43501SOL    HW232343   2.011   0.056   7.102
43502SOL     OW32344   4.354  10.804   4.800
43502SOL    HW132345   4.410  10.826   4.875
43502SOL    HW232346   4.269  10.842   4.823
43503SOL     OW32347   9.590   9.032   0.414
43503SOL    HW132348   9.622   9.004   0.500
43503SOL    HW232349   9.595   9.127   0.417
43504SOL     OW32350   3.757  12.245  10.498
43504SOL    HW132351   3.779  12.335  10.520
43504SOL    HW232352   3.703  12.252  10.419
43505SOL     OW32353   8.624   2.078  11.493
43505SOL    HW132354   8.584   2.003  11.449
43505SOL    HW232355   8.605   2.152  11.436
43506SOL     OW32356   1.938   5.978   0.111
43506SOL    HW132357   1.901   6.063   0.087
43506SOL    HW232358   2.031   5.995   0.125
43507SOL     OW32359   4.470   6.913   7.734
43507SOL    HW132360   4.561   6.891   7.714
43507SOL    HW232361   4.432   6.935   7.649
43508SOL     OW32362   5.229  10.057  11.097
43508SOL    HW132363   5.144  10.036  11.058
43508SOL    HW232364   5.264   9.972  11.124
43509SOL     OW32365   8.225  13.774   7.148
43509SOL    HW132366   8.183  13.804   7.228
43509SOL    HW232367   8.153  13.753   7.089
43510SOL     OW32368   3.268  14.481   7.959
43510SOL    HW132369   3.254  14.430   7.880
43510SOL    HW232370   3.196  14.456   8.017
43511SOL     OW32371  14.247  14.764   9.768
43511SOL    HW132372  14.234  14.817   9.846
43511SOL    HW232373  14.175  14.787   9.710
43512SOL     OW32374   8.501  13.221  11.967
43512SOL    HW132375   8.430  13.243  12.028
43512SOL    HW232376   8.471  13.143  11.922
43513SOL     OW32377   9.445   1.264   0.202
43513SOL    HW132378   9.520   1.278   0.144
43513SOL    HW232379   9.461   1.178   0.242
43514SOL     OW32380   9.377   2.640  10.518
43514SOL    HW132381   9.305   2.619  10.458
43514SOL    HW232382   9.433   2.701  10.468
43515SOL     OW32383   2.305   7.132  11.115
43515SOL    HW132384   2.349   7.053  11.147
43515SOL    HW232385   2.321   7.131  11.021
43516SOL     OW32386   8.127  11.745   9.945
43516SOL    HW132387   8.036  11.758   9.974
43516SOL    HW232388   8.167  11.696  10.017
43517SOL     OW32389  14.783  14.476   4.008
43517SOL    HW132390  14.837  14.554   3.996
43517SOL    HW232391  14.843  14.410   4.042
43518SOL     OW32392   0.032  10.855   7.927
43518SOL    HW132393   0.088  10.926   7.897
43518SOL    HW232394  14.823  10.884   7.908
43519SOL     OW32395  12.721   7.852   4.737
43519SOL    HW132396  12.664   7.928   4.750
43519SOL    HW232397  12.700   7.821   4.649
43520SOL     OW32398   0.519   0.958   0.288
43520SOL    HW132399   0.584   1.022   0.317
43520SOL    HW232400   0.556   0.873   0.311
43521SOL     OW32401   9.814  12.608   0.869
43521SOL    HW132402   9.865  12.658   0.933
43521SOL    HW232403   9.825  12.657   0.787
43522SOL     OW32404  10.496   8.508  12.433
43522SOL    HW132405  10.457   8.549  12.356
43522SOL    HW232406  10.431   8.521  12.502
43523SOL     OW32407   8.890   0.579  13.597
43523SOL    HW132408   8.796   0.591  13.609
43523SOL    HW232409   8.931   0.637  13.661
43524SOL     OW32410   4.890   7.766   5.813
43524SOL    HW132411   4.842   7.692   5.775
43524SOL    HW232412   4.918   7.818   5.737
43525SOL     OW32413  10.831  11.116   8.055
43525SOL    HW132414  10.790  11.032   8.036
43525SOL    HW232415  10.758  11.175   8.076
43526SOL     OW32416  10.539  12.342   7.975
43526SOL    HW132417  10.598  12.399   8.023
43526SOL    HW232418  10.536  12.262   8.028
43527SOL     OW32419  10.610   8.011   9.502
43527SOL    HW132420  10.693   7.965   9.491
43527SOL    HW232421  10.575   8.020   9.413
43528SOL     OW32422   0.277   1.700   5.762
43528SOL    HW132423   0.287   1.769   5.827
43528SOL    HW232424   0.342   1.634   5.787
43529SOL     OW32425  10.187   0.223   0.424
43529SOL    HW132426  10.112   0.270   0.459
43529SOL    HW232427  10.227   0.180   0.499
43530SOL     OW32428   7.029   0.101   2.768
43530SOL    HW132429   7.013   0.147   2.850
43530SOL    HW232430   7.051   0.170   2.706
43531SOL     OW32431   0.676   3.359   6.779
43531SOL    HW132432   0.600   3.302   6.770
43531SOL    HW232433   0.740   3.308   6.828
43532SOL     OW32434   6.464   7.515  10.969
43532SOL    HW132435   6.466   7.544  11.060
43532SOL    HW232436   6.545   7.464  10.958
43533SOL     OW32437   7.777  13.840   0.482
43533SOL    HW132438   7.760  13.754   0.521
43533SOL    HW232439   7.752  13.830   0.391
43534SOL     OW32440   2.143   4.743   4.174
43534SOL    HW132441   2.173   4.658   4.143
43534SOL    HW232442   2.148   4.800   4.097
43535SOL     OW32443   4.569  14.435  14.755
43535SOL    HW132444   4.555  14.475  14.669
43535SOL    HW232445   4.602  14.506  14.810
43536SOL     OW32446  12.460  11.216  10.067
43536SOL    HW132447  12.553  11.231  10.082
43536SOL    HW232448  12.448  11.230   9.973
43537SOL     OW32449   0.030  11.411   2.441
43537SOL    HW132450   0.049  11.495   2.400
43537SOL    HW232451  14.814  11.403   2.435
43538SOL     OW32452   0.770   9.682  13.394
43538SOL    HW132453   0.724   9.703  13.312
43538SOL    HW232454   0.700   9.670  13.458
43539SOL     OW32455  12.648   6.151   9.108
43539SOL    HW132456  12.692   6.066   9.115
43539SOL    HW232457  12.630   6.175   9.199
43540SOL     OW32458   3.777   6.970   4.731
43540SOL    HW132459   3.744   6.918   4.804
43540SOL    HW232460   3.851   7.018   4.767
43541SOL     OW32461   2.091   8.537  12.716
43541SOL    HW132462   2.185   8.528  12.729
43541SOL    HW232463   2.053   8.473  12.776
43542SOL     OW32464  11.551  11.823   5.159
43542SOL    HW132465  11.582  11.876   5.086
43542SOL    HW232466  11.476  11.775   5.123
43543SOL     OW32467   2.941   8.686  10.574
43543SOL    HW132468   3.035   8.677  10.557
43543SOL    HW232469   2.899   8.654  10.494
43544SOL     OW32470   2.459  10.233  10.555
43544SOL    HW132471   2.405  10.299  10.513
43544SOL    HW232472   2.400  10.159  10.571
43545SOL     OW32473   4.786  13.767   7.019
43545SOL    HW132474   4.724  13.802   6.955
43545SOL    HW232475   4.774  13.823   7.096
43546SOL     OW32476   9.317  12.263   5.061
43546SOL    HW132477   9.241  12.247   5.116
43546SOL    HW232478   9.348  12.350   5.089
43547SOL     OW32479   0.224   1.148   0.799
43547SOL    HW132480   0.184   1.174   0.716
43547SOL    HW232481   0.206   1.220   0.858
43548SOL     OW32482   2.929  14.323   3.709
43548SOL    HW132483   2.927  14.250   3.771
43548SOL    HW232484   3.010  14.370   3.729
43549SOL     OW32485  14.293   1.563   7.814
43549SOL    HW132486  14.374   1.560   7.764
43549SOL    HW232487  14.307   1.634   7.877
43550SOL     OW32488   4.556   4.969   7.125
43550SOL    HW132489   4.552   4.889   7.177
43550SOL    HW232490   4.492   5.027   7.168
43551SOL     OW32491   8.188   6.075   5.956
43551SOL    HW132492   8.249   6.126   6.010
43551SOL    HW232493   8.117   6.137   5.937
43552SOL     OW32494  13.068  10.289   5.164
43552SOL    HW132495  13.042  10.217   5.222
43552SOL    HW232496  13.128  10.249   5.102
43553SOL     OW32497  13.975   9.814  13.998
43553SOL    HW132498  13.904   9.864  13.956
43553SOL    HW232499  13.936   9.729  14.018
43554SOL     OW32500   5.674   7.022  14.278
43554SOL    HW132501   5.691   7.066  14.195
43554SOL    HW232502   5.673   7.093  14.343
43555SOL     OW32503   5.352   5.044  13.712
43555SOL    HW132504   5.260   5.047  13.687
43555SOL    HW232505   5.386   5.131  13.690
43556SOL     OW32506   8.431  13.702  10.362
43556SOL    HW132507   8.517  13.693  10.321
43556SOL    HW232508   8.432  13.639  10.434
43557SOL     OW32509   7.596   7.410  10.185
43557SOL    HW132510   7.649   7.470  10.237
43557SOL    HW232511   7.565   7.344  10.248
43558SOL     OW32512   9.426  10.743  14.765
43558SOL    HW132513   9.464  10.824  14.731
43558SOL    HW232514   9.341  10.769  14.801
43559SOL     OW32515   0.039   6.302   5.507
43559SOL    HW132516   0.034   6.260   5.422
43559SOL    HW232517  14.827   6.322   5.530
43560SOL     OW32518   0.146   2.772   0.772
43560SOL    HW132519   0.232   2.729   0.773
43560SOL    HW232520   0.154   2.840   0.704
43561SOL     OW32521   5.929  14.858  10.226
43561SOL    HW132522   5.936  14.851  10.131
43561SOL    HW232523   6.016   0.007  10.255
43562SOL     OW32524   7.567   3.147   2.008
43562SOL    HW132525   7.535   3.211   2.071
43562SOL    HW232526   7.649   3.115   2.044
43563SOL     OW32527   0.063   7.710  11.573
43563SOL    HW132528   0.099   7.780  11.627
43563SOL    HW232529   0.108   7.631  11.601
43564SOL     OW32530   9.748   9.306  12.270
43564SOL    HW132531   9.762   9.212  12.272
43564SOL    HW232532   9.758   9.330  12.178
43565SOL     OW32533   3.133   1.860   0.379
43565SOL    HW132534   3.042   1.862   0.351
43565SOL    HW232535   3.134   1.802   0.455
43566SOL     OW32536   4.437   1.559  12.064
43566SOL    HW132537   4.402   1.479  12.103
43566SOL    HW232538   4.369   1.589  12.005
43567SOL     OW32539  11.195   6.246   1.013
43567SOL    HW132540  11.152   6.161   1.005
43567SOL    HW232541  11.152   6.288   1.088
43568SOL     OW32542   3.259   4.997   7.585
43568SOL    HW132543   3.238   4.904   7.592
43568SOL    HW232544   3.174   5.041   7.584
43569SOL     OW32545   9.310   7.127  11.721
43569SOL    HW132546   9.246   7.193  11.694
43569SOL    HW232547   9.345   7.161  11.804
43570SOL     OW32548   5.063   1.676  11.082
43570SOL    HW132549   5.122   1.621  11.030
43570SOL    HW232550   5.112   1.758  11.093
43571SOL     OW32551   7.055   1.959  12.593
43571SOL    HW132552   7.099   2.035  12.555
43571SOL    HW232553   6.962   1.972  12.574
43572SOL     OW32554   7.212   9.660   3.209
43572SOL    HW132555   7.264   9.733   3.243
43572SOL    HW232556   7.275   9.590   3.195
43573SOL     OW32557  13.679   2.769   2.577
43573SOL    HW132558  13.681   2.736   2.487
43573SOL    HW232559  13.670   2.864   2.568
43574SOL     OW32560   4.266   7.049   8.329
43574SOL    HW132561   4.250   7.108   8.403
43574SOL    HW232562   4.180   7.040   8.287
43575SOL     OW32563  14.356   2.011  10.334
43575SOL    HW132564  14.433   2.004  10.390
43575SOL    HW232565  14.363   2.097  10.294
43576SOL     OW32566   5.217   7.595   8.778
43576SOL    HW132567   5.250   7.574   8.691
43576SOL    HW232568   5.289   7.643   8.820
43577SOL     OW32569   5.835   6.596  13.096
43577SOL    HW132570   5.746   6.606  13.062
43577SOL    HW232571   5.834   6.645  13.178
43578SOL     OW32572   8.822  14.035   6.229
43578SOL    HW132573   8.878  14.094   6.178
43578SOL    HW232574   8.733  14.068   6.215
43579SOL     OW32575   2.082  12.458   6.709
43579SOL    HW132576   2.101  12.492   6.622
43579SOL    HW232577   2.164  12.420   6.739
43580SOL     OW32578   7.293   4.527   2.717
43580SOL    HW132579   7.284   4.507   2.624
43580SOL    HW232580   7.293   4.441   2.760
43581SOL     OW32581   4.927   7.683  11.999
43581SOL    HW132582   4.939   7.684  12.094
43581SOL    HW232583   4.932   7.590  11.975
43582SOL     OW32584   0.179   8.421  13.522
43582SOL    HW132585   0.085   8.440  13.520
43582SOL    HW232586   0.201   8.402  13.430
43583SOL     OW32587   8.142   1.943   9.717
43583SOL    HW132588   8.110   1.964   9.805
43583SOL    HW232589   8.225   1.991   9.710
43584SOL     OW32590  13.873   0.220   9.816
43584SOL    HW132591  13.791   0.194   9.859
43584SOL    HW232592  13.880   0.314   9.833
43585SOL     OW32593   9.394  14.249   7.166
43585SOL    HW132594   9.364  14.245   7.075
43585SOL    HW232595   9.481  14.289   7.161
43586SOL     OW32596   3.857   8.438  12.368
43586SOL    HW132597   3.764   8.456  12.360
43586SOL    HW232598   3.868   8.403  12.456
43587SOL     OW32599   1.148   4.021   9.378
43587SOL    HW132600   1.058   4.003   9.351
43587SOL    HW232601   1.201   4.004   9.300
43588SOL     OW32602   7.769   8.283  11.493
43588SOL    HW132603   7.674   8.279  11.503
43588SOL    HW232604   7.803   8.249  11.575
43589SOL     OW32605   0.932   3.566   9.904
43589SOL    HW132606   0.874   3.578   9.829
43589SOL    HW232607   1.019   3.590   9.870
43590SOL     OW32608   8.672  13.046   8.446
43590SOL    HW132609   8.641  13.128   8.485
43590SOL    HW232610   8.765  13.042   8.469
43591SOL     OW32611   2.134  13.892   4.848
43591SOL    HW132612   2.062  13.899   4.911
43591SOL    HW232613   2.090  13.876   4.765
43592SOL     OW32614   1.332  11.366   6.965
43592SOL    HW132615   1.397  11.426   6.930
43592SOL    HW232616   1.268  11.421   7.009
43593SOL     OW32617   4.881   7.174   6.735
43593SOL    HW132618   4.918   7.224   6.808
43593SOL    HW232619   4.876   7.238   6.663
43594SOL     OW32620   1.578  12.124  13.199
43594SOL    HW132621   1.664  12.161  13.217
43594SOL    HW232622   1.583  12.094  13.109
43595SOL     OW32623   3.895   5.651   8.929
43595SOL    HW132624   3.850   5.568   8.947
43595SOL    HW232625   3.840   5.694   8.863
43596SOL     OW32626  14.220  13.513  13.318
43596SOL    HW132627  14.308  13.544  13.339
43596SOL    HW232628  14.179  13.496  13.403
43597SOL     OW32629   5.051   7.944   6.061
43597SOL    HW132630   5.083   7.937   6.151
43597SOL    HW232631   4.990   8.017   6.064
43598SOL     OW32632   2.075   8.660  12.478
43598SOL    HW132633   2.108   8.584  12.430
43598SOL    HW232634   2.076   8.633  12.570
43599SOL     OW32635  12.237   8.219   3.649
43599SOL    HW132636  12.186   8.204   3.570
43599SOL    HW232637  12.285   8.137   3.663
43600SOL     OW32638   8.963   5.986   4.621
43600SOL    HW132639   8.878   5.987   4.577
43600SOL    HW232640   8.963   6.065   4.675
43601SOL     OW32641   7.037   2.763   0.453
43601SOL    HW132642   6.984   2.754   0.532
43601SOL    HW232643   7.118   2.716   0.472
43602SOL     OW32644  12.528   4.184   2.405
43602SOL    HW132645  12.440   4.184   2.368
43602SOL    HW232646  12.525   4.249   2.475
43603SOL     OW32647   9.171  12.226   7.460
43603SOL    HW132648   9.186  12.190   7.373
43603SOL    HW232649   9.258  12.229   7.500
43604SOL     OW32650   8.965   4.743   1.559
43604SOL    HW132651   8.985   4.790   1.478
43604SOL    HW232652   8.879   4.777   1.585
43605SOL     OW32653   1.240   7.675  10.096
43605SOL    HW132654   1.296   7.714  10.028
43605SOL    HW232655   1.260   7.582  10.093
43606SOL     OW32656  11.059  10.213   9.813
43606SOL    HW132657  11.023  10.124   9.815
43606SOL    HW232658  11.069  10.237   9.905
43607SOL     OW32659   5.825   5.525   5.814
43607SOL    HW132660   5.826   5.441   5.860
43607SOL    HW232661   5.912   5.562   5.830
43608SOL     OW32662   6.315  10.163  14.209
43608SOL    HW132663   6.247  10.182  14.145
43608SOL    HW232664   6.338  10.072  14.194
43609SOL     OW32665  11.003  12.408   6.162
43609SOL    HW132666  10.995  12.349   6.087
43609SOL    HW232667  11.097  12.423   6.171
43610SOL     OW32668  10.505   0.661   5.209
43610SOL    HW132669  10.459   0.597   5.263
43610SOL    HW232670  10.590   0.673   5.253
43611SOL     OW32671   9.317  12.949   2.053
43611SOL    HW132672   9.221  12.951   2.051
43611SOL    HW232673   9.342  13.038   2.077
43612SOL     OW32674  12.325  12.741   7.197
43612SOL    HW132675  12.395  12.727   7.134
43612SOL    HW232676  12.360  12.806   7.258
43613SOL     OW32677   5.213  10.904   6.353
43613SOL    HW132678   5.247  10.833   6.299
43613SOL    HW232679   5.127  10.923   6.317
43614SOL     OW32680  11.111   3.299  12.354
43614SOL    HW132681  11.199   3.296  12.391
43614SOL    HW232682  11.115   3.239  12.279
43615SOL     OW32683   0.370   5.220   2.047
43615SOL    HW132684   0.401   5.129   2.046
43615SOL    HW232685   0.354   5.238   2.140
43616SOL     OW32686  14.452   7.608   9.811
43616SOL    HW132687  14.459   7.593   9.906
43616SOL    HW232688  14.470   7.522   9.772
43617SOL     OW32689   5.337  11.756   3.683
43617SOL    HW132690   5.379  11.711   3.757
43617SOL    HW232691   5.307  11.685   3.626
43618SOL     OW32692  10.577  12.896   3.307
43618SOL    HW132693  10.555  12.908   3.399
43618SOL    HW232694  10.627  12.975   3.284
43619SOL     OW32695   4.305   8.690  11.454
43619SOL    HW132696   4.243   8.751  11.494
43619SOL    HW232697   4.295   8.609  11.505
43620SOL     OW32698   2.488   4.442   9.389
43620SOL    HW132699   2.411   4.410   9.437
43620SOL    HW232700   2.452   4.478   9.307
43621SOL     OW32701  11.426   2.425   7.454
43621SOL    HW132702  11.400   2.503   7.405
43621SOL    HW232703  11.489   2.456   7.518
43622SOL     OW32704   7.640   5.371   3.074
43622SOL    HW132705   7.677   5.364   2.986
43622SOL    HW232706   7.609   5.462   3.080
43623SOL     OW32707   7.986  12.213   8.179
43623SOL    HW132708   8.045  12.286   8.161
43623SOL    HW232709   7.918  12.221   8.112
43624SOL     OW32710   8.312   6.880   2.203
43624SOL    HW132711   8.282   6.925   2.282
43624SOL    HW232712   8.247   6.902   2.137
43625SOL     OW32713  13.386   3.736   5.525
43625SOL    HW132714  13.459   3.798   5.524
43625SOL    HW232715  13.324   3.773   5.587
43626SOL     OW32716  10.526  11.736   0.908
43626SOL    HW132717  10.459  11.669   0.911
43626SOL    HW232718  10.558  11.735   0.818
43627SOL     OW32719   8.559   8.160  14.342
43627SOL    HW132720   8.471   8.123  14.346
43627SOL    HW232721   8.599   8.137  14.426
43628SOL     OW32722   3.004  14.464  13.281
43628SOL    HW132723   2.974  14.526  13.348
43628SOL    HW232724   2.923  14.426  13.246
43629SOL     OW32725   3.313   4.694   4.217
43629SOL    HW132726   3.250   4.622   4.208
43629SOL    HW232727   3.300   4.747   4.138
43630SOL     OW32728  10.098   8.252   9.935
43630SOL    HW132729  10.073   8.179   9.878
43630SOL    HW232730  10.056   8.328   9.897
43631SOL     OW32731   3.605   7.219   6.067
43631SOL    HW132732   3.639   7.261   5.987
43631SOL    HW232733   3.672   7.235   6.133
43632SOL     OW32734   0.193   7.845   7.401
43632SOL    HW132735   0.132   7.772   7.408
43632SOL    HW232736   0.222   7.860   7.491
43633SOL     OW32737   6.213   8.176  11.132
43633SOL    HW132738   6.285   8.165  11.070
43633SOL    HW232739   6.177   8.262  11.111
43634SOL     OW32740   2.655  13.472   6.097
43634SOL    HW132741   2.594  13.440   6.163
43634SOL    HW232742   2.615  13.552   6.063
43635SOL     OW32743  11.985   0.735  10.105
43635SOL    HW132744  11.990   0.716  10.199
43635SOL    HW232745  12.028   0.661  10.063
43636SOL     OW32746   5.774   3.691   5.279
43636SOL    HW132747   5.867   3.667   5.285
43636SOL    HW232748   5.728   3.613   5.309
43637SOL     OW32749  10.485   1.861   6.701
43637SOL    HW132750  10.537   1.852   6.621
43637SOL    HW232751  10.407   1.909   6.674
43638SOL     OW32752   1.872   1.468   7.908
43638SOL    HW132753   1.781   1.496   7.896
43638SOL    HW232754   1.919   1.508   7.835
43639SOL     OW32755   0.153   3.242   2.061
43639SOL    HW132756   0.085   3.231   1.994
43639SOL    HW232757   0.183   3.333   2.049
43640SOL     OW32758   6.046   1.810   1.075
43640SOL    HW132759   6.123   1.847   1.031
43640SOL    HW232760   6.080   1.737   1.125
43641SOL     OW32761   5.829   0.699  11.488
43641SOL    HW132762   5.810   0.761  11.558
43641SOL    HW232763   5.827   0.613  11.530
43642SOL     OW32764   3.850   5.487  10.213
43642SOL    HW132765   3.780   5.424  10.199
43642SOL    HW232766   3.915   5.440  10.265
43643SOL     OW32767   5.571   1.520  11.624
43643SOL    HW132768   5.522   1.551  11.701
43643SOL    HW232769   5.605   1.435  11.650
43644SOL     OW32770   3.446   9.949  11.200
43644SOL    HW132771   3.533   9.917  11.224
43644SOL    HW232772   3.448   9.953  11.104
43645SOL     OW32773  12.734   7.139  12.806
43645SOL    HW132774  12.663   7.153  12.744
43645SOL    HW232775  12.802   7.094  12.756
43646SOL     OW32776  12.462   9.934   7.189
43646SOL    HW132777  12.523   9.902   7.256
43646SOL    HW232778  12.495   9.897   7.107
43647SOL     OW32779   4.138   5.659  14.403
43647SOL    HW132780   4.140   5.565  14.387
43647SOL    HW232781   4.133   5.667  14.498
43648SOL     OW32782   9.880  10.551  11.624
43648SOL    HW132783   9.906  10.620  11.685
43648SOL    HW232784   9.871  10.473  11.678
43649SOL     OW32785   7.037   1.938  14.570
43649SOL    HW132786   7.056   2.005  14.637
43649SOL    HW232787   6.943   1.924  14.577
43650SOL     OW32788   2.357  13.436  12.099
43650SOL    HW132789   2.309  13.515  12.122
43650SOL    HW232790   2.382  13.449  12.008
43651SOL     OW32791   0.706   6.811  11.668
43651SOL    HW132792   0.709   6.899  11.706
43651SOL    HW232793   0.633   6.769  11.713
43652SOL     OW32794   9.024   9.907   4.829
43652SOL    HW132795   8.929   9.894   4.830
43652SOL    HW232796   9.050   9.889   4.739
43653SOL     OW32797   2.910   8.373   0.399
43653SOL    HW132798   2.979   8.421   0.354
43653SOL    HW232799   2.872   8.317   0.331
43654SOL     OW32800   7.511   5.775   5.362
43654SOL    HW132801   7.447   5.846   5.362
43654SOL    HW232802   7.554   5.781   5.277
43655SOL     OW32803  14.403   5.621  14.503
43655SOL    HW132804  14.445   5.705  14.521
43655SOL    HW232805  14.394   5.618  14.408
43656SOL     OW32806   2.998   9.349   5.193
43656SOL    HW132807   2.919   9.392   5.226
43656SOL    HW232808   3.018   9.396   5.112
43657SOL     OW32809   6.581  11.326   0.525
43657SOL    HW132810   6.509  11.347   0.584
43657SOL    HW232811   6.660  11.338   0.578
43658SOL     OW32812   6.908   0.384  13.132
43658SOL    HW132813   6.920   0.367  13.039
43658SOL    HW232814   6.882   0.476  13.136
43659SOL     OW32815   4.800   1.641   6.657
43659SOL    HW132816   4.737   1.691   6.604
43659SOL    HW232817   4.848   1.589   6.594
43660SOL     OW32818   7.588  13.610   2.648
43660SOL    HW132819   7.644  13.532   2.653
43660SOL    HW232820   7.630  13.666   2.583
43661SOL     OW32821   7.210  12.835   0.581
43661SOL    HW132822   7.169  12.844   0.495
43661SOL    HW232823   7.201  12.741   0.602
43662SOL     OW32824   7.596   6.312  12.766
43662SOL    HW132825   7.520   6.362  12.738
43662SOL    HW232826   7.573   6.221  12.749
43663SOL     OW32827  10.477   7.405  12.176
43663SOL    HW132828  10.518   7.388  12.091
43663SOL    HW232829  10.498   7.328  12.228
43664SOL     OW32830  12.078  11.152   3.447
43664SOL    HW132831  12.157  11.129   3.495
43664SOL    HW232832  12.046  11.231   3.489
43665SOL     OW32833   2.094   1.146  14.621
43665SOL    HW132834   2.028   1.120  14.685
43665SOL    HW232835   2.113   1.238  14.641
43666SOL     OW32836   8.644   2.845   1.319
43666SOL    HW132837   8.687   2.761   1.334
43666SOL    HW232838   8.615   2.842   1.228
43667SOL     OW32839   4.932   1.017   0.395
43667SOL    HW132840   4.962   1.099   0.434
43667SOL    HW232841   5.010   0.961   0.394
43668SOL     OW32842   0.457  12.664   8.526
43668SOL    HW132843   0.546  12.630   8.511
43668SOL    HW232844   0.427  12.617   8.604
43669SOL     OW32845   6.532   3.533   7.498
43669SOL    HW132846   6.600   3.582   7.545
43669SOL    HW232847   6.576   3.454   7.467
43670SOL     OW32848   6.491  10.250   5.959
43670SOL    HW132849   6.400  10.268   5.983
43670SOL    HW232850   6.510  10.165   5.999
43671SOL     OW32851   3.565  14.522  14.878
43671SOL    HW132852   3.648  14.513  14.831
43671SOL    HW232853   3.508  14.456  14.839
43672SOL     OW32854   6.409   7.990   8.685
43672SOL    HW132855   6.391   8.080   8.711
43672SOL    HW232856   6.490   7.995   8.634
43673SOL     OW32857   1.235  10.771   5.043
43673SOL    HW132858   1.182  10.715   5.100
43673SOL    HW232859   1.182  10.783   4.965
43674SOL     OW32860   5.952   9.090   7.533
43674SOL    HW132861   6.017   9.020   7.531
43674SOL    HW232862   5.992   9.158   7.587
43675SOL     OW32863   4.205  10.608  14.645
43675SOL    HW132864   4.172  10.618  14.734
43675SOL    HW232865   4.200  10.514  14.628
43676SOL     OW32866   7.064   8.060   9.950
43676SOL    HW132867   7.021   8.051   9.865
43676SOL    HW232868   6.997   8.033  10.013
43677SOL     OW32869   6.999   2.192  11.070
43677SOL    HW132870   7.058   2.266  11.057
43677SOL    HW232871   6.974   2.198  11.162
43678SOL     OW32872  14.382  12.290   5.211
43678SOL    HW132873  14.378  12.353   5.283
43678SOL    HW232874  14.358  12.207   5.251
43679SOL     OW32875  12.312   7.668  10.833
43679SOL    HW132876  12.368   7.736  10.794
43679SOL    HW232877  12.373   7.599  10.858
43680SOL     OW32878   1.800   4.713   1.607
43680SOL    HW132879   1.798   4.791   1.552
43680SOL    HW232880   1.711   4.707   1.643
43681SOL     OW32881   2.883  12.829   6.851
43681SOL    HW132882   2.825  12.904   6.836
43681SOL    HW232883   2.849  12.787   6.930
43682SOL     OW32884   5.375   9.345   9.860
43682SOL    HW132885   5.304   9.409   9.853
43682SOL    HW232886   5.404   9.351   9.951
43683SOL     OW32887   9.734   6.160   3.795
43683SOL    HW132888   9.768   6.087   3.848
43683SOL    HW232889   9.728   6.233   3.856
43684SOL     OW32890   7.472  13.803   9.047
43684SOL    HW132891   7.498  13.735   8.986
43684SOL    HW232892   7.520  13.783   9.128
43685SOL     OW32893   4.826   9.553   3.825
43685SOL    HW132894   4.817   9.475   3.880
43685SOL    HW232895   4.913   9.588   3.848
43686SOL     OW32896   4.310   7.657   0.758
43686SOL    HW132897   4.266   7.586   0.711
43686SOL    HW232898   4.358   7.613   0.828
43687SOL     OW32899   5.905   5.081   4.074
43687SOL    HW132900   5.993   5.116   4.090
43687SOL    HW232901   5.856   5.101   4.154
43688SOL     OW32902   9.337  14.425  12.764
43688SOL    HW132903   9.357  14.377  12.845
43688SOL    HW232904   9.385  14.377  12.696
43689SOL     OW32905  10.318   6.516   5.724
43689SOL    HW132906  10.234   6.474   5.743
43689SOL    HW232907  10.351   6.544   5.809
43690SOL     OW32908   7.051  13.311   8.021
43690SOL    HW132909   7.072  13.300   7.928
43690SOL    HW232910   7.076  13.228   8.062
43691SOL     OW32911   3.961  13.032   9.854
43691SOL    HW132912   3.938  13.052   9.763
43691SOL    HW232913   3.888  13.067   9.905
43692SOL     OW32914   8.419   8.297  11.602
43692SOL    HW132915   8.388   8.386  11.619
43692SOL    HW232916   8.352   8.241  11.641
43693SOL     OW32917   5.586   4.655  10.517
43693SOL    HW132918   5.517   4.602  10.476
43693SOL    HW232919   5.618   4.711  10.446
43694SOL     OW32920   1.259  14.478  14.339
43694SOL    HW132921   1.211  14.470  14.257
43694SOL    HW232922   1.190  14.480  14.407
43695SOL     OW32923  12.063   5.334  13.615
43695SOL    HW132924  12.102   5.381  13.690
43695SOL    HW232925  12.101   5.376  13.538
43696SOL     OW32926   6.595   0.761   7.502
43696SOL    HW132927   6.651   0.717   7.438
43696SOL    HW232928   6.644   0.757   7.584
43697SOL     OW32929   5.201  14.429  12.329
43697SOL    HW132930   5.292  14.400  12.337
43697SOL    HW232931   5.171  14.438  12.419
43698SOL     OW32932   5.357  13.887   3.077
43698SOL    HW132933   5.316  13.913   3.159
43698SOL    HW232934   5.283  13.863   3.020
43699SOL     OW32935   3.842  14.832   2.955
43699SOL    HW132936   3.917   0.008   2.936
43699SOL    HW232937   3.835  14.833   3.051
43700SOL     OW32938   3.439  11.616  13.321
43700SOL    HW132939   3.492  11.603  13.401
43700SOL    HW232940   3.501  11.654  13.258
43701SOL     OW32941   3.998   5.512  12.672
43701SOL    HW132942   3.993   5.467  12.756
43701SOL    HW232943   3.955   5.596  12.686
43702SOL     OW32944   8.930  12.345  10.685
43702SOL    HW132945   8.942  12.363  10.779
43702SOL    HW232946   8.901  12.429  10.649
43703SOL     OW32947   1.933   5.579   4.814
43703SOL    HW132948   1.992   5.639   4.861
43703SOL    HW232949   1.957   5.590   4.722
43704SOL     OW32950  14.457  11.947  10.705
43704SOL    HW132951  14.517  11.899  10.647
43704SOL    HW232952  14.406  12.003  10.646
43705SOL     OW32953  10.918   5.548   1.754
43705SOL    HW132954  10.851   5.592   1.806
43705SOL    HW232955  10.993   5.607   1.758
43706SOL     OW32956   2.366   5.967   0.456
43706SOL    HW132957   2.445   5.915   0.467
43706SOL    HW232958   2.385   6.049   0.501
43707SOL     OW32959   0.424   2.660  12.723
43707SOL    HW132960   0.395   2.750  12.711
43707SOL    HW232961   0.421   2.646  12.818
43708SOL     OW32962  13.988   7.112   0.411
43708SOL    HW132963  14.065   7.155   0.374
43708SOL    HW232964  13.914   7.162   0.375
43709SOL     OW32965   0.669  10.459   9.366
43709SOL    HW132966   0.653  10.370   9.334
43709SOL    HW232967   0.595  10.510   9.335
43710SOL     OW32968   1.066   4.541  12.568
43710SOL    HW132969   1.090   4.470  12.509
43710SOL    HW232970   0.984   4.575  12.533
43711SOL     OW32971   1.092   8.584  14.768
43711SOL    HW132972   1.174   8.554  14.809
43711SOL    HW232973   1.036   8.607  14.842
43712SOL     OW32974   8.208  13.513  11.785
43712SOL    HW132975   8.224  13.600  11.820
43712SOL    HW232976   8.130  13.482  11.832
43713SOL     OW32977   6.296   8.238   4.539
43713SOL    HW132978   6.274   8.165   4.481
43713SOL    HW232979   6.389   8.228   4.557
43714SOL     OW32980   7.903  10.538   4.072
43714SOL    HW132981   7.823  10.522   4.022
43714SOL    HW232982   7.937  10.621   4.037
43715SOL     OW32983  10.724   3.668   7.273
43715SOL    HW132984  10.818   3.672   7.291
43715SOL    HW232985  10.714   3.704   7.185
43716SOL     OW32986  11.051   6.470   3.042
43716SOL    HW132987  11.104   6.544   3.012
43716SOL    HW232988  11.037   6.417   2.963
43717SOL     OW32989  10.218  11.419  13.030
43717SOL    HW132990  10.159  11.449  13.099
43717SOL    HW232991  10.236  11.496  12.977
43718SOL     OW32992   1.399   5.916   8.896
43718SOL    HW132993   1.461   5.971   8.944
43718SOL    HW232994   1.324   5.973   8.881
43719SOL     OW32995  10.491   5.527   9.239
43719SOL    HW132996  10.475   5.544   9.331
43719SOL    HW232997  10.537   5.605   9.207
43720SOL     OW32998   8.559   0.460   5.806
43720SOL    HW132999   8.487   0.505   5.763
43720SOL    HW233000   8.629   0.525   5.810
43721SOL     OW33001  13.568  14.199  10.543
43721SOL    HW133002  13.517  14.278  10.560
43721SOL    HW233003  13.575  14.155  10.628
43722SOL     OW33004  11.284  13.913  12.273
43722SOL    HW133005  11.360  13.947  12.224
43722SOL    HW233006  11.322  13.849  12.333
43723SOL     OW33007  13.833   3.324   7.135
43723SOL    HW133008  13.843   3.414   7.104
43723SOL    HW233009  13.754   3.292   7.091
43724SOL     OW33010  13.256   7.573   8.768
43724SOL    HW133011  13.288   7.491   8.731
43724SOL    HW233012  13.163   7.558   8.784
43725SOL     OW33013   1.505  12.688  12.621
43725SOL    HW133014   1.426  12.742  12.618
43725SOL    HW233015   1.572  12.740  12.577
43726SOL     OW33016   5.587   0.261  13.710
43726SOL    HW133017   5.651   0.322  13.674
43726SOL    HW233018   5.591   0.274  13.804
43727SOL     OW33019   8.637  12.162   6.158
43727SOL    HW133020   8.634  12.257   6.162
43727SOL    HW233021   8.577  12.139   6.087
43728SOL     OW33022  12.460   0.583   1.756
43728SOL    HW133023  12.508   0.661   1.785
43728SOL    HW233024  12.467   0.585   1.660
43729SOL     OW33025   4.705   8.337   8.247
43729SOL    HW133026   4.753   8.381   8.177
43729SOL    HW233027   4.770   8.281   8.290
43730SOL     OW33028   5.138  13.604   1.339
43730SOL    HW133029   5.210  13.628   1.396
43730SOL    HW233030   5.094  13.532   1.384
43731SOL     OW33031   6.398  10.007   5.312
43731SOL    HW133032   6.322   9.949   5.316
43731SOL    HW233033   6.472   9.951   5.335
43732SOL     OW33034   2.625  11.664  14.491
43732SOL    HW133035   2.667  11.746  14.516
43732SOL    HW233036   2.551  11.656  14.551
43733SOL     OW33037   9.696   7.673   2.771
43733SOL    HW133038   9.754   7.631   2.708
43733SOL    HW233039   9.745   7.749   2.802
43734SOL     OW33040   6.310  14.186   6.772
43734SOL    HW133041   6.349  14.108   6.811
43734SOL    HW233042   6.225  14.195   6.815
43735SOL     OW33043   4.329   3.755  12.073
43735SOL    HW133044   4.236   3.773  12.084
43735SOL    HW233045   4.369   3.840  12.056
43736SOL     OW33046   0.322   9.801  13.087
43736SOL    HW133047   0.256   9.811  13.155
43736SOL    HW233048   0.357   9.713  13.099
43737SOL     OW33049   0.086   9.741   8.525
43737SOL    HW133050   0.022   9.673   8.548
43737SOL    HW233051   0.087   9.742   8.429
43738SOL     OW33052   8.622   5.086   3.922
43738SOL    HW133053   8.712   5.115   3.933
43738SOL    HW233054   8.569   5.165   3.936
43739SOL     OW33055  14.401   2.883   9.442
43739SOL    HW133056  14.412   2.948   9.511
43739SOL    HW233057  14.346   2.928   9.377
43740SOL     OW33058  12.075  12.683   1.854
43740SOL    HW133059  11.987  12.713   1.876
43740SOL    HW233060  12.062  12.594   1.819
43741SOL     OW33061  10.830   2.766   8.429
43741SOL    HW133062  10.762   2.813   8.382
43741SOL    HW233063  10.795   2.678   8.441
43742SOL     OW33064   5.357   6.006   2.773
43742SOL    HW133065   5.353   6.046   2.686
43742SOL    HW233066   5.383   6.077   2.831
43743SOL     OW33067   5.023  10.141  14.031
43743SOL    HW133068   5.082  10.180  13.966
43743SOL    HW233069   4.969  10.215  14.061
43744SOL     OW33070   6.662   8.968  11.003
43744SOL    HW133071   6.599   8.992  11.071
43744SOL    HW233072   6.702   8.887  11.034
43745SOL     OW33073  12.164   4.843  12.891
43745SOL    HW133074  12.069   4.836  12.894
43745SOL    HW233075  12.190   4.864  12.981
43746SOL     OW33076   7.823  10.213  10.205
43746SOL    HW133077   7.840  10.140  10.264
43746SOL    HW233078   7.728  10.222  10.205
43747SOL     OW33079   3.226   4.603   6.536
43747SOL    HW133080   3.231   4.669   6.466
43747SOL    HW233081   3.164   4.640   6.599
43748SOL     OW33082   1.089   2.728   4.715
43748SOL    HW133083   1.129   2.683   4.641
43748SOL    HW233084   1.062   2.657   4.774
43749SOL     OW33085  14.068  14.620   5.710
43749SOL    HW133086  14.150  14.669   5.713
43749SOL    HW233087  14.035  14.623   5.799
43750SOL     OW33088  11.163   0.194   7.711
43750SOL    HW133089  11.248   0.232   7.688
43750SOL    HW233090  11.103   0.269   7.716
43751SOL     OW33091   0.484   6.171  10.533
43751SOL    HW133092   0.505   6.099  10.474
43751SOL    HW233093   0.525   6.248  10.493
43752SOL     OW33094   2.177   7.103   0.350
43752SOL    HW133095   2.105   7.060   0.303
43752SOL    HW233096   2.249   7.040   0.345
43753SOL     OW33097   9.635   9.525  11.048
43753SOL    HW133098   9.717   9.539  11.096
43753SOL    HW233099   9.650   9.565  10.962
43754SOL     OW33100   0.385   6.259   0.146
43754SOL    HW133101   0.348   6.337   0.105
43754SOL    HW233102   0.320   6.190   0.130
43755SOL     OW33103   2.952   2.406   6.608
43755SOL    HW133104   2.906   2.438   6.685
43755SOL    HW233105   3.015   2.475   6.587
43756SOL     OW33106   1.540  13.284  11.269
43756SOL    HW133107   1.458  13.279  11.318
43756SOL    HW233108   1.568  13.375  11.280
43757SOL     OW33109   3.611   6.879  13.025
43757SOL    HW133110   3.619   6.799  12.975
43757SOL    HW233111   3.683   6.875  13.088
43758SOL     OW33112   3.293   5.097   3.612
43758SOL    HW133113   3.295   5.093   3.708
43758SOL    HW233114   3.220   5.156   3.592
43759SOL     OW33115   0.173   1.730  13.265
43759SOL    HW133116   0.137   1.818  13.258
43759SOL    HW233117   0.124   1.679  13.201
43760SOL     OW33118  10.029   3.906   5.623
43760SOL    HW133119  10.056   3.992   5.591
43760SOL    HW233120   9.933   3.912   5.628
43761SOL     OW33121   8.511   4.475  14.191
43761SOL    HW133122   8.593   4.449  14.151
43761SOL    HW233123   8.491   4.561  14.153
43762SOL     OW33124   6.498   5.048   4.046
43762SOL    HW133125   6.532   5.057   4.135
43762SOL    HW233126   6.569   5.077   3.989
43763SOL     OW33127   5.075   9.427   5.578
43763SOL    HW133128   5.158   9.454   5.618
43763SOL    HW233129   5.073   9.332   5.589
43764SOL     OW33130   6.126  11.635  13.645
43764SOL    HW133131   6.221  11.642  13.642
43764SOL    HW233132   6.105  11.640  13.738
43765SOL     OW33133   4.734  10.141  14.473
43765SOL    HW133134   4.774  10.223  14.443
43765SOL    HW233135   4.800  10.074  14.454
43766SOL     OW33136  10.393   0.551   3.937
43766SOL    HW133137  10.445   0.499   3.998
43766SOL    HW233138  10.317   0.497   3.916
43767SOL     OW33139   9.415   8.669  11.354
43767SOL    HW133140   9.427   8.574  11.359
43767SOL    HW233141   9.321   8.682  11.367
43768SOL     OW33142   6.204   9.651   6.577
43768SOL    HW133143   6.271   9.704   6.533
43768SOL    HW233144   6.167   9.710   6.642
43769SOL     OW33145   0.016  11.792  14.440
43769SOL    HW133146  14.827  11.726  14.449
43769SOL    HW233147   0.081  11.750  14.383
43770SOL     OW33148   6.489  10.023   8.934
43770SOL    HW133149   6.433   9.946   8.941
43770SOL    HW233150   6.462  10.066   8.853
43771SOL     OW33151   4.060  13.339  14.461
43771SOL    HW133152   4.017  13.281  14.524
43771SOL    HW233153   4.064  13.424  14.505
43772SOL     OW33154   9.926   7.284   9.039
43772SOL    HW133155   9.882   7.206   9.073
43772SOL    HW233156  10.017   7.274   9.067
43773SOL     OW33157   3.142  10.807   1.701
43773SOL    HW133158   3.060  10.844   1.733
43773SOL    HW233159   3.210  10.848   1.755
43774SOL     OW33160   4.296  10.826   2.716
43774SOL    HW133161   4.321  10.822   2.623
43774SOL    HW233162   4.204  10.802   2.717
43775SOL     OW33163   9.119   9.292   8.012
43775SOL    HW133164   9.033   9.251   8.008
43775SOL    HW233165   9.166   9.257   7.936
43776SOL     OW33166   8.323   1.330   0.134
43776SOL    HW133167   8.259   1.401   0.143
43776SOL    HW233168   8.405   1.375   0.110
43777SOL     OW33169   7.787   1.442   2.381
43777SOL    HW133170   7.770   1.486   2.464
43777SOL    HW233171   7.744   1.496   2.315
43778SOL     OW33172   9.141  11.988   2.163
43778SOL    HW133173   9.192  11.985   2.082
43778SOL    HW233174   9.121  11.897   2.182
43779SOL     OW33175   5.361  13.421   2.589
43779SOL    HW133176   5.353  13.409   2.494
43779SOL    HW233177   5.397  13.338   2.620
43780SOL     OW33178   5.427  14.087   1.324
43780SOL    HW133179   5.503  14.060   1.375
43780SOL    HW233180   5.425  14.182   1.332
43781SOL     OW33181   9.644   3.897   2.898
43781SOL    HW133182   9.630   3.803   2.895
43781SOL    HW233183   9.729   3.908   2.940
43782SOL     OW33184   0.549  14.008   8.152
43782SOL    HW133185   0.492  13.988   8.227
43782SOL    HW233186   0.616  13.940   8.155
43783SOL     OW33187   6.219   4.349  12.172
43783SOL    HW133188   6.213   4.348  12.267
43783SOL    HW233189   6.233   4.258  12.147
43784SOL     OW33190   4.624  12.080   9.738
43784SOL    HW133191   4.669  12.000   9.764
43784SOL    HW233192   4.532  12.065   9.762
43785SOL     OW33193   7.935   1.144  10.144
43785SOL    HW133194   7.859   1.198  10.166
43785SOL    HW233195   7.907   1.094  10.067
43786SOL     OW33196   8.651   6.855   3.285
43786SOL    HW133197   8.709   6.798   3.233
43786SOL    HW233198   8.594   6.794   3.332
43787SOL     OW33199   2.710  10.843  11.711
43787SOL    HW133200   2.664  10.921  11.680
43787SOL    HW233201   2.767  10.875  11.781
43788SOL     OW33202   6.448   1.326   1.779
43788SOL    HW133203   6.413   1.264   1.715
43788SOL    HW233204   6.425   1.412   1.745
43789SOL     OW33205   4.752  13.748  10.785
43789SOL    HW133206   4.773  13.657  10.766
43789SOL    HW233207   4.668  13.764  10.742
43790SOL     OW33208  11.410  12.069   0.864
43790SOL    HW133209  11.318  12.084   0.889
43790SOL    HW233210  11.459  12.134   0.914
43791SOL     OW33211   7.196  10.596   6.422
43791SOL    HW133212   7.274  10.541   6.415
43791SOL    HW233213   7.230  10.685   6.424
43792SOL     OW33214  12.420   6.374  13.623
43792SOL    HW133215  12.325   6.380  13.607
43792SOL    HW233216  12.431   6.291  13.669
43793SOL     OW33217   3.810   8.397  10.933
43793SOL    HW133218   3.847   8.485  10.925
43793SOL    HW233219   3.881   8.345  10.971
43794SOL     OW33220  11.733   5.500   4.032
43794SOL    HW133221  11.738   5.596   4.036
43794SOL    HW233222  11.792   5.476   3.960
43795SOL     OW33223   9.861   6.995   6.580
43795SOL    HW133224   9.855   6.900   6.566
43795SOL    HW233225   9.834   7.033   6.496
43796SOL     OW33226   9.035   6.561  14.258
43796SOL    HW133227   8.951   6.584  14.218
43796SOL    HW233228   9.068   6.489  14.204
43797SOL     OW33229  14.529  12.895   1.356
43797SOL    HW133230  14.515  12.987   1.379
43797SOL    HW233231  14.474  12.846   1.417
43798SOL     OW33232   6.244   2.699   8.572
43798SOL    HW133233   6.183   2.695   8.498
43798SOL    HW233234   6.305   2.627   8.557
43799SOL     OW33235  12.916   3.365   9.179
43799SOL    HW133236  12.831   3.323   9.163
43799SOL    HW233237  12.925   3.428   9.108
43800SOL     OW33238   9.437   4.616  11.727
43800SOL    HW133239   9.512   4.584  11.676
43800SOL    HW233240   9.468   4.615  11.817
43801SOL     OW33241   3.045   2.533   9.991
43801SOL    HW133242   3.045   2.439   9.971
43801SOL    HW233243   3.137   2.554  10.005
43802SOL     OW33244  10.565   3.733   5.829
43802SOL    HW133245  10.597   3.687   5.906
43802SOL    HW233246  10.491   3.784   5.860
43803SOL     OW33247  13.482  11.895   4.012
43803SOL    HW133248  13.569  11.925   4.035
43803SOL    HW233249  13.479  11.804   4.041
43804SOL     OW33250   2.924   5.393   9.841
43804SOL    HW133251   2.851   5.449   9.869
43804SOL    HW233252   2.955   5.353   9.922
43805SOL     OW33253   3.925   6.035   6.045
43805SOL    HW133254   3.970   6.002   6.123
43805SOL    HW233255   3.976   6.112   6.019
43806SOL     OW33256   9.259   0.455  12.417
43806SOL    HW133257   9.234   0.457  12.325
43806SOL    HW233258   9.211   0.381  12.454
43807SOL     OW33259   5.113   9.523  13.234
43807SOL    HW133260   5.202   9.548  13.258
43807SOL    HW233261   5.067   9.513  13.318
43808SOL     OW33262   8.819   0.425   4.245
43808SOL    HW133263   8.870   0.389   4.172
43808SOL    HW233264   8.881   0.479   4.294
43809SOL     OW33265   0.528  13.339   6.222
43809SOL    HW133266   0.567  13.425   6.231
43809SOL    HW233267   0.600  13.278   6.237
43810SOL     OW33268  12.903  13.396   9.731
43810SOL    HW133269  12.952  13.477   9.719
43810SOL    HW233270  12.966  13.334   9.767
43811SOL     OW33271   5.883   5.571   6.523
43811SOL    HW133272   5.810   5.632   6.528
43811SOL    HW233273   5.957   5.620   6.559
43812SOL     OW33274   4.379   3.418   9.769
43812SOL    HW133275   4.355   3.381   9.854
43812SOL    HW233276   4.316   3.380   9.708
43813SOL     OW33277   8.536  11.044   9.279
43813SOL    HW133278   8.581  10.970   9.238
43813SOL    HW233279   8.452  11.008   9.308
43814SOL     OW33280   0.425   3.853   3.597
43814SOL    HW133281   0.466   3.843   3.511
43814SOL    HW233282   0.344   3.803   3.591
43815SOL     OW33283   3.929   7.283  11.580
43815SOL    HW133284   3.952   7.283  11.673
43815SOL    HW233285   3.926   7.190  11.557
43816SOL     OW33286   8.985   6.152   3.971
43816SOL    HW133287   8.947   6.240   3.976
43816SOL    HW233288   8.996   6.136   3.877
43817SOL     OW33289   9.292   9.626   4.245
43817SOL    HW133290   9.289   9.582   4.331
43817SOL    HW233291   9.218   9.686   4.246
43818SOL     OW33292  13.062  12.464   3.549
43818SOL    HW133293  13.045  12.444   3.457
43818SOL    HW233294  12.976  12.459   3.590
43819SOL     OW33295   5.389   3.408  11.925
43819SOL    HW133296   5.314   3.350  11.938
43819SOL    HW233297   5.391   3.463  12.004
43820SOL     OW33298   7.386  14.720   2.974
43820SOL    HW133299   7.480  14.729   2.987
43820SOL    HW233300   7.348  14.799   3.013
43821SOL     OW33301   5.925   5.532   1.114
43821SOL    HW133302   5.950   5.440   1.105
43821SOL    HW233303   5.833   5.530   1.139
43822SOL     OW33304   5.477  10.358  11.653
43822SOL    HW133305   5.445  10.296  11.587
43822SOL    HW233306   5.434  10.331  11.734
43823SOL     OW33307  12.525  11.107   5.153
43823SOL    HW133308  12.510  11.017   5.125
43823SOL    HW233309  12.438  11.146   5.155
43824SOL     OW33310   4.877   0.806   3.638
43824SOL    HW133311   4.968   0.834   3.650
43824SOL    HW233312   4.857   0.755   3.717
43825SOL     OW33313   6.663  12.496  12.899
43825SOL    HW133314   6.709  12.420  12.936
43825SOL    HW233315   6.709  12.514  12.817
43826SOL     OW33316   6.541   2.502  11.570
43826SOL    HW133317   6.613   2.505  11.633
43826SOL    HW233318   6.568   2.560  11.500
43827SOL     OW33319   7.958   0.517  10.195
43827SOL    HW133320   7.968   0.526  10.289
43827SOL    HW233321   7.917   0.599  10.167
43828SOL     OW33322  10.544   2.651   3.989
43828SOL    HW133323  10.546   2.648   3.894
43828SOL    HW233324  10.578   2.739   4.011
43829SOL     OW33325   0.173   5.188   5.209
43829SOL    HW133326   0.224   5.108   5.215
43829SOL    HW233327   0.102   5.177   5.272
43830SOL     OW33328   1.530   7.687   8.251
43830SOL    HW133329   1.581   7.736   8.316
43830SOL    HW233330   1.534   7.596   8.282
43831SOL     OW33331   4.574   6.382   1.406
43831SOL    HW133332   4.647   6.334   1.443
43831SOL    HW233333   4.597   6.474   1.418
43832SOL     OW33334  12.149   5.554   1.513
43832SOL    HW133335  12.059   5.579   1.537
43832SOL    HW233336  12.140   5.518   1.424
43833SOL     OW33337   2.144  10.385  10.204
43833SOL    HW133338   2.136  10.304  10.254
43833SOL    HW233339   2.171  10.357  10.117
43834SOL     OW33340   2.322   7.542   8.836
43834SOL    HW133341   2.288   7.477   8.897
43834SOL    HW233342   2.397   7.498   8.795
43835SOL     OW33343  12.298   6.859   0.074
43835SOL    HW133344  12.268   6.783   0.024
43835SOL    HW233345  12.393   6.855   0.067
43836SOL     OW33346   1.190   2.045   0.785
43836SOL    HW133347   1.131   1.974   0.760
43836SOL    HW233348   1.277   2.007   0.780
43837SOL     OW33349  11.937   1.217   3.043
43837SOL    HW133350  11.852   1.181   3.068
43837SOL    HW233351  12.001   1.154   3.075
43838SOL     OW33352  14.243   7.951   2.143
43838SOL    HW133353  14.221   8.040   2.116
43838SOL    HW233354  14.224   7.897   2.066
43839SOL     OW33355   2.132  11.618   1.842
43839SOL    HW133356   2.062  11.573   1.795
43839SOL    HW233357   2.157  11.691   1.785
43840SOL     OW33358   3.751  10.507  12.825
43840SOL    HW133359   3.711  10.437  12.876
43840SOL    HW233360   3.704  10.505  12.741
43841SOL     OW33361   0.413  10.602   8.098
43841SOL    HW133362   0.472  10.577   8.027
43841SOL    HW233363   0.345  10.535   8.097
43842SOL     OW33364  13.827   1.845   7.267
43842SOL    HW133365  13.880   1.767   7.282
43842SOL    HW233366  13.810   1.845   7.173
43843SOL     OW33367   0.237   6.934   3.321
43843SOL    HW133368   0.205   6.852   3.284
43843SOL    HW233369   0.248   6.916   3.414
43844SOL     OW33370  12.696   4.203  14.128
43844SOL    HW133371  12.613   4.155  14.139
43844SOL    HW233372  12.715   4.236  14.216
43845SOL     OW33373  12.454   2.413   3.290
43845SOL    HW133374  12.465   2.398   3.196
43845SOL    HW233375  12.367   2.453   3.298
43846SOL     OW33376   3.012   3.588   4.230
43846SOL    HW133377   3.005   3.493   4.216
43846SOL    HW233378   3.091   3.598   4.282
43847SOL     OW33379   8.884  13.183   9.213
43847SOL    HW133380   8.829  13.252   9.176
43847SOL    HW233381   8.959  13.177   9.154
43848SOL     OW33382   5.301  12.077  11.864
43848SOL    HW133383   5.368  12.025  11.819
43848SOL    HW233384   5.333  12.167  11.858
43849SOL     OW33385  10.537  13.126  14.299
43849SOL    HW133386  10.467  13.186  14.274
43849SOL    HW233387  10.549  13.141  14.393
43850SOL     OW33388  13.004   5.660   1.161
43850SOL    HW133389  13.095   5.652   1.190
43850SOL    HW233390  12.970   5.570   1.165
43851SOL     OW33391   7.209   7.207   3.664
43851SOL    HW133392   7.250   7.149   3.727
43851SOL    HW233393   7.151   7.263   3.716
43852SOL     OW33394   0.868   8.769  11.718
43852SOL    HW133395   0.853   8.857  11.751
43852SOL    HW233396   0.931   8.730  11.779
43853SOL     OW33397   4.075   0.079   4.978
43853SOL    HW133398   4.038   0.107   5.062
43853SOL    HW233399   4.169   0.096   4.987
43854SOL     OW33400   0.159   2.953   3.076
43854SOL    HW133401   0.244   2.968   3.118
43854SOL    HW233402   0.110   3.034   3.091
43855SOL     OW33403   9.779   8.200  13.224
43855SOL    HW133404   9.866   8.240  13.229
43855SOL    HW233405   9.796   8.106  13.215
43856SOL     OW33406  12.250   7.386   7.970
43856SOL    HW133407  12.305   7.459   7.998
43856SOL    HW233408  12.216   7.349   8.051
43857SOL     OW33409  11.908  13.277   0.331
43857SOL    HW133410  11.896  13.365   0.295
43857SOL    HW233411  11.845  13.272   0.403
43858SOL     OW33412   3.607   2.324   7.049
43858SOL    HW133413   3.579   2.407   7.009
43858SOL    HW233414   3.698   2.314   7.022
43859SOL     OW33415   8.574   4.829   0.124
43859SOL    HW133416   8.644   4.800   0.182
43859SOL    HW233417   8.596   4.792   0.039
43860SOL     OW33418   7.863   7.702   4.294
43860SOL    HW133419   7.930   7.769   4.281
43860SOL    HW233420   7.780   7.750   4.287
43861SOL     OW33421   8.307  13.763   6.105
43861SOL    HW133422   8.342  13.826   6.168
43861SOL    HW233423   8.277  13.817   6.032
43862SOL     OW33424   4.278   9.641   2.099
43862SOL    HW133425   4.215   9.689   2.154
43862SOL    HW233426   4.228   9.569   2.061
43863SOL     OW33427   1.725  11.949   3.358
43863SOL    HW133428   1.702  11.873   3.411
43863SOL    HW233429   1.753  11.912   3.274
43864SOL     OW33430   4.425   5.416   3.134
43864SOL    HW133431   4.498   5.353   3.142
43864SOL    HW233432   4.349   5.367   3.166
43865SOL     OW33433   1.087   7.759   5.482
43865SOL    HW133434   1.159   7.705   5.516
43865SOL    HW233435   1.008   7.714   5.513
43866SOL     OW33436   1.872   1.170  10.814
43866SOL    HW133437   1.943   1.210  10.763
43866SOL    HW233438   1.848   1.092  10.764
43867SOL     OW33439  12.472   1.957  12.350
43867SOL    HW133440  12.562   1.976  12.324
43867SOL    HW233441  12.422   1.961  12.268
43868SOL     OW33442  13.652   5.637  12.686
43868SOL    HW133443  13.563   5.601  12.689
43868SOL    HW233444  13.693   5.594  12.611
43869SOL     OW33445   7.157  10.090   0.528
43869SOL    HW133446   7.070  10.124   0.507
43869SOL    HW233447   7.217  10.153   0.488
43870SOL     OW33448  10.092   0.672   0.071
43870SOL    HW133449  10.136   0.634  14.874
43870SOL    HW233450  10.058   0.755   0.040
43871SOL     OW33451   0.175   8.765  14.879
43871SOL    HW133452   0.185   8.740   0.091
43871SOL    HW233453   0.185   8.861  14.879
43872SOL     OW33454   8.058   0.448   4.000
43872SOL    HW133455   8.007   0.370   3.979
43872SOL    HW233456   8.121   0.419   4.066
43873SOL     OW33457   6.096   8.232  12.737
43873SOL    HW133458   6.114   8.275  12.653
43873SOL    HW233459   6.044   8.296  12.786
43874SOL     OW33460   9.925  11.573  11.962
43874SOL    HW133461   9.829  11.569  11.958
43874SOL    HW233462   9.946  11.560  12.054
43875SOL     OW33463   4.429   5.439   7.279
43875SOL    HW133464   4.489   5.509   7.256
43875SOL    HW233465   4.433   5.435   7.375
43876SOL     OW33466   6.359  12.835   3.224
43876SOL    HW133467   6.401  12.749   3.220
43876SOL    HW233468   6.279  12.825   3.173
43877SOL     OW33469  13.306   0.730  10.931
43877SOL    HW133470  13.374   0.788  10.965
43877SOL    HW233471  13.233   0.742  10.992
43878SOL     OW33472   0.747   1.778   8.963
43878SOL    HW133473   0.675   1.762   9.025
43878SOL    HW233474   0.727   1.721   8.888
43879SOL     OW33475   1.219  11.761   4.127
43879SOL    HW133476   1.195  11.677   4.165
43879SOL    HW233477   1.315  11.763   4.131
43880SOL     OW33478   5.469   5.815   8.634
43880SOL    HW133479   5.548   5.774   8.668
43880SOL    HW233480   5.423   5.847   8.711
43881SOL     OW33481   0.974   1.717   3.607
43881SOL    HW133482   0.965   1.802   3.650
43881SOL    HW233483   0.902   1.714   3.544
43882SOL     OW33484   4.630   0.467   2.081
43882SOL    HW133485   4.716   0.504   2.061
43882SOL    HW233486   4.614   0.492   2.173
43883SOL     OW33487   9.178   4.855   4.464
43883SOL    HW133488   9.245   4.889   4.404
43883SOL    HW233489   9.117   4.928   4.476
43884SOL     OW33490   3.337   3.423   6.916
43884SOL    HW133491   3.328   3.393   6.826
43884SOL    HW233492   3.305   3.513   6.914
43885SOL     OW33493  10.914   3.176   9.536
43885SOL    HW133494  10.930   3.215   9.450
43885SOL    HW233495  10.908   3.250   9.596
43886SOL     OW33496   2.940   0.842   1.570
43886SOL    HW133497   2.978   0.800   1.646
43886SOL    HW233498   2.988   0.805   1.495
43887SOL     OW33499   4.318  12.566   2.127
43887SOL    HW133500   4.233  12.559   2.084
43887SOL    HW233501   4.375  12.606   2.062
43888SOL     OW33502   2.388   5.384  14.139
43888SOL    HW133503   2.433   5.468  14.145
43888SOL    HW233504   2.456   5.323  14.109
43889SOL     OW33505  10.380   9.670   8.487
43889SOL    HW133506  10.293   9.636   8.464
43889SOL    HW233507  10.418   9.697   8.404
43890SOL     OW33508  12.028   1.811   6.818
43890SOL    HW133509  11.976   1.825   6.898
43890SOL    HW233510  12.063   1.897   6.797
43891SOL     OW33511   8.916   2.133   7.194
43891SOL    HW133512   8.973   2.086   7.255
43891SOL    HW233513   8.875   2.201   7.248
43892SOL     OW33514  14.361   2.626   9.496
43892SOL    HW133515  14.403   2.712   9.483
43892SOL    HW233516  14.428   2.563   9.469
43893SOL     OW33517  12.391   5.458   8.247
43893SOL    HW133518  12.413   5.463   8.340
43893SOL    HW233519  12.457   5.399   8.210
43894SOL     OW33520   2.347   3.816   5.674
43894SOL    HW133521   2.316   3.775   5.755
43894SOL    HW233522   2.426   3.767   5.651
43895SOL     OW33523  10.156  14.221   2.772
43895SOL    HW133524  10.205  14.148   2.808
43895SOL    HW233525  10.113  14.185   2.695
43896SOL     OW33526  12.922   9.691   7.908
43896SOL    HW133527  12.975   9.771   7.913
43896SOL    HW233528  12.876   9.699   7.824
43897SOL     OW33529   8.392  11.616  11.813
43897SOL    HW133530   8.335  11.563  11.757
43897SOL    HW233531   8.430  11.554  11.875
43898SOL     OW33532   1.699  13.742  10.531
43898SOL    HW133533   1.624  13.774  10.482
43898SOL    HW233534   1.696  13.647  10.522
43899SOL     OW33535   4.979  12.822   5.714
43899SOL    HW133536   4.896  12.792   5.753
43899SOL    HW233537   5.046  12.776   5.764
43900SOL     OW33538   4.401  12.264   0.300
43900SOL    HW133539   4.420  12.298   0.213
43900SOL    HW233540   4.307  12.279   0.312
43901SOL     OW33541  14.201   5.409  14.800
43901SOL    HW133542  14.110   5.383  14.809
43901SOL    HW233543  14.235   5.408   0.010
43902SOL     OW33544   8.937  13.975   9.539
43902SOL    HW133545   9.007  14.014   9.487
43902SOL    HW233546   8.942  13.882   9.518
43903SOL     OW33547   4.330  13.612   4.076
43903SOL    HW133548   4.333  13.708   4.067
43903SOL    HW233549   4.381  13.579   4.003
43904SOL     OW33550   5.423  11.423   4.255
43904SOL    HW133551   5.372  11.450   4.332
43904SOL    HW233552   5.371  11.353   4.215
43905SOL     OW33553   0.556  14.536   0.655
43905SOL    HW133554   0.613  14.533   0.578
43905SOL    HW233555   0.510  14.619   0.649
43906SOL     OW33556   5.528   4.143  14.529
43906SOL    HW133557   5.445   4.177  14.496
43906SOL    HW233558   5.521   4.048  14.522
43907SOL     OW33559   1.792  12.462   4.202
43907SOL    HW133560   1.717  12.405   4.215
43907SOL    HW233561   1.827  12.476   4.290
43908SOL     OW33562   1.637   0.230   3.636
43908SOL    HW133563   1.685   0.253   3.716
43908SOL    HW233564   1.657   0.137   3.623
43909SOL     OW33565  14.104   2.711   5.846
43909SOL    HW133566  14.024   2.688   5.892
43909SOL    HW233567  14.124   2.800   5.875
43910SOL     OW33568   4.074  14.559  14.826
43910SOL    HW133569   4.147  14.498  14.837
43910SOL    HW233570   4.043  14.576   0.035
43911SOL     OW33571   3.777   0.817  11.102
43911SOL    HW133572   3.706   0.877  11.078
43911SOL    HW233573   3.763   0.740  11.047
43912SOL     OW33574   0.050   4.485  12.631
43912SOL    HW133575   0.127   4.430  12.642
43912SOL    HW233576  14.871   4.433  12.576
43913SOL     OW33577  14.592  11.081   1.478
43913SOL    HW133578  14.686  11.089   1.464
43913SOL    HW233579  14.565  11.168   1.509
43914SOL     OW33580   6.576  11.900   4.884
43914SOL    HW133581   6.528  11.838   4.940
43914SOL    HW233582   6.632  11.949   4.944
43915SOL     OW33583   5.804  12.566  10.768
43915SOL    HW133584   5.802  12.486  10.715
43915SOL    HW233585   5.799  12.637  10.704
43916SOL     OW33586  10.947   6.788   2.273
43916SOL    HW133587  11.025   6.735   2.256
43916SOL    HW233588  10.973   6.845   2.346
43917SOL     OW33589   0.478   5.034   4.879
43917SOL    HW133590   0.542   5.089   4.925
43917SOL    HW233591   0.526   4.955   4.854
43918SOL     OW33592   4.586   3.197  13.508
43918SOL    HW133593   4.547   3.125  13.459
43918SOL    HW233594   4.639   3.243  13.443
43919SOL     OW33595  12.960   8.609   9.689
43919SOL    HW133596  12.949   8.649   9.603
43919SOL    HW233597  12.997   8.678   9.743
43920SOL     OW33598  13.806  12.048   8.165
43920SOL    HW133599  13.845  12.078   8.083
43920SOL    HW233600  13.870  11.987   8.201
43921SOL     OW33601  12.765  12.390   6.500
43921SOL    HW133602  12.745  12.400   6.407
43921SOL    HW233603  12.718  12.310   6.526
43922SOL     OW33604  12.151   8.048   8.508
43922SOL    HW133605  12.164   8.075   8.599
43922SOL    HW233606  12.185   8.121   8.456
43923SOL     OW33607   2.920  13.600   0.814
43923SOL    HW133608   2.916  13.607   0.718
43923SOL    HW233609   2.926  13.506   0.830
43924SOL     OW33610   4.635  13.839   4.748
43924SOL    HW133611   4.618  13.870   4.659
43924SOL    HW233612   4.722  13.799   4.744
43925SOL     OW33613   9.667  14.445   1.310
43925SOL    HW133614   9.619  14.519   1.274
43925SOL    HW233615   9.691  14.472   1.398
43926SOL     OW33616   1.506  12.485   0.431
43926SOL    HW133617   1.492  12.523   0.517
43926SOL    HW233618   1.422  12.498   0.385
43927SOL     OW33619   5.962   7.233   9.674
43927SOL    HW133620   5.905   7.158   9.686
43927SOL    HW233621   6.045   7.196   9.646
43928SOL     OW33622  10.443  11.669  14.353
43928SOL    HW133623  10.491  11.587  14.342
43928SOL    HW233624  10.448  11.687  14.447
43929SOL     OW33625   7.393  12.410  10.092
43929SOL    HW133626   7.357  12.435  10.177
43929SOL    HW233627   7.444  12.486  10.065
43930SOL     OW33628  10.071   8.622   3.819
43930SOL    HW133629  10.069   8.595   3.911
43930SOL    HW233630  10.108   8.710   3.820
43931SOL     OW33631   1.105   6.589  13.168
43931SOL    HW133632   1.088   6.496  13.155
43931SOL    HW233633   1.018   6.627  13.183
43932SOL     OW33634  10.130   7.010   3.216
43932SOL    HW133635  10.109   6.925   3.256
43932SOL    HW233636  10.092   7.005   3.129
43933SOL     OW33637   0.018  12.338   8.723
43933SOL    HW133638   0.051  12.348   8.634
43933SOL    HW233639  14.854  12.253   8.724
43934SOL     OW33640   7.823  12.585   7.077
43934SOL    HW133641   7.784  12.668   7.104
43934SOL    HW233642   7.847  12.598   6.985
43935SOL     OW33643  13.132  10.564   1.507
43935SOL    HW133644  13.118  10.612   1.425
43935SOL    HW233645  13.178  10.485   1.481
43936SOL     OW33646   6.055   7.980  13.600
43936SOL    HW133647   6.063   7.949  13.690
43936SOL    HW233648   6.090   7.909  13.546
43937SOL     OW33649   2.459   4.766   4.034
43937SOL    HW133650   2.470   4.751   3.941
43937SOL    HW233651   2.368   4.794   4.044
43938SOL     OW33652  14.857   3.379   3.307
43938SOL    HW133653  14.823   3.407   3.392
43938SOL    HW233654   0.046   3.442   3.287
43939SOL     OW33655   1.789   0.174  12.374
43939SOL    HW133656   1.706   0.128  12.388
43939SOL    HW233657   1.819   0.143  12.289
43940SOL     OW33658   9.080  10.812   4.231
43940SOL    HW133659   9.028  10.734   4.251
43940SOL    HW233660   9.014  10.878   4.207
43941SOL     OW33661   5.832  13.869   7.963
43941SOL    HW133662   5.774  13.827   8.027
43941SOL    HW233663   5.833  13.961   7.990
43942SOL     OW33664   9.267  10.394  12.896
43942SOL    HW133665   9.305  10.475  12.929
43942SOL    HW233666   9.218  10.421  12.818
43943SOL     OW33667  12.963   4.424   2.901
43943SOL    HW133668  12.903   4.398   2.970
43943SOL    HW233669  12.946   4.362   2.829
43944SOL     OW33670   2.777   8.466   2.419
43944SOL    HW133671   2.719   8.507   2.354
43944SOL    HW233672   2.840   8.416   2.366
43945SOL     OW33673  11.409  13.795  13.846
43945SOL    HW133674  11.329  13.846  13.832
43945SOL    HW233675  11.377  13.705  13.859
43946SOL     OW33676   9.407   8.263  12.216
43946SOL    HW133677   9.384   8.171  12.229
43946SOL    HW233678   9.329   8.312  12.243
43947SOL     OW33679   2.574   6.534   1.939
43947SOL    HW133680   2.615   6.462   1.892
43947SOL    HW233681   2.647   6.589   1.967
43948SOL     OW33682  10.837   5.184   1.024
43948SOL    HW133683  10.860   5.096   1.052
43948SOL    HW233684  10.893   5.241   1.076
43949SOL     OW33685   8.274   9.946  11.973
43949SOL    HW133686   8.231   9.944  12.059
43949SOL    HW233687   8.348  10.005  11.985
43950SOL     OW33688   4.419  10.588   6.326
43950SOL    HW133689   4.328  10.616   6.340
43950SOL    HW233690   4.464  10.668   6.297
43951SOL     OW33691  14.801   7.785   7.413
43951SOL    HW133692  14.733   7.815   7.353
43951SOL    HW233693  14.806   7.854   7.479
43952SOL     OW33694   5.231  13.606  12.894
43952SOL    HW133695   5.287  13.683  12.885
43952SOL    HW233696   5.286  13.533  12.865
43953SOL     OW33697  12.135  14.584  14.495
43953SOL    HW133698  12.208  14.609  14.551
43953SOL    HW233699  12.175  14.566  14.410
43954SOL     OW33700   8.249  14.717   6.000
43954SOL    HW133701   8.243  14.734   5.906
43954SOL    HW233702   8.178  14.655   6.018
43955SOL     OW33703   3.673  12.171  10.921
43955SOL    HW133704   3.655  12.239  10.986
43955SOL    HW233705   3.667  12.089  10.971
43956SOL     OW33706   7.464   5.041  10.017
43956SOL    HW133707   7.509   5.113   9.972
43956SOL    HW233708   7.506   5.036  10.103
43957SOL     OW33709  10.828  11.155   0.786
43957SOL    HW133710  10.889  11.082   0.798
43957SOL    HW233711  10.885  11.231   0.771
43958SOL     OW33712   9.990   1.538   4.522
43958SOL    HW133713  10.034   1.471   4.470
43958SOL    HW233714   9.896   1.520   4.511
43959SOL     OW33715   8.921   4.772   8.940
43959SOL    HW133716   8.949   4.749   8.852
43959SOL    HW233717   8.834   4.810   8.929
43960SOL     OW33718  11.376   9.646   1.133
43960SOL    HW133719  11.424   9.600   1.202
43960SOL    HW233720  11.333   9.576   1.083
43961SOL     OW33721  12.970   7.208   4.863
43961SOL    HW133722  13.035   7.278   4.860
43961SOL    HW233723  12.977   7.165   4.778
43962SOL     OW33724  13.994  12.324   4.649
43962SOL    HW133725  14.007  12.351   4.740
43962SOL    HW233726  13.942  12.394   4.610
43963SOL     OW33727   6.133  11.495  10.152
43963SOL    HW133728   6.079  11.501  10.231
43963SOL    HW233729   6.078  11.449  10.089
43964SOL     OW33730   4.226   5.678   4.227
43964SOL    HW133731   4.291   5.642   4.287
43964SOL    HW233732   4.273   5.744   4.176
43965SOL     OW33733   2.343  11.309   5.307
43965SOL    HW133734   2.405  11.335   5.375
43965SOL    HW233735   2.397  11.272   5.237
43966SOL     OW33736   0.782  11.737  14.538
43966SOL    HW133737   0.720  11.809  14.528
43966SOL    HW233738   0.815  11.721  14.450
43967SOL     OW33739   2.492   5.520  13.846
43967SOL    HW133740   2.409   5.510  13.799
43967SOL    HW233741   2.556   5.476  13.790
43968SOL     OW33742   7.666  10.445   5.660
43968SOL    HW133743   7.628  10.395   5.732
43968SOL    HW233744   7.751  10.405   5.645
43969SOL     OW33745   1.463   7.868   9.734
43969SOL    HW133746   1.483   7.960   9.718
43969SOL    HW233747   1.431   7.836   9.649
43970SOL     OW33748   3.995   9.726  14.607
43970SOL    HW133749   4.064   9.761  14.663
43970SOL    HW233750   4.041   9.691  14.530
43971SOL     OW33751   0.941  11.997   8.435
43971SOL    HW133752   0.912  12.047   8.512
43971SOL    HW233753   0.897  12.040   8.362
43972SOL     OW33754   5.892   0.342   0.224
43972SOL    HW133755   5.885   0.310   0.314
43972SOL    HW233756   5.909   0.436   0.232
43973SOL     OW33757  10.726  11.400   3.872
43973SOL    HW133758  10.655  11.446   3.828
43973SOL    HW233759  10.804  11.451   3.852
43974SOL     OW33760   3.356   3.691   7.208
43974SOL    HW133761   3.417   3.618   7.204
43974SOL    HW233762   3.327   3.692   7.299
43975SOL     OW33763  12.235   6.181   4.728
43975SOL    HW133764  12.228   6.276   4.738
43975SOL    HW233765  12.153   6.147   4.764
43976SOL     OW33766   9.959   5.156  12.413
43976SOL    HW133767   9.952   5.152  12.318
43976SOL    HW233768   9.993   5.244  12.431
43977SOL     OW33769   6.367   2.082   0.581
43977SOL    HW133770   6.420   2.031   0.644
43977SOL    HW233771   6.277   2.070   0.611
43978SOL     OW33772  14.456   7.557   1.103
43978SOL    HW133773  14.518   7.502   1.055
43978SOL    HW233774  14.510   7.609   1.163
43979SOL     OW33775   4.902   6.801  12.598
43979SOL    HW133776   4.862   6.887  12.586
43979SOL    HW233777   4.990   6.810  12.561
43980SOL     OW33778   3.439   4.903   0.137
43980SOL    HW133779   3.420   4.854   0.217
43980SOL    HW233780   3.412   4.844   0.066
43981SOL     OW33781   3.342   8.402   1.634
43981SOL    HW133782   3.365   8.490   1.604
43981SOL    HW233783   3.416   8.376   1.689
43982SOL     OW33784   1.370   5.137  12.261
43982SOL    HW133785   1.297   5.193  12.235
43982SOL    HW233786   1.445   5.172  12.212
43983SOL     OW33787   6.784   8.360   3.785
43983SOL    HW133788   6.725   8.367   3.860
43983SOL    HW233789   6.872   8.363   3.824
43984SOL     OW33790   6.402   8.798  13.436
43984SOL    HW133791   6.435   8.770  13.351
43984SOL    HW233792   6.325   8.743  13.451
43985SOL     OW33793  10.123   3.811   8.372
43985SOL    HW133794  10.079   3.836   8.453
43985SOL    HW233795  10.211   3.784   8.400
43986SOL     OW33796   7.836  11.039   5.923
43986SOL    HW133797   7.744  11.030   5.949
43986SOL    HW233798   7.868  11.112   5.976
43987SOL     OW33799   7.841   4.066   5.664
43987SOL    HW133800   7.842   4.049   5.758
43987SOL    HW233801   7.933   4.077   5.640
43988SOL     OW33802  12.920  12.728  11.600
43988SOL    HW133803  13.013  12.719  11.624
43988SOL    HW233804  12.916  12.702  11.508
43989SOL     OW33805   8.210  11.831   1.347
43989SOL    HW133806   8.159  11.884   1.286
43989SOL    HW233807   8.177  11.854   1.434
43990SOL     OW33808   1.056  10.800   4.856
43990SOL    HW133809   0.990  10.731   4.851
43990SOL    HW233810   1.021  10.871   4.802
43991SOL     OW33811   9.525   8.677   6.795
43991SOL    HW133812   9.443   8.633   6.816
43991SOL    HW233813   9.515   8.764   6.832
43992SOL     OW33814   5.260   5.197  12.490
43992SOL    HW133815   5.184   5.252  12.473
43992SOL    HW233816   5.229   5.131  12.552
43993SOL     OW33817   6.841  13.331  12.151
43993SOL    HW133818   6.796  13.254  12.186
43993SOL    HW233819   6.850  13.313  12.057
43994SOL     OW33820   5.449   5.070   2.115
43994SOL    HW133821   5.478   5.156   2.144
43994SOL    HW233822   5.371   5.088   2.062
43995SOL     OW33823  14.626   1.984   2.410
43995SOL    HW133824  14.668   1.904   2.380
43995SOL    HW233825  14.682   2.015   2.481
43996SOL     OW33826   8.472   5.834   2.518
43996SOL    HW133827   8.393   5.788   2.489
43996SOL    HW233828   8.450   5.927   2.509
43997SOL     OW33829   1.146  13.257  13.743
43997SOL    HW133830   1.105  13.298  13.667
43997SOL    HW233831   1.085  13.188  13.768
43998SOL     OW33832  14.773   2.070   9.750
43998SOL    HW133833  14.820   2.083   9.832
43998SOL    HW233834  14.713   1.997   9.768
43999SOL     OW33835   8.113  11.475   5.412
43999SOL    HW133836   8.060  11.474   5.332
43999SOL    HW233837   8.071  11.411   5.469
44000SOL     OW33838  14.750   1.992   8.940
44000SOL    HW133839  14.697   1.913   8.936
44000SOL    HW233840  14.836   1.964   8.908
44001SOL     OW33841   7.739   4.205   4.043
44001SOL    HW133842   7.720   4.123   3.996
44001SOL    HW233843   7.748   4.271   3.974
44002SOL     OW33844   4.971  13.616   5.893
44002SOL    HW133845   5.031  13.592   5.822
44002SOL    HW233846   4.900  13.664   5.850
44003SOL     OW33847   0.854   6.656  11.919
44003SOL    HW133848   0.797   6.610  11.857
44003SOL    HW233849   0.806   6.735  11.942
44004SOL     OW33850   2.051   8.355   3.879
44004SOL    HW133851   1.986   8.370   3.810
44004SOL    HW233852   2.136   8.368   3.836
44005SOL     OW33853   9.619   8.569   0.368
44005SOL    HW133854   9.585   8.657   0.357
44005SOL    HW233855   9.687   8.560   0.301
44006SOL     OW33856   8.007   1.051   4.122
44006SOL    HW133857   8.043   1.098   4.198
44006SOL    HW233858   8.060   1.080   4.048
44007SOL     OW33859   7.391   0.138   7.204
44007SOL    HW133860   7.451   0.083   7.153
44007SOL    HW233861   7.415   0.123   7.295
44008SOL     OW33862   5.257   4.313   4.367
44008SOL    HW133863   5.229   4.239   4.421
44008SOL    HW233864   5.348   4.292   4.344
44009SOL     OW33865  10.265   0.289  12.219
44009SOL    HW133866  10.176   0.323  12.212
44009SOL    HW233867  10.257   0.196  12.196
44010SOL     OW33868   6.685   2.570  11.162
44010SOL    HW133869   6.722   2.531  11.082
44010SOL    HW233870   6.592   2.548  11.158
44011SOL     OW33871   1.882  12.430  14.367
44011SOL    HW133872   1.904  12.364  14.432
44011SOL    HW233873   1.840  12.500  14.417
44012SOL     OW33874   5.109   6.745  12.112
44012SOL    HW133875   5.121   6.745  12.017
44012SOL    HW233876   5.021   6.708  12.125
44013SOL     OW33877   2.324   2.739   0.695
44013SOL    HW133878   2.418   2.731   0.712
44013SOL    HW233879   2.319   2.778   0.608
44014SOL     OW33880   7.641   0.337   3.747
44014SOL    HW133881   7.715   0.397   3.733
44014SOL    HW233882   7.592   0.376   3.819
44015SOL     OW33883   4.721  10.365  12.648
44015SOL    HW133884   4.661  10.299  12.682
44015SOL    HW233885   4.786  10.315  12.598
44016SOL     OW33886   6.769   6.958  11.042
44016SOL    HW133887   6.803   6.996  11.123
44016SOL    HW233888   6.802   6.869  11.041
44017SOL     OW33889   9.220   6.757  14.363
44017SOL    HW133890   9.161   6.742  14.289
44017SOL    HW233891   9.221   6.673  14.409
44018SOL     OW33892   8.925  14.257   7.410
44018SOL    HW133893   9.015  14.280   7.386
44018SOL    HW233894   8.881  14.341   7.422
44019SOL     OW33895  12.319  14.735   9.619
44019SOL    HW133896  12.399  14.687   9.599
44019SOL    HW233897  12.256  14.705   9.553
44020SOL     OW33898  14.176   3.385  12.307
44020SOL    HW133899  14.214   3.460  12.353
44020SOL    HW233900  14.138   3.331  12.375
44021SOL     OW33901   9.662  11.658   4.633
44021SOL    HW133902   9.695  11.632   4.719
44021SOL    HW233903   9.580  11.610   4.623
44022SOL     OW33904   8.949  10.890   8.610
44022SOL    HW133905   9.026  10.947   8.604
44022SOL    HW233906   8.891  10.920   8.541
44023SOL     OW33907  13.663   7.357  13.973
44023SOL    HW133908  13.638   7.367  14.065
44023SOL    HW233909  13.717   7.279  13.971
44024SOL     OW33910   6.928   9.337  10.255
44024SOL    HW133911   6.887   9.415  10.217
44024SOL    HW233912   6.964   9.368  10.338
44025SOL     OW33913  13.189   4.700   7.300
44025SOL    HW133914  13.102   4.694   7.337
44025SOL    HW233915  13.224   4.611   7.305
44026SOL     OW33916  12.357  14.149   7.892
44026SOL    HW133917  12.368  14.119   7.983
44026SOL    HW233918  12.266  14.177   7.887
44027SOL     OW33919   5.295   6.635   8.086
44027SOL    HW133920   5.232   6.706   8.096
44027SOL    HW233921   5.367   6.658   8.145
44028SOL     OW33922   2.930  13.775  11.501
44028SOL    HW133923   2.992  13.795  11.430
44028SOL    HW233924   2.964  13.693  11.539
44029SOL     OW33925   9.081  11.538   6.924
44029SOL    HW133926   9.000  11.519   6.972
44029SOL    HW233927   9.113  11.453   6.896
44030SOL     OW33928   7.602   9.156   2.070
44030SOL    HW133929   7.542   9.184   2.001
44030SOL    HW233930   7.671   9.107   2.024
44031SOL     OW33931  10.897  12.310  10.530
44031SOL    HW133932  10.872  12.314  10.622
44031SOL    HW233933  10.950  12.230  10.523
44032SOL     OW33934  13.891   5.868  10.824
44032SOL    HW133935  13.804   5.838  10.799
44032SOL    HW233936  13.948   5.840  10.751
44033SOL     OW33937   2.230   6.377   2.281
44033SOL    HW133938   2.274   6.304   2.237
44033SOL    HW233939   2.139   6.372   2.252
44034SOL     OW33940   4.862   0.904   3.381
44034SOL    HW133941   4.859   0.875   3.472
44034SOL    HW233942   4.832   0.994   3.383
44035SOL     OW33943   7.732  10.107   8.529
44035SOL    HW133944   7.638  10.110   8.509
44035SOL    HW233945   7.745  10.180   8.590
44036SOL     OW33946  10.113   8.693  13.440
44036SOL    HW133947  10.092   8.663  13.351
44036SOL    HW233948  10.208   8.707  13.438
44037SOL     OW33949   4.051   0.692   6.993
44037SOL    HW133950   3.959   0.702   7.018
44037SOL    HW233951   4.062   0.752   6.919
44038SOL     OW33952  10.515  10.992   8.089
44038SOL    HW133953  10.560  10.922   8.042
44038SOL    HW233954  10.482  11.050   8.020
44039SOL     OW33955  11.905  13.458   6.722
44039SOL    HW133956  11.916  13.403   6.645
44039SOL    HW233957  11.812  13.479   6.723
44040SOL     OW33958  11.856  12.531  10.094
44040SOL    HW133959  11.876  12.456  10.150
44040SOL    HW233960  11.911  12.518  10.017
44041SOL     OW33961  11.757  13.089   5.936
44041SOL    HW133962  11.777  13.021   6.000
44041SOL    HW233963  11.663  13.081   5.920
44042SOL     OW33964   9.328  10.098  11.493
44042SOL    HW133965   9.270  10.095  11.417
44042SOL    HW233966   9.275  10.136  11.563
44043SOL     OW33967   9.723   7.111   9.174
44043SOL    HW133968   9.719   7.170   9.249
44043SOL    HW233969   9.689   7.028   9.206
44044SOL     OW33970   2.668   3.894   9.046
44044SOL    HW133971   2.736   3.874   9.111
44044SOL    HW233972   2.629   3.976   9.077
44045SOL     OW33973   2.728   3.255  11.394
44045SOL    HW133974   2.813   3.242  11.354
44045SOL    HW233975   2.666   3.213  11.334
44046SOL     OW33976  11.846   1.037  12.854
44046SOL    HW133977  11.873   1.090  12.779
44046SOL    HW233978  11.769   0.990  12.823
44047SOL     OW33979  13.956   4.826   3.710
44047SOL    HW133980  14.024   4.856   3.770
44047SOL    HW233981  13.900   4.770   3.762
44048SOL     OW33982   6.832   4.130   9.514
44048SOL    HW133983   6.769   4.081   9.462
44048SOL    HW233984   6.848   4.075   9.591
44049SOL     OW33985   6.807   4.722  14.079
44049SOL    HW133986   6.803   4.659  14.150
44049SOL    HW233987   6.718   4.722  14.042
44050SOL     OW33988   4.854   3.563  10.194
44050SOL    HW133989   4.781   3.606  10.239
44050SOL    HW233990   4.932   3.599  10.235
44051SOL     OW33991  11.190  10.870  10.336
44051SOL    HW133992  11.127  10.913  10.277
44051SOL    HW233993  11.273  10.915  10.318
44052SOL     OW33994  11.165   6.679  10.143
44052SOL    HW133995  11.176   6.608  10.080
44052SOL    HW233996  11.254   6.704  10.167
44053SOL     OW33997  11.610   7.762  13.400
44053SOL    HW133998  11.578   7.832  13.343
44053SOL    HW233999  11.546   7.691  13.390
44054SOL     OW34000   6.950   0.473   0.046
44054SOL    HW134001   7.020   0.429   0.093
44054SOL    HW234002   6.870   0.431   0.078
44055SOL     OW34003   4.331  12.868   0.883
44055SOL    HW134004   4.406  12.889   0.938
44055SOL    HW234005   4.325  12.773   0.885
44056SOL     OW34006   1.831  13.468   8.463
44056SOL    HW134007   1.876  13.491   8.545
44056SOL    HW234008   1.780  13.545   8.440
44057SOL     OW34009  11.460   5.206   1.464
44057SOL    HW134010  11.479   5.284   1.516
44057SOL    HW234011  11.418   5.240   1.385
44058SOL     OW34012   6.075  11.057   4.154
44058SOL    HW134013   6.094  11.034   4.245
44058SOL    HW234014   5.985  11.091   4.156
44059SOL     OW34015  12.637   8.123   6.664
44059SOL    HW134016  12.558   8.168   6.635
44059SOL    HW234017  12.661   8.165   6.746
44060SOL     OW34018   0.304  14.427   3.825
44060SOL    HW134019   0.256  14.394   3.749
44060SOL    HW234020   0.346  14.350   3.863
44061SOL     OW34021   5.344   6.588  13.112
44061SOL    HW134022   5.393   6.561  13.035
44061SOL    HW234023   5.271   6.639  13.077
44062SOL     OW34024   9.075   2.955   9.782
44062SOL    HW134025   9.024   2.887   9.739
44062SOL    HW234026   9.165   2.923   9.780
44063SOL     OW34027   1.292   7.790   8.859
44063SOL    HW134028   1.330   7.866   8.816
44063SOL    HW234029   1.337   7.715   8.821
44064SOL     OW34030   9.538   0.697  13.726
44064SOL    HW134031   9.453   0.739  13.739
44064SOL    HW234032   9.519   0.603  13.731
44065SOL     OW34033   7.102   0.273   8.331
44065SOL    HW134034   7.125   0.182   8.312
44065SOL    HW234035   7.172   0.324   8.290
44066SOL     OW34036   2.818   7.793   2.835
44066SOL    HW134037   2.890   7.783   2.772
44066SOL    HW234038   2.741   7.760   2.788
44067SOL     OW34039  12.929   8.190   6.529
44067SOL    HW134040  12.890   8.105   6.509
44067SOL    HW234041  12.938   8.191   6.624
44068SOL     OW34042   5.919  13.571   0.689
44068SOL    HW134043   5.956  13.659   0.689
44068SOL    HW234044   5.825  13.584   0.681
44069SOL     OW34045   9.026  12.343   0.192
44069SOL    HW134046   9.047  12.415   0.251
44069SOL    HW234047   8.938  12.316   0.218
44070SOL     OW34048  14.258  13.383  10.835
44070SOL    HW134049  14.229  13.425  10.916
44070SOL    HW234050  14.316  13.313  10.863
44071SOL     OW34051   6.463   6.085   8.115
44071SOL    HW134052   6.418   6.016   8.067
44071SOL    HW234053   6.476   6.049   8.203
44072SOL     OW34054  12.476   3.759   5.833
44072SOL    HW134055  12.431   3.700   5.894
44072SOL    HW234056  12.546   3.706   5.795
44073SOL     OW34057   6.473  14.768   4.993
44073SOL    HW134058   6.555  14.785   4.948
44073SOL    HW234059   6.409  14.756   4.923
44074SOL     OW34060   0.712   0.096  14.215
44074SOL    HW134061   0.727   0.091  14.310
44074SOL    HW234062   0.798   0.081  14.176
44075SOL     OW34063   4.851   2.123   0.444
44075SOL    HW134064   4.828   2.214   0.464
44075SOL    HW234065   4.766   2.079   0.433
44076SOL     OW34066   0.708   9.987  14.396
44076SOL    HW134067   0.703   9.962  14.304
44076SOL    HW234068   0.699   9.904  14.444
44077SOL     OW34069   2.405  13.072  11.736
44077SOL    HW134070   2.360  13.151  11.704
44077SOL    HW234071   2.382  13.005  11.672
44078SOL     OW34072   4.806  12.824   3.955
44078SOL    HW134073   4.766  12.908   3.932
44078SOL    HW234074   4.895  12.846   3.981
44079SOL     OW34075   7.924  13.851   6.568
44079SOL    HW134076   7.898  13.776   6.621
44079SOL    HW234077   7.961  13.813   6.489
44080SOL     OW34078   3.565   8.033   0.398
44080SOL    HW134079   3.473   8.053   0.415
44080SOL    HW234080   3.612   8.067   0.474
44081SOL     OW34081   6.928  14.037   0.342
44081SOL    HW134082   6.861  14.105   0.333
44081SOL    HW234083   6.887  13.971   0.398
44082SOL     OW34084   7.093  12.474  12.275
44082SOL    HW134085   7.170  12.531  12.279
44082SOL    HW234086   7.022  12.531  12.245
44083SOL     OW34087   8.965  14.145   2.937
44083SOL    HW134088   9.053  14.112   2.956
44083SOL    HW234089   8.907  14.072   2.959
44084SOL     OW34090   3.536   7.824   0.047
44084SOL    HW134091   3.465   7.796  14.870
44084SOL    HW234092   3.615   7.813  14.874
44085SOL     OW34093   1.075  13.187   2.567
44085SOL    HW134094   1.025  13.123   2.515
44085SOL    HW234095   1.019  13.205   2.642
44086SOL     OW34096   2.700   4.376  14.609
44086SOL    HW134097   2.712   4.384  14.514
44086SOL    HW234098   2.640   4.447  14.632
44087SOL     OW34099   0.712   7.026   8.422
44087SOL    HW134100   0.709   6.983   8.507
44087SOL    HW234101   0.630   7.001   8.380
44088SOL     OW34102   4.601  11.345   8.827
44088SOL    HW134103   4.561  11.329   8.742
44088SOL    HW234104   4.663  11.416   8.812
44089SOL     OW34105   2.064  14.480  14.176
44089SOL    HW134106   2.113  14.562  14.169
44089SOL    HW234107   2.045  14.456  14.085
44090SOL     OW34108  12.615  10.740  13.585
44090SOL    HW134109  12.635  10.787  13.504
44090SOL    HW234110  12.680  10.772  13.647
44091SOL     OW34111   2.695   1.497   5.191
44091SOL    HW134112   2.729   1.445   5.118
44091SOL    HW234113   2.712   1.588   5.166
44092SOL     OW34114  11.614  13.847  10.508
44092SOL    HW134115  11.667  13.815  10.434
44092SOL    HW234116  11.562  13.772  10.535
44093SOL     OW34117   6.390   5.456  10.623
44093SOL    HW134118   6.350   5.491  10.702
44093SOL    HW234119   6.428   5.372  10.651
44094SOL     OW34120   5.358   3.649   1.767
44094SOL    HW134121   5.317   3.680   1.686
44094SOL    HW234122   5.368   3.728   1.820
44095SOL     OW34123  11.724   4.329  13.554
44095SOL    HW134124  11.777   4.291  13.484
44095SOL    HW234125  11.640   4.349  13.512
44096SOL     OW34126   2.848  13.755   6.885
44096SOL    HW134127   2.774  13.803   6.847
44096SOL    HW234128   2.902  13.730   6.811
44097SOL     OW34129  10.473  13.091  10.621
44097SOL    HW134130  10.407  13.093  10.690
44097SOL    HW234131  10.547  13.139  10.658
44098SOL     OW34132   5.627   3.225  11.348
44098SOL    HW134133   5.639   3.165  11.422
44098SOL    HW234134   5.702   3.208  11.292
44099SOL     OW34135   0.206   6.789  11.957
44099SOL    HW134136   0.151   6.845  12.011
44099SOL    HW234137   0.151   6.714  11.937
44100SOL     OW34138   6.340  12.902   1.592
44100SOL    HW134139   6.425  12.886   1.551
44100SOL    HW234140   6.346  12.860   1.678
44101SOL     OW34141  13.024   0.485   1.150
44101SOL    HW134142  12.961   0.555   1.137
44101SOL    HW234143  13.054   0.495   1.240
44102SOL     OW34144   2.416   2.026   1.910
44102SOL    HW134145   2.465   1.991   1.836
44102SOL    HW234146   2.328   2.043   1.875
44103SOL     OW34147   8.599  11.716   7.604
44103SOL    HW134148   8.691  11.692   7.592
44103SOL    HW234149   8.553  11.668   7.535
44104SOL     OW34150  12.163   3.893   7.497
44104SOL    HW134151  12.165   3.799   7.514
44104SOL    HW234152  12.167   3.900   7.401
44105SOL     OW34153   7.273   2.907   9.371
44105SOL    HW134154   7.271   2.826   9.421
44105SOL    HW234155   7.285   2.976   9.436
44106SOL     OW34156   1.987  11.696   9.762
44106SOL    HW134157   1.939  11.719   9.842
44106SOL    HW234158   2.035  11.616   9.785
44107SOL     OW34159   0.003  13.371   4.282
44107SOL    HW134160  14.818  13.307   4.252
44107SOL    HW234161  14.831  13.449   4.301
44108SOL     OW34162   2.486  13.988  11.283
44108SOL    HW134163   2.391  13.976  11.277
44108SOL    HW234164   2.504  13.990  11.378
44109SOL     OW34165  10.946   5.507   8.434
44109SOL    HW134166  10.884   5.577   8.411
44109SOL    HW234167  10.933   5.440   8.367
44110SOL     OW34168   9.858  14.261   6.383
44110SOL    HW134169   9.788  14.286   6.322
44110SOL    HW234170   9.884  14.173   6.355
44111SOL     OW34171   1.638   5.108  11.533
44111SOL    HW134172   1.676   5.029  11.496
44111SOL    HW234173   1.549   5.110  11.498
44112SOL     OW34174   5.254   1.098   8.419
44112SOL    HW134175   5.191   1.169   8.427
44112SOL    HW234176   5.276   1.076   8.510
44113SOL     OW34177   0.685  10.473   8.929
44113SOL    HW134178   0.733  10.400   8.967
44113SOL    HW234179   0.752  10.532   8.895
44114SOL     OW34180   5.353   3.744   5.039
44114SOL    HW134181   5.295   3.693   5.095
44114SOL    HW234182   5.421   3.682   5.011
44115SOL     OW34183   9.999   4.358  14.107
44115SOL    HW134184  10.012   4.357  14.202
44115SOL    HW234185  10.088   4.352  14.071
44116SOL     OW34186   5.859   8.755   9.552
44116SOL    HW134187   5.862   8.818   9.624
44116SOL    HW234188   5.780   8.702   9.570
44117SOL     OW34189   9.490  13.887  10.677
44117SOL    HW134190   9.583  13.896  10.698
44117SOL    HW234191   9.480  13.934  10.594
44118SOL     OW34192  12.547   2.532  13.460
44118SOL    HW134193  12.580   2.593  13.394
44118SOL    HW234194  12.618   2.527  13.524
44119SOL     OW34195  11.207  13.402   3.543
44119SOL    HW134196  11.244  13.320   3.509
44119SOL    HW234197  11.238  13.407   3.633
44120SOL     OW34198   4.018   2.350   8.603
44120SOL    HW134199   3.969   2.390   8.675
44120SOL    HW234200   3.974   2.266   8.588
44121SOL     OW34201  12.086   2.873   1.474
44121SOL    HW134202  12.131   2.801   1.428
44121SOL    HW234203  12.146   2.947   1.467
44122SOL     OW34204   7.467   7.797   2.741
44122SOL    HW134205   7.488   7.783   2.648
44122SOL    HW234206   7.540   7.759   2.789
44123SOL     OW34207   2.092   7.758   0.678
44123SOL    HW134208   2.183   7.787   0.681
44123SOL    HW234209   2.097   7.667   0.649
44124SOL     OW34210   6.668   9.596  11.967
44124SOL    HW134211   6.648   9.689  11.973
44124SOL    HW234212   6.750   9.585  12.015
44125SOL     OW34213  13.549   2.705  10.280
44125SOL    HW134214  13.550   2.730  10.372
44125SOL    HW234215  13.629   2.653  10.268
44126SOL     OW34216  11.036   0.050  14.198
44126SOL    HW134217  11.111   0.021  14.249
44126SOL    HW234218  11.075   0.102  14.127
44127SOL     OW34219  14.042  10.268   6.965
44127SOL    HW134220  14.102  10.274   7.039
44127SOL    HW234221  14.058  10.348   6.915
44128SOL     OW34222  11.153  10.428   4.993
44128SOL    HW134223  11.115  10.369   5.058
44128SOL    HW234224  11.144  10.515   5.030
44129SOL     OW34225  12.718   5.382   9.013
44129SOL    HW134226  12.760   5.396   8.928
44129SOL    HW234227  12.785   5.337   9.066
44130SOL     OW34228   9.716   3.361  12.614
44130SOL    HW134229   9.676   3.433  12.565
44130SOL    HW234230   9.642   3.306  12.639
44131SOL     OW34231  12.350   3.067  13.191
44131SOL    HW134232  12.294   3.125  13.243
44131SOL    HW234233  12.316   3.075  13.102
44132SOL     OW34234   0.951  10.434   0.778
44132SOL    HW134235   0.979  10.357   0.729
44132SOL    HW234236   1.001  10.506   0.740
44133SOL     OW34237   1.880   7.413   4.294
44133SOL    HW134238   1.871   7.318   4.301
44133SOL    HW234239   1.963   7.425   4.249
44134SOL     OW34240   7.512   6.726   9.623
44134SOL    HW134241   7.562   6.773   9.690
44134SOL    HW234242   7.439   6.686   9.671
44135SOL     OW34243   9.661  10.943   9.552
44135SOL    HW134244   9.751  10.959   9.522
44135SOL    HW234245   9.632  10.867   9.501
44136SOL     OW34246  10.030  13.001   3.999
44136SOL    HW134247  10.013  12.946   4.075
44136SOL    HW234248   9.968  12.971   3.933
44137SOL     OW34249   2.220   5.608   7.827
44137SOL    HW134250   2.150   5.649   7.878
44137SOL    HW234251   2.184   5.523   7.802
44138SOL     OW34252   0.430   7.065   5.118
44138SOL    HW134253   0.441   6.980   5.160
44138SOL    HW234254   0.451   7.128   5.187
44139SOL     OW34255  13.466   9.331   2.320
44139SOL    HW134256  13.523   9.285   2.382
44139SOL    HW234257  13.492   9.299   2.234
44140SOL     OW34258   2.855   1.775   5.382
44140SOL    HW134259   2.815   1.774   5.295
44140SOL    HW234260   2.837   1.863   5.414
44141SOL     OW34261   5.817   2.891   8.083
44141SOL    HW134262   5.864   2.893   7.999
44141SOL    HW234263   5.750   2.958   8.074
44142SOL     OW34264   5.391  11.828   1.808
44142SOL    HW134265   5.436  11.762   1.754
44142SOL    HW234266   5.298  11.816   1.788
44143SOL     OW34267   2.614   6.727  10.418
44143SOL    HW134268   2.575   6.803  10.375
44143SOL    HW234269   2.704   6.755  10.439
44144SOL     OW34270  10.889   9.329   5.791
44144SOL    HW134271  10.841   9.310   5.710
44144SOL    HW234272  10.973   9.286   5.779
44145SOL     OW34273   5.568  12.089   8.509
44145SOL    HW134274   5.613  12.105   8.592
44145SOL    HW234275   5.476  12.078   8.534
44146SOL     OW34276  14.358   3.313   6.038
44146SOL    HW134277  14.435   3.358   6.074
44146SOL    HW234278  14.344   3.356   5.953
44147SOL     OW34279  14.058   3.587   5.187
44147SOL    HW134280  14.013   3.511   5.222
44147SOL    HW234281  14.149   3.577   5.216
44148SOL     OW34282  11.716   4.591   4.578
44148SOL    HW134283  11.703   4.539   4.499
44148SOL    HW234284  11.644   4.654   4.578
44149SOL     OW34285  13.674  13.175   5.247
44149SOL    HW134286  13.649  13.131   5.165
44149SOL    HW234287  13.651  13.266   5.233
44150SOL     OW34288  13.204  14.402  11.512
44150SOL    HW134289  13.113  14.426  11.529
44150SOL    HW234290  13.231  14.461  11.442
44151SOL     OW34291   0.337   7.968  11.995
44151SOL    HW134292   0.373   7.888  12.033
44151SOL    HW234293   0.382   7.978  11.911
44152SOL     OW34294  10.001  10.787  10.406
44152SOL    HW134295   9.907  10.797  10.423
44152SOL    HW234296  10.042  10.806  10.491
44153SOL     OW34297   0.541   3.495  10.083
44153SOL    HW134298   0.504   3.541  10.158
44153SOL    HW234299   0.554   3.563  10.017
44154SOL     OW34300  11.060   0.131   8.937
44154SOL    HW134301  10.973   0.172   8.931
44154SOL    HW234302  11.103   0.176   9.010
44155SOL     OW34303  13.701   0.310  10.670
44155SOL    HW134304  13.610   0.336  10.661
44155SOL    HW234305  13.747   0.359  10.602
44156SOL     OW34306   7.895  10.809   5.798
44156SOL    HW134307   7.878  10.897   5.831
44156SOL    HW234308   7.843  10.752   5.855
44157SOL     OW34309   5.236   0.400   4.906
44157SOL    HW134310   5.268   0.309   4.913
44157SOL    HW234311   5.267   0.429   4.821
44158SOL     OW34312   1.867  12.261  11.023
44158SOL    HW134313   1.945  12.209  11.005
44158SOL    HW234314   1.807  12.241  10.951
44159SOL     OW34315   0.641   0.076   5.348
44159SOL    HW134316   0.673   0.159   5.382
44159SOL    HW234317   0.693   0.060   5.270
44160SOL     OW34318   3.109   7.072   3.048
44160SOL    HW134319   3.019   7.074   3.018
44160SOL    HW234320   3.156   7.128   2.987
44161SOL     OW34321  12.349  14.863   1.278
44161SOL    HW134322  12.308   0.000   1.193
44161SOL    HW234323  12.435  14.828   1.257
44162SOL     OW34324   3.830   1.720   8.030
44162SOL    HW134325   3.807   1.685   8.116
44162SOL    HW234326   3.924   1.733   8.034
44163SOL     OW34327   4.758  11.901   6.327
44163SOL    HW134328   4.744  11.860   6.242
44163SOL    HW234329   4.853  11.914   6.332
44164SOL     OW34330   8.366  14.221   0.323
44164SOL    HW134331   8.438  14.276   0.292
44164SOL    HW234332   8.315  14.201   0.244
44165SOL     OW34333  12.760   7.034  12.446
44165SOL    HW134334  12.798   6.952  12.415
44165SOL    HW234335  12.834   7.084  12.480
44166SOL     OW34336   4.697  11.506   4.308
44166SOL    HW134337   4.650  11.505   4.225
44166SOL    HW234338   4.702  11.599   4.331
44167SOL     OW34339   2.921   0.047   5.793
44167SOL    HW134340   2.864   0.030   5.868
44167SOL    HW234341   2.941  14.840   5.758
44168SOL     OW34342  12.021   4.859   5.707
44168SOL    HW134343  12.029   4.926   5.639
44168SOL    HW234344  12.036   4.777   5.660
44169SOL     OW34345  13.498   5.309   6.598
44169SOL    HW134346  13.451   5.250   6.539
44169SOL    HW234347  13.433   5.374   6.624
44170SOL     OW34348  10.276   9.546  13.785
44170SOL    HW134349  10.272   9.487  13.710
44170SOL    HW234350  10.193   9.533  13.831
44171SOL     OW34351   3.171  10.231   1.748
44171SOL    HW134352   3.077  10.215   1.748
44171SOL    HW234353   3.180  10.322   1.717
44172SOL     OW34354   9.024   1.173   5.915
44172SOL    HW134355   9.010   1.088   5.871
44172SOL    HW234356   9.118   1.175   5.932
44173SOL     OW34357  14.852   4.492   7.558
44173SOL    HW134358  14.871   4.566   7.501
44173SOL    HW234359  14.841   4.418   7.499
44174SOL     OW34360   3.754  13.106   9.644
44174SOL    HW134361   3.770  13.126   9.552
44174SOL    HW234362   3.766  13.011   9.651
44175SOL     OW34363   0.539   4.512   4.943
44175SOL    HW134364   0.479   4.482   5.011
44175SOL    HW234365   0.625   4.506   4.984
44176SOL     OW34366  13.852  11.293   1.375
44176SOL    HW134367  13.864  11.372   1.323
44176SOL    HW234368  13.941  11.262   1.393
44177SOL     OW34369   5.161   2.649  11.172
44177SOL    HW134370   5.187   2.737  11.146
44177SOL    HW234371   5.155   2.600  11.090
44178SOL     OW34372   1.376  13.470   0.797
44178SOL    HW134373   1.282  13.483   0.806
44178SOL    HW234374   1.406  13.444   0.885
44179SOL     OW34375  10.007   9.896  14.877
44179SOL    HW134376   9.949   9.937   0.062
44179SOL    HW234377  10.084   9.871   0.048
44180SOL     OW34378   7.600  14.764   5.429
44180SOL    HW134379   7.601  14.838   5.368
44180SOL    HW234380   7.508  14.743   5.441
44181SOL     OW34381  10.719  10.598  12.546
44181SOL    HW134382  10.812  10.593  12.522
44181SOL    HW234383  10.673  10.583  12.463
44182SOL     OW34384  10.105  10.716   4.091
44182SOL    HW134385  10.029  10.753   4.047
44182SOL    HW234386  10.072  10.683   4.174
44183SOL     OW34387  14.125  14.405  11.126
44183SOL    HW134388  14.133  14.355  11.045
44183SOL    HW234389  14.098  14.493  11.097
44184SOL     OW34390   1.884   4.777   6.518
44184SOL    HW134391   1.967   4.798   6.560
44184SOL    HW234392   1.900   4.791   6.424
44185SOL     OW34393   3.397  13.130   9.756
44185SOL    HW134394   3.394  13.034   9.752
44185SOL    HW234395   3.405  13.157   9.665
44186SOL     OW34396  14.085   5.860  14.175
44186SOL    HW134397  14.147   5.887  14.243
44186SOL    HW234398  14.080   5.765  14.183
44187SOL     OW34399  12.021   5.157   5.235
44187SOL    HW134400  12.065   5.092   5.180
44187SOL    HW234401  12.035   5.240   5.189
44188SOL     OW34402   3.751  13.832  10.966
44188SOL    HW134403   3.680  13.774  10.991
44188SOL    HW234404   3.786  13.865  11.050
44189SOL     OW34405   6.715  13.767   5.952
44189SOL    HW134406   6.809  13.757   5.936
44189SOL    HW234407   6.674  13.736   5.871
44190SOL     OW34408   2.824   2.542   2.932
44190SOL    HW134409   2.876   2.610   2.975
44190SOL    HW234410   2.869   2.527   2.849
44191SOL     OW34411   1.893   6.847   0.597
44191SOL    HW134412   1.979   6.873   0.566
44191SOL    HW234413   1.897   6.751   0.602
44192SOL     OW34414  12.563  11.629   3.404
44192SOL    HW134415  12.469  11.632   3.420
44192SOL    HW234416  12.576  11.550   3.351
44193SOL     OW34417   1.083   7.085   7.247
44193SOL    HW134418   1.159   7.047   7.202
44193SOL    HW234419   1.061   7.162   7.195
44194SOL     OW34420   1.709   3.903   0.220
44194SOL    HW134421   1.648   3.975   0.203
44194SOL    HW234422   1.689   3.874   0.309
44195SOL     OW34423   6.920   2.265   2.729
44195SOL    HW134424   6.985   2.202   2.698
44195SOL    HW234425   6.934   2.270   2.823
44196SOL     OW34426  13.426   1.054  11.081
44196SOL    HW134427  13.416   0.990  11.151
44196SOL    HW234428  13.478   1.008  11.014
44197SOL     OW34429   5.922   2.183   4.010
44197SOL    HW134430   6.001   2.220   3.971
44197SOL    HW234431   5.952   2.105   4.056
44198SOL     OW34432   3.263   3.230   8.421
44198SOL    HW134433   3.264   3.308   8.476
44198SOL    HW234434   3.172   3.202   8.420
44199SOL     OW34435  10.959   2.673   0.715
44199SOL    HW134436  10.996   2.737   0.654
44199SOL    HW234437  10.966   2.715   0.801
44200SOL     OW34438   3.029   0.572   8.368
44200SOL    HW134439   2.995   0.643   8.313
44200SOL    HW234440   2.970   0.498   8.349
44201SOL     OW34441  13.182  10.797  11.332
44201SOL    HW134442  13.147  10.775  11.246
44201SOL    HW234443  13.274  10.817  11.317
44202SOL     OW34444  14.850  13.815   1.593
44202SOL    HW134445   0.031  13.859   1.652
44202SOL    HW234446  14.846  13.871   1.516
44203SOL     OW34447  10.845   8.980   4.001
44203SOL    HW134448  10.826   8.960   4.092
44203SOL    HW234449  10.940   8.988   3.997
44204SOL     OW34450   6.683  11.270   7.097
44204SOL    HW134451   6.640  11.204   7.150
44204SOL    HW234452   6.760  11.295   7.147
44205SOL     OW34453   3.535   2.859   0.388
44205SOL    HW134454   3.586   2.783   0.360
44205SOL    HW234455   3.541   2.859   0.483
44206SOL     OW34456   7.210   0.616   3.631
44206SOL    HW134457   7.157   0.624   3.710
44206SOL    HW234458   7.281   0.556   3.656
44207SOL     OW34459   6.707  11.288   7.495
44207SOL    HW134460   6.746  11.346   7.429
44207SOL    HW234461   6.672  11.215   7.445
44208SOL     OW34462   0.905  14.186   4.713
44208SOL    HW134463   0.917  14.280   4.727
44208SOL    HW234464   0.982  14.146   4.753
44209SOL     OW34465   5.508   7.057  11.756
44209SOL    HW134466   5.545   6.970  11.744
44209SOL    HW234467   5.517   7.099  11.670
44210SOL     OW34468   3.575  12.417  11.557
44210SOL    HW134469   3.500  12.395  11.502
44210SOL    HW234470   3.628  12.476  11.503
44211SOL     OW34471   1.318   0.210  11.633
44211SOL    HW134472   1.353   0.203  11.544
44211SOL    HW234473   1.278   0.125  11.650
44212SOL     OW34474   5.502   3.600  10.064
44212SOL    HW134475   5.531   3.594  10.156
44212SOL    HW234476   5.419   3.648  10.068
44213SOL     OW34477   5.740   3.888  11.022
44213SOL    HW134478   5.672   3.942  11.062
44213SOL    HW234479   5.791   3.854  11.095
44214SOL     OW34480   5.493   2.728   8.928
44214SOL    HW134481   5.411   2.687   8.956
44214SOL    HW234482   5.558   2.697   8.991
44215SOL     OW34483  14.848   3.775  11.335
44215SOL    HW134484  14.805   3.836  11.394
44215SOL    HW234485   0.061   3.800  11.337
44216SOL     OW34486  14.260   9.145  10.323
44216SOL    HW134487  14.303   9.185  10.247
44216SOL    HW234488  14.190   9.207  10.346
44217SOL     OW34489  14.341   6.766   9.005
44217SOL    HW134490  14.405   6.791   9.072
44217SOL    HW234491  14.379   6.798   8.923
44218SOL     OW34492   1.643   2.246   9.799
44218SOL    HW134493   1.663   2.173   9.857
44218SOL    HW234494   1.659   2.324   9.852
44219SOL     OW34495   4.808   5.078  10.951
44219SOL    HW134496   4.875   5.127  10.903
44219SOL    HW234497   4.734   5.138  10.958
44220SOL     OW34498  11.451   2.825  13.162
44220SOL    HW134499  11.391   2.871  13.103
44220SOL    HW234500  11.528   2.806  13.109
44221SOL     OW34501  13.061   2.631   6.425
44221SOL    HW134502  13.099   2.694   6.486
44221SOL    HW234503  13.018   2.685   6.359
44222SOL     OW34504   7.267   9.923   6.074
44222SOL    HW134505   7.334   9.868   6.113
44222SOL    HW234506   7.203   9.937   6.145
44223SOL     OW34507  14.617   7.896   0.251
44223SOL    HW134508  14.568   7.977   0.262
44223SOL    HW234509  14.602   7.848   0.332
44224SOL     OW34510   4.416   5.051  11.020
44224SOL    HW134511   4.346   5.094  11.069
44224SOL    HW234512   4.370   4.999  10.954
44225SOL     OW34513  12.278  11.260   6.791
44225SOL    HW134514  12.365  11.279   6.757
44225SOL    HW234515  12.218  11.303   6.731
44226SOL     OW34516   8.143   1.491   5.965
44226SOL    HW134517   8.184   1.472   6.050
44226SOL    HW234518   8.068   1.546   5.986
44227SOL     OW34519  13.338   4.815  11.709
44227SOL    HW134520  13.268   4.752  11.725
44227SOL    HW234521  13.313   4.860  11.629
44228SOL     OW34522  12.576   5.587   3.045
44228SOL    HW134523  12.652   5.568   3.099
44228SOL    HW234524  12.546   5.673   3.075
44229SOL     OW34525  11.667   7.386  12.276
44229SOL    HW134526  11.763   7.386  12.278
44229SOL    HW234527  11.641   7.463  12.326
44230SOL     OW34528   8.739   3.247  11.545
44230SOL    HW134529   8.702   3.321  11.594
44230SOL    HW234530   8.834   3.262  11.547
44231SOL     OW34531   8.721   2.698  13.565
44231SOL    HW134532   8.728   2.603  13.565
44231SOL    HW234533   8.706   2.721  13.474
44232SOL     OW34534   9.715   9.518   3.283
44232SOL    HW134535   9.658   9.571   3.340
44232SOL    HW234536   9.746   9.447   3.339
44233SOL     OW34537   7.747   6.658   1.298
44233SOL    HW134538   7.816   6.603   1.333
44233SOL    HW234539   7.667   6.606   1.307
44234SOL     OW34540   8.197   8.316   2.952
44234SOL    HW134541   8.182   8.396   3.002
44234SOL    HW234542   8.232   8.253   3.015
44235SOL     OW34543   5.222   2.918   4.428
44235SOL    HW134544   5.136   2.932   4.387
44235SOL    HW234545   5.284   2.919   4.356
44236SOL     OW34546   7.669   1.989   3.306
44236SOL    HW134547   7.584   1.950   3.286
44236SOL    HW234548   7.708   2.007   3.221
44237SOL     OW34549  13.989   0.994   1.109
44237SOL    HW134550  13.990   1.056   1.181
44237SOL    HW234551  14.080   0.965   1.101
44238SOL     OW34552  13.994  13.160   0.631
44238SOL    HW134553  14.053  13.203   0.568
44238SOL    HW234554  14.024  13.069   0.634
44239SOL     OW34555  11.508   0.777   7.937
44239SOL    HW134556  11.551   0.716   7.996
44239SOL    HW234557  11.416   0.749   7.935
44240SOL     OW34558  11.960   4.694   2.428
44240SOL    HW134559  11.877   4.690   2.477
44240SOL    HW234560  12.026   4.667   2.491
44241SOL     OW34561   6.382   8.613   5.430
44241SOL    HW134562   6.435   8.655   5.362
44241SOL    HW234563   6.312   8.569   5.381
44242SOL     OW34564   9.785   9.969   6.077
44242SOL    HW134565   9.825   9.931   6.155
44242SOL    HW234566   9.690   9.960   6.092
44243SOL     OW34567   0.463   2.913   2.265
44243SOL    HW134568   0.376   2.953   2.262
44243SOL    HW234569   0.451   2.834   2.319
44244SOL     OW34570   3.217  11.661  10.702
44244SOL    HW134571   3.147  11.703  10.751
44244SOL    HW234572   3.187  11.571  10.688
44245SOL     OW34573  11.140   3.706   8.130
44245SOL    HW134574  11.061   3.728   8.081
44245SOL    HW234575  11.138   3.611   8.138
44246SOL     OW34576  12.887   5.998   4.026
44246SOL    HW134577  12.957   6.063   4.024
44246SOL    HW234578  12.809   6.046   3.996
44247SOL     OW34579  12.669   4.358   6.844
44247SOL    HW134580  12.761   4.368   6.869
44247SOL    HW234581  12.623   4.345   6.927
44248SOL     OW34582  13.527  10.560   5.468
44248SOL    HW134583  13.617  10.555   5.437
44248SOL    HW234584  13.474  10.566   5.389
44249SOL     OW34585   1.036   7.302   7.812
44249SOL    HW134586   1.019   7.317   7.719
44249SOL    HW234587   1.006   7.212   7.828
44250SOL     OW34588  12.635  10.881  13.333
44250SOL    HW134589  12.703  10.946  13.314
44250SOL    HW234590  12.553  10.930  13.326
44251SOL     OW34591  10.940  12.706   9.922
44251SOL    HW134592  10.963  12.794   9.891
44251SOL    HW234593  10.852  12.691   9.887
44252SOL     OW34594   1.439   5.685   0.031
44252SOL    HW134595   1.377   5.709  14.843
44252SOL    HW234596   1.384   5.668   0.108
44253SOL     OW34597   1.412  14.084   7.083
44253SOL    HW134598   1.409  14.144   7.158
44253SOL    HW234599   1.504  14.086   7.055
44254SOL     OW34600  14.488   9.430   0.794
44254SOL    HW134601  14.416   9.368   0.810
44254SOL    HW234602  14.496   9.479   0.876
44255SOL     OW34603  11.134   0.106  12.481
44255SOL    HW134604  11.169   0.173  12.540
44255SOL    HW234605  11.131   0.149  12.395
44256SOL     OW34606   3.685   1.390   4.756
44256SOL    HW134607   3.698   1.470   4.705
44256SOL    HW234608   3.724   1.320   4.702
44257SOL     OW34609   6.366   7.413   8.456
44257SOL    HW134610   6.450   7.425   8.411
44257SOL    HW234611   6.381   7.448   8.544
44258SOL     OW34612   6.535  10.511  11.467
44258SOL    HW134613   6.464  10.520  11.404
44258SOL    HW234614   6.532  10.591  11.519
44259SOL     OW34615  13.308   8.294   8.521
44259SOL    HW134616  13.240   8.275   8.456
44259SOL    HW234617  13.285   8.380   8.555
44260SOL     OW34618   2.082   7.687  10.393
44260SOL    HW134619   2.164   7.698  10.344
44260SOL    HW234620   2.110   7.680  10.484
44261SOL     OW34621   9.506   0.623  10.076
44261SOL    HW134622   9.537   0.539  10.041
44261SOL    HW234623   9.540   0.626  10.165
44262SOL     OW34624   7.677   3.038   2.592
44262SOL    HW134625   7.654   3.077   2.508
44262SOL    HW234626   7.603   2.980   2.613
44263SOL     OW34627   5.145   8.006  10.776
44263SOL    HW134628   5.067   7.959  10.804
44263SOL    HW234629   5.119   8.098  10.773
44264SOL     OW34630   8.224   6.870   6.883
44264SOL    HW134631   8.221   6.946   6.941
44264SOL    HW234632   8.132   6.852   6.861
44265SOL     OW34633   1.346   0.031   3.447
44265SOL    HW134634   1.303   0.078   3.375
44265SOL    HW234635   1.280  14.848   3.477
44266SOL     OW34636  11.392   3.013   7.995
44266SOL    HW134637  11.357   3.021   7.906
44266SOL    HW234638  11.438   3.095   8.011
44267SOL     OW34639   6.424   3.872   5.533
44267SOL    HW134640   6.404   3.934   5.604
44267SOL    HW234641   6.404   3.787   5.570
44268SOL     OW34642   8.457   4.624  11.081
44268SOL    HW134643   8.543   4.662  11.064
44268SOL    HW234644   8.439   4.643  11.173
44269SOL     OW34645  11.747  10.042  14.365
44269SOL    HW134646  11.701   9.960  14.382
44269SOL    HW234647  11.777  10.034  14.274
44270SOL     OW34648   3.827   6.912   3.848
44270SOL    HW134649   3.795   6.882   3.933
44270SOL    HW234650   3.748   6.927   3.796
44271SOL     OW34651  13.291  10.492   9.234
44271SOL    HW134652  13.282  10.530   9.147
44271SOL    HW234653  13.233  10.545   9.290
44272SOL     OW34654  11.805   4.832  11.622
44272SOL    HW134655  11.743   4.903  11.641
44272SOL    HW234656  11.889   4.877  11.607
44273SOL     OW34657  12.894   1.766   7.025
44273SOL    HW134658  12.979   1.787   6.987
44273SOL    HW234659  12.852   1.709   6.960
44274SOL     OW34660   5.089   7.568   0.275
44274SOL    HW134661   5.112   7.585   0.366
44274SOL    HW234662   5.086   7.472   0.269
44275SOL     OW34663  14.566   7.760   0.794
44275SOL    HW134664  14.478   7.795   0.798
44275SOL    HW234665  14.623   7.836   0.787
44276SOL     OW34666   4.832   1.990  11.320
44276SOL    HW134667   4.814   2.070  11.270
44276SOL    HW234668   4.877   2.021  11.398
44277SOL     OW34669   4.207   8.536  11.052
44277SOL    HW134670   4.153   8.550  10.974
44277SOL    HW234671   4.152   8.480  11.108
44278SOL     OW34672   4.184  12.795   6.441
44278SOL    HW134673   4.126  12.728   6.405
44278SOL    HW234674   4.268  12.781   6.396
44279SOL     OW34675   8.898   0.259   0.061
44279SOL    HW134676   8.920   0.224   0.147
44279SOL    HW234677   8.982   0.281   0.021
44280SOL     OW34678   5.340  10.995  12.642
44280SOL    HW134679   5.311  11.086  12.640
44280SOL    HW234680   5.299  10.958  12.720
44281SOL     OW34681  13.976   2.745   8.394
44281SOL    HW134682  14.054   2.787   8.427
44281SOL    HW234683  13.903   2.789   8.438
44282SOL     OW34684  11.071   9.327   8.886
44282SOL    HW134685  10.992   9.277   8.905
44282SOL    HW234686  11.069   9.341   8.792
44283SOL     OW34687   3.642   6.157  12.684
44283SOL    HW134688   3.581   6.097  12.642
44283SOL    HW234689   3.646   6.233  12.626
44284SOL     OW34690   0.577   7.268   9.811
44284SOL    HW134691   0.570   7.174   9.827
44284SOL    HW234692   0.611   7.304   9.893
44285SOL     OW34693   8.952   9.349   4.350
44285SOL    HW134694   9.044   9.326   4.340
44285SOL    HW234695   8.946   9.391   4.436
44286SOL     OW34696   8.115   6.114  10.273
44286SOL    HW134697   8.137   6.201  10.307
44286SOL    HW234698   8.020   6.108  10.283
44287SOL     OW34699   7.944   1.631  11.236
44287SOL    HW134700   8.011   1.577  11.279
44287SOL    HW234701   7.956   1.718  11.273
44288SOL     OW34702  13.113  10.654   2.402
44288SOL    HW134703  13.204  10.651   2.374
44288SOL    HW234704  13.111  10.722   2.470
44289SOL     OW34705   6.031   2.053   8.266
44289SOL    HW134706   6.073   2.056   8.352
44289SOL    HW234707   6.052   2.137   8.226
44290SOL     OW34708   8.230   0.373   1.722
44290SOL    HW134709   8.308   0.429   1.716
44290SOL    HW234710   8.252   0.295   1.671
44291SOL     OW34711   2.263   3.297   0.930
44291SOL    HW134712   2.223   3.352   0.997
44291SOL    HW234713   2.284   3.215   0.975
44292SOL     OW34714   3.778  12.433   2.657
44292SOL    HW134715   3.814  12.520   2.674
44292SOL    HW234716   3.822  12.376   2.721
44293SOL     OW34717   3.740   5.413   8.972
44293SOL    HW134718   3.646   5.431   8.965
44293SOL    HW234719   3.745   5.327   9.013
44294SOL     OW34720   2.086  12.024   2.690
44294SOL    HW134721   2.126  12.112   2.693
44294SOL    HW234722   2.031  12.026   2.612
44295SOL     OW34723   1.872   2.855  13.817
44295SOL    HW134724   1.860   2.950  13.810
44295SOL    HW234725   1.934   2.834  13.747
44296SOL     OW34726  12.408  10.172   5.714
44296SOL    HW134727  12.412  10.243   5.778
44296SOL    HW234728  12.351  10.107   5.755
44297SOL     OW34729  12.751   5.366   3.370
44297SOL    HW134730  12.829   5.313   3.385
44297SOL    HW234731  12.690   5.339   3.439
44298SOL     OW34732   5.758   3.313  10.252
44298SOL    HW134733   5.800   3.309  10.338
44298SOL    HW234734   5.695   3.384  10.259
44299SOL     OW34735  12.870   4.068  13.064
44299SOL    HW134736  12.865   4.082  12.969
44299SOL    HW234737  12.828   4.146  13.101
44300SOL     OW34738  14.233   4.634   3.592
44300SOL    HW134739  14.194   4.547   3.586
44300SOL    HW234740  14.224   4.670   3.504
44301SOL     OW34741  14.650  14.774   9.925
44301SOL    HW134742  14.714  14.802   9.860
44301SOL    HW234743  14.688  14.695   9.963
44302SOL     OW34744  11.440  11.577   3.745
44302SOL    HW134745  11.380  11.641   3.783
44302SOL    HW234746  11.526  11.603   3.777
44303SOL     OW34747  12.939   9.413   9.886
44303SOL    HW134748  12.850   9.399   9.853
44303SOL    HW234749  12.945   9.357   9.963
44304SOL     OW34750   0.857   5.260   0.583
44304SOL    HW134751   0.788   5.313   0.623
44304SOL    HW234752   0.853   5.283   0.490
44305SOL     OW34753   6.762   4.069   8.553
44305SOL    HW134754   6.668   4.081   8.565
44305SOL    HW234755   6.793   4.030   8.635
44306SOL     OW34756   1.560   5.808   5.192
44306SOL    HW134757   1.484   5.758   5.223
44306SOL    HW234758   1.597   5.846   5.272
44307SOL     OW34759   7.033  14.382  10.577
44307SOL    HW134760   7.023  14.478  10.581
44307SOL    HW234761   7.125  14.367  10.598
44308SOL     OW34762   7.351   2.465   6.904
44308SOL    HW134763   7.354   2.409   6.982
44308SOL    HW234764   7.383   2.550   6.934
44309SOL     OW34765  12.172  11.952   8.297
44309SOL    HW134766  12.217  12.030   8.264
44309SOL    HW234767  12.192  11.883   8.233
44310SOL     OW34768  14.100   5.496  10.625
44310SOL    HW134769  14.099   5.450  10.541
44310SOL    HW234770  14.098   5.427  10.691
44311SOL     OW34771   3.228   5.701   4.852
44311SOL    HW134772   3.308   5.660   4.885
44311SOL    HW234773   3.258   5.755   4.779
44312SOL     OW34774   8.181  13.118  14.826
44312SOL    HW134775   8.116  13.174  14.785
44312SOL    HW234776   8.135  13.077   0.020
44313SOL     OW34777   0.272   3.672  13.027
44313SOL    HW134778   0.251   3.581  13.049
44313SOL    HW234779   0.265   3.719  13.109
44314SOL     OW34780   3.476   0.009  11.439
44314SOL    HW134781   3.507  14.808  11.479
44314SOL    HW234782   3.493  14.878  11.346
44315SOL     OW34783   5.417   4.970   4.629
44315SOL    HW134784   5.436   5.057   4.594
44315SOL    HW234785   5.499   4.942   4.669
44316SOL     OW34786   3.094   3.651  13.767
44316SOL    HW134787   3.071   3.640  13.674
44316SOL    HW234788   3.057   3.574  13.810
44317SOL     OW34789  12.794   9.462  11.341
44317SOL    HW134790  12.750   9.545  11.325
44317SOL    HW234791  12.864   9.484  11.402
44318SOL     OW34792  12.572  10.651  14.102
44318SOL    HW134793  12.512  10.717  14.068
44318SOL    HW234794  12.601  10.686  14.187
44319SOL     OW34795   7.256   0.399   1.610
44319SOL    HW134796   7.214   0.394   1.695
44319SOL    HW234797   7.285   0.310   1.592
44320SOL     OW34798  12.569  13.264  14.642
44320SOL    HW134799  12.553  13.264  14.547
44320SOL    HW234800  12.659  13.294  14.651
44321SOL     OW34801   3.544  11.487   6.094
44321SOL    HW134802   3.527  11.486   6.188
44321SOL    HW234803   3.615  11.551   6.084
44322SOL     OW34804   0.486   4.838   8.932
44322SOL    HW134805   0.460   4.929   8.913
44322SOL    HW234806   0.550   4.846   9.003
44323SOL     OW34807   1.409  11.890  14.093
44323SOL    HW134808   1.444  11.889  14.004
44323SOL    HW234809   1.351  11.966  14.095
44324SOL     OW34810   0.397   3.380  12.186
44324SOL    HW134811   0.321   3.373  12.127
44324SOL    HW234812   0.386   3.308  12.248
44325SOL     OW34813   2.579   0.152   8.270
44325SOL    HW134814   2.583   0.196   8.185
44325SOL    HW234815   2.667   0.118   8.283
44326SOL     OW34816   8.159   4.366  11.972
44326SOL    HW134817   8.163   4.428  11.900
44326SOL    HW234818   8.213   4.292  11.943
44327SOL     OW34819   3.110   5.688   7.374
44327SOL    HW134820   3.200   5.656   7.376
44327SOL    HW234821   3.067   5.636   7.307
44328SOL     OW34822   0.788  11.925   8.146
44328SOL    HW134823   0.834  11.908   8.063
44328SOL    HW234824   0.834  12.000   8.184
44329SOL     OW34825   7.680   0.017   6.419
44329SOL    HW134826   7.745   0.038   6.352
44329SOL    HW234827   7.623  14.831   6.378
44330SOL     OW34828   0.028   5.985   1.791
44330SOL    HW134829   0.109   5.946   1.825
44330SOL    HW234830   0.058   6.051   1.728
44331SOL     OW34831   4.451   8.106  11.391
44331SOL    HW134832   4.467   8.039  11.458
44331SOL    HW234833   4.426   8.055  11.313
44332SOL     OW34834   6.958  13.795   2.380
44332SOL    HW134835   7.009  13.866   2.419
44332SOL    HW234836   6.880  13.788   2.435
44333SOL     OW34837   8.679  11.113   6.748
44333SOL    HW134838   8.718  11.130   6.834
44333SOL    HW234839   8.745  11.064   6.700
44334SOL     OW34840  11.571   0.559   8.560
44334SOL    HW134841  11.666   0.565   8.545
44334SOL    HW234842  11.534   0.556   8.472
44335SOL     OW34843  11.121  12.045   3.956
44335SOL    HW134844  11.133  12.088   3.871
44335SOL    HW234845  11.046  11.987   3.943
44336SOL     OW34846   1.995   2.646  12.994
44336SOL    HW134847   2.055   2.690  13.053
44336SOL    HW234848   2.051   2.600  12.932
44337SOL     OW34849   9.417   2.091   9.642
44337SOL    HW134850   9.437   2.015   9.588
44337SOL    HW234851   9.415   2.057   9.732
44338SOL     OW34852  11.148  11.526   2.008
44338SOL    HW134853  11.204  11.597   2.039
44338SOL    HW234854  11.062  11.566   1.996
44339SOL     OW34855   0.380  10.971   3.199
44339SOL    HW134856   0.328  10.911   3.145
44339SOL    HW234857   0.329  11.052   3.201
44340SOL     OW34858  11.688  13.727  12.475
44340SOL    HW134859  11.678  13.657  12.540
44340SOL    HW234860  11.601  13.737  12.436
44341SOL     OW34861   9.724  12.872  10.076
44341SOL    HW134862   9.789  12.902  10.141
44341SOL    HW234863   9.731  12.935  10.005
44342SOL     OW34864  11.887  11.989   4.804
44342SOL    HW134865  11.916  12.072   4.843
44342SOL    HW234866  11.803  11.971   4.847
44343SOL     OW34867   8.067   8.225   9.460
44343SOL    HW134868   8.118   8.148   9.438
44343SOL    HW234869   8.106   8.295   9.408
44344SOL     OW34870   0.676  13.453   9.308
44344SOL    HW134871   0.657  13.366   9.345
44344SOL    HW234872   0.606  13.509   9.341
44345SOL     OW34873  14.001   2.208   4.395
44345SOL    HW134874  13.933   2.176   4.454
44345SOL    HW234875  13.956   2.219   4.310
44346SOL     OW34876   9.856   2.832   7.177
44346SOL    HW134877   9.847   2.927   7.189
44346SOL    HW234878   9.776   2.795   7.213
44347SOL     OW34879   4.953   0.292   5.633
44347SOL    HW134880   4.914   0.227   5.692
44347SOL    HW234881   4.988   0.240   5.561
44348SOL     OW34882  14.757   7.676   8.398
44348SOL    HW134883  14.807   7.735   8.342
44348SOL    HW234884  14.746   7.597   8.346
44349SOL     OW34885   3.345   2.503   8.875
44349SOL    HW134886   3.299   2.509   8.792
44349SOL    HW234887   3.403   2.580   8.876
44350SOL     OW34888  10.634  12.791   1.845
44350SOL    HW134889  10.655  12.790   1.938
44350SOL    HW234890  10.553  12.841   1.839
44351SOL     OW34891  13.280   1.202   1.835
44351SOL    HW134892  13.350   1.255   1.797
44351SOL    HW234893  13.317   1.114   1.841
44352SOL     OW34894   8.638   7.412  14.716
44352SOL    HW134895   8.689   7.333  14.697
44352SOL    HW234896   8.703   7.478  14.739
44353SOL     OW34897   3.278  10.184  14.767
44353SOL    HW134898   3.251  10.242  14.697
44353SOL    HW234899   3.356  10.140  14.734
44354SOL     OW34900  13.150   6.867  13.232
44354SOL    HW134901  13.197   6.949  13.216
44354SOL    HW234902  13.058   6.889  13.218
44355SOL     OW34903   8.132   7.551   0.349
44355SOL    HW134904   8.206   7.542   0.290
44355SOL    HW234905   8.103   7.642   0.338
44356SOL     OW34906   5.494   4.097  12.961
44356SOL    HW134907   5.434   4.023  12.947
44356SOL    HW234908   5.457   4.167  12.907
44357SOL     OW34909  10.055   0.733   9.865
44357SOL    HW134910  10.029   0.806   9.922
44357SOL    HW234911  10.006   0.747   9.784
44358SOL     OW34912   6.850  11.882   2.910
44358SOL    HW134913   6.906  11.932   2.850
44358SOL    HW234914   6.794  11.829   2.852
44359SOL     OW34915   0.005   4.820   9.840
44359SOL    HW134916   0.073   4.762   9.876
44359SOL    HW234917  14.846   4.771   9.769
44360SOL     OW34918   5.021   4.754   1.663
44360SOL    HW134919   5.011   4.842   1.698
44360SOL    HW234920   4.955   4.748   1.594
44361SOL     OW34921   7.862   7.721   3.235
44361SOL    HW134922   7.909   7.695   3.314
44361SOL    HW234923   7.793   7.779   3.265
44362SOL     OW34924   6.924   2.450   4.749
44362SOL    HW134925   6.995   2.392   4.721
44362SOL    HW234926   6.915   2.513   4.677
44363SOL     OW34927  10.260   2.597   9.011
44363SOL    HW134928  10.304   2.533   9.067
44363SOL    HW234929  10.212   2.654   9.071
44364SOL     OW34930   7.027  13.868   5.311
44364SOL    HW134931   7.094  13.811   5.273
44364SOL    HW234932   7.040  13.860   5.406
44365SOL     OW34933   7.192  13.685   6.193
44365SOL    HW134934   7.220  13.772   6.221
44365SOL    HW234935   7.271  13.631   6.198
44366SOL     OW34936  11.322   2.780   0.669
44366SOL    HW134937  11.307   2.768   0.762
44366SOL    HW234938  11.417   2.770   0.659
44367SOL     OW34939   9.837   9.447   6.769
44367SOL    HW134940   9.787   9.527   6.754
44367SOL    HW234941   9.891   9.437   6.690
44368SOL     OW34942   3.086  13.553  14.814
44368SOL    HW134943   3.154  13.619  14.803
44368SOL    HW234944   3.134  13.470  14.812
44369SOL     OW34945  12.203  14.025  13.418
44369SOL    HW134946  12.150  14.098  13.451
44369SOL    HW234947  12.141  13.952  13.411
44370SOL     OW34948   3.592   3.038   3.684
44370SOL    HW134949   3.569   2.993   3.765
44370SOL    HW234950   3.676   3.000   3.659
44371SOL     OW34951   1.164  12.561   1.971
44371SOL    HW134952   1.100  12.583   1.904
44371SOL    HW234953   1.122  12.584   2.053
44372SOL     OW34954  14.130  13.838   4.490
44372SOL    HW134955  14.060  13.774   4.502
44372SOL    HW234956  14.086  13.918   4.461
44373SOL     OW34957   3.964  13.188   1.170
44373SOL    HW134958   3.947  13.258   1.107
44373SOL    HW234959   3.879  13.167   1.207
44374SOL     OW34960  10.194   4.961   2.695
44374SOL    HW134961  10.286   4.933   2.701
44374SOL    HW234962  10.150   4.913   2.764
44375SOL     OW34963  11.990  14.311  14.709
44375SOL    HW134964  11.991  14.330  14.616
44375SOL    HW234965  11.932  14.235  14.718
44376SOL     OW34966   6.600   0.712   9.799
44376SOL    HW134967   6.552   0.644   9.752
44376SOL    HW234968   6.532   0.769   9.835
44377SOL     OW34969   2.580   1.520   4.125
44377SOL    HW134970   2.672   1.517   4.149
44377SOL    HW234971   2.560   1.613   4.116
44378SOL     OW34972   7.811  13.782  14.420
44378SOL    HW134973   7.842  13.756  14.507
44378SOL    HW234974   7.891  13.798  14.370
44379SOL     OW34975   9.897  12.546   5.168
44379SOL    HW134976   9.879  12.630   5.125
44379SOL    HW234977   9.948  12.497   5.104
44380SOL     OW34978   4.571   6.002   8.388
44380SOL    HW134979   4.553   5.924   8.335
44380SOL    HW234980   4.658   5.987   8.425
44381SOL     OW34981   8.698   8.435   2.465
44381SOL    HW134982   8.622   8.418   2.409
44381SOL    HW234983   8.730   8.520   2.436
44382SOL     OW34984  11.735   7.196  12.508
44382SOL    HW134985  11.712   7.233  12.423
44382SOL    HW234986  11.727   7.101  12.495
44383SOL     OW34987  13.103  11.158   5.654
44383SOL    HW134988  13.120  11.090   5.589
44383SOL    HW234989  13.083  11.110   5.734
44384SOL     OW34990   9.456   2.010  10.645
44384SOL    HW134991   9.414   2.058  10.716
44384SOL    HW234992   9.446   1.918  10.668
44385SOL     OW34993   8.866   7.925   5.238
44385SOL    HW134994   8.881   7.843   5.284
44385SOL    HW234995   8.790   7.963   5.282
44386SOL     OW34996   5.554  12.599  12.653
44386SOL    HW134997   5.568  12.505  12.658
44386SOL    HW234998   5.534  12.616  12.560
44387SOL     OW34999  14.855   3.349   5.076
44387SOL    HW135000   0.015   3.402   5.146
44387SOL    HW235001  14.793   3.292   5.121
44388SOL     OW35002   3.048   3.275  13.015
44388SOL    HW135003   3.037   3.286  12.921
44388SOL    HW235004   3.005   3.192  13.035
44389SOL     OW35005   0.871   8.254  11.336
44389SOL    HW135006   0.841   8.225  11.250
44389SOL    HW235007   0.877   8.174  11.388
44390SOL     OW35008   1.811  11.956   3.757
44390SOL    HW135009   1.799  12.000   3.673
44390SOL    HW235010   1.727  11.966   3.802
44391SOL     OW35011  13.966   9.401  12.473
44391SOL    HW135012  14.024   9.473  12.451
44391SOL    HW235013  13.985   9.381  12.565
44392SOL     OW35014   8.299   0.425   0.897
44392SOL    HW135015   8.319   0.373   0.974
44392SOL    HW235016   8.230   0.377   0.852
44393SOL     OW35017   6.995   6.252   6.924
44393SOL    HW135018   7.081   6.277   6.890
44393SOL    HW235019   6.973   6.322   6.986
44394SOL     OW35020  12.896  13.875   1.036
44394SOL    HW135021  12.928  13.805   1.094
44394SOL    HW235022  12.884  13.950   1.093
44395SOL     OW35023   6.918   7.734   2.170
44395SOL    HW135024   6.852   7.701   2.230
44395SOL    HW235025   6.919   7.671   2.097
44396SOL     OW35026   8.519  11.710   1.795
44396SOL    HW135027   8.512  11.756   1.711
44396SOL    HW235028   8.542  11.620   1.771
44397SOL     OW35029   6.830   8.710  14.777
44397SOL    HW135030   6.810   8.802  14.789
44397SOL    HW235031   6.762   8.664  14.827
44398SOL     OW35032  13.696  12.367   6.339
44398SOL    HW135033  13.716  12.459   6.320
44398SOL    HW235034  13.738  12.319   6.268
44399SOL     OW35035   6.297  10.063   4.866
44399SOL    HW135036   6.274   9.985   4.916
44399SOL    HW235037   6.365  10.106   4.917
44400SOL     OW35038  13.448   2.998   7.947
44400SOL    HW135039  13.419   3.089   7.944
44400SOL    HW235040  13.388   2.952   7.888
44401SOL     OW35041   3.666   9.115   6.105
44401SOL    HW135042   3.627   9.053   6.043
44401SOL    HW235043   3.660   9.200   6.062
44402SOL     OW35044   0.356   0.536   7.222
44402SOL    HW135045   0.367   0.622   7.263
44402SOL    HW235046   0.397   0.545   7.136
44403SOL     OW35047   9.408  11.009   3.714
44403SOL    HW135048   9.366  11.056   3.786
44403SOL    HW235049   9.468  10.948   3.756
44404SOL     OW35050  12.738   9.126   7.429
44404SOL    HW135051  12.744   9.122   7.524
44404SOL    HW235052  12.731   9.034   7.402
44405SOL     OW35053  14.171   0.525   4.083
44405SOL    HW135054  14.232   0.502   4.013
44405SOL    HW235055  14.112   0.589   4.042
44406SOL     OW35056   6.176   0.397   2.843
44406SOL    HW135057   6.155   0.353   2.925
44406SOL    HW235058   6.225   0.475   2.869
44407SOL     OW35059   2.297   5.608  13.607
44407SOL    HW135060   2.378   5.583  13.563
44407SOL    HW235061   2.229   5.597  13.541
44408SOL     OW35062   6.787   6.918  11.997
44408SOL    HW135063   6.782   6.959  11.911
44408SOL    HW235064   6.701   6.934  12.036
44409SOL     OW35065   6.766  11.574   0.027
44409SOL    HW135066   6.822  11.520   0.083
44409SOL    HW235067   6.800  11.663   0.039
44410SOL     OW35068   4.672  13.801   8.077
44410SOL    HW135069   4.686  13.718   8.123
44410SOL    HW235070   4.745  13.806   8.014
44411SOL     OW35071   9.472   2.727   3.495
44411SOL    HW135072   9.407   2.659   3.511
44411SOL    HW235073   9.542   2.709   3.557
44412SOL     OW35074   9.624  10.442  10.173
44412SOL    HW135075   9.626  10.429  10.078
44412SOL    HW235076   9.710  10.412  10.203
44413SOL     OW35077   7.087   9.327  10.033
44413SOL    HW135078   7.027   9.368  10.096
44413SOL    HW235079   7.148   9.277  10.086
44414SOL     OW35080  10.793   7.751   3.056
44414SOL    HW135081  10.859   7.757   2.986
44414SOL    HW235082  10.827   7.805   3.127
44415SOL     OW35083   6.004   2.042  10.866
44415SOL    HW135084   5.947   2.083  10.931
44415SOL    HW235085   5.966   1.955  10.852
44416SOL     OW35086   3.842   4.781   5.754
44416SOL    HW135087   3.926   4.750   5.718
44416SOL    HW235088   3.810   4.844   5.690
44417SOL     OW35089   8.937  13.407   5.740
44417SOL    HW135090   9.015  13.421   5.793
44417SOL    HW235091   8.881  13.482   5.758
44418SOL     OW35092  14.404  11.571  14.477
44418SOL    HW135093  14.376  11.661  14.493
44418SOL    HW235094  14.323  11.520  14.486
44419SOL     OW35095   3.520  10.106   0.342
44419SOL    HW135096   3.425  10.113   0.348
44419SOL    HW235097   3.548  10.077   0.429
44420SOL     OW35098   3.213   6.993   7.571
44420SOL    HW135099   3.296   6.970   7.528
44420SOL    HW235100   3.207   7.088   7.560
44421SOL     OW35101   1.529  12.497  11.492
44421SOL    HW135102   1.435  12.495  11.476
44421SOL    HW235103   1.552  12.589  11.489
44422SOL     OW35104   1.357   0.470  10.455
44422SOL    HW135105   1.405   0.400  10.411
44422SOL    HW235106   1.271   0.432  10.475
44423SOL     OW35107   6.286   6.265   2.432
44423SOL    HW135108   6.349   6.317   2.483
44423SOL    HW235109   6.251   6.202   2.494
44424SOL     OW35110  13.163  13.001   0.632
44424SOL    HW135111  13.240  13.056   0.645
44424SOL    HW235112  13.093  13.062   0.610
44425SOL     OW35113  10.270  10.207  11.443
44425SOL    HW135114  10.183  10.248  11.447
44425SOL    HW235115  10.256  10.125  11.396
44426SOL     OW35116   9.016   5.778   4.406
44426SOL    HW135117   8.985   5.859   4.367
44426SOL    HW235118   8.964   5.709   4.365
44427SOL     OW35119   8.430   3.608   6.557
44427SOL    HW135120   8.341   3.628   6.587
44427SOL    HW235121   8.422   3.524   6.512
44428SOL     OW35122   5.449   8.875   3.316
44428SOL    HW135123   5.385   8.906   3.380
44428SOL    HW235124   5.418   8.787   3.293
44429SOL     OW35125  10.463  13.236  11.553
44429SOL    HW135126  10.389  13.296  11.541
44429SOL    HW235127  10.507  13.268  11.632
44430SOL     OW35128  14.810   9.124   9.109
44430SOL    HW135129  14.723   9.153   9.135
44430SOL    HW235130  14.844   9.196   9.056
44431SOL     OW35131   7.687  11.647   6.753
44431SOL    HW135132   7.637  11.714   6.799
44431SOL    HW235133   7.645  11.565   6.777
44432SOL     OW35134  12.666   9.072   6.532
44432SOL    HW135135  12.611   8.996   6.512
44432SOL    HW235136  12.726   9.041   6.600
44433SOL     OW35137   0.601  11.342   6.749
44433SOL    HW135138   0.694  11.363   6.748
44433SOL    HW235139   0.581  11.327   6.842
44434SOL     OW35140  12.083   5.817  10.206
44434SOL    HW135141  12.143   5.754  10.246
44434SOL    HW235142  12.084   5.796  10.113
44435SOL     OW35143   6.348   9.132  12.336
44435SOL    HW135144   6.418   9.094  12.388
44435SOL    HW235145   6.296   9.057  12.306
44436SOL     OW35146   3.038   8.783   5.347
44436SOL    HW135147   3.105   8.850   5.339
44436SOL    HW235148   3.083   8.702   5.322
44437SOL     OW35149   5.243  11.967  14.090
44437SOL    HW135150   5.301  11.946  14.164
44437SOL    HW235151   5.164  12.000  14.131
44438SOL     OW35152   7.138  12.762   8.090
44438SOL    HW135153   7.140  12.858   8.097
44438SOL    HW235154   7.221  12.740   8.047
44439SOL     OW35155   6.943   8.438   2.658
44439SOL    HW135156   6.892   8.366   2.620
44439SOL    HW235157   6.891   8.468   2.732
44440SOL     OW35158   7.514   1.851   8.795
44440SOL    HW135159   7.494   1.922   8.733
44440SOL    HW235160   7.586   1.803   8.754
44441SOL     OW35161   1.913  14.723   9.130
44441SOL    HW135162   1.818  14.731   9.129
44441SOL    HW235163   1.943  14.794   9.187
44442SOL     OW35164   6.319   1.860   9.924
44442SOL    HW135165   6.285   1.912   9.850
44442SOL    HW235166   6.406   1.897   9.941
44443SOL     OW35167   7.884   3.970   1.867
44443SOL    HW135168   7.907   4.034   1.935
44443SOL    HW235169   7.906   4.014   1.785
44444SOL     OW35170   3.077   5.290   3.667
44444SOL    HW135171   3.122   5.374   3.660
44444SOL    HW235172   3.042   5.290   3.756
44445SOL     OW35173  11.372   1.465   9.106
44445SOL    HW135174  11.353   1.413   9.184
44445SOL    HW235175  11.467   1.469   9.101
44446SOL     OW35176  10.602   4.610   3.289
44446SOL    HW135177  10.550   4.599   3.210
44446SOL    HW235178  10.576   4.538   3.346
44447SOL     OW35179   3.471   9.722   4.069
44447SOL    HW135180   3.487   9.669   3.991
44447SOL    HW235181   3.513   9.673   4.139
44448SOL     OW35182   0.002  10.998   6.807
44448SOL    HW135183  14.860  11.043   6.726
44448SOL    HW235184   0.087  11.033   6.833
44449SOL     OW35185   1.545   9.555   2.360
44449SOL    HW135186   1.471   9.614   2.351
44449SOL    HW235187   1.507   9.467   2.350
44450SOL     OW35188   7.937  14.545  12.588
44450SOL    HW135189   7.874  14.616  12.577
44450SOL    HW235190   7.928  14.493  12.508
44451SOL     OW35191   4.602   6.244   8.748
44451SOL    HW135192   4.630   6.277   8.833
44451SOL    HW235193   4.682   6.212   8.707
44452SOL     OW35194  13.264   2.348   1.533
44452SOL    HW135195  13.347   2.371   1.493
44452SOL    HW235196  13.226   2.432   1.559
44453SOL     OW35197  13.828  12.751  13.251
44453SOL    HW135198  13.769  12.772  13.324
44453SOL    HW235199  13.789  12.793  13.175
44454SOL     OW35200   7.897  10.276   6.026
44454SOL    HW135201   7.984  10.309   6.048
44454SOL    HW235202   7.862  10.245   6.109
44455SOL     OW35203   9.367   1.004   1.468
44455SOL    HW135204   9.359   0.960   1.552
44455SOL    HW235205   9.459   0.995   1.445
44456SOL     OW35206   9.861   9.915   8.579
44456SOL    HW135207   9.900   9.828   8.577
44456SOL    HW235208   9.814   9.923   8.496
44457SOL     OW35209  10.617   7.212   5.988
44457SOL    HW135210  10.597   7.301   6.017
44457SOL    HW235211  10.587   7.157   6.060
44458SOL     OW35212  12.315   7.792   6.598
44458SOL    HW135213  12.270   7.789   6.513
44458SOL    HW235214  12.266   7.731   6.653
44459SOL     OW35215   5.852   6.255   0.235
44459SOL    HW135216   5.834   6.305   0.314
44459SOL    HW235217   5.814   6.307   0.164
44460SOL     OW35218  13.708   0.272  10.248
44460SOL    HW135219  13.779   0.336  10.260
44460SOL    HW235220  13.752   0.188  10.243
44461SOL     OW35221   1.871  11.223   1.517
44461SOL    HW135222   1.893  11.295   1.576
44461SOL    HW235223   1.822  11.265   1.446
44462SOL     OW35224  13.565   0.170  12.995
44462SOL    HW135225  13.602   0.161  13.083
44462SOL    HW235226  13.543   0.263  12.988
44463SOL     OW35227   5.606  10.763  10.498
44463SOL    HW135228   5.578  10.694  10.438
44463SOL    HW235229   5.699  10.746  10.513
44464SOL     OW35230   2.329  14.327   9.934
44464SOL    HW135231   2.372  14.330   9.848
44464SOL    HW235232   2.350  14.411   9.974
44465SOL     OW35233   2.245   3.015  14.422
44465SOL    HW135234   2.259   3.015  14.517
44465SOL    HW235235   2.333   3.023  14.386
44466SOL     OW35236  12.271  10.632   1.697
44466SOL    HW135237  12.352  10.681   1.706
44466SOL    HW235238  12.299  10.541   1.685
44467SOL     OW35239   4.379   4.054  10.027
44467SOL    HW135240   4.344   3.967  10.047
44467SOL    HW235241   4.472   4.040  10.013
44468SOL     OW35242   9.235   8.284   0.405
44468SOL    HW135243   9.293   8.249   0.472
44468SOL    HW235244   9.293   8.338   0.350
44469SOL     OW35245   1.099   8.988   7.433
44469SOL    HW135246   1.066   9.073   7.460
44469SOL    HW235247   1.151   9.007   7.355
44470SOL     OW35248   9.450   6.214   9.248
44470SOL    HW135249   9.393   6.213   9.171
44470SOL    HW235250   9.477   6.123   9.258
44471SOL     OW35251   4.703   7.004   8.927
44471SOL    HW135252   4.695   6.924   8.874
44471SOL    HW235253   4.706   7.074   8.862
44472SOL     OW35254   6.455   9.116   0.469
44472SOL    HW135255   6.508   9.191   0.442
44472SOL    HW235256   6.366   9.139   0.443
44473SOL     OW35257  11.996  10.507   7.926
44473SOL    HW135258  12.086  10.533   7.905
44473SOL    HW235259  11.941  10.569   7.878
44474SOL     OW35260  12.474   8.905  11.750
44474SOL    HW135261  12.466   8.882  11.657
44474SOL    HW235262  12.566   8.927  11.761
44475SOL     OW35263   3.274   3.208   9.782
44475SOL    HW135264   3.185   3.184   9.757
44475SOL    HW235265   3.285   3.173   9.871
44476SOL     OW35266   4.055  10.189  14.861
44476SOL    HW135267   4.082  10.144  14.781
44476SOL    HW235268   3.985  10.135   0.016
44477SOL     OW35269   6.184   7.788  13.466
44477SOL    HW135270   6.267   7.758  13.504
44477SOL    HW235271   6.133   7.707  13.455
44478SOL     OW35272   6.030   7.221  11.842
44478SOL    HW135273   5.999   7.170  11.917
44478SOL    HW235274   5.979   7.188  11.768
44479SOL     OW35275  10.703   3.155  10.111
44479SOL    HW135276  10.641   3.171  10.182
44479SOL    HW235277  10.662   3.191  10.033
44480SOL     OW35278   4.081  10.586  10.711
44480SOL    HW135279   4.133  10.528  10.767
44480SOL    HW235280   4.015  10.529  10.672
44481SOL     OW35281   0.097   0.940   5.616
44481SOL    HW135282   0.042   0.876   5.571
44481SOL    HW235283   0.121   0.897   5.698
44482SOL     OW35284   5.403  11.117   7.025
44482SOL    HW135285   5.445  11.049   7.077
44482SOL    HW235286   5.384  11.074   6.941
44483SOL     OW35287   3.993  12.535   9.970
44483SOL    HW135288   3.961  12.625   9.971
44483SOL    HW235289   3.946  12.494   9.897
44484SOL     OW35290   7.946   6.965   8.448
44484SOL    HW135291   7.883   7.024   8.406
44484SOL    HW235292   7.967   7.008   8.531
44485SOL     OW35293   9.947   8.463  14.307
44485SOL    HW135294   9.988   8.385  14.269
44485SOL    HW235295   9.907   8.507  14.232
44486SOL     OW35296  10.774   7.493   5.859
44486SOL    HW135297  10.709   7.485   5.928
44486SOL    HW235298  10.830   7.416   5.868
44487SOL     OW35299   6.699   0.590   2.196
44487SOL    HW135300   6.661   0.612   2.280
44487SOL    HW235301   6.788   0.559   2.216
44488SOL     OW35302   2.194   5.420   8.490
44488SOL    HW135303   2.114   5.381   8.454
44488SOL    HW235304   2.183   5.514   8.475
44489SOL     OW35305   8.246   6.194   6.741
44489SOL    HW135306   8.168   6.139   6.731
44489SOL    HW235307   8.314   6.150   6.690
44490SOL     OW35308  13.696  10.103   3.164
44490SOL    HW135309  13.722  10.085   3.255
44490SOL    HW235310  13.635  10.032   3.142
44491SOL     OW35311   6.623   9.777  11.501
44491SOL    HW135312   6.607   9.683  11.511
44491SOL    HW235313   6.543   9.819  11.533
44492SOL     OW35314  13.284   2.590   7.982
44492SOL    HW135315  13.245   2.503   7.985
44492SOL    HW235316  13.376   2.574   7.961
44493SOL     OW35317   6.626   5.620   2.149
44493SOL    HW135318   6.584   5.558   2.089
44493SOL    HW235319   6.629   5.575   2.233
44494SOL     OW35320  13.455   5.432  14.005
44494SOL    HW135321  13.483   5.341  14.001
44494SOL    HW235322  13.484   5.461  14.092
44495SOL     OW35323   1.203  10.887   3.704
44495SOL    HW135324   1.138  10.890   3.634
44495SOL    HW235325   1.159  10.842   3.776
44496SOL     OW35326   4.043  12.973   7.895
44496SOL    HW135327   3.951  12.946   7.903
44496SOL    HW235328   4.049  13.010   7.807
44497SOL     OW35329   4.610   4.197  12.056
44497SOL    HW135330   4.589   4.235  12.141
44497SOL    HW235331   4.673   4.258  12.017
44498SOL     OW35332   7.529   5.896   7.481
44498SOL    HW135333   7.490   5.830   7.424
44498SOL    HW235334   7.624   5.883   7.472
44499SOL     OW35335   2.813   3.745   4.362
44499SOL    HW135336   2.755   3.808   4.406
44499SOL    HW235337   2.814   3.669   4.419
44500SOL     OW35338   7.652   4.394   2.156
44500SOL    HW135339   7.745   4.411   2.170
44500SOL    HW235340   7.633   4.429   2.069
44501SOL     OW35341   3.261   4.945  10.428
44501SOL    HW135342   3.303   4.872  10.383
44501SOL    HW235343   3.281   4.931  10.521
44502SOL     OW35344   6.307   6.228   5.809
44502SOL    HW135345   6.381   6.177   5.843
44502SOL    HW235346   6.317   6.222   5.714
44503SOL     OW35347   8.845  11.873   3.153
44503SOL    HW135348   8.849  11.894   3.059
44503SOL    HW235349   8.841  11.959   3.196
44504SOL     OW35350  10.696  14.728   7.359
44504SOL    HW135351  10.774  14.721   7.413
44504SOL    HW235352  10.667  14.819   7.371
44505SOL     OW35353   2.758   3.207   2.874
44505SOL    HW135354   2.691   3.267   2.906
44505SOL    HW235355   2.835   3.226   2.928
44506SOL     OW35356   0.540  11.368   8.155
44506SOL    HW135357   0.454  11.402   8.181
44506SOL    HW235358   0.583  11.346   8.237
44507SOL     OW35359  10.385   2.164  11.549
44507SOL    HW135360  10.440   2.226  11.501
44507SOL    HW235361  10.323   2.132  11.484
44508SOL     OW35362  12.523  10.215   3.496
44508SOL    HW135363  12.509  10.187   3.406
44508SOL    HW235364  12.446  10.185   3.543
44509SOL     OW35365   0.044   0.557  11.921
44509SOL    HW135366   0.063   0.564  11.827
44509SOL    HW235367  14.847   0.499  11.925
44510SOL     OW35368   0.486   1.211   3.194
44510SOL    HW135369   0.443   1.138   3.151
44510SOL    HW235370   0.516   1.176   3.278
44511SOL     OW35371  14.238  14.263   2.487
44511SOL    HW135372  14.143  14.270   2.477
44511SOL    HW235373  14.250  14.217   2.570
44512SOL     OW35374   2.931   4.221   8.925
44512SOL    HW135375   2.896   4.140   8.887
44512SOL    HW235376   2.894   4.290   8.870
44513SOL     OW35377   6.896   5.141   6.215
44513SOL    HW135378   6.982   5.115   6.181
44513SOL    HW235379   6.850   5.176   6.139
44514SOL     OW35380   5.661  10.263  13.619
44514SOL    HW135381   5.575  10.284  13.653
44514SOL    HW235382   5.721  10.287  13.690
44515SOL     OW35383   9.670  12.244  12.163
44515SOL    HW135384   9.708  12.304  12.099
44515SOL    HW235385   9.740  12.181  12.181
44516SOL     OW35386  11.998  11.112   7.176
44516SOL    HW135387  12.074  11.068   7.136
44516SOL    HW235388  11.974  11.055   7.250
44517SOL     OW35389  10.914   2.430   2.265
44517SOL    HW135390  10.914   2.520   2.234
44517SOL    HW235391  10.829   2.395   2.237
44518SOL     OW35392   9.658   7.046  11.004
44518SOL    HW135393   9.747   7.027  10.973
44518SOL    HW235394   9.663   7.134  11.040
44519SOL     OW35395   6.493  14.459  11.083
44519SOL    HW135396   6.409  14.463  11.129
44519SOL    HW235397   6.475  14.491  10.995
44520SOL     OW35398   3.786   0.612   3.689
44520SOL    HW135399   3.845   0.609   3.613
44520SOL    HW235400   3.844   0.626   3.763
44521SOL     OW35401   8.632  12.329   3.845
44521SOL    HW135402   8.680  12.249   3.867
44521SOL    HW235403   8.696  12.399   3.859
44522SOL     OW35404   0.302   2.443  13.285
44522SOL    HW135405   0.335   2.532  13.275
44522SOL    HW235406   0.209   2.448  13.260
44523SOL     OW35407   5.670   6.898   9.922
44523SOL    HW135408   5.720   6.914  10.002
44523SOL    HW235409   5.682   6.805   9.904
44524SOL     OW35410  12.170   1.437   2.632
44524SOL    HW135411  12.222   1.359   2.610
44524SOL    HW235412  12.079   1.409   2.618
44525SOL     OW35413   5.020   8.386   8.151
44525SOL    HW135414   5.016   8.443   8.228
44525SOL    HW235415   5.091   8.422   8.098
44526SOL     OW35416  13.553   6.053   5.053
44526SOL    HW135417  13.582   6.134   5.011
44526SOL    HW235418  13.461   6.068   5.075
44527SOL     OW35419  10.819   1.705  12.380
44527SOL    HW135420  10.753   1.691  12.312
44527SOL    HW235421  10.789   1.651  12.453
44528SOL     OW35422  13.468   1.751   9.857
44528SOL    HW135423  13.406   1.808   9.813
44528SOL    HW235424  13.551   1.798   9.853
44529SOL     OW35425  13.318   6.936   0.174
44529SOL    HW135426  13.356   7.021   0.199
44529SOL    HW235427  13.370   6.872   0.221
44530SOL     OW35428   2.709   1.795  13.490
44530SOL    HW135429   2.710   1.847  13.571
44530SOL    HW235430   2.780   1.731  13.502
44531SOL     OW35431   3.768   6.312   0.213
44531SOL    HW135432   3.860   6.327   0.237
44531SOL    HW235433   3.729   6.273   0.292
44532SOL     OW35434   6.753  11.456  12.853
44532SOL    HW135435   6.711  11.542  12.851
44532SOL    HW235436   6.681  11.393  12.849
44533SOL     OW35437   3.048   6.672   2.392
44533SOL    HW135438   2.967   6.665   2.442
44533SOL    HW235439   3.113   6.623   2.443
44534SOL     OW35440   8.840   6.199   7.145
44534SOL    HW135441   8.935   6.188   7.143
44534SOL    HW235442   8.806   6.110   7.154
44535SOL     OW35443  13.749   6.450   6.666
44535SOL    HW135444  13.703   6.369   6.644
44535SOL    HW235445  13.841   6.430   6.654
44536SOL     OW35446   4.191   1.917   9.015
44536SOL    HW135447   4.257   1.985   9.032
44536SOL    HW235448   4.238   1.848   8.969
44537SOL     OW35449   2.563   2.965  13.194
44537SOL    HW135450   2.587   2.974  13.102
44537SOL    HW235451   2.569   2.871  13.213
44538SOL     OW35452   7.791  12.622   4.694
44538SOL    HW135453   7.730  12.652   4.626
44538SOL    HW235454   7.735  12.591   4.765
44539SOL     OW35455   7.515   5.995  11.332
44539SOL    HW135456   7.472   6.062  11.278
44539SOL    HW235457   7.602   5.987  11.294
44540SOL     OW35458   5.755  11.064   5.842
44540SOL    HW135459   5.823  11.038   5.904
44540SOL    HW235460   5.798  11.062   5.757
44541SOL     OW35461   3.916  12.746  14.211
44541SOL    HW135462   3.909  12.756  14.116
44541SOL    HW235463   3.911  12.836  14.244
44542SOL     OW35464   3.180   3.125   8.910
44542SOL    HW135465   3.195   3.212   8.873
44542SOL    HW235466   3.207   3.134   9.002
44543SOL     OW35467  10.014   4.067   3.397
44543SOL    HW135468  10.090   4.026   3.355
44543SOL    HW235469   9.942   4.006   3.380
44544SOL     OW35470  13.866   9.326   9.848
44544SOL    HW135471  13.882   9.232   9.841
44544SOL    HW235472  13.783   9.332   9.896
44545SOL     OW35473   1.962   0.248  10.910
44545SOL    HW135474   2.015   0.327  10.915
44545SOL    HW235475   2.010   0.190  10.851
44546SOL     OW35476  10.243  12.241   5.672
44546SOL    HW135477  10.317  12.209   5.620
44546SOL    HW235478  10.169  12.240   5.612
44547SOL     OW35479  12.193   5.113  11.474
44547SOL    HW135480  12.280   5.124  11.513
44547SOL    HW235481  12.160   5.203  11.463
44548SOL     OW35482   4.779   7.353   9.390
44548SOL    HW135483   4.779   7.282   9.326
44548SOL    HW235484   4.688   7.359   9.418
44549SOL     OW35485   1.724  11.619   3.305
44549SOL    HW135486   1.705  11.660   3.220
44549SOL    HW235487   1.742  11.527   3.283
44550SOL     OW35488   9.577  13.544  14.777
44550SOL    HW135489   9.493  13.586  14.799
44550SOL    HW235490   9.565  13.453  14.804
44551SOL     OW35491   4.536   6.795   4.601
44551SOL    HW135492   4.506   6.706   4.586
44551SOL    HW235493   4.631   6.792   4.583
44552SOL     OW35494   8.142  11.485   2.071
44552SOL    HW135495   8.099  11.550   2.016
44552SOL    HW235496   8.134  11.403   2.021
44553SOL     OW35497  11.150  14.766   9.172
44553SOL    HW135498  11.072  14.746   9.121
44553SOL    HW235499  11.117  14.776   9.262
44554SOL     OW35500  13.938   7.408   5.520
44554SOL    HW135501  13.888   7.327   5.517
44554SOL    HW235502  14.002   7.400   5.449
44555SOL     OW35503   3.854  14.006   9.348
44555SOL    HW135504   3.893  14.025   9.263
44555SOL    HW235505   3.760  14.016   9.334
44556SOL     OW35506  13.740  14.186  14.265
44556SOL    HW135507  13.744  14.278  14.241
44556SOL    HW235508  13.796  14.142  14.200
44557SOL     OW35509   2.662   9.152  13.173
44557SOL    HW135510   2.668   9.090  13.246
44557SOL    HW235511   2.654   9.238  13.215
44558SOL     OW35512  13.100   0.909  13.030
44558SOL    HW135513  13.137   0.828  12.995
44558SOL    HW235514  13.053   0.882  13.109
44559SOL     OW35515   3.648   9.588  13.032
44559SOL    HW135516   3.582   9.603  12.963
44559SOL    HW235517   3.613   9.633  13.109
44560SOL     OW35518   0.476  13.613  10.777
44560SOL    HW135519   0.569  13.603  10.757
44560SOL    HW235520   0.468  13.703  10.808
44561SOL     OW35521   2.505   4.085   8.746
44561SOL    HW135522   2.499   4.003   8.795
44561SOL    HW235523   2.440   4.077   8.676
44562SOL     OW35524   3.666  13.616  10.222
44562SOL    HW135525   3.734  13.621  10.156
44562SOL    HW235526   3.604  13.551  10.188
44563SOL     OW35527   5.557   5.418   9.900
44563SOL    HW135528   5.603   5.485   9.849
44563SOL    HW235529   5.597   5.422   9.987
44564SOL     OW35530   5.180  12.085  10.537
44564SOL    HW135531   5.241  12.062  10.607
44564SOL    HW235532   5.176  12.181  10.539
44565SOL     OW35533   8.652   5.577  13.750
44565SOL    HW135534   8.611   5.644  13.696
44565SOL    HW235535   8.608   5.496  13.725
44566SOL     OW35536   0.726   0.332   5.437
44566SOL    HW135537   0.647   0.365   5.395
44566SOL    HW235538   0.729   0.378   5.521
44567SOL     OW35539   6.828   7.681   9.718
44567SOL    HW135540   6.761   7.614   9.704
44567SOL    HW235541   6.785   7.763   9.692
44568SOL     OW35542   2.420   0.892   0.055
44568SOL    HW135543   2.326   0.906   0.068
44568SOL    HW235544   2.446   0.835   0.127
44569SOL     OW35545   5.434  14.436  11.484
44569SOL    HW135546   5.479  14.485  11.415
44569SOL    HW235547   5.476  14.350  11.483
44570SOL     OW35548   5.657  11.839  12.536
44570SOL    HW135549   5.681  11.753  12.571
44570SOL    HW235550   5.724  11.898  12.571
44571SOL     OW35551   2.479   6.731   7.743
44571SOL    HW135552   2.475   6.826   7.755
44571SOL    HW235553   2.428   6.696   7.817
44572SOL     OW35554   3.141   6.447   3.414
44572SOL    HW135555   3.226   6.416   3.443
44572SOL    HW235556   3.154   6.473   3.323
44573SOL     OW35557   9.778  14.632  14.052
44573SOL    HW135558   9.698  14.605  14.008
44573SOL    HW235559   9.757  14.717  14.090
44574SOL     OW35560  10.650  14.665   4.773
44574SOL    HW135561  10.586  14.721   4.729
44574SOL    HW235562  10.678  14.716   4.849
44575SOL     OW35563  10.772  11.994   5.079
44575SOL    HW135564  10.755  11.900   5.088
44575SOL    HW235565  10.867  12.000   5.069
44576SOL     OW35566   3.274   4.048   9.832
44576SOL    HW135567   3.341   4.116   9.818
44576SOL    HW235568   3.193   4.098   9.846
44577SOL     OW35569   2.320  14.414   3.964
44577SOL    HW135570   2.263  14.338   3.953
44577SOL    HW235571   2.391  14.383   4.020
44578SOL     OW35572   9.401   6.210  10.687
44578SOL    HW135573   9.475   6.154  10.665
44578SOL    HW235574   9.324   6.157  10.667
44579SOL     OW35575  13.776   1.778   8.662
44579SOL    HW135576  13.866   1.779   8.697
44579SOL    HW235577  13.785   1.740   8.575
44580SOL     OW35578   6.703   0.958   0.249
44580SOL    HW135579   6.770   1.010   0.292
44580SOL    HW235580   6.621   0.983   0.291
44581SOL     OW35581   4.915   0.621  12.270
44581SOL    HW135582   4.911   0.547  12.210
44581SOL    HW235583   4.992   0.604  12.324
44582SOL     OW35584   9.086   3.129  14.750
44582SOL    HW135585   9.150   3.079  14.700
44582SOL    HW235586   9.023   3.160  14.685
44583SOL     OW35587   8.812   4.006   3.135
44583SOL    HW135588   8.864   3.926   3.141
44583SOL    HW235589   8.865   4.071   3.182
44584SOL     OW35590   6.727   3.475  14.226
44584SOL    HW135591   6.746   3.473  14.319
44584SOL    HW235592   6.676   3.555  14.214
44585SOL     OW35593   6.875   1.931   6.934
44585SOL    HW135594   6.930   1.892   6.867
44585SOL    HW235595   6.795   1.957   6.888
44586SOL     OW35596  14.385   2.402  11.477
44586SOL    HW135597  14.449   2.411  11.547
44586SOL    HW235598  14.420   2.333  11.421
44587SOL     OW35599   3.844  11.577   1.458
44587SOL    HW135600   3.836  11.533   1.374
44587SOL    HW235601   3.927  11.545   1.494
44588SOL     OW35602  14.480  11.611   6.766
44588SOL    HW135603  14.502  11.699   6.736
44588SOL    HW235604  14.530  11.600   6.847
44589SOL     OW35605  10.681  13.491   1.567
44589SOL    HW135606  10.619  13.558   1.538
44589SOL    HW235607  10.741  13.537   1.625
44590SOL     OW35608   2.782  10.666  14.330
44590SOL    HW135609   2.781  10.755  14.366
44590SOL    HW235610   2.691  10.649  14.306
44591SOL     OW35611   1.359   8.961   5.737
44591SOL    HW135612   1.411   8.881   5.733
44591SOL    HW235613   1.314   8.956   5.822
44592SOL     OW35614  12.286   6.019  12.292
44592SOL    HW135615  12.253   5.953  12.231
44592SOL    HW235616  12.371   5.985  12.321
44593SOL     OW35617   9.655  12.156   8.672
44593SOL    HW135618   9.747  12.184   8.673
44593SOL    HW235619   9.649  12.094   8.600
44594SOL     OW35620   0.112   3.076   6.004
44594SOL    HW135621   0.150   3.005   5.953
44594SOL    HW235622   0.131   3.155   5.953
44595SOL     OW35623  12.868   1.520  12.329
44595SOL    HW135624  12.861   1.449  12.393
44595SOL    HW235625  12.949   1.565  12.351
44596SOL     OW35626   4.496   9.271   4.247
44596SOL    HW135627   4.494   9.366   4.235
44596SOL    HW235628   4.586   9.252   4.274
44597SOL     OW35629  13.887  11.134   9.672
44597SOL    HW135630  13.830  11.100   9.603
44597SOL    HW235631  13.966  11.164   9.626
44598SOL     OW35632  11.605   4.884   1.779
44598SOL    HW135633  11.523   4.839   1.758
44598SOL    HW235634  11.609   4.957   1.717
44599SOL     OW35635   9.492  11.984   5.583
44599SOL    HW135636   9.491  11.941   5.668
44599SOL    HW235637   9.436  11.929   5.528
44600SOL     OW35638   4.778  10.011   8.790
44600SOL    HW135639   4.756   9.927   8.750
44600SOL    HW235640   4.752  10.001   8.882
44601SOL     OW35641   9.712   2.263   7.739
44601SOL    HW135642   9.807   2.251   7.737
44601SOL    HW235643   9.693   2.318   7.662
44602SOL     OW35644  13.936  11.448  13.028
44602SOL    HW135645  13.979  11.470  13.110
44602SOL    HW235646  14.007  11.420  12.970
44603SOL     OW35647  12.369   4.631   5.847
44603SOL    HW135648  12.392   4.723   5.847
44603SOL    HW235649  12.360   4.608   5.755
44604SOL     OW35650   7.134  13.557   0.795
44604SOL    HW135651   7.111  13.472   0.756
44604SOL    HW235652   7.215  13.582   0.750
44605SOL     OW35653   4.102  13.319  12.038
44605SOL    HW135654   4.082  13.338  12.129
44605SOL    HW235655   4.195  13.298  12.037
44606SOL     OW35656   4.201   4.756  13.842
44606SOL    HW135657   4.240   4.778  13.927
44606SOL    HW235658   4.130   4.820  13.831
44607SOL     OW35659   8.126   5.205   9.652
44607SOL    HW135660   8.210   5.251   9.652
44607SOL    HW235661   8.110   5.185   9.560
44608SOL     OW35662   9.689   8.716  13.156
44608SOL    HW135663   9.598   8.687  13.164
44608SOL    HW235664   9.713   8.743  13.245
44609SOL     OW35665   6.893  10.957   3.291
44609SOL    HW135666   6.909  10.916   3.376
44609SOL    HW235667   6.834  11.030   3.309
44610SOL     OW35668   6.399   2.925   3.966
44610SOL    HW135669   6.335   2.885   4.025
44610SOL    HW235670   6.400   3.018   3.991
44611SOL     OW35671   7.656   9.871   8.688
44611SOL    HW135672   7.730   9.894   8.632
44611SOL    HW235673   7.690   9.881   8.777
44612SOL     OW35674   7.986  10.164   3.101
44612SOL    HW135675   7.957  10.136   3.014
44612SOL    HW235676   7.905  10.182   3.148
44613SOL     OW35677   9.318   6.353  11.843
44613SOL    HW135678   9.358   6.276  11.884
44613SOL    HW235679   9.226   6.350  11.870
44614SOL     OW35680   7.277  13.897   6.644
44614SOL    HW135681   7.233  13.821   6.680
44614SOL    HW235682   7.210  13.965   6.643
44615SOL     OW35683   4.199  11.029   9.639
44615SOL    HW135684   4.224  10.937   9.641
44615SOL    HW235685   4.250  11.067   9.568
44616SOL     OW35686   5.762  13.965   2.680
44616SOL    HW135687   5.756  13.949   2.774
44616SOL    HW235688   5.703  14.038   2.664
44617SOL     OW35689  13.198  10.261  14.757
44617SOL    HW135690  13.136  10.322  14.716
44617SOL    HW235691  13.152  10.177  14.758
44618SOL     OW35692   1.695   8.564   9.220
44618SOL    HW135693   1.660   8.635   9.273
44618SOL    HW235694   1.789   8.585   9.211
44619SOL     OW35695   0.937  12.687   7.745
44619SOL    HW135696   0.943  12.755   7.811
44619SOL    HW235697   1.020  12.693   7.696
44620SOL     OW35698  14.373   1.637   8.703
44620SOL    HW135699  14.382   1.715   8.647
44620SOL    HW235700  14.358   1.566   8.641
44621SOL     OW35701  10.172   4.946   1.747
44621SOL    HW135702  10.128   4.874   1.793
44621SOL    HW235703  10.178   4.915   1.657
44622SOL     OW35704   8.710   8.425   3.266
44622SOL    HW135705   8.650   8.481   3.315
44622SOL    HW235706   8.775   8.399   3.331
44623SOL     OW35707   0.680   3.284  11.958
44623SOL    HW135708   0.666   3.340  12.034
44623SOL    HW235709   0.610   3.219  11.963
44624SOL     OW35710  12.762   4.246  12.628
44624SOL    HW135711  12.702   4.319  12.640
44624SOL    HW235712  12.822   4.276  12.559
44625SOL     OW35713   6.817   6.291  12.729
44625SOL    HW135714   6.912   6.299  12.725
44625SOL    HW235715   6.802   6.215  12.786
44626SOL     OW35716  10.441   8.439   8.375
44626SOL    HW135717  10.514   8.378   8.375
44626SOL    HW235718  10.449   8.487   8.458
44627SOL     OW35719   4.363   9.646  11.221
44627SOL    HW135720   4.304   9.656  11.146
44627SOL    HW235721   4.395   9.556  11.215
44628SOL     OW35722   6.904   6.056   6.547
44628SOL    HW135723   6.861   6.058   6.632
44628SOL    HW235724   6.836   6.026   6.487
44629SOL     OW35725   7.481   9.121   3.628
44629SOL    HW135726   7.433   9.186   3.576
44629SOL    HW235727   7.474   9.153   3.718
44630SOL     OW35728  11.097  12.836  10.405
44630SOL    HW135729  11.153  12.770  10.447
44630SOL    HW235730  11.010  12.819  10.439
44631SOL     OW35731   8.675   3.316   0.048
44631SOL    HW135732   8.668   3.224   0.022
44631SOL    HW235733   8.642   3.365  14.852
44632SOL     OW35734   3.807  12.965   0.584
44632SOL    HW135735   3.762  12.937   0.505
44632SOL    HW235736   3.899  12.945   0.569
44633SOL     OW35737   5.965  10.507  11.866
44633SOL    HW135738   5.901  10.537  11.932
44633SOL    HW235739   5.917  10.444  11.814
44634SOL     OW35740  10.924  10.364   9.318
44634SOL    HW135741  10.972  10.285   9.343
44634SOL    HW235742  10.912  10.356   9.223
44635SOL     OW35743   9.697  14.398   4.389
44635SOL    HW135744   9.744  14.405   4.306
44635SOL    HW235745   9.634  14.327   4.376
44636SOL     OW35746   3.297   4.398   9.977
44636SOL    HW135747   3.214   4.353   9.958
44636SOL    HW235748   3.364   4.337   9.949
44637SOL     OW35749   9.764   4.682   7.336
44637SOL    HW135750   9.743   4.609   7.394
44637SOL    HW235751   9.682   4.731   7.328
44638SOL     OW35752   9.898   3.614   9.594
44638SOL    HW135753   9.848   3.665   9.530
44638SOL    HW235754   9.888   3.524   9.565
44639SOL     OW35755  12.403   0.126   9.575
44639SOL    HW135756  12.386   0.035   9.549
44639SOL    HW235757  12.398   0.125   9.671
44640SOL     OW35758   8.470   7.035   8.231
44640SOL    HW135759   8.551   7.008   8.188
44640SOL    HW235760   8.445   7.116   8.188
44641SOL     OW35761   2.907   1.964   2.227
44641SOL    HW135762   2.926   2.054   2.251
44641SOL    HW235763   2.939   1.956   2.137
44642SOL     OW35764  14.092  13.266   3.914
44642SOL    HW135765  14.088  13.360   3.934
44642SOL    HW235766  14.046  13.258   3.830
44643SOL     OW35767   4.937   7.732   7.792
44643SOL    HW135768   4.938   7.804   7.856
44643SOL    HW235769   4.915   7.775   7.709
44644SOL     OW35770   3.113   0.207   5.706
44644SOL    HW135771   3.068   0.269   5.648
44644SOL    HW235772   3.046   0.143   5.728
44645SOL     OW35773   1.104   2.543   2.581
44645SOL    HW135774   1.187   2.540   2.534
44645SOL    HW235775   1.126   2.514   2.670
44646SOL     OW35776  10.266   6.648  11.420
44646SOL    HW135777  10.229   6.627  11.334
44646SOL    HW235778  10.214   6.596  11.482
44647SOL     OW35779   4.626  14.106   7.556
44647SOL    HW135780   4.598  14.147   7.474
44647SOL    HW235781   4.547  14.067   7.592
44648SOL     OW35782   6.865   9.184   4.443
44648SOL    HW135783   6.916   9.222   4.372
44648SOL    HW235784   6.774   9.204   4.421
44649SOL     OW35785  11.237   4.599   2.195
44649SOL    HW135786  11.246   4.694   2.191
44649SOL    HW235787  11.273   4.568   2.111
44650SOL     OW35788   1.505   0.302   5.646
44650SOL    HW135789   1.530   0.235   5.710
44650SOL    HW235790   1.428   0.267   5.603
44651SOL     OW35791  12.376   6.035   8.048
44651SOL    HW135792  12.432   6.111   8.065
44651SOL    HW235793  12.288   6.072   8.040
44652SOL     OW35794   3.783  13.095  12.906
44652SOL    HW135795   3.769  13.160  12.975
44652SOL    HW235796   3.698  13.052  12.895
44653SOL     OW35797   0.919  14.325   0.728
44653SOL    HW135798   0.960  14.394   0.676
44653SOL    HW235799   0.906  14.254   0.666
44654SOL     OW35800   7.760   5.147   4.058
44654SOL    HW135801   7.687   5.205   4.041
44654SOL    HW235802   7.833   5.205   4.078
44655SOL     OW35803   7.595   6.346   7.740
44655SOL    HW135804   7.637   6.288   7.677
44655SOL    HW235805   7.574   6.290   7.815
44656SOL     OW35806  11.126   6.181  10.901
44656SOL    HW135807  11.212   6.148  10.923
44656SOL    HW235808  11.136   6.276  10.899
44657SOL     OW35809   3.004   2.176   5.092
44657SOL    HW135810   3.046   2.231   5.026
44657SOL    HW235811   3.066   2.104   5.106
44658SOL     OW35812  13.431   0.438  10.662
44658SOL    HW135813  13.386   0.522  10.672
44658SOL    HW235814  13.382   0.392  10.594
44659SOL     OW35815   3.005   8.578  14.174
44659SOL    HW135816   3.079   8.621  14.131
44659SOL    HW235817   2.967   8.646  14.229
44660SOL     OW35818   5.625   6.549   9.961
44660SOL    HW135819   5.557   6.526  10.025
44660SOL    HW235820   5.576   6.574   9.882
44661SOL     OW35821   2.613   6.555   2.987
44661SOL    HW135822   2.627   6.580   3.079
44661SOL    HW235823   2.606   6.639   2.941
44662SOL     OW35824  10.336  14.355   6.888
44662SOL    HW135825  10.357  14.272   6.844
44662SOL    HW235826  10.313  14.415   6.817
44663SOL     OW35827   4.620   3.218  11.659
44663SOL    HW135828   4.571   3.230  11.577
44663SOL    HW235829   4.613   3.302  11.704
44664SOL     OW35830  10.008  11.637  14.331
44664SOL    HW135831   9.942  11.627  14.263
44664SOL    HW235832  10.081  11.583  14.301
44665SOL     OW35833  13.762   4.810   9.280
44665SOL    HW135834  13.668   4.793   9.269
44665SOL    HW235835  13.768   4.862   9.360
44666SOL     OW35836   6.066   6.256  13.350
44666SOL    HW135837   5.971   6.253  13.338
44666SOL    HW235838   6.095   6.331  13.298
44667SOL     OW35839  10.125   5.273  12.658
44667SOL    HW135840  10.141   5.335  12.730
44667SOL    HW235841  10.076   5.324  12.594
44668SOL     OW35842   8.046   8.485   3.819
44668SOL    HW135843   7.965   8.536   3.813
44668SOL    HW235844   8.089   8.516   3.898
44669SOL     OW35845   1.343   2.571   6.305
44669SOL    HW135846   1.391   2.654   6.301
44669SOL    HW235847   1.309   2.567   6.394
44670SOL     OW35848  14.706  12.085   9.638
44670SOL    HW135849  14.665  12.023   9.698
44670SOL    HW235850  14.636  12.148   9.618
44671SOL     OW35851  12.712  12.306  11.439
44671SOL    HW135852  12.624  12.280  11.468
44671SOL    HW235853  12.746  12.359  11.511
44672SOL     OW35854   1.902   5.858  11.930
44672SOL    HW135855   1.821   5.909  11.930
44672SOL    HW235856   1.896   5.802  11.854
44673SOL     OW35857   8.801  12.185   3.262
44673SOL    HW135858   8.733  12.170   3.328
44673SOL    HW235859   8.792  12.278   3.239
44674SOL     OW35860  13.649  14.360   1.532
44674SOL    HW135861  13.567  14.312   1.526
44674SOL    HW235862  13.634  14.425   1.601
44675SOL     OW35863  10.372  12.168   4.872
44675SOL    HW135864  10.421  12.218   4.938
44675SOL    HW235865  10.422  12.178   4.792
44676SOL     OW35866   1.053   0.503  12.755
44676SOL    HW135867   1.064   0.414  12.721
44676SOL    HW235868   1.124   0.513  12.819
44677SOL     OW35869   3.496   6.426  14.485
44677SOL    HW135870   3.554   6.353  14.466
44677SOL    HW235871   3.545   6.482  14.545
44678SOL     OW35872   6.775  11.624   7.968
44678SOL    HW135873   6.797  11.575   7.889
44678SOL    HW235874   6.834  11.589   8.035
44679SOL     OW35875  14.537   3.213   8.993
44679SOL    HW135876  14.626   3.239   9.019
44679SOL    HW235877  14.480   3.271   9.042
44680SOL     OW35878   5.569  12.966  14.239
44680SOL    HW135879   5.655  12.965  14.280
44680SOL    HW235880   5.554  12.875  14.211
44681SOL     OW35881   8.485   5.107   0.693
44681SOL    HW135882   8.468   5.185   0.746
44681SOL    HW235883   8.580   5.108   0.679
44682SOL     OW35884   8.794   4.701  13.134
44682SOL    HW135885   8.878   4.665  13.106
44682SOL    HW235886   8.759   4.745  13.057
44683SOL     OW35887  14.043   9.430   6.566
44683SOL    HW135888  14.052   9.525   6.559
44683SOL    HW235889  13.998   9.404   6.485
44684SOL     OW35890   2.445   9.465   8.441
44684SOL    HW135891   2.425   9.545   8.392
44684SOL    HW235892   2.533   9.441   8.414
44685SOL     OW35893   4.342   8.921   2.715
44685SOL    HW135894   4.389   8.996   2.751
44685SOL    HW235895   4.379   8.846   2.762
44686SOL     OW35896   3.272   1.472   9.542
44686SOL    HW135897   3.229   1.556   9.560
44686SOL    HW235898   3.329   1.457   9.617
44687SOL     OW35899  10.512   7.606   7.060
44687SOL    HW135900  10.453   7.567   7.125
44687SOL    HW235901  10.548   7.531   7.013
44688SOL     OW35902  13.543   9.731  13.380
44688SOL    HW135903  13.575   9.821  13.373
44688SOL    HW235904  13.450   9.736  13.359
44689SOL     OW35905   6.662   8.626  13.938
44689SOL    HW135906   6.609   8.574  13.878
44689SOL    HW235907   6.730   8.566  13.968
44690SOL     OW35908   1.763   9.246  12.583
44690SOL    HW135909   1.696   9.188  12.546
44690SOL    HW235910   1.800   9.196  12.656
44691SOL     OW35911   3.675   0.241  13.171
44691SOL    HW135912   3.713   0.291  13.244
44691SOL    HW235913   3.583   0.233  13.193
44692SOL     OW35914   2.372  12.294   2.156
44692SOL    HW135915   2.462  12.301   2.188
44692SOL    HW235916   2.379  12.238   2.079
44693SOL     OW35917   3.351   9.021   9.243
44693SOL    HW135918   3.436   9.024   9.286
44693SOL    HW235919   3.342   8.931   9.213
44694SOL     OW35920  11.689   9.624  10.760
44694SOL    HW135921  11.652   9.712  10.762
44694SOL    HW235922  11.780   9.634  10.785
44695SOL     OW35923   7.263   1.767   5.268
44695SOL    HW135924   7.221   1.841   5.312
44695SOL    HW235925   7.356   1.789   5.266
44696SOL     OW35926   1.445  12.038   6.388
44696SOL    HW135927   1.538  12.060   6.382
44696SOL    HW235928   1.435  11.959   6.335
44697SOL     OW35929   9.023   5.930   4.157
44697SOL    HW135930   9.018   5.991   4.084
44697SOL    HW235931   9.114   5.902   4.159
44698SOL     OW35932  10.509   7.051   9.361
44698SOL    HW135933  10.536   6.975   9.412
44698SOL    HW235934  10.433   7.086   9.406
44699SOL     OW35935  12.495   1.872  14.183
44699SOL    HW135936  12.545   1.894  14.104
44699SOL    HW235937  12.554   1.818  14.235
44700SOL     OW35938  12.910   9.342   9.265
44700SOL    HW135939  12.856   9.419   9.246
44700SOL    HW235940  12.875   9.274   9.207
44701SOL     OW35941   9.647   9.068   2.040
44701SOL    HW135942   9.626   9.103   2.127
44701SOL    HW235943   9.598   9.124   1.979
44702SOL     OW35944   2.174   6.349  14.383
44702SOL    HW135945   2.143   6.402  14.457
44702SOL    HW235946   2.144   6.260  14.404
44703SOL     OW35947  10.646  10.906   0.974
44703SOL    HW135948  10.613  10.824   1.008
44703SOL    HW235949  10.684  10.951   1.050
44704SOL     OW35950   9.017   9.922   6.113
44704SOL    HW135951   9.042  10.012   6.133
44704SOL    HW235952   8.946   9.930   6.049
44705SOL     OW35953  10.810   0.278   5.842
44705SOL    HW135954  10.733   0.333   5.860
44705SOL    HW235955  10.845   0.312   5.760
44706SOL     OW35956   4.088  12.725   7.019
44706SOL    HW135957   4.109  12.739   7.111
44706SOL    HW235958   4.010  12.779   7.003
44707SOL     OW35959   4.751  12.363  12.385
44707SOL    HW135960   4.824  12.422  12.399
44707SOL    HW235961   4.680  12.419  12.354
44708SOL     OW35962   8.828   6.555  11.317
44708SOL    HW135963   8.801   6.488  11.381
44708SOL    HW235964   8.918   6.576  11.340
44709SOL     OW35965   0.641  12.507  12.645
44709SOL    HW135966   0.553  12.474  12.662
44709SOL    HW235967   0.636  12.600  12.667
44710SOL     OW35968  10.789   4.076   9.022
44710SOL    HW135969  10.872   4.067   9.069
44710SOL    HW235970  10.722   4.059   9.089
44711SOL     OW35971   3.688   1.808   7.626
44711SOL    HW135972   3.627   1.861   7.573
44711SOL    HW235973   3.674   1.837   7.716
44712SOL     OW35974   6.848  13.392   3.032
44712SOL    HW135975   6.875  13.303   3.009
44712SOL    HW235976   6.922  13.428   3.080
44713SOL     OW35977   9.074   3.535   3.413
44713SOL    HW135978   9.124   3.491   3.481
44713SOL    HW235979   9.103   3.626   3.418
44714SOL     OW35980  14.352   0.232   9.652
44714SOL    HW135981  14.403   0.216   9.731
44714SOL    HW235982  14.264   0.252   9.684
44715SOL     OW35983   3.622   9.705   0.070
44715SOL    HW135984   3.546   9.751   0.106
44715SOL    HW235985   3.653   9.762   0.000
44716SOL     OW35986  14.361   7.206   4.670
44716SOL    HW135987  14.395   7.240   4.753
44716SOL    HW235988  14.429   7.226   4.606
44717SOL     OW35989  14.124  12.861   9.359
44717SOL    HW135990  14.077  12.792   9.404
44717SOL    HW235991  14.077  12.941   9.382
44718SOL     OW35992   7.615   2.327   6.017
44718SOL    HW135993   7.663   2.252   5.983
44718SOL    HW235994   7.675   2.401   6.008
44719SOL     OW35995   4.745  13.097   0.491
44719SOL    HW135996   4.750  13.071   0.399
44719SOL    HW235997   4.754  13.014   0.539
44720SOL     OW35998   4.717  12.023   6.765
44720SOL    HW135999   4.674  11.937   6.763
44720SOL    HW236000   4.689  12.061   6.849
44721SOL     OW36001   9.465  13.749   5.470
44721SOL    HW136002   9.388  13.766   5.415
44721SOL    HW236003   9.443  13.670   5.519
44722SOL     OW36004   6.790  12.623  12.042
44722SOL    HW136005   6.841  12.610  11.962
44722SOL    HW236006   6.763  12.535  12.068
44723SOL     OW36007   2.963  13.021   8.770
44723SOL    HW136008   3.020  12.980   8.704
44723SOL    HW236009   2.876  13.020   8.729
44724SOL     OW36010  11.978   2.753   7.149
44724SOL    HW136011  11.990   2.767   7.055
44724SOL    HW236012  11.972   2.658   7.158
44725SOL     OW36013   9.291  10.276   4.057
44725SOL    HW136014   9.234  10.214   4.103
44725SOL    HW236015   9.297  10.241   3.968
44726SOL     OW36016   7.275  12.033   8.161
44726SOL    HW136017   7.182  12.042   8.140
44726SOL    HW236018   7.299  12.117   8.201
44727SOL     OW36019   9.318  12.852  14.082
44727SOL    HW136020   9.364  12.927  14.119
44727SOL    HW236021   9.307  12.792  14.155
44728SOL     OW36022   9.987   6.175  13.926
44728SOL    HW136023   9.944   6.147  14.006
44728SOL    HW236024   9.973   6.103  13.864
44729SOL     OW36025   6.097   1.277   0.647
44729SOL    HW136026   6.183   1.312   0.624
44729SOL    HW236027   6.115   1.189   0.680
44730SOL     OW36028  14.635   4.965  14.418
44730SOL    HW136029  14.595   4.914  14.488
44730SOL    HW236030  14.592   5.050  14.423
44731SOL     OW36031  14.070  12.308   9.037
44731SOL    HW136032  14.040  12.374   9.100
44731SOL    HW236033  14.149  12.347   8.998
44732SOL     OW36034   4.822   6.943  12.264
44732SOL    HW136035   4.817   7.034  12.234
44732SOL    HW236036   4.898   6.941  12.322
44733SOL     OW36037  13.353   7.453   1.288
44733SOL    HW136038  13.322   7.535   1.327
44733SOL    HW236039  13.414   7.480   1.220
44734SOL     OW36040  13.812   4.057   3.216
44734SOL    HW136041  13.892   4.097   3.249
44734SOL    HW236042  13.746   4.078   3.281
44735SOL     OW36043   3.712   7.273   7.412
44735SOL    HW136044   3.754   7.292   7.496
44735SOL    HW236045   3.728   7.352   7.359
44736SOL     OW36046   6.631  14.385  11.686
44736SOL    HW136047   6.592  14.392  11.599
44736SOL    HW236048   6.622  14.473  11.723
44737SOL     OW36049   1.013  14.876   2.337
44737SOL    HW136050   0.929   0.042   2.345
44737SOL    HW236051   1.040  14.858   2.427
44738SOL     OW36052  14.547   9.628  11.750
44738SOL    HW136053  14.545   9.681  11.829
44738SOL    HW236054  14.497   9.549  11.772
44739SOL     OW36055   1.686  10.430  10.038
44739SOL    HW136056   1.605  10.458  10.081
44739SOL    HW236057   1.748  10.501  10.055
44740SOL     OW36058   1.112   5.271   0.938
44740SOL    HW136059   1.159   5.354   0.948
44740SOL    HW236060   1.121   5.228   1.023
44741SOL     OW36061   0.438   0.263   3.252
44741SOL    HW136062   0.386   0.206   3.309
44741SOL    HW236063   0.374   0.324   3.215
44742SOL     OW36064   4.431   5.114  10.344
44742SOL    HW136065   4.391   5.096  10.429
44742SOL    HW236066   4.482   5.035  10.325
44743SOL     OW36067  12.531   9.494   7.471
44743SOL    HW136068  12.492   9.571   7.513
44743SOL    HW236069  12.571   9.445   7.542
44744SOL     OW36070  12.159   0.834   0.469
44744SOL    HW136071  12.156   0.834   0.373
44744SOL    HW236072  12.196   0.750   0.492
44745SOL     OW36073  10.531  14.005   5.774
44745SOL    HW136074  10.578  14.060   5.837
44745SOL    HW236075  10.591  13.994   5.701
44746SOL     OW36076  14.065  14.214   8.392
44746SOL    HW136077  14.112  14.297   8.387
44746SOL    HW236078  14.038  14.195   8.302
44747SOL     OW36079   8.712   2.018   2.538
44747SOL    HW136080   8.694   1.930   2.505
44747SOL    HW236081   8.807   2.028   2.532
44748SOL     OW36082   4.708  12.299   6.985
44748SOL    HW136083   4.800  12.324   6.984
44748SOL    HW236084   4.670  12.345   6.910
44749SOL     OW36085   6.441   8.231  13.393
44749SOL    HW136086   6.492   8.171  13.338
44749SOL    HW236087   6.391   8.284  13.330
44750SOL     OW36088   7.303  11.044   2.223
44750SOL    HW136089   7.299  11.077   2.313
44750SOL    HW236090   7.389  11.071   2.191
44751SOL     OW36091   8.659   6.527   1.143
44751SOL    HW136092   8.616   6.465   1.202
44751SOL    HW236093   8.596   6.598   1.133
44752SOL     OW36094   1.543   4.872   8.916
44752SOL    HW136095   1.545   4.934   8.843
44752SOL    HW236096   1.511   4.923   8.990
44753SOL     OW36097   0.587  14.855   4.093
44753SOL    HW136098   0.538  14.843   4.174
44753SOL    HW236099   0.521  14.852   4.024
44754SOL     OW36100   4.577  14.693   1.410
44754SOL    HW136101   4.589  14.782   1.442
44754SOL    HW236102   4.644  14.642   1.456
44755SOL     OW36103   3.293   7.397   9.036
44755SOL    HW136104   3.346   7.407   9.115
44755SOL    HW236105   3.274   7.486   9.008
44756SOL     OW36106   7.958  12.269   8.620
44756SOL    HW136107   8.041  12.220   8.619
44756SOL    HW236108   7.984  12.358   8.645
44757SOL     OW36109  13.050  10.748   9.381
44757SOL    HW136110  13.008  10.737   9.466
44757SOL    HW236111  13.016  10.677   9.327
44758SOL     OW36112   1.241   4.413   2.914
44758SOL    HW136113   1.272   4.322   2.914
44758SOL    HW236114   1.315   4.463   2.947
44759SOL     OW36115  11.296  14.565   2.092
44759SOL    HW136116  11.352  14.488   2.086
44759SOL    HW236117  11.356  14.637   2.114
44760SOL     OW36118  14.270  11.154   4.758
44760SOL    HW136119  14.199  11.198   4.713
44760SOL    HW236120  14.272  11.066   4.721
44761SOL     OW36121  13.255  10.370  14.404
44761SOL    HW136122  13.203  10.289  14.405
44761SOL    HW236123  13.285  10.380  14.494
44762SOL     OW36124  14.536  12.307   0.899
44762SOL    HW136125  14.616  12.353   0.872
44762SOL    HW236126  14.515  12.344   0.985
44763SOL     OW36127  11.194   8.485   8.077
44763SOL    HW136128  11.180   8.576   8.105
44763SOL    HW236129  11.198   8.435   8.158
44764SOL     OW36130   0.372   2.157   2.236
44764SOL    HW136131   0.364   2.224   2.168
44764SOL    HW236132   0.410   2.082   2.192
44765SOL     OW36133   1.837   8.799   2.735
44765SOL    HW136134   1.850   8.737   2.807
44765SOL    HW236135   1.745   8.826   2.743
44766SOL     OW36136   2.400   0.038  11.730
44766SOL    HW136137   2.490   0.019  11.703
44766SOL    HW236138   2.402   0.128  11.762
44767SOL     OW36139   5.184   7.901  11.954
44767SOL    HW136140   5.273   7.912  11.988
44767SOL    HW236141   5.174   7.807  11.944
44768SOL     OW36142   5.535   8.229   2.030
44768SOL    HW136143   5.581   8.250   1.948
44768SOL    HW236144   5.517   8.314   2.069
44769SOL     OW36145   9.401  13.181   0.504
44769SOL    HW136146   9.374  13.207   0.592
44769SOL    HW236147   9.495  13.163   0.512
44770SOL     OW36148   5.196   5.880   8.363
44770SOL    HW136149   5.169   5.839   8.444
44770SOL    HW236150   5.292   5.876   8.364
44771SOL     OW36151  11.069  13.062   5.720
44771SOL    HW136152  10.980  13.050   5.754
44771SOL    HW236153  11.075  13.156   5.703
44772SOL     OW36154   8.489   9.043   1.501
44772SOL    HW136155   8.537   8.967   1.469
44772SOL    HW236156   8.557   9.101   1.537
44773SOL     OW36157  13.960  11.113  13.061
44773SOL    HW136158  13.950  11.032  13.111
44773SOL    HW236159  13.998  11.175  13.123
44774SOL     OW36160   0.296   6.861  10.876
44774SOL    HW136161   0.246   6.800  10.822
44774SOL    HW236162   0.231   6.906  10.929
44775SOL     OW36163  14.530   8.387   0.861
44775SOL    HW136164  14.596   8.341   0.808
44775SOL    HW236165  14.458   8.326   0.869
44776SOL     OW36166   0.978  10.167   5.425
44776SOL    HW136167   1.029  10.171   5.344
44776SOL    HW236168   0.962  10.258   5.448
44777SOL     OW36169  13.505   0.425  12.959
44777SOL    HW136170  13.455   0.458  12.885
44777SOL    HW236171  13.569   0.493  12.978
44778SOL     OW36172   8.912   3.844  12.982
44778SOL    HW136173   8.964   3.791  13.042
44778SOL    HW236174   8.951   3.931  12.986
44779SOL     OW36175   2.491   1.008   7.888
44779SOL    HW136176   2.465   0.973   7.803
44779SOL    HW236177   2.539   0.936   7.929
44780SOL     OW36178  12.618   6.350   7.770
44780SOL    HW136179  12.675   6.273   7.771
44780SOL    HW236180  12.669   6.419   7.814
44781SOL     OW36181   0.993  14.169  12.850
44781SOL    HW136182   0.918  14.138  12.900
44781SOL    HW236183   0.986  14.265  12.853
44782SOL     OW36184  12.367   8.727   4.647
44782SOL    HW136185  12.326   8.804   4.686
44782SOL    HW236186  12.293   8.673   4.619
44783SOL     OW36187   6.124   9.470   2.351
44783SOL    HW136188   6.087   9.548   2.392
44783SOL    HW236189   6.157   9.500   2.267
44784SOL     OW36190   4.488  10.099   6.707
44784SOL    HW136191   4.407  10.112   6.657
44784SOL    HW236192   4.558  10.116   6.644
44785SOL     OW36193  10.014   1.304   2.244
44785SOL    HW136194   9.977   1.375   2.297
44785SOL    HW236195  10.106   1.328   2.232
44786SOL     OW36196   0.569   1.880   8.189
44786SOL    HW136197   0.476   1.864   8.207
44786SOL    HW236198   0.609   1.793   8.191
44787SOL     OW36199  11.509   4.397   7.709
44787SOL    HW136200  11.431   4.425   7.661
44787SOL    HW236201  11.550   4.331   7.652
44788SOL     OW36202  14.153  10.742   2.639
44788SOL    HW136203  14.071  10.739   2.688
44788SOL    HW236204  14.193  10.656   2.653
44789SOL     OW36205   5.137   2.472  12.215
44789SOL    HW136206   5.064   2.504  12.162
44789SOL    HW236207   5.214   2.511  12.174
44790SOL     OW36208  10.144   1.835   3.506
44790SOL    HW136209  10.197   1.787   3.571
44790SOL    HW236210  10.168   1.796   3.422
44791SOL     OW36211  11.353  14.156  12.003
44791SOL    HW136212  11.440  14.153  12.044
44791SOL    HW236213  11.348  14.074  11.953
44792SOL     OW36214   5.267  11.017   6.592
44792SOL    HW136215   5.245  10.981   6.506
44792SOL    HW236216   5.185  11.055   6.624
44793SOL     OW36217   9.579  11.646  12.887
44793SOL    HW136218   9.599  11.696  12.808
44793SOL    HW236219   9.508  11.695  12.929
44794SOL     OW36220  10.830   9.337   2.187
44794SOL    HW136221  10.784   9.385   2.118
44794SOL    HW236222  10.903   9.294   2.143
44795SOL     OW36223   2.293   3.890  13.448
44795SOL    HW136224   2.367   3.929  13.402
44795SOL    HW236225   2.228   3.961  13.453
44796SOL     OW36226  12.964   2.029  11.350
44796SOL    HW136227  13.040   1.994  11.397
44796SOL    HW236228  13.000   2.063  11.268
44797SOL     OW36229   2.858   1.209   6.570
44797SOL    HW136230   2.865   1.222   6.664
44797SOL    HW236231   2.947   1.184   6.543
44798SOL     OW36232  13.861   2.110  11.563
44798SOL    HW136233  13.774   2.132  11.597
44798SOL    HW236234  13.905   2.194  11.551
44799SOL     OW36235   2.283  12.021   9.610
44799SOL    HW136236   2.347  12.081   9.647
44799SOL    HW236237   2.210  12.022   9.672
44800SOL     OW36238   9.407   8.630  13.172
44800SOL    HW136239   9.353   8.625  13.094
44800SOL    HW236240   9.353   8.677  13.236
44801SOL     OW36241   9.833   6.703  13.762
44801SOL    HW136242   9.906   6.692  13.701
44801SOL    HW236243   9.867   6.673  13.846
44802SOL     OW36244   3.934   4.348   3.867
44802SOL    HW136245   3.957   4.362   3.959
44802SOL    HW236246   3.925   4.436   3.830
44803SOL     OW36247   5.306  13.496   1.057
44803SOL    HW136248   5.243  13.544   1.111
44803SOL    HW236249   5.255  13.462   0.984
44804SOL     OW36250  10.101   7.874   5.205
44804SOL    HW136251  10.069   7.848   5.292
44804SOL    HW236252  10.047   7.949   5.181
44805SOL     OW36253   9.632   7.096   4.761
44805SOL    HW136254   9.603   7.135   4.844
44805SOL    HW236255   9.668   7.011   4.787
44806SOL     OW36256  14.299  10.470   8.914
44806SOL    HW136257  14.264  10.428   8.993
44806SOL    HW236258  14.221  10.496   8.865
44807SOL     OW36259   7.960  11.191   8.834
44807SOL    HW136260   8.010  11.131   8.778
44807SOL    HW236261   8.008  11.191   8.917
44808SOL     OW36262  14.786   9.700   2.922
44808SOL    HW136263  14.744   9.629   2.875
44808SOL    HW236264  14.795   9.770   2.858
44809SOL     OW36265   9.342   4.710  13.843
44809SOL    HW136266   9.362   4.638  13.903
44809SOL    HW236267   9.375   4.681  13.758
44810SOL     OW36268   6.323  14.438   4.830
44810SOL    HW136269   6.315  14.523   4.872
44810SOL    HW236270   6.400  14.445   4.773
44811SOL     OW36271  11.174   8.113   8.636
44811SOL    HW136272  11.097   8.131   8.583
44811SOL    HW236273  11.188   8.019   8.627
44812SOL     OW36274  12.801   3.784  12.995
44812SOL    HW136275  12.821   3.867  13.036
44812SOL    HW236276  12.782   3.725  13.068
44813SOL     OW36277   9.355   6.684   9.557
44813SOL    HW136278   9.369   6.670   9.650
44813SOL    HW236279   9.295   6.758   9.552
44814SOL     OW36280   0.922   0.479   4.232
44814SOL    HW136281   0.917   0.412   4.164
44814SOL    HW236282   0.855   0.456   4.295
44815SOL     OW36283   6.248   7.731  12.393
44815SOL    HW136284   6.208   7.803  12.443
44815SOL    HW236285   6.179   7.701  12.334
44816SOL     OW36286  14.688   4.719   2.490
44816SOL    HW136287  14.614   4.777   2.473
44816SOL    HW236288  14.741   4.766   2.554
44817SOL     OW36289  12.458  14.164   7.427
44817SOL    HW136290  12.473  14.238   7.369
44817SOL    HW236291  12.515  14.179   7.502
44818SOL     OW36292   3.353   8.940  10.834
44818SOL    HW136293   3.315   8.979  10.755
44818SOL    HW236294   3.279   8.893  10.875
44819SOL     OW36295  13.946   3.459   3.170
44819SOL    HW136296  13.927   3.436   3.079
44819SOL    HW236297  13.958   3.554   3.169
44820SOL     OW36298   9.105   1.186  13.563
44820SOL    HW136299   9.114   1.123  13.492
44820SOL    HW236300   9.012   1.185  13.585
44821SOL     OW36301   7.743   0.505   0.061
44821SOL    HW136302   7.792   0.550   0.130
44821SOL    HW236303   7.789   0.529  14.860
44822SOL     OW36304   3.304  14.730   1.449
44822SOL    HW136305   3.311  14.803   1.510
44822SOL    HW236306   3.390  14.723   1.409
44823SOL     OW36307  14.444  13.840   9.037
44823SOL    HW136308  14.376  13.773   9.030
44823SOL    HW236309  14.524  13.793   9.056
44824SOL     OW36310   9.311   8.199   5.314
44824SOL    HW136311   9.259   8.175   5.238
44824SOL    HW236312   9.249   8.241   5.373
44825SOL     OW36313   6.245   5.792   3.056
44825SOL    HW136314   6.151   5.783   3.041
44825SOL    HW236315   6.273   5.705   3.085
44826SOL     OW36316   2.676   8.568  13.902
44826SOL    HW136317   2.648   8.582  13.992
44826SOL    HW236318   2.670   8.473  13.890
44827SOL     OW36319   9.248  10.125   4.614
44827SOL    HW136320   9.302  10.197   4.581
44827SOL    HW236321   9.162  10.165   4.630
44828SOL     OW36322   8.855   8.703  11.905
44828SOL    HW136323   8.914   8.686  11.832
44828SOL    HW236324   8.912   8.702  11.983
44829SOL     OW36325   0.932  11.910  11.928
44829SOL    HW136326   1.005  11.874  11.979
44829SOL    HW236327   0.863  11.843  11.935
44830SOL     OW36328   6.334   7.535  14.495
44830SOL    HW136329   6.279   7.460  14.475
44830SOL    HW236330   6.287   7.610  14.459
44831SOL     OW36331  11.874   0.159   4.914
44831SOL    HW136332  11.852   0.232   4.857
44831SOL    HW236333  11.790   0.119   4.936
44832SOL     OW36334  10.677  13.431  12.464
44832SOL    HW136335  10.597  13.484  12.460
44832SOL    HW236336  10.648  13.342  12.442
44833SOL     OW36337   2.107   9.618   0.405
44833SOL    HW136338   2.148   9.688   0.355
44833SOL    HW236339   2.018   9.611   0.371
44834SOL     OW36340   0.364   2.334  10.335
44834SOL    HW136341   0.301   2.267  10.361
44834SOL    HW236342   0.430   2.334  10.405
44835SOL     OW36343   2.089   2.011   7.197
44835SOL    HW136344   2.178   2.013   7.163
44835SOL    HW236345   2.046   2.086   7.156
44836SOL     OW36346   1.284  10.932  12.026
44836SOL    HW136347   1.338  10.924  11.948
44836SOL    HW236348   1.212  10.990  12.000
44837SOL     OW36349   9.270   9.395   1.920
44837SOL    HW136350   9.234   9.430   1.838
44837SOL    HW236351   9.246   9.460   1.986
44838SOL     OW36352   4.018   1.834   6.113
44838SOL    HW136353   4.048   1.753   6.071
44838SOL    HW236354   3.976   1.804   6.194
44839SOL     OW36355  14.825   6.897   2.353
44839SOL    HW136356  14.868   6.845   2.285
44839SOL    HW236357  14.752   6.842   2.382
44840SOL     OW36358   8.091   2.348   3.702
44840SOL    HW136359   8.044   2.425   3.670
44840SOL    HW236360   8.022   2.291   3.736
44841SOL     OW36361  12.552  14.322  11.206
44841SOL    HW136362  12.574  14.232  11.229
44841SOL    HW236363  12.487  14.349  11.270
44842SOL     OW36364  12.870   5.566   6.602
44842SOL    HW136365  12.948   5.542   6.551
44842SOL    HW236366  12.900   5.564   6.693
44843SOL     OW36367   1.396   9.186   8.315
44843SOL    HW136368   1.410   9.092   8.313
44843SOL    HW236369   1.449   9.220   8.243
44844SOL     OW36370   0.308   6.199   6.457
44844SOL    HW136371   0.386   6.245   6.487
44844SOL    HW236372   0.265   6.261   6.398
44845SOL     OW36373   3.222   4.144   0.992
44845SOL    HW136374   3.159   4.132   0.921
44845SOL    HW236375   3.190   4.221   1.039
44846SOL     OW36376  11.302  13.202  13.712
44846SOL    HW136377  11.239  13.139  13.676
44846SOL    HW236378  11.374  13.201  13.649
44847SOL     OW36379  11.191   3.512   8.513
44847SOL    HW136380  11.193   3.419   8.533
44847SOL    HW236381  11.254   3.523   8.442
44848SOL     OW36382  14.477   7.904  14.650
44848SOL    HW136383  14.443   7.892  14.739
44848SOL    HW236384  14.448   7.827  14.602
44849SOL     OW36385   3.489  13.694  12.609
44849SOL    HW136386   3.418  13.653  12.656
44849SOL    HW236387   3.557  13.627  12.604
44850SOL     OW36388  13.996   7.836  10.147
44850SOL    HW136389  13.924   7.877  10.099
44850SOL    HW236390  13.954   7.795  10.222
44851SOL     OW36391   5.473   2.299  11.723
44851SOL    HW136392   5.467   2.369  11.788
44851SOL    HW236393   5.547   2.245  11.753
44852SOL     OW36394  12.222  12.407   0.831
44852SOL    HW136395  12.291  12.472   0.836
44852SOL    HW236396  12.230  12.371   0.742
44853SOL     OW36397   0.640   8.925   3.212
44853SOL    HW136398   0.592   8.864   3.157
44853SOL    HW236399   0.602   9.011   3.192
44854SOL     OW36400   1.833   5.311  14.220
44854SOL    HW136401   1.908   5.267  14.258
44854SOL    HW236402   1.844   5.403  14.243
44855SOL     OW36403   2.219  14.666   7.639
44855SOL    HW136404   2.237  14.572   7.642
44855SOL    HW236405   2.244  14.693   7.551
44856SOL     OW36406   3.334  11.674  10.320
44856SOL    HW136407   3.387  11.605  10.361
44856SOL    HW236408   3.321  11.643  10.230
44857SOL     OW36409   2.819   8.320   9.888
44857SOL    HW136410   2.871   8.242   9.870
44857SOL    HW236411   2.840   8.379   9.815
44858SOL     OW36412   7.321   4.245  10.077
44858SOL    HW136413   7.375   4.285  10.009
44858SOL    HW236414   7.275   4.174  10.033
44859SOL     OW36415   3.546   2.244  13.962
44859SOL    HW136416   3.550   2.334  13.993
44859SOL    HW236417   3.637   2.221  13.943
44860SOL     OW36418   0.134   0.120   7.859
44860SOL    HW136419   0.147   0.093   7.768
44860SOL    HW236420   0.195   0.066   7.909
44861SOL     OW36421   5.855   2.418  10.532
44861SOL    HW136422   5.943   2.407  10.566
44861SOL    HW236423   5.859   2.498  10.480
44862SOL     OW36424   4.907  12.404   7.539
44862SOL    HW136425   4.984  12.459   7.552
44862SOL    HW236426   4.885  12.414   7.447
44863SOL     OW36427   0.435  12.027   5.447
44863SOL    HW136428   0.406  12.009   5.357
44863SOL    HW236429   0.472  12.115   5.444
44864SOL     OW36430   2.492  13.218   8.320
44864SOL    HW136431   2.540  13.298   8.343
44864SOL    HW236432   2.401  13.237   8.341
44865SOL     OW36433   2.010   9.557  12.425
44865SOL    HW136434   2.085   9.548  12.483
44865SOL    HW236435   2.047   9.554  12.337
44866SOL     OW36436   2.317   6.168   5.887
44866SOL    HW136437   2.398   6.205   5.854
44866SOL    HW236438   2.318   6.188   5.981
44867SOL     OW36439  13.181   4.244  10.325
44867SOL    HW136440  13.276   4.256  10.325
44867SOL    HW236441  13.167   4.166  10.379
44868SOL     OW36442   2.512  10.831   3.199
44868SOL    HW136443   2.548  10.832   3.288
44868SOL    HW236444   2.471  10.917   3.190
44869SOL     OW36445   4.040  10.682   5.821
44869SOL    HW136446   3.946  10.667   5.834
44869SOL    HW236447   4.044  10.741   5.746
44870SOL     OW36448   8.491  13.166   9.905
44870SOL    HW136449   8.477  13.108   9.979
44870SOL    HW236450   8.484  13.109   9.828
44871SOL     OW36451  14.476  12.063  14.202
44871SOL    HW136452  14.469  12.081  14.108
44871SOL    HW236453  14.532  11.985  14.207
44872SOL     OW36454   0.233   9.364   9.291
44872SOL    HW136455   0.259   9.350   9.200
44872SOL    HW236456   0.315   9.358   9.340
44873SOL     OW36457   5.454   1.427   4.591
44873SOL    HW136458   5.372   1.421   4.541
44873SOL    HW236459   5.458   1.346   4.641
44874SOL     OW36460  13.950   5.209  11.646
44874SOL    HW136461  13.906   5.139  11.695
44874SOL    HW236462  13.892   5.227  11.572
44875SOL     OW36463   3.692   7.485  12.801
44875SOL    HW136464   3.651   7.403  12.773
44875SOL    HW236465   3.619   7.544  12.816
44876SOL     OW36466   8.471   6.377  14.480
44876SOL    HW136467   8.493   6.299  14.430
44876SOL    HW236468   8.519   6.367  14.563
44877SOL     OW36469  13.994  13.520   8.770
44877SOL    HW136470  14.088  13.541   8.770
44877SOL    HW236471  13.979  13.477   8.854
44878SOL     OW36472  12.407   6.405   7.152
44878SOL    HW136473  12.390   6.372   7.240
44878SOL    HW236474  12.475   6.347   7.117
44879SOL     OW36475  11.075   2.007  14.758
44879SOL    HW136476  11.058   2.052  14.841
44879SOL    HW236477  11.083   2.077  14.694
44880SOL     OW36478   3.169   9.084   3.310
44880SOL    HW136479   3.167   9.161   3.252
44880SOL    HW236480   3.080   9.079   3.344
44881SOL     OW36481   2.469   2.438   7.219
44881SOL    HW136482   2.393   2.497   7.211
44881SOL    HW236483   2.434   2.360   7.262
44882SOL     OW36484   5.414   0.468   3.018
44882SOL    HW136485   5.420   0.427   2.932
44882SOL    HW236486   5.412   0.395   3.080
44883SOL     OW36487   0.538   1.295   4.923
44883SOL    HW136488   0.479   1.367   4.943
44883SOL    HW236489   0.621   1.319   4.965
44884SOL     OW36490  10.413   8.271  13.575
44884SOL    HW136491  10.423   8.350  13.627
44884SOL    HW236492  10.501   8.233  13.571
44885SOL     OW36493  10.739  11.639   5.578
44885SOL    HW136494  10.787  11.557   5.593
44885SOL    HW236495  10.701  11.660   5.663
44886SOL     OW36496   2.895   2.027   9.444
44886SOL    HW136497   2.920   2.099   9.385
44886SOL    HW236498   2.800   2.020   9.435
44887SOL     OW36499   9.874  10.470   5.831
44887SOL    HW136500   9.894  10.383   5.864
44887SOL    HW236501   9.959  10.512   5.821
44888SOL     OW36502  11.793  12.949   5.352
44888SOL    HW136503  11.712  12.978   5.309
44888SOL    HW236504  11.835  13.031   5.379
44889SOL     OW36505   9.192  10.680   7.314
44889SOL    HW136506   9.180  10.768   7.349
44889SOL    HW236507   9.105  10.641   7.318
44890SOL     OW36508   5.774   5.402   7.748
44890SOL    HW136509   5.721   5.323   7.744
44890SOL    HW236510   5.755   5.439   7.834
44891SOL     OW36511   0.197   2.342   6.467
44891SOL    HW136512   0.115   2.313   6.426
44891SOL    HW236513   0.252   2.368   6.394
44892SOL     OW36514  12.118  11.358   4.054
44892SOL    HW136515  12.198  11.314   4.081
44892SOL    HW236516  12.092  11.409   4.131
44893SOL     OW36517  10.042  10.975   0.069
44893SOL    HW136518  10.037  11.022   0.152
44893SOL    HW236519   9.985  11.024   0.010
44894SOL     OW36520  10.079   2.467  11.835
44894SOL    HW136521  10.018   2.405  11.796
44894SOL    HW236522  10.165   2.439  11.804
44895SOL     OW36523  12.540  14.446   2.810
44895SOL    HW136524  12.622  14.403   2.833
44895SOL    HW236525  12.508  14.398   2.733
44896SOL     OW36526  11.363  14.396   3.363
44896SOL    HW136527  11.281  14.385   3.411
44896SOL    HW236528  11.339  14.447   3.285
44897SOL     OW36529  10.622   1.436   8.664
44897SOL    HW136530  10.692   1.432   8.598
44897SOL    HW236531  10.668   1.434   8.748
44898SOL     OW36532   4.424  10.161   4.254
44898SOL    HW136533   4.462  10.087   4.301
44898SOL    HW236534   4.335  10.170   4.288
44899SOL     OW36535   9.487   2.701  14.756
44899SOL    HW136536   9.582   2.690  14.754
44899SOL    HW236537   9.474   2.795  14.766
44900SOL     OW36538  13.237   3.913   3.625
44900SOL    HW136539  13.244   3.899   3.531
44900SOL    HW236540  13.296   3.848   3.664
44901SOL     OW36541  10.563   0.889  13.524
44901SOL    HW136542  10.640   0.842  13.492
44901SOL    HW236543  10.524   0.829  13.588
44902SOL     OW36544   1.937   6.705   6.597
44902SOL    HW136545   1.926   6.776   6.533
44902SOL    HW236546   2.021   6.724   6.639
44903SOL     OW36547   5.988   3.518  14.073
44903SOL    HW136548   5.924   3.504  14.143
44903SOL    HW236549   5.942   3.570  14.007
44904SOL     OW36550   1.392   9.489   7.948
44904SOL    HW136551   1.379   9.411   7.894
44904SOL    HW236552   1.469   9.531   7.910
44905SOL     OW36553  10.964   6.016   7.652
44905SOL    HW136554  11.024   6.091   7.653
44905SOL    HW236555  11.005   5.953   7.710
44906SOL     OW36556  13.935  10.230   4.488
44906SOL    HW136557  14.018  10.231   4.535
44906SOL    HW236558  13.926  10.319   4.453
44907SOL     OW36559   1.148   7.373   3.140
44907SOL    HW136560   1.242   7.384   3.128
44907SOL    HW236561   1.113   7.462   3.143
44908SOL     OW36562   4.797  12.970  12.052
44908SOL    HW136563   4.713  12.950  12.010
44908SOL    HW236564   4.817  13.059  12.025
44909SOL     OW36565  12.686   7.841   7.853
44909SOL    HW136566  12.610   7.879   7.898
44909SOL    HW236567  12.652   7.759   7.816
44910SOL     OW36568   8.854  14.656  10.126
44910SOL    HW136569   8.940  14.659  10.168
44910SOL    HW236570   8.868  14.690  10.038
44911SOL     OW36571   2.588   2.302  12.699
44911SOL    HW136572   2.665   2.296  12.756
44911SOL    HW236573   2.594   2.390  12.661
44912SOL     OW36574  13.580   1.633   1.814
44912SOL    HW136575  13.610   1.566   1.875
44912SOL    HW236576  13.486   1.640   1.831
44913SOL     OW36577  12.878   2.305  10.952
44913SOL    HW136578  12.824   2.277  11.025
44913SOL    HW236579  12.816   2.317  10.880
44914SOL     OW36580   3.856   4.492  12.161
44914SOL    HW136581   3.842   4.585  12.141
44914SOL    HW236582   3.943   4.489  12.199
44915SOL     OW36583   5.802  10.659   1.732
44915SOL    HW136584   5.717  10.625   1.761
44915SOL    HW236585   5.789  10.682   1.640
44916SOL     OW36586  11.554  12.569   0.412
44916SOL    HW136587  11.535  12.632   0.482
44916SOL    HW236588  11.489  12.499   0.425
44917SOL     OW36589   5.119  14.737  10.079
44917SOL    HW136590   5.129  14.760   9.986
44917SOL    HW236591   5.148  14.646  10.085
44918SOL     OW36592   4.167   5.879   6.156
44918SOL    HW136593   4.242   5.937   6.162
44918SOL    HW236594   4.195   5.798   6.200
44919SOL     OW36595   7.759   0.512   2.246
44919SOL    HW136596   7.673   0.500   2.285
44919SOL    HW236597   7.804   0.574   2.303
44920SOL     OW36598   9.242   7.516   5.466
44920SOL    HW136599   9.169   7.459   5.489
44920SOL    HW236600   9.275   7.548   5.550
44921SOL     OW36601  13.519  13.457   6.313
44921SOL    HW136602  13.581  13.430   6.245
44921SOL    HW236603  13.554  13.420   6.394
44922SOL     OW36604   0.872  10.452   7.621
44922SOL    HW136605   0.882  10.393   7.695
44922SOL    HW236606   0.843  10.535   7.660
44923SOL     OW36607   7.899  11.760  12.343
44923SOL    HW136608   7.987  11.734  12.369
44923SOL    HW236609   7.888  11.724  12.255
44924SOL     OW36610   2.908   9.632  11.710
44924SOL    HW136611   2.947   9.571  11.648
44924SOL    HW236612   2.820   9.650  11.675
44925SOL     OW36613   9.464   6.270   2.556
44925SOL    HW136614   9.423   6.184   2.570
44925SOL    HW236615   9.538   6.252   2.499
44926SOL     OW36616  13.140  12.865  12.932
44926SOL    HW136617  13.049  12.844  12.908
44926SOL    HW236618  13.132  12.939  12.993
44927SOL     OW36619   6.960  14.073   7.673
44927SOL    HW136620   7.002  14.156   7.650
44927SOL    HW236621   6.935  14.034   7.588
44928SOL     OW36622   5.026   6.685   8.852
44928SOL    HW136623   4.955   6.749   8.863
44928SOL    HW236624   5.054   6.696   8.761
44929SOL     OW36625   3.678  11.138  11.671
44929SOL    HW136626   3.723  11.182  11.599
44929SOL    HW236627   3.749  11.099  11.724
44930SOL     OW36628   4.369  13.348  11.760
44930SOL    HW136629   4.430  13.402  11.710
44930SOL    HW236630   4.398  13.258  11.744
44931SOL     OW36631   8.623   6.534   9.575
44931SOL    HW136632   8.635   6.444   9.545
44931SOL    HW236633   8.580   6.525   9.660
44932SOL     OW36634   8.250   7.460  11.566
44932SOL    HW136635   8.318   7.507  11.517
44932SOL    HW236636   8.218   7.394  11.506
44933SOL     OW36637   6.928   7.894  11.816
44933SOL    HW136638   7.003   7.947  11.789
44933SOL    HW236639   6.882   7.948  11.881
44934SOL     OW36640   7.188   1.570  12.734
44934SOL    HW136641   7.157   1.548  12.646
44934SOL    HW236642   7.147   1.504  12.791
44935SOL     OW36643   1.644   3.489   8.362
44935SOL    HW136644   1.724   3.442   8.384
44935SOL    HW236645   1.575   3.423   8.365
44936SOL     OW36646   3.412   6.710  14.567
44936SOL    HW136647   3.382   6.696  14.656
44936SOL    HW236648   3.503   6.739  14.576
44937SOL     OW36649   8.681   7.250  10.505
44937SOL    HW136650   8.697   7.253  10.599
44937SOL    HW236651   8.733   7.175  10.474
44938SOL     OW36652   6.989   5.500  13.724
44938SOL    HW136653   6.990   5.451  13.642
44938SOL    HW236654   7.072   5.547  13.725
44939SOL     OW36655  13.290   7.905  10.224
44939SOL    HW136656  13.206   7.950  10.223
44939SOL    HW236657  13.350   7.965  10.179
44940SOL     OW36658  13.168   0.442  10.981
44940SOL    HW136659  13.251   0.469  11.021
44940SOL    HW236660  13.104   0.506  11.011
44941SOL     OW36661  12.626  13.803  13.800
44941SOL    HW136662  12.598  13.713  13.785
44941SOL    HW236663  12.705  13.812  13.746
44942SOL     OW36664   9.124   8.275   8.831
44942SOL    HW136665   9.154   8.252   8.743
44942SOL    HW236666   9.167   8.358   8.850
44943SOL     OW36667   7.804   9.925   0.793
44943SOL    HW136668   7.836   9.949   0.879
44943SOL    HW236669   7.793  10.008   0.747
44944SOL     OW36670  14.305   3.646   2.327
44944SOL    HW136671  14.365   3.687   2.389
44944SOL    HW236672  14.351   3.649   2.243
44945SOL     OW36673   7.950  13.417   6.815
44945SOL    HW136674   7.902  13.394   6.736
44945SOL    HW236675   8.038  13.381   6.801
44946SOL     OW36676   2.416   7.378   0.548
44946SOL    HW136677   2.358   7.390   0.624
44946SOL    HW236678   2.365   7.325   0.487
44947SOL     OW36679   2.912   5.216   7.603
44947SOL    HW136680   2.964   5.211   7.523
44947SOL    HW236681   2.857   5.293   7.591
44948SOL     OW36682   2.524   6.426   1.022
44948SOL    HW136683   2.491   6.340   0.995
44948SOL    HW236684   2.479   6.444   1.105
44949SOL     OW36685   0.295  10.105   0.173
44949SOL    HW136686   0.390  10.096   0.181
44949SOL    HW236687   0.266  10.127   0.262
44950SOL     OW36688   3.993  10.409   9.675
44950SOL    HW136689   3.986  10.489   9.727
44950SOL    HW236690   3.905  10.370   9.679
44951SOL     OW36691   0.604  12.661  11.283
44951SOL    HW136692   0.603  12.627  11.194
44951SOL    HW236693   0.523  12.629  11.323
44952SOL     OW36694   4.807  12.131   5.065
44952SOL    HW136695   4.891  12.130   5.112
44952SOL    HW236696   4.767  12.215   5.088
44953SOL     OW36697  12.729  14.195  11.567
44953SOL    HW136698  12.773  14.166  11.647
44953SOL    HW236699  12.638  14.209  11.593
44954SOL     OW36700  12.028   7.728   9.196
44954SOL    HW136701  11.941   7.691   9.180
44954SOL    HW236702  12.084   7.652   9.212
44955SOL     OW36703  12.849   9.418  10.602
44955SOL    HW136704  12.859   9.354  10.531
44955SOL    HW236705  12.834   9.365  10.680
44956SOL     OW36706   2.867   9.235   1.645
44956SOL    HW136707   2.866   9.214   1.738
44956SOL    HW236708   2.844   9.154   1.601
44957SOL     OW36709   6.873   8.533   0.795
44957SOL    HW136710   6.941   8.489   0.743
44957SOL    HW236711   6.896   8.513   0.886
44958SOL     OW36712   8.711  11.682   3.992
44958SOL    HW136713   8.632  11.735   3.981
44958SOL    HW236714   8.707  11.651   4.083
44959SOL     OW36715   6.070   4.018   4.178
44959SOL    HW136716   6.136   4.086   4.172
44959SOL    HW236717   5.995   4.061   4.220
44960SOL     OW36718   2.976  11.432   9.172
44960SOL    HW136719   2.996  11.341   9.152
44960SOL    HW236720   2.920  11.461   9.100
44961SOL     OW36721  14.268   0.386   0.196
44961SOL    HW136722  14.234   0.343   0.117
44961SOL    HW236723  14.331   0.450   0.162
44962SOL     OW36724   0.277   2.635  11.415
44962SOL    HW136725   0.232   2.679  11.487
44962SOL    HW236726   0.370   2.644  11.435
44963SOL     OW36727   0.633   6.011   2.130
44963SOL    HW136728   0.671   6.056   2.206
44963SOL    HW236729   0.703   6.010   2.065
44964SOL     OW36730  14.684   0.752  10.471
44964SOL    HW136731  14.664   0.836  10.430
44964SOL    HW236732  14.745   0.709  10.411
44965SOL     OW36733   1.933   4.468   1.296
44965SOL    HW136734   1.933   4.444   1.203
44965SOL    HW236735   1.900   4.391   1.341
44966SOL     OW36736  12.037   9.896   5.546
44966SOL    HW136737  11.945   9.898   5.522
44966SOL    HW236738  12.083   9.907   5.463
44967SOL     OW36739  11.944  11.453  13.740
44967SOL    HW136740  11.896  11.375  13.765
44967SOL    HW236741  11.878  11.510  13.699
44968SOL     OW36742   8.953  14.351   1.095
44968SOL    HW136743   8.966  14.437   1.135
44968SOL    HW236744   8.872  14.360   1.044
44969SOL     OW36745   3.846   5.085   3.160
44969SOL    HW136746   3.781   5.155   3.163
44969SOL    HW236747   3.925   5.126   3.124
44970SOL     OW36748   9.836   3.707  13.900
44970SOL    HW136749   9.811   3.780  13.956
44970SOL    HW236750   9.914   3.670  13.943
44971SOL     OW36751  12.009   9.231   4.768
44971SOL    HW136752  12.017   9.144   4.728
44971SOL    HW236753  11.964   9.284   4.702
44972SOL     OW36754  13.158  11.615   9.810
44972SOL    HW136755  13.117  11.591   9.727
44972SOL    HW236756  13.143  11.539   9.867
44973SOL     OW36757  10.551   1.134   7.607
44973SOL    HW136758  10.627   1.150   7.664
44973SOL    HW236759  10.475   1.150   7.663
44974SOL     OW36760   7.352  13.524   0.177
44974SOL    HW136761   7.378  13.443   0.134
44974SOL    HW236762   7.258  13.514   0.194
44975SOL     OW36763   7.312   9.451   8.585
44975SOL    HW136764   7.408   9.441   8.582
44975SOL    HW236765   7.295   9.536   8.546
44976SOL     OW36766   6.835   7.743   8.336
44976SOL    HW136767   6.906   7.768   8.395
44976SOL    HW236768   6.871   7.754   8.249
44977SOL     OW36769   8.785   4.237   5.091
44977SOL    HW136770   8.796   4.165   5.154
44977SOL    HW236771   8.728   4.300   5.137
44978SOL     OW36772   9.963   1.402   5.547
44978SOL    HW136773   9.942   1.324   5.598
44978SOL    HW236774   9.887   1.414   5.489
44979SOL     OW36775  14.288  14.038   7.270
44979SOL    HW136776  14.321  14.114   7.223
44979SOL    HW236777  14.264  13.975   7.202
44980SOL     OW36778   1.232   8.869  13.321
44980SOL    HW136779   1.220   8.916  13.238
44980SOL    HW236780   1.143   8.842  13.346
44981SOL     OW36781   0.276   6.641   3.041
44981SOL    HW136782   0.215   6.575   3.009
44981SOL    HW236783   0.336   6.594   3.098
44982SOL     OW36784   2.235  12.875   9.376
44982SOL    HW136785   2.226  12.784   9.348
44982SOL    HW236786   2.329  12.885   9.394
44983SOL     OW36787   5.996   4.541   4.494
44983SOL    HW136788   6.024   4.597   4.422
44983SOL    HW236789   6.065   4.551   4.560
44984SOL     OW36790   9.355  10.747   0.646
44984SOL    HW136791   9.393  10.803   0.579
44984SOL    HW236792   9.383  10.659   0.623
44985SOL     OW36793   9.798   1.610   7.393
44985SOL    HW136794   9.856   1.615   7.317
44985SOL    HW236795   9.758   1.524   7.387
44986SOL     OW36796   1.616   9.089   2.346
44986SOL    HW136797   1.611   9.068   2.439
44986SOL    HW236798   1.666   9.017   2.307
44987SOL     OW36799   2.558   9.209   8.281
44987SOL    HW136800   2.578   9.255   8.363
44987SOL    HW236801   2.641   9.205   8.235
44988SOL     OW36802   2.098  10.967   0.344
44988SOL    HW136803   2.011  10.936   0.369
44988SOL    HW236804   2.153  10.888   0.345
44989SOL     OW36805   7.219   2.941  11.818
44989SOL    HW136806   7.208   3.004  11.747
44989SOL    HW236807   7.312   2.921  11.820
44990SOL     OW36808  12.608   9.841   6.970
44990SOL    HW136809  12.585   9.748   6.979
44990SOL    HW236810  12.582   9.864   6.881
44991SOL     OW36811  13.768  10.818   7.965
44991SOL    HW136812  13.861  10.836   7.951
44991SOL    HW236813  13.762  10.795   8.057
44992SOL     OW36814   2.304  14.413   0.246
44992SOL    HW136815   2.345  14.499   0.236
44992SOL    HW236816   2.300  14.378   0.156
44993SOL     OW36817  10.599  13.360   0.224
44993SOL    HW136818  10.530  13.398   0.171
44993SOL    HW236819  10.628  13.431   0.282
44994SOL     OW36820   3.998  11.378  10.234
44994SOL    HW136821   4.027  11.438  10.302
44994SOL    HW236822   3.974  11.298  10.280
44995SOL     OW36823   5.352   8.789   9.037
44995SOL    HW136824   5.274   8.766   8.987
44995SOL    HW236825   5.414   8.718   9.020
44996SOL     OW36826  11.876   3.274  13.653
44996SOL    HW136827  11.843   3.210  13.590
44996SOL    HW236828  11.882   3.356  13.603
44997SOL     OW36829  13.985  10.925  13.251
44997SOL    HW136830  13.992  10.879  13.334
44997SOL    HW236831  14.061  10.897  13.201
44998SOL     OW36832   9.511   5.620  13.415
44998SOL    HW136833   9.514   5.570  13.333
44998SOL    HW236834   9.525   5.555  13.484
44999SOL     OW36835  12.729   5.990   7.033
44999SOL    HW136836  12.815   5.949   7.044
44999SOL    HW236837  12.714   5.988   6.938
45000SOL     OW36838   6.806   7.149  14.806
45000SOL    HW136839   6.862   7.152   0.004
45000SOL    HW236840   6.742   7.081  14.825
45001SOL     OW36841   1.916   5.105   8.912
45001SOL    HW136842   1.833   5.124   8.957
45001SOL    HW236843   1.906   5.016   8.879
45002SOL     OW36844   7.138   6.715  10.574
45002SOL    HW136845   7.171   6.636  10.530
45002SOL    HW236846   7.213   6.748  10.624
45003SOL     OW36847   3.212   0.852   2.310
45003SOL    HW136848   3.164   0.785   2.358
45003SOL    HW236849   3.178   0.935   2.343
45004SOL     OW36850   8.186  14.332   9.729
45004SOL    HW136851   8.269  14.375   9.751
45004SOL    HW236852   8.189  14.322   9.634
45005SOL     OW36853   8.040   8.013   2.038
45005SOL    HW136854   7.998   8.098   2.027
45005SOL    HW236855   8.066   8.010   2.130
45006SOL     OW36856   1.535   9.797  11.266
45006SOL    HW136857   1.507   9.736  11.334
45006SOL    HW236858   1.466   9.795  11.200
45007SOL     OW36859   9.079   3.562   2.588
45007SOL    HW136860   9.063   3.544   2.680
45007SOL    HW236861   9.098   3.476   2.549
45008SOL     OW36862   7.954   2.598   6.223
45008SOL    HW136863   8.028   2.657   6.206
45008SOL    HW236864   7.901   2.603   6.144
45009SOL     OW36865   2.445   0.932   1.767
45009SOL    HW136866   2.522   0.955   1.716
45009SOL    HW236867   2.404   0.860   1.718
45010SOL     OW36868   0.652   0.297   3.993
45010SOL    HW136869   0.676   0.323   3.904
45010SOL    HW236870   0.681   0.206   4.001
45011SOL     OW36871  11.708  10.977   1.082
45011SOL    HW136872  11.631  10.963   1.026
45011SOL    HW236873  11.754  10.894   1.079
45012SOL     OW36874  10.486   2.372  11.024
45012SOL    HW136875  10.514   2.295  11.073
45012SOL    HW236876  10.441   2.336  10.947
45013SOL     OW36877   2.378   0.052   6.927
45013SOL    HW136878   2.328   0.115   6.875
45013SOL    HW236879   2.344  14.846   6.898
45014SOL     OW36880   3.183   0.652   0.070
45014SOL    HW136881   3.123   0.582   0.098
45014SOL    HW236882   3.186   0.712   0.144
45015SOL     OW36883  12.240  13.461  12.228
45015SOL    HW136884  12.335  13.470  12.230
45015SOL    HW236885  12.223  13.370  12.252
45016SOL     OW36886   2.451  11.696  14.239
45016SOL    HW136887   2.544  11.692  14.261
45016SOL    HW236888   2.412  11.619  14.282
45017SOL     OW36889   4.925   5.599   1.347
45017SOL    HW136890   4.987   5.526   1.337
45017SOL    HW236891   4.969   5.659   1.408
45018SOL     OW36892   3.098  14.852   8.767
45018SOL    HW136893   3.121  14.764   8.797
45018SOL    HW236894   3.181   0.019   8.764
45019SOL     OW36895   0.286   2.430  13.951
45019SOL    HW136896   0.280   2.395  13.862
45019SOL    HW236897   0.336   2.364  13.999
45020SOL     OW36898   7.504  13.947   4.519
45020SOL    HW136899   7.433  13.934   4.581
45020SOL    HW236900   7.583  13.923   4.567
45021SOL     OW36901   9.042  10.023   0.686
45021SOL    HW136902   9.087  10.025   0.601
45021SOL    HW236903   9.092   9.961   0.739
45022SOL     OW36904  12.441   0.725   7.754
45022SOL    HW136905  12.387   0.744   7.831
45022SOL    HW236906  12.524   0.695   7.790
45023SOL     OW36907   0.534   3.757  10.821
45023SOL    HW136908   0.532   3.853  10.823
45023SOL    HW236909   0.609   3.735  10.767
45024SOL     OW36910  10.859   4.097   3.159
45024SOL    HW136911  10.931   4.128   3.214
45024SOL    HW236912  10.901   4.071   3.077
45025SOL     OW36913  14.320  14.766   6.950
45025SOL    HW136914  14.344  14.830   6.882
45025SOL    HW236915  14.228  14.784   6.968
45026SOL     OW36916   5.919   0.477   6.065
45026SOL    HW136917   5.850   0.531   6.026
45026SOL    HW236918   5.993   0.484   6.004
45027SOL     OW36919   8.546   0.935   6.656
45027SOL    HW136920   8.468   0.879   6.661
45027SOL    HW236921   8.570   0.951   6.747
45028SOL     OW36922  12.484  11.116   2.716
45028SOL    HW136923  12.486  11.050   2.646
45028SOL    HW236924  12.518  11.070   2.793
45029SOL     OW36925   8.062   2.151  12.626
45029SOL    HW136926   7.974   2.113  12.632
45029SOL    HW236927   8.120   2.084  12.662
45030SOL     OW36928   6.176   3.338   1.425
45030SOL    HW136929   6.135   3.255   1.400
45030SOL    HW236930   6.270   3.320   1.425
45031SOL     OW36931   8.395  11.759   4.361
45031SOL    HW136932   8.325  11.714   4.314
45031SOL    HW236933   8.357  11.781   4.445
45032SOL     OW36934  12.893   7.686  13.106
45032SOL    HW136935  12.902   7.612  13.045
45032SOL    HW236936  12.835   7.652  13.175
45033SOL     OW36937  10.643  13.756  12.056
45033SOL    HW136938  10.734  13.786  12.051
45033SOL    HW236939  10.620  13.763  12.149
45034SOL     OW36940  12.326   8.220   9.871
45034SOL    HW136941  12.377   8.141   9.890
45034SOL    HW236942  12.369   8.258   9.794
45035SOL     OW36943   4.499   4.772  10.908
45035SOL    HW136944   4.521   4.726  10.989
45035SOL    HW236945   4.410   4.804  10.922
45036SOL     OW36946  12.152   8.932  13.171
45036SOL    HW136947  12.187   8.961  13.255
45036SOL    HW236948  12.112   8.847  13.189
45037SOL     OW36949   3.234  10.718   5.400
45037SOL    HW136950   3.229  10.694   5.308
45037SOL    HW236951   3.154  10.770   5.416
45038SOL     OW36952   3.578   4.149   3.376
45038SOL    HW136953   3.566   4.238   3.344
45038SOL    HW236954   3.636   4.108   3.311
45039SOL     OW36955   7.226   0.038   9.793
45039SOL    HW136956   7.138   0.004   9.780
45039SOL    HW236957   7.237   0.103   9.723
45040SOL     OW36958   9.140  12.339   4.658
45040SOL    HW136959   9.087  12.312   4.583
45040SOL    HW236960   9.148  12.259   4.711
45041SOL     OW36961   7.649   6.883   4.687
45041SOL    HW136962   7.638   6.843   4.600
45041SOL    HW236963   7.562   6.918   4.708
45042SOL     OW36964  13.259   7.416   6.734
45042SOL    HW136965  13.355   7.414   6.736
45042SOL    HW236966  13.234   7.390   6.823
45043SOL     OW36967   9.757   1.992   0.291
45043SOL    HW136968   9.753   1.936   0.368
45043SOL    HW236969   9.668   1.994   0.257
45044SOL     OW36970  10.684  10.974   5.984
45044SOL    HW136971  10.701  11.068   5.994
45044SOL    HW236972  10.737  10.933   6.052
45045SOL     OW36973   5.261   3.658  14.781
45045SOL    HW136974   5.248   3.575  14.735
45045SOL    HW236975   5.330   3.641  14.844
45046SOL     OW36976   4.245  10.382   0.097
45046SOL    HW136977   4.182  10.312   0.079
45046SOL    HW236978   4.327  10.336   0.113
45047SOL     OW36979  11.199   4.250  12.527
45047SOL    HW136980  11.272   4.191  12.511
45047SOL    HW236981  11.140   4.237  12.452
45048SOL     OW36982   3.978  13.231   5.605
45048SOL    HW136983   3.918  13.192   5.670
45048SOL    HW236984   3.965  13.325   5.613
45049SOL     OW36985  11.780   0.499  11.506
45049SOL    HW136986  11.699   0.549  11.497
45049SOL    HW236987  11.776   0.435  11.435
45050SOL     OW36988   4.796   1.864   0.125
45050SOL    HW136989   4.758   1.785   0.086
45050SOL    HW236990   4.761   1.936   0.072
45051SOL     OW36991   8.312   9.220  11.717
45051SOL    HW136992   8.301   9.176  11.801
45051SOL    HW236993   8.369   9.162  11.667
45052SOL     OW36994  11.849   7.436   3.606
45052SOL    HW136995  11.843   7.361   3.547
45052SOL    HW236996  11.857   7.397   3.693
45053SOL     OW36997  13.885   3.976   7.740
45053SOL    HW136998  13.842   4.038   7.681
45053SOL    HW236999  13.890   4.023   7.823
45054SOL     OW37000  10.847   5.519   2.160
45054SOL    HW137001  10.910   5.481   2.099
45054SOL    HW237002  10.830   5.449   2.224
45055SOL     OW37003   6.445   7.036   7.775
45055SOL    HW137004   6.443   7.081   7.690
45055SOL    HW237005   6.518   7.076   7.822
45056SOL     OW37006  14.388   1.333   5.151
45056SOL    HW137007  14.307   1.313   5.197
45056SOL    HW237008  14.367   1.410   5.097
45057SOL     OW37009   2.679  10.471   9.413
45057SOL    HW137010   2.709  10.395   9.364
45057SOL    HW237011   2.633  10.434   9.489
45058SOL     OW37012   7.119   8.086  11.814
45058SOL    HW137013   7.066   8.122  11.885
45058SOL    HW237014   7.205   8.072  11.853
45059SOL     OW37015   0.442   8.743   7.429
45059SOL    HW137016   0.459   8.708   7.341
45059SOL    HW237017   0.465   8.671   7.488
45060SOL     OW37018   8.804  11.555   7.883
45060SOL    HW137019   8.733  11.619   7.881
45060SOL    HW237020   8.760  11.470   7.884
45061SOL     OW37021   6.844   6.060   1.867
45061SOL    HW137022   6.901   6.132   1.842
45061SOL    HW237023   6.767   6.101   1.907
45062SOL     OW37024   0.389   5.971   7.811
45062SOL    HW137025   0.327   5.945   7.744
45062SOL    HW237026   0.451   6.029   7.766
45063SOL     OW37027  13.546   0.401   9.630
45063SOL    HW137028  13.528   0.458   9.705
45063SOL    HW237029  13.481   0.427   9.564
45064SOL     OW37030  13.913   3.290   3.454
45064SOL    HW137031  13.838   3.339   3.421
45064SOL    HW237032  13.908   3.206   3.410
45065SOL     OW37033  10.026   0.653  14.021
45065SOL    HW137034  10.049   0.601  14.098
45065SOL    HW237035   9.935   0.678  14.036
45066SOL     OW37036   6.522   4.227  10.436
45066SOL    HW137037   6.530   4.307  10.383
45066SOL    HW237038   6.594   4.171  10.407
45067SOL     OW37039  12.274   8.024  12.226
45067SOL    HW137040  12.281   8.067  12.140
45067SOL    HW237041  12.325   8.080  12.284
45068SOL     OW37042   5.344   8.117   0.027
45068SOL    HW137043   5.373   8.195  14.860
45068SOL    HW237044   5.351   8.141   0.120
45069SOL     OW37045   9.773  13.415   1.167
45069SOL    HW137046   9.694  13.470   1.160
45069SOL    HW237047   9.755  13.341   1.109
45070SOL     OW37048   3.185   4.456   5.128
45070SOL    HW137049   3.107   4.452   5.184
45070SOL    HW237050   3.242   4.387   5.161
45071SOL     OW37051  12.379   0.389  11.019
45071SOL    HW137052  12.390   0.449  11.092
45071SOL    HW237053  12.437   0.422  10.951
45072SOL     OW37054  10.308   8.298   4.208
45072SOL    HW137055  10.279   8.383   4.241
45072SOL    HW237056  10.298   8.239   4.283
45073SOL     OW37057   1.484  13.655   0.621
45073SOL    HW137058   1.563  13.672   0.673
45073SOL    HW237059   1.439  13.585   0.668
45074SOL     OW37060  13.751  10.187   9.088
45074SOL    HW137061  13.775  10.273   9.053
45074SOL    HW237062  13.687  10.207   9.156
45075SOL     OW37063   1.291   6.466   1.350
45075SOL    HW137064   1.349   6.406   1.303
45075SOL    HW237065   1.207   6.459   1.304
45076SOL     OW37066   6.595  12.615  12.467
45076SOL    HW137067   6.534  12.687  12.449
45076SOL    HW237068   6.648  12.647  12.540
45077SOL     OW37069   6.805   8.990   6.950
45077SOL    HW137070   6.871   9.010   6.883
45077SOL    HW237071   6.802   9.068   7.005
45078SOL     OW37072   9.411  10.065   2.649
45078SOL    HW137073   9.417  10.087   2.556
45078SOL    HW237074   9.349   9.992   2.652
45079SOL     OW37075  14.068   4.152   4.192
45079SOL    HW137076  13.985   4.198   4.188
45079SOL    HW237077  14.133   4.219   4.212
45080SOL     OW37078  10.882   1.705  12.871
45080SOL    HW137079  10.916   1.788  12.837
45080SOL    HW237080  10.902   1.707  12.964
45081SOL     OW37081  11.295   5.110  11.496
45081SOL    HW137082  11.210   5.098  11.454
45081SOL    HW237083  11.277   5.165  11.572
45082SOL     OW37084   1.404   4.176   5.769
45082SOL    HW137085   1.422   4.268   5.750
45082SOL    HW237086   1.383   4.176   5.863
45083SOL     OW37087  11.565   0.890   2.408
45083SOL    HW137088  11.593   0.815   2.461
45083SOL    HW237089  11.595   0.967   2.457
45084SOL     OW37090   4.759   7.470  12.312
45084SOL    HW137091   4.686   7.452  12.253
45084SOL    HW237092   4.730   7.436  12.397
45085SOL     OW37093   1.046   0.952   3.945
45085SOL    HW137094   1.014   1.036   3.979
45085SOL    HW237095   0.979   0.889   3.971
45086SOL     OW37096  10.146  12.876   8.992
45086SOL    HW137097  10.235  12.872   9.026
45086SOL    HW237098  10.136  12.965   8.959
45087SOL     OW37099  10.521  13.616  11.471
45087SOL    HW137100  10.590  13.582  11.527
45087SOL    HW237101  10.534  13.571  11.387
45088SOL     OW37102   9.663  10.033   1.503
45088SOL    HW137103   9.641  10.105   1.562
45088SOL    HW237104   9.583  10.018   1.453
45089SOL     OW37105   6.217   6.634  10.857
45089SOL    HW137106   6.217   6.547  10.897
45089SOL    HW237107   6.206   6.617  10.763
45090SOL     OW37108  11.983   8.805   0.170
45090SOL    HW137109  11.895   8.811   0.133
45090SOL    HW237110  12.004   8.711   0.167
45091SOL     OW37111  13.585   5.406   5.036
45091SOL    HW137112  13.514   5.454   5.079
45091SOL    HW237113  13.618   5.466   4.970
45092SOL     OW37114   5.356   6.016   6.886
45092SOL    HW137115   5.376   5.984   6.798
45092SOL    HW237116   5.304   5.946   6.925
45093SOL     OW37117   1.134   5.409   5.149
45093SOL    HW137118   1.154   5.480   5.087
45093SOL    HW237119   1.193   5.424   5.222
45094SOL     OW37120   4.448   4.054   1.916
45094SOL    HW137121   4.517   4.094   1.969
45094SOL    HW237122   4.380   4.031   1.979
45095SOL     OW37123  14.065   1.069   8.954
45095SOL    HW137124  13.996   1.132   8.935
45095SOL    HW237125  14.114   1.108   9.027
45096SOL     OW37126   5.985  13.461   0.976
45096SOL    HW137127   5.997  13.464   0.881
45096SOL    HW237128   6.023  13.543   1.008
45097SOL     OW37129   2.116   4.738  12.891
45097SOL    HW137130   2.199   4.756  12.847
45097SOL    HW237131   2.134   4.753  12.984
45098SOL     OW37132   6.684   5.035  13.515
45098SOL    HW137133   6.637   5.066  13.437
45098SOL    HW237134   6.635   5.072  13.589
45099SOL     OW37135   9.202   2.559  13.022
45099SOL    HW137136   9.108   2.540  13.026
45099SOL    HW237137   9.243   2.484  13.066
45100SOL     OW37138  14.425  12.340   6.818
45100SOL    HW137139  14.462  12.428   6.807
45100SOL    HW237140  14.466  12.289   6.748
45101SOL     OW37141   2.657   2.270   0.261
45101SOL    HW137142   2.723   2.285   0.194
45101SOL    HW237143   2.577   2.250   0.212
45102SOL     OW37144  10.706  11.515  12.202
45102SOL    HW137145  10.657  11.567  12.138
45102SOL    HW237146  10.653  11.437  12.215
45103SOL     OW37147   7.281  12.345  10.715
45103SOL    HW137148   7.290  12.427  10.763
45103SOL    HW237149   7.361  12.338  10.663
45104SOL     OW37150  12.039   6.926   4.172
45104SOL    HW137151  12.021   6.894   4.261
45104SOL    HW237152  12.120   6.881   4.147
45105SOL     OW37153  14.481   5.140   1.528
45105SOL    HW137154  14.439   5.220   1.560
45105SOL    HW237155  14.430   5.069   1.567
45106SOL     OW37156   7.981  11.127  14.234
45106SOL    HW137157   7.966  11.093  14.322
45106SOL    HW237158   8.029  11.209  14.248
45107SOL     OW37159   6.200   5.720   2.335
45107SOL    HW137160   6.159   5.635   2.319
45107SOL    HW237161   6.221   5.720   2.428
45108SOL     OW37162   9.675   2.863   2.929
45108SOL    HW137163   9.731   2.930   2.890
45108SOL    HW237164   9.632   2.821   2.855
45109SOL     OW37165   8.133   1.222   6.334
45109SOL    HW137166   8.159   1.225   6.426
45109SOL    HW237167   8.185   1.151   6.296
45110SOL     OW37168  11.143  11.040   0.261
45110SOL    HW137169  11.096  11.062   0.342
45110SOL    HW237170  11.188  10.957   0.281
45111SOL     OW37171  13.942   8.873   4.297
45111SOL    HW137172  13.854   8.839   4.308
45111SOL    HW237173  13.943   8.907   4.207
45112SOL     OW37174   9.095   4.597   2.135
45112SOL    HW137175   9.062   4.511   2.162
45112SOL    HW237176   9.189   4.586   2.126
45113SOL     OW37177   4.058  11.312   8.061
45113SOL    HW137178   4.132  11.371   8.045
45113SOL    HW237179   4.098  11.225   8.066
45114SOL     OW37180   5.200  13.443  10.680
45114SOL    HW137181   5.206  13.416  10.589
45114SOL    HW237182   5.107  13.461  10.694
45115SOL     OW37183  14.030   9.685  12.025
45115SOL    HW137184  14.059   9.773  12.002
45115SOL    HW237185  14.092   9.656  12.092
45116SOL     OW37186   1.506   5.868   1.735
45116SOL    HW137187   1.585   5.838   1.781
45116SOL    HW237188   1.474   5.790   1.689
45117SOL     OW37189  14.172  10.198   3.852
45117SOL    HW137190  14.097  10.178   3.798
45117SOL    HW237191  14.137  10.208   3.940
45118SOL     OW37192   9.444   2.712   8.128
45118SOL    HW137193   9.499   2.789   8.119
45118SOL    HW237194   9.357   2.747   8.150
45119SOL     OW37195   7.467   0.629   6.062
45119SOL    HW137196   7.398   0.666   6.006
45119SOL    HW237197   7.445   0.536   6.068
45120SOL     OW37198  11.658  11.766   3.328
45120SOL    HW137199  11.646  11.780   3.234
45120SOL    HW237200  11.738  11.714   3.335
45121SOL     OW37201   2.080  14.251   3.703
45121SOL    HW137202   2.100  14.232   3.795
45121SOL    HW237203   2.021  14.326   3.707
45122SOL     OW37204   9.952   5.677   8.723
45122SOL    HW137205   9.904   5.712   8.799
45122SOL    HW237206  10.042   5.669   8.754
45123SOL     OW37207  14.151  14.468   7.651
45123SOL    HW137208  14.100  14.393   7.682
45123SOL    HW237209  14.227  14.429   7.609
45124SOL     OW37210   9.434   1.155   6.921
45124SOL    HW137211   9.526   1.151   6.947
45124SOL    HW237212   9.426   1.237   6.872
45125SOL     OW37213   8.508   6.030   9.416
45125SOL    HW137214   8.588   6.059   9.371
45125SOL    HW237215   8.437   6.053   9.355
45126SOL     OW37216  11.520   3.659  11.950
45126SOL    HW137217  11.609   3.674  11.921
45126SOL    HW237218  11.529   3.599  12.025
45127SOL     OW37219   2.825   8.789   7.034
45127SOL    HW137220   2.890   8.727   7.002
45127SOL    HW237221   2.875   8.851   7.088
45128SOL     OW37222   0.029  10.923  11.024
45128SOL    HW137223   0.073  10.945  10.941
45128SOL    HW237224   0.016  10.828  11.021
45129SOL     OW37225  11.222   0.029   5.318
45129SOL    HW137226  11.217   0.118   5.353
45129SOL    HW237227  11.208  14.852   5.395
45130SOL     OW37228   6.617   0.683  11.971
45130SOL    HW137229   6.640   0.674  12.064
45130SOL    HW237230   6.694   0.722  11.931
45131SOL     OW37231   6.140   5.331   8.174
45131SOL    HW137232   6.137   5.346   8.079
45131SOL    HW237233   6.103   5.243   8.185
45132SOL     OW37234  11.779  11.676   4.769
45132SOL    HW137235  11.870  11.673   4.737
45132SOL    HW237236  11.738  11.599   4.730
45133SOL     OW37237   7.453   2.082   8.623
45133SOL    HW137238   7.538   2.078   8.579
45133SOL    HW237239   7.390   2.088   8.551
45134SOL     OW37240   2.280  13.341   2.938
45134SOL    HW137241   2.205  13.282   2.943
45134SOL    HW237242   2.333  13.320   3.015
45135SOL     OW37243  11.799   9.763   2.502
45135SOL    HW137244  11.781   9.753   2.408
45135SOL    HW237245  11.877   9.818   2.505
45136SOL     OW37246   7.265  13.152  12.316
45136SOL    HW137247   7.314  13.232  12.298
45136SOL    HW237248   7.323  13.082  12.285
45137SOL     OW37249   2.425  11.798   9.521
45137SOL    HW137250   2.394  11.787   9.431
45137SOL    HW237251   2.382  11.877   9.552
45138SOL     OW37252  11.424   7.151   7.889
45138SOL    HW137253  11.353   7.095   7.858
45138SOL    HW237254  11.490   7.090   7.922
45139SOL     OW37255  13.147   8.974   9.061
45139SOL    HW137256  13.242   8.976   9.065
45139SOL    HW237257  13.126   9.016   8.977
45140SOL     OW37258   5.750  14.555  10.416
45140SOL    HW137259   5.772  14.592  10.330
45140SOL    HW237260   5.656  14.540  10.413
45141SOL     OW37261  13.056   1.472  10.267
45141SOL    HW137262  13.116   1.538  10.302
45141SOL    HW237263  13.111   1.420  10.208
45142SOL     OW37264  13.382  14.301   7.874
45142SOL    HW137265  13.307  14.258   7.833
45142SOL    HW237266  13.406  14.370   7.812
45143SOL     OW37267  14.653  10.585  13.593
45143SOL    HW137268  14.562  10.559  13.582
45143SOL    HW237269  14.649  10.667  13.643
45144SOL     OW37270  12.386   4.633   5.564
45144SOL    HW137271  12.424   4.709   5.522
45144SOL    HW237272  12.437   4.559   5.532
45145SOL     OW37273   9.202   4.473   6.441
45145SOL    HW137274   9.269   4.440   6.501
45145SOL    HW237275   9.241   4.465   6.354
45146SOL     OW37276  10.107   5.771  10.186
45146SOL    HW137277  10.154   5.713  10.127
45146SOL    HW237278  10.144   5.858  10.168
45147SOL     OW37279  11.739  11.906  12.294
45147SOL    HW137280  11.711  11.877  12.381
45147SOL    HW237281  11.690  11.987  12.279
45148SOL     OW37282  13.385   0.574   5.920
45148SOL    HW137283  13.478   0.554   5.908
45148SOL    HW237284  13.377   0.598   6.012
45149SOL     OW37285   5.873  14.066   8.924
45149SOL    HW137286   5.925  14.048   8.845
45149SOL    HW237287   5.817  13.989   8.934
45150SOL     OW37288   8.347  12.113   2.481
45150SOL    HW137289   8.352  12.151   2.569
45150SOL    HW237290   8.398  12.172   2.427
45151SOL     OW37291   3.229   2.609  14.443
45151SOL    HW137292   3.304   2.574  14.395
45151SOL    HW237293   3.168   2.535  14.448
45152SOL     OW37294   3.987   8.205   7.312
45152SOL    HW137295   3.934   8.262   7.368
45152SOL    HW237296   4.018   8.263   7.242
45153SOL     OW37297  12.844   4.450  12.471
45153SOL    HW137298  12.918   4.505  12.496
45153SOL    HW237299  12.769   4.509  12.474
45154SOL     OW37300   9.414   8.917  13.422
45154SOL    HW137301   9.491   8.884  13.468
45154SOL    HW237302   9.350   8.846  13.429
45155SOL     OW37303   8.880   6.402   3.905
45155SOL    HW137304   8.956   6.428   3.854
45155SOL    HW237305   8.813   6.380   3.840
45156SOL     OW37306   7.738   7.404  12.708
45156SOL    HW137307   7.758   7.422  12.800
45156SOL    HW237308   7.803   7.338  12.683
45157SOL     OW37309   9.321  14.269   3.573
45157SOL    HW137310   9.315  14.353   3.620
45157SOL    HW237311   9.388  14.220   3.621
45158SOL     OW37312   3.874   1.736   3.630
45158SOL    HW137313   3.879   1.824   3.666
45158SOL    HW237314   3.855   1.680   3.705
45159SOL     OW37315  11.735  14.841  12.608
45159SOL    HW137316  11.704  14.801  12.689
45159SOL    HW237317  11.830  14.832  12.611
45160SOL     OW37318   0.611   1.332   8.922
45160SOL    HW137319   0.578   1.359   8.836
45160SOL    HW237320   0.667   1.256   8.902
45161SOL     OW37321  13.829   5.035   7.849
45161SOL    HW137322  13.773   5.063   7.777
45161SOL    HW237323  13.769   5.001   7.915
45162SOL     OW37324   7.469   8.131   5.281
45162SOL    HW137325   7.543   8.150   5.339
45162SOL    HW237326   7.392   8.133   5.339
45163SOL     OW37327   9.967  10.368   9.700
45163SOL    HW137328   9.968  10.387   9.606
45163SOL    HW237329   9.916  10.287   9.707
45164SOL     OW37330  12.289   3.723   2.926
45164SOL    HW137331  12.377   3.699   2.951
45164SOL    HW237332  12.296   3.815   2.898
45165SOL     OW37333  10.762   5.723   0.039
45165SOL    HW137334  10.817   5.755  14.848
45165SOL    HW237335  10.721   5.644   0.004
45166SOL     OW37336   4.846   3.921   5.857
45166SOL    HW137337   4.841   4.015   5.871
45166SOL    HW237338   4.914   3.910   5.790
45167SOL     OW37339   5.921   7.948   4.557
45167SOL    HW137340   5.903   8.026   4.609
45167SOL    HW237341   5.865   7.880   4.595
45168SOL     OW37342   4.512   5.178   8.997
45168SOL    HW137343   4.502   5.086   8.975
45168SOL    HW237344   4.509   5.224   8.912
45169SOL     OW37345   7.450   5.294  12.192
45169SOL    HW137346   7.492   5.375  12.219
45169SOL    HW237347   7.510   5.255  12.128
45170SOL     OW37348   7.635   6.028   4.609
45170SOL    HW137349   7.622   5.962   4.542
45170SOL    HW237350   7.730   6.042   4.611
45171SOL     OW37351   2.292   9.586   2.712
45171SOL    HW137352   2.342   9.628   2.642
45171SOL    HW237353   2.221   9.648   2.731
45172SOL     OW37354   3.576   4.098   6.569
45172SOL    HW137355   3.613   4.030   6.514
45172SOL    HW237356   3.611   4.180   6.533
45173SOL     OW37357  11.424  10.256   3.818
45173SOL    HW137358  11.359  10.312   3.775
45173SOL    HW237359  11.490  10.241   3.751
45174SOL     OW37360  14.574   8.137   9.954
45174SOL    HW137361  14.601   8.138  10.046
45174SOL    HW237362  14.630   8.070   9.914
45175SOL     OW37363   8.305   5.196   1.534
45175SOL    HW137364   8.386   5.208   1.584
45175SOL    HW237365   8.236   5.233   1.591
45176SOL     OW37366   4.040  11.850   9.978
45176SOL    HW137367   4.067  11.763  10.006
45176SOL    HW237368   4.013  11.839   9.887
45177SOL     OW37369  10.209   6.784   0.432
45177SOL    HW137370  10.179   6.790   0.522
45177SOL    HW237371  10.137   6.740   0.386
45178SOL     OW37372   9.667   3.357   5.517
45178SOL    HW137373   9.658   3.278   5.463
45178SOL    HW237374   9.736   3.407   5.474
45179SOL     OW37375   5.358   4.203  11.370
45179SOL    HW137376   5.350   4.298  11.377
45179SOL    HW237377   5.418   4.189  11.297
45180SOL     OW37378  10.747   2.927  13.363
45180SOL    HW137379  10.773   2.874  13.438
45180SOL    HW237380  10.687   2.871  13.314
45181SOL     OW37381  12.918   3.852   9.451
45181SOL    HW137382  12.998   3.806   9.424
45181SOL    HW237383  12.921   3.935   9.402
45182SOL     OW37384   4.884   6.389   9.929
45182SOL    HW137385   4.825   6.392   9.854
45182SOL    HW237386   4.881   6.478   9.965
45183SOL     OW37387   3.991   4.502   5.621
45183SOL    HW137388   3.984   4.427   5.562
45183SOL    HW237389   3.925   4.486   5.688
45184SOL     OW37390   8.895  10.225  14.297
45184SOL    HW137391   8.823  10.165  14.280
45184SOL    HW237392   8.911  10.217  14.392
45185SOL     OW37393   6.647   4.994   9.329
45185SOL    HW137394   6.576   5.014   9.269
45185SOL    HW237395   6.658   4.899   9.323
45186SOL     OW37396   7.646   6.143   3.063
45186SOL    HW137397   7.715   6.079   3.043
45186SOL    HW237398   7.678   6.225   3.027
45187SOL     OW37399   9.337   6.612   1.553
45187SOL    HW137400   9.290   6.564   1.621
45187SOL    HW237401   9.268   6.648   1.497
45188SOL     OW37402   6.528  10.437  10.565
45188SOL    HW137403   6.599  10.467  10.508
45188SOL    HW237404   6.516  10.345  10.542
45189SOL     OW37405   0.947  12.536   3.178
45189SOL    HW137406   0.854  12.520   3.187
45189SOL    HW237407   0.956  12.578   3.092
45190SOL     OW37408   4.483   0.021   7.664
45190SOL    HW137409   4.402   0.067   7.644
45190SOL    HW237410   4.542   0.088   7.699
45191SOL     OW37411   6.349  12.791   7.289
45191SOL    HW137412   6.336  12.732   7.364
45191SOL    HW237413   6.262  12.826   7.271
45192SOL     OW37414  13.956   3.834   8.118
45192SOL    HW137415  13.981   3.768   8.054
45192SOL    HW237416  13.864   3.853   8.099
45193SOL     OW37417   7.257   9.697   6.268
45193SOL    HW137418   7.199   9.658   6.334
45193SOL    HW237419   7.246   9.643   6.190
45194SOL     OW37420   4.236   1.633   8.611
45194SOL    HW137421   4.161   1.675   8.652
45194SOL    HW237422   4.312   1.673   8.654
45195SOL     OW37423   6.306   9.691   3.853
45195SOL    HW137424   6.242   9.635   3.809
45195SOL    HW237425   6.273   9.780   3.841
45196SOL     OW37426  10.406   0.146  13.488
45196SOL    HW137427  10.484   0.160  13.541
45196SOL    HW237428  10.379   0.233  13.460
45197SOL     OW37429  11.710  13.206   2.501
45197SOL    HW137430  11.781  13.185   2.441
45197SOL    HW237431  11.752  13.257   2.571
45198SOL     OW37432   0.223  10.697   9.040
45198SOL    HW137433   0.171  10.700   8.959
45198SOL    HW237434   0.293  10.635   9.020
45199SOL     OW37435   6.331  11.221   9.745
45199SOL    HW137436   6.407  11.171   9.716
45199SOL    HW237437   6.281  11.160   9.799
45200SOL     OW37438   9.666   3.696  13.539
45200SOL    HW137439   9.685   3.682  13.632
45200SOL    HW237440   9.751   3.695  13.496
45201SOL     OW37441  10.729   9.690   9.578
45201SOL    HW137442  10.757   9.602   9.602
45201SOL    HW237443  10.802   9.747   9.604
45202SOL     OW37444   0.848   5.868   4.539
45202SOL    HW137445   0.800   5.792   4.504
45202SOL    HW237446   0.869   5.844   4.629
45203SOL     OW37447  12.753   0.804  12.205
45203SOL    HW137448  12.757   0.898  12.225
45203SOL    HW237449  12.701   0.766  12.276
45204SOL     OW37450   6.512  11.748   6.937
45204SOL    HW137451   6.582  11.735   6.873
45204SOL    HW237452   6.471  11.662   6.945
45205SOL     OW37453  10.187   2.060  11.817
45205SOL    HW137454  10.264   2.005  11.803
45205SOL    HW237455  10.224   2.147  11.834
45206SOL     OW37456   9.165  11.011  13.932
45206SOL    HW137457   9.128  11.063  14.003
45206SOL    HW237458   9.198  11.076  13.870
45207SOL     OW37459  13.594   8.876   5.951
45207SOL    HW137460  13.605   8.964   5.914
45207SOL    HW237461  13.600   8.818   5.875
45208SOL     OW37462   5.408   9.030   8.179
45208SOL    HW137463   5.427   8.981   8.099
45208SOL    HW237464   5.314   9.018   8.193
45209SOL     OW37465   2.162   8.197   4.371
45209SOL    HW137466   2.149   8.289   4.346
45209SOL    HW237467   2.124   8.147   4.298
45210SOL     OW37468   0.605   4.508  11.971
45210SOL    HW137469   0.530   4.558  12.004
45210SOL    HW237470   0.676   4.528  12.032
45211SOL     OW37471  10.715   0.527   2.735
45211SOL    HW137472  10.676   0.493   2.815
45211SOL    HW237473  10.810   0.517   2.748
45212SOL     OW37474   0.271   5.150   1.085
45212SOL    HW137475   0.249   5.212   1.154
45212SOL    HW237476   0.187   5.110   1.062
45213SOL     OW37477  10.976  11.054  12.693
45213SOL    HW137478  10.915  11.095  12.754
45213SOL    HW237479  10.926  10.984  12.651
45214SOL     OW37480   0.144  13.000   2.691
45214SOL    HW137481   0.115  13.083   2.728
45214SOL    HW237482   0.064  12.949   2.681
45215SOL     OW37483   2.713   1.116   9.233
45215SOL    HW137484   2.764   1.197   9.239
45215SOL    HW237485   2.695   1.093   9.324
45216SOL     OW37486   9.251   9.785   6.995
45216SOL    HW137487   9.250   9.690   6.986
45216SOL    HW237488   9.163   9.807   7.026
45217SOL     OW37489   9.576   0.121  14.362
45217SOL    HW137490   9.587   0.165  14.446
45217SOL    HW237491   9.493   0.076  14.369
45218SOL     OW37492  11.626   0.230  12.583
45218SOL    HW137493  11.672   0.153  12.619
45218SOL    HW237494  11.584   0.198  12.504
45219SOL     OW37495   5.721   0.687   1.792
45219SOL    HW137496   5.722   0.748   1.718
45219SOL    HW237497   5.717   0.601   1.752
45220SOL     OW37498   5.616  11.716   6.830
45220SOL    HW137499   5.685  11.715   6.764
45220SOL    HW237500   5.624  11.802   6.872
45221SOL     OW37501  14.286   1.881  13.987
45221SOL    HW137502  14.248   1.941  13.923
45221SOL    HW237503  14.327   1.812  13.935
45222SOL     OW37504   8.970   3.212  13.436
45222SOL    HW137505   9.030   3.202  13.510
45222SOL    HW237506   8.967   3.126  13.395
45223SOL     OW37507   1.980   4.643  11.102
45223SOL    HW137508   1.928   4.592  11.165
45223SOL    HW237509   2.034   4.578  11.058
45224SOL     OW37510   3.712  12.071   2.148
45224SOL    HW137511   3.751  11.987   2.171
45224SOL    HW237512   3.627  12.071   2.193
45225SOL     OW37513   3.189   9.626  11.017
45225SOL    HW137514   3.179   9.695  10.952
45225SOL    HW237515   3.175   9.545  10.968
45226SOL     OW37516  13.830   2.833   8.972
45226SOL    HW137517  13.802   2.742   8.960
45226SOL    HW237518  13.773   2.865   9.043
45227SOL     OW37519   8.402  13.491  10.551
45227SOL    HW137520   8.365  13.433  10.484
45227SOL    HW237521   8.333  13.499  10.617
45228SOL     OW37522   2.373   6.898   1.924
45228SOL    HW137523   2.295   6.953   1.920
45228SOL    HW237524   2.439   6.947   1.875
45229SOL     OW37525   1.814  11.474  13.527
45229SOL    HW137526   1.888  11.503  13.581
45229SOL    HW237527   1.745  11.452  13.590
45230SOL     OW37528   1.999  10.752   2.444
45230SOL    HW137529   2.033  10.670   2.408
45230SOL    HW237530   2.068  10.782   2.503
45231SOL     OW37531   2.975  13.407  11.558
45231SOL    HW137532   3.036  13.449  11.497
45231SOL    HW237533   2.900  13.383  11.504
45232SOL     OW37534   7.921  11.492   6.819
45232SOL    HW137535   7.871  11.427   6.869
45232SOL    HW237536   7.855  11.553   6.787
45233SOL     OW37537  11.279  14.826   0.151
45233SOL    HW137538  11.357   0.001   0.159
45233SOL    HW237539  11.217  14.864   0.213
45234SOL     OW37540   1.939  14.797   1.036
45234SOL    HW137541   1.936  14.783   0.941
45234SOL    HW237542   1.848  14.801   1.063
45235SOL     OW37543   3.548   9.196   3.217
45235SOL    HW137544   3.577   9.173   3.129
45235SOL    HW237545   3.485   9.267   3.204
45236SOL     OW37546   5.287   3.006   9.642
45236SOL    HW137547   5.224   2.967   9.703
45236SOL    HW237548   5.259   3.097   9.634
45237SOL     OW37549  13.960   8.363  12.976
45237SOL    HW137550  13.938   8.425  12.905
45237SOL    HW237551  13.876   8.349  13.021
45238SOL     OW37552  11.355   0.103  11.475
45238SOL    HW137553  11.403   0.038  11.526
45238SOL    HW237554  11.365   0.074  11.384
45239SOL     OW37555   7.402  12.376   9.771
45239SOL    HW137556   7.385  12.385   9.865
45239SOL    HW237557   7.479  12.320   9.766
45240SOL     OW37558   2.551  14.748  13.099
45240SOL    HW137559   2.587  14.822  13.051
45240SOL    HW237560   2.464  14.777  13.126
45241SOL     OW37561   5.755   8.001  13.074
45241SOL    HW137562   5.819   8.053  13.122
45241SOL    HW237563   5.801   7.971  12.996
45242SOL     OW37564   3.370   8.083  13.511
45242SOL    HW137565   3.314   8.084  13.433
45242SOL    HW237566   3.355   7.997  13.550
45243SOL     OW37567   3.228   7.590   7.301
45243SOL    HW137568   3.156   7.560   7.246
45243SOL    HW237569   3.195   7.670   7.342
45244SOL     OW37570   0.552   2.282   3.462
45244SOL    HW137571   0.604   2.235   3.398
45244SOL    HW237572   0.495   2.339   3.409
45245SOL     OW37573  12.641   0.172   7.242
45245SOL    HW137574  12.647   0.078   7.261
45245SOL    HW237575  12.722   0.208   7.278
45246SOL     OW37576  12.498  12.444  10.386
45246SOL    HW137577  12.514  12.405  10.472
45246SOL    HW237578  12.559  12.517  10.381
45247SOL     OW37579   4.750   1.776   2.976
45247SOL    HW137580   4.836   1.818   2.973
45247SOL    HW237581   4.701   1.827   3.040
45248SOL     OW37582   2.196   2.165   4.685
45248SOL    HW137583   2.111   2.136   4.654
45248SOL    HW237584   2.177   2.237   4.745
45249SOL     OW37585  11.103  10.668   4.306
45249SOL    HW137586  11.026  10.712   4.341
45249SOL    HW237587  11.069  10.604   4.243
45250SOL     OW37588   2.262   1.748   0.060
45250SOL    HW137589   2.285   1.761   0.152
45250SOL    HW237590   2.169   1.726   0.060
45251SOL     OW37591   9.960   8.709   1.499
45251SOL    HW137592   9.978   8.800   1.477
45251SOL    HW237593   9.984   8.701   1.592
45252SOL     OW37594   1.609   4.304   3.999
45252SOL    HW137595   1.552   4.361   4.052
45252SOL    HW237596   1.674   4.270   4.061
45253SOL     OW37597   1.469   5.180   1.724
45253SOL    HW137598   1.493   5.259   1.773
45253SOL    HW237599   1.530   5.113   1.754
45254SOL     OW37600   0.703   9.257   0.763
45254SOL    HW137601   0.680   9.247   0.856
45254SOL    HW237602   0.668   9.343   0.740
45255SOL     OW37603   9.320   7.393   5.131
45255SOL    HW137604   9.396   7.395   5.190
45255SOL    HW237605   9.322   7.306   5.092
45256SOL     OW37606   0.854   9.044   3.328
45256SOL    HW137607   0.797   8.987   3.276
45256SOL    HW237608   0.822   9.035   3.418
45257SOL     OW37609   7.329  12.736   6.048
45257SOL    HW137610   7.282  12.819   6.045
45257SOL    HW237611   7.317  12.705   6.138
45258SOL     OW37612   7.696  10.262   1.854
45258SOL    HW137613   7.706  10.330   1.787
45258SOL    HW237614   7.706  10.180   1.805
45259SOL     OW37615   8.579   6.701   0.609
45259SOL    HW137616   8.518   6.673   0.542
45259SOL    HW237617   8.534   6.772   0.655
45260SOL     OW37618   7.543   2.446   1.610
45260SOL    HW137619   7.561   2.352   1.604
45260SOL    HW237620   7.615   2.481   1.664
45261SOL     OW37621  12.816  12.454   3.677
45261SOL    HW137622  12.722  12.470   3.687
45261SOL    HW237623  12.848  12.443   3.767
45262SOL     OW37624   6.102  14.058   9.641
45262SOL    HW137625   6.104  14.014   9.556
45262SOL    HW237626   6.176  14.022   9.689
45263SOL     OW37627   2.873   8.985   0.841
45263SOL    HW137628   2.945   8.987   0.904
45263SOL    HW237629   2.842   9.075   0.838
45264SOL     OW37630  12.242  11.126   0.525
45264SOL    HW137631  12.176  11.077   0.576
45264SOL    HW237632  12.233  11.092   0.436
45265SOL     OW37633  10.171   3.093   6.965
45265SOL    HW137634  10.092   3.147   6.961
45265SOL    HW237635  10.154   3.030   7.035
45266SOL     OW37636   8.420   6.177   8.447
45266SOL    HW137637   8.406   6.143   8.535
45266SOL    HW237638   8.469   6.107   8.403
45267SOL     OW37639   7.756   6.382   9.347
45267SOL    HW137640   7.733   6.466   9.307
45267SOL    HW237641   7.681   6.359   9.402
45268SOL     OW37642  12.604   0.586   4.858
45268SOL    HW137643  12.651   0.661   4.822
45268SOL    HW237644  12.581   0.532   4.783
45269SOL     OW37645   9.010   0.637   4.338
45269SOL    HW137646   9.026   0.695   4.263
45269SOL    HW237647   9.056   0.680   4.411
45270SOL     OW37648   2.785   5.835   2.523
45270SOL    HW137649   2.812   5.862   2.435
45270SOL    HW237650   2.744   5.913   2.560
45271SOL     OW37651   7.515  11.739   3.939
45271SOL    HW137652   7.585  11.780   3.888
45271SOL    HW237653   7.436  11.788   3.914
45272SOL     OW37654   0.660   9.704   2.097
45272SOL    HW137655   0.634   9.624   2.050
45272SOL    HW237656   0.658   9.772   2.031
45273SOL     OW37657   4.299  13.742  12.154
45273SOL    HW137658   4.301  13.822  12.207
45273SOL    HW237659   4.234  13.686  12.196
45274SOL     OW37660   1.731   2.703  12.991
45274SOL    HW137661   1.819   2.665  12.989
45274SOL    HW237662   1.673   2.631  12.966
45275SOL     OW37663   8.288   0.059  10.494
45275SOL    HW137664   8.328   0.012  10.568
45275SOL    HW237665   8.280   0.149  10.524
45276SOL     OW37666   5.554   1.571  14.733
45276SOL    HW137667   5.635   1.521  14.741
45276SOL    HW237668   5.565   1.621  14.651
45277SOL     OW37669   7.113  11.096  11.144
45277SOL    HW137670   7.159  11.015  11.167
45277SOL    HW237671   7.181  11.152  11.106
45278SOL     OW37672   1.047  12.708   0.006
45278SOL    HW137673   1.097  12.631  14.857
45278SOL    HW237674   1.102  12.749   0.072
45279SOL     OW37675  14.406   8.414   5.779
45279SOL    HW137676  14.424   8.508   5.771
45279SOL    HW237677  14.429   8.378   5.693
45280SOL     OW37678  12.223  12.261   8.629
45280SOL    HW137679  12.311  12.299   8.632
45280SOL    HW237680  12.217  12.221   8.543
45281SOL     OW37681   6.525   4.436   5.141
45281SOL    HW137682   6.504   4.373   5.072
45281SOL    HW237683   6.581   4.501   5.098
45282SOL     OW37684  12.982   7.626   0.572
45282SOL    HW137685  12.976   7.620   0.476
45282SOL    HW237686  13.055   7.569   0.595
45283SOL     OW37687   7.438  10.905   6.122
45283SOL    HW137688   7.346  10.883   6.136
45283SOL    HW237689   7.482  10.874   6.202
45284SOL     OW37690   3.193  10.015   4.428
45284SOL    HW137691   3.250  10.030   4.353
45284SOL    HW237692   3.225   9.932   4.466
45285SOL     OW37693  14.395  11.140   5.641
45285SOL    HW137694  14.330  11.081   5.678
45285SOL    HW237695  14.398  11.117   5.548
45286SOL     OW37696  14.157  10.465   1.774
45286SOL    HW137697  14.212  10.489   1.699
45286SOL    HW237698  14.096  10.400   1.739
45287SOL     OW37699  11.550   0.680  12.207
45287SOL    HW137700  11.644   0.681  12.191
45287SOL    HW237701  11.538   0.741  12.280
45288SOL     OW37702   7.397   4.013   6.121
45288SOL    HW137703   7.311   4.001   6.160
45288SOL    HW237704   7.388   4.092   6.067
45289SOL     OW37705   8.904   9.724   7.706
45289SOL    HW137706   8.873   9.697   7.619
45289SOL    HW237707   8.860   9.808   7.721
45290SOL     OW37708  10.851  12.941  13.939
45290SOL    HW137709  10.783  12.874  13.931
45290SOL    HW237710  10.877  12.938  14.031
45291SOL     OW37711  13.471   5.669  12.162
45291SOL    HW137712  13.521   5.747  12.136
45291SOL    HW237713  13.417   5.699  12.236
45292SOL     OW37714   9.838   6.372   7.412
45292SOL    HW137715   9.854   6.279   7.399
45292SOL    HW237716   9.791   6.400   7.333
45293SOL     OW37717   5.670   9.335   4.150
45293SOL    HW137718   5.595   9.325   4.091
45293SOL    HW237719   5.641   9.296   4.232
45294SOL     OW37720  12.838   9.369   7.391
45294SOL    HW137721  12.805   9.282   7.368
45294SOL    HW237722  12.799   9.387   7.477
45295SOL     OW37723  14.090   6.384   2.774
45295SOL    HW137724  14.169   6.431   2.748
45295SOL    HW237725  14.056   6.434   2.848
45296SOL     OW37726  14.701   6.438  14.867
45296SOL    HW137727  14.699   6.461  14.774
45296SOL    HW237728  14.614   6.462   0.020
45297SOL     OW37729   2.760  11.651   8.038
45297SOL    HW137730   2.795  11.572   8.081
45297SOL    HW237731   2.768  11.632   7.945
45298SOL     OW37732   9.631  11.960   2.694
45298SOL    HW137733   9.702  11.988   2.752
45298SOL    HW237734   9.610  11.871   2.722
45299SOL     OW37735   2.056   2.104   2.170
45299SOL    HW137736   2.002   2.029   2.143
45299SOL    HW237737   1.996   2.160   2.219
45300SOL     OW37738   4.854  14.170  12.561
45300SOL    HW137739   4.888  14.167  12.651
45300SOL    HW237740   4.926  14.140  12.507
45301SOL     OW37741   7.735   7.706  14.716
45301SOL    HW137742   7.745   7.694  14.622
45301SOL    HW237743   7.779   7.789  14.735
45302SOL     OW37744   6.590   7.049   3.777
45302SOL    HW137745   6.590   7.091   3.863
45302SOL    HW237746   6.527   7.099   3.726
45303SOL     OW37747   3.090   0.805  14.268
45303SOL    HW137748   3.063   0.818  14.358
45303SOL    HW237749   3.177   0.766  14.274
45304SOL     OW37750  12.728   9.048   0.584
45304SOL    HW137751  12.787   8.981   0.551
45304SOL    HW237752  12.656   9.000   0.624
45305SOL     OW37753   8.628   7.391  10.245
45305SOL    HW137754   8.654   7.345  10.325
45305SOL    HW237755   8.682   7.470  10.245
45306SOL     OW37756   4.465   0.157   0.113
45306SOL    HW137757   4.391   0.114   0.156
45306SOL    HW237758   4.539   0.100   0.131
45307SOL     OW37759   3.980  12.726   8.059
45307SOL    HW137760   3.935  12.810   8.066
45307SOL    HW237761   4.056  12.743   8.005
45308SOL     OW37762   9.566  13.196   9.242
45308SOL    HW137763   9.532  13.120   9.289
45308SOL    HW237764   9.512  13.203   9.164
45309SOL     OW37765   0.020   5.247  11.801
45309SOL    HW137766   0.105   5.263  11.761
45309SOL    HW237767  14.837   5.259  11.729
45310SOL     OW37768   9.726   7.215  12.391
45310SOL    HW137769   9.651   7.185  12.442
45310SOL    HW237770   9.797   7.222  12.455
45311SOL     OW37771   8.934  14.274   8.330
45311SOL    HW137772   8.905  14.361   8.357
45311SOL    HW237773   8.996  14.246   8.397
45312SOL     OW37774   6.881  13.370   9.910
45312SOL    HW137775   6.820  13.359   9.983
45312SOL    HW237776   6.961  13.324   9.938
45313SOL     OW37777   3.193   9.144  11.737
45313SOL    HW137778   3.201   9.049  11.750
45313SOL    HW237779   3.263   9.165  11.675
45314SOL     OW37780   5.883   3.358  10.781
45314SOL    HW137781   5.839   3.441  10.762
45314SOL    HW237782   5.975   3.382  10.789
45315SOL     OW37783   2.362   1.760  14.657
45315SOL    HW137784   2.369   1.664  14.650
45315SOL    HW237785   2.312   1.774  14.737
45316SOL     OW37786   5.375   1.973  11.850
45316SOL    HW137787   5.434   1.964  11.925
45316SOL    HW237788   5.345   1.884  11.832
45317SOL     OW37789   1.783   0.313   8.377
45317SOL    HW137790   1.724   0.238   8.368
45317SOL    HW237791   1.732   0.377   8.427
45318SOL     OW37792   8.105  11.061   6.862
45318SOL    HW137793   8.140  10.988   6.811
45318SOL    HW237794   8.011  11.043   6.867
45319SOL     OW37795   3.468   8.287   4.030
45319SOL    HW137796   3.392   8.247   3.988
45319SOL    HW237797   3.492   8.226   4.100
45320SOL     OW37798   1.293  13.961   0.253
45320SOL    HW137799   1.327  13.938   0.339
45320SOL    HW237800   1.370  13.972   0.198
45321SOL     OW37801  14.649  11.144   4.223
45321SOL    HW137802  14.633  11.194   4.304
45321SOL    HW237803  14.738  11.111   4.233
45322SOL     OW37804   4.453  10.148  13.016
45322SOL    HW137805   4.487  10.059  13.005
45322SOL    HW237806   4.524  10.195  13.060
45323SOL     OW37807  14.312   8.568  10.069
45323SOL    HW137808  14.384   8.532  10.017
45323SOL    HW237809  14.353   8.596  10.150
45324SOL     OW37810   5.687   6.626   1.712
45324SOL    HW137811   5.652   6.658   1.629
45324SOL    HW237812   5.662   6.692   1.776
45325SOL     OW37813   6.241   6.521  12.878
45325SOL    HW137814   6.227   6.596  12.936
45325SOL    HW237815   6.331   6.532  12.845
45326SOL     OW37816   2.413   5.768  10.235
45326SOL    HW137817   2.426   5.859  10.211
45326SOL    HW237818   2.497   5.740  10.270
45327SOL     OW37819   1.816  11.123   5.550
45327SOL    HW137820   1.837  11.177   5.474
45327SOL    HW237821   1.727  11.092   5.534
45328SOL     OW37822  14.419   9.703   8.230
45328SOL    HW137823  14.390   9.752   8.307
45328SOL    HW237824  14.486   9.643   8.264
45329SOL     OW37825   8.523   4.055   9.732
45329SOL    HW137826   8.547   4.017   9.817
45329SOL    HW237827   8.467   3.989   9.692
45330SOL     OW37828   3.347   8.894   6.399
45330SOL    HW137829   3.273   8.951   6.384
45330SOL    HW237830   3.424   8.950   6.390
45331SOL     OW37831  14.645   1.539   9.628
45331SOL    HW137832  14.726   1.488   9.624
45331SOL    HW237833  14.644   1.589   9.546
45332SOL     OW37834   0.825   5.996  11.339
45332SOL    HW137835   0.820   5.901  11.336
45332SOL    HW237836   0.854   6.016  11.428
45333SOL     OW37837   3.114   6.263  10.065
45333SOL    HW137838   3.184   6.234  10.123
45333SOL    HW237839   3.157   6.323  10.004
45334SOL     OW37840   5.180   6.653   3.318
45334SOL    HW137841   5.262   6.645   3.367
45334SOL    HW237842   5.174   6.746   3.296
45335SOL     OW37843   9.658   9.936   8.375
45335SOL    HW137844   9.572   9.897   8.393
45335SOL    HW237845   9.689   9.890   8.297
45336SOL     OW37846   1.559   7.516   2.096
45336SOL    HW137847   1.591   7.453   2.160
45336SOL    HW237848   1.476   7.547   2.131
45337SOL     OW37849  11.415  10.962   5.603
45337SOL    HW137850  11.325  10.985   5.580
45337SOL    HW237851  11.432  10.880   5.557
45338SOL     OW37852   9.857   4.337   3.558
45338SOL    HW137853   9.822   4.310   3.473
45338SOL    HW237854   9.804   4.290   3.622
45339SOL     OW37855  11.703   0.974  10.985
45339SOL    HW137856  11.684   0.901  11.044
45339SOL    HW237857  11.618   1.015  10.970
45340SOL     OW37858   7.339   3.723   6.854
45340SOL    HW137859   7.406   3.780   6.892
45340SOL    HW237860   7.290   3.691   6.929
45341SOL     OW37861   3.886  11.614   2.894
45341SOL    HW137862   3.966  11.649   2.935
45341SOL    HW237863   3.868  11.675   2.822
45342SOL     OW37864  11.023   9.242   4.569
45342SOL    HW137865  10.967   9.166   4.554
45342SOL    HW237866  11.008   9.265   4.661
45343SOL     OW37867   2.553  12.511  12.986
45343SOL    HW137868   2.574  12.600  12.957
45343SOL    HW237869   2.466  12.518  13.025
45344SOL     OW37870   4.120   9.886   4.260
45344SOL    HW137871   4.030   9.882   4.295
45344SOL    HW237872   4.126   9.972   4.219
45345SOL     OW37873   4.848  10.515   9.189
45345SOL    HW137874   4.943  10.517   9.201
45345SOL    HW237875   4.813  10.524   9.278
45346SOL     OW37876   7.505   4.937  11.965
45346SOL    HW137877   7.424   4.910  12.009
45346SOL    HW237878   7.572   4.931  12.033
45347SOL     OW37879   5.298   0.740  13.427
45347SOL    HW137880   5.317   0.828  13.459
45347SOL    HW237881   5.281   0.689  13.506
45348SOL     OW37882   2.554  11.752   6.637
45348SOL    HW137883   2.579  11.798   6.557
45348SOL    HW237884   2.638  11.726   6.676
45349SOL     OW37885   7.208   9.493   2.419
45349SOL    HW137886   7.133   9.494   2.359
45349SOL    HW237887   7.171   9.469   2.504
45350SOL     OW37888  10.187   3.194  11.913
45350SOL    HW137889  10.193   3.287  11.934
45350SOL    HW237890  10.268   3.156  11.946
45351SOL     OW37891  11.309  13.447   9.411
45351SOL    HW137892  11.269  13.473   9.494
45351SOL    HW237893  11.245  13.388   9.371
45352SOL     OW37894   5.438   9.675   4.385
45352SOL    HW137895   5.360   9.626   4.359
45352SOL    HW237896   5.455   9.734   4.311
45353SOL     OW37897   7.959   9.166   0.871
45353SOL    HW137898   7.922   9.244   0.829
45353SOL    HW237899   7.888   9.134   0.927
45354SOL     OW37900   6.029  13.503   1.915
45354SOL    HW137901   5.936  13.492   1.898
45354SOL    HW237902   6.049  13.436   1.981
45355SOL     OW37903  14.648   0.438   7.044
45355SOL    HW137904  14.734   0.477   7.034
45355SOL    HW237905  14.629   0.398   6.959
45356SOL     OW37906   9.934   1.323  14.496
45356SOL    HW137907  10.018   1.362  14.523
45356SOL    HW237908   9.936   1.235  14.533
45357SOL     OW37909  10.205   0.331  13.992
45357SOL    HW137910  10.182   0.413  14.034
45357SOL    HW237911  10.289   0.306  14.031
45358SOL     OW37912  10.026  13.510   1.462
45358SOL    HW137913  10.029  13.606   1.460
45358SOL    HW237914  10.081  13.486   1.536
45359SOL     OW37915   1.538  13.361   6.768
45359SOL    HW137916   1.560  13.393   6.681
45359SOL    HW237917   1.447  13.333   6.762
45360SOL     OW37918   7.517  12.617   7.116
45360SOL    HW137919   7.477  12.541   7.074
45360SOL    HW237920   7.568  12.660   7.047
45361SOL     OW37921   1.028  10.890   3.485
45361SOL    HW137922   1.023  10.853   3.397
45361SOL    HW237923   0.948  10.943   3.493
45362SOL     OW37924  10.648   3.118   1.395
45362SOL    HW137925  10.699   3.189   1.432
45362SOL    HW237926  10.682   3.107   1.306
45363SOL     OW37927   9.984   5.707  14.292
45363SOL    HW137928   9.993   5.631  14.350
45363SOL    HW237929   9.997   5.783  14.348
45364SOL     OW37930  12.190   9.993   6.102
45364SOL    HW137931  12.265   9.956   6.148
45364SOL    HW237932  12.122  10.001   6.168
45365SOL     OW37933   5.611  13.339   7.435
45365SOL    HW137934   5.610  13.250   7.472
45365SOL    HW237935   5.701  13.370   7.450
45366SOL     OW37936   2.286   6.674  14.516
45366SOL    HW137937   2.313   6.735  14.448
45366SOL    HW237938   2.359   6.613  14.525
45367SOL     OW37939   2.640   8.930  12.531
45367SOL    HW137940   2.678   8.864  12.473
45367SOL    HW237941   2.654   8.896  12.619
45368SOL     OW37942  10.134   0.023   4.663
45368SOL    HW137943  10.166  14.846   4.734
45368SOL    HW237944  10.191   0.101   4.668
45369SOL     OW37945   1.476  11.112  13.751
45369SOL    HW137946   1.413  11.105  13.824
45369SOL    HW237947   1.448  11.045  13.689
45370SOL     OW37948  10.375   5.025   7.623
45370SOL    HW137949  10.302   4.963   7.615
45370SOL    HW237950  10.336   5.105   7.657
45371SOL     OW37951   8.595   3.309   1.156
45371SOL    HW137952   8.589   3.236   1.218
45371SOL    HW237953   8.506   3.345   1.152
45372SOL     OW37954   5.309  10.161  12.081
45372SOL    HW137955   5.245  10.114  12.028
45372SOL    HW237956   5.311  10.249  12.044
45373SOL     OW37957   6.332   4.656  10.171
45373SOL    HW137958   6.362   4.678  10.259
45373SOL    HW237959   6.253   4.602  10.185
45374SOL     OW37960  11.630  10.937   8.488
45374SOL    HW137961  11.586  10.892   8.416
45374SOL    HW237962  11.698  10.989   8.446
45375SOL     OW37963   9.737   1.863   5.973
45375SOL    HW137964   9.658   1.896   6.015
45375SOL    HW237965   9.717   1.772   5.950
45376SOL     OW37966  14.023  10.836   8.108
45376SOL    HW137967  14.025  10.741   8.097
45376SOL    HW237968  13.968  10.849   8.186
45377SOL     OW37969  12.148  10.435  10.884
45377SOL    HW137970  12.229  10.462  10.926
45377SOL    HW237971  12.114  10.516  10.845
45378SOL     OW37972  13.829   2.290   3.195
45378SOL    HW137973  13.787   2.262   3.113
45378SOL    HW237974  13.922   2.272   3.181
45379SOL     OW37975   8.768   2.075  12.417
45379SOL    HW137976   8.804   2.057  12.504
45379SOL    HW237977   8.732   2.163  12.425
45380SOL     OW37978   4.175   4.711   6.935
45380SOL    HW137979   4.257   4.756   6.957
45380SOL    HW237980   4.201   4.643   6.873
45381SOL     OW37981   9.799   5.997   2.049
45381SOL    HW137982   9.816   5.919   1.995
45381SOL    HW237983   9.825   6.070   1.994
45382SOL     OW37984   0.008   7.707  12.957
45382SOL    HW137985   0.039   7.630  13.004
45382SOL    HW237986   0.059   7.709  12.876
45383SOL     OW37987   4.279   6.517   2.850
45383SOL    HW137988   4.287   6.503   2.944
45383SOL    HW237989   4.233   6.439   2.818
45384SOL     OW37990  13.130  12.508   0.084
45384SOL    HW137991  13.148  12.599   0.106
45384SOL    HW237992  13.216  12.470   0.067
45385SOL     OW37993  14.818   4.463   2.783
45385SOL    HW137994   0.026   4.424   2.777
45385SOL    HW237995  14.826   4.528   2.852
45386SOL     OW37996   4.769  11.205   1.819
45386SOL    HW137997   4.822  11.274   1.859
45386SOL    HW237998   4.827  11.167   1.753
45387SOL     OW37999   1.464   4.876  12.446
45387SOL    HW138000   1.486   4.843  12.533
45387SOL    HW238001   1.372   4.855  12.433
45388SOL     OW38002   6.221  10.508  11.766
45388SOL    HW138003   6.297  10.453  11.782
45388SOL    HW238004   6.161  10.488  11.838
45389SOL     OW38005   2.696   8.480   1.417
45389SOL    HW138006   2.668   8.391   1.435
45389SOL    HW238007   2.672   8.495   1.326
45390SOL     OW38008  11.097   7.915   3.909
45390SOL    HW138009  11.022   7.975   3.910
45390SOL    HW238010  11.067   7.839   3.958
45391SOL     OW38011   6.197   5.155  10.649
45391SOL    HW138012   6.160   5.237  10.616
45391SOL    HW238013   6.280   5.182  10.689
45392SOL     OW38014   6.500   1.748   6.756
45392SOL    HW138015   6.409   1.736   6.730
45392SOL    HW238016   6.549   1.748   6.674
45393SOL     OW38017   8.226  14.713   7.330
45393SOL    HW138018   8.187  14.626   7.321
45393SOL    HW238019   8.298  14.714   7.266
45394SOL     OW38020  10.324  12.324   7.829
45394SOL    HW138021  10.405  12.346   7.874
45394SOL    HW238022  10.352  12.291   7.743
45395SOL     OW38023  11.507   1.132   7.188
45395SOL    HW138024  11.420   1.169   7.175
45395SOL    HW238025  11.496   1.066   7.257
45396SOL     OW38026  10.327   9.832   3.776
45396SOL    HW138027  10.340   9.740   3.752
45396SOL    HW238028  10.266   9.829   3.849
45397SOL     OW38029  14.471  10.470   3.765
45397SOL    HW138030  14.542  10.407   3.759
45397SOL    HW238031  14.405  10.438   3.704
45398SOL     OW38032  12.545   1.859  14.781
45398SOL    HW138033  12.504   1.923  14.840
45398SOL    HW238034  12.496   1.778  14.796
45399SOL     OW38035   8.085   8.557  11.183
45399SOL    HW138036   8.155   8.492  11.182
45399SOL    HW238037   8.014   8.515  11.232
45400SOL     OW38038   3.862   3.450  12.442
45400SOL    HW138039   3.902   3.418  12.360
45400SOL    HW238040   3.771   3.467  12.419
45401SOL     OW38041   6.186  12.150   6.017
45401SOL    HW138042   6.156  12.081   6.077
45401SOL    HW238043   6.167  12.116   5.930
45402SOL     OW38044   1.002  12.942  10.101
45402SOL    HW138045   0.961  12.894  10.174
45402SOL    HW238046   0.928  12.982  10.055
45403SOL     OW38047   0.398   2.174  11.556
45403SOL    HW138048   0.479   2.218  11.581
45403SOL    HW238049   0.344   2.175  11.635
45404SOL     OW38050  10.713   3.135   3.057
45404SOL    HW138051  10.736   3.073   2.988
45404SOL    HW238052  10.775   3.116   3.128
45405SOL     OW38053   7.417   5.352   9.600
45405SOL    HW138054   7.421   5.323   9.509
45405SOL    HW238055   7.330   5.327   9.630
45406SOL     OW38056   4.049   9.361  10.546
45406SOL    HW138057   4.135   9.371  10.505
45406SOL    HW238058   3.999   9.308  10.484
45407SOL     OW38059   0.728   6.750   1.553
45407SOL    HW138060   0.677   6.691   1.608
45407SOL    HW238061   0.663   6.802   1.505
45408SOL     OW38062   8.682   6.776  11.414
45408SOL    HW138063   8.721   6.712  11.355
45408SOL    HW238064   8.588   6.756  11.411
45409SOL     OW38065  14.475   6.038   1.157
45409SOL    HW138066  14.487   6.123   1.115
45409SOL    HW238067  14.502   5.975   1.090
45410SOL     OW38068  10.581  11.724   5.355
45410SOL    HW138069  10.627  11.676   5.423
45410SOL    HW238070  10.646  11.735   5.285
45411SOL     OW38071  14.590   4.318   3.624
45411SOL    HW138072  14.675   4.348   3.590
45411SOL    HW238073  14.612   4.256   3.693
45412SOL     OW38074  13.878  10.729   9.044
45412SOL    HW138075  13.845  10.783   8.973
45412SOL    HW238076  13.833  10.762   9.122
45413SOL     OW38077   3.227   2.604   2.656
45413SOL    HW138078   3.151   2.602   2.598
45413SOL    HW238079   3.301   2.588   2.598
45414SOL     OW38080   2.169   4.838  14.254
45414SOL    HW138081   2.242   4.892  14.224
45414SOL    HW238082   2.170   4.762  14.195
45415SOL     OW38083   0.018  14.352  10.612
45415SOL    HW138084   0.113  14.355  10.627
45415SOL    HW238085  14.877  14.259  10.607
45416SOL     OW38086  11.189   9.716  12.395
45416SOL    HW138087  11.274   9.729  12.352
45416SOL    HW238088  11.125   9.722  12.324
45417SOL     OW38089  11.982  14.118   9.243
45417SOL    HW138090  11.897  14.081   9.264
45417SOL    HW238091  12.003  14.173   9.319
45418SOL     OW38092  14.802   6.748   6.777
45418SOL    HW138093  14.771   6.838   6.786
45418SOL    HW238094  14.830   6.724   6.866
45419SOL     OW38095  13.867  12.108  10.007
45419SOL    HW138096  13.857  12.171  10.078
45419SOL    HW238097  13.958  12.080  10.011
45420SOL     OW38098  12.620   4.121   0.042
45420SOL    HW138099  12.698   4.150   0.089
45420SOL    HW238100  12.548   4.166   0.085
45421SOL     OW38101   2.978   6.899   0.381
45421SOL    HW138102   3.002   6.991   0.394
45421SOL    HW238103   2.906   6.901   0.319
45422SOL     OW38104   8.447   9.111  11.490
45422SOL    HW138105   8.525   9.106  11.436
45422SOL    HW238106   8.375   9.085  11.432
45423SOL     OW38107   7.911   3.178   7.662
45423SOL    HW138108   7.924   3.266   7.696
45423SOL    HW238109   7.964   3.174   7.582
45424SOL     OW38110   7.906   1.393   6.631
45424SOL    HW138111   7.979   1.369   6.689
45424SOL    HW238112   7.949   1.428   6.553
45425SOL     OW38113  13.547   4.213   7.760
45425SOL    HW138114  13.614   4.265   7.804
45425SOL    HW238115  13.590   4.178   7.683
45426SOL     OW38116   3.436   8.255   9.360
45426SOL    HW138117   3.364   8.226   9.416
45426SOL    HW238118   3.420   8.348   9.346
45427SOL     OW38119   6.910   9.289   1.412
45427SOL    HW138120   6.934   9.330   1.329
45427SOL    HW238121   6.991   9.247   1.442
45428SOL     OW38122   1.859  12.030   7.441
45428SOL    HW138123   1.852  12.103   7.379
45428SOL    HW238124   1.770  12.019   7.475
45429SOL     OW38125   9.172   3.795   7.225
45429SOL    HW138126   9.141   3.867   7.170
45429SOL    HW238127   9.266   3.813   7.236
45430SOL     OW38128   8.862  13.892  10.788
45430SOL    HW138129   8.892  13.807  10.819
45430SOL    HW238130   8.784  13.911  10.840
45431SOL     OW38131   2.896   0.555   9.832
45431SOL    HW138132   2.894   0.502   9.753
45431SOL    HW238133   2.988   0.552   9.860
45432SOL     OW38134   8.097   8.131   2.350
45432SOL    HW138135   8.012   8.166   2.377
45432SOL    HW238136   8.120   8.068   2.418
45433SOL     OW38137   4.322  11.313   9.305
45433SOL    HW138138   4.264  11.362   9.247
45433SOL    HW238139   4.404  11.362   9.303
45434SOL     OW38140   8.266   2.441   2.215
45434SOL    HW138141   8.196   2.441   2.150
45434SOL    HW238142   8.221   2.445   2.300
45435SOL     OW38143   3.699   6.935   0.111
45435SOL    HW138144   3.636   7.006   0.119
45435SOL    HW238145   3.646   6.855   0.117
45436SOL     OW38146   7.388  10.434   4.996
45436SOL    HW138147   7.441  10.364   5.034
45436SOL    HW238148   7.341  10.471   5.070
45437SOL     OW38149   7.123  10.500   1.541
45437SOL    HW138150   7.138  10.471   1.631
45437SOL    HW238151   7.200  10.554   1.522
45438SOL     OW38152  13.233   3.426  10.759
45438SOL    HW138153  13.155   3.371  10.770
45438SOL    HW238154  13.199   3.514  10.747
45439SOL     OW38155   2.704  14.554   0.215
45439SOL    HW138156   2.641  14.562   0.144
45439SOL    HW238157   2.759  14.632   0.207
45440SOL     OW38158   8.721   5.064  13.970
45440SOL    HW138159   8.710   4.992  13.907
45440SOL    HW238160   8.654   5.049  14.037
45441SOL     OW38161  12.053   2.824   1.910
45441SOL    HW138162  12.141   2.808   1.876
45441SOL    HW238163  12.038   2.917   1.898
45442SOL     OW38164  13.457  14.762   4.906
45442SOL    HW138165  13.487  14.788   4.818
45442SOL    HW238166  13.362  14.777   4.903
45443SOL     OW38167   3.316   5.937  10.050
45443SOL    HW138168   3.367   5.992   9.991
45443SOL    HW238169   3.343   5.848  10.029
45444SOL     OW38170   6.246   3.285  11.650
45444SOL    HW138171   6.279   3.212  11.599
45444SOL    HW238172   6.302   3.287  11.728
45445SOL     OW38173  13.895   2.529  13.879
45445SOL    HW138174  13.857   2.596  13.822
45445SOL    HW238175  13.836   2.524  13.954
45446SOL     OW38176  12.810  13.012   4.397
45446SOL    HW138177  12.820  13.041   4.306
45446SOL    HW238178  12.897  12.981   4.422
45447SOL     OW38179   5.961   8.398   2.468
45447SOL    HW138180   6.030   8.339   2.439
45447SOL    HW238181   5.914   8.421   2.388
45448SOL     OW38182  14.098  12.115  11.981
45448SOL    HW138183  14.190  12.128  11.957
45448SOL    HW238184  14.054  12.195  11.950
45449SOL     OW38185   7.712   4.900   5.226
45449SOL    HW138186   7.641   4.952   5.187
45449SOL    HW238187   7.718   4.822   5.171
45450SOL     OW38188   5.005  12.938  13.839
45450SOL    HW138189   4.949  12.877  13.886
45450SOL    HW238190   4.948  12.977  13.772
45451SOL     OW38191   8.627   1.658   5.658
45451SOL    HW138192   8.550   1.604   5.680
45451SOL    HW238193   8.702   1.602   5.679
45452SOL     OW38194  11.751   6.229  10.295
45452SOL    HW138195  11.822   6.178  10.334
45452SOL    HW238196  11.707   6.270  10.370
45453SOL     OW38197   1.225   0.871   0.599
45453SOL    HW138198   1.259   0.954   0.566
45453SOL    HW238199   1.150   0.896   0.654
45454SOL     OW38200   9.593  14.204   0.362
45454SOL    HW138201   9.685  14.231   0.367
45454SOL    HW238202   9.574  14.199   0.268
45455SOL     OW38203   4.097   5.441  13.911
45455SOL    HW138204   4.130   5.476  13.994
45455SOL    HW238205   4.104   5.515  13.850
45456SOL     OW38206  13.872   4.924   2.105
45456SOL    HW138207  13.957   4.960   2.083
45456SOL    HW238208  13.846   4.874   2.028
45457SOL     OW38209  10.103   9.037  14.421
45457SOL    HW138210  10.162   8.967  14.449
45457SOL    HW238211  10.154   9.086  14.356
45458SOL     OW38212   6.243   5.782  11.045
45458SOL    HW138213   6.299   5.714  11.084
45458SOL    HW238214   6.225   5.843  11.117
45459SOL     OW38215  12.759  12.158  13.959
45459SOL    HW138216  12.807  12.210  14.024
45459SOL    HW238217  12.669  12.159  13.990
45460SOL     OW38218   3.452   6.676  10.933
45460SOL    HW138219   3.524   6.647  10.876
45460SOL    HW238220   3.482   6.655  11.021
45461SOL     OW38221  13.019  12.925   7.101
45461SOL    HW138222  13.088  12.983   7.068
45461SOL    HW238223  13.034  12.842   7.056
45462SOL     OW38224   9.214   4.080   5.747
45462SOL    HW138225   9.191   4.007   5.690
45462SOL    HW238226   9.247   4.148   5.688
45463SOL     OW38227  12.720  12.613  13.053
45463SOL    HW138228  12.728  12.708  13.062
45463SOL    HW238229  12.673  12.601  12.970
45464SOL     OW38230   0.743   2.953  13.200
45464SOL    HW138231   0.725   2.886  13.266
45464SOL    HW238232   0.834   2.978  13.217
45465SOL     OW38233   9.551   6.675  10.506
45465SOL    HW138234   9.498   6.685  10.428
45465SOL    HW238235   9.598   6.593  10.493
45466SOL     OW38236   1.597  13.099   8.035
45466SOL    HW138237   1.680  13.071   8.072
45466SOL    HW238238   1.603  13.195   8.033
45467SOL     OW38239   3.717   1.250   9.405
45467SOL    HW138240   3.778   1.211   9.468
45467SOL    HW238241   3.664   1.310   9.458
45468SOL     OW38242   5.068   1.605   7.118
45468SOL    HW138243   5.116   1.632   7.196
45468SOL    HW238244   5.136   1.583   7.054
45469SOL     OW38245   6.026   2.756   5.735
45469SOL    HW138246   6.111   2.799   5.733
45469SOL    HW238247   5.988   2.773   5.649
45470SOL     OW38248   0.732   9.901   3.826
45470SOL    HW138249   0.781   9.967   3.777
45470SOL    HW238250   0.787   9.881   3.902
45471SOL     OW38251  12.566   8.030   9.680
45471SOL    HW138252  12.601   8.116   9.705
45471SOL    HW238253  12.517   8.048   9.599
45472SOL     OW38254   7.885  11.918   5.239
45472SOL    HW138255   7.904  11.855   5.309
45472SOL    HW238256   7.827  11.982   5.278
45473SOL     OW38257   6.044   9.447   7.085
45473SOL    HW138258   6.132   9.442   7.047
45473SOL    HW238259   6.060   9.449   7.180
45474SOL     OW38260   7.193  10.234  10.325
45474SOL    HW138261   7.238  10.318  10.312
45474SOL    HW238262   7.121  10.254  10.384
45475SOL     OW38263  11.142  11.750   1.698
45475SOL    HW138264  11.052  11.720   1.712
45475SOL    HW238265  11.195  11.670   1.700
45476SOL     OW38266   5.881   2.807   2.591
45476SOL    HW138267   5.959   2.858   2.573
45476SOL    HW238268   5.829   2.861   2.651
45477SOL     OW38269   2.940   9.909  13.134
45477SOL    HW138270   3.031   9.928  13.158
45477SOL    HW238271   2.939   9.815  13.117
45478SOL     OW38272  10.402   3.514   2.541
45478SOL    HW138273  10.486   3.521   2.495
45478SOL    HW238274  10.382   3.604   2.566
45479SOL     OW38275   3.200   1.264   4.325
45479SOL    HW138276   3.189   1.232   4.235
45479SOL    HW238277   3.114   1.253   4.365
45480SOL     OW38278   7.682   9.106   8.122
45480SOL    HW138279   7.703   9.194   8.090
45480SOL    HW238280   7.754   9.084   8.181
45481SOL     OW38281  14.260   1.080  12.720
45481SOL    HW138282  14.188   1.017  12.712
45481SOL    HW238283  14.218   1.160  12.750
45482SOL     OW38284   9.388   5.097   6.807
45482SOL    HW138285   9.334   5.137   6.876
45482SOL    HW238286   9.354   5.133   6.726
45483SOL     OW38287  11.565   0.459   4.457
45483SOL    HW138288  11.647   0.509   4.465
45483SOL    HW238289  11.573   0.414   4.373
45484SOL     OW38290   5.307  11.536   1.093
45484SOL    HW138291   5.230  11.565   1.044
45484SOL    HW238292   5.288  11.446   1.117
45485SOL     OW38293  14.173   8.905   3.876
45485SOL    HW138294  14.180   8.981   3.933
45485SOL    HW238295  14.169   8.942   3.788
45486SOL     OW38296  14.078  11.988   7.552
45486SOL    HW138297  14.038  12.074   7.545
45486SOL    HW238298  14.144  11.987   7.483
45487SOL     OW38299   3.582   9.597  11.440
45487SOL    HW138300   3.571   9.641  11.355
45487SOL    HW238301   3.533   9.651  11.502
45488SOL     OW38302   8.167  14.101   0.901
45488SOL    HW138303   8.115  14.021   0.912
45488SOL    HW238304   8.155  14.125   0.809
45489SOL     OW38305  11.927   2.215   1.688
45489SOL    HW138306  11.870   2.139   1.680
45489SOL    HW238307  11.883   2.273   1.750
45490SOL     OW38308  14.658  13.787   4.268
45490SOL    HW138309  14.667  13.734   4.189
45490SOL    HW238310  14.729  13.851   4.263
45491SOL     OW38311   9.554   4.911  11.422
45491SOL    HW138312   9.536   4.894  11.330
45491SOL    HW238313   9.635   4.863  11.440
45492SOL     OW38314  10.588  13.182   8.203
45492SOL    HW138315  10.495  13.162   8.200
45492SOL    HW238316  10.592  13.275   8.224
45493SOL     OW38317  13.825   9.700   0.917
45493SOL    HW138318  13.903   9.650   0.942
45493SOL    HW238319  13.755   9.664   0.971
45494SOL     OW38320   1.470   6.628   1.775
45494SOL    HW138321   1.521   6.697   1.733
45494SOL    HW238322   1.511   6.546   1.747
45495SOL     OW38323   8.282   3.064   6.303
45495SOL    HW138324   8.316   3.138   6.352
45495SOL    HW238325   8.265   3.099   6.215
45496SOL     OW38326   5.049  11.707   7.726
45496SOL    HW138327   5.021  11.623   7.689
45496SOL    HW238328   5.102  11.683   7.802
45497SOL     OW38329  11.806  10.194  14.794
45497SOL    HW138330  11.725  10.225  14.833
45497SOL    HW238331  11.811  10.239  14.709
45498SOL     OW38332  13.848  14.558   5.961
45498SOL    HW138333  13.793  14.613   6.017
45498SOL    HW238334  13.814  14.572   5.873
45499SOL     OW38335  13.752   4.087   4.781
45499SOL    HW138336  13.840   4.067   4.751
45499SOL    HW238337  13.747   4.183   4.782
45500SOL     OW38338   4.030   9.378  13.569
45500SOL    HW138339   3.985   9.461  13.583
45500SOL    HW238340   4.121   9.395  13.595
45501SOL     OW38341  13.192   7.655  14.495
45501SOL    HW138342  13.148   7.653  14.581
45501SOL    HW238343  13.123   7.678  14.434
45502SOL     OW38344  14.040   6.055   8.175
45502SOL    HW138345  14.042   5.963   8.147
45502SOL    HW238346  14.110   6.061   8.241
45503SOL     OW38347   4.766   1.475  13.585
45503SOL    HW138348   4.673   1.499  13.576
45503SOL    HW238349   4.781   1.412  13.515
45504SOL     OW38350  10.637   9.108   2.811
45504SOL    HW138351  10.610   9.198   2.824
45504SOL    HW238352  10.558   9.056   2.829
45505SOL     OW38353   2.668   2.755  10.257
45505SOL    HW138354   2.656   2.847  10.235
45505SOL    HW238355   2.632   2.708  10.182
45506SOL     OW38356   0.726   5.622   4.512
45506SOL    HW138357   0.708   5.592   4.601
45506SOL    HW238358   0.684   5.558   4.455
45507SOL     OW38359  10.764   8.576   5.045
45507SOL    HW138360  10.788   8.500   5.097
45507SOL    HW238361  10.846   8.606   5.006
45508SOL     OW38362  14.467   6.887   6.061
45508SOL    HW138363  14.412   6.948   6.110
45508SOL    HW238364  14.427   6.884   5.974
45509SOL     OW38365   8.039  10.717  14.008
45509SOL    HW138366   8.090  10.715  13.928
45509SOL    HW238367   8.047  10.629  14.044
45510SOL     OW38368   8.837   9.135   0.020
45510SOL    HW138369   8.815   9.189   0.095
45510SOL    HW238370   8.785   9.171  14.827
45511SOL     OW38371   1.087  11.425  10.589
45511SOL    HW138372   1.165  11.452  10.636
45511SOL    HW238373   1.041  11.367  10.649
45512SOL     OW38374  14.103   9.225   3.795
45512SOL    HW138375  14.156   9.162   3.745
45512SOL    HW238376  14.073   9.288   3.729
45513SOL     OW38377   2.177   3.172   8.055
45513SOL    HW138378   2.166   3.097   7.997
45513SOL    HW238379   2.254   3.218   8.022
45514SOL     OW38380  14.476   8.978  12.634
45514SOL    HW138381  14.469   8.907  12.699
45514SOL    HW238382  14.531   8.942  12.565
45515SOL     OW38383   8.672   8.713   2.846
45515SOL    HW138384   8.597   8.735   2.792
45515SOL    HW238385   8.687   8.620   2.829
45516SOL     OW38386   0.739   6.195   6.817
45516SOL    HW138387   0.831   6.222   6.824
45516SOL    HW238388   0.737   6.106   6.850
45517SOL     OW38389  11.228   4.448  10.901
45517SOL    HW138390  11.214   4.537  10.869
45517SOL    HW238391  11.290   4.409  10.839
45518SOL     OW38392   9.613   0.673   7.804
45518SOL    HW138393   9.695   0.722   7.810
45518SOL    HW238394   9.624   0.618   7.726
45519SOL     OW38395  10.487  13.265   2.843
45519SOL    HW138396  10.473  13.336   2.905
45519SOL    HW238397  10.522  13.193   2.897
45520SOL     OW38398   8.016   2.468   6.532
45520SOL    HW138399   8.060   2.396   6.487
45520SOL    HW238400   7.970   2.516   6.463
45521SOL     OW38401   9.289   8.352   3.707
45521SOL    HW138402   9.277   8.368   3.801
45521SOL    HW238403   9.307   8.258   3.702
45522SOL     OW38404  13.730   7.061   4.120
45522SOL    HW138405  13.812   7.101   4.093
45522SOL    HW238406  13.692   7.123   4.182
45523SOL     OW38407   0.188   2.577   4.791
45523SOL    HW138408   0.206   2.609   4.880
45523SOL    HW238409   0.215   2.649   4.734
45524SOL     OW38410  13.214   1.706   6.570
45524SOL    HW138411  13.119   1.699   6.564
45524SOL    HW238412  13.245   1.616   6.560
45525SOL     OW38413   0.865   7.553   7.206
45525SOL    HW138414   0.929   7.561   7.277
45525SOL    HW238415   0.915   7.567   7.126
45526SOL     OW38416   6.255  14.400   2.876
45526SOL    HW138417   6.215  14.478   2.838
45526SOL    HW238418   6.348  14.420   2.879
45527SOL     OW38419   9.647  11.399   5.003
45527SOL    HW138420   9.656  11.436   5.091
45527SOL    HW238421   9.577  11.449   4.963
45528SOL     OW38422   9.979  13.746   6.125
45528SOL    HW138423   9.926  13.750   6.045
45528SOL    HW238424  10.065  13.780   6.098
45529SOL     OW38425  13.109   2.021  12.845
45529SOL    HW138426  13.110   1.967  12.924
45529SOL    HW238427  13.031   2.076  12.854
45530SOL     OW38428  12.761  12.871   7.200
45530SOL    HW138429  12.737  12.831   7.284
45530SOL    HW238430  12.856  12.877   7.203
45531SOL     OW38431   6.510   2.754   1.628
45531SOL    HW138432   6.474   2.777   1.542
45531SOL    HW238433   6.579   2.691   1.610
45532SOL     OW38434  12.673   5.355  14.569
45532SOL    HW138435  12.679   5.289  14.639
45532SOL    HW238436  12.762   5.388  14.560
45533SOL     OW38437   4.521   1.430   1.405
45533SOL    HW138438   4.466   1.425   1.327
45533SOL    HW238439   4.497   1.353   1.457
45534SOL     OW38440  14.166  10.275   5.039
45534SOL    HW138441  14.227  10.314   4.976
45534SOL    HW238442  14.215  10.272   5.121
45535SOL     OW38443  11.494  10.574   4.359
45535SOL    HW138444  11.566  10.546   4.416
45535SOL    HW238445  11.442  10.495   4.346
45536SOL     OW38446  11.483  11.484   2.128
45536SOL    HW138447  11.412  11.542   2.101
45536SOL    HW238448  11.448  11.396   2.116
45537SOL     OW38449  11.787   5.589   9.109
45537SOL    HW138450  11.877   5.593   9.142
45537SOL    HW238451  11.759   5.681   9.107
45538SOL     OW38452  11.813   1.947   8.667
45538SOL    HW138453  11.841   1.896   8.591
45538SOL    HW238454  11.867   2.025   8.665
45539SOL     OW38455   9.949  11.247   9.266
45539SOL    HW138456   9.943  11.188   9.341
45539SOL    HW238457  10.032  11.293   9.279
45540SOL     OW38458   0.469  12.812   9.373
45540SOL    HW138459   0.484  12.747   9.442
45540SOL    HW238460   0.528  12.884   9.396
45541SOL     OW38461   8.314  14.103   1.365
45541SOL    HW138462   8.267  14.028   1.329
45541SOL    HW238463   8.355  14.070   1.445
45542SOL     OW38464   6.382   1.999  11.686
45542SOL    HW138465   6.349   1.954  11.764
45542SOL    HW238466   6.398   2.088  11.716
45543SOL     OW38467   2.207  12.045   5.069
45543SOL    HW138468   2.264  12.097   5.126
45543SOL    HW238469   2.181  11.970   5.123
45544SOL     OW38470  13.081   9.443   0.820
45544SOL    HW138471  13.176   9.447   0.816
45544SOL    HW238472  13.060   9.466   0.911
45545SOL     OW38473  12.682   7.425  12.098
45545SOL    HW138474  12.623   7.485  12.143
45545SOL    HW238475  12.671   7.341  12.144
45546SOL     OW38476   0.476  13.243   7.249
45546SOL    HW138477   0.397  13.200   7.280
45546SOL    HW238478   0.467  13.244   7.154
45547SOL     OW38479   3.623   7.409   3.588
45547SOL    HW138480   3.574   7.371   3.661
45547SOL    HW238481   3.711   7.420   3.622
45548SOL     OW38482   9.809  11.671   9.164
45548SOL    HW138483   9.721  11.700   9.188
45548SOL    HW238484   9.840  11.623   9.240
45549SOL     OW38485   3.949   2.939   4.485
45549SOL    HW138486   3.957   3.034   4.479
45549SOL    HW238487   3.861   2.920   4.451
45550SOL     OW38488  12.764   5.257   2.729
45550SOL    HW138489  12.754   5.350   2.751
45550SOL    HW238490  12.857   5.239   2.745
45551SOL     OW38491   9.676   4.950   2.196
45551SOL    HW138492   9.589   4.927   2.162
45551SOL    HW238493   9.657   4.996   2.278
45552SOL     OW38494  12.917   4.126  10.247
45552SOL    HW138495  12.882   4.180  10.177
45552SOL    HW238496  13.009   4.152  10.253
45553SOL     OW38497   0.441   8.292   6.171
45553SOL    HW138498   0.407   8.278   6.259
45553SOL    HW238499   0.518   8.235   6.165
45554SOL     OW38500  13.831  13.372  11.650
45554SOL    HW138501  13.762  13.381  11.715
45554SOL    HW238502  13.875  13.457  11.649
45555SOL     OW38503   3.740   2.134   0.019
45555SOL    HW138504   3.808   2.083  14.856
45555SOL    HW238505   3.691   2.173  14.827
45556SOL     OW38506   6.558  12.576   4.388
45556SOL    HW138507   6.610  12.549   4.313
45556SOL    HW238508   6.516  12.496   4.419
45557SOL     OW38509   0.925   9.143   2.424
45557SOL    HW138510   0.904   9.144   2.517
45557SOL    HW238511   0.920   9.051   2.399
45558SOL     OW38512  14.252   8.905  10.110
45558SOL    HW138513  14.325   8.907  10.171
45558SOL    HW238514  14.275   8.838  10.046
45559SOL     OW38515   6.192   0.393   7.676
45559SOL    HW138516   6.209   0.299   7.674
45559SOL    HW238517   6.118   0.403   7.736
45560SOL     OW38518   2.463   3.058   6.798
45560SOL    HW138519   2.515   3.118   6.850
45560SOL    HW238520   2.506   3.056   6.713
45561SOL     OW38521  13.652  12.971   3.565
45561SOL    HW138522  13.653  12.877   3.580
45561SOL    HW238523  13.723  12.986   3.503
45562SOL     OW38524  11.142   1.030   9.389
45562SOL    HW138525  11.086   1.061   9.460
45562SOL    HW238526  11.187   0.954   9.426
45563SOL     OW38527   5.936  12.803   6.821
45563SOL    HW138528   5.933  12.709   6.839
45563SOL    HW238529   5.846  12.826   6.798
45564SOL     OW38530  14.594   7.354   4.091
45564SOL    HW138531  14.688   7.371   4.086
45564SOL    HW238532  14.556   7.409   4.022
45565SOL     OW38533   6.371  11.833   8.494
45565SOL    HW138534   6.466  11.826   8.484
45565SOL    HW238535   6.342  11.879   8.415
45566SOL     OW38536   0.213   4.485   0.773
45566SOL    HW138537   0.274   4.513   0.705
45566SOL    HW238538   0.209   4.559   0.834
45567SOL     OW38539   9.552  13.325   0.923
45567SOL    HW138540   9.591  13.386   0.860
45567SOL    HW238541   9.622  13.263   0.943
45568SOL     OW38542   4.933   5.646  11.820
45568SOL    HW138543   4.870   5.582  11.787
45568SOL    HW238544   4.890   5.687  11.895
45569SOL     OW38545   3.063   4.536  13.841
45569SOL    HW138546   3.154   4.513  13.821
45569SOL    HW238547   3.015   4.453  13.833
45570SOL     OW38548   7.282   5.261   2.099
45570SOL    HW138549   7.243   5.303   2.022
45570SOL    HW238550   7.282   5.329   2.166
45571SOL     OW38551   2.529   7.579   2.004
45571SOL    HW138552   2.465   7.530   2.055
45571SOL    HW238553   2.517   7.548   1.914
45572SOL     OW38554   6.587  14.238   1.136
45572SOL    HW138555   6.520  14.270   1.075
45572SOL    HW238556   6.643  14.314   1.152
45573SOL     OW38557   7.502  14.217   5.383
45573SOL    HW138558   7.461  14.157   5.445
45573SOL    HW238559   7.437  14.286   5.370
45574SOL     OW38560  12.277   9.273   0.594
45574SOL    HW138561  12.200   9.216   0.589
45574SOL    HW238562  12.312   9.273   0.505
45575SOL     OW38563  10.458   4.222  13.133
45575SOL    HW138564  10.522   4.292  13.119
45575SOL    HW238565  10.485   4.152  13.073
45576SOL     OW38566   4.497   4.589   8.497
45576SOL    HW138567   4.403   4.593   8.481
45576SOL    HW238568   4.524   4.505   8.459
45577SOL     OW38569   9.418   0.170  11.817
45577SOL    HW138570   9.429   0.220  11.898
45577SOL    HW238571   9.485   0.205  11.758
45578SOL     OW38572  10.315   9.743   9.789
45578SOL    HW138573  10.279   9.655   9.802
45578SOL    HW238574  10.369   9.736   9.711
45579SOL     OW38575   4.984   9.336   5.197
45579SOL    HW138576   4.913   9.365   5.139
45579SOL    HW238577   5.058   9.320   5.138
45580SOL     OW38578  12.359   7.097  12.417
45580SOL    HW138579  12.374   7.013  12.460
45580SOL    HW238580  12.277   7.129  12.455
45581SOL     OW38581  12.671   6.000   0.199
45581SOL    HW138582  12.712   6.053   0.267
45581SOL    HW238583  12.741   5.983   0.136
45582SOL     OW38584   6.511  14.548   6.587
45582SOL    HW138585   6.535  14.516   6.500
45582SOL    HW238586   6.420  14.521   6.598
45583SOL     OW38587   5.374   1.371   3.650
45583SOL    HW138588   5.309   1.414   3.595
45583SOL    HW238589   5.418   1.443   3.695
45584SOL     OW38590   6.571   8.853   6.338
45584SOL    HW138591   6.604   8.841   6.428
45584SOL    HW238592   6.645   8.887   6.289
45585SOL     OW38593  11.925   5.588   7.025
45585SOL    HW138594  11.833   5.568   7.008
45585SOL    HW238595  11.964   5.602   6.939
45586SOL     OW38596   1.935   9.811  10.385
45586SOL    HW138597   1.847   9.817  10.421
45586SOL    HW238598   1.992   9.807  10.461
45587SOL     OW38599   8.099  13.524   8.937
45587SOL    HW138600   8.099  13.607   8.890
45587SOL    HW238601   8.187  13.518   8.975
45588SOL     OW38602   1.094   3.899   8.747
45588SOL    HW138603   1.067   3.836   8.680
45588SOL    HW238604   1.065   3.984   8.714
45589SOL     OW38605  11.678  10.854   8.023
45589SOL    HW138606  11.607  10.913   7.998
45589SOL    HW238607  11.657  10.829   8.113
45590SOL     OW38608  14.065  13.731  12.235
45590SOL    HW138609  14.082  13.693  12.321
45590SOL    HW238610  13.987  13.784  12.247
45591SOL     OW38611   0.362   7.093   1.601
45591SOL    HW138612   0.284   7.123   1.555
45591SOL    HW238613   0.401   7.173   1.637
45592SOL     OW38614   2.719   1.955  11.997
45592SOL    HW138615   2.790   2.014  11.976
45592SOL    HW238616   2.654   1.970  11.929
45593SOL     OW38617   8.316   7.569   0.166
45593SOL    HW138618   8.347   7.531   0.084
45593SOL    HW238619   8.292   7.659   0.143
45594SOL     OW38620   7.774  11.821   9.775
45594SOL    HW138621   7.681  11.807   9.793
45594SOL    HW238622   7.795  11.760   9.705
45595SOL     OW38623   0.720  10.720   0.741
45595SOL    HW138624   0.807  10.683   0.725
45595SOL    HW238625   0.734  10.785   0.810
45596SOL     OW38626   0.076   1.433  13.929
45596SOL    HW138627   0.021   1.436  14.007
45596SOL    HW238628   0.121   1.517  13.929
45597SOL     OW38629   1.020   7.331   5.397
45597SOL    HW138630   0.988   7.253   5.351
45597SOL    HW238631   1.043   7.392   5.327
45598SOL     OW38632   2.294  13.220  14.693
45598SOL    HW138633   2.316  13.292  14.752
45598SOL    HW238634   2.236  13.164  14.745
45599SOL     OW38635  13.288  13.469   6.958
45599SOL    HW138636  13.243  13.551   6.938
45599SOL    HW238637  13.381  13.492   6.959
45600SOL     OW38638   0.142   4.164  14.633
45600SOL    HW138639   0.145   4.249  14.589
45600SOL    HW238640   0.049   4.144  14.640
45601SOL     OW38641   8.127   5.236   0.927
45601SOL    HW138642   8.126   5.192   1.012
45601SOL    HW238643   8.104   5.168   0.864
45602SOL     OW38644  10.408   2.281   6.682
45602SOL    HW138645  10.395   2.351   6.619
45602SOL    HW238646  10.437   2.324   6.762
45603SOL     OW38647  10.230   9.245  14.610
45603SOL    HW138648  10.309   9.224  14.559
45603SOL    HW238649  10.157   9.220  14.553
45604SOL     OW38650   9.056  10.646   8.449
45604SOL    HW138651   9.103  10.639   8.366
45604SOL    HW238652   9.105  10.712   8.499
45605SOL     OW38653   8.050   1.117   3.446
45605SOL    HW138654   8.119   1.082   3.502
45605SOL    HW238655   7.975   1.129   3.505
45606SOL     OW38656  11.865   2.413  13.498
45606SOL    HW138657  11.867   2.366  13.415
45606SOL    HW238658  11.857   2.345  13.564
45607SOL     OW38659  13.583  12.705   2.585
45607SOL    HW138660  13.648  12.665   2.643
45607SOL    HW238661  13.613  12.681   2.497
45608SOL     OW38662  13.927   5.218  10.037
45608SOL    HW138663  13.938   5.145   9.976
45608SOL    HW238664  13.851   5.194  10.090
45609SOL     OW38665  11.822   2.046   5.870
45609SOL    HW138666  11.772   2.018   5.947
45609SOL    HW238667  11.861   2.130   5.896
45610SOL     OW38668   9.979  13.048  13.171
45610SOL    HW138669   9.931  13.021  13.093
45610SOL    HW238670   9.949  13.138  13.187
45611SOL     OW38671   1.360  10.159  11.563
45611SOL    HW138672   1.292  10.165  11.630
45611SOL    HW238673   1.425  10.100  11.601
45612SOL     OW38674   3.725   9.745   3.843
45612SOL    HW138675   3.818   9.729   3.824
45612SOL    HW238676   3.680   9.668   3.807
45613SOL     OW38677   4.600  12.968   9.907
45613SOL    HW138678   4.645  12.921   9.976
45613SOL    HW238679   4.513  12.987   9.943
45614SOL     OW38680   0.718   6.903   5.126
45614SOL    HW138681   0.786   6.886   5.062
45614SOL    HW238682   0.668   6.822   5.131
45615SOL     OW38683   0.367  12.100   2.819
45615SOL    HW138684   0.441  12.150   2.786
45615SOL    HW238685   0.359  12.025   2.759
45616SOL     OW38686   4.222   2.334   4.313
45616SOL    HW138687   4.310   2.367   4.297
45616SOL    HW238688   4.165   2.394   4.266
45617SOL     OW38689  10.465   1.386   5.271
45617SOL    HW138690  10.447   1.476   5.298
45617SOL    HW238691  10.409   1.332   5.326
45618SOL     OW38692   0.787   1.341  12.989
45618SOL    HW138693   0.697   1.335  12.958
45618SOL    HW238694   0.784   1.402  13.062
45619SOL     OW38695   1.216  14.323  14.805
45619SOL    HW138696   1.179  14.242  14.769
45619SOL    HW238697   1.140  14.381  14.816
45620SOL     OW38698  14.190   2.228   6.431
45620SOL    HW138699  14.184   2.235   6.336
45620SOL    HW238700  14.259   2.164   6.446
45621SOL     OW38701  10.883  11.778  11.859
45621SOL    HW138702  10.951  11.757  11.923
45621SOL    HW238703  10.823  11.704  11.863
45622SOL     OW38704   5.694   7.150   1.314
45622SOL    HW138705   5.744   7.068   1.312
45622SOL    HW238706   5.655   7.151   1.402
45623SOL     OW38707   2.902  10.940  11.919
45623SOL    HW138708   2.907  11.011  11.982
45623SOL    HW238709   2.923  10.980  11.835
45624SOL     OW38710  11.939   9.102   8.780
45624SOL    HW138711  12.027   9.087   8.745
45624SOL    HW238712  11.920   9.023   8.830
45625SOL     OW38713   5.056  10.637  12.344
45625SOL    HW138714   5.096  10.627  12.431
45625SOL    HW238715   5.121  10.601  12.284
45626SOL     OW38716  14.701   1.825  13.651
45626SOL    HW138717  14.719   1.770  13.728
45626SOL    HW238718  14.758   1.901  13.663
45627SOL     OW38719  11.715   6.645   1.181
45627SOL    HW138720  11.730   6.732   1.144
45627SOL    HW238721  11.655   6.660   1.254
45628SOL     OW38722  14.661   1.746   6.752
45628SOL    HW138723  14.750   1.732   6.720
45628SOL    HW238724  14.629   1.821   6.702
45629SOL     OW38725   9.268   1.450   3.193
45629SOL    HW138726   9.226   1.463   3.108
45629SOL    HW238727   9.202   1.480   3.256
45630SOL     OW38728   9.332   8.005  12.380
45630SOL    HW138729   9.425   8.001  12.402
45630SOL    HW238730   9.288   7.961  12.453
45631SOL     OW38731  10.406  14.437   7.283
45631SOL    HW138732  10.481  14.458   7.338
45631SOL    HW238733  10.393  14.343   7.295
45632SOL     OW38734   7.823   2.563  10.396
45632SOL    HW138735   7.797   2.582  10.486
45632SOL    HW238736   7.891   2.496  10.404
45633SOL     OW38737   4.784   1.407   3.941
45633SOL    HW138738   4.792   1.393   4.036
45633SOL    HW238739   4.691   1.391   3.922
45634SOL     OW38740   9.196   5.128  11.548
45634SOL    HW138741   9.134   5.119  11.475
45634SOL    HW238742   9.154   5.191  11.607
45635SOL     OW38743   2.438   3.681   9.253
45635SOL    HW138744   2.402   3.631   9.181
45635SOL    HW238745   2.523   3.641   9.270
45636SOL     OW38746   1.547   3.567  13.670
45636SOL    HW138747   1.510   3.503  13.610
45636SOL    HW238748   1.471   3.612  13.708
45637SOL     OW38749   0.290  11.885  13.503
45637SOL    HW138750   0.357  11.818  13.495
45637SOL    HW238751   0.258  11.877  13.593
45638SOL     OW38752  12.412   7.840   1.687
45638SOL    HW138753  12.412   7.930   1.721
45638SOL    HW238754  12.423   7.850   1.593
45639SOL     OW38755  14.026   1.154   3.905
45639SOL    HW138756  13.941   1.191   3.930
45639SOL    HW238757  14.046   1.093   3.976
45640SOL     OW38758   7.926   2.847   4.348
45640SOL    HW138759   7.867   2.863   4.421
45640SOL    HW238760   8.009   2.823   4.390
45641SOL     OW38761   9.394  10.745   8.999
45641SOL    HW138762   9.391  10.727   8.905
45641SOL    HW238763   9.426  10.835   9.005
45642SOL     OW38764  11.890   8.079   1.243
45642SOL    HW138765  11.835   8.138   1.294
45642SOL    HW238766  11.899   8.121   1.157
45643SOL     OW38767   0.533   1.161   8.363
45643SOL    HW138768   0.594   1.114   8.419
45643SOL    HW238769   0.574   1.161   8.277
45644SOL     OW38770   8.026  10.862   3.901
45644SOL    HW138771   8.104  10.911   3.875
45644SOL    HW238772   7.953  10.923   3.890
45645SOL     OW38773  11.725  10.004   5.853
45645SOL    HW138774  11.639   9.962   5.849
45645SOL    HW238775  11.735  10.032   5.944
45646SOL     OW38776   1.155   9.486   2.178
45646SOL    HW138777   1.167   9.416   2.243
45646SOL    HW238778   1.203   9.560   2.215
45647SOL     OW38779   9.848  10.160   6.692
45647SOL    HW138780   9.907  10.137   6.621
45647SOL    HW238781   9.895  10.134   6.772
45648SOL     OW38782   2.096   8.417   2.737
45648SOL    HW138783   2.072   8.468   2.814
45648SOL    HW238784   2.014   8.378   2.707
45649SOL     OW38785   3.289  14.264  12.653
45649SOL    HW138786   3.249  14.190  12.607
45649SOL    HW238787   3.337  14.223  12.726
45650SOL     OW38788  13.607   5.968  13.802
45650SOL    HW138789  13.666   6.002  13.735
45650SOL    HW238790  13.521   6.003  13.777
45651SOL     OW38791   8.322   3.833  10.349
45651SOL    HW138792   8.270   3.800  10.423
45651SOL    HW238793   8.342   3.924  10.373
45652SOL     OW38794   1.094   8.143   3.461
45652SOL    HW138795   1.175   8.121   3.508
45652SOL    HW238796   1.123   8.191   3.384
45653SOL     OW38797   4.718   8.015   1.432
45653SOL    HW138798   4.658   7.951   1.393
45653SOL    HW238799   4.707   8.004   1.526
45654SOL     OW38800  14.279  12.893   8.738
45654SOL    HW138801  14.194  12.861   8.768
45654SOL    HW238802  14.289  12.978   8.781
45655SOL     OW38803   8.890   1.893   9.833
45655SOL    HW138804   8.915   1.912   9.923
45655SOL    HW238805   8.971   1.861   9.791
45656SOL     OW38806   9.009   0.909  12.256
45656SOL    HW138807   9.091   0.942  12.292
45656SOL    HW238808   9.009   0.939  12.165
45657SOL     OW38809  14.246  14.061   5.379
45657SOL    HW138810  14.310  14.043   5.448
45657SOL    HW238811  14.207  14.145   5.404
45658SOL     OW38812   9.888   8.343  11.562
45658SOL    HW138813   9.971   8.322  11.520
45658SOL    HW238814   9.838   8.388  11.494
45659SOL     OW38815   1.091   6.683   9.301
45659SOL    HW138816   0.998   6.661   9.301
45659SOL    HW238817   1.105   6.732   9.220
45660SOL     OW38818  10.798  12.310  12.196
45660SOL    HW138819  10.797  12.403  12.219
45660SOL    HW238820  10.890  12.289  12.182
45661SOL     OW38821   7.406   5.930   7.742
45661SOL    HW138822   7.348   5.860   7.772
45661SOL    HW238823   7.448   5.896   7.663
45662SOL     OW38824  12.209   4.306   3.013
45662SOL    HW138825  12.173   4.259   3.087
45662SOL    HW238826  12.133   4.329   2.959
45663SOL     OW38827  10.477   3.946   7.751
45663SOL    HW138828  10.508   3.889   7.821
45663SOL    HW238829  10.556   3.986   7.716
45664SOL     OW38830  10.700  12.361  11.144
45664SOL    HW138831  10.710  12.266  11.135
45664SOL    HW238832  10.610  12.378  11.116
45665SOL     OW38833  13.527   8.423  14.271
45665SOL    HW138834  13.578   8.342  14.279
45665SOL    HW238835  13.474   8.425  14.351
45666SOL     OW38836   8.788   0.214   4.502
45666SOL    HW138837   8.754   0.178   4.421
45666SOL    HW238838   8.831   0.140   4.545
45667SOL     OW38839   1.941   7.727   9.438
45667SOL    HW138840   1.927   7.732   9.344
45667SOL    HW238841   1.945   7.633   9.457
45668SOL     OW38842  12.698   4.892   8.093
45668SOL    HW138843  12.722   4.805   8.062
45668SOL    HW238844  12.635   4.876   8.163
45669SOL     OW38845   7.732   9.631  12.620
45669SOL    HW138846   7.719   9.677  12.537
45669SOL    HW238847   7.645   9.598  12.644
45670SOL     OW38848   8.189   1.558   0.453
45670SOL    HW138849   8.219   1.487   0.509
45670SOL    HW238850   8.184   1.519   0.365
45671SOL     OW38851   4.464  12.278  10.001
45671SOL    HW138852   4.459  12.309   9.911
45671SOL    HW238853   4.536  12.328  10.039
45672SOL     OW38854   7.978   8.219   7.311
45672SOL    HW138855   7.995   8.209   7.217
45672SOL    HW238856   7.894   8.266   7.315
45673SOL     OW38857   8.443  10.771   8.326
45673SOL    HW138858   8.391  10.836   8.279
45673SOL    HW238859   8.530  10.776   8.286
45674SOL     OW38860   3.962  11.513   8.472
45674SOL    HW138861   3.998  11.570   8.405
45674SOL    HW238862   3.883  11.559   8.503
45675SOL     OW38863   2.207  10.475  13.323
45675SOL    HW138864   2.195  10.549  13.382
45675SOL    HW238865   2.301  10.459  13.321
45676SOL     OW38866  14.325   9.609   5.056
45676SOL    HW138867  14.398   9.590   5.115
45676SOL    HW238868  14.262   9.539   5.072
45677SOL     OW38869   5.107  13.492   0.092
45677SOL    HW138870   5.149  13.485   0.006
45677SOL    HW238871   5.013  13.493   0.073
45678SOL     OW38872  11.387  14.147   3.199
45678SOL    HW138873  11.344  14.082   3.255
45678SOL    HW238874  11.404  14.221   3.257
45679SOL     OW38875  14.209   3.936  12.908
45679SOL    HW138876  14.298   3.916  12.939
45679SOL    HW238877  14.215   3.927  12.812
45680SOL     OW38878   3.561   7.446   3.051
45680SOL    HW138879   3.555   7.372   3.111
45680SOL    HW238880   3.655   7.454   3.033
45681SOL     OW38881   8.989   4.942   8.332
45681SOL    HW138882   9.008   4.942   8.239
45681SOL    HW238883   9.071   4.916   8.374
45682SOL     OW38884   7.122   0.135  10.636
45682SOL    HW138885   7.128   0.126  10.731
45682SOL    HW238886   7.174   0.062  10.602
45683SOL     OW38887   3.930  10.981   7.861
45683SOL    HW138888   3.939  10.886   7.872
45683SOL    HW238889   3.952  10.997   7.769
45684SOL     OW38890  14.543   0.489  11.131
45684SOL    HW138891  14.528   0.439  11.050
45684SOL    HW238892  14.526   0.580  11.106
45685SOL     OW38893   2.251   1.569   1.214
45685SOL    HW138894   2.214   1.633   1.275
45685SOL    HW238895   2.297   1.622   1.149
45686SOL     OW38896   7.460   7.900   5.096
45686SOL    HW138897   7.431   7.839   5.164
45686SOL    HW238898   7.462   7.985   5.140
45687SOL     OW38899   2.495  13.750  13.907
45687SOL    HW138900   2.492  13.681  13.841
45687SOL    HW238901   2.489  13.703  13.990
45688SOL     OW38902   5.789   2.426   2.049
45688SOL    HW138903   5.770   2.347   2.000
45688SOL    HW238904   5.755   2.410   2.137
45689SOL     OW38905  11.434   7.472  11.066
45689SOL    HW138906  11.439   7.566  11.046
45689SOL    HW238907  11.345   7.459  11.099
45690SOL     OW38908   5.974   8.532  10.774
45690SOL    HW138909   5.982   8.626  10.790
45690SOL    HW238910   5.930   8.498  10.852
45691SOL     OW38911   4.112   0.774  13.871
45691SOL    HW138912   4.040   0.713  13.859
45691SOL    HW238913   4.084   0.829  13.945
45692SOL     OW38914  12.252  14.449   4.791
45692SOL    HW138915  12.296  14.508   4.852
45692SOL    HW238916  12.303  14.455   4.710
45693SOL     OW38917   5.596  13.282  14.103
45693SOL    HW138918   5.541  13.305  14.028
45693SOL    HW238919   5.535  13.267  14.175
45694SOL     OW38920   1.312   3.336   6.502
45694SOL    HW138921   1.356   3.370   6.580
45694SOL    HW238922   1.333   3.398   6.433
45695SOL     OW38923   6.484   8.515  10.142
45695SOL    HW138924   6.562   8.497  10.089
45695SOL    HW238925   6.438   8.583  10.094
45696SOL     OW38926   7.229  10.756  12.930
45696SOL    HW138927   7.265  10.678  12.973
45696SOL    HW238928   7.277  10.829  12.970
45697SOL     OW38929  11.739   5.952  12.460
45697SOL    HW138930  11.691   5.872  12.443
45697SOL    HW238931  11.685   6.021  12.421
45698SOL     OW38932   9.482   4.000   3.352
45698SOL    HW138933   9.509   3.917   3.314
45698SOL    HW238934   9.505   3.993   3.445
45699SOL     OW38935  13.642   6.705  11.956
45699SOL    HW138936  13.634   6.726  12.049
45699SOL    HW238937  13.629   6.788  11.911
45700SOL     OW38938  10.095   2.118  12.147
45700SOL    HW138939  10.114   2.034  12.107
45700SOL    HW238940  10.167   2.175  12.119
45701SOL     OW38941   7.399  12.497   2.263
45701SOL    HW138942   7.442  12.541   2.337
45701SOL    HW238943   7.471  12.459   2.213
45702SOL     OW38944  13.314   3.160   5.431
45702SOL    HW138945  13.253   3.086   5.437
45702SOL    HW238946  13.354   3.151   5.344
45703SOL     OW38947  13.123   1.563   5.625
45703SOL    HW138948  13.194   1.557   5.561
45703SOL    HW238949  13.095   1.655   5.621
45704SOL     OW38950   3.395   1.487  12.197
45704SOL    HW138951   3.303   1.481  12.170
45704SOL    HW238952   3.445   1.460  12.120
45705SOL     OW38953   2.170   2.496   0.768
45705SOL    HW138954   2.201   2.486   0.858
45705SOL    HW238955   2.206   2.580   0.739
45706SOL     OW38956   7.782  14.400  14.028
45706SOL    HW138957   7.756  14.454  13.953
45706SOL    HW238958   7.876  14.418  14.038
45707SOL     OW38959   2.889   0.043   2.962
45707SOL    HW138960   2.885   0.078   2.873
45707SOL    HW238961   2.874   0.118   3.019
45708SOL     OW38962   3.297   9.934  12.453
45708SOL    HW138963   3.254   9.911  12.535
45708SOL    HW238964   3.291   9.854  12.400
45709SOL     OW38965  12.767   0.725   6.831
45709SOL    HW138966  12.702   0.709   6.899
45709SOL    HW238967  12.775   0.642   6.785
45710SOL     OW38968   1.515   2.599  14.125
45710SOL    HW138969   1.532   2.555  14.208
45710SOL    HW238970   1.419   2.601  14.118
45711SOL     OW38971   9.503  12.457   4.092
45711SOL    HW138972   9.445  12.401   4.040
45711SOL    HW238973   9.535  12.401   4.161
45712SOL     OW38974   8.483   4.167   1.804
45712SOL    HW138975   8.516   4.160   1.714
45712SOL    HW238976   8.388   4.170   1.794
45713SOL     OW38977   0.813   6.091  13.396
45713SOL    HW138978   0.781   6.001  13.395
45713SOL    HW238979   0.737   6.144  13.419
45714SOL     OW38980  12.852  11.542  14.739
45714SOL    HW138981  12.834  11.450  14.721
45714SOL    HW238982  12.824  11.588  14.660
45715SOL     OW38983  13.537  10.441   1.819
45715SOL    HW138984  13.580  10.374   1.872
45715SOL    HW238985  13.449  10.447   1.856
45716SOL     OW38986  13.562   0.288  12.682
45716SOL    HW138987  13.522   0.296  12.596
45716SOL    HW238988  13.489   0.302  12.744
45717SOL     OW38989   4.230  10.073  13.139
45717SOL    HW138990   4.303  10.119  13.098
45717SOL    HW238991   4.207  10.004  13.077
45718SOL     OW38992   5.136  11.069   0.840
45718SOL    HW138993   5.114  10.976   0.844
45718SOL    HW238994   5.146  11.088   0.747
45719SOL     OW38995   8.120  12.379  13.578
45719SOL    HW138996   8.205  12.420  13.593
45719SOL    HW238997   8.094  12.344  13.663
45720SOL     OW38998   1.422  13.401   4.289
45720SOL    HW138999   1.397  13.309   4.286
45720SOL    HW239000   1.401  13.429   4.378
45721SOL     OW39001   1.108   5.161   8.833
45721SOL    HW139002   1.056   5.206   8.767
45721SOL    HW239003   1.134   5.079   8.791
45722SOL     OW39004   6.384  12.339  10.543
45722SOL    HW139005   6.359  12.431  10.535
45722SOL    HW239006   6.302  12.291  10.530
45723SOL     OW39007   8.203   1.144   2.576
45723SOL    HW139008   8.273   1.085   2.549
45723SOL    HW239009   8.122   1.094   2.559
45724SOL     OW39010   7.756   1.560   0.121
45724SOL    HW139011   7.730   1.521   0.205
45724SOL    HW239012   7.676   1.603   0.089
45725SOL     OW39013   8.110   9.295   4.990
45725SOL    HW139014   8.067   9.258   4.913
45725SOL    HW239015   8.181   9.233   5.010
45726SOL     OW39016   5.487   7.800   7.446
45726SOL    HW139017   5.509   7.715   7.486
45726SOL    HW239018   5.393   7.796   7.432
45727SOL     OW39019   8.364   9.841   0.091
45727SOL    HW139020   8.331   9.931   0.089
45727SOL    HW239021   8.431   9.839   0.023
45728SOL     OW39022  13.863  10.358  11.229
45728SOL    HW139023  13.823  10.334  11.313
45728SOL    HW239024  13.812  10.309  11.164
45729SOL     OW39025  13.846   0.526  10.445
45729SOL    HW139026  13.774   0.581  10.416
45729SOL    HW239027  13.920   0.586  10.455
45730SOL     OW39028   7.331   9.286  10.931
45730SOL    HW139029   7.300   9.237  11.006
45730SOL    HW239030   7.383   9.222  10.881
45731SOL     OW39031  13.408   4.050   0.252
45731SOL    HW139032  13.351   4.095   0.190
45731SOL    HW239033  13.352   3.984   0.292
45732SOL     OW39034   7.565   0.062  14.177
45732SOL    HW139035   7.529   0.082  14.090
45732SOL    HW239036   7.653   0.098  14.175
45733SOL     OW39037   8.329  10.175   8.105
45733SOL    HW139038   8.306  10.085   8.126
45733SOL    HW239039   8.398  10.167   8.040
45734SOL     OW39040   2.182   7.371   1.547
45734SOL    HW139041   2.174   7.459   1.584
45734SOL    HW239042   2.129   7.316   1.604
45735SOL     OW39043   0.828   6.218   0.570
45735SOL    HW139044   0.779   6.299   0.583
45735SOL    HW239045   0.778   6.152   0.618
45736SOL     OW39046  10.611  12.873   5.980
45736SOL    HW139047  10.588  12.785   6.010
45736SOL    HW239048  10.651  12.914   6.057
45737SOL     OW39049   3.557   9.540   8.944
45737SOL    HW139050   3.507   9.460   8.932
45737SOL    HW239051   3.619   9.541   8.871
45738SOL     OW39052   7.434  12.849   0.169
45738SOL    HW139053   7.346  12.882   0.187
45738SOL    HW239054   7.464  12.901   0.095
45739SOL     OW39055   2.710  11.584   4.893
45739SOL    HW139056   2.742  11.624   4.974
45739SOL    HW239057   2.765  11.506   4.882
45740SOL     OW39058  12.408   6.702  12.100
45740SOL    HW139059  12.453   6.630  12.144
45740SOL    HW239060  12.422   6.686  12.007
45741SOL     OW39061   8.051   3.449   3.963
45741SOL    HW139062   8.074   3.542   3.972
45741SOL    HW239063   8.086   3.409   4.043
45742SOL     OW39064  12.623  11.396   3.274
45742SOL    HW139065  12.552  11.352   3.227
45742SOL    HW239066  12.698  11.338   3.265
45743SOL     OW39067   0.706   7.799   4.010
45743SOL    HW139068   0.648   7.766   3.942
45743SOL    HW239069   0.793   7.768   3.985
45744SOL     OW39070  12.213   4.660   6.454
45744SOL    HW139071  12.216   4.574   6.413
45744SOL    HW239072  12.269   4.715   6.399
45745SOL     OW39073   6.529  11.403   9.364
45745SOL    HW139074   6.543  11.492   9.398
45745SOL    HW239075   6.613  11.378   9.327
45746SOL     OW39076   0.144   1.391   4.036
45746SOL    HW139077   0.060   1.346   4.026
45746SOL    HW239078   0.210   1.323   4.024
45747SOL     OW39079   2.705   3.825  13.154
45747SOL    HW139080   2.754   3.898  13.117
45747SOL    HW239081   2.661   3.785  13.078
45748SOL     OW39082  12.924   3.846   7.865
45748SOL    HW139083  12.930   3.777   7.931
45748SOL    HW239084  12.887   3.921   7.912
45749SOL     OW39085   0.544   2.516  14.386
45749SOL    HW139086   0.608   2.581  14.354
45749SOL    HW239087   0.549   2.445  14.323
45750SOL     OW39088   0.697   2.039  11.638
45750SOL    HW139089   0.666   2.126  11.662
45750SOL    HW239090   0.748   2.052  11.558
45751SOL     OW39091   1.295  14.537   6.883
45751SOL    HW139092   1.312  14.632   6.880
45751SOL    HW239093   1.200  14.529   6.873
45752SOL     OW39094   2.029  13.160   2.442
45752SOL    HW139095   1.959  13.094   2.439
45752SOL    HW239096   2.071  13.146   2.526
45753SOL     OW39097   5.663   5.191  14.489
45753SOL    HW139098   5.709   5.194  14.405
45753SOL    HW239099   5.649   5.097  14.506
45754SOL     OW39100   0.028   6.057   3.101
45754SOL    HW139101  14.853   6.058   3.022
45754SOL    HW239102  14.850   6.026   3.170
45755SOL     OW39103  13.398   6.049   7.489
45755SOL    HW139104  13.337   6.112   7.527
45755SOL    HW239105  13.431   6.091   7.409
45756SOL     OW39106  10.214  11.935   3.177
45756SOL    HW139107  10.249  11.914   3.090
45756SOL    HW239108  10.290  11.929   3.235
45757SOL     OW39109  14.638  13.090   0.302
45757SOL    HW139110  14.610  13.048   0.220
45757SOL    HW239111  14.690  13.165   0.274
45758SOL     OW39112   8.941  11.673  13.797
45758SOL    HW139113   8.862  11.633  13.762
45758SOL    HW239114   8.933  11.766  13.777
45759SOL     OW39115   5.559   7.641  11.992
45759SOL    HW139116   5.553   7.702  11.918
45759SOL    HW239117   5.585   7.558  11.953
45760SOL     OW39118   3.710  11.312  10.136
45760SOL    HW139119   3.729  11.390  10.187
45760SOL    HW239120   3.766  11.244  10.175
45761SOL     OW39121   9.290   6.231   0.771
45761SOL    HW139122   9.309   6.260   0.860
45761SOL    HW239123   9.372   6.192   0.741
45762SOL     OW39124   9.974  10.603   4.336
45762SOL    HW139125   9.975  10.640   4.423
45762SOL    HW239126  10.029  10.524   4.343
45763SOL     OW39127  11.656   6.987   1.228
45763SOL    HW139128  11.600   7.058   1.198
45763SOL    HW239129  11.682   6.941   1.148
45764SOL     OW39130  10.606   8.016   1.921
45764SOL    HW139131  10.662   7.939   1.930
45764SOL    HW239132  10.601   8.052   2.009
45765SOL     OW39133  10.532   3.389  10.893
45765SOL    HW139134  10.600   3.323  10.880
45765SOL    HW239135  10.580   3.469  10.917
45766SOL     OW39136  12.505   0.300   1.808
45766SOL    HW139137  12.418   0.260   1.805
45766SOL    HW239138  12.489   0.393   1.826
45767SOL     OW39139  13.721  14.401  14.111
45767SOL    HW139140  13.771  14.422  14.032
45767SOL    HW239141  13.633  14.382  14.079
45768SOL     OW39142   5.801  10.077   4.331
45768SOL    HW139143   5.713  10.114   4.343
45768SOL    HW239144   5.840  10.130   4.262
45769SOL     OW39145   7.077  13.827  12.667
45769SOL    HW139146   7.070  13.732  12.673
45769SOL    HW239147   6.992  13.860  12.695
45770SOL     OW39148  14.686   1.031   3.952
45770SOL    HW139149  14.594   1.004   3.963
45770SOL    HW239150  14.735   0.949   3.948
45771SOL     OW39151   1.508   4.018   1.976
45771SOL    HW139152   1.528   3.963   2.052
45771SOL    HW239153   1.413   4.025   1.974
45772SOL     OW39154  10.007   5.183  11.079
45772SOL    HW139155  10.096   5.161  11.049
45772SOL    HW239156   9.994   5.274  11.052
45773SOL     OW39157   4.916   1.534   5.435
45773SOL    HW139158   5.005   1.497   5.434
45773SOL    HW239159   4.924   1.615   5.384
45774SOL     OW39160   9.056   2.641   5.392
45774SOL    HW139161   9.048   2.697   5.315
45774SOL    HW239162   8.980   2.663   5.446
45775SOL     OW39163  12.984   1.210  14.055
45775SOL    HW139164  13.034   1.200  13.973
45775SOL    HW239165  13.048   1.239  14.119
45776SOL     OW39166   3.099  13.628   2.042
45776SOL    HW139167   3.024  13.688   2.045
45776SOL    HW239168   3.069  13.555   1.989
45777SOL     OW39169   7.951   1.200  13.773
45777SOL    HW139170   7.870   1.159  13.744
45777SOL    HW239171   7.965   1.166  13.862
45778SOL     OW39172   6.011   8.877   1.727
45778SOL    HW139173   5.974   8.795   1.760
45778SOL    HW239174   6.102   8.877   1.757
45779SOL     OW39175   7.836   9.099   7.022
45779SOL    HW139176   7.925   9.129   7.040
45779SOL    HW239177   7.845   9.006   7.000
45780SOL     OW39178   6.261  13.118   8.259
45780SOL    HW139179   6.260  13.167   8.178
45780SOL    HW239180   6.350  13.125   8.291
45781SOL     OW39181   4.841  11.027   1.292
45781SOL    HW139182   4.821  11.116   1.263
45781SOL    HW239183   4.935  11.029   1.312
45782SOL     OW39184   8.174   3.692   3.887
45782SOL    HW139185   8.177   3.624   3.820
45782SOL    HW239186   8.197   3.772   3.840
45783SOL     OW39187  13.577   8.622   8.302
45783SOL    HW139188  13.502   8.680   8.286
45783SOL    HW239189  13.653   8.680   8.298
45784SOL     OW39190  13.799   9.611  13.092
45784SOL    HW139191  13.761   9.573  13.171
45784SOL    HW239192  13.878   9.560  13.076
45785SOL     OW39193  13.507  11.479   9.151
45785SOL    HW139194  13.590  11.501   9.108
45785SOL    HW239195  13.502  11.540   9.225
45786SOL     OW39196   1.275   3.660  10.597
45786SOL    HW139197   1.194   3.620  10.566
45786SOL    HW239198   1.275   3.644  10.691
45787SOL     OW39199   8.733  10.164   3.080
45787SOL    HW139200   8.654  10.139   3.031
45787SOL    HW239201   8.793  10.090   3.068
45788SOL     OW39202   6.706   7.686  12.104
45788SOL    HW139203   6.795   7.715  12.125
45788SOL    HW239204   6.700   7.599  12.145
45789SOL     OW39205   7.649   2.937   2.970
45789SOL    HW139206   7.741   2.942   2.941
45789SOL    HW239207   7.603   2.996   2.911
45790SOL     OW39208   7.610   6.028   3.593
45790SOL    HW139209   7.565   6.112   3.601
45790SOL    HW239210   7.627   6.019   3.499
45791SOL     OW39211   5.205   9.544   3.085
45791SOL    HW139212   5.286   9.500   3.112
45791SOL    HW239213   5.136   9.503   3.137
45792SOL     OW39214   2.494  12.341   8.538
45792SOL    HW139215   2.579  12.384   8.539
45792SOL    HW239216   2.496  12.281   8.612
45793SOL     OW39217   4.103  12.266   7.844
45793SOL    HW139218   4.036  12.252   7.777
45793SOL    HW239219   4.057  12.308   7.917
45794SOL     OW39220  11.568  12.552   5.858
45794SOL    HW139221  11.654  12.518   5.883
45794SOL    HW239222  11.509  12.523   5.927
45795SOL     OW39223   1.447   1.594   7.247
45795SOL    HW139224   1.489   1.598   7.333
45795SOL    HW239225   1.365   1.642   7.258
45796SOL     OW39226   0.059  11.615   7.030
45796SOL    HW139227   0.055  11.521   7.045
45796SOL    HW239228   0.136  11.629   6.976
45797SOL     OW39229  12.929   8.810  12.002
45797SOL    HW139230  12.993   8.835  12.069
45797SOL    HW239231  12.936   8.715  11.995
45798SOL     OW39232  14.617   1.585  13.335
45798SOL    HW139233  14.543   1.529  13.312
45798SOL    HW239234  14.578   1.656  13.387
45799SOL     OW39235   2.714  13.448   9.465
45799SOL    HW139236   2.762  13.382   9.417
45799SOL    HW239237   2.754  13.448   9.552
45800SOL     OW39238   3.376   2.698  10.346
45800SOL    HW139239   3.403   2.776  10.297
45800SOL    HW239240   3.406   2.714  10.435
45801SOL     OW39241  10.234  13.107   4.462
45801SOL    HW139242  10.138  13.103   4.470
45801SOL    HW239243  10.260  13.019   4.437
45802SOL     OW39244   2.262   5.194   0.559
45802SOL    HW139245   2.313   5.119   0.528
45802SOL    HW239246   2.259   5.182   0.654
45803SOL     OW39247   0.286  10.939  12.731
45803SOL    HW139248   0.240  10.888  12.798
45803SOL    HW239249   0.316  10.874  12.668
45804SOL     OW39250  13.364   8.151  12.362
45804SOL    HW139251  13.419   8.072  12.371
45804SOL    HW239252  13.426   8.220  12.339
45805SOL     OW39253   0.910   5.921   4.799
45805SOL    HW139254   0.914   5.904   4.893
45805SOL    HW239255   0.899   6.016   4.792
45806SOL     OW39256   5.434  11.646   9.768
45806SOL    HW139257   5.458  11.661   9.676
45806SOL    HW239258   5.354  11.594   9.764
45807SOL     OW39259   1.794   9.765   4.771
45807SOL    HW139260   1.838   9.810   4.843
45807SOL    HW239261   1.758   9.835   4.718
45808SOL     OW39262   0.927  10.975   2.376
45808SOL    HW139263   0.885  11.059   2.399
45808SOL    HW239264   0.879  10.910   2.427
45809SOL     OW39265   4.809   5.997   3.635
45809SOL    HW139266   4.822   6.091   3.644
45809SOL    HW239267   4.713   5.986   3.637
45810SOL     OW39268   8.724   2.403   5.549
45810SOL    HW139269   8.794   2.339   5.534
45810SOL    HW239270   8.649   2.349   5.575
45811SOL     OW39271   4.869   6.610  11.334
45811SOL    HW139272   4.872   6.538  11.271
45811SOL    HW239273   4.790   6.592  11.386
45812SOL     OW39274  14.539  12.166   5.843
45812SOL    HW139275  14.508  12.239   5.896
45812SOL    HW239276  14.632  12.159   5.862
45813SOL     OW39277   8.394   3.862  13.241
45813SOL    HW139278   8.446   3.935  13.207
45813SOL    HW239279   8.442   3.833  13.320
45814SOL     OW39280  10.076   4.872   4.579
45814SOL    HW139281  10.149   4.871   4.517
45814SOL    HW239282  10.109   4.924   4.653
45815SOL     OW39283   0.095   9.678   4.079
45815SOL    HW139284   0.032   9.709   4.144
45815SOL    HW239285   0.147   9.755   4.056
45816SOL     OW39286   5.361  14.256   9.764
45816SOL    HW139287   5.354  14.252   9.859
45816SOL    HW239288   5.272  14.246   9.733
45817SOL     OW39289   2.165   2.126  12.935
45817SOL    HW139290   2.186   2.142  12.843
45817SOL    HW239291   2.244   2.085  12.971
45818SOL     OW39292  14.065  13.552   2.521
45818SOL    HW139293  14.126  13.518   2.586
45818SOL    HW239294  13.995  13.487   2.518
45819SOL     OW39295   9.356  11.063   0.071
45819SOL    HW139296   9.365  11.035  14.859
45819SOL    HW239297   9.426  11.016   0.117
45820SOL     OW39298   4.621  11.724   6.532
45820SOL    HW139299   4.537  11.737   6.489
45820SOL    HW239300   4.685  11.763   6.473
45821SOL     OW39301   5.243   5.135   4.355
45821SOL    HW139302   5.324   5.088   4.376
45821SOL    HW239303   5.271   5.209   4.301
45822SOL     OW39304  11.286   0.928   0.429
45822SOL    HW139305  11.320   1.012   0.399
45822SOL    HW239306  11.364   0.876   0.448
45823SOL     OW39307  10.785  14.052  11.538
45823SOL    HW139308  10.809  14.087  11.624
45823SOL    HW239309  10.715  13.989  11.556
45824SOL     OW39310   2.854   0.397   4.949
45824SOL    HW139311   2.857   0.453   5.027
45824SOL    HW239312   2.826   0.312   4.982
45825SOL     OW39313  11.812   4.630   1.789
45825SOL    HW139314  11.906   4.624   1.775
45825SOL    HW239315  11.801   4.698   1.855
45826SOL     OW39316   4.231  14.098   4.685
45826SOL    HW139317   4.250  14.012   4.723
45826SOL    HW239318   4.211  14.079   4.593
45827SOL     OW39319  12.553   4.711   4.116
45827SOL    HW139320  12.595   4.783   4.068
45827SOL    HW239321  12.613   4.637   4.107
45828SOL     OW39322   0.086   5.671   5.116
45828SOL    HW139323  14.879   5.706   5.100
45828SOL    HW239324   0.083   5.581   5.082
45829SOL     OW39325  11.024   6.941  10.457
45829SOL    HW139326  11.009   6.974  10.368
45829SOL    HW239327  11.119   6.933  10.463
45830SOL     OW39328   2.352   0.604  14.440
45830SOL    HW139329   2.407   0.682  14.443
45830SOL    HW239330   2.413   0.533  14.418
45831SOL     OW39331   5.684   0.723   0.420
45831SOL    HW139332   5.729   0.805   0.400
45831SOL    HW239333   5.755   0.659   0.429
45832SOL     OW39334   1.090  10.016  10.707
45832SOL    HW139335   1.034  10.089  10.678
45832SOL    HW239336   1.125   9.980  10.626
45833SOL     OW39337  10.537   4.510   7.895
45833SOL    HW139338  10.608   4.566   7.863
45833SOL    HW239339  10.571   4.470   7.975
45834SOL     OW39340   3.746  10.946   5.726
45834SOL    HW139341   3.680  10.915   5.788
45834SOL    HW239342   3.731  10.893   5.647
45835SOL     OW39343   5.718   9.399   0.727
45835SOL    HW139344   5.661   9.452   0.673
45835SOL    HW239345   5.800   9.449   0.733
45836SOL     OW39346  14.337  11.755   6.396
45836SOL    HW139347  14.316  11.733   6.305
45836SOL    HW239348  14.411  11.698   6.417
45837SOL     OW39349   6.153   0.420   6.321
45837SOL    HW139350   6.237   0.403   6.277
45837SOL    HW239351   6.092   0.358   6.281
45838SOL     OW39352  10.529  11.543   7.565
45838SOL    HW139353  10.623  11.529   7.579
45838SOL    HW239354  10.523  11.629   7.523
45839SOL     OW39355   4.387   0.021  10.269
45839SOL    HW139356   4.332   0.011  10.347
45839SOL    HW239357   4.418   0.111  10.274
45840SOL     OW39358  14.687   3.174  12.338
45840SOL    HW139359  14.724   3.115  12.272
45840SOL    HW239360  14.733   3.257  12.325
45841SOL     OW39361   6.792   8.764   7.104
45841SOL    HW139362   6.885   8.759   7.125
45841SOL    HW239363   6.782   8.848   7.059
45842SOL     OW39364  14.413  11.915  12.848
45842SOL    HW139365  14.470  11.838  12.842
45842SOL    HW239366  14.405  11.932  12.941
45843SOL     OW39367   9.986   1.319   1.814
45843SOL    HW139368  10.028   1.363   1.888
45843SOL    HW239369   9.965   1.390   1.754
45844SOL     OW39370   5.172   0.326   5.435
45844SOL    HW139371   5.221   0.395   5.391
45844SOL    HW239372   5.229   0.249   5.431
45845SOL     OW39373   4.526  13.355   8.278
45845SOL    HW139374   4.516  13.313   8.193
45845SOL    HW239375   4.444  13.335   8.325
45846SOL     OW39376   5.178   4.592   7.660
45846SOL    HW139377   5.241   4.636   7.603
45846SOL    HW239378   5.231   4.536   7.716
45847SOL     OW39379   2.040   5.599  10.996
45847SOL    HW139380   2.112   5.598  11.059
45847SOL    HW239381   2.070   5.543  10.924
45848SOL     OW39382   8.444   6.704  10.261
45848SOL    HW139383   8.477   6.771  10.201
45848SOL    HW239384   8.426   6.629  10.205
45849SOL     OW39385  11.792  14.050  10.846
45849SOL    HW139386  11.768  14.138  10.876
45849SOL    HW239387  11.715  14.019  10.799
45850SOL     OW39388   6.600   8.118   7.082
45850SOL    HW139389   6.673   8.134   7.023
45850SOL    HW239390   6.612   8.182   7.153
45851SOL     OW39391   3.057   2.493   1.741
45851SOL    HW139392   3.135   2.508   1.794
45851SOL    HW239393   3.084   2.428   1.676
45852SOL     OW39394   7.051  13.295   7.750
45852SOL    HW139395   7.069  13.210   7.711
45852SOL    HW239396   6.963  13.317   7.720
45853SOL     OW39397   0.252   8.706  12.088
45853SOL    HW139398   0.208   8.717  12.004
45853SOL    HW239399   0.294   8.621  12.082
45854SOL     OW39400   7.994   2.256   4.330
45854SOL    HW139401   8.053   2.239   4.403
45854SOL    HW239402   7.944   2.333   4.356
45855SOL     OW39403   2.871  13.078   6.000
45855SOL    HW139404   2.891  12.990   5.967
45855SOL    HW239405   2.880  13.070   6.095
45856SOL     OW39406   2.791  10.151  13.550
45856SOL    HW139407   2.860  10.212  13.525
45856SOL    HW239408   2.787  10.088  13.478
45857SOL     OW39409   2.813   0.521   2.504
45857SOL    HW139410   2.747   0.452   2.494
45857SOL    HW239411   2.774   0.581   2.569
45858SOL     OW39412   5.949  14.814   4.792
45858SOL    HW139413   5.940  14.787   4.700
45858SOL    HW239414   5.859  14.825   4.823
45859SOL     OW39415   5.521  12.519   3.678
45859SOL    HW139416   5.600  12.523   3.732
45859SOL    HW239417   5.456  12.477   3.735
45860SOL     OW39418  10.802   2.162   6.574
45860SOL    HW139419  10.741   2.131   6.506
45860SOL    HW239420  10.754   2.232   6.618
45861SOL     OW39421   1.286   8.766  12.378
45861SOL    HW139422   1.377   8.739  12.392
45861SOL    HW239423   1.291   8.861  12.370
45862SOL     OW39424  13.020   1.481   0.665
45862SOL    HW139425  13.036   1.415   0.732
45862SOL    HW239426  12.990   1.432   0.589
45863SOL     OW39427  10.668   0.636   4.571
45863SOL    HW139428  10.734   0.683   4.521
45863SOL    HW239429  10.688   0.655   4.662
45864SOL     OW39430   6.931   7.992   2.840
45864SOL    HW139431   6.929   7.931   2.914
45864SOL    HW239432   7.024   7.997   2.817
45865SOL     OW39433  13.088   7.507   4.268
45865SOL    HW139434  13.057   7.416   4.272
45865SOL    HW239435  13.032   7.555   4.329
45866SOL     OW39436   9.675   7.545  12.060
45866SOL    HW139437   9.608   7.580  12.001
45866SOL    HW239438   9.738   7.616  12.070
45867SOL     OW39439   1.777   6.884   7.538
45867SOL    HW139440   1.781   6.911   7.630
45867SOL    HW239441   1.770   6.966   7.489
45868SOL     OW39442   9.836   7.808   4.089
45868SOL    HW139443   9.819   7.899   4.111
45868SOL    HW239444   9.770   7.786   4.024
45869SOL     OW39445   1.638   3.502  11.658
45869SOL    HW139446   1.614   3.446  11.732
45869SOL    HW239447   1.681   3.577  11.699
45870SOL     OW39448  10.745  10.826   3.197
45870SOL    HW139449  10.838  10.804   3.187
45870SOL    HW239450  10.730  10.896   3.133
45871SOL     OW39451   9.007  14.703  13.131
45871SOL    HW139452   9.073  14.731  13.194
45871SOL    HW239453   8.975  14.784  13.092
45872SOL     OW39454   7.834   2.160   4.577
45872SOL    HW139455   7.926   2.161   4.605
45872SOL    HW239456   7.807   2.252   4.581
45873SOL     OW39457   0.240   7.399  10.742
45873SOL    HW139458   0.213   7.428  10.829
45873SOL    HW239459   0.278   7.476  10.701
45874SOL     OW39460   9.890   8.225  10.585
45874SOL    HW139461   9.811   8.172  10.577
45874SOL    HW239462   9.868   8.291  10.651
45875SOL     OW39463  11.024   6.619  14.189
45875SOL    HW139464  11.094   6.553  14.183
45875SOL    HW239465  10.958   6.588  14.127
45876SOL     OW39466   2.143   6.572  10.335
45876SOL    HW139467   2.168   6.555  10.244
45876SOL    HW239468   2.216   6.538  10.386
45877SOL     OW39469  11.208  11.915  13.289
45877SOL    HW139470  11.141  11.849  13.308
45877SOL    HW239471  11.187  11.988  13.348
45878SOL     OW39472   4.855   1.671   2.407
45878SOL    HW139473   4.864   1.746   2.348
45878SOL    HW239474   4.857   1.709   2.495
45879SOL     OW39475   9.718   5.522  10.445
45879SOL    HW139476   9.799   5.563  10.417
45879SOL    HW239477   9.728   5.430  10.420
45880SOL     OW39478   3.900  13.090   3.220
45880SOL    HW139479   3.906  13.038   3.139
45880SOL    HW239480   3.880  13.179   3.189
45881SOL     OW39481   6.568   4.343   8.340
45881SOL    HW139482   6.541   4.255   8.311
45881SOL    HW239483   6.641   4.327   8.400
45882SOL     OW39484  11.687  11.277  11.674
45882SOL    HW139485  11.715  11.325  11.752
45882SOL    HW239486  11.629  11.337  11.628
45883SOL     OW39487   8.834  12.480  12.378
45883SOL    HW139488   8.769  12.431  12.429
45883SOL    HW239489   8.885  12.528  12.444
45884SOL     OW39490   7.236   0.420   7.184
45884SOL    HW139491   7.298   0.468   7.129
45884SOL    HW239492   7.232   0.333   7.145
45885SOL     OW39493   1.776   5.976   2.196
45885SOL    HW139494   1.728   6.034   2.255
45885SOL    HW239495   1.858   6.022   2.178
45886SOL     OW39496   5.034   7.212   2.973
45886SOL    HW139497   5.122   7.176   2.977
45886SOL    HW239498   5.005   7.196   2.882
45887SOL     OW39499   9.725   6.734   7.167
45887SOL    HW139500   9.732   6.764   7.258
45887SOL    HW239501   9.671   6.800   7.124
45888SOL     OW39502   7.273  10.217   9.877
45888SOL    HW139503   7.250  10.220   9.784
45888SOL    HW239504   7.329  10.139   9.885
45889SOL     OW39505   7.668   2.736   9.789
45889SOL    HW139506   7.719   2.748   9.709
45889SOL    HW239507   7.727   2.690   9.849
45890SOL     OW39508   3.497   1.205   0.461
45890SOL    HW139509   3.436   1.245   0.398
45890SOL    HW239510   3.446   1.138   0.505
45891SOL     OW39511   4.005   2.210   4.407
45891SOL    HW139512   4.022   2.188   4.499
45891SOL    HW239513   4.086   2.251   4.377
45892SOL     OW39514   8.426   4.418  11.384
45892SOL    HW139515   8.471   4.409  11.468
45892SOL    HW239516   8.496   4.436  11.321
45893SOL     OW39517   6.936   4.187  10.981
45893SOL    HW139518   6.941   4.122  11.051
45893SOL    HW239519   6.912   4.268  11.025
45894SOL     OW39520  12.556   1.419   6.031
45894SOL    HW139521  12.565   1.353   6.100
45894SOL    HW239522  12.645   1.433   5.999
45895SOL     OW39523   7.272   2.888   0.929
45895SOL    HW139524   7.343   2.922   0.875
45895SOL    HW239525   7.271   2.794   0.912
45896SOL     OW39526   5.024  10.427  12.518
45896SOL    HW139527   5.112  10.392  12.528
45896SOL    HW239528   4.982  10.371  12.453
45897SOL     OW39529   3.924   6.065   7.616
45897SOL    HW139530   3.907   6.032   7.704
45897SOL    HW239531   3.840   6.099   7.586
45898SOL     OW39532   8.407  14.685   0.800
45898SOL    HW139533   8.347  14.722   0.865
45898SOL    HW239534   8.481  14.747   0.798
45899SOL     OW39535   8.199  13.844  14.492
45899SOL    HW139536   8.221  13.926  14.536
45899SOL    HW239537   8.123  13.865  14.438
45900SOL     OW39538   2.966   3.128   8.560
45900SOL    HW139539   2.948   3.078   8.639
45900SOL    HW239540   2.988   3.215   8.591
45901SOL     OW39541  10.955  13.026   8.786
45901SOL    HW139542  10.864  13.054   8.784
45901SOL    HW239543  10.952  12.936   8.820
45902SOL     OW39544   1.240  14.245  11.851
45902SOL    HW139545   1.191  14.166  11.830
45902SOL    HW239546   1.310  14.248  11.786
45903SOL     OW39547   4.099   1.096   1.450
45903SOL    HW139548   4.136   1.057   1.370
45903SOL    HW239549   4.093   1.189   1.431
45904SOL     OW39550   8.263   9.241  13.792
45904SOL    HW139551   8.335   9.303  13.782
45904SOL    HW239552   8.300   9.169  13.844
45905SOL     OW39553  10.464   1.546   9.938
45905SOL    HW139554  10.540   1.509   9.892
45905SOL    HW239555  10.436   1.619   9.883
45906SOL     OW39556   0.836   5.161  10.952
45906SOL    HW139557   0.841   5.247  10.908
45906SOL    HW239558   0.843   5.182  11.045
45907SOL     OW39559   8.693   5.707  11.866
45907SOL    HW139560   8.684   5.759  11.787
45907SOL    HW239561   8.673   5.767  11.938
45908SOL     OW39562   9.465  12.624  13.243
45908SOL    HW139563   9.425  12.548  13.286
45908SOL    HW239564   9.408  12.697  13.265
45909SOL     OW39565   0.089   4.124   7.543
45909SOL    HW139566   0.149   4.173   7.486
45909SOL    HW239567   0.078   4.040   7.498
45910SOL     OW39568   5.917   9.990   2.457
45910SOL    HW139569   5.879   9.902   2.462
45910SOL    HW239570   5.842  10.049   2.462
45911SOL     OW39571  12.030   0.408  11.258
45911SOL    HW139572  12.015   0.355  11.180
45911SOL    HW239573  12.124   0.399  11.276
45912SOL     OW39574   4.247   3.984   9.470
45912SOL    HW139575   4.292   4.068   9.459
45912SOL    HW239576   4.269   3.955   9.558
45913SOL     OW39577   6.600   1.005  12.185
45913SOL    HW139578   6.545   0.930  12.207
45913SOL    HW239579   6.673   1.000  12.247
45914SOL     OW39580   0.032  14.094  11.977
45914SOL    HW139581   0.021  14.020  11.917
45914SOL    HW239582   0.066  14.055  12.057
45915SOL     OW39583  11.948  12.283  13.837
45915SOL    HW139584  11.889  12.289  13.762
45915SOL    HW239585  11.920  12.354  13.895
45916SOL     OW39586   2.532   5.689   6.617
45916SOL    HW139587   2.556   5.693   6.709
45916SOL    HW239588   2.563   5.603   6.588
45917SOL     OW39589   5.996   2.295   7.448
45917SOL    HW139590   5.939   2.346   7.390
45917SOL    HW239591   5.994   2.343   7.531
45918SOL     OW39592   2.273   7.831   6.084
45918SOL    HW139593   2.303   7.891   6.016
45918SOL    HW239594   2.351   7.784   6.112
45919SOL     OW39595   9.333   4.136   7.041
45919SOL    HW139596   9.414   4.183   7.022
45919SOL    HW239597   9.359   4.044   7.043
45920SOL     OW39598   2.486   0.402  12.254
45920SOL    HW139599   2.571   0.444  12.237
45920SOL    HW239600   2.488   0.323  12.200
45921SOL     OW39601  13.484   4.551   1.711
45921SOL    HW139602  13.524   4.633   1.682
45921SOL    HW239603  13.395   4.574   1.735
45922SOL     OW39604  11.473   2.180   2.272
45922SOL    HW139605  11.550   2.231   2.295
45922SOL    HW239606  11.400   2.228   2.310
45923SOL     OW39607   9.352   5.778  12.748
45923SOL    HW139608   9.393   5.857  12.710
45923SOL    HW239609   9.363   5.711  12.681
45924SOL     OW39610   1.558   1.220   2.333
45924SOL    HW139611   1.480   1.268   2.359
45924SOL    HW239612   1.562   1.229   2.238
45925SOL     OW39613  13.240   7.335   8.400
45925SOL    HW139614  13.287   7.320   8.318
45925SOL    HW239615  13.195   7.418   8.387
45926SOL     OW39616  11.054   0.822  10.183
45926SOL    HW139617  11.128   0.761  10.184
45926SOL    HW239618  11.020   0.819  10.272
45927SOL     OW39619   1.055   5.623  10.291
45927SOL    HW139620   1.043   5.707  10.247
45927SOL    HW239621   0.979   5.571  10.266
45928SOL     OW39622  14.268   6.907   4.072
45928SOL    HW139623  14.248   6.827   4.121
45928SOL    HW239624  14.195   6.966   4.090
45929SOL     OW39625   6.646   7.481  13.453
45929SOL    HW139626   6.552   7.476  13.435
45929SOL    HW239627   6.657   7.439  13.538
45930SOL     OW39628   5.791   9.274   2.336
45930SOL    HW139629   5.879   9.236   2.347
45930SOL    HW239630   5.732   9.203   2.362
45931SOL     OW39631   8.964  10.169   7.067
45931SOL    HW139632   8.918  10.126   7.139
45931SOL    HW239633   9.057  10.165   7.092
45932SOL     OW39634   8.131   2.610  14.701
45932SOL    HW139635   8.096   2.697  14.680
45932SOL    HW239636   8.084   2.550  14.643
45933SOL     OW39637   4.073   1.006  11.799
45933SOL    HW139638   4.019   0.993  11.877
45933SOL    HW239639   4.155   0.960  11.817
45934SOL     OW39640   8.528  10.478   8.513
45934SOL    HW139641   8.618  10.510   8.504
45934SOL    HW239642   8.500  10.461   8.423
45935SOL     OW39643   2.045  10.631   1.389
45935SOL    HW139644   1.975  10.648   1.325
45935SOL    HW239645   2.100  10.709   1.384
45936SOL     OW39646   7.894   7.901   8.112
45936SOL    HW139647   7.935   7.959   8.048
45936SOL    HW239648   7.944   7.914   8.192
45937SOL     OW39649   3.473   3.840  10.269
45937SOL    HW139650   3.430   3.857  10.185
45937SOL    HW239651   3.567   3.838  10.248
45938SOL     OW39652  12.051  12.408  11.551
45938SOL    HW139653  12.044  12.327  11.602
45938SOL    HW239654  12.089  12.381  11.467
45939SOL     OW39655   0.048  10.375  13.005
45939SOL    HW139656  14.850  10.425  12.981
45939SOL    HW239657   0.079  10.417  13.086
45940SOL     OW39658  11.857   1.325   5.064
45940SOL    HW139659  11.854   1.358   5.153
45940SOL    HW239660  11.859   1.230   5.073
45941SOL     OW39661   0.915  13.737   7.677
45941SOL    HW139662   0.821  13.752   7.690
45941SOL    HW239663   0.949  13.823   7.652
45942SOL     OW39664   3.071   7.812   9.905
45942SOL    HW139665   3.017   7.769   9.839
45942SOL    HW239666   3.115   7.741   9.951
45943SOL     OW39667  12.334   6.853  10.131
45943SOL    HW139668  12.358   6.824  10.043
45943SOL    HW239669  12.384   6.797  10.189
45944SOL     OW39670  11.552   5.117   4.197
45944SOL    HW139671  11.540   5.128   4.292
45944SOL    HW239672  11.527   5.026   4.180
45945SOL     OW39673   5.576   5.178   6.171
45945SOL    HW139674   5.635   5.252   6.181
45945SOL    HW239675   5.631   5.107   6.138
45946SOL     OW39676   2.882   8.064   9.808
45946SOL    HW139677   2.935   7.989   9.835
45946SOL    HW239678   2.826   8.030   9.738
45947SOL     OW39679   5.858   8.011   1.601
45947SOL    HW139680   5.792   8.077   1.578
45947SOL    HW239681   5.833   7.980   1.688
45948SOL     OW39682   8.539   3.380   8.759
45948SOL    HW139683   8.608   3.447   8.760
45948SOL    HW239684   8.457   3.429   8.763
45949SOL     OW39685   8.852   2.572  10.108
45949SOL    HW139686   8.836   2.657  10.066
45949SOL    HW239687   8.822   2.584  10.198
45950SOL     OW39688   7.247   5.727  12.979
45950SOL    HW139689   7.327   5.777  12.963
45950SOL    HW239690   7.180   5.793  12.997
45951SOL     OW39691   9.763  12.844   5.818
45951SOL    HW139692   9.848  12.883   5.840
45951SOL    HW239693   9.723  12.824   5.902
45952SOL     OW39694   9.899   6.380   0.452
45952SOL    HW139695   9.834   6.448   0.435
45952SOL    HW239696   9.942   6.408   0.533
45953SOL     OW39697  12.181   1.689   1.964
45953SOL    HW139698  12.117   1.619   1.976
45953SOL    HW239699  12.162   1.725   1.877
45954SOL     OW39700   3.845   6.433  12.028
45954SOL    HW139701   3.770   6.482  12.063
45954SOL    HW239702   3.882   6.387  12.104
45955SOL     OW39703   0.046   0.145   3.741
45955SOL    HW139704   0.038   0.155   3.836
45955SOL    HW239705   0.078   0.055   3.729
45956SOL     OW39706   7.844   4.419   4.455
45956SOL    HW139707   7.904   4.493   4.464
45956SOL    HW239708   7.809   4.427   4.367
45957SOL     OW39709  12.780   7.162   9.653
45957SOL    HW139710  12.733   7.227   9.705
45957SOL    HW239711  12.744   7.078   9.683
45958SOL     OW39712   7.077  11.850   0.699
45958SOL    HW139713   7.148  11.911   0.721
45958SOL    HW239714   7.066  11.796   0.777
45959SOL     OW39715   2.421   3.925   6.734
45959SOL    HW139716   2.325   3.920   6.730
45959SOL    HW239717   2.449   3.908   6.644
45960SOL     OW39718  11.292   1.625   1.627
45960SOL    HW139719  11.211   1.580   1.605
45960SOL    HW239720  11.306   1.605   1.720
45961SOL     OW39721  12.584   3.706  11.313
45961SOL    HW139722  12.530   3.629  11.333
45961SOL    HW239723  12.649   3.674  11.251
45962SOL     OW39724   3.282  13.356  14.867
45962SOL    HW139725   3.297  13.376   0.079
45962SOL    HW239726   3.366  13.323  14.835
45963SOL     OW39727   9.733   4.109   8.505
45963SOL    HW139728   9.785   4.135   8.430
45963SOL    HW239729   9.796   4.097   8.576
45964SOL     OW39730  13.232  10.101   5.016
45964SOL    HW139731  13.172  10.042   5.061
45964SOL    HW239732  13.318  10.058   5.022
45965SOL     OW39733  14.675   7.203  12.581
45965SOL    HW139734  14.692   7.117  12.543
45965SOL    HW239735  14.611   7.244  12.523
45966SOL     OW39736   5.129   5.222   8.087
45966SOL    HW139737   5.052   5.224   8.030
45966SOL    HW239738   5.145   5.313   8.109
45967SOL     OW39739   1.581   8.328   5.588
45967SOL    HW139740   1.626   8.381   5.654
45967SOL    HW239741   1.604   8.238   5.609
45968SOL     OW39742   7.846  12.852   4.985
45968SOL    HW139743   7.778  12.784   4.981
45968SOL    HW239744   7.911  12.824   4.920
45969SOL     OW39745   3.404  10.154   6.396
45969SOL    HW139746   3.319  10.195   6.412
45969SOL    HW239747   3.384  10.079   6.339
45970SOL     OW39748  12.445   2.125  13.832
45970SOL    HW139749  12.498   2.045  13.823
45970SOL    HW239750  12.408   2.118  13.920
45971SOL     OW39751   4.623   7.610   0.469
45971SOL    HW139752   4.561   7.684   0.468
45971SOL    HW239753   4.708   7.651   0.484
45972SOL     OW39754  14.348   3.018   6.145
45972SOL    HW139755  14.382   3.105   6.126
45972SOL    HW239756  14.410   2.980   6.207
45973SOL     OW39757   2.127  12.164   8.602
45973SOL    HW139758   2.116  12.069   8.592
45973SOL    HW239759   2.042  12.200   8.577
45974SOL     OW39760   0.795   3.485   9.060
45974SOL    HW139761   0.719   3.430   9.080
45974SOL    HW239762   0.850   3.479   9.138
45975SOL     OW39763   8.209   7.013  10.454
45975SOL    HW139764   8.264   7.085  10.483
45975SOL    HW239765   8.121   7.036  10.484
45976SOL     OW39766   1.614   3.871  11.157
45976SOL    HW139767   1.663   3.821  11.222
45976SOL    HW239768   1.598   3.810  11.085
45977SOL     OW39769   1.632  11.838  12.932
45977SOL    HW139770   1.576  11.775  12.888
45977SOL    HW239771   1.592  11.923  12.913
45978SOL     OW39772   6.221   4.993   5.503
45978SOL    HW139773   6.269   4.951   5.432
45978SOL    HW239774   6.129   4.978   5.481
45979SOL     OW39775  10.810   6.970   3.255
45979SOL    HW139776  10.816   6.905   3.325
45979SOL    HW239777  10.766   6.923   3.183
45980SOL     OW39778   8.536   3.128  11.088
45980SOL    HW139779   8.503   3.074  11.161
45980SOL    HW239780   8.578   3.203  11.130
45981SOL     OW39781  13.068   0.268   6.820
45981SOL    HW139782  13.078   0.179   6.853
45981SOL    HW239783  13.030   0.258   6.733
45982SOL     OW39784  14.430   2.465   4.556
45982SOL    HW139785  14.442   2.387   4.611
45982SOL    HW239786  14.350   2.448   4.508
45983SOL     OW39787  10.907  11.476   0.343
45983SOL    HW139788  10.982  11.445   0.293
45983SOL    HW239789  10.877  11.399   0.392
45984SOL     OW39790   8.363   5.357   7.518
45984SOL    HW139791   8.359   5.404   7.435
45984SOL    HW239792   8.353   5.265   7.495
45985SOL     OW39793   8.246  14.461   5.740
45985SOL    HW139794   8.319  14.501   5.787
45985SOL    HW239795   8.286  14.392   5.687
45986SOL     OW39796   8.455   9.467   3.322
45986SOL    HW139797   8.521   9.399   3.308
45986SOL    HW239798   8.470   9.529   3.250
45987SOL     OW39799   9.373   3.328   0.476
45987SOL    HW139800   9.380   3.384   0.553
45987SOL    HW239801   9.415   3.246   0.502
45988SOL     OW39802   4.746   4.381  13.615
45988SOL    HW139803   4.770   4.344  13.700
45988SOL    HW239804   4.680   4.448  13.636
45989SOL     OW39805   3.038   0.423   0.144
45989SOL    HW139806   3.064   0.340   0.106
45989SOL    HW239807   2.942   0.423   0.140
45990SOL     OW39808  14.661   6.305   4.409
45990SOL    HW139809  14.605   6.233   4.439
45990SOL    HW239810  14.642   6.376   4.470
45991SOL     OW39811   7.978   4.126   2.125
45991SOL    HW139812   8.015   4.170   2.201
45991SOL    HW239813   8.038   4.054   2.107
45992SOL     OW39814   9.774  12.804   8.060
45992SOL    HW139815   9.825  12.798   8.141
45992SOL    HW239816   9.773  12.898   8.040
45993SOL     OW39817   0.002  10.998   9.825
45993SOL    HW139818  14.856  10.908   9.807
45993SOL    HW239819  14.798  11.046   9.829
45994SOL     OW39820  12.481   7.091   8.430
45994SOL    HW139821  12.420   7.041   8.375
45994SOL    HW239822  12.452   7.073   8.519
45995SOL     OW39823  14.082   3.863  11.081
45995SOL    HW139824  14.109   3.873  11.172
45995SOL    HW239825  14.051   3.773  11.075
45996SOL     OW39826  14.262   3.580  14.711
45996SOL    HW139827  14.339   3.598  14.766
45996SOL    HW239828  14.268   3.486  14.691
45997SOL     OW39829  10.371  13.122  12.136
45997SOL    HW139830  10.320  13.201  12.155
45997SOL    HW239831  10.342  13.058  12.202
45998SOL     OW39832  12.926   0.730  12.666
45998SOL    HW139833  12.919   0.765  12.755
45998SOL    HW239834  13.014   0.757  12.637
45999SOL     OW39835   8.808   9.626  13.371
45999SOL    HW139836   8.810   9.713  13.331
45999SOL    HW239837   8.805   9.565  13.298
46000SOL     OW39838   4.843  10.788  14.009
46000SOL    HW139839   4.859  10.877  13.977
46000SOL    HW239840   4.884  10.787  14.096
46001SOL     OW39841   8.659  13.190   2.934
46001SOL    HW139842   8.671  13.234   3.018
46001SOL    HW239843   8.713  13.111   2.940
46002SOL     OW39844   7.325   5.757   9.071
46002SOL    HW139845   7.310   5.814   8.995
46002SOL    HW239846   7.282   5.675   9.047
46003SOL     OW39847   5.541   3.343  10.778
46003SOL    HW139848   5.563   3.292  10.856
46003SOL    HW239849   5.522   3.431  10.810
46004SOL     OW39850  12.007   9.151  14.068
46004SOL    HW139851  11.921   9.155  14.109
46004SOL    HW239852  12.010   9.065  14.025
46005SOL     OW39853   7.856   1.325   9.282
46005SOL    HW139854   7.932   1.322   9.223
46005SOL    HW239855   7.798   1.257   9.249
46006SOL     OW39856  11.873  13.958   6.798
46006SOL    HW139857  11.873  13.949   6.703
46006SOL    HW239858  11.965  13.974   6.821
46007SOL     OW39859   5.507   5.856  11.752
46007SOL    HW139860   5.527   5.933  11.700
46007SOL    HW239861   5.525   5.782  11.693
46008SOL     OW39862   4.580   2.869   5.791
46008SOL    HW139863   4.671   2.840   5.786
46008SOL    HW239864   4.580   2.956   5.752
46009SOL     OW39865   9.553   7.711   6.858
46009SOL    HW139866   9.463   7.685   6.881
46009SOL    HW239867   9.556   7.707   6.763
46010SOL     OW39868   0.424  11.011   1.986
46010SOL    HW139869   0.440  11.030   1.894
46010SOL    HW239870   0.358  10.942   1.986
46011SOL     OW39871  13.661  11.401   7.871
46011SOL    HW139872  13.598  11.456   7.919
46011SOL    HW239873  13.615  11.320   7.854
46012SOL     OW39874   1.475   1.831   7.061
46012SOL    HW139875   1.492   1.762   7.126
46012SOL    HW239876   1.520   1.908   7.096
46013SOL     OW39877   7.514  14.508   3.568
46013SOL    HW139878   7.506  14.434   3.508
46013SOL    HW239879   7.512  14.585   3.511
46014SOL     OW39880  10.899  14.880   1.491
46014SOL    HW139881  10.849  14.799   1.479
46014SOL    HW239882  10.929   0.024   1.404
46015SOL     OW39883   8.857   8.068   2.478
46015SOL    HW139884   8.934   8.012   2.485
46015SOL    HW239885   8.786   8.008   2.454
46016SOL     OW39886   4.605   6.259   5.285
46016SOL    HW139887   4.611   6.355   5.291
46016SOL    HW239888   4.691   6.228   5.313
46017SOL     OW39889  14.093   0.713   7.475
46017SOL    HW139890  14.075   0.640   7.415
46017SOL    HW239891  14.037   0.784   7.445
46018SOL     OW39892  14.421  13.610  12.815
46018SOL    HW139893  14.336  13.651  12.796
46018SOL    HW239894  14.414  13.522  12.777
46019SOL     OW39895   2.810  12.746   7.116
46019SOL    HW139896   2.733  12.705   7.156
46019SOL    HW239897   2.884  12.691   7.142
46020SOL     OW39898   8.738  14.320  12.292
46020SOL    HW139899   8.788  14.328  12.211
46020SOL    HW239900   8.685  14.400  12.296
46021SOL     OW39901   1.382   8.306  13.372
46021SOL    HW139902   1.455   8.276  13.426
46021SOL    HW239903   1.316   8.237  13.381
46022SOL     OW39904   9.727  11.770   2.017
46022SOL    HW139905   9.649  11.822   2.038
46022SOL    HW239906   9.759  11.740   2.102
46023SOL     OW39907  14.653  14.110   6.321
46023SOL    HW139908  14.713  14.130   6.249
46023SOL    HW239909  14.666  14.182   6.384
46024SOL     OW39910  11.119   8.261  10.276
46024SOL    HW139911  11.148   8.351  10.263
46024SOL    HW239912  11.175   8.209  10.217
46025SOL     OW39913  12.601  12.823   0.519
46025SOL    HW139914  12.607  12.883   0.593
46025SOL    HW239915  12.549  12.749   0.552
46026SOL     OW39916   0.012  11.582  11.818
46026SOL    HW139917  14.848  11.667  11.831
46026SOL    HW239918  14.834  11.519  11.861
46027SOL     OW39919  11.912   3.573  11.559
46027SOL    HW139920  11.913   3.527  11.643
46027SOL    HW239921  12.003   3.568  11.528
46028SOL     OW39922   5.463  10.422  10.423
46028SOL    HW139923   5.456  10.377  10.507
46028SOL    HW239924   5.411  10.502  10.433
46029SOL     OW39925   1.059   0.795  14.656
46029SOL    HW139926   1.114   0.722  14.687
46029SOL    HW239927   1.029   0.767  14.569
46030SOL     OW39928  10.822  11.638   1.262
46030SOL    HW139929  10.732  11.616   1.284
46030SOL    HW239930  10.815  11.707   1.196
46031SOL     OW39931  11.482   0.580  13.635
46031SOL    HW139932  11.419   0.544  13.572
46031SOL    HW239933  11.450   0.669  13.652
46032SOL     OW39934  14.521   1.551  13.792
46032SOL    HW139935  14.607   1.536  13.753
46032SOL    HW239936  14.495   1.638  13.761
46033SOL     OW39937  13.124  14.374   8.865
46033SOL    HW139938  13.042  14.365   8.913
46033SOL    HW239939  13.104  14.342   8.777
46034SOL     OW39940   7.994   9.552   9.831
46034SOL    HW139941   7.909   9.519   9.802
46034SOL    HW239942   8.058   9.504   9.779
46035SOL     OW39943   1.769   8.712   6.357
46035SOL    HW139944   1.717   8.780   6.400
46035SOL    HW239945   1.833   8.686   6.423
46036SOL     OW39946  12.697   7.627   0.448
46036SOL    HW139947  12.754   7.557   0.414
46036SOL    HW239948  12.717   7.630   0.541
46037SOL     OW39949  11.884   7.987   3.246
46037SOL    HW139950  11.974   8.015   3.231
46037SOL    HW239951  11.836   8.016   3.168
46038SOL     OW39952  12.256   1.456  14.112
46038SOL    HW139953  12.249   1.539  14.159
46038SOL    HW239954  12.343   1.460  14.071
46039SOL     OW39955   3.361  10.462   7.315
46039SOL    HW139956   3.273  10.427   7.325
46039SOL    HW239957   3.356  10.550   7.350
46040SOL     OW39958  12.703  14.850   1.601
46040SOL    HW139959  12.697   0.064   1.620
46040SOL    HW239960  12.745  14.813   1.679
46041SOL     OW39961  10.577   3.425  12.365
46041SOL    HW139962  10.552   3.516  12.375
46041SOL    HW239963  10.507   3.386  12.312
46042SOL     OW39964   7.672   3.977   8.738
46042SOL    HW139965   7.675   4.066   8.773
46042SOL    HW239966   7.689   3.987   8.644
46043SOL     OW39967   9.896   6.788  14.044
46043SOL    HW139968   9.991   6.786  14.053
46043SOL    HW239969   9.868   6.698  14.061
46044SOL     OW39970  10.034   9.941   0.426
46044SOL    HW139971  10.024   9.870   0.490
46044SOL    HW239972  10.062  10.016   0.477
46045SOL     OW39973   3.674  11.891   7.659
46045SOL    HW139974   3.714  11.954   7.719
46045SOL    HW239975   3.647  11.818   7.716
46046SOL     OW39976  12.585   6.419   7.467
46046SOL    HW139977  12.586   6.422   7.563
46046SOL    HW239978  12.546   6.334   7.447
46047SOL     OW39979   3.922   2.924   8.889
46047SOL    HW139980   3.942   2.975   8.968
46047SOL    HW239981   3.891   2.988   8.825
46048SOL     OW39982   8.454   3.360   1.503
46048SOL    HW139983   8.508   3.292   1.461
46048SOL    HW239984   8.378   3.313   1.537
46049SOL     OW39985  12.989  13.144   6.181
46049SOL    HW139986  13.068  13.123   6.131
46049SOL    HW239987  13.019  13.206   6.248
46050SOL     OW39988   3.619   4.222  12.350
46050SOL    HW139989   3.707   4.217  12.388
46050SOL    HW239990   3.576   4.292  12.399
46051SOL     OW39991   4.665  12.349   9.821
46051SOL    HW139992   4.614  12.400   9.758
46051SOL    HW239993   4.645  12.257   9.800
46052SOL     OW39994   2.939   0.198   6.846
46052SOL    HW139995   2.960   0.139   6.919
46052SOL    HW239996   2.847   0.222   6.861
46053SOL     OW39997   1.579   3.395   9.328
46053SOL    HW139998   1.610   3.350   9.250
46053SOL    HW239999   1.658   3.418   9.376
46054SOL     OW40000   9.200   1.412  12.196
46054SOL    HW140001   9.178   1.348  12.264
46054SOL    HW240002   9.279   1.377  12.156
46055SOL     OW40003  13.704   3.041   6.042
46055SOL    HW140004  13.765   3.068   5.973
46055SOL    HW240005  13.751   3.057   6.124
46056SOL     OW40006   4.678   8.745  13.029
46056SOL    HW140007   4.697   8.718  12.939
46056SOL    HW240008   4.746   8.809  13.050
46057SOL     OW40009   4.549  12.177  14.522
46057SOL    HW140010   4.632  12.141  14.492
46057SOL    HW240011   4.563  12.196  14.615
46058SOL     OW40012   9.223   2.893   3.008
46058SOL    HW140013   9.268   2.970   2.971
46058SOL    HW240014   9.287   2.856   3.069
46059SOL     OW40015  10.552  12.701  11.215
46059SOL    HW140016  10.533  12.654  11.297
46059SOL    HW240017  10.525  12.641  11.146
46060SOL     OW40018   5.914   9.792   2.027
46060SOL    HW140019   5.876   9.785   2.115
46060SOL    HW240020   5.893   9.881   1.999
46061SOL     OW40021   7.899   3.282   3.774
46061SOL    HW140022   7.973   3.275   3.715
46061SOL    HW240023   7.916   3.362   3.824
46062SOL     OW40024   2.687   5.863   6.480
46062SOL    HW140025   2.767   5.840   6.526
46062SOL    HW240026   2.622   5.799   6.511
46063SOL     OW40027  11.646   7.962   5.653
46063SOL    HW140028  11.716   7.903   5.681
46063SOL    HW240029  11.681   8.006   5.576
46064SOL     OW40030  12.419  14.289  14.255
46064SOL    HW140031  12.391  14.380  14.245
46064SOL    HW240032  12.501  14.284  14.207
46065SOL     OW40033   5.124  12.707   7.760
46065SOL    HW140034   5.126  12.634   7.699
46065SOL    HW240035   5.047  12.690   7.815
46066SOL     OW40036   2.060  12.062  11.049
46066SOL    HW140037   2.141  12.084  11.002
46066SOL    HW240038   2.078  12.085  11.140
46067SOL     OW40039   4.019   1.577  13.598
46067SOL    HW140040   3.931   1.568  13.636
46067SOL    HW240041   4.008   1.639  13.526
46068SOL     OW40042   8.498   6.251  13.644
46068SOL    HW140043   8.466   6.162  13.628
46068SOL    HW240044   8.465   6.303  13.571
46069SOL     OW40045   2.848   9.981  13.787
46069SOL    HW140046   2.812  10.061  13.748
46069SOL    HW240047   2.942   9.986  13.769
46070SOL     OW40048   4.847   1.488  11.595
46070SOL    HW140049   4.930   1.533  11.581
46070SOL    HW240050   4.818   1.463  11.508
46071SOL     OW40051   8.423   4.234   5.047
46071SOL    HW140052   8.434   4.264   4.957
46071SOL    HW240053   8.336   4.265   5.073
46072SOL     OW40054   7.439   2.430   2.020
46072SOL    HW140055   7.401   2.412   1.934
46072SOL    HW240056   7.468   2.521   2.015
46073SOL     OW40057   2.333  11.565   9.394
46073SOL    HW140058   2.304  11.490   9.446
46073SOL    HW240059   2.256  11.621   9.386
46074SOL     OW40060   6.178  12.858   6.945
46074SOL    HW140061   6.095  12.832   6.905
46074SOL    HW240062   6.191  12.797   7.017
46075SOL     OW40063  10.757  12.217   2.706
46075SOL    HW140064  10.711  12.256   2.781
46075SOL    HW240065  10.782  12.292   2.652
46076SOL     OW40066  10.680   8.120  12.436
46076SOL    HW140067  10.598   8.162  12.407
46076SOL    HW240068  10.651   8.046  12.489
46077SOL     OW40069   7.369  10.956   1.659
46077SOL    HW140070   7.400  10.869   1.634
46077SOL    HW240071   7.418  10.977   1.739
46078SOL     OW40072   9.787   0.821  13.798
46078SOL    HW140073   9.748   0.892  13.849
46078SOL    HW240074   9.714   0.763  13.776
46079SOL     OW40075   2.930  10.650   4.534
46079SOL    HW140076   2.959  10.667   4.444
46079SOL    HW240077   2.881  10.729   4.558
46080SOL     OW40078  13.701  11.810   3.848
46080SOL    HW140079  13.688  11.812   3.943
46080SOL    HW240080  13.613  11.798   3.812
46081SOL     OW40081   6.150  10.774   3.309
46081SOL    HW140082   6.115  10.772   3.398
46081SOL    HW240083   6.074  10.761   3.253
46082SOL     OW40084   9.847   7.565   5.445
46082SOL    HW140085   9.755   7.590   5.431
46082SOL    HW240086   9.849   7.530   5.534
46083SOL     OW40087   0.630  13.219   9.427
46083SOL    HW140088   0.557  13.227   9.489
46083SOL    HW240089   0.662  13.130   9.439
46084SOL     OW40090   2.744   4.013  10.226
46084SOL    HW140091   2.691   4.093  10.222
46084SOL    HW240092   2.833   4.044  10.243
46085SOL     OW40093  13.666   6.353   7.711
46085SOL    HW140094  13.743   6.325   7.761
46085SOL    HW240095  13.641   6.437   7.750
46086SOL     OW40096   0.358   0.667   0.789
46086SOL    HW140097   0.435   0.614   0.768
46086SOL    HW240098   0.286   0.623   0.744
46087SOL     OW40099  13.377  14.365   3.237
46087SOL    HW140100  13.422  14.440   3.274
46087SOL    HW240101  13.286  14.394   3.226
46088SOL     OW40102   5.890   0.528   8.063
46088SOL    HW140103   5.898   0.504   8.155
46088SOL    HW240104   5.834   0.606   8.064
46089SOL     OW40105  14.394  13.084   5.492
46089SOL    HW140106  14.345  13.031   5.429
46089SOL    HW240107  14.456  13.133   5.439
46090SOL     OW40108   9.045   5.116   0.820
46090SOL    HW140109   9.128   5.161   0.805
46090SOL    HW240110   9.035   5.117   0.915
46091SOL     OW40111   9.522   5.787  11.938
46091SOL    HW140112   9.586   5.720  11.962
46091SOL    HW240113   9.574   5.857  11.899
46092SOL     OW40114   4.513   5.547   9.821
46092SOL    HW140115   4.508   5.619   9.884
46092SOL    HW240116   4.422   5.516   9.813
46093SOL     OW40117  10.177   9.523   1.397
46093SOL    HW140118  10.092   9.528   1.353
46093SOL    HW240119  10.207   9.614   1.402
46094SOL     OW40120   7.258  12.476  13.119
46094SOL    HW140121   7.272  12.551  13.061
46094SOL    HW240122   7.322  12.411  13.090
46095SOL     OW40123  12.090   6.790   5.735
46095SOL    HW140124  11.997   6.799   5.712
46095SOL    HW240125  12.094   6.709   5.785
46096SOL     OW40126   2.723  10.631  12.976
46096SOL    HW140127   2.629  10.646  12.960
46096SOL    HW240128   2.732  10.536  12.979
46097SOL     OW40129   0.937  13.739   1.968
46097SOL    HW140130   0.971  13.652   1.945
46097SOL    HW240131   1.015  13.792   1.981
46098SOL     OW40132   0.747  11.549   9.283
46098SOL    HW140133   0.797  11.630   9.283
46098SOL    HW240134   0.655  11.577   9.280
46099SOL     OW40135   3.247   6.188   0.154
46099SOL    HW140136   3.223   6.100   0.182
46099SOL    HW240137   3.297   6.224   0.227
46100SOL     OW40138  14.124   2.293  12.478
46100SOL    HW140139  14.029   2.289  12.489
46100SOL    HW240140  14.155   2.342  12.553
46101SOL     OW40141  11.174  13.921   2.225
46101SOL    HW140142  11.270  13.924   2.229
46101SOL    HW240143  11.151  13.838   2.267
46102SOL     OW40144   9.040   5.863   9.183
46102SOL    HW140145   8.956   5.904   9.206
46102SOL    HW240146   9.092   5.870   9.263
46103SOL     OW40147   2.131  14.322  10.138
46103SOL    HW140148   2.168  14.272  10.065
46103SOL    HW240149   2.207  14.354  10.186
46104SOL     OW40150   8.577   3.078  13.610
46104SOL    HW140151   8.514   3.031  13.664
46104SOL    HW240152   8.638   3.010  13.580
46105SOL     OW40153   9.890  10.389   2.862
46105SOL    HW140154   9.852  10.401   2.949
46105SOL    HW240155   9.816  10.361   2.807
46106SOL     OW40156  13.421   1.884  13.190
46106SOL    HW140157  13.503   1.934  13.187
46106SOL    HW240158  13.427   1.824  13.116
46107SOL     OW40159   4.972   2.935  12.284
46107SOL    HW140160   4.975   3.002  12.353
46107SOL    HW240161   4.879   2.928  12.261
46108SOL     OW40162   3.323  12.058  13.983
46108SOL    HW140163   3.354  11.967  13.983
46108SOL    HW240164   3.310  12.078  14.076
46109SOL     OW40165   5.543   2.664  11.439
46109SOL    HW140166   5.563   2.678  11.532
46109SOL    HW240167   5.475   2.597  11.438
46110SOL     OW40168   0.350  11.141   2.764
46110SOL    HW140169   0.264  11.184   2.754
46110SOL    HW240170   0.380  11.169   2.851
46111SOL     OW40171   1.828  11.457   8.592
46111SOL    HW140172   1.816  11.552   8.594
46111SOL    HW240173   1.787  11.430   8.511
46112SOL     OW40174  12.459   7.831  13.123
46112SOL    HW140175  12.523   7.762  13.142
46112SOL    HW240176  12.513   7.908  13.104
46113SOL     OW40177  12.237  10.950  11.659
46113SOL    HW140178  12.155  10.946  11.707
46113SOL    HW240179  12.276  11.034  11.685
46114SOL     OW40180  14.004   5.566   4.194
46114SOL    HW140181  13.973   5.624   4.263
46114SOL    HW240182  14.051   5.497   4.239
46115SOL     OW40183  10.576  14.291  13.781
46115SOL    HW140184  10.579  14.206  13.824
46115SOL    HW240185  10.495  14.331  13.811
46116SOL     OW40186  12.010  13.385   7.284
46116SOL    HW140187  12.058  13.305   7.264
46116SOL    HW240188  11.919  13.357   7.293
46117SOL     OW40189   8.471  10.370   9.596
46117SOL    HW140190   8.478  10.422   9.676
46117SOL    HW240191   8.378  10.373   9.573
46118SOL     OW40192  14.628  11.235  13.772
46118SOL    HW140193  14.533  11.230  13.784
46118SOL    HW240194  14.640  11.264  13.682
46119SOL     OW40195   4.944  13.281   8.022
46119SOL    HW140196   5.011  13.248   7.962
46119SOL    HW240197   4.957  13.376   8.022
46120SOL     OW40198   3.770   5.301   5.289
46120SOL    HW140199   3.678   5.322   5.309
46120SOL    HW240200   3.782   5.334   5.200
46121SOL     OW40201  14.605  13.289  10.635
46121SOL    HW140202  14.518  13.260  10.662
46121SOL    HW240203  14.656  13.208  10.628
46122SOL     OW40204   1.385  10.446   8.977
46122SOL    HW140205   1.457  10.509   8.983
46122SOL    HW240206   1.403  10.382   9.046
46123SOL     OW40207  10.901   0.210   9.434
46123SOL    HW140208  10.941   0.297   9.435
46123SOL    HW240209  10.826   0.220   9.376
46124SOL     OW40210   8.884  10.279   0.161
46124SOL    HW140211   8.894  10.370   0.187
46124SOL    HW240212   8.911  10.229   0.239
46125SOL     OW40213   7.067  12.937   2.880
46125SOL    HW140214   7.071  13.032   2.893
46125SOL    HW240215   7.112  12.922   2.796
46126SOL     OW40216   2.851  14.566  11.345
46126SOL    HW140217   2.889  14.485  11.313
46126SOL    HW240218   2.785  14.538  11.409
46127SOL     OW40219  12.080   6.650  11.855
46127SOL    HW140220  12.099   6.737  11.889
46127SOL    HW240221  12.148   6.635  11.789
46128SOL     OW40222   7.821   7.427   2.984
46128SOL    HW140223   7.737   7.441   3.028
46128SOL    HW240224   7.878   7.495   3.019
46129SOL     OW40225  10.484  11.828   1.665
46129SOL    HW140226  10.484  11.736   1.638
46129SOL    HW240227  10.577  11.849   1.677
46130SOL     OW40228  10.220   7.385  10.540
46130SOL    HW140229  10.167   7.440  10.598
46130SOL    HW240230  10.292   7.355  10.596
46131SOL     OW40231   7.620  12.940   6.058
46131SOL    HW140232   7.612  12.897   5.973
46131SOL    HW240233   7.535  12.981   6.072
46132SOL     OW40234   3.079   9.194  14.135
46132SOL    HW140235   3.002   9.252  14.138
46132SOL    HW240236   3.083   9.155  14.223
46133SOL     OW40237   8.427   0.736  12.670
46133SOL    HW140238   8.438   0.643  12.648
46133SOL    HW240239   8.332   0.750  12.667
46134SOL     OW40240   8.463   6.122  12.666
46134SOL    HW140241   8.552   6.116  12.700
46134SOL    HW240242   8.442   6.215  12.671
46135SOL     OW40243   0.475  14.200   3.872
46135SOL    HW140244   0.531  14.160   3.806
46135SOL    HW240245   0.535  14.245   3.931
46136SOL     OW40246   1.439   8.310  12.006
46136SOL    HW140247   1.525   8.350  12.015
46136SOL    HW240248   1.425   8.266  12.090
46137SOL     OW40249   9.706   1.940   3.397
46137SOL    HW140250   9.766   1.888   3.450
46137SOL    HW240251   9.691   1.888   3.318
46138SOL     OW40252   5.356   5.793  13.533
46138SOL    HW140253   5.414   5.829  13.600
46138SOL    HW240254   5.398   5.818  13.450
46139SOL     OW40255   4.530  13.205   4.037
46139SOL    HW140256   4.508  13.176   3.948
46139SOL    HW240257   4.622  13.179   4.049
46140SOL     OW40258   8.346   1.386   9.737
46140SOL    HW140259   8.299   1.450   9.684
46140SOL    HW240260   8.280   1.322   9.762
46141SOL     OW40261   5.645   7.919   0.803
46141SOL    HW140262   5.705   7.931   0.729
46141SOL    HW240263   5.615   7.829   0.795
46142SOL     OW40264   7.380   1.277   6.660
46142SOL    HW140265   7.433   1.209   6.619
46142SOL    HW240266   7.406   1.357   6.615
46143SOL     OW40267   5.082  12.883   6.265
46143SOL    HW140268   5.173  12.882   6.235
46143SOL    HW240269   5.086  12.919   6.353
46144SOL     OW40270  11.612   6.287   4.911
46144SOL    HW140271  11.650   6.204   4.883
46144SOL    HW240272  11.613   6.341   4.832
46145SOL     OW40273  11.371  13.227   6.364
46145SOL    HW140274  11.375  13.137   6.331
46145SOL    HW240275  11.277  13.246   6.370
46146SOL     OW40276  12.567   9.233   8.316
46146SOL    HW140277  12.635   9.271   8.261
46146SOL    HW240278  12.610   9.161   8.362
46147SOL     OW40279  12.167   9.570  10.919
46147SOL    HW140280  12.226   9.600  10.849
46147SOL    HW240281  12.079   9.590  10.886
46148SOL     OW40282  12.038  14.668  13.568
46148SOL    HW140283  12.084  14.698  13.489
46148SOL    HW240284  12.016  14.749  13.615
46149SOL     OW40285   6.575   0.547   7.134
46149SOL    HW140286   6.506   0.592   7.086
46149SOL    HW240287   6.538   0.461   7.153
46150SOL     OW40288   4.634   9.653   3.418
46150SOL    HW140289   4.706   9.617   3.470
46150SOL    HW240290   4.577   9.578   3.403
46151SOL     OW40291  11.018   4.318  14.756
46151SOL    HW140292  11.045   4.348  14.669
46151SOL    HW240293  11.006   4.399  14.806
46152SOL     OW40294  10.376   7.237   6.834
46152SOL    HW140295  10.368   7.223   6.740
46152SOL    HW240296  10.301   7.291   6.857
46153SOL     OW40297   6.319   2.574   4.900
46153SOL    HW140298   6.230   2.558   4.932
46153SOL    HW240299   6.312   2.654   4.849
46154SOL     OW40300   2.477   7.428   1.789
46154SOL    HW140301   2.515   7.449   1.704
46154SOL    HW240302   2.382   7.428   1.774
46155SOL     OW40303   8.582   7.993   1.836
46155SOL    HW140304   8.589   7.940   1.915
46155SOL    HW240305   8.617   7.938   1.766
46156SOL     OW40306  13.531   2.897   0.754
46156SOL    HW140307  13.581   2.818   0.778
46156SOL    HW240308  13.595   2.968   0.758
46157SOL     OW40309  11.429   3.710   9.212
46157SOL    HW140310  11.451   3.740   9.124
46157SOL    HW240311  11.485   3.761   9.270
46158SOL     OW40312   8.160   4.813   5.540
46158SOL    HW140313   8.091   4.831   5.478
46158SOL    HW240314   8.240   4.844   5.497
46159SOL     OW40315  11.483  12.505   0.813
46159SOL    HW140316  11.574  12.479   0.826
46159SOL    HW240317  11.434  12.450   0.874
46160SOL     OW40318   6.548   2.122   5.316
46160SOL    HW140319   6.593   2.169   5.246
46160SOL    HW240320   6.619   2.093   5.374
46161SOL     OW40321   0.314   5.841  12.096
46161SOL    HW140322   0.276   5.754  12.087
46161SOL    HW240323   0.370   5.851  12.019
46162SOL     OW40324   9.672   1.527  14.658
46162SOL    HW140325   9.706   1.445  14.622
46162SOL    HW240326   9.745   1.588  14.652
46163SOL     OW40327   4.041  12.154  10.976
46163SOL    HW140328   4.054  12.191  10.888
46163SOL    HW240329   4.130  12.136  11.007
46164SOL     OW40330  14.684   5.224   1.734
46164SOL    HW140331  14.609   5.178   1.697
46164SOL    HW240332  14.648   5.305   1.769
46165SOL     OW40333   7.502   7.409  12.597
46165SOL    HW140334   7.476   7.500  12.581
46165SOL    HW240335   7.575   7.415  12.657
46166SOL     OW40336   6.669   1.908   4.448
46166SOL    HW140337   6.587   1.893   4.402
46166SOL    HW240338   6.649   1.891   4.540
46167SOL     OW40339   0.842  12.646   9.433
46167SOL    HW140340   0.768  12.668   9.489
46167SOL    HW240341   0.892  12.582   9.484
46168SOL     OW40342   3.116   2.226   8.230
46168SOL    HW140343   3.094   2.180   8.311
46168SOL    HW240344   3.171   2.164   8.182
46169SOL     OW40345  12.212   9.101   8.707
46169SOL    HW140346  12.298   9.132   8.733
46169SOL    HW240347  12.226   9.011   8.678
46170SOL     OW40348   4.877  14.201  12.009
46170SOL    HW140349   4.913  14.288  12.025
46170SOL    HW240350   4.815  14.212  11.938
46171SOL     OW40351  14.058  11.566   6.549
46171SOL    HW140352  13.968  11.537   6.568
46171SOL    HW240353  14.065  11.652   6.591
46172SOL     OW40354   2.575   3.158  11.175
46172SOL    HW140355   2.645   3.103  11.140
46172SOL    HW240356   2.497   3.102  11.172
46173SOL     OW40357   7.365  12.110   8.648
46173SOL    HW140358   7.364  12.032   8.704
46173SOL    HW240359   7.350  12.076   8.560
46174SOL     OW40360   7.451   2.951   6.649
46174SOL    HW140361   7.484   2.872   6.605
46174SOL    HW240362   7.357   2.952   6.630
46175SOL     OW40363  13.576   5.894   8.891
46175SOL    HW140364  13.564   5.985   8.917
46175SOL    HW240365  13.584   5.847   8.974
46176SOL     OW40366   9.059  14.662   7.188
46176SOL    HW140367   9.124  14.721   7.226
46176SOL    HW240368   8.976  14.689   7.227
46177SOL     OW40369  12.738   0.773   3.366
46177SOL    HW140370  12.699   0.755   3.281
46177SOL    HW240371  12.676   0.831   3.410
46178SOL     OW40372  13.187  13.171   2.573
46178SOL    HW140373  13.246  13.106   2.611
46178SOL    HW240374  13.242  13.248   2.561
46179SOL     OW40375   5.185   1.500   3.503
46179SOL    HW140376   5.126   1.575   3.512
46179SOL    HW240377   5.255   1.531   3.445
46180SOL     OW40378  10.893   8.073  14.520
46180SOL    HW140379  10.929   8.146  14.470
46180SOL    HW240380  10.969   8.028  14.557
46181SOL     OW40381   7.738   8.419  14.306
46181SOL    HW140382   7.800   8.491  14.314
46181SOL    HW240383   7.758   8.362  14.381
46182SOL     OW40384   6.148   9.015  10.019
46182SOL    HW140385   6.066   9.046  10.058
46182SOL    HW240386   6.209   9.088  10.031
46183SOL     OW40387  13.447  14.170   4.616
46183SOL    HW140388  13.480  14.080   4.619
46183SOL    HW240389  13.490  14.208   4.540
46184SOL     OW40390   5.654  14.822  11.199
46184SOL    HW140391   5.614   0.026  11.177
46184SOL    HW240392   5.747  14.834  11.182
46185SOL     OW40393   3.338   5.006  14.063
46185SOL    HW140394   3.323   4.916  14.090
46185SOL    HW240395   3.415   5.002  14.007
46186SOL     OW40396   5.874   4.641   0.071
46186SOL    HW140397   5.794   4.669   0.026
46186SOL    HW240398   5.907   4.568   0.017
46187SOL     OW40399  13.607  11.003   9.508
46187SOL    HW140400  13.622  10.930   9.568
46187SOL    HW240401  13.678  10.997   9.444
46188SOL     OW40402   7.899  12.583   4.066
46188SOL    HW140403   7.874  12.553   4.153
46188SOL    HW240404   7.994  12.595   4.071
46189SOL     OW40405   2.891  13.031  13.788
46189SOL    HW140406   2.986  13.039  13.798
46189SOL    HW240407   2.857  13.118  13.809
46190SOL     OW40408  10.224  13.996  12.399
46190SOL    HW140409  10.283  13.967  12.468
46190SOL    HW240410  10.148  13.938  12.406
46191SOL     OW40411  11.676   6.207   3.262
46191SOL    HW140412  11.583   6.194   3.250
46191SOL    HW240413  11.694   6.174   3.351
46192SOL     OW40414   8.193   0.195   3.386
46192SOL    HW140415   8.233   0.278   3.360
46192SOL    HW240416   8.103   0.201   3.353
46193SOL     OW40417   9.987   0.281   0.623
46193SOL    HW140418   9.946   0.357   0.583
46193SOL    HW240419   9.976   0.293   0.717
46194SOL     OW40420   1.550   2.012   2.704
46194SOL    HW140421   1.567   2.106   2.716
46194SOL    HW240422   1.504   2.006   2.621
46195SOL     OW40423  10.170   0.823   2.435
46195SOL    HW140424  10.178   0.879   2.513
46195SOL    HW240425  10.104   0.868   2.382
46196SOL     OW40426   3.169  14.345  11.787
46196SOL    HW140427   3.178  14.419  11.848
46196SOL    HW240428   3.240  14.357  11.724
46197SOL     OW40429  14.746  12.596   2.688
46197SOL    HW140430  14.711  12.540   2.757
46197SOL    HW240431  14.825  12.551   2.657
46198SOL     OW40432   4.459   7.060   1.480
46198SOL    HW140433   4.408   6.981   1.493
46198SOL    HW240434   4.415   7.126   1.534
46199SOL     OW40435  11.869  12.150  14.848
46199SOL    HW140436  11.914  12.185  14.772
46199SOL    HW240437  11.930  12.085   0.005
46200SOL     OW40438  12.497  10.296   7.867
46200SOL    HW140439  12.547  10.354   7.810
46200SOL    HW240440  12.504  10.337   7.953
46201SOL     OW40441  14.212   2.298  13.999
46201SOL    HW140442  14.237   2.277  13.909
46201SOL    HW240443  14.292   2.288  14.050
46202SOL     OW40444   5.379   4.020  11.937
46202SOL    HW140445   5.394   3.926  11.936
46202SOL    HW240446   5.460   4.058  11.901
46203SOL     OW40447   9.749   6.191  12.988
46203SOL    HW140448   9.812   6.226  13.051
46203SOL    HW240449   9.671   6.245  13.000
46204SOL     OW40450   3.534  11.309   3.796
46204SOL    HW140451   3.590  11.256   3.852
46204SOL    HW240452   3.502  11.379   3.854
46205SOL     OW40453   6.932   9.282  13.793
46205SOL    HW140454   6.897   9.326  13.870
46205SOL    HW240455   6.881   9.318  13.720
46206SOL     OW40456   4.678   1.051   2.651
46206SOL    HW140457   4.617   0.977   2.660
46206SOL    HW240458   4.621   1.126   2.633
46207SOL     OW40459   5.101   1.332  10.437
46207SOL    HW140460   5.092   1.340  10.532
46207SOL    HW240461   5.161   1.402  10.413
46208SOL     OW40462  12.847   5.379   3.707
46208SOL    HW140463  12.926   5.395   3.655
46208SOL    HW240464  12.824   5.464   3.742
46209SOL     OW40465  11.859  11.189   5.087
46209SOL    HW140466  11.916  11.205   5.012
46209SOL    HW240467  11.800  11.264   5.090
46210SOL     OW40468   1.859   9.581   4.013
46210SOL    HW140469   1.883   9.490   4.027
46210SOL    HW240470   1.936   9.620   3.971
46211SOL     OW40471   4.967  11.425   7.366
46211SOL    HW140472   4.980  11.459   7.454
46211SOL    HW240473   4.880  11.384   7.369
46212SOL     OW40474   0.149  10.477   4.176
46212SOL    HW140475   0.160  10.426   4.096
46212SOL    HW240476   0.235  10.515   4.192
46213SOL     OW40477   6.732  11.706   7.510
46213SOL    HW140478   6.779  11.739   7.433
46213SOL    HW240479   6.651  11.670   7.474
46214SOL     OW40480   0.738   7.395  13.627
46214SOL    HW140481   0.812   7.342  13.598
46214SOL    HW240482   0.663   7.335  13.623
46215SOL     OW40483   1.812  12.773   2.532
46215SOL    HW140484   1.840  12.709   2.597
46215SOL    HW240485   1.856  12.746   2.451
46216SOL     OW40486   7.779  12.739  13.428
46216SOL    HW140487   7.861  12.765  13.385
46216SOL    HW240488   7.800  12.656  13.471
46217SOL     OW40489   3.778  14.571   3.386
46217SOL    HW140490   3.832  14.518   3.328
46217SOL    HW240491   3.690  14.568   3.348
46218SOL     OW40492   4.740   2.773   8.833
46218SOL    HW140493   4.660   2.769   8.885
46218SOL    HW240494   4.804   2.722   8.883
46219SOL     OW40495  11.820   0.292  14.459
46219SOL    HW140496  11.842   0.265  14.548
46219SOL    HW240497  11.789   0.212  14.417
46220SOL     OW40498   1.525  10.537   5.802
46220SOL    HW140499   1.602  10.571   5.757
46220SOL    HW240500   1.554  10.518   5.891
46221SOL     OW40501   0.010   3.779   9.094
46221SOL    HW140502  14.848   3.848   9.146
46221SOL    HW240503  14.827   3.707   9.094
46222SOL     OW40504   9.343   2.947   5.236
46222SOL    HW140505   9.375   3.035   5.256
46222SOL    HW240506   9.297   2.919   5.314
46223SOL     OW40507   5.424   1.035  13.456
46223SOL    HW140508   5.454   1.125  13.471
46223SOL    HW240509   5.405   1.031  13.362
46224SOL     OW40510   7.189  13.570   9.886
46224SOL    HW140511   7.251  13.632   9.850
46224SOL    HW240512   7.141  13.619   9.952
46225SOL     OW40513   4.010   6.613   8.082
46225SOL    HW140514   3.948   6.540   8.085
46225SOL    HW240515   3.955   6.691   8.076
46226SOL     OW40516  10.420   0.414   7.131
46226SOL    HW140517  10.458   0.433   7.216
46226SOL    HW240518  10.493   0.381   7.079
46227SOL     OW40519   0.758  13.698   2.524
46227SOL    HW140520   0.824  13.756   2.488
46227SOL    HW240521   0.776  13.696   2.618
46228SOL     OW40522  14.087   4.027  12.450
46228SOL    HW140523  14.083   3.962  12.380
46228SOL    HW240524  14.000   4.067  12.450
46229SOL     OW40525   1.781   8.057   6.224
46229SOL    HW140526   1.700   8.008   6.213
46229SOL    HW240527   1.848   8.003   6.182
46230SOL     OW40528  10.814  10.700   7.337
46230SOL    HW140529  10.765  10.695   7.419
46230SOL    HW240530  10.799  10.614   7.296
46231SOL     OW40531  11.986   8.606   7.401
46231SOL    HW140532  12.028   8.678   7.448
46231SOL    HW240533  12.033   8.600   7.319
46232SOL     OW40534  14.072  14.079   9.528
46232SOL    HW140535  14.033  14.158   9.565
46232SOL    HW240536  14.160  14.107   9.501
46233SOL     OW40537   6.890  13.964  12.424
46233SOL    HW140538   6.829  13.897  12.394
46233SOL    HW240539   6.883  13.963  12.520
46234SOL     OW40540  12.970  11.763   3.490
46234SOL    HW140541  12.942  11.685   3.442
46234SOL    HW240542  13.063  11.749   3.507
46235SOL     OW40543   7.107   8.983   9.874
46235SOL    HW140544   7.093   8.899   9.829
46235SOL    HW240545   7.163   8.961   9.948
46236SOL     OW40546   2.314   8.236  10.777
46236SOL    HW140547   2.331   8.281  10.694
46236SOL    HW240548   2.369   8.158  10.775
46237SOL     OW40549   0.301   4.712  12.309
46237SOL    HW140550   0.292   4.626  12.266
46237SOL    HW240551   0.286   4.775  12.239
46238SOL     OW40552  13.427  14.019   7.272
46238SOL    HW140553  13.433  14.109   7.239
46238SOL    HW240554  13.352  14.020   7.331
46239SOL     OW40555   3.414   0.844  14.293
46239SOL    HW140556   3.400   0.756  14.326
46239SOL    HW240557   3.482   0.881  14.350
46240SOL     OW40558  10.146  12.514  11.698
46240SOL    HW140559  10.201  12.501  11.775
46240SOL    HW240560  10.165  12.603  11.669
46241SOL     OW40561   4.543   7.403  13.602
46241SOL    HW140562   4.501   7.437  13.523
46241SOL    HW240563   4.546   7.308  13.589
46242SOL     OW40564   1.738   3.680  13.881
46242SOL    HW140565   1.675   3.611  13.858
46242SOL    HW240566   1.747   3.732  13.801
46243SOL     OW40567   1.057   3.810  11.502
46243SOL    HW140568   0.999   3.737  11.481
46243SOL    HW240569   1.133   3.770  11.544
46244SOL     OW40570  13.112   4.428   5.404
46244SOL    HW140571  13.182   4.449   5.342
46244SOL    HW240572  13.145   4.353   5.453
46245SOL     OW40573   4.710  12.837   2.804
46245SOL    HW140574   4.620  12.826   2.774
46245SOL    HW240575   4.758  12.870   2.729
46246SOL     OW40576   6.533  11.822  11.056
46246SOL    HW140577   6.617  11.790  11.091
46246SOL    HW240578   6.526  11.779  10.971
46247SOL     OW40579   1.276   1.044   8.873
46247SOL    HW140580   1.361   1.009   8.846
46247SOL    HW240581   1.273   1.131   8.833
46248SOL     OW40582  12.817   8.144   3.282
46248SOL    HW140583  12.900   8.173   3.245
46248SOL    HW240584  12.765   8.116   3.206
46249SOL     OW40585  10.070  13.780   8.976
46249SOL    HW140586  10.059  13.712   9.043
46249SOL    HW240587   9.982  13.791   8.939
46250SOL     OW40588   7.126  11.678  11.106
46250SOL    HW140589   7.035  11.678  11.134
46250SOL    HW240590   7.161  11.762  11.136
46251SOL     OW40591   0.817  13.612  10.900
46251SOL    HW140592   0.810  13.517  10.891
46251SOL    HW240593   0.880  13.638  10.832
46252SOL     OW40594   1.861   7.110   2.394
46252SOL    HW140595   1.889   7.058   2.319
46252SOL    HW240596   1.813   7.049   2.449
46253SOL     OW40597   2.678   3.686   6.860
46253SOL    HW140598   2.713   3.600   6.880
46253SOL    HW240599   2.755   3.740   6.841
46254SOL     OW40600   8.617  14.639   6.619
46254SOL    HW140601   8.700  14.597   6.595
46254SOL    HW240602   8.616  14.638   6.714
46255SOL     OW40603   3.954   7.523   2.028
46255SOL    HW140604   3.903   7.604   2.018
46255SOL    HW240605   3.973   7.495   1.939
46256SOL     OW40606  12.482  11.379   0.718
46256SOL    HW140607  12.394  11.391   0.753
46256SOL    HW240608  12.477  11.416   0.630
46257SOL     OW40609   3.476   5.197  10.443
46257SOL    HW140610   3.506   5.164  10.359
46257SOL    HW240611   3.445   5.120  10.490
46258SOL     OW40612  12.251  10.754   3.606
46258SOL    HW140613  12.181  10.719   3.661
46258SOL    HW240614  12.259  10.691   3.534
46259SOL     OW40615   0.791   2.229   9.082
46259SOL    HW140616   0.782   2.159   9.017
46259SOL    HW240617   0.884   2.227   9.107
46260SOL     OW40618   9.847   8.777   2.914
46260SOL    HW140619   9.753   8.792   2.919
46260SOL    HW240620   9.881   8.811   2.997
46261SOL     OW40621  11.429   2.868  12.051
46261SOL    HW140622  11.417   2.779  12.019
46261SOL    HW240623  11.514   2.895  12.015
46262SOL     OW40624   9.630   0.814   9.723
46262SOL    HW140625   9.660   0.782   9.808
46262SOL    HW240626   9.584   0.895   9.742
46263SOL     OW40627   1.304   1.045  14.367
46263SOL    HW140628   1.350   1.124  14.397
46263SOL    HW240629   1.361   0.973  14.393
46264SOL     OW40630   0.816   1.360   4.936
46264SOL    HW140631   0.841   1.269   4.947
46264SOL    HW240632   0.875   1.409   4.993
46265SOL     OW40633   8.633   4.808   5.583
46265SOL    HW140634   8.704   4.768   5.533
46265SOL    HW240635   8.575   4.845   5.517
46266SOL     OW40636   0.288  10.438   0.102
46266SOL    HW140637   0.278  10.343   0.109
46266SOL    HW240638   0.214  10.473   0.152
46267SOL     OW40639   5.847  13.747   5.336
46267SOL    HW140640   5.855  13.790   5.421
46267SOL    HW240641   5.872  13.815   5.273
46268SOL     OW40642   7.078   9.180   2.975
46268SOL    HW140643   7.075   9.115   3.045
46268SOL    HW240644   7.159   9.162   2.928
46269SOL     OW40645   4.834  10.098   3.007
46269SOL    HW140646   4.785  10.176   2.982
46269SOL    HW240647   4.773  10.047   3.060
46270SOL     OW40648   8.856  14.813   6.757
46270SOL    HW140649   8.840  14.841   6.667
46270SOL    HW240650   8.945  14.776   6.755
46271SOL     OW40651   9.562   8.337   5.936
46271SOL    HW140652   9.541   8.411   5.879
46271SOL    HW240653   9.477   8.299   5.958
46272SOL     OW40654  13.957   2.206   2.241
46272SOL    HW140655  13.978   2.204   2.334
46272SOL    HW240656  13.990   2.122   2.207
46273SOL     OW40657   1.807   1.101   8.379
46273SOL    HW140658   1.777   1.020   8.338
46273SOL    HW240659   1.727   1.152   8.393
46274SOL     OW40660  10.804   6.235  13.688
46274SOL    HW140661  10.894   6.212  13.665
46274SOL    HW240662  10.802   6.331  13.687
46275SOL     OW40663   9.564   1.916  13.862
46275SOL    HW140664   9.556   1.930  13.957
46275SOL    HW240665   9.475   1.902  13.833
46276SOL     OW40666   6.382   0.758   4.796
46276SOL    HW140667   6.437   0.687   4.829
46276SOL    HW240668   6.443   0.829   4.777
46277SOL     OW40669   6.221   9.174   9.738
46277SOL    HW140670   6.297   9.133   9.779
46277SOL    HW240671   6.215   9.261   9.778
46278SOL     OW40672   6.129   1.029   7.079
46278SOL    HW140673   6.221   1.012   7.101
46278SOL    HW240674   6.111   0.969   7.007
46279SOL     OW40675   7.588  10.107  11.776
46279SOL    HW140676   7.499  10.128  11.805
46279SOL    HW240677   7.644  10.148  11.842
46280SOL     OW40678   1.404   8.298  10.109
46280SOL    HW140679   1.490   8.281  10.071
46280SOL    HW240680   1.354   8.218  10.091
46281SOL     OW40681   3.746   2.315  13.724
46281SOL    HW140682   3.658   2.287  13.701
46281SOL    HW240683   3.736   2.405  13.755
46282SOL     OW40684   1.541   1.878   8.353
46282SOL    HW140685   1.600   1.884   8.278
46282SOL    HW240686   1.589   1.919   8.425
46283SOL     OW40687   2.027  11.457   7.012
46283SOL    HW140688   2.058  11.366   7.010
46283SOL    HW240689   2.104  11.509   6.990
46284SOL     OW40690   2.808   6.259   4.711
46284SOL    HW140691   2.838   6.248   4.801
46284SOL    HW240692   2.831   6.177   4.668
46285SOL     OW40693   5.878   5.509   4.115
46285SOL    HW140694   5.884   5.605   4.122
46285SOL    HW240695   5.967   5.481   4.092
46286SOL     OW40696  13.749   1.178   9.368
46286SOL    HW140697  13.671   1.187   9.422
46286SOL    HW240698  13.807   1.248   9.397
46287SOL     OW40699   8.645  11.534   6.233
46287SOL    HW140700   8.590  11.611   6.219
46287SOL    HW240701   8.733  11.562   6.204
46288SOL     OW40702  13.017   7.803  11.118
46288SOL    HW140703  13.018   7.748  11.196
46288SOL    HW240704  13.068   7.754  11.053
46289SOL     OW40705   7.945   7.855   5.343
46289SOL    HW140706   8.036   7.881   5.328
46289SOL    HW240707   7.899   7.937   5.361
46290SOL     OW40708   3.998   9.716   3.777
46290SOL    HW140709   4.037   9.647   3.830
46290SOL    HW240710   4.020   9.693   3.687
46291SOL     OW40711   1.565   3.223   1.895
46291SOL    HW140712   1.644   3.276   1.885
46291SOL    HW240713   1.581   3.172   1.974
46292SOL     OW40714   3.886  11.729   7.791
46292SOL    HW140715   3.957  11.695   7.735
46292SOL    HW240716   3.830  11.777   7.730
46293SOL     OW40717   1.938   0.360   3.260
46293SOL    HW140718   1.945   0.420   3.186
46293SOL    HW240719   1.845   0.338   3.265
46294SOL     OW40720   9.514   1.512   1.682
46294SOL    HW140721   9.558   1.591   1.649
46294SOL    HW240722   9.542   1.443   1.623
46295SOL     OW40723   2.942  12.738   3.422
46295SOL    HW140724   2.895  12.820   3.408
46295SOL    HW240725   2.997  12.754   3.499
46296SOL     OW40726  11.326   3.313   4.409
46296SOL    HW140727  11.328   3.402   4.444
46296SOL    HW240728  11.235   3.284   4.423
46297SOL     OW40729  13.294  14.182   5.820
46297SOL    HW140730  13.329  14.260   5.777
46297SOL    HW240731  13.371  14.138   5.856
46298SOL     OW40732   5.750   3.948   4.650
46298SOL    HW140733   5.827   3.928   4.597
46298SOL    HW240734   5.692   3.872   4.639
46299SOL     OW40735   2.230   7.158   9.155
46299SOL    HW140736   2.216   7.081   9.211
46299SOL    HW240737   2.283   7.124   9.082
46300SOL     OW40738   7.729   6.016   2.661
46300SOL    HW140739   7.744   6.099   2.616
46300SOL    HW240740   7.790   5.955   2.620
46301SOL     OW40741   2.097   6.307   6.374
46301SOL    HW140742   2.168   6.361   6.338
46301SOL    HW240743   2.018   6.356   6.352
46302SOL     OW40744  14.392   1.319   3.842
46302SOL    HW140745  14.437   1.390   3.796
46302SOL    HW240746  14.322   1.292   3.782
46303SOL     OW40747   6.661   9.771  13.689
46303SOL    HW140748   6.742   9.785  13.737
46303SOL    HW240749   6.599   9.738  13.754
46304SOL     OW40750   4.014   6.972  11.561
46304SOL    HW140751   3.998   6.904  11.626
46304SOL    HW240752   3.937   6.969  11.504
46305SOL     OW40753   9.604   6.681   9.431
46305SOL    HW140754   9.601   6.611   9.365
46305SOL    HW240755   9.527   6.666   9.486
46306SOL     OW40756  13.451   7.878   1.136
46306SOL    HW140757  13.517   7.879   1.205
46306SOL    HW240758  13.402   7.797   1.151
46307SOL     OW40759  13.203   9.056   6.121
46307SOL    HW140760  13.116   9.017   6.124
46307SOL    HW240761  13.219   9.072   6.028
46308SOL     OW40762   3.630   8.700   8.068
46308SOL    HW140763   3.637   8.625   8.127
46308SOL    HW240764   3.673   8.670   7.987
46309SOL     OW40765  12.613  14.582   0.247
46309SOL    HW140766  12.544  14.585   0.180
46309SOL    HW240767  12.694  14.599   0.198
46310SOL     OW40768   9.270  11.930   9.617
46310SOL    HW140769   9.326  11.901   9.688
46310SOL    HW240770   9.278  11.861   9.551
46311SOL     OW40771   7.795   6.001  13.679
46311SOL    HW140772   7.725   6.044  13.728
46311SOL    HW240773   7.788   6.038  13.591
46312SOL     OW40774   0.352   5.959   1.656
46312SOL    HW140775   0.281   6.014   1.622
46312SOL    HW240776   0.373   5.996   1.741
46313SOL     OW40777   4.409   4.628   0.567
46313SOL    HW140778   4.419   4.542   0.607
46313SOL    HW240779   4.338   4.617   0.503
46314SOL     OW40780   1.513  10.878   9.190
46314SOL    HW140781   1.499  10.970   9.169
46314SOL    HW240782   1.427  10.846   9.216
46315SOL     OW40783  13.169  10.590   0.383
46315SOL    HW140784  13.201  10.572   0.471
46315SOL    HW240785  13.205  10.675   0.360
46316SOL     OW40786   0.649   6.361   9.788
46316SOL    HW140787   0.674   6.443   9.832
46316SOL    HW240788   0.697   6.364   9.705
46317SOL     OW40789   4.958  14.691   0.742
46317SOL    HW140790   4.927  14.615   0.792
46317SOL    HW240791   5.050  14.699   0.765
46318SOL     OW40792  10.645   4.151   9.497
46318SOL    HW140793  10.553   4.177   9.492
46318SOL    HW240794  10.646   4.059   9.472
46319SOL     OW40795   6.570   0.657  14.081
46319SOL    HW140796   6.587   0.563  14.093
46319SOL    HW240797   6.654   0.693  14.051
46320SOL     OW40798  11.053   2.278   6.506
46320SOL    HW140799  11.010   2.345   6.453
46320SOL    HW240800  10.982   2.223   6.537
46321SOL     OW40801  13.151   5.896   7.937
46321SOL    HW140802  13.132   5.923   7.847
46321SOL    HW240803  13.068   5.908   7.983
46322SOL     OW40804   6.439   2.615  13.220
46322SOL    HW140805   6.525   2.652  13.203
46322SOL    HW240806   6.384   2.651  13.150
46323SOL     OW40807   9.378   5.007   0.253
46323SOL    HW140808   9.452   4.982   0.197
46323SOL    HW240809   9.307   5.023   0.191
46324SOL     OW40810  14.494  12.685  13.675
46324SOL    HW140811  14.524  12.638  13.597
46324SOL    HW240812  14.400  12.668  13.678
46325SOL     OW40813  14.848  13.765  11.883
46325SOL    HW140814   0.040  13.777  11.821
46325SOL    HW240815   0.007  13.715  11.955
46326SOL     OW40816   0.262  10.795   2.034
46326SOL    HW140817   0.226  10.826   2.117
46326SOL    HW240818   0.214  10.715   2.014
46327SOL     OW40819   4.302   4.990   4.314
46327SOL    HW140820   4.218   4.947   4.331
46327SOL    HW240821   4.320   4.970   4.222
46328SOL     OW40822   7.033   3.877   1.408
46328SOL    HW140823   6.955   3.886   1.462
46328SOL    HW240824   7.030   3.952   1.349
46329SOL     OW40825  13.046   7.399  13.619
46329SOL    HW140826  12.951   7.409  13.628
46329SOL    HW240827  13.082   7.480  13.655
46330SOL     OW40828   4.982   5.884   7.789
46330SOL    HW140829   5.020   5.966   7.759
46330SOL    HW240830   4.900   5.909   7.831
46331SOL     OW40831   9.750   4.073   7.547
46331SOL    HW140832   9.841   4.072   7.519
46331SOL    HW240833   9.702   4.109   7.472
46332SOL     OW40834   8.844   5.677   6.772
46332SOL    HW140835   8.859   5.772   6.773
46332SOL    HW240836   8.784   5.663   6.700
46333SOL     OW40837  11.505   5.102   4.453
46333SOL    HW140838  11.585   5.052   4.469
46333SOL    HW240839  11.514   5.180   4.508
46334SOL     OW40840   8.467  13.337   9.250
46334SOL    HW140841   8.542  13.392   9.225
46334SOL    HW240842   8.471  13.333   9.346
46335SOL     OW40843   1.801   5.265  10.644
46335SOL    HW140844   1.724   5.212  10.624
46335SOL    HW240845   1.864   5.203  10.681
46336SOL     OW40846  14.100  13.907   6.276
46336SOL    HW140847  14.103  13.953   6.360
46336SOL    HW240848  14.030  13.952   6.228
46337SOL     OW40849   9.676   8.769  13.701
46337SOL    HW140850   9.718   8.693  13.742
46337SOL    HW240851   9.682   8.838  13.768
46338SOL     OW40852   8.465   7.915   3.980
46338SOL    HW140853   8.540   7.888   4.033
46338SOL    HW240854   8.468   8.011   3.983
46339SOL     OW40855   5.715   0.830   1.523
46339SOL    HW140856   5.729   0.834   1.429
46339SOL    HW240857   5.710   0.922   1.550
46340SOL     OW40858   8.058   0.998   6.591
46340SOL    HW140859   8.035   1.025   6.680
46340SOL    HW240860   8.129   1.058   6.566
46341SOL     OW40861   4.231   7.436   5.359
46341SOL    HW140862   4.295   7.463   5.293
46341SOL    HW240863   4.268   7.355   5.396
46342SOL     OW40864  14.529   2.319  12.097
46342SOL    HW140865  14.558   2.229  12.112
46342SOL    HW240866  14.434   2.313  12.095
46343SOL     OW40867   5.504  14.188  14.706
46343SOL    HW140868   5.557  14.263  14.734
46343SOL    HW240869   5.500  14.196  14.611
46344SOL     OW40870   9.265  14.757   6.141
46344SOL    HW140871   9.296  14.722   6.058
46344SOL    HW240872   9.343  14.763   6.196
46345SOL     OW40873  13.249  12.666  13.064
46345SOL    HW140874  13.322  12.652  13.003
46345SOL    HW240875  13.190  12.725  13.017
46346SOL     OW40876   0.957   2.627  12.287
46346SOL    HW140877   0.982   2.670  12.369
46346SOL    HW240878   0.884   2.570  12.312
46347SOL     OW40879  11.496  12.845   5.018
46347SOL    HW140880  11.458  12.909   4.958
46347SOL    HW240881  11.509  12.892   5.100
46348SOL     OW40882   6.688   1.225   5.604
46348SOL    HW140883   6.721   1.162   5.540
46348SOL    HW240884   6.680   1.307   5.554
46349SOL     OW40885   2.847   8.489   4.923
46349SOL    HW140886   2.812   8.548   4.990
46349SOL    HW240887   2.927   8.531   4.893
46350SOL     OW40888  12.055  13.925   3.871
46350SOL    HW140889  12.073  13.891   3.959
46350SOL    HW240890  12.023  13.849   3.822
46351SOL     OW40891  13.528   2.478   3.833
46351SOL    HW140892  13.501   2.513   3.918
46351SOL    HW240893  13.523   2.383   3.844
46352SOL     OW40894   5.276   7.175  14.174
46352SOL    HW140895   5.263   7.202  14.265
46352SOL    HW240896   5.370   7.184  14.160
46353SOL     OW40897  12.397   5.030  11.068
46353SOL    HW140898  12.475   5.085  11.062
46353SOL    HW240899  12.381   5.000  10.979
46354SOL     OW40900   7.460   2.623   3.588
46354SOL    HW140901   7.473   2.536   3.551
46354SOL    HW240902   7.531   2.676   3.551
46355SOL     OW40903  10.230   6.942  10.969
46355SOL    HW140904  10.271   7.024  10.943
46355SOL    HW240905  10.291   6.874  10.941
46356SOL     OW40906  13.809  12.721   8.774
46356SOL    HW140907  13.755  12.711   8.695
46356SOL    HW240908  13.862  12.642   8.776
46357SOL     OW40909   3.582  14.659  10.330
46357SOL    HW140910   3.597  14.730  10.392
46357SOL    HW240911   3.487  14.660  10.316
46358SOL     OW40912   4.360   6.036   9.023
46358SOL    HW140913   4.367   6.083   9.106
46358SOL    HW240914   4.421   5.963   9.031
46359SOL     OW40915   9.454   4.691  13.087
46359SOL    HW140916   9.410   4.716  13.168
46359SOL    HW240917   9.467   4.596  13.095
46360SOL     OW40918  12.131   6.424   3.388
46360SOL    HW140919  12.036   6.418   3.371
46360SOL    HW240920  12.165   6.339   3.361
46361SOL     OW40921  13.408   0.848  11.244
46361SOL    HW140922  13.503   0.839  11.248
46361SOL    HW240923  13.383   0.871  11.334
46362SOL     OW40924   7.497   4.289   5.287
46362SOL    HW140925   7.577   4.276   5.236
46362SOL    HW240926   7.527   4.333   5.367
46363SOL     OW40927  14.433   8.064  10.775
46363SOL    HW140928  14.384   8.138  10.811
46363SOL    HW240929  14.524   8.084  10.793
46364SOL     OW40930  14.005   5.612   7.821
46364SOL    HW140931  13.969   5.688   7.775
46364SOL    HW240932  14.076   5.582   7.765
46365SOL     OW40933  14.368  12.986   4.211
46365SOL    HW140934  14.274  12.985   4.192
46365SOL    HW240935  14.384  13.073   4.246
46366SOL     OW40936   2.946   8.834   9.573
46366SOL    HW140937   2.949   8.927   9.595
46366SOL    HW240938   2.979   8.790   9.651
46367SOL     OW40939  11.055   4.849  13.977
46367SOL    HW140940  11.084   4.773  13.927
46367SOL    HW240941  11.060   4.821  14.068
46368SOL     OW40942   0.781   9.025   3.582
46368SOL    HW140943   0.744   9.102   3.625
46368SOL    HW240944   0.875   9.031   3.598
46369SOL     OW40945  12.640  13.675   1.899
46369SOL    HW140946  12.565  13.734   1.894
46369SOL    HW240947  12.716  13.731   1.888
46370SOL     OW40948  10.836   6.952  14.747
46370SOL    HW140949  10.929   6.942  14.728
46370SOL    HW240950  10.817   7.045  14.733
46371SOL     OW40951   8.021   5.558   3.533
46371SOL    HW140952   8.115   5.541   3.530
46371SOL    HW240953   8.002   5.575   3.625
46372SOL     OW40954   8.148   0.515   7.243
46372SOL    HW140955   8.195   0.574   7.302
46372SOL    HW240956   8.206   0.504   7.168
46373SOL     OW40957  12.806   5.412   1.657
46373SOL    HW140958  12.733   5.439   1.712
46373SOL    HW240959  12.858   5.354   1.713
46374SOL     OW40960   7.764   1.937  10.780
46374SOL    HW140961   7.700   1.970  10.843
46374SOL    HW240962   7.786   1.849  10.811
46375SOL     OW40963   5.658   2.195   3.811
46375SOL    HW140964   5.693   2.116   3.852
46375SOL    HW240965   5.731   2.258   3.815
46376SOL     OW40966   4.728   1.286  10.881
46376SOL    HW140967   4.781   1.365  10.881
46376SOL    HW240968   4.643   1.315  10.847
46377SOL     OW40969   1.976   3.658   1.327
46377SOL    HW140970   1.894   3.635   1.284
46377SOL    HW240971   2.008   3.575   1.364
46378SOL     OW40972  13.065   1.240   4.757
46378SOL    HW140973  13.075   1.334   4.772
46378SOL    HW240974  13.154   1.207   4.751
46379SOL     OW40975  11.419   0.823  13.115
46379SOL    HW140976  11.489   0.873  13.156
46379SOL    HW240977  11.462   0.778  13.042
46380SOL     OW40978  12.629  10.078  10.468
46380SOL    HW140979  12.603  10.170  10.463
46380SOL    HW240980  12.718  10.075  10.432
46381SOL     OW40981   1.179  13.659  12.937
46381SOL    HW140982   1.119  13.697  12.872
46381SOL    HW240983   1.263  13.657  12.892
46382SOL     OW40984  10.806  14.413  13.677
46382SOL    HW140985  10.865  14.353  13.724
46382SOL    HW240986  10.721  14.400  13.720
46383SOL     OW40987   2.450   6.073  14.408
46383SOL    HW140988   2.364   6.086  14.368
46383SOL    HW240989   2.510   6.122  14.353
46384SOL     OW40990   2.286   8.398   9.250
46384SOL    HW140991   2.294   8.477   9.196
46384SOL    HW240992   2.291   8.325   9.188
46385SOL     OW40993  10.852   7.503  10.709
46385SOL    HW140994  10.890   7.574  10.761
46385SOL    HW240995  10.911   7.429  10.723
46386SOL     OW40996   0.769   2.092   6.539
46386SOL    HW140997   0.757   2.102   6.633
46386SOL    HW240998   0.814   2.007   6.530
46387SOL     OW40999   2.522   2.291  14.265
46387SOL    HW141000   2.504   2.220  14.203
46387SOL    HW241001   2.566   2.358  14.212
46388SOL     OW41002   3.769  13.478   6.048
46388SOL    HW141003   3.685  13.479   6.094
46388SOL    HW241004   3.830  13.522   6.108
46389SOL     OW41005  10.761  13.784   0.713
46389SOL    HW141006  10.807  13.700   0.716
46389SOL    HW241007  10.706  13.783   0.792
46390SOL     OW41008   5.302   8.406   1.310
46390SOL    HW141009   5.269   8.447   1.389
46390SOL    HW241010   5.332   8.478   1.256
46391SOL     OW41011  12.990  11.634  13.335
46391SOL    HW141012  12.973  11.554  13.386
46391SOL    HW241013  13.067  11.673  13.376
46392SOL     OW41014   0.843  14.561  12.461
46392SOL    HW141015   0.767  14.617  12.444
46392SOL    HW241016   0.918  14.615  12.436
46393SOL     OW41017   9.489   0.850   9.056
46393SOL    HW141018   9.427   0.898   9.001
46393SOL    HW241019   9.475   0.884   9.144
46394SOL     OW41020   2.550   9.805  13.102
46394SOL    HW141021   2.483   9.820  13.035
46394SOL    HW241022   2.625   9.770  13.054
46395SOL     OW41023   7.619  14.310  14.208
46395SOL    HW141024   7.683  14.340  14.144
46395SOL    HW241025   7.663  14.240  14.256
46396SOL     OW41026   2.738  14.343   4.594
46396SOL    HW141027   2.752  14.359   4.688
46396SOL    HW241028   2.644  14.356   4.581
46397SOL     OW41029   5.593  12.323  10.266
46397SOL    HW141030   5.533  12.261  10.308
46397SOL    HW241031   5.563  12.409  10.296
46398SOL     OW41032  12.635   9.430   0.099
46398SOL    HW141033  12.668   9.342   0.084
46398SOL    HW241034  12.670   9.481   0.026
46399SOL     OW41035  12.136   1.892   5.917
46399SOL    HW141036  12.124   1.970   5.971
46399SOL    HW241037  12.048   1.869   5.888
46400SOL     OW41038   6.113  14.624  12.269
46400SOL    HW141039   6.182  14.684  12.300
46400SOL    HW241040   6.110  14.555  12.335
46401SOL     OW41041   5.474   0.768   8.443
46401SOL    HW141042   5.542   0.707   8.471
46401SOL    HW241043   5.521   0.838   8.400
46402SOL     OW41044   3.127  12.068   8.759
46402SOL    HW141045   3.129  12.064   8.663
46402SOL    HW241046   3.053  12.014   8.783
46403SOL     OW41047  14.723   0.946   1.133
46403SOL    HW141048  14.806   0.899   1.144
46403SOL    HW241049  14.656   0.878   1.139
46404SOL     OW41050  12.374  12.210   9.374
46404SOL    HW141051  12.414  12.227   9.289
46404SOL    HW241052  12.293  12.260   9.373
46405SOL     OW41053  11.255  14.767  13.842
46405SOL    HW141054  11.316  14.796  13.910
46405SOL    HW241055  11.304  14.775  13.760
46406SOL     OW41056   6.978  10.327  10.464
46406SOL    HW141057   6.964  10.265  10.535
46406SOL    HW241058   6.921  10.401  10.485
46407SOL     OW41059   2.184   6.039  10.329
46407SOL    HW141060   2.208   5.956  10.288
46407SOL    HW241061   2.130   6.083  10.264
46408SOL     OW41062   1.332   4.586  10.072
46408SOL    HW141063   1.274   4.551  10.140
46408SOL    HW241064   1.289   4.666  10.043
46409SOL     OW41065   5.378  12.402  12.986
46409SOL    HW141066   5.337  12.469  12.931
46409SOL    HW241067   5.471  12.407  12.964
46410SOL     OW41068   9.740  10.193  12.833
46410SOL    HW141069   9.650  10.224  12.847
46410SOL    HW241070   9.795  10.270  12.849
46411SOL     OW41071  11.494  11.347  10.088
46411SOL    HW141072  11.405  11.343  10.053
46411SOL    HW241073  11.545  11.387  10.018
46412SOL     OW41074  10.788   7.688   1.025
46412SOL    HW141075  10.726   7.750   1.062
46412SOL    HW241076  10.788   7.615   1.087
46413SOL     OW41077  11.402   2.993   6.621
46413SOL    HW141078  11.318   3.021   6.657
46413SOL    HW241079  11.438   2.932   6.686
46414SOL     OW41080   2.008   9.692   3.073
46414SOL    HW141081   2.099   9.688   3.102
46414SOL    HW241082   1.986   9.601   3.050
46415SOL     OW41083  12.574   8.286   7.627
46415SOL    HW141084  12.548   8.201   7.591
46415SOL    HW241085  12.574   8.345   7.551
46416SOL     OW41086   4.440  12.928   2.685
46416SOL    HW141087   4.456  13.017   2.716
46416SOL    HW241088   4.364  12.898   2.736
46417SOL     OW41089  12.783   5.695  11.138
46417SOL    HW141090  12.780   5.600  11.130
46417SOL    HW241091  12.843   5.722  11.068
46418SOL     OW41092  12.712  11.293   2.944
46418SOL    HW141093  12.647  11.320   2.878
46418SOL    HW241094  12.774  11.365   2.947
46419SOL     OW41095   7.856   8.831   2.011
46419SOL    HW141096   7.790   8.785   2.062
46419SOL    HW241097   7.936   8.780   2.022
46420SOL     OW41098   3.471  11.937   7.365
46420SOL    HW141099   3.548  11.899   7.406
46420SOL    HW241100   3.440  12.003   7.427
46421SOL     OW41101   1.616   1.010   2.977
46421SOL    HW141102   1.530   0.979   2.950
46421SOL    HW241103   1.606   1.105   2.982
46422SOL     OW41104   7.813  12.226   3.414
46422SOL    HW141105   7.790  12.168   3.342
46422SOL    HW241106   7.826  12.312   3.373
46423SOL     OW41107   1.639  12.920   4.424
46423SOL    HW141108   1.581  12.915   4.500
46423SOL    HW241109   1.588  12.967   4.358
46424SOL     OW41110   6.031   3.950  13.420
46424SOL    HW141111   6.015   3.932  13.328
46424SOL    HW241112   6.031   4.045  13.427
46425SOL     OW41113   8.444   9.544  10.041
46425SOL    HW141114   8.409   9.619  10.089
46425SOL    HW241115   8.385   9.472  10.063
46426SOL     OW41116  12.326   4.945   2.541
46426SOL    HW141117  12.270   4.911   2.611
46426SOL    HW241118  12.395   4.992   2.586
46427SOL     OW41119   6.876   9.598   2.343
46427SOL    HW141120   6.936   9.672   2.343
46427SOL    HW241121   6.833   9.602   2.257
46428SOL     OW41122   5.358  10.269   5.517
46428SOL    HW141123   5.280  10.324   5.526
46428SOL    HW241124   5.329  10.183   5.548
46429SOL     OW41125   4.327  10.654   4.136
46429SOL    HW141126   4.238  10.689   4.148
46429SOL    HW241127   4.384  10.718   4.177
46430SOL     OW41128  13.950  11.266  13.958
46430SOL    HW141129  13.985  11.351  13.930
46430SOL    HW241130  13.874  11.252  13.902
46431SOL     OW41131  11.424   1.112   3.367
46431SOL    HW141132  11.463   1.188   3.410
46431SOL    HW241133  11.357   1.082   3.427
46432SOL     OW41134  12.865   9.727   6.536
46432SOL    HW141135  12.923   9.791   6.579
46432SOL    HW241136  12.923   9.658   6.507
46433SOL     OW41137   4.961  14.104   1.278
46433SOL    HW141138   4.897  14.162   1.236
46433SOL    HW241139   5.035  14.160   1.298
46434SOL     OW41140   8.263   4.549  13.388
46434SOL    HW141141   8.184   4.509  13.423
46434SOL    HW241142   8.334   4.512  13.440
46435SOL     OW41143   7.705  14.346  12.390
46435SOL    HW141144   7.714  14.334  12.484
46435SOL    HW241145   7.617  14.313  12.370
46436SOL     OW41146   4.502  13.313   3.546
46436SOL    HW141147   4.540  13.302   3.459
46436SOL    HW241148   4.514  13.406   3.566
46437SOL     OW41149  11.603   2.137   4.544
46437SOL    HW141150  11.608   2.206   4.478
46437SOL    HW241151  11.688   2.139   4.588
46438SOL     OW41152   1.645   3.406   1.624
46438SOL    HW141153   1.700   3.361   1.688
46438SOL    HW241154   1.587   3.461   1.677
46439SOL     OW41155   3.707  10.994  13.353
46439SOL    HW141156   3.699  10.990  13.448
46439SOL    HW241157   3.672  11.080  13.329
46440SOL     OW41158  14.029   9.760   6.823
46440SOL    HW141159  14.089   9.832   6.845
46440SOL    HW241160  14.048   9.741   6.731
46441SOL     OW41161   3.816   3.401   4.852
46441SOL    HW141162   3.884   3.425   4.789
46441SOL    HW241163   3.863   3.361   4.924
46442SOL     OW41164  10.468   0.618   8.984
46442SOL    HW141165  10.499   0.677   8.915
46442SOL    HW241166  10.382   0.588   8.953
46443SOL     OW41167   8.967   2.872   8.388
46443SOL    HW141168   8.952   2.780   8.365
46443SOL    HW241169   9.001   2.870   8.477
46444SOL     OW41170   3.196  13.165  11.468
46444SOL    HW141171   3.177  13.173  11.561
46444SOL    HW241172   3.112  13.179  11.425
46445SOL     OW41173   9.976   3.272   2.107
46445SOL    HW141174   9.957   3.311   2.022
46445SOL    HW241175   9.898   3.291   2.160
46446SOL     OW41176  12.126  13.531   2.532
46446SOL    HW141177  12.135  13.567   2.444
46446SOL    HW241178  12.105  13.607   2.587
46447SOL     OW41179   6.571   3.245   7.918
46447SOL    HW141180   6.547   3.334   7.891
46447SOL    HW241181   6.657   3.231   7.880
46448SOL     OW41182   1.719   2.190  12.130
46448SOL    HW141183   1.627   2.181  12.104
46448SOL    HW241184   1.765   2.127  12.075
46449SOL     OW41185   4.777  11.450   0.655
46449SOL    HW141186   4.706  11.513   0.668
46449SOL    HW241187   4.832  11.459   0.733
46450SOL     OW41188   9.513   0.310   9.033
46450SOL    HW141189   9.418   0.324   9.028
46450SOL    HW241190   9.538   0.345   9.118
46451SOL     OW41191   0.140   2.949  12.302
46451SOL    HW141192   0.229   2.933  12.334
46451SOL    HW241193   0.107   3.022  12.354
46452SOL     OW41194  14.413   9.214   1.162
46452SOL    HW141195  14.350   9.250   1.099
46452SOL    HW241196  14.359   9.184   1.235
46453SOL     OW41197   5.721   8.811   4.557
46453SOL    HW141198   5.776   8.877   4.598
46453SOL    HW241199   5.640   8.857   4.534
46454SOL     OW41200  12.039  10.545   1.192
46454SOL    HW141201  12.081  10.477   1.140
46454SOL    HW241202  12.083  10.542   1.277
46455SOL     OW41203  12.721   4.444  10.205
46455SOL    HW141204  12.648   4.480  10.156
46455SOL    HW241205  12.782   4.412  10.138
46456SOL     OW41206   2.375  10.650  14.671
46456SOL    HW141207   2.463  10.682  14.653
46456SOL    HW241208   2.324  10.729  14.687
46457SOL     OW41209  14.413  14.333   1.852
46457SOL    HW141210  14.400  14.242   1.826
46457SOL    HW241211  14.449  14.376   1.774
46458SOL     OW41212   8.604   1.139   4.416
46458SOL    HW141213   8.693   1.174   4.421
46458SOL    HW241214   8.548   1.216   4.407
46459SOL     OW41215   9.461  11.686   3.294
46459SOL    HW141216   9.504  11.759   3.249
46459SOL    HW241217   9.512  11.674   3.374
46460SOL     OW41218  13.804  12.312  12.589
46460SOL    HW141219  13.756  12.237  12.625
46460SOL    HW241220  13.818  12.290  12.497
46461SOL     OW41221   3.384   5.139   6.768
46461SOL    HW141222   3.410   5.050   6.746
46461SOL    HW241223   3.434   5.194   6.708
46462SOL     OW41224  12.102   1.531  11.997
46462SOL    HW141225  12.118   1.623  12.020
46462SOL    HW241226  12.027   1.506  12.050
46463SOL     OW41227   7.341  10.477   2.191
46463SOL    HW141228   7.393  10.432   2.258
46463SOL    HW241229   7.287  10.408   2.152
46464SOL     OW41230   7.551   2.857  14.755
46464SOL    HW141231   7.472   2.841  14.807
46464SOL    HW241232   7.584   2.941  14.786
46465SOL     OW41233   4.570   7.858   9.619
46465SOL    HW141234   4.582   7.763   9.611
46465SOL    HW241235   4.617   7.881   9.699
46466SOL     OW41236   9.744   3.072   9.588
46466SOL    HW141237   9.742   3.010   9.661
46466SOL    HW241238   9.661   3.120   9.595
46467SOL     OW41239   7.052   7.305  10.789
46467SOL    HW141240   7.037   7.211  10.784
46467SOL    HW241241   7.038   7.327  10.881
46468SOL     OW41242   6.481   0.720   8.977
46468SOL    HW141243   6.449   0.694   9.063
46468SOL    HW241244   6.503   0.813   8.986
46469SOL     OW41245   9.676  14.619   9.904
46469SOL    HW141246   9.610  14.626   9.973
46469SOL    HW241247   9.759  14.633   9.948
46470SOL     OW41248   9.773   7.797  12.055
46470SOL    HW141249   9.786   7.890  12.073
46470SOL    HW241250   9.722   7.795  11.974
46471SOL     OW41251   1.069   9.412   5.301
46471SOL    HW141252   1.025   9.403   5.385
46471SOL    HW241253   1.032   9.344   5.246
46472SOL     OW41254   1.664   5.490  10.800
46472SOL    HW141255   1.732   5.445  10.749
46472SOL    HW241256   1.596   5.423  10.814
46473SOL     OW41257   3.201   0.509   5.195
46473SOL    HW141258   3.241   0.527   5.280
46473SOL    HW241259   3.218   0.416   5.180
46474SOL     OW41260   4.840  11.147   0.307
46474SOL    HW141261   4.759  11.101   0.330
46474SOL    HW241262   4.825  11.179   0.218
46475SOL     OW41263   3.103   9.956   2.792
46475SOL    HW141264   3.105   9.874   2.743
46475SOL    HW241265   3.011   9.982   2.792
46476SOL     OW41266   0.231   8.107  14.877
46476SOL    HW141267   0.162   8.163   0.032
46476SOL    HW241268   0.309   8.129   0.049
46477SOL     OW41269   1.918  13.325   0.147
46477SOL    HW141270   1.828  13.355   0.139
46477SOL    HW241271   1.956  13.340   0.060
46478SOL     OW41272   9.708   2.430  10.088
46478SOL    HW141273   9.801   2.408  10.084
46478SOL    HW241274   9.705   2.516  10.130
46479SOL     OW41275   5.319   2.339  14.347
46479SOL    HW141276   5.298   2.432  14.346
46479SOL    HW241277   5.375   2.326  14.270
46480SOL     OW41278  11.868  14.571  14.549
46480SOL    HW141279  11.956  14.566  14.512
46480SOL    HW241280  11.863  14.496  14.608
46481SOL     OW41281  14.174   7.435  10.351
46481SOL    HW141282  14.244   7.387  10.307
46481SOL    HW241283  14.131   7.370  10.406
46482SOL     OW41284   5.623   1.323   2.582
46482SOL    HW141285   5.655   1.309   2.671
46482SOL    HW241286   5.618   1.234   2.544
46483SOL     OW41287  12.694   9.799   6.337
46483SOL    HW141288  12.704   9.736   6.265
46483SOL    HW241289  12.730   9.753   6.414
46484SOL     OW41290  11.166   5.997   3.068
46484SOL    HW141291  11.163   5.914   3.020
46484SOL    HW241292  11.148   5.974   3.159
46485SOL     OW41293  12.736   7.901  11.308
46485SOL    HW141294  12.816   7.849  11.305
46485SOL    HW241295  12.667   7.842  11.280
46486SOL     OW41296   3.184  12.233   9.715
46486SOL    HW141297   3.143  12.233   9.628
46486SOL    HW241298   3.150  12.153   9.757
46487SOL     OW41299   1.073  14.185  11.142
46487SOL    HW141300   0.989  14.199  11.099
46487SOL    HW241301   1.067  14.096  11.177
46488SOL     OW41302   8.361   6.859   1.628
46488SOL    HW141303   8.414   6.904   1.694
46488SOL    HW241304   8.323   6.930   1.576
46489SOL     OW41305   1.667   8.849  13.492
46489SOL    HW141306   1.572   8.861  13.499
46489SOL    HW241307   1.678   8.793  13.415
46490SOL     OW41308  13.287  10.529  11.136
46490SOL    HW141309  13.264  10.506  11.226
46490SOL    HW241310  13.281  10.446  11.088
46491SOL     OW41311   8.678  13.213   0.383
46491SOL    HW141312   8.663  13.269   0.307
46491SOL    HW241313   8.622  13.136   0.368
46492SOL     OW41314  11.508   2.058  14.419
46492SOL    HW141315  11.498   1.993  14.489
46492SOL    HW241316  11.452   2.131  14.446
46493SOL     OW41317  13.085  12.279   3.981
46493SOL    HW141318  13.139  12.228   4.041
46493SOL    HW241319  13.092  12.232   3.898
46494SOL     OW41320   3.390   5.128  12.699
46494SOL    HW141321   3.393   5.177  12.617
46494SOL    HW241322   3.419   5.190  12.765
46495SOL     OW41323  12.667   7.240  11.390
46495SOL    HW141324  12.675   7.144  11.390
46495SOL    HW241325  12.684   7.266  11.481
46496SOL     OW41326   3.444   2.594  13.849
46496SOL    HW141327   3.499   2.553  13.916
46496SOL    HW241328   3.498   2.591  13.770
46497SOL     OW41329   5.418   9.911   3.702
46497SOL    HW141330   5.375   9.988   3.663
46497SOL    HW241331   5.512   9.929   3.693
46498SOL     OW41332   5.001   2.277  12.364
46498SOL    HW141333   4.915   2.295  12.327
46498SOL    HW241334   5.063   2.318  12.304
46499SOL     OW41335  14.659  10.144  10.179
46499SOL    HW141336  14.602  10.217  10.156
46499SOL    HW241337  14.602  10.067  10.175
46500SOL     OW41338   3.367   7.783   8.384
46500SOL    HW141339   3.321   7.742   8.312
46500SOL    HW241340   3.458   7.754   8.374
46501SOL     OW41341   2.016  12.422   2.316
46501SOL    HW141342   2.101  12.406   2.357
46501SOL    HW241343   2.020  12.373   2.233
46502SOL     OW41344   2.128   2.824   2.230
46502SOL    HW141345   2.151   2.794   2.318
46502SOL    HW241346   2.149   2.917   2.230
46503SOL     OW41347   3.551   2.170  11.496
46503SOL    HW141348   3.597   2.208  11.421
46503SOL    HW241349   3.607   2.098  11.525
46504SOL     OW41350   9.463   0.198  12.274
46504SOL    HW141351   9.522   0.264  12.238
46504SOL    HW241352   9.475   0.203  12.368
46505SOL     OW41353   4.986  11.780   3.352
46505SOL    HW141354   5.077  11.805   3.365
46505SOL    HW241355   4.990  11.692   3.316
46506SOL     OW41356   5.163   3.680   2.470
46506SOL    HW141357   5.090   3.669   2.531
46506SOL    HW241358   5.212   3.755   2.505
46507SOL     OW41359  13.485   3.254  14.311
46507SOL    HW141360  13.523   3.167  14.309
46507SOL    HW241361  13.391   3.240  14.302
46508SOL     OW41362  13.497  10.490   9.449
46508SOL    HW141363  13.434  10.493   9.378
46508SOL    HW241364  13.574  10.447   9.412
46509SOL     OW41365   3.043   0.816  14.562
46509SOL    HW141366   3.061   0.722  14.556
46509SOL    HW241367   3.117   0.852  14.609
46510SOL     OW41368  12.102   8.799   0.842
46510SOL    HW141369  12.129   8.800   0.933
46510SOL    HW241370  12.048   8.721   0.833
46511SOL     OW41371   6.029   8.129   2.685
46511SOL    HW141372   5.943   8.127   2.643
46511SOL    HW241373   6.040   8.042   2.722
46512SOL     OW41374   4.675  12.894   4.754
46512SOL    HW141375   4.632  12.870   4.836
46512SOL    HW241376   4.764  12.917   4.781
46513SOL     OW41377  11.916  13.624   3.191
46513SOL    HW141378  11.942  13.573   3.267
46513SOL    HW241379  11.967  13.704   3.196
46514SOL     OW41380   4.051   9.199   9.367
46514SOL    HW141381   4.141   9.197   9.333
46514SOL    HW241382   4.008   9.269   9.318
46515SOL     OW41383   1.001  10.964  10.845
46515SOL    HW141384   1.095  10.960  10.857
46515SOL    HW241385   0.976  10.877  10.815
46516SOL     OW41386   3.201   6.961   8.977
46516SOL    HW141387   3.135   6.983   9.043
46516SOL    HW241388   3.231   7.046   8.944
46517SOL     OW41389   0.952   9.846   5.772
46517SOL    HW141390   0.922   9.937   5.779
46517SOL    HW241391   0.936   9.808   5.858
46518SOL     OW41392  11.392   4.707   8.797
46518SOL    HW141393  11.365   4.787   8.752
46518SOL    HW241394  11.462   4.736   8.856
46519SOL     OW41395   0.843   2.913   5.577
46519SOL    HW141396   0.826   2.853   5.504
46519SOL    HW241397   0.911   2.972   5.544
46520SOL     OW41398   9.009   9.879   7.483
46520SOL    HW141399   8.924   9.894   7.523
46520SOL    HW241400   9.072   9.901   7.552
46521SOL     OW41401   2.410   6.098  11.709
46521SOL    HW141402   2.467   6.046  11.652
46521SOL    HW241403   2.438   6.076  11.798
46522SOL     OW41404   2.199   8.006   2.349
46522SOL    HW141405   2.284   7.974   2.318
46522SOL    HW241406   2.214   8.029   2.441
46523SOL     OW41407   7.576  12.622  11.354
46523SOL    HW141408   7.561  12.712  11.325
46523SOL    HW241409   7.635  12.631  11.429
46524SOL     OW41410  11.052   5.565  13.868
46524SOL    HW141411  11.049   5.649  13.820
46524SOL    HW241412  11.138   5.564  13.909
46525SOL     OW41413   8.753   9.752   3.866
46525SOL    HW141414   8.789   9.789   3.785
46525SOL    HW241415   8.699   9.822   3.903
46526SOL     OW41416   7.711   6.566  14.648
46526SOL    HW141417   7.795   6.529  14.673
46526SOL    HW241418   7.722   6.661  14.659
46527SOL     OW41419   5.947   7.253   3.612
46527SOL    HW141420   5.855   7.246   3.589
46527SOL    HW241421   5.954   7.334   3.662
46528SOL     OW41422   8.833  11.537   2.438
46528SOL    HW141423   8.805  11.555   2.348
46528SOL    HW241424   8.920  11.577   2.444
46529SOL     OW41425  14.459   1.881   6.145
46529SOL    HW141426  14.493   1.970   6.143
46529SOL    HW241427  14.535   1.825   6.126
46530SOL     OW41428  11.193  14.183  13.618
46530SOL    HW141429  11.107  14.142  13.623
46530SOL    HW241430  11.243  14.127  13.560
46531SOL     OW41431   4.469   5.181   3.831
46531SOL    HW141432   4.505   5.101   3.791
46531SOL    HW241433   4.545   5.236   3.847
46532SOL     OW41434   4.529   6.265   1.167
46532SOL    HW141435   4.444   6.221   1.165
46532SOL    HW241436   4.529   6.313   1.250
46533SOL     OW41437   4.020   2.337  10.644
46533SOL    HW141438   3.944   2.361  10.591
46533SOL    HW241439   3.995   2.359  10.734
46534SOL     OW41440   6.171   2.207   2.797
46534SOL    HW141441   6.193   2.298   2.781
46534SOL    HW241442   6.156   2.201   2.891
46535SOL     OW41443   3.745   5.380   9.914
46535SOL    HW141444   3.841   5.388   9.909
46535SOL    HW241445   3.727   5.372  10.008
46536SOL     OW41446   2.750   6.285  10.065
46536SOL    HW141447   2.748   6.359  10.125
46536SOL    HW241448   2.660   6.280  10.031
46537SOL     OW41449   0.989   5.329  12.424
46537SOL    HW141450   0.980   5.348  12.517
46537SOL    HW241451   1.003   5.234  12.420
46538SOL     OW41452  14.283   9.160   5.706
46538SOL    HW141453  14.377   9.147   5.717
46538SOL    HW241454  14.245   9.136   5.791
46539SOL     OW41455  13.073   0.797   3.613
46539SOL    HW141456  13.034   0.719   3.574
46539SOL    HW241457  13.020   0.814   3.691
46540SOL     OW41458  10.263   0.044  13.120
46540SOL    HW141459  10.320  14.877  13.182
46540SOL    HW241460  10.319   0.109  13.080
46541SOL     OW41461   6.993  13.290  14.478
46541SOL    HW141462   7.004  13.197  14.502
46541SOL    HW241463   7.042  13.298  14.396
46542SOL     OW41464   2.080   0.280   0.469
46542SOL    HW141465   2.004   0.271   0.526
46542SOL    HW241466   2.153   0.299   0.528
46543SOL     OW41467   3.188   1.757   4.544
46543SOL    HW141468   3.185   1.829   4.481
46543SOL    HW241469   3.263   1.777   4.600
46544SOL     OW41470   0.826  12.393  12.188
46544SOL    HW141471   0.903  12.336  12.189
46544SOL    HW241472   0.851  12.468  12.241
46545SOL     OW41473   7.727   5.915   3.978
46545SOL    HW141474   7.713   6.000   4.019
46545SOL    HW241475   7.775   5.935   3.897
46546SOL     OW41476   0.552   3.429   7.015
46546SOL    HW141477   0.597   3.419   6.931
46546SOL    HW241478   0.557   3.522   7.035
46547SOL     OW41479   1.190   9.265   4.397
46547SOL    HW141480   1.262   9.326   4.384
46547SOL    HW241481   1.227   9.194   4.449
46548SOL     OW41482   5.269   2.898  11.643
46548SOL    HW141483   5.257   2.993  11.648
46548SOL    HW241484   5.317   2.884  11.562
46549SOL     OW41485   5.295  10.945   3.105
46549SOL    HW141486   5.250  10.998   3.171
46549SOL    HW241487   5.257  10.972   3.022
46550SOL     OW41488  12.021   0.625  13.415
46550SOL    HW141489  11.944   0.681  13.421
46550SOL    HW241490  12.033   0.609  13.322
46551SOL     OW41491   3.540   4.948  12.197
46551SOL    HW141492   3.597   4.883  12.154
46551SOL    HW241493   3.459   4.945  12.147
46552SOL     OW41494   5.829   2.007   9.468
46552SOL    HW141495   5.783   1.924   9.480
46552SOL    HW241496   5.761   2.069   9.442
46553SOL     OW41497   5.875   9.230   5.923
46553SOL    HW141498   5.887   9.224   5.829
46553SOL    HW241499   5.928   9.159   5.958
46554SOL     OW41500   0.393  10.537   9.723
46554SOL    HW141501   0.323  10.519   9.660
46554SOL    HW241502   0.439  10.454   9.733
46555SOL     OW41503   6.218   4.969  14.287
46555SOL    HW141504   6.159   4.923  14.227
46555SOL    HW241505   6.175   4.962  14.373
46556SOL     OW41506   8.478   9.916   6.194
46556SOL    HW141507   8.406   9.903   6.132
46556SOL    HW241508   8.453   9.864   6.271
46557SOL     OW41509   9.301  11.075   7.964
46557SOL    HW141510   9.254  11.153   7.993
46557SOL    HW241511   9.390  11.105   7.946
46558SOL     OW41512   4.237  12.327   3.122
46558SOL    HW141513   4.300  12.393   3.150
46558SOL    HW241514   4.220  12.275   3.201
46559SOL     OW41515   8.482   9.864  12.618
46559SOL    HW141516   8.515   9.789  12.667
46559SOL    HW241517   8.551   9.930  12.626
46560SOL     OW41518  12.632   4.198  11.936
46560SOL    HW141519  12.638   4.291  11.915
46560SOL    HW241520  12.584   4.195  12.019
46561SOL     OW41521   2.570   9.839   7.594
46561SOL    HW141522   2.576   9.745   7.611
46561SOL    HW241523   2.659   9.865   7.570
46562SOL     OW41524   8.929   3.145   8.305
46562SOL    HW141525   8.958   3.059   8.335
46562SOL    HW241526   8.834   3.139   8.301
46563SOL     OW41527  14.145   4.221   5.292
46563SOL    HW141528  14.107   4.253   5.374
46563SOL    HW241529  14.237   4.246   5.297
46564SOL     OW41530   5.744   5.520   3.122
46564SOL    HW141531   5.654   5.527   3.088
46564SOL    HW241532   5.745   5.577   3.199
46565SOL     OW41533   5.512   5.441   7.366
46565SOL    HW141534   5.605   5.422   7.351
46565SOL    HW241535   5.470   5.355   7.369
46566SOL     OW41536   0.362   0.757   6.217
46566SOL    HW141537   0.315   0.830   6.176
46566SOL    HW241538   0.296   0.714   6.272
46567SOL     OW41539   3.518  10.288   8.904
46567SOL    HW141540   3.527  10.207   8.853
46567SOL    HW241541   3.567  10.271   8.985
46568SOL     OW41542   7.395  12.290   1.799
46568SOL    HW141543   7.469  12.232   1.819
46568SOL    HW241544   7.336  12.236   1.746
46569SOL     OW41545   9.978   9.954   5.837
46569SOL    HW141546   9.970   9.869   5.794
46569SOL    HW241547   9.901   9.959   5.894
46570SOL     OW41548   6.739  12.312   4.459
46570SOL    HW141549   6.650  12.345   4.469
46570SOL    HW241550   6.790  12.389   4.434
46571SOL     OW41551  10.375   1.983  10.634
46571SOL    HW141552  10.379   1.992  10.729
46571SOL    HW241553  10.422   2.059  10.601
46572SOL     OW41554   3.950   9.061   5.110
46572SOL    HW141555   3.906   9.074   5.026
46572SOL    HW241556   3.885   9.015   5.163
46573SOL     OW41557  14.617   1.226  14.589
46573SOL    HW141558  14.627   1.319  14.610
46573SOL    HW241559  14.664   1.180  14.659
46574SOL     OW41560   5.632  12.279   9.931
46574SOL    HW141561   5.606  12.220  10.002
46574SOL    HW241562   5.727  12.288   9.942
46575SOL     OW41563   3.956   3.546   3.212
46575SOL    HW141564   3.905   3.627   3.207
46575SOL    HW241565   3.900   3.480   3.172
46576SOL     OW41566   6.583   5.797   2.516
46576SOL    HW141567   6.653   5.862   2.510
46576SOL    HW241568   6.621   5.718   2.476
46577SOL     OW41569  13.042  10.728   7.707
46577SOL    HW141570  13.121  10.781   7.720
46577SOL    HW241571  13.030  10.727   7.612
46578SOL     OW41572   2.173  14.070   9.261
46578SOL    HW141573   2.084  14.039   9.246
46578SOL    HW241574   2.220  13.995   9.296
46579SOL     OW41575  13.210   9.052   2.174
46579SOL    HW141576  13.280   9.028   2.235
46579SOL    HW241577  13.140   9.084   2.231
46580SOL     OW41578   5.280   0.089   5.695
46580SOL    HW141579   5.333   0.031   5.749
46580SOL    HW241580   5.270   0.169   5.747
46581SOL     OW41581   0.567  13.609   1.053
46581SOL    HW141582   0.492  13.555   1.028
46581SOL    HW241583   0.640  13.572   1.004
46582SOL     OW41584   2.286   6.992   8.958
46582SOL    HW141585   2.307   6.934   8.885
46582SOL    HW241586   2.220   6.943   9.009
46583SOL     OW41587   0.471  10.163  10.717
46583SOL    HW141588   0.450  10.152  10.810
46583SOL    HW241589   0.534  10.235  10.716
46584SOL     OW41590   2.367   2.738   3.953
46584SOL    HW141591   2.277   2.758   3.979
46584SOL    HW241592   2.362   2.651   3.914
46585SOL     OW41593   9.642   9.907  12.606
46585SOL    HW141594   9.582   9.967  12.561
46585SOL    HW241595   9.607   9.820  12.587
46586SOL     OW41596  11.442  12.686   1.259
46586SOL    HW141597  11.416  12.624   1.327
46586SOL    HW241598  11.478  12.760   1.307
46587SOL     OW41599   3.761   1.444   8.494
46587SOL    HW141600   3.826   1.451   8.564
46587SOL    HW241601   3.738   1.352   8.490
46588SOL     OW41602   0.659   2.578   1.653
46588SOL    HW141603   0.627   2.540   1.571
46588SOL    HW241604   0.580   2.608   1.698
46589SOL     OW41605   8.137  10.757   4.507
46589SOL    HW141606   8.051  10.793   4.531
46589SOL    HW241607   8.120  10.708   4.426
46590SOL     OW41608  11.449  13.368  14.556
46590SOL    HW141609  11.515  13.319  14.508
46590SOL    HW241610  11.433  13.317  14.635
46591SOL     OW41611   1.773   6.159   3.651
46591SOL    HW141612   1.839   6.202   3.705
46591SOL    HW241613   1.821   6.092   3.603
46592SOL     OW41614   7.413   9.231   7.526
46592SOL    HW141615   7.467   9.155   7.506
46592SOL    HW241616   7.401   9.228   7.621
46593SOL     OW41617   0.363  13.222   8.485
46593SOL    HW141618   0.411  13.150   8.445
46593SOL    HW241619   0.278  13.185   8.509
46594SOL     OW41620   7.332  11.063   9.660
46594SOL    HW141621   7.247  11.105   9.650
46594SOL    HW241622   7.358  11.040   9.571
46595SOL     OW41623   7.351  13.668   4.385
46595SOL    HW141624   7.263  13.636   4.368
46595SOL    HW241625   7.362  13.660   4.480
46596SOL     OW41626  11.505  11.816   9.106
46596SOL    HW141627  11.600  11.827   9.108
46596SOL    HW241628  11.471  11.894   9.149
46597SOL     OW41629  10.975   0.322   6.103
46597SOL    HW141630  10.995   0.414   6.089
46597SOL    HW241631  10.931   0.294   6.022
46598SOL     OW41632   4.706   9.820  11.654
46598SOL    HW141633   4.612   9.805  11.643
46598SOL    HW241634   4.730   9.770  11.732
46599SOL     OW41635   0.808   5.361   9.149
46599SOL    HW141636   0.794   5.273   9.184
46599SOL    HW241637   0.899   5.360   9.119
46600SOL     OW41638  10.574  13.055   2.987
46600SOL    HW141639  10.563  12.960   2.993
46600SOL    HW241640  10.666  13.070   3.009
46601SOL     OW41641  10.724   5.357   4.452
46601SOL    HW141642  10.804   5.389   4.493
46601SOL    HW241643  10.653   5.401   4.500
46602SOL     OW41644   0.569  11.518   0.349
46602SOL    HW141645   0.501  11.456   0.375
46602SOL    HW241646   0.650  11.468   0.352
46603SOL     OW41647   3.786   5.488  10.812
46603SOL    HW141648   3.724   5.476  10.740
46603SOL    HW241649   3.871   5.467  10.775
46604SOL     OW41650  11.353   5.498  11.574
46604SOL    HW141651  11.390   5.519  11.660
46604SOL    HW241652  11.271   5.452  11.594
46605SOL     OW41653   7.638   4.861   0.812
46605SOL    HW141654   7.687   4.926   0.761
46605SOL    HW241655   7.587   4.913   0.874
46606SOL     OW41656  14.740   9.163   4.897
46606SOL    HW141657  14.675   9.175   4.966
46606SOL    HW241658  14.693   9.180   4.816
46607SOL     OW41659  13.225   2.279   9.507
46607SOL    HW141660  13.285   2.314   9.441
46607SOL    HW241661  13.173   2.354   9.535
46608SOL     OW41662   5.147  12.023  10.080
46608SOL    HW141663   5.132  11.976  10.162
46608SOL    HW241664   5.193  11.959  10.024
46609SOL     OW41665  13.952  13.947   7.945
46609SOL    HW141666  13.932  13.942   7.852
46609SOL    HW241667  13.993  13.863   7.966
46610SOL     OW41668  11.833  10.079  13.434
46610SOL    HW141669  11.747  10.037  13.447
46610SOL    HW241670  11.896  10.008  13.448
46611SOL     OW41671   3.342  12.961  11.359
46611SOL    HW141672   3.305  12.904  11.426
46611SOL    HW241673   3.298  13.045  11.372
46612SOL     OW41674  14.480   8.475   9.012
46612SOL    HW141675  14.415   8.544   9.027
46612SOL    HW241676  14.562   8.523   9.002
46613SOL     OW41677   9.698   5.931  13.055
46613SOL    HW141678   9.606   5.927  13.082
46613SOL    HW241679   9.712   6.024  13.034
46614SOL     OW41680   0.723   4.312   7.731
46614SOL    HW141681   0.664   4.300   7.657
46614SOL    HW241682   0.772   4.230   7.736
46615SOL     OW41683   2.489  14.096   9.042
46615SOL    HW141684   2.505  14.058   9.128
46615SOL    HW241685   2.575  14.127   9.013
46616SOL     OW41686   1.288   9.415  11.366
46616SOL    HW141687   1.266   9.505  11.341
46616SOL    HW241688   1.372   9.398  11.323
46617SOL     OW41689   6.539  14.800   1.398
46617SOL    HW141690   6.523  14.808   1.492
46617SOL    HW241691   6.575   0.005   1.372
46618SOL     OW41692   9.154   9.911  11.146
46618SOL    HW141693   9.103   9.851  11.200
46618SOL    HW241694   9.095   9.986  11.132
46619SOL     OW41695   0.553  11.283   6.463
46619SOL    HW141696   0.643  11.252   6.448
46619SOL    HW241697   0.553  11.314   6.554
46620SOL     OW41698   3.872   2.129  11.632
46620SOL    HW141699   3.955   2.168  11.605
46620SOL    HW241700   3.859   2.056  11.572
46621SOL     OW41701   8.957  11.796  11.893
46621SOL    HW141702   9.005  11.811  11.974
46621SOL    HW241703   9.013  11.834  11.825
46622SOL     OW41704   9.863  11.778   5.084
46622SOL    HW141705   9.776  11.817   5.091
46622SOL    HW241706   9.889  11.791   4.993
46623SOL     OW41707   4.224   7.633   6.596
46623SOL    HW141708   4.296   7.613   6.657
46623SOL    HW241709   4.263   7.692   6.532
46624SOL     OW41710   0.253   3.785  10.835
46624SOL    HW141711   0.344   3.770  10.810
46624SOL    HW241712   0.239   3.724  10.908
46625SOL     OW41713   1.794  10.412  12.994
46625SOL    HW141714   1.873  10.367  13.024
46625SOL    HW241715   1.801  10.500  13.030
46626SOL     OW41716   1.645  13.549   8.139
46626SOL    HW141717   1.650  13.453   8.135
46626SOL    HW241718   1.736  13.578   8.130
46627SOL     OW41719   0.999   4.150   0.238
46627SOL    HW141720   0.922   4.203   0.217
46627SOL    HW241721   0.963   4.068   0.271
46628SOL     OW41722  14.227   7.232   7.929
46628SOL    HW141723  14.285   7.264   7.998
46628SOL    HW241724  14.276   7.243   7.848
46629SOL     OW41725   5.504   9.594   2.854
46629SOL    HW141726   5.560   9.649   2.800
46629SOL    HW241727   5.435   9.653   2.885
46630SOL     OW41728   2.621  13.954   4.846
46630SOL    HW141729   2.685  13.945   4.776
46630SOL    HW241730   2.538  13.967   4.801
46631SOL     OW41731   1.966  12.417   8.124
46631SOL    HW141732   1.882  12.371   8.115
46631SOL    HW241733   1.996  12.393   8.212
46632SOL     OW41734   0.665   7.862   8.766
46632SOL    HW141735   0.709   7.915   8.833
46632SOL    HW241736   0.664   7.774   8.803
46633SOL     OW41737  10.989   3.018   7.320
46633SOL    HW141738  10.897   3.044   7.310
46633SOL    HW241739  11.008   2.967   7.242
46634SOL     OW41740   7.286  10.499   5.922
46634SOL    HW141741   7.273  10.592   5.902
46634SOL    HW241742   7.231  10.483   5.999
46635SOL     OW41743   3.420  10.317  10.085
46635SOL    HW141744   3.488  10.366  10.129
46635SOL    HW241745   3.340  10.334  10.135
46636SOL     OW41746   8.471  13.700   3.640
46636SOL    HW141747   8.528  13.777   3.643
46636SOL    HW241748   8.520  13.631   3.685
46637SOL     OW41749  10.709  14.454   6.193
46637SOL    HW141750  10.691  14.485   6.282
46637SOL    HW241751  10.674  14.522   6.136
46638SOL     OW41752  10.496   5.695   9.527
46638SOL    HW141753  10.487   5.620   9.585
46638SOL    HW241754  10.511   5.769   9.586
46639SOL     OW41755   7.073   9.354   2.645
46639SOL    HW141756   7.089   9.360   2.739
46639SOL    HW241757   7.052   9.261   2.631
46640SOL     OW41758   4.989  11.916  12.994
46640SOL    HW141759   5.054  11.893  12.927
46640SOL    HW241760   5.035  11.978  13.051
46641SOL     OW41761  10.945  10.661   0.607
46641SOL    HW141762  10.896  10.730   0.650
46641SOL    HW241763  10.947  10.589   0.670
46642SOL     OW41764   0.064   4.411   7.815
46642SOL    HW141765   0.020   4.428   7.731
46642SOL    HW241766   0.075   4.316   7.818
46643SOL     OW41767   6.439   9.858   1.027
46643SOL    HW141768   6.349   9.834   1.048
46643SOL    HW241769   6.486   9.775   1.023
46644SOL     OW41770  11.364   5.017   7.713
46644SOL    HW141771  11.295   5.083   7.706
46644SOL    HW241772  11.388   5.016   7.805
46645SOL     OW41773   1.253   4.621   7.411
46645SOL    HW141774   1.250   4.529   7.437
46645SOL    HW241775   1.337   4.630   7.364
46646SOL     OW41776   0.623  14.404  12.201
46646SOL    HW141777   0.584  14.335  12.147
46646SOL    HW241778   0.717  14.401  12.179
46647SOL     OW41779   3.245   7.291   7.530
46647SOL    HW141780   3.300   7.318   7.603
46647SOL    HW241781   3.288   7.329   7.453
46648SOL     OW41782   5.268   5.957   1.562
46648SOL    HW141783   5.213   5.981   1.488
46648SOL    HW241784   5.277   6.038   1.612
46649SOL     OW41785   3.684   1.369  10.431
46649SOL    HW141786   3.593   1.359  10.404
46649SOL    HW241787   3.734   1.323  10.364
46650SOL     OW41788   1.140   2.550   1.743
46650SOL    HW141789   1.213   2.596   1.702
46650SOL    HW241790   1.089   2.619   1.786
46651SOL     OW41791  14.673  13.513   4.378
46651SOL    HW141792  14.709  13.582   4.434
46651SOL    HW241793  14.637  13.560   4.302
46652SOL     OW41794   8.102   1.936   9.057
46652SOL    HW141795   8.012   1.920   9.027
46652SOL    HW241796   8.101   2.027   9.088
46653SOL     OW41797  11.073   6.589   1.205
46653SOL    HW141798  11.065   6.580   1.110
46653SOL    HW241799  11.122   6.510   1.231
46654SOL     OW41800   5.275   6.169   5.077
46654SOL    HW141801   5.205   6.193   5.138
46654SOL    HW241802   5.342   6.128   5.131
46655SOL     OW41803   8.538   7.619   0.316
46655SOL    HW141804   8.610   7.569   0.277
46655SOL    HW241805   8.460   7.588   0.270
46656SOL     OW41806   5.782   8.846   3.869
46656SOL    HW141807   5.785   8.828   3.775
46656SOL    HW241808   5.853   8.794   3.906
46657SOL     OW41809   2.755  13.562  12.704
46657SOL    HW141810   2.709  13.485  12.736
46657SOL    HW241811   2.687  13.614  12.660
46658SOL     OW41812   6.189   9.011   5.688
46658SOL    HW141813   6.282   9.027   5.671
46658SOL    HW241814   6.187   8.930   5.738
46659SOL     OW41815   1.095   6.846  13.742
46659SOL    HW141816   1.008   6.808  13.732
46659SOL    HW241817   1.153   6.771  13.753
46660SOL     OW41818   9.064  10.070   1.425
46660SOL    HW141819   9.065  10.026   1.340
46660SOL    HW241820   8.987  10.035   1.470
46661SOL     OW41821   3.559   0.738   8.119
46661SOL    HW141822   3.583   0.806   8.182
46661SOL    HW241823   3.469   0.714   8.141
46662SOL     OW41824   4.735   9.354   1.125
46662SOL    HW141825   4.789   9.393   1.057
46662SOL    HW241826   4.673   9.422   1.150
46663SOL     OW41827  12.020  14.043   5.121
46663SOL    HW141828  12.058  14.120   5.078
46663SOL    HW241829  11.930  14.068   5.140
46664SOL     OW41830  10.586   8.694   7.107
46664SOL    HW141831  10.576   8.648   7.190
46664SOL    HW241832  10.565   8.629   7.041
46665SOL     OW41833  14.359  12.380   4.419
46665SOL    HW141834  14.295  12.432   4.370
46665SOL    HW241835  14.385  12.436   4.492
46666SOL     OW41836   1.576  12.492  13.311
46666SOL    HW141837   1.598  12.534  13.394
46666SOL    HW241838   1.659  12.490  13.262
46667SOL     OW41839   5.667   1.123   6.257
46667SOL    HW141840   5.617   1.043   6.273
46667SOL    HW241841   5.637   1.152   6.170
46668SOL     OW41842  10.186   2.274   3.100
46668SOL    HW141843  10.104   2.316   3.125
46668SOL    HW241844  10.200   2.207   3.166
46669SOL     OW41845   8.267   5.324   6.147
46669SOL    HW141846   8.229   5.404   6.111
46669SOL    HW241847   8.205   5.255   6.123
46670SOL     OW41848   6.375   1.121  12.319
46670SOL    HW141849   6.415   1.090  12.400
46670SOL    HW241850   6.436   1.096  12.250
46671SOL     OW41851   8.108  13.839   3.975
46671SOL    HW141852   8.164  13.913   4.001
46671SOL    HW241853   8.079  13.802   4.058
46672SOL     OW41854   9.250  11.621   7.218
46672SOL    HW141855   9.309  11.643   7.147
46672SOL    HW241856   9.198  11.700   7.232
46673SOL     OW41857   4.004   3.000  12.816
46673SOL    HW141858   3.939   3.029  12.752
46673SOL    HW241859   4.050   2.928  12.773
46674SOL     OW41860  11.348   7.936   5.556
46674SOL    HW141861  11.338   7.847   5.522
46674SOL    HW241862  11.441   7.956   5.543
46675SOL     OW41863   6.448   4.228  14.381
46675SOL    HW141864   6.404   4.263  14.459
46675SOL    HW241865   6.376   4.200  14.325
46676SOL     OW41866   6.392  11.232  13.377
46676SOL    HW141867   6.342  11.227  13.459
46676SOL    HW241868   6.427  11.144  13.365
46677SOL     OW41869   4.540  12.417   8.865
46677SOL    HW141870   4.604  12.345   8.860
46677SOL    HW241871   4.588  12.489   8.905
46678SOL     OW41872   5.648   2.642   4.299
46678SOL    HW141873   5.610   2.631   4.212
46678SOL    HW241874   5.602   2.718   4.335
46679SOL     OW41875   4.176   4.670  12.108
46679SOL    HW141876   4.140   4.626  12.031
46679SOL    HW241877   4.129   4.630  12.182
46680SOL     OW41878   0.230  12.025   9.161
46680SOL    HW141879   0.192  11.964   9.224
46680SOL    HW241880   0.323  12.006   9.161
46681SOL     OW41881  10.439   5.847  13.270
46681SOL    HW141882  10.424   5.916  13.205
46681SOL    HW241883  10.391   5.772  13.235
46682SOL     OW41884  10.334   2.650  10.730
46682SOL    HW141885  10.428   2.632  10.739
46682SOL    HW241886  10.329   2.728  10.675
46683SOL     OW41887  13.650  11.562   2.751
46683SOL    HW141888  13.559  11.532   2.751
46683SOL    HW241889  13.647  11.648   2.792
46684SOL     OW41890  11.023   1.160  11.587
46684SOL    HW141891  10.994   1.091  11.647
46684SOL    HW241892  11.047   1.233  11.645
46685SOL     OW41893  11.219  14.129  10.870
46685SOL    HW141894  11.258  14.202  10.918
46685SOL    HW241895  11.196  14.065  10.938
46686SOL     OW41896   5.566   4.077   3.927
46686SOL    HW141897   5.565   4.009   3.860
46686SOL    HW241898   5.553   4.030   4.010
46687SOL     OW41899   6.051   4.177   0.183
46687SOL    HW141900   5.966   4.201   0.220
46687SOL    HW241901   6.087   4.113   0.244
46688SOL     OW41902   3.821  14.106  13.430
46688SOL    HW141903   3.880  14.097  13.355
46688SOL    HW241904   3.819  14.200  13.447
46689SOL     OW41905   1.435   6.458  14.389
46689SOL    HW141906   1.362   6.396  14.384
46689SOL    HW241907   1.513   6.405  14.370
46690SOL     OW41908   9.526   3.032   6.474
46690SOL    HW141909   9.497   2.983   6.551
46690SOL    HW241910   9.456   3.021   6.410
46691SOL     OW41911   6.907  11.466  13.512
46691SOL    HW141912   6.962  11.413  13.569
46691SOL    HW241913   6.869  11.403  13.450
46692SOL     OW41914   3.507  14.325  13.322
46692SOL    HW141915   3.578  14.336  13.384
46692SOL    HW241916   3.444  14.393  13.345
46693SOL     OW41917   2.740   8.888   3.792
46693SOL    HW141918   2.804   8.823   3.763
46693SOL    HW241919   2.700   8.921   3.711
46694SOL     OW41920   5.298   1.409  14.735
46694SOL    HW141921   5.366   1.476  14.731
46694SOL    HW241922   5.346   1.328  14.752
46695SOL     OW41923  12.495   5.654  12.014
46695SOL    HW141924  12.585   5.681  11.997
46695SOL    HW241925  12.496   5.559  12.003
46696SOL     OW41926   8.565  13.541   6.981
46696SOL    HW141927   8.632  13.607   7.000
46696SOL    HW241928   8.501  13.552   7.052
46697SOL     OW41929   3.107   8.620   1.438
46697SOL    HW141930   3.036   8.681   1.416
46697SOL    HW241931   3.063   8.546   1.480
46698SOL     OW41932   3.800  12.506  10.615
46698SOL    HW141933   3.726  12.533  10.670
46698SOL    HW241934   3.862  12.467  10.677
46699SOL     OW41935   6.887   8.488   9.021
46699SOL    HW141936   6.976   8.519   9.032
46699SOL    HW241937   6.834   8.567   9.015
46700SOL     OW41938  10.966   1.557   2.480
46700SOL    HW141939  10.937   1.508   2.557
46700SOL    HW241940  11.056   1.528   2.465
46701SOL     OW41941  11.971   5.392   1.038
46701SOL    HW141942  11.879   5.416   1.051
46701SOL    HW241943  12.009   5.466   0.991
46702SOL     OW41944  13.355   5.744  12.409
46702SOL    HW141945  13.326   5.682  12.477
46702SOL    HW241946  13.431   5.787  12.447
46703SOL     OW41947  13.917  14.712   9.960
46703SOL    HW141948  13.862  14.651  10.010
46703SOL    HW241949  13.976  14.749  10.025
46704SOL     OW41950   0.060  14.565   3.481
46704SOL    HW141951   0.043  14.512   3.559
46704SOL    HW241952   0.010  14.645   3.495
46705SOL     OW41953   9.734   3.158   3.230
46705SOL    HW141954   9.661   3.218   3.216
46705SOL    HW241955   9.784   3.196   3.303
46706SOL     OW41956   0.834   3.777   7.747
46706SOL    HW141957   0.800   3.845   7.806
46706SOL    HW241958   0.846   3.821   7.663
46707SOL     OW41959   8.776  11.597   9.998
46707SOL    HW141960   8.695  11.549  10.013
46707SOL    HW241961   8.814  11.608  10.085
46708SOL     OW41962   3.727   7.351   5.010
46708SOL    HW141963   3.697   7.442   5.016
46708SOL    HW241964   3.756   7.341   4.920
46709SOL     OW41965   3.028   3.902   2.183
46709SOL    HW141966   2.940   3.928   2.154
46709SOL    HW241967   3.087   3.947   2.122
46710SOL     OW41968  14.348   7.334   6.038
46710SOL    HW141969  14.361   7.418   5.995
46710SOL    HW241970  14.411   7.275   5.997
46711SOL     OW41971   8.683   0.627   7.648
46711SOL    HW141972   8.652   0.577   7.572
46711SOL    HW241973   8.609   0.626   7.708
46712SOL     OW41974  12.104   0.453   2.930
46712SOL    HW141975  12.096   0.405   2.848
46712SOL    HW241976  12.071   0.540   2.911
46713SOL     OW41977   7.895  11.468   0.180
46713SOL    HW141978   7.873  11.510   0.263
46713SOL    HW241979   7.889  11.539   0.115
46714SOL     OW41980   1.503   5.002   8.208
46714SOL    HW141981   1.460   5.059   8.143
46714SOL    HW241982   1.596   5.011   8.190
46715SOL     OW41983   7.238   5.600   6.568
46715SOL    HW141984   7.280   5.677   6.531
46715SOL    HW241985   7.279   5.526   6.524
46716SOL     OW41986  14.284   9.208   2.845
46716SOL    HW141987  14.280   9.301   2.822
46716SOL    HW241988  14.375   9.194   2.870
46717SOL     OW41989  11.792  12.690  12.512
46717SOL    HW141990  11.728  12.761  12.499
46717SOL    HW241991  11.738  12.611  12.520
46718SOL     OW41992   7.931   5.655   4.741
46718SOL    HW141993   7.948   5.568   4.706
46718SOL    HW241994   8.016   5.700   4.737
46719SOL     OW41995   2.837  14.372   4.010
46719SOL    HW141996   2.862  14.443   4.070
46719SOL    HW241997   2.920  14.333   3.983
46720SOL     OW41998   4.096   8.155   2.519
46720SOL    HW141999   4.006   8.145   2.487
46720SOL    HW242000   4.136   8.069   2.507
46721SOL     OW42001   2.245   8.743   3.479
46721SOL    HW142002   2.236   8.832   3.513
46721SOL    HW242003   2.198   8.744   3.396
46722SOL     OW42004   1.050  14.699   9.891
46722SOL    HW142005   1.082  14.617   9.855
46722SOL    HW242006   0.955  14.689   9.893
46723SOL     OW42007  12.530   8.450  12.394
46723SOL    HW142008  12.508   8.372  12.444
46723SOL    HW242009  12.453   8.466  12.339
46724SOL     OW42010   7.584   4.416   5.526
46724SOL    HW142011   7.664   4.441   5.571
46724SOL    HW242012   7.518   4.412   5.595
46725SOL     OW42013  10.787   6.499  13.725
46725SOL    HW142014  10.699   6.502  13.761
46725SOL    HW242015  10.845   6.515  13.800
46726SOL     OW42016   7.850  12.763   9.254
46726SOL    HW142017   7.875  12.685   9.303
46726SOL    HW242018   7.902  12.759   9.174
46727SOL     OW42019   3.339   9.146   4.680
46727SOL    HW142020   3.307   9.219   4.733
46727SOL    HW242021   3.289   9.152   4.598
46728SOL     OW42022  12.402   7.945  13.606
46728SOL    HW142023  12.359   8.030  13.600
46728SOL    HW242024  12.336   7.882  13.577
46729SOL     OW42025   5.963   9.693  13.409
46729SOL    HW142026   6.039   9.699  13.351
46729SOL    HW242027   5.898   9.751  13.368
46730SOL     OW42028   6.581   2.905   7.603
46730SOL    HW142029   6.518   2.897   7.531
46730SOL    HW242030   6.626   2.988   7.586
46731SOL     OW42031   6.364   6.298   5.297
46731SOL    HW142032   6.437   6.243   5.267
46731SOL    HW242033   6.321   6.326   5.216
46732SOL     OW42034  12.998  12.679  13.457
46732SOL    HW142035  13.012  12.615  13.388
46732SOL    HW242036  13.062  12.657  13.524
46733SOL     OW42037   7.417  12.092   5.755
46733SOL    HW142038   7.491  12.153   5.748
46733SOL    HW242039   7.449  12.011   5.716
46734SOL     OW42040   2.035   5.030   2.528
46734SOL    HW142041   2.072   5.019   2.616
46734SOL    HW242042   2.107   5.066   2.476
46735SOL     OW42043   8.442   6.490  10.047
46735SOL    HW142044   8.387   6.415  10.027
46735SOL    HW242045   8.509   6.455  10.106
46736SOL     OW42046  14.663  10.986  10.778
46736SOL    HW142047  14.684  10.893  10.782
46736SOL    HW242048  14.598  10.999  10.847
46737SOL     OW42049   5.284   6.733   9.281
46737SOL    HW142050   5.341   6.663   9.251
46737SOL    HW242051   5.262   6.782   9.202
46738SOL     OW42052   8.993   5.331   0.054
46738SOL    HW142053   9.002   5.354  14.842
46738SOL    HW242054   8.900   5.312   0.065
46739SOL     OW42055   7.139   3.499   8.989
46739SOL    HW142056   7.121   3.455   8.906
46739SOL    HW242057   7.069   3.471   9.048
46740SOL     OW42058   0.955  13.222  14.807
46740SOL    HW142059   0.921  13.201   0.014
46740SOL    HW242060   0.964  13.317  14.807
46741SOL     OW42061   8.022  13.513  11.984
46741SOL    HW142062   7.971  13.583  12.025
46741SOL    HW242063   8.018  13.441  12.046
46742SOL     OW42064   3.538   0.757   0.773
46742SOL    HW142065   3.481   0.829   0.802
46742SOL    HW242066   3.626   0.793   0.776
46743SOL     OW42067  10.941   7.035   6.413
46743SOL    HW142068  10.943   7.122   6.372
46743SOL    HW242069  10.979   6.977   6.347
46744SOL     OW42070   2.528  14.246   6.104
46744SOL    HW142071   2.501  14.334   6.077
46744SOL    HW242072   2.480  14.188   6.046
46745SOL     OW42073   0.338   3.263  11.757
46745SOL    HW142074   0.423   3.235  11.725
46745SOL    HW242075   0.328   3.353  11.726
46746SOL     OW42076  14.659   2.293   1.171
46746SOL    HW142077  14.589   2.235   1.201
46746SOL    HW242078  14.614   2.361   1.121
46747SOL     OW42079   5.184   5.547  12.411
46747SOL    HW142080   5.267   5.577  12.448
46747SOL    HW242081   5.118   5.578  12.473
46748SOL     OW42082  14.309   7.419   3.979
46748SOL    HW142083  14.299   7.400   4.072
46748SOL    HW242084  14.341   7.337   3.942
46749SOL     OW42085   3.954  13.507   6.947
46749SOL    HW142086   3.908  13.485   6.866
46749SOL    HW242087   4.015  13.576   6.921
46750SOL     OW42088  11.986  12.784   2.245
46750SOL    HW142089  12.045  12.782   2.170
46750SOL    HW242090  11.949  12.873   2.245
46751SOL     OW42091   5.671  12.936   2.713
46751SOL    HW142092   5.766  12.941   2.703
46751SOL    HW242093   5.656  12.956   2.806
46752SOL     OW42094   7.698   8.360   9.670
46752SOL    HW142095   7.707   8.283   9.613
46752SOL    HW242096   7.783   8.403   9.667
46753SOL     OW42097   7.555   2.195   9.128
46753SOL    HW142098   7.527   2.247   9.053
46753SOL    HW242099   7.474   2.166   9.168
46754SOL     OW42100  10.010   1.158   0.781
46754SOL    HW142101   9.920   1.155   0.815
46754SOL    HW242102  10.052   1.080   0.818
46755SOL     OW42103  10.246   1.053   9.656
46755SOL    HW142104  10.269   0.961   9.673
46755SOL    HW242105  10.320   1.088   9.608
46756SOL     OW42106  11.001  10.887   1.310
46756SOL    HW142107  11.032  10.965   1.356
46756SOL    HW242108  10.943  10.844   1.373
46757SOL     OW42109   7.872   5.852   6.491
46757SOL    HW142110   7.916   5.937   6.490
46757SOL    HW242111   7.781   5.872   6.513
46758SOL     OW42112   5.179  12.601   2.087
46758SOL    HW142113   5.150  12.648   2.165
46758SOL    HW242114   5.148  12.511   2.100
46759SOL     OW42115   3.220   4.753   2.965
46759SOL    HW142116   3.143   4.721   3.013
46759SOL    HW242117   3.219   4.704   2.882
46760SOL     OW42118  12.706   5.256   3.118
46760SOL    HW142119  12.615   5.228   3.107
46760SOL    HW242120  12.707   5.299   3.204
46761SOL     OW42121   5.214   2.608   7.815
46761SOL    HW142122   5.142   2.614   7.752
46761SOL    HW242123   5.287   2.573   7.764
46762SOL     OW42124  11.277   1.955  10.596
46762SOL    HW142125  11.344   1.942  10.530
46762SOL    HW242126  11.297   1.890  10.664
46763SOL     OW42127   5.565   6.206  10.066
46763SOL    HW142128   5.645   6.154  10.075
46763SOL    HW242129   5.494   6.145  10.081
46764SOL     OW42130   3.428  11.776   2.781
46764SOL    HW142131   3.437  11.867   2.810
46764SOL    HW242132   3.383  11.732   2.853
46765SOL     OW42133   5.392  14.361   1.315
46765SOL    HW142134   5.298  14.341   1.312
46765SOL    HW242135   5.405  14.398   1.403
46766SOL     OW42136  12.265  14.850  10.800
46766SOL    HW142137  12.193  14.863  10.738
46766SOL    HW242138  12.321   0.047  10.788
46767SOL     OW42139   7.964  14.198   4.318
46767SOL    HW142140   7.911  14.140   4.373
46767SOL    HW242141   7.927  14.187   4.230
46768SOL     OW42142   4.208   5.133   2.472
46768SOL    HW142143   4.170   5.057   2.516
46768SOL    HW242144   4.281   5.159   2.528
46769SOL     OW42145  14.272   4.389   6.033
46769SOL    HW142146  14.228   4.457   5.981
46769SOL    HW242147  14.352   4.369   5.985
46770SOL     OW42148   6.124   6.380   0.386
46770SOL    HW142149   6.129   6.465   0.342
46770SOL    HW242150   6.063   6.329   0.333
46771SOL     OW42151   1.690   7.269   5.737
46771SOL    HW142152   1.675   7.179   5.766
46771SOL    HW242153   1.780   7.270   5.706
46772SOL     OW42154  14.794  11.394  13.898
46772SOL    HW142155  14.731  11.340  13.850
46772SOL    HW242156  14.863  11.334  13.923
46773SOL     OW42157  10.258   7.510   9.096
46773SOL    HW142158  10.260   7.596   9.137
46773SOL    HW242159  10.280   7.527   9.004
46774SOL     OW42160   9.060   1.057  10.784
46774SOL    HW142161   9.116   1.036  10.859
46774SOL    HW242162   9.048   1.152  10.790
46775SOL     OW42163  12.438   8.706   8.005
46775SOL    HW142164  12.413   8.714   7.913
46775SOL    HW242165  12.451   8.612   8.018
46776SOL     OW42166  14.691  14.505  13.328
46776SOL    HW142167  14.751  14.509  13.253
46776SOL    HW242168  14.644  14.423  13.316
46777SOL     OW42169  13.953  13.744   6.871
46777SOL    HW142170  14.022  13.679   6.877
46777SOL    HW242171  13.999  13.828   6.876
46778SOL     OW42172   0.881  10.349   4.362
46778SOL    HW142173   0.835  10.289   4.421
46778SOL    HW242174   0.815  10.414   4.337
46779SOL     OW42175  12.154  13.589   9.398
46779SOL    HW142176  12.099  13.667   9.396
46779SOL    HW242177  12.096  13.520   9.430
46780SOL     OW42178  14.296  11.866   9.221
46780SOL    HW142179  14.376  11.882   9.270
46780SOL    HW242180  14.242  11.944   9.236
46781SOL     OW42181   8.126   8.760   0.496
46781SOL    HW142182   8.078   8.747   0.414
46781SOL    HW242183   8.147   8.671   0.526
46782SOL     OW42184  11.585   9.140   9.454
46782SOL    HW142185  11.545   9.071   9.401
46782SOL    HW242186  11.666   9.101   9.487
46783SOL     OW42187   3.299  12.995   1.486
46783SOL    HW142188   3.370  13.057   1.468
46783SOL    HW242189   3.308  12.928   1.418
46784SOL     OW42190   7.373   8.680   3.902
46784SOL    HW142191   7.433   8.682   3.977
46784SOL    HW242192   7.426   8.710   3.828
46785SOL     OW42193   5.077   5.950   2.838
46785SOL    HW142194   5.034   6.021   2.791
46785SOL    HW242195   5.170   5.971   2.834
46786SOL     OW42196   5.948   4.416   1.626
46786SOL    HW142197   5.861   4.439   1.595
46786SOL    HW242198   5.935   4.385   1.715
46787SOL     OW42199  12.583   7.608  10.055
46787SOL    HW142200  12.498   7.581  10.089
46787SOL    HW242201  12.563   7.680   9.995
46788SOL     OW42202  10.007  13.195   6.284
46788SOL    HW142203  10.099  13.213   6.302
46788SOL    HW242204   9.974  13.159   6.367
46789SOL     OW42205  14.538   6.133   6.094
46789SOL    HW142206  14.575   6.177   6.018
46789SOL    HW242207  14.601   6.150   6.165
46790SOL     OW42208   9.395  13.114   5.734
46790SOL    HW142209   9.315  13.099   5.785
46790SOL    HW242210   9.426  13.027   5.711
46791SOL     OW42211  12.626   8.434   3.036
46791SOL    HW142212  12.631   8.507   2.974
46791SOL    HW242213  12.688   8.458   3.106
46792SOL     OW42214   8.956   4.863   0.754
46792SOL    HW142215   8.870   4.853   0.796
46792SOL    HW242216   8.989   4.947   0.786
46793SOL     OW42217   0.757  11.231   1.573
46793SOL    HW142218   0.778  11.221   1.666
46793SOL    HW242219   0.678  11.178   1.560
46794SOL     OW42220  13.757  13.154  10.283
46794SOL    HW142221  13.780  13.231  10.232
46794SOL    HW242222  13.662  13.151  10.280
46795SOL     OW42223   9.669  10.702  13.404
46795SOL    HW142224   9.603  10.690  13.472
46795SOL    HW242225   9.642  10.644  13.333
46796SOL     OW42226   5.255  13.757   5.350
46796SOL    HW142227   5.336  13.739   5.301
46796SOL    HW242228   5.188  13.706   5.304
46797SOL     OW42229  14.033   1.423   7.433
46797SOL    HW142230  13.980   1.381   7.365
46797SOL    HW242231  14.102   1.360   7.452
46798SOL     OW42232   1.806   6.379   3.048
46798SOL    HW142233   1.873   6.445   3.029
46798SOL    HW242234   1.848   6.319   3.109
46799SOL     OW42235   0.804   0.583   7.513
46799SOL    HW142236   0.762   0.644   7.453
46799SOL    HW242237   0.876   0.633   7.552
46800SOL     OW42238   1.615  11.403  13.995
46800SOL    HW142239   1.604  11.444  14.081
46800SOL    HW242240   1.695  11.351  14.003
46801SOL     OW42241  11.798  12.299   8.584
46801SOL    HW142242  11.826  12.385   8.555
46801SOL    HW242243  11.843  12.238   8.526
46802SOL     OW42244   5.067  10.405   4.177
46802SOL    HW142245   5.152  10.381   4.139
46802SOL    HW242246   5.075  10.381   4.269
46803SOL     OW42247  13.618   7.197   8.547
46803SOL    HW142248  13.701   7.242   8.564
46803SOL    HW242249  13.635   7.143   8.470
46804SOL     OW42250   9.996  12.793  13.979
46804SOL    HW142251   9.943  12.795  13.899
46804SOL    HW242252  10.085  12.773  13.949
46805SOL     OW42253   3.089   2.209  13.186
46805SOL    HW142254   3.049   2.125  13.162
46805SOL    HW242255   3.174   2.209  13.142
46806SOL     OW42256   5.558  13.223   3.540
46806SOL    HW142257   5.540  13.129   3.535
46806SOL    HW242258   5.601  13.244   3.457
46807SOL     OW42259   6.622   5.686   4.003
46807SOL    HW142260   6.691   5.644   3.952
46807SOL    HW242261   6.559   5.716   3.938
46808SOL     OW42262   6.056  13.241   3.187
46808SOL    HW142263   6.118  13.305   3.222
46808SOL    HW242264   6.043  13.177   3.257
46809SOL     OW42265   5.450   2.088  14.576
46809SOL    HW142266   5.510   2.119  14.508
46809SOL    HW242267   5.501   2.092  14.657
46810SOL     OW42268  10.016   9.517   1.004
46810SOL    HW142269  10.103   9.552   0.989
46810SOL    HW242270  10.015   9.432   0.960
46811SOL     OW42271   4.943  12.523  14.101
46811SOL    HW142272   4.974  12.550  14.187
46811SOL    HW242273   5.007  12.458  14.071
46812SOL     OW42274   2.578  11.998   3.902
46812SOL    HW142275   2.488  11.978   3.879
46812SOL    HW242276   2.572  12.074   3.960
46813SOL     OW42277   9.146   4.959  12.707
46813SOL    HW142278   9.220   4.991  12.656
46813SOL    HW242279   9.180   4.882  12.752
46814SOL     OW42280  11.693   8.657   8.721
46814SOL    HW142281  11.622   8.720   8.710
46814SOL    HW242282  11.698   8.612   8.637
46815SOL     OW42283   6.349  14.292   7.435
46815SOL    HW142284   6.298  14.301   7.515
46815SOL    HW242285   6.336  14.376   7.389
46816SOL     OW42286   5.077   8.485   5.670
46816SOL    HW142287   5.168   8.485   5.643
46816SOL    HW242288   5.080   8.477   5.766
46817SOL     OW42289  11.564   7.829  13.094
46817SOL    HW142290  11.480   7.791  13.070
46817SOL    HW242291  11.556   7.922  13.074
46818SOL     OW42292  13.228   1.392   4.191
46818SOL    HW142293  13.259   1.458   4.129
46818SOL    HW242294  13.136   1.380   4.170
46819SOL     OW42295   0.631   7.928   8.194
46819SOL    HW142296   0.700   7.978   8.150
46819SOL    HW242297   0.567   7.910   8.126
46820SOL     OW42298   7.717   7.293  11.206
46820SOL    HW142299   7.649   7.342  11.160
46820SOL    HW242300   7.738   7.219  11.148
46821SOL     OW42301   0.114   1.838   1.071
46821SOL    HW142302   0.117   1.933   1.065
46821SOL    HW242303   0.022   1.818   1.090
46822SOL     OW42304   8.980  13.163   1.273
46822SOL    HW142305   9.069  13.170   1.239
46822SOL    HW242306   8.990  13.123   1.359
46823SOL     OW42307   8.201  11.486  12.747
46823SOL    HW142308   8.112  11.514  12.768
46823SOL    HW242309   8.189  11.404  12.698
46824SOL     OW42310   5.439  12.587   4.125
46824SOL    HW142311   5.430  12.651   4.054
46824SOL    HW242312   5.520  12.613   4.169
46825SOL     OW42313   2.484   8.497  11.230
46825SOL    HW142314   2.431   8.536  11.160
46825SOL    HW242315   2.433   8.512  11.310
46826SOL     OW42316   7.169   2.186   1.074
46826SOL    HW142317   7.132   2.262   1.029
46826SOL    HW242318   7.142   2.198   1.165
46827SOL     OW42319   4.550   6.315  12.377
46827SOL    HW142320   4.602   6.283  12.303
46827SOL    HW242321   4.607   6.306  12.453
46828SOL     OW42322   7.862   4.044  12.874
46828SOL    HW142323   7.892   3.958  12.904
46828SOL    HW242324   7.857   4.097  12.953
46829SOL     OW42325   2.624   0.171   6.480
46829SOL    HW142326   2.699   0.226   6.458
46829SOL    HW242327   2.549   0.230   6.473
46830SOL     OW42328  10.434   0.569   6.356
46830SOL    HW142329  10.432   0.477   6.379
46830SOL    HW242330  10.527   0.588   6.344
46831SOL     OW42331   3.821   1.684   0.063
46831SOL    HW142332   3.858   1.768   0.035
46831SOL    HW242333   3.804   1.695   0.156
46832SOL     OW42334  12.006   7.638   5.860
46832SOL    HW142335  12.068   7.607   5.794
46832SOL    HW242336  11.954   7.705   5.815
46833SOL     OW42337   6.220   9.266   9.374
46833SOL    HW142338   6.133   9.276   9.333
46833SOL    HW242339   6.228   9.341   9.432
46834SOL     OW42340   2.872   6.234   7.526
46834SOL    HW142341   2.819   6.177   7.470
46834SOL    HW242342   2.884   6.314   7.474
46835SOL     OW42343   3.525   4.339   4.873
46835SOL    HW142344   3.527   4.423   4.921
46835SOL    HW242345   3.465   4.354   4.801
46836SOL     OW42346   2.312   4.141   1.592
46836SOL    HW142347   2.397   4.176   1.616
46836SOL    HW242348   2.331   4.054   1.556
46837SOL     OW42349   3.337   1.982   1.003
46837SOL    HW142350   3.419   1.958   0.960
46837SOL    HW242351   3.295   2.042   0.941
46838SOL     OW42352   8.628   4.397   0.335
46838SOL    HW142353   8.607   4.326   0.395
46838SOL    HW242354   8.623   4.357   0.248
46839SOL     OW42355   9.035   3.253   5.228
46839SOL    HW142356   8.962   3.225   5.172
46839SOL    HW242357   9.108   3.265   5.168
46840SOL     OW42358   9.934   7.268   1.999
46840SOL    HW142359   9.854   7.264   2.051
46840SOL    HW242360   9.979   7.185   2.017
46841SOL     OW42361  13.448   6.686   6.576
46841SOL    HW142362  13.474   6.731   6.495
46841SOL    HW242363  13.353   6.699   6.580
46842SOL     OW42364   9.686  13.967   0.138
46842SOL    HW142365   9.635  13.916   0.200
46842SOL    HW242366   9.640  13.957   0.055
46843SOL     OW42367  13.732   3.435  13.232
46843SOL    HW142368  13.690   3.387  13.303
46843SOL    HW242369  13.777   3.508  13.275
46844SOL     OW42370  10.807   9.778   2.943
46844SOL    HW142371  10.749   9.705   2.920
46844SOL    HW242372  10.804   9.835   2.867
46845SOL     OW42373   7.254   0.837   9.662
46845SOL    HW142374   7.314   0.816   9.590
46845SOL    HW242375   7.167   0.821   9.626
46846SOL     OW42376   1.393   5.219   8.067
46846SOL    HW142377   1.351   5.204   7.982
46846SOL    HW242378   1.429   5.307   8.060
46847SOL     OW42379  10.627   5.569  11.309
46847SOL    HW142380  10.643   5.496  11.249
46847SOL    HW242381  10.532   5.575  11.315
46848SOL     OW42382   1.758   0.312  11.225
46848SOL    HW142383   1.852   0.327  11.241
46848SOL    HW242384   1.756   0.234  11.169
46849SOL     OW42385   4.921   6.830   9.779
46849SOL    HW142386   5.016   6.838   9.791
46849SOL    HW242387   4.886   6.914   9.808
46850SOL     OW42388   1.887   5.106  14.397
46850SOL    HW142389   1.898   5.068  14.310
46850SOL    HW242390   1.796   5.136  14.399
46851SOL     OW42391   7.994   5.038   4.135
46851SOL    HW142392   7.998   5.104   4.204
46851SOL    HW242393   7.903   5.039   4.107
46852SOL     OW42394   0.192   8.019  11.052
46852SOL    HW142395   0.174   7.983  11.139
46852SOL    HW242396   0.195   8.114  11.065
46853SOL     OW42397   8.245  13.679   3.478
46853SOL    HW142398   8.321  13.701   3.531
46853SOL    HW242399   8.280  13.661   3.391
46854SOL     OW42400  13.888  10.906   3.682
46854SOL    HW142401  13.891  11.001   3.673
46854SOL    HW242402  13.796  10.885   3.697
46855SOL     OW42403  13.517   5.126   4.003
46855SOL    HW142404  13.546   5.214   4.027
46855SOL    HW242405  13.506   5.129   3.908
46856SOL     OW42406   7.817   0.542  13.070
46856SOL    HW142407   7.788   0.453  13.050
46856SOL    HW242408   7.837   0.541  13.163
46857SOL     OW42409  10.155  14.616  12.067
46857SOL    HW142410  10.152  14.711  12.083
46857SOL    HW242411  10.176  14.578  12.152
46858SOL     OW42412   9.783   2.797   4.593
46858SOL    HW142413   9.777   2.834   4.505
46858SOL    HW242414   9.777   2.872   4.652
46859SOL     OW42415   7.259  12.946   6.612
46859SOL    HW142416   7.195  12.875   6.623
46859SOL    HW242417   7.237  12.985   6.528
46860SOL     OW42418   9.415  10.857  11.635
46860SOL    HW142419   9.332  10.810  11.630
46860SOL    HW242420   9.392  10.948  11.617
46861SOL     OW42421   2.884   0.409   8.197
46861SOL    HW142422   2.840   0.327   8.218
46861SOL    HW242423   2.960   0.384   8.145
46862SOL     OW42424  11.013   4.614   3.954
46862SOL    HW142425  11.034   4.539   4.010
46862SOL    HW242426  11.098   4.654   3.935
46863SOL     OW42427  13.812  14.691   1.079
46863SOL    HW142428  13.882  14.638   1.116
46863SOL    HW242429  13.851  14.778   1.066
46864SOL     OW42430  10.482   3.128  14.413
46864SOL    HW142431  10.566   3.143  14.370
46864SOL    HW242432  10.418   3.171  14.357
46865SOL     OW42433  10.422   5.960  11.840
46865SOL    HW142434  10.351   5.903  11.870
46865SOL    HW242435  10.467   5.909  11.773
46866SOL     OW42436  10.686   1.484  11.328
46866SOL    HW142437  10.776   1.494  11.358
46866SOL    HW242438  10.693   1.469  11.234
46867SOL     OW42439  11.517  11.161  13.306
46867SOL    HW142440  11.450  11.214  13.262
46867SOL    HW242441  11.570  11.125  13.235
46868SOL     OW42442  14.241   4.108  13.751
46868SOL    HW142443  14.234   4.062  13.668
46868SOL    HW242444  14.259   4.040  13.815
46869SOL     OW42445   9.413   2.248   2.046
46869SOL    HW142446   9.366   2.183   2.098
46869SOL    HW242447   9.453   2.198   1.975
46870SOL     OW42448   4.891  14.650   6.424
46870SOL    HW142449   4.944  14.571   6.437
46870SOL    HW242450   4.824  14.645   6.492
46871SOL     OW42451  10.020   4.074  10.901
46871SOL    HW142452   9.978   4.160  10.907
46871SOL    HW242453  10.046   4.053  10.990
46872SOL     OW42454  11.881  10.429   7.482
46872SOL    HW142455  11.967  10.408   7.519
46872SOL    HW242456  11.825  10.444   7.558
46873SOL     OW42457  11.578   2.162   5.207
46873SOL    HW142458  11.526   2.200   5.136
46873SOL    HW242459  11.668   2.185   5.185
46874SOL     OW42460  11.372   4.915   9.380
46874SOL    HW142461  11.427   4.991   9.402
46874SOL    HW242462  11.435   4.846   9.358
46875SOL     OW42463  14.595   9.885   5.983
46875SOL    HW142464  14.579   9.807   5.930
46875SOL    HW242465  14.650   9.855   6.055
46876SOL     OW42466  11.748   1.017   4.856
46876SOL    HW142467  11.670   0.986   4.903
46876SOL    HW242468  11.812   1.033   4.925
46877SOL     OW42469   1.297   8.896  12.865
46877SOL    HW142470   1.302   8.926  12.956
46877SOL    HW242471   1.318   8.974  12.813
46878SOL     OW42472  13.345  13.882  12.957
46878SOL    HW142473  13.253  13.860  12.970
46878SOL    HW242474  13.369  13.837  12.876
46879SOL     OW42475   4.013  11.784   4.545
46879SOL    HW142476   3.957  11.862   4.545
46879SOL    HW242477   3.999  11.744   4.631
46880SOL     OW42478   6.730  14.689   2.465
46880SOL    HW142479   6.785  14.736   2.528
46880SOL    HW242480   6.641  14.711   2.490
46881SOL     OW42481   5.633   9.483   7.320
46881SOL    HW142482   5.692   9.482   7.395
46881SOL    HW242483   5.681   9.531   7.252
46882SOL     OW42484   2.169   3.998   9.148
46882SOL    HW142485   2.146   3.969   9.236
46882SOL    HW242486   2.199   3.919   9.103
46883SOL     OW42487   1.220   0.431   3.428
46883SOL    HW142488   1.208   0.344   3.391
46883SOL    HW242489   1.206   0.490   3.354
46884SOL     OW42490   7.671   7.823  14.287
46884SOL    HW142491   7.666   7.905  14.336
46884SOL    HW242492   7.686   7.850  14.197
46885SOL     OW42493   6.181   9.624  12.266
46885SOL    HW142494   6.086   9.638  12.260
46885SOL    HW242495   6.199   9.622  12.360
46886SOL     OW42496  13.853  10.725   4.597
46886SOL    HW142497  13.780  10.750   4.540
46886SOL    HW242498  13.812  10.696   4.678
46887SOL     OW42499   1.840   0.547  11.769
46887SOL    HW142500   1.864   0.477  11.707
46887SOL    HW242501   1.868   0.514  11.854
46888SOL     OW42502   8.284   8.601  12.850
46888SOL    HW142503   8.205   8.630  12.804
46888SOL    HW242504   8.302   8.515  12.814
46889SOL     OW42505   4.042  14.420   1.978
46889SOL    HW142506   4.009  14.344   1.930
46889SOL    HW242507   3.970  14.446   2.035
46890SOL     OW42508   6.936  13.466  11.701
46890SOL    HW142509   6.997  13.474  11.774
46890SOL    HW242510   6.989  13.433  11.628
46891SOL     OW42511  13.742  12.516   2.736
46891SOL    HW142512  13.778  12.428   2.722
46891SOL    HW242513  13.806  12.560   2.791
46892SOL     OW42514  12.123  10.020  10.164
46892SOL    HW142515  12.032   9.999  10.140
46892SOL    HW242516  12.158   9.938  10.197
46893SOL     OW42517  11.815  13.785  14.768
46893SOL    HW142518  11.822  13.698  14.728
46893SOL    HW242519  11.749  13.775  14.836
46894SOL     OW42520  12.882  12.284  14.154
46894SOL    HW142521  12.844  12.282  14.242
46894SOL    HW242522  12.971  12.318  14.166
46895SOL     OW42523   7.263   7.361   8.621
46895SOL    HW142524   7.342   7.381   8.571
46895SOL    HW242525   7.195   7.350   8.555
46896SOL     OW42526   7.461   9.263   3.872
46896SOL    HW142527   7.453   9.351   3.836
46896SOL    HW242528   7.371   9.234   3.886
46897SOL     OW42529  13.469   9.773   3.438
46897SOL    HW142530  13.439   9.757   3.527
46897SOL    HW242531  13.563   9.752   3.441
46898SOL     OW42532   7.473   8.925  11.014
46898SOL    HW142533   7.508   8.939  10.926
46898SOL    HW242534   7.430   8.839  11.008
46899SOL     OW42535   5.428   7.502   1.750
46899SOL    HW142536   5.412   7.451   1.829
46899SOL    HW242537   5.452   7.436   1.684
46900SOL     OW42538   1.392   5.362  13.013
46900SOL    HW142539   1.451   5.334  12.943
46900SOL    HW242540   1.449   5.389  13.084
46901SOL     OW42541   5.041  12.984  11.929
46901SOL    HW142542   5.018  12.925  11.857
46901SOL    HW242543   4.969  12.974  11.992
46902SOL     OW42544  13.079   6.772   0.400
46902SOL    HW142545  13.079   6.687   0.356
46902SOL    HW242546  13.078   6.751   0.493
46903SOL     OW42547   2.102  13.686   6.658
46903SOL    HW142548   2.068  13.765   6.617
46903SOL    HW242549   2.156  13.645   6.590
46904SOL     OW42550  12.355  10.516   9.166
46904SOL    HW142551  12.281  10.456   9.169
46904SOL    HW242552  12.372  10.538   9.257
46905SOL     OW42553   6.138   9.346   8.158
46905SOL    HW142554   6.050   9.336   8.122
46905SOL    HW242555   6.154   9.440   8.156
46906SOL     OW42556   8.009  13.509   3.909
46906SOL    HW142557   8.015  13.507   4.005
46906SOL    HW242558   8.074  13.574   3.882
46907SOL     OW42559   0.571   6.116   2.572
46907SOL    HW142560   0.629   6.058   2.523
46907SOL    HW242561   0.533   6.060   2.640
46908SOL     OW42562  11.405   8.953   8.986
46908SOL    HW142563  11.488   8.957   9.034
46908SOL    HW242564  11.370   9.042   8.990
46909SOL     OW42565   9.688   1.469   5.295
46909SOL    HW142566   9.764   1.527   5.302
46909SOL    HW242567   9.624   1.508   5.354
46910SOL     OW42568   1.912   9.541   2.742
46910SOL    HW142569   1.967   9.612   2.776
46910SOL    HW242570   1.943   9.528   2.652
46911SOL     OW42571   0.232   0.012  13.743
46911SOL    HW142572   0.303   0.047  13.689
46911SOL    HW242573   0.230   0.069  13.820
46912SOL     OW42574   9.121   2.757   1.552
46912SOL    HW142575   9.030   2.748   1.580
46912SOL    HW242576   9.157   2.827   1.607
46913SOL     OW42577   1.115   7.173   4.576
46913SOL    HW142578   1.061   7.228   4.633
46913SOL    HW242579   1.202   7.176   4.616
46914SOL     OW42580   6.479  14.436  12.671
46914SOL    HW142581   6.511  14.420  12.583
46914SOL    HW242582   6.552  14.411  12.728
46915SOL     OW42583   0.595   0.475   6.647
46915SOL    HW142584   0.548   0.410   6.698
46915SOL    HW242585   0.533   0.547   6.637
46916SOL     OW42586   6.128  13.924   4.587
46916SOL    HW142587   6.134  13.880   4.672
46916SOL    HW242588   6.178  13.868   4.527
46917SOL     OW42589  10.736   4.252  10.275
46917SOL    HW142590  10.748   4.163  10.242
46917SOL    HW242591  10.682   4.295  10.209
46918SOL     OW42592   5.103   6.967  14.140
46918SOL    HW142593   5.145   6.884  14.162
46918SOL    HW242594   5.166   7.034  14.168
46919SOL     OW42595   3.184  12.413  13.002
46919SOL    HW142596   3.211  12.331  13.043
46919SOL    HW242597   3.205  12.400  12.909
46920SOL     OW42598  14.087   3.803  11.742
46920SOL    HW142599  14.167   3.809  11.793
46920SOL    HW242600  14.066   3.893  11.719
46921SOL     OW42601   9.620   4.571   2.264
46921SOL    HW142602   9.706   4.601   2.233
46921SOL    HW242603   9.631   4.563   2.359
46922SOL     OW42604  14.403   9.270  12.341
46922SOL    HW142605  14.450   9.227  12.270
46922SOL    HW242606  14.312   9.241  12.331
46923SOL     OW42607  11.228   8.660   9.466
46923SOL    HW142608  11.257   8.633   9.379
46923SOL    HW242609  11.309   8.682   9.513
46924SOL     OW42610   4.993  13.808   9.130
46924SOL    HW142611   5.034  13.755   9.062
46924SOL    HW242612   5.026  13.772   9.212
46925SOL     OW42613   6.524   6.926  12.076
46925SOL    HW142614   6.519   7.000  12.016
46925SOL    HW242615   6.470   6.858  12.035
46926SOL     OW42616   3.264   9.090  10.615
46926SOL    HW142617   3.274   9.133  10.531
46926SOL    HW242618   3.262   9.162  10.679
46927SOL     OW42619   2.523  14.486  12.258
46927SOL    HW142620   2.552  14.418  12.197
46927SOL    HW242621   2.604  14.523  12.293
46928SOL     OW42622   5.653   5.187   3.365
46928SOL    HW142623   5.641   5.282   3.375
46928SOL    HW242624   5.671   5.156   3.454
46929SOL     OW42625   6.060   9.450   5.897
46929SOL    HW142626   6.030   9.513   5.963
46929SOL    HW242627   5.995   9.380   5.899
46930SOL     OW42628   4.944   9.541  13.465
46930SOL    HW142629   4.994   9.587  13.532
46930SOL    HW242630   4.867   9.508  13.512
46931SOL     OW42631   4.140   8.135  13.702
46931SOL    HW142632   4.126   8.128  13.607
46931SOL    HW242633   4.150   8.045  13.731
46932SOL     OW42634  10.728   1.952   5.030
46932SOL    HW142635  10.815   1.949   4.990
46932SOL    HW242636  10.746   1.951   5.124
46933SOL     OW42637  12.200  10.712   3.955
46933SOL    HW142638  12.119  10.745   3.994
46933SOL    HW242639  12.203  10.619   3.979
46934SOL     OW42640   8.574   9.561  12.216
46934SOL    HW142641   8.659   9.585  12.179
46934SOL    HW242642   8.510   9.599  12.155
46935SOL     OW42643  10.731   8.352  10.554
46935SOL    HW142644  10.813   8.338  10.506
46935SOL    HW242645  10.663   8.351  10.486
46936SOL     OW42646   6.342   4.726   9.467
46936SOL    HW142647   6.337   4.800   9.527
46936SOL    HW242648   6.419   4.677   9.497
46937SOL     OW42649  14.582   4.871  12.181
46937SOL    HW142650  14.585   4.800  12.245
46937SOL    HW242651  14.553   4.948  12.230
46938SOL     OW42652   8.705   0.181   2.030
46938SOL    HW142653   8.761   0.258   2.023
46938SOL    HW242654   8.664   0.189   2.115
46939SOL     OW42655  12.490   5.734   9.661
46939SOL    HW142656  12.519   5.816   9.701
46939SOL    HW242657  12.567   5.678   9.663
46940SOL     OW42658   2.286  14.387   5.137
46940SOL    HW142659   2.271  14.415   5.047
46940SOL    HW242660   2.368  14.430   5.161
46941SOL     OW42661   5.138   4.533  12.755
46941SOL    HW142662   5.156   4.481  12.677
46941SOL    HW242663   5.047   4.513  12.776
46942SOL     OW42664   1.883   6.285  13.281
46942SOL    HW142665   1.801   6.319  13.245
46942SOL    HW242666   1.855   6.228  13.353
46943SOL     OW42667   6.481  13.543  13.082
46943SOL    HW142668   6.428  13.471  13.048
46943SOL    HW242669   6.429  13.621  13.066
46944SOL     OW42670   1.885   6.977  14.788
46944SOL    HW142671   1.828   6.907  14.754
46944SOL    HW242672   1.945   6.997  14.716
46945SOL     OW42673   3.758   6.330   8.735
46945SOL    HW142674   3.688   6.348   8.672
46945SOL    HW242675   3.834   6.378   8.702
46946SOL     OW42676   8.329   7.082   3.443
46946SOL    HW142677   8.379   7.063   3.523
46946SOL    HW242678   8.286   7.166   3.462
46947SOL     OW42679  10.315  13.455  11.527
46947SOL    HW142680  10.289  13.454  11.435
46947SOL    HW242681  10.390  13.515  11.530
46948SOL     OW42682   5.276   3.154  11.727
46948SOL    HW142683   5.335   3.222  11.759
46948SOL    HW242684   5.204   3.203  11.686
46949SOL     OW42685   8.256   4.087   4.051
46949SOL    HW142686   8.224   4.021   4.113
46949SOL    HW242687   8.332   4.124   4.095
46950SOL     OW42688  13.468  14.265  14.088
46950SOL    HW142689  13.421  14.182  14.099
46950SOL    HW242690  13.467  14.304  14.176
46951SOL     OW42691  12.077   8.288   6.555
46951SOL    HW142692  12.039   8.206   6.587
46951SOL    HW242693  12.149   8.260   6.499
46952SOL     OW42694  11.762   1.584   8.405
46952SOL    HW142695  11.812   1.663   8.385
46952SOL    HW242696  11.797   1.518   8.346
46953SOL     OW42697  11.479   3.295  11.997
46953SOL    HW142698  11.413   3.226  11.989
46953SOL    HW242699  11.462   3.334  12.083
46954SOL     OW42700   3.190   4.818   0.856
46954SOL    HW142701   3.195   4.913   0.871
46954SOL    HW242702   3.205   4.780   0.942
46955SOL     OW42703   4.155  10.351  10.808
46955SOL    HW142704   4.229  10.360  10.868
46955SOL    HW242705   4.148  10.256  10.794
46956SOL     OW42706   5.388   7.402  10.361
46956SOL    HW142707   5.472   7.431  10.396
46956SOL    HW242708   5.331   7.478  10.369
46957SOL     OW42709  14.373   4.544   3.288
46957SOL    HW142710  14.355   4.478   3.355
46957SOL    HW242711  14.287   4.575   3.261
46958SOL     OW42712   0.725  10.218   1.651
46958SOL    HW142713   0.782  10.210   1.726
46958SOL    HW242714   0.784  10.233   1.577
46959SOL     OW42715  14.809   0.020  13.767
46959SOL    HW142716  14.817  14.868  13.857
46959SOL    HW242717   0.013  14.876  13.726
46960SOL     OW42718   4.316   0.136   5.656
46960SOL    HW142719   4.292   0.177   5.739
46960SOL    HW242720   4.397   0.089   5.675
46961SOL     OW42721  12.919   2.163   9.790
46961SOL    HW142722  12.861   2.106   9.739
46961SOL    HW242723  12.864   2.239   9.812
46962SOL     OW42724   7.474   3.706   1.210
46962SOL    HW142725   7.489   3.790   1.254
46962SOL    HW242726   7.505   3.640   1.272
46963SOL     OW42727   3.019  12.063   8.488
46963SOL    HW142728   3.011  12.108   8.404
46963SOL    HW242729   2.954  11.993   8.485
46964SOL     OW42730   4.704   7.207   8.754
46964SOL    HW142731   4.648   7.189   8.678
46964SOL    HW242732   4.736   7.296   8.739
46965SOL     OW42733   9.199  11.119   7.547
46965SOL    HW142734   9.287  11.092   7.522
46965SOL    HW242735   9.203  11.215   7.551
46966SOL     OW42736   0.877  13.523   9.148
46966SOL    HW142737   0.857  13.601   9.097
46966SOL    HW242738   0.803  13.513   9.208
46967SOL     OW42739  14.134   7.258   3.410
46967SOL    HW142740  14.040   7.243   3.417
46967SOL    HW242741  14.174   7.186   3.460
46968SOL     OW42742   6.708   5.208   7.682
46968SOL    HW142743   6.661   5.141   7.632
46968SOL    HW242744   6.643   5.244   7.742
46969SOL     OW42745   9.270   6.484  12.143
46969SOL    HW142746   9.179   6.505  12.123
46969SOL    HW242747   9.293   6.541  12.217
46970SOL     OW42748   0.711   6.489  11.760
46970SOL    HW142749   0.686   6.449  11.844
46970SOL    HW242750   0.630   6.490  11.709
46971SOL     OW42751  14.640   5.730   9.977
46971SOL    HW142752  14.665   5.710  10.067
46971SOL    HW242753  14.554   5.771   9.984
46972SOL     OW42754   8.665   5.683   5.221
46972SOL    HW142755   8.610   5.746   5.174
46972SOL    HW242756   8.685   5.616   5.156
46973SOL     OW42757   3.740   6.790   9.035
46973SOL    HW142758   3.835   6.793   9.022
46973SOL    HW242759   3.722   6.858   9.100
46974SOL     OW42760   3.463   1.113   2.241
46974SOL    HW142761   3.447   1.067   2.324
46974SOL    HW242762   3.530   1.177   2.262
46975SOL     OW42763  10.402   6.317   7.205
46975SOL    HW142764  10.490   6.335   7.172
46975SOL    HW242765  10.344   6.352   7.138
46976SOL     OW42766  14.192  11.108  12.901
46976SOL    HW142767  14.107  11.088  12.940
46976SOL    HW242768  14.225  11.023  12.872
46977SOL     OW42769   3.235   3.959   4.511
46977SOL    HW142770   3.211   3.894   4.577
46977SOL    HW242771   3.154   4.007   4.493
46978SOL     OW42772   1.579   0.842  12.907
46978SOL    HW142773   1.644   0.857  12.838
46978SOL    HW242774   1.508   0.795  12.863
46979SOL     OW42775  10.418   4.181  12.722
46979SOL    HW142776  10.333   4.189  12.765
46979SOL    HW242777  10.456   4.101  12.759
46980SOL     OW42778   0.611   4.426   3.491
46980SOL    HW142779   0.594   4.411   3.398
46980SOL    HW242780   0.533   4.394   3.535
46981SOL     OW42781  13.429  13.360   4.226
46981SOL    HW142782  13.512  13.335   4.267
46981SOL    HW242783  13.418  13.298   4.154
46982SOL     OW42784   7.233   4.952   6.306
46982SOL    HW142785   7.290   5.018   6.346
46982SOL    HW242786   7.180   5.001   6.244
46983SOL     OW42787  14.621   8.638  13.241
46983SOL    HW142788  14.624   8.566  13.178
46983SOL    HW242789  14.606   8.716  13.188
46984SOL     OW42790  13.145  10.027  14.108
46984SOL    HW142791  13.068  10.051  14.160
46984SOL    HW242792  13.160  10.103  14.051
46985SOL     OW42793   2.006   1.839   8.232
46985SOL    HW142794   1.978   1.824   8.322
46985SOL    HW242795   2.098   1.815   8.231
46986SOL     OW42796   2.879   6.184  14.052
46986SOL    HW142797   2.802   6.195  14.107
46986SOL    HW242798   2.934   6.121  14.099
46987SOL     OW42799   5.089   7.521   7.995
46987SOL    HW142800   5.062   7.603   7.954
46987SOL    HW242801   5.022   7.503   8.061
46988SOL     OW42802   5.739   2.750   1.392
46988SOL    HW142803   5.794   2.720   1.464
46988SOL    HW242804   5.680   2.813   1.431
46989SOL     OW42805   0.851  11.591   8.952
46989SOL    HW142806   0.782  11.655   8.963
46989SOL    HW242807   0.924  11.624   9.005
46990SOL     OW42808  10.941   1.910   8.802
46990SOL    HW142809  10.946   1.815   8.791
46990SOL    HW242810  10.980   1.945   8.722
46991SOL     OW42811  10.182  12.354   3.625
46991SOL    HW142812  10.094  12.392   3.615
46991SOL    HW242813  10.226  12.374   3.543
46992SOL     OW42814   1.525   2.060   7.296
46992SOL    HW142815   1.457   2.126   7.309
46992SOL    HW242816   1.566   2.051   7.382
46993SOL     OW42817   0.922   9.309  11.137
46993SOL    HW142818   0.951   9.394  11.104
46993SOL    HW242819   1.001   9.269  11.174
46994SOL     OW42820  12.895  12.007   7.886
46994SOL    HW142821  12.801  12.018   7.898
46994SOL    HW242822  12.905  11.982   7.794
46995SOL     OW42823   8.011  12.931   1.864
46995SOL    HW142824   7.931  12.879   1.870
46995SOL    HW242825   8.061  12.891   1.793
46996SOL     OW42826   1.161   3.891   4.385
46996SOL    HW142827   1.217   3.932   4.451
46996SOL    HW242828   1.072   3.910   4.414
46997SOL     OW42829   9.017   5.350   1.563
46997SOL    HW142830   9.095   5.404   1.555
46997SOL    HW242831   9.046   5.271   1.608
46998SOL     OW42832   3.500   1.375   6.210
46998SOL    HW142833   3.523   1.307   6.146
46998SOL    HW242834   3.574   1.376   6.271
46999SOL     OW42835  12.176   5.320  12.048
46999SOL    HW142836  12.242   5.293  11.984
46999SOL    HW242837  12.130   5.392  12.005
47000SOL     OW42838   6.254   9.954   9.190
47000SOL    HW142839   6.307   9.887   9.233
47000SOL    HW242840   6.251   9.927   9.098
47001SOL     OW42841   9.361   4.086   1.866
47001SOL    HW142842   9.276   4.066   1.826
47001SOL    HW242843   9.362   4.035   1.947
47002SOL     OW42844   9.267   7.587  10.620
47002SOL    HW142845   9.173   7.571  10.624
47002SOL    HW242846   9.303   7.534  10.692
47003SOL     OW42847   2.887  10.107  11.251
47003SOL    HW142848   2.934  10.074  11.328
47003SOL    HW242849   2.818  10.042  11.236
47004SOL     OW42850  11.939  13.008  14.674
47004SOL    HW142851  12.022  12.965  14.694
47004SOL    HW242852  11.962  13.071  14.605
47005SOL     OW42853   8.040  13.207   1.776
47005SOL    HW142854   7.946  13.214   1.759
47005SOL    HW242855   8.052  13.116   1.805
47006SOL     OW42856   6.365   8.716   4.725
47006SOL    HW142857   6.321   8.638   4.692
47006SOL    HW242858   6.457   8.703   4.703
47007SOL     OW42859   3.782   7.377   8.180
47007SOL    HW142860   3.740   7.310   8.127
47007SOL    HW242861   3.848   7.330   8.231
47008SOL     OW42862   9.643   3.566  12.436
47008SOL    HW142863   9.551   3.550  12.416
47008SOL    HW242864   9.666   3.643  12.385
47009SOL     OW42865   1.347   0.063  10.364
47009SOL    HW142866   1.255   0.071  10.337
47009SOL    HW242867   1.381  14.871  10.310
47010SOL     OW42868   4.935   2.378  11.903
47010SOL    HW142869   5.015   2.428  11.885
47010SOL    HW242870   4.924   2.322  11.826
47011SOL     OW42871   4.542   0.429   5.102
47011SOL    HW142872   4.562   0.339   5.129
47011SOL    HW242873   4.523   0.421   5.008
47012SOL     OW42874   2.866   8.782   2.333
47012SOL    HW142875   2.916   8.731   2.270
47012SOL    HW242876   2.927   8.799   2.405
47013SOL     OW42877   9.683  11.090   7.986
47013SOL    HW142878   9.709  11.146   8.059
47013SOL    HW242879   9.606  11.133   7.950
47014SOL     OW42880   5.557  13.898   0.124
47014SOL    HW142881   5.567  13.803   0.132
47014SOL    HW242882   5.589  13.919   0.037
47015SOL     OW42883   3.335   7.007   5.501
47015SOL    HW142884   3.431   7.007   5.509
47015SOL    HW242885   3.316   6.933   5.443
47016SOL     OW42886   2.543   7.380  10.901
47016SOL    HW142887   2.532   7.285  10.891
47016SOL    HW242888   2.456   7.412  10.923
47017SOL     OW42889   3.170  13.615   7.665
47017SOL    HW142890   3.243  13.605   7.605
47017SOL    HW242891   3.101  13.657   7.612
47018SOL     OW42892   9.682   8.627   3.968
47018SOL    HW142893   9.612   8.565   3.949
47018SOL    HW242894   9.701   8.668   3.884
47019SOL     OW42895   1.061   4.440   9.349
47019SOL    HW142896   1.080   4.403   9.262
47019SOL    HW242897   1.109   4.383   9.410
47020SOL     OW42898  11.755  11.591   0.955
47020SOL    HW142899  11.754  11.548   0.870
47020SOL    HW242900  11.666  11.581   0.988
47021SOL     OW42901   9.317   4.074   9.438
47021SOL    HW142902   9.236   4.050   9.392
47021SOL    HW242903   9.378   4.003   9.415
47022SOL     OW42904   6.735   1.599   1.791
47022SOL    HW142905   6.686   1.627   1.714
47022SOL    HW242906   6.685   1.525   1.825
47023SOL     OW42907   2.705   7.332   0.904
47023SOL    HW142908   2.777   7.373   0.952
47023SOL    HW242909   2.644   7.305   0.972
47024SOL     OW42910   2.240  12.281   1.529
47024SOL    HW142911   2.187  12.201   1.528
47024SOL    HW242912   2.321  12.255   1.572
47025SOL     OW42913   4.385   1.574   5.569
47025SOL    HW142914   4.361   1.610   5.655
47025SOL    HW242915   4.479   1.588   5.562
47026SOL     OW42916   9.832   9.935   7.958
47026SOL    HW142917   9.746   9.901   7.983
47026SOL    HW242918   9.867   9.972   8.039
47027SOL     OW42919   0.838  11.856   7.878
47027SOL    HW142920   0.776  11.801   7.830
47027SOL    HW242921   0.922  11.811   7.868
47028SOL     OW42922   8.691   3.699   3.286
47028SOL    HW142923   8.628   3.718   3.355
47028SOL    HW242924   8.643   3.716   3.205
47029SOL     OW42925   1.950  14.549   3.652
47029SOL    HW142926   1.947  14.489   3.578
47029SOL    HW242927   1.989  14.629   3.617
47030SOL     OW42928   5.883   2.503  10.212
47030SOL    HW142929   5.963   2.513  10.264
47030SOL    HW242930   5.848   2.591  10.205
47031SOL     OW42931  10.382   7.927   4.893
47031SOL    HW142932  10.394   7.856   4.831
47031SOL    HW242933  10.291   7.955   4.881
47032SOL     OW42934   9.080   9.566  14.183
47032SOL    HW142935   9.156   9.624  14.183
47032SOL    HW242936   9.018   9.609  14.241
47033SOL     OW42937   7.268   3.859   9.810
47033SOL    HW142938   7.231   3.927   9.867
47033SOL    HW242939   7.254   3.891   9.721
47034SOL     OW42940   8.552  11.479   3.308
47034SOL    HW142941   8.511  11.562   3.281
47034SOL    HW242942   8.504  11.412   3.260
47035SOL     OW42943   3.903  10.510   0.248
47035SOL    HW142944   3.843  10.532   0.319
47035SOL    HW242945   3.926  10.418   0.265
47036SOL     OW42946   1.841  10.420   9.315
47036SOL    HW142947   1.758  10.456   9.346
47036SOL    HW242948   1.816  10.366   9.240
47037SOL     OW42949   6.285  12.135   6.815
47037SOL    HW142950   6.233  12.054   6.813
47037SOL    HW242951   6.375  12.105   6.832
47038SOL     OW42952   7.357   1.100  11.821
47038SOL    HW142953   7.328   1.190  11.832
47038SOL    HW242954   7.331   1.076  11.732
47039SOL     OW42955   7.155  12.398  14.065
47039SOL    HW142956   7.181  12.470  14.123
47039SOL    HW242957   7.150  12.437  13.979
47040SOL     OW42958   4.292   3.460   5.151
47040SOL    HW142959   4.333   3.540   5.183
47040SOL    HW242960   4.291   3.401   5.226
47041SOL     OW42961   6.077   9.992   5.127
47041SOL    HW142962   6.111   9.965   5.212
47041SOL    HW242963   6.121   9.934   5.065
47042SOL     OW42964   7.430  12.616   4.618
47042SOL    HW142965   7.401  12.533   4.656
47042SOL    HW242966   7.480  12.657   4.688
47043SOL     OW42967   5.594  13.292   5.136
47043SOL    HW142968   5.511  13.251   5.159
47043SOL    HW242969   5.609  13.356   5.206
47044SOL     OW42970   2.792   5.324  10.639
47044SOL    HW142971   2.726   5.260  10.667
47044SOL    HW242972   2.800   5.310  10.544
47045SOL     OW42973   5.506  11.457   5.248
47045SOL    HW142974   5.495  11.408   5.330
47045SOL    HW242975   5.588  11.423   5.212
47046SOL     OW42976   0.242   2.170  10.496
47046SOL    HW142977   0.192   2.103  10.543
47046SOL    HW242978   0.240   2.246  10.554
47047SOL     OW42979   5.897   0.385  13.066
47047SOL    HW142980   5.825   0.445  13.047
47047SOL    HW242981   5.858   0.298  13.060
47048SOL     OW42982   5.903   9.619  10.307
47048SOL    HW142983   5.962   9.632  10.233
47048SOL    HW242984   5.945   9.551  10.360
47049SOL     OW42985   0.363   4.918  13.377
47049SOL    HW142986   0.295   4.964  13.425
47049SOL    HW242987   0.331   4.828  13.371
47050SOL     OW42988   5.133   7.189  12.714
47050SOL    HW142989   5.083   7.270  12.719
47050SOL    HW242990   5.165   7.176  12.803
47051SOL     OW42991  14.319   3.523   1.602
47051SOL    HW142992  14.346   3.447   1.654
47051SOL    HW242993  14.342   3.501   1.512
47052SOL     OW42994   1.378   6.850  13.899
47052SOL    HW142995   1.305   6.799  13.863
47052SOL    HW242996   1.451   6.789  13.901
47053SOL     OW42997   1.225   0.792   6.094
47053SOL    HW142998   1.244   0.880   6.126
47053SOL    HW242999   1.310   0.756   6.070
47054SOL     OW43000   2.335   6.792   6.924
47054SOL    HW143001   2.286   6.787   7.006
47054SOL    HW243002   2.417   6.836   6.948
47055SOL     OW43003   9.050   9.030   6.802
47055SOL    HW143004   9.049   9.107   6.859
47055SOL    HW243005   9.142   9.020   6.777
47056SOL     OW43006   7.214   8.804   2.403
47056SOL    HW143007   7.151   8.875   2.419
47056SOL    HW243008   7.163   8.724   2.415
47057SOL     OW43009   6.101  11.082  10.980
47057SOL    HW143010   6.032  11.147  10.985
47057SOL    HW243011   6.169  11.114  11.040
47058SOL     OW43012   6.642   2.723  11.377
47058SOL    HW143013   6.642   2.663  11.302
47058SOL    HW243014   6.734   2.730  11.403
47059SOL     OW43015  12.460  14.590  11.579
47059SOL    HW143016  12.536  14.560  11.529
47059SOL    HW243017  12.385  14.568  11.525
47060SOL     OW43018   7.645   4.268  11.230
47060SOL    HW143019   7.733   4.264  11.194
47060SOL    HW243020   7.613   4.355  11.206
47061SOL     OW43021   7.227  10.548  10.273
47061SOL    HW143022   7.276  10.623  10.240
47061SOL    HW243023   7.214  10.492  10.197
47062SOL     OW43024   0.437  12.362   2.497
47062SOL    HW143025   0.392  12.411   2.566
47062SOL    HW243026   0.497  12.305   2.545
47063SOL     OW43027   1.014   7.337   0.330
47063SOL    HW143028   0.951   7.306   0.265
47063SOL    HW243029   1.080   7.385   0.280
47064SOL     OW43030   5.759  14.634   5.549
47064SOL    HW143031   5.796  14.657   5.464
47064SOL    HW243032   5.730  14.543   5.539
47065SOL     OW43033   6.216   5.701   2.621
47065SOL    HW143034   6.169   5.749   2.688
47065SOL    HW243035   6.228   5.614   2.657
47066SOL     OW43036   7.534   7.092   4.353
47066SOL    HW143037   7.530   7.186   4.370
47066SOL    HW243038   7.627   7.071   4.357
47067SOL     OW43039   7.077  12.514   0.222
47067SOL    HW143040   7.049  12.540   0.134
47067SOL    HW243041   7.147  12.575   0.244
47068SOL     OW43042  11.889  11.858   6.133
47068SOL    HW143043  11.889  11.940   6.083
47068SOL    HW243044  11.851  11.794   6.073
47069SOL     OW43045   3.755   0.260   2.951
47069SOL    HW143046   3.741   0.325   2.883
47069SOL    HW243047   3.695   0.189   2.929
47070SOL     OW43048   5.523   4.855   9.825
47070SOL    HW143049   5.445   4.835   9.877
47070SOL    HW243050   5.532   4.950   9.829
47071SOL     OW43051   6.515   7.999   0.742
47071SOL    HW143052   6.458   8.048   0.683
47071SOL    HW243053   6.604   8.023   0.716
47072SOL     OW43054   0.126   6.930   0.553
47072SOL    HW143055   0.198   6.981   0.592
47072SOL    HW243056   0.081   6.892   0.628
47073SOL     OW43057   9.993  13.691   0.186
47073SOL    HW143058   9.994  13.737   0.270
47073SOL    HW243059   9.953  13.606   0.204
47074SOL     OW43060   7.172  12.088  10.203
47074SOL    HW143061   7.123  12.009  10.225
47074SOL    HW243062   7.127  12.124  10.127
47075SOL     OW43063   6.376  14.766  12.326
47075SOL    HW143064   6.429  14.843  12.307
47075SOL    HW243065   6.381  14.756  12.422
47076SOL     OW43066  12.046   8.413   3.905
47076SOL    HW143067  12.007   8.489   3.947
47076SOL    HW243068  12.140   8.434   3.900
47077SOL     OW43069   2.097  11.699   0.935
47077SOL    HW143070   2.112  11.609   0.904
47077SOL    HW243071   2.016  11.726   0.890
47078SOL     OW43072   1.297  11.398  13.300
47078SOL    HW143073   1.244  11.319  13.288
47078SOL    HW243074   1.284  11.422  13.391
47079SOL     OW43075   4.267   3.825  10.027
47079SOL    HW143076   4.269   3.764  10.100
47079SOL    HW243077   4.274   3.769   9.949
47080SOL     OW43078  11.788   0.724   7.480
47080SOL    HW143079  11.866   0.680   7.514
47080SOL    HW243080  11.728   0.727   7.555
47081SOL     OW43081  12.824   2.745  11.466
47081SOL    HW143082  12.764   2.687  11.419
47081SOL    HW243083  12.813   2.830  11.425
47082SOL     OW43084   6.019   8.899   3.307
47082SOL    HW143085   6.098   8.895   3.361
47082SOL    HW243086   6.040   8.847   3.230
47083SOL     OW43087   8.375   3.431  14.822
47083SOL    HW143088   8.438   3.384  14.768
47083SOL    HW243089   8.367   3.517  14.781
47084SOL     OW43090   9.265  13.080  10.738
47084SOL    HW143091   9.239  13.049  10.651
47084SOL    HW243092   9.356  13.051  10.748
47085SOL     OW43093   6.255  10.225   2.182
47085SOL    HW143094   6.223  10.315   2.181
47085SOL    HW243095   6.348  10.233   2.201
47086SOL     OW43096   2.734  10.133   7.055
47086SOL    HW143097   2.652  10.183   7.061
47086SOL    HW243098   2.750  10.123   6.962
47087SOL     OW43099  10.996  10.288   4.255
47087SOL    HW143100  11.056  10.262   4.185
47087SOL    HW243101  11.019  10.232   4.329
47088SOL     OW43102   1.696  14.207   6.798
47088SOL    HW143103   1.652  14.287   6.830
47088SOL    HW243104   1.685  14.211   6.703
47089SOL     OW43105   6.174   6.696   3.128
47089SOL    HW143106   6.088   6.731   3.106
47089SOL    HW243107   6.203   6.747   3.204
47090SOL     OW43108   5.683  12.150   9.073
47090SOL    HW143109   5.702  12.058   9.058
47090SOL    HW243110   5.769  12.191   9.085
47091SOL     OW43111   9.063   1.279  10.475
47091SOL    HW143112   9.125   1.275  10.549
47091SOL    HW243113   9.031   1.370  10.477
47092SOL     OW43114   7.721   0.048   9.162
47092SOL    HW143115   7.806   0.044   9.119
47092SOL    HW243116   7.663  14.874   9.107
47093SOL     OW43117   4.974   6.562  11.587
47093SOL    HW143118   4.912   6.619  11.632
47093SOL    HW243119   4.936   6.551  11.499
47094SOL     OW43120   9.660   4.140   6.609
47094SOL    HW143121   9.712   4.108   6.682
47094SOL    HW243122   9.722   4.145   6.536
47095SOL     OW43123   4.231  11.963  10.514
47095SOL    HW143124   4.232  11.927  10.603
47095SOL    HW243125   4.147  12.010  10.508
47096SOL     OW43126  13.847   8.566   7.764
47096SOL    HW143127  13.773   8.547   7.822
47096SOL    HW243128  13.864   8.484   7.718
47097SOL     OW43129   5.250  11.600  13.579
47097SOL    HW143130   5.314  11.532  13.598
47097SOL    HW243131   5.197  11.565  13.507
47098SOL     OW43132  13.089   8.260  11.175
47098SOL    HW143133  13.131   8.206  11.242
47098SOL    HW243134  13.071   8.199  11.104
47099SOL     OW43135  12.570   1.144  13.931
47099SOL    HW143136  12.633   1.089  13.979
47099SOL    HW243137  12.509   1.082  13.892
47100SOL     OW43138  12.997   0.617   3.871
47100SOL    HW143139  13.086   0.592   3.897
47100SOL    HW243140  12.970   0.681   3.936
47101SOL     OW43141   9.660   9.508   5.452
47101SOL    HW143142   9.715   9.429   5.447
47101SOL    HW243143   9.591   9.485   5.515
47102SOL     OW43144   4.237   3.360  11.567
47102SOL    HW143145   4.248   3.332  11.658
47102SOL    HW243146   4.319   3.336  11.524
47103SOL     OW43147   9.925  13.202   1.823
47103SOL    HW143148   9.871  13.266   1.777
47103SOL    HW243149   9.863  13.148   1.872
47104SOL     OW43150   0.090  13.200   1.183
47104SOL    HW143151   0.028  13.136   1.218
47104SOL    HW243152   0.176  13.162   1.199
47105SOL     OW43153   2.090   5.316   3.133
47105SOL    HW143154   2.072   5.388   3.194
47105SOL    HW243155   2.180   5.290   3.152
47106SOL     OW43156  14.797  11.619  11.053
47106SOL    HW143157   0.007  11.617  11.087
47106SOL    HW243158  14.800  11.680  10.980
47107SOL     OW43159   6.537   8.454  11.465
47107SOL    HW143160   6.597   8.380  11.453
47107SOL    HW243161   6.454   8.423  11.428
47108SOL     OW43162   1.612  11.521   6.186
47108SOL    HW143163   1.542  11.459   6.168
47108SOL    HW243164   1.572  11.607   6.175
47109SOL     OW43165  14.207   4.514  13.560
47109SOL    HW143166  14.152   4.447  13.518
47109SOL    HW243167  14.252   4.557  13.487
47110SOL     OW43168   2.904   4.913   4.784
47110SOL    HW143169   2.923   4.988   4.840
47110SOL    HW243170   2.917   4.837   4.840
47111SOL     OW43171  11.996   8.854   2.883
47111SOL    HW143172  12.042   8.807   2.813
47111SOL    HW243173  11.916   8.886   2.842
47112SOL     OW43174   4.539  10.234  11.962
47112SOL    HW143175   4.532  10.320  11.920
47112SOL    HW243176   4.479  10.179  11.914
47113SOL     OW43177   9.130   8.364   4.867
47113SOL    HW143178   9.155   8.272   4.875
47113SOL    HW243179   9.055   8.374   4.925
47114SOL     OW43180  12.058  10.858   9.205
47114SOL    HW143181  11.980  10.811   9.178
47114SOL    HW243182  12.050  10.867   9.300
47115SOL     OW43183  11.681   7.907   7.677
47115SOL    HW143184  11.689   7.981   7.738
47115SOL    HW243185  11.768   7.899   7.638
47116SOL     OW43186   0.009   4.513   3.081
47116SOL    HW143187  14.804   4.509   3.124
47116SOL    HW243188   0.015   4.603   3.048
47117SOL     OW43189  12.929   4.272   6.921
47117SOL    HW143190  13.011   4.240   6.884
47117SOL    HW243191  12.956   4.337   6.986
47118SOL     OW43192   3.931  13.596   2.707
47118SOL    HW143193   3.859  13.643   2.664
47118SOL    HW243194   4.009  13.646   2.684
47119SOL     OW43195   4.356  12.968  10.040
47119SOL    HW143196   4.319  12.880  10.044
47119SOL    HW243197   4.305  13.017  10.105
47120SOL     OW43198   7.244  14.327   5.944
47120SOL    HW143199   7.305  14.259   5.916
47120SOL    HW243200   7.265  14.402   5.890
47121SOL     OW43201  10.473   0.611   8.611
47121SOL    HW143202  10.379   0.606   8.631
47121SOL    HW243203  10.506   0.524   8.633
47122SOL     OW43204  13.974   9.371  12.751
47122SOL    HW143205  14.055   9.377  12.801
47122SOL    HW243206  13.915   9.320  12.808
47123SOL     OW43207   6.480  10.019  12.312
47123SOL    HW143208   6.535   9.968  12.252
47123SOL    HW243209   6.445  10.090  12.258
47124SOL     OW43210   5.796   3.270  11.677
47124SOL    HW143211   5.765   3.354  11.643
47124SOL    HW243212   5.841   3.292  11.758
47125SOL     OW43213   8.556  11.390   0.488
47125SOL    HW143214   8.511  11.324   0.541
47125SOL    HW243215   8.491  11.415   0.422
47126SOL     OW43216   6.685   5.107  11.799
47126SOL    HW143217   6.660   5.132  11.888
47126SOL    HW243218   6.676   5.011  11.798
47127SOL     OW43219  14.067   9.099   8.960
47127SOL    HW143220  14.082   9.012   8.925
47127SOL    HW243221  14.026   9.084   9.045
47128SOL     OW43222  13.494  12.654   7.971
47128SOL    HW143223  13.463  12.641   8.061
47128SOL    HW243224  13.546  12.734   7.975
47129SOL     OW43225  14.057   2.211   2.491
47129SOL    HW143226  14.131   2.150   2.489
47129SOL    HW243227  13.993   2.169   2.549
47130SOL     OW43228   1.921   8.088   7.740
47130SOL    HW143229   1.989   8.129   7.794
47130SOL    HW243230   1.926   8.133   7.656
47131SOL     OW43231  12.646   6.600  14.497
47131SOL    HW143232  12.577   6.657  14.531
47131SOL    HW243233  12.676   6.642  14.417
47132SOL     OW43234   2.489  10.248  13.660
47132SOL    HW143235   2.583  10.234  13.672
47132SOL    HW243236   2.456  10.164  13.627
47133SOL     OW43237  11.936   9.418   5.057
47133SOL    HW143238  12.010   9.399   5.115
47133SOL    HW243239  11.861   9.373   5.098
47134SOL     OW43240   7.616   0.832   6.160
47134SOL    HW143241   7.545   0.894   6.146
47134SOL    HW243242   7.583   0.749   6.127
47135SOL     OW43243  13.394  10.566   4.166
47135SOL    HW143244  13.446  10.588   4.088
47135SOL    HW243245  13.456  10.522   4.224
47136SOL     OW43246  12.629   0.058   5.597
47136SOL    HW143247  12.583   0.054   5.680
47136SOL    HW243248  12.695  14.869   5.603
47137SOL     OW43249   2.053  13.008   2.722
47137SOL    HW143250   2.140  13.045   2.707
47137SOL    HW243251   2.069  12.928   2.772
47138SOL     OW43252   3.180  10.094  11.759
47138SOL    HW143253   3.184   9.998  11.769
47138SOL    HW243254   3.087  10.111  11.741
47139SOL     OW43255   7.301   6.744   5.260
47139SOL    HW143256   7.359   6.676   5.294
47139SOL    HW243257   7.349   6.781   5.186
47140SOL     OW43258  12.404   8.067   2.927
47140SOL    HW143259  12.339   8.024   2.984
47140SOL    HW243260  12.399   8.019   2.845
47141SOL     OW43261   1.028   1.437   1.761
47141SOL    HW143262   1.111   1.391   1.750
47141SOL    HW243263   1.043   1.522   1.721
47142SOL     OW43264   1.056   6.797   8.270
47142SOL    HW143265   1.047   6.855   8.346
47142SOL    HW243266   1.077   6.712   8.308
47143SOL     OW43267  11.356   4.643   4.229
47143SOL    HW143268  11.401   4.573   4.276
47143SOL    HW243269  11.269   4.608   4.212
47144SOL     OW43270  11.203   5.187   7.568
47144SOL    HW143271  11.243   5.119   7.513
47144SOL    HW243272  11.208   5.266   7.514
47145SOL     OW43273   9.097   0.178   1.334
47145SOL    HW143274   9.060   0.215   1.254
47145SOL    HW243275   9.052   0.226   1.404
47146SOL     OW43276   2.151  12.905   8.278
47146SOL    HW143277   2.135  12.923   8.185
47146SOL    HW243278   2.117  12.982   8.323
47147SOL     OW43279   1.659  13.775   0.058
47147SOL    HW143280   1.742  13.754   0.101
47147SOL    HW243281   1.674  13.753  14.845
47148SOL     OW43282  11.603   4.940   6.807
47148SOL    HW143283  11.528   4.937   6.747
47148SOL    HW243284  11.673   4.897   6.759
47149SOL     OW43285   7.251   7.447   5.928
47149SOL    HW143286   7.214   7.499   5.856
47149SOL    HW243287   7.221   7.358   5.910
47150SOL     OW43288  10.696  13.558   3.210
47150SOL    HW143289  10.753  13.502   3.263
47150SOL    HW243290  10.609  13.520   3.219
47151SOL     OW43291   5.072  14.587   1.872
47151SOL    HW143292   4.976  14.580   1.877
47151SOL    HW243293   5.093  14.553   1.785
47152SOL     OW43294  10.842  11.369  14.628
47152SOL    HW143295  10.846  11.464  14.637
47152SOL    HW243296  10.803  11.338  14.709
47153SOL     OW43297   4.969   3.025  14.486
47153SOL    HW143298   5.001   3.038  14.575
47153SOL    HW243299   4.886   3.073  14.483
47154SOL     OW43300   3.577  10.541   4.418
47154SOL    HW143301   3.508  10.607   4.422
47154SOL    HW243302   3.591  10.526   4.325
47155SOL     OW43303   9.465   5.927  14.190
47155SOL    HW143304   9.542   5.892  14.145
47155SOL    HW243305   9.426   5.851  14.233
47156SOL     OW43306   6.266   2.776   8.860
47156SOL    HW143307   6.253   2.733   8.775
47156SOL    HW243308   6.356   2.810   8.856
47157SOL     OW43309   2.640  12.633   8.031
47157SOL    HW143310   2.731  12.628   8.002
47157SOL    HW243311   2.606  12.545   8.016
47158SOL     OW43312   2.585   4.468  12.809
47158SOL    HW143313   2.601   4.468  12.903
47158SOL    HW243314   2.585   4.560  12.785
47159SOL     OW43315  11.766   2.168   0.749
47159SOL    HW143316  11.817   2.149   0.671
47159SOL    HW243317  11.708   2.239   0.723
47160SOL     OW43318   6.302   7.553   2.132
47160SOL    HW143319   6.348   7.475   2.162
47160SOL    HW243320   6.262   7.589   2.211
47161SOL     OW43321   8.975  12.258   9.502
47161SOL    HW143322   8.973  12.292   9.413
47161SOL    HW243323   8.882  12.253   9.527
47162SOL     OW43324   0.773   5.175   3.449
47162SOL    HW143325   0.776   5.099   3.506
47162SOL    HW243326   0.844   5.231   3.480
47163SOL     OW43327   9.773   1.541   4.232
47163SOL    HW143328   9.732   1.456   4.248
47163SOL    HW243329   9.761   1.589   4.314
47164SOL     OW43330   0.243  10.819   9.324
47164SOL    HW143331   0.186  10.795   9.250
47164SOL    HW243332   0.261  10.912   9.310
47165SOL     OW43333  10.092   8.909  11.493
47165SOL    HW143334  10.010   8.905  11.444
47165SOL    HW243335  10.076   8.857  11.572
47166SOL     OW43336  12.347  10.289   8.807
47166SOL    HW143337  12.442  10.274   8.810
47166SOL    HW243338  12.332  10.359   8.871
47167SOL     OW43339   8.389   7.579   3.952
47167SOL    HW143340   8.376   7.517   4.024
47167SOL    HW243341   8.478   7.614   3.966
47168SOL     OW43342   7.423  12.644   1.239
47168SOL    HW143343   7.416  12.648   1.144
47168SOL    HW243344   7.483  12.571   1.256
47169SOL     OW43345   9.552   3.451   5.103
47169SOL    HW143346   9.530   3.509   5.029
47169SOL    HW243347   9.489   3.474   5.171
47170SOL     OW43348  13.623   8.138   4.696
47170SOL    HW143349  13.538   8.100   4.718
47170SOL    HW243350  13.602   8.224   4.659
47171SOL     OW43351   1.087  11.960  12.678
47171SOL    HW143352   1.179  11.952  12.651
47171SOL    HW243353   1.080  11.903  12.755
47172SOL     OW43354   2.307   8.182   5.845
47172SOL    HW143355   2.354   8.101   5.827
47172SOL    HW243356   2.373   8.242   5.878
47173SOL     OW43357   3.890  11.941   5.491
47173SOL    HW143358   3.823  11.913   5.429
47173SOL    HW243359   3.923  12.024   5.455
47174SOL     OW43360   4.848   7.250   1.757
47174SOL    HW143361   4.889   7.195   1.825
47174SOL    HW243362   4.860   7.340   1.788
47175SOL     OW43363   7.043   4.441  10.619
47175SOL    HW143364   7.074   4.515  10.568
47175SOL    HW243365   6.951   4.461  10.638
47176SOL     OW43366  14.272   1.780   3.104
47176SOL    HW143367  14.262   1.743   3.191
47176SOL    HW243368  14.311   1.866   3.119
47177SOL     OW43369   0.957   2.767   0.495
47177SOL    HW143370   1.023   2.805   0.553
47177SOL    HW243371   0.902   2.713   0.552
47178SOL     OW43372   9.590  10.763   5.130
47178SOL    HW143373   9.674  10.734   5.165
47178SOL    HW243374   9.563  10.691   5.072
47179SOL     OW43375   0.641  12.890   6.571
47179SOL    HW143376   0.622  12.943   6.494
47179SOL    HW243377   0.576  12.917   6.636
47180SOL     OW43378   5.942   6.266   3.277
47180SOL    HW143379   5.991   6.228   3.350
47180SOL    HW243380   6.009   6.296   3.216
47181SOL     OW43381   3.325   5.883   4.666
47181SOL    HW143382   3.413   5.893   4.703
47181SOL    HW243383   3.325   5.938   4.589
47182SOL     OW43384  11.307   6.001  14.277
47182SOL    HW143385  11.322   5.921  14.227
47182SOL    HW243386  11.224   6.036  14.243
47183SOL     OW43387   4.821   9.967  12.070
47183SOL    HW143388   4.799  10.039  12.010
47183SOL    HW243389   4.757   9.976  12.141
47184SOL     OW43390  12.682   0.561   4.527
47184SOL    HW143391  12.637   0.641   4.555
47184SOL    HW243392  12.728   0.587   4.447
47185SOL     OW43393   1.008   9.657   7.306
47185SOL    HW143394   1.036   9.652   7.214
47185SOL    HW243395   1.004   9.751   7.325
47186SOL     OW43396  13.348   4.129   3.025
47186SOL    HW143397  13.369   4.039   3.050
47186SOL    HW243398  13.334   4.125   2.930
47187SOL     OW43399  11.773   8.687   3.475
47187SOL    HW143400  11.711   8.731   3.417
47187SOL    HW243401  11.729   8.605   3.498
47188SOL     OW43402   0.499   3.997   1.119
47188SOL    HW143403   0.564   4.067   1.106
47188SOL    HW243404   0.458   3.986   1.034
47189SOL     OW43405   6.149  13.312   1.226
47189SOL    HW143406   6.067  13.282   1.266
47189SOL    HW243407   6.121  13.359   1.148
47190SOL     OW43408   8.445   7.027   3.009
47190SOL    HW143409   8.391   6.977   3.070
47190SOL    HW243410   8.519   6.970   2.990
47191SOL     OW43411   8.739   0.022   9.777
47191SOL    HW143412   8.727   0.012   9.683
47191SOL    HW243413   8.804  14.836   9.800
47192SOL     OW43414  10.486   7.625   3.731
47192SOL    HW143415  10.438   7.705   3.708
47192SOL    HW243416  10.478   7.570   3.653
47193SOL     OW43417  14.787  14.370  14.835
47193SOL    HW143418  14.694  14.374  14.810
47193SOL    HW243419  14.795  14.288   0.004
47194SOL     OW43420   4.145   5.242  14.721
47194SOL    HW143421   4.095   5.323  14.728
47194SOL    HW243422   4.233   5.271  14.696
47195SOL     OW43423   3.683   7.671   3.448
47195SOL    HW143424   3.638   7.587   3.455
47195SOL    HW243425   3.774   7.651   3.469
47196SOL     OW43426  10.700   6.397   5.976
47196SOL    HW143427  10.689   6.485   6.013
47196SOL    HW243428  10.687   6.409   5.882
47197SOL     OW43429   6.123   4.043   0.764
47197SOL    HW143430   6.167   4.025   0.847
47197SOL    HW243431   6.041   3.994   0.770
47198SOL     OW43432   4.033   1.976   5.564
47198SOL    HW143433   4.105   1.923   5.530
47198SOL    HW243434   3.977   1.992   5.488
47199SOL     OW43435  14.123   3.006   2.253
47199SOL    HW143436  14.053   2.962   2.301
47199SOL    HW243437  14.095   3.004   2.162
47200SOL     OW43438   3.720   1.175  12.513
47200SOL    HW143439   3.709   1.084  12.541
47200SOL    HW243440   3.706   1.227  12.593
47201SOL     OW43441   3.242   1.385   7.007
47201SOL    HW143442   3.331   1.417   7.023
47201SOL    HW243443   3.247   1.345   6.920
47202SOL     OW43444   4.949  12.493   1.014
47202SOL    HW143445   4.894  12.430   1.060
47202SOL    HW243446   4.897  12.574   1.015
47203SOL     OW43447   3.058  13.342   8.373
47203SOL    HW143448   3.087  13.394   8.448
47203SOL    HW243449   3.046  13.405   8.303
47204SOL     OW43450   1.053   2.276   7.589
47204SOL    HW143451   1.046   2.193   7.638
47204SOL    HW243452   0.997   2.336   7.638
47205SOL     OW43453   5.584   8.382   6.102
47205SOL    HW143454   5.654   8.443   6.079
47205SOL    HW243455   5.602   8.359   6.194
47206SOL     OW43456  13.709   2.805   0.082
47206SOL    HW143457  13.791   2.798   0.033
47206SOL    HW243458  13.733   2.853   0.162
47207SOL     OW43459   6.103   6.600   9.184
47207SOL    HW143460   6.127   6.509   9.201
47207SOL    HW243461   6.183   6.641   9.153
47208SOL     OW43462   2.291  14.217   0.491
47208SOL    HW143463   2.306  14.273   0.414
47208SOL    HW243464   2.235  14.269   0.548
47209SOL     OW43465   2.992   6.016  10.122
47209SOL    HW143466   2.924   6.050  10.181
47209SOL    HW243467   3.037   6.095  10.091
47210SOL     OW43468   4.834  10.865  12.973
47210SOL    HW143469   4.752  10.915  12.970
47210SOL    HW243470   4.864  10.862  12.882
47211SOL     OW43471   9.868   7.770   5.780
47211SOL    HW143472   9.884   7.750   5.872
47211SOL    HW243473   9.789   7.721   5.758
47212SOL     OW43474   7.451   4.658  11.366
47212SOL    HW143475   7.361   4.639  11.395
47212SOL    HW243476   7.452   4.752  11.352
47213SOL     OW43477  14.333   7.666   3.350
47213SOL    HW143478  14.261   7.711   3.394
47213SOL    HW243479  14.292   7.591   3.306
47214SOL     OW43480   8.843  11.218   3.320
47214SOL    HW143481   8.814  11.246   3.407
47214SOL    HW243482   8.909  11.151   3.337
47215SOL     OW43483  14.148   4.416   0.364
47215SOL    HW143484  14.139   4.506   0.397
47215SOL    HW243485  14.143   4.361   0.442
47216SOL     OW43486   2.332  13.898   1.032
47216SOL    HW143487   2.361  13.880   0.942
47216SOL    HW243488   2.361  13.823   1.083
47217SOL     OW43489  12.734  14.436   4.820
47217SOL    HW143490  12.652  14.388   4.808
47217SOL    HW243491  12.738  14.455   4.914
47218SOL     OW43492   7.321   5.968   5.442
47218SOL    HW143493   7.279   5.922   5.514
47218SOL    HW243494   7.258   5.964   5.370
47219SOL     OW43495   0.094  11.451  13.048
47219SOL    HW143496   0.160  11.424  12.984
47219SOL    HW243497   0.057  11.531  13.012
47220SOL     OW43498   1.891   5.641  11.471
47220SOL    HW143499   1.846   5.647  11.387
47220SOL    HW243500   1.961   5.705  11.466
47221SOL     OW43501  13.896  13.456   0.022
47221SOL    HW143502  13.834  13.383   0.023
47221SOL    HW243503  13.883  13.500   0.106
47222SOL     OW43504  13.893  13.391   7.204
47222SOL    HW143505  13.816  13.444   7.222
47222SOL    HW243506  13.857  13.310   7.167
47223SOL     OW43507   2.193  13.815   7.925
47223SOL    HW143508   2.125  13.753   7.900
47223SOL    HW243509   2.185  13.886   7.861
47224SOL     OW43510   6.520   2.483   5.028
47224SOL    HW143511   6.582   2.438   4.971
47224SOL    HW243512   6.454   2.519   4.968
47225SOL     OW43513   6.645  12.956  12.869
47225SOL    HW143514   6.676  13.037  12.910
47225SOL    HW243515   6.716  12.893  12.881
47226SOL     OW43516   7.205   5.203   9.696
47226SOL    HW143517   7.193   5.115   9.731
47226SOL    HW243518   7.188   5.261   9.770
47227SOL     OW43519  13.987   1.592   0.431
47227SOL    HW143520  13.936   1.543   0.495
47227SOL    HW243521  13.922   1.627   0.371
47228SOL     OW43522  11.276  12.641  11.343
47228SOL    HW143523  11.255  12.621  11.251
47228SOL    HW243524  11.235  12.725  11.359
47229SOL     OW43525   3.092   0.321  11.536
47229SOL    HW143526   3.049   0.242  11.568
47229SOL    HW243527   3.029   0.359  11.475
47230SOL     OW43528   2.839   1.118   2.438
47230SOL    HW143529   2.874   1.170   2.365
47230SOL    HW243530   2.747   1.142   2.442
47231SOL     OW43531   5.184   4.411  12.514
47231SOL    HW143532   5.207   4.327  12.554
47231SOL    HW243533   5.268   4.452  12.493
47232SOL     OW43534   5.595   5.581   0.848
47232SOL    HW143535   5.666   5.612   0.905
47232SOL    HW243536   5.521   5.638   0.868
47233SOL     OW43537   4.381   9.184   7.617
47233SOL    HW143538   4.321   9.132   7.564
47233SOL    HW243539   4.368   9.153   7.707
47234SOL     OW43540  11.399   1.307   1.511
47234SOL    HW143541  11.413   1.263   1.595
47234SOL    HW243542  11.304   1.310   1.501
47235SOL     OW43543  10.527   2.401   0.590
47235SOL    HW143544  10.439   2.402   0.626
47235SOL    HW243545  10.566   2.483   0.618
47236SOL     OW43546   0.614  10.080   6.539
47236SOL    HW143547   0.533  10.030   6.534
47236SOL    HW243548   0.649  10.077   6.450
47237SOL     OW43549  13.026   2.436   5.502
47237SOL    HW143550  12.980   2.488   5.568
47237SOL    HW243551  13.118   2.463   5.511
47238SOL     OW43552   7.269   6.007  10.143
47238SOL    HW143553   7.308   5.976  10.225
47238SOL    HW243554   7.311   5.954  10.075
47239SOL     OW43555   1.345  11.279   0.121
47239SOL    HW143556   1.251  11.290   0.137
47239SOL    HW243557   1.370  11.204   0.175
47240SOL     OW43558  11.298   8.148  10.107
47240SOL    HW143559  11.382   8.146  10.153
47240SOL    HW243560  11.321   8.138  10.015
47241SOL     OW43561  13.359   2.682   1.893
47241SOL    HW143562  13.398   2.637   1.819
47241SOL    HW243563  13.311   2.614   1.941
47242SOL     OW43564  13.117   7.048  12.471
47242SOL    HW143565  13.190   7.107  12.489
47242SOL    HW243566  13.064   7.094  12.405
47243SOL     OW43567   8.192   1.951   2.624
47243SOL    HW143568   8.157   1.917   2.541
47243SOL    HW243569   8.129   2.019   2.650
47244SOL     OW43570  14.736   1.214  13.205
47244SOL    HW143571  14.796   1.264  13.261
47244SOL    HW243572  14.786   1.200  13.124
47245SOL     OW43573  10.642  11.616   4.897
47245SOL    HW143574  10.584  11.543   4.873
47245SOL    HW243575  10.588  11.670   4.955
47246SOL     OW43576   0.261  10.599   3.130
47246SOL    HW143577   0.280  10.514   3.090
47246SOL    HW243578   0.317  10.602   3.207
47247SOL     OW43579   5.588   9.898   0.811
47247SOL    HW143580   5.560   9.899   0.720
47247SOL    HW243581   5.580   9.989   0.840
47248SOL     OW43582  11.812   0.854   8.020
47248SOL    HW143583  11.846   0.926   8.074
47248SOL    HW243584  11.860   0.861   7.938
47249SOL     OW43585   9.662  12.314  14.514
47249SOL    HW143586   9.740  12.294  14.566
47249SOL    HW243587   9.654  12.409  14.518
47250SOL     OW43588  10.079  14.797   7.915
47250SOL    HW143589  10.004  14.750   7.880
47250SOL    HW243590  10.153  14.737   7.902
47251SOL     OW43591  14.866  14.748   9.584
47251SOL    HW143592   0.009  14.655   9.579
47251SOL    HW243593   0.025  14.786   9.505
47252SOL     OW43594  11.855   2.443   6.155
47252SOL    HW143595  11.766   2.465   6.128
47252SOL    HW243596  11.899   2.528   6.162
47253SOL     OW43597   3.120  10.432   4.748
47253SOL    HW143598   3.160  10.361   4.698
47253SOL    HW243599   3.059  10.473   4.686
47254SOL     OW43600   7.182   6.342  13.237
47254SOL    HW143601   7.248   6.411  13.234
47254SOL    HW243602   7.107   6.378  13.189
47255SOL     OW43603  12.174   7.565   1.076
47255SOL    HW143604  12.170   7.479   1.034
47255SOL    HW243605  12.105   7.616   1.033
47256SOL     OW43606   9.657   8.604  12.370
47256SOL    HW143607   9.695   8.690  12.389
47256SOL    HW243608   9.709   8.542  12.421
47257SOL     OW43609  10.854  14.255   1.335
47257SOL    HW143610  10.851  14.278   1.428
47257SOL    HW243611  10.893  14.332   1.293
47258SOL     OW43612  12.241   3.484   9.499
47258SOL    HW143613  12.274   3.437   9.423
47258SOL    HW243614  12.263   3.429   9.574
47259SOL     OW43615   8.238  11.164   4.046
47259SOL    HW143616   8.252  11.116   3.964
47259SOL    HW243617   8.162  11.219   4.029
47260SOL     OW43618   3.392  13.551  14.422
47260SOL    HW143619   3.446  13.527  14.497
47260SOL    HW243620   3.303  13.526  14.447
47261SOL     OW43621   9.305   7.536  13.973
47261SOL    HW143622   9.301   7.440  13.967
47261SOL    HW243623   9.337   7.553  14.061
47262SOL     OW43624   4.294   2.051  10.285
47262SOL    HW143625   4.384   2.037  10.313
47262SOL    HW243626   4.266   1.967  10.249
47263SOL     OW43627   4.720   8.255   4.290
47263SOL    HW143628   4.810   8.280   4.268
47263SOL    HW243629   4.666   8.312   4.235
47264SOL     OW43630   6.533  13.511   1.942
47264SOL    HW143631   6.548  13.418   1.960
47264SOL    HW243632   6.456  13.533   1.993
47265SOL     OW43633  13.649  13.207  12.538
47265SOL    HW143634  13.589  13.255  12.481
47265SOL    HW243635  13.683  13.136  12.483
47266SOL     OW43636   0.685  10.922   7.846
47266SOL    HW143637   0.741  10.999   7.836
47266SOL    HW243638   0.664  10.919   7.939
47267SOL     OW43639   3.577   3.144   4.687
47267SOL    HW143640   3.619   3.123   4.604
47267SOL    HW243641   3.555   3.237   4.681
47268SOL     OW43642   1.123   4.257  12.098
47268SOL    HW143643   1.115   4.350  12.077
47268SOL    HW243644   1.217   4.239  12.095
47269SOL     OW43645   7.493   9.077  11.968
47269SOL    HW143646   7.502   9.077  11.872
47269SOL    HW243647   7.479   9.169  11.990
47270SOL     OW43648   4.210  10.831  11.147
47270SOL    HW143649   4.180  10.811  11.058
47270SOL    HW243650   4.135  10.873  11.189
47271SOL     OW43651  11.938   1.892   5.350
47271SOL    HW143652  11.885   1.834   5.404
47271SOL    HW243653  11.987   1.946   5.412
47272SOL     OW43654   9.593   7.835   4.597
47272SOL    HW143655   9.538   7.911   4.617
47272SOL    HW243656   9.601   7.789   4.681
47273SOL     OW43657   3.819   4.381   2.879
47273SOL    HW143658   3.820   4.302   2.933
47273SOL    HW243659   3.910   4.410   2.877
47274SOL     OW43660   9.936   9.979   2.032
47274SOL    HW143661   9.989   9.902   2.052
47274SOL    HW243662   9.898  10.004   2.116
47275SOL     OW43663   3.507   2.907  13.805
47275SOL    HW143664   3.418   2.914  13.769
47275SOL    HW243665   3.502   2.833  13.866
47276SOL     OW43666  10.595  11.304  10.067
47276SOL    HW143667  10.508  11.341  10.083
47276SOL    HW243668  10.579  11.221  10.022
47277SOL     OW43669  14.795   0.079   5.963
47277SOL    HW143670  14.750   0.111   5.885
47277SOL    HW243671  14.738   0.102   6.036
47278SOL     OW43672   8.597   7.533  10.518
47278SOL    HW143673   8.604   7.484  10.600
47278SOL    HW243674   8.687   7.556  10.496
47279SOL     OW43675   3.686   6.301   3.131
47279SOL    HW143676   3.672   6.337   3.043
47279SOL    HW243677   3.776   6.324   3.152
47280SOL     OW43678   4.017   6.721   3.561
47280SOL    HW143679   3.922   6.732   3.556
47280SOL    HW243680   4.035   6.704   3.653
47281SOL     OW43681  14.255  10.638  12.705
47281SOL    HW143682  14.207  10.603  12.630
47281SOL    HW243683  14.192  10.633  12.777
47282SOL     OW43684   5.814  11.111   2.539
47282SOL    HW143685   5.750  11.040   2.545
47282SOL    HW243686   5.777  11.182   2.592
47283SOL     OW43687   0.984   8.484   3.782
47283SOL    HW143688   0.936   8.554   3.736
47283SOL    HW243689   0.962   8.404   3.735
47284SOL     OW43690   5.712  12.848   9.595
47284SOL    HW143691   5.753  12.804   9.670
47284SOL    HW243692   5.742  12.798   9.519
47285SOL     OW43693  13.894   4.310   0.659
47285SOL    HW143694  13.822   4.327   0.599
47285SOL    HW243695  13.873   4.224   0.698
47286SOL     OW43696   6.049  10.383   4.766
47286SOL    HW143697   6.026  10.323   4.837
47286SOL    HW243698   6.009  10.345   4.688
47287SOL     OW43699  10.328  10.067   1.111
47287SOL    HW143700  10.397  10.128   1.135
47287SOL    HW243701  10.360   9.982   1.142
47288SOL     OW43702  13.968  12.525   9.547
47288SOL    HW143703  13.941  12.477   9.469
47288SOL    HW243704  14.005  12.458   9.605
47289SOL     OW43705   6.327   8.296   3.482
47289SOL    HW143706   6.342   8.337   3.397
47289SOL    HW243707   6.342   8.367   3.545
47290SOL     OW43708  10.431   8.916   4.901
47290SOL    HW143709  10.372   8.874   4.838
47290SOL    HW243710  10.481   8.844   4.939
47291SOL     OW43711  14.793   4.473   4.004
47291SOL    HW143712  14.840   4.512   3.931
47291SOL    HW243713  14.851   4.486   4.079
47292SOL     OW43714  14.171   4.402  12.428
47292SOL    HW143715  14.167   4.494  12.402
47292SOL    HW243716  14.229   4.401  12.505
47293SOL     OW43717   0.815  14.869  13.085
47293SOL    HW143718   0.735  14.818  13.099
47293SOL    HW243719   0.848   0.005  13.173
47294SOL     OW43720   5.475   4.349  13.712
47294SOL    HW143721   5.445   4.439  13.700
47294SOL    HW243722   5.497   4.319  13.624
47295SOL     OW43723   5.679  12.205   2.019
47295SOL    HW143724   5.745  12.214   2.088
47295SOL    HW243725   5.596  12.217   2.064
47296SOL     OW43726  14.641   5.178   6.093
47296SOL    HW143727  14.660   5.271   6.077
47296SOL    HW243728  14.724   5.141   6.120
47297SOL     OW43729   4.345  12.753  10.971
47297SOL    HW143730   4.347  12.751  10.876
47297SOL    HW243731   4.254  12.776  10.992
47298SOL     OW43732   2.296  14.080   5.252
47298SOL    HW143733   2.350  14.158   5.264
47298SOL    HW243734   2.264  14.086   5.162
47299SOL     OW43735   5.675  12.125  13.649
47299SOL    HW143736   5.682  12.101  13.557
47299SOL    HW243737   5.591  12.169  13.657
47300SOL     OW43738   0.478   3.049   5.906
47300SOL    HW143739   0.569   3.038   5.881
47300SOL    HW243740   0.481   3.085   5.995
47301SOL     OW43741   6.811  12.355   5.098
47301SOL    HW143742   6.715  12.346   5.101
47301SOL    HW243743   6.832  12.352   5.005
47302SOL     OW43744   1.273   6.576   6.166
47302SOL    HW143745   1.236   6.612   6.247
47302SOL    HW243746   1.338   6.513   6.197
47303SOL     OW43747   0.736   4.756   9.899
47303SOL    HW143748   0.713   4.797   9.816
47303SOL    HW243749   0.692   4.671   9.897
47304SOL     OW43750   8.415   9.687  14.570
47304SOL    HW143751   8.503   9.723  14.578
47304SOL    HW243752   8.397   9.646  14.655
47305SOL     OW43753   6.468   2.425   2.855
47305SOL    HW143754   6.407   2.462   2.791
47305SOL    HW243755   6.436   2.459   2.940
47306SOL     OW43756   2.319  13.682   9.901
47306SOL    HW143757   2.310  13.688   9.996
47306SOL    HW243758   2.406  13.643   9.888
47307SOL     OW43759   1.641  13.238   1.700
47307SOL    HW143760   1.562  13.265   1.748
47307SOL    HW243761   1.691  13.186   1.763
47308SOL     OW43762   0.236   0.801  10.886
47308SOL    HW143763   0.261   0.787  10.794
47308SOL    HW243764   0.143   0.822  10.882
47309SOL     OW43765  12.267   8.307   7.923
47309SOL    HW143766  12.331   8.365   7.880
47309SOL    HW243767  12.317   8.229   7.946
47310SOL     OW43768  11.974  11.867   7.098
47310SOL    HW143769  12.045  11.881   7.160
47310SOL    HW243770  11.986  11.936   7.032
47311SOL     OW43771  11.628   4.529  13.349
47311SOL    HW143772  11.690   4.465  13.315
47311SOL    HW243773  11.548   4.515  13.298
47312SOL     OW43774   7.481   2.499   5.709
47312SOL    HW143775   7.519   2.568   5.654
47312SOL    HW243776   7.421   2.545   5.767
47313SOL     OW43777  13.062   6.037   6.724
47313SOL    HW143778  13.033   5.952   6.689
47313SOL    HW243779  13.120   6.014   6.796
47314SOL     OW43780  10.123   2.049   7.653
47314SOL    HW143781  10.198   1.994   7.675
47314SOL    HW243782  10.161   2.135   7.633
47315SOL     OW43783   2.845  14.491   5.605
47315SOL    HW143784   2.780  14.507   5.536
47315SOL    HW243785   2.887  14.409   5.580
47316SOL     OW43786   3.381   2.488   2.426
47316SOL    HW143787   3.447   2.478   2.358
47316SOL    HW243788   3.344   2.575   2.411
47317SOL     OW43789  10.514  14.685   1.967
47317SOL    HW143790  10.466  14.608   1.998
47317SOL    HW243791  10.606  14.663   1.981
47318SOL     OW43792  12.328  12.728   8.656
47318SOL    HW143793  12.333  12.687   8.742
47318SOL    HW243794  12.243  12.771   8.654
47319SOL     OW43795   8.599   5.939   3.287
47319SOL    HW143796   8.687   5.930   3.324
47319SOL    HW243797   8.586   6.033   3.277
47320SOL     OW43798  13.369   8.646   3.621
47320SOL    HW143799  13.427   8.578   3.587
47320SOL    HW243800  13.422   8.726   3.618
47321SOL     OW43801  10.217   5.456   8.533
47321SOL    HW143802  10.198   5.408   8.452
47321SOL    HW243803  10.156   5.529   8.533
47322SOL     OW43804   8.053  10.794   9.561
47322SOL    HW143805   8.072  10.869   9.505
47322SOL    HW243806   7.963  10.769   9.539
47323SOL     OW43807   5.307   0.811   0.065
47323SOL    HW143808   5.302   0.906   0.053
47323SOL    HW243809   5.390   0.796   0.110
47324SOL     OW43810  11.864  14.568   6.665
47324SOL    HW143811  11.872  14.476   6.640
47324SOL    HW243812  11.798  14.568   6.735
47325SOL     OW43813   5.782   1.919   0.564
47325SOL    HW143814   5.713   1.927   0.630
47325SOL    HW243815   5.790   2.007   0.527
47326SOL     OW43816  10.012   1.151  12.994
47326SOL    HW143817  10.080   1.212  13.021
47326SOL    HW243818  10.059   1.069  12.976
47327SOL     OW43819   3.811   2.093   7.708
47327SOL    HW143820   3.771   2.030   7.768
47327SOL    HW243821   3.793   2.179   7.748
47328SOL     OW43822   1.349   4.474   5.753
47328SOL    HW143823   1.371   4.464   5.845
47328SOL    HW243824   1.332   4.567   5.742
47329SOL     OW43825   4.934  13.017  12.948
47329SOL    HW143826   5.028  13.028  12.930
47329SOL    HW243827   4.921  13.059  13.033
47330SOL     OW43828   3.254   6.409   1.786
47330SOL    HW143829   3.248   6.495   1.827
47330SOL    HW243830   3.199   6.415   1.709
47331SOL     OW43831   9.992   0.434  11.614
47331SOL    HW143832   9.973   0.520  11.579
47331SOL    HW243833   9.975   0.374  11.542
47332SOL     OW43834   9.252  13.538   1.589
47332SOL    HW143835   9.159  13.559   1.591
47332SOL    HW243836   9.293  13.614   1.547
47333SOL     OW43837   8.073   0.945  14.580
47333SOL    HW143838   8.010   0.926  14.511
47333SOL    HW243839   8.026   0.927  14.661
47334SOL     OW43840   6.623   3.179   3.747
47334SOL    HW143841   6.541   3.171   3.698
47334SOL    HW243842   6.632   3.273   3.764
47335SOL     OW43843   4.253   4.876  14.108
47335SOL    HW143844   4.195   4.821  14.161
47335SOL    HW243845   4.257   4.959  14.155
47336SOL     OW43846   2.928   5.310   2.711
47336SOL    HW143847   2.889   5.269   2.788
47336SOL    HW243848   2.983   5.380   2.746
47337SOL     OW43849   8.081   0.358  12.033
47337SOL    HW143850   8.022   0.337  11.960
47337SOL    HW243851   8.163   0.314  12.011
47338SOL     OW43852  14.040  11.640  10.774
47338SOL    HW143853  14.037  11.580  10.700
47338SOL    HW243854  14.132  11.665  10.781
47339SOL     OW43855   3.991   5.749   6.904
47339SOL    HW143856   3.911   5.704   6.930
47339SOL    HW243857   4.027   5.783   6.987
47340SOL     OW43858  10.369   0.614   0.908
47340SOL    HW143859  10.434   0.547   0.886
47340SOL    HW243860  10.352   0.601   1.002
47341SOL     OW43861   5.398  12.866  11.612
47341SOL    HW143862   5.371  12.939  11.556
47341SOL    HW243863   5.439  12.804  11.553
47342SOL     OW43864   1.395   8.576  11.849
47342SOL    HW143865   1.439   8.493  11.830
47342SOL    HW243866   1.334   8.587  11.775
47343SOL     OW43867  14.652   1.104   7.642
47343SOL    HW143868  14.677   1.016   7.669
47343SOL    HW243869  14.659   1.102   7.546
47344SOL     OW43870   3.883   4.047   7.322
47344SOL    HW143871   3.836   4.021   7.402
47344SOL    HW243872   3.815   4.052   7.255
47345SOL     OW43873   5.564  10.425  14.102
47345SOL    HW143874   5.611  10.435  14.185
47345SOL    HW243875   5.510  10.504  14.096
47346SOL     OW43876   4.421  10.496   8.891
47346SOL    HW143877   4.482  10.426   8.914
47346SOL    HW243878   4.448  10.524   8.803
47347SOL     OW43879   3.202   5.693   3.339
47347SOL    HW143880   3.167   5.781   3.349
47347SOL    HW243881   3.297   5.704   3.336
47348SOL     OW43882   3.632   5.000   5.320
47348SOL    HW143883   3.560   5.050   5.281
47348SOL    HW243884   3.696   5.067   5.345
47349SOL     OW43885   6.013   1.297   2.658
47349SOL    HW143886   6.043   1.386   2.675
47349SOL    HW243887   6.077   1.262   2.595
47350SOL     OW43888  10.489   7.467   1.270
47350SOL    HW143889  10.412   7.518   1.245
47350SOL    HW243890  10.482   7.386   1.220
47351SOL     OW43891   4.978   7.362   3.273
47351SOL    HW143892   4.954   7.275   3.240
47351SOL    HW243893   5.055   7.386   3.221
47352SOL     OW43894  10.754   0.339   0.662
47352SOL    HW143895  10.688   0.408   0.660
47352SOL    HW243896  10.784   0.337   0.752
47353SOL     OW43897   0.826  14.120  11.300
47353SOL    HW143898   0.912  14.158  11.284
47353SOL    HW243899   0.783  14.121  11.215
47354SOL     OW43900  13.573   4.256   6.529
47354SOL    HW143901  13.563   4.166   6.561
47354SOL    HW243902  13.646   4.252   6.468
47355SOL     OW43903   2.167   9.408   4.323
47355SOL    HW143904   2.073   9.425   4.314
47355SOL    HW243905   2.184   9.416   4.417
47356SOL     OW43906   8.125  13.461   7.704
47356SOL    HW143907   8.171  13.462   7.620
47356SOL    HW243908   8.040  13.422   7.685
47357SOL     OW43909   6.919   4.994  13.765
47357SOL    HW143910   7.002   4.985  13.811
47357SOL    HW243911   6.896   4.905  13.739
47358SOL     OW43912   0.775   5.333  11.394
47358SOL    HW143913   0.727   5.257  11.363
47358SOL    HW243914   0.738   5.352  11.480
47359SOL     OW43915  12.937   8.842   9.497
47359SOL    HW143916  12.883   8.898   9.441
47359SOL    HW243917  12.989   8.902   9.549
47360SOL     OW43918   6.700  12.372   8.071
47360SOL    HW143919   6.685  12.368   8.165
47360SOL    HW243920   6.656  12.452   8.043
47361SOL     OW43921  13.024   4.475   4.825
47361SOL    HW143922  13.077   4.397   4.807
47361SOL    HW243923  12.943   4.440   4.862
47362SOL     OW43924  12.407   8.264   6.624
47362SOL    HW143925  12.371   8.256   6.535
47362SOL    HW243926  12.337   8.231   6.680
47363SOL     OW43927  13.991  13.087   9.396
47363SOL    HW143928  14.025  13.153   9.335
47363SOL    HW243929  13.896  13.099   9.393
47364SOL     OW43930  11.337  14.144   8.959
47364SOL    HW143931  11.403  14.195   9.005
47364SOL    HW243932  11.307  14.200   8.888
47365SOL     OW43933   7.866   4.177   7.446
47365SOL    HW143934   7.839   4.264   7.416
47365SOL    HW243935   7.946   4.193   7.497
47366SOL     OW43936   5.458   7.689   2.899
47366SOL    HW143937   5.379   7.713   2.850
47366SOL    HW243938   5.425   7.663   2.985
47367SOL     OW43939   0.811   6.791   9.149
47367SOL    HW143940   0.745   6.852   9.181
47367SOL    HW243941   0.816   6.723   9.215
47368SOL     OW43942   4.978   6.850   6.607
47368SOL    HW143943   5.028   6.884   6.681
47368SOL    HW243944   5.041   6.847   6.535
47369SOL     OW43945   9.975   5.149   8.697
47369SOL    HW143946  10.061   5.183   8.672
47369SOL    HW243947   9.929   5.138   8.614
47370SOL     OW43948   2.741   7.161   7.858
47370SOL    HW143949   2.768   7.071   7.876
47370SOL    HW243950   2.678   7.181   7.928
47371SOL     OW43951   0.263  13.588   7.983
47371SOL    HW143952   0.257  13.562   7.891
47371SOL    HW243953   0.337  13.538   8.017
47372SOL     OW43954   8.628   3.800   6.512
47372SOL    HW143955   8.676   3.817   6.593
47372SOL    HW243956   8.581   3.719   6.529
47373SOL     OW43957   4.032  12.022   1.938
47373SOL    HW143958   3.944  12.017   1.901
47373SOL    HW243959   4.022  12.078   2.015
47374SOL     OW43960  14.071   2.364   4.689
47374SOL    HW143961  14.031   2.447   4.665
47374SOL    HW243962  14.017   2.298   4.643
47375SOL     OW43963   2.101  11.168   0.719
47375SOL    HW143964   2.014  11.139   0.689
47375SOL    HW243965   2.106  11.137   0.809
47376SOL     OW43966  14.464   0.512   1.453
47376SOL    HW143967  14.504   0.429   1.479
47376SOL    HW243968  14.400   0.489   1.386
47377SOL     OW43969   2.856   5.634  11.695
47377SOL    HW143970   2.893   5.721  11.705
47377SOL    HW243971   2.838   5.626  11.601
47378SOL     OW43972   6.721  13.941   6.857
47378SOL    HW143973   6.732  13.861   6.806
47378SOL    HW243974   6.645  13.984   6.818
47379SOL     OW43975   0.223  11.914  11.763
47379SOL    HW143976   0.285  11.987  11.768
47379SOL    HW243977   0.143  11.953  11.728
47380SOL     OW43978  13.772  14.142  13.557
47380SOL    HW143979  13.693  14.156  13.506
47380SOL    HW243980  13.841  14.132  13.492
47381SOL     OW43981  10.745  12.606   5.211
47381SOL    HW143982  10.769  12.518   5.241
47381SOL    HW243983  10.655  12.618   5.242
47382SOL     OW43984   1.111   7.075  10.295
47382SOL    HW143985   1.168   7.135  10.344
47382SOL    HW243986   1.063   7.027  10.363
47383SOL     OW43987   8.128   4.207   3.412
47383SOL    HW143988   8.095   4.290   3.444
47383SOL    HW243989   8.222   4.211   3.426
47384SOL     OW43990   8.869  11.186  12.943
47384SOL    HW143991   8.915  11.120  12.996
47384SOL    HW243992   8.896  11.168  12.853
47385SOL     OW43993   6.423  13.485   8.957
47385SOL    HW143994   6.340  13.483   8.911
47385SOL    HW243995   6.412  13.423   9.029
47386SOL     OW43996   6.015  10.151   6.329
47386SOL    HW143997   6.060  10.105   6.401
47386SOL    HW243998   5.940  10.193   6.371
47387SOL     OW43999   5.872   8.805  12.286
47387SOL    HW144000   5.777   8.793  12.296
47387SOL    HW244001   5.880   8.871  12.217
47388SOL     OW44002  14.489   5.909   6.816
47388SOL    HW144003  14.446   5.890   6.733
47388SOL    HW244004  14.477   5.830   6.869
47389SOL     OW44005   0.206   3.194  10.572
47389SOL    HW144006   0.154   3.124  10.611
47389SOL    HW244007   0.288   3.193  10.620
47390SOL     OW44008   7.640  13.276   3.560
47390SOL    HW144009   7.704  13.209   3.584
47390SOL    HW244010   7.656  13.348   3.622
47391SOL     OW44011  10.780   7.844   6.812
47391SOL    HW144012  10.828   7.839   6.895
47391SOL    HW244013  10.848   7.857   6.746
47392SOL     OW44014   3.594   4.129   5.007
47392SOL    HW144015   3.622   4.168   5.090
47392SOL    HW244016   3.586   4.204   4.948
47393SOL     OW44017  11.602   5.140   9.401
47393SOL    HW144018  11.544   5.212   9.428
47393SOL    HW244019  11.615   5.153   9.307
47394SOL     OW44020   8.821  10.670   1.067
47394SOL    HW144021   8.912  10.689   1.046
47394SOL    HW244022   8.824  10.630   1.154
47395SOL     OW44023   7.184   9.478   2.889
47395SOL    HW144024   7.123   9.551   2.883
47395SOL    HW244025   7.231   9.492   2.971
47396SOL     OW44026   6.323   6.706  13.381
47396SOL    HW144027   6.367   6.631  13.343
47396SOL    HW244028   6.329   6.692  13.476
47397SOL     OW44029   9.515   3.079   4.498
47397SOL    HW144030   9.608   3.096   4.478
47397SOL    HW244031   9.478   3.166   4.511
47398SOL     OW44032   1.282  11.876   6.218
47398SOL    HW144033   1.214  11.849   6.156
47398SOL    HW244034   1.271  11.817   6.292
47399SOL     OW44035   7.028  13.342   9.328
47399SOL    HW144036   7.051  13.412   9.390
47399SOL    HW244037   6.948  13.373   9.286
47400SOL     OW44038   8.187   9.035  13.619
47400SOL    HW144039   8.196   9.125  13.651
47400SOL    HW244040   8.094   9.027  13.597
47401SOL     OW44041   8.566  14.367  13.699
47401SOL    HW144042   8.656  14.356  13.668
47401SOL    HW244043   8.564  14.321  13.783
47402SOL     OW44044  10.610   1.086   7.047
47402SOL    HW144045  10.519   1.105   7.071
47402SOL    HW244046  10.656   1.170   7.057
47403SOL     OW44047   9.904   8.641   4.943
47403SOL    HW144048   9.909   8.588   4.863
47403SOL    HW244049   9.874   8.580   5.010
47404SOL     OW44050  10.130  10.866  10.633
47404SOL    HW144051  10.211  10.818  10.616
47404SOL    HW244052  10.157  10.958  10.633
47405SOL     OW44053   2.499   9.845   6.693
47405SOL    HW144054   2.582   9.804   6.669
47405SOL    HW244055   2.523   9.933   6.722
47406SOL     OW44056   1.764   1.927   6.622
47406SOL    HW144057   1.839   1.938   6.563
47406SOL    HW244058   1.691   1.907   6.563
47407SOL     OW44059  12.088  12.429   5.276
47407SOL    HW144060  12.118  12.368   5.343
47407SOL    HW244061  12.167  12.451   5.226
47408SOL     OW44062  10.482   2.612   4.959
47408SOL    HW144063  10.546   2.599   5.029
47408SOL    HW244064  10.410   2.659   5.001
47409SOL     OW44065   6.711  13.220   1.884
47409SOL    HW144066   6.769  13.272   1.829
47409SOL    HW244067   6.745  13.131   1.877
47410SOL     OW44068  11.982   9.336   4.101
47410SOL    HW144069  11.927   9.324   4.023
47410SOL    HW244070  12.056   9.277   4.088
47411SOL     OW44071   0.712   5.818   9.419
47411SOL    HW144072   0.764   5.737   9.409
47411SOL    HW244073   0.622   5.791   9.401
47412SOL     OW44074   6.678  12.201   8.760
47412SOL    HW144075   6.684  12.277   8.818
47412SOL    HW244076   6.732  12.224   8.685
47413SOL     OW44077   4.508   7.055   5.813
47413SOL    HW144078   4.584   7.059   5.755
47413SOL    HW244079   4.510   6.966   5.849
47414SOL     OW44080   7.543   0.801  13.101
47414SOL    HW144081   7.457   0.844  13.107
47414SOL    HW244082   7.532   0.718  13.147
47415SOL     OW44083   8.514   5.274   8.389
47415SOL    HW144084   8.606   5.256   8.407
47415SOL    HW244085   8.480   5.310   8.471
47416SOL     OW44086   1.517   8.350   9.347
47416SOL    HW144087   1.522   8.434   9.302
47416SOL    HW244088   1.445   8.360   9.409
47417SOL     OW44089   5.237   8.535   1.924
47417SOL    HW144090   5.226   8.542   1.829
47417SOL    HW244091   5.157   8.492   1.954
47418SOL     OW44092   3.682   2.576  10.658
47418SOL    HW144093   3.774   2.603  10.665
47418SOL    HW244094   3.674   2.504  10.721
47419SOL     OW44095  13.356  11.456   0.783
47419SOL    HW144096  13.345  11.415   0.697
47419SOL    HW244097  13.375  11.383   0.842
47420SOL     OW44098   1.698  14.053  12.516
47420SOL    HW144099   1.699  14.036  12.421
47420SOL    HW244100   1.788  14.037  12.544
47421SOL     OW44101  10.383   7.315  14.802
47421SOL    HW144102  10.417   7.235  14.761
47421SOL    HW244103  10.444   7.334  14.873
47422SOL     OW44104   0.923   0.185  14.690
47422SOL    HW144105   0.852   0.218  14.745
47422SOL    HW244106   0.904   0.092  14.679
47423SOL     OW44107   5.858   1.630  12.175
47423SOL    HW144108   5.780   1.625  12.229
47423SOL    HW244109   5.931   1.623  12.237
47424SOL     OW44110   9.730   2.813  13.460
47424SOL    HW144111   9.745   2.788  13.369
47424SOL    HW244112   9.635   2.825  13.467
47425SOL     OW44113   5.977   4.055   1.732
47425SOL    HW144114   5.994   4.126   1.794
47425SOL    HW244115   5.882   4.045   1.733
47426SOL     OW44116   8.607  13.785   8.963
47426SOL    HW144117   8.683  13.844   8.968
47426SOL    HW244118   8.644  13.701   8.935
47427SOL     OW44119  14.341   5.679  10.476
47427SOL    HW144120  14.313   5.602  10.526
47427SOL    HW244121  14.300   5.668  10.390
47428SOL     OW44122   4.257   4.674   1.564
47428SOL    HW144123   4.188   4.661   1.630
47428SOL    HW244124   4.223   4.744   1.508
47429SOL     OW44125  14.089   6.471   9.950
47429SOL    HW144126  14.005   6.427   9.937
47429SOL    HW244127  14.147   6.402   9.981
47430SOL     OW44128   9.218   8.692  13.407
47430SOL    HW144129   9.160   8.699  13.483
47430SOL    HW244130   9.213   8.600  13.381
47431SOL     OW44131   1.960   1.179   8.792
47431SOL    HW144132   2.053   1.193   8.812
47431SOL    HW244133   1.938   1.245   8.727
47432SOL     OW44134   3.008   6.745  14.732
47432SOL    HW144135   2.986   6.698  14.651
47432SOL    HW244136   3.089   6.705  14.762
47433SOL     OW44137   1.096   2.461  14.418
47433SOL    HW144138   1.174   2.480  14.470
47433SOL    HW244139   1.023   2.474  14.479
47434SOL     OW44140  12.895  14.831   4.778
47434SOL    HW144141  12.921   0.041   4.795
47434SOL    HW244142  12.856  14.801   4.861
47435SOL     OW44143   6.710   1.281  12.531
47435SOL    HW144144   6.753   1.281  12.446
47435SOL    HW244145   6.647   1.208  12.526
47436SOL     OW44146   0.843   8.073   5.470
47436SOL    HW144147   0.766   8.129   5.460
47436SOL    HW244148   0.811   7.995   5.515
47437SOL     OW44149  11.498  12.898   3.821
47437SOL    HW144150  11.495  12.855   3.735
47437SOL    HW244151  11.508  12.825   3.883
47438SOL     OW44152   3.283   4.394  13.711
47438SOL    HW144153   3.367   4.364  13.677
47438SOL    HW244154   3.232   4.418  13.634
47439SOL     OW44155  12.481   5.720  13.812
47439SOL    HW144156  12.504   5.630  13.838
47439SOL    HW244157  12.525   5.775  13.877
47440SOL     OW44158   5.277   4.717   0.176
47440SOL    HW144159   5.230   4.738   0.095
47440SOL    HW244160   5.297   4.803   0.215
47441SOL     OW44161   9.003  12.812  12.395
47441SOL    HW144162   9.071  12.849  12.451
47441SOL    HW244163   8.943  12.769  12.456
47442SOL     OW44164   5.739   9.908   8.864
47442SOL    HW144165   5.750   9.819   8.898
47442SOL    HW244166   5.650   9.932   8.889
47443SOL     OW44167   5.682   6.576   8.750
47443SOL    HW144168   5.736   6.606   8.824
47443SOL    HW244169   5.630   6.653   8.726
47444SOL     OW44170   6.452   2.552   1.835
47444SOL    HW144171   6.494   2.638   1.838
47444SOL    HW244172   6.496   2.507   1.763
47445SOL     OW44173   1.986  13.121   1.623
47445SOL    HW144174   1.945  13.194   1.576
47445SOL    HW244175   1.944  13.121   1.709
47446SOL     OW44176  10.061  14.140   6.116
47446SOL    HW144177  10.072  14.112   6.207
47446SOL    HW244178  10.126  14.210   6.104
47447SOL     OW44179   6.263   7.085  12.044
47447SOL    HW144180   6.248   6.992  12.060
47447SOL    HW244181   6.213   7.104  11.965
47448SOL     OW44182   4.651   2.213   6.061
47448SOL    HW144183   4.678   2.137   6.113
47448SOL    HW244184   4.556   2.220   6.076
47449SOL     OW44185   6.038   7.626  12.227
47449SOL    HW144186   5.955   7.674  12.225
47449SOL    HW244187   6.067   7.625  12.136
47450SOL     OW44188   8.137   6.750  14.290
47450SOL    HW144189   8.077   6.796  14.349
47450SOL    HW244190   8.187   6.692  14.347
47451SOL     OW44191   8.884   5.383   0.813
47451SOL    HW144192   8.887   5.339   0.898
47451SOL    HW244193   8.975   5.397   0.790
47452SOL     OW44194   8.907  13.832  14.781
47452SOL    HW144195   8.935  13.907  14.834
47452SOL    HW244196   8.812  13.844  14.771
47453SOL     OW44197   7.265  13.910   7.491
47453SOL    HW144198   7.317  13.878   7.417
47453SOL    HW244199   7.182  13.863   7.485
47454SOL     OW44200   9.393  12.294  10.286
47454SOL    HW144201   9.468  12.235  10.288
47454SOL    HW244202   9.342  12.264  10.211
47455SOL     OW44203  13.052  12.087   8.546
47455SOL    HW144204  13.111  12.015   8.525
47455SOL    HW244205  13.096  12.133   8.618
47456SOL     OW44206   4.323   0.782   4.402
47456SOL    HW144207   4.317   0.688   4.385
47456SOL    HW244208   4.329   0.789   4.497
47457SOL     OW44209   5.280   1.582  11.264
47457SOL    HW144210   5.264   1.667  11.223
47457SOL    HW244211   5.358   1.595  11.317
47458SOL     OW44212   8.892   9.970   5.680
47458SOL    HW144213   8.951   9.941   5.611
47458SOL    HW244214   8.947  10.023   5.737
47459SOL     OW44215   4.011   4.543  13.287
47459SOL    HW144216   3.959   4.540  13.207
47459SOL    HW244217   3.960   4.493  13.351
47460SOL     OW44218  14.424   8.874   3.547
47460SOL    HW144219  14.405   8.840   3.460
47460SOL    HW244220  14.486   8.946   3.532
47461SOL     OW44221  14.598  12.790   8.684
47461SOL    HW144222  14.691  12.802   8.703
47461SOL    HW244223  14.589  12.810   8.591
47462SOL     OW44224  11.608  13.888   3.249
47462SOL    HW144225  11.615  13.796   3.224
47462SOL    HW244226  11.594  13.935   3.167
47463SOL     OW44227   8.441   9.655   4.855
47463SOL    HW144228   8.459   9.606   4.935
47463SOL    HW244229   8.499   9.731   4.859
47464SOL     OW44230   8.265   5.999  10.053
47464SOL    HW144231   8.279   6.059   9.980
47464SOL    HW244232   8.205   6.046  10.111
47465SOL     OW44233   8.890   9.995  14.661
47465SOL    HW144234   8.911   9.918  14.607
47465SOL    HW244235   8.966  10.004  14.719
47466SOL     OW44236   3.543   1.754   3.644
47466SOL    HW144237   3.615   1.694   3.624
47466SOL    HW244238   3.567   1.793   3.728
47467SOL     OW44239  14.405  13.086   7.799
47467SOL    HW144240  14.367  13.005   7.834
47467SOL    HW244241  14.416  13.142   7.876
47468SOL     OW44242   8.548  14.415   6.178
47468SOL    HW144243   8.511  14.496   6.214
47468SOL    HW244244   8.579  14.439   6.091
47469SOL     OW44245   3.039   2.669   9.561
47469SOL    HW144246   3.063   2.745   9.509
47469SOL    HW244247   3.100   2.600   9.533
47470SOL     OW44248  14.529  10.637  12.668
47470SOL    HW144249  14.433  10.627  12.662
47470SOL    HW244250  14.559  10.637  12.577
47471SOL     OW44251   8.313  14.566   6.558
47471SOL    HW144252   8.407  14.573   6.573
47471SOL    HW244253   8.287  14.485   6.601
47472SOL     OW44254   9.812   3.167  12.385
47472SOL    HW144255   9.820   3.073  12.400
47472SOL    HW244256   9.741   3.195  12.442
47473SOL     OW44257   3.391   4.774   7.355
47473SOL    HW144258   3.341   4.788   7.436
47473SOL    HW244259   3.472   4.733   7.383
47474SOL     OW44260   5.626  13.019  10.133
47474SOL    HW144261   5.574  13.048  10.059
47474SOL    HW244262   5.696  12.967  10.094
47475SOL     OW44263   9.137   9.252   5.239
47475SOL    HW144264   9.088   9.333   5.247
47475SOL    HW244265   9.072   9.186   5.217
47476SOL     OW44266   8.766   0.866   7.781
47476SOL    HW144267   8.753   0.793   7.721
47476SOL    HW244268   8.750   0.944   7.727
47477SOL     OW44269   4.104   9.953  12.563
47477SOL    HW144270   4.121  10.014  12.492
47477SOL    HW244271   4.186   9.951  12.614
47478SOL     OW44272   8.038  12.237   2.795
47478SOL    HW144273   8.006  12.312   2.845
47478SOL    HW244274   7.974  12.167   2.812
47479SOL     OW44275   3.697   4.276   2.198
47479SOL    HW144276   3.726   4.190   2.166
47479SOL    HW244277   3.651   4.257   2.280
47480SOL     OW44278  11.787   2.715  10.215
47480SOL    HW144279  11.753   2.719  10.126
47480SOL    HW244280  11.845   2.791  10.222
47481SOL     OW44281  13.482   3.010  12.795
47481SOL    HW144282  13.491   2.976  12.884
47481SOL    HW244283  13.467   2.932  12.741
47482SOL     OW44284  11.600   1.757   2.637
47482SOL    HW144285  11.681   1.780   2.591
47482SOL    HW244286  11.612   1.793   2.725
47483SOL     OW44287  12.742   3.480   2.274
47483SOL    HW144288  12.659   3.506   2.313
47483SOL    HW244289  12.797   3.455   2.348
47484SOL     OW44290  11.318  13.944   5.851
47484SOL    HW144291  11.300  13.931   5.758
47484SOL    HW244292  11.242  13.994   5.883
47485SOL     OW44293  10.639  11.093   8.648
47485SOL    HW144294  10.701  11.081   8.576
47485SOL    HW244295  10.681  11.157   8.706
47486SOL     OW44296   8.061   3.725  13.788
47486SOL    HW144297   8.093   3.764  13.706
47486SOL    HW244298   8.132   3.740  13.851
47487SOL     OW44299   8.334   9.129  14.066
47487SOL    HW144300   8.252   9.094  14.099
47487SOL    HW244301   8.325   9.224  14.075
47488SOL     OW44302   2.500   4.892   6.812
47488SOL    HW144303   2.506   4.946   6.891
47488SOL    HW244304   2.503   4.954   6.740
47489SOL     OW44305   1.974  10.411   0.132
47489SOL    HW144306   1.928  10.327   0.129
47489SOL    HW244307   1.998  10.429   0.041
47490SOL     OW44308  11.729   2.440   8.857
47490SOL    HW144309  11.785   2.448   8.934
47490SOL    HW244310  11.654   2.389   8.887
47491SOL     OW44311   8.399   6.145  14.673
47491SOL    HW144312   8.419   6.052  14.680
47491SOL    HW244313   8.484   6.188  14.684
47492SOL     OW44314   3.260   3.688   7.477
47492SOL    HW144315   3.202   3.764   7.472
47492SOL    HW244316   3.331   3.715   7.535
47493SOL     OW44317   0.305   3.794  12.257
47493SOL    HW144318   0.220   3.795  12.300
47493SOL    HW244319   0.312   3.880  12.216
47494SOL     OW44320  14.459   8.966  10.862
47494SOL    HW144321  14.376   8.947  10.819
47494SOL    HW244322  14.511   8.886  10.850
47495SOL     OW44323   3.549   9.596  10.011
47495SOL    HW144324   3.533   9.582   9.918
47495SOL    HW244325   3.571   9.689  10.018
47496SOL     OW44326  10.131   5.763   8.070
47496SOL    HW144327  10.174   5.826   8.128
47496SOL    HW244328  10.057   5.812   8.033
47497SOL     OW44329   1.340   1.096   2.558
47497SOL    HW144330   1.334   1.177   2.506
47497SOL    HW244331   1.252   1.083   2.592
47498SOL     OW44332  13.516   0.823   6.553
47498SOL    HW144333  13.545   0.909   6.585
47498SOL    HW244334  13.587   0.764   6.577
47499SOL     OW44335  14.254   0.677  11.762
47499SOL    HW144336  14.237   0.765  11.729
47499SOL    HW244337  14.197   0.668  11.838
47500SOL     OW44338   1.407   0.069  12.025
47500SOL    HW144339   1.486   0.018  12.006
47500SOL    HW244340   1.419   0.151  11.978
47501SOL     OW44341  12.081   0.852   9.312
47501SOL    HW144342  12.045   0.766   9.293
47501SOL    HW244343  12.061   0.867   9.405
47502SOL     OW44344  12.663   5.510   1.162
47502SOL    HW144345  12.648   5.516   1.257
47502SOL    HW244346  12.750   5.473   1.154
47503SOL     OW44347  11.838  14.162   4.792
47503SOL    HW144348  11.877  14.178   4.706
47503SOL    HW244349  11.840  14.247   4.835
47504SOL     OW44350  13.792  12.234   6.130
47504SOL    HW144351  13.759  12.144   6.133
47504SOL    HW244352  13.809  12.250   6.037
47505SOL     OW44353   2.097   7.844  14.679
47505SOL    HW144354   2.116   7.815  14.768
47505SOL    HW244355   2.158   7.916  14.663
47506SOL     OW44356   6.548   3.712   3.880
47506SOL    HW144357   6.501   3.717   3.797
47506SOL    HW244358   6.480   3.721   3.947
47507SOL     OW44359  13.466   9.061  12.871
47507SOL    HW144360  13.502   9.142  12.907
47507SOL    HW244361  13.498   9.059  12.780
47508SOL     OW44362  14.004  14.810   5.128
47508SOL    HW144363  13.987  14.873   5.199
47508SOL    HW244364  13.928  14.752   5.130
47509SOL     OW44365   6.406   8.061   9.413
47509SOL    HW144366   6.442   8.145   9.444
47509SOL    HW244367   6.368   8.082   9.327
47510SOL     OW44368   5.072   3.358  12.540
47510SOL    HW144369   5.146   3.411  12.512
47510SOL    HW244370   5.102   3.316  12.621
47511SOL     OW44371  11.480  10.156   8.398
47511SOL    HW144372  11.445  10.070   8.424
47511SOL    HW244373  11.448  10.169   8.309
47512SOL     OW44374   1.631   1.590   4.134
47512SOL    HW144375   1.660   1.681   4.126
47512SOL    HW244376   1.562   1.582   4.069
47513SOL     OW44377   3.623   7.133  12.182
47513SOL    HW144378   3.580   7.128  12.268
47513SOL    HW244379   3.708   7.092  12.196
47514SOL     OW44380  13.297  14.377  11.853
47514SOL    HW144381  13.351  14.375  11.932
47514SOL    HW244382  13.359  14.402  11.783
47515SOL     OW44383   4.103  11.343   5.691
47515SOL    HW144384   4.029  11.392   5.656
47515SOL    HW244385   4.109  11.370   5.782
47516SOL     OW44386   2.802  12.757   0.637
47516SOL    HW144387   2.857  12.707   0.577
47516SOL    HW244388   2.772  12.832   0.585
47517SOL     OW44389  13.430  13.677   3.374
47517SOL    HW144390  13.391  13.611   3.432
47517SOL    HW244391  13.365  13.688   3.304
47518SOL     OW44392   3.337   6.299   0.439
47518SOL    HW144393   3.303   6.232   0.499
47518SOL    HW244394   3.345   6.378   0.494
47519SOL     OW44395   6.941   1.688  11.308
47519SOL    HW144396   6.939   1.616  11.244
47519SOL    HW244397   7.035   1.704  11.322
47520SOL     OW44398   4.239   9.115   8.345
47520SOL    HW144399   4.241   9.074   8.431
47520SOL    HW244400   4.294   9.193   8.354
47521SOL     OW44401   2.136  10.890   8.195
47521SOL    HW144402   2.200  10.825   8.166
47521SOL    HW244403   2.168  10.973   8.160
47522SOL     OW44404   2.152  11.520  11.882
47522SOL    HW144405   2.210  11.546  11.812
47522SOL    HW244406   2.200  11.541  11.963
47523SOL     OW44407   9.634   2.729  10.914
47523SOL    HW144408   9.669   2.736  10.826
47523SOL    HW244409   9.621   2.819  10.942
47524SOL     OW44410   1.774  10.371   4.008
47524SOL    HW144411   1.804  10.297   4.062
47524SOL    HW244412   1.845  10.385   3.946
47525SOL     OW44413   4.368  10.620   7.606
47525SOL    HW144414   4.299  10.686   7.601
47525SOL    HW244415   4.445  10.668   7.638
47526SOL     OW44416   0.248   2.300   7.025
47526SOL    HW144417   0.175   2.241   7.047
47526SOL    HW244418   0.326   2.246   7.035
47527SOL     OW44419   0.467   5.422   3.602
47527SOL    HW144420   0.469   5.368   3.681
47527SOL    HW244421   0.376   5.417   3.573
47528SOL     OW44422  13.363   5.024   8.902
47528SOL    HW144423  13.416   5.012   8.981
47528SOL    HW244424  13.424   5.011   8.829
47529SOL     OW44425   0.343  14.382  10.332
47529SOL    HW144426   0.276  14.450  10.335
47529SOL    HW244427   0.343  14.344  10.420
47530SOL     OW44428  14.386   8.847   1.119
47530SOL    HW144429  14.297   8.871   1.094
47530SOL    HW244430  14.438   8.865   1.041
47531SOL     OW44431   3.297   9.539  12.049
47531SOL    HW144432   3.272   9.627  12.021
47531SOL    HW244433   3.220   9.485  12.032
47532SOL     OW44434  11.468   8.527   0.394
47532SOL    HW144435  11.476   8.448   0.342
47532SOL    HW244436  11.412   8.585   0.341
47533SOL     OW44437  11.467  11.446   7.048
47533SOL    HW144438  11.440  11.520   7.103
47533SOL    HW244439  11.473  11.482   6.960
47534SOL     OW44440  10.682  10.295   5.201
47534SOL    HW144441  10.700  10.388   5.193
47534SOL    HW244442  10.632  10.274   5.122
47535SOL     OW44443  13.238   2.263  11.612
47535SOL    HW144444  13.210   2.305  11.694
47535SOL    HW244445  13.249   2.335  11.551
47536SOL     OW44446   6.869   1.643   2.476
47536SOL    HW144447   6.878   1.605   2.389
47536SOL    HW244448   6.847   1.735   2.460
47537SOL     OW44449   4.719   7.404   7.157
47537SOL    HW144450   4.676   7.318   7.157
47537SOL    HW244451   4.647   7.467   7.156
47538SOL     OW44452   1.154   2.074   4.153
47538SOL    HW144453   1.221   2.008   4.134
47538SOL    HW244454   1.079   2.049   4.100
47539SOL     OW44455   4.991  10.233   6.524
47539SOL    HW144456   4.951  10.148   6.541
47539SOL    HW244457   5.042  10.252   6.603
47540SOL     OW44458   6.868  11.950   2.502
47540SOL    HW144459   6.782  11.942   2.461
47540SOL    HW244460   6.926  11.897   2.447
47541SOL     OW44461   6.777  12.576  11.160
47541SOL    HW144462   6.808  12.561  11.070
47541SOL    HW244463   6.847  12.628  11.201
47542SOL     OW44464  11.395  13.360  11.684
47542SOL    HW144465  11.349  13.277  11.666
47542SOL    HW244466  11.457  13.338  11.753
47543SOL     OW44467   1.008   0.342   4.012
47543SOL    HW144468   1.086   0.304   3.972
47543SOL    HW244469   0.959   0.380   3.938
47544SOL     OW44470   4.795   8.794   9.791
47544SOL    HW144471   4.857   8.766   9.724
47544SOL    HW244472   4.823   8.748   9.870
47545SOL     OW44473   9.798   5.148   9.132
47545SOL    HW144474   9.775   5.059   9.104
47545SOL    HW244475   9.881   5.165   9.088
47546SOL     OW44476   8.765  10.744   0.773
47546SOL    HW144477   8.753  10.666   0.718
47546SOL    HW244478   8.784  10.709   0.860
47547SOL     OW44479  13.861   3.452   2.614
47547SOL    HW144480  13.918   3.529   2.620
47547SOL    HW244481  13.904   3.396   2.550
47548SOL     OW44482  14.351   8.256  14.314
47548SOL    HW144483  14.307   8.200  14.250
47548SOL    HW244484  14.384   8.330  14.263
47549SOL     OW44485   2.283   6.797   2.905
47549SOL    HW144486   2.304   6.889   2.922
47549SOL    HW244487   2.292   6.755   2.991
47550SOL     OW44488  11.222   4.950  11.866
47550SOL    HW144489  11.186   4.864  11.890
47550SOL    HW244490  11.256   4.937  11.777
47551SOL     OW44491   5.226  11.977   2.738
47551SOL    HW144492   5.300  12.032   2.712
47551SOL    HW244493   5.165  11.983   2.664
47552SOL     OW44494   6.156   8.370   5.677
47552SOL    HW144495   6.228   8.351   5.617
47552SOL    HW244496   6.144   8.289   5.727
47553SOL     OW44497   5.912   0.068  13.071
47553SOL    HW144498   5.966   0.077  13.149
47553SOL    HW244499   5.960   0.008  13.014
47554SOL     OW44500   8.904   9.959   2.981
47554SOL    HW144501   8.942   9.885   3.028
47554SOL    HW244502   8.917   9.938   2.889
47555SOL     OW44503  10.205   0.187   1.178
47555SOL    HW144504  10.152   0.266   1.175
47555SOL    HW244505  10.143   0.116   1.194
47556SOL     OW44506   7.286   0.514  14.260
47556SOL    HW144507   7.244   0.464  14.330
47556SOL    HW244508   7.273   0.462  14.181
47557SOL     OW44509  11.749   4.132   9.688
47557SOL    HW144510  11.679   4.073   9.717
47557SOL    HW244511  11.707   4.217   9.677
47558SOL     OW44512   9.538  14.437   7.754
47558SOL    HW144513   9.592  14.410   7.829
47558SOL    HW244514   9.600  14.454   7.684
47559SOL     OW44515  14.688   9.161   8.541
47559SOL    HW144516  14.680   9.078   8.493
47559SOL    HW244517  14.749   9.142   8.612
47560SOL     OW44518   5.808   4.968   2.264
47560SOL    HW144519   5.730   5.013   2.295
47560SOL    HW244520   5.847   4.929   2.343
47561SOL     OW44521  14.169   9.101   5.963
47561SOL    HW144522  14.134   9.016   5.990
47561SOL    HW244523  14.199   9.141   6.044
47562SOL     OW44524   1.287   0.823  10.049
47562SOL    HW144525   1.202   0.816  10.005
47562SOL    HW244526   1.351   0.801   9.981
47563SOL     OW44527  10.556  12.495   0.983
47563SOL    HW144528  10.557  12.586   1.014
47563SOL    HW244529  10.612  12.448   1.046
47564SOL     OW44530  11.835   4.030  14.428
47564SOL    HW144531  11.853   3.939  14.407
47564SOL    HW244532  11.822   4.031  14.523
47565SOL     OW44533   7.323   0.397   9.264
47565SOL    HW144534   7.340   0.455   9.338
47565SOL    HW244535   7.404   0.400   9.213
47566SOL     OW44536   1.612   9.510   8.968
47566SOL    HW144537   1.607   9.442   8.901
47566SOL    HW244538   1.652   9.467   9.043
47567SOL     OW44539   5.662   7.660   0.739
47567SOL    HW144540   5.645   7.599   0.667
47567SOL    HW244541   5.757   7.668   0.742
47568SOL     OW44542   9.101  12.826   1.506
47568SOL    HW144543   9.012  12.808   1.536
47568SOL    HW244544   9.107  12.922   1.506
47569SOL     OW44545   6.924  10.641   5.735
47569SOL    HW144546   6.958  10.677   5.653
47569SOL    HW244547   6.979  10.680   5.803
47570SOL     OW44548   5.293   7.527  14.220
47570SOL    HW144549   5.313   7.606  14.269
47570SOL    HW244550   5.231   7.479  14.277
47571SOL     OW44551  13.266   1.247   5.377
47571SOL    HW144552  13.199   1.220   5.314
47571SOL    HW244553  13.316   1.168   5.394
47572SOL     OW44554   7.772   6.372   2.979
47572SOL    HW144555   7.743   6.358   2.889
47572SOL    HW244556   7.866   6.389   2.973
47573SOL     OW44557  10.089   5.344   0.151
47573SOL    HW144558  10.094   5.249   0.160
47573SOL    HW244559   9.996   5.362   0.133
47574SOL     OW44560   0.953  11.049   5.483
47574SOL    HW144561   1.006  11.128   5.493
47574SOL    HW244562   1.014  10.977   5.500
47575SOL     OW44563   5.711  12.038  13.393
47575SOL    HW144564   5.785  12.068  13.340
47575SOL    HW244565   5.709  11.944  13.379
47576SOL     OW44566   9.539   2.937  12.490
47576SOL    HW144567   9.620   2.896  12.462
47576SOL    HW244568   9.476   2.917  12.420
47577SOL     OW44569  10.691   7.020   6.954
47577SOL    HW144570  10.654   6.965   7.022
47577SOL    HW244571  10.676   6.971   6.873
47578SOL     OW44572   5.307   9.952  12.276
47578SOL    HW144573   5.311  10.006  12.355
47578SOL    HW244574   5.305  10.015  12.204
47579SOL     OW44575  12.801  10.469  10.044
47579SOL    HW144576  12.761  10.426  10.120
47579SOL    HW244577  12.894  10.453  10.053
47580SOL     OW44578   9.008  11.253   4.974
47580SOL    HW144579   8.994  11.218   5.062
47580SOL    HW244580   9.062  11.188   4.930
47581SOL     OW44581   7.586   0.526  10.451
47581SOL    HW144582   7.564   0.445  10.498
47581SOL    HW244583   7.510   0.583  10.465
47582SOL     OW44584   4.993  10.832   9.669
47582SOL    HW144585   4.952  10.878   9.596
47582SOL    HW244586   4.988  10.739   9.646
47583SOL     OW44587   6.644   0.155   0.802
47583SOL    HW144588   6.727   0.185   0.839
47583SOL    HW244589   6.577   0.202   0.852
47584SOL     OW44590   1.076   9.979  11.954
47584SOL    HW144591   1.015   9.925  12.003
47584SOL    HW244592   1.125  10.027  12.021
47585SOL     OW44593   8.326   6.331   4.669
47585SOL    HW144594   8.282   6.416   4.678
47585SOL    HW244595   8.291   6.295   4.587
47586SOL     OW44596  10.861   7.950   1.152
47586SOL    HW144597  10.788   7.990   1.105
47586SOL    HW244598  10.916   7.912   1.084
47587SOL     OW44599  10.813   3.779   0.118
47587SOL    HW144600  10.900   3.804   0.149
47587SOL    HW244601  10.797   3.837   0.044
47588SOL     OW44602  13.395   6.099   7.879
47588SOL    HW144603  13.300   6.104   7.891
47588SOL    HW244604  13.422   6.190   7.864
47589SOL     OW44605  13.707   5.883   5.203
47589SOL    HW144606  13.658   5.826   5.262
47589SOL    HW244607  13.644   5.950   5.176
47590SOL     OW44608   2.659   7.259   2.058
47590SOL    HW144609   2.621   7.322   1.997
47590SOL    HW244610   2.726   7.310   2.105
47591SOL     OW44611   1.279   5.183   7.815
47591SOL    HW144612   1.234   5.105   7.782
47591SOL    HW244613   1.209   5.246   7.832
47592SOL     OW44614   0.225   5.048   0.556
47592SOL    HW144615   0.200   5.139   0.572
47592SOL    HW244616   0.142   5.003   0.542
47593SOL     OW44617   3.029  12.331   0.244
47593SOL    HW144618   3.048  12.288   0.328
47593SOL    HW244619   3.078  12.413   0.247
47594SOL     OW44620   9.755  11.993   9.887
47594SOL    HW144621   9.721  11.911   9.849
47594SOL    HW244622   9.843  11.971   9.916
47595SOL     OW44623   1.738   7.210   7.665
47595SOL    HW144624   1.741   7.305   7.671
47595SOL    HW244625   1.734   7.191   7.571
47596SOL     OW44626   3.905   8.728   7.421
47596SOL    HW144627   3.885   8.817   7.449
47596SOL    HW244628   3.968   8.740   7.349
47597SOL     OW44629   7.021   9.986   4.871
47597SOL    HW144630   6.991  10.029   4.791
47597SOL    HW244631   7.116   9.996   4.870
47598SOL     OW44632   9.436   6.660   4.433
47598SOL    HW144633   9.385   6.716   4.492
47598SOL    HW244634   9.425   6.572   4.469
47599SOL     OW44635   3.805   8.617  12.681
47599SOL    HW144636   3.716   8.589  12.659
47599SOL    HW244637   3.811   8.605  12.776
47600SOL     OW44638   9.760   5.522  14.652
47600SOL    HW144639   9.734   5.593  14.711
47600SOL    HW244640   9.705   5.533  14.575
47601SOL     OW44641  11.154   2.208   2.681
47601SOL    HW144642  11.206   2.277   2.639
47601SOL    HW244643  11.088   2.184   2.617
47602SOL     OW44644   6.261  12.566  10.580
47602SOL    HW144645   6.246  12.552  10.673
47602SOL    HW244646   6.322  12.639  10.575
47603SOL     OW44647   0.594  11.330   0.620
47603SOL    HW144648   0.655  11.332   0.546
47603SOL    HW244649   0.644  11.367   0.693
47604SOL     OW44650  11.115  10.482   2.736
47604SOL    HW144651  11.138  10.575   2.729
47604SOL    HW244652  11.024  10.478   2.706
47605SOL     OW44653   6.300  14.250   6.511
47605SOL    HW144654   6.277  14.341   6.530
47605SOL    HW244655   6.323  14.213   6.596
47606SOL     OW44656  12.743   5.297  14.323
47606SOL    HW144657  12.708   5.320  14.409
47606SOL    HW244658  12.781   5.378  14.290
47607SOL     OW44659   9.159   0.132  11.586
47607SOL    HW144660   9.163   0.191  11.661
47607SOL    HW244661   9.146   0.045  11.625
47608SOL     OW44662   7.304  11.256   8.014
47608SOL    HW144663   7.217  11.217   8.001
47608SOL    HW244664   7.363  11.200   7.965
47609SOL     OW44665   5.430   2.002   3.952
47609SOL    HW144666   5.508   1.994   3.896
47609SOL    HW244667   5.401   1.912   3.966
47610SOL     OW44668   1.422   6.943   2.450
47610SOL    HW144669   1.358   6.878   2.480
47610SOL    HW244670   1.474   6.897   2.384
47611SOL     OW44671   2.872   0.731   2.342
47611SOL    HW144672   2.862   0.644   2.380
47611SOL    HW244673   2.896   0.787   2.416
47612SOL     OW44674   1.963   6.135   8.676
47612SOL    HW144675   1.939   6.110   8.586
47612SOL    HW244676   2.053   6.103   8.687
47613SOL     OW44677   5.305   5.962  14.849
47613SOL    HW144678   5.401   5.965  14.845
47613SOL    HW244679   5.280   6.047   0.004
47614SOL     OW44680   2.814   4.012   2.834
47614SOL    HW144681   2.759   3.967   2.770
47614SOL    HW244682   2.804   4.105   2.812
47615SOL     OW44683   1.783   0.633   5.933
47615SOL    HW144684   1.783   0.585   6.016
47615SOL    HW244685   1.876   0.646   5.913
47616SOL     OW44686  11.176   8.197  11.190
47616SOL    HW144687  11.173   8.108  11.226
47616SOL    HW244688  11.238   8.191  11.117
47617SOL     OW44689   6.009   3.976   5.265
47617SOL    HW144690   6.053   3.942   5.343
47617SOL    HW244691   6.059   3.941   5.192
47618SOL     OW44692   0.551  14.283   4.574
47618SOL    HW144693   0.571  14.211   4.634
47618SOL    HW244694   0.617  14.276   4.505
47619SOL     OW44695   0.667  13.028   3.544
47619SOL    HW144696   0.753  12.995   3.571
47619SOL    HW244697   0.660  13.003   3.452
47620SOL     OW44698   4.868  12.276   4.782
47620SOL    HW144699   4.822  12.271   4.866
47620SOL    HW244700   4.799  12.264   4.717
47621SOL     OW44701   2.909   6.301   3.427
47621SOL    HW144702   2.883   6.308   3.519
47621SOL    HW244703   2.972   6.372   3.415
47622SOL     OW44704   3.103  14.788  13.621
47622SOL    HW144705   3.059  14.762  13.701
47622SOL    HW244706   3.113   0.004  13.629
47623SOL     OW44707   6.934  11.813   8.253
47623SOL    HW144708   6.979  11.730   8.262
47623SOL    HW244709   6.918  11.821   8.158
47624SOL     OW44710   5.269   5.437   5.760
47624SOL    HW144711   5.351   5.446   5.808
47624SOL    HW244712   5.201   5.449   5.826
47625SOL     OW44713  13.278   8.792   7.416
47625SOL    HW144714  13.318   8.819   7.333
47625SOL    HW244715  13.188   8.770   7.392
47626SOL     OW44716   9.231   2.371   0.702
47626SOL    HW144717   9.185   2.342   0.781
47626SOL    HW244718   9.277   2.450   0.729
47627SOL     OW44719   6.592  12.446  12.235
47627SOL    HW144720   6.603  12.499  12.314
47627SOL    HW244721   6.596  12.356  12.267
47628SOL     OW44722   2.702  13.982  13.581
47628SOL    HW144723   2.610  13.988  13.557
47628SOL    HW244724   2.749  14.025  13.509
47629SOL     OW44725   5.470   3.881  14.468
47629SOL    HW144726   5.413   3.856  14.395
47629SOL    HW244727   5.559   3.870  14.434
47630SOL     OW44728   0.519   6.253   8.554
47630SOL    HW144729   0.568   6.176   8.525
47630SOL    HW244730   0.500   6.301   8.473
47631SOL     OW44731  14.782   3.405  12.232
47631SOL    HW144732  14.748   3.472  12.174
47631SOL    HW244733  14.855   3.447  12.278
47632SOL     OW44734  11.714   5.435  13.868
47632SOL    HW144735  11.772   5.422  13.793
47632SOL    HW244736  11.655   5.360  13.866
47633SOL     OW44737   9.514   1.404   9.376
47633SOL    HW144738   9.591   1.422   9.322
47633SOL    HW244739   9.511   1.477   9.438
47634SOL     OW44740   7.371  13.972   3.515
47634SOL    HW144741   7.452  13.921   3.522
47634SOL    HW244742   7.339  13.955   3.427
47635SOL     OW44743  11.757   2.980   5.673
47635SOL    HW144744  11.797   3.066   5.681
47635SOL    HW244745  11.716   2.980   5.586
47636SOL     OW44746   6.861   7.695   3.065
47636SOL    HW144747   6.828   7.669   3.152
47636SOL    HW244748   6.946   7.652   3.058
47637SOL     OW44749  12.191   9.684   9.570
47637SOL    HW144750  12.283   9.657   9.563
47637SOL    HW244751  12.194   9.780   9.560
47638SOL     OW44752   5.711  13.301  14.616
47638SOL    HW144753   5.796  13.263  14.594
47638SOL    HW244754   5.654  13.226  14.630
47639SOL     OW44755   1.919  14.806   7.961
47639SOL    HW144756   1.874  14.767   7.885
47639SOL    HW244757   1.861  14.877   7.989
47640SOL     OW44758   5.292  12.222  14.252
47640SOL    HW144759   5.328  12.249  14.167
47640SOL    HW244760   5.308  12.127  14.255
47641SOL     OW44761  12.417   1.008  12.314
47641SOL    HW144762  12.402   0.952  12.238
47641SOL    HW244763  12.459   0.951  12.378
47642SOL     OW44764   3.543   8.421   9.090
47642SOL    HW144765   3.562   8.495   9.032
47642SOL    HW244766   3.628   8.382   9.108
47643SOL     OW44767   7.023   8.378  10.625
47643SOL    HW144768   7.096   8.335  10.670
47643SOL    HW244769   7.032   8.349  10.534
47644SOL     OW44770   3.179   5.806   1.238
47644SOL    HW144771   3.200   5.801   1.331
47644SOL    HW244772   3.242   5.869   1.203
47645SOL     OW44773   4.529   0.879   3.412
47645SOL    HW144774   4.609   0.833   3.386
47645SOL    HW244775   4.553   0.971   3.411
47646SOL     OW44776  11.279   5.879   0.744
47646SOL    HW144777  11.254   5.879   0.651
47646SOL    HW244778  11.359   5.827   0.747
47647SOL     OW44779   2.620   6.582   0.784
47647SOL    HW144780   2.600   6.511   0.723
47647SOL    HW244781   2.595   6.549   0.870
47648SOL     OW44782  11.773   7.076  13.252
47648SOL    HW144783  11.741   6.989  13.227
47648SOL    HW244784  11.773   7.125  13.170
47649SOL     OW44785   8.640   6.760   4.324
47649SOL    HW144786   8.548   6.756   4.352
47649SOL    HW244787   8.637   6.743   4.230
47650SOL     OW44788  14.028   3.978  12.173
47650SOL    HW144789  14.041   4.072  12.159
47650SOL    HW244790  14.105   3.937  12.134
47651SOL     OW44791  11.741   8.827   0.057
47651SOL    HW144792  11.678   8.862  14.874
47651SOL    HW244793  11.700   8.842   0.142
47652SOL     OW44794   2.248   6.300  12.439
47652SOL    HW144795   2.205   6.284  12.356
47652SOL    HW244796   2.342   6.294  12.419
47653SOL     OW44797   1.547  14.030   2.301
47653SOL    HW144798   1.548  13.958   2.364
47653SOL    HW244799   1.639  14.047   2.282
47654SOL     OW44800  13.245  10.830   0.232
47654SOL    HW144801  13.294  10.796   0.157
47654SOL    HW244802  13.282  10.918   0.246
47655SOL     OW44803   6.404   1.903   0.000
47655SOL    HW144804   6.339   1.911   0.070
47655SOL    HW244805   6.473   1.965   0.025
47656SOL     OW44806  13.134  14.688   3.215
47656SOL    HW144807  13.062  14.686   3.279
47656SOL    HW244808  13.173  14.601   3.219
47657SOL     OW44809   0.297   7.210   2.932
47657SOL    HW144810   0.247   7.292   2.929
47657SOL    HW244811   0.352   7.213   2.854
47658SOL     OW44812  12.448   2.635   6.654
47658SOL    HW144813  12.436   2.603   6.565
47658SOL    HW244814  12.541   2.654   6.661
47659SOL     OW44815   9.185   1.740   7.088
47659SOL    HW144816   9.204   1.816   7.142
47659SOL    HW244817   9.261   1.730   7.031
47660SOL     OW44818   5.967   9.658   3.914
47660SOL    HW144819   5.890   9.658   3.971
47660SOL    HW244820   5.955   9.580   3.859
47661SOL     OW44821   2.376   4.772   3.767
47661SOL    HW144822   2.375   4.704   3.699
47661SOL    HW244823   2.286   4.804   3.770
47662SOL     OW44824   3.483   9.654  13.954
47662SOL    HW144825   3.440   9.636  14.037
47662SOL    HW244826   3.571   9.681  13.978
47663SOL     OW44827  12.250   2.689  13.539
47663SOL    HW144828  12.259   2.776  13.579
47663SOL    HW244829  12.340   2.657  13.531
47664SOL     OW44830  13.690   2.828  10.047
47664SOL    HW144831  13.599   2.805  10.067
47664SOL    HW244832  13.684   2.893   9.977
47665SOL     OW44833  10.755  12.434  13.020
47665SOL    HW144834  10.829  12.460  13.074
47665SOL    HW244835  10.706  12.372  13.074
47666SOL     OW44836   1.326  14.767   2.272
47666SOL    HW144837   1.369  14.682   2.283
47666SOL    HW244838   1.380  14.812   2.207
47667SOL     OW44839   6.315  13.883   1.817
47667SOL    HW144840   6.252  13.812   1.805
47667SOL    HW244841   6.399  13.846   1.791
47668SOL     OW44842   5.650   3.855   0.259
47668SOL    HW144843   5.741   3.848   0.229
47668SOL    HW244844   5.606   3.903   0.190
47669SOL     OW44845   4.691  10.294   5.019
47669SOL    HW144846   4.686  10.328   4.930
47669SOL    HW244847   4.763  10.231   5.016
47670SOL     OW44848  12.559  13.931   7.960
47670SOL    HW144849  12.498  13.932   8.033
47670SOL    HW244850  12.595  13.842   7.959
47671SOL     OW44851  11.017   4.456   9.541
47671SOL    HW144852  11.029   4.550   9.523
47671SOL    HW244853  11.020   4.450   9.636
47672SOL     OW44854   9.019  14.875   4.041
47672SOL    HW144855   9.094   0.002   3.981
47672SOL    HW244856   8.989  14.785   4.032
47673SOL     OW44857   0.110  12.317  14.133
47673SOL    HW144858   0.108  12.397  14.185
47673SOL    HW244859   0.020  12.306  14.102
47674SOL     OW44860   7.950   6.258  10.700
47674SOL    HW144861   7.904   6.185  10.741
47674SOL    HW244862   8.043   6.232  10.702
47675SOL     OW44863   7.155   1.501   9.085
47675SOL    HW144864   7.203   1.460   9.157
47675SOL    HW244865   7.212   1.572   9.056
47676SOL     OW44866   0.444   7.171   0.501
47676SOL    HW144867   0.401   7.156   0.417
47676SOL    HW244868   0.533   7.138   0.488
47677SOL     OW44869   3.773  14.626  12.735
47677SOL    HW144870   3.729  14.655  12.815
47677SOL    HW244871   3.730  14.676  12.665
47678SOL     OW44872   7.090   8.726   9.779
47678SOL    HW144873   7.159   8.739   9.714
47678SOL    HW244874   7.110   8.641   9.817
47679SOL     OW44875   8.802   5.079  13.235
47679SOL    HW144876   8.891   5.091  13.266
47679SOL    HW244877   8.803   5.114  13.146
47680SOL     OW44878   8.757  11.558  12.195
47680SOL    HW144879   8.734  11.552  12.288
47680SOL    HW244880   8.694  11.620  12.159
47681SOL     OW44881   5.130  14.030   2.910
47681SOL    HW144882   5.203  14.056   2.853
47681SOL    HW244883   5.102  14.110   2.953
47682SOL     OW44884  11.386   9.337   8.576
47682SOL    HW144885  11.338   9.408   8.619
47682SOL    HW244886  11.476   9.368   8.572
47683SOL     OW44887   4.882  13.243   8.747
47683SOL    HW144888   4.872  13.338   8.752
47683SOL    HW244889   4.913  13.219   8.834
47684SOL     OW44890   7.358   0.065   2.534
47684SOL    HW144891   7.303   0.009   2.588
47684SOL    HW244892   7.411   0.114   2.597
47685SOL     OW44893  12.638   5.288   4.737
47685SOL    HW144894  12.672   5.287   4.827
47685SOL    HW244895  12.715   5.279   4.682
47686SOL     OW44896   3.238   1.113   4.987
47686SOL    HW144897   3.309   1.050   4.978
47686SOL    HW244898   3.161   1.059   5.008
47687SOL     OW44899   3.377   1.957   1.595
47687SOL    HW144900   3.356   2.000   1.678
47687SOL    HW244901   3.402   1.867   1.620
47688SOL     OW44902   8.904  10.291   5.868
47688SOL    HW144903   8.970  10.229   5.900
47688SOL    HW244904   8.867  10.330   5.948
47689SOL     OW44905   8.891   4.112   0.176
47689SOL    HW144906   8.809   4.063   0.180
47689SOL    HW244907   8.864   4.204   0.166
47690SOL     OW44908   4.676   9.821   4.922
47690SOL    HW144909   4.714   9.827   5.010
47690SOL    HW244910   4.599   9.878   4.925
47691SOL     OW44911   4.112  13.773   8.652
47691SOL    HW144912   4.062  13.849   8.681
47691SOL    HW244913   4.155  13.741   8.731
47692SOL     OW44914   4.887   7.715   9.589
47692SOL    HW144915   4.856   7.717   9.679
47692SOL    HW244916   4.808   7.705   9.536
47693SOL     OW44917  10.203  11.579   4.285
47693SOL    HW144918  10.297  11.562   4.290
47693SOL    HW244919  10.189  11.653   4.344
47694SOL     OW44920   9.756   1.567  13.939
47694SOL    HW144921   9.773   1.634  14.006
47694SOL    HW244922   9.667   1.538  13.956
47695SOL     OW44923  12.787   6.610  13.451
47695SOL    HW144924  12.732   6.532  13.457
47695SOL    HW244925  12.837   6.598  13.370
47696SOL     OW44926   5.862   2.023   6.795
47696SOL    HW144927   5.860   1.953   6.861
47696SOL    HW244928   5.940   2.074   6.816
47697SOL     OW44929   4.367  10.981  12.857
47697SOL    HW144930   4.328  10.900  12.824
47697SOL    HW244931   4.331  11.050  12.801
47698SOL     OW44932   3.240   9.793   9.992
47698SOL    HW144933   3.246   9.888  10.001
47698SOL    HW244934   3.171   9.768  10.054
47699SOL     OW44935   2.948   8.941   5.112
47699SOL    HW144936   3.021   8.966   5.056
47699SOL    HW244937   2.971   8.974   5.199
47700SOL     OW44938  10.021  13.150  12.545
47700SOL    HW144939   9.953  13.208  12.579
47700SOL    HW244940  10.099  13.171  12.598
47701SOL     OW44941   0.428   0.416   0.169
47701SOL    HW144942   0.347   0.413   0.220
47701SOL    HW244943   0.431   0.332   0.123
47702SOL     OW44944   3.912   6.661   6.866
47702SOL    HW144945   3.886   6.589   6.924
47702SOL    HW244946   3.839   6.672   6.806
47703SOL     OW44947   1.673   9.846  10.467
47703SOL    HW144948   1.585   9.884  10.464
47703SOL    HW244949   1.659   9.755  10.494
47704SOL     OW44950   4.451  11.611   5.978
47704SOL    HW144951   4.475  11.635   6.068
47704SOL    HW244952   4.364  11.648   5.965
47705SOL     OW44953  10.709  11.282  10.329
47705SOL    HW144954  10.761  11.358  10.355
47705SOL    HW244955  10.686  11.297  10.238
47706SOL     OW44956   4.312   9.782   4.403
47706SOL    HW144957   4.250   9.833   4.351
47706SOL    HW244958   4.382   9.844   4.424
47707SOL     OW44959   9.245   4.235   4.664
47707SOL    HW144960   9.301   4.163   4.692
47707SOL    HW244961   9.178   4.193   4.609
47708SOL     OW44962   7.256   7.411   5.235
47708SOL    HW144963   7.186   7.421   5.300
47708SOL    HW244964   7.336   7.432   5.282
47709SOL     OW44965   4.234   7.539  10.720
47709SOL    HW144966   4.165   7.578  10.774
47709SOL    HW244967   4.198   7.538  10.632
47710SOL     OW44968   0.870  10.290   7.848
47710SOL    HW144969   0.827  10.307   7.931
47710SOL    HW244970   0.850  10.198   7.830
47711SOL     OW44971  12.295   8.365   7.268
47711SOL    HW144972  12.211   8.319   7.270
47711SOL    HW244973  12.301   8.409   7.353
47712SOL     OW44974   7.890   7.915   0.096
47712SOL    HW144975   7.797   7.903   0.113
47712SOL    HW244976   7.894   7.943   0.004
47713SOL     OW44977   8.622  14.735   3.145
47713SOL    HW144978   8.537  14.736   3.189
47713SOL    HW244979   8.662  14.818   3.168
47714SOL     OW44980   9.236   6.682  14.687
47714SOL    HW144981   9.190   6.670  14.770
47714SOL    HW244982   9.308   6.742  14.708
47715SOL     OW44983   7.684   0.637   9.587
47715SOL    HW144984   7.764   0.644   9.638
47715SOL    HW244985   7.615   0.665   9.647
47716SOL     OW44986   3.018   8.779   9.850
47716SOL    HW144987   3.075   8.715   9.892
47716SOL    HW244988   3.068   8.861   9.852
47717SOL     OW44989   3.158   8.603   0.835
47717SOL    HW144990   3.149   8.524   0.888
47717SOL    HW244991   3.083   8.657   0.859
47718SOL     OW44992   1.120   5.036   8.363
47718SOL    HW144993   1.073   5.069   8.440
47718SOL    HW244994   1.100   5.099   8.294
47719SOL     OW44995   2.767   3.780   2.432
47719SOL    HW144996   2.718   3.850   2.389
47719SOL    HW244997   2.836   3.756   2.370
47720SOL     OW44998  11.445   3.768   9.867
47720SOL    HW144999  11.382   3.751   9.797
47720SOL    HW245000  11.492   3.685   9.878
47721SOL     OW45001  13.562   8.325   4.939
47721SOL    HW145002  13.504   8.315   4.863
47721SOL    HW245003  13.625   8.254   4.930
47722SOL     OW45004  13.280   5.984   3.974
47722SOL    HW145005  13.341   6.027   3.914
47722SOL    HW245006  13.194   6.011   3.943
47723SOL     OW45007   3.586   9.196  12.825
47723SOL    HW145008   3.563   9.217  12.735
47723SOL    HW245009   3.650   9.125  12.818
47724SOL     OW45010   7.278   2.930  12.688
47724SOL    HW145011   7.304   2.926  12.780
47724SOL    HW245012   7.213   3.000  12.684
47725SOL     OW45013  13.081   8.412   4.334
47725SOL    HW145014  13.103   8.501   4.307
47725SOL    HW245015  13.056   8.367   4.253
47726SOL     OW45016  14.002   8.314   1.819
47726SOL    HW145017  14.035   8.404   1.815
47726SOL    HW245018  14.075   8.261   1.787
47727SOL     OW45019  13.858  14.105   1.737
47727SOL    HW145020  13.948  14.075   1.741
47727SOL    HW245021  13.843  14.150   1.820
47728SOL     OW45022   1.311   3.025  13.471
47728SOL    HW145023   1.228   2.982  13.491
47728SOL    HW245024   1.303   3.052  13.380
47729SOL     OW45025   5.505   5.976  13.696
47729SOL    HW145026   5.571   6.038  13.729
47729SOL    HW245027   5.468   5.937  13.775
47730SOL     OW45028   2.943   9.988   3.598
47730SOL    HW145029   2.909  10.033   3.675
47730SOL    HW245030   3.025  10.033   3.577
47731SOL     OW45031   7.097   1.824  13.413
47731SOL    HW145032   7.083   1.885  13.485
47731SOL    HW245033   7.075   1.874  13.334
47732SOL     OW45034   7.786   0.206  12.535
47732SOL    HW145035   7.803   0.294  12.504
47732SOL    HW245036   7.735   0.165  12.466
47733SOL     OW45037  14.035   0.891   5.112
47733SOL    HW145038  14.115   0.901   5.165
47733SOL    HW245039  14.024   0.977   5.071
47734SOL     OW45040   5.298   5.546  10.890
47734SOL    HW145041   5.364   5.601  10.847
47734SOL    HW245042   5.304   5.570  10.983
47735SOL     OW45043  10.381  10.563   6.876
47735SOL    HW145044  10.387  10.629   6.945
47735SOL    HW245045  10.464  10.516   6.880
47736SOL     OW45046   6.562   4.777  10.345
47736SOL    HW145047   6.641   4.723  10.357
47736SOL    HW245048   6.589   4.845  10.284
47737SOL     OW45049   9.392   8.002   4.631
47737SOL    HW145050   9.323   7.962   4.683
47737SOL    HW245051   9.361   7.995   4.540
47738SOL     OW45052  11.813   6.623   5.420
47738SOL    HW145053  11.804   6.693   5.355
47738SOL    HW245054  11.723   6.597   5.439
47739SOL     OW45055  12.268  12.519  11.023
47739SOL    HW145056  12.199  12.475  10.974
47739SOL    HW245057  12.327  12.449  11.050
47740SOL     OW45058   4.238   2.047   4.220
47740SOL    HW145059   4.269   2.134   4.244
47740SOL    HW245060   4.206   2.009   4.301
47741SOL     OW45061   9.767   0.752  12.734
47741SOL    HW145062   9.769   0.662  12.704
47741SOL    HW245063   9.737   0.802  12.658
47742SOL     OW45064   3.251  10.196  12.011
47742SOL    HW145065   3.226  10.144  11.935
47742SOL    HW245066   3.211  10.282  11.997
47743SOL     OW45067   2.109  13.815   7.563
47743SOL    HW145068   2.027  13.845   7.524
47743SOL    HW245069   2.177  13.844   7.502
47744SOL     OW45070  13.284   0.766   8.560
47744SOL    HW145071  13.264   0.838   8.499
47744SOL    HW245072  13.324   0.699   8.505
47745SOL     OW45073   9.346   4.358   2.656
47745SOL    HW145074   9.310   4.366   2.568
47745SOL    HW245075   9.357   4.448   2.686
47746SOL     OW45076   9.653  13.698   2.208
47746SOL    HW145077   9.599  13.762   2.161
47746SOL    HW245078   9.590  13.643   2.255
47747SOL     OW45079  13.574   3.654   6.792
47747SOL    HW145080  13.526   3.576   6.765
47747SOL    HW245081  13.649   3.659   6.733
47748SOL     OW45082  13.398   8.850   2.624
47748SOL    HW145083  13.446   8.903   2.688
47748SOL    HW245084  13.450   8.769   2.616
47749SOL     OW45085   6.470  13.898   3.821
47749SOL    HW145086   6.394  13.863   3.774
47749SOL    HW245087   6.530  13.824   3.828
47750SOL     OW45088   4.689   8.992   7.898
47750SOL    HW145089   4.667   8.961   7.986
47750SOL    HW245090   4.683   9.087   7.904
47751SOL     OW45091   6.284   3.511  12.613
47751SOL    HW145092   6.260   3.429  12.656
47751SOL    HW245093   6.317   3.566  12.684
47752SOL     OW45094   1.513   9.576  12.999
47752SOL    HW145095   1.568   9.571  13.077
47752SOL    HW245096   1.572   9.602  12.929
47753SOL     OW45097  14.368   1.858  10.612
47753SOL    HW145098  14.362   1.917  10.687
47753SOL    HW245099  14.302   1.889  10.551
47754SOL     OW45100   6.386   6.719   5.756
47754SOL    HW145101   6.359   6.737   5.666
47754SOL    HW245102   6.466   6.668   5.748
47755SOL     OW45103   3.722  12.197   9.279
47755SOL    HW145104   3.789  12.137   9.247
47755SOL    HW245105   3.640  12.162   9.245
47756SOL     OW45106   5.620   9.288   6.084
47756SOL    HW145107   5.676   9.265   6.010
47756SOL    HW245108   5.679   9.290   6.159
47757SOL     OW45109   5.813   6.577  13.725
47757SOL    HW145110   5.725   6.561  13.690
47757SOL    HW245111   5.798   6.610  13.814
47758SOL     OW45112   8.060  10.514   2.437
47758SOL    HW145113   8.059  10.477   2.525
47758SOL    HW245114   8.101  10.447   2.383
47759SOL     OW45115  11.076   3.233  12.927
47759SOL    HW145116  11.124   3.309  12.961
47759SOL    HW245117  11.134   3.197  12.860
47760SOL     OW45118   3.841   3.413  10.956
47760SOL    HW145119   3.812   3.503  10.965
47760SOL    HW245120   3.920   3.417  10.903
47761SOL     OW45121   9.000   4.229  12.677
47761SOL    HW145122   9.092   4.215  12.654
47761SOL    HW245123   9.003   4.291  12.750
47762SOL     OW45124  13.191  11.248   5.995
47762SOL    HW145125  13.200  11.297   6.076
47762SOL    HW245126  13.145  11.307   5.935
47763SOL     OW45127   6.430   8.488   3.705
47763SOL    HW145128   6.451   8.509   3.796
47763SOL    HW245129   6.505   8.521   3.655
47764SOL     OW45130  11.839  10.744   9.735
47764SOL    HW145131  11.879  10.830   9.752
47764SOL    HW245132  11.771  10.762   9.671
47765SOL     OW45133   7.195  11.124   5.510
47765SOL    HW145134   7.116  11.095   5.463
47765SOL    HW245135   7.265  11.117   5.444
47766SOL     OW45136   1.074   6.384   7.369
47766SOL    HW145137   1.146   6.348   7.421
47766SOL    HW245138   1.021   6.308   7.346
47767SOL     OW45139   8.050   6.915   9.111
47767SOL    HW145140   8.013   6.849   9.053
47767SOL    HW245141   7.974   6.955   9.154
47768SOL     OW45142  13.925   6.270   4.842
47768SOL    HW145143  14.013   6.298   4.817
47768SOL    HW245144  13.868   6.340   4.810
47769SOL     OW45145  13.547   4.167  14.726
47769SOL    HW145146  13.594   4.118  14.659
47769SOL    HW245147  13.569   4.124  14.809
47770SOL     OW45148  14.085   9.962  12.198
47770SOL    HW145149  14.175   9.935  12.214
47770SOL    HW245150  14.081  10.053  12.225
47771SOL     OW45151  12.150   9.510   5.307
47771SOL    HW145152  12.141   9.577   5.239
47771SOL    HW245153  12.111   9.549   5.385
47772SOL     OW45154  14.560   0.664   3.672
47772SOL    HW145155  14.569   0.697   3.583
47772SOL    HW245156  14.469   0.680   3.695
47773SOL     OW45157   9.276   8.015   1.049
47773SOL    HW145158   9.195   8.013   1.101
47773SOL    HW245159   9.261   7.952   0.979
47774SOL     OW45160  14.413   8.853  11.542
47774SOL    HW145161  14.327   8.821  11.515
47774SOL    HW245162  14.429   8.929  11.486
47775SOL     OW45163   5.997   4.901   1.416
47775SOL    HW145164   6.082   4.876   1.379
47775SOL    HW245165   6.011   4.897   1.511
47776SOL     OW45166   0.367  11.267  10.585
47776SOL    HW145167   0.329  11.298  10.503
47776SOL    HW245168   0.327  11.322  10.652
47777SOL     OW45169   2.325   8.505   3.152
47777SOL    HW145170   2.395   8.544   3.100
47777SOL    HW245171   2.350   8.523   3.243
47778SOL     OW45172  11.715   6.164   2.731
47778SOL    HW145173  11.797   6.115   2.744
47778SOL    HW245174  11.719   6.234   2.796
47779SOL     OW45175  10.347   4.736   9.214
47779SOL    HW145176  10.441   4.729   9.226
47779SOL    HW245177  10.334   4.726   9.119
47780SOL     OW45178   5.345   1.683  12.937
47780SOL    HW145179   5.261   1.671  12.980
47780SOL    HW245180   5.403   1.621  12.980
47781SOL     OW45181   1.517   5.015  13.759
47781SOL    HW145182   1.561   4.969  13.688
47781SOL    HW245183   1.458   5.076  13.716
47782SOL     OW45184  10.888   8.078   9.959
47782SOL    HW145185  10.966   8.023   9.953
47782SOL    HW245186  10.841   8.046  10.036
47783SOL     OW45187   4.419   0.493  10.627
47783SOL    HW145188   4.385   0.572  10.669
47783SOL    HW245189   4.396   0.504  10.534
47784SOL     OW45190   4.589   7.367   2.770
47784SOL    HW145191   4.555   7.432   2.832
47784SOL    HW245192   4.518   7.304   2.761
47785SOL     OW45193   1.430   1.090   1.780
47785SOL    HW145194   1.396   1.095   1.690
47785SOL    HW245195   1.386   1.014   1.818
47786SOL     OW45196   0.246   8.619   2.394
47786SOL    HW145197   0.231   8.527   2.372
47786SOL    HW245198   0.176   8.640   2.456
47787SOL     OW45199   1.607   9.054  14.280
47787SOL    HW145200   1.572   9.017  14.360
47787SOL    HW245201   1.561   9.138  14.271
47788SOL     OW45202   1.572  10.013  14.531
47788SOL    HW145203   1.479  10.009  14.555
47788SOL    HW245204   1.598   9.921  14.521
47789SOL     OW45205   5.617   6.662   0.103
47789SOL    HW145206   5.579   6.720   0.037
47789SOL    HW245207   5.550   6.597   0.121
47790SOL     OW45208  12.271   6.256  10.358
47790SOL    HW145209  12.278   6.351  10.360
47790SOL    HW245210  12.338   6.226  10.420
47791SOL     OW45211   2.639   5.038   4.459
47791SOL    HW145212   2.636   4.988   4.378
47791SOL    HW245213   2.732   5.048   4.479
47792SOL     OW45214   8.218   4.245   7.304
47792SOL    HW145215   8.229   4.330   7.345
47792SOL    HW245216   8.302   4.201   7.315
47793SOL     OW45217   4.075   9.781   8.532
47793SOL    HW145218   4.052   9.852   8.473
47793SOL    HW245219   4.039   9.703   8.491
47794SOL     OW45220   5.382   3.191   9.223
47794SOL    HW145221   5.435   3.134   9.167
47794SOL    HW245222   5.385   3.276   9.180
47795SOL     OW45223  14.779  14.352   7.876
47795SOL    HW145224  14.717  14.283   7.854
47795SOL    HW245225  14.725  14.431   7.882
47796SOL     OW45226   4.510   4.175   6.389
47796SOL    HW145227   4.605   4.183   6.396
47796SOL    HW245228   4.496   4.140   6.301
47797SOL     OW45229   2.422   8.576   1.578
47797SOL    HW145230   2.476   8.579   1.657
47797SOL    HW245231   2.396   8.485   1.570
47798SOL     OW45232  10.650   1.230   5.194
47798SOL    HW145233  10.663   1.257   5.103
47798SOL    HW245234  10.578   1.284   5.225
47799SOL     OW45235   4.809   3.789  13.322
47799SOL    HW145236   4.750   3.861  13.299
47799SOL    HW245237   4.783   3.717  13.266
47800SOL     OW45238  10.095   6.097   0.631
47800SOL    HW145239  10.037   6.058   0.564
47800SOL    HW245240  10.038   6.111   0.706
47801SOL     OW45241  14.362   8.103  10.321
47801SOL    HW145242  14.312   8.161  10.264
47801SOL    HW245243  14.309   8.095  10.400
47802SOL     OW45244  10.122   1.306   7.810
47802SOL    HW145245  10.091   1.395   7.793
47802SOL    HW245246  10.044   1.252   7.803
47803SOL     OW45247  10.556  13.846   2.000
47803SOL    HW145248  10.638  13.895   2.003
47803SOL    HW245249  10.489  13.913   1.984
47804SOL     OW45250  10.884  12.213   0.126
47804SOL    HW145251  10.811  12.197   0.067
47804SOL    HW245252  10.961  12.214   0.070
47805SOL     OW45253  14.499   4.446   6.972
47805SOL    HW145254  14.540   4.501   6.904
47805SOL    HW245255  14.413   4.424   6.935
47806SOL     OW45256  10.648  12.713   4.973
47806SOL    HW145257  10.665  12.661   5.051
47806SOL    HW245258  10.618  12.650   4.908
47807SOL     OW45259   1.326   7.316  12.712
47807SOL    HW145260   1.316   7.383  12.779
47807SOL    HW245261   1.415   7.283  12.724
47808SOL     OW45262   3.199   1.231  12.315
47808SOL    HW145263   3.276   1.250  12.368
47808SOL    HW245264   3.158   1.317  12.300
47809SOL     OW45265   3.748   8.205  11.174
47809SOL    HW145266   3.821   8.162  11.129
47809SOL    HW245267   3.695   8.243  11.104
47810SOL     OW45268   5.780   0.793   8.686
47810SOL    HW145269   5.768   0.782   8.591
47810SOL    HW245270   5.786   0.704   8.720
47811SOL     OW45271  12.270   8.242   6.377
47811SOL    HW145272  12.204   8.194   6.326
47811SOL    HW245273  12.307   8.305   6.316
47812SOL     OW45274  11.866   3.086   3.404
47812SOL    HW145275  11.866   3.038   3.487
47812SOL    HW245276  11.950   3.066   3.364
47813SOL     OW45277   8.410   5.088   3.343
47813SOL    HW145278   8.347   5.049   3.403
47813SOL    HW245279   8.357   5.143   3.285
47814SOL     OW45280   2.002   1.216   5.283
47814SOL    HW145281   2.062   1.239   5.354
47814SOL    HW245282   1.931   1.280   5.290
47815SOL     OW45283  13.313   8.729  12.391
47815SOL    HW145284  13.336   8.757  12.303
47815SOL    HW245285  13.296   8.811  12.438
47816SOL     OW45286  10.343   0.808  10.943
47816SOL    HW145287  10.400   0.778  11.013
47816SOL    HW245288  10.278   0.863  10.986
47817SOL     OW45289   8.115  11.747   3.946
47817SOL    HW145290   8.058  11.824   3.954
47817SOL    HW245291   8.063  11.684   3.897
47818SOL     OW45292   6.256  13.806  10.998
47818SOL    HW145293   6.349  13.829  10.994
47818SOL    HW245294   6.241  13.779  11.088
47819SOL     OW45295  14.718   0.960  12.476
47819SOL    HW145296  14.639   0.916  12.445
47819SOL    HW245297  14.733   0.923  12.563
47820SOL     OW45298   1.103   6.653   6.839
47820SOL    HW145299   1.187   6.646   6.885
47820SOL    HW245300   1.110   6.593   6.765
47821SOL     OW45301   7.994   2.531   4.886
47821SOL    HW145302   8.089   2.518   4.884
47821SOL    HW245303   7.973   2.571   4.802
47822SOL     OW45304   7.438  13.080   1.497
47822SOL    HW145305   7.357  13.040   1.529
47822SOL    HW245306   7.411  13.165   1.463
47823SOL     OW45307   3.113   1.052  11.177
47823SOL    HW145308   3.073   1.137  11.196
47823SOL    HW245309   3.125   1.011  11.262
47824SOL     OW45310   7.366  14.178   7.035
47824SOL    HW145311   7.365  14.261   7.083
47824SOL    HW245312   7.397  14.114   7.099
47825SOL     OW45313   6.122  13.205   9.030
47825SOL    HW145314   6.187  13.175   8.966
47825SOL    HW245315   6.173  13.236   9.104
47826SOL     OW45316  10.632  13.860  10.715
47826SOL    HW145317  10.586  13.938  10.746
47826SOL    HW245318  10.720  13.891  10.694
47827SOL     OW45319   2.503   6.505   4.158
47827SOL    HW145320   2.579   6.557   4.132
47827SOL    HW245321   2.454   6.562   4.217
47828SOL     OW45322  10.261   3.941   8.712
47828SOL    HW145323  10.227   3.886   8.642
47828SOL    HW245324  10.246   3.890   8.792
47829SOL     OW45325   5.783  10.484  13.063
47829SOL    HW145326   5.786  10.475  12.968
47829SOL    HW245327   5.872  10.505  13.089
47830SOL     OW45328   4.027   8.607   2.330
47830SOL    HW145329   3.940   8.569   2.338
47830SOL    HW245330   4.081   8.561   2.394
47831SOL     OW45331   8.029  14.025  10.304
47831SOL    HW145332   8.044  13.934  10.275
47831SOL    HW245333   8.116  14.065  10.303
47832SOL     OW45334   4.804   7.619   5.585
47832SOL    HW145335   4.841   7.541   5.544
47832SOL    HW245336   4.812   7.687   5.519
47833SOL     OW45337   6.590  10.307  12.133
47833SOL    HW145338   6.639  10.295  12.214
47833SOL    HW245339   6.498  10.301  12.158
47834SOL     OW45340   9.678   4.581   9.736
47834SOL    HW145341   9.766   4.575   9.772
47834SOL    HW245342   9.688   4.633   9.656
47835SOL     OW45343   5.570   3.731   5.476
47835SOL    HW145344   5.530   3.651   5.510
47835SOL    HW245345   5.618   3.703   5.398
47836SOL     OW45346   9.292  10.028  12.859
47836SOL    HW145347   9.329  10.108  12.823
47836SOL    HW245348   9.240  10.056  12.934
47837SOL     OW45349  12.752   8.583   6.221
47837SOL    HW145350  12.795   8.533   6.152
47837SOL    HW245351  12.752   8.524   6.297
47838SOL     OW45352   6.684  10.168  11.512
47838SOL    HW145353   6.616  10.142  11.575
47838SOL    HW245354   6.765  10.169  11.563
47839SOL     OW45355   1.988   7.244   6.209
47839SOL    HW145356   1.950   7.241   6.297
47839SOL    HW245357   1.922   7.205   6.153
47840SOL     OW45358  13.514   2.388  11.255
47840SOL    HW145359  13.449   2.370  11.188
47840SOL    HW245360  13.540   2.301  11.287
47841SOL     OW45361  12.137   3.372   2.674
47841SOL    HW145362  12.063   3.344   2.621
47841SOL    HW245363  12.182   3.438   2.621
47842SOL     OW45364   4.815   0.726   4.206
47842SOL    HW145365   4.802   0.678   4.288
47842SOL    HW245366   4.884   0.790   4.227
47843SOL     OW45367   6.270  14.647  11.749
47843SOL    HW145368   6.192  14.702  11.746
47843SOL    HW245369   6.252  14.585  11.820
47844SOL     OW45370   9.039   9.904   6.547
47844SOL    HW145371   9.121   9.901   6.596
47844SOL    HW245372   8.973   9.932   6.610
47845SOL     OW45373   5.700   5.883   1.779
47845SOL    HW145374   5.734   5.797   1.805
47845SOL    HW245375   5.612   5.886   1.815
47846SOL     OW45376   1.660  12.456  12.668
47846SOL    HW145377   1.733  12.441  12.609
47846SOL    HW245378   1.616  12.534  12.632
47847SOL     OW45379   8.212  11.207  10.145
47847SOL    HW145380   8.228  11.155  10.223
47847SOL    HW245381   8.262  11.163  10.076
47848SOL     OW45382  12.590  13.282   5.526
47848SOL    HW145383  12.539  13.279   5.446
47848SOL    HW245384  12.544  13.223   5.586
47849SOL     OW45385   7.876   1.781   5.739
47849SOL    HW145386   7.925   1.725   5.679
47849SOL    HW245387   7.788   1.783   5.702
47850SOL     OW45388   4.604   3.820   3.784
47850SOL    HW145389   4.667   3.892   3.775
47850SOL    HW245390   4.564   3.811   3.697
47851SOL     OW45391  12.017  14.164   3.219
47851SOL    HW145392  12.099  14.159   3.170
47851SOL    HW245393  11.983  14.075   3.219
47852SOL     OW45394   7.997   4.557   7.156
47852SOL    HW145395   7.970   4.617   7.086
47852SOL    HW245396   8.028   4.479   7.110
47853SOL     OW45397   9.989   8.838  11.223
47853SOL    HW145398  10.066   8.788  11.196
47853SOL    HW245399   9.952   8.872  11.142
47854SOL     OW45400  10.278   6.113   5.305
47854SOL    HW145401  10.203   6.083   5.356
47854SOL    HW245402  10.302   6.197   5.344
47855SOL     OW45403   1.751   6.241   6.834
47855SOL    HW145404   1.777   6.171   6.894
47855SOL    HW245405   1.673   6.279   6.873
47856SOL     OW45406   7.202  13.696   3.012
47856SOL    HW145407   7.139  13.635   3.052
47856SOL    HW245408   7.241  13.646   2.940
47857SOL     OW45409   0.951  10.128   5.811
47857SOL    HW145410   0.872  10.174   5.783
47857SOL    HW245411   1.021  10.192   5.800
47858SOL     OW45412   2.252  12.166   1.012
47858SOL    HW145413   2.303  12.164   1.093
47858SOL    HW245414   2.317  12.181   0.943
47859SOL     OW45415   7.939  11.662  12.851
47859SOL    HW145416   7.859  11.681  12.900
47859SOL    HW245417   7.935  11.567  12.834
47860SOL     OW45418   3.812  11.774  11.408
47860SOL    HW145419   3.802  11.785  11.503
47860SOL    HW245420   3.858  11.691  11.398
47861SOL     OW45421   5.763   7.050  10.168
47861SOL    HW145422   5.775   6.995  10.246
47861SOL    HW245423   5.670   7.070  10.166
47862SOL     OW45424   3.328   3.112  14.816
47862SOL    HW145425   3.345   3.044   0.002
47862SOL    HW245426   3.349   3.194  14.861
47863SOL     OW45427  14.495  10.076   8.608
47863SOL    HW145428  14.457  10.077   8.696
47863SOL    HW245429  14.580  10.119   8.618
47864SOL     OW45430   7.183  11.158  12.798
47864SOL    HW145431   7.111  11.104  12.765
47864SOL    HW245432   7.187  11.232  12.737
47865SOL     OW45433   4.617   1.142   7.774
47865SOL    HW145434   4.578   1.074   7.830
47865SOL    HW245435   4.545   1.200   7.752
47866SOL     OW45436   4.429  11.618  11.064
47866SOL    HW145437   4.492  11.664  11.119
47866SOL    HW245438   4.348  11.668  11.072
47867SOL     OW45439   2.737  12.122   1.263
47867SOL    HW145440   2.795  12.084   1.197
47867SOL    HW245441   2.673  12.172   1.212
47868SOL     OW45442  14.082  11.395  14.204
47868SOL    HW145443  14.021  11.360  14.139
47868SOL    HW245444  14.168  11.389  14.161
47869SOL     OW45445   8.321   2.946   9.076
47869SOL    HW145446   8.266   2.945   8.998
47869SOL    HW245447   8.407   2.919   9.044
47870SOL     OW45448  10.037  12.543   8.421
47870SOL    HW145449  10.122  12.567   8.385
47870SOL    HW245450  10.006  12.472   8.364
47871SOL     OW45451  12.263  11.824   7.221
47871SOL    HW145452  12.358  11.840   7.218
47871SOL    HW245453  12.231  11.889   7.284
47872SOL     OW45454   0.317   2.850   7.507
47872SOL    HW145455   0.240   2.794   7.491
47872SOL    HW245456   0.295   2.932   7.463
47873SOL     OW45457  12.044   3.327   3.481
47873SOL    HW145458  11.967   3.362   3.435
47873SOL    HW245459  12.007   3.276   3.553
47874SOL     OW45460   7.123   6.636  10.219
47874SOL    HW145461   7.179   6.568  10.181
47874SOL    HW245462   7.184   6.708  10.237
47875SOL     OW45463   3.650  14.281   8.115
47875SOL    HW145464   3.731  14.314   8.154
47875SOL    HW245465   3.628  14.204   8.168
47876SOL     OW45466   3.690  11.392  13.866
47876SOL    HW145467   3.696  11.299  13.845
47876SOL    HW245468   3.768  11.431  13.827
47877SOL     OW45469   1.060   0.834  10.846
47877SOL    HW145470   1.108   0.891  10.905
47877SOL    HW245471   1.068   0.876  10.760
47878SOL     OW45472   0.394   6.731   4.645
47878SOL    HW145473   0.373   6.793   4.576
47878SOL    HW245474   0.311   6.687   4.664
47879SOL     OW45475  12.218   6.983   5.886
47879SOL    HW145476  12.173   6.928   5.821
47879SOL    HW245477  12.291   7.022   5.838
47880SOL     OW45478   4.545  12.796  11.275
47880SOL    HW145479   4.563  12.724  11.214
47880SOL    HW245480   4.479  12.849  11.231
47881SOL     OW45481   2.769  12.415   8.512
47881SOL    HW145482   2.779  12.510   8.511
47881SOL    HW245483   2.839  12.385   8.569
47882SOL     OW45484  14.814   4.481   2.049
47882SOL    HW145485  14.827   4.546   2.118
47882SOL    HW245486  14.757   4.414   2.089
47883SOL     OW45487   6.297  13.759   5.459
47883SOL    HW145488   6.331  13.686   5.511
47883SOL    HW245489   6.369  13.821   5.455
47884SOL     OW45490   1.438   3.979  12.059
47884SOL    HW145491   1.510   3.930  12.100
47884SOL    HW245492   1.372   3.912  12.040
47885SOL     OW45493   4.583  14.651  12.734
47885SOL    HW145494   4.650  14.656  12.666
47885SOL    HW245495   4.520  14.586  12.701
47886SOL     OW45496   2.530   6.010   4.756
47886SOL    HW145497   2.531   6.101   4.728
47886SOL    HW245498   2.620   5.993   4.784
47887SOL     OW45499   9.541   2.188   1.352
47887SOL    HW145500   9.498   2.103   1.360
47887SOL    HW245501   9.625   2.168   1.310
47888SOL     OW45502   4.536  13.372  12.024
47888SOL    HW145503   4.489  13.370  11.941
47888SOL    HW245504   4.625  13.345  12.001
47889SOL     OW45505   1.296  10.363   1.304
47889SOL    HW145506   1.239  10.293   1.271
47889SOL    HW245507   1.382  10.322   1.310
47890SOL     OW45508   4.582  12.136   0.878
47890SOL    HW145509   4.507  12.192   0.855
47890SOL    HW245510   4.648  12.196   0.912
47891SOL     OW45511   4.654  11.901   1.407
47891SOL    HW145512   4.738  11.944   1.393
47891SOL    HW245513   4.676  11.815   1.443
47892SOL     OW45514   5.547   7.155   5.225
47892SOL    HW145515   5.634   7.196   5.228
47892SOL    HW245516   5.502   7.201   5.155
47893SOL     OW45517  11.993  10.163   9.183
47893SOL    HW145518  11.968  10.074   9.208
47893SOL    HW245519  12.039  10.152   9.100
47894SOL     OW45520   2.184   9.356   9.394
47894SOL    HW145521   2.168   9.436   9.443
47894SOL    HW245522   2.106   9.345   9.340
47895SOL     OW45523   6.405  14.751   0.518
47895SOL    HW145524   6.486  14.765   0.567
47895SOL    HW245525   6.337  14.743   0.584
47896SOL     OW45526   3.712   6.568   1.699
47896SOL    HW145527   3.805   6.590   1.703
47896SOL    HW245528   3.691   6.537   1.787
47897SOL     OW45529   1.451   0.938  11.725
47897SOL    HW145530   1.365   0.905  11.750
47897SOL    HW245531   1.496   0.862  11.687
47898SOL     OW45532   0.189   5.503  13.615
47898SOL    HW145533   0.284   5.507  13.631
47898SOL    HW245534   0.175   5.561  13.540
47899SOL     OW45535  10.286   5.384   5.337
47899SOL    HW145536  10.302   5.406   5.246
47899SOL    HW245537  10.236   5.302   5.334
47900SOL     OW45538  10.465  14.410  11.587
47900SOL    HW145539  10.386  14.457  11.562
47900SOL    HW245540  10.457  14.325  11.543
47901SOL     OW45541   6.680   6.585  12.662
47901SOL    HW145542   6.660   6.597  12.569
47901SOL    HW245543   6.769   6.618  12.673
47902SOL     OW45544   0.418   9.699   4.349
47902SOL    HW145545   0.348   9.663   4.404
47902SOL    HW245546   0.409   9.651   4.266
47903SOL     OW45547   9.413   2.464   5.530
47903SOL    HW145548   9.445   2.447   5.442
47903SOL    HW245549   9.348   2.395   5.546
47904SOL     OW45550  14.254   7.750   2.990
47904SOL    HW145551  14.232   7.843   3.003
47904SOL    HW245552  14.349   7.747   3.005
47905SOL     OW45553   6.168   1.073  10.160
47905SOL    HW145554   6.092   1.071  10.218
47905SOL    HW245555   6.229   1.010  10.198
47906SOL     OW45556   2.197  10.773  14.039
47906SOL    HW145557   2.212  10.678  14.032
47906SOL    HW245558   2.185  10.788  14.133
47907SOL     OW45559  12.013   5.671   9.683
47907SOL    HW145560  12.031   5.641   9.593
47907SOL    HW245561  11.979   5.593   9.727
47908SOL     OW45562  13.194   2.379  13.070
47908SOL    HW145563  13.113   2.337  13.099
47908SOL    HW245564  13.261   2.347  13.132
47909SOL     OW45565  14.039   1.197   5.118
47909SOL    HW145566  13.968   1.259   5.132
47909SOL    HW245567  14.093   1.204   5.197
47910SOL     OW45568   4.830   9.551   4.337
47910SOL    HW145569   4.750   9.603   4.330
47910SOL    HW245570   4.808   9.468   4.295
47911SOL     OW45571  11.098   7.673   1.678
47911SOL    HW145572  11.020   7.727   1.688
47911SOL    HW245573  11.066   7.590   1.641
47912SOL     OW45574   2.229   2.343   8.524
47912SOL    HW145575   2.283   2.266   8.504
47912SOL    HW245576   2.151   2.331   8.470
47913SOL     OW45577   7.866   2.045   9.376
47913SOL    HW145578   7.961   2.051   9.385
47913SOL    HW245579   7.833   2.048   9.466
47914SOL     OW45580   3.321  12.227   9.110
47914SOL    HW145581   3.352  12.185   9.030
47914SOL    HW245582   3.386  12.204   9.176
47915SOL     OW45583  14.405   3.014  12.659
47915SOL    HW145584  14.389   3.016  12.565
47915SOL    HW245585  14.467   3.085  12.675
47916SOL     OW45586   1.415   0.266  13.453
47916SOL    HW145587   1.472   0.214  13.510
47916SOL    HW245588   1.430   0.356  13.478
47917SOL     OW45589   8.822   2.992   5.728
47917SOL    HW145590   8.733   2.963   5.748
47917SOL    HW245591   8.810   3.073   5.677
47918SOL     OW45592   7.559   8.887   1.732
47918SOL    HW145593   7.526   8.869   1.644
47918SOL    HW245594   7.487   8.932   1.777
47919SOL     OW45595   0.191   9.751   7.447
47919SOL    HW145596   0.150   9.692   7.510
47919SOL    HW245597   0.262   9.700   7.409
47920SOL     OW45598   4.338  11.001   0.415
47920SOL    HW145599   4.363  11.051   0.337
47920SOL    HW245600   4.250  10.969   0.396
47921SOL     OW45601   8.265   9.758   7.203
47921SOL    HW145602   8.188   9.701   7.205
47921SOL    HW245603   8.339   9.697   7.205
47922SOL     OW45604  10.700   9.021   0.092
47922SOL    HW145605  10.658   8.992   0.173
47922SOL    HW245606  10.676   9.113   0.084
47923SOL     OW45607   7.886   7.413   7.854
47923SOL    HW145608   7.798   7.395   7.819
47923SOL    HW245609   7.931   7.458   7.784
47924SOL     OW45610   8.385  13.719  14.130
47924SOL    HW145611   8.436  13.783  14.179
47924SOL    HW245612   8.445  13.683  14.066
47925SOL     OW45613   2.291   1.249   7.375
47925SOL    HW145614   2.346   1.175   7.348
47925SOL    HW245615   2.343   1.295   7.442
47926SOL     OW45616  11.088   5.361   5.936
47926SOL    HW145617  11.133   5.346   6.019
47926SOL    HW245618  11.121   5.292   5.879
47927SOL     OW45619  10.406  13.918   3.242
47927SOL    HW145620  10.373  13.997   3.198
47927SOL    HW245621  10.332  13.857   3.238
47928SOL     OW45622   8.767   5.355   7.827
47928SOL    HW145623   8.704   5.405   7.880
47928SOL    HW245624   8.743   5.373   7.737
47929SOL     OW45625   5.609   1.972  11.362
47929SOL    HW145626   5.691   1.948  11.405
47929SOL    HW245627   5.541   1.944  11.424
47930SOL     OW45628   5.092   2.079   6.466
47930SOL    HW145629   5.003   2.085   6.432
47930SOL    HW245630   5.115   2.169   6.489
47931SOL     OW45631   5.529   2.329   7.351
47931SOL    HW145632   5.509   2.319   7.258
47931SOL    HW245633   5.484   2.256   7.393
47932SOL     OW45634   5.050   1.421  11.304
47932SOL    HW145635   5.103   1.489  11.261
47932SOL    HW245636   5.099   1.340  11.290
47933SOL     OW45637   5.875   1.620   1.468
47933SOL    HW145638   5.947   1.572   1.506
47933SOL    HW245639   5.812   1.630   1.539
47934SOL     OW45640  11.125   6.423   4.667
47934SOL    HW145641  11.063   6.351   4.678
47934SOL    HW245642  11.127   6.466   4.753
47935SOL     OW45643   5.624   1.824   9.466
47935SOL    HW145644   5.534   1.856   9.465
47935SOL    HW245645   5.621   1.746   9.521
47936SOL     OW45646  13.615   3.711   9.126
47936SOL    HW145647  13.523   3.731   9.144
47936SOL    HW245648  13.614   3.620   9.094
47937SOL     OW45649   7.485  10.799   4.011
47937SOL    HW145650   7.428  10.774   4.084
47937SOL    HW245651   7.558  10.738   4.017
47938SOL     OW45652   6.701   0.689   0.299
47938SOL    HW145653   6.693   0.771   0.252
47938SOL    HW245654   6.668   0.708   0.386
47939SOL     OW45655  12.573   1.924   4.015
47939SOL    HW145656  12.630   1.868   3.962
47939SOL    HW245657  12.631   1.964   4.080
47940SOL     OW45658   2.974  10.086   0.351
47940SOL    HW145659   2.952  10.167   0.306
47940SOL    HW245660   2.898  10.029   0.338
47941SOL     OW45661   5.026   0.984   6.136
47941SOL    HW145662   4.976   0.907   6.109
47941SOL    HW245663   5.063   0.960   6.221
47942SOL     OW45664   8.220  14.273  10.045
47942SOL    HW145665   8.262  14.353  10.075
47942SOL    HW245666   8.229  14.275   9.950
47943SOL     OW45667   3.692   2.636  10.346
47943SOL    HW145668   3.666   2.728  10.341
47943SOL    HW245669   3.649   2.602  10.424
47944SOL     OW45670   2.184   7.465  12.858
47944SOL    HW145671   2.124   7.485  12.786
47944SOL    HW245672   2.229   7.385  12.829
47945SOL     OW45673   9.471   5.248   9.534
47945SOL    HW145674   9.538   5.297   9.486
47945SOL    HW245675   9.514   5.167   9.560
47946SOL     OW45676   1.052   2.809   7.100
47946SOL    HW145677   0.968   2.854   7.091
47946SOL    HW245678   1.116   2.869   7.060
47947SOL     OW45679  14.688   5.769   7.404
47947SOL    HW145680  14.676   5.780   7.309
47947SOL    HW245681  14.653   5.682   7.422
47948SOL     OW45682  12.387  10.155  10.164
47948SOL    HW145683  12.322  10.180  10.229
47948SOL    HW245684  12.421  10.238  10.130
47949SOL     OW45685   8.379  13.172   8.388
47949SOL    HW145686   8.461  13.149   8.432
47949SOL    HW245687   8.406  13.227   8.315
47950SOL     OW45688   1.401   8.918   8.293
47950SOL    HW145689   1.419   8.880   8.207
47950SOL    HW245690   1.382   8.843   8.349
47951SOL     OW45691  14.093  11.474   0.476
47951SOL    HW145692  14.128  11.418   0.406
47951SOL    HW245693  14.161  11.541   0.489
47952SOL     OW45694   4.576   7.719   6.326
47952SOL    HW145695   4.609   7.808   6.311
47952SOL    HW245696   4.585   7.675   6.242
47953SOL     OW45697   0.641   5.517   5.871
47953SOL    HW145698   0.606   5.607   5.867
47953SOL    HW245699   0.701   5.518   5.945
47954SOL     OW45700   3.924  12.788  12.410
47954SOL    HW145701   4.014  12.804  12.383
47954SOL    HW245702   3.881  12.873  12.405
47955SOL     OW45703   5.794   9.711   2.262
47955SOL    HW145704   5.874   9.693   2.311
47955SOL    HW245705   5.756   9.625   2.247
47956SOL     OW45706   1.409  14.281   1.953
47956SOL    HW145707   1.390  14.354   1.893
47956SOL    HW245708   1.499  14.257   1.934
47957SOL     OW45709  10.076   9.238   5.430
47957SOL    HW145710  10.159   9.213   5.470
47957SOL    HW245711  10.028   9.156   5.421
47958SOL     OW45712   6.210   2.814   7.904
47958SOL    HW145713   6.280   2.854   7.853
47958SOL    HW245714   6.248   2.731   7.934
47959SOL     OW45715   3.478   2.888   3.429
47959SOL    HW145716   3.552   2.919   3.480
47959SOL    HW245717   3.420   2.963   3.420
47960SOL     OW45718   1.445   8.984   2.117
47960SOL    HW145719   1.504   9.049   2.156
47960SOL    HW245720   1.357   9.018   2.132
47961SOL     OW45721  12.778  11.379  10.694
47961SOL    HW145722  12.742  11.468  10.692
47961SOL    HW245723  12.713  11.328  10.742
47962SOL     OW45724   4.522  14.057  14.598
47962SOL    HW145725   4.602  14.032  14.644
47962SOL    HW245726   4.520  14.000  14.521
47963SOL     OW45727   1.763   0.592   9.459
47963SOL    HW145728   1.686   0.547   9.494
47963SOL    HW245729   1.728   0.670   9.416
47964SOL     OW45730   5.827   4.435   8.777
47964SOL    HW145731   5.852   4.515   8.823
47964SOL    HW245732   5.827   4.367   8.844
47965SOL     OW45733   0.024   3.623   7.332
47965SOL    HW145734  14.873   3.698   7.381
47965SOL    HW245735  14.834   3.605   7.268
47966SOL     OW45736   3.408  12.357  13.395
47966SOL    HW145737   3.312  12.354  13.389
47966SOL    HW245738   3.437  12.285  13.339
47967SOL     OW45739   5.109   9.659   0.283
47967SOL    HW145740   5.016   9.650   0.263
47967SOL    HW245741   5.133   9.575   0.323
47968SOL     OW45742   7.539   8.101  14.212
47968SOL    HW145743   7.554   8.123  14.304
47968SOL    HW245744   7.531   8.185  14.167
47969SOL     OW45745   0.828   5.332   0.326
47969SOL    HW145746   0.911   5.343   0.280
47969SOL    HW245747   0.804   5.420   0.355
47970SOL     OW45748  11.138   3.448  14.169
47970SOL    HW145749  11.043   3.451  14.157
47970SOL    HW245750  11.150   3.409  14.255
47971SOL     OW45751  13.517  13.650  13.814
47971SOL    HW145752  13.530  13.743  13.830
47971SOL    HW245753  13.526  13.609  13.900
47972SOL     OW45754   0.504  11.568  11.920
47972SOL    HW145755   0.507  11.637  11.853
47972SOL    HW245756   0.505  11.486  11.870
47973SOL     OW45757   4.945  13.060   4.113
47973SOL    HW145758   4.939  13.155   4.098
47973SOL    HW245759   5.010  13.050   4.182
47974SOL     OW45760   0.942   6.763   3.675
47974SOL    HW145761   0.918   6.675   3.703
47974SOL    HW245762   0.908   6.769   3.585
47975SOL     OW45763  11.617   7.319   1.227
47975SOL    HW145764  11.543   7.318   1.288
47975SOL    HW245765  11.655   7.406   1.238
47976SOL     OW45766   1.909   4.406   1.032
47976SOL    HW145767   1.890   4.318   1.066
47976SOL    HW245768   1.926   4.392   0.939
47977SOL     OW45769  13.324   4.162   7.154
47977SOL    HW145770  13.242   4.187   7.198
47977SOL    HW245771  13.313   4.193   7.064
47978SOL     OW45772   6.993   5.154   7.136
47978SOL    HW145773   6.971   5.212   7.064
47978SOL    HW245774   7.051   5.089   7.098
47979SOL     OW45775  13.648   8.918  12.181
47979SOL    HW145776  13.708   8.992  12.178
47979SOL    HW245777  13.702   8.842  12.163
47980SOL     OW45778   0.917   4.255   3.885
47980SOL    HW145779   0.931   4.234   3.978
47980SOL    HW245780   0.948   4.178   3.838
47981SOL     OW45781  12.516   3.145  12.833
47981SOL    HW145782  12.491   3.199  12.908
47981SOL    HW245783  12.508   3.055  12.865
47982SOL     OW45784  14.857   5.565   0.043
47982SOL    HW145785   0.072   5.553   0.032
47982SOL    HW245786  14.820   5.478   0.028
47983SOL     OW45787   0.565   4.372   1.551
47983SOL    HW145788   0.509   4.420   1.612
47983SOL    HW245789   0.620   4.440   1.511
47984SOL     OW45790   5.780  14.866   9.583
47984SOL    HW145791   5.857  14.819   9.552
47984SOL    HW245792   5.729  14.801   9.630
47985SOL     OW45793   8.319   1.942  12.869
47985SOL    HW145794   8.275   1.917  12.788
47985SOL    HW245795   8.413   1.935  12.848
47986SOL     OW45796   8.789   7.743   8.160
47986SOL    HW145797   8.767   7.698   8.242
47986SOL    HW245798   8.709   7.736   8.107
47987SOL     OW45799   0.470   0.885  11.172
47987SOL    HW145800   0.550   0.880  11.224
47987SOL    HW245801   0.449   0.794  11.151
47988SOL     OW45802   2.324  11.002   3.354
47988SOL    HW145803   2.303  10.924   3.405
47988SOL    HW245804   2.402  11.038   3.397
47989SOL     OW45805   0.330  10.245   9.091
47989SOL    HW145806   0.285  10.215   9.011
47989SOL    HW245807   0.306  10.180   9.157
47990SOL     OW45808   1.241   0.290   2.099
47990SOL    HW145809   1.334   0.313   2.089
47990SOL    HW245810   1.229   0.213   2.045
47991SOL     OW45811   9.983   0.301   8.329
47991SOL    HW145812  10.016   0.278   8.416
47991SOL    HW245813   9.927   0.377   8.345
47992SOL     OW45814   7.350   3.186   6.406
47992SOL    HW145815   7.340   3.093   6.385
47992SOL    HW245816   7.276   3.205   6.464
47993SOL     OW45817   6.444   5.511   1.231
47993SOL    HW145818   6.416   5.454   1.303
47993SOL    HW245819   6.367   5.565   1.212
47994SOL     OW45820   3.765   1.886  11.502
47994SOL    HW145821   3.738   1.891  11.410
47994SOL    HW245822   3.809   1.801  11.510
47995SOL     OW45823   7.832  10.287   6.775
47995SOL    HW145824   7.850  10.256   6.864
47995SOL    HW245825   7.829  10.208   6.722
47996SOL     OW45826  13.415   6.817   0.843
47996SOL    HW145827  13.397   6.909   0.823
47996SOL    HW245828  13.461   6.784   0.766
47997SOL     OW45829   9.695   4.327  12.865
47997SOL    HW145830   9.619   4.337  12.922
47997SOL    HW245831   9.658   4.300  12.781
47998SOL     OW45832   6.707   1.397  12.913
47998SOL    HW145833   6.748   1.483  12.901
47998SOL    HW245834   6.750   1.341  12.848
47999SOL     OW45835   3.238   6.602   5.713
47999SOL    HW145836   3.319   6.613   5.663
47999SOL    HW245837   3.207   6.514   5.689
48000SOL     OW45838   8.721   1.549  12.217
48000SOL    HW145839   8.651   1.590  12.166
48000SOL    HW245840   8.795   1.546  12.157
48001SOL     OW45841   2.598  14.353   3.363
48001SOL    HW145842   2.510  14.330   3.390
48001SOL    HW245843   2.607  14.316   3.275
48002SOL     OW45844  12.916   5.952   0.092
48002SOL    HW145845  12.938   5.877   0.038
48002SOL    HW245846  13.000   5.989   0.119
48003SOL     OW45847   3.540   3.803  11.900
48003SOL    HW145848   3.542   3.878  11.960
48003SOL    HW245849   3.457   3.759  11.920
48004SOL     OW45850  13.603   3.982   0.021
48004SOL    HW145851  13.574   4.000   0.110
48004SOL    HW245852  13.612   3.887   0.017
48005SOL     OW45853   7.684   0.960  12.321
48005SOL    HW145854   7.690   0.972  12.416
48005SOL    HW245855   7.602   1.005  12.296
48006SOL     OW45856   9.775  14.567   1.816
48006SOL    HW145857   9.754  14.499   1.879
48006SOL    HW245858   9.746  14.648   1.858
48007SOL     OW45859   9.156   8.885   5.649
48007SOL    HW145860   9.061   8.888   5.639
48007SOL    HW245861   9.173   8.926   5.733
48008SOL     OW45862   5.367  10.316   6.485
48008SOL    HW145863   5.408  10.309   6.399
48008SOL    HW245864   5.321  10.399   6.484
48009SOL     OW45865   0.197  13.784   6.131
48009SOL    HW145866   0.283  13.754   6.158
48009SOL    HW245867   0.212  13.831   6.049
48010SOL     OW45868  11.229  10.290   0.380
48010SOL    HW145869  11.213  10.206   0.422
48010SOL    HW245870  11.165  10.294   0.309
48011SOL     OW45871   9.534  13.248  10.461
48011SOL    HW145872   9.552  13.258  10.367
48011SOL    HW245873   9.519  13.154  10.473
48012SOL     OW45874   4.896   1.146  10.732
48012SOL    HW145875   4.917   1.088  10.805
48012SOL    HW245876   4.831   1.207  10.767
48013SOL     OW45877   6.195   9.012  10.406
48013SOL    HW145878   6.270   8.978  10.356
48013SOL    HW245879   6.127   8.945  10.394
48014SOL     OW45880  12.374   4.708   9.896
48014SOL    HW145881  12.401   4.722   9.805
48014SOL    HW245882  12.350   4.795   9.927
48015SOL     OW45883  14.651  11.782  11.553
48015SOL    HW145884  14.728  11.764  11.499
48015SOL    HW245885  14.672  11.742  11.638
48016SOL     OW45886   2.709   0.984   2.162
48016SOL    HW145887   2.683   0.894   2.142
48016SOL    HW245888   2.768   0.975   2.237
48017SOL     OW45889  12.940   2.903  10.483
48017SOL    HW145890  12.872   2.913  10.416
48017SOL    HW245891  12.927   2.814  10.517
48018SOL     OW45892  13.785  12.238   0.177
48018SOL    HW145893  13.744  12.288   0.106
48018SOL    HW245894  13.728  12.253   0.252
48019SOL     OW45895  10.983   3.327   8.548
48019SOL    HW145896  11.022   3.248   8.510
48019SOL    HW245897  11.028   3.338   8.631
48020SOL     OW45898   9.125   7.478   3.582
48020SOL    HW145899   9.172   7.483   3.498
48020SOL    HW245900   9.040   7.517   3.564
48021SOL     OW45901   9.701   3.773   7.481
48021SOL    HW145902   9.731   3.864   7.478
48021SOL    HW245903   9.607   3.778   7.464
48022SOL     OW45904   4.540   7.184  11.497
48022SOL    HW145905   4.459   7.212  11.539
48022SOL    HW245906   4.542   7.231  11.414
48023SOL     OW45907   3.972  12.374  12.046
48023SOL    HW145908   4.007  12.373  11.957
48023SOL    HW245909   3.944  12.284  12.062
48024SOL     OW45910  10.847   0.061   6.923
48024SOL    HW145911  10.784   0.129   6.946
48024SOL    HW245912  10.816  14.863   6.968
48025SOL     OW45913   9.172  10.445   5.323
48025SOL    HW145914   9.130  10.412   5.245
48025SOL    HW245915   9.262  10.464   5.296
48026SOL     OW45916  11.583   4.754   9.263
48026SOL    HW145917  11.675   4.741   9.242
48026SOL    HW245918  11.544   4.666   9.257
48027SOL     OW45919  12.611  12.005   9.851
48027SOL    HW145920  12.590  12.082   9.798
48027SOL    HW245921  12.552  11.937   9.820
48028SOL     OW45922   5.504   7.379  14.148
48028SOL    HW145923   5.443   7.440  14.189
48028SOL    HW245924   5.517   7.413  14.060
48029SOL     OW45925   1.174  14.428  10.593
48029SOL    HW145926   1.243  14.464  10.648
48029SOL    HW245927   1.218  14.360  10.541
48030SOL     OW45928   5.890   7.597  13.039
48030SOL    HW145929   5.812   7.542  13.046
48030SOL    HW245930   5.893   7.644  13.122
48031SOL     OW45931   4.106   3.103   3.778
48031SOL    HW145932   4.168   3.083   3.848
48031SOL    HW245933   4.063   3.019   3.760
48032SOL     OW45934   2.979   3.189   3.436
48032SOL    HW145935   2.952   3.099   3.418
48032SOL    HW245936   3.058   3.202   3.383
48033SOL     OW45937   4.466   3.638   0.232
48033SOL    HW145938   4.394   3.644   0.296
48033SOL    HW245939   4.427   3.669   0.150
48034SOL     OW45940  11.294  12.943  13.377
48034SOL    HW145941  11.345  12.906  13.449
48034SOL    HW245942  11.222  12.989  13.420
48035SOL     OW45943  14.097   3.229   2.747
48035SOL    HW145944  14.056   3.151   2.782
48035SOL    HW245945  14.071   3.231   2.655
48036SOL     OW45946   4.783  14.403   9.673
48036SOL    HW145947   4.778  14.326   9.618
48036SOL    HW245948   4.695  14.441   9.671
48037SOL     OW45949   7.594   7.598   7.545
48037SOL    HW145950   7.543   7.664   7.499
48037SOL    HW245951   7.619   7.640   7.627
48038SOL     OW45952   8.314  10.676  12.634
48038SOL    HW145953   8.272  10.636  12.710
48038SOL    HW245954   8.327  10.767  12.659
48039SOL     OW45955   2.898   5.994   4.451
48039SOL    HW145956   2.946   5.992   4.534
48039SOL    HW245957   2.948   6.053   4.395
48040SOL     OW45958  12.293   6.584   5.143
48040SOL    HW145959  12.290   6.644   5.218
48040SOL    HW245960  12.201   6.568   5.121
48041SOL     OW45961   7.446   9.960  12.322
48041SOL    HW145962   7.447   9.957  12.418
48041SOL    HW245963   7.535   9.984  12.298
48042SOL     OW45964   0.993  10.064  10.968
48042SOL    HW145965   1.027  10.034  10.884
48042SOL    HW245966   1.016  10.156  10.972
48043SOL     OW45967   3.942  11.072   9.691
48043SOL    HW145968   4.036  11.056   9.691
48043SOL    HW245969   3.906  11.006   9.751
48044SOL     OW45970   5.765   2.254  13.329
48044SOL    HW145971   5.797   2.250  13.239
48044SOL    HW245972   5.784   2.167  13.365
48045SOL     OW45973  10.786   5.585  10.590
48045SOL    HW145974  10.880   5.587  10.606
48045SOL    HW245975  10.771   5.657  10.528
48046SOL     OW45976   1.002   2.555  13.557
48046SOL    HW145977   0.934   2.603  13.605
48046SOL    HW245978   0.955   2.483  13.515
48047SOL     OW45979  11.991  10.906   3.866
48047SOL    HW145980  12.073  10.916   3.817
48047SOL    HW245981  12.006  10.956   3.947
48048SOL     OW45982  13.414   3.476   2.864
48048SOL    HW145983  13.467   3.453   2.788
48048SOL    HW245984  13.479   3.502   2.931
48049SOL     OW45985   5.394   0.449  12.944
48049SOL    HW145986   5.454   0.435  13.017
48049SOL    HW245987   5.329   0.510  12.978
48050SOL     OW45988  14.814  12.069   1.335
48050SOL    HW145989  14.731  12.031   1.365
48050SOL    HW245990  14.879  12.002   1.356
48051SOL     OW45991  12.472   1.967   6.879
48051SOL    HW145992  12.440   1.900   6.940
48051SOL    HW245993  12.459   2.050   6.926
48052SOL     OW45994   3.352  10.590  12.909
48052SOL    HW145995   3.342  10.574  12.815
48052SOL    HW245996   3.282  10.651  12.931
48053SOL     OW45997  13.542   1.906   5.505
48053SOL    HW145998  13.452   1.939   5.516
48053SOL    HW245999  13.531   1.811   5.497
48054SOL     OW46000   3.757   1.206  12.826
48054SOL    HW146001   3.675   1.233  12.868
48054SOL    HW246002   3.813   1.283  12.831
48055SOL     OW46003  12.153   6.332   0.544
48055SOL    HW146004  12.143   6.394   0.616
48055SOL    HW246005  12.067   6.291   0.536
48056SOL     OW46006   9.439  14.434  14.487
48056SOL    HW146007   9.478  14.483  14.414
48056SOL    HW246008   9.425  14.346  14.452
48057SOL     OW46009   6.861   1.192  12.072
48057SOL    HW146010   6.767   1.197  12.055
48057SOL    HW246011   6.894   1.280  12.052
48058SOL     OW46012  12.346  12.201  14.794
48058SOL    HW146013  12.399  12.235  14.722
48058SOL    HW246014  12.266  12.168  14.753
48059SOL     OW46015   0.897   7.664   6.452
48059SOL    HW146016   0.923   7.613   6.529
48059SOL    HW246017   0.959   7.737   6.449
48060SOL     OW46018  12.618   6.421   3.230
48060SOL    HW146019  12.557   6.495   3.228
48060SOL    HW246020  12.700   6.459   3.263
48061SOL     OW46021   1.030  11.138   6.345
48061SOL    HW146022   0.963  11.115   6.409
48061SOL    HW246023   1.097  11.071   6.356
48062SOL     OW46024  14.243  13.712  11.214
48062SOL    HW146025  14.302  13.763  11.269
48062SOL    HW246026  14.156  13.732  11.247
48063SOL     OW46027   5.663   2.485   9.332
48063SOL    HW146028   5.620   2.560   9.372
48063SOL    HW246029   5.733   2.461   9.392
48064SOL     OW46030   7.060   8.986  11.358
48064SOL    HW146031   6.990   8.946  11.410
48064SOL    HW246032   7.061   8.934  11.277
48065SOL     OW46033   9.456   8.049   0.095
48065SOL    HW146034   9.371   8.010   0.070
48065SOL    HW246035   9.436   8.141   0.112
48066SOL     OW46036  10.921   1.810   5.483
48066SOL    HW146037  11.010   1.799   5.451
48066SOL    HW246038  10.917   1.758   5.563
48067SOL     OW46039  10.167  13.831   0.468
48067SOL    HW146040  10.238  13.774   0.496
48067SOL    HW246041  10.088  13.776   0.475
48068SOL     OW46042   9.486  13.731  11.576
48068SOL    HW146043   9.436  13.711  11.497
48068SOL    HW246044   9.578  13.722  11.550
48069SOL     OW46045  11.512  12.796   1.638
48069SOL    HW146046  11.469  12.712   1.655
48069SOL    HW246047  11.505  12.844   1.721
48070SOL     OW46048  13.445  10.643   0.117
48070SOL    HW146049  13.463  10.580   0.186
48070SOL    HW246050  13.355  10.625   0.090
48071SOL     OW46051   3.409  11.615  10.900
48071SOL    HW146052   3.472  11.686  10.911
48071SOL    HW246053   3.352  11.645  10.830
48072SOL     OW46054   0.377   9.872   5.750
48072SOL    HW146055   0.390   9.777   5.746
48072SOL    HW246056   0.388   9.901   5.660
48073SOL     OW46057  13.677  11.348   5.401
48073SOL    HW146058  13.627  11.274   5.436
48073SOL    HW246059  13.735  11.308   5.336
48074SOL     OW46060   2.577   3.531   0.874
48074SOL    HW146061   2.553   3.564   0.788
48074SOL    HW246062   2.672   3.529   0.874
48075SOL     OW46063  11.784   5.092   1.277
48075SOL    HW146064  11.720   5.025   1.255
48075SOL    HW246065  11.802   5.137   1.195
48076SOL     OW46066   9.736   8.403   2.397
48076SOL    HW146067   9.792   8.453   2.337
48076SOL    HW246068   9.718   8.322   2.349
48077SOL     OW46069  10.368   4.267   0.688
48077SOL    HW146070  10.361   4.281   0.783
48077SOL    HW246071  10.280   4.239   0.662
48078SOL     OW46072   9.800   4.282   9.424
48078SOL    HW146073   9.844   4.364   9.444
48078SOL    HW246074   9.748   4.301   9.346
48079SOL     OW46075   3.957  13.268   1.918
48079SOL    HW146076   3.876  13.295   1.874
48079SOL    HW246077   3.968  13.176   1.893
48080SOL     OW46078   2.197   8.787   5.168
48080SOL    HW146079   2.266   8.813   5.230
48080SOL    HW246080   2.170   8.700   5.198
48081SOL     OW46081  12.627   6.646   2.567
48081SOL    HW146082  12.702   6.705   2.567
48081SOL    HW246083  12.657   6.569   2.518
48082SOL     OW46084  10.247  12.115  10.298
48082SOL    HW146085  10.301  12.174  10.351
48082SOL    HW246086  10.286  12.118  10.211
48083SOL     OW46087   5.987   1.934   6.176
48083SOL    HW146088   5.959   2.019   6.142
48083SOL    HW246089   5.957   1.933   6.267
48084SOL     OW46090   4.934   6.485   0.198
48084SOL    HW146091   4.998   6.479   0.268
48084SOL    HW246092   4.898   6.574   0.206
48085SOL     OW46093   9.189   2.374   7.232
48085SOL    HW146094   9.169   2.450   7.286
48085SOL    HW246095   9.199   2.303   7.296
48086SOL     OW46096  11.919   0.593   0.732
48086SOL    HW146097  11.846   0.567   0.789
48086SOL    HW246098  11.989   0.618   0.792
48087SOL     OW46099   3.647   1.615  14.741
48087SOL    HW146100   3.661   1.710  14.733
48087SOL    HW246101   3.719   1.585  14.796
48088SOL     OW46102   8.377   0.837   3.793
48088SOL    HW146103   8.364   0.914   3.848
48088SOL    HW246104   8.334   0.766   3.840
48089SOL     OW46105   8.382   3.057   7.070
48089SOL    HW146106   8.375   2.981   7.012
48089SOL    HW246107   8.292   3.075   7.098
48090SOL     OW46108   7.810  10.186   3.314
48090SOL    HW146109   7.839  10.140   3.392
48090SOL    HW246110   7.838  10.277   3.326
48091SOL     OW46111   2.358   9.963   7.778
48091SOL    HW146112   2.271   9.925   7.778
48091SOL    HW246113   2.416   9.891   7.754
48092SOL     OW46114   0.224  12.178  10.246
48092SOL    HW146115   0.205  12.086  10.261
48092SOL    HW246116   0.200  12.194  10.154
48093SOL     OW46117  13.123  13.909   7.136
48093SOL    HW146118  13.126  13.819   7.104
48093SOL    HW246119  13.062  13.954   7.078
48094SOL     OW46120   8.399   0.141   8.960
48094SOL    HW146121   8.466   0.089   8.914
48094SOL    HW246122   8.336   0.076   8.991
48095SOL     OW46123  12.042   1.836   2.765
48095SOL    HW146124  11.993   1.761   2.798
48095SOL    HW246125  12.099   1.861   2.837
48096SOL     OW46126   7.623   7.062   4.022
48096SOL    HW146127   7.577   7.051   4.105
48096SOL    HW246128   7.577   7.004   3.961
48097SOL     OW46129   5.083   4.310   1.233
48097SOL    HW146130   5.092   4.405   1.233
48097SOL    HW246131   4.989   4.295   1.223
48098SOL     OW46132   7.038  11.380  10.877
48098SOL    HW146133   6.943  11.372  10.883
48098SOL    HW246134   7.063  11.314  10.811
48099SOL     OW46135   4.741  11.517  14.339
48099SOL    HW146136   4.767  11.428  14.363
48099SOL    HW246137   4.713  11.557  14.421
48100SOL     OW46138   8.744  11.394   0.721
48100SOL    HW146139   8.728  11.334   0.648
48100SOL    HW246140   8.659  11.403   0.764
48101SOL     OW46141   2.573   9.569   4.643
48101SOL    HW146142   2.517   9.495   4.621
48101SOL    HW246143   2.614   9.593   4.559
48102SOL     OW46144   4.472  13.456  14.854
48102SOL    HW146145   4.456  13.550  14.852
48102SOL    HW246146   4.514  13.437  14.770
48103SOL     OW46147   0.168   7.612   9.510
48103SOL    HW146148   0.214   7.586   9.430
48103SOL    HW246149   0.164   7.532   9.563
48104SOL     OW46150   8.403   4.219  12.194
48104SOL    HW146151   8.401   4.308  12.158
48104SOL    HW246152   8.367   4.229  12.282
48105SOL     OW46153   9.147   0.218   5.082
48105SOL    HW146154   9.111   0.139   5.122
48105SOL    HW246155   9.162   0.277   5.156
48106SOL     OW46156  12.235  11.107   5.179
48106SOL    HW146157  12.204  11.043   5.242
48106SOL    HW246158  12.268  11.180   5.231
48107SOL     OW46159   7.632  13.892  14.251
48107SOL    HW146160   7.684  13.861  14.325
48107SOL    HW246161   7.593  13.974  14.282
48108SOL     OW46162   3.454  12.509  12.406
48108SOL    HW146163   3.372  12.552  12.383
48108SOL    HW246164   3.521  12.560  12.360
48109SOL     OW46165  12.363  10.443  12.764
48109SOL    HW146166  12.458  10.433  12.772
48109SOL    HW246167  12.349  10.466  12.672
48110SOL     OW46168   0.464   2.018  10.709
48110SOL    HW146169   0.445   1.977  10.624
48110SOL    HW246170   0.556   2.042  10.704
48111SOL     OW46171   7.417   3.367   6.860
48111SOL    HW146172   7.438   3.370   6.954
48111SOL    HW246173   7.322   3.355   6.857
48112SOL     OW46174   5.484  12.195   7.238
48112SOL    HW146175   5.434  12.235   7.167
48112SOL    HW246176   5.529  12.268   7.280
48113SOL     OW46177   8.303  13.261  11.342
48113SOL    HW146178   8.393  13.278  11.367
48113SOL    HW246179   8.254  13.264  11.425
48114SOL     OW46180  14.182  12.069  12.469
48114SOL    HW146181  14.192  12.152  12.517
48114SOL    HW246182  14.245  12.010  12.510
48115SOL     OW46183  12.471   1.869  10.651
48115SOL    HW146184  12.412   1.923  10.703
48115SOL    HW246185  12.450   1.779  10.676
48116SOL     OW46186   4.451   4.933   3.156
48116SOL    HW146187   4.524   4.872   3.151
48116SOL    HW246188   4.398   4.913   3.079
48117SOL     OW46189   9.312   9.393   8.753
48117SOL    HW146190   9.241   9.445   8.790
48117SOL    HW246191   9.292   9.389   8.659
48118SOL     OW46192   3.255   9.585   0.112
48118SOL    HW146193   3.282   9.675   0.094
48118SOL    HW246194   3.167   9.593   0.149
48119SOL     OW46195   6.020  11.949   9.226
48119SOL    HW146196   5.955  11.926   9.160
48119SOL    HW246197   6.088  11.996   9.178
48120SOL     OW46198  10.245   5.079   7.899
48120SOL    HW146199  10.287   5.075   7.985
48120SOL    HW246200  10.267   5.166   7.866
48121SOL     OW46201  14.416  11.249  12.939
48121SOL    HW146202  14.336  11.213  12.901
48121SOL    HW246203  14.455  11.177  12.988
48122SOL     OW46204   7.661   7.308  10.738
48122SOL    HW146205   7.637   7.396  10.712
48122SOL    HW246206   7.585   7.276  10.787
48123SOL     OW46207  13.191   0.728   4.327
48123SOL    HW146208  13.244   0.694   4.399
48123SOL    HW246209  13.101   0.710   4.354
48124SOL     OW46210  10.971   3.946   6.859
48124SOL    HW146211  10.936   4.034   6.871
48124SOL    HW246212  10.957   3.926   6.766
48125SOL     OW46213   7.650  13.869   1.819
48125SOL    HW146214   7.608  13.796   1.774
48125SOL    HW246215   7.721  13.828   1.870
48126SOL     OW46216   5.681  13.705   2.541
48126SOL    HW146217   5.713  13.794   2.528
48126SOL    HW246218   5.737  13.669   2.610
48127SOL     OW46219   3.335  11.921  10.705
48127SOL    HW146220   3.430  11.929  10.708
48127SOL    HW246221   3.319  11.826  10.711
48128SOL     OW46222  10.027   8.133  12.742
48128SOL    HW146223  10.021   8.038  12.751
48128SOL    HW246224   9.941   8.160  12.709
48129SOL     OW46225   6.953   1.558  12.304
48129SOL    HW146226   6.869   1.563  12.258
48129SOL    HW246227   6.941   1.611  12.383
48130SOL     OW46228   9.256   4.124  12.687
48130SOL    HW146229   9.260   4.028  12.688
48130SOL    HW246230   9.259   4.149  12.779
48131SOL     OW46231   5.376  11.788  14.640
48131SOL    HW146232   5.351  11.776  14.731
48131SOL    HW246233   5.453  11.733  14.629
48132SOL     OW46234   4.859  14.149  13.484
48132SOL    HW146235   4.938  14.097  13.499
48132SOL    HW246236   4.788  14.085  13.481
48133SOL     OW46237   0.361   8.377  10.359
48133SOL    HW146238   0.428   8.417  10.414
48133SOL    HW246239   0.386   8.402  10.270
48134SOL     OW46240   8.732  13.876  13.230
48134SOL    HW146241   8.747  13.811  13.300
48134SOL    HW246242   8.678  13.943  13.271
48135SOL     OW46243  12.844   2.258   5.469
48135SOL    HW146244  12.875   2.169   5.488
48135SOL    HW246245  12.917   2.315   5.492
48136SOL     OW46246   3.829  12.648   6.864
48136SOL    HW146247   3.821  12.731   6.911
48136SOL    HW246248   3.886  12.668   6.790
48137SOL     OW46249  13.371   9.545   0.886
48137SOL    HW146250  13.323   9.579   0.962
48137SOL    HW246251  13.463   9.562   0.905
48138SOL     OW46252   1.541  13.971   0.830
48138SOL    HW146253   1.608  14.007   0.772
48138SOL    HW246254   1.570  13.882   0.850
48139SOL     OW46255  13.657   8.477  11.341
48139SOL    HW146256  13.563   8.482  11.356
48139SOL    HW246257  13.666   8.442  11.253
48140SOL     OW46258   8.694  12.961   3.298
48140SOL    HW146259   8.769  12.982   3.353
48140SOL    HW246260   8.625  12.939   3.361
48141SOL     OW46261   4.541   4.195   5.053
48141SOL    HW146262   4.590   4.114   5.060
48141SOL    HW246263   4.449   4.169   5.059
48142SOL     OW46264  11.737   1.056   9.782
48142SOL    HW146265  11.783   0.973   9.793
48142SOL    HW246266  11.720   1.086   9.871
48143SOL     OW46267   3.867   8.319   9.611
48143SOL    HW146268   3.867   8.288   9.520
48143SOL    HW246269   3.932   8.389   9.612
48144SOL     OW46270  14.746  12.527   1.306
48144SOL    HW146271  14.803  12.488   1.240
48144SOL    HW246272  14.695  12.453   1.340
48145SOL     OW46273  12.739  14.718  10.719
48145SOL    HW146274  12.658  14.682  10.683
48145SOL    HW246275  12.721  14.811  10.730
48146SOL     OW46276  11.338  13.916   9.584
48146SOL    HW146277  11.256  13.877   9.555
48146SOL    HW246278  11.396  13.911   9.508
48147SOL     OW46279  12.000   6.665  10.289
48147SOL    HW146280  12.003   6.638  10.380
48147SOL    HW246281  12.033   6.755  10.289
48148SOL     OW46282   7.953  12.947   5.928
48148SOL    HW146283   8.015  13.019   5.940
48148SOL    HW246284   7.998  12.870   5.965
48149SOL     OW46285   4.819   2.123   5.284
48149SOL    HW146286   4.777   2.209   5.281
48149SOL    HW246287   4.913   2.143   5.289
48150SOL     OW46288   2.714  12.802   5.435
48150SOL    HW146289   2.719  12.744   5.511
48150SOL    HW246290   2.714  12.744   5.360
48151SOL     OW46291   3.618   7.958  10.979
48151SOL    HW146292   3.586   7.903  11.051
48151SOL    HW246293   3.597   7.909  10.900
48152SOL     OW46294   1.013   9.205   2.767
48152SOL    HW146295   1.006   9.270   2.837
48152SOL    HW246296   1.052   9.252   2.694
48153SOL     OW46297   6.584   6.127   2.674
48153SOL    HW146298   6.668   6.097   2.708
48153SOL    HW246299   6.519   6.074   2.719
48154SOL     OW46300   8.768   3.729   8.023
48154SOL    HW146301   8.826   3.705   8.095
48154SOL    HW246302   8.821   3.784   7.966
48155SOL     OW46303   3.186  14.365   2.243
48155SOL    HW146304   3.149  14.281   2.217
48155SOL    HW246305   3.112  14.425   2.243
48156SOL     OW46306  13.988   6.926  11.706
48156SOL    HW146307  14.005   7.007  11.659
48156SOL    HW246308  14.015   6.944  11.796
48157SOL     OW46309  13.069  14.677  10.485
48157SOL    HW146310  12.986  14.682  10.438
48157SOL    HW246311  13.096  14.586  10.475
48158SOL     OW46312   3.722  13.957  13.176
48158SOL    HW146313   3.635  13.959  13.217
48158SOL    HW246314   3.732  14.044  13.137
48159SOL     OW46315  13.655   0.582  12.575
48159SOL    HW146316  13.604   0.505  12.599
48159SOL    HW246317  13.620   0.651  12.632
48160SOL     OW46318   9.832   2.128  10.772
48160SOL    HW146319   9.917   2.168  10.752
48160SOL    HW246320   9.793   2.112  10.686
48161SOL     OW46321  12.355  13.804  14.552
48161SOL    HW146322  12.308  13.782  14.472
48161SOL    HW246323  12.312  13.884  14.584
48162SOL     OW46324  10.579   6.915   5.128
48162SOL    HW146325  10.580   6.830   5.084
48162SOL    HW246326  10.547   6.896   5.217
48163SOL     OW46327   8.146   1.997   1.326
48163SOL    HW146328   8.161   1.908   1.294
48163SOL    HW246329   8.194   2.000   1.409
48164SOL     OW46330  13.422  10.748  14.409
48164SOL    HW146331  13.349  10.711  14.359
48164SOL    HW246332  13.499  10.702  14.377
48165SOL     OW46333  13.896   0.775   0.185
48165SOL    HW146334  13.821   0.831   0.166
48165SOL    HW246335  13.960   0.798   0.117
48166SOL     OW46336   7.966   6.123   5.261
48166SOL    HW146337   7.950   6.028   5.255
48166SOL    HW246338   8.024   6.133   5.336
48167SOL     OW46339   6.999  12.457   9.679
48167SOL    HW146340   6.941  12.419   9.745
48167SOL    HW246341   7.087  12.431   9.706
48168SOL     OW46342   9.115   3.403  10.265
48168SOL    HW146343   9.045   3.378  10.205
48168SOL    HW246344   9.112   3.499  10.266
48169SOL     OW46345  13.238  13.460  10.275
48169SOL    HW146346  13.188  13.391  10.317
48169SOL    HW246347  13.258  13.522  10.345
48170SOL     OW46348   4.880   4.771   3.222
48170SOL    HW146349   4.876   4.717   3.142
48170SOL    HW246350   4.793   4.761   3.261
48171SOL     OW46351   7.431   9.897  13.557
48171SOL    HW146352   7.431   9.832  13.627
48171SOL    HW246353   7.495   9.865  13.494
48172SOL     OW46354  13.583   3.943   5.548
48172SOL    HW146355  13.563   4.029   5.513
48172SOL    HW246356  13.564   3.950   5.642
48173SOL     OW46357   4.336  13.116  14.100
48173SOL    HW146358   4.264  13.159  14.146
48173SOL    HW246359   4.294  13.062  14.034
48174SOL     OW46360   1.928   8.862   7.363
48174SOL    HW146361   1.987   8.874   7.438
48174SOL    HW246362   1.850   8.821   7.401
48175SOL     OW46363   6.356   5.231   4.310
48175SOL    HW146364   6.404   5.300   4.263
48175SOL    HW246365   6.410   5.212   4.387
48176SOL     OW46366  11.959   8.376   1.533
48176SOL    HW146367  11.912   8.379   1.450
48176SOL    HW246368  11.909   8.433   1.591
48177SOL     OW46369   2.608   1.294   9.735
48177SOL    HW146370   2.648   1.347   9.803
48177SOL    HW246371   2.672   1.225   9.716
48178SOL     OW46372   3.561   2.296   4.420
48178SOL    HW146373   3.618   2.341   4.358
48178SOL    HW246374   3.476   2.291   4.377
48179SOL     OW46375   6.172   0.711   9.573
48179SOL    HW146376   6.136   0.668   9.650
48179SOL    HW246377   6.131   0.667   9.499
48180SOL     OW46378   1.831  11.602   2.419
48180SOL    HW146379   1.846  11.525   2.364
48180SOL    HW246380   1.746  11.587   2.460
48181SOL     OW46381  12.238   6.806   3.059
48181SOL    HW146382  12.290   6.837   3.134
48181SOL    HW246383  12.209   6.719   3.085
48182SOL     OW46384  12.661  14.669   2.039
48182SOL    HW146385  12.656  14.584   1.994
48182SOL    HW246386  12.570  14.700   2.040
48183SOL     OW46387  13.503   2.945   4.823
48183SOL    HW146388  13.530   2.892   4.898
48183SOL    HW246389  13.527   2.893   4.747
48184SOL     OW46390   7.829   0.715   0.249
48184SOL    HW146391   7.855   0.738   0.339
48184SOL    HW246392   7.777   0.789   0.220
48185SOL     OW46393   5.398   8.760  11.501
48185SOL    HW146394   5.416   8.848  11.535
48185SOL    HW246395   5.403   8.768  11.406
48186SOL     OW46396   7.734   3.710   4.836
48186SOL    HW146397   7.814   3.762   4.830
48186SOL    HW246398   7.765   3.620   4.851
48187SOL     OW46399  13.790   1.803  10.612
48187SOL    HW146400  13.767   1.807  10.705
48187SOL    HW246401  13.883   1.826  10.610
48188SOL     OW46402   4.870   2.071   4.730
48188SOL    HW146403   4.796   2.108   4.778
48188SOL    HW246404   4.930   2.041   4.798
48189SOL     OW46405   4.931   4.301  12.862
48189SOL    HW146406   4.974   4.217  12.853
48189SOL    HW246407   4.848   4.281  12.906
48190SOL     OW46408  11.976   7.391  10.802
48190SOL    HW146409  12.048   7.328  10.803
48190SOL    HW246410  11.919   7.362  10.873
48191SOL     OW46411   0.515   6.804   2.564
48191SOL    HW146412   0.525   6.768   2.652
48191SOL    HW246413   0.487   6.895   2.579
48192SOL     OW46414   0.981  14.670   2.165
48192SOL    HW146415   0.902  14.632   2.204
48192SOL    HW246416   1.001  14.746   2.221
48193SOL     OW46417   9.809  12.528   5.739
48193SOL    HW146418   9.812  12.508   5.832
48193SOL    HW246419   9.732  12.481   5.707
48194SOL     OW46420   2.960   3.414  10.924
48194SOL    HW146421   2.928   3.488  10.976
48194SOL    HW246422   2.890   3.349  10.930
48195SOL     OW46423  12.823   1.308   6.263
48195SOL    HW146424  12.760   1.337   6.330
48195SOL    HW246425  12.879   1.385   6.248
48196SOL     OW46426  10.429   0.034   2.443
48196SOL    HW146427  10.507  14.862   2.424
48196SOL    HW246428  10.459   0.125   2.440
48197SOL     OW46429   9.318  10.373   9.754
48197SOL    HW146430   9.337  10.348   9.845
48197SOL    HW246431   9.355  10.302   9.702
48198SOL     OW46432   6.801  12.915   4.622
48198SOL    HW146433   6.784  13.006   4.596
48198SOL    HW246434   6.876  12.920   4.681
48199SOL     OW46435   0.421  10.508   9.056
48199SOL    HW146436   0.377  10.425   9.042
48199SOL    HW246437   0.504  10.501   9.008
48200SOL     OW46438   8.044   1.449   5.295
48200SOL    HW146439   7.957   1.443   5.257
48200SOL    HW246440   8.066   1.542   5.292
48201SOL     OW46441   1.770   8.021   2.747
48201SOL    HW146442   1.709   7.947   2.741
48201SOL    HW246443   1.717   8.092   2.783
48202SOL     OW46444   2.460   9.663  11.949
48202SOL    HW146445   2.381   9.693  11.994
48202SOL    HW246446   2.503   9.743  11.918
48203SOL     OW46447   4.808   1.115  12.366
48203SOL    HW146448   4.816   1.191  12.308
48203SOL    HW246449   4.779   1.044  12.309
48204SOL     OW46450   7.237  12.677  11.753
48204SOL    HW146451   7.332  12.665  11.748
48204SOL    HW246452   7.202  12.627  11.679
48205SOL     OW46453   2.104   4.951  11.544
48205SOL    HW146454   2.040   5.020  11.558
48205SOL    HW246455   2.083   4.916  11.458
48206SOL     OW46456  12.000   6.573  14.763
48206SOL    HW146457  11.981   6.481  14.745
48206SOL    HW246458  11.939   6.622  14.708
48207SOL     OW46459  11.305   8.429   1.714
48207SOL    HW146460  11.347   8.511   1.739
48207SOL    HW246461  11.372   8.362   1.727
48208SOL     OW46462  13.641   5.659   8.282
48208SOL    HW146463  13.547   5.666   8.270
48208SOL    HW246464  13.667   5.585   8.227
48209SOL     OW46465  10.547   0.107  11.910
48209SOL    HW146466  10.565   0.092  11.817
48209SOL    HW246467  10.600   0.043  11.956
48210SOL     OW46468   0.624   7.891   5.970
48210SOL    HW146469   0.598   7.833   5.898
48210SOL    HW246470   0.564   7.870   6.041
48211SOL     OW46471   0.817  13.406   2.019
48211SOL    HW146472   0.805  13.480   2.078
48211SOL    HW246473   0.821  13.329   2.076
48212SOL     OW46474  12.937   1.498   4.543
48212SOL    HW146475  12.973   1.586   4.553
48212SOL    HW246476  12.861   1.510   4.486
48213SOL     OW46477  12.064   0.259   5.175
48213SOL    HW146478  11.986   0.239   5.124
48213SOL    HW246479  12.051   0.214   5.258
48214SOL     OW46480   1.282  13.131   5.927
48214SOL    HW146481   1.366  13.103   5.962
48214SOL    HW246482   1.281  13.098   5.837
48215SOL     OW46483  10.490   4.997  13.578
48215SOL    HW146484  10.477   5.050  13.499
48215SOL    HW246485  10.576   4.956  13.564
48216SOL     OW46486   6.518  10.508   5.410
48216SOL    HW146487   6.493  10.441   5.347
48216SOL    HW246488   6.613  10.514   5.404
48217SOL     OW46489   8.471  10.309   8.864
48217SOL    HW146490   8.544  10.351   8.819
48217SOL    HW246491   8.393  10.336   8.815
48218SOL     OW46492  13.396  13.347   9.439
48218SOL    HW146493  13.418  13.409   9.508
48218SOL    HW246494  13.305  13.322   9.458
48219SOL     OW46495   5.302   8.110   5.605
48219SOL    HW146496   5.270   8.195   5.632
48219SOL    HW246497   5.322   8.120   5.512
48220SOL     OW46498   7.476   1.159  10.338
48220SOL    HW146499   7.538   1.097  10.299
48220SOL    HW246500   7.390   1.118  10.325
48221SOL     OW46501   5.329   8.270  13.218
48221SOL    HW146502   5.280   8.263  13.136
48221SOL    HW246503   5.414   8.231  13.199
48222SOL     OW46504   4.306   8.624  14.732
48222SOL    HW146505   4.309   8.600  14.824
48222SOL    HW246506   4.287   8.718  14.732
48223SOL     OW46507  13.294   2.420   2.915
48223SOL    HW146508  13.232   2.485   2.948
48223SOL    HW246509  13.261   2.398   2.828
48224SOL     OW46510   9.498   7.439   1.139
48224SOL    HW146511   9.418   7.387   1.140
48224SOL    HW246512   9.498   7.482   1.054
48225SOL     OW46513   0.759  13.234   0.551
48225SOL    HW146514   0.756  13.139   0.542
48225SOL    HW246515   0.767  13.266   0.461
48226SOL     OW46516   1.849   7.480   1.004
48226SOL    HW146517   1.759   7.448   1.013
48226SOL    HW246518   1.845   7.542   0.931
48227SOL     OW46519  12.346   2.948   1.025
48227SOL    HW146520  12.399   2.907   0.957
48227SOL    HW246521  12.257   2.945   0.990
48228SOL     OW46522   3.915   8.051   1.818
48228SOL    HW146523   3.929   8.074   1.910
48228SOL    HW246524   3.918   8.134   1.771
48229SOL     OW46525  11.499   8.919  14.209
48229SOL    HW146526  11.585   8.958  14.196
48229SOL    HW246527  11.451   8.984  14.260
48230SOL     OW46528   6.970   3.075   1.828
48230SOL    HW146529   6.982   3.170   1.819
48230SOL    HW246530   6.914   3.065   1.905
48231SOL     OW46531   4.345  10.359  11.358
48231SOL    HW146532   4.280  10.408  11.408
48231SOL    HW246533   4.298  10.332  11.278
48232SOL     OW46534   2.846   6.635  14.507
48232SOL    HW146535   2.759   6.665  14.480
48232SOL    HW246536   2.896   6.632  14.425
48233SOL     OW46537   0.247   1.438   0.879
48233SOL    HW146538   0.237   1.533   0.881
48233SOL    HW246539   0.333   1.422   0.919
48234SOL     OW46540   3.885   7.901  11.448
48234SOL    HW146541   3.801   7.904  11.492
48234SOL    HW246542   3.931   7.980  11.479
48235SOL     OW46543  10.374  14.825   1.316
48235SOL    HW146544  10.374  14.799   1.224
48235SOL    HW246545  10.286  14.859   1.332
48236SOL     OW46546  11.457   8.215   3.498
48236SOL    HW146547  11.410   8.210   3.414
48236SOL    HW246548  11.387   8.218   3.564
48237SOL     OW46549   1.445   6.928  11.653
48237SOL    HW146550   1.406   6.854  11.607
48237SOL    HW246551   1.533   6.898  11.677
48238SOL     OW46552   8.906  11.031  12.627
48238SOL    HW146553   8.894  11.055  12.535
48238SOL    HW246554   8.818  11.010  12.658
48239SOL     OW46555  14.272   8.654   4.541
48239SOL    HW146556  14.258   8.577   4.485
48239SOL    HW246557  14.261   8.728   4.481
48240SOL     OW46558   9.831   7.070  13.814
48240SOL    HW146559   9.891   7.101  13.881
48240SOL    HW246560   9.849   6.976  13.808
48241SOL     OW46561   8.183   9.398   5.370
48241SOL    HW146562   8.203   9.439   5.286
48241SOL    HW246563   8.088   9.384   5.369
48242SOL     OW46564   2.305  14.308   9.433
48242SOL    HW146565   2.390  14.287   9.393
48242SOL    HW246566   2.247  14.237   9.403
48243SOL     OW46567  13.084   4.650   0.121
48243SOL    HW146568  13.175   4.644   0.093
48243SOL    HW246569  13.052   4.732   0.084
48244SOL     OW46570  12.527  10.743   7.506
48244SOL    HW146571  12.516  10.810   7.573
48244SOL    HW246572  12.449  10.751   7.450
48245SOL     OW46573   5.933   1.434   4.678
48245SOL    HW146574   5.936   1.488   4.756
48245SOL    HW246575   5.926   1.344   4.711
48246SOL     OW46576   7.062   9.326   4.280
48246SOL    HW146577   7.139   9.306   4.226
48246SOL    HW246578   7.099   9.366   4.360
48247SOL     OW46579  10.222  13.017   3.127
48247SOL    HW146580  10.226  13.003   3.033
48247SOL    HW246581  10.212  12.930   3.164
48248SOL     OW46582   4.319  14.405  13.981
48248SOL    HW146583   4.250  14.470  13.970
48248SOL    HW246584   4.276  14.321  13.964
48249SOL     OW46585  11.296  13.545  12.588
48249SOL    HW146586  11.212  13.534  12.543
48249SOL    HW246587  11.280  13.516  12.677
48250SOL     OW46588   2.544   7.410   3.815
48250SOL    HW146589   2.605   7.378   3.882
48250SOL    HW246590   2.572   7.500   3.798
48251SOL     OW46591  13.223   1.601  10.912
48251SOL    HW146592  13.238   1.525  10.969
48251SOL    HW246593  13.130   1.595  10.889
48252SOL     OW46594   5.192  10.399  13.653
48252SOL    HW146595   5.155  10.481  13.619
48252SOL    HW246596   5.116  10.343  13.669
48253SOL     OW46597   8.166   4.379  10.246
48253SOL    HW146598   8.118   4.377  10.328
48253SOL    HW246599   8.251   4.417  10.268
48254SOL     OW46600  13.855   2.295  10.541
48254SOL    HW146601  13.788   2.353  10.578
48254SOL    HW246602  13.807   2.215  10.519
48255SOL     OW46603   7.678   1.600   1.160
48255SOL    HW146604   7.643   1.620   1.073
48255SOL    HW246605   7.694   1.686   1.200
48256SOL     OW46606  12.981   6.128  14.673
48256SOL    HW146607  13.040   6.055  14.653
48256SOL    HW246608  13.039   6.204  14.683
48257SOL     OW46609   1.833   5.536   5.368
48257SOL    HW146610   1.739   5.554   5.364
48257SOL    HW246611   1.839   5.441   5.375
48258SOL     OW46612   8.992   4.366  11.581
48258SOL    HW146613   8.929   4.411  11.639
48258SOL    HW246614   8.954   4.279  11.570
48259SOL     OW46615   1.322   0.125   2.450
48259SOL    HW146616   1.293   0.053   2.395
48259SOL    HW246617   1.326   0.089   2.538
48260SOL     OW46618  14.866  11.021   9.064
48260SOL    HW146619  14.872  10.926   9.057
48260SOL    HW246620   0.075  11.052   9.045
48261SOL     OW46621  11.362   0.260   7.060
48261SOL    HW146622  11.356   0.328   7.126
48261SOL    HW246623  11.299   0.193   7.088
48262SOL     OW46624   6.094   6.045   5.599
48262SOL    HW146625   6.182   6.082   5.587
48262SOL    HW246626   6.052   6.056   5.513
48263SOL     OW46627  10.855   8.054   2.772
48263SOL    HW146628  10.843   8.126   2.834
48263SOL    HW246629  10.949   8.036   2.773
48264SOL     OW46630  12.121   2.186  13.181
48264SOL    HW146631  12.067   2.181  13.102
48264SOL    HW246632  12.160   2.099  13.189
48265SOL     OW46633   2.546   5.489   4.172
48265SOL    HW146634   2.540   5.401   4.208
48265SOL    HW246635   2.635   5.518   4.194
48266SOL     OW46636  13.558  13.802   5.039
48266SOL    HW146637  13.645  13.828   5.066
48266SOL    HW246638  13.513  13.884   5.020
48267SOL     OW46639   3.615  13.028   4.591
48267SOL    HW146640   3.609  12.980   4.674
48267SOL    HW246641   3.708  13.050   4.583
48268SOL     OW46642  14.778   3.948  14.621
48268SOL    HW146643  14.743   4.034  14.644
48268SOL    HW246644  14.734   3.925  14.540
48269SOL     OW46645  11.133   7.168  11.151
48269SOL    HW146646  11.160   7.201  11.236
48269SOL    HW246647  11.038   7.179  11.150
48270SOL     OW46648   0.597   4.168   8.904
48270SOL    HW146649   0.595   4.110   8.827
48270SOL    HW246650   0.524   4.137   8.958
48271SOL     OW46651   6.949  10.404  13.589
48271SOL    HW146652   7.010  10.339  13.623
48271SOL    HW246653   6.869  10.391  13.641
48272SOL     OW46654   8.887   1.371   5.316
48272SOL    HW146655   8.972   1.388   5.355
48272SOL    HW246656   8.830   1.350   5.390
48273SOL     OW46657   8.003   7.537  12.515
48273SOL    HW146658   8.024   7.611  12.571
48273SOL    HW246659   8.058   7.548  12.437
48274SOL     OW46660  12.542   1.032   1.650
48274SOL    HW146661  12.633   1.062   1.658
48274SOL    HW246662  12.493   1.110   1.625
48275SOL     OW46663  13.579   3.380  14.734
48275SOL    HW146664  13.587   3.359  14.827
48275SOL    HW246665  13.493   3.421  14.725
48276SOL     OW46666   3.441  10.860   7.538
48276SOL    HW146667   3.484  10.863   7.453
48276SOL    HW246668   3.506  10.821   7.597
48277SOL     OW46669   8.489   1.080   6.447
48277SOL    HW146670   8.570   1.122   6.417
48277SOL    HW246671   8.511   1.045   6.533
48278SOL     OW46672   6.317  14.673  10.230
48278SOL    HW146673   6.363  14.654  10.148
48278SOL    HW246674   6.225  14.683  10.205
48279SOL     OW46675  11.007  11.354   1.029
48279SOL    HW146676  10.943  11.420   1.056
48279SOL    HW246677  11.087  11.378   1.077
48280SOL     OW46678   9.912  14.704   9.548
48280SOL    HW146679   9.831  14.692   9.598
48280SOL    HW246680   9.935  14.616   9.519
48281SOL     OW46681   6.543  14.633  10.655
48281SOL    HW146682   6.478  14.674  10.599
48281SOL    HW246683   6.531  14.539  10.642
48282SOL     OW46684  11.670   1.884   2.881
48282SOL    HW146685  11.725   1.948   2.836
48282SOL    HW246686  11.697   1.890   2.973
48283SOL     OW46687   7.806  10.928   5.349
48283SOL    HW146688   7.800  10.838   5.380
48283SOL    HW246689   7.875  10.967   5.403
48284SOL     OW46690   9.051  11.789   5.828
48284SOL    HW146691   9.005  11.820   5.749
48284SOL    HW246692   9.139  11.767   5.798
48285SOL     OW46693   5.150  11.309  10.313
48285SOL    HW146694   5.151  11.277  10.223
48285SOL    HW246695   5.184  11.237  10.365
48286SOL     OW46696   2.367  13.074  10.973
48286SOL    HW146697   2.393  13.156  10.930
48286SOL    HW246698   2.308  13.032  10.911
48287SOL     OW46699   6.151  12.813   3.934
48287SOL    HW146700   6.219  12.867   3.975
48287SOL    HW246701   6.119  12.865   3.861
48288SOL     OW46702   7.887   7.150  10.789
48288SOL    HW146703   7.923   7.106  10.712
48288SOL    HW246704   7.820   7.208  10.754
48289SOL     OW46705   3.790   9.679   2.466
48289SOL    HW146706   3.883   9.701   2.476
48289SOL    HW246707   3.790   9.586   2.444
48290SOL     OW46708   9.620   2.741   7.275
48290SOL    HW146709   9.548   2.798   7.247
48290SOL    HW246710   9.623   2.751   7.370
48291SOL     OW46711   5.221   7.267   4.584
48291SOL    HW146712   5.139   7.221   4.603
48291SOL    HW246713   5.248   7.235   4.498
48292SOL     OW46714   7.897   4.876   1.557
48292SOL    HW146715   7.802   4.884   1.564
48292SOL    HW246716   7.931   4.948   1.610
48293SOL     OW46717   6.788   9.207   4.971
48293SOL    HW146718   6.834   9.123   4.970
48293SOL    HW246719   6.806   9.245   4.885
48294SOL     OW46720   4.634   9.954   6.192
48294SOL    HW146721   4.623  10.000   6.109
48294SOL    HW246722   4.571   9.995   6.251
48295SOL     OW46723   4.998  12.693   6.066
48295SOL    HW146724   5.015  12.764   6.128
48295SOL    HW246725   5.066  12.703   5.999
48296SOL     OW46726  12.231   6.814   7.052
48296SOL    HW146727  12.313   6.767   7.068
48296SOL    HW246728  12.243   6.899   7.094
48297SOL     OW46729   2.818  12.981   0.476
48297SOL    HW146730   2.836  13.075   0.481
48297SOL    HW246731   2.763  12.972   0.397
48298SOL     OW46732   0.437   5.296   8.198
48298SOL    HW146733   0.507   5.361   8.191
48298SOL    HW246734   0.358   5.343   8.173
48299SOL     OW46735  12.830   9.278   7.024
48299SOL    HW146736  12.758   9.300   7.083
48299SOL    HW246737  12.815   9.330   6.946
48300SOL     OW46738  14.173   1.726   9.346
48300SOL    HW146739  14.208   1.805   9.305
48300SOL    HW246740  14.203   1.654   9.289
48301SOL     OW46741   5.492   2.508   0.496
48301SOL    HW146742   5.536   2.436   0.451
48301SOL    HW246743   5.406   2.515   0.453
48302SOL     OW46744   6.636   6.671   7.725
48302SOL    HW146745   6.667   6.753   7.763
48302SOL    HW246746   6.672   6.603   7.782
48303SOL     OW46747   9.597  14.656   3.309
48303SOL    HW146748   9.589  14.564   3.332
48303SOL    HW246749   9.685  14.664   3.271
48304SOL     OW46750   9.664  12.836  12.485
48304SOL    HW146751   9.665  12.742  12.468
48304SOL    HW246752   9.756  12.861  12.490
48305SOL     OW46753   4.347   5.336   6.573
48305SOL    HW146754   4.381   5.324   6.484
48305SOL    HW246755   4.416   5.301   6.629
48306SOL     OW46756  13.881   2.018   9.391
48306SOL    HW146757  13.946   2.086   9.411
48306SOL    HW246758  13.890   1.955   9.463
48307SOL     OW46759   5.082   9.110  10.732
48307SOL    HW146760   5.119   9.107  10.644
48307SOL    HW246761   5.000   9.061  10.725
48308SOL     OW46762  10.765   4.872  13.942
48308SOL    HW146763  10.860   4.860  13.938
48308SOL    HW246764  10.730   4.787  13.915
48309SOL     OW46765   6.679   4.123   5.377
48309SOL    HW146766   6.757   4.163   5.338
48309SOL    HW246767   6.714   4.063   5.444
48310SOL     OW46768   3.223  11.564  14.781
48310SOL    HW146769   3.165  11.532  14.712
48310SOL    HW246770   3.303  11.512  14.772
48311SOL     OW46771  14.561   0.718   3.390
48311SOL    HW146772  14.566   0.624   3.411
48311SOL    HW246773  14.639   0.735   3.338
48312SOL     OW46774  13.115   2.497  11.351
48312SOL    HW146775  13.154   2.453  11.275
48312SOL    HW246776  13.079   2.579  11.316
48313SOL     OW46777   7.572   4.808   7.760
48313SOL    HW146778   7.555   4.820   7.666
48313SOL    HW246779   7.486   4.788   7.797
48314SOL     OW46780   6.251   8.255  11.551
48314SOL    HW146781   6.250   8.320  11.481
48314SOL    HW246782   6.288   8.176  11.511
48315SOL     OW46783   3.344  10.643  12.628
48315SOL    HW146784   3.434  10.651  12.597
48315SOL    HW246785   3.311  10.564  12.585
48316SOL     OW46786   6.367   0.792   1.729
48316SOL    HW146787   6.311   0.835   1.793
48316SOL    HW246788   6.318   0.715   1.701
48317SOL     OW46789  11.815  11.128   1.858
48317SOL    HW146790  11.723  11.108   1.847
48317SOL    HW246791  11.852  11.126   1.770
48318SOL     OW46792   4.540  12.223  11.329
48318SOL    HW146793   4.509  12.279  11.258
48318SOL    HW246794   4.466  12.218  11.389
48319SOL     OW46795   9.117   9.275   2.864
48319SOL    HW146796   9.138   9.232   2.947
48319SOL    HW246797   9.172   9.231   2.799
48320SOL     OW46798   4.796   0.148   8.568
48320SOL    HW146799   4.740   0.177   8.496
48320SOL    HW246800   4.772   0.056   8.582
48321SOL     OW46801   7.330   4.081   5.227
48321SOL    HW146802   7.372   4.164   5.247
48321SOL    HW246803   7.320   4.081   5.132
48322SOL     OW46804   7.400   9.706  13.729
48322SOL    HW146805   7.305   9.698  13.742
48322SOL    HW246806   7.437   9.636  13.782
48323SOL     OW46807   6.074  14.533   7.441
48323SOL    HW146808   5.984  14.544   7.474
48323SOL    HW246809   6.064  14.533   7.346
48324SOL     OW46810   6.633   1.874   7.350
48324SOL    HW146811   6.687   1.817   7.405
48324SOL    HW246812   6.556   1.893   7.405
48325SOL     OW46813   6.451  11.413   9.973
48325SOL    HW146814   6.534  11.365   9.962
48325SOL    HW246815   6.392  11.375   9.908
48326SOL     OW46816   5.424  12.225   6.136
48326SOL    HW146817   5.389  12.150   6.089
48326SOL    HW246818   5.348  12.279   6.155
48327SOL     OW46819   6.827  13.693   5.698
48327SOL    HW146820   6.872  13.617   5.664
48327SOL    HW246821   6.764  13.717   5.629
48328SOL     OW46822   4.483   7.837   4.842
48328SOL    HW146823   4.579   7.840   4.836
48328SOL    HW246824   4.454   7.915   4.795
48329SOL     OW46825  12.813   7.459  11.858
48329SOL    HW146826  12.772   7.458  11.944
48329SOL    HW246827  12.897   7.503  11.872
48330SOL     OW46828   6.017  13.500  13.533
48330SOL    HW146829   6.077  13.440  13.577
48330SOL    HW246830   6.042  13.587  13.564
48331SOL     OW46831   4.658  10.049   3.478
48331SOL    HW146832   4.568  10.068   3.501
48331SOL    HW246833   4.653   9.968   3.427
48332SOL     OW46834  11.467   5.320  11.375
48332SOL    HW146835  11.418   5.378  11.316
48332SOL    HW246836  11.429   5.335  11.461
48333SOL     OW46837   0.183   2.788   6.805
48333SOL    HW146838   0.106   2.737   6.781
48333SOL    HW246839   0.232   2.731   6.864
48334SOL     OW46840   6.051   6.847   9.629
48334SOL    HW146841   6.134   6.803   9.610
48334SOL    HW246842   6.046   6.849   9.725
48335SOL     OW46843  14.237   9.061  11.205
48335SOL    HW146844  14.226   9.070  11.300
48335SOL    HW246845  14.270   9.146  11.177
48336SOL     OW46846   9.785  13.734  12.052
48336SOL    HW146847   9.730  13.795  12.102
48336SOL    HW246848   9.826  13.679  12.118
48337SOL     OW46849  10.977   3.548   4.492
48337SOL    HW146850  10.940   3.630   4.525
48337SOL    HW246851  10.903   3.505   4.448
48338SOL     OW46852   8.478   4.084  13.066
48338SOL    HW146853   8.406   4.126  13.020
48338SOL    HW246854   8.541   4.154  13.083
48339SOL     OW46855  13.885  12.765   4.814
48339SOL    HW146856  13.824  12.835   4.789
48339SOL    HW246857  13.834  12.685   4.806
48340SOL     OW46858   4.208   6.046  12.602
48340SOL    HW146859   4.282   6.076  12.550
48340SOL    HW246860   4.201   5.952  12.583
48341SOL     OW46861  11.776  10.445  12.486
48341SOL    HW146862  11.787  10.445  12.581
48341SOL    HW246863  11.712  10.376  12.469
48342SOL     OW46864   5.157   8.375  12.750
48342SOL    HW146865   5.211   8.306  12.711
48342SOL    HW246866   5.159   8.447  12.686
48343SOL     OW46867   1.954  12.446   2.020
48343SOL    HW146868   1.895  12.521   2.023
48343SOL    HW246869   2.038  12.480   2.049
48344SOL     OW46870   5.236  13.656  13.953
48344SOL    HW146871   5.264  13.690  14.037
48344SOL    HW246872   5.209  13.565  13.971
48345SOL     OW46873   1.795  11.332   7.892
48345SOL    HW146874   1.879  11.349   7.848
48345SOL    HW246875   1.783  11.237   7.884
48346SOL     OW46876  11.997   1.850  12.655
48346SOL    HW146877  12.057   1.911  12.612
48346SOL    HW246878  11.939   1.821  12.585
48347SOL     OW46879  10.397  13.636   1.819
48347SOL    HW146880  10.330  13.692   1.781
48347SOL    HW246881  10.458  13.696   1.861
48348SOL     OW46882   1.478   3.899   9.272
48348SOL    HW146883   1.503   3.924   9.361
48348SOL    HW246884   1.452   3.808   9.279
48349SOL     OW46885  12.582   4.836   3.728
48349SOL    HW146886  12.541   4.750   3.733
48349SOL    HW246887  12.537   4.880   3.656
48350SOL     OW46888   6.481  12.032   3.464
48350SOL    HW146889   6.551  12.094   3.442
48350SOL    HW246890   6.487  12.024   3.559
48351SOL     OW46891   5.110   3.801   0.090
48351SOL    HW146892   5.046   3.736   0.121
48351SOL    HW246893   5.168   3.752   0.032
48352SOL     OW46894  12.599  10.330   6.884
48352SOL    HW146895  12.670  10.299   6.828
48352SOL    HW246896  12.567  10.409   6.841
48353SOL     OW46897  14.281   1.783   7.543
48353SOL    HW146898  14.329   1.818   7.468
48353SOL    HW246899  14.234   1.707   7.508
48354SOL     OW46900   4.313   1.928   3.342
48354SOL    HW146901   4.237   1.908   3.397
48354SOL    HW246902   4.275   1.943   3.255
48355SOL     OW46903   4.310   6.162   6.363
48355SOL    HW146904   4.331   6.243   6.411
48355SOL    HW246905   4.273   6.192   6.280
48356SOL     OW46906   3.020   5.759   0.237
48356SOL    HW146907   3.092   5.701   0.215
48356SOL    HW246908   2.946   5.701   0.253
48357SOL     OW46909   2.221   4.170  13.348
48357SOL    HW146910   2.308   4.209  13.355
48357SOL    HW246911   2.162   4.236  13.383
48358SOL     OW46912   2.602   6.337   5.302
48358SOL    HW146913   2.526   6.334   5.360
48358SOL    HW246914   2.582   6.406   5.239
48359SOL     OW46915   9.211  11.563   3.299
48359SOL    HW146916   9.139  11.626   3.296
48359SOL    HW246917   9.290  11.616   3.312
48360SOL     OW46918   3.663   3.522   8.235
48360SOL    HW146919   3.584   3.467   8.237
48360SOL    HW246920   3.636   3.600   8.188
48361SOL     OW46921  12.356   4.779  11.598
48361SOL    HW146922  12.348   4.837  11.523
48361SOL    HW246923  12.403   4.702  11.565
48362SOL     OW46924  11.384   2.927   4.387
48362SOL    HW146925  11.362   3.020   4.378
48362SOL    HW246926  11.449   2.925   4.458
48363SOL     OW46927   3.742   8.997  12.701
48363SOL    HW146928   3.774   9.082  12.669
48363SOL    HW246929   3.821   8.943  12.708
48364SOL     OW46930   2.997   4.012   1.830
48364SOL    HW146931   3.057   3.938   1.839
48364SOL    HW246932   2.999   4.033   1.736
48365SOL     OW46933   0.523   0.630  10.549
48365SOL    HW146934   0.614   0.620  10.522
48365SOL    HW246935   0.492   0.541  10.561
48366SOL     OW46936  13.842   9.745  13.701
48366SOL    HW146937  13.853   9.691  13.622
48366SOL    HW246938  13.880   9.829  13.678
48367SOL     OW46939  11.338  12.787   2.874
48367SOL    HW146940  11.320  12.820   2.786
48367SOL    HW246941  11.296  12.850   2.932
48368SOL     OW46942   8.243   1.309   9.373
48368SOL    HW146943   8.182   1.369   9.329
48368SOL    HW246944   8.188   1.255   9.429
48369SOL     OW46945   6.901   1.996   1.063
48369SOL    HW146946   6.871   1.914   1.103
48369SOL    HW246947   6.893   2.061   1.133
48370SOL     OW46948  13.066   2.567   1.090
48370SOL    HW146949  13.003   2.558   1.162
48370SOL    HW246950  13.083   2.662   1.086
48371SOL     OW46951   0.565   5.511   2.822
48371SOL    HW146952   0.576   5.417   2.808
48371SOL    HW246953   0.535   5.544   2.737
48372SOL     OW46954   4.153   9.123   9.804
48372SOL    HW146955   4.104   9.080   9.874
48372SOL    HW246956   4.133   9.216   9.813
48373SOL     OW46957  14.777  14.323   1.285
48373SOL    HW146958  14.853  14.366   1.246
48373SOL    HW246959  14.721  14.396   1.313
48374SOL     OW46960   4.470   8.118  12.560
48374SOL    HW146961   4.512   8.150  12.480
48374SOL    HW246962   4.525   8.152  12.631
48375SOL     OW46963   0.600  10.438   2.950
48375SOL    HW146964   0.542  10.510   2.974
48375SOL    HW246965   0.545  10.360   2.952
48376SOL     OW46966   2.932   0.878  12.331
48376SOL    HW146967   2.930   0.973  12.320
48376SOL    HW246968   2.983   0.846  12.256
48377SOL     OW46969   6.740   3.922   4.353
48377SOL    HW146970   6.803   3.904   4.422
48377SOL    HW246971   6.766   4.008   4.318
48378SOL     OW46972   0.216  10.666   0.995
48378SOL    HW146973   0.224  10.572   1.010
48378SOL    HW246974   0.170  10.673   0.911
48379SOL     OW46975   6.469   6.107   9.054
48379SOL    HW146976   6.538   6.041   9.046
48379SOL    HW246977   6.392   6.067   9.014
48380SOL     OW46978   7.310   2.260   3.249
48380SOL    HW146979   7.343   2.320   3.183
48380SOL    HW246980   7.297   2.177   3.202
48381SOL     OW46981  14.183   1.431   5.776
48381SOL    HW146982  14.119   1.412   5.707
48381SOL    HW246983  14.220   1.516   5.751
48382SOL     OW46984   6.095   7.342  10.121
48382SOL    HW146985   6.148   7.407  10.073
48382SOL    HW246986   6.009   7.383  10.128
48383SOL     OW46987   5.095  10.618   8.738
48383SOL    HW146988   5.081  10.564   8.816
48383SOL    HW246989   5.025  10.683   8.741
48384SOL     OW46990   7.677  11.389  12.086
48384SOL    HW146991   7.594  11.342  12.073
48384SOL    HW246992   7.663  11.474  12.045
48385SOL     OW46993   2.881   7.164   2.904
48385SOL    HW146994   2.864   7.249   2.946
48385SOL    HW246995   2.858   7.179   2.812
48386SOL     OW46996   3.745   0.678   5.838
48386SOL    HW146997   3.741   0.647   5.928
48386SOL    HW246998   3.679   0.625   5.792
48387SOL     OW46999   9.306   7.697   7.577
48387SOL    HW147000   9.350   7.708   7.493
48387SOL    HW247001   9.309   7.602   7.594
48388SOL     OW47002   9.030   6.023  13.214
48388SOL    HW147003   9.105   6.049  13.268
48388SOL    HW247004   8.955   6.065  13.257
48389SOL     OW47005   4.705   6.065   6.702
48389SOL    HW147006   4.732   6.127   6.769
48389SOL    HW247007   4.670   6.120   6.631
48390SOL     OW47008  10.437   1.407   3.046
48390SOL    HW147009  10.446   1.312   3.055
48390SOL    HW247010  10.522   1.435   3.013
48391SOL     OW47011   7.117   2.299   8.187
48391SOL    HW147012   7.188   2.251   8.230
48391SOL    HW247013   7.056   2.319   8.258
48392SOL     OW47014  10.981  10.893   9.165
48392SOL    HW147015  10.960  10.929   9.079
48392SOL    HW247016  10.969  10.798   9.155
48393SOL     OW47017  14.450  13.720  14.314
48393SOL    HW147018  14.471  13.648  14.254
48393SOL    HW247019  14.382  13.684  14.371
48394SOL     OW47020   9.364  10.638   0.889
48394SOL    HW147021   9.388  10.667   0.802
48394SOL    HW247022   9.423  10.685   0.948
48395SOL     OW47023   0.538   3.688   9.886
48395SOL    HW147024   0.616   3.671   9.833
48395SOL    HW247025   0.469   3.637   9.842
48396SOL     OW47026   7.983   7.117  14.114
48396SOL    HW147027   8.051   7.053  14.093
48396SOL    HW247028   8.026   7.202  14.100
48397SOL     OW47029  12.946   0.938  14.578
48397SOL    HW147030  12.884   0.865  14.570
48397SOL    HW247031  12.893   1.011  14.611
48398SOL     OW47032   8.061  13.222  13.375
48398SOL    HW147033   8.017  13.160  13.432
48398SOL    HW247034   8.034  13.308  13.408
48399SOL     OW47035  12.730  10.839   3.728
48399SOL    HW147036  12.711  10.796   3.811
48399SOL    HW247037  12.660  10.811   3.669
48400SOL     OW47038   4.846   7.275  10.852
48400SOL    HW147039   4.936   7.308  10.852
48400SOL    HW247040   4.856   7.180  10.841
48401SOL     OW47041   4.704  13.813   3.311
48401SOL    HW147042   4.663  13.833   3.396
48401SOL    HW247043   4.781  13.868   3.308
48402SOL     OW47044  13.469   1.716   2.862
48402SOL    HW147045  13.512   1.791   2.821
48402SOL    HW247046  13.380   1.716   2.826
48403SOL     OW47047   6.679   7.444   5.958
48403SOL    HW147048   6.692   7.352   5.982
48403SOL    HW247049   6.745   7.460   5.890
48404SOL     OW47050   9.162  11.003  14.676
48404SOL    HW147051   9.191  11.052  14.599
48404SOL    HW247052   9.147  11.069  14.743
48405SOL     OW47053   6.598   5.240   2.185
48405SOL    HW147054   6.570   5.267   2.273
48405SOL    HW247055   6.545   5.292   2.126
48406SOL     OW47056   7.960  12.207  14.653
48406SOL    HW147057   7.871  12.240  14.641
48406SOL    HW247058   7.964  12.182  14.745
48407SOL     OW47059   8.713   9.908  12.105
48407SOL    HW147060   8.711   9.817  12.075
48407SOL    HW247061   8.681   9.904  12.195
48408SOL     OW47062  12.601   3.308  11.717
48408SOL    HW147063  12.632   3.391  11.755
48408SOL    HW247064  12.679   3.253  11.714
48409SOL     OW47065   4.255  14.201  13.570
48409SOL    HW147066   4.235  14.137  13.501
48409SOL    HW247067   4.326  14.254  13.533
48410SOL     OW47068  10.526  12.485   7.361
48410SOL    HW147069  10.515  12.563   7.416
48410SOL    HW247070  10.466  12.500   7.288
48411SOL     OW47071   3.549   3.591   3.528
48411SOL    HW147072   3.574   3.499   3.516
48411SOL    HW247073   3.568   3.609   3.620
48412SOL     OW47074  10.607  14.170   9.720
48412SOL    HW147075  10.692  14.200   9.686
48412SOL    HW247076  10.597  14.081   9.686
48413SOL     OW47077  10.221  11.730   9.745
48413SOL    HW147078  10.223  11.789   9.669
48413SOL    HW247079  10.255  11.783   9.817
48414SOL     OW47080   0.321   2.179   6.715
48414SOL    HW147081   0.309   2.243   6.644
48414SOL    HW247082   0.233   2.164   6.748
48415SOL     OW47083  14.474  11.207  12.613
48415SOL    HW147084  14.524  11.198  12.533
48415SOL    HW247085  14.526  11.161  12.679
48416SOL     OW47086   9.791   8.069   0.108
48416SOL    HW147087   9.833   7.991   0.071
48416SOL    HW247088   9.726   8.095   0.043
48417SOL     OW47089   3.225   4.126   3.447
48417SOL    HW147090   3.178   4.136   3.529
48417SOL    HW247091   3.223   4.213   3.408
48418SOL     OW47092  10.594  12.329  10.198
48418SOL    HW147093  10.680  12.292  10.181
48418SOL    HW247094  10.587  12.329  10.294
48419SOL     OW47095   6.018   5.305   1.162
48419SOL    HW147096   6.007   5.225   1.112
48419SOL    HW247097   6.101   5.294   1.207
48420SOL     OW47098  12.991   3.925   9.720
48420SOL    HW147099  12.973   3.918   9.626
48420SOL    HW247100  12.914   3.969   9.756
48421SOL     OW47101   2.424  14.269   8.424
48421SOL    HW147102   2.502  14.219   8.398
48421SOL    HW247103   2.401  14.319   8.345
48422SOL     OW47104   3.977   6.971   5.355
48422SOL    HW147105   3.904   6.909   5.350
48422SOL    HW247106   3.951   7.043   5.298
48423SOL     OW47107  13.906   7.818  13.725
48423SOL    HW147108  13.996   7.790  13.743
48423SOL    HW247109  13.874   7.852  13.809
48424SOL     OW47110  14.215  11.032   0.526
48424SOL    HW147111  14.264  11.052   0.446
48424SOL    HW247112  14.132  10.995   0.495
48425SOL     OW47113   9.509  14.558  14.705
48425SOL    HW147114   9.478  14.520  14.623
48425SOL    HW247115   9.504  14.486  14.768
48426SOL     OW47116  13.671   2.323   8.887
48426SOL    HW147117  13.763   2.304   8.908
48426SOL    HW247118  13.635   2.240   8.856
48427SOL     OW47119   5.839   6.307  13.637
48427SOL    HW147120   5.935   6.311  13.636
48427SOL    HW247121   5.811   6.398  13.635
48428SOL     OW47122  12.781  13.958   5.547
48428SOL    HW147123  12.694  13.917   5.544
48428SOL    HW247124  12.764  14.052   5.541
48429SOL     OW47125   2.653   5.544   5.934
48429SOL    HW147126   2.692   5.541   6.021
48429SOL    HW247127   2.570   5.498   5.943
48430SOL     OW47128  11.145   3.744   1.662
48430SOL    HW147129  11.098   3.827   1.671
48430SOL    HW247130  11.080   3.677   1.685
48431SOL     OW47131   8.105  10.438  14.080
48431SOL    HW147132   8.042  10.371  14.053
48431SOL    HW247133   8.180  10.390  14.114
48432SOL     OW47134   1.435   2.578   2.702
48432SOL    HW147135   1.395   2.582   2.614
48432SOL    HW247136   1.365   2.546   2.758
48433SOL     OW47137  10.959   9.237   3.761
48433SOL    HW147138  10.923   9.148   3.752
48433SOL    HW247139  10.902   9.279   3.824
48434SOL     OW47140   9.983  14.357  13.223
48434SOL    HW147141  10.027  14.302  13.158
48434SOL    HW247142   9.900  14.380  13.181
48435SOL     OW47143  13.895   9.533  11.820
48435SOL    HW147144  13.951   9.457  11.803
48435SOL    HW247145  13.939   9.580  11.891
48436SOL     OW47146  12.670   0.936   4.441
48436SOL    HW147147  12.667   1.028   4.417
48436SOL    HW247148  12.748   0.928   4.497
48437SOL     OW47149   1.301   7.565   2.749
48437SOL    HW147150   1.336   7.590   2.664
48437SOL    HW247151   1.227   7.508   2.730
48438SOL     OW47152   2.767  13.627   5.407
48438SOL    HW147153   2.812  13.561   5.353
48438SOL    HW247154   2.705  13.576   5.459
48439SOL     OW47155   3.924  11.298  11.164
48439SOL    HW147156   3.876  11.378  11.185
48439SOL    HW247157   3.908  11.286  11.070
48440SOL     OW47158  14.195   6.184  12.280
48440SOL    HW147159  14.160   6.260  12.232
48440SOL    HW247160  14.146   6.109  12.245
48441SOL     OW47161  11.690  10.659  12.331
48441SOL    HW147162  11.715  10.576  12.373
48441SOL    HW247163  11.645  10.632  12.251
48442SOL     OW47164   6.092   2.054   9.536
48442SOL    HW147165   6.009   2.024   9.498
48442SOL    HW247166   6.133   2.104   9.466
48443SOL     OW47167   1.279   1.788   6.274
48443SOL    HW147168   1.326   1.720   6.321
48443SOL    HW247169   1.336   1.811   6.201
48444SOL     OW47170   2.079  10.287   0.827
48444SOL    HW147171   1.987  10.265   0.808
48444SOL    HW247172   2.074  10.359   0.889
48445SOL     OW47173   3.106   1.430   9.332
48445SOL    HW147174   3.155   1.473   9.263
48445SOL    HW247175   3.152   1.454   9.413
48446SOL     OW47176  14.203   7.519   9.465
48446SOL    HW147177  14.113   7.489   9.477
48446SOL    HW247178  14.200   7.577   9.389
48447SOL     OW47179  12.715   0.708   1.462
48447SOL    HW147180  12.621   0.690   1.462
48447SOL    HW247181  12.747   0.663   1.540
48448SOL     OW47182   3.223   8.778   3.590
48448SOL    HW147183   3.310   8.754   3.625
48448SOL    HW247184   3.240   8.807   3.501
48449SOL     OW47185  13.404   2.515   5.776
48449SOL    HW147186  13.323   2.562   5.755
48449SOL    HW247187  13.383   2.423   5.762
48450SOL     OW47188   7.201   6.886  13.177
48450SOL    HW147189   7.156   6.807  13.204
48450SOL    HW247190   7.179   6.896  13.084
48451SOL     OW47191   1.391   2.135   7.735
48451SOL    HW147192   1.414   2.110   7.824
48451SOL    HW247193   1.342   2.216   7.744
48452SOL     OW47194  12.202   4.501   9.872
48452SOL    HW147195  12.255   4.580   9.871
48452SOL    HW247196  12.265   4.429   9.867
48453SOL     OW47197   5.412  12.751   2.292
48453SOL    HW147198   5.377  12.799   2.217
48453SOL    HW247199   5.337  12.704   2.328
48454SOL     OW47200  11.751   2.017   1.638
48454SOL    HW147201  11.731   1.941   1.693
48454SOL    HW247202  11.698   2.005   1.560
48455SOL     OW47203   4.930   6.462   1.514
48455SOL    HW147204   4.886   6.531   1.565
48455SOL    HW247205   4.996   6.427   1.574
48456SOL     OW47206   5.136   9.722   5.417
48456SOL    HW147207   5.147   9.636   5.375
48456SOL    HW247208   5.175   9.711   5.504
48457SOL     OW47209   4.804  12.905   2.567
48457SOL    HW147210   4.740  12.845   2.529
48457SOL    HW247211   4.757  12.988   2.575
48458SOL     OW47212   3.679   5.694  13.047
48458SOL    HW147213   3.664   5.770  12.991
48458SOL    HW247214   3.637   5.621  13.000
48459SOL     OW47215   2.866   8.606   5.176
48459SOL    HW147216   2.860   8.540   5.245
48459SOL    HW247217   2.940   8.661   5.202
48460SOL     OW47218  14.325  14.609  10.126
48460SOL    HW147219  14.280  14.525  10.130
48460SOL    HW247220  14.336  14.634  10.217
48461SOL     OW47221  14.400   4.587   8.037
48461SOL    HW147222  14.487   4.577   7.998
48461SOL    HW247223  14.340   4.578   7.963
48462SOL     OW47224  12.366  10.263   8.303
48462SOL    HW147225  12.285  10.230   8.263
48462SOL    HW247226  12.336  10.312   8.380
48463SOL     OW47227   5.431  14.687   2.792
48463SOL    HW147228   5.352  14.644   2.822
48463SOL    HW247229   5.491  14.616   2.771
48464SOL     OW47230   6.636  10.769   5.880
48464SOL    HW147231   6.728  10.768   5.851
48464SOL    HW247232   6.586  10.745   5.801
48465SOL     OW47233  12.992   1.002  11.640
48465SOL    HW147234  13.049   0.933  11.674
48465SOL    HW247235  13.041   1.083  11.655
48466SOL     OW47236   2.425  14.453   2.724
48466SOL    HW147237   2.472  14.486   2.647
48466SOL    HW247238   2.484  14.389   2.763
48467SOL     OW47239   7.161   0.097  12.130
48467SOL    HW147240   7.182   0.185  12.162
48467SOL    HW247241   7.219   0.039  12.179
48468SOL     OW47242   1.197   2.713   6.746
48468SOL    HW147243   1.190   2.787   6.686
48468SOL    HW247244   1.181   2.636   6.691
48469SOL     OW47245   9.863   0.084   8.868
48469SOL    HW147246   9.793   0.137   8.829
48469SOL    HW247247   9.823   0.049   8.948
48470SOL     OW47248  10.731  11.213   1.052
48470SOL    HW147249  10.733  11.173   0.965
48470SOL    HW247250  10.715  11.306   1.036
48471SOL     OW47251  13.279   0.210   5.577
48471SOL    HW147252  13.235   0.264   5.642
48471SOL    HW247253  13.241   0.237   5.493
48472SOL     OW47254   5.327   6.978   1.188
48472SOL    HW147255   5.358   7.068   1.182
48472SOL    HW247256   5.232   6.984   1.176
48473SOL     OW47257   0.004   4.866   0.501
48473SOL    HW147258   0.029   4.846   0.411
48473SOL    HW247259  14.811   4.927   0.493
48474SOL     OW47260   0.240   3.055  11.028
48474SOL    HW147261   0.151   3.073  10.999
48474SOL    HW247262   0.234   2.972  11.076
48475SOL     OW47263   2.202   9.094   0.936
48475SOL    HW147264   2.267   9.033   0.972
48475SOL    HW247265   2.228   9.104   0.844
48476SOL     OW47266   9.143   0.109   6.140
48476SOL    HW147267   9.181   0.029   6.176
48476SOL    HW247268   9.048   0.097   6.148
48477SOL     OW47269   1.789  13.156   0.532
48477SOL    HW147270   1.707  13.198   0.558
48477SOL    HW247271   1.801  13.180   0.440
48478SOL     OW47272   9.400  14.360  10.552
48478SOL    HW147273   9.484  14.406  10.552
48478SOL    HW247274   9.371  14.362  10.644
48479SOL     OW47275   5.960   3.226   9.604
48479SOL    HW147276   5.998   3.141   9.628
48479SOL    HW247277   5.882   3.234   9.658
48480SOL     OW47278   4.939  11.779   9.072
48480SOL    HW147279   4.963  11.769   8.980
48480SOL    HW247280   5.012  11.742   9.121
48481SOL     OW47281   3.376  13.466   0.648
48481SOL    HW147282   3.426  13.427   0.577
48481SOL    HW247283   3.440  13.482   0.717
48482SOL     OW47284  13.820   4.517  10.004
48482SOL    HW147285  13.787   4.441  10.051
48482SOL    HW247286  13.750   4.541   9.944
48483SOL     OW47287   5.171  12.205   1.503
48483SOL    HW147288   5.196  12.251   1.583
48483SOL    HW247289   5.171  12.113   1.527
48484SOL     OW47290   1.837   8.853  11.986
48484SOL    HW147291   1.750   8.813  11.994
48484SOL    HW247292   1.837   8.924  12.051
48485SOL     OW47293  13.478   1.170  11.381
48485SOL    HW147294  13.388   1.186  11.353
48485SOL    HW247295  13.480   1.199  11.472
48486SOL     OW47296  10.952   7.581  12.166
48486SOL    HW147297  10.976   7.637  12.093
48486SOL    HW247298  10.903   7.638  12.225
48487SOL     OW47299  13.493   7.506   6.345
48487SOL    HW147300  13.430   7.544   6.284
48487SOL    HW247301  13.566   7.568   6.346
48488SOL     OW47302   5.796   7.658  11.345
48488SOL    HW147303   5.802   7.568  11.378
48488SOL    HW247304   5.776   7.711  11.422
48489SOL     OW47305  14.377  13.903   1.359
48489SOL    HW147306  14.296  13.921   1.312
48489SOL    HW247307  14.433  13.861   1.294
48490SOL     OW47308  14.742   8.641   2.409
48490SOL    HW147309  14.777   8.617   2.324
48490SOL    HW247310  14.652   8.609   2.408
48491SOL     OW47311   7.306   2.977  13.809
48491SOL    HW147312   7.284   3.068  13.788
48491SOL    HW247313   7.378   2.984  13.872
48492SOL     OW47314   8.528  13.575   7.771
48492SOL    HW147315   8.513  13.503   7.710
48492SOL    HW247316   8.478  13.648   7.735
48493SOL     OW47317   1.230  12.460   4.311
48493SOL    HW147318   1.239  12.412   4.393
48493SOL    HW247319   1.255  12.550   4.333
48494SOL     OW47320   5.994   7.578   5.727
48494SOL    HW147321   6.082   7.547   5.706
48494SOL    HW247322   5.985   7.564   5.821
48495SOL     OW47323   5.960   2.786   4.611
48495SOL    HW147324   5.949   2.821   4.522
48495SOL    HW247325   6.051   2.755   4.612
48496SOL     OW47326  14.864  14.710   6.434
48496SOL    HW147327   0.052  14.695   6.368
48496SOL    HW247328  14.817  14.787   6.401
48497SOL     OW47329   2.523  10.318   6.870
48497SOL    HW147330   2.520  10.395   6.814
48497SOL    HW247331   2.431  10.293   6.882
48498SOL     OW47332   8.978   3.901   6.969
48498SOL    HW147333   8.956   3.832   7.031
48498SOL    HW247334   8.922   3.975   6.995
48499SOL     OW47335   4.747   5.057  10.592
48499SOL    HW147336   4.819   5.118  10.580
48499SOL    HW247337   4.777   4.995  10.658
48500SOL     OW47338   9.306  14.261   6.907
48500SOL    HW147339   9.324  14.347   6.868
48500SOL    HW247340   9.210  14.254   6.906
48501SOL     OW47341  10.633   5.961   0.075
48501SOL    HW147342  10.578   5.970   0.153
48501SOL    HW247343  10.652   5.867   0.070
48502SOL     OW47344   8.816   9.277   2.964
48502SOL    HW147345   8.725   9.251   2.954
48502SOL    HW247346   8.850   9.282   2.874
48503SOL     OW47347  10.697  12.840  11.748
48503SOL    HW147348  10.754  12.888  11.808
48503SOL    HW247349  10.618  12.893  11.741
48504SOL     OW47350   6.554  12.611   9.840
48504SOL    HW147351   6.541  12.641   9.930
48504SOL    HW247352   6.547  12.690   9.787
48505SOL     OW47353  12.874   5.897   1.766
48505SOL    HW147354  12.813   5.823   1.767
48505SOL    HW247355  12.826   5.966   1.720
48506SOL     OW47356   9.344   1.748   6.269
48506SOL    HW147357   9.364   1.810   6.198
48506SOL    HW247358   9.368   1.795   6.349
48507SOL     OW47359   1.377   3.306   7.771
48507SOL    HW147360   1.351   3.222   7.734
48507SOL    HW247361   1.452   3.286   7.826
48508SOL     OW47362   0.367   7.377   9.640
48508SOL    HW147363   0.423   7.370   9.718
48508SOL    HW247364   0.376   7.292   9.597
48509SOL     OW47365   5.999   6.101   7.633
48509SOL    HW147366   5.912   6.140   7.635
48509SOL    HW247367   6.026   6.097   7.724
48510SOL     OW47368   9.072  11.161  10.104
48510SOL    HW147369   9.117  11.162  10.189
48510SOL    HW247370   9.141  11.183  10.041
48511SOL     OW47371  13.170   8.244   3.410
48511SOL    HW147372  13.114   8.227   3.335
48511SOL    HW247373  13.128   8.317   3.455
48512SOL     OW47374  11.972   3.766   2.924
48512SOL    HW147375  12.062   3.770   2.956
48512SOL    HW247376  11.955   3.853   2.888
48513SOL     OW47377   2.562   5.931   5.762
48513SOL    HW147378   2.504   5.994   5.804
48513SOL    HW247379   2.574   5.863   5.828
48514SOL     OW47380   6.924  14.825   5.574
48514SOL    HW147381   6.848  14.844   5.519
48514SOL    HW247382   6.908  14.872   5.656
48515SOL     OW47383   8.390  14.166   6.466
48515SOL    HW147384   8.420  14.210   6.545
48515SOL    HW247385   8.330  14.228   6.425
48516SOL     OW47386   2.204   0.935  12.953
48516SOL    HW147387   2.137   0.872  12.928
48516SOL    HW247388   2.270   0.929  12.884
48517SOL     OW47389   9.881   7.231   4.700
48517SOL    HW147390   9.803   7.178   4.717
48517SOL    HW247391   9.850   7.322   4.706
48518SOL     OW47392   4.316   4.743   1.128
48518SOL    HW147393   4.381   4.681   1.160
48518SOL    HW247394   4.240   4.689   1.107
48519SOL     OW47395   7.609   6.637   6.951
48519SOL    HW147396   7.640   6.639   6.860
48519SOL    HW247397   7.562   6.720   6.962
48520SOL     OW47398   5.808  14.412   6.728
48520SOL    HW147399   5.873  14.412   6.657
48520SOL    HW247400   5.751  14.338   6.709
48521SOL     OW47401   5.841   4.095   9.324
48521SOL    HW147402   5.900   4.104   9.250
48521SOL    HW247403   5.776   4.031   9.296
48522SOL     OW47404  12.900  11.672   1.556
48522SOL    HW147405  12.889  11.753   1.507
48522SOL    HW247406  12.819  11.663   1.606
48523SOL     OW47407   5.276  10.550  11.344
48523SOL    HW147408   5.249  10.459  11.352
48523SOL    HW247409   5.193  10.599  11.341
48524SOL     OW47410   7.328  11.470  11.136
48524SOL    HW147411   7.295  11.456  11.225
48524SOL    HW247412   7.274  11.541  11.101
48525SOL     OW47413   9.300   5.703   6.282
48525SOL    HW147414   9.316   5.791   6.246
48525SOL    HW247415   9.344   5.704   6.367
48526SOL     OW47416  13.767   2.965   2.173
48526SOL    HW147417  13.785   3.042   2.119
48526SOL    HW247418  13.676   2.976   2.200
48527SOL     OW47419   1.924   8.445  12.913
48527SOL    HW147420   1.930   8.374  12.977
48527SOL    HW247421   1.926   8.525  12.966
48528SOL     OW47422   7.627   8.644   9.303
48528SOL    HW147423   7.547   8.616   9.259
48528SOL    HW247424   7.617   8.739   9.311
48529SOL     OW47425   9.530   7.551   8.058
48529SOL    HW147426   9.446   7.566   8.102
48529SOL    HW247427   9.596   7.580   8.121
48530SOL     OW47428   6.264   1.068   8.428
48530SOL    HW147429   6.217   1.148   8.450
48530SOL    HW247430   6.217   0.998   8.474
48531SOL     OW47431   8.114   4.322   7.045
48531SOL    HW147432   8.166   4.310   6.966
48531SOL    HW247433   8.164   4.276   7.114
48532SOL     OW47434   5.469   0.595   0.519
48532SOL    HW147435   5.549   0.645   0.500
48532SOL    HW247436   5.472   0.578   0.613
48533SOL     OW47437   7.258  11.682   6.193
48533SOL    HW147438   7.224  11.604   6.238
48533SOL    HW247439   7.342  11.653   6.156
48534SOL     OW47440   1.011   3.505   7.059
48534SOL    HW147441   0.967   3.491   7.142
48534SOL    HW247442   1.101   3.477   7.074
48535SOL     OW47443  14.685  14.003  12.915
48535SOL    HW147444  14.694  13.997  13.010
48535SOL    HW247445  14.657  13.916  12.887
48536SOL     OW47446  14.704   1.792   6.115
48536SOL    HW147447  14.770   1.861   6.111
48536SOL    HW247448  14.755   1.711   6.107
48537SOL     OW47449  13.288   1.639   7.225
48537SOL    HW147450  13.345   1.710   7.195
48537SOL    HW247451  13.325   1.614   7.310
48538SOL     OW47452  13.786   4.039   6.839
48538SOL    HW147453  13.713   4.098   6.857
48538SOL    HW247454  13.800   4.045   6.745
48539SOL     OW47455   9.220   8.036   5.659
48539SOL    HW147456   9.300   8.079   5.688
48539SOL    HW247457   9.201   7.971   5.726
48540SOL     OW47458   4.284   0.264   6.336
48540SOL    HW147459   4.331   0.342   6.308
48540SOL    HW247460   4.199   0.297   6.365
48541SOL     OW47461  10.135   3.181  13.168
48541SOL    HW147462  10.165   3.107  13.221
48541SOL    HW247463  10.170   3.163  13.080
48542SOL     OW47464  10.518   2.306  11.349
48542SOL    HW147465  10.429   2.313  11.315
48542SOL    HW247466  10.564   2.251  11.286
48543SOL     OW47467  13.376   7.296   8.149
48543SOL    HW147468  13.438   7.225   8.157
48543SOL    HW247469  13.337   7.284   8.062
48544SOL     OW47470   3.996   8.554  10.576
48544SOL    HW147471   3.994   8.473  10.628
48544SOL    HW247472   4.087   8.564  10.550
48545SOL     OW47473  12.690   1.984   6.739
48545SOL    HW147474  12.692   1.905   6.685
48545SOL    HW247475  12.610   1.975   6.791
48546SOL     OW47476   4.957   9.071   3.711
48546SOL    HW147477   4.886   9.010   3.731
48546SOL    HW247478   4.925   9.120   3.634
48547SOL     OW47479   7.462  12.071   2.753
48547SOL    HW147480   7.396  12.063   2.684
48547SOL    HW247481   7.412  12.079   2.834
48548SOL     OW47482   4.680   9.156   8.351
48548SOL    HW147483   4.765   9.199   8.363
48548SOL    HW247484   4.693   9.099   8.275
48549SOL     OW47485   9.991  10.369   7.580
48549SOL    HW147486  10.067  10.417   7.549
48549SOL    HW247487  10.020  10.278   7.585
48550SOL     OW47488  14.877  13.645   2.488
48550SOL    HW147489  14.804  13.671   2.431
48550SOL    HW247490   0.036  13.728   2.516
48551SOL     OW47491   9.974   4.608   8.580
48551SOL    HW147492  10.057   4.567   8.604
48551SOL    HW247493   9.994   4.661   8.503
48552SOL     OW47494  13.363  11.068  10.606
48552SOL    HW147495  13.393  10.979  10.585
48552SOL    HW247496  13.420  11.125  10.555
48553SOL     OW47497   7.813  11.117  10.726
48553SOL    HW147498   7.755  11.120  10.650
48553SOL    HW247499   7.836  11.209  10.743
48554SOL     OW47500  13.739   1.276  10.828
48554SOL    HW147501  13.792   1.353  10.846
48554SOL    HW247502  13.661   1.286  10.883
48555SOL     OW47503   9.343   7.344   4.511
48555SOL    HW147504   9.398   7.408   4.558
48555SOL    HW247505   9.333   7.382   4.424
48556SOL     OW47506  12.044   4.812   1.359
48556SOL    HW147507  12.067   4.742   1.298
48556SOL    HW247508  11.949   4.816   1.356
48557SOL     OW47509   7.602  13.799  11.883
48557SOL    HW147510   7.541  13.827  11.951
48557SOL    HW247511   7.599  13.870  11.818
48558SOL     OW47512   8.770   0.231   9.163
48558SOL    HW147513   8.750   0.280   9.083
48558SOL    HW247514   8.824   0.290   9.214
48559SOL     OW47515  10.763  11.179  11.892
48559SOL    HW147516  10.821  11.104  11.881
48559SOL    HW247517  10.814  11.253  11.857
48560SOL     OW47518   7.210  12.907   9.319
48560SOL    HW147519   7.296  12.891   9.358
48560SOL    HW247520   7.180  12.820   9.292
48561SOL     OW47521   4.721   2.426  14.516
48561SOL    HW147522   4.798   2.396  14.468
48561SOL    HW247523   4.661   2.351  14.513
48562SOL     OW47524   0.660   0.899   8.981
48562SOL    HW147525   0.721   0.838   8.939
48562SOL    HW247526   0.629   0.954   8.909
48563SOL     OW47527   5.379   5.234   8.577
48563SOL    HW147528   5.397   5.326   8.558
48563SOL    HW247529   5.460   5.189   8.553
48564SOL     OW47530   0.866   3.231   4.727
48564SOL    HW147531   0.945   3.247   4.779
48564SOL    HW247532   0.880   3.146   4.686
48565SOL     OW47533   4.331   1.312   4.362
48565SOL    HW147534   4.421   1.339   4.344
48565SOL    HW247535   4.319   1.231   4.311
48566SOL     OW47536  12.259   1.006   7.851
48566SOL    HW147537  12.271   0.921   7.894
48566SOL    HW247538  12.287   1.070   7.916
48567SOL     OW47539   4.140   2.991   7.779
48567SOL    HW147540   4.185   3.047   7.842
48567SOL    HW247541   4.209   2.957   7.723
48568SOL     OW47542  12.202  14.059   8.237
48568SOL    HW147543  12.206  13.964   8.227
48568SOL    HW247544  12.291  14.088   8.220
48569SOL     OW47545   3.601  12.386   2.287
48569SOL    HW147546   3.600  12.389   2.191
48569SOL    HW247547   3.591  12.477   2.314
48570SOL     OW47548  10.281   7.272   3.210
48570SOL    HW147549  10.358   7.235   3.254
48570SOL    HW247550  10.214   7.204   3.219
48571SOL     OW47551   0.848   0.432  10.813
48571SOL    HW147552   0.875   0.444  10.722
48571SOL    HW247553   0.918   0.471  10.865
48572SOL     OW47554   5.801   3.235   5.705
48572SOL    HW147555   5.758   3.249   5.789
48572SOL    HW247556   5.872   3.173   5.724
48573SOL     OW47557   9.254  13.922   8.922
48573SOL    HW147558   9.263  13.854   8.855
48573SOL    HW247559   9.301  13.887   8.998
48574SOL     OW47560   9.446   8.541   9.165
48574SOL    HW147561   9.410   8.455   9.188
48574SOL    HW247562   9.416   8.598   9.235
48575SOL     OW47563  13.723  11.319   7.441
48575SOL    HW147564  13.675  11.249   7.485
48575SOL    HW247565  13.736  11.385   7.508
48576SOL     OW47566   6.351  13.005   4.068
48576SOL    HW147567   6.444  12.989   4.084
48576SOL    HW247568   6.328  13.079   4.124
48577SOL     OW47569  14.306   9.871   4.971
48577SOL    HW147570  14.297   9.785   5.012
48577SOL    HW247571  14.252   9.929   5.025
48578SOL     OW47572   3.772   1.430   6.340
48578SOL    HW147573   3.774   1.496   6.270
48578SOL    HW247574   3.839   1.366   6.314
48579SOL     OW47575   8.390   4.246   3.492
48579SOL    HW147576   8.470   4.291   3.465
48579SOL    HW247577   8.421   4.168   3.539
48580SOL     OW47578   4.000  14.281  14.234
48580SOL    HW147579   3.964  14.201  14.194
48580SOL    HW247580   4.001  14.345  14.162
48581SOL     OW47581   6.034  11.790   5.726
48581SOL    HW147582   6.031  11.883   5.749
48581SOL    HW247583   5.942  11.766   5.715
48582SOL     OW47584   5.347   8.689  10.869
48582SOL    HW147585   5.283   8.656  10.932
48582SOL    HW247586   5.326   8.781  10.859
48583SOL     OW47587  10.200   0.575   8.684
48583SOL    HW147588  10.113   0.576   8.644
48583SOL    HW247589  10.190   0.622   8.767
48584SOL     OW47590   1.404   7.962  12.045
48584SOL    HW147591   1.471   7.940  12.110
48584SOL    HW247592   1.353   8.032  12.087
48585SOL     OW47593   3.779   7.540   6.767
48585SOL    HW147594   3.760   7.572   6.856
48585SOL    HW247595   3.839   7.605   6.731
48586SOL     OW47596   2.795  12.309   5.948
48586SOL    HW147597   2.858  12.244   5.978
48586SOL    HW247598   2.812  12.386   6.003
48587SOL     OW47599   1.877   1.971  10.159
48587SOL    HW147600   1.944   2.018  10.109
48587SOL    HW247601   1.898   1.879  10.148
48588SOL     OW47602   5.180  12.583   5.276
48588SOL    HW147603   5.219  12.608   5.192
48588SOL    HW247604   5.232  12.507   5.304
48589SOL     OW47605  14.759   7.497  10.229
48589SOL    HW147606  14.772   7.441  10.152
48589SOL    HW247607  14.807   7.452  10.299
48590SOL     OW47608  10.205  12.106   2.536
48590SOL    HW147609  10.228  12.180   2.480
48590SOL    HW247610  10.284  12.088   2.586
48591SOL     OW47611   8.658   7.154  11.380
48591SOL    HW147612   8.667   7.167  11.285
48591SOL    HW247613   8.566   7.129  11.392
48592SOL     OW47614   3.026   3.221   9.248
48592SOL    HW147615   3.031   3.130   9.220
48592SOL    HW247616   2.942   3.227   9.293
48593SOL     OW47617   6.572   9.490  12.920
48593SOL    HW147618   6.615   9.487  12.835
48593SOL    HW247619   6.573   9.400  12.952
48594SOL     OW47620   5.490  13.100  10.782
48594SOL    HW147621   5.526  13.025  10.831
48594SOL    HW247622   5.535  13.176  10.818
48595SOL     OW47623   9.381   6.073   7.804
48595SOL    HW147624   9.438   6.026   7.744
48595SOL    HW247625   9.433   6.084   7.883
48596SOL     OW47626  12.211   8.402  13.823
48596SOL    HW147627  12.280   8.373  13.883
48596SOL    HW247628  12.248   8.478  13.780
48597SOL     OW47629   6.881   7.845   0.767
48597SOL    HW147630   6.833   7.887   0.838
48597SOL    HW247631   6.954   7.799   0.810
48598SOL     OW47632  13.762  12.590   2.391
48598SOL    HW147633  13.857  12.585   2.394
48598SOL    HW247634  13.735  12.511   2.343
48599SOL     OW47635   3.566  12.495  14.129
48599SOL    HW147636   3.485  12.453  14.158
48599SOL    HW247637   3.544  12.589  14.124
48600SOL     OW47638   4.363   4.378  12.958
48600SOL    HW147639   4.405   4.322  13.024
48600SOL    HW247640   4.391   4.467  12.980
48601SOL     OW47641   5.021   4.137   9.150
48601SOL    HW147642   4.979   4.223   9.156
48601SOL    HW247643   5.063   4.136   9.064
48602SOL     OW47644   9.336   7.117  13.207
48602SOL    HW147645   9.298   7.191  13.254
48602SOL    HW247646   9.283   7.108  13.128
48603SOL     OW47647   8.690  13.792   4.208
48603SOL    HW147648   8.705  13.819   4.299
48603SOL    HW247649   8.638  13.712   4.215
48604SOL     OW47650  14.861   7.364   9.349
48604SOL    HW147651  14.877   7.354   9.442
48604SOL    HW247652   0.046   7.307   9.307
48605SOL     OW47653  12.859   0.096  12.309
48605SOL    HW147654  12.937   0.100  12.364
48605SOL    HW247655  12.837   0.188  12.293
48606SOL     OW47656   0.005   4.125   2.072
48606SOL    HW147657   0.056   4.077   2.137
48606SOL    HW247658   0.023   4.217   2.089
48607SOL     OW47659   4.006   7.648  10.882
48607SOL    HW147660   3.953   7.569  10.880
48607SOL    HW247661   3.956   7.712  10.831
48608SOL     OW47662   4.417   1.720   6.345
48608SOL    HW147663   4.501   1.758   6.371
48608SOL    HW247664   4.369   1.709   6.427
48609SOL     OW47665  13.811   5.299   2.273
48609SOL    HW147666  13.782   5.376   2.226
48609SOL    HW247667  13.759   5.227   2.237
48610SOL     OW47668  13.611   0.157   2.562
48610SOL    HW147669  13.559   0.123   2.489
48610SOL    HW247670  13.593   0.097   2.635
48611SOL     OW47671  12.587   9.902  14.679
48611SOL    HW147672  12.680   9.890  14.664
48611SOL    HW247673  12.544   9.834  14.628
48612SOL     OW47674   3.436   9.641   6.280
48612SOL    HW147675   3.408   9.670   6.367
48612SOL    HW247676   3.523   9.604   6.294
48613SOL     OW47677   5.225   7.257   1.916
48613SOL    HW147678   5.274   7.188   1.871
48613SOL    HW247679   5.291   7.308   1.962
48614SOL     OW47680   5.957  13.708   3.272
48614SOL    HW147681   5.954  13.802   3.285
48614SOL    HW247682   5.990  13.697   3.182
48615SOL     OW47683   8.163   4.850   5.821
48615SOL    HW147684   8.236   4.901   5.785
48615SOL    HW247685   8.195   4.820   5.906
48616SOL     OW47686  11.198  11.203   8.744
48616SOL    HW147687  11.237  11.161   8.667
48616SOL    HW247688  11.114  11.236   8.713
48617SOL     OW47689   9.068  14.630  10.283
48617SOL    HW147690   9.143  14.682  10.311
48617SOL    HW247691   9.082  14.544  10.321
48618SOL     OW47692   8.987  14.075   0.008
48618SOL    HW147693   9.028  14.126  14.817
48618SOL    HW247694   8.900  14.113   0.017
48619SOL     OW47695  12.179   7.271   3.655
48619SOL    HW147696  12.118   7.280   3.728
48619SOL    HW247697  12.142   7.325   3.585
48620SOL     OW47698   2.801  14.725   3.695
48620SOL    HW147699   2.824  14.642   3.736
48620SOL    HW247700   2.882  14.776   3.697
48621SOL     OW47701   7.653  12.834  11.647
48621SOL    HW147702   7.612  12.803  11.727
48621SOL    HW247703   7.598  12.907  11.618
48622SOL     OW47704   0.615   8.728   7.916
48622SOL    HW147705   0.653   8.649   7.878
48622SOL    HW247706   0.689   8.788   7.925
48623SOL     OW47707   9.915   5.822  11.410
48623SOL    HW147708   9.958   5.900  11.445
48623SOL    HW247709   9.887   5.848  11.322
48624SOL     OW47710   2.209   4.112   5.944
48624SOL    HW147711   2.262   4.164   5.883
48624SOL    HW247712   2.267   4.096   6.018
48625SOL     OW47713   8.144   7.889  13.278
48625SOL    HW147714   8.189   7.972  13.260
48625SOL    HW247715   8.073   7.913  13.337
48626SOL     OW47716   2.321   9.981   8.276
48626SOL    HW147717   2.262   9.917   8.237
48626SOL    HW247718   2.264  10.034   8.333
48627SOL     OW47719   4.123   1.396   2.438
48627SOL    HW147720   4.208   1.438   2.428
48627SOL    HW247721   4.114   1.341   2.360
48628SOL     OW47722  12.935   1.885  12.641
48628SOL    HW147723  13.023   1.907  12.670
48628SOL    HW247724  12.939   1.888  12.546
48629SOL     OW47725  11.828   3.790   6.714
48629SOL    HW147726  11.735   3.768   6.715
48629SOL    HW247727  11.869   3.725   6.770
48630SOL     OW47728   5.948   7.804  13.252
48630SOL    HW147729   6.035   7.779  13.219
48630SOL    HW247730   5.949   7.899  13.254
48631SOL     OW47731   8.771  12.779   8.674
48631SOL    HW147732   8.702  12.747   8.616
48631SOL    HW247733   8.825  12.702   8.693
48632SOL     OW47734   6.592   8.882   7.822
48632SOL    HW147735   6.522   8.942   7.794
48632SOL    HW247736   6.562   8.849   7.907
48633SOL     OW47737   4.075   8.494  11.293
48633SOL    HW147738   4.052   8.585  11.276
48633SOL    HW247739   4.096   8.492  11.386
48634SOL     OW47740   8.529   2.044   2.764
48634SOL    HW147741   8.514   1.950   2.778
48634SOL    HW247742   8.569   2.050   2.677
48635SOL     OW47743   7.321   0.135   3.576
48635SOL    HW147744   7.318   0.153   3.482
48635SOL    HW247745   7.406   0.093   3.589
48636SOL     OW47746   3.632  14.519   2.275
48636SOL    HW147747   3.684  14.505   2.195
48636SOL    HW247748   3.548  14.550   2.243
48637SOL     OW47749  11.232   6.959   6.507
48637SOL    HW147750  11.246   6.870   6.474
48637SOL    HW247751  11.157   6.951   6.566
48638SOL     OW47752   6.355   4.483   9.704
48638SOL    HW147753   6.394   4.541   9.770
48638SOL    HW247754   6.283   4.439   9.750
48639SOL     OW47755   3.814   6.274   1.299
48639SOL    HW147756   3.900   6.314   1.311
48639SOL    HW247757   3.765   6.297   1.378
48640SOL     OW47758  14.483  13.384  13.536
48640SOL    HW147759  14.447  13.433  13.610
48640SOL    HW247760  14.525  13.308  13.576
48641SOL     OW47761   2.633  13.051  10.686
48641SOL    HW147762   2.638  12.968  10.733
48641SOL    HW247763   2.610  13.115  10.752
48642SOL     OW47764   2.132  14.690   3.134
48642SOL    HW147765   2.206  14.714   3.189
48642SOL    HW247766   2.171  14.662   3.051
48643SOL     OW47767   7.885   8.068   9.112
48643SOL    HW147768   7.834   7.988   9.104
48643SOL    HW247769   7.843   8.129   9.051
48644SOL     OW47770   7.500  13.729   7.405
48644SOL    HW147771   7.444  13.699   7.476
48644SOL    HW247772   7.474  13.676   7.329
48645SOL     OW47773  13.140   1.089   5.143
48645SOL    HW147774  13.074   1.114   5.206
48645SOL    HW247775  13.132   1.153   5.073
48646SOL     OW47776   3.159   9.680   3.652
48646SOL    HW147777   3.214   9.609   3.617
48646SOL    HW247778   3.202   9.760   3.621
48647SOL     OW47779  14.191   0.744  12.139
48647SOL    HW147780  14.117   0.729  12.080
48647SOL    HW247781  14.247   0.805  12.092
48648SOL     OW47782  10.056   2.845   4.840
48648SOL    HW147783  10.118   2.795   4.787
48648SOL    HW247784  10.063   2.934   4.805
48649SOL     OW47785   5.701   4.370   1.241
48649SOL    HW147786   5.786   4.329   1.223
48649SOL    HW247787   5.691   4.361   1.336
48650SOL     OW47788   2.606   8.440   4.773
48650SOL    HW147789   2.692   8.472   4.800
48650SOL    HW247790   2.562   8.516   4.737
48651SOL     OW47791  12.210  10.427   1.969
48651SOL    HW147792  12.280  10.444   1.907
48651SOL    HW247793  12.157  10.507   1.969
48652SOL     OW47794   1.157   8.259   9.029
48652SOL    HW147795   1.162   8.177   9.079
48652SOL    HW247796   1.072   8.254   8.984
48653SOL     OW47797   5.603   2.795   9.873
48653SOL    HW147798   5.520   2.774   9.917
48653SOL    HW247799   5.577   2.817   9.784
48654SOL     OW47800  14.834   4.890  14.615
48654SOL    HW147801  14.805   4.906  14.525
48654SOL    HW247802  14.800   4.803  14.636
48655SOL     OW47803   1.219   1.484   9.124
48655SOL    HW147804   1.213   1.538   9.046
48655SOL    HW247805   1.128   1.471   9.152
48656SOL     OW47806  11.759   0.841   0.175
48656SOL    HW147807  11.845   0.875   0.198
48656SOL    HW247808  11.753   0.853   0.080
48657SOL     OW47809   3.681   3.507   6.653
48657SOL    HW147810   3.761   3.460   6.630
48657SOL    HW247811   3.708   3.566   6.724
48658SOL     OW47812  11.658  14.766   8.197
48658SOL    HW147813  11.723  14.772   8.267
48658SOL    HW247814  11.583  14.816   8.230
48659SOL     OW47815  12.583   5.694  10.258
48659SOL    HW147816  12.581   5.768  10.319
48659SOL    HW247817  12.620   5.622  10.309
48660SOL     OW47818  14.005   9.308   9.323
48660SOL    HW147819  14.100   9.302   9.317
48660SOL    HW247820  13.987   9.402   9.324
48661SOL     OW47821   1.834   9.786   2.191
48661SOL    HW147822   1.893   9.715   2.216
48661SOL    HW247823   1.851   9.855   2.255
48662SOL     OW47824  14.357  14.677  11.171
48662SOL    HW147825  14.367  14.606  11.234
48662SOL    HW247826  14.267  14.708  11.183
48663SOL     OW47827   8.356   4.844   8.508
48663SOL    HW147828   8.298   4.851   8.432
48663SOL    HW247829   8.420   4.914   8.495
48664SOL     OW47830  13.283  14.639  13.787
48664SOL    HW147831  13.351  14.671  13.726
48664SOL    HW247832  13.308  14.676  13.872
48665SOL     OW47833  12.119   3.448   9.813
48665SOL    HW147834  12.210   3.480   9.806
48665SOL    HW247835  12.127   3.353   9.807
48666SOL     OW47836   3.933   8.433   6.504
48666SOL    HW147837   3.975   8.382   6.436
48666SOL    HW247838   3.884   8.501   6.457
48667SOL     OW47839  12.454   3.650   1.704
48667SOL    HW147840  12.502   3.595   1.766
48667SOL    HW247841  12.366   3.611   1.701
48668SOL     OW47842  12.549   2.925   0.130
48668SOL    HW147843  12.514   3.005   0.169
48668SOL    HW247844  12.511   2.923   0.042
48669SOL     OW47845   7.731   1.489  14.422
48669SOL    HW147846   7.816   1.533  14.417
48669SOL    HW247847   7.696   1.514  14.508
48670SOL     OW47848   2.768  11.099   8.366
48670SOL    HW147849   2.716  11.026   8.399
48670SOL    HW247850   2.721  11.177   8.394
48671SOL     OW47851   2.669   5.871  13.928
48671SOL    HW147852   2.583   5.912  13.942
48671SOL    HW247853   2.708   5.868  14.016
48672SOL     OW47854  12.683  11.130   7.019
48672SOL    HW147855  12.684  11.116   6.925
48672SOL    HW247856  12.634  11.056   7.054
48673SOL     OW47857  14.106   5.312   7.106
48673SOL    HW147858  14.136   5.376   7.042
48673SOL    HW247859  14.010   5.318   7.103
48674SOL     OW47860   0.600   0.631  14.568
48674SOL    HW147861   0.618   0.610  14.660
48674SOL    HW247862   0.650   0.711  14.552
48675SOL     OW47863   4.890   6.234  10.990
48675SOL    HW147864   4.920   6.147  10.963
48675SOL    HW247865   4.970   6.288  10.989
48676SOL     OW47866   6.480   0.236   4.068
48676SOL    HW147867   6.409   0.254   4.130
48676SOL    HW247868   6.522   0.157   4.102
48677SOL     OW47869   6.060   5.548  11.130
48677SOL    HW147870   6.027   5.461  11.153
48677SOL    HW247871   6.086   5.586  11.214
48678SOL     OW47872  10.681  11.387   0.712
48678SOL    HW147873  10.683  11.387   0.807
48678SOL    HW247874  10.593  11.416   0.689
48679SOL     OW47875   4.091   7.521   1.423
48679SOL    HW147876   4.098   7.612   1.451
48679SOL    HW247877   4.130   7.520   1.335
48680SOL     OW47878   7.282  11.946   6.112
48680SOL    HW147879   7.345  11.971   6.179
48680SOL    HW247880   7.254  11.858   6.137
48681SOL     OW47881  13.264   4.189   9.540
48681SOL    HW147882  13.326   4.251   9.577
48681SOL    HW247883  13.303   4.161   9.457
48682SOL     OW47884   0.141   4.318   6.068
48682SOL    HW147885   0.202   4.290   6.136
48682SOL    HW247886   0.056   4.319   6.111
48683SOL     OW47887  10.705   4.732  10.937
48683SOL    HW147888  10.676   4.645  10.909
48683SOL    HW247889  10.759   4.763  10.864
48684SOL     OW47890   3.021   7.374   1.292
48684SOL    HW147891   3.053   7.308   1.354
48684SOL    HW247892   2.999   7.324   1.213
48685SOL     OW47893   0.796   7.371   2.162
48685SOL    HW147894   0.867   7.317   2.127
48685SOL    HW247895   0.716   7.333   2.125
48686SOL     OW47896   3.338   4.936   8.895
48686SOL    HW147897   3.408   4.952   8.832
48686SOL    HW247898   3.361   4.989   8.971
48687SOL     OW47899  14.763   2.612   8.702
48687SOL    HW147900  14.830   2.652   8.646
48687SOL    HW247901  14.812   2.551   8.757
48688SOL     OW47902   7.356   4.084  10.327
48688SOL    HW147903   7.328   4.152  10.265
48688SOL    HW247904   7.446   4.108  10.350
48689SOL     OW47905   0.689  10.797   1.839
48689SOL    HW147906   0.681  10.703   1.823
48689SOL    HW247907   0.753  10.805   1.910
48690SOL     OW47908   2.899  12.598   8.290
48690SOL    HW147909   2.814  12.568   8.323
48690SOL    HW247910   2.897  12.576   8.197
48691SOL     OW47911  13.887  11.862   7.922
48691SOL    HW147912  13.879  11.957   7.907
48691SOL    HW247913  13.881  11.823   7.835
48692SOL     OW47914   5.544   8.813   7.053
48692SOL    HW147915   5.586   8.791   6.970
48692SOL    HW247916   5.499   8.733   7.080
48693SOL     OW47917   9.970  14.021   2.643
48693SOL    HW147918   9.980  13.947   2.704
48693SOL    HW247919   9.876  14.027   2.628
48694SOL     OW47920   8.814   9.179   2.395
48694SOL    HW147921   8.870   9.102   2.400
48694SOL    HW247922   8.874   9.253   2.391
48695SOL     OW47923   5.219   8.862   1.792
48695SOL    HW147924   5.289   8.905   1.743
48695SOL    HW247925   5.150   8.846   1.727
48696SOL     OW47926  13.317   5.216   2.198
48696SOL    HW147927  13.234   5.253   2.229
48696SOL    HW247928  13.296   5.126   2.175
48697SOL     OW47929   7.596   5.639  11.381
48697SOL    HW147930   7.565   5.702  11.446
48697SOL    HW247931   7.534   5.647  11.309
48698SOL     OW47932   9.697   6.254  10.898
48698SOL    HW147933   9.783   6.277  10.932
48698SOL    HW247934   9.641   6.245  10.975
48699SOL     OW47935   9.246  12.343   1.095
48699SOL    HW147936   9.324  12.392   1.122
48699SOL    HW247937   9.275  12.252   1.088
48700SOL     OW47938   4.619   2.485  11.641
48700SOL    HW147939   4.651   2.514  11.556
48700SOL    HW247940   4.681   2.520  11.704
48701SOL     OW47941   4.188  13.905   5.978
48701SOL    HW147942   4.092  13.904   5.978
48701SOL    HW247943   4.212  13.830   6.032
48702SOL     OW47944   2.502   6.226   9.893
48702SOL    HW147945   2.527   6.134   9.898
48702SOL    HW247946   2.518   6.251   9.802
48703SOL     OW47947   7.508  12.805   7.568
48703SOL    HW147948   7.581  12.862   7.547
48703SOL    HW247949   7.439  12.830   7.507
48704SOL     OW47950   1.391  14.784   0.255
48704SOL    HW147951   1.423  14.733   0.181
48704SOL    HW247952   1.316  14.735   0.287
48705SOL     OW47953   5.718   9.751   1.548
48705SOL    HW147954   5.745   9.840   1.569
48705SOL    HW247955   5.745   9.699   1.624
48706SOL     OW47956   0.704   1.709   9.492
48706SOL    HW147957   0.763   1.642   9.524
48706SOL    HW247958   0.621   1.663   9.478
48707SOL     OW47959   5.879   5.758   4.200
48707SOL    HW147960   5.857   5.843   4.160
48707SOL    HW247961   5.941   5.780   4.269
48708SOL     OW47962   4.797   5.499   4.623
48708SOL    HW147963   4.861   5.535   4.562
48708SOL    HW247964   4.841   5.425   4.664
48709SOL     OW47965   4.498   4.721   1.685
48709SOL    HW147966   4.468   4.668   1.759
48709SOL    HW247967   4.430   4.708   1.618
48710SOL     OW47968   5.469   0.593  14.233
48710SOL    HW147969   5.443   0.646  14.308
48710SOL    HW247970   5.563   0.608  14.224
48711SOL     OW47971  13.491   0.489  10.097
48711SOL    HW147972  13.566   0.526  10.144
48711SOL    HW247973  13.504   0.394  10.102
48712SOL     OW47974  13.735   0.616  12.107
48712SOL    HW147975  13.763   0.582  12.193
48712SOL    HW247976  13.717   0.709  12.123
48713SOL     OW47977  12.247   4.374  11.715
48713SOL    HW147978  12.332   4.417  11.726
48713SOL    HW247979  12.251   4.297  11.771
48714SOL     OW47980  14.655  10.733   7.517
48714SOL    HW147981  14.640  10.748   7.610
48714SOL    HW247982  14.648  10.638   7.507
48715SOL     OW47983   7.436   8.688   8.961
48715SOL    HW147984   7.423   8.621   9.028
48715SOL    HW247985   7.479   8.642   8.888
48716SOL     OW47986  10.411  13.531   1.256
48716SOL    HW147987  10.477  13.461   1.248
48716SOL    HW247988  10.327  13.485   1.252
48717SOL     OW47989   8.853   8.606  14.187
48717SOL    HW147990   8.832   8.519  14.220
48717SOL    HW247991   8.920   8.640  14.247
48718SOL     OW47992   2.254   9.738   8.070
48718SOL    HW147993   2.261   9.698   8.157
48718SOL    HW247994   2.344   9.759   8.047
48719SOL     OW47995  13.954  13.334   4.982
48719SOL    HW147996  13.988  13.320   5.070
48719SOL    HW247997  14.031  13.351   4.928
48720SOL     OW47998   7.647  12.151   0.450
48720SOL    HW147999   7.678  12.138   0.361
48720SOL    HW248000   7.560  12.110   0.451
48721SOL     OW48001  12.010   5.684   3.300
48721SOL    HW148002  12.088   5.640   3.264
48721SOL    HW248003  12.037   5.713   3.387
48722SOL     OW48004   0.713   1.788  10.428
48722SOL    HW148005   0.703   1.694  10.416
48722SOL    HW248006   0.769   1.815  10.356
48723SOL     OW48007   6.016  13.085  10.267
48723SOL    HW148008   6.077  13.063  10.337
48723SOL    HW248009   6.072  13.099  10.190
48724SOL     OW48010   8.895   6.890   9.527
48724SOL    HW148011   8.814   6.867   9.571
48724SOL    HW248012   8.869   6.949   9.457
48725SOL     OW48013  11.303  11.208   1.257
48725SOL    HW148014  11.393  11.242   1.255
48725SOL    HW248015  11.303  11.138   1.191
48726SOL     OW48016   3.498   7.907   4.398
48726SOL    HW148017   3.432   7.872   4.459
48726SOL    HW248018   3.502   8.000   4.418
48727SOL     OW48019   6.037   4.217   8.548
48727SOL    HW148020   6.032   4.126   8.518
48727SOL    HW248021   6.080   4.212   8.633
48728SOL     OW48022  14.696   0.486   2.047
48728SOL    HW148023  14.688   0.575   2.080
48728SOL    HW248024  14.769   0.489   1.985
48729SOL     OW48025  10.208   0.517  12.456
48729SOL    HW148026  10.204   0.611  12.442
48729SOL    HW248027  10.181   0.505  12.547
48730SOL     OW48028  13.383   8.489  11.452
48730SOL    HW148029  13.433   8.556  11.498
48730SOL    HW248030  13.296   8.492  11.493
48731SOL     OW48031   5.541  11.319  13.451
48731SOL    HW148032   5.468  11.278  13.405
48731SOL    HW248033   5.547  11.407  13.414
48732SOL     OW48034   1.839  10.365   1.896
48732SOL    HW148035   1.893  10.396   1.969
48732SOL    HW248036   1.751  10.359   1.933
48733SOL     OW48037  13.055  12.388   1.166
48733SOL    HW148038  13.035  12.345   1.083
48733SOL    HW248039  13.041  12.320   1.232
48734SOL     OW48040  12.779   2.312   5.042
48734SOL    HW148041  12.748   2.237   4.991
48734SOL    HW248042  12.873   2.297   5.052
48735SOL     OW48043   8.191   6.732   4.939
48735SOL    HW148044   8.202   6.813   4.989
48735SOL    HW248045   8.100   6.735   4.909
48736SOL     OW48046   1.697   1.250  13.806
48736SOL    HW148047   1.742   1.217  13.884
48736SOL    HW248048   1.605   1.253  13.830
48737SOL     OW48049  13.801   9.347   7.115
48737SOL    HW148050  13.870   9.412   7.103
48737SOL    HW248051  13.818   9.281   7.048
48738SOL     OW48052   2.409   1.018   7.316
48738SOL    HW148053   2.401   1.036   7.222
48738SOL    HW248054   2.493   0.971   7.324
48739SOL     OW48055  13.298   7.968  14.722
48739SOL    HW148056  13.272   7.968  14.630
48739SOL    HW248057  13.392   7.951  14.720
48740SOL     OW48058   3.520  11.586   9.854
48740SOL    HW148059   3.547  11.617   9.767
48740SOL    HW248060   3.602  11.560   9.896
48741SOL     OW48061   0.127  14.607  14.588
48741SOL    HW148062   0.173  14.538  14.637
48741SOL    HW248063   0.085  14.560  14.516
48742SOL     OW48064   5.859  12.675   5.697
48742SOL    HW148065   5.888  12.701   5.610
48742SOL    HW248066   5.765  12.659   5.687
48743SOL     OW48067   9.014  11.853   9.752
48743SOL    HW148068   9.057  11.770   9.733
48743SOL    HW248069   9.075  11.900   9.809
48744SOL     OW48070   8.134  11.706  11.539
48744SOL    HW148071   8.092  11.650  11.605
48744SOL    HW248072   8.070  11.710  11.468
48745SOL     OW48073  12.626  10.828   2.857
48745SOL    HW148074  12.698  10.890   2.847
48745SOL    HW248075  12.655  10.750   2.809
48746SOL     OW48076   7.467   0.406  14.514
48746SOL    HW148077   7.371   0.401  14.511
48746SOL    HW248078   7.486   0.483  14.568
48747SOL     OW48079   3.618  12.630  12.233
48747SOL    HW148080   3.707  12.613  12.201
48747SOL    HW248081   3.587  12.702  12.178
48748SOL     OW48082   2.016   1.692   0.673
48748SOL    HW148083   1.971   1.624   0.622
48748SOL    HW248084   1.945   1.745   0.710
48749SOL     OW48085   6.948   1.974   0.802
48749SOL    HW148086   6.910   1.953   0.887
48749SOL    HW248087   7.041   1.988   0.820
48750SOL     OW48088  13.343   1.401   0.001
48750SOL    HW148089  13.400   1.329  14.852
48750SOL    HW248090  13.345   1.397   0.096
48751SOL     OW48091  13.908   3.886  13.536
48751SOL    HW148092  13.983   3.909  13.591
48751SOL    HW248093  13.857   3.967  13.529
48752SOL     OW48094   8.340  10.334   2.736
48752SOL    HW148095   8.308  10.424   2.747
48752SOL    HW248096   8.364  10.328   2.644
48753SOL     OW48097  13.959   1.676   4.010
48753SOL    HW148098  14.051   1.660   3.992
48753SOL    HW248099  13.956   1.767   4.040
48754SOL     OW48100   0.884  13.070   8.453
48754SOL    HW148101   0.945  13.144   8.456
48754SOL    HW248102   0.911  13.021   8.376
48755SOL     OW48103  11.207   0.456  14.172
48755SOL    HW148104  11.242   0.435  14.258
48755SOL    HW248105  11.264   0.526  14.139
48756SOL     OW48106   3.748   6.373  11.212
48756SOL    HW148107   3.743   6.452  11.266
48756SOL    HW248108   3.756   6.301  11.276
48757SOL     OW48109  10.904  14.401   8.880
48757SOL    HW148110  10.995  14.417   8.906
48757SOL    HW248111  10.865  14.488   8.875
48758SOL     OW48112   0.966   3.115  13.261
48758SOL    HW148113   0.949   3.209  13.256
48758SOL    HW248114   0.993   3.091  13.172
48759SOL     OW48115  14.686   2.504   6.525
48759SOL    HW148116  14.644   2.533   6.606
48759SOL    HW248117  14.770   2.551   6.524
48760SOL     OW48118  11.443  13.981   6.674
48760SOL    HW148119  11.518  13.939   6.715
48760SOL    HW248120  11.391  14.015   6.747
48761SOL     OW48121   9.906  11.519   8.788
48761SOL    HW148122   9.996  11.497   8.764
48761SOL    HW248123   9.894  11.481   8.875
48762SOL     OW48124   8.756  12.516   9.415
48762SOL    HW148125   8.730  12.434   9.456
48762SOL    HW248126   8.849  12.525   9.433
48763SOL     OW48127   2.811   4.182  10.577
48763SOL    HW148128   2.757   4.165  10.500
48763SOL    HW248129   2.787   4.271  10.604
48764SOL     OW48130   0.809  10.587   8.166
48764SOL    HW148131   0.901  10.608   8.147
48764SOL    HW248132   0.804  10.492   8.159
48765SOL     OW48133   3.163  11.305   5.685
48765SOL    HW148134   3.256  11.308   5.708
48765SOL    HW248135   3.160  11.249   5.608
48766SOL     OW48136   9.740   4.370  13.313
48766SOL    HW148137   9.654   4.335  13.336
48766SOL    HW248138   9.722   4.458  13.280
48767SOL     OW48139   5.970  13.767   8.846
48767SOL    HW148140   5.992  13.833   8.780
48767SOL    HW248141   5.882  13.792   8.876
48768SOL     OW48142  13.948   6.831   3.795
48768SOL    HW148143  13.894   6.842   3.873
48768SOL    HW248144  13.890   6.855   3.723
48769SOL     OW48145   9.261   6.562   8.482
48769SOL    HW148146   9.225   6.474   8.487
48769SOL    HW248147   9.236   6.604   8.565
48770SOL     OW48148  13.598  11.760   6.958
48770SOL    HW148149  13.550  11.714   6.889
48770SOL    HW248150  13.684  11.718   6.960
48771SOL     OW48151   4.142  11.265   1.133
48771SOL    HW148152   4.093  11.217   1.066
48771SOL    HW248153   4.170  11.345   1.088
48772SOL     OW48154   7.936   0.444   6.344
48772SOL    HW148155   7.979   0.436   6.429
48772SOL    HW248156   7.844   0.461   6.365
48773SOL     OW48157   1.629   2.598  12.646
48773SOL    HW148158   1.654   2.685  12.677
48773SOL    HW248159   1.688   2.582  12.572
48774SOL     OW48160  12.314   5.305   3.375
48774SOL    HW148161  12.307   5.354   3.457
48774SOL    HW248162  12.235   5.328   3.327
48775SOL     OW48163   1.729  11.113  10.389
48775SOL    HW148164   1.640  11.115  10.424
48775SOL    HW248165   1.746  11.203  10.363
48776SOL     OW48166   0.015   9.629   0.996
48776SOL    HW148167   0.043   9.676   0.918
48776SOL    HW248168  14.828   9.567   0.964
48777SOL     OW48169  14.183  12.337  14.202
48777SOL    HW148170  14.228  12.365  14.282
48777SOL    HW248171  14.126  12.410  14.180
48778SOL     OW48172   3.281  14.079   0.660
48778SOL    HW148173   3.336  14.156   0.652
48778SOL    HW248174   3.195  14.107   0.628
48779SOL     OW48175  14.343   4.494  14.214
48779SOL    HW148176  14.268   4.439  14.233
48779SOL    HW248177  14.418   4.434  14.214
48780SOL     OW48178   4.579   7.602   8.170
48780SOL    HW148179   4.591   7.608   8.075
48780SOL    HW248180   4.508   7.539   8.181
48781SOL     OW48181   1.855   1.516   0.546
48781SOL    HW148182   1.888   1.483   0.462
48781SOL    HW248183   1.779   1.569   0.522
48782SOL     OW48184   8.100   9.488  10.704
48782SOL    HW148185   8.166   9.551  10.675
48782SOL    HW248186   8.146   9.432  10.766
48783SOL     OW48187   0.409  13.757  14.871
48783SOL    HW148188   0.349  13.832  14.871
48783SOL    HW248189   0.438  13.750  14.780
48784SOL     OW48190   1.901  14.770   9.986
48784SOL    HW148191   1.967  14.722   9.935
48784SOL    HW248192   1.885  14.714  10.062
48785SOL     OW48193   5.410   6.283   6.931
48785SOL    HW148194   5.325   6.309   6.967
48785SOL    HW248195   5.402   6.189   6.914
48786SOL     OW48196   1.289  11.295  10.941
48786SOL    HW148197   1.197  11.290  10.914
48786SOL    HW248198   1.336  11.249  10.872
48787SOL     OW48199   5.172   8.710   2.103
48787SOL    HW148200   5.209   8.659   2.031
48787SOL    HW248201   5.100   8.758   2.063
48788SOL     OW48202  12.290   1.376   9.022
48788SOL    HW148203  12.217   1.359   8.963
48788SOL    HW248204  12.252   1.373   9.109
48789SOL     OW48205  11.959   8.747  10.803
48789SOL    HW148206  11.963   8.752  10.707
48789SOL    HW248207  12.045   8.713  10.829
48790SOL     OW48208   2.232   2.990  11.558
48790SOL    HW148209   2.281   3.042  11.622
48790SOL    HW248210   2.268   2.902  11.567
48791SOL     OW48211   7.286   3.352   8.714
48791SOL    HW148212   7.270   3.258   8.706
48791SOL    HW248213   7.198   3.391   8.718
48792SOL     OW48214   4.944   5.604   7.824
48792SOL    HW148215   4.849   5.611   7.829
48792SOL    HW248216   4.972   5.685   7.782
48793SOL     OW48217   0.970   1.327   6.232
48793SOL    HW148218   0.960   1.232   6.238
48793SOL    HW248219   1.007   1.352   6.317
48794SOL     OW48220  14.457   2.465   4.122
48794SOL    HW148221  14.424   2.528   4.187
48794SOL    HW248222  14.528   2.511   4.078
48795SOL     OW48223  10.397   2.772   1.074
48795SOL    HW148224  10.455   2.696   1.072
48795SOL    HW248225  10.365   2.775   1.164
48796SOL     OW48226   2.348   6.567   7.552
48796SOL    HW148227   2.387   6.588   7.467
48796SOL    HW248228   2.397   6.622   7.614
48797SOL     OW48229   9.630  12.126  11.882
48797SOL    HW148230   9.574  12.201  11.860
48797SOL    HW248231   9.703  12.133  11.822
48798SOL     OW48232   2.063  13.906  14.461
48798SOL    HW148233   2.104  13.821  14.478
48798SOL    HW248234   2.006  13.920  14.537
48799SOL     OW48235   4.570   6.025   6.340
48799SOL    HW148236   4.489   6.063   6.374
48799SOL    HW248237   4.595   5.960   6.406
48800SOL     OW48238  11.372   5.166   6.961
48800SOL    HW148239  11.305   5.106   6.929
48800SOL    HW248240  11.442   5.109   6.993
48801SOL     OW48241   1.591  13.440  14.561
48801SOL    HW148242   1.556  13.527  14.545
48801SOL    HW248243   1.685  13.452  14.568
48802SOL     OW48244   0.063   9.195  13.582
48802SOL    HW148245  14.848   9.183  13.589
48802SOL    HW248246   0.090   9.132  13.515
48803SOL     OW48247   9.231   3.102   8.580
48803SOL    HW148248   9.152   3.068   8.622
48803SOL    HW248249   9.265   3.028   8.530
48804SOL     OW48250   5.637   4.268   2.109
48804SOL    HW148251   5.602   4.213   2.179
48804SOL    HW248252   5.559   4.310   2.071
48805SOL     OW48253   9.004   3.820   5.063
48805SOL    HW148254   9.096   3.845   5.065
48805SOL    HW248255   9.003   3.733   5.103
48806SOL     OW48256   3.751   1.234   6.552
48806SOL    HW148257   3.720   1.153   6.511
48806SOL    HW248258   3.747   1.299   6.482
48807SOL     OW48259  11.973   2.888   0.753
48807SOL    HW148260  11.916   2.822   0.791
48807SOL    HW248261  12.019   2.926   0.828
48808SOL     OW48262  14.838   9.332   2.983
48808SOL    HW148263  14.765   9.276   2.955
48808SOL    HW248264   0.004   9.353   2.902
48809SOL     OW48265   5.944   6.234  11.411
48809SOL    HW148266   5.963   6.274  11.496
48809SOL    HW248267   5.866   6.180  11.427
48810SOL     OW48268   6.606   1.408   5.969
48810SOL    HW148269   6.689   1.372   5.939
48810SOL    HW248270   6.608   1.399   6.064
48811SOL     OW48271   7.987   6.380   2.371
48811SOL    HW148272   7.991   6.351   2.463
48811SOL    HW248273   8.075   6.362   2.337
48812SOL     OW48274   0.347   5.537   0.572
48812SOL    HW148275   0.311   5.501   0.653
48812SOL    HW248276   0.341   5.466   0.509
48813SOL     OW48277   4.233   2.716   5.799
48813SOL    HW148278   4.295   2.642   5.794
48813SOL    HW248279   4.147   2.674   5.804
48814SOL     OW48280  14.283   0.636  13.398
48814SOL    HW148281  14.280   0.619  13.492
48814SOL    HW248282  14.192   0.654  13.374
48815SOL     OW48283   2.331  13.431   2.658
48815SOL    HW148284   2.419  13.432   2.622
48815SOL    HW248285   2.338  13.385   2.741
48816SOL     OW48286  10.087  11.316   7.611
48816SOL    HW148287  10.061  11.271   7.531
48816SOL    HW248288  10.095  11.408   7.585
48817SOL     OW48289  14.236  13.243   8.746
48817SOL    HW148290  14.285  13.197   8.678
48817SOL    HW248291  14.276  13.330   8.750
48818SOL     OW48292  10.716  14.637   0.486
48818SOL    HW148293  10.805  14.664   0.466
48818SOL    HW248294  10.723  14.592   0.570
48819SOL     OW48295   8.658   1.580   4.417
48819SOL    HW148296   8.693   1.541   4.497
48819SOL    HW248297   8.648   1.673   4.437
48820SOL     OW48298  12.828   1.877   1.481
48820SOL    HW148299  12.861   1.787   1.485
48820SOL    HW248300  12.766   1.876   1.408
48821SOL     OW48301   4.690  11.359   7.450
48821SOL    HW148302   4.655  11.448   7.447
48821SOL    HW248303   4.669  11.327   7.538
48822SOL     OW48304   0.235   1.667  13.951
48822SOL    HW148305   0.308   1.680  13.891
48822SOL    HW248306   0.276   1.639  14.033
48823SOL     OW48307  12.003   9.296  13.449
48823SOL    HW148308  11.940   9.367  13.437
48823SOL    HW248309  12.020   9.264  13.361
48824SOL     OW48310  12.855   9.441   5.475
48824SOL    HW148311  12.866   9.491   5.395
48824SOL    HW248312  12.771   9.397   5.465
48825SOL     OW48313   7.152   7.182   4.116
48825SOL    HW148314   7.087   7.175   4.186
48825SOL    HW248315   7.234   7.198   4.162
48826SOL     OW48316  10.171   6.999  13.748
48826SOL    HW148317  10.110   6.982  13.676
48826SOL    HW248318  10.115   7.013  13.824
48827SOL     OW48319  13.131  12.268  13.429
48827SOL    HW148320  13.163  12.330  13.364
48827SOL    HW248321  13.189  12.279  13.505
48828SOL     OW48322   9.643   2.393   2.051
48828SOL    HW148323   9.567   2.341   2.027
48828SOL    HW248324   9.651   2.459   1.982
48829SOL     OW48325   6.879   5.658   8.393
48829SOL    HW148326   6.854   5.724   8.329
48829SOL    HW248327   6.868   5.701   8.478
48830SOL     OW48328   4.247  13.625   8.861
48830SOL    HW148329   4.232  13.586   8.947
48830SOL    HW248330   4.280  13.554   8.807
48831SOL     OW48331  12.201   2.070   5.340
48831SOL    HW148332  12.203   1.979   5.370
48831SOL    HW248333  12.272   2.075   5.275
48832SOL     OW48334   2.829   7.385   3.067
48832SOL    HW148335   2.822   7.479   3.087
48832SOL    HW248336   2.770   7.343   3.129
48833SOL     OW48337   5.908   3.735   4.898
48833SOL    HW148338   5.822   3.778   4.902
48833SOL    HW248339   5.905   3.684   4.817
48834SOL     OW48340   9.250   5.554   1.471
48834SOL    HW148341   9.174   5.608   1.492
48834SOL    HW248342   9.324   5.614   1.478
48835SOL     OW48343   0.750   9.647   3.387
48835SOL    HW148344   0.821   9.696   3.429
48835SOL    HW248345   0.696   9.714   3.346
48836SOL     OW48346  10.861   7.962  11.983
48836SOL    HW148347  10.806   7.885  11.969
48836SOL    HW248348  10.821   8.007  12.058
48837SOL     OW48349  12.501   1.065   6.824
48837SOL    HW148350  12.521   1.084   6.916
48837SOL    HW248351  12.558   1.124   6.774
48838SOL     OW48352   4.674  12.931  12.886
48838SOL    HW148353   4.768  12.941  12.894
48838SOL    HW248354   4.637  13.012  12.921
48839SOL     OW48355  10.334   4.625  13.732
48839SOL    HW148356  10.374   4.687  13.793
48839SOL    HW248357  10.394   4.624  13.657
48840SOL     OW48358   3.357  13.371   1.571
48840SOL    HW148359   3.360  13.406   1.482
48840SOL    HW248360   3.377  13.447   1.627
48841SOL     OW48361   6.878   2.494   2.562
48841SOL    HW148362   6.886   2.437   2.486
48841SOL    HW248363   6.844   2.438   2.631
48842SOL     OW48364   3.844  14.572  10.480
48842SOL    HW148365   3.855  14.546  10.572
48842SOL    HW248366   3.751  14.558  10.463
48843SOL     OW48367   2.736  10.188  12.789
48843SOL    HW148368   2.736  10.276  12.828
48843SOL    HW248369   2.787  10.135  12.850
48844SOL     OW48370  11.687   5.987   7.998
48844SOL    HW148371  11.782   6.003   8.000
48844SOL    HW248372  11.649   6.073   7.986
48845SOL     OW48373  10.190   8.419  11.162
48845SOL    HW148374  10.180   8.511  11.136
48845SOL    HW248375  10.266   8.419  11.220
48846SOL     OW48376  13.519  12.418   2.891
48846SOL    HW148377  13.603  12.461   2.879
48846SOL    HW248378  13.481  12.461   2.967
48847SOL     OW48379  10.278  10.361   6.334
48847SOL    HW148380  10.291  10.270   6.308
48847SOL    HW248381  10.213  10.395   6.273
48848SOL     OW48382  14.603  12.914   9.590
48848SOL    HW148383  14.526  12.921   9.647
48848SOL    HW248384  14.575  12.855   9.520
48849SOL     OW48385  13.199   0.813   8.251
48849SOL    HW148386  13.288   0.838   8.225
48849SOL    HW248387  13.142   0.862   8.192
48850SOL     OW48388   1.166   2.251   0.612
48850SOL    HW148389   1.080   2.275   0.578
48850SOL    HW248390   1.148   2.193   0.686
48851SOL     OW48391   8.789  10.348   6.980
48851SOL    HW148392   8.776  10.410   7.052
48851SOL    HW248393   8.857  10.289   7.012
48852SOL     OW48394   8.975   3.781   0.777
48852SOL    HW148395   9.019   3.853   0.823
48852SOL    HW248396   8.892   3.771   0.823
48853SOL     OW48397  10.257   7.832   1.753
48853SOL    HW148398  10.163   7.827   1.735
48853SOL    HW248399  10.279   7.924   1.743
48854SOL     OW48400  13.757   0.362   3.622
48854SOL    HW148401  13.827   0.345   3.686
48854SOL    HW248402  13.714   0.441   3.654
48855SOL     OW48403   1.613   2.688   9.757
48855SOL    HW148404   1.617   2.622   9.826
48855SOL    HW248405   1.557   2.649   9.690
48856SOL     OW48406   7.444   1.092   2.375
48856SOL    HW148407   7.381   1.062   2.440
48856SOL    HW248408   7.418   1.183   2.359
48857SOL     OW48409  13.838  11.414   0.535
48857SOL    HW148410  13.803  11.499   0.508
48857SOL    HW248411  13.927  11.414   0.502
48858SOL     OW48412   8.741   1.676   3.610
48858SOL    HW148413   8.762   1.669   3.517
48858SOL    HW248414   8.798   1.747   3.642
48859SOL     OW48415   2.624  11.176  11.046
48859SOL    HW148416   2.609  11.114  10.974
48859SOL    HW248417   2.576  11.138  11.120
48860SOL     OW48418   4.663   9.946   3.933
48860SOL    HW148419   4.614  10.028   3.933
48860SOL    HW248420   4.735   9.961   3.871
48861SOL     OW48421   4.871   1.808  13.364
48861SOL    HW148422   4.896   1.897  13.337
48861SOL    HW248423   4.891   1.805  13.457
48862SOL     OW48424  12.436   1.665   2.423
48862SOL    HW148425  12.379   1.707   2.359
48862SOL    HW248426  12.522   1.662   2.380
48863SOL     OW48427  12.960  12.732   0.375
48863SOL    HW148428  12.911  12.814   0.378
48863SOL    HW248429  12.933  12.685   0.454
48864SOL     OW48430   1.615   8.736  14.570
48864SOL    HW148431   1.654   8.734  14.657
48864SOL    HW248432   1.585   8.826  14.559
48865SOL     OW48433  11.666   1.741   1.394
48865SOL    HW148434  11.586   1.789   1.413
48865SOL    HW248435  11.663   1.665   1.452
48866SOL     OW48436   6.404   4.706   1.729
48866SOL    HW148437   6.400   4.785   1.675
48866SOL    HW248438   6.328   4.655   1.703
48867SOL     OW48439   5.128  13.308   9.634
48867SOL    HW148440   5.089  13.293   9.721
48867SOL    HW248441   5.204  13.364   9.652
48868SOL     OW48442   7.331  12.822   5.667
48868SOL    HW148443   7.275  12.744   5.663
48868SOL    HW248444   7.346  12.846   5.575
48869SOL     OW48445   0.927   5.726   9.093
48869SOL    HW148446   0.941   5.708   9.186
48869SOL    HW248447   0.836   5.704   9.077
48870SOL     OW48448  11.047  10.565  12.094
48870SOL    HW148449  10.988  10.640  12.086
48870SOL    HW248450  11.130  10.597  12.056
48871SOL     OW48451   0.228   4.069   6.584
48871SOL    HW148452   0.185   4.105   6.507
48871SOL    HW248453   0.206   3.976   6.582
48872SOL     OW48454   6.656   3.668   5.552
48872SOL    HW148455   6.660   3.685   5.458
48872SOL    HW248456   6.584   3.606   5.563
48873SOL     OW48457  13.615   6.977   0.085
48873SOL    HW148458  13.670   7.030   0.143
48873SOL    HW248459  13.550   6.937   0.142
48874SOL     OW48460   7.287   2.183   4.311
48874SOL    HW148461   7.364   2.174   4.255
48874SOL    HW248462   7.291   2.273   4.344
48875SOL     OW48463   0.261  13.570   5.694
48875SOL    HW148464   0.200  13.498   5.685
48875SOL    HW248465   0.208  13.649   5.683
48876SOL     OW48466   8.713  13.121  10.531
48876SOL    HW148467   8.721  13.101  10.624
48876SOL    HW248468   8.803  13.116  10.498
48877SOL     OW48469  11.707   1.815   1.788
48877SOL    HW148470  11.645   1.755   1.748
48877SOL    HW248471  11.688   1.811   1.881
48878SOL     OW48472   0.997   0.293   1.129
48878SOL    HW148473   1.011   0.289   1.034
48878SOL    HW248474   1.037   0.212   1.162
48879SOL     OW48475   7.967  10.391   5.177
48879SOL    HW148476   7.905  10.417   5.110
48879SOL    HW248477   8.051  10.424   5.146
48880SOL     OW48478  13.474  13.678  13.231
48880SOL    HW148479  13.424  13.621  13.289
48880SOL    HW248480  13.511  13.619  13.165
48881SOL     OW48481   7.139   0.430   5.692
48881SOL    HW148482   7.050   0.445   5.726
48881SOL    HW248483   7.134   0.345   5.649
48882SOL     OW48484  11.732   9.696   5.724
48882SOL    HW148485  11.751   9.698   5.818
48882SOL    HW248486  11.753   9.784   5.694
48883SOL     OW48487  12.336  14.814   6.068
48883SOL    HW148488  12.285   0.014   6.055
48883SOL    HW248489  12.283  14.761   6.127
48884SOL     OW48490  11.487  14.844  13.318
48884SOL    HW148491  11.560  14.792  13.285
48884SOL    HW248492  11.421  14.841  13.248
48885SOL     OW48493   7.191   9.339   9.297
48885SOL    HW148494   7.115   9.398   9.292
48885SOL    HW248495   7.265   9.393   9.269
48886SOL     OW48496   7.764   3.262   1.034
48886SOL    HW148497   7.762   3.168   1.014
48886SOL    HW248498   7.712   3.302   0.964
48887SOL     OW48499   8.060   1.818   8.639
48887SOL    HW148500   8.015   1.803   8.723
48887SOL    HW248501   8.146   1.780   8.651
48888SOL     OW48502   3.659   7.583   0.840
48888SOL    HW148503   3.745   7.609   0.873
48888SOL    HW248504   3.620   7.663   0.806
48889SOL     OW48505   6.373  12.505   3.888
48889SOL    HW148506   6.446  12.566   3.878
48889SOL    HW248507   6.334  12.528   3.972
48890SOL     OW48508  14.539   7.520   5.646
48890SOL    HW148509  14.551   7.449   5.583
48890SOL    HW248510  14.524   7.598   5.593
48891SOL     OW48511   8.264   3.670  10.974
48891SOL    HW148512   8.176   3.690  11.004
48891SOL    HW248513   8.261   3.577  10.951
48892SOL     OW48514   0.731   1.546  11.963
48892SOL    HW148515   0.723   1.566  12.056
48892SOL    HW248516   0.732   1.631  11.920
48893SOL     OW48517   4.818   0.114  12.488
48893SOL    HW148518   4.749   0.063  12.532
48893SOL    HW248519   4.899   0.068  12.510
48894SOL     OW48520   8.050   0.749  13.051
48894SOL    HW148521   8.111   0.707  13.112
48894SOL    HW248522   7.996   0.677  13.019
48895SOL     OW48523   1.310   1.132   0.505
48895SOL    HW148524   1.396   1.175   0.495
48895SOL    HW248525   1.267   1.145   0.421
48896SOL     OW48526   2.843   1.513  13.877
48896SOL    HW148527   2.887   1.522  13.961
48896SOL    HW248528   2.755   1.481  13.898
48897SOL     OW48529   1.445  12.179   3.571
48897SOL    HW148530   1.441  12.253   3.632
48897SOL    HW248531   1.371  12.124   3.597
48898SOL     OW48532   3.386   4.789   3.967
48898SOL    HW148533   3.339   4.758   3.890
48898SOL    HW248534   3.465   4.735   3.971
48899SOL     OW48535  11.123   5.805  14.155
48899SOL    HW148536  11.079   5.844  14.080
48899SOL    HW248537  11.163   5.725  14.120
48900SOL     OW48538   1.386   8.078   9.376
48900SOL    HW148539   1.394   8.068   9.281
48900SOL    HW248540   1.382   7.988   9.409
48901SOL     OW48541   7.731  12.878   0.016
48901SOL    HW148542   7.792  12.815   0.054
48901SOL    HW248543   7.781  12.920  14.826
48902SOL     OW48544  12.230   0.069   1.032
48902SOL    HW148545  12.163   0.077   0.964
48902SOL    HW248546  12.308   0.039   0.985
48903SOL     OW48547  11.460   7.270   7.399
48903SOL    HW148548  11.468   7.286   7.305
48903SOL    HW248549  11.365   7.271   7.415
48904SOL     OW48550  12.601   0.640   2.656
48904SOL    HW148551  12.670   0.705   2.643
48904SOL    HW248552  12.641   0.574   2.713
48905SOL     OW48553   5.558  10.370   5.911
48905SOL    HW148554   5.466  10.349   5.927
48905SOL    HW248555   5.584  10.313   5.839
48906SOL     OW48556   3.482   0.263   2.368
48906SOL    HW148557   3.391   0.235   2.380
48906SOL    HW248558   3.496   0.256   2.274
48907SOL     OW48559   3.867   0.476   8.994
48907SOL    HW148560   3.870   0.499   9.087
48907SOL    HW248561   3.935   0.530   8.954
48908SOL     OW48562   6.516   0.174  14.271
48908SOL    HW148563   6.564   0.103  14.315
48908SOL    HW248564   6.508   0.144  14.181
48909SOL     OW48565   2.020   3.352   3.531
48909SOL    HW148566   2.109   3.359   3.566
48909SOL    HW248567   2.031   3.311   3.445
48910SOL     OW48568   1.869   9.934   6.451
48910SOL    HW148569   1.880   9.869   6.521
48910SOL    HW248570   1.922   9.900   6.379
48911SOL     OW48571  10.948   7.390  12.497
48911SOL    HW148572  11.001   7.315  12.468
48911SOL    HW248573  10.991   7.466  12.458
48912SOL     OW48574   0.425   3.259  10.157
48912SOL    HW148575   0.332   3.267  10.181
48912SOL    HW248576   0.444   3.340  10.111
48913SOL     OW48577   1.460   5.489   7.951
48913SOL    HW148578   1.404   5.541   7.892
48913SOL    HW248579   1.442   5.525   8.038
48914SOL     OW48580   9.817  11.541   1.911
48914SOL    HW148581   9.795  11.622   1.958
48914SOL    HW248582   9.774  11.551   1.826
48915SOL     OW48583   4.737   9.979  10.827
48915SOL    HW148584   4.773   9.980  10.738
48915SOL    HW248585   4.693  10.063  10.837
48916SOL     OW48586   0.338   9.712  14.045
48916SOL    HW148587   0.250   9.681  14.022
48916SOL    HW248588   0.368   9.759  13.967
48917SOL     OW48589  12.701   6.145   5.077
48917SOL    HW148590  12.732   6.055   5.087
48917SOL    HW248591  12.611   6.137   5.047
48918SOL     OW48592   7.774   5.880   9.291
48918SOL    HW148593   7.725   5.799   9.306
48918SOL    HW248594   7.783   5.885   9.196
48919SOL     OW48595   3.471  14.524  11.175
48919SOL    HW148596   3.498  14.434  11.160
48919SOL    HW248597   3.514  14.550  11.256
48920SOL     OW48598  10.401  13.333   2.585
48920SOL    HW148599  10.450  13.275   2.527
48920SOL    HW248600  10.431  13.309   2.673
48921SOL     OW48601  11.030   0.855  13.559
48921SOL    HW148602  11.104   0.843  13.500
48921SOL    HW248603  11.060   0.919  13.623
48922SOL     OW48604   1.365   1.925  10.712
48922SOL    HW148605   1.322   1.891  10.790
48922SOL    HW248606   1.413   1.850  10.676
48923SOL     OW48607   6.488   8.874   4.050
48923SOL    HW148608   6.473   8.968   4.037
48923SOL    HW248609   6.435   8.852   4.127
48924SOL     OW48610   0.141  13.945   2.066
48924SOL    HW148611   0.146  14.034   2.101
48924SOL    HW248612   0.232  13.923   2.045
48925SOL     OW48613   0.713  14.313  11.461
48925SOL    HW148614   0.725  14.238  11.402
48925SOL    HW248615   0.770  14.381  11.425
48926SOL     OW48616  10.423   9.381  11.780
48926SOL    HW148617  10.502   9.351  11.825
48926SOL    HW248618  10.436   9.476  11.771
48927SOL     OW48619   4.409  13.380   2.590
48927SOL    HW148620   4.437  13.386   2.682
48927SOL    HW248621   4.391  13.470   2.564
48928SOL     OW48622   0.419   6.511   6.020
48928SOL    HW148623   0.325   6.517   6.003
48928SOL    HW248624   0.430   6.547   6.109
48929SOL     OW48625  12.936   3.438  12.329
48929SOL    HW148626  12.988   3.365  12.295
48929SOL    HW248627  12.977   3.459  12.413
48930SOL     OW48628  14.606   2.435   9.090
48930SOL    HW148629  14.560   2.512   9.057
48930SOL    HW248630  14.602   2.372   9.019
48931SOL     OW48631   2.975   4.444  14.622
48931SOL    HW148632   2.900   4.388  14.604
48931SOL    HW248633   3.047   4.405  14.574
48932SOL     OW48634   2.826   8.304  14.462
48932SOL    HW148635   2.876   8.312  14.543
48932SOL    HW248636   2.801   8.393  14.439
48933SOL     OW48637   9.390   0.639   5.388
48933SOL    HW148638   9.436   0.719   5.362
48933SOL    HW248639   9.422   0.573   5.327
48934SOL     OW48640   7.538   5.508  12.559
48934SOL    HW148641   7.521   5.423  12.519
48934SOL    HW248642   7.628   5.503  12.589
48935SOL     OW48643   0.296   9.592  13.298
48935SOL    HW148644   0.293   9.541  13.379
48935SOL    HW248645   0.266   9.679  13.323
48936SOL     OW48646   8.722  13.585   8.399
48936SOL    HW148647   8.654  13.635   8.445
48936SOL    HW248648   8.687  13.496   8.395
48937SOL     OW48649   2.498   2.587   8.182
48937SOL    HW148650   2.470   2.505   8.142
48937SOL    HW248651   2.438   2.600   8.256
48938SOL     OW48652   4.607   6.501   5.519
48938SOL    HW148653   4.515   6.523   5.532
48938SOL    HW248654   4.636   6.559   5.449
48939SOL     OW48655  12.105   0.953   4.682
48939SOL    HW148656  12.056   0.872   4.693
48939SOL    HW248657  12.054   1.003   4.619
48940SOL     OW48658   3.505   8.752  11.970
48940SOL    HW148659   3.511   8.719  12.059
48940SOL    HW248660   3.492   8.846  11.980
48941SOL     OW48661  10.353  11.125   4.703
48941SOL    HW148662  10.311  11.201   4.663
48941SOL    HW248663  10.285  11.087   4.759
48942SOL     OW48664   1.864   1.465   1.049
48942SOL    HW148665   1.916   1.411   1.108
48942SOL    HW248666   1.846   1.409   0.974
48943SOL     OW48667  10.110   8.430  12.500
48943SOL    HW148668  10.121   8.336  12.483
48943SOL    HW248669  10.095   8.468  12.413
48944SOL     OW48670   4.063   2.208   1.755
48944SOL    HW148671   4.106   2.293   1.749
48944SOL    HW248672   4.114   2.160   1.821
48945SOL     OW48673   2.632  13.383  13.579
48945SOL    HW148674   2.708  13.437  13.558
48945SOL    HW248675   2.647  13.302  13.531
48946SOL     OW48676  13.834   1.780   9.550
48946SOL    HW148677  13.899   1.711   9.567
48946SOL    HW248678  13.769   1.739   9.494
48947SOL     OW48679   1.685   7.685   4.677
48947SOL    HW148680   1.714   7.774   4.660
48947SOL    HW248681   1.728   7.632   4.609
48948SOL     OW48682   2.113   7.895   5.134
48948SOL    HW148683   2.018   7.890   5.131
48948SOL    HW248684   2.131   7.985   5.161
48949SOL     OW48685   7.857   1.297  10.909
48949SOL    HW148686   7.924   1.286  10.841
48949SOL    HW248687   7.781   1.333  10.862
48950SOL     OW48688   6.875   7.393  14.693
48950SOL    HW148689   6.844   7.305  14.713
48950SOL    HW248690   6.916   7.385  14.607
48951SOL     OW48691   3.551   5.083   1.199
48951SOL    HW148692   3.553   5.095   1.294
48951SOL    HW248693   3.582   5.167   1.164
48952SOL     OW48694   6.934   9.723   4.691
48952SOL    HW148695   7.026   9.749   4.691
48952SOL    HW248696   6.887   9.803   4.666
48953SOL     OW48697  13.340   8.391   5.083
48953SOL    HW148698  13.381   8.470   5.118
48953SOL    HW248699  13.410   8.348   5.034
48954SOL     OW48700  12.595   1.665   6.128
48954SOL    HW148701  12.588   1.572   6.107
48954SOL    HW248702  12.514   1.704   6.094
48955SOL     OW48703  12.178   4.912   7.945
48955SOL    HW148704  12.223   4.893   7.862
48955SOL    HW248705  12.211   4.998   7.970
48956SOL     OW48706   7.699  10.849   8.446
48956SOL    HW148707   7.756  10.796   8.390
48956SOL    HW248708   7.673  10.790   8.516
48957SOL     OW48709  13.505  11.851   5.612
48957SOL    HW148710  13.497  11.915   5.541
48957SOL    HW248711  13.437  11.787   5.594
48958SOL     OW48712  13.390   7.764   7.228
48958SOL    HW148713  13.364   7.817   7.303
48958SOL    HW248714  13.316   7.704   7.215
48959SOL     OW48715   3.754   1.546  13.711
48959SOL    HW148716   3.809   1.529  13.787
48959SOL    HW248717   3.698   1.619  13.739
48960SOL     OW48718  10.755   1.140   7.756
48960SOL    HW148719  10.845   1.147   7.726
48960SOL    HW248720  10.762   1.130   7.851
48961SOL     OW48721   3.256   1.663   9.909
48961SOL    HW148722   3.326   1.725   9.928
48961SOL    HW248723   3.300   1.592   9.861
48962SOL     OW48724  12.304   9.561   9.982
48962SOL    HW148725  12.317   9.491  10.045
48962SOL    HW248726  12.351   9.533   9.904
48963SOL     OW48727  10.303   2.381  11.700
48963SOL    HW148728  10.339   2.306  11.652
48963SOL    HW248729  10.375   2.410  11.756
48964SOL     OW48730   4.480   7.652   7.677
48964SOL    HW148731   4.500   7.735   7.635
48964SOL    HW248732   4.557   7.597   7.660
48965SOL     OW48733   5.627   0.126  12.559
48965SOL    HW148734   5.555   0.178  12.597
48965SOL    HW248735   5.688   0.115  12.631
48966SOL     OW48736   0.875   4.880   0.521
48966SOL    HW148737   0.795   4.899   0.471
48966SOL    HW248738   0.930   4.957   0.507
48967SOL     OW48739  11.506  14.748  10.338
48967SOL    HW148740  11.436  14.794  10.385
48967SOL    HW248741  11.518  14.666  10.386
48968SOL     OW48742   8.090   1.138  12.854
48968SOL    HW148743   8.131   1.210  12.806
48968SOL    HW248744   8.158   1.109  12.915
48969SOL     OW48745  13.304  11.342  14.477
48969SOL    HW148746  13.225  11.396  14.478
48969SOL    HW248747  13.279  11.265  14.426
48970SOL     OW48748  12.413  11.324  12.112
48970SOL    HW148749  12.467  11.381  12.166
48970SOL    HW248750  12.374  11.262  12.174
48971SOL     OW48751  11.835  11.595  10.340
48971SOL    HW148752  11.800  11.660  10.279
48971SOL    HW248753  11.921  11.628  10.364
48972SOL     OW48754  13.652  12.573  10.673
48972SOL    HW148755  13.572  12.604  10.633
48972SOL    HW248756  13.660  12.623  10.754
48973SOL     OW48757   7.718   3.659  14.183
48973SOL    HW148758   7.746   3.581  14.233
48973SOL    HW248759   7.624   3.664  14.198
48974SOL     OW48760   4.632  11.252   2.321
48974SOL    HW148761   4.608  11.186   2.387
48974SOL    HW248762   4.623  11.207   2.238
48975SOL     OW48763  10.309   8.641   9.174
48975SOL    HW148764  10.342   8.552   9.188
48975SOL    HW248765  10.368   8.678   9.107
48976SOL     OW48766   9.610   6.806   7.652
48976SOL    HW148767   9.600   6.712   7.660
48976SOL    HW248768   9.523   6.842   7.669
48977SOL     OW48769   5.211   9.557   4.323
48977SOL    HW148770   5.164   9.475   4.307
48977SOL    HW248771   5.143   9.619   4.348
48978SOL     OW48772   9.654   0.417  13.705
48978SOL    HW148773   9.686   0.372  13.784
48978SOL    HW248774   9.732   0.427  13.651
48979SOL     OW48775   3.856  10.601   0.765
48979SOL    HW148776   3.860  10.690   0.799
48979SOL    HW248777   3.767  10.571   0.785
48980SOL     OW48778  12.533  14.868  13.984
48980SOL    HW148779  12.468  14.799  13.971
48980SOL    HW248780  12.482   0.069  13.981
48981SOL     OW48781  11.931   5.188  10.394
48981SOL    HW148782  11.861   5.251  10.413
48981SOL    HW248783  11.992   5.197  10.467
48982SOL     OW48784   6.431  14.433   2.575
48982SOL    HW148785   6.439  14.368   2.645
48982SOL    HW248786   6.401  14.512   2.621
48983SOL     OW48787   6.196  10.494  10.182
48983SOL    HW148788   6.141  10.562  10.143
48983SOL    HW248789   6.225  10.441  10.108
48984SOL     OW48790  12.245   1.709   5.745
48984SOL    HW148791  12.200   1.624   5.743
48984SOL    HW248792  12.212   1.752   5.824
48985SOL     OW48793   9.586   4.200   2.242
48985SOL    HW148794   9.624   4.222   2.327
48985SOL    HW248795   9.507   4.252   2.236
48986SOL     OW48796   1.636   2.333   0.687
48986SOL    HW148797   1.687   2.352   0.766
48986SOL    HW248798   1.700   2.296   0.626
48987SOL     OW48799   3.029   4.697  13.516
48987SOL    HW148800   2.995   4.744  13.592
48987SOL    HW248801   2.956   4.696  13.454
48988SOL     OW48802   9.394  11.558   4.528
48988SOL    HW148803   9.350  11.473   4.525
48988SOL    HW248804   9.375  11.598   4.443
48989SOL     OW48805   7.891  11.478   7.897
48989SOL    HW148806   7.838  11.546   7.855
48989SOL    HW248807   7.919  11.422   7.825
48990SOL     OW48808   3.679   2.184   6.415
48990SOL    HW148809   3.673   2.136   6.332
48990SOL    HW248810   3.608   2.248   6.411
48991SOL     OW48811   3.005   5.763  10.213
48991SOL    HW148812   3.012   5.852  10.179
48991SOL    HW248813   2.956   5.772  10.295
48992SOL     OW48814   6.551   1.838  14.542
48992SOL    HW148815   6.506   1.791  14.613
48992SOL    HW248816   6.551   1.776  14.469
48993SOL     OW48817  11.058  11.099   4.926
48993SOL    HW148818  11.053  11.005   4.908
48993SOL    HW248819  10.988  11.137   4.872
48994SOL     OW48820  14.198   2.835  12.589
48994SOL    HW148821  14.199   2.855  12.496
48994SOL    HW248822  14.245   2.907  12.630
48995SOL     OW48823   3.244  13.044   1.978
48995SOL    HW148824   3.297  13.021   1.901
48995SOL    HW248825   3.309  13.065   2.045
48996SOL     OW48826   6.182   3.865  14.567
48996SOL    HW148827   6.247   3.892  14.633
48996SOL    HW248828   6.232   3.811  14.506
48997SOL     OW48829  13.990  13.696   0.543
48997SOL    HW148830  14.003  13.603   0.525
48997SOL    HW248831  13.918  13.698   0.606
48998SOL     OW48832   0.681   4.392   0.441
48998SOL    HW148833   0.597   4.362   0.406
48998SOL    HW248834   0.739   4.393   0.365
48999SOL     OW48835  12.755   2.549   8.611
48999SOL    HW148836  12.689   2.572   8.676
48999SOL    HW248837  12.713   2.484   8.555
49000SOL     OW48838   6.145   9.630   2.136
49000SOL    HW148839   6.059   9.668   2.117
49000SOL    HW248840   6.201   9.705   2.152
49001SOL     OW48841   7.173   5.624   2.185
49001SOL    HW148842   7.139   5.571   2.113
49001SOL    HW248843   7.238   5.681   2.144
49002SOL     OW48844   7.543  12.956   6.544
49002SOL    HW148845   7.573  12.952   6.635
49002SOL    HW248846   7.606  12.903   6.495
49003SOL     OW48847  14.512   2.028   1.993
49003SOL    HW148848  14.511   2.021   2.088
49003SOL    HW248849  14.473   1.946   1.963
49004SOL     OW48850  11.691   8.803   3.715
49004SOL    HW148851  11.739   8.821   3.796
49004SOL    HW248852  11.759   8.773   3.654
49005SOL     OW48853   2.228   3.292   9.785
49005SOL    HW148854   2.188   3.248   9.860
49005SOL    HW248855   2.177   3.373   9.776
49006SOL     OW48856  14.232   0.698   7.784
49006SOL    HW148857  14.267   0.777   7.825
49006SOL    HW248858  14.179   0.657   7.853
49007SOL     OW48859   5.334   8.785  14.096
49007SOL    HW148860   5.346   8.693  14.069
49007SOL    HW248861   5.263   8.817  14.041
49008SOL     OW48862   5.312   2.959  11.955
49008SOL    HW148863   5.393   2.914  11.933
49008SOL    HW248864   5.285   3.001  11.873
49009SOL     OW48865   7.043  12.741   5.497
49009SOL    HW148866   7.008  12.652   5.493
49009SOL    HW248867   6.967  12.797   5.479
49010SOL     OW48868   5.082   6.462   0.425
49010SOL    HW148869   5.030   6.395   0.469
49010SOL    HW248870   5.144   6.492   0.492
49011SOL     OW48871  10.689   9.236   4.156
49011SOL    HW148872  10.722   9.198   4.238
49011SOL    HW248873  10.606   9.192   4.141
49012SOL     OW48874   8.934   8.399  11.919
49012SOL    HW148875   8.960   8.316  11.960
49012SOL    HW248876   8.849   8.419  11.957
49013SOL     OW48877   6.076  11.313   6.053
49013SOL    HW148878   6.035  11.260   6.121
49013SOL    HW248879   6.142  11.256   6.014
49014SOL     OW48880   3.967   5.135  10.186
49014SOL    HW148881   4.014   5.195  10.127
49014SOL    HW248882   3.966   5.052  10.139
49015SOL     OW48883  11.408   8.309   5.430
49015SOL    HW148884  11.322   8.268   5.435
49015SOL    HW248885  11.453   8.280   5.510
49016SOL     OW48886  14.200   5.874   0.862
49016SOL    HW148887  14.287   5.890   0.898
49016SOL    HW248888  14.168   5.798   0.909
49017SOL     OW48889   7.797   3.476   1.851
49017SOL    HW148890   7.768   3.520   1.771
49017SOL    HW248891   7.717   3.436   1.887
49018SOL     OW48892  10.003   7.213   4.125
49018SOL    HW148893   9.978   7.125   4.098
49018SOL    HW248894   9.921   7.262   4.125
49019SOL     OW48895   5.887   9.542   6.638
49019SOL    HW148896   5.841   9.460   6.619
49019SOL    HW248897   5.969   9.515   6.679
49020SOL     OW48898   0.407  13.261   9.600
49020SOL    HW148899   0.433  13.170   9.615
49020SOL    HW248900   0.320  13.268   9.638
49021SOL     OW48901  11.855   7.995  13.316
49021SOL    HW148902  11.937   8.020  13.359
49021SOL    HW248903  11.787   8.020  13.377
49022SOL     OW48904   5.010   7.063   7.629
49022SOL    HW148905   4.945   7.074   7.698
49022SOL    HW248906   5.088   7.107   7.662
49023SOL     OW48907   5.898   3.627   2.886
49023SOL    HW148908   5.809   3.598   2.869
49023SOL    HW248909   5.889   3.696   2.952
49024SOL     OW48910   0.455   9.488  10.339
49024SOL    HW148911   0.432   9.433  10.414
49024SOL    HW248912   0.453   9.577  10.373
49025SOL     OW48913   8.432  13.998   2.311
49025SOL    HW148914   8.398  14.063   2.373
49025SOL    HW248915   8.356  13.976   2.257
49026SOL     OW48916   1.623   4.126   8.335
49026SOL    HW148917   1.612   4.094   8.425
49026SOL    HW248918   1.713   4.158   8.332
49027SOL     OW48919   0.035   5.327  12.339
49027SOL    HW148920   0.109   5.385  12.320
49027SOL    HW248921   0.012   5.289  12.255
49028SOL     OW48922  10.799  11.289   0.493
49028SOL    HW148923  10.850  11.213   0.522
49028SOL    HW248924  10.745  11.312   0.569
49029SOL     OW48925  13.326   3.097  10.892
49029SOL    HW148926  13.376   3.111  10.973
49029SOL    HW248927  13.235   3.099  10.919
49030SOL     OW48928  14.674  14.136   1.450
49030SOL    HW148929  14.583  14.165   1.460
49030SOL    HW248930  14.715  14.203   1.397
49031SOL     OW48931   2.672  13.338   0.536
49031SOL    HW148932   2.755  13.316   0.495
49031SOL    HW248933   2.667  13.433   0.533
49032SOL     OW48934  13.217   4.160   1.761
49032SOL    HW148935  13.206   4.069   1.734
49032SOL    HW248936  13.165   4.167   1.842
49033SOL     OW48937   2.379   4.832   7.723
49033SOL    HW148938   2.402   4.867   7.637
49033SOL    HW248939   2.443   4.762   7.738
49034SOL     OW48940  13.699   9.033  13.376
49034SOL    HW148941  13.768   9.075  13.427
49034SOL    HW248942  13.743   8.960  13.332
49035SOL     OW48943  12.417   4.466  13.288
49035SOL    HW148944  12.392   4.512  13.208
49035SOL    HW248945  12.338   4.417  13.312
49036SOL     OW48946  14.500  13.875   5.011
49036SOL    HW148947  14.509  13.807   5.077
49036SOL    HW248948  14.590  13.895   4.984
49037SOL     OW48949   9.670   2.009   5.154
49037SOL    HW148950   9.704   1.927   5.119
49037SOL    HW248951   9.600   2.034   5.093
49038SOL     OW48952   4.468   3.942   1.675
49038SOL    HW148953   4.465   3.984   1.761
49038SOL    HW248954   4.526   3.867   1.687
49039SOL     OW48955   7.369   5.363  14.113
49039SOL    HW148956   7.327   5.374  14.027
49039SOL    HW248957   7.374   5.268  14.124
49040SOL     OW48958   5.978  12.207   9.347
49040SOL    HW148959   5.998  12.157   9.268
49040SOL    HW248960   5.884  12.196   9.360
49041SOL     OW48961   8.482   3.063   2.589
49041SOL    HW148962   8.430   3.137   2.619
49041SOL    HW248963   8.419   3.000   2.556
49042SOL     OW48964   8.681  12.075   3.506
49042SOL    HW148965   8.665  11.986   3.535
49042SOL    HW248966   8.745  12.110   3.569
49043SOL     OW48967   7.371  13.584  11.099
49043SOL    HW148968   7.287  13.581  11.053
49043SOL    HW248969   7.434  13.547  11.037
49044SOL     OW48970   0.226   1.739   0.242
49044SOL    HW148971   0.274   1.688   0.307
49044SOL    HW248972   0.134   1.726   0.264
49045SOL     OW48973   3.398  12.258   8.775
49045SOL    HW148974   3.436  12.328   8.828
49045SOL    HW248975   3.307  12.283   8.763
49046SOL     OW48976   9.553   6.555   7.705
49046SOL    HW148977   9.468   6.545   7.749
49046SOL    HW248978   9.551   6.489   7.636
49047SOL     OW48979   1.850  12.265   1.832
49047SOL    HW148980   1.756  12.274   1.847
49047SOL    HW248981   1.889  12.344   1.871
49048SOL     OW48982   9.451  12.432  12.496
49048SOL    HW148983   9.507  12.360  12.526
49048SOL    HW248984   9.467  12.502  12.559
49049SOL     OW48985   1.436   6.178   4.256
49049SOL    HW148986   1.364   6.123   4.285
49049SOL    HW248987   1.442   6.247   4.322
49050SOL     OW48988   8.679   0.862  13.039
49050SOL    HW148989   8.652   0.951  13.062
49050SOL    HW248990   8.597   0.815  13.024
49051SOL     OW48991   0.045  12.337   3.459
49051SOL    HW148992   0.084  12.374   3.538
49051SOL    HW248993  14.830  12.344   3.473
49052SOL     OW48994   7.477   5.008   7.072
49052SOL    HW148995   7.550   4.954   7.102
49052SOL    HW248996   7.498   5.096   7.103
49053SOL     OW48997   6.692   5.451  12.447
49053SOL    HW148998   6.703   5.362  12.414
49053SOL    HW248999   6.748   5.505  12.391
49054SOL     OW49000   2.552   6.150   8.955
49054SOL    HW149001   2.573   6.058   8.938
49054SOL    HW249002   2.628   6.198   8.922
49055SOL     OW49003   2.946  12.231  14.022
49055SOL    HW149004   2.871  12.264  14.072
49055SOL    HW249005   2.927  12.256  13.932
49056SOL     OW49006   1.170   1.036   7.424
49056SOL    HW149007   1.206   0.989   7.348
49056SOL    HW249008   1.203   1.125   7.414
49057SOL     OW49009   6.819  13.425  11.116
49057SOL    HW149010   6.815  13.519  11.132
49057SOL    HW249011   6.792  13.386  11.199
49058SOL     OW49012   7.114   5.969  11.092
49058SOL    HW149013   7.024   5.991  11.116
49058SOL    HW249014   7.106   5.898  11.028
49059SOL     OW49015  11.891   2.377   4.573
49059SOL    HW149016  11.811   2.411   4.613
49059SOL    HW249017  11.941   2.342   4.646
49060SOL     OW49018   0.131   2.312   1.799
49060SOL    HW149019   0.114   2.261   1.719
49060SOL    HW249020   0.063   2.380   1.798
49061SOL     OW49021  13.909  13.599  12.598
49061SOL    HW149022  13.932  13.555  12.517
49061SOL    HW249023  13.948  13.545  12.667
49062SOL     OW49024  12.719  14.431   5.792
49062SOL    HW149025  12.731  14.524   5.810
49062SOL    HW249026  12.797  14.405   5.745
49063SOL     OW49027   1.913  13.978   6.776
49063SOL    HW149028   1.961  13.917   6.832
49063SOL    HW249029   1.829  13.935   6.759
49064SOL     OW49030   1.859   8.205  14.560
49064SOL    HW149031   1.909   8.158  14.493
49064SOL    HW249032   1.909   8.284  14.577
49065SOL     OW49033   9.657   5.388  11.246
49065SOL    HW149034   9.670   5.310  11.299
49065SOL    HW249035   9.564   5.409  11.257
49066SOL     OW49036   3.835  10.454   3.649
49066SOL    HW149037   3.923  10.419   3.661
49066SOL    HW249038   3.848  10.547   3.635
49067SOL     OW49039  14.463   9.557   1.057
49067SOL    HW149040  14.380   9.584   1.018
49067SOL    HW249041  14.478   9.621   1.127
49068SOL     OW49042  14.375   8.219  14.616
49068SOL    HW149043  14.376   8.289  14.551
49068SOL    HW249044  14.376   8.265  14.700
49069SOL     OW49045   0.644   7.412   4.732
49069SOL    HW149046   0.659   7.505   4.714
49069SOL    HW249047   0.552   7.397   4.708
49070SOL     OW49048   3.900   9.754   8.010
49070SOL    HW149049   3.981   9.704   8.020
49070SOL    HW249050   3.891   9.766   7.916
49071SOL     OW49051   7.745   4.087   4.643
49071SOL    HW149052   7.824   4.139   4.626
49071SOL    HW249053   7.768   3.999   4.614
49072SOL     OW49054   4.147   4.243   6.361
49072SOL    HW149055   4.108   4.170   6.314
49072SOL    HW249056   4.073   4.292   6.396
49073SOL     OW49057  14.211   7.202   8.478
49073SOL    HW149058  14.245   7.281   8.519
49073SOL    HW249059  14.150   7.234   8.412
49074SOL     OW49060  13.294  12.238  12.218
49074SOL    HW149061  13.314  12.169  12.155
49074SOL    HW249062  13.271  12.314  12.164
49075SOL     OW49063   6.548   8.956  10.743
49075SOL    HW149064   6.593   9.027  10.699
49075SOL    HW249065   6.584   8.955  10.832
49076SOL     OW49066   2.223   4.410   0.517
49076SOL    HW149067   2.168   4.343   0.478
49076SOL    HW249068   2.250   4.374   0.601
49077SOL     OW49069  14.719   3.177   2.726
49077SOL    HW149070  14.804   3.197   2.764
49077SOL    HW249071  14.722   3.219   2.639
49078SOL     OW49072   4.323   0.736   4.692
49078SOL    HW149073   4.318   0.828   4.716
49078SOL    HW249074   4.370   0.695   4.764
49079SOL     OW49075   9.600   4.055   9.929
49079SOL    HW149076   9.658   4.067  10.004
49079SOL    HW249077   9.633   4.117   9.864
49080SOL     OW49078   7.692  12.359   6.427
49080SOL    HW149079   7.711  12.267   6.406
49080SOL    HW249080   7.613  12.355   6.480
49081SOL     OW49081   6.820   6.877   7.822
49081SOL    HW149082   6.770   6.959   7.831
49081SOL    HW249083   6.911   6.903   7.832
49082SOL     OW49084  10.065   6.879  10.076
49082SOL    HW149085  10.000   6.950  10.076
49082SOL    HW249086  10.096   6.875   9.985
49083SOL     OW49087   2.779   6.590   2.454
49083SOL    HW149088   2.750   6.518   2.510
49083SOL    HW249089   2.699   6.640   2.437
49084SOL     OW49090   0.031   0.690   9.801
49084SOL    HW149091   0.115   0.727   9.830
49084SOL    HW249092   0.014   0.732   9.717
49085SOL     OW49093  10.099  11.675  12.935
49085SOL    HW149094  10.027  11.614  12.920
49085SOL    HW249095  10.095  11.693  13.029
49086SOL     OW49096  11.824  13.889  11.623
49086SOL    HW149097  11.904  13.900  11.572
49086SOL    HW249098  11.835  13.949  11.697
49087SOL     OW49099  11.724   4.602   7.582
49087SOL    HW149100  11.764   4.537   7.524
49087SOL    HW249101  11.651   4.556   7.623
49088SOL     OW49102   5.702   6.651  11.138
49088SOL    HW149103   5.752   6.694  11.069
49088SOL    HW249104   5.614   6.643  11.102
49089SOL     OW49105   3.054  12.953   2.482
49089SOL    HW149106   3.148  12.965   2.475
49089SOL    HW249107   3.016  13.019   2.424
49090SOL     OW49108  14.207   2.453   0.784
49090SOL    HW149109  14.267   2.508   0.734
49090SOL    HW249110  14.226   2.364   0.754
49091SOL     OW49111   9.671   3.798  14.654
49091SOL    HW149112   9.732   3.727  14.630
49091SOL    HW249113   9.656   3.786  14.748
49092SOL     OW49114  11.262  14.506   9.163
49092SOL    HW149115  11.210  14.474   9.237
49092SOL    HW249116  11.221  14.589   9.140
49093SOL     OW49117   1.696   1.431   1.858
49093SOL    HW149118   1.664   1.460   1.772
49093SOL    HW249119   1.646   1.483   1.921
49094SOL     OW49120   7.031   1.993   2.673
49094SOL    HW149121   7.000   1.939   2.746
49094SOL    HW249122   6.977   1.965   2.599
49095SOL     OW49123   6.916   3.175  13.917
49095SOL    HW149124   6.920   3.158  13.823
49095SOL    HW249125   6.838   3.228  13.929
49096SOL     OW49126   8.480  13.825  14.395
49096SOL    HW149127   8.387  13.810  14.412
49096SOL    HW249128   8.493  13.919  14.409
49097SOL     OW49129  12.438   9.492   5.173
49097SOL    HW149130  12.355   9.495   5.220
49097SOL    HW249131  12.441   9.574   5.124
49098SOL     OW49132   1.240  12.429   2.372
49098SOL    HW149133   1.319  12.460   2.417
49098SOL    HW249134   1.213  12.352   2.421
49099SOL     OW49135   9.820  13.483  11.839
49099SOL    HW149136   9.835  13.562  11.788
49099SOL    HW249137   9.899  13.473  11.892
49100SOL     OW49138  11.692   6.207   1.687
49100SOL    HW149139  11.625   6.269   1.660
49100SOL    HW249140  11.770   6.260   1.702
49101SOL     OW49141  13.972   8.885  11.492
49101SOL    HW149142  14.041   8.820  11.477
49101SOL    HW249143  14.019   8.968  11.495
49102SOL     OW49144   8.914   0.280   7.522
49102SOL    HW149145   8.970   0.248   7.451
49102SOL    HW249146   8.862   0.350   7.482
49103SOL     OW49147   3.399  12.832  12.459
49103SOL    HW149148   3.444  12.872  12.384
49103SOL    HW249149   3.335  12.772  12.420
49104SOL     OW49150  11.475   4.804   8.155
49104SOL    HW149151  11.428   4.846   8.227
49104SOL    HW249152  11.567   4.808   8.181
49105SOL     OW49153   4.644   6.013   5.677
49105SOL    HW149154   4.575   5.955   5.709
49105SOL    HW249155   4.610   6.101   5.692
49106SOL     OW49156   8.565   0.639   4.143
49106SOL    HW149157   8.585   0.558   4.189
49106SOL    HW249158   8.494   0.616   4.083
49107SOL     OW49159   7.148   2.076   0.344
49107SOL    HW149160   7.114   2.013   0.407
49107SOL    HW249161   7.087   2.149   0.347
49108SOL     OW49162   4.157   3.353   3.721
49108SOL    HW149163   4.108   3.370   3.641
49108SOL    HW249164   4.146   3.259   3.737
49109SOL     OW49165   8.432   3.642   1.761
49109SOL    HW149166   8.344   3.643   1.799
49109SOL    HW249167   8.461   3.733   1.764
49110SOL     OW49168   1.911   8.070  11.745
49110SOL    HW149169   1.923   8.050  11.652
49110SOL    HW249170   1.982   8.131  11.765
49111SOL     OW49171  14.648   6.049   3.555
49111SOL    HW149172  14.692   6.027   3.638
49111SOL    HW249173  14.634   6.143   3.560
49112SOL     OW49174  14.229   1.539  13.159
49112SOL    HW149175  14.158   1.488  13.199
49112SOL    HW249176  14.268   1.587  13.233
49113SOL     OW49177   5.402   9.329  11.600
49113SOL    HW149178   5.489   9.293  11.612
49113SOL    HW249179   5.407   9.418  11.634
49114SOL     OW49180   5.388   8.264   7.040
49114SOL    HW149181   5.450   8.304   7.101
49114SOL    HW249182   5.310   8.245   7.092
49115SOL     OW49183  12.783   9.447   8.805
49115SOL    HW149184  12.743   9.528   8.834
49115SOL    HW249185  12.726   9.415   8.735
49116SOL     OW49186   7.192   7.557   2.084
49116SOL    HW149187   7.245   7.604   2.020
49116SOL    HW249188   7.102   7.586   2.066
49117SOL     OW49189   9.323   2.009   8.252
49117SOL    HW149190   9.355   2.021   8.341
49117SOL    HW249191   9.268   1.931   8.257
49118SOL     OW49192  11.168   2.596   2.218
49118SOL    HW149193  11.094   2.622   2.164
49118SOL    HW249194  11.182   2.503   2.196
49119SOL     OW49195   5.374   5.053  11.148
49119SOL    HW149196   5.376   5.145  11.121
49119SOL    HW249197   5.339   5.007  11.071
49120SOL     OW49198   8.391   2.700   5.905
49120SOL    HW149199   8.337   2.621   5.914
49120SOL    HW249200   8.451   2.679   5.834
49121SOL     OW49201   9.814  10.702   8.625
49121SOL    HW149202   9.892  10.746   8.592
49121SOL    HW249203   9.776  10.764   8.687
49122SOL     OW49204  10.351  14.533   6.675
49122SOL    HW149205  10.276  14.505   6.623
49122SOL    HW249206  10.388  14.607   6.626
49123SOL     OW49207   9.789   9.009   4.235
49123SOL    HW149208   9.767   9.097   4.204
49123SOL    HW249209   9.704   8.963   4.239
49124SOL     OW49210   7.025   6.584   5.264
49124SOL    HW149211   7.046   6.541   5.346
49124SOL    HW249212   6.983   6.515   5.211
49125SOL     OW49213   6.013   8.985   7.883
49125SOL    HW149214   5.992   8.922   7.815
49125SOL    HW249215   6.082   8.943   7.934
49126SOL     OW49216   0.096   6.602  13.400
49126SOL    HW149217   0.156   6.539  13.358
49126SOL    HW249218   0.117   6.595  13.493
49127SOL     OW49219  13.891   2.708   3.389
49127SOL    HW149220  13.838   2.770   3.439
49127SOL    HW249221  13.831   2.635   3.373
49128SOL     OW49222   7.243   2.900  12.372
49128SOL    HW149223   7.285   2.816  12.355
49128SOL    HW249224   7.244   2.908  12.468
49129SOL     OW49225   1.636   7.055   0.326
49129SOL    HW149226   1.676   7.117   0.264
49129SOL    HW249227   1.619   6.977   0.273
49130SOL     OW49228   4.716  11.299   2.699
49130SOL    HW149229   4.628  11.297   2.735
49130SOL    HW249230   4.716  11.372   2.638
49131SOL     OW49231   9.845   7.712   7.966
49131SOL    HW149232   9.783   7.785   7.968
49131SOL    HW249233   9.930   7.753   7.950
49132SOL     OW49234   6.783   8.519   9.678
49132SOL    HW149235   6.704   8.518   9.623
49132SOL    HW249236   6.847   8.569   9.628
49133SOL     OW49237   5.038   4.067  10.289
49133SOL    HW149238   4.990   4.010  10.348
49133SOL    HW249239   5.130   4.042  10.301
49134SOL     OW49240  12.150   2.730  11.620
49134SOL    HW149241  12.087   2.675  11.666
49134SOL    HW249242  12.178   2.678  11.545
49135SOL     OW49243  11.077   7.843  12.974
49135SOL    HW149244  10.987   7.818  12.997
49135SOL    HW249245  11.070   7.871  12.883
49136SOL     OW49246   4.997   0.367   4.198
49136SOL    HW149247   5.010   0.439   4.260
49136SOL    HW249248   4.984   0.410   4.113
49137SOL     OW49249  10.029   0.481   5.230
49137SOL    HW149250  10.057   0.497   5.320
49137SOL    HW249251  10.072   0.549   5.178
49138SOL     OW49252   7.016   4.260  12.902
49138SOL    HW149253   7.061   4.281  12.820
49138SOL    HW249254   7.064   4.185  12.937
49139SOL     OW49255   7.934   2.289   8.306
49139SOL    HW149256   7.860   2.342   8.275
49139SOL    HW249257   7.989   2.276   8.229
49140SOL     OW49258  12.382   1.089  11.285
49140SOL    HW149259  12.332   1.007  11.286
49140SOL    HW249260  12.340   1.142  11.218
49141SOL     OW49261   8.504  12.801   9.855
49141SOL    HW149262   8.542  12.838   9.776
49141SOL    HW249263   8.410  12.799   9.838
49142SOL     OW49264   3.320   9.988  10.915
49142SOL    HW149265   3.300   9.940  10.834
49142SOL    HW249266   3.239  10.036  10.934
49143SOL     OW49267   0.068  13.449   5.135
49143SOL    HW149268   0.076  13.354   5.125
49143SOL    HW249269   0.102  13.484   5.053
49144SOL     OW49270   5.282  11.944   6.777
49144SOL    HW149271   5.347  11.940   6.706
49144SOL    HW249272   5.285  12.034   6.807
49145SOL     OW49273   3.074   8.630   4.835
49145SOL    HW149274   3.110   8.713   4.803
49145SOL    HW249275   3.138   8.600   4.900
49146SOL     OW49276  12.799   2.363   0.426
49146SOL    HW149277  12.719   2.336   0.471
49146SOL    HW249278  12.777   2.446   0.385
49147SOL     OW49279   1.791   7.824  13.502
49147SOL    HW149280   1.833   7.771  13.435
49147SOL    HW249281   1.836   7.799  13.583
49148SOL     OW49282  12.359   0.997   4.558
49148SOL    HW149283  12.329   1.041   4.479
49148SOL    HW249284  12.284   1.001   4.618
49149SOL     OW49285  12.253  12.078   0.912
49149SOL    HW149286  12.185  12.058   0.976
49149SOL    HW249287  12.205  12.100   0.832
49150SOL     OW49288  10.821   2.062   3.547
49150SOL    HW149289  10.803   2.016   3.629
49150SOL    HW249290  10.753   2.031   3.487
49151SOL     OW49291   3.016   2.537  12.308
49151SOL    HW149292   3.055   2.454  12.338
49151SOL    HW249293   2.984   2.578  12.388
49152SOL     OW49294   0.297   4.648  14.330
49152SOL    HW149295   0.340   4.708  14.270
49152SOL    HW249296   0.232   4.602  14.276
49153SOL     OW49297  12.378   0.453  12.975
49153SOL    HW149298  12.347   0.481  13.061
49153SOL    HW249299  12.305   0.473  12.916
49154SOL     OW49300   5.373   2.564   4.402
49154SOL    HW149301   5.282   2.535   4.397
49154SOL    HW249302   5.386   2.589   4.493
49155SOL     OW49303   0.231  13.075   7.279
49155SOL    HW149304   0.165  13.079   7.348
49155SOL    HW249305   0.208  12.998   7.228
49156SOL     OW49306   1.274  13.868   3.139
49156SOL    HW149307   1.187  13.844   3.170
49156SOL    HW249308   1.261  13.896   3.049
49157SOL     OW49309  11.878  14.867   9.719
49157SOL    HW149310  11.796  14.870   9.671
49157SOL    HW249311  11.863  14.803   9.788
49158SOL     OW49312  10.504  14.833   4.580
49158SOL    HW149313  10.472   0.028   4.529
49158SOL    HW249314  10.543  14.775   4.514
49159SOL     OW49315  10.666   9.673   3.670
49159SOL    HW149316  10.743   9.645   3.620
49159SOL    HW249317  10.596   9.681   3.606
49160SOL     OW49318   6.630  12.402   1.398
49160SOL    HW149319   6.637  12.340   1.325
49160SOL    HW249320   6.594  12.481   1.359
49161SOL     OW49321  13.184   9.187   5.355
49161SOL    HW149322  13.238   9.155   5.428
49161SOL    HW249323  13.182   9.282   5.367
49162SOL     OW49324  11.630   4.734   7.914
49162SOL    HW149325  11.588   4.689   7.988
49162SOL    HW249326  11.570   4.719   7.841
49163SOL     OW49327  13.196   3.830  11.338
49163SOL    HW149328  13.192   3.836  11.433
49163SOL    HW249329  13.184   3.920  11.308
49164SOL     OW49330  12.500  10.994  12.742
49164SOL    HW149331  12.557  11.014  12.817
49164SOL    HW249332  12.415  10.974  12.782
49165SOL     OW49333  12.088   4.178   4.586
49165SOL    HW149334  12.094   4.248   4.651
49165SOL    HW249335  11.996   4.151   4.588
49166SOL     OW49336   4.408   3.022  13.858
49166SOL    HW149337   4.342   3.090  13.870
49166SOL    HW249338   4.405   2.972  13.940
49167SOL     OW49339   0.899  12.440   0.089
49167SOL    HW149340   0.890  12.515   0.148
49167SOL    HW249341   0.883  12.363   0.144
49168SOL     OW49342  14.050  12.233   7.179
49168SOL    HW149343  14.010  12.309   7.222
49168SOL    HW249344  13.990  12.160   7.200
49169SOL     OW49345   6.305   6.332   4.109
49169SOL    HW149346   6.284   6.383   4.031
49169SOL    HW249347   6.376   6.274   4.081
49170SOL     OW49348  13.075   0.244   2.895
49170SOL    HW149349  13.002   0.303   2.878
49170SOL    HW249350  13.152   0.300   2.897
49171SOL     OW49351   0.692   0.236   2.666
49171SOL    HW149352   0.706   0.326   2.694
49171SOL    HW249353   0.597   0.227   2.660
49172SOL     OW49354   4.816   8.394   4.495
49172SOL    HW149355   4.877   8.324   4.520
49172SOL    HW249356   4.764   8.357   4.425
49173SOL     OW49357   5.496  14.097   5.330
49173SOL    HW149358   5.579  14.144   5.330
49173SOL    HW249359   5.430  14.165   5.315
49174SOL     OW49360   9.725  14.118   7.093
49174SOL    HW149361   9.684  14.204   7.081
49174SOL    HW249362   9.732  14.108   7.188
49175SOL     OW49363  13.996   5.172   5.928
49175SOL    HW149364  13.907   5.150   5.902
49175SOL    HW249365  14.036   5.210   5.850
49176SOL     OW49366  14.518   7.251   1.271
49176SOL    HW149367  14.532   7.239   1.177
49176SOL    HW249368  14.603   7.279   1.304
49177SOL     OW49369  11.754   4.493   5.528
49177SOL    HW149370  11.717   4.407   5.548
49177SOL    HW249371  11.733   4.546   5.606
49178SOL     OW49372  10.080  13.592  10.931
49178SOL    HW149373  10.099  13.598  11.024
49178SOL    HW249374  10.022  13.667  10.914
49179SOL     OW49375  11.035   6.524   0.933
49179SOL    HW149376  10.988   6.441   0.926
49179SOL    HW249377  10.979   6.588   0.890
49180SOL     OW49378   1.136   2.877   6.396
49180SOL    HW149379   1.141   2.908   6.306
49180SOL    HW249380   1.208   2.920   6.441
49181SOL     OW49381  12.323   6.416   1.800
49181SOL    HW149382  12.382   6.477   1.754
49181SOL    HW249383  12.247   6.409   1.742
49182SOL     OW49384  10.022   0.156  13.244
49182SOL    HW149385  10.099   0.122  13.197
49182SOL    HW249386  10.000   0.087  13.307
49183SOL     OW49387   4.249  12.203   9.143
49183SOL    HW149388   4.168  12.253   9.149
49183SOL    HW249389   4.263  12.191   9.049
49184SOL     OW49390   5.453   7.976   1.197
49184SOL    HW149391   5.459   7.882   1.180
49184SOL    HW249392   5.528   8.014   1.151
49185SOL     OW49393  14.608  14.097   3.458
49185SOL    HW149394  14.560  14.167   3.502
49185SOL    HW249395  14.681  14.141   3.414
49186SOL     OW49396   7.097   6.207  12.702
49186SOL    HW149397   7.143   6.165  12.775
49186SOL    HW249398   7.058   6.135  12.653
49187SOL     OW49399  12.717   5.840   9.526
49187SOL    HW149400  12.781   5.776   9.494
49187SOL    HW249401  12.729   5.840   9.621
49188SOL     OW49402   8.693   7.864   0.836
49188SOL    HW149403   8.689   7.832   0.926
49188SOL    HW249404   8.602   7.883   0.813
49189SOL     OW49405  13.511   0.557   6.202
49189SOL    HW149406  13.594   0.514   6.220
49189SOL    HW249407  13.451   0.522   6.268
49190SOL     OW49408  12.848   9.978   3.978
49190SOL    HW149409  12.875   9.950   4.065
49190SOL    HW249410  12.798   9.903   3.943
49191SOL     OW49411  11.465   9.074   8.591
49191SOL    HW149412  11.408   9.111   8.524
49191SOL    HW249413  11.528   9.143   8.610
49192SOL     OW49414   7.759   4.732   5.727
49192SOL    HW149415   7.836   4.685   5.758
49192SOL    HW249416   7.746   4.700   5.637
49193SOL     OW49417  13.883   6.610   2.293
49193SOL    HW149418  13.900   6.579   2.204
49193SOL    HW249419  13.923   6.544   2.349
49194SOL     OW49420  12.370   7.931  14.427
49194SOL    HW149421  12.417   7.907  14.507
49194SOL    HW249422  12.284   7.889  14.436
49195SOL     OW49423   6.565  10.462   7.355
49195SOL    HW149424   6.654  10.471   7.322
49195SOL    HW249425   6.525  10.394   7.300
49196SOL     OW49426   1.792  14.678  10.303
49196SOL    HW149427   1.790  14.600  10.247
49196SOL    HW249428   1.860  14.659  10.368
49197SOL     OW49429   0.360   4.147  10.554
49197SOL    HW149430   0.353   4.162  10.460
49197SOL    HW249431   0.292   4.083  10.574
49198SOL     OW49432   7.113   3.709   9.990
49198SOL    HW149433   7.159   3.647  10.048
49198SOL    HW249434   7.181   3.739   9.929
49199SOL     OW49435   7.906  10.683  11.583
49199SOL    HW149436   7.964  10.690  11.659
49199SOL    HW249437   7.827  10.641  11.616
49200SOL     OW49438   5.688  12.067   3.353
49200SOL    HW149439   5.776  12.075   3.389
49200SOL    HW249440   5.639  12.017   3.418
49201SOL     OW49441   6.222  10.057   1.945
49201SOL    HW149442   6.238  10.100   2.029
49201SOL    HW249443   6.195   9.968   1.968
49202SOL     OW49444   2.766   7.948   5.811
49202SOL    HW149445   2.764   8.008   5.885
49202SOL    HW249446   2.731   7.865   5.846
49203SOL     OW49447   7.993  10.728   3.653
49203SOL    HW149448   8.011  10.779   3.574
49203SOL    HW249449   7.994  10.793   3.724
49204SOL     OW49450  14.485   5.754   3.450
49204SOL    HW149451  14.496   5.676   3.504
49204SOL    HW249452  14.491   5.827   3.511
49205SOL     OW49453   9.238   8.130   8.629
49205SOL    HW149454   9.325   8.100   8.606
49205SOL    HW249455   9.211   8.073   8.701
49206SOL     OW49456  13.317  10.782  14.727
49206SOL    HW149457  13.365  10.699  14.720
49206SOL    HW249458  13.226  10.756  14.742
49207SOL     OW49459   2.449   1.182   5.489
49207SOL    HW149460   2.429   1.227   5.571
49207SOL    HW249461   2.364   1.147   5.461
49208SOL     OW49462   9.770  10.022   4.507
49208SOL    HW149463   9.744  10.105   4.547
49208SOL    HW249464   9.794  10.045   4.418
49209SOL     OW49465  10.777  13.138   1.380
49209SOL    HW149466  10.725  13.140   1.461
49209SOL    HW249467  10.831  13.059   1.388
49210SOL     OW49468   4.434   9.302   8.332
49210SOL    HW149469   4.455   9.392   8.306
49210SOL    HW249470   4.519   9.258   8.336
49211SOL     OW49471   5.971  12.744   8.941
49211SOL    HW149472   5.879  12.716   8.945
49211SOL    HW249473   5.966  12.836   8.917
49212SOL     OW49474   2.597   0.364   7.706
49212SOL    HW149475   2.622   0.273   7.695
49212SOL    HW249476   2.650   0.395   7.780
49213SOL     OW49477   2.444   0.877   3.075
49213SOL    HW149478   2.528   0.920   3.063
49213SOL    HW249479   2.422   0.842   2.989
49214SOL     OW49480   1.445  11.285   2.413
49214SOL    HW149481   1.452  11.360   2.473
49214SOL    HW249482   1.469  11.321   2.328
49215SOL     OW49483   3.897   7.573   4.330
49215SOL    HW149484   3.950   7.648   4.359
49215SOL    HW249485   3.850   7.605   4.253
49216SOL     OW49486   0.943   1.431   2.956
49216SOL    HW149487   0.916   1.515   2.919
49216SOL    HW249488   0.871   1.407   3.015
49217SOL     OW49489   6.085  12.071   0.556
49217SOL    HW149490   5.993  12.059   0.579
49217SOL    HW249491   6.090  12.161   0.523
49218SOL     OW49492   8.749   9.785   8.419
49218SOL    HW149493   8.798   9.721   8.470
49218SOL    HW249494   8.658   9.774   8.447
49219SOL     OW49495   5.457   7.149   5.582
49219SOL    HW149496   5.397   7.075   5.595
49219SOL    HW249497   5.402   7.218   5.545
49220SOL     OW49498   0.041   4.444  11.384
49220SOL    HW149499   0.027   4.485  11.299
49220SOL    HW249500  14.837   4.405  11.407
49221SOL     OW49501   2.860  13.868  13.230
49221SOL    HW149502   2.894  13.881  13.141
49221SOL    HW249503   2.808  13.788  13.224
49222SOL     OW49504   5.954   5.139   2.483
49222SOL    HW149505   5.889   5.095   2.537
49222SOL    HW249506   5.903   5.179   2.412
49223SOL     OW49507  14.540   9.539  13.388
49223SOL    HW149508  14.452   9.510  13.411
49223SOL    HW249509  14.590   9.531  13.469
49224SOL     OW49510   4.071  11.626   3.912
49224SOL    HW149511   4.113  11.580   3.839
49224SOL    HW249512   4.142  11.646   3.973
49225SOL     OW49513  14.457   8.243  12.333
49225SOL    HW149514  14.488   8.223  12.245
49225SOL    HW249515  14.510   8.319  12.360
49226SOL     OW49516  14.505  12.237  10.696
49226SOL    HW149517  14.558  12.162  10.725
49226SOL    HW249518  14.484  12.285  10.776
49227SOL     OW49519   8.843  14.580  14.267
49227SOL    HW149520   8.938  14.572  14.272
49227SOL    HW249521   8.829  14.658  14.213
49228SOL     OW49522   6.427   1.511   8.591
49228SOL    HW149523   6.367   1.522   8.665
49228SOL    HW249524   6.468   1.426   8.606
49229SOL     OW49525   8.734   4.688  13.937
49229SOL    HW149526   8.809   4.718  13.885
49229SOL    HW249527   8.755   4.598  13.959
49230SOL     OW49528   9.314   0.756   2.516
49230SOL    HW149529   9.387   0.802   2.477
49230SOL    HW249530   9.315   0.669   2.475
49231SOL     OW49531   5.360   2.528   6.524
49231SOL    HW149532   5.274   2.487   6.517
49231SOL    HW249533   5.397   2.494   6.605
49232SOL     OW49534  13.065   4.824  14.298
49232SOL    HW149535  13.111   4.796  14.377
49232SOL    HW249536  13.041   4.915  14.314
49233SOL     OW49537  10.880   2.340   3.542
49233SOL    HW149538  10.892   2.326   3.636
49233SOL    HW249539  10.847   2.257   3.509
49234SOL     OW49540  13.971   9.638   9.870
49234SOL    HW149541  13.892   9.676   9.831
49234SOL    HW249542  13.987   9.559   9.819
49235SOL     OW49543  14.500   4.668   6.201
49235SOL    HW149544  14.527   4.739   6.260
49235SOL    HW249545  14.460   4.713   6.126
49236SOL     OW49546  11.345   8.304  13.760
49236SOL    HW149547  11.427   8.267  13.728
49236SOL    HW249548  11.365   8.332  13.849
49237SOL     OW49549  11.641  14.220  13.630
49237SOL    HW149550  11.570  14.271  13.668
49237SOL    HW249551  11.721  14.261  13.662
49238SOL     OW49552   8.949   4.206   5.461
49238SOL    HW149553   9.026   4.214   5.518
49238SOL    HW249554   8.899   4.134   5.498
49239SOL     OW49555   7.601  11.976   2.986
49239SOL    HW149556   7.530  11.962   3.048
49239SOL    HW249557   7.561  11.958   2.900
49240SOL     OW49558  13.844   5.249   4.516
49240SOL    HW149559  13.780   5.178   4.514
49240SOL    HW249560  13.799   5.321   4.560
49241SOL     OW49561  11.464   5.454  10.385
49241SOL    HW149562  11.378   5.459  10.426
49241SOL    HW249563  11.461   5.373  10.333
49242SOL     OW49564  14.272   3.321   0.621
49242SOL    HW149565  14.230   3.401   0.590
49242SOL    HW249566  14.199   3.261   0.639
49243SOL     OW49567   6.876   2.732  10.843
49243SOL    HW149568   6.874   2.782  10.924
49243SOL    HW249569   6.951   2.672  10.853
49244SOL     OW49570   1.882  13.714   8.655
49244SOL    HW149571   1.935  13.793   8.643
49244SOL    HW249572   1.825  13.734   8.729
49245SOL     OW49573   1.163   4.660   2.776
49245SOL    HW149574   1.212   4.581   2.797
49245SOL    HW249575   1.094   4.664   2.843
49246SOL     OW49576   8.779  10.718   9.555
49246SOL    HW149577   8.786  10.624   9.536
49246SOL    HW249578   8.685  10.736   9.555
49247SOL     OW49579   2.762   3.839  12.603
49247SOL    HW149580   2.819   3.790  12.662
49247SOL    HW249581   2.819   3.866  12.531
49248SOL     OW49582   6.463   8.886   4.494
49248SOL    HW149583   6.443   8.835   4.574
49248SOL    HW249584   6.555   8.909   4.503
49249SOL     OW49585  12.320  10.600   1.093
49249SOL    HW149586  12.240  10.649   1.111
49249SOL    HW249587  12.391  10.660   1.118
49250SOL     OW49588  10.040   7.634   4.198
49250SOL    HW149589   9.962   7.683   4.171
49250SOL    HW249590  10.084   7.612   4.116
49251SOL     OW49591   2.447   8.881   7.909
49251SOL    HW149592   2.434   8.952   7.972
49251SOL    HW249593   2.469   8.925   7.827
49252SOL     OW49594  13.850   4.536   5.130
49252SOL    HW149595  13.837   4.507   5.040
49252SOL    HW249596  13.901   4.466   5.171
49253SOL     OW49597   7.107  11.816  10.113
49253SOL    HW149598   7.148  11.820  10.027
49253SOL    HW249599   7.088  11.723  10.127
49254SOL     OW49600   0.752   1.106   7.598
49254SOL    HW149601   0.806   1.067   7.667
49254SOL    HW249602   0.803   1.180   7.566
49255SOL     OW49603   3.881  10.513  14.373
49255SOL    HW149604   3.973  10.519  14.348
49255SOL    HW249605   3.835  10.565  14.306
49256SOL     OW49606   2.739   0.285   0.465
49256SOL    HW149607   2.772   0.306   0.377
49256SOL    HW249608   2.644   0.275   0.453
49257SOL     OW49609   2.285  12.220   8.385
49257SOL    HW149610   2.220  12.194   8.450
49257SOL    HW249611   2.362  12.244   8.437
49258SOL     OW49612  14.274  11.139   6.047
49258SOL    HW149613  14.290  11.214   6.104
49258SOL    HW249614  14.187  11.108   6.072
49259SOL     OW49615  12.491   7.565   1.496
49259SOL    HW149616  12.400   7.542   1.516
49259SOL    HW249617  12.542   7.522   1.565
49260SOL     OW49618  12.601   6.366  13.371
49260SOL    HW149619  12.537   6.304  13.337
49260SOL    HW249620  12.573   6.381  13.462
49261SOL     OW49621  14.592   9.189  14.567
49261SOL    HW149622  14.611   9.096  14.581
49261SOL    HW249623  14.550   9.192  14.481
49262SOL     OW49624   0.500   4.455   0.698
49262SOL    HW149625   0.486   4.526   0.760
49262SOL    HW249626   0.591   4.427   0.713
49263SOL     OW49627  14.648  12.373   9.993
49263SOL    HW149628  14.553  12.372   9.992
49263SOL    HW249629  14.673  12.286   9.960
49264SOL     OW49630   5.463  13.662  14.523
49264SOL    HW149631   5.458  13.758  14.531
49264SOL    HW249632   5.458  13.631  14.613
49265SOL     OW49633   3.721   4.662  12.409
49265SOL    HW149634   3.772   4.728  12.456
49265SOL    HW249635   3.728   4.687  12.317
49266SOL     OW49636  14.414  13.994   5.586
49266SOL    HW149637  14.481  14.057   5.559
49266SOL    HW249638  14.464  13.921   5.622
49267SOL     OW49639   1.620   3.343  11.925
49267SOL    HW149640   1.638   3.249  11.919
49267SOL    HW249641   1.673   3.373  11.999
49268SOL     OW49642   0.240   2.262   3.377
49268SOL    HW149643   0.283   2.260   3.462
49268SOL    HW249644   0.195   2.346   3.374
49269SOL     OW49645   7.571  11.006   5.902
49269SOL    HW149646   7.593  10.934   5.842
49269SOL    HW249647   7.521  10.965   5.972
49270SOL     OW49648   6.389   9.715   5.665
49270SOL    HW149649   6.339   9.795   5.680
49270SOL    HW249650   6.422   9.723   5.576
49271SOL     OW49651   6.440   3.902  14.094
49271SOL    HW149652   6.368   3.841  14.112
49271SOL    HW249653   6.405   3.988  14.118
49272SOL     OW49654  14.235   7.023   3.518
49272SOL    HW149655  14.268   6.943   3.476
49272SOL    HW249656  14.235   7.003   3.612
49273SOL     OW49657   2.921   5.945  12.414
49273SOL    HW149658   2.983   5.878  12.386
49273SOL    HW249659   2.917   5.935  12.510
49274SOL     OW49660   1.848  10.840   8.021
49274SOL    HW149661   1.860  10.924   8.066
49274SOL    HW249662   1.894  10.851   7.938
49275SOL     OW49663   8.509  14.099  14.335
49275SOL    HW149664   8.585  14.146  14.369
49275SOL    HW249665   8.447  14.167  14.309
49276SOL     OW49666   6.055   3.709  10.798
49276SOL    HW149667   6.071   3.744  10.886
49276SOL    HW249668   6.044   3.786  10.743
49277SOL     OW49669   0.328   8.847   0.946
49277SOL    HW149670   0.342   8.814   1.035
49277SOL    HW249671   0.255   8.795   0.912
49278SOL     OW49672   6.325   0.573  13.704
49278SOL    HW149673   6.372   0.644  13.748
49278SOL    HW249674   6.378   0.554  13.627
49279SOL     OW49675   9.465   5.320   7.022
49279SOL    HW149676   9.412   5.247   6.990
49279SOL    HW249677   9.536   5.279   7.071
49280SOL     OW49678   9.694  11.400   5.867
49280SOL    HW149679   9.635  11.334   5.830
49280SOL    HW249680   9.653  11.484   5.845
49281SOL     OW49681  11.611   4.515  14.641
49281SOL    HW149682  11.550   4.524  14.568
49281SOL    HW249683  11.670   4.590  14.633
49282SOL     OW49684   2.345   4.708  13.206
49282SOL    HW149685   2.255   4.742  13.203
49282SOL    HW249686   2.370   4.697  13.114
49283SOL     OW49687   6.500   6.559   1.290
49283SOL    HW149688   6.543   6.622   1.348
49283SOL    HW249689   6.444   6.612   1.233
49284SOL     OW49690   9.262   2.986   6.352
49284SOL    HW149691   9.230   2.986   6.442
49284SOL    HW249692   9.189   2.953   6.300
49285SOL     OW49693   4.093   6.180  11.896
49285SOL    HW149694   4.002   6.192  11.871
49285SOL    HW249695   4.090   6.132  11.979
49286SOL     OW49696   4.521   2.300  12.926
49286SOL    HW149697   4.607   2.258  12.917
49286SOL    HW249698   4.458   2.233  12.899
49287SOL     OW49699   0.314   0.621   1.348
49287SOL    HW149700   0.299   0.530   1.321
49287SOL    HW249701   0.302   0.672   1.268
49288SOL     OW49702   8.301   9.372  13.001
49288SOL    HW149703   8.324   9.336  12.916
49288SOL    HW249704   8.246   9.305  13.042
49289SOL     OW49705  12.914   3.354   0.717
49289SOL    HW149706  12.877   3.269   0.741
49289SOL    HW249707  12.880   3.371   0.629
49290SOL     OW49708   2.655   5.622  12.489
49290SOL    HW149709   2.644   5.702  12.541
49290SOL    HW249710   2.638   5.650  12.399
49291SOL     OW49711   0.637   9.208   1.685
49291SOL    HW149712   0.674   9.146   1.748
49291SOL    HW249713   0.543   9.199   1.695
49292SOL     OW49714   9.573   4.079   4.029
49292SOL    HW149715   9.505   4.139   3.998
49292SOL    HW249716   9.580   4.097   4.123
49293SOL     OW49717   7.737   8.822  12.692
49293SOL    HW149718   7.660   8.766  12.683
49293SOL    HW249719   7.708   8.909  12.664
49294SOL     OW49720   5.727   0.340  12.057
49294SOL    HW149721   5.739   0.367  12.148
49294SOL    HW249722   5.674   0.260  12.062
49295SOL     OW49723   8.745  13.048   9.409
49295SOL    HW149724   8.810  13.101   9.362
49295SOL    HW249725   8.677  13.030   9.344
49296SOL     OW49726   8.808   5.950  12.288
49296SOL    HW149727   8.883   5.919  12.340
49296SOL    HW249728   8.746   5.983  12.352
49297SOL     OW49729   1.815   4.756   7.460
49297SOL    HW149730   1.779   4.840   7.487
49297SOL    HW249731   1.899   4.750   7.504
49298SOL     OW49732   6.324   7.985   1.315
49298SOL    HW149733   6.277   8.002   1.234
49298SOL    HW249734   6.316   8.066   1.366
49299SOL     OW49735   3.162  12.364  12.270
49299SOL    HW149736   3.218  12.308  12.323
49299SOL    HW249737   3.081  12.314  12.258
49300SOL     OW49738   1.902   1.550  11.757
49300SOL    HW149739   1.882   1.564  11.664
49300SOL    HW249740   1.856   1.469  11.780
49301SOL     OW49741   2.208   1.480  10.893
49301SOL    HW149742   2.174   1.502  10.980
49301SOL    HW249743   2.194   1.560  10.842
49302SOL     OW49744   6.028   0.334  13.415
49302SOL    HW149745   6.043   0.397  13.486
49302SOL    HW249746   6.026   0.249  13.458
49303SOL     OW49747   8.939  14.456   5.219
49303SOL    HW149748   8.863  14.400   5.233
49303SOL    HW249749   8.917  14.537   5.266
49304SOL     OW49750   9.213  10.732   6.298
49304SOL    HW149751   9.119  10.743   6.286
49304SOL    HW249752   9.222  10.699   6.388
49305SOL     OW49753   3.204   2.722   3.487
49305SOL    HW149754   3.258   2.775   3.547
49305SOL    HW249755   3.152   2.666   3.544
49306SOL     OW49756   6.943   7.813   6.375
49306SOL    HW149757   6.996   7.887   6.404
49306SOL    HW249758   6.916   7.770   6.456
49307SOL     OW49759   1.803  14.416   6.341
49307SOL    HW149760   1.812  14.476   6.415
49307SOL    HW249761   1.842  14.463   6.267
49308SOL     OW49762   8.414   1.409  14.712
49308SOL    HW149763   8.456   1.478  14.763
49308SOL    HW249764   8.334   1.449  14.679
49309SOL     OW49765   9.165   7.168   3.413
49309SOL    HW149766   9.195   7.254   3.382
49309SOL    HW249767   9.070   7.178   3.419
49310SOL     OW49768   1.049   1.404   9.545
49310SOL    HW149769   0.983   1.425   9.479
49310SOL    HW249770   1.028   1.315   9.572
49311SOL     OW49771   5.745   0.199   9.856
49311SOL    HW149772   5.694   0.119   9.863
49311SOL    HW249773   5.742   0.221   9.763
49312SOL     OW49774   6.357   0.871  10.224
49312SOL    HW149775   6.411   0.792  10.232
49312SOL    HW249776   6.397   0.920  10.153
49313SOL     OW49777   5.223   1.748   6.813
49313SOL    HW149778   5.168   1.670   6.823
49313SOL    HW249779   5.287   1.741   6.885
49314SOL     OW49780   2.954   4.933   4.223
49314SOL    HW149781   2.883   4.911   4.283
49314SOL    HW249782   2.932   4.888   4.142
49315SOL     OW49783  11.888   8.747   9.533
49315SOL    HW149784  11.981   8.744   9.509
49315SOL    HW249785  11.846   8.683   9.475
49316SOL     OW49786   7.484  12.497   0.632
49316SOL    HW149787   7.447  12.586   0.637
49316SOL    HW249788   7.533  12.496   0.550
49317SOL     OW49789   7.000  13.799   3.630
49317SOL    HW149790   6.943  13.736   3.674
49317SOL    HW249791   7.071  13.746   3.593
49318SOL     OW49792   7.022  14.629   7.521
49318SOL    HW149793   6.946  14.675   7.557
49318SOL    HW249794   6.983  14.560   7.466
49319SOL     OW49795  13.304   5.354  13.230
49319SOL    HW149796  13.331   5.446  13.236
49319SOL    HW249797  13.314   5.321  13.319
49320SOL     OW49798   5.403  11.693   2.078
49320SOL    HW149799   5.381  11.649   1.996
49320SOL    HW249800   5.407  11.786   2.055
49321SOL     OW49801   2.726  13.205   2.199
49321SOL    HW149802   2.631  13.195   2.203
49321SOL    HW249803   2.740  13.296   2.174
49322SOL     OW49804  10.099   4.395   9.587
49322SOL    HW149805  10.020   4.435   9.551
49322SOL    HW249806  10.144   4.357   9.511
49323SOL     OW49807   8.040  11.160  11.705
49323SOL    HW149808   7.952  11.168  11.742
49323SOL    HW249809   8.027  11.114  11.622
49324SOL     OW49810  13.345   6.510  14.531
49324SOL    HW149811  13.336   6.556  14.614
49324SOL    HW249812  13.401   6.568  14.478
49325SOL     OW49813   9.779   4.138  11.129
49325SOL    HW149814   9.771   4.051  11.090
49325SOL    HW249815   9.802   4.121  11.221
49326SOL     OW49816   6.762   7.587   0.833
49326SOL    HW149817   6.733   7.678   0.826
49326SOL    HW249818   6.683   7.535   0.818
49327SOL     OW49819  13.939   9.766   8.468
49327SOL    HW149820  13.950   9.780   8.374
49327SOL    HW249821  13.850   9.731   8.477
49328SOL     OW49822   5.902   0.777  12.688
49328SOL    HW149823   5.931   0.814  12.604
49328SOL    HW249824   5.916   0.847  12.751
49329SOL     OW49825   8.441   8.792  10.887
49329SOL    HW149826   8.378   8.815  10.818
49329SOL    HW249827   8.513   8.749  10.840
49330SOL     OW49828  10.232   3.472   7.505
49330SOL    HW149829  10.181   3.541   7.462
49330SOL    HW249830  10.303   3.518   7.549
49331SOL     OW49831  13.733  12.639   6.302
49331SOL    HW149832  13.729  12.618   6.209
49331SOL    HW249833  13.825  12.660   6.318
49332SOL     OW49834   9.475  13.621   2.390
49332SOL    HW149835   9.406  13.626   2.455
49332SOL    HW249836   9.541  13.564   2.430
49333SOL     OW49837   8.755   1.598   1.528
49333SOL    HW149838   8.778   1.670   1.469
49333SOL    HW249839   8.755   1.638   1.615
49334SOL     OW49840   5.287  13.932   0.036
49334SOL    HW149841   5.271  14.024   0.055
49334SOL    HW249842   5.381  13.921   0.048
49335SOL     OW49843   0.174   8.845   1.865
49335SOL    HW149844   0.261   8.876   1.891
49335SOL    HW249845   0.181   8.750   1.867
49336SOL     OW49846   9.569  11.670   7.311
49336SOL    HW149847   9.508  11.606   7.348
49336SOL    HW249848   9.585  11.638   7.222
49337SOL     OW49849  13.503  10.538   7.645
49337SOL    HW149850  13.582  10.576   7.606
49337SOL    HW249851  13.434  10.557   7.581
49338SOL     OW49852   6.798   3.312   6.007
49338SOL    HW149853   6.853   3.234   6.003
49338SOL    HW249854   6.732   3.299   5.939
49339SOL     OW49855   3.308   2.401   6.946
49339SOL    HW149856   3.304   2.327   7.007
49339SOL    HW249857   3.334   2.475   7.001
49340SOL     OW49858   9.564  14.680  13.843
49340SOL    HW149859   9.478  14.685  13.800
49340SOL    HW249860   9.618  14.629  13.783
49341SOL     OW49861   0.616   3.215   3.710
49341SOL    HW149862   0.695   3.179   3.751
49341SOL    HW249863   0.568   3.138   3.679
49342SOL     OW49864  12.354   0.135   4.047
49342SOL    HW149865  12.426   0.096   4.098
49342SOL    HW249866  12.388   0.220   4.019
49343SOL     OW49867   4.063   0.560   1.992
49343SOL    HW149868   4.035   0.621   1.924
49343SOL    HW249869   4.096   0.484   1.943
49344SOL     OW49870  13.576   7.910  14.689
49344SOL    HW149871  13.556   7.859  14.611
49344SOL    HW249872  13.602   7.996  14.655
49345SOL     OW49873  14.201   6.278   0.149
49345SOL    HW149874  14.161   6.223   0.216
49345SOL    HW249875  14.151   6.359   0.151
49346SOL     OW49876   2.733  10.156   3.264
49346SOL    HW149877   2.801  10.101   3.226
49346SOL    HW249878   2.752  10.156   3.358
49347SOL     OW49879  13.135  13.285   7.993
49347SOL    HW149880  13.169  13.196   7.992
49347SOL    HW249881  13.115  13.302   8.085
49348SOL     OW49882   4.398  12.856   8.998
49348SOL    HW149883   4.315  12.837   9.041
49348SOL    HW249884   4.413  12.949   9.015
49349SOL     OW49885   6.605  10.787  13.732
49349SOL    HW149886   6.668  10.845  13.689
49349SOL    HW249887   6.520  10.818  13.701
49350SOL     OW49888   4.010   2.952   1.071
49350SOL    HW149889   4.027   2.969   0.978
49350SOL    HW249890   3.919   2.979   1.084
49351SOL     OW49891  11.175   0.503   0.108
49351SOL    HW149892  11.193   0.442   0.180
49351SOL    HW249893  11.183   0.590   0.147
49352SOL     OW49894  12.194   7.288   7.708
49352SOL    HW149895  12.219   7.199   7.735
49352SOL    HW249896  12.183   7.335   7.791
49353SOL     OW49897   1.753   5.942  11.491
49353SOL    HW149898   1.760   5.936  11.396
49353SOL    HW249899   1.766   5.852  11.522
49354SOL     OW49900   7.325   1.641  13.859
49354SOL    HW149901   7.271   1.701  13.911
49354SOL    HW249902   7.291   1.649  13.770
49355SOL     OW49903   2.280   5.970   8.091
49355SOL    HW149904   2.221   5.953   8.165
49355SOL    HW249905   2.346   5.901   8.097
49356SOL     OW49906   8.857   9.644   5.988
49356SOL    HW149907   8.842   9.738   5.997
49356SOL    HW249908   8.799   9.604   6.053
49357SOL     OW49909   1.019   2.265   8.836
49357SOL    HW149910   1.070   2.244   8.914
49357SOL    HW249911   0.989   2.180   8.803
49358SOL     OW49912   6.839   0.735  11.813
49358SOL    HW149913   6.859   0.692  11.730
49358SOL    HW249914   6.779   0.806  11.790
49359SOL     OW49915   2.928   9.639  13.218
49359SOL    HW149916   3.005   9.634  13.275
49359SOL    HW249917   2.920   9.550  13.181
49360SOL     OW49918  14.273   0.963   6.386
49360SOL    HW149919  14.347   1.011   6.347
49360SOL    HW249920  14.201   0.977   6.325
49361SOL     OW49921   1.099  13.271   4.382
49361SOL    HW149922   1.015  13.228   4.364
49361SOL    HW249923   1.160  13.198   4.395
49362SOL     OW49924   7.305   0.689   3.982
49362SOL    HW149925   7.313   0.629   4.057
49362SOL    HW249926   7.318   0.776   4.021
49363SOL     OW49927   0.767   4.528   2.099
49363SOL    HW149928   0.807   4.477   2.170
49363SOL    HW249929   0.767   4.618   2.132
49364SOL     OW49930   1.873   8.113   5.842
49364SOL    HW149931   1.911   8.166   5.772
49364SOL    HW249932   1.921   8.140   5.921
49365SOL     OW49933  14.190  13.333   0.102
49365SOL    HW149934  14.157  13.287   0.025
49365SOL    HW249935  14.111  13.367   0.145
49366SOL     OW49936   0.783   4.569  13.670
49366SOL    HW149937   0.769   4.552  13.577
49366SOL    HW249938   0.735   4.499  13.714
49367SOL     OW49939   2.480  11.508   2.291
49367SOL    HW149940   2.534  11.527   2.368
49367SOL    HW249941   2.542  11.503   2.219
49368SOL     OW49942  11.743  10.716   5.326
49368SOL    HW149943  11.792  10.684   5.249
49368SOL    HW249944  11.771  10.808   5.335
49369SOL     OW49945   0.569   3.739   3.359
49369SOL    HW149946   0.571   3.780   3.273
49369SOL    HW249947   0.542   3.649   3.341
49370SOL     OW49948  12.282   1.865   7.918
49370SOL    HW149949  12.194   1.891   7.892
49370SOL    HW249950  12.310   1.934   7.979
49371SOL     OW49951   5.000  10.546   6.132
49371SOL    HW149952   5.076  10.565   6.077
49371SOL    HW249953   5.026  10.471   6.185
49372SOL     OW49954   7.635  11.041  11.944
49372SOL    HW149955   7.611  10.951  11.926
49372SOL    HW249956   7.590  11.063  12.026
49373SOL     OW49957   4.955  12.972  10.514
49373SOL    HW149958   4.979  13.036  10.446
49373SOL    HW249959   4.987  13.011  10.595
49374SOL     OW49960  10.756   6.941  13.435
49374SOL    HW149961  10.687   6.882  13.404
49374SOL    HW249962  10.734   6.959  13.526
49375SOL     OW49963   1.929   7.860   2.374
49375SOL    HW149964   2.008   7.809   2.353
49375SOL    HW249965   1.863   7.794   2.393
49376SOL     OW49966   8.130   4.932  11.813
49376SOL    HW149967   8.147   4.912  11.905
49376SOL    HW249968   8.213   4.914  11.768
49377SOL     OW49969   5.456   9.511   3.824
49377SOL    HW149970   5.491   9.424   3.841
49377SOL    HW249971   5.396   9.528   3.897
49378SOL     OW49972  11.494   7.763   1.977
49378SOL    HW149973  11.406   7.790   2.005
49378SOL    HW249974  11.542   7.845   1.968
49379SOL     OW49975   7.340   0.127   7.518
49379SOL    HW149976   7.282   0.202   7.501
49379SOL    HW249977   7.301   0.082   7.593
49380SOL     OW49978   6.158   5.566   1.525
49380SOL    HW149979   6.163   5.584   1.431
49380SOL    HW249980   6.192   5.646   1.566
49381SOL     OW49981   8.991  13.394  11.000
49381SOL    HW149982   9.003  13.324  10.936
49381SOL    HW249983   8.963  13.349  11.080
49382SOL     OW49984  10.988  10.289   5.181
49382SOL    HW149985  11.063  10.239   5.214
49382SOL    HW249986  10.924  10.287   5.251
49383SOL     OW49987   2.837  13.485  13.705
49383SOL    HW149988   2.931  13.502  13.713
49383SOL    HW249989   2.797  13.572  13.706
49384SOL     OW49990  12.818  13.251  10.938
49384SOL    HW149991  12.808  13.336  10.895
49384SOL    HW249992  12.859  13.272  11.022
49385SOL     OW49993   3.510  12.632   8.874
49385SOL    HW149994   3.417  12.623   8.852
49385SOL    HW249995   3.515  12.714   8.923
49386SOL     OW49996   7.698  13.541   5.366
49386SOL    HW149997   7.758  13.467   5.351
49386SOL    HW249998   7.723  13.573   5.453
49387SOL     OW49999   2.578   4.890  14.218
49387SOL    HW150000   2.630   4.830  14.272
49387SOL    HW250001   2.602   4.977  14.248
49388SOL     OW50002  10.864   4.083   2.461
49388SOL    HW150003  10.927   4.094   2.390
49388SOL    HW250004  10.778   4.088   2.419
49389SOL     OW50005  10.919   3.870   2.207
49389SOL    HW150006  10.851   3.937   2.204
49389SOL    HW250007  11.001   3.919   2.216
49390SOL     OW50008   0.228  10.930   5.719
49390SOL    HW150009   0.279  10.968   5.647
49390SOL    HW250010   0.201  11.006   5.771
49391SOL     OW50011   0.733  14.506   0.859
49391SOL    HW150012   0.789  14.432   0.834
49391SOL    HW250013   0.657  14.500   0.801
49392SOL     OW50014   8.901   0.436  14.249
49392SOL    HW150015   8.937   0.511  14.295
49392SOL    HW250016   8.820   0.416  14.294
49393SOL     OW50017   4.864  12.850   1.143
49393SOL    HW150018   4.810  12.919   1.181
49393SOL    HW250019   4.803  12.799   1.089
49394SOL     OW50020  11.932   4.087  10.636
49394SOL    HW150021  11.982   4.021  10.684
49394SOL    HW250022  11.847   4.090  10.680
49395SOL     OW50023   7.140  13.612  12.243
49395SOL    HW150024   7.079  13.610  12.169
49395SOL    HW250025   7.147  13.704  12.267
49396SOL     OW50026  14.835  10.772   8.906
49396SOL    HW150027  14.761  10.831   8.897
49396SOL    HW250028  14.860  10.751   8.816
49397SOL     OW50029  10.804  13.590   6.529
49397SOL    HW150030  10.845  13.537   6.597
49397SOL    HW250031  10.804  13.534   6.451
49398SOL     OW50032   1.959   2.656   7.260
49398SOL    HW150033   1.961   2.735   7.206
49398SOL    HW250034   1.899   2.677   7.331
49399SOL     OW50035   1.198  10.555   9.301
49399SOL    HW150036   1.257  10.491   9.260
49399SOL    HW250037   1.111  10.522   9.281
49400SOL     OW50038   1.623   7.487   3.955
49400SOL    HW150039   1.622   7.552   3.885
49400SOL    HW250040   1.534   7.452   3.958
49401SOL     OW50041  12.163  11.370  11.469
49401SOL    HW150042  12.223  11.333  11.404
49401SOL    HW250043  12.077  11.341  11.440
49402SOL     OW50044   1.560  14.817   1.283
49402SOL    HW150045   1.512  14.848   1.360
49402SOL    HW250046   1.588  14.728   1.306
49403SOL     OW50047  14.018   5.356  14.306
49403SOL    HW150048  14.061   5.292  14.249
49403SOL    HW250049  14.075   5.362  14.383
49404SOL     OW50050  11.547   9.560   2.259
49404SOL    HW150051  11.497   9.480   2.243
49404SOL    HW250052  11.595   9.543   2.339
49405SOL     OW50053   3.494   9.833   6.859
49405SOL    HW150054   3.536   9.913   6.890
49405SOL    HW250055   3.400   9.849   6.869
49406SOL     OW50056   9.408   7.549  14.235
49406SOL    HW150057   9.397   7.555  14.330
49406SOL    HW250058   9.483   7.491  14.223
49407SOL     OW50059  10.059   0.327   7.579
49407SOL    HW150060  10.012   0.362   7.655
49407SOL    HW250061  10.054   0.232   7.589
49408SOL     OW50062   0.051   7.700  10.490
49408SOL    HW150063  14.835   7.697  10.496
49408SOL    HW250064   0.071   7.793  10.480
49409SOL     OW50065   0.852   8.699   3.098
49409SOL    HW150066   0.805   8.744   3.027
49409SOL    HW250067   0.905   8.768   3.139
49410SOL     OW50068  11.316  11.467  12.032
49410SOL    HW150069  11.396  11.454  11.980
49410SOL    HW250070  11.348  11.492  12.119
49411SOL     OW50071   5.344   9.090  13.883
49411SOL    HW150072   5.280   9.032  13.843
49411SOL    HW250073   5.404   9.113  13.812
49412SOL     OW50074   7.431  10.819  14.277
49412SOL    HW150075   7.486  10.752  14.317
49412SOL    HW250076   7.491  10.891  14.258
49413SOL     OW50077  11.836   2.455  11.545
49413SOL    HW150078  11.745   2.438  11.522
49413SOL    HW250079  11.883   2.449  11.462
49414SOL     OW50080   3.800   8.964   7.458
49414SOL    HW150081   3.785   9.036   7.397
49414SOL    HW250082   3.769   8.996   7.543
49415SOL     OW50083   6.969   8.070  11.419
49415SOL    HW150084   7.052   8.052  11.463
49415SOL    HW250085   6.903   8.032  11.478
49416SOL     OW50086   6.794   5.751  11.294
49416SOL    HW150087   6.855   5.724  11.226
49416SOL    HW250088   6.780   5.672  11.347
49417SOL     OW50089  10.111  13.573   9.757
49417SOL    HW150090  10.046  13.565   9.827
49417SOL    HW250091  10.108  13.489   9.712
49418SOL     OW50092  13.766   8.209   0.018
49418SOL    HW150093  13.798   8.145   0.081
49418SOL    HW250094  13.803   8.292   0.047
49419SOL     OW50095  11.798   8.804   7.938
49419SOL    HW150096  11.819   8.762   8.021
49419SOL    HW250097  11.715   8.766   7.911
49420SOL     OW50098   9.476   9.672   0.089
49420SOL    HW150099   9.501   9.580   0.083
49420SOL    HW250100   9.524   9.714   0.017
49421SOL     OW50101   8.354   7.461   5.075
49421SOL    HW150102   8.427   7.400   5.075
49421SOL    HW250103   8.276   7.406   5.082
49422SOL     OW50104   1.621  12.732   1.461
49422SOL    HW150105   1.696  12.679   1.432
49422SOL    HW250106   1.636  12.743   1.555
49423SOL     OW50107   1.327   7.106   3.946
49423SOL    HW150108   1.270   7.057   3.887
49423SOL    HW250109   1.416   7.083   3.918
49424SOL     OW50110   3.277   3.805   2.310
49424SOL    HW150111   3.215   3.874   2.287
49424SOL    HW250112   3.252   3.780   2.399
49425SOL     OW50113  12.380  10.813  10.944
49425SOL    HW150114  12.359  10.721  10.930
49425SOL    HW250115  12.305  10.849  10.990
49426SOL     OW50116   4.405  14.549   3.021
49426SOL    HW150117   4.463  14.476   3.045
49426SOL    HW250118   4.434  14.576   2.934
49427SOL     OW50119   5.776  10.469  12.778
49427SOL    HW150120   5.739  10.380  12.783
49427SOL    HW250121   5.861  10.457  12.736
49428SOL     OW50122   7.286   1.287   3.182
49428SOL    HW150123   7.271   1.286   3.276
49428SOL    HW250124   7.378   1.312   3.172
49429SOL     OW50125  11.330   4.884  12.586
49429SOL    HW150126  11.279   4.921  12.514
49429SOL    HW250127  11.417   4.921  12.575
49430SOL     OW50128   7.481   1.352   9.800
49430SOL    HW150129   7.513   1.383   9.715
49430SOL    HW250130   7.510   1.261   9.805
49431SOL     OW50131   9.991   9.958   2.401
49431SOL    HW150132  10.028   9.930   2.485
49431SOL    HW250133  10.028   9.896   2.337
49432SOL     OW50134   8.482   7.823   8.405
49432SOL    HW150135   8.543   7.849   8.473
49432SOL    HW250136   8.493   7.888   8.336
49433SOL     OW50137   6.234   4.626   2.643
49433SOL    HW150138   6.165   4.573   2.602
49433SOL    HW250139   6.306   4.625   2.580
49434SOL     OW50140  12.579   2.574   0.459
49434SOL    HW150141  12.506   2.557   0.518
49434SOL    HW250142  12.561   2.661   0.423
49435SOL     OW50143   4.709   9.741  11.169
49435SOL    HW150144   4.663   9.659  11.186
49435SOL    HW250145   4.689   9.796  11.244
49436SOL     OW50146   8.106   2.885  14.701
49436SOL    HW150147   8.121   2.917  14.612
49436SOL    HW250148   8.132   2.957  14.757
49437SOL     OW50149   3.278  11.225   9.295
49437SOL    HW150150   3.298  11.300   9.239
49437SOL    HW250151   3.183  11.216   9.291
49438SOL     OW50152   6.864  10.640   4.681
49438SOL    HW150153   6.801  10.638   4.753
49438SOL    HW250154   6.812  10.663   4.604
49439SOL     OW50155  14.476   7.310   6.613
49439SOL    HW150156  14.396   7.287   6.566
49439SOL    HW250157  14.458   7.284   6.704
49440SOL     OW50158  13.576   5.441   5.711
49440SOL    HW150159  13.616   5.371   5.762
49440SOL    HW250160  13.587   5.414   5.620
49441SOL     OW50161  14.140   7.733  14.126
49441SOL    HW150162  14.058   7.706  14.084
49441SOL    HW250163  14.112   7.773  14.208
49442SOL     OW50164   9.737   4.444   7.972
49442SOL    HW150165   9.790   4.396   7.908
49442SOL    HW250166   9.766   4.535   7.964
49443SOL     OW50167  14.499  11.560  14.785
49443SOL    HW150168  14.434  11.586  14.850
49443SOL    HW250169  14.496  11.465  14.784
49444SOL     OW50170   8.211  10.694  11.138
49444SOL    HW150171   8.162  10.749  11.077
49444SOL    HW250172   8.175  10.715  11.224
49445SOL     OW50173  14.376   9.684  14.166
49445SOL    HW150174  14.356   9.654  14.255
49445SOL    HW250175  14.320   9.761  14.154
49446SOL     OW50176   1.045   4.713   9.326
49446SOL    HW150177   0.970   4.714   9.266
49446SOL    HW250178   1.065   4.621   9.338
49447SOL     OW50179   5.011   7.462   9.508
49447SOL    HW150180   4.979   7.539   9.555
49447SOL    HW250181   4.932   7.423   9.469
49448SOL     OW50182  12.356   0.688   8.819
49448SOL    HW150183  12.305   0.607   8.818
49448SOL    HW250184  12.441   0.662   8.856
49449SOL     OW50185   1.545   7.309   4.273
49449SOL    HW150186   1.535   7.216   4.290
49449SOL    HW250187   1.584   7.314   4.186
49450SOL     OW50188   0.506  10.762   5.713
49450SOL    HW150189   0.586  10.758   5.765
49450SOL    HW250190   0.445  10.812   5.766
49451SOL     OW50191   8.401   1.621   5.090
49451SOL    HW150192   8.405   1.717   5.090
49451SOL    HW250193   8.380   1.599   5.181
49452SOL     OW50194   8.721   2.963  12.374
49452SOL    HW150195   8.741   3.052  12.344
49452SOL    HW250196   8.647   2.974  12.435
49453SOL     OW50197   3.007   3.488   9.143
49453SOL    HW150198   3.031   3.542   9.219
49453SOL    HW250199   3.001   3.399   9.178
49454SOL     OW50200   0.793   9.294  12.764
49454SOL    HW150201   0.819   9.350  12.691
49454SOL    HW250202   0.771   9.356  12.834
49455SOL     OW50203   3.149   3.367  13.259
49455SOL    HW150204   3.078   3.394  13.317
49455SOL    HW250205   3.106   3.330  13.183
49456SOL     OW50206  14.474   0.008  11.056
49456SOL    HW150207  14.481  14.810  11.112
49456SOL    HW250208  14.398   0.055  11.091
49457SOL     OW50209   5.435   7.414   3.120
49457SOL    HW150210   5.516   7.366   3.136
49457SOL    HW250211   5.437   7.487   3.182
49458SOL     OW50212   5.259   4.541   7.240
49458SOL    HW150213   5.226   4.489   7.166
49458SOL    HW250214   5.266   4.478   7.312
49459SOL     OW50215   2.529   7.264   4.049
49459SOL    HW150216   2.553   7.343   4.097
49459SOL    HW250217   2.434   7.258   4.058
49460SOL     OW50218   2.854  10.353   7.196
49460SOL    HW150219   2.789  10.372   7.264
49460SOL    HW250220   2.828  10.268   7.161
49461SOL     OW50221  12.448   4.752  12.063
49461SOL    HW150222  12.460   4.804  11.983
49461SOL    HW250223  12.438   4.817  12.132
49462SOL     OW50224   9.320  11.250   3.206
49462SOL    HW150225   9.360  11.281   3.288
49462SOL    HW250226   9.236  11.295   3.202
49463SOL     OW50227   0.071   0.550   3.320
49463SOL    HW150228   0.002   0.569   3.383
49463SOL    HW250229   0.091   0.457   3.333
49464SOL     OW50230   0.245   6.351  10.176
49464SOL    HW150231   0.339   6.347  10.159
49464SOL    HW250232   0.236   6.410  10.250
49465SOL     OW50233   7.084  13.240   3.547
49465SOL    HW150234   7.175  13.237   3.516
49465SOL    HW250235   7.080  13.173   3.616
49466SOL     OW50236   1.984   5.522  11.922
49466SOL    HW150237   1.918   5.474  11.973
49466SOL    HW250238   2.022   5.456  11.864
49467SOL     OW50239   0.594  11.159   8.007
49467SOL    HW150240   0.678  11.186   7.971
49467SOL    HW250241   0.558  11.239   8.047
49468SOL     OW50242   7.352  14.241   4.626
49468SOL    HW150243   7.351  14.191   4.544
49468SOL    HW250244   7.436  14.220   4.666
49469SOL     OW50245   9.633  10.994   2.366
49469SOL    HW150246   9.559  10.951   2.324
49469SOL    HW250247   9.608  11.087   2.369
49470SOL     OW50248  10.525   9.069  13.837
49470SOL    HW150249  10.561   9.157  13.852
49470SOL    HW250250  10.432   9.077  13.857
49471SOL     OW50251   6.850   2.567  10.608
49471SOL    HW150252   6.890   2.649  10.636
49471SOL    HW250253   6.755   2.585  10.611
49472SOL     OW50254   8.355   1.689   6.613
49472SOL    HW150255   8.357   1.783   6.630
49472SOL    HW250256   8.388   1.680   6.524
49473SOL     OW50257   5.458  12.403   0.913
49473SOL    HW150258   5.505  12.353   0.980
49473SOL    HW250259   5.465  12.494   0.941
49474SOL     OW50260   6.896   3.596   3.057
49474SOL    HW150261   6.911   3.631   3.144
49474SOL    HW250262   6.974   3.618   3.007
49475SOL     OW50263   0.647   1.425   3.521
49475SOL    HW150264   0.573   1.479   3.497
49475SOL    HW250265   0.609   1.349   3.566
49476SOL     OW50266   2.861   9.861  10.355
49476SOL    HW150267   2.804   9.923  10.310
49476SOL    HW250268   2.838   9.776  10.318
49477SOL     OW50269  14.788   5.032   2.178
49477SOL    HW150270  14.737   5.076   2.246
49477SOL    HW250271  14.783   5.090   2.102
49478SOL     OW50272   4.143   2.337   5.211
49478SOL    HW150273   4.087   2.339   5.289
49478SOL    HW250274   4.229   2.310   5.244
49479SOL     OW50275   6.368   6.707  13.672
49479SOL    HW150276   6.289   6.694  13.724
49479SOL    HW250277   6.399   6.794  13.698
49480SOL     OW50278   4.752   3.800   4.308
49480SOL    HW150279   4.775   3.793   4.215
49480SOL    HW250280   4.731   3.892   4.321
49481SOL     OW50281   6.884   3.722  12.905
49481SOL    HW150282   6.796   3.760  12.908
49481SOL    HW250283   6.917   3.746  12.818
49482SOL     OW50284  10.191  10.218   0.636
49482SOL    HW150285  10.100  10.225   0.608
49482SOL    HW250286  10.186  10.182   0.724
49483SOL     OW50287   7.551   5.218   4.759
49483SOL    HW150288   7.594   5.302   4.776
49483SOL    HW250289   7.622   5.156   4.748
49484SOL     OW50290   1.427   7.868   6.512
49484SOL    HW150291   1.360   7.882   6.579
49484SOL    HW250292   1.410   7.780   6.478
49485SOL     OW50293   8.490   3.095  11.682
49485SOL    HW150294   8.410   3.106  11.631
49485SOL    HW250295   8.506   3.182  11.719
49486SOL     OW50296  10.767  13.574  10.175
49486SOL    HW150297  10.828  13.551  10.245
49486SOL    HW250298  10.755  13.669  10.184
49487SOL     OW50299   2.104   3.436   2.763
49487SOL    HW150300   2.147   3.400   2.840
49487SOL    HW250301   2.012   3.411   2.774
49488SOL     OW50302   5.031   1.287  14.730
49488SOL    HW150303   5.109   1.331  14.765
49488SOL    HW250304   5.065   1.205  14.693
49489SOL     OW50305  12.747  11.553   8.754
49489SOL    HW150306  12.839  11.526   8.744
49489SOL    HW250307  12.697  11.485   8.708
49490SOL     OW50308   4.871   2.222   1.944
49490SOL    HW150309   4.931   2.296   1.943
49490SOL    HW250310   4.794   2.254   1.992
49491SOL     OW50311   3.295  10.277   0.143
49491SOL    HW150312   3.312  10.255   0.051
49491SOL    HW250313   3.370  10.332   0.169
49492SOL     OW50314  12.730   1.738  14.291
49492SOL    HW150315  12.800   1.795  14.324
49492SOL    HW250316  12.771   1.652  14.284
49493SOL     OW50317  13.419   9.701   8.569
49493SOL    HW150318  13.481   9.766   8.601
49493SOL    HW250319  13.472   9.641   8.516
49494SOL     OW50320  13.762   1.699   2.651
49494SOL    HW150321  13.855   1.683   2.634
49494SOL    HW250322  13.736   1.630   2.711
49495SOL     OW50323   4.256  14.322  10.689
49495SOL    HW150324   4.342  14.323  10.646
49495SOL    HW250325   4.269  14.370  10.771
49496SOL     OW50326   0.052   3.404  12.825
49496SOL    HW150327  14.876   3.327  12.835
49496SOL    HW250328   0.086   3.398  12.736
49497SOL     OW50329  12.440  13.099  14.814
49497SOL    HW150330  12.372  13.073  14.751
49497SOL    HW250331  12.510  13.133  14.759
49498SOL     OW50332   1.248  10.888   2.247
49498SOL    HW150333   1.210  10.814   2.200
49498SOL    HW250334   1.232  10.868   2.339
49499SOL     OW50335   1.234   6.776   1.881
49499SOL    HW150336   1.169   6.739   1.821
49499SOL    HW250337   1.314   6.728   1.861
49500SOL     OW50338   7.905   7.380  11.914
49500SOL    HW150339   7.923   7.296  11.871
49500SOL    HW250340   7.813   7.397  11.895
49501SOL     OW50341   2.745   0.605   1.172
49501SOL    HW150342   2.710   0.584   1.258
49501SOL    HW250343   2.672   0.591   1.112
49502SOL     OW50344   0.397  12.946   1.745
49502SOL    HW150345   0.313  12.963   1.703
49502SOL    HW250346   0.423  13.031   1.781
49503SOL     OW50347  10.765   3.816  13.856
49503SOL    HW150348  10.693   3.829  13.919
49503SOL    HW250349  10.774   3.900  13.811
49504SOL     OW50350   1.286  11.701  10.986
49504SOL    HW150351   1.293  11.745  10.902
49504SOL    HW250352   1.368  11.722  11.031
49505SOL     OW50353  10.324   9.702   6.853
49505SOL    HW150354  10.277   9.650   6.788
49505SOL    HW250355  10.256   9.745   6.904
49506SOL     OW50356   7.823   5.922  12.537
49506SOL    HW150357   7.832   5.885  12.625
49506SOL    HW250358   7.910   5.956  12.516
49507SOL     OW50359   4.887  14.259   2.278
49507SOL    HW150360   4.872  14.350   2.254
49507SOL    HW250361   4.940  14.224   2.207
49508SOL     OW50362   3.091   2.071  10.502
49508SOL    HW150363   3.121   2.159  10.481
49508SOL    HW250364   3.033   2.047  10.431
49509SOL     OW50365   7.843  13.390   7.653
49509SOL    HW150366   7.842  13.297   7.629
49509SOL    HW250367   7.773  13.429   7.601
49510SOL     OW50368  13.525   9.974  10.411
49510SOL    HW150369  13.586  10.021  10.468
49510SOL    HW250370  13.561   9.986  10.323
49511SOL     OW50371   1.245   4.775   9.875
49511SOL    HW150372   1.157   4.810   9.864
49511SOL    HW250373   1.259   4.722   9.796
49512SOL     OW50374  12.519   8.630   3.922
49512SOL    HW150375  12.470   8.704   3.957
49512SOL    HW250376  12.464   8.554   3.939
49513SOL     OW50377   3.946   8.296   3.270
49513SOL    HW150378   4.036   8.326   3.283
49513SOL    HW250379   3.933   8.298   3.176
49514SOL     OW50380  12.143  11.712   2.869
49514SOL    HW150381  12.124  11.678   2.782
49514SOL    HW250382  12.111  11.803   2.866
49515SOL     OW50383   9.330  12.531   0.010
49515SOL    HW150384   9.297  12.609  14.844
49515SOL    HW250385   9.286  12.532   0.095
49516SOL     OW50386   4.836  13.060  13.683
49516SOL    HW150387   4.865  13.138  13.635
49516SOL    HW250388   4.770  13.092  13.744
49517SOL     OW50389  11.394  12.522   2.566
49517SOL    HW150390  11.438  12.501   2.484
49517SOL    HW250391  11.466  12.546   2.626
49518SOL     OW50392  14.431   9.157   6.577
49518SOL    HW150393  14.410   9.087   6.638
49518SOL    HW250394  14.505   9.123   6.525
49519SOL     OW50395  10.786   8.212   6.750
49519SOL    HW150396  10.804   8.148   6.682
49519SOL    HW250397  10.691   8.225   6.746
49520SOL     OW50398   0.027   7.395   8.647
49520SOL    HW150399  14.841   7.390   8.716
49520SOL    HW250400   0.059   7.485   8.651
49521SOL     OW50401   3.217  10.564   0.036
49521SOL    HW150402   3.154  10.564   0.109
49521SOL    HW250403   3.300  10.539   0.076
49522SOL     OW50404   6.575  12.190   6.060
49522SOL    HW150405   6.486  12.222   6.076
49522SOL    HW250406   6.622  12.206   6.142
49523SOL     OW50407   3.383  10.695  12.229
49523SOL    HW150408   3.475  10.702  12.255
49523SOL    HW250409   3.333  10.716  12.308
49524SOL     OW50410   5.646   2.260   3.256
49524SOL    HW150411   5.633   2.353   3.274
49524SOL    HW250412   5.578   2.238   3.191
49525SOL     OW50413   0.883   7.532   3.351
49525SOL    HW150414   0.913   7.447   3.381
49525SOL    HW250415   0.949   7.560   3.288
49526SOL     OW50416  14.565  11.587   8.222
49526SOL    HW150417  14.472  11.604   8.232
49526SOL    HW250418  14.595  11.654   8.160
49527SOL     OW50419   4.033   7.768  12.270
49527SOL    HW150420   3.966   7.817  12.223
49527SOL    HW250421   4.093   7.737  12.202
49528SOL     OW50422   9.403   2.331  12.911
49528SOL    HW150423   9.464   2.267  12.949
49528SOL    HW250424   9.368   2.378  12.986
49529SOL     OW50425   2.190  13.894  11.763
49529SOL    HW150426   2.161  13.976  11.721
49529SOL    HW250427   2.174  13.827  11.697
49530SOL     OW50428   6.256  10.020   4.096
49530SOL    HW150429   6.172   9.984   4.125
49530SOL    HW250430   6.315  10.006   4.171
49531SOL     OW50431   2.235   1.442  11.938
49531SOL    HW150432   2.233   1.400  11.852
49531SOL    HW250433   2.327   1.441  11.962
49532SOL     OW50434   5.305   4.287   9.415
49532SOL    HW150435   5.294   4.192   9.415
49532SOL    HW250436   5.384   4.302   9.363
49533SOL     OW50437   4.291   2.177  10.780
49533SOL    HW150438   4.218   2.227  10.743
49533SOL    HW250439   4.367   2.205  10.730
49534SOL     OW50440  14.403   8.577   9.635
49534SOL    HW150441  14.418   8.508   9.570
49534SOL    HW250442  14.309   8.577   9.650
49535SOL     OW50443   2.459   5.732   5.327
49535SOL    HW150444   2.382   5.778   5.294
49535SOL    HW250445   2.427   5.685   5.404
49536SOL     OW50446  12.418   0.160   0.046
49536SOL    HW150447  12.425   0.071   0.078
49536SOL    HW250448  12.496   0.173  14.872
49537SOL     OW50449   9.757   1.929   2.164
49537SOL    HW150450   9.738   1.930   2.258
49537SOL    HW250451   9.774   2.021   2.142
49538SOL     OW50452   3.433   6.976   5.121
49538SOL    HW150453   3.527   6.958   5.133
49538SOL    HW250454   3.390   6.911   5.176
49539SOL     OW50455   4.670   2.906   6.619
49539SOL    HW150456   4.619   2.986   6.632
49539SOL    HW250457   4.664   2.859   6.702
49540SOL     OW50458   3.687   7.841   6.623
49540SOL    HW150459   3.623   7.776   6.651
49540SOL    HW250460   3.725   7.804   6.544
49541SOL     OW50461   3.359   4.425   2.325
49541SOL    HW150462   3.285   4.400   2.271
49541SOL    HW250463   3.338   4.514   2.355
49542SOL     OW50464  12.023   6.030   6.670
49542SOL    HW150465  11.957   5.962   6.653
49542SOL    HW250466  12.013   6.049   6.763
49543SOL     OW50467   6.335   4.460   2.837
49543SOL    HW150468   6.304   4.523   2.772
49543SOL    HW250469   6.342   4.377   2.789
49544SOL     OW50470  13.115   1.378   1.048
49544SOL    HW150471  13.124   1.321   0.971
49544SOL    HW250472  13.197   1.427   1.052
49545SOL     OW50473  13.190  11.067   0.708
49545SOL    HW150474  13.186  11.097   0.617
49545SOL    HW250475  13.254  10.996   0.707
49546SOL     OW50476  13.526   4.165   4.114
49546SOL    HW150477  13.449   4.222   4.104
49546SOL    HW250478  13.594   4.222   4.150
49547SOL     OW50479  11.060  12.469   0.765
49547SOL    HW150480  11.150  12.499   0.751
49547SOL    HW250481  11.008  12.519   0.703
49548SOL     OW50482   5.216  10.304  11.214
49548SOL    HW150483   5.158  10.305  11.290
49548SOL    HW250484   5.207  10.215  11.178
49549SOL     OW50485  13.186  14.083  13.507
49549SOL    HW150486  13.175  14.156  13.447
49549SOL    HW250487  13.251  14.027  13.464
49550SOL     OW50488   8.605   4.448   7.203
49550SOL    HW150489   8.556   4.528   7.190
49550SOL    HW250490   8.655   4.462   7.283
49551SOL     OW50491  11.809   7.535  13.300
49551SOL    HW150492  11.755   7.599  13.347
49551SOL    HW250493  11.801   7.561  13.208
49552SOL     OW50494   6.386  10.235   4.321
49552SOL    HW150495   6.345  10.284   4.393
49552SOL    HW250496   6.383  10.296   4.247
49553SOL     OW50497   7.674   1.808  13.645
49553SOL    HW150498   7.593   1.801  13.594
49553SOL    HW250499   7.743   1.814  13.579
49554SOL     OW50500  14.398   2.348   5.231
49554SOL    HW150501  14.487   2.368   5.259
49554SOL    HW250502  14.344   2.358   5.310
49555SOL     OW50503   5.039  12.883   2.945
49555SOL    HW150504   5.044  12.919   3.034
49555SOL    HW250505   5.003  12.795   2.958
49556SOL     OW50506   8.270   8.967  10.703
49556SOL    HW150507   8.345   9.026  10.696
49556SOL    HW250508   8.268   8.921  10.620
49557SOL     OW50509  10.098  12.132  13.577
49557SOL    HW150510  10.110  12.227  13.576
49557SOL    HW250511  10.114  12.105  13.486
49558SOL     OW50512  12.125   1.903   8.199
49558SOL    HW150513  12.064   1.975   8.212
49558SOL    HW250514  12.202   1.942   8.157
49559SOL     OW50515   4.984   6.509  14.545
49559SOL    HW150516   5.043   6.549  14.480
49559SOL    HW250517   4.898   6.548  14.525
49560SOL     OW50518   9.442  12.790   3.463
49560SOL    HW150519   9.476  12.763   3.548
49560SOL    HW250520   9.512  12.844   3.426
49561SOL     OW50521  11.008   4.014   4.250
49561SOL    HW150522  10.947   4.070   4.203
49561SOL    HW250523  11.091   4.061   4.247
49562SOL     OW50524  13.933   9.081   9.804
49562SOL    HW150525  13.921   9.013   9.870
49562SOL    HW250526  13.880   9.052   9.729
49563SOL     OW50527   6.527   8.909   9.483
49563SOL    HW150528   6.484   8.928   9.567
49563SOL    HW250529   6.620   8.905   9.504
49564SOL     OW50530  13.030   1.850  12.364
49564SOL    HW150531  13.053   1.823  12.275
49564SOL    HW250532  13.101   1.816  12.418
49565SOL     OW50533   8.499  14.556   9.591
49565SOL    HW150534   8.430  14.614   9.559
49565SOL    HW250535   8.577  14.611   9.595
49566SOL     OW50536   0.063   7.827   4.523
49566SOL    HW150537   0.107   7.872   4.450
49566SOL    HW250538   0.008   7.761   4.481
49567SOL     OW50539   7.693   9.475   8.346
49567SOL    HW150540   7.713   9.397   8.398
49567SOL    HW250541   7.711   9.548   8.404
49568SOL     OW50542   2.944   5.119  12.009
49568SOL    HW150543   3.036   5.127  11.985
49568SOL    HW250544   2.932   5.026  12.026
49569SOL     OW50545  12.828   0.480   6.753
49569SOL    HW150546  12.865   0.455   6.838
49569SOL    HW250547  12.904   0.483   6.694
49570SOL     OW50548  13.623   3.917  10.087
49570SOL    HW150549  13.592   3.992  10.138
49570SOL    HW250550  13.572   3.919  10.006
49571SOL     OW50551  11.694   9.459  10.175
49571SOL    HW150552  11.696   9.503  10.090
49571SOL    HW250553  11.732   9.523  10.235
49572SOL     OW50554   4.994   9.675  11.161
49572SOL    HW150555   4.899   9.668  11.173
49572SOL    HW250556   5.017   9.760  11.197
49573SOL     OW50557   3.836   4.759  12.150
49573SOL    HW150558   3.830   4.801  12.064
49573SOL    HW250559   3.910   4.802  12.192
49574SOL     OW50560   4.291   2.522   1.271
49574SOL    HW150561   4.296   2.562   1.184
49574SOL    HW250562   4.197   2.515   1.289
49575SOL     OW50563   9.470   8.823   7.334
49575SOL    HW150564   9.386   8.798   7.295
49575SOL    HW250565   9.448   8.848   7.424
49576SOL     OW50566   5.415   7.042   7.407
49576SOL    HW150567   5.320   7.055   7.409
49576SOL    HW250568   5.430   6.970   7.467
49577SOL     OW50569   9.717  12.266   9.362
49577SOL    HW150570   9.713  12.218   9.445
49577SOL    HW250571   9.753  12.203   9.300
49578SOL     OW50572   7.548   9.128  13.350
49578SOL    HW150573   7.457   9.100  13.361
49578SOL    HW250574   7.599   9.048  13.366
49579SOL     OW50575  12.543   4.137   5.736
49579SOL    HW150576  12.597   4.182   5.671
49579SOL    HW250577  12.498   4.208   5.782
49580SOL     OW50578   2.932   5.237   4.777
49580SOL    HW150579   3.023   5.212   4.759
49580SOL    HW250580   2.939   5.320   4.825
49581SOL     OW50581   0.986  10.979   9.823
49581SOL    HW150582   1.027  10.972   9.737
49581SOL    HW250583   0.892  10.964   9.806
49582SOL     OW50584   7.421  13.620   8.571
49582SOL    HW150585   7.396  13.690   8.510
49582SOL    HW250586   7.399  13.539   8.525
49583SOL     OW50587   9.160   5.415   2.758
49583SOL    HW150588   9.245   5.389   2.722
49583SOL    HW250589   9.162   5.511   2.758
49584SOL     OW50590   2.759   8.101   2.279
49584SOL    HW150591   2.682   8.077   2.226
49584SOL    HW250592   2.782   8.189   2.250
49585SOL     OW50593   2.692   2.500   4.360
49585SOL    HW150594   2.599   2.481   4.367
49585SOL    HW250595   2.705   2.524   4.268
49586SOL     OW50596   5.295   9.763   5.958
49586SOL    HW150597   5.320   9.686   6.009
49586SOL    HW250598   5.201   9.755   5.947
49587SOL     OW50599   2.081   6.451   8.993
49587SOL    HW150600   2.015   6.428   8.927
49587SOL    HW250601   2.048   6.412   9.074
49588SOL     OW50602   8.452   0.482  14.092
49588SOL    HW150603   8.500   0.462  14.011
49588SOL    HW250604   8.366   0.511  14.063
49589SOL     OW50605  14.318   1.689   9.870
49589SOL    HW150606  14.357   1.765   9.913
49589SOL    HW250607  14.224   1.709   9.866
49590SOL     OW50608  11.688  10.388   1.064
49590SOL    HW150609  11.685  10.366   0.970
49590SOL    HW250610  11.597  10.384   1.092
49591SOL     OW50611   9.589   9.015  11.038
49591SOL    HW150612   9.526   8.966  10.985
49591SOL    HW250613   9.586   9.104  11.002
49592SOL     OW50614  12.797  14.258   4.582
49592SOL    HW150615  12.738  14.317   4.535
49592SOL    HW250616  12.789  14.283   4.674
49593SOL     OW50617   2.263   8.254  11.368
49593SOL    HW150618   2.276   8.206  11.449
49593SOL    HW250619   2.168   8.260  11.359
49594SOL     OW50620   4.980   9.987  12.580
49594SOL    HW150621   4.951   9.897  12.571
49594SOL    HW250622   4.945  10.015  12.665
49595SOL     OW50623  10.949   0.110   1.236
49595SOL    HW150624  11.033   0.154   1.243
49595SOL    HW250625  10.888   0.177   1.205
49596SOL     OW50626   5.051   7.435  12.757
49596SOL    HW150627   5.081   7.497  12.824
49596SOL    HW250628   4.964   7.408  12.786
49597SOL     OW50629   1.160   9.242  13.288
49597SOL    HW150630   1.191   9.327  13.256
49597SOL    HW250631   1.229   9.212  13.347
49598SOL     OW50632   1.871   5.701   0.963
49598SOL    HW150633   1.893   5.745   0.882
49598SOL    HW250634   1.865   5.771   1.028
49599SOL     OW50635  14.199   2.580   2.716
49599SOL    HW150636  14.174   2.611   2.803
49599SOL    HW250637  14.250   2.652   2.679
49600SOL     OW50638  13.929   2.970   5.438
49600SOL    HW150639  13.895   2.893   5.484
49600SOL    HW250640  13.898   3.044   5.489
49601SOL     OW50641   8.149  10.435  11.090
49601SOL    HW150642   8.054  10.422  11.088
49601SOL    HW250643   8.160  10.530  11.102
49602SOL     OW50644  11.616   0.702   7.691
49602SOL    HW150645  11.608   0.749   7.775
49602SOL    HW250646  11.638   0.612   7.716
49603SOL     OW50647  11.545   1.988   0.253
49603SOL    HW150648  11.612   1.920   0.254
49603SOL    HW250649  11.516   1.993   0.162
49604SOL     OW50650   1.239   6.105   7.456
49604SOL    HW150651   1.303   6.033   7.463
49604SOL    HW250652   1.225   6.115   7.362
49605SOL     OW50653   3.604   4.961  13.937
49605SOL    HW150654   3.613   4.872  13.903
49605SOL    HW250655   3.690   4.981  13.975
49606SOL     OW50656   0.665   7.298   5.299
49606SOL    HW150657   0.719   7.225   5.269
49606SOL    HW250658   0.713   7.376   5.273
49607SOL     OW50659   7.692  11.244   3.145
49607SOL    HW150660   7.693  11.187   3.222
49607SOL    HW250661   7.599  11.257   3.126
49608SOL     OW50662  13.234   2.445  12.790
49608SOL    HW150663  13.228   2.381  12.861
49608SOL    HW250664  13.318   2.426  12.747
49609SOL     OW50665   4.876   7.223  12.226
49609SOL    HW150666   4.969   7.224  12.205
49609SOL    HW250667   4.857   7.313  12.254
49610SOL     OW50668   1.483   2.005   5.072
49610SOL    HW150669   1.543   1.957   5.014
49610SOL    HW250670   1.413   1.942   5.090
49611SOL     OW50671   9.127   2.107   3.040
49611SOL    HW150672   9.151   2.022   3.003
49611SOL    HW250673   9.188   2.168   3.000
49612SOL     OW50674   5.767  14.477  14.149
49612SOL    HW150675   5.680  14.518  14.150
49612SOL    HW250676   5.807  14.504  14.232
49613SOL     OW50677   2.519   5.037   3.796
49613SOL    HW150678   2.612   5.051   3.816
49613SOL    HW250679   2.508   4.942   3.801
49614SOL     OW50680   8.312   8.086  13.218
49614SOL    HW150681   8.375   8.025  13.179
49614SOL    HW250682   8.307   8.158  13.155
49615SOL     OW50683   3.114  14.730   6.433
49615SOL    HW150684   3.153  14.697   6.514
49615SOL    HW250685   3.100  14.652   6.380
49616SOL     OW50686  12.449  10.413  10.684
49616SOL    HW150687  12.356  10.431  10.669
49616SOL    HW250688  12.456  10.399  10.778
49617SOL     OW50689  10.178  13.375  13.319
49617SOL    HW150690  10.106  13.371  13.381
49617SOL    HW250691  10.245  13.318  13.357
49618SOL     OW50692  12.893   5.060  14.330
49618SOL    HW150693  12.914   5.146  14.295
49618SOL    HW250694  12.801   5.067  14.358
49619SOL     OW50695   7.687  14.358   2.453
49619SOL    HW150696   7.660  14.338   2.364
49619SOL    HW250697   7.771  14.313   2.464
49620SOL     OW50698  13.607   7.607  10.073
49620SOL    HW150699  13.640   7.649   9.993
49620SOL    HW250700  13.512   7.614  10.066
49621SOL     OW50701   3.405   1.617   6.371
49621SOL    HW150702   3.480   1.666   6.337
49621SOL    HW250703   3.373   1.566   6.297
49622SOL     OW50704  13.752   0.895   9.036
49622SOL    HW150705  13.813   0.827   9.065
49622SOL    HW250706  13.803   0.949   8.976
49623SOL     OW50707  14.162   8.636   8.613
49623SOL    HW150708  14.171   8.667   8.523
49623SOL    HW250709  14.133   8.712   8.662
49624SOL     OW50710  11.231   7.218   9.365
49624SOL    HW150711  11.265   7.188   9.281
49624SOL    HW250712  11.268   7.156   9.429
49625SOL     OW50713   4.976   0.878   2.992
49625SOL    HW150714   4.983   0.847   3.082
49625SOL    HW250715   4.977   0.973   2.999
49626SOL     OW50716   9.298   4.644   8.726
49626SOL    HW150717   9.345   4.725   8.743
49626SOL    HW250718   9.335   4.611   8.644
49627SOL     OW50719   6.295   6.225  11.930
49627SOL    HW150720   6.255   6.277  11.860
49627SOL    HW250721   6.308   6.139  11.891
49628SOL     OW50722   7.462  14.648   0.571
49628SOL    HW150723   7.446  14.732   0.614
49628SOL    HW250724   7.555  14.630   0.588
49629SOL     OW50725   7.964   5.206   7.379
49629SOL    HW150726   7.926   5.127   7.419
49629SOL    HW250727   7.959   5.272   7.448
49630SOL     OW50728   4.663   5.092   5.326
49630SOL    HW150729   4.724   5.163   5.306
49630SOL    HW250730   4.719   5.016   5.340
49631SOL     OW50731   0.149  14.566   3.223
49631SOL    HW150732   0.235  14.526   3.238
49631SOL    HW250733   0.101  14.551   3.304
49632SOL     OW50734   2.508   8.884   1.784
49632SOL    HW150735   2.561   8.882   1.705
49632SOL    HW250736   2.422   8.914   1.754
49633SOL     OW50737  12.157   2.272   6.351
49633SOL    HW150738  12.104   2.349   6.370
49633SOL    HW250739  12.100   2.198   6.371
49634SOL     OW50740   4.156   4.718  12.687
49634SOL    HW150741   4.135   4.805  12.722
49634SOL    HW250742   4.163   4.662  12.765
49635SOL     OW50743   1.849   4.259   0.546
49635SOL    HW150744   1.915   4.190   0.559
49635SOL    HW250745   1.765   4.213   0.555
49636SOL     OW50746   4.206   6.638  14.644
49636SOL    HW150747   4.157   6.713  14.677
49636SOL    HW250748   4.183   6.632  14.552
49637SOL     OW50749  10.160   8.560   0.462
49637SOL    HW150750  10.078   8.533   0.503
49637SOL    HW250751  10.137   8.636   0.409
49638SOL     OW50752  11.707   1.295  13.741
49638SOL    HW150753  11.615   1.302  13.715
49638SOL    HW250754  11.712   1.344  13.823
49639SOL     OW50755  14.024  14.118  10.648
49639SOL    HW150756  13.963  14.182  10.610
49639SOL    HW250757  14.015  14.041  10.592
49640SOL     OW50758  13.382   5.780  10.302
49640SOL    HW150759  13.357   5.728  10.378
49640SOL    HW250760  13.470   5.811  10.322
49641SOL     OW50761   6.668   4.014  12.632
49641SOL    HW150762   6.704   4.074  12.697
49641SOL    HW250763   6.598   3.968  12.677
49642SOL     OW50764  14.414   9.801   4.267
49642SOL    HW150765  14.474   9.793   4.192
49642SOL    HW250766  14.332   9.830   4.228
49643SOL     OW50767   3.710  12.037   4.581
49643SOL    HW150768   3.681  12.126   4.560
49643SOL    HW250769   3.751  12.046   4.667
49644SOL     OW50770  10.806  12.878   3.759
49644SOL    HW150771  10.820  12.934   3.835
49644SOL    HW250772  10.832  12.790   3.788
49645SOL     OW50773   2.416   6.207  14.641
49645SOL    HW150774   2.423   6.157  14.560
49645SOL    HW250775   2.506   6.222  14.668
49646SOL     OW50776   8.575   6.970   2.596
49646SOL    HW150777   8.512   6.980   2.667
49646SOL    HW250778   8.573   7.054   2.550
49647SOL     OW50779  14.878   6.351   8.906
49647SOL    HW150780   0.007   6.262   8.873
49647SOL    HW250781  14.814   6.344   8.977
49648SOL     OW50782   4.187  10.491  14.144
49648SOL    HW150783   4.232  10.519  14.225
49648SOL    HW250784   4.133  10.566  14.120
49649SOL     OW50785   8.970  10.408   5.500
49649SOL    HW150786   9.051  10.420   5.450
49649SOL    HW250787   8.952  10.314   5.493
49650SOL     OW50788   5.558  14.150   6.927
49650SOL    HW150789   5.550  14.210   6.853
49650SOL    HW250790   5.556  14.063   6.888
49651SOL     OW50791   8.428   1.744   4.204
49651SOL    HW150792   8.414   1.795   4.124
49651SOL    HW250793   8.491   1.677   4.178
49652SOL     OW50794  11.179  12.338  12.358
49652SOL    HW150795  11.145  12.418  12.320
49652SOL    HW250796  11.150  12.269  12.299
49653SOL     OW50797   0.050   8.982   5.005
49653SOL    HW150798  14.874   8.908   5.030
49653SOL    HW250799  14.869   9.050   4.978
49654SOL     OW50800   5.876  13.066   3.376
49654SOL    HW150801   5.789  13.103   3.366
49654SOL    HW250802   5.886  13.007   3.301
49655SOL     OW50803   2.513   9.904   3.590
49655SOL    HW150804   2.478   9.974   3.535
49655SOL    HW250805   2.526   9.944   3.675
49656SOL     OW50806   3.813  12.759  13.357
49656SOL    HW150807   3.899  12.796  13.333
49656SOL    HW250808   3.809  12.766  13.452
49657SOL     OW50809   6.945  12.822   5.171
49657SOL    HW150810   6.922  12.844   5.261
49657SOL    HW250811   6.989  12.737   5.178
49658SOL     OW50812   8.044   6.335   6.437
49658SOL    HW150813   8.125   6.381   6.461
49658SOL    HW250814   8.050   6.325   6.342
49659SOL     OW50815   1.421  13.552   5.370
49659SOL    HW150816   1.432  13.629   5.314
49659SOL    HW250817   1.478  13.486   5.332
49660SOL     OW50818  11.155  11.925   0.273
49660SOL    HW150819  11.233  11.977   0.292
49660SOL    HW250820  11.082  11.979   0.303
49661SOL     OW50821   8.135   6.417   5.035
49661SOL    HW150822   8.089   6.337   5.008
49661SOL    HW250823   8.203   6.429   4.969
49662SOL     OW50824  10.919   5.387   8.795
49662SOL    HW150825  10.872   5.305   8.777
49662SOL    HW250826  10.899   5.406   8.887
49663SOL     OW50827   5.401   8.034  11.603
49663SOL    HW150828   5.486   8.071  11.627
49663SOL    HW250829   5.389   8.060  11.511
49664SOL     OW50830  10.850   6.376   6.245
49664SOL    HW150831  10.763   6.382   6.204
49664SOL    HW250832  10.831   6.358   6.337
49665SOL     OW50833   7.167   2.738   3.584
49665SOL    HW150834   7.076   2.765   3.595
49665SOL    HW250835   7.217   2.819   3.595
49666SOL     OW50836  14.391  13.042   5.757
49666SOL    HW150837  14.453  13.113   5.772
49666SOL    HW250838  14.388  13.033   5.661
49667SOL     OW50839   0.052  14.073  13.556
49667SOL    HW150840   0.118  14.075  13.625
49667SOL    HW250841   0.039  14.165  13.533
49668SOL     OW50842   8.965   4.603   9.544
49668SOL    HW150843   8.916   4.684   9.525
49668SOL    HW250844   8.898   4.541   9.572
49669SOL     OW50845  12.944   5.759   8.977
49669SOL    HW150846  12.909   5.732   8.892
49669SOL    HW250847  13.015   5.698   8.995
49670SOL     OW50848  12.141   2.749  10.295
49670SOL    HW150849  12.122   2.678  10.356
49670SOL    HW250850  12.070   2.812  10.307
49671SOL     OW50851   5.741   2.390   1.146
49671SOL    HW150852   5.802   2.318   1.165
49671SOL    HW250853   5.732   2.436   1.230
49672SOL     OW50854  12.750   7.633  13.368
49672SOL    HW150855  12.742   7.725  13.343
49672SOL    HW250856  12.660   7.606  13.387
49673SOL     OW50857  13.139   1.180   0.528
49673SOL    HW150858  13.102   1.235   0.459
49673SOL    HW250859  13.230   1.208   0.535
49674SOL     OW50860   6.344   7.441   3.436
49674SOL    HW150861   6.420   7.498   3.447
49674SOL    HW250862   6.271   7.490   3.473
49675SOL     OW50863   1.219   6.422   9.243
49675SOL    HW150864   1.192   6.512   9.224
49675SOL    HW250865   1.271   6.429   9.323
49676SOL     OW50866   8.520   1.772   2.840
49676SOL    HW150867   8.443   1.803   2.887
49676SOL    HW250868   8.508   1.678   2.833
49677SOL     OW50869   3.970   5.702  13.153
49677SOL    HW150870   3.997   5.611  13.160
49677SOL    HW250871   3.882   5.699  13.116
49678SOL     OW50872  10.811   2.626  10.342
49678SOL    HW150873  10.731   2.577  10.325
49678SOL    HW250874  10.880   2.575  10.301
49679SOL     OW50875   2.962   8.924   1.162
49679SOL    HW150876   2.919   9.006   1.187
49679SOL    HW250877   2.944   8.864   1.234
49680SOL     OW50878  13.678  12.541   7.745
49680SOL    HW150879  13.600  12.514   7.793
49680SOL    HW250880  13.679  12.636   7.752
49681SOL     OW50881  11.871  11.790   1.105
49681SOL    HW150882  11.790  11.830   1.135
49681SOL    HW250883  11.843  11.719   1.047
49682SOL     OW50884  11.895   2.593   5.731
49682SOL    HW150885  11.820   2.649   5.712
49682SOL    HW250886  11.859   2.505   5.737
49683SOL     OW50887  12.583   9.046  13.786
49683SOL    HW150888  12.502   9.056  13.837
49683SOL    HW250889  12.644   9.109  13.825
49684SOL     OW50890   8.520  12.741  12.906
49684SOL    HW150891   8.545  12.833  12.919
49684SOL    HW250892   8.443  12.729  12.961
49685SOL     OW50893   9.586  12.291   4.298
49685SOL    HW150894   9.511  12.243   4.334
49685SOL    HW250895   9.639  12.314   4.374
49686SOL     OW50896   4.074   8.509   9.615
49686SOL    HW150897   4.126   8.571   9.667
49686SOL    HW250898   4.107   8.520   9.526
49687SOL     OW50899   1.663  12.809   9.556
49687SOL    HW150900   1.680  12.898   9.525
49687SOL    HW250901   1.571  12.810   9.584
49688SOL     OW50902  12.511   7.195   2.428
49688SOL    HW150903  12.500   7.259   2.498
49688SOL    HW250904  12.519   7.111   2.473
49689SOL     OW50905   9.250  14.097   5.438
49689SOL    HW150906   9.333  14.143   5.435
49689SOL    HW250907   9.184  14.166   5.441
49690SOL     OW50908  11.799   9.885   8.781
49690SOL    HW150909  11.754   9.970   8.777
49690SOL    HW250910  11.885   9.906   8.819
49691SOL     OW50911   6.060   2.292  11.577
49691SOL    HW150912   6.083   2.209  11.619
49691SOL    HW250913   5.967   2.285  11.559
49692SOL     OW50914  14.455   5.380  14.680
49692SOL    HW150915  14.365   5.406  14.702
49692SOL    HW250916  14.485   5.448  14.619
49693SOL     OW50917   2.341   1.705  14.003
49693SOL    HW150918   2.373   1.615  13.994
49693SOL    HW250919   2.288   1.703  14.082
49694SOL     OW50920   2.949  10.451   5.719
49694SOL    HW150921   2.912  10.524   5.669
49694SOL    HW250922   2.884  10.381   5.711
49695SOL     OW50923   4.121  14.348   6.604
49695SOL    HW150924   4.074  14.348   6.688
49695SOL    HW250925   4.065  14.399   6.546
49696SOL     OW50926   4.205  11.760  10.988
49696SOL    HW150927   4.170  11.687  10.937
49696SOL    HW250928   4.256  11.811  10.925
49697SOL     OW50929   8.191   6.374   1.252
49697SOL    HW150930   8.163   6.461   1.227
49697SOL    HW250931   8.238   6.340   1.176
49698SOL     OW50932  10.486   4.309   1.506
49698SOL    HW150933  10.573   4.274   1.524
49698SOL    HW250934  10.429   4.266   1.570
49699SOL     OW50935   8.960  14.822   8.285
49699SOL    HW150936   9.039  14.858   8.244
49699SOL    HW250937   8.972  14.727   8.280
49700SOL     OW50938   1.108   5.590  11.820
49700SOL    HW150939   1.117   5.674  11.774
49700SOL    HW250940   1.045   5.541  11.767
49701SOL     OW50941  13.214   2.551  13.619
49701SOL    HW150942  13.171   2.470  13.591
49701SOL    HW250943  13.242   2.534  13.708
49702SOL     OW50944   5.539   7.152  12.038
49702SOL    HW150945   5.559   7.245  12.034
49702SOL    HW250946   5.543   7.122  11.947
49703SOL     OW50947  12.204  12.139   7.644
49703SOL    HW150948  12.223  12.227   7.611
49703SOL    HW250949  12.139  12.154   7.713
49704SOL     OW50950  13.253  13.280  13.693
49704SOL    HW150951  13.158  13.272  13.680
49704SOL    HW250952  13.273  13.369  13.664
49705SOL     OW50953   7.563  14.807   7.153
49705SOL    HW150954   7.651  14.775   7.172
49705SOL    HW250955   7.553  14.796   7.058
49706SOL     OW50956  14.010   8.118   7.390
49706SOL    HW150957  13.922   8.145   7.414
49706SOL    HW250958  14.065   8.195   7.408
49707SOL     OW50959   4.121   5.704  13.410
49707SOL    HW150960   4.073   5.720  13.329
49707SOL    HW250961   4.111   5.610  13.427
49708SOL     OW50962   1.857   7.127   4.299
49708SOL    HW150963   1.815   7.075   4.230
49708SOL    HW250964   1.817   7.096   4.380
49709SOL     OW50965   7.907  10.988  10.317
49709SOL    HW150966   7.932  10.931  10.244
49709SOL    HW250967   7.871  10.928  10.383
49710SOL     OW50968  13.422  13.184   9.773
49710SOL    HW150969  13.440  13.277   9.761
49710SOL    HW250970  13.506  13.146   9.801
49711SOL     OW50971   8.185   4.772   3.622
49711SOL    HW150972   8.119   4.764   3.691
49711SOL    HW250973   8.268   4.778   3.669
49712SOL     OW50974   8.739  13.843   1.830
49712SOL    HW150975   8.762  13.933   1.807
49712SOL    HW250976   8.764  13.835   1.922
49713SOL     OW50977   7.278   0.337   0.839
49713SOL    HW150978   7.317   0.263   0.886
49713SOL    HW250979   7.265   0.305   0.750
49714SOL     OW50980   4.498  11.006   7.652
49714SOL    HW150981   4.542  11.018   7.568
49714SOL    HW250982   4.422  10.952   7.632
49715SOL     OW50983   2.498   2.188   8.365
49715SOL    HW150984   2.578   2.140   8.342
49715SOL    HW250985   2.473   2.231   8.283
49716SOL     OW50986   4.207   6.873   9.825
49716SOL    HW150987   4.265   6.908   9.758
49716SOL    HW250988   4.121   6.870   9.783
49717SOL     OW50989  11.711   7.487  12.805
49717SOL    HW150990  11.754   7.555  12.754
49717SOL    HW250991  11.710   7.520  12.895
49718SOL     OW50992   5.531   6.356   5.302
49718SOL    HW150993   5.456   6.339   5.359
49718SOL    HW250994   5.499   6.419   5.238
49719SOL     OW50995   9.804   3.544  11.167
49719SOL    HW150996   9.756   3.625  11.151
49719SOL    HW250997   9.844   3.523  11.082
49720SOL     OW50998   2.627  13.260  10.861
49720SOL    HW150999   2.544  13.307  10.859
49720SOL    HW251000   2.648  13.250  10.954
49721SOL     OW51001  12.328  13.775   5.323
49721SOL    HW151002  12.393  13.844   5.309
49721SOL    HW251003  12.297  13.788   5.412
49722SOL     OW51004   4.132   7.539  10.437
49722SOL    HW151005   4.164   7.628  10.426
49722SOL    HW251006   4.067   7.528  10.368
49723SOL     OW51007  10.354  12.037   7.182
49723SOL    HW151008  10.422  11.972   7.202
49723SOL    HW251009  10.294  11.991   7.124
49724SOL     OW51010  13.398  11.957   8.620
49724SOL    HW151011  13.444  11.892   8.567
49724SOL    HW251012  13.444  12.039   8.603
49725SOL     OW51013   0.076  14.041   3.361
49725SOL    HW151014   0.111  14.014   3.276
49725SOL    HW251015   0.149  14.030   3.422
49726SOL     OW51016   3.104  14.414   6.721
49726SOL    HW151017   3.135  14.403   6.811
49726SOL    HW251018   3.067  14.503   6.719
49727SOL     OW51019   1.722   0.147   7.979
49727SOL    HW151020   1.697   0.179   7.893
49727SOL    HW251021   1.744   0.227   8.028
49728SOL     OW51022  13.306  14.742  12.304
49728SOL    HW151023  13.260  14.701  12.230
49728SOL    HW251024  13.398  14.744  12.278
49729SOL     OW51025   7.430  11.020   0.065
49729SOL    HW151026   7.342  11.012   0.028
49729SOL    HW251027   7.467  11.097   0.021
49730SOL     OW51028  12.813   4.274   0.194
49730SOL    HW151029  12.888   4.317   0.152
49730SOL    HW251030  12.792   4.331   0.268
49731SOL     OW51031   8.710   4.177   0.501
49731SOL    HW151032   8.631   4.122   0.496
49731SOL    HW251033   8.779   4.116   0.528
49732SOL     OW51034   1.993   5.511  12.818
49732SOL    HW151035   1.915   5.566  12.814
49732SOL    HW251036   1.962   5.424  12.792
49733SOL     OW51037   4.600   7.190   6.813
49733SOL    HW151038   4.576   7.280   6.793
49733SOL    HW251039   4.673   7.170   6.755
49734SOL     OW51040  14.701   4.348   1.648
49734SOL    HW151041  14.650   4.288   1.594
49734SOL    HW251042  14.653   4.352   1.731
49735SOL     OW51043  13.266  13.106  14.354
49735SOL    HW151044  13.212  13.173  14.312
49735SOL    HW251045  13.205  13.037  14.378
49736SOL     OW51046   5.106   4.022   4.475
49736SOL    HW151047   5.076   4.003   4.564
49736SOL    HW251048   5.046   4.090   4.443
49737SOL     OW51049  12.342  11.249   4.187
49737SOL    HW151050  12.411  11.315   4.185
49737SOL    HW251051  12.384  11.170   4.155
49738SOL     OW51052   3.279   4.260   2.600
49738SOL    HW151053   3.244   4.222   2.520
49738SOL    HW251054   3.249   4.351   2.598
49739SOL     OW51055   7.603  14.092  14.494
49739SOL    HW151056   7.583  14.182  14.522
49739SOL    HW251057   7.658  14.057  14.564
49740SOL     OW51058   4.744  10.092   1.592
49740SOL    HW151059   4.741  10.182   1.625
49740SOL    HW251060   4.663  10.052   1.624
49741SOL     OW51061   6.860  13.220   3.344
49741SOL    HW151062   6.913  13.196   3.420
49741SOL    HW251063   6.823  13.305   3.366
49742SOL     OW51064   8.876  11.674   4.983
49742SOL    HW151065   8.855  11.583   5.005
49742SOL    HW251066   8.794  11.710   4.949
49743SOL     OW51067   2.411   4.708  12.916
49743SOL    HW151068   2.398   4.684  12.825
49743SOL    HW251069   2.448   4.796  12.913
49744SOL     OW51070   9.649   6.281   4.208
49744SOL    HW151071   9.693   6.210   4.255
49744SOL    HW251072   9.557   6.254   4.205
49745SOL     OW51073   2.994   6.754   0.645
49745SOL    HW151074   2.997   6.660   0.660
49745SOL    HW251075   2.964   6.764   0.555
49746SOL     OW51076   9.455  12.179  13.314
49746SOL    HW151077   9.523  12.127  13.271
49746SOL    HW251078   9.378  12.170  13.258
49747SOL     OW51079   3.658  11.493   0.491
49747SOL    HW151080   3.566  11.518   0.504
49747SOL    HW251081   3.654  11.400   0.468
49748SOL     OW51082  10.257   8.104  14.387
49748SOL    HW151083  10.327   8.169  14.380
49748SOL    HW251084  10.181   8.145  14.348
49749SOL     OW51085   1.973   9.870   7.188
49749SOL    HW151086   1.926   9.787   7.185
49749SOL    HW251087   2.064   9.848   7.168
49750SOL     OW51088   4.801  12.254   5.347
49750SOL    HW151089   4.780  12.342   5.376
49750SOL    HW251090   4.729  12.229   5.289
49751SOL     OW51091   7.602  11.527   4.717
49751SOL    HW151092   7.581  11.603   4.662
49751SOL    HW251093   7.599  11.453   4.657
49752SOL     OW51094   6.381  13.518   3.048
49752SOL    HW151095   6.351  13.475   2.968
49752SOL    HW251096   6.426  13.450   3.097
49753SOL     OW51097   9.274   1.449  13.434
49753SOL    HW151098   9.232   1.488  13.511
49753SOL    HW251099   9.291   1.358  13.460
49754SOL     OW51100   2.339  13.054   7.457
49754SOL    HW151101   2.319  13.147   7.453
49754SOL    HW251102   2.432  13.048   7.433
49755SOL     OW51103  13.328   7.208  12.546
49755SOL    HW151104  13.389   7.277  12.519
49755SOL    HW251105  13.364   7.177  12.630
49756SOL     OW51106   6.745   2.477   4.363
49756SOL    HW151107   6.791   2.523   4.433
49756SOL    HW251108   6.740   2.386   4.392
49757SOL     OW51109   1.090   5.533   6.906
49757SOL    HW151110   1.076   5.617   6.950
49757SOL    HW251111   1.019   5.477   6.938
49758SOL     OW51112   5.245  10.345   9.739
49758SOL    HW151113   5.201  10.407   9.681
49758SOL    HW251114   5.256  10.392   9.822
49759SOL     OW51115  14.290   8.599   0.850
49759SOL    HW151116  14.372   8.550   0.843
49759SOL    HW251117  14.315   8.682   0.890
49760SOL     OW51118   0.189   7.112   8.909
49760SOL    HW151119   0.217   7.182   8.852
49760SOL    HW251120   0.195   7.033   8.855
49761SOL     OW51121   1.781  12.448   3.566
49761SOL    HW151122   1.848  12.480   3.505
49761SOL    HW251123   1.746  12.370   3.525
49762SOL     OW51124   6.491   1.958  12.391
49762SOL    HW151125   6.474   1.886  12.452
49762SOL    HW251126   6.583   1.949  12.369
49763SOL     OW51127   9.616   2.172  11.259
49763SOL    HW151128   9.529   2.201  11.233
49763SOL    HW251129   9.617   2.180  11.354
49764SOL     OW51130  14.862  12.401   6.412
49764SOL    HW151131   0.005  12.488   6.379
49764SOL    HW251132   0.065  12.353   6.409
49765SOL     OW51133   4.996  10.351  11.936
49765SOL    HW151134   4.978  10.286  12.005
49765SOL    HW251135   4.921  10.411  11.940
49766SOL     OW51136  13.989  11.601   3.941
49766SOL    HW151137  13.929  11.539   3.983
49766SOL    HW251138  13.958  11.607   3.851
49767SOL     OW51139   2.185   4.584   3.326
49767SOL    HW151140   2.182   4.638   3.248
49767SOL    HW251141   2.168   4.495   3.295
49768SOL     OW51142  13.058  14.471  11.101
49768SOL    HW151143  13.051  14.507  11.013
49768SOL    HW251144  13.017  14.385  11.095
49769SOL     OW51145   7.091   8.400   5.940
49769SOL    HW151146   7.165   8.394   6.001
49769SOL    HW251147   7.021   8.351   5.982
49770SOL     OW51148   0.768  13.838   9.999
49770SOL    HW151149   0.816  13.818  10.080
49770SOL    HW251150   0.728  13.755   9.974
49771SOL     OW51151   0.090   0.502   8.577
49771SOL    HW151152   0.099   0.409   8.557
49771SOL    HW251153   0.082   0.505   8.673
49772SOL     OW51154  10.259   1.261  12.300
49772SOL    HW151155  10.217   1.207  12.234
49772SOL    HW251156  10.234   1.351  12.277
49773SOL     OW51157   1.144   1.896   5.350
49773SOL    HW151158   1.048   1.892   5.357
49773SOL    HW251159   1.174   1.895   5.441
49774SOL     OW51160  10.560   8.871   5.872
49774SOL    HW151161  10.556   8.793   5.928
49774SOL    HW251162  10.629   8.925   5.912
49775SOL     OW51163   5.519   6.385  12.395
49775SOL    HW151164   5.499   6.339  12.313
49775SOL    HW251165   5.599   6.434  12.376
49776SOL     OW51166  11.619   0.667   4.128
49776SOL    HW151167  11.693   0.686   4.186
49776SOL    HW251168  11.612   0.572   4.128
49777SOL     OW51169  13.983   0.404   5.652
49777SOL    HW151170  14.036   0.379   5.576
49777SOL    HW251171  14.006   0.339   5.719
49778SOL     OW51172   9.515  11.680  10.200
49778SOL    HW151173   9.440  11.626  10.174
49778SOL    HW251174   9.562  11.627  10.264
49779SOL     OW51175  11.963  13.636  14.303
49779SOL    HW151176  11.922  13.554  14.331
49779SOL    HW251177  11.943  13.642  14.209
49780SOL     OW51178   6.394   6.681   8.335
49780SOL    HW151179   6.364   6.674   8.245
49780SOL    HW251180   6.313   6.683   8.387
49781SOL     OW51181   9.898   1.503   0.679
49781SOL    HW151182   9.951   1.555   0.740
49781SOL    HW251183   9.811   1.543   0.684
49782SOL     OW51184  10.694   5.814  13.835
49782SOL    HW151185  10.746   5.752  13.886
49782SOL    HW251186  10.752   5.889  13.821
49783SOL     OW51187  12.722   3.606  10.517
49783SOL    HW151188  12.807   3.650  10.508
49783SOL    HW251189  12.701   3.577  10.429
49784SOL     OW51190   8.499  14.004   8.608
49784SOL    HW151191   8.406  13.981   8.595
49784SOL    HW251192   8.499  14.065   8.681
49785SOL     OW51193   9.966  10.516   0.054
49785SOL    HW151194  10.026  10.449   0.021
49785SOL    HW251195  10.010  10.550   0.132
49786SOL     OW51196   6.538   4.519   2.602
49786SOL    HW151197   6.546   4.611   2.577
49786SOL    HW251198   6.597   4.509   2.676
49787SOL     OW51199   8.722   6.295  12.219
49787SOL    HW151200   8.659   6.246  12.272
49787SOL    HW251201   8.703   6.269  12.129
49788SOL     OW51202  12.168   6.022   8.716
49788SOL    HW151203  12.076   6.050   8.713
49788SOL    HW251204  12.204   6.067   8.793
49789SOL     OW51205   6.721   5.402   5.777
49789SOL    HW151206   6.783   5.352   5.723
49789SOL    HW251207   6.734   5.367   5.865
49790SOL     OW51208   6.157  14.467   5.259
49790SOL    HW151209   6.195  14.550   5.229
49790SOL    HW251210   6.154  14.412   5.181
49791SOL     OW51211  12.185   9.619  12.558
49791SOL    HW151212  12.272   9.594  12.528
49791SOL    HW251213  12.189   9.612  12.654
49792SOL     OW51214  10.538   9.692   9.945
49792SOL    HW151215  10.448   9.723   9.928
49792SOL    HW251216  10.581   9.695   9.860
49793SOL     OW51217  13.804   5.494  10.036
49793SOL    HW151218  13.885   5.444  10.049
49793SOL    HW251219  13.738   5.428  10.012
49794SOL     OW51220   7.590  13.462  14.570
49794SOL    HW151221   7.501  13.476  14.537
49794SOL    HW251222   7.645  13.462  14.491
49795SOL     OW51223   5.961   1.429  12.842
49795SOL    HW151224   5.905   1.408  12.916
49795SOL    HW251225   5.949   1.523  12.827
49796SOL     OW51226   0.456   7.939  10.973
49796SOL    HW151227   0.441   7.851  11.006
49796SOL    HW251228   0.368   7.973  10.954
49797SOL     OW51229   1.011   4.179  14.231
49797SOL    HW151230   1.101   4.203  14.249
49797SOL    HW251231   0.983   4.239  14.161
49798SOL     OW51232   7.491   9.173   5.968
49798SOL    HW151233   7.467   9.266   5.966
49798SOL    HW251234   7.471   9.145   6.057
49799SOL     OW51235   8.836  13.773  11.209
49799SOL    HW151236   8.903  13.705  11.212
49799SOL    HW251237   8.763  13.733  11.163
49800SOL     OW51238  10.266  14.021  14.152
49800SOL    HW151239  10.185  14.071  14.162
49800SOL    HW251240  10.262  13.955  14.220
49801SOL     OW51241   9.739   6.456   7.145
49801SOL    HW151242   9.796   6.429   7.073
49801SOL    HW251243   9.749   6.551   7.149
49802SOL     OW51244   8.360  10.844   8.594
49802SOL    HW151245   8.387  10.762   8.636
49802SOL    HW251246   8.299  10.817   8.525
49803SOL     OW51247   8.194  11.761  12.365
49803SOL    HW151248   8.213  11.716  12.282
49803SOL    HW251249   8.245  11.712  12.430
49804SOL     OW51250   8.069   1.216   4.311
49804SOL    HW151251   7.998   1.279   4.321
49804SOL    HW251252   8.086   1.185   4.400
49805SOL     OW51253   7.566   6.162  11.775
49805SOL    HW151254   7.607   6.170  11.689
49805SOL    HW251255   7.632   6.120  11.829
49806SOL     OW51256  11.037   2.325  13.404
49806SOL    HW151257  11.112   2.332  13.345
49806SOL    HW251258  10.994   2.243  13.379
49807SOL     OW51259  14.183  14.720   3.656
49807SOL    HW151260  14.203  14.628   3.642
49807SOL    HW251261  14.215  14.740   3.744
49808SOL     OW51262  11.851   2.149   0.095
49808SOL    HW151263  11.904   2.226   0.114
49808SOL    HW251264  11.904   2.075   0.124
49809SOL     OW51265  13.178  12.211   8.310
49809SOL    HW151266  13.199  12.298   8.345
49809SOL    HW251267  13.133  12.167   8.382
49810SOL     OW51268   9.679   9.092   3.572
49810SOL    HW151269   9.649   9.056   3.655
49810SOL    HW251270   9.610   9.069   3.510
49811SOL     OW51271   3.565   4.644   0.268
49811SOL    HW151272   3.659   4.629   0.268
49811SOL    HW251273   3.549   4.696   0.189
49812SOL     OW51274  11.490   7.937  11.495
49812SOL    HW151275  11.459   8.026  11.511
49812SOL    HW251276  11.490   7.896  11.581
49813SOL     OW51277   9.874  14.381   0.154
49813SOL    HW151278   9.902  14.444   0.220
49813SOL    HW251279   9.850  14.303   0.204
49814SOL     OW51280   0.411  10.995   8.279
49814SOL    HW151281   0.378  11.070   8.329
49814SOL    HW251282   0.506  10.998   8.294
49815SOL     OW51283   1.904   9.271  10.995
49815SOL    HW151284   1.821   9.274  11.042
49815SOL    HW251285   1.883   9.301  10.907
49816SOL     OW51286   3.638   5.541  11.257
49816SOL    HW151287   3.667   5.556  11.347
49816SOL    HW251288   3.563   5.600  11.246
49817SOL     OW51289   7.809   3.873   7.702
49817SOL    HW151290   7.802   3.802   7.766
49817SOL    HW251291   7.801   3.953   7.754
49818SOL     OW51292  12.337   8.235   8.411
49818SOL    HW151293  12.333   8.289   8.332
49818SOL    HW251294  12.427   8.202   8.414
49819SOL     OW51295   8.792   4.916   5.790
49819SOL    HW151296   8.778   5.009   5.811
49819SOL    HW251297   8.723   4.895   5.726
49820SOL     OW51298   5.695   7.403   8.473
49820SOL    HW151299   5.762   7.346   8.509
49820SOL    HW251300   5.643   7.346   8.416
49821SOL     OW51301   9.018   2.429   5.858
49821SOL    HW151302   9.058   2.510   5.826
49821SOL    HW251303   8.960   2.457   5.929
49822SOL     OW51304   6.273   5.062   1.753
49822SOL    HW151305   6.205   5.128   1.740
49822SOL    HW251306   6.305   5.077   1.842
49823SOL     OW51307  14.369   7.588   4.721
49823SOL    HW151308  14.409   7.673   4.736
49823SOL    HW251309  14.282   7.595   4.760
49824SOL     OW51310   6.097  12.428   7.221
49824SOL    HW151311   6.066  12.358   7.164
49824SOL    HW251312   6.090  12.392   7.310
49825SOL     OW51313   9.427   6.596  11.044
49825SOL    HW151314   9.389   6.682  11.061
49825SOL    HW251315   9.475   6.575  11.124
49826SOL     OW51316  12.428  12.116  13.020
49826SOL    HW151317  12.434  12.142  13.112
49826SOL    HW251318  12.487  12.176  12.974
49827SOL     OW51319   7.895   6.599  12.091
49827SOL    HW151320   7.939   6.616  12.174
49827SOL    HW251321   7.964   6.562  12.035
49828SOL     OW51322   1.369   8.813   9.667
49828SOL    HW151323   1.448   8.853   9.704
49828SOL    HW251324   1.377   8.828   9.572
49829SOL     OW51325   4.767  10.688   4.183
49829SOL    HW151326   4.850  10.735   4.191
49829SOL    HW251327   4.767  10.628   4.258
49830SOL     OW51328  10.759  11.881   8.592
49830SOL    HW151329  10.791  11.969   8.569
49830SOL    HW251330  10.750  11.883   8.687
49831SOL     OW51331   7.264   6.086  12.897
49831SOL    HW151332   7.221   6.037  12.968
49831SOL    HW251333   7.320   6.149  12.942
49832SOL     OW51334   8.398  13.089  12.595
49832SOL    HW151335   8.355  13.085  12.680
49832SOL    HW251336   8.473  13.148  12.608
49833SOL     OW51337  11.461  13.414   3.361
49833SOL    HW151338  11.437  13.365   3.440
49833SOL    HW251339  11.412  13.496   3.368
49834SOL     OW51340  14.014  12.096   8.447
49834SOL    HW151341  13.964  12.076   8.526
49834SOL    HW251342  13.956  12.150   8.394
49835SOL     OW51343   0.740   2.044   8.400
49835SOL    HW151344   0.742   2.139   8.394
49835SOL    HW251345   0.720   2.014   8.312
49836SOL     OW51346  12.804  12.600   7.920
49836SOL    HW151347  12.775  12.655   7.993
49836SOL    HW251348  12.855  12.530   7.962
49837SOL     OW51349  11.216   2.147   4.740
49837SOL    HW151350  11.234   2.222   4.684
49837SOL    HW251351  11.271   2.077   4.706
49838SOL     OW51352   0.683   3.772   0.962
49838SOL    HW151353   0.699   3.702   0.899
49838SOL    HW251354   0.587   3.775   0.969
49839SOL     OW51355  11.799   4.640   1.279
49839SOL    HW151356  11.801   4.671   1.369
49839SOL    HW251357  11.789   4.545   1.286
49840SOL     OW51358   7.878  14.800   1.054
49840SOL    HW151359   7.891  14.726   0.994
49840SOL    HW251360   7.897  14.877   1.001
49841SOL     OW51361   6.463  13.812   2.756
49841SOL    HW151362   6.425  13.747   2.697
49841SOL    HW251363   6.395  13.825   2.823
49842SOL     OW51364   6.330  11.214  14.048
49842SOL    HW151365   6.363  11.214  13.959
49842SOL    HW251366   6.236  11.198  14.039
49843SOL     OW51367  10.637  14.555   6.779
49843SOL    HW151368  10.576  14.540   6.707
49843SOL    HW251369  10.582  14.560   6.857
49844SOL     OW51370   4.081   9.053  13.126
49844SOL    HW151371   4.173   9.080  13.122
49844SOL    HW251372   4.035   9.129  13.163
49845SOL     OW51373   0.925  12.864   1.911
49845SOL    HW151374   0.942  12.785   1.860
49845SOL    HW251375   0.835  12.888   1.890
49846SOL     OW51376   0.812   1.113   5.837
49846SOL    HW151377   0.788   1.078   5.922
49846SOL    HW251378   0.903   1.141   5.847
49847SOL     OW51379   2.571   3.062   8.696
49847SOL    HW151380   2.484   3.097   8.674
49847SOL    HW251381   2.610   3.130   8.751
49848SOL     OW51382   5.904  14.360  12.924
49848SOL    HW151383   5.842  14.296  12.890
49848SOL    HW251384   5.857  14.444  12.921
49849SOL     OW51385   4.035   5.941   5.789
49849SOL    HW151386   3.961   5.978   5.837
49849SOL    HW251387   4.058   6.007   5.724
49850SOL     OW51388   9.261   9.032  11.545
49850SOL    HW151389   9.309   8.952  11.566
49850SOL    HW251390   9.300   9.099  11.602
49851SOL     OW51391  12.396  10.286   1.147
49851SOL    HW151392  12.447  10.299   1.227
49851SOL    HW251393  12.375  10.375   1.117
49852SOL     OW51394  12.186   2.475   4.315
49852SOL    HW151395  12.095   2.470   4.286
49852SOL    HW251396  12.208   2.386   4.342
49853SOL     OW51397   2.779  10.667   0.331
49853SOL    HW151398   2.707  10.691   0.273
49853SOL    HW251399   2.761  10.576   0.354
49854SOL     OW51400   6.074  14.034   5.400
49854SOL    HW151401   6.147  13.972   5.388
49854SOL    HW251402   6.029  14.003   5.479
49855SOL     OW51403  12.173  13.815  14.213
49855SOL    HW151404  12.182  13.799  14.119
49855SOL    HW251405  12.094  13.767  14.238
49856SOL     OW51406   6.578   3.389   5.464
49856SOL    HW151407   6.614   3.424   5.383
49856SOL    HW251408   6.565   3.296   5.447
49857SOL     OW51409   0.365   4.286   9.921
49857SOL    HW151410   0.403   4.253  10.002
49857SOL    HW251411   0.344   4.378   9.940
49858SOL     OW51412   8.735  10.621   5.283
49858SOL    HW151413   8.823  10.659   5.290
49858SOL    HW251414   8.749  10.527   5.298
49859SOL     OW51415  12.750   7.174   3.761
49859SOL    HW151416  12.661   7.196   3.734
49859SOL    HW251417  12.745   7.083   3.790
49860SOL     OW51418   5.692  14.350   8.594
49860SOL    HW151419   5.603  14.314   8.601
49860SOL    HW251420   5.704  14.365   8.500
49861SOL     OW51421   6.680  12.960   7.580
49861SOL    HW151422   6.687  13.017   7.657
49861SOL    HW251423   6.751  12.897   7.591
49862SOL     OW51424   4.848   2.698   3.085
49862SOL    HW151425   4.771   2.686   3.029
49862SOL    HW251426   4.893   2.613   3.082
49863SOL     OW51427   9.375   8.451   2.118
49863SOL    HW151428   9.295   8.458   2.066
49863SOL    HW251429   9.369   8.365   2.159
49864SOL     OW51430   5.676   6.566  12.012
49864SOL    HW151431   5.678   6.639  12.073
49864SOL    HW251432   5.596   6.519  12.034
49865SOL     OW51433  14.523  10.535   0.042
49865SOL    HW151434  14.539  10.493  14.838
49865SOL    HW251435  14.575  10.615   0.039
49866SOL     OW51436   0.290  11.785   4.336
49866SOL    HW151437   0.218  11.847   4.345
49866SOL    HW251438   0.359  11.818   4.394
49867SOL     OW51439   7.349   5.033   5.207
49867SOL    HW151440   7.293   4.973   5.255
49867SOL    HW251441   7.367   5.105   5.268
49868SOL     OW51442   9.552   2.366  14.686
49868SOL    HW151443   9.477   2.380  14.744
49868SOL    HW251444   9.627   2.399  14.737
49869SOL     OW51445   2.561  14.021   4.100
49869SOL    HW151446   2.636  14.036   4.158
49869SOL    HW251447   2.553  14.103   4.050
49870SOL     OW51448  11.038  10.367  11.836
49870SOL    HW151449  11.078  10.448  11.866
49870SOL    HW251450  10.954  10.393  11.800
49871SOL     OW51451  10.691   7.460   7.906
49871SOL    HW151452  10.694   7.533   7.845
49871SOL    HW251453  10.600   7.431   7.903
49872SOL     OW51454   3.384   8.669   4.877
49872SOL    HW151455   3.443   8.608   4.922
49872SOL    HW251456   3.333   8.709   4.948
49873SOL     OW51457   3.928  14.039   2.910
49873SOL    HW151458   3.959  13.995   2.989
49873SOL    HW251459   3.986  14.115   2.902
49874SOL     OW51460  14.720  13.277   3.984
49874SOL    HW151461  14.775  13.228   3.923
49874SOL    HW251462  14.630  13.257   3.957
49875SOL     OW51463   7.356  11.562   2.675
49875SOL    HW151464   7.401  11.635   2.633
49875SOL    HW251465   7.336  11.594   2.763
49876SOL     OW51466   0.569  13.182   0.043
49876SOL    HW151467   0.530  13.213   0.125
49876SOL    HW251468   0.650  13.139   0.071
49877SOL     OW51469   3.046  14.827  10.748
49877SOL    HW151470   3.021  14.834  10.840
49877SOL    HW251471   3.113  14.760  10.746
49878SOL     OW51472  12.794  10.228   8.019
49878SOL    HW151473  12.725  10.293   8.008
49878SOL    HW251474  12.812  10.198   7.930
49879SOL     OW51475   2.193   7.160   2.184
49879SOL    HW151476   2.100   7.137   2.196
49879SOL    HW251477   2.239   7.076   2.193
49880SOL     OW51478  14.629  13.445  10.945
49880SOL    HW151479  14.602  13.476  10.859
49880SOL    HW251480  14.699  13.504  10.971
49881SOL     OW51481  11.178   9.713   4.142
49881SOL    HW151482  11.232   9.724   4.220
49881SOL    HW251483  11.191   9.621   4.117
49882SOL     OW51484  12.615  13.581   8.290
49882SOL    HW151485  12.696  13.610   8.248
49882SOL    HW251486  12.567  13.661   8.308
49883SOL     OW51487  12.430   8.778   0.079
49883SOL    HW151488  12.381   8.733   0.010
49883SOL    HW251489  12.399   8.737   0.160
49884SOL     OW51490   5.229  12.297  13.188
49884SOL    HW151491   5.291  12.329  13.123
49884SOL    HW251492   5.281  12.284  13.267
49885SOL     OW51493  12.416  13.684  13.983
49885SOL    HW151494  12.411  13.602  14.032
49885SOL    HW251495  12.481  13.736  14.030
49886SOL     OW51496  11.190  14.418  13.225
49886SOL    HW151497  11.160  14.414  13.134
49886SOL    HW251498  11.118  14.379  13.276
49887SOL     OW51499  14.634   2.208   3.899
49887SOL    HW151500  14.705   2.225   3.837
49887SOL    HW251501  14.563   2.173   3.845
49888SOL     OW51502  14.594   1.122   2.110
49888SOL    HW151503  14.550   1.202   2.137
49888SOL    HW251504  14.608   1.073   2.191
49889SOL     OW51505   5.314   2.918   9.379
49889SOL    HW151506   5.364   2.998   9.362
49889SOL    HW251507   5.296   2.921   9.473
49890SOL     OW51508  14.538   0.610   6.370
49890SOL    HW151509  14.563   0.645   6.284
49890SOL    HW251510  14.446   0.633   6.380
49891SOL     OW51511  13.784  14.301  11.995
49891SOL    HW151512  13.823  14.224  11.952
49891SOL    HW251513  13.790  14.370  11.930
49892SOL     OW51514  10.561  10.610   8.710
49892SOL    HW151515  10.581  10.528   8.665
49892SOL    HW251516  10.639  10.664   8.696
49893SOL     OW51517   0.324   7.976   5.138
49893SOL    HW151518   0.253   8.035   5.163
49893SOL    HW251519   0.324   7.978   5.042
49894SOL     OW51520   5.577   2.853   2.214
49894SOL    HW151521   5.516   2.864   2.141
49894SOL    HW251522   5.628   2.776   2.191
49895SOL     OW51523  14.207   2.873   1.995
49895SOL    HW151524  14.301   2.856   2.003
49895SOL    HW251525  14.197   2.917   1.911
49896SOL     OW51526   1.007   2.923   6.693
49896SOL    HW151527   1.001   2.915   6.598
49896SOL    HW251528   0.932   2.874   6.726
49897SOL     OW51529  11.851  13.313  10.655
49897SOL    HW151530  11.881  13.343  10.741
49897SOL    HW251531  11.900  13.233  10.639
49898SOL     OW51532  12.747   4.524   3.191
49898SOL    HW151533  12.673   4.524   3.131
49898SOL    HW251534  12.724   4.589   3.257
49899SOL     OW51535   9.153   8.425  13.367
49899SOL    HW151536   9.090   8.370  13.415
49899SOL    HW251537   9.160   8.383  13.281
49900SOL     OW51538  12.375  11.395   3.591
49900SOL    HW151539  12.384  11.376   3.497
49900SOL    HW251540  12.282  11.414   3.602
49901SOL     OW51541  11.263  12.204  10.333
49901SOL    HW151542  11.181  12.199  10.382
49901SOL    HW251543  11.287  12.297  10.336
49902SOL     OW51544  10.191  11.945  13.369
49902SOL    HW151545  10.181  11.894  13.450
49902SOL    HW251546  10.210  11.879  13.302
49903SOL     OW51547   4.088  11.971   7.826
49903SOL    HW151548   4.099  11.885   7.866
49903SOL    HW251549   4.149  12.027   7.873
49904SOL     OW51550   9.622  11.651  12.077
49904SOL    HW151551   9.629  11.556  12.086
49904SOL    HW251552   9.561  11.678  12.145
49905SOL     OW51553   2.763  11.940  12.072
49905SOL    HW151554   2.734  11.870  12.130
49905SOL    HW251555   2.720  12.018  12.105
49906SOL     OW51556  14.226  13.366   9.130
49906SOL    HW151557  14.317  13.360   9.101
49906SOL    HW251558  14.176  13.321   9.062
49907SOL     OW51559   9.795   4.566  14.804
49907SOL    HW151560   9.881   4.602  14.781
49907SOL    HW251561   9.767   4.519  14.725
49908SOL     OW51562   5.892  12.901  11.015
49908SOL    HW151563   5.920  12.960  10.945
49908SOL    HW251564   5.942  12.821  11.002
49909SOL     OW51565   9.073  11.595   0.135
49909SOL    HW151566   9.127  11.638   0.202
49909SOL    HW251567   9.078  11.502   0.157
49910SOL     OW51568   4.735   5.219   3.866
49910SOL    HW151569   4.765   5.306   3.891
49910SOL    HW251570   4.792   5.194   3.793
49911SOL     OW51571  11.975   7.923   0.775
49911SOL    HW151572  12.004   7.850   0.830
49911SOL    HW251573  12.030   7.997   0.801
49912SOL     OW51574   5.852   2.762   5.516
49912SOL    HW151575   5.787   2.807   5.461
49912SOL    HW251576   5.904   2.711   5.454
49913SOL     OW51577  10.809   3.442   4.161
49913SOL    HW151578  10.898   3.466   4.187
49913SOL    HW251579  10.763   3.526   4.152
49914SOL     OW51580  13.873   3.692   5.918
49914SOL    HW151581  13.938   3.622   5.916
49914SOL    HW251582  13.792   3.651   5.889
49915SOL     OW51583   8.293   5.637  13.544
49915SOL    HW151584   8.217   5.689  13.516
49915SOL    HW251585   8.269   5.604  13.630
49916SOL     OW51586  13.311   9.792   9.057
49916SOL    HW151587  13.387   9.843   9.085
49916SOL    HW251588  13.303   9.723   9.123
49917SOL     OW51589  14.831   6.091   0.872
49917SOL    HW151590  14.876   6.172   0.896
49917SOL    HW251591  14.835   6.089   0.776
49918SOL     OW51592  14.778   3.882   0.355
49918SOL    HW151593  14.716   3.947   0.388
49918SOL    HW251594  14.768   3.885   0.260
49919SOL     OW51595  12.674   1.285  10.327
49919SOL    HW151596  12.721   1.349  10.380
49919SOL    HW251597  12.723   1.282  10.245
49920SOL     OW51598   8.861   7.732  14.004
49920SOL    HW151599   8.837   7.662  14.065
49920SOL    HW251600   8.790   7.732  13.939
49921SOL     OW51601   6.662   1.751   6.536
49921SOL    HW151602   6.737   1.698   6.562
49921SOL    HW251603   6.644   1.724   6.446
49922SOL     OW51604   9.936   5.313   7.379
49922SOL    HW151605   9.913   5.317   7.286
49922SOL    HW251606  10.021   5.356   7.385
49923SOL     OW51607   2.257  14.400   7.637
49923SOL    HW151608   2.304  14.322   7.608
49923SOL    HW251609   2.280  14.409   7.729
49924SOL     OW51610  13.353  13.796  12.516
49924SOL    HW151611  13.392  13.829  12.435
49924SOL    HW251612  13.263  13.774  12.492
49925SOL     OW51613   1.681   3.727   3.948
49925SOL    HW151614   1.672   3.658   4.014
49925SOL    HW251615   1.736   3.793   3.990
49926SOL     OW51616  11.532   7.629   1.743
49926SOL    HW151617  11.517   7.658   1.833
49926SOL    HW251618  11.610   7.676   1.715
49927SOL     OW51619   3.858   2.222   2.642
49927SOL    HW151620   3.888   2.188   2.558
49927SOL    HW251621   3.768   2.190   2.650
49928SOL     OW51622  11.579   4.190   3.143
49928SOL    HW151623  11.523   4.147   3.207
49928SOL    HW251624  11.555   4.282   3.148
49929SOL     OW51625   7.484  12.773   9.879
49929SOL    HW151626   7.498  12.742   9.968
49929SOL    HW251627   7.557  12.833   9.862
49930SOL     OW51628   2.823   5.498   5.210
49930SOL    HW151629   2.858   5.455   5.132
49930SOL    HW251630   2.763   5.564   5.176
49931SOL     OW51631   2.525  11.273   9.454
49931SOL    HW151632   2.443  11.228   9.433
49931SOL    HW251633   2.585  11.249   9.383
49932SOL     OW51634   1.088   4.239   4.457
49932SOL    HW151635   1.106   4.205   4.369
49932SOL    HW251636   1.131   4.177   4.515
49933SOL     OW51637  11.743  14.284   0.920
49933SOL    HW151638  11.663  14.254   0.963
49933SOL    HW251639  11.813  14.245   0.972
49934SOL     OW51640  12.390   0.892   8.653
49934SOL    HW151641  12.372   0.811   8.701
49934SOL    HW251642  12.437   0.947   8.715
49935SOL     OW51643   4.003   0.491   5.870
49935SOL    HW151644   4.069   0.559   5.853
49935SOL    HW251645   3.973   0.465   5.783
49936SOL     OW51646  12.917   3.384   6.267
49936SOL    HW151647  12.958   3.430   6.193
49936SOL    HW251648  12.831   3.358   6.234
49937SOL     OW51649   2.970   4.989  12.529
49937SOL    HW151650   2.954   4.961  12.439
49937SOL    HW251651   2.957   4.910  12.581
49938SOL     OW51652  12.442  11.794  12.423
49938SOL    HW151653  12.391  11.860  12.375
49938SOL    HW251654  12.531  11.804  12.390
49939SOL     OW51655   3.407   3.103   3.107
49939SOL    HW151656   3.333   3.163   3.121
49939SOL    HW251657   3.366   3.019   3.085
49940SOL     OW51658   2.841   5.718   5.761
49940SOL    HW151659   2.782   5.682   5.828
49940SOL    HW251660   2.803   5.690   5.678
49941SOL     OW51661   7.671   4.064   9.357
49941SOL    HW151662   7.641   4.145   9.317
49941SOL    HW251663   7.683   4.004   9.283
49942SOL     OW51664   8.488   8.534   0.188
49942SOL    HW151665   8.483   8.626   0.162
49942SOL    HW251666   8.457   8.534   0.279
49943SOL     OW51667   0.380  12.887   5.649
49943SOL    HW151668   0.355  12.910   5.560
49943SOL    HW251669   0.333  12.950   5.704
49944SOL     OW51670  14.490  11.724   8.519
49944SOL    HW151671  14.563  11.774   8.483
49944SOL    HW251672  14.531  11.664   8.582
49945SOL     OW51673   3.999   0.849   7.589
49945SOL    HW151674   3.933   0.783   7.611
49945SOL    HW251675   3.990   0.862   7.495
49946SOL     OW51676  13.186   2.488   1.991
49946SOL    HW151677  13.127   2.562   2.008
49946SOL    HW251678  13.211   2.458   2.078
49947SOL     OW51679   3.732   5.233   8.183
49947SOL    HW151680   3.661   5.279   8.229
49947SOL    HW251681   3.811   5.253   8.234
49948SOL     OW51682  13.880   8.208   6.549
49948SOL    HW151683  13.960   8.248   6.516
49948SOL    HW251684  13.908   8.126   6.588
49949SOL     OW51685   9.712  10.309   6.256
49949SOL    HW151686   9.637  10.335   6.310
49949SOL    HW251687   9.693  10.347   6.170
49950SOL     OW51688   2.081   9.758   4.012
49950SOL    HW151689   2.102   9.835   4.065
49950SOL    HW251690   2.105   9.684   4.067
49951SOL     OW51691   0.713   6.396   4.797
49951SOL    HW151692   0.624   6.427   4.814
49951SOL    HW251693   0.735   6.432   4.711
49952SOL     OW51694   6.910   8.950   4.287
49952SOL    HW151695   7.002   8.952   4.261
49952SOL    HW251696   6.895   9.037   4.326
49953SOL     OW51697   3.311  12.069   7.117
49953SOL    HW151698   3.391  12.030   7.150
49953SOL    HW251699   3.263  12.097   7.195
49954SOL     OW51700  10.192   2.748   0.830
49954SOL    HW151701  10.226   2.749   0.920
49954SOL    HW251702  10.166   2.657   0.816
49955SOL     OW51703  14.152   6.871  12.386
49955SOL    HW151704  14.096   6.907  12.455
49955SOL    HW251705  14.171   6.946  12.329
49956SOL     OW51706   8.035   9.689   1.137
49956SOL    HW151707   8.094   9.623   1.172
49956SOL    HW251708   7.948   9.652   1.147
49957SOL     OW51709   6.189   6.878  12.791
49957SOL    HW151710   6.190   6.962  12.745
49957SOL    HW251711   6.248   6.891  12.866
49958SOL     OW51712   8.890   6.949  11.540
49958SOL    HW151713   8.822   6.895  11.500
49958SOL    HW251714   8.850   7.035  11.548
49959SOL     OW51715  11.552  11.436   5.811
49959SOL    HW151716  11.500  11.455   5.733
49959SOL    HW251717  11.642  11.454   5.786
49960SOL     OW51718  12.163   6.739   3.589
49960SOL    HW151719  12.135   6.801   3.521
49960SOL    HW251720  12.249   6.709   3.559
49961SOL     OW51721   8.497   5.615   5.444
49961SOL    HW151722   8.556   5.628   5.371
49961SOL    HW251723   8.495   5.700   5.489
49962SOL     OW51724  10.148  11.590   0.619
49962SOL    HW151725  10.166  11.507   0.576
49962SOL    HW251726  10.071  11.624   0.573
49963SOL     OW51727   5.103   0.851   9.641
49963SOL    HW151728   5.033   0.903   9.602
49963SOL    HW251729   5.119   0.892   9.726
49964SOL     OW51730   4.182   5.269   8.960
49964SOL    HW151731   4.129   5.199   8.922
49964SOL    HW251732   4.263   5.226   8.988
49965SOL     OW51733   2.156   7.183   2.844
49965SOL    HW151734   2.231   7.149   2.891
49965SOL    HW251735   2.133   7.116   2.781
49966SOL     OW51736  13.314  12.390   5.888
49966SOL    HW151737  13.334  12.400   5.981
49966SOL    HW251738  13.236  12.443   5.875
49967SOL     OW51739  12.128   0.898  13.633
49967SOL    HW151740  12.094   0.918  13.720
49967SOL    HW251741  12.073   0.950  13.573
49968SOL     OW51742   7.739  13.482   3.734
49968SOL    HW151743   7.778  13.481   3.822
49968SOL    HW251744   7.791  13.546   3.686
49969SOL     OW51745   5.261  13.500   4.104
49969SOL    HW151746   5.309  13.418   4.116
49969SOL    HW251747   5.291  13.533   4.019
49970SOL     OW51748  10.705   5.670   7.664
49970SOL    HW151749  10.757   5.665   7.584
49970SOL    HW251750  10.770   5.673   7.734
49971SOL     OW51751   5.121   0.441  12.479
49971SOL    HW151752   5.126   0.459  12.573
49971SOL    HW251753   5.030   0.419  12.464
49972SOL     OW51754  11.773  11.636   4.169
49972SOL    HW151755  11.762  11.603   4.258
49972SOL    HW251756  11.686  11.630   4.130
49973SOL     OW51757   3.717   2.585  12.658
49973SOL    HW151758   3.711   2.601  12.564
49973SOL    HW251759   3.810   2.593  12.678
49974SOL     OW51760   9.407   0.598   0.978
49974SOL    HW151761   9.427   0.506   0.993
49974SOL    HW251762   9.322   0.596   0.933
49975SOL     OW51763   8.002   8.552  11.562
49975SOL    HW151764   8.071   8.573  11.499
49975SOL    HW251765   7.922   8.584  11.520
49976SOL     OW51766   0.644   9.974   1.570
49976SOL    HW151767   0.662  10.057   1.615
49976SOL    HW251768   0.551   9.959   1.584
49977SOL     OW51769   9.715   8.343  14.760
49977SOL    HW151770   9.688   8.252  14.771
49977SOL    HW251771   9.722   8.356  14.666
49978SOL     OW51772   3.245   1.738   0.041
49978SOL    HW151773   3.275   1.711  14.834
49978SOL    HW251774   3.319   1.723   0.099
49979SOL     OW51775   8.163   9.058   3.071
49979SOL    HW151776   8.203   9.106   3.143
49979SOL    HW251777   8.237   9.030   3.017
49980SOL     OW51778  14.615   7.262   0.427
49980SOL    HW151779  14.687   7.271   0.489
49980SOL    HW251780  14.631   7.178   0.384
49981SOL     OW51781   8.697   5.190   2.651
49981SOL    HW151782   8.761   5.202   2.581
49981SOL    HW251783   8.679   5.096   2.651
49982SOL     OW51784  11.044   7.123   9.823
49982SOL    HW151785  11.074   7.041   9.863
49982SOL    HW251786  11.125   7.171   9.807
49983SOL     OW51787   2.211   1.947   6.889
49983SOL    HW151788   2.198   1.852   6.888
49983SOL    HW251789   2.132   1.982   6.848
49984SOL     OW51790  14.228   8.733   1.531
49984SOL    HW151791  14.147   8.779   1.513
49984SOL    HW251792  14.297   8.799   1.521
49985SOL     OW51793   3.458  13.202   6.026
49985SOL    HW151794   3.521  13.137   6.056
49985SOL    HW251795   3.485  13.222   5.936
49986SOL     OW51796  12.672  14.506   1.018
49986SOL    HW151797  12.727  14.583   1.005
49986SOL    HW251798  12.721  14.452   1.081
49987SOL     OW51799   1.220  11.388   8.795
49987SOL    HW151800   1.167  11.467   8.800
49987SOL    HW251801   1.310  11.418   8.808
49988SOL     OW51802   5.474   7.692   4.291
49988SOL    HW151803   5.543   7.756   4.312
49988SOL    HW251804   5.490   7.668   4.200
49989SOL     OW51805  11.517   7.789  14.393
49989SOL    HW151806  11.544   7.856  14.456
49989SOL    HW251807  11.497   7.712  14.447
49990SOL     OW51808   0.800   3.366   2.881
49990SOL    HW151809   0.804   3.286   2.933
49990SOL    HW251810   0.774   3.337   2.794
49991SOL     OW51811  12.208  11.323   9.211
49991SOL    HW151812  12.231  11.232   9.192
49991SOL    HW251813  12.270  11.375   9.160
49992SOL     OW51814  11.196   2.402  13.183
49992SOL    HW151815  11.221   2.312  13.161
49992SOL    HW251816  11.127   2.425  13.121
49993SOL     OW51817  10.592   5.015  12.569
49993SOL    HW151818  10.569   5.035  12.659
49993SOL    HW251819  10.688   5.016  12.567
49994SOL     OW51820   6.026   2.976  13.423
49994SOL    HW151821   5.968   2.979  13.499
49994SOL    HW251822   6.066   3.063  13.420
49995SOL     OW51823   3.159  10.536  13.871
49995SOL    HW151824   3.169  10.613  13.927
49995SOL    HW251825   3.175  10.567  13.782
49996SOL     OW51826   3.641   7.692   7.835
49996SOL    HW151827   3.670   7.604   7.858
49996SOL    HW251828   3.559   7.703   7.882
49997SOL     OW51829   5.235   4.344   5.212
49997SOL    HW151830   5.304   4.410   5.201
49997SOL    HW251831   5.185   4.348   5.130
49998SOL     OW51832   3.544   7.192   2.813
49998SOL    HW151833   3.531   7.210   2.720
49998SOL    HW251834   3.629   7.232   2.834
49999SOL     OW51835   8.660   4.650   1.778
49999SOL    HW151836   8.583   4.595   1.793
49999SOL    HW251837   8.713   4.600   1.715
50000SOL     OW51838   2.592   1.125  12.503
50000SOL    HW151839   2.670   1.094  12.549
50000SOL    HW251840   2.586   1.070  12.425
50001SOL     OW51841  13.014  13.355   2.722
50001SOL    HW151842  13.031  13.263   2.701
50001SOL    HW251843  13.056  13.367   2.808
50002SOL     OW51844  10.653   5.633  14.184
50002SOL    HW151845  10.672   5.718  14.223
50002SOL    HW251846  10.739   5.599  14.157
50003SOL     OW51847   1.706   3.160   6.041
50003SOL    HW151848   1.788   3.144   6.088
50003SOL    HW251849   1.679   3.247   6.068
50004SOL     OW51850  11.811   4.872   5.187
50004SOL    HW151851  11.899   4.848   5.157
50004SOL    HW251852  11.783   4.798   5.241
50005SOL     OW51853   3.919   3.017  14.448
50005SOL    HW151854   3.849   3.038  14.386
50005SOL    HW251855   3.896   3.067  14.527
50006SOL     OW51856   9.840  11.762  10.209
50006SOL    HW151857   9.747  11.787  10.207
50006SOL    HW251858   9.839  11.668  10.191
50007SOL     OW51859   3.003  14.170  11.923
50007SOL    HW151860   3.066  14.221  11.873
50007SOL    HW251861   2.955  14.234  11.975
50008SOL     OW51862   3.488   4.676   6.620
50008SOL    HW151863   3.394   4.690   6.608
50008SOL    HW251864   3.513   4.621   6.545
50009SOL     OW51865   3.356  11.756   0.785
50009SOL    HW151866   3.392  11.703   0.857
50009SOL    HW251867   3.373  11.846   0.812
50010SOL     OW51868  11.870   6.451   9.200
50010SOL    HW151869  11.956   6.494   9.201
50010SOL    HW251870  11.867   6.402   9.282
50011SOL     OW51871   2.610   2.691   8.583
50011SOL    HW151872   2.516   2.687   8.600
50011SOL    HW251873   2.619   2.757   8.514
50012SOL     OW51874   7.571   9.589  11.843
50012SOL    HW151875   7.506   9.614  11.909
50012SOL    HW251876   7.608   9.672  11.815
50013SOL     OW51877   5.513  12.787   9.319
50013SOL    HW151878   5.441  12.730   9.295
50013SOL    HW251879   5.577  12.776   9.249
50014SOL     OW51880   8.733   0.838  10.410
50014SOL    HW151881   8.771   0.762  10.455
50014SOL    HW251882   8.772   0.914  10.453
50015SOL     OW51883   8.700   6.029   7.862
50015SOL    HW151884   8.793   6.012   7.850
50015SOL    HW251885   8.697   6.112   7.910
50016SOL     OW51886   4.964   2.683   8.612
50016SOL    HW151887   4.899   2.663   8.679
50016SOL    HW251888   4.921   2.743   8.552
50017SOL     OW51889   8.521   3.064  10.638
50017SOL    HW151890   8.598   3.094  10.687
50017SOL    HW251891   8.469   3.142  10.624
50018SOL     OW51892   0.706   7.825  10.516
50018SOL    HW151893   0.742   7.911  10.493
50018SOL    HW251894   0.640   7.844  10.582
50019SOL     OW51895  14.778   6.943   4.643
50019SOL    HW151896  14.803   6.871   4.701
50019SOL    HW251897  14.859   6.968   4.599
50020SOL     OW51898   9.399  10.957   3.264
50020SOL    HW151899   9.326  11.018   3.258
50020SOL    HW251900   9.435  10.972   3.352
50021SOL     OW51901   9.423   4.813  12.418
50021SOL    HW151902   9.453   4.752  12.351
50021SOL    HW251903   9.439   4.767  12.501
50022SOL     OW51904   3.224   8.060  11.211
50022SOL    HW151905   3.178   8.009  11.145
50022SOL    HW251906   3.316   8.052  11.189
50023SOL     OW51907  12.860   1.455   7.871
50023SOL    HW151908  12.915   1.427   7.944
50023SOL    HW251909  12.796   1.514   7.910
50024SOL     OW51910   6.717  11.231   1.293
50024SOL    HW151911   6.704  11.320   1.328
50024SOL    HW251912   6.798  11.201   1.334
50025SOL     OW51913   6.402   7.130   7.500
50025SOL    HW151914   6.317   7.170   7.486
50025SOL    HW251915   6.461   7.176   7.440
50026SOL     OW51916   1.395  11.878   8.062
50026SOL    HW151917   1.338  11.943   8.021
50026SOL    HW251918   1.335  11.817   8.106
50027SOL     OW51919  10.791   4.603   7.837
50027SOL    HW151920  10.864   4.567   7.887
50027SOL    HW251921  10.831   4.668   7.779
50028SOL     OW51922  10.201   8.164   6.370
50028SOL    HW151923  10.241   8.116   6.442
50028SOL    HW251924  10.116   8.193   6.405
50029SOL     OW51925  12.586   8.065   4.585
50029SOL    HW151926  12.593   8.135   4.651
50029SOL    HW251927  12.508   8.016   4.611
50030SOL     OW51928  11.853   3.760  12.051
50030SOL    HW151929  11.926   3.703  12.026
50030SOL    HW251930  11.851   3.827  11.982
50031SOL     OW51931   5.487  11.609  14.188
50031SOL    HW151932   5.469  11.611  14.094
50031SOL    HW251933   5.513  11.698  14.210
50032SOL     OW51934   1.714  11.414   8.834
50032SOL    HW151935   1.784  11.427   8.899
50032SOL    HW251936   1.755  11.436   8.751
50033SOL     OW51937  11.408   8.809  10.821
50033SOL    HW151938  11.327   8.860  10.824
50033SOL    HW251939  11.428   8.791  10.913
50034SOL     OW51940   3.859  13.076   2.797
50034SOL    HW151941   3.946  13.078   2.759
50034SOL    HW251942   3.813  13.149   2.755
50035SOL     OW51943  10.750   0.102  14.847
50035SOL    HW151944  10.666   0.125   0.007
50035SOL    HW251945  10.796   0.186  14.838
50036SOL     OW51946   6.164  10.259   5.862
50036SOL    HW151947   6.175  10.165   5.848
50036SOL    HW251948   6.141  10.267   5.955
50037SOL     OW51949  10.853   6.100  13.083
50037SOL    HW151950  10.829   6.060  12.999
50037SOL    HW251951  10.790   6.066  13.145
50038SOL     OW51952   0.103   8.189   5.964
50038SOL    HW151953   0.012   8.169   5.943
50038SOL    HW251954   0.098   8.237   6.047
50039SOL     OW51955   3.005   2.848  13.747
50039SOL    HW151956   2.914   2.820  13.732
50039SOL    HW251957   3.040   2.782  13.807
50040SOL     OW51958   1.712   7.263  11.281
50040SOL    HW151959   1.719   7.170  11.257
50040SOL    HW251960   1.680   7.261  11.372
50041SOL     OW51961   5.780  13.000   1.467
50041SOL    HW151962   5.706  12.997   1.405
50041SOL    HW251963   5.855  12.973   1.415
50042SOL     OW51964   2.492   2.301  10.224
50042SOL    HW151965   2.463   2.393  10.232
50042SOL    HW251966   2.520   2.293  10.133
50043SOL     OW51967   9.499   8.225   7.175
50043SOL    HW151968   9.421   8.175   7.150
50043SOL    HW251969   9.557   8.159   7.215
50044SOL     OW51970   0.831   5.027   8.837
50044SOL    HW151971   0.913   5.046   8.883
50044SOL    HW251972   0.821   4.932   8.845
50045SOL     OW51973   9.579   9.836   0.539
50045SOL    HW151974   9.658   9.814   0.588
50045SOL    HW251975   9.581   9.932   0.530
50046SOL     OW51976  13.010  10.457   8.325
50046SOL    HW151977  13.026  10.433   8.233
50046SOL    HW251978  12.938  10.401   8.352
50047SOL     OW51979   1.617   3.365   1.357
50047SOL    HW151980   1.600   3.400   1.444
50047SOL    HW251981   1.530   3.347   1.321
50048SOL     OW51982  13.504   7.011   7.000
50048SOL    HW151983  13.516   6.988   7.092
50048SOL    HW251984  13.439   7.081   7.000
50049SOL     OW51985   4.582   7.133  13.564
50049SOL    HW151986   4.671   7.108  13.585
50049SOL    HW251987   4.527   7.071  13.612
50050SOL     OW51988   4.692   9.503  12.280
50050SOL    HW151989   4.662   9.591  12.259
50050SOL    HW251990   4.702   9.503  12.375
50051SOL     OW51991  11.373  11.826   9.592
50051SOL    HW151992  11.346  11.748   9.542
50051SOL    HW251993  11.294  11.880   9.595
50052SOL     OW51994   5.038  10.686   7.536
50052SOL    HW151995   5.094  10.680   7.458
50052SOL    HW251996   4.953  10.653   7.507
50053SOL     OW51997  12.679  14.460   6.895
50053SOL    HW151998  12.629  14.538   6.921
50053SOL    HW251999  12.619  14.387   6.911
50054SOL     OW52000   1.529   5.189   4.637
50054SOL    HW152001   1.546   5.272   4.682
50054SOL    HW252002   1.593   5.187   4.566
50055SOL     OW52003  13.790  11.675   4.766
50055SOL    HW152004  13.814  11.621   4.841
50055SOL    HW252005  13.865  11.670   4.707
50056SOL     OW52006   9.475  11.267  10.693
50056SOL    HW152007   9.384  11.283  10.719
50056SOL    HW252008   9.497  11.182  10.731
50057SOL     OW52009   7.601   6.204   9.161
50057SOL    HW152010   7.541   6.252   9.219
50057SOL    HW252011   7.642   6.272   9.108
50058SOL     OW52012   8.369   9.469   0.229
50058SOL    HW152013   8.295   9.509   0.275
50058SOL    HW252014   8.436   9.458   0.297
50059SOL     OW52015   7.776   6.826  14.739
50059SOL    HW152016   7.714   6.895  14.712
50059SOL    HW252017   7.829   6.867  14.806
50060SOL     OW52018   6.537  14.177   4.034
50060SOL    HW152019   6.507  14.235   3.964
50060SOL    HW252020   6.620  14.142   4.003
50061SOL     OW52021   5.193   5.141   9.164
50061SOL    HW152022   5.240   5.059   9.149
50061SOL    HW252023   5.188   5.148   9.259
50062SOL     OW52024   8.037   5.062   6.607
50062SOL    HW152025   7.996   5.033   6.526
50062SOL    HW252026   8.001   5.004   6.674
50063SOL     OW52027   4.575   9.895   8.224
50063SOL    HW152028   4.638   9.855   8.164
50063SOL    HW252029   4.491   9.855   8.202
50064SOL     OW52030   8.275   5.270  12.779
50064SOL    HW152031   8.298   5.325  12.854
50064SOL    HW252032   8.180   5.278  12.771
50065SOL     OW52033   0.751   5.894  10.301
50065SOL    HW152034   0.799   5.959  10.351
50065SOL    HW252035   0.816   5.857  10.241
50066SOL     OW52036   9.419   0.110   9.850
50066SOL    HW152037   9.376   0.153   9.775
50066SOL    HW252038   9.376   0.025   9.856
50067SOL     OW52039   1.234   2.254   2.548
50067SOL    HW152040   1.179   2.265   2.471
50067SOL    HW252041   1.173   2.253   2.621
50068SOL     OW52042  14.243   1.518   3.307
50068SOL    HW152043  14.193   1.452   3.355
50068SOL    HW252044  14.212   1.601   3.342
50069SOL     OW52045   2.690  11.067  10.045
50069SOL    HW152046   2.595  11.063  10.033
50069SOL    HW252047   2.726  11.067   9.956
50070SOL     OW52048   9.305   8.971   6.722
50070SOL    HW152049   9.301   8.883   6.684
50070SOL    HW252050   9.362   9.019   6.662
50071SOL     OW52051  13.862  12.723  14.032
50071SOL    HW152052  13.923  12.783  13.990
50071SOL    HW252053  13.778  12.769  14.029
50072SOL     OW52054  13.122   6.340  12.488
50072SOL    HW152055  13.079   6.418  12.454
50072SOL    HW252056  13.161   6.299  12.411
50073SOL     OW52057   1.194   4.354   7.466
50073SOL    HW152058   1.104   4.353   7.435
50073SOL    HW252059   1.233   4.274   7.430
50074SOL     OW52060   7.437   4.976   1.965
50074SOL    HW152061   7.381   4.941   1.896
50074SOL    HW252062   7.459   5.064   1.935
50075SOL     OW52063   1.768   9.097  13.383
50075SOL    HW152064   1.860   9.072  13.379
50075SOL    HW252065   1.722   9.017  13.409
50076SOL     OW52066   7.887  12.708   0.179
50076SOL    HW152067   7.967  12.661   0.154
50076SOL    HW252068   7.826  12.639   0.206
50077SOL     OW52069   8.395   8.178   1.422
50077SOL    HW152070   8.488   8.201   1.426
50077SOL    HW252071   8.370   8.162   1.513
50078SOL     OW52072   0.372   7.596   2.732
50078SOL    HW152073   0.334   7.676   2.769
50078SOL    HW252074   0.306   7.564   2.671
50079SOL     OW52075   1.713   3.471   9.640
50079SOL    HW152076   1.690   3.378   9.632
50079SOL    HW252077   1.686   3.494   9.729
50080SOL     OW52078  14.174   5.808   5.699
50080SOL    HW152079  14.104   5.799   5.635
50080SOL    HW252080  14.152   5.888   5.748
50081SOL     OW52081  10.821   7.795  12.317
50081SOL    HW152082  10.854   7.879  12.287
50081SOL    HW252083  10.727   7.798  12.301
50082SOL     OW52084   9.903   8.296   8.328
50082SOL    HW152085   9.998   8.299   8.315
50082SOL    HW252086   9.892   8.255   8.414
50083SOL     OW52087   4.147   2.749   8.827
50083SOL    HW152088   4.133   2.777   8.736
50083SOL    HW252089   4.059   2.750   8.866
50084SOL     OW52090  12.016   8.002  14.746
50084SOL    HW152091  12.106   7.976  14.767
50084SOL    HW252092  11.964   7.972  14.820
50085SOL     OW52093  14.275  10.306  10.665
50085SOL    HW152094  14.182  10.286  10.673
50085SOL    HW252095  14.296  10.356  10.743
50086SOL     OW52096   8.530   0.354   5.182
50086SOL    HW152097   8.489   0.378   5.099
50086SOL    HW252098   8.461   0.363   5.247
50087SOL     OW52099   2.656   6.200  14.276
50087SOL    HW152100   2.615   6.269  14.224
50087SOL    HW252101   2.740   6.237  14.304
50088SOL     OW52102   6.872  12.736   1.908
50088SOL    HW152103   6.941  12.797   1.880
50088SOL    HW252104   6.875  12.666   1.843
50089SOL     OW52105   1.994  10.518   5.530
50089SOL    HW152106   1.983  10.426   5.504
50089SOL    HW252107   2.015  10.563   5.448
50090SOL     OW52108   4.765  13.447  14.610
50090SOL    HW152109   4.671  13.460  14.596
50090SOL    HW252110   4.799  13.535  14.624
50091SOL     OW52111  12.272   9.843   4.031
50091SOL    HW152112  12.320   9.822   4.112
50091SOL    HW252113  12.281   9.764   3.977
50092SOL     OW52114  14.455   9.092  14.807
50092SOL    HW152115  14.498   9.144  14.739
50092SOL    HW252116  14.402   9.028  14.760
50093SOL     OW52117  14.818  13.846   4.987
50093SOL    HW152118  14.812  13.795   5.067
50093SOL    HW252119  14.845  13.784   4.920
50094SOL     OW52120  10.133  14.868   8.474
50094SOL    HW152121  10.140  14.795   8.413
50094SOL    HW252122  10.141   0.067   8.420
50095SOL     OW52123   4.727   9.245   3.278
50095SOL    HW152124   4.694   9.161   3.245
50095SOL    HW252125   4.745   9.296   3.199
50096SOL     OW52126  12.081   7.427   6.597
50096SOL    HW152127  12.075   7.353   6.536
50096SOL    HW252128  12.046   7.393   6.679
50097SOL     OW52129  13.664   2.059   9.241
50097SOL    HW152130  13.735   2.052   9.305
50097SOL    HW252131  13.675   1.983   9.184
50098SOL     OW52132   8.288  14.383   6.067
50098SOL    HW152133   8.373  14.428   6.058
50098SOL    HW252134   8.276  14.375   6.162
50099SOL     OW52135   6.990  10.718   2.630
50099SOL    HW152136   6.902  10.752   2.649
50099SOL    HW252137   7.048  10.772   2.683
50100SOL     OW52138   8.214   3.866  10.651
50100SOL    HW152139   8.256   3.905  10.728
50100SOL    HW252140   8.123   3.852  10.679
50101SOL     OW52141   9.526   3.162   0.698
50101SOL    HW152142   9.595   3.199   0.642
50101SOL    HW252143   9.565   3.160   0.785
50102SOL     OW52144   2.718   5.005  13.396
50102SOL    HW152145   2.684   4.964  13.475
50102SOL    HW252146   2.813   4.998  13.405
50103SOL     OW52147   0.007   4.571  11.154
50103SOL    HW152148  14.863   4.542  11.066
50103SOL    HW252149  14.840   4.654  11.165
50104SOL     OW52150  14.116   3.972   0.270
50104SOL    HW152151  14.032   3.927   0.261
50104SOL    HW252152  14.097   4.063   0.249
50105SOL     OW52153  12.865   6.531  11.838
50105SOL    HW152154  12.784   6.582  11.840
50105SOL    HW252155  12.842   6.451  11.791
50106SOL     OW52156   5.105   5.731   1.525
50106SOL    HW152157   5.167   5.664   1.499
50106SOL    HW252158   5.159   5.802   1.560
50107SOL     OW52159   7.663  12.968   9.829
50107SOL    HW152160   7.698  13.057   9.837
50107SOL    HW252161   7.671  12.948   9.735
50108SOL     OW52162  10.087   0.568  10.651
50108SOL    HW152163  10.008   0.553  10.703
50108SOL    HW252164  10.156   0.579  10.717
50109SOL     OW52165   3.561   6.952   8.865
50109SOL    HW152166   3.568   7.004   8.945
50109SOL    HW252167   3.640   6.899   8.863
50110SOL     OW52168   0.886   3.123  12.023
50110SOL    HW152169   0.857   3.187  11.959
50110SOL    HW252170   0.854   3.039  11.990
50111SOL     OW52171   7.667   3.690  12.046
50111SOL    HW152172   7.752   3.723  12.074
50111SOL    HW252173   7.680   3.667  11.954
50112SOL     OW52174   5.722   6.282   2.482
50112SOL    HW152175   5.750   6.359   2.532
50112SOL    HW252176   5.739   6.208   2.541
50113SOL     OW52177  13.809  13.453   6.832
50113SOL    HW152178  13.861  13.375   6.811
50113SOL    HW252179  13.866  13.507   6.887
50114SOL     OW52180   7.579  10.735   1.331
50114SOL    HW152181   7.630  10.777   1.399
50114SOL    HW252182   7.620  10.649   1.320
50115SOL     OW52183   6.571   4.322   7.950
50115SOL    HW152184   6.485   4.364   7.955
50115SOL    HW252185   6.601   4.340   7.861
50116SOL     OW52186  12.498  14.640   7.011
50116SOL    HW152187  12.452  14.557   7.012
50116SOL    HW252188  12.440  14.701   7.056
50117SOL     OW52189   6.541   0.861   5.435
50117SOL    HW152190   6.628   0.841   5.469
50117SOL    HW252191   6.485   0.861   5.513
50118SOL     OW52192  10.451   6.276  10.191
50118SOL    HW152193  10.520   6.341  10.203
50118SOL    HW252194  10.386   6.319  10.135
50119SOL     OW52195  13.019  11.635  10.814
50119SOL    HW152196  13.022  11.617  10.720
50119SOL    HW252197  13.108  11.620  10.844
50120SOL     OW52198  10.756  12.441   6.318
50120SOL    HW152199  10.838  12.441   6.267
50120SOL    HW252200  10.742  12.350   6.341
50121SOL     OW52201  11.408   2.969  14.307
50121SOL    HW152202  11.336   2.992  14.248
50121SOL    HW252203  11.365   2.953  14.391
50122SOL     OW52204  13.905  12.518  13.697
50122SOL    HW152205  13.961  12.587  13.731
50122SOL    HW252206  13.944  12.494  13.613
50123SOL     OW52207   4.975   7.443   0.774
50123SOL    HW152208   5.069   7.443   0.756
50123SOL    HW252209   4.958   7.357   0.813
50124SOL     OW52210   8.310   7.412   1.200
50124SOL    HW152211   8.384   7.397   1.142
50124SOL    HW252212   8.331   7.493   1.246
50125SOL     OW52213  10.879  10.265   2.062
50125SOL    HW152214  10.794  10.293   2.028
50125SOL    HW252215  10.922  10.347   2.088
50126SOL     OW52216   6.143  10.263   0.326
50126SOL    HW152217   6.055  10.225   0.317
50126SOL    HW252218   6.197  10.213   0.265
50127SOL     OW52219   1.607   0.131   9.555
50127SOL    HW152220   1.648   0.055   9.595
50127SOL    HW252221   1.520   0.101   9.530
50128SOL     OW52222  11.762   5.455   4.748
50128SOL    HW152223  11.672   5.461   4.779
50128SOL    HW252224  11.809   5.522   4.797
50129SOL     OW52225   1.646   1.073  10.006
50129SOL    HW152226   1.717   1.083  10.070
50129SOL    HW252227   1.588   1.008  10.044
50130SOL     OW52228  14.730   3.177   8.781
50130SOL    HW152229  14.679   3.194   8.861
50130SOL    HW252230  14.725   3.082   8.771
50131SOL     OW52231   4.850   5.461   3.950
50131SOL    HW152232   4.903   5.424   4.021
50131SOL    HW252233   4.782   5.511   3.995
50132SOL     OW52234   1.976   9.062  14.702
50132SOL    HW152235   1.991   9.027  14.614
50132SOL    HW252236   2.033   9.010  14.758
50133SOL     OW52237  12.416  12.649  11.936
50133SOL    HW152238  12.416  12.674  11.844
50133SOL    HW252239  12.426  12.731  11.983
50134SOL     OW52240  11.895   5.023  14.679
50134SOL    HW152241  11.958   4.956  14.704
50134SOL    HW252242  11.929   5.103  14.720
50135SOL     OW52243   4.825   1.151   6.013
50135SOL    HW152244   4.905   1.137   6.064
50135SOL    HW252245   4.767   1.081   6.041
50136SOL     OW52246  12.077  13.258   0.694
50136SOL    HW152247  12.113  13.263   0.605
50136SOL    HW252248  12.120  13.182   0.733
50137SOL     OW52249  11.188   9.887   5.158
50137SOL    HW152250  11.197   9.866   5.250
50137SOL    HW252251  11.257   9.951   5.141
50138SOL     OW52252   3.735  12.163  12.228
50138SOL    HW152253   3.645  12.137  12.208
50138SOL    HW252254   3.731  12.193  12.319
50139SOL     OW52255  12.337   4.509   8.955
50139SOL    HW152256  12.297   4.457   9.024
50139SOL    HW252257  12.320   4.461   8.875
50140SOL     OW52258   4.292  11.068   6.134
50140SOL    HW152259   4.207  11.097   6.101
50140SOL    HW252260   4.281  11.065   6.229
50141SOL     OW52261   3.633   2.393  14.342
50141SOL    HW152262   3.714   2.442  14.330
50141SOL    HW252263   3.660   2.307  14.371
50142SOL     OW52264  10.795  12.629  12.212
50142SOL    HW152265  10.731  12.608  12.144
50142SOL    HW252266  10.783  12.723  12.227
50143SOL     OW52267   8.972  13.334   4.203
50143SOL    HW152268   8.980  13.276   4.278
50143SOL    HW252269   8.998  13.281   4.128
50144SOL     OW52270   0.649  11.586   4.623
50144SOL    HW152271   0.722  11.624   4.574
50144SOL    HW252272   0.637  11.646   4.697
50145SOL     OW52273  10.105   9.415   3.391
50145SOL    HW152274  10.181   9.471   3.409
50145SOL    HW252275  10.085   9.375   3.476
50146SOL     OW52276   7.444   8.745  10.314
50146SOL    HW152277   7.379   8.753  10.385
50146SOL    HW252278   7.456   8.651  10.304
50147SOL     OW52279   8.073   3.310   1.093
50147SOL    HW152280   7.991   3.358   1.101
50147SOL    HW252281   8.062   3.233   1.150
50148SOL     OW52282   1.051   5.444  14.546
50148SOL    HW152283   1.139   5.421  14.515
50148SOL    HW252284   0.992   5.406  14.482
50149SOL     OW52285   4.018  12.170   1.562
50149SOL    HW152286   3.957  12.225   1.610
50149SOL    HW252287   3.963  12.113   1.509
50150SOL     OW52288  10.755   1.767   4.364
50150SOL    HW152289  10.734   1.858   4.386
50150SOL    HW252290  10.846   1.771   4.334
50151SOL     OW52291  13.643   7.138  10.111
50151SOL    HW152292  13.724   7.152  10.159
50151SOL    HW252293  13.646   7.201  10.039
50152SOL     OW52294  13.114  11.816   7.632
50152SOL    HW152295  13.117  11.780   7.721
50152SOL    HW252296  13.095  11.741   7.576
50153SOL     OW52297   1.821   4.194   5.200
50153SOL    HW152298   1.869   4.115   5.227
50153SOL    HW252299   1.736   4.186   5.242
50154SOL     OW52300  12.644  11.271   8.185
50154SOL    HW152301  12.722  11.323   8.204
50154SOL    HW252302  12.577  11.335   8.161
50155SOL     OW52303   0.166   0.233   8.584
50155SOL    HW152304   0.231   0.222   8.654
50155SOL    HW252305   0.207   0.192   8.508
50156SOL     OW52306  13.223   2.722   8.518
50156SOL    HW152307  13.175   2.798   8.553
50156SOL    HW252308  13.307   2.724   8.563
50157SOL     OW52309  12.934  12.081   7.005
50157SOL    HW152310  13.026  12.070   6.981
50157SOL    HW252311  12.932  12.069   7.100
50158SOL     OW52312  10.587   1.480  13.709
50158SOL    HW152313  10.656   1.453  13.769
50158SOL    HW252314  10.505   1.461  13.756
50159SOL     OW52315   8.422   1.009  10.753
50159SOL    HW152316   8.371   1.089  10.768
50159SOL    HW252317   8.504   1.040  10.714
50160SOL     OW52318   3.956   7.931  10.704
50160SOL    HW152319   3.886   7.923  10.640
50160SOL    HW252320   4.030   7.967  10.654
50161SOL     OW52321   7.952  13.357  13.672
50161SOL    HW152322   7.866  13.383  13.640
50161SOL    HW252323   8.005  13.346  13.593
50162SOL     OW52324   5.261   3.005   6.677
50162SOL    HW152325   5.273   3.053   6.758
50162SOL    HW252326   5.326   2.934   6.680
50163SOL     OW52327   4.014   8.205   6.944
50163SOL    HW152328   4.063   8.260   7.004
50163SOL    HW252329   3.997   8.261   6.868
50164SOL     OW52330   1.453   4.776  10.766
50164SOL    HW152331   1.390   4.844  10.790
50164SOL    HW252332   1.537   4.822  10.759
50165SOL     OW52333   1.228   7.734  12.893
50165SOL    HW152334   1.137   7.742  12.863
50165SOL    HW252335   1.280   7.761  12.817
50166SOL     OW52336  14.219  14.617   9.439
50166SOL    HW152337  14.257  14.539   9.477
50166SOL    HW252338  14.274  14.636   9.363
50167SOL     OW52339   0.827   1.319   6.727
50167SOL    HW152340   0.826   1.250   6.793
50167SOL    HW252341   0.830   1.401   6.777
50168SOL     OW52342   4.925   1.147  10.014
50168SOL    HW152343   4.911   1.108  10.100
50168SOL    HW252344   4.949   1.237  10.032
50169SOL     OW52345  14.151  13.898   5.865
50169SOL    HW152346  14.217  13.966   5.877
50169SOL    HW252347  14.071  13.945   5.840
50170SOL     OW52348   2.359   8.630  13.915
50170SOL    HW152349   2.360   8.588  13.829
50170SOL    HW252350   2.398   8.565  13.974
50171SOL     OW52351  13.644  12.878   4.718
50171SOL    HW152352  13.570  12.898   4.661
50171SOL    HW252353  13.687  12.803   4.677
50172SOL     OW52354   4.300  11.037   3.498
50172SOL    HW152355   4.322  11.070   3.585
50172SOL    HW252356   4.250  10.957   3.515
50173SOL     OW52357   5.823  10.224   2.142
50173SOL    HW152358   5.796  10.172   2.218
50173SOL    HW252359   5.832  10.313   2.175
50174SOL     OW52360   8.260   3.219   4.066
50174SOL    HW152361   8.268   3.265   3.983
50174SOL    HW252362   8.186   3.261   4.110
50175SOL     OW52363  12.028   0.586  12.125
50175SOL    HW152364  12.005   0.493  12.121
50175SOL    HW252365  12.121   0.587  12.147
50176SOL     OW52366  13.305   3.203  14.057
50176SOL    HW152367  13.328   3.291  14.025
50176SOL    HW252368  13.373   3.146  14.021
50177SOL     OW52369   4.198   3.259   2.212
50177SOL    HW152370   4.189   3.237   2.305
50177SOL    HW252371   4.125   3.215   2.170
50178SOL     OW52372   2.929  10.952  12.643
50178SOL    HW152373   2.999  10.987  12.699
50178SOL    HW252374   2.894  11.028  12.598
50179SOL     OW52375  10.616   0.559   0.630
50179SOL    HW152376  10.639   0.652   0.635
50179SOL    HW252377  10.526   0.555   0.662
50180SOL     OW52378   4.767   7.708  11.480
50180SOL    HW152379   4.761   7.769  11.554
50180SOL    HW252380   4.774   7.622  11.521
50181SOL     OW52381   1.861   9.086  13.712
50181SOL    HW152382   1.786   9.139  13.687
50181SOL    HW252383   1.823   9.009  13.756
50182SOL     OW52384   5.669  14.190  12.447
50182SOL    HW152385   5.627  14.146  12.373
50182SOL    HW252386   5.619  14.271  12.458
50183SOL     OW52387  14.875   5.985  11.289
50183SOL    HW152388   0.015   6.069  11.331
50183SOL    HW252389  14.831   5.934  11.357
50184SOL     OW52390   0.653   2.120  11.077
50184SOL    HW152391   0.677   2.039  11.033
50184SOL    HW252392   0.702   2.189  11.032
50185SOL     OW52393  14.217  12.607  10.543
50185SOL    HW152394  14.140  12.602  10.599
50185SOL    HW252395  14.217  12.525  10.494
50186SOL     OW52396  11.793   4.432   8.908
50186SOL    HW152397  11.702   4.424   8.878
50186SOL    HW252398  11.791   4.505   8.970
50187SOL     OW52399   1.685   0.011  11.704
50187SOL    HW152400   1.710  14.813  11.655
50187SOL    HW252401   1.655   0.073  11.637
50188SOL     OW52402   0.235   0.616   8.315
50188SOL    HW152403   0.267   0.527   8.300
50188SOL    HW252404   0.159   0.604   8.371
50189SOL     OW52405   6.349  10.340  14.420
50189SOL    HW152406   6.407  10.282  14.469
50189SOL    HW252407   6.337  10.296  14.336
50190SOL     OW52408   2.249  10.454  11.922
50190SOL    HW152409   2.182  10.389  11.941
50190SOL    HW252410   2.213  10.506  11.851
50191SOL     OW52411  13.951  14.457   3.142
50191SOL    HW152412  13.926  14.543   3.108
50191SOL    HW252413  14.047  14.460   3.144
50192SOL     OW52414   7.187   3.543   0.451
50192SOL    HW152415   7.094   3.559   0.468
50192SOL    HW252416   7.227   3.542   0.537
50193SOL     OW52417   3.455   3.682   1.917
50193SOL    HW152418   3.531   3.654   1.968
50193SOL    HW252419   3.492   3.727   1.842
50194SOL     OW52420  11.726  13.134   3.787
50194SOL    HW152421  11.813  13.095   3.775
50194SOL    HW252422  11.673  13.063   3.824
50195SOL     OW52423   7.789   3.095   6.077
50195SOL    HW152424   7.786   3.077   6.171
50195SOL    HW252425   7.697   3.098   6.051
50196SOL     OW52426   1.628   1.211  13.110
50196SOL    HW152427   1.581   1.275  13.057
50196SOL    HW252428   1.567   1.138  13.119
50197SOL     OW52429   2.039   9.735  13.515
50197SOL    HW152430   2.027   9.828  13.492
50197SOL    HW252431   2.129   9.716  13.489
50198SOL     OW52432  11.317  11.109   4.117
50198SOL    HW152433  11.303  11.132   4.025
50198SOL    HW252434  11.284  11.019   4.124
50199SOL     OW52435   9.051   3.012  14.212
50199SOL    HW152436   9.102   3.065  14.273
50199SOL    HW252437   8.987   2.967  14.267
50200SOL     OW52438   5.475  12.926   1.351
50200SOL    HW152439   5.440  12.870   1.281
50200SOL    HW252440   5.515  12.864   1.413
50201SOL     OW52441   6.512  11.530   1.152
50201SOL    HW152442   6.520  11.529   1.247
50201SOL    HW252443   6.510  11.437   1.127
50202SOL     OW52444   0.946   2.975   4.656
50202SOL    HW152445   0.982   2.887   4.645
50202SOL    HW252446   1.021   3.034   4.647
50203SOL     OW52447  12.981   4.928   2.919
50203SOL    HW152448  12.948   4.838   2.918
50203SOL    HW252449  13.069   4.922   2.882
50204SOL     OW52450  11.107   0.835   3.221
50204SOL    HW152451  11.083   0.803   3.308
50204SOL    HW252452  11.203   0.836   3.221
50205SOL     OW52453  13.640   3.520  14.057
50205SOL    HW152454  13.689   3.438  14.053
50205SOL    HW252455  13.642   3.545  14.150
50206SOL     OW52456   2.932   3.696  10.983
50206SOL    HW152457   3.013   3.736  11.014
50206SOL    HW252458   2.904   3.752  10.911
50207SOL     OW52459   2.658  14.042   1.422
50207SOL    HW152460   2.588  14.105   1.441
50207SOL    HW252461   2.640  14.011   1.333
50208SOL     OW52462  10.663   3.954   3.292
50208SOL    HW152463  10.730   4.005   3.246
50208SOL    HW252464  10.677   3.864   3.262
50209SOL     OW52465   4.788   8.548  11.056
50209SOL    HW152466   4.865   8.519  11.105
50209SOL    HW252467   4.813   8.633  11.018
50210SOL     OW52468  10.088   0.358   9.102
50210SOL    HW152469  10.005   0.385   9.062
50210SOL    HW252470  10.070   0.270   9.136
50211SOL     OW52471   3.262   0.546   3.757
50211SOL    HW152472   3.338   0.586   3.800
50211SOL    HW252473   3.251   0.462   3.802
50212SOL     OW52474   2.274   9.642  11.151
50212SOL    HW152475   2.187   9.617  11.183
50212SOL    HW252476   2.272   9.622  11.058
50213SOL     OW52477   6.499  11.840   5.365
50213SOL    HW152478   6.581  11.858   5.411
50213SOL    HW252479   6.465  11.761   5.406
50214SOL     OW52480   4.376  12.740   7.652
50214SOL    HW152481   4.422  12.722   7.734
50214SOL    HW252482   4.395  12.664   7.597
50215SOL     OW52483   2.742   2.648   5.800
50215SOL    HW152484   2.757   2.629   5.893
50215SOL    HW252485   2.804   2.592   5.754
50216SOL     OW52486  10.703   1.105  11.787
50216SOL    HW152487  10.760   1.107  11.864
50216SOL    HW252488  10.641   1.176  11.800
50217SOL     OW52489   4.528   8.908   3.972
50217SOL    HW152490   4.490   8.936   4.055
50217SOL    HW252491   4.577   8.985   3.942
50218SOL     OW52492   7.884  11.757  10.897
50218SOL    HW152493   7.829  11.799  10.831
50218SOL    HW252494   7.829  11.753  10.975
50219SOL     OW52495   6.953   5.400   4.834
50219SOL    HW152496   7.000   5.345   4.771
50219SOL    HW252497   7.020   5.427   4.897
50220SOL     OW52498  14.123   0.664  11.143
50220SOL    HW152499  14.099   0.574  11.166
50220SOL    HW252500  14.160   0.656  11.054
50221SOL     OW52501   3.518  13.612   7.802
50221SOL    HW152502   3.611  13.625   7.822
50221SOL    HW252503   3.487  13.699   7.776
50222SOL     OW52504  11.365   5.158   2.300
50222SOL    HW152505  11.360   5.254   2.295
50222SOL    HW252506  11.457   5.138   2.285
50223SOL     OW52507  13.179   0.741   5.764
50223SOL    HW152508  13.244   0.693   5.816
50223SOL    HW252509  13.148   0.810   5.823
50224SOL     OW52510  10.379  13.099   1.126
50224SOL    HW152511  10.383  13.021   1.070
50224SOL    HW252512  10.339  13.166   1.071
50225SOL     OW52513   8.686   4.499   7.622
50225SOL    HW152514   8.709   4.427   7.564
50225SOL    HW252515   8.617   4.463   7.678
50226SOL     OW52516   2.114  13.841   8.814
50226SOL    HW152517   2.147  13.815   8.900
50226SOL    HW252518   2.179  13.809   8.752
50227SOL     OW52519  11.304   2.353   0.584
50227SOL    HW152520  11.212   2.327   0.592
50227SOL    HW252521  11.325   2.393   0.668
50228SOL     OW52522   6.308  11.242   2.015
50228SOL    HW152523   6.224  11.283   1.992
50228SOL    HW252524   6.285  11.179   2.084
50229SOL     OW52525  13.648   7.545   4.008
50229SOL    HW152526  13.631   7.556   4.102
50229SOL    HW252527  13.561   7.550   3.968
50230SOL     OW52528  11.461   4.552  14.875
50230SOL    HW152529  11.516   4.521  14.803
50230SOL    HW252530  11.491   4.501   0.071
50231SOL     OW52531   7.847   1.803   1.255
50231SOL    HW152532   7.907   1.863   1.210
50231SOL    HW252533   7.899   1.724   1.269
50232SOL     OW52534   8.499   4.957   5.974
50232SOL    HW152535   8.557   4.893   6.016
50232SOL    HW252536   8.549   5.038   5.973
50233SOL     OW52537   7.015   3.542  11.564
50233SOL    HW152538   6.924   3.560  11.539
50233SOL    HW252539   7.050   3.627  11.589
50234SOL     OW52540   4.744   3.510   6.067
50234SOL    HW152541   4.831   3.500   6.105
50234SOL    HW252542   4.684   3.477   6.134
50235SOL     OW52543   5.415   5.264  10.125
50235SOL    HW152544   5.502   5.225  10.126
50235SOL    HW252545   5.357   5.193  10.097
50236SOL     OW52546  10.399  12.549   5.532
50236SOL    HW152547  10.395  12.528   5.626
50236SOL    HW252548  10.313  12.523   5.499
50237SOL     OW52549   5.726   4.457   3.089
50237SOL    HW152550   5.771   4.447   3.173
50237SOL    HW252551   5.759   4.539   3.053
50238SOL     OW52552   6.183   5.648   4.834
50238SOL    HW152553   6.094   5.637   4.799
50238SOL    HW252554   6.175   5.721   4.896
50239SOL     OW52555  11.732   4.932   4.463
50239SOL    HW152556  11.673   4.857   4.455
50239SOL    HW252557  11.818   4.898   4.438
50240SOL     OW52558  14.667  13.782   6.179
50240SOL    HW152559  14.593  13.721   6.175
50240SOL    HW252560  14.728  13.751   6.113
50241SOL     OW52561   7.812  13.160   6.144
50241SOL    HW152562   7.793  13.076   6.101
50241SOL    HW252563   7.794  13.226   6.077
50242SOL     OW52564  12.693  13.856  11.143
50242SOL    HW152565  12.630  13.881  11.210
50242SOL    HW252566  12.660  13.896  11.063
50243SOL     OW52567   1.504   2.861  14.777
50243SOL    HW152568   1.515   2.782  14.724
50243SOL    HW252569   1.581   2.862  14.834
50244SOL     OW52570  11.333  11.318   7.714
50244SOL    HW152571  11.404  11.301   7.776
50244SOL    HW252572  11.367  11.387   7.657
50245SOL     OW52573   2.223  14.592  11.601
50245SOL    HW152574   2.248  14.552  11.518
50245SOL    HW252575   2.135  14.559  11.618
50246SOL     OW52576   1.291   1.732  14.867
50246SOL    HW152577   1.270   1.809  14.816
50246SOL    HW252578   1.278   1.759   0.079
50247SOL     OW52579   0.441   7.189  10.569
50247SOL    HW152580   0.528   7.206  10.533
50247SOL    HW252581   0.457   7.177  10.663
50248SOL     OW52582  10.387  10.742   7.084
50248SOL    HW152583  10.382  10.838   7.080
50248SOL    HW252584  10.425  10.723   7.169
50249SOL     OW52585   2.507  13.344   7.920
50249SOL    HW152586   2.447  13.284   7.964
50249SOL    HW252587   2.525  13.412   7.984
50250SOL     OW52588   6.095   6.784   7.841
50250SOL    HW152589   6.088   6.859   7.782
50250SOL    HW252590   6.005   6.767   7.869
50251SOL     OW52591  14.614   1.412   0.176
50251SOL    HW152592  14.622   1.370   0.091
50251SOL    HW252593  14.549   1.481   0.163
50252SOL     OW52594   2.466  11.008   5.013
50252SOL    HW152595   2.552  11.030   5.049
50252SOL    HW252596   2.440  11.086   4.964
50253SOL     OW52597   5.145  13.560   6.197
50253SOL    HW152598   5.103  13.542   6.281
50253SOL    HW252599   5.207  13.630   6.216
50254SOL     OW52600   0.682   9.022   3.913
50254SOL    HW152601   0.698   9.111   3.883
50254SOL    HW252602   0.749   9.006   3.979
50255SOL     OW52603  10.402  13.899   7.391
50255SOL    HW152604  10.407  13.842   7.468
50255SOL    HW252605  10.493  13.921   7.372
50256SOL     OW52606   5.890  14.303   5.974
50256SOL    HW152607   5.884  14.212   5.946
50256SOL    HW252608   5.822  14.312   6.042
50257SOL     OW52609  13.856  10.535  13.011
50257SOL    HW152610  13.831  10.465  12.949
50257SOL    HW252611  13.822  10.505  13.095
50258SOL     OW52612   7.231   6.493   9.569
50258SOL    HW152613   7.306   6.452   9.612
50258SOL    HW252614   7.223   6.578   9.612
50259SOL     OW52615  12.167   7.727   0.638
50259SOL    HW152616  12.092   7.681   0.677
50259SOL    HW252617  12.242   7.671   0.656
50260SOL     OW52618   7.781   0.549   8.386
50260SOL    HW152619   7.782   0.507   8.300
50260SOL    HW252620   7.787   0.643   8.367
50261SOL     OW52621   0.776   3.710   2.528
50261SOL    HW152622   0.702   3.683   2.582
50261SOL    HW252623   0.852   3.668   2.570
50262SOL     OW52624   7.377   8.142   2.249
50262SOL    HW152625   7.450   8.177   2.198
50262SOL    HW252626   7.306   8.205   2.235
50263SOL     OW52627  10.219   8.872   0.879
50263SOL    HW152628  10.257   8.787   0.902
50263SOL    HW252629  10.288   8.935   0.900
50264SOL     OW52630   8.463   7.660  12.638
50264SOL    HW152631   8.422   7.577  12.611
50264SOL    HW252632   8.439   7.722  12.569
50265SOL     OW52633   6.768   4.134  14.710
50265SOL    HW152634   6.861   4.134  14.734
50265SOL    HW252635   6.731   4.061  14.759
50266SOL     OW52636   7.144   1.146   5.727
50266SOL    HW152637   7.130   1.225   5.674
50266SOL    HW252638   7.235   1.152   5.756
50267SOL     OW52639  10.031   0.444   2.354
50267SOL    HW152640  10.087   0.500   2.408
50267SOL    HW252641  10.092   0.385   2.310
50268SOL     OW52642   9.031   2.956   3.206
50268SOL    HW152643   9.108   2.941   3.152
50268SOL    HW252644   9.004   3.045   3.184
50269SOL     OW52645  12.384   0.138   5.011
50269SOL    HW152646  12.299   0.108   4.977
50269SOL    HW252647  12.370   0.231   5.030
50270SOL     OW52648   9.209  13.939   6.400
50270SOL    HW152649   9.280  13.885   6.434
50270SOL    HW252650   9.240  14.029   6.410
50271SOL     OW52651   0.368   6.360   7.383
50271SOL    HW152652   0.296   6.375   7.444
50271SOL    HW252653   0.436   6.421   7.410
50272SOL     OW52654   9.996   4.216  13.364
50272SOL    HW152655  10.063   4.237  13.299
50272SOL    HW252656   9.920   4.267  13.339
50273SOL     OW52657   5.919   1.132   1.006
50273SOL    HW152658   5.895   1.223   1.020
50273SOL    HW252659   5.886   1.110   0.919
50274SOL     OW52660   5.161  13.279   7.345
50274SOL    HW152661   5.132  13.218   7.277
50274SOL    HW252662   5.248  13.307   7.317
50275SOL     OW52663   0.721  13.812  12.693
50275SOL    HW152664   0.767  13.870  12.632
50275SOL    HW252665   0.630  13.814  12.663
50276SOL     OW52666  12.364   3.659  10.777
50276SOL    HW152667  12.270   3.644  10.766
50276SOL    HW252668  12.392   3.699  10.695
50277SOL     OW52669  12.978   5.859   7.092
50277SOL    HW152670  13.019   5.794   7.149
50277SOL    HW252671  13.049   5.888   7.035
50278SOL     OW52672   9.196  11.433   5.300
50278SOL    HW152673   9.126  11.494   5.280
50278SOL    HW252674   9.193  11.422   5.395
50279SOL     OW52675   2.619   5.988  10.735
50279SOL    HW152676   2.678   6.054  10.698
50279SOL    HW252677   2.620   5.917  10.671
50280SOL     OW52678  13.783  13.276   3.640
50280SOL    HW152679  13.727  13.235   3.706
50280SOL    HW252680  13.755  13.368   3.639
50281SOL     OW52681   0.273   6.881  14.675
50281SOL    HW152682   0.322   6.883  14.594
50281SOL    HW252683   0.301   6.959  14.723
50282SOL     OW52684  14.276   3.659   7.315
50282SOL    HW152685  14.305   3.623   7.399
50282SOL    HW252686  14.190   3.697   7.334
50283SOL     OW52687   1.700   7.438   5.114
50283SOL    HW152688   1.659   7.507   5.062
50283SOL    HW252689   1.783   7.476   5.143
50284SOL     OW52690  13.590   3.577   9.806
50284SOL    HW152691  13.548   3.550   9.724
50284SOL    HW252692  13.518   3.604   9.862
50285SOL     OW52693  13.260   9.741  12.147
50285SOL    HW152694  13.183   9.697  12.112
50285SOL    HW252695  13.256   9.725  12.241
50286SOL     OW52696   1.257  12.035  13.730
50286SOL    HW152697   1.271  12.097  13.659
50286SOL    HW252698   1.302  11.955  13.702
50287SOL     OW52699   7.567   8.551   8.764
50287SOL    HW152700   7.634   8.610   8.729
50287SOL    HW252701   7.591   8.465   8.731
50288SOL     OW52702   1.665  14.862   6.350
50288SOL    HW152703   1.743  14.869   6.295
50288SOL    HW252704   1.641   0.073   6.370
50289SOL     OW52705   4.849   9.194   9.686
50289SOL    HW152706   4.932   9.237   9.708
50289SOL    HW252707   4.842   9.122   9.748
50290SOL     OW52708   7.415   3.954   0.229
50290SOL    HW152709   7.426   3.948   0.134
50290SOL    HW252710   7.327   3.920   0.245
50291SOL     OW52711   0.081  12.418   2.934
50291SOL    HW152712   0.140  12.403   2.860
50291SOL    HW252713   0.078  12.513   2.943
50292SOL     OW52714   7.479  14.383   9.975
50292SOL    HW152715   7.415  14.399  10.044
50292SOL    HW252716   7.557  14.429  10.002
50293SOL     OW52717   9.028  12.159   3.400
50293SOL    HW152718   9.085  12.227   3.363
50293SOL    HW252719   8.940  12.185   3.375
50294SOL     OW52720   1.473  12.211   5.844
50294SOL    HW152721   1.505  12.173   5.926
50294SOL    HW252722   1.380  12.189   5.842
50295SOL     OW52723   4.367   2.498   1.601
50295SOL    HW152724   4.298   2.488   1.535
50295SOL    HW252725   4.418   2.573   1.570
50296SOL     OW52726   9.881   8.275   1.153
50296SOL    HW152727   9.881   8.326   1.234
50296SOL    HW252728   9.927   8.330   1.090
50297SOL     OW52729   0.188  12.664  12.620
50297SOL    HW152730   0.148  12.590  12.575
50297SOL    HW252731   0.136  12.674  12.700
50298SOL     OW52732   4.727   7.224   0.293
50298SOL    HW152733   4.771   7.242   0.376
50298SOL    HW252734   4.662   7.294   0.285
50299SOL     OW52735   7.851  10.472   8.261
50299SOL    HW152736   7.849  10.458   8.356
50299SOL    HW252737   7.943  10.457   8.237
50300SOL     OW52738  10.251   4.875   4.018
50300SOL    HW152739  10.261   4.934   3.944
50300SOL    HW252740  10.161   4.888   4.047
50301SOL     OW52741   4.524   1.262  10.025
50301SOL    HW152742   4.585   1.222  10.087
50301SOL    HW252743   4.577   1.279   9.947
50302SOL     OW52744  13.025   9.840   9.985
50302SOL    HW152745  12.933   9.864   9.997
50302SOL    HW252746  13.072   9.897  10.045
50303SOL     OW52747   1.597   7.730   9.377
50303SOL    HW152748   1.645   7.649   9.358
50303SOL    HW252749   1.626   7.791   9.310
50304SOL     OW52750  12.990   4.403   3.439
50304SOL    HW152751  13.086   4.411   3.436
50304SOL    HW252752  12.962   4.420   3.349
50305SOL     OW52753  13.849   6.064   7.813
50305SOL    HW152754  13.771   6.090   7.862
50305SOL    HW252755  13.816   6.027   7.732
50306SOL     OW52756   6.601   2.596   0.992
50306SOL    HW152757   6.540   2.572   1.061
50306SOL    HW252758   6.617   2.690   1.005
50307SOL     OW52759  14.817  11.532   7.724
50307SOL    HW152760  14.825  11.437   7.730
50307SOL    HW252761  14.724  11.547   7.709
50308SOL     OW52762  13.058  13.035  12.650
50308SOL    HW152763  13.029  13.023  12.741
50308SOL    HW252764  13.029  13.123  12.627
50309SOL     OW52765   2.225   8.647   0.668
50309SOL    HW152766   2.196   8.738   0.679
50309SOL    HW252767   2.152   8.594   0.698
50310SOL     OW52768   5.488   5.715  10.355
50310SOL    HW152769   5.515   5.701  10.265
50310SOL    HW252770   5.498   5.809  10.369
50311SOL     OW52771  13.953   2.372   9.566
50311SOL    HW152772  13.917   2.336   9.647
50311SOL    HW252773  13.878   2.415   9.525
50312SOL     OW52774   6.241   3.948  13.652
50312SOL    HW152775   6.169   3.925  13.593
50312SOL    HW252776   6.232   3.887  13.725
50313SOL     OW52777  11.216   1.860   5.504
50313SOL    HW152778  11.311   1.867   5.490
50313SOL    HW252779  11.186   1.951   5.503
50314SOL     OW52780   9.973   3.347  13.295
50314SOL    HW152781  10.021   3.279  13.248
50314SOL    HW252782  10.023   3.427  13.277
50315SOL     OW52783   3.261   3.229   7.120
50315SOL    HW152784   3.170   3.226   7.148
50315SOL    HW252785   3.265   3.304   7.060
50316SOL     OW52786   7.498   5.731  12.776
50316SOL    HW152787   7.421   5.730  12.720
50316SOL    HW252788   7.572   5.737  12.715
50317SOL     OW52789  14.043  12.428  10.362
50317SOL    HW152790  14.059  12.510  10.315
50317SOL    HW252791  14.055  12.359  10.297
50318SOL     OW52792  14.214   0.260   5.968
50318SOL    HW152793  14.157   0.334   5.948
50318SOL    HW252794  14.255   0.237   5.885
50319SOL     OW52795  13.404   7.612   1.882
50319SOL    HW152796  13.364   7.644   1.963
50319SOL    HW252797  13.357   7.531   1.864
50320SOL     OW52798  14.312   6.954   0.750
50320SOL    HW152799  14.243   6.997   0.700
50320SOL    HW252800  14.393   6.986   0.710
50321SOL     OW52801   5.741  12.005   7.717
50321SOL    HW152802   5.704  12.001   7.805
50321SOL    HW252803   5.666  11.998   7.658
50322SOL     OW52804   7.184   9.958  10.337
50322SOL    HW152805   7.243   9.925  10.404
50322SOL    HW252806   7.208  10.051  10.328
50323SOL     OW52807   2.655   6.717  11.723
50323SOL    HW152808   2.565   6.745  11.707
50323SOL    HW252809   2.683   6.679  11.640
50324SOL     OW52810  13.317  10.789   8.552
50324SOL    HW152811  13.308  10.775   8.458
50324SOL    HW252812  13.233  10.823   8.580
50325SOL     OW52813  14.351   6.463  12.658
50325SOL    HW152814  14.373   6.420  12.575
50325SOL    HW252815  14.378   6.400  12.725
50326SOL     OW52816  14.021   5.634   0.820
50326SOL    HW152817  13.935   5.675   0.830
50326SOL    HW252818  14.034   5.586   0.902
50327SOL     OW52819  12.174   8.910   2.433
50327SOL    HW152820  12.147   8.818   2.442
50327SOL    HW252821  12.102   8.950   2.384
50328SOL     OW52822  14.839   2.589   2.626
50328SOL    HW152823   0.007   2.510   2.602
50328SOL    HW252824  14.805   2.622   2.543
50329SOL     OW52825   5.617   3.452   5.311
50329SOL    HW152826   5.579   3.500   5.237
50329SOL    HW252827   5.547   3.448   5.376
50330SOL     OW52828   8.865   3.497  11.482
50330SOL    HW152829   8.889   3.555  11.410
50330SOL    HW252830   8.947   3.456  11.508
50331SOL     OW52831   1.808  12.945   0.688
50331SOL    HW152832   1.821  13.018   0.628
50331SOL    HW252833   1.731  12.970   0.739
50332SOL     OW52834   9.770   5.713  14.859
50332SOL    HW152835   9.786   5.742   0.069
50332SOL    HW252836   9.674   5.710  14.852
50333SOL     OW52837   2.951  10.852  10.534
50333SOL    HW152838   2.916  10.880  10.449
50333SOL    HW252839   2.935  10.927  10.592
50334SOL     OW52840  12.572   4.711  14.507
50334SOL    HW152841  12.549   4.803  14.520
50334SOL    HW252842  12.488   4.667  14.497
50335SOL     OW52843   2.934   3.233   4.828
50335SOL    HW152844   2.894   3.222   4.914
50335SOL    HW252845   3.002   3.298   4.841
50336SOL     OW52846   1.018  10.794  13.300
50336SOL    HW152847   1.096  10.750  13.267
50336SOL    HW252848   0.972  10.727  13.351
50337SOL     OW52849   5.884  10.085   7.367
50337SOL    HW152850   5.816  10.144   7.399
50337SOL    HW252851   5.880  10.094   7.271
50338SOL     OW52852  13.273   9.177   0.354
50338SOL    HW152853  13.319   9.253   0.318
50338SOL    HW252854  13.223   9.212   0.428
50339SOL     OW52855   6.442   6.232  10.666
50339SOL    HW152856   6.358   6.186  10.680
50339SOL    HW252857   6.422   6.296  10.598
50340SOL     OW52858   6.688   9.177   6.652
50340SOL    HW152859   6.772   9.149   6.615
50340SOL    HW252860   6.712   9.229   6.729
50341SOL     OW52861   9.346   1.444   2.087
50341SOL    HW152862   9.436   1.446   2.054
50341SOL    HW252863   9.294   1.476   2.014
50342SOL     OW52864  11.037   4.089   1.604
50342SOL    HW152865  11.021   4.164   1.546
50342SOL    HW252866  11.103   4.120   1.666
50343SOL     OW52867   5.889   1.168   4.810
50343SOL    HW152868   5.958   1.157   4.876
50343SOL    HW252869   5.810   1.186   4.861
50344SOL     OW52870  13.215  14.245  14.284
50344SOL    HW152871  13.269  14.315  14.320
50344SOL    HW252872  13.181  14.200  14.361
50345SOL     OW52873   3.427  13.735   4.558
50345SOL    HW152874   3.377  13.656   4.534
50345SOL    HW252875   3.392  13.803   4.500
50346SOL     OW52876   3.820   0.878   2.915
50346SOL    HW152877   3.880   0.814   2.878
50346SOL    HW252878   3.813   0.853   3.008
50347SOL     OW52879   3.754  12.998   7.553
50347SOL    HW152880   3.681  13.032   7.604
50347SOL    HW252881   3.794  12.932   7.609
50348SOL     OW52882   4.540   6.416   1.737
50348SOL    HW152883   4.519   6.323   1.735
50348SOL    HW252884   4.616   6.423   1.795
50349SOL     OW52885  12.131   0.716   6.290
50349SOL    HW152886  12.215   0.686   6.324
50349SOL    HW252887  12.115   0.799   6.336
50350SOL     OW52888  12.642  10.738  11.576
50350SOL    HW152889  12.580  10.783  11.519
50350SOL    HW252890  12.722  10.733  11.524
50351SOL     OW52891   6.459   4.260   5.501
50351SOL    HW152892   6.538   4.227   5.457
50351SOL    HW252893   6.425   4.327   5.443
50352SOL     OW52894   9.368  12.444  14.414
50352SOL    HW152895   9.286  12.431  14.463
50352SOL    HW252896   9.428  12.484  14.476
50353SOL     OW52897  10.044  12.253   5.481
50353SOL    HW152898   9.954  12.285   5.473
50353SOL    HW252899  10.066  12.221   5.394
50354SOL     OW52900   5.224  13.529  14.374
50354SOL    HW152901   5.205  13.448  14.422
50354SOL    HW252902   5.282  13.578  14.432
50355SOL     OW52903  13.036  11.167  13.472
50355SOL    HW152904  12.972  11.106  13.509
50355SOL    HW252905  13.093  11.190  13.546
50356SOL     OW52906   3.953   2.176   6.888
50356SOL    HW152907   3.892   2.202   6.819
50356SOL    HW252908   4.035   2.220   6.864
50357SOL     OW52909   5.726   5.804   3.789
50357SOL    HW152910   5.745   5.896   3.776
50357SOL    HW252911   5.638   5.802   3.826
50358SOL     OW52912   3.089  11.623   7.646
50358SOL    HW152913   2.995  11.637   7.663
50358SOL    HW252914   3.117  11.702   7.602
50359SOL     OW52915   3.356  12.253   0.043
50359SOL    HW152916   3.280  12.262   0.102
50359SOL    HW252917   3.414  12.324   0.068
50360SOL     OW52918   7.818   1.151  14.455
50360SOL    HW152919   7.859   1.077  14.411
50360SOL    HW252920   7.724   1.140  14.439
50361SOL     OW52921   5.616   1.285   8.425
50361SOL    HW152922   5.628   1.317   8.515
50361SOL    HW252923   5.574   1.200   8.436
50362SOL     OW52924   7.653   7.313   8.128
50362SOL    HW152925   7.703   7.273   8.057
50362SOL    HW252926   7.573   7.262   8.133
50363SOL     OW52927   9.283   5.246   5.783
50363SOL    HW152928   9.242   5.214   5.702
50363SOL    HW252929   9.296   5.166   5.836
50364SOL     OW52930   0.890   2.940  13.812
50364SOL    HW152931   0.983   2.961  13.824
50364SOL    HW252932   0.865   2.988  13.733
50365SOL     OW52933   8.098   5.997  11.255
50365SOL    HW152934   8.190   5.989  11.230
50365SOL    HW252935   8.050   5.956  11.182
50366SOL     OW52936   2.752   9.039   7.794
50366SOL    HW152937   2.752   8.977   7.867
50366SOL    HW252938   2.795   8.992   7.723
50367SOL     OW52939  12.614  14.757   6.055
50367SOL    HW152940  12.527  14.750   6.094
50367SOL    HW252941  12.652  14.836   6.094
50368SOL     OW52942   9.658   0.799  12.490
50368SOL    HW152943   9.593   0.868  12.477
50368SOL    HW252944   9.612   0.719  12.466
50369SOL     OW52945   2.426   1.241  11.221
50369SOL    HW152946   2.470   1.309  11.273
50369SOL    HW252947   2.467   1.160  11.250
50370SOL     OW52948   0.918   9.890  13.459
50370SOL    HW152949   0.850   9.825  13.441
50370SOL    HW252950   0.881   9.973  13.428
50371SOL     OW52951   5.158   8.139   1.281
50371SOL    HW152952   5.148   8.073   1.350
50371SOL    HW252953   5.200   8.213   1.325
50372SOL     OW52954  12.339   5.959  11.092
50372SOL    HW152955  12.322   6.053  11.100
50372SOL    HW252956  12.318   5.939  11.001
50373SOL     OW52957  11.103   7.772   1.225
50373SOL    HW152958  11.040   7.813   1.284
50373SOL    HW252959  11.081   7.807   1.138
50374SOL     OW52960  13.845   4.472   4.372
50374SOL    HW152961  13.808   4.384   4.368
50374SOL    HW252962  13.775   4.529   4.340
50375SOL     OW52963   7.970   7.566  13.556
50375SOL    HW152964   7.893   7.623  13.558
50375SOL    HW252965   7.996   7.565  13.464
50376SOL     OW52966   7.449   7.343   6.716
50376SOL    HW152967   7.366   7.305   6.745
50376SOL    HW252968   7.504   7.268   6.694
50377SOL     OW52969  14.500   3.604   0.409
50377SOL    HW152970  14.559   3.669   0.447
50377SOL    HW252971  14.414   3.624   0.446
50378SOL     OW52972   4.498   3.889  11.094
50378SOL    HW152973   4.475   3.797  11.081
50378SOL    HW252974   4.451   3.915  11.173
50379SOL     OW52975   5.068   6.286  14.713
50379SOL    HW152976   5.046   6.376  14.687
50379SOL    HW252977   5.110   6.249  14.635
50380SOL     OW52978   9.881   0.298   6.808
50380SOL    HW152979   9.869   0.355   6.732
50380SOL    HW252980   9.972   0.270   6.803
50381SOL     OW52981   0.709  10.273   5.811
50381SOL    HW152982   0.676  10.305   5.895
50381SOL    HW252983   0.652  10.316   5.746
50382SOL     OW52984   4.471   6.858   8.567
50382SOL    HW152985   4.399   6.873   8.506
50382SOL    HW252986   4.429   6.828   8.648
50383SOL     OW52987   8.403   1.523   3.811
50383SOL    HW152988   8.458   1.483   3.744
50383SOL    HW252989   8.396   1.456   3.879
50384SOL     OW52990   8.089  14.184   6.537
50384SOL    HW152991   8.172  14.174   6.584
50384SOL    HW252992   8.023  14.180   6.606
50385SOL     OW52993   7.051   9.011   8.366
50385SOL    HW152994   7.054   9.015   8.271
50385SOL    HW252995   7.121   8.951   8.391
50386SOL     OW52996   3.184  14.002  11.511
50386SOL    HW152997   3.122  14.068  11.482
50386SOL    HW252998   3.132  13.942  11.565
50387SOL     OW52999   9.739   8.248   9.867
50387SOL    HW153000   9.647   8.231   9.890
50387SOL    HW253001   9.734   8.299   9.787
50388SOL     OW53002  14.784  12.384  12.241
50388SOL    HW153003  14.866  12.348  12.275
50388SOL    HW253004  14.760  12.325  12.170
50389SOL     OW53005  10.671   3.489   2.903
50389SOL    HW153006  10.719   3.421   2.855
50389SOL    HW253007  10.718   3.496   2.986
50390SOL     OW53008  10.257   9.952  11.354
50390SOL    HW153009  10.334   9.919  11.308
50390SOL    HW253010  10.207   9.873  11.376
50391SOL     OW53011   1.649   1.639  12.139
50391SOL    HW153012   1.637   1.694  12.216
50391SOL    HW253013   1.735   1.665  12.105
50392SOL     OW53014   7.556  13.466   3.356
50392SOL    HW153015   7.572  13.382   3.399
50392SOL    HW253016   7.644  13.498   3.333
50393SOL     OW53017  11.651   9.035   9.802
50393SOL    HW153018  11.704   9.052   9.725
50393SOL    HW253019  11.695   9.083   9.872
50394SOL     OW53020  12.907   7.569   3.970
50394SOL    HW153021  12.880   7.503   3.907
50394SOL    HW253022  12.830   7.584   4.024
50395SOL     OW53023  13.170   9.620   5.100
50395SOL    HW153024  13.171   9.524   5.103
50395SOL    HW253025  13.245   9.643   5.045
50396SOL     OW53026   7.894   9.614   0.597
50396SOL    HW153027   7.940   9.631   0.515
50396SOL    HW253028   7.894   9.698   0.642
50397SOL     OW53029  11.644   0.493  13.413
50397SOL    HW153030  11.603   0.408  13.429
50397SOL    HW253031  11.622   0.545  13.490
50398SOL     OW53032  14.136   2.548   6.343
50398SOL    HW153033  14.143   2.640   6.317
50398SOL    HW253034  14.117   2.501   6.262
50399SOL     OW53035   7.921   8.256  13.145
50399SOL    HW153036   7.961   8.342  13.135
50399SOL    HW253037   7.856   8.251  13.075
50400SOL     OW53038   2.815   7.841   3.684
50400SOL    HW153039   2.895   7.857   3.635
50400SOL    HW253040   2.808   7.917   3.743
50401SOL     OW53041  10.650  14.818   2.303
50401SOL    HW153042  10.705  14.743   2.280
50401SOL    HW253043  10.712   0.005   2.333
50402SOL     OW53044   5.128   8.495  10.288
50402SOL    HW153045   5.080   8.450  10.218
50402SOL    HW253046   5.062   8.513  10.355
50403SOL     OW53047   4.657   2.700   8.089
50403SOL    HW153048   4.584   2.716   8.149
50403SOL    HW253049   4.624   2.634   8.028
50404SOL     OW53050  13.125   7.264  14.829
50404SOL    HW153051  13.042   7.236  14.867
50404SOL    HW253052  13.102   7.303  14.745
50405SOL     OW53053   9.341  13.588   6.056
50405SOL    HW153054   9.326  13.546   5.971
50405SOL    HW253055   9.418  13.643   6.043
50406SOL     OW53056   3.341   5.914   8.076
50406SOL    HW153057   3.383   5.910   8.162
50406SOL    HW253058   3.306   6.003   8.070
50407SOL     OW53059   3.948   2.233  13.004
50407SOL    HW153060   3.879   2.184  13.049
50407SOL    HW253061   3.943   2.205  12.913
50408SOL     OW53062   6.770   6.071  12.394
50408SOL    HW153063   6.704   6.010  12.426
50408SOL    HW253064   6.760   6.069  12.299
50409SOL     OW53065   5.103   5.024  13.568
50409SOL    HW153066   5.086   5.045  13.476
50409SOL    HW253067   5.088   4.929  13.574
50410SOL     OW53068  10.815   3.307   7.895
50410SOL    HW153069  10.844   3.323   7.805
50410SOL    HW253070  10.719   3.310   7.890
50411SOL     OW53071   8.802   8.953   3.957
50411SOL    HW153072   8.830   8.888   4.021
50411SOL    HW253073   8.740   9.009   4.004
50412SOL     OW53074  14.853   6.695   8.248
50412SOL    HW153075   0.011   6.774   8.208
50412SOL    HW253076  14.797   6.658   8.180
50413SOL     OW53077   5.208   4.857   5.987
50413SOL    HW153078   5.233   4.796   5.918
50413SOL    HW253079   5.257   4.937   5.968
50414SOL     OW53080  13.643  12.832   7.755
50414SOL    HW153081  13.556  12.822   7.715
50414SOL    HW253082  13.674  12.916   7.723
50415SOL     OW53083   2.486  10.518  10.229
50415SOL    HW153084   2.421  10.515  10.158
50415SOL    HW253085   2.446  10.573  10.296
50416SOL     OW53086   9.869   7.705  10.529
50416SOL    HW153087   9.901   7.791  10.503
50416SOL    HW253088   9.934   7.643  10.494
50417SOL     OW53089   3.256   1.119   7.261
50417SOL    HW153090   3.324   1.055   7.281
50417SOL    HW253091   3.302   1.201   7.250
50418SOL     OW53092   8.819  10.777  12.120
50418SOL    HW153093   8.870  10.738  12.049
50418SOL    HW253094   8.796  10.864  12.089
50419SOL     OW53095  12.702   3.661  12.459
50419SOL    HW153096  12.706   3.631  12.550
50419SOL    HW253097  12.778   3.620  12.417
50420SOL     OW53098   6.380  10.151   2.662
50420SOL    HW153099   6.380  10.061   2.695
50420SOL    HW253100   6.288  10.176   2.663
50421SOL     OW53101  11.002   4.298   8.698
50421SOL    HW153102  11.042   4.227   8.748
50421SOL    HW253103  11.056   4.375   8.717
50422SOL     OW53104   3.455  12.763   4.556
50422SOL    HW153105   3.489  12.851   4.538
50422SOL    HW253106   3.411  12.738   4.475
50423SOL     OW53107   4.790   8.123   7.718
50423SOL    HW153108   4.810   8.195   7.778
50423SOL    HW253109   4.694   8.125   7.711
50424SOL     OW53110   4.781  13.117   5.077
50424SOL    HW153111   4.744  13.171   5.008
50424SOL    HW253112   4.798  13.032   5.035
50425SOL     OW53113  11.927   8.367   8.269
50425SOL    HW153114  12.005   8.401   8.314
50425SOL    HW253115  11.881   8.316   8.335
50426SOL     OW53116   1.540   4.577  10.602
50426SOL    HW153117   1.462   4.612  10.645
50426SOL    HW253118   1.540   4.484  10.625
50427SOL     OW53119   3.084   1.859   5.569
50427SOL    HW153120   3.172   1.895   5.560
50427SOL    HW253121   3.050   1.899   5.650
50428SOL     OW53122  14.530  10.428  13.286
50428SOL    HW153123  14.507  10.471  13.368
50428SOL    HW253124  14.463  10.360  13.275
50429SOL     OW53125  10.396  14.683  13.588
50429SOL    HW153126  10.339  14.606  13.583
50429SOL    HW253127  10.483  14.647  13.607
50430SOL     OW53128   7.701  14.735   8.403
50430SOL    HW153129   7.758  14.685   8.461
50430SOL    HW253130   7.665  14.804   8.458
50431SOL     OW53131   3.190   0.794  13.723
50431SOL    HW153132   3.188   0.787  13.818
50431SOL    HW253133   3.164   0.707  13.692
50432SOL     OW53134  14.598   7.481   7.596
50432SOL    HW153135  14.585   7.568   7.632
50432SOL    HW253136  14.513   7.458   7.559
50433SOL     OW53137  12.061   4.949   4.529
50433SOL    HW153138  12.034   4.919   4.443
50433SOL    HW253139  12.036   5.041   4.532
50434SOL     OW53140  11.553   0.121  10.654
50434SOL    HW153141  11.530   0.032  10.683
50434SOL    HW253142  11.608   0.107  10.577
50435SOL     OW53143   8.891  13.161   7.336
50435SOL    HW153144   8.875  13.092   7.272
50435SOL    HW253145   8.904  13.241   7.284
50436SOL     OW53146  13.428  14.801  10.906
50436SOL    HW153147  13.337  14.777  10.926
50436SOL    HW253148  13.428   0.017  10.908
50437SOL     OW53149   0.947  12.158   9.096
50437SOL    HW153150   1.005  12.233   9.082
50437SOL    HW253151   0.997  12.083   9.065
50438SOL     OW53152  11.569   0.024   1.832
50438SOL    HW153153  11.638  14.847   1.798
50438SOL    HW253154  11.490  14.850   1.831
50439SOL     OW53155  10.228   0.696   6.863
50439SOL    HW153156  10.191   0.784   6.876
50439SOL    HW253157  10.185   0.664   6.783
50440SOL     OW53158   4.208  11.600   9.432
50440SOL    HW153159   4.167  11.555   9.506
50440SOL    HW253160   4.135  11.622   9.375
50441SOL     OW53161   9.405   6.344   6.090
50441SOL    HW153162   9.413   6.286   6.015
50441SOL    HW253163   9.311   6.347   6.108
50442SOL     OW53164   8.248  10.494  13.455
50442SOL    HW153165   8.341  10.475  13.460
50442SOL    HW253166   8.226  10.533  13.540
50443SOL     OW53167   9.135   9.533   0.836
50443SOL    HW153168   9.107   9.506   0.923
50443SOL    HW253169   9.056   9.525   0.782
50444SOL     OW53170  10.403   8.834  13.108
50444SOL    HW153171  10.367   8.746  13.107
50444SOL    HW253172  10.428   8.851  13.017
50445SOL     OW53173   2.346   2.089   7.725
50445SOL    HW153174   2.399   2.142   7.784
50445SOL    HW253175   2.308   2.153   7.664
50446SOL     OW53176  10.066   4.174   2.755
50446SOL    HW153177  10.098   4.101   2.808
50446SOL    HW253178  10.145   4.211   2.715
50447SOL     OW53179   0.098  10.651  11.887
50447SOL    HW153180   0.027  10.699  11.844
50447SOL    HW253181   0.121  10.705  11.963
50448SOL     OW53182   6.877   1.743   1.210
50448SOL    HW153183   6.901   1.749   1.302
50448SOL    HW253184   6.782   1.758   1.209
50449SOL     OW53185   4.287   9.676  14.582
50449SOL    HW153186   4.278   9.738  14.509
50449SOL    HW253187   4.360   9.620  14.555
50450SOL     OW53188   9.861  10.643   7.855
50450SOL    HW153189   9.814  10.702   7.914
50450SOL    HW253190   9.794  10.583   7.823
50451SOL     OW53191   7.039  11.065  13.423
50451SOL    HW153192   7.123  11.066  13.468
50451SOL    HW253193   7.048  11.129  13.352
50452SOL     OW53194   6.105  12.748   7.489
50452SOL    HW153195   6.128  12.682   7.555
50452SOL    HW253196   6.013  12.733   7.471
50453SOL     OW53197  12.207  14.828  12.956
50453SOL    HW153198  12.257  14.856  13.034
50453SOL    HW253199  12.174   0.030  12.919
50454SOL     OW53200  14.358  13.441   3.985
50454SOL    HW153201  14.339  13.454   4.078
50454SOL    HW253202  14.337  13.349   3.968
50455SOL     OW53203  14.368   1.641   6.605
50455SOL    HW153204  14.319   1.562   6.626
50455SOL    HW253205  14.444   1.638   6.662
50456SOL     OW53206  12.664   8.691  12.701
50456SOL    HW153207  12.736   8.735  12.747
50456SOL    HW253208  12.668   8.726  12.612
50457SOL     OW53209   4.678  11.524   5.896
50457SOL    HW153210   4.610  11.575   5.940
50457SOL    HW253211   4.637  11.439   5.880
50458SOL     OW53212   4.064   9.300   7.174
50458SOL    HW153213   4.076   9.358   7.249
50458SOL    HW253214   4.124   9.227   7.190
50459SOL     OW53215   9.241  11.076   2.517
50459SOL    HW153216   9.173  11.138   2.543
50459SOL    HW253217   9.283  11.051   2.599
50460SOL     OW53218   1.977  10.336  11.360
50460SOL    HW153219   1.947  10.396  11.428
50460SOL    HW253220   2.005  10.258  11.406
50461SOL     OW53221   0.825   8.028   0.414
50461SOL    HW153222   0.861   8.053   0.498
50461SOL    HW253223   0.875   8.078   0.350
50462SOL     OW53224  10.077   0.788   7.604
50462SOL    HW153225  10.143   0.719   7.609
50462SOL    HW253226  10.093   0.830   7.519
50463SOL     OW53227  10.247   1.027   8.536
50463SOL    HW153228  10.337   1.059   8.524
50463SOL    HW253229  10.237   1.020   8.631
50464SOL     OW53230  13.903  14.636   7.372
50464SOL    HW153231  13.966  14.683   7.318
50464SOL    HW253232  13.914  14.673   7.459
50465SOL     OW53233   1.017   2.312   7.282
50465SOL    HW153234   1.021   2.403   7.253
50465SOL    HW253235   0.967   2.314   7.363
50466SOL     OW53236   3.094   6.512   8.421
50466SOL    HW153237   3.074   6.595   8.377
50466SOL    HW253238   3.023   6.501   8.484
50467SOL     OW53239   2.732   6.654   7.170
50467SOL    HW153240   2.794   6.713   7.213
50467SOL    HW253241   2.759   6.653   7.078
50468SOL     OW53242  10.235   5.429   2.478
50468SOL    HW153243  10.208   5.346   2.516
50468SOL    HW253244  10.205   5.425   2.387
50469SOL     OW53245   5.584  14.576   2.333
50469SOL    HW153246   5.632  14.583   2.250
50469SOL    HW253247   5.648  14.538   2.393
50470SOL     OW53248   2.125  13.145  14.320
50470SOL    HW153249   2.201  13.159  14.377
50470SOL    HW253250   2.049  13.164  14.375
50471SOL     OW53251   5.653  10.896   6.872
50471SOL    HW153252   5.636  10.872   6.963
50471SOL    HW253253   5.566  10.911   6.835
50472SOL     OW53254   5.446   9.902   2.458
50472SOL    HW153255   5.467   9.811   2.480
50472SOL    HW253256   5.381   9.896   2.388
50473SOL     OW53257   8.931  12.506   4.241
50473SOL    HW153258   8.932  12.543   4.153
50473SOL    HW253259   9.024  12.498   4.265
50474SOL     OW53260  10.129  11.641   2.492
50474SOL    HW153261  10.078  11.561   2.478
50474SOL    HW253262  10.064  11.707   2.517
50475SOL     OW53263   8.251  11.264   6.809
50475SOL    HW153264   8.332  11.219   6.787
50475SOL    HW253265   8.189  11.193   6.828
50476SOL     OW53266   5.559  14.145  11.546
50476SOL    HW153267   5.592  14.106  11.466
50476SOL    HW253268   5.548  14.072  11.606
50477SOL     OW53269  13.074  11.397   4.792
50477SOL    HW153270  13.080  11.330   4.860
50477SOL    HW253271  13.074  11.347   4.710
50478SOL     OW53272   7.473   1.367  13.551
50478SOL    HW153273   7.509   1.330  13.632
50478SOL    HW253274   7.549   1.375  13.493
50479SOL     OW53275   9.601   7.731   5.343
50479SOL    HW153276   9.656   7.808   5.329
50479SOL    HW253277   9.533   7.761   5.403
50480SOL     OW53278   7.942   1.733   3.107
50480SOL    HW153279   7.989   1.649   3.101
50480SOL    HW253280   8.001   1.790   3.156
50481SOL     OW53281   5.459   2.708  13.104
50481SOL    HW153282   5.470   2.618  13.134
50481SOL    HW253283   5.405   2.700  13.025
50482SOL     OW53284   1.596   0.124   5.848
50482SOL    HW153285   1.681   0.099   5.885
50482SOL    HW253286   1.533   0.066   5.891
50483SOL     OW53287   0.316  13.904   8.327
50483SOL    HW153288   0.251  13.886   8.259
50483SOL    HW253289   0.263  13.930   8.403
50484SOL     OW53290   9.962  13.267  11.630
50484SOL    HW153291  10.035  13.315  11.668
50484SOL    HW253292   9.975  13.176  11.660
50485SOL     OW53293  12.931   6.138  12.180
50485SOL    HW153294  12.899   6.121  12.269
50485SOL    HW253295  12.863   6.192  12.140
50486SOL     OW53296  11.103   5.279   2.108
50486SOL    HW153297  11.166   5.284   2.180
50486SOL    HW253298  11.110   5.363   2.063
50487SOL     OW53299   3.572  14.044  14.395
50487SOL    HW153300   3.517  14.122  14.387
50487SOL    HW253301   3.539  13.985  14.327
50488SOL     OW53302   4.145  14.271   1.700
50488SOL    HW153303   4.092  14.292   1.623
50488SOL    HW253304   4.082  14.239   1.764
50489SOL     OW53305   7.635   3.459   5.875
50489SOL    HW153306   7.583   3.433   5.951
50489SOL    HW253307   7.577   3.444   5.801
50490SOL     OW53308   2.873   9.918   5.566
50490SOL    HW153309   2.957   9.955   5.538
50490SOL    HW253310   2.813   9.992   5.565
50491SOL     OW53311   5.162   1.402   3.932
50491SOL    HW153312   5.119   1.486   3.914
50491SOL    HW253313   5.090   1.338   3.933
50492SOL     OW53314   2.001   8.113   9.398
50492SOL    HW153315   1.912   8.143   9.379
50492SOL    HW253316   2.056   8.189   9.378
50493SOL     OW53317   6.909   5.676   7.002
50493SOL    HW153318   6.849   5.709   6.935
50493SOL    HW253319   6.895   5.733   7.077
50494SOL     OW53320  12.904   9.197   0.745
50494SOL    HW153321  12.897   9.226   0.836
50494SOL    HW253322  12.824   9.147   0.729
50495SOL     OW53323   0.371   2.023   9.504
50495SOL    HW153324   0.399   1.986   9.588
50495SOL    HW253325   0.369   2.118   9.519
50496SOL     OW53326   0.716  12.253   8.040
50496SOL    HW153327   0.621  12.254   8.057
50496SOL    HW253328   0.727  12.312   7.965
50497SOL     OW53329  10.874   4.145   3.570
50497SOL    HW153330  10.860   4.052   3.553
50497SOL    HW253331  10.905   4.181   3.487
50498SOL     OW53332   1.170   3.537  13.987
50498SOL    HW153333   1.160   3.559  14.080
50498SOL    HW253334   1.104   3.589  13.943
50499SOL     OW53335   8.133  14.663  13.256
50499SOL    HW153336   8.157  14.708  13.337
50499SOL    HW253337   8.133  14.570  13.280
50500SOL     OW53338  14.397   1.738   3.735
50500SOL    HW153339  14.416   1.797   3.662
50500SOL    HW253340  14.477   1.687   3.746
50501SOL     OW53341   5.680   1.164   4.448
50501SOL    HW153342   5.723   1.154   4.364
50501SOL    HW253343   5.587   1.150   4.430
50502SOL     OW53344  10.858   6.700   0.115
50502SOL    HW153345  10.827   6.649   0.190
50502SOL    HW253346  10.779   6.741   0.080
50503SOL     OW53347   0.968   2.053   7.726
50503SOL    HW153348   1.005   1.991   7.662
50503SOL    HW253349   0.903   2.002   7.774
50504SOL     OW53350   2.309   0.505   5.305
50504SOL    HW153351   2.341   0.504   5.215
50504SOL    HW253352   2.236   0.567   5.304
50505SOL     OW53353  14.060  14.796   1.595
50505SOL    HW153354  14.115  14.875   1.595
50505SOL    HW253355  14.020  14.796   1.682
50506SOL     OW53356  10.211   8.436   9.538
50506SOL    HW153357  10.241   8.524   9.513
50506SOL    HW253358  10.288   8.380   9.526
50507SOL     OW53359   6.972   7.653   9.109
50507SOL    HW153360   6.950   7.621   9.197
50507SOL    HW253361   6.919   7.600   9.050
50508SOL     OW53362   1.532  11.193   9.409
50508SOL    HW153363   1.504  11.193   9.317
50508SOL    HW253364   1.504  11.278   9.443
50509SOL     OW53365   6.742   3.444  13.016
50509SOL    HW153366   6.787   3.498  13.080
50509SOL    HW253367   6.686   3.386  13.068
50510SOL     OW53368   2.328   5.664  12.421
50510SOL    HW153369   2.327   5.690  12.513
50510SOL    HW253370   2.238   5.637  12.402
50511SOL     OW53371   6.408  14.336   0.976
50511SOL    HW153372   6.418  14.418   0.928
50511SOL    HW253373   6.316  14.313   0.965
50512SOL     OW53374  13.838   3.324  10.491
50512SOL    HW153375  13.876   3.403  10.530
50512SOL    HW253376  13.802   3.276  10.565
50513SOL     OW53377   7.354   4.588   3.542
50513SOL    HW153378   7.318   4.562   3.457
50513SOL    HW253379   7.282   4.634   3.585
50514SOL     OW53380  10.603   0.630   0.121
50514SOL    HW153381  10.618   0.648   0.214
50514SOL    HW253382  10.513   0.659   0.106
50515SOL     OW53383  14.333   8.958   2.655
50515SOL    HW153384  14.405   9.002   2.608
50515SOL    HW253385  14.295   9.026   2.710
50516SOL     OW53386   8.138  11.448   6.653
50516SOL    HW153387   8.055  11.466   6.698
50516SOL    HW253388   8.192  11.403   6.718
50517SOL     OW53389  11.065   2.184   7.499
50517SOL    HW153390  11.023   2.099   7.512
50517SOL    HW253391  11.100   2.208   7.585
50518SOL     OW53392   1.114   6.772  14.843
50518SOL    HW153393   1.051   6.735  14.780
50518SOL    HW253394   1.200   6.757  14.804
50519SOL     OW53395   2.283  10.800  13.077
50519SOL    HW153396   2.327  10.844  13.149
50519SOL    HW253397   2.295  10.859  13.002
50520SOL     OW53398  11.271   2.754   1.914
50520SOL    HW153399  11.194   2.790   1.958
50520SOL    HW253400  11.343   2.810   1.942
50521SOL     OW53401  12.118  12.142  12.919
50521SOL    HW153402  12.214  12.140  12.928
50521SOL    HW253403  12.098  12.067  12.863
50522SOL     OW53404  13.791   2.245   3.474
50522SOL    HW153405  13.773   2.331   3.513
50522SOL    HW253406  13.805   2.263   3.381
50523SOL     OW53407  12.705   3.743   6.789
50523SOL    HW153408  12.611   3.757   6.796
50523SOL    HW253409  12.716   3.685   6.714
50524SOL     OW53410   8.257  10.881   2.418
50524SOL    HW153411   8.296  10.961   2.454
50524SOL    HW253412   8.188  10.858   2.481
50525SOL     OW53413   3.858   8.381   5.471
50525SOL    HW153414   3.827   8.370   5.561
50525SOL    HW253415   3.940   8.331   5.467
50526SOL     OW53416   6.420   6.948   8.129
50526SOL    HW153417   6.420   6.902   8.045
50526SOL    HW253418   6.492   6.909   8.178
50527SOL     OW53419  13.506   8.395  13.672
50527SOL    HW153420  13.452   8.434  13.604
50527SOL    HW253421  13.568   8.464  13.695
50528SOL     OW53422   5.004  11.937  12.383
50528SOL    HW153423   4.958  11.999  12.326
50528SOL    HW253424   4.970  11.955  12.471
50529SOL     OW53425  14.082   3.590   2.774
50529SOL    HW153426  14.113   3.538   2.848
50529SOL    HW253427  14.040   3.666   2.815
50530SOL     OW53428   8.592  13.130   8.184
50530SOL    HW153429   8.613  13.068   8.253
50530SOL    HW253430   8.675  13.174   8.165
50531SOL     OW53431  10.963   6.114   6.238
50531SOL    HW153432  11.050   6.121   6.278
50531SOL    HW253433  10.931   6.204   6.234
50532SOL     OW53434  13.732   3.459   3.360
50532SOL    HW153435  13.783   3.445   3.280
50532SOL    HW253436  13.745   3.551   3.380
50533SOL     OW53437   1.461   7.277  14.510
50533SOL    HW153438   1.505   7.291  14.427
50533SOL    HW253439   1.369   7.298  14.492
50534SOL     OW53440   9.752   6.429   4.548
50534SOL    HW153441   9.844   6.451   4.533
50534SOL    HW253442   9.755   6.345   4.595
50535SOL     OW53443   2.674   4.245   4.885
50535SOL    HW153444   2.736   4.255   4.813
50535SOL    HW253445   2.727   4.257   4.964
50536SOL     OW53446  11.766   2.588   3.655
50536SOL    HW153447  11.823   2.516   3.682
50536SOL    HW253448  11.823   2.666   3.660
50537SOL     OW53449   0.339  14.383   6.444
50537SOL    HW153450   0.417  14.358   6.394
50537SOL    HW253451   0.275  14.408   6.378
50538SOL     OW53452  13.707  13.617   4.747
50538SOL    HW153453  13.676  13.528   4.731
50538SOL    HW253454  13.631  13.662   4.785
50539SOL     OW53455  10.076   6.759   5.645
50539SOL    HW153456   9.984   6.752   5.620
50539SOL    HW253457  10.114   6.675   5.621
50540SOL     OW53458  11.103   5.051   7.847
50540SOL    HW153459  11.042   5.059   7.774
50540SOL    HW253460  11.083   5.126   7.904
50541SOL     OW53461   7.767   3.842  10.128
50541SOL    HW153462   7.859   3.837  10.156
50541SOL    HW253463   7.750   3.936  10.120
50542SOL     OW53464   9.026  10.975   4.790
50542SOL    HW153465   9.077  10.933   4.860
50542SOL    HW253466   9.061  10.937   4.710
50543SOL     OW53467   3.271   2.791   9.829
50543SOL    HW153468   3.346   2.735   9.850
50543SOL    HW253469   3.214   2.735   9.775
50544SOL     OW53470   0.327   2.227  12.620
50544SOL    HW153471   0.295   2.179  12.544
50544SOL    HW253472   0.264   2.298  12.632
50545SOL     OW53473   6.310   3.481   3.153
50545SOL    HW153474   6.305   3.456   3.061
50545SOL    HW253475   6.395   3.525   3.161
50546SOL     OW53476  13.406   9.660   4.209
50546SOL    HW153477  13.379   9.691   4.295
50546SOL    HW253478  13.459   9.583   4.227
50547SOL     OW53479   1.518   3.855   1.108
50547SOL    HW153480   1.611   3.861   1.084
50547SOL    HW253481   1.505   3.763   1.131
50548SOL     OW53482   3.557   5.783  13.302
50548SOL    HW153483   3.595   5.742  13.224
50548SOL    HW253484   3.536   5.710  13.359
50549SOL     OW53485   5.963  14.473   9.621
50549SOL    HW153486   6.017  14.408   9.666
50549SOL    HW253487   5.888  14.424   9.588
50550SOL     OW53488   3.459   7.290  10.364
50550SOL    HW153489   3.529   7.352  10.380
50550SOL    HW253490   3.484   7.245  10.283
50551SOL     OW53491   6.033   0.894  14.176
50551SOL    HW153492   6.109   0.952  14.183
50551SOL    HW253493   6.060   0.828  14.112
50552SOL     OW53494   5.543  12.135   0.030
50552SOL    HW153495   5.627  12.106   0.066
50552SOL    HW253496   5.477  12.098   0.089
50553SOL     OW53497   7.244   7.208  13.612
50553SOL    HW153498   7.257   7.134  13.672
50553SOL    HW253499   7.256   7.170  13.525
50554SOL     OW53500  13.706  10.789   8.233
50554SOL    HW153501  13.663  10.719   8.283
50554SOL    HW253502  13.667  10.869   8.266
50555SOL     OW53503  11.098   1.165   0.023
50555SOL    HW153504  11.005   1.142   0.022
50555SOL    HW253505  11.143   1.080   0.017
50556SOL     OW53506   5.170   6.964  10.418
50556SOL    HW153507   5.128   6.965  10.332
50556SOL    HW253508   5.172   6.871  10.443
50557SOL     OW53509   2.112   7.685   6.334
50557SOL    HW153510   2.181   7.750   6.341
50557SOL    HW253511   2.148   7.618   6.276
50558SOL     OW53512   4.238   5.347   6.116
50558SOL    HW153513   4.251   5.301   6.033
50558SOL    HW253514   4.143   5.349   6.128
50559SOL     OW53515   5.387   0.711  14.526
50559SOL    HW153516   5.328   0.688  14.598
50559SOL    HW253517   5.352   0.793  14.492
50560SOL     OW53518   0.488  12.349  14.845
50560SOL    HW153519   0.434  12.366  14.768
50560SOL    HW253520   0.558  12.413  14.840
50561SOL     OW53521  14.206   7.844  11.564
50561SOL    HW153522  14.127   7.862  11.514
50561SOL    HW253523  14.278   7.868  11.506
50562SOL     OW53524   3.279   9.636   7.069
50562SOL    HW153525   3.231   9.695   7.011
50562SOL    HW253526   3.224   9.628   7.147
50563SOL     OW53527  10.381   0.655   6.070
50563SOL    HW153528  10.303   0.676   6.122
50563SOL    HW253529  10.371   0.562   6.050
50564SOL     OW53530  14.169  11.462  14.497
50564SOL    HW153531  14.111  11.538  14.496
50564SOL    HW253532  14.122  11.395  14.447
50565SOL     OW53533   8.734  10.562  13.052
50565SOL    HW153534   8.758  10.502  13.122
50565SOL    HW253535   8.806  10.555  12.989
50566SOL     OW53536   9.374   5.356   1.129
50566SOL    HW153537   9.374   5.265   1.098
50566SOL    HW253538   9.308   5.399   1.076
50567SOL     OW53539   2.056  13.450  11.944
50567SOL    HW153540   2.118  13.483  11.880
50567SOL    HW253541   1.978  13.427  11.893
50568SOL     OW53542   8.755   6.767   6.922
50568SOL    HW153543   8.673   6.772   6.873
50568SOL    HW253544   8.761   6.852   6.967
50569SOL     OW53545   5.089   6.860   1.922
50569SOL    HW153546   5.068   6.793   1.856
50569SOL    HW253547   5.140   6.814   1.988
50570SOL     OW53548   4.678   5.498   1.797
50570SOL    HW153549   4.618   5.429   1.771
50570SOL    HW253550   4.654   5.573   1.742
50571SOL     OW53551   2.349   7.810   9.937
50571SOL    HW153552   2.280   7.833   9.875
50571SOL    HW253553   2.416   7.877   9.925
50572SOL     OW53554  10.327   8.848   5.659
50572SOL    HW153555  10.385   8.850   5.735
50572SOL    HW253556  10.299   8.757   5.652
50573SOL     OW53557   4.257  12.908   8.189
50573SOL    HW153558   4.331  12.919   8.248
50573SOL    HW253559   4.291  12.853   8.118
50574SOL     OW53560   9.597  11.271   4.055
50574SOL    HW153561   9.536  11.304   4.121
50574SOL    HW253562   9.553  11.194   4.018
50575SOL     OW53563   7.211   7.955  14.801
50575SOL    HW153564   7.125   7.995  14.815
50575SOL    HW253565   7.195   7.886  14.736
50576SOL     OW53566   2.677   2.327  14.007
50576SOL    HW153567   2.762   2.315  13.964
50576SOL    HW253568   2.648   2.239  14.028
50577SOL     OW53569  12.757  12.690   1.011
50577SOL    HW153570  12.770  12.665   1.102
50577SOL    HW253571  12.785  12.613   0.961
50578SOL     OW53572   1.722  13.572   2.590
50578SOL    HW153573   1.790  13.528   2.539
50578SOL    HW253574   1.692  13.505   2.652
50579SOL     OW53575   6.863   7.475   6.936
50579SOL    HW153576   6.941   7.456   6.884
50579SOL    HW253577   6.805   7.401   6.921
50580SOL     OW53578  11.066   0.140   7.218
50580SOL    HW153579  11.123   0.131   7.294
50580SOL    HW253580  11.068   0.234   7.197
50581SOL     OW53581   2.479   7.192  10.082
50581SOL    HW153582   2.533   7.213  10.006
50581SOL    HW253583   2.390   7.183  10.046
50582SOL     OW53584   2.904   1.180   1.629
50582SOL    HW153585   2.903   1.243   1.701
50582SOL    HW253586   2.992   1.143   1.630
50583SOL     OW53587   1.332  10.069  12.997
50583SOL    HW153588   1.391  10.137  13.028
50583SOL    HW253589   1.379  10.028  12.925
50584SOL     OW53590   2.664   7.318   0.476
50584SOL    HW153591   2.577   7.346   0.505
50584SOL    HW253592   2.684   7.241   0.530
50585SOL     OW53593  13.077   7.911   5.418
50585SOL    HW153594  13.095   7.898   5.511
50585SOL    HW253595  13.133   7.847   5.374
50586SOL     OW53596   8.103  10.623  13.741
50586SOL    HW153597   8.141  10.705  13.710
50586SOL    HW253598   8.011  10.629  13.719
50587SOL     OW53599  11.189   7.298   3.912
50587SOL    HW153600  11.147   7.358   3.850
50587SOL    HW253601  11.142   7.310   3.994
50588SOL     OW53602  12.267  11.199  13.717
50588SOL    HW153603  12.294  11.220  13.807
50588SOL    HW253604  12.175  11.222  13.714
50589SOL     OW53605   4.068   0.699   8.220
50589SOL    HW153606   4.029   0.767   8.164
50589SOL    HW253607   4.089   0.744   8.302
50590SOL     OW53608   0.714   1.141   0.335
50590SOL    HW153609   0.758   1.184   0.262
50590SOL    HW253610   0.769   1.161   0.411
50591SOL     OW53611  14.044   8.833  13.707
50591SOL    HW153612  14.039   8.737  13.708
50591SOL    HW253613  14.047   8.857  13.615
50592SOL     OW53614   5.286   5.071  14.440
50592SOL    HW153615   5.291   5.161  14.470
50592SOL    HW253616   5.363   5.060  14.384
50593SOL     OW53617   5.805   1.967   2.659
50593SOL    HW153618   5.816   1.879   2.697
50593SOL    HW253619   5.892   1.989   2.627
50594SOL     OW53620   3.093   3.684   8.489
50594SOL    HW153621   3.114   3.750   8.423
50594SOL    HW253622   3.125   3.721   8.571
50595SOL     OW53623   9.303   1.188  11.713
50595SOL    HW153624   9.345   1.141  11.785
50595SOL    HW253625   9.372   1.242  11.675
50596SOL     OW53626  13.028  11.046   2.422
50596SOL    HW153627  12.979  10.965   2.437
50596SOL    HW253628  12.963  11.115   2.428
50597SOL     OW53629   3.612   6.128   5.328
50597SOL    HW153630   3.557   6.109   5.404
50597SOL    HW253631   3.683   6.063   5.333
50598SOL     OW53632   9.063   1.732   1.530
50598SOL    HW153633   9.138   1.716   1.473
50598SOL    HW253634   9.054   1.651   1.580
50599SOL     OW53635   3.188  14.379   6.399
50599SOL    HW153636   3.108  14.415   6.361
50599SOL    HW253637   3.166  14.364   6.491
50600SOL     OW53638  12.488  14.533   6.610
50600SOL    HW153639  12.428  14.532   6.685
50600SOL    HW253640  12.524  14.622   6.610
50601SOL     OW53641   1.687  12.579  10.498
50601SOL    HW153642   1.775  12.558  10.467
50601SOL    HW253643   1.689  12.673  10.516
50602SOL     OW53644  11.304   8.404   6.733
50602SOL    HW153645  11.209   8.394   6.741
50602SOL    HW253646  11.334   8.319   6.702
50603SOL     OW53647   6.678  13.984   6.144
50603SOL    HW153648   6.668  13.913   6.081
50603SOL    HW253649   6.759  13.964   6.190
50604SOL     OW53650  10.122   6.928   3.834
50604SOL    HW153651  10.209   6.967   3.821
50604SOL    HW253652  10.135   6.835   3.816
50605SOL     OW53653  10.898  11.910   5.880
50605SOL    HW153654  10.834  11.890   5.948
50605SOL    HW253655  10.849  11.962   5.816
50606SOL     OW53656  12.979  14.394   1.652
50606SOL    HW153657  13.017  14.379   1.566
50606SOL    HW253658  12.975  14.307   1.692
50607SOL     OW53659  13.706   5.056   2.952
50607SOL    HW153660  13.683   4.963   2.952
50607SOL    HW253661  13.768   5.065   2.879
50608SOL     OW53662  12.156  12.224   5.450
50608SOL    HW153663  12.091  12.154   5.454
50608SOL    HW253664  12.236  12.186   5.484
50609SOL     OW53665   5.375   6.465   5.076
50609SOL    HW153666   5.307   6.406   5.044
50609SOL    HW253667   5.350   6.551   5.044
50610SOL     OW53668   7.058   3.115   0.588
50610SOL    HW153669   6.986   3.173   0.562
50610SOL    HW253670   7.082   3.068   0.508
50611SOL     OW53671  13.200  13.411   0.605
50611SOL    HW153672  13.175  13.324   0.573
50611SOL    HW253673  13.120  13.464   0.595
50612SOL     OW53674   8.206   4.236   6.399
50612SOL    HW153675   8.175   4.286   6.475
50612SOL    HW253676   8.128   4.194   6.364
50613SOL     OW53677   5.188   0.099  13.221
50613SOL    HW153678   5.182   0.160  13.294
50613SOL    HW253679   5.098   0.075  13.201
50614SOL     OW53680   1.016  13.530   9.781
50614SOL    HW153681   1.081  13.519   9.850
50614SOL    HW253682   1.051  13.601   9.726
50615SOL     OW53683  10.772   5.204   9.928
50615SOL    HW153684  10.847   5.148   9.910
50615SOL    HW253685  10.810   5.281   9.971
50616SOL     OW53686   5.143   7.565   0.535
50616SOL    HW153687   5.185   7.614   0.605
50616SOL    HW253688   5.162   7.473   0.555
50617SOL     OW53689   8.460   6.237  10.591
50617SOL    HW153690   8.371   6.217  10.621
50617SOL    HW253691   8.498   6.288  10.662
50618SOL     OW53692  13.742   5.105   2.468
50618SOL    HW153693  13.744   5.176   2.404
50618SOL    HW253694  13.786   5.032   2.423
50619SOL     OW53695   4.552  12.427   3.836
50619SOL    HW153696   4.610  12.501   3.853
50619SOL    HW253697   4.485  12.461   3.778
50620SOL     OW53698   9.210   2.056   3.873
50620SOL    HW153699   9.133   2.102   3.906
50620SOL    HW253700   9.273   2.061   3.945
50621SOL     OW53701  13.048   9.375   5.957
50621SOL    HW153702  12.981   9.307   5.957
50621SOL    HW253703  13.060   9.397   5.864
50622SOL     OW53704   5.062   1.117  13.414
50622SOL    HW153705   5.053   1.204  13.374
50622SOL    HW253706   4.996   1.064  13.371
50623SOL     OW53707  13.797   1.078   8.102
50623SOL    HW153708  13.764   0.993   8.072
50623SOL    HW253709  13.838   1.117   8.025
50624SOL     OW53710  11.402   3.580   0.547
50624SOL    HW153711  11.315   3.550   0.575
50624SOL    HW253712  11.439   3.622   0.624
50625SOL     OW53713  14.403   4.618   8.966
50625SOL    HW153714  14.462   4.693   8.962
50625SOL    HW253715  14.317   4.655   8.986
50626SOL     OW53716   2.714   8.980   5.554
50626SOL    HW153717   2.699   8.929   5.474
50626SOL    HW253718   2.803   9.015   5.544
50627SOL     OW53719   6.014  13.954  10.430
50627SOL    HW153720   6.076  13.907  10.375
50627SOL    HW253721   6.069  14.009  10.486
50628SOL     OW53722  12.267   1.868   0.411
50628SOL    HW153723  12.190   1.813   0.394
50628SOL    HW253724  12.308   1.828   0.488
50629SOL     OW53725  11.281   1.869   0.146
50629SOL    HW153726  11.359   1.905   0.104
50629SOL    HW253727  11.249   1.940   0.202
50630SOL     OW53728   5.250   6.315   2.140
50630SOL    HW153729   5.307   6.260   2.194
50630SOL    HW253730   5.164   6.308   2.180
50631SOL     OW53731   1.798   2.054  11.876
50631SOL    HW153732   1.873   2.082  11.823
50631SOL    HW253733   1.728   2.037  11.812
50632SOL     OW53734  10.622   7.829   9.854
50632SOL    HW153735  10.613   7.916   9.814
50632SOL    HW253736  10.624   7.768   9.780
50633SOL     OW53737   6.349   6.723   1.757
50633SOL    HW153738   6.435   6.758   1.734
50633SOL    HW253739   6.366   6.632   1.781
50634SOL     OW53740  13.104   8.264   5.030
50634SOL    HW153741  13.192   8.301   5.019
50634SOL    HW253742  13.120   8.174   5.057
50635SOL     OW53743   6.600   5.395  14.063
50635SOL    HW153744   6.598   5.410  14.157
50635SOL    HW253745   6.692   5.402  14.040
50636SOL     OW53746   0.291  11.670  12.302
50636SOL    HW153747   0.291  11.611  12.377
50636SOL    HW253748   0.242  11.623  12.234
50637SOL     OW53749   0.656   1.147   8.105
50637SOL    HW153750   0.740   1.103   8.120
50637SOL    HW253751   0.656   1.166   8.011
50638SOL     OW53752   7.631  14.694   4.333
50638SOL    HW153753   7.642  14.785   4.360
50638SOL    HW253754   7.645  14.695   4.238
50639SOL     OW53755   1.464   1.061   0.224
50639SOL    HW153756   1.420   0.985   0.187
50639SOL    HW253757   1.512   1.026   0.299
50640SOL     OW53758   8.614   8.113  12.049
50640SOL    HW153759   8.704   8.133  12.074
50640SOL    HW253760   8.561   8.173  12.102
50641SOL     OW53761  13.943   9.268   8.137
50641SOL    HW153762  14.007   9.243   8.071
50641SOL    HW253763  13.906   9.350   8.103
50642SOL     OW53764  13.345  14.049   6.709
50642SOL    HW153765  13.399  13.984   6.664
50642SOL    HW253766  13.369  14.040   6.802
50643SOL     OW53767  10.928   2.517   3.921
50643SOL    HW153768  10.865   2.492   3.989
50643SOL    HW253769  10.921   2.448   3.855
50644SOL     OW53770  14.086   0.158  13.987
50644SOL    HW153771  14.035   0.231  13.949
50644SOL    HW253772  14.168   0.158  13.938
50645SOL     OW53773  10.977   3.529   6.480
50645SOL    HW153774  11.004   3.498   6.393
50645SOL    HW253775  10.937   3.453   6.521
50646SOL     OW53776   4.085   9.740   1.120
50646SOL    HW153777   4.083   9.829   1.085
50646SOL    HW253778   3.994   9.712   1.119
50647SOL     OW53779   6.551   2.040   1.115
50647SOL    HW153780   6.518   2.100   1.182
50647SOL    HW253781   6.646   2.043   1.126
50648SOL     OW53782   3.218  12.275   6.949
50648SOL    HW153783   3.125  12.268   6.968
50648SOL    HW253784   3.259  12.205   7.000
50649SOL     OW53785  12.371   4.549   5.168
50649SOL    HW153786  12.308   4.526   5.237
50649SOL    HW253787  12.441   4.485   5.178
50650SOL     OW53788   7.905  10.677   2.268
50650SOL    HW153789   7.923  10.771   2.273
50650SOL    HW253790   7.981  10.635   2.307
50651SOL     OW53791   6.134   1.772   6.009
50651SOL    HW153792   6.087   1.829   6.070
50651SOL    HW253793   6.124   1.815   5.924
50652SOL     OW53794   6.070   6.040   5.289
50652SOL    HW153795   5.990   5.994   5.267
50652SOL    HW253796   6.131   5.972   5.318
50653SOL     OW53797  14.715   7.049   9.087
50653SOL    HW153798  14.780   7.022   9.022
50653SOL    HW253799  14.671   7.124   9.047
50654SOL     OW53800  13.985   4.544  10.230
50654SOL    HW153801  13.941   4.567  10.148
50654SOL    HW253802  14.073   4.582  10.221
50655SOL     OW53803  13.698   0.189  14.319
50655SOL    HW153804  13.727   0.270  14.359
50655SOL    HW253805  13.685   0.211  14.227
50656SOL     OW53806   4.782  14.551   5.259
50656SOL    HW153807   4.850  14.500   5.302
50656SOL    HW253808   4.713  14.488   5.240
50657SOL     OW53809   1.278   6.591  10.331
50657SOL    HW153810   1.257   6.683  10.313
50657SOL    HW253811   1.286   6.586  10.426
50658SOL     OW53812   7.130  11.426   2.115
50658SOL    HW153813   7.071  11.352   2.100
50658SOL    HW253814   7.102  11.462   2.199
50659SOL     OW53815  11.187   1.090   1.898
50659SOL    HW153816  11.152   1.002   1.909
50659SOL    HW253817  11.242   1.104   1.975
50660SOL     OW53818  14.554  14.192   5.018
50660SOL    HW153819  14.463  14.210   5.042
50660SOL    HW253820  14.550  14.161   4.927
50661SOL     OW53821   0.595   7.755   9.272
50661SOL    HW153822   0.681   7.737   9.234
50661SOL    HW253823   0.572   7.842   9.239
50662SOL     OW53824  14.506  10.274   8.830
50662SOL    HW153825  14.588  10.284   8.878
50662SOL    HW253826  14.450  10.344   8.865
50663SOL     OW53827   7.766  13.986   4.906
50663SOL    HW153828   7.688  14.042   4.907
50663SOL    HW253829   7.839  14.047   4.911
50664SOL     OW53830  11.078  14.352  14.445
50664SOL    HW153831  10.997  14.304  14.466
50664SOL    HW253832  11.050  14.443  14.436
50665SOL     OW53833   4.479   0.929   2.346
50665SOL    HW153834   4.526   0.868   2.289
50665SOL    HW253835   4.522   1.013   2.332
50666SOL     OW53836   9.105   3.223   6.200
50666SOL    HW153837   9.063   3.242   6.116
50666SOL    HW253838   9.139   3.134   6.190
50667SOL     OW53839   0.787   7.795  13.880
50667SOL    HW153840   0.771   7.722  13.819
50667SOL    HW253841   0.814   7.867  13.824
50668SOL     OW53842   2.598  10.185  13.336
50668SOL    HW153843   2.617  10.115  13.274
50668SOL    HW253844   2.684  10.211  13.370
50669SOL     OW53845   0.625  13.307  14.693
50669SOL    HW153846   0.588  13.255  14.764
50669SOL    HW253847   0.720  13.303  14.707
50670SOL     OW53848  10.984   0.828  14.606
50670SOL    HW153849  11.024   0.741  14.610
50670SOL    HW253850  10.939   0.838  14.690
50671SOL     OW53851   5.590   0.026   2.246
50671SOL    HW153852   5.537   0.020   2.166
50671SOL    HW253853   5.528   0.011   2.317
50672SOL     OW53854   3.708  12.757   3.931
50672SOL    HW153855   3.684  12.841   3.891
50672SOL    HW253856   3.794  12.736   3.895
50673SOL     OW53857   6.481   5.444   2.003
50673SOL    HW153858   6.387   5.429   2.013
50673SOL    HW253859   6.511   5.372   1.948
50674SOL     OW53860  11.011   2.494   4.686
50674SOL    HW153861  10.965   2.463   4.763
50674SOL    HW253862  11.086   2.435   4.678
50675SOL     OW53863   4.178   7.069   6.547
50675SOL    HW153864   4.179   7.105   6.636
50675SOL    HW253865   4.159   6.975   6.560
50676SOL     OW53866   6.352  14.753   4.540
50676SOL    HW153867   6.327  14.693   4.469
50676SOL    HW253868   6.439  14.785   4.514
50677SOL     OW53869   2.751   8.889  10.370
50677SOL    HW153870   2.796   8.970  10.343
50677SOL    HW253871   2.748   8.895  10.465
50678SOL     OW53872   9.893   7.374   3.406
50678SOL    HW153873   9.799   7.369   3.422
50678SOL    HW253874   9.929   7.297   3.451
50679SOL     OW53875   6.718   6.913   6.027
50679SOL    HW153876   6.636   6.871   6.056
50679SOL    HW253877   6.765   6.931   6.108
50680SOL     OW53878   4.237  11.623  10.120
50680SOL    HW153879   4.304  11.563  10.152
50680SOL    HW253880   4.266  11.648  10.032
50681SOL     OW53881  13.056  11.330   1.796
50681SOL    HW153882  13.072  11.268   1.868
50681SOL    HW253883  12.997  11.396   1.834
50682SOL     OW53884   1.685   4.704   6.716
50682SOL    HW153885   1.729   4.741   6.639
50682SOL    HW253886   1.617   4.648   6.680
50683SOL     OW53887   1.612  11.173   6.536
50683SOL    HW153888   1.670  11.218   6.598
50683SOL    HW253889   1.547  11.130   6.592
50684SOL     OW53890  11.133   4.424   7.338
50684SOL    HW153891  11.184   4.413   7.258
50684SOL    HW253892  11.194   4.404   7.409
50685SOL     OW53893   1.054   8.314   7.858
50685SOL    HW153894   1.024   8.351   7.774
50685SOL    HW253895   1.149   8.312   7.849
50686SOL     OW53896  12.530   2.636  11.996
50686SOL    HW153897  12.465   2.673  11.936
50686SOL    HW253898  12.502   2.668  12.083
50687SOL     OW53899   3.580  13.314   5.455
50687SOL    HW153900   3.589  13.388   5.516
50687SOL    HW253901   3.581  13.236   5.512
50688SOL     OW53902   1.975   2.419   9.537
50688SOL    HW153903   1.939   2.360   9.603
50688SOL    HW253904   1.942   2.385   9.454
50689SOL     OW53905   6.915   1.554   2.230
50689SOL    HW153906   6.923   1.549   2.135
50689SOL    HW253907   6.903   1.463   2.258
50690SOL     OW53908   8.547  14.730   2.333
50690SOL    HW153909   8.583  14.727   2.244
50690SOL    HW253910   8.619  14.762   2.387
50691SOL     OW53911   3.374   5.372  13.939
50691SOL    HW153912   3.467   5.355  13.928
50691SOL    HW253913   3.350   5.322  14.017
50692SOL     OW53914  10.920   7.401  13.198
50692SOL    HW153915  10.989   7.336  13.184
50692SOL    HW253916  10.884   7.417  13.111
50693SOL     OW53917  13.502   9.428   2.836
50693SOL    HW153918  13.526   9.377   2.914
50693SOL    HW253919  13.413   9.400   2.815
50694SOL     OW53920   4.337   0.413   8.208
50694SOL    HW153921   4.408   0.457   8.160
50694SOL    HW253922   4.331   0.326   8.167
50695SOL     OW53923   4.532  14.186  10.326
50695SOL    HW153924   4.453  14.201  10.274
50695SOL    HW253925   4.600  14.236  10.281
50696SOL     OW53926   1.760   7.216   3.654
50696SOL    HW153927   1.793   7.159   3.585
50696SOL    HW253928   1.797   7.302   3.634
50697SOL     OW53929   9.540  13.063  11.774
50697SOL    HW153930   9.449  13.037  11.758
50697SOL    HW253931   9.589  13.023  11.702
50698SOL     OW53932   2.574   5.154   6.977
50698SOL    HW153933   2.626   5.088   7.022
50698SOL    HW253934   2.634   5.227   6.964
50699SOL     OW53935  10.657   5.396   1.413
50699SOL    HW153936  10.645   5.333   1.342
50699SOL    HW253937  10.640   5.345   1.493
50700SOL     OW53938  12.401  13.086  10.665
50700SOL    HW153939  12.484  13.124  10.694
50700SOL    HW253940  12.386  13.012  10.724
50701SOL     OW53941  11.076   8.572   1.182
50701SOL    HW153942  11.069   8.503   1.248
50701SOL    HW253943  11.113   8.528   1.106
50702SOL     OW53944  10.672   3.017   6.775
50702SOL    HW153945  10.632   3.006   6.688
50702SOL    HW253946  10.598   3.032   6.834
50703SOL     OW53947  14.052   3.947   9.498
50703SOL    HW153948  14.030   4.012   9.431
50703SOL    HW253949  13.974   3.892   9.506
50704SOL     OW53950   8.267  10.441   6.732
50704SOL    HW153951   8.285  10.533   6.714
50704SOL    HW253952   8.336  10.394   6.685
50705SOL     OW53953   4.303   9.428  13.460
50705SOL    HW153954   4.237   9.427  13.391
50705SOL    HW253955   4.347   9.513  13.450
50706SOL     OW53956  10.760   5.666  12.950
50706SOL    HW153957  10.806   5.640  13.029
50706SOL    HW253958  10.749   5.584  12.901
50707SOL     OW53959   4.707  13.499   4.315
50707SOL    HW153960   4.696  13.595   4.316
50707SOL    HW253961   4.632  13.466   4.363
50708SOL     OW53962  11.452   2.907  10.898
50708SOL    HW153963  11.471   2.885  10.989
50708SOL    HW253964  11.414   2.995  10.903
50709SOL     OW53965  14.053   3.345   5.687
50709SOL    HW153966  14.024   3.409   5.752
50709SOL    HW253967  14.143   3.324   5.713
50710SOL     OW53968  12.697   7.642   7.573
50710SOL    HW153969  12.643   7.575   7.531
50710SOL    HW253970  12.659   7.725   7.543
50711SOL     OW53971   5.426   3.472   9.166
50711SOL    HW153972   5.356   3.532   9.140
50711SOL    HW253973   5.419   3.467   9.261
50712SOL     OW53974   8.338  10.021   3.678
50712SOL    HW153975   8.406   9.975   3.628
50712SOL    HW253976   8.385  10.059   3.752
50713SOL     OW53977   9.816   6.460  11.796
50713SOL    HW153978   9.910   6.471  11.780
50713SOL    HW253979   9.778   6.442  11.710
50714SOL     OW53980   4.632  14.085  12.197
50714SOL    HW153981   4.658  13.997  12.227
50714SOL    HW253982   4.697  14.107  12.130
50715SOL     OW53983   0.643  11.099  13.371
50715SOL    HW153984   0.642  11.177  13.315
50715SOL    HW253985   0.734  11.091  13.400
50716SOL     OW53986   3.293  10.812   3.720
50716SOL    HW153987   3.348  10.734   3.724
50716SOL    HW253988   3.317  10.863   3.797
50717SOL     OW53989   3.078   7.653  14.227
50717SOL    HW153990   3.019   7.714  14.182
50717SOL    HW253991   3.165   7.691  14.216
50718SOL     OW53992   6.369  10.135  13.843
50718SOL    HW153993   6.344  10.060  13.789
50718SOL    HW253994   6.295  10.147  13.902
50719SOL     OW53995  13.306   7.634  14.021
50719SOL    HW153996  13.341   7.617  13.933
50719SOL    HW253997  13.329   7.557  14.072
50720SOL     OW53998   1.501  10.014   5.068
50720SOL    HW153999   1.583  10.062   5.077
50720SOL    HW254000   1.455  10.029   5.151
50721SOL     OW54001  12.310  11.951   5.030
50721SOL    HW154002  12.275  12.036   5.005
50721SOL    HW254003  12.271  11.933   5.116
50722SOL     OW54004   5.685   2.150  11.808
50722SOL    HW154005   5.718   2.065  11.777
50722SOL    HW254006   5.691   2.144  11.904
50723SOL     OW54007   1.083   6.935   2.967
50723SOL    HW154008   1.070   6.858   3.023
50723SOL    HW254009   1.157   6.981   3.008
50724SOL     OW54010   1.996  11.947  13.834
50724SOL    HW154011   1.942  11.959  13.755
50724SOL    HW254012   2.012  11.852  13.838
50725SOL     OW54013  13.631  12.760   2.934
50725SOL    HW154014  13.579  12.838   2.954
50725SOL    HW254015  13.602  12.695   2.998
50726SOL     OW54016   8.486   0.880   7.147
50726SOL    HW154017   8.420   0.901   7.214
50726SOL    HW254018   8.568   0.872   7.196
50727SOL     OW54019   9.562   3.054   9.844
50727SOL    HW154020   9.551   3.046   9.938
50727SOL    HW254021   9.597   2.969   9.816
50728SOL     OW54022  14.574   8.395   3.946
50728SOL    HW154023  14.510   8.373   4.014
50728SOL    HW254024  14.592   8.311   3.903
50729SOL     OW54025   2.388   0.772   3.962
50729SOL    HW154026   2.436   0.689   3.957
50729SOL    HW254027   2.394   0.809   3.875
50730SOL     OW54028   7.479  13.855   4.987
50730SOL    HW154029   7.456  13.930   5.042
50730SOL    HW254030   7.479  13.781   5.047
50731SOL     OW54031   5.176   2.646   0.989
50731SOL    HW154032   5.122   2.601   0.924
50731SOL    HW254033   5.233   2.702   0.937
50732SOL     OW54034   3.169  10.928   9.960
50732SOL    HW154035   3.208  10.879   9.888
50732SOL    HW254036   3.216  10.899  10.038
50733SOL     OW54037   3.794  14.500  14.757
50733SOL    HW154038   3.872  14.443  14.755
50733SOL    HW254039   3.818  14.574  14.702
50734SOL     OW54040   9.142  11.898  10.036
50734SOL    HW154041   9.070  11.957  10.058
50734SOL    HW254042   9.181  11.875  10.120
50735SOL     OW54043   6.071  12.009   5.359
50735SOL    HW154044   6.057  11.914   5.366
50735SOL    HW254045   6.057  12.028   5.266
50736SOL     OW54046   7.856   6.559   0.641
50736SOL    HW154047   7.792   6.488   0.642
50736SOL    HW254048   7.931   6.526   0.690
50737SOL     OW54049  13.121   9.250   3.755
50737SOL    HW154050  13.124   9.339   3.790
50737SOL    HW254051  13.028   9.236   3.736
50738SOL     OW54052   3.152   9.349   2.629
50738SOL    HW154053   3.092   9.395   2.570
50738SOL    HW254054   3.112   9.358   2.715
50739SOL     OW54055   4.115  11.533  12.102
50739SOL    HW154056   4.113  11.538  12.006
50739SOL    HW254057   4.196  11.487  12.122
50740SOL     OW54058  13.476  10.007  13.358
50740SOL    HW154059  13.437  10.071  13.416
50740SOL    HW254060  13.450  10.035  13.270
50741SOL     OW54061   2.883   3.395   2.029
50741SOL    HW154062   2.921   3.482   2.033
50741SOL    HW254063   2.957   3.335   2.041
50742SOL     OW54064  12.301   8.937   9.706
50742SOL    HW154065  12.352   8.856   9.698
50742SOL    HW254066  12.234   8.917   9.771
50743SOL     OW54067   1.199  12.303  11.842
50743SOL    HW154068   1.208  12.382  11.788
50743SOL    HW254069   1.144  12.245  11.790
50744SOL     OW54070  12.594   2.969  13.871
50744SOL    HW154071  12.501   2.971  13.848
50744SOL    HW254072  12.603   3.033  13.942
50745SOL     OW54073   3.112   1.371  12.721
50745SOL    HW154074   3.150   1.436  12.662
50745SOL    HW254075   3.021   1.399  12.732
50746SOL     OW54076   5.062  10.267   5.284
50746SOL    HW154077   5.012  10.186   5.275
50746SOL    HW254078   5.006  10.324   5.336
50747SOL     OW54079   1.038   7.276   5.073
50747SOL    HW154080   1.083   7.192   5.081
50747SOL    HW254081   1.108   7.342   5.080
50748SOL     OW54082   4.103   4.841   0.294
50748SOL    HW154083   4.115   4.928   0.255
50748SOL    HW254084   4.016   4.814   0.266
50749SOL     OW54085  10.254  13.952  10.351
50749SOL    HW154086  10.255  13.860  10.325
50749SOL    HW254087  10.179  13.960  10.410
50750SOL     OW54088   2.035   8.731   2.104
50750SOL    HW154089   2.093   8.659   2.079
50750SOL    HW254090   1.964   8.689   2.153
50751SOL     OW54091   6.362   3.525  14.278
50751SOL    HW154092   6.354   3.492  14.367
50751SOL    HW254093   6.453   3.508  14.253
50752SOL     OW54094   7.035   0.262  11.056
50752SOL    HW154095   6.940   0.261  11.069
50752SOL    HW254096   7.050   0.207  10.979
50753SOL     OW54097   5.406   1.178   2.789
50753SOL    HW154098   5.320   1.180   2.747
50753SOL    HW254099   5.422   1.268   2.818
50754SOL     OW54100   7.074   6.780  12.323
50754SOL    HW154101   7.077   6.685  12.312
50754SOL    HW254102   7.121   6.815  12.248
50755SOL     OW54103  12.303  13.592  13.777
50755SOL    HW154104  12.342  13.609  13.863
50755SOL    HW254105  12.213  13.622  13.784
50756SOL     OW54106   4.183  13.033   3.498
50756SOL    HW154107   4.152  12.973   3.430
50756SOL    HW254108   4.202  13.115   3.451
50757SOL     OW54109  10.436   2.042   9.725
50757SOL    HW154110  10.350   2.060   9.688
50757SOL    HW254111  10.429   2.066   9.817
50758SOL     OW54112   8.267   3.413   7.580
50758SOL    HW154113   8.316   3.482   7.625
50758SOL    HW254114   8.278   3.335   7.634
50759SOL     OW54115   8.055  10.388   1.017
50759SOL    HW154116   8.088  10.363   1.104
50759SOL    HW254117   8.085  10.318   0.960
50760SOL     OW54118  13.622   7.178  12.812
50760SOL    HW154119  13.596   7.086  12.815
50760SOL    HW254120  13.577   7.219  12.886
50761SOL     OW54121   4.056   3.906  11.980
50761SOL    HW154122   3.981   3.958  12.008
50761SOL    HW254123   4.042   3.890  11.887
50762SOL     OW54124  12.289   8.249  11.353
50762SOL    HW154125  12.261   8.286  11.436
50762SOL    HW254126  12.293   8.155  11.368
50763SOL     OW54127   1.626   6.444  13.765
50763SOL    HW154128   1.705   6.488  13.795
50763SOL    HW254129   1.611   6.481  13.678
50764SOL     OW54130   7.101   9.106   1.192
50764SOL    HW154131   7.169   9.053   1.232
50764SOL    HW254132   7.135   9.196   1.197
50765SOL     OW54133   5.398  13.236   8.651
50765SOL    HW154134   5.393  13.226   8.556
50765SOL    HW254135   5.366  13.154   8.686
50766SOL     OW54136   9.677   7.607  13.261
50766SOL    HW154137   9.697   7.590  13.353
50766SOL    HW254138   9.667   7.521  13.222
50767SOL     OW54139   3.809   5.010   2.787
50767SOL    HW154140   3.733   5.045   2.834
50767SOL    HW254141   3.871   5.083   2.784
50768SOL     OW54142   0.163   3.994   2.284
50768SOL    HW154143   0.247   3.997   2.329
50768SOL    HW254144   0.163   3.909   2.239
50769SOL     OW54145  14.653  10.597   2.548
50769SOL    HW154146  14.578  10.588   2.490
50769SOL    HW254147  14.636  10.676   2.599
50770SOL     OW54148   5.470   3.285   7.844
50770SOL    HW154149   5.539   3.245   7.790
50770SOL    HW254150   5.404   3.216   7.854
50771SOL     OW54151   7.578   3.931   5.885
50771SOL    HW154152   7.526   3.981   5.947
50771SOL    HW254153   7.554   3.839   5.901
50772SOL     OW54154  12.312  11.977  12.269
50772SOL    HW154155  12.231  12.020  12.241
50772SOL    HW254156  12.350  11.943  12.188
50773SOL     OW54157   1.369   7.790  13.747
50773SOL    HW154158   1.286   7.836  13.738
50773SOL    HW254159   1.353   7.703  13.710
50774SOL     OW54160   0.185   8.004   7.998
50774SOL    HW154161   0.180   8.065   7.925
50774SOL    HW254162   0.139   8.048   8.069
50775SOL     OW54163   2.538  14.309  11.504
50775SOL    HW154164   2.460  14.282  11.456
50775SOL    HW254165   2.585  14.228  11.522
50776SOL     OW54166   6.756   6.060   0.376
50776SOL    HW154167   6.723   6.140   0.336
50776SOL    HW254168   6.846   6.081   0.401
50777SOL     OW54169  10.064  10.880   8.619
50777SOL    HW154170  10.000  10.938   8.661
50777SOL    HW254171  10.147  10.928   8.623
50778SOL     OW54172   2.651  11.874   4.162
50778SOL    HW154173   2.647  11.918   4.076
50778SOL    HW254174   2.729  11.819   4.156
50779SOL     OW54175  12.005   1.741   0.367
50779SOL    HW154176  11.997   1.647   0.383
50779SOL    HW254177  11.941   1.782   0.424
50780SOL     OW54178  13.961  14.877   8.555
50780SOL    HW154179  13.880   0.047   8.538
50780SOL    HW254180  14.017   0.058   8.603
50781SOL     OW54181   9.507  14.442   9.458
50781SOL    HW154182   9.516  14.533   9.428
50781SOL    HW254183   9.596  14.408   9.458
50782SOL     OW54184   5.128   2.316   6.766
50782SOL    HW154185   5.157   2.251   6.830
50782SOL    HW254186   5.066   2.370   6.814
50783SOL     OW54187   4.276   9.029   1.996
50783SOL    HW154188   4.342   8.986   1.941
50783SOL    HW254189   4.318   9.037   2.081
50784SOL     OW54190  10.651   4.059  12.272
50784SOL    HW154191  10.631   4.082  12.363
50784SOL    HW254192  10.713   3.986  12.279
50785SOL     OW54193   2.921  10.053   8.223
50785SOL    HW154194   2.957  10.117   8.163
50785SOL    HW254195   2.948  10.082   8.310
50786SOL     OW54196   9.200   5.843   7.807
50786SOL    HW154197   9.267   5.912   7.809
50786SOL    HW254198   9.227   5.781   7.875
50787SOL     OW54199   8.677   3.492   2.988
50787SOL    HW154200   8.690   3.434   2.912
50787SOL    HW254201   8.711   3.443   3.062
50788SOL     OW54202  13.082  12.139   0.033
50788SOL    HW154203  13.116  12.057  14.876
50788SOL    HW254204  13.122  12.144   0.120
50789SOL     OW54205   6.645   1.728   8.902
50789SOL    HW154206   6.682   1.706   8.817
50789SOL    HW254207   6.703   1.796   8.937
50790SOL     OW54208  13.478   3.480   3.468
50790SOL    HW154209  13.390   3.445   3.453
50790SOL    HW254210  13.537   3.412   3.436
50791SOL     OW54211   3.720  11.291   1.600
50791SOL    HW154212   3.813  11.306   1.620
50791SOL    HW254213   3.710  11.196   1.606
50792SOL     OW54214   5.974  14.465   4.100
50792SOL    HW154215   5.887  14.468   4.062
50792SOL    HW254216   5.962  14.422   4.185
50793SOL     OW54217   0.095   8.600   8.929
50793SOL    HW154218   0.117   8.674   8.985
50793SOL    HW254219   0.093   8.636   8.841
50794SOL     OW54220   7.033  11.579   7.398
50794SOL    HW154221   7.040  11.636   7.474
50794SOL    HW254222   7.105  11.607   7.341
50795SOL     OW54223   3.379   6.518  10.661
50795SOL    HW154224   3.395   6.482  10.574
50795SOL    HW254225   3.397   6.446  10.721
50796SOL     OW54226   5.103   9.289   3.766
50796SOL    HW154227   5.044   9.219   3.737
50796SOL    HW254228   5.137   9.326   3.685
50797SOL     OW54229  12.197  13.273   7.932
50797SOL    HW154230  12.248  13.306   8.006
50797SOL    HW254231  12.249  13.202   7.896
50798SOL     OW54232   0.418   7.683  11.095
50798SOL    HW154233   0.491   7.671  11.156
50798SOL    HW254234   0.342   7.652  11.144
50799SOL     OW54235   5.786  10.317   8.540
50799SOL    HW154236   5.778  10.276   8.627
50799SOL    HW254237   5.700  10.306   8.500
50800SOL     OW54238   9.838  12.453  10.233
50800SOL    HW154239   9.819  12.376  10.179
50800SOL    HW254240   9.920  12.431  10.278
50801SOL     OW54241   0.417  11.715   0.482
50801SOL    HW154242   0.479  11.786   0.496
50801SOL    HW254243   0.471  11.640   0.459
50802SOL     OW54244   8.957  11.126  11.796
50802SOL    HW154245   9.015  11.065  11.750
50802SOL    HW254246   8.878  11.129  11.741
50803SOL     OW54247   8.604   3.275   5.808
50803SOL    HW154248   8.517   3.291   5.771
50803SOL    HW254249   8.663   3.280   5.733
50804SOL     OW54250   0.302  12.704   1.818
50804SOL    HW154251   0.338  12.790   1.797
50804SOL    HW254252   0.303  12.656   1.736
50805SOL     OW54253   7.128  11.824  12.180
50805SOL    HW154254   7.112  11.733  12.206
50805SOL    HW254255   7.137  11.820  12.085
50806SOL     OW54256  13.664  11.968  12.019
50806SOL    HW154257  13.617  12.000  11.942
50806SOL    HW254258  13.706  11.887  11.990
50807SOL     OW54259   3.689   2.869   3.163
50807SOL    HW154260   3.625   2.844   3.230
50807SOL    HW254261   3.702   2.963   3.177
50808SOL     OW54262  13.636   9.843   6.224
50808SOL    HW154263  13.690   9.764   6.229
50808SOL    HW254264  13.691   9.907   6.179
50809SOL     OW54265  14.652   1.021   1.536
50809SOL    HW154266  14.706   1.066   1.472
50809SOL    HW254267  14.710   1.005   1.610
50810SOL     OW54268   0.223  12.266  13.748
50810SOL    HW154269   0.317  12.287  13.745
50810SOL    HW254270   0.217  12.189  13.803
50811SOL     OW54271   1.762   7.244   0.165
50811SOL    HW154272   1.837   7.294   0.197
50811SOL    HW254273   1.754   7.270   0.073
50812SOL     OW54274   7.956  12.549  11.918
50812SOL    HW154275   7.930  12.641  11.918
50812SOL    HW254276   8.024  12.543  11.851
50813SOL     OW54277  13.709   1.471   2.013
50813SOL    HW154278  13.796   1.499   1.985
50813SOL    HW254279  13.692   1.520   2.093
50814SOL     OW54280   7.990  11.296   1.934
50814SOL    HW154281   8.061  11.237   1.906
50814SOL    HW254282   7.958  11.257   2.016
50815SOL     OW54283   5.487  11.532  12.667
50815SOL    HW154284   5.571  11.514  12.625
50815SOL    HW254285   5.498  11.502  12.757
50816SOL     OW54286   1.104   2.057   7.337
50816SOL    HW154287   1.075   2.147   7.323
50816SOL    HW254288   1.037   2.003   7.295
50817SOL     OW54289  12.178  12.303   3.521
50817SOL    HW154290  12.166  12.396   3.502
50817SOL    HW254291  12.138  12.291   3.607
50818SOL     OW54292   4.142   7.645   2.810
50818SOL    HW154293   4.134   7.690   2.726
50818SOL    HW254294   4.127   7.714   2.875
50819SOL     OW54295  10.072   9.925   8.339
50819SOL    HW154296  10.046   9.837   8.312
50819SOL    HW254297  10.119   9.912   8.421
50820SOL     OW54298   9.278   0.382   3.294
50820SOL    HW154299   9.293   0.417   3.381
50820SOL    HW254300   9.308   0.451   3.234
50821SOL     OW54301  13.998   7.222   6.594
50821SOL    HW154302  13.985   7.133   6.628
50821SOL    HW254303  13.925   7.235   6.533
50822SOL     OW54304   0.152   6.295   4.205
50822SOL    HW154305   0.075   6.246   4.173
50822SOL    HW254306   0.221   6.229   4.210
50823SOL     OW54307  13.082   0.010   6.953
50823SOL    HW154308  13.068  14.814   7.010
50823SOL    HW254309  13.167  14.873   6.912
50824SOL     OW54310   9.498   1.574   9.672
50824SOL    HW154311   9.419   1.627   9.680
50824SOL    HW254312   9.469   1.484   9.686
50825SOL     OW54313   5.910  14.628   5.313
50825SOL    HW154314   5.972  14.556   5.308
50825SOL    HW254315   5.929  14.681   5.235
50826SOL     OW54316   0.466   5.551   0.209
50826SOL    HW154317   0.422   5.602   0.141
50826SOL    HW254318   0.466   5.609   0.285
50827SOL     OW54319   5.218   4.299  14.812
50827SOL    HW154320   5.191   4.247   0.008
50827SOL    HW254321   5.262   4.375  14.850
50828SOL     OW54322   8.318   6.202   1.044
50828SOL    HW154323   8.373   6.187   0.968
50828SOL    HW254324   8.302   6.115   1.080
50829SOL     OW54325   8.137   6.699   7.824
50829SOL    HW154326   8.227   6.665   7.819
50829SOL    HW254327   8.082   6.620   7.827
50830SOL     OW54328   2.763   1.939  13.721
50830SOL    HW154329   2.721   2.011  13.674
50830SOL    HW254330   2.696   1.910  13.784
50831SOL     OW54331  13.666   4.864   1.321
50831SOL    HW154332  13.636   4.947   1.356
50831SOL    HW254333  13.631   4.861   1.232
50832SOL     OW54334   9.748   5.710  10.729
50832SOL    HW154335   9.793   5.630  10.755
50832SOL    HW254336   9.658   5.681  10.711
50833SOL     OW54337   7.961  11.150  12.738
50833SOL    HW154338   8.055  11.167  12.732
50833SOL    HW254339   7.941  11.098  12.660
50834SOL     OW54340  10.939   0.605  13.304
50834SOL    HW154341  10.899   0.564  13.227
50834SOL    HW254342  11.006   0.663  13.268
50835SOL     OW54343   6.484   2.520  10.842
50835SOL    HW154344   6.529   2.600  10.869
50835SOL    HW254345   6.400   2.551  10.807
50836SOL     OW54346   9.120   0.831  10.633
50836SOL    HW154347   9.069   0.897  10.681
50836SOL    HW254348   9.109   0.751  10.683
50837SOL     OW54349   3.392  11.667   4.425
50837SOL    HW154350   3.428  11.674   4.337
50837SOL    HW254351   3.421  11.747   4.470
50838SOL     OW54352   4.586  11.293   4.751
50838SOL    HW154353   4.664  11.240   4.742
50838SOL    HW254354   4.526  11.260   4.685
50839SOL     OW54355   8.868  10.344   1.987
50839SOL    HW154356   8.816  10.306   1.917
50839SOL    HW254357   8.810  10.343   2.064
50840SOL     OW54358  14.447   6.410  10.049
50840SOL    HW154359  14.383   6.357  10.003
50840SOL    HW254360  14.436   6.386  10.141
50841SOL     OW54361   6.843  14.479   5.796
50841SOL    HW154362   6.917  14.534   5.771
50841SOL    HW254363   6.856  14.398   5.748
50842SOL     OW54364   7.546  11.242   1.741
50842SOL    HW154365   7.622  11.184   1.754
50842SOL    HW254366   7.515  11.222   1.653
50843SOL     OW54367  14.057   0.570   7.942
50843SOL    HW154368  14.020   0.570   8.031
50843SOL    HW254369  13.998   0.514   7.892
50844SOL     OW54370   0.310   5.711  14.106
50844SOL    HW154371   0.343   5.707  14.016
50844SOL    HW254372   0.254   5.634  14.114
50845SOL     OW54373   1.741   4.950  10.427
50845SOL    HW154374   1.741   4.872  10.371
50845SOL    HW254375   1.794   4.924  10.503
50846SOL     OW54376   2.493   0.788   9.124
50846SOL    HW154377   2.401   0.784   9.098
50846SOL    HW254378   2.491   0.802   9.219
50847SOL     OW54379   2.965  12.410   6.243
50847SOL    HW154380   2.996  12.467   6.172
50847SOL    HW254381   3.038  12.405   6.304
50848SOL     OW54382  12.208   2.038   9.896
50848SOL    HW154383  12.204   2.042   9.800
50848SOL    HW254384  12.190   1.946   9.917
50849SOL     OW54385   8.267   2.948   1.579
50849SOL    HW154386   8.230   2.886   1.642
50849SOL    HW254387   8.285   2.895   1.502
50850SOL     OW54388   0.160  12.159  14.370
50850SOL    HW154389   0.150  12.222  14.298
50850SOL    HW254390   0.091  12.182  14.432
50851SOL     OW54391   5.052  13.143  10.730
50851SOL    HW154392   5.109  13.098  10.792
50851SOL    HW254393   5.068  13.236  10.747
50852SOL     OW54394   3.656  11.178   7.330
50852SOL    HW154395   3.599  11.113   7.290
50852SOL    HW254396   3.600  11.222   7.394
50853SOL     OW54397  10.238  12.692   0.830
50853SOL    HW154398  10.270  12.602   0.830
50853SOL    HW254399  10.164  12.692   0.769
50854SOL     OW54400  14.025  12.522   8.782
50854SOL    HW154401  14.099  12.477   8.741
50854SOL    HW254402  14.050  12.532   8.874
50855SOL     OW54403   3.988   9.391   4.300
50855SOL    HW154404   4.048   9.462   4.275
50855SOL    HW254405   3.931   9.380   4.224
50856SOL     OW54406  12.908   0.480  14.284
50856SOL    HW154407  12.991   0.507  14.322
50856SOL    HW254408  12.907   0.519  14.197
50857SOL     OW54409   1.771  14.734   0.006
50857SOL    HW154410   1.838  14.784  14.839
50857SOL    HW254411   1.805  14.645   0.010
50858SOL     OW54412  11.550  11.216   5.008
50858SOL    HW154413  11.577  11.181   5.093
50858SOL    HW254414  11.480  11.158   4.979
50859SOL     OW54415  10.378   1.747  14.833
50859SOL    HW154416  10.313   1.805  14.872
50859SOL    HW254417  10.384   1.674   0.015
50860SOL     OW54418   7.499   3.244  11.304
50860SOL    HW154419   7.536   3.183  11.369
50860SOL    HW254420   7.409   3.257  11.333
50861SOL     OW54421   7.884  13.008   3.186
50861SOL    HW154422   7.881  13.104   3.178
50861SOL    HW254423   7.824  12.976   3.119
50862SOL     OW54424   3.314   9.458   3.493
50862SOL    HW154425   3.280   9.368   3.502
50862SOL    HW254426   3.400   9.447   3.454
50863SOL     OW54427  14.678   6.264  11.045
50863SOL    HW154428  14.694   6.172  11.064
50863SOL    HW254429  14.634   6.297  11.123
50864SOL     OW54430   3.274   5.779  12.758
50864SOL    HW154431   3.293   5.817  12.672
50864SOL    HW254432   3.337   5.708  12.768
50865SOL     OW54433  12.410   9.420   6.204
50865SOL    HW154434  12.492   9.445   6.247
50865SOL    HW254435  12.367   9.362   6.266
50866SOL     OW54436   6.112  14.824   6.066
50866SOL    HW154437   6.190  14.840   6.013
50866SOL    HW254438   6.086  14.734   6.043
50867SOL     OW54439   6.001   3.809   0.425
50867SOL    HW154440   5.953   3.828   0.505
50867SOL    HW254441   5.966   3.871   0.360
50868SOL     OW54442  10.964  14.416   6.039
50868SOL    HW154443  10.884  14.412   6.091
50868SOL    HW254444  10.995  14.506   6.050
50869SOL     OW54445  13.457   7.089   9.207
50869SOL    HW154446  13.490   7.033   9.277
50869SOL    HW254447  13.391   7.036   9.163
50870SOL     OW54448   2.912   3.712   6.511
50870SOL    HW154449   2.962   3.630   6.514
50870SOL    HW254450   2.824   3.688   6.538
50871SOL     OW54451   7.474  12.645   2.486
50871SOL    HW154452   7.456  12.617   2.576
50871SOL    HW254453   7.570  12.652   2.482
50872SOL     OW54454  10.534  14.297   1.337
50872SOL    HW154455  10.627  14.281   1.322
50872SOL    HW254456  10.498  14.316   1.251
50873SOL     OW54457   6.287   7.187   8.646
50873SOL    HW154458   6.337   7.182   8.727
50873SOL    HW254459   6.338   7.245   8.589
50874SOL     OW54460   4.764   2.324   7.384
50874SOL    HW154461   4.770   2.334   7.289
50874SOL    HW254462   4.809   2.241   7.402
50875SOL     OW54463   8.039   1.861  10.492
50875SOL    HW154464   8.059   1.858  10.399
50875SOL    HW254465   7.943   1.868  10.495
50876SOL     OW54466  14.109   6.689   0.699
50876SOL    HW154467  14.018   6.671   0.675
50876SOL    HW254468  14.151   6.718   0.618
50877SOL     OW54469   2.159   4.649   6.866
50877SOL    HW154470   2.130   4.715   6.803
50877SOL    HW254471   2.255   4.657   6.867
50878SOL     OW54472   8.513  12.945   2.776
50878SOL    HW154473   8.461  13.003   2.833
50878SOL    HW254474   8.461  12.937   2.696
50879SOL     OW54475   9.286  13.016  10.439
50879SOL    HW154476   9.365  13.002  10.387
50879SOL    HW254477   9.224  12.949  10.408
50880SOL     OW54478   9.810  10.370  13.248
50880SOL    HW154479   9.789  10.277  13.257
50880SOL    HW254480   9.726  10.413  13.235
50881SOL     OW54481   9.520  10.966  14.676
50881SOL    HW154482   9.540  11.060  14.677
50881SOL    HW254483   9.547  10.936  14.589
50882SOL     OW54484   2.842  10.850   4.026
50882SOL    HW154485   2.905  10.801   4.078
50882SOL    HW254486   2.788  10.896   4.090
50883SOL     OW54487   3.227  12.639  12.318
50883SOL    HW154488   3.186  12.555  12.297
50883SOL    HW254489   3.218  12.690  12.238
50884SOL     OW54490   9.126  14.383  14.270
50884SOL    HW154491   9.150  14.290  14.277
50884SOL    HW254492   9.149  14.406  14.180
50885SOL     OW54493   0.916   9.467  12.583
50885SOL    HW154494   0.970   9.546  12.585
50885SOL    HW254495   0.833   9.495  12.544
50886SOL     OW54496  13.185   4.376   1.990
50886SOL    HW154497  13.248   4.389   1.920
50886SOL    HW254498  13.208   4.441   2.056
50887SOL     OW54499   9.065   8.545  12.617
50887SOL    HW154500   9.037   8.511  12.532
50887SOL    HW254501   9.142   8.600  12.596
50888SOL     OW54502   6.025   0.080   2.759
50888SOL    HW154503   6.000   0.046   2.845
50888SOL    HW254504   5.957   0.144   2.739
50889SOL     OW54505  11.639   5.872  14.635
50889SOL    HW154506  11.557   5.829  14.657
50889SOL    HW254507  11.667   5.913  14.717
50890SOL     OW54508   2.486  12.812  10.553
50890SOL    HW154509   2.504  12.884  10.493
50890SOL    HW254510   2.518  12.734  10.507
50891SOL     OW54511  10.112   3.238   5.066
50891SOL    HW154512  10.061   3.318   5.052
50891SOL    HW254513  10.130   3.237   5.160
50892SOL     OW54514   6.182   9.718   0.601
50892SOL    HW154515   6.262   9.721   0.653
50892SOL    HW254516   6.111   9.712   0.665
50893SOL     OW54517   0.319   2.412   0.036
50893SOL    HW154518   0.276   2.363   0.107
50893SOL    HW254519   0.386   2.463   0.081
50894SOL     OW54520   9.107   4.975  10.949
50894SOL    HW154521   9.038   4.948  10.888
50894SOL    HW254522   9.086   4.928  11.030
50895SOL     OW54523   6.823  10.428   7.269
50895SOL    HW154524   6.830  10.334   7.252
50895SOL    HW254525   6.913  10.456   7.286
50896SOL     OW54526   9.347   0.991   7.665
50896SOL    HW154527   9.368   1.079   7.696
50896SOL    HW254528   9.400   0.980   7.586
50897SOL     OW54529   9.274   1.565   9.052
50897SOL    HW154530   9.313   1.479   9.037
50897SOL    HW254531   9.180   1.550   9.044
50898SOL     OW54532   6.021  13.455   7.124
50898SOL    HW154533   6.023  13.484   7.033
50898SOL    HW254534   6.036  13.361   7.120
50899SOL     OW54535   7.647   7.374   7.749
50899SOL    HW154536   7.565   7.352   7.792
50899SOL    HW254537   7.626   7.447   7.691
50900SOL     OW54538   9.388   2.433   5.989
50900SOL    HW154539   9.308   2.458   6.035
50900SOL    HW254540   9.396   2.339   6.004
50901SOL     OW54541   2.626  13.322  11.894
50901SOL    HW154542   2.574  13.268  11.955
50901SOL    HW254543   2.700  13.266  11.871
50902SOL     OW54544   5.659   0.816   2.466
50902SOL    HW154545   5.707   0.738   2.438
50902SOL    HW254546   5.568   0.789   2.468
50903SOL     OW54547   0.060   5.620   0.973
50903SOL    HW154548  14.866   5.669   0.936
50903SOL    HW254549   0.056   5.638   1.067
50904SOL     OW54550   5.531   1.849   7.620
50904SOL    HW154551   5.607   1.838   7.564
50904SOL    HW254552   5.561   1.907   7.691
50905SOL     OW54553  14.134   5.702   1.330
50905SOL    HW154554  14.054   5.694   1.382
50905SOL    HW254555  14.150   5.796   1.326
50906SOL     OW54556  13.620  14.876   0.017
50906SOL    HW154557  13.601  14.857  14.805
50906SOL    HW254558  13.562  14.818   0.066
50907SOL     OW54559  10.897  13.282  10.854
50907SOL    HW154560  10.815  13.232  10.849
50907SOL    HW254561  10.870  13.367  10.890
50908SOL     OW54562   0.114  12.494   0.752
50908SOL    HW154563   0.184  12.438   0.785
50908SOL    HW254564   0.143  12.583   0.770
50909SOL     OW54565   6.555  11.958   2.766
50909SOL    HW154566   6.589  11.875   2.734
50909SOL    HW254567   6.528  11.940   2.856
50910SOL     OW54568   9.384   4.817   6.886
50910SOL    HW154569   9.421   4.903   6.866
50910SOL    HW254570   9.387   4.769   6.803
50911SOL     OW54571   1.091  14.217   1.763
50911SOL    HW154572   1.136  14.136   1.787
50911SOL    HW254573   1.050  14.247   1.844
50912SOL     OW54574  10.820  12.199   3.003
50912SOL    HW154575  10.788  12.251   3.076
50912SOL    HW254576  10.758  12.126   2.995
50913SOL     OW54577   7.736   3.786   8.894
50913SOL    HW154578   7.699   3.849   8.831
50913SOL    HW254579   7.826   3.775   8.866
50914SOL     OW54580   9.443   2.663   6.991
50914SOL    HW154581   9.485   2.714   6.921
50914SOL    HW254582   9.411   2.729   7.053
50915SOL     OW54583  14.254  11.072   9.975
50915SOL    HW154584  14.271  11.082   9.881
50915SOL    HW254585  14.169  11.030   9.980
50916SOL     OW54586   5.594   8.747   1.834
50916SOL    HW154587   5.640   8.685   1.777
50916SOL    HW254588   5.520   8.778   1.782
50917SOL     OW54589   8.917  10.821   7.259
50917SOL    HW154590   8.840  10.765   7.272
50917SOL    HW254591   8.893  10.904   7.301
50918SOL     OW54592   9.421  13.154   8.254
50918SOL    HW154593   9.486  13.086   8.269
50918SOL    HW254594   9.402  13.189   8.342
50919SOL     OW54595   1.527   0.451  11.152
50919SOL    HW154596   1.469   0.452  11.229
50919SOL    HW254597   1.605   0.404  11.183
50920SOL     OW54598   7.486   5.805   8.091
50920SOL    HW154599   7.478   5.899   8.080
50920SOL    HW254600   7.408   5.779   8.140
50921SOL     OW54601  12.014   3.170   7.613
50921SOL    HW154602  12.102   3.138   7.630
50921SOL    HW254603  11.993   3.225   7.689
50922SOL     OW54604   7.249  13.475   7.833
50922SOL    HW154605   7.203  13.553   7.866
50922SOL    HW254606   7.180  13.414   7.810
50923SOL     OW54607   9.649  10.336   9.911
50923SOL    HW154608   9.650  10.416   9.859
50923SOL    HW254609   9.698  10.273   9.858
50924SOL     OW54610   0.054  10.956  12.489
50924SOL    HW154611  14.856  10.902  12.476
50924SOL    HW254612   0.108  10.938  12.412
50925SOL     OW54613   3.722   5.653   6.316
50925SOL    HW154614   3.772   5.734   6.310
50925SOL    HW254615   3.717   5.634   6.409
50926SOL     OW54616   6.102   0.746  13.083
50926SOL    HW154617   6.183   0.758  13.034
50926SOL    HW254618   6.109   0.657  13.119
50927SOL     OW54619  10.853   1.574  13.476
50927SOL    HW154620  10.762   1.587  13.506
50927SOL    HW254621  10.894   1.526  13.548
50928SOL     OW54622   9.571  10.373   6.937
50928SOL    HW154623   9.508  10.303   6.955
50928SOL    HW254624   9.601  10.401   7.023
50929SOL     OW54625   7.149   4.381   3.643
50929SOL    HW154626   7.241   4.354   3.646
50929SOL    HW254627   7.120   4.374   3.734
50930SOL     OW54628   7.737   6.320  13.656
50930SOL    HW154629   7.825   6.294  13.630
50930SOL    HW254630   7.750   6.379  13.731
50931SOL     OW54631   5.758  13.393   0.205
50931SOL    HW154632   5.797  13.423   0.287
50931SOL    HW254633   5.665  13.382   0.225
50932SOL     OW54634   1.535   5.480  11.620
50932SOL    HW154635   1.528   5.573  11.600
50932SOL    HW254636   1.580   5.442  11.545
50933SOL     OW54637   8.297   1.945   8.883
50933SOL    HW154638   8.262   2.000   8.813
50933SOL    HW254639   8.221   1.922   8.936
50934SOL     OW54640   1.143   1.865  14.167
50934SOL    HW154641   1.085   1.896  14.097
50934SOL    HW254642   1.230   1.867  14.128
50935SOL     OW54643  11.989   3.385   6.227
50935SOL    HW154644  11.938   3.304   6.228
50935SOL    HW254645  12.080   3.356   6.228
50936SOL     OW54646   8.898   7.343   2.117
50936SOL    HW154647   8.815   7.314   2.155
50936SOL    HW254648   8.950   7.371   2.192
50937SOL     OW54649  13.680  14.029   3.641
50937SOL    HW154650  13.648  14.120   3.637
50937SOL    HW254651  13.760  14.029   3.589
50938SOL     OW54652   7.810  11.427   4.449
50938SOL    HW154653   7.818  11.382   4.365
50938SOL    HW254654   7.799  11.519   4.426
50939SOL     OW54655   4.129   8.239   9.301
50939SOL    HW154656   4.129   8.331   9.276
50939SOL    HW254657   4.069   8.234   9.375
50940SOL     OW54658   6.027   4.443   6.001
50940SOL    HW154659   6.092   4.382   6.035
50940SOL    HW254660   6.020   4.511   6.068
50941SOL     OW54661   3.522   1.040   3.994
50941SOL    HW154662   3.467   0.977   4.040
50941SOL    HW254663   3.498   1.125   4.031
50942SOL     OW54664  12.887  14.078   6.117
50942SOL    HW154665  12.892  14.153   6.176
50942SOL    HW254666  12.972  14.076   6.073
50943SOL     OW54667  14.615   1.383   5.315
50943SOL    HW154668  14.536   1.368   5.262
50943SOL    HW254669  14.675   1.429   5.257
50944SOL     OW54670   1.555   3.395   5.810
50944SOL    HW154671   1.630   3.448   5.782
50944SOL    HW254672   1.492   3.404   5.738
50945SOL     OW54673  12.447  13.486   2.599
50945SOL    HW154674  12.352  13.496   2.595
50945SOL    HW254675  12.462  13.394   2.576
50946SOL     OW54676   4.504  13.735  13.582
50946SOL    HW154677   4.462  13.815  13.551
50946SOL    HW254678   4.480  13.669  13.517
50947SOL     OW54679  14.105   1.787  12.179
50947SOL    HW154680  14.129   1.869  12.134
50947SOL    HW254681  14.073   1.730  12.109
50948SOL     OW54682   5.606  10.013   8.336
50948SOL    HW154683   5.572   9.986   8.421
50948SOL    HW254684   5.699  10.030   8.352
50949SOL     OW54685   1.154  14.795  14.736
50949SOL    HW154686   1.136  14.701  14.737
50949SOL    HW254687   1.164  14.817  14.643
50950SOL     OW54688   2.730   6.440  13.093
50950SOL    HW154689   2.708   6.381  13.166
50950SOL    HW254690   2.790   6.389  13.039
50951SOL     OW54691   1.633  13.744   2.826
50951SOL    HW154692   1.668  13.696   2.751
50951SOL    HW254693   1.566  13.802   2.789
50952SOL     OW54694   2.338   1.065   5.892
50952SOL    HW154695   2.250   1.033   5.869
50952SOL    HW254696   2.326   1.112   5.974
50953SOL     OW54697   9.706   3.117  11.241
50953SOL    HW154698   9.655   3.198  11.251
50953SOL    HW254699   9.777   3.125  11.304
50954SOL     OW54700   1.481   9.417   0.992
50954SOL    HW154701   1.542   9.348   0.964
50954SOL    HW254702   1.395   9.374   0.992
50955SOL     OW54703   3.385   0.419   2.012
50955SOL    HW154704   3.321   0.478   1.972
50955SOL    HW254705   3.427   0.472   2.080
50956SOL     OW54706   9.879   7.076   5.954
50956SOL    HW154707   9.898   7.068   5.861
50956SOL    HW254708   9.787   7.104   5.958
50957SOL     OW54709   6.981   4.900  12.477
50957SOL    HW154710   7.040   4.824  12.477
50957SOL    HW254711   7.026   4.965  12.423
50958SOL     OW54712   7.536  12.933   1.779
50958SOL    HW154713   7.495  12.867   1.834
50958SOL    HW254714   7.463  12.974   1.732
50959SOL     OW54715  13.956   3.885   2.124
50959SOL    HW154716  13.903   3.907   2.202
50959SOL    HW254717  13.977   3.792   2.135
50960SOL     OW54718  12.885   7.216   9.172
50960SOL    HW154719  12.839   7.150   9.224
50960SOL    HW254720  12.975   7.184   9.167
50961SOL     OW54721   5.593  13.368  10.893
50961SOL    HW154722   5.559  13.397  10.809
50961SOL    HW254723   5.516  13.338  10.941
50962SOL     OW54724   1.337   2.561   2.420
50962SOL    HW154725   1.363   2.638   2.368
50962SOL    HW254726   1.369   2.486   2.370
50963SOL     OW54727  12.282  11.430  13.342
50963SOL    HW154728  12.202  11.441  13.290
50963SOL    HW254729  12.258  11.463  13.429
50964SOL     OW54730  10.207  11.245   5.275
50964SOL    HW154731  10.231  11.208   5.360
50964SOL    HW254732  10.183  11.335   5.295
50965SOL     OW54733   7.826  13.161  12.279
50965SOL    HW154734   7.778  13.078  12.283
50965SOL    HW254735   7.858  13.175  12.368
50966SOL     OW54736  13.811   6.060  10.493
50966SOL    HW154737  13.717   6.072  10.481
50966SOL    HW254738  13.826   6.072  10.587
50967SOL     OW54739  12.540   9.766   0.545
50967SOL    HW154740  12.563   9.737   0.457
50967SOL    HW254741  12.511   9.857   0.533
50968SOL     OW54742   5.117  14.874   8.256
50968SOL    HW154743   5.103  14.846   8.166
50968SOL    HW254744   5.212   0.006   8.263
50969SOL     OW54745   0.876   1.132   6.945
50969SOL    HW154746   0.909   1.054   6.990
50969SOL    HW254747   0.845   1.188   7.016
50970SOL     OW54748   3.029  13.973   6.608
50970SOL    HW154749   2.980  13.966   6.526
50970SOL    HW254750   3.047  13.882   6.632
50971SOL     OW54751   7.823  10.928   0.496
50971SOL    HW154752   7.870  10.882   0.426
50971SOL    HW254753   7.810  11.016   0.462
50972SOL     OW54754  14.513  12.760  14.316
50972SOL    HW154755  14.519  12.769  14.411
50972SOL    HW254756  14.560  12.836  14.281
50973SOL     OW54757  12.781   9.820  10.163
50973SOL    HW154758  12.690   9.849  10.163
50973SOL    HW254759  12.799   9.800  10.255
50974SOL     OW54760  10.384  10.366  14.683
50974SOL    HW154761  10.338  10.426  14.742
50974SOL    HW254762  10.330  10.287  14.682
50975SOL     OW54763   9.028   2.963   5.320
50975SOL    HW154764   9.032   3.055   5.291
50975SOL    HW254765   9.062   2.914   5.245
50976SOL     OW54766   7.122   6.039  14.282
50976SOL    HW154767   7.185   6.082  14.339
50976SOL    HW254768   7.040   6.039  14.333
50977SOL     OW54769  14.554   9.599   3.799
50977SOL    HW154770  14.558   9.643   3.714
50977SOL    HW254771  14.523   9.511   3.778
50978SOL     OW54772   5.124  14.095   7.136
50978SOL    HW154773   5.144  14.176   7.183
50978SOL    HW254774   5.090  14.036   7.203
50979SOL     OW54775  14.805   8.463   6.156
50979SOL    HW154776  14.764   8.533   6.206
50979SOL    HW254777  14.822   8.502   6.070
50980SOL     OW54778   8.976   1.802   4.150
50980SOL    HW154779   8.940   1.784   4.063
50980SOL    HW254780   9.017   1.888   4.141
50981SOL     OW54781  11.190   6.875   2.732
50981SOL    HW154782  11.150   6.891   2.818
50981SOL    HW254783  11.197   6.780   2.726
50982SOL     OW54784  10.849   1.226   8.784
50982SOL    HW154785  10.776   1.202   8.841
50982SOL    HW254786  10.918   1.254   8.845
50983SOL     OW54787   6.927  11.814   0.087
50983SOL    HW154788   6.854  11.873   0.104
50983SOL    HW254789   7.001  11.853   0.133
50984SOL     OW54790   2.696  10.277   3.551
50984SOL    HW154791   2.629  10.215   3.579
50984SOL    HW254792   2.705  10.338   3.624
50985SOL     OW54793  11.249   1.934   9.487
50985SOL    HW154794  11.318   1.907   9.548
50985SOL    HW254795  11.218   2.017   9.522
50986SOL     OW54796   6.737   2.996   0.722
50986SOL    HW154797   6.727   3.088   0.749
50986SOL    HW254798   6.704   2.994   0.632
50987SOL     OW54799  11.675   5.130   7.374
50987SOL    HW154800  11.756   5.111   7.326
50987SOL    HW254801  11.660   5.051   7.427
50988SOL     OW54802   5.033   8.902   4.653
50988SOL    HW154803   5.106   8.942   4.700
50988SOL    HW254804   5.018   8.819   4.699
50989SOL     OW54805   1.508   3.504   1.975
50989SOL    HW154806   1.432   3.555   1.947
50989SOL    HW254807   1.498   3.420   1.931
50990SOL     OW54808   1.457   9.814  10.045
50990SOL    HW154809   1.365   9.840  10.043
50990SOL    HW254810   1.459   9.738  10.103
50991SOL     OW54811   2.966   7.804   0.964
50991SOL    HW154812   3.038   7.742   0.946
50991SOL    HW254813   2.975   7.871   0.897
50992SOL     OW54814   2.716   1.038   7.337
50992SOL    HW154815   2.792   1.015   7.284
50992SOL    HW254816   2.749   1.102   7.401
50993SOL     OW54817   0.486   5.335   8.720
50993SOL    HW154818   0.479   5.388   8.799
50993SOL    HW254819   0.576   5.349   8.689
50994SOL     OW54820   4.500   7.622   0.991
50994SOL    HW154821   4.588   7.645   1.021
50994SOL    HW254822   4.466   7.564   1.059
50995SOL     OW54823   8.438  13.287   7.177
50995SOL    HW154824   8.527  13.280   7.141
50995SOL    HW254825   8.429  13.380   7.200
50996SOL     OW54826   5.755   9.351  10.598
50996SOL    HW154827   5.790   9.340  10.509
50996SOL    HW254828   5.808   9.292  10.652
50997SOL     OW54829  10.383   2.199  14.331
50997SOL    HW154830  10.374   2.292  14.311
50997SOL    HW254831  10.476   2.186  14.345
50998SOL     OW54832   2.157   9.633   1.750
50998SOL    HW154833   2.229   9.585   1.708
50998SOL    HW254834   2.081   9.615   1.694
50999SOL     OW54835   9.994  14.333   9.720
50999SOL    HW154836   9.965  14.389   9.792
50999SOL    HW254837   9.935  14.258   9.722
51000SOL     OW54838  11.547   3.169   1.957
51000SOL    HW154839  11.492   3.248   1.949
51000SOL    HW254840  11.592   3.163   1.873
51001SOL     OW54841   7.941   3.023  12.919
51001SOL    HW154842   7.953   2.996  12.828
51001SOL    HW254843   7.969   2.947  12.970
51002SOL     OW54844  10.281   5.595   9.083
51002SOL    HW154845  10.360   5.571   9.133
51002SOL    HW254846  10.225   5.518   9.089
51003SOL     OW54847   6.499  11.512  10.389
51003SOL    HW154848   6.436  11.441  10.396
51003SOL    HW254849   6.519  11.516  10.295
51004SOL     OW54850   7.634   1.681  12.910
51004SOL    HW154851   7.677   1.596  12.901
51004SOL    HW254852   7.668   1.717  12.992
51005SOL     OW54853   1.127   3.387  12.089
51005SOL    HW154854   1.214   3.373  12.127
51005SOL    HW254855   1.067   3.341  12.148
51006SOL     OW54856   4.780   7.409   2.131
51006SOL    HW154857   4.743   7.491   2.164
51006SOL    HW254858   4.869   7.407   2.165
51007SOL     OW54859  12.821   4.241   4.208
51007SOL    HW154860  12.904   4.266   4.166
51007SOL    HW254861  12.795   4.162   4.162
51008SOL     OW54862  12.859  10.283  12.173
51008SOL    HW154863  12.881  10.195  12.202
51008SOL    HW254864  12.787  10.271  12.111
51009SOL     OW54865  13.053  12.206   0.978
51009SOL    HW154866  13.138  12.180   1.013
51009SOL    HW254867  13.015  12.125   0.943
51010SOL     OW54868   4.604   0.080   5.653
51010SOL    HW154869   4.615   0.063   5.747
51010SOL    HW254870   4.685   0.050   5.613
51011SOL     OW54871  10.138   2.640  11.253
51011SOL    HW154872  10.183   2.618  11.171
51011SOL    HW254873  10.096   2.724  11.236
51012SOL     OW54874  12.620  10.183   0.252
51012SOL    HW154875  12.528  10.195   0.278
51012SOL    HW254876  12.659  10.135   0.325
51013SOL     OW54877   1.346  10.306   0.177
51013SOL    HW154878   1.438  10.311   0.204
51013SOL    HW254879   1.345  10.242   0.106
51014SOL     OW54880   3.600   5.994   7.730
51014SOL    HW154881   3.586   5.950   7.646
51014SOL    HW254882   3.649   5.930   7.783
51015SOL     OW54883   5.848   3.132   6.308
51015SOL    HW154884   5.888   3.161   6.390
51015SOL    HW254885   5.756   3.158   6.316
51016SOL     OW54886  14.011   6.827   5.552
51016SOL    HW154887  13.940   6.840   5.489
51016SOL    HW254888  14.064   6.906   5.545
51017SOL     OW54889  11.263   3.779   9.667
51017SOL    HW154890  11.180   3.788   9.621
51017SOL    HW254891  11.314   3.856   9.642
51018SOL     OW54892  12.607   8.117   0.444
51018SOL    HW154893  12.666   8.075   0.506
51018SOL    HW254894  12.599   8.054   0.372
51019SOL     OW54895  10.662  13.510   9.202
51019SOL    HW154896  10.663  13.426   9.155
51019SOL    HW254897  10.752  13.541   9.198
51020SOL     OW54898   0.001   9.054   5.841
51020SOL    HW154899   0.062   9.092   5.778
51020SOL    HW254900   0.050   9.049   5.923
51021SOL     OW54901   2.593  14.236  12.156
51021SOL    HW154902   2.688  14.244  12.158
51021SOL    HW254903   2.574  14.159  12.210
51022SOL     OW54904  13.556  10.392   9.744
51022SOL    HW154905  13.510  10.339   9.809
51022SOL    HW254906  13.512  10.371   9.662
51023SOL     OW54907  12.934   1.288  12.778
51023SOL    HW154908  12.918   1.372  12.734
51023SOL    HW254909  13.029   1.276  12.773
51024SOL     OW54910   0.538  11.823   2.686
51024SOL    HW154911   0.618  11.860   2.723
51024SOL    HW254912   0.503  11.892   2.630
51025SOL     OW54913   1.821   3.802   5.349
51025SOL    HW154914   1.889   3.867   5.327
51025SOL    HW254915   1.864   3.743   5.411
51026SOL     OW54916   3.110   8.307   4.749
51026SOL    HW154917   3.125   8.318   4.842
51026SOL    HW254918   3.162   8.376   4.707
51027SOL     OW54919   9.151   3.488   0.420
51027SOL    HW154920   9.149   3.537   0.502
51027SOL    HW254921   9.219   3.423   0.432
51028SOL     OW54922   0.228  12.553   5.151
51028SOL    HW154923   0.243  12.459   5.155
51028SOL    HW254924   0.223  12.573   5.058
51029SOL     OW54925   8.733   8.556   9.475
51029SOL    HW154926   8.768   8.503   9.546
51029SOL    HW254927   8.806   8.563   9.412
51030SOL     OW54928   7.416   6.767   7.570
51030SOL    HW154929   7.394   6.688   7.620
51030SOL    HW254930   7.494   6.743   7.522
51031SOL     OW54931  10.316   3.515  13.634
51031SOL    HW154932  10.396   3.465  13.617
51031SOL    HW254933  10.330   3.599  13.590
51032SOL     OW54934  10.051  10.637   8.913
51032SOL    HW154935  10.127  10.614   8.966
51032SOL    HW254936   9.998  10.557   8.912
51033SOL     OW54937  13.457   3.842   2.671
51033SOL    HW154938  13.452   3.903   2.598
51033SOL    HW254939  13.420   3.760   2.637
51034SOL     OW54940  11.195   5.175  12.781
51034SOL    HW154941  11.149   5.133  12.853
51034SOL    HW254942  11.153   5.261  12.772
51035SOL     OW54943  13.848  14.754   1.851
51035SOL    HW154944  13.776  14.817   1.844
51035SOL    HW254945  13.840  14.717   1.939
51036SOL     OW54946  14.336   8.643   8.086
51036SOL    HW154947  14.250   8.634   8.045
51036SOL    HW254948  14.391   8.683   8.019
51037SOL     OW54949   7.652   1.822  14.103
51037SOL    HW154950   7.606   1.889  14.155
51037SOL    HW254951   7.706   1.872  14.042
51038SOL     OW54952  10.142   1.503  12.196
51038SOL    HW154953  10.219   1.558  12.182
51038SOL    HW254954  10.094   1.508  12.113
51039SOL     OW54955  11.445   6.635  12.864
51039SOL    HW154956  11.484   6.649  12.777
51039SOL    HW254957  11.460   6.542  12.882
51040SOL     OW54958   1.832   2.814   9.607
51040SOL    HW154959   1.881   2.749   9.556
51040SOL    HW254960   1.761   2.764   9.647
51041SOL     OW54961   5.077   3.702   3.345
51041SOL    HW154962   5.094   3.707   3.251
51041SOL    HW254963   5.070   3.609   3.364
51042SOL     OW54964   1.273   5.609   1.376
51042SOL    HW154965   1.251   5.671   1.306
51042SOL    HW254966   1.286   5.526   1.330
51043SOL     OW54967  12.224   4.888   0.728
51043SOL    HW154968  12.239   4.908   0.636
51043SOL    HW254969  12.306   4.912   0.772
51044SOL     OW54970   9.550   5.130  10.977
51044SOL    HW154971   9.557   5.221  10.949
51044SOL    HW254972   9.640   5.103  10.995
51045SOL     OW54973   2.028  10.314  14.326
51045SOL    HW154974   1.965  10.378  14.292
51045SOL    HW254975   1.979  10.233  14.333
51046SOL     OW54976   5.017   8.499  11.173
51046SOL    HW154977   5.012   8.539  11.260
51046SOL    HW254978   5.085   8.548  11.127
51047SOL     OW54979   7.440   7.132  11.138
51047SOL    HW154980   7.419   7.118  11.046
51047SOL    HW254981   7.484   7.051  11.165
51048SOL     OW54982  14.122   8.243   2.513
51048SOL    HW154983  14.040   8.282   2.483
51048SOL    HW254984  14.140   8.286   2.597
51049SOL     OW54985   0.551  14.199   1.031
51049SOL    HW154986   0.600  14.122   1.000
51049SOL    HW254987   0.549  14.258   0.955
51050SOL     OW54988  13.662   4.568   9.791
51050SOL    HW154989  13.713   4.518   9.727
51050SOL    HW254990  13.572   4.562   9.759
51051SOL     OW54991   5.810   7.645   5.952
51051SOL    HW154992   5.755   7.573   5.983
51051SOL    HW254993   5.755   7.692   5.890
51052SOL     OW54994  11.558   7.075   9.320
51052SOL    HW154995  11.646   7.043   9.298
51052SOL    HW254996  11.499   7.019   9.270
51053SOL     OW54997  14.363   6.652   4.496
51053SOL    HW154998  14.332   6.622   4.581
51053SOL    HW254999  14.402   6.738   4.513
51054SOL     OW55000  13.348  12.325   5.377
51054SOL    HW155001  13.261  12.352   5.406
51054SOL    HW255002  13.400  12.406   5.381
51055SOL     OW55003   8.970  12.111   7.593
51055SOL    HW155004   9.028  12.159   7.534
51055SOL    HW255005   8.933  12.179   7.650
51056SOL     OW55006   1.228   0.534   1.406
51056SOL    HW155007   1.208   0.542   1.312
51056SOL    HW255008   1.324   0.539   1.410
51057SOL     OW55009   2.511   5.504  10.011
51057SOL    HW155010   2.534   5.416   9.980
51057SOL    HW255011   2.595   5.549  10.018
51058SOL     OW55012  11.466   1.283   5.819
51058SOL    HW155013  11.424   1.321   5.896
51058SOL    HW255014  11.530   1.221   5.855
51059SOL     OW55015   5.574   1.837   1.484
51059SOL    HW155016   5.529   1.785   1.417
51059SOL    HW255017   5.547   1.927   1.467
51060SOL     OW55018   4.886   8.641   0.185
51060SOL    HW155019   4.861   8.733   0.177
51060SOL    HW255020   4.812   8.600   0.230
51061SOL     OW55021   1.007  14.038   0.684
51061SOL    HW155022   0.944  13.993   0.741
51061SOL    HW255023   1.092  14.017   0.722
51062SOL     OW55024   7.055   7.757   9.433
51062SOL    HW155025   7.031   7.668   9.405
51062SOL    HW255026   7.080   7.747   9.525
51063SOL     OW55027   6.989   4.479  11.392
51063SOL    HW155028   7.062   4.461  11.332
51063SOL    HW255029   7.030   4.510  11.472
51064SOL     OW55030   7.807  14.214   8.630
51064SOL    HW155031   7.839  14.154   8.563
51064SOL    HW255032   7.735  14.167   8.671
51065SOL     OW55033  12.324   4.866   7.452
51065SOL    HW155034  12.251   4.814   7.420
51065SOL    HW255035  12.397   4.842   7.395
51066SOL     OW55036   2.772  13.269   7.757
51066SOL    HW155037   2.738  13.358   7.759
51066SOL    HW255038   2.697  13.215   7.732
51067SOL     OW55039   4.558  12.107   1.588
51067SOL    HW155040   4.470  12.070   1.576
51067SOL    HW255041   4.616  12.048   1.540
51068SOL     OW55042   7.979  11.072   0.765
51068SOL    HW155043   7.954  11.060   0.673
51068SOL    HW255044   8.069  11.039   0.770
51069SOL     OW55045  12.053   9.247  14.327
51069SOL    HW155046  12.082   9.213  14.242
51069SOL    HW255047  12.126   9.229  14.386
51070SOL     OW55048  11.302  12.074  11.584
51070SOL    HW155049  11.301  12.047  11.492
51070SOL    HW255050  11.322  12.167  11.582
51071SOL     OW55051  11.285   8.727   8.988
51071SOL    HW155052  11.336   8.803   8.962
51071SOL    HW255053  11.230   8.759   9.060
51072SOL     OW55054   1.409   4.515  14.619
51072SOL    HW155055   1.358   4.441  14.652
51072SOL    HW255056   1.366   4.539  14.537
51073SOL     OW55057   8.049   4.506   4.930
51073SOL    HW155058   8.013   4.572   4.871
51073SOL    HW255059   8.073   4.433   4.873
51074SOL     OW55060   5.548   9.213   1.456
51074SOL    HW155061   5.617   9.190   1.393
51074SOL    HW255062   5.568   9.303   1.482
51075SOL     OW55063  13.628  12.158   0.564
51075SOL    HW155064  13.718  12.182   0.585
51075SOL    HW255065  13.606  12.211   0.488
51076SOL     OW55066  13.143  10.855  10.936
51076SOL    HW155067  13.192  10.909  10.998
51076SOL    HW255068  13.117  10.915  10.867
51077SOL     OW55069   3.559   8.849   8.628
51077SOL    HW155070   3.525   8.767   8.591
51077SOL    HW255071   3.530   8.916   8.566
51078SOL     OW55072  14.102   9.119   1.920
51078SOL    HW155073  14.179   9.139   1.974
51078SOL    HW255074  14.086   9.026   1.934
51079SOL     OW55075   1.364   8.108  11.306
51079SOL    HW155076   1.356   8.041  11.238
51079SOL    HW255077   1.287   8.164  11.293
51080SOL     OW55078   1.600   0.504   0.262
51080SOL    HW155079   1.516   0.519   0.306
51080SOL    HW255080   1.659   0.477   0.333
51081SOL     OW55081   7.159   9.181  14.470
51081SOL    HW155082   7.222   9.126  14.515
51081SOL    HW255083   7.196   9.196  14.383
51082SOL     OW55084   5.723  13.721   8.159
51082SOL    HW155085   5.680  13.672   8.089
51082SOL    HW255086   5.651  13.763   8.206
51083SOL     OW55087  11.065   6.885  14.443
51083SOL    HW155088  11.139   6.934  14.478
51083SOL    HW255089  11.102   6.800  14.418
51084SOL     OW55090   6.497   5.997   7.122
51084SOL    HW155091   6.563   5.934   7.092
51084SOL    HW255092   6.472   5.966   7.209
51085SOL     OW55093  12.527   4.129   1.163
51085SOL    HW155094  12.592   4.195   1.138
51085SOL    HW255095  12.569   4.079   1.233
51086SOL     OW55096   3.472   5.227   7.336
51086SOL    HW155097   3.476   5.287   7.411
51086SOL    HW255098   3.490   5.140   7.374
51087SOL     OW55099   8.764   4.413   9.602
51087SOL    HW155100   8.702   4.466   9.652
51087SOL    HW255101   8.710   4.350   9.554
51088SOL     OW55102   4.584  13.715  12.494
51088SOL    HW155103   4.520  13.782  12.519
51088SOL    HW255104   4.533  13.636  12.480
51089SOL     OW55105  14.425   3.364   8.776
51089SOL    HW155106  14.457   3.294   8.833
51089SOL    HW255107  14.380   3.318   8.705
51090SOL     OW55108   7.953   9.658  13.177
51090SOL    HW155109   7.874   9.675  13.127
51090SOL    HW255110   7.923   9.648  13.267
51091SOL     OW55111   1.279   2.178  14.569
51091SOL    HW155112   1.267   2.261  14.616
51091SOL    HW255113   1.295   2.114  14.638
51092SOL     OW55114   6.212   3.663   1.518
51092SOL    HW155115   6.133   3.628   1.559
51092SOL    HW255116   6.188   3.752   1.494
51093SOL     OW55117   9.510   4.500   4.803
51093SOL    HW155118   9.524   4.424   4.860
51093SOL    HW255119   9.545   4.573   4.853
51094SOL     OW55120  13.603   0.004  14.517
51094SOL    HW155121  13.627   0.036  14.430
51094SOL    HW255122  13.686  14.864  14.560
51095SOL     OW55123  10.457  12.951   9.815
51095SOL    HW155124  10.455  13.003   9.895
51095SOL    HW255125  10.447  12.861   9.845
51096SOL     OW55126  13.284   5.120  12.796
51096SOL    HW155127  13.203   5.115  12.744
51096SOL    HW255128  13.254   5.122  12.887
51097SOL     OW55129   8.049   2.377  13.160
51097SOL    HW155130   8.141   2.367  13.188
51097SOL    HW255131   8.053   2.381  13.065
51098SOL     OW55132   9.990   4.826   6.304
51098SOL    HW155133  10.043   4.772   6.245
51098SOL    HW255134   9.963   4.766   6.373
51099SOL     OW55135   9.793  10.009  14.671
51099SOL    HW155136   9.886   9.988  14.679
51099SOL    HW255137   9.786  10.058  14.589
51100SOL     OW55138  12.388  10.291   4.503
51100SOL    HW155139  12.384  10.387   4.498
51100SOL    HW255140  12.304  10.261   4.470
51101SOL     OW55141   6.313   1.860  10.334
51101SOL    HW155142   6.362   1.930  10.291
51101SOL    HW255143   6.375   1.789  10.344
51102SOL     OW55144   5.709   3.127   3.920
51102SOL    HW155145   5.660   3.141   3.839
51102SOL    HW255146   5.788   3.079   3.893
51103SOL     OW55147  13.867  12.182   0.886
51103SOL    HW155148  13.882  12.267   0.845
51103SOL    HW255149  13.929  12.179   0.960
51104SOL     OW55150   6.837  13.694  14.345
51104SOL    HW155151   6.903  13.760  14.368
51104SOL    HW255152   6.876  13.648  14.270
51105SOL     OW55153  10.080   8.938   2.095
51105SOL    HW155154  10.106   8.933   2.003
51105SOL    HW255155  10.023   9.015   2.099
51106SOL     OW55156   0.841   5.450   8.288
51106SOL    HW155157   0.901   5.512   8.247
51106SOL    HW255158   0.777   5.430   8.219
51107SOL     OW55159   5.898   8.187  13.518
51107SOL    HW155160   5.929   8.102  13.548
51107SOL    HW255161   5.803   8.177  13.510
51108SOL     OW55162   9.499   8.002   7.977
51108SOL    HW155163   9.536   8.049   7.903
51108SOL    HW255164   9.570   7.999   8.042
51109SOL     OW55165   7.963   5.809   4.432
51109SOL    HW155166   7.983   5.824   4.524
51109SOL    HW255167   8.025   5.864   4.385
51110SOL     OW55168  14.501   7.864   9.738
51110SOL    HW155169  14.452   7.783   9.752
51110SOL    HW255170  14.480   7.890   9.649
51111SOL     OW55171   4.193   0.266   3.812
51111SOL    HW155172   4.128   0.228   3.752
51111SOL    HW255173   4.277   0.242   3.774
51112SOL     OW55174  10.538   8.590   7.332
51112SOL    HW155175  10.448   8.623   7.329
51112SOL    HW255176  10.528   8.495   7.338
51113SOL     OW55177  13.012   1.015   8.885
51113SOL    HW155178  13.007   1.078   8.814
51113SOL    HW255179  13.043   0.934   8.844
51114SOL     OW55180   4.251  11.842   5.693
51114SOL    HW155181   4.193  11.909   5.655
51114SOL    HW255182   4.337  11.884   5.696
51115SOL     OW55183  12.538   9.458   0.340
51115SOL    HW155184  12.597   9.453   0.265
51115SOL    HW255185  12.471   9.392   0.322
51116SOL     OW55186   5.996   7.446  10.942
51116SOL    HW155187   5.975   7.430  10.850
51116SOL    HW255188   5.915   7.483  10.979
51117SOL     OW55189   9.817   2.883  12.446
51117SOL    HW155190   9.846   2.847  12.529
51117SOL    HW255191   9.882   2.853  12.382
51118SOL     OW55192   4.310  13.469  14.086
51118SOL    HW155193   4.319  13.406  14.157
51118SOL    HW255194   4.388  13.524  14.092
51119SOL     OW55195   3.962   4.851   5.460
51119SOL    HW155196   3.895   4.917   5.480
51119SOL    HW255197   3.939   4.819   5.372
51120SOL     OW55198  13.944   6.147   6.313
51120SOL    HW155199  13.850   6.131   6.318
51120SOL    HW255200  13.983   6.060   6.322
51121SOL     OW55201   9.617   2.686   7.564
51121SOL    HW155202   9.563   2.672   7.642
51121SOL    HW255203   9.641   2.779   7.568
51122SOL     OW55204  14.853   6.162   5.280
51122SOL    HW155205  14.812   6.103   5.217
51122SOL    HW255206   0.065   6.136   5.281
51123SOL     OW55207  12.001  10.289   3.698
51123SOL    HW155208  12.066  10.232   3.738
51123SOL    HW255209  11.975  10.350   3.768
51124SOL     OW55210   6.935   2.368   2.995
51124SOL    HW155211   6.951   2.306   3.066
51124SOL    HW255212   6.900   2.446   3.038
51125SOL     OW55213   1.641  13.714  13.013
51125SOL    HW155214   1.727  13.687  13.045
51125SOL    HW255215   1.581  13.645  13.043
51126SOL     OW55216   3.804   2.014  10.573
51126SOL    HW155217   3.763   1.946  10.625
51126SOL    HW255218   3.898   1.999  10.583
51127SOL     OW55219   2.141  14.171  14.368
51127SOL    HW155220   2.077  14.218  14.420
51127SOL    HW255221   2.138  14.081  14.401
51128SOL     OW55222   0.893   0.630   2.689
51128SOL    HW155223   0.905   0.703   2.749
51128SOL    HW255224   0.826   0.575   2.730
51129SOL     OW55225  11.974   8.452   5.995
51129SOL    HW155226  12.058   8.428   6.034
51129SOL    HW255227  11.921   8.373   6.001
51130SOL     OW55228   6.906  11.754  11.769
51130SOL    HW155229   6.915  11.846  11.794
51130SOL    HW255230   6.955  11.705  11.835
51131SOL     OW55231   2.078   6.204   8.381
51131SOL    HW155232   2.136   6.279   8.392
51131SOL    HW255233   2.005   6.238   8.329
51132SOL     OW55234   4.571  14.007   1.775
51132SOL    HW155235   4.660  14.013   1.811
51132SOL    HW255236   4.536  14.096   1.781
51133SOL     OW55237   3.793   2.560   3.437
51133SOL    HW155238   3.736   2.485   3.417
51133SOL    HW255239   3.833   2.582   3.353
51134SOL     OW55240   7.984  14.136  13.313
51134SOL    HW155241   7.939  14.184  13.383
51134SOL    HW255242   7.920  14.128  13.243
51135SOL     OW55243  12.673  12.457  12.738
51135SOL    HW155244  12.634  12.503  12.664
51135SOL    HW255245  12.766  12.450  12.716
51136SOL     OW55246   5.177   6.102  13.902
51136SOL    HW155247   5.194   6.065  13.988
51136SOL    HW255248   5.159   6.195  13.919
51137SOL     OW55249   1.251  14.130   3.763
51137SOL    HW155250   1.325  14.080   3.729
51137SOL    HW255251   1.176  14.100   3.712
51138SOL     OW55252  12.392  10.054   9.872
51138SOL    HW155253  12.478  10.016   9.854
51138SOL    HW255254  12.401  10.091   9.960
51139SOL     OW55255   7.938   1.367   1.721
51139SOL    HW155256   8.009   1.309   1.746
51139SOL    HW255257   7.859   1.313   1.730
51140SOL     OW55258   2.056   1.591   5.029
51140SOL    HW155259   2.068   1.686   5.026
51140SOL    HW255260   1.961   1.579   5.027
51141SOL     OW55261   3.394   5.282   4.552
51141SOL    HW155262   3.399   5.372   4.584
51141SOL    HW255263   3.415   5.289   4.459
51142SOL     OW55264  11.009   0.757  14.003
51142SOL    HW155265  10.929   0.805  14.022
51142SOL    HW255266  11.003   0.678  14.057
51143SOL     OW55267   6.832  13.209  13.542
51143SOL    HW155268   6.848  13.200  13.636
51143SOL    HW255269   6.920  13.214  13.503
51144SOL     OW55270   1.026  13.349  11.110
51144SOL    HW155271   1.038  13.319  11.200
51144SOL    HW255272   0.932  13.342  11.094
51145SOL     OW55273  14.675  11.060  14.183
51145SOL    HW155274  14.582  11.040  14.191
51145SOL    HW255275  14.698  11.030  14.095
51146SOL     OW55276   9.564  12.837   2.009
51146SOL    HW155277   9.624  12.909   1.991
51146SOL    HW255278   9.478  12.878   2.019
51147SOL     OW55279   7.932   9.779   5.065
51147SOL    HW155280   7.889   9.841   5.005
51147SOL    HW255281   7.888   9.794   5.149
51148SOL     OW55282  14.344  11.732  10.853
51148SOL    HW155283  14.390  11.799  10.803
51148SOL    HW255284  14.304  11.780  10.926
51149SOL     OW55285   5.270   1.694  13.390
51149SOL    HW155286   5.280   1.607  13.430
51149SOL    HW255287   5.217   1.742  13.454
51150SOL     OW55288  10.377   7.550   4.080
51150SOL    HW155289  10.299   7.590   4.040
51150SOL    HW255290  10.349   7.462   4.105
51151SOL     OW55291   4.213   4.296  14.676
51151SOL    HW155292   4.239   4.333  14.592
51151SOL    HW255293   4.295   4.270  14.718
51152SOL     OW55294  12.903   3.317   3.138
51152SOL    HW155295  12.942   3.349   3.219
51152SOL    HW255296  12.912   3.389   3.076
51153SOL     OW55297  12.149   3.761   9.992
51153SOL    HW155298  12.238   3.782   9.965
51153SOL    HW255299  12.095   3.782   9.916
51154SOL     OW55300   1.329  14.878  12.382
51154SOL    HW155301   1.313   0.025  12.472
51154SOL    HW255302   1.319  14.783  12.382
51155SOL     OW55303   1.776  10.833   6.359
51155SOL    HW155304   1.720  10.831   6.437
51155SOL    HW255305   1.858  10.791   6.387
51156SOL     OW55306   3.156   4.714  11.931
51156SOL    HW155307   3.167   4.709  11.836
51156SOL    HW255308   3.177   4.626  11.962
51157SOL     OW55309   7.666  14.815   5.987
51157SOL    HW155310   7.602   0.006   5.988
51157SOL    HW255311   7.688  14.804   5.894
51158SOL     OW55312  10.504  11.020  10.908
51158SOL    HW155313  10.577  11.011  10.848
51158SOL    HW255314  10.475  10.931  10.925
51159SOL     OW55315   7.871   9.090   1.876
51159SOL    HW155316   7.851   9.002   1.907
51159SOL    HW255317   7.945   9.078   1.816
51160SOL     OW55318  13.254   0.765   6.507
51160SOL    HW155319  13.350   0.765   6.506
51160SOL    HW255320  13.232   0.798   6.595
51161SOL     OW55321  11.072   5.872   5.506
51161SOL    HW155322  11.006   5.879   5.437
51161SOL    HW255323  11.093   5.963   5.529
51162SOL     OW55324  13.686   5.927   7.628
51162SOL    HW155325  13.739   5.977   7.566
51162SOL    HW255326  13.601   5.971   7.628
51163SOL     OW55327  12.781  10.541   3.250
51163SOL    HW155328  12.687  10.531   3.263
51163SOL    HW255329  12.821  10.485   3.316
51164SOL     OW55330  11.450   1.139   1.285
51164SOL    HW155331  11.446   1.165   1.377
51164SOL    HW255332  11.537   1.165   1.256
51165SOL     OW55333   6.923   0.310  10.189
51165SOL    HW155334   6.918   0.259  10.270
51165SOL    HW255335   6.905   0.400  10.216
51166SOL     OW55336   6.969   6.109   3.026
51166SOL    HW155337   6.929   6.023   3.034
51166SOL    HW255338   7.035   6.099   2.958
51167SOL     OW55339  13.961  11.964   6.929
51167SOL    HW155340  13.988  11.952   7.020
51167SOL    HW255341  14.040  11.995   6.884
51168SOL     OW55342   9.108   7.197   0.975
51168SOL    HW155343   9.060   7.218   1.056
51168SOL    HW255344   9.169   7.271   0.964
51169SOL     OW55345  13.086  11.807  13.756
51169SOL    HW155346  13.059  11.885  13.804
51169SOL    HW255347  13.039  11.735  13.799
51170SOL     OW55348   2.761   9.800  12.022
51170SOL    HW155349   2.697   9.839  11.962
51170SOL    HW255350   2.781   9.714  11.984
51171SOL     OW55351   0.825   6.019   5.521
51171SOL    HW155352   0.833   6.112   5.499
51171SOL    HW255353   0.869   6.010   5.605
51172SOL     OW55354  14.788  12.106   2.137
51172SOL    HW155355  14.810  12.077   2.226
51172SOL    HW255356  14.872  12.117   2.094
51173SOL     OW55357  14.393   7.451  11.176
51173SOL    HW155358  14.392   7.442  11.081
51173SOL    HW255359  14.481   7.425  11.202
51174SOL     OW55360   4.498   6.596   3.983
51174SOL    HW155361   4.433   6.577   3.916
51174SOL    HW255362   4.495   6.691   3.994
51175SOL     OW55363   2.685   4.002   3.938
51175SOL    HW155364   2.733   3.934   3.985
51175SOL    HW255365   2.607   4.018   3.991
51176SOL     OW55366   1.742   4.948   7.625
51176SOL    HW155367   1.823   4.995   7.604
51176SOL    HW255368   1.683   5.016   7.658
51177SOL     OW55369  11.421   0.727  14.855
51177SOL    HW155370  11.481   0.663   0.014
51177SOL    HW255371  11.382   0.681  14.781
51178SOL     OW55372  12.216   9.793  12.260
51178SOL    HW155373  12.172   9.848  12.325
51178SOL    HW255374  12.228   9.851  12.185
51179SOL     OW55375   6.826   2.059   3.396
51179SOL    HW155376   6.785   2.020   3.319
51179SOL    HW255377   6.753   2.091   3.449
51180SOL     OW55378   4.338   0.870   1.118
51180SOL    HW155379   4.273   0.829   1.175
51180SOL    HW255380   4.409   0.806   1.113
51181SOL     OW55381   0.687   2.095  10.560
51181SOL    HW155382   0.773   2.113  10.522
51181SOL    HW255383   0.635   2.061  10.487
51182SOL     OW55384   9.655   5.800   5.034
51182SOL    HW155385   9.564   5.828   5.040
51182SOL    HW255386   9.658   5.720   5.087
51183SOL     OW55387  13.550  14.617   6.382
51183SOL    HW155388  13.485  14.669   6.334
51183SOL    HW255389  13.510  14.601   6.467
51184SOL     OW55390   0.101  12.492  13.184
51184SOL    HW155391   0.062  12.543  13.113
51184SOL    HW255392   0.026  12.464  13.237
51185SOL     OW55393   8.106  14.379   0.971
51185SOL    HW155394   8.165  14.312   0.936
51185SOL    HW255395   8.051  14.332   1.034
51186SOL     OW55396   8.552   1.649  11.817
51186SOL    HW155397   8.639   1.683  11.840
51186SOL    HW255398   8.491   1.708  11.860
51187SOL     OW55399  14.164   1.901   8.459
51187SOL    HW155400  14.162   1.874   8.368
51187SOL    HW255401  14.164   1.997   8.455
51188SOL     OW55402   1.213   2.142  14.298
51188SOL    HW155403   1.192   2.049  14.296
51188SOL    HW255404   1.230   2.161  14.390
51189SOL     OW55405   2.300  13.746   8.650
51189SOL    HW155406   2.305  13.807   8.577
51189SOL    HW255407   2.274  13.663   8.611
51190SOL     OW55408  10.511   6.588   5.226
51190SOL    HW155409  10.558   6.582   5.143
51190SOL    HW255410  10.451   6.662   5.215
51191SOL     OW55411   3.282  13.044  12.228
51191SOL    HW155412   3.365  13.004  12.258
51191SOL    HW255413   3.264  13.112  12.293
51192SOL     OW55414   8.235   8.652   5.974
51192SOL    HW155415   8.154   8.619   6.012
51192SOL    HW255416   8.246   8.604   5.892
51193SOL     OW55417   1.543   7.082  12.728
51193SOL    HW155418   1.607   7.149  12.709
51193SOL    HW255419   1.512   7.103  12.817
51194SOL     OW55420   3.886   5.172  11.964
51194SOL    HW155421   3.821   5.239  11.988
51194SOL    HW255422   3.942   5.166  12.042
51195SOL     OW55423   1.160   6.348   5.699
51195SOL    HW155424   1.233   6.400   5.664
51195SOL    HW255425   1.187   6.325   5.788
51196SOL     OW55426   1.595   9.338   8.748
51196SOL    HW155427   1.551   9.270   8.696
51196SOL    HW255428   1.633   9.397   8.682
51197SOL     OW55429   9.382  12.107   1.090
51197SOL    HW155430   9.334  12.058   1.023
51197SOL    HW255431   9.352  12.070   1.173
51198SOL     OW55432  13.880  14.390  13.297
51198SOL    HW155433  13.871  14.425  13.386
51198SOL    HW255434  13.791  14.393  13.261
51199SOL     OW55435   3.579   4.417  10.374
51199SOL    HW155436   3.495   4.434  10.331
51199SOL    HW255437   3.604   4.330  10.344
51200SOL     OW55438  12.082   4.536   0.838
51200SOL    HW155439  12.092   4.533   0.933
51200SOL    HW255440  11.989   4.518   0.823
51201SOL     OW55441  10.363  10.771  14.349
51201SOL    HW155442  10.268  10.764  14.341
51201SOL    HW255443  10.388  10.697  14.405
51202SOL     OW55444  11.660   4.059  12.996
51202SOL    HW155445  11.717   4.069  12.920
51202SOL    HW255446  11.587   4.006  12.965
51203SOL     OW55447   2.622   2.756   6.149
51203SOL    HW155448   2.537   2.714   6.134
51203SOL    HW255449   2.607   2.816   6.222
51204SOL     OW55450  11.959   8.306  13.351
51204SOL    HW155451  11.986   8.229  13.401
51204SOL    HW255452  12.039   8.334  13.306
51205SOL     OW55453   9.807  11.428   2.921
51205SOL    HW155454   9.812  11.411   3.015
51205SOL    HW255455   9.854  11.354   2.881
51206SOL     OW55456   5.902  12.536   3.332
51206SOL    HW155457   5.950  12.482   3.269
51206SOL    HW255458   5.829  12.481   3.361
51207SOL     OW55459   2.263   7.218   4.046
51207SOL    HW155460   2.251   7.199   3.953
51207SOL    HW255461   2.201   7.289   4.064
51208SOL     OW55462  13.879   0.113   3.937
51208SOL    HW155463  13.871   0.038   3.996
51208SOL    HW255464  13.879   0.074   3.849
51209SOL     OW55465   3.266  11.541   6.251
51209SOL    HW155466   3.245  11.546   6.158
51209SOL    HW255467   3.262  11.632   6.282
51210SOL     OW55468   3.087  10.030   6.608
51210SOL    HW155469   3.100   9.961   6.673
51210SOL    HW255470   2.994  10.022   6.584
51211SOL     OW55471  11.646  13.825   4.170
51211SOL    HW155472  11.569  13.865   4.130
51211SOL    HW255473  11.715  13.890   4.161
51212SOL     OW55474  10.223   8.398  14.114
51212SOL    HW155475  10.216   8.456  14.038
51212SOL    HW255476  10.179   8.318  14.088
51213SOL     OW55477  13.736  11.969   4.091
51213SOL    HW155478  13.813  11.963   4.034
51213SOL    HW255479  13.771  11.961   4.180
51214SOL     OW55480   6.867   2.353   5.674
51214SOL    HW155481   6.907   2.342   5.760
51214SOL    HW255482   6.773   2.357   5.691
51215SOL     OW55483   6.746  11.258   4.816
51215SOL    HW155484   6.725  11.279   4.725
51215SOL    HW255485   6.814  11.320   4.840
51216SOL     OW55486   7.085   9.016   6.019
51216SOL    HW155487   7.147   9.041   5.951
51216SOL    HW255488   7.009   9.073   6.004
51217SOL     OW55489   2.882  14.860  12.884
51217SOL    HW155490   2.861  14.771  12.857
51217SOL    HW255491   2.840   0.037  12.819
51218SOL     OW55492   1.147  10.996   8.887
51218SOL    HW155493   1.133  10.908   8.920
51218SOL    HW255494   1.140  11.052   8.964
51219SOL     OW55495   5.255   7.274  10.171
51219SOL    HW155496   5.299   7.201  10.128
51219SOL    HW255497   5.312   7.296  10.245
51220SOL     OW55498  12.080  11.368   8.377
51220SOL    HW155499  12.172  11.363   8.402
51220SOL    HW255500  12.032  11.351   8.458
51221SOL     OW55501  13.100  11.464  11.881
51221SOL    HW155502  13.154  11.415  11.943
51221SOL    HW255503  13.156  11.478  11.805
51222SOL     OW55504   6.592   7.127   4.053
51222SOL    HW155505   6.666   7.188   4.063
51222SOL    HW255506   6.533   7.151   4.124
51223SOL     OW55507   4.083  13.528  14.658
51223SOL    HW155508   4.125  13.460  14.709
51223SOL    HW255509   4.099  13.609  14.707
51224SOL     OW55510  11.373  12.777  13.572
51224SOL    HW155511  11.440  12.796  13.638
51224SOL    HW255512  11.407  12.702  13.523
51225SOL     OW55513   3.824   8.036   7.489
51225SOL    HW155514   3.886   7.973   7.452
51225SOL    HW255515   3.873   8.082   7.557
51226SOL     OW55516   0.752   2.505   4.894
51226SOL    HW155517   0.724   2.421   4.930
51226SOL    HW255518   0.720   2.570   4.956
51227SOL     OW55519   5.048   3.901  13.470
51227SOL    HW155520   5.034   3.814  13.508
51227SOL    HW255521   4.970   3.918  13.418
51228SOL     OW55522   1.870  12.170   1.261
51228SOL    HW155523   1.800  12.235   1.260
51228SOL    HW255524   1.931  12.198   1.193
51229SOL     OW55525  10.881   1.484   7.202
51229SOL    HW155526  10.947   1.552   7.220
51229SOL    HW255527  10.875   1.434   7.284
51230SOL     OW55528  12.094   7.518  10.174
51230SOL    HW155529  12.010   7.514  10.129
51230SOL    HW255530  12.115   7.426  10.194
51231SOL     OW55531  11.126  13.700   2.371
51231SOL    HW155532  11.083  13.732   2.450
51231SOL    HW255533  11.149  13.609   2.392
51232SOL     OW55534   5.698   8.198   1.506
51232SOL    HW155535   5.612   8.186   1.465
51232SOL    HW255536   5.734   8.275   1.463
51233SOL     OW55537  14.822   5.573  14.321
51233SOL    HW155538   0.026   5.618  14.318
51233SOL    HW255539  14.760   5.633  14.281
51234SOL     OW55540  12.548   2.420   8.197
51234SOL    HW155541  12.608   2.485   8.233
51234SOL    HW255542  12.576   2.337   8.236
51235SOL     OW55543   3.317   2.523  13.269
51235SOL    HW155544   3.350   2.583  13.337
51235SOL    HW255545   3.229   2.555  13.250
51236SOL     OW55546   0.071   2.307  12.713
51236SOL    HW155547   0.062   2.253  12.792
51236SOL    HW255548   0.062   2.397  12.744
51237SOL     OW55549   5.421  12.567   6.780
51237SOL    HW155550   5.516  12.553   6.783
51237SOL    HW255551   5.395  12.533   6.695
51238SOL     OW55552   8.443   9.624  13.395
51238SOL    HW155553   8.480   9.552  13.344
51238SOL    HW255554   8.354   9.634  13.361
51239SOL     OW55555  12.049   7.821   2.953
51239SOL    HW155556  12.003   7.859   2.878
51239SOL    HW255557  11.988   7.755   2.987
51240SOL     OW55558  10.027   6.170   4.015
51240SOL    HW155559   9.942   6.133   3.992
51240SOL    HW255560  10.012   6.212   4.100
51241SOL     OW55561   0.023   2.821   8.232
51241SOL    HW155562  14.862   2.761   8.169
51241SOL    HW255563   0.006   2.908   8.197
51242SOL     OW55564   7.717   0.808   8.552
51242SOL    HW155565   7.799   0.808   8.503
51242SOL    HW255566   7.739   0.849   8.636
51243SOL     OW55567   2.964  13.338   0.877
51243SOL    HW155568   3.026  13.265   0.880
51243SOL    HW255569   2.881  13.300   0.904
51244SOL     OW55570   5.654   2.787   3.776
51244SOL    HW155571   5.651   2.752   3.865
51244SOL    HW255572   5.747   2.786   3.752
51245SOL     OW55573   3.684   3.101   1.673
51245SOL    HW155574   3.737   3.133   1.746
51245SOL    HW255575   3.736   3.122   1.595
51246SOL     OW55576   5.746   3.786   4.133
51246SOL    HW155577   5.656   3.814   4.150
51246SOL    HW255578   5.737   3.697   4.097
51247SOL     OW55579   1.669   6.825   3.851
51247SOL    HW155580   1.638   6.756   3.910
51247SOL    HW255581   1.683   6.780   3.767
51248SOL     OW55582  11.738  14.373   0.415
51248SOL    HW155583  11.795  14.447   0.434
51248SOL    HW255584  11.793  14.312   0.365
51249SOL     OW55585   9.316   9.858  10.414
51249SOL    HW155586   9.350   9.771  10.391
51249SOL    HW255587   9.310   9.904  10.331
51250SOL     OW55588  12.035  10.274  10.116
51250SOL    HW155589  11.968  10.275  10.049
51250SOL    HW255590  12.082  10.191  10.102
51251SOL     OW55591   9.289   3.556   7.002
51251SOL    HW155592   9.339   3.589   7.076
51251SOL    HW255593   9.288   3.629   6.939
51252SOL     OW55594   0.025  14.035   3.661
51252SOL    HW155595  14.850  14.107   3.630
51252SOL    HW255596  14.846  13.959   3.660
51253SOL     OW55597   8.682  10.613   5.866
51253SOL    HW155598   8.624  10.632   5.940
51253SOL    HW255599   8.761  10.577   5.907
51254SOL     OW55600  13.223   6.004   8.721
51254SOL    HW155601  13.229   6.081   8.664
51254SOL    HW255602  13.216   5.930   8.661
51255SOL     OW55603   5.930   6.509   2.373
51255SOL    HW155604   5.982   6.550   2.442
51255SOL    HW255605   5.856   6.470   2.420
51256SOL     OW55606  13.048  12.597   1.787
51256SOL    HW155607  12.995  12.518   1.779
51256SOL    HW255608  13.002  12.663   1.735
51257SOL     OW55609   2.492   9.345   2.999
51257SOL    HW155610   2.451   9.388   3.074
51257SOL    HW255611   2.523   9.261   3.033
51258SOL     OW55612   8.887   2.223  14.775
51258SOL    HW155613   8.821   2.244  14.710
51258SOL    HW255614   8.948   2.297  14.772
51259SOL     OW55615  12.362  10.648  12.526
51259SOL    HW155616  12.436  10.689  12.571
51259SOL    HW255617  12.402  10.591  12.461
51260SOL     OW55618   6.794   5.422   0.291
51260SOL    HW155619   6.889   5.409   0.289
51260SOL    HW255620   6.761   5.368   0.219
51261SOL     OW55621   1.357  13.730   2.472
51261SOL    HW155622   1.441  13.772   2.490
51261SOL    HW255623   1.379  13.639   2.452
51262SOL     OW55624   0.191  10.094  13.472
51262SOL    HW155625   0.154  10.089  13.560
51262SOL    HW255626   0.160  10.177  13.436
51263SOL     OW55627  11.370   8.178   2.799
51263SOL    HW155628  11.322   8.206   2.877
51263SOL    HW255629  11.331   8.229   2.728
51264SOL     OW55630  14.787   4.850   6.885
51264SOL    HW155631  14.736   4.908   6.941
51264SOL    HW255632  14.866   4.831   6.935
51265SOL     OW55633  11.210   6.815   2.131
51265SOL    HW155634  11.179   6.871   2.202
51265SOL    HW255635  11.214   6.872   2.054
51266SOL     OW55636  11.021   6.987   3.984
51266SOL    HW155637  11.052   7.028   3.903
51266SOL    HW255638  10.941   7.035   4.007
51267SOL     OW55639  12.617  14.027   6.216
51267SOL    HW155640  12.693  14.047   6.161
51267SOL    HW255641  12.542  14.051   6.162
51268SOL     OW55642   0.123   9.045   7.479
51268SOL    HW155643   0.219   9.035   7.480
51268SOL    HW255644   0.092   8.975   7.422
51269SOL     OW55645   7.564   5.916   0.637
51269SOL    HW155646   7.574   6.010   0.649
51269SOL    HW255647   7.523   5.907   0.551
51270SOL     OW55648   4.697   7.476   7.637
51270SOL    HW155649   4.696   7.388   7.675
51270SOL    HW255650   4.749   7.466   7.557
51271SOL     OW55651   6.529  10.588  13.470
51271SOL    HW155652   6.532  10.643  13.392
51271SOL    HW255653   6.451  10.617  13.516
51272SOL     OW55654   7.172   8.911  13.838
51272SOL    HW155655   7.253   8.951  13.809
51272SOL    HW255656   7.135   8.973  13.900
51273SOL     OW55657  13.327   2.567   8.272
51273SOL    HW155658  13.286   2.581   8.186
51273SOL    HW255659  13.288   2.635   8.328
51274SOL     OW55660   8.665  12.695   8.356
51274SOL    HW155661   8.587  12.704   8.411
51274SOL    HW255662   8.656  12.609   8.315
51275SOL     OW55663   1.367   3.274   9.519
51275SOL    HW155664   1.446   3.289   9.467
51275SOL    HW255665   1.398   3.278   9.610
51276SOL     OW55666   8.739   3.635  11.914
51276SOL    HW155667   8.828   3.648  11.945
51276SOL    HW255668   8.684   3.661  11.988
51277SOL     OW55669   0.078   3.143   9.514
51277SOL    HW155670   0.151   3.081   9.511
51277SOL    HW255671   0.118   3.226   9.540
51278SOL     OW55672   8.994  10.220   4.658
51278SOL    HW155673   8.942  10.141   4.645
51278SOL    HW255674   8.945  10.290   4.614
51279SOL     OW55675   3.677   4.823   4.525
51279SOL    HW155676   3.663   4.800   4.434
51279SOL    HW255677   3.771   4.813   4.539
51280SOL     OW55678  14.234  14.605   6.450
51280SOL    HW155679  14.285  14.589   6.529
51280SOL    HW255680  14.185  14.524   6.436
51281SOL     OW55681   0.442   6.497   6.849
51281SOL    HW155682   0.347   6.493   6.852
51281SOL    HW255683   0.466   6.547   6.928
51282SOL     OW55684   4.322   6.401   8.368
51282SOL    HW155685   4.326   6.432   8.459
51282SOL    HW255686   4.285   6.475   8.320
51283SOL     OW55687  11.227  11.311  10.517
51283SOL    HW155688  11.309  11.268  10.494
51283SOL    HW255689  11.253  11.385  10.572
51284SOL     OW55690   9.975  10.163  10.933
51284SOL    HW155691   9.944  10.073  10.919
51284SOL    HW255692  10.065  10.152  10.965
51285SOL     OW55693   7.264   3.014   3.571
51285SOL    HW155694   7.259   3.110   3.568
51285SOL    HW255695   7.228   2.985   3.487
51286SOL     OW55696  12.681   3.320   2.088
51286SOL    HW155697  12.701   3.368   2.168
51286SOL    HW255698  12.586   3.306   2.090
51287SOL     OW55699   8.329   8.266  12.447
51287SOL    HW155700   8.309   8.358  12.466
51287SOL    HW255701   8.247   8.230  12.413
51288SOL     OW55702   0.975  12.502   1.054
51288SOL    HW155703   1.017  12.479   1.137
51288SOL    HW255704   1.045  12.544   1.004
51289SOL     OW55705   3.361   0.100  14.233
51289SOL    HW155706   3.275   0.136  14.255
51289SOL    HW255707   3.390   0.152  14.159
51290SOL     OW55708  12.919   9.035   8.610
51290SOL    HW155709  12.959   8.951   8.628
51290SOL    HW255710  12.992   9.094   8.594
51291SOL     OW55711   8.151   0.965   5.729
51291SOL    HW155712   8.129   1.046   5.774
51291SOL    HW255713   8.148   0.898   5.797
51292SOL     OW55714   5.676  14.600   9.294
51292SOL    HW155715   5.617  14.531   9.264
51292SOL    HW255716   5.644  14.623   9.381
51293SOL     OW55717   9.705   0.456  11.680
51293SOL    HW155718   9.645   0.389  11.650
51293SOL    HW255719   9.697   0.527  11.615
51294SOL     OW55720   2.121   8.720   7.694
51294SOL    HW155721   2.060   8.656   7.657
51294SOL    HW255722   2.183   8.668   7.745
51295SOL     OW55723   9.484   9.830   3.527
51295SOL    HW155724   9.489   9.771   3.452
51295SOL    HW255725   9.442   9.909   3.492
51296SOL     OW55726   0.444   5.778   9.372
51296SOL    HW155727   0.463   5.739   9.287
51296SOL    HW255728   0.351   5.803   9.367
51297SOL     OW55729  10.134   8.436  13.832
51297SOL    HW155730  10.091   8.501  13.776
51297SOL    HW255731  10.088   8.354  13.812
51298SOL     OW55732  13.057  14.638  11.355
51298SOL    HW155733  13.037  14.577  11.284
51298SOL    HW255734  12.984  14.628  11.416
51299SOL     OW55735   4.219   0.119   8.403
51299SOL    HW155736   4.301   0.105   8.357
51299SOL    HW255737   4.178   0.033   8.406
51300SOL     OW55738  14.454  11.662   4.811
51300SOL    HW155739  14.375  11.706   4.779
51300SOL    HW255740  14.465  11.694   4.900
51301SOL     OW55741   9.186   1.954   5.175
51301SOL    HW155742   9.135   2.019   5.126
51301SOL    HW255743   9.272   1.956   5.132
51302SOL     OW55744  11.235  11.251   6.974
51302SOL    HW155745  11.330  11.269   6.977
51302SOL    HW255746  11.204  11.305   6.901
51303SOL     OW55747   6.189   2.364   6.821
51303SOL    HW155748   6.257   2.385   6.886
51303SOL    HW255749   6.235   2.364   6.738
51304SOL     OW55750   4.711  12.941   7.033
51304SOL    HW155751   4.780  12.958   6.969
51304SOL    HW255752   4.754  12.948   7.118
51305SOL     OW55753   1.082   1.723   4.568
51305SOL    HW155754   1.044   1.766   4.645
51305SOL    HW255755   1.147   1.786   4.536
51306SOL     OW55756   3.716   7.871   5.906
51306SOL    HW155757   3.800   7.863   5.951
51306SOL    HW255758   3.713   7.962   5.876
51307SOL     OW55759   0.750  14.035   4.033
51307SOL    HW155760   0.666  14.070   4.003
51307SOL    HW255761   0.726  13.969   4.098
51308SOL     OW55762  13.591  14.406   3.034
51308SOL    HW155763  13.500  14.391   3.059
51308SOL    HW255764  13.589  14.412   2.939
51309SOL     OW55765   5.334  10.722   3.260
51309SOL    HW155766   5.256  10.718   3.316
51309SOL    HW255767   5.321  10.800   3.206
51310SOL     OW55768   0.401   6.340   8.791
51310SOL    HW155769   0.456   6.286   8.734
51310SOL    HW255770   0.354   6.398   8.732
51311SOL     OW55771  10.011  10.844  13.597
51311SOL    HW155772  10.083  10.897  13.630
51311SOL    HW255773  10.042  10.809  13.514
51312SOL     OW55774   2.228   8.053   3.972
51312SOL    HW155775   2.176   8.126   4.002
51312SOL    HW255776   2.164   7.990   3.939
51313SOL     OW55777   5.482  11.055   5.202
51313SOL    HW155778   5.499  11.124   5.266
51313SOL    HW255779   5.485  10.974   5.253
51314SOL     OW55780   8.135  13.940  13.805
51314SOL    HW155781   8.066  14.006  13.802
51314SOL    HW255782   8.120  13.895  13.888
51315SOL     OW55783   5.148  14.440   7.980
51315SOL    HW155784   5.120  14.494   7.907
51315SOL    HW255785   5.172  14.356   7.941
51316SOL     OW55786  13.350   1.346  12.850
51316SOL    HW155787  13.323   1.380  12.765
51316SOL    HW255788  13.305   1.262  12.858
51317SOL     OW55789  14.363   8.207   8.298
51317SOL    HW155790  14.455   8.234   8.305
51317SOL    HW255791  14.358   8.163   8.214
51318SOL     OW55792  10.265  11.252   9.562
51318SOL    HW155793  10.223  11.179   9.609
51318SOL    HW255794  10.281  11.218   9.474
51319SOL     OW55795  12.877   8.815  13.028
51319SOL    HW155796  12.811   8.868  12.982
51319SOL    HW255797  12.943   8.796  12.961
51320SOL     OW55798   4.775  11.239  11.983
51320SOL    HW155799   4.760  11.246  12.078
51320SOL    HW255800   4.869  11.220  11.975
51321SOL     OW55801   9.281   9.255   5.920
51321SOL    HW155802   9.314   9.169   5.947
51321SOL    HW255803   9.210   9.235   5.859
51322SOL     OW55804   6.344   5.397   9.227
51322SOL    HW155805   6.367   5.416   9.318
51322SOL    HW255806   6.296   5.314   9.232
51323SOL     OW55807   0.318  11.343  14.169
51323SOL    HW155808   0.387  11.356  14.233
51323SOL    HW255809   0.239  11.378  14.212
51324SOL     OW55810  12.570   6.841   0.075
51324SOL    HW155811  12.568   6.750   0.105
51324SOL    HW255812  12.630   6.885   0.135
51325SOL     OW55813   5.736   0.414  14.751
51325SOL    HW155814   5.791   0.491  14.736
51325SOL    HW255815   5.676   0.412  14.677
51326SOL     OW55816   7.838  13.834   3.324
51326SOL    HW155817   7.843  13.848   3.229
51326SOL    HW255818   7.887  13.907   3.361
51327SOL     OW55819  14.481  12.506   1.837
51327SOL    HW155820  14.458  12.440   1.771
51327SOL    HW255821  14.537  12.459   1.899
51328SOL     OW55822   4.903   0.340   9.742
51328SOL    HW155823   4.995   0.313   9.740
51328SOL    HW255824   4.857   0.274   9.692
51329SOL     OW55825   9.968  14.471  11.927
51329SOL    HW155826   9.911  14.528  11.979
51329SOL    HW255827  10.054  14.513  11.930
51330SOL     OW55828  11.739   8.260  10.062
51330SOL    HW155829  11.787   8.325  10.113
51330SOL    HW255830  11.806   8.217  10.008
51331SOL     OW55831   7.234   0.103   4.158
51331SOL    HW155832   7.312   0.140   4.117
51331SOL    HW255833   7.162   0.159   4.126
51332SOL     OW55834   4.615   1.980   0.418
51332SOL    HW155835   4.528   1.945   0.437
51332SOL    HW255836   4.667   1.903   0.395
51333SOL     OW55837  14.459  11.425   3.426
51333SOL    HW155838  14.383  11.392   3.472
51333SOL    HW255839  14.499  11.487   3.487
51334SOL     OW55840   0.237  12.085   1.357
51334SOL    HW155841   0.274  12.004   1.393
51334SOL    HW255842   0.285  12.097   1.274
51335SOL     OW55843   0.364   8.437  12.131
51335SOL    HW155844   0.273   8.414  12.114
51335SOL    HW255845   0.414   8.360  12.103
51336SOL     OW55846  10.734  12.451   6.842
51336SOL    HW155847  10.773  12.373   6.804
51336SOL    HW255848  10.643  12.427   6.859
51337SOL     OW55849   6.785   0.529   7.641
51337SOL    HW155850   6.858   0.586   7.663
51337SOL    HW255851   6.775   0.539   7.546
51338SOL     OW55852   2.154  14.739  14.080
51338SOL    HW155853   2.089  14.799  14.116
51338SOL    HW255854   2.227  14.795  14.054
51339SOL     OW55855  12.209  10.763   4.958
51339SOL    HW155856  12.303  10.779   4.968
51339SOL    HW255857  12.195  10.763   4.863
51340SOL     OW55858  10.004  10.624   2.078
51340SOL    HW155859   9.921  10.671   2.080
51340SOL    HW255860  10.051  10.654   2.155
51341SOL     OW55861  14.319   0.197  11.152
51341SOL    HW155862  14.357   0.264  11.209
51341SOL    HW255863  14.228   0.225  11.139
51342SOL     OW55864   0.656  11.996   9.461
51342SOL    HW155865   0.649  11.914   9.510
51342SOL    HW255866   0.747  12.023   9.472
51343SOL     OW55867   0.974   4.095   9.997
51343SOL    HW155868   1.033   4.160   9.959
51343SOL    HW255869   0.967   4.027   9.930
51344SOL     OW55870   6.559   1.867   4.169
51344SOL    HW155871   6.465   1.877   4.154
51344SOL    HW255872   6.576   1.774   4.152
51345SOL     OW55873  14.332   0.557   2.885
51345SOL    HW155874  14.287   0.514   2.958
51345SOL    HW255875  14.266   0.616   2.848
51346SOL     OW55876   6.936  14.087   7.140
51346SOL    HW155877   6.918  14.129   7.225
51346SOL    HW255878   6.986  14.153   7.092
51347SOL     OW55879  11.593  12.424   9.247
51347SOL    HW155880  11.616  12.439   9.338
51347SOL    HW255881  11.576  12.330   9.242
51348SOL     OW55882   8.703   2.017   7.006
51348SOL    HW155883   8.782   2.056   7.044
51348SOL    HW255884   8.666   1.965   7.077
51349SOL     OW55885   2.300   8.208   8.007
51349SOL    HW155886   2.387   8.167   8.003
51349SOL    HW255887   2.300   8.255   8.090
51350SOL     OW55888   6.881  11.777   8.698
51350SOL    HW155889   6.975  11.779   8.716
51350SOL    HW255890   6.870  11.839   8.626
51351SOL     OW55891   1.138  13.476   8.787
51351SOL    HW155892   1.138  13.494   8.881
51351SOL    HW255893   1.065  13.527   8.753
51352SOL     OW55894   0.669  14.759   5.548
51352SOL    HW155895   0.739  14.785   5.609
51352SOL    HW255896   0.665  14.829   5.484
51353SOL     OW55897   1.416  10.432  11.454
51353SOL    HW155898   1.414  10.343  11.488
51353SOL    HW255899   1.379  10.486  11.524
51354SOL     OW55900   9.386   4.883  10.583
51354SOL    HW155901   9.388   4.882  10.679
51354SOL    HW255902   9.430   4.964  10.559
51355SOL     OW55903  14.402   5.516  12.818
51355SOL    HW155904  14.454   5.437  12.827
51355SOL    HW255905  14.313   5.485  12.802
51356SOL     OW55906   5.868   4.535   3.594
51356SOL    HW155907   5.889   4.568   3.681
51356SOL    HW255908   5.952   4.531   3.549
51357SOL     OW55909  12.886   7.793   1.783
51357SOL    HW155910  12.941   7.726   1.742
51357SOL    HW255911  12.866   7.855   1.713
51358SOL     OW55912   4.334   4.072   2.714
51358SOL    HW155913   4.366   4.033   2.633
51358SOL    HW255914   4.258   4.124   2.687
51359SOL     OW55915   4.023  12.589   8.385
51359SOL    HW155916   3.934  12.625   8.392
51359SOL    HW255917   4.080  12.664   8.400
51360SOL     OW55918   9.025   9.387  10.172
51360SOL    HW155919   9.007   9.451  10.241
51360SOL    HW255920   8.961   9.318  10.185
51361SOL     OW55921   0.039   5.036   6.713
51361SOL    HW155922  14.877   4.954   6.741
51361SOL    HW255923   0.131   5.026   6.738
51362SOL     OW55924   6.210  14.429   0.105
51362SOL    HW155925   6.132  14.464   0.147
51362SOL    HW255926   6.178  14.381   0.029
51363SOL     OW55927   6.654   2.196  11.499
51363SOL    HW155928   6.682   2.285  11.479
51363SOL    HW255929   6.600   2.170  11.424
51364SOL     OW55930   5.407  11.156   8.076
51364SOL    HW155931   5.484  11.192   8.120
51364SOL    HW255932   5.366  11.099   8.141
51365SOL     OW55933   5.508  12.211   4.914
51365SOL    HW155934   5.506  12.171   5.001
51365SOL    HW255935   5.598  12.197   4.883
51366SOL     OW55936   8.907  11.465   9.796
51366SOL    HW155937   8.884  11.517   9.874
51366SOL    HW255938   8.825  11.423   9.770
51367SOL     OW55939  10.197   5.321   8.095
51367SOL    HW155940  10.264   5.375   8.053
51367SOL    HW255941  10.124   5.321   8.033
51368SOL     OW55942   8.700  11.882   8.481
51368SOL    HW155943   8.774  11.897   8.540
51368SOL    HW255944   8.726  11.808   8.428
51369SOL     OW55945   2.489  12.571  11.778
51369SOL    HW155946   2.549  12.497  11.770
51369SOL    HW255947   2.523  12.622  11.851
51370SOL     OW55948  13.810  11.495   6.630
51370SOL    HW155949  13.829  11.409   6.667
51370SOL    HW255950  13.725  11.485   6.586
51371SOL     OW55951  13.853   6.616   0.604
51371SOL    HW155952  13.806   6.580   0.680
51371SOL    HW255953  13.873   6.540   0.549
51372SOL     OW55954   7.518   0.660   8.031
51372SOL    HW155955   7.552   0.678   8.119
51372SOL    HW255956   7.583   0.699   7.972
51373SOL     OW55957   5.854  14.698   8.144
51373SOL    HW155958   5.840  14.792   8.148
51373SOL    HW255959   5.947  14.687   8.165
51374SOL     OW55960  14.169  13.861   3.296
51374SOL    HW155961  14.127  13.947   3.298
51374SOL    HW255962  14.096  13.799   3.295
51375SOL     OW55963   0.287   1.190   8.640
51375SOL    HW155964   0.227   1.179   8.714
51375SOL    HW255965   0.231   1.212   8.566
51376SOL     OW55966   9.524   0.708  14.651
51376SOL    HW155967   9.440   0.744  14.626
51376SOL    HW255968   9.552   0.655  14.576
51377SOL     OW55969  10.137   0.756   9.320
51377SOL    HW155970  10.065   0.814   9.347
51377SOL    HW255971  10.129   0.680   9.378
51378SOL     OW55972   3.096  11.012   4.192
51378SOL    HW155973   3.043  10.978   4.120
51378SOL    HW255974   3.159  11.071   4.149
51379SOL     OW55975  13.349   5.007  12.117
51379SOL    HW155976  13.387   4.966  12.039
51379SOL    HW255977  13.415   4.995  12.185
51380SOL     OW55978   2.515  10.541  14.323
51380SOL    HW155979   2.439  10.499  14.364
51380SOL    HW255980   2.520  10.501  14.236
51381SOL     OW55981   0.297   1.639   7.850
51381SOL    HW155982   0.208   1.605   7.843
51381SOL    HW255983   0.343   1.575   7.904
51382SOL     OW55984   9.443   6.011   1.629
51382SOL    HW155985   9.430   5.985   1.720
51382SOL    HW255986   9.368   6.069   1.611
51383SOL     OW55987   4.423   8.545   6.909
51383SOL    HW155988   4.419   8.507   6.997
51383SOL    HW255989   4.516   8.538   6.885
51384SOL     OW55990   1.187   4.298   9.905
51384SOL    HW155991   1.125   4.364   9.938
51384SOL    HW255992   1.249   4.285   9.977
51385SOL     OW55993   3.943   3.671   8.469
51385SOL    HW155994   4.028   3.696   8.433
51385SOL    HW255995   3.879   3.718   8.416
51386SOL     OW55996   2.153   1.909  12.593
51386SOL    HW155997   2.123   1.999  12.580
51386SOL    HW255998   2.074   1.861  12.618
51387SOL     OW55999   9.844  12.247  11.278
51387SOL    HW156000   9.914  12.183  11.286
51387SOL    HW256001   9.764  12.198  11.296
51388SOL     OW56002   6.306  13.887   7.933
51388SOL    HW156003   6.342  13.876   8.021
51388SOL    HW256004   6.225  13.836   7.934
51389SOL     OW56005   6.416  13.299  14.476
51389SOL    HW156006   6.501  13.281  14.517
51389SOL    HW256007   6.418  13.248  14.395
51390SOL     OW56008   6.365  14.633   8.824
51390SOL    HW156009   6.325  14.593   8.901
51390SOL    HW256010   6.362  14.565   8.757
51391SOL     OW56011   2.413   8.000   9.428
51391SOL    HW156012   2.323   7.967   9.430
51391SOL    HW256013   2.411   8.079   9.483
51392SOL     OW56014  12.942   7.495  12.916
51392SOL    HW156015  12.995   7.443  12.855
51392SOL    HW256016  12.866   7.440  12.935
51393SOL     OW56017   2.580   9.696   1.080
51393SOL    HW156018   2.582   9.601   1.068
51393SOL    HW256019   2.492   9.722   1.054
51394SOL     OW56020   0.975   4.466  11.720
51394SOL    HW156021   1.006   4.549  11.685
51394SOL    HW256022   1.045   4.404  11.699
51395SOL     OW56023   3.627  11.651  11.068
51395SOL    HW156024   3.703  11.646  11.009
51395SOL    HW256025   3.635  11.574  11.124
51396SOL     OW56026   6.954   3.834   2.793
51396SOL    HW156027   7.026   3.780   2.826
51396SOL    HW256028   6.945   3.903   2.859
51397SOL     OW56029  12.692  11.578   2.100
51397SOL    HW156030  12.754  11.535   2.041
51397SOL    HW256031  12.620  11.516   2.109
51398SOL     OW56032   1.637   2.674  10.803
51398SOL    HW156033   1.670   2.621  10.730
51398SOL    HW256034   1.556   2.712  10.769
51399SOL     OW56035  10.536   1.012   1.425
51399SOL    HW156036  10.510   1.007   1.517
51399SOL    HW256037  10.486   0.944   1.381
51400SOL     OW56038  11.124  13.662   7.575
51400SOL    HW156039  11.110  13.609   7.497
51400SOL    HW256040  11.219  13.661   7.587
51401SOL     OW56041  11.499  10.846  12.375
51401SOL    HW156042  11.561  10.773  12.374
51401SOL    HW256043  11.553  10.923  12.393
51402SOL     OW56044   0.896  10.730   5.582
51402SOL    HW156045   0.978  10.775   5.604
51402SOL    HW256046   0.848  10.725   5.665
51403SOL     OW56047  14.342   2.315   7.296
51403SOL    HW156048  14.298   2.261   7.230
51403SOL    HW256049  14.308   2.403   7.282
51404SOL     OW56050   4.992  13.172   8.501
51404SOL    HW156051   5.041  13.095   8.530
51404SOL    HW256052   4.959  13.211   8.581
51405SOL     OW56053   7.569  10.717   5.213
51405SOL    HW156054   7.544  10.754   5.297
51405SOL    HW256055   7.617  10.787   5.169
51406SOL     OW56056   4.464  14.353   7.037
51406SOL    HW156057   4.546  14.349   6.989
51406SOL    HW256058   4.433  14.263   7.041
51407SOL     OW56059  14.461   3.983   8.446
51407SOL    HW156060  14.500   4.003   8.361
51407SOL    HW256061  14.503   3.901   8.473
51408SOL     OW56062   5.090  14.599   3.483
51408SOL    HW156063   5.088  14.550   3.400
51408SOL    HW256064   5.183  14.617   3.497
51409SOL     OW56065   5.249  10.955   2.152
51409SOL    HW156066   5.159  10.965   2.184
51409SOL    HW256067   5.242  10.894   2.079
51410SOL     OW56068  14.780   1.839  11.272
51410SOL    HW156069  14.793   1.933  11.280
51410SOL    HW256070  14.867   1.801  11.278
51411SOL     OW56071   5.013   4.631  12.365
51411SOL    HW156072   5.059   4.593  12.440
51411SOL    HW256073   4.923   4.601  12.374
51412SOL     OW56074   2.228  13.302   3.359
51412SOL    HW156075   2.268  13.342   3.436
51412SOL    HW256076   2.241  13.208   3.372
51413SOL     OW56077   4.530   3.140   9.918
51413SOL    HW156078   4.441   3.174   9.907
51413SOL    HW256079   4.575   3.208   9.968
51414SOL     OW56080   0.458  12.392   8.153
51414SOL    HW156081   0.382  12.429   8.107
51414SOL    HW256082   0.440  12.408   8.246
51415SOL     OW56083   9.513   8.519   1.062
51415SOL    HW156084   9.515   8.471   1.144
51415SOL    HW256085   9.568   8.468   1.003
51416SOL     OW56086  14.811  12.476   8.926
51416SOL    HW156087  14.840  12.434   8.845
51416SOL    HW256088  14.867  12.437   8.994
51417SOL     OW56089   7.259   3.499  12.338
51417SOL    HW156090   7.202   3.565  12.299
51417SOL    HW256091   7.292   3.449  12.263
51418SOL     OW56092   9.671   5.570   4.174
51418SOL    HW156093   9.579   5.545   4.181
51418SOL    HW256094   9.710   5.536   4.254
51419SOL     OW56095  12.140   3.630   7.544
51419SOL    HW156096  12.132   3.611   7.637
51419SOL    HW256097  12.200   3.563   7.511
51420SOL     OW56098   0.800   3.982   6.418
51420SOL    HW156099   0.729   3.926   6.449
51420SOL    HW256100   0.877   3.926   6.420
51421SOL     OW56101   7.314  11.175  14.196
51421SOL    HW156102   7.283  11.241  14.259
51421SOL    HW256103   7.380  11.126  14.244
51422SOL     OW56104  13.798  11.699   4.309
51422SOL    HW156105  13.854  11.772   4.336
51422SOL    HW256106  13.859  11.633   4.274
51423SOL     OW56107   1.072   2.954  14.109
51423SOL    HW156108   1.150   2.899  14.103
51423SOL    HW256109   1.093   3.030  14.055
51424SOL     OW56110   5.216   5.392   5.454
51424SOL    HW156111   5.276   5.394   5.380
51424SOL    HW256112   5.263   5.437   5.525
51425SOL     OW56113   6.805   3.324  12.317
51425SOL    HW156114   6.805   3.365  12.231
51425SOL    HW256115   6.721   3.279  12.323
51426SOL     OW56116   6.884   5.674   2.026
51426SOL    HW156117   6.798   5.691   2.064
51426SOL    HW256118   6.884   5.580   2.006
51427SOL     OW56119   1.702   6.424   3.610
51427SOL    HW156120   1.795   6.436   3.589
51427SOL    HW256121   1.697   6.335   3.646
51428SOL     OW56122   7.953   6.135  11.477
51428SOL    HW156123   7.942   6.225  11.445
51428SOL    HW256124   8.001   6.090  11.408
51429SOL     OW56125   9.639  10.959  11.029
51429SOL    HW156126   9.618  10.865  11.030
51429SOL    HW256127   9.734  10.962  11.021
51430SOL     OW56128   4.689   1.744   5.854
51430SOL    HW156129   4.671   1.838   5.860
51430SOL    HW256130   4.746   1.736   5.777
51431SOL     OW56131   2.909  12.203  11.700
51431SOL    HW156132   2.987  12.166  11.659
51431SOL    HW256133   2.937  12.289  11.732
51432SOL     OW56134   4.671   8.476   9.524
51432SOL    HW156135   4.668   8.418   9.448
51432SOL    HW256136   4.678   8.564   9.487
51433SOL     OW56137  11.966   6.631   6.383
51433SOL    HW156138  11.977   6.725   6.375
51433SOL    HW256139  11.965   6.615   6.477
51434SOL     OW56140   9.399   2.197  12.258
51434SOL    HW156141   9.333   2.193  12.327
51434SOL    HW256142   9.356   2.245  12.187
51435SOL     OW56143  14.516   2.293  11.765
51435SOL    HW156144  14.511   2.256  11.853
51435SOL    HW256145  14.565   2.229  11.715
51436SOL     OW56146   8.883   4.396   6.231
51436SOL    HW156147   8.866   4.490   6.237
51436SOL    HW256148   8.971   4.389   6.195
51437SOL     OW56149  13.311  14.701   5.975
51437SOL    HW156150  13.397  14.742   5.963
51437SOL    HW256151  13.328  14.627   6.034
51438SOL     OW56152   3.393  11.597   5.672
51438SOL    HW156153   3.358  11.685   5.687
51438SOL    HW256154   3.349  11.566   5.593
51439SOL     OW56155  13.941   3.560  12.493
51439SOL    HW156156  13.939   3.619  12.417
51439SOL    HW256157  14.028   3.573  12.531
51440SOL     OW56158  14.851   9.795   0.763
51440SOL    HW156159  14.781   9.756   0.710
51440SOL    HW256160  14.805   9.857   0.820
51441SOL     OW56161  11.942   6.407   1.244
51441SOL    HW156162  12.000   6.419   1.169
51441SOL    HW256163  11.945   6.314   1.263
51442SOL     OW56164   7.454   0.862  11.017
51442SOL    HW156165   7.547   0.872  11.002
51442SOL    HW256166   7.435   0.771  10.994
51443SOL     OW56167   0.762   8.303  14.550
51443SOL    HW156168   0.808   8.299  14.466
51443SOL    HW256169   0.678   8.344  14.530
51444SOL     OW56170   4.915  12.879   8.886
51444SOL    HW156171   4.829  12.881   8.844
51444SOL    HW256172   4.939  12.786   8.885
51445SOL     OW56173   3.615   5.352   1.155
51445SOL    HW156174   3.531   5.380   1.192
51445SOL    HW256175   3.607   5.369   1.061
51446SOL     OW56176   5.901   7.580   0.831
51446SOL    HW156177   5.884   7.590   0.925
51446SOL    HW256178   5.898   7.485   0.816
51447SOL     OW56179  11.664   9.740  12.310
51447SOL    HW156180  11.756   9.766  12.310
51447SOL    HW256181  11.659   9.671  12.376
51448SOL     OW56182   9.434   9.958   1.306
51448SOL    HW156183   9.405   9.925   1.221
51448SOL    HW256184   9.452  10.051   1.291
51449SOL     OW56185   6.959   1.895   6.254
51449SOL    HW156186   6.881   1.852   6.287
51449SOL    HW256187   7.023   1.825   6.244
51450SOL     OW56188   5.353   9.344   5.676
51450SOL    HW156189   5.427   9.291   5.707
51450SOL    HW256190   5.280   9.316   5.731
51451SOL     OW56191  14.014   9.743   6.293
51451SOL    HW156192  13.989   9.825   6.335
51451SOL    HW256193  13.930   9.700   6.273
51452SOL     OW56194  10.519   8.616   2.494
51452SOL    HW156195  10.473   8.687   2.449
51452SOL    HW256196  10.450   8.564   2.534
51453SOL     OW56197   7.713  12.075   3.220
51453SOL    HW156198   7.773  12.001   3.209
51453SOL    HW256199   7.656  12.071   3.143
51454SOL     OW56200  10.007   4.278  14.597
51454SOL    HW156201  10.053   4.361  14.612
51454SOL    HW256202   9.962   4.261  14.680
51455SOL     OW56203   4.496  11.883   3.638
51455SOL    HW156204   4.528  11.817   3.576
51455SOL    HW256205   4.552  11.873   3.715
51456SOL     OW56206  10.696  14.281   7.119
51456SOL    HW156207  10.646  14.218   7.068
51456SOL    HW256208  10.773  14.301   7.065
51457SOL     OW56209   2.411   8.307   8.267
51457SOL    HW156210   2.322   8.308   8.302
51457SOL    HW256211   2.460   8.250   8.326
51458SOL     OW56212   6.822  12.204  12.074
51458SOL    HW156213   6.890  12.194  12.140
51458SOL    HW256214   6.855  12.274  12.017
51459SOL     OW56215   9.346  12.644   1.931
51459SOL    HW156216   9.377  12.718   1.983
51459SOL    HW256217   9.351  12.674   1.840
51460SOL     OW56218  14.450  13.361   3.091
51460SOL    HW156219  14.526  13.386   3.038
51460SOL    HW256220  14.431  13.438   3.144
51461SOL     OW56221   3.855  12.256  13.131
51461SOL    HW156222   3.846  12.326  13.196
51461SOL    HW256223   3.949  12.238  13.129
51462SOL     OW56224   1.422   2.986   9.567
51462SOL    HW156225   1.486   3.031   9.511
51462SOL    HW256226   1.341   2.987   9.517
51463SOL     OW56227   8.320   8.969   0.422
51463SOL    HW156228   8.272   8.905   0.475
51463SOL    HW256229   8.252   9.023   0.383
51464SOL     OW56230   3.096   2.191  13.654
51464SOL    HW156231   3.061   2.109  13.690
51464SOL    HW256232   3.136   2.234  13.729
51465SOL     OW56233   9.774   7.217   2.904
51465SOL    HW156234   9.741   7.131   2.929
51465SOL    HW256235   9.748   7.227   2.812
51466SOL     OW56236  12.064  14.598  13.026
51466SOL    HW156237  11.992  14.596  12.964
51466SOL    HW256238  12.118  14.672  12.998
51467SOL     OW56239   7.483   4.763  12.952
51467SOL    HW156240   7.473   4.776  12.858
51467SOL    HW256241   7.541   4.834  12.980
51468SOL     OW56242   9.492   9.847   6.619
51468SOL    HW156243   9.496   9.850   6.523
51468SOL    HW256244   9.542   9.923   6.647
51469SOL     OW56245  14.055   5.269  13.872
51469SOL    HW156246  13.966   5.244  13.845
51469SOL    HW256247  14.068   5.223  13.955
51470SOL     OW56248   7.032  14.502   9.497
51470SOL    HW156249   7.070  14.539   9.417
51470SOL    HW256250   7.030  14.408   9.481
51471SOL     OW56251   1.184   2.838   0.192
51471SOL    HW156252   1.113   2.864   0.250
51471SOL    HW256253   1.222   2.920   0.161
51472SOL     OW56254   9.476   4.193  10.750
51472SOL    HW156255   9.478   4.098  10.762
51472SOL    HW256256   9.538   4.210  10.679
51473SOL     OW56257  11.072   1.746   3.009
51473SOL    HW156258  11.067   1.717   2.918
51473SOL    HW256259  11.154   1.796   3.014
51474SOL     OW56260  14.787   4.994  10.819
51474SOL    HW156261  14.757   5.078  10.783
51474SOL    HW256262  14.874   4.981  10.781
51475SOL     OW56263   4.226   5.351   0.326
51475SOL    HW156264   4.235   5.373   0.419
51475SOL    HW256265   4.310   5.311   0.303
51476SOL     OW56266   3.345  14.753  14.104
51476SOL    HW156267   3.418  14.710  14.060
51476SOL    HW256268   3.384  14.829  14.147
51477SOL     OW56269   6.543   3.730   2.967
51477SOL    HW156270   6.528   3.652   2.914
51477SOL    HW256271   6.501   3.801   2.918
51478SOL     OW56272   3.807  11.172  11.418
51478SOL    HW156273   3.721  11.133  11.404
51478SOL    HW256274   3.803  11.255  11.371
51479SOL     OW56275   0.435   7.888   2.401
51479SOL    HW156276   0.472   7.874   2.488
51479SOL    HW256277   0.493   7.837   2.343
51480SOL     OW56278   0.408   3.906   0.260
51480SOL    HW156279   0.376   3.882   0.173
51480SOL    HW256280   0.329   3.920   0.312
51481SOL     OW56281   1.738  14.150   0.652
51481SOL    HW156282   1.819  14.195   0.676
51481SOL    HW256283   1.678  14.221   0.627
51482SOL     OW56284   8.238   7.943   0.630
51482SOL    HW156285   8.273   7.900   0.707
51482SOL    HW256286   8.313   7.954   0.572
51483SOL     OW56287   9.387   0.555  13.364
51483SOL    HW156288   9.362   0.549  13.456
51483SOL    HW256289   9.431   0.640  13.356
51484SOL     OW56290   5.472   5.998  10.410
51484SOL    HW156291   5.532   6.072  10.404
51484SOL    HW256292   5.390   6.037  10.442
51485SOL     OW56293   5.926   1.045   7.870
51485SOL    HW156294   5.850   1.100   7.889
51485SOL    HW256295   5.987   1.103   7.826
51486SOL     OW56296   6.977   3.092   5.980
51486SOL    HW156297   6.958   3.126   5.893
51486SOL    HW256298   6.975   2.997   5.969
51487SOL     OW56299  12.978   6.559   1.000
51487SOL    HW156300  12.984   6.654   0.986
51487SOL    HW256301  12.914   6.549   1.071
51488SOL     OW56302   7.155  13.179   8.468
51488SOL    HW156303   7.198  13.097   8.493
51488SOL    HW256304   7.118  13.213   8.550
51489SOL     OW56305   6.408   9.866   3.520
51489SOL    HW156306   6.452   9.782   3.509
51489SOL    HW256307   6.478   9.930   3.527
51490SOL     OW56308   6.270  10.452   6.306
51490SOL    HW156309   6.314  10.488   6.383
51490SOL    HW256310   6.314  10.494   6.232
51491SOL     OW56311   1.655   2.460   9.977
51491SOL    HW156312   1.591   2.460  10.048
51491SOL    HW256313   1.736   2.492  10.016
51492SOL     OW56314  11.507  14.326   1.533
51492SOL    HW156315  11.602  14.335   1.534
51492SOL    HW256316  11.476  14.392   1.595
51493SOL     OW56317   3.240  14.383  12.325
51493SOL    HW156318   3.315  14.432  12.291
51493SOL    HW256319   3.266  14.357  12.413
51494SOL     OW56320   3.327  13.752  12.379
51494SOL    HW156321   3.280  13.670  12.397
51494SOL    HW256322   3.377  13.769  12.459
51495SOL     OW56323  13.757  11.851   0.499
51495SOL    HW156324  13.813  11.863   0.575
51495SOL    HW256325  13.728  11.940   0.477
51496SOL     OW56326   0.598   2.389   6.549
51496SOL    HW156327   0.617   2.300   6.578
51496SOL    HW256328   0.530   2.420   6.609
51497SOL     OW56329  14.321   7.752   8.008
51497SOL    HW156330  14.393   7.725   8.065
51497SOL    HW256331  14.298   7.840   8.038
51498SOL     OW56332   3.255   1.317   3.955
51498SOL    HW156333   3.274   1.233   3.913
51498SOL    HW256334   3.162   1.313   3.975
51499SOL     OW56335  13.278   2.257   5.226
51499SOL    HW156336  13.288   2.209   5.144
51499SOL    HW256337  13.336   2.332   5.217
51500SOL     OW56338   6.776  14.251   8.524
51500SOL    HW156339   6.732  14.331   8.552
51500SOL    HW256340   6.848  14.281   8.468
51501SOL     OW56341   9.216   0.275   8.671
51501SOL    HW156342   9.180   0.286   8.583
51501SOL    HW256343   9.264   0.192   8.667
51502SOL     OW56344   9.374  10.359   4.560
51502SOL    HW156345   9.348  10.390   4.473
51502SOL    HW256346   9.367  10.436   4.616
51503SOL     OW56347   8.394  11.897   7.214
51503SOL    HW156348   8.327  11.855   7.267
51503SOL    HW256349   8.366  11.988   7.207
51504SOL     OW56350   5.477   2.293  12.893
51504SOL    HW156351   5.446   2.206  12.868
51504SOL    HW256352   5.420   2.353  12.846
51505SOL     OW56353   6.546   4.838  13.675
51505SOL    HW156354   6.466   4.852  13.623
51505SOL    HW256355   6.617   4.849  13.612
51506SOL     OW56356   8.492   0.688  12.977
51506SOL    HW156357   8.484   0.595  12.999
51506SOL    HW256358   8.439   0.699  12.898
51507SOL     OW56359  11.628  12.221   2.515
51507SOL    HW156360  11.704  12.195   2.463
51507SOL    HW256361  11.570  12.265   2.453
51508SOL     OW56362   5.914   2.277  11.120
51508SOL    HW156363   5.939   2.318  11.202
51508SOL    HW256364   5.825   2.246  11.134
51509SOL     OW56365   5.680   0.070   8.158
51509SOL    HW156366   5.705   0.077   8.066
51509SOL    HW256367   5.760   0.087   8.207
51510SOL     OW56368   6.670  12.929   1.830
51510SOL    HW156369   6.637  12.964   1.913
51510SOL    HW256370   6.745  12.874   1.856
51511SOL     OW56371  14.769  12.335   3.158
51511SOL    HW156372  14.761  12.340   3.253
51511SOL    HW256373  14.860  12.359   3.140
51512SOL     OW56374   4.409  10.080  14.234
51512SOL    HW156375   4.460  10.154  14.267
51512SOL    HW256376   4.318  10.106  14.248
51513SOL     OW56377   4.599   3.839   6.513
51513SOL    HW156378   4.665   3.892   6.556
51513SOL    HW256379   4.642   3.805   6.434
51514SOL     OW56380   8.481   1.229   5.191
51514SOL    HW156381   8.552   1.276   5.148
51514SOL    HW256382   8.460   1.158   5.131
51515SOL     OW56383  11.786   4.291   8.202
51515SOL    HW156384  11.826   4.376   8.182
51515SOL    HW256385  11.747   4.264   8.119
51516SOL     OW56386   8.615   4.543   9.774
51516SOL    HW156387   8.538   4.543   9.831
51516SOL    HW256388   8.600   4.617   9.714
51517SOL     OW56389   5.148   3.622   5.784
51517SOL    HW156390   5.198   3.540   5.781
51517SOL    HW256391   5.175   3.670   5.706
51518SOL     OW56392   5.457   3.923   0.987
51518SOL    HW156393   5.453   4.018   0.974
51518SOL    HW256394   5.464   3.912   1.082
51519SOL     OW56395  11.509  11.982   5.505
51519SOL    HW156396  11.426  12.017   5.537
51519SOL    HW256397  11.520  12.021   5.418
51520SOL     OW56398  13.054   3.014   9.053
51520SOL    HW156399  13.109   2.936   9.045
51520SOL    HW256400  12.987   2.989   9.117
51521SOL     OW56401   3.825   9.972   1.943
51521SOL    HW156402   3.871   9.981   2.026
51521SOL    HW256403   3.747   9.920   1.963
51522SOL     OW56404  11.151  13.100  12.824
51522SOL    HW156405  11.117  13.040  12.890
51522SOL    HW256406  11.232  13.134  12.861
51523SOL     OW56407   3.691   1.204  11.767
51523SOL    HW156408   3.658   1.127  11.721
51523SOL    HW256409   3.642   1.278  11.730
51524SOL     OW56410   1.188   3.902   0.593
51524SOL    HW156411   1.163   3.929   0.681
51524SOL    HW256412   1.108   3.869   0.554
51525SOL     OW56413   6.484   4.228   3.341
51525SOL    HW156414   6.522   4.307   3.377
51525SOL    HW256415   6.539   4.157   3.373
51526SOL     OW56416  14.622   6.724   1.971
51526SOL    HW156417  14.613   6.783   1.896
51526SOL    HW256418  14.542   6.671   1.968
51527SOL     OW56419   7.204  10.332   6.781
51527SOL    HW156420   7.277  10.299   6.729
51527SOL    HW256421   7.243  10.355   6.865
51528SOL     OW56422   6.991   1.015   0.082
51528SOL    HW156423   7.003   0.926   0.115
51528SOL    HW256424   6.985   1.069   0.161
51529SOL     OW56425   1.802   4.978   8.071
51529SOL    HW156426   1.760   4.910   8.018
51529SOL    HW256427   1.893   4.948   8.081
51530SOL     OW56428  10.381   4.865   2.167
51530SOL    HW156429  10.357   4.773   2.164
51530SOL    HW256430  10.323   4.908   2.104
51531SOL     OW56431   3.181   1.674   8.226
51531SOL    HW156432   3.138   1.710   8.148
51531SOL    HW256433   3.212   1.588   8.198
51532SOL     OW56434  13.858   5.058   1.657
51532SOL    HW156435  13.778   5.092   1.618
51532SOL    HW256436  13.896   5.132   1.704
51533SOL     OW56437  10.012   3.538   1.904
51533SOL    HW156438  10.106   3.548   1.895
51533SOL    HW256439   9.995   3.448   1.876
51534SOL     OW56440   1.380   1.612   4.546
51534SOL    HW156441   1.306   1.551   4.551
51534SOL    HW256442   1.440   1.583   4.615
51535SOL     OW56443   9.399  10.407  10.603
51535SOL    HW156444   9.408  10.455  10.520
51535SOL    HW256445   9.395  10.315  10.577
51536SOL     OW56446  12.318   8.436   8.165
51536SOL    HW156447  12.268   8.494   8.222
51536SOL    HW256448  12.268   8.434   8.083
51537SOL     OW56449  11.764   0.260   8.567
51537SOL    HW156450  11.768   0.337   8.624
51537SOL    HW256451  11.777   0.186   8.625
51538SOL     OW56452   2.295   2.290  12.258
51538SOL    HW156453   2.370   2.236  12.232
51538SOL    HW256454   2.231   2.278  12.188
51539SOL     OW56455   0.358  10.170  10.962
51539SOL    HW156456   0.274  10.124  10.965
51539SOL    HW256457   0.405  10.140  11.041
51540SOL     OW56458   2.997  10.436   2.081
51540SOL    HW156459   2.922  10.398   2.036
51540SOL    HW256460   2.997  10.395   2.167
51541SOL     OW56461   0.161   3.808   2.099
51541SOL    HW156462   0.066   3.819   2.093
51541SOL    HW256463   0.177   3.722   2.061
51542SOL     OW56464   6.296   0.720   8.427
51542SOL    HW156465   6.353   0.647   8.403
51542SOL    HW256466   6.314   0.735   8.520
51543SOL     OW56467  10.223   0.061   3.643
51543SOL    HW156468  10.218   0.082   3.550
51543SOL    HW256469  10.168  14.864   3.654
51544SOL     OW56470   7.363  11.582   0.246
51544SOL    HW156471   7.404  11.654   0.293
51544SOL    HW256472   7.269  11.600   0.251
51545SOL     OW56473   5.483  14.405   6.282
51545SOL    HW156474   5.529  14.386   6.200
51545SOL    HW256475   5.514  14.492   6.307
51546SOL     OW56476   1.547  11.636   8.026
51546SOL    HW156477   1.494  11.715   8.041
51546SOL    HW256478   1.579  11.646   7.936
51547SOL     OW56479   1.151   4.058   5.699
51547SOL    HW156480   1.234   4.076   5.744
51547SOL    HW256481   1.085   4.067   5.768
51548SOL     OW56482   2.103  10.232   6.494
51548SOL    HW156483   2.095  10.165   6.425
51548SOL    HW256484   2.023  10.284   6.485
51549SOL     OW56485   8.543   7.178   9.641
51549SOL    HW156486   8.456   7.165   9.678
51549SOL    HW256487   8.535   7.153   9.549
51550SOL     OW56488   8.995  11.539   7.333
51550SOL    HW156489   9.083  11.578   7.333
51550SOL    HW256490   8.969  11.538   7.241
51551SOL     OW56491   7.098   3.623   5.634
51551SOL    HW156492   7.017   3.629   5.685
51551SOL    HW256493   7.129   3.534   5.649
51552SOL     OW56494  12.103   8.564   6.664
51552SOL    HW156495  12.103   8.473   6.637
51552SOL    HW256496  12.021   8.576   6.711
51553SOL     OW56497  11.501   3.152   0.157
51553SOL    HW156498  11.560   3.220   0.191
51553SOL    HW256499  11.421   3.200   0.133
51554SOL     OW56500  12.017   8.276   7.340
51554SOL    HW156501  11.935   8.251   7.297
51554SOL    HW256502  12.002   8.366   7.369
51555SOL     OW56503   4.936   6.406  14.119
51555SOL    HW156504   4.851   6.421  14.159
51555SOL    HW256505   4.920   6.412  14.025
51556SOL     OW56506   6.509   6.227  11.302
51556SOL    HW156507   6.550   6.303  11.344
51556SOL    HW256508   6.452   6.191  11.369
51557SOL     OW56509   0.906   2.620   3.259
51557SOL    HW156510   0.954   2.538   3.269
51557SOL    HW256511   0.831   2.612   3.318
51558SOL     OW56512   5.916   6.068  13.966
51558SOL    HW156513   5.956   5.981  13.965
51558SOL    HW256514   5.988   6.128  13.944
51559SOL     OW56515   2.265   2.473   8.749
51559SOL    HW156516   2.323   2.400   8.729
51559SOL    HW256517   2.287   2.497   8.839
51560SOL     OW56518  11.071   7.336  13.583
51560SOL    HW156519  11.062   7.242  13.566
51560SOL    HW256520  10.991   7.360  13.630
51561SOL     OW56521   8.947   7.901  14.464
51561SOL    HW156522   9.013   7.933  14.402
51561SOL    HW256523   8.981   7.925  14.550
51562SOL     OW56524   3.269   1.329   4.833
51562SOL    HW156525   3.260   1.306   4.741
51562SOL    HW256526   3.259   1.246   4.880
51563SOL     OW56527   9.481  11.728   0.344
51563SOL    HW156528   9.529  11.810   0.358
51563SOL    HW256529   9.512  11.670   0.415
51564SOL     OW56530   9.411  10.224   7.582
51564SOL    HW156531   9.324  10.226   7.621
51564SOL    HW256532   9.460  10.161   7.636
51565SOL     OW56533  13.087   9.404  11.876
51565SOL    HW156534  13.135   9.487  11.868
51565SOL    HW256535  13.095   9.363  11.790
51566SOL     OW56536   4.809   4.274   1.016
51566SOL    HW156537   4.854   4.219   0.951
51566SOL    HW256538   4.746   4.216   1.057
51567SOL     OW56539   8.597   5.612   2.657
51567SOL    HW156540   8.653   5.578   2.586
51567SOL    HW256541   8.547   5.682   2.616
51568SOL     OW56542  13.227   0.285   6.537
51568SOL    HW156543  13.171   0.354   6.572
51568SOL    HW256544  13.167   0.213   6.515
51569SOL     OW56545  14.619   2.197   0.463
51569SOL    HW156546  14.536   2.186   0.509
51569SOL    HW256547  14.678   2.237   0.527
51570SOL     OW56548  12.641  13.765   5.004
51570SOL    HW156549  12.726  13.772   4.961
51570SOL    HW256550  12.661  13.735   5.092
51571SOL     OW56551  12.335  11.428   3.071
51571SOL    HW156552  12.266  11.369   3.040
51571SOL    HW256553  12.394  11.437   2.996
51572SOL     OW56554  12.102  14.305   8.231
51572SOL    HW156555  12.129  14.213   8.236
51572SOL    HW256556  12.171  14.347   8.179
51573SOL     OW56557   8.633  14.701  14.480
51573SOL    HW156558   8.664  14.728  14.393
51573SOL    HW256559   8.550  14.747  14.491
51574SOL     OW56560  11.843   1.564  10.568
51574SOL    HW156561  11.923   1.592  10.612
51574SOL    HW256562  11.874   1.517  10.490
51575SOL     OW56563  11.298  12.180   2.244
51575SOL    HW156564  11.222  12.168   2.187
51575SOL    HW256565  11.262  12.172   2.333
51576SOL     OW56566   1.450  10.885  11.818
51576SOL    HW156567   1.435  10.866  11.725
51576SOL    HW256568   1.544  10.903  11.824
51577SOL     OW56569   3.228   9.955   7.744
51577SOL    HW156570   3.209  10.045   7.720
51577SOL    HW256571   3.143   9.912   7.749
51578SOL     OW56572   1.745   4.921   1.387
51578SOL    HW156573   1.762   4.985   1.318
51578SOL    HW256574   1.758   4.837   1.346
51579SOL     OW56575   7.688   3.068   6.791
51579SOL    HW156576   7.635   3.055   6.869
51579SOL    HW256577   7.635   3.033   6.719
51580SOL     OW56578   0.283   4.407  13.003
51580SOL    HW156579   0.195   4.380  13.031
51580SOL    HW256580   0.268   4.458  12.923
51581SOL     OW56581   8.503   2.980  13.178
51581SOL    HW156582   8.534   3.051  13.234
51581SOL    HW256583   8.552   2.990  13.097
51582SOL     OW56584   6.346   5.653   5.648
51582SOL    HW156585   6.396   5.708   5.589
51582SOL    HW256586   6.333   5.707   5.726
51583SOL     OW56587  12.448  12.326  10.635
51583SOL    HW156588  12.513  12.259  10.657
51583SOL    HW256589  12.380  12.278  10.587
51584SOL     OW56590  12.127   3.801   6.585
51584SOL    HW156591  12.124   3.881   6.638
51584SOL    HW256592  12.035   3.780   6.567
51585SOL     OW56593   8.059   2.988   8.932
51585SOL    HW156594   8.023   2.943   9.008
51585SOL    HW256595   7.987   3.044   8.901
51586SOL     OW56596  11.658   0.294   8.249
51586SOL    HW156597  11.642   0.290   8.343
51586SOL    HW256598  11.599   0.362   8.217
51587SOL     OW56599  11.685   7.694   2.172
51587SOL    HW156600  11.612   7.688   2.110
51587SOL    HW256601  11.725   7.607   2.171
51588SOL     OW56602  10.260   6.959  12.183
51588SOL    HW156603  10.291   6.873  12.210
51588SOL    HW256604  10.248   6.951  12.088
51589SOL     OW56605   4.375   1.251  10.737
51589SOL    HW156606   4.405   1.330  10.691
51589SOL    HW256607   4.296   1.279  10.783
51590SOL     OW56608   3.154  10.886  14.816
51590SOL    HW156609   3.110  10.858  14.736
51590SOL    HW256610   3.220  10.949  14.787
51591SOL     OW56611   5.949   9.676   8.699
51591SOL    HW156612   6.005   9.600   8.709
51591SOL    HW256613   5.884   9.649   8.634
51592SOL     OW56614   8.570   3.892   0.675
51592SOL    HW156615   8.659   3.881   0.642
51592SOL    HW256616   8.576   3.966   0.734
51593SOL     OW56617   9.698   1.521   2.329
51593SOL    HW156618   9.707   1.536   2.235
51593SOL    HW256619   9.644   1.443   2.336
51594SOL     OW56620   7.347   2.078  13.029
51594SOL    HW156621   7.331   2.111  12.940
51594SOL    HW256622   7.390   1.994  13.016
51595SOL     OW56623  11.722  12.619   1.069
51595SOL    HW156624  11.735  12.701   1.117
51595SOL    HW256625  11.696  12.555   1.136
51596SOL     OW56626   7.824   5.035   0.703
51596SOL    HW156627   7.903   5.021   0.756
51596SOL    HW256628   7.827   4.968   0.636
51597SOL     OW56629   9.019   7.458   8.242
51597SOL    HW156630   8.949   7.481   8.181
51597SOL    HW256631   9.073   7.395   8.194
51598SOL     OW56632   9.076   2.684  12.053
51598SOL    HW156633   9.024   2.606  12.032
51598SOL    HW256634   9.035   2.720  12.132
51599SOL     OW56635   9.198   7.978   7.069
51599SOL    HW156636   9.185   7.911   7.002
51599SOL    HW256637   9.166   8.059   7.030
51600SOL     OW56638   8.652   0.623  11.885
51600SOL    HW156639   8.671   0.662  11.971
51600SOL    HW256640   8.562   0.592  11.892
51601SOL     OW56641   4.452   5.842  14.049
51601SOL    HW156642   4.483   5.879  14.131
51601SOL    HW256643   4.523   5.858  13.987
51602SOL     OW56644   5.968  11.228   2.987
51602SOL    HW156645   5.960  11.159   2.920
51602SOL    HW256646   6.030  11.192   3.051
51603SOL     OW56647   6.126   3.006   7.671
51603SOL    HW156648   6.158   3.078   7.617
51603SOL    HW256649   6.205   2.970   7.712
51604SOL     OW56650   9.825   1.378   8.935
51604SOL    HW156651   9.842   1.341   9.021
51604SOL    HW256652   9.805   1.302   8.880
51605SOL     OW56653   0.631  10.351   5.254
51605SOL    HW156654   0.699  10.283   5.250
51605SOL    HW256655   0.565  10.322   5.191
51606SOL     OW56656   6.725   7.230   1.152
51606SOL    HW156657   6.706   7.244   1.245
51606SOL    HW256658   6.741   7.318   1.117
51607SOL     OW56659  14.081  13.709  13.192
51607SOL    HW156660  14.131  13.640  13.236
51607SOL    HW256661  14.050  13.765  13.263
51608SOL     OW56662  12.033   2.113   7.508
51608SOL    HW156663  11.989   2.192   7.478
51608SOL    HW256664  11.981   2.041   7.472
51609SOL     OW56665   5.079  10.317  11.438
51609SOL    HW156666   5.098  10.381  11.507
51609SOL    HW256667   5.010  10.262  11.476
51610SOL     OW56668  14.261   4.746   6.407
51610SOL    HW156669  14.320   4.777   6.476
51610SOL    HW256670  14.318   4.718   6.336
51611SOL     OW56671   0.640  10.797   4.168
51611SOL    HW156672   0.628  10.731   4.100
51611SOL    HW256673   0.700  10.861   4.129
51612SOL     OW56674   4.711  13.196   5.330
51612SOL    HW156675   4.743  13.151   5.253
51612SOL    HW256676   4.781  13.187   5.395
51613SOL     OW56677   3.689   6.228   2.051
51613SOL    HW156678   3.633   6.249   1.976
51613SOL    HW256679   3.660   6.290   2.119
51614SOL     OW56680   1.397  13.617   5.650
51614SOL    HW156681   1.390  13.532   5.695
51614SOL    HW256682   1.389  13.595   5.557
51615SOL     OW56683   0.372   0.796  11.738
51615SOL    HW156684   0.377   0.712  11.784
51615SOL    HW256685   0.428   0.854  11.789
51616SOL     OW56686   3.425  10.161   8.113
51616SOL    HW156687   3.433  10.108   8.033
51616SOL    HW256688   3.425  10.098   8.184
51617SOL     OW56689   6.220   2.567   2.218
51617SOL    HW156690   6.227   2.655   2.182
51617SOL    HW256691   6.296   2.520   2.185
51618SOL     OW56692   7.488   8.021  10.681
51618SOL    HW156693   7.432   8.016  10.604
51618SOL    HW256694   7.442   7.970  10.747
51619SOL     OW56695  14.727   1.074   5.791
51619SOL    HW156696  14.755   1.102   5.704
51619SOL    HW256697  14.680   0.992   5.776
51620SOL     OW56698   1.894  10.623   1.109
51620SOL    HW156699   1.938  10.706   1.092
51620SOL    HW256700   1.800  10.645   1.106
51621SOL     OW56701   9.436   9.405   5.599
51621SOL    HW156702   9.418   9.315   5.624
51621SOL    HW256703   9.368   9.426   5.534
51622SOL     OW56704   4.604  12.599   2.713
51622SOL    HW156705   4.680  12.633   2.665
51622SOL    HW256706   4.529  12.631   2.664
51623SOL     OW56707  14.397   6.562   1.933
51623SOL    HW156708  14.311   6.590   1.965
51623SOL    HW256709  14.408   6.473   1.968
51624SOL     OW56710   9.087   7.910   8.751
51624SOL    HW156711   9.018   7.908   8.685
51624SOL    HW256712   9.143   7.835   8.729
51625SOL     OW56713   8.777  13.721  13.873
51625SOL    HW156714   8.840  13.789  13.849
51625SOL    HW256715   8.772  13.726  13.969
51626SOL     OW56716   5.663   5.495   1.190
51626SOL    HW156717   5.647   5.415   1.241
51626SOL    HW256718   5.584   5.548   1.204
51627SOL     OW56719  14.800   8.754   1.401
51627SOL    HW156720  14.857   8.809   1.348
51627SOL    HW256721  14.856   8.682   1.430
51628SOL     OW56722   9.740   3.511  13.011
51628SOL    HW156723   9.737   3.419  13.038
51628SOL    HW256724   9.805   3.551  13.069
51629SOL     OW56725  12.560   2.205   3.441
51629SOL    HW156726  12.511   2.196   3.523
51629SOL    HW256727  12.513   2.273   3.392
51630SOL     OW56728  11.085  12.537   1.651
51630SOL    HW156729  11.141  12.591   1.595
51630SOL    HW256730  11.038  12.600   1.706
51631SOL     OW56731  12.292   0.634  12.205
51631SOL    HW156732  12.347   0.564  12.169
51631SOL    HW256733  12.319   0.713  12.157
51632SOL     OW56734  11.440  12.460  14.855
51632SOL    HW156735  11.492  12.498   0.046
51632SOL    HW256736  11.349  12.481  14.879
51633SOL     OW56737   7.846   7.540  13.150
51633SOL    HW156738   7.751   7.547  13.143
51633SOL    HW256739   7.871   7.608  13.213
51634SOL     OW56740  12.219   0.978   6.886
51634SOL    HW156741  12.306   0.962   6.922
51634SOL    HW256742  12.227   1.061   6.839
51635SOL     OW56743   5.854   8.835   9.267
51635SOL    HW156744   5.833   8.827   9.360
51635SOL    HW256745   5.950   8.837   9.264
51636SOL     OW56746   6.237   3.127   3.306
51636SOL    HW156747   6.207   3.188   3.239
51636SOL    HW256748   6.252   3.181   3.383
51637SOL     OW56749  11.604   0.284   1.129
51637SOL    HW156750  11.687   0.275   1.176
51637SOL    HW256751  11.559   0.357   1.172
51638SOL     OW56752   6.106   1.246   3.435
51638SOL    HW156753   6.012   1.244   3.454
51638SOL    HW256754   6.146   1.207   3.513
51639SOL     OW56755  11.785   3.749   4.449
51639SOL    HW156756  11.873   3.711   4.443
51639SOL    HW256757  11.796   3.827   4.503
51640SOL     OW56758   4.547   2.676   3.027
51640SOL    HW156759   4.498   2.700   2.949
51640SOL    HW256760   4.518   2.587   3.048
51641SOL     OW56761   6.368   6.726   3.639
51641SOL    HW156762   6.294   6.717   3.698
51641SOL    HW256763   6.431   6.659   3.668
51642SOL     OW56764  12.431  13.005   3.032
51642SOL    HW156765  12.507  13.063   3.030
51642SOL    HW256766  12.356  13.063   3.042
51643SOL     OW56767   6.212  10.238   0.041
51643SOL    HW156768   6.192  10.273  14.834
51643SOL    HW256769   6.230  10.145   0.025
51644SOL     OW56770  14.456   8.508   4.308
51644SOL    HW156771  14.459   8.441   4.240
51644SOL    HW256772  14.371   8.495   4.351
51645SOL     OW56773   3.720   6.013   0.234
51645SOL    HW156774   3.663   6.051   0.167
51645SOL    HW256775   3.683   6.042   0.317
51646SOL     OW56776   0.357   4.605  12.763
51646SOL    HW156777   0.308   4.619  12.682
51646SOL    HW256778   0.352   4.689  12.809
51647SOL     OW56779   4.817  12.187  11.990
51647SOL    HW156780   4.790  12.129  11.919
51647SOL    HW256781   4.751  12.256  11.990
51648SOL     OW56782  12.236  13.106   8.265
51648SOL    HW156783  12.320  13.151   8.277
51648SOL    HW256784  12.171  13.171   8.292
51649SOL     OW56785  13.554  11.166  14.007
51649SOL    HW156786  13.477  11.114  14.030
51649SOL    HW256787  13.565  11.226  14.080
51650SOL     OW56788   6.220  11.416  11.389
51650SOL    HW156789   6.215  11.361  11.467
51650SOL    HW256790   6.225  11.505  11.423
51651SOL     OW56791   5.924   0.028   3.357
51651SOL    HW156792   5.871  14.867   3.288
51651SOL    HW256793   5.984   0.086   3.310
51652SOL     OW56794   3.497   3.413   0.003
51652SOL    HW156795   3.423   3.469  14.858
51652SOL    HW256796   3.568   3.473   0.021
51653SOL     OW56797  11.712   4.438   9.754
51653SOL    HW156798  11.705   4.499   9.681
51653SOL    HW256799  11.778   4.476   9.811
51654SOL     OW56800   2.163  13.654   7.156
51654SOL    HW156801   2.200  13.705   7.228
51654SOL    HW256802   2.101  13.595   7.198
51655SOL     OW56803  11.535   5.578   8.834
51655SOL    HW156804  11.495   5.501   8.875
51655SOL    HW256805  11.499   5.652   8.883
51656SOL     OW56806  12.138   4.319  12.069
51656SOL    HW156807  12.074   4.380  12.106
51656SOL    HW256808  12.215   4.373  12.053
51657SOL     OW56809   5.706  13.737   4.442
51657SOL    HW156810   5.756  13.682   4.382
51657SOL    HW256811   5.643  13.782   4.386
51658SOL     OW56812  13.768   5.486  11.800
51658SOL    HW156813  13.781   5.476  11.894
51658SOL    HW256814  13.818   5.564  11.777
51659SOL     OW56815  11.441  10.849   4.391
51659SOL    HW156816  11.459  10.757   4.373
51659SOL    HW256817  11.369  10.872   4.333
51660SOL     OW56818   6.191   7.073   9.579
51660SOL    HW156819   6.137   6.998   9.602
51660SOL    HW256820   6.196   7.071   9.483
51661SOL     OW56821   0.787   7.387   7.653
51661SOL    HW156822   0.818   7.388   7.744
51661SOL    HW256823   0.732   7.465   7.646
51662SOL     OW56824   3.314   3.677  14.551
51662SOL    HW156825   3.323   3.581  14.550
51662SOL    HW256826   3.380   3.707  14.613
51663SOL     OW56827   3.074   4.724  13.177
51663SOL    HW156828   3.069   4.638  13.136
51663SOL    HW256829   2.985   4.740  13.208
51664SOL     OW56830  13.250   5.261   7.108
51664SOL    HW156831  13.243   5.172   7.073
51664SOL    HW256832  13.187   5.263   7.180
51665SOL     OW56833   1.535   3.560   9.123
51665SOL    HW156834   1.565   3.500   9.055
51665SOL    HW256835   1.529   3.506   9.202
51666SOL     OW56836  10.567  13.162  12.791
51666SOL    HW156837  10.551  13.150  12.697
51666SOL    HW256838  10.639  13.224  12.795
51667SOL     OW56839   0.904   5.728   6.295
51667SOL    HW156840   0.841   5.777   6.241
51667SOL    HW256841   0.985   5.778   6.286
51668SOL     OW56842  14.268   4.202   1.865
51668SOL    HW156843  14.297   4.272   1.923
51668SOL    HW256844  14.187   4.170   1.905
51669SOL     OW56845  10.840  11.959   6.488
51669SOL    HW156846  10.934  11.977   6.497
51669SOL    HW256847  10.814  11.927   6.574
51670SOL     OW56848   8.948   8.213   9.624
51670SOL    HW156849   8.957   8.163   9.705
51670SOL    HW256850   8.866   8.183   9.587
51671SOL     OW56851   5.199  10.845  11.655
51671SOL    HW156852   5.255  10.920  11.636
51671SOL    HW256853   5.136  10.878  11.719
51672SOL     OW56854  10.870   0.452   6.980
51672SOL    HW156855  10.781   0.417   6.973
51672SOL    HW256856  10.917   0.411   6.907
51673SOL     OW56857   1.333   7.800  10.419
51673SOL    HW156858   1.368   7.754  10.496
51673SOL    HW256859   1.238   7.801  10.432
51674SOL     OW56860   6.172   7.304   5.511
51674SOL    HW156861   6.079   7.306   5.489
51674SOL    HW256862   6.184   7.221   5.557
51675SOL     OW56863  10.842   1.975  10.528
51675SOL    HW156864  10.790   2.000  10.452
51675SOL    HW256865  10.795   2.012  10.603
51676SOL     OW56866   7.515   5.678   6.369
51676SOL    HW156867   7.537   5.682   6.463
51676SOL    HW256868   7.598   5.695   6.325
51677SOL     OW56869   7.081  12.921   1.401
51677SOL    HW156870   7.153  12.869   1.436
51677SOL    HW256871   7.040  12.961   1.478
51678SOL     OW56872   0.698   8.441   6.660
51678SOL    HW156873   0.683   8.371   6.724
51678SOL    HW256874   0.789   8.467   6.674
51679SOL     OW56875   6.092   1.506  10.467
51679SOL    HW156876   6.108   1.532  10.376
51679SOL    HW256877   6.174   1.523  10.512
51680SOL     OW56878   2.598   8.893  14.324
51680SOL    HW156879   2.663   8.946  14.278
51680SOL    HW256880   2.610   8.915  14.417
51681SOL     OW56881  12.071   3.397   6.929
51681SOL    HW156882  12.112   3.339   6.993
51681SOL    HW256883  12.105   3.484   6.948
51682SOL     OW56884  10.566   6.257   5.279
51682SOL    HW156885  10.577   6.186   5.342
51682SOL    HW256886  10.656   6.282   5.255
51683SOL     OW56887  10.906   9.093   9.640
51683SOL    HW156888  10.855   9.113   9.718
51683SOL    HW256889  10.877   9.004   9.616
51684SOL     OW56890   1.406   1.645   4.251
51684SOL    HW156891   1.398   1.645   4.346
51684SOL    HW256892   1.487   1.597   4.234
51685SOL     OW56893   3.245   1.438   6.132
51685SOL    HW156894   3.210   1.380   6.200
51685SOL    HW256895   3.339   1.438   6.147
51686SOL     OW56896  11.247   0.749   5.631
51686SOL    HW156897  11.264   0.736   5.537
51686SOL    HW256898  11.191   0.675   5.656
51687SOL     OW56899  10.416   1.026   1.668
51687SOL    HW156900  10.481   1.089   1.699
51687SOL    HW256901  10.336   1.048   1.714
51688SOL     OW56902   3.404   5.640   6.298
51688SOL    HW156903   3.422   5.548   6.280
51688SOL    HW256904   3.484   5.686   6.273
51689SOL     OW56905  12.403  12.760   4.964
51689SOL    HW156906  12.495  12.735   4.970
51689SOL    HW256907  12.392  12.828   5.031
51690SOL     OW56908  12.931  11.973   9.682
51690SOL    HW156909  12.895  11.884   9.677
51690SOL    HW256910  12.873  12.024   9.626
51691SOL     OW56911  13.661   0.472   6.560
51691SOL    HW156912  13.587   0.462   6.501
51691SOL    HW256913  13.723   0.527   6.512
51692SOL     OW56914  11.827  12.853   0.263
51692SOL    HW156915  11.912  12.873   0.224
51692SOL    HW256916  11.810  12.762   0.239
51693SOL     OW56917  13.520   7.839  12.297
51693SOL    HW156918  13.615   7.843  12.290
51693SOL    HW256919  13.504   7.797  12.381
51694SOL     OW56920   3.189   7.335   6.462
51694SOL    HW156921   3.159   7.282   6.388
51694SOL    HW256922   3.284   7.333   6.456
51695SOL     OW56923   6.956  10.151  12.486
51695SOL    HW156924   7.010  10.217  12.444
51695SOL    HW256925   7.018  10.092  12.528
51696SOL     OW56926   8.029  10.452  13.274
51696SOL    HW156927   7.969  10.526  13.262
51696SOL    HW256928   8.098  10.486  13.331
51697SOL     OW56929  11.139   8.182   0.775
51697SOL    HW156930  11.140   8.253   0.711
51697SOL    HW256931  11.081   8.116   0.737
51698SOL     OW56932   9.548   7.744  11.492
51698SOL    HW156933   9.495   7.806  11.541
51698SOL    HW256934   9.618   7.798  11.453
51699SOL     OW56935   9.681  10.224   8.388
51699SOL    HW156936   9.668  10.130   8.380
51699SOL    HW256937   9.611  10.254   8.446
51700SOL     OW56938  12.111   2.182   0.853
51700SOL    HW156939  12.077   2.126   0.783
51700SOL    HW256940  12.097   2.131   0.933
51701SOL     OW56941  13.318  10.952   6.121
51701SOL    HW156942  13.307  11.014   6.050
51701SOL    HW256943  13.230  10.940   6.157
51702SOL     OW56944   7.641   5.630   1.229
51702SOL    HW156945   7.675   5.583   1.305
51702SOL    HW256946   7.676   5.719   1.239
51703SOL     OW56947   1.867  13.437  14.567
51703SOL    HW156948   1.902  13.413  14.653
51703SOL    HW256949   1.942  13.472  14.519
51704SOL     OW56950   2.855  11.490  13.475
51704SOL    HW156951   2.901  11.572  13.495
51704SOL    HW256952   2.763  11.516  13.465
51705SOL     OW56953   3.184   7.674   6.598
51705SOL    HW156954   3.270   7.639   6.624
51705SOL    HW256955   3.149   7.712   6.678
51706SOL     OW56956   4.802   6.199  14.686
51706SOL    HW156957   4.896   6.210  14.695
51706SOL    HW256958   4.784   6.211  14.593
51707SOL     OW56959   6.009   4.587   0.702
51707SOL    HW156960   6.070   4.607   0.774
51707SOL    HW256961   5.924   4.582   0.745
51708SOL     OW56962  10.918   8.336   9.112
51708SOL    HW156963  10.973   8.270   9.069
51708SOL    HW256964  10.829   8.302   9.101
51709SOL     OW56965  14.366  12.928  11.676
51709SOL    HW156966  14.317  12.865  11.727
51709SOL    HW256967  14.363  12.895  11.587
51710SOL     OW56968   0.353  13.116   4.330
51710SOL    HW156969   0.307  13.199   4.316
51710SOL    HW256970   0.283  13.052   4.340
51711SOL     OW56971   6.134   3.538  11.676
51711SOL    HW156972   6.165   3.568  11.590
51711SOL    HW256973   6.164   3.447  11.680
51712SOL     OW56974  11.071   4.546   5.087
51712SOL    HW156975  11.032   4.466   5.053
51712SOL    HW256976  11.040   4.550   5.178
51713SOL     OW56977   1.375   2.216  10.008
51713SOL    HW156978   1.354   2.251   9.922
51713SOL    HW256979   1.393   2.293  10.062
51714SOL     OW56980   9.453   5.140  10.545
51714SOL    HW156981   9.364   5.174  10.538
51714SOL    HW256982   9.495   5.198  10.609
51715SOL     OW56983   0.025   9.783  10.531
51715SOL    HW156984   0.094   9.801  10.466
51715SOL    HW256985   0.046   9.841  10.604
51716SOL     OW56986   1.173   4.289  12.361
51716SOL    HW156987   1.174   4.245  12.276
51716SOL    HW256988   1.126   4.228  12.419
51717SOL     OW56989   4.443   0.750   5.515
51717SOL    HW156990   4.418   0.725   5.604
51717SOL    HW256991   4.360   0.777   5.474
51718SOL     OW56992  14.024   0.772  14.827
51718SOL    HW156993  14.069   0.712  14.768
51718SOL    HW256994  14.052   0.859  14.800
51719SOL     OW56995   6.364   9.201   0.986
51719SOL    HW156996   6.393   9.112   1.008
51719SOL    HW256997   6.369   9.249   1.069
51720SOL     OW56998   8.321   2.392  14.279
51720SOL    HW156999   8.326   2.347  14.194
51720SOL    HW257000   8.246   2.351  14.323
51721SOL     OW57001   3.399  13.727  13.122
51721SOL    HW157002   3.492  13.732  13.098
51721SOL    HW257003   3.355  13.700  13.042
51722SOL     OW57004   0.692  12.724   5.369
51722SOL    HW157005   0.716  12.750   5.458
51722SOL    HW257006   0.774  12.729   5.320
51723SOL     OW57007   1.613   6.931   6.665
51723SOL    HW157008   1.629   6.860   6.604
51723SOL    HW257009   1.639   7.010   6.618
51724SOL     OW57010  14.650  13.880   5.429
51724SOL    HW157011  14.701  13.801   5.413
51724SOL    HW257012  14.602  13.862   5.510
51725SOL     OW57013  12.884   5.502  11.408
51725SOL    HW157014  12.835   5.542  11.479
51725SOL    HW257015  12.819   5.484  11.341
51726SOL     OW57016   4.794   9.166   5.845
51726SOL    HW157017   4.778   9.259   5.829
51726SOL    HW257018   4.712   9.124   5.821
51727SOL     OW57019  11.783   5.394  13.617
51727SOL    HW157020  11.725   5.338  13.567
51727SOL    HW257021  11.866   5.346  13.621
51728SOL     OW57022  13.438   0.842  14.860
51728SOL    HW157023  13.411   0.912  14.801
51728SOL    HW257024  13.490   0.783  14.806
51729SOL     OW57025   4.316   1.983   2.247
51729SOL    HW157026   4.387   1.960   2.187
51729SOL    HW257027   4.302   1.904   2.299
51730SOL     OW57028  13.468  12.101  13.791
51730SOL    HW157029  13.461  12.006  13.775
51730SOL    HW257030  13.562  12.119  13.787
51731SOL     OW57031   6.811   0.121  10.012
51731SOL    HW157032   6.731   0.095  10.057
51731SOL    HW257033   6.864   0.163  10.081
51732SOL     OW57034   1.109  12.724   7.546
51732SOL    HW157035   1.126  12.641   7.501
51732SOL    HW257036   1.150  12.790   7.490
51733SOL     OW57037   4.750   3.792   1.942
51733SOL    HW157038   4.738   3.878   1.982
51733SOL    HW257039   4.841   3.792   1.913
51734SOL     OW57040   9.415   1.294   8.253
51734SOL    HW157041   9.449   1.373   8.212
51734SOL    HW257042   9.401   1.234   8.179
51735SOL     OW57043   5.259   2.097   6.895
51735SOL    HW157044   5.268   2.037   6.821
51735SOL    HW257045   5.348   2.124   6.916
51736SOL     OW57046   1.813  10.690   9.734
51736SOL    HW157047   1.856  10.687   9.819
51736SOL    HW257048   1.884  10.695   9.671
51737SOL     OW57049  12.173   6.145   0.910
51737SOL    HW157050  12.151   6.235   0.887
51737SOL    HW257051  12.245   6.153   0.972
51738SOL     OW57052  10.389   8.752  13.386
51738SOL    HW157053  10.419   8.760  13.296
51738SOL    HW257054  10.451   8.805  13.437
51739SOL     OW57055   4.745   7.248   1.490
51739SOL    HW157056   4.790   7.224   1.571
51739SOL    HW257057   4.669   7.299   1.520
51740SOL     OW57058   1.158   3.204   5.241
51740SOL    HW157059   1.105   3.141   5.289
51740SOL    HW257060   1.239   3.211   5.292
51741SOL     OW57061   4.390  11.691   9.893
51741SOL    HW157062   4.398  11.772   9.942
51741SOL    HW257063   4.468  11.641   9.918
51742SOL     OW57064   2.918   1.963   1.938
51742SOL    HW157065   2.920   1.869   1.955
51742SOL    HW257066   2.893   1.970   1.846
51743SOL     OW57067  12.233   9.668   8.914
51743SOL    HW157068  12.274   9.750   8.940
51743SOL    HW257069  12.150   9.666   8.961
51744SOL     OW57070  10.562   7.840  10.240
51744SOL    HW157071  10.569   7.747  10.217
51744SOL    HW257072  10.470   7.851  10.263
51745SOL     OW57073   5.052  14.435  11.287
51745SOL    HW157074   4.989  14.429  11.359
51745SOL    HW257075   5.103  14.514  11.306
51746SOL     OW57076   2.464  11.272  13.269
51746SOL    HW157077   2.422  11.320  13.342
51746SOL    HW257078   2.510  11.200  13.311
51747SOL     OW57079   2.289  11.212   3.978
51747SOL    HW157080   2.270  11.211   3.884
51747SOL    HW257081   2.210  11.176   4.018
51748SOL     OW57082   5.736   5.506   5.209
51748SOL    HW157083   5.711   5.423   5.250
51748SOL    HW257084   5.830   5.513   5.224
51749SOL     OW57085   8.978   3.188   6.710
51749SOL    HW157086   9.012   3.247   6.643
51749SOL    HW257087   8.911   3.239   6.755
51750SOL     OW57088   8.547  14.007   4.909
51750SOL    HW157089   8.471  13.951   4.891
51750SOL    HW257090   8.606  13.952   4.959
51751SOL     OW57091   7.008   6.338   2.279
51751SOL    HW157092   6.919   6.315   2.252
51751SOL    HW257093   7.039   6.397   2.210
51752SOL     OW57094   3.723   9.566   8.150
51752SOL    HW157095   3.776   9.506   8.203
51752SOL    HW257096   3.786   9.614   8.097
51753SOL     OW57097   8.672  14.206   9.809
51753SOL    HW157098   8.726  14.223   9.732
51753SOL    HW257099   8.643  14.293   9.837
51754SOL     OW57100   5.302   5.543   7.219
51754SOL    HW157101   5.290   5.464   7.167
51754SOL    HW257102   5.363   5.517   7.288
51755SOL     OW57103   8.507   3.691   3.059
51755SOL    HW157104   8.512   3.759   2.992
51755SOL    HW257105   8.570   3.625   3.031
51756SOL     OW57106   9.124   7.267   7.211
51756SOL    HW157107   9.135   7.342   7.269
51756SOL    HW257108   9.137   7.302   7.123
51757SOL     OW57109   0.605   8.916   9.409
51757SOL    HW157110   0.518   8.909   9.369
51757SOL    HW257111   0.589   8.909   9.503
51758SOL     OW57112   6.825   3.139   2.068
51758SOL    HW157113   6.823   3.064   2.126
51758SOL    HW257114   6.735   3.171   2.066
51759SOL     OW57115   4.964   2.609  11.335
51759SOL    HW157116   5.043   2.622  11.283
51759SOL    HW257117   4.892   2.619  11.272
51760SOL     OW57118   3.733   3.920  12.878
51760SOL    HW157119   3.812   3.970  12.856
51760SOL    HW257120   3.762   3.829  12.883
51761SOL     OW57121   2.916   2.561   4.486
51761SOL    HW157122   2.940   2.487   4.542
51761SOL    HW257123   2.839   2.530   4.438
51762SOL     OW57124   2.489   7.944   6.264
51762SOL    HW157125   2.448   8.023   6.229
51762SOL    HW257126   2.511   7.967   6.355
51763SOL     OW57127   7.406   0.971  13.412
51763SOL    HW157128   7.348   1.035  13.372
51763SOL    HW257129   7.491   0.986  13.369
51764SOL     OW57130  14.263   8.117   6.771
51764SOL    HW157131  14.204   8.066   6.715
51764SOL    HW257132  14.326   8.155   6.710
51765SOL     OW57133   4.124  12.759   4.365
51765SOL    HW157134   4.180  12.743   4.288
51765SOL    HW257135   4.186  12.768   4.437
51766SOL     OW57136   3.577   9.957   3.705
51766SOL    HW157137   3.489   9.948   3.669
51766SOL    HW257138   3.598   9.870   3.739
51767SOL     OW57139   9.357   5.223   0.468
51767SOL    HW157140   9.298   5.241   0.395
51767SOL    HW257141   9.360   5.128   0.475
51768SOL     OW57142   0.890   8.016   0.989
51768SOL    HW157143   0.881   7.967   0.908
51768SOL    HW257144   0.982   8.007   1.013
51769SOL     OW57145  14.567  13.843   6.480
51769SOL    HW157146  14.605  13.837   6.392
51769SOL    HW257147  14.608  13.920   6.518
51770SOL     OW57148   5.922  13.894   3.929
51770SOL    HW157149   5.885  13.962   3.985
51770SOL    HW257150   5.943  13.939   3.847
51771SOL     OW57151   8.050   0.418   5.462
51771SOL    HW157152   8.018   0.446   5.376
51771SOL    HW257153   8.025   0.490   5.521
51772SOL     OW57154   6.064  11.216  13.269
51772SOL    HW157155   6.098  11.209  13.180
51772SOL    HW257156   5.981  11.169  13.266
51773SOL     OW57157   3.255   4.042   2.783
51773SOL    HW157158   3.269   4.100   2.709
51773SOL    HW257159   3.212   3.965   2.746
51774SOL     OW57160   2.439   7.028   3.256
51774SOL    HW157161   2.522   7.031   3.303
51774SOL    HW257162   2.372   7.025   3.324
51775SOL     OW57163   4.795   2.109   9.334
51775SOL    HW157164   4.833   2.066   9.257
51775SOL    HW257165   4.844   2.074   9.408
51776SOL     OW57166   7.370  13.598   2.834
51776SOL    HW157167   7.433  13.645   2.779
51776SOL    HW257168   7.370  13.509   2.801
51777SOL     OW57169   1.942   9.846   8.357
51777SOL    HW157170   1.945   9.904   8.433
51777SOL    HW257171   1.880   9.777   8.382
51778SOL     OW57172   4.933   2.169   1.265
51778SOL    HW157173   4.928   2.155   1.359
51778SOL    HW257174   4.847   2.202   1.240
51779SOL     OW57175   8.894  10.857   2.739
51779SOL    HW157176   8.967  10.838   2.681
51779SOL    HW257177   8.821  10.878   2.680
51780SOL     OW57178   9.473   1.974  13.401
51780SOL    HW157179   9.487   1.995  13.308
51780SOL    HW257180   9.535   1.903  13.418
51781SOL     OW57181   8.967   4.618   2.647
51781SOL    HW157182   8.914   4.634   2.569
51781SOL    HW257183   8.942   4.688   2.708
51782SOL     OW57184   7.250   2.050   5.727
51782SOL    HW157185   7.178   2.085   5.674
51782SOL    HW257186   7.298   2.127   5.756
51783SOL     OW57187  14.590   8.475  12.441
51783SOL    HW157188  14.559   8.562  12.414
51783SOL    HW257189  14.685   8.485  12.448
51784SOL     OW57190   9.815   4.463  12.130
51784SOL    HW157191   9.873   4.414  12.071
51784SOL    HW257192   9.871   4.487  12.204
51785SOL     OW57193   3.925   3.388   9.662
51785SOL    HW157194   3.844   3.420   9.702
51785SOL    HW257195   3.986   3.378   9.735
51786SOL     OW57196  14.286   9.413   5.570
51786SOL    HW157197  14.366   9.459   5.594
51786SOL    HW257198  14.288   9.332   5.621
51787SOL     OW57199  10.790   6.822   4.164
51787SOL    HW157200  10.880   6.800   4.140
51787SOL    HW257201  10.738   6.798   4.087
51788SOL     OW57202  11.630  14.832   8.531
51788SOL    HW157203  11.725  14.827   8.535
51788SOL    HW257204  11.601  14.741   8.522
51789SOL     OW57205   8.438   3.422  11.580
51789SOL    HW157206   8.525   3.455  11.602
51789SOL    HW257207   8.398   3.400  11.664
51790SOL     OW57208  11.696   0.601   1.403
51790SOL    HW157209  11.734   0.513   1.398
51790SOL    HW257210  11.682   0.615   1.497
51791SOL     OW57211   4.043   1.445  11.820
51791SOL    HW157212   3.957   1.484  11.811
51791SOL    HW257213   4.098   1.492  11.757
51792SOL     OW57214   8.114  11.651   9.684
51792SOL    HW157215   8.114  11.692   9.770
51792SOL    HW257216   8.023  11.655   9.655
51793SOL     OW57217   6.618   1.266   2.509
51793SOL    HW157218   6.588   1.241   2.596
51793SOL    HW257219   6.620   1.362   2.511
51794SOL     OW57220   0.549   4.774   8.654
51794SOL    HW157221   0.531   4.810   8.741
51794SOL    HW257222   0.536   4.680   8.663
51795SOL     OW57223  12.737   8.172   5.848
51795SOL    HW157224  12.758   8.117   5.923
51795SOL    HW257225  12.694   8.249   5.885
51796SOL     OW57226   5.190  13.751  11.914
51796SOL    HW157227   5.255  13.703  11.966
51796SOL    HW257228   5.157  13.819  11.973
51797SOL     OW57229  12.109  10.947  13.870
51797SOL    HW157230  12.165  10.969  13.795
51797SOL    HW257231  12.132  10.857  13.892
51798SOL     OW57232   2.824   7.659  12.698
51798SOL    HW157233   2.844   7.613  12.616
51798SOL    HW257234   2.908   7.661  12.744
51799SOL     OW57235   8.404   4.047   0.044
51799SOL    HW157236   8.356   4.039  14.841
51799SOL    HW257237   8.345   4.011   0.110
51800SOL     OW57238  11.692  11.586  12.007
51800SOL    HW157239  11.682  11.510  11.949
51800SOL    HW257240  11.711  11.548  12.093
51801SOL     OW57241   7.475  13.526   9.943
51801SOL    HW157242   7.384  13.510   9.965
51801SOL    HW257243   7.524  13.488  10.016
51802SOL     OW57244   9.674  11.615   7.820
51802SOL    HW157245   9.736  11.549   7.851
51802SOL    HW257246   9.611  11.566   7.767
51803SOL     OW57247   5.966   4.987  12.353
51803SOL    HW157248   6.008   5.016  12.434
51803SOL    HW257249   5.879   4.958  12.379
51804SOL     OW57250  10.356  11.109  12.156
51804SOL    HW157251  10.306  11.161  12.093
51804SOL    HW257252  10.290  11.060  12.205
51805SOL     OW57253   3.865   0.436   9.277
51805SOL    HW157254   3.838   0.526   9.292
51805SOL    HW257255   3.802   0.383   9.325
51806SOL     OW57256  11.392   3.946  13.223
51806SOL    HW157257  11.467   3.887  13.229
51806SOL    HW257258  11.428   4.033  13.235
51807SOL     OW57259   4.178  10.285   9.217
51807SOL    HW157260   4.259  10.253   9.177
51807SOL    HW257261   4.149  10.356   9.158
51808SOL     OW57262  10.178  13.417   7.592
51808SOL    HW157263  10.150  13.453   7.507
51808SOL    HW257264  10.148  13.327   7.591
51809SOL     OW57265  10.625   3.606   3.602
51809SOL    HW157266  10.533   3.598   3.578
51809SOL    HW257267  10.673   3.583   3.522
51810SOL     OW57268   3.341  13.872   0.475
51810SOL    HW157269   3.331  13.935   0.546
51810SOL    HW257270   3.404  13.912   0.416
51811SOL     OW57271   9.605   0.727  13.456
51811SOL    HW157272   9.605   0.706  13.549
51811SOL    HW257273   9.684   0.685  13.422
51812SOL     OW57274   4.660   2.602   0.834
51812SOL    HW157275   4.702   2.588   0.918
51812SOL    HW257276   4.583   2.545   0.835
51813SOL     OW57277  11.637  14.150   3.122
51813SOL    HW157278  11.659  14.214   3.190
51813SOL    HW257279  11.542  14.139   3.130
51814SOL     OW57280   6.874   9.523   7.102
51814SOL    HW157281   6.867   9.594   7.166
51814SOL    HW257282   6.967   9.503   7.098
51815SOL     OW57283   8.953   4.815   7.186
51815SOL    HW157284   9.007   4.799   7.109
51815SOL    HW257285   8.878   4.864   7.153
51816SOL     OW57286   5.466   7.081   7.726
51816SOL    HW157287   5.480   6.989   7.704
51816SOL    HW257288   5.524   7.096   7.801
51817SOL     OW57289   0.403  11.773   1.041
51817SOL    HW157290   0.322  11.808   1.077
51817SOL    HW257291   0.402  11.680   1.063
51818SOL     OW57292   9.114  11.865   6.271
51818SOL    HW157293   9.132  11.794   6.209
51818SOL    HW257294   9.047  11.918   6.228
51819SOL     OW57295   0.734   2.426   9.701
51819SOL    HW157296   0.730   2.354   9.763
51819SOL    HW257297   0.671   2.490   9.734
51820SOL     OW57298   4.187  11.814   8.068
51820SOL    HW157299   4.265  11.856   8.104
51820SOL    HW257300   4.221  11.744   8.013
51821SOL     OW57301   6.550   2.672  12.186
51821SOL    HW157302   6.582   2.625  12.262
51821SOL    HW257303   6.628   2.695  12.136
51822SOL     OW57304   9.786   4.942  10.387
51822SOL    HW157305   9.763   4.894  10.307
51822SOL    HW257306   9.770   5.033  10.365
51823SOL     OW57307   0.936   5.283   7.314
51823SOL    HW157308   1.008   5.225   7.339
51823SOL    HW257309   0.858   5.243   7.354
51824SOL     OW57310   6.891   9.613   2.613
51824SOL    HW157311   6.889   9.605   2.518
51824SOL    HW257312   6.899   9.523   2.645
51825SOL     OW57313   6.756  12.994   3.167
51825SOL    HW157314   6.809  13.044   3.228
51825SOL    HW257315   6.779  13.028   3.080
51826SOL     OW57316   0.008  13.611  14.501
51826SOL    HW157317   0.065  13.668  14.552
51826SOL    HW257318  14.879  13.532  14.555
51827SOL     OW57319   8.569  12.574   9.965
51827SOL    HW157320   8.657  12.590  10.000
51827SOL    HW257321   8.541  12.659   9.930
51828SOL     OW57322   6.485  12.576   1.247
51828SOL    HW157323   6.501  12.544   1.158
51828SOL    HW257324   6.408  12.633   1.238
51829SOL     OW57325  10.753   9.569   2.760
51829SOL    HW157326  10.825   9.509   2.739
51829SOL    HW257327  10.741   9.621   2.681
51830SOL     OW57328   4.679   8.470   6.904
51830SOL    HW157329   4.733   8.541   6.938
51830SOL    HW257330   4.725   8.439   6.826
51831SOL     OW57331   9.024   3.305   5.722
51831SOL    HW157332   9.056   3.395   5.721
51831SOL    HW257333   9.066   3.263   5.647
51832SOL     OW57334   5.759  13.712   6.227
51832SOL    HW157335   5.797  13.789   6.270
51832SOL    HW257336   5.820  13.692   6.155
51833SOL     OW57337  11.497   2.904   1.071
51833SOL    HW157338  11.534   2.817   1.053
51833SOL    HW257339  11.568   2.951   1.114
51834SOL     OW57340   7.388   4.113   3.773
51834SOL    HW157341   7.296   4.120   3.800
51834SOL    HW257342   7.412   4.201   3.745
51835SOL     OW57343   1.329   4.738   6.970
51835SOL    HW157344   1.293   4.715   6.884
51835SOL    HW257345   1.382   4.816   6.953
51836SOL     OW57346  10.841   8.036   4.642
51836SOL    HW157347  10.762   8.089   4.627
51836SOL    HW257348  10.809   7.946   4.645
51837SOL     OW57349   2.191  12.998   5.341
51837SOL    HW157350   2.274  12.954   5.360
51837SOL    HW257351   2.155  12.951   5.266
51838SOL     OW57352   0.380  11.920   5.838
51838SOL    HW157353   0.287  11.942   5.833
51838SOL    HW257354   0.414  11.977   5.906
51839SOL     OW57355  14.320   1.416   1.956
51839SOL    HW157356  14.375   1.427   1.879
51839SOL    HW257357  14.237   1.382   1.922
51840SOL     OW57358  12.042   5.902   8.322
51840SOL    HW157359  12.059   5.995   8.338
51840SOL    HW257360  12.127   5.866   8.298
51841SOL     OW57361   0.087  11.496   2.083
51841SOL    HW157362   0.054  11.563   2.142
51841SOL    HW257363   0.179  11.517   2.071
51842SOL     OW57364   0.818   4.882  12.439
51842SOL    HW157365   0.757   4.841  12.378
51842SOL    HW257366   0.762   4.935  12.496
51843SOL     OW57367   7.284   9.091   5.804
51843SOL    HW157368   7.290   8.996   5.794
51843SOL    HW257369   7.362   9.115   5.853
51844SOL     OW57370   9.511   5.882  11.341
51844SOL    HW157371   9.477   5.855  11.426
51844SOL    HW257372   9.590   5.831  11.329
51845SOL     OW57373   4.114   6.804   6.721
51845SOL    HW157374   4.071   6.746   6.784
51845SOL    HW257375   4.047   6.821   6.655
51846SOL     OW57376   7.259   2.628  14.638
51846SOL    HW157377   7.289   2.547  14.681
51846SOL    HW257378   7.233   2.685  14.710
51847SOL     OW57379   6.475   2.829  14.876
51847SOL    HW157380   6.521   2.841  14.794
51847SOL    HW257381   6.524   2.762   0.043
51848SOL     OW57382   8.715  12.252   9.532
51848SOL    HW157383   8.679  12.175   9.487
51848SOL    HW257384   8.665  12.258   9.613
51849SOL     OW57385   6.693   9.387   4.618
51849SOL    HW157386   6.676   9.430   4.534
51849SOL    HW257387   6.614   9.401   4.669
51850SOL     OW57388  13.067   0.818   5.518
51850SOL    HW157389  13.049   0.909   5.538
51850SOL    HW257390  13.083   0.777   5.603
51851SOL     OW57391   2.155  11.556  12.710
51851SOL    HW157392   2.194  11.491  12.651
51851SOL    HW257393   2.071  11.518  12.735
51852SOL     OW57394   6.851   5.063   5.697
51852SOL    HW157395   6.925   5.122   5.679
51852SOL    HW257396   6.815   5.044   5.610
51853SOL     OW57397   8.690  10.345   0.681
51853SOL    HW157398   8.777  10.304   0.684
51853SOL    HW257399   8.703  10.423   0.627
51854SOL     OW57400  12.386   5.904  13.178
51854SOL    HW157401  12.341   5.931  13.098
51854SOL    HW257402  12.337   5.828  13.209
51855SOL     OW57403  13.187   5.406  10.663
51855SOL    HW157404  13.100   5.373  10.685
51855SOL    HW257405  13.218   5.348  10.594
51856SOL     OW57406   4.917   1.926   2.216
51856SOL    HW157407   4.984   1.991   2.196
51856SOL    HW257408   4.839   1.977   2.239
51857SOL     OW57409   3.921   7.081   6.918
51857SOL    HW157410   3.969   7.059   6.998
51857SOL    HW257411   3.835   7.040   6.929
51858SOL     OW57412   1.173  10.598   5.926
51858SOL    HW157413   1.199  10.606   6.018
51858SOL    HW257414   1.094  10.544   5.928
51859SOL     OW57415   9.667  10.762   1.634
51859SOL    HW157416   9.613  10.824   1.586
51859SOL    HW257417   9.605  10.715   1.690
51860SOL     OW57418   0.439   9.245  10.951
51860SOL    HW157419   0.530   9.218  10.953
51860SOL    HW257420   0.397   9.194  11.020
51861SOL     OW57421   8.710   5.566  14.613
51861SOL    HW157422   8.743   5.598  14.697
51861SOL    HW257423   8.762   5.614  14.548
51862SOL     OW57424  10.778  14.321   6.786
51862SOL    HW157425  10.863  14.344   6.747
51862SOL    HW257426  10.723  14.398   6.769
51863SOL     OW57427   9.190   2.017   8.958
51863SOL    HW157428   9.157   1.976   8.877
51863SOL    HW257429   9.260   1.960   8.987
51864SOL     OW57430   5.206   0.750   6.982
51864SOL    HW157431   5.223   0.678   7.043
51864SOL    HW257432   5.199   0.828   7.038
51865SOL     OW57433  12.659  14.058   0.313
51865SOL    HW157434  12.650  14.125   0.245
51865SOL    HW257435  12.638  13.976   0.268
51866SOL     OW57436  14.453  11.167  14.397
51866SOL    HW157437  14.543  11.187  14.419
51866SOL    HW257438  14.407  11.166  14.482
51867SOL     OW57439   5.492   2.076  10.950
51867SOL    HW157440   5.511   1.997  11.001
51867SOL    HW257441   5.522   2.055  10.862
51868SOL     OW57442   0.183   2.094   5.727
51868SOL    HW157443   0.160   2.009   5.763
51868SOL    HW257444   0.144   2.157   5.788
51869SOL     OW57445  14.690   8.604   9.700
51869SOL    HW157446  14.756   8.637   9.640
51869SOL    HW257447  14.607   8.615   9.654
51870SOL     OW57448   1.769   4.771   7.162
51870SOL    HW157449   1.809   4.733   7.240
51870SOL    HW257450   1.817   4.852   7.147
51871SOL     OW57451  12.077   6.517  14.172
51871SOL    HW157452  11.989   6.483  14.190
51871SOL    HW257453  12.118   6.523  14.258
51872SOL     OW57454   7.773   6.869   1.530
51872SOL    HW157455   7.799   6.831   1.446
51872SOL    HW257456   7.697   6.924   1.508
51873SOL     OW57457   8.961   2.475  11.979
51873SOL    HW157458   8.972   2.401  12.038
51873SOL    HW257459   8.970   2.438  11.891
51874SOL     OW57460   8.705  11.300   4.053
51874SOL    HW157461   8.763  11.338   4.120
51874SOL    HW257462   8.638  11.254   4.103
51875SOL     OW57463  12.672  12.396   0.102
51875SOL    HW157464  12.596  12.374   0.156
51875SOL    HW257465  12.747  12.376   0.158
51876SOL     OW57466   3.547  10.509  13.941
51876SOL    HW157467   3.492  10.434  13.922
51876SOL    HW257468   3.555  10.556  13.858
51877SOL     OW57469  12.449   1.072   1.192
51877SOL    HW157470  12.480   1.134   1.258
51877SOL    HW257471  12.521   1.064   1.130
51878SOL     OW57472   6.052   2.662   9.077
51878SOL    HW157473   6.137   2.630   9.047
51878SOL    HW257474   5.997   2.584   9.080
51879SOL     OW57475   7.329   7.609   4.301
51879SOL    HW157476   7.289   7.543   4.359
51879SOL    HW257477   7.263   7.678   4.295
51880SOL     OW57478   4.665  10.712   0.209
51880SOL    HW157479   4.656  10.626   0.249
51880SOL    HW257480   4.607  10.769   0.260
51881SOL     OW57481   5.118  11.822   0.222
51881SOL    HW157482   5.074  11.889   0.170
51881SOL    HW257483   5.108  11.741   0.170
51882SOL     OW57484  14.035  14.838  12.831
51882SOL    HW157485  13.959   0.014  12.846
51882SOL    HW257486  14.048  14.790  12.913
51883SOL     OW57487   4.687  13.306   1.673
51883SOL    HW157488   4.665  13.309   1.580
51883SOL    HW257489   4.602  13.298   1.717
51884SOL     OW57490   3.012  11.194   2.686
51884SOL    HW157491   2.948  11.243   2.634
51884SOL    HW257492   3.063  11.262   2.731
51885SOL     OW57493   9.967   2.392   5.579
51885SOL    HW157494   9.907   2.385   5.505
51885SOL    HW257495   9.911   2.408   5.655
51886SOL     OW57496  12.532   9.793  13.559
51886SOL    HW157497  12.522   9.861  13.625
51886SOL    HW257498  12.461   9.809  13.497
51887SOL     OW57499   6.877   9.583  10.116
51887SOL    HW157500   6.831   9.578  10.033
51887SOL    HW257501   6.925   9.665  10.112
51888SOL     OW57502   3.993   4.228  13.785
51888SOL    HW157503   4.045   4.307  13.799
51888SOL    HW257504   3.939   4.220  13.864
51889SOL     OW57505   4.963   9.590   9.044
51889SOL    HW157506   4.947   9.562   9.134
51889SOL    HW257507   5.023   9.664   9.052
51890SOL     OW57508  11.222  11.804   4.079
51890SOL    HW157509  11.313  11.808   4.106
51890SOL    HW257510  11.194  11.895   4.074
51891SOL     OW57511   9.006  12.596   9.473
51891SOL    HW157512   9.004  12.639   9.558
51891SOL    HW257513   9.098  12.572   9.461
51892SOL     OW57514   8.227   5.485   7.970
51892SOL    HW157515   8.233   5.547   7.898
51892SOL    HW257516   8.285   5.521   8.037
51893SOL     OW57517   5.646   8.027  12.619
51893SOL    HW157518   5.593   8.045  12.697
51893SOL    HW257519   5.654   7.932  12.617
51894SOL     OW57520   5.803  12.976   7.281
51894SOL    HW157521   5.756  13.042   7.230
51894SOL    HW257522   5.771  12.892   7.246
51895SOL     OW57523   7.341  13.277   3.182
51895SOL    HW157524   7.436  13.263   3.176
51895SOL    HW257525   7.306  13.194   3.213
51896SOL     OW57526   4.474   1.825  14.440
51896SOL    HW157527   4.420   1.872  14.504
51896SOL    HW257528   4.414   1.759  14.403
51897SOL     OW57529  11.211   1.248   9.251
51897SOL    HW157530  11.199   1.162   9.291
51897SOL    HW257531  11.297   1.277   9.282
51898SOL     OW57532   1.607   6.989   9.461
51898SOL    HW157533   1.542   6.969   9.394
51898SOL    HW257534   1.615   7.084   9.461
51899SOL     OW57535   6.024   3.447  12.776
51899SOL    HW157536   6.017   3.526  12.723
51899SOL    HW257537   6.064   3.383  12.718
51900SOL     OW57538   3.808  11.779   2.696
51900SOL    HW157539   3.717  11.750   2.696
51900SOL    HW257540   3.811  11.848   2.629
51901SOL     OW57541  11.275  13.405   6.005
51901SOL    HW157542  11.325  13.436   5.930
51901SOL    HW257543  11.338  13.355   6.057
51902SOL     OW57544   5.542  13.847   1.530
51902SOL    HW157545   5.554  13.878   1.620
51902SOL    HW257546   5.628  13.860   1.489
51903SOL     OW57547   1.032   9.143   9.079
51903SOL    HW157548   1.032   9.097   9.163
51903SOL    HW257549   0.958   9.106   9.031
51904SOL     OW57550   4.729  10.850  12.608
51904SOL    HW157551   4.691  10.925  12.654
51904SOL    HW257552   4.669  10.778  12.625
51905SOL     OW57553   8.454   8.935   7.462
51905SOL    HW157554   8.503   8.859   7.431
51905SOL    HW257555   8.408   8.967   7.385
51906SOL     OW57556   1.361   1.438  10.415
51906SOL    HW157557   1.328   1.495  10.345
51906SOL    HW257558   1.383   1.498  10.486
51907SOL     OW57559  10.514   4.551   0.350
51907SOL    HW157560  10.477   4.574   0.435
51907SOL    HW257561  10.443   4.563   0.288
51908SOL     OW57562   6.400   1.949  13.454
51908SOL    HW157563   6.469   1.884  13.442
51908SOL    HW257564   6.383   1.983  13.366
51909SOL     OW57565  12.513   1.673  13.152
51909SOL    HW157566  12.441   1.654  13.212
51909SOL    HW257567  12.481   1.746  13.099
51910SOL     OW57568   9.850   6.991   6.306
51910SOL    HW157569   9.843   6.925   6.237
51910SOL    HW257570   9.904   7.060   6.268
51911SOL     OW57571   7.146   7.799  14.586
51911SOL    HW157572   7.212   7.746  14.543
51911SOL    HW257573   7.068   7.744  14.587
51912SOL     OW57574   8.182   0.106  11.301
51912SOL    HW157575   8.125   0.160  11.357
51912SOL    HW257576   8.270   0.143  11.315
51913SOL     OW57577   4.877   7.937   6.905
51913SOL    HW157578   4.927   7.922   6.825
51913SOL    HW257579   4.905   8.023   6.935
51914SOL     OW57580  13.157  14.073   6.018
51914SOL    HW157581  13.183  14.139   5.953
51914SOL    HW257582  13.239  14.044   6.057
51915SOL     OW57583  14.635   8.181  14.678
51915SOL    HW157584  14.542   8.191  14.658
51915SOL    HW257585  14.644   8.088  14.701
51916SOL     OW57586   3.886   9.460   1.508
51916SOL    HW157587   3.830   9.415   1.446
51916SOL    HW257588   3.963   9.486   1.457
51917SOL     OW57589   9.289   7.283   3.064
51917SOL    HW157590   9.201   7.299   3.099
51917SOL    HW257591   9.282   7.199   3.020
51918SOL     OW57592   8.979  12.647   5.092
51918SOL    HW157593   9.043  12.623   5.159
51918SOL    HW257594   8.993  12.584   5.022
51919SOL     OW57595   1.721  12.694   6.727
51919SOL    HW157596   1.779  12.700   6.803
51919SOL    HW257597   1.647  12.752   6.750
51920SOL     OW57598   8.163   7.244   3.885
51920SOL    HW157599   8.156   7.321   3.830
51920SOL    HW257600   8.257   7.223   3.886
51921SOL     OW57601   0.344  14.408   6.721
51921SOL    HW157602   0.433  14.373   6.733
51921SOL    HW257603   0.325  14.393   6.629
51922SOL     OW57604   0.180   8.454   4.128
51922SOL    HW157605   0.113   8.415   4.183
51922SOL    HW257606   0.134   8.519   4.075
51923SOL     OW57607   7.438   9.328   9.910
51923SOL    HW157608   7.402   9.317   9.998
51923SOL    HW257609   7.372   9.289   9.852
51924SOL     OW57610   7.249  11.056   5.911
51924SOL    HW157611   7.250  10.961   5.896
51924SOL    HW257612   7.168  11.086   5.870
51925SOL     OW57613  11.234   5.481   8.549
51925SOL    HW157614  11.221   5.430   8.629
51925SOL    HW257615  11.145   5.500   8.518
51926SOL     OW57616   7.430   0.712   8.783
51926SOL    HW157617   7.424   0.788   8.841
51926SOL    HW257618   7.339   0.693   8.759
51927SOL     OW57619   9.150   2.650   5.769
51927SOL    HW157620   9.238   2.688   5.772
51927SOL    HW257621   9.102   2.706   5.709
51928SOL     OW57622   7.425   4.504  11.799
51928SOL    HW157623   7.437   4.418  11.839
51928SOL    HW257624   7.352   4.492  11.738
51929SOL     OW57625  10.317  11.924  11.939
51929SOL    HW157626  10.336  11.838  11.902
51929SOL    HW257627  10.302  11.980  11.863
51930SOL     OW57628   5.494   7.706   0.236
51930SOL    HW157629   5.554   7.644   0.278
51930SOL    HW257630   5.548   7.783   0.218
51931SOL     OW57631   4.149   4.435   6.143
51931SOL    HW157632   4.240   4.431   6.112
51931SOL    HW257633   4.153   4.400   6.232
51932SOL     OW57634   5.327   1.872  14.322
51932SOL    HW157635   5.260   1.933  14.355
51932SOL    HW257636   5.385   1.927  14.270
51933SOL     OW57637   8.866  10.416  13.494
51933SOL    HW157638   8.854  10.463  13.576
51933SOL    HW257639   8.923  10.342  13.516
51934SOL     OW57640   3.499   5.903   8.309
51934SOL    HW157641   3.540   5.951   8.381
51934SOL    HW257642   3.565   5.904   8.239
51935SOL     OW57643   1.958  12.513  10.551
51935SOL    HW157644   2.050  12.535  10.532
51935SOL    HW257645   1.946  12.540  10.642
51936SOL     OW57646   2.663   4.353  11.564
51936SOL    HW157647   2.568   4.345  11.549
51936SOL    HW257648   2.703   4.308  11.490
51937SOL     OW57649   9.893   9.418   1.921
51937SOL    HW157650   9.866   9.454   1.837
51937SOL    HW257651   9.840   9.466   1.985
51938SOL     OW57652  11.778  14.692   6.411
51938SOL    HW157653  11.808  14.634   6.480
51938SOL    HW257654  11.817  14.777   6.432
51939SOL     OW57655   8.907   0.534   6.769
51939SOL    HW157656   8.894   0.487   6.851
51939SOL    HW257657   8.822   0.573   6.749
51940SOL     OW57658   8.296   2.267  11.610
51940SOL    HW157659   8.200   2.269  11.608
51940SOL    HW257660   8.318   2.259  11.703
51941SOL     OW57661  14.515  13.520   0.100
51941SOL    HW157662  14.526  13.613   0.118
51941SOL    HW257663  14.487  13.517   0.008
51942SOL     OW57664  12.537   3.478   1.905
51942SOL    HW157665  12.576   3.399   1.866
51942SOL    HW257666  12.610   3.520   1.950
51943SOL     OW57667   3.271   8.644  12.585
51943SOL    HW157668   3.328   8.574  12.553
51943SOL    HW257669   3.323   8.724  12.572
51944SOL     OW57670   6.605   3.355   6.203
51944SOL    HW157671   6.647   3.419   6.261
51944SOL    HW257672   6.667   3.345   6.130
51945SOL     OW57673   9.579  13.458   1.959
51945SOL    HW157674   9.505  13.478   2.016
51945SOL    HW257675   9.539  13.417   1.882
51946SOL     OW57676  12.046   1.504   6.125
51946SOL    HW157677  12.140   1.494   6.111
51946SOL    HW257678  12.039   1.565   6.199
51947SOL     OW57679   9.968  10.054  11.240
51947SOL    HW157680  10.021  10.095  11.308
51947SOL    HW257681   9.898  10.118  11.223
51948SOL     OW57682  12.140   0.970   2.685
51948SOL    HW157683  12.159   1.035   2.753
51948SOL    HW257684  12.206   0.902   2.699
51949SOL     OW57685   2.763   5.213   3.572
51949SOL    HW157686   2.670   5.225   3.554
51949SOL    HW257687   2.765   5.172   3.659
51950SOL     OW57688  11.436   1.335  13.834
51950SOL    HW157689  11.407   1.292  13.754
51950SOL    HW257690  11.390   1.419  13.836
51951SOL     OW57691   5.551   1.239   8.867
51951SOL    HW157692   5.473   1.293   8.859
51951SOL    HW257693   5.591   1.267   8.949
51952SOL     OW57694   8.050   5.965   8.624
51952SOL    HW157695   8.020   6.030   8.561
51952SOL    HW257696   8.023   6.000   8.709
51953SOL     OW57697  12.294  10.603  13.379
51953SOL    HW157698  12.381  10.641  13.392
51953SOL    HW257699  12.307  10.535  13.313
51954SOL     OW57700   0.132   2.157   1.566
51954SOL    HW157701   0.189   2.089   1.530
51954SOL    HW257702   0.087   2.194   1.489
51955SOL     OW57703   7.633   3.721   3.854
51955SOL    HW157704   7.627   3.690   3.764
51955SOL    HW257705   7.653   3.642   3.905
51956SOL     OW57706   5.960  12.422   7.840
51956SOL    HW157707   5.957  12.429   7.935
51956SOL    HW257708   5.899  12.489   7.809
51957SOL     OW57709   7.859   0.189   3.485
51957SOL    HW157710   7.798   0.211   3.555
51957SOL    HW257711   7.879   0.097   3.498
51958SOL     OW57712   4.134   5.085   6.375
51958SOL    HW157713   4.209   5.061   6.320
51958SOL    HW257714   4.121   5.178   6.357
51959SOL     OW57715  11.240   6.110   0.428
51959SOL    HW157716  11.188   6.041   0.386
51959SOL    HW257717  11.176   6.158   0.481
51960SOL     OW57718   9.944   1.129   2.648
51960SOL    HW157719  10.038   1.118   2.636
51960SOL    HW257720   9.910   1.041   2.662
51961SOL     OW57721   2.631   2.608   2.628
51961SOL    HW157722   2.715   2.647   2.655
51961SOL    HW257723   2.626   2.526   2.677
51962SOL     OW57724  12.107   9.902   6.441
51962SOL    HW157725  12.017   9.876   6.421
51962SOL    HW257726  12.156   9.820   6.448
51963SOL     OW57727  12.119   5.822   9.943
51963SOL    HW157728  12.062   5.898   9.931
51963SOL    HW257729  12.167   5.814   9.861
51964SOL     OW57730   6.451   9.968   3.888
51964SOL    HW157731   6.428  10.039   3.829
51964SOL    HW257732   6.379   9.964   3.951
51965SOL     OW57733  10.606   9.558   4.947
51965SOL    HW157734  10.681   9.534   4.893
51965SOL    HW257735  10.643   9.586   5.030
51966SOL     OW57736   7.880   8.374   8.704
51966SOL    HW157737   7.914   8.462   8.716
51966SOL    HW257738   7.811   8.384   8.638
51967SOL     OW57739  10.707   3.558   4.970
51967SOL    HW157740  10.754   3.486   5.013
51967SOL    HW257741  10.758   3.636   4.992
51968SOL     OW57742   3.071  14.028   1.792
51968SOL    HW157743   2.990  14.065   1.829
51968SOL    HW257744   3.041  13.974   1.719
51969SOL     OW57745   8.474  13.912   5.755
51969SOL    HW157746   8.512  13.998   5.771
51969SOL    HW257747   8.469  13.905   5.660
51970SOL     OW57748   7.264   9.644   3.981
51970SOL    HW157749   7.332   9.590   4.023
51970SOL    HW257750   7.183   9.619   4.024
51971SOL     OW57751   0.056   8.994   7.137
51971SOL    HW157752   0.141   8.950   7.141
51971SOL    HW257753   0.008   8.958   7.212
51972SOL     OW57754   0.246  12.321   8.561
51972SOL    HW157755   0.328  12.352   8.599
51972SOL    HW257756   0.224  12.242   8.611
51973SOL     OW57757   2.974   6.933   2.617
51973SOL    HW157758   2.880   6.921   2.606
51973SOL    HW257759   2.985   7.027   2.633
51974SOL     OW57760   4.353   4.296   1.782
51974SOL    HW157761   4.387   4.224   1.835
51974SOL    HW257762   4.324   4.255   1.701
51975SOL     OW57763   9.426   4.127  14.207
51975SOL    HW157764   9.435   4.182  14.129
51975SOL    HW257765   9.515   4.097  14.226
51976SOL     OW57766  12.546  12.960   4.431
51976SOL    HW157767  12.549  12.932   4.522
51976SOL    HW257768  12.637  12.959   4.402
51977SOL     OW57769  10.014   5.063  12.134
51977SOL    HW157770   9.992   4.977  12.172
51977SOL    HW257771   9.994   5.053  12.041
51978SOL     OW57772   6.450   5.608  11.405
51978SOL    HW157773   6.456   5.682  11.345
51978SOL    HW257774   6.541   5.587  11.425
51979SOL     OW57775  11.419   7.506  12.881
51979SOL    HW157776  11.440   7.473  12.794
51979SOL    HW257777  11.392   7.597  12.866
51980SOL     OW57778   5.272  12.357   2.893
51980SOL    HW157779   5.254  12.405   2.974
51980SOL    HW257780   5.195  12.302   2.881
51981SOL     OW57781   3.749  14.289   9.646
51981SOL    HW157782   3.747  14.373   9.601
51981SOL    HW257783   3.839  14.258   9.636
51982SOL     OW57784   1.468   8.960   1.022
51982SOL    HW157785   1.494   8.985   0.933
51982SOL    HW257786   1.494   9.034   1.076
51983SOL     OW57787   4.350  10.833  14.635
51983SOL    HW157788   4.432  10.788  14.656
51983SOL    HW257789   4.283  10.765  14.640
51984SOL     OW57790  14.769   3.829  12.864
51984SOL    HW157791  14.813   3.895  12.917
51984SOL    HW257792  14.795   3.745  12.904
51985SOL     OW57793   5.971   0.316   4.082
51985SOL    HW157794   6.053   0.267   4.092
51985SOL    HW257795   5.960   0.362   4.165
51986SOL     OW57796  13.994   7.134   3.827
51986SOL    HW157797  14.062   7.187   3.785
51986SOL    HW257798  14.031   7.111   3.912
51987SOL     OW57799  11.748   5.894   8.339
51987SOL    HW157800  11.698   5.888   8.258
51987SOL    HW257801  11.839   5.880   8.312
51988SOL     OW57802   3.785   8.296   9.364
51988SOL    HW157803   3.750   8.384   9.349
51988SOL    HW257804   3.757   8.246   9.288
51989SOL     OW57805  13.263   0.083   4.778
51989SOL    HW157806  13.224   0.025   4.843
51989SOL    HW257807  13.189   0.108   4.721
51990SOL     OW57808   2.435   6.750   4.599
51990SOL    HW157809   2.531   6.754   4.602
51990SOL    HW257810   2.406   6.826   4.650
51991SOL     OW57811  11.388   9.055   9.745
51991SOL    HW157812  11.366   9.143   9.777
51991SOL    HW257813  11.483   9.054   9.743
51992SOL     OW57814   3.476   0.304  12.822
51992SOL    HW157815   3.422   0.381  12.842
51992SOL    HW257816   3.415   0.231  12.821
51993SOL     OW57817  12.513   5.254   6.914
51993SOL    HW157818  12.468   5.170   6.900
51993SOL    HW257819  12.565   5.267   6.835
51994SOL     OW57820   8.511   2.881   1.060
51994SOL    HW157821   8.565   2.834   0.996
51994SOL    HW257822   8.523   2.973   1.038
51995SOL     OW57823   6.849   2.416  14.188
51995SOL    HW157824   6.850   2.323  14.165
51995SOL    HW257825   6.936   2.431  14.226
51996SOL     OW57826  14.170   0.250   5.493
51996SOL    HW157827  14.171   0.240   5.398
51996SOL    HW257828  14.256   0.220   5.521
51997SOL     OW57829  10.426   4.533   5.733
51997SOL    HW157830  10.481   4.610   5.748
51997SOL    HW257831  10.416   4.528   5.638
51998SOL     OW57832   9.311   2.938   2.416
51998SOL    HW157833   9.288   2.879   2.343
51998SOL    HW257834   9.240   2.928   2.478
51999SOL     OW57835   8.298  11.059   4.884
51999SOL    HW157836   8.263  11.140   4.922
51999SOL    HW257837   8.309  11.000   4.958
52000SOL     OW57838   8.152   8.754  13.580
52000SOL    HW157839   8.234   8.768  13.626
52000SOL    HW257840   8.138   8.834  13.529
52001SOL     OW57841   1.955   7.858   6.947
52001SOL    HW157842   1.982   7.859   6.856
52001SOL    HW257843   2.031   7.889   6.995
52002SOL     OW57844   4.299   4.426  10.886
52002SOL    HW157845   4.258   4.444  10.801
52002SOL    HW257846   4.249   4.477  10.949
52003SOL     OW57847   9.174  14.050  12.861
52003SOL    HW157848   9.126  14.033  12.780
52003SOL    HW257849   9.132  13.995  12.926
52004SOL     OW57850   9.609  13.813   5.755
52004SOL    HW157851   9.538  13.812   5.692
52004SOL    HW257852   9.570  13.847   5.836
52005SOL     OW57853  11.442  14.305   8.155
52005SOL    HW157854  11.496  14.258   8.218
52005SOL    HW257855  11.352  14.286   8.180
52006SOL     OW57856   6.941   4.560   7.214
52006SOL    HW157857   7.006   4.508   7.261
52006SOL    HW257858   6.947   4.531   7.124
52007SOL     OW57859   8.870   4.633   6.330
52007SOL    HW157860   8.836   4.722   6.335
52007SOL    HW257861   8.959   4.639   6.365
52008SOL     OW57862  11.254   3.954  14.762
52008SOL    HW157863  11.296   4.036  14.787
52008SOL    HW257864  11.306   3.922  14.689
52009SOL     OW57865  14.753   8.362  11.508
52009SOL    HW157866  14.805   8.433  11.545
52009SOL    HW257867  14.671   8.403  11.481
52010SOL     OW57868   8.314  14.729   9.520
52010SOL    HW157869   8.353  14.806   9.478
52010SOL    HW257870   8.257  14.692   9.453
52011SOL     OW57871  12.342   4.040  10.232
52011SOL    HW157872  12.336   3.944  10.234
52011SOL    HW257873  12.416   4.060  10.291
52012SOL     OW57874   0.946  12.445  11.637
52012SOL    HW157875   0.891  12.370  11.662
52012SOL    HW257876   0.885  12.508  11.599
52013SOL     OW57877   9.481   2.603   5.751
52013SOL    HW157878   9.436   2.569   5.828
52013SOL    HW257879   9.455   2.544   5.680
52014SOL     OW57880   5.104   3.896   4.764
52014SOL    HW157881   5.071   3.808   4.745
52014SOL    HW257882   5.031   3.954   4.744
52015SOL     OW57883   1.225  11.651   7.067
52015SOL    HW157884   1.305  11.682   7.025
52015SOL    HW257885   1.244  11.655   7.161
52016SOL     OW57886  12.795   1.898   2.341
52016SOL    HW157887  12.743   1.881   2.262
52016SOL    HW257888  12.755   1.844   2.409
52017SOL     OW57889   0.452   8.184   0.174
52017SOL    HW157890   0.490   8.108   0.220
52017SOL    HW257891   0.500   8.189   0.092
52018SOL     OW57892   3.057  13.870  14.810
52018SOL    HW157893   2.980  13.834  14.765
52018SOL    HW257894   3.110  13.907  14.740
52019SOL     OW57895   9.191  13.066   3.232
52019SOL    HW157896   9.254  13.048   3.162
52019SOL    HW257897   9.225  13.019   3.308
52020SOL     OW57898   8.157   3.890  12.108
52020SOL    HW157899   8.083   3.933  12.151
52020SOL    HW257900   8.231   3.906  12.167
52021SOL     OW57901   8.230   6.104   0.358
52021SOL    HW157902   8.169   6.132   0.289
52021SOL    HW257903   8.216   6.010   0.366
52022SOL     OW57904   6.162  11.568   7.858
52022SOL    HW157905   6.240  11.584   7.806
52022SOL    HW257906   6.184  11.599   7.946
52023SOL     OW57907   0.992  12.516  13.130
52023SOL    HW157908   1.062  12.485  13.072
52023SOL    HW257909   0.957  12.436  13.169
52024SOL     OW57910  13.468  10.199  10.955
52024SOL    HW157911  13.423  10.115  10.966
52024SOL    HW257912  13.420  10.243  10.885
52025SOL     OW57913  10.813  14.192  10.831
52025SOL    HW157914  10.739  14.136  10.807
52025SOL    HW257915  10.823  14.253  10.757
52026SOL     OW57916   8.920   3.314   3.394
52026SOL    HW157917   8.968   3.395   3.411
52026SOL    HW257918   8.929   3.262   3.474
52027SOL     OW57919   4.262  14.271   6.248
52027SOL    HW157920   4.310  14.235   6.174
52027SOL    HW257921   4.178  14.297   6.211
52028SOL     OW57922   5.076   7.756  10.469
52028SOL    HW157923   5.159   7.800  10.452
52028SOL    HW257924   5.096   7.662  10.462
52029SOL     OW57925   0.286  14.820   6.464
52029SOL    HW157926   0.322   0.026   6.442
52029SOL    HW257927   0.278  14.775   6.380
52030SOL     OW57928   2.941   6.079   6.167
52030SOL    HW157929   2.913   6.065   6.076
52030SOL    HW257930   2.898   6.009   6.216
52031SOL     OW57931   5.407   9.258   4.598
52031SOL    HW157932   5.469   9.304   4.542
52031SOL    HW257933   5.361   9.328   4.645
52032SOL     OW57934   1.733   2.931   7.599
52032SOL    HW157935   1.767   2.855   7.552
52032SOL    HW257936   1.730   2.903   7.691
52033SOL     OW57937   9.565   0.864  14.355
52033SOL    HW157938   9.516   0.892  14.433
52033SOL    HW257939   9.603   0.945  14.322
52034SOL     OW57940   9.067   8.851   4.793
52034SOL    HW157941   9.113   8.910   4.853
52034SOL    HW257942   9.136   8.804   4.747
52035SOL     OW57943   9.554   3.693   4.855
52035SOL    HW157944   9.530   3.776   4.897
52035SOL    HW257945   9.611   3.718   4.783
52036SOL     OW57946   3.754   4.528   8.775
52036SOL    HW157947   3.737   4.441   8.740
52036SOL    HW257948   3.813   4.569   8.711
52037SOL     OW57949  12.755   2.460   6.414
52037SOL    HW157950  12.787   2.370   6.420
52037SOL    HW257951  12.834   2.513   6.398
52038SOL     OW57952  10.005   8.879   7.635
52038SOL    HW157953  10.024   8.895   7.542
52038SOL    HW257954   9.911   8.897   7.643
52039SOL     OW57955  14.559  11.668   1.736
52039SOL    HW157956  14.620  11.655   1.808
52039SOL    HW257957  14.535  11.760   1.742
52040SOL     OW57958   9.834   4.745   7.812
52040SOL    HW157959   9.809   4.798   7.736
52040SOL    HW257960   9.909   4.791   7.849
52041SOL     OW57961   5.396   2.220   4.139
52041SOL    HW157962   5.379   2.166   4.216
52041SOL    HW257963   5.428   2.159   4.073
52042SOL     OW57964   2.009  12.897   9.581
52042SOL    HW157965   1.964  12.933   9.504
52042SOL    HW257966   2.034  12.809   9.556
52043SOL     OW57967   0.881   6.867  14.287
52043SOL    HW157968   0.807   6.806  14.285
52043SOL    HW257969   0.879   6.910  14.201
52044SOL     OW57970  11.872   8.442   2.788
52044SOL    HW157971  11.954   8.403   2.818
52044SOL    HW257972  11.887   8.465   2.697
52045SOL     OW57973   4.536  13.723   8.609
52045SOL    HW157974   4.589  13.802   8.598
52045SOL    HW257975   4.559  13.691   8.696
52046SOL     OW57976  13.606   4.099   1.690
52046SOL    HW157977  13.662   4.078   1.765
52046SOL    HW257978  13.544   4.163   1.723
52047SOL     OW57979  14.605   7.947   8.136
52047SOL    HW157980  14.639   8.029   8.171
52047SOL    HW257981  14.675   7.884   8.150
52048SOL     OW57982  10.539  13.712   8.438
52048SOL    HW157983  10.631  13.699   8.414
52048SOL    HW257984  10.497  13.740   8.357
52049SOL     OW57985  11.815   5.496   7.428
52049SOL    HW157986  11.853   5.531   7.509
52049SOL    HW257987  11.790   5.574   7.378
52050SOL     OW57988  12.874  12.409  11.190
52050SOL    HW157989  12.815  12.350  11.239
52050SOL    HW257990  12.902  12.474  11.255
52051SOL     OW57991   5.323   5.130   2.982
52051SOL    HW157992   5.282   5.046   2.961
52051SOL    HW257993   5.359   5.117   3.069
52052SOL     OW57994  13.091   8.378  11.951
52052SOL    HW157995  13.157   8.423  12.004
52052SOL    HW257996  13.079   8.293  11.994
52053SOL     OW57997   6.830   3.767   8.901
52053SOL    HW157998   6.756   3.710   8.920
52053SOL    HW257999   6.897   3.742   8.965
52054SOL     OW58000   9.393  13.636   6.313
52054SOL    HW158001   9.474  13.589   6.334
52054SOL    HW258002   9.358  13.589   6.237
52055SOL     OW58003   7.818   7.295   0.565
52055SOL    HW158004   7.770   7.378   0.563
52055SOL    HW258005   7.868   7.294   0.483
52056SOL     OW58006   0.862   4.079   7.738
52056SOL    HW158007   0.884   4.037   7.655
52056SOL    HW258008   0.920   4.038   7.802
52057SOL     OW58009   8.513  10.336   6.678
52057SOL    HW158010   8.579  10.385   6.726
52057SOL    HW258011   8.526  10.245   6.705
52058SOL     OW58012   5.819   3.243   2.510
52058SOL    HW158013   5.840   3.322   2.561
52058SOL    HW258014   5.749   3.201   2.560
52059SOL     OW58015   1.859  10.675  13.087
52059SOL    HW158016   1.860  10.750  13.146
52059SOL    HW258017   1.951  10.652  13.076
52060SOL     OW58018  13.450   6.520   6.787
52060SOL    HW158019  13.465   6.575   6.710
52060SOL    HW258020  13.464   6.431   6.756
52061SOL     OW58021  13.339  14.834  14.014
52061SOL    HW158022  13.366  14.752  14.054
52061SOL    HW258023  13.362   0.021  14.079
52062SOL     OW58024  11.029   8.333   3.232
52062SOL    HW158025  11.082   8.382   3.295
52062SOL    HW258026  10.957   8.393   3.210
52063SOL     OW58027   2.679   4.821   2.124
52063SOL    HW158028   2.643   4.770   2.051
52063SOL    HW258029   2.621   4.897   2.131
52064SOL     OW58030   2.265  13.003  12.171
52064SOL    HW158031   2.288  13.073  12.232
52064SOL    HW258032   2.185  13.033  12.128
52065SOL     OW58033  13.837  10.363  10.277
52065SOL    HW158034  13.856  10.360  10.183
52065SOL    HW258035  13.838  10.456  10.299
52066SOL     OW58036   1.242  14.345   5.985
52066SOL    HW158037   1.330  14.375   6.010
52066SOL    HW258038   1.194  14.426   5.967
52067SOL     OW58039  10.700   9.678   5.325
52067SOL    HW158040  10.630   9.618   5.351
52067SOL    HW258041  10.666   9.765   5.343
52068SOL     OW58042   3.165   4.951   0.560
52068SOL    HW158043   3.072   4.964   0.541
52068SOL    HW258044   3.167   4.878   0.622
52069SOL     OW58045  14.826  13.434  14.733
52069SOL    HW158046   0.031  13.404  14.768
52069SOL    HW258047  14.778  13.464  14.810
52070SOL     OW58048   5.808   3.580   3.591
52070SOL    HW158049   5.865   3.636   3.643
52070SOL    HW258050   5.720   3.595   3.627
52071SOL     OW58051  12.053  12.241   4.427
52071SOL    HW158052  12.021  12.317   4.474
52071SOL    HW258053  11.993  12.170   4.452
52072SOL     OW58054  14.649   5.590  13.244
52072SOL    HW158055  14.707   5.519  13.274
52072SOL    HW258056  14.625   5.636  13.324
52073SOL     OW58057  14.583   8.720  10.824
52073SOL    HW158058  14.520   8.664  10.869
52073SOL    HW258059  14.669   8.689  10.852
52074SOL     OW58060   7.953   7.626   1.138
52074SOL    HW158061   7.924   7.583   1.058
52074SOL    HW258062   7.933   7.563   1.208
52075SOL     OW58063  10.701  14.569  12.640
52075SOL    HW158064  10.621  14.549  12.591
52075SOL    HW258065  10.727  14.484  12.676
52076SOL     OW58066   4.328   7.953   8.434
52076SOL    HW158067   4.282   7.937   8.352
52076SOL    HW258068   4.412   7.990   8.408
52077SOL     OW58069   1.409   8.124   7.238
52077SOL    HW158070   1.416   8.168   7.154
52077SOL    HW258071   1.323   8.082   7.237
52078SOL     OW58072   6.737   8.725   8.966
52078SOL    HW158073   6.750   8.812   8.928
52078SOL    HW258074   6.645   8.705   8.950
52079SOL     OW58075   3.036  10.370  11.408
52079SOL    HW158076   3.061  10.280  11.428
52079SOL    HW258077   3.103  10.401  11.347
52080SOL     OW58078  10.217   9.804  12.121
52080SOL    HW158079  10.250   9.728  12.074
52080SOL    HW258080  10.216   9.777  12.213
52081SOL     OW58081   2.416   1.734  13.092
52081SOL    HW158082   2.479   1.685  13.145
52081SOL    HW258083   2.431   1.704  13.003
52082SOL     OW58084   4.238  14.547   3.973
52082SOL    HW158085   4.248  14.567   4.066
52082SOL    HW258086   4.328  14.542   3.939
52083SOL     OW58087   6.232   0.523   8.079
52083SOL    HW158088   6.161   0.557   8.024
52083SOL    HW258089   6.285   0.599   8.101
52084SOL     OW58090   8.928  14.473   7.771
52084SOL    HW158091   8.906  14.551   7.720
52084SOL    HW258092   8.864  14.473   7.842
52085SOL     OW58093  13.551   2.156  12.607
52085SOL    HW158094  13.479   2.102  12.575
52085SOL    HW258095  13.513   2.244  12.615
52086SOL     OW58096  12.463  14.325   9.532
52086SOL    HW158097  12.523  14.257   9.563
52086SOL    HW258098  12.377  14.283   9.533
52087SOL     OW58099   5.234  11.445   0.428
52087SOL    HW158100   5.303  11.379   0.425
52087SOL    HW258101   5.153  11.397   0.413
52088SOL     OW58102   1.775   0.263   6.635
52088SOL    HW158103   1.687   0.298   6.643
52088SOL    HW258104   1.765   0.169   6.652
52089SOL     OW58105  13.482  13.169   7.110
52089SOL    HW158106  13.405  13.209   7.150
52089SOL    HW258107  13.464  13.170   7.016
52090SOL     OW58108   3.910   0.043  13.364
52090SOL    HW158109   3.816   0.061  13.360
52090SOL    HW258110   3.929  14.879  13.280
52091SOL     OW58111   6.499  12.391   5.711
52091SOL    HW158112   6.506  12.439   5.793
52091SOL    HW258113   6.417  12.420   5.673
52092SOL     OW58114   8.854  11.287  13.563
52092SOL    HW158115   8.819  11.260  13.478
52092SOL    HW258116   8.812  11.227  13.626
52093SOL     OW58117   4.506  13.828  11.141
52093SOL    HW158118   4.570  13.894  11.168
52093SOL    HW258119   4.459  13.869  11.069
52094SOL     OW58120   1.819   4.572   9.075
52094SOL    HW158121   1.738   4.523   9.064
52094SOL    HW258122   1.888   4.506   9.075
52095SOL     OW58123   8.562   0.775  10.214
52095SOL    HW158124   8.511   0.702  10.250
52095SOL    HW258125   8.628   0.794  10.281
52096SOL     OW58126   5.709  12.359  12.025
52096SOL    HW158127   5.722  12.265  12.019
52096SOL    HW258128   5.629  12.376  11.975
52097SOL     OW58129   1.943  14.106   0.338
52097SOL    HW158130   1.855  14.101   0.376
52097SOL    HW258131   1.987  14.028   0.371
52098SOL     OW58132   7.660  11.674  13.845
52098SOL    HW158133   7.641  11.581  13.852
52098SOL    HW258134   7.699  11.684  13.758
52099SOL     OW58135   3.396   2.595   1.538
52099SOL    HW158136   3.327   2.598   1.472
52099SOL    HW258137   3.477   2.608   1.487
52100SOL     OW58138  12.332   1.528   0.130
52100SOL    HW158139  12.313   1.435   0.137
52100SOL    HW258140  12.309   1.563   0.216
52101SOL     OW58141   4.624  14.249  11.191
52101SOL    HW158142   4.590  14.276  11.106
52101SOL    HW258143   4.581  14.307  11.254
52102SOL     OW58144   5.662   5.854  14.191
52102SOL    HW158145   5.703   5.847  14.104
52102SOL    HW258146   5.735   5.868  14.251
52103SOL     OW58147   9.969   0.030   6.627
52103SOL    HW158148  10.000   0.075   6.549
52103SOL    HW258149   9.971   0.096   6.696
52104SOL     OW58150   4.095   2.326   3.315
52104SOL    HW158151   4.018   2.314   3.258
52104SOL    HW258152   4.061   2.316   3.404
52105SOL     OW58153  14.379   7.324   8.133
52105SOL    HW158154  14.401   7.412   8.163
52105SOL    HW258155  14.445   7.267   8.173
52106SOL     OW58156  13.278   7.718   1.342
52106SOL    HW158157  13.195   7.761   1.366
52106SOL    HW258158  13.345   7.781   1.369
52107SOL     OW58159   2.194   5.545   8.873
52107SOL    HW158160   2.180   5.623   8.820
52107SOL    HW258161   2.171   5.571   8.962
52108SOL     OW58162   8.016   5.021   0.057
52108SOL    HW158163   8.004   5.037   0.151
52108SOL    HW258164   8.097   5.067   0.035
52109SOL     OW58165  10.713   4.058   7.673
52109SOL    HW158166  10.753   4.145   7.675
52109SOL    HW258167  10.778   4.002   7.632
52110SOL     OW58168  11.003   1.046   6.331
52110SOL    HW158169  11.028   1.022   6.241
52110SOL    HW258170  10.980   1.139   6.325
52111SOL     OW58171   3.121   0.057  13.021
52111SOL    HW158172   3.045   0.034  12.967
52111SOL    HW258173   3.097   0.141  13.061
52112SOL     OW58174  10.290   6.479   1.206
52112SOL    HW158175  10.211   6.429   1.185
52112SOL    HW258176  10.260   6.548   1.266
52113SOL     OW58177   1.117   8.800   9.473
52113SOL    HW158178   1.131   8.891   9.450
52113SOL    HW258179   1.204   8.761   9.476
52114SOL     OW58180   9.343   4.959  13.259
52114SOL    HW158181   9.289   4.961  13.180
52114SOL    HW258182   9.287   4.918  13.325
52115SOL     OW58183  12.550   5.931   8.357
52115SOL    HW158184  12.561   6.023   8.334
52115SOL    HW258185  12.489   5.931   8.431
52116SOL     OW58186   9.244   9.643   1.237
52116SOL    HW158187   9.206   9.726   1.209
52116SOL    HW258188   9.175   9.579   1.221
52117SOL     OW58189  14.095   7.187   2.346
52117SOL    HW158190  14.009   7.147   2.337
52117SOL    HW258191  14.082   7.278   2.320
52118SOL     OW58192  10.587  10.661   9.171
52118SOL    HW158193  10.566  10.617   9.253
52118SOL    HW258194  10.614  10.590   9.112
52119SOL     OW58195   3.856   9.942   5.646
52119SOL    HW158196   3.918   9.877   5.614
52119SOL    HW258197   3.862   9.936   5.741
52120SOL     OW58198  13.391   1.313   7.444
52120SOL    HW158199  13.450   1.274   7.379
52120SOL    HW258200  13.405   1.407   7.435
52121SOL     OW58201  14.042   8.307   9.687
52121SOL    HW158202  13.998   8.327   9.770
52121SOL    HW258203  14.001   8.365   9.623
52122SOL     OW58204  11.591   9.495   1.236
52122SOL    HW158205  11.671   9.518   1.190
52122SOL    HW258206  11.555   9.421   1.187
52123SOL     OW58207  13.566   0.980  11.730
52123SOL    HW158208  13.617   1.044  11.780
52123SOL    HW258209  13.538   0.915  11.795
52124SOL     OW58210   1.552   2.187  10.355
52124SOL    HW158211   1.590   2.123  10.415
52124SOL    HW258212   1.560   2.148  10.269
52125SOL     OW58213   1.817   6.225   5.451
52125SOL    HW158214   1.901   6.256   5.416
52125SOL    HW258215   1.842   6.161   5.518
52126SOL     OW58216   6.723   9.791  10.588
52126SOL    HW158217   6.630   9.809  10.598
52126SOL    HW258218   6.761   9.812  10.674
52127SOL     OW58219   8.444   8.990   5.458
52127SOL    HW158220   8.509   9.016   5.392
52127SOL    HW258221   8.386   9.065   5.466
52128SOL     OW58222  13.006   8.773   7.257
52128SOL    HW158223  12.926   8.720   7.259
52128SOL    HW258224  13.012   8.809   7.345
52129SOL     OW58225  13.422   3.642   3.219
52129SOL    HW158226  13.413   3.631   3.314
52129SOL    HW258227  13.487   3.577   3.194
52130SOL     OW58228   1.975  14.032   3.635
52130SOL    HW158229   1.998  14.125   3.637
52130SOL    HW258230   1.880  14.031   3.629
52131SOL     OW58231   0.996   7.388  14.183
52131SOL    HW158232   0.996   7.393  14.087
52131SOL    HW258233   0.903   7.382  14.207
52132SOL     OW58234  13.682   9.495   3.827
52132SOL    HW158235  13.723   9.409   3.821
52132SOL    HW258236  13.719   9.535   3.905
52133SOL     OW58237   5.397  14.773   8.706
52133SOL    HW158238   5.367  14.861   8.685
52133SOL    HW258239   5.476  14.761   8.654
52134SOL     OW58240  13.735   0.584   3.034
52134SOL    HW158241  13.660   0.524   3.041
52134SOL    HW258242  13.713   0.656   3.095
52135SOL     OW58243   4.418   4.580   7.482
52135SOL    HW158244   4.467   4.561   7.402
52135SOL    HW258245   4.327   4.583   7.453
52136SOL     OW58246   1.982   6.381  13.919
52136SOL    HW158247   2.058   6.357  13.867
52136SOL    HW258248   1.976   6.313  13.986
52137SOL     OW58249  12.261   5.325   5.894
52137SOL    HW158250  12.308   5.282   5.822
52137SOL    HW258251  12.170   5.300   5.882
52138SOL     OW58252  14.326  10.511   0.240
52138SOL    HW158253  14.367  10.519   0.154
52138SOL    HW258254  14.232  10.510   0.222
52139SOL     OW58255   9.792   0.982   3.406
52139SOL    HW158256   9.707   0.946   3.383
52139SOL    HW258257   9.776   1.076   3.415
52140SOL     OW58258   6.610   7.494   7.166
52140SOL    HW158259   6.681   7.543   7.207
52140SOL    HW258260   6.615   7.518   7.073
52141SOL     OW58261   0.441  13.622   2.089
52141SOL    HW158262   0.447  13.618   1.993
52141SOL    HW258263   0.529  13.648   2.117
52142SOL     OW58264  11.195   7.850   8.656
52142SOL    HW158265  11.239   7.813   8.580
52142SOL    HW258266  11.140   7.779   8.690
52143SOL     OW58267   1.023  13.818  13.113
52143SOL    HW158268   1.023  13.766  13.193
52143SOL    HW258269   1.087  13.775  13.056
52144SOL     OW58270   0.609   5.694   6.382
52144SOL    HW158271   0.563   5.610   6.382
52144SOL    HW258272   0.683   5.681   6.442
52145SOL     OW58273  10.630   0.699   1.029
52145SOL    HW158274  10.553   0.750   1.003
52145SOL    HW258275  10.594   0.624   1.076
52146SOL     OW58276   7.567  13.222   8.710
52146SOL    HW158277   7.603  13.243   8.796
52146SOL    HW258278   7.593  13.131   8.695
52147SOL     OW58279   0.214   1.461   4.279
52147SOL    HW158280   0.218   1.550   4.312
52147SOL    HW258281   0.179   1.469   4.190
52148SOL     OW58282  11.324  13.493  13.761
52148SOL    HW158283  11.332  13.399  13.745
52148SOL    HW258284  11.247  13.520  13.711
52149SOL     OW58285   4.376  10.321   6.896
52149SOL    HW158286   4.413  10.393   6.846
52149SOL    HW258287   4.407  10.242   6.851
52150SOL     OW58288   4.657   8.546  14.302
52150SOL    HW158289   4.597   8.567  14.231
52150SOL    HW258290   4.713   8.624  14.312
52151SOL     OW58291   1.261   0.102   9.299
52151SOL    HW158292   1.345   0.143   9.282
52151SOL    HW258293   1.275   0.009   9.279
52152SOL     OW58294   1.973   2.130  11.707
52152SOL    HW158295   2.066   2.123  11.730
52152SOL    HW258296   1.966   2.085  11.623
52153SOL     OW58297  12.998   9.642  12.055
52153SOL    HW158298  13.015   9.563  12.004
52153SOL    HW258299  12.920   9.680  12.014
52154SOL     OW58300   2.033  14.332   5.309
52154SOL    HW158301   2.063  14.335   5.399
52154SOL    HW258302   2.110  14.307   5.258
52155SOL     OW58303   5.149   7.085  13.553
52155SOL    HW158304   5.161   7.143  13.628
52155SOL    HW258305   5.067   7.039  13.569
52156SOL     OW58306   1.087   7.466  10.837
52156SOL    HW158307   1.111   7.474  10.929
52156SOL    HW258308   1.051   7.551  10.813
52157SOL     OW58309   8.675   9.146  11.333
52157SOL    HW158310   8.715   9.083  11.273
52157SOL    HW258311   8.631   9.210  11.276
52158SOL     OW58312   7.063   5.918  13.018
52158SOL    HW158313   7.002   5.974  12.969
52158SOL    HW258314   7.038   5.930  13.109
52159SOL     OW58315   6.405  14.220  11.722
52159SOL    HW158316   6.337  14.233  11.656
52159SOL    HW258317   6.483  14.261  11.685
52160SOL     OW58318   4.439   1.700   3.042
52160SOL    HW158319   4.514   1.654   3.006
52160SOL    HW258320   4.477   1.767   3.099
52161SOL     OW58321   6.620  11.841   2.478
52161SOL    HW158322   6.607  11.768   2.418
52161SOL    HW258323   6.678  11.806   2.546
52162SOL     OW58324  12.475  12.608  10.686
52162SOL    HW158325  12.440  12.635  10.602
52162SOL    HW258326  12.424  12.531  10.710
52163SOL     OW58327  13.522   5.436   8.913
52163SOL    HW158328  13.606   5.478   8.934
52163SOL    HW258329  13.544   5.371   8.846
52164SOL     OW58330  13.645  12.307   8.143
52164SOL    HW158331  13.652  12.214   8.166
52164SOL    HW258332  13.555  12.317   8.111
52165SOL     OW58333   7.339  12.565  13.370
52165SOL    HW158334   7.308  12.549  13.281
52165SOL    HW258335   7.383  12.484  13.395
52166SOL     OW58336   3.638   7.416   5.587
52166SOL    HW158337   3.608   7.460   5.667
52166SOL    HW258338   3.568   7.355   5.565
52167SOL     OW58339   8.338   7.823  13.944
52167SOL    HW158340   8.327   7.782  14.029
52167SOL    HW258341   8.400   7.894  13.959
52168SOL     OW58342   2.634  10.660  12.294
52168SOL    HW158343   2.604  10.652  12.385
52168SOL    HW258344   2.582  10.595  12.247
52169SOL     OW58345   6.989   6.519   9.986
52169SOL    HW158346   7.010   6.600  10.031
52169SOL    HW258347   6.911   6.539   9.933
52170SOL     OW58348  10.377   5.546   1.728
52170SOL    HW158349  10.454   5.532   1.784
52170SOL    HW258350  10.366   5.463   1.681
52171SOL     OW58351  12.698  12.827   5.001
52171SOL    HW158352  12.692  12.744   4.953
52171SOL    HW258353  12.768  12.812   5.065
52172SOL     OW58354   0.294   9.320  12.441
52172SOL    HW158355   0.250   9.381  12.499
52172SOL    HW258356   0.238   9.242  12.441
52173SOL     OW58357  11.656  11.048  14.180
52173SOL    HW158358  11.733  11.061  14.124
52173SOL    HW258359  11.691  11.045  14.269
52174SOL     OW58360   1.460  10.441   6.900
52174SOL    HW158361   1.374  10.467   6.933
52174SOL    HW258362   1.443  10.409   6.812
52175SOL     OW58363   2.500  14.212   4.477
52175SOL    HW158364   2.406  14.219   4.491
52175SOL    HW258365   2.514  14.121   4.450
52176SOL     OW58366  11.396  11.498   5.111
52176SOL    HW158367  11.462  11.475   5.046
52176SOL    HW258368  11.366  11.413   5.145
52177SOL     OW58369   0.492   4.951   3.430
52177SOL    HW158370   0.574   4.958   3.479
52177SOL    HW258371   0.487   4.859   3.404
52178SOL     OW58372   9.619  13.413   7.312
52178SOL    HW158373   9.561  13.478   7.352
52178SOL    HW258374   9.684  13.393   7.380
52179SOL     OW58375   7.068   1.738  14.827
52179SOL    HW158376   7.093   1.705  14.741
52179SOL    HW258377   7.050   1.831  14.813
52180SOL     OW58378  13.975  14.242   2.472
52180SOL    HW158379  13.892  14.284   2.494
52180SOL    HW258380  13.973  14.158   2.519
52181SOL     OW58381   4.502   5.328  12.159
52181SOL    HW158382   4.570   5.335  12.226
52181SOL    HW258383   4.440   5.264  12.195
52182SOL     OW58384   1.111   7.144   7.548
52182SOL    HW158385   1.090   7.120   7.458
52182SOL    HW258386   1.054   7.088   7.602
52183SOL     OW58387   1.848   1.263   3.634
52183SOL    HW158388   1.782   1.195   3.642
52183SOL    HW258389   1.798   1.345   3.644
52184SOL     OW58390   6.527   1.002   4.736
52184SOL    HW158391   6.593   0.939   4.708
52184SOL    HW258392   6.556   1.085   4.697
52185SOL     OW58393   4.834   7.431   7.395
52185SOL    HW158394   4.807   7.431   7.303
52185SOL    HW258395   4.897   7.359   7.402
52186SOL     OW58396   2.285  12.953   2.926
52186SOL    HW158397   2.325  12.992   3.004
52186SOL    HW258398   2.195  12.934   2.953
52187SOL     OW58399   7.849  13.634   8.336
52187SOL    HW158400   7.887  13.549   8.310
52187SOL    HW258401   7.919  13.697   8.319
52188SOL     OW58402   7.342   6.425  10.461
52188SOL    HW158403   7.294   6.389  10.536
52188SOL    HW258404   7.312   6.373  10.386
52189SOL     OW58405   3.866   0.498   4.439
52189SOL    HW158406   3.834   0.474   4.526
52189SOL    HW258407   3.922   0.574   4.455
52190SOL     OW58408  14.180   6.039   2.109
52190SOL    HW158409  14.172   6.115   2.167
52190SOL    HW258410  14.092   6.028   2.073
52191SOL     OW58411   6.403   1.489   3.134
52191SOL    HW158412   6.454   1.568   3.151
52191SOL    HW258413   6.466   1.425   3.100
52192SOL     OW58414  13.384  14.317  14.705
52192SOL    HW158415  13.422  14.242  14.660
52192SOL    HW258416  13.297  14.326  14.666
52193SOL     OW58417   9.412  13.775   9.114
52193SOL    HW158418   9.375  13.777   9.202
52193SOL    HW258419   9.418  13.682   9.092
52194SOL     OW58420   1.027   4.672   1.657
52194SOL    HW158421   0.968   4.684   1.732
52194SOL    HW258422   1.113   4.700   1.689
52195SOL     OW58423  13.822   9.103   5.205
52195SOL    HW158424  13.774   9.168   5.256
52195SOL    HW258425  13.753   9.050   5.164
52196SOL     OW58426  11.187   9.929   4.687
52196SOL    HW158427  11.148   9.865   4.747
52196SOL    HW258428  11.166  10.014   4.725
52197SOL     OW58429  10.692  14.773   0.869
52197SOL    HW158430  10.665  14.831   0.798
52197SOL    HW258431  10.757  14.824   0.918
52198SOL     OW58432  13.249   1.517   5.398
52198SOL    HW158433  13.247   1.421   5.395
52198SOL    HW258434  13.260   1.543   5.306
52199SOL     OW58435   4.935   5.135   9.013
52199SOL    HW158436   4.986   5.111   9.090
52199SOL    HW258437   4.867   5.193   9.046
52200SOL     OW58438   2.930   0.347   3.449
52200SOL    HW158439   2.892   0.292   3.380
52200SOL    HW258440   2.954   0.285   3.518
52201SOL     OW58441   4.782  11.584  12.353
52201SOL    HW158442   4.791  11.493  12.325
52201SOL    HW258443   4.767  11.579  12.447
52202SOL     OW58444   1.939   0.788   6.292
52202SOL    HW158445   1.906   0.877   6.308
52202SOL    HW258446   1.921   0.772   6.200
52203SOL     OW58447  12.840   0.016  13.443
52203SOL    HW158448  12.810  14.819  13.492
52203SOL    HW258449  12.816  14.877  13.352
52204SOL     OW58450   5.060  12.017  11.718
52204SOL    HW158451   5.128  12.069  11.761
52204SOL    HW258452   5.083  12.020  11.625
52205SOL     OW58453   8.881  14.817   4.585
52205SOL    HW158454   8.829  14.737   4.594
52205SOL    HW258455   8.927  14.806   4.502
52206SOL     OW58456   2.454  10.835   0.469
52206SOL    HW158457   2.409  10.893   0.531
52206SOL    HW258458   2.504  10.775   0.524
52207SOL     OW58459   0.884  13.143   4.401
52207SOL    HW158460   0.878  13.052   4.373
52207SOL    HW258461   0.839  13.145   4.486
52208SOL     OW58462   5.053  13.829  11.690
52208SOL    HW158463   4.987  13.866  11.749
52208SOL    HW258464   5.125  13.803  11.748
52209SOL     OW58465   0.348   8.990  14.836
52209SOL    HW158466   0.442   9.005  14.831
52209SOL    HW258467   0.326   8.948  14.753
52210SOL     OW58468   2.094   0.673   3.502
52210SOL    HW158469   2.043   0.735   3.555
52210SOL    HW258470   2.142   0.727   3.441
52211SOL     OW58471   1.766   3.023  11.194
52211SOL    HW158472   1.827   2.968  11.243
52211SOL    HW258473   1.755   2.977  11.110
52212SOL     OW58474   0.106   0.520  11.648
52212SOL    HW158475   0.081   0.460  11.577
52212SOL    HW258476   0.141   0.597  11.603
52213SOL     OW58477  14.176  14.153   6.077
52213SOL    HW158478  14.239  14.164   6.006
52213SOL    HW258479  14.095  14.191   6.043
52214SOL     OW58480  10.316   3.813   3.817
52214SOL    HW158481  10.234   3.861   3.805
52214SOL    HW258482  10.292   3.731   3.859
52215SOL     OW58483   1.047   4.976   4.871
52215SOL    HW158484   1.095   5.059   4.871
52215SOL    HW258485   0.991   4.980   4.948
52216SOL     OW58486   7.887   8.739   4.027
52216SOL    HW158487   7.946   8.664   4.016
52216SOL    HW258488   7.905   8.771   4.116
52217SOL     OW58489   0.160   3.806   5.894
52217SOL    HW158490   0.135   3.805   5.802
52217SOL    HW258491   0.092   3.859   5.936
52218SOL     OW58492   3.856   9.611   1.721
52218SOL    HW158493   3.871   9.535   1.666
52218SOL    HW258494   3.761   9.615   1.732
52219SOL     OW58495   0.523  11.112   1.224
52219SOL    HW158496   0.582  11.044   1.192
52219SOL    HW258497   0.457  11.065   1.275
52220SOL     OW58498  12.472  12.722   3.053
52220SOL    HW158499  12.530  12.667   3.000
52220SOL    HW258500  12.487  12.811   3.021
52221SOL     OW58501   9.516   7.739  13.086
52221SOL    HW158502   9.568   7.717  13.163
52221SOL    HW258503   9.433   7.771  13.122
52222SOL     OW58504   5.110   7.255   0.323
52222SOL    HW158505   5.039   7.285   0.379
52222SOL    HW258506   5.133   7.169   0.358
52223SOL     OW58507   4.609  13.448   6.780
52223SOL    HW158508   4.600  13.474   6.871
52223SOL    HW258509   4.528  13.477   6.739
52224SOL     OW58510  13.681   6.324   7.445
52224SOL    HW158511  13.687   6.419   7.440
52224SOL    HW258512  13.658   6.306   7.536
52225SOL     OW58513  10.472   2.384  10.582
52225SOL    HW158514  10.554   2.349  10.617
52225SOL    HW258515  10.480   2.479  10.593
52226SOL     OW58516   4.253   0.136   9.089
52226SOL    HW158517   4.187   0.094   9.035
52226SOL    HW258518   4.208   0.210   9.130
52227SOL     OW58519   4.290   7.263   7.044
52227SOL    HW158520   4.268   7.185   7.095
52227SOL    HW258521   4.383   7.253   7.023
52228SOL     OW58522  12.359   2.155   1.627
52228SOL    HW158523  12.449   2.123   1.637
52228SOL    HW258524  12.364   2.219   1.556
52229SOL     OW58525  11.789   5.060   3.721
52229SOL    HW158526  11.821   5.052   3.811
52229SOL    HW258527  11.839   4.993   3.672
52230SOL     OW58528   0.486   9.843  13.815
52230SOL    HW158529   0.548   9.914  13.828
52230SOL    HW258530   0.463   9.848  13.722
52231SOL     OW58531  14.421  13.248  12.350
52231SOL    HW158532  14.386  13.330  12.317
52231SOL    HW258533  14.505  13.237  12.306
52232SOL     OW58534   8.774  14.627   1.082
52232SOL    HW158535   8.779  14.631   0.986
52232SOL    HW258536   8.680  14.628   1.100
52233SOL     OW58537   1.586   2.265  14.179
52233SOL    HW158538   1.584   2.195  14.244
52233SOL    HW258539   1.543   2.339  14.223
52234SOL     OW58540   6.472   1.069   1.567
52234SOL    HW158541   6.529   0.992   1.574
52234SOL    HW258542   6.400   1.050   1.627
52235SOL     OW58543  10.232   0.420  11.808
52235SOL    HW158544  10.265   0.331  11.822
52235SOL    HW258545  10.162   0.410  11.744
52236SOL     OW58546   7.979   7.665   8.605
52236SOL    HW158547   8.064   7.698   8.575
52236SOL    HW258548   7.973   7.694   8.696
52237SOL     OW58549   3.398   7.413   8.236
52237SOL    HW158550   3.443   7.378   8.314
52237SOL    HW258551   3.377   7.503   8.260
52238SOL     OW58552  12.936   3.675  10.897
52238SOL    HW158553  13.028   3.676  10.921
52238SOL    HW258554  12.911   3.768  10.892
52239SOL     OW58555   2.605   7.850  12.363
52239SOL    HW158556   2.559   7.833  12.281
52239SOL    HW258557   2.698   7.846  12.339
52240SOL     OW58558   3.977  14.287   5.528
52240SOL    HW158559   3.978  14.357   5.593
52240SOL    HW258560   3.914  14.317   5.462
52241SOL     OW58561  13.565  10.347  13.117
52241SOL    HW158562  13.524  10.264  13.091
52241SOL    HW258563  13.524  10.412  13.059
52242SOL     OW58564   1.952   2.588  14.311
52242SOL    HW158565   1.927   2.658  14.251
52242SOL    HW258566   1.966   2.632  14.395
52243SOL     OW58567   6.969   7.113   9.869
52243SOL    HW158568   6.960   7.207   9.880
52243SOL    HW258569   7.056   7.101   9.831
52244SOL     OW58570   3.460   4.356   9.059
52244SOL    HW158571   3.550   4.324   9.054
52244SOL    HW258572   3.467   4.438   9.109
52245SOL     OW58573   7.368   5.565  13.289
52245SOL    HW158574   7.369   5.475  13.321
52245SOL    HW258575   7.282   5.576  13.249
52246SOL     OW58576   2.994   3.639   2.077
52246SOL    HW158577   3.087   3.620   2.090
52246SOL    HW258578   2.979   3.721   2.125
52247SOL     OW58579   6.989  10.931  12.748
52247SOL    HW158580   6.933  10.862  12.715
52247SOL    HW258581   6.928  10.997  12.782
52248SOL     OW58582  14.338   3.284   2.099
52248SOL    HW158583  14.416   3.300   2.046
52248SOL    HW258584  14.363   3.213   2.158
52249SOL     OW58585  13.084   6.751   4.815
52249SOL    HW158586  13.045   6.779   4.898
52249SOL    HW258587  13.013   6.759   4.751
52250SOL     OW58588  13.817  13.447  10.532
52250SOL    HW158589  13.765  13.509  10.482
52250SOL    HW258590  13.763  13.368  10.535
52251SOL     OW58591   5.229  12.271   1.117
52251SOL    HW158592   5.244  12.210   1.045
52251SOL    HW258593   5.314  12.310   1.133
52252SOL     OW58594   2.202  10.382   3.581
52252SOL    HW158595   2.232  10.426   3.502
52252SOL    HW258596   2.280  10.337   3.615
52253SOL     OW58597  12.442   4.879   1.620
52253SOL    HW158598  12.397   4.956   1.584
52253SOL    HW258599  12.514   4.863   1.560
52254SOL     OW58600  10.626   5.673   4.515
52254SOL    HW158601  10.674   5.678   4.598
52254SOL    HW258602  10.559   5.607   4.530
52255SOL     OW58603  12.449   7.746  13.814
52255SOL    HW158604  12.444   7.807  13.740
52255SOL    HW258605  12.465   7.661  13.774
52256SOL     OW58606   4.551  13.371   4.965
52256SOL    HW158607   4.473  13.323   4.936
52256SOL    HW258608   4.611  13.367   4.890
52257SOL     OW58609   1.984   9.605   0.739
52257SOL    HW158610   1.948   9.692   0.725
52257SOL    HW258611   2.048   9.616   0.809
52258SOL     OW58612   8.774   2.622   6.422
52258SOL    HW158613   8.838   2.572   6.371
52258SOL    HW258614   8.732   2.556   6.478
52259SOL     OW58615   9.208  11.031  10.898
52259SOL    HW158616   9.137  11.040  10.834
52259SOL    HW258617   9.200  10.941  10.930
52260SOL     OW58618   3.815   1.217   8.715
52260SOL    HW158619   3.754   1.183   8.780
52260SOL    HW258620   3.775   1.193   8.631
52261SOL     OW58621   6.451   7.546   2.953
52261SOL    HW158622   6.356   7.544   2.941
52261SOL    HW258623   6.464   7.561   3.046
52262SOL     OW58624   0.469  13.204   3.618
52262SOL    HW158625   0.436  13.255   3.544
52262SOL    HW258626   0.534  13.145   3.579
52263SOL     OW58627   9.936   9.333   0.789
52263SOL    HW158628   9.919   9.359   0.698
52263SOL    HW258629   9.981   9.249   0.782
52264SOL     OW58630   4.371  12.016   9.779
52264SOL    HW158631   4.280  12.035   9.754
52264SOL    HW258632   4.369  12.011   9.874
52265SOL     OW58633   6.723  10.023   6.297
52265SOL    HW158634   6.763   9.975   6.370
52265SOL    HW258635   6.635  10.043   6.329
52266SOL     OW58636   1.584   8.968   5.134
52266SOL    HW158637   1.660   9.002   5.181
52266SOL    HW258638   1.552   9.042   5.083
52267SOL     OW58639   8.814  12.842   1.100
52267SOL    HW158640   8.902  12.875   1.081
52267SOL    HW258641   8.758  12.920   1.100
52268SOL     OW58642   1.094  11.303  13.558
52268SOL    HW158643   1.127  11.222  13.520
52268SOL    HW258644   1.022  11.330  13.500
52269SOL     OW58645  11.953   5.752   7.459
52269SOL    HW158646  12.009   5.675   7.452
52269SOL    HW258647  11.985   5.812   7.392
52270SOL     OW58648   0.742   5.841  13.366
52270SOL    HW158649   0.676   5.789  13.321
52270SOL    HW258650   0.739   5.810  13.457
52271SOL     OW58651  12.953   3.754  13.582
52271SOL    HW158652  13.025   3.816  13.569
52271SOL    HW258653  12.996   3.670  13.596
52272SOL     OW58654  12.490   3.466   1.369
52272SOL    HW158655  12.572   3.441   1.412
52272SOL    HW258656  12.498   3.561   1.356
52273SOL     OW58657  10.317   8.637  14.222
52273SOL    HW158658  10.349   8.674  14.140
52273SOL    HW258659  10.249   8.576  14.196
52274SOL     OW58660   1.262   8.890  14.644
52274SOL    HW158661   1.182   8.933  14.676
52274SOL    HW258662   1.282   8.826  14.711
52275SOL     OW58663  14.145  11.252   2.376
52275SOL    HW158664  14.135  11.157   2.381
52275SOL    HW258665  14.129  11.274   2.284
52276SOL     OW58666  14.555   6.173   9.756
52276SOL    HW158667  14.603   6.232   9.699
52276SOL    HW258668  14.622   6.134   9.813
52277SOL     OW58669  12.910   6.119   8.888
52277SOL    HW158670  12.893   6.157   8.974
52277SOL    HW258671  12.906   6.024   8.902
52278SOL     OW58672  13.875   7.675  14.353
52278SOL    HW158673  13.912   7.762  14.335
52278SOL    HW258674  13.791   7.676  14.307
52279SOL     OW58675  10.725   8.901   6.948
52279SOL    HW158676  10.714   8.927   7.039
52279SOL    HW258677  10.738   8.807   6.951
52280SOL     OW58678   2.962   5.388  12.057
52280SOL    HW158679   2.937   5.295  12.058
52280SOL    HW258680   2.906   5.428  11.990
52281SOL     OW58681   2.735   3.655   2.668
52281SOL    HW158682   2.730   3.711   2.590
52281SOL    HW258683   2.747   3.567   2.633
52282SOL     OW58684  13.911  10.667  14.514
52282SOL    HW158685  13.861  10.706  14.442
52282SOL    HW258686  13.880  10.576  14.518
52283SOL     OW58687   5.136   7.893   5.567
52283SOL    HW158688   5.193   7.829   5.525
52283SOL    HW258689   5.192   7.969   5.581
52284SOL     OW58690   7.036   7.255   3.004
52284SOL    HW158691   7.127   7.260   3.034
52284SOL    HW258692   7.032   7.172   2.957
52285SOL     OW58693   9.295   7.433  10.392
52285SOL    HW158694   9.298   7.493  10.466
52285SOL    HW258695   9.385   7.400  10.385
52286SOL     OW58696   0.854   9.145   2.076
52286SOL    HW158697   0.936   9.195   2.076
52286SOL    HW258698   0.850   9.106   2.163
52287SOL     OW58699   9.374  13.245  13.829
52287SOL    HW158700   9.315  13.230  13.904
52287SOL    HW258701   9.386  13.340  13.828
52288SOL     OW58702   3.223  11.851   1.105
52288SOL    HW158703   3.208  11.796   1.028
52288SOL    HW258704   3.264  11.792   1.169
52289SOL     OW58705  12.446   9.892   4.928
52289SOL    HW158706  12.521   9.924   4.878
52289SOL    HW258707  12.372   9.899   4.868
52290SOL     OW58708   6.970  13.355   8.359
52290SOL    HW158709   6.935  13.326   8.275
52290SOL    HW258710   7.040  13.292   8.379
52291SOL     OW58711  14.811  10.838   4.366
52291SOL    HW158712  14.857  10.922   4.373
52291SOL    HW258713  14.821  10.812   4.275
52292SOL     OW58714   2.287  11.714  13.064
52292SOL    HW158715   2.227  11.651  13.105
52292SOL    HW258716   2.334  11.663  12.998
52293SOL     OW58717   6.032  12.932  11.500
52293SOL    HW158718   5.974  12.972  11.435
52293SOL    HW258719   6.103  12.894  11.448
52294SOL     OW58720   2.936   1.067  10.117
52294SOL    HW158721   3.007   1.112  10.072
52294SOL    HW258722   2.916   0.992  10.062
52295SOL     OW58723  14.243   5.474   5.860
52295SOL    HW158724  14.245   5.512   5.947
52295SOL    HW258725  14.159   5.503   5.823
52296SOL     OW58726   5.256   4.516  11.115
52296SOL    HW158727   5.332   4.536  11.169
52296SOL    HW258728   5.216   4.602  11.098
52297SOL     OW58729   3.572   4.604   1.647
52297SOL    HW158730   3.583   4.685   1.597
52297SOL    HW258731   3.626   4.616   1.725
52298SOL     OW58732   7.288  13.605  10.186
52298SOL    HW158733   7.284  13.526  10.240
52298SOL    HW258734   7.197  13.634  10.178
52299SOL     OW58735  14.250   1.217  10.939
52299SOL    HW158736  14.243   1.284  10.871
52299SOL    HW258737  14.317   1.250  10.999
52300SOL     OW58738   4.258   4.578  13.413
52300SOL    HW158739   4.198   4.573  13.338
52300SOL    HW258740   4.216   4.525  13.480
52301SOL     OW58741   1.967   3.190   8.832
52301SOL    HW158742   1.891   3.140   8.862
52301SOL    HW258743   1.952   3.279   8.865
52302SOL     OW58744  12.321   8.404   3.851
52302SOL    HW158745  12.280   8.336   3.797
52302SOL    HW258746  12.343   8.474   3.790
52303SOL     OW58747   1.493   4.244   3.139
52303SOL    HW158748   1.580   4.251   3.099
52303SOL    HW258749   1.432   4.245   3.065
52304SOL     OW58750   2.936   8.429   1.523
52304SOL    HW158751   2.867   8.439   1.457
52304SOL    HW258752   2.927   8.339   1.554
52305SOL     OW58753   2.609   7.040   3.476
52305SOL    HW158754   2.687   7.029   3.530
52305SOL    HW258755   2.553   6.965   3.499
52306SOL     OW58756  13.095   8.826   7.871
52306SOL    HW158757  13.164   8.863   7.816
52306SOL    HW258758  13.075   8.895   7.934
52307SOL     OW58759   1.149  10.867   5.605
52307SOL    HW158760   1.216  10.924   5.642
52307SOL    HW258761   1.178  10.779   5.627
52308SOL     OW58762  13.982   7.706   6.540
52308SOL    HW158763  13.908   7.657   6.576
52308SOL    HW258764  13.942   7.768   6.479
52309SOL     OW58765   6.839  12.551   0.427
52309SOL    HW158766   6.933  12.538   0.414
52309SOL    HW258767   6.829  12.644   0.444
52310SOL     OW58768   4.811   9.009  10.254
52310SOL    HW158769   4.736   8.956  10.224
52310SOL    HW258770   4.886   8.970  10.210
52311SOL     OW58771   6.707  10.617  11.733
52311SOL    HW158772   6.670  10.696  11.773
52311SOL    HW258773   6.802  10.626  11.745
52312SOL     OW58774  13.222   4.730  10.639
52312SOL    HW158775  13.307   4.749  10.598
52312SOL    HW258776  13.164   4.714  10.565
52313SOL     OW58777   9.222   8.853   9.458
52313SOL    HW158778   9.151   8.818   9.405
52313SOL    HW258779   9.181   8.921   9.512
52314SOL     OW58780   6.708  13.909  13.499
52314SOL    HW158781   6.732  13.869  13.416
52314SOL    HW258782   6.674  13.837  13.551
52315SOL     OW58783  10.565   6.147  11.075
52315SOL    HW158784  10.512   6.072  11.050
52315SOL    HW258785  10.609   6.120  11.155
52316SOL     OW58786  13.018   4.538   3.901
52316SOL    HW158787  12.934   4.565   3.864
52316SOL    HW258788  13.083   4.568   3.837
52317SOL     OW58789  10.568   7.314   8.442
52317SOL    HW158790  10.602   7.273   8.522
52317SOL    HW258791  10.494   7.259   8.417
52318SOL     OW58792   3.288  12.354   0.937
52318SOL    HW158793   3.376  12.389   0.946
52318SOL    HW258794   3.282  12.286   1.004
52319SOL     OW58795  13.987   5.812  10.008
52319SOL    HW158796  14.002   5.892   9.959
52319SOL    HW258797  13.898   5.820  10.042
52320SOL     OW58798   6.476   8.350   6.241
52320SOL    HW158799   6.408   8.369   6.305
52320SOL    HW258800   6.439   8.278   6.188
52321SOL     OW58801   4.877   3.459   5.430
52321SOL    HW158802   4.943   3.419   5.488
52321SOL    HW258803   4.800   3.468   5.485
52322SOL     OW58804   8.388   4.957   4.839
52322SOL    HW158805   8.477   4.964   4.873
52322SOL    HW258806   8.352   5.046   4.848
52323SOL     OW58807   7.778   7.631  14.446
52323SOL    HW158808   7.741   7.697  14.387
52323SOL    HW258809   7.868   7.620  14.415
52324SOL     OW58810  11.482  10.593   7.343
52324SOL    HW158811  11.506  10.502   7.360
52324SOL    HW258812  11.425  10.589   7.266
52325SOL     OW58813   4.303   3.213   7.615
52325SOL    HW158814   4.209   3.202   7.620
52325SOL    HW258815   4.316   3.285   7.553
52326SOL     OW58816  12.199   9.769   7.005
52326SOL    HW158817  12.191   9.864   6.997
52326SOL    HW258818  12.254   9.755   7.082
52327SOL     OW58819   3.588   2.640   5.194
52327SOL    HW158820   3.668   2.594   5.168
52327SOL    HW258821   3.596   2.651   5.288
52328SOL     OW58822   2.753   9.801  12.929
52328SOL    HW158823   2.829   9.802  12.870
52328SOL    HW258824   2.697   9.872  12.896
52329SOL     OW58825   0.123  11.215  11.016
52329SOL    HW158826   0.129  11.310  11.027
52329SOL    HW258827   0.030  11.195  11.029
52330SOL     OW58828   8.187  13.418   4.117
52330SOL    HW158829   8.206  13.408   4.023
52330SOL    HW258830   8.225  13.340   4.157
52331SOL     OW58831   6.358   7.757   4.427
52331SOL    HW158832   6.377   7.670   4.392
52331SOL    HW258833   6.276   7.746   4.475
52332SOL     OW58834   2.345   7.730   8.334
52332SOL    HW158835   2.434   7.696   8.338
52332SOL    HW258836   2.296   7.677   8.396
52333SOL     OW58837   8.062   5.574  11.946
52333SOL    HW158838   8.061   5.605  11.856
52333SOL    HW258839   7.970   5.561  11.968
52334SOL     OW58840   4.578  10.010  12.217
52334SOL    HW158841   4.494  10.031  12.177
52334SOL    HW258842   4.555   9.974  12.303
52335SOL     OW58843   0.711   9.102   7.441
52335SOL    HW158844   0.742   9.029   7.387
52335SOL    HW258845   0.787   9.127   7.493
52336SOL     OW58846   3.399   6.686  14.834
52336SOL    HW158847   3.366   6.706   0.042
52336SOL    HW258848   3.482   6.641  14.849
52337SOL     OW58849  10.879   4.436   9.097
52337SOL    HW158850  10.973   4.453   9.093
52337SOL    HW258851  10.864   4.403   9.185
52338SOL     OW58852  14.103   4.242  11.602
52338SOL    HW158853  14.029   4.198  11.559
52338SOL    HW258854  14.160   4.269  11.529
52339SOL     OW58855   0.353   3.838  11.664
52339SOL    HW158856   0.264   3.835  11.700
52339SOL    HW258857   0.380   3.929  11.673
52340SOL     OW58858   4.069   3.668   5.291
52340SOL    HW158859   4.064   3.747   5.346
52340SOL    HW258860   4.161   3.659   5.269
52341SOL     OW58861  10.764  14.624   0.073
52341SOL    HW158862  10.834  14.681   0.042
52341SOL    HW258863  10.806  14.539   0.087
52342SOL     OW58864  10.142  11.994   9.070
52342SOL    HW158865  10.047  11.997   9.062
52342SOL    HW258866  10.172  11.961   8.985
52343SOL     OW58867   6.940   5.258   0.631
52343SOL    HW158868   7.020   5.209   0.649
52343SOL    HW258869   6.942   5.275   0.537
52344SOL     OW58870  12.392   0.186  12.705
52344SOL    HW158871  12.454   0.251  12.738
52344SOL    HW258872  12.396   0.195  12.610
52345SOL     OW58873   0.478  10.067   1.878
52345SOL    HW158874   0.393  10.032   1.904
52345SOL    HW258875   0.535  10.052   1.953
52346SOL     OW58876  12.804  10.277   8.975
52346SOL    HW158877  12.889  10.310   9.004
52346SOL    HW258878  12.765  10.239   9.053
52347SOL     OW58879   7.793   3.244   1.650
52347SOL    HW158880   7.768   3.337   1.648
52347SOL    HW258881   7.785   3.219   1.742
52348SOL     OW58882   4.894   9.853   1.594
52348SOL    HW158883   4.989   9.852   1.585
52348SOL    HW258884   4.867   9.937   1.555
52349SOL     OW58885  10.794  14.607   1.501
52349SOL    HW158886  10.797  14.534   1.563
52349SOL    HW258887  10.709  14.600   1.459
52350SOL     OW58888  13.014   5.075  10.463
52350SOL    HW158889  12.981   5.034  10.383
52350SOL    HW258890  12.964   5.033  10.534
52351SOL     OW58891   7.720   7.333   4.641
52351SOL    HW158892   7.696   7.252   4.686
52351SOL    HW258893   7.721   7.399   4.711
52352SOL     OW58894   3.676   2.633   2.630
52352SOL    HW158895   3.623   2.556   2.650
52352SOL    HW258896   3.766   2.604   2.644
52353SOL     OW58897  11.203  11.606   3.297
52353SOL    HW158898  11.289  11.564   3.297
52353SOL    HW258899  11.222  11.698   3.315
52354SOL     OW58900  13.779  12.057  11.350
52354SOL    HW158901  13.802  12.113  11.276
52354SOL    HW258902  13.748  11.976  11.310
52355SOL     OW58903  10.860   7.615   6.250
52355SOL    HW158904  10.918   7.562   6.194
52355SOL    HW258905  10.828   7.684   6.193
52356SOL     OW58906   6.069   9.199   5.133
52356SOL    HW158907   6.075   9.222   5.226
52356SOL    HW258908   6.158   9.169   5.110
52357SOL     OW58909   4.680   2.684   3.567
52357SOL    HW158910   4.589   2.714   3.568
52357SOL    HW258911   4.708   2.698   3.477
52358SOL     OW58912  11.326   7.180   2.727
52358SOL    HW158913  11.301   7.258   2.678
52358SOL    HW258914  11.392   7.137   2.674
52359SOL     OW58915  10.723   7.521   5.567
52359SOL    HW158916  10.651   7.467   5.599
52359SOL    HW258917  10.714   7.603   5.616
52360SOL     OW58918   0.555   3.396   0.775
52360SOL    HW158919   0.583   3.355   0.857
52360SOL    HW258920   0.499   3.469   0.802
52361SOL     OW58921   0.360   8.213  12.970
52361SOL    HW158922   0.367   8.283  12.905
52361SOL    HW258923   0.412   8.141  12.934
52362SOL     OW58924   3.261   8.147   3.888
52362SOL    HW158925   3.298   8.118   3.805
52362SOL    HW258926   3.167   8.148   3.873
52363SOL     OW58927   0.480   8.975   0.297
52363SOL    HW158928   0.561   8.995   0.344
52363SOL    HW258929   0.508   8.922   0.222
52364SOL     OW58930   0.612   4.111   4.929
52364SOL    HW158931   0.695   4.132   4.972
52364SOL    HW258932   0.545   4.146   4.988
52365SOL     OW58933   0.696   1.463   7.374
52365SOL    HW158934   0.723   1.473   7.283
52365SOL    HW258935   0.698   1.551   7.410
52366SOL     OW58936   6.757  14.706   0.992
52366SOL    HW158937   6.737  14.792   1.029
52366SOL    HW258938   6.791  14.724   0.905
52367SOL     OW58939   6.081  11.935  11.530
52367SOL    HW158940   6.003  11.982  11.559
52367SOL    HW258941   6.139  12.004  11.497
52368SOL     OW58942   7.752   4.636   4.059
52368SOL    HW158943   7.728   4.713   4.007
52368SOL    HW258944   7.838   4.658   4.097
52369SOL     OW58945   7.536  14.002  12.637
52369SOL    HW158946   7.554  13.935  12.702
52369SOL    HW258947   7.458  13.972  12.592
52370SOL     OW58948   4.628   3.684   2.165
52370SOL    HW158949   4.680   3.689   2.084
52370SOL    HW258950   4.543   3.650   2.137
52371SOL     OW58951  11.800  12.003  14.195
52371SOL    HW158952  11.801  12.008  14.291
52371SOL    HW258953  11.725  11.947  14.175
52372SOL     OW58954  14.570   0.260  13.232
52372SOL    HW158955  14.520   0.227  13.158
52372SOL    HW258956  14.641   0.197  13.243
52373SOL     OW58957   8.530   2.879   9.330
52373SOL    HW158958   8.551   2.786   9.333
52373SOL    HW258959   8.435   2.883   9.333
52374SOL     OW58960   0.452  12.010   3.803
52374SOL    HW158961   0.444  11.915   3.814
52374SOL    HW258962   0.403  12.047   3.876
52375SOL     OW58963  14.375   6.389  14.472
52375SOL    HW158964  14.392   6.436  14.553
52375SOL    HW258965  14.445   6.416  14.412
52376SOL     OW58966   2.003  14.455  12.736
52376SOL    HW158967   1.984  14.490  12.823
52376SOL    HW258968   2.017  14.362  12.750
52377SOL     OW58969  11.479   2.015   1.848
52377SOL    HW158970  11.440   2.012   1.760
52377SOL    HW258971  11.416   1.969   1.903
52378SOL     OW58972   6.722   6.901   0.055
52378SOL    HW158973   6.767   6.826   0.092
52378SOL    HW258974   6.642   6.910   0.107
52379SOL     OW58975   1.113  14.140   0.165
52379SOL    HW158976   1.126  14.132   0.070
52379SOL    HW258977   1.165  14.068   0.202
52380SOL     OW58978   4.775   1.757   1.833
52380SOL    HW158979   4.802   1.682   1.779
52380SOL    HW258980   4.815   1.833   1.790
52381SOL     OW58981   0.858   7.860   6.108
52381SOL    HW158982   0.859   7.768   6.137
52381SOL    HW258983   0.781   7.866   6.051
52382SOL     OW58984   0.943   3.326  10.279
52382SOL    HW158985   0.949   3.313  10.185
52382SOL    HW258986   0.859   3.287  10.303
52383SOL     OW58987   9.076   0.136  13.551
52383SOL    HW158988   9.029   0.072  13.497
52383SOL    HW258989   9.115   0.197  13.488
52384SOL     OW58990  12.698  10.075   0.008
52384SOL    HW158991  12.660  10.095   0.094
52384SOL    HW258992  12.634  10.019  14.845
52385SOL     OW58993   2.613   0.085   0.072
52385SOL    HW158994   2.703   0.053   0.077
52385SOL    HW258995   2.568   0.021   0.016
52386SOL     OW58996   8.107  10.461   0.066
52386SOL    HW158997   8.185  10.508   0.096
52386SOL    HW258998   8.129  10.429  14.858
52387SOL     OW58999   3.655  13.951   6.337
52387SOL    HW159000   3.738  13.902   6.336
52387SOL    HW259001   3.640  13.973   6.245
52388SOL     OW59002   9.482  14.670   5.942
52388SOL    HW159003   9.528  14.627   5.870
52388SOL    HW259004   9.498  14.763   5.928
52389SOL     OW59005   7.711   1.464  11.421
52389SOL    HW159006   7.727   1.482  11.328
52389SOL    HW259007   7.723   1.370  11.430
52390SOL     OW59008   2.361  11.404   8.909
52390SOL    HW159009   2.396  11.404   8.998
52390SOL    HW259010   2.428  11.361   8.857
52391SOL     OW59011   4.643  10.546  14.640
52391SOL    HW159012   4.654  10.591  14.723
52391SOL    HW259013   4.602  10.611  14.583
52392SOL     OW59014  11.709  14.463   9.875
52392SOL    HW159015  11.719  14.368   9.890
52392SOL    HW259016  11.649  14.470   9.801
52393SOL     OW59017   7.653   8.591   0.368
52393SOL    HW159018   7.580   8.645   0.399
52393SOL    HW259019   7.727   8.618   0.423
52394SOL     OW59020  13.809   1.640   9.922
52394SOL    HW159021  13.747   1.631   9.994
52394SOL    HW259022  13.760   1.684   9.853
52395SOL     OW59023  11.349   7.375   6.686
52395SOL    HW159024  11.369   7.406   6.598
52395SOL    HW259025  11.275   7.315   6.674
52396SOL     OW59026   4.083  12.871   3.284
52396SOL    HW159027   4.058  12.780   3.265
52396SOL    HW259028   4.072  12.917   3.201
52397SOL     OW59029   7.911  10.589   3.161
52397SOL    HW159030   7.988  10.645   3.160
52397SOL    HW259031   7.893  10.573   3.254
52398SOL     OW59032   4.767  13.471  13.999
52398SOL    HW159033   4.700  13.517  13.950
52398SOL    HW259034   4.785  13.528  14.074
52399SOL     OW59035  11.547   6.529  12.306
52399SOL    HW159036  11.537   6.615  12.266
52399SOL    HW259037  11.526   6.542  12.398
52400SOL     OW59038   4.300  13.180  12.208
52400SOL    HW159039   4.264  13.124  12.139
52400SOL    HW259040   4.395  13.176  12.195
52401SOL     OW59041  13.049  11.838   6.829
52401SOL    HW159042  13.001  11.822   6.910
52401SOL    HW259043  13.140  11.848   6.856
52402SOL     OW59044   0.170   5.951   6.535
52402SOL    HW159045   0.217   6.009   6.476
52402SOL    HW259046   0.119   5.894   6.478
52403SOL     OW59047   6.689   1.995  13.724
52403SOL    HW159048   6.754   1.944  13.772
52403SOL    HW259049   6.706   2.085  13.749
52404SOL     OW59050   6.953   7.983   2.387
52404SOL    HW159051   6.905   8.004   2.467
52404SOL    HW259052   6.938   7.890   2.373
52405SOL     OW59053   2.833  11.855   8.447
52405SOL    HW159054   2.802  11.786   8.388
52405SOL    HW259055   2.788  11.934   8.418
52406SOL     OW59056  11.280   9.340  13.355
52406SOL    HW159057  11.256   9.350  13.263
52406SOL    HW259058  11.221   9.398  13.402
52407SOL     OW59059   9.006   4.474   5.896
52407SOL    HW159060   8.992   4.382   5.871
52407SOL    HW259061   9.082   4.472   5.953
52408SOL     OW59062  13.002   8.650  12.215
52408SOL    HW159063  13.035   8.736  12.243
52408SOL    HW259064  12.951   8.619  12.289
52409SOL     OW59065   4.283  12.121   6.450
52409SOL    HW159066   4.367  12.154   6.417
52409SOL    HW259067   4.295  12.119   6.545
52410SOL     OW59068   9.079   2.094   0.661
52410SOL    HW159069   9.036   2.156   0.603
52410SOL    HW259070   9.011   2.068   0.723
52411SOL     OW59071   9.944  12.299   4.675
52411SOL    HW159072   9.912  12.210   4.658
52411SOL    HW259073   9.903  12.353   4.607
52412SOL     OW59074   6.546   0.167  11.866
52412SOL    HW159075   6.485   0.093  11.870
52412SOL    HW259076   6.527   0.209  11.782
52413SOL     OW59077   7.164   2.421  14.862
52413SOL    HW159078   7.237   2.373  14.821
52413SOL    HW259079   7.189   2.428   0.074
52414SOL     OW59080   9.543  11.674   8.350
52414SOL    HW159081   9.622  11.627   8.379
52414SOL    HW259082   9.537  11.654   8.256
52415SOL     OW59083   1.110   6.249   3.695
52415SOL    HW159084   1.048   6.180   3.671
52415SOL    HW259085   1.196   6.214   3.668
52416SOL     OW59086   7.493   6.166   7.432
52416SOL    HW159087   7.477   6.081   7.474
52416SOL    HW259088   7.553   6.211   7.492
52417SOL     OW59089   0.097  13.981   1.784
52417SOL    HW159090   0.071  13.965   1.875
52417SOL    HW259091   0.054  14.063   1.761
52418SOL     OW59092   2.668  12.918   9.600
52418SOL    HW159093   2.754  12.924   9.558
52418SOL    HW259094   2.687  12.895   9.691
52419SOL     OW59095  10.906   3.038   8.788
52419SOL    HW159096  10.997   3.036   8.815
52419SOL    HW259097  10.888   2.949   8.757
52420SOL     OW59098  11.016   9.813   0.477
52420SOL    HW159099  10.952   9.832   0.409
52420SOL    HW259100  11.063   9.736   0.445
52421SOL     OW59101   1.586  11.408  10.706
52421SOL    HW159102   1.608  11.447  10.791
52421SOL    HW259103   1.662  11.426  10.651
52422SOL     OW59104  11.919   8.850  14.597
52422SOL    HW159105  11.972   8.792  14.652
52422SOL    HW259106  11.835   8.804  14.588
52423SOL     OW59107  13.983   3.228   2.477
52423SOL    HW159108  14.050   3.271   2.424
52423SOL    HW259109  13.998   3.135   2.465
52424SOL     OW59110   1.726   7.613   8.865
52424SOL    HW159111   1.732   7.583   8.956
52424SOL    HW259112   1.811   7.592   8.827
52425SOL     OW59113   5.702  10.317   4.799
52425SOL    HW159114   5.752  10.365   4.732
52425SOL    HW259115   5.623  10.288   4.753
52426SOL     OW59116  10.866   8.355   1.851
52426SOL    HW159117  10.852   8.445   1.878
52426SOL    HW259118  10.904   8.312   1.927
52427SOL     OW59119   6.872   5.943  10.732
52427SOL    HW159120   6.923   5.951  10.651
52427SOL    HW259121   6.781   5.957  10.706
52428SOL     OW59122  11.478   0.119   3.500
52428SOL    HW159123  11.531   0.188   3.540
52428SOL    HW259124  11.453   0.062   3.574
52429SOL     OW59125   0.411   9.094   3.428
52429SOL    HW159126   0.322   9.059   3.435
52429SOL    HW259127   0.468   9.021   3.453
52430SOL     OW59128   7.729   3.232   0.634
52430SOL    HW159129   7.772   3.297   0.578
52430SOL    HW259130   7.659   3.281   0.678
52431SOL     OW59131   7.381   3.774  12.276
52431SOL    HW159132   7.360   3.705  12.339
52431SOL    HW259133   7.466   3.808  12.305
52432SOL     OW59134  11.308   2.853   5.654
52432SOL    HW159135  11.356   2.851   5.572
52432SOL    HW259136  11.307   2.945   5.679
52433SOL     OW59137  12.164   0.517   5.577
52433SOL    HW159138  12.124   0.554   5.498
52433SOL    HW259139  12.090   0.496   5.634
52434SOL     OW59140   6.181   0.813  13.481
52434SOL    HW159141   6.089   0.817  13.510
52434SOL    HW259142   6.179   0.754  13.406
52435SOL     OW59143   8.980   9.361   6.729
52435SOL    HW159144   9.014   9.449   6.744
52435SOL    HW259145   9.003   9.312   6.808
52436SOL     OW59146   2.105   8.109   8.664
52436SOL    HW159147   2.152   8.193   8.656
52436SOL    HW259148   2.015   8.134   8.685
52437SOL     OW59149   7.207   3.543   3.883
52437SOL    HW159150   7.119   3.534   3.921
52437SOL    HW259151   7.236   3.630   3.910
52438SOL     OW59152  13.279  11.653  10.573
52438SOL    HW159153  13.292  11.723  10.638
52438SOL    HW259154  13.358  11.598  10.582
52439SOL     OW59155  13.664   0.755   8.518
52439SOL    HW159156  13.746   0.717   8.488
52439SOL    HW259157  13.657   0.729   8.610
52440SOL     OW59158   6.632   6.576   8.407
52440SOL    HW159159   6.608   6.550   8.496
52440SOL    HW259160   6.556   6.624   8.375
52441SOL     OW59161   8.553   7.717   5.167
52441SOL    HW159162   8.618   7.647   5.169
52441SOL    HW259163   8.563   7.761   5.252
52442SOL     OW59164   5.021  14.163   4.434
52442SOL    HW159165   4.954  14.230   4.431
52442SOL    HW259166   5.053  14.165   4.525
52443SOL     OW59167   0.851  12.379  12.824
52443SOL    HW159168   0.783  12.412  12.766
52443SOL    HW259169   0.919  12.446  12.823
52444SOL     OW59170  13.308  13.638   1.451
52444SOL    HW159171  13.388  13.615   1.500
52444SOL    HW259172  13.337  13.702   1.386
52445SOL     OW59173  10.212   9.094  11.858
52445SOL    HW159174  10.275   9.165  11.848
52445SOL    HW259175  10.250   9.021  11.808
52446SOL     OW59176   2.924   1.949  14.053
52446SOL    HW159177   2.962   1.863  14.065
52446SOL    HW259178   2.846   1.949  14.108
52447SOL     OW59179  11.172   2.073  14.378
52447SOL    HW159180  11.156   2.081  14.285
52447SOL    HW259181  11.163   1.979  14.397
52448SOL     OW59182  14.096   7.156   4.610
52448SOL    HW159183  14.103   7.183   4.518
52448SOL    HW259184  14.186   7.161   4.644
52449SOL     OW59185   6.341   9.223   4.452
52449SOL    HW159186   6.319   9.316   4.459
52449SOL    HW259187   6.362   9.196   4.541
52450SOL     OW59188  13.044  10.622  10.658
52450SOL    HW159189  13.047  10.707  10.614
52450SOL    HW259190  13.003  10.564  10.595
52451SOL     OW59191   4.648   2.819   5.157
52451SOL    HW159192   4.581   2.832   5.224
52451SOL    HW259193   4.642   2.896   5.101
52452SOL     OW59194   6.288  14.734   7.809
52452SOL    HW159195   6.351  14.693   7.868
52452SOL    HW259196   6.282  14.674   7.734
52453SOL     OW59197  10.776   7.109   3.551
52453SOL    HW159198  10.839   7.180   3.560
52453SOL    HW259199  10.709   7.128   3.617
52454SOL     OW59200  11.982   2.112   3.590
52454SOL    HW159201  12.020   2.048   3.530
52454SOL    HW259202  11.937   2.060   3.656
52455SOL     OW59203   6.274   2.857   2.199
52455SOL    HW159204   6.249   2.910   2.274
52455SOL    HW259205   6.249   2.909   2.123
52456SOL     OW59206  14.362  10.631   8.021
52456SOL    HW159207  14.338  10.568   8.089
52456SOL    HW259208  14.307  10.608   7.946
52457SOL     OW59209   7.357  13.093  10.369
52457SOL    HW159210   7.408  13.158  10.321
52457SOL    HW259211   7.418  13.021  10.385
52458SOL     OW59212  11.083  12.477   1.060
52458SOL    HW159213  11.059  12.497   0.970
52458SOL    HW259214  11.015  12.416   1.090
52459SOL     OW59215  12.611  14.733   1.236
52459SOL    HW159216  12.662  14.713   1.157
52459SOL    HW259217  12.656  14.686   1.306
52460SOL     OW59218   5.608   5.254   1.350
52460SOL    HW159219   5.584   5.271   1.441
52460SOL    HW259220   5.632   5.161   1.348
52461SOL     OW59221   5.641  11.060   8.472
52461SOL    HW159222   5.661  11.128   8.407
52461SOL    HW259223   5.709  10.995   8.460
52462SOL     OW59224   9.968   8.560   4.085
52462SOL    HW159225   9.896   8.618   4.058
52462SOL    HW259226   9.943   8.530   4.172
52463SOL     OW59227   4.281   6.470   9.557
52463SOL    HW159228   4.347   6.401   9.557
52463SOL    HW259229   4.224   6.449   9.631
52464SOL     OW59230   9.856   8.280  13.937
52464SOL    HW159231   9.855   8.374  13.918
52464SOL    HW259232   9.838   8.239  13.853
52465SOL     OW59233   8.581  12.812   3.068
52465SOL    HW159234   8.648  12.849   3.011
52465SOL    HW259235   8.590  12.862   3.149
52466SOL     OW59236  14.374   7.595  14.196
52466SOL    HW159237  14.279   7.607  14.190
52466SOL    HW259238  14.410   7.653  14.129
52467SOL     OW59239   0.320  13.017   3.387
52467SOL    HW159240   0.226  13.021   3.370
52467SOL    HW259241   0.333  12.934   3.433
52468SOL     OW59242  12.489  12.864  10.809
52468SOL    HW159243  12.561  12.876  10.748
52468SOL    HW259244  12.468  12.771  10.804
52469SOL     OW59245   0.823   8.036  11.836
52469SOL    HW159246   0.860   8.016  11.750
52469SOL    HW259247   0.898   8.048  11.893
52470SOL     OW59248   7.299   3.932  12.052
52470SOL    HW159249   7.376   3.975  12.014
52470SOL    HW259250   7.335   3.862  12.106
52471SOL     OW59251  13.465   7.522   6.055
52471SOL    HW159252  13.483   7.608   6.093
52471SOL    HW259253  13.550   7.490   6.025
52472SOL     OW59254   6.873  14.757   2.696
52472SOL    HW159255   6.928  14.836   2.689
52472SOL    HW259256   6.806  14.781   2.761
52473SOL     OW59257   2.721   4.030  14.547
52473SOL    HW159258   2.800   3.994  14.588
52473SOL    HW259259   2.755   4.081  14.473
52474SOL     OW59260   0.773  13.024   0.112
52474SOL    HW159261   0.775  12.958   0.182
52474SOL    HW259262   0.799  12.976   0.033
52475SOL     OW59263   5.014   1.470   9.884
52475SOL    HW159264   4.999   1.545   9.826
52475SOL    HW259265   5.099   1.436   9.857
52476SOL     OW59266   3.309   1.380  14.713
52476SOL    HW159267   3.320   1.340  14.799
52476SOL    HW259268   3.271   1.310  14.659
52477SOL     OW59269   7.940  10.205  14.036
52477SOL    HW159270   7.967  10.123  13.995
52477SOL    HW259271   7.847  10.192  14.056
52478SOL     OW59272   8.086  13.608  13.748
52478SOL    HW159273   8.063  13.673  13.681
52478SOL    HW259274   8.022  13.538  13.735
52479SOL     OW59275  13.140   0.131   8.242
52479SOL    HW159276  13.208   0.130   8.310
52479SOL    HW259277  13.166   0.202   8.184
52480SOL     OW59278   4.751   9.085  10.989
52480SOL    HW159279   4.821   9.043  11.039
52480SOL    HW259280   4.792   9.163  10.952
52481SOL     OW59281  12.622   0.400   1.256
52481SOL    HW159282  12.642   0.307   1.246
52481SOL    HW259283  12.701   0.445   1.225
52482SOL     OW59284  14.256   6.831  13.958
52482SOL    HW159285  14.232   6.809  14.048
52482SOL    HW259286  14.189   6.893  13.930
52483SOL     OW59287   3.723   4.319   7.054
52483SOL    HW159288   3.804   4.334   7.004
52483SOL    HW259289   3.711   4.224   7.052
52484SOL     OW59290  14.154   2.545   8.876
52484SOL    HW159291  14.116   2.578   8.957
52484SOL    HW259292  14.232   2.498   8.904
52485SOL     OW59293   2.607   9.037  11.297
52485SOL    HW159294   2.596   8.946  11.325
52485SOL    HW259295   2.518   9.067  11.280
52486SOL     OW59296   9.890   4.519  13.580
52486SOL    HW159297   9.853   4.542  13.496
52486SOL    HW259298   9.971   4.570  13.586
52487SOL     OW59299   2.974  12.340   6.647
52487SOL    HW159300   2.995  12.291   6.727
52487SOL    HW259301   2.930  12.419   6.678
52488SOL     OW59302   8.050  11.797   2.123
52488SOL    HW159303   7.991  11.754   2.185
52488SOL    HW259304   8.024  11.763   2.037
52489SOL     OW59305   1.492  14.097   1.095
52489SOL    HW159306   1.403  14.115   1.122
52489SOL    HW259307   1.483  14.033   1.024
52490SOL     OW59308   1.120  12.760   0.398
52490SOL    HW159309   1.149  12.784   0.310
52490SOL    HW259310   1.196  12.778   0.454
52491SOL     OW59311   1.757  14.701  12.444
52491SOL    HW159312   1.695  14.757  12.399
52491SOL    HW259313   1.842  14.742  12.429
52492SOL     OW59314   9.846   5.661   0.574
52492SOL    HW159315   9.914   5.721   0.605
52492SOL    HW259316   9.890   5.606   0.509
52493SOL     OW59317   1.229   0.313   1.558
52493SOL    HW159318   1.231   0.379   1.488
52493SOL    HW259319   1.185   0.357   1.630
52494SOL     OW59320   8.478   6.754   7.238
52494SOL    HW159321   8.484   6.734   7.332
52494SOL    HW259322   8.569   6.758   7.209
52495SOL     OW59323  14.643  14.392   9.830
52495SOL    HW159324  14.619  14.429   9.915
52495SOL    HW259325  14.585  14.317   9.819
52496SOL     OW59326   1.347  11.507  13.928
52496SOL    HW159327   1.302  11.425  13.945
52496SOL    HW259328   1.440  11.486  13.940
52497SOL     OW59329  10.735  10.471   0.487
52497SOL    HW159330  10.810  10.438   0.437
52497SOL    HW259331  10.704  10.546   0.436
52498SOL     OW59332  13.260   4.539  11.078
52498SOL    HW159333  13.269   4.629  11.112
52498SOL    HW259334  13.204   4.496  11.142
52499SOL     OW59335  11.332  14.759   9.551
52499SOL    HW159336  11.364  14.691   9.492
52499SOL    HW259337  11.239  14.769   9.528
52500SOL     OW59338  11.372   3.817   5.533
52500SOL    HW159339  11.354   3.900   5.578
52500SOL    HW259340  11.286   3.786   5.506
52501SOL     OW59341   6.215   6.020   3.821
52501SOL    HW159342   6.157   6.094   3.835
52501SOL    HW259343   6.229   5.983   3.908
52502SOL     OW59344   6.836   1.918   8.967
52502SOL    HW159345   6.879   1.839   9.000
52502SOL    HW259346   6.883   1.990   9.009
52503SOL     OW59347   3.512   1.521  10.731
52503SOL    HW159348   3.500   1.519  10.826
52503SOL    HW259349   3.424   1.514  10.695
52504SOL     OW59350   2.067   3.174  10.016
52504SOL    HW159351   2.076   3.111  10.087
52504SOL    HW259352   2.020   3.125   9.947
52505SOL     OW59353   7.322   5.083   4.798
52505SOL    HW159354   7.249   5.137   4.769
52505SOL    HW259355   7.400   5.134   4.777
52506SOL     OW59356   4.988   3.887  14.717
52506SOL    HW159357   4.969   3.981  14.722
52506SOL    HW259358   5.037   3.869  14.797
52507SOL     OW59359  13.004   0.789  12.346
52507SOL    HW159360  12.954   0.723  12.297
52507SOL    HW259361  13.096   0.768  12.327
52508SOL     OW59362   0.845  13.189   1.684
52508SOL    HW159363   0.805  13.232   1.759
52508SOL    HW259364   0.771  13.154   1.634
52509SOL     OW59365  11.096   6.424  12.712
52509SOL    HW159366  11.086   6.365  12.787
52509SOL    HW259367  11.016   6.412  12.661
52510SOL     OW59368   8.893   3.521   7.133
52510SOL    HW159369   8.866   3.613   7.126
52510SOL    HW259370   8.814   3.471   7.111
52511SOL     OW59371   5.380   0.889   3.436
52511SOL    HW159372   5.348   0.920   3.351
52511SOL    HW259373   5.356   0.958   3.498
52512SOL     OW59374  12.673   6.199  10.737
52512SOL    HW159375  12.697   6.245  10.656
52512SOL    HW259376  12.727   6.120  10.735
52513SOL     OW59377  11.494   4.319   8.448
52513SOL    HW159378  11.412   4.280   8.478
52513SOL    HW259379  11.479   4.414   8.455
52514SOL     OW59380   5.029   9.626   2.420
52514SOL    HW159381   5.085   9.697   2.452
52514SOL    HW259382   5.025   9.640   2.325
52515SOL     OW59383  11.765   5.831   2.604
52515SOL    HW159384  11.860   5.839   2.602
52515SOL    HW259385  11.733   5.909   2.558
52516SOL     OW59386   3.021   9.227   7.730
52516SOL    HW159387   3.002   9.229   7.636
52516SOL    HW259388   3.005   9.136   7.756
52517SOL     OW59389  13.435   8.361  13.930
52517SOL    HW159390  13.464   8.395  13.846
52517SOL    HW259391  13.383   8.432  13.968
52518SOL     OW59392  12.772  14.767   1.010
52518SOL    HW159393  12.739  14.796   0.925
52518SOL    HW259394  12.867  14.765   0.999
52519SOL     OW59395  13.025   8.829   9.837
52519SOL    HW159396  13.110   8.790   9.856
52519SOL    HW259397  12.986   8.845   9.923
52520SOL     OW59398  12.165   7.084  11.142
52520SOL    HW159399  12.143   7.150  11.207
52520SOL    HW259400  12.185   7.134  11.063
52521SOL     OW59401   9.602  10.853   0.258
52521SOL    HW159402   9.685  10.884   0.294
52521SOL    HW259403   9.620  10.839   0.165
52522SOL     OW59404   2.653   6.960   0.521
52522SOL    HW159405   2.671   6.866   0.527
52522SOL    HW259406   2.712   7.000   0.584
52523SOL     OW59407   7.495   4.055  11.288
52523SOL    HW159408   7.475   4.025  11.199
52523SOL    HW259409   7.562   4.122  11.276
52524SOL     OW59410   9.224   7.074   0.767
52524SOL    HW159411   9.157   7.110   0.825
52524SOL    HW259412   9.306   7.082   0.816
52525SOL     OW59413   9.530  12.776   5.152
52525SOL    HW159414   9.508  12.780   5.245
52525SOL    HW259415   9.487  12.853   5.115
52526SOL     OW59416  10.295   6.433   0.556
52526SOL    HW159417  10.209   6.462   0.586
52526SOL    HW259418  10.282   6.413   0.463
52527SOL     OW59419   3.986  13.894  10.528
52527SOL    HW159420   3.967  13.809  10.489
52527SOL    HW259421   3.927  13.900  10.603
52528SOL     OW59422   1.490  12.331  11.259
52528SOL    HW159423   1.568  12.375  11.293
52528SOL    HW259424   1.461  12.275  11.331
52529SOL     OW59425   9.119  12.852  14.499
52529SOL    HW159426   9.177  12.844  14.424
52529SOL    HW259427   9.079  12.766  14.508
52530SOL     OW59428  10.081  11.024  13.226
52530SOL    HW159429  10.051  11.109  13.258
52530SOL    HW259430  10.146  10.995  13.289
52531SOL     OW59431   1.143  12.376   1.658
52531SOL    HW159432   1.075  12.438   1.632
52531SOL    HW259433   1.225  12.423   1.644
52532SOL     OW59434   9.154   6.591   3.180
52532SOL    HW159435   9.208   6.549   3.114
52532SOL    HW259436   9.155   6.684   3.156
52533SOL     OW59437  13.590   7.009  14.356
52533SOL    HW159438  13.528   6.938  14.338
52533SOL    HW259439  13.550   7.057  14.429
52534SOL     OW59440   2.744   4.697  12.349
52534SOL    HW159441   2.661   4.668  12.311
52534SOL    HW259442   2.749   4.651  12.433
52535SOL     OW59443  11.749   4.057   8.365
52535SOL    HW159444  11.687   4.017   8.303
52535SOL    HW259445  11.750   4.150   8.341
52536SOL     OW59446   1.847  13.544   2.217
52536SOL    HW159447   1.926  13.516   2.171
52536SOL    HW259448   1.819  13.467   2.265
52537SOL     OW59449   2.847  14.618   1.143
52537SOL    HW159450   2.841  14.677   1.218
52537SOL    HW259451   2.814  14.534   1.175
52538SOL     OW59452   7.732   1.347  10.143
52538SOL    HW159453   7.802   1.398  10.185
52538SOL    HW259454   7.681   1.411  10.095
52539SOL     OW59455   8.539   0.374   3.079
52539SOL    HW159456   8.619   0.413   3.114
52539SOL    HW259457   8.469   0.432   3.108
52540SOL     OW59458  10.182   0.018   8.188
52540SOL    HW159459  10.150  14.878   8.100
52540SOL    HW259460  10.277   0.024   8.177
52541SOL     OW59461  12.542   0.231   2.750
52541SOL    HW159462  12.634   0.204   2.740
52541SOL    HW259463  12.493   0.172   2.693
52542SOL     OW59464   0.273  10.384   7.137
52542SOL    HW159465   0.235  10.321   7.076
52542SOL    HW259466   0.330  10.332   7.193
52543SOL     OW59467   3.978   3.031  12.097
52543SOL    HW159468   4.027   3.068  12.023
52543SOL    HW259469   3.897   2.997  12.058
52544SOL     OW59470   5.259  12.529   0.025
52544SOL    HW159471   5.337  12.499   0.071
52544SOL    HW259472   5.208  12.449   0.010
52545SOL     OW59473   8.024   8.085   7.968
52545SOL    HW159474   8.053   8.130   7.889
52545SOL    HW259475   8.089   8.015   7.981
52546SOL     OW59476   7.896  12.517   0.671
52546SOL    HW159477   7.963  12.486   0.732
52546SOL    HW259478   7.830  12.448   0.670
52547SOL     OW59479   7.908  13.324   3.472
52547SOL    HW159480   7.830  13.296   3.521
52547SOL    HW259481   7.886  13.411   3.439
52548SOL     OW59482   7.366  12.636  12.887
52548SOL    HW159483   7.313  12.681  12.821
52548SOL    HW259484   7.425  12.580  12.836
52549SOL     OW59485   9.621   2.562   6.153
52549SOL    HW159486   9.555   2.626   6.125
52549SOL    HW259487   9.576   2.478   6.148
52550SOL     OW59488  13.822   7.015   7.518
52550SOL    HW159489  13.832   7.107   7.543
52550SOL    HW259490  13.836   6.966   7.599
52551SOL     OW59491   9.291  12.105  12.607
52551SOL    HW159492   9.258  12.154  12.683
52551SOL    HW259493   9.224  12.038  12.591
52552SOL     OW59494  12.093   3.379   9.060
52552SOL    HW159495  12.188   3.373   9.065
52552SOL    HW259496  12.072   3.468   9.088
52553SOL     OW59497  12.509   3.792  13.873
52553SOL    HW159498  12.587   3.816  13.923
52553SOL    HW259499  12.527   3.822  13.784
52554SOL     OW59500  12.813  13.533   2.098
52554SOL    HW159501  12.756  13.579   2.037
52554SOL    HW259502  12.820  13.592   2.174
52555SOL     OW59503   1.533   9.766  13.538
52555SOL    HW159504   1.505   9.686  13.493
52555SOL    HW259505   1.451   9.811  13.560
52556SOL     OW59506   1.089   6.644   2.137
52556SOL    HW159507   1.135   6.561   2.143
52556SOL    HW259508   1.156   6.708   2.112
52557SOL     OW59509   5.208   3.032   2.163
52557SOL    HW159510   5.134   3.016   2.221
52557SOL    HW259511   5.252   3.108   2.201
52558SOL     OW59512   8.060   5.758   3.894
52558SOL    HW159513   8.042   5.729   3.984
52558SOL    HW259514   7.975   5.752   3.850
52559SOL     OW59515   5.914   1.142   5.159
52559SOL    HW159516   5.994   1.089   5.161
52559SOL    HW259517   5.935   1.217   5.104
52560SOL     OW59518   1.304   6.938   1.565
52560SOL    HW159519   1.338   6.990   1.492
52560SOL    HW259520   1.215   6.970   1.578
52561SOL     OW59521   1.808   8.778  10.514
52561SOL    HW159522   1.794   8.742  10.602
52561SOL    HW259523   1.720   8.794  10.480
52562SOL     OW59524  10.446  13.443  10.924
52562SOL    HW159525  10.371  13.385  10.912
52562SOL    HW259526  10.476  13.462  10.835
52563SOL     OW59527  11.357  12.026   7.996
52563SOL    HW159528  11.305  12.017   8.076
52563SOL    HW259529  11.292  12.027   7.926
52564SOL     OW59530  11.706  11.346  14.050
52564SOL    HW159531  11.781  11.367  14.105
52564SOL    HW259532  11.656  11.427  14.046
52565SOL     OW59533  13.940   1.861  11.666
52565SOL    HW159534  14.024   1.907  11.670
52565SOL    HW259535  13.880   1.923  11.624
52566SOL     OW59536  10.692   7.215   9.230
52566SOL    HW159537  10.627   7.148   9.252
52566SOL    HW259538  10.774   7.167   9.220
52567SOL     OW59539   4.856   1.761  14.072
52567SOL    HW159540   4.906   1.843  14.077
52567SOL    HW259541   4.768   1.784  14.100
52568SOL     OW59542  14.616  11.299   5.593
52568SOL    HW159543  14.533  11.258   5.617
52568SOL    HW259544  14.682  11.232   5.610
52569SOL     OW59545   5.022   3.934   5.097
52569SOL    HW159546   4.933   3.904   5.079
52569SOL    HW259547   5.065   3.935   5.011
52570SOL     OW59548   9.494   6.116  14.732
52570SOL    HW159549   9.441   6.066  14.671
52570SOL    HW259550   9.582   6.112  14.696
52571SOL     OW59551   8.081   1.237  12.263
52571SOL    HW159552   8.111   1.208  12.177
52571SOL    HW259553   8.005   1.292  12.244
52572SOL     OW59554   5.521  10.927   0.904
52572SOL    HW159555   5.616  10.918   0.912
52572SOL    HW259556   5.492  10.845   0.862
52573SOL     OW59557   9.361  10.642  12.983
52573SOL    HW159558   9.385  10.724  13.027
52573SOL    HW259559   9.405  10.648  12.898
52574SOL     OW59560   7.204   0.247  11.311
52574SOL    HW159561   7.180   0.268  11.221
52574SOL    HW259562   7.141   0.179  11.337
52575SOL     OW59563  11.256   7.671   3.604
52575SOL    HW159564  11.276   7.641   3.516
52575SOL    HW259565  11.251   7.766   3.597
52576SOL     OW59566   1.638   2.503  11.845
52576SOL    HW159567   1.596   2.459  11.918
52576SOL    HW259568   1.730   2.477  11.850
52577SOL     OW59569   9.468  13.860   6.463
52577SOL    HW159570   9.551  13.876   6.508
52577SOL    HW259571   9.489  13.795   6.396
52578SOL     OW59572  14.733  13.464   9.348
52578SOL    HW159573  14.676  13.541   9.350
52578SOL    HW259574  14.771  13.460   9.435
52579SOL     OW59575  11.112   9.301  14.158
52579SOL    HW159576  11.135   9.385  14.198
52579SOL    HW259577  11.020   9.288  14.180
52580SOL     OW59578  12.391   3.116   3.312
52580SOL    HW159579  12.478   3.136   3.277
52580SOL    HW259580  12.339   3.195   3.293
52581SOL     OW59581  12.589   7.794   6.160
52581SOL    HW159582  12.516   7.855   6.169
52581SOL    HW259583  12.551   7.708   6.179
52582SOL     OW59584   1.459  14.013   3.650
52582SOL    HW159585   1.478  13.931   3.695
52582SOL    HW259586   1.454  13.990   3.558
52583SOL     OW59587  12.726   8.223  11.133
52583SOL    HW159588  12.713   8.289  11.065
52583SOL    HW259589  12.734   8.274  11.214
52584SOL     OW59590  12.820   1.796   8.630
52584SOL    HW159591  12.818   1.742   8.708
52584SOL    HW259592  12.910   1.827   8.624
52585SOL     OW59593   1.865   9.228  12.260
52585SOL    HW159594   1.921   9.150  12.269
52585SOL    HW259595   1.851   9.257  12.351
52586SOL     OW59596   1.907   8.009  12.345
52586SOL    HW159597   1.856   7.998  12.265
52586SOL    HW259598   1.967   8.081  12.325
52587SOL     OW59599   1.287  13.723   8.720
52587SOL    HW159600   1.229  13.707   8.646
52587SOL    HW259601   1.242  13.686   8.795
52588SOL     OW59602   4.539  11.768   4.050
52588SOL    HW159603   4.570  11.800   3.965
52588SOL    HW259604   4.576  11.680   4.058
52589SOL     OW59605  12.421   3.772   6.184
52589SOL    HW159606  12.432   3.858   6.224
52589SOL    HW259607  12.379   3.719   6.253
52590SOL     OW59608   4.812   8.280   3.807
52590SOL    HW159609   4.753   8.313   3.875
52590SOL    HW259610   4.874   8.225   3.855
52591SOL     OW59611   9.197   1.558   6.461
52591SOL    HW159612   9.244   1.627   6.414
52591SOL    HW259613   9.106   1.586   6.461
52592SOL     OW59614   4.644   2.680   1.802
52592SOL    HW159615   4.709   2.611   1.790
52592SOL    HW259616   4.597   2.683   1.718
52593SOL     OW59617   1.554   2.795   4.320
52593SOL    HW159618   1.635   2.744   4.325
52593SOL    HW259619   1.501   2.749   4.255
52594SOL     OW59620   1.232   4.324  14.699
52594SOL    HW159621   1.244   4.248  14.643
52594SOL    HW259622   1.153   4.304  14.749
52595SOL     OW59623   2.682   3.001  10.627
52595SOL    HW159624   2.744   2.930  10.613
52595SOL    HW259625   2.649   3.023  10.540
52596SOL     OW59626   8.428   3.802  12.739
52596SOL    HW159627   8.471   3.841  12.815
52596SOL    HW259628   8.500   3.785  12.677
52597SOL     OW59629  14.491  12.783  12.837
52597SOL    HW159630  14.500  12.866  12.884
52597SOL    HW259631  14.571  12.735  12.857
52598SOL     OW59632   8.387   3.589   9.038
52598SOL    HW159633   8.402   3.628   8.952
52598SOL    HW259634   8.293   3.598   9.053
52599SOL     OW59635   6.021  12.171   3.842
52599SOL    HW159636   6.019  12.168   3.746
52599SOL    HW259637   6.023  12.079   3.869
52600SOL     OW59638  12.146   8.513   8.914
52600SOL    HW159639  12.085   8.574   8.955
52600SOL    HW259640  12.170   8.554   8.831
52601SOL     OW59641  14.815   2.599   5.109
52601SOL    HW159642  14.811   2.509   5.142
52601SOL    HW259643  14.755   2.599   5.034
52602SOL     OW59644   7.140   4.584   8.218
52602SOL    HW159645   7.121   4.658   8.161
52602SOL    HW259646   7.235   4.587   8.230
52603SOL     OW59647  11.929   0.025   2.743
52603SOL    HW159648  11.849  14.855   2.761
52603SOL    HW259649  11.972   0.033   2.828
52604SOL     OW59650  12.620  11.217  11.908
52604SOL    HW159651  12.623  11.127  11.940
52604SOL    HW259652  12.636  11.270  11.986
52605SOL     OW59653  10.838  12.980  12.380
52605SOL    HW159654  10.790  12.906  12.417
52605SOL    HW259655  10.772  13.033  12.336
52606SOL     OW59656   6.470  13.661   6.454
52606SOL    HW159657   6.503  13.750   6.439
52606SOL    HW259658   6.418  13.641   6.377
52607SOL     OW59659   1.138   1.391  11.865
52607SOL    HW159660   1.152   1.297  11.853
52607SOL    HW259661   1.043   1.401  11.866
52608SOL     OW59662   4.854   6.091   8.082
52608SOL    HW159663   4.897   6.033   8.145
52608SOL    HW259664   4.766   6.054   8.071
52609SOL     OW59665  12.468  11.964   7.475
52609SOL    HW159666  12.416  11.975   7.555
52609SOL    HW259667  12.526  11.891   7.495
52610SOL     OW59668  14.206   9.964   4.101
52610SOL    HW159669  14.195   9.891   4.040
52610SOL    HW259670  14.135   9.953   4.164
52611SOL     OW59671   7.257   8.273   7.907
52611SOL    HW159672   7.303   8.255   7.825
52611SOL    HW259673   7.322   8.319   7.961
52612SOL     OW59674  11.051   3.673   2.030
52612SOL    HW159675  11.001   3.730   2.089
52612SOL    HW259676  11.140   3.675   2.064
52613SOL     OW59677   8.390   0.728  11.194
52613SOL    HW159678   8.439   0.784  11.134
52613SOL    HW259679   8.437   0.737  11.277
52614SOL     OW59680   1.203   8.813   3.752
52614SOL    HW159681   1.291   8.851   3.757
52614SOL    HW259682   1.206   8.737   3.809
52615SOL     OW59683   0.850   5.439   5.101
52615SOL    HW159684   0.869   5.500   5.030
52615SOL    HW259685   0.936   5.413   5.134
52616SOL     OW59686   7.172  12.601   3.510
52616SOL    HW159687   7.086  12.574   3.545
52616SOL    HW259688   7.195  12.530   3.449
52617SOL     OW59689   4.001   3.195   0.393
52617SOL    HW159690   3.959   3.111   0.373
52617SOL    HW259691   3.939   3.240   0.451
52618SOL     OW59692  13.646  12.219   3.351
52618SOL    HW159693  13.645  12.135   3.396
52618SOL    HW259694  13.555  12.247   3.349
52619SOL     OW59695  12.517   8.980   0.376
52619SOL    HW159696  12.613   8.977   0.377
52619SOL    HW259697  12.494   9.028   0.456
52620SOL     OW59698  13.500   7.891   4.743
52620SOL    HW159699  13.515   7.841   4.662
52620SOL    HW259700  13.407   7.912   4.741
52621SOL     OW59701   7.672  13.083   4.760
52621SOL    HW159702   7.582  13.063   4.737
52621SOL    HW259703   7.716  12.998   4.764
52622SOL     OW59704   8.389   4.545  10.318
52622SOL    HW159705   8.479   4.566  10.293
52622SOL    HW259706   8.348   4.631  10.332
52623SOL     OW59707   3.297   2.565   2.075
52623SOL    HW159708   3.309   2.599   1.987
52623SOL    HW259709   3.322   2.473   2.069
52624SOL     OW59710   8.152   1.047   8.786
52624SOL    HW159711   8.209   1.000   8.846
52624SOL    HW259712   8.183   1.138   8.788
52625SOL     OW59713   7.997  12.025   5.029
52625SOL    HW159714   7.945  11.989   5.101
52625SOL    HW259715   8.045  11.949   4.994
52626SOL     OW59716   6.564  10.311   3.897
52626SOL    HW159717   6.639  10.351   3.853
52626SOL    HW259718   6.524  10.255   3.831
52627SOL     OW59719  12.708  12.545   1.468
52627SOL    HW159720  12.786  12.547   1.414
52627SOL    HW259721  12.654  12.617   1.437
52628SOL     OW59722  10.715   1.902  13.678
52628SOL    HW159723  10.717   1.938  13.590
52628SOL    HW259724  10.623   1.910  13.705
52629SOL     OW59725   0.608   7.290   9.260
52629SOL    HW159726   0.518   7.303   9.229
52629SOL    HW259727   0.599   7.249   9.346
52630SOL     OW59728  11.969   4.520   6.278
52630SOL    HW159729  11.934   4.476   6.200
52630SOL    HW259730  12.047   4.565   6.246
52631SOL     OW59731  12.672   1.613   2.675
52631SOL    HW159732  12.709   1.560   2.604
52631SOL    HW259733  12.589   1.645   2.641
52632SOL     OW59734  10.676   6.956   6.530
52632SOL    HW159735  10.581   6.943   6.529
52632SOL    HW259736  10.688   7.051   6.527
52633SOL     OW59737   5.832   6.917   6.533
52633SOL    HW159738   5.913   6.967   6.520
52633SOL    HW259739   5.845   6.836   6.485
52634SOL     OW59740   0.348   4.404   4.137
52634SOL    HW159741   0.439   4.375   4.126
52634SOL    HW259742   0.298   4.322   4.138
52635SOL     OW59743  12.882   2.564   1.297
52635SOL    HW159744  12.831   2.645   1.291
52635SOL    HW259745  12.820   2.500   1.330
52636SOL     OW59746  12.418   0.611  11.415
52636SOL    HW159747  12.467   0.683  11.457
52636SOL    HW259748  12.445   0.615  11.323
52637SOL     OW59749   7.947   7.642   8.224
52637SOL    HW159750   7.909   7.703   8.161
52637SOL    HW259751   8.042   7.657   8.219
52638SOL     OW59752   3.023   7.651   2.253
52638SOL    HW159753   2.996   7.741   2.272
52638SOL    HW259754   2.993   7.601   2.328
52639SOL     OW59755   4.183  14.411  12.091
52639SOL    HW159756   4.140  14.496  12.084
52639SOL    HW259757   4.204  14.388  12.000
52640SOL     OW59758   3.045  12.664   7.473
52640SOL    HW159759   3.137  12.649   7.456
52640SOL    HW259760   3.044  12.730   7.543
52641SOL     OW59761   0.214  11.771   6.626
52641SOL    HW159762   0.212  11.757   6.531
52641SOL    HW259763   0.244  11.688   6.662
52642SOL     OW59764   9.467  12.194   0.257
52642SOL    HW159765   9.513  12.113   0.279
52642SOL    HW259766   9.510  12.262   0.309
52643SOL     OW59767   0.125   5.450   4.116
52643SOL    HW159768   0.062   5.400   4.063
52643SOL    HW259769   0.075   5.476   4.193
52644SOL     OW59770   9.525   0.830   5.251
52644SOL    HW159771   9.575   0.907   5.277
52644SOL    HW259772   9.474   0.858   5.176
52645SOL     OW59773  14.469  14.630  14.848
52645SOL    HW159774  14.462  14.534  14.857
52645SOL    HW259775  14.443  14.647  14.757
52646SOL     OW59776   0.182  11.494  14.772
52646SOL    HW159777   0.251  11.540  14.724
52646SOL    HW259778   0.229  11.449  14.842
52647SOL     OW59779   8.806  14.055  14.397
52647SOL    HW159780   8.795  14.100  14.481
52647SOL    HW259781   8.831  14.124  14.336
52648SOL     OW59782   7.476   6.299  14.293
52648SOL    HW159783   7.544   6.236  14.270
52648SOL    HW259784   7.523   6.374  14.330
52649SOL     OW59785   8.402   4.683   3.764
52649SOL    HW159786   8.454   4.744   3.816
52649SOL    HW259787   8.422   4.597   3.800
52650SOL     OW59788   8.252   5.606   6.140
52650SOL    HW159789   8.309   5.566   6.074
52650SOL    HW259790   8.307   5.672   6.181
52651SOL     OW59791   5.638   4.936  13.211
52651SOL    HW159792   5.611   4.930  13.119
52651SOL    HW259793   5.696   5.012  13.213
52652SOL     OW59794   2.122   3.882   2.123
52652SOL    HW159795   2.064   3.954   2.101
52652SOL    HW259796   2.156   3.903   2.210
52653SOL     OW59797  12.135  14.398  10.082
52653SOL    HW159798  12.229  14.418  10.085
52653SOL    HW259799  12.127  14.333  10.012
52654SOL     OW59800   5.800   9.327  13.934
52654SOL    HW159801   5.765   9.385  13.867
52654SOL    HW259802   5.723   9.278  13.966
52655SOL     OW59803   7.382   1.089   9.265
52655SOL    HW159804   7.419   1.018   9.318
52655SOL    HW259805   7.291   1.096   9.295
52656SOL     OW59806  11.248   3.840   2.290
52656SOL    HW159807  11.331   3.812   2.251
52656SOL    HW259808  11.268   3.925   2.331
52657SOL     OW59809   4.172   9.112   7.465
52657SOL    HW159810   4.116   9.039   7.492
52657SOL    HW259811   4.112   9.187   7.460
52658SOL     OW59812   0.910   3.975  10.275
52658SOL    HW159813   0.967   4.020  10.213
52658SOL    HW259814   0.888   3.892  10.232
52659SOL     OW59815   4.107   0.429   2.448
52659SOL    HW159816   4.114   0.388   2.362
52659SOL    HW259817   4.039   0.496   2.438
52660SOL     OW59818  10.758   5.344   0.524
52660SOL    HW159819  10.731   5.435   0.514
52660SOL    HW259820  10.832   5.348   0.586
52661SOL     OW59821   7.368   9.369  11.297
52661SOL    HW159822   7.297   9.412  11.250
52661SOL    HW259823   7.396   9.298  11.239
52662SOL     OW59824  12.860   6.232   1.601
52662SOL    HW159825  12.854   6.168   1.530
52662SOL    HW259826  12.832   6.315   1.561
52663SOL     OW59827   5.480  10.640  13.101
52663SOL    HW159828   5.526  10.656  13.019
52663SOL    HW259829   5.389  10.662  13.082
52664SOL     OW59830   7.831  12.842  13.129
52664SOL    HW159831   7.748  12.794  13.124
52664SOL    HW259832   7.866  12.820  13.216
52665SOL     OW59833  11.604   9.950   0.559
52665SOL    HW159834  11.528  10.000   0.590
52665SOL    HW259835  11.658  10.015   0.513
52666SOL     OW59836   1.117  14.446   8.235
52666SOL    HW159837   1.130  14.351   8.234
52666SOL    HW259838   1.069  14.465   8.154
52667SOL     OW59839   3.631   2.933   8.199
52667SOL    HW159840   3.638   2.992   8.123
52667SOL    HW259841   3.681   2.977   8.268
52668SOL     OW59842   2.800  11.095  13.012
52668SOL    HW159843   2.834  11.006  13.009
52668SOL    HW259844   2.848  11.137  13.083
52669SOL     OW59845  11.809   9.474   9.898
52669SOL    HW159846  11.803   9.505   9.808
52669SOL    HW259847  11.892   9.508   9.931
52670SOL     OW59848  13.337   6.318  11.007
52670SOL    HW159849  13.340   6.315  11.103
52670SOL    HW259850  13.298   6.403  10.988
52671SOL     OW59851   0.386   5.062   8.831
52671SOL    HW159852   0.439   5.128   8.786
52671SOL    HW259853   0.302   5.105   8.847
52672SOL     OW59854   2.792  11.477   3.675
52672SOL    HW159855   2.729  11.547   3.662
52672SOL    HW259856   2.872  11.522   3.702
52673SOL     OW59857  10.767   8.056  11.320
52673SOL    HW159858  10.828   8.036  11.391
52673SOL    HW259859  10.812   8.123  11.268
52674SOL     OW59860   4.021  12.483  13.586
52674SOL    HW159861   3.967  12.500  13.509
52674SOL    HW259862   4.019  12.565  13.636
52675SOL     OW59863   7.324   9.999   2.529
52675SOL    HW159864   7.312  10.073   2.469
52675SOL    HW259865   7.419   9.987   2.534
52676SOL     OW59866  14.779  11.291  12.744
52676SOL    HW159867  14.729  11.316  12.822
52676SOL    HW259868  14.811  11.374  12.708
52677SOL     OW59869   2.621  11.442   2.058
52677SOL    HW159870   2.644  11.369   2.116
52677SOL    HW259871   2.549  11.408   2.005
52678SOL     OW59872  10.211  12.975   4.945
52678SOL    HW159873  10.183  12.902   4.890
52678SOL    HW259874  10.303  12.988   4.922
52679SOL     OW59875   4.871   1.863   8.665
52679SOL    HW159876   4.805   1.846   8.598
52679SOL    HW259877   4.930   1.788   8.660
52680SOL     OW59878   0.863  12.164   0.871
52680SOL    HW159879   0.876  12.146   0.964
52680SOL    HW259880   0.838  12.257   0.868
52681SOL     OW59881  11.976   4.208   8.679
52681SOL    HW159882  11.974   4.122   8.636
52681SOL    HW259883  11.886   4.241   8.673
52682SOL     OW59884   9.255   3.428   4.621
52682SOL    HW159885   9.282   3.487   4.551
52682SOL    HW259886   9.337   3.395   4.658
52683SOL     OW59887  14.880   2.990   0.872
52683SOL    HW159888   0.008   3.003   0.777
52683SOL    HW259889   0.059   2.917   0.891
52684SOL     OW59890   7.425   7.686   6.506
52684SOL    HW159891   7.342   7.638   6.511
52684SOL    HW259892   7.408   7.767   6.552
52685SOL     OW59893  13.154   1.179   7.272
52685SOL    HW159894  13.118   1.156   7.358
52685SOL    HW259895  13.230   1.233   7.292
52686SOL     OW59896  10.898   8.911   7.870
52686SOL    HW159897  10.837   8.871   7.809
52686SOL    HW259898  10.941   8.980   7.819
52687SOL     OW59899   5.389   0.983   4.560
52687SOL    HW159900   5.380   1.040   4.484
52687SOL    HW259901   5.426   1.039   4.629
52688SOL     OW59902   7.971   3.347   9.497
52688SOL    HW159903   7.896   3.404   9.482
52688SOL    HW259904   7.970   3.285   9.425
52689SOL     OW59905   8.466  11.831  14.318
52689SOL    HW159906   8.440  11.830  14.226
52689SOL    HW259907   8.392  11.870  14.364
52690SOL     OW59908   0.192   5.565   2.550
52690SOL    HW159909   0.231   5.540   2.467
52690SOL    HW259910   0.152   5.651   2.533
52691SOL     OW59911   5.567   1.740   6.779
52691SOL    HW159912   5.505   1.697   6.720
52691SOL    HW259913   5.647   1.689   6.771
52692SOL     OW59914  11.490   0.495   1.236
52692SOL    HW159915  11.517   0.555   1.306
52692SOL    HW259916  11.517   0.538   1.155
52693SOL     OW59917  12.847   4.078  11.597
52693SOL    HW159918  12.856   4.112  11.508
52693SOL    HW259919  12.793   3.999  11.587
52694SOL     OW59920  12.498  12.340   9.144
52694SOL    HW159921  12.550  12.412   9.109
52694SOL    HW259922  12.505  12.271   9.078
52695SOL     OW59923   8.138   7.505   3.800
52695SOL    HW159924   8.171   7.534   3.885
52695SOL    HW259925   8.083   7.577   3.770
52696SOL     OW59926  13.787  13.910   5.324
52696SOL    HW159927  13.845  13.898   5.249
52696SOL    HW259928  13.764  13.821   5.351
52697SOL     OW59929  12.425   2.357  10.220
52697SOL    HW159930  12.332   2.333  10.227
52697SOL    HW259931  12.472   2.280  10.254
52698SOL     OW59932   4.043   5.355  10.713
52698SOL    HW159933   4.079   5.376  10.799
52698SOL    HW259934   4.049   5.259  10.708
52699SOL     OW59935   3.199   8.190   9.498
52699SOL    HW159936   3.190   8.160   9.588
52699SOL    HW259937   3.168   8.281   9.500
52700SOL     OW59938   2.280  13.057   1.670
52700SOL    HW159939   2.189  13.030   1.677
52700SOL    HW259940   2.285  13.108   1.589
52701SOL     OW59941   2.602   1.355   0.223
52701SOL    HW159942   2.524   1.326   0.270
52701SOL    HW259943   2.596   1.309   0.138
52702SOL     OW59944   2.422  11.968   7.706
52702SOL    HW159945   2.392  12.050   7.746
52702SOL    HW259946   2.481  11.930   7.771
52703SOL     OW59947   6.658   0.180   7.932
52703SOL    HW159948   6.754   0.173   7.930
52703SOL    HW259949   6.631   0.113   7.995
52704SOL     OW59950   9.524   6.244   2.078
52704SOL    HW159951   9.448   6.231   2.134
52704SOL    HW259952   9.596   6.201   2.126
52705SOL     OW59953  10.137   5.856   7.347
52705SOL    HW159954  10.127   5.942   7.387
52705SOL    HW259955  10.108   5.868   7.256
52706SOL     OW59956   1.044  12.982  14.665
52706SOL    HW159957   1.091  13.003  14.584
52706SOL    HW259958   1.017  13.067  14.700
52707SOL     OW59959  13.529  12.038  10.325
52707SOL    HW159960  13.439  12.046  10.355
52707SOL    HW259961  13.524  12.043  10.230
52708SOL     OW59962  13.497   3.606  13.369
52708SOL    HW159963  13.439   3.644  13.303
52708SOL    HW259964  13.570   3.570  13.319
52709SOL     OW59965   1.790   2.265   1.932
52709SOL    HW159966   1.771   2.233   2.020
52709SOL    HW259967   1.880   2.237   1.914
52710SOL     OW59968   9.178  11.932   1.019
52710SOL    HW159969   9.217  11.866   0.962
52710SOL    HW259970   9.092  11.948   0.980
52711SOL     OW59971   9.591  12.143   3.114
52711SOL    HW159972   9.571  12.052   3.093
52711SOL    HW259973   9.530  12.166   3.184
52712SOL     OW59974   0.669  14.588  14.764
52712SOL    HW159975   0.588  14.633  14.738
52712SOL    HW259976   0.733  14.658  14.776
52713SOL     OW59977   5.245   3.962  10.035
52713SOL    HW159978   5.268   3.940  10.126
52713SOL    HW259979   5.234   4.057  10.036
52714SOL     OW59980   2.469  11.183  14.648
52714SOL    HW159981   2.557  11.221  14.647
52714SOL    HW259982   2.437  11.197  14.737
52715SOL     OW59983  12.701   0.877   7.169
52715SOL    HW159984  12.736   0.792   7.197
52715SOL    HW259985  12.666   0.916   7.249
52716SOL     OW59986   8.430   6.531   9.770
52716SOL    HW159987   8.403   6.520   9.862
52716SOL    HW259988   8.374   6.601   9.737
52717SOL     OW59989  11.224   3.059  13.178
52717SOL    HW159990  11.292   3.126  13.177
52717SOL    HW259991  11.222   3.024  13.089
52718SOL     OW59992   7.119   3.969  14.234
52718SOL    HW159993   7.043   3.955  14.290
52718SOL    HW259994   7.157   3.882  14.223
52719SOL     OW59995   4.864   5.992  12.566
52719SOL    HW159996   4.926   6.022  12.633
52719SOL    HW259997   4.792   5.953  12.616
52720SOL     OW59998  12.933  10.720   5.708
52720SOL    HW159999  12.877  10.673   5.770
52720SOL    HW260000  12.910  10.683   5.622
52721SOL     OW60001   7.730  13.965   9.873
52721SOL    HW160002   7.784  13.994   9.947
52721SOL    HW260003   7.670  13.901   9.912
52722SOL     OW60004   1.252   9.542   6.057
52722SOL    HW160005   1.252   9.613   5.993
52722SOL    HW260006   1.210   9.469   6.011
52723SOL     OW60007  13.749   9.822   8.016
52723SOL    HW160008  13.832   9.813   7.970
52723SOL    HW260009  13.764   9.781   8.102
52724SOL     OW60010   7.428   6.109  14.070
52724SOL    HW160011   7.438   6.153  13.986
52724SOL    HW260012   7.412   6.179  14.133
52725SOL     OW60013   7.525   7.132   8.478
52725SOL    HW160014   7.615   7.161   8.461
52725SOL    HW260015   7.471   7.207   8.454
52726SOL     OW60016  14.034  13.304   6.802
52726SOL    HW160017  14.101  13.372   6.802
52726SOL    HW260018  14.055  13.250   6.879
52727SOL     OW60019  13.180   9.033  12.753
52727SOL    HW160020  13.154   8.975  12.824
52727SOL    HW260021  13.268   9.062  12.777
52728SOL     OW60022   6.512  14.300   5.219
52728SOL    HW160023   6.485  14.374   5.273
52728SOL    HW260024   6.436  14.242   5.218
52729SOL     OW60025   0.574  11.866  11.934
52729SOL    HW160026   0.495  11.819  11.962
52729SOL    HW260027   0.598  11.919  12.010
52730SOL     OW60028   9.213   8.118   9.514
52730SOL    HW160029   9.256   8.203   9.522
52730SOL    HW260030   9.126   8.132   9.554
52731SOL     OW60031   0.486   4.524  13.140
52731SOL    HW160032   0.520   4.535  13.052
52731SOL    HW260033   0.404   4.476  13.129
52732SOL     OW60034   3.409   3.196  13.358
52732SOL    HW160035   3.407   3.251  13.279
52732SOL    HW260036   3.319   3.197  13.390
52733SOL     OW60037   1.359  11.920   0.387
52733SOL    HW160038   1.381  11.912   0.294
52733SOL    HW260039   1.311  12.003   0.392
52734SOL     OW60040  14.794   8.578  11.825
52734SOL    HW160041  14.723   8.600  11.885
52734SOL    HW260042  14.809   8.660  11.776
52735SOL     OW60043   9.720   2.150   9.529
52735SOL    HW160044   9.653   2.206   9.489
52735SOL    HW260045   9.779   2.129   9.456
52736SOL     OW60046  12.463  14.277  11.565
52736SOL    HW160047  12.428  14.344  11.507
52736SOL    HW260048  12.392  14.213  11.572
52737SOL     OW60049   7.330   4.941   3.469
52737SOL    HW160050   7.293   4.889   3.541
52737SOL    HW260051   7.311   4.890   3.390
52738SOL     OW60052   0.153   4.611   9.904
52738SOL    HW160053   0.162   4.604   9.809
52738SOL    HW260054   0.237   4.582   9.939
52739SOL     OW60055   3.997   0.449   9.762
52739SOL    HW160056   4.032   0.473   9.677
52739SOL    HW260057   4.069   0.467   9.823
52740SOL     OW60058   6.786   0.865   4.716
52740SOL    HW160059   6.846   0.861   4.791
52740SOL    HW260060   6.844   0.855   4.640
52741SOL     OW60061   7.326   1.878  10.765
52741SOL    HW160062   7.322   1.966  10.728
52741SOL    HW260063   7.236   1.847  10.762
52742SOL     OW60064   5.879  10.925   3.109
52742SOL    HW160065   5.904  10.980   3.034
52742SOL    HW260066   5.889  10.835   3.077
52743SOL     OW60067   8.078   0.255   0.761
52743SOL    HW160068   8.128   0.186   0.718
52743SOL    HW260069   7.988   0.242   0.730
52744SOL     OW60070   1.031  12.318  14.141
52744SOL    HW160071   0.936  12.321  14.127
52744SOL    HW260072   1.068  12.362  14.065
52745SOL     OW60073   2.792  10.573   6.460
52745SOL    HW160074   2.758  10.540   6.542
52745SOL    HW260075   2.734  10.646   6.437
52746SOL     OW60076   2.349   5.204  14.355
52746SOL    HW160077   2.338   5.268  14.284
52746SOL    HW260078   2.288   5.133  14.332
52747SOL     OW60079  12.533   3.814  10.119
52747SOL    HW160080  12.611   3.853  10.157
52747SOL    HW260081  12.481   3.786  10.194
52748SOL     OW60082   4.061  14.251   7.948
52748SOL    HW160083   4.099  14.166   7.970
52748SOL    HW260084   3.987  14.230   7.891
52749SOL     OW60085   6.779   7.406  10.233
52749SOL    HW160086   6.731   7.323  10.232
52749SOL    HW260087   6.712   7.472  10.213
52750SOL     OW60088  13.143  10.613  11.768
52750SOL    HW160089  13.105  10.633  11.683
52750SOL    HW260090  13.103  10.530  11.793
52751SOL     OW60091  10.511   8.748   8.108
52751SOL    HW160092  10.492   8.725   8.017
52751SOL    HW260093  10.606   8.755   8.112
52752SOL     OW60094  11.583   9.831  14.012
52752SOL    HW160095  11.502   9.870  13.980
52752SOL    HW260096  11.567   9.736  14.008
52753SOL     OW60097  12.603   1.108   2.864
52753SOL    HW160098  12.699   1.100   2.865
52753SOL    HW260099  12.572   1.021   2.889
52754SOL     OW60100   8.084   2.293  12.198
52754SOL    HW160101   8.082   2.365  12.261
52754SOL    HW260102   8.113   2.332  12.116
52755SOL     OW60103   4.367   0.674   7.682
52755SOL    HW160104   4.451   0.660   7.638
52755SOL    HW260105   4.375   0.761   7.720
52756SOL     OW60106  11.341   9.309   6.443
52756SOL    HW160107  11.329   9.223   6.482
52756SOL    HW260108  11.331   9.370   6.517
52757SOL     OW60109   7.395   8.439   8.083
52757SOL    HW160110   7.366   8.530   8.087
52757SOL    HW260111   7.478   8.443   8.035
52758SOL     OW60112  12.098   8.845   6.972
52758SOL    HW160113  12.103   8.761   7.019
52758SOL    HW260114  12.178   8.891   6.998
52759SOL     OW60115   9.085   9.228   9.800
52759SOL    HW160116   8.991   9.223   9.814
52759SOL    HW260117   9.095   9.287   9.726
52760SOL     OW60118  11.668  13.640   3.131
52760SOL    HW160119  11.761  13.648   3.153
52760SOL    HW260120  11.655  13.548   3.112
52761SOL     OW60121   6.162   5.245   0.132
52761SOL    HW160122   6.232   5.280   0.187
52761SOL    HW260123   6.093   5.222   0.193
52762SOL     OW60124   6.298   9.192  11.800
52762SOL    HW160125   6.374   9.233  11.759
52762SOL    HW260126   6.328   9.171  11.889
52763SOL     OW60127   1.259  14.179   9.998
52763SOL    HW160128   1.186  14.117   9.998
52763SOL    HW260129   1.219  14.264   9.976
52764SOL     OW60130   2.318   0.403   7.696
52764SOL    HW160131   2.412   0.401   7.715
52764SOL    HW260132   2.313   0.408   7.601
52765SOL     OW60133   4.205  11.217   4.818
52765SOL    HW160134   4.253  11.197   4.737
52765SOL    HW260135   4.209  11.312   4.825
52766SOL     OW60136   2.804  12.592   9.650
52766SOL    HW160137   2.747  12.669   9.648
52766SOL    HW260138   2.744  12.518   9.653
52767SOL     OW60139   5.491   1.147  14.407
52767SOL    HW160140   5.587   1.144  14.413
52767SOL    HW260141   5.472   1.233  14.372
52768SOL     OW60142  12.167  14.734   8.838
52768SOL    HW160143  12.206  14.760   8.755
52768SOL    HW260144  12.072  14.735   8.821
52769SOL     OW60145   9.889   1.928  10.049
52769SOL    HW160146   9.962   1.902   9.994
52769SOL    HW260147   9.812   1.921   9.992
52770SOL     OW60148   4.100  14.395   3.777
52770SOL    HW160149   4.132  14.465   3.833
52770SOL    HW260150   4.030  14.435   3.726
52771SOL     OW60151  12.762   7.528   9.858
52771SOL    HW160152  12.746   7.518   9.952
52771SOL    HW260153  12.697   7.473   9.816
52772SOL     OW60154  14.432   8.751   8.735
52772SOL    HW160155  14.365   8.774   8.799
52772SOL    HW260156  14.411   8.661   8.708
52773SOL     OW60157  11.885   5.159  11.155
52773SOL    HW160158  11.977   5.148  11.180
52773SOL    HW260159  11.841   5.084  11.193
52774SOL     OW60160   6.519   2.503   9.739
52774SOL    HW160161   6.550   2.584   9.779
52774SOL    HW260162   6.458   2.531   9.671
52775SOL     OW60163   9.782   2.642  14.275
52775SOL    HW160164   9.805   2.671  14.364
52775SOL    HW260165   9.863   2.649  14.226
52776SOL     OW60166  12.707  14.248   1.179
52776SOL    HW160167  12.788  14.206   1.208
52776SOL    HW260168  12.648  14.240   1.254
52777SOL     OW60169   8.644   8.712   9.859
52777SOL    HW160170   8.645   8.618   9.873
52777SOL    HW260171   8.620   8.722   9.767
52778SOL     OW60172   2.504   2.791   9.946
52778SOL    HW160173   2.457   2.795   9.863
52778SOL    HW260174   2.572   2.725   9.931
52779SOL     OW60175   8.045  14.243  12.387
52779SOL    HW160176   8.005  14.195  12.460
52779SOL    HW260177   8.120  14.287  12.426
52780SOL     OW60178   5.705   7.666  13.344
52780SOL    HW160179   5.759   7.720  13.286
52780SOL    HW260180   5.764   7.596  13.372
52781SOL     OW60181   6.215   6.492   6.432
52781SOL    HW160182   6.224   6.400   6.457
52781SOL    HW260183   6.189   6.536   6.513
52782SOL     OW60184   6.669   7.716   2.898
52782SOL    HW160185   6.750   7.707   2.948
52782SOL    HW260186   6.618   7.638   2.923
52783SOL     OW60187   9.470  14.803   6.338
52783SOL    HW160188   9.561  14.824   6.360
52783SOL    HW260189   9.453  14.720   6.382
52784SOL     OW60190   1.742   8.230   3.055
52784SOL    HW160191   1.834   8.256   3.050
52784SOL    HW260192   1.732   8.193   3.142
52785SOL     OW60193   7.853   1.080   4.700
52785SOL    HW160194   7.910   1.060   4.625
52785SOL    HW260195   7.873   1.170   4.723
52786SOL     OW60196  10.581   7.500   2.596
52786SOL    HW160197  10.538   7.438   2.537
52786SOL    HW260198  10.601   7.576   2.542
52787SOL     OW60199   2.933   2.028  12.299
52787SOL    HW160200   2.960   1.981  12.219
52787SOL    HW260201   2.838   2.017  12.302
52788SOL     OW60202   1.430  10.274  12.015
52788SOL    HW160203   1.343  10.278  12.054
52788SOL    HW260204   1.443  10.359  11.974
52789SOL     OW60205   2.207   3.163   6.969
52789SOL    HW160206   2.249   3.148   6.884
52789SOL    HW260207   2.279   3.175   7.030
52790SOL     OW60208   1.954   9.802   1.111
52790SOL    HW160209   2.006   9.733   1.152
52790SOL    HW260210   1.947   9.871   1.177
52791SOL     OW60211  12.898   9.826  10.655
52791SOL    HW160212  12.885   9.752  10.714
52791SOL    HW260213  12.980   9.866  10.685
52792SOL     OW60214  13.345   3.596   5.309
52792SOL    HW160215  13.392   3.623   5.388
52792SOL    HW260216  13.300   3.675   5.280
52793SOL     OW60217   9.335  12.210   3.583
52793SOL    HW160218   9.359  12.263   3.659
52793SOL    HW260219   9.272  12.147   3.617
52794SOL     OW60220   3.626  11.404  12.679
52794SOL    HW160221   3.686  11.440  12.743
52794SOL    HW260222   3.548  11.460  12.685
52795SOL     OW60223  13.358   8.527   2.463
52795SOL    HW160224  13.304   8.565   2.532
52795SOL    HW260225  13.296   8.499   2.396
52796SOL     OW60226  11.329   4.292   0.783
52796SOL    HW160227  11.418   4.302   0.750
52796SOL    HW260228  11.324   4.202   0.813
52797SOL     OW60229   2.531  10.774  12.038
52797SOL    HW160230   2.617  10.783  12.079
52797SOL    HW260231   2.503  10.685  12.060
52798SOL     OW60232  11.694   1.051   8.351
52798SOL    HW160233  11.761   1.072   8.286
52798SOL    HW260234  11.723   0.969   8.391
52799SOL     OW60235  11.590   3.008   5.465
52799SOL    HW160236  11.573   3.097   5.498
52799SOL    HW260237  11.522   2.994   5.399
52800SOL     OW60238   8.168   1.159  12.020
52800SOL    HW160239   8.145   1.227  11.957
52800SOL    HW260240   8.158   1.077  11.972
52801SOL     OW60241  12.612  14.818   3.503
52801SOL    HW160242  12.607  14.751   3.571
52801SOL    HW260243  12.576  14.775   3.425
52802SOL     OW60244  11.864   0.629   9.324
52802SOL    HW160245  11.860   0.534   9.312
52802SOL    HW260246  11.772   0.656   9.328
52803SOL     OW60247  10.549   6.833   9.108
52803SOL    HW160248  10.563   6.804   9.198
52803SOL    HW260249  10.474   6.781   9.077
52804SOL     OW60250  14.474   2.195  10.152
52804SOL    HW160251  14.570   2.192  10.157
52804SOL    HW260252  14.451   2.285  10.177
52805SOL     OW60253   3.427  14.450  11.689
52805SOL    HW160254   3.479  14.439  11.609
52805SOL    HW260255   3.385  14.535  11.679
52806SOL     OW60256  10.086  14.554  13.041
52806SOL    HW160257  10.005  14.530  12.996
52806SOL    HW260258  10.059  14.570  13.132
52807SOL     OW60259   4.122  13.525   7.713
52807SOL    HW160260   4.208  13.547   7.748
52807SOL    HW260261   4.060  13.552   7.781
52808SOL     OW60262   2.263  14.315   8.630
52808SOL    HW160263   2.314  14.280   8.557
52808SOL    HW260264   2.197  14.371   8.588
52809SOL     OW60265   0.639  12.922  11.364
52809SOL    HW160266   0.655  12.836  11.326
52809SOL    HW260267   0.689  12.922  11.446
52810SOL     OW60268  10.493   8.565  11.820
52810SOL    HW160269  10.514   8.471  11.814
52810SOL    HW260270  10.410   8.568  11.867
52811SOL     OW60271  10.086   2.142   9.931
52811SOL    HW160272  10.044   2.117  10.013
52811SOL    HW260273  10.081   2.063   9.877
52812SOL     OW60274   4.410   1.360   8.891
52812SOL    HW160275   4.365   1.355   8.976
52812SOL    HW260276   4.341   1.387   8.830
52813SOL     OW60277   2.103  14.517  10.880
52813SOL    HW160278   2.013  14.539  10.855
52813SOL    HW260279   2.150  14.512  10.796
52814SOL     OW60280   6.896   0.050   9.517
52814SOL    HW160281   6.804   0.041   9.495
52814SOL    HW260282   6.899   0.051   9.612
52815SOL     OW60283   8.286  12.429   5.037
52815SOL    HW160284   8.287  12.487   5.113
52815SOL    HW260285   8.218  12.365   5.057
52816SOL     OW60286   6.077   8.119   8.722
52816SOL    HW160287   5.982   8.120   8.712
52816SOL    HW260288   6.111   8.106   8.634
52817SOL     OW60289   4.738   2.348  12.252
52817SOL    HW160290   4.712   2.392  12.171
52817SOL    HW260291   4.706   2.405  12.321
52818SOL     OW60292   1.465  10.500   9.649
52818SOL    HW160293   1.516  10.433   9.604
52818SOL    HW260294   1.437  10.457   9.730
52819SOL     OW60295   8.031  14.363  10.587
52819SOL    HW160296   7.990  14.446  10.564
52819SOL    HW260297   7.984  14.298  10.535
52820SOL     OW60298   8.975   9.680   1.158
52820SOL    HW160299   9.002   9.612   1.097
52820SOL    HW260300   8.880   9.670   1.165
52821SOL     OW60301   6.866   5.609  11.677
52821SOL    HW160302   6.921   5.595  11.754
52821SOL    HW260303   6.926   5.633  11.607
52822SOL     OW60304   8.561  13.669   0.352
52822SOL    HW160305   8.555  13.652   0.258
52822SOL    HW260306   8.549  13.764   0.360
52823SOL     OW60307  13.986   7.998   1.980
52823SOL    HW160308  14.072   7.972   1.948
52823SOL    HW260309  13.943   8.038   1.905
52824SOL     OW60310   2.097   2.330  13.146
52824SOL    HW160311   2.187   2.364  13.141
52824SOL    HW260312   2.094   2.261  13.080
52825SOL     OW60313   0.203   2.403  12.426
52825SOL    HW160314   0.237   2.315  12.409
52825SOL    HW260315   0.108   2.393  12.428
52826SOL     OW60316   1.626   4.972   3.544
52826SOL    HW160317   1.651   5.035   3.476
52826SOL    HW260318   1.581   4.902   3.496
52827SOL     OW60319   5.609   4.531  14.385
52827SOL    HW160320   5.542   4.588  14.423
52827SOL    HW260321   5.578   4.514  14.296
52828SOL     OW60322   8.768   9.914   9.695
52828SOL    HW160323   8.847   9.933   9.746
52828SOL    HW260324   8.755   9.820   9.707
52829SOL     OW60325  11.422   6.010   8.361
52829SOL    HW160326  11.417   5.925   8.317
52829SOL    HW260327  11.411   5.988   8.454
52830SOL     OW60328   6.104   9.649  12.946
52830SOL    HW160329   6.181   9.597  12.922
52830SOL    HW260330   6.034   9.584  12.960
52831SOL     OW60331  12.016   9.894   7.195
52831SOL    HW160332  12.004   9.920   7.286
52831SOL    HW260333  11.993   9.973   7.145
52832SOL     OW60334   1.394  11.490   3.494
52832SOL    HW160335   1.477  11.456   3.461
52832SOL    HW260336   1.400  11.585   3.483
52833SOL     OW60337  13.048   5.514   3.128
52833SOL    HW160338  13.014   5.428   3.104
52833SOL    HW260339  13.027   5.570   3.053
52834SOL     OW60340   5.248   1.397   8.143
52834SOL    HW160341   5.260   1.306   8.115
52834SOL    HW260342   5.251   1.447   8.061
52835SOL     OW60343   2.555   8.128   8.038
52835SOL    HW160344   2.595   8.210   8.069
52835SOL    HW260345   2.547   8.074   8.117
52836SOL     OW60346  13.953   1.190   1.339
52836SOL    HW160347  14.016   1.171   1.409
52836SOL    HW260348  13.927   1.281   1.353
52837SOL     OW60349  11.267  11.152   2.236
52837SOL    HW160350  11.210  11.228   2.231
52837SOL    HW260351  11.207  11.078   2.248
52838SOL     OW60352   6.738   7.974   0.562
52838SOL    HW160353   6.794   7.948   0.635
52838SOL    HW260354   6.796   7.973   0.486
52839SOL     OW60355  11.358  11.592   7.948
52839SOL    HW160356  11.408  11.544   8.015
52839SOL    HW260357  11.298  11.526   7.912
52840SOL     OW60358   8.932  14.360   9.927
52840SOL    HW160359   8.935  14.279   9.876
52840SOL    HW260360   8.974  14.338  10.010
52841SOL     OW60361  13.677  11.183  10.338
52841SOL    HW160362  13.663  11.264  10.389
52841SOL    HW260363  13.592  11.139  10.340
52842SOL     OW60364   2.039   0.871  10.152
52842SOL    HW160365   2.092   0.821  10.214
52842SOL    HW260366   2.080   0.957  10.149
52843SOL     OW60367  10.453   1.401  10.621
52843SOL    HW160368  10.478   1.436  10.536
52843SOL    HW260369  10.535   1.371  10.660
52844SOL     OW60370  10.448   1.269  14.477
52844SOL    HW160371  10.392   1.233  14.546
52844SOL    HW260372  10.484   1.193  14.433
52845SOL     OW60373   6.684   5.585  14.875
52845SOL    HW160374   6.681   5.495   0.030
52845SOL    HW260375   6.622   5.633   0.049
52846SOL     OW60376   4.792   0.032   0.738
52846SOL    HW160377   4.781   0.036   0.833
52846SOL    HW260378   4.840  14.830   0.722
52847SOL     OW60379  12.760  10.974   2.010
52847SOL    HW160380  12.855  10.962   1.998
52847SOL    HW260381  12.749  11.068   2.019
52848SOL     OW60382   7.231  13.027   2.097
52848SOL    HW160383   7.283  13.077   2.159
52848SOL    HW260384   7.187  12.961   2.150
52849SOL     OW60385  14.711  11.899   6.083
52849SOL    HW160386  14.739  11.947   6.160
52849SOL    HW260387  14.617  11.917   6.076
52850SOL     OW60388   5.264   6.950   4.590
52850SOL    HW160389   5.263   6.880   4.656
52850SOL    HW260390   5.179   6.992   4.600
52851SOL     OW60391   8.467   5.000  11.222
52851SOL    HW160392   8.463   4.978  11.129
52851SOL    HW260393   8.514   5.084  11.225
52852SOL     OW60394  12.761  12.297  14.400
52852SOL    HW160395  12.815  12.240  14.455
52852SOL    HW260396  12.790  12.386  14.421
52853SOL     OW60397   5.673   6.629   4.443
52853SOL    HW160398   5.677   6.724   4.431
52853SOL    HW260399   5.758   6.597   4.412
52854SOL     OW60400   0.742   9.904  12.626
52854SOL    HW160401   0.819   9.958  12.608
52854SOL    HW260402   0.680   9.963  12.669
52855SOL     OW60403   7.700   6.999   0.972
52855SOL    HW160404   7.740   6.931   0.919
52855SOL    HW260405   7.692   7.074   0.913
52856SOL     OW60406   6.280  12.692  11.558
52856SOL    HW160407   6.284  12.622  11.493
52856SOL    HW260408   6.257  12.647  11.640
52857SOL     OW60409   8.377  13.948   6.307
52857SOL    HW160410   8.352  14.026   6.356
52857SOL    HW260411   8.449  13.910   6.357
52858SOL     OW60412   7.553   6.884   3.421
52858SOL    HW160413   7.468   6.853   3.452
52858SOL    HW260414   7.583   6.942   3.490
52859SOL     OW60415   9.533   9.471   6.984
52859SOL    HW160416   9.539   9.413   6.909
52859SOL    HW260417   9.471   9.428   7.043
52860SOL     OW60418  11.569   2.057   8.746
52860SOL    HW160419  11.644   2.014   8.705
52860SOL    HW260420  11.495   1.999   8.728
52861SOL     OW60421   7.955   6.850  13.643
52861SOL    HW160422   7.889   6.878  13.707
52861SOL    HW260423   8.002   6.930  13.621
52862SOL     OW60424  13.473   1.303   4.255
52862SOL    HW160425  13.493   1.338   4.342
52862SOL    HW260426  13.390   1.344   4.232
52863SOL     OW60427   0.440  13.587   1.372
52863SOL    HW160428   0.511  13.536   1.410
52863SOL    HW260429   0.419  13.542   1.290
52864SOL     OW60430  13.945  12.034   4.883
52864SOL    HW160431  14.033  11.998   4.874
52864SOL    HW260432  13.947  12.085   4.964
52865SOL     OW60433   5.035  13.897   8.382
52865SOL    HW160434   5.083  13.980   8.389
52865SOL    HW260435   4.945  13.923   8.365
52866SOL     OW60436  10.268   8.016   8.819
52866SOL    HW160437  10.248   8.050   8.732
52866SOL    HW260438  10.198   7.953   8.837
52867SOL     OW60439  10.151  14.481   5.100
52867SOL    HW160440  10.122  14.429   5.175
52867SOL    HW260441  10.133  14.572   5.125
52868SOL     OW60442   8.477   2.865   7.788
52868SOL    HW160443   8.403   2.807   7.773
52868SOL    HW260444   8.449   2.951   7.756
52869SOL     OW60445   0.419  11.637  14.021
52869SOL    HW160446   0.333  11.639  14.062
52869SOL    HW260447   0.424  11.550  13.980
52870SOL     OW60448   5.343   9.889   9.818
52870SOL    HW160449   5.341   9.972   9.866
52870SOL    HW260450   5.435   9.862   9.822
52871SOL     OW60451  14.635  12.958   5.897
52871SOL    HW160452  14.555  13.010   5.902
52871SOL    HW260453  14.683  12.981   5.976
52872SOL     OW60454  11.572  11.893   6.520
52872SOL    HW160455  11.575  11.938   6.436
52872SOL    HW260456  11.531  11.956   6.579
52873SOL     OW60457   6.461   1.818  13.727
52873SOL    HW160458   6.448   1.811  13.633
52873SOL    HW260459   6.553   1.842  13.738
52874SOL     OW60460  14.405   6.535  10.706
52874SOL    HW160461  14.428   6.628  10.707
52874SOL    HW260462  14.488   6.490  10.723
52875SOL     OW60463  14.877   9.890   1.786
52875SOL    HW160464  14.855   9.833   1.860
52875SOL    HW260465  14.836   9.848   1.710
52876SOL     OW60466   7.173  13.475   4.213
52876SOL    HW160467   7.131  13.535   4.274
52876SOL    HW260468   7.189  13.396   4.264
52877SOL     OW60469   8.830   6.698  12.179
52877SOL    HW160470   8.792   6.783  12.158
52877SOL    HW260471   8.878   6.713  12.261
52878SOL     OW60472  11.422  14.648  14.072
52878SOL    HW160473  11.362  14.604  14.131
52878SOL    HW260474  11.491  14.583  14.055
52879SOL     OW60475  12.739   4.306   4.687
52879SOL    HW160476  12.668   4.290   4.625
52879SOL    HW260477  12.779   4.220   4.700
52880SOL     OW60478  13.225   6.991  11.830
52880SOL    HW160479  13.160   7.022  11.894
52880SOL    HW260480  13.239   6.899  11.853
52881SOL     OW60481   0.564   0.544  10.060
52881SOL    HW160482   0.498   0.488  10.102
52881SOL    HW260483   0.648   0.506  10.084
52882SOL     OW60484   1.030   3.818  11.863
52882SOL    HW160485   1.097   3.786  11.803
52882SOL    HW260486   1.040   3.914  11.861
52883SOL     OW60487  12.624   1.912  10.413
52883SOL    HW160488  12.687   1.981  10.433
52883SOL    HW260489  12.577   1.897  10.495
52884SOL     OW60490  11.622  10.702   2.314
52884SOL    HW160491  11.636  10.658   2.230
52884SOL    HW260492  11.529  10.720   2.317
52885SOL     OW60493  13.374  14.319  13.602
52885SOL    HW160494  13.425  14.272  13.536
52885SOL    HW260495  13.345  14.398  13.556
52886SOL     OW60496  10.414   5.720   7.150
52886SOL    HW160497  10.332   5.695   7.107
52886SOL    HW260498  10.395   5.804   7.191
52887SOL     OW60499   7.924  13.780  11.981
52887SOL    HW160500   7.835  13.815  11.975
52887SOL    HW260501   7.970  13.818  11.906
52888SOL     OW60502  12.761   0.343   4.647
52888SOL    HW160503  12.736   0.290   4.572
52888SOL    HW260504  12.751   0.433   4.618
52889SOL     OW60505   2.918   9.563   9.778
52889SOL    HW160506   2.874   9.506   9.715
52889SOL    HW260507   2.852   9.629   9.800
52890SOL     OW60508   2.261   8.636   9.075
52890SOL    HW160509   2.192   8.650   9.011
52890SOL    HW260510   2.263   8.716   9.128
52891SOL     OW60511   9.202   9.752  10.649
52891SOL    HW160512   9.164   9.686  10.591
52891SOL    HW260513   9.222   9.826  10.592
52892SOL     OW60514   3.963   3.330   7.531
52892SOL    HW160515   3.903   3.401   7.509
52892SOL    HW260516   3.996   3.299   7.446
52893SOL     OW60517  12.842   4.705   1.697
52893SOL    HW160518  12.918   4.751   1.731
52893SOL    HW260519  12.767   4.755   1.729
52894SOL     OW60520  10.610  14.129   7.433
52894SOL    HW160521  10.618  14.222   7.414
52894SOL    HW260522  10.623  14.086   7.349
52895SOL     OW60523   0.464   5.520   8.436
52895SOL    HW160524   0.469   5.591   8.372
52895SOL    HW260525   0.371   5.511   8.455
52896SOL     OW60526   7.437   5.901   2.976
52896SOL    HW160527   7.420   5.987   3.014
52896SOL    HW260528   7.449   5.918   2.882
52897SOL     OW60529   6.296  13.699   2.348
52897SOL    HW160530   6.227  13.744   2.397
52897SOL    HW260531   6.291  13.736   2.260
52898SOL     OW60532   8.829   6.335  12.577
52898SOL    HW160533   8.755   6.369  12.526
52898SOL    HW260534   8.860   6.260  12.528
52899SOL     OW60535  10.873   2.262   3.811
52899SOL    HW160536  10.788   2.257   3.854
52899SOL    HW260537  10.907   2.173   3.815
52900SOL     OW60538   3.414   3.568  10.324
52900SOL    HW160539   3.415   3.663  10.311
52900SOL    HW260540   3.415   3.532  10.236
52901SOL     OW60541   2.364   7.924  13.907
52901SOL    HW160542   2.346   7.931  14.001
52901SOL    HW260543   2.337   8.009  13.872
52902SOL     OW60544   7.456   3.977   9.472
52902SOL    HW160545   7.520   3.915   9.508
52902SOL    HW260546   7.500   4.017   9.397
52903SOL     OW60547   4.586   5.210  14.392
52903SOL    HW160548   4.665   5.186  14.440
52903SOL    HW260549   4.605   5.296  14.356
52904SOL     OW60550   8.851   2.033   7.977
52904SOL    HW160551   8.874   2.120   8.010
52904SOL    HW260552   8.786   2.000   8.038
52905SOL     OW60553  12.629   1.762   8.988
52905SOL    HW160554  12.598   1.674   8.964
52905SOL    HW260555  12.702   1.746   9.048
52906SOL     OW60556   7.769  11.263  11.132
52906SOL    HW160557   7.822  11.287  11.209
52906SOL    HW260558   7.834  11.245  11.064
52907SOL     OW60559   0.680  11.241   2.691
52907SOL    HW160560   0.650  11.330   2.708
52907SOL    HW260561   0.772  11.241   2.716
52908SOL     OW60562  10.675  10.376   8.651
52908SOL    HW160563  10.611  10.310   8.678
52908SOL    HW260564  10.747  10.367   8.713
52909SOL     OW60565  11.799   6.979   1.484
52909SOL    HW160566  11.741   6.981   1.407
52909SOL    HW260567  11.754   7.032   1.549
52910SOL     OW60568   1.532  14.802   8.616
52910SOL    HW160569   1.593  14.778   8.686
52910SOL    HW260570   1.489  14.720   8.592
52911SOL     OW60571   3.117  13.311   2.102
52911SOL    HW160572   3.140  13.227   2.063
52911SOL    HW260573   3.184  13.327   2.168
52912SOL     OW60574  12.854   5.672   4.921
52912SOL    HW160575  12.845   5.673   4.826
52912SOL    HW260576  12.809   5.751   4.950
52913SOL     OW60577   7.645  12.131  12.963
52913SOL    HW160578   7.710  12.159  12.898
52913SOL    HW260579   7.682  12.051  13.001
52914SOL     OW60580   6.228   5.126  13.625
52914SOL    HW160581   6.165   5.086  13.686
52914SOL    HW260582   6.214   5.220  13.635
52915SOL     OW60583   2.698   8.947  13.350
52915SOL    HW160584   2.761   8.975  13.416
52915SOL    HW260585   2.621   8.919  13.400
52916SOL     OW60586   9.126   6.819   9.098
52916SOL    HW160587   9.215   6.793   9.074
52916SOL    HW260588   9.116   6.790   9.189
52917SOL     OW60589   3.637   8.492  14.277
52917SOL    HW160590   3.678   8.476  14.362
52917SOL    HW260591   3.706   8.534  14.225
52918SOL     OW60592   5.627  10.021  10.140
52918SOL    HW160593   5.628  10.106  10.096
52918SOL    HW260594   5.635  10.043  10.233
52919SOL     OW60595   8.587   2.832   1.627
52919SOL    HW160596   8.668   2.782   1.623
52919SOL    HW260597   8.544   2.816   1.543
52920SOL     OW60598   7.365  10.301   0.921
52920SOL    HW160599   7.376  10.395   0.936
52920SOL    HW260600   7.405  10.259   0.997
52921SOL     OW60601  12.529   8.069  11.984
52921SOL    HW160602  12.489   7.983  11.968
52921SOL    HW260603  12.488   8.126  11.919
52922SOL     OW60604   2.849   9.792  10.630
52922SOL    HW160605   2.871   9.809  10.538
52922SOL    HW260606   2.866   9.875  10.674
52923SOL     OW60607   7.863   7.975  11.381
52923SOL    HW160608   7.866   7.981  11.477
52923SOL    HW260609   7.954   7.980  11.354
52924SOL     OW60610  14.718   0.383  12.671
52924SOL    HW160611  14.656   0.324  12.712
52924SOL    HW260612  14.664   0.457  12.642
52925SOL     OW60613   1.559  12.692   6.298
52925SOL    HW160614   1.612  12.650   6.366
52925SOL    HW260615   1.622  12.710   6.227
52926SOL     OW60616  13.693   9.455  12.832
52926SOL    HW160617  13.711   9.504  12.912
52926SOL    HW260618  13.679   9.365  12.861
52927SOL     OW60619   9.786   2.221   1.157
52927SOL    HW160620   9.732   2.300   1.157
52927SOL    HW260621   9.875   2.253   1.139
52928SOL     OW60622   2.924   1.937   1.123
52928SOL    HW160623   2.860   2.004   1.099
52928SOL    HW260624   3.001   1.987   1.152
52929SOL     OW60625  10.749   6.224   3.085
52929SOL    HW160626  10.716   6.289   3.023
52929SOL    HW260627  10.790   6.157   3.030
52930SOL     OW60628   7.934  13.457  12.428
52930SOL    HW160629   8.016  13.506  12.424
52930SOL    HW260630   7.956  13.377  12.475
52931SOL     OW60631  10.146   9.350   3.097
52931SOL    HW160632  10.200   9.414   3.052
52931SOL    HW260633  10.143   9.380   3.188
52932SOL     OW60634   9.576  10.561  14.263
52932SOL    HW160635   9.524  10.539  14.341
52932SOL    HW260636   9.512  10.592  14.200
52933SOL     OW60637   9.728   2.199   3.443
52933SOL    HW160638   9.768   2.187   3.529
52933SOL    HW260639   9.714   2.110   3.411
52934SOL     OW60640   8.048   3.459   2.698
52934SOL    HW160641   7.971   3.465   2.642
52934SOL    HW260642   8.016   3.485   2.785
52935SOL     OW60643  12.006   3.567   4.432
52935SOL    HW160644  12.100   3.578   4.422
52935SOL    HW260645  11.993   3.472   4.435
52936SOL     OW60646   9.807   5.295   7.731
52936SOL    HW160647   9.831   5.379   7.771
52936SOL    HW260648   9.882   5.238   7.749
52937SOL     OW60649  13.235   6.710   9.293
52937SOL    HW160650  13.253   6.632   9.242
52937SOL    HW260651  13.186   6.767   9.235
52938SOL     OW60652   7.721   0.911  13.767
52938SOL    HW160653   7.688   0.982  13.823
52938SOL    HW260654   7.714   0.832  13.821
52939SOL     OW60655  13.342  11.012  12.710
52939SOL    HW160656  13.388  11.079  12.659
52939SOL    HW260657  13.252  11.016  12.680
52940SOL     OW60658   4.712   9.641   0.849
52940SOL    HW160659   4.763   9.648   0.930
52940SOL    HW260660   4.695   9.547   0.840
52941SOL     OW60661   4.857  14.742   5.089
52941SOL    HW160662   4.838  14.679   5.158
52941SOL    HW260663   4.807  14.711   5.013
52942SOL     OW60664   7.985   4.273  12.342
52942SOL    HW160665   7.976   4.365  12.317
52942SOL    HW260666   8.078   4.254  12.329
52943SOL     OW60667   9.013  10.251  10.775
52943SOL    HW160668   9.088  10.193  10.762
52943SOL    HW260669   8.937  10.195  10.760
52944SOL     OW60670  14.834   3.416   5.999
52944SOL    HW160671  14.849   3.396   5.906
52944SOL    HW260672   0.031   3.468   6.025
52945SOL     OW60673  11.925   6.765   3.265
52945SOL    HW160674  11.991   6.701   3.235
52945SOL    HW260675  11.903   6.736   3.354
52946SOL     OW60676   5.651  14.852   4.235
52946SOL    HW160677   5.670  14.758   4.233
52946SOL    HW260678   5.656  14.876   4.327
52947SOL     OW60679   2.639   7.796   0.703
52947SOL    HW160680   2.730   7.791   0.673
52947SOL    HW260681   2.610   7.704   0.706
52948SOL     OW60682   0.607  11.609   8.495
52948SOL    HW160683   0.680  11.671   8.501
52948SOL    HW260684   0.597  11.574   8.583
52949SOL     OW60685   8.418  12.060   3.658
52949SOL    HW160686   8.491  12.007   3.690
52949SOL    HW260687   8.368  12.082   3.737
52950SOL     OW60688   5.518   7.792  12.694
52950SOL    HW160689   5.458   7.719  12.677
52950SOL    HW260690   5.542   7.782  12.786
52951SOL     OW60691  13.132   4.846   3.298
52951SOL    HW160692  13.077   4.795   3.358
52951SOL    HW260693  13.126   4.935   3.330
52952SOL     OW60694   2.702   6.471   7.421
52952SOL    HW160695   2.725   6.542   7.361
52952SOL    HW260696   2.698   6.512   7.507
52953SOL     OW60697   8.053   3.873   2.866
52953SOL    HW160698   7.958   3.870   2.876
52953SOL    HW260699   8.078   3.780   2.860
52954SOL     OW60700   7.596   8.970  12.411
52954SOL    HW160701   7.606   9.060  12.442
52954SOL    HW260702   7.529   8.932  12.469
52955SOL     OW60703   9.397   0.082   4.266
52955SOL    HW160704   9.366   0.088   4.356
52955SOL    HW260705   9.318   0.090   4.213
52956SOL     OW60706   9.365   4.830   5.454
52956SOL    HW160707   9.411   4.804   5.533
52956SOL    HW260708   9.405   4.778   5.384
52957SOL     OW60709   2.298  13.210   8.561
52957SOL    HW160710   2.209  13.243   8.573
52957SOL    HW260711   2.318  13.164   8.643
52958SOL     OW60712  11.527  10.162   4.557
52958SOL    HW160713  11.433  10.177   4.568
52958SOL    HW260714  11.537  10.067   4.559
52959SOL     OW60715  11.287   0.230  13.522
52959SOL    HW160716  11.304   0.321  13.500
52959SOL    HW260717  11.233   0.198  13.449
52960SOL     OW60718   1.319  13.158  12.037
52960SOL    HW160719   1.268  13.176  12.116
52960SOL    HW260720   1.311  13.238  11.985
52961SOL     OW60721  14.508  10.684  11.266
52961SOL    HW160722  14.414  10.673  11.282
52961SOL    HW260723  14.549  10.616  11.319
52962SOL     OW60724  10.629   9.150   2.262
52962SOL    HW160725  10.591   9.143   2.175
52962SOL    HW260726  10.696   9.218   2.254
52963SOL     OW60727   4.032   2.445   6.568
52963SOL    HW160728   3.987   2.372   6.525
52963SOL    HW260729   4.107   2.464   6.512
52964SOL     OW60730   0.639   4.447   3.179
52964SOL    HW160731   0.620   4.399   3.098
52964SOL    HW260732   0.580   4.522   3.177
52965SOL     OW60733  11.891   2.461  12.291
52965SOL    HW160734  11.941   2.422  12.363
52965SOL    HW260735  11.946   2.449  12.214
52966SOL     OW60736   8.192   0.438   7.627
52966SOL    HW160737   8.125   0.497   7.593
52966SOL    HW260738   8.148   0.354   7.636
52967SOL     OW60739  11.279   6.644   5.598
52967SOL    HW160740  11.189   6.642   5.630
52967SOL    HW260741  11.271   6.656   5.503
52968SOL     OW60742  13.602   5.577   8.542
52968SOL    HW160743  13.633   5.627   8.618
52968SOL    HW260744  13.618   5.634   8.468
52969SOL     OW60745  14.248   0.135   6.214
52969SOL    HW160746  14.278   0.216   6.256
52969SOL    HW260747  14.231   0.159   6.123
52970SOL     OW60748   2.696  13.994   0.068
52970SOL    HW160749   2.621  14.011   0.011
52970SOL    HW260750   2.663  14.010   0.157
52971SOL     OW60751   7.679  12.392   5.280
52971SOL    HW160752   7.679  12.299   5.302
52971SOL    HW260753   7.754  12.403   5.221
52972SOL     OW60754   9.710  12.689   8.360
52972SOL    HW160755   9.651  12.761   8.382
52972SOL    HW260756   9.722  12.641   8.443
52973SOL     OW60757   2.983   7.280   7.528
52973SOL    HW160758   3.076   7.300   7.542
52973SOL    HW260759   2.938   7.364   7.538
52974SOL     OW60760  12.436  13.392   9.356
52974SOL    HW160761  12.468  13.357   9.273
52974SOL    HW260762  12.361  13.337   9.378
52975SOL     OW60763  11.587  10.519   3.478
52975SOL    HW160764  11.566  10.612   3.469
52975SOL    HW260765  11.682  10.515   3.472
52976SOL     OW60766   3.970   4.930  13.858
52976SOL    HW160767   3.941   4.943  13.948
52976SOL    HW260768   4.016   5.011  13.836
52977SOL     OW60769   8.171   4.200  10.958
52977SOL    HW160770   8.208   4.278  10.998
52977SOL    HW260771   8.244   4.139  10.952
52978SOL     OW60772   7.813  13.271   5.398
52978SOL    HW160773   7.847  13.184   5.416
52978SOL    HW260774   7.786  13.304   5.484
52979SOL     OW60775   7.667   6.541  12.448
52979SOL    HW160776   7.594   6.559  12.508
52979SOL    HW260777   7.721   6.620  12.453
52980SOL     OW60778  11.095   4.627  13.797
52980SOL    HW160779  11.168   4.645  13.739
52980SOL    HW260780  11.125   4.555  13.853
52981SOL     OW60781   0.343   6.956  14.440
52981SOL    HW160782   0.425   6.984  14.399
52981SOL    HW260783   0.293   6.916  14.369
52982SOL     OW60784   3.504   4.337   9.463
52982SOL    HW160785   3.590   4.296   9.456
52982SOL    HW260786   3.515   4.422   9.421
52983SOL     OW60787   1.874  10.286   0.608
52983SOL    HW160788   1.811  10.302   0.678
52983SOL    HW260789   1.881  10.371   0.563
52984SOL     OW60790   8.171   8.142  14.106
52984SOL    HW160791   8.108   8.199  14.062
52984SOL    HW260792   8.188   8.185  14.190
52985SOL     OW60793  11.587  10.413  13.526
52985SOL    HW160794  11.678  10.387  13.541
52985SOL    HW260795  11.535  10.347  13.571
52986SOL     OW60796  13.703  13.448   2.716
52986SOL    HW160797  13.730  13.445   2.624
52986SOL    HW260798  13.767  13.393   2.761
52987SOL     OW60799   5.259   4.605   9.369
52987SOL    HW160800   5.276   4.660   9.446
52987SOL    HW260801   5.309   4.525   9.385
52988SOL     OW60802  11.294   9.718   7.385
52988SOL    HW160803  11.262   9.629   7.402
52988SOL    HW260804  11.255   9.741   7.300
52989SOL     OW60805   0.683   0.515   2.796
52989SOL    HW160806   0.598   0.529   2.754
52989SOL    HW260807   0.665   0.521   2.890
52990SOL     OW60808   8.671   4.416  12.626
52990SOL    HW160809   8.745   4.383  12.575
52990SOL    HW260810   8.620   4.468  12.564
52991SOL     OW60811   9.314   4.026  11.145
52991SOL    HW160812   9.242   4.028  11.081
52991SOL    HW260813   9.309   4.110  11.189
52992SOL     OW60814   4.772   6.711   5.741
52992SOL    HW160815   4.686   6.750   5.761
52992SOL    HW260816   4.811   6.694   5.827
52993SOL     OW60817   4.018   0.034   9.253
52993SOL    HW160818   4.025   0.039   9.158
52993SOL    HW260819   3.937   0.081   9.274
52994SOL     OW60820   2.271   7.146   7.897
52994SOL    HW160821   2.233   7.233   7.907
52994SOL    HW260822   2.285   7.115   7.987
52995SOL     OW60823   5.382  10.800   4.502
52995SOL    HW160824   5.309  10.788   4.562
52995SOL    HW260825   5.431  10.719   4.507
52996SOL     OW60826   5.445  10.163  11.408
52996SOL    HW160827   5.537  10.140  11.394
52996SOL    HW260828   5.425  10.225  11.338
52997SOL     OW60829  11.409   9.601  10.815
52997SOL    HW160830  11.469   9.527  10.812
52997SOL    HW260831  11.453   9.666  10.870
52998SOL     OW60832   2.325  10.973  12.199
52998SOL    HW160833   2.263  10.941  12.133
52998SOL    HW260834   2.411  10.961  12.158
52999SOL     OW60835   3.776   3.927   6.222
52999SOL    HW160836   3.768   3.864   6.293
52999SOL    HW260837   3.786   3.873   6.143
53000SOL     OW60838   9.414  10.948   9.652
53000SOL    HW160839   9.370  10.959   9.567
53000SOL    HW260840   9.506  10.967   9.634
53001SOL     OW60841   9.602   2.765  11.911
53001SOL    HW160842   9.511   2.743  11.928
53001SOL    HW260843   9.648   2.681  11.907
53002SOL     OW60844  14.040   0.958   8.591
53002SOL    HW160845  14.083   0.901   8.656
53002SOL    HW260846  14.029   0.903   8.514
53003SOL     OW60847   2.620  11.068  13.397
53003SOL    HW160848   2.553  11.001  13.382
53003SOL    HW260849   2.667  11.038  13.474
53004SOL     OW60850  12.325   4.344  14.369
53004SOL    HW160851  12.257   4.280  14.349
53004SOL    HW260852  12.390   4.295  14.421
53005SOL     OW60853  14.664  13.393   2.104
53005SOL    HW160854  14.668  13.475   2.056
53005SOL    HW260855  14.633  13.418   2.191
53006SOL     OW60856  11.150  10.679  13.304
53006SOL    HW160857  11.132  10.615  13.373
53006SOL    HW260858  11.065  10.719  13.285
53007SOL     OW60859   0.005  12.522  10.791
53007SOL    HW160860   0.035  12.558  10.875
53007SOL    HW260861   0.010  12.595  10.730
53008SOL     OW60862  11.317   2.429   3.878
53008SOL    HW160863  11.311   2.337   3.853
53008SOL    HW260864  11.399   2.436   3.925
53009SOL     OW60865   8.387  11.687  13.526
53009SOL    HW160866   8.469  11.676  13.478
53009SOL    HW260867   8.380  11.782  13.539
53010SOL     OW60868  12.230   7.060   7.142
53010SOL    HW160869  12.194   7.076   7.230
53010SOL    HW260870  12.186   7.125   7.086
53011SOL     OW60871  10.405   1.507   2.424
53011SOL    HW160872  10.457   1.458   2.487
53011SOL    HW260873  10.379   1.587   2.469
53012SOL     OW60874  12.775  13.700   8.606
53012SOL    HW160875  12.762  13.748   8.524
53012SOL    HW260876  12.692  13.655   8.621
53013SOL     OW60877  13.435   7.230  11.427
53013SOL    HW160878  13.417   7.245  11.520
53013SOL    HW260879  13.495   7.156  11.426
53014SOL     OW60880  13.585   5.405   4.119
53014SOL    HW160881  13.551   5.403   4.208
53014SOL    HW260882  13.679   5.389   4.128
53015SOL     OW60883   6.296   2.895   0.585
53015SOL    HW160884   6.329   2.852   0.507
53015SOL    HW260885   6.203   2.871   0.589
53016SOL     OW60886   7.568   1.306  14.058
53016SOL    HW160887   7.567   1.378  13.996
53016SOL    HW260888   7.538   1.344  14.140
53017SOL     OW60889  13.529  13.684   5.544
53017SOL    HW160890  13.483  13.731   5.474
53017SOL    HW260891  13.459  13.656   5.604
53018SOL     OW60892  10.155   1.744   2.114
53018SOL    HW160893  10.079   1.745   2.056
53018SOL    HW260894  10.131   1.804   2.185
53019SOL     OW60895   1.583   8.082   6.492
53019SOL    HW160896   1.514   8.015   6.494
53019SOL    HW260897   1.541   8.159   6.455
53020SOL     OW60898   7.173   6.825   6.344
53020SOL    HW160899   7.167   6.881   6.266
53020SOL    HW260900   7.182   6.887   6.416
53021SOL     OW60901  13.376   1.593   8.218
53021SOL    HW160902  13.414   1.632   8.139
53021SOL    HW260903  13.442   1.532   8.249
53022SOL     OW60904  13.769   8.582   5.158
53022SOL    HW160905  13.773   8.581   5.062
53022SOL    HW260906  13.853   8.620   5.185
53023SOL     OW60907   0.598   7.741   6.903
53023SOL    HW160908   0.522   7.710   6.853
53023SOL    HW260909   0.580   7.712   6.992
53024SOL     OW60910  11.886   1.878   9.471
53024SOL    HW160911  11.968   1.831   9.483
53024SOL    HW260912  11.869   1.872   9.377
53025SOL     OW60913   7.921   8.673  12.084
53025SOL    HW160914   7.942   8.650  11.994
53025SOL    HW260915   7.845   8.618  12.106
53026SOL     OW60916   1.930   9.372   5.069
53026SOL    HW160917   2.011   9.322   5.067
53026SOL    HW260918   1.887   9.352   4.986
53027SOL     OW60919   8.406  13.904  11.191
53027SOL    HW160920   8.405  13.919  11.097
53027SOL    HW260921   8.391  13.809  11.201
53028SOL     OW60922   0.579  13.522  14.425
53028SOL    HW160923   0.513  13.500  14.491
53028SOL    HW260924   0.662  13.514  14.470
53029SOL     OW60925   5.265  14.330   4.860
53029SOL    HW160926   5.188  14.335   4.917
53029SOL    HW260927   5.330  14.281   4.911
53030SOL     OW60928  10.117   3.054   1.142
53030SOL    HW160929  10.051   3.054   1.212
53030SOL    HW260930  10.192   3.098   1.181
53031SOL     OW60931  12.050   9.267   7.312
53031SOL    HW160932  12.070   9.174   7.311
53031SOL    HW260933  11.966   9.275   7.267
53032SOL     OW60934  13.585  14.757   3.613
53032SOL    HW160935  13.679  14.765   3.599
53032SOL    HW260936  13.548  14.836   3.574
53033SOL     OW60937   9.085  10.387  10.299
53033SOL    HW160938   9.118  10.300  10.317
53033SOL    HW260939   9.045  10.416  10.381
53034SOL     OW60940   6.235   2.778  11.891
53034SOL    HW160941   6.155   2.726  11.879
53034SOL    HW260942   6.283   2.767  11.809
53035SOL     OW60943  12.175   7.824  11.859
53035SOL    HW160944  12.089   7.822  11.819
53035SOL    HW260945  12.158   7.821  11.953
53036SOL     OW60946   5.698   5.646  13.434
53036SOL    HW160947   5.735   5.560  13.413
53036SOL    HW260948   5.616   5.650  13.384
53037SOL     OW60949   5.207   1.909   1.372
53037SOL    HW160950   5.189   1.821   1.403
53037SOL    HW260951   5.179   1.909   1.280
53038SOL     OW60952   1.878  13.492  12.198
53038SOL    HW160953   1.909  13.424  12.140
53038SOL    HW260954   1.798  13.456  12.237
53039SOL     OW60955  10.367   9.618   4.314
53039SOL    HW160956  10.463   9.619   4.311
53039SOL    HW260957  10.344   9.701   4.355
53040SOL     OW60958   3.099  12.634   6.104
53040SOL    HW160959   3.179  12.597   6.067
53040SOL    HW260960   3.082  12.712   6.051
53041SOL     OW60961  12.576   1.191   5.707
53041SOL    HW160962  12.575   1.163   5.798
53041SOL    HW260963  12.491   1.231   5.692
53042SOL     OW60964   6.856   4.955   1.301
53042SOL    HW160965   6.905   4.923   1.225
53042SOL    HW260966   6.891   4.906   1.375
53043SOL     OW60967  10.514  12.603   9.583
53043SOL    HW160968  10.543  12.622   9.493
53043SOL    HW260969  10.592  12.571   9.627
53044SOL     OW60970   0.965  12.745   8.978
53044SOL    HW160971   0.925  12.660   8.994
53044SOL    HW260972   0.903  12.791   8.921
53045SOL     OW60973  11.244  11.944   1.852
53045SOL    HW160974  11.155  11.913   1.869
53045SOL    HW260975  11.255  11.934   1.758
53046SOL     OW60976   0.482   9.102   9.893
53046SOL    HW160977   0.437   9.085   9.976
53046SOL    HW260978   0.458   9.028   9.837
53047SOL     OW60979   6.603   8.694  10.699
53047SOL    HW160980   6.574   8.784  10.713
53047SOL    HW260981   6.673   8.701  10.635
53048SOL     OW60982  10.251   9.455   4.092
53048SOL    HW160983  10.291   9.523   4.147
53048SOL    HW260984  10.326   9.408   4.055
53049SOL     OW60985   5.405   8.429   1.660
53049SOL    HW160986   5.337   8.466   1.602
53049SOL    HW260987   5.367   8.347   1.692
53050SOL     OW60988   8.979   1.870   1.756
53050SOL    HW160989   9.025   1.953   1.744
53050SOL    HW260990   9.024   1.808   1.698
53051SOL     OW60991   9.301   9.165   9.957
53051SOL    HW160992   9.212   9.168   9.922
53051SOL    HW260993   9.355   9.206   9.890
53052SOL     OW60994   4.164   9.474   8.888
53052SOL    HW160995   4.146   9.563   8.856
53052SOL    HW260996   4.207   9.431   8.815
53053SOL     OW60997   7.515   5.721   5.847
53053SOL    HW160998   7.518   5.773   5.766
53053SOL    HW260999   7.602   5.731   5.885
53054SOL     OW61000  10.850   3.341   0.480
53054SOL    HW161001  10.762   3.370   0.454
53054SOL    HW261002  10.908   3.410   0.446
53055SOL     OW61003   4.528   3.928  14.230
53055SOL    HW161004   4.611   3.952  14.271
53055SOL    HW261005   4.549   3.853  14.174
53056SOL     OW61006   9.554  14.035   4.791
53056SOL    HW161007   9.610  13.986   4.852
53056SOL    HW261008   9.610  14.053   4.716
53057SOL     OW61009  12.516   5.358  11.957
53057SOL    HW161010  12.483   5.276  11.920
53057SOL    HW261011  12.558   5.402  11.883
53058SOL     OW61012   6.565   1.708  14.291
53058SOL    HW161013   6.567   1.704  14.195
53058SOL    HW261014   6.484   1.663  14.315
53059SOL     OW61015   6.899   7.944   0.340
53059SOL    HW161016   6.837   7.904   0.279
53059SOL    HW261017   6.984   7.938   0.295
53060SOL     OW61018   0.775  12.905   3.310
53060SOL    HW161019   0.779  12.907   3.215
53060SOL    HW261020   0.865  12.922   3.338
53061SOL     OW61021  10.692   4.868   3.373
53061SOL    HW161022  10.612   4.918   3.354
53061SOL    HW261023  10.666   4.777   3.364
53062SOL     OW61024  14.841   9.574   6.977
53062SOL    HW161025   0.014   9.522   6.916
53062SOL    HW261026  14.837   9.661   6.937
53063SOL     OW61027  11.237   4.306   9.847
53063SOL    HW161028  11.146   4.333   9.836
53063SOL    HW261029  11.242   4.273   9.937
53064SOL     OW61030  12.095   2.978   6.663
53064SOL    HW161031  12.059   3.065   6.648
53064SOL    HW261032  12.172   2.993   6.718
53065SOL     OW61033   1.784  13.749   7.660
53065SOL    HW161034   1.828  13.760   7.575
53065SOL    HW261035   1.700  13.794   7.649
53066SOL     OW61036  10.296   5.799   1.474
53066SOL    HW161037  10.260   5.774   1.559
53066SOL    HW261038  10.374   5.744   1.464
53067SOL     OW61039  10.778  10.742  11.105
53067SOL    HW161040  10.781  10.660  11.154
53067SOL    HW261041  10.701  10.735  11.049
53068SOL     OW61042  11.255   2.723  11.322
53068SOL    HW161043  11.197   2.756  11.391
53068SOL    HW261044  11.271   2.632  11.346
53069SOL     OW61045   8.704  13.448  12.811
53069SOL    HW161046   8.630  13.474  12.866
53069SOL    HW261047   8.664  13.404  12.736
53070SOL     OW61048   7.619   1.277   8.868
53070SOL    HW161049   7.580   1.350   8.915
53070SOL    HW261050   7.553   1.252   8.804
53071SOL     OW61051  10.782   4.147  12.740
53071SOL    HW161052  10.798   4.240  12.724
53071SOL    HW261053  10.864   4.104  12.716
53072SOL     OW61054   0.765   8.225   8.320
53072SOL    HW161055   0.696   8.191   8.378
53072SOL    HW261056   0.845   8.218   8.372
53073SOL     OW61057   5.781   4.017   6.950
53073SOL    HW161058   5.756   4.083   6.885
53073SOL    HW261059   5.709   3.954   6.949
53074SOL     OW61060   6.642   5.633   6.404
53074SOL    HW161061   6.625   5.642   6.498
53074SOL    HW261062   6.714   5.693   6.387
53075SOL     OW61063   1.856   1.285   6.033
53075SOL    HW161064   1.941   1.310   6.070
53075SOL    HW261065   1.817   1.368   6.005
53076SOL     OW61066   1.927   8.964   1.253
53076SOL    HW161067   1.869   8.908   1.201
53076SOL    HW261068   1.968   9.022   1.189
53077SOL     OW61069   3.741  13.268  11.801
53077SOL    HW161070   3.748  13.312  11.717
53077SOL    HW261071   3.789  13.186  11.790
53078SOL     OW61072   4.968  14.780  14.676
53078SOL    HW161073   4.931  14.853  14.725
53078SOL    HW261074   4.968  14.809  14.585
53079SOL     OW61075  13.619   9.920   2.556
53079SOL    HW161076  13.706   9.898   2.588
53079SOL    HW261077  13.577   9.835   2.541
53080SOL     OW61078   4.829   6.000   2.241
53080SOL    HW161079   4.904   5.979   2.296
53080SOL    HW261080   4.784   5.917   2.227
53081SOL     OW61081   1.900   6.088   9.764
53081SOL    HW161082   1.879   6.002   9.802
53081SOL    HW261083   1.946   6.067   9.683
53082SOL     OW61084  14.268   1.712  11.766
53082SOL    HW161085  14.361   1.692  11.783
53082SOL    HW261086  14.269   1.765  11.687
53083SOL     OW61087  13.841   8.668  14.536
53083SOL    HW161088  13.746   8.658  14.549
53083SOL    HW261089  13.856   8.762  14.547
53084SOL     OW61090   1.129  10.835   8.182
53084SOL    HW161091   1.124  10.855   8.275
53084SOL    HW261092   1.123  10.740   8.177
53085SOL     OW61093   3.893   9.178  13.488
53085SOL    HW161094   3.943   9.255  13.515
53085SOL    HW261095   3.959   9.116  13.457
53086SOL     OW61096   0.033   5.887   3.465
53086SOL    HW161097   0.056   5.885   3.558
53086SOL    HW261098  14.831   5.936   3.462
53087SOL     OW61099   7.034   9.763   5.120
53087SOL    HW161100   7.093   9.814   5.064
53087SOL    HW261101   6.968   9.730   5.060
53088SOL     OW61102   7.488   6.861   2.644
53088SOL    HW161103   7.530   6.851   2.558
53088SOL    HW261104   7.527   6.793   2.698
53089SOL     OW61105   1.234   5.533  10.953
53089SOL    HW161106   1.314   5.586  10.952
53089SOL    HW261107   1.233   5.491  11.039
53090SOL     OW61108   4.162   0.656   0.187
53090SOL    HW161109   4.177   0.681   0.095
53090SOL    HW261110   4.153   0.740   0.233
53091SOL     OW61111  13.972  10.228   4.800
53091SOL    HW161112  14.005  10.236   4.889
53091SOL    HW261113  14.048  10.204   4.748
53092SOL     OW61114  12.813   3.050   3.386
53092SOL    HW161115  12.805   2.967   3.339
53092SOL    HW261116  12.902   3.080   3.367
53093SOL     OW61117  14.106  13.185   7.247
53093SOL    HW161118  14.180  13.198   7.307
53093SOL    HW261119  14.049  13.260   7.263
53094SOL     OW61120  11.349   5.854   9.440
53094SOL    HW161121  11.322   5.771   9.479
53094SOL    HW261122  11.324   5.847   9.348
53095SOL     OW61123   9.181  11.491   8.591
53095SOL    HW161124   9.238  11.567   8.578
53095SOL    HW261125   9.214  11.449   8.670
53096SOL     OW61126  14.823   9.130  14.708
53096SOL    HW161127  14.818   9.169  14.795
53096SOL    HW261128  14.791   9.198  14.649
53097SOL     OW61129   2.964   3.993   7.249
53097SOL    HW161130   3.054   3.999   7.217
53097SOL    HW261131   2.913   4.045   7.188
53098SOL     OW61132   4.124  14.152   0.684
53098SOL    HW161133   4.129  14.231   0.738
53098SOL    HW261134   4.144  14.080   0.744
53099SOL     OW61135   8.679   5.733   8.868
53099SOL    HW161136   8.722   5.795   8.809
53099SOL    HW261137   8.587   5.757   8.865
53100SOL     OW61138  12.199   8.165   7.636
53100SOL    HW161139  12.172   8.156   7.727
53100SOL    HW261140  12.127   8.212   7.594
53101SOL     OW61141   0.228  14.621   8.834
53101SOL    HW161142   0.269  14.666   8.760
53101SOL    HW261143   0.134  14.638   8.824
53102SOL     OW61144  10.708  14.708   5.432
53102SOL    HW161145  10.777  14.747   5.487
53102SOL    HW261146  10.642  14.678   5.494
53103SOL     OW61147   4.575  12.205   4.777
53103SOL    HW161148   4.579  12.146   4.852
53103SOL    HW261149   4.540  12.152   4.706
53104SOL     OW61150   8.620   7.362   8.486
53104SOL    HW161151   8.645   7.270   8.493
53104SOL    HW261152   8.560   7.376   8.559
53105SOL     OW61153   0.727   2.292   5.487
53105SOL    HW161154   0.646   2.330   5.520
53105SOL    HW261155   0.795   2.325   5.546
53106SOL     OW61156   2.211   1.986   4.036
53106SOL    HW161157   2.247   1.900   4.013
53106SOL    HW261158   2.288   2.040   4.055
53107SOL     OW61159   7.420   1.532   3.462
53107SOL    HW161160   7.413   1.619   3.501
53107SOL    HW261161   7.489   1.488   3.511
53108SOL     OW61162   2.716  11.296  11.573
53108SOL    HW161163   2.781  11.364  11.555
53108SOL    HW261164   2.688  11.265  11.487
53109SOL     OW61165   6.972   8.991   9.402
53109SOL    HW161166   6.990   8.965   9.311
53109SOL    HW261167   6.917   9.068   9.394
53110SOL     OW61168   1.156   2.237   6.513
53110SOL    HW161169   1.166   2.206   6.423
53110SOL    HW261170   1.062   2.257   6.521
53111SOL     OW61171   3.762   8.871   9.669
53111SOL    HW161172   3.819   8.940   9.636
53111SOL    HW261173   3.821   8.801   9.696
53112SOL     OW61174  11.749   7.038   6.386
53112SOL    HW161175  11.657   7.039   6.413
53112SOL    HW261176  11.772   7.131   6.378
53113SOL     OW61177   0.355  13.851   4.937
53113SOL    HW161178   0.305  13.836   4.857
53113SOL    HW261179   0.389  13.765   4.960
53114SOL     OW61180   1.940   1.256   3.372
53114SOL    HW161181   1.877   1.197   3.332
53114SOL    HW261182   1.910   1.265   3.463
53115SOL     OW61183   2.906   5.844  11.449
53115SOL    HW161184   2.847   5.773  11.422
53115SOL    HW261185   2.848   5.911  11.485
53116SOL     OW61186   3.931   2.685  13.547
53116SOL    HW161187   3.949   2.747  13.477
53116SOL    HW261188   4.013   2.679  13.596
53117SOL     OW61189  14.184  12.824   7.657
53117SOL    HW161190  14.136  12.859   7.582
53117SOL    HW261191  14.121  12.826   7.729
53118SOL     OW61192   2.796   0.148  13.090
53118SOL    HW161193   2.702   0.161  13.096
53118SOL    HW261194   2.808   0.086  13.018
53119SOL     OW61195   6.838  10.479  12.096
53119SOL    HW161196   6.787  10.400  12.076
53119SOL    HW261197   6.868  10.510  12.011
53120SOL     OW61198   2.244   0.840  14.259
53120SOL    HW161199   2.297   0.920  14.261
53120SOL    HW261200   2.298   0.776  14.212
53121SOL     OW61201  11.643  14.762   3.425
53121SOL    HW161202  11.573  14.806   3.474
53121SOL    HW261203  11.717  14.822   3.430
53122SOL     OW61204   9.736  12.131   4.134
53122SOL    HW161205   9.797  12.096   4.199
53122SOL    HW261206   9.659  12.156   4.185
53123SOL     OW61207  14.474   3.378   4.287
53123SOL    HW161208  14.440   3.354   4.373
53123SOL    HW261209  14.404   3.428   4.246
53124SOL     OW61210   5.511   1.670   9.031
53124SOL    HW161211   5.585   1.716   9.071
53124SOL    HW261212   5.464   1.632   9.106
53125SOL     OW61213  13.467   9.576   9.492
53125SOL    HW161214  13.525   9.550   9.420
53125SOL    HW261215  13.399   9.630   9.451
53126SOL     OW61216  14.809   7.575   0.585
53126SOL    HW161217  14.852   7.542   0.506
53126SOL    HW261218  14.853   7.529   0.657
53127SOL     OW61219   4.004  12.799   5.256
53127SOL    HW161220   4.062  12.874   5.244
53127SOL    HW261221   3.993  12.791   5.351
53128SOL     OW61222   3.556   9.229  11.261
53128SOL    HW161223   3.627   9.251  11.321
53128SOL    HW261224   3.597   9.235  11.174
53129SOL     OW61225   5.922   7.292  13.721
53129SOL    HW161226   5.902   7.237  13.645
53129SOL    HW261227   5.931   7.230  13.793
53130SOL     OW61228   7.031   6.151   9.415
53130SOL    HW161229   6.946   6.108   9.407
53130SOL    HW261230   7.022   6.209   9.491
53131SOL     OW61231   2.543   2.860  12.587
53131SOL    HW161232   2.611   2.925  12.568
53131SOL    HW261233   2.474   2.878  12.524
53132SOL     OW61234   8.929  14.590   2.943
53132SOL    HW161235   8.834  14.591   2.930
53132SOL    HW261236   8.940  14.557   3.032
53133SOL     OW61237   2.552   7.241   1.091
53133SOL    HW161238   2.563   7.162   1.143
53133SOL    HW261239   2.466   7.275   1.117
53134SOL     OW61240   2.304   6.481   9.512
53134SOL    HW161241   2.276   6.555   9.459
53134SOL    HW261242   2.240   6.412   9.494
53135SOL     OW61243  13.715   8.490  12.369
53135SOL    HW161244  13.652   8.512  12.438
53135SOL    HW261245  13.797   8.476  12.416
53136SOL     OW61246  10.258  11.028   2.182
53136SOL    HW161247  10.174  11.051   2.143
53136SOL    HW261248  10.236  11.004   2.273
53137SOL     OW61249   6.741   4.189  10.779
53137SOL    HW161250   6.756   4.107  10.732
53137SOL    HW261251   6.814   4.195  10.841
53138SOL     OW61252   4.976  10.957   3.782
53138SOL    HW161253   5.044  10.996   3.837
53138SOL    HW261254   4.988  10.862   3.793
53139SOL     OW61255  14.628   5.513   0.259
53139SOL    HW161256  14.577   5.585   0.222
53139SOL    HW261257  14.703   5.555   0.300
53140SOL     OW61258   0.152  14.755  10.361
53140SOL    HW161259   0.095  14.819  10.317
53140SOL    HW261260   0.174  14.796  10.444
53141SOL     OW61261  10.543   4.432  12.757
53141SOL    HW161262  10.492   4.358  12.725
53141SOL    HW261263  10.551   4.490  12.681
53142SOL     OW61264  10.078   2.869  12.011
53142SOL    HW161265  10.084   2.847  11.918
53142SOL    HW261266  10.165   2.903  12.033
53143SOL     OW61267   7.126   4.479   6.419
53143SOL    HW161268   7.043   4.459   6.374
53143SOL    HW261269   7.157   4.560   6.378
53144SOL     OW61270  14.735   3.462   9.688
53144SOL    HW161271  14.722   3.484   9.596
53144SOL    HW261272  14.714   3.543   9.735
53145SOL     OW61273   4.258   3.622  14.184
53145SOL    HW161274   4.242   3.549  14.243
53145SOL    HW261275   4.353   3.627  14.177
53146SOL     OW61276   5.022  10.340   3.171
53146SOL    HW161277   4.944  10.291   3.195
53146SOL    HW261278   4.990  10.412   3.116
53147SOL     OW61279  11.688   5.857   9.119
53147SOL    HW161280  11.665   5.838   9.027
53147SOL    HW261281  11.743   5.935   9.113
53148SOL     OW61282  11.656   8.840   0.703
53148SOL    HW161283  11.671   8.756   0.662
53148SOL    HW261284  11.586   8.880   0.651
53149SOL     OW61285   3.217   8.722  14.046
53149SOL    HW161286   3.240   8.691  13.958
53149SOL    HW261287   3.260   8.807  14.053
53150SOL     OW61288   0.089   3.140  14.816
53150SOL    HW161289   0.072   3.189   0.017
53150SOL    HW261290   0.167   3.181  14.780
53151SOL     OW61291   7.387   0.183  12.642
53151SOL    HW161292   7.307   0.205  12.690
53151SOL    HW261293   7.446   0.256  12.658
53152SOL     OW61294  11.492   4.727   3.199
53152SOL    HW161295  11.555   4.775   3.254
53152SOL    HW261296  11.432   4.794   3.169
53153SOL     OW61297  14.463   9.787   7.976
53153SOL    HW161298  14.456   9.753   8.065
53153SOL    HW261299  14.396   9.855   7.971
53154SOL     OW61300   2.715   3.381  11.042
53154SOL    HW161301   2.779   3.336  11.096
53154SOL    HW261302   2.638   3.391  11.098
53155SOL     OW61303  14.598   3.582  12.452
53155SOL    HW161304  14.563   3.575  12.541
53155SOL    HW261305  14.674   3.523  12.451
53156SOL     OW61306   3.415   3.021  14.595
53156SOL    HW161307   3.390   3.069  14.673
53156SOL    HW261308   3.497   2.978  14.619
53157SOL     OW61309   0.502   1.271   6.397
53157SOL    HW161310   0.504   1.185   6.355
53157SOL    HW261311   0.415   1.277   6.437
53158SOL     OW61312   2.134   8.107  10.954
53158SOL    HW161313   2.221   8.112  10.914
53158SOL    HW261314   2.084   8.177  10.913
53159SOL     OW61315  11.523   9.636   2.728
53159SOL    HW161316  11.502   9.730   2.727
53159SOL    HW261317  11.439   9.592   2.718
53160SOL     OW61318   6.868   8.199  12.703
53160SOL    HW161319   6.885   8.189  12.797
53160SOL    HW261320   6.803   8.132  12.684
53161SOL     OW61321  12.882   4.317   9.987
53161SOL    HW161322  12.912   4.404   9.962
53161SOL    HW261323  12.959   4.261   9.977
53162SOL     OW61324   4.840  13.197  13.149
53162SOL    HW161325   4.804  13.200  13.061
53162SOL    HW261326   4.774  13.239  13.204
53163SOL     OW61327   2.734   2.737   1.303
53163SOL    HW161328   2.671   2.742   1.375
53163SOL    HW261329   2.819   2.736   1.346
53164SOL     OW61330  11.981   6.847   2.062
53164SOL    HW161331  11.959   6.874   1.973
53164SOL    HW261332  11.989   6.929   2.111
53165SOL     OW61333   1.498   3.448  10.174
53165SOL    HW161334   1.534   3.383  10.234
53165SOL    HW261335   1.435   3.400  10.120
53166SOL     OW61336   7.115   8.614  10.727
53166SOL    HW161337   7.065   8.544  10.683
53166SOL    HW261338   7.085   8.611  10.818
53167SOL     OW61339  14.666  14.639   6.114
53167SOL    HW161340  14.657  14.662   6.021
53167SOL    HW261341  14.638  14.718   6.161
53168SOL     OW61342  13.677   3.822  11.313
53168SOL    HW161343  13.755   3.849  11.265
53168SOL    HW261344  13.634   3.758  11.256
53169SOL     OW61345   8.489   6.641   3.637
53169SOL    HW161346   8.394   6.629   3.636
53169SOL    HW261347   8.507   6.689   3.717
53170SOL     OW61348   0.529  14.408   9.498
53170SOL    HW161349   0.596  14.473   9.475
53170SOL    HW261350   0.447  14.458   9.498
53171SOL     OW61351  12.834   5.790  12.542
53171SOL    HW161352  12.756   5.809  12.489
53171SOL    HW261353  12.847   5.696  12.531
53172SOL     OW61354  14.021  13.453   9.282
53172SOL    HW161355  14.041  13.430   9.373
53172SOL    HW261356  14.094  13.416   9.231
53173SOL     OW61357  10.531  10.447   6.011
53173SOL    HW161358  10.618  10.417   5.986
53173SOL    HW261359  10.471  10.382   5.975
53174SOL     OW61360   0.390  10.181  14.593
53174SOL    HW161361   0.474  10.196  14.550
53174SOL    HW261362   0.348  10.267  14.594
53175SOL     OW61363   5.910  14.270   2.608
53175SOL    HW161364   5.908  14.182   2.572
53175SOL    HW261365   5.992  14.308   2.576
53176SOL     OW61366   6.906   5.803   8.801
53176SOL    HW161367   6.836   5.746   8.832
53176SOL    HW261368   6.969   5.745   8.759
53177SOL     OW61369   9.227  11.924   9.131
53177SOL    HW161370   9.160  11.992   9.126
53177SOL    HW261371   9.302  11.966   9.174
53178SOL     OW61372  14.067   1.757   9.868
53178SOL    HW161373  14.045   1.836   9.820
53178SOL    HW261374  13.985   1.708   9.873
53179SOL     OW61375  14.863  10.491   1.981
53179SOL    HW161376  14.877  10.428   2.052
53179SOL    HW261377  14.841  10.573   2.025
53180SOL     OW61378   5.420  13.413   3.226
53180SOL    HW161379   5.503  13.437   3.185
53180SOL    HW261380   5.357  13.477   3.192
53181SOL     OW61381  11.445   0.449   9.507
53181SOL    HW161382  11.489   0.383   9.561
53181SOL    HW261383  11.385   0.493   9.567
53182SOL     OW61384  13.609   9.305   0.861
53182SOL    HW161385  13.680   9.348   0.813
53182SOL    HW261386  13.568   9.375   0.912
53183SOL     OW61387   6.380   9.126   4.701
53183SOL    HW161388   6.420   9.130   4.788
53183SOL    HW261389   6.313   9.058   4.709
53184SOL     OW61390   1.622   1.504   7.924
53184SOL    HW161391   1.566   1.449   7.871
53184SOL    HW261392   1.609   1.472   8.014
53185SOL     OW61393  12.750  10.717   9.862
53185SOL    HW161394  12.803  10.784   9.905
53185SOL    HW261395  12.766  10.638   9.913
53186SOL     OW61396   5.888   3.556   4.681
53186SOL    HW161397   5.874   3.521   4.594
53186SOL    HW261398   5.943   3.491   4.725
53187SOL     OW61399  13.868  13.937  13.187
53187SOL    HW161400  13.825  13.878  13.125
53187SOL    HW261401  13.860  13.893  13.271
53188SOL     OW61402   7.974  14.730  11.927
53188SOL    HW161403   7.889  14.755  11.892
53188SOL    HW261404   8.016  14.812  11.950
53189SOL     OW61405  13.892  14.538  12.391
53189SOL    HW161406  13.834  14.577  12.456
53189SOL    HW261407  13.962  14.497  12.441
53190SOL     OW61408   0.431   5.311   3.839
53190SOL    HW161409   0.466   5.327   3.926
53190SOL    HW261410   0.406   5.218   3.840
53191SOL     OW61411  14.787  12.907   5.671
53191SOL    HW161412  14.713  12.941   5.722
53191SOL    HW261413  14.840  12.860   5.735
53192SOL     OW61414   9.316  10.899   9.413
53192SOL    HW161415   9.316  10.804   9.400
53192SOL    HW261416   9.274  10.935   9.336
53193SOL     OW61417  14.359   4.958   3.933
53193SOL    HW161418  14.349   5.032   3.993
53193SOL    HW261419  14.290   4.897   3.959
53194SOL     OW61420   7.470   5.894   1.461
53194SOL    HW161421   7.377   5.890   1.442
53194SOL    HW261422   7.512   5.901   1.376
53195SOL     OW61423  11.940   8.770  12.599
53195SOL    HW161424  11.994   8.826  12.654
53195SOL    HW261425  11.976   8.682  12.611
53196SOL     OW61426   2.767   0.160   9.110
53196SOL    HW161427   2.677   0.175   9.083
53196SOL    HW261428   2.816   0.156   9.028
53197SOL     OW61429   2.018   8.338   4.695
53197SOL    HW161430   2.037   8.430   4.710
53197SOL    HW261431   2.101   8.300   4.668
53198SOL     OW61432   2.242   4.255   4.364
53198SOL    HW161433   2.162   4.201   4.371
53198SOL    HW261434   2.259   4.261   4.270
53199SOL     OW61435   4.435   1.006   4.306
53199SOL    HW161436   4.360   1.038   4.256
53199SOL    HW261437   4.404   0.925   4.346
53200SOL     OW61438  13.555   6.774   0.627
53200SOL    HW161439  13.535   6.774   0.533
53200SOL    HW261440  13.560   6.681   0.650
53201SOL     OW61441   2.277  10.165   8.584
53201SOL    HW161442   2.220  10.170   8.661
53201SOL    HW261443   2.217  10.148   8.511
53202SOL     OW61444   2.699   3.130   2.022
53202SOL    HW161445   2.740   3.217   2.023
53202SOL    HW261446   2.743   3.082   2.092
53203SOL     OW61447  14.131  11.809   6.632
53203SOL    HW161448  14.151  11.895   6.668
53203SOL    HW261449  14.187  11.801   6.555
53204SOL     OW61450   2.510   8.209   0.594
53204SOL    HW161451   2.604   8.193   0.601
53204SOL    HW261452   2.471   8.150   0.659
53205SOL     OW61453  10.764   1.794  13.961
53205SOL    HW161454  10.822   1.722  13.988
53205SOL    HW261455  10.771   1.796  13.866
53206SOL     OW61456   7.511   4.741  13.627
53206SOL    HW161457   7.471   4.654  13.629
53206SOL    HW261458   7.601   4.726  13.598
53207SOL     OW61459   2.498   7.872  10.422
53207SOL    HW161460   2.417   7.900  10.466
53207SOL    HW261461   2.469   7.811  10.354
53208SOL     OW61462   0.897  14.358  13.794
53208SOL    HW161463   0.805  14.372  13.817
53208SOL    HW261464   0.920  14.275  13.836
53209SOL     OW61465   4.402  11.858  12.532
53209SOL    HW161466   4.488  11.868  12.489
53209SOL    HW261467   4.341  11.844  12.459
53210SOL     OW61468   5.520   7.261  10.811
53210SOL    HW161469   5.511   7.241  10.717
53210SOL    HW261470   5.485   7.184  10.855
53211SOL     OW61471   9.375  14.768  10.956
53211SOL    HW161472   9.339  14.835  10.898
53211SOL    HW261473   9.374  14.809  11.043
53212SOL     OW61474  11.738  10.521   9.204
53212SOL    HW161475  11.703  10.434   9.225
53212SOL    HW261476  11.819  10.526   9.254
53213SOL     OW61477  10.520  12.327   6.917
53213SOL    HW161478  10.514  12.295   7.007
53213SOL    HW261479  10.464  12.268   6.867
53214SOL     OW61480   6.872   3.615   9.259
53214SOL    HW161481   6.789   3.659   9.278
53214SOL    HW261482   6.927   3.683   9.220
53215SOL     OW61483  10.144   3.046   6.014
53215SOL    HW161484  10.071   2.986   5.995
53215SOL    HW261485  10.115   3.131   5.981
53216SOL     OW61486   1.615   2.329   5.189
53216SOL    HW161487   1.669   2.254   5.166
53216SOL    HW261488   1.638   2.396   5.125
53217SOL     OW61489   2.410   3.801  14.831
53217SOL    HW161490   2.437   3.728  14.775
53217SOL    HW261491   2.354   3.761   0.017
53218SOL     OW61492   6.348  12.434   4.548
53218SOL    HW161493   6.334  12.344   4.575
53218SOL    HW261494   6.359  12.482   4.631
53219SOL     OW61495  13.233   3.418   3.174
53219SOL    HW161496  13.314   3.380   3.208
53219SOL    HW261497  13.255   3.509   3.156
53220SOL     OW61498  10.179   8.541   1.049
53220SOL    HW161499  10.131   8.578   1.123
53220SOL    HW261500  10.134   8.575   0.972
53221SOL     OW61501  14.310   0.942   7.308
53221SOL    HW161502  14.313   1.007   7.379
53221SOL    HW261503  14.300   0.994   7.229
53222SOL     OW61504   8.931  12.342   9.248
53222SOL    HW161505   8.939  12.435   9.227
53222SOL    HW261506   8.842  12.319   9.220
53223SOL     OW61507   9.226  10.161   5.440
53223SOL    HW161508   9.260  10.249   5.451
53223SOL    HW261509   9.226  10.146   5.345
53224SOL     OW61510   4.940   6.669   5.952
53224SOL    HW161511   5.013   6.691   5.894
53224SOL    HW261512   4.978   6.673   6.040
53225SOL     OW61513   0.980   9.579   4.834
53225SOL    HW161514   0.953   9.526   4.759
53225SOL    HW261515   1.034   9.648   4.797
53226SOL     OW61516  10.525   0.191   4.193
53226SOL    HW161517  10.447   0.238   4.223
53226SOL    HW261518  10.496   0.100   4.187
53227SOL     OW61519  11.692   2.118   7.799
53227SOL    HW161520  11.743   2.102   7.878
53227SOL    HW261521  11.671   2.031   7.766
53228SOL     OW61522   2.398   6.009   7.592
53228SOL    HW161523   2.343   5.973   7.661
53228SOL    HW261524   2.438   6.086   7.632
53229SOL     OW61525   8.985  14.386   3.777
53229SOL    HW161526   8.992  14.420   3.687
53229SOL    HW261527   9.075  14.379   3.807
53230SOL     OW61528   6.561   1.776  10.583
53230SOL    HW161529   6.586   1.819  10.666
53230SOL    HW261530   6.589   1.685  10.594
53231SOL     OW61531   5.959   6.039   1.085
53231SOL    HW161532   5.995   5.961   1.043
53231SOL    HW261533   6.020   6.058   1.157
53232SOL     OW61534   8.132  13.121   8.149
53232SOL    HW161535   8.155  13.173   8.072
53232SOL    HW261536   8.165  13.033   8.129
53233SOL     OW61537   9.893   3.008  14.359
53233SOL    HW161538   9.926   3.097  14.347
53233SOL    HW261539   9.944   2.955  14.297
53234SOL     OW61540  11.472  11.537   3.322
53234SOL    HW161541  11.539  11.580   3.375
53234SOL    HW261542  11.521  11.501   3.247
53235SOL     OW61543  14.829   3.934  10.474
53235SOL    HW161544  14.877   3.871  10.420
53235SOL    HW261545  14.782   3.989  10.412
53236SOL     OW61546   6.893   9.306  13.283
53236SOL    HW161547   6.893   9.395  13.319
53236SOL    HW261548   6.828   9.259  13.335
53237SOL     OW61549   6.776  10.982   9.251
53237SOL    HW161550   6.751  10.972   9.159
53237SOL    HW261551   6.756  10.898   9.291
53238SOL     OW61552   4.972   7.146   1.372
53238SOL    HW161553   4.977   7.167   1.279
53238SOL    HW261554   4.889   7.186   1.401
53239SOL     OW61555   4.469   9.565   4.249
53239SOL    HW161556   4.456   9.598   4.338
53239SOL    HW261557   4.505   9.640   4.201
53240SOL     OW61558  10.514   2.455  11.887
53240SOL    HW161559  10.478   2.538  11.916
53240SOL    HW261560  10.596   2.477  11.844
53241SOL     OW61561  14.749   5.349  14.821
53241SOL    HW161562  14.663   5.371  14.786
53241SOL    HW261563  14.774   5.268  14.775
53242SOL     OW61564   2.511  11.801   8.908
53242SOL    HW161565   2.531  11.844   8.991
53242SOL    HW261566   2.564  11.721   8.909
53243SOL     OW61567   2.899   0.465  13.412
53243SOL    HW161568   2.907   0.559  13.422
53243SOL    HW261569   2.988   0.432  13.419
53244SOL     OW61570   6.625   1.158   5.021
53244SOL    HW161571   6.553   1.101   4.995
53244SOL    HW261572   6.596   1.246   4.995
53245SOL     OW61573   0.337  14.089   0.399
53245SOL    HW161574   0.397  14.015   0.408
53245SOL    HW261575   0.367  14.134   0.320
53246SOL     OW61576  12.269   8.121   4.367
53246SOL    HW161577  12.226   8.078   4.441
53246SOL    HW261578  12.210   8.104   4.293
53247SOL     OW61579  14.503   8.945  12.117
53247SOL    HW161580  14.428   9.005  12.125
53247SOL    HW261581  14.580   9.002  12.118
53248SOL     OW61582  14.268   1.348   0.802
53248SOL    HW161583  14.331   1.280   0.781
53248SOL    HW261584  14.208   1.349   0.727
53249SOL     OW61585   9.780  13.191   2.931
53249SOL    HW161586   9.828  13.268   2.902
53249SOL    HW261587   9.707  13.183   2.870
53250SOL     OW61588   9.323   4.056   0.241
53250SOL    HW161589   9.375   3.985   0.203
53250SOL    HW261590   9.232   4.027   0.234
53251SOL     OW61591   2.515   2.731   9.090
53251SOL    HW161592   2.427   2.692   9.092
53251SOL    HW261593   2.571   2.660   9.059
53252SOL     OW61594   8.544  11.391   1.370
53252SOL    HW161595   8.536  11.467   1.428
53252SOL    HW261596   8.469  11.399   1.310
53253SOL     OW61597   0.089   3.308   6.706
53253SOL    HW161598   0.003   3.347   6.694
53253SOL    HW261599   0.072   3.225   6.751
53254SOL     OW61600   6.630   2.960   5.196
53254SOL    HW161601   6.595   2.998   5.115
53254SOL    HW261602   6.714   2.923   5.170
53255SOL     OW61603   5.855   4.132   1.311
53255SOL    HW161604   5.839   4.163   1.400
53255SOL    HW261605   5.949   4.147   1.297
53256SOL     OW61606  10.341   7.334   2.480
53256SOL    HW161607  10.290   7.307   2.403
53256SOL    HW261608  10.373   7.252   2.517
53257SOL     OW61609   3.413   8.326   6.379
53257SOL    HW161610   3.489   8.365   6.421
53257SOL    HW261611   3.356   8.400   6.358
53258SOL     OW61612   1.980  10.085   2.048
53258SOL    HW161613   2.019  10.139   2.117
53258SOL    HW261614   1.891  10.069   2.078
53259SOL     OW61615  13.882  13.121   1.414
53259SOL    HW161616  13.976  13.121   1.433
53259SOL    HW261617  13.842  13.159   1.492
53260SOL     OW61618   9.376   9.913  14.774
53260SOL    HW161619   9.370   9.878  14.862
53260SOL    HW261620   9.452   9.972  14.776
53261SOL     OW61621   1.866  14.848  12.887
53261SOL    HW161622   1.804   0.003  12.823
53261SOL    HW261623   1.903   0.046  12.929
53262SOL     OW61624   7.923   8.416   4.765
53262SOL    HW161625   7.884   8.359   4.832
53262SOL    HW261626   7.858   8.485   4.751
53263SOL     OW61627   4.219   9.474  13.797
53263SOL    HW161628   4.307   9.499  13.769
53263SOL    HW261629   4.175   9.556  13.815
53264SOL     OW61630   1.449   9.762   9.016
53264SOL    HW161631   1.472   9.682   8.968
53264SOL    HW261632   1.512   9.766   9.087
53265SOL     OW61633   6.839   7.820   1.121
53265SOL    HW161634   6.770   7.819   1.056
53265SOL    HW261635   6.866   7.728   1.129
53266SOL     OW61636   3.258  11.173   7.816
53266SOL    HW161637   3.291  11.084   7.831
53266SOL    HW261638   3.306  11.204   7.740
53267SOL     OW61639   1.558   3.438   3.923
53267SOL    HW161640   1.537   3.371   3.858
53267SOL    HW261641   1.549   3.521   3.877
53268SOL     OW61642   7.454   8.431  14.328
53268SOL    HW161643   7.425   8.479  14.406
53268SOL    HW261644   7.549   8.424  14.338
53269SOL     OW61645   2.986   0.493  11.825
53269SOL    HW161646   3.055   0.428  11.840
53269SOL    HW261647   3.006   0.530  11.739
53270SOL     OW61648  14.606   0.141  12.756
53270SOL    HW161649  14.630   0.111  12.669
53270SOL    HW261650  14.511   0.126  12.762
53271SOL     OW61651   9.264   7.255  12.788
53271SOL    HW161652   9.269   7.300  12.872
53271SOL    HW261653   9.175   7.221  12.784
53272SOL     OW61654   5.417   3.059  11.269
53272SOL    HW161655   5.473   3.135  11.284
53272SOL    HW261656   5.340   3.075  11.324
53273SOL     OW61657  14.091   0.788   8.373
53273SOL    HW161658  14.169   0.808   8.321
53273SOL    HW261659  14.116   0.714   8.428
53274SOL     OW61660   6.111   2.619   0.514
53274SOL    HW161661   6.156   2.561   0.452
53274SOL    HW261662   6.086   2.695   0.461
53275SOL     OW61663  12.792   6.371   9.465
53275SOL    HW161664  12.713   6.363   9.412
53275SOL    HW261665  12.834   6.451   9.433
53276SOL     OW61666  10.981  10.979  10.151
53276SOL    HW161667  10.949  11.058  10.108
53276SOL    HW261668  10.929  10.972  10.231
53277SOL     OW61669   5.284  10.591   3.927
53277SOL    HW161670   5.373  10.597   3.892
53277SOL    HW261671   5.271  10.499   3.948
53278SOL     OW61672   6.604   0.442  14.845
53278SOL    HW161673   6.626   0.442  14.752
53278SOL    HW261674   6.529   0.502  14.851
53279SOL     OW61675   3.000   8.341   7.828
53279SOL    HW161676   3.047   8.406   7.777
53279SOL    HW261677   3.061   8.267   7.835
53280SOL     OW61678  10.576  12.255  12.342
53280SOL    HW161679  10.649  12.234  12.284
53280SOL    HW261680  10.608  12.232  12.429
53281SOL     OW61681   4.450   8.537   7.439
53281SOL    HW161682   4.518   8.587   7.484
53281SOL    HW261683   4.394   8.603   7.400
53282SOL     OW61684   7.211   8.083  11.041
53282SOL    HW161685   7.273   8.070  11.113
53282SOL    HW261686   7.214   8.177  11.024
53283SOL     OW61687   2.107   2.946   1.686
53283SOL    HW161688   2.129   2.853   1.695
53283SOL    HW261689   2.059   2.968   1.766
53284SOL     OW61690   4.042   0.166   8.175
53284SOL    HW161691   4.103   0.192   8.244
53284SOL    HW261692   4.078   0.205   8.095
53285SOL     OW61693   5.270  10.356  12.578
53285SOL    HW161694   5.305  10.269  12.562
53285SOL    HW261695   5.340  10.416  12.549
53286SOL     OW61696   7.722  12.181   7.416
53286SOL    HW161697   7.727  12.257   7.358
53286SOL    HW261698   7.793  12.194   7.478
53287SOL     OW61699   2.111  13.478   5.096
53287SOL    HW161700   2.159  13.557   5.072
53287SOL    HW261701   2.065  13.452   5.015
53288SOL     OW61702  13.027  11.548   9.574
53288SOL    HW161703  12.994  11.597   9.498
53288SOL    HW261704  12.991  11.460   9.564
53289SOL     OW61705  14.283  11.364   9.959
53289SOL    HW161706  14.275  11.276   9.997
53289SOL    HW261707  14.245  11.355   9.871
53290SOL     OW61708   9.594  10.010   0.230
53290SOL    HW161709   9.531   9.943   0.257
53290SOL    HW261710   9.576  10.024   0.138
53291SOL     OW61711  10.604   9.578   4.077
53291SOL    HW161712  10.602   9.515   4.004
53291SOL    HW261713  10.641   9.528   4.150
53292SOL     OW61714   0.385   7.710  12.066
53292SOL    HW161715   0.449   7.661  12.118
53292SOL    HW261716   0.317   7.735  12.128
53293SOL     OW61717   7.984   3.804  10.761
53293SOL    HW161718   7.988   3.805  10.857
53293SOL    HW261719   7.922   3.735  10.740
53294SOL     OW61720   6.793   9.677   4.064
53294SOL    HW161721   6.878   9.712   4.091
53294SOL    HW261722   6.799   9.583   4.082
53295SOL     OW61723   8.429  11.310  12.472
53295SOL    HW161724   8.417  11.290  12.379
53295SOL    HW261725   8.495  11.246  12.501
53296SOL     OW61726  10.950   3.800   7.104
53296SOL    HW161727  10.965   3.840   7.018
53296SOL    HW261728  11.015   3.730   7.109
53297SOL     OW61729   3.327   3.699   7.909
53297SOL    HW161730   3.348   3.762   7.841
53297SOL    HW261731   3.311   3.617   7.862
53298SOL     OW61732   6.755   8.750   1.402
53298SOL    HW161733   6.801   8.832   1.383
53298SOL    HW261734   6.808   8.708   1.470
53299SOL     OW61735   5.710  10.197  10.554
53299SOL    HW161736   5.663  10.135  10.499
53299SOL    HW261737   5.802  10.187  10.529
53300SOL     OW61738   2.940   1.735  11.820
53300SOL    HW161739   3.033   1.731  11.841
53300SOL    HW261740   2.896   1.709  11.900
53301SOL     OW61741   9.072  10.315   6.771
53301SOL    HW161742   9.126  10.370   6.827
53301SOL    HW261743   9.134  10.257   6.726
53302SOL     OW61744  12.477   2.185   1.936
53302SOL    HW161745  12.506   2.229   2.016
53302SOL    HW261746  12.394   2.227   1.914
53303SOL     OW61747  13.076  14.868  11.694
53303SOL    HW161748  13.018  14.802  11.732
53303SOL    HW261749  13.162  14.826  11.690
53304SOL     OW61750   4.731  12.235   8.842
53304SOL    HW161751   4.775  12.226   8.757
53304SOL    HW261752   4.800  12.264   8.902
53305SOL     OW61753   5.597   8.679  12.086
53305SOL    HW161754   5.652   8.640  12.154
53305SOL    HW261755   5.623   8.634  12.006
53306SOL     OW61756   9.237   7.702   6.854
53306SOL    HW161757   9.220   7.639   6.784
53306SOL    HW261758   9.230   7.787   6.811
53307SOL     OW61759   5.421   7.991   6.540
53307SOL    HW161760   5.424   8.051   6.465
53307SOL    HW261761   5.389   8.045   6.613
53308SOL     OW61762   3.986  13.919   4.209
53308SOL    HW161763   4.028  13.922   4.123
53308SOL    HW261764   3.918  13.852   4.201
53309SOL     OW61765   1.145   5.915  10.594
53309SOL    HW161766   1.072   5.975  10.578
53309SOL    HW261767   1.217   5.972  10.622
53310SOL     OW61768   5.009   4.541   7.941
53310SOL    HW161769   4.956   4.491   7.879
53310SOL    HW261770   5.098   4.534   7.907
53311SOL     OW61771   9.486   9.326   6.758
53311SOL    HW161772   9.393   9.344   6.768
53311SOL    HW261773   9.516   9.388   6.691
53312SOL     OW61774  13.351  14.182   1.007
53312SOL    HW161775  13.406  14.104   1.003
53312SOL    HW261776  13.309  14.187   0.920
53313SOL     OW61777  14.243  12.288   6.530
53313SOL    HW161778  14.211  12.253   6.613
53313SOL    HW261779  14.294  12.217   6.492
53314SOL     OW61780  13.991  14.704   8.339
53314SOL    HW161781  13.952  14.769   8.398
53314SOL    HW261782  13.985  14.743   8.252
53315SOL     OW61783   7.643   4.333  14.438
53315SOL    HW161784   7.652   4.240  14.416
53315SOL    HW261785   7.696   4.378  14.372
53316SOL     OW61786   0.521  14.281  10.949
53316SOL    HW161787   0.487  14.359  10.994
53316SOL    HW261788   0.466  14.209  10.981
53317SOL     OW61789   6.658   1.573   7.548
53317SOL    HW161790   6.705   1.512   7.490
53317SOL    HW261791   6.724   1.602   7.611
53318SOL     OW61792  14.156   3.019   3.943
53318SOL    HW161793  14.060   3.016   3.939
53318SOL    HW261794  14.179   2.948   4.003
53319SOL     OW61795  14.444  10.080   7.754
53319SOL    HW161796  14.518  10.133   7.723
53319SOL    HW261797  14.399  10.053   7.674
53320SOL     OW61798   3.063   7.200   6.244
53320SOL    HW161799   2.971   7.180   6.261
53320SOL    HW261800   3.099   7.118   6.209
53321SOL     OW61801  11.992  12.992  11.500
53321SOL    HW161802  11.970  12.935  11.426
53321SOL    HW261803  11.913  13.045  11.514
53322SOL     OW61804  14.145   7.841   3.406
53322SOL    HW161805  14.133   7.911   3.470
53322SOL    HW261806  14.121   7.880   3.322
53323SOL     OW61807   7.838   7.052   9.272
53323SOL    HW161808   7.754   7.019   9.303
53323SOL    HW261809   7.875   7.099   9.347
53324SOL     OW61810   6.922   4.699  12.889
53324SOL    HW161811   6.932   4.714  12.983
53324SOL    HW261812   6.987   4.756  12.849
53325SOL     OW61813  13.483   1.025   3.035
53325SOL    HW161814  13.433   1.064   3.107
53325SOL    HW261815  13.543   0.964   3.078
53326SOL     OW61816  10.744  10.016   1.760
53326SOL    HW161817  10.778   9.933   1.727
53326SOL    HW261818  10.740  10.004   1.855
53327SOL     OW61819   2.613  13.012   6.390
53327SOL    HW161820   2.556  13.040   6.461
53327SOL    HW261821   2.699  13.047   6.414
53328SOL     OW61822  14.417   5.723   1.326
53328SOL    HW161823  14.396   5.734   1.233
53328SOL    HW261824  14.339   5.684   1.364
53329SOL     OW61825  10.179  10.993  12.341
53329SOL    HW161826  10.112  11.046  12.384
53329SOL    HW261827  10.130  10.921  12.301
53330SOL     OW61828   2.582   2.346   1.946
53330SOL    HW161829   2.605   2.343   2.039
53330SOL    HW261830   2.665   2.331   1.900
53331SOL     OW61831   0.281   4.281   3.405
53331SOL    HW161832   0.257   4.365   3.365
53331SOL    HW261833   0.302   4.303   3.496
53332SOL     OW61834  14.506   0.374  12.167
53332SOL    HW161835  14.412   0.393  12.168
53332SOL    HW261836  14.528   0.363  12.260
53333SOL     OW61837  13.051   9.855   0.477
53333SOL    HW161838  13.091   9.818   0.555
53333SOL    HW261839  13.055   9.785   0.412
53334SOL     OW61840  14.484  12.855   9.181
53334SOL    HW161841  14.393  12.871   9.156
53334SOL    HW261842  14.479  12.821   9.270
53335SOL     OW61843  10.513   4.062   7.210
53335SOL    HW161844  10.441   4.055   7.147
53335SOL    HW261845  10.471   4.082   7.293
53336SOL     OW61846   4.334   9.165  13.578
53336SOL    HW161847   4.336   9.258  13.557
53336SOL    HW261848   4.240   9.143  13.578
53337SOL     OW61849   1.889   7.093  13.530
53337SOL    HW161850   1.979   7.061  13.528
53337SOL    HW261851   1.893   7.173  13.582
53338SOL     OW61852  11.245  12.415   9.618
53338SOL    HW161853  11.200  12.446   9.540
53338SOL    HW261854  11.176  12.403   9.683
53339SOL     OW61855   9.250   2.444  13.507
53339SOL    HW161856   9.262   2.445  13.602
53339SOL    HW261857   9.155   2.437  13.496
53340SOL     OW61858   4.346   5.093  13.788
53340SOL    HW161859   4.418   5.138  13.744
53340SOL    HW261860   4.329   5.016  13.734
53341SOL     OW61861  10.222  12.740  10.916
53341SOL    HW161862  10.175  12.820  10.940
53341SOL    HW261863  10.157  12.685  10.872
53342SOL     OW61864   1.330   5.162  14.393
53342SOL    HW161865   1.283   5.163  14.309
53342SOL    HW261866   1.321   5.252  14.426
53343SOL     OW61867   1.338  13.982   3.382
53343SOL    HW161868   1.319  13.914   3.318
53343SOL    HW261869   1.266  14.045   3.374
53344SOL     OW61870   0.086   6.739  10.731
53344SOL    HW161871   0.035   6.659  10.724
53344SOL    HW261872   0.022   6.809  10.720
53345SOL     OW61873   5.376  11.098  12.305
53345SOL    HW161874   5.289  11.059  12.314
53345SOL    HW261875   5.380  11.164  12.375
53346SOL     OW61876  10.249  13.447   1.663
53346SOL    HW161877  10.308  13.521   1.676
53346SOL    HW261878  10.236  13.411   1.751
53347SOL     OW61879  13.546   4.449  10.519
53347SOL    HW161880  13.624   4.453  10.575
53347SOL    HW261881  13.475   4.425  10.579
53348SOL     OW61882  10.499   4.541  10.830
53348SOL    HW161883  10.530   4.457  10.864
53348SOL    HW261884  10.464   4.520  10.743
53349SOL     OW61885   7.480   8.904   7.332
53349SOL    HW161886   7.545   8.944   7.274
53349SOL    HW261887   7.506   8.931   7.420
53350SOL     OW61888   6.338   1.565  14.365
53350SOL    HW161889   6.315   1.557  14.272
53350SOL    HW261890   6.260   1.604  14.406
53351SOL     OW61891   5.542  12.839   5.782
53351SOL    HW161892   5.529  12.768   5.720
53351SOL    HW261893   5.458  12.851   5.825
53352SOL     OW61894   3.966   9.409   5.909
53352SOL    HW161895   3.980   9.491   5.956
53352SOL    HW261896   4.021   9.345   5.954
53353SOL     OW61897   1.295  13.136   2.980
53353SOL    HW161898   1.220  13.195   2.981
53353SOL    HW261899   1.357  13.176   3.041
53354SOL     OW61900  10.413   1.962  12.505
53354SOL    HW161901  10.452   2.026  12.445
53354SOL    HW261902  10.319   1.979  12.500
53355SOL     OW61903   6.457   6.368   0.926
53355SOL    HW161904   6.381   6.337   0.876
53355SOL    HW261905   6.453   6.319   1.008
53356SOL     OW61906  10.291   9.184   1.300
53356SOL    HW161907  10.371   9.132   1.296
53356SOL    HW261908  10.301   9.250   1.232
53357SOL     OW61909   8.033   9.555   5.890
53357SOL    HW161910   8.035   9.651   5.885
53357SOL    HW261911   8.094   9.526   5.822
53358SOL     OW61912   1.959   2.028  13.639
53358SOL    HW161913   1.997   1.979  13.711
53358SOL    HW261914   1.925   2.108  13.680
53359SOL     OW61915  10.680   4.658   4.824
53359SOL    HW161916  10.640   4.713   4.892
53359SOL    HW261917  10.647   4.570   4.841
53360SOL     OW61918   4.505  13.459  14.568
53360SOL    HW161919   4.464  13.545  14.578
53360SOL    HW261920   4.460  13.419  14.494
53361SOL     OW61921   6.021   4.895   1.683
53361SOL    HW161922   6.071   4.964   1.725
53361SOL    HW261923   5.930   4.915   1.704
53362SOL     OW61924  11.005   4.270   1.395
53362SOL    HW161925  11.021   4.361   1.421
53362SOL    HW261926  11.090   4.238   1.364
53363SOL     OW61927  13.239  11.114   1.335
53363SOL    HW161928  13.235  11.168   1.414
53363SOL    HW261929  13.303  11.158   1.279
53364SOL     OW61930   7.768  12.922   3.450
53364SOL    HW161931   7.792  12.941   3.359
53364SOL    HW261932   7.694  12.861   3.443
53365SOL     OW61933  14.008   9.825   7.911
53365SOL    HW161934  14.068   9.770   7.859
53365SOL    HW261935  14.027   9.915   7.882
53366SOL     OW61936  12.067  14.371   0.173
53366SOL    HW161937  12.156  14.370   0.138
53366SOL    HW261938  12.076  14.410   0.260
53367SOL     OW61939  12.826  14.368  12.690
53367SOL    HW161940  12.857  14.326  12.770
53367SOL    HW261941  12.730  14.361  12.695
53368SOL     OW61942   1.901   7.638   3.350
53368SOL    HW161943   1.923   7.696   3.423
53368SOL    HW261944   1.833   7.686   3.301
53369SOL     OW61945   1.316   4.474   3.594
53369SOL    HW161946   1.272   4.490   3.511
53369SOL    HW261947   1.343   4.382   3.589
53370SOL     OW61948   2.127   0.427  13.044
53370SOL    HW161949   2.184   0.487  12.994
53370SOL    HW261950   2.064   0.485  13.087
53371SOL     OW61951  14.599  10.665   4.355
53371SOL    HW161952  14.669  10.726   4.377
53371SOL    HW261953  14.637  10.607   4.289
53372SOL     OW61954  14.738   7.867  13.792
53372SOL    HW161955  14.703   7.894  13.877
53372SOL    HW261956  14.814   7.923  13.777
53373SOL     OW61957   8.695   0.905  14.507
53373SOL    HW161958   8.683   0.963  14.582
53373SOL    HW261959   8.634   0.937  14.441
53374SOL     OW61960   5.918   5.780   7.866
53374SOL    HW161961   6.008   5.794   7.836
53374SOL    HW261962   5.916   5.816   7.955
53375SOL     OW61963   3.821  10.739  14.258
53375SOL    HW161964   3.916  10.744  14.250
53375SOL    HW261965   3.801  10.785  14.340
53376SOL     OW61966   3.962  13.979   1.039
53376SOL    HW161967   4.023  14.044   1.074
53376SOL    HW261968   3.934  14.016   0.955
53377SOL     OW61969  12.531   9.935   6.702
53377SOL    HW161970  12.606   9.993   6.685
53377SOL    HW261971  12.457   9.977   6.658
53378SOL     OW61972   9.285   3.707   7.953
53378SOL    HW161973   9.196   3.693   7.921
53378SOL    HW261974   9.290   3.801   7.972
53379SOL     OW61975  14.228  12.132  13.722
53379SOL    HW161976  14.244  12.197  13.790
53379SOL    HW261977  14.269  12.052  13.756
53380SOL     OW61978   3.940   9.650  13.544
53380SOL    HW161979   3.968   9.658  13.453
53380SOL    HW261980   3.845   9.658  13.541
53381SOL     OW61981  14.472   7.653   9.069
53381SOL    HW161982  14.565   7.675   9.066
53381SOL    HW261983  14.436   7.691   8.989
53382SOL     OW61984  10.669   3.553   8.708
53382SOL    HW161985  10.735   3.530   8.774
53382SOL    HW261986  10.660   3.648   8.715
53383SOL     OW61987  11.998  14.103   4.360
53383SOL    HW161988  11.912  14.138   4.381
53383SOL    HW261989  12.032  14.071   4.444
53384SOL     OW61990   4.706   2.439  13.478
53384SOL    HW161991   4.795   2.471  13.462
53384SOL    HW261992   4.716   2.344  13.481
53385SOL     OW61993  10.742  10.622  13.023
53385SOL    HW161994  10.702  10.547  12.977
53385SOL    HW261995  10.750  10.689  12.955
53386SOL     OW61996  11.316   3.514   6.306
53386SOL    HW161997  11.320   3.600   6.264
53386SOL    HW261998  11.230   3.480   6.283
53387SOL     OW61999   5.684   7.631   3.036
53387SOL    HW162000   5.607   7.645   2.980
53387SOL    HW262001   5.728   7.555   2.998
53388SOL     OW62002  14.147  12.255   6.079
53388SOL    HW162003  14.141  12.161   6.096
53388SOL    HW262004  14.077  12.273   6.016
53389SOL     OW62005   8.298  11.532   0.592
53389SOL    HW162006   8.245  11.575   0.659
53389SOL    HW262007   8.366  11.486   0.641
53390SOL     OW62008   0.434   9.337   5.651
53390SOL    HW162009   0.476   9.418   5.622
53390SOL    HW262010   0.505   9.285   5.688
53391SOL     OW62011   0.256   1.142   0.034
53391SOL    HW162012   0.268   1.195   0.112
53391SOL    HW262013   0.341   1.099   0.021
53392SOL     OW62014   4.684  11.942   7.155
53392SOL    HW162015   4.772  11.905   7.148
53392SOL    HW262016   4.676  11.970   7.246
53393SOL     OW62017   3.281   6.498   3.830
53393SOL    HW162018   3.365   6.514   3.786
53393SOL    HW262019   3.226   6.571   3.803
53394SOL     OW62020  14.419  11.537   1.546
53394SOL    HW162021  14.336  11.583   1.558
53394SOL    HW262022  14.477  11.574   1.614
53395SOL     OW62023   6.071  13.892   7.650
53395SOL    HW162024   5.983  13.925   7.632
53395SOL    HW262025   6.129  13.965   7.631
53396SOL     OW62026  11.240   0.980   8.946
53396SOL    HW162027  11.183   0.907   8.921
53396SOL    HW262028  11.194   1.022   9.019
53397SOL     OW62029   1.358  12.390  12.474
53397SOL    HW162030   1.432  12.357  12.423
53397SOL    HW262031   1.376  12.360  12.563
53398SOL     OW62032  14.012  10.206   4.092
53398SOL    HW162033  14.067  10.266   4.144
53398SOL    HW262034  14.014  10.124   4.142
53399SOL     OW62035   6.608   3.484   0.817
53399SOL    HW162036   6.542   3.458   0.882
53399SOL    HW262037   6.572   3.562   0.776
53400SOL     OW62038   1.574   3.767  10.867
53400SOL    HW162039   1.662   3.796  10.891
53400SOL    HW262040   1.586   3.679  10.833
53401SOL     OW62041  14.804  10.755   1.029
53401SOL    HW162042  14.715  10.786   1.048
53401SOL    HW262043  14.861  10.818   1.073
53402SOL     OW62044  12.559   9.204   4.342
53402SOL    HW162045  12.491   9.260   4.379
53402SOL    HW262046  12.592   9.154   4.417
53403SOL     OW62047   0.563   8.599   0.309
53403SOL    HW162048   0.602   8.520   0.345
53403SOL    HW262049   0.601   8.671   0.360
53404SOL     OW62050   3.593   2.305  10.378
53404SOL    HW162051   3.682   2.327  10.349
53404SOL    HW262052   3.600   2.295  10.473
53405SOL     OW62053   1.687  14.838   8.829
53405SOL    HW162054   1.650  14.782   8.897
53405SOL    HW262055   1.734   0.027   8.876
53406SOL     OW62056   9.319  13.166  13.581
53406SOL    HW162057   9.403  13.143  13.542
53406SOL    HW262058   9.340  13.187  13.672
53407SOL     OW62059   4.825  14.866   5.545
53407SOL    HW162060   4.827  14.828   5.458
53407SOL    HW262061   4.911  14.847   5.583
53408SOL     OW62062  12.714  11.555   3.632
53408SOL    HW162063  12.750  11.643   3.633
53408SOL    HW262064  12.664  11.550   3.551
53409SOL     OW62065   9.117   3.302   1.994
53409SOL    HW162066   9.089   3.351   2.071
53409SOL    HW262067   9.155   3.368   1.936
53410SOL     OW62068  11.945   2.833  11.910
53410SOL    HW162069  11.974   2.752  11.869
53410SOL    HW262070  12.021   2.891  11.906
53411SOL     OW62071   3.126   2.980   6.249
53411SOL    HW162072   3.125   2.979   6.154
53411SOL    HW262073   3.046   2.933   6.275
53412SOL     OW62074   1.747   5.761  10.640
53412SOL    HW162075   1.714   5.675  10.665
53412SOL    HW262076   1.669   5.813  10.623
53413SOL     OW62077   0.222  10.433  11.286
53413SOL    HW162078   0.181  10.357  11.244
53413SOL    HW262079   0.162  10.505  11.271
53414SOL     OW62080   4.845   5.708   8.456
53414SOL    HW162081   4.925   5.715   8.507
53414SOL    HW262082   4.807   5.624   8.482
53415SOL     OW62083   6.710   8.629  14.442
53415SOL    HW162084   6.713   8.719  14.410
53415SOL    HW262085   6.640   8.588  14.391
53416SOL     OW62086   4.295  14.187  14.669
53416SOL    HW162087   4.313  14.212  14.759
53416SOL    HW262088   4.373  14.139  14.641
53417SOL     OW62089  12.684   4.907  10.144
53417SOL    HW162090  12.612   4.858  10.182
53417SOL    HW262091  12.644   4.986  10.109
53418SOL     OW62092  13.072   1.508   4.836
53418SOL    HW162093  13.098   1.572   4.769
53418SOL    HW262094  13.052   1.561   4.913
53419SOL     OW62095  11.234   6.670   1.597
53419SOL    HW162096  11.195   6.597   1.549
53419SOL    HW262097  11.253   6.635   1.684
53420SOL     OW62098   2.690   3.871   5.351
53420SOL    HW162099   2.645   3.915   5.423
53420SOL    HW262100   2.684   3.932   5.277
53421SOL     OW62101   9.004  10.384  13.196
53421SOL    HW162102   8.980  10.476  13.202
53421SOL    HW262103   9.007  10.353  13.287
53422SOL     OW62104   0.722   4.101  14.234
53422SOL    HW162105   0.720   4.174  14.172
53422SOL    HW262106   0.814   4.092  14.258
53423SOL     OW62107   0.124   6.554   1.633
53423SOL    HW162108   0.034   6.587   1.626
53423SOL    HW262109   0.159   6.562   1.545
53424SOL     OW62110   1.235  13.943   7.441
53424SOL    HW162111   1.239  13.976   7.531
53424SOL    HW262112   1.319  13.899   7.428
53425SOL     OW62113   2.248  13.526   8.366
53425SOL    HW162114   2.242  13.591   8.297
53425SOL    HW262115   2.219  13.444   8.325
53426SOL     OW62116  12.955  13.158   2.944
53426SOL    HW162117  13.038  13.195   2.973
53426SOL    HW262118  12.895  13.175   3.016
53427SOL     OW62119   3.445   3.233  10.802
53427SOL    HW162120   3.459   3.193  10.717
53427SOL    HW262121   3.351   3.227  10.817
53428SOL     OW62122   2.564   8.245   9.901
53428SOL    HW162123   2.659   8.246   9.886
53428SOL    HW262124   2.542   8.152   9.904
53429SOL     OW62125   8.301   2.179   9.621
53429SOL    HW162126   8.322   2.241   9.550
53429SOL    HW262127   8.260   2.233   9.688
53430SOL     OW62128  12.163   0.108  12.246
53430SOL    HW162129  12.220   0.151  12.310
53430SOL    HW262130  12.087   0.079  12.297
53431SOL     OW62131   9.268  11.002   5.271
53431SOL    HW162132   9.272  10.907   5.261
53431SOL    HW262133   9.357  11.027   5.297
53432SOL     OW62134   2.753   6.024  11.562
53432SOL    HW162135   2.741   6.099  11.621
53432SOL    HW262136   2.668   6.015  11.518
53433SOL     OW62137   1.515   7.705  13.312
53433SOL    HW162138   1.464   7.656  13.248
53433SOL    HW262139   1.606   7.677  13.297
53434SOL     OW62140   7.166   3.692   6.131
53434SOL    HW162141   7.172   3.596   6.129
53434SOL    HW262142   7.153   3.712   6.224
53435SOL     OW62143   2.880   1.067  13.320
53435SOL    HW162144   2.903   1.133  13.385
53435SOL    HW262145   2.864   1.117  13.240
53436SOL     OW62146  13.282  14.083  12.219
53436SOL    HW162147  13.206  14.024  12.229
53436SOL    HW262148  13.244  14.166  12.190
53437SOL     OW62149   9.323   5.731   4.320
53437SOL    HW162150   9.330   5.809   4.376
53437SOL    HW262151   9.252   5.680   4.359
53438SOL     OW62152   2.645   5.366   5.397
53438SOL    HW162153   2.603   5.321   5.324
53438SOL    HW262154   2.729   5.395   5.362
53439SOL     OW62155  13.270  12.960   9.899
53439SOL    HW162156  13.229  12.997   9.977
53439SOL    HW262157  13.347  13.014   9.884
53440SOL     OW62158   1.605   9.293  11.876
53440SOL    HW162159   1.649   9.318  11.957
53440SOL    HW262160   1.602   9.197  11.879
53441SOL     OW62161   6.172   7.043  10.339
53441SOL    HW162162   6.226   7.101  10.393
53441SOL    HW262163   6.090   7.090  10.329
53442SOL     OW62164   4.338   5.378   7.008
53442SOL    HW162165   4.359   5.401   7.099
53442SOL    HW262166   4.329   5.462   6.963
53443SOL     OW62167  10.545   6.974   8.160
53443SOL    HW162168  10.613   6.971   8.228
53443SOL    HW262169  10.497   7.054   8.179
53444SOL     OW62170   4.186  13.573   6.098
53444SOL    HW162171   4.192  13.496   6.043
53444SOL    HW262172   4.275  13.587   6.131
53445SOL     OW62173   3.387   5.704   5.775
53445SOL    HW162174   3.294   5.693   5.793
53445SOL    HW262175   3.424   5.736   5.858
53446SOL     OW62176  10.595   8.808   3.085
53446SOL    HW162177  10.630   8.890   3.118
53446SOL    HW262178  10.508   8.831   3.051
53447SOL     OW62179   2.310  12.006   7.440
53447SOL    HW162180   2.339  11.916   7.430
53447SOL    HW262181   2.341  12.032   7.526
53448SOL     OW62182   1.023   2.014  13.941
53448SOL    HW162183   1.002   2.102  13.971
53448SOL    HW262184   0.939   1.969  13.938
53449SOL     OW62185  12.786   1.212   0.231
53449SOL    HW162186  12.744   1.236   0.148
53449SOL    HW262187  12.761   1.121   0.246
53450SOL     OW62188   3.549  11.809   4.177
53450SOL    HW162189   3.622  11.860   4.144
53450SOL    HW262190   3.471  11.849   4.138
53451SOL     OW62191   0.771   6.845   0.201
53451SOL    HW162192   0.708   6.908   0.167
53451SOL    HW262193   0.846   6.897   0.227
53452SOL     OW62194   1.704   0.866   6.553
53452SOL    HW162195   1.786   0.837   6.594
53452SOL    HW262196   1.732   0.925   6.483
53453SOL     OW62197   1.798   9.574  11.127
53453SOL    HW162198   1.843   9.514  11.185
53453SOL    HW262199   1.705   9.552  11.136
53454SOL     OW62200  11.405   7.227   5.837
53454SOL    HW162201  11.483   7.202   5.787
53454SOL    HW262202  11.404   7.322   5.833
53455SOL     OW62203  10.593   9.181   1.320
53455SOL    HW162204  10.619   9.273   1.317
53455SOL    HW262205  10.653   9.137   1.260
53456SOL     OW62206   7.059   5.894  10.297
53456SOL    HW162207   7.114   5.952  10.244
53456SOL    HW262208   6.977   5.887  10.247
53457SOL     OW62209  11.871   5.631   2.282
53457SOL    HW162210  11.935   5.639   2.353
53457SOL    HW262211  11.903   5.558   2.229
53458SOL     OW62212   8.509   8.568   5.969
53458SOL    HW162213   8.426   8.607   5.997
53458SOL    HW262214   8.508   8.576   5.874
53459SOL     OW62215  12.483   1.918   0.246
53459SOL    HW162216  12.401   1.911   0.294
53459SOL    HW262217  12.459   1.955   0.161
53460SOL     OW62218   7.279   6.330   6.797
53460SOL    HW162219   7.351   6.311   6.857
53460SOL    HW262220   7.320   6.372   6.722
53461SOL     OW62221   1.717   6.557   8.546
53461SOL    HW162222   1.676   6.520   8.625
53461SOL    HW262223   1.704   6.651   8.554
53462SOL     OW62224   9.082   3.954  12.397
53462SOL    HW162225   9.170   3.927  12.423
53462SOL    HW262226   9.084   4.049  12.402
53463SOL     OW62227  13.647   9.357  10.989
53463SOL    HW162228  13.742   9.369  10.997
53463SOL    HW262229  13.634   9.332  10.898
53464SOL     OW62230   8.802   3.385   6.164
53464SOL    HW162231   8.715   3.347   6.174
53464SOL    HW262232   8.850   3.322   6.111
53465SOL     OW62233  13.434   4.190   6.222
53465SOL    HW162234  13.515   4.182   6.171
53465SOL    HW262235  13.396   4.273   6.193
53466SOL     OW62236  10.661  14.231   3.149
53466SOL    HW162237  10.651  14.325   3.132
53466SOL    HW262238  10.631  14.189   3.068
53467SOL     OW62239  14.517  13.556  11.915
53467SOL    HW162240  14.522  13.646  11.882
53467SOL    HW262241  14.433  13.524  11.883
53468SOL     OW62242   4.532  13.089  13.143
53468SOL    HW162243   4.576  13.144  13.208
53468SOL    HW262244   4.494  13.017  13.194
53469SOL     OW62245   1.136  10.801   7.652
53469SOL    HW162246   1.151  10.811   7.558
53469SOL    HW262247   1.151  10.708   7.669
53470SOL     OW62248  10.095   0.704   2.821
53470SOL    HW162249  10.012   0.660   2.840
53470SOL    HW262250  10.156   0.633   2.803
53471SOL     OW62251   3.021   4.454   9.450
53471SOL    HW162252   2.941   4.431   9.403
53471SOL    HW262253   3.091   4.410   9.400
53472SOL     OW62254  14.173  12.025   5.842
53472SOL    HW162255  14.117  12.103   5.835
53472SOL    HW262256  14.117  11.959   5.883
53473SOL     OW62257   1.224  11.438   4.877
53473SOL    HW162258   1.234  11.378   4.951
53473SOL    HW262259   1.160  11.503   4.908
53474SOL     OW62260   0.059   7.500   0.818
53474SOL    HW162261   0.148   7.503   0.782
53474SOL    HW262262   0.065   7.544   0.903
53475SOL     OW62263   8.780   5.286   1.801
53475SOL    HW162264   8.747   5.375   1.808
53475SOL    HW262265   8.740   5.252   1.721
53476SOL     OW62266   7.210   9.372   3.653
53476SOL    HW162267   7.168   9.373   3.568
53476SOL    HW262268   7.167   9.442   3.702
53477SOL     OW62269  13.653  11.383   4.984
53477SOL    HW162270  13.582  11.412   4.927
53477SOL    HW262271  13.697  11.464   5.010
53478SOL     OW62272   8.136  11.953   6.410
53478SOL    HW162273   8.211  11.983   6.461
53478SOL    HW262274   8.137  11.857   6.421
53479SOL     OW62275   3.110   6.975  11.433
53479SOL    HW162276   3.100   7.031  11.510
53479SOL    HW262277   3.204   6.975  11.416
53480SOL     OW62278   5.833  12.904  14.337
53480SOL    HW162279   5.849  12.898  14.431
53480SOL    HW262280   5.820  12.813  14.309
53481SOL     OW62281   8.118  10.059  13.380
53481SOL    HW162282   8.189  10.091  13.324
53481SOL    HW262283   8.039  10.098  13.341
53482SOL     OW62284   5.913  10.850   8.031
53482SOL    HW162285   5.944  10.938   8.051
53482SOL    HW262286   5.980  10.814   7.972
53483SOL     OW62287  12.121   5.694  10.852
53483SOL    HW162288  12.166   5.774  10.826
53483SOL    HW262289  12.089   5.656  10.770
53484SOL     OW62290   0.820   7.783   7.910
53484SOL    HW162291   0.835   7.688   7.913
53484SOL    HW262292   0.793   7.805   7.999
53485SOL     OW62293  13.590   4.597  12.824
53485SOL    HW162294  13.602   4.533  12.754
53485SOL    HW262295  13.567   4.544  12.900
53486SOL     OW62296   5.645   1.075   1.607
53486SOL    HW162297   5.645   1.162   1.645
53486SOL    HW262298   5.557   1.042   1.621
53487SOL     OW62299  11.661   5.731  10.289
53487SOL    HW162300  11.566   5.738  10.275
53487SOL    HW262301  11.698   5.796  10.230
53488SOL     OW62302  14.402   7.445   0.486
53488SOL    HW162303  14.462   7.379   0.451
53488SOL    HW262304  14.452   7.526   0.483
53489SOL     OW62305   7.843  14.063   8.170
53489SOL    HW162306   7.866  14.029   8.084
53489SOL    HW262307   7.805  14.149   8.153
53490SOL     OW62308   2.653   2.357   2.228
53490SOL    HW162309   2.600   2.312   2.294
53490SOL    HW262310   2.639   2.450   2.246
53491SOL     OW62311  14.084  12.277   3.647
53491SOL    HW162312  13.993  12.250   3.631
53491SOL    HW262313  14.136  12.200   3.624
53492SOL     OW62314  13.422   4.981   7.751
53492SOL    HW162315  13.496   5.023   7.708
53492SOL    HW262316  13.445   4.889   7.754
53493SOL     OW62317   1.648   3.800  14.489
53493SOL    HW162318   1.691   3.853  14.556
53493SOL    HW262319   1.689   3.714  14.496
53494SOL     OW62320  10.443   6.951   0.490
53494SOL    HW162321  10.375   6.898   0.450
53494SOL    HW262322  10.398   7.029   0.521
53495SOL     OW62323  12.058  13.748  13.331
53495SOL    HW162324  12.023  13.771  13.416
53495SOL    HW262325  11.998  13.788  13.268
53496SOL     OW62326  11.155   6.554   4.425
53496SOL    HW162327  11.155   6.492   4.497
53496SOL    HW262328  11.095   6.624   4.454
53497SOL     OW62329  12.144   3.054  10.150
53497SOL    HW162330  12.077   3.122  10.161
53497SOL    HW262331  12.221   3.102  10.118
53498SOL     OW62332   0.088   3.034   7.700
53498SOL    HW162333   0.050   2.948   7.721
53498SOL    HW262334   0.034   3.096   7.748
53499SOL     OW62335   3.128   6.727   9.355
53499SOL    HW162336   3.146   6.691   9.268
53499SOL    HW262337   3.209   6.772   9.379
53500SOL     OW62338  11.932   2.776   7.754
53500SOL    HW162339  11.884   2.697   7.727
53500SOL    HW262340  11.896   2.845   7.699
53501SOL     OW62341  10.464   2.716   2.542
53501SOL    HW162342  10.390   2.763   2.579
53501SOL    HW262343  10.489   2.767   2.465
53502SOL     OW62344   6.047   4.051  11.369
53502SOL    HW162345   6.138   4.056  11.401
53502SOL    HW262346   6.009   3.980  11.420
53503SOL     OW62347  13.792   1.971   1.539
53503SOL    HW162348  13.796   1.904   1.608
53503SOL    HW262349  13.718   1.946   1.485
53504SOL     OW62350   2.166   4.303   3.119
53504SOL    HW162351   2.122   4.264   3.044
53504SOL    HW262352   2.103   4.294   3.191
53505SOL     OW62353  10.318  10.183   3.694
53505SOL    HW162354  10.318  10.093   3.660
53505SOL    HW262355  10.393  10.186   3.753
53506SOL     OW62356   5.628   4.248   6.816
53506SOL    HW162357   5.560   4.190   6.850
53506SOL    HW262358   5.581   4.322   6.778
53507SOL     OW62359   0.719  13.019   5.175
53507SOL    HW162360   0.715  13.077   5.099
53507SOL    HW262361   0.765  12.941   5.143
53508SOL     OW62362   0.777   9.490   8.772
53508SOL    HW162363   0.827   9.544   8.711
53508SOL    HW262364   0.807   9.518   8.858
53509SOL     OW62365   2.478   3.453  11.138
53509SOL    HW162366   2.387   3.479  11.128
53509SOL    HW262367   2.476   3.358  11.150
53510SOL     OW62368   5.696   5.429   6.194
53510SOL    HW162369   5.781   5.433   6.150
53510SOL    HW262370   5.695   5.505   6.252
53511SOL     OW62371   3.664   7.615   0.529
53511SOL    HW162372   3.752   7.580   0.542
53511SOL    HW262373   3.678   7.698   0.482
53512SOL     OW62374   0.984   9.103   5.579
53512SOL    HW162375   0.919   9.067   5.639
53512SOL    HW262376   0.970   9.198   5.583
53513SOL     OW62377   2.879   0.163   5.273
53513SOL    HW162378   2.849   0.124   5.191
53513SOL    HW262379   2.941   0.099   5.309
53514SOL     OW62380   8.593  13.745   2.453
53514SOL    HW162381   8.643  13.667   2.430
53514SOL    HW262382   8.592  13.798   2.373
53515SOL     OW62383   5.456  12.821   2.588
53515SOL    HW162384   5.468  12.816   2.493
53515SOL    HW262385   5.532  12.870   2.620
53516SOL     OW62386   3.027  13.566   0.225
53516SOL    HW162387   3.054  13.560   0.133
53516SOL    HW262388   3.006  13.659   0.237
53517SOL     OW62389   5.634   3.560   5.836
53517SOL    HW162390   5.570   3.623   5.870
53517SOL    HW262391   5.665   3.514   5.914
53518SOL     OW62392  10.861   6.740  11.429
53518SOL    HW162393  10.898   6.827  11.414
53518SOL    HW262394  10.807   6.749  11.507
53519SOL     OW62395  13.826  11.202  11.671
53519SOL    HW162396  13.791  11.137  11.611
53519SOL    HW262397  13.822  11.161  11.757
53520SOL     OW62398  13.333   0.004   0.623
53520SOL    HW162399  13.243   0.037   0.621
53520SOL    HW262400  13.324  14.790   0.637
53521SOL     OW62401   7.704   7.924   6.746
53521SOL    HW162402   7.652   7.999   6.777
53521SOL    HW262403   7.648   7.848   6.763
53522SOL     OW62404  13.271   2.212  14.527
53522SOL    HW162405  13.277   2.303  14.498
53522SOL    HW262406  13.353   2.172  14.498
53523SOL     OW62407  10.552   3.260  10.421
53523SOL    HW162408  10.632   3.290  10.464
53523SOL    HW262409  10.514   3.338  10.381
53524SOL     OW62410   5.455   8.808  11.225
53524SOL    HW162411   5.536   8.757  11.221
53524SOL    HW262412   5.484   8.899  11.229
53525SOL     OW62413  12.388  13.997   3.337
53525SOL    HW162414  12.420  13.938   3.269
53525SOL    HW262415  12.342  13.941   3.398
53526SOL     OW62416  14.042  13.837   9.649
53526SOL    HW162417  14.073  13.915   9.602
53526SOL    HW262418  14.109  13.771   9.631
53527SOL     OW62419   7.077   6.687   3.478
53527SOL    HW162420   7.096   6.781   3.486
53527SOL    HW262421   6.988   6.678   3.513
53528SOL     OW62422   9.611  13.537  12.295
53528SOL    HW162423   9.558  13.587  12.233
53528SOL    HW262424   9.548  13.489  12.348
53529SOL     OW62425   6.420   3.314   9.265
53529SOL    HW162426   6.344   3.344   9.315
53529SOL    HW262427   6.423   3.220   9.278
53530SOL     OW62428   5.864  12.559   0.325
53530SOL    HW162429   5.814  12.552   0.243
53530SOL    HW262430   5.836  12.483   0.376
53531SOL     OW62431   9.220   0.708   5.835
53531SOL    HW162432   9.224   0.775   5.904
53531SOL    HW262433   9.216   0.759   5.754
53532SOL     OW62434   9.614   2.836   1.359
53532SOL    HW162435   9.548   2.767   1.366
53532SOL    HW262436   9.631   2.843   1.265
53533SOL     OW62437  13.950   1.556   9.108
53533SOL    HW162438  14.040   1.590   9.113
53533SOL    HW262439  13.939   1.534   9.015
53534SOL     OW62440   3.801   3.418  13.289
53534SOL    HW162441   3.861   3.434  13.216
53534SOL    HW262442   3.858   3.411  13.365
53535SOL     OW62443   1.935   0.315   5.483
53535SOL    HW162444   1.845   0.348   5.484
53535SOL    HW262445   1.957   0.307   5.390
53536SOL     OW62446   9.068   0.344   2.853
53536SOL    HW162447   9.032   0.418   2.901
53536SOL    HW262448   9.009   0.271   2.875
53537SOL     OW62449   5.014   2.288  14.451
53537SOL    HW162450   5.075   2.216  14.438
53537SOL    HW262451   4.960   2.288  14.372
53538SOL     OW62452   1.376  11.211   7.322
53538SOL    HW162453   1.416  11.291   7.288
53538SOL    HW262454   1.415  11.201   7.410
53539SOL     OW62455   9.498   2.935   3.125
53539SOL    HW162456   9.549   2.968   3.199
53539SOL    HW262457   9.563   2.905   3.062
53540SOL     OW62458   9.535   5.845   3.497
53540SOL    HW162459   9.616   5.845   3.446
53540SOL    HW262460   9.469   5.810   3.437
53541SOL     OW62461   0.244   6.646   1.408
53541SOL    HW162462   0.229   6.741   1.406
53541SOL    HW262463   0.320   6.633   1.351
53542SOL     OW62464   2.281   6.000  13.917
53542SOL    HW162465   2.345   6.006  13.988
53542SOL    HW262466   2.322   5.941  13.854
53543SOL     OW62467   8.241   3.943   3.793
53543SOL    HW162468   8.277   3.977   3.875
53543SOL    HW262469   8.148   3.968   3.795
53544SOL     OW62470   5.456  11.414  13.685
53544SOL    HW162471   5.485  11.354  13.616
53544SOL    HW262472   5.471  11.367  13.766
53545SOL     OW62473   3.355   1.145   5.860
53545SOL    HW162474   3.337   1.054   5.837
53545SOL    HW262475   3.269   1.187   5.866
53546SOL     OW62476   1.446   0.305  11.896
53546SOL    HW162477   1.388   0.381  11.910
53546SOL    HW262478   1.426   0.275  11.808
53547SOL     OW62479   2.607   7.572   2.842
53547SOL    HW162480   2.580   7.523   2.920
53547SOL    HW262481   2.579   7.516   2.769
53548SOL     OW62482  14.018   2.512   3.572
53548SOL    HW162483  13.938   2.483   3.617
53548SOL    HW262484  13.999   2.602   3.547
53549SOL     OW62485   1.244   1.381   7.174
53549SOL    HW162486   1.277   1.354   7.260
53549SOL    HW262487   1.266   1.474   7.168
53550SOL     OW62488   9.667   4.397   7.172
53550SOL    HW162489   9.620   4.469   7.129
53550SOL    HW262490   9.747   4.438   7.206
53551SOL     OW62491   9.437   1.296   5.205
53551SOL    HW162492   9.515   1.341   5.238
53551SOL    HW262493   9.389   1.364   5.157
53552SOL     OW62494   8.367   2.636   8.406
53552SOL    HW162495   8.283   2.591   8.402
53552SOL    HW262496   8.344   2.729   8.410
53553SOL     OW62497  14.595  12.643   6.419
53553SOL    HW162498  14.622  12.553   6.402
53553SOL    HW262499  14.638  12.666   6.501
53554SOL     OW62500   6.702  10.594   3.950
53554SOL    HW162501   6.750  10.565   4.028
53554SOL    HW262502   6.713  10.523   3.887
53555SOL     OW62503  13.920  11.151   6.953
53555SOL    HW162504  13.968  11.210   7.011
53555SOL    HW262505  13.910  11.201   6.871
53556SOL     OW62506  13.167   5.375   1.075
53556SOL    HW162507  13.229   5.432   1.121
53556SOL    HW262508  13.222   5.309   1.034
53557SOL     OW62509   1.211   6.103   7.197
53557SOL    HW162510   1.123   6.098   7.160
53557SOL    HW262511   1.246   6.186   7.163
53558SOL     OW62512  11.501   1.261  10.736
53558SOL    HW162513  11.561   1.294  10.669
53558SOL    HW262514  11.493   1.332  10.799
53559SOL     OW62515   5.545  13.217  10.473
53559SOL    HW162516   5.583  13.157  10.537
53559SOL    HW262517   5.606  13.216  10.399
53560SOL     OW62518   6.688   0.942   6.503
53560SOL    HW162519   6.608   0.904   6.538
53560SOL    HW262520   6.713   0.884   6.432
53561SOL     OW62521  10.596   6.166   3.782
53561SOL    HW162522  10.573   6.092   3.726
53561SOL    HW262523  10.685   6.190   3.755
53562SOL     OW62524   5.761   9.958   5.538
53562SOL    HW162525   5.782   9.874   5.581
53562SOL    HW262526   5.733   9.933   5.450
53563SOL     OW62527   3.257   0.883   9.068
53563SOL    HW162528   3.229   0.847   8.984
53563SOL    HW262529   3.195   0.847   9.131
53564SOL     OW62530  13.583   6.902  12.823
53564SOL    HW162531  13.663   6.857  12.796
53564SOL    HW262532  13.548   6.850  12.895
53565SOL     OW62533   9.923  13.962   4.477
53565SOL    HW162534   9.972  13.930   4.553
53565SOL    HW262535   9.991  13.999   4.419
53566SOL     OW62536   4.803  14.226  14.409
53566SOL    HW162537   4.861  14.151  14.418
53566SOL    HW262538   4.862  14.300  14.392
53567SOL     OW62539  12.536   2.791   4.276
53567SOL    HW162540  12.464   2.729   4.286
53567SOL    HW262541  12.597   2.770   4.347
53568SOL     OW62542  10.398   5.047   7.019
53568SOL    HW162543  10.352   5.061   6.937
53568SOL    HW262544  10.466   5.114   7.021
53569SOL     OW62545  13.017  12.719   4.515
53569SOL    HW162546  12.991  12.695   4.603
53569SOL    HW262547  13.046  12.810   4.522
53570SOL     OW62548   7.371   6.911   0.700
53570SOL    HW162549   7.457   6.876   0.676
53570SOL    HW262550   7.385   7.005   0.707
53571SOL     OW62551   6.581   3.324   9.032
53571SOL    HW162552   6.527   3.327   9.111
53571SOL    HW262553   6.559   3.240   8.992
53572SOL     OW62554   7.913   2.892   1.748
53572SOL    HW162555   7.921   2.959   1.816
53572SOL    HW262556   7.819   2.874   1.744
53573SOL     OW62557   9.832  11.713   6.743
53573SOL    HW162558   9.812  11.738   6.652
53573SOL    HW262559   9.752  11.670   6.773
53574SOL     OW62560   5.899   3.695  13.879
53574SOL    HW162561   5.832   3.763  13.891
53574SOL    HW262562   5.974   3.741  13.843
53575SOL     OW62563   9.573   7.636   9.472
53575SOL    HW162564   9.534   7.619   9.386
53575SOL    HW262565   9.560   7.555   9.521
53576SOL     OW62566   1.588   0.308  12.138
53576SOL    HW162567   1.559   0.292  12.048
53576SOL    HW262568   1.663   0.250  12.149
53577SOL     OW62569   3.181  14.072   7.709
53577SOL    HW162570   3.203  14.034   7.624
53577SOL    HW262571   3.243  14.144   7.719
53578SOL     OW62572  14.163  11.960  11.541
53578SOL    HW162573  14.150  11.879  11.492
53578SOL    HW262574  14.188  12.025  11.475
53579SOL     OW62575   7.425   5.230   8.334
53579SOL    HW162576   7.495   5.187   8.286
53579SOL    HW262577   7.443   5.323   8.324
53580SOL     OW62578  11.625  10.567   0.646
53580SOL    HW162579  11.709  10.522   0.637
53580SOL    HW262580  11.636  10.625   0.721
53581SOL     OW62581  13.566  12.667   5.532
53581SOL    HW162582  13.630  12.603   5.502
53581SOL    HW262583  13.603  12.752   5.507
53582SOL     OW62584   6.032  11.765  14.808
53582SOL    HW162585   5.979  11.761  14.728
53582SOL    HW262586   5.968  11.776  14.878
53583SOL     OW62587   4.153   3.407   1.119
53583SOL    HW162588   4.124   3.454   1.041
53583SOL    HW262589   4.105   3.324   1.115
53584SOL     OW62590   2.914   0.057   3.373
53584SOL    HW162591   2.977  14.868   3.352
53584SOL    HW262592   2.829   0.013   3.370
53585SOL     OW62593   1.461  12.912  13.836
53585SOL    HW162594   1.519  12.987  13.853
53585SOL    HW262595   1.490  12.846  13.899
53586SOL     OW62596  12.157   5.427   4.863
53586SOL    HW162597  12.231   5.366   4.866
53586SOL    HW262598  12.107   5.408   4.942
53587SOL     OW62599   3.090  10.026   1.528
53587SOL    HW162600   3.113  10.108   1.484
53587SOL    HW262601   2.996  10.016   1.514
53588SOL     OW62602   4.552  12.363   6.478
53588SOL    HW162603   4.552  12.274   6.441
53588SOL    HW262604   4.599  12.416   6.413
53589SOL     OW62605   3.331   8.100   0.562
53589SOL    HW162606   3.241   8.074   0.542
53589SOL    HW262607   3.343   8.075   0.654
53590SOL     OW62608   4.607  12.423   4.619
53590SOL    HW162609   4.594  12.380   4.704
53590SOL    HW262610   4.519  12.444   4.590
53591SOL     OW62611   8.051   5.770   5.974
53591SOL    HW162612   8.098   5.852   5.986
53591SOL    HW262613   8.090   5.710   6.037
53592SOL     OW62614   1.377   9.653  13.894
53592SOL    HW162615   1.318   9.622  13.963
53592SOL    HW262616   1.328   9.640  13.813
53593SOL     OW62617   6.024   2.614   5.384
53593SOL    HW162618   6.033   2.636   5.291
53593SOL    HW262619   6.110   2.636   5.422
53594SOL     OW62620   5.750  10.833   9.769
53594SOL    HW162621   5.689  10.771   9.810
53594SOL    HW262622   5.826  10.833   9.827
53595SOL     OW62623  13.448   9.494   9.160
53595SOL    HW162624  13.379   9.429   9.149
53595SOL    HW262625  13.505   9.458   9.228
53596SOL     OW62626  12.114  11.305  10.336
53596SOL    HW162627  12.071  11.303  10.422
53596SOL    HW262628  12.100  11.218  10.300
53597SOL     OW62629   4.519   6.353   2.803
53597SOL    HW162630   4.430   6.384   2.786
53597SOL    HW262631   4.556   6.419   2.861
53598SOL     OW62632   3.524   3.578   0.472
53598SOL    HW162633   3.586   3.628   0.525
53598SOL    HW262634   3.454   3.640   0.453
53599SOL     OW62635   3.445  10.537   3.764
53599SOL    HW162636   3.429  10.444   3.781
53599SOL    HW262637   3.503  10.538   3.688
53600SOL     OW62638  12.870   4.729   5.760
53600SOL    HW162639  12.905   4.663   5.700
53600SOL    HW262640  12.814   4.680   5.820
53601SOL     OW62641   4.166   8.055  14.062
53601SOL    HW162642   4.245   8.029  14.015
53601SOL    HW262643   4.182   8.027  14.153
53602SOL     OW62644   3.919  10.267   0.400
53602SOL    HW162645   4.015  10.268   0.402
53602SOL    HW262646   3.893  10.243   0.489
53603SOL     OW62647  11.861   6.358  11.249
53603SOL    HW162648  11.853   6.264  11.267
53603SOL    HW262649  11.770   6.390  11.248
53604SOL     OW62650   0.932   7.043  10.913
53604SOL    HW162651   0.883   7.111  10.960
53604SOL    HW262652   0.904   6.961  10.955
53605SOL     OW62653   9.196   3.386   3.601
53605SOL    HW162654   9.164   3.329   3.671
53605SOL    HW262655   9.292   3.380   3.608
53606SOL     OW62656   3.763   8.713  10.273
53606SOL    HW162657   3.734   8.760  10.351
53606SOL    HW262658   3.856   8.695  10.288
53607SOL     OW62659   4.388   0.086   1.187
53607SOL    HW162660   4.429   0.094   1.273
53607SOL    HW262661   4.294   0.083   1.206
53608SOL     OW62662   3.688  11.445  11.273
53608SOL    HW162663   3.769  11.469  11.318
53608SOL    HW262664   3.628  11.420  11.344
53609SOL     OW62665   4.636   5.679   5.036
53609SOL    HW162666   4.553   5.638   5.057
53609SOL    HW262667   4.679   5.618   4.976
53610SOL     OW62668   6.844   9.057   7.373
53610SOL    HW162669   6.912   9.113   7.411
53610SOL    HW262670   6.888   8.973   7.357
53611SOL     OW62671   4.384   8.086   0.624
53611SOL    HW162672   4.454   8.064   0.685
53611SOL    HW262673   4.321   8.015   0.632
53612SOL     OW62674   8.015   5.688  11.689
53612SOL    HW162675   7.944   5.632  11.657
53612SOL    HW262676   8.027   5.753  11.621
53613SOL     OW62677  12.796   0.787  13.631
53613SOL    HW162678  12.774   0.864  13.579
53613SOL    HW262679  12.808   0.717  13.567
53614SOL     OW62680  12.602   2.902   1.848
53614SOL    HW162681  12.675   2.944   1.892
53614SOL    HW262682  12.611   2.928   1.756
53615SOL     OW62683  10.508   9.411  10.797
53615SOL    HW162684  10.514   9.489  10.851
53615SOL    HW262685  10.461   9.439  10.718
53616SOL     OW62686  14.010  10.554   9.375
53616SOL    HW162687  13.915  10.555   9.387
53616SOL    HW262688  14.039  10.472   9.413
53617SOL     OW62689   5.383   8.439  10.180
53617SOL    HW162690   5.297   8.468  10.210
53617SOL    HW262691   5.366   8.360  10.130
53618SOL     OW62692   3.776   1.302   3.183
53618SOL    HW162693   3.796   1.233   3.120
53618SOL    HW262694   3.850   1.363   3.175
53619SOL     OW62695   6.173   6.431   0.003
53619SOL    HW162696   6.090   6.473  14.861
53619SOL    HW262697   6.183   6.444   0.097
53620SOL     OW62698   5.303   9.424  14.566
53620SOL    HW162699   5.307   9.509  14.522
53620SOL    HW262700   5.216   9.390  14.546
53621SOL     OW62701   9.636   4.749   3.614
53621SOL    HW162702   9.701   4.679   3.623
53621SOL    HW262703   9.591   4.752   3.699
53622SOL     OW62704   2.719   6.067   1.556
53622SOL    HW162705   2.751   5.978   1.576
53622SOL    HW262706   2.715   6.070   1.461
53623SOL     OW62707   9.777   3.573   5.134
53623SOL    HW162708   9.698   3.521   5.121
53623SOL    HW262709   9.758   3.657   5.092
53624SOL     OW62710   3.787   0.395   4.050
53624SOL    HW162711   3.881   0.381   4.053
53624SOL    HW262712   3.761   0.370   3.961
53625SOL     OW62713  14.665   3.349  13.068
53625SOL    HW162714  14.585   3.321  13.114
53625SOL    HW262715  14.720   3.271  13.066
53626SOL     OW62716   2.261   9.548  10.898
53626SOL    HW162717   2.299   9.460  10.892
53626SOL    HW262718   2.310   9.600  10.836
53627SOL     OW62719   9.325  14.408   7.521
53627SOL    HW162720   9.272  14.393   7.443
53627SOL    HW262721   9.415  14.399   7.491
53628SOL     OW62722   6.973   7.215   7.646
53628SOL    HW162723   6.961   7.162   7.567
53628SOL    HW262724   6.887   7.253   7.664
53629SOL     OW62725   2.048   7.597   2.907
53629SOL    HW162726   2.100   7.576   2.985
53629SOL    HW262727   2.030   7.691   2.914
53630SOL     OW62728  11.248  11.847  13.745
53630SOL    HW162729  11.187  11.775  13.761
53630SOL    HW262730  11.316  11.809  13.689
53631SOL     OW62731   7.832  13.523  14.877
53631SOL    HW162732   7.749  13.568   0.014
53631SOL    HW262733   7.893  13.559   0.062
53632SOL     OW62734   2.349  10.517   7.049
53632SOL    HW162735   2.338  10.430   7.011
53632SOL    HW262736   2.312  10.577   6.985
53633SOL     OW62737   9.248  13.175  13.317
53633SOL    HW162738   9.294  13.186  13.400
53633SOL    HW262739   9.311  13.132  13.260
53634SOL     OW62740   4.946   7.539   7.048
53634SOL    HW162741   4.962   7.596   7.124
53634SOL    HW262742   4.872   7.484   7.074
53635SOL     OW62743   9.074  12.483   4.914
53635SOL    HW162744   9.161  12.464   4.950
53635SOL    HW262745   9.076  12.444   4.826
53636SOL     OW62746  14.125  13.614   1.319
53636SOL    HW162747  14.152  13.530   1.282
53636SOL    HW262748  14.159  13.679   1.257
53637SOL     OW62749  11.721   8.627  12.164
53637SOL    HW162750  11.800   8.584  12.198
53637SOL    HW262751  11.749   8.717  12.146
53638SOL     OW62752   3.499   6.055   5.577
53638SOL    HW162753   3.499   5.960   5.566
53638SOL    HW262754   3.488   6.069   5.671
53639SOL     OW62755   1.302  13.928   9.362
53639SOL    HW162756   1.302  13.845   9.315
53639SOL    HW262757   1.237  13.916   9.432
53640SOL     OW62758   4.930   9.673   4.656
53640SOL    HW162759   4.977   9.631   4.728
53640SOL    HW262760   4.854   9.617   4.641
53641SOL     OW62761   2.850  14.042   6.007
53641SOL    HW162762   2.936  14.001   6.012
53641SOL    HW262763   2.801  13.989   5.945
53642SOL     OW62764  11.725  13.692  13.780
53642SOL    HW162765  11.688  13.772  13.743
53642SOL    HW262766  11.703  13.696  13.873
53643SOL     OW62767  13.295  14.162  12.974
53643SOL    HW162768  13.311  14.068  12.982
53643SOL    HW262769  13.335  14.200  13.053
53644SOL     OW62770   3.637  13.523   4.479
53644SOL    HW162771   3.543  13.526   4.459
53644SOL    HW262772   3.644  13.562   4.566
53645SOL     OW62773   0.367   0.460   6.013
53645SOL    HW162774   0.396   0.467   5.922
53645SOL    HW262775   0.359   0.551   6.043
53646SOL     OW62776  11.993   4.010   6.722
53646SOL    HW162777  11.985   4.070   6.648
53646SOL    HW262778  11.913   3.957   6.719
53647SOL     OW62779   9.324  11.509  12.240
53647SOL    HW162780   9.236  11.537  12.214
53647SOL    HW262781   9.369  11.590  12.263
53648SOL     OW62782   3.002  11.430   8.531
53648SOL    HW162783   3.005  11.341   8.498
53648SOL    HW262784   2.912  11.441   8.562
53649SOL     OW62785  11.024   2.163   0.114
53649SOL    HW162786  10.999   2.194   0.201
53649SOL    HW262787  11.115   2.189   0.104
53650SOL     OW62788  11.816  12.663   5.297
53650SOL    HW162789  11.903  12.672   5.259
53650SOL    HW262790  11.789  12.753   5.317
53651SOL     OW62791  11.744   0.829   3.148
53651SOL    HW162792  11.744   0.792   3.059
53651SOL    HW262793  11.735   0.924   3.134
53652SOL     OW62794   4.227  10.700   6.854
53652SOL    HW162795   4.202  10.653   6.934
53652SOL    HW262796   4.209  10.638   6.784
53653SOL     OW62797  11.844  10.316  14.545
53653SOL    HW162798  11.910  10.383  14.532
53653SOL    HW262799  11.868  10.247  14.483
53654SOL     OW62800   7.783  11.242  14.694
53654SOL    HW162801   7.795  11.313  14.630
53654SOL    HW262802   7.703  11.198  14.666
53655SOL     OW62803   8.628   0.751   4.800
53655SOL    HW162804   8.722   0.734   4.791
53655SOL    HW262805   8.611   0.823   4.740
53656SOL     OW62806   3.898   9.354   3.847
53656SOL    HW162807   3.955   9.418   3.889
53656SOL    HW262808   3.869   9.297   3.919
53657SOL     OW62809   7.594   9.975   2.497
53657SOL    HW162810   7.674   9.949   2.542
53657SOL    HW262811   7.590   9.918   2.420
53658SOL     OW62812  14.493  11.996   8.819
53658SOL    HW162813  14.403  12.018   8.795
53658SOL    HW262814  14.525  12.074   8.865
53659SOL     OW62815  12.176  11.209   6.253
53659SOL    HW162816  12.232  11.283   6.227
53659SOL    HW262817  12.152  11.167   6.170
53660SOL     OW62818   6.990   4.737  13.157
53660SOL    HW162819   6.970   4.795  13.231
53660SOL    HW262820   7.082   4.716  13.168
53661SOL     OW62821  12.846   1.187  10.146
53661SOL    HW162822  12.900   1.112  10.122
53661SOL    HW262823  12.778   1.191  10.079
53662SOL     OW62824   9.826  12.463   5.987
53662SOL    HW162825   9.807  12.370   5.982
53662SOL    HW262826   9.900  12.469   6.048
53663SOL     OW62827  10.995   7.594   5.615
53663SOL    HW162828  11.040   7.536   5.553
53663SOL    HW262829  10.924   7.540   5.651
53664SOL     OW62830   6.562   8.141   2.947
53664SOL    HW162831   6.529   8.129   3.036
53664SOL    HW262832   6.641   8.194   2.958
53665SOL     OW62833   5.218  10.258   7.456
53665SOL    HW162834   5.262  10.175   7.475
53665SOL    HW262835   5.289  10.318   7.433
53666SOL     OW62836   0.793   8.366   7.063
53666SOL    HW162837   0.809   8.282   7.106
53666SOL    HW262838   0.754   8.343   6.979
53667SOL     OW62839   5.716  12.895   2.425
53667SOL    HW162840   5.740  12.810   2.461
53667SOL    HW262841   5.787  12.918   2.365
53668SOL     OW62842   0.356  11.500   4.437
53668SOL    HW162843   0.276  11.456   4.465
53668SOL    HW262844   0.326  11.581   4.396
53669SOL     OW62845   7.047  11.801   2.350
53669SOL    HW162846   7.078  11.714   2.376
53669SOL    HW262847   7.016  11.790   2.260
53670SOL     OW62848   5.581  10.405   9.290
53670SOL    HW162849   5.632  10.327   9.272
53670SOL    HW262850   5.558  10.440   9.204
53671SOL     OW62851   0.847  14.449  10.375
53671SOL    HW162852   0.893  14.366  10.366
53671SOL    HW262853   0.794  14.457  10.296
53672SOL     OW62854   0.420   4.069   0.681
53672SOL    HW162855   0.458   4.038   0.599
53672SOL    HW262856   0.427   3.995   0.741
53673SOL     OW62857   9.413  12.205   5.848
53673SOL    HW162858   9.419  12.235   5.939
53673SOL    HW262859   9.439  12.113   5.852
53674SOL     OW62860  11.200  10.900   4.217
53674SOL    HW162861  11.113  10.937   4.205
53674SOL    HW262862  11.185  10.814   4.256
53675SOL     OW62863  11.826   6.203  11.855
53675SOL    HW162864  11.912   6.188  11.894
53675SOL    HW262865  11.841   6.264  11.784
53676SOL     OW62866   1.918   9.365   8.776
53676SOL    HW162867   1.890   9.275   8.761
53676SOL    HW262868   1.875   9.416   8.707
53677SOL     OW62869  13.054  11.711   7.310
53677SOL    HW162870  12.964  11.698   7.280
53677SOL    HW262871  13.066  11.643   7.376
53678SOL     OW62872  12.878  14.536   4.128
53678SOL    HW162873  12.821  14.469   4.088
53678SOL    HW262874  12.952  14.486   4.162
53679SOL     OW62875  12.747   3.220  13.350
53679SOL    HW162876  12.745   3.243  13.443
53679SOL    HW262877  12.829   3.256  13.318
53680SOL     OW62878  10.831   3.078  12.161
53680SOL    HW162879  10.805   3.000  12.211
53680SOL    HW262880  10.785   3.150  12.203
53681SOL     OW62881  12.410  10.465  10.995
53681SOL    HW162882  12.366  10.504  11.071
53681SOL    HW262883  12.483  10.415  11.033
53682SOL     OW62884  12.403  14.753  12.794
53682SOL    HW162885  12.334  14.759  12.861
53682SOL    HW262886  12.417  14.843  12.766
53683SOL     OW62887  13.256   5.242  10.147
53683SOL    HW162888  13.311   5.316  10.171
53683SOL    HW262889  13.229   5.259  10.057
53684SOL     OW62890   5.616  12.106   8.772
53684SOL    HW162891   5.621  12.135   8.863
53684SOL    HW262892   5.630  12.011   8.777
53685SOL     OW62893  13.216  10.639  14.294
53685SOL    HW162894  13.167  10.625  14.213
53685SOL    HW262895  13.230  10.551  14.329
53686SOL     OW62896  11.259   7.857   0.348
53686SOL    HW162897  11.222   7.945   0.345
53686SOL    HW262898  11.214   7.814   0.420
53687SOL     OW62899   0.586   1.179   0.995
53687SOL    HW162900   0.565   1.115   0.927
53687SOL    HW262901   0.644   1.131   1.055
53688SOL     OW62902   7.181   4.002   9.537
53688SOL    HW162903   7.177   4.089   9.577
53688SOL    HW262904   7.273   3.991   9.513
53689SOL     OW62905  11.736   0.618  10.258
53689SOL    HW162906  11.764   0.563  10.331
53689SOL    HW262907  11.773   0.575  10.181
53690SOL     OW62908  11.794   7.093   6.072
53690SOL    HW162909  11.757   7.015   6.031
53690SOL    HW262910  11.794   7.072   6.166
53691SOL     OW62911   0.674  14.083   3.733
53691SOL    HW162912   0.710  14.005   3.690
53691SOL    HW262913   0.750  14.139   3.748
53692SOL     OW62914  14.098  10.883   8.805
53692SOL    HW162915  14.011  10.858   8.837
53692SOL    HW262916  14.106  10.839   8.721
53693SOL     OW62917   6.217  14.820  11.139
53693SOL    HW162918   6.291  14.877  11.161
53693SOL    HW262919   6.232  14.795  11.048
53694SOL     OW62920  10.140  13.154   8.922
53694SOL    HW162921  10.105  13.200   8.845
53694SOL    HW262922  10.234  13.172   8.921
53695SOL     OW62923   9.446  10.223   1.300
53695SOL    HW162924   9.517  10.262   1.352
53695SOL    HW262925   9.415  10.295   1.244
53696SOL     OW62926   6.680   3.728   2.113
53696SOL    HW162927   6.617   3.774   2.059
53696SOL    HW262928   6.764   3.767   2.091
53697SOL     OW62929   0.909  13.951   5.044
53697SOL    HW162930   0.860  13.884   5.091
53697SOL    HW262931   0.957  13.998   5.112
53698SOL     OW62932  11.058  11.703  13.310
53698SOL    HW162933  11.002  11.688  13.233
53698SOL    HW262934  11.126  11.636  13.304
53699SOL     OW62935  10.405  13.151   6.087
53699SOL    HW162936  10.433  13.167   5.997
53699SOL    HW262937  10.370  13.235   6.116
53700SOL     OW62938  12.725   6.995   9.864
53700SOL    HW162939  12.738   6.914   9.913
53700SOL    HW262940  12.765   7.063   9.918
53701SOL     OW62941   2.895   4.848   3.762
53701SOL    HW162942   2.986   4.855   3.734
53701SOL    HW262943   2.846   4.826   3.683
53702SOL     OW62944   3.622  14.525   8.367
53702SOL    HW162945   3.641  14.432   8.374
53702SOL    HW262946   3.585  14.536   8.279
53703SOL     OW62947   1.523   8.552   4.920
53703SOL    HW162948   1.571   8.517   4.846
53703SOL    HW262949   1.458   8.611   4.882
53704SOL     OW62950   7.726  10.921  10.862
53704SOL    HW162951   7.731  10.863  10.785
53704SOL    HW262952   7.744  11.008  10.828
53705SOL     OW62953  13.566  10.550   7.252
53705SOL    HW162954  13.471  10.560   7.260
53705SOL    HW262955  13.602  10.602   7.324
53706SOL     OW62956   9.611  13.130   7.154
53706SOL    HW162957   9.582  13.217   7.181
53706SOL    HW262958   9.565  13.114   7.071
53707SOL     OW62959  12.657   7.731   6.591
53707SOL    HW162960  12.632   7.654   6.539
53707SOL    HW262961  12.575   7.777   6.607
53708SOL     OW62962   4.406  11.464  12.271
53708SOL    HW162963   4.378  11.383  12.229
53708SOL    HW262964   4.478  11.496  12.216
53709SOL     OW62965   5.564   1.715   6.337
53709SOL    HW162966   5.620   1.698   6.412
53709SOL    HW262967   5.582   1.806   6.314
53710SOL     OW62968  12.004   4.395   8.394
53710SOL    HW162969  11.972   4.333   8.330
53710SOL    HW262970  11.963   4.368   8.476
53711SOL     OW62971   1.411   8.181   3.080
53711SOL    HW162972   1.375   8.138   3.003
53711SOL    HW262973   1.451   8.109   3.130
53712SOL     OW62974   9.366  12.790   9.201
53712SOL    HW162975   9.417  12.722   9.244
53712SOL    HW262976   9.389  12.871   9.246
53713SOL     OW62977  10.010   7.169   6.172
53713SOL    HW162978  10.088   7.210   6.134
53713SOL    HW262979   9.953   7.152   6.096
53714SOL     OW62980   4.831  11.141   4.745
53714SOL    HW162981   4.845  11.063   4.691
53714SOL    HW262982   4.900  11.201   4.720
53715SOL     OW62983  14.435   2.810   1.442
53715SOL    HW162984  14.383   2.887   1.421
53715SOL    HW262985  14.384   2.765   1.510
53716SOL     OW62986   3.868  10.707   7.952
53716SOL    HW162987   3.792  10.683   8.005
53716SOL    HW262988   3.894  10.625   7.909
53717SOL     OW62989   1.362   6.758   8.489
53717SOL    HW162990   1.322   6.690   8.544
53717SOL    HW262991   1.385   6.713   8.408
53718SOL     OW62992  12.644   8.698   7.593
53718SOL    HW162993  12.669   8.614   7.555
53718SOL    HW262994  12.726   8.747   7.600
53719SOL     OW62995  12.243   8.673  12.850
53719SOL    HW162996  12.306   8.742  12.833
53719SOL    HW262997  12.235   8.626  12.768
53720SOL     OW62998  11.679  10.551  14.856
53720SOL    HW162999  11.668  10.631  14.804
53720SOL    HW263000  11.732  10.579   0.051
53721SOL     OW63001   2.595   8.234   1.182
53721SOL    HW163002   2.532   8.163   1.169
53721SOL    HW263003   2.671   8.208   1.130
53722SOL     OW63004   2.950  14.750   4.359
53722SOL    HW163005   2.913  14.702   4.433
53722SOL    HW263006   3.044  14.738   4.367
53723SOL     OW63007   9.388  12.584   8.484
53723SOL    HW163008   9.370  12.654   8.547
53723SOL    HW263009   9.408  12.507   8.538
53724SOL     OW63010  11.539   9.042  11.984
53724SOL    HW163011  11.580   9.106  12.042
53724SOL    HW263012  11.524   8.966  12.039
53725SOL     OW63013  10.571   8.955  10.075
53725SOL    HW163014  10.599   8.867  10.048
53725SOL    HW263015  10.482   8.943  10.108
53726SOL     OW63016  12.492   2.418   2.567
53726SOL    HW163017  12.504   2.508   2.537
53726SOL    HW263018  12.440   2.427   2.647
53727SOL     OW63019   6.045  10.428   8.237
53727SOL    HW163020   6.031  10.484   8.313
53727SOL    HW263021   6.004  10.476   8.164
53728SOL     OW63022  10.742   2.427   6.123
53728SOL    HW163023  10.832   2.398   6.110
53728SOL    HW263024  10.691   2.346   6.126
53729SOL     OW63025  10.397  14.067  11.595
53729SOL    HW163026  10.441  13.986  11.624
53729SOL    HW263027  10.312  14.037  11.563
53730SOL     OW63028  10.313   3.452  12.554
53730SOL    HW163029  10.247   3.452  12.484
53730SOL    HW263030  10.377   3.387  12.527
53731SOL     OW63031  11.821   8.028  10.233
53731SOL    HW163032  11.892   7.971  10.202
53731SOL    HW263033  11.810   8.092  10.162
53732SOL     OW63034  14.532   7.936  10.508
53732SOL    HW163035  14.489   7.924  10.593
53732SOL    HW263036  14.512   8.026  10.483
53733SOL     OW63037   0.458   7.895   5.391
53733SOL    HW163038   0.409   7.918   5.312
53733SOL    HW263039   0.391   7.891   5.460
53734SOL     OW63040  11.015   8.218  12.986
53734SOL    HW163041  10.990   8.126  12.979
53734SOL    HW263042  11.067   8.234  12.906
53735SOL     OW63043  11.504  12.819   6.051
53735SOL    HW163044  11.542  12.902   6.022
53735SOL    HW263045  11.419  12.815   6.006
53736SOL     OW63046  11.745  11.975   9.070
53736SOL    HW163047  11.714  12.016   8.990
53736SOL    HW263048  11.814  11.915   9.042
53737SOL     OW63049  13.667   3.898   6.120
53737SOL    HW163050  13.683   3.853   6.203
53737SOL    HW263051  13.753   3.904   6.079
53738SOL     OW63052   8.583   2.876   9.003
53738SOL    HW163053   8.613   2.819   8.932
53738SOL    HW263054   8.606   2.964   8.974
53739SOL     OW63055  12.198   5.701   8.738
53739SOL    HW163056  12.123   5.690   8.679
53739SOL    HW263057  12.184   5.635   8.806
53740SOL     OW63058  12.482   8.261   8.706
53740SOL    HW163059  12.402   8.307   8.733
53740SOL    HW263060  12.551   8.300   8.760
53741SOL     OW63061  11.009  12.248   2.081
53741SOL    HW163062  11.034  12.159   2.061
53741SOL    HW263063  10.918  12.242   2.110
53742SOL     OW63064   2.849  11.903  10.762
53742SOL    HW163065   2.843  11.879  10.670
53742SOL    HW263066   2.899  11.832  10.803
53743SOL     OW63067   9.429   4.407   7.644
53743SOL    HW163068   9.458   4.496   7.663
53743SOL    HW263069   9.453   4.357   7.721
53744SOL     OW63070  14.776  13.837   2.747
53744SOL    HW163071  14.824  13.918   2.724
53744SOL    HW263072  14.713  13.865   2.813
53745SOL     OW63073   6.064   8.453  11.658
53745SOL    HW163074   6.100   8.471  11.745
53745SOL    HW263075   6.039   8.360  11.661
53746SOL     OW63076  10.390   9.792  10.206
53746SOL    HW163077  10.445   9.727  10.162
53746SOL    HW263078  10.321   9.740  10.249
53747SOL     OW63079  11.229  11.455   9.639
53747SOL    HW163080  11.223  11.371   9.593
53747SOL    HW263081  11.139  11.486   9.644
53748SOL     OW63082  11.661   0.176   5.893
53748SOL    HW163083  11.598   0.108   5.868
53748SOL    HW263084  11.671   0.229   5.815
53749SOL     OW63085   4.363   5.309  13.311
53749SOL    HW163086   4.366   5.394  13.355
53749SOL    HW263087   4.450   5.300  13.271
53750SOL     OW63088   0.206  11.418  10.770
53750SOL    HW163089   0.123  11.400  10.725
53750SOL    HW263090   0.180  11.450  10.857
53751SOL     OW63091   3.779  14.529   9.532
53751SOL    HW163092   3.813  14.593   9.595
53751SOL    HW263093   3.793  14.569   9.447
53752SOL     OW63094   1.926   1.598   3.833
53752SOL    HW163095   1.917   1.691   3.854
53752SOL    HW263096   1.926   1.554   3.918
53753SOL     OW63097   4.297   7.489  14.734
53753SOL    HW163098   4.347   7.410  14.712
53753SOL    HW263099   4.292   7.488  14.829
53754SOL     OW63100   3.345   1.440   3.047
53754SOL    HW163101   3.384   1.399   2.970
53754SOL    HW263102   3.378   1.389   3.121
53755SOL     OW63103   1.058   2.957   9.514
53755SOL    HW163104   1.097   3.017   9.451
53755SOL    HW263105   0.982   2.920   9.470
53756SOL     OW63106  10.013   8.265   3.489
53756SOL    HW163107  10.061   8.344   3.515
53756SOL    HW263108   9.927   8.275   3.532
53757SOL     OW63109   4.910   7.286   4.900
53757SOL    HW163110   4.850   7.281   4.974
53757SOL    HW263111   4.987   7.237   4.929
53758SOL     OW63112  13.191  13.555   3.806
53758SOL    HW163113  13.151  13.579   3.889
53758SOL    HW263114  13.141  13.603   3.740
53759SOL     OW63115  10.095  11.881   7.306
53759SOL    HW163116  10.005  11.892   7.339
53759SOL    HW263117  10.132  11.969   7.308
53760SOL     OW63118   1.836   9.329   3.310
53760SOL    HW163119   1.757   9.300   3.355
53760SOL    HW263120   1.804   9.376   3.233
53761SOL     OW63121   6.861  11.147  12.836
53761SOL    HW163122   6.895  11.175  12.921
53761SOL    HW263123   6.772  11.116  12.854
53762SOL     OW63124   0.310   3.680   6.853
53762SOL    HW163125   0.259   3.635   6.920
53762SOL    HW263126   0.401   3.666   6.878
53763SOL     OW63127   3.330   3.384  14.350
53763SOL    HW163128   3.276   3.309  14.376
53763SOL    HW263129   3.389   3.349  14.284
53764SOL     OW63130  10.108   1.834   6.923
53764SOL    HW163131  10.140   1.875   6.842
53764SOL    HW263132  10.120   1.902   6.990
53765SOL     OW63133   0.792   7.008   2.958
53765SOL    HW163134   0.884   6.981   2.950
53765SOL    HW263135   0.782   7.033   3.049
53766SOL     OW63136  12.647  11.086   6.755
53766SOL    HW163137  12.688  11.042   6.680
53766SOL    HW263138  12.553  11.073   6.742
53767SOL     OW63139  10.296  11.628   6.047
53767SOL    HW163140  10.290  11.723   6.051
53767SOL    HW263141  10.217  11.600   6.001
53768SOL     OW63142   4.720   5.161  14.072
53768SOL    HW163143   4.776   5.238  14.080
53768SOL    HW263144   4.732   5.132  13.982
53769SOL     OW63145   2.643   2.045  11.403
53769SOL    HW163146   2.556   2.027  11.369
53769SOL    HW263147   2.629   2.108  11.474
53770SOL     OW63148  11.422   7.166   4.435
53770SOL    HW163149  11.455   7.119   4.512
53770SOL    HW263150  11.330   7.137   4.428
53771SOL     OW63151  12.358   8.025   2.501
53771SOL    HW163152  12.264   8.041   2.485
53771SOL    HW263153  12.359   7.952   2.562
53772SOL     OW63154  13.474   5.560   6.374
53772SOL    HW163155  13.455   5.653   6.366
53772SOL    HW263156  13.540   5.543   6.306
53773SOL     OW63157  12.716   4.957   8.678
53773SOL    HW163158  12.672   4.900   8.742
53773SOL    HW263159  12.808   4.956   8.704
53774SOL     OW63160   7.601   9.814  13.332
53774SOL    HW163161   7.643   9.779  13.254
53774SOL    HW263162   7.654   9.890  13.356
53775SOL     OW63163   6.818   1.797   7.582
53775SOL    HW163164   6.912   1.815   7.589
53775SOL    HW263165   6.781   1.831   7.663
53776SOL     OW63166  10.298   5.663   4.109
53776SOL    HW163167  10.264   5.612   4.036
53776SOL    HW263168  10.384   5.693   4.080
53777SOL     OW63169   5.498  12.786   7.299
53777SOL    HW163170   5.463  12.870   7.269
53777SOL    HW263171   5.585  12.782   7.260
53778SOL     OW63172   9.885  10.701   2.590
53778SOL    HW163173   9.876  10.610   2.560
53778SOL    HW263174   9.808  10.717   2.644
53779SOL     OW63175  12.894  10.675   8.901
53779SOL    HW163176  12.920  10.758   8.940
53779SOL    HW263177  12.964  10.653   8.840
53780SOL     OW63178  12.237   6.128   9.898
53780SOL    HW163179  12.143   6.129   9.877
53780SOL    HW263180  12.246   6.192   9.969
53781SOL     OW63181   7.134   2.900   2.369
53781SOL    HW163182   7.219   2.878   2.331
53781SOL    HW263183   7.135   2.861   2.456
53782SOL     OW63184   8.365   5.987   4.107
53782SOL    HW163185   8.447   5.939   4.117
53782SOL    HW263186   8.337   5.968   4.017
53783SOL     OW63187   8.591   1.854  10.654
53783SOL    HW163188   8.625   1.772  10.691
53783SOL    HW263189   8.509   1.829  10.611
53784SOL     OW63190   1.441   7.736  14.483
53784SOL    HW163191   1.473   7.779  14.404
53784SOL    HW263192   1.517   7.732  14.541
53785SOL     OW63193   5.967  10.202   4.560
53785SOL    HW163194   5.971  10.109   4.579
53785SOL    HW263195   5.983  10.209   4.466
53786SOL     OW63196   1.589   8.700   4.267
53786SOL    HW163197   1.509   8.706   4.319
53786SOL    HW263198   1.658   8.683   4.330
53787SOL     OW63199   6.673   6.112   5.318
53787SOL    HW163200   6.759   6.070   5.309
53787SOL    HW263201   6.632   6.101   5.233
53788SOL     OW63202   1.382   8.083  10.525
53788SOL    HW163203   1.402   7.990  10.523
53788SOL    HW263204   1.464   8.126  10.502
53789SOL     OW63205   6.669   7.896   9.228
53789SOL    HW163206   6.656   7.975   9.281
53789SOL    HW263207   6.622   7.827   9.275
53790SOL     OW63208  10.162  13.096   2.063
53790SOL    HW163209  10.193  13.056   2.144
53790SOL    HW263210  10.090  13.040   2.035
53791SOL     OW63211   6.849   1.295   6.963
53791SOL    HW163212   6.848   1.373   7.018
53791SOL    HW263213   6.941   1.273   6.953
53792SOL     OW63214  14.738  11.042  13.202
53792SOL    HW163215  14.767  11.004  13.285
53792SOL    HW263216  14.776  11.130  13.201
53793SOL     OW63217   8.626  13.202   1.557
53793SOL    HW163218   8.629  13.256   1.477
53793SOL    HW263219   8.702  13.229   1.607
53794SOL     OW63220  10.920   3.608  13.891
53794SOL    HW163221  10.861   3.683  13.885
53794SOL    HW263222  10.882   3.544  13.830
53795SOL     OW63223   1.159   5.679   6.537
53795SOL    HW163224   1.088   5.627   6.574
53795SOL    HW263225   1.185   5.738   6.608
53796SOL     OW63226   8.212   2.347   6.121
53796SOL    HW163227   8.247   2.435   6.139
53796SOL    HW263228   8.258   2.318   6.042
53797SOL     OW63229   8.610  11.841  13.787
53797SOL    HW163230   8.703  11.857  13.795
53797SOL    HW263231   8.577  11.912  13.731
53798SOL     OW63232  13.849   3.383   2.917
53798SOL    HW163233  13.877   3.409   2.830
53798SOL    HW263234  13.791   3.308   2.903
53799SOL     OW63235   9.495   9.866   9.338
53799SOL    HW163236   9.479   9.776   9.367
53799SOL    HW263237   9.469   9.866   9.246
53800SOL     OW63238   5.109  12.345   4.628
53800SOL    HW163239   5.023  12.346   4.670
53800SOL    HW263240   5.160  12.282   4.680
53801SOL     OW63241   8.886   6.982  13.211
53801SOL    HW163242   8.831   6.966  13.135
53801SOL    HW263243   8.828   7.021  13.276
53802SOL     OW63244   2.219   1.798  13.254
53802SOL    HW163245   2.284   1.768  13.190
53802SOL    HW263246   2.270   1.842  13.321
53803SOL     OW63247   5.454  12.830   0.741
53803SOL    HW163248   5.424  12.752   0.788
53803SOL    HW263249   5.430  12.902   0.799
53804SOL     OW63250   5.344   9.717   6.984
53804SOL    HW163251   5.393   9.649   6.938
53804SOL    HW263252   5.336   9.684   7.074
53805SOL     OW63253   6.590   2.642  10.563
53805SOL    HW163254   6.616   2.726  10.525
53805SOL    HW263255   6.496   2.649  10.575
53806SOL     OW63256   8.490   2.887  14.058
53806SOL    HW163257   8.420   2.822  14.059
53806SOL    HW263258   8.534   2.873  13.974
53807SOL     OW63259   9.562  13.660  12.571
53807SOL    HW163260   9.497  13.606  12.527
53807SOL    HW263261   9.513  13.736  12.602
53808SOL     OW63262  13.403   2.984   2.949
53808SOL    HW163263  13.424   2.892   2.936
53808SOL    HW263264  13.389   3.018   2.860
53809SOL     OW63265   6.537   1.286   3.387
53809SOL    HW163266   6.476   1.330   3.328
53809SOL    HW263267   6.548   1.347   3.460
53810SOL     OW63268   4.289   1.617   1.541
53810SOL    HW163269   4.208   1.627   1.491
53810SOL    HW263270   4.286   1.527   1.574
53811SOL     OW63271   0.030   2.973  10.619
53811SOL    HW163272  14.860   3.013  10.690
53811SOL    HW263273  14.851   2.906  10.583
53812SOL     OW63274   1.158   3.713   1.896
53812SOL    HW163275   1.193   3.689   1.811
53812SOL    HW263276   1.065   3.729   1.881
53813SOL     OW63277   8.666  12.477   8.899
53813SOL    HW163278   8.686  12.517   8.984
53813SOL    HW263279   8.740  12.418   8.883
53814SOL     OW63280  12.092   7.257   0.328
53814SOL    HW163281  12.184   7.231   0.321
53814SOL    HW263282  12.048   7.180   0.363
53815SOL     OW63283  10.433   6.554   8.793
53815SOL    HW163284  10.460   6.608   8.718
53815SOL    HW263285  10.355   6.508   8.762
53816SOL     OW63286   1.784   5.321   5.775
53816SOL    HW163287   1.742   5.243   5.739
53816SOL    HW263288   1.860   5.287   5.824
53817SOL     OW63289   6.700   3.203  11.826
53817SOL    HW163290   6.695   3.251  11.744
53817SOL    HW263291   6.613   3.165  11.838
53818SOL     OW63292  13.493  13.062   1.443
53818SOL    HW163293  13.415  13.116   1.431
53818SOL    HW263294  13.460  12.978   1.474
53819SOL     OW63295  11.205   0.589  14.711
53819SOL    HW163296  11.176   0.602  14.801
53819SOL    HW263297  11.216   0.494  14.704
53820SOL     OW63298   3.149   3.786   8.761
53820SOL    HW163299   3.207   3.861   8.752
53820SOL    HW263300   3.104   3.799   8.844
53821SOL     OW63301   2.988  12.124   3.624
53821SOL    HW163302   2.998  12.108   3.530
53821SOL    HW263303   2.895  12.113   3.641
53822SOL     OW63304   5.257   6.979   0.470
53822SOL    HW163305   5.338   6.929   0.469
53822SOL    HW263306   5.213   6.955   0.388
53823SOL     OW63307  12.635   8.956   4.519
53823SOL    HW163308  12.730   8.956   4.529
53823SOL    HW263309  12.602   8.914   4.598
53824SOL     OW63310   6.412   8.554   0.278
53824SOL    HW163311   6.339   8.574   0.337
53824SOL    HW263312   6.379   8.577   0.191
53825SOL     OW63313   6.890   1.509  13.231
53825SOL    HW163314   6.979   1.542  13.240
53825SOL    HW263315   6.835   1.588  13.224
53826SOL     OW63316   5.346   6.801   6.967
53826SOL    HW163317   5.343   6.891   6.996
53826SOL    HW263318   5.437   6.774   6.981
53827SOL     OW63319   3.297  14.518   8.277
53827SOL    HW163320   3.370  14.557   8.229
53827SOL    HW263321   3.230  14.586   8.277
53828SOL     OW63322   5.083  10.874   0.437
53828SOL    HW163323   5.095  10.898   0.345
53828SOL    HW263324   5.022  10.801   0.436
53829SOL     OW63325   1.080   7.071   5.811
53829SOL    HW163326   1.007   7.009   5.802
53829SOL    HW263327   1.129   7.063   5.729
53830SOL     OW63328   4.042   2.524  11.680
53830SOL    HW163329   3.972   2.541  11.743
53830SOL    HW263330   4.119   2.566  11.718
53831SOL     OW63331   9.445  10.246   8.529
53831SOL    HW163332   9.452  10.322   8.586
53831SOL    HW263333   9.360  10.208   8.551
53832SOL     OW63334   1.044   6.538  10.493
53832SOL    HW163335   0.972   6.493  10.536
53832SOL    HW263336   1.079   6.474  10.431
53833SOL     OW63337  14.379  12.340   3.993
53833SOL    HW163338  14.395  12.252   3.959
53833SOL    HW263339  14.293  12.364   3.958
53834SOL     OW63340   6.564   7.921   2.758
53834SOL    HW163341   6.622   7.857   2.798
53834SOL    HW263342   6.564   7.995   2.819
53835SOL     OW63343   1.801  10.536  11.651
53835SOL    HW163344   1.874  10.590  11.621
53835SOL    HW263345   1.842  10.461  11.694
53836SOL     OW63346   4.138  10.980   9.903
53836SOL    HW163347   4.160  11.013   9.816
53836SOL    HW263348   4.086  11.050   9.942
53837SOL     OW63349  14.749  12.469   5.816
53837SOL    HW163350  14.681  12.533   5.796
53837SOL    HW263351  14.822  12.522   5.848
53838SOL     OW63352   7.875  14.031   9.109
53838SOL    HW163353   7.788  13.994   9.122
53838SOL    HW263354   7.909  14.043   9.198
53839SOL     OW63355   2.155  14.212   3.968
53839SOL    HW163356   2.193  14.186   4.052
53839SOL    HW263357   2.068  14.245   3.990
53840SOL     OW63358  14.844  12.035   3.168
53840SOL    HW163359  14.793  12.079   3.101
53840SOL    HW263360   0.053  12.030   3.131
53841SOL     OW63361   8.519   5.093   1.355
53841SOL    HW163362   8.434   5.134   1.337
53841SOL    HW263363   8.563   5.091   1.270
53842SOL     OW63364  14.066   0.603   7.068
53842SOL    HW163365  14.045   0.525   7.017
53842SOL    HW263366  13.987   0.622   7.118
53843SOL     OW63367  12.070   0.716   5.308
53843SOL    HW163368  12.045   0.775   5.237
53843SOL    HW263369  12.156   0.747   5.335
53844SOL     OW63370   9.084   6.639   6.855
53844SOL    HW163371   9.127   6.555   6.867
53844SOL    HW263372   9.142   6.687   6.795
53845SOL     OW63373  12.542   5.169   5.013
53845SOL    HW163374  12.523   5.263   5.008
53845SOL    HW263375  12.572   5.155   5.102
53846SOL     OW63376   8.699  13.437   1.397
53846SOL    HW163377   8.631  13.402   1.339
53846SOL    HW263378   8.653  13.501   1.451
53847SOL     OW63379   1.570   5.944  12.943
53847SOL    HW163380   1.571   5.849  12.933
53847SOL    HW263381   1.602   5.977  12.858
53848SOL     OW63382   2.350  13.287   1.836
53848SOL    HW163383   2.445  13.302   1.827
53848SOL    HW263384   2.331  13.217   1.774
53849SOL     OW63385   6.928   8.251   6.112
53849SOL    HW163386   6.923   8.269   6.206
53849SOL    HW263387   6.970   8.165   6.106
53850SOL     OW63388  10.257   2.866   9.689
53850SOL    HW163389  10.325   2.875   9.622
53850SOL    HW263390  10.177   2.851   9.639
53851SOL     OW63391   2.945   0.871  11.376
53851SOL    HW163392   2.915   0.895  11.463
53851SOL    HW263393   2.875   0.817  11.340
53852SOL     OW63394   3.089  10.677   2.128
53852SOL    HW163395   3.066  10.590   2.095
53852SOL    HW263396   3.007  10.712   2.164
53853SOL     OW63397   9.573   8.708   1.329
53853SOL    HW163398   9.533   8.751   1.253
53853SOL    HW263399   9.575   8.615   1.306
53854SOL     OW63400   3.094   9.918   0.102
53854SOL    HW163401   3.044   9.907   0.184
53854SOL    HW263402   3.098  10.012   0.088
53855SOL     OW63403  10.013   0.887   0.877
53855SOL    HW163404  10.016   0.829   0.953
53855SOL    HW263405  10.039   0.832   0.803
53856SOL     OW63406   0.430   4.279   6.393
53856SOL    HW163407   0.484   4.202   6.408
53856SOL    HW263408   0.416   4.316   6.480
53857SOL     OW63409  14.413  10.978  11.408
53857SOL    HW163410  14.418  10.889  11.374
53857SOL    HW263411  14.501  10.996  11.441
53858SOL     OW63412   3.342   3.840  13.341
53858SOL    HW163413   3.379   3.890  13.268
53858SOL    HW263414   3.348   3.749  13.314
53859SOL     OW63415  11.480   2.297   8.861
53859SOL    HW163416  11.534   2.221   8.836
53859SOL    HW263417  11.452   2.334   8.777
53860SOL     OW63418   0.370   2.429   6.293
53860SOL    HW163419   0.322   2.488   6.234
53860SOL    HW263420   0.452   2.475   6.310
53861SOL     OW63421   2.301  10.283  12.685
53861SOL    HW163422   2.325  10.196  12.652
53861SOL    HW263423   2.385  10.327  12.701
53862SOL     OW63424  12.403   1.269   1.580
53862SOL    HW163425  12.424   1.280   1.487
53862SOL    HW263426  12.325   1.323   1.593
53863SOL     OW63427  12.619  10.091   7.608
53863SOL    HW163428  12.705  10.122   7.580
53863SOL    HW263429  12.557  10.138   7.552
53864SOL     OW63430  14.540   1.740   9.126
53864SOL    HW163431  14.449   1.754   9.153
53864SOL    HW263432  14.590   1.804   9.176
53865SOL     OW63433   7.738   5.417   4.822
53865SOL    HW163434   7.832   5.431   4.834
53865SOL    HW263435   7.708   5.497   4.778
53866SOL     OW63436   7.390   8.826  13.550
53866SOL    HW163437   7.344   8.899  13.510
53866SOL    HW263438   7.450   8.795  13.482
53867SOL     OW63439   6.836   6.588  14.734
53867SOL    HW163440   6.854   6.507  14.688
53867SOL    HW263441   6.741   6.600  14.725
53868SOL     OW63442   5.230   6.585   5.520
53868SOL    HW163443   5.264   6.496   5.511
53868SOL    HW263444   5.279   6.635   5.454
53869SOL     OW63445   1.470  10.047   2.141
53869SOL    HW163446   1.412  10.014   2.073
53869SOL    HW263447   1.439  10.135   2.159
53870SOL     OW63448   5.714  14.610  13.431
53870SOL    HW163449   5.698  14.685  13.489
53870SOL    HW263450   5.654  14.543  13.461
53871SOL     OW63451   3.764   7.029   1.866
53871SOL    HW163452   3.691   6.969   1.880
53871SOL    HW263453   3.768   7.040   1.771
53872SOL     OW63454  13.587   0.019  10.654
53872SOL    HW163455  13.528   0.067  10.711
53872SOL    HW263456  13.650   0.085  10.624
53873SOL     OW63457   7.878   4.680  14.013
53873SOL    HW163458   7.805   4.620  13.998
53873SOL    HW263459   7.843   4.745  14.074
53874SOL     OW63460   4.601   1.560   2.744
53874SOL    HW163461   4.606   1.551   2.839
53874SOL    HW263462   4.672   1.504   2.711
53875SOL     OW63463   0.641  11.107  12.819
53875SOL    HW163464   0.666  11.125  12.909
53875SOL    HW263465   0.668  11.184  12.770
53876SOL     OW63466  11.317   4.036   0.855
53876SOL    HW163467  11.236   3.990   0.837
53876SOL    HW263468  11.368   3.975   0.909
53877SOL     OW63469   6.127   2.444   0.935
53877SOL    HW163470   6.195   2.387   0.970
53877SOL    HW263471   6.171   2.498   0.869
53878SOL     OW63472   8.355   6.151  11.471
53878SOL    HW163473   8.423   6.119  11.412
53878SOL    HW263474   8.314   6.223  11.423
53879SOL     OW63475   5.463   0.649   9.606
53879SOL    HW163476   5.491   0.703   9.680
53879SOL    HW263477   5.484   0.559   9.633
53880SOL     OW63478   5.864   1.852   3.729
53880SOL    HW163479   5.901   1.764   3.721
53880SOL    HW263480   5.939   1.909   3.744
53881SOL     OW63481   9.012   4.258   4.077
53881SOL    HW163482   9.091   4.206   4.060
53881SOL    HW263483   9.046   4.346   4.093
53882SOL     OW63484   4.126  12.526  14.760
53882SOL    HW163485   4.166  12.513  14.845
53882SOL    HW263486   4.185  12.585  14.714
53883SOL     OW63487  12.884   1.249   9.286
53883SOL    HW163488  12.960   1.302   9.309
53883SOL    HW263489  12.922   1.171   9.243
53884SOL     OW63490  12.896   0.281   7.259
53884SOL    HW163491  12.930   0.346   7.320
53884SOL    HW263492  12.935   0.199   7.287
53885SOL     OW63493   0.347   2.155  14.589
53885SOL    HW163494   0.405   2.092  14.632
53885SOL    HW263495   0.302   2.104  14.522
53886SOL     OW63496   2.683   9.240  12.458
53886SOL    HW163497   2.624   9.166  12.473
53886SOL    HW263498   2.749   9.233  12.527
53887SOL     OW63499   8.112   6.687  12.261
53887SOL    HW163500   8.173   6.706  12.190
53887SOL    HW263501   8.114   6.764  12.317
53888SOL     OW63502  11.559   4.779   3.866
53888SOL    HW163503  11.503   4.778   3.945
53888SOL    HW263504  11.510   4.727   3.802
53889SOL     OW63505   4.353   2.617   7.193
53889SOL    HW163506   4.395   2.654   7.115
53889SOL    HW263507   4.276   2.572   7.159
53890SOL     OW63508   5.098  11.807  11.166
53890SOL    HW163509   5.185  11.832  11.195
53890SOL    HW263510   5.051  11.890  11.158
53891SOL     OW63511  12.816   1.348  12.097
53891SOL    HW163512  12.833   1.393  12.179
53891SOL    HW263513  12.747   1.284  12.118
53892SOL     OW63514   7.135   4.418   8.637
53892SOL    HW163515   7.115   4.326   8.617
53892SOL    HW263516   7.049   4.459   8.648
53893SOL     OW63517   9.780   9.833   4.225
53893SOL    HW163518   9.686   9.820   4.221
53893SOL    HW263519   9.811   9.766   4.285
53894SOL     OW63520   8.272   3.575   1.472
53894SOL    HW163521   8.338   3.508   1.453
53894SOL    HW263522   8.263   3.573   1.567
53895SOL     OW63523   9.693  14.575   8.891
53895SOL    HW163524   9.616  14.519   8.889
53895SOL    HW263525   9.745  14.542   8.964
53896SOL     OW63526   8.274   0.067   3.886
53896SOL    HW163527   8.302  14.866   3.844
53896SOL    HW263528   8.276   0.132   3.816
53897SOL     OW63529  13.141   6.918   4.125
53897SOL    HW163530  13.076   6.853   4.096
53897SOL    HW263531  13.096   6.967   4.194
53898SOL     OW63532   7.793   4.179   6.054
53898SOL    HW163533   7.722   4.218   6.002
53898SOL    HW263534   7.828   4.111   5.997
53899SOL     OW63535   8.635   8.339   1.323
53899SOL    HW163536   8.614   8.429   1.346
53899SOL    HW263537   8.607   8.330   1.231
53900SOL     OW63538   1.892   5.219  11.093
53900SOL    HW163539   1.862   5.136  11.056
53900SOL    HW263540   1.976   5.236  11.050
53901SOL     OW63541  10.065  12.026   6.655
53901SOL    HW163542  10.125  12.087   6.612
53901SOL    HW263543  10.050  11.957   6.589
53902SOL     OW63544   2.706  11.708   2.066
53902SOL    HW163545   2.656  11.627   2.079
53902SOL    HW263546   2.684  11.736   1.977
53903SOL     OW63547   1.934   6.895   7.279
53903SOL    HW163548   2.010   6.840   7.262
53903SOL    HW263549   1.864   6.834   7.301
53904SOL     OW63550  12.958   6.634  13.659
53904SOL    HW163551  12.888   6.643  13.724
53904SOL    HW263552  12.912   6.606  13.579
53905SOL     OW63553  14.795   2.614   0.663
53905SOL    HW163554  14.722   2.649   0.714
53905SOL    HW263555  14.871   2.662   0.694
53906SOL     OW63556   5.623   4.034  11.779
53906SOL    HW163557   5.631   4.126  11.755
53906SOL    HW263558   5.636   3.986  11.697
53907SOL     OW63559   0.293  10.436  11.550
53907SOL    HW163560   0.266  10.410  11.462
53907SOL    HW263561   0.212  10.465  11.592
53908SOL     OW63562   8.800   5.486   3.966
53908SOL    HW163563   8.754   5.550   4.020
53908SOL    HW263564   8.763   5.401   3.991
53909SOL     OW63565   7.983   1.381   7.842
53909SOL    HW163566   7.888   1.370   7.842
53909SOL    HW263567   8.003   1.422   7.926
53910SOL     OW63568  11.922   1.457   8.913
53910SOL    HW163569  11.895   1.509   8.837
53910SOL    HW263570  11.850   1.396   8.926
53911SOL     OW63571   4.147  11.503  11.571
53911SOL    HW163572   4.183  11.585  11.537
53911SOL    HW263573   4.212  11.437  11.549
53912SOL     OW63574   4.126   3.661   5.623
53912SOL    HW163575   4.084   3.724   5.565
53912SOL    HW263576   4.082   3.578   5.605
53913SOL     OW63577   2.753   3.421  14.482
53913SOL    HW163578   2.794   3.507  14.485
53913SOL    HW263579   2.659   3.439  14.475
53914SOL     OW63580   2.531   6.710  10.942
53914SOL    HW163581   2.538   6.638  11.005
53914SOL    HW263582   2.618   6.718  10.905
53915SOL     OW63583  13.251   7.571   9.839
53915SOL    HW163584  13.262   7.484   9.878
53915SOL    HW263585  13.318   7.575   9.771
53916SOL     OW63586   2.315   9.462   7.926
53916SOL    HW163587   2.246   9.515   7.968
53916SOL    HW263588   2.389   9.469   7.985
53917SOL     OW63589  14.635   9.245   7.574
53917SOL    HW163590  14.678   9.329   7.562
53917SOL    HW263591  14.690   9.199   7.638
53918SOL     OW63592  13.527   0.853   1.026
53918SOL    HW163593  13.513   0.946   1.043
53918SOL    HW263594  13.523   0.812   1.113
53919SOL     OW63595   9.221  14.696   1.612
53919SOL    HW163596   9.161  14.746   1.557
53919SOL    HW263597   9.169  14.622   1.644
53920SOL     OW63598  10.077   1.780   3.890
53920SOL    HW163599  10.160   1.803   3.932
53920SOL    HW263600  10.082   1.686   3.876
53921SOL     OW63601   9.934  14.522   6.448
53921SOL    HW163602   9.868  14.566   6.394
53921SOL    HW263603   9.914  14.429   6.439
53922SOL     OW63604   6.844  11.007   2.906
53922SOL    HW163605   6.932  10.984   2.935
53922SOL    HW263606   6.849  11.006   2.811
53923SOL     OW63607   8.961   9.230   9.392
53923SOL    HW163608   8.971   9.136   9.400
53923SOL    HW263609   9.049   9.266   9.407
53924SOL     OW63610   5.998   4.140   5.509
53924SOL    HW163611   5.928   4.119   5.447
53924SOL    HW263612   6.051   4.060   5.512
53925SOL     OW63613  12.533   7.466   3.813
53925SOL    HW163614  12.628   7.463   3.796
53925SOL    HW263615  12.494   7.416   3.742
53926SOL     OW63616  12.613  13.194   1.303
53926SOL    HW163617  12.544  13.230   1.247
53926SOL    HW263618  12.567  13.168   1.383
53927SOL     OW63619  14.780   2.636   6.806
53927SOL    HW163620  14.817   2.549   6.823
53927SOL    HW263621  14.765   2.673   6.893
53928SOL     OW63622  14.674  10.607  11.031
53928SOL    HW163623  14.630  10.640  11.109
53928SOL    HW263624  14.659  10.512  11.034
53929SOL     OW63625   7.827  12.139   9.743
53929SOL    HW163626   7.820  12.047   9.768
53929SOL    HW263627   7.913  12.165   9.775
53930SOL     OW63628   8.819   0.791  14.038
53930SOL    HW163629   8.804   0.882  14.063
53930SOL    HW263630   8.914   0.783  14.031
53931SOL     OW63631   5.363   3.926   0.607
53931SOL    HW163632   5.323   3.899   0.524
53931SOL    HW263633   5.455   3.939   0.586
53932SOL     OW63634  12.679  12.942  13.603
53932SOL    HW163635  12.622  12.902  13.670
53932SOL    HW263636  12.768  12.931  13.638
53933SOL     OW63637  10.006  13.488   5.155
53933SOL    HW163638  10.100  13.483   5.174
53933SOL    HW263639   9.972  13.403   5.184
53934SOL     OW63640   4.147   6.473   4.386
53934SOL    HW163641   4.133   6.566   4.372
53934SOL    HW263642   4.130   6.433   4.301
53935SOL     OW63643   6.530  14.659   9.633
53935SOL    HW163644   6.490  14.722   9.572
53935SOL    HW263645   6.456  14.622   9.681
53936SOL     OW63646  12.824   2.482   9.548
53936SOL    HW163647  12.760   2.411   9.542
53936SOL    HW263648  12.812   2.519   9.635
53937SOL     OW63649   1.115   0.226   4.271
53937SOL    HW163650   1.097   0.238   4.177
53937SOL    HW263651   1.167   0.303   4.295
53938SOL     OW63652  11.221  12.800   4.368
53938SOL    HW163653  11.184  12.888   4.371
53938SOL    HW263654  11.200  12.762   4.453
53939SOL     OW63655   0.477  12.308  14.376
53939SOL    HW163656   0.469  12.333  14.284
53939SOL    HW263657   0.556  12.352  14.406
53940SOL     OW63658  10.689  14.654   5.970
53940SOL    HW163659  10.709  14.588   5.904
53940SOL    HW263660  10.685  14.736   5.921
53941SOL     OW63661   4.457  14.543   2.257
53941SOL    HW163662   4.429  14.596   2.332
53941SOL    HW263663   4.389  14.556   2.191
53942SOL     OW63664  14.036  12.846  14.768
53942SOL    HW163665  13.972  12.799  14.716
53942SOL    HW263666  14.095  12.777  14.801
53943SOL     OW63667   8.115   0.455   8.300
53943SOL    HW163668   8.092   0.457   8.207
53943SOL    HW263669   8.133   0.363   8.318
53944SOL     OW63670   0.126   3.771  10.017
53944SOL    HW163671   0.148   3.819   9.937
53944SOL    HW263672   0.060   3.824  10.060
53945SOL     OW63673   9.856   0.899   9.306
53945SOL    HW163674   9.800   0.949   9.366
53945SOL    HW263675   9.824   0.809   9.312
53946SOL     OW63676  10.864   7.011  11.381
53946SOL    HW163677  10.916   7.085  11.413
53946SOL    HW263678  10.777   7.025  11.418
53947SOL     OW63679   0.250   0.666   6.452
53947SOL    HW163680   0.264   0.696   6.542
53947SOL    HW263681   0.280   0.576   6.451
53948SOL     OW63682   0.957   6.216   5.977
53948SOL    HW163683   0.875   6.209   6.026
53948SOL    HW263684   1.024   6.230   6.043
53949SOL     OW63685   3.694   2.061   7.350
53949SOL    HW163686   3.628   2.129   7.342
53949SOL    HW263687   3.775   2.108   7.370
53950SOL     OW63688  11.305   7.793  13.956
53950SOL    HW163689  11.400   7.807  13.962
53950SOL    HW263690  11.291   7.771  13.864
53951SOL     OW63691  12.187   3.752  13.570
53951SOL    HW163692  12.152   3.815  13.506
53951SOL    HW263693  12.247   3.804  13.624
53952SOL     OW63694  13.982  10.310   2.802
53952SOL    HW163695  14.007  10.217   2.797
53952SOL    HW263696  13.920  10.322   2.730
53953SOL     OW63697   9.112  10.289   3.552
53953SOL    HW163698   9.028  10.310   3.512
53953SOL    HW263699   9.149  10.374   3.577
53954SOL     OW63700   2.778   8.156   6.023
53954SOL    HW163701   2.804   8.096   6.093
53954SOL    HW263702   2.771   8.241   6.065
53955SOL     OW63703   0.746   9.836   7.706
53955SOL    HW163704   0.702   9.914   7.672
53955SOL    HW263705   0.821   9.824   7.647
53956SOL     OW63706  12.630  10.692   0.134
53956SOL    HW163707  12.676  10.609   0.136
53956SOL    HW263708  12.560  10.681   0.070
53957SOL     OW63709   8.158   5.170   3.610
53957SOL    HW163710   8.219   5.129   3.672
53957SOL    HW263711   8.111   5.097   3.570
53958SOL     OW63712  10.782   9.789   9.309
53958SOL    HW163713  10.703   9.767   9.259
53958SOL    HW263714  10.769   9.747   9.395
53959SOL     OW63715   3.859  12.192   0.886
53959SOL    HW163716   3.945  12.230   0.864
53959SOL    HW263717   3.805  12.209   0.809
53960SOL     OW63718   1.012   0.059  11.902
53960SOL    HW163719   1.019   0.038  11.995
53960SOL    HW263720   1.074   0.131  11.888
53961SOL     OW63721   5.797   3.498  13.672
53961SOL    HW163722   5.753   3.571  13.629
53961SOL    HW263723   5.813   3.529  13.761
53962SOL     OW63724  12.408  14.242   4.156
53962SOL    HW163725  12.338  14.248   4.091
53962SOL    HW263726  12.391  14.160   4.202
53963SOL     OW63727  11.500   9.814   0.805
53963SOL    HW163728  11.558   9.879   0.764
53963SOL    HW263729  11.557   9.738   0.820
53964SOL     OW63730   2.916   4.757   0.666
53964SOL    HW163731   2.921   4.841   0.619
53964SOL    HW263732   2.831   4.721   0.640
53965SOL     OW63733   9.156  14.609  12.852
53965SOL    HW163734   9.235  14.555  12.845
53965SOL    HW263735   9.135  14.608  12.945
53966SOL     OW63736   3.900   5.065  11.270
53966SOL    HW163737   3.814   5.043  11.307
53966SOL    HW263738   3.948   5.105  11.342
53967SOL     OW63739   5.346   4.260   8.119
53967SOL    HW163740   5.344   4.352   8.147
53967SOL    HW263741   5.271   4.251   8.060
53968SOL     OW63742   8.531   2.382   3.031
53968SOL    HW163743   8.569   2.321   3.094
53968SOL    HW263744   8.463   2.429   3.081
53969SOL     OW63745   6.499  13.775  10.292
53969SOL    HW163746   6.557  13.744  10.362
53969SOL    HW263747   6.533  13.861  10.269
53970SOL     OW63748  13.916   5.214   9.366
53970SOL    HW163749  13.960   5.286   9.411
53970SOL    HW263750  13.823   5.228   9.383
53971SOL     OW63751   1.132   6.514   3.186
53971SOL    HW163752   1.131   6.469   3.271
53971SOL    HW263753   1.109   6.605   3.207
53972SOL     OW63754   9.497   7.191   8.533
53972SOL    HW163755   9.495   7.267   8.592
53972SOL    HW263756   9.535   7.121   8.586
53973SOL     OW63757   6.148   0.271   4.488
53973SOL    HW163758   6.176   0.359   4.515
53973SOL    HW263759   6.193   0.212   4.548
53974SOL     OW63760  14.281   0.538   2.023
53974SOL    HW163761  14.231   0.457   2.038
53974SOL    HW263762  14.215   0.608   2.029
53975SOL     OW63763  14.071  10.702   1.375
53975SOL    HW163764  13.993  10.724   1.425
53975SOL    HW263765  14.105  10.786   1.345
53976SOL     OW63766  11.036  11.019   6.238
53976SOL    HW163767  10.943  11.003   6.258
53976SOL    HW263768  11.081  11.001   6.321
53977SOL     OW63769  14.441   4.297  12.257
53977SOL    HW163770  14.480   4.214  12.284
53977SOL    HW263771  14.372   4.313  12.322
53978SOL     OW63772   2.778  13.876  10.864
53978SOL    HW163773   2.842  13.906  10.799
53978SOL    HW263774   2.706  13.841  10.812
53979SOL     OW63775  10.789   1.200   2.609
53979SOL    HW163776  10.850   1.260   2.652
53979SOL    HW263777  10.844   1.144   2.554
53980SOL     OW63778  11.170  13.308   4.925
53980SOL    HW163779  11.107  13.379   4.934
53980SOL    HW263780  11.141  13.259   4.848
53981SOL     OW63781   6.764   8.771   0.663
53981SOL    HW163782   6.839   8.721   0.696
53981SOL    HW263783   6.748   8.736   0.576
53982SOL     OW63784   1.905   2.447   5.118
53982SOL    HW163785   1.928   2.404   5.200
53982SOL    HW263786   1.972   2.418   5.056
53983SOL     OW63787   8.663   6.116   1.552
53983SOL    HW163788   8.734   6.062   1.589
53983SOL    HW263789   8.616   6.057   1.494
53984SOL     OW63790   9.291  10.016  14.043
53984SOL    HW163791   9.379  10.012  14.080
53984SOL    HW263792   9.250  10.090  14.089
53985SOL     OW63793  13.765  14.547   7.143
53985SOL    HW163794  13.827  14.554   7.216
53985SOL    HW263795  13.684  14.517   7.184
53986SOL     OW63796  14.166   0.616   1.167
53986SOL    HW163797  14.181   0.606   1.073
53986SOL    HW263798  14.076   0.647   1.174
53987SOL     OW63799  10.206  13.532  12.779
53987SOL    HW163800  10.142  13.490  12.836
53987SOL    HW263801  10.179  13.624  12.777
53988SOL     OW63802  14.436   9.564  12.294
53988SOL    HW163803  14.507   9.622  12.320
53988SOL    HW263804  14.462   9.478  12.324
53989SOL     OW63805  10.661   3.784   9.010
53989SOL    HW163806  10.714   3.842   8.955
53989SOL    HW263807  10.625   3.841   9.078
53990SOL     OW63808  14.196   8.621   3.397
53990SOL    HW163809  14.224   8.709   3.372
53990SOL    HW263810  14.277   8.577   3.424
53991SOL     OW63811   7.472   0.176  11.846
53991SOL    HW163812   7.506   0.134  11.767
53991SOL    HW263813   7.379   0.188  11.829
53992SOL     OW63814   1.348  10.231   1.822
53992SOL    HW163815   1.257  10.249   1.844
53992SOL    HW263816   1.347  10.144   1.782
53993SOL     OW63817   7.424   1.857   3.912
53993SOL    HW163818   7.413   1.824   4.001
53993SOL    HW263819   7.428   1.952   3.921
53994SOL     OW63820   8.829   8.028   8.626
53994SOL    HW163821   8.753   7.970   8.630
53994SOL    HW263822   8.878   7.998   8.549
53995SOL     OW63823  14.251   6.798   9.378
53995SOL    HW163824  14.264   6.703   9.377
53995SOL    HW263825  14.337   6.834   9.354
53996SOL     OW63826   3.280  11.112  13.879
53996SOL    HW163827   3.283  11.196  13.834
53996SOL    HW263828   3.339  11.055  13.829
53997SOL     OW63829   8.438   7.869   9.864
53997SOL    HW163830   8.485   7.797   9.821
53997SOL    HW263831   8.471   7.869   9.954
53998SOL     OW63832   3.815  12.654  11.062
53998SOL    HW163833   3.727  12.680  11.035
53998SOL    HW263834   3.844  12.593  10.994
53999SOL     OW63835  11.970   9.301  13.834
53999SOL    HW163836  11.894   9.330  13.784
53999SOL    HW263837  11.936   9.282  13.921
54000SOL     OW63838   0.449   2.418   3.054
54000SOL    HW163839   0.473   2.336   3.098
54000SOL    HW263840   0.378   2.393   2.995
54001SOL     OW63841   1.741   0.412   2.613
54001SOL    HW163842   1.692   0.428   2.693
54001SOL    HW263843   1.829   0.389   2.643
54002SOL     OW63844   0.338   7.251   2.285
54002SOL    HW163845   0.429   7.222   2.297
54002SOL    HW263846   0.287   7.192   2.340
54003SOL     OW63847   2.804   6.339   6.581
54003SOL    HW163848   2.810   6.262   6.526
54003SOL    HW263849   2.890   6.347   6.622
54004SOL     OW63850   1.386   9.939  10.964
54004SOL    HW163851   1.345  10.009  11.015
54004SOL    HW263852   1.468   9.977  10.933
54005SOL     OW63853  12.393  11.924   3.566
54005SOL    HW163854  12.448  11.989   3.611
54005SOL    HW263855  12.455  11.858   3.536
54006SOL     OW63856  11.532   1.625   5.883
54006SOL    HW163857  11.492   1.710   5.865
54006SOL    HW263858  11.520   1.576   5.802
54007SOL     OW63859  11.193   8.274   2.379
54007SOL    HW163860  11.155   8.349   2.334
54007SOL    HW263861  11.159   8.279   2.469
54008SOL     OW63862   5.206   9.820  11.320
54008SOL    HW163863   5.294   9.836  11.354
54008SOL    HW263864   5.180   9.737  11.359
54009SOL     OW63865  13.306   8.890   0.350
54009SOL    HW163866  13.263   8.855   0.428
54009SOL    HW263867  13.284   8.983   0.350
54010SOL     OW63868   4.965   5.132  12.120
54010SOL    HW163869   4.998   5.062  12.063
54010SOL    HW263870   4.878   5.152  12.085
54011SOL     OW63871  11.807   8.242  14.370
54011SOL    HW163872  11.857   8.173  14.415
54011SOL    HW263873  11.722   8.202  14.353
54012SOL     OW63874  14.400  11.926   6.897
54012SOL    HW163875  14.477  11.956   6.945
54012SOL    HW263876  14.351  11.873   6.959
54013SOL     OW63877   0.654   1.412   6.188
54013SOL    HW163878   0.694   1.329   6.161
54013SOL    HW263879   0.610   1.391   6.270
54014SOL     OW63880   7.541  10.202   9.081
54014SOL    HW163881   7.549  10.155   8.998
54014SOL    HW263882   7.463  10.256   9.070
54015SOL     OW63883   5.880   3.960   6.644
54015SOL    HW163884   5.916   4.046   6.663
54015SOL    HW263885   5.897   3.947   6.551
54016SOL     OW63886   0.499  10.925   1.713
54016SOL    HW163887   0.545  10.864   1.771
54016SOL    HW263888   0.430  10.872   1.674
54017SOL     OW63889   2.103  14.192   0.156
54017SOL    HW163890   2.171  14.239   0.204
54017SOL    HW263891   2.044  14.160   0.225
54018SOL     OW63892  10.951  12.874   3.514
54018SOL    HW163893  10.943  12.962   3.479
54018SOL    HW263894  10.897  12.874   3.593
54019SOL     OW63895   2.820   6.256   5.644
54019SOL    HW163896   2.830   6.345   5.611
54019SOL    HW263897   2.910   6.225   5.659
54020SOL     OW63898  11.290   0.825   2.945
54020SOL    HW163899  11.332   0.844   3.029
54020SOL    HW263900  11.242   0.744   2.960
54021SOL     OW63901   4.441   2.321  13.317
54021SOL    HW163902   4.521   2.321  13.263
54021SOL    HW263903   4.370   2.306  13.254
54022SOL     OW63904   3.210   6.511   7.075
54022SOL    HW163905   3.139   6.459   7.038
54022SOL    HW263906   3.267   6.532   7.001
54023SOL     OW63907  13.794   6.952   1.631
54023SOL    HW163908  13.874   6.903   1.646
54023SOL    HW263909  13.731   6.887   1.599
54024SOL     OW63910   5.935   7.676   5.328
54024SOL    HW163911   5.925   7.581   5.321
54024SOL    HW263912   5.898   7.698   5.414
54025SOL     OW63913   2.446  11.093  13.873
54025SOL    HW163914   2.443  11.105  13.968
54025SOL    HW263915   2.360  11.058  13.850
54026SOL     OW63916   8.719   2.851  10.754
54026SOL    HW163917   8.687   2.771  10.712
54026SOL    HW263918   8.725   2.915  10.683
54027SOL     OW63919   7.121  10.365  12.399
54027SOL    HW163920   7.214  10.374  12.379
54027SOL    HW263921   7.107  10.420  12.476
54028SOL     OW63922  14.015  11.823  12.960
54028SOL    HW163923  13.946  11.758  12.969
54028SOL    HW263924  14.096  11.771  12.962
54029SOL     OW63925   4.953   0.313   7.629
54029SOL    HW163926   4.886   0.312   7.560
54029SOL    HW263927   4.913   0.267   7.702
54030SOL     OW63928   0.270   4.628  11.545
54030SOL    HW163929   0.241   4.537  11.545
54030SOL    HW263930   0.352   4.627  11.495
54031SOL     OW63931  10.549  13.155  13.974
54031SOL    HW163932  10.637  13.178  13.947
54031SOL    HW263933  10.559  13.117  14.062
54032SOL     OW63934   0.386   8.162   1.208
54032SOL    HW163935   0.298   8.158   1.170
54032SOL    HW263936   0.442   8.189   1.136
54033SOL     OW63937   8.590   7.702   0.555
54033SOL    HW163938   8.651   7.773   0.536
54033SOL    HW263939   8.574   7.661   0.470
54034SOL     OW63940  11.921   3.710   9.745
54034SOL    HW163941  11.874   3.733   9.665
54034SOL    HW263942  11.961   3.625   9.725
54035SOL     OW63943  13.415   9.823   1.455
54035SOL    HW163944  13.376   9.887   1.515
54035SOL    HW263945  13.501   9.804   1.494
54036SOL     OW63946  12.865  10.497  14.289
54036SOL    HW163947  12.857  10.585  14.326
54036SOL    HW263948  12.884  10.442  14.365
54037SOL     OW63949  11.751   6.178   0.226
54037SOL    HW163950  11.711   6.126   0.296
54037SOL    HW263951  11.707   6.263   0.231
54038SOL     OW63952   3.290   8.292  14.235
54038SOL    HW163953   3.326   8.368  14.191
54038SOL    HW263954   3.223   8.327  14.295
54039SOL     OW63955   7.301   4.230  13.646
54039SOL    HW163956   7.214   4.218  13.607
54039SOL    HW263957   7.308   4.162  13.712
54040SOL     OW63958   3.595  10.561   2.955
54040SOL    HW163959   3.527  10.493   2.954
54040SOL    HW263960   3.617  10.573   2.862
54041SOL     OW63961  10.190   3.178   7.711
54041SOL    HW163962  10.117   3.123   7.683
54041SOL    HW263963  10.262   3.155   7.652
54042SOL     OW63964   0.778   6.739   6.656
54042SOL    HW163965   0.856   6.687   6.638
54042SOL    HW263966   0.782   6.757   6.750
54043SOL     OW63967   5.146   7.210   8.388
54043SOL    HW163968   5.183   7.232   8.473
54043SOL    HW263969   5.219   7.176   8.337
54044SOL     OW63970   3.201   9.392   4.794
54044SOL    HW163971   3.120   9.427   4.831
54044SOL    HW263972   3.271   9.436   4.844
54045SOL     OW63973   3.819   2.087   8.461
54045SOL    HW163974   3.871   2.040   8.526
54045SOL    HW263975   3.801   2.022   8.393
54046SOL     OW63976   6.977  10.685  10.317
54046SOL    HW163977   7.061  10.640  10.308
54046SOL    HW263978   6.951  10.705  10.227
54047SOL     OW63979   9.727  13.227   6.261
54047SOL    HW163980   9.820  13.249   6.259
54047SOL    HW263981   9.722  13.144   6.307
54048SOL     OW63982  12.003   9.282   9.157
54048SOL    HW163983  12.046   9.324   9.082
54048SOL    HW263984  11.919   9.327   9.164
54049SOL     OW63985   8.461  11.694   9.838
54049SOL    HW163986   8.440  11.753   9.910
54049SOL    HW263987   8.557  11.686   9.841
54050SOL     OW63988   9.448  13.585  10.619
54050SOL    HW163989   9.439  13.649  10.689
54050SOL    HW263990   9.382  13.519  10.638
54051SOL     OW63991   2.566  11.830   7.886
54051SOL    HW163992   2.491  11.781   7.921
54051SOL    HW263993   2.641  11.773   7.901
54052SOL     OW63994   6.862   9.342  12.984
54052SOL    HW163995   6.947   9.378  12.959
54052SOL    HW263996   6.871   9.322  13.077
54053SOL     OW63997   5.153  12.109   2.958
54053SOL    HW163998   5.188  12.053   2.888
54053SOL    HW263999   5.103  12.048   3.013
54054SOL     OW64000   0.958   7.191   6.214
54054SOL    HW164001   0.865   7.195   6.237
54054SOL    HW264002   0.968   7.108   6.167
54055SOL     OW64003   5.317   8.709  12.837
54055SOL    HW164004   5.370   8.789  12.833
54055SOL    HW264005   5.294   8.701  12.930
54056SOL     OW64006   0.981   3.589  12.270
54056SOL    HW164007   0.959   3.654  12.203
54056SOL    HW264008   0.927   3.513  12.248
54057SOL     OW64009   9.127  12.856  10.238
54057SOL    HW164010   9.141  12.761  10.236
54057SOL    HW264011   9.058  12.871  10.174
54058SOL     OW64012  12.104  10.801   0.490
54058SOL    HW164013  12.160  10.763   0.558
54058SOL    HW264014  12.046  10.730   0.464
54059SOL     OW64015   0.092   4.796  13.025
54059SOL    HW164016   0.070   4.703  13.025
54059SOL    HW264017   0.055   4.830  13.107
54060SOL     OW64018  11.396   2.244  12.116
54060SOL    HW164019  11.337   2.290  12.175
54060SOL    HW264020  11.480   2.244  12.161
54061SOL     OW64021   6.773   7.203   9.206
54061SOL    HW164022   6.860   7.233   9.181
54061SOL    HW264023   6.781   7.107   9.212
54062SOL     OW64024   6.762  11.923   1.068
54062SOL    HW164025   6.725  11.960   1.148
54062SOL    HW264026   6.846  11.967   1.057
54063SOL     OW64027   0.407   9.366   9.946
54063SOL    HW164028   0.490   9.414   9.950
54063SOL    HW264029   0.433   9.275   9.931
54064SOL     OW64030   6.763  11.964   1.837
54064SOL    HW164031   6.714  11.956   1.918
54064SOL    HW264032   6.830  12.030   1.855
54065SOL     OW64033   3.761   8.035  13.167
54065SOL    HW164034   3.794   7.948  13.192
54065SOL    HW264035   3.714   8.065  13.245
54066SOL     OW64036   8.682   8.706   2.383
54066SOL    HW164037   8.765   8.694   2.337
54066SOL    HW264038   8.702   8.764   2.456
54067SOL     OW64039   5.674  14.362   5.498
54067SOL    HW164040   5.692  14.300   5.427
54067SOL    HW264041   5.749  14.355   5.556
54068SOL     OW64042  14.586   3.189   5.447
54068SOL    HW164043  14.538   3.107   5.452
54068SOL    HW264044  14.604   3.213   5.538
54069SOL     OW64045   5.079  12.171   7.100
54069SOL    HW164046   5.005  12.116   7.125
54069SOL    HW264047   5.092  12.154   7.007
54070SOL     OW64048   3.342   0.544   6.652
54070SOL    HW164049   3.404   0.616   6.665
54070SOL    HW264050   3.309   0.556   6.563
54071SOL     OW64051  10.307   1.454   1.766
54071SOL    HW164052  10.303   1.534   1.819
54071SOL    HW264053  10.350   1.390   1.823
54072SOL     OW64054   8.856  11.707  12.823
54072SOL    HW164055   8.907  11.695  12.743
54072SOL    HW264056   8.831  11.619  12.849
54073SOL     OW64057   9.655  13.497   0.730
54073SOL    HW164058   9.647  13.447   0.648
54073SOL    HW264059   9.662  13.588   0.702
54074SOL     OW64060  10.871  10.520  13.269
54074SOL    HW164061  10.863  10.428  13.243
54074SOL    HW264062  10.838  10.569  13.193
54075SOL     OW64063   7.567   3.356   1.840
54075SOL    HW164064   7.554   3.289   1.907
54075SOL    HW264065   7.479   3.376   1.808
54076SOL     OW64066  11.432  10.476  12.588
54076SOL    HW164067  11.428  10.431  12.504
54076SOL    HW264068  11.381  10.556  12.575
54077SOL     OW64069   3.748   9.500   8.722
54077SOL    HW164070   3.733   9.492   8.628
54077SOL    HW264071   3.807   9.427   8.743
54078SOL     OW64072  11.478  10.404  10.202
54078SOL    HW164073  11.435  10.486  10.227
54078SOL    HW264074  11.571  10.420  10.217
54079SOL     OW64075  14.283  12.034   1.769
54079SOL    HW164076  14.229  11.981   1.827
54079SOL    HW264077  14.223  12.065   1.702
54080SOL     OW64078  13.774   2.189   1.282
54080SOL    HW164079  13.690   2.217   1.245
54080SOL    HW264080  13.766   2.094   1.292
54081SOL     OW64081   7.169  12.564   0.639
54081SOL    HW164082   7.179  12.472   0.616
54081SOL    HW264083   7.129  12.563   0.726
54082SOL     OW64084   0.899   8.993   0.901
54082SOL    HW164085   0.922   8.927   0.966
54082SOL    HW264086   0.913   9.077   0.945
54083SOL     OW64087   4.362  13.755   7.418
54083SOL    HW164088   4.366  13.813   7.494
54083SOL    HW264089   4.326  13.673   7.452
54084SOL     OW64090   3.473  13.033  14.478
54084SOL    HW164091   3.487  13.106  14.418
54084SOL    HW264092   3.406  12.980  14.437
54085SOL     OW64093   8.168   7.310  11.353
54085SOL    HW164094   8.148   7.349  11.268
54085SOL    HW264095   8.082   7.291  11.391
54086SOL     OW64096   0.633   3.893  10.440
54086SOL    HW164097   0.542   3.916  10.421
54086SOL    HW264098   0.664   3.963  10.497
54087SOL     OW64099   0.058   9.920   7.863
54087SOL    HW164100   0.125   9.958   7.921
54087SOL    HW264101   0.045   9.832   7.896
54088SOL     OW64102   9.063  14.123   9.800
54088SOL    HW164103   9.031  14.077   9.723
54088SOL    HW264104   9.057  14.058   9.871
54089SOL     OW64105   2.955   6.995   7.493
54089SOL    HW164106   3.042   6.983   7.530
54089SOL    HW264107   2.941   7.089   7.495
54090SOL     OW64108   4.106  11.995   9.739
54090SOL    HW164109   4.050  12.015   9.813
54090SOL    HW264110   4.138  11.906   9.756
54091SOL     OW64111   8.824   9.533  11.405
54091SOL    HW164112   8.775   9.470  11.458
54091SOL    HW264113   8.869   9.588  11.469
54092SOL     OW64114   7.017   5.991  12.524
54092SOL    HW164115   7.033   5.919  12.463
54092SOL    HW264116   6.944   6.040  12.486
54093SOL     OW64117   9.006   2.348   9.249
54093SOL    HW164118   8.944   2.278   9.271
54093SOL    HW264119   9.008   2.348   9.153
54094SOL     OW64120   9.740  12.133   5.643
54094SOL    HW164121   9.775  12.173   5.563
54094SOL    HW264122   9.650  12.111   5.622
54095SOL     OW64123  10.747   4.555  10.446
54095SOL    HW164124  10.820   4.542  10.386
54095SOL    HW264125  10.680   4.600  10.393
54096SOL     OW64126  12.803   7.948   0.655
54096SOL    HW164127  12.815   7.874   0.715
54096SOL    HW264128  12.764   7.909   0.577
54097SOL     OW64129   4.088   6.665  13.777
54097SOL    HW164130   4.145   6.597  13.812
54097SOL    HW264131   4.112   6.744  13.825
54098SOL     OW64132  13.777   6.425   6.020
54098SOL    HW164133  13.763   6.492   5.953
54098SOL    HW264134  13.839   6.364   5.980
54099SOL     OW64135   3.982   2.690  10.374
54099SOL    HW164136   3.889   2.670  10.387
54099SOL    HW264137   4.002   2.754  10.444
54100SOL     OW64138   7.542   7.042   8.120
54100SOL    HW164139   7.543   7.050   8.215
54100SOL    HW264140   7.614   6.982   8.100
54101SOL     OW64141   5.259  10.437   1.949
54101SOL    HW164142   5.289  10.346   1.958
54101SOL    HW264143   5.244  10.448   1.855
54102SOL     OW64144   9.204   3.283   1.575
54102SOL    HW164145   9.121   3.238   1.559
54102SOL    HW264146   9.234   3.310   1.488
54103SOL     OW64147   5.195   6.974  13.841
54103SOL    HW164148   5.167   6.883  13.839
54103SOL    HW264149   5.138   7.016  13.905
54104SOL     OW64150  13.754   3.069  12.314
54104SOL    HW164151  13.821   3.001  12.313
54104SOL    HW264152  13.750   3.098  12.405
54105SOL     OW64153   7.283   6.570   6.320
54105SOL    HW164154   7.261   6.662   6.308
54105SOL    HW264155   7.362   6.571   6.374
54106SOL     OW64156   0.931   1.051   6.264
54106SOL    HW164157   0.914   0.985   6.330
54106SOL    HW264158   1.003   1.015   6.212
54107SOL     OW64159  10.814   8.834  12.896
54107SOL    HW164160  10.888   8.798  12.847
54107SOL    HW264161  10.761   8.758  12.918
54108SOL     OW64162  13.838   7.166   3.010
54108SOL    HW164163  13.927   7.155   2.979
54108SOL    HW264164  13.836   7.254   3.049
54109SOL     OW64165   6.766  14.426  14.706
54109SOL    HW164166   6.839  14.383  14.750
54109SOL    HW264167   6.806  14.470  14.631
54110SOL     OW64168   2.755  12.530  12.678
54110SOL    HW164169   2.694  12.457  12.686
54110SOL    HW264170   2.804  12.529  12.761
54111SOL     OW64171   1.356   8.097  14.576
54111SOL    HW164172   1.334   8.006  14.555
54111SOL    HW264173   1.344   8.144  14.493
54112SOL     OW64174   1.602  10.793  10.864
54112SOL    HW164175   1.589  10.835  10.949
54112SOL    HW264176   1.693  10.763  10.865
54113SOL     OW64177   3.878  13.369   8.401
54113SOL    HW164178   3.916  13.402   8.483
54113SOL    HW264179   3.867  13.276   8.416
54114SOL     OW64180   6.836   2.444   8.643
54114SOL    HW164181   6.792   2.529   8.645
54114SOL    HW264182   6.775   2.387   8.597
54115SOL     OW64183  12.656   3.784   9.464
54115SOL    HW164184  12.695   3.697   9.476
54115SOL    HW264185  12.731   3.842   9.450
54116SOL     OW64186  12.136  14.344  12.350
54116SOL    HW164187  12.055  14.313  12.311
54116SOL    HW264188  12.119  14.346  12.444
54117SOL     OW64189   9.140   9.613   2.128
54117SOL    HW164190   9.197   9.641   2.200
54117SOL    HW264191   9.091   9.691   2.104
54118SOL     OW64192   1.845   5.121   1.208
54118SOL    HW164193   1.897   5.071   1.145
54118SOL    HW264194   1.829   5.204   1.164
54119SOL     OW64195   2.438  13.938  10.876
54119SOL    HW164196   2.462  13.848  10.898
54119SOL    HW264197   2.355  13.952  10.922
54120SOL     OW64198   2.582   9.485   7.992
54120SOL    HW164199   2.640   9.424   7.947
54120SOL    HW264200   2.630   9.511   8.071
54121SOL     OW64201  12.348   3.852   4.331
54121SOL    HW164202  12.308   3.929   4.371
54121SOL    HW264203  12.441   3.859   4.354
54122SOL     OW64204  10.085   0.100   2.123
54122SOL    HW164205  10.118   0.011   2.132
54122SOL    HW264206  10.146   0.153   2.175
54123SOL     OW64207  12.793   3.622  14.757
54123SOL    HW164208  12.715   3.621  14.701
54123SOL    HW264209  12.838   3.704  14.735
54124SOL     OW64210  12.711  10.720   1.435
54124SOL    HW164211  12.731  10.735   1.527
54124SOL    HW264212  12.706  10.625   1.426
54125SOL     OW64213   8.853   4.796   2.836
54125SOL    HW164214   8.764   4.781   2.805
54125SOL    HW264215   8.848   4.878   2.885
54126SOL     OW64216   4.501  12.095   8.972
54126SOL    HW164217   4.574  12.125   8.918
54126SOL    HW264218   4.424  12.135   8.932
54127SOL     OW64219   9.068   6.700  11.902
54127SOL    HW164220   9.007   6.754  11.953
54127SOL    HW264221   9.065   6.736  11.814
54128SOL     OW64222   1.942  14.465   7.214
54128SOL    HW164223   1.977  14.448   7.302
54128SOL    HW264224   1.872  14.401   7.203
54129SOL     OW64225   7.365   6.879   9.944
54129SOL    HW164226   7.292   6.912   9.996
54129SOL    HW264227   7.441   6.930   9.975
54130SOL     OW64228  11.541  14.675  11.315
54130SOL    HW164229  11.499  14.610  11.371
54130SOL    HW264230  11.608  14.626  11.266
54131SOL     OW64231   2.476   5.781   4.949
54131SOL    HW164232   2.537   5.827   4.891
54131SOL    HW264233   2.440   5.712   4.895
54132SOL     OW64234  10.434   9.925   3.160
54132SOL    HW164235  10.365   9.982   3.126
54132SOL    HW264236  10.453   9.864   3.089
54133SOL     OW64237   7.856  11.114  12.988
54133SOL    HW164238   7.879  11.140  12.899
54133SOL    HW264239   7.932  11.139  13.041
54134SOL     OW64240   1.660  10.690   2.253
54134SOL    HW164241   1.710  10.751   2.198
54134SOL    HW264242   1.668  10.726   2.341
54135SOL     OW64243  13.194   7.951   7.726
54135SOL    HW164244  13.111   7.999   7.727
54135SOL    HW264245  13.243   7.986   7.800
54136SOL     OW64246   3.372   2.250  13.380
54136SOL    HW164247   3.426   2.217  13.308
54136SOL    HW264248   3.350   2.340  13.354
54137SOL     OW64249   4.595   6.216   3.431
54137SOL    HW164250   4.536   6.187   3.501
54137SOL    HW264251   4.599   6.141   3.371
54138SOL     OW64252  10.747   6.638   8.558
54138SOL    HW164253  10.703   6.719   8.583
54138SOL    HW264254  10.828   6.638   8.610
54139SOL     OW64255   6.951   3.883   7.352
54139SOL    HW164256   6.973   3.962   7.402
54139SOL    HW264257   6.900   3.915   7.278
54140SOL     OW64258   1.090  10.719   8.980
54140SOL    HW164259   1.006  10.700   9.023
54140SOL    HW264260   1.089  10.666   8.901
54141SOL     OW64261  10.867   5.039  10.592
54141SOL    HW164262  10.806   4.971  10.562
54141SOL    HW264263  10.940   5.035  10.530
54142SOL     OW64264   1.942  14.502   9.848
54142SOL    HW164265   1.923  14.508   9.754
54142SOL    HW264266   2.018  14.444   9.853
54143SOL     OW64267   2.481  13.667  10.435
54143SOL    HW164268   2.547  13.642  10.370
54143SOL    HW264269   2.440  13.746  10.398
54144SOL     OW64270  10.282  11.481  12.163
54144SOL    HW164271  10.273  11.400  12.112
54144SOL    HW264272  10.327  11.454  12.243
54145SOL     OW64273  13.240  13.020   6.450
54145SOL    HW164274  13.271  12.943   6.402
54145SOL    HW264275  13.287  13.093   6.412
54146SOL     OW64276   2.314  13.737  11.101
54146SOL    HW164277   2.235  13.781  11.133
54146SOL    HW264278   2.370  13.728  11.179
54147SOL     OW64279   9.632  10.575   3.951
54147SOL    HW164280   9.570  10.549   3.884
54147SOL    HW264281   9.678  10.494   3.974
54148SOL     OW64282  13.853   5.426  13.225
54148SOL    HW164283  13.906   5.505  13.215
54148SOL    HW264284  13.897   5.375  13.293
54149SOL     OW64285   1.525   3.973   8.575
54149SOL    HW164286   1.559   4.056   8.609
54149SOL    HW264287   1.482   3.932   8.650
54150SOL     OW64288   1.194   7.235   2.410
54150SOL    HW164289   1.256   7.218   2.338
54150SOL    HW264290   1.217   7.170   2.477
54151SOL     OW64291  12.799   9.031   5.250
54151SOL    HW164292  12.731   9.086   5.211
54151SOL    HW264293  12.812   9.068   5.338
54152SOL     OW64294  10.889   2.330  10.997
54152SOL    HW164295  10.944   2.387  11.050
54152SOL    HW264296  10.924   2.339  10.908
54153SOL     OW64297   2.652   7.961   2.013
54153SOL    HW164298   2.675   7.871   2.036
54153SOL    HW264299   2.634   7.958   1.919
54154SOL     OW64300   9.878   0.115  12.327
54154SOL    HW164301   9.813   0.079  12.388
54154SOL    HW264302   9.886   0.048  12.259
54155SOL     OW64303   3.693   2.139   1.389
54155SOL    HW164304   3.691   2.046   1.413
54155SOL    HW264305   3.786   2.163   1.395
54156SOL     OW64306   6.515  12.616   7.062
54156SOL    HW164307   6.555  12.692   7.104
54156SOL    HW264308   6.529  12.544   7.124
54157SOL     OW64309  13.026  11.974  13.035
54157SOL    HW164310  13.008  12.035  13.107
54157SOL    HW264311  13.085  11.909  13.073
54158SOL     OW64312   3.468   9.570   9.753
54158SOL    HW164313   3.472   9.479   9.721
54158SOL    HW264314   3.375   9.586   9.768
54159SOL     OW64315   7.846   5.738   1.005
54159SOL    HW164316   7.864   5.704   1.093
54159SOL    HW264317   7.830   5.659   0.952
54160SOL     OW64318  10.605   1.966   6.934
54160SOL    HW164319  10.680   2.007   6.890
54160SOL    HW264320  10.555   1.925   6.863
54161SOL     OW64321  12.519  13.547  12.579
54161SOL    HW164322  12.593  13.604  12.556
54161SOL    HW264323  12.536  13.466  12.530
54162SOL     OW64324   5.173   6.605   4.411
54162SOL    HW164325   5.186   6.543   4.482
54162SOL    HW264326   5.261   6.633   4.386
54163SOL     OW64327   7.145  14.123   4.755
54163SOL    HW164328   7.146  14.154   4.846
54163SOL    HW264329   7.206  14.181   4.709
54164SOL     OW64330   7.846  13.567   3.341
54164SOL    HW164331   7.856  13.661   3.356
54164SOL    HW264332   7.906  13.548   3.269
54165SOL     OW64333   9.936   4.974   0.670
54165SOL    HW164334  10.024   4.996   0.701
54165SOL    HW264335   9.908   4.904   0.730
54166SOL     OW64336   4.178   2.851  11.217
54166SOL    HW164337   4.099   2.903  11.229
54166SOL    HW264338   4.250   2.910  11.237
54167SOL     OW64339   8.091   3.344  12.248
54167SOL    HW164340   8.057   3.418  12.297
54167SOL    HW264341   8.176   3.373  12.215
54168SOL     OW64342   0.773  13.231   5.345
54168SOL    HW164343   0.735  13.157   5.297
54168SOL    HW264344   0.864  13.234   5.317
54169SOL     OW64345   1.579   7.059  14.198
54169SOL    HW164346   1.585   7.154  14.195
54169SOL    HW264347   1.625   7.034  14.279
54170SOL     OW64348   1.383   5.597   9.740
54170SOL    HW164349   1.379   5.504   9.764
54170SOL    HW264350   1.344   5.643   9.813
54171SOL     OW64351   2.254  14.017   3.654
54171SOL    HW164352   2.182  14.070   3.688
54171SOL    HW264353   2.244  14.023   3.559
54172SOL     OW64354  10.826   8.487   0.547
54172SOL    HW164355  10.800   8.564   0.498
54172SOL    HW264356  10.744   8.439   0.562
54173SOL     OW64357   3.307   3.724  14.194
54173SOL    HW164358   3.288   3.643  14.241
54173SOL    HW264359   3.224   3.772  14.194
54174SOL     OW64360  13.963   8.830  11.921
54174SOL    HW164361  13.889   8.769  11.912
54174SOL    HW264362  14.030   8.795  11.862
54175SOL     OW64363  13.436   6.479   1.953
54175SOL    HW164364  13.362   6.516   2.002
54175SOL    HW264365  13.451   6.542   1.882
54176SOL     OW64366  12.906   5.611   9.412
54176SOL    HW164367  12.860   5.541   9.365
54176SOL    HW264368  12.997   5.605   9.381
54177SOL     OW64369  10.964   4.979   6.636
54177SOL    HW164370  10.930   4.905   6.687
54177SOL    HW264371  10.906   4.984   6.560
54178SOL     OW64372   6.767   8.311  11.466
54178SOL    HW164373   6.826   8.345  11.399
54178SOL    HW264374   6.822   8.299  11.543
54179SOL     OW64375   5.368   0.897   2.515
54179SOL    HW164376   5.322   0.889   2.432
54179SOL    HW264377   5.312   0.955   2.568
54180SOL     OW64378   4.105   2.802  13.326
54180SOL    HW164379   4.195   2.829  13.344
54180SOL    HW264380   4.112   2.739  13.255
54181SOL     OW64381  13.989   6.758   1.634
54181SOL    HW164382  13.999   6.664   1.615
54181SOL    HW264383  14.062   6.799   1.589
54182SOL     OW64384   0.553   9.371   1.297
54182SOL    HW164385   0.597   9.396   1.378
54182SOL    HW264386   0.463   9.352   1.323
54183SOL     OW64387  14.233   8.150  14.054
54183SOL    HW164388  14.168   8.120  14.117
54183SOL    HW264389  14.183   8.204  13.992
54184SOL     OW64390   9.374  11.334  14.156
54184SOL    HW164391   9.325  11.411  14.126
54184SOL    HW264392   9.400  11.355  14.245
54185SOL     OW64393  11.538  11.219   4.240
54185SOL    HW164394  11.473  11.165   4.195
54185SOL    HW264395  11.578  11.161   4.305
54186SOL     OW64396   4.165  13.937   1.772
54186SOL    HW164397   4.121  14.012   1.810
54186SOL    HW264398   4.097  13.871   1.762
54187SOL     OW64399  11.677   8.618   0.559
54187SOL    HW164400  11.759   8.575   0.534
54187SOL    HW264401  11.621   8.611   0.482
54188SOL     OW64402   5.773   2.862  10.672
54188SOL    HW164403   5.760   2.927  10.741
54188SOL    HW264404   5.775   2.778  10.718
54189SOL     OW64405  10.001   5.920   8.888
54189SOL    HW164406   9.916   5.963   8.891
54189SOL    HW264407  10.022   5.900   8.979
54190SOL     OW64408  13.418   5.543   7.120
54190SOL    HW164409  13.501   5.534   7.167
54190SOL    HW264410  13.371   5.462   7.138
54191SOL     OW64411  14.717   1.215   6.007
54191SOL    HW164412  14.802   1.226   6.050
54191SOL    HW264413  14.738   1.176   5.922
54192SOL     OW64414   8.792  13.174  12.593
54192SOL    HW164415   8.827  13.119  12.663
54192SOL    HW264416   8.857  13.243  12.582
54193SOL     OW64417  14.396   1.906  10.021
54193SOL    HW164418  14.357   1.993  10.008
54193SOL    HW264419  14.489   1.919  10.004
54194SOL     OW64420   1.878   6.793   6.328
54194SOL    HW164421   1.830   6.715   6.302
54194SOL    HW264422   1.958   6.791   6.275
54195SOL     OW64423   3.740  12.809   4.195
54195SOL    HW164424   3.682  12.880   4.220
54195SOL    HW264425   3.714  12.786   4.106
54196SOL     OW64426  11.687  10.254  11.609
54196SOL    HW164427  11.630  10.202  11.552
54196SOL    HW264428  11.773  10.250  11.567
54197SOL     OW64429  14.543   6.694  12.520
54197SOL    HW164430  14.593   6.714  12.599
54197SOL    HW264431  14.527   6.600  12.525
54198SOL     OW64432   5.681   3.440   9.950
54198SOL    HW164433   5.767   3.476   9.971
54198SOL    HW264434   5.620   3.489  10.006
54199SOL     OW64435  12.235  12.151  12.000
54199SOL    HW164436  12.244  12.244  11.980
54199SOL    HW264437  12.148  12.127  11.968
54200SOL     OW64438   9.878  10.113   0.917
54200SOL    HW164439   9.805  10.172   0.902
54200SOL    HW264440   9.853  10.032   0.872
54201SOL     OW64441  11.168   3.027   8.851
54201SOL    HW164442  11.213   2.986   8.778
54201SOL    HW264443  11.213   2.995   8.929
54202SOL     OW64444   1.540   4.747   1.698
54202SOL    HW164445   1.495   4.671   1.735
54202SOL    HW264446   1.483   4.822   1.720
54203SOL     OW64447   8.318  10.217   1.910
54203SOL    HW164448   8.259  10.265   1.968
54203SOL    HW264449   8.361  10.286   1.858
54204SOL     OW64450   9.132  11.304   6.806
54204SOL    HW164451   9.132  11.304   6.710
54204SOL    HW264452   9.157  11.214   6.829
54205SOL     OW64453   8.172   6.701   9.779
54205SOL    HW164454   8.161   6.725   9.871
54205SOL    HW264455   8.083   6.703   9.742
54206SOL     OW64456   1.467   9.759   7.985
54206SOL    HW164457   1.479   9.738   8.077
54206SOL    HW264458   1.550   9.797   7.957
54207SOL     OW64459  12.389  11.024   6.710
54207SOL    HW164460  12.363  10.949   6.762
54207SOL    HW264461  12.352  11.100   6.755
54208SOL     OW64462   6.467   8.082  10.194
54208SOL    HW164463   6.511   8.012  10.242
54208SOL    HW264464   6.499   8.073  10.104
54209SOL     OW64465   6.290   8.655   7.671
54209SOL    HW164466   6.370   8.685   7.628
54209SOL    HW264467   6.269   8.725   7.733
54210SOL     OW64468   3.390  13.587   8.524
54210SOL    HW164469   3.381  13.655   8.591
54210SOL    HW264470   3.371  13.633   8.442
54211SOL     OW64471  14.291   1.667   5.729
54211SOL    HW164472  14.349   1.731   5.687
54211SOL    HW264473  14.252   1.714   5.803
54212SOL     OW64474   0.086   0.564   9.208
54212SOL    HW164475   0.095   0.640   9.151
54212SOL    HW264476   0.150   0.578   9.277
54213SOL     OW64477   0.776   2.035   1.998
54213SOL    HW164478   0.845   1.969   1.990
54213SOL    HW264479   0.697   1.984   2.016
54214SOL     OW64480  14.445   4.920  11.274
54214SOL    HW164481  14.500   4.894  11.348
54214SOL    HW264482  14.453   4.848  11.211
54215SOL     OW64483   3.446   7.675   6.691
54215SOL    HW164484   3.407   7.698   6.775
54215SOL    HW264485   3.464   7.581   6.698
54216SOL     OW64486  13.188  12.659   1.546
54216SOL    HW164487  13.215  12.733   1.600
54216SOL    HW264488  13.206  12.582   1.600
54217SOL     OW64489   2.183   3.667  12.627
54217SOL    HW164490   2.149   3.716  12.702
54217SOL    HW264491   2.266   3.631  12.658
54218SOL     OW64492   6.299  10.749  10.054
54218SOL    HW164493   6.327  10.670  10.008
54218SOL    HW264494   6.220  10.777  10.008
54219SOL     OW64495   2.963  11.108   5.380
54219SOL    HW164496   2.932  11.176   5.320
54219SOL    HW264497   3.052  11.133   5.401
54220SOL     OW64498   2.569   4.896  13.904
54220SOL    HW164499   2.526   4.981  13.895
54220SOL    HW264500   2.563   4.876  13.998
54221SOL     OW64501  14.193   1.511  11.023
54221SOL    HW164502  14.164   1.600  11.043
54221SOL    HW264503  14.250   1.521  10.946
54222SOL     OW64504  10.857  10.323   3.183
54222SOL    HW164505  10.863  10.417   3.200
54222SOL    HW264506  10.792  10.315   3.113
54223SOL     OW64507  12.183   7.205  10.871
54223SOL    HW164508  12.267   7.242  10.845
54223SOL    HW264509  12.171   7.129  10.814
54224SOL     OW64510  13.531  10.659   9.892
54224SOL    HW164511  13.565  10.581   9.936
54224SOL    HW264512  13.441  10.636   9.871
54225SOL     OW64513   5.877   1.487  14.088
54225SOL    HW164514   5.790   1.456  14.112
54225SOL    HW264515   5.864   1.577  14.060
54226SOL     OW64516   4.741   4.815   4.306
54226SOL    HW164517   4.670   4.792   4.366
54226SOL    HW264518   4.781   4.732   4.283
54227SOL     OW64519  10.858   5.142   5.564
54227SOL    HW164520  10.903   5.216   5.525
54227SOL    HW264521  10.927   5.079   5.585
54228SOL     OW64522   1.329   5.516   6.785
54228SOL    HW164523   1.310   5.601   6.747
54228SOL    HW264524   1.252   5.495   6.838
54229SOL     OW64525   6.057   6.632   8.915
54229SOL    HW164526   5.972   6.669   8.893
54229SOL    HW264527   6.066   6.646   9.009
54230SOL     OW64528   7.336   4.541   4.386
54230SOL    HW164529   7.415   4.487   4.380
54230SOL    HW264530   7.362   4.616   4.441
54231SOL     OW64531  11.190   2.181  12.853
54231SOL    HW164532  11.205   2.230  12.772
54231SOL    HW264533  11.273   2.187  12.900
54232SOL     OW64534  10.216   7.599  10.369
54232SOL    HW164535  10.204   7.507  10.395
54232SOL    HW264536  10.160   7.609  10.292
54233SOL     OW64537  10.840  14.093  12.628
54233SOL    HW164538  10.767  14.031  12.628
54233SOL    HW264539  10.908  14.050  12.680
54234SOL     OW64540   2.664   9.674  11.627
54234SOL    HW164541   2.612   9.710  11.555
54234SOL    HW264542   2.609   9.604  11.663
54235SOL     OW64543  13.000   9.386  14.368
54235SOL    HW164544  13.057   9.460  14.347
54235SOL    HW264545  12.978   9.397  14.460
54236SOL     OW64546  10.349   4.353   7.711
54236SOL    HW164547  10.397   4.398   7.780
54236SOL    HW264548  10.281   4.415   7.684
54237SOL     OW64549  13.394   4.202   4.932
54237SOL    HW164550  13.385   4.297   4.920
54237SOL    HW264551  13.416   4.192   5.025
54238SOL     OW64552   2.258   9.331   2.820
54238SOL    HW164553   2.273   9.414   2.774
54238SOL    HW264554   2.345   9.306   2.853
54239SOL     OW64555   0.341  11.106  10.829
54239SOL    HW164556   0.293  11.176  10.873
54239SOL    HW264557   0.360  11.140  10.742
54240SOL     OW64558  13.240   9.603   2.207
54240SOL    HW164559  13.198   9.521   2.233
54240SOL    HW264560  13.178   9.671   2.234
54241SOL     OW64561  11.745   0.167   2.576
54241SOL    HW164562  11.756   0.144   2.484
54241SOL    HW264563  11.815   0.121   2.622
54242SOL     OW64564   8.231   8.741   6.478
54242SOL    HW164565   8.238   8.652   6.513
54242SOL    HW264566   8.140   8.766   6.497
54243SOL     OW64567   2.028   6.093   2.298
54243SOL    HW164568   2.121   6.070   2.306
54243SOL    HW264569   1.999   6.107   2.388
54244SOL     OW64570   8.345   5.268   2.446
54244SOL    HW164571   8.400   5.204   2.490
54244SOL    HW264572   8.255   5.239   2.462
54245SOL     OW64573   0.563   7.028   1.171
54245SOL    HW164574   0.497   7.003   1.106
54245SOL    HW264575   0.617   7.093   1.127
54246SOL     OW64576  12.610   9.873   3.676
54246SOL    HW164577  12.687   9.828   3.709
54246SOL    HW264578  12.645   9.936   3.613
54247SOL     OW64579  10.394  13.618  10.278
54247SOL    HW164580  10.446  13.540  10.295
54247SOL    HW264581  10.399  13.629  10.183
54248SOL     OW64582   9.376  10.322   1.660
54248SOL    HW164583   9.459  10.292   1.697
54248SOL    HW264584   9.379  10.293   1.569
54249SOL     OW64585  14.402   8.469  13.839
54249SOL    HW164586  14.493   8.460  13.810
54249SOL    HW264587  14.409   8.496  13.931
54250SOL     OW64588   2.058   3.695   7.843
54250SOL    HW164589   2.117   3.763   7.874
54250SOL    HW264590   2.068   3.697   7.748
54251SOL     OW64591  10.720   4.401  12.392
54251SOL    HW164592  10.750   4.318  12.429
54251SOL    HW264593  10.636   4.381  12.351
54252SOL     OW64594  10.663  11.736   0.660
54252SOL    HW164595  10.616  11.733   0.576
54252SOL    HW264596  10.734  11.673   0.649
54253SOL     OW64597   1.317   0.309   5.074
54253SOL    HW164598   1.247   0.373   5.064
54253SOL    HW264599   1.397   0.358   5.053
54254SOL     OW64600   8.638   5.518   9.971
54254SOL    HW164601   8.657   5.603  10.010
54254SOL    HW264602   8.707   5.460  10.005
54255SOL     OW64603   5.695   1.020   5.067
54255SOL    HW164604   5.620   1.074   5.091
54255SOL    HW264605   5.771   1.068   5.101
54256SOL     OW64606  13.530   1.732   3.158
54256SOL    HW164607  13.545   1.684   3.076
54256SOL    HW264608  13.436   1.750   3.159
54257SOL     OW64609  12.750  14.692   6.487
54257SOL    HW164610  12.805  14.705   6.409
54257SOL    HW264611  12.795  14.623   6.536
54258SOL     OW64612   0.665   9.620  11.068
54258SOL    HW164613   0.648   9.556  11.137
54258SOL    HW264614   0.659   9.705  11.112
54259SOL     OW64615   5.831   2.785   1.824
54259SOL    HW164616   5.738   2.774   1.845
54259SOL    HW264617   5.875   2.779   1.909
54260SOL     OW64618   4.633   9.468  13.563
54260SOL    HW164619   4.625   9.516  13.645
54260SOL    HW264620   4.573   9.512  13.504
54261SOL     OW64621   4.833   3.197  10.632
54261SOL    HW164622   4.880   3.271  10.594
54261SOL    HW264623   4.893   3.123  10.623
54262SOL     OW64624  10.178  12.890  12.631
54262SOL    HW164625  10.245  12.826  12.607
54262SOL    HW264626  10.105  12.838  12.664
54263SOL     OW64627   9.824   2.291   2.825
54263SOL    HW164628   9.735   2.267   2.800
54263SOL    HW264629   9.828   2.385   2.811
54264SOL     OW64630   3.034  13.498   2.678
54264SOL    HW164631   2.964  13.442   2.645
54264SOL    HW264632   3.002  13.587   2.668
54265SOL     OW64633   9.037  13.628   1.076
54265SOL    HW164634   9.021  13.614   1.170
54265SOL    HW264635   8.950  13.622   1.036
54266SOL     OW64636   9.206   2.710  11.259
54266SOL    HW164637   9.228   2.622  11.228
54266SOL    HW264638   9.259   2.769  11.205
54267SOL     OW64639   0.568  11.510   2.269
54267SOL    HW164640   0.627  11.498   2.195
54267SOL    HW264641   0.541  11.421   2.293
54268SOL     OW64642  12.850   6.616   0.163
54268SOL    HW164643  12.885   6.597   0.249
54268SOL    HW264644  12.807   6.701   0.173
54269SOL     OW64645  13.069   9.239   6.343
54269SOL    HW164646  13.079   9.222   6.250
54269SOL    HW264647  13.095   9.157   6.385
54270SOL     OW64648   2.353  11.337   1.539
54270SOL    HW164649   2.435  11.341   1.589
54270SOL    HW264650   2.289  11.304   1.602
54271SOL     OW64651   6.222   4.558  13.844
54271SOL    HW164652   6.197   4.535  13.755
54271SOL    HW264653   6.159   4.625  13.870
54272SOL     OW64654   2.620  12.597   5.652
54272SOL    HW164655   2.545  12.590   5.592
54272SOL    HW264656   2.650  12.507   5.663
54273SOL     OW64657   5.911  10.015   0.789
54273SOL    HW164658   5.927  10.068   0.868
54273SOL    HW264659   5.876  10.077   0.725
54274SOL     OW64660   8.434   2.407  10.022
54274SOL    HW164661   8.485   2.386  10.101
54274SOL    HW264662   8.441   2.329   9.967
54275SOL     OW64663  14.174   0.562   9.012
54275SOL    HW164664  14.129   0.528   9.090
54275SOL    HW264665  14.116   0.539   8.939
54276SOL     OW64666   6.441  12.469   7.421
54276SOL    HW164667   6.360  12.419   7.410
54276SOL    HW264668   6.475  12.479   7.332
54277SOL     OW64669  10.431   5.918   7.895
54277SOL    HW164670  10.407   5.842   7.842
54277SOL    HW264671  10.487   5.970   7.837
54278SOL     OW64672   5.938   4.060   7.764
54278SOL    HW164673   6.030   4.071   7.741
54278SOL    HW264674   5.904   3.998   7.699
54279SOL     OW64675   4.171   0.690   5.753
54279SOL    HW164676   4.180   0.658   5.663
54279SOL    HW264677   4.245   0.750   5.764
54280SOL     OW64678  13.639   3.963  13.939
54280SOL    HW164679  13.665   4.027  13.873
54280SOL    HW264680  13.645   3.879  13.894
54281SOL     OW64681   8.395   2.381   1.168
54281SOL    HW164682   8.375   2.371   1.261
54281SOL    HW264683   8.469   2.323   1.153
54282SOL     OW64684   5.058   9.828  12.878
54282SOL    HW164685   5.015   9.798  12.798
54282SOL    HW264686   5.057   9.923  12.871
54283SOL     OW64687   6.981  11.455  14.092
54283SOL    HW164688   7.034  11.379  14.068
54283SOL    HW264689   7.043  11.514  14.135
54284SOL     OW64690   4.491   3.983   1.335
54284SOL    HW164691   4.400   4.007   1.320
54284SOL    HW264692   4.506   3.999   1.428
54285SOL     OW64693   0.330   7.200  13.398
54285SOL    HW164694   0.311   7.113  13.433
54285SOL    HW264695   0.248   7.228  13.356
54286SOL     OW64696  14.519  13.340  13.866
54286SOL    HW164697  14.444  13.305  13.914
54286SOL    HW264698  14.481  13.405  13.806
54287SOL     OW64699   2.058   2.824   6.667
54287SOL    HW164700   2.086   2.901   6.617
54287SOL    HW264701   2.069   2.751   6.607
54288SOL     OW64702   8.416   4.373   5.758
54288SOL    HW164703   8.445   4.464   5.762
54288SOL    HW264704   8.449   4.340   5.674
54289SOL     OW64705  11.817  13.698   5.299
54289SOL    HW164706  11.863  13.760   5.355
54289SOL    HW264707  11.767  13.643   5.360
54290SOL     OW64708  11.792   1.236  11.127
54290SOL    HW164709  11.733   1.167  11.157
54290SOL    HW264710  11.836   1.198  11.051
54291SOL     OW64711  13.588   5.854   4.575
54291SOL    HW164712  13.559   5.803   4.500
54291SOL    HW264713  13.672   5.891   4.548
54292SOL     OW64714   4.269   0.698  14.818
54292SOL    HW164715   4.327   0.650  14.759
54292SOL    HW264716   4.312   0.783  14.830
54293SOL     OW64717   6.866   6.619   5.609
54293SOL    HW164718   6.904   6.652   5.691
54293SOL    HW264719   6.936   6.565   5.572
54294SOL     OW64720   3.772   3.415   7.052
54294SOL    HW164721   3.714   3.484   7.083
54294SOL    HW264722   3.801   3.444   6.966
54295SOL     OW64723   2.729   6.536   9.532
54295SOL    HW164724   2.762   6.624   9.514
54295SOL    HW264725   2.761   6.515   9.619
54296SOL     OW64726   3.056   7.706   3.179
54296SOL    HW164727   3.078   7.615   3.157
54296SOL    HW264728   2.971   7.721   3.137
54297SOL     OW64729   4.896   9.770   2.648
54297SOL    HW164730   4.976   9.809   2.613
54297SOL    HW264731   4.830   9.839   2.641
54298SOL     OW64732   6.241  12.134   6.345
54298SOL    HW164733   6.233  12.223   6.378
54298SOL    HW264734   6.335  12.118   6.340
54299SOL     OW64735   3.938  10.887   2.484
54299SOL    HW164736   3.907  10.925   2.403
54299SOL    HW264737   3.884  10.927   2.552
54300SOL     OW64738   6.386   8.523  13.764
54300SOL    HW164739   6.368   8.517  13.671
54300SOL    HW264740   6.314   8.574  13.800
54301SOL     OW64741   6.564  10.003   1.483
54301SOL    HW164742   6.564  10.075   1.546
54301SOL    HW264743   6.628   9.941   1.517
54302SOL     OW64744   9.700  11.064   8.348
54302SOL    HW164745   9.788  11.027   8.346
54302SOL    HW264746   9.642  10.989   8.358
54303SOL     OW64747   1.577  13.961   8.592
54303SOL    HW164748   1.599  13.939   8.501
54303SOL    HW264749   1.482  13.968   8.593
54304SOL     OW64750   8.272   7.659   9.148
54304SOL    HW164751   8.271   7.739   9.200
54304SOL    HW264752   8.359   7.621   9.165
54305SOL     OW64753   8.743  13.755  12.464
54305SOL    HW164754   8.650  13.777  12.466
54305SOL    HW264755   8.765  13.734  12.555
54306SOL     OW64756   2.297   3.462   3.273
54306SOL    HW164757   2.277   3.545   3.231
54306SOL    HW264758   2.302   3.399   3.201
54307SOL     OW64759   9.787   8.028   3.754
54307SOL    HW164760   9.728   7.953   3.742
54307SOL    HW264761   9.826   8.040   3.667
54308SOL     OW64762   6.507  11.588   3.365
54308SOL    HW164763   6.555  11.617   3.288
54308SOL    HW264764   6.490  11.495   3.350
54309SOL     OW64765   7.630  14.238  10.273
54309SOL    HW164766   7.584  14.322  10.277
54309SOL    HW264767   7.699  14.245  10.339
54310SOL     OW64768   4.950   9.111  12.903
54310SOL    HW164769   4.907   9.068  12.829
54310SOL    HW264770   5.018   9.050  12.931
54311SOL     OW64771   7.308   0.264   8.860
54311SOL    HW164772   7.338   0.316   8.785
54311SOL    HW264773   7.260   0.327   8.914
54312SOL     OW64774   8.941  14.573   2.609
54312SOL    HW164775   8.897  14.516   2.672
54312SOL    HW264776   8.922  14.534   2.524
54313SOL     OW64777   9.683  14.166   3.954
54313SOL    HW164778   9.759  14.149   4.008
54313SOL    HW264779   9.609  14.165   4.015
54314SOL     OW64780   5.980   9.746   9.953
54314SOL    HW164781   6.037   9.703   9.890
54314SOL    HW264782   5.894   9.749   9.910
54315SOL     OW64783   6.458  13.312   9.162
54315SOL    HW164784   6.549  13.293   9.137
54315SOL    HW264785   6.461  13.324   9.256
54316SOL     OW64786   1.415   1.765   9.162
54316SOL    HW164787   1.492   1.763   9.219
54316SOL    HW264788   1.341   1.746   9.219
54317SOL     OW64789   5.913  10.213   5.400
54317SOL    HW164790   6.004  10.184   5.396
54317SOL    HW264791   5.889  10.204   5.493
54318SOL     OW64792  14.595  12.266  13.363
54318SOL    HW164793  14.522  12.280  13.422
54318SOL    HW264794  14.561  12.208  13.295
54319SOL     OW64795   4.331   2.508  10.802
54319SOL    HW164796   4.260   2.494  10.740
54319SOL    HW264797   4.402   2.548  10.750
54320SOL     OW64798   3.835  10.136   2.370
54320SOL    HW164799   3.853  10.158   2.461
54320SOL    HW264800   3.776  10.206   2.340
54321SOL     OW64801   5.222  12.623   2.401
54321SOL    HW164802   5.264  12.616   2.487
54321SOL    HW264803   5.131  12.646   2.420
54322SOL     OW64804   4.765   2.044   4.067
54322SOL    HW164805   4.761   2.136   4.041
54322SOL    HW264806   4.768   1.996   3.984
54323SOL     OW64807  10.225   0.940   5.141
54323SOL    HW164808  10.308   0.976   5.173
54323SOL    HW264809  10.171   1.017   5.121
54324SOL     OW64810   9.401   2.663  12.049
54324SOL    HW164811   9.439   2.621  12.126
54324SOL    HW264812   9.317   2.697  12.080
54325SOL     OW64813  10.383  13.661  13.477
54325SOL    HW164814  10.424  13.582  13.511
54325SOL    HW264815  10.450  13.703  13.423
54326SOL     OW64816   2.105  11.811  12.013
54326SOL    HW164817   2.090  11.734  12.068
54326SOL    HW264818   2.173  11.861  12.059
54327SOL     OW64819  10.662   3.265   2.536
54327SOL    HW164820  10.732   3.298   2.592
54327SOL    HW264821  10.674   3.170   2.536
54328SOL     OW64822   9.074   9.713   3.062
54328SOL    HW164823   9.125   9.680   2.988
54328SOL    HW264824   9.090   9.649   3.132
54329SOL     OW64825  10.316  13.987   1.248
54329SOL    HW164826  10.410  14.005   1.244
54329SOL    HW264827  10.275  14.074   1.251
54330SOL     OW64828   3.709   2.612  13.712
54330SOL    HW164829   3.718   2.671  13.787
54330SOL    HW264830   3.779   2.638  13.652
54331SOL     OW64831   6.803   7.971   5.028
54331SOL    HW164832   6.726   7.943   5.078
54331SOL    HW264833   6.833   7.892   4.984
54332SOL     OW64834   8.612   2.910   8.131
54332SOL    HW164835   8.677   2.914   8.061
54332SOL    HW264836   8.659   2.940   8.209
54333SOL     OW64837   0.811   7.950   7.360
54333SOL    HW164838   0.898   7.989   7.364
54333SOL    HW264839   0.817   7.872   7.414
54334SOL     OW64840  11.507   7.939   8.434
54334SOL    HW164841  11.498   8.029   8.404
54334SOL    HW264842  11.567   7.898   8.371
54335SOL     OW64843  12.610  14.659  12.098
54335SOL    HW164844  12.533  14.615  12.134
54335SOL    HW264845  12.589  14.752  12.101
54336SOL     OW64846   3.509  11.530  14.034
54336SOL    HW164847   3.558  11.491  13.962
54336SOL    HW264848   3.520  11.468  14.106
54337SOL     OW64849   2.694   7.574   4.467
54337SOL    HW164850   2.659   7.571   4.556
54337SOL    HW264851   2.768   7.635   4.472
54338SOL     OW64852  12.012   2.814   9.956
54338SOL    HW164853  12.086   2.819  10.016
54338SOL    HW264854  11.947   2.874   9.993
54339SOL     OW64855   1.306   7.652  13.142
54339SOL    HW164856   1.248   7.702  13.199
54339SOL    HW264857   1.281   7.679  13.053
54340SOL     OW64858   7.787   3.171   5.671
54340SOL    HW164859   7.854   3.199   5.733
54340SOL    HW264860   7.815   3.207   5.587
54341SOL     OW64861   7.894   5.209  12.603
54341SOL    HW164862   7.863   5.285  12.652
54341SOL    HW264863   7.927   5.149  12.670
54342SOL     OW64864   5.807   3.281  10.532
54342SOL    HW164865   5.839   3.291  10.622
54342SOL    HW264866   5.713   3.265  10.541
54343SOL     OW64867   4.401   9.357   7.930
54343SOL    HW164868   4.328   9.419   7.931
54343SOL    HW264869   4.462   9.390   7.996
54344SOL     OW64870  14.240   5.866   9.749
54344SOL    HW164871  14.170   5.811   9.714
54344SOL    HW264872  14.321   5.823   9.722
54345SOL     OW64873  14.570   9.209   7.066
54345SOL    HW164874  14.558   9.115   7.052
54345SOL    HW264875  14.660   9.226   7.037
54346SOL     OW64876  10.055   8.659   7.037
54346SOL    HW164877   9.991   8.593   7.009
54346SOL    HW264878  10.077   8.634   7.127
54347SOL     OW64879   1.860   4.280   6.536
54347SOL    HW164880   1.857   4.357   6.479
54347SOL    HW264881   1.784   4.291   6.594
54348SOL     OW64882   3.052   4.284   3.589
54348SOL    HW164883   3.099   4.366   3.608
54348SOL    HW264884   3.039   4.244   3.675
54349SOL     OW64885   9.717   0.522   9.539
54349SOL    HW164886   9.689   0.614   9.543
54349SOL    HW264887   9.683   0.484   9.620
54350SOL     OW64888  11.587  14.172   9.389
54350SOL    HW164889  11.539  14.176   9.305
54350SOL    HW264890  11.615  14.081   9.396
54351SOL     OW64891   0.411   3.373   6.674
54351SOL    HW164892   0.460   3.443   6.632
54351SOL    HW264893   0.324   3.410   6.688
54352SOL     OW64894  11.233   1.594  14.594
54352SOL    HW164895  11.210   1.518  14.648
54352SOL    HW264896  11.150   1.621  14.555
54353SOL     OW64897   2.751  12.280   4.129
54353SOL    HW164898   2.662  12.246   4.124
54353SOL    HW264899   2.804  12.219   4.078
54354SOL     OW64900  12.422   6.880  12.554
54354SOL    HW164901  12.361   6.827  12.604
54354SOL    HW264902  12.506   6.835  12.563
54355SOL     OW64903  10.792  12.218   1.483
54355SOL    HW164904  10.821  12.309   1.486
54355SOL    HW264905  10.855  12.171   1.538
54356SOL     OW64906  11.271  10.912  14.443
54356SOL    HW164907  11.275  10.818  14.426
54356SOL    HW264908  11.363  10.937  14.458
54357SOL     OW64909   4.184   8.570  13.941
54357SOL    HW164910   4.127   8.497  13.920
54357SOL    HW264911   4.247   8.534  14.003
54358SOL     OW64912   5.233   2.806  13.401
54358SOL    HW164913   5.320   2.788  13.366
54358SOL    HW264914   5.205   2.724  13.441
54359SOL     OW64915   9.966  10.421  14.641
54359SOL    HW164916  10.032  10.432  14.573
54359SOL    HW264917  10.016  10.401  14.720
54360SOL     OW64918  10.982  12.529  11.409
54360SOL    HW164919  10.963  12.576  11.490
54360SOL    HW264920  11.064  12.482  11.427
54361SOL     OW64921   7.105  12.379  13.489
54361SOL    HW164922   7.089  12.390  13.395
54361SOL    HW264923   7.022  12.347  13.524
54362SOL     OW64924  14.045   3.934   4.391
54362SOL    HW164925  14.063   4.011   4.337
54362SOL    HW264926  14.128   3.886   4.393
54363SOL     OW64927  12.801   3.262   3.927
54363SOL    HW164928  12.772   3.342   3.970
54363SOL    HW264929  12.727   3.202   3.934
54364SOL     OW64930   2.445   0.978   4.115
54364SOL    HW164931   2.423   0.898   4.067
54364SOL    HW264932   2.534   0.999   4.087
54365SOL     OW64933  13.711   2.140   6.508
54365SOL    HW164934  13.743   2.186   6.585
54365SOL    HW264935  13.728   2.200   6.435
54366SOL     OW64936   7.234   5.986  11.599
54366SOL    HW164937   7.258   6.078  11.606
54366SOL    HW264938   7.248   5.964  11.507
54367SOL     OW64939   7.204   4.295   0.394
54367SOL    HW164940   7.214   4.351   0.471
54367SOL    HW264941   7.192   4.357   0.322
54368SOL     OW64942  14.697   5.668   3.245
54368SOL    HW164943  14.617   5.693   3.292
54368SOL    HW264944  14.703   5.730   3.172
54369SOL     OW64945   8.508   3.883   8.616
54369SOL    HW164946   8.535   3.965   8.574
54369SOL    HW264947   8.479   3.828   8.543
54370SOL     OW64948   2.447   8.593   6.873
54370SOL    HW164949   2.439   8.502   6.843
54370SOL    HW264950   2.452   8.645   6.793
54371SOL     OW64951   8.492   5.441   9.066
54371SOL    HW164952   8.559   5.383   9.102
54371SOL    HW264953   8.446   5.476   9.143
54372SOL     OW64954   3.976   5.024   1.526
54372SOL    HW164955   3.938   5.023   1.613
54372SOL    HW264956   3.957   5.112   1.492
54373SOL     OW64957   2.248   9.117   4.597
54373SOL    HW164958   2.177   9.182   4.601
54373SOL    HW264959   2.203   9.035   4.575
54374SOL     OW64960  12.933   9.204  13.455
54374SOL    HW164961  12.898   9.291  13.473
54374SOL    HW264962  12.860   9.156  13.416
54375SOL     OW64963   9.504  12.307   7.045
54375SOL    HW164964   9.485  12.231   6.990
54375SOL    HW264965   9.507  12.271   7.134
54376SOL     OW64966   6.272   2.526   7.478
54376SOL    HW164967   6.288   2.506   7.570
54376SOL    HW264968   6.347   2.488   7.432
54377SOL     OW64969   6.229  10.204   7.014
54377SOL    HW164970   6.286  10.160   6.950
54377SOL    HW264971   6.141  10.194   6.978
54378SOL     OW64972   5.108   7.912  13.241
54378SOL    HW164973   5.085   7.839  13.298
54378SOL    HW264974   5.027   7.934  13.195
54379SOL     OW64975   8.634   1.874  11.271
54379SOL    HW164976   8.633   1.782  11.295
54379SOL    HW264977   8.558   1.885  11.214
54380SOL     OW64978   9.595   9.524   8.928
54380SOL    HW164979   9.578   9.591   8.862
54380SOL    HW264980   9.687   9.500   8.915
54381SOL     OW64981   6.841   3.142   8.946
54381SOL    HW164982   6.930   3.126   8.979
54381SOL    HW264983   6.821   3.232   8.974
54382SOL     OW64984   7.747   5.561   5.617
54382SOL    HW164985   7.804   5.508   5.563
54382SOL    HW264986   7.779   5.651   5.606
54383SOL     OW64987   3.156  10.968   0.660
54383SOL    HW164988   3.242  10.977   0.620
54383SOL    HW264989   3.095  10.985   0.588
54384SOL     OW64990  13.697   3.170   7.979
54384SOL    HW164991  13.782   3.141   8.012
54384SOL    HW264992  13.636   3.150   8.050
54385SOL     OW64993   6.104  10.603   1.921
54385SOL    HW164994   6.020  10.620   1.965
54385SOL    HW264995   6.083  10.547   1.847
54386SOL     OW64996  10.101   5.778   0.556
54386SOL    HW164997  10.090   5.865   0.594
54386SOL    HW264998  10.116   5.721   0.631
54387SOL     OW64999   0.079   5.763   9.020
54387SOL    HW165000   0.148   5.794   8.961
54387SOL    HW265001  14.877   5.787   8.977
54388SOL     OW65002  13.751   6.823  10.217
54388SOL    HW165003  13.727   6.788  10.303
54388SOL    HW265004  13.671   6.814  10.165
54389SOL     OW65005  11.879  11.655  12.855
54389SOL    HW165006  11.971  11.661  12.881
54389SOL    HW265007  11.835  11.616  12.930
54390SOL     OW65008   8.058  11.455   2.994
54390SOL    HW165009   7.998  11.524   2.967
54390SOL    HW265010   8.015  11.373   2.970
54391SOL     OW65011  13.113   8.936  12.197
54391SOL    HW165012  13.156   8.956  12.280
54391SOL    HW265013  13.101   9.021  12.154
54392SOL     OW65014   4.055   4.072   6.907
54392SOL    HW165015   4.009   4.128   6.844
54392SOL    HW265016   4.144   4.107   6.910
54393SOL     OW65017  14.368  11.884   7.710
54393SOL    HW165018  14.413  11.800   7.700
54393SOL    HW265019  14.291  11.865   7.763
54394SOL     OW65020   6.515   3.278   2.979
54394SOL    HW165021   6.581   3.312   3.040
54394SOL    HW265022   6.498   3.189   3.009
54395SOL     OW65023  10.836   6.027  13.845
54395SOL    HW165024  10.800   6.098  13.791
54395SOL    HW265025  10.802   6.045  13.933
54396SOL     OW65026   8.112   6.540   4.402
54396SOL    HW165027   8.042   6.604   4.402
54396SOL    HW265028   8.116   6.508   4.492
54397SOL     OW65029  10.335   1.667  11.003
54397SOL    HW165030  10.277   1.604  11.047
54397SOL    HW265031  10.332   1.642  10.911
54398SOL     OW65032   6.324   1.898   4.034
54398SOL    HW165033   6.242   1.937   4.064
54398SOL    HW265034   6.338   1.934   3.947
54399SOL     OW65035   2.906   6.467   8.614
54399SOL    HW165036   2.842   6.420   8.668
54399SOL    HW265037   2.978   6.487   8.674
54400SOL     OW65038   6.153   5.094  13.988
54400SOL    HW165039   6.104   5.174  14.007
54400SOL    HW265040   6.244   5.123  13.981
54401SOL     OW65041  13.493  13.945   1.015
54401SOL    HW165042  13.428  13.887   0.975
54401SOL    HW265043  13.538  13.890   1.079
54402SOL     OW65044  12.057   5.628   9.164
54402SOL    HW165045  12.101   5.713   9.157
54402SOL    HW265046  12.073   5.600   9.254
54403SOL     OW65047   2.868   0.906   7.132
54403SOL    HW165048   2.918   0.899   7.051
54403SOL    HW265049   2.777   0.900   7.105
54404SOL     OW65050   2.485   8.732   3.309
54404SOL    HW165051   2.395   8.732   3.342
54404SOL    HW265052   2.539   8.751   3.386
54405SOL     OW65053  14.811   5.759   5.546
54405SOL    HW165054   0.007   5.704   5.526
54405SOL    HW265055  14.770   5.777   5.461
54406SOL     OW65056   4.967   4.803   5.757
54406SOL    HW165057   4.970   4.827   5.665
54406SOL    HW265058   5.015   4.720   5.762
54407SOL     OW65059  13.196  12.071  10.122
54407SOL    HW165060  13.270  12.120  10.086
54407SOL    HW265061  13.223  11.980  10.115
54408SOL     OW65062   9.581   5.310   0.140
54408SOL    HW165063   9.507   5.370   0.133
54408SOL    HW265064   9.617   5.325   0.227
54409SOL     OW65065   2.741   2.572  13.501
54409SOL    HW165066   2.698   2.520  13.433
54409SOL    HW265067   2.834   2.572  13.476
54410SOL     OW65068   8.391  11.399   0.264
54410SOL    HW165069   8.311  11.448   0.287
54410SOL    HW265070   8.397  11.408   0.169
54411SOL     OW65071  12.803  13.221   4.586
54411SOL    HW165072  12.830  13.144   4.537
54411SOL    HW265073  12.833  13.295   4.533
54412SOL     OW65074   7.709  13.755   6.091
54412SOL    HW165075   7.771  13.818   6.055
54412SOL    HW265076   7.762  13.700   6.149
54413SOL     OW65077  11.935  12.377  10.311
54413SOL    HW165078  11.895  12.425  10.383
54413SOL    HW265079  11.882  12.298  10.303
54414SOL     OW65080   3.743   0.370  10.987
54414SOL    HW165081   3.696   0.287  10.992
54414SOL    HW265082   3.723   0.414  11.070
54415SOL     OW65083   7.049  13.381   3.846
54415SOL    HW165084   7.136  13.345   3.827
54415SOL    HW265085   7.007  13.315   3.900
54416SOL     OW65086   4.506  12.486   6.162
54416SOL    HW165087   4.582  12.517   6.112
54416SOL    HW265088   4.522  12.393   6.174
54417SOL     OW65089   1.664   9.064  10.869
54417SOL    HW165090   1.707   8.985  10.836
54417SOL    HW265091   1.636   9.111  10.791
54418SOL     OW65092  11.662   9.515  11.972
54418SOL    HW165093  11.716   9.502  12.050
54418SOL    HW265094  11.617   9.598  11.988
54419SOL     OW65095   6.914   8.696   1.804
54419SOL    HW165096   6.983   8.688   1.738
54419SOL    HW265097   6.876   8.782   1.789
54420SOL     OW65098  12.106   8.077  13.451
54420SOL    HW165099  12.158   8.125  13.515
54420SOL    HW265100  12.167   8.057  13.380
54421SOL     OW65101   1.553  11.636  14.784
54421SOL    HW165102   1.615  11.634  14.857
54421SOL    HW265103   1.537  11.729  14.768
54422SOL     OW65104   4.604  13.743   4.284
54422SOL    HW165105   4.645  13.787   4.209
54422SOL    HW265106   4.522  13.708   4.249
54423SOL     OW65107   2.789   5.936   2.284
54423SOL    HW165108   2.740   5.902   2.209
54423SOL    HW265109   2.842   6.007   2.248
54424SOL     OW65110   4.891   3.323  11.259
54424SOL    HW165111   4.979   3.344  11.228
54424SOL    HW265112   4.886   3.362  11.346
54425SOL     OW65113  14.105  13.420   9.524
54425SOL    HW165114  14.201  13.414   9.519
54425SOL    HW265115  14.089  13.498   9.577
54426SOL     OW65116   3.878  10.974  12.772
54426SOL    HW165117   3.915  10.886  12.782
54426SOL    HW265118   3.787  10.965  12.799
54427SOL     OW65119  11.226   3.346   0.792
54427SOL    HW165120  11.294   3.313   0.735
54427SOL    HW265121  11.165   3.391   0.733
54428SOL     OW65122   7.046  14.095   3.572
54428SOL    HW165123   7.011  14.016   3.612
54428SOL    HW265124   6.969  14.149   3.554
54429SOL     OW65125   4.060  13.584   3.775
54429SOL    HW165126   4.035  13.626   3.857
54429SOL    HW265127   3.980  13.585   3.722
54430SOL     OW65128   5.014   6.434   5.551
54430SOL    HW165129   5.059   6.401   5.629
54430SOL    HW265130   5.047   6.523   5.540
54431SOL     OW65131   7.125   9.922  14.592
54431SOL    HW165132   7.120  10.014  14.566
54431SOL    HW265133   7.106   9.874  14.512
54432SOL     OW65134   9.612  11.141   5.787
54432SOL    HW165135   9.519  11.121   5.795
54432SOL    HW265136   9.649  11.111   5.870
54433SOL     OW65137  13.182   0.342   0.262
54433SOL    HW165138  13.246   0.274   0.242
54433SOL    HW265139  13.211   0.377   0.347
54434SOL     OW65140   9.101   0.263  10.772
54434SOL    HW165141   9.069   0.256  10.863
54434SOL    HW265142   9.068   0.347  10.742
54435SOL     OW65143   3.292   3.859  10.762
54435SOL    HW165144   3.260   3.841  10.850
54435SOL    HW265145   3.387   3.855  10.769
54436SOL     OW65146   7.842   3.476  11.659
54436SOL    HW165147   7.807   3.406  11.715
54436SOL    HW265148   7.809   3.456  11.572
54437SOL     OW65149   7.490  12.579  11.756
54437SOL    HW165150   7.518  12.544  11.841
54437SOL    HW265151   7.527  12.519  11.692
54438SOL     OW65152   5.504  10.432   4.940
54438SOL    HW165153   5.597  10.433   4.919
54438SOL    HW265154   5.489  10.346   4.980
54439SOL     OW65155  13.748   1.378  14.541
54439SOL    HW165156  13.751   1.375  14.445
54439SOL    HW265157  13.712   1.293  14.567
54440SOL     OW65158   1.387   9.454   9.405
54440SOL    HW165159   1.335   9.477   9.482
54440SOL    HW265160   1.330   9.474   9.330
54441SOL     OW65161  11.975   5.720   8.535
54441SOL    HW165162  11.895   5.760   8.570
54441SOL    HW265163  12.007   5.784   8.472
54442SOL     OW65164  13.986  13.210   5.859
54442SOL    HW165165  14.019  13.243   5.942
54442SOL    HW265166  14.056  13.226   5.796
54443SOL     OW65167  13.447   9.076   7.504
54443SOL    HW165168  13.432   8.997   7.451
54443SOL    HW265169  13.540   9.072   7.527
54444SOL     OW65170   0.520  10.459   8.705
54444SOL    HW165171   0.552  10.431   8.790
54444SOL    HW265172   0.597  10.461   8.649
54445SOL     OW65173   4.876   4.820   7.109
54445SOL    HW165174   4.814   4.805   7.038
54445SOL    HW265175   4.940   4.881   7.071
54446SOL     OW65176  13.659  14.117  13.201
54446SOL    HW165177  13.752  14.096  13.203
54446SOL    HW265178  13.638  14.127  13.108
54447SOL     OW65179   2.485   8.452   8.559
54447SOL    HW165180   2.540   8.420   8.631
54447SOL    HW265181   2.516   8.403   8.482
54448SOL     OW65182  12.574   0.974   0.511
54448SOL    HW165183  12.548   1.067   0.508
54448SOL    HW265184  12.527   0.939   0.586
54449SOL     OW65185   7.814  13.502   8.904
54449SOL    HW165186   7.878  13.559   8.946
54449SOL    HW265187   7.744  13.561   8.876
54450SOL     OW65188   2.470   4.733   1.539
54450SOL    HW165189   2.538   4.726   1.471
54450SOL    HW265190   2.518   4.756   1.618
54451SOL     OW65191  10.865  14.799   6.451
54451SOL    HW165192  10.953  14.772   6.478
54451SOL    HW265193  10.813  14.794   6.531
54452SOL     OW65194  12.610   9.647   1.572
54452SOL    HW165195  12.533   9.676   1.524
54452SOL    HW265196  12.642   9.571   1.522
54453SOL     OW65197   9.426   7.606  12.880
54453SOL    HW165198   9.331   7.603  12.886
54453SOL    HW265199   9.454   7.658  12.955
54454SOL     OW65200   7.769   0.329   2.039
54454SOL    HW165201   7.766   0.372   1.954
54454SOL    HW265202   7.782   0.401   2.102
54455SOL     OW65203  10.894   5.341   3.393
54455SOL    HW165204  10.950   5.382   3.458
54455SOL    HW265205  10.816   5.314   3.442
54456SOL     OW65206  10.698  13.572   8.052
54456SOL    HW165207  10.611  13.532   8.056
54456SOL    HW265208  10.701  13.630   8.128
54457SOL     OW65209   9.154   8.885  12.917
54457SOL    HW165210   9.120   8.884  13.006
54457SOL    HW265211   9.202   8.968  12.911
54458SOL     OW65212   3.112  10.540   9.376
54458SOL    HW165213   3.173  10.595   9.326
54458SOL    HW265214   3.157  10.456   9.384
54459SOL     OW65215  10.532  14.077   6.989
54459SOL    HW165216  10.496  14.115   6.909
54459SOL    HW265217  10.497  13.987   6.990
54460SOL     OW65218   2.755  14.075   4.298
54460SOL    HW165219   2.837  14.037   4.328
54460SOL    HW265220   2.759  14.167   4.327
54461SOL     OW65221   3.135   9.771   2.279
54461SOL    HW165222   3.053   9.820   2.273
54461SOL    HW265223   3.190   9.807   2.209
54462SOL     OW65224   7.681   3.825  11.373
54462SOL    HW165225   7.599   3.779  11.356
54462SOL    HW265226   7.683   3.894  11.307
54463SOL     OW65227   1.025   0.263   9.779
54463SOL    HW165228   0.995   0.290   9.692
54463SOL    HW265229   0.962   0.197   9.806
54464SOL     OW65230   1.828   9.551   5.521
54464SOL    HW165231   1.867   9.612   5.459
54464SOL    HW265232   1.859   9.465   5.493
54465SOL     OW65233   8.141   1.284   5.518
54465SOL    HW165234   8.109   1.326   5.438
54465SOL    HW265235   8.214   1.230   5.489
54466SOL     OW65236   6.732  10.997   4.442
54466SOL    HW165237   6.693  11.084   4.434
54466SOL    HW265238   6.724  10.959   4.354
54467SOL     OW65239   2.912   0.118   8.881
54467SOL    HW165240   2.975   0.056   8.844
54467SOL    HW265241   2.944   0.204   8.852
54468SOL     OW65242   6.501   4.530   9.995
54468SOL    HW165243   6.477   4.451  10.042
54468SOL    HW265244   6.455   4.600  10.040
54469SOL     OW65245  14.839   5.720  13.632
54469SOL    HW165246  14.784   5.777  13.578
54469SOL    HW265247  14.877   5.658  13.570
54470SOL     OW65248  13.257   1.330   5.970
54470SOL    HW165249  13.337   1.381   5.961
54470SOL    HW265250  13.187   1.392   5.949
54471SOL     OW65251  10.259  14.789  13.872
54471SOL    HW165252  10.317  14.770  13.945
54471SOL    HW265253  10.170  14.780  13.908
54472SOL     OW65254  13.720   4.190   7.183
54472SOL    HW165255  13.716   4.280   7.214
54472SOL    HW265256  13.812   4.177   7.158
54473SOL     OW65257  13.025  12.900   2.861
54473SOL    HW165258  13.037  12.992   2.839
54473SOL    HW265259  13.024  12.898   2.957
54474SOL     OW65260   4.779  11.658   5.338
54474SOL    HW165261   4.801  11.606   5.416
54474SOL    HW265262   4.686  11.680   5.349
54475SOL     OW65263   2.530  11.019   5.965
54475SOL    HW165264   2.565  10.937   6.001
54475SOL    HW265265   2.607  11.075   5.955
54476SOL     OW65266  11.656   8.184   5.300
54476SOL    HW165267  11.682   8.204   5.390
54476SOL    HW265268  11.588   8.248   5.280
54477SOL     OW65269   8.770   4.521   9.293
54477SOL    HW165270   8.810   4.476   9.219
54477SOL    HW265271   8.738   4.451   9.349
54478SOL     OW65272   5.906  12.217  13.264
54478SOL    HW165273   5.974  12.170  13.311
54478SOL    HW265274   5.952  12.286  13.217
54479SOL     OW65275   9.388   1.173  10.083
54479SOL    HW165276   9.378   1.220  10.166
54479SOL    HW265277   9.349   1.232  10.018
54480SOL     OW65278   7.324   2.531  11.853
54480SOL    HW165279   7.303   2.583  11.930
54480SOL    HW265280   7.367   2.592  11.794
54481SOL     OW65281  11.308   2.366   5.349
54481SOL    HW165282  11.316   2.448   5.299
54481SOL    HW265283  11.214   2.347   5.347
54482SOL     OW65284   3.707  11.331   4.672
54482SOL    HW165285   3.640  11.343   4.739
54482SOL    HW265286   3.667  11.270   4.610
54483SOL     OW65287  10.032   5.429   3.420
54483SOL    HW165288  10.073   5.373   3.485
54483SOL    HW265289   9.956   5.466   3.465
54484SOL     OW65290   8.814  14.606   1.698
54484SOL    HW165291   8.727  14.577   1.725
54484SOL    HW265292   8.802  14.636   1.608
54485SOL     OW65293   0.823  13.600   0.918
54485SOL    HW165294   0.896  13.570   0.863
54485SOL    HW265295   0.852  13.684   0.953
54486SOL     OW65296  14.742  11.386   8.549
54486SOL    HW165297  14.828  11.390   8.507
54486SOL    HW265298  14.732  11.471   8.592
54487SOL     OW65299  12.802  13.861   3.851
54487SOL    HW165300  12.759  13.946   3.862
54487SOL    HW265301  12.829  13.860   3.759
54488SOL     OW65302   8.232   8.073  10.167
54488SOL    HW165303   8.189   8.064  10.252
54488SOL    HW265304   8.218   7.989  10.124
54489SOL     OW65305  10.642   3.658  10.165
54489SOL    HW165306  10.655   3.649  10.259
54489SOL    HW265307  10.547   3.666  10.154
54490SOL     OW65308   7.161   9.386  13.778
54490SOL    HW165309   7.078   9.339  13.788
54490SOL    HW265310   7.227   9.317  13.772
54491SOL     OW65311  12.812   0.974  12.533
54491SOL    HW165312  12.863   1.007  12.459
54491SOL    HW265313  12.849   0.889  12.553
54492SOL     OW65314  14.154  13.057   1.926
54492SOL    HW165315  14.067  13.037   1.959
54492SOL    HW265316  14.176  12.984   1.868
54493SOL     OW65317   4.414   5.560  13.910
54493SOL    HW165318   4.410   5.648  13.948
54493SOL    HW265319   4.334   5.518  13.940
54494SOL     OW65320   5.809   9.242   0.365
54494SOL    HW165321   5.833   9.300   0.437
54494SOL    HW265322   5.889   9.194   0.345
54495SOL     OW65323   4.792  12.787   9.740
54495SOL    HW165324   4.770  12.759   9.651
54495SOL    HW265325   4.709  12.816   9.777
54496SOL     OW65326   4.093   4.934  13.025
54496SOL    HW165327   4.079   4.920  13.118
54496SOL    HW265328   4.075   4.849  12.984
54497SOL     OW65329  13.338  11.693  12.285
54497SOL    HW165330  13.433  11.707  12.288
54497SOL    HW265331  13.302  11.758  12.346
54498SOL     OW65332   2.530  13.992   9.821
54498SOL    HW165333   2.530  14.041   9.903
54498SOL    HW265334   2.564  13.906   9.845
54499SOL     OW65335   0.135  11.399  13.467
54499SOL    HW165336   0.147  11.451  13.546
54499SOL    HW265337   0.200  11.433  13.406
54500SOL     OW65338   1.534   1.373   1.021
54500SOL    HW165339   1.521   1.290   1.066
54500SOL    HW265340   1.521   1.352   0.928
54501SOL     OW65341  14.820   8.401   1.616
54501SOL    HW165342  14.877   8.354   1.678
54501SOL    HW265343  14.781   8.471   1.668
54502SOL     OW65344   9.001   3.129   4.519
54502SOL    HW165345   9.089   3.090   4.517
54502SOL    HW265346   8.987   3.152   4.611
54503SOL     OW65347   0.558   3.687  13.024
54503SOL    HW165348   0.464   3.685  13.006
54503SOL    HW265349   0.595   3.740  12.953
54504SOL     OW65350  13.949   0.491  14.727
54504SOL    HW165351  13.896   0.544  14.786
54504SOL    HW265352  13.927   0.400  14.750
54505SOL     OW65353   9.513   7.289   1.877
54505SOL    HW165354   9.553   7.374   1.857
54505SOL    HW265355   9.580   7.242   1.927
54506SOL     OW65356  11.559   3.760   1.426
54506SOL    HW165357  11.464   3.757   1.426
54506SOL    HW265358  11.586   3.672   1.400
54507SOL     OW65359   0.198  13.349   8.918
54507SOL    HW165360   0.253  13.314   8.989
54507SOL    HW265361   0.118  13.378   8.962
54508SOL     OW65362   8.176  10.173  13.888
54508SOL    HW165363   8.105  10.235  13.871
54508SOL    HW265364   8.170  10.155  13.982
54509SOL     OW65365  13.172   9.376   9.362
54509SOL    HW165366  13.221   9.354   9.283
54509SOL    HW265367  13.080   9.365   9.338
54510SOL     OW65368  12.946  12.430  10.098
54510SOL    HW165369  12.860  12.427  10.057
54510SOL    HW265370  13.002  12.377  10.040
54511SOL     OW65371   1.286   6.508   0.603
54511SOL    HW165372   1.229   6.437   0.632
54511SOL    HW265373   1.294   6.565   0.680
54512SOL     OW65374  13.445  13.455   9.721
54512SOL    HW165375  13.526  13.490   9.684
54512SOL    HW265376  13.411  13.526   9.775
54513SOL     OW65377   4.907  10.940  14.511
54513SOL    HW165378   4.922  10.937  14.605
54513SOL    HW265379   4.955  11.017  14.481
54514SOL     OW65380   5.294   9.766   9.591
54514SOL    HW165381   5.288   9.800   9.680
54514SOL    HW265382   5.366   9.704   9.593
54515SOL     OW65383   6.753   5.864   8.557
54515SOL    HW165384   6.661   5.856   8.580
54515SOL    HW265385   6.800   5.853   8.640
54516SOL     OW65386  10.616   4.889  10.547
54516SOL    HW165387  10.540   4.854  10.593
54516SOL    HW265388  10.584   4.912  10.460
54517SOL     OW65389   8.965   9.058   5.260
54517SOL    HW165390   9.005   8.982   5.217
54517SOL    HW265391   8.907   9.019   5.326
54518SOL     OW65392   7.670  10.167   1.184
54518SOL    HW165393   7.658  10.238   1.120
54518SOL    HW265394   7.740  10.113   1.146
54519SOL     OW65395  12.541  14.494  13.032
54519SOL    HW165396  12.478  14.447  12.977
54519SOL    HW265397  12.625  14.452  13.015
54520SOL     OW65398  10.353   7.517   3.083
54520SOL    HW165399  10.261   7.541   3.081
54520SOL    HW265400  10.353   7.423   3.104
54521SOL     OW65401   4.543   4.951  11.248
54521SOL    HW165402   4.592   4.878  11.210
54521SOL    HW265403   4.500   4.994  11.174
54522SOL     OW65404  13.227   8.671   0.160
54522SOL    HW165405  13.246   8.750   0.211
54522SOL    HW265406  13.159   8.626   0.210
54523SOL     OW65407   7.955  12.709   5.197
54523SOL    HW165408   7.953  12.760   5.278
54523SOL    HW265409   7.911  12.764   5.133
54524SOL     OW65410  11.929   9.132   5.797
54524SOL    HW165411  11.856   9.192   5.814
54524SOL    HW265412  11.920   9.065   5.864
54525SOL     OW65413  13.458   0.737   6.916
54525SOL    HW165414  13.489   0.801   6.980
54525SOL    HW265415  13.523   0.666   6.920
54526SOL     OW65416  12.358   8.806   8.936
54526SOL    HW165417  12.269   8.837   8.921
54526SOL    HW265418  12.375   8.747   8.863
54527SOL     OW65419   4.073  10.161  13.763
54527SOL    HW165420   3.980  10.140  13.758
54527SOL    HW265421   4.104  10.113  13.841
54528SOL     OW65422  14.480  13.477   5.033
54528SOL    HW165423  14.410  13.495   5.095
54528SOL    HW265424  14.556  13.525   5.067
54529SOL     OW65425  14.622  10.559  12.420
54529SOL    HW165426  14.666  10.475  12.432
54529SOL    HW265427  14.546  10.540  12.365
54530SOL     OW65428  10.797   1.772   2.403
54530SOL    HW165429  10.845   1.693   2.426
54530SOL    HW265430  10.758   1.801   2.486
54531SOL     OW65431   3.324   0.861   4.045
54531SOL    HW165432   3.276   0.920   3.987
54531SOL    HW265433   3.340   0.783   3.992
54532SOL     OW65434  13.257   0.427   3.213
54532SOL    HW165435  13.165   0.450   3.221
54532SOL    HW265436  13.301   0.510   3.195
54533SOL     OW65437   2.452   2.314   7.886
54533SOL    HW165438   2.544   2.285   7.889
54533SOL    HW265439   2.448   2.376   7.814
54534SOL     OW65440  12.605  12.339   8.372
54534SOL    HW165441  12.695  12.309   8.359
54534SOL    HW265442  12.569  12.347   8.284
54535SOL     OW65443   8.056   8.261   7.779
54535SOL    HW165444   8.076   8.220   7.695
54535SOL    HW265445   8.087   8.351   7.770
54536SOL     OW65446  14.851   5.693   5.958
54536SOL    HW165447  14.789   5.631   5.920
54536SOL    HW265448   0.041   5.638   5.994
54537SOL     OW65449   1.337   3.671   9.335
54537SOL    HW165450   1.290   3.640   9.258
54537SOL    HW265451   1.391   3.597   9.362
54538SOL     OW65452   6.652  11.992   5.129
54538SOL    HW165453   6.690  12.066   5.177
54538SOL    HW265454   6.612  11.938   5.197
54539SOL     OW65455   9.319   1.227  10.607
54539SOL    HW165456   9.297   1.155  10.547
54539SOL    HW265457   9.395   1.195  10.655
54540SOL     OW65458   2.605  10.094  13.075
54540SOL    HW165459   2.510  10.100  13.061
54540SOL    HW265460   2.619  10.004  13.104
54541SOL     OW65461  12.265   0.215   5.797
54541SOL    HW165462  12.298   0.278   5.733
54541SOL    HW265463  12.179   0.249   5.822
54542SOL     OW65464   1.041   3.803   5.787
54542SOL    HW165465   1.091   3.792   5.868
54542SOL    HW265466   0.976   3.870   5.807
54543SOL     OW65467   2.719  13.879   5.838
54543SOL    HW165468   2.686  13.796   5.804
54543SOL    HW265469   2.764  13.920   5.765
54544SOL     OW65470  13.014   7.329  14.595
54544SOL    HW165471  12.951   7.397  14.618
54544SOL    HW265472  13.060   7.363  14.518
54545SOL     OW65473   4.421  14.557   9.870
54545SOL    HW165474   4.468  14.484   9.910
54545SOL    HW265475   4.440  14.631   9.927
54546SOL     OW65476   2.780  13.489   8.224
54546SOL    HW165477   2.854  13.538   8.259
54546SOL    HW265478   2.724  13.472   8.299
54547SOL     OW65479  14.007   0.229   4.179
54547SOL    HW165480  13.965   0.197   4.099
54547SOL    HW265481  14.025   0.321   4.162
54548SOL     OW65482   2.136   4.148   0.532
54548SOL    HW165483   2.229   4.142   0.554
54548SOL    HW265484   2.132   4.128   0.438
54549SOL     OW65485   7.195   8.117   4.717
54549SOL    HW165486   7.152   8.054   4.659
54549SOL    HW265487   7.143   8.197   4.709
54550SOL     OW65488  13.461  13.538   3.882
54550SOL    HW165489  13.424  13.552   3.969
54550SOL    HW265490  13.384  13.522   3.826
54551SOL     OW65491   3.471   2.621   9.371
54551SOL    HW165492   3.418   2.604   9.294
54551SOL    HW265493   3.451   2.549   9.431
54552SOL     OW65494  14.601  12.610   6.879
54552SOL    HW165495  14.673  12.559   6.917
54552SOL    HW265496  14.641  12.661   6.809
54553SOL     OW65497   5.830   3.512   0.205
54553SOL    HW165498   5.767   3.568   0.251
54553SOL    HW265499   5.840   3.552   0.119
54554SOL     OW65500   3.752   5.024   4.929
54554SOL    HW165501   3.704   4.947   4.957
54554SOL    HW265502   3.716   5.096   4.982
54555SOL     OW65503  12.117  13.788   8.197
54555SOL    HW165504  12.052  13.779   8.267
54555SOL    HW265505  12.106  13.709   8.144
54556SOL     OW65506  12.020  13.614  10.083
54556SOL    HW165507  11.997  13.696  10.128
54556SOL    HW265508  12.112  13.601  10.102
54557SOL     OW65509  13.443   3.107  10.646
54557SOL    HW165510  13.535   3.134  10.649
54557SOL    HW265511  13.414   3.113  10.738
54558SOL     OW65512   2.115  12.562   5.903
54558SOL    HW165513   2.106  12.584   5.996
54558SOL    HW265514   2.209  12.555   5.889
54559SOL     OW65515  14.500  12.443   1.142
54559SOL    HW165516  14.561  12.506   1.181
54559SOL    HW265517  14.439  12.422   1.212
54560SOL     OW65518  14.689   2.389  14.548
54560SOL    HW165519  14.770   2.441  14.549
54560SOL    HW265520  14.662   2.388  14.640
54561SOL     OW65521   7.518   4.018   4.429
54561SOL    HW165522   7.598   4.033   4.378
54561SOL    HW265523   7.547   3.967   4.505
54562SOL     OW65524   7.105   6.480   8.583
54562SOL    HW165525   7.128   6.511   8.495
54562SOL    HW265526   7.047   6.405   8.567
54563SOL     OW65527   0.304   2.849  13.415
54563SOL    HW165528   0.290   2.856  13.509
54563SOL    HW265529   0.218   2.825  13.380
54564SOL     OW65530  11.057   1.575   0.371
54564SOL    HW165531  11.026   1.661   0.341
54564SOL    HW265532  11.025   1.569   0.462
54565SOL     OW65533   8.006   6.850   0.471
54565SOL    HW165534   8.043   6.782   0.414
54565SOL    HW265535   7.937   6.891   0.419
54566SOL     OW65536   9.047  14.553   1.850
54566SOL    HW165537   8.958  14.561   1.816
54566SOL    HW265538   9.049  14.609   1.928
54567SOL     OW65539   8.325  12.016   1.977
54567SOL    HW165540   8.409  12.028   2.023
54567SOL    HW265541   8.344  12.040   1.887
54568SOL     OW65542  13.392  10.117   4.432
54568SOL    HW165543  13.468  10.149   4.383
54568SOL    HW265544  13.328  10.188   4.426
54569SOL     OW65545   8.146   7.365  10.858
54569SOL    HW165546   8.080   7.397  10.920
54569SOL    HW265547   8.115   7.396  10.772
54570SOL     OW65548   9.881  12.435   8.062
54570SOL    HW165549   9.911  12.421   7.972
54570SOL    HW265550   9.926  12.515   8.090
54571SOL     OW65551  14.497  10.278  12.478
54571SOL    HW165552  14.495  10.186  12.452
54571SOL    HW265553  14.558  10.281  12.552
54572SOL     OW65554   3.604   5.289  12.867
54572SOL    HW165555   3.658   5.243  12.802
54572SOL    HW265556   3.612   5.236  12.947
54573SOL     OW65557   5.806   1.364   8.645
54573SOL    HW165558   5.745   1.375   8.717
54573SOL    HW265559   5.825   1.453   8.616
54574SOL     OW65560  14.345   6.341   4.468
54574SOL    HW165561  14.322   6.432   4.448
54574SOL    HW265562  14.376   6.306   4.385
54575SOL     OW65563   7.935   8.067  10.357
54575SOL    HW165564   7.849   8.066  10.400
54575SOL    HW265565   7.992   8.019  10.416
54576SOL     OW65566   8.093  12.349   4.260
54576SOL    HW165567   8.124  12.369   4.171
54576SOL    HW265568   8.172  12.321   4.307
54577SOL     OW65569   3.501   1.023  12.825
54577SOL    HW165570   3.477   1.044  12.735
54577SOL    HW265571   3.426   1.053  12.877
54578SOL     OW65572   8.628  14.728  10.279
54578SOL    HW165573   8.680  14.691  10.209
54578SOL    HW265574   8.640  14.668  10.353
54579SOL     OW65575   6.267   8.795  10.700
54579SOL    HW165576   6.347   8.846  10.688
54579SOL    HW265577   6.295   8.704  10.688
54580SOL     OW65578  13.382   3.576  12.003
54580SOL    HW165579  13.404   3.501  11.948
54580SOL    HW265580  13.288   3.588  11.990
54581SOL     OW65581  14.504   8.303   9.755
54581SOL    HW165582  14.460   8.257   9.684
54581SOL    HW265583  14.523   8.234   9.819
54582SOL     OW65584   6.844   9.128   3.124
54582SOL    HW165585   6.771   9.187   3.104
54582SOL    HW265586   6.911   9.151   3.060
54583SOL     OW65587   4.330  13.385  10.118
54583SOL    HW165588   4.289  13.386  10.205
54583SOL    HW265589   4.268  13.338  10.062
54584SOL     OW65590  14.556   1.475   7.663
54584SOL    HW165591  14.643   1.471   7.622
54584SOL    HW265592  14.545   1.568   7.686
54585SOL     OW65593  10.873   9.521  12.968
54585SOL    HW165594  10.885   9.450  13.030
54585SOL    HW265595  10.854   9.598  13.022
54586SOL     OW65596   9.798   5.549   7.347
54586SOL    HW165597   9.705   5.552   7.372
54586SOL    HW265598   9.829   5.467   7.385
54587SOL     OW65599  10.687  11.352   4.431
54587SOL    HW165600  10.657  11.275   4.479
54587SOL    HW265601  10.729  11.407   4.498
54588SOL     OW65602   9.591   0.506  12.924
54588SOL    HW165603   9.570   0.454  13.001
54588SOL    HW265604   9.525   0.576  12.923
54589SOL     OW65605  11.756   0.185   2.111
54589SOL    HW165606  11.782   0.248   2.043
54589SOL    HW265607  11.671   0.153   2.083
54590SOL     OW65608   7.041   6.890   3.814
54590SOL    HW165609   7.050   6.906   3.720
54590SOL    HW265610   6.947   6.896   3.830
54591SOL     OW65611  10.112   6.670  12.310
54591SOL    HW165612  10.079   6.746  12.358
54591SOL    HW265613  10.064   6.596  12.346
54592SOL     OW65614   3.438  14.269  14.425
54592SOL    HW165615   3.491  14.264  14.504
54592SOL    HW265616   3.391  14.353  14.433
54593SOL     OW65617   0.218   2.835   6.089
54593SOL    HW165618   0.307   2.841   6.123
54593SOL    HW265619   0.173   2.910   6.127
54594SOL     OW65620  12.734   4.910  12.294
54594SOL    HW165621  12.648   4.940  12.265
54594SOL    HW265622  12.765   4.854  12.224
54595SOL     OW65623   6.434  14.178  11.227
54595SOL    HW165624   6.525  14.170  11.200
54595SOL    HW265625   6.393  14.230  11.157
54596SOL     OW65626   5.845  13.403   7.531
54596SOL    HW165627   5.834  13.443   7.617
54596SOL    HW265628   5.922  13.346   7.541
54597SOL     OW65629  14.323  13.492   2.005
54597SOL    HW165630  14.287  13.413   2.045
54597SOL    HW265631  14.283  13.496   1.918
54598SOL     OW65632   8.303   5.918  11.087
54598SOL    HW165633   8.332   6.002  11.053
54598SOL    HW265634   8.222   5.899  11.038
54599SOL     OW65635  14.238  12.628   0.220
54599SOL    HW165636  14.203  12.543   0.246
54599SOL    HW265637  14.226  12.683   0.298
54600SOL     OW65638   7.719   5.852  11.695
54600SOL    HW165639   7.627   5.841  11.672
54600SOL    HW265640   7.756   5.764  11.688
54601SOL     OW65641   8.668  10.156  12.356
54601SOL    HW165642   8.744  10.135  12.411
54601SOL    HW265643   8.693  10.239  12.314
54602SOL     OW65644  14.215   8.687  11.943
54602SOL    HW165645  14.289   8.629  11.960
54602SOL    HW265646  14.253   8.762  11.896
54603SOL     OW65647   8.930  14.263  11.335
54603SOL    HW165648   8.843  14.301  11.323
54603SOL    HW265649   8.924  14.177  11.293
54604SOL     OW65650   7.357  11.682  10.265
54604SOL    HW165651   7.349  11.588  10.253
54604SOL    HW265652   7.362  11.718  10.177
54605SOL     OW65653  13.112   3.172   1.865
54605SOL    HW165654  13.119   3.208   1.776
54605SOL    HW265655  13.177   3.103   1.868
54606SOL     OW65656   8.315   9.095   3.767
54606SOL    HW165657   8.309   9.005   3.734
54606SOL    HW265658   8.241   9.104   3.826
54607SOL     OW65659   1.559   3.947   5.997
54607SOL    HW165660   1.597   3.950   5.909
54607SOL    HW265661   1.552   4.039   6.023
54608SOL     OW65662   9.762   6.841   3.192
54608SOL    HW165663   9.769   6.918   3.248
54608SOL    HW265664   9.765   6.875   3.103
54609SOL     OW65665   4.553  13.361  13.633
54609SOL    HW165666   4.601  13.419  13.574
54609SOL    HW265667   4.466  13.353  13.595
54610SOL     OW65668  10.232   6.450   7.045
54610SOL    HW165669  10.161   6.430   6.984
54610SOL    HW265670  10.188   6.494   7.118
54611SOL     OW65671  13.286   7.874   2.618
54611SOL    HW165672  13.198   7.884   2.581
54611SOL    HW265673  13.280   7.912   2.706
54612SOL     OW65674   8.755   0.996   9.254
54612SOL    HW165675   8.732   1.025   9.342
54612SOL    HW265676   8.765   1.077   9.204
54613SOL     OW65677   3.734   1.161   2.044
54613SOL    HW165678   3.812   1.109   2.027
54613SOL    HW265679   3.698   1.125   2.126
54614SOL     OW65680   4.711   6.777   7.749
54614SOL    HW165681   4.789   6.803   7.701
54614SOL    HW265682   4.684   6.694   7.710
54615SOL     OW65683   7.992   5.629   0.226
54615SOL    HW165684   8.077   5.672   0.229
54615SOL    HW265685   7.972   5.607   0.317
54616SOL     OW65686   9.068   4.424   9.366
54616SOL    HW165687   9.034   4.492   9.424
54616SOL    HW265688   9.147   4.393   9.409
54617SOL     OW65689  11.716   5.948  10.118
54617SOL    HW165690  11.757   5.994  10.191
54617SOL    HW265691  11.763   5.978  10.041
54618SOL     OW65692  13.285   5.805   5.634
54618SOL    HW165693  13.205   5.818   5.582
54618SOL    HW265694  13.286   5.878   5.696
54619SOL     OW65695  13.736   5.527  12.099
54619SOL    HW165696  13.781   5.608  12.076
54619SOL    HW265697  13.657   5.554  12.145
54620SOL     OW65698  14.830  14.080   8.492
54620SOL    HW165699  14.804  14.172   8.503
54620SOL    HW265700   0.033  14.074   8.541
54621SOL     OW65701   0.091   7.347  11.434
54621SOL    HW165702   0.127   7.266  11.469
54621SOL    HW265703   0.017   7.368  11.492
54622SOL     OW65704   3.205   4.759   3.412
54622SOL    HW165705   3.211   4.665   3.394
54622SOL    HW265706   3.189   4.799   3.327
54623SOL     OW65707   9.106   0.174   9.319
54623SOL    HW165708   9.094   0.163   9.413
54623SOL    HW265709   9.056   0.252   9.297
54624SOL     OW65710  10.390  14.808  14.130
54624SOL    HW165711  10.401   0.023  14.133
54624SOL    HW265712  10.437  14.776  14.207
54625SOL     OW65713   8.069   1.068   3.181
54625SOL    HW165714   7.980   1.048   3.152
54625SOL    HW265715   8.061   1.079   3.276
54626SOL     OW65716   8.616   0.917  13.789
54626SOL    HW165717   8.593   0.828  13.762
54626SOL    HW265718   8.638   0.908  13.882
54627SOL     OW65719  13.131   8.183  11.723
54627SOL    HW165720  13.141   8.228  11.806
54627SOL    HW265721  13.036   8.181  11.708
54628SOL     OW65722   8.499   7.413   3.734
54628SOL    HW165723   8.558   7.355   3.685
54628SOL    HW265724   8.452   7.355   3.793
54629SOL     OW65725   8.261   3.243   4.484
54629SOL    HW165726   8.184   3.287   4.518
54629SOL    HW265727   8.331   3.308   4.491
54630SOL     OW65728   0.267   9.395   1.285
54630SOL    HW165729   0.264   9.361   1.196
54630SOL    HW265730   0.202   9.465   1.286
54631SOL     OW65731   5.260   8.411   0.460
54631SOL    HW165732   5.185   8.359   0.432
54631SOL    HW265733   5.329   8.346   0.477
54632SOL     OW65734  13.304   2.337   7.083
54632SOL    HW165735  13.362   2.264   7.101
54632SOL    HW265736  13.354   2.395   7.025
54633SOL     OW65737   7.243   4.842   4.687
54633SOL    HW165738   7.159   4.839   4.733
54633SOL    HW265739   7.293   4.911   4.732
54634SOL     OW65740  13.504  13.257  14.280
54634SOL    HW165741  13.441  13.188  14.302
54634SOL    HW265742  13.500  13.264  14.185
54635SOL     OW65743  14.735   4.988  13.784
54635SOL    HW165744  14.750   4.914  13.843
54635SOL    HW265745  14.665   5.038  13.825
54636SOL     OW65746   2.568   2.595  12.663
54636SOL    HW165747   2.474   2.610  12.658
54636SOL    HW265748   2.603   2.675  12.702
54637SOL     OW65749   3.473   4.378   6.984
54637SOL    HW165750   3.567   4.376   7.001
54637SOL    HW265751   3.450   4.471   6.989
54638SOL     OW65752   4.610   3.874   2.352
54638SOL    HW165753   4.662   3.848   2.428
54638SOL    HW265754   4.621   3.802   2.290
54639SOL     OW65755  12.163   2.071   4.903
54639SOL    HW165756  12.248   2.036   4.879
54639SOL    HW265757  12.146   2.036   4.991
54640SOL     OW65758   5.451   9.717   4.952
54640SOL    HW165759   5.535   9.757   4.971
54640SOL    HW265760   5.399   9.787   4.914
54641SOL     OW65761   7.428   2.447   3.095
54641SOL    HW165762   7.362   2.517   3.095
54641SOL    HW265763   7.501   2.484   3.146
54642SOL     OW65764   3.980   8.943  10.708
54642SOL    HW165765   4.021   9.030  10.702
54642SOL    HW265766   3.987   8.907  10.619
54643SOL     OW65767   9.676   5.252  10.057
54643SOL    HW165768   9.741   5.270  10.124
54643SOL    HW265769   9.625   5.333  10.050
54644SOL     OW65770   7.411   7.725   8.355
54644SOL    HW165771   7.473   7.654   8.337
54644SOL    HW265772   7.410   7.777   8.275
54645SOL     OW65773   8.035  12.837  12.097
54645SOL    HW165774   8.017  12.807  12.008
54645SOL    HW265775   7.981  12.782  12.153
54646SOL     OW65776  12.247   1.725   2.246
54646SOL    HW165777  12.237   1.757   2.157
54646SOL    HW265778  12.184   1.774   2.297
54647SOL     OW65779   6.433  11.972  12.873
54647SOL    HW165780   6.398  12.033  12.808
54647SOL    HW265781   6.480  12.027  12.935
54648SOL     OW65782  12.603   8.164   3.081
54648SOL    HW165783  12.618   8.258   3.066
54648SOL    HW265784  12.530   8.143   3.022
54649SOL     OW65785   9.994   5.614   1.060
54649SOL    HW165786  10.063   5.662   1.106
54649SOL    HW265787   9.996   5.527   1.100
54650SOL     OW65788  11.649   5.514  14.431
54650SOL    HW165789  11.713   5.463  14.381
54650SOL    HW265790  11.640   5.596  14.382
54651SOL     OW65791  11.656   2.715   5.699
54651SOL    HW165792  11.576   2.699   5.749
54651SOL    HW265793  11.674   2.808   5.711
54652SOL     OW65794  13.755   1.715   3.499
54652SOL    HW165795  13.755   1.804   3.463
54652SOL    HW265796  13.760   1.728   3.594
54653SOL     OW65797   7.698   9.704  14.749
54653SOL    HW165798   7.603   9.716  14.757
54653SOL    HW265799   7.709   9.614  14.720
54654SOL     OW65800  10.889   5.974   4.565
54654SOL    HW165801  10.878   5.883   4.594
54654SOL    HW265802  10.812   6.019   4.600
54655SOL     OW65803   2.458   9.748   3.964
54655SOL    HW165804   2.543   9.780   3.994
54655SOL    HW265805   2.399   9.822   3.979
54656SOL     OW65806  10.826  13.171  13.103
54656SOL    HW165807  10.880  13.156  13.025
54656SOL    HW265808  10.878  13.231  13.156
54657SOL     OW65809  10.392  10.188  13.975
54657SOL    HW165810  10.332  10.152  13.909
54657SOL    HW265811  10.407  10.278  13.946
54658SOL     OW65812  14.146   4.044   2.584
54658SOL    HW165813  14.200   4.069   2.509
54658SOL    HW265814  14.176   3.955   2.607
54659SOL     OW65815  11.140   0.591   6.916
54659SOL    HW165816  11.168   0.541   6.838
54659SOL    HW265817  11.203   0.565   6.984
54660SOL     OW65818   9.106   8.494   6.271
54660SOL    HW165819   9.092   8.415   6.219
54660SOL    HW265820   9.152   8.465   6.349
54661SOL     OW65821   4.726  10.372   6.104
54661SOL    HW165822   4.742  10.454   6.057
54661SOL    HW265823   4.811  10.348   6.139
54662SOL     OW65824   4.923  12.905  12.475
54662SOL    HW165825   4.893  12.889  12.385
54662SOL    HW265826   4.851  12.872  12.529
54663SOL     OW65827   8.483   8.962   0.902
54663SOL    HW165828   8.524   8.876   0.912
54663SOL    HW265829   8.494   8.983   0.809
54664SOL     OW65830   7.854   1.753  12.434
54664SOL    HW165831   7.805   1.670  12.431
54664SOL    HW265832   7.936   1.731  12.476
54665SOL     OW65833   2.104  10.136  12.137
54665SOL    HW165834   2.177  10.129  12.199
54665SOL    HW265835   2.026  10.117  12.190
54666SOL     OW65836  10.614   7.016   1.666
54666SOL    HW165837  10.671   7.041   1.738
54666SOL    HW265838  10.638   6.926   1.645
54667SOL     OW65839   7.632   2.340  10.662
54667SOL    HW165840   7.694   2.321  10.733
54667SOL    HW265841   7.664   2.288  10.589
54668SOL     OW65842   9.948  10.186   8.424
54668SOL    HW165843   9.855  10.191   8.406
54668SOL    HW265844   9.967  10.092   8.428
54669SOL     OW65845   5.946   9.166   5.655
54669SOL    HW165846   6.029   9.120   5.658
54669SOL    HW265847   5.880   9.097   5.649
54670SOL     OW65848  10.283   8.793   9.855
54670SOL    HW165849  10.324   8.731   9.795
54670SOL    HW265850  10.322   8.773   9.940
54671SOL     OW65851  12.609   8.582   3.430
54671SOL    HW165852  12.624   8.655   3.489
54671SOL    HW265853  12.563   8.517   3.484
54672SOL     OW65854  14.702  14.313   6.861
54672SOL    HW165855  14.793  14.301   6.832
54672SOL    HW265856  14.650  14.299   6.783
54673SOL     OW65857   6.899   5.094  12.956
54673SOL    HW165858   6.815   5.124  12.923
54673SOL    HW265859   6.930   5.033  12.889
54674SOL     OW65860  10.173  10.419  14.459
54674SOL    HW165861  10.241  10.461  14.407
54674SOL    HW265862  10.181  10.326  14.438
54675SOL     OW65863  14.648   9.448   2.761
54675SOL    HW165864  14.642   9.366   2.711
54675SOL    HW265865  14.740   9.472   2.758
54676SOL     OW65866   8.250   0.462  11.688
54676SOL    HW165867   8.185   0.492  11.624
54676SOL    HW265868   8.224   0.372  11.707
54677SOL     OW65869   7.197   5.914  14.069
54677SOL    HW165870   7.280   5.960  14.059
54677SOL    HW265871   7.161   5.948  14.151
54678SOL     OW65872  11.745   4.819   0.448
54678SOL    HW165873  11.778   4.758   0.382
54678SOL    HW265874  11.824   4.854   0.490
54679SOL     OW65875   0.308   4.394   8.291
54679SOL    HW165876   0.269   4.443   8.218
54679SOL    HW265877   0.396   4.430   8.300
54680SOL     OW65878   6.514   0.821   3.077
54680SOL    HW165879   6.534   0.779   2.993
54680SOL    HW265880   6.449   0.888   3.055
54681SOL     OW65881  12.963   8.911   6.118
54681SOL    HW165882  12.892   8.899   6.181
54681SOL    HW265883  13.008   8.826   6.116
54682SOL     OW65884  12.895   3.472   5.964
54682SOL    HW165885  12.838   3.548   5.951
54682SOL    HW265886  12.839   3.397   5.947
54683SOL     OW65887  13.199  12.871   5.556
54683SOL    HW165888  13.278  12.925   5.558
54683SOL    HW265889  13.167  12.871   5.646
54684SOL     OW65890   6.884   8.960  14.795
54684SOL    HW165891   6.975   8.951  14.823
54684SOL    HW265892   6.888   8.976  14.701
54685SOL     OW65893  12.835   9.591   4.470
54685SOL    HW165894  12.770   9.651   4.506
54685SOL    HW265895  12.836   9.518   4.532
54686SOL     OW65896   4.196  12.280  10.778
54686SOL    HW165897   4.199  12.283  10.682
54686SOL    HW265898   4.266  12.219  10.802
54687SOL     OW65899   8.843  12.450   3.153
54687SOL    HW165900   8.937  12.429   3.153
54687SOL    HW265901   8.840  12.545   3.142
54688SOL     OW65902   3.057   8.882  13.490
54688SOL    HW165903   3.076   8.827  13.567
54688SOL    HW265904   2.969   8.915  13.505
54689SOL     OW65905   5.464   6.518   2.266
54689SOL    HW165906   5.436   6.519   2.357
54689SOL    HW265907   5.472   6.425   2.245
54690SOL     OW65908  10.553   7.729   2.843
54690SOL    HW165909  10.608   7.681   2.782
54690SOL    HW265910  10.615   7.774   2.900
54691SOL     OW65911  12.155  13.733   3.399
54691SOL    HW165912  12.199  13.683   3.467
54691SOL    HW265913  12.090  13.786   3.446
54692SOL     OW65914  10.098   4.112   1.913
54692SOL    HW165915  10.009   4.140   1.893
54692SOL    HW265916  10.095   4.017   1.906
54693SOL     OW65917  10.073   7.573   0.238
54693SOL    HW165918  10.055   7.561   0.332
54693SOL    HW265919  10.098   7.486   0.207
54694SOL     OW65920   8.077   5.033   8.912
54694SOL    HW165921   8.136   5.108   8.917
54694SOL    HW265922   8.126   4.967   8.862
54695SOL     OW65923  14.745  11.795   7.422
54695SOL    HW165924  14.723  11.887   7.437
54695SOL    HW265925  14.746  11.756   7.510
54696SOL     OW65926   4.329   8.487   7.813
54696SOL    HW165927   4.395   8.539   7.859
54696SOL    HW265928   4.255   8.483   7.874
54697SOL     OW65929   8.000   3.518  12.471
54697SOL    HW165930   8.088   3.525  12.509
54697SOL    HW265931   7.950   3.470  12.536
54698SOL     OW65932   1.019  10.748   2.803
54698SOL    HW165933   1.103  10.709   2.781
54698SOL    HW265934   0.969  10.678   2.844
54699SOL     OW65935   3.266   3.649   2.938
54699SOL    HW165936   3.311   3.638   2.855
54699SOL    HW265937   3.179   3.683   2.914
54700SOL     OW65938   8.581   8.393  13.330
54700SOL    HW165939   8.617   8.304  13.335
54700SOL    HW265940   8.631   8.435  13.259
54701SOL     OW65941  10.140   5.400   1.995
54701SOL    HW165942  10.186   5.333   1.944
54701SOL    HW265943  10.172   5.389   2.084
54702SOL     OW65944   3.742   6.705   3.529
54702SOL    HW165945   3.697   6.620   3.531
54702SOL    HW265946   3.673   6.769   3.539
54703SOL     OW65947   5.929   2.451   6.919
54703SOL    HW165948   6.024   2.453   6.904
54703SOL    HW265949   5.914   2.520   6.984
54704SOL     OW65950  13.932   9.580   9.209
54704SOL    HW165951  14.022   9.589   9.178
54704SOL    HW265952  13.879   9.613   9.137
54705SOL     OW65953   2.611   6.457  12.733
54705SOL    HW165954   2.570   6.540  12.758
54705SOL    HW265955   2.556   6.390  12.774
54706SOL     OW65956   6.010   2.081  10.572
54706SOL    HW165957   5.939   2.065  10.634
54706SOL    HW265958   6.088   2.047  10.615
54707SOL     OW65959  14.562   5.189  13.905
54707SOL    HW165960  14.550   5.198  13.999
54707SOL    HW265961  14.550   5.277  13.870
54708SOL     OW65962  12.822   9.577   0.842
54708SOL    HW165963  12.872   9.657   0.854
54708SOL    HW265964  12.887   9.512   0.814
54709SOL     OW65965   6.622   0.224   5.534
54709SOL    HW165966   6.594   0.162   5.601
54709SOL    HW265967   6.590   0.187   5.452
54710SOL     OW65968   2.578  13.370   7.351
54710SOL    HW165969   2.509  13.432   7.325
54710SOL    HW265970   2.599  13.394   7.441
54711SOL     OW65971   3.832  13.697   7.338
54711SOL    HW165972   3.862  13.607   7.333
54711SOL    HW265973   3.737  13.692   7.322
54712SOL     OW65974   4.283   2.889   1.112
54712SOL    HW165975   4.303   2.934   1.194
54712SOL    HW265976   4.188   2.897   1.102
54713SOL     OW65977   4.231   4.563   7.840
54713SOL    HW165978   4.262   4.493   7.783
54713SOL    HW265979   4.151   4.528   7.879
54714SOL     OW65980  12.678  11.638   4.173
54714SOL    HW165981  12.740  11.693   4.124
54714SOL    HW265982  12.720  11.552   4.177
54715SOL     OW65983   7.232   7.682   1.557
54715SOL    HW165984   7.198   7.614   1.498
54715SOL    HW265985   7.153   7.726   1.589
54716SOL     OW65986  13.655   6.932   5.489
54716SOL    HW165987  13.644   6.860   5.428
54716SOL    HW265988  13.578   6.987   5.475
54717SOL     OW65989   3.651   8.766   5.098
54717SOL    HW165990   3.582   8.719   5.145
54717SOL    HW265991   3.698   8.813   5.167
54718SOL     OW65992  13.714   5.545   0.324
54718SOL    HW165993  13.744   5.636   0.327
54718SOL    HW265994  13.768   5.504   0.257
54719SOL     OW65995  13.909   7.285   1.576
54719SOL    HW165996  13.832   7.326   1.613
54719SOL    HW265997  13.913   7.319   1.486
54720SOL     OW65998   4.606   5.930   9.136
54720SOL    HW165999   4.658   5.913   9.215
54720SOL    HW266000   4.632   5.861   9.075
54721SOL     OW66001   8.291   4.678   6.330
54721SOL    HW166002   8.330   4.597   6.361
54721SOL    HW266003   8.352   4.747   6.357
54722SOL     OW66004   9.789   9.906   0.768
54722SOL    HW166005   9.852   9.879   0.702
54722SOL    HW266006   9.751   9.824   0.801
54723SOL     OW66007  14.110   8.168   1.411
54723SOL    HW166008  14.085   8.261   1.410
54723SOL    HW266009  14.035   8.123   1.371
54724SOL     OW66010  13.296   0.140   8.773
54724SOL    HW166011  13.220   0.129   8.715
54724SOL    HW266012  13.329   0.227   8.752
54725SOL     OW66013  12.364   5.442  14.251
54725SOL    HW166014  12.271   5.424  14.262
54725SOL    HW266015  12.397   5.367  14.201
54726SOL     OW66016  12.006  11.646   6.543
54726SOL    HW166017  11.980  11.708   6.474
54726SOL    HW266018  11.968  11.682   6.623
54727SOL     OW66019  12.987   2.168   7.418
54727SOL    HW166020  13.042   2.107   7.469
54727SOL    HW266021  12.978   2.125   7.333
54728SOL     OW66022   1.730   2.141   2.460
54728SOL    HW166023   1.715   2.231   2.487
54728SOL    HW266024   1.646   2.097   2.476
54729SOL     OW66025  14.596  11.615  11.217
54729SOL    HW166026  14.672  11.606  11.159
54729SOL    HW266027  14.585  11.709  11.228
54730SOL     OW66028   4.538   7.099  14.743
54730SOL    HW166029   4.534   7.004  14.736
54730SOL    HW266030   4.580   7.116  14.827
54731SOL     OW66031  11.035  12.451   4.245
54731SOL    HW166032  10.993  12.447   4.159
54731SOL    HW266033  10.964  12.438   4.307
54732SOL     OW66034   1.325   4.840   4.558
54732SOL    HW166035   1.273   4.920   4.548
54732SOL    HW266036   1.268   4.781   4.609
54733SOL     OW66037  10.863   1.774   7.362
54733SOL    HW166038  10.924   1.717   7.315
54733SOL    HW266039  10.788   1.719   7.382
54734SOL     OW66040   9.938  11.863   0.000
54734SOL    HW166041   9.886  11.810  14.820
54734SOL    HW266042  10.028  11.854  14.848
54735SOL     OW66043   4.945  14.447   7.402
54735SOL    HW166044   5.017  14.389   7.375
54735SOL    HW266045   4.989  14.523   7.440
54736SOL     OW66046   5.456   6.640   7.359
54736SOL    HW166047   5.510   6.696   7.304
54736SOL    HW266048   5.387   6.608   7.302
54737SOL     OW66049   5.555   6.674   8.467
54737SOL    HW166050   5.530   6.725   8.544
54737SOL    HW266051   5.633   6.718   8.433
54738SOL     OW66052   3.774   8.579  14.040
54738SOL    HW166053   3.815   8.589  13.954
54738SOL    HW266054   3.818   8.644  14.095
54739SOL     OW66055  14.302  11.630   9.855
54739SOL    HW166056  14.276  11.564   9.920
54739SOL    HW266057  14.230  11.630   9.791
54740SOL     OW66058   8.982  11.944  12.499
54740SOL    HW166059   8.983  11.854  12.531
54740SOL    HW266060   9.056  11.949  12.439
54741SOL     OW66061   7.265   2.412   0.244
54741SOL    HW166062   7.194   2.405   0.308
54741SOL    HW266063   7.339   2.370   0.286
54742SOL     OW66064  14.528   5.958   6.487
54742SOL    HW166065  14.601   6.011   6.456
54742SOL    HW266066  14.452   6.016   6.482
54743SOL     OW66067  12.607   8.349  13.493
54743SOL    HW166068  12.611   8.275  13.553
54743SOL    HW266069  12.686   8.341  13.440
54744SOL     OW66070   5.613  13.293   8.397
54744SOL    HW166071   5.523  13.267   8.375
54744SOL    HW266072   5.652  13.213   8.434
54745SOL     OW66073   9.757  14.198  10.589
54745SOL    HW166074   9.773  14.201  10.684
54745SOL    HW266075   9.807  14.273  10.555
54746SOL     OW66076   8.021  11.025   8.039
54746SOL    HW166077   8.043  10.960   7.973
54746SOL    HW266078   7.926  11.037   8.032
54747SOL     OW66079   2.109   2.842   1.143
54747SOL    HW166080   2.129   2.847   1.237
54747SOL    HW266081   2.018   2.870   1.137
54748SOL     OW66082   0.261   4.091   9.527
54748SOL    HW166083   0.330   4.154   9.548
54748SOL    HW266084   0.297   4.006   9.555
54749SOL     OW66085   7.142   2.880  14.245
54749SOL    HW166086   7.102   2.901  14.160
54749SOL    HW266087   7.071   2.837  14.293
54750SOL     OW66088   9.238   4.652  14.101
54750SOL    HW166089   9.170   4.697  14.052
54750SOL    HW266090   9.286   4.722  14.145
54751SOL     OW66091   9.075   7.411  11.280
54751SOL    HW166092   9.128   7.488  11.298
54751SOL    HW266093   9.086   7.395  11.187
54752SOL     OW66094   1.003   3.761   4.802
54752SOL    HW166095   1.066   3.758   4.874
54752SOL    HW266096   0.965   3.849   4.808
54753SOL     OW66097  14.249   1.430   6.692
54753SOL    HW166098  14.159   1.434   6.662
54753SOL    HW266099  14.286   1.354   6.646
54754SOL     OW66100   6.019   3.744  11.788
54754SOL    HW166101   6.012   3.721  11.881
54754SOL    HW266102   6.048   3.664  11.746
54755SOL     OW66103   9.628   1.536   0.609
54755SOL    HW166104   9.566   1.595   0.653
54755SOL    HW266105   9.575   1.461   0.582
54756SOL     OW66106   6.063  11.228  12.254
54756SOL    HW166107   6.055  11.323  12.246
54756SOL    HW266108   6.090  11.214  12.345
54757SOL     OW66109   3.568  12.909  12.951
54757SOL    HW166110   3.554  12.847  12.879
54757SOL    HW266111   3.582  12.853  13.027
54758SOL     OW66112   9.142   9.157  12.826
54758SOL    HW166113   9.157   9.116  12.741
54758SOL    HW266114   9.199   9.234  12.826
54759SOL     OW66115   6.136   4.343   9.377
54759SOL    HW166116   6.118   4.333   9.283
54759SOL    HW266117   6.074   4.284   9.420
54760SOL     OW66118  12.454  11.365  13.570
54760SOL    HW166119  12.420  11.380  13.482
54760SOL    HW266120  12.388  11.309  13.612
54761SOL     OW66121  13.150   6.053   4.261
54761SOL    HW166122  13.233   6.016   4.230
54761SOL    HW266123  13.176   6.130   4.312
54762SOL     OW66124   6.032  12.336   6.121
54762SOL    HW166125   5.959  12.305   6.174
54762SOL    HW266126   6.074  12.257   6.088
54763SOL     OW66127   4.210   0.826   6.415
54763SOL    HW166128   4.165   0.908   6.435
54763SOL    HW266129   4.155   0.758   6.454
54764SOL     OW66130   5.916  13.344   6.292
54764SOL    HW166131   5.864  13.413   6.334
54764SOL    HW266132   5.951  13.293   6.365
54765SOL     OW66133   3.563   1.979  14.293
54765SOL    HW166134   3.623   2.017  14.229
54765SOL    HW266135   3.559   2.043  14.364
54766SOL     OW66136   8.570  11.569   4.252
54766SOL    HW166137   8.515  11.643   4.278
54766SOL    HW266138   8.509  11.495   4.244
54767SOL     OW66139  10.687   5.413   4.186
54767SOL    HW166140  10.709   5.367   4.267
54767SOL    HW266141  10.622   5.357   4.143
54768SOL     OW66142  14.625  14.332   4.685
54768SOL    HW166143  14.543  14.374   4.658
54768SOL    HW266144  14.652  14.381   4.763
54769SOL     OW66145   4.601   2.300   0.605
54769SOL    HW166146   4.564   2.309   0.517
54769SOL    HW266147   4.559   2.222   0.640
54770SOL     OW66148  12.040   9.104  13.637
54770SOL    HW166149  12.102   9.152  13.691
54770SOL    HW266150  12.003   9.169  13.577
54771SOL     OW66151   1.294   0.812   2.377
54771SOL    HW166152   1.365   0.828   2.439
54771SOL    HW266153   1.224   0.772   2.429
54772SOL     OW66154   5.663  12.899   0.117
54772SOL    HW166155   5.604  12.920   0.044
54772SOL    HW266156   5.750  12.896   0.078
54773SOL     OW66157   0.553   5.312  13.094
54773SOL    HW166158   0.501   5.270  13.025
54773SOL    HW266159   0.543   5.254  13.169
54774SOL     OW66160   1.234   8.077  10.099
54774SOL    HW166161   1.224   8.063  10.005
54774SOL    HW266162   1.312   8.028  10.123
54775SOL     OW66163   8.325   8.554   9.131
54775SOL    HW166164   8.409   8.567   9.175
54775SOL    HW266165   8.331   8.606   9.052
54776SOL     OW66166   0.181   5.854  13.718
54776SOL    HW166167   0.128   5.798  13.662
54776SOL    HW266168   0.185   5.808  13.802
54777SOL     OW66169   7.439   3.595   8.519
54777SOL    HW166170   7.395   3.524   8.565
54777SOL    HW266171   7.419   3.581   8.427
54778SOL     OW66172   0.561  13.455  12.020
54778SOL    HW166173   0.590  13.541  12.050
54778SOL    HW266174   0.516  13.417  12.095
54779SOL     OW66175  14.326  10.032   5.709
54779SOL    HW166176  14.356   9.950   5.670
54779SOL    HW266177  14.399  10.059   5.765
54780SOL     OW66178   6.823   2.392  10.895
54780SOL    HW166179   6.815   2.444  10.815
54780SOL    HW266180   6.915   2.365  10.897
54781SOL     OW66181   8.359   5.372   9.773
54781SOL    HW166182   8.325   5.416   9.695
54781SOL    HW266183   8.342   5.434   9.845
54782SOL     OW66184   9.327   8.067   9.763
54782SOL    HW166185   9.285   8.080   9.678
54782SOL    HW266186   9.260   8.091   9.827
54783SOL     OW66187  11.017  11.130   0.490
54783SOL    HW166188  11.067  11.097   0.564
54783SOL    HW266189  11.040  11.223   0.486
54784SOL     OW66190  11.874  12.610   7.403
54784SOL    HW166191  11.937  12.635   7.337
54784SOL    HW266192  11.853  12.692   7.449
54785SOL     OW66193   6.284   4.153  14.163
54785SOL    HW166194   6.288   4.207  14.084
54785SOL    HW266195   6.191   4.145  14.182
54786SOL     OW66196   6.502   7.681   8.287
54786SOL    HW166197   6.586   7.714   8.257
54786SOL    HW266198   6.516   7.655   8.378
54787SOL     OW66199   8.457   8.873   6.363
54787SOL    HW166200   8.508   8.807   6.318
54787SOL    HW266201   8.391   8.824   6.413
54788SOL     OW66202   8.942   5.410   6.849
54788SOL    HW166203   8.957   5.374   6.761
54788SOL    HW266204   8.939   5.505   6.837
54789SOL     OW66205   0.388   4.092   7.134
54789SOL    HW166206   0.350   4.007   7.110
54789SOL    HW266207   0.468   4.098   7.082
54790SOL     OW66208   9.901   4.593   8.888
54790SOL    HW166209   9.921   4.606   8.795
54790SOL    HW266210   9.806   4.600   8.893
54791SOL     OW66211   4.113  11.045   8.058
54791SOL    HW166212   4.204  11.020   8.043
54791SOL    HW266213   4.064  11.000   7.990
54792SOL     OW66214   4.389  12.900   0.262
54792SOL    HW166215   4.432  12.860   0.338
54792SOL    HW266216   4.460  12.940   0.213
54793SOL     OW66217   5.554   2.444  14.266
54793SOL    HW166218   5.621   2.390  14.224
54793SOL    HW266219   5.601   2.521  14.297
54794SOL     OW66220  11.648  12.942  10.227
54794SOL    HW166221  11.667  13.034  10.241
54794SOL    HW266222  11.723  12.909  10.177
54795SOL     OW66223  13.629  13.826  10.308
54795SOL    HW166224  13.724  13.813  10.304
54795SOL    HW266225  13.617  13.919  10.288
54796SOL     OW66226   6.874  14.704   9.003
54796SOL    HW166227   6.796  14.707   8.947
54796SOL    HW266228   6.891  14.795   9.026
54797SOL     OW66229   8.561   0.809   3.574
54797SOL    HW166230   8.527   0.812   3.664
54797SOL    HW266231   8.656   0.808   3.585
54798SOL     OW66232   9.772  10.448   3.129
54798SOL    HW166233   9.678  10.430   3.124
54798SOL    HW266234   9.799  10.407   3.211
54799SOL     OW66235   7.368  12.379   8.574
54799SOL    HW166236   7.334  12.292   8.595
54799SOL    HW266237   7.461  12.375   8.596
54800SOL     OW66238  10.274   6.856   9.486
54800SOL    HW166239  10.217   6.808   9.427
54800SOL    HW266240  10.216   6.916   9.532
54801SOL     OW66241   7.225   5.577   9.303
54801SOL    HW166242   7.306   5.587   9.253
54801SOL    HW266243   7.198   5.667   9.324
54802SOL     OW66244  10.465  12.231  14.726
54802SOL    HW166245  10.416  12.197  14.801
54802SOL    HW266246  10.553  12.195  14.737
54803SOL     OW66247  12.785  10.898  10.969
54803SOL    HW166248  12.787  10.815  10.919
54803SOL    HW266249  12.838  10.958  10.917
54804SOL     OW66250   1.281   3.271   3.349
54804SOL    HW166251   1.374   3.248   3.346
54804SOL    HW266252   1.249   3.229   3.430
54805SOL     OW66253   9.848   3.064   5.756
54805SOL    HW166254   9.934   3.101   5.735
54805SOL    HW266255   9.868   2.983   5.804
54806SOL     OW66256   6.475  11.637   9.604
54806SOL    HW166257   6.413  11.645   9.676
54806SOL    HW266258   6.437  11.692   9.535
54807SOL     OW66259   8.820   5.875   8.682
54807SOL    HW166260   8.836   5.816   8.609
54807SOL    HW266261   8.846   5.961   8.648
54808SOL     OW66262  13.430   0.558   9.840
54808SOL    HW166263  13.346   0.512   9.828
54808SOL    HW266264  13.456   0.538   9.930
54809SOL     OW66265  11.295   9.320  14.617
54809SOL    HW166266  11.350   9.396  14.597
54809SOL    HW266267  11.331   9.249  14.563
54810SOL     OW66268   0.681   5.506   4.750
54810SOL    HW166269   0.755   5.525   4.808
54810SOL    HW266270   0.613   5.472   4.808
54811SOL     OW66271   9.204  12.056   2.761
54811SOL    HW166272   9.225  12.044   2.854
54811SOL    HW266273   9.227  11.972   2.720
54812SOL     OW66274   0.469  11.564   6.657
54812SOL    HW166275   0.387  11.518   6.643
54812SOL    HW266276   0.521  11.504   6.711
54813SOL     OW66277   6.516   4.161   8.859
54813SOL    HW166278   6.499   4.145   8.767
54813SOL    HW266279   6.611   4.148   8.868
54814SOL     OW66280   1.644   1.589   7.435
54814SOL    HW166281   1.720   1.578   7.491
54814SOL    HW266282   1.590   1.655   7.479
54815SOL     OW66283   9.926  12.799   6.243
54815SOL    HW166284   9.940  12.740   6.316
54815SOL    HW266285  10.015  12.817   6.210
54816SOL     OW66286   2.740   1.913  14.238
54816SOL    HW166287   2.816   1.882  14.287
54816SOL    HW266288   2.686   1.835  14.226
54817SOL     OW66289   8.522   0.531   8.008
54817SOL    HW166290   8.477   0.582   7.941
54817SOL    HW266291   8.472   0.547   8.088
54818SOL     OW66292  13.202   8.650   4.322
54818SOL    HW166293  13.280   8.691   4.359
54818SOL    HW266294  13.134   8.717   4.330
54819SOL     OW66295   2.256   2.677   9.343
54819SOL    HW166296   2.193   2.640   9.405
54819SOL    HW266297   2.233   2.769   9.337
54820SOL     OW66298   6.242   6.655  14.138
54820SOL    HW166299   6.232   6.591  14.208
54820SOL    HW266300   6.163   6.709  14.143
54821SOL     OW66301   6.523   1.437  13.585
54821SOL    HW166302   6.518   1.342  13.577
54821SOL    HW266303   6.603   1.461  13.538
54822SOL     OW66304  10.288   1.766   0.956
54822SOL    HW166305  10.375   1.739   0.984
54822SOL    HW266306  10.287   1.861   0.968
54823SOL     OW66307   1.455   3.148  12.973
54823SOL    HW166308   1.535   3.096  12.979
54823SOL    HW266309   1.404   3.105  12.904
54824SOL     OW66310   5.672  11.254   2.781
54824SOL    HW166311   5.633  11.198   2.847
54824SOL    HW266312   5.757  11.279   2.817
54825SOL     OW66313   7.761  10.069   5.140
54825SOL    HW166314   7.774  10.164   5.135
54825SOL    HW266315   7.753  10.051   5.234
54826SOL     OW66316   5.466   6.639   9.744
54826SOL    HW166317   5.480   6.559   9.694
54826SOL    HW266318   5.441   6.704   9.677
54827SOL     OW66319   8.922   7.171   2.626
54827SOL    HW166320   8.929   7.128   2.541
54827SOL    HW266321   8.913   7.264   2.605
54828SOL     OW66322   3.790   0.193  10.421
54828SOL    HW166323   3.836   0.224  10.499
54828SOL    HW266324   3.829   0.108  10.402
54829SOL     OW66325  11.747  10.383   7.784
54829SOL    HW166326  11.748  10.369   7.879
54829SOL    HW266327  11.707  10.469   7.772
54830SOL     OW66328   1.755  11.238   5.077
54830SOL    HW166329   1.817  11.168   5.056
54830SOL    HW266330   1.683  11.225   5.016
54831SOL     OW66331   5.955   3.536   5.940
54831SOL    HW166332   6.002   3.562   6.018
54831SOL    HW266333   5.863   3.532   5.967
54832SOL     OW66334   5.014  11.409   3.845
54832SOL    HW166335   5.071  11.335   3.825
54832SOL    HW266336   5.071  11.473   3.887
54833SOL     OW66337  14.449   6.934   7.419
54833SOL    HW166338  14.363   6.970   7.396
54833SOL    HW266339  14.511   7.004   7.398
54834SOL     OW66340   2.562   4.326   2.062
54834SOL    HW166341   2.587   4.412   2.030
54834SOL    HW266342   2.469   4.317   2.039
54835SOL     OW66343  10.438   7.042   0.872
54835SOL    HW166344  10.349   7.039   0.839
54835SOL    HW266345  10.483   6.970   0.829
54836SOL     OW66346  12.537  11.892  13.272
54836SOL    HW166347  12.458  11.941  13.248
54836SOL    HW266348  12.525  11.872  13.365
54837SOL     OW66349   1.301   8.250   4.469
54837SOL    HW166350   1.330   8.173   4.420
54837SOL    HW266351   1.210   8.233   4.490
54838SOL     OW66352   2.012  11.395   6.643
54838SOL    HW166353   2.068  11.401   6.566
54838SOL    HW266354   2.073  11.378   6.716
54839SOL     OW66355  12.130   2.594   8.028
54839SOL    HW166356  12.225   2.600   8.035
54839SOL    HW266357  12.106   2.664   7.968
54840SOL     OW66358   3.834  14.522   4.476
54840SOL    HW166359   3.856  14.431   4.455
54840SOL    HW266360   3.873  14.537   4.562
54841SOL     OW66361   0.510  11.106  12.058
54841SOL    HW166362   0.415  11.118  12.054
54841SOL    HW266363   0.537  11.091  11.967
54842SOL     OW66364   4.140   9.914   8.239
54842SOL    HW166365   4.065   9.933   8.296
54842SOL    HW266366   4.126   9.971   8.163
54843SOL     OW66367  14.499  10.261  14.188
54843SOL    HW166368  14.496  10.191  14.253
54843SOL    HW266369  14.501  10.342  14.240
54844SOL     OW66370   8.645   1.293  10.183
54844SOL    HW166371   8.703   1.230  10.139
54844SOL    HW266372   8.593   1.332  10.113
54845SOL     OW66373  11.176  11.308   9.155
54845SOL    HW166374  11.177  11.402   9.170
54845SOL    HW266375  11.084  11.283   9.164
54846SOL     OW66376  12.288   4.009  11.851
54846SOL    HW166377  12.233   3.973  11.783
54846SOL    HW266378  12.339   3.935  11.883
54847SOL     OW66379   8.683   6.417  10.213
54847SOL    HW166380   8.664   6.325  10.197
54847SOL    HW266381   8.713   6.420  10.304
54848SOL     OW66382   4.451  13.109  10.410
54848SOL    HW166383   4.522  13.056  10.375
54848SOL    HW266384   4.492  13.164  10.476
54849SOL     OW66385   5.662   7.986  14.423
54849SOL    HW166386   5.608   7.985  14.344
54849SOL    HW266387   5.703   8.073  14.422
54850SOL     OW66388   2.113  11.476  13.019
54850SOL    HW166389   2.064  11.422  12.958
54850SOL    HW266390   2.181  11.418  13.054
54851SOL     OW66391  10.490   5.712  13.505
54851SOL    HW166392  10.552   5.647  13.472
54851SOL    HW266393  10.462   5.760  13.427
54852SOL     OW66394   8.951   4.437  12.820
54852SOL    HW166395   8.970   4.519  12.773
54852SOL    HW266396   8.856   4.440  12.834
54853SOL     OW66397   9.052   3.829   2.171
54853SOL    HW166398   8.980   3.890   2.154
54853SOL    HW266399   9.081   3.850   2.260
54854SOL     OW66400   6.771   8.721  10.501
54854SOL    HW166401   6.773   8.806  10.457
54854SOL    HW266402   6.748   8.659  10.433
54855SOL     OW66403   4.738   4.678   8.535
54855SOL    HW166404   4.742   4.763   8.491
54855SOL    HW266405   4.652   4.643   8.513
54856SOL     OW66406   8.891  13.723   2.543
54856SOL    HW166407   8.867  13.652   2.602
54856SOL    HW266408   8.815  13.782   2.545
54857SOL     OW66409  11.033   0.013   5.862
54857SOL    HW166410  10.990   0.007   5.947
54857SOL    HW266411  10.965  14.869   5.799
54858SOL     OW66412   4.603   5.977   3.301
54858SOL    HW166413   4.693   6.009   3.295
54858SOL    HW266414   4.610   5.894   3.349
54859SOL     OW66415   1.028   7.123   3.225
54859SOL    HW166416   0.936   7.142   3.209
54859SOL    HW266417   1.075   7.196   3.183
54860SOL     OW66418  12.630  11.262  10.423
54860SOL    HW166419  12.686  11.282  10.497
54860SOL    HW266420  12.548  11.309  10.441
54861SOL     OW66421   3.409  12.880   2.204
54861SOL    HW166422   3.426  12.973   2.190
54861SOL    HW266423   3.392  12.845   2.117
54862SOL     OW66424   8.182  10.552  12.832
54862SOL    HW166425   8.200  10.461  12.858
54862SOL    HW266426   8.088  10.554  12.815
54863SOL     OW66427   0.396   2.642  14.101
54863SOL    HW166428   0.357   2.573  14.048
54863SOL    HW266429   0.322   2.696  14.128
54864SOL     OW66430  10.047   5.134  11.401
54864SOL    HW166431  10.021   5.092  11.319
54864SOL    HW266432  10.093   5.066  11.449
54865SOL     OW66433   1.291  14.045   0.734
54865SOL    HW166434   1.365  14.012   0.786
54865SOL    HW266435   1.294  14.140   0.747
54866SOL     OW66436  14.244  13.748  12.023
54866SOL    HW166437  14.168  13.722  12.075
54866SOL    HW266438  14.319  13.715  12.072
54867SOL     OW66439  14.446   3.052   6.491
54867SOL    HW166440  14.364   3.095   6.468
54867SOL    HW266441  14.457   3.069   6.584
54868SOL     OW66442   2.239  14.679  11.065
54868SOL    HW166443   2.190  14.609  11.021
54868SOL    HW266444   2.319  14.637  11.094
54869SOL     OW66445   0.121  11.248   4.695
54869SOL    HW166446   0.161  11.277   4.613
54869SOL    HW266447   0.054  11.314   4.713
54870SOL     OW66448   0.546   7.279   6.182
54870SOL    HW166449   0.531   7.186   6.197
54870SOL    HW266450   0.592   7.309   6.260
54871SOL     OW66451   4.371   8.412   6.647
54871SOL    HW166452   4.403   8.447   6.729
54871SOL    HW266453   4.399   8.321   6.647
54872SOL     OW66454   7.714   8.879  12.165
54872SOL    HW166455   7.788   8.855  12.221
54872SOL    HW266456   7.641   8.889  12.226
54873SOL     OW66457  13.849   9.309   6.758
54873SOL    HW166458  13.889   9.258   6.829
54873SOL    HW266459  13.923   9.336   6.704
54874SOL     OW66460   8.714   0.062   3.393
54874SOL    HW166461   8.625   0.048   3.425
54874SOL    HW266462   8.770   0.017   3.457
54875SOL     OW66463  10.862  10.930   5.187
54875SOL    HW166464  10.773  10.934   5.222
54875SOL    HW266465  10.851  10.935   5.092
54876SOL     OW66466   3.726   4.108   3.980
54876SOL    HW166467   3.657   4.172   3.997
54876SOL    HW266468   3.784   4.150   3.917
54877SOL     OW66469   1.191   2.871   3.418
54877SOL    HW166470   1.237   2.814   3.480
54877SOL    HW266471   1.149   2.937   3.473
54878SOL     OW66472  14.260  11.171  11.991
54878SOL    HW166473  14.172  11.181  12.029
54878SOL    HW266474  14.317  11.156  12.067
54879SOL     OW66475  13.284   8.472   1.044
54879SOL    HW166476  13.196   8.503   1.020
54879SOL    HW266477  13.279   8.460   1.139
54880SOL     OW66478  14.373   2.507   3.022
54880SOL    HW166479  14.287   2.541   3.047
54880SOL    HW266480  14.429   2.584   3.019
54881SOL     OW66481  12.446   6.364   4.401
54881SOL    HW166482  12.378   6.297   4.405
54881SOL    HW266483  12.506   6.334   4.332
54882SOL     OW66484  10.909   4.461   1.940
54882SOL    HW166485  10.905   4.372   1.976
54882SOL    HW266486  10.890   4.518   2.016
54883SOL     OW66487   4.293   8.094  10.182
54883SOL    HW166488   4.372   8.040  10.180
54883SOL    HW266489   4.251   8.079  10.098
54884SOL     OW66490   0.559   4.764  10.961
54884SOL    HW166491   0.585   4.673  10.969
54884SOL    HW266492   0.507   4.781  11.040
54885SOL     OW66493   4.169  12.081  13.425
54885SOL    HW166494   4.177  12.105  13.333
54885SOL    HW266495   4.076  12.090  13.444
54886SOL     OW66496   6.474   5.381   4.106
54886SOL    HW166497   6.567   5.361   4.101
54886SOL    HW266498   6.470   5.474   4.128
54887SOL     OW66499  11.502  13.239  13.551
54887SOL    HW166500  11.557  13.189  13.491
54887SOL    HW266501  11.500  13.327  13.514
54888SOL     OW66502  10.879  14.130   8.201
54888SOL    HW166503  10.813  14.177   8.149
54888SOL    HW266504  10.912  14.063   8.142
54889SOL     OW66505  11.957   8.296   5.267
54889SOL    HW166506  11.917   8.377   5.233
54889SOL    HW266507  11.956   8.307   5.362
54890SOL     OW66508  11.040   3.117   4.939
54890SOL    HW166509  10.951   3.149   4.949
54890SOL    HW266510  11.033   3.048   4.873
54891SOL     OW66511   1.093   0.573  10.892
54891SOL    HW166512   1.165   0.559  10.831
54891SOL    HW266513   1.078   0.667  10.891
54892SOL     OW66514  12.814   4.255  11.025
54892SOL    HW166515  12.910   4.254  11.025
54892SOL    HW266516  12.791   4.333  11.075
54893SOL     OW66517   7.098  11.313  13.668
54893SOL    HW166518   7.168  11.345  13.725
54893SOL    HW266519   7.117  11.220  13.656
54894SOL     OW66520   8.823   1.262   4.891
54894SOL    HW166521   8.852   1.341   4.846
54894SOL    HW266522   8.773   1.293   4.966
54895SOL     OW66523   6.106   1.758   8.965
54895SOL    HW166524   6.187   1.768   8.915
54895SOL    HW266525   6.097   1.663   8.976
54896SOL     OW66526  12.503   3.970   6.930
54896SOL    HW166527  12.435   4.023   6.888
54896SOL    HW266528  12.511   3.893   6.874
54897SOL     OW66529   4.033   2.272   3.604
54897SOL    HW166530   4.106   2.226   3.647
54897SOL    HW266531   3.962   2.207   3.601
54898SOL     OW66532   9.284   5.942   4.500
54898SOL    HW166533   9.336   5.994   4.561
54898SOL    HW266534   9.243   6.006   4.442
54899SOL     OW66535   9.679   8.568  10.989
54899SOL    HW166536   9.604   8.583  10.932
54899SOL    HW266537   9.673   8.636  11.055
54900SOL     OW66538   2.806   5.427  10.241
54900SOL    HW166539   2.884   5.373  10.231
54900SOL    HW266540   2.733   5.364  10.242
54901SOL     OW66541   2.713  10.403   0.371
54901SOL    HW166542   2.643  10.339   0.354
54901SOL    HW266543   2.794  10.357   0.350
54902SOL     OW66544   6.899  12.420   6.988
54902SOL    HW166545   6.944  12.440   6.906
54902SOL    HW266546   6.939  12.478   7.052
54903SOL     OW66547  11.704   5.153   8.010
54903SOL    HW166548  11.756   5.072   8.010
54903SOL    HW266549  11.614   5.123   7.999
54904SOL     OW66550   5.317   5.788   2.926
54904SOL    HW166551   5.322   5.828   2.839
54904SOL    HW266552   5.291   5.860   2.984
54905SOL     OW66553   0.193   2.491  12.959
54905SOL    HW166554   0.265   2.550  12.980
54905SOL    HW266555   0.234   2.412  12.925
54906SOL     OW66556   0.245   1.164   5.696
54906SOL    HW166557   0.194   1.083   5.704
54906SOL    HW266558   0.212   1.204   5.615
54907SOL     OW66559  13.505   8.210   1.125
54907SOL    HW166560  13.448   8.201   1.048
54907SOL    HW266561  13.445   8.212   1.199
54908SOL     OW66562  12.798   0.679  11.746
54908SOL    HW166563  12.870   0.698  11.687
54908SOL    HW266564  12.736   0.627  11.693
54909SOL     OW66565  11.416   5.597   5.181
54909SOL    HW166566  11.474   5.559   5.246
54909SOL    HW266567  11.340   5.539   5.179
54910SOL     OW66568   5.611  12.322   3.292
54910SOL    HW166569   5.668  12.277   3.355
54910SOL    HW266570   5.573  12.394   3.341
54911SOL     OW66571  10.115   3.596   5.989
54911SOL    HW166572  10.059   3.624   6.061
54911SOL    HW266573  10.204   3.618   6.017
54912SOL     OW66574   9.458  13.063   3.161
54912SOL    HW166575   9.516  13.074   3.236
54912SOL    HW266576   9.497  12.991   3.111
54913SOL     OW66577  13.991  10.482   5.172
54913SOL    HW166578  14.083  10.456   5.183
54913SOL    HW266579  13.995  10.555   5.110
54914SOL     OW66580  13.682   9.722   5.252
54914SOL    HW166581  13.623   9.790   5.218
54914SOL    HW266582  13.764   9.768   5.267
54915SOL     OW66583   9.700  12.738  13.305
54915SOL    HW166584   9.617  12.699  13.279
54915SOL    HW266585   9.750  12.744  13.223
54916SOL     OW66586   5.250  10.804  12.032
54916SOL    HW166587   5.180  10.824  11.970
54916SOL    HW266588   5.319  10.866  12.010
54917SOL     OW66589   0.407   1.547   7.132
54917SOL    HW166590   0.324   1.500   7.142
54917SOL    HW266591   0.463   1.487   7.082
54918SOL     OW66592   8.813  13.177  13.798
54918SOL    HW166593   8.871  13.229  13.853
54918SOL    HW266594   8.819  13.217  13.711
54919SOL     OW66595   5.345   9.428   2.077
54919SOL    HW166596   5.342   9.468   1.990
54919SOL    HW266597   5.385   9.342   2.063
54920SOL     OW66598   3.320  10.755   5.929
54920SOL    HW166599   3.386  10.812   5.888
54920SOL    HW266600   3.307  10.684   5.866
54921SOL     OW66601   9.829   8.952   3.340
54921SOL    HW166602   9.769   9.018   3.375
54921SOL    HW266603   9.788   8.869   3.361
54922SOL     OW66604  12.373  12.629   8.147
54922SOL    HW166605  12.436  12.661   8.212
54922SOL    HW266606  12.362  12.537   8.168
54923SOL     OW66607   9.148  12.612  12.262
54923SOL    HW166608   9.087  12.676  12.300
54923SOL    HW266609   9.092  12.539  12.237
54924SOL     OW66610   6.928   1.293   0.544
54924SOL    HW166611   6.998   1.355   0.524
54924SOL    HW266612   6.929   1.286   0.639
54925SOL     OW66613   3.021  10.033  10.492
54925SOL    HW166614   2.975   9.956  10.460
54925SOL    HW266615   3.027  10.091  10.416
54926SOL     OW66616   5.817   8.345   1.145
54926SOL    HW166617   5.890   8.375   1.090
54926SOL    HW266618   5.773   8.278   1.092
54927SOL     OW66619   2.831   8.409   6.086
54927SOL    HW166620   2.832   8.497   6.048
54927SOL    HW266621   2.913   8.369   6.056
54928SOL     OW66622   9.537   1.543   8.562
54928SOL    HW166623   9.625   1.507   8.575
54928SOL    HW266624   9.550   1.617   8.503
54929SOL     OW66625   4.414   3.039   1.745
54929SOL    HW166626   4.388   3.004   1.830
54929SOL    HW266627   4.508   3.023   1.739
54930SOL     OW66628   3.910  14.720   9.658
54930SOL    HW166629   3.940  14.802   9.696
54930SOL    HW266630   3.982  14.659   9.673
54931SOL     OW66631  10.613   4.516   8.341
54931SOL    HW166632  10.606   4.472   8.257
54931SOL    HW266633  10.523   4.524   8.372
54932SOL     OW66634   4.359   1.473   3.438
54932SOL    HW166635   4.440   1.524   3.446
54932SOL    HW266636   4.310   1.493   3.517
54933SOL     OW66637   5.674   7.538  10.404
54933SOL    HW166638   5.700   7.542  10.312
54933SOL    HW266639   5.706   7.619  10.442
54934SOL     OW66640   2.154   9.939   1.499
54934SOL    HW166641   2.213   9.864   1.491
54934SOL    HW266642   2.094   9.915   1.570
54935SOL     OW66643  12.791  12.268  10.608
54935SOL    HW166644  12.811  12.204  10.676
54935SOL    HW266645  12.794  12.218  10.526
54936SOL     OW66646   8.366   0.408  11.439
54936SOL    HW166647   8.389   0.437  11.527
54936SOL    HW266648   8.313   0.479  11.402
54937SOL     OW66649   3.054  12.912   1.566
54937SOL    HW166650   3.050  12.821   1.538
54937SOL    HW266651   3.142  12.941   1.543
54938SOL     OW66652   2.131  11.066   3.115
54938SOL    HW166653   2.199  11.067   3.182
54938SOL    HW266654   2.073  11.139   3.138
54939SOL     OW66655   8.498   5.025   1.732
54939SOL    HW166656   8.524   5.091   1.667
54939SOL    HW266657   8.510   5.069   1.817
54940SOL     OW66658   9.411   4.579   9.478
54940SOL    HW166659   9.354   4.622   9.543
54940SOL    HW266660   9.395   4.486   9.491
54941SOL     OW66661   3.833   9.321   3.137
54941SOL    HW166662   3.793   9.256   3.079
54941SOL    HW266663   3.826   9.404   3.089
54942SOL     OW66664   3.445   3.580   9.155
54942SOL    HW166665   3.434   3.662   9.107
54942SOL    HW266666   3.486   3.521   9.091
54943SOL     OW66667   6.525   9.918  13.486
54943SOL    HW166668   6.456   9.957  13.540
54943SOL    HW266669   6.572   9.861  13.547
54944SOL     OW66670  12.780   3.520   9.517
54944SOL    HW166671  12.844   3.454   9.492
54944SOL    HW266672  12.818   3.563   9.593
54945SOL     OW66673   5.218  10.294   0.809
54945SOL    HW166674   5.125  10.279   0.794
54945SOL    HW266675   5.229  10.281   0.904
54946SOL     OW66676  11.864   9.730  13.140
54946SOL    HW166677  11.932   9.711  13.204
54946SOL    HW266678  11.882   9.819  13.111
54947SOL     OW66679   6.289   3.599   0.983
54947SOL    HW166680   6.289   3.551   1.066
54947SOL    HW266681   6.311   3.533   0.917
54948SOL     OW66682   8.372  11.689   3.161
54948SOL    HW166683   8.413  11.691   3.075
54948SOL    HW266684   8.379  11.779   3.193
54949SOL     OW66685   1.790   7.998   5.152
54949SOL    HW166686   1.714   7.941   5.142
54949SOL    HW266687   1.753   8.086   5.159
54950SOL     OW66688  14.367  14.279  10.904
54950SOL    HW166689  14.441  14.219  10.899
54950SOL    HW266690  14.404  14.361  10.935
54951SOL     OW66691   8.907   1.576   4.278
54951SOL    HW166692   8.826   1.601   4.323
54951SOL    HW266693   8.951   1.659   4.260
54952SOL     OW66694   1.451  12.087   5.589
54952SOL    HW166695   1.463  12.154   5.656
54952SOL    HW266696   1.394  12.022   5.630
54953SOL     OW66697  10.136   0.050   7.585
54953SOL    HW166698  10.227   0.079   7.583
54953SOL    HW266699  10.141  14.835   7.578
54954SOL     OW66700   1.053   7.512  11.372
54954SOL    HW166701   1.086   7.423  11.382
54954SOL    HW266702   1.055   7.548  11.461
54955SOL     OW66703   6.791  10.150  13.759
54955SOL    HW166704   6.793  10.091  13.684
54955SOL    HW266705   6.879  10.144  13.796
54956SOL     OW66706  13.230   5.804   9.705
54956SOL    HW166707  13.170   5.841   9.640
54956SOL    HW266708  13.187   5.822   9.789
54957SOL     OW66709   2.450  13.725   3.456
54957SOL    HW166710   2.414  13.799   3.409
54957SOL    HW266711   2.432  13.744   3.548
54958SOL     OW66712  11.085   3.304   3.202
54958SOL    HW166713  11.139   3.371   3.242
54958SOL    HW266714  11.054   3.250   3.275
54959SOL     OW66715   8.733   2.814  13.909
54959SOL    HW166716   8.797   2.831  13.978
54959SOL    HW266717   8.785   2.807  13.829
54960SOL     OW66718  11.961   6.003   4.966
54960SOL    HW166719  12.006   5.933   5.015
54960SOL    HW266720  12.008   6.083   4.991
54961SOL     OW66721   4.142   0.449  12.245
54961SOL    HW166722   4.134   0.493  12.329
54961SOL    HW266723   4.142   0.356  12.266
54962SOL     OW66724   2.040   0.993   2.204
54962SOL    HW166725   1.962   1.039   2.174
54962SOL    HW266726   2.110   1.058   2.199
54963SOL     OW66727   5.179   2.427  11.730
54963SOL    HW166728   5.250   2.457  11.673
54963SOL    HW266729   5.191   2.332  11.737
54964SOL     OW66730   1.994  14.007   3.098
54964SOL    HW166731   2.001  13.980   3.189
54964SOL    HW266732   1.905  14.042   3.090
54965SOL     OW66733  11.610  11.181   7.048
54965SOL    HW166734  11.694  11.204   7.008
54965SOL    HW266735  11.560  11.263   7.047
54966SOL     OW66736   4.611  14.797   6.212
54966SOL    HW166737   4.615  14.820   6.119
54966SOL    HW266738   4.637  14.877   6.258
54967SOL     OW66739  13.796  14.675   2.299
54967SOL    HW166740  13.739  14.718   2.235
54967SOL    HW266741  13.885  14.688   2.265
54968SOL     OW66742   0.855   8.527  12.462
54968SOL    HW166743   0.876   8.448  12.512
54968SOL    HW266744   0.854   8.597  12.527
54969SOL     OW66745  13.731  13.025   6.756
54969SOL    HW166746  13.812  13.006   6.710
54969SOL    HW266747  13.695  13.102   6.712
54970SOL     OW66748   2.138   4.774  10.807
54970SOL    HW166749   2.073   4.752  10.739
54970SOL    HW266750   2.086   4.788  10.886
54971SOL     OW66751  11.283   3.176   1.258
54971SOL    HW166752  11.243   3.096   1.291
54971SOL    HW266753  11.211   3.221   1.213
54972SOL     OW66754   2.788   0.615   7.170
54972SOL    HW166755   2.834   0.534   7.147
54972SOL    HW266756   2.704   0.608   7.126
54973SOL     OW66757   8.076   3.404   7.059
54973SOL    HW166758   7.981   3.409   7.044
54973SOL    HW266759   8.099   3.491   7.091
54974SOL     OW66760  13.701  10.683   7.470
54974SOL    HW166761  13.711  10.774   7.495
54974SOL    HW266762  13.789  10.646   7.477
54975SOL     OW66763  13.484   8.861   3.985
54975SOL    HW166764  13.574   8.848   4.014
54975SOL    HW266765  13.482   8.951   3.953
54976SOL     OW66766  10.861   8.995   4.537
54976SOL    HW166767  10.807   9.034   4.606
54976SOL    HW266768  10.913   8.928   4.582
54977SOL     OW66769  14.279  14.225   9.396
54977SOL    HW166770  14.332  14.281   9.339
54977SOL    HW266771  14.269  14.277   9.476
54978SOL     OW66772   1.489   5.172   0.650
54978SOL    HW166773   1.457   5.257   0.681
54978SOL    HW266774   1.578   5.166   0.684
54979SOL     OW66775   7.921  14.061   6.227
54979SOL    HW166776   7.972  13.985   6.256
54979SOL    HW266777   7.980  14.135   6.237
54980SOL     OW66778   4.793  11.679   1.028
54980SOL    HW166779   4.747  11.711   1.105
54980SOL    HW266780   4.737  11.705   0.955
54981SOL     OW66781   5.542  12.636  12.391
54981SOL    HW166782   5.471  12.601  12.337
54981SOL    HW266783   5.622  12.610  12.345
54982SOL     OW66784   7.922  14.362  11.532
54982SOL    HW166785   8.003  14.310  11.528
54982SOL    HW266786   7.854  14.299  11.557
54983SOL     OW66787   6.070  13.067   6.056
54983SOL    HW166788   5.987  13.096   6.094
54983SOL    HW266789   6.130  13.060   6.131
54984SOL     OW66790  11.983   5.816   7.138
54984SOL    HW166791  11.900   5.842   7.177
54984SOL    HW266792  11.968   5.727   7.107
54985SOL     OW66793  12.690  10.914  13.825
54985SOL    HW166794  12.620  10.924  13.889
54985SOL    HW266795  12.732  10.831  13.848
54986SOL     OW66796   3.917  13.498   0.004
54986SOL    HW166797   3.839  13.551  14.870
54986SOL    HW266798   3.990  13.556  14.861
54987SOL     OW66799   0.847   7.196  12.714
54987SOL    HW166800   0.929   7.214  12.668
54987SOL    HW266801   0.874   7.164  12.800
54988SOL     OW66802  10.901  14.054   2.940
54988SOL    HW166803  10.900  14.139   2.896
54988SOL    HW266804  10.905  14.075   3.033
54989SOL     OW66805  11.745  13.321   7.248
54989SOL    HW166806  11.734  13.416   7.254
54989SOL    HW266807  11.658  13.288   7.226
54990SOL     OW66808   2.851   7.151   5.966
54990SOL    HW166809   2.848   7.238   6.006
54990SOL    HW266810   2.767   7.111   5.989
54991SOL     OW66811  11.523  14.534   4.654
54991SOL    HW166812  11.435  14.563   4.678
54991SOL    HW266813  11.564  14.612   4.616
54992SOL     OW66814   4.184   7.538   3.539
54992SOL    HW166815   4.242   7.597   3.587
54992SOL    HW266816   4.242   7.467   3.510
54993SOL     OW66817  12.203   7.297   8.215
54993SOL    HW166818  12.125   7.256   8.253
54993SOL    HW266819  12.241   7.348   8.287
54994SOL     OW66820  10.886   6.048  14.818
54994SOL    HW166821  10.797   6.028  14.847
54994SOL    HW266822  10.935   6.064   0.019
54995SOL     OW66823  14.763   3.983   3.212
54995SOL    HW166824  14.849   3.982   3.169
54995SOL    HW266825  14.781   4.010   3.302
54996SOL     OW66826   3.714   5.115   7.680
54996SOL    HW166827   3.740   5.085   7.767
54996SOL    HW266828   3.789   5.095   7.625
54997SOL     OW66829   2.513   3.624   3.091
54997SOL    HW166830   2.556   3.648   3.174
54997SOL    HW266831   2.522   3.702   3.037
54998SOL     OW66832   1.467   7.810   4.002
54998SOL    HW166833   1.484   7.857   3.921
54998SOL    HW266834   1.389   7.758   3.984
54999SOL     OW66835   8.140   3.762   0.992
54999SOL    HW166836   8.177   3.715   1.067
54999SOL    HW266837   8.193   3.733   0.917
55000SOL     OW66838   1.137  12.183  10.327
55000SOL    HW166839   1.221  12.220  10.299
55000SOL    HW266840   1.079  12.258  10.337
55001SOL     OW66841   3.146   6.578   0.123
55001SOL    HW166842   3.171   6.511   0.059
55001SOL    HW266843   3.151   6.534   0.208
55002SOL     OW66844  13.220  10.213  12.340
55002SOL    HW166845  13.211  10.195  12.246
55002SOL    HW266846  13.225  10.308  12.346
55003SOL     OW66847   6.279   4.075   3.234
55003SOL    HW166848   6.203   4.069   3.293
55003SOL    HW266849   6.348   4.114   3.288
55004SOL     OW66850   9.624   0.954  14.786
55004SOL    HW166851   9.582   0.870  14.767
55004SOL    HW266852   9.608   0.969  14.879
55005SOL     OW66853   4.992   5.692   4.410
55005SOL    HW166854   4.987   5.647   4.326
55005SOL    HW266855   4.905   5.731   4.422
55006SOL     OW66856  12.101   2.333  14.724
55006SOL    HW166857  12.109   2.428  14.719
55006SOL    HW266858  12.125   2.302  14.636
55007SOL     OW66859  10.111   4.649   6.149
55007SOL    HW166860  10.191   4.632   6.100
55007SOL    HW266861  10.041   4.646   6.083
55008SOL     OW66862   5.153   3.851   0.414
55008SOL    HW166863   5.127   3.825   0.326
55008SOL    HW266864   5.071   3.859   0.463
55009SOL     OW66865   2.922  13.241   0.422
55009SOL    HW166866   2.978  13.294   0.479
55009SOL    HW266867   2.965  13.243   0.337
55010SOL     OW66868   1.441   9.295  14.238
55010SOL    HW166869   1.484   9.332  14.161
55010SOL    HW266870   1.451   9.362  14.306
55011SOL     OW66871   5.126   6.696   2.758
55011SOL    HW166872   5.058   6.761   2.773
55011SOL    HW266873   5.136   6.652   2.843
55012SOL     OW66874   3.735   6.906   7.020
55012SOL    HW166875   3.680   6.828   7.032
55012SOL    HW266876   3.726   6.954   7.103
55013SOL     OW66877  12.196   1.783  13.615
55013SOL    HW166878  12.205   1.877  13.633
55013SOL    HW266879  12.120   1.757  13.668
55014SOL     OW66880  13.893  14.043  11.911
55014SOL    HW166881  13.986  14.023  11.906
55014SOL    HW266882  13.854  13.965  11.951
55015SOL     OW66883   5.717   6.541   7.234
55015SOL    HW166884   5.737   6.545   7.328
55015SOL    HW266885   5.691   6.630   7.211
55016SOL     OW66886  11.050   6.285   2.857
55016SOL    HW166887  11.132   6.243   2.884
55016SOL    HW266888  11.030   6.246   2.772
55017SOL     OW66889  14.196  10.509   1.526
55017SOL    HW166890  14.149  10.569   1.468
55017SOL    HW266891  14.284  10.503   1.487
55018SOL     OW66892   6.768   1.922  14.645
55018SOL    HW166893   6.803   1.837  14.673
55018SOL    HW266894   6.686   1.901  14.601
55019SOL     OW66895   4.434   0.050   6.446
55019SOL    HW166896   4.385   0.126   6.417
55019SOL    HW266897   4.525   0.080   6.448
55020SOL     OW66898  13.054   6.471   4.609
55020SOL    HW166899  12.985   6.537   4.602
55020SOL    HW266900  13.059   6.451   4.703
55021SOL     OW66901   6.909   5.988  14.457
55021SOL    HW166902   6.943   5.929  14.524
55021SOL    HW266903   6.881   6.066  14.506
55022SOL     OW66904   8.440   2.655   2.467
55022SOL    HW166905   8.419   2.610   2.385
55022SOL    HW266906   8.535   2.642   2.478
55023SOL     OW66907   0.468   0.941  12.157
55023SOL    HW166908   0.507   0.858  12.130
55023SOL    HW266909   0.512   1.007  12.103
55024SOL     OW66910  10.757   3.141  13.982
55024SOL    HW166911  10.794   3.076  13.923
55024SOL    HW266912  10.713   3.204  13.925
55025SOL     OW66913  14.722   0.645  12.197
55025SOL    HW166914  14.712   0.739  12.182
55025SOL    HW266915  14.785   0.617  12.131
55026SOL     OW66916   8.454  12.334   6.338
55026SOL    HW166917   8.480  12.379   6.258
55026SOL    HW266918   8.505  12.253   6.337
55027SOL     OW66919  13.087  14.807   8.516
55027SOL    HW166920  13.111  14.749   8.588
55027SOL    HW266921  13.079   0.014   8.557
55028SOL     OW66922  10.934   6.441  10.234
55028SOL    HW166923  10.950   6.533  10.258
55028SOL    HW266924  10.885   6.445  10.152
55029SOL     OW66925   4.366  11.407   6.272
55029SOL    HW166926   4.430  11.340   6.250
55029SOL    HW266927   4.284  11.377   6.233
55030SOL     OW66928   4.599   4.497   8.158
55030SOL    HW166929   4.693   4.515   8.155
55030SOL    HW266930   4.558   4.581   8.136
55031SOL     OW66931   8.970   7.068  14.112
55031SOL    HW166932   9.059   7.045  14.083
55031SOL    HW266933   8.984   7.119  14.192
55032SOL     OW66934   5.933  12.419   3.941
55032SOL    HW166935   6.003  12.455   3.886
55032SOL    HW266936   5.916  12.332   3.905
55033SOL     OW66937   3.490   3.050  14.040
55033SOL    HW166938   3.506   2.988  13.969
55033SOL    HW266939   3.574   3.096  14.051
55034SOL     OW66940   1.883  13.613  12.443
55034SOL    HW166941   1.860  13.590  12.353
55034SOL    HW266942   1.801  13.643  12.481
55035SOL     OW66943  12.246   8.594   9.793
55035SOL    HW166944  12.167   8.549   9.763
55035SOL    HW266945  12.276   8.644   9.717
55036SOL     OW66946   1.402   3.937  12.922
55036SOL    HW166947   1.388   4.032  12.930
55036SOL    HW266948   1.447   3.927  12.839
55037SOL     OW66949  12.099  10.905   2.755
55037SOL    HW166950  12.151  10.946   2.824
55037SOL    HW266951  12.107  10.965   2.681
55038SOL     OW66952   6.406   6.766   5.136
55038SOL    HW166953   6.380   6.857   5.127
55038SOL    HW266954   6.325   6.720   5.156
55039SOL     OW66955   4.711   6.809   6.110
55039SOL    HW166956   4.697   6.898   6.142
55039SOL    HW266957   4.803   6.790   6.131
55040SOL     OW66958   0.770  14.358   6.156
55040SOL    HW166959   0.768  14.273   6.110
55040SOL    HW266960   0.818  14.340   6.237
55041SOL     OW66961  13.883   4.256   5.220
55041SOL    HW166962  13.974   4.238   5.243
55041SOL    HW266963  13.855   4.178   5.172
55042SOL     OW66964   4.740   6.393   9.646
55042SOL    HW166965   4.771   6.483   9.647
55042SOL    HW266966   4.652   6.398   9.683
55043SOL     OW66967  13.726   0.873   0.854
55043SOL    HW166968  13.669   0.866   0.930
55043SOL    HW266969  13.712   0.792   0.805
55044SOL     OW66970  14.373  10.433   3.073
55044SOL    HW166971  14.388  10.462   2.983
55044SOL    HW266972  14.459  10.440   3.115
55045SOL     OW66973  12.765   1.710  13.607
55045SOL    HW166974  12.730   1.686  13.521
55045SOL    HW266975  12.780   1.626  13.651
55046SOL     OW66976  11.604  13.769  12.058
55046SOL    HW166977  11.693  13.751  12.029
55046SOL    HW266978  11.548  13.715  12.001
55047SOL     OW66979   5.004   1.982  14.080
55047SOL    HW166980   5.088   2.013  14.113
55047SOL    HW266981   5.003   2.010  13.988
55048SOL     OW66982  11.330   6.021   7.736
55048SOL    HW166983  11.367   6.012   7.648
55048SOL    HW266984  11.301   5.933   7.759
55049SOL     OW66985   3.148   8.125  14.795
55049SOL    HW166986   3.152   8.031  14.812
55049SOL    HW266987   3.177   8.166  14.877
55050SOL     OW66988   8.873  12.644   2.067
55050SOL    HW166989   8.940  12.578   2.088
55050SOL    HW266990   8.825  12.656   2.148
55051SOL     OW66991   4.716   2.879  13.404
55051SOL    HW166992   4.736   2.887  13.497
55051SOL    HW266993   4.794   2.910  13.360
55052SOL     OW66994   1.123   4.327   6.309
55052SOL    HW166995   1.080   4.247   6.340
55052SOL    HW266996   1.077   4.349   6.228
55053SOL     OW66997  14.429  10.494   2.202
55053SOL    HW166998  14.445  10.401   2.188
55053SOL    HW266999  14.471  10.536   2.126
55054SOL     OW67000   5.632   0.733   0.797
55054SOL    HW167001   5.575   0.807   0.775
55054SOL    HW267002   5.575   0.657   0.788
55055SOL     OW67003   3.805   0.333   3.791
55055SOL    HW167004   3.860   0.275   3.738
55055SOL    HW267005   3.806   0.417   3.744
55056SOL     OW67006  13.340   3.099   3.684
55056SOL    HW167007  13.263   3.047   3.706
55056SOL    HW267008  13.395   3.094   3.763
55057SOL     OW67009  12.799  14.094   2.778
55057SOL    HW167010  12.847  14.163   2.732
55057SOL    HW267011  12.777  14.031   2.710
55058SOL     OW67012  11.431   9.036  14.757
55058SOL    HW167013  11.470   9.063  14.674
55058SOL    HW267014  11.471   9.094  14.822
55059SOL     OW67015   0.460   3.325   8.404
55059SOL    HW167016   0.494   3.414   8.396
55059SOL    HW267017   0.502   3.290   8.483
55060SOL     OW67018   9.060   0.511   0.192
55060SOL    HW167019   9.155   0.499   0.198
55060SOL    HW267020   9.027   0.481   0.277
55061SOL     OW67021   6.396   3.111   8.944
55061SOL    HW167022   6.333   3.081   9.010
55061SOL    HW267023   6.430   3.031   8.905
55062SOL     OW67024   6.629   2.405   0.393
55062SOL    HW167025   6.552   2.396   0.449
55062SOL    HW267026   6.593   2.413   0.304
55063SOL     OW67027  13.563   2.379  10.870
55063SOL    HW167028  13.476   2.339  10.871
55063SOL    HW267029  13.610   2.335  10.941
55064SOL     OW67030  13.439   1.768   8.552
55064SOL    HW167031  13.446   1.828   8.478
55064SOL    HW267032  13.509   1.704   8.538
55065SOL     OW67033   4.552  12.212   5.205
55065SOL    HW167034   4.463  12.248   5.201
55065SOL    HW267035   4.544  12.125   5.166
55066SOL     OW67036  12.640   1.999  14.495
55066SOL    HW167037  12.565   2.011  14.437
55066SOL    HW267038  12.676   2.087  14.506
55067SOL     OW67039   6.299   5.603   7.868
55067SOL    HW167040   6.276   5.586   7.776
55067SOL    HW267041   6.286   5.697   7.879
55068SOL     OW67042   3.366   0.251  12.155
55068SOL    HW167043   3.446   0.210  12.123
55068SOL    HW267044   3.301   0.181  12.154
55069SOL     OW67045   7.722   0.293   4.983
55069SOL    HW167046   7.772   0.267   4.906
55069SOL    HW267047   7.641   0.242   4.977
55070SOL     OW67048  12.803   6.350   3.001
55070SOL    HW167049  12.893   6.381   3.014
55070SOL    HW267050  12.749   6.412   3.050
55071SOL     OW67051   8.044   0.522  11.493
55071SOL    HW167052   8.065   0.586  11.425
55071SOL    HW267053   7.985   0.568  11.552
55072SOL     OW67054  11.985   0.319   6.682
55072SOL    HW167055  11.970   0.273   6.599
55072SOL    HW267056  12.023   0.403   6.656
55073SOL     OW67057   7.962   1.461   1.995
55073SOL    HW167058   8.025   1.533   2.000
55073SOL    HW267059   7.967   1.433   1.903
55074SOL     OW67060  10.785   4.769   4.293
55074SOL    HW167061  10.725   4.696   4.278
55074SOL    HW267062  10.854   4.757   4.228
55075SOL     OW67063   6.534  11.030  14.055
55075SOL    HW167064   6.514  10.937  14.071
55075SOL    HW267065   6.448  11.072  14.051
55076SOL     OW67066   2.365  10.853  11.016
55076SOL    HW167067   2.401  10.887  11.098
55076SOL    HW267068   2.410  10.904  10.948
55077SOL     OW67069  13.302  10.496   7.472
55077SOL    HW167070  13.233  10.465   7.413
55077SOL    HW267071  13.326  10.420   7.524
55078SOL     OW67072  14.507  12.746   1.716
55078SOL    HW167073  14.508  12.659   1.755
55078SOL    HW267074  14.462  12.735   1.633
55079SOL     OW67075   2.521  12.898   9.331
55079SOL    HW167076   2.565  12.900   9.246
55079SOL    HW267077   2.588  12.866   9.392
55080SOL     OW67078  11.868  11.269  10.729
55080SOL    HW167079  11.860  11.178  10.758
55080SOL    HW267080  11.794  11.314  10.770
55081SOL     OW67081   2.292   6.069   6.395
55081SOL    HW167082   2.368   6.064   6.452
55081SOL    HW267083   2.253   6.155   6.414
55082SOL     OW67084  10.380   6.694   0.048
55082SOL    HW167085  10.331   6.655  14.855
55082SOL    HW267086  10.434   6.761   0.007
55083SOL     OW67087   0.075  11.846  12.010
55083SOL    HW167088   0.155  11.855  11.959
55083SOL    HW267089   0.006  11.879  11.951
55084SOL     OW67090  10.479   4.457  11.730
55084SOL    HW167091  10.501   4.375  11.775
55084SOL    HW267092  10.434   4.509  11.797
55085SOL     OW67093  14.874  11.424   8.183
55085SOL    HW167094  14.861  11.350   8.123
55085SOL    HW267095  14.823  11.495   8.145
55086SOL     OW67096   6.062   3.214  14.625
55086SOL    HW167097   6.084   3.306  14.610
55086SOL    HW267098   6.019   3.186  14.544
55087SOL     OW67099   1.385   3.700   4.090
55087SOL    HW167100   1.460   3.644   4.109
55087SOL    HW267101   1.372   3.690   3.995
55088SOL     OW67102   9.876   4.369  10.331
55088SOL    HW167103   9.954   4.339  10.377
55088SOL    HW267104   9.805   4.361  10.394
55089SOL     OW67105   4.290  10.282   0.755
55089SOL    HW167106   4.345  10.297   0.678
55089SOL    HW267107   4.209  10.330   0.737
55090SOL     OW67108   5.182   7.971   2.640
55090SOL    HW167109   5.115   8.038   2.659
55090SOL    HW267110   5.133   7.899   2.601
55091SOL     OW67111  14.662  10.721   0.330
55091SOL    HW167112  14.686  10.761   0.247
55091SOL    HW267113  14.630  10.793   0.384
55092SOL     OW67114   7.163   1.375   3.709
55092SOL    HW167115   7.192   1.330   3.788
55092SOL    HW267116   7.203   1.461   3.714
55093SOL     OW67117   5.370  14.665   3.432
55093SOL    HW167118   5.437  14.622   3.484
55093SOL    HW267119   5.350  14.603   3.361
55094SOL     OW67120   0.240   3.841  11.372
55094SOL    HW167121   0.286   3.762  11.342
55094SOL    HW267122   0.280   3.862  11.456
55095SOL     OW67123   8.557   1.916   8.903
55095SOL    HW167124   8.464   1.933   8.917
55095SOL    HW267125   8.575   1.838   8.955
55096SOL     OW67126   7.968   1.852  12.813
55096SOL    HW167127   7.958   1.762  12.843
55096SOL    HW267128   7.941   1.906  12.887
55097SOL     OW67129   0.477   5.435   6.307
55097SOL    HW167130   0.414   5.438   6.379
55097SOL    HW267131   0.432   5.478   6.234
55098SOL     OW67132  11.083   3.761   0.202
55098SOL    HW167133  11.165   3.770   0.250
55098SOL    HW267134  11.106   3.714   0.122
55099SOL     OW67135   2.398   5.325   8.324
55099SOL    HW167136   2.340   5.368   8.387
55099SOL    HW267137   2.480   5.313   8.372
55100SOL     OW67138  13.607   5.743   9.129
55100SOL    HW167139  13.577   5.653   9.142
55100SOL    HW267140  13.613   5.779   9.217
55101SOL     OW67141   0.183   3.012   4.840
55101SOL    HW167142   0.099   2.976   4.810
55101SOL    HW267143   0.247   2.946   4.816
55102SOL     OW67144   9.832  12.637  10.013
55102SOL    HW167145   9.789  12.717  10.045
55102SOL    HW267146   9.826  12.576  10.086
55103SOL     OW67147   2.786  12.173   4.390
55103SOL    HW167148   2.844  12.097   4.383
55103SOL    HW267149   2.792  12.215   4.304
55104SOL     OW67150   8.345   7.482   4.511
55104SOL    HW167151   8.329   7.572   4.481
55104SOL    HW267152   8.311   7.480   4.600
55105SOL     OW67153   2.304   8.309   7.140
55105SOL    HW167154   2.320   8.403   7.134
55105SOL    HW267155   2.391   8.270   7.144
55106SOL     OW67156  14.659   8.699   7.202
55106SOL    HW167157  14.567   8.726   7.207
55106SOL    HW267158  14.675   8.689   7.108
55107SOL     OW67159  11.322  12.421  14.168
55107SOL    HW167160  11.408  12.421  14.126
55107SOL    HW267161  11.331  12.481  14.242
55108SOL     OW67162   5.834   8.705  14.527
55108SOL    HW167163   5.902   8.653  14.570
55108SOL    HW267164   5.862   8.709  14.435
55109SOL     OW67165   7.810  11.038   9.026
55109SOL    HW167166   7.790  11.106   8.962
55109SOL    HW267167   7.899  11.057   9.055
55110SOL     OW67168   7.768  10.383   1.621
55110SOL    HW167169   7.838  10.448   1.632
55110SOL    HW267170   7.790  10.337   1.540
55111SOL     OW67171   3.364   3.682  12.973
55111SOL    HW167172   3.415   3.607  12.941
55111SOL    HW267173   3.350   3.662  13.065
55112SOL     OW67174   9.202  13.800   7.832
55112SOL    HW167175   9.216  13.707   7.814
55112SOL    HW267176   9.108  13.814   7.816
55113SOL     OW67177   1.494   2.457   7.270
55113SOL    HW167178   1.460   2.376   7.232
55113SOL    HW267179   1.541   2.499   7.198
55114SOL     OW67180   6.990   8.653   3.827
55114SOL    HW167181   7.016   8.588   3.762
55114SOL    HW267182   7.059   8.719   3.823
55115SOL     OW67183   1.433   6.466   5.645
55115SOL    HW167184   1.526   6.467   5.622
55115SOL    HW267185   1.430   6.418   5.727
55116SOL     OW67186   9.512   8.114   8.232
55116SOL    HW167187   9.495   8.019   8.235
55116SOL    HW267188   9.428   8.153   8.207
55117SOL     OW67189   9.214  13.899  14.816
55117SOL    HW167190   9.137  13.871  14.766
55117SOL    HW267191   9.217  13.994  14.804
55118SOL     OW67192   2.164   5.763   7.340
55118SOL    HW167193   2.118   5.719   7.412
55118SOL    HW267194   2.134   5.854   7.345
55119SOL     OW67195   4.365   9.410   4.015
55119SOL    HW167196   4.426   9.345   4.049
55119SOL    HW267197   4.367   9.481   4.080
55120SOL     OW67198   4.053  10.704  13.909
55120SOL    HW167199   3.976  10.664  13.950
55120SOL    HW267200   4.062  10.659  13.826
55121SOL     OW67201   0.635  13.410   6.645
55121SOL    HW167202   0.711  13.352   6.637
55121SOL    HW267203   0.669  13.497   6.626
55122SOL     OW67204  13.203   1.772  11.447
55122SOL    HW167205  13.251   1.830  11.388
55122SOL    HW267206  13.199   1.820  11.530
55123SOL     OW67207   4.572  12.966  11.486
55123SOL    HW167208   4.577  12.918  11.403
55123SOL    HW267209   4.635  13.037  11.477
55124SOL     OW67210  12.856   6.855   5.924
55124SOL    HW167211  12.932   6.825   5.973
55124SOL    HW267212  12.785   6.796   5.952
55125SOL     OW67213   2.847   3.686   9.498
55125SOL    HW167214   2.835   3.669   9.592
55125SOL    HW267215   2.771   3.644   9.456
55126SOL     OW67216   5.336  11.133   8.781
55126SOL    HW167217   5.430  11.139   8.798
55126SOL    HW267218   5.305  11.067   8.843
55127SOL     OW67219  13.809  13.401   8.488
55127SOL    HW167220  13.890  13.450   8.495
55127SOL    HW267221  13.831  13.313   8.521
55128SOL     OW67222   7.994  11.337   4.055
55128SOL    HW167223   8.017  11.363   4.144
55128SOL    HW267224   7.912  11.384   4.037
55129SOL     OW67225   9.643   8.074  10.558
55129SOL    HW167226   9.556   8.111  10.572
55129SOL    HW267227   9.658   8.021  10.637
55130SOL     OW67228   2.535   9.764   3.325
55130SOL    HW167229   2.538   9.789   3.417
55130SOL    HW267230   2.535   9.668   3.326
55131SOL     OW67231  10.139   4.645   4.760
55131SOL    HW167232  10.149   4.592   4.839
55131SOL    HW267233  10.229   4.662   4.731
55132SOL     OW67234  13.613  11.544   9.602
55132SOL    HW167235  13.661  11.465   9.625
55132SOL    HW267236  13.582  11.579   9.685
55133SOL     OW67237   6.992   8.582  10.976
55133SOL    HW167238   6.907   8.566  10.936
55133SOL    HW267239   6.975   8.581  11.070
55134SOL     OW67240   5.074  14.155   4.712
55134SOL    HW167241   4.997  14.144   4.767
55134SOL    HW267242   5.120  14.230   4.749
55135SOL     OW67243  11.768   5.219  11.661
55135SOL    HW167244  11.782   5.313  11.670
55135SOL    HW267245  11.822   5.180  11.730
55136SOL     OW67246  10.480   1.460   3.939
55136SOL    HW167247  10.489   1.484   4.031
55136SOL    HW267248  10.406   1.400   3.937
55137SOL     OW67249   8.977  12.161   8.644
55137SOL    HW167250   8.953  12.157   8.552
55137SOL    HW267251   9.049  12.224   8.648
55138SOL     OW67252  12.617  11.793  12.844
55138SOL    HW167253  12.522  11.804  12.851
55138SOL    HW267254  12.650  11.818  12.931
55139SOL     OW67255   9.608   4.646   4.999
55139SOL    HW167256   9.584   4.738   5.010
55139SOL    HW267257   9.696   4.640   5.036
55140SOL     OW67258   1.288   0.625  10.649
55140SOL    HW167259   1.337   0.574  10.585
55140SOL    HW267260   1.221   0.670  10.598
55141SOL     OW67261   6.690  11.117  10.536
55141SOL    HW167262   6.618  11.087  10.479
55141SOL    HW267263   6.650  11.182  10.593
55142SOL     OW67264   6.980   7.323  14.355
55142SOL    HW167265   6.908   7.302  14.296
55142SOL    HW267266   7.001   7.240  14.398
55143SOL     OW67267   7.325   3.715   5.702
55143SOL    HW167268   7.330   3.803   5.667
55143SOL    HW267269   7.241   3.681   5.670
55144SOL     OW67270   9.532  10.940   8.687
55144SOL    HW167271   9.457  10.897   8.647
55144SOL    HW267272   9.497  11.022   8.723
55145SOL     OW67273   2.420  14.749   4.555
55145SOL    HW167274   2.440  14.836   4.520
55145SOL    HW267275   2.499  14.724   4.603
55146SOL     OW67276   6.587  11.754  13.549
55146SOL    HW167277   6.530  11.703  13.492
55146SOL    HW267278   6.536  11.832  13.572
55147SOL     OW67279   7.730  10.198   0.763
55147SOL    HW167280   7.706  10.221   0.852
55147SOL    HW267281   7.738  10.282   0.717
55148SOL     OW67282   8.669  10.440  12.274
55148SOL    HW167283   8.666  10.501  12.348
55148SOL    HW267284   8.596  10.467  12.218
55149SOL     OW67285   5.691   6.594   3.141
55149SOL    HW167286   5.779   6.565   3.164
55149SOL    HW267287   5.683   6.680   3.180
55150SOL     OW67288   3.891   6.613   8.429
55150SOL    HW167289   3.864   6.536   8.381
55150SOL    HW267290   3.820   6.629   8.491
55151SOL     OW67291  14.412   7.976  11.039
55151SOL    HW167292  14.348   7.945  11.104
55151SOL    HW267293  14.377   7.945  10.955
55152SOL     OW67294   4.831  12.864   8.520
55152SOL    HW167295   4.924  12.884   8.529
55152SOL    HW267296   4.816  12.791   8.581
55153SOL     OW67297   1.537   3.267  13.346
55153SOL    HW167298   1.624   3.301  13.368
55153SOL    HW267299   1.554   3.189  13.293
55154SOL     OW67300  13.516   5.358   9.973
55154SOL    HW167301  13.424   5.357   9.948
55154SOL    HW267302  13.516   5.385  10.065
55155SOL     OW67303   3.890   4.838  14.185
55155SOL    HW167304   3.804   4.800  14.200
55155SOL    HW267305   3.952   4.767  14.203
55156SOL     OW67306   6.681   8.358   8.835
55156SOL    HW167307   6.738   8.412   8.890
55156SOL    HW267308   6.625   8.311   8.897
55157SOL     OW67309  10.346  13.101  12.934
55157SOL    HW167310  10.440  13.091  12.921
55157SOL    HW267311  10.336  13.190  12.969
55158SOL     OW67312  11.996   2.760   6.534
55158SOL    HW167313  12.071   2.815   6.556
55158SOL    HW267314  11.937   2.818   6.486
55159SOL     OW67315   7.998   3.076   3.925
55159SOL    HW167316   7.964   3.159   3.892
55159SOL    HW267317   8.053   3.042   3.854
55160SOL     OW67318   4.604   1.557   8.800
55160SOL    HW167319   4.560   1.642   8.802
55160SOL    HW267320   4.540   1.496   8.839
55161SOL     OW67321   5.625   4.431  10.309
55161SOL    HW167322   5.540   4.427  10.353
55161SOL    HW267323   5.645   4.525  10.306
55162SOL     OW67324  12.279   3.838  14.718
55162SOL    HW167325  12.228   3.757  14.707
55162SOL    HW267326  12.246   3.897  14.650
55163SOL     OW67327   8.720   7.631   6.972
55163SOL    HW167328   8.676   7.677   6.900
55163SOL    HW267329   8.707   7.538   6.951
55164SOL     OW67330  14.410  13.467   6.768
55164SOL    HW167331  14.477  13.531   6.742
55164SOL    HW267332  14.457  13.385   6.778
55165SOL     OW67333   2.221   8.862  10.978
55165SOL    HW167334   2.177   8.922  10.917
55165SOL    HW267335   2.241   8.917  11.054
55166SOL     OW67336  14.071  10.160   6.203
55166SOL    HW167337  14.047  10.252   6.203
55166SOL    HW267338  14.140  10.153   6.137
55167SOL     OW67339   7.985   5.291  10.701
55167SOL    HW167340   7.974   5.380  10.734
55167SOL    HW267341   7.896   5.259  10.688
55168SOL     OW67342  14.662   1.090   0.499
55168SOL    HW167343  14.700   1.132   0.422
55168SOL    HW267344  14.569   1.079   0.476
55169SOL     OW67345   0.965  14.840   6.803
55169SOL    HW167346   1.039  14.852   6.863
55169SOL    HW267347   0.937  14.749   6.818
55170SOL     OW67348   3.708   6.139   1.548
55170SOL    HW167349   3.789   6.153   1.597
55170SOL    HW267350   3.660   6.222   1.556
55171SOL     OW67351  13.789   4.038   5.065
55171SOL    HW167352  13.769   4.027   4.972
55171SOL    HW267353  13.846   3.964   5.086
55172SOL     OW67354  14.647   0.517   8.477
55172SOL    HW167355  14.689   0.476   8.402
55172SOL    HW267356  14.704   0.591   8.499
55173SOL     OW67357  13.147   8.448  11.578
55173SOL    HW167358  13.070   8.406  11.541
55173SOL    HW267359  13.169   8.393  11.654
55174SOL     OW67360  11.989   9.616   1.475
55174SOL    HW167361  11.897   9.634   1.454
55174SOL    HW267362  12.009   9.674   1.548
55175SOL     OW67363  12.195   6.448   4.397
55175SOL    HW167364  12.176   6.404   4.314
55175SOL    HW267365  12.291   6.449   4.403
55176SOL     OW67366   0.425   8.527   8.491
55176SOL    HW167367   0.445   8.565   8.577
55176SOL    HW267368   0.341   8.567   8.467
55177SOL     OW67369   1.355  12.487   0.905
55177SOL    HW167370   1.278  12.530   0.943
55177SOL    HW267371   1.319  12.415   0.854
55178SOL     OW67372   1.831  11.906   3.071
55178SOL    HW167373   1.849  11.997   3.046
55178SOL    HW267374   1.866  11.854   2.999
55179SOL     OW67375   1.205   5.394   8.235
55179SOL    HW167376   1.156   5.325   8.190
55179SOL    HW267377   1.137   5.455   8.264
55180SOL     OW67378   0.056  11.210   3.803
55180SOL    HW167379  14.863  11.248   3.851
55180SOL    HW267380   0.129  11.209   3.866
55181SOL     OW67381   8.628   4.796  14.330
55181SOL    HW167382   8.579   4.727  14.375
55181SOL    HW267383   8.720   4.772  14.342
55182SOL     OW67384   9.195   8.893   3.924
55182SOL    HW167385   9.200   8.973   3.872
55182SOL    HW267386   9.269   8.899   3.985
55183SOL     OW67387   7.558   1.343  12.332
55183SOL    HW167388   7.500   1.418  12.345
55183SOL    HW267389   7.577   1.312  12.420
55184SOL     OW67390   9.658   6.325   0.617
55184SOL    HW167391   9.710   6.314   0.697
55184SOL    HW267392   9.722   6.320   0.547
55185SOL     OW67393  12.137   7.194   6.299
55185SOL    HW167394  12.207   7.243   6.342
55185SOL    HW267395  12.168   7.183   6.209
55186SOL     OW67396  10.744  13.628  13.052
55186SOL    HW167397  10.812  13.578  13.008
55186SOL    HW267398  10.679  13.646  12.984
55187SOL     OW67399   4.740   2.945   1.363
55187SOL    HW167400   4.761   3.015   1.425
55187SOL    HW267401   4.826   2.911   1.336
55188SOL     OW67402   1.996   3.045   0.098
55188SOL    HW167403   2.060   2.999   0.153
55188SOL    HW267404   1.993   2.995   0.017
55189SOL     OW67405   0.536   7.917  13.941
55189SOL    HW167406   0.460   7.872  13.905
55189SOL    HW267407   0.611   7.863  13.912
55190SOL     OW67408   8.340   0.849   3.182
55190SOL    HW167409   8.399   0.921   3.207
55190SOL    HW267410   8.269   0.852   3.246
55191SOL     OW67411  13.897  12.272   0.546
55191SOL    HW167412  13.882  12.366   0.552
55191SOL    HW267413  13.990  12.265   0.522
55192SOL     OW67414   1.714  13.941  13.395
55192SOL    HW167415   1.706  13.910  13.304
55192SOL    HW267416   1.681  13.869  13.448
55193SOL     OW67417  14.147   9.439   7.203
55193SOL    HW167418  14.146   9.393   7.287
55193SOL    HW267419  14.217   9.503   7.211
55194SOL     OW67420  14.341   0.148  13.325
55194SOL    HW167421  14.413   0.210  13.318
55194SOL    HW267422  14.363   0.079  13.263
55195SOL     OW67423   6.795   9.542   6.643
55195SOL    HW167424   6.745   9.595   6.581
55195SOL    HW267425   6.747   9.460   6.649
55196SOL     OW67426   1.795   2.676   4.377
55196SOL    HW167427   1.739   2.599   4.388
55196SOL    HW267428   1.882   2.640   4.359
55197SOL     OW67429   8.122   2.923   3.164
55197SOL    HW167430   8.200   2.923   3.220
55197SOL    HW267431   8.136   2.851   3.103
55198SOL     OW67432  10.286   4.507  11.917
55198SOL    HW167433  10.303   4.519  12.010
55198SOL    HW267434  10.265   4.414  11.908
55199SOL     OW67435   5.043  12.298  13.954
55199SOL    HW167436   5.031  12.259  14.040
55199SOL    HW267437   5.115  12.249  13.914
55200SOL     OW67438  11.707   7.548  12.055
55200SOL    HW167439  11.777   7.553  12.121
55200SOL    HW267440  11.682   7.456  12.054
55201SOL     OW67441  11.770  11.211  14.835
55201SOL    HW167442  11.697  11.243  14.783
55201SOL    HW267443  11.805  11.290  14.877
55202SOL     OW67444   6.072   4.601  11.814
55202SOL    HW167445   6.105   4.663  11.880
55202SOL    HW267446   6.057   4.520  11.863
55203SOL     OW67447   7.748  13.200   1.493
55203SOL    HW167448   7.720  13.109   1.493
55203SOL    HW267449   7.679  13.248   1.447
55204SOL     OW67450  13.157   1.411   8.452
55204SOL    HW167451  13.198   1.349   8.512
55204SOL    HW267452  13.169   1.372   8.365
55205SOL     OW67453   7.605   1.432   0.858
55205SOL    HW167454   7.629   1.524   0.870
55205SOL    HW267455   7.520   1.436   0.813
55206SOL     OW67456   9.614  12.669   4.750
55206SOL    HW167457   9.583  12.578   4.754
55206SOL    HW267458   9.534  12.721   4.746
55207SOL     OW67459   9.456   4.444  14.789
55207SOL    HW167460   9.402   4.438  14.867
55207SOL    HW267461   9.541   4.407  14.815
55208SOL     OW67462  13.608  10.824   2.188
55208SOL    HW167463  13.662  10.746   2.204
55208SOL    HW267464  13.564  10.807   2.105
55209SOL     OW67465   1.722   9.794  14.031
55209SOL    HW167466   1.713   9.850  13.953
55209SOL    HW267467   1.780   9.843  14.089
55210SOL     OW67468   1.117   8.499  13.554
55210SOL    HW167469   1.068   8.562  13.607
55210SOL    HW267470   1.049   8.444  13.514
55211SOL     OW67471   2.660   8.917   8.842
55211SOL    HW167472   2.659   8.823   8.859
55211SOL    HW267473   2.656   8.957   8.929
55212SOL     OW67474   8.888   8.628   4.991
55212SOL    HW167475   8.795   8.606   4.986
55212SOL    HW267476   8.927   8.558   5.043
55213SOL     OW67477  10.821  12.436  10.783
55213SOL    HW167478  10.829  12.406  10.873
55213SOL    HW267479  10.741  12.488  10.781
55214SOL     OW67480  12.010   5.364  11.368
55214SOL    HW167481  11.923   5.361  11.408
55214SOL    HW267482  12.070   5.376  11.441
55215SOL     OW67483   8.442   5.371  13.544
55215SOL    HW167484   8.526   5.392  13.504
55215SOL    HW267485   8.377   5.396  13.478
55216SOL     OW67486  11.280   5.427   1.756
55216SOL    HW167487  11.242   5.458   1.675
55216SOL    HW267488  11.374   5.441   1.746
55217SOL     OW67489   4.370   1.338  12.268
55217SOL    HW167490   4.419   1.318  12.347
55217SOL    HW267491   4.378   1.259  12.214
55218SOL     OW67492  13.257  11.136   9.026
55218SOL    HW167493  13.193  11.200   9.058
55218SOL    HW267494  13.325  11.135   9.094
55219SOL     OW67495   2.574   6.904   7.012
55219SOL    HW167496   2.609   6.989   6.985
55219SOL    HW267497   2.636   6.840   6.975
55220SOL     OW67498   1.820  14.442   0.357
55220SOL    HW167499   1.906  14.403   0.367
55220SOL    HW267500   1.836  14.526   0.314
55221SOL     OW67501   0.172  10.369  11.977
55221SOL    HW167502   0.246  10.421  11.947
55221SOL    HW267503   0.103  10.386  11.912
55222SOL     OW67504  14.718   7.704  10.071
55222SOL    HW167505  14.668   7.754  10.135
55222SOL    HW267506  14.742   7.623  10.117
55223SOL     OW67507   5.958   3.771   3.723
55223SOL    HW167508   5.989   3.850   3.678
55223SOL    HW267509   5.969   3.790   3.816
55224SOL     OW67510   3.208   1.271  10.709
55224SOL    HW167511   3.270   1.267  10.782
55224SOL    HW267512   3.253   1.324  10.643
55225SOL     OW67513   6.523  12.471   0.864
55225SOL    HW167514   6.448  12.413   0.874
55225SOL    HW267515   6.598  12.419   0.895
55226SOL     OW67516   1.530   3.806   7.249
55226SOL    HW167517   1.591   3.830   7.178
55226SOL    HW267518   1.585   3.760   7.313
55227SOL     OW67519   6.199   3.099   1.190
55227SOL    HW167520   6.164   3.157   1.122
55227SOL    HW267521   6.284   3.137   1.213
55228SOL     OW67522  10.490  13.558   5.027
55228SOL    HW167523  10.397  13.582   5.028
55228SOL    HW267524  10.536  13.642   5.033
55229SOL     OW67525   0.058  14.196   6.557
55229SOL    HW167526   0.046  14.291   6.563
55229SOL    HW267527   0.118  14.183   6.484
55230SOL     OW67528   7.118  12.477   2.927
55230SOL    HW167529   7.205  12.496   2.961
55230SOL    HW267530   7.065  12.552   2.953
55231SOL     OW67531   5.944  13.523   8.690
55231SOL    HW167532   6.024  13.507   8.640
55231SOL    HW267533   5.957  13.610   8.729
55232SOL     OW67534   6.555   9.395  12.309
55232SOL    HW167535   6.545   9.301  12.327
55232SOL    HW267536   6.624   9.424  12.368
55233SOL     OW67537   8.787  11.055   4.915
55233SOL    HW167538   8.875  11.038   4.882
55233SOL    HW267539   8.749  11.117   4.852
55234SOL     OW67540  14.372   9.294   1.840
55234SOL    HW167541  14.367   9.351   1.916
55234SOL    HW267542  14.361   9.352   1.765
55235SOL     OW67543   2.355  10.034   3.342
55235SOL    HW167544   2.323   9.954   3.301
55235SOL    HW267545   2.390  10.086   3.269
55236SOL     OW67546   9.830   7.704   4.524
55236SOL    HW167547   9.746   7.731   4.560
55236SOL    HW267548   9.807   7.655   4.445
55237SOL     OW67549   0.887   0.674   8.554
55237SOL    HW167550   0.954   0.732   8.590
55237SOL    HW267551   0.806   0.702   8.597
55238SOL     OW67552  13.634   4.500   7.590
55238SOL    HW167553  13.690   4.442   7.641
55238SOL    HW267554  13.631   4.460   7.503
55239SOL     OW67555  13.001   0.157  12.609
55239SOL    HW167556  13.054   0.124  12.537
55239SOL    HW267557  12.988   0.082  12.666
55240SOL     OW67558  10.161   7.172   9.809
55240SOL    HW167559  10.136   7.174   9.902
55240SOL    HW267560  10.224   7.243   9.800
55241SOL     OW67561  13.068   2.055   3.317
55241SOL    HW167562  13.056   2.117   3.245
55241SOL    HW267563  13.159   2.026   3.309
55242SOL     OW67564  10.535   0.820   8.776
55242SOL    HW167565  10.537   0.902   8.728
55242SOL    HW267566  10.513   0.754   8.711
55243SOL     OW67567   8.005   1.933   2.329
55243SOL    HW167568   7.920   1.913   2.291
55243SOL    HW267569   7.996   2.021   2.364
55244SOL     OW67570  10.942   5.493   2.565
55244SOL    HW167571  10.995   5.455   2.635
55244SOL    HW267572  10.939   5.426   2.497
55245SOL     OW67573   4.680   8.620  12.297
55245SOL    HW167574   4.621   8.644  12.226
55245SOL    HW267575   4.633   8.646  12.376
55246SOL     OW67576   1.917   5.936  14.648
55246SOL    HW167577   1.987   5.871  14.653
55246SOL    HW267578   1.900   5.959  14.740
55247SOL     OW67579   8.539   9.299   2.926
55247SOL    HW167580   8.493   9.251   2.857
55247SOL    HW267581   8.527   9.391   2.903
55248SOL     OW67582   2.646  10.611   1.025
55248SOL    HW167583   2.683  10.553   1.091
55248SOL    HW267584   2.585  10.667   1.074
55249SOL     OW67585   7.036   6.623  11.357
55249SOL    HW167586   6.992   6.616  11.442
55249SOL    HW267587   7.119   6.666  11.377
55250SOL     OW67588   9.229  14.060   4.475
55250SOL    HW167589   9.237  14.114   4.396
55250SOL    HW267590   9.136  14.067   4.499
55251SOL     OW67591   5.321   7.026   0.710
55251SOL    HW167592   5.247   7.008   0.768
55251SOL    HW267593   5.292   6.997   0.624
55252SOL     OW67594  11.203   8.334  13.332
55252SOL    HW167595  11.158   8.364  13.411
55252SOL    HW267596  11.289   8.377  13.336
55253SOL     OW67597   6.890   8.441   3.368
55253SOL    HW167598   6.818   8.439   3.430
55253SOL    HW267599   6.949   8.508   3.403
55254SOL     OW67600   8.026   8.050  13.003
55254SOL    HW167601   8.041   7.983  13.070
55254SOL    HW267602   7.984   8.122  13.051
55255SOL     OW67603   6.282   7.607  12.869
55255SOL    HW167604   6.300   7.667  12.797
55255SOL    HW267605   6.345   7.632  12.937
55256SOL     OW67606   0.069  11.156  12.976
55256SOL    HW167607  14.872  11.175  12.923
55256SOL    HW267608   0.047  11.074  13.021
55257SOL     OW67609  13.604   0.776  11.522
55257SOL    HW167610  13.561   0.849  11.566
55257SOL    HW267611  13.656   0.816  11.453
55258SOL     OW67612   0.240   6.795   8.790
55258SOL    HW167613   0.169   6.731   8.794
55258SOL    HW267614   0.297   6.763   8.720
55259SOL     OW67615   0.512   6.944   5.964
55259SOL    HW167616   0.429   6.955   5.917
55259SOL    HW267617   0.576   6.987   5.908
55260SOL     OW67618   5.527  14.307   7.425
55260SOL    HW167619   5.606  14.275   7.468
55260SOL    HW267620   5.545  14.400   7.407
55261SOL     OW67621  12.095   6.411  13.213
55261SOL    HW167622  12.118   6.328  13.174
55261SOL    HW267623  12.089   6.393  13.307
55262SOL     OW67624   0.622   7.938   0.699
55262SOL    HW167625   0.594   7.890   0.621
55262SOL    HW267626   0.709   7.903   0.719
55263SOL     OW67627  11.585  13.424   6.946
55263SOL    HW167628  11.498  13.387   6.932
55263SOL    HW267629  11.612  13.456   6.859
55264SOL     OW67630   7.909  11.070   6.518
55264SOL    HW167631   7.892  11.009   6.589
55264SOL    HW267632   7.892  11.156   6.556
55265SOL     OW67633   5.629   5.618   8.359
55265SOL    HW167634   5.619   5.713   8.348
55265SOL    HW267635   5.705   5.596   8.304
55266SOL     OW67636   8.820  11.941   7.382
55266SOL    HW167637   8.886  11.982   7.439
55266SOL    HW267638   8.745  12.000   7.386
55267SOL     OW67639   4.391  14.105   6.054
55267SOL    HW167640   4.432  14.129   5.971
55267SOL    HW267641   4.338  14.028   6.033
55268SOL     OW67642   6.456   7.921   9.788
55268SOL    HW167643   6.513   7.868   9.732
55268SOL    HW267644   6.404   7.857   9.836
55269SOL     OW67645  12.744  10.644   4.977
55269SOL    HW167646  12.739  10.554   4.945
55269SOL    HW267647  12.794  10.638   5.058
55270SOL     OW67648   4.639   2.562  11.371
55270SOL    HW167649   4.674   2.579  11.284
55270SOL    HW267650   4.547   2.588  11.366
55271SOL     OW67651   8.306  10.957   1.274
55271SOL    HW167652   8.338  10.922   1.357
55271SOL    HW267653   8.221  10.994   1.295
55272SOL     OW67654  10.713  14.114   2.659
55272SOL    HW167655  10.676  14.075   2.738
55272SOL    HW267656  10.714  14.043   2.595
55273SOL     OW67657  11.726   2.919   8.553
55273SOL    HW167658  11.667   2.866   8.499
55273SOL    HW267659  11.813   2.900   8.517
55274SOL     OW67660  14.726  10.614  14.499
55274SOL    HW167661  14.757  10.564  14.424
55274SOL    HW267662  14.765  10.571  14.575
55275SOL     OW67663   2.489   5.502   6.373
55275SOL    HW167664   2.449   5.589   6.366
55275SOL    HW267665   2.570   5.508   6.323
55276SOL     OW67666   4.183   9.721   1.461
55276SOL    HW167667   4.272   9.752   1.478
55276SOL    HW267668   4.144   9.715   1.548
55277SOL     OW67669   4.879  10.895   9.405
55277SOL    HW167670   4.955  10.858   9.361
55277SOL    HW267671   4.845  10.960   9.344
55278SOL     OW67672   8.547  14.684  12.552
55278SOL    HW167673   8.623  14.737  12.529
55278SOL    HW267674   8.490  14.744  12.600
55279SOL     OW67675   2.660   3.515   9.378
55279SOL    HW167676   2.600   3.462   9.431
55279SOL    HW267677   2.651   3.480   9.290
55280SOL     OW67678   4.809  13.389   2.270
55280SOL    HW167679   4.737  13.443   2.236
55280SOL    HW267680   4.766  13.310   2.302
55281SOL     OW67681   4.093   3.674   4.702
55281SOL    HW167682   4.049   3.754   4.731
55281SOL    HW267683   4.102   3.622   4.781
55282SOL     OW67684  12.673  14.546  14.602
55282SOL    HW167685  12.727  14.499  14.538
55282SOL    HW267686  12.678  14.638  14.575
55283SOL     OW67687   5.775  12.110  12.006
55283SOL    HW167688   5.842  12.102  11.938
55283SOL    HW267689   5.820  12.090  12.087
55284SOL     OW67690   6.167  14.410   5.545
55284SOL    HW167691   6.195  14.500   5.527
55284SOL    HW267692   6.194  14.361   5.467
55285SOL     OW67693   2.436   3.420   4.702
55285SOL    HW167694   2.392   3.405   4.786
55285SOL    HW267695   2.504   3.354   4.699
55286SOL     OW67696   6.758   9.810   1.612
55286SOL    HW167697   6.688   9.754   1.579
55286SOL    HW267698   6.746   9.810   1.707
55287SOL     OW67699   7.808   7.314  12.994
55287SOL    HW167700   7.870   7.242  13.004
55287SOL    HW267701   7.855   7.390  13.029
55288SOL     OW67702  12.600   0.782   0.023
55288SOL    HW167703  12.536   0.834   0.070
55288SOL    HW267704  12.610   0.702   0.076
55289SOL     OW67705  12.995   4.070   0.289
55289SOL    HW167706  13.033   4.144   0.336
55289SOL    HW267707  12.917   4.106   0.247
55290SOL     OW67708   1.532   8.317   5.305
55290SOL    HW167709   1.602   8.375   5.273
55290SOL    HW267710   1.550   8.308   5.398
55291SOL     OW67711  12.952  11.938  14.651
55291SOL    HW167712  13.038  11.940  14.692
55291SOL    HW267713  12.929  12.030  14.638
55292SOL     OW67714   9.686  14.112   2.619
55292SOL    HW167715   9.633  14.050   2.569
55292SOL    HW267716   9.632  14.191   2.624
55293SOL     OW67717  11.751   3.998   2.997
55293SOL    HW167718  11.666   4.033   3.025
55293SOL    HW267719  11.810   4.017   3.070
55294SOL     OW67720  10.798  10.367   6.001
55294SOL    HW167721  10.852  10.317   6.062
55294SOL    HW267722  10.857  10.435   5.968
55295SOL     OW67723   5.322  10.681   6.224
55295SOL    HW167724   5.328  10.644   6.136
55295SOL    HW267725   5.412  10.705   6.247
55296SOL     OW67726   8.026   6.482   8.213
55296SOL    HW167727   8.080   6.561   8.207
55296SOL    HW267728   8.049   6.443   8.297
55297SOL     OW67729   5.485   4.017   9.313
55297SOL    HW167730   5.511   4.094   9.262
55297SOL    HW267731   5.490   3.945   9.250
55298SOL     OW67732   3.423   0.341   3.184
55298SOL    HW167733   3.444   0.284   3.258
55298SOL    HW267734   3.505   0.387   3.165
55299SOL     OW67735   3.194  12.728   9.465
55299SOL    HW167736   3.288  12.716   9.458
55299SOL    HW267737   3.162  12.719   9.375
55300SOL     OW67738   0.894   2.848  12.931
55300SOL    HW167739   0.837   2.917  12.898
55300SOL    HW267740   0.857   2.767  12.897
55301SOL     OW67741   9.516   1.314   0.467
55301SOL    HW167742   9.599   1.268   0.462
55301SOL    HW267743   9.482   1.315   0.378
55302SOL     OW67744  13.104   0.819   1.618
55302SOL    HW167745  13.114   0.849   1.708
55302SOL    HW267746  13.010   0.823   1.602
55303SOL     OW67747   9.247   1.458   7.985
55303SOL    HW167748   9.284   1.372   7.966
55303SOL    HW267749   9.252   1.466   8.080
55304SOL     OW67750  10.937   6.847   6.934
55304SOL    HW167751  10.916   6.899   7.011
55304SOL    HW267752  10.853   6.834   6.890
55305SOL     OW67753  12.135  10.407   9.257
55305SOL    HW167754  12.076  10.475   9.290
55305SOL    HW267755  12.083  10.327   9.262
55306SOL     OW67756   1.526   5.121   1.106
55306SOL    HW167757   1.563   5.151   1.189
55306SOL    HW267758   1.497   5.201   1.062
55307SOL     OW67759  12.364   4.801   1.257
55307SOL    HW167760  12.290   4.824   1.313
55307SOL    HW267761  12.441   4.816   1.311
55308SOL     OW67762   9.316   6.987   7.003
55308SOL    HW167763   9.283   7.056   6.945
55308SOL    HW267764   9.243   6.926   7.013
55309SOL     OW67765  13.410   1.938  11.125
55309SOL    HW167766  13.462   1.866  11.090
55309SOL    HW267767  13.340   1.950  11.061
55310SOL     OW67768  10.096   6.245   9.256
55310SOL    HW167769  10.088   6.334   9.288
55310SOL    HW267770  10.006   6.212   9.254
55311SOL     OW67771  14.178   3.594  11.533
55311SOL    HW167772  14.193   3.508  11.571
55311SOL    HW267773  14.166   3.652  11.609
55312SOL     OW67774  11.160  13.640   1.558
55312SOL    HW167775  11.084  13.664   1.505
55312SOL    HW267776  11.193  13.560   1.518
55313SOL     OW67777   0.690   3.220   7.611
55313SOL    HW167778   0.739   3.203   7.531
55313SOL    HW267779   0.631   3.292   7.588
55314SOL     OW67780  14.139   9.061  14.627
55314SOL    HW167781  14.127   8.985  14.685
55314SOL    HW267782  14.192   9.028  14.555
55315SOL     OW67783   9.730  10.407  14.495
55315SOL    HW167784   9.693  10.475  14.551
55315SOL    HW267785   9.821  10.400  14.523
55316SOL     OW67786   8.074  14.321   5.322
55316SOL    HW167787   8.015  14.318   5.246
55316SOL    HW267788   8.046  14.400   5.370
55317SOL     OW67789   8.262   1.127  14.366
55317SOL    HW167790   8.277   1.156  14.456
55317SOL    HW267791   8.221   1.041  14.375
55318SOL     OW67792   8.942   4.750   4.674
55318SOL    HW167793   9.019   4.777   4.623
55318SOL    HW267794   8.979   4.711   4.754
55319SOL     OW67795   2.590   7.396  12.695
55319SOL    HW167796   2.570   7.454  12.622
55319SOL    HW267797   2.623   7.454  12.763
55320SOL     OW67798  11.791   4.650  14.380
55320SOL    HW167799  11.750   4.720  14.330
55320SOL    HW267800  11.854   4.693  14.436
55321SOL     OW67801  10.530   2.032   7.727
55321SOL    HW167802  10.457   2.091   7.747
55321SOL    HW267803  10.607   2.076   7.764
55322SOL     OW67804   8.197   3.991  14.662
55322SOL    HW167805   8.154   3.954  14.585
55322SOL    HW267806   8.125   4.005  14.725
55323SOL     OW67807   7.597   5.135  12.756
55323SOL    HW167808   7.672   5.194  12.763
55323SOL    HW267809   7.522   5.187  12.781
55324SOL     OW67810   9.793  10.548   9.802
55324SOL    HW167811   9.803  10.635   9.840
55324SOL    HW267812   9.881  10.522   9.777
55325SOL     OW67813  13.680   5.208  13.656
55325SOL    HW167814  13.594   5.210  13.696
55325SOL    HW267815  13.664   5.196  13.562
55326SOL     OW67816   5.015  13.124   8.964
55326SOL    HW167817   5.054  13.120   9.051
55326SOL    HW267818   4.991  13.034   8.944
55327SOL     OW67819   5.519   7.715   4.939
55327SOL    HW167820   5.495   7.623   4.953
55327SOL    HW267821   5.509   7.728   4.844
55328SOL     OW67822   2.138   5.036  13.825
55328SOL    HW167823   2.130   5.040  13.730
55328SOL    HW267824   2.179   5.118  13.850
55329SOL     OW67825  11.256   2.808  10.074
55329SOL    HW167826  11.258   2.716  10.047
55329SOL    HW267827  11.167   2.836  10.057
55330SOL     OW67828   7.549  11.998   9.507
55330SOL    HW167829   7.625  12.038   9.465
55330SOL    HW267830   7.564  11.903   9.499
55331SOL     OW67831   2.901   6.446  14.709
55331SOL    HW167832   2.993   6.432  14.686
55331SOL    HW267833   2.873   6.520  14.655
55332SOL     OW67834   1.452   5.360   7.541
55332SOL    HW167835   1.509   5.391   7.470
55332SOL    HW267836   1.506   5.298   7.589
55333SOL     OW67837   9.946   5.241   9.812
55333SOL    HW167838   9.924   5.184   9.886
55333SOL    HW267839   9.963   5.181   9.740
55334SOL     OW67840   7.110   1.134   8.827
55334SOL    HW167841   7.069   1.093   8.752
55334SOL    HW267842   7.198   1.157   8.797
55335SOL     OW67843   8.277   9.077  12.768
55335SOL    HW167844   8.292   9.156  12.716
55335SOL    HW267845   8.191   9.046  12.739
55336SOL     OW67846  14.034  10.841  11.277
55336SOL    HW167847  13.958  10.821  11.224
55336SOL    HW267848  14.033  10.936  11.287
55337SOL     OW67849   6.206  14.310   4.604
55337SOL    HW167850   6.265  14.321   4.530
55337SOL    HW267851   6.228  14.382   4.663
55338SOL     OW67852  13.034   3.498  13.606
55338SOL    HW167853  13.041   3.458  13.519
55338SOL    HW267854  13.092   3.447  13.661
55339SOL     OW67855   8.106   0.908   1.329
55339SOL    HW167856   8.173   0.842   1.317
55339SOL    HW267857   8.140   0.966   1.397
55340SOL     OW67858   3.508   7.782  14.518
55340SOL    HW167859   3.545   7.698  14.489
55340SOL    HW267860   3.526   7.842  14.446
55341SOL     OW67861   6.242  11.027   7.398
55341SOL    HW167862   6.203  10.978   7.326
55341SOL    HW267863   6.336  11.027   7.378
55342SOL     OW67864   8.989   2.833   0.549
55342SOL    HW167865   9.042   2.776   0.494
55342SOL    HW267866   8.903   2.836   0.506
55343SOL     OW67867   9.760   4.185   9.680
55343SOL    HW167868   9.843   4.139   9.691
55343SOL    HW267869   9.758   4.210   9.588
55344SOL     OW67870   9.238  13.740   3.630
55344SOL    HW167871   9.164  13.751   3.690
55344SOL    HW267872   9.198  13.727   3.544
55345SOL     OW67873   9.938  11.698   0.882
55345SOL    HW167874   9.935  11.713   0.977
55345SOL    HW267875  10.026  11.727   0.856
55346SOL     OW67876   0.793  14.417   9.243
55346SOL    HW167877   0.723  14.479   9.263
55346SOL    HW267878   0.864  14.440   9.303
55347SOL     OW67879  10.129   0.960   2.948
55347SOL    HW167880  10.157   0.874   2.917
55347SOL    HW267881  10.035   0.963   2.930
55348SOL     OW67882   0.574   2.317   4.606
55348SOL    HW167883   0.482   2.293   4.615
55348SOL    HW267884   0.578   2.409   4.631
55349SOL     OW67885   0.455  11.380   4.159
55349SOL    HW167886   0.538  11.409   4.122
55349SOL    HW267887   0.475  11.361   4.251
55350SOL     OW67888   1.299   3.047   5.404
55350SOL    HW167889   1.341   3.132   5.416
55350SOL    HW267890   1.371   2.984   5.402
55351SOL     OW67891   8.545   1.759   4.611
55351SOL    HW167892   8.602   1.830   4.642
55351SOL    HW267893   8.553   1.692   4.679
55352SOL     OW67894  14.229  12.919   9.103
55352SOL    HW167895  14.179  12.879   9.173
55352SOL    HW267896  14.184  12.894   9.023
55353SOL     OW67897   9.404   1.653  12.221
55353SOL    HW167898   9.390   1.728  12.163
55353SOL    HW267899   9.329   1.596  12.204
55354SOL     OW67900   5.381  13.107  14.554
55354SOL    HW167901   5.331  13.027  14.538
55354SOL    HW267902   5.399  13.142  14.467
55355SOL     OW67903   8.274   4.168   8.639
55355SOL    HW167904   8.270   4.228   8.714
55355SOL    HW267905   8.231   4.217   8.568
55356SOL     OW67906   5.471   1.185  12.684
55356SOL    HW167907   5.484   1.137  12.602
55356SOL    HW267908   5.500   1.124  12.753
55357SOL     OW67909   3.328   8.527  10.785
55357SOL    HW167910   3.388   8.458  10.757
55357SOL    HW267911   3.300   8.500  10.873
55358SOL     OW67912   5.566   3.778   8.458
55358SOL    HW167913   5.572   3.801   8.365
55358SOL    HW267914   5.572   3.682   8.459
55359SOL     OW67915   4.143   4.589  11.853
55359SOL    HW167916   4.069   4.554  11.803
55359SOL    HW267917   4.181   4.656  11.795
55360SOL     OW67918  13.118   2.343  13.933
55360SOL    HW167919  13.094   2.269  13.989
55360SOL    HW267920  13.082   2.321  13.847
55361SOL     OW67921   7.906   0.796   0.484
55361SOL    HW167922   7.985   0.760   0.524
55361SOL    HW267923   7.852   0.824   0.558
55362SOL     OW67924   5.543   7.027   3.336
55362SOL    HW167925   5.573   6.997   3.250
55362SOL    HW267926   5.557   7.122   3.333
55363SOL     OW67927   6.859   5.005   4.588
55363SOL    HW167928   6.868   5.079   4.527
55363SOL    HW267929   6.778   4.963   4.562
55364SOL     OW67930   3.732   6.413  11.570
55364SOL    HW167931   3.738   6.330  11.522
55364SOL    HW267932   3.744   6.481  11.504
55365SOL     OW67933   4.274   9.625  12.440
55365SOL    HW167934   4.355   9.622  12.491
55365SOL    HW267935   4.276   9.710  12.396
55366SOL     OW67936  14.524   9.905   4.525
55366SOL    HW167937  14.470   9.905   4.446
55366SOL    HW267938  14.599   9.849   4.503
55367SOL     OW67939   4.681   7.357  14.840
55367SOL    HW167940   4.763   7.325  14.878
55367SOL    HW267941   4.693   7.348  14.745
55368SOL     OW67942   0.205  12.722   2.658
55368SOL    HW167943   0.225  12.813   2.636
55368SOL    HW267944   0.179  12.682   2.575
55369SOL     OW67945   5.808  11.958   5.486
55369SOL    HW167946   5.894  11.988   5.455
55369SOL    HW267947   5.755  11.952   5.406
55370SOL     OW67948   3.174   3.174  11.528
55370SOL    HW167949   3.105   3.110  11.547
55370SOL    HW267950   3.254   3.132  11.560
55371SOL     OW67951   9.896   0.488   9.930
55371SOL    HW167952   9.955   0.479   9.854
55371SOL    HW267953   9.937   0.434   9.998
55372SOL     OW67954  13.475  10.161  13.730
55372SOL    HW167955  13.488  10.152  13.824
55372SOL    HW267956  13.510  10.080  13.693
55373SOL     OW67957   6.405  13.036   9.845
55373SOL    HW167958   6.400  12.946   9.877
55373SOL    HW267959   6.457  13.031   9.765
55374SOL     OW67960   9.801   9.861   6.680
55374SOL    HW167961   9.769   9.772   6.698
55374SOL    HW267962   9.825   9.895   6.766
55375SOL     OW67963   6.760   6.882  14.571
55375SOL    HW167964   6.842   6.854  14.531
55375SOL    HW267965   6.751   6.826  14.648
55376SOL     OW67966  13.833   1.198   9.940
55376SOL    HW167967  13.885   1.275   9.917
55376SOL    HW267968  13.802   1.217  10.029
55377SOL     OW67969   3.592  12.372   4.099
55377SOL    HW167970   3.519  12.416   4.055
55377SOL    HW267971   3.638  12.326   4.029
55378SOL     OW67972   7.736  13.002   8.977
55378SOL    HW167973   7.760  13.095   8.987
55378SOL    HW267974   7.675  12.986   9.049
55379SOL     OW67975   1.117  13.004  10.842
55379SOL    HW167976   1.151  13.070  10.902
55379SOL    HW267977   1.079  12.937  10.899
55380SOL     OW67978  12.311  11.088  14.839
55380SOL    HW167979  12.238  11.151  14.839
55380SOL    HW267980  12.380  11.132  14.789
55381SOL     OW67981   0.319  14.783   8.636
55381SOL    HW167982   0.234  14.762   8.597
55381SOL    HW267983   0.369  14.824   8.565
55382SOL     OW67984   1.490   5.040   8.696
55382SOL    HW167985   1.443   5.021   8.615
55382SOL    HW267986   1.451   5.121   8.728
55383SOL     OW67987  14.288   8.128   9.639
55383SOL    HW167988  14.262   8.042   9.606
55383SOL    HW267989  14.209   8.163   9.679
55384SOL     OW67990   5.184   5.545   2.674
55384SOL    HW167991   5.159   5.571   2.763
55384SOL    HW267992   5.116   5.483   2.647
55385SOL     OW67993   5.573  14.537  14.683
55385SOL    HW167994   5.495  14.541  14.739
55385SOL    HW267995   5.605  14.627  14.681
55386SOL     OW67996  12.330   3.952   5.712
55386SOL    HW167997  12.352   3.893   5.784
55386SOL    HW267998  12.379   4.032   5.731
55387SOL     OW67999  12.983   3.844   0.120
55387SOL    HW168000  12.956   3.903   0.050
55387SOL    HW268001  12.972   3.895   0.200
55388SOL     OW68002   7.909   6.791   5.350
55388SOL    HW168003   7.976   6.859   5.357
55388SOL    HW268004   7.958   6.712   5.323
55389SOL     OW68005   2.952  12.753  14.740
55389SOL    HW168006   3.013  12.680  14.730
55389SOL    HW268007   2.995  12.827  14.697
55390SOL     OW68008  13.850   9.025  10.226
55390SOL    HW168009  13.942   9.037  10.251
55390SOL    HW268010  13.801   9.038  10.307
55391SOL     OW68011   3.300   2.831   5.567
55391SOL    HW168012   3.274   2.918   5.598
55391SOL    HW268013   3.380   2.846   5.517
55392SOL     OW68014   7.536  13.397  10.967
55392SOL    HW168015   7.629  13.394  10.990
55392SOL    HW268016   7.534  13.383  10.872
55393SOL     OW68017   9.031  11.288   9.163
55393SOL    HW168018   9.003  11.201   9.190
55393SOL    HW268019   9.099  11.313   9.226
55394SOL     OW68020   1.266   4.693   7.668
55394SOL    HW168021   1.238   4.613   7.713
55394SOL    HW268022   1.246   4.677   7.576
55395SOL     OW68023   5.853   1.720   2.821
55395SOL    HW168024   5.879   1.754   2.906
55395SOL    HW268025   5.924   1.662   2.794
55396SOL     OW68026  11.739  11.602   4.434
55396SOL    HW168027  11.823  11.644   4.453
55396SOL    HW268028  11.717  11.554   4.513
55397SOL     OW68029  11.212  11.654   6.085
55397SOL    HW168030  11.264  11.646   6.004
55397SOL    HW268031  11.256  11.724   6.134
55398SOL     OW68032   6.836   3.672  14.781
55398SOL    HW168033   6.783   3.593  14.779
55398SOL    HW268034   6.873   3.675  14.869
55399SOL     OW68035   6.695   8.665   6.026
55399SOL    HW168036   6.717   8.575   6.049
55399SOL    HW268037   6.606   8.677   6.059
55400SOL     OW68038   7.546   8.879  14.469
55400SOL    HW168039   7.465   8.863  14.421
55400SOL    HW268040   7.584   8.792  14.482
55401SOL     OW68041  14.740  13.618  12.208
55401SOL    HW168042  14.804  13.610  12.137
55401SOL    HW268043  14.755  13.706  12.243
55402SOL     OW68044  14.351  11.835  14.591
55402SOL    HW168045  14.293  11.800  14.658
55402SOL    HW268046  14.375  11.922  14.623
55403SOL     OW68047   4.849   7.078  12.570
55403SOL    HW168048   4.931   7.080  12.521
55403SOL    HW268049   4.786   7.123  12.514
55404SOL     OW68050   0.657  14.193   3.184
55404SOL    HW168051   0.585  14.146   3.141
55404SOL    HW268052   0.631  14.198   3.276
55405SOL     OW68053   9.023   8.053  13.171
55405SOL    HW168054   8.995   8.139  13.201
55405SOL    HW268055   9.015   8.058  13.075
55406SOL     OW68056  11.814   1.029  13.713
55406SOL    HW168057  11.757   1.104  13.729
55406SOL    HW268058  11.762   0.953  13.738
55407SOL     OW68059   4.248   7.441   0.610
55407SOL    HW168060   4.278   7.374   0.671
55407SOL    HW268061   4.296   7.423   0.529
55408SOL     OW68062   3.119   8.097  11.520
55408SOL    HW168063   3.168   8.070  11.443
55408SOL    HW268064   3.186   8.113  11.587
55409SOL     OW68065   5.163  14.776  11.017
55409SOL    HW168066   5.117  14.854  11.048
55409SOL    HW268067   5.212  14.805  10.941
55410SOL     OW68068  14.851   1.410   1.063
55410SOL    HW168069  14.811   1.327   1.038
55410SOL    HW268070  14.781   1.459   1.105
55411SOL     OW68071  13.132   0.838   5.247
55411SOL    HW168072  13.153   0.925   5.213
55411SOL    HW268073  13.117   0.853   5.341
55412SOL     OW68074   8.906   9.497  11.006
55412SOL    HW168075   8.954   9.438  11.063
55412SOL    HW268076   8.972   9.558  10.974
55413SOL     OW68077   1.939  13.527   9.287
55413SOL    HW168078   1.965  13.559   9.373
55413SOL    HW268079   1.899  13.602   9.244
55414SOL     OW68080  11.604   8.707   2.848
55414SOL    HW168081  11.559   8.653   2.913
55414SOL    HW268082  11.609   8.651   2.770
55415SOL     OW68083   9.816   4.885  14.874
55415SOL    HW168084   9.859   4.942   0.058
55415SOL    HW268085   9.722   4.896   0.012
55416SOL     OW68086   3.640   7.431   1.312
55416SOL    HW168087   3.729   7.464   1.299
55416SOL    HW268088   3.629   7.428   1.407
55417SOL     OW68089   8.671   8.486  14.433
55417SOL    HW168090   8.599   8.507  14.492
55417SOL    HW268091   8.711   8.571  14.412
55418SOL     OW68092  11.235   4.259   8.246
55418SOL    HW168093  11.212   4.170   8.272
55418SOL    HW268094  11.239   4.308   8.329
55419SOL     OW68095   2.766   4.831   5.444
55419SOL    HW168096   2.700   4.885   5.401
55419SOL    HW268097   2.788   4.764   5.379
55420SOL     OW68098   2.182   4.419   3.580
55420SOL    HW168099   2.118   4.480   3.543
55420SOL    HW268100   2.267   4.461   3.565
55421SOL     OW68101  10.840   9.774  11.053
55421SOL    HW168102  10.921   9.778  11.002
55421SOL    HW268103  10.869   9.778  11.144
55422SOL     OW68104   9.484  12.776  10.813
55422SOL    HW168105   9.560  12.718  10.820
55422SOL    HW268106   9.433  12.740  10.741
55423SOL     OW68107   4.245  13.720  14.336
55423SOL    HW168108   4.188  13.665  14.282
55423SOL    HW268109   4.243  13.806  14.293
55424SOL     OW68110   1.730   9.257   4.589
55424SOL    HW168111   1.729   9.208   4.671
55424SOL    HW268112   1.698   9.344   4.612
55425SOL     OW68113  12.918  10.384  14.808
55425SOL    HW168114  12.923  10.289  14.823
55425SOL    HW268115  12.847  10.413  14.865
55426SOL     OW68116   3.271  14.413   7.668
55426SOL    HW168117   3.177  14.419   7.685
55426SOL    HW268118   3.290  14.485   7.608
55427SOL     OW68119   2.527  14.849   9.361
55427SOL    HW168120   2.512  14.760   9.391
55427SOL    HW268121   2.493   0.025   9.431
55428SOL     OW68122   6.174   8.426   8.385
55428SOL    HW168123   6.241   8.463   8.443
55428SOL    HW268124   6.152   8.498   8.326
55429SOL     OW68125  14.300   4.336   2.103
55429SOL    HW168126  14.248   4.293   2.171
55429SOL    HW268127  14.375   4.373   2.150
55430SOL     OW68128   8.066   6.657   5.947
55430SOL    HW168129   8.028   6.654   5.859
55430SOL    HW268130   7.995   6.688   6.003
55431SOL     OW68131   9.630  13.378   4.788
55431SOL    HW168132   9.623  13.299   4.841
55431SOL    HW268133   9.715  13.369   4.744
55432SOL     OW68134  13.119   7.396  12.706
55432SOL    HW168135  13.122   7.300  12.716
55432SOL    HW268136  13.209   7.420  12.682
55433SOL     OW68137   5.862   6.194   0.644
55433SOL    HW168138   5.856   6.267   0.584
55433SOL    HW268139   5.893   6.233   0.726
55434SOL     OW68140   3.076   2.866   1.075
55434SOL    HW168141   3.013   2.871   1.004
55434SOL    HW268142   3.074   2.952   1.116
55435SOL     OW68143  11.763   3.443   3.652
55435SOL    HW168144  11.685   3.409   3.696
55435SOL    HW268145  11.812   3.487   3.722
55436SOL     OW68146   2.374   2.661  13.437
55436SOL    HW168147   2.370   2.590  13.502
55436SOL    HW268148   2.290   2.706  13.446
55437SOL     OW68149   3.268   6.425  11.685
55437SOL    HW168150   3.209   6.434  11.760
55437SOL    HW268151   3.348   6.389  11.721
55438SOL     OW68152  14.731   7.321  11.595
55438SOL    HW168153  14.759   7.247  11.648
55438SOL    HW268154  14.681   7.376  11.655
55439SOL     OW68155   5.615  12.921   2.091
55439SOL    HW168156   5.649  12.865   2.161
55439SOL    HW268157   5.552  12.979   2.135
55440SOL     OW68158   3.689  12.041  13.148
55440SOL    HW168159   3.612  12.089  13.177
55440SOL    HW268160   3.759  12.106  13.147
55441SOL     OW68161   3.781  14.583   4.960
55441SOL    HW168162   3.759  14.647   5.027
55441SOL    HW268163   3.766  14.498   5.002
55442SOL     OW68164   2.837   2.620   1.627
55442SOL    HW168165   2.830   2.709   1.662
55442SOL    HW268166   2.910   2.581   1.674
55443SOL     OW68167   2.247   8.590   4.457
55443SOL    HW168168   2.237   8.686   4.455
55443SOL    HW268169   2.298   8.569   4.379
55444SOL     OW68170   2.640   5.100   8.420
55444SOL    HW168171   2.642   5.156   8.342
55444SOL    HW268172   2.597   5.153   8.487
55445SOL     OW68173   6.521   6.489  11.167
55445SOL    HW168174   6.606   6.447  11.169
55445SOL    HW268175   6.525   6.548  11.092
55446SOL     OW68176   8.596  13.307   4.591
55446SOL    HW168177   8.589  13.244   4.519
55446SOL    HW268178   8.639  13.383   4.552
55447SOL     OW68179  13.052   9.721   1.619
55447SOL    HW168180  13.143   9.705   1.644
55447SOL    HW268181  13.009   9.636   1.630
55448SOL     OW68182  10.377  11.691   6.780
55448SOL    HW168183  10.426  11.643   6.847
55448SOL    HW268184  10.422  11.669   6.698
55449SOL     OW68185  11.447  11.034   7.915
55449SOL    HW168186  11.387  11.058   7.986
55449SOL    HW268187  11.491  11.116   7.893
55450SOL     OW68188   5.092  11.676   5.202
55450SOL    HW168189   5.159  11.619   5.164
55450SOL    HW268190   5.027  11.615   5.237
55451SOL     OW68191  12.587   9.362   2.004
55451SOL    HW168192  12.642   9.381   2.079
55451SOL    HW268193  12.590   9.441   1.951
55452SOL     OW68194   0.126   8.287   8.180
55452SOL    HW168195   0.117   8.364   8.124
55452SOL    HW268196   0.220   8.269   8.183
55453SOL     OW68197  10.119  12.508   7.534
55453SOL    HW168198  10.041  12.460   7.508
55453SOL    HW268199  10.187  12.441   7.543
55454SOL     OW68200   1.010   1.756  13.721
55454SOL    HW168201   1.075   1.826  13.727
55454SOL    HW268202   1.062   1.675  13.723
55455SOL     OW68203  12.108   0.510   7.384
55455SOL    HW168204  12.123   0.421   7.416
55455SOL    HW268205  12.195   0.542   7.362
55456SOL     OW68206  12.185   6.019   4.193
55456SOL    HW168207  12.247   6.064   4.251
55456SOL    HW268208  12.193   5.927   4.216
55457SOL     OW68209   8.456   3.826   9.503
55457SOL    HW168210   8.448   3.731   9.509
55457SOL    HW268211   8.389   3.852   9.440
55458SOL     OW68212  13.631   5.859   2.140
55458SOL    HW168213  13.614   5.944   2.181
55458SOL    HW268214  13.545   5.822   2.125
55459SOL     OW68215   5.127   4.996   7.841
55459SOL    HW168216   5.144   4.974   7.749
55459SOL    HW268217   5.195   5.060   7.863
55460SOL     OW68218  13.693   4.608  11.104
55460SOL    HW168219  13.684   4.703  11.097
55460SOL    HW268220  13.699   4.577  11.014
55461SOL     OW68221  14.143  10.263  10.091
55461SOL    HW168222  14.170  10.319  10.164
55461SOL    HW268223  14.131  10.176  10.130
55462SOL     OW68224  11.668  11.462  11.086
55462SOL    HW168225  11.592  11.407  11.064
55462SOL    HW268226  11.629  11.546  11.111
55463SOL     OW68227   5.442   3.464   9.515
55463SOL    HW168228   5.396   3.540   9.478
55463SOL    HW268229   5.492   3.499   9.588
55464SOL     OW68230  12.897   0.833   4.533
55464SOL    HW168231  12.977   0.881   4.512
55464SOL    HW268232  12.898   0.757   4.474
55465SOL     OW68233   2.562   8.629  14.139
55465SOL    HW168234   2.614   8.689  14.194
55465SOL    HW268235   2.472   8.644  14.166
55466SOL     OW68236   1.672  13.982   3.879
55466SOL    HW168237   1.604  13.920   3.853
55466SOL    HW268238   1.699  14.024   3.797
55467SOL     OW68239   6.441   3.269  14.051
55467SOL    HW168240   6.431   3.323  13.973
55467SOL    HW268241   6.352   3.243  14.074
55468SOL     OW68242  14.104  14.450   6.005
55468SOL    HW168243  14.175  14.471   6.065
55468SOL    HW268244  14.025  14.475   6.052
55469SOL     OW68245  12.509   1.722   0.859
55469SOL    HW168246  12.477   1.640   0.898
55469SOL    HW268247  12.581   1.695   0.802
55470SOL     OW68248  11.436  13.187  14.748
55470SOL    HW168249  11.514  13.134  14.729
55470SOL    HW268250  11.411  13.161  14.837
55471SOL     OW68251   9.190   1.867  13.297
55471SOL    HW168252   9.156   1.901  13.214
55471SOL    HW268253   9.227   1.944  13.341
55472SOL     OW68254   9.852   6.186   5.350
55472SOL    HW168255   9.837   6.146   5.264
55472SOL    HW268256   9.787   6.146   5.407
55473SOL     OW68257  10.128   7.874   6.961
55473SOL    HW168258  10.087   7.873   7.048
55473SOL    HW268259  10.074   7.933   6.909
55474SOL     OW68260  11.655   8.315  12.531
55474SOL    HW168261  11.729   8.319  12.591
55474SOL    HW268262  11.588   8.265  12.578
55475SOL     OW68263  14.597   2.591  12.558
55475SOL    HW168264  14.597   2.589  12.462
55475SOL    HW268265  14.547   2.514  12.583
55476SOL     OW68266  12.913   1.385  10.484
55476SOL    HW168267  12.876   1.468  10.514
55476SOL    HW268268  12.962   1.407  10.405
55477SOL     OW68269  12.055   2.700  12.279
55477SOL    HW168270  11.963   2.689  12.253
55477SOL    HW268271  12.058   2.665  12.368
55478SOL     OW68272  11.875   2.544   1.021
55478SOL    HW168273  11.966   2.532   0.996
55478SOL    HW268274  11.835   2.458   1.010
55479SOL     OW68275   1.903   2.900   7.135
55479SOL    HW168276   1.847   2.950   7.076
55479SOL    HW268277   1.897   2.945   7.219
55480SOL     OW68278  13.471   9.554  13.921
55480SOL    HW168279  13.395   9.603  13.891
55480SOL    HW268280  13.479   9.481  13.859
55481SOL     OW68281   5.738  10.773   6.627
55481SOL    HW168282   5.692  10.843   6.582
55481SOL    HW268283   5.729  10.794   6.720
55482SOL     OW68284   3.379   0.245   1.764
55482SOL    HW168285   3.327   0.167   1.750
55482SOL    HW268286   3.331   0.294   1.831
55483SOL     OW68287  14.313   6.039   8.251
55483SOL    HW168288  14.358   6.077   8.326
55483SOL    HW268289  14.373   6.051   8.177
55484SOL     OW68290  12.715   2.224  13.428
55484SOL    HW168291  12.639   2.170  13.404
55484SOL    HW268292  12.689   2.267  13.509
55485SOL     OW68293   5.413  11.130  13.793
55485SOL    HW168294   5.375  11.209  13.831
55485SOL    HW268295   5.508  11.140  13.805
55486SOL     OW68296   3.954   6.436   3.205
55486SOL    HW168297   4.044   6.417   3.178
55486SOL    HW268298   3.957   6.432   3.301
55487SOL     OW68299   5.574  12.303   5.923
55487SOL    HW168300   5.530  12.278   6.004
55487SOL    HW268301   5.621  12.224   5.896
55488SOL     OW68302   4.940   8.158  12.528
55488SOL    HW168303   4.918   8.111  12.448
55488SOL    HW268304   5.033   8.137  12.543
55489SOL     OW68305   2.013   4.499   7.724
55489SOL    HW168306   2.034   4.551   7.801
55489SOL    HW268307   1.941   4.546   7.682
55490SOL     OW68308  13.837   2.607   4.858
55490SOL    HW168309  13.837   2.690   4.907
55490SOL    HW268310  13.844   2.540   4.926
55491SOL     OW68311  10.039   7.959  13.423
55491SOL    HW168312  10.109   8.024  13.423
55491SOL    HW268313  10.009   7.957  13.514
55492SOL     OW68314   4.355   8.689   2.417
55492SOL    HW168315   4.295   8.629   2.461
55492SOL    HW268316   4.324   8.776   2.443
55493SOL     OW68317  11.082   5.856   0.242
55493SOL    HW168318  11.028   5.781   0.265
55493SOL    HW268319  11.120   5.834   0.157
55494SOL     OW68320   7.691   8.650   2.877
55494SOL    HW168321   7.606   8.688   2.901
55494SOL    HW268322   7.670   8.561   2.849
55495SOL     OW68323  12.844  12.971  14.014
55495SOL    HW168324  12.802  12.899  14.061
55495SOL    HW268325  12.822  12.957  13.922
55496SOL     OW68326  14.703  14.451   9.574
55496SOL    HW168327  14.648  14.524   9.546
55496SOL    HW268328  14.684  14.440   9.667
55497SOL     OW68329   9.010  10.392  11.745
55497SOL    HW168330   9.058  10.326  11.796
55497SOL    HW268331   8.919  10.361  11.748
55498SOL     OW68332   0.399  12.281   7.869
55498SOL    HW168333   0.354  12.285   7.785
55498SOL    HW268334   0.360  12.352   7.921
55499SOL     OW68335   5.244  14.544   8.694
55499SOL    HW168336   5.306  14.617   8.688
55499SOL    HW268337   5.158  14.584   8.681
55500SOL     OW68338   0.432  12.028   7.736
55500SOL    HW168339   0.345  12.036   7.698
55500SOL    HW268340   0.445  12.109   7.785
55501SOL     OW68341   2.146   3.008   5.261
55501SOL    HW168342   2.175   2.977   5.347
55501SOL    HW268343   2.097   2.935   5.224
55502SOL     OW68344  14.867   5.128   7.233
55502SOL    HW168345   0.025   5.204   7.190
55502SOL    HW268346  14.805   5.092   7.170
55503SOL     OW68347  14.459  12.312   7.279
55503SOL    HW168348  14.410  12.300   7.360
55503SOL    HW268349  14.394  12.307   7.210
55504SOL     OW68350   6.755   8.783   3.782
55504SOL    HW168351   6.724   8.753   3.867
55504SOL    HW268352   6.850   8.780   3.788
55505SOL     OW68353   8.273   0.127   6.447
55505SOL    HW168354   8.366   0.129   6.470
55505SOL    HW268355   8.242   0.043   6.481
55506SOL     OW68356   5.476  10.516  12.422
55506SOL    HW168357   5.431  10.540  12.341
55506SOL    HW268358   5.555  10.569  12.423
55507SOL     OW68359   1.338   5.909  13.788
55507SOL    HW168360   1.325   6.003  13.802
55507SOL    HW268361   1.325   5.896  13.694
55508SOL     OW68362   9.419   5.949   1.237
55508SOL    HW168363   9.476   5.999   1.295
55508SOL    HW268364   9.331   5.965   1.271
55509SOL     OW68365   2.406  14.364   5.445
55509SOL    HW168366   2.469  14.296   5.421
55509SOL    HW268367   2.434  14.441   5.394
55510SOL     OW68368   5.187  12.915  14.575
55510SOL    HW168369   5.093  12.921  14.558
55510SOL    HW268370   5.220  12.856  14.508
55511SOL     OW68371   4.644   4.104   8.352
55511SOL    HW168372   4.556   4.089   8.386
55511SOL    HW268373   4.657   4.199   8.360
55512SOL     OW68374  10.999  13.125  10.085
55512SOL    HW168375  10.905  13.121  10.069
55512SOL    HW268376  11.024  13.033  10.097
55513SOL     OW68377   9.525   8.160   5.683
55513SOL    HW168378   9.487   8.248   5.682
55513SOL    HW268379   9.535   8.139   5.776
55514SOL     OW68380  13.109   6.505  14.095
55514SOL    HW168381  13.187   6.520  14.041
55514SOL    HW268382  13.105   6.581  14.153
55515SOL     OW68383   0.541   4.542   8.224
55515SOL    HW168384   0.625   4.571   8.260
55515SOL    HW268385   0.487   4.620   8.221
55516SOL     OW68386   1.592   9.042   9.607
55516SOL    HW168387   1.682   9.028   9.579
55516SOL    HW268388   1.584   8.990   9.687
55517SOL     OW68389   1.885   7.275   2.121
55517SOL    HW168390   1.896   7.352   2.176
55517SOL    HW268391   1.800   7.240   2.146
55518SOL     OW68392   7.641   6.617   3.005
55518SOL    HW168393   7.677   6.529   3.004
55518SOL    HW268394   7.716   6.674   2.993
55519SOL     OW68395   1.128   8.580   5.068
55519SOL    HW168396   1.176   8.660   5.091
55519SOL    HW268397   1.150   8.565   4.976
55520SOL     OW68398   0.314   0.267   4.596
55520SOL    HW168399   0.294   0.345   4.544
55520SOL    HW268400   0.399   0.286   4.636
55521SOL     OW68401  12.682   0.007   6.968
55521SOL    HW168402  12.630  14.810   6.996
55521SOL    HW268403  12.691   0.059   7.048
55522SOL     OW68404   4.036   0.057   5.930
55522SOL    HW168405   4.005   0.023   6.014
55522SOL    HW268406   4.106   0.118   5.953
55523SOL     OW68407   4.268   0.952   9.342
55523SOL    HW168408   4.361   0.959   9.322
55523SOL    HW268409   4.257   1.000   9.424
55524SOL     OW68410  13.712   6.776   2.012
55524SOL    HW168411  13.657   6.802   1.938
55524SOL    HW268412  13.799   6.810   1.990
55525SOL     OW68413   6.799  12.121   9.663
55525SOL    HW168414   6.743  12.192   9.695
55525SOL    HW268415   6.867  12.166   9.612
55526SOL     OW68416   4.522  10.019   4.460
55526SOL    HW168417   4.609  10.059   4.452
55526SOL    HW268418   4.470  10.084   4.508
55527SOL     OW68419   7.399  12.240   0.721
55527SOL    HW168420   7.371  12.272   0.807
55527SOL    HW268421   7.418  12.319   0.671
55528SOL     OW68422   7.893   4.691   9.620
55528SOL    HW168423   7.834   4.706   9.545
55528SOL    HW268424   7.842   4.719   9.696
55529SOL     OW68425   0.428   0.888   0.593
55529SOL    HW168426   0.368   0.815   0.610
55529SOL    HW268427   0.507   0.846   0.558
55530SOL     OW68428  11.016   2.905   4.785
55530SOL    HW168429  11.077   2.848   4.738
55530SOL    HW268430  10.962   2.845   4.837
55531SOL     OW68431   6.705  11.467   9.650
55531SOL    HW168432   6.628  11.521   9.633
55531SOL    HW268433   6.737  11.497   9.735
55532SOL     OW68434  13.956   1.719   6.801
55532SOL    HW168435  13.960   1.632   6.841
55532SOL    HW268436  13.877   1.716   6.748
55533SOL     OW68437  12.884   0.036   6.756
55533SOL    HW168438  12.795   0.032   6.791
55533SOL    HW268439  12.940   0.025   6.833
55534SOL     OW68440   9.554  13.617   4.788
55534SOL    HW168441   9.630  13.661   4.751
55534SOL    HW268442   9.581  13.525   4.797
55535SOL     OW68443   5.517   1.816   1.189
55535SOL    HW168444   5.458   1.889   1.208
55535SOL    HW268445   5.604   1.857   1.187
55536SOL     OW68446   4.860   0.383  12.502
55536SOL    HW168447   4.860   0.287  12.495
55536SOL    HW268448   4.767   0.407  12.500
55537SOL     OW68449  10.539  11.946   9.418
55537SOL    HW168450  10.451  11.914   9.438
55537SOL    HW268451  10.598  11.881   9.456
55538SOL     OW68452   1.446  11.647   7.549
55538SOL    HW168453   1.493  11.572   7.512
55538SOL    HW268454   1.361  11.645   7.506
55539SOL     OW68455   3.455   0.058  14.477
55539SOL    HW168456   3.520   0.125  14.495
55539SOL    HW268457   3.414   0.087  14.395
55540SOL     OW68458  11.982  13.294  13.658
55540SOL    HW168459  11.911  13.283  13.721
55540SOL    HW268460  11.964  13.377  13.615
55541SOL     OW68461   6.546  10.766  11.901
55541SOL    HW168462   6.576  10.737  11.987
55541SOL    HW268463   6.451  10.768  11.908
55542SOL     OW68464   0.991  13.778  14.610
55542SOL    HW168465   0.992  13.857  14.556
55542SOL    HW268466   1.083  13.751  14.615
55543SOL     OW68467  10.452   3.322  11.743
55543SOL    HW168468  10.505   3.401  11.740
55543SOL    HW268469  10.362   3.352  11.745
55544SOL     OW68470   0.816   4.156  11.147
55544SOL    HW168471   0.838   4.079  11.094
55544SOL    HW268472   0.825   4.127  11.238
55545SOL     OW68473  13.764   6.323  14.826
55545SOL    HW168474  13.678   6.353  14.854
55545SOL    HW268475  13.772   6.235  14.864
55546SOL     OW68476   2.252   0.848   3.336
55546SOL    HW168477   2.241   0.933   3.379
55546SOL    HW268478   2.322   0.862   3.272
55547SOL     OW68479   8.448   1.735   1.948
55547SOL    HW168480   8.478   1.769   2.032
55547SOL    HW268481   8.509   1.664   1.927
55548SOL     OW68482   4.599  13.243   5.878
55548SOL    HW168483   4.595  13.251   5.974
55548SOL    HW268484   4.559  13.324   5.846
55549SOL     OW68485   1.508   1.261   8.488
55549SOL    HW168486   1.427   1.311   8.482
55549SOL    HW268487   1.526   1.235   8.397
55550SOL     OW68488   5.613   1.247  10.576
55550SOL    HW168489   5.674   1.267  10.647
55550SOL    HW268490   5.605   1.152  10.577
55551SOL     OW68491  12.804   8.597   4.038
55551SOL    HW168492  12.796   8.521   4.096
55551SOL    HW268493  12.720   8.642   4.047
55552SOL     OW68494   7.430   1.101  14.282
55552SOL    HW168495   7.335   1.107  14.285
55552SOL    HW268496   7.461   1.191  14.294
55553SOL     OW68497   5.330  10.373   1.655
55553SOL    HW168498   5.390  10.344   1.586
55553SOL    HW268499   5.245  10.378   1.613
55554SOL     OW68500   5.692   2.905   2.757
55554SOL    HW168501   5.605   2.873   2.780
55554SOL    HW268502   5.748   2.877   2.829
55555SOL     OW68503   9.154   1.852   2.319
55555SOL    HW168504   9.084   1.804   2.363
55555SOL    HW268505   9.134   1.846   2.226
55556SOL     OW68506   8.918  13.624   4.882
55556SOL    HW168507   8.937  13.697   4.941
55556SOL    HW268508   8.841  13.581   4.921
55557SOL     OW68509  10.845   9.970  11.923
55557SOL    HW168510  10.774   9.917  11.960
55557SOL    HW268511  10.809  10.058  11.916
55558SOL     OW68512   5.859   1.400   9.059
55558SOL    HW168513   5.840   1.450   8.980
55558SOL    HW268514   5.773   1.370   9.089
55559SOL     OW68515  14.718   9.447   3.246
55559SOL    HW168516  14.722   9.418   3.155
55559SOL    HW268517  14.764   9.531   3.247
55560SOL     OW68518   5.502  14.153  10.124
55560SOL    HW168519   5.595  14.173  10.123
55560SOL    HW268520   5.497  14.058  10.129
55561SOL     OW68521   6.019   9.782   5.992
55561SOL    HW168522   6.053   9.763   6.079
55561SOL    HW268523   5.970   9.703   5.969
55562SOL     OW68524   3.642   1.751   6.280
55562SOL    HW168525   3.664   1.844   6.275
55562SOL    HW268526   3.700   1.709   6.216
55563SOL     OW68527   4.500   4.888   0.602
55563SOL    HW168528   4.581   4.872   0.649
55563SOL    HW268529   4.458   4.801   0.596
55564SOL     OW68530   7.560   0.104   1.771
55564SOL    HW168531   7.549   0.176   1.709
55564SOL    HW268532   7.502   0.126   1.844
55565SOL     OW68533   3.667  11.437  10.737
55565SOL    HW168534   3.717  11.514  10.708
55565SOL    HW268535   3.584  11.443  10.689
55566SOL     OW68536   5.571  14.375  12.188
55566SOL    HW168537   5.564  14.383  12.284
55566SOL    HW268538   5.653  14.418  12.166
55567SOL     OW68539   4.740  12.609   8.965
55567SOL    HW168540   4.685  12.610   9.043
55567SOL    HW268541   4.830  12.615   8.999
55568SOL     OW68542  10.066  10.618   0.285
55568SOL    HW168543  10.075  10.604   0.379
55568SOL    HW268544  10.123  10.693   0.266
55569SOL     OW68545  13.597  11.334   3.770
55569SOL    HW168546  13.641  11.251   3.756
55569SOL    HW268547  13.613  11.355   3.862
55570SOL     OW68548  12.953  12.375  14.802
55570SOL    HW168549  13.021  12.438  14.827
55570SOL    HW268550  12.985  12.291  14.834
55571SOL     OW68551   3.689   9.120  14.607
55571SOL    HW168552   3.772   9.161  14.583
55571SOL    HW268553   3.639   9.190  14.649
55572SOL     OW68554   0.637  12.335  11.995
55572SOL    HW168555   0.704  12.328  11.927
55572SOL    HW268556   0.687  12.352  12.075
55573SOL     OW68557   4.863   3.703   8.190
55573SOL    HW168558   4.773   3.673   8.190
55573SOL    HW268559   4.878   3.735   8.100
55574SOL     OW68560  12.440  13.248  11.595
55574SOL    HW168561  12.513  13.234  11.534
55574SOL    HW268562  12.398  13.328  11.563
55575SOL     OW68563   6.203   0.851   5.863
55575SOL    HW168564   6.133   0.849   5.928
55575SOL    HW268565   6.198   0.940   5.827
55576SOL     OW68566   3.583  10.632   5.001
55576SOL    HW168567   3.565  10.574   4.927
55576SOL    HW268568   3.539  10.714   4.979
55577SOL     OW68569   1.661  13.694  12.101
55577SOL    HW168570   1.575  13.653  12.099
55577SOL    HW268571   1.722  13.622  12.118
55578SOL     OW68572   0.012   4.382   0.206
55578SOL    HW168573   0.061   4.307   0.241
55578SOL    HW268574   0.010   4.445   0.278
55579SOL     OW68575   1.414   6.543  11.690
55579SOL    HW168576   1.426   6.449  11.679
55579SOL    HW268577   1.341   6.551  11.752
55580SOL     OW68578   9.381   6.332   9.911
55580SOL    HW168579   9.395   6.370   9.997
55580SOL    HW268580   9.386   6.406   9.850
55581SOL     OW68581  13.858   7.301   2.035
55581SOL    HW168582  13.766   7.281   2.018
55581SOL    HW268583  13.858   7.394   2.060
55582SOL     OW68584   5.320   7.729  14.380
55582SOL    HW168585   5.241   7.782  14.391
55582SOL    HW268586   5.392   7.792  14.390
55583SOL     OW68587   6.134   8.605   2.771
55583SOL    HW168588   6.050   8.630   2.732
55583SOL    HW268589   6.147   8.514   2.742
55584SOL     OW68590   3.152   7.520   0.824
55584SOL    HW168591   3.071   7.521   0.774
55584SOL    HW268592   3.195   7.603   0.803
55585SOL     OW68593  12.599   5.037  14.296
55585SOL    HW168594  12.563   5.000  14.215
55585SOL    HW268595  12.650   5.112  14.267
55586SOL     OW68596  14.686   6.421   9.923
55586SOL    HW168597  14.612   6.393   9.977
55586SOL    HW268598  14.657   6.404   9.833
55587SOL     OW68599  13.188  14.005   3.571
55587SOL    HW168600  13.106  13.955   3.567
55587SOL    HW268601  13.256  13.938   3.572
55588SOL     OW68602   8.126   0.692  12.229
55588SOL    HW168603   8.105   0.665  12.140
55588SOL    HW268604   8.098   0.784  12.234
55589SOL     OW68605   6.388  14.762  12.598
55589SOL    HW168606   6.358  14.686  12.647
55589SOL    HW268607   6.378  14.835  12.658
55590SOL     OW68608  12.900   4.765   4.738
55590SOL    HW168609  12.870   4.722   4.658
55590SOL    HW268610  12.967   4.706   4.773
55591SOL     OW68611   9.339   6.830   7.412
55591SOL    HW168612   9.286   6.909   7.414
55591SOL    HW268613   9.293   6.768   7.469
55592SOL     OW68614  13.150   7.961   5.969
55592SOL    HW168615  13.095   8.011   6.031
55592SOL    HW268616  13.146   7.871   6.001
55593SOL     OW68617   4.389   4.994   1.006
55593SOL    HW168618   4.327   5.050   1.052
55593SOL    HW268619   4.363   4.905   1.030
55594SOL     OW68620  13.619   9.861  12.994
55594SOL    HW168621  13.526   9.839  12.982
55594SOL    HW268622  13.658   9.781  13.029
55595SOL     OW68623   9.916   0.064  12.016
55595SOL    HW168624   9.822   0.072  12.031
55595SOL    HW268625   9.928   0.095  11.926
55596SOL     OW68626  14.388   6.720   9.952
55596SOL    HW168627  14.354   6.732   9.864
55596SOL    HW268628  14.406   6.626   9.959
55597SOL     OW68629   9.702  14.267   1.116
55597SOL    HW168630   9.627  14.211   1.133
55597SOL    HW268631   9.710  14.322   1.194
55598SOL     OW68632   2.848   2.816   2.691
55598SOL    HW168633   2.879   2.804   2.602
55598SOL    HW268634   2.784   2.886   2.685
55599SOL     OW68635  11.985  10.676   0.878
55599SOL    HW168636  12.051  10.617   0.843
55599SOL    HW268637  12.030  10.725   0.946
55600SOL     OW68638   2.214   4.720  13.620
55600SOL    HW168639   2.163   4.640  13.628
55600SOL    HW268640   2.245   4.738  13.709
55601SOL     OW68641   2.781  12.252   2.502
55601SOL    HW168642   2.846  12.191   2.467
55601SOL    HW268643   2.830  12.332   2.519
55602SOL     OW68644   3.891   6.532  14.261
55602SOL    HW168645   3.833   6.572  14.195
55602SOL    HW268646   3.831   6.498  14.327
55603SOL     OW68647   0.101  13.803   5.693
55603SOL    HW168648   0.143  13.810   5.608
55603SOL    HW268649   0.068  13.891   5.711
55604SOL     OW68650   2.466   5.289   4.743
55604SOL    HW168651   2.498   5.258   4.828
55604SOL    HW268652   2.429   5.211   4.702
55605SOL     OW68653   0.068  12.032   7.195
55605SOL    HW168654   0.083  12.067   7.283
55605SOL    HW268655  14.857  12.054   7.176
55606SOL     OW68656   3.653   1.198   1.526
55606SOL    HW168657   3.647   1.206   1.621
55606SOL    HW268658   3.745   1.216   1.506
55607SOL     OW68659  11.670   4.237   5.617
55607SOL    HW168660  11.706   4.158   5.576
55607SOL    HW268661  11.575   4.227   5.607
55608SOL     OW68662   0.999   9.809   3.160
55608SOL    HW168663   0.911   9.840   3.179
55608SOL    HW268664   1.056   9.863   3.215
55609SOL     OW68665  12.236   6.473   6.598
55609SOL    HW168666  12.294   6.465   6.673
55609SOL    HW268667  12.266   6.552   6.553
55610SOL     OW68668  14.229   9.493   1.350
55610SOL    HW168669  14.178   9.417   1.321
55610SOL    HW268670  14.182   9.568   1.314
55611SOL     OW68671   4.368   1.485   2.386
55611SOL    HW168672   4.352   1.526   2.301
55611SOL    HW268673   4.459   1.456   2.383
55612SOL     OW68674   8.170  13.466   7.396
55612SOL    HW168675   8.135  13.444   7.309
55612SOL    HW268676   8.120  13.542   7.424
55613SOL     OW68677   1.584   5.440   5.082
55613SOL    HW168678   1.524   5.392   5.025
55613SOL    HW268679   1.551   5.530   5.082
55614SOL     OW68680   6.677   1.061   3.164
55614SOL    HW168681   6.612   1.096   3.225
55614SOL    HW268682   6.632   0.989   3.120
55615SOL     OW68683   9.927  10.046  13.482
55615SOL    HW168684   9.880  10.113  13.531
55615SOL    HW268685   9.974  10.095  13.414
55616SOL     OW68686  10.051   4.690   2.858
55616SOL    HW168687   9.963   4.726   2.872
55616SOL    HW268688  10.036   4.609   2.808
55617SOL     OW68689  13.486   3.823  11.965
55617SOL    HW168690  13.442   3.738  11.957
55617SOL    HW268691  13.560   3.806  12.024
55618SOL     OW68692  11.934   2.610   4.430
55618SOL    HW168693  11.963   2.538   4.486
55618SOL    HW268694  11.911   2.568   4.347
55619SOL     OW68695   1.958   4.738  11.377
55619SOL    HW168696   1.996   4.723  11.291
55619SOL    HW268697   1.977   4.658  11.426
55620SOL     OW68698   1.103   3.221  11.467
55620SOL    HW168699   1.168   3.152  11.454
55620SOL    HW268700   1.033   3.199  11.405
55621SOL     OW68701   0.627  12.837   2.181
55621SOL    HW168702   0.605  12.821   2.273
55621SOL    HW268703   0.619  12.751   2.139
55622SOL     OW68704  11.752   1.650   5.581
55622SOL    HW168705  11.827   1.592   5.596
55622SOL    HW268706  11.767   1.723   5.641
55623SOL     OW68707   5.876   6.449   9.737
55623SOL    HW168708   5.837   6.409   9.659
55623SOL    HW268709   5.859   6.543   9.727
55624SOL     OW68710   7.495   1.449   4.452
55624SOL    HW168711   7.463   1.515   4.513
55624SOL    HW268712   7.495   1.368   4.502
55625SOL     OW68713   0.673  10.902  14.666
55625SOL    HW168714   0.615  10.974  14.691
55625SOL    HW268715   0.761  10.933  14.686
55626SOL     OW68716   3.725   7.265   1.570
55626SOL    HW168717   3.783   7.333   1.537
55626SOL    HW268718   3.780   7.186   1.574
55627SOL     OW68719   1.892   7.724   7.490
55627SOL    HW168720   1.862   7.792   7.549
55627SOL    HW268721   1.960   7.677   7.539
55628SOL     OW68722   7.752   5.424   2.820
55628SOL    HW168723   7.805   5.474   2.758
55628SOL    HW268724   7.714   5.353   2.768
55629SOL     OW68725   0.173   9.440  10.515
55629SOL    HW168726   0.097   9.493  10.539
55629SOL    HW268727   0.145   9.391  10.438
55630SOL     OW68728   3.518   8.564   4.010
55630SOL    HW168729   3.491   8.472   4.001
55630SOL    HW268730   3.582   8.576   3.940
55631SOL     OW68731   5.289   7.525  13.299
55631SOL    HW168732   5.284   7.491  13.388
55631SOL    HW268733   5.225   7.474  13.250
55632SOL     OW68734  13.598   0.512   4.579
55632SOL    HW168735  13.642   0.440   4.623
55632SOL    HW268736  13.655   0.534   4.505
55633SOL     OW68737   1.147  11.761   6.632
55633SOL    HW168738   1.178  11.736   6.719
55633SOL    HW268739   1.070  11.817   6.649
55634SOL     OW68740   0.094  14.032  14.671
55634SOL    HW168741   0.163  14.068  14.727
55634SOL    HW268742   0.127  13.946  14.644
55635SOL     OW68743   7.350  11.426   4.035
55635SOL    HW168744   7.415  11.436   4.104
55635SOL    HW268745   7.353  11.333   4.012
55636SOL     OW68746   6.329  10.714  10.353
55636SOL    HW168747   6.350  10.748  10.266
55636SOL    HW268748   6.310  10.621  10.339
55637SOL     OW68749   1.257  12.963   0.870
55637SOL    HW168750   1.276  12.934   0.781
55637SOL    HW268751   1.218  13.050   0.859
55638SOL     OW68752  12.489   2.894  14.761
55638SOL    HW168753  12.406   2.941  14.771
55638SOL    HW268754  12.463   2.804  14.741
55639SOL     OW68755  12.435   8.088   1.233
55639SOL    HW168756  12.387   8.136   1.166
55639SOL    HW268757  12.508   8.047   1.186
55640SOL     OW68758   9.823  13.832   2.387
55640SOL    HW168759   9.734  13.832   2.353
55640SOL    HW268760   9.823  13.766   2.456
55641SOL     OW68761  14.149  12.970  14.513
55641SOL    HW168762  14.076  12.962  14.575
55641SOL    HW268763  14.210  12.902  14.540
55642SOL     OW68764   0.160   7.040   2.407
55642SOL    HW168765   0.166   6.998   2.493
55642SOL    HW268766   0.075   7.012   2.373
55643SOL     OW68767   0.591   3.378   9.232
55643SOL    HW168768   0.588   3.389   9.328
55643SOL    HW268769   0.554   3.460   9.198
55644SOL     OW68770   6.165   4.388   7.622
55644SOL    HW168771   6.225   4.413   7.551
55644SOL    HW268772   6.204   4.427   7.701
55645SOL     OW68773  10.974   9.799   0.742
55645SOL    HW168774  10.999   9.801   0.650
55645SOL    HW268775  11.041   9.850   0.787
55646SOL     OW68776   6.457   9.549   0.420
55646SOL    HW168777   6.519   9.610   0.461
55646SOL    HW268778   6.406   9.603   0.359
55647SOL     OW68779  14.079  10.792   9.284
55647SOL    HW168780  14.134  10.758   9.213
55647SOL    HW268781  14.022  10.719   9.307
55648SOL     OW68782   3.941   7.630   3.487
55648SOL    HW168783   3.942   7.667   3.399
55648SOL    HW268784   4.007   7.561   3.484
55649SOL     OW68785  12.026  11.768   4.746
55649SOL    HW168786  11.985  11.843   4.790
55649SOL    HW268787  12.115  11.767   4.780
55650SOL     OW68788   3.330   0.049   0.148
55650SOL    HW168789   3.348   0.070   0.056
55650SOL    HW268790   3.344  14.835   0.154
55651SOL     OW68791  11.354   4.006   9.400
55651SOL    HW168792  11.299   4.011   9.478
55651SOL    HW268793  11.297   4.035   9.328
55652SOL     OW68794  10.078  11.950   3.532
55652SOL    HW168795  10.135  11.913   3.599
55652SOL    HW268796  10.071  11.881   3.466
55653SOL     OW68797   6.124  13.441  12.739
55653SOL    HW168798   6.053  13.492  12.777
55653SOL    HW268799   6.100  13.350  12.757
55654SOL     OW68800   0.567   7.589   1.874
55654SOL    HW168801   0.649   7.571   1.920
55654SOL    HW268802   0.531   7.502   1.853
55655SOL     OW68803  12.636  13.749   6.305
55655SOL    HW168804  12.669  13.738   6.394
55655SOL    HW268805  12.598  13.837   6.304
55656SOL     OW68806  10.501  13.182   4.155
55656SOL    HW168807  10.520  13.091   4.132
55656SOL    HW268808  10.560  13.201   4.228
55657SOL     OW68809   0.776   4.858   1.123
55657SOL    HW168810   0.691   4.862   1.078
55657SOL    HW268811   0.839   4.887   1.057
55658SOL     OW68812   9.208  12.406   3.421
55658SOL    HW168813   9.152  12.464   3.473
55658SOL    HW268814   9.236  12.338   3.483
55659SOL     OW68815   2.722   3.086  14.722
55659SOL    HW168816   2.733   3.115  14.631
55659SOL    HW268817   2.726   2.991  14.718
55660SOL     OW68818  12.282  12.867   6.413
55660SOL    HW168819  12.324  12.952   6.400
55660SOL    HW268820  12.354  12.806   6.424
55661SOL     OW68821   2.330   3.429   2.221
55661SOL    HW168822   2.329   3.393   2.309
55661SOL    HW268823   2.387   3.507   2.228
55662SOL     OW68824   5.816   4.330   6.281
55662SOL    HW168825   5.825   4.240   6.251
55662SOL    HW268826   5.754   4.325   6.354
55663SOL     OW68827  11.261  12.706   2.387
55663SOL    HW168828  11.347  12.735   2.358
55663SOL    HW268829  11.278  12.645   2.458
55664SOL     OW68830  14.161   2.836   5.447
55664SOL    HW168831  14.101   2.909   5.431
55664SOL    HW268832  14.114   2.779   5.507
55665SOL     OW68833   2.612   5.129   2.552
55665SOL    HW168834   2.584   5.176   2.473
55665SOL    HW268835   2.543   5.065   2.568
55666SOL     OW68836   6.883   2.296  10.634
55666SOL    HW168837   6.811   2.273  10.575
55666SOL    HW268838   6.887   2.391  10.631
55667SOL     OW68839  10.536   3.289   7.971
55667SOL    HW168840  10.534   3.261   8.062
55667SOL    HW268841  10.461   3.245   7.931
55668SOL     OW68842   6.416   0.500   5.593
55668SOL    HW168843   6.471   0.547   5.656
55668SOL    HW268844   6.424   0.408   5.618
55669SOL     OW68845  13.559   2.302   2.769
55669SOL    HW168846  13.512   2.255   2.838
55669SOL    HW268847  13.511   2.385   2.760
55670SOL     OW68848  10.685   3.375   3.214
55670SOL    HW168849  10.624   3.367   3.287
55670SOL    HW268850  10.694   3.286   3.180
55671SOL     OW68851  12.121   6.787   8.361
55671SOL    HW168852  12.057   6.846   8.400
55671SOL    HW268853  12.068   6.720   8.317
55672SOL     OW68854   3.309  11.523   5.936
55672SOL    HW168855   3.307  11.556   5.846
55672SOL    HW268856   3.391  11.475   5.942
55673SOL     OW68857   5.146  12.035   4.072
55673SOL    HW168858   5.062  12.082   4.077
55673SOL    HW268859   5.152  12.006   3.981
55674SOL     OW68860   2.879  10.992   7.201
55674SOL    HW168861   2.913  10.983   7.291
55674SOL    HW268862   2.831  11.074   7.203
55675SOL     OW68863  11.723  12.865   1.215
55675SOL    HW168864  11.739  12.835   1.305
55675SOL    HW268865  11.703  12.958   1.225
55676SOL     OW68866  10.556   0.569   9.226
55676SOL    HW168867  10.533   0.478   9.245
55676SOL    HW268868  10.543   0.579   9.132
55677SOL     OW68869   7.644  13.287  14.808
55677SOL    HW168870   7.581  13.345  14.851
55677SOL    HW268871   7.663  13.329  14.724
55678SOL     OW68872   5.811   2.770  13.814
55678SOL    HW168873   5.718   2.746  13.818
55678SOL    HW268874   5.814   2.846  13.756
55679SOL     OW68875  11.267   3.549   1.373
55679SOL    HW168876  11.176   3.538   1.401
55679SOL    HW268877  11.262   3.550   1.277
55680SOL     OW68878   6.097   3.224   1.880
55680SOL    HW168879   6.055   3.280   1.946
55680SOL    HW268880   6.124   3.285   1.811
55681SOL     OW68881  14.526   7.828   7.109
55681SOL    HW168882  14.495   7.745   7.146
55681SOL    HW268883  14.469   7.845   7.035
55682SOL     OW68884   7.606   8.789   9.715
55682SOL    HW168885   7.513   8.771   9.724
55682SOL    HW268886   7.641   8.713   9.669
55683SOL     OW68887   0.660   3.362  14.585
55683SOL    HW168888   0.637   3.454  14.575
55683SOL    HW268889   0.649   3.345  14.679
55684SOL     OW68890   8.569   1.306   9.213
55684SOL    HW168891   8.556   1.375   9.278
55684SOL    HW268892   8.664   1.293   9.211
55685SOL     OW68893   4.600  13.764   6.001
55685SOL    HW168894   4.518  13.716   6.014
55685SOL    HW268895   4.602  13.828   6.072
55686SOL     OW68896   0.592   4.260   9.770
55686SOL    HW168897   0.644   4.185   9.797
55686SOL    HW268898   0.512   4.253   9.822
55687SOL     OW68899   1.962   1.615  13.599
55687SOL    HW168900   1.933   1.677  13.533
55687SOL    HW268901   1.886   1.561  13.618
55688SOL     OW68902  10.088   6.772  11.710
55688SOL    HW168903  10.021   6.817  11.761
55688SOL    HW268904  10.092   6.820  11.627
55689SOL     OW68905  12.348   9.033   7.762
55689SOL    HW168906  12.255   9.028   7.782
55689SOL    HW268907  12.355   9.002   7.672
55690SOL     OW68908   9.984  12.125   4.401
55690SOL    HW168909  10.025  12.125   4.488
55690SOL    HW268910  10.005  12.211   4.365
55691SOL     OW68911  14.798   5.590  11.992
55691SOL    HW168912  14.808   5.495  11.997
55691SOL    HW268913  14.728   5.604  11.928
55692SOL     OW68914  13.959   0.062   1.294
55692SOL    HW168915  13.957   0.137   1.353
55692SOL    HW268916  14.052   0.054   1.269
55693SOL     OW68917  12.644   5.098   1.322
55693SOL    HW168918  12.655   5.120   1.230
55693SOL    HW268919  12.624   5.181   1.365
55694SOL     OW68920   5.134   2.526   6.166
55694SOL    HW168921   5.124   2.611   6.209
55694SOL    HW268922   5.228   2.510   6.164
55695SOL     OW68923   2.793   2.980   6.804
55695SOL    HW168924   2.786   2.951   6.895
55695SOL    HW268925   2.848   2.914   6.762
55696SOL     OW68926  11.463  14.560  12.199
55696SOL    HW168927  11.489  14.468  12.198
55696SOL    HW268928  11.513  14.599  12.270
55697SOL     OW68929  10.006  11.758   1.785
55697SOL    HW168930  10.083  11.813   1.796
55697SOL    HW268931   9.998  11.711   1.868
55698SOL     OW68932   4.386  12.524   7.482
55698SOL    HW168933   4.301  12.502   7.446
55698SOL    HW268934   4.429  12.440   7.496
55699SOL     OW68935   9.449   1.223  14.165
55699SOL    HW168936   9.379   1.258  14.220
55699SOL    HW268937   9.406   1.201  14.082
55700SOL     OW68938  10.855   7.358  11.969
55700SOL    HW168939  10.883   7.401  12.050
55700SOL    HW268940  10.833   7.269  11.996
55701SOL     OW68941   2.761   8.283  10.609
55701SOL    HW168942   2.688   8.252  10.555
55701SOL    HW268943   2.755   8.230  10.689
55702SOL     OW68944   3.862  10.976  14.452
55702SOL    HW168945   3.868  10.926  14.533
55702SOL    HW268946   3.953  10.996  14.429
55703SOL     OW68947   8.240  11.294   2.705
55703SOL    HW168948   8.165  11.354   2.707
55703SOL    HW268949   8.271  11.291   2.796
55704SOL     OW68950   3.929  13.484   8.654
55704SOL    HW168951   3.934  13.579   8.664
55704SOL    HW268952   3.858  13.458   8.713
55705SOL     OW68953   0.714   1.238  13.763
55705SOL    HW168954   0.749   1.153  13.735
55705SOL    HW268955   0.761   1.257  13.844
55706SOL     OW68956   4.768   6.579  14.374
55706SOL    HW168957   4.682   6.577  14.416
55706SOL    HW268958   4.760   6.645  14.306
55707SOL     OW68959   5.312   1.293   9.069
55707SOL    HW168960   5.386   1.353   9.074
55707SOL    HW268961   5.291   1.286   8.976
55708SOL     OW68962   2.941   7.919   6.780
55708SOL    HW168963   3.022   7.962   6.755
55708SOL    HW268964   2.951   7.903   6.874
55709SOL     OW68965   9.426   8.057   9.077
55709SOL    HW168966   9.335   8.031   9.064
55709SOL    HW268967   9.449   8.106   8.998
55710SOL     OW68968  11.444   8.285  10.471
55710SOL    HW168969  11.519   8.229  10.492
55710SOL    HW268970  11.452   8.301  10.377
55711SOL     OW68971   2.585   6.499  11.124
55711SOL    HW168972   2.612   6.518  11.214
55711SOL    HW268973   2.494   6.470  11.132
55712SOL     OW68974   0.142   8.011   8.773
55712SOL    HW168975   0.161   7.951   8.701
55712SOL    HW268976   0.130   8.096   8.731
55713SOL     OW68977   9.725   9.364   2.371
55713SOL    HW168978   9.639   9.324   2.365
55713SOL    HW268979   9.786   9.291   2.368
55714SOL     OW68980  11.261  14.710   2.654
55714SOL    HW168981  11.247  14.799   2.688
55714SOL    HW268982  11.354  14.693   2.669
55715SOL     OW68983   1.939   1.665   3.062
55715SOL    HW168984   1.981   1.605   3.124
55715SOL    HW268985   1.855   1.624   3.042
55716SOL     OW68986   3.399   9.199   1.964
55716SOL    HW168987   3.377   9.111   1.936
55716SOL    HW268988   3.474   9.223   1.909
55717SOL     OW68989  13.206   5.322   0.620
55717SOL    HW168990  13.179   5.412   0.640
55717SOL    HW268991  13.131   5.268   0.644
55718SOL     OW68992  12.659   1.380   9.203
55718SOL    HW168993  12.732   1.318   9.208
55718SOL    HW268994  12.584   1.325   9.182
55719SOL     OW68995  11.042   7.509   1.277
55719SOL    HW168996  10.947   7.516   1.279
55719SOL    HW268997  11.073   7.598   1.261
55720SOL     OW68998  13.736  11.526  11.220
55720SOL    HW168999  13.805  11.567  11.167
55720SOL    HW269000  13.753  11.557  11.309
55721SOL     OW69001  13.579   1.623  11.355
55721SOL    HW169002  13.489   1.595  11.376
55721SOL    HW269003  13.632   1.587  11.426
55722SOL     OW69004   3.383  13.044   8.054
55722SOL    HW169005   3.444  13.110   8.023
55722SOL    HW269006   3.350  13.078   8.137
55723SOL     OW69007  11.435   3.110   6.386
55723SOL    HW169008  11.417   3.202   6.406
55723SOL    HW269009  11.405   3.062   6.462
55724SOL     OW69010   1.091   1.718   9.597
55724SOL    HW169011   1.115   1.630   9.565
55724SOL    HW269012   1.118   1.777   9.526
55725SOL     OW69013   8.685   4.464  12.895
55725SOL    HW169014   8.670   4.441  12.803
55725SOL    HW269015   8.600   4.497  12.924
55726SOL     OW69016   4.051   7.772  10.030
55726SOL    HW169017   4.046   7.840  10.097
55726SOL    HW269018   3.974   7.787   9.975
55727SOL     OW69019  13.438  11.467   3.595
55727SOL    HW169020  13.504  11.432   3.655
55727SOL    HW269021  13.475  11.454   3.508
55728SOL     OW69022   6.322  11.252  10.411
55728SOL    HW169023   6.227  11.250  10.422
55728SOL    HW269024   6.355  11.193  10.479
55729SOL     OW69025   1.867   3.059   5.316
55729SOL    HW169026   1.959   3.085   5.307
55729SOL    HW269027   1.818   3.141   5.313
55730SOL     OW69028  13.348  14.675  10.134
55730SOL    HW169029  13.437  14.659  10.167
55730SOL    HW269030  13.292  14.618  10.187
55731SOL     OW69031   2.917  14.606   9.747
55731SOL    HW169032   2.935  14.534   9.807
55731SOL    HW269033   2.998  14.656   9.743
55732SOL     OW69034   8.531   2.661   5.673
55732SOL    HW169035   8.459   2.674   5.611
55732SOL    HW269036   8.589   2.599   5.630
55733SOL     OW69037  14.357   0.866   4.402
55733SOL    HW169038  14.301   0.848   4.326
55733SOL    HW269039  14.407   0.785   4.415
55734SOL     OW69040  13.126   9.967  13.802
55734SOL    HW169041  13.097   9.990  13.890
55734SOL    HW269042  13.112  10.046  13.750
55735SOL     OW69043   0.071  13.097  13.160
55735SOL    HW169044   0.015  13.020  13.167
55735SOL    HW269045   0.160  13.062  13.166
55736SOL     OW69046  14.654   3.460   1.603
55736SOL    HW169047  14.593   3.412   1.546
55736SOL    HW269048  14.598   3.509   1.663
55737SOL     OW69049  11.172   4.229   1.027
55737SOL    HW169050  11.087   4.271   1.038
55737SOL    HW269051  11.199   4.251   0.938
55738SOL     OW69052  11.431   2.114   0.477
55738SOL    HW169053  11.407   2.206   0.483
55738SOL    HW269054  11.484   2.108   0.397
55739SOL     OW69055   9.302  14.663   3.137
55739SOL    HW169056   9.300  14.609   3.058
55739SOL    HW269057   9.395  14.681   3.151
55740SOL     OW69058   9.443   6.595   9.805
55740SOL    HW169059   9.441   6.662   9.872
55740SOL    HW269060   9.535   6.569   9.800
55741SOL     OW69061  14.204   8.194  12.977
55741SOL    HW169062  14.260   8.202  12.900
55741SOL    HW269063  14.161   8.279  12.985
55742SOL     OW69064   6.931   8.694   3.498
55742SOL    HW169065   6.884   8.746   3.432
55742SOL    HW269066   6.863   8.641   3.539
55743SOL     OW69067  11.255  11.060  11.846
55743SOL    HW169068  11.270  11.122  11.775
55743SOL    HW269069  11.190  11.103  11.901
55744SOL     OW69070   1.066  10.637   1.191
55744SOL    HW169071   1.152  10.629   1.232
55744SOL    HW269072   1.064  10.568   1.125
55745SOL     OW69073   2.586   0.158   2.586
55745SOL    HW169074   2.677   0.167   2.614
55745SOL    HW269075   2.573   0.230   2.524
55746SOL     OW69076  12.312   1.987   9.019
55746SOL    HW169077  12.228   1.962   8.983
55746SOL    HW269078  12.304   2.081   9.039
55747SOL     OW69079   8.853  14.576   4.798
55747SOL    HW169080   8.802  14.642   4.844
55747SOL    HW269081   8.934  14.568   4.848
55748SOL     OW69082   3.312   7.358  10.018
55748SOL    HW169083   3.261   7.280  10.041
55748SOL    HW269084   3.392   7.323   9.979
55749SOL     OW69085   4.414   3.591   6.463
55749SOL    HW169086   4.459   3.674   6.481
55749SOL    HW269087   4.422   3.581   6.368
55750SOL     OW69088   8.916   6.721  14.665
55750SOL    HW169089   8.959   6.778  14.730
55750SOL    HW269090   8.841   6.772  14.635
55751SOL     OW69091   5.453  12.154   3.686
55751SOL    HW169092   5.508  12.097   3.740
55751SOL    HW269093   5.424  12.098   3.614
55752SOL     OW69094   4.974   7.690   6.291
55752SOL    HW169095   5.065   7.706   6.269
55752SOL    HW269096   4.943   7.630   6.222
55753SOL     OW69097   1.547   5.229  12.836
55753SOL    HW169098   1.496   5.151  12.817
55753SOL    HW269099   1.638   5.200  12.831
55754SOL     OW69100   5.805   4.468  13.915
55754SOL    HW169101   5.884   4.415  13.930
55754SOL    HW269102   5.751   4.451  13.992
55755SOL     OW69103   0.437  14.545  13.733
55755SOL    HW169104   0.384  14.580  13.805
55755SOL    HW269105   0.510  14.606  13.724
55756SOL     OW69106   9.347   7.537   4.913
55756SOL    HW169107   9.410   7.600   4.951
55756SOL    HW269108   9.326   7.479   4.986
55757SOL     OW69109   1.815   9.056  12.766
55757SOL    HW169110   1.895   9.005  12.779
55757SOL    HW269111   1.759   9.000  12.712
55758SOL     OW69112   7.914   5.910   0.791
55758SOL    HW169113   7.874   5.861   0.863
55758SOL    HW269114   7.968   5.846   0.746
55759SOL     OW69115   7.291  13.897   4.053
55759SOL    HW169116   7.377  13.862   4.076
55759SOL    HW269117   7.278  13.871   3.962
55760SOL     OW69118  11.008   3.818   6.600
55760SOL    HW169119  11.062   3.874   6.544
55760SOL    HW269120  11.069   3.753   6.634
55761SOL     OW69121   9.965  12.304  11.621
55761SOL    HW169122   9.985  12.393  11.648
55761SOL    HW269123  10.008  12.248  11.686
55762SOL     OW69124   4.092   0.822  10.361
55762SOL    HW169125   4.112   0.791  10.449
55762SOL    HW269126   3.997   0.821  10.355
55763SOL     OW69127  13.652   4.207   3.402
55763SOL    HW169128  13.574   4.189   3.453
55763SOL    HW269129  13.657   4.303   3.399
55764SOL     OW69130  12.280   2.093   7.377
55764SOL    HW169131  12.206   2.097   7.438
55764SOL    HW269132  12.246   2.046   7.301
55765SOL     OW69133   9.761  11.985  13.020
55765SOL    HW169134   9.694  12.007  12.956
55765SOL    HW269135   9.844  12.003  12.975
55766SOL     OW69136  11.204   4.764   6.553
55766SOL    HW169137  11.164   4.721   6.477
55766SOL    HW269138  11.131   4.811   6.594
55767SOL     OW69139   5.828  14.779  10.773
55767SOL    HW169140   5.848  14.806  10.863
55767SOL    HW269141   5.870  14.845  10.718
55768SOL     OW69142   8.922   6.913   2.141
55768SOL    HW169143   8.917   6.910   2.045
55768SOL    HW269144   8.981   6.986   2.160
55769SOL     OW69145  14.396   0.941   1.964
55769SOL    HW169146  14.365   0.977   2.047
55769SOL    HW269147  14.489   0.965   1.960
55770SOL     OW69148   2.168   8.834   4.904
55770SOL    HW169149   2.183   8.787   4.985
55770SOL    HW269150   2.253   8.872   4.882
55771SOL     OW69151   0.784   7.524  11.372
55771SOL    HW169152   0.767   7.430  11.369
55771SOL    HW269153   0.878   7.533  11.356
55772SOL     OW69154   1.645   6.703   2.492
55772SOL    HW169155   1.716   6.661   2.539
55772SOL    HW269156   1.643   6.793   2.526
55773SOL     OW69157   9.780   4.221  11.412
55773SOL    HW169158   9.841   4.289  11.440
55773SOL    HW269159   9.706   4.228  11.472
55774SOL     OW69160  13.751   4.447   9.541
55774SOL    HW169161  13.786   4.464   9.454
55774SOL    HW269162  13.736   4.352   9.543
55775SOL     OW69163   1.655  11.271  12.629
55775SOL    HW169164   1.693  11.356  12.605
55775SOL    HW269165   1.710  11.240  12.700
55776SOL     OW69166  13.162   8.421   1.287
55776SOL    HW169167  13.079   8.383   1.261
55776SOL    HW269168  13.215   8.346   1.315
55777SOL     OW69169   3.234   6.881   4.923
55777SOL    HW169170   3.327   6.893   4.944
55777SOL    HW269171   3.204   6.968   4.897
55778SOL     OW69172   5.343   6.862  10.094
55778SOL    HW169173   5.356   6.792  10.158
55778SOL    HW269174   5.252   6.888  10.104
55779SOL     OW69175   8.783   6.054  14.469
55779SOL    HW169176   8.705   6.010  14.434
55779SOL    HW269177   8.767   6.147  14.453
55780SOL     OW69178   7.538   8.817   1.233
55780SOL    HW169179   7.533   8.749   1.166
55780SOL    HW269180   7.622   8.859   1.219
55781SOL     OW69181   5.025   1.684   4.073
55781SOL    HW169182   5.015   1.665   3.979
55781SOL    HW269183   5.023   1.598   4.115
55782SOL     OW69184  11.002   7.783  14.460
55782SOL    HW169185  11.044   7.705  14.424
55782SOL    HW269186  10.921   7.791  14.410
55783SOL     OW69187  10.984   6.442  11.734
55783SOL    HW169188  10.907   6.416  11.684
55783SOL    HW269189  11.044   6.480  11.669
55784SOL     OW69190  14.670   2.846   0.507
55784SOL    HW169191  14.714   2.766   0.481
55784SOL    HW269192  14.664   2.897   0.426
55785SOL     OW69193  14.562   9.586   6.450
55785SOL    HW169194  14.523   9.594   6.363
55785SOL    HW269195  14.494   9.544   6.503
55786SOL     OW69196   9.433   2.244   3.556
55786SOL    HW169197   9.471   2.184   3.620
55786SOL    HW269198   9.499   2.252   3.488
55787SOL     OW69199   1.167   0.061   2.932
55787SOL    HW169200   1.094   0.033   2.987
55787SOL    HW269201   1.242   0.063   2.991
55788SOL     OW69202  13.049  10.579   9.788
55788SOL    HW169203  12.984  10.510   9.775
55788SOL    HW269204  13.021  10.651   9.731
55789SOL     OW69205   3.063   5.197   1.017
55789SOL    HW169206   3.062   5.273   0.958
55789SOL    HW269207   2.971   5.182   1.039
55790SOL     OW69208   8.440   2.559  13.416
55790SOL    HW169209   8.367   2.534  13.360
55790SOL    HW269210   8.488   2.625  13.365
55791SOL     OW69211  10.148  12.775   3.229
55791SOL    HW169212  10.058  12.760   3.258
55791SOL    HW269213  10.160  12.714   3.156
55792SOL     OW69214   9.061   6.503  10.458
55792SOL    HW169215   9.054   6.409  10.476
55792SOL    HW269216   9.055   6.509  10.363
55793SOL     OW69217  12.041  14.478  14.054
55793SOL    HW169218  12.132  14.463  14.028
55793SOL    HW269219  12.024  14.414  14.122
55794SOL     OW69220  12.204  14.649  12.588
55794SOL    HW169221  12.294  14.650  12.556
55794SOL    HW269222  12.181  14.556  12.590
55795SOL     OW69223  10.410   6.788   7.324
55795SOL    HW169224  10.344   6.837   7.275
55795SOL    HW269225  10.366   6.765   7.406
55796SOL     OW69226   7.526  11.412   0.992
55796SOL    HW169227   7.529  11.316   0.996
55796SOL    HW269228   7.550  11.433   0.901
55797SOL     OW69229   7.586  12.794   0.517
55797SOL    HW169230   7.674  12.765   0.540
55797SOL    HW269231   7.599  12.861   0.449
55798SOL     OW69232   8.602   0.168   1.362
55798SOL    HW169233   8.656   0.108   1.310
55798SOL    HW269234   8.587   0.242   1.304
55799SOL     OW69235  13.224   6.895   1.040
55799SOL    HW169236  13.282   6.870   0.968
55799SOL    HW269237  13.283   6.927   1.109
55800SOL     OW69238   7.292   3.274  14.003
55800SOL    HW169239   7.336   3.359  14.006
55800SOL    HW269240   7.271   3.261  13.911
55801SOL     OW69241   9.879  13.596  12.275
55801SOL    HW169242   9.792  13.557  12.283
55801SOL    HW269243   9.921  13.577  12.359
55802SOL     OW69244  11.517  13.450  12.357
55802SOL    HW169245  11.493  13.495  12.438
55802SOL    HW269246  11.554  13.367  12.387
55803SOL     OW69247  12.125  11.640  12.497
55803SOL    HW169248  12.167  11.573  12.444
55803SOL    HW269249  12.060  11.680  12.439
55804SOL     OW69250   8.440   3.583  12.980
55804SOL    HW169251   8.351   3.614  12.960
55804SOL    HW269252   8.484   3.659  13.017
55805SOL     OW69253  14.227   3.561  12.502
55805SOL    HW169254  14.249   3.575  12.595
55805SOL    HW269255  14.294   3.610  12.454
55806SOL     OW69256   4.212  13.322  14.821
55806SOL    HW169257   4.199  13.262   0.014
55806SOL    HW269258   4.292  13.370  14.843
55807SOL     OW69259  13.648   1.598   5.118
55807SOL    HW169260  13.601   1.519   5.147
55807SOL    HW269261  13.600   1.628   5.041
55808SOL     OW69262  11.460  10.921   7.084
55808SOL    HW169263  11.410  10.935   7.164
55808SOL    HW269264  11.517  10.998   7.078
55809SOL     OW69265   5.651  13.712  10.491
55809SOL    HW169266   5.728  13.689  10.543
55809SOL    HW269267   5.656  13.807  10.482
55810SOL     OW69268   6.020  10.492   4.128
55810SOL    HW169269   6.052  10.579   4.149
55810SOL    HW269270   6.080  10.459   4.062
55811SOL     OW69271   8.381   5.136   4.326
55811SOL    HW169272   8.328   5.117   4.404
55811SOL    HW269273   8.398   5.230   4.331
55812SOL     OW69274   6.693   8.630   0.439
55812SOL    HW169275   6.613   8.641   0.388
55812SOL    HW269276   6.692   8.539   0.467
55813SOL     OW69277   1.487   9.420   4.168
55813SOL    HW169278   1.399   9.418   4.132
55813SOL    HW269279   1.491   9.500   4.219
55814SOL     OW69280   5.619  12.458  14.354
55814SOL    HW169281   5.647  12.378  14.309
55814SOL    HW269282   5.649  12.446  14.444
55815SOL     OW69283   9.822   1.148   1.007
55815SOL    HW169284   9.871   1.223   1.041
55815SOL    HW269285   9.880   1.073   1.020
55816SOL     OW69286   1.319   9.400   0.539
55816SOL    HW169287   1.412   9.420   0.535
55816SOL    HW269288   1.313   9.322   0.595
55817SOL     OW69289   3.432  11.885  12.441
55817SOL    HW169290   3.465  11.965  12.482
55817SOL    HW269291   3.511  11.832  12.426
55818SOL     OW69292   4.799   8.161   0.126
55818SOL    HW169293   4.868   8.095   0.132
55818SOL    HW269294   4.819   8.209   0.046
55819SOL     OW69295   0.129   9.707   2.687
55819SOL    HW169296   0.096   9.797   2.682
55819SOL    HW269297   0.224   9.716   2.696
55820SOL     OW69298  13.270   1.785   3.150
55820SOL    HW169299  13.259   1.824   3.063
55820SOL    HW269300  13.181   1.773   3.182
55821SOL     OW69301   8.917   6.986   1.020
55821SOL    HW169302   8.967   7.062   0.990
55821SOL    HW269303   8.835   6.990   0.970
55822SOL     OW69304   9.223   9.709   3.424
55822SOL    HW169305   9.161   9.663   3.368
55822SOL    HW269306   9.181   9.793   3.442
55823SOL     OW69307   5.600   1.547   0.425
55823SOL    HW169308   5.613   1.505   0.340
55823SOL    HW269309   5.683   1.533   0.471
55824SOL     OW69310  12.854   8.656   6.524
55824SOL    HW169311  12.920   8.674   6.457
55824SOL    HW269312  12.882   8.707   6.600
55825SOL     OW69313   4.091   5.493   7.462
55825SOL    HW169314   4.001   5.513   7.435
55825SOL    HW269315   4.146   5.546   7.406
55826SOL     OW69316   2.096   8.413  10.862
55826SOL    HW169317   2.113   8.478  10.931
55826SOL    HW269318   2.181   8.372  10.846
55827SOL     OW69319   4.933   8.874  12.356
55827SOL    HW169320   4.933   8.795  12.409
55827SOL    HW269321   5.025   8.885  12.331
55828SOL     OW69322  10.370   6.909   5.767
55828SOL    HW169323  10.408   6.997   5.775
55828SOL    HW269324  10.366   6.876   5.856
55829SOL     OW69325  13.478   5.868   9.614
55829SOL    HW169326  13.449   5.869   9.522
55829SOL    HW269327  13.397   5.871   9.664
55830SOL     OW69328  11.595   3.746  12.348
55830SOL    HW169329  11.574   3.713  12.436
55830SOL    HW269330  11.612   3.839  12.361
55831SOL     OW69331   6.825   0.364   9.680
55831SOL    HW169332   6.881   0.371   9.602
55831SOL    HW269333   6.885   0.372   9.754
55832SOL     OW69334  14.621  14.194  13.578
55832SOL    HW169335  14.648  14.165  13.665
55832SOL    HW269336  14.544  14.140  13.558
55833SOL     OW69337   1.880   7.823  14.039
55833SOL    HW169338   1.827   7.866  13.971
55833SOL    HW269339   1.832   7.839  14.120
55834SOL     OW69340  11.415   6.613   1.822
55834SOL    HW169341  11.449   6.700   1.803
55834SOL    HW269342  11.337   6.628   1.875
55835SOL     OW69343   6.751   5.488   2.776
55835SOL    HW169344   6.741   5.554   2.708
55835SOL    HW269345   6.828   5.437   2.749
55836SOL     OW69346   4.993  10.358   8.860
55836SOL    HW169347   4.921  10.336   8.801
55836SOL    HW269348   5.062  10.295   8.838
55837SOL     OW69349   7.448   2.909   0.207
55837SOL    HW169350   7.429   2.943   0.294
55837SOL    HW269351   7.418   2.818   0.209
55838SOL     OW69352   5.951   5.117   6.508
55838SOL    HW169353   5.991   5.204   6.512
55838SOL    HW269354   5.857   5.134   6.505
55839SOL     OW69355   3.626  12.052   2.621
55839SOL    HW169356   3.595  12.109   2.550
55839SOL    HW269357   3.638  12.111   2.695
55840SOL     OW69358  11.072   0.616   2.916
55840SOL    HW169359  11.146   0.587   2.970
55840SOL    HW269360  11.076   0.560   2.838
55841SOL     OW69361  13.947   0.735   9.729
55841SOL    HW169362  14.041   0.714   9.725
55841SOL    HW269363  13.914   0.708   9.643
55842SOL     OW69364  13.288  14.201   2.906
55842SOL    HW169365  13.206  14.248   2.915
55842SOL    HW269366  13.289  14.140   2.980
55843SOL     OW69367   9.664  10.748  11.538
55843SOL    HW169368   9.735  10.758  11.600
55843SOL    HW269369   9.589  10.792  11.579
55844SOL     OW69370   8.247   0.978   9.049
55844SOL    HW169371   8.164   0.949   9.085
55844SOL    HW269372   8.294   1.017   9.122
55845SOL     OW69373  14.683  11.887  14.258
55845SOL    HW169374  14.766  11.931  14.242
55845SOL    HW269375  14.690  11.804  14.211
55846SOL     OW69376  14.320   2.136  13.373
55846SOL    HW169377  14.290   2.078  13.443
55846SOL    HW269378  14.316   2.224  13.411
55847SOL     OW69379   1.859   8.784  10.098
55847SOL    HW169380   1.914   8.844  10.148
55847SOL    HW269381   1.775   8.829  10.089
55848SOL     OW69382  14.227  13.710   1.567
55848SOL    HW169383  14.295  13.772   1.540
55848SOL    HW269384  14.210  13.657   1.489
55849SOL     OW69385   3.258   9.182   9.514
55849SOL    HW169386   3.215   9.101   9.483
55849SOL    HW269387   3.265   9.236   9.436
55850SOL     OW69388   2.120   9.190  10.624
55850SOL    HW169389   2.209   9.184  10.589
55850SOL    HW269390   2.071   9.126  10.574
55851SOL     OW69391   8.632  13.486   7.379
55851SOL    HW169392   8.652  13.567   7.427
55851SOL    HW269393   8.541  13.467   7.402
55852SOL     OW69394  14.340   5.139   7.031
55852SOL    HW169395  14.364   5.080   7.103
55852SOL    HW269396  14.263   5.185   7.063
55853SOL     OW69397   4.408  12.490   0.485
55853SOL    HW169398   4.395  12.452   0.572
55853SOL    HW269399   4.418  12.414   0.427
55854SOL     OW69400   1.318   0.645   2.179
55854SOL    HW169401   1.379   0.574   2.198
55854SOL    HW269402   1.323   0.702   2.255
55855SOL     OW69403   6.266   6.554   5.974
55855SOL    HW169404   6.340   6.494   5.980
55855SOL    HW269405   6.294   6.622   5.914
55856SOL     OW69406  11.297   1.724   1.318
55856SOL    HW169407  11.251   1.684   1.244
55856SOL    HW269408  11.333   1.650   1.367
55857SOL     OW69409  13.196   4.497   5.959
55857SOL    HW169410  13.278   4.485   6.007
55857SOL    HW269411  13.220   4.554   5.886
55858SOL     OW69412  12.082   2.347   2.796
55858SOL    HW169413  12.145   2.318   2.862
55858SOL    HW269414  12.131   2.348   2.714
55859SOL     OW69415  12.703  12.923   4.746
55859SOL    HW169416  12.712  12.924   4.841
55859SOL    HW269417  12.745  13.004   4.717
55860SOL     OW69418   2.547   9.317   0.555
55860SOL    HW169419   2.524   9.397   0.509
55860SOL    HW269420   2.619   9.343   0.613
55861SOL     OW69421   7.489  10.246  11.078
55861SOL    HW169422   7.398  10.216  11.071
55861SOL    HW269423   7.486  10.337  11.047
55862SOL     OW69424   1.294   2.398   7.738
55862SOL    HW169425   1.218   2.374   7.686
55862SOL    HW269426   1.274   2.487   7.769
55863SOL     OW69427   2.486  14.685   9.642
55863SOL    HW169428   2.523  14.747   9.704
55863SOL    HW269429   2.559  14.626   9.621
55864SOL     OW69430   1.781  12.026   1.499
55864SOL    HW169431   1.827  12.042   1.417
55864SOL    HW269432   1.735  12.108   1.518
55865SOL     OW69433   5.979   1.187   8.452
55865SOL    HW169434   5.919   1.242   8.502
55865SOL    HW269435   5.958   1.205   8.360
55866SOL     OW69436   4.303   3.452   4.492
55866SOL    HW169437   4.340   3.377   4.539
55866SOL    HW269438   4.377   3.487   4.441
55867SOL     OW69439   4.765   3.875  12.952
55867SOL    HW169440   4.728   3.944  13.007
55867SOL    HW269441   4.689   3.837  12.907
55868SOL     OW69442   5.271   9.776   2.921
55868SOL    HW169443   5.180   9.795   2.898
55868SOL    HW269444   5.265   9.704   2.985
55869SOL     OW69445   0.858  11.858   0.411
55869SOL    HW169446   0.787  11.823   0.465
55869SOL    HW269447   0.882  11.941   0.453
55870SOL     OW69448  12.472   8.322  10.935
55870SOL    HW169449  12.436   8.351  11.019
55870SOL    HW269450  12.396   8.296  10.883
55871SOL     OW69451  10.917   9.864  10.065
55871SOL    HW169452  10.960   9.914   9.996
55871SOL    HW269453  10.922   9.773  10.036
55872SOL     OW69454  11.711  14.452   8.784
55872SOL    HW169455  11.620  14.441   8.812
55872SOL    HW269456  11.712  14.423   8.692
55873SOL     OW69457   0.102   6.505   2.663
55873SOL    HW169458   0.194   6.491   2.683
55873SOL    HW269459   0.095   6.599   2.645
55874SOL     OW69460   2.337   4.804   0.066
55874SOL    HW169461   2.300   4.747  14.879
55874SOL    HW269462   2.265   4.864   0.089
55875SOL     OW69463   9.974  12.824  11.060
55875SOL    HW169464   9.999  12.802  11.150
55875SOL    HW269465   9.910  12.894  11.070
55876SOL     OW69466   8.534   9.666   3.148
55876SOL    HW169467   8.620   9.668   3.106
55876SOL    HW269468   8.481   9.728   3.099
55877SOL     OW69469   5.122   2.743   0.410
55877SOL    HW169470   5.078   2.769   0.329
55877SOL    HW269471   5.057   2.757   0.478
55878SOL     OW69472   7.843   2.088   5.258
55878SOL    HW169473   7.889   2.049   5.333
55878SOL    HW269474   7.893   2.059   5.182
55879SOL     OW69475  11.538   9.650  12.827
55879SOL    HW169476  11.463   9.629  12.772
55879SOL    HW269477  11.603   9.684  12.765
55880SOL     OW69478   3.547  14.278   3.949
55880SOL    HW169479   3.629  14.227   3.954
55880SOL    HW269480   3.550  14.335   4.025
55881SOL     OW69481   0.078   4.073  12.475
55881SOL    HW169482   0.084   4.017  12.397
55881SOL    HW269483   0.144   4.037  12.534
55882SOL     OW69484   3.632   6.629  12.897
55882SOL    HW169485   3.715   6.635  12.850
55882SOL    HW269486   3.653   6.582  12.977
55883SOL     OW69487  10.674  13.173   4.918
55883SOL    HW169488  10.741  13.127   4.968
55883SOL    HW269489  10.722  13.211   4.844
55884SOL     OW69490   2.245   5.269  11.220
55884SOL    HW169491   2.280   5.228  11.299
55884SOL    HW269492   2.279   5.359  11.223
55885SOL     OW69493  10.047   7.730  11.046
55885SOL    HW169494  10.134   7.763  11.067
55885SOL    HW269495   9.987   7.797  11.079
55886SOL     OW69496   4.026   2.802   3.813
55886SOL    HW169497   3.955   2.803   3.877
55886SOL    HW269498   4.025   2.713   3.776
55887SOL     OW69499   7.479   0.800  12.800
55887SOL    HW169500   7.507   0.789  12.891
55887SOL    HW269501   7.476   0.894  12.787
55888SOL     OW69502   4.490   0.808   4.959
55888SOL    HW169503   4.447   0.893   4.953
55888SOL    HW269504   4.450   0.766   5.036
55889SOL     OW69505   3.572   6.516  13.287
55889SOL    HW169506   3.607   6.549  13.369
55889SOL    HW269507   3.649   6.483  13.240
55890SOL     OW69508  14.497  13.118  14.505
55890SOL    HW169509  14.540  13.193  14.547
55890SOL    HW269510  14.564  13.083  14.447
55891SOL     OW69511   4.422   8.308  14.355
55891SOL    HW169512   4.497   8.293  14.411
55891SOL    HW269513   4.394   8.220  14.328
55892SOL     OW69514   2.088   9.942   8.013
55892SOL    HW169515   2.154   9.876   8.037
55892SOL    HW269516   2.033   9.898   7.948
55893SOL     OW69517  12.061   3.311   7.389
55893SOL    HW169518  12.051   3.265   7.472
55893SOL    HW269519  12.141   3.362   7.399
55894SOL     OW69520   2.046   5.224   2.102
55894SOL    HW169521   2.032   5.319   2.109
55894SOL    HW269522   2.141   5.214   2.101
55895SOL     OW69523   2.329   5.091   9.219
55895SOL    HW169524   2.305   5.131   9.303
55895SOL    HW269525   2.263   5.123   9.158
55896SOL     OW69526  13.664   3.743   7.550
55896SOL    HW169527  13.588   3.686   7.552
55896SOL    HW269528  13.683   3.756   7.457
55897SOL     OW69529  14.478   8.615  10.279
55897SOL    HW169530  14.479   8.698  10.232
55897SOL    HW269531  14.530   8.631  10.358
55898SOL     OW69532   8.374   3.762   9.857
55898SOL    HW169533   8.395   3.758   9.951
55898SOL    HW269534   8.309   3.831   9.850
55899SOL     OW69535   4.549  10.721  14.413
55899SOL    HW169536   4.521  10.810  14.395
55899SOL    HW269537   4.584  10.689  14.330
55900SOL     OW69538  14.244   5.626   0.668
55900SOL    HW169539  14.234   5.720   0.684
55900SOL    HW269540  14.189   5.585   0.735
55901SOL     OW69541  12.877  12.544  14.419
55901SOL    HW169542  12.885  12.547  14.323
55901SOL    HW269543  12.960  12.578  14.451
55902SOL     OW69544   6.913   4.716   3.954
55902SOL    HW169545   6.871   4.760   4.028
55902SOL    HW269546   6.857   4.736   3.879
55903SOL     OW69547   4.708   0.914   5.262
55903SOL    HW169548   4.620   0.951   5.268
55903SOL    HW269549   4.732   0.894   5.353
55904SOL     OW69550   4.246   3.156   7.947
55904SOL    HW169551   4.313   3.191   8.006
55904SOL    HW269552   4.185   3.229   7.935
55905SOL     OW69553  11.436   4.955  10.437
55905SOL    HW169554  11.460   5.007  10.361
55905SOL    HW269555  11.514   4.904  10.457
55906SOL     OW69556   5.152   5.977  14.146
55906SOL    HW169557   5.242   5.988  14.175
55906SOL    HW269558   5.099   6.010  14.219
55907SOL     OW69559   3.599   3.376   8.641
55907SOL    HW169560   3.572   3.467   8.643
55907SOL    HW269561   3.685   3.377   8.600
55908SOL     OW69562  14.106  11.176   5.179
55908SOL    HW169563  14.140  11.099   5.223
55908SOL    HW269564  14.167  11.192   5.107
55909SOL     OW69565   0.350   5.776   1.064
55909SOL    HW169566   0.390   5.810   1.143
55909SOL    HW269567   0.256   5.782   1.080
55910SOL     OW69568   9.399   0.388  10.862
55910SOL    HW169569   9.399   0.442  10.941
55910SOL    HW269570   9.367   0.303  10.891
55911SOL     OW69571  12.300   0.423   7.061
55911SOL    HW169572  12.356   0.352   7.091
55911SOL    HW269573  12.317   0.495   7.122
55912SOL     OW69574   3.058   7.533   4.228
55912SOL    HW169575   2.973   7.546   4.186
55912SOL    HW269576   3.103   7.617   4.218
55913SOL     OW69577   8.142   4.316   9.547
55913SOL    HW169578   8.171   4.315   9.638
55913SOL    HW269579   8.086   4.394   9.540
55914SOL     OW69580  10.487   8.911  11.067
55914SOL    HW169581  10.561   8.964  11.097
55914SOL    HW269582  10.410   8.958  11.099
55915SOL     OW69583  12.035   7.017   5.420
55915SOL    HW169584  11.941   7.001   5.412
55915SOL    HW269585  12.050   7.096   5.368
55916SOL     OW69586  12.605   4.197   9.955
55916SOL    HW169587  12.642   4.129  10.012
55916SOL    HW269588  12.672   4.266   9.953
55917SOL     OW69589   5.516   5.487   3.537
55917SOL    HW169590   5.574   5.454   3.606
55917SOL    HW269591   5.464   5.555   3.580
55918SOL     OW69592  13.075  13.984   0.808
55918SOL    HW169593  13.008  13.939   0.859
55918SOL    HW269594  13.051  13.968   0.717
55919SOL     OW69595  14.550  11.681   1.304
55919SOL    HW169596  14.498  11.635   1.371
55919SOL    HW269597  14.521  11.772   1.310
55920SOL     OW69598   5.150   7.535  11.567
55920SOL    HW169599   5.101   7.462  11.606
55920SOL    HW269600   5.175   7.504  11.480
55921SOL     OW69601  13.726   1.520   0.821
55921SOL    HW169602  13.820   1.529   0.836
55921SOL    HW269603  13.697   1.608   0.797
55922SOL     OW69604   8.660   1.308  12.410
55922SOL    HW169605   8.678   1.217  12.384
55922SOL    HW269606   8.654   1.355  12.327
55923SOL     OW69607   7.203   1.398  13.615
55923SOL    HW169608   7.221   1.491  13.628
55923SOL    HW269609   7.289   1.358  13.609
55924SOL     OW69610  11.696   8.120   8.706
55924SOL    HW169611  11.634   8.048   8.722
55924SOL    HW269612  11.768   8.080   8.658
55925SOL     OW69613  14.768   6.295   6.559
55925SOL    HW169614  14.810   6.380   6.577
55925SOL    HW269615  14.681   6.303   6.598
55926SOL     OW69616   5.129   5.302   8.947
55926SOL    HW169617   5.147   5.250   9.025
55926SOL    HW269618   5.072   5.247   8.894
55927SOL     OW69619  13.286   5.771  10.043
55927SOL    HW169620  13.211   5.829  10.056
55927SOL    HW269621  13.327   5.765  10.129
55928SOL     OW69622   3.999  13.864   3.129
55928SOL    HW169623   3.967  13.783   3.089
55928SOL    HW269624   4.053  13.835   3.202
55929SOL     OW69625  12.707   7.851  13.895
55929SOL    HW169626  12.621   7.810  13.881
55929SOL    HW269627  12.742   7.862  13.807
55930SOL     OW69628   2.493   0.670  13.151
55930SOL    HW169629   2.486   0.753  13.198
55930SOL    HW269630   2.402   0.642  13.140
55931SOL     OW69631   9.274   2.876   5.866
55931SOL    HW169632   9.307   2.958   5.828
55931SOL    HW269633   9.181   2.892   5.881
55932SOL     OW69634   3.394   7.083   6.790
55932SOL    HW169635   3.467   7.033   6.752
55932SOL    HW269636   3.416   7.175   6.771
55933SOL     OW69637   5.242   8.942  13.536
55933SOL    HW169638   5.212   8.972  13.450
55933SOL    HW269639   5.194   8.997  13.598
55934SOL     OW69640   6.785   5.881  11.540
55934SOL    HW169641   6.709   5.830  11.566
55934SOL    HW269642   6.814   5.843  11.458
55935SOL     OW69643  10.270  13.389  11.261
55935SOL    HW169644  10.270  13.295  11.242
55935SOL    HW269645  10.182  13.418  11.236
55936SOL     OW69646  11.101   4.993   8.470
55936SOL    HW169647  11.050   4.973   8.549
55936SOL    HW269648  11.056   4.945   8.400
55937SOL     OW69649   0.777   6.075  10.645
55937SOL    HW169650   0.697   6.126  10.653
55937SOL    HW269651   0.818   6.082  10.732
55938SOL     OW69652   5.615  13.484  13.594
55938SOL    HW169653   5.641  13.568  13.630
55938SOL    HW269654   5.530  13.501  13.553
55939SOL     OW69655   4.060   4.654   1.156
55939SOL    HW169656   4.070   4.567   1.194
55939SOL    HW269657   4.030   4.708   1.228
55940SOL     OW69658   1.745   5.756   7.773
55940SOL    HW169659   1.709   5.748   7.685
55940SOL    HW269660   1.681   5.807   7.822
55941SOL     OW69661   7.308   6.336  13.717
55941SOL    HW169662   7.318   6.414  13.662
55941SOL    HW269663   7.258   6.275  13.663
55942SOL     OW69664   1.091   7.087   1.256
55942SOL    HW169665   1.059   7.065   1.344
55942SOL    HW269666   1.121   7.003   1.220
55943SOL     OW69667  12.385   9.988   8.785
55943SOL    HW169668  12.404   9.930   8.711
55943SOL    HW269669  12.438  10.066   8.769
55944SOL     OW69670  14.454   6.341   2.374
55944SOL    HW169671  14.464   6.406   2.444
55944SOL    HW269672  14.528   6.357   2.316
55945SOL     OW69673   9.554  14.678   4.580
55945SOL    HW169674   9.644  14.647   4.575
55945SOL    HW269675   9.531  14.671   4.673
55946SOL     OW69676   8.271   1.385   4.184
55946SOL    HW169677   8.215   1.313   4.213
55946SOL    HW269678   8.211   1.446   4.141
55947SOL     OW69679   1.349  10.916   9.890
55947SOL    HW169680   1.305  10.938   9.808
55947SOL    HW269681   1.439  10.897   9.865
55948SOL     OW69682   6.212   4.727  10.552
55948SOL    HW169683   6.279   4.738  10.620
55948SOL    HW269684   6.241   4.651  10.502
55949SOL     OW69685   3.310  13.702   5.346
55949SOL    HW169686   3.357  13.661   5.274
55949SOL    HW269687   3.310  13.636   5.416
55950SOL     OW69688   0.000   1.759   9.246
55950SOL    HW169689  14.878   1.722   9.157
55950SOL    HW269690   0.093   1.760   9.269
55951SOL     OW69691   4.020   5.142  11.749
55951SOL    HW169692   3.984   5.178  11.830
55951SOL    HW269693   4.082   5.076  11.778
55952SOL     OW69694   4.915  13.381   5.098
55952SOL    HW169695   4.854  13.451   5.123
55952SOL    HW269696   4.875  13.301   5.133
55953SOL     OW69697   5.688   3.211   5.228
55953SOL    HW169698   5.693   3.175   5.316
55953SOL    HW269699   5.674   3.305   5.240
55954SOL     OW69700   6.626   7.890   6.920
55954SOL    HW169701   6.608   7.953   6.990
55954SOL    HW269702   6.678   7.939   6.857
55955SOL     OW69703   1.716   4.773  10.222
55955SOL    HW169704   1.701   4.755  10.129
55955SOL    HW269705   1.644   4.728  10.267
55956SOL     OW69706   3.689  14.089  11.497
55956SOL    HW169707   3.764  14.041  11.463
55956SOL    HW269708   3.681  14.059  11.588
55957SOL     OW69709  14.731  13.353   0.173
55957SOL    HW169710  14.755  13.401   0.252
55957SOL    HW269711  14.662  13.406   0.133
55958SOL     OW69712   7.482   1.628  10.182
55958SOL    HW169713   7.543   1.698  10.204
55958SOL    HW269714   7.410   1.671  10.138
55959SOL     OW69715   5.562   8.702  10.212
55959SOL    HW169716   5.559   8.611  10.181
55959SOL    HW269717   5.656   8.719  10.226
55960SOL     OW69718   5.612  11.494   9.962
55960SOL    HW169719   5.683  11.552   9.990
55960SOL    HW269720   5.555  11.549   9.909
55961SOL     OW69721   8.424  13.175  10.857
55961SOL    HW169722   8.429  13.153  10.950
55961SOL    HW269723   8.510  13.150  10.821
55962SOL     OW69724   0.995   4.210   6.809
55962SOL    HW169725   1.072   4.160   6.837
55962SOL    HW269726   0.951   4.233   6.891
55963SOL     OW69727  14.773   8.161  10.556
55963SOL    HW169728  14.841   8.101  10.526
55963SOL    HW269729  14.712   8.167  10.483
55964SOL     OW69730  11.738   4.859  14.162
55964SOL    HW169731  11.660   4.868  14.216
55964SOL    HW269732  11.762   4.949  14.139
55965SOL     OW69733   7.236   4.503   3.165
55965SOL    HW169734   7.188   4.468   3.240
55965SOL    HW269735   7.279   4.426   3.127
55966SOL     OW69736   7.953   9.968   1.935
55966SOL    HW169737   8.013   9.921   1.993
55966SOL    HW269738   7.945  10.055   1.974
55967SOL     OW69739   5.907   9.173   4.081
55967SOL    HW169740   5.827   9.224   4.093
55967SOL    HW269741   5.937   9.153   4.169
55968SOL     OW69742   5.300  13.640   8.460
55968SOL    HW169743   5.255  13.597   8.532
55968SOL    HW269744   5.231  13.656   8.395
55969SOL     OW69745   5.535   9.655   6.339
55969SOL    HW169746   5.628   9.673   6.352
55969SOL    HW269747   5.490   9.733   6.370
55970SOL     OW69748   1.063   1.630  13.113
55970SOL    HW169749   1.035   1.551  13.067
55970SOL    HW269750   1.158   1.619  13.124
55971SOL     OW69751  11.924   0.468  13.945
55971SOL    HW169752  11.907   0.548  13.993
55971SOL    HW269753  12.006   0.484  13.899
55972SOL     OW69754  11.227   5.746  14.565
55972SOL    HW169755  11.271   5.664  14.545
55972SOL    HW269756  11.278   5.812  14.517
55973SOL     OW69757   5.781   8.356  12.783
55973SOL    HW169758   5.718   8.363  12.855
55973SOL    HW269759   5.865   8.381  12.821
55974SOL     OW69760   6.526   4.373  10.743
55974SOL    HW169761   6.475   4.343  10.668
55974SOL    HW269762   6.591   4.304  10.758
55975SOL     OW69763   1.895   4.477  12.501
55975SOL    HW169764   1.879   4.557  12.451
55975SOL    HW269765   1.954   4.505  12.572
55976SOL     OW69766  11.796   7.744  11.589
55976SOL    HW169767  11.715   7.693  11.601
55976SOL    HW269768  11.861   7.696  11.640
55977SOL     OW69769   8.638  10.395  11.332
55977SOL    HW169770   8.664  10.470  11.280
55977SOL    HW269771   8.543  10.390  11.321
55978SOL     OW69772  10.612   1.677  14.348
55978SOL    HW169773  10.658   1.602  14.310
55978SOL    HW269774  10.642   1.680  14.439
55979SOL     OW69775  11.789   4.524  12.950
55979SOL    HW169776  11.727   4.453  12.967
55979SOL    HW269777  11.875   4.485  12.967
55980SOL     OW69778   8.815   8.346  13.847
55980SOL    HW169779   8.862   8.392  13.915
55980SOL    HW269780   8.797   8.260  13.884
55981SOL     OW69781  11.481   6.282   2.641
55981SOL    HW169782  11.564   6.240   2.662
55981SOL    HW269783  11.506   6.366   2.601
55982SOL     OW69784   8.233   5.664   7.758
55982SOL    HW169785   8.236   5.755   7.729
55982SOL    HW269786   8.321   5.630   7.739
55983SOL     OW69787   8.353   0.436   6.250
55983SOL    HW169788   8.429   0.390   6.286
55983SOL    HW269789   8.305   0.369   6.202
55984SOL     OW69790   9.622   2.774   0.596
55984SOL    HW169791   9.602   2.746   0.685
55984SOL    HW269792   9.536   2.787   0.555
55985SOL     OW69793   6.247   8.024  14.128
55985SOL    HW169794   6.254   8.118  14.148
55985SOL    HW269795   6.239   8.020  14.033
55986SOL     OW69796   9.040  10.743   2.517
55986SOL    HW169797   9.132  10.730   2.541
55986SOL    HW269798   9.043  10.803   2.442
55987SOL     OW69799   6.228   0.130  11.687
55987SOL    HW169800   6.232   0.212  11.736
55987SOL    HW269801   6.260   0.153  11.600
55988SOL     OW69802  11.699   9.121   2.571
55988SOL    HW169803  11.706   9.188   2.503
55988SOL    HW269804  11.625   9.067   2.543
55989SOL     OW69805   0.189   7.375   3.738
55989SOL    HW169806   0.217   7.427   3.814
55989SOL    HW269807   0.119   7.426   3.698
55990SOL     OW69808   1.783   6.085   5.110
55990SOL    HW169809   1.738   6.168   5.100
55990SOL    HW269810   1.814   6.085   5.201
55991SOL     OW69811   6.147  12.241  10.259
55991SOL    HW169812   6.184  12.265  10.344
55991SOL    HW269813   6.053  12.260  10.269
55992SOL     OW69814   7.131   2.380   8.688
55992SOL    HW169815   7.154   2.383   8.781
55992SOL    HW269816   7.036   2.392   8.687
55993SOL     OW69817  13.497   1.857   2.178
55993SOL    HW169818  13.552   1.920   2.224
55993SOL    HW269819  13.483   1.897   2.092
55994SOL     OW69820  13.392   4.836   7.211
55994SOL    HW169821  13.324   4.770   7.223
55994SOL    HW269822  13.345   4.912   7.176
55995SOL     OW69823  11.577   3.762   4.262
55995SOL    HW169824  11.645   3.757   4.329
55995SOL    HW269825  11.541   3.851   4.270
55996SOL     OW69826  13.455   5.575   0.341
55996SOL    HW169827  13.540   5.536   0.322
55996SOL    HW269828  13.448   5.649   0.280
55997SOL     OW69829   4.082   5.698  11.744
55997SOL    HW169830   4.036   5.614  11.739
55997SOL    HW269831   4.175   5.675  11.744
55998SOL     OW69832  13.817   4.921   9.564
55998SOL    HW169833  13.880   4.852   9.544
55998SOL    HW269834  13.784   4.900   9.651
55999SOL     OW69835   0.447  12.351  11.796
55999SOL    HW169836   0.466  12.439  11.764
55999SOL    HW269837   0.505  12.340  11.871
56000SOL     OW69838   9.553   6.496  14.340
56000SOL    HW169839   9.499   6.429  14.383
56000SOL    HW269840   9.552   6.570  14.401
56001SOL     OW69841   0.602   8.196  14.836
56001SOL    HW169842   0.545   8.198  14.759
56001SOL    HW269843   0.688   8.172  14.801
56002SOL     OW69844   0.428  10.134   3.145
56002SOL    HW169845   0.375  10.138   3.225
56002SOL    HW269846   0.410  10.047   3.109
56003SOL     OW69847   8.643   0.402  14.302
56003SOL    HW169848   8.589   0.433  14.229
56003SOL    HW269849   8.598   0.433  14.381
56004SOL     OW69850   6.657   6.834   1.714
56004SOL    HW169851   6.619   6.912   1.753
56004SOL    HW269852   6.750   6.855   1.705
56005SOL     OW69853   7.190   6.793  11.487
56005SOL    HW169854   7.274   6.803  11.533
56005SOL    HW269855   7.130   6.850  11.535
56006SOL     OW69856   5.510  10.359   6.766
56006SOL    HW169857   5.466  10.297   6.709
56006SOL    HW269858   5.452  10.436   6.768
56007SOL     OW69859   7.733  11.085   9.974
56007SOL    HW169860   7.678  11.152  10.016
56007SOL    HW269861   7.822  11.119   9.983
56008SOL     OW69862   3.991   2.454  10.895
56008SOL    HW169863   3.962   2.371  10.931
56008SOL    HW269864   4.043   2.493  10.966
56009SOL     OW69865   8.973   5.403   8.364
56009SOL    HW169866   9.057   5.358   8.352
56009SOL    HW269867   8.940   5.416   8.275
56010SOL     OW69868   2.559   5.965   9.882
56010SOL    HW169869   2.619   5.927   9.947
56010SOL    HW269870   2.614   5.980   9.805
56011SOL     OW69871  12.036  10.554   8.189
56011SOL    HW169872  12.021  10.511   8.105
56011SOL    HW269873  12.105  10.617   8.171
56012SOL     OW69874   4.011   9.703   3.242
56012SOL    HW169875   4.081   9.747   3.193
56012SOL    HW269876   3.940   9.694   3.179
56013SOL     OW69877   7.934   3.178  12.417
56013SOL    HW169878   7.996   3.140  12.479
56013SOL    HW269879   7.989   3.216  12.348
56014SOL     OW69880   9.762   8.969   1.340
56014SOL    HW169881   9.806   8.975   1.425
56014SOL    HW269882   9.741   8.877   1.330
56015SOL     OW69883   5.116   9.324   9.278
56015SOL    HW169884   5.192   9.378   9.300
56015SOL    HW269885   5.153   9.242   9.246
56016SOL     OW69886  11.760   6.109  11.328
56016SOL    HW169887  11.785   6.029  11.375
56016SOL    HW269888  11.710   6.159  11.392
56017SOL     OW69889  10.291   9.911   4.198
56017SOL    HW169890  10.316   9.947   4.283
56017SOL    HW269891  10.375   9.890   4.156
56018SOL     OW69892   1.006  13.788   3.236
56018SOL    HW169893   1.001  13.758   3.327
56018SOL    HW269894   0.994  13.883   3.241
56019SOL     OW69895   1.930   2.833   0.833
56019SOL    HW169896   2.013   2.868   0.863
56019SOL    HW269897   1.864   2.878   0.886
56020SOL     OW69898   6.602  10.889   6.988
56020SOL    HW169899   6.644  10.804   7.001
56020SOL    HW269900   6.547  10.901   7.066
56021SOL     OW69901   3.698  13.716  13.318
56021SOL    HW169902   3.694  13.802  13.277
56021SOL    HW269903   3.666  13.656  13.251
56022SOL     OW69904  13.265   6.088   9.080
56022SOL    HW169905  13.285   6.028   9.008
56022SOL    HW269906  13.239   6.169   9.037
56023SOL     OW69907   1.329   7.068   0.105
56023SOL    HW169908   1.301   7.124   0.033
56023SOL    HW269909   1.253   7.013   0.124
56024SOL     OW69910  10.324  12.335   1.565
56024SOL    HW169911  10.253  12.276   1.591
56024SOL    HW269912  10.387  12.278   1.520
56025SOL     OW69913   2.946  12.512   5.061
56025SOL    HW169914   2.985  12.555   5.137
56025SOL    HW269915   3.019  12.473   5.014
56026SOL     OW69916   1.814   7.988   8.127
56026SOL    HW169917   1.903   8.024   8.134
56026SOL    HW269918   1.760   8.063   8.103
56027SOL     OW69919   8.331   0.020  14.127
56027SOL    HW169920   8.414   0.060  14.153
56027SOL    HW269921   8.268   0.054  14.191
56028SOL     OW69922  13.940   7.244   9.790
56028SOL    HW169923  13.946   7.213   9.700
56028SOL    HW269924  13.943   7.164   9.843
56029SOL     OW69925   4.166   0.419  14.729
56029SOL    HW169926   4.225   0.426  14.804
56029SOL    HW269927   4.080   0.444  14.762
56030SOL     OW69928   5.817   0.319   1.679
56030SOL    HW169929   5.892   0.370   1.707
56030SOL    HW269930   5.782   0.366   1.604
56031SOL     OW69931  11.708   9.841   4.679
56031SOL    HW169932  11.661   9.761   4.658
56031SOL    HW269933  11.716   9.887   4.595
56032SOL     OW69934  11.310   1.520   9.584
56032SOL    HW169935  11.354   1.440   9.612
56032SOL    HW269936  11.306   1.574   9.663
56033SOL     OW69937  10.624   1.381   3.399
56033SOL    HW169938  10.594   1.311   3.340
56033SOL    HW269939  10.707   1.411   3.360
56034SOL     OW69940   0.435   8.652  13.485
56034SOL    HW169941   0.414   8.583  13.547
56034SOL    HW269942   0.431   8.733  13.536
56035SOL     OW69943  11.902   6.095  13.672
56035SOL    HW169944  11.926   6.138  13.754
56035SOL    HW269945  11.867   6.165  13.618
56036SOL     OW69946  10.566   4.030   0.065
56036SOL    HW169947  10.553   4.070  14.859
56036SOL    HW269948  10.648   3.981   0.055
56037SOL     OW69949  14.027   4.669   5.594
56037SOL    HW169950  14.011   4.759   5.624
56037SOL    HW269951  13.956   4.652   5.532
56038SOL     OW69952   9.940   9.058  12.316
56038SOL    HW169953  10.001   9.028  12.248
56038SOL    HW269954   9.992   9.057  12.397
56039SOL     OW69955   2.742   1.875   0.820
56039SOL    HW169956   2.787   1.955   0.794
56039SOL    HW269957   2.664   1.905   0.867
56040SOL     OW69958  11.672   7.939   0.815
56040SOL    HW169959  11.755   7.987   0.822
56040SOL    HW269960  11.605   8.007   0.826
56041SOL     OW69961   3.455   3.565   6.007
56041SOL    HW169962   3.454   3.621   6.085
56041SOL    HW269963   3.488   3.622   5.937
56042SOL     OW69964   8.449   6.792   6.788
56042SOL    HW169965   8.462   6.874   6.742
56042SOL    HW269966   8.366   6.802   6.833
56043SOL     OW69967   2.677   5.878   8.918
56043SOL    HW169968   2.595   5.830   8.912
56043SOL    HW269969   2.725   5.854   8.839
56044SOL     OW69970   1.405   1.322   9.207
56044SOL    HW169971   1.360   1.243   9.236
56044SOL    HW269972   1.334   1.384   9.188
56045SOL     OW69973   3.967   2.192  10.964
56045SOL    HW169974   3.990   2.100  10.952
56045SOL    HW269975   3.897   2.191  11.029
56046SOL     OW69976   7.184   7.113  10.472
56046SOL    HW169977   7.089   7.105  10.465
56046SOL    HW269978   7.200   7.207  10.480
56047SOL     OW69979   8.418  13.801  10.016
56047SOL    HW169980   8.459  13.793   9.930
56047SOL    HW269981   8.367  13.721  10.027
56048SOL     OW69982   1.782   4.746   4.872
56048SOL    HW169983   1.755   4.837   4.867
56048SOL    HW269984   1.703   4.696   4.852
56049SOL     OW69985   2.227   3.061   5.756
56049SOL    HW169986   2.205   3.048   5.848
56049SOL    HW269987   2.323   3.061   5.754
56050SOL     OW69988   0.010   2.985   0.233
56050SOL    HW169989   0.027   2.891   0.238
56050SOL    HW269990   0.034   3.018   0.319
56051SOL     OW69991   7.349   9.693  12.583
56051SOL    HW169992   7.406   9.628  12.623
56051SOL    HW269993   7.395   9.776  12.593
56052SOL     OW69994   2.681  11.003  10.335
56052SOL    HW169995   2.679  11.013  10.240
56052SOL    HW269996   2.740  11.071  10.366
56053SOL     OW69997  11.459   8.276   5.920
56053SOL    HW169998  11.428   8.232   6.000
56053SOL    HW269999  11.391   8.340   5.900
56054SOL     OW70000   7.193   6.655   1.660
56054SOL    HW170001   7.145   6.702   1.593
56054SOL    HW270002   7.150   6.569   1.665
56055SOL     OW70003  14.344   7.112   6.195
56055SOL    HW170004  14.330   7.197   6.154
56055SOL    HW270005  14.285   7.111   6.270
56056SOL     OW70006   9.425  12.440   5.444
56056SOL    HW170007   9.346  12.411   5.400
56056SOL    HW270008   9.418  12.535   5.446
56057SOL     OW70009   7.892  14.037   8.450
56057SOL    HW170010   7.869  14.030   8.358
56057SOL    HW270011   7.887  13.947   8.483
56058SOL     OW70012   5.077  13.047  11.483
56058SOL    HW170013   5.149  13.031  11.422
56058SOL    HW270014   5.118  13.087  11.559
56059SOL     OW70015  12.230   2.985  11.560
56059SOL    HW170016  12.196   2.905  11.598
56059SOL    HW270017  12.154   3.026  11.519
56060SOL     OW70018   6.975   7.632  11.794
56060SOL    HW170019   6.956   7.722  11.819
56060SOL    HW270020   6.889   7.593  11.776
56061SOL     OW70021   8.414   5.376   5.534
56061SOL    HW170022   8.445   5.463   5.509
56061SOL    HW270023   8.471   5.350   5.606
56062SOL     OW70024  11.885   8.247   3.089
56062SOL    HW170025  11.837   8.291   3.160
56062SOL    HW270026  11.874   8.305   3.014
56063SOL     OW70027   8.778  13.936   9.778
56063SOL    HW170028   8.714  14.004   9.800
56063SOL    HW270029   8.803  13.955   9.688
56064SOL     OW70030   2.319   4.497  11.664
56064SOL    HW170031   2.363   4.549  11.597
56064SOL    HW270032   2.339   4.406  11.640
56065SOL     OW70033   3.888  14.397   7.044
56065SOL    HW170034   3.877  14.382   6.950
56065SOL    HW270035   3.983  14.399   7.057
56066SOL     OW70036   2.079   2.015  12.098
56066SOL    HW170037   2.146   1.948  12.113
56066SOL    HW270038   2.117   2.074  12.033
56067SOL     OW70039   4.710   1.435   8.256
56067SOL    HW170040   4.712   1.511   8.198
56067SOL    HW270041   4.704   1.473   8.344
56068SOL     OW70042   3.498   4.031  10.649
56068SOL    HW170043   3.561   4.088  10.605
56068SOL    HW270044   3.552   3.973  10.703
56069SOL     OW70045  12.053   7.991   9.492
56069SOL    HW170046  12.109   7.917   9.467
56069SOL    HW270047  12.039   8.038   9.410
56070SOL     OW70048   6.154   2.693   3.619
56070SOL    HW170049   6.244   2.724   3.621
56070SOL    HW270050   6.103   2.767   3.653
56071SOL     OW70051   3.413  12.887   4.008
56071SOL    HW170052   3.388  12.936   3.929
56071SOL    HW270053   3.358  12.808   4.006
56072SOL     OW70054  10.190   5.755   1.763
56072SOL    HW170055  10.101   5.722   1.755
56072SOL    HW270056  10.246   5.678   1.750
56073SOL     OW70057   9.125  11.542   2.473
56073SOL    HW170058   9.104  11.624   2.517
56073SOL    HW270059   9.164  11.568   2.390
56074SOL     OW70060   4.673  10.844  10.955
56074SOL    HW170061   4.753  10.811  10.994
56074SOL    HW270062   4.647  10.918  11.010
56075SOL     OW70063  10.135   9.449  14.809
56075SOL    HW170064  10.187   9.408  14.739
56075SOL    HW270065  10.073   9.380  14.835
56076SOL     OW70066   1.187  12.685   0.969
56076SOL    HW170067   1.194  12.779   0.989
56076SOL    HW270068   1.202  12.680   0.874
56077SOL     OW70069   1.129  10.397   6.796
56077SOL    HW170070   1.097  10.481   6.762
56077SOL    HW270071   1.086  10.332   6.740
56078SOL     OW70072   8.011  11.447   2.605
56078SOL    HW170073   8.072  11.458   2.532
56078SOL    HW270074   7.933  11.408   2.565
56079SOL     OW70075   9.446   5.367   9.788
56079SOL    HW170076   9.378   5.376   9.721
56079SOL    HW270077   9.492   5.286   9.764
56080SOL     OW70078   7.384   5.022  10.547
56080SOL    HW170079   7.430   4.956  10.598
56080SOL    HW270080   7.425   5.105  10.572
56081SOL     OW70081   3.306  11.725   5.413
56081SOL    HW170082   3.291  11.635   5.382
56081SOL    HW270083   3.370  11.760   5.351
56082SOL     OW70084   2.009   3.087   4.322
56082SOL    HW170085   2.099   3.058   4.339
56082SOL    HW270086   2.008   3.109   4.228
56083SOL     OW70087   2.258   8.987   3.126
56083SOL    HW170088   2.340   8.967   3.081
56083SOL    HW270089   2.218   8.902   3.143
56084SOL     OW70090  12.092   4.384  12.683
56084SOL    HW170091  12.137   4.459  12.721
56084SOL    HW270092  12.121   4.309  12.736
56085SOL     OW70093  10.750  10.360   1.799
56085SOL    HW170094  10.818  10.294   1.804
56085SOL    HW270095  10.670  10.315   1.827
56086SOL     OW70096   2.476  10.837   7.459
56086SOL    HW170097   2.515  10.812   7.542
56086SOL    HW270098   2.410  10.903   7.482
56087SOL     OW70099   0.373   8.097  12.219
56087SOL    HW170100   0.341   8.069  12.133
56087SOL    HW270101   0.455   8.143  12.200
56088SOL     OW70102  10.292  11.878  14.406
56088SOL    HW170103  10.356  11.810  14.385
56088SOL    HW270104  10.343  11.946  14.450
56089SOL     OW70105   7.466   2.724   3.904
56089SOL    HW170106   7.383   2.735   3.859
56089SOL    HW270107   7.494   2.635   3.882
56090SOL     OW70108   9.451   4.601   8.504
56090SOL    HW170109   9.400   4.537   8.455
56090SOL    HW270110   9.445   4.681   8.452
56091SOL     OW70111   4.320  12.588  12.544
56091SOL    HW170112   4.236  12.573  12.588
56091SOL    HW270113   4.377  12.518  12.576
56092SOL     OW70114   3.103   2.647  13.129
56092SOL    HW170115   3.128   2.713  13.065
56092SOL    HW270116   3.069   2.697  13.203
56093SOL     OW70117   3.935   2.963   2.570
56093SOL    HW170118   3.886   2.995   2.646
56093SOL    HW270119   4.000   2.903   2.607
56094SOL     OW70120   9.301  12.544  10.042
56094SOL    HW170121   9.257  12.466  10.074
56094SOL    HW270122   9.231  12.594   9.999
56095SOL     OW70123  10.231   0.426   9.324
56095SOL    HW170124  10.166   0.464   9.384
56095SOL    HW270125  10.179   0.372   9.264
56096SOL     OW70126   9.102  13.478  10.156
56096SOL    HW170127   9.029  13.530  10.120
56096SOL    HW270128   9.082  13.471  10.249
56097SOL     OW70129   6.668   2.980  10.753
56097SOL    HW170130   6.704   3.062  10.719
56097SOL    HW270131   6.658   2.925  10.676
56098SOL     OW70132  10.976  14.480   1.215
56098SOL    HW170133  10.968  14.574   1.202
56098SOL    HW270134  10.988  14.444   1.127
56099SOL     OW70135   9.670   3.058  10.518
56099SOL    HW170136   9.605   3.074  10.586
56099SOL    HW270137   9.754   3.056  10.564
56100SOL     OW70138   8.068   4.687   6.873
56100SOL    HW170139   8.155   4.711   6.906
56100SOL    HW270140   8.035   4.768   6.834
56101SOL     OW70141   1.365   2.159  13.270
56101SOL    HW170142   1.355   2.244  13.313
56101SOL    HW270143   1.381   2.180  13.179
56102SOL     OW70144   4.247  12.178  11.810
56102SOL    HW170145   4.237  12.082  11.808
56102SOL    HW270146   4.300  12.194  11.888
56103SOL     OW70147   8.762  10.849   6.938
56103SOL    HW170148   8.774  10.938   6.903
56103SOL    HW270149   8.726  10.799   6.864
56104SOL     OW70150   3.020  10.488   3.845
56104SOL    HW170151   3.047  10.571   3.884
56104SOL    HW270152   3.100  10.435   3.842
56105SOL     OW70153  13.481   2.813   4.246
56105SOL    HW170154  13.508   2.872   4.317
56105SOL    HW270155  13.431   2.869   4.187
56106SOL     OW70156  10.953  14.561  12.336
56106SOL    HW170157  11.045  14.586  12.348
56106SOL    HW270158  10.945  14.478  12.383
56107SOL     OW70159  14.072  10.449   8.274
56107SOL    HW170160  14.122  10.379   8.231
56107SOL    HW270161  14.004  10.472   8.211
56108SOL     OW70162   6.402   0.830  11.103
56108SOL    HW170163   6.426   0.898  11.039
56108SOL    HW270164   6.482   0.816  11.154
56109SOL     OW70165   4.809   1.857   1.183
56109SOL    HW170166   4.900   1.885   1.175
56109SOL    HW270167   4.790   1.814   1.099
56110SOL     OW70168  13.947   0.847   4.682
56110SOL    HW170169  13.989   0.919   4.728
56110SOL    HW270170  13.959   0.868   4.589
56111SOL     OW70171  12.590   7.771   3.845
56111SOL    HW170172  12.598   7.680   3.813
56111SOL    HW270173  12.673   7.812   3.822
56112SOL     OW70174   9.121  13.308   0.898
56112SOL    HW170175   9.031  13.285   0.876
56112SOL    HW270176   9.113  13.377   0.964
56113SOL     OW70177  13.322   0.296   0.889
56113SOL    HW170178  13.332   0.209   0.926
56113SOL    HW270179  13.229   0.315   0.897
56114SOL     OW70180   4.719   3.130   3.962
56114SOL    HW170181   4.813   3.128   3.983
56114SOL    HW270182   4.699   3.041   3.933
56115SOL     OW70183   1.409   4.991   3.102
56115SOL    HW170184   1.382   5.029   3.019
56115SOL    HW270185   1.436   5.066   3.155
56116SOL     OW70186   8.952   4.843  11.694
56116SOL    HW170187   9.041   4.865  11.667
56116SOL    HW270188   8.950   4.748  11.697
56117SOL     OW70189  10.529   6.549   6.729
56117SOL    HW170190  10.449   6.601   6.736
56117SOL    HW270191  10.501   6.459   6.748
56118SOL     OW70192   5.440  10.386   2.363
56118SOL    HW170193   5.418  10.334   2.441
56118SOL    HW270194   5.432  10.477   2.392
56119SOL     OW70195   6.648   0.437   4.148
56119SOL    HW170196   6.594   0.372   4.103
56119SOL    HW270197   6.618   0.521   4.113
56120SOL     OW70198  12.882  12.394   6.019
56120SOL    HW170199  12.926  12.422   5.939
56120SOL    HW270200  12.914  12.305   6.034
56121SOL     OW70201  11.574   4.279  10.548
56121SOL    HW170202  11.559   4.201  10.601
56121SOL    HW270203  11.641   4.254  10.486
56122SOL     OW70204   5.566   5.024   7.385
56122SOL    HW170205   5.576   4.931   7.408
56122SOL    HW270206   5.632   5.069   7.438
56123SOL     OW70207   3.617   8.156  13.368
56123SOL    HW170208   3.677   8.182  13.438
56123SOL    HW270209   3.532   8.147  13.410
56124SOL     OW70210   1.967  12.955   9.317
56124SOL    HW170211   2.063  12.955   9.322
56124SOL    HW270212   1.944  12.864   9.302
56125SOL     OW70213  10.584  14.834  14.667
56125SOL    HW170214  10.583  14.768  14.736
56125SOL    HW270215  10.618   0.033  14.709
56126SOL     OW70216   7.546  14.495  10.375
56126SOL    HW170217   7.517  14.549  10.301
56126SOL    HW270218   7.501  14.532  10.450
56127SOL     OW70219   1.148  14.482   9.786
56127SOL    HW170220   1.120  14.394   9.809
56127SOL    HW270221   1.242  14.484   9.804
56128SOL     OW70222  12.531   0.447  12.740
56128SOL    HW170223  12.564   0.535  12.720
56128SOL    HW270224  12.481   0.459  12.821
56129SOL     OW70225  12.015  13.369   4.926
56129SOL    HW170226  12.106  13.393   4.907
56129SOL    HW270227  11.976  13.449   4.961
56130SOL     OW70228   4.016   1.138  10.091
56130SOL    HW170229   4.036   1.129  10.185
56130SOL    HW270230   4.091   1.186  10.055
56131SOL     OW70231   8.796  12.175  11.844
56131SOL    HW170232   8.879  12.220  11.858
56131SOL    HW270233   8.801  12.144  11.753
56132SOL     OW70234   2.361   1.168  10.645
56132SOL    HW170235   2.364   1.146  10.738
56132SOL    HW270236   2.296   1.108  10.608
56133SOL     OW70237   6.549  13.914   6.394
56133SOL    HW170238   6.607  13.930   6.320
56133SOL    HW270239   6.462  13.940   6.364
56134SOL     OW70240   0.424   7.047   4.605
56134SOL    HW170241   0.475   7.042   4.686
56134SOL    HW270242   0.466   7.118   4.555
56135SOL     OW70243   2.203   8.196   4.986
56135SOL    HW170244   2.186   8.109   4.950
56135SOL    HW270245   2.268   8.234   4.927
56136SOL     OW70246   0.209  12.771  12.912
56136SOL    HW170247   0.218  12.796  13.004
56136SOL    HW270248   0.116  12.784  12.892
56137SOL     OW70249  14.349  11.769   2.580
56137SOL    HW170250  14.310  11.796   2.663
56137SOL    HW270251  14.275  11.762   2.520
56138SOL     OW70252   7.855  11.682   0.032
56138SOL    HW170253   7.772  11.710  14.874
56138SOL    HW270254   7.917  11.684  14.838
56139SOL     OW70255   6.926  11.562   1.720
56139SOL    HW170256   6.844  11.609   1.704
56139SOL    HW270257   6.899  11.472   1.735
56140SOL     OW70258  10.336  13.630  14.377
56140SOL    HW170259  10.320  13.589  14.292
56140SOL    HW270260  10.264  13.692  14.388
56141SOL     OW70261   8.518   0.906   0.664
56141SOL    HW170262   8.537   0.822   0.623
56141SOL    HW270263   8.583   0.965   0.627
56142SOL     OW70264   7.583   3.071   4.275
56142SOL    HW170265   7.599   2.982   4.246
56142SOL    HW270266   7.604   3.125   4.198
56143SOL     OW70267   3.848   9.700  13.296
56143SOL    HW170268   3.759   9.691  13.263
56143SOL    HW270269   3.853   9.790  13.328
56144SOL     OW70270   0.677   8.998  11.988
56144SOL    HW170271   0.660   8.923  12.045
56144SOL    HW270272   0.715   9.064  12.047
56145SOL     OW70273   8.786   3.941   8.297
56145SOL    HW170274   8.768   3.982   8.213
56145SOL    HW270275   8.824   4.011   8.350
56146SOL     OW70276   5.427   7.805   3.852
56146SOL    HW170277   5.341   7.765   3.859
56146SOL    HW270278   5.488   7.738   3.883
56147SOL     OW70279  11.652  11.364   1.906
56147SOL    HW170280  11.725  11.303   1.919
56147SOL    HW270281  11.641  11.407   1.991
56148SOL     OW70282   1.300   7.955  11.572
56148SOL    HW170283   1.333   7.977  11.485
56148SOL    HW270284   1.217   8.001  11.579
56149SOL     OW70285  14.709   3.463   0.891
56149SOL    HW170286  14.702   3.370   0.916
56149SOL    HW270287  14.795   3.489   0.924
56150SOL     OW70288  12.528   0.632   7.497
56150SOL    HW170289  12.499   0.639   7.588
56150SOL    HW270290  12.565   0.718   7.477
56151SOL     OW70291  12.765   2.221  14.625
56151SOL    HW170292  12.739   2.243  14.714
56151SOL    HW270293  12.830   2.287  14.601
56152SOL     OW70294  11.993  11.702   0.691
56152SOL    HW170295  12.048  11.718   0.767
56152SOL    HW270296  11.920  11.763   0.701
56153SOL     OW70297  11.206   2.497   6.224
56153SOL    HW170298  11.168   2.448   6.152
56153SOL    HW270299  11.137   2.558   6.251
56154SOL     OW70300   3.607  11.201  14.791
56154SOL    HW170301   3.619  11.114  14.829
56154SOL    HW270302   3.663  11.201  14.713
56155SOL     OW70303  14.195   4.552   7.164
56155SOL    HW170304  14.245   4.623   7.122
56155SOL    HW270305  14.107   4.587   7.172
56156SOL     OW70306  13.140   3.458   2.328
56156SOL    HW170307  13.216   3.402   2.314
56156SOL    HW270308  13.151   3.531   2.268
56157SOL     OW70309   2.601  11.356   1.704
56157SOL    HW170310   2.685  11.322   1.671
56157SOL    HW270311   2.579  11.298   1.777
56158SOL     OW70312  11.345   0.510   9.109
56158SOL    HW170313  11.254   0.481   9.116
56158SOL    HW270314  11.354   0.540   9.019
56159SOL     OW70315   0.790   4.506   5.049
56159SOL    HW170316   0.826   4.499   5.138
56159SOL    HW270317   0.804   4.419   5.012
56160SOL     OW70318   6.454   4.974  12.898
56160SOL    HW170319   6.368   4.933  12.909
56160SOL    HW270320   6.506   4.938  12.970
56161SOL     OW70321   3.620   9.355  11.668
56161SOL    HW170322   3.558   9.390  11.732
56161SOL    HW270323   3.608   9.260  11.672
56162SOL     OW70324  12.214   2.361   1.088
56162SOL    HW170325  12.224   2.283   1.142
56162SOL    HW270326  12.205   2.328   0.999
56163SOL     OW70327  10.501   3.919   6.449
56163SOL    HW170328  10.584   3.942   6.491
56163SOL    HW270329  10.440   3.986   6.480
56164SOL     OW70330   8.966   0.925  11.980
56164SOL    HW170331   8.948   0.887  11.894
56164SOL    HW270332   9.057   0.956  11.975
56165SOL     OW70333   3.806   6.283   5.813
56165SOL    HW170334   3.752   6.242   5.881
56165SOL    HW270335   3.804   6.221   5.741
56166SOL     OW70336   2.543   8.517   0.112
56166SOL    HW170337   2.551   8.450   0.179
56166SOL    HW270338   2.614   8.579   0.131
56167SOL     OW70339   2.422   6.828  12.961
56167SOL    HW170340   2.501   6.777  12.980
56167SOL    HW270341   2.350   6.766  12.966
56168SOL     OW70342   3.540   6.286   4.982
56168SOL    HW170343   3.560   6.294   5.075
56168SOL    HW270344   3.619   6.319   4.938
56169SOL     OW70345   4.316   2.758  10.557
56169SOL    HW170346   4.282   2.669  10.546
56169SOL    HW270347   4.240   2.815  10.543
56170SOL     OW70348  12.431   8.430   9.428
56170SOL    HW170349  12.522   8.420   9.400
56170SOL    HW270350  12.393   8.343   9.418
56171SOL     OW70351   8.176   5.943   7.963
56171SOL    HW170352   8.158   6.032   7.933
56171SOL    HW270353   8.253   5.916   7.912
56172SOL     OW70354   0.401   5.982   8.596
56172SOL    HW170355   0.473   6.041   8.574
56172SOL    HW270356   0.325   6.039   8.606
56173SOL     OW70357  12.525   8.486  10.495
56173SOL    HW170358  12.570   8.425  10.437
56173SOL    HW270359  12.460   8.433  10.541
56174SOL     OW70360   3.695   0.063   8.624
56174SOL    HW170361   3.705   0.001   8.551
56174SOL    HW270362   3.694   0.008   8.702
56175SOL     OW70363   1.208   0.988   7.704
56175SOL    HW170364   1.205   1.021   7.615
56175SOL    HW270365   1.211   0.893   7.694
56176SOL     OW70366   4.110   1.036   6.956
56176SOL    HW170367   4.181   1.066   7.013
56176SOL    HW270368   4.032   1.039   7.012
56177SOL     OW70369   2.406  13.719   9.576
56177SOL    HW170370   2.430  13.644   9.523
56177SOL    HW270371   2.413  13.688   9.666
56178SOL     OW70372  12.361  14.656  13.566
56178SOL    HW170373  12.266  14.656  13.574
56178SOL    HW270374  12.389  14.737  13.607
56179SOL     OW70375   3.502   2.865   9.496
56179SOL    HW170376   3.490   2.772   9.474
56179SOL    HW270377   3.586   2.868   9.541
56180SOL     OW70378  13.779   9.626   6.270
56180SOL    HW170379  13.795   9.564   6.199
56180SOL    HW270380  13.771   9.571   6.349
56181SOL     OW70381   4.705   9.057   9.325
56181SOL    HW170382   4.750   9.012   9.396
56181SOL    HW270383   4.632   9.102   9.368
56182SOL     OW70384  14.671   5.465   7.902
56182SOL    HW170385  14.650   5.524   7.974
56182SOL    HW270386  14.653   5.378   7.937
56183SOL     OW70387   3.384   1.446   5.665
56183SOL    HW170388   3.297   1.483   5.679
56183SOL    HW270389   3.381   1.408   5.577
56184SOL     OW70390   8.626   1.667   5.377
56184SOL    HW170391   8.551   1.623   5.337
56184SOL    HW270392   8.621   1.644   5.470
56185SOL     OW70393   0.877   0.126   7.360
56185SOL    HW170394   0.930   0.073   7.301
56185SOL    HW270395   0.892   0.087   7.447
56186SOL     OW70396   0.650   5.107  11.299
56186SOL    HW170397   0.656   5.012  11.290
56186SOL    HW270398   0.603   5.135  11.220
56187SOL     OW70399   1.656   1.286   3.916
56187SOL    HW170400   1.593   1.312   3.849
56187SOL    HW270401   1.608   1.293   3.998
56188SOL     OW70402   8.968   4.198   5.760
56188SOL    HW170403   9.027   4.124   5.748
56188SOL    HW270404   8.902   4.167   5.821
56189SOL     OW70405   8.127   5.987  12.791
56189SOL    HW170406   8.193   5.936  12.744
56189SOL    HW270407   8.121   5.946  12.877
56190SOL     OW70408   3.817   6.675   3.248
56190SOL    HW170409   3.788   6.695   3.336
56190SOL    HW270410   3.851   6.586   3.252
56191SOL     OW70411   5.929   6.761  12.464
56191SOL    HW170412   6.011   6.713  12.458
56191SOL    HW270413   5.928   6.796  12.554
56192SOL     OW70414   1.090   8.252  10.930
56192SOL    HW170415   1.183   8.260  10.954
56192SOL    HW270416   1.085   8.172  10.879
56193SOL     OW70417  12.280   3.832   2.393
56193SOL    HW170418  12.227   3.805   2.318
56193SOL    HW270419  12.231   3.799   2.469
56194SOL     OW70420   1.678   8.690  14.834
56194SOL    HW170421   1.771   8.685  14.853
56194SOL    HW270422   1.650   8.599  14.822
56195SOL     OW70423   9.934   0.967   6.212
56195SOL    HW170424   9.920   1.050   6.258
56195SOL    HW270425   9.854   0.917   6.228
56196SOL     OW70426   0.583   4.339  13.297
56196SOL    HW170427   0.570   4.410  13.234
56196SOL    HW270428   0.535   4.367  13.375
56197SOL     OW70429  10.137  14.411  11.080
56197SOL    HW170430  10.110  14.346  11.145
56197SOL    HW270431  10.085  14.489  11.101
56198SOL     OW70432  14.616   4.496   1.194
56198SOL    HW170433  14.569   4.567   1.150
56198SOL    HW270434  14.546   4.442   1.231
56199SOL     OW70435   5.144   4.418   9.588
56199SOL    HW170436   5.203   4.440   9.660
56199SOL    HW270437   5.194   4.355   9.535
56200SOL     OW70438  11.830   8.967  10.922
56200SOL    HW170439  11.820   8.953  11.016
56200SOL    HW270440  11.875   8.889  10.890
56201SOL     OW70441   4.542  11.826   2.967
56201SOL    HW170442   4.518  11.918   2.963
56201SOL    HW270443   4.467  11.780   2.928
56202SOL     OW70444  13.805  14.071  11.668
56202SOL    HW170445  13.833  14.076  11.759
56202SOL    HW270446  13.837  14.152  11.629
56203SOL     OW70447  14.157   6.351   4.134
56203SOL    HW170448  14.079   6.301   4.160
56203SOL    HW270449  14.122   6.428   4.089
56204SOL     OW70450   0.497   1.178  14.554
56204SOL    HW170451   0.472   1.204  14.466
56204SOL    HW270452   0.469   1.086  14.561
56205SOL     OW70453   5.611   9.120   0.904
56205SOL    HW170454   5.637   9.048   0.847
56205SOL    HW270455   5.515   9.114   0.908
56206SOL     OW70456  14.445   3.452   9.098
56206SOL    HW170457  14.425   3.447   9.192
56206SOL    HW270458  14.474   3.542   9.085
56207SOL     OW70459  14.288   5.990  14.327
56207SOL    HW170460  14.257   6.073  14.363
56207SOL    HW270461  14.372   6.012  14.286
56208SOL     OW70462   8.323  14.508   4.262
56208SOL    HW170463   8.384  14.439   4.286
56208SOL    HW270464   8.319  14.565   4.339
56209SOL     OW70465  14.347   4.161   3.281
56209SOL    HW170466  14.431   4.172   3.236
56209SOL    HW270467  14.360   4.205   3.366
56210SOL     OW70468   5.895   4.586   7.796
56210SOL    HW170469   5.832   4.624   7.859
56210SOL    HW270470   5.849   4.511   7.759
56211SOL     OW70471  13.689  14.585  12.950
56211SOL    HW170472  13.661  14.662  12.901
56211SOL    HW270473  13.785  14.583  12.939
56212SOL     OW70474  12.282   8.276  11.632
56212SOL    HW170475  12.216   8.239  11.690
56212SOL    HW270476  12.365   8.256  11.676
56213SOL     OW70477   8.794  10.770   2.967
56213SOL    HW170478   8.784  10.686   2.921
56213SOL    HW270479   8.845  10.824   2.906
56214SOL     OW70480   8.951  13.695   8.299
56214SOL    HW170481   8.857  13.682   8.314
56214SOL    HW270482   8.960  13.788   8.281
56215SOL     OW70483   2.914   1.293   2.240
56215SOL    HW170484   2.975   1.234   2.197
56215SOL    HW270485   2.963   1.374   2.254
56216SOL     OW70486  12.811   4.662   3.813
56216SOL    HW170487  12.761   4.640   3.735
56216SOL    HW270488  12.831   4.755   3.803
56217SOL     OW70489  14.757   1.766  11.913
56217SOL    HW170490  14.755   1.670  11.915
56217SOL    HW270491  14.768   1.792  12.004
56218SOL     OW70492   6.445   6.004   9.444
56218SOL    HW170493   6.371   6.032   9.391
56218SOL    HW270494   6.405   5.973   9.526
56219SOL     OW70495   2.628   8.284   1.765
56219SOL    HW170496   2.560   8.218   1.753
56219SOL    HW270497   2.672   8.288   1.680
56220SOL     OW70498   6.164   0.432   2.166
56220SOL    HW170499   6.086   0.455   2.114
56220SOL    HW270500   6.236   0.433   2.103
56221SOL     OW70501   6.386  10.185   6.284
56221SOL    HW170502   6.336  10.266   6.296
56221SOL    HW270503   6.471  10.203   6.323
56222SOL     OW70504   5.911   6.093   9.727
56222SOL    HW170505   5.937   6.053   9.644
56222SOL    HW270506   5.989   6.141   9.756
56223SOL     OW70507  11.055  10.227   0.993
56223SOL    HW170508  11.006  10.201   1.071
56223SOL    HW270509  11.145  10.240   1.024
56224SOL     OW70510  13.908  14.409   0.997
56224SOL    HW170511  13.881  14.317   0.988
56224SOL    HW270512  13.827  14.454   1.022
56225SOL     OW70513  13.399   9.532   3.861
56225SOL    HW170514  13.469   9.486   3.906
56225SOL    HW270515  13.441   9.610   3.824
56226SOL     OW70516   7.554  10.395   0.306
56226SOL    HW170517   7.641  10.371   0.275
56226SOL    HW270518   7.570  10.465   0.369
56227SOL     OW70519   1.948   1.946   6.433
56227SOL    HW170520   2.019   1.899   6.476
56227SOL    HW270521   1.988   1.988   6.357
56228SOL     OW70522   1.653   4.761  13.965
56228SOL    HW170523   1.626   4.671  13.945
56228SOL    HW270524   1.571   4.810  13.968
56229SOL     OW70525   8.867   5.191   3.865
56229SOL    HW170526   8.911   5.123   3.815
56229SOL    HW270527   8.843   5.257   3.800
56230SOL     OW70528  11.782   0.840   8.477
56230SOL    HW170529  11.874   0.836   8.450
56230SOL    HW270530  11.755   0.749   8.485
56231SOL     OW70531   5.856   0.774   7.816
56231SOL    HW170532   5.805   0.750   7.894
56231SOL    HW270533   5.887   0.862   7.835
56232SOL     OW70534  10.698  13.721   2.248
56232SOL    HW170535  10.628  13.766   2.200
56232SOL    HW270536  10.713  13.776   2.325
56233SOL     OW70537   2.284   2.587   9.067
56233SOL    HW170538   2.266   2.614   9.157
56233SOL    HW270539   2.250   2.498   9.062
56234SOL     OW70540  11.867   9.438  14.302
56234SOL    HW170541  11.898   9.449  14.212
56234SOL    HW270542  11.925   9.371  14.339
56235SOL     OW70543   3.862  11.492   0.708
56235SOL    HW170544   3.937  11.440   0.677
56235SOL    HW270545   3.789  11.462   0.655
56236SOL     OW70546   8.950  13.335  12.829
56236SOL    HW170547   8.925  13.245  12.851
56236SOL    HW270548   8.870  13.386  12.840
56237SOL     OW70549   0.469   0.513  14.363
56237SOL    HW170550   0.515   0.553  14.438
56237SOL    HW270551   0.539   0.489  14.302
56238SOL     OW70552  12.357  12.998  11.451
56238SOL    HW170553  12.356  13.062  11.379
56238SOL    HW270554  12.397  13.046  11.524
56239SOL     OW70555   9.054   2.560   7.633
56239SOL    HW170556   8.972   2.568   7.682
56239SOL    HW270557   9.111   2.508   7.690
56240SOL     OW70558   8.611  11.977   9.634
56240SOL    HW170559   8.641  11.893   9.667
56240SOL    HW270560   8.635  11.976   9.541
56241SOL     OW70561  10.362   8.018   1.158
56241SOL    HW170562  10.410   7.994   1.238
56241SOL    HW270563  10.322   8.103   1.179
56242SOL     OW70564   7.340   9.739   1.787
56242SOL    HW170565   7.249   9.739   1.756
56242SOL    HW270566   7.388   9.787   1.719
56243SOL     OW70567   8.556   4.266   9.522
56243SOL    HW170568   8.574   4.178   9.487
56243SOL    HW270569   8.527   4.250   9.612
56244SOL     OW70570   2.164   1.850   6.070
56244SOL    HW170571   2.153   1.929   6.016
56244SOL    HW270572   2.258   1.842   6.082
56245SOL     OW70573   3.952  13.574   7.958
56245SOL    HW170574   3.971  13.532   8.041
56245SOL    HW270575   3.984  13.664   7.968
56246SOL     OW70576  11.960   1.194   0.114
56246SOL    HW170577  11.971   1.189   0.209
56246SOL    HW270578  12.044   1.165   0.078
56247SOL     OW70579   9.865   1.070  10.871
56247SOL    HW170580   9.884   1.044  10.961
56247SOL    HW270581   9.951   1.085  10.832
56248SOL     OW70582   6.984   7.131   4.558
56248SOL    HW170583   7.040   7.073   4.610
56248SOL    HW270584   6.962   7.203   4.616
56249SOL     OW70585   1.564   6.363  10.404
56249SOL    HW170586   1.596   6.418  10.475
56249SOL    HW270587   1.618   6.284  10.408
56250SOL     OW70588   4.234  13.382   1.685
56250SOL    HW170589   4.285  13.454   1.649
56250SOL    HW270590   4.180  13.352   1.612
56251SOL     OW70591   5.193   6.028   3.587
56251SOL    HW170592   5.261   6.030   3.519
56251SOL    HW270593   5.144   6.110   3.574
56252SOL     OW70594   2.462  13.964  11.810
56252SOL    HW170595   2.503  13.884  11.777
56252SOL    HW270596   2.368  13.950  11.796
56253SOL     OW70597   0.023  13.763   9.387
56253SOL    HW170598  14.809  13.781   9.399
56253SOL    HW270599   0.027  13.707   9.310
56254SOL     OW70600   6.807   4.137   7.624
56254SOL    HW170601   6.744   4.067   7.607
56254SOL    HW270602   6.871   4.130   7.553
56255SOL     OW70603   9.750   2.869   6.415
56255SOL    HW170604   9.680   2.927   6.445
56255SOL    HW270605   9.830   2.904   6.455
56256SOL     OW70606   4.681   5.972  11.922
56256SOL    HW170607   4.597   5.978  11.968
56256SOL    HW270608   4.673   6.035  11.850
56257SOL     OW70609  12.825  12.021   2.440
56257SOL    HW170610  12.894  11.965   2.404
56257SOL    HW270611  12.781  12.057   2.363
56258SOL     OW70612  13.551  13.209   3.398
56258SOL    HW170613  13.631  13.179   3.441
56258SOL    HW270614  13.505  13.128   3.374
56259SOL     OW70615   7.655   0.669  12.416
56259SOL    HW170616   7.740   0.674  12.460
56259SOL    HW270617   7.593   0.646  12.486
56260SOL     OW70618   5.242   3.254   0.783
56260SOL    HW170619   5.321   3.275   0.733
56260SOL    HW270620   5.222   3.164   0.757
56261SOL     OW70621   1.863   5.704   8.302
56261SOL    HW170622   1.819   5.643   8.242
56261SOL    HW270623   1.836   5.791   8.271
56262SOL     OW70624   0.090  13.172  13.900
56262SOL    HW170625   0.112  13.133  13.815
56262SOL    HW270626   0.174  13.180  13.945
56263SOL     OW70627  13.094   7.360  11.981
56263SOL    HW170628  13.023   7.375  12.043
56263SOL    HW270629  13.118   7.268  11.994
56264SOL     OW70630   7.021   1.745   6.768
56264SOL    HW170631   7.034   1.678   6.835
56264SOL    HW270632   6.965   1.704   6.703
56265SOL     OW70633   9.247   7.824  13.107
56265SOL    HW170634   9.223   7.772  13.030
56265SOL    HW270635   9.263   7.912  13.073
56266SOL     OW70636   7.151   7.821   4.291
56266SOL    HW170637   7.152   7.886   4.361
56266SOL    HW270638   7.066   7.834   4.247
56267SOL     OW70639   6.766   4.478  10.644
56267SOL    HW170640   6.737   4.523  10.564
56267SOL    HW270641   6.686   4.462  10.693
56268SOL     OW70642   8.874   4.766   9.927
56268SOL    HW170643   8.780   4.760   9.942
56268SOL    HW270644   8.907   4.678   9.947
56269SOL     OW70645   2.329   3.828   1.918
56269SOL    HW170646   2.402   3.775   1.950
56269SOL    HW270647   2.263   3.822   1.987
56270SOL     OW70648   7.712   7.098   2.957
56270SOL    HW170649   7.778   7.029   2.956
56270SOL    HW270650   7.741   7.159   3.024
56271SOL     OW70651  10.647  13.832   0.148
56271SOL    HW170652  10.669  13.902   0.210
56271SOL    HW270653  10.571  13.864   0.101
56272SOL     OW70654  10.153  14.488   7.331
56272SOL    HW170655  10.103  14.406   7.340
56272SOL    HW270656  10.244  14.460   7.333
56273SOL     OW70657   8.155   2.087   9.961
56273SOL    HW170658   8.204   2.116  10.038
56273SOL    HW270659   8.167   2.157   9.897
56274SOL     OW70660   7.899   0.683  14.445
56274SOL    HW170661   7.892   0.625  14.368
56274SOL    HW270662   7.811   0.716  14.458
56275SOL     OW70663  13.988  13.417   0.484
56275SOL    HW170664  13.951  13.370   0.559
56275SOL    HW270665  13.946  13.376   0.407
56276SOL     OW70666  13.494   7.810  13.504
56276SOL    HW170667  13.453   7.854  13.579
56276SOL    HW270668  13.558   7.874  13.472
56277SOL     OW70669   2.568  14.518   8.076
56277SOL    HW170670   2.573  14.554   7.988
56277SOL    HW270671   2.508  14.577   8.122
56278SOL     OW70672  12.769   8.958  11.526
56278SOL    HW170673  12.747   8.980  11.617
56278SOL    HW270674  12.804   8.869  11.531
56279SOL     OW70675  10.830  11.042  13.712
56279SOL    HW170676  10.781  11.123  13.723
56279SOL    HW270677  10.885  11.036  13.790
56280SOL     OW70678   1.441   7.693   4.482
56280SOL    HW170679   1.496   7.685   4.404
56280SOL    HW270680   1.477   7.769   4.529
56281SOL     OW70681   4.741   0.631   1.641
56281SOL    HW170682   4.766   0.547   1.679
56281SOL    HW270683   4.793   0.696   1.690
56282SOL     OW70684   2.959   8.981  10.621
56282SOL    HW170685   2.955   8.886  10.611
56282SOL    HW270686   3.051   8.999  10.639
56283SOL     OW70687  11.359   3.068   3.310
56283SOL    HW170688  11.277   3.091   3.354
56283SOL    HW270689  11.347   2.977   3.283
56284SOL     OW70690  10.327   1.959  14.514
56284SOL    HW170691  10.296   1.997  14.596
56284SOL    HW270692  10.359   2.033  14.464
56285SOL     OW70693   7.058  10.995   3.082
56285SOL    HW170694   7.129  11.047   3.119
56285SOL    HW270695   6.992  10.992   3.150
56286SOL     OW70696   9.977   7.688   7.412
56286SOL    HW170697   9.992   7.593   7.408
56286SOL    HW270698   9.925   7.701   7.491
56287SOL     OW70699   9.140  12.811   4.452
56287SOL    HW170700   9.115  12.725   4.486
56287SOL    HW270701   9.129  12.870   4.526
56288SOL     OW70702   8.888  10.607   8.986
56288SOL    HW170703   8.831  10.582   8.914
56288SOL    HW270704   8.866  10.546   9.057
56289SOL     OW70705   5.422  13.067  12.428
56289SOL    HW170706   5.480  12.992  12.446
56289SOL    HW270707   5.433  13.082  12.334
56290SOL     OW70708  10.942   7.282   7.460
56290SOL    HW170709  10.851   7.263   7.484
56290SOL    HW270710  10.993   7.247   7.533
56291SOL     OW70711   9.439   9.110   5.601
56291SOL    HW170712   9.497   9.034   5.592
56291SOL    HW270713   9.392   9.114   5.519
56292SOL     OW70714  11.007   8.587   4.907
56292SOL    HW170715  11.066   8.602   4.981
56292SOL    HW270716  11.056   8.529   4.848
56293SOL     OW70717   7.535   5.571   1.713
56293SOL    HW170718   7.618   5.617   1.698
56293SOL    HW270719   7.550   5.521   1.794
56294SOL     OW70720  14.071   4.807   4.012
56294SOL    HW170721  13.980   4.799   3.983
56294SOL    HW270722  14.072   4.771   4.100
56295SOL     OW70723   0.509   8.709   2.100
56295SOL    HW170724   0.591   8.661   2.115
56295SOL    HW270725   0.486   8.743   2.187
56296SOL     OW70726  13.937  11.112   2.635
56296SOL    HW170727  13.863  11.052   2.645
56296SOL    HW270728  14.000  11.065   2.581
56297SOL     OW70729   7.975   0.141  13.477
56297SOL    HW170730   7.935   0.139  13.564
56297SOL    HW270731   7.907   0.179  13.421
56298SOL     OW70732  12.545   3.952   8.350
56298SOL    HW170733  12.558   3.859   8.364
56298SOL    HW270734  12.573   3.967   8.260
56299SOL     OW70735   9.368   9.127   4.108
56299SOL    HW170736   9.378   9.033   4.093
56299SOL    HW270737   9.327   9.160   4.027
56300SOL     OW70738   1.626   6.649  14.468
56300SOL    HW170739   1.705   6.595  14.465
56300SOL    HW270740   1.556   6.590  14.439
56301SOL     OW70741  12.457   3.756   1.383
56301SOL    HW170742  12.541   3.775   1.424
56301SOL    HW270743  12.473   3.766   1.289
56302SOL     OW70744   7.812  14.503   9.357
56302SOL    HW170745   7.761  14.422   9.361
56302SOL    HW270746   7.771  14.560   9.422
56303SOL     OW70747  13.440   4.234   8.524
56303SOL    HW170748  13.532   4.253   8.507
56303SOL    HW270749  13.394   4.313   8.494
56304SOL     OW70750   7.432   4.280   2.676
56304SOL    HW170751   7.508   4.302   2.622
56304SOL    HW270752   7.453   4.194   2.713
56305SOL     OW70753   2.046   0.191   9.049
56305SOL    HW170754   2.082   0.248   9.118
56305SOL    HW270755   1.984   0.135   9.096
56306SOL     OW70756  14.643   1.465   6.200
56306SOL    HW170757  14.583   1.429   6.134
56306SOL    HW270758  14.593   1.536   6.241
56307SOL     OW70759   3.027   8.368   2.009
56307SOL    HW170760   2.989   8.447   1.970
56307SOL    HW270761   3.090   8.337   1.944
56308SOL     OW70762   1.101  10.740   4.476
56308SOL    HW170763   1.020  10.691   4.461
56308SOL    HW270764   1.082  10.797   4.550
56309SOL     OW70765  13.550   4.197  12.571
56309SOL    HW170766  13.601   4.158  12.500
56309SOL    HW270767  13.581   4.288  12.576
56310SOL     OW70768   4.475   8.929   6.444
56310SOL    HW170769   4.448   8.999   6.502
56310SOL    HW270770   4.456   8.849   6.492
56311SOL     OW70771  12.132   0.534   8.092
56311SOL    HW170772  12.075   0.506   8.020
56311SOL    HW270773  12.184   0.456   8.113
56312SOL     OW70774   8.090   2.037   8.496
56312SOL    HW170775   8.067   1.961   8.550
56312SOL    HW270776   8.051   2.019   8.411
56313SOL     OW70777   3.666   9.322  10.648
56313SOL    HW170778   3.671   9.240  10.696
56313SOL    HW270779   3.706   9.303  10.564
56314SOL     OW70780  14.175   0.493   8.413
56314SOL    HW170781  14.201   0.403   8.433
56314SOL    HW270782  14.171   0.497   8.318
56315SOL     OW70783   0.204   5.251   3.462
56315SOL    HW170784   0.167   5.330   3.422
56315SOL    HW270785   0.128   5.201   3.491
56316SOL     OW70786   5.311  10.630   0.247
56316SOL    HW170787   5.272  10.569   0.184
56316SOL    HW270788   5.237  10.668   0.293
56317SOL     OW70789   1.705  10.000   8.542
56317SOL    HW170790   1.668   9.945   8.473
56317SOL    HW270791   1.696   9.947   8.621
56318SOL     OW70792   1.257   6.695   0.830
56318SOL    HW170793   1.325   6.722   0.892
56318SOL    HW270794   1.179   6.684   0.884
56319SOL     OW70795   6.983   8.808   4.676
56319SOL    HW170796   7.025   8.863   4.741
56319SOL    HW270797   7.053   8.781   4.617
56320SOL     OW70798   6.614   6.604   4.284
56320SOL    HW170799   6.615   6.530   4.222
56320SOL    HW270800   6.646   6.678   4.232
56321SOL     OW70801   6.923   7.613  11.182
56321SOL    HW170802   6.980   7.689  11.170
56321SOL    HW270803   6.838   7.650  11.204
56322SOL     OW70804  12.184  12.451   5.995
56322SOL    HW170805  12.233  12.403   6.061
56322SOL    HW270806  12.099  12.468   6.035
56323SOL     OW70807  14.695   2.371   7.692
56323SOL    HW170808  14.671   2.279   7.683
56323SOL    HW270809  14.655   2.413   7.616
56324SOL     OW70810   0.804   8.268   1.120
56324SOL    HW170811   0.777   8.237   1.207
56324SOL    HW270812   0.800   8.190   1.065
56325SOL     OW70813   5.772   7.967  13.837
56325SOL    HW170814   5.696   7.957  13.780
56325SOL    HW270815   5.806   7.878  13.848
56326SOL     OW70816   4.149   8.090  12.440
56326SOL    HW170817   4.207   8.017  12.461
56326SOL    HW270818   4.197   8.168  12.469
56327SOL     OW70819   0.646  10.778  13.896
56327SOL    HW170820   0.660  10.769  13.801
56327SOL    HW270821   0.701  10.710  13.935
56328SOL     OW70822   9.449   6.622   8.119
56328SOL    HW170823   9.356   6.644   8.130
56328SOL    HW270824   9.488   6.700   8.080
56329SOL     OW70825  12.579   3.649  11.681
56329SOL    HW170826  12.646   3.603  11.731
56329SOL    HW270827  12.614   3.736  11.666
56330SOL     OW70828   2.805   2.047   2.930
56330SOL    HW170829   2.737   2.030   2.865
56330SOL    HW270830   2.833   1.960   2.960
56331SOL     OW70831  13.819   4.967   8.754
56331SOL    HW170832  13.835   4.979   8.848
56331SOL    HW270833  13.895   5.008   8.712
56332SOL     OW70834   0.308   0.522   7.523
56332SOL    HW170835   0.326   0.519   7.429
56332SOL    HW270836   0.373   0.584   7.557
56333SOL     OW70837   9.208   7.161   7.660
56333SOL    HW170838   9.113   7.174   7.665
56333SOL    HW270839   9.221   7.112   7.579
56334SOL     OW70840  13.606   2.227  10.110
56334SOL    HW170841  13.655   2.282  10.171
56334SOL    HW270842  13.539   2.185  10.163
56335SOL     OW70843   9.689   9.301   6.157
56335SOL    HW170844   9.771   9.255   6.178
56335SOL    HW270845   9.621   9.233   6.165
56336SOL     OW70846   5.762   7.676  13.804
56336SOL    HW170847   5.716   7.724  13.736
56336SOL    HW270848   5.835   7.633  13.759
56337SOL     OW70849  11.938  12.719  12.853
56337SOL    HW170850  12.028  12.710  12.885
56337SOL    HW270851  11.908  12.803  12.888
56338SOL     OW70852  13.355   2.328   6.099
56338SOL    HW170853  13.352   2.404   6.158
56338SOL    HW270854  13.266   2.322   6.063
56339SOL     OW70855  10.418   5.724   7.718
56339SOL    HW170856  10.382   5.734   7.630
56339SOL    HW270857  10.503   5.682   7.705
56340SOL     OW70858  14.214   5.017  12.030
56340SOL    HW170859  14.296   5.040  11.986
56340SOL    HW270860  14.146   5.032  11.965
56341SOL     OW70861  10.976   3.978   8.066
56341SOL    HW170862  10.984   3.924   7.987
56341SOL    HW270863  10.885   3.969   8.091
56342SOL     OW70864  11.186   6.329   8.954
56342SOL    HW170865  11.276   6.304   8.972
56342SOL    HW270866  11.172   6.304   8.863
56343SOL     OW70867  14.818  11.241   7.691
56343SOL    HW170868  14.875  11.164   7.681
56343SOL    HW270869  14.770  11.246   7.608
56344SOL     OW70870  10.976   1.605  11.591
56344SOL    HW170871  10.979   1.662  11.668
56344SOL    HW270872  10.979   1.665  11.517
56345SOL     OW70873   8.643   2.717  13.284
56345SOL    HW170874   8.614   2.800  13.246
56345SOL    HW270875   8.678   2.668  13.210
56346SOL     OW70876   8.463   4.122  13.522
56346SOL    HW170877   8.469   4.040  13.472
56346SOL    HW270878   8.391   4.107  13.583
56347SOL     OW70879   8.646   9.839  14.831
56347SOL    HW170880   8.675   9.861  14.743
56347SOL    HW270881   8.624   9.746  14.826
56348SOL     OW70882   0.211  13.282  11.426
56348SOL    HW170883   0.293  13.296  11.380
56348SOL    HW270884   0.144  13.292  11.358
56349SOL     OW70885  11.771   2.006   5.567
56349SOL    HW170886  11.759   2.001   5.662
56349SOL    HW270887  11.695   2.055   5.536
56350SOL     OW70888   1.000   8.957   6.143
56350SOL    HW170889   1.009   9.047   6.111
56350SOL    HW270890   0.957   8.910   6.071
56351SOL     OW70891   6.468   1.219   6.329
56351SOL    HW170892   6.409   1.272   6.275
56351SOL    HW270893   6.432   1.131   6.323
56352SOL     OW70894   3.108   7.708  12.121
56352SOL    HW170895   3.183   7.764  12.142
56352SOL    HW270896   3.138   7.656  12.046
56353SOL     OW70897  12.914   8.380  14.446
56353SOL    HW170898  12.884   8.309  14.502
56353SOL    HW270899  12.839   8.441  14.443
56354SOL     OW70900   9.655  13.958  12.117
56354SOL    HW170901   9.695  13.996  12.038
56354SOL    HW270902   9.615  14.033  12.162
56355SOL     OW70903   0.789   4.968   2.780
56355SOL    HW170904   0.802   4.927   2.695
56355SOL    HW270905   0.694   4.981   2.786
56356SOL     OW70906   2.687  10.325  11.665
56356SOL    HW170907   2.644  10.409  11.654
56356SOL    HW270908   2.616  10.262  11.676
56357SOL     OW70909   6.293   3.929   9.587
56357SOL    HW170910   6.246   3.951   9.667
56357SOL    HW270911   6.309   4.014   9.544
56358SOL     OW70912   0.215   1.245   7.940
56358SOL    HW170913   0.259   1.162   7.960
56358SOL    HW270914   0.266   1.311   7.987
56359SOL     OW70915  13.837   5.576  10.729
56359SOL    HW170916  13.829   5.594  10.822
56359SOL    HW270917  13.931   5.571  10.713
56360SOL     OW70918   1.738  14.339  12.114
56360SOL    HW170919   1.799  14.373  12.180
56360SOL    HW270920   1.746  14.244  12.121
56361SOL     OW70921   9.149   9.181  14.743
56361SOL    HW170922   9.206   9.149  14.813
56361SOL    HW270923   9.062   9.147  14.765
56362SOL     OW70924   6.698  11.345  12.046
56362SOL    HW170925   6.620  11.353  11.991
56362SOL    HW270926   6.686  11.412  12.113
56363SOL     OW70927   6.236   8.762  14.613
56363SOL    HW170928   6.177   8.699  14.654
56363SOL    HW270929   6.277   8.714  14.542
56364SOL     OW70930   5.910  10.444   1.392
56364SOL    HW170931   5.896  10.363   1.440
56364SOL    HW270932   5.929  10.416   1.302
56365SOL     OW70933   4.315   1.662   8.922
56365SOL    HW170934   4.392   1.639   8.974
56365SOL    HW270935   4.244   1.610   8.960
56366SOL     OW70936  11.831   8.529   7.848
56366SOL    HW170937  11.784   8.562   7.772
56366SOL    HW270938  11.795   8.579   7.922
56367SOL     OW70939   8.609  13.925  11.422
56367SOL    HW170940   8.599  13.962  11.334
56367SOL    HW270941   8.639  13.998  11.476
56368SOL     OW70942   9.373  13.823   8.595
56368SOL    HW170943   9.299  13.779   8.554
56368SOL    HW270944   9.425  13.857   8.522
56369SOL     OW70945   9.459   3.132   5.881
56369SOL    HW170946   9.447   3.131   5.976
56369SOL    HW270947   9.500   3.216   5.863
56370SOL     OW70948   4.570  14.270  10.904
56370SOL    HW170949   4.654  14.286  10.860
56370SOL    HW270950   4.519  14.220  10.840
56371SOL     OW70951   4.433   3.070   6.399
56371SOL    HW170952   4.411   3.146   6.345
56371SOL    HW270953   4.353   3.017   6.400
56372SOL     OW70954   0.812  10.506   6.318
56372SOL    HW170955   0.818  10.422   6.273
56372SOL    HW270956   0.719  10.529   6.314
56373SOL     OW70957  11.986  14.351  13.175
56373SOL    HW170958  12.034  14.407  13.115
56373SOL    HW270959  11.978  14.402  13.255
56374SOL     OW70960   7.716   4.530   5.221
56374SOL    HW170961   7.631   4.548   5.180
56374SOL    HW270962   7.765   4.482   5.154
56375SOL     OW70963  14.265  13.405   1.170
56375SOL    HW170964  14.332  13.440   1.228
56375SOL    HW270965  14.277  13.454   1.088
56376SOL     OW70966   2.981  10.032   9.932
56376SOL    HW170967   2.975  10.091   9.857
56376SOL    HW270968   2.915  10.063   9.993
56377SOL     OW70969   3.403   5.488   2.377
56377SOL    HW170970   3.370   5.574   2.406
56377SOL    HW270971   3.338   5.426   2.410
56378SOL     OW70972  11.429  10.748   0.673
56378SOL    HW170973  11.471  10.814   0.617
56378SOL    HW270974  11.463  10.665   0.642
56379SOL     OW70975   8.031   5.227   1.953
56379SOL    HW170976   8.037   5.253   2.045
56379SOL    HW270977   8.122   5.218   1.925
56380SOL     OW70978  12.261   7.256  10.481
56380SOL    HW170979  12.310   7.195  10.537
56380SOL    HW270980  12.329   7.310  10.439
56381SOL     OW70981   3.316  14.738  13.142
56381SOL    HW170982   3.264  14.804  13.096
56381SOL    HW270983   3.332  14.777  13.228
56382SOL     OW70984   6.838   8.807   9.850
56382SOL    HW170985   6.924   8.774   9.823
56382SOL    HW270986   6.834   8.791   9.944
56383SOL     OW70987   6.470   9.185   4.969
56383SOL    HW170988   6.421   9.114   5.010
56383SOL    HW270989   6.558   9.178   5.005
56384SOL     OW70990   8.111  14.238   8.423
56384SOL    HW170991   8.078  14.288   8.348
56384SOL    HW270992   8.034  14.190   8.455
56385SOL     OW70993   1.405  11.401   0.495
56385SOL    HW170994   1.415  11.429   0.404
56385SOL    HW270995   1.310  11.405   0.510
56386SOL     OW70996  11.626  12.222   2.964
56386SOL    HW170997  11.680  12.283   2.914
56386SOL    HW270998  11.684  12.148   2.981
56387SOL     OW70999   2.553   3.684  13.950
56387SOL    HW171000   2.564   3.755  13.886
56387SOL    HW271001   2.615   3.617  13.922
56388SOL     OW71002   2.468   7.003   7.784
56388SOL    HW171003   2.398   7.053   7.826
56388SOL    HW271004   2.531   6.986   7.854
56389SOL     OW71005   3.998   1.641   0.757
56389SOL    HW171006   4.039   1.636   0.670
56389SOL    HW271007   3.942   1.564   0.762
56390SOL     OW71008  14.352   0.501   5.657
56390SOL    HW171009  14.345   0.489   5.562
56390SOL    HW271010  14.274   0.551   5.681
56391SOL     OW71011  10.245  13.630  10.497
56391SOL    HW171012  10.167  13.593  10.454
56391SOL    HW271013  10.315  13.620  10.431
56392SOL     OW71014   6.820   1.710   3.126
56392SOL    HW171015   6.827   1.623   3.086
56392SOL    HW271016   6.839   1.697   3.218
56393SOL     OW71017   1.360   9.426  10.652
56393SOL    HW171018   1.393   9.438  10.563
56393SOL    HW271019   1.290   9.492  10.661
56394SOL     OW71020   8.450   3.086   7.532
56394SOL    HW171021   8.380   3.126   7.584
56394SOL    HW271022   8.404   3.038   7.463
56395SOL     OW71023   7.163   9.847  14.332
56395SOL    HW171024   7.226   9.781  14.304
56395SOL    HW271025   7.091   9.841  14.268
56396SOL     OW71026   7.924   4.898   6.775
56396SOL    HW171027   7.893   4.902   6.866
56396SOL    HW271028   7.864   4.837   6.732
56397SOL     OW71029  12.574   3.509   5.710
56397SOL    HW171030  12.482   3.492   5.727
56397SOL    HW271031  12.605   3.431   5.665
56398SOL     OW71032   8.302   2.448   5.867
56398SOL    HW171033   8.304   2.376   5.804
56398SOL    HW271034   8.230   2.504   5.838
56399SOL     OW71035   8.620   7.854   8.664
56399SOL    HW171036   8.538   7.878   8.707
56399SOL    HW271037   8.621   7.758   8.667
56400SOL     OW71038  13.676   4.187   9.567
56400SOL    HW171039  13.643   4.104   9.531
56400SOL    HW271040  13.737   4.160   9.636
56401SOL     OW71041   9.147   4.055   0.489
56401SOL    HW171042   9.133   4.149   0.479
56401SOL    HW271043   9.241   4.044   0.483
56402SOL     OW71044   8.690  12.128   6.617
56402SOL    HW171045   8.650  12.105   6.701
56402SOL    HW271046   8.656  12.063   6.556
56403SOL     OW71047  13.043   8.529  10.144
56403SOL    HW171048  13.122   8.572  10.177
56403SOL    HW271049  13.033   8.564  10.055
56404SOL     OW71050   7.813   1.498  12.445
56404SOL    HW171051   7.847   1.418  12.484
56404SOL    HW271052   7.804   1.477  12.352
56405SOL     OW71053   0.185   3.477   9.972
56405SOL    HW171054   0.253   3.482   9.905
56405SOL    HW271055   0.158   3.568   9.986
56406SOL     OW71056  13.175  10.051   3.498
56406SOL    HW171057  13.086  10.068   3.529
56406SOL    HW271058  13.203   9.974   3.547
56407SOL     OW71059   7.998   4.183   4.477
56407SOL    HW171060   7.938   4.252   4.451
56407SOL    HW271061   8.074   4.229   4.512
56408SOL     OW71062   1.584   4.770   2.925
56408SOL    HW171063   1.555   4.765   3.016
56408SOL    HW271064   1.522   4.715   2.876
56409SOL     OW71065  12.053   2.833   7.382
56409SOL    HW171066  11.990   2.881   7.436
56409SOL    HW271067  12.010   2.825   7.297
56410SOL     OW71068  14.675   4.338  11.127
56410SOL    HW171069  14.707   4.276  11.192
56410SOL    HW271070  14.738   4.333  11.056
56411SOL     OW71071   3.116   3.930   4.156
56411SOL    HW171072   3.145   3.994   4.091
56411SOL    HW271073   3.187   3.866   4.161
56412SOL     OW71074   3.389   4.070  14.077
56412SOL    HW171075   3.330   4.067  14.002
56412SOL    HW271076   3.330   4.070  14.153
56413SOL     OW71077  10.173   9.459  10.781
56413SOL    HW171078  10.243   9.440  10.718
56413SOL    HW271079  10.163   9.554  10.778
56414SOL     OW71080   1.301   7.515   3.410
56414SOL    HW171081   1.256   7.431   3.397
56414SOL    HW271082   1.254   7.557   3.482
56415SOL     OW71083   8.672   3.684   9.772
56415SOL    HW171084   8.660   3.779   9.780
56415SOL    HW271085   8.602   3.657   9.712
56416SOL     OW71086  13.940   7.003  13.314
56416SOL    HW171087  13.978   6.936  13.372
56416SOL    HW271088  14.012   7.029  13.258
56417SOL     OW71089  13.463   4.902   9.925
56417SOL    HW171090  13.460   4.865  10.013
56417SOL    HW271091  13.430   4.991   9.935
56418SOL     OW71092  12.290   7.110   2.292
56418SOL    HW171093  12.362   7.153   2.338
56418SOL    HW271094  12.234   7.076   2.362
56419SOL     OW71095  10.643   4.403  13.021
56419SOL    HW171096  10.721   4.348  13.014
56419SOL    HW271097  10.611   4.410  12.931
56420SOL     OW71098  14.017  11.179   8.910
56420SOL    HW171099  14.027  11.086   8.890
56420SOL    HW271100  14.075  11.223   8.848
56421SOL     OW71101   7.003  13.156  13.019
56421SOL    HW171102   7.084  13.206  13.017
56421SOL    HW271103   7.031  13.065  13.009
56422SOL     OW71104   3.226   3.954  12.488
56422SOL    HW171105   3.204   3.861  12.492
56422SOL    HW271106   3.202   3.980  12.399
56423SOL     OW71107   2.628  11.239   2.249
56423SOL    HW171108   2.670  11.154   2.261
56423SOL    HW271109   2.596  11.263   2.335
56424SOL     OW71110  12.477   5.448   3.976
56424SOL    HW171111  12.545   5.509   4.006
56424SOL    HW271112  12.446   5.406   4.056
56425SOL     OW71113   4.367  14.162  12.151
56425SOL    HW171114   4.452  14.138  12.188
56425SOL    HW271115   4.388  14.231  12.087
56426SOL     OW71116   7.186   1.090  10.333
56426SOL    HW171117   7.117   1.111  10.396
56426SOL    HW271118   7.140   1.078  10.250
56427SOL     OW71119   2.092   4.899   8.588
56427SOL    HW171120   2.109   4.968   8.525
56427SOL    HW271121   2.129   4.931   8.670
56428SOL     OW71122  11.481   9.244   1.209
56428SOL    HW171123  11.512   9.153   1.208
56428SOL    HW271124  11.443   9.255   1.296
56429SOL     OW71125   6.152   9.153   0.716
56429SOL    HW171126   6.131   9.060   0.710
56429SOL    HW271127   6.207   9.161   0.793
56430SOL     OW71128  10.116   2.571   6.906
56430SOL    HW171129  10.021   2.563   6.909
56430SOL    HW271130  10.132   2.639   6.839
56431SOL     OW71131  11.030   4.745   0.907
56431SOL    HW171132  11.051   4.809   0.839
56431SOL    HW271133  11.065   4.662   0.874
56432SOL     OW71134   7.021  11.412  11.631
56432SOL    HW171135   7.036  11.349  11.560
56432SOL    HW271136   6.928  11.433  11.625
56433SOL     OW71137   9.758   4.999   8.124
56433SOL    HW171138   9.734   5.067   8.186
56433SOL    HW271139   9.718   5.027   8.041
56434SOL     OW71140  12.183   3.963  12.483
56434SOL    HW171141  12.118   3.898  12.457
56434SOL    HW271142  12.150   4.045  12.448
56435SOL     OW71143  10.296  11.231   4.282
56435SOL    HW171144  10.231  11.170   4.316
56435SOL    HW271145  10.252  11.316   4.284
56436SOL     OW71146   9.496  14.580   4.292
56436SOL    HW171147   9.542  14.597   4.374
56436SOL    HW271148   9.558  14.528   4.241
56437SOL     OW71149  14.072   0.339  10.639
56437SOL    HW171150  14.016   0.329  10.716
56437SOL    HW271151  14.127   0.261  10.639
56438SOL     OW71152   7.095  12.843  12.484
56438SOL    HW171153   7.099  12.790  12.404
56438SOL    HW271154   7.058  12.927  12.456
56439SOL     OW71155  13.966  10.109   5.461
56439SOL    HW171156  13.907  10.057   5.407
56439SOL    HW271157  13.909  10.166   5.512
56440SOL     OW71158   4.486   5.261   6.802
56440SOL    HW171159   4.568   5.247   6.848
56440SOL    HW271160   4.421   5.277   6.871
56441SOL     OW71161  10.322  14.638   2.344
56441SOL    HW171162  10.415  14.623   2.330
56441SOL    HW271163  10.309  14.730   2.322
56442SOL     OW71164  11.450   0.173  14.266
56442SOL    HW171165  11.426   0.225  14.342
56442SOL    HW271166  11.526   0.122  14.296
56443SOL     OW71167   3.729   0.655  12.857
56443SOL    HW171168   3.787   0.637  12.783
56443SOL    HW271169   3.750   0.744  12.884
56444SOL     OW71170   4.094   9.906  11.127
56444SOL    HW171171   4.122   9.874  11.212
56444SOL    HW271172   4.123   9.839  11.065
56445SOL     OW71173   8.758   4.791  14.797
56445SOL    HW171174   8.798   4.878  14.799
56445SOL    HW271175   8.828   4.733  14.768
56446SOL     OW71176   7.327   6.743   8.947
56446SOL    HW171177   7.238   6.712   8.930
56446SOL    HW271178   7.367   6.751   8.861
56447SOL     OW71179   5.256  10.501   4.792
56447SOL    HW171180   5.193  10.469   4.857
56447SOL    HW271181   5.341  10.495   4.836
56448SOL     OW71182   5.895   2.255   9.816
56448SOL    HW171183   5.965   2.290   9.761
56448SOL    HW271184   5.923   2.277   9.905
56449SOL     OW71185   6.029   3.389  13.539
56449SOL    HW171186   6.015   3.441  13.459
56449SOL    HW271187   5.973   3.430  13.604
56450SOL     OW71188  14.531   0.337   7.970
56450SOL    HW171189  14.503   0.373   7.886
56450SOL    HW271190  14.477   0.259   7.981
56451SOL     OW71191  11.183   9.222   2.598
56451SOL    HW171192  11.195   9.152   2.533
56451SOL    HW271193  11.222   9.187   2.678
56452SOL     OW71194   7.704   0.792  13.470
56452SOL    HW171195   7.615   0.780  13.438
56452SOL    HW271196   7.694   0.842  13.551
56453SOL     OW71197   4.268  11.703   4.381
56453SOL    HW171198   4.275  11.650   4.460
56453SOL    HW271199   4.255  11.792   4.414
56454SOL     OW71200  11.986   7.502   6.093
56454SOL    HW171201  11.983   7.561   6.018
56454SOL    HW271202  11.912   7.443   6.080
56455SOL     OW71203   8.910   1.655   0.948
56455SOL    HW171204   8.829   1.644   0.999
56455SOL    HW271205   8.882   1.699   0.868
56456SOL     OW71206   5.097   8.645   4.740
56456SOL    HW171207   5.158   8.673   4.808
56456SOL    HW271208   5.013   8.635   4.785
56457SOL     OW71209  11.578   1.247   5.257
56457SOL    HW171210  11.649   1.199   5.299
56457SOL    HW271211  11.537   1.296   5.328
56458SOL     OW71212   5.087  14.668   3.953
56458SOL    HW171213   5.024  14.723   3.907
56458SOL    HW271214   5.159  14.656   3.891
56459SOL     OW71215   4.420   2.968  11.306
56459SOL    HW171216   4.473   2.960  11.385
56459SOL    HW271217   4.442   3.055  11.271
56460SOL     OW71218  13.861  12.619  10.029
56460SOL    HW171219  13.793  12.588  10.089
56460SOL    HW271220  13.925  12.662  10.086
56461SOL     OW71221  14.836  11.348   6.820
56461SOL    HW171222  14.756  11.344   6.873
56461SOL    HW271223  14.832  11.433   6.777
56462SOL     OW71224  11.567  10.287   0.010
56462SOL    HW171225  11.542  10.280   0.103
56462SOL    HW271226  11.606  10.374   0.002
56463SOL     OW71227   5.132   8.027   7.476
56463SOL    HW171228   5.187   8.051   7.550
56463SOL    HW271229   5.165   8.081   7.404
56464SOL     OW71230  12.315   2.880  13.870
56464SOL    HW171231  12.344   2.789  13.881
56464SOL    HW271232  12.247   2.890  13.937
56465SOL     OW71233   6.578   8.439  14.268
56465SOL    HW171234   6.553   8.349  14.250
56465SOL    HW271235   6.645   8.459  14.202
56466SOL     OW71236  12.502  13.356   6.763
56466SOL    HW171237  12.536  13.279   6.717
56466SOL    HW271238  12.567  13.374   6.831
56467SOL     OW71239   8.651  13.098   0.637
56467SOL    HW171240   8.699  13.015   0.636
56467SOL    HW271241   8.666  13.135   0.550
56468SOL     OW71242   0.953   8.216   0.248
56468SOL    HW171243   0.916   8.234   0.162
56468SOL    HW271244   1.036   8.174   0.230
56469SOL     OW71245   2.186   5.649   9.127
56469SOL    HW171246   2.234   5.651   9.210
56469SOL    HW271247   2.159   5.740   9.113
56470SOL     OW71248  13.480   5.276   6.907
56470SOL    HW171249  13.471   5.372   6.904
56470SOL    HW271250  13.413   5.244   6.848
56471SOL     OW71251   4.881   8.297  10.954
56471SOL    HW171252   4.876   8.210  10.993
56471SOL    HW271253   4.832   8.354  11.013
56472SOL     OW71254   3.164   4.856   3.722
56472SOL    HW171255   3.222   4.798   3.672
56472SOL    HW271256   3.215   4.936   3.733
56473SOL     OW71257  11.519   5.889   7.038
56473SOL    HW171258  11.454   5.880   6.969
56473SOL    HW271259  11.584   5.949   7.003
56474SOL     OW71260   7.728   2.294  11.311
56474SOL    HW171261   7.748   2.204  11.287
56474SOL    HW271262   7.799   2.345  11.271
56475SOL     OW71263   3.297   2.197  11.420
56475SOL    HW171264   3.316   2.234  11.334
56475SOL    HW271265   3.383   2.174  11.455
56476SOL     OW71266   3.950  14.365   8.811
56476SOL    HW171267   3.939  14.458   8.829
56476SOL    HW271268   4.015  14.361   8.742
56477SOL     OW71269  12.277   0.720   2.641
56477SOL    HW171270  12.204   0.672   2.601
56477SOL    HW271271  12.344   0.722   2.574
56478SOL     OW71272  13.113   9.092   4.434
56478SOL    HW171273  13.175   9.140   4.379
56478SOL    HW271274  13.029   9.136   4.420
56479SOL     OW71275   9.498   1.017  11.337
56479SOL    HW171276   9.421   1.063  11.304
56479SOL    HW271277   9.543   1.081  11.392
56480SOL     OW71278   7.621   1.995   5.747
56480SOL    HW171279   7.555   2.064   5.738
56480SOL    HW271280   7.615   1.946   5.665
56481SOL     OW71281   8.820   4.005  13.482
56481SOL    HW171282   8.827   4.045  13.396
56481SOL    HW271283   8.870   3.923  13.475
56482SOL     OW71284   0.062   7.241  13.335
56482SOL    HW171285   0.039   7.220  13.245
56482SOL    HW271286  14.873   7.300  13.365
56483SOL     OW71287   9.983   7.463   7.030
56483SOL    HW171288  10.011   7.421   6.949
56483SOL    HW271289   9.927   7.535   7.002
56484SOL     OW71290   6.976  11.251   9.121
56484SOL    HW171291   6.972  11.174   9.064
56484SOL    HW271292   7.066  11.282   9.112
56485SOL     OW71293   3.217   5.270  14.613
56485SOL    HW171294   3.161   5.317  14.675
56485SOL    HW271295   3.228   5.183  14.652
56486SOL     OW71296   8.349   9.530   4.646
56486SOL    HW171297   8.284   9.489   4.703
56486SOL    HW271298   8.385   9.602   4.698
56487SOL     OW71299   5.419  11.627   4.699
56487SOL    HW171300   5.386  11.630   4.609
56487SOL    HW271301   5.446  11.717   4.717
56488SOL     OW71302  14.182  12.974   8.499
56488SOL    HW171303  14.208  13.061   8.468
56488SOL    HW271304  14.208  12.972   8.591
56489SOL     OW71305   7.339  12.447  12.445
56489SOL    HW171306   7.347  12.541  12.427
56489SOL    HW271307   7.410  12.407  12.394
56490SOL     OW71308   2.348  11.148   8.579
56490SOL    HW171309   2.271  11.201   8.601
56490SOL    HW271310   2.312  11.074   8.529
56491SOL     OW71311  12.727   3.478  10.270
56491SOL    HW171312  12.633   3.472  10.284
56491SOL    HW271313  12.752   3.392  10.234
56492SOL     OW71314   1.019  12.962  11.581
56492SOL    HW171315   1.016  13.050  11.619
56492SOL    HW271316   1.057  12.908  11.651
56493SOL     OW71317   6.848   9.735  12.367
56493SOL    HW171318   6.935   9.749  12.406
56493SOL    HW271319   6.812   9.661  12.416
56494SOL     OW71320   7.954   5.920  14.375
56494SOL    HW171321   7.938   5.857  14.446
56494SOL    HW271322   7.903   5.997  14.400
56495SOL     OW71323   5.954  13.978  13.030
56495SOL    HW171324   5.942  14.066  13.066
56495SOL    HW271325   5.901  13.977  12.950
56496SOL     OW71326  10.302  10.713  13.130
56496SOL    HW171327  10.395  10.716  13.150
56496SOL    HW271328  10.290  10.783  13.065
56497SOL     OW71329  11.338   1.573  12.221
56497SOL    HW171330  11.342   1.661  12.183
56497SOL    HW271331  11.255   1.571  12.268
56498SOL     OW71332   4.246  10.453   3.952
56498SOL    HW171333   4.298  10.501   4.016
56498SOL    HW271334   4.164  10.435   3.997
56499SOL     OW71335  11.094  12.892   3.189
56499SOL    HW171336  11.082  12.986   3.198
56499SOL    HW271337  11.189  12.879   3.196
56500SOL     OW71338   9.304   2.470  14.378
56500SOL    HW171339   9.390   2.433  14.360
56500SOL    HW271340   9.321   2.561  14.399
56501SOL     OW71341  14.397   8.692   4.770
56501SOL    HW171342  14.330   8.674   4.836
56501SOL    HW271343  14.360   8.658   4.688
56502SOL     OW71344   1.796   8.287   4.499
56502SOL    HW171345   1.718   8.260   4.549
56502SOL    HW271346   1.863   8.303   4.566
56503SOL     OW71347   1.829   0.123  12.116
56503SOL    HW171348   1.859   0.168  12.037
56503SOL    HW271349   1.766   0.058  12.084
56504SOL     OW71350   7.714  14.221  12.709
56504SOL    HW171351   7.664  14.294  12.745
56504SOL    HW271352   7.651  14.150  12.698
56505SOL     OW71353  12.513   9.717  10.790
56505SOL    HW171354  12.431   9.749  10.828
56505SOL    HW271355  12.566   9.795  10.776
56506SOL     OW71356  13.912  10.503   3.121
56506SOL    HW171357  13.980  10.439   3.101
56506SOL    HW271358  13.933  10.534   3.209
56507SOL     OW71359  10.346   8.902  14.805
56507SOL    HW171360  10.300   8.825  14.771
56507SOL    HW271361  10.279   8.971  14.806
56508SOL     OW71362  14.383   0.796   0.703
56508SOL    HW171363  14.400   0.768   0.614
56508SOL    HW271364  14.469   0.801   0.744
56509SOL     OW71365   7.557   3.389  10.994
56509SOL    HW171366   7.644   3.383  11.033
56509SOL    HW271367   7.570   3.437  10.913
56510SOL     OW71368   9.360  13.494   3.994
56510SOL    HW171369   9.326  13.484   4.083
56510SOL    HW271370   9.281  13.498   3.939
56511SOL     OW71371   1.586   1.391   4.394
56511SOL    HW171372   1.651   1.367   4.460
56511SOL    HW271373   1.603   1.483   4.376
56512SOL     OW71374  12.033   2.162  12.912
56512SOL    HW171375  12.099   2.197  12.852
56512SOL    HW271376  11.951   2.204  12.884
56513SOL     OW71377  10.127   2.120  11.084
56513SOL    HW171378  10.071   2.043  11.088
56513SOL    HW271379  10.066   2.193  11.068
56514SOL     OW71380   9.107   6.839  11.648
56514SOL    HW171381   9.193   6.860  11.610
56514SOL    HW271382   9.046   6.896  11.602
56515SOL     OW71383   1.855   9.166   1.778
56515SOL    HW171384   1.851   9.162   1.874
56515SOL    HW271385   1.788   9.230   1.754
56516SOL     OW71386  11.614   3.068   1.485
56516SOL    HW171387  11.539   3.128   1.480
56516SOL    HW271388  11.617   3.041   1.576
56517SOL     OW71389   8.309   9.929   5.989
56517SOL    HW171390   8.267   9.984   5.923
56517SOL    HW271391   8.237   9.881   6.030
56518SOL     OW71392  13.703   0.346   5.640
56518SOL    HW171393  13.661   0.262   5.656
56518SOL    HW271394  13.796   0.330   5.656
56519SOL     OW71395   0.257   6.118  12.076
56519SOL    HW171396   0.262   6.138  12.169
56519SOL    HW271397   0.256   6.023  12.072
56520SOL     OW71398   4.277  11.767   0.677
56520SOL    HW171399   4.291  11.750   0.770
56520SOL    HW271400   4.190  11.732   0.659
56521SOL     OW71401   9.445   4.659  14.441
56521SOL    HW171402   9.454   4.587  14.378
56521SOL    HW271403   9.387   4.625  14.509
56522SOL     OW71404  13.878  14.198   6.001
56522SOL    HW171405  13.857  14.290   6.010
56522SOL    HW271406  13.892  14.185   5.907
56523SOL     OW71407   5.291  12.177   0.572
56523SOL    HW171408   5.230  12.108   0.599
56523SOL    HW271409   5.287  12.241   0.643
56524SOL     OW71410   4.415   9.827   0.730
56524SOL    HW171411   4.467   9.904   0.706
56524SOL    HW271412   4.329   9.862   0.753
56525SOL     OW71413   1.690  11.747   5.001
56525SOL    HW171414   1.740  11.674   5.039
56525SOL    HW271415   1.605  11.743   5.045
56526SOL     OW71416   3.982  10.824   0.963
56526SOL    HW171417   3.927  10.855   1.035
56526SOL    HW271418   4.048  10.768   1.004
56527SOL     OW71419   0.224   1.783   6.813
56527SOL    HW171420   0.308   1.737   6.819
56527SOL    HW271421   0.182   1.745   6.736
56528SOL     OW71422  14.296   3.565   9.966
56528SOL    HW171423  14.202   3.553   9.951
56528SOL    HW271424  14.314   3.653   9.932
56529SOL     OW71425   5.494   2.660   5.705
56529SOL    HW171426   5.460   2.733   5.654
56529SOL    HW271427   5.551   2.700   5.771
56530SOL     OW71428   8.110  13.212   3.319
56530SOL    HW171429   8.022  13.237   3.348
56530SOL    HW271430   8.154  13.184   3.398
56531SOL     OW71431  11.986   7.722  13.634
56531SOL    HW171432  11.891   7.727  13.620
56531SOL    HW271433  12.004   7.628  13.640
56532SOL     OW71434  10.694  13.781   7.515
56532SOL    HW171435  10.729  13.869   7.497
56532SOL    HW271436  10.761  13.722   7.481
56533SOL     OW71437   5.087   0.911   8.311
56533SOL    HW171438   5.099   0.855   8.389
56533SOL    HW271439   5.145   0.985   8.326
56534SOL     OW71440   0.776   0.171   8.109
56534SOL    HW171441   0.804   0.110   8.040
56534SOL    HW271442   0.716   0.231   8.064
56535SOL     OW71443  11.417   2.116  11.568
56535SOL    HW171444  11.470   2.044  11.604
56535SOL    HW271445  11.479   2.168  11.518
56536SOL     OW71446   8.701  10.173  10.028
56536SOL    HW171447   8.728  10.254  10.073
56536SOL    HW271448   8.632  10.136  10.084
56537SOL     OW71449  14.599  11.941   2.008
56537SOL    HW171450  14.663  12.002   2.045
56537SOL    HW271451  14.593  11.871   2.074
56538SOL     OW71452  10.610   5.923   4.926
56538SOL    HW171453  10.517   5.917   4.906
56538SOL    HW271454  10.619   5.882   5.012
56539SOL     OW71455   5.769  11.925   1.333
56539SOL    HW171456   5.787  11.893   1.245
56539SOL    HW271457   5.808  12.013   1.335
56540SOL     OW71458  12.607   3.869  10.785
56540SOL    HW171459  12.568   3.826  10.861
56540SOL    HW271460  12.543   3.856  10.715
56541SOL     OW71461   4.360   8.405   2.069
56541SOL    HW171462   4.308   8.364   2.137
56541SOL    HW271463   4.305   8.474   2.034
56542SOL     OW71464   8.657  10.166   6.458
56542SOL    HW171465   8.710  10.142   6.382
56542SOL    HW271466   8.722  10.197   6.522
56543SOL     OW71467   2.491   2.743   5.766
56543SOL    HW171468   2.464   2.741   5.674
56543SOL    HW271469   2.583   2.716   5.764
56544SOL     OW71470  11.634   2.615  12.912
56544SOL    HW171471  11.654   2.707  12.931
56544SOL    HW271472  11.719   2.572  12.908
56545SOL     OW71473  10.585  13.741  13.292
56545SOL    HW171474  10.601  13.691  13.212
56545SOL    HW271475  10.626  13.825  13.276
56546SOL     OW71476   6.537  14.700   2.987
56546SOL    HW171477   6.449  14.691   3.024
56546SOL    HW271478   6.594  14.654   3.048
56547SOL     OW71479  14.051   2.748   3.204
56547SOL    HW171480  14.131   2.775   3.250
56547SOL    HW271481  13.983   2.749   3.271
56548SOL     OW71482   5.352   5.427   0.896
56548SOL    HW171483   5.423   5.371   0.928
56548SOL    HW271484   5.375   5.515   0.927
56549SOL     OW71485   9.949   4.998   6.091
56549SOL    HW171486   9.975   4.933   6.156
56549SOL    HW271487   9.918   5.073   6.143
56550SOL     OW71488  12.003   0.336   1.998
56550SOL    HW171489  12.016   0.397   2.070
56550SOL    HW271490  12.031   0.383   1.920
56551SOL     OW71491   6.783  13.163   5.287
56551SOL    HW171492   6.798  13.241   5.234
56551SOL    HW271493   6.714  13.116   5.241
56552SOL     OW71494  13.652   5.022   6.068
56552SOL    HW171495  13.646   5.026   5.973
56552SOL    HW271496  13.572   4.977   6.096
56553SOL     OW71497   0.774  13.573   8.722
56553SOL    HW171498   0.697  13.519   8.738
56553SOL    HW271499   0.822  13.527   8.653
56554SOL     OW71500  10.964   4.050  10.882
56554SOL    HW171501  10.992   4.142  10.886
56554SOL    HW271502  11.038   4.004  10.844
56555SOL     OW71503   9.401   1.963  11.348
56555SOL    HW171504   9.383   2.056  11.360
56555SOL    HW271505   9.484   1.949  11.394
56556SOL     OW71506   1.211   4.900  12.297
56556SOL    HW171507   1.188   4.867  12.210
56556SOL    HW271508   1.274   4.970  12.281
56557SOL     OW71509   9.354   1.294   2.975
56557SOL    HW171510   9.407   1.301   3.055
56557SOL    HW271511   9.267   1.325   3.000
56558SOL     OW71512   0.012   0.748   4.595
56558SOL    HW171513  14.825   0.766   4.528
56558SOL    HW271514   0.086   0.804   4.571
56559SOL     OW71515   7.560  13.035  13.947
56559SOL    HW171516   7.559  13.098  14.019
56559SOL    HW271517   7.527  13.084  13.872
56560SOL     OW71518  11.107   9.576   0.333
56560SOL    HW171519  11.144   9.501   0.286
56560SOL    HW271520  11.116   9.553   0.425
56561SOL     OW71521  11.885   0.328  10.334
56561SOL    HW171522  11.925   0.304  10.251
56561SOL    HW271523  11.828   0.254  10.355
56562SOL     OW71524   9.262   8.749   2.257
56562SOL    HW171525   9.201   8.815   2.225
56562SOL    HW271526   9.325   8.737   2.185
56563SOL     OW71527  12.313   7.323   0.977
56563SOL    HW171528  12.407   7.340   0.986
56563SOL    HW271529  12.298   7.318   0.883
56564SOL     OW71530  13.380  11.641  12.027
56564SOL    HW171531  13.386  11.664  12.120
56564SOL    HW271532  13.356  11.549  12.026
56565SOL     OW71533   0.572   2.184   9.863
56565SOL    HW171534   0.489   2.215   9.900
56565SOL    HW271535   0.555   2.093   9.839
56566SOL     OW71536   0.586  13.949  10.527
56566SOL    HW171537   0.624  14.023  10.575
56566SOL    HW271538   0.516  13.987  10.474
56567SOL     OW71539   6.195   3.294  14.189
56567SOL    HW171540   6.233   3.369  14.235
56567SOL    HW271541   6.104   3.319  14.175
56568SOL     OW71542   1.964  10.717  13.868
56568SOL    HW171543   2.034  10.754  13.922
56568SOL    HW271544   1.895  10.784  13.868
56569SOL     OW71545  12.277   8.585   3.611
56569SOL    HW171546  12.182   8.585   3.614
56569SOL    HW271547  12.301   8.677   3.599
56570SOL     OW71548  13.878  12.818   9.489
56570SOL    HW171549  13.858  12.845   9.579
56570SOL    HW271550  13.797  12.834   9.441
56571SOL     OW71551  11.551   3.755   2.432
56571SOL    HW171552  11.641   3.748   2.462
56571SOL    HW271553  11.503   3.791   2.508
56572SOL     OW71554  13.838  13.662   8.610
56572SOL    HW171555  13.892  13.614   8.673
56572SOL    HW271556  13.759  13.610   8.601
56573SOL     OW71557   4.879   2.306   4.541
56573SOL    HW171558   4.908   2.232   4.595
56573SOL    HW271559   4.887   2.275   4.451
56574SOL     OW71560   9.545   8.814  10.414
56574SOL    HW171561   9.522   8.907  10.412
56574SOL    HW271562   9.464   8.770  10.438
56575SOL     OW71563   3.842  12.449  11.368
56575SOL    HW171564   3.922  12.397  11.380
56575SOL    HW271565   3.782  12.391  11.321
56576SOL     OW71566   3.573  13.026  11.059
56576SOL    HW171567   3.542  13.040  11.148
56576SOL    HW271568   3.663  13.058  11.059
56577SOL     OW71569   2.180  10.008  13.944
56577SOL    HW171570   2.120   9.982  13.874
56577SOL    HW271571   2.196   9.928  13.993
56578SOL     OW71572   4.955   6.205   9.268
56578SOL    HW171573   4.936   6.297   9.247
56578SOL    HW271574   4.884   6.157   9.227
56579SOL     OW71575   0.567  12.420   7.146
56579SOL    HW171576   0.631  12.489   7.162
56579SOL    HW271577   0.582  12.357   7.217
56580SOL     OW71578   0.213  14.378   1.485
56580SOL    HW171579   0.203  14.435   1.409
56580SOL    HW271580   0.308  14.371   1.497
56581SOL     OW71581  10.088  10.871  11.652
56581SOL    HW171582  10.016  10.838  11.706
56581SOL    HW271583  10.045  10.917  11.580
56582SOL     OW71584   4.220  12.626  11.326
56582SOL    HW171585   4.178  12.581  11.399
56582SOL    HW271586   4.247  12.711  11.362
56583SOL     OW71587   7.622   5.767   2.512
56583SOL    HW171588   7.642   5.858   2.533
56583SOL    HW271589   7.614   5.724   2.597
56584SOL     OW71590  10.353  12.407   4.552
56584SOL    HW171591  10.409  12.337   4.518
56584SOL    HW271592  10.264  12.376   4.535
56585SOL     OW71593   2.649   0.345   2.888
56585SOL    HW171594   2.729   0.356   2.940
56585SOL    HW271595   2.578   0.357   2.950
56586SOL     OW71596   5.240  13.968   9.406
56586SOL    HW171597   5.328  14.007   9.403
56586SOL    HW271598   5.245  13.895   9.345
56587SOL     OW71599   1.397   6.678   6.929
56587SOL    HW171600   1.469   6.691   6.991
56587SOL    HW271601   1.412   6.590   6.894
56588SOL     OW71602   0.198   4.777   8.914
56588SOL    HW171603   0.292   4.783   8.929
56588SOL    HW271604   0.184   4.818   8.829
56589SOL     OW71605  11.006   9.059  11.592
56589SOL    HW171606  11.051   8.997  11.535
56589SOL    HW271607  11.015   9.022  11.680
56590SOL     OW71608  12.875   3.695   2.188
56590SOL    HW171609  12.844   3.606   2.204
56590SOL    HW271610  12.963   3.684   2.151
56591SOL     OW71611   9.102  13.814  13.332
56591SOL    HW171612   9.058  13.736  13.366
56591SOL    HW271613   9.107  13.873  13.407
56592SOL     OW71614   4.311  10.423   4.304
56592SOL    HW171615   4.388  10.385   4.263
56592SOL    HW271616   4.297  10.505   4.256
56593SOL     OW71617   2.144  13.456   9.886
56593SOL    HW171618   2.150  13.389   9.818
56593SOL    HW271619   2.218  13.515   9.869
56594SOL     OW71620   5.975   9.283   9.246
56594SOL    HW171621   5.923   9.214   9.288
56594SOL    HW271622   5.917   9.320   9.180
56595SOL     OW71623   7.069  12.911   5.933
56595SOL    HW171624   7.060  12.961   5.852
56595SOL    HW271625   7.052  12.820   5.907
56596SOL     OW71626  13.945   8.217   3.463
56596SOL    HW171627  13.937   8.298   3.412
56596SOL    HW271628  14.037   8.213   3.487
56597SOL     OW71629   2.116   4.691   5.231
56597SOL    HW171630   2.091   4.601   5.252
56597SOL    HW271631   2.051   4.719   5.166
56598SOL     OW71632   7.718   9.634   8.554
56598SOL    HW171633   7.678   9.715   8.587
56598SOL    HW271634   7.728   9.580   8.632
56599SOL     OW71635   7.088   2.570  10.928
56599SOL    HW171636   7.125   2.573  11.017
56599SOL    HW271637   7.107   2.481  10.898
56600SOL     OW71638   1.992   0.558  13.477
56600SOL    HW171639   1.911   0.558  13.528
56600SOL    HW271640   2.005   0.649  13.453
56601SOL     OW71641   9.542  10.987   4.621
56601SOL    HW171642   9.580  10.915   4.570
56601SOL    HW271643   9.561  10.964   4.712
56602SOL     OW71644  12.738   7.196   1.423
56602SOL    HW171645  12.783   7.112   1.425
56602SOL    HW271646  12.781   7.247   1.492
56603SOL     OW71647  10.623   0.983   0.353
56603SOL    HW171648  10.695   0.930   0.319
56603SOL    HW271649  10.589   0.933   0.426
56604SOL     OW71650  10.690   0.195  13.525
56604SOL    HW171651  10.672   0.240  13.443
56604SOL    HW271652  10.772   0.233  13.556
56605SOL     OW71653   4.340  11.185   2.203
56605SOL    HW171654   4.318  11.241   2.129
56605SOL    HW271655   4.329  11.096   2.171
56606SOL     OW71656   0.298   9.370   6.958
56606SOL    HW171657   0.275   9.284   6.921
56606SOL    HW271658   0.248   9.375   7.039
56607SOL     OW71659   0.784  10.405   3.992
56607SOL    HW171660   0.834  10.344   4.046
56607SOL    HW271661   0.756  10.353   3.917
56608SOL     OW71662  10.887   6.677   8.906
56608SOL    HW171663  10.814   6.620   8.931
56608SOL    HW271664  10.936   6.626   8.842
56609SOL     OW71665  11.378   9.323   9.832
56609SOL    HW171666  11.398   9.349   9.922
56609SOL    HW271667  11.284   9.336   9.824
56610SOL     OW71668   7.698   0.783  10.222
56610SOL    HW171669   7.684   0.864  10.174
56610SOL    HW271670   7.642   0.719  10.178
56611SOL     OW71671   5.124  12.152   8.034
56611SOL    HW171672   5.184  12.181   8.103
56611SOL    HW271673   5.078  12.232   8.007
56612SOL     OW71674   1.354   7.645  12.467
56612SOL    HW171675   1.281   7.584  12.463
56612SOL    HW271676   1.421   7.599  12.517
56613SOL     OW71677  12.776   2.277   7.936
56613SOL    HW171678  12.778   2.372   7.939
56613SOL    HW271679  12.684   2.255   7.920
56614SOL     OW71680   1.808   1.882   0.720
56614SOL    HW171681   1.842   1.916   0.803
56614SOL    HW271682   1.722   1.846   0.741
56615SOL     OW71683   4.141   4.474  13.826
56615SOL    HW171684   4.138   4.568  13.841
56615SOL    HW271685   4.198   4.441  13.896
56616SOL     OW71686   9.203   9.283  11.725
56616SOL    HW171687   9.230   9.374  11.741
56616SOL    HW271688   9.196   9.245  11.813
56617SOL     OW71689  10.587  10.818   4.764
56617SOL    HW171690  10.534  10.842   4.688
56617SOL    HW271691  10.645  10.749   4.731
56618SOL     OW71692  14.384  11.383   2.329
56618SOL    HW171693  14.352  11.471   2.308
56618SOL    HW271694  14.306  11.327   2.324
56619SOL     OW71695   6.937   7.080   7.398
56619SOL    HW171696   7.024   7.067   7.359
56619SOL    HW271697   6.880   7.020   7.350
56620SOL     OW71698   8.827   8.295  14.242
56620SOL    HW171699   8.778   8.271  14.163
56620SOL    HW271700   8.780   8.253  14.314
56621SOL     OW71701  10.174   3.571  13.283
56621SOL    HW171702  10.255   3.523  13.270
56621SOL    HW271703  10.201   3.655  13.321
56622SOL     OW71704   2.396   5.832   8.842
56622SOL    HW171705   2.316   5.860   8.797
56622SOL    HW271706   2.367   5.814   8.932
56623SOL     OW71707   2.745   0.351   0.121
56623SOL    HW171708   2.718   0.262   0.101
56623SOL    HW271709   2.702   0.405   0.055
56624SOL     OW71710   8.069  14.425   8.756
56624SOL    HW171711   8.039  14.466   8.837
56624SOL    HW271712   8.002  14.360   8.735
56625SOL     OW71713  11.323  14.494   4.416
56625SOL    HW171714  11.407  14.481   4.459
56625SOL    HW271715  11.285  14.571   4.458
56626SOL     OW71716  12.380   5.636   4.834
56626SOL    HW171717  12.307   5.581   4.807
56626SOL    HW271718  12.397   5.609   4.925
56627SOL     OW71719   2.523   4.604   2.665
56627SOL    HW171720   2.561   4.689   2.644
56627SOL    HW271721   2.468   4.583   2.590
56628SOL     OW71722  12.631   8.589   8.655
56628SOL    HW171723  12.670   8.566   8.571
56628SOL    HW271724  12.672   8.530   8.718
56629SOL     OW71725   0.102   0.797  13.660
56629SOL    HW171726   0.015   0.782  13.698
56629SOL    HW271727   0.102   0.890  13.639
56630SOL     OW71728   0.967  13.621   9.405
56630SOL    HW171729   0.886  13.669   9.387
56630SOL    HW271730   0.971  13.555   9.335
56631SOL     OW71731   1.565  13.073   1.491
56631SOL    HW171732   1.601  12.984   1.486
56631SOL    HW271733   1.610  13.113   1.566
56632SOL     OW71734   6.362   0.146  13.638
56632SOL    HW171735   6.412   0.228  13.633
56632SOL    HW271736   6.301   0.159  13.710
56633SOL     OW71737  13.913  12.171   5.117
56633SOL    HW171738  13.925  12.266   5.111
56633SOL    HW271739  13.824  12.160   5.150
56634SOL     OW71740  11.242   7.664   7.222
56634SOL    HW171741  11.328   7.653   7.262
56634SOL    HW271742  11.187   7.598   7.264
56635SOL     OW71743   7.981   6.403   7.781
56635SOL    HW171744   8.069   6.374   7.758
56635SOL    HW271745   7.946   6.441   7.701
56636SOL     OW71746   0.425   8.179   9.457
56636SOL    HW171747   0.393   8.089   9.462
56636SOL    HW271748   0.457   8.188   9.367
56637SOL     OW71749  11.258  11.055   3.530
56637SOL    HW171750  11.263  11.058   3.435
56637SOL    HW271751  11.324  11.116   3.561
56638SOL     OW71752  13.265   6.182   0.804
56638SOL    HW171753  13.240   6.151   0.717
56638SOL    HW271754  13.185   6.221   0.839
56639SOL     OW71755   7.777  13.668   6.732
56639SOL    HW171756   7.736  13.584   6.754
56639SOL    HW271757   7.704  13.729   6.720
56640SOL     OW71758  14.821  10.590   3.878
56640SOL    HW171759  14.841  10.670   3.829
56640SOL    HW271760  14.823  10.521   3.812
56641SOL     OW71761  13.904   3.421   7.674
56641SOL    HW171762  13.994   3.423   7.706
56641SOL    HW271763  13.867   3.506   7.700
56642SOL     OW71764   5.634   0.965  14.776
56642SOL    HW171765   5.671   0.913  14.848
56642SOL    HW271766   5.596   0.900  14.717
56643SOL     OW71767  14.095   5.978   1.395
56643SOL    HW171768  14.089   6.023   1.480
56643SOL    HW271769  14.128   6.045   1.335
56644SOL     OW71770   8.468   3.722  10.136
56644SOL    HW171771   8.550   3.683  10.165
56644SOL    HW271772   8.430   3.760  10.214
56645SOL     OW71773   8.969   8.232   3.025
56645SOL    HW171774   8.927   8.206   2.943
56645SOL    HW271775   8.979   8.327   3.018
56646SOL     OW71776   3.357   5.535   0.467
56646SOL    HW171777   3.263   5.539   0.450
56646SOL    HW271778   3.382   5.445   0.446
56647SOL     OW71779   5.958   8.941   7.209
56647SOL    HW171780   5.986   8.967   7.122
56647SOL    HW271781   5.881   8.996   7.226
56648SOL     OW71782  13.183  14.150   7.753
56648SOL    HW171783  13.148  14.134   7.665
56648SOL    HW271784  13.184  14.064   7.795
56649SOL     OW71785   0.748   1.573  13.437
56649SOL    HW171786   0.763   1.665  13.457
56649SOL    HW271787   0.806   1.526  13.498
56650SOL     OW71788  11.028   2.963  14.657
56650SOL    HW171789  11.024   2.952  14.752
56650SOL    HW271790  10.958   3.025  14.637
56651SOL     OW71791   2.173   0.692  12.322
56651SOL    HW171792   2.164   0.630  12.394
56651SOL    HW271793   2.124   0.769  12.350
56652SOL     OW71794   6.441  13.829  14.538
56652SOL    HW171795   6.475  13.852  14.625
56652SOL    HW271796   6.505  13.767  14.503
56653SOL     OW71797   5.409  14.724   8.025
56653SOL    HW171798   5.495  14.685   8.008
56653SOL    HW271799   5.406  14.801   7.968
56654SOL     OW71800   0.223   2.973   5.254
56654SOL    HW171801   0.129   2.966   5.240
56654SOL    HW271802   0.261   2.903   5.201
56655SOL     OW71803  13.690   8.869  13.767
56655SOL    HW171804  13.741   8.949  13.767
56655SOL    HW271805  13.599   8.898  13.776
56656SOL     OW71806   3.892  14.737   2.650
56656SOL    HW171807   3.857  14.767   2.734
56656SOL    HW271808   3.982  14.713   2.668
56657SOL     OW71809   8.130   6.363   3.648
56657SOL    HW171810   8.200   6.354   3.583
56657SOL    HW271811   8.135   6.454   3.676
56658SOL     OW71812   4.771  13.962  13.231
56658SOL    HW171813   4.781  14.054  13.210
56658SOL    HW271814   4.815  13.916  13.159
56659SOL     OW71815  14.279   6.150   9.610
56659SOL    HW171816  14.250   6.060   9.622
56659SOL    HW271817  14.366   6.153   9.650
56660SOL     OW71818   7.168   9.030   0.288
56660SOL    HW171819   7.118   9.107   0.314
56660SOL    HW271820   7.236   9.021   0.355
56661SOL     OW71821   2.216  10.328   7.877
56661SOL    HW171822   2.188  10.343   7.967
56661SOL    HW271823   2.299  10.281   7.885
56662SOL     OW71824  10.176  13.417   1.271
56662SOL    HW171825  10.126  13.439   1.350
56662SOL    HW271826  10.112  13.425   1.200
56663SOL     OW71827   6.032  11.145  12.513
56663SOL    HW171828   6.105  11.165  12.573
56663SOL    HW271829   5.954  11.158  12.566
56664SOL     OW71830   7.307  13.320  12.966
56664SOL    HW171831   7.385  13.362  12.930
56664SOL    HW271832   7.341  13.253  13.025
56665SOL     OW71833  14.876  11.467  14.262
56665SOL    HW171834   0.075  11.440  14.309
56665SOL    HW271835   0.023  11.545  14.212
56666SOL     OW71836  14.795   7.770  13.347
56666SOL    HW171837  14.818   7.843  13.288
56666SOL    HW271838  14.759   7.703  13.289
56667SOL     OW71839  14.856   8.859   6.899
56667SOL    HW171840  14.772   8.815   6.912
56667SOL    HW271841  14.875   8.902   6.982
56668SOL     OW71842  14.029  13.411   3.175
56668SOL    HW171843  14.105  13.419   3.118
56668SOL    HW271844  14.062  13.372   3.256
56669SOL     OW71845  10.325  13.111   6.983
56669SOL    HW171846  10.328  13.093   6.889
56669SOL    HW271847  10.233  13.106   7.006
56670SOL     OW71848   3.383   9.665   5.998
56670SOL    HW171849   3.408   9.671   6.090
56670SOL    HW271850   3.452   9.713   5.951
56671SOL     OW71851   5.719   3.226   1.379
56671SOL    HW171852   5.810   3.197   1.387
56671SOL    HW271853   5.681   3.167   1.314
56672SOL     OW71854  14.249   5.427   7.326
56672SOL    HW171855  14.204   5.401   7.245
56672SOL    HW271856  14.245   5.349   7.382
56673SOL     OW71857   9.622   7.601   8.898
56673SOL    HW171858   9.606   7.522   8.950
56673SOL    HW271859   9.568   7.668   8.940
56674SOL     OW71860  13.999   6.268  11.102
56674SOL    HW171861  13.955   6.309  11.176
56674SOL    HW271862  13.932   6.210  11.064
56675SOL     OW71863  10.063   0.676   5.882
56675SOL    HW171864   9.992   0.732   5.914
56675SOL    HW271865  10.137   0.736   5.873
56676SOL     OW71866   8.431   8.407  14.265
56676SOL    HW171867   8.446   8.317  14.294
56676SOL    HW271868   8.487   8.460  14.321
56677SOL     OW71869  13.086   1.608   1.285
56677SOL    HW171870  13.114   1.604   1.376
56677SOL    HW271871  13.044   1.524   1.269
56678SOL     OW71872  12.647   5.529  12.643
56678SOL    HW171873  12.635   5.577  12.725
56678SOL    HW271874  12.742   5.521  12.634
56679SOL     OW71875   6.766   1.914  12.341
56679SOL    HW171876   6.786   2.003  12.371
56679SOL    HW271877   6.810   1.907  12.256
56680SOL     OW71878  12.701   7.955   6.978
56680SOL    HW171879  12.628   7.912   7.022
56680SOL    HW271880  12.661   8.031   6.934
56681SOL     OW71881  10.117   0.550   4.486
56681SOL    HW171882  10.185   0.591   4.539
56681SOL    HW271883  10.130   0.585   4.398
56682SOL     OW71884  10.165   2.690   7.995
56682SOL    HW171885  10.105   2.755   8.033
56682SOL    HW271886  10.113   2.646   7.928
56683SOL     OW71887   6.504  12.026  12.486
56683SOL    HW171888   6.521  12.074  12.404
56683SOL    HW271889   6.449  11.952  12.459
56684SOL     OW71890   7.954   2.009   3.991
56684SOL    HW171891   7.889   2.069   4.028
56684SOL    HW271892   7.954   1.934   4.051
56685SOL     OW71893   6.724   5.902   1.545
56685SOL    HW171894   6.665   5.962   1.590
56685SOL    HW271895   6.804   5.901   1.598
56686SOL     OW71896   9.981  11.919   0.261
56686SOL    HW171897   9.923  11.987   0.295
56686SOL    HW271898   9.951  11.905   0.171
56687SOL     OW71899  13.217  13.695  11.483
56687SOL    HW171900  13.145  13.707  11.421
56687SOL    HW271901  13.261  13.780  11.484
56688SOL     OW71902  12.737   3.572   1.278
56688SOL    HW171903  12.758   3.605   1.366
56688SOL    HW271904  12.745   3.649   1.222
56689SOL     OW71905   4.229  10.649   7.318
56689SOL    HW171906   4.163  10.596   7.275
56689SOL    HW271907   4.189  10.673   7.402
56690SOL     OW71908   4.378   4.449   4.941
56690SOL    HW171909   4.425   4.480   4.863
56690SOL    HW271910   4.435   4.380   4.977
56691SOL     OW71911   4.532   1.461  14.041
56691SOL    HW171912   4.589   1.466  14.117
56691SOL    HW271913   4.587   1.421  13.973
56692SOL     OW71914  11.273  10.256  11.620
56692SOL    HW171915  11.187  10.248  11.578
56692SOL    HW271916  11.273  10.188  11.688
56693SOL     OW71917  10.026   6.526   1.692
56693SOL    HW171918   9.975   6.597   1.731
56693SOL    HW271919  10.105   6.521   1.745
56694SOL     OW71920   6.840   4.440  11.078
56694SOL    HW171921   6.875   4.529  11.080
56694SOL    HW271922   6.745   4.451  11.076
56695SOL     OW71923   9.996   3.694   3.413
56695SOL    HW171924   9.972   3.721   3.502
56695SOL    HW271925  10.076   3.643   3.423
56696SOL     OW71926  11.287   0.515   5.483
56696SOL    HW171927  11.329   0.532   5.399
56696SOL    HW271928  11.200   0.483   5.461
56697SOL     OW71929  10.279  11.713  10.173
56697SOL    HW171930  10.239  11.634  10.136
56697SOL    HW271931  10.269  11.702  10.268
56698SOL     OW71932   9.361   3.824   1.132
56698SOL    HW171933   9.431   3.766   1.103
56698SOL    HW271934   9.307   3.771   1.190
56699SOL     OW71935   3.552   4.470  13.798
56699SOL    HW171936   3.566   4.417  13.877
56699SOL    HW271937   3.460   4.494  13.802
56700SOL     OW71938  11.280  11.945   1.156
56700SOL    HW171939  11.236  12.004   1.095
56700SOL    HW271940  11.292  11.864   1.107
56701SOL     OW71941  13.607   8.123  13.697
56701SOL    HW171942  13.568   8.207  13.721
56701SOL    HW271943  13.633   8.133  13.606
56702SOL     OW71944   7.826  12.305   8.389
56702SOL    HW171945   7.892  12.295   8.320
56702SOL    HW271946   7.877  12.327   8.467
56703SOL     OW71947   8.548   5.099  12.400
56703SOL    HW171948   8.577   5.101  12.308
56703SOL    HW271949   8.473   5.040  12.400
56704SOL     OW71950   3.619   4.338   1.646
56704SOL    HW171951   3.665   4.338   1.562
56704SOL    HW271952   3.596   4.430   1.660
56705SOL     OW71953   1.902  11.460  10.148
56705SOL    HW171954   1.924  11.543  10.106
56705SOL    HW271955   1.966  11.397  10.113
56706SOL     OW71956   8.724   2.600  11.977
56706SOL    HW171957   8.816   2.580  11.992
56706SOL    HW271958   8.720   2.695  11.967
56707SOL     OW71959   9.697   6.614   2.740
56707SOL    HW171960   9.757   6.563   2.794
56707SOL    HW271961   9.610   6.591   2.773
56708SOL     OW71962  10.647   4.808  14.473
56708SOL    HW171963  10.652   4.901  14.450
56708SOL    HW271964  10.708   4.798  14.545
56709SOL     OW71965  10.725  11.368   2.103
56709SOL    HW171966  10.754  11.300   2.041
56709SOL    HW271967  10.641  11.336   2.136
56710SOL     OW71968  10.219   6.316  11.478
56710SOL    HW171969  10.280   6.325  11.404
56710SOL    HW271970  10.140   6.363  11.450
56711SOL     OW71971  12.011   9.742   1.930
56711SOL    HW171972  11.947   9.739   2.001
56711SOL    HW271973  12.071   9.669   1.949
56712SOL     OW71974   2.126   4.518   2.437
56712SOL    HW171975   2.142   4.503   2.344
56712SOL    HW271976   2.191   4.584   2.462
56713SOL     OW71977   2.467   3.329  11.913
56713SOL    HW171978   2.381   3.371  11.908
56713SOL    HW271979   2.448   3.235  11.918
56714SOL     OW71980  11.522   4.427   8.787
56714SOL    HW171981  11.482   4.514   8.793
56714SOL    HW271982  11.510   4.402   8.695
56715SOL     OW71983   1.273  12.036   0.887
56715SOL    HW171984   1.267  11.974   0.960
56715SOL    HW271985   1.194  12.019   0.836
56716SOL     OW71986  11.606   8.887   6.280
56716SOL    HW171987  11.579   8.896   6.371
56716SOL    HW271988  11.671   8.817   6.281
56717SOL     OW71989   0.737   5.341   1.696
56717SOL    HW171990   0.787   5.275   1.745
56717SOL    HW271991   0.677   5.290   1.642
56718SOL     OW71992   1.654   2.610   8.906
56718SOL    HW171993   1.603   2.605   8.987
56718SOL    HW271994   1.744   2.594   8.934
56719SOL     OW71995   8.035  13.039   0.155
56719SOL    HW171996   7.971  13.111   0.158
56719SOL    HW271997   8.002  12.973   0.215
56720SOL     OW71998   7.287   6.017   1.871
56720SOL    HW171999   7.220   5.952   1.892
56720SOL    HW272000   7.267   6.092   1.928
56721SOL     OW72001   3.976   6.299   0.737
56721SOL    HW172002   4.066   6.270   0.747
56721SOL    HW272003   3.932   6.268   0.816
56722SOL     OW72004   4.876  11.644   1.772
56722SOL    HW172005   4.840  11.699   1.842
56722SOL    HW272006   4.814  11.654   1.699
56723SOL     OW72007   0.886   3.595  11.419
56723SOL    HW172008   0.795   3.573  11.397
56723SOL    HW272009   0.907   3.540  11.494
56724SOL     OW72010   1.278   1.881   7.329
56724SOL    HW172011   1.366   1.920   7.325
56724SOL    HW272012   1.221   1.954   7.352
56725SOL     OW72013   4.403   7.726   2.574
56725SOL    HW172014   4.448   7.740   2.657
56725SOL    HW272015   4.357   7.643   2.585
56726SOL     OW72016  13.854   1.209   0.044
56726SOL    HW172017  13.919   1.234  14.858
56726SOL    HW272018  13.902   1.208   0.126
56727SOL     OW72019   6.299   0.942  11.604
56727SOL    HW172020   6.394   0.947  11.607
56727SOL    HW272021   6.279   0.898  11.521
56728SOL     OW72022   5.790   0.610   6.291
56728SOL    HW172023   5.791   0.566   6.206
56728SOL    HW272024   5.773   0.702   6.269
56729SOL     OW72025   9.803  12.430   1.235
56729SOL    HW172026   9.815  12.404   1.144
56729SOL    HW272027   9.837  12.519   1.239
56730SOL     OW72028   2.058  13.099   5.671
56730SOL    HW172029   2.047  13.127   5.762
56730SOL    HW272030   2.136  13.146   5.641
56731SOL     OW72031   0.068  11.314   7.069
56731SOL    HW172032   0.059  11.227   7.108
56731SOL    HW272033   0.044  11.303   6.977
56732SOL     OW72034  10.893   3.918  11.645
56732SOL    HW172035  10.836   3.846  11.671
56732SOL    HW272036  10.901   3.910  11.550
56733SOL     OW72037   1.837   3.301   6.334
56733SOL    HW172038   1.932   3.314   6.331
56733SOL    HW272039   1.813   3.324   6.424
56734SOL     OW72040   7.479   2.307  11.827
56734SOL    HW172041   7.532   2.343  11.756
56734SOL    HW272042   7.404   2.366  11.832
56735SOL     OW72043   3.587   2.321   9.133
56735SOL    HW172044   3.492   2.318   9.149
56735SOL    HW272045   3.596   2.319   9.038
56736SOL     OW72046  13.552   5.812   0.916
56736SOL    HW172047  13.521   5.741   0.860
56736SOL    HW272048  13.473   5.861   0.940
56737SOL     OW72049  13.946   4.651   3.186
56737SOL    HW172050  13.910   4.740   3.182
56737SOL    HW272051  13.871   4.596   3.207
56738SOL     OW72052   5.466   0.146  11.141
56738SOL    HW172053   5.384   0.197  11.143
56738SOL    HW272054   5.509   0.174  11.061
56739SOL     OW72055   2.727   2.175   7.942
56739SOL    HW172056   2.814   2.142   7.918
56739SOL    HW272057   2.744   2.238   8.011
56740SOL     OW72058  14.616   5.045   3.774
56740SOL    HW172059  14.597   4.994   3.853
56740SOL    HW272060  14.698   5.090   3.794
56741SOL     OW72061  12.007   0.188   8.093
56741SOL    HW172062  12.006   0.243   8.172
56741SOL    HW272063  11.916   0.188   8.063
56742SOL     OW72064   8.599   0.038   5.198
56742SOL    HW172065   8.592   0.121   5.153
56742SOL    HW272066   8.660   0.055   5.270
56743SOL     OW72067   3.822   1.277   5.951
56743SOL    HW172068   3.886   1.207   5.938
56743SOL    HW272069   3.873   1.348   5.991
56744SOL     OW72070   0.507   7.648   2.977
56744SOL    HW172071   0.524   7.598   2.897
56744SOL    HW272072   0.580   7.625   3.035
56745SOL     OW72073   9.513   4.346  13.602
56745SOL    HW172074   9.573   4.272  13.589
56745SOL    HW272075   9.448   4.336  13.532
56746SOL     OW72076  13.684   3.537   4.793
56746SOL    HW172077  13.766   3.527   4.841
56746SOL    HW272078  13.670   3.452   4.752
56747SOL     OW72079  14.446   8.432   7.707
56747SOL    HW172080  14.444   8.461   7.616
56747SOL    HW272081  14.364   8.465   7.745
56748SOL     OW72082   2.933  12.289   6.947
56748SOL    HW172083   2.860  12.316   7.004
56748SOL    HW272084   2.917  12.196   6.931
56749SOL     OW72085  12.533  14.670   3.295
56749SOL    HW172086  12.587  14.595   3.322
56749SOL    HW272087  12.444  14.647   3.323
56750SOL     OW72088  13.749  13.680  10.760
56750SOL    HW172089  13.735  13.739  10.834
56750SOL    HW272090  13.844  13.665  10.759
56751SOL     OW72091   4.298  13.004   2.917
56751SOL    HW172092   4.212  12.975   2.947
56751SOL    HW272093   4.337  13.046   2.994
56752SOL     OW72094   1.637   9.618  12.204
56752SOL    HW172095   1.656   9.549  12.268
56752SOL    HW272096   1.603   9.572  12.128
56753SOL     OW72097   7.242   9.023   9.039
56753SOL    HW172098   7.165   9.029   8.982
56753SOL    HW272099   7.277   9.113   9.041
56754SOL     OW72100   9.306   3.247  12.230
56754SOL    HW172101   9.387   3.232  12.279
56754SOL    HW272102   9.278   3.334  12.255
56755SOL     OW72103  14.434   0.611  10.427
56755SOL    HW172104  14.392   0.647  10.348
56755SOL    HW272105  14.522   0.648  10.426
56756SOL     OW72106   8.034   3.427   6.352
56756SOL    HW172107   7.956   3.439   6.298
56756SOL    HW272108   8.014   3.351   6.407
56757SOL     OW72109  10.823   7.641   4.172
56757SOL    HW172110  10.764   7.664   4.100
56757SOL    HW272111  10.787   7.688   4.248
56758SOL     OW72112  12.862   1.873  14.570
56758SOL    HW172113  12.777   1.911  14.547
56758SOL    HW272114  12.846   1.825  14.651
56759SOL     OW72115   1.407   8.547   7.377
56759SOL    HW172116   1.368   8.534   7.463
56759SOL    HW272117   1.370   8.630   7.346
56760SOL     OW72118   9.008   6.386   2.753
56760SOL    HW172119   9.090   6.435   2.761
56760SOL    HW272120   8.996   6.374   2.659
56761SOL     OW72121   1.899  11.045   9.091
56761SOL    HW172122   1.903  10.954   9.122
56761SOL    HW272123   1.881  11.038   8.998
56762SOL     OW72124   8.486  12.627   1.295
56762SOL    HW172125   8.404  12.620   1.246
56762SOL    HW272126   8.517  12.537   1.304
56763SOL     OW72127   9.822   9.248   5.662
56763SOL    HW172128   9.766   9.316   5.698
56763SOL    HW272129   9.891   9.236   5.727
56764SOL     OW72130   2.058   0.696   0.864
56764SOL    HW172131   2.064   0.779   0.910
56764SOL    HW272132   2.132   0.696   0.804
56765SOL     OW72133   7.863  12.716  12.260
56765SOL    HW172134   7.798  12.659  12.301
56765SOL    HW272135   7.815  12.761  12.190
56766SOL     OW72136  13.398   5.013  10.186
56766SOL    HW172137  13.371   4.984  10.273
56766SOL    HW272138  13.353   5.097  10.174
56767SOL     OW72139   3.420  13.314   4.219
56767SOL    HW172140   3.419  13.368   4.298
56767SOL    HW272141   3.424  13.376   4.147
56768SOL     OW72142  13.217   4.625   1.743
56768SOL    HW172143  13.203   4.672   1.825
56768SOL    HW272144  13.222   4.694   1.677
56769SOL     OW72145  10.494   3.404   3.404
56769SOL    HW172146  10.454   3.374   3.486
56769SOL    HW272147  10.435   3.371   3.335
56770SOL     OW72148   6.102  10.106  10.045
56770SOL    HW172149   6.160  10.129  10.118
56770SOL    HW272150   6.060  10.024  10.073
56771SOL     OW72151   3.880   0.063   7.368
56771SOL    HW172152   3.877   0.148   7.412
56771SOL    HW272153   3.812   0.011   7.411
56772SOL     OW72154  12.140  12.632   6.705
56772SOL    HW172155  12.047  12.612   6.717
56772SOL    HW272156  12.141  12.713   6.653
56773SOL     OW72157  12.240   3.109  12.456
56773SOL    HW172158  12.151   3.076  12.444
56773SOL    HW272159  12.253   3.109  12.551
56774SOL     OW72160  13.105   6.203   7.864
56774SOL    HW172161  13.116   6.179   7.772
56774SOL    HW272162  13.032   6.265   7.864
56775SOL     OW72163  10.995  10.500   2.118
56775SOL    HW172164  11.072  10.491   2.174
56775SOL    HW272165  10.993  10.593   2.096
56776SOL     OW72166   7.651  12.729   3.887
56776SOL    HW172167   7.643  12.824   3.884
56776SOL    HW272168   7.745  12.713   3.883
56777SOL     OW72169  14.850   8.034   9.556
56777SOL    HW172170  14.856   7.993   9.642
56777SOL    HW272171   0.051   8.086   9.549
56778SOL     OW72172   6.751  11.081  13.881
56778SOL    HW172173   6.664  11.085  13.920
56778SOL    HW272174   6.787  11.169  13.894
56779SOL     OW72175   3.604   5.860   3.814
56779SOL    HW172176   3.578   5.807   3.890
56779SOL    HW272177   3.696   5.840   3.801
56780SOL     OW72178   4.855  12.236  14.829
56780SOL    HW172179   4.899  12.156  14.856
56780SOL    HW272180   4.918  12.280  14.772
56781SOL     OW72181  13.629  12.432   1.105
56781SOL    HW172182  13.724  12.420   1.092
56781SOL    HW272183  13.603  12.490   1.034
56782SOL     OW72184   5.263   9.699   5.643
56782SOL    HW172185   5.303   9.674   5.726
56782SOL    HW272186   5.313   9.776   5.614
56783SOL     OW72187  12.600   5.515   6.051
56783SOL    HW172188  12.572   5.580   5.987
56783SOL    HW272189  12.656   5.455   6.002
56784SOL     OW72190   0.336  11.378   0.087
56784SOL    HW172191   0.374  11.360   0.174
56784SOL    HW272192   0.285  11.299   0.068
56785SOL     OW72193  13.642  12.050   3.589
56785SOL    HW172194  13.645  11.955   3.578
56785SOL    HW272195  13.696  12.068   3.666
56786SOL     OW72196   0.443   4.143  13.200
56786SOL    HW172197   0.381   4.209  13.231
56786SOL    HW272198   0.518   4.152  13.259
56787SOL     OW72199  12.362  14.720   5.692
56787SOL    HW172200  12.361  14.753   5.782
56787SOL    HW272201  12.421  14.645   5.696
56788SOL     OW72202   2.520   6.031  11.439
56788SOL    HW172203   2.485   6.120  11.433
56788SOL    HW272204   2.443   5.975  11.442
56789SOL     OW72205   3.300  11.089   3.584
56789SOL    HW172206   3.376  11.057   3.534
56789SOL    HW272207   3.301  11.036   3.664
56790SOL     OW72208   8.407   7.304  10.833
56790SOL    HW172209   8.312   7.311  10.839
56790SOL    HW272210   8.440   7.363  10.901
56791SOL     OW72211  11.224   7.277  11.396
56791SOL    HW172212  11.256   7.334  11.466
56791SOL    HW272213  11.145   7.236  11.431
56792SOL     OW72214   5.265  11.413   9.159
56792SOL    HW172215   5.306  11.328   9.173
56792SOL    HW272216   5.223  11.406   9.073
56793SOL     OW72217   2.741   0.825   8.505
56793SOL    HW172218   2.681   0.764   8.462
56793SOL    HW272219   2.688   0.903   8.522
56794SOL     OW72220  10.392   8.774   3.525
56794SOL    HW172221  10.460   8.724   3.570
56794SOL    HW272222  10.335   8.806   3.595
56795SOL     OW72223   9.900  13.629  13.057
56795SOL    HW172224   9.849  13.695  13.010
56795SOL    HW272225   9.982  13.674  13.079
56796SOL     OW72226   2.497  11.495  13.779
56796SOL    HW172227   2.537  11.484  13.693
56796SOL    HW272228   2.489  11.590  13.790
56797SOL     OW72229   6.396  12.603  12.993
56797SOL    HW172230   6.462  12.535  12.980
56797SOL    HW272231   6.390  12.613  13.088
56798SOL     OW72232   6.538   8.997   9.944
56798SOL    HW172233   6.567   8.916   9.902
56798SOL    HW272234   6.609   9.059   9.926
56799SOL     OW72235  12.533   2.677   3.058
56799SOL    HW172236  12.612   2.732   3.063
56799SOL    HW272237  12.482   2.702   3.135
56800SOL     OW72238   2.490   6.562   0.297
56800SOL    HW172239   2.472   6.471   0.322
56800SOL    HW272240   2.407   6.593   0.261
56801SOL     OW72241  12.888   8.178   3.778
56801SOL    HW172242  12.910   8.194   3.686
56801SOL    HW272243  12.965   8.208   3.826
56802SOL     OW72244   0.865   9.352   5.622
56802SOL    HW172245   0.857   9.387   5.710
56802SOL    HW272246   0.887   9.428   5.568
56803SOL     OW72247   8.718   9.975   1.795
56803SOL    HW172248   8.644   9.916   1.783
56803SOL    HW272249   8.764   9.940   1.871
56804SOL     OW72250  11.028   9.283  12.389
56804SOL    HW172251  10.988   9.214  12.442
56804SOL    HW272252  11.054   9.238  12.308
56805SOL     OW72253   9.039   7.368  14.146
56805SOL    HW172254   9.122   7.412  14.125
56805SOL    HW272255   9.054   7.329  14.232
56806SOL     OW72256  13.642  13.440   9.058
56806SOL    HW172257  13.683  13.498   9.122
56806SOL    HW272258  13.655  13.352   9.094
56807SOL     OW72259   2.156  11.080   6.162
56807SOL    HW172260   2.130  11.017   6.229
56807SOL    HW272261   2.108  11.159   6.184
56808SOL     OW72262  14.171   7.074   7.281
56808SOL    HW172263  14.127   7.022   7.215
56808SOL    HW272264  14.145   7.164   7.262
56809SOL     OW72265   6.917   1.955  11.316
56809SOL    HW172266   7.010   1.975  11.315
56809SOL    HW272267   6.912   1.861  11.334
56810SOL     OW72268   1.446  13.475   2.025
56810SOL    HW172269   1.378  13.458   2.090
56810SOL    HW272270   1.490  13.553   2.056
56811SOL     OW72271   0.228   9.253  14.856
56811SOL    HW172272   0.271   9.168  14.851
56811SOL    HW272273   0.189   9.255   0.064
56812SOL     OW72274   3.410   3.245   0.206
56812SOL    HW172275   3.456   3.311   0.155
56812SOL    HW272276   3.386   3.290   0.287
56813SOL     OW72277   7.637  13.445  10.166
56813SOL    HW172278   7.642  13.370  10.224
56813SOL    HW272279   7.643  13.521  10.224
56814SOL     OW72280   6.930   8.645   7.519
56814SOL    HW172281   6.907   8.705   7.589
56814SOL    HW272282   6.957   8.702   7.447
56815SOL     OW72283   9.846   6.326  12.030
56815SOL    HW172284   9.824   6.364  11.945
56815SOL    HW272285   9.909   6.387  12.068
56816SOL     OW72286   8.858  10.115  13.629
56816SOL    HW172287   8.827  10.075  13.548
56816SOL    HW272288   8.788  10.176  13.654
56817SOL     OW72289  10.633   1.593   2.622
56817SOL    HW172290  10.679   1.511   2.639
56817SOL    HW272291  10.650   1.646   2.700
56818SOL     OW72292   9.332   2.877  11.051
56818SOL    HW172293   9.248   2.891  11.009
56818SOL    HW272294   9.391   2.942  11.011
56819SOL     OW72295  14.135   9.960   3.356
56819SOL    HW172296  14.173   9.873   3.352
56819SOL    HW272297  14.101   9.976   3.268
56820SOL     OW72298   4.094   3.227   6.203
56820SOL    HW172299   4.091   3.136   6.173
56820SOL    HW272300   4.013   3.266   6.171
56821SOL     OW72301  11.260   6.246   1.761
56821SOL    HW172302  11.283   6.268   1.670
56821SOL    HW272303  11.329   6.188   1.790
56822SOL     OW72304   3.310  12.895   5.990
56822SOL    HW172305   3.294  12.985   5.959
56822SOL    HW272306   3.367  12.857   5.924
56823SOL     OW72307  13.860   3.678   8.765
56823SOL    HW172308  13.765   3.674   8.775
56823SOL    HW272309  13.875   3.756   8.712
56824SOL     OW72310   5.658   4.061  13.180
56824SOL    HW172311   5.666   3.968  13.201
56824SOL    HW272312   5.598   4.065  13.106
56825SOL     OW72313   9.396   9.754  13.667
56825SOL    HW172314   9.305   9.736  13.643
56825SOL    HW272315   9.389   9.803  13.750
56826SOL     OW72316   5.280  13.572  12.463
56826SOL    HW172317   5.302  13.657  12.425
56826SOL    HW272318   5.364  13.528  12.474
56827SOL     OW72319   5.016   2.005  11.526
56827SOL    HW172320   5.023   1.928  11.582
56827SOL    HW272321   4.969   2.070  11.579
56828SOL     OW72322   1.405  14.498   5.669
56828SOL    HW172323   1.352  14.446   5.729
56828SOL    HW272324   1.356  14.496   5.587
56829SOL     OW72325   4.875  11.675  11.857
56829SOL    HW172326   4.952  11.729  11.842
56829SOL    HW272327   4.808  11.711  11.799
56830SOL     OW72328   4.186   1.931  11.674
56830SOL    HW172329   4.228   2.014  11.651
56830SOL    HW272330   4.257   1.867  11.676
56831SOL     OW72331   3.174   3.779   0.750
56831SOL    HW172332   3.152   3.869   0.776
56831SOL    HW272333   3.211   3.788   0.662
56832SOL     OW72334  13.220   5.237   1.667
56832SOL    HW172335  13.239   5.330   1.677
56832SOL    HW272336  13.127   5.229   1.691
56833SOL     OW72337   9.607  10.175  11.468
56833SOL    HW172338   9.617  10.237  11.395
56833SOL    HW272339   9.512  10.163  11.476
56834SOL     OW72340   3.070   5.476  11.611
56834SOL    HW172341   3.049   5.569  11.612
56834SOL    HW272342   3.128   5.464  11.687
56835SOL     OW72343  11.575  14.504   3.110
56835SOL    HW172344  11.481  14.501   3.126
56835SOL    HW272345  11.615  14.471   3.190
56836SOL     OW72346   1.279   3.357   4.486
56836SOL    HW172347   1.325   3.415   4.426
56836SOL    HW272348   1.208   3.410   4.522
56837SOL     OW72349   9.549   4.303   8.419
56837SOL    HW172350   9.618   4.237   8.427
56837SOL    HW272351   9.580   4.363   8.350
56838SOL     OW72352   0.699   3.579   3.045
56838SOL    HW172353   0.744   3.513   2.991
56838SOL    HW272354   0.763   3.601   3.113
56839SOL     OW72355  13.052  10.570   8.635
56839SOL    HW172356  12.976  10.582   8.578
56839SOL    HW272357  13.102  10.500   8.593
56840SOL     OW72358  13.351   5.704  14.701
56840SOL    HW172359  13.438   5.691  14.665
56840SOL    HW272360  13.304   5.753  14.633
56841SOL     OW72361   4.511   4.553  13.655
56841SOL    HW172362   4.437   4.493  13.645
56841SOL    HW272363   4.512   4.573  13.749
56842SOL     OW72364   3.058  12.689   8.900
56842SOL    HW172365   3.055  12.687   8.996
56842SOL    HW272366   2.974  12.724   8.873
56843SOL     OW72367  13.642   9.751   1.838
56843SOL    HW172368  13.720   9.743   1.893
56843SOL    HW272369  13.574   9.781   1.898
56844SOL     OW72370   2.827   9.750   1.499
56844SOL    HW172371   2.877   9.824   1.465
56844SOL    HW272372   2.776   9.786   1.571
56845SOL     OW72373  12.301  13.636   9.170
56845SOL    HW172374  12.384  13.677   9.194
56845SOL    HW272375  12.254  13.628   9.253
56846SOL     OW72376   4.648  13.849   9.803
56846SOL    HW172377   4.682  13.798   9.877
56846SOL    HW272378   4.583  13.791   9.763
56847SOL     OW72379   6.217   1.952   2.292
56847SOL    HW172380   6.123   1.967   2.304
56847SOL    HW272381   6.223   1.884   2.225
56848SOL     OW72382   9.359   7.644   3.810
56848SOL    HW172383   9.300   7.570   3.821
56848SOL    HW272384   9.304   7.713   3.772
56849SOL     OW72385   0.223   6.361   2.330
56849SOL    HW172386   0.194   6.334   2.243
56849SOL    HW272387   0.308   6.318   2.341
56850SOL     OW72388  12.669  14.445   6.309
56850SOL    HW172389  12.729  14.389   6.358
56850SOL    HW272390  12.682  14.532   6.346
56851SOL     OW72391   6.994   5.360   2.717
56851SOL    HW172392   7.076   5.407   2.701
56851SOL    HW272393   6.976   5.315   2.634
56852SOL     OW72394  14.342   4.623  13.346
56852SOL    HW172395  14.290   4.701  13.330
56852SOL    HW272396  14.414   4.652  13.401
56853SOL     OW72397   4.159  13.048  12.849
56853SOL    HW172398   4.148  12.979  12.914
56853SOL    HW272399   4.244  13.087  12.868
56854SOL     OW72400   5.177   8.271  13.002
56854SOL    HW172401   5.168   8.311  12.916
56854SOL    HW272402   5.089   8.271  13.039
56855SOL     OW72403   7.061  10.202  13.728
56855SOL    HW172404   7.124  10.231  13.793
56855SOL    HW272405   7.101  10.125  13.688
56856SOL     OW72406   1.757   7.622   0.756
56856SOL    HW172407   1.765   7.555   0.688
56856SOL    HW272408   1.663   7.626   0.775
56857SOL     OW72409  13.106  12.554   8.031
56857SOL    HW172410  13.060  12.471   8.047
56857SOL    HW272411  13.129  12.551   7.939
56858SOL     OW72412   6.099  12.597   8.758
56858SOL    HW172413   6.135  12.545   8.829
56858SOL    HW272414   6.041  12.660   8.800
56859SOL     OW72415   8.284  11.296  12.062
56859SOL    HW172416   8.194  11.311  12.035
56859SOL    HW272417   8.318  11.382  12.087
56860SOL     OW72418   8.442  11.501   6.927
56860SOL    HW172419   8.460  11.408   6.939
56860SOL    HW272420   8.496  11.526   6.852
56861SOL     OW72421   7.451   3.574  13.709
56861SOL    HW172422   7.529   3.614  13.749
56861SOL    HW272423   7.435   3.626  13.630
56862SOL     OW72424   9.284  14.656   9.031
56862SOL    HW172425   9.274  14.746   9.063
56862SOL    HW272426   9.305  14.666   8.938
56863SOL     OW72427   6.330   5.268   7.024
56863SOL    HW172428   6.344   5.231   7.111
56863SOL    HW272429   6.257   5.217   6.988
56864SOL     OW72430  10.128  14.018  11.528
56864SOL    HW172431  10.068  13.945  11.545
56864SOL    HW272432  10.088  14.093  11.572
56865SOL     OW72433   2.762   7.958   1.631
56865SOL    HW172434   2.751   7.865   1.607
56865SOL    HW272435   2.678   7.982   1.670
56866SOL     OW72436   2.928   4.971   5.644
56866SOL    HW172437   2.886   4.888   5.621
56866SOL    HW272438   3.009   4.971   5.593
56867SOL     OW72439   3.521   1.869   7.228
56867SOL    HW172440   3.614   1.890   7.235
56867SOL    HW272441   3.486   1.935   7.168
56868SOL     OW72442   6.274   3.161   0.517
56868SOL    HW172443   6.293   3.077   0.559
56868SOL    HW272444   6.180   3.159   0.498
56869SOL     OW72445   2.364  12.911   1.325
56869SOL    HW172446   2.433  12.973   1.300
56869SOL    HW272447   2.291  12.932   1.267
56870SOL     OW72448   6.191  14.221   3.993
56870SOL    HW172449   6.100  14.208   3.966
56870SOL    HW272450   6.241  14.166   3.933
56871SOL     OW72451   5.432   1.279  11.910
56871SOL    HW172452   5.441   1.335  11.987
56871SOL    HW272453   5.375   1.208  11.939
56872SOL     OW72454   1.665   5.651   3.015
56872SOL    HW172455   1.755   5.682   3.006
56872SOL    HW272456   1.613   5.711   2.962
56873SOL     OW72457   6.264  14.871   2.663
56873SOL    HW172458   6.183   0.020   2.704
56873SOL    HW272459   6.249   0.002   2.569
56874SOL     OW72460   1.370   9.928   5.532
56874SOL    HW172461   1.368  10.009   5.583
56874SOL    HW272462   1.348   9.860   5.595
56875SOL     OW72463   8.278   4.549   7.286
56875SOL    HW172464   8.357   4.602   7.289
56875SOL    HW272465   8.212   4.607   7.249
56876SOL     OW72466  12.806  13.264   9.213
56876SOL    HW172467  12.805  13.269   9.309
56876SOL    HW272468  12.876  13.325   9.187
56877SOL     OW72469  12.485   2.609   5.036
56877SOL    HW172470  12.402   2.658   5.039
56877SOL    HW272471  12.458   2.518   5.031
56878SOL     OW72472  13.760   5.758   3.889
56878SOL    HW172473  13.683   5.702   3.873
56878SOL    HW272474  13.740   5.838   3.841
56879SOL     OW72475   9.470   0.820   6.645
56879SOL    HW172476   9.524   0.891   6.611
56879SOL    HW272477   9.529   0.746   6.652
56880SOL     OW72478   7.321   9.265  10.189
56880SOL    HW172479   7.369   9.192  10.228
56880SOL    HW272480   7.365   9.343  10.222
56881SOL     OW72481  13.586   5.908   7.295
56881SOL    HW172482  13.608   5.897   7.388
56881SOL    HW272483  13.559   6.000   7.288
56882SOL     OW72484  12.329   7.649   3.885
56882SOL    HW172485  12.365   7.577   3.936
56882SOL    HW272486  12.404   7.706   3.867
56883SOL     OW72487  14.072  11.241   9.489
56883SOL    HW172488  14.086  11.315   9.429
56883SOL    HW272489  14.095  11.164   9.437
56884SOL     OW72490   4.119   3.320   6.926
56884SOL    HW172491   4.169   3.264   6.867
56884SOL    HW272492   4.110   3.268   7.006
56885SOL     OW72493  12.455  12.337   3.925
56885SOL    HW172494  12.435  12.245   3.944
56885SOL    HW272495  12.481  12.374   4.009
56886SOL     OW72496   7.932  10.073  14.545
56886SOL    HW172497   8.003  10.049  14.604
56886SOL    HW272498   7.885   9.991  14.528
56887SOL     OW72499   1.780   4.959   0.444
56887SOL    HW172500   1.842   4.892   0.416
56887SOL    HW272501   1.709   4.955   0.380
56888SOL     OW72502   1.364   4.517  12.749
56888SOL    HW172503   1.276   4.547  12.769
56888SOL    HW272504   1.354   4.425  12.726
56889SOL     OW72505   6.519   3.019   8.082
56889SOL    HW172506   6.530   3.103   8.036
56889SOL    HW272507   6.438   3.031   8.133
56890SOL     OW72508  12.888   6.549   3.745
56890SOL    HW172509  12.824   6.581   3.682
56890SOL    HW272510  12.840   6.486   3.798
56891SOL     OW72511  14.357   7.839  13.041
56891SOL    HW172512  14.300   7.886  12.979
56891SOL    HW272513  14.431   7.810  12.988
56892SOL     OW72514   5.983   6.838   6.948
56892SOL    HW172515   5.990   6.851   7.043
56892SOL    HW272516   5.931   6.912   6.918
56893SOL     OW72517   1.479   3.744   4.633
56893SOL    HW172518   1.522   3.659   4.633
56893SOL    HW272519   1.411   3.736   4.701
56894SOL     OW72520   3.627   8.992   3.382
56894SOL    HW172521   3.544   8.949   3.403
56894SOL    HW272522   3.602   9.076   3.342
56895SOL     OW72523  13.031   9.410   7.646
56895SOL    HW172524  13.083   9.429   7.568
56895SOL    HW272525  13.073   9.460   7.716
56896SOL     OW72526   0.163  14.585   9.177
56896SOL    HW172527   0.172  14.600   9.083
56896SOL    HW272528   0.171  14.490   9.187
56897SOL     OW72529   7.867  11.380   7.088
56897SOL    HW172530   7.925  11.305   7.080
56897SOL    HW272531   7.922  11.450   7.123
56898SOL     OW72532   6.331   0.129   6.735
56898SOL    HW172533   6.389   0.054   6.730
56898SOL    HW272534   6.346   0.165   6.822
56899SOL     OW72535  13.029   3.678   5.633
56899SOL    HW172536  13.102   3.740   5.624
56899SOL    HW272537  13.060   3.612   5.694
56900SOL     OW72538  13.445   3.991   8.970
56900SOL    HW172539  13.537   4.019   8.968
56900SOL    HW272540  13.396   4.071   8.987
56901SOL     OW72541   2.049   3.666  12.365
56901SOL    HW172542   2.105   3.674  12.443
56901SOL    HW272543   1.973   3.721  12.385
56902SOL     OW72544  13.891  14.146   5.458
56902SOL    HW172545  13.812  14.199   5.466
56902SOL    HW272546  13.867  14.076   5.397
56903SOL     OW72547  12.286   0.758   2.055
56903SOL    HW172548  12.362   0.715   2.094
56903SOL    HW272549  12.218   0.690   2.056
56904SOL     OW72550   1.653   6.470   6.676
56904SOL    HW172551   1.692   6.537   6.732
56904SOL    HW272552   1.673   6.387   6.719
56905SOL     OW72553   5.783   9.437   4.562
56905SOL    HW172554   5.841   9.391   4.623
56905SOL    HW272555   5.761   9.518   4.607
56906SOL     OW72556   9.322   6.587   8.839
56906SOL    HW172557   9.356   6.641   8.910
56906SOL    HW272558   9.227   6.591   8.849
56907SOL     OW72559   9.959   2.159   8.538
56907SOL    HW172560   9.902   2.168   8.461
56907SOL    HW272561   9.974   2.250   8.566
56908SOL     OW72562   1.294   9.902   3.111
56908SOL    HW172563   1.336   9.854   3.183
56908SOL    HW272564   1.309   9.847   3.034
56909SOL     OW72565   7.259   3.015  14.482
56909SOL    HW172566   7.225   3.100  14.454
56909SOL    HW272567   7.243   2.958  14.407
56910SOL     OW72568  13.001  12.192   9.446
56910SOL    HW172569  13.036  12.104   9.435
56910SOL    HW272570  12.907  12.178   9.457
56911SOL     OW72571   1.591  12.238   1.478
56911SOL    HW172572   1.523  12.198   1.425
56911SOL    HW272573   1.650  12.279   1.416
56912SOL     OW72574   4.073  12.757  12.141
56912SOL    HW172575   4.128  12.785  12.214
56912SOL    HW272576   4.029  12.837  12.113
56913SOL     OW72577   7.054   7.535   6.206
56913SOL    HW172578   7.114   7.505   6.137
56913SOL    HW272579   7.042   7.629   6.188
56914SOL     OW72580   1.788   9.049   5.309
56914SOL    HW172581   1.861   9.025   5.253
56914SOL    HW272582   1.827   9.103   5.378
56915SOL     OW72583   5.585   4.623   9.934
56915SOL    HW172584   5.577   4.694   9.870
56915SOL    HW272585   5.649   4.563   9.895
56916SOL     OW72586   6.403   0.763   4.468
56916SOL    HW172587   6.483   0.763   4.415
56916SOL    HW272588   6.432   0.793   4.554
56917SOL     OW72589   9.529   6.299   6.837
56917SOL    HW172590   9.501   6.324   6.925
56917SOL    HW272591   9.474   6.224   6.815
56918SOL     OW72592   5.859  11.528   8.903
56918SOL    HW172593   5.795  11.530   8.832
56918SOL    HW272594   5.915  11.603   8.886
56919SOL     OW72595   7.251   8.910  10.088
56919SOL    HW172596   7.245   8.949  10.175
56919SOL    HW272597   7.335   8.863  10.088
56920SOL     OW72598  11.057   5.414  11.868
56920SOL    HW172599  11.051   5.417  11.772
56920SOL    HW272600  11.020   5.329  11.892
56921SOL     OW72601  10.865   3.372   9.339
56921SOL    HW172602  10.824   3.406   9.418
56921SOL    HW272603  10.845   3.436   9.271
56922SOL     OW72604   7.339   5.467   3.066
56922SOL    HW172605   7.386   5.407   3.124
56922SOL    HW272606   7.330   5.548   3.117
56923SOL     OW72607   4.802  13.353  14.362
56923SOL    HW172608   4.792  13.388  14.451
56923SOL    HW272609   4.807  13.431  14.306
56924SOL     OW72610   6.608  13.107  12.421
56924SOL    HW172611   6.602  13.076  12.330
56924SOL    HW272612   6.549  13.050  12.470
56925SOL     OW72613   9.420   0.229   0.043
56925SOL    HW172614   9.403   0.148   0.091
56925SOL    HW272615   9.514   0.244   0.054
56926SOL     OW72616   5.241   1.615  12.593
56926SOL    HW172617   5.163   1.577  12.553
56926SOL    HW272618   5.246   1.574  12.679
56927SOL     OW72619   9.186   6.118   1.115
56927SOL    HW172620   9.175   6.033   1.073
56927SOL    HW272621   9.280   6.126   1.130
56928SOL     OW72622  12.205  14.419   8.632
56928SOL    HW172623  12.183  14.495   8.579
56928SOL    HW272624  12.283  14.445   8.681
56929SOL     OW72625   3.763  10.298   7.124
56929SOL    HW172626   3.705  10.278   7.198
56929SOL    HW272627   3.844  10.251   7.143
56930SOL     OW72628   7.961  14.726  13.051
56930SOL    HW172629   8.016  14.703  13.126
56930SOL    HW272630   8.020  14.772  12.991
56931SOL     OW72631   5.965   8.457  13.507
56931SOL    HW172632   5.949   8.364  13.522
56931SOL    HW272633   5.895   8.501  13.555
56932SOL     OW72634  14.824   7.786   2.687
56932SOL    HW172635  14.826   7.878   2.662
56932SOL    HW272636  14.734   7.759   2.671
56933SOL     OW72637   8.412  10.390   8.298
56933SOL    HW172638   8.460  10.417   8.219
56933SOL    HW272639   8.404  10.295   8.291
56934SOL     OW72640   9.715   8.887   6.458
56934SOL    HW172641   9.718   8.880   6.554
56934SOL    HW272642   9.622   8.892   6.437
56935SOL     OW72643   8.530   2.242   3.514
56935SOL    HW172644   8.443   2.279   3.501
56935SOL    HW272645   8.520   2.149   3.495
56936SOL     OW72646   0.695   6.483   0.974
56936SOL    HW172647   0.628   6.427   1.014
56936SOL    HW272648   0.652   6.519   0.896
56937SOL     OW72649  14.755   2.067  14.461
56937SOL    HW172650  14.787   1.980  14.486
56937SOL    HW272651  14.691   2.089  14.528
56938SOL     OW72652   6.147  11.511  12.132
56938SOL    HW172653   6.231  11.475  12.158
56938SOL    HW272654   6.166  11.602  12.106
56939SOL     OW72655   7.850   9.119   3.211
56939SOL    HW172656   7.837   9.033   3.251
56939SOL    HW272657   7.897   9.101   3.129
56940SOL     OW72658   6.874  11.652   3.890
56940SOL    HW172659   6.805  11.586   3.883
56940SOL    HW272660   6.928  11.638   3.813
56941SOL     OW72661   1.957  14.762   7.414
56941SOL    HW172662   1.945  14.802   7.328
56941SOL    HW272663   1.923  14.673   7.403
56942SOL     OW72664  11.105   2.533  14.711
56942SOL    HW172665  11.046   2.530  14.786
56942SOL    HW272666  11.086   2.454  14.661
56943SOL     OW72667  12.856   6.533  14.306
56943SOL    HW172668  12.871   6.603  14.369
56943SOL    HW272669  12.932   6.537  14.248
56944SOL     OW72670   6.558   9.488   6.495
56944SOL    HW172671   6.541   9.399   6.465
56944SOL    HW272672   6.625   9.521   6.435
56945SOL     OW72673   5.739   9.781  13.167
56945SOL    HW172674   5.759   9.797  13.075
56945SOL    HW272675   5.644   9.773  13.169
56946SOL     OW72676  11.778  10.402   4.132
56946SOL    HW172677  11.802  10.491   4.159
56946SOL    HW272678  11.761  10.356   4.214
56947SOL     OW72679   5.882   8.159   7.093
56947SOL    HW172680   5.952   8.204   7.045
56947SOL    HW272681   5.928   8.099   7.152
56948SOL     OW72682   9.006   2.739   4.350
56948SOL    HW172683   8.916   2.770   4.359
56948SOL    HW272684   9.056   2.818   4.328
56949SOL     OW72685   3.638  13.482   8.093
56949SOL    HW172686   3.636  13.571   8.126
56949SOL    HW272687   3.729  13.468   8.065
56950SOL     OW72688   9.172  13.271  12.507
56950SOL    HW172689   9.210  13.184  12.502
56950SOL    HW272690   9.110  13.275  12.434
56951SOL     OW72691   0.033   9.140  12.823
56951SOL    HW172692   0.105   9.078  12.816
56951SOL    HW272693   0.017   9.169  12.733
56952SOL     OW72694   9.134   1.214  12.370
56952SOL    HW172695   9.201   1.148  12.351
56952SOL    HW272696   9.068   1.167  12.421
56953SOL     OW72697   3.803   0.223   2.300
56953SOL    HW172698   3.716   0.223   2.260
56953SOL    HW272699   3.786   0.241   2.393
56954SOL     OW72700   5.674   7.427  13.095
56954SOL    HW172701   5.632   7.410  13.011
56954SOL    HW272702   5.618   7.382  13.159
56955SOL     OW72703   1.589   3.870   3.380
56955SOL    HW172704   1.548   3.865   3.294
56955SOL    HW272705   1.673   3.912   3.364
56956SOL     OW72706   6.842   6.201   0.963
56956SOL    HW172707   6.912   6.262   0.987
56956SOL    HW272708   6.812   6.232   0.877
56957SOL     OW72709   1.375   1.071  14.756
56957SOL    HW172710   1.283   1.089  14.737
56957SOL    HW272711   1.381   0.976  14.758
56958SOL     OW72712  12.893   3.933   4.343
56958SOL    HW172713  12.947   4.009   4.321
56958SOL    HW272714  12.938   3.859   4.303
56959SOL     OW72715  12.056   7.426   0.106
56959SOL    HW172716  12.085   7.378   0.183
56959SOL    HW272717  11.961   7.431   0.116
56960SOL     OW72718  10.972   6.531  13.130
56960SOL    HW172719  10.880   6.529  13.158
56960SOL    HW272720  10.970   6.581  13.048
56961SOL     OW72721   1.501   0.476   4.923
56961SOL    HW172722   1.498   0.479   4.827
56961SOL    HW272723   1.468   0.561   4.951
56962SOL     OW72724   0.970  12.396  10.426
56962SOL    HW172725   0.900  12.366  10.484
56962SOL    HW272726   0.925  12.418  10.344
56963SOL     OW72727   2.364   4.184  12.294
56963SOL    HW172728   2.423   4.259  12.302
56963SOL    HW272729   2.350   4.155  12.384
56964SOL     OW72730   8.293  12.782   3.469
56964SOL    HW172731   8.250  12.811   3.389
56964SOL    HW272732   8.228  12.793   3.537
56965SOL     OW72733  11.541  13.826   9.943
56965SOL    HW172734  11.503  13.738   9.950
56965SOL    HW272735  11.473  13.879   9.903
56966SOL     OW72736   8.300   4.399   0.108
56966SOL    HW172737   8.345   4.317   0.129
56966SOL    HW272738   8.350   4.435   0.035
56967SOL     OW72739   0.653   4.832  11.285
56967SOL    HW172740   0.601   4.768  11.237
56967SOL    HW272741   0.744   4.808  11.267
56968SOL     OW72742  11.731   6.687   1.585
56968SOL    HW172743  11.655   6.631   1.572
56968SOL    HW272744  11.717   6.760   1.524
56969SOL     OW72745   7.560  11.040   4.271
56969SOL    HW172746   7.546  10.947   4.289
56969SOL    HW272747   7.501  11.059   4.199
56970SOL     OW72748   4.755  14.354   4.172
56970SOL    HW172749   4.755  14.333   4.266
56970SOL    HW272750   4.783  14.446   4.169
56971SOL     OW72751   5.940  11.444   6.775
56971SOL    HW172752   5.883  11.469   6.848
56971SOL    HW272753   5.903  11.362   6.743
56972SOL     OW72754   9.555  14.369   9.841
56972SOL    HW172755   9.595  14.450   9.872
56972SOL    HW272756   9.475  14.360   9.892
56973SOL     OW72757   7.573   9.529   2.077
56973SOL    HW172758   7.604   9.555   2.164
56973SOL    HW272759   7.652   9.505   2.029
56974SOL     OW72760   8.501   6.151   3.695
56974SOL    HW172761   8.526   6.090   3.764
56974SOL    HW272762   8.580   6.161   3.642
56975SOL     OW72763   1.126   8.723   1.086
56975SOL    HW172764   1.199   8.698   1.030
56975SOL    HW272765   1.060   8.656   1.071
56976SOL     OW72766   9.665   2.693  11.555
56976SOL    HW172767   9.748   2.741  11.551
56976SOL    HW272768   9.599   2.761  11.569
56977SOL     OW72769  11.230   6.196  11.842
56977SOL    HW172770  11.181   6.182  11.761
56977SOL    HW272771  11.165   6.224  11.906
56978SOL     OW72772   1.128   6.478   6.634
56978SOL    HW172773   1.171   6.415   6.575
56978SOL    HW272774   1.056   6.513   6.583
56979SOL     OW72775   6.576   1.292   1.186
56979SOL    HW172776   6.663   1.274   1.149
56979SOL    HW272777   6.590   1.293   1.280
56980SOL     OW72778   0.233   5.822   8.464
56980SOL    HW172779   0.276   5.798   8.382
56980SOL    HW272780   0.301   5.868   8.514
56981SOL     OW72781   4.698   0.366   0.331
56981SOL    HW172782   4.612   0.353   0.372
56981SOL    HW272783   4.681   0.421   0.255
56982SOL     OW72784   4.865   4.849  13.629
56982SOL    HW172785   4.849   4.942  13.610
56982SOL    HW272786   4.810   4.830  13.705
56983SOL     OW72787   4.110   0.541   3.109
56983SOL    HW172788   4.030   0.553   3.160
56983SOL    HW272789   4.124   0.447   3.108
56984SOL     OW72790  14.176   1.626   0.708
56984SOL    HW172791  14.200   1.539   0.677
56984SOL    HW272792  14.184   1.682   0.630
56985SOL     OW72793  13.016  12.035   3.483
56985SOL    HW172794  13.045  12.064   3.570
56985SOL    HW272795  12.994  11.943   3.494
56986SOL     OW72796   7.237  14.422   3.941
56986SOL    HW172797   7.307  14.485   3.959
56986SOL    HW272798   7.196  14.453   3.860
56987SOL     OW72799   3.554  11.903   6.221
56987SOL    HW172800   3.629  11.936   6.172
56987SOL    HW272801   3.589  11.830   6.272
56988SOL     OW72802  14.449   2.563   9.824
56988SOL    HW172803  14.465   2.536   9.734
56988SOL    HW272804  14.499   2.501   9.877
56989SOL     OW72805   7.105   2.918  12.064
56989SOL    HW172806   7.142   2.958  11.985
56989SOL    HW272807   7.133   2.976  12.135
56990SOL     OW72808   0.744   9.275   7.753
56990SOL    HW172809   0.675   9.323   7.705
56990SOL    HW272810   0.697   9.203   7.796
56991SOL     OW72811   8.483   6.549   4.042
56991SOL    HW172812   8.472   6.482   4.109
56991SOL    HW272813   8.501   6.500   3.962
56992SOL     OW72814  14.635   7.689  14.062
56992SOL    HW172815  14.649   7.655  13.974
56992SOL    HW272816  14.684   7.630  14.119
56993SOL     OW72817   2.427  13.878  12.253
56993SOL    HW172818   2.431  13.864  12.348
56993SOL    HW272819   2.336  13.905  12.236
56994SOL     OW72820   4.628   3.178   8.581
56994SOL    HW172821   4.669   3.098   8.612
56994SOL    HW272822   4.575   3.151   8.506
56995SOL     OW72823   1.435   2.620   5.238
56995SOL    HW172824   1.411   2.703   5.199
56995SOL    HW272825   1.499   2.582   5.177
56996SOL     OW72826  14.462  13.969   0.618
56996SOL    HW172827  14.374  13.940   0.597
56996SOL    HW272828  14.519  13.906   0.574
56997SOL     OW72829   0.364   4.479   5.198
56997SOL    HW172830   0.273   4.502   5.178
56997SOL    HW272831   0.390   4.542   5.265
56998SOL     OW72832   8.723   8.629   4.014
56998SOL    HW172833   8.689   8.716   3.994
56998SOL    HW272834   8.663   8.594   4.079
56999SOL     OW72835   5.679  12.118   5.684
56999SOL    HW172836   5.728  12.078   5.612
56999SOL    HW272837   5.596  12.146   5.644
57000SOL     OW72838  11.318  14.649  12.689
57000SOL    HW172839  11.367  14.724  12.722
57000SOL    HW272840  11.324  14.584  12.758
57001SOL     OW72841   3.235   1.910   2.797
57001SOL    HW172842   3.268   1.942   2.713
57001SOL    HW272843   3.191   1.985   2.836
57002SOL     OW72844  13.717  12.126  12.770
57002SOL    HW172845  13.685  12.137  12.860
57002SOL    HW272846  13.754  12.037  12.768
57003SOL     OW72847   5.749   5.055   9.348
57003SOL    HW172848   5.702   5.138   9.339
57003SOL    HW272849   5.704   5.009   9.418
57004SOL     OW72850  10.875   1.970   5.980
57004SOL    HW172851  10.842   2.051   5.941
57004SOL    HW272852  10.828   1.900   5.934
57005SOL     OW72853  13.034   9.654  12.603
57005SOL    HW172854  12.971   9.583  12.617
57005SOL    HW272855  12.988   9.733  12.630
57006SOL     OW72856   4.727  11.098  12.262
57006SOL    HW172857   4.761  11.008  12.264
57006SOL    HW272858   4.639  11.090  12.299
57007SOL     OW72859   0.307  11.682   3.354
57007SOL    HW172860   0.286  11.764   3.400
57007SOL    HW272861   0.226  11.631   3.358
57008SOL     OW72862  10.875   4.996   0.751
57008SOL    HW172863  10.944   5.062   0.744
57008SOL    HW272864  10.914   4.916   0.715
57009SOL     OW72865   3.414  13.500   1.336
57009SOL    HW172866   3.406  13.456   1.251
57009SOL    HW272867   3.501  13.540   1.334
57010SOL     OW72868  12.371   6.686   9.594
57010SOL    HW172869  12.297   6.652   9.644
57010SOL    HW272870  12.439   6.619   9.604
57011SOL     OW72871  11.984   0.287   0.552
57011SOL    HW172872  11.920   0.290   0.623
57011SOL    HW272873  11.946   0.226   0.488
57012SOL     OW72874   9.349  12.033  11.513
57012SOL    HW172875   9.278  11.980  11.476
57012SOL    HW272876   9.336  12.027  11.607
57013SOL     OW72877   9.280   2.330   2.795
57013SOL    HW172878   9.187   2.319   2.776
57013SOL    HW272879   9.324   2.266   2.738
57014SOL     OW72880  12.736   5.072   6.191
57014SOL    HW172881  12.662   5.078   6.252
57014SOL    HW272882  12.698   5.037   6.111
57015SOL     OW72883   3.792   7.320   7.687
57015SOL    HW172884   3.716   7.341   7.742
57015SOL    HW272885   3.856   7.388   7.708
57016SOL     OW72886   8.395  14.521  10.148
57016SOL    HW172887   8.370  14.610  10.125
57016SOL    HW272888   8.364  14.511  10.238
57017SOL     OW72889   6.233   3.794   4.292
57017SOL    HW172890   6.276   3.797   4.378
57017SOL    HW272891   6.186   3.878   4.286
57018SOL     OW72892   5.431   6.541   3.795
57018SOL    HW172893   5.411   6.486   3.871
57018SOL    HW272894   5.345   6.562   3.757
57019SOL     OW72895   8.427  10.009   2.045
57019SOL    HW172896   8.512  10.035   2.078
57019SOL    HW272897   8.395  10.086   1.996
57020SOL     OW72898   4.358   9.111   3.739
57020SOL    HW172899   4.360   9.077   3.828
57020SOL    HW272900   4.276   9.077   3.702
57021SOL     OW72901   0.961   5.728   1.475
57021SOL    HW172902   0.914   5.721   1.391
57021SOL    HW272903   0.926   5.807   1.515
57022SOL     OW72904  11.915   9.016  11.683
57022SOL    HW172905  11.900   8.948  11.618
57022SOL    HW272906  12.010   9.031  11.680
57023SOL     OW72907  14.509   0.345   2.845
57023SOL    HW172908  14.455   0.390   2.910
57023SOL    HW272909  14.447   0.304   2.785
57024SOL     OW72910  10.553   9.694   3.421
57024SOL    HW172911  10.493   9.658   3.356
57024SOL    HW272912  10.585   9.775   3.382
57025SOL     OW72913   5.263   1.057  14.863
57025SOL    HW172914   5.249   1.127   0.047
57025SOL    HW272915   5.329   1.091  14.803
57026SOL     OW72916   0.074  12.641  11.066
57026SOL    HW172917   0.168  12.632  11.078
57026SOL    HW272918   0.045  12.689  11.144
57027SOL     OW72919   1.494   2.990   2.633
57027SOL    HW172920   1.503   3.085   2.625
57027SOL    HW272921   1.468   2.960   2.546
57028SOL     OW72922   2.509  10.000   2.649
57028SOL    HW172923   2.542   9.928   2.701
57028SOL    HW272924   2.469   9.959   2.573
57029SOL     OW72925   4.973   9.530   9.316
57029SOL    HW172926   5.009   9.443   9.301
57029SOL    HW272927   5.000   9.553   9.404
57030SOL     OW72928   2.348   5.756   3.019
57030SOL    HW172929   2.314   5.798   2.940
57030SOL    HW272930   2.436   5.792   3.029
57031SOL     OW72931   8.255   0.780   7.668
57031SOL    HW172932   8.282   0.829   7.746
57031SOL    HW272933   8.161   0.768   7.679
57032SOL     OW72934   0.433   1.959   2.888
57032SOL    HW172935   0.338   1.962   2.896
57032SOL    HW272936   0.450   1.977   2.796
57033SOL     OW72937   8.144   2.927  10.632
57033SOL    HW172938   8.208   2.903  10.698
57033SOL    HW272939   8.195   2.941  10.552
57034SOL     OW72940   8.304   2.997  10.421
57034SOL    HW172941   8.304   3.091  10.439
57034SOL    HW272942   8.395   2.977  10.398
57035SOL     OW72943   1.119   2.234   5.300
57035SOL    HW172944   1.073   2.157   5.334
57035SOL    HW272945   1.190   2.198   5.248
57036SOL     OW72946   5.930  14.878  11.968
57036SOL    HW172947   5.935   0.037  12.056
57036SOL    HW272948   5.895   0.068  11.913
57037SOL     OW72949  10.542   4.637   7.467
57037SOL    HW172950  10.479   4.647   7.539
57037SOL    HW272951  10.493   4.590   7.399
57038SOL     OW72952   0.018   8.331   9.332
57038SOL    HW172953   0.014   8.341   9.237
57038SOL    HW272954  14.808   8.347   9.361
57039SOL     OW72955   6.654  13.274   6.060
57039SOL    HW172956   6.699  13.222   6.126
57039SOL    HW272957   6.561  13.267   6.083
57040SOL     OW72958   7.999  13.263  12.078
57040SOL    HW172959   7.987  13.232  11.988
57040SOL    HW272960   7.942  13.208  12.131
57041SOL     OW72961   8.509  13.809   5.276
57041SOL    HW172962   8.465  13.788   5.358
57041SOL    HW272963   8.450  13.775   5.208
57042SOL     OW72964  11.640  10.155  12.547
57042SOL    HW172965  11.568  10.213  12.574
57042SOL    HW272966  11.606  10.109  12.470
57043SOL     OW72967  14.369  11.051  14.157
57043SOL    HW172968  14.393  11.112  14.087
57043SOL    HW272969  14.365  11.105  14.236
57044SOL     OW72970   9.496   1.513   4.670
57044SOL    HW172971   9.525   1.522   4.761
57044SOL    HW272972   9.401   1.523   4.675
57045SOL     OW72973  11.120  11.432   7.194
57045SOL    HW172974  11.166  11.400   7.117
57045SOL    HW272975  11.097  11.523   7.172
57046SOL     OW72976   4.741  10.803   6.994
57046SOL    HW172977   4.754  10.875   7.056
57046SOL    HW272978   4.655  10.821   6.955
57047SOL     OW72979  12.206  13.724   2.022
57047SOL    HW172980  12.134  13.667   1.996
57047SOL    HW272981  12.166  13.810   2.035
57048SOL     OW72982   9.219   1.145  13.977
57048SOL    HW172983   9.253   1.175  13.893
57048SOL    HW272984   9.213   1.050  13.968
57049SOL     OW72985   8.873  12.111   5.750
57049SOL    HW172986   8.853  12.203   5.735
57049SOL    HW272987   8.954  12.111   5.801
57050SOL     OW72988   9.376  11.869   9.890
57050SOL    HW172989   9.392  11.963   9.890
57050SOL    HW272990   9.331  11.853   9.973
57051SOL     OW72991   7.975  12.169   4.441
57051SOL    HW172992   7.880  12.164   4.432
57051SOL    HW272993   8.001  12.237   4.378
57052SOL     OW72994   6.253  11.361  14.507
57052SOL    HW172995   6.274  11.406  14.588
57052SOL    HW272996   6.335  11.360  14.458
57053SOL     OW72997  12.137  14.565   8.407
57053SOL    HW172998  12.114  14.626   8.337
57053SOL    HW272999  12.180  14.492   8.363
57054SOL     OW73000  10.635   0.460   8.224
57054SOL    HW173001  10.548   0.420   8.229
57054SOL    HW273002  10.695   0.387   8.239
57055SOL     OW73003   4.944   5.265   5.503
57055SOL    HW173004   4.944   5.277   5.408
57055SOL    HW273005   5.025   5.307   5.533
57056SOL     OW73006   0.776  10.498   6.648
57056SOL    HW173007   0.755  10.410   6.680
57056SOL    HW273008   0.780  10.489   6.553
57057SOL     OW73009  12.707   2.809   8.914
57057SOL    HW173010  12.784   2.826   8.970
57057SOL    HW273011  12.744   2.782   8.830
57058SOL     OW73012   5.023   1.948   7.051
57058SOL    HW173013   4.993   1.892   6.979
57058SOL    HW273014   5.106   1.984   7.019
57059SOL     OW73015  12.314  14.114  11.325
57059SOL    HW173016  12.308  14.115  11.230
57059SOL    HW273017  12.248  14.176  11.355
57060SOL     OW73018   9.137  14.609   8.029
57060SOL    HW173019   9.221  14.573   8.002
57060SOL    HW273020   9.075  14.577   7.963
57061SOL     OW73021  10.887  14.436   0.690
57061SOL    HW173022  10.813  14.496   0.700
57061SOL    HW273023  10.963  14.493   0.688
57062SOL     OW73024   3.109   3.279   0.865
57062SOL    HW173025   3.034   3.263   0.922
57062SOL    HW273026   3.118   3.374   0.862
57063SOL     OW73027   0.927   9.328  10.689
57063SOL    HW173028   0.958   9.314  10.600
57063SOL    HW273029   0.967   9.257  10.740
57064SOL     OW73030   1.119   6.110   1.291
57064SOL    HW173031   1.051   6.062   1.339
57064SOL    HW273032   1.189   6.046   1.278
57065SOL     OW73033   5.113   3.588  13.349
57065SOL    HW173034   5.148   3.621  13.267
57065SOL    HW273035   5.071   3.505  13.327
57066SOL     OW73036  14.397   9.499   9.388
57066SOL    HW173037  14.341   9.428   9.358
57066SOL    HW273038  14.431   9.469   9.472
57067SOL     OW73039   5.006   8.191  10.116
57067SOL    HW173040   4.954   8.272  10.113
57067SOL    HW273041   5.023   8.170  10.025
57068SOL     OW73042  11.759  10.436  10.159
57068SOL    HW173043  11.741  10.360  10.104
57068SOL    HW273044  11.798  10.501  10.100
57069SOL     OW73045   7.335   4.534   9.351
57069SOL    HW173046   7.373   4.602   9.296
57069SOL    HW273047   7.361   4.558   9.440
57070SOL     OW73048  10.232  13.873  13.590
57070SOL    HW173049  10.310  13.928  13.598
57070SOL    HW273050  10.260  13.800  13.535
57071SOL     OW73051  14.795  14.106  14.189
57071SOL    HW173052  14.749  14.176  14.236
57071SOL    HW273053  14.728  14.039  14.175
57072SOL     OW73054   8.631   8.858  11.905
57072SOL    HW173055   8.707   8.801  11.918
57072SOL    HW273056   8.657   8.918  11.835
57073SOL     OW73057  13.516  12.665   6.522
57073SOL    HW173058  13.508  12.694   6.613
57073SOL    HW273059  13.602  12.624   6.518
57074SOL     OW73060   7.835   6.409  13.884
57074SOL    HW173061   7.880   6.324  13.881
57074SOL    HW273062   7.775   6.402  13.959
57075SOL     OW73063   0.557   6.795   4.851
57075SOL    HW173064   0.557   6.891   4.858
57075SOL    HW273065   0.473   6.774   4.811
57076SOL     OW73066   2.522   3.083  12.281
57076SOL    HW173067   2.606   3.040  12.295
57076SOL    HW273068   2.468   3.018  12.236
57077SOL     OW73069  11.198  11.430  13.322
57077SOL    HW173070  11.271  11.406  13.265
57077SOL    HW273071  11.121  11.426  13.265
57078SOL     OW73072   4.055   0.935   8.083
57078SOL    HW173073   4.117   1.001   8.116
57078SOL    HW273074   4.069   0.935   7.988
57079SOL     OW73075   9.165   7.800   3.749
57079SOL    HW173076   9.081   7.835   3.719
57079SOL    HW273077   9.221   7.877   3.758
57080SOL     OW73078   7.967   2.412   0.030
57080SOL    HW173079   7.971   2.324   0.069
57080SOL    HW273080   8.055   2.427  14.874
57081SOL     OW73081   3.070  11.980   9.080
57081SOL    HW173082   3.052  12.068   9.048
57081SOL    HW273083   3.158  11.960   9.049
57082SOL     OW73084  11.496   5.800  10.798
57082SOL    HW173085  11.545   5.723  10.827
57082SOL    HW273086  11.562   5.857  10.760
57083SOL     OW73087   2.544  11.053  11.616
57083SOL    HW173088   2.512  11.100  11.539
57083SOL    HW273089   2.540  11.118  11.687
57084SOL     OW73090  14.672   1.180   0.999
57084SOL    HW173091  14.675   1.148   0.909
57084SOL    HW273092  14.691   1.102   1.052
57085SOL     OW73093   7.509   6.116   7.892
57085SOL    HW173094   7.470   6.064   7.822
57085SOL    HW273095   7.584   6.065   7.922
57086SOL     OW73096   1.110   4.814   0.783
57086SOL    HW173097   1.093   4.906   0.764
57086SOL    HW273098   1.205   4.805   0.777
57087SOL     OW73099  14.005   9.393   5.336
57087SOL    HW173100  13.940   9.435   5.280
57087SOL    HW273101  14.075   9.367   5.276
57088SOL     OW73102   7.472  14.356   7.666
57088SOL    HW173103   7.428  14.286   7.619
57088SOL    HW273104   7.421  14.435   7.644
57089SOL     OW73105   6.219   3.467   9.361
57089SOL    HW173106   6.132   3.499   9.337
57089SOL    HW273107   6.245   3.520   9.436
57090SOL     OW73108  11.160   1.544   4.946
57090SOL    HW173109  11.189   1.526   4.857
57090SOL    HW273110  11.179   1.637   4.959
57091SOL     OW73111  12.367   1.762   3.131
57091SOL    HW173112  12.393   1.806   3.049
57091SOL    HW273113  12.405   1.674   3.123
57092SOL     OW73114   0.463   6.870  11.364
57092SOL    HW173115   0.407   6.850  11.439
57092SOL    HW273116   0.488   6.962  11.377
57093SOL     OW73117  13.878   7.692  14.025
57093SOL    HW173118  13.802   7.742  14.053
57093SOL    HW273119  13.846   7.635  13.956
57094SOL     OW73120   4.207  11.886   1.813
57094SOL    HW173121   4.157  11.805   1.806
57094SOL    HW273122   4.150  11.945   1.861
57095SOL     OW73123   4.140   9.505   3.907
57095SOL    HW173124   4.192   9.434   3.945
57095SOL    HW273125   4.197   9.542   3.840
57096SOL     OW73126   9.168   0.281   4.609
57096SOL    HW173127   9.207   0.195   4.598
57096SOL    HW273128   9.184   0.326   4.527
57097SOL     OW73129  10.366   8.591   6.264
57097SOL    HW173130  10.329   8.649   6.198
57097SOL    HW273131  10.296   8.583   6.330
57098SOL     OW73132  13.629  13.534  13.575
57098SOL    HW173133  13.574  13.571  13.506
57098SOL    HW273134  13.591  13.568  13.657
57099SOL     OW73135   6.193  14.637   7.182
57099SOL    HW173136   6.263  14.690   7.221
57099SOL    HW273137   6.127  14.701   7.154
57100SOL     OW73138  13.186  12.486   4.505
57100SOL    HW173139  13.123  12.557   4.489
57100SOL    HW273140  13.132  12.414   4.539
57101SOL     OW73141   0.670   2.201   1.532
57101SOL    HW173142   0.741   2.226   1.591
57101SOL    HW273143   0.591   2.206   1.586
57102SOL     OW73144   3.129   0.562   0.380
57102SOL    HW173145   3.136   0.498   0.309
57102SOL    HW273146   3.144   0.511   0.459
57103SOL     OW73147  13.031  10.185   6.952
57103SOL    HW173148  13.044  10.141   6.869
57103SOL    HW273149  12.963  10.135   6.996
57104SOL     OW73150   1.334   8.936   2.368
57104SOL    HW173151   1.358   8.866   2.428
57104SOL    HW273152   1.388   8.920   2.290
57105SOL     OW73153   3.696   2.047   3.212
57105SOL    HW173154   3.617   1.996   3.229
57105SOL    HW273155   3.706   2.102   3.290
57106SOL     OW73156   1.259   6.223   8.261
57106SOL    HW173157   1.234   6.164   8.190
57106SOL    HW273158   1.238   6.175   8.341
57107SOL     OW73159   0.361   6.095   5.807
57107SOL    HW173160   0.428   6.102   5.738
57107SOL    HW273161   0.278   6.101   5.760
57108SOL     OW73162   0.672  13.268   0.918
57108SOL    HW173163   0.611  13.194   0.927
57108SOL    HW273164   0.757  13.227   0.904
57109SOL     OW73165   6.942   8.365  13.797
57109SOL    HW173166   6.975   8.308  13.866
57109SOL    HW273167   6.850   8.381  13.822
57110SOL     OW73168   2.267  13.541   6.509
57110SOL    HW173169   2.306  13.457   6.535
57110SOL    HW273170   2.185  13.517   6.467
57111SOL     OW73171   2.461   6.069  12.451
57111SOL    HW173172   2.449   6.043  12.360
57111SOL    HW273173   2.538   6.126  12.450
57112SOL     OW73174  11.179   4.783  14.352
57112SOL    HW173175  11.216   4.856  14.404
57112SOL    HW273176  11.095   4.816  14.321
57113SOL     OW73177  10.376  12.474  10.056
57113SOL    HW173178  10.316  12.472  10.131
57113SOL    HW273179  10.462  12.458  10.095
57114SOL     OW73180   1.387   1.024   6.927
57114SOL    HW173181   1.398   0.972   6.847
57114SOL    HW273182   1.295   1.049   6.926
57115SOL     OW73183   9.200   0.329  14.341
57115SOL    HW173184   9.130   0.264  14.351
57115SOL    HW273185   9.264   0.287  14.284
57116SOL     OW73186   4.248  12.426   8.382
57116SOL    HW173187   4.172  12.484   8.386
57116SOL    HW273188   4.310  12.463   8.445
57117SOL     OW73189  12.500   0.213  11.389
57117SOL    HW173190  12.568   0.201  11.323
57117SOL    HW273191  12.506   0.134  11.443
57118SOL     OW73192  12.240   5.270  10.354
57118SOL    HW173193  12.329   5.266  10.389
57118SOL    HW273194  12.186   5.300  10.428
57119SOL     OW73195   5.002   2.791   6.251
57119SOL    HW173196   4.970   2.860   6.308
57119SOL    HW273197   4.932   2.778   6.187
57120SOL     OW73198   9.438   2.562   9.739
57120SOL    HW173199   9.385   2.562   9.659
57120SOL    HW273200   9.515   2.510   9.715
57121SOL     OW73201   9.306  11.699  14.778
57121SOL    HW173202   9.301  11.756  14.854
57121SOL    HW273203   9.388  11.724  14.735
57122SOL     OW73204   2.693  10.919   8.933
57122SOL    HW173205   2.722  11.010   8.937
57122SOL    HW273206   2.699  10.888   9.023
57123SOL     OW73207   0.925   3.258  12.260
57123SOL    HW173208   0.844   3.285  12.304
57123SOL    HW273209   0.900   3.182  12.207
57124SOL     OW73210  14.421   3.111   9.984
57124SOL    HW173211  14.484   3.039   9.988
57124SOL    HW273212  14.445   3.168  10.058
57125SOL     OW73213   8.074  13.496   3.195
57125SOL    HW173214   8.073  13.409   3.234
57125SOL    HW273215   8.161  13.530   3.214
57126SOL     OW73216  10.822  14.838   8.118
57126SOL    HW173217  10.863  14.874   8.197
57126SOL    HW273218  10.887  14.853   8.049
57127SOL     OW73219   1.372  13.345   7.829
57127SOL    HW173220   1.458  13.317   7.862
57127SOL    HW273221   1.376  13.440   7.829
57128SOL     OW73222   6.349  13.952   4.422
57128SOL    HW173223   6.344  13.982   4.331
57128SOL    HW273224   6.310  14.022   4.473
57129SOL     OW73225  12.967   9.872   2.365
57129SOL    HW173226  13.016   9.850   2.444
57129SOL    HW273227  12.991   9.962   2.346
57130SOL     OW73228  12.695   1.966   1.273
57130SOL    HW173229  12.705   2.061   1.285
57130SOL    HW273230  12.606   1.948   1.305
57131SOL     OW73231  14.265  12.611  12.825
57131SOL    HW173232  14.315  12.693  12.822
57131SOL    HW273233  14.198  12.622  12.757
57132SOL     OW73234   5.107   2.269  10.051
57132SOL    HW173235   5.112   2.195  10.111
57132SOL    HW273236   5.189   2.264  10.000
57133SOL     OW73237  10.402   8.705   1.040
57133SOL    HW173238  10.494   8.680   1.050
57133SOL    HW273239  10.354   8.622   1.036
57134SOL     OW73240   6.136   7.594  10.004
57134SOL    HW173241   6.106   7.575   9.915
57134SOL    HW273242   6.122   7.688  10.014
57135SOL     OW73243  14.778   6.407  13.721
57135SOL    HW173244  14.684   6.391  13.722
57135SOL    HW273245  14.805   6.382  13.632
57136SOL     OW73246  13.653   3.387   7.433
57136SOL    HW173247  13.597   3.414   7.506
57136SOL    HW273248  13.600   3.402   7.355
57137SOL     OW73249   4.268   7.474   2.576
57137SOL    HW173250   4.323   7.415   2.627
57137SOL    HW273251   4.212   7.416   2.524
57138SOL     OW73252   5.895   1.837   6.988
57138SOL    HW173253   5.916   1.916   7.038
57138SOL    HW273254   5.956   1.771   7.020
57139SOL     OW73255   3.586  12.944   9.970
57139SOL    HW173256   3.585  12.866   9.914
57139SOL    HW273257   3.494  12.971   9.974
57140SOL     OW73258   2.614   8.024  13.695
57140SOL    HW173259   2.588   8.057  13.609
57140SOL    HW273260   2.539   7.971  13.723
57141SOL     OW73261   2.410   5.025   5.054
57141SOL    HW173262   2.405   4.946   5.002
57141SOL    HW273263   2.319   5.052   5.066
57142SOL     OW73264  10.242   3.700   0.013
57142SOL    HW173265  10.150   3.723   0.010
57142SOL    HW273266  10.279   3.755   0.081
57143SOL     OW73267   7.763   5.193   5.824
57143SOL    HW173268   7.783   5.113   5.776
57143SOL    HW273269   7.817   5.188   5.903
57144SOL     OW73270   4.076   9.489   7.877
57144SOL    HW173271   4.009   9.435   7.918
57144SOL    HW273272   4.028   9.554   7.827
57145SOL     OW73273   5.190  11.405   6.320
57145SOL    HW173274   5.171  11.472   6.386
57145SOL    HW273275   5.246  11.342   6.366
57146SOL     OW73276  13.831   7.601   7.715
57146SOL    HW173277  13.889   7.607   7.639
57146SOL    HW273278  13.745   7.581   7.679
57147SOL     OW73279   8.715  10.760   8.234
57147SOL    HW173280   8.729  10.701   8.160
57147SOL    HW273281   8.743  10.710   8.311
57148SOL     OW73282   2.583  13.927   7.749
57148SOL    HW173283   2.526  13.872   7.803
57148SOL    HW273284   2.531  13.945   7.670
57149SOL     OW73285   7.373  11.368   6.503
57149SOL    HW173286   7.326  11.304   6.556
57149SOL    HW273287   7.457  11.326   6.482
57150SOL     OW73288   0.203   5.885   5.965
57150SOL    HW173289   0.226   5.937   5.887
57150SOL    HW273290   0.173   5.801   5.930
57151SOL     OW73291  13.656   7.051   3.189
57151SOL    HW173292  13.734   7.092   3.152
57151SOL    HW273293  13.625   7.113   3.255
57152SOL     OW73294   0.694   9.015   6.118
57152SOL    HW173295   0.637   9.082   6.080
57152SOL    HW273296   0.731   8.971   6.042
57153SOL     OW73297  12.900   4.283  11.411
57153SOL    HW173298  12.941   4.370  11.414
57153SOL    HW273299  12.816   4.298  11.368
57154SOL     OW73300   2.016   4.194   6.910
57154SOL    HW173301   1.939   4.242   6.881
57154SOL    HW273302   2.090   4.242   6.874
57155SOL     OW73303  12.261   2.356   4.644
57155SOL    HW173304  12.256   2.437   4.694
57155SOL    HW273305  12.338   2.366   4.589
57156SOL     OW73306  12.717   1.264   8.779
57156SOL    HW173307  12.780   1.220   8.722
57156SOL    HW273308  12.696   1.345   8.733
57157SOL     OW73309   0.445   4.739   5.772
57157SOL    HW173310   0.458   4.647   5.749
57157SOL    HW273311   0.419   4.737   5.864
57158SOL     OW73312   7.693   8.801   8.668
57158SOL    HW173313   7.718   8.818   8.578
57158SOL    HW273314   7.604   8.834   8.675
57159SOL     OW73315   5.112  10.935   9.271
57159SOL    HW173316   5.094  11.029   9.271
57159SOL    HW273317   5.208  10.930   9.272
57160SOL     OW73318  11.763   2.095   9.616
57160SOL    HW173319  11.805   2.017   9.582
57160SOL    HW273320  11.805   2.110   9.701
57161SOL     OW73321   3.786   3.265   3.677
57161SOL    HW173322   3.824   3.351   3.694
57161SOL    HW273323   3.723   3.251   3.748
57162SOL     OW73324  11.520  12.270   1.644
57162SOL    HW173325  11.436  12.241   1.608
57162SOL    HW273326  11.528  12.223   1.727
57163SOL     OW73327   2.062  13.673   3.464
57163SOL    HW173328   2.120  13.609   3.504
57163SOL    HW273329   2.087  13.675   3.371
57164SOL     OW73330  14.354   5.541   4.092
57164SOL    HW173331  14.335   5.629   4.061
57164SOL    HW273332  14.327   5.484   4.020
57165SOL     OW73333  11.664  11.897   7.127
57165SOL    HW173334  11.611  11.946   7.190
57165SOL    HW273335  11.730  11.960   7.097
57166SOL     OW73336   5.638   2.488  12.725
57166SOL    HW173337   5.696   2.425  12.680
57166SOL    HW273338   5.693   2.524  12.795
57167SOL     OW73339   5.446   8.391   4.899
57167SOL    HW173340   5.364   8.382   4.850
57167SOL    HW273341   5.451   8.484   4.920
57168SOL     OW73342   9.824   9.057   1.837
57168SOL    HW173343   9.758   9.009   1.886
57168SOL    HW273344   9.861   9.120   1.900
57169SOL     OW73345  13.737   8.439   1.983
57169SOL    HW173346  13.720   8.361   1.929
57169SOL    HW273347  13.654   8.455   2.028
57170SOL     OW73348   5.774  13.735  13.594
57170SOL    HW173349   5.757  13.826  13.619
57170SOL    HW273350   5.810  13.742  13.505
57171SOL     OW73351   5.199  12.171   5.740
57171SOL    HW173352   5.205  12.241   5.676
57171SOL    HW273353   5.105  12.159   5.754
57172SOL     OW73354   5.326   1.027  11.786
57172SOL    HW173355   5.392   1.017  11.855
57172SOL    HW273356   5.338   0.950  11.731
57173SOL     OW73357  10.515   3.184   0.212
57173SOL    HW173358  10.567   3.135   0.275
57173SOL    HW273359  10.576   3.246   0.172
57174SOL     OW73360   2.841  10.162   8.742
57174SOL    HW173361   2.852  10.230   8.675
57174SOL    HW273362   2.928  10.150   8.779
57175SOL     OW73363   5.239   3.697  10.047
57175SOL    HW173364   5.228   3.788  10.020
57175SOL    HW273365   5.150   3.662  10.049
57176SOL     OW73366   9.995   8.636   7.362
57176SOL    HW173367  10.022   8.728   7.355
57176SOL    HW273368   9.914   8.639   7.412
57177SOL     OW73369   2.358  14.153   2.311
57177SOL    HW173370   2.331  14.141   2.402
57177SOL    HW273371   2.375  14.065   2.279
57178SOL     OW73372   7.738   7.852   9.103
57178SOL    HW173373   7.679   7.790   9.147
57178SOL    HW273374   7.821   7.804   9.095
57179SOL     OW73375   3.352  11.771   1.554
57179SOL    HW173376   3.264  11.749   1.523
57179SOL    HW273377   3.410  11.733   1.487
57180SOL     OW73378   7.715  13.765   9.273
57180SOL    HW173379   7.679  13.684   9.237
57180SOL    HW273380   7.807  13.744   9.291
57181SOL     OW73381   0.947  10.112  14.606
57181SOL    HW173382   0.997  10.061  14.542
57181SOL    HW273383   0.860  10.074  14.605
57182SOL     OW73384   5.088  10.662  13.553
57182SOL    HW173385   5.110  10.755  13.558
57182SOL    HW273386   4.993  10.659  13.550
57183SOL     OW73387   7.214   2.665   6.684
57183SOL    HW173388   7.205   2.580   6.726
57183SOL    HW273389   7.286   2.655   6.621
57184SOL     OW73390   5.928   3.729   8.656
57184SOL    HW173391   5.842   3.705   8.690
57184SOL    HW273392   5.961   3.649   8.616
57185SOL     OW73393   4.239  10.121   7.410
57185SOL    HW173394   4.153  10.078   7.412
57185SOL    HW273395   4.232  10.184   7.338
57186SOL     OW73396   8.075   1.525   6.406
57186SOL    HW173397   8.153   1.558   6.451
57186SOL    HW273398   8.106   1.450   6.356
57187SOL     OW73399   3.308   1.433  10.484
57187SOL    HW173400   3.289   1.500  10.419
57187SOL    HW273401   3.344   1.360  10.433
57188SOL     OW73402   3.433   6.317  10.847
57188SOL    HW173403   3.419   6.302  10.941
57188SOL    HW273404   3.525   6.296  10.833
57189SOL     OW73405  14.785   0.758   8.465
57189SOL    HW173406  14.730   0.770   8.388
57189SOL    HW273407  14.866   0.805   8.445
57190SOL     OW73408   6.114   1.361  13.189
57190SOL    HW173409   6.074   1.298  13.249
57190SOL    HW273410   6.041   1.416  13.159
57191SOL     OW73411   2.051  13.450   0.371
57191SOL    HW173412   2.078  13.521   0.313
57191SOL    HW273413   1.967  13.420   0.337
57192SOL     OW73414  14.418   0.859   2.843
57192SOL    HW173415  14.471   0.788   2.807
57192SOL    HW273416  14.373   0.896   2.766
57193SOL     OW73417   2.898   7.753  13.033
57193SOL    HW173418   2.927   7.759  13.124
57193SOL    HW273419   2.824   7.693  13.036
57194SOL     OW73420  14.035  12.054   5.586
57194SOL    HW173421  13.966  11.989   5.572
57194SOL    HW273422  14.093  12.014   5.651
57195SOL     OW73423   0.645   8.568   9.637
57195SOL    HW173424   0.663   8.625   9.562
57195SOL    HW273425   0.632   8.481   9.598
57196SOL     OW73426  10.150   7.420   4.371
57196SOL    HW173427  10.126   7.496   4.318
57196SOL    HW273428  10.200   7.364   4.311
57197SOL     OW73429   3.450  13.581   3.354
57197SOL    HW173430   3.459  13.546   3.265
57197SOL    HW273431   3.360  13.559   3.379
57198SOL     OW73432   5.666   9.539   5.400
57198SOL    HW173433   5.736   9.485   5.436
57198SOL    HW273434   5.585   9.495   5.429
57199SOL     OW73435   8.156   0.745   5.910
57199SOL    HW173436   8.079   0.714   5.958
57199SOL    HW273437   8.205   0.797   5.974
57200SOL     OW73438   3.195   3.465   0.516
57200SOL    HW173439   3.102   3.445   0.521
57200SOL    HW273440   3.199   3.560   0.508
57201SOL     OW73441   9.478  11.154  11.192
57201SOL    HW173442   9.406  11.105  11.233
57201SOL    HW273443   9.511  11.096  11.124
57202SOL     OW73444   7.073   0.982   5.529
57202SOL    HW173445   7.063   1.062   5.479
57202SOL    HW273446   7.103   1.011   5.615
57203SOL     OW73447  14.769  14.037  10.909
57203SOL    HW173448  14.773  14.121  10.863
57203SOL    HW273449  14.708  14.052  10.981
57204SOL     OW73450   0.007  10.787   3.700
57204SOL    HW173451   0.014  10.882   3.697
57204SOL    HW273452  14.823  10.765   3.632
57205SOL     OW73453   3.909  11.991   2.550
57205SOL    HW173454   3.958  11.963   2.473
57205SOL    HW273455   3.861  12.069   2.522
57206SOL     OW73456   3.079   0.334   9.480
57206SOL    HW173457   3.014   0.342   9.410
57206SOL    HW273458   3.028   0.311   9.557
57207SOL     OW73459  12.224   2.426  14.248
57207SOL    HW173460  12.246   2.419  14.156
57207SOL    HW273461  12.130   2.440  14.250
57208SOL     OW73462  13.235  12.188   4.217
57208SOL    HW173463  13.228  12.283   4.228
57208SOL    HW273464  13.245  12.154   4.306
57209SOL     OW73465   1.809   5.914   3.283
57209SOL    HW173466   1.813   5.843   3.219
57209SOL    HW273467   1.720   5.908   3.320
57210SOL     OW73468   4.147   1.503   9.532
57210SOL    HW173469   4.190   1.550   9.461
57210SOL    HW273470   4.054   1.507   9.512
57211SOL     OW73471  10.145   8.862  10.854
57211SOL    HW173472  10.111   8.945  10.820
57211SOL    HW273473  10.238   8.864  10.835
57212SOL     OW73474  11.577  10.571   9.437
57212SOL    HW173475  11.510  10.594   9.372
57212SOL    HW273476  11.582  10.476   9.433
57213SOL     OW73477   0.052   6.986   0.308
57213SOL    HW173478  14.840   6.958   0.314
57213SOL    HW273479   0.090   6.961   0.392
57214SOL     OW73480   5.923   8.520   5.709
57214SOL    HW173481   5.884   8.488   5.627
57214SOL    HW273482   6.008   8.476   5.713
57215SOL     OW73483   3.586   9.961  13.939
57215SOL    HW173484   3.501   9.942  13.899
57215SOL    HW273485   3.623  10.031  13.885
57216SOL     OW73486   8.480   0.017  10.684
57216SOL    HW173487   8.495   0.079  10.755
57216SOL    HW273488   8.563  14.848  10.677
57217SOL     OW73489   5.053   7.054   4.721
57217SOL    HW173490   4.969   7.082   4.684
57217SOL    HW273491   5.029   6.986   4.784
57218SOL     OW73492   5.534   7.310  13.340
57218SOL    HW173493   5.439   7.301  13.328
57218SOL    HW273494   5.546   7.313  13.435
57219SOL     OW73495   4.433  12.786   8.732
57219SOL    HW173496   4.503  12.846   8.755
57219SOL    HW273497   4.374  12.788   8.808
57220SOL     OW73498   3.868  10.957   0.283
57220SOL    HW173499   3.838  10.951   0.192
57220SOL    HW273500   3.883  11.050   0.297
57221SOL     OW73501   5.173  14.734   6.487
57221SOL    HW173502   5.078  14.740   6.481
57221SOL    HW273503   5.191  14.640   6.499
57222SOL     OW73504   5.846   0.474  12.763
57222SOL    HW173505   5.909   0.542  12.786
57222SOL    HW273506   5.761   0.511  12.787
57223SOL     OW73507   1.305   5.446  10.677
57223SOL    HW173508   1.253   5.470  10.754
57223SOL    HW273509   1.290   5.518  10.615
57224SOL     OW73510   9.196   5.101   5.315
57224SOL    HW173511   9.192   5.188   5.355
57224SOL    HW273512   9.284   5.095   5.279
57225SOL     OW73513  11.840  13.371   3.858
57225SOL    HW173514  11.793  13.289   3.853
57225SOL    HW273515  11.932  13.347   3.843
57226SOL     OW73516   7.358   8.866   6.371
57226SOL    HW173517   7.375   8.777   6.339
57226SOL    HW273518   7.264   8.867   6.389
57227SOL     OW73519   0.624   5.054   6.986
57227SOL    HW173520   0.685   5.018   7.050
57227SOL    HW273521   0.550   4.993   6.986
57228SOL     OW73522   0.699  13.915   6.677
57228SOL    HW173523   0.612  13.947   6.654
57228SOL    HW273524   0.705  13.925   6.772
57229SOL     OW73525   8.161  14.402  13.820
57229SOL    HW173526   8.079  14.404  13.772
57229SOL    HW273527   8.224  14.447  13.762
57230SOL     OW73528  13.396   7.368   4.708
57230SOL    HW173529  13.401   7.276   4.735
57230SOL    HW273530  13.302   7.384   4.698
57231SOL     OW73531   9.245   2.801  14.223
57231SOL    HW173532   9.168   2.855  14.239
57231SOL    HW273533   9.269   2.768  14.310
57232SOL     OW73534   8.046   6.397   6.170
57232SOL    HW173535   8.112   6.433   6.111
57232SOL    HW273536   7.997   6.334   6.117
57233SOL     OW73537  11.183  10.892  11.054
57233SOL    HW173538  11.185  10.961  11.121
57233SOL    HW273539  11.125  10.927  10.986
57234SOL     OW73540   5.883   6.346  11.182
57234SOL    HW173541   5.915   6.307  11.263
57234SOL    HW273542   5.940   6.421  11.167
57235SOL     OW73543   6.919   5.007   9.253
57235SOL    HW173544   6.970   5.014   9.334
57235SOL    HW273545   6.828   5.018   9.280
57236SOL     OW73546   9.935   2.651   5.156
57236SOL    HW173547   9.892   2.682   5.076
57236SOL    HW273548   9.873   2.671   5.226
57237SOL     OW73549  14.739   5.069   4.665
57237SOL    HW173550  14.675   5.140   4.661
57237SOL    HW273551  14.704   5.010   4.732
57238SOL     OW73552  10.097  14.240   7.575
57238SOL    HW173553  10.004  14.217   7.582
57238SOL    HW273554  10.142  14.170   7.623
57239SOL     OW73555  14.532   0.263   1.549
57239SOL    HW173556  14.624   0.284   1.565
57239SOL    HW273557  14.534   0.176   1.508
57240SOL     OW73558  11.977  10.983  14.138
57240SOL    HW173559  11.950  10.895  14.165
57240SOL    HW273560  12.035  10.968  14.063
57241SOL     OW73561   2.669   0.533   9.318
57241SOL    HW173562   2.640   0.529   9.227
57241SOL    HW273563   2.599   0.490   9.367
57242SOL     OW73564   7.825   1.821   6.183
57242SOL    HW173565   7.870   1.824   6.267
57242SOL    HW273566   7.732   1.830   6.205
57243SOL     OW73567   7.846  10.778   8.225
57243SOL    HW173568   7.894  10.734   8.156
57243SOL    HW273569   7.771  10.817   8.181
57244SOL     OW73570   3.745   2.782   5.769
57244SOL    HW173571   3.728   2.690   5.747
57244SOL    HW273572   3.832   2.799   5.734
57245SOL     OW73573   3.335   1.661   5.430
57245SOL    HW173574   3.241   1.648   5.425
57245SOL    HW273575   3.370   1.609   5.358
57246SOL     OW73576  13.254   3.611   8.417
57246SOL    HW173577  13.328   3.596   8.476
57246SOL    HW273578  13.294   3.624   8.331
57247SOL     OW73579   3.850   3.567   4.213
57247SOL    HW173580   3.921   3.572   4.277
57247SOL    HW273581   3.785   3.628   4.245
57248SOL     OW73582  11.067   7.550  10.274
57248SOL    HW173583  11.027   7.474  10.229
57248SOL    HW273584  11.035   7.626  10.224
57249SOL     OW73585   5.384   8.623   7.502
57249SOL    HW173586   5.376   8.683   7.577
57249SOL    HW273587   5.475   8.632   7.474
57250SOL     OW73588   4.447   3.099   8.400
57250SOL    HW173589   4.435   3.006   8.383
57250SOL    HW273590   4.358   3.135   8.399
57251SOL     OW73591   5.362   5.649   8.031
57251SOL    HW173592   5.415   5.569   8.032
57251SOL    HW273593   5.426   5.720   8.031
57252SOL     OW73594   3.858  13.514   3.521
57252SOL    HW173595   3.763  13.503   3.523
57252SOL    HW273596   3.875  13.562   3.439
57253SOL     OW73597   7.935  14.126   5.089
57253SOL    HW173598   7.853  14.159   5.054
57253SOL    HW273599   7.910  14.071   5.162
57254SOL     OW73600  11.813   3.779   7.149
57254SOL    HW173601  11.887   3.735   7.190
57254SOL    HW273602  11.830   3.872   7.163
57255SOL     OW73603   2.354   3.400   4.442
57255SOL    HW173604   2.411   3.323   4.440
57255SOL    HW273605   2.378   3.445   4.523
57256SOL     OW73606  13.206   2.133   4.645
57256SOL    HW173607  13.129   2.170   4.600
57256SOL    HW273608  13.260   2.099   4.574
57257SOL     OW73609   1.745  10.106  14.359
57257SOL    HW173610   1.672  10.080  14.415
57257SOL    HW273611   1.823  10.073  14.404
57258SOL     OW73612  11.430   4.780   7.232
57258SOL    HW173613  11.521   4.760   7.255
57258SOL    HW273614  11.435   4.816   7.144
57259SOL     OW73615   7.527   3.691  11.132
57259SOL    HW173616   7.597   3.713  11.070
57259SOL    HW273617   7.446   3.714  11.086
57260SOL     OW73618  13.928   8.598   4.005
57260SOL    HW173619  13.881   8.549   3.937
57260SOL    HW273620  13.866   8.665   4.033
57261SOL     OW73621   0.587   0.632   3.032
57261SOL    HW173622   0.586   0.578   3.111
57261SOL    HW273623   0.506   0.682   3.036
57262SOL     OW73624   7.553   5.142  13.712
57262SOL    HW173625   7.540   5.209  13.780
57262SOL    HW273626   7.563   5.061  13.762
57263SOL     OW73627   5.434   4.672  13.035
57263SOL    HW173628   5.495   4.676  13.108
57263SOL    HW273629   5.479   4.619  12.969
57264SOL     OW73630  12.114   7.899   4.849
57264SOL    HW173631  12.149   7.814   4.878
57264SOL    HW273632  12.036   7.911   4.902
57265SOL     OW73633  12.342   1.164  13.137
57265SOL    HW173634  12.348   1.226  13.210
57265SOL    HW273635  12.270   1.197  13.084
57266SOL     OW73636  11.252   0.678   7.913
57266SOL    HW173637  11.180   0.656   7.972
57266SOL    HW273638  11.221   0.650   7.827
57267SOL     OW73639   9.183  14.280  12.158
57267SOL    HW173640   9.241  14.310  12.088
57267SOL    HW273641   9.239  14.229  12.215
57268SOL     OW73642   7.974  14.143  12.726
57268SOL    HW173643   7.883  14.168  12.746
57268SOL    HW273644   8.021  14.226  12.722
57269SOL     OW73645  11.436   0.403  14.486
57269SOL    HW173646  11.445   0.387  14.579
57269SOL    HW273647  11.341   0.399  14.469
57270SOL     OW73648   1.648  13.361   7.917
57270SOL    HW173649   1.724  13.304   7.927
57270SOL    HW273650   1.665  13.412   7.838
57271SOL     OW73651  13.339   1.094  10.588
57271SOL    HW173652  13.305   1.147  10.516
57271SOL    HW273653  13.261   1.053  10.626
57272SOL     OW73654  13.040   5.203   4.475
57272SOL    HW173655  13.109   5.232   4.534
57272SOL    HW273656  13.042   5.107   4.480
57273SOL     OW73657   5.498   1.162   0.441
57273SOL    HW173658   5.574   1.118   0.402
57273SOL    HW273659   5.471   1.226   0.375
57274SOL     OW73660   1.011  11.282  10.995
57274SOL    HW173661   0.978  11.262  10.908
57274SOL    HW273662   0.935  11.271  11.053
57275SOL     OW73663  13.012  11.071   6.761
57275SOL    HW173664  13.031  11.135   6.829
57275SOL    HW273665  12.952  11.115   6.702
57276SOL     OW73666   2.198  13.770   2.105
57276SOL    HW173667   2.173  13.712   2.176
57276SOL    HW273668   2.143  13.743   2.031
57277SOL     OW73669   1.697   7.877   6.660
57277SOL    HW173670   1.730   7.826   6.587
57277SOL    HW273671   1.620   7.922   6.625
57278SOL     OW73672  11.829   5.836  13.807
57278SOL    HW173673  11.861   5.916  13.766
57278SOL    HW273674  11.744   5.820  13.766
57279SOL     OW73675   8.936   7.965   8.164
57279SOL    HW173676   8.893   7.880   8.162
57279SOL    HW273677   8.901   8.012   8.088
57280SOL     OW73678  10.482   0.821  13.014
57280SOL    HW173679  10.519   0.891  13.068
57280SOL    HW273680  10.558   0.782  12.970
57281SOL     OW73681  14.262  10.859  11.618
57281SOL    HW173682  14.213  10.937  11.645
57281SOL    HW273683  14.299  10.881  11.533
57282SOL     OW73684   4.749  11.732   0.454
57282SOL    HW173685   4.839  11.701   0.440
57282SOL    HW273686   4.753  11.778   0.539
57283SOL     OW73687   4.159  10.140   9.438
57283SOL    HW173688   4.147  10.191   9.358
57283SOL    HW273689   4.084  10.163   9.493
57284SOL     OW73690   1.268   9.582  13.639
57284SOL    HW173691   1.236   9.625  13.560
57284SOL    HW273692   1.272   9.489  13.617
57285SOL     OW73693   2.142  14.474  14.731
57285SOL    HW173694   2.133  14.521  14.648
57285SOL    HW273695   2.053  14.447  14.753
57286SOL     OW73696   7.685   4.168   1.100
57286SOL    HW173697   7.615   4.228   1.127
57286SOL    HW273698   7.726   4.142   1.183
57287SOL     OW73699   9.743  12.582  12.485
57287SOL    HW173700   9.704  12.517  12.544
57287SOL    HW273701   9.779  12.530  12.413
57288SOL     OW73702   0.982   3.666   3.753
57288SOL    HW173703   1.027   3.611   3.816
57288SOL    HW273704   1.049   3.687   3.687
57289SOL     OW73705  12.408   6.971   1.347
57289SOL    HW173706  12.450   6.976   1.432
57289SOL    HW273707  12.383   7.061   1.327
57290SOL     OW73708   9.595  13.661   8.698
57290SOL    HW173709   9.540  13.609   8.757
57290SOL    HW273710   9.534  13.725   8.660
57291SOL     OW73711   1.068   7.884   0.379
57291SOL    HW173712   0.975   7.890   0.399
57291SOL    HW273713   1.107   7.958   0.427
57292SOL     OW73714   3.553   6.115   3.862
57292SOL    HW173715   3.565   6.024   3.837
57292SOL    HW273716   3.458   6.127   3.864
57293SOL     OW73717   5.530   0.810  13.622
57293SOL    HW173718   5.507   0.899  13.598
57293SOL    HW273719   5.523   0.808  13.717
57294SOL     OW73720   4.773   9.511   2.493
57294SOL    HW173721   4.841   9.575   2.512
57294SOL    HW273722   4.803   9.430   2.533
57295SOL     OW73723   8.571   2.009   9.304
57295SOL    HW173724   8.601   1.920   9.287
57295SOL    HW273725   8.478   1.999   9.327
57296SOL     OW73726   4.400  10.059  10.967
57296SOL    HW173727   4.465  10.007  11.015
57296SOL    HW273728   4.448  10.094  10.892
57297SOL     OW73729  10.249   6.816   1.606
57297SOL    HW173730  10.178   6.785   1.550
57297SOL    HW273731  10.227   6.907   1.624
57298SOL     OW73732  11.945   4.916   0.623
57298SOL    HW173733  12.009   4.987   0.626
57298SOL    HW273734  11.893   4.928   0.703
57299SOL     OW73735   7.513  10.553  12.808
57299SOL    HW173736   7.493  10.615  12.878
57299SOL    HW273737   7.542  10.608  12.735
57300SOL     OW73738   3.291   9.500  11.717
57300SOL    HW173739   3.256   9.507  11.806
57300SOL    HW273740   3.234   9.437  11.674
57301SOL     OW73741  11.669   0.893  13.230
57301SOL    HW173742  11.689   0.812  13.185
57301SOL    HW273743  11.710   0.885  13.316
57302SOL     OW73744  12.136   3.529   3.955
57302SOL    HW173745  12.182   3.446   3.950
57302SOL    HW273746  12.083   3.523   4.034
57303SOL     OW73747   2.633   9.794   2.773
57303SOL    HW173748   2.570   9.761   2.837
57303SOL    HW273749   2.656   9.717   2.721
57304SOL     OW73750   9.867   2.233   8.241
57304SOL    HW173751   9.908   2.154   8.205
57304SOL    HW273752   9.931   2.302   8.225
57305SOL     OW73753   6.151   8.615   0.380
57305SOL    HW173754   6.113   8.528   0.368
57305SOL    HW273755   6.155   8.627   0.475
57306SOL     OW73756   1.034   1.694   1.643
57306SOL    HW173757   1.111   1.714   1.589
57306SOL    HW273758   1.046   1.747   1.722
57307SOL     OW73759   1.959  13.004  12.921
57307SOL    HW173760   1.916  13.076  12.966
57307SOL    HW273761   1.887  12.947  12.892
57308SOL     OW73762  12.513   9.644   3.561
57308SOL    HW173763  12.549   9.711   3.618
57308SOL    HW273764  12.429   9.679   3.532
57309SOL     OW73765   3.990   5.236   8.331
57309SOL    HW173766   4.043   5.300   8.379
57309SOL    HW273767   4.018   5.244   8.240
57310SOL     OW73768   5.652   8.024   8.178
57310SOL    HW173769   5.729   7.967   8.181
57310SOL    HW273770   5.607   7.999   8.098
57311SOL     OW73771   4.469   3.521  13.847
57311SOL    HW173772   4.484   3.470  13.927
57311SOL    HW273773   4.549   3.573  13.837
57312SOL     OW73774   5.906   4.553   9.039
57312SOL    HW173775   5.863   4.607   9.105
57312SOL    HW273776   5.999   4.562   9.058
57313SOL     OW73777   9.059  10.675   8.781
57313SOL    HW173778   8.985  10.654   8.837
57313SOL    HW273779   9.022  10.732   8.713
57314SOL     OW73780   1.636   6.663  12.374
57314SOL    HW173781   1.697   6.718  12.424
57314SOL    HW273782   1.674   6.575  12.378
57315SOL     OW73783   6.699  12.352   1.077
57315SOL    HW173784   6.762  12.422   1.096
57315SOL    HW273785   6.739  12.273   1.116
57316SOL     OW73786  13.144   2.401   6.852
57316SOL    HW173787  13.203   2.382   6.925
57316SOL    HW273788  13.142   2.320   6.801
57317SOL     OW73789   7.624   8.613   6.291
57317SOL    HW173790   7.662   8.701   6.293
57317SOL    HW273791   7.630   8.586   6.199
57318SOL     OW73792   1.054   2.309   3.357
57318SOL    HW173793   1.060   2.403   3.376
57318SOL    HW273794   1.067   2.267   3.441
57319SOL     OW73795   2.602  14.218  12.789
57319SOL    HW173796   2.512  14.220  12.822
57319SOL    HW273797   2.611  14.300  12.740
57320SOL     OW73798   1.727   0.951   9.781
57320SOL    HW173799   1.677   1.019   9.827
57320SOL    HW273800   1.774   0.906   9.851
57321SOL     OW73801  14.080   8.371   8.606
57321SOL    HW173802  14.106   8.463   8.602
57321SOL    HW273803  14.131   8.335   8.679
57322SOL     OW73804   5.902   1.050   4.577
57322SOL    HW173805   5.905   1.100   4.658
57322SOL    HW273806   5.829   1.089   4.528
57323SOL     OW73807   3.391   7.525   4.677
57323SOL    HW173808   3.307   7.482   4.666
57323SOL    HW273809   3.438   7.509   4.595
57324SOL     OW73810   0.142   4.736  12.529
57324SOL    HW173811   0.100   4.652  12.550
57324SOL    HW273812   0.189   4.720  12.448
57325SOL     OW73813  13.466  10.193   2.342
57325SOL    HW173814  13.398  10.126   2.345
57325SOL    HW273815  13.474  10.224   2.432
57326SOL     OW73816   7.834  10.850  12.084
57326SOL    HW173817   7.929  10.855  12.081
57326SOL    HW273818   7.803  10.929  12.040
57327SOL     OW73819   2.335   5.283   1.301
57327SOL    HW173820   2.293   5.258   1.384
57327SOL    HW273821   2.269   5.262   1.235
57328SOL     OW73822  12.651  12.455   9.741
57328SOL    HW173823  12.610  12.382   9.695
57328SOL    HW273824  12.744  12.448   9.717
57329SOL     OW73825   9.879  10.310  12.394
57329SOL    HW173826   9.861  10.234  12.449
57329SOL    HW273827   9.798  10.323  12.344
57330SOL     OW73828   3.284  13.488  12.012
57330SOL    HW173829   3.337  13.467  11.934
57330SOL    HW273830   3.300  13.581  12.027
57331SOL     OW73831   8.658  10.711   7.138
57331SOL    HW173832   8.689  10.768   7.068
57331SOL    HW273833   8.584  10.758   7.177
57332SOL     OW73834   3.306  10.754   3.042
57332SOL    HW173835   3.274  10.769   3.131
57332SOL    HW273836   3.394  10.791   3.042
57333SOL     OW73837  13.448  13.548   6.643
57333SOL    HW173838  13.523  13.523   6.589
57333SOL    HW273839  13.486  13.586   6.722
57334SOL     OW73840  12.856   7.825   6.782
57334SOL    HW173841  12.791   7.876   6.830
57334SOL    HW273842  12.807   7.781   6.713
57335SOL     OW73843   1.189   0.740   3.908
57335SOL    HW173844   1.158   0.718   3.820
57335SOL    HW273845   1.148   0.825   3.927
57336SOL     OW73846   0.248   0.868   4.511
57336SOL    HW173847   0.250   0.836   4.421
57336SOL    HW273848   0.301   0.948   4.510
57337SOL     OW73849  13.326  13.411   0.870
57337SOL    HW173850  13.257  13.441   0.929
57337SOL    HW273851  13.292  13.427   0.783
57338SOL     OW73852  11.028   2.702   1.225
57338SOL    HW173853  11.122   2.699   1.243
57338SOL    HW273854  11.020   2.762   1.151
57339SOL     OW73855   8.090   6.797   1.405
57339SOL    HW173856   8.102   6.890   1.386
57339SOL    HW273857   8.137   6.752   1.335
57340SOL     OW73858   9.772   6.337  14.298
57340SOL    HW173859   9.734   6.421  14.325
57340SOL    HW273860   9.697   6.277  14.294
57341SOL     OW73861   5.683   2.222   9.280
57341SOL    HW173862   5.608   2.233   9.222
57341SOL    HW273863   5.712   2.311   9.299
57342SOL     OW73864   9.464   3.064   2.146
57342SOL    HW173865   9.442   2.989   2.201
57342SOL    HW273866   9.551   3.090   2.175
57343SOL     OW73867  14.521   9.234  11.000
57343SOL    HW173868  14.438   9.243  11.048
57343SOL    HW273869  14.509   9.156  10.947
57344SOL     OW73870   5.249   8.952   4.782
57344SOL    HW173871   5.261   9.023   4.845
57344SOL    HW273872   5.338   8.918   4.769
57345SOL     OW73873  12.580   1.862   2.165
57345SOL    HW173874  12.573   1.766   2.162
57345SOL    HW273875  12.565   1.890   2.075
57346SOL     OW73876   9.557  10.400  14.847
57346SOL    HW173877   9.601  10.475  14.807
57346SOL    HW273878   9.468  10.402  14.811
57347SOL     OW73879   0.341   2.373  13.695
57347SOL    HW173880   0.429   2.411  13.698
57347SOL    HW273881   0.343   2.314  13.619
57348SOL     OW73882  10.939  11.765   0.515
57348SOL    HW173883  10.922  11.686   0.566
57348SOL    HW273884  10.892  11.751   0.432
57349SOL     OW73885   4.173  12.984   1.165
57349SOL    HW173886   4.235  13.006   1.095
57349SOL    HW273887   4.097  13.038   1.147
57350SOL     OW73888   6.567   2.246  13.377
57350SOL    HW173889   6.577   2.162  13.332
57350SOL    HW273890   6.582   2.226  13.470
57351SOL     OW73891   9.984  14.084   1.902
57351SOL    HW173892   9.898  14.126   1.905
57351SOL    HW273893   9.991  14.038   1.985
57352SOL     OW73894  12.508  13.544  12.139
57352SOL    HW173895  12.461  13.543  12.056
57352SOL    HW273896  12.502  13.634  12.170
57353SOL     OW73897  10.845   4.540   3.407
57353SOL    HW173898  10.811   4.540   3.496
57353SOL    HW273899  10.767   4.543   3.351
57354SOL     OW73900   4.124  13.004  13.991
57354SOL    HW173901   4.072  13.042  13.921
57354SOL    HW273902   4.062  12.991  14.063
57355SOL     OW73903   0.724   5.414   6.138
57355SOL    HW173904   0.778   5.358   6.194
57355SOL    HW273905   0.646   5.433   6.190
57356SOL     OW73906   3.065   4.630   5.410
57356SOL    HW173907   3.066   4.697   5.342
57356SOL    HW273908   3.085   4.676   5.491
57357SOL     OW73909   1.991  14.821  12.355
57357SOL    HW173910   2.025  14.807  12.443
57357SOL    HW273911   2.044   0.012  12.320
57358SOL     OW73912   9.968  14.271   7.267
57358SOL    HW173913  10.051  14.224   7.261
57358SOL    HW273914   9.905  14.205   7.295
57359SOL     OW73915  11.242   7.865   2.057
57359SOL    HW173916  11.157   7.836   2.088
57359SOL    HW273917  11.227   7.955   2.027
57360SOL     OW73918   5.147   5.685   9.996
57360SOL    HW173919   5.212   5.626  10.034
57360SOL    HW273920   5.096   5.716  10.070
57361SOL     OW73921   9.798   6.422  10.062
57361SOL    HW173922   9.807   6.358   9.991
57361SOL    HW273923   9.704   6.432  10.074
57362SOL     OW73924  13.237  11.050   0.975
57362SOL    HW173925  13.161  11.054   1.033
57362SOL    HW273926  13.200  11.058   0.887
57363SOL     OW73927   5.133   9.606  11.486
57363SOL    HW173928   5.065   9.612  11.553
57363SOL    HW273929   5.215   9.607  11.534
57364SOL     OW73930   1.144   4.264   9.535
57364SOL    HW173931   1.053   4.250   9.560
57364SOL    HW273932   1.168   4.185   9.487
57365SOL     OW73933   8.434   1.937  11.065
57365SOL    HW173934   8.436   1.844  11.043
57365SOL    HW273935   8.345   1.964  11.044
57366SOL     OW73936   9.658  10.354  12.190
57366SOL    HW173937   9.632  10.262  12.187
57366SOL    HW273938   9.635  10.389  12.105
57367SOL     OW73939   3.688   0.489   2.795
57367SOL    HW173940   3.728   0.562   2.843
57367SOL    HW273941   3.675   0.524   2.707
57368SOL     OW73942   4.880   6.409  13.841
57368SOL    HW173943   4.844   6.481  13.790
57368SOL    HW273944   4.952   6.375  13.789
57369SOL     OW73945   6.909  13.876  14.115
57369SOL    HW173946   6.986  13.820  14.114
57369SOL    HW273947   6.942  13.963  14.096
57370SOL     OW73948  11.914   5.539   7.706
57370SOL    HW173949  11.991   5.487   7.680
57370SOL    HW273950  11.943   5.588   7.782
57371SOL     OW73951  13.755   5.734   2.388
57371SOL    HW173952  13.697   5.768   2.320
57371SOL    HW273953  13.842   5.766   2.364
57372SOL     OW73954  14.284  11.714   1.132
57372SOL    HW173955  14.268  11.731   1.224
57372SOL    HW273956  14.366  11.760   1.113
57373SOL     OW73957   4.542   1.682   9.096
57373SOL    HW173958   4.554   1.754   9.158
57373SOL    HW273959   4.555   1.602   9.148
57374SOL     OW73960  14.633   4.094  13.293
57374SOL    HW173961  14.623   4.177  13.246
57374SOL    HW273962  14.671   4.119  13.377
57375SOL     OW73963   6.291   8.065   9.166
57375SOL    HW173964   6.293   8.136   9.102
57375SOL    HW273965   6.372   8.015   9.149
57376SOL     OW73966  12.293  13.481   5.312
57376SOL    HW173967  12.291  13.576   5.315
57376SOL    HW273968  12.386  13.459   5.305
57377SOL     OW73969   7.356   1.456   1.418
57377SOL    HW173970   7.445   1.468   1.449
57377SOL    HW273971   7.361   1.464   1.323
57378SOL     OW73972   1.886  14.226   0.002
57378SOL    HW173973   1.956  14.226   0.067
57378SOL    HW273974   1.805  14.216   0.053
57379SOL     OW73975   4.857   5.869   0.793
57379SOL    HW173976   4.911   5.863   0.714
57379SOL    HW273977   4.901   5.935   0.847
57380SOL     OW73978   2.055   4.870   6.087
57380SOL    HW173979   2.086   4.901   6.172
57380SOL    HW273980   2.134   4.844   6.041
57381SOL     OW73981   4.550  12.674  11.611
57381SOL    HW173982   4.569  12.748  11.554
57381SOL    HW273983   4.459  12.687  11.639
57382SOL     OW73984   5.831   8.765   8.892
57382SOL    HW173985   5.756   8.804   8.936
57382SOL    HW273986   5.885   8.730   8.963
57383SOL     OW73987  11.397   8.495   2.142
57383SOL    HW173988  11.466   8.527   2.085
57383SOL    HW273989  11.322   8.481   2.084
57384SOL     OW73990  10.581   7.710   1.227
57384SOL    HW173991  10.599   7.617   1.241
57384SOL    HW273992  10.505   7.728   1.281
57385SOL     OW73993   5.859   7.359  12.081
57385SOL    HW173994   5.839   7.409  12.159
57385SOL    HW273995   5.921   7.413  12.033
57386SOL     OW73996   0.681   9.858   7.090
57386SOL    HW173997   0.635   9.915   7.027
57386SOL    HW273998   0.691   9.913   7.168
57387SOL     OW73999  14.877  13.860   7.686
57387SOL    HW174000  14.788  13.865   7.652
57387SOL    HW274001  14.879  13.922   7.759
57388SOL     OW74002  12.361  10.160   0.301
57388SOL    HW174003  12.305  10.225   0.258
57388SOL    HW274004  12.304  10.085   0.316
57389SOL     OW74005   5.475   8.425  13.674
57389SOL    HW174006   5.428   8.504  13.701
57389SOL    HW274007   5.410   8.373  13.627
57390SOL     OW74008  13.512  11.647   4.115
57390SOL    HW174009  13.577  11.667   4.182
57390SOL    HW274010  13.502  11.552   4.119
57391SOL     OW74011  11.836   9.136   3.066
57391SOL    HW174012  11.803   9.214   3.111
57391SOL    HW274013  11.829   9.157   2.973
57392SOL     OW74014  12.538  13.437   2.064
57392SOL    HW174015  12.627  13.444   2.030
57392SOL    HW274016  12.529  13.514   2.121
57393SOL     OW74017  12.802  13.172   4.986
57393SOL    HW174018  12.771  13.152   5.074
57393SOL    HW274019  12.897  13.166   4.992
57394SOL     OW74020   3.507  13.706   2.440
57394SOL    HW174021   3.432  13.667   2.396
57394SOL    HW274022   3.502  13.799   2.419
57395SOL     OW74023   9.445   0.280   5.065
57395SOL    HW174024   9.476   0.326   5.143
57395SOL    HW274025   9.402   0.201   5.099
57396SOL     OW74026   2.590   6.477  11.848
57396SOL    HW174027   2.639   6.559  11.843
57396SOL    HW274028   2.624   6.433  11.926
57397SOL     OW74029   5.572  13.515   8.663
57397SOL    HW174030   5.629  13.440   8.643
57397SOL    HW274031   5.487  13.491   8.627
57398SOL     OW74032   7.379   5.072  14.683
57398SOL    HW174033   7.310   5.009  14.701
57398SOL    HW274034   7.460   5.022  14.688
57399SOL     OW74035   4.922   7.060   8.413
57399SOL    HW174036   5.000   7.112   8.397
57399SOL    HW274037   4.852   7.124   8.429
57400SOL     OW74038  10.017   6.282   1.126
57400SOL    HW174039  10.073   6.238   1.062
57400SOL    HW274040   9.949   6.218   1.145
57401SOL     OW74041   0.073   8.690   0.616
57401SOL    HW174042   0.084   8.668   0.709
57401SOL    HW274043   0.146   8.648   0.572
57402SOL     OW74044   9.330   4.883  11.890
57402SOL    HW174045   9.278   4.962  11.908
57402SOL    HW274046   9.379   4.905  11.811
57403SOL     OW74047  14.369   2.326   6.963
57403SOL    HW174048  14.294   2.383   6.981
57403SOL    HW274049  14.445   2.376   6.996
57404SOL     OW74050   2.743   6.351   5.981
57404SOL    HW174051   2.836   6.351   5.960
57404SOL    HW274052   2.702   6.302   5.909
57405SOL     OW74053   9.196   4.270   2.934
57405SOL    HW174054   9.240   4.266   2.849
57405SOL    HW274055   9.123   4.331   2.920
57406SOL     OW74056   6.610   5.994   4.717
57406SOL    HW174057   6.555   5.955   4.650
57406SOL    HW274058   6.561   6.072   4.745
57407SOL     OW74059   6.748  10.856  10.600
57407SOL    HW174060   6.835  10.842  10.560
57407SOL    HW274061   6.729  10.948  10.582
57408SOL     OW74062   2.797  11.329   4.857
57408SOL    HW174063   2.872  11.270   4.863
57408SOL    HW274064   2.731  11.279   4.809
57409SOL     OW74065  13.403   1.742  12.305
57409SOL    HW174066  13.345   1.791  12.248
57409SOL    HW274067  13.491   1.774  12.283
57410SOL     OW74068   6.177   7.701  13.148
57410SOL    HW174069   6.188   7.607  13.131
57410SOL    HW274070   6.266   7.733  13.159
57411SOL     OW74071   3.841   1.861  12.620
57411SOL    HW174072   3.795   1.817  12.692
57411SOL    HW274073   3.922   1.893  12.659
57412SOL     OW74074   2.517   2.362   3.553
57412SOL    HW174075   2.443   2.405   3.510
57412SOL    HW274076   2.594   2.394   3.505
57413SOL     OW74077   9.310   4.310   3.773
57413SOL    HW174078   9.316   4.215   3.768
57413SOL    HW274079   9.248   4.334   3.704
57414SOL     OW74080   3.453  10.639   6.295
57414SOL    HW174081   3.439  10.731   6.270
57414SOL    HW274082   3.372  10.595   6.271
57415SOL     OW74083  11.774  14.335   4.988
57415SOL    HW174084  11.811  14.316   5.074
57415SOL    HW274085  11.680  14.318   4.998
57416SOL     OW74086  14.590   1.762   8.359
57416SOL    HW174087  14.536   1.810   8.422
57416SOL    HW274088  14.583   1.671   8.386
57417SOL     OW74089   5.914  11.230   9.556
57417SOL    HW174090   5.853  11.304   9.549
57417SOL    HW274091   5.875  11.173   9.622
57418SOL     OW74092   2.087   4.792   9.198
57418SOL    HW174093   2.020   4.769   9.262
57418SOL    HW274094   2.057   4.875   9.161
57419SOL     OW74095   3.158   0.268   7.287
57419SOL    HW174096   3.161   0.202   7.218
57419SOL    HW274097   3.228   0.329   7.266
57420SOL     OW74098   7.968   7.857  13.871
57420SOL    HW174099   8.007   7.772  13.893
57420SOL    HW274100   8.043   7.912  13.848
57421SOL     OW74101   5.766   1.255  10.845
57421SOL    HW174102   5.717   1.174  10.860
57421SOL    HW274103   5.803   1.277  10.931
57422SOL     OW74104  13.066   7.066  12.068
57422SOL    HW174105  12.985   7.020  12.089
57422SOL    HW274106  13.081   7.123  12.144
57423SOL     OW74107  10.532   6.062   8.254
57423SOL    HW174108  10.460   6.006   8.283
57423SOL    HW274109  10.579   6.085   8.334
57424SOL     OW74110  10.546   8.262  11.843
57424SOL    HW174111  10.614   8.298  11.787
57424SOL    HW274112  10.521   8.180  11.801
57425SOL     OW74113  14.604   1.577   4.615
57425SOL    HW174114  14.575   1.508   4.674
57425SOL    HW274115  14.541   1.575   4.543
57426SOL     OW74116   9.874   3.217  12.101
57426SOL    HW174117   9.820   3.236  12.177
57426SOL    HW274118   9.846   3.130  12.073
57427SOL     OW74119  13.434  11.803   5.150
57427SOL    HW174120  13.454  11.795   5.057
57427SOL    HW274121  13.351  11.850   5.153
57428SOL     OW74122   2.178   6.590   1.327
57428SOL    HW174123   2.167   6.682   1.307
57428SOL    HW274124   2.166   6.545   1.243
57429SOL     OW74125   9.608   8.553  10.256
57429SOL    HW174126   9.700   8.579  10.255
57429SOL    HW274127   9.565   8.621  10.308
57430SOL     OW74128   4.395   1.922   7.161
57430SOL    HW174129   4.397   2.006   7.207
57430SOL    HW274130   4.319   1.928   7.103
57431SOL     OW74131   1.322   3.501   0.705
57431SOL    HW174132   1.376   3.452   0.643
57431SOL    HW274133   1.380   3.522   0.777
57432SOL     OW74134  13.554   8.318  11.787
57432SOL    HW174135  13.633   8.373  11.783
57432SOL    HW274136  13.484   8.378  11.810
57433SOL     OW74137  12.896   1.455   8.160
57433SOL    HW174138  12.842   1.522   8.117
57433SOL    HW274139  12.893   1.478   8.253
57434SOL     OW74140  11.729   0.790   2.865
57434SOL    HW174141  11.644   0.749   2.850
57434SOL    HW274142  11.750   0.832   2.781
57435SOL     OW74143   7.923   3.411  14.051
57435SOL    HW174144   7.879   3.395  14.135
57435SOL    HW274145   7.955   3.324  14.025
57436SOL     OW74146  12.272  13.435   9.007
57436SOL    HW174147  12.277  13.512   9.063
57436SOL    HW274148  12.361  13.399   9.007
57437SOL     OW74149   4.024   8.275  10.717
57437SOL    HW174150   4.117   8.253  10.722
57437SOL    HW274151   3.982   8.214  10.778
57438SOL     OW74152   1.608  14.658   4.919
57438SOL    HW174153   1.543  14.626   4.857
57438SOL    HW274154   1.567  14.650   5.005
57439SOL     OW74155   4.366  10.437  12.952
57439SOL    HW174156   4.323  10.400  12.875
57439SOL    HW274157   4.415  10.365  12.991
57440SOL     OW74158   3.888  11.082   9.421
57440SOL    HW174159   3.936  11.071   9.503
57440SOL    HW274160   3.948  11.129   9.363
57441SOL     OW74161   5.734  14.461   3.989
57441SOL    HW174162   5.650  14.417   4.005
57441SOL    HW274163   5.710  14.553   3.978
57442SOL     OW74164  11.017   4.703  10.301
57442SOL    HW174165  11.037   4.611  10.319
57442SOL    HW274166  11.075   4.752  10.360
57443SOL     OW74167   2.699  13.861   0.602
57443SOL    HW174168   2.718  13.872   0.695
57443SOL    HW274169   2.680  13.950   0.571
57444SOL     OW74170  11.247   7.483  11.919
57444SOL    HW174171  11.303   7.406  11.919
57444SOL    HW274172  11.262   7.524  11.833
57445SOL     OW74173  13.927  14.370   4.524
57445SOL    HW174174  14.017  14.385   4.495
57445SOL    HW274175  13.920  14.418   4.606
57446SOL     OW74176  10.705   6.133   6.626
57446SOL    HW174177  10.624   6.160   6.583
57446SOL    HW274178  10.728   6.207   6.683
57447SOL     OW74179   2.773   4.091   6.541
57447SOL    HW174180   2.736   4.164   6.592
57447SOL    HW274181   2.722   4.091   6.460
57448SOL     OW74182   1.253   4.532   8.027
57448SOL    HW174183   1.283   4.623   8.026
57448SOL    HW274184   1.217   4.517   7.940
57449SOL     OW74185   6.879  14.435   2.358
57449SOL    HW174186   6.830  14.493   2.418
57449SOL    HW274187   6.950  14.401   2.411
57450SOL     OW74188   4.904  11.674   2.242
57450SOL    HW174189   4.888  11.593   2.195
57450SOL    HW274190   4.816  11.709   2.260
57451SOL     OW74191  12.658   8.270   2.142
57451SOL    HW174192  12.732   8.290   2.200
57451SOL    HW274193  12.626   8.185   2.174
57452SOL     OW74194  10.652  11.750  13.027
57452SOL    HW174195  10.574  11.695  13.017
57452SOL    HW274196  10.623  11.838  13.000
57453SOL     OW74197  12.298   9.824   4.431
57453SOL    HW174198  12.255   9.740   4.412
57453SOL    HW274199  12.237   9.890   4.399
57454SOL     OW74200  11.881  14.415  10.209
57454SOL    HW174201  11.948  14.388  10.146
57454SOL    HW274202  11.820  14.469  10.158
57455SOL     OW74203  11.984   0.795  12.924
57455SOL    HW174204  11.976   0.753  12.838
57455SOL    HW274205  11.926   0.871  12.918
57456SOL     OW74206  12.428   0.722  10.627
57456SOL    HW174207  12.411   0.727  10.533
57456SOL    HW274208  12.406   0.631  10.649
57457SOL     OW74209   8.029  10.812  10.143
57457SOL    HW174210   7.975  10.752  10.092
57457SOL    HW274211   8.102  10.759  10.175
57458SOL     OW74212   9.151  12.949   5.210
57458SOL    HW174213   9.142  13.036   5.173
57458SOL    HW274214   9.093  12.949   5.286
57459SOL     OW74215   5.126   9.050   3.190
57459SOL    HW174216   5.201   9.074   3.135
57459SOL    HW274217   5.049   9.067   3.135
57460SOL     OW74218   8.106   5.869   0.540
57460SOL    HW174219   8.014   5.891   0.529
57460SOL    HW274220   8.105   5.777   0.566
57461SOL     OW74221   6.152   2.060   1.938
57461SOL    HW174222   6.113   2.002   2.003
57461SOL    HW274223   6.142   2.147   1.974
57462SOL     OW74224   6.803   2.570   7.459
57462SOL    HW174225   6.855   2.644   7.427
57462SOL    HW274226   6.803   2.581   7.555
57463SOL     OW74227  10.133  13.763   6.419
57463SOL    HW174228  10.114  13.701   6.349
57463SOL    HW274229  10.060  13.754   6.480
57464SOL     OW74230  14.745   9.370  10.920
57464SOL    HW174231  14.673   9.315  10.952
57464SOL    HW274232  14.822   9.313  10.922
57465SOL     OW74233  11.842   5.514   6.352
57465SOL    HW174234  11.837   5.419   6.359
57465SOL    HW274235  11.754   5.544   6.375
57466SOL     OW74236   5.075   9.941  11.636
57466SOL    HW174237   5.078   9.849  11.609
57466SOL    HW274238   5.166   9.966  11.647
57467SOL     OW74239   0.604   6.678  14.302
57467SOL    HW174240   0.580   6.606  14.244
57467SOL    HW274241   0.552   6.752  14.271
57468SOL     OW74242  12.813  10.184   9.988
57468SOL    HW174243  12.788  10.243  10.059
57468SOL    HW274244  12.900  10.214   9.962
57469SOL     OW74245   7.409  14.528   1.869
57469SOL    HW174246   7.348  14.589   1.912
57469SOL    HW274247   7.357  14.449   1.855
57470SOL     OW74248  13.958   0.420   1.337
57470SOL    HW174249  14.024   0.474   1.294
57470SOL    HW274250  14.009   0.360   1.393
57471SOL     OW74251   8.835   9.249   9.674
57471SOL    HW174252   8.781   9.171   9.665
57471SOL    HW274253   8.837   9.286   9.586
57472SOL     OW74254   0.409  12.547   2.686
57472SOL    HW174255   0.345  12.611   2.654
57472SOL    HW274256   0.404  12.554   2.781
57473SOL     OW74257   3.568  14.324   3.535
57473SOL    HW174258   3.569  14.391   3.466
57473SOL    HW274259   3.636  14.262   3.508
57474SOL     OW74260   7.460   6.417   9.703
57474SOL    HW174261   7.499   6.459   9.779
57474SOL    HW274262   7.490   6.326   9.707
57475SOL     OW74263   6.045   3.607   6.508
57475SOL    HW174264   6.073   3.588   6.597
57475SOL    HW274265   6.124   3.637   6.463
57476SOL     OW74266   6.881   9.162  10.753
57476SOL    HW174267   6.872   9.234  10.690
57476SOL    HW274268   6.900   9.085  10.699
57477SOL     OW74269  13.887   3.472   8.119
57477SOL    HW174270  13.875   3.486   8.213
57477SOL    HW274271  13.800   3.450   8.086
57478SOL     OW74272  12.545   5.578   7.928
57478SOL    HW174273  12.488   5.582   7.851
57478SOL    HW274274  12.531   5.661   7.972
57479SOL     OW74275   4.760  14.227   3.926
57479SOL    HW174276   4.780  14.292   3.994
57479SOL    HW274277   4.812  14.255   3.850
57480SOL     OW74278   6.338  10.179   7.901
57480SOL    HW174279   6.415  10.129   7.875
57480SOL    HW274280   6.289  10.121   7.959
57481SOL     OW74281  13.121   5.724  13.977
57481SOL    HW174282  13.173   5.795  14.015
57481SOL    HW274283  13.099   5.668  14.051
57482SOL     OW74284   8.717   5.382   1.256
57482SOL    HW174285   8.641   5.425   1.294
57482SOL    HW274286   8.711   5.400   1.162
57483SOL     OW74287  10.622  13.284   0.913
57483SOL    HW174288  10.600  13.299   1.005
57483SOL    HW274289  10.712  13.253   0.915
57484SOL     OW74290   8.432   9.077  10.271
57484SOL    HW174291   8.403   9.031  10.192
57484SOL    HW274292   8.514   9.119  10.246
57485SOL     OW74293   9.771   0.801  10.875
57485SOL    HW174294   9.681   0.819  10.846
57485SOL    HW274295   9.807   0.888  10.895
57486SOL     OW74296   0.847  14.215  13.561
57486SOL    HW174297   0.756  14.224  13.535
57486SOL    HW274298   0.860  14.280  13.629
57487SOL     OW74299  14.034  11.280   2.124
57487SOL    HW174300  14.021  11.373   2.106
57487SOL    HW274301  14.007  11.236   2.044
57488SOL     OW74302   5.568   4.943   6.687
57488SOL    HW174303   5.550   5.032   6.714
57488SOL    HW274304   5.556   4.890   6.765
57489SOL     OW74305   4.504   3.136  10.277
57489SOL    HW174306   4.423   3.174  10.310
57489SOL    HW274307   4.552   3.210  10.239
57490SOL     OW74308   3.245   1.045   3.835
57490SOL    HW174309   3.171   1.043   3.775
57490SOL    HW274310   3.319   1.012   3.784
57491SOL     OW74311  14.367   7.711  12.662
57491SOL    HW174312  14.329   7.660  12.734
57491SOL    HW274313  14.293   7.758  12.624
57492SOL     OW74314  14.624  14.786   8.943
57492SOL    HW174315  14.624  14.796   9.038
57492SOL    HW274316  14.589  14.869   8.910
57493SOL     OW74317   7.131  13.530  13.432
57493SOL    HW174318   7.121  13.463  13.500
57493SOL    HW274319   7.050  13.580  13.434
57494SOL     OW74320   2.934  14.373   0.306
57494SOL    HW174321   2.887  14.457   0.303
57494SOL    HW274322   2.912  14.336   0.391
57495SOL     OW74323  10.392   1.566   7.076
57495SOL    HW174324  10.301   1.538   7.068
57495SOL    HW274325  10.425   1.566   6.986
57496SOL     OW74326  13.557  11.770  12.631
57496SOL    HW174327  13.492  11.782  12.701
57496SOL    HW274328  13.634  11.817  12.662
57497SOL     OW74329  13.540  10.810   4.732
57497SOL    HW174330  13.601  10.764   4.789
57497SOL    HW274331  13.524  10.894   4.775
57498SOL     OW74332   9.920  13.728  11.627
57498SOL    HW174333   9.909  13.655  11.566
57498SOL    HW274334   9.992  13.701  11.684
57499SOL     OW74335  10.840  13.608   5.700
57499SOL    HW174336  10.808  13.522   5.673
57499SOL    HW274337  10.847  13.657   5.618
57500SOL     OW74338   2.084  13.455   1.585
57500SOL    HW174339   2.050  13.542   1.604
57500SOL    HW274340   2.010  13.407   1.549
57501SOL     OW74341   1.552   3.901  11.642
57501SOL    HW174342   1.613   3.939  11.578
57501SOL    HW274343   1.466   3.934  11.616
57502SOL     OW74344   8.685   8.220  11.487
57502SOL    HW174345   8.606   8.269  11.511
57502SOL    HW274346   8.756   8.282  11.503
57503SOL     OW74347   1.697   3.369   7.571
57503SOL    HW174348   1.643   3.405   7.500
57503SOL    HW274349   1.692   3.274   7.559
57504SOL     OW74350   7.888   3.136   1.916
57504SOL    HW174351   7.978   3.156   1.939
57504SOL    HW274352   7.854   3.089   1.992
57505SOL     OW74353   4.277   6.134   5.870
57505SOL    HW174354   4.214   6.065   5.891
57505SOL    HW274355   4.349   6.120   5.933
57506SOL     OW74356   4.412  10.106   6.174
57506SOL    HW174357   4.363  10.085   6.253
57506SOL    HW274358   4.386  10.196   6.153
57507SOL     OW74359   1.914   3.362  11.550
57507SOL    HW174360   1.964   3.422  11.605
57507SOL    HW274361   1.871   3.303  11.612
57508SOL     OW74362  14.605   0.913   9.916
57508SOL    HW174363  14.582   0.845   9.852
57508SOL    HW274364  14.521   0.946   9.947
57509SOL     OW74365  11.233  10.825   5.399
57509SOL    HW174366  11.311  10.794   5.446
57509SOL    HW274367  11.266  10.856   5.315
57510SOL     OW74368   5.789   5.345  13.475
57510SOL    HW174369   5.813   5.330  13.384
57510SOL    HW274370   5.693   5.342  13.476
57511SOL     OW74371  10.670   5.990  12.369
57511SOL    HW174372  10.597   5.962  12.314
57511SOL    HW274373  10.643   6.076  12.403
57512SOL     OW74374   7.791   6.456   4.391
57512SOL    HW174375   7.737   6.446   4.312
57512SOL    HW274376   7.820   6.547   4.389
57513SOL     OW74377   9.379   6.913   3.850
57513SOL    HW174378   9.294   6.894   3.811
57513SOL    HW274379   9.424   6.966   3.784
57514SOL     OW74380  11.022   9.049   5.798
57514SOL    HW174381  11.091   9.040   5.733
57514SOL    HW274382  11.058   9.009   5.877
57515SOL     OW74383   7.199   9.909   8.723
57515SOL    HW174384   7.188   9.973   8.793
57515SOL    HW274385   7.146   9.834   8.751
57516SOL     OW74386  13.914   3.617  13.635
57516SOL    HW174387  13.924   3.564  13.556
57516SOL    HW274388  13.917   3.708  13.605
57517SOL     OW74389   1.818   9.622   1.651
57517SOL    HW174390   1.799   9.546   1.705
57517SOL    HW274391   1.804   9.698   1.708
57518SOL     OW74392   8.773   6.482   4.306
57518SOL    HW174393   8.813   6.550   4.252
57518SOL    HW274394   8.840   6.461   4.371
57519SOL     OW74395  12.216   7.162  11.925
57519SOL    HW174396  12.229   7.139  11.833
57519SOL    HW274397  12.137   7.116  11.950
57520SOL     OW74398   0.076   6.508   4.069
57520SOL    HW174399   0.091   6.428   4.119
57520SOL    HW274400   0.009   6.485   4.005
57521SOL     OW74401   4.272   0.800  11.862
57521SOL    HW174402   4.270   0.760  11.948
57521SOL    HW274403   4.360   0.838  11.855
57522SOL     OW74404  12.305   1.192   2.269
57522SOL    HW174405  12.382   1.248   2.283
57522SOL    HW274406  12.322   1.150   2.184
57523SOL     OW74407  10.985   2.411   5.456
57523SOL    HW174408  11.031   2.482   5.501
57523SOL    HW274409  10.901   2.448   5.431
57524SOL     OW74410  14.721   6.721   9.962
57524SOL    HW174411  14.686   6.632   9.974
57524SOL    HW274412  14.701   6.766  10.044
57525SOL     OW74413   5.828  10.082   7.098
57525SOL    HW174414   5.765  10.133   7.047
57525SOL    HW274415   5.867  10.022   7.034
57526SOL     OW74416   0.272   4.314  11.364
57526SOL    HW174417   0.191   4.363  11.377
57526SOL    HW274418   0.313   4.312  11.450
57527SOL     OW74419  10.424   4.437   3.482
57527SOL    HW174420  10.492   4.380   3.517
57527SOL    HW274421  10.343   4.387   3.492
57528SOL     OW74422  14.569   9.805   6.966
57528SOL    HW174423  14.489   9.802   6.914
57528SOL    HW274424  14.590   9.713   6.984
57529SOL     OW74425   2.658   6.880   5.180
57529SOL    HW174426   2.566   6.896   5.202
57529SOL    HW274427   2.705   6.955   5.217
57530SOL     OW74428   3.776   2.408   0.595
57530SOL    HW174429   3.716   2.417   0.669
57530SOL    HW274430   3.857   2.449   0.625
57531SOL     OW74431  11.559   0.661   0.236
57531SOL    HW174432  11.616   0.737   0.223
57531SOL    HW274433  11.557   0.649   0.331
57532SOL     OW74434   5.195   6.180  14.492
57532SOL    HW174435   5.236   6.223  14.417
57532SOL    HW274436   5.258   6.115  14.520
57533SOL     OW74437   5.394   0.238   1.842
57533SOL    HW174438   5.325   0.229   1.776
57533SOL    HW274439   5.361   0.306   1.902
57534SOL     OW74440   4.217   1.127   8.202
57534SOL    HW174441   4.296   1.078   8.228
57534SOL    HW274442   4.249   1.216   8.186
57535SOL     OW74443   9.322  12.796   7.174
57535SOL    HW174444   9.344  12.702   7.177
57535SOL    HW274445   9.296  12.812   7.084
57536SOL     OW74446   5.751   8.273   9.570
57536SOL    HW174447   5.805   8.329   9.514
57536SOL    HW274448   5.681   8.242   9.512
57537SOL     OW74449  11.814   4.283  10.945
57537SOL    HW174450  11.838   4.308  10.856
57537SOL    HW274451  11.744   4.344  10.969
57538SOL     OW74452   8.235   3.587   3.427
57538SOL    HW174453   8.291   3.626   3.361
57538SOL    HW274454   8.203   3.662   3.478
57539SOL     OW74455  10.512   6.846  13.554
57539SOL    HW174456  10.462   6.906  13.610
57539SOL    HW274457  10.456   6.830  13.478
57540SOL     OW74458   8.973   8.548   3.930
57540SOL    HW174459   9.000   8.462   3.963
57540SOL    HW274460   8.899   8.573   3.985
57541SOL     OW74461   7.528   7.332  13.004
57541SOL    HW174462   7.618   7.308  12.979
57541SOL    HW274463   7.512   7.414  12.956
57542SOL     OW74464   4.592  13.278   8.892
57542SOL    HW174465   4.518  13.238   8.846
57542SOL    HW274466   4.670  13.235   8.856
57543SOL     OW74467   5.844  11.863   3.200
57543SOL    HW174468   5.803  11.925   3.261
57543SOL    HW274469   5.925  11.837   3.243
57544SOL     OW74470   3.042  13.626  11.905
57544SOL    HW174471   3.056  13.621  11.999
57544SOL    HW274472   3.107  13.689  11.874
57545SOL     OW74473   5.492   6.649   4.100
57545SOL    HW174474   5.551   6.689   4.036
57545SOL    HW274475   5.522   6.558   4.107
57546SOL     OW74476   4.957  13.308  13.611
57546SOL    HW174477   4.894  13.365  13.653
57546SOL    HW274478   5.025  13.367  13.578
57547SOL     OW74479   3.741  12.695   4.819
57547SOL    HW174480   3.709  12.612   4.856
57547SOL    HW274481   3.744  12.679   4.724
57548SOL     OW74482  14.045   3.679   2.450
57548SOL    HW174483  14.119   3.693   2.509
57548SOL    HW274484  14.079   3.704   2.364
57549SOL     OW74485   0.649   8.707   9.042
57549SOL    HW174486   0.713   8.764   9.000
57549SOL    HW274487   0.701   8.633   9.074
57550SOL     OW74488  14.591   6.965   3.317
57550SOL    HW174489  14.541   7.033   3.363
57550SOL    HW274490  14.653   6.933   3.382
57551SOL     OW74491  10.386   8.065   0.429
57551SOL    HW174492  10.469   8.019   0.424
57551SOL    HW274493  10.320   7.996   0.438
57552SOL     OW74494   0.516   0.841  14.873
57552SOL    HW174495   0.441   0.809   0.043
57552SOL    HW274496   0.574   0.878   0.059
57553SOL     OW74497   9.179   2.853  11.722
57553SOL    HW174498   9.220   2.880  11.640
57553SOL    HW274499   9.087   2.876  11.712
57554SOL     OW74500   2.720   1.424  12.829
57554SOL    HW174501   2.648   1.389  12.777
57554SOL    HW274502   2.693   1.409  12.920
57555SOL     OW74503  13.836  12.343  11.166
57555SOL    HW174504  13.826  12.433  11.198
57555SOL    HW274505  13.828  12.351  11.071
57556SOL     OW74506  12.559   8.021   8.558
57556SOL    HW174507  12.548   8.098   8.613
57556SOL    HW274508  12.648   8.027   8.524
57557SOL     OW74509   8.443   4.264  10.396
57557SOL    HW174510   8.430   4.358  10.388
57557SOL    HW274511   8.427   4.245  10.489
57558SOL     OW74512  11.352   2.154   7.432
57558SOL    HW174513  11.256   2.151   7.425
57558SOL    HW274514  11.374   2.247   7.429
57559SOL     OW74515  11.711   2.967  11.967
57559SOL    HW174516  11.750   3.044  12.008
57559SOL    HW274517  11.785   2.910  11.947
57560SOL     OW74518  11.088   3.450   4.209
57560SOL    HW174519  11.115   3.502   4.134
57560SOL    HW274520  11.138   3.486   4.283
57561SOL     OW74521  12.974   5.232   3.080
57561SOL    HW174522  12.991   5.149   3.036
57561SOL    HW274523  12.880   5.246   3.069
57562SOL     OW74524  12.425  12.334   5.621
57562SOL    HW174525  12.495  12.291   5.670
57562SOL    HW274526  12.345  12.307   5.665
57563SOL     OW74527  10.332  14.797   9.355
57563SOL    HW174528  10.340  14.701   9.348
57563SOL    HW274529  10.329  14.827   9.264
57564SOL     OW74530  14.611  13.625   2.751
57564SOL    HW174531  14.683  13.688   2.740
57564SOL    HW274532  14.538  13.665   2.703
57565SOL     OW74533   8.262  12.923   5.149
57565SOL    HW174534   8.239  13.013   5.128
57565SOL    HW274535   8.354  12.915   5.124
57566SOL     OW74536   6.612   2.751  10.888
57566SOL    HW174537   6.604   2.841  10.856
57566SOL    HW274538   6.704   2.729  10.875
57567SOL     OW74539   1.866   4.433  11.207
57567SOL    HW174540   1.819   4.403  11.130
57567SOL    HW274541   1.875   4.356  11.262
57568SOL     OW74542   1.525   2.225   1.841
57568SOL    HW174543   1.606   2.217   1.891
57568SOL    HW274544   1.550   2.208   1.751
57569SOL     OW74545  13.013   3.497   8.367
57569SOL    HW174546  12.960   3.566   8.328
57569SOL    HW274547  13.093   3.541   8.396
57570SOL     OW74548   7.699   0.382   2.640
57570SOL    HW174549   7.667   0.471   2.651
57570SOL    HW274550   7.794   0.390   2.645
57571SOL     OW74551   6.002   5.700  14.549
57571SOL    HW174552   6.095   5.694  14.570
57571SOL    HW274553   5.985   5.625  14.492
57572SOL     OW74554   5.584  11.567  14.553
57572SOL    HW174555   5.652  11.633  14.537
57572SOL    HW274556   5.590  11.508  14.477
57573SOL     OW74557  12.717   2.042   8.549
57573SOL    HW174558  12.739   1.951   8.570
57573SOL    HW274559  12.801   2.087   8.550
57574SOL     OW74560   4.821  14.527   3.454
57574SOL    HW174561   4.894  14.538   3.515
57574SOL    HW274562   4.759  14.471   3.499
57575SOL     OW74563   5.071   7.326   5.755
57575SOL    HW174564   4.985   7.355   5.785
57575SOL    HW274565   5.079   7.237   5.789
57576SOL     OW74566   5.726  13.061   2.985
57576SOL    HW174567   5.821  13.065   2.995
57576SOL    HW274568   5.701  13.150   2.959
57577SOL     OW74569   1.720   5.221  12.506
57577SOL    HW174570   1.632   5.237  12.539
57577SOL    HW274571   1.710   5.142  12.452
57578SOL     OW74572   3.043   6.925  13.247
57578SOL    HW174573   3.004   6.870  13.179
57578SOL    HW274574   3.054   7.010  13.206
57579SOL     OW74575   2.842   4.827   4.028
57579SOL    HW174576   2.832   4.735   4.053
57579SOL    HW274577   2.854   4.825   3.933
57580SOL     OW74578  13.656  12.891   5.417
57580SOL    HW174579  13.594  12.922   5.352
57580SOL    HW274580  13.697  12.970   5.452
57581SOL     OW74581   6.158   5.498   7.032
57581SOL    HW174582   6.112   5.482   7.115
57581SOL    HW274583   6.233   5.440   7.034
57582SOL     OW74584   3.168   8.102  10.578
57582SOL    HW174585   3.095   8.085  10.518
57582SOL    HW274586   3.246   8.096  10.522
57583SOL     OW74587  12.492   6.431   3.913
57583SOL    HW174588  12.402   6.465   3.912
57583SOL    HW274589  12.501   6.384   3.830
57584SOL     OW74590  10.873   7.921   9.382
57584SOL    HW174591  10.966   7.941   9.388
57584SOL    HW274592  10.857   7.908   9.289
57585SOL     OW74593   3.248  11.352   3.591
57585SOL    HW174594   3.153  11.361   3.597
57585SOL    HW274595   3.263  11.258   3.581
57586SOL     OW74596  11.161  10.562   7.262
57586SOL    HW174597  11.094  10.516   7.313
57586SOL    HW274598  11.166  10.649   7.303
57587SOL     OW74599   0.817  12.780   4.360
57587SOL    HW174600   0.876  12.705   4.350
57587SOL    HW274601   0.737  12.753   4.313
57588SOL     OW74602   5.018  10.064   3.460
57588SOL    HW174603   4.995   9.971   3.453
57588SOL    HW274604   4.976  10.104   3.384
57589SOL     OW74605   2.127   4.951   1.961
57589SOL    HW174606   2.083   5.028   1.996
57589SOL    HW274607   2.057   4.898   1.923
57590SOL     OW74608   5.567  10.048  11.894
57590SOL    HW174609   5.576  10.093  11.977
57590SOL    HW274610   5.514  10.106  11.840
57591SOL     OW74611  14.020   3.120  10.358
57591SOL    HW174612  13.995   3.135  10.267
57591SOL    HW274613  13.971   3.186  10.408
57592SOL     OW74614   8.414  14.480   7.245
57592SOL    HW174615   8.463  14.561   7.254
57592SOL    HW274616   8.459  14.418   7.302
57593SOL     OW74617   8.087   3.477   5.315
57593SOL    HW174618   8.169   3.501   5.358
57593SOL    HW274619   8.039   3.559   5.307
57594SOL     OW74620   8.975   2.841  12.959
57594SOL    HW174621   9.057   2.807  12.924
57594SOL    HW274622   8.981   2.936  12.946
57595SOL     OW74623   1.181   8.472  13.239
57595SOL    HW174624   1.230   8.413  13.296
57595SOL    HW274625   1.203   8.559  13.272
57596SOL     OW74626   1.668  14.047   9.808
57596SOL    HW174627   1.698  13.956   9.813
57596SOL    HW274628   1.745  14.097   9.783
57597SOL     OW74629   5.844  10.272   1.075
57597SOL    HW174630   5.937  10.295   1.068
57597SOL    HW274631   5.809  10.285   0.987
57598SOL     OW74632   5.422   8.667   9.546
57598SOL    HW174633   5.367   8.686   9.470
57598SOL    HW274634   5.424   8.749   9.595
57599SOL     OW74635  10.876   8.316   0.966
57599SOL    HW174636  10.881   8.307   1.061
57599SOL    HW274637  10.844   8.231   0.935
57600SOL     OW74638   6.751  14.013   9.173
57600SOL    HW174639   6.789  13.937   9.217
57600SOL    HW274640   6.686  14.047   9.235
57601SOL     OW74641   7.217  13.159   9.244
57601SOL    HW174642   7.142  13.203   9.285
57601SOL    HW274643   7.204  13.066   9.266
57602SOL     OW74644   0.070  14.515  10.366
57602SOL    HW174645   0.091  14.608  10.372
57602SOL    HW274646   0.027  14.494  10.449
57603SOL     OW74647   9.859   1.873  11.894
57603SOL    HW174648   9.906   1.827  11.963
57603SOL    HW274649   9.873   1.966  11.913
57604SOL     OW74650   6.172   5.252   5.241
57604SOL    HW174651   6.219   5.221   5.318
57604SOL    HW274652   6.157   5.345   5.259
57605SOL     OW74653  13.040   8.217   9.295
57605SOL    HW174654  13.070   8.138   9.341
57605SOL    HW274655  12.950   8.197   9.270
57606SOL     OW74656   4.217  10.923  10.161
57606SOL    HW174657   4.257  11.009  10.178
57606SOL    HW274658   4.193  10.927  10.068
57607SOL     OW74659   6.775   8.411  13.315
57607SOL    HW174660   6.750   8.414  13.222
57607SOL    HW274661   6.807   8.322  13.328
57608SOL     OW74662  10.745   2.570  11.717
57608SOL    HW174663  10.746   2.483  11.677
57608SOL    HW274664  10.660   2.606  11.694
57609SOL     OW74665   6.563  11.329  11.356
57609SOL    HW174666   6.597  11.246  11.323
57609SOL    HW274667   6.503  11.305  11.426
57610SOL     OW74668   0.236   5.752   6.968
57610SOL    HW174669   0.216   5.666   6.930
57610SOL    HW274670   0.248   5.809   6.892
57611SOL     OW74671   5.388  14.681  14.446
57611SOL    HW174672   5.429  14.719  14.524
57611SOL    HW274673   5.451  14.699  14.376
57612SOL     OW74674  13.016  14.423   2.248
57612SOL    HW174675  13.018  14.494   2.184
57612SOL    HW274676  13.101  14.429   2.293
57613SOL     OW74677   2.584  13.145   7.043
57613SOL    HW174678   2.524  13.213   7.013
57613SOL    HW274679   2.670  13.187   7.041
57614SOL     OW74680  12.316  11.873   5.542
57614SOL    HW174681  12.295  11.928   5.617
57614SOL    HW274682  12.411  11.883   5.531
57615SOL     OW74683   0.182   9.385  12.912
57615SOL    HW174684   0.128   9.306  12.911
57615SOL    HW274685   0.133   9.446  12.967
57616SOL     OW74686  13.444   8.687   9.234
57616SOL    HW174687  13.361   8.734   9.230
57616SOL    HW274688  13.467   8.688   9.327
57617SOL     OW74689   7.895   4.602   2.411
57617SOL    HW174690   7.837   4.552   2.469
57617SOL    HW274691   7.917   4.681   2.461
57618SOL     OW74692   1.192   0.443   0.047
57618SOL    HW174693   1.234   0.412   0.127
57618SOL    HW274694   1.124   0.503   0.077
57619SOL     OW74695  10.789   7.970   0.050
57619SOL    HW174696  10.878   7.977   0.018
57619SOL    HW274697  10.784   7.883   0.090
57620SOL     OW74698  11.200   4.089   2.922
57620SOL    HW174699  11.171   4.124   2.838
57620SOL    HW274700  11.129   4.031   2.949
57621SOL     OW74701   3.772   8.309  13.681
57621SOL    HW174702   3.685   8.270  13.693
57621SOL    HW274703   3.818   8.247  13.624
57622SOL     OW74704   3.076   8.639   4.463
57622SOL    HW174705   3.075   8.599   4.376
57622SOL    HW274706   3.169   8.657   4.480
57623SOL     OW74707   7.905  10.746   1.819
57623SOL    HW174708   7.816  10.747   1.853
57623SOL    HW274709   7.948  10.674   1.867
57624SOL     OW74710  12.394  14.813   7.861
57624SOL    HW174711  12.395  14.844   7.770
57624SOL    HW274712  12.327  14.745   7.863
57625SOL     OW74713  13.077   6.306   0.105
57625SOL    HW174714  12.986   6.333   0.111
57625SOL    HW274715  13.096   6.306   0.011
57626SOL     OW74716   4.059   5.416   3.713
57626SOL    HW174717   4.014   5.405   3.629
57626SOL    HW274718   4.001   5.373   3.776
57627SOL     OW74719   0.159   1.870  12.940
57627SOL    HW174720   0.132   1.781  12.917
57627SOL    HW274721   0.245   1.881  12.899
57628SOL     OW74722   5.902  12.804   4.912
57628SOL    HW174723   5.974  12.863   4.891
57628SOL    HW274724   5.823  12.853   4.890
57629SOL     OW74725  11.924   0.967   0.778
57629SOL    HW174726  11.864   1.037   0.803
57629SOL    HW274727  11.911   0.957   0.683
57630SOL     OW74728   6.642   7.709  10.496
57630SOL    HW174729   6.621   7.741  10.583
57630SOL    HW274730   6.675   7.621  10.510
57631SOL     OW74731  12.191   5.142  13.038
57631SOL    HW174732  12.156   5.054  13.025
57631SOL    HW274733  12.141   5.198  12.979
57632SOL     OW74734   7.443   3.296  10.105
57632SOL    HW174735   7.398   3.212  10.116
57632SOL    HW274736   7.503   3.301  10.179
57633SOL     OW74737   4.711   4.439   5.856
57633SOL    HW174738   4.631   4.408   5.813
57633SOL    HW274739   4.702   4.534   5.860
57634SOL     OW74740   7.728   0.852   2.811
57634SOL    HW174741   7.655   0.914   2.808
57634SOL    HW274742   7.806   0.906   2.797
57635SOL     OW74743   8.233   5.510  12.384
57635SOL    HW174744   8.302   5.482  12.444
57635SOL    HW274745   8.176   5.434  12.375
57636SOL     OW74746   3.913  11.523  14.442
57636SOL    HW174747   3.866  11.605  14.434
57636SOL    HW274748   4.005  11.546  14.434
57637SOL     OW74749  10.184   5.989  10.468
57637SOL    HW174750  10.242   5.913  10.481
57637SOL    HW274751  10.243   6.064  10.467
57638SOL     OW74752   6.812   0.703   9.980
57638SOL    HW174753   6.736   0.721   9.924
57638SOL    HW274754   6.874   0.772   9.958
57639SOL     OW74755   4.202   1.772   2.921
57639SOL    HW174756   4.195   1.705   2.853
57639SOL    HW274757   4.277   1.744   2.973
57640SOL     OW74758   8.614   9.459   8.200
57640SOL    HW174759   8.573   9.546   8.199
57640SOL    HW274760   8.580   9.417   8.279
57641SOL     OW74761   6.308   8.093   6.047
57641SOL    HW174762   6.374   8.096   5.978
57641SOL    HW274763   6.357   8.076   6.127
57642SOL     OW74764  13.460   6.330   5.535
57642SOL    HW174765  13.485   6.316   5.443
57642SOL    HW274766  13.364   6.335   5.532
57643SOL     OW74767   2.154   8.757   0.986
57643SOL    HW174768   2.061   8.736   0.985
57643SOL    HW274769   2.198   8.673   0.977
57644SOL     OW74770   9.420   4.141   9.147
57644SOL    HW174771   9.350   4.208   9.150
57644SOL    HW274772   9.397   4.079   9.216
57645SOL     OW74773   9.962   5.496  12.096
57645SOL    HW174774  10.005   5.572  12.135
57645SOL    HW274775  10.035   5.439  12.071
57646SOL     OW74776   1.927   4.660   2.159
57646SOL    HW174777   1.977   4.592   2.203
57646SOL    HW274778   1.919   4.730   2.223
57647SOL     OW74779   9.033   3.329   4.823
57647SOL    HW174780   9.098   3.321   4.893
57647SOL    HW274781   9.085   3.323   4.742
57648SOL     OW74782   0.787   4.450   0.795
57648SOL    HW174783   0.835   4.518   0.842
57648SOL    HW274784   0.805   4.468   0.702
57649SOL     OW74785   6.052   8.466   7.373
57649SOL    HW174786   6.120   8.514   7.326
57649SOL    HW274787   6.078   8.471   7.465
57650SOL     OW74788  14.170   6.490   8.466
57650SOL    HW174789  14.165   6.546   8.544
57650SOL    HW274790  14.109   6.419   8.483
57651SOL     OW74791   8.910   6.477   5.246
57651SOL    HW174792   8.900   6.493   5.152
57651SOL    HW274793   8.996   6.512   5.267
57652SOL     OW74794  10.361   0.686  13.650
57652SOL    HW174795  10.443   0.647  13.619
57652SOL    HW274796  10.365   0.677  13.745
57653SOL     OW74797   9.863  11.896   5.761
57653SOL    HW174798   9.853  11.982   5.719
57653SOL    HW274799   9.956  11.890   5.781
57654SOL     OW74800   6.028   6.964   0.813
57654SOL    HW174801   6.018   6.885   0.866
57654SOL    HW274802   6.121   6.966   0.791
57655SOL     OW74803   6.132   9.110  10.648
57655SOL    HW174804   6.149   9.059  10.569
57655SOL    HW274805   6.217   9.147  10.672
57656SOL     OW74806   3.671   3.808   4.648
57656SOL    HW174807   3.662   3.901   4.669
57656SOL    HW274808   3.731   3.773   4.714
57657SOL     OW74809   0.141   9.050   3.458
57657SOL    HW174810   0.068   9.111   3.444
57657SOL    HW274811   0.123   9.010   3.543
57658SOL     OW74812  11.681   7.068   6.732
57658SOL    HW174813  11.622   7.070   6.657
57658SOL    HW274814  11.624   7.047   6.806
57659SOL     OW74815  11.240  13.878   5.589
57659SOL    HW174816  11.272  13.837   5.509
57659SOL    HW274817  11.163  13.928   5.560
57660SOL     OW74818   4.315  12.894   3.860
57660SOL    HW174819   4.387  12.831   3.862
57660SOL    HW274820   4.358  12.979   3.849
57661SOL     OW74821   5.757   9.948  12.941
57661SOL    HW174822   5.717   9.954  12.854
57661SOL    HW274823   5.717  10.019  12.991
57662SOL     OW74824  13.002  13.005   3.789
57662SOL    HW174825  12.926  13.014   3.731
57662SOL    HW274826  13.060  13.077   3.763
57663SOL     OW74827   5.077   2.969   8.769
57663SOL    HW174828   5.139   2.897   8.777
57663SOL    HW274829   5.100   3.011   8.686
57664SOL     OW74830  10.972  14.663   0.329
57664SOL    HW174831  10.886  14.633   0.300
57664SOL    HW274832  11.033  14.617   0.271
57665SOL     OW74833   9.702  14.820  14.231
57665SOL    HW174834   9.660   0.001  14.291
57665SOL    HW274835   9.755  14.763  14.287
57666SOL     OW74836   9.876   0.160  10.505
57666SOL    HW174837   9.954   0.214  10.489
57666SOL    HW274838   9.846   0.185  10.592
57667SOL     OW74839   9.828   3.656   9.873
57667SOL    HW174840   9.802   3.568   9.900
57667SOL    HW274841   9.856   3.646   9.782
57668SOL     OW74842   1.160   2.411   6.904
57668SOL    HW174843   1.111   2.493   6.898
57668SOL    HW274844   1.096   2.343   6.883
57669SOL     OW74845   0.121  13.956  13.048
57669SOL    HW174846   0.194  13.914  13.093
57669SOL    HW274847   0.043  13.911  13.081
57670SOL     OW74848  13.400  10.510   4.735
57670SOL    HW174849  13.468  10.577   4.728
57670SOL    HW274850  13.336  10.534   4.668
57671SOL     OW74851   8.679  13.642  14.491
57671SOL    HW174852   8.622  13.703  14.445
57671SOL    HW274853   8.766  13.682  14.487
57672SOL     OW74854   9.950  14.422  13.484
57672SOL    HW174855   9.856  14.405  13.473
57672SOL    HW274856   9.986  14.413  13.396
57673SOL     OW74857   7.024   6.517   9.080
57673SOL    HW174858   7.042   6.581   9.011
57673SOL    HW274859   6.931   6.528   9.100
57674SOL     OW74860   0.563   8.281   2.728
57674SOL    HW174861   0.608   8.225   2.792
57674SOL    HW274862   0.470   8.272   2.748
57675SOL     OW74863   4.320   2.464  13.040
57675SOL    HW174864   4.398   2.421  13.004
57675SOL    HW274865   4.283   2.399  13.100
57676SOL     OW74866   7.412   1.057   4.576
57676SOL    HW174867   7.347   1.033   4.510
57676SOL    HW274868   7.376   1.135   4.617
57677SOL     OW74869  11.371   0.901   5.207
57677SOL    HW174870  11.278   0.894   5.225
57677SOL    HW274871  11.401   0.973   5.262
57678SOL     OW74872   3.431   8.875  13.365
57678SOL    HW174873   3.479   8.798  13.334
57678SOL    HW274874   3.438   8.871  13.461
57679SOL     OW74875  10.726  12.364   0.460
57679SOL    HW174876  10.722  12.379   0.555
57679SOL    HW274877  10.770  12.279   0.451
57680SOL     OW74878   7.104  13.477   6.961
57680SOL    HW174879   7.075  13.498   6.872
57680SOL    HW274880   7.027  13.492   7.015
57681SOL     OW74881  14.388   0.859  12.003
57681SOL    HW174882  14.434   0.903  12.075
57681SOL    HW274883  14.454   0.849  11.935
57682SOL     OW74884  14.813   8.422   6.458
57682SOL    HW174885  14.719   8.439   6.445
57682SOL    HW274886  14.848   8.506   6.488
57683SOL     OW74887   7.919   5.252  14.114
57683SOL    HW174888   7.916   5.332  14.166
57683SOL    HW274889   7.832   5.246  14.074
57684SOL     OW74890   4.991   5.449   9.925
57684SOL    HW174891   5.042   5.436   9.845
57684SOL    HW274892   4.993   5.543   9.940
57685SOL     OW74893   9.149   7.454   7.408
57685SOL    HW174894   9.211   7.427   7.475
57685SOL    HW274895   9.063   7.447   7.450
57686SOL     OW74896   8.455   9.511   1.071
57686SOL    HW174897   8.431   9.603   1.062
57686SOL    HW274898   8.386   9.474   1.126
57687SOL     OW74899   4.877  10.558   7.363
57687SOL    HW174900   4.786  10.557   7.393
57687SOL    HW274901   4.872  10.570   7.268
57688SOL     OW74902   8.989   1.985   2.732
57688SOL    HW174903   8.986   2.054   2.666
57688SOL    HW274904   8.935   2.018   2.803
57689SOL     OW74905   5.702   6.150  13.822
57689SOL    HW174906   5.732   6.219  13.763
57689SOL    HW274907   5.781   6.124  13.870
57690SOL     OW74908   1.907   9.354  11.744
57690SOL    HW174909   1.917   9.305  11.825
57690SOL    HW274910   1.878   9.289  11.680
57691SOL     OW74911   1.881  14.655  13.506
57691SOL    HW174912   1.917  14.571  13.533
57691SOL    HW274913   1.848  14.693  13.587
57692SOL     OW74914   1.905   3.399   8.388
57692SOL    HW174915   1.957   3.478   8.399
57692SOL    HW274916   1.919   3.374   8.296
57693SOL     OW74917   5.493   3.811   9.123
57693SOL    HW174918   5.499   3.722   9.087
57693SOL    HW274919   5.572   3.855   9.092
57694SOL     OW74920   8.175   1.670   3.584
57694SOL    HW174921   8.132   1.724   3.650
57694SOL    HW274922   8.219   1.602   3.634
57695SOL     OW74923   6.391  10.142   1.664
57695SOL    HW174924   6.454  10.090   1.713
57695SOL    HW274925   6.327  10.078   1.632
57696SOL     OW74926  11.837   1.395  12.133
57696SOL    HW174927  11.822   1.369  12.042
57696SOL    HW274928  11.753   1.432  12.161
57697SOL     OW74929  13.654   9.761   0.350
57697SOL    HW174930  13.583   9.721   0.299
57697SOL    HW274931  13.630   9.853   0.356
57698SOL     OW74932   3.805   3.695  10.952
57698SOL    HW174933   3.753   3.768  10.917
57698SOL    HW274934   3.896   3.721  10.936
57699SOL     OW74935   5.996  14.261  14.124
57699SOL    HW174936   5.909  14.226  14.147
57699SOL    HW274937   6.057  14.196  14.159
57700SOL     OW74938   8.098  11.166   5.496
57700SOL    HW174939   8.116  11.081   5.456
57700SOL    HW274940   8.020  11.151   5.550
57701SOL     OW74941  12.999   3.605  10.411
57701SOL    HW174942  13.025   3.662  10.483
57701SOL    HW274943  13.038   3.646  10.333
57702SOL     OW74944   6.912   8.777   5.208
57702SOL    HW174945   6.843   8.735   5.260
57702SOL    HW274946   6.992   8.761   5.256
57703SOL     OW74947   0.249   4.349  11.699
57703SOL    HW174948   0.194   4.425  11.714
57703SOL    HW274949   0.234   4.292  11.775
57704SOL     OW74950  10.094   5.367   9.974
57704SOL    HW174951  10.038   5.349   9.899
57704SOL    HW274952  10.152   5.291   9.979
57705SOL     OW74953   5.322  12.482   9.896
57705SOL    HW174954   5.313  12.392   9.929
57705SOL    HW274955   5.402  12.515   9.937
57706SOL     OW74956   9.110  14.313   5.447
57706SOL    HW174957   9.179  14.376   5.426
57706SOL    HW274958   9.086  14.275   5.362
57707SOL     OW74959  11.591  13.102  13.962
57707SOL    HW174960  11.503  13.117  13.996
57707SOL    HW274961  11.633  13.046  14.028
57708SOL     OW74962   5.017   3.172   8.253
57708SOL    HW174963   5.042   3.264   8.238
57708SOL    HW274964   4.928   3.177   8.288
57709SOL     OW74965   6.942  11.807   9.494
57709SOL    HW174966   7.021  11.798   9.440
57709SOL    HW274967   6.883  11.739   9.461
57710SOL     OW74968  10.551   2.503   4.690
57710SOL    HW174969  10.615   2.564   4.655
57710SOL    HW274970  10.532   2.535   4.778
57711SOL     OW74971  12.955   2.049  11.008
57711SOL    HW174972  13.043   2.016  10.992
57711SOL    HW274973  12.959   2.141  10.982
57712SOL     OW74974   2.780  11.136   3.040
57712SOL    HW174975   2.856  11.116   2.987
57712SOL    HW274976   2.706  11.099   2.992
57713SOL     OW74977   9.864   8.189   2.551
57713SOL    HW174978   9.794   8.127   2.572
57713SOL    HW274979   9.819   8.272   2.536
57714SOL     OW74980   1.196  13.843   4.839
57714SOL    HW174981   1.163  13.918   4.789
57714SOL    HW274982   1.270  13.811   4.787
57715SOL     OW74983   0.405   0.076   8.441
57715SOL    HW174984   0.462   0.150   8.463
57715SOL    HW274985   0.426   0.056   8.349
57716SOL     OW74986  14.632   0.747   1.346
57716SOL    HW174987  14.546   0.712   1.369
57716SOL    HW274988  14.631   0.836   1.380
57717SOL     OW74989   7.175   7.566   3.649
57717SOL    HW174990   7.222   7.649   3.659
57717SOL    HW274991   7.227   7.517   3.586
57718SOL     OW74992   3.851   9.260  13.210
57718SOL    HW174993   3.798   9.295  13.282
57718SOL    HW274994   3.803   9.286  13.131
57719SOL     OW74995  13.711  12.559  12.971
57719SOL    HW174996  13.714  12.535  13.064
57719SOL    HW274997  13.638  12.620  12.963
57720SOL     OW74998   8.040  10.665   1.032
57720SOL    HW174999   8.101  10.683   1.102
57720SOL    HW275000   8.025  10.570   1.036
57721SOL     OW75001   8.437   4.011   3.618
57721SOL    HW175002   8.373   3.977   3.681
57721SOL    HW275003   8.519   4.013   3.667
57722SOL     OW75004  11.361  10.133   8.159
57722SOL    HW175005  11.281  10.080   8.166
57722SOL    HW275006  11.411  10.092   8.089
57723SOL     OW75007   8.245   7.157   1.662
57723SOL    HW175008   8.169   7.108   1.630
57723SOL    HW275009   8.276   7.204   1.584
57724SOL     OW75010  10.873   0.632   5.944
57724SOL    HW175011  10.837   0.721   5.945
57724SOL    HW275012  10.822   0.585   6.010
57725SOL     OW75013  10.437  10.976  10.256
57725SOL    HW175014  10.479  11.017  10.332
57725SOL    HW275015  10.504  10.919  10.219
57726SOL     OW75016  14.692   6.684  13.399
57726SOL    HW175017  14.772   6.631  13.393
57726SOL    HW275018  14.723   6.775  13.394
57727SOL     OW75019   1.091   1.335   8.283
57727SOL    HW175020   1.056   1.301   8.365
57727SOL    HW275021   1.089   1.430   8.293
57728SOL     OW75022   6.724   9.940   2.739
57728SOL    HW175023   6.711   9.877   2.667
57728SOL    HW275024   6.739  10.024   2.696
57729SOL     OW75025   3.620   9.777   2.813
57729SOL    HW175026   3.711   9.801   2.799
57729SOL    HW275027   3.601   9.712   2.745
57730SOL     OW75028   1.912  14.835   4.025
57730SOL    HW175029   1.981   0.018   4.007
57730SOL    HW275030   1.838  14.864   3.971
57731SOL     OW75031  14.229  13.219  10.300
57731SOL    HW175032  14.146  13.179  10.326
57731SOL    HW275033  14.274  13.237  10.383
57732SOL     OW75034   1.692   6.336  11.940
57732SOL    HW175035   1.675   6.424  11.906
57732SOL    HW275036   1.720   6.286  11.863
57733SOL     OW75037   5.255  11.314  11.341
57733SOL    HW175038   5.227  11.391  11.390
57733SOL    HW275039   5.329  11.280  11.390
57734SOL     OW75040  13.875  14.444   2.130
57734SOL    HW175041  13.848  14.496   2.206
57734SOL    HW275042  13.947  14.391   2.162
57735SOL     OW75043   2.856   6.840  12.974
57735SOL    HW175044   2.951   6.841  12.964
57735SOL    HW275045   2.836   6.916  13.028
57736SOL     OW75046   4.986   8.158  11.531
57736SOL    HW175047   5.036   8.234  11.559
57736SOL    HW275048   5.045   8.084  11.542
57737SOL     OW75049   0.189   3.781   4.385
57737SOL    HW175050   0.222   3.868   4.363
57737SOL    HW275051   0.232   3.758   4.467
57738SOL     OW75052  13.797   7.504   7.251
57738SOL    HW175053  13.714   7.511   7.204
57738SOL    HW275054  13.774   7.512   7.343
57739SOL     OW75055  11.283   2.892   6.247
57739SOL    HW175056  11.255   2.963   6.190
57739SOL    HW275057  11.330   2.935   6.318
57740SOL     OW75058   1.389  13.480   4.562
57740SOL    HW175059   1.365  13.419   4.631
57740SOL    HW275060   1.392  13.566   4.605
57741SOL     OW75061   8.382   3.211  14.166
57741SOL    HW175062   8.454   3.274  14.160
57741SOL    HW275063   8.378   3.171  14.080
57742SOL     OW75064   0.437   4.810   5.097
57742SOL    HW175065   0.341   4.813   5.104
57742SOL    HW275066   0.453   4.751   5.024
57743SOL     OW75067  11.083   2.612   7.389
57743SOL    HW175068  11.041   2.539   7.342
57743SOL    HW275069  11.060   2.597   7.481
57744SOL     OW75070   3.058   0.979   1.002
57744SOL    HW175071   3.115   0.921   0.952
57744SOL    HW275072   2.970   0.965   0.966
57745SOL     OW75073   8.924   0.046  12.032
57745SOL    HW175074   8.994   0.081  11.977
57745SOL    HW275075   8.952  14.837  12.054
57746SOL     OW75076  14.279   6.537  10.391
57746SOL    HW175077  14.273   6.606  10.325
57746SOL    HW275078  14.300   6.583  10.473
57747SOL     OW75079  14.212   6.784   0.479
57747SOL    HW175080  14.248   6.755   0.395
57747SOL    HW275081  14.165   6.865   0.459
57748SOL     OW75082   4.231  13.118  10.246
57748SOL    HW175083   4.160  13.065  10.281
57748SOL    HW275084   4.296  13.121  10.317
57749SOL     OW75085  10.925   4.722  12.963
57749SOL    HW175086  11.004   4.669  12.963
57749SOL    HW275087  10.896   4.723  12.872
57750SOL     OW75088  12.685   5.610   4.106
57750SOL    HW175089  12.720   5.698   4.116
57750SOL    HW275090  12.762   5.554   4.099
57751SOL     OW75091   4.904  12.471   6.986
57751SOL    HW175092   4.950  12.500   6.907
57751SOL    HW275093   4.848  12.544   7.009
57752SOL     OW75094   9.966   2.295  13.625
57752SOL    HW175095   9.925   2.235  13.688
57752SOL    HW275096   9.894   2.327  13.571
57753SOL     OW75097   3.078   6.251   9.205
57753SOL    HW175098   3.021   6.245   9.128
57753SOL    HW275099   3.044   6.324   9.255
57754SOL     OW75100   8.422  12.640   5.428
57754SOL    HW175101   8.362  12.697   5.476
57754SOL    HW275102   8.381  12.629   5.342
57755SOL     OW75103   4.493   4.821  11.911
57755SOL    HW175104   4.515   4.906  11.947
57755SOL    HW275105   4.556   4.761  11.951
57756SOL     OW75106   4.397   4.678   6.080
57756SOL    HW175107   4.394   4.582   6.075
57756SOL    HW275108   4.334   4.707   6.013
57757SOL     OW75109  12.952   2.165   7.720
57757SOL    HW175110  12.901   2.175   7.640
57757SOL    HW275111  12.895   2.198   7.790
57758SOL     OW75112  14.498   9.483   4.806
57758SOL    HW175113  14.428   9.533   4.848
57758SOL    HW275114  14.578   9.531   4.828
57759SOL     OW75115   0.887  11.686   8.286
57759SOL    HW175116   0.841  11.761   8.248
57759SOL    HW275117   0.852  11.610   8.239
57760SOL     OW75118   9.356   3.504  13.727
57760SOL    HW175119   9.445   3.522  13.755
57760SOL    HW275120   9.303   3.571  13.771
57761SOL     OW75121   1.160  14.473   8.628
57761SOL    HW175122   1.201  14.536   8.569
57761SOL    HW275123   1.229  14.409   8.647
57762SOL     OW75124   6.527   0.272   9.999
57762SOL    HW175125   6.590   0.342  10.016
57762SOL    HW275126   6.553   0.235   9.915
57763SOL     OW75127   7.661   3.430   2.689
57763SOL    HW175128   7.702   3.348   2.717
57763SOL    HW275129   7.735   3.484   2.659
57764SOL     OW75130   2.099  10.986  10.436
57764SOL    HW175131   2.166  10.958  10.499
57764SOL    HW275132   2.063  11.066  10.473
57765SOL     OW75133   8.953  12.147   3.011
57765SOL    HW175134   8.910  12.165   3.095
57765SOL    HW275135   9.046  12.149   3.030
57766SOL     OW75136   4.157  12.883  10.717
57766SOL    HW175137   4.191  12.800  10.752
57766SOL    HW275138   4.198  12.891  10.631
57767SOL     OW75139   7.307   5.964  10.711
57767SOL    HW175140   7.259   5.920  10.781
57767SOL    HW275141   7.240   5.988  10.648
57768SOL     OW75142   0.907   3.612   2.294
57768SOL    HW175143   0.980   3.577   2.345
57768SOL    HW275144   0.859   3.668   2.355
57769SOL     OW75145  12.932  11.199   0.962
57769SOL    HW175146  12.948  11.240   0.877
57769SOL    HW275147  12.889  11.266   1.014
57770SOL     OW75148   8.259  14.549   7.791
57770SOL    HW175149   8.334  14.512   7.837
57770SOL    HW275150   8.262  14.642   7.812
57771SOL     OW75151  14.438   5.083   2.661
57771SOL    HW175152  14.511   5.119   2.612
57771SOL    HW275153  14.370   5.149   2.656
57772SOL     OW75154  10.483  11.046   9.906
57772SOL    HW175155  10.447  10.958   9.917
57772SOL    HW275156  10.428  11.102   9.961
57773SOL     OW75157   0.756   6.020   9.243
57773SOL    HW175158   0.746   5.953   9.310
57773SOL    HW275159   0.850   6.022   9.224
57774SOL     OW75160  11.498   5.688   0.770
57774SOL    HW175161  11.470   5.631   0.841
57774SOL    HW275162  11.501   5.631   0.693
57775SOL     OW75163   3.237   2.387  12.063
57775SOL    HW175164   3.199   2.350  12.142
57775SOL    HW275165   3.287   2.463  12.094
57776SOL     OW75166   8.097   9.613  12.206
57776SOL    HW175167   8.146   9.540  12.169
57776SOL    HW275168   8.160   9.659  12.261
57777SOL     OW75169  13.780   0.903   3.848
57777SOL    HW175170  13.699   0.867   3.884
57777SOL    HW275171  13.849   0.851   3.888
57778SOL     OW75172  10.981   5.926  10.160
57778SOL    HW175173  11.048   5.904  10.224
57778SOL    HW275174  10.914   5.972  10.210
57779SOL     OW75175   0.998  12.239   9.816
57779SOL    HW175176   0.963  12.282   9.895
57779SOL    HW275177   0.981  12.300   9.745
57780SOL     OW75178   4.277  11.909  14.426
57780SOL    HW175179   4.347  11.868  14.375
57780SOL    HW275180   4.319  11.936  14.507
57781SOL     OW75181   4.611   1.898   3.167
57781SOL    HW175182   4.589   1.990   3.149
57781SOL    HW275183   4.676   1.903   3.238
57782SOL     OW75184   4.613   4.745  12.430
57782SOL    HW175185   4.530   4.733  12.382
57782SOL    HW275186   4.659   4.662  12.417
57783SOL     OW75187  14.073   0.190   1.789
57783SOL    HW175188  14.139   0.254   1.763
57783SOL    HW275189  13.991   0.223   1.753
57784SOL     OW75190   2.534  13.334   6.300
57784SOL    HW175191   2.586  13.281   6.360
57784SOL    HW275192   2.445  13.303   6.311
57785SOL     OW75193   8.986   8.463  12.353
57785SOL    HW175194   8.908   8.456  12.298
57785SOL    HW275195   9.057   8.484  12.293
57786SOL     OW75196   8.060   3.465  13.202
57786SOL    HW175197   8.145   3.442  13.164
57786SOL    HW275198   7.997   3.411  13.156
57787SOL     OW75199  13.811   8.821  13.211
57787SOL    HW175200  13.890   8.812  13.265
57787SOL    HW275201  13.764   8.739  13.225
57788SOL     OW75202  13.899  13.590  12.063
57788SOL    HW175203  13.967  13.619  12.124
57788SOL    HW275204  13.942  13.523  12.010
57789SOL     OW75205   5.936   4.353   6.948
57789SOL    HW175206   5.892   4.345   7.032
57789SOL    HW275207   5.998   4.425   6.960
57790SOL     OW75208   6.659   2.854  10.425
57790SOL    HW175209   6.711   2.934  10.414
57790SOL    HW275210   6.659   2.813  10.339
57791SOL     OW75211   2.898  13.253   9.372
57791SOL    HW175212   2.876  13.160   9.366
57791SOL    HW275213   2.993  13.255   9.384
57792SOL     OW75214   7.275   6.719  11.157
57792SOL    HW175215   7.211   6.653  11.185
57792SOL    HW275216   7.229   6.803  11.168
57793SOL     OW75217   8.720   5.560   7.370
57793SOL    HW175218   8.796   5.561   7.312
57793SOL    HW275219   8.645   5.550   7.312
57794SOL     OW75220  13.570   4.759   7.664
57794SOL    HW175221  13.590   4.666   7.665
57794SOL    HW275222  13.592   4.788   7.575
57795SOL     OW75223   4.104   0.978   7.804
57795SOL    HW175224   4.057   0.932   7.735
57795SOL    HW275225   4.186   1.005   7.764
57796SOL     OW75226  13.752   7.701  12.405
57796SOL    HW175227  13.725   7.628  12.349
57796SOL    HW275228  13.847   7.698  12.403
57797SOL     OW75229  12.674   3.487   4.939
57797SOL    HW175230  12.689   3.442   5.022
57797SOL    HW275231  12.761   3.506   4.906
57798SOL     OW75232   4.962   0.480   1.005
57798SOL    HW175233   5.002   0.536   1.071
57798SOL    HW275234   4.905   0.538   0.955
57799SOL     OW75235  13.208   6.569   7.305
57799SOL    HW175236  13.136   6.576   7.243
57799SOL    HW275237  13.286   6.562   7.251
57800SOL     OW75238   5.844  11.399   2.445
57800SOL    HW175239   5.812  11.484   2.415
57800SOL    HW275240   5.925  11.420   2.491
57801SOL     OW75241   3.894  11.613  10.666
57801SOL    HW175242   3.985  11.603  10.692
57801SOL    HW275243   3.883  11.707  10.650
57802SOL     OW75244   7.013  13.432   1.027
57802SOL    HW175245   7.089  13.452   0.973
57802SOL    HW275246   7.045  13.369   1.092
57803SOL     OW75247  12.434  11.168   7.515
57803SOL    HW175248  12.437  11.184   7.421
57803SOL    HW275249  12.526  11.170   7.543
57804SOL     OW75250   2.698   7.598   3.612
57804SOL    HW175251   2.730   7.684   3.639
57804SOL    HW275252   2.604   7.611   3.599
57805SOL     OW75253   9.266  11.570   1.568
57805SOL    HW175254   9.213  11.596   1.493
57805SOL    HW275255   9.258  11.475   1.572
57806SOL     OW75256   6.549   8.707   7.560
57806SOL    HW175257   6.617   8.761   7.600
57806SOL    HW275258   6.550   8.733   7.468
57807SOL     OW75259   3.953   2.883  10.810
57807SOL    HW175260   3.984   2.971  10.831
57807SOL    HW275261   3.881   2.867  10.872
57808SOL     OW75262   1.230   9.925   9.348
57808SOL    HW175263   1.322   9.943   9.370
57808SOL    HW275264   1.232   9.904   9.254
57809SOL     OW75265  13.370  12.341   0.659
57809SOL    HW175266  13.382  12.285   0.582
57809SOL    HW275267  13.457  12.346   0.699
57810SOL     OW75268   6.388  12.533   4.795
57810SOL    HW175269   6.330  12.609   4.809
57810SOL    HW275270   6.366  12.473   4.866
57811SOL     OW75271   8.395   2.203   7.551
57811SOL    HW175272   8.392   2.240   7.462
57811SOL    HW275273   8.457   2.260   7.598
57812SOL     OW75274   9.783   0.630   1.211
57812SOL    HW175275   9.692   0.657   1.224
57812SOL    HW275276   9.799   0.564   1.278
57813SOL     OW75277   4.796   3.451  11.507
57813SOL    HW175278   4.728   3.467  11.442
57813SOL    HW275279   4.748   3.435  11.589
57814SOL     OW75280  11.857   1.271   6.533
57814SOL    HW175281  11.841   1.280   6.439
57814SOL    HW275282  11.827   1.354   6.570
57815SOL     OW75283  10.048   1.456   3.978
57815SOL    HW175284  10.101   1.413   3.910
57815SOL    HW275285  10.084   1.423   4.061
57816SOL     OW75286  10.385   0.432   2.961
57816SOL    HW175287  10.299   0.407   2.996
57816SOL    HW275288  10.370   0.515   2.916
57817SOL     OW75289   2.626   8.234  12.547
57817SOL    HW175290   2.567   8.190  12.486
57817SOL    HW275291   2.631   8.324  12.516
57818SOL     OW75292  13.303  10.731   7.357
57818SOL    HW175293  13.308  10.653   7.413
57818SOL    HW275294  13.271  10.699   7.273
57819SOL     OW75295   3.924  12.722  13.937
57819SOL    HW175296   4.007  12.704  13.892
57819SOL    HW275297   3.858  12.677  13.883
57820SOL     OW75298   4.848  11.421   6.953
57820SOL    HW175299   4.819  11.340   6.911
57820SOL    HW275300   4.772  11.478   6.948
57821SOL     OW75301   8.924  13.234  10.755
57821SOL    HW175302   8.962  13.147  10.768
57821SOL    HW275303   8.932  13.250  10.661
57822SOL     OW75304   4.438  14.154   9.781
57822SOL    HW175305   4.511  14.186   9.834
57822SOL    HW275306   4.466  14.169   9.690
57823SOL     OW75307   2.511  12.879   7.989
57823SOL    HW175308   2.549  12.791   7.992
57823SOL    HW275309   2.551  12.919   7.912
57824SOL     OW75310   0.628   5.832  10.632
57824SOL    HW175311   0.671   5.913  10.604
57824SOL    HW275312   0.658   5.766  10.569
57825SOL     OW75313   9.988   2.808   3.961
57825SOL    HW175314   9.982   2.712   3.964
57825SOL    HW275315   9.957   2.836   4.047
57826SOL     OW75316  12.574   4.325   5.186
57826SOL    HW175317  12.623   4.383   5.127
57826SOL    HW275318  12.636   4.256   5.208
57827SOL     OW75319  11.590  11.079  10.998
57827SOL    HW175320  11.571  11.115  10.912
57827SOL    HW275321  11.504  11.063  11.037
57828SOL     OW75322  13.473   6.351  12.277
57828SOL    HW175323  13.398   6.293  12.272
57828SOL    HW275324  13.438   6.433  12.312
57829SOL     OW75325  10.579   5.182   3.212
57829SOL    HW175326  10.541   5.177   3.124
57829SOL    HW275327  10.522   5.126   3.265
57830SOL     OW75328   0.902   3.760   1.108
57830SOL    HW175329   0.961   3.739   1.036
57830SOL    HW275330   0.814   3.751   1.070
57831SOL     OW75331   3.047   6.758  10.359
57831SOL    HW175332   3.060   6.851  10.342
57831SOL    HW275333   3.088   6.714  10.284
57832SOL     OW75334  11.516   2.553   2.645
57832SOL    HW175335  11.532   2.615   2.574
57832SOL    HW275336  11.514   2.608   2.724
57833SOL     OW75337   2.064   9.444  14.063
57833SOL    HW175338   2.009   9.366  14.064
57833SOL    HW275339   2.050   9.483  13.977
57834SOL     OW75340  13.352   1.476  14.033
57834SOL    HW175341  13.358   1.426  13.952
57834SOL    HW275342  13.419   1.439  14.090
57835SOL     OW75343   6.842   1.407  14.083
57835SOL    HW175344   6.931   1.398  14.116
57835SOL    HW275345   6.786   1.385  14.157
57836SOL     OW75346   7.893   3.011  11.553
57836SOL    HW175347   7.799   3.002  11.568
57836SOL    HW275348   7.925   3.061  11.628
57837SOL     OW75349  12.279   0.901   1.609
57837SOL    HW175350  12.339   0.908   1.535
57837SOL    HW275351  12.335   0.906   1.686
57838SOL     OW75352  14.487   1.664   1.633
57838SOL    HW175353  14.507   1.571   1.648
57838SOL    HW275354  14.573   1.707   1.634
57839SOL     OW75355   9.653   9.577   9.590
57839SOL    HW175356   9.615   9.620   9.667
57839SOL    HW275357   9.688   9.494   9.624
57840SOL     OW75358  13.128   6.253  11.676
57840SOL    HW175359  13.034   6.272  11.683
57840SOL    HW275360  13.170   6.318  11.732
57841SOL     OW75361  12.864   3.258   4.688
57841SOL    HW175362  12.951   3.240   4.724
57841SOL    HW275363  12.858   3.354   4.686
57842SOL     OW75364   4.187   1.006  12.722
57842SOL    HW175365   4.136   1.037  12.797
57842SOL    HW275366   4.133   1.028  12.646
57843SOL     OW75367   6.954   5.878   2.349
57843SOL    HW175368   6.932   5.920   2.433
57843SOL    HW275369   6.871   5.872   2.303
57844SOL     OW75370   9.676  11.540  10.985
57844SOL    HW175371   9.586  11.537  10.954
57844SOL    HW275372   9.674  11.500  11.071
57845SOL     OW75373   8.801   8.100  10.932
57845SOL    HW175374   8.794   8.011  10.899
57845SOL    HW275375   8.850   8.147  10.864
57846SOL     OW75376   4.286   1.255   6.400
57846SOL    HW175377   4.297   1.280   6.309
57846SOL    HW275378   4.267   1.338   6.445
57847SOL     OW75379   3.666   6.408   2.269
57847SOL    HW175380   3.595   6.450   2.318
57847SOL    HW275381   3.729   6.478   2.253
57848SOL     OW75382   9.030   9.781  12.636
57848SOL    HW175383   8.952   9.834  12.651
57848SOL    HW275384   9.006   9.694  12.669
57849SOL     OW75385   8.978  11.886   4.867
57849SOL    HW175386   9.064  11.907   4.905
57849SOL    HW275387   8.948  11.810   4.916
57850SOL     OW75388  11.582   0.128   4.618
57850SOL    HW175389  11.560   0.056   4.677
57850SOL    HW275390  11.498   0.168   4.595
57851SOL     OW75391  12.703  12.080  14.750
57851SOL    HW175392  12.642  12.151  14.774
57851SOL    HW275393  12.757  12.068  14.828
57852SOL     OW75394   2.858  13.497   2.964
57852SOL    HW175395   2.789  13.479   2.900
57852SOL    HW275396   2.926  13.433   2.944
57853SOL     OW75397   3.693  13.704   2.624
57853SOL    HW175398   3.637  13.683   2.550
57853SOL    HW275399   3.653  13.781   2.664
57854SOL     OW75400   2.709   7.722   2.118
57854SOL    HW175401   2.633   7.667   2.100
57854SOL    HW275402   2.783   7.674   2.080
57855SOL     OW75403  12.505   1.518   8.919
57855SOL    HW175404  12.558   1.467   8.858
57855SOL    HW275405  12.427   1.466   8.934
57856SOL     OW75406   8.148  14.819   3.402
57856SOL    HW175407   8.183   0.028   3.402
57856SOL    HW275408   8.222  14.764   3.429
57857SOL     OW75409  13.759   9.741   9.077
57857SOL    HW175410  13.791   9.827   9.052
57857SOL    HW275411  13.722   9.704   8.997
57858SOL     OW75412   9.168   0.607   6.790
57858SOL    HW175413   9.079   0.572   6.793
57858SOL    HW275414   9.168   0.678   6.854
57859SOL     OW75415   0.333   3.378   8.023
57859SOL    HW175416   0.392   3.438   7.977
57859SOL    HW275417   0.351   3.292   7.984
57860SOL     OW75418   0.389  12.651  13.952
57860SOL    HW175419   0.444  12.572  13.946
57860SOL    HW275420   0.364  12.669  13.862
57861SOL     OW75421  13.239  12.801  10.905
57861SOL    HW175422  13.182  12.843  10.840
57861SOL    HW275423  13.179  12.749  10.958
57862SOL     OW75424   4.451  12.578   7.888
57862SOL    HW175425   4.448  12.515   7.816
57862SOL    HW275426   4.455  12.524   7.967
57863SOL     OW75427   6.516  11.461   8.991
57863SOL    HW175428   6.594  11.515   9.003
57863SOL    HW275429   6.520  11.433   8.899
57864SOL     OW75430   6.215   2.318  13.010
57864SOL    HW175431   6.151   2.387  13.026
57864SOL    HW275432   6.267   2.314  13.090
57865SOL     OW75433   6.814   5.329   9.432
57865SOL    HW175434   6.909   5.330   9.417
57865SOL    HW275435   6.804   5.293   9.520
57866SOL     OW75436   5.796  12.947   1.122
57866SOL    HW175437   5.783  12.889   1.047
57866SOL    HW275438   5.716  12.999   1.127
57867SOL     OW75439   8.114   1.872   9.459
57867SOL    HW175440   8.126   1.896   9.551
57867SOL    HW275441   8.034   1.821   9.458
57868SOL     OW75442  12.222   7.738   7.376
57868SOL    HW175443  12.228   7.808   7.441
57868SOL    HW275444  12.139   7.695   7.395
57869SOL     OW75445  12.526  13.054   8.993
57869SOL    HW175446  12.578  13.052   8.912
57869SOL    HW275447  12.444  13.010   8.970
57870SOL     OW75448   2.550   4.777  11.121
57870SOL    HW175449   2.631   4.793  11.073
57870SOL    HW275450   2.562   4.822  11.204
57871SOL     OW75451   2.790   4.277   2.804
57871SOL    HW175452   2.872   4.326   2.813
57871SOL    HW275453   2.722   4.344   2.811
57872SOL     OW75454   7.779   7.816   1.391
57872SOL    HW175455   7.783   7.849   1.301
57872SOL    HW275456   7.745   7.889   1.442
57873SOL     OW75457   9.886  13.280   5.343
57873SOL    HW175458   9.903  13.356   5.398
57873SOL    HW275459   9.840  13.218   5.400
57874SOL     OW75460  14.101   5.925  13.212
57874SOL    HW175461  14.042   5.988  13.170
57874SOL    HW275462  14.145   5.977  13.280
57875SOL     OW75463   3.889   8.700   4.927
57875SOL    HW175464   3.824   8.744   4.982
57875SOL    HW275465   3.973   8.722   4.966
57876SOL     OW75466  13.206   6.283  10.508
57876SOL    HW175467  13.203   6.189  10.525
57876SOL    HW275468  13.291   6.297  10.467
57877SOL     OW75469   2.854   4.893  14.008
57877SOL    HW175470   2.770   4.938  13.997
57877SOL    HW275471   2.899   4.944  14.075
57878SOL     OW75472   5.953   2.297  12.882
57878SOL    HW175473   5.972   2.259  12.796
57878SOL    HW275474   6.031   2.281  12.934
57879SOL     OW75475  10.210  13.402   7.103
57879SOL    HW175476  10.273  13.470   7.077
57879SOL    HW275477  10.213  13.339   7.031
57880SOL     OW75478  13.203   6.166  14.012
57880SOL    HW175479  13.233   6.085  14.054
57880SOL    HW275480  13.108   6.163  14.019
57881SOL     OW75481   6.634   5.323   3.634
57881SOL    HW175482   6.625   5.365   3.549
57881SOL    HW275483   6.571   5.369   3.690
57882SOL     OW75484   2.571   7.112  13.253
57882SOL    HW175485   2.507   7.041  13.263
57882SOL    HW275486   2.606   7.124  13.342
57883SOL     OW75487  10.318   3.863   5.928
57883SOL    HW175488  10.321   3.817   6.012
57883SOL    HW275489  10.286   3.951   5.949
57884SOL     OW75490   0.094   8.930   9.242
57884SOL    HW175491   0.082   8.940   9.337
57884SOL    HW275492   0.067   9.015   9.206
57885SOL     OW75493  11.603  14.588  11.755
57885SOL    HW175494  11.550  14.508  11.747
57885SOL    HW275495  11.660  14.588  11.679
57886SOL     OW75496   5.344   2.827  11.375
57886SOL    HW175497   5.429   2.783  11.367
57886SOL    HW275498   5.359   2.914  11.336
57887SOL     OW75499  11.344  10.805   6.019
57887SOL    HW175500  11.341  10.892   6.059
57887SOL    HW275501  11.256  10.791   5.985
57888SOL     OW75502  14.420   1.712   2.879
57888SOL    HW175503  14.484   1.648   2.912
57888SOL    HW275504  14.382   1.751   2.957
57889SOL     OW75505   9.127   6.081  10.660
57889SOL    HW175506   9.132   6.115  10.749
57889SOL    HW275507   9.075   6.001  10.667
57890SOL     OW75508   6.264   0.780  10.887
57890SOL    HW175509   6.322   0.762  10.962
57890SOL    HW275510   6.235   0.693  10.858
57891SOL     OW75511   4.506   5.786   2.425
57891SOL    HW175512   4.540   5.756   2.510
57891SOL    HW275513   4.411   5.788   2.437
57892SOL     OW75514  11.607   4.714  10.773
57892SOL    HW175515  11.683   4.670  10.812
57892SOL    HW275516  11.644   4.776  10.710
57893SOL     OW75517   2.974   2.155   3.927
57893SOL    HW175518   3.050   2.147   3.870
57893SOL    HW275519   2.929   2.234   3.896
57894SOL     OW75520  13.568   0.690   8.929
57894SOL    HW175521  13.622   0.738   8.991
57894SOL    HW275522  13.532   0.758   8.872
57895SOL     OW75523   2.606   1.652   8.829
57895SOL    HW175524   2.595   1.612   8.743
57895SOL    HW275525   2.670   1.596   8.873
57896SOL     OW75526   0.250  12.072  14.837
57896SOL    HW175527   0.191  12.146  14.820
57896SOL    HW275528   0.204  11.996  14.803
57897SOL     OW75529   0.649   4.965   8.475
57897SOL    HW175530   0.571   5.020   8.480
57897SOL    HW275531   0.622   4.880   8.509
57898SOL     OW75532   1.575   8.241  13.542
57898SOL    HW175533   1.565   8.149  13.567
57898SOL    HW275534   1.663   8.246  13.504
57899SOL     OW75535   4.701   3.709  11.723
57899SOL    HW175536   4.758   3.725  11.648
57899SOL    HW275537   4.760   3.676  11.791
57900SOL     OW75538   3.601   0.654  13.524
57900SOL    HW175539   3.696   0.662  13.521
57900SOL    HW275540   3.571   0.690  13.440
57901SOL     OW75541   5.583   1.346   0.783
57901SOL    HW175542   5.636   1.355   0.863
57901SOL    HW275543   5.534   1.428   0.778
57902SOL     OW75544   4.096   8.175   5.427
57902SOL    HW175545   4.032   8.114   5.462
57902SOL    HW275546   4.058   8.203   5.343
57903SOL     OW75547  12.553  12.833   5.415
57903SOL    HW175548  12.587  12.907   5.364
57903SOL    HW275549  12.588  12.756   5.370
57904SOL     OW75550   4.486   5.295   4.729
57904SOL    HW175551   4.566   5.245   4.711
57904SOL    HW275552   4.448   5.310   4.642
57905SOL     OW75553  10.674   7.022   0.329
57905SOL    HW175554  10.593   7.005   0.376
57905SOL    HW275555  10.726   6.943   0.341
57906SOL     OW75556   2.265  13.412  12.651
57906SOL    HW175557   2.176  13.441  12.631
57906SOL    HW275558   2.321  13.468  12.597
57907SOL     OW75559  14.762   8.112   6.444
57907SOL    HW175560  14.774   8.207   6.445
57907SOL    HW275561  14.845   8.078   6.410
57908SOL     OW75562  10.092  12.628   8.161
57908SOL    HW175563  10.066  12.715   8.193
57908SOL    HW275564  10.152  12.646   8.089
57909SOL     OW75565   4.233   8.008   1.723
57909SOL    HW175566   4.197   8.012   1.811
57909SOL    HW275567   4.166   8.049   1.668
57910SOL     OW75568   0.256   6.154   1.180
57910SOL    HW175569   0.233   6.063   1.162
57910SOL    HW275570   0.174   6.202   1.172
57911SOL     OW75571   8.762  14.096   6.684
57911SOL    HW175572   8.784  14.031   6.751
57911SOL    HW275573   8.731  14.045   6.609
57912SOL     OW75574   9.175   9.006   5.890
57912SOL    HW175575   9.238   8.946   5.929
57912SOL    HW275576   9.109   9.019   5.958
57913SOL     OW75577  10.918  13.820  11.858
57913SOL    HW175578  11.008  13.803  11.830
57913SOL    HW275579  10.909  13.915  11.854
57914SOL     OW75580  14.062   2.445  11.266
57914SOL    HW175581  14.073   2.537  11.287
57914SOL    HW275582  14.013   2.444  11.184
57915SOL     OW75583   5.857  11.206  10.706
57915SOL    HW175584   5.792  11.157  10.656
57915SOL    HW275585   5.876  11.151  10.782
57916SOL     OW75586   1.954   3.870   0.070
57916SOL    HW175587   1.872   3.878   0.119
57916SOL    HW275588   1.942   3.927  14.874
57917SOL     OW75589   3.149   2.102   6.557
57917SOL    HW175590   3.237   2.069   6.536
57917SOL    HW275591   3.158   2.197   6.554
57918SOL     OW75592  14.809   8.680  14.459
57918SOL    HW175593  14.862   8.661  14.382
57918SOL    HW275594  14.872   8.696  14.529
57919SOL     OW75595   8.508   1.704   7.724
57919SOL    HW175596   8.562   1.709   7.644
57919SOL    HW275597   8.462   1.787   7.727
57920SOL     OW75598  13.357   6.364   5.036
57920SOL    HW175599  13.332   6.439   4.982
57920SOL    HW275600  13.440   6.335   4.999
57921SOL     OW75601   1.748  13.277   8.276
57921SOL    HW175602   1.667  13.238   8.309
57921SOL    HW275603   1.770  13.345   8.339
57922SOL     OW75604   6.503  14.562   1.843
57922SOL    HW175605   6.461  14.495   1.896
57922SOL    HW275606   6.583  14.584   1.892
57923SOL     OW75607   6.702   7.698  12.785
57923SOL    HW175608   6.687   7.611  12.822
57923SOL    HW275609   6.646   7.756  12.836
57924SOL     OW75610  13.239   8.640   2.874
57924SOL    HW175611  13.234   8.638   2.778
57924SOL    HW275612  13.256   8.731   2.896
57925SOL     OW75613   6.279   5.887   9.059
57925SOL    HW175614   6.263   5.797   9.087
57925SOL    HW275615   6.222   5.899   8.984
57926SOL     OW75616  13.226   8.435  12.785
57926SOL    HW175617  13.142   8.460  12.822
57926SOL    HW275618  13.232   8.483  12.703
57927SOL     OW75619   0.678  13.456   5.197
57927SOL    HW175620   0.694  13.365   5.223
57927SOL    HW275621   0.691  13.506   5.277
57928SOL     OW75622   2.967   0.769  13.438
57928SOL    HW175623   3.015   0.795  13.517
57928SOL    HW275624   2.879   0.803  13.451
57929SOL     OW75625  13.313   6.835   5.649
57929SOL    HW175626  13.325   6.911   5.706
57929SOL    HW275627  13.305   6.871   5.561
57930SOL     OW75628   6.923   0.887   0.554
57930SOL    HW175629   7.012   0.862   0.579
57930SOL    HW275630   6.868   0.819   0.594
57931SOL     OW75631  14.765   3.501  11.363
57931SOL    HW175632  14.768   3.596  11.370
57931SOL    HW275633  14.702   3.485  11.292
57932SOL     OW75634   1.902   0.702   2.074
57932SOL    HW175635   1.880   0.767   2.008
57932SOL    HW275636   1.853   0.730   2.152
57933SOL     OW75637  13.810  14.674   3.473
57933SOL    HW175638  13.768  14.605   3.422
57933SOL    HW275639  13.844  14.631   3.551
57934SOL     OW75640  13.701   8.770   4.336
57934SOL    HW175641  13.669   8.684   4.307
57934SOL    HW275642  13.631   8.831   4.313
57935SOL     OW75643   8.077  12.259  13.823
57935SOL    HW175644   8.111  12.281  13.910
57935SOL    HW275645   8.084  12.163  13.819
57936SOL     OW75646   4.442   7.420   4.619
57936SOL    HW175647   4.358   7.449   4.655
57936SOL    HW275648   4.479   7.498   4.578
57937SOL     OW75649   8.984   9.276   2.126
57937SOL    HW175650   8.897   9.312   2.143
57937SOL    HW275651   8.981   9.249   2.034
57938SOL     OW75652  13.338   7.934  13.710
57938SOL    HW175653  13.249   7.935  13.743
57938SOL    HW275654  13.387   7.990  13.772
57939SOL     OW75655   3.584  12.009  11.789
57939SOL    HW175656   3.541  12.088  11.822
57939SOL    HW275657   3.678  12.030  11.792
57940SOL     OW75658  14.256   8.529   5.959
57940SOL    HW175659  14.285   8.540   6.050
57940SOL    HW275660  14.330   8.487   5.915
57941SOL     OW75661   4.663   8.809  10.582
57941SOL    HW175662   4.580   8.828  10.626
57941SOL    HW275663   4.659   8.716  10.560
57942SOL     OW75664   5.860   6.343  12.333
57942SOL    HW175665   5.943   6.388  12.317
57942SOL    HW275666   5.814   6.400  12.395
57943SOL     OW75667   5.702   4.586  13.121
57943SOL    HW175668   5.711   4.493  13.098
57943SOL    HW275669   5.768   4.600  13.189
57944SOL     OW75670   4.637  10.212   9.233
57944SOL    HW175671   4.650  10.141   9.296
57944SOL    HW275672   4.680  10.287   9.273
57945SOL     OW75673   5.676   5.305   1.619
57945SOL    HW175674   5.759   5.350   1.603
57945SOL    HW275675   5.636   5.354   1.691
57946SOL     OW75676   7.168   2.026   5.321
57946SOL    HW175677   7.142   2.092   5.385
57946SOL    HW275678   7.220   2.075   5.256
57947SOL     OW75679   9.756  12.096   1.270
57947SOL    HW175680   9.732  12.141   1.189
57947SOL    HW275681   9.777  12.167   1.331
57948SOL     OW75682   9.312  12.295   3.942
57948SOL    HW175683   9.223  12.266   3.922
57948SOL    HW275684   9.343  12.337   3.862
57949SOL     OW75685   2.315   7.917  10.640
57949SOL    HW175686   2.336   7.956  10.725
57949SOL    HW275687   2.226   7.947  10.621
57950SOL     OW75688  14.376   2.430  10.287
57950SOL    HW175689  14.288   2.395  10.302
57950SOL    HW275690  14.362   2.521  10.263
57951SOL     OW75691  13.326   9.755  12.983
57951SOL    HW175692  13.301   9.758  13.075
57951SOL    HW275693  13.294   9.670  12.952
57952SOL     OW75694  14.125   1.829   0.463
57952SOL    HW175695  14.100   1.895   0.399
57952SOL    HW275696  14.072   1.752   0.440
57953SOL     OW75697  12.263   7.400   5.939
57953SOL    HW175698  12.189   7.461   5.935
57953SOL    HW275699  12.231   7.325   5.989
57954SOL     OW75700   9.906   1.795   1.977
57954SOL    HW175701   9.928   1.871   1.924
57954SOL    HW275702   9.839   1.825   2.038
57955SOL     OW75703   4.430   2.706   6.796
57955SOL    HW175704   4.373   2.630   6.803
57955SOL    HW275705   4.403   2.763   6.868
57956SOL     OW75706  12.275   9.523   6.791
57956SOL    HW175707  12.254   9.470   6.868
57956SOL    HW275708  12.307   9.606   6.827
57957SOL     OW75709   8.099   8.284  11.598
57957SOL    HW175710   8.077   8.377  11.598
57957SOL    HW275711   8.016   8.240  11.618
57958SOL     OW75712   6.725  13.515   6.809
57958SOL    HW175713   6.798  13.464   6.773
57958SOL    HW275714   6.664  13.449   6.842
57959SOL     OW75715  10.846   5.705   3.111
57959SOL    HW175716  10.860   5.754   3.193
57959SOL    HW275717  10.774   5.646   3.131
57960SOL     OW75718  10.084  11.321   1.424
57960SOL    HW175719  10.003  11.312   1.475
57960SOL    HW275720  10.127  11.397   1.464
57961SOL     OW75721   6.200   2.849   9.500
57961SOL    HW175722   6.211   2.828   9.593
57961SOL    HW275723   6.169   2.767   9.461
57962SOL     OW75724  12.701   2.911  13.014
57962SOL    HW175725  12.783   2.960  13.026
57962SOL    HW275726  12.708   2.875  12.925
57963SOL     OW75727   5.562   5.693  10.095
57963SOL    HW175728   5.486   5.634  10.099
57963SOL    HW275729   5.550   5.742  10.013
57964SOL     OW75730  12.232   2.086   1.187
57964SOL    HW175731  12.170   2.028   1.142
57964SOL    HW275732  12.219   2.068   1.280
57965SOL     OW75733   9.707  12.345   0.305
57965SOL    HW175734   9.742  12.400   0.374
57965SOL    HW275735   9.679  12.405   0.236
57966SOL     OW75736  10.194   2.315   7.571
57966SOL    HW175737  10.197   2.344   7.479
57966SOL    HW275738  10.283   2.284   7.588
57967SOL     OW75739   0.538   5.701  13.231
57967SOL    HW175740   0.467   5.705  13.167
57967SOL    HW275741   0.594   5.629  13.201
57968SOL     OW75742   0.751   5.379   2.222
57968SOL    HW175743   0.680   5.435   2.189
57968SOL    HW275744   0.830   5.431   2.211
57969SOL     OW75745   0.186   4.371   1.961
57969SOL    HW175746   0.096   4.389   1.988
57969SOL    HW275747   0.185   4.381   1.866
57970SOL     OW75748   6.117   8.729  13.699
57970SOL    HW175749   6.103   8.824  13.702
57970SOL    HW275750   6.094   8.704  13.610
57971SOL     OW75751   3.412   3.150   5.059
57971SOL    HW175752   3.422   3.055   5.070
57971SOL    HW275753   3.377   3.180   5.143
57972SOL     OW75754   8.172   3.059   5.776
57972SOL    HW175755   8.107   3.113   5.822
57972SOL    HW275756   8.143   3.059   5.684
57973SOL     OW75757   4.855   6.527  12.592
57973SOL    HW175758   4.761   6.523  12.603
57973SOL    HW275759   4.874   6.620  12.579
57974SOL     OW75760   8.841  11.246   1.972
57974SOL    HW175761   8.775  11.275   2.036
57974SOL    HW275762   8.826  11.301   1.896
57975SOL     OW75763   3.715   8.278   1.015
57975SOL    HW175764   3.645   8.232   1.060
57975SOL    HW275765   3.696   8.371   1.029
57976SOL     OW75766   4.100   0.377   1.104
57976SOL    HW175767   4.054   0.458   1.126
57976SOL    HW275768   4.053   0.308   1.151
57977SOL     OW75769   0.035   7.217  14.833
57977SOL    HW175770   0.016   7.123  14.840
57977SOL    HW275771  14.838   7.254  14.789
57978SOL     OW75772  14.867   6.938   0.043
57978SOL    HW175773   0.024   6.863  14.876
57978SOL    HW275774   0.026   6.934   0.131
57979SOL     OW75775   2.345  10.363   1.138
57979SOL    HW175776   2.286  10.290   1.159
57979SOL    HW275777   2.287  10.439   1.132
57980SOL     OW75778   9.631  13.464   6.374
57980SOL    HW175779   9.677  13.383   6.351
57980SOL    HW275780   9.662  13.485   6.463
57981SOL     OW75781   3.663  11.746   3.713
57981SOL    HW175782   3.752  11.720   3.689
57981SOL    HW275783   3.607  11.695   3.655
57982SOL     OW75784   0.239   0.265  12.668
57982SOL    HW175785   0.267   0.180  12.703
57982SOL    HW275786   0.164   0.289  12.723
57983SOL     OW75787   3.630  11.073  13.909
57983SOL    HW175788   3.639  11.108  13.998
57983SOL    HW275789   3.539  11.042  13.905
57984SOL     OW75790   6.027   4.288  10.046
57984SOL    HW175791   5.937   4.290  10.014
57984SOL    HW275792   6.032   4.211  10.102
57985SOL     OW75793  14.161   2.586  10.664
57985SOL    HW175794  14.202   2.499  10.662
57985SOL    HW275795  14.125   2.597  10.576
57986SOL     OW75796   8.137   2.667   8.937
57986SOL    HW175797   8.167   2.583   8.902
57986SOL    HW275798   8.200   2.731   8.902
57987SOL     OW75799   9.861   9.414  13.280
57987SOL    HW175800   9.799   9.460  13.223
57987SOL    HW275801   9.820   9.419  13.367
57988SOL     OW75802   8.478  14.580  10.938
57988SOL    HW175803   8.567  14.610  10.953
57988SOL    HW275804   8.431  14.659  10.910
57989SOL     OW75805   7.532   1.025   1.664
57989SOL    HW175806   7.609   1.030   1.608
57989SOL    HW275807   7.486   0.946   1.637
57990SOL     OW75808   3.446  13.742   4.846
57990SOL    HW175809   3.528  13.767   4.889
57990SOL    HW275810   3.467  13.744   4.752
57991SOL     OW75811   0.659  14.478   4.847
57991SOL    HW175812   0.659  14.412   4.777
57991SOL    HW275813   0.618  14.555   4.808
57992SOL     OW75814   7.572   5.065   5.605
57992SOL    HW175815   7.650   5.030   5.647
57992SOL    HW275816   7.515   4.989   5.591
57993SOL     OW75817   6.915   5.740   9.392
57993SOL    HW175818   6.990   5.793   9.417
57993SOL    HW275819   6.913   5.744   9.297
57994SOL     OW75820   1.240   6.015   5.826
57994SOL    HW175821   1.270   5.925   5.837
57994SOL    HW275822   1.303   6.067   5.876
57995SOL     OW75823   3.078  13.085  10.450
57995SOL    HW175824   3.139  13.042  10.509
57995SOL    HW275825   3.002  13.027  10.447
57996SOL     OW75826   1.696   5.355   2.704
57996SOL    HW175827   1.754   5.406   2.761
57996SOL    HW275828   1.740   5.271   2.693
57997SOL     OW75829   3.039  12.648   5.272
57997SOL    HW175830   3.068  12.684   5.356
57997SOL    HW275831   2.986  12.718   5.234
57998SOL     OW75832  12.448   0.124   2.076
57998SOL    HW175833  12.499   0.148   2.153
57998SOL    HW275834  12.475   0.186   2.008
57999SOL     OW75835   4.230   7.084  11.637
57999SOL    HW175836   4.256   7.148  11.571
57999SOL    HW275837   4.152   7.042  11.599
58000SOL     OW75838   6.249   0.965   5.500
58000SOL    HW175839   6.295   0.927   5.575
58000SOL    HW275840   6.285   1.054   5.493
58001SOL     OW75841   5.942   7.387   7.451
58001SOL    HW175842   5.858   7.345   7.471
58001SOL    HW275843   5.927   7.433   7.369
58002SOL     OW75844   1.210   4.967   3.795
58002SOL    HW175845   1.303   4.975   3.776
58002SOL    HW275846   1.198   5.012   3.878
58003SOL     OW75847  10.975   4.706   6.760
58003SOL    HW175848  10.882   4.696   6.783
58003SOL    HW275849  10.987   4.651   6.683
58004SOL     OW75850   0.280   3.725   0.077
58004SOL    HW175851   0.184   3.730   0.073
58004SOL    HW275852   0.297   3.653   0.138
58005SOL     OW75853   2.151   6.202  13.274
58005SOL    HW175854   2.060   6.231  13.272
58005SOL    HW275855   2.174   6.202  13.367
58006SOL     OW75856  11.057   2.388  10.745
58006SOL    HW175857  11.095   2.329  10.679
58006SOL    HW275858  11.066   2.476  10.706
58007SOL     OW75859   3.610   0.973   9.722
58007SOL    HW175860   3.596   0.995   9.814
58007SOL    HW275861   3.570   0.887   9.712
58008SOL     OW75862   1.943  13.970   1.732
58008SOL    HW175863   1.996  13.980   1.811
58008SOL    HW275864   1.950  14.055   1.688
58009SOL     OW75865   5.156   7.609   2.710
58009SOL    HW175866   5.227   7.636   2.652
58009SOL    HW275867   5.143   7.685   2.768
58010SOL     OW75868  13.890   4.299   6.651
58010SOL    HW175869  13.853   4.217   6.618
58010SOL    HW275870  13.954   4.325   6.585
58011SOL     OW75871   9.685   7.907   3.277
58011SOL    HW175872   9.780   7.913   3.267
58011SOL    HW275873   9.661   7.984   3.328
58012SOL     OW75874   5.976   2.039   5.090
58012SOL    HW175875   5.989   2.013   4.999
58012SOL    HW275876   6.043   2.105   5.107
58013SOL     OW75877  14.050  11.794  13.778
58013SOL    HW175878  13.994  11.761  13.708
58013SOL    HW275879  13.993  11.849  13.831
58014SOL     OW75880   8.400   4.505   7.663
58014SOL    HW175881   8.410   4.566   7.737
58014SOL    HW275882   8.427   4.420   7.699
58015SOL     OW75883   1.102   8.415  14.316
58015SOL    HW175884   1.014   8.380  14.318
58015SOL    HW275885   1.103   8.481  14.386
58016SOL     OW75886   7.110  11.336   4.204
58016SOL    HW175887   7.176  11.396   4.168
58016SOL    HW275888   7.066  11.300   4.127
58017SOL     OW75889   1.800  12.173   2.992
58017SOL    HW175890   1.785  12.233   3.066
58017SOL    HW275891   1.867  12.215   2.940
58018SOL     OW75892   6.845  12.817   9.199
58018SOL    HW175893   6.891  12.754   9.256
58018SOL    HW275894   6.905  12.830   9.125
58019SOL     OW75895  13.458   7.703   6.638
58019SOL    HW175896  13.380   7.754   6.619
58019SOL    HW275897  13.531   7.756   6.606
58020SOL     OW75898   1.172   1.044   5.443
58020SOL    HW175899   1.099   0.986   5.462
58020SOL    HW275900   1.202   1.018   5.356
58021SOL     OW75901   1.243  11.659   7.346
58021SOL    HW175902   1.248  11.755   7.349
58021SOL    HW275903   1.192  11.635   7.423
58022SOL     OW75904   1.100   1.264  14.184
58022SOL    HW175905   1.050   1.204  14.239
58022SOL    HW275906   1.163   1.304  14.243
58023SOL     OW75907  13.605   2.285  12.113
58023SOL    HW175908  13.582   2.331  12.032
58023SOL    HW275909  13.654   2.208  12.083
58024SOL     OW75910   9.923   5.532  13.777
58024SOL    HW175911   9.914   5.491  13.691
58024SOL    HW275912   9.879   5.471  13.837
58025SOL     OW75913   5.835   1.537   0.592
58025SOL    HW175914   5.888   1.600   0.542
58025SOL    HW275915   5.882   1.529   0.676
58026SOL     OW75916   1.193   7.860   3.140
58026SOL    HW175917   1.194   7.831   3.048
58026SOL    HW275918   1.283   7.847   3.170
58027SOL     OW75919   7.598   4.272   5.860
58027SOL    HW175920   7.658   4.330   5.814
58027SOL    HW275921   7.560   4.217   5.791
58028SOL     OW75922   8.338  10.854   2.768
58028SOL    HW175923   8.407  10.833   2.705
58028SOL    HW275924   8.351  10.792   2.840
58029SOL     OW75925   1.661   6.509   9.601
58029SOL    HW175926   1.640   6.602   9.591
58029SOL    HW275927   1.713   6.505   9.681
58030SOL     OW75928  11.067  12.433   5.746
58030SOL    HW175929  11.158  12.461   5.756
58030SOL    HW275930  11.039  12.413   5.836
58031SOL     OW75931  13.764   3.454   2.002
58031SOL    HW175932  13.810   3.385   1.954
58031SOL    HW275933  13.685   3.470   1.950
58032SOL     OW75934   1.918   2.558  14.659
58032SOL    HW175935   1.995   2.502  14.651
58032SOL    HW275936   1.849   2.509  14.615
58033SOL     OW75937   3.936   7.220   8.338
58033SOL    HW175938   3.886   7.201   8.417
58033SOL    HW275939   3.971   7.136   8.310
58034SOL     OW75940   6.256   0.050   0.280
58034SOL    HW175941   6.184  14.868   0.290
58034SOL    HW275942   6.334  14.874   0.275
58035SOL     OW75943   5.524  13.138   2.311
58035SOL    HW175944   5.540  13.048   2.339
58035SOL    HW275945   5.605  13.184   2.331
58036SOL     OW75946   3.119   4.932   9.193
58036SOL    HW175947   3.065   4.894   9.263
58036SOL    HW275948   3.060   4.993   9.148
58037SOL     OW75949   9.012   7.349   6.952
58037SOL    HW175950   8.918   7.345   6.968
58037SOL    HW275951   9.022   7.421   6.889
58038SOL     OW75952  12.791  11.267   6.444
58038SOL    HW175953  12.769  11.175   6.456
58038SOL    HW275954  12.887  11.271   6.451
58039SOL     OW75955   8.866   8.587   4.710
58039SOL    HW175956   8.941   8.540   4.674
58039SOL    HW275957   8.895   8.617   4.796
58040SOL     OW75958  13.221  10.471   2.113
58040SOL    HW175959  13.219  10.546   2.173
58040SOL    HW275960  13.303  10.426   2.134
58041SOL     OW75961   1.465  11.994  14.473
58041SOL    HW175962   1.522  12.004  14.397
58041SOL    HW275963   1.478  12.073  14.525
58042SOL     OW75964   5.568  13.537   7.073
58042SOL    HW175965   5.636  13.487   7.119
58042SOL    HW275966   5.529  13.592   7.141
58043SOL     OW75967   0.987   8.414   9.579
58043SOL    HW175968   0.994   8.427   9.674
58043SOL    HW275969   0.896   8.388   9.565
58044SOL     OW75970  12.850   8.222  11.750
58044SOL    HW175971  12.802   8.302  11.769
58044SOL    HW275972  12.816   8.157  11.812
58045SOL     OW75973  12.445   9.392   3.198
58045SOL    HW175974  12.477   9.394   3.288
58045SOL    HW275975  12.350   9.404   3.206
58046SOL     OW75976   6.113   5.415   7.935
58046SOL    HW175977   6.150   5.352   7.873
58046SOL    HW275978   6.153   5.499   7.910
58047SOL     OW75979  12.507  13.792  12.247
58047SOL    HW175980  12.506  13.885  12.223
58047SOL    HW275981  12.589  13.781  12.296
58048SOL     OW75982  14.343  13.204   6.618
58048SOL    HW175983  14.300  13.118   6.610
58048SOL    HW275984  14.275  13.267   6.595
58049SOL     OW75985   5.078   4.484  13.914
58049SOL    HW175986   5.044   4.503  13.826
58049SOL    HW275987   5.077   4.389  13.920
58050SOL     OW75988   9.332   3.238   3.332
58050SOL    HW175989   9.411   3.279   3.297
58050SOL    HW275990   9.330   3.264   3.424
58051SOL     OW75991   3.808  10.517   5.581
58051SOL    HW175992   3.733  10.481   5.533
58051SOL    HW275993   3.884  10.496   5.526
58052SOL     OW75994   8.569   8.317  12.904
58052SOL    HW175995   8.613   8.376  12.843
58052SOL    HW275996   8.588   8.229  12.872
58053SOL     OW75997  14.372   3.312  13.485
58053SOL    HW175998  14.428   3.258  13.541
58053SOL    HW275999  14.305   3.346  13.544
58054SOL     OW76000   7.717   9.513   4.310
58054SOL    HW176001   7.646   9.515   4.375
58054SOL    HW276002   7.744   9.605   4.302
58055SOL     OW76003   1.402   4.407   2.147
58055SOL    HW176004   1.357   4.484   2.113
58055SOL    HW276005   1.335   4.360   2.196
58056SOL     OW76006   0.877   7.033   8.092
58056SOL    HW176007   0.797   7.026   8.144
58056SOL    HW276008   0.945   6.993   8.146
58057SOL     OW76009   1.827   0.904  12.800
58057SOL    HW176010   1.867   0.946  12.876
58057SOL    HW276011   1.828   0.972  12.732
58058SOL     OW76012   2.982   5.517   1.961
58058SOL    HW176013   3.068   5.477   1.964
58058SOL    HW276014   2.971   5.557   2.048
58059SOL     OW76015   5.835  10.178  11.145
58059SOL    HW176016   5.877  10.092  11.151
58059SOL    HW276017   5.787  10.187  11.228
58060SOL     OW76018   9.422   8.463   7.525
58060SOL    HW176019   9.410   8.475   7.620
58060SOL    HW276020   9.360   8.524   7.485
58061SOL     OW76021   7.275  12.685  14.248
58061SOL    HW176022   7.219  12.753  14.285
58061SOL    HW276023   7.290  12.711  14.158
58062SOL     OW76024   8.518   2.665   2.204
58062SOL    HW176025   8.540   2.753   2.173
58062SOL    HW276026   8.602   2.625   2.227
58063SOL     OW76027   1.070   6.206  10.638
58063SOL    HW176028   0.978   6.234  10.636
58063SOL    HW276029   1.118   6.283  10.670
58064SOL     OW76030   2.351   0.677   6.026
58064SOL    HW176031   2.390   0.728   5.956
58064SOL    HW276032   2.370   0.727   6.106
58065SOL     OW76033   2.394   4.233  11.551
58065SOL    HW176034   2.353   4.224  11.465
58065SOL    HW276035   2.455   4.159  11.555
58066SOL     OW76036   5.639   9.892   7.228
58066SOL    HW176037   5.680   9.809   7.203
58066SOL    HW276038   5.695   9.959   7.189
58067SOL     OW76039   2.186   7.575   9.411
58067SOL    HW176040   2.194   7.549   9.503
58067SOL    HW276041   2.276   7.594   9.384
58068SOL     OW76042   2.761   2.500   6.858
58068SOL    HW176043   2.685   2.454   6.893
58068SOL    HW276044   2.832   2.436   6.862
58069SOL     OW76045   5.747   1.871   5.333
58069SOL    HW176046   5.752   1.814   5.410
58069SOL    HW276047   5.654   1.889   5.323
58070SOL     OW76048   9.189   8.130   3.143
58070SOL    HW176049   9.101   8.154   3.114
58070SOL    HW276050   9.211   8.195   3.209
58071SOL     OW76051  13.039   2.113   2.570
58071SOL    HW176052  13.036   2.105   2.474
58071SOL    HW276053  13.120   2.069   2.594
58072SOL     OW76054   9.706  11.820   8.951
58072SOL    HW176055   9.750  11.741   8.985
58072SOL    HW276056   9.627  11.828   9.006
58073SOL     OW76057  12.413   9.074  14.167
58073SOL    HW176058  12.478   9.132  14.206
58073SOL    HW276059  12.447   8.985  14.183
58074SOL     OW76060   6.652  14.146   7.556
58074SOL    HW176061   6.673  14.223   7.610
58074SOL    HW276062   6.668  14.175   7.466
58075SOL     OW76063   1.341   7.985   3.775
58075SOL    HW176064   1.247   7.979   3.791
58075SOL    HW276065   1.356   7.929   3.700
58076SOL     OW76066  10.217   3.585   3.955
58076SOL    HW176067  10.256   3.498   3.953
58076SOL    HW276068  10.215   3.608   4.048
58077SOL     OW76069   9.936   7.248   1.741
58077SOL    HW176070   9.919   7.287   1.827
58077SOL    HW276071   9.960   7.323   1.686
58078SOL     OW76072   5.511  14.661   5.316
58078SOL    HW176073   5.545  14.748   5.339
58078SOL    HW276074   5.438  14.647   5.377
58079SOL     OW76075   1.379  12.904   7.630
58079SOL    HW176076   1.377  12.926   7.536
58079SOL    HW276077   1.419  12.981   7.671
58080SOL     OW76078  11.000   8.272   0.461
58080SOL    HW176079  11.008   8.354   0.510
58080SOL    HW276080  10.948   8.215   0.518
58081SOL     OW76081  13.309   8.058   7.952
58081SOL    HW176082  13.286   8.116   8.024
58081SOL    HW276083  13.375   7.999   7.990
58082SOL     OW76084   0.038   0.999   7.989
58082SOL    HW176085   0.102   1.066   7.965
58082SOL    HW276086  14.839   1.048   8.011
58083SOL     OW76087  13.399   9.569   6.791
58083SOL    HW176088  13.370   9.635   6.729
58083SOL    HW276089  13.477   9.606   6.831
58084SOL     OW76090   6.344  10.619   6.610
58084SOL    HW176091   6.401  10.568   6.668
58084SOL    HW276092   6.393  10.626   6.528
58085SOL     OW76093  14.824   7.103   2.916
58085SOL    HW176094  14.797   7.053   2.994
58085SOL    HW276095  14.743   7.146   2.888
58086SOL     OW76096   2.363  13.349  10.845
58086SOL    HW176097   2.355  13.314  10.756
58086SOL    HW276098   2.315  13.432  10.842
58087SOL     OW76099   3.228  13.947   7.177
58087SOL    HW176100   3.160  13.944   7.109
58087SOL    HW276101   3.226  13.860   7.215
58088SOL     OW76102   6.575  11.787   9.372
58088SOL    HW176103   6.566  11.821   9.283
58088SOL    HW276104   6.657  11.739   9.371
58089SOL     OW76105   7.454   5.232  11.862
58089SOL    HW176106   7.403   5.313  11.858
58089SOL    HW276107   7.392   5.167  11.897
58090SOL     OW76108  11.189   6.745  13.158
58090SOL    HW176109  11.142   6.728  13.076
58090SOL    HW276110  11.225   6.833  13.146
58091SOL     OW76111  12.515   9.200  12.840
58091SOL    HW176112  12.603   9.226  12.868
58091SOL    HW276113  12.479   9.152  12.915
58092SOL     OW76114   9.034   0.238   2.605
58092SOL    HW176115   9.084   0.267   2.682
58092SOL    HW276116   8.946   0.272   2.619
58093SOL     OW76117   9.117   4.749   6.975
58093SOL    HW176118   9.203   4.777   6.944
58093SOL    HW276119   9.131   4.661   7.010
58094SOL     OW76120   6.553  13.326   3.123
58094SOL    HW176121   6.545  13.309   3.217
58094SOL    HW276122   6.635  13.374   3.114
58095SOL     OW76123  13.915  10.780  13.689
58095SOL    HW176124  13.825  10.804  13.711
58095SOL    HW276125  13.922  10.687  13.713
58096SOL     OW76126   3.230   0.930   7.482
58096SOL    HW176127   3.168   0.886   7.424
58096SOL    HW276128   3.238   1.018   7.446
58097SOL     OW76129   7.174   7.571   5.707
58097SOL    HW176130   7.114   7.646   5.709
58097SOL    HW276131   7.261   7.611   5.698
58098SOL     OW76132  11.328   0.093   0.796
58098SOL    HW176133  11.314   0.182   0.764
58098SOL    HW276134  11.304   0.037   0.722
58099SOL     OW76135   5.262  13.223  10.467
58099SOL    HW176136   5.226  13.145  10.510
58099SOL    HW276137   5.352  13.228  10.498
58100SOL     OW76138   9.327  11.497   2.264
58100SOL    HW176139   9.379  11.537   2.194
58100SOL    HW276140   9.367  11.527   2.345
58101SOL     OW76141  12.867   2.227  13.996
58101SOL    HW176142  12.816   2.190  14.068
58101SOL    HW276143  12.872   2.321  14.016
58102SOL     OW76144   6.215   3.629  10.523
58102SOL    HW176145   6.168   3.628  10.439
58102SOL    HW276146   6.177   3.555  10.572
58103SOL     OW76147   6.780   6.870   3.866
58103SOL    HW176148   6.709   6.897   3.809
58103SOL    HW276149   6.775   6.774   3.868
58104SOL     OW76150   5.938  11.167   6.518
58104SOL    HW176151   5.989  11.097   6.559
58104SOL    HW276152   5.879  11.197   6.587
58105SOL     OW76153   9.780  14.226   9.013
58105SOL    HW176154   9.848  14.210   8.947
58105SOL    HW276155   9.710  14.166   8.990
58106SOL     OW76156  10.945  14.151  12.965
58106SOL    HW176157  10.956  14.163  13.059
58106SOL    HW276158  10.931  14.239  12.931
58107SOL     OW76159   5.786   1.450   7.257
58107SOL    HW176160   5.717   1.386   7.238
58107SOL    HW276161   5.853   1.432   7.191
58108SOL     OW76162   1.420  11.492   1.222
58108SOL    HW176163   1.488  11.443   1.176
58108SOL    HW276164   1.413  11.448   1.307
58109SOL     OW76165  10.115   8.930  12.898
58109SOL    HW176166  10.198   8.883  12.886
58109SOL    HW276167  10.132   9.017  12.862
58110SOL     OW76168  11.089   2.752  14.277
58110SOL    HW176169  11.120   2.832  14.235
58110SOL    HW276170  11.168   2.700  14.290
58111SOL     OW76171   9.038  13.183   9.658
58111SOL    HW176172   8.982  13.149   9.728
58111SOL    HW276173   9.111  13.225   9.704
58112SOL     OW76174  12.968   9.666   1.992
58112SOL    HW176175  12.973   9.574   1.968
58112SOL    HW276176  12.898   9.670   2.058
58113SOL     OW76177   3.390   4.114   5.859
58113SOL    HW176178   3.334   4.092   5.933
58113SOL    HW276179   3.372   4.206   5.842
58114SOL     OW76180   8.996  10.162  11.092
58114SOL    HW176181   9.005  10.230  11.025
58114SOL    HW276182   9.061  10.186  11.159
58115SOL     OW76183  10.442   7.522  11.684
58115SOL    HW176184  10.454   7.543  11.591
58115SOL    HW276185  10.395   7.597  11.720
58116SOL     OW76186   2.565  11.202   7.823
58116SOL    HW176187   2.511  11.134   7.782
58116SOL    HW276188   2.519  11.284   7.803
58117SOL     OW76189   8.136  11.192   8.462
58117SOL    HW176190   8.109  11.125   8.525
58117SOL    HW276191   8.068  11.191   8.395
58118SOL     OW76192   3.019  13.187   3.903
58118SOL    HW176193   3.096  13.237   3.931
58118SOL    HW276194   3.054  13.103   3.873
58119SOL     OW76195   4.340   0.848   7.106
58119SOL    HW176196   4.415   0.895   7.140
58119SOL    HW276197   4.342   0.862   7.011
58120SOL     OW76198   2.454  11.741   7.522
58120SOL    HW176199   2.448  11.792   7.603
58120SOL    HW276200   2.367  11.705   7.509
58121SOL     OW76201   6.698   8.141  14.841
58121SOL    HW176202   6.677   8.174   0.048
58121SOL    HW276203   6.630   8.178  14.784
58122SOL     OW76204   3.033   2.804   6.810
58122SOL    HW176205   3.016   2.752   6.889
58122SOL    HW276206   3.105   2.862   6.835
58123SOL     OW76207   4.205   2.849   5.004
58123SOL    HW176208   4.135   2.897   4.960
58123SOL    HW276209   4.286   2.884   4.965
58124SOL     OW76210   4.331   8.153   6.398
58124SOL    HW176211   4.283   8.235   6.410
58124SOL    HW276212   4.300   8.119   6.314
58125SOL     OW76213   3.920   1.475   8.765
58125SOL    HW176214   3.909   1.381   8.754
58125SOL    HW276215   3.831   1.510   8.772
58126SOL     OW76216   0.516   6.109   8.033
58126SOL    HW176217   0.513   6.031   7.977
58126SOL    HW276218   0.567   6.081   8.110
58127SOL     OW76219  12.875  12.970   9.188
58127SOL    HW176220  12.932  12.927   9.251
58127SOL    HW276221  12.877  13.063   9.212
58128SOL     OW76222   6.961  10.421  11.620
58128SOL    HW176223   6.909  10.445  11.544
58128SOL    HW276224   7.046  10.461  11.605
58129SOL     OW76225  11.883  11.548   2.522
58129SOL    HW176226  11.963  11.582   2.562
58129SOL    HW276227  11.812  11.600   2.561
58130SOL     OW76228   7.930   5.390   4.014
58130SOL    HW176229   7.922   5.367   3.922
58130SOL    HW276230   7.887   5.475   4.021
58131SOL     OW76231   0.063  12.402   0.458
58131SOL    HW176232   0.149  12.438   0.437
58131SOL    HW276233   0.050  12.423   0.551
58132SOL     OW76234   5.910   2.426  11.992
58132SOL    HW176235   5.993   2.432  11.945
58132SOL    HW276236   5.889   2.332  11.992
58133SOL     OW76237   8.972  10.554   3.963
58133SOL    HW176238   8.954  10.545   4.056
58133SOL    HW276239   9.061  10.522   3.952
58134SOL     OW76240  12.030   0.064   0.835
58134SOL    HW176241  11.945   0.097   0.805
58134SOL    HW276242  12.007   0.002   0.905
58135SOL     OW76243  12.948   2.502  10.027
58135SOL    HW176244  12.853   2.502  10.036
58135SOL    HW276245  12.971   2.593  10.010
58136SOL     OW76246  11.741   8.130   0.363
58136SOL    HW176247  11.720   8.082   0.283
58136SOL    HW276248  11.688   8.088   0.431
58137SOL     OW76249   0.289   7.521   1.696
58137SOL    HW176250   0.230   7.596   1.683
58137SOL    HW276251   0.364   7.540   1.640
58138SOL     OW76252   4.895  13.764   6.132
58138SOL    HW176253   4.950  13.703   6.084
58138SOL    HW276254   4.834  13.709   6.180
58139SOL     OW76255   0.157   0.781  14.181
58139SOL    HW176256   0.233   0.799  14.125
58139SOL    HW276257   0.126   0.867  14.207
58140SOL     OW76258   1.618   3.267   5.461
58140SOL    HW176259   1.639   3.245   5.370
58140SOL    HW276260   1.523   3.280   5.461
58141SOL     OW76261  10.251   7.289  14.131
58141SOL    HW176262  10.282   7.353  14.196
58141SOL    HW276263  10.203   7.224  14.183
58142SOL     OW76264   2.983   3.743   9.017
58142SOL    HW176265   2.959   3.801   9.090
58142SOL    HW276266   3.012   3.663   9.060
58143SOL     OW76267  13.541  11.178  10.805
58143SOL    HW176268  13.535  11.202  10.713
58143SOL    HW276269  13.630  11.201  10.830
58144SOL     OW76270   4.591   5.749   0.027
58144SOL    HW176271   4.599   5.696  14.827
58144SOL    HW276272   4.558   5.687   0.093
58145SOL     OW76273  12.537   7.148  13.395
58145SOL    HW176274  12.584   7.065  13.380
58145SOL    HW276275  12.603   7.215  13.380
58146SOL     OW76276   2.882   1.187  14.208
58146SOL    HW176277   2.955   1.182  14.269
58146SOL    HW276278   2.915   1.148  14.128
58147SOL     OW76279   7.627   0.241   8.635
58147SOL    HW176280   7.585   0.155   8.634
58147SOL    HW276281   7.560   0.301   8.602
58148SOL     OW76282   6.349   7.418  14.774
58148SOL    HW176283   6.353   7.461  14.688
58148SOL    HW276284   6.257   7.421  14.798
58149SOL     OW76285   3.188  12.551   0.207
58149SOL    HW176286   3.154  12.638   0.185
58149SOL    HW276287   3.252  12.532   0.138
58150SOL     OW76288   6.318   8.739   4.223
58150SOL    HW176289   6.302   8.831   4.246
58150SOL    HW276290   6.332   8.695   4.307
58151SOL     OW76291  10.714   2.730  10.862
58151SOL    HW176292  10.808   2.723  10.847
58151SOL    HW276293  10.701   2.700  10.951
58152SOL     OW76294  14.071  13.632  14.139
58152SOL    HW176295  14.103  13.550  14.176
58152SOL    HW276296  13.975  13.622  14.139
58153SOL     OW76297   4.657   4.377   8.389
58153SOL    HW176298   4.657   4.410   8.299
58153SOL    HW276299   4.742   4.405   8.424
58154SOL     OW76300   3.311   7.893  13.841
58154SOL    HW176301   3.294   7.840  13.919
58154SOL    HW276302   3.380   7.954  13.868
58155SOL     OW76303   1.904  14.464  12.299
58155SOL    HW176304   1.983  14.448  12.350
58155SOL    HW276305   1.861  14.537  12.343
58156SOL     OW76306   9.892   1.863   7.649
58156SOL    HW176307   9.948   1.931   7.685
58156SOL    HW276308   9.927   1.847   7.561
58157SOL     OW76309  11.581  13.035   6.723
58157SOL    HW176310  11.563  13.113   6.670
58157SOL    HW276311  11.655  12.993   6.679
58158SOL     OW76312   3.921   7.492   0.547
58158SOL    HW176313   3.992   7.509   0.610
58158SOL    HW276314   3.964   7.443   0.477
58159SOL     OW76315   1.226   2.303   0.101
58159SOL    HW176316   1.245   2.382   0.153
58159SOL    HW276317   1.162   2.255   0.154
58160SOL     OW76318   5.913   0.095  13.886
58160SOL    HW176319   5.892   0.131  13.972
58160SOL    HW276320   5.963   0.016  13.904
58161SOL     OW76321   2.058   6.362   1.686
58161SOL    HW176322   2.017   6.341   1.770
58161SOL    HW276323   2.059   6.458   1.684
58162SOL     OW76324   4.436   0.660   5.195
58162SOL    HW176325   4.453   0.664   5.290
58162SOL    HW276326   4.476   0.578   5.167
58163SOL     OW76327  12.795   8.495   3.246
58163SOL    HW176328  12.854   8.438   3.295
58163SOL    HW276329  12.742   8.538   3.314
58164SOL     OW76330   0.018   3.922   3.670
58164SOL    HW176331   0.083   3.957   3.731
58164SOL    HW276332  14.824   3.895   3.726
58165SOL     OW76333  10.138   9.128   9.021
58165SOL    HW176334  10.043   9.137   9.014
58165SOL    HW276335  10.151   9.045   9.068
58166SOL     OW76336   2.267   5.256   5.448
58166SOL    HW176337   2.253   5.328   5.508
58166SOL    HW276338   2.182   5.243   5.405
58167SOL     OW76339   0.845   7.162  13.471
58167SOL    HW176340   0.903   7.132  13.400
58167SOL    HW276341   0.759   7.169  13.429
58168SOL     OW76342  11.666   6.357   4.193
58168SOL    HW176343  11.656   6.417   4.120
58168SOL    HW276344  11.576   6.339   4.221
58169SOL     OW76345   0.640   5.723  12.513
58169SOL    HW176346   0.671   5.749  12.427
58169SOL    HW276347   0.719   5.721  12.568
58170SOL     OW76348   2.231   1.508   9.697
58170SOL    HW176349   2.240   1.458   9.778
58170SOL    HW276350   2.273   1.455   9.630
58171SOL     OW76351   7.328   4.570   8.624
58171SOL    HW176352   7.248   4.517   8.633
58171SOL    HW276353   7.355   4.557   8.533
58172SOL     OW76354   8.190   6.282  10.978
58172SOL    HW176355   8.099   6.312  10.982
58172SOL    HW276356   8.234   6.331  11.047
58173SOL     OW76357   6.737   4.672   9.037
58173SOL    HW176358   6.825   4.691   9.005
58173SOL    HW276359   6.715   4.587   8.999
58174SOL     OW76360   9.094   5.493   3.225
58174SOL    HW176361   9.096   5.537   3.140
58174SOL    HW276362   9.165   5.429   3.220
58175SOL     OW76363   5.680  11.502   4.114
58175SOL    HW176364   5.625  11.460   4.180
58175SOL    HW276365   5.674  11.595   4.133
58176SOL     OW76366   4.276   1.354   1.628
58176SOL    HW176367   4.317   1.373   1.713
58176SOL    HW276368   4.202   1.298   1.649
58177SOL     OW76369   0.400   1.097   4.501
58177SOL    HW176370   0.410   1.113   4.595
58177SOL    HW276371   0.486   1.117   4.464
58178SOL     OW76372   8.940   0.111  10.204
58178SOL    HW176373   8.974   0.091  10.291
58178SOL    HW276374   8.977   0.044  10.148
58179SOL     OW76375   6.653   4.047  10.281
58179SOL    HW176376   6.638   3.969  10.334
58179SOL    HW276377   6.671   4.014  10.193
58180SOL     OW76378  11.398  10.129   2.123
58180SOL    HW176379  11.377  10.095   2.209
58180SOL    HW276380  11.347  10.210   2.115
58181SOL     OW76381  13.501   1.837   6.401
58181SOL    HW176382  13.529   1.866   6.314
58181SOL    HW276383  13.406   1.833   6.395
58182SOL     OW76384   3.851   4.223  14.033
58182SOL    HW176385   3.785   4.292  14.035
58182SOL    HW276386   3.801   4.142  14.021
58183SOL     OW76387   1.353   5.441   0.601
58183SOL    HW176388   1.373   5.533   0.582
58183SOL    HW276389   1.261   5.430   0.576
58184SOL     OW76390  10.156  12.524   5.416
58184SOL    HW176391  10.104  12.455   5.457
58184SOL    HW276392  10.150  12.506   5.322
58185SOL     OW76393   2.123  10.619   5.288
58185SOL    HW176394   2.127  10.544   5.228
58185SOL    HW276395   2.213  10.654   5.288
58186SOL     OW76396   5.416  11.312   5.494
58186SOL    HW176397   5.429  11.222   5.524
58186SOL    HW276398   5.501  11.354   5.505
58187SOL     OW76399   9.136   7.821  12.742
58187SOL    HW176400   9.200   7.889  12.764
58187SOL    HW276401   9.156   7.797  12.651
58188SOL     OW76402   1.676   2.716   1.379
58188SOL    HW176403   1.616   2.715   1.305
58188SOL    HW276404   1.719   2.802   1.374
58189SOL     OW76405   9.863  11.256   5.665
58189SOL    HW176406   9.861  11.351   5.650
58189SOL    HW276407   9.775  11.235   5.697
58190SOL     OW76408   7.262   8.248   0.309
58190SOL    HW176409   7.267   8.178   0.374
58190SOL    HW276410   7.277   8.329   0.358
58191SOL     OW76411  11.759   2.310   7.034
58191SOL    HW176412  11.800   2.371   6.973
58191SOL    HW276413  11.690   2.361   7.077
58192SOL     OW76414  12.614   8.824  13.602
58192SOL    HW176415  12.612   8.907  13.649
58192SOL    HW276416  12.592   8.758  13.667
58193SOL     OW76417  12.219   2.499   3.601
58193SOL    HW176418  12.174   2.503   3.516
58193SOL    HW276419  12.232   2.591   3.625
58194SOL     OW76420  11.888  11.529  12.204
58194SOL    HW176421  11.921  11.459  12.261
58194SOL    HW276422  11.932  11.608  12.235
58195SOL     OW76423   2.943   9.059  12.406
58195SOL    HW176424   2.936   8.965  12.394
58195SOL    HW276425   2.942   9.072  12.501
58196SOL     OW76426  12.081   1.738   3.153
58196SOL    HW176427  12.064   1.647   3.129
58196SOL    HW276428  12.171   1.737   3.187
58197SOL     OW76429   2.304   5.324   6.951
58197SOL    HW176430   2.297   5.251   7.012
58197SOL    HW276431   2.252   5.297   6.876
58198SOL     OW76432  11.539  12.898   5.622
58198SOL    HW176433  11.525  12.812   5.584
58198SOL    HW276434  11.465  12.950   5.590
58199SOL     OW76435  14.160  12.604   7.912
58199SOL    HW176436  14.099  12.625   7.983
58199SOL    HW276437  14.244  12.590   7.955
58200SOL     OW76438   3.885   9.721  12.013
58200SOL    HW176439   3.858   9.724  11.922
58200SOL    HW276440   3.931   9.803  12.028
58201SOL     OW76441  10.783   2.160   7.799
58201SOL    HW176442  10.812   2.209   7.722
58201SOL    HW276443  10.809   2.213   7.873
58202SOL     OW76444  14.703   8.867  14.168
58202SOL    HW176445  14.776   8.916  14.205
58202SOL    HW276446  14.735   8.777  14.162
58203SOL     OW76447  14.398   9.332  10.169
58203SOL    HW176448  14.333   9.368  10.230
58203SOL    HW276449  14.372   9.366  10.083
58204SOL     OW76450  12.082  12.511   4.848
58204SOL    HW176451  12.148  12.510   4.778
58204SOL    HW276452  12.132  12.525   4.928
58205SOL     OW76453  10.872  10.002   0.025
58205SOL    HW176454  10.817  10.044   0.091
58205SOL    HW276455  10.956  10.047   0.032
58206SOL     OW76456   9.958  14.155   1.083
58206SOL    HW176457   9.876  14.200   1.066
58206SOL    HW276458   9.960  14.141   1.178
58207SOL     OW76459  14.796   5.227   8.222
58207SOL    HW176460  14.718   5.233   8.167
58207SOL    HW276461  14.864   5.191   8.165
58208SOL     OW76462   0.132   7.732   2.862
58208SOL    HW176463   0.092   7.740   2.775
58208SOL    HW276464   0.061   7.756   2.922
58209SOL     OW76465   9.191  10.666  13.468
58209SOL    HW176466   9.153  10.624  13.545
58209SOL    HW276467   9.205  10.757  13.494
58210SOL     OW76468  11.248   6.567  12.536
58210SOL    HW176469  11.195   6.631  12.490
58210SOL    HW276470  11.194   6.539  12.610
58211SOL     OW76471   5.413   0.211  11.576
58211SOL    HW176472   5.475   0.143  11.601
58211SOL    HW276473   5.443   0.240  11.490
58212SOL     OW76474  12.549   3.884   2.182
58212SOL    HW176475  12.485   3.855   2.247
58212SOL    HW276476  12.632   3.889   2.230
58213SOL     OW76477  14.455  14.772   2.622
58213SOL    HW176478  14.473  14.695   2.568
58213SOL    HW276479  14.504  14.758   2.702
58214SOL     OW76480   5.298   7.125  13.348
58214SOL    HW176481   5.228   7.098  13.406
58214SOL    HW276482   5.280   7.080  13.265
58215SOL     OW76483  14.738   5.411   2.453
58215SOL    HW176484  14.767   5.320   2.464
58215SOL    HW276485  14.645   5.410   2.476
58216SOL     OW76486   6.361   8.286   7.245
58216SOL    HW176487   6.358   8.349   7.173
58216SOL    HW276488   6.279   8.298   7.292
58217SOL     OW76489   4.262  13.974  13.410
58217SOL    HW176490   4.347  14.017  13.419
58217SOL    HW276491   4.268  13.924  13.329
58218SOL     OW76492  11.533   6.814  13.313
58218SOL    HW176493  11.616   6.805  13.265
58218SOL    HW276494  11.478   6.743  13.281
58219SOL     OW76495   6.164  13.738   5.236
58219SOL    HW176496   6.203  13.725   5.322
58219SOL    HW276497   6.219  13.686   5.177
58220SOL     OW76498  12.395   9.155   2.599
58220SOL    HW176499  12.398   9.073   2.647
58220SOL    HW276500  12.321   9.203   2.637
58221SOL     OW76501   8.073   4.726   6.522
58221SOL    HW176502   8.133   4.691   6.457
58221SOL    HW276503   8.130   4.759   6.592
58222SOL     OW76504   9.713   8.265   8.143
58222SOL    HW176505   9.641   8.238   8.200
58222SOL    HW276506   9.786   8.281   8.203
58223SOL     OW76507  10.169   5.862   4.265
58223SOL    HW176508  10.211   5.817   4.193
58223SOL    HW276509  10.209   5.825   4.344
58224SOL     OW76510   8.333  12.608   7.341
58224SOL    HW176511   8.261  12.550   7.365
58224SOL    HW276512   8.293  12.673   7.283
58225SOL     OW76513  12.850   7.423   6.110
58225SOL    HW176514  12.791   7.358   6.071
58225SOL    HW276515  12.835   7.414   6.204
58226SOL     OW76516  10.455   0.689   3.714
58226SOL    HW176517  10.450   0.631   3.790
58226SOL    HW276518  10.401   0.646   3.648
58227SOL     OW76519   6.939  13.514  14.642
58227SOL    HW176520   6.989  13.435  14.622
58227SOL    HW276521   6.905  13.543  14.557
58228SOL     OW76522   6.288  10.822   1.845
58228SOL    HW176523   6.248  10.744   1.884
58228SOL    HW276524   6.332  10.865   1.918
58229SOL     OW76525   5.846   6.420  10.007
58229SOL    HW176526   5.854   6.433   9.912
58229SOL    HW276527   5.757   6.447  10.027
58230SOL     OW76528   2.088   2.412   2.954
58230SOL    HW176529   2.153   2.421   2.885
58230SOL    HW276530   2.101   2.489   3.009
58231SOL     OW76531   2.855   7.112   4.830
58231SOL    HW176532   2.850   7.159   4.746
58231SOL    HW276533   2.795   7.038   4.820
58232SOL     OW76534   0.042   3.051   3.792
58232SOL    HW176535   0.057   3.101   3.713
58232SOL    HW276536  14.837   3.009   3.778
58233SOL     OW76537   2.031  14.107   4.400
58233SOL    HW176538   1.965  14.044   4.430
58233SOL    HW276539   2.096  14.054   4.354
58234SOL     OW76540   5.976   7.853   6.479
58234SOL    HW176541   5.962   7.837   6.572
58234SOL    HW276542   6.066   7.883   6.472
58235SOL     OW76543   6.982  13.302   2.074
58235SOL    HW176544   7.047  13.322   2.142
58235SOL    HW276545   6.988  13.376   2.014
58236SOL     OW76546   1.422  11.362   4.316
58236SOL    HW176547   1.448  11.451   4.337
58236SOL    HW276548   1.501  11.309   4.329
58237SOL     OW76549   4.834  14.020   1.852
58237SOL    HW176550   4.868  14.032   1.941
58237SOL    HW276551   4.890  13.952   1.814
58238SOL     OW76552   0.856   2.679  14.372
58238SOL    HW176553   0.942   2.704  14.340
58238SOL    HW276554   0.817   2.760  14.403
58239SOL     OW76555   1.160  10.323   7.048
58239SOL    HW176556   1.085  10.334   7.107
58239SOL    HW276557   1.128  10.352   6.963
58240SOL     OW76558   4.369   1.569   4.749
58240SOL    HW176559   4.331   1.497   4.699
58240SOL    HW276560   4.359   1.543   4.841
58241SOL     OW76561   7.732   3.043  12.256
58241SOL    HW176562   7.783   3.096  12.317
58241SOL    HW276563   7.682   2.983  12.312
58242SOL     OW76564   6.775   1.341   8.159
58242SOL    HW176565   6.743   1.305   8.242
58242SOL    HW276566   6.797   1.264   8.107
58243SOL     OW76567  14.319  12.163  12.252
58243SOL    HW176568  14.263  12.117  12.315
58243SOL    HW276569  14.328  12.251  12.287
58244SOL     OW76570   2.739   3.341   8.725
58244SOL    HW176571   2.766   3.253   8.752
58244SOL    HW276572   2.779   3.399   8.790
58245SOL     OW76573  11.488   8.353   9.503
58245SOL    HW176574  11.536   8.367   9.584
58245SOL    HW276575  11.440   8.435   9.489
58246SOL     OW76576   4.570  11.171  11.558
58246SOL    HW176577   4.655  11.187  11.518
58246SOL    HW276578   4.591  11.138  11.646
58247SOL     OW76579   5.888  14.518  10.654
58247SOL    HW176580   5.855  14.598  10.695
58247SOL    HW276581   5.826  14.500  10.583
58248SOL     OW76582  12.126  14.753   7.859
58248SOL    HW176583  12.040  14.791   7.874
58248SOL    HW276584  12.127  14.731   7.766
58249SOL     OW76585   1.976   8.648  10.941
58249SOL    HW176586   1.978   8.582  10.872
58249SOL    HW276587   2.022   8.723  10.904
58250SOL     OW76588   8.504   4.582   4.563
58250SOL    HW176589   8.500   4.611   4.471
58250SOL    HW276590   8.433   4.629   4.606
58251SOL     OW76591  13.870   1.376  12.896
58251SOL    HW176592  13.814   1.453  12.893
58251SOL    HW276593  13.858   1.341  12.985
58252SOL     OW76594  14.504   6.023  11.425
58252SOL    HW176595  14.425   6.073  11.404
58252SOL    HW276596  14.566   6.047  11.357
58253SOL     OW76597   1.739  12.910   1.098
58253SOL    HW176598   1.772  12.845   1.160
58253SOL    HW276599   1.794  12.987   1.113
58254SOL     OW76600   7.759   6.568   7.647
58254SOL    HW176601   7.741   6.490   7.699
58254SOL    HW276602   7.692   6.567   7.578
58255SOL     OW76603   8.691   7.725  11.804
58255SOL    HW176604   8.763   7.782  11.831
58255SOL    HW276605   8.625   7.735  11.873
58256SOL     OW76606   8.213  12.035   7.944
58256SOL    HW176607   8.284  11.977   7.973
58256SOL    HW276608   8.229  12.117   7.990
58257SOL     OW76609  13.680   5.973   0.324
58257SOL    HW176610  13.768   6.009   0.335
58257SOL    HW276611  13.660   5.932   0.409
58258SOL     OW76612  11.128  10.922   2.225
58258SOL    HW176613  11.117  10.876   2.141
58258SOL    HW276614  11.040  10.925   2.262
58259SOL     OW76615   4.580   0.191  10.529
58259SOL    HW176616   4.643   0.148  10.472
58259SOL    HW276617   4.602   0.284  10.523
58260SOL     OW76618   8.411   4.486  12.070
58260SOL    HW176619   8.389   4.543  11.996
58260SOL    HW276620   8.383   4.535  12.147
58261SOL     OW76621   8.118   9.177   2.484
58261SOL    HW176622   8.032   9.215   2.462
58261SOL    HW276623   8.097   9.091   2.521
58262SOL     OW76624   9.894   5.217   1.729
58262SOL    HW176625   9.975   5.228   1.779
58262SOL    HW276626   9.870   5.125   1.742
58263SOL     OW76627   9.714   1.292   5.074
58263SOL    HW176628   9.693   1.354   5.144
58263SOL    HW276629   9.727   1.209   5.120
58264SOL     OW76630  13.931   2.909   1.625
58264SOL    HW176631  13.853   2.871   1.666
58264SOL    HW276632  13.969   2.837   1.574
58265SOL     OW76633  14.284   7.997   8.702
58265SOL    HW176634  14.267   7.903   8.696
58265SOL    HW276635  14.376   8.006   8.676
58266SOL     OW76636  10.674   3.610  12.793
58266SOL    HW176637  10.593   3.632  12.746
58266SOL    HW276638  10.695   3.521  12.764
58267SOL     OW76639   3.350   3.121   9.520
58267SOL    HW176640   3.412   3.050   9.537
58267SOL    HW276641   3.323   3.151   9.607
58268SOL     OW76642   0.013   7.904   0.325
58268SOL    HW176643  14.822   7.850   0.291
58268SOL    HW276644   0.023   7.876   0.416
58269SOL     OW76645  14.526   9.833  11.979
58269SOL    HW176646  14.484   9.919  11.975
58269SOL    HW276647  14.616   9.852  12.005
58270SOL     OW76648   9.238   8.554   1.294
58270SOL    HW176649   9.230   8.592   1.382
58270SOL    HW276650   9.317   8.501   1.298
58271SOL     OW76651  14.838  10.225  14.686
58271SOL    HW176652   0.035  10.169  14.696
58271SOL    HW276653  14.822  10.260  14.774
58272SOL     OW76654  13.071  11.034   6.202
58272SOL    HW176655  13.027  11.117   6.182
58272SOL    HW276656  12.999  10.975   6.224
58273SOL     OW76657  14.843  14.742   7.078
58273SOL    HW176658  14.806  14.655   7.062
58273SOL    HW276659   0.054  14.735   7.047
58274SOL     OW76660  14.461   7.098  14.061
58274SOL    HW176661  14.400   7.040  14.107
58274SOL    HW276662  14.420   7.184  14.064
58275SOL     OW76663   2.547   0.337   1.526
58275SOL    HW176664   2.524   0.383   1.607
58275SOL    HW276665   2.641   0.348   1.518
58276SOL     OW76666  13.859   4.812   4.444
58276SOL    HW176667  13.796   4.804   4.517
58276SOL    HW276668  13.944   4.815   4.487
58277SOL     OW76669   0.470  12.586   3.947
58277SOL    HW176670   0.525  12.540   3.884
58277SOL    HW276671   0.403  12.630   3.894
58278SOL     OW76672  10.289  13.242  10.213
58278SOL    HW176673  10.264  13.214  10.301
58278SOL    HW276674  10.340  13.322  10.226
58279SOL     OW76675  14.785   1.893  12.775
58279SOL    HW176676  14.786   1.894  12.870
58279SOL    HW276677  14.777   1.801  12.751
58280SOL     OW76678   1.218   3.038  11.051
58280SOL    HW176679   1.226   3.132  11.069
58280SOL    HW276680   1.307   3.004  11.059
58281SOL     OW76681   4.613  14.340   3.573
58281SOL    HW176682   4.590  14.264   3.627
58281SOL    HW276683   4.542  14.347   3.510
58282SOL     OW76684   9.490   1.606   4.184
58282SOL    HW176685   9.545   1.656   4.244
58282SOL    HW276686   9.547   1.586   4.110
58283SOL     OW76687   5.028   0.882   4.258
58283SOL    HW176688   5.084   0.878   4.180
58283SOL    HW276689   5.009   0.975   4.269
58284SOL     OW76690  12.684   3.838   8.788
58284SOL    HW176691  12.651   3.760   8.742
58284SOL    HW276692  12.694   3.904   8.719
58285SOL     OW76693   6.097  14.381   7.195
58285SOL    HW176694   6.025  14.397   7.133
58285SOL    HW276695   6.151  14.460   7.189
58286SOL     OW76696   0.155  13.794   6.898
58286SOL    HW176697   0.175  13.787   6.991
58286SOL    HW276698   0.232  13.757   6.854
58287SOL     OW76699  13.404   7.001  12.170
58287SOL    HW176700  13.344   6.928  12.158
58287SOL    HW276701  13.364   7.055  12.238
58288SOL     OW76702  13.860   6.323   9.917
58288SOL    HW176703  13.874   6.232   9.892
58288SOL    HW276704  13.853   6.321  10.012
58289SOL     OW76705  12.005   8.623  14.033
58289SOL    HW176706  11.994   8.528  14.030
58289SOL    HW276707  11.927   8.655  14.079
58290SOL     OW76708   2.621   4.073  12.959
58290SOL    HW176709   2.713   4.072  12.985
58290SOL    HW276710   2.601   4.166  12.943
58291SOL     OW76711   3.563   4.009  14.665
58291SOL    HW176712   3.521   3.993  14.580
58291SOL    HW276713   3.538   3.933  14.718
58292SOL     OW76714  11.307   9.581   0.688
58292SOL    HW176715  11.308   9.668   0.647
58292SOL    HW276716  11.394   9.571   0.725
58293SOL     OW76717  14.057   6.827  10.641
58293SOL    HW176718  13.993   6.899  10.635
58293SOL    HW276719  14.014   6.754  10.596
58294SOL     OW76720  14.681   0.842   8.705
58294SOL    HW176721  14.726   0.839   8.620
58294SOL    HW276722  14.592   0.813   8.685
58295SOL     OW76723   4.046  10.284   5.027
58295SOL    HW176724   4.060  10.239   4.944
58295SOL    HW276725   4.071  10.375   5.009
58296SOL     OW76726   8.804   4.891   6.291
58296SOL    HW176727   8.788   4.985   6.297
58296SOL    HW276728   8.895   4.884   6.262
58297SOL     OW76729   8.899  10.560   4.244
58297SOL    HW176730   8.913  10.509   4.324
58297SOL    HW276731   8.804  10.566   4.236
58298SOL     OW76732  10.902   1.407  12.756
58298SOL    HW176733  10.942   1.427  12.671
58298SOL    HW276734  10.822   1.459  12.757
58299SOL     OW76735  12.016   9.065   7.681
58299SOL    HW176736  11.950   9.114   7.632
58299SOL    HW276737  12.018   8.979   7.640
58300SOL     OW76738   0.329   9.624   2.113
58300SOL    HW176739   0.304   9.533   2.122
58300SOL    HW276740   0.368   9.630   2.025
58301SOL     OW76741  14.358   1.588   4.995
58301SOL    HW176742  14.298   1.647   5.040
58301SOL    HW276743  14.321   1.578   4.908
58302SOL     OW76744  14.314   1.830   0.926
58302SOL    HW176745  14.241   1.848   0.867
58302SOL    HW276746  14.318   1.735   0.931
58303SOL     OW76747   8.418   8.893  12.045
58303SOL    HW176748   8.378   8.809  12.023
58303SOL    HW276749   8.496   8.897  11.991
58304SOL     OW76750  13.167  12.576   7.397
58304SOL    HW176751  13.146  12.668   7.382
58304SOL    HW276752  13.101  12.528   7.347
58305SOL     OW76753  13.950   5.562   8.394
58305SOL    HW176754  14.041   5.536   8.404
58305SOL    HW276755  13.948   5.612   8.312
58306SOL     OW76756   8.529  13.217  14.777
58306SOL    HW176757   8.520  13.306  14.743
58306SOL    HW276758   8.584  13.172  14.713
58307SOL     OW76759  10.739  10.705   7.611
58307SOL    HW176760  10.677  10.772   7.636
58307SOL    HW276761  10.727  10.636   7.676
58308SOL     OW76762  11.297  11.267   5.238
58308SOL    HW176763  11.272  11.244   5.328
58308SOL    HW276764  11.258  11.198   5.184
58309SOL     OW76765  11.564   0.082  10.174
58309SOL    HW176766  11.520   0.083  10.090
58309SOL    HW276767  11.538  14.878  10.214
58310SOL     OW76768   5.032  11.949   6.120
58310SOL    HW176769   5.077  11.873   6.157
58310SOL    HW276770   5.100  11.995   6.071
58311SOL     OW76771   0.772   8.771  13.672
58311SOL    HW176772   0.858   8.737  13.697
58311SOL    HW276773   0.710   8.717  13.721
58312SOL     OW76774  10.711  10.002   2.048
58312SOL    HW176775  10.797  10.006   2.089
58312SOL    HW276776  10.651   9.988   2.121
58313SOL     OW76777   1.102  11.216   7.343
58313SOL    HW176778   1.195  11.192   7.337
58313SOL    HW276779   1.055  11.137   7.316
58314SOL     OW76780  10.459  12.379   0.451
58314SOL    HW176781  10.552  12.389   0.468
58314SOL    HW276782  10.450  12.291   0.415
58315SOL     OW76783   0.596   8.639  12.841
58315SOL    HW176784   0.678   8.594  12.821
58315SOL    HW276785   0.571   8.682  12.759
58316SOL     OW76786   8.370   9.734   0.694
58316SOL    HW176787   8.396   9.643   0.683
58316SOL    HW276788   8.278   9.736   0.669
58317SOL     OW76789  13.795  10.121   0.230
58317SOL    HW176790  13.755  10.071   0.159
58317SOL    HW276791  13.754  10.087   0.310
58318SOL     OW76792   6.468  11.742   4.285
58318SOL    HW176793   6.491  11.791   4.207
58318SOL    HW276794   6.400  11.681   4.256
58319SOL     OW76795   1.669  13.391   4.610
58319SOL    HW176796   1.577  13.367   4.602
58319SOL    HW276797   1.669  13.476   4.653
58320SOL     OW76798   2.468   1.840  10.635
58320SOL    HW176799   2.461   1.780  10.562
58320SOL    HW276800   2.520   1.913  10.602
58321SOL     OW76801   6.763   8.349  10.544
58321SOL    HW176802   6.855   8.367  10.561
58321SOL    HW276803   6.743   8.399  10.465
58322SOL     OW76804   8.127   9.850  13.805
58322SOL    HW176805   8.160   9.850  13.895
58322SOL    HW276806   8.172   9.923  13.763
58323SOL     OW76807  10.533   4.906   6.661
58323SOL    HW176808  10.574   4.958   6.730
58323SOL    HW276809  10.439   4.918   6.676
58324SOL     OW76810   7.853  12.703   8.687
58324SOL    HW176811   7.795  12.693   8.610
58324SOL    HW276812   7.904  12.781   8.667
58325SOL     OW76813  11.749  11.824  10.192
58325SOL    HW176814  11.675  11.799  10.137
58325SOL    HW276815  11.809  11.869  10.132
58326SOL     OW76816  11.013   3.570  12.350
58326SOL    HW176817  11.038   3.478  12.342
58326SOL    HW276818  11.097   3.617  12.350
58327SOL     OW76819   2.939  10.918  14.579
58327SOL    HW176820   2.874  10.922  14.508
58327SOL    HW276821   3.020  10.948  14.538
58328SOL     OW76822  13.828   5.274   8.838
58328SOL    HW176823  13.860   5.235   8.919
58328SOL    HW276824  13.892   5.249   8.772
58329SOL     OW76825   1.638   3.407   6.133
58329SOL    HW176826   1.666   3.379   6.220
58329SOL    HW276827   1.667   3.498   6.127
58330SOL     OW76828   6.896   2.865   3.219
58330SOL    HW176829   6.869   2.918   3.295
58330SOL    HW276830   6.839   2.894   3.148
58331SOL     OW76831  12.302   4.410   8.109
58331SOL    HW176832  12.305   4.427   8.015
58331SOL    HW276833  12.248   4.331   8.118
58332SOL     OW76834   2.933   5.164  13.193
58332SOL    HW176835   3.009   5.148  13.136
58332SOL    HW276836   2.951   5.114  13.272
58333SOL     OW76837   6.522   9.385   7.774
58333SOL    HW176838   6.569   9.406   7.693
58333SOL    HW276839   6.586   9.403   7.843
58334SOL     OW76840   8.821  13.028  12.825
58334SOL    HW176841   8.836  12.934  12.833
58334SOL    HW276842   8.728  13.039  12.847
58335SOL     OW76843   0.677   5.442   5.618
58335SOL    HW176844   0.684   5.478   5.707
58335SOL    HW276845   0.618   5.501   5.572
58336SOL     OW76846   2.996   6.298   6.836
58336SOL    HW176847   3.063   6.258   6.893
58336SOL    HW276848   2.913   6.274   6.877
58337SOL     OW76849  12.610   7.220   0.855
58337SOL    HW176850  12.529   7.168   0.863
58337SOL    HW276851  12.677   7.156   0.831
58338SOL     OW76852  11.757   1.709  13.239
58338SOL    HW176853  11.740   1.774  13.308
58338SOL    HW276854  11.810   1.756  13.175
58339SOL     OW76855   9.865  10.818   9.902
58339SOL    HW176856   9.927  10.815   9.830
58339SOL    HW276857   9.919  10.814   9.981
58340SOL     OW76858   2.471   8.629  12.902
58340SOL    HW176859   2.533   8.557  12.910
58340SOL    HW276860   2.398   8.604  12.958
58341SOL     OW76861   4.524  14.230  13.107
58341SOL    HW176862   4.595  14.223  13.172
58341SOL    HW276863   4.569  14.250  13.025
58342SOL     OW76864   8.363   5.644   0.480
58342SOL    HW176865   8.312   5.563   0.480
58342SOL    HW276866   8.391   5.656   0.570
58343SOL     OW76867  13.246   5.528  13.840
58343SOL    HW176868  13.192   5.589  13.889
58343SOL    HW276869  13.333   5.535  13.879
58344SOL     OW76870  14.259  13.026   0.807
58344SOL    HW176871  14.296  13.074   0.732
58344SOL    HW276872  14.324  13.034   0.875
58345SOL     OW76873  10.955   4.936   1.197
58345SOL    HW176874  11.002   5.013   1.229
58345SOL    HW276875  11.006   4.906   1.122
58346SOL     OW76876   0.568   4.844   0.416
58346SOL    HW176877   0.482   4.803   0.408
58346SOL    HW276878   0.548   4.936   0.437
58347SOL     OW76879  12.206   3.860   9.610
58347SOL    HW176880  12.216   3.770   9.643
58347SOL    HW276881  12.267   3.865   9.537
58348SOL     OW76882   2.609  13.344   1.792
58348SOL    HW176883   2.661  13.358   1.712
58348SOL    HW276884   2.637  13.415   1.850
58349SOL     OW76885   9.438  10.601   1.416
58349SOL    HW176886   9.408  10.686   1.448
58349SOL    HW276887   9.372  10.576   1.351
58350SOL     OW76888  12.873   0.850   8.254
58350SOL    HW176889  12.917   0.811   8.179
58350SOL    HW276890  12.780   0.837   8.236
58351SOL     OW76891  13.299   1.644  10.356
58351SOL    HW176892  13.357   1.679  10.288
58351SOL    HW276893  13.356   1.588  10.410
58352SOL     OW76894  10.296  11.119   5.528
58352SOL    HW176895  10.284  11.112   5.623
58352SOL    HW276896  10.268  11.035   5.494
58353SOL     OW76897  14.820   1.423   9.298
58353SOL    HW176898  14.848   1.335   9.273
58353SOL    HW276899  14.736   1.435   9.253
58354SOL     OW76900   2.694   8.611   9.678
58354SOL    HW176901   2.769   8.552   9.676
58354SOL    HW276902   2.702   8.662   9.597
58355SOL     OW76903   8.649   2.196   6.052
58355SOL    HW176904   8.630   2.288   6.033
58355SOL    HW276905   8.677   2.160   5.968
58356SOL     OW76906   8.166   8.080   5.431
58356SOL    HW176907   8.191   8.166   5.465
58356SOL    HW276908   8.232   8.060   5.364
58357SOL     OW76909  10.717   6.876   4.795
58357SOL    HW176910  10.798   6.828   4.813
58357SOL    HW276911  10.649   6.810   4.795
58358SOL     OW76912   1.564   2.675  13.532
58358SOL    HW176913   1.526   2.670  13.445
58358SOL    HW276914   1.489   2.666  13.591
58359SOL     OW76915   0.493   1.032  13.401
58359SOL    HW176916   0.438   1.101  13.440
58359SOL    HW276917   0.577   1.075  13.386
58360SOL     OW76918   1.799  10.658   7.396
58360SOL    HW176919   1.882  10.681   7.439
58360SOL    HW276920   1.731  10.686   7.458
58361SOL     OW76921   1.975   3.855  11.487
58361SOL    HW176922   1.982   3.917  11.560
58361SOL    HW276923   2.007   3.903  11.411
58362SOL     OW76924   1.632   0.208   7.679
58362SOL    HW176925   1.718   0.190   7.641
58362SOL    HW276926   1.574   0.214   7.604
58363SOL     OW76927  13.534   9.483  10.177
58363SOL    HW176928  13.499   9.510  10.092
58363SOL    HW276929  13.566   9.565  10.216
58364SOL     OW76930   3.260  13.068   5.483
58364SOL    HW176931   3.165  13.064   5.483
58364SOL    HW276932   3.282  13.113   5.401
58365SOL     OW76933  14.295  10.023   8.305
58365SOL    HW176934  14.341   9.950   8.347
58365SOL    HW276935  14.281  10.086   8.375
58366SOL     OW76936   2.838   0.564   3.121
58366SOL    HW176937   2.768   0.612   3.166
58366SOL    HW276938   2.853   0.613   3.041
58367SOL     OW76939   7.864   9.131  12.832
58367SOL    HW176940   7.901   9.049  12.866
58367SOL    HW276941   7.783   9.143  12.882
58368SOL     OW76942  10.669   4.395   1.092
58368SOL    HW176943  10.597   4.336   1.112
58368SOL    HW276944  10.659   4.468   1.153
58369SOL     OW76945   3.825   6.639   4.865
58369SOL    HW176946   3.731   6.632   4.844
58369SOL    HW276947   3.849   6.552   4.897
58370SOL     OW76948   9.730  14.597   1.540
58370SOL    HW176949   9.669  14.670   1.554
58370SOL    HW276950   9.763  14.576   1.627
58371SOL     OW76951   0.193   6.138   9.989
58371SOL    HW176952   0.255   6.208  10.004
58371SOL    HW276953   0.245   6.058   9.995
58372SOL     OW76954  11.558   7.692   9.885
58372SOL    HW176955  11.589   7.650   9.966
58372SOL    HW276956  11.606   7.775   9.882
58373SOL     OW76957   1.073  10.325  13.474
58373SOL    HW176958   1.060  10.278  13.557
58373SOL    HW276959   1.026  10.273  13.409
58374SOL     OW76960   4.849   2.143   6.358
58374SOL    HW176961   4.828   2.086   6.284
58374SOL    HW276962   4.902   2.213   6.319
58375SOL     OW76963   7.901   8.841   3.139
58375SOL    HW176964   7.966   8.808   3.200
58375SOL    HW276965   7.946   8.842   3.054
58376SOL     OW76966  11.836  12.382   5.170
58376SOL    HW176967  11.814  12.472   5.148
58376SOL    HW276968  11.917  12.387   5.220
58377SOL     OW76969   8.055   7.532  10.672
58377SOL    HW176970   8.062   7.597  10.742
58377SOL    HW276971   7.964   7.537  10.644
58378SOL     OW76972   5.964   0.030   2.459
58378SOL    HW176973   5.996   0.114   2.425
58378SOL    HW276974   5.967   0.040   2.554
58379SOL     OW76975  12.572  12.009  14.433
58379SOL    HW176976  12.620  12.047  14.507
58379SOL    HW276977  12.638  11.999  14.364
58380SOL     OW76978   1.668  13.857  12.308
58380SOL    HW176979   1.665  13.806  12.227
58380SOL    HW276980   1.635  13.797  12.375
58381SOL     OW76981   3.511   9.429   5.672
58381SOL    HW176982   3.491   9.381   5.592
58381SOL    HW276983   3.546   9.513   5.642
58382SOL     OW76984   9.271  11.847  10.302
58382SOL    HW176985   9.305  11.759  10.320
58382SOL    HW276986   9.213  11.865  10.376
58383SOL     OW76987  13.663   6.022  11.336
58383SOL    HW176988  13.608   6.050  11.409
58383SOL    HW276989  13.739   5.980  11.377
58384SOL     OW76990   4.833   6.367   0.951
58384SOL    HW176991   4.777   6.444   0.961
58384SOL    HW276992   4.814   6.313   1.027
58385SOL     OW76993   9.865   3.052   4.993
58385SOL    HW176994   9.868   2.994   4.917
58385SOL    HW276995   9.955   3.052   5.026
58386SOL     OW76996   4.681  11.614   8.870
58386SOL    HW176997   4.717  11.674   8.935
58386SOL    HW276998   4.594  11.649   8.852
58387SOL     OW76999   5.434  13.339  13.895
58387SOL    HW177000   5.450  13.424  13.935
58387SOL    HW277001   5.345  13.344  13.860
58388SOL     OW77002  10.956   4.302  11.261
58388SOL    HW177003  10.984   4.339  11.344
58388SOL    HW277004  10.909   4.372  11.217
58389SOL     OW77005   6.908  13.265  13.839
58389SOL    HW177006   6.909  13.203  13.911
58389SOL    HW277007   6.931  13.349  13.880
58390SOL     OW77008   9.168   3.637   0.647
58390SOL    HW177009   9.092   3.679   0.688
58390SOL    HW277010   9.242   3.692   0.672
58391SOL     OW77011   1.262   1.463   0.054
58391SOL    HW177012   1.234   1.420  14.853
58391SOL    HW277013   1.289   1.550   0.027
58392SOL     OW77014   2.058   4.906   8.090
58392SOL    HW177015   2.139   4.955   8.107
58392SOL    HW277016   2.049   4.847   8.165
58393SOL     OW77017  14.108   0.522   0.935
58393SOL    HW177018  14.158   0.457   0.885
58393SOL    HW277019  14.044   0.556   0.873
58394SOL     OW77020   4.269   1.326  14.337
58394SOL    HW177021   4.277   1.287  14.250
58394SOL    HW277022   4.355   1.363  14.355
58395SOL     OW77023   7.186   3.755   8.861
58395SOL    HW177024   7.163   3.671   8.899
58395SOL    HW277025   7.265   3.736   8.809
58396SOL     OW77026  14.109   7.177  12.299
58396SOL    HW177027  14.023   7.201  12.264
58396SOL    HW277028  14.105   7.203  12.391
58397SOL     OW77029   2.133   0.782  10.573
58397SOL    HW177030   2.038   0.799  10.577
58397SOL    HW277031   2.165   0.848  10.512
58398SOL     OW77032   1.415  12.419   6.276
58398SOL    HW177033   1.435  12.510   6.256
58398SOL    HW277034   1.443  12.407   6.367
58399SOL     OW77035   7.485   4.129   1.553
58399SOL    HW177036   7.476   4.095   1.642
58399SOL    HW277037   7.435   4.211   1.553
58400SOL     OW77038  12.117  12.453  10.632
58400SOL    HW177039  12.031  12.430  10.598
58400SOL    HW277040  12.100  12.497  10.715
58401SOL     OW77041   0.009  10.604   0.490
58401SOL    HW177042  14.810  10.605   0.544
58401SOL    HW277043   0.021  10.695   0.463
58402SOL     OW77044   2.007  10.692   6.310
58402SOL    HW177045   2.101  10.698   6.292
58402SOL    HW277046   1.969  10.663   6.227
58403SOL     OW77047   1.138   3.448   1.965
58403SOL    HW177048   1.152   3.541   1.952
58403SOL    HW277049   1.176   3.406   1.888
58404SOL     OW77050  14.385  13.649  13.936
58404SOL    HW177051  14.367  13.598  14.015
58404SOL    HW277052  14.316  13.715  13.934
58405SOL     OW77053  13.276   1.602   8.878
58405SOL    HW177054  13.229   1.618   8.796
58405SOL    HW277055  13.230   1.527   8.918
58406SOL     OW77056   8.086   7.226  13.305
58406SOL    HW177057   8.001   7.212  13.264
58406SOL    HW277058   8.086   7.168  13.381
58407SOL     OW77059   7.972  14.556   5.422
58407SOL    HW177060   7.966  14.632   5.480
58407SOL    HW277061   7.884  14.519   5.422
58408SOL     OW77062   3.546   6.152  12.071
58408SOL    HW177063   3.493   6.183  11.998
58408SOL    HW277064   3.566   6.230  12.122
58409SOL     OW77065  10.791  10.344   5.460
58409SOL    HW177066  10.733  10.355   5.536
58409SOL    HW277067  10.731  10.332   5.386
58410SOL     OW77068  14.120   2.011   9.566
58410SOL    HW177069  14.200   1.960   9.553
58410SOL    HW277070  14.148   2.102   9.564
58411SOL     OW77071   4.110   6.318   4.143
58411SOL    HW177072   4.019   6.288   4.135
58411SOL    HW277073   4.159   6.241   4.171
58412SOL     OW77074   0.753  11.179  13.867
58412SOL    HW177075   0.682  11.162  13.804
58412SOL    HW277076   0.755  11.100  13.921
58413SOL     OW77077   6.494   8.346   1.296
58413SOL    HW177078   6.403   8.346   1.267
58413SOL    HW277079   6.543   8.309   1.222
58414SOL     OW77080   7.769   9.583   9.580
58414SOL    HW177081   7.816   9.503   9.555
58414SOL    HW277082   7.685   9.551   9.613
58415SOL     OW77083   8.142   3.171   7.166
58415SOL    HW177084   8.137   3.258   7.126
58415SOL    HW277085   8.051   3.142   7.171
58416SOL     OW77086  13.835   9.717  10.794
58416SOL    HW177087  13.751   9.683  10.763
58416SOL    HW277088  13.844   9.681  10.882
58417SOL     OW77089  11.066  11.195  13.077
58417SOL    HW177090  11.071  11.100  13.062
58417SOL    HW277091  11.131  11.232  13.017
58418SOL     OW77092   8.511   0.274  11.816
58418SOL    HW177093   8.548   0.335  11.753
58418SOL    HW277094   8.437   0.233  11.769
58419SOL     OW77095   7.868  14.772  14.570
58419SOL    HW177096   7.892  14.682  14.547
58419SOL    HW277097   7.780  14.764  14.607
58420SOL     OW77098  10.565   8.030  13.190
58420SOL    HW177099  10.478   8.058  13.160
58420SOL    HW277100  10.599   8.105  13.239
58421SOL     OW77101  14.047   2.781   9.819
58421SOL    HW177102  14.089   2.748   9.739
58421SOL    HW277103  14.115   2.836   9.860
58422SOL     OW77104   6.891   0.092   0.540
58422SOL    HW177105   6.953   0.063   0.474
58422SOL    HW277106   6.943   0.099   0.621
58423SOL     OW77107  11.167   0.307   5.020
58423SOL    HW177108  11.125   0.391   5.001
58423SOL    HW277109  11.239   0.302   4.957
58424SOL     OW77110   1.384   7.656   6.353
58424SOL    HW177111   1.435   7.703   6.287
58424SOL    HW277112   1.401   7.564   6.336
58425SOL     OW77113   8.346  14.563   9.084
58425SOL    HW177114   8.298  14.527   9.160
58425SOL    HW277115   8.438  14.542   9.102
58426SOL     OW77116   6.216  10.040  14.688
58426SOL    HW177117   6.250   9.957  14.654
58426SOL    HW277118   6.123  10.039  14.664
58427SOL     OW77119   6.816   7.512   7.862
58427SOL    HW177120   6.748   7.577   7.878
58427SOL    HW277121   6.809   7.452   7.936
58428SOL     OW77122  11.093   0.617   5.278
58428SOL    HW177123  11.118   0.704   5.310
58428SOL    HW277124  11.106   0.621   5.184
58429SOL     OW77125   4.867   8.784  10.985
58429SOL    HW177126   4.925   8.787  10.908
58429SOL    HW277127   4.905   8.848  11.046
58430SOL     OW77128  11.705   5.469  11.450
58430SOL    HW177129  11.642   5.407  11.415
58430SOL    HW277130  11.684   5.476  11.543
58431SOL     OW77131   3.535   3.910  12.379
58431SOL    HW177132   3.590   3.987  12.397
58431SOL    HW277133   3.448   3.935  12.410
58432SOL     OW77134  10.635   8.097  10.655
58432SOL    HW177135  10.675   8.178  10.621
58432SOL    HW277136  10.701   8.030  10.638
58433SOL     OW77137   2.451   0.309  11.810
58433SOL    HW177138   2.402   0.380  11.768
58433SOL    HW277139   2.543   0.331  11.795
58434SOL     OW77140   7.295   5.695   7.863
58434SOL    HW177141   7.321   5.634   7.794
58434SOL    HW277142   7.319   5.651   7.944
58435SOL     OW77143   2.824   0.872   7.755
58435SOL    HW177144   2.905   0.923   7.751
58435SOL    HW277145   2.833   0.807   7.685
58436SOL     OW77146  11.460  11.844   0.626
58436SOL    HW177147  11.409  11.920   0.597
58436SOL    HW277148  11.410  11.807   0.698
58437SOL     OW77149   1.130   2.200   6.240
58437SOL    HW177150   1.162   2.131   6.182
58437SOL    HW277151   1.133   2.279   6.187
58438SOL     OW77152   9.296   5.953   4.128
58438SOL    HW177153   9.327   5.958   4.038
58438SOL    HW277154   9.337   5.874   4.164
58439SOL     OW77155  10.062  11.144   3.783
58439SOL    HW177156  10.049  11.229   3.741
58439SOL    HW277157  10.084  11.166   3.874
58440SOL     OW77158   7.237  13.149   2.930
58440SOL    HW177159   7.282  13.180   3.009
58440SOL    HW277160   7.193  13.226   2.895
58441SOL     OW77161   6.442  14.455   6.905
58441SOL    HW177162   6.462  14.373   6.950
58441SOL    HW277163   6.358  14.439   6.862
58442SOL     OW77164   3.412  10.659  13.281
58442SOL    HW177165   3.499  10.647  13.241
58442SOL    HW277166   3.375  10.734  13.235
58443SOL     OW77167  10.024   2.664   1.509
58443SOL    HW177168  10.021   2.758   1.522
58443SOL    HW277169  10.082   2.652   1.433
58444SOL     OW77170   2.784   2.538   8.308
58444SOL    HW177171   2.825   2.622   8.327
58444SOL    HW277172   2.690   2.558   8.307
58445SOL     OW77173   7.516   1.923   7.513
58445SOL    HW177174   7.568   1.991   7.556
58445SOL    HW277175   7.559   1.841   7.536
58446SOL     OW77176   5.354   3.797  12.237
58446SOL    HW177177   5.271   3.843  12.225
58446SOL    HW277178   5.419   3.866  12.249
58447SOL     OW77179   7.478   6.982   1.846
58447SOL    HW177180   7.556   6.928   1.846
58447SOL    HW277181   7.498   7.054   1.905
58448SOL     OW77182   8.173   6.954   9.955
58448SOL    HW177183   8.140   7.039   9.985
58448SOL    HW277184   8.112   6.890   9.992
58449SOL     OW77185   2.099  14.466   8.084
58449SOL    HW177186   2.056  14.473   8.169
58449SOL    HW277187   2.027  14.459   8.021
58450SOL     OW77188   8.464   3.536   2.686
58450SOL    HW177189   8.472   3.481   2.764
58450SOL    HW277190   8.554   3.562   2.665
58451SOL     OW77191   3.620  13.909  10.164
58451SOL    HW177192   3.616  13.825  10.210
58451SOL    HW277193   3.667  13.967  10.224
58452SOL     OW77194  10.251  11.685   5.618
58452SOL    HW177195  10.266  11.628   5.542
58452SOL    HW277196  10.175  11.647   5.662
58453SOL     OW77197   8.717  10.888   2.261
58453SOL    HW177198   8.812  10.898   2.257
58453SOL    HW277199   8.691  10.939   2.338
58454SOL     OW77200  11.625   9.077   8.063
58454SOL    HW177201  11.608   9.147   8.000
58454SOL    HW277202  11.699   9.029   8.027
58455SOL     OW77203  13.363   1.155   4.541
58455SOL    HW177204  13.288   1.212   4.524
58455SOL    HW277205  13.359   1.089   4.472
58456SOL     OW77206   0.155   9.359   7.183
58456SOL    HW177207   0.201   9.306   7.248
58456SOL    HW277208   0.139   9.443   7.226
58457SOL     OW77209   3.902   3.426   2.293
58457SOL    HW177210   3.940   3.344   2.262
58457SOL    HW277211   3.950   3.446   2.373
58458SOL     OW77212   5.671   8.649   9.719
58458SOL    HW177213   5.583   8.675   9.745
58458SOL    HW277214   5.719   8.640   9.801
58459SOL     OW77215   0.535   1.434   0.972
58459SOL    HW177216   0.601   1.466   1.034
58459SOL    HW277217   0.531   1.340   0.986
58460SOL     OW77218   6.955  14.143   5.768
58460SOL    HW177219   6.898  14.085   5.718
58460SOL    HW277220   6.988  14.089   5.840
58461SOL     OW77221   2.370  11.072   7.311
58461SOL    HW177222   2.362  10.989   7.265
58461SOL    HW277223   2.295  11.124   7.282
58462SOL     OW77224   4.041   2.765  14.206
58462SOL    HW177225   4.096   2.798  14.277
58462SOL    HW277226   4.000   2.843  14.170
58463SOL     OW77227   8.021  11.947   8.879
58463SOL    HW177228   7.995  11.856   8.863
58463SOL    HW277229   7.988  11.995   8.803
58464SOL     OW77230   7.697   4.447   8.459
58464SOL    HW177231   7.671   4.416   8.546
58464SOL    HW277232   7.729   4.536   8.474
58465SOL     OW77233   9.349  10.446   1.189
58465SOL    HW177234   9.430  10.489   1.160
58465SOL    HW277235   9.296  10.438   1.110
58466SOL     OW77236  13.441  13.024   0.390
58466SOL    HW177237  13.447  13.089   0.460
58466SOL    HW277238  13.404  12.947   0.433
58467SOL     OW77239   0.829   0.854  12.243
58467SOL    HW177240   0.774   0.915  12.194
58467SOL    HW277241   0.878   0.807  12.176
58468SOL     OW77242   5.731   3.800  13.212
58468SOL    HW177243   5.758   3.769  13.126
58468SOL    HW277244   5.810   3.792  13.266
58469SOL     OW77245   5.063   7.742  11.148
58469SOL    HW177246   5.024   7.717  11.064
58469SOL    HW277247   5.127   7.809  11.126
58470SOL     OW77248   2.923   9.569   2.677
58470SOL    HW177249   2.918   9.560   2.582
58470SOL    HW277250   2.832   9.575   2.705
58471SOL     OW77251   1.402   3.789   6.838
58471SOL    HW177252   1.495   3.800   6.818
58471SOL    HW277253   1.359   3.795   6.753
58472SOL     OW77254   6.255   6.910  14.426
58472SOL    HW177255   6.187   6.977  14.437
58472SOL    HW277256   6.337   6.960  14.423
58473SOL     OW77257  10.149   2.133   1.346
58473SOL    HW177258  10.124   2.180   1.266
58473SOL    HW277259  10.065   2.111   1.388
58474SOL     OW77260   6.809  14.234   5.165
58474SOL    HW177261   6.716  14.248   5.181
58474SOL    HW277262   6.815  14.210   5.073
58475SOL     OW77263   4.373   1.996  14.644
58475SOL    HW177264   4.338   2.029  14.727
58475SOL    HW277265   4.468   2.008  14.653
58476SOL     OW77266   0.224   2.929  12.876
58476SOL    HW177267   0.247   3.020  12.893
58476SOL    HW277268   0.308   2.883  12.876
58477SOL     OW77269   8.051   0.156   2.608
58477SOL    HW177270   8.016   0.131   2.522
58477SOL    HW277271   8.006   0.237   2.629
58478SOL     OW77272   9.711   4.924   7.603
58478SOL    HW177273   9.634   4.982   7.606
58478SOL    HW277274   9.773   4.970   7.547
58479SOL     OW77275   5.646   7.856   8.712
58479SOL    HW177276   5.640   7.771   8.670
58479SOL    HW277277   5.685   7.838   8.798
58480SOL     OW77278   3.089  11.633   1.518
58480SOL    HW177279   3.055  11.565   1.461
58480SOL    HW277280   3.092  11.592   1.605
58481SOL     OW77281  12.138  10.349  13.334
58481SOL    HW177282  12.142  10.254  13.346
58481SOL    HW277283  12.190  10.365  13.256
58482SOL     OW77284  13.332   6.603  14.001
58482SOL    HW177285  13.388   6.573  13.930
58482SOL    HW277286  13.364   6.691  14.021
58483SOL     OW77287   4.257   9.440   7.018
58483SOL    HW177288   4.199   9.382   7.067
58483SOL    HW277289   4.342   9.433   7.061
58484SOL     OW77290   6.682   4.391   7.671
58484SOL    HW177291   6.665   4.400   7.578
58484SOL    HW277292   6.729   4.308   7.679
58485SOL     OW77293   1.975  14.293   2.794
58485SOL    HW177294   1.894  14.344   2.790
58485SOL    HW277295   2.038  14.344   2.743
58486SOL     OW77296  11.702  14.538   3.955
58486SOL    HW177297  11.774  14.600   3.938
58486SOL    HW277298  11.745  14.461   3.993
58487SOL     OW77299   3.139  10.911   1.995
58487SOL    HW177300   3.137  10.815   1.990
58487SOL    HW277301   3.156  10.930   2.087
58488SOL     OW77302  13.373   2.458  11.973
58488SOL    HW177303  13.395   2.474  12.064
58488SOL    HW277304  13.309   2.526  11.951
58489SOL     OW77305   2.801   9.951   3.039
58489SOL    HW177306   2.810   9.994   2.954
58489SOL    HW277307   2.708   9.930   3.045
58490SOL     OW77308   4.004   4.618   6.541
58490SOL    HW177309   4.079   4.677   6.544
58490SOL    HW277310   3.931   4.671   6.573
58491SOL     OW77311   0.700   1.512  10.654
58491SOL    HW177312   0.695   1.503  10.749
58491SOL    HW277313   0.672   1.601  10.636
58492SOL     OW77314  10.607   7.576   8.509
58492SOL    HW177315  10.585   7.587   8.602
58492SOL    HW277316  10.584   7.486   8.490
58493SOL     OW77317  13.088  11.936   5.581
58493SOL    HW177318  13.126  11.870   5.523
58493SOL    HW277319  13.085  12.016   5.528
58494SOL     OW77320  11.346   2.149   2.852
58494SOL    HW177321  11.264   2.178   2.813
58494SOL    HW277322  11.382   2.086   2.789
58495SOL     OW77323  12.158   5.074   1.352
58495SOL    HW177324  12.123   5.100   1.267
58495SOL    HW277325  12.109   4.995   1.376
58496SOL     OW77326  13.853   8.506  12.771
58496SOL    HW177327  13.860   8.494  12.676
58496SOL    HW277328  13.775   8.560  12.783
58497SOL     OW77329   3.091  13.867   6.161
58497SOL    HW177330   3.083  13.783   6.115
58497SOL    HW277331   3.171  13.906   6.126
58498SOL     OW77332   3.603  12.921  11.379
58498SOL    HW177333   3.514  12.934  11.348
58498SOL    HW277334   3.605  12.832  11.412
58499SOL     OW77335   1.191   3.770   8.465
58499SOL    HW177336   1.155   3.695   8.513
58499SOL    HW277337   1.285   3.756   8.467
58500SOL     OW77338   0.728   3.064   5.778
58500SOL    HW177339   0.763   3.021   5.700
58500SOL    HW277340   0.760   3.155   5.771
58501SOL     OW77341  14.785   6.517  12.253
58501SOL    HW177342  14.781   6.425  12.279
58501SOL    HW277343  14.701   6.534  12.210
58502SOL     OW77344   1.582  11.278  10.022
58502SOL    HW177345   1.555  11.327   9.944
58502SOL    HW277346   1.523  11.203  10.024
58503SOL     OW77347   9.996  12.052  10.190
58503SOL    HW177348  10.071  12.081  10.242
58503SOL    HW277349   9.940  12.004  10.251
58504SOL     OW77350   0.937   7.281   7.075
58504SOL    HW177351   0.887   7.199   7.069
58504SOL    HW277352   0.871   7.349   7.085
58505SOL     OW77353   3.307   9.839   2.034
58505SOL    HW177354   3.296   9.745   2.019
58505SOL    HW277355   3.269   9.880   1.956
58506SOL     OW77356  14.299   5.400   4.566
58506SOL    HW177357  14.221   5.348   4.543
58506SOL    HW277358  14.362   5.379   4.497
58507SOL     OW77359   3.472  10.142   3.391
58507SOL    HW177360   3.543  10.199   3.361
58507SOL    HW277361   3.423  10.121   3.311
58508SOL     OW77362   9.971   4.287  11.928
58508SOL    HW177363  10.059   4.250  11.924
58508SOL    HW277364   9.924   4.233  11.992
58509SOL     OW77365  10.537  10.973  14.303
58509SOL    HW177366  10.460  10.917  14.305
58509SOL    HW277367  10.604  10.923  14.350
58510SOL     OW77368   6.001  12.505   6.546
58510SOL    HW177369   5.961  12.578   6.498
58510SOL    HW277370   6.052  12.547   6.615
58511SOL     OW77371   9.910   8.384  13.536
58511SOL    HW177372   9.947   8.305  13.575
58511SOL    HW277373   9.972   8.408  13.467
58512SOL     OW77374   5.291   8.249  12.313
58512SOL    HW177375   5.295   8.179  12.248
58512SOL    HW277376   5.364   8.307  12.290
58513SOL     OW77377   9.224   7.112  10.041
58513SOL    HW177378   9.133   7.085  10.033
58513SOL    HW277379   9.221   7.207  10.048
58514SOL     OW77380   8.622   5.096  13.451
58514SOL    HW177381   8.676   5.126  13.377
58514SOL    HW277382   8.612   5.174  13.506
58515SOL     OW77383   0.702   6.647   0.383
58515SOL    HW177384   0.752   6.707   0.328
58515SOL    HW277385   0.654   6.703   0.443
58516SOL     OW77386  10.990   2.223   0.506
58516SOL    HW177387  11.011   2.293   0.444
58516SOL    HW277388  10.900   2.241   0.534
58517SOL     OW77389   9.185   0.210   8.976
58517SOL    HW177390   9.172   0.296   9.015
58517SOL    HW277391   9.190   0.227   8.882
58518SOL     OW77392   2.278  10.427   2.551
58518SOL    HW177393   2.225  10.471   2.484
58518SOL    HW277394   2.368  10.456   2.533
58519SOL     OW77395   4.339   7.870   3.983
58519SOL    HW177396   4.349   7.775   3.987
58519SOL    HW277397   4.258   7.883   3.933
58520SOL     OW77398   6.423   0.792  12.267
58520SOL    HW177399   6.356   0.798  12.336
58520SOL    HW277400   6.455   0.702  12.273
58521SOL     OW77401   5.960  10.428   2.560
58521SOL    HW177402   5.890  10.383   2.608
58521SOL    HW277403   5.996  10.491   2.623
58522SOL     OW77404   2.184  13.738   6.152
58522SOL    HW177405   2.213  13.647   6.144
58522SOL    HW277406   2.088  13.732   6.154
58523SOL     OW77407   5.976   7.575   3.318
58523SOL    HW177408   5.988   7.483   3.293
58523SOL    HW277409   5.993   7.624   3.238
58524SOL     OW77410   1.981   2.410   1.561
58524SOL    HW177411   1.988   2.406   1.466
58524SOL    HW277412   2.055   2.358   1.592
58525SOL     OW77413  12.485   8.487   4.963
58525SOL    HW177414  12.535   8.523   4.890
58525SOL    HW277415  12.422   8.555   4.986
58526SOL     OW77416   5.647   5.326   9.405
58526SOL    HW177417   5.571   5.317   9.348
58526SOL    HW277418   5.658   5.420   9.416
58527SOL     OW77419  11.660   6.785   0.696
58527SOL    HW177420  11.666   6.782   0.601
58527SOL    HW277421  11.642   6.877   0.716
58528SOL     OW77422  12.665   1.720   9.469
58528SOL    HW177423  12.614   1.720   9.550
58528SOL    HW277424  12.669   1.812   9.443
58529SOL     OW77425   9.247  13.627   3.361
58529SOL    HW177426   9.330  13.647   3.318
58529SOL    HW277427   9.232  13.534   3.342
58530SOL     OW77428   6.443  10.763   0.274
58530SOL    HW177429   6.443  10.688   0.334
58530SOL    HW277430   6.350  10.781   0.258
58531SOL     OW77431   6.298   0.430   8.919
58531SOL    HW177432   6.313   0.500   8.856
58531SOL    HW277433   6.378   0.377   8.917
58532SOL     OW77434   0.751   7.861   3.682
58532SOL    HW177435   0.757   7.898   3.593
58532SOL    HW277436   0.808   7.784   3.680
58533SOL     OW77437  14.819   0.679   0.449
58533SOL    HW177438  14.846   0.591   0.476
58533SOL    HW277439  14.810   0.672   0.354
58534SOL     OW77440   6.887   1.062   6.640
58534SOL    HW177441   6.831   1.020   6.576
58534SOL    HW277442   6.973   1.066   6.598
58535SOL     OW77443   2.097   1.306   6.950
58535SOL    HW177444   2.187   1.336   6.938
58535SOL    HW277445   2.069   1.346   7.033
58536SOL     OW77446   7.910   3.385   7.385
58536SOL    HW177447   7.934   3.392   7.478
58536SOL    HW277448   7.990   3.405   7.338
58537SOL     OW77449   4.163  13.008   5.270
58537SOL    HW177450   4.254  13.006   5.241
58537SOL    HW277451   4.165  13.057   5.352
58538SOL     OW77452   5.048   8.190   4.858
58538SOL    HW177453   4.991   8.144   4.796
58538SOL    HW277454   5.134   8.152   4.844
58539SOL     OW77455  14.265   3.681   0.979
58539SOL    HW177456  14.261   3.762   1.030
58539SOL    HW277457  14.177   3.668   0.945
58540SOL     OW77458   4.614   5.545   2.083
58540SOL    HW177459   4.621   5.534   1.988
58540SOL    HW277460   4.576   5.463   2.114
58541SOL     OW77461  10.146  10.442  11.169
58541SOL    HW177462  10.120  10.443  11.077
58541SOL    HW277463  10.079  10.389  11.213
58542SOL     OW77464   9.147  11.127   8.930
58542SOL    HW177465   9.157  11.199   8.992
58542SOL    HW277466   9.073  11.077   8.962
58543SOL     OW77467  13.014   8.825   4.371
58543SOL    HW177468  13.029   8.873   4.290
58543SOL    HW277469  13.025   8.891   4.440
58544SOL     OW77470   7.051   7.373   6.756
58544SOL    HW177471   7.039   7.325   6.674
58544SOL    HW277472   7.121   7.326   6.802
58545SOL     OW77473   1.251  12.892  10.527
58545SOL    HW177474   1.222  12.942  10.450
58545SOL    HW277475   1.176  12.839  10.551
58546SOL     OW77476   6.504   6.062  11.537
58546SOL    HW177477   6.421   6.013  11.536
58546SOL    HW277478   6.571   5.995  11.552
58547SOL     OW77479   6.852   8.452  14.069
58547SOL    HW177480   6.879   8.496  14.149
58547SOL    HW277481   6.907   8.374  14.064
58548SOL     OW77482   2.209   1.259   8.870
58548SOL    HW177483   2.258   1.189   8.914
58548SOL    HW277484   2.232   1.338   8.919
58549SOL     OW77485   2.113   5.150  14.564
58549SOL    HW177486   2.025   5.147  14.527
58549SOL    HW277487   2.127   5.243  14.585
58550SOL     OW77488  12.064   7.965  12.414
58550SOL    HW177489  12.099   7.994  12.498
58550SOL    HW277490  12.126   7.997  12.349
58551SOL     OW77491   5.432   4.436   1.753
58551SOL    HW177492   5.444   4.479   1.838
58551SOL    HW277493   5.339   4.449   1.733
58552SOL     OW77494  12.008   7.169  13.515
58552SOL    HW177495  11.991   7.088  13.564
58552SOL    HW277496  12.038   7.139  13.429
58553SOL     OW77497  10.101  14.868  11.303
58553SOL    HW177498  10.120  14.774  11.303
58553SOL    HW277499  10.187   0.029  11.315
58554SOL     OW77500   7.227   4.120   4.717
58554SOL    HW177501   7.144   4.163   4.697
58554SOL    HW277502   7.270   4.111   4.632
58555SOL     OW77503   6.153   9.999   0.604
58555SOL    HW177504   6.075   9.978   0.656
58555SOL    HW277505   6.186   9.915   0.574
58556SOL     OW77506   9.489   5.473   6.723
58556SOL    HW177507   9.485   5.548   6.783
58556SOL    HW277508   9.434   5.407   6.764
58557SOL     OW77509   6.379   1.730   9.514
58557SOL    HW177510   6.354   1.686   9.432
58557SOL    HW277511   6.442   1.671   9.554
58558SOL     OW77512   0.325   4.844  12.871
58558SOL    HW177513   0.378   4.830  12.949
58558SOL    HW277514   0.235   4.850  12.903
58559SOL     OW77515   5.794  10.230   2.671
58559SOL    HW177516   5.710  10.245   2.714
58559SOL    HW277517   5.831  10.155   2.718
58560SOL     OW77518   3.175  10.510   2.746
58560SOL    HW177519   3.137  10.523   2.833
58560SOL    HW277520   3.133  10.431   2.713
58561SOL     OW77521  12.955  13.303  13.554
58561SOL    HW177522  13.007  13.312  13.474
58561SOL    HW277523  12.880  13.362  13.540
58562SOL     OW77524   0.338   1.682   5.502
58562SOL    HW177525   0.288   1.742   5.557
58562SOL    HW277526   0.390   1.630   5.564
58563SOL     OW77527   7.542  11.213   8.151
58563SOL    HW177528   7.506  11.134   8.190
58563SOL    HW277529   7.476  11.240   8.086
58564SOL     OW77530  11.151  14.191   9.936
58564SOL    HW177531  11.085  14.166  10.001
58564SOL    HW277532  11.154  14.287   9.942
58565SOL     OW77533   3.453  13.306  11.803
58565SOL    HW177534   3.443  13.288  11.710
58565SOL    HW277535   3.547  13.303  11.818
58566SOL     OW77536  11.003   9.354  14.497
58566SOL    HW177537  10.984   9.428  14.440
58566SOL    HW277538  11.097   9.362  14.515
58567SOL     OW77539  13.006  12.800  12.542
58567SOL    HW177540  13.090  12.771  12.507
58567SOL    HW277541  13.024  12.884  12.583
58568SOL     OW77542   7.670  11.506   6.036
58568SOL    HW177543   7.658  11.471   5.947
58568SOL    HW277544   7.727  11.582   6.024
58569SOL     OW77545   2.323   1.515  14.449
58569SOL    HW177546   2.269   1.437  14.459
58569SOL    HW277547   2.396   1.501  14.509
58570SOL     OW77548   9.454   4.438   2.970
58570SOL    HW177549   9.380   4.458   3.027
58570SOL    HW277550   9.500   4.366   3.013
58571SOL     OW77551   0.902   1.780   5.491
58571SOL    HW177552   0.946   1.756   5.573
58571SOL    HW277553   0.887   1.874   5.499
58572SOL     OW77554   4.413   1.386   6.166
58572SOL    HW177555   4.425   1.335   6.086
58572SOL    HW277556   4.501   1.403   6.198
58573SOL     OW77557   0.528   9.580   5.574
58573SOL    HW177558   0.478   9.592   5.493
58573SOL    HW277559   0.597   9.647   5.569
58574SOL     OW77560  13.846   5.104   3.851
58574SOL    HW177561  13.819   5.060   3.932
58574SOL    HW277562  13.936   5.073   3.837
58575SOL     OW77563  12.563   6.545   8.159
58575SOL    HW177564  12.623   6.471   8.149
58575SOL    HW277565  12.500   6.534   8.087
58576SOL     OW77566  13.495   6.810  11.622
58576SOL    HW177567  13.572   6.788  11.569
58576SOL    HW277568  13.447   6.873  11.569
58577SOL     OW77569   7.369   8.621   8.602
58577SOL    HW177570   7.447   8.607   8.657
58577SOL    HW277571   7.339   8.533   8.581
58578SOL     OW77572   8.192   7.972  12.162
58578SOL    HW177573   8.188   8.038  12.232
58578SOL    HW277574   8.114   7.918  12.176
58579SOL     OW77575  13.785   3.499  12.946
58579SOL    HW177576  13.797   3.452  13.028
58579SOL    HW277577  13.843   3.454  12.884
58580SOL     OW77578   6.890   1.887  13.865
58580SOL    HW177579   6.948   1.962  13.851
58580SOL    HW277580   6.844   1.907  13.946
58581SOL     OW77581  14.870  13.648   3.093
58581SOL    HW177582  14.863  13.743   3.079
58581SOL    HW277583   0.077  13.635   3.129
58582SOL     OW77584   5.807   0.253   2.747
58582SOL    HW177585   5.779   0.214   2.830
58582SOL    HW277586   5.739   0.229   2.685
58583SOL     OW77587   7.991   0.271   9.888
58583SOL    HW177588   8.007   0.196   9.831
58583SOL    HW277589   7.905   0.304   9.861
58584SOL     OW77590   9.636   3.657   5.404
58584SOL    HW177591   9.711   3.621   5.357
58584SOL    HW277592   9.670   3.676   5.492
58585SOL     OW77593   4.399  11.861  10.832
58585SOL    HW177594   4.426  11.845  10.741
58585SOL    HW277595   4.419  11.953  10.847
58586SOL     OW77596  12.711   3.549  11.072
58586SOL    HW177597  12.787   3.579  11.021
58586SOL    HW277598  12.636   3.569  11.016
58587SOL     OW77599   4.937   9.095   2.067
58587SOL    HW177600   5.006   9.031   2.083
58587SOL    HW277601   4.938   9.151   2.144
58588SOL     OW77602   6.898  10.020   0.808
58588SOL    HW177603   6.963   9.991   0.743
58588SOL    HW277604   6.827  10.056   0.755
58589SOL     OW77605  10.406   6.948   3.258
58589SOL    HW177606  10.348   6.923   3.330
58589SOL    HW277607  10.346   6.979   3.189
58590SOL     OW77608   5.494  11.594   7.972
58590SOL    HW177609   5.545  11.534   7.918
58590SOL    HW277610   5.495  11.676   7.923
58591SOL     OW77611  12.247   2.134  10.355
58591SOL    HW177612  12.199   2.072  10.409
58591SOL    HW277613  12.183   2.201  10.332
58592SOL     OW77614  11.671  13.131   9.414
58592SOL    HW177615  11.702  13.212   9.375
58592SOL    HW277616  11.576  13.136   9.405
58593SOL     OW77617   2.629   5.705  13.291
58593SOL    HW177618   2.586   5.634  13.339
58593SOL    HW277619   2.693   5.661  13.236
58594SOL     OW77620  14.209  14.403   5.224
58594SOL    HW177621  14.178  14.378   5.312
58594SOL    HW277622  14.276  14.337   5.204
58595SOL     OW77623  10.694   8.082   0.499
58595SOL    HW177624  10.750   8.013   0.463
58595SOL    HW277625  10.616   8.036   0.531
58596SOL     OW77626   3.198   2.861   8.813
58596SOL    HW177627   3.194   2.943   8.863
58596SOL    HW277628   3.275   2.871   8.758
58597SOL     OW77629   6.935   5.162  13.535
58597SOL    HW177630   6.842   5.150  13.514
58597SOL    HW277631   6.958   5.085  13.588
58598SOL     OW77632   8.328  12.986  12.839
58598SOL    HW177633   8.318  12.907  12.892
58598SOL    HW277634   8.366  13.051  12.899
58599SOL     OW77635   0.548   9.652   3.034
58599SOL    HW177636   0.453   9.653   3.021
58599SOL    HW277637   0.561   9.596   3.111
58600SOL     OW77638  12.824  13.695   8.132
58600SOL    HW177639  12.919  13.696   8.142
58600SOL    HW277640  12.810  13.673   8.040
58601SOL     OW77641  13.368   7.780   2.217
58601SOL    HW177642  13.284   7.742   2.242
58601SOL    HW277643  13.433   7.720   2.254
58602SOL     OW77644   1.435  14.169   9.765
58602SOL    HW177645   1.366  14.156   9.830
58602SOL    HW277646   1.502  14.105   9.789
58603SOL     OW77647   0.139  14.225   9.891
58603SOL    HW177648   0.182  14.299   9.849
58603SOL    HW277649   0.134  14.250   9.983
58604SOL     OW77650  11.666  13.089  12.920
58604SOL    HW177651  11.737  13.098  12.983
58604SOL    HW277652  11.655  12.995  12.908
58605SOL     OW77653   4.081  10.427   1.897
58605SOL    HW177654   4.080  10.380   1.814
58605SOL    HW277655   4.015  10.384   1.951
58606SOL     OW77656  12.576  13.948   0.760
58606SOL    HW177657  12.533  13.968   0.676
58606SOL    HW277658  12.516  13.982   0.826
58607SOL     OW77659  13.034   4.483   1.198
58607SOL    HW177660  13.129   4.473   1.203
58607SOL    HW277661  13.003   4.397   1.171
58608SOL     OW77662  11.758   8.682   7.175
58608SOL    HW177663  11.776   8.625   7.250
58608SOL    HW277664  11.761   8.771   7.211
58609SOL     OW77665  13.295   1.902   8.245
58609SOL    HW177666  13.200   1.902   8.238
58609SOL    HW277667  13.322   1.816   8.213
58610SOL     OW77668   2.283   1.898  11.847
58610SOL    HW177669   2.253   1.986  11.867
58610SOL    HW277670   2.276   1.890  11.752
58611SOL     OW77671   7.121   8.658  12.978
58611SOL    HW177672   7.209   8.665  13.015
58611SOL    HW277673   7.097   8.566  12.989
58612SOL     OW77674  11.791   7.646  13.025
58612SOL    HW177675  11.874   7.692  13.022
58612SOL    HW277676  11.725   7.716  13.023
58613SOL     OW77677   0.873   8.614  14.195
58613SOL    HW177678   0.913   8.674  14.257
58613SOL    HW277679   0.782   8.644  14.188
58614SOL     OW77680   4.684   4.901   8.114
58614SOL    HW177681   4.718   4.990   8.118
58614SOL    HW277682   4.758   4.849   8.081
58615SOL     OW77683   3.261   9.874   0.812
58615SOL    HW177684   3.302   9.960   0.816
58615SOL    HW277685   3.203   9.878   0.737
58616SOL     OW77686   0.601   3.347   8.881
58616SOL    HW177687   0.582   3.438   8.857
58616SOL    HW277688   0.517   3.302   8.873
58617SOL     OW77689  12.773   3.439  12.086
58617SOL    HW177690  12.824   3.454  12.165
58617SOL    HW277691  12.777   3.344  12.073
58618SOL     OW77692   7.124  14.848   5.339
58618SOL    HW177693   7.053  14.813   5.394
58618SOL    HW277694   7.142  14.778   5.277
58619SOL     OW77695  11.105  10.792  11.835
58619SOL    HW177696  11.199  10.779  11.842
58619SOL    HW277697  11.092  10.823  11.745
58620SOL     OW77698   1.469   3.613   1.704
58620SOL    HW177699   1.442   3.615   1.612
58620SOL    HW277700   1.490   3.704   1.724
58621SOL     OW77701   1.285   7.366  10.007
58621SOL    HW177702   1.310   7.324  10.090
58621SOL    HW277703   1.205   7.320   9.980
58622SOL     OW77704   5.772  13.615  12.186
58622SOL    HW177705   5.807  13.529  12.164
58622SOL    HW277706   5.781  13.621  12.281
58623SOL     OW77707  14.426   2.930   3.094
58623SOL    HW177708  14.455   2.862   3.033
58623SOL    HW277709  14.361   2.886   3.149
58624SOL     OW77710   0.799   4.020   0.972
58624SOL    HW177711   0.757   3.935   0.989
58624SOL    HW277712   0.892   4.000   0.964
58625SOL     OW77713  11.267   5.803   2.260
58625SOL    HW177714  11.203   5.749   2.308
58625SOL    HW277715  11.242   5.893   2.280
58626SOL     OW77716   3.232   1.817  13.757
58626SOL    HW177717   3.156   1.871  13.777
58626SOL    HW277718   3.301   1.849  13.814
58627SOL     OW77719   6.755   9.854  10.852
58627SOL    HW177720   6.710   9.892  10.927
58627SOL    HW277721   6.821   9.796  10.890
58628SOL     OW77722   1.257  10.383   0.437
58628SOL    HW177723   1.286  10.359   0.349
58628SOL    HW277724   1.162  10.397   0.428
58629SOL     OW77725  13.717  10.475   6.087
58629SOL    HW177726  13.696  10.410   6.020
58629SOL    HW277727  13.635  10.489   6.134
58630SOL     OW77728   5.150   2.986   1.683
58630SOL    HW177729   5.091   3.056   1.654
58630SOL    HW277730   5.193   2.957   1.602
58631SOL     OW77731  11.791   4.023   5.512
58631SOL    HW177732  11.734   3.962   5.466
58631SOL    HW277733  11.874   3.975   5.523
58632SOL     OW77734   8.445   0.141   3.173
58632SOL    HW177735   8.471   0.167   3.261
58632SOL    HW277736   8.476   0.211   3.116
58633SOL     OW77737   2.962  11.053  10.753
58633SOL    HW177738   2.958  11.032  10.846
58633SOL    HW277739   3.037  11.112  10.744
58634SOL     OW77740  11.963  14.869  10.132
58634SOL    HW177741  12.015  14.789  10.122
58634SOL    HW277742  11.879  14.839  10.168
58635SOL     OW77743   0.536  13.910   7.491
58635SOL    HW177744   0.456  13.933   7.538
58635SOL    HW277745   0.546  13.816   7.505
58636SOL     OW77746  11.887   0.657   8.840
58636SOL    HW177747  11.949   0.635   8.910
58636SOL    HW277748  11.941   0.694   8.771
58637SOL     OW77749   6.827   4.673  14.420
58637SOL    HW177750   6.853   4.763  14.399
58637SOL    HW277751   6.861   4.658  14.508
58638SOL     OW77752  11.975   8.756   4.532
58638SOL    HW177753  11.885   8.722   4.531
58638SOL    HW277754  12.029   8.679   4.547
58639SOL     OW77755   7.918   7.117   2.168
58639SOL    HW177756   8.001   7.153   2.199
58639SOL    HW277757   7.940   7.076   2.085
58640SOL     OW77758   1.134   9.562   3.290
58640SOL    HW177759   1.058   9.600   3.247
58640SOL    HW277760   1.117   9.573   3.384
58641SOL     OW77761   7.599   2.673   1.982
58641SOL    HW177762   7.678   2.653   1.932
58641SOL    HW277763   7.568   2.755   1.945
58642SOL     OW77764  13.848   8.028   5.288
58642SOL    HW177765  13.763   8.012   5.327
58642SOL    HW277766  13.852   7.969   5.212
58643SOL     OW77767   1.807  11.702   1.404
58643SOL    HW177768   1.781  11.785   1.364
58643SOL    HW277769   1.735  11.680   1.462
58644SOL     OW77770   2.902   6.936   7.946
58644SOL    HW177771   2.918   6.895   7.861
58644SOL    HW277772   2.824   6.893   7.980
58645SOL     OW77773  14.406   5.298   9.893
58645SOL    HW177774  14.374   5.230   9.953
58645SOL    HW277775  14.449   5.362   9.950
58646SOL     OW77776   1.874   0.870  10.580
58646SOL    HW177777   1.886   0.965  10.578
58646SOL    HW277778   1.830   0.850  10.496
58647SOL     OW77779   4.840  11.339  12.274
58647SOL    HW177780   4.935  11.331  12.266
58647SOL    HW277781   4.808  11.249  12.274
58648SOL     OW77782  10.461   4.643  14.382
58648SOL    HW177783  10.512   4.708  14.430
58648SOL    HW277784  10.398   4.694  14.331
58649SOL     OW77785  10.195   8.548   4.283
58649SOL    HW177786  10.109   8.507   4.295
58649SOL    HW277787  10.187   8.633   4.328
58650SOL     OW77788   9.464   3.196  13.142
58650SOL    HW177789   9.415   3.218  13.222
58650SOL    HW277790   9.556   3.199  13.170
58651SOL     OW77791   4.024   2.551   3.603
58651SOL    HW177792   3.934   2.572   3.579
58651SOL    HW277793   4.017   2.465   3.646
58652SOL     OW77794  11.036   7.686   6.446
58652SOL    HW177795  11.085   7.728   6.375
58652SOL    HW277796  10.952   7.661   6.407
58653SOL     OW77797   1.717   5.035   8.576
58653SOL    HW177798   1.739   5.107   8.635
58653SOL    HW277799   1.631   5.004   8.607
58654SOL     OW77800  12.615  13.944  14.266
58654SOL    HW177801  12.645  13.967  14.178
58654SOL    HW277802  12.631  13.850  14.272
58655SOL     OW77803   6.734  11.887  12.158
58655SOL    HW177804   6.681  11.958  12.196
58655SOL    HW277805   6.811  11.883  12.215
58656SOL     OW77806  10.226  11.303   0.898
58656SOL    HW177807  10.249  11.245   0.971
58656SOL    HW277808  10.141  11.271   0.869
58657SOL     OW77809  12.515  13.144   1.552
58657SOL    HW177810  12.565  13.124   1.632
58657SOL    HW277811  12.433  13.097   1.562
58658SOL     OW77812   7.844   8.128  14.121
58658SOL    HW177813   7.894   8.208  14.133
58658SOL    HW277814   7.753   8.156  14.121
58659SOL     OW77815   6.692  14.514   9.172
58659SOL    HW177816   6.764  14.558   9.127
58659SOL    HW277817   6.646  14.466   9.103
58660SOL     OW77818   6.539   9.010  10.287
58660SOL    HW177819   6.601   9.040  10.221
58660SOL    HW277820   6.486   8.944  10.242
58661SOL     OW77821   2.335   9.095  11.144
58661SOL    HW177822   2.331   9.183  11.182
58661SOL    HW277823   2.343   9.110  11.050
58662SOL     OW77824   1.241   6.739  12.182
58662SOL    HW177825   1.251   6.691  12.265
58662SOL    HW277826   1.190   6.680  12.126
58663SOL     OW77827   5.006   1.655  13.876
58663SOL    HW177828   4.967   1.704  13.947
58663SOL    HW277829   5.056   1.585  13.919
58664SOL     OW77830  10.120   0.882  11.329
58664SOL    HW177831  10.206   0.910  11.361
58664SOL    HW277832  10.062   0.956  11.350
58665SOL     OW77833   1.481   9.433   9.738
58665SOL    HW177834   1.557   9.378   9.756
58665SOL    HW277835   1.518   9.520   9.720
58666SOL     OW77836   0.958  13.048  13.734
58666SOL    HW177837   0.991  12.976  13.680
58666SOL    HW277838   0.866  13.056  13.709
58667SOL     OW77839  13.273   8.888   7.676
58667SOL    HW177840  13.202   8.945   7.649
58667SOL    HW277841  13.333   8.887   7.602
58668SOL     OW77842  12.618  14.702   4.642
58668SOL    HW177843  12.705  14.703   4.604
58668SOL    HW277844  12.620  14.770   4.709
58669SOL     OW77845  11.047   7.209  11.808
58669SOL    HW177846  11.101   7.171  11.877
58669SOL    HW277847  11.030   7.298  11.837
58670SOL     OW77848   8.175   1.927   5.257
58670SOL    HW177849   8.245   1.924   5.321
58670SOL    HW277850   8.147   2.019   5.257
58671SOL     OW77851  13.953   3.204   8.413
58671SOL    HW177852  13.877   3.246   8.375
58671SOL    HW277853  13.937   3.203   8.507
58672SOL     OW77854   7.040   1.495  10.251
58672SOL    HW177855   7.121   1.495  10.302
58672SOL    HW277856   7.068   1.515  10.161
58673SOL     OW77857  10.434  10.715   1.955
58673SOL    HW177858  10.358  10.661   1.935
58673SOL    HW277859  10.509  10.657   1.948
58674SOL     OW77860   3.590  11.156  10.414
58674SOL    HW177861   3.508  11.136  10.369
58674SOL    HW277862   3.581  11.116  10.500
58675SOL     OW77863  11.217   2.179  12.583
58675SOL    HW177864  11.239   2.097  12.538
58675SOL    HW277865  11.136   2.207  12.543
58676SOL     OW77866  14.683   7.516   9.499
58676SOL    HW177867  14.729   7.468   9.431
58676SOL    HW277868  14.591   7.507   9.477
58677SOL     OW77869  12.352  13.995  14.341
58677SOL    HW177870  12.305  13.929  14.290
58677SOL    HW277871  12.440  13.959  14.350
58678SOL     OW77872   2.694   4.619   9.727
58678SOL    HW177873   2.710   4.674   9.650
58678SOL    HW277874   2.724   4.671   9.801
58679SOL     OW77875  13.512   8.942  13.111
58679SOL    HW177876  13.543   9.013  13.167
58679SOL    HW277877  13.494   8.984  13.027
58680SOL     OW77878  10.931   1.147   4.570
58680SOL    HW177879  10.887   1.232   4.573
58680SOL    HW277880  11.018   1.165   4.536
58681SOL     OW77881   7.945   6.228   8.770
58681SOL    HW177882   7.994   6.279   8.835
58681SOL    HW277883   7.892   6.293   8.724
58682SOL     OW77884   0.937  11.476   4.894
58682SOL    HW177885   0.857  11.473   4.842
58682SOL    HW277886   0.920  11.418   4.968
58683SOL     OW77887  14.217  13.860   0.629
58683SOL    HW177888  14.262  13.803   0.692
58683SOL    HW277889  14.156  13.802   0.584
58684SOL     OW77890   9.546  12.204   5.412
58684SOL    HW177891   9.495  12.284   5.421
58684SOL    HW277892   9.492  12.135   5.450
58685SOL     OW77893   6.623   8.301   7.308
58685SOL    HW177894   6.528   8.290   7.302
58685SOL    HW277895   6.638   8.395   7.298
58686SOL     OW77896  14.701   0.516  13.180
58686SOL    HW177897  14.666   0.431  13.157
58686SOL    HW277898  14.756   0.540  13.106
58687SOL     OW77899   8.675   3.343  11.247
58687SOL    HW177900   8.653   3.436  11.242
58687SOL    HW277901   8.711   3.332  11.335
58688SOL     OW77902  13.965   0.088  14.407
58688SOL    HW177903  13.892   0.145  14.380
58688SOL    HW277904  14.032   0.102  14.340
58689SOL     OW77905   1.283  12.319  14.322
58689SOL    HW177906   1.197  12.349  14.290
58689SOL    HW277907   1.303  12.243  14.269
58690SOL     OW77908   2.402  12.915   0.137
58690SOL    HW177909   2.354  12.997   0.127
58690SOL    HW277910   2.370  12.859   0.066
58691SOL     OW77911   1.215  12.715   6.207
58691SOL    HW177912   1.185  12.803   6.184
58691SOL    HW277913   1.285  12.697   6.145
58692SOL     OW77914   1.292   7.690   5.063
58692SOL    HW177915   1.236   7.752   5.110
58692SOL    HW277916   1.337   7.642   5.133
58693SOL     OW77917  12.666   5.060   3.366
58693SOL    HW177918  12.608   5.077   3.292
58693SOL    HW277919  12.613   5.080   3.443
58694SOL     OW77920   0.591   3.824   4.884
58694SOL    HW177921   0.593   3.918   4.902
58694SOL    HW277922   0.569   3.784   4.968
58695SOL     OW77923  11.597  14.283  12.725
58695SOL    HW177924  11.660  14.212  12.726
58695SOL    HW277925  11.621  14.338  12.800
58696SOL     OW77926   1.229  10.661  13.172
58696SOL    HW177927   1.320  10.689  13.168
58696SOL    HW277928   1.192  10.688  13.088
58697SOL     OW77929  11.949   1.489   0.426
58697SOL    HW177930  11.862   1.473   0.389
58697SOL    HW277931  11.966   1.413   0.481
58698SOL     OW77932   1.151   1.668  14.412
58698SOL    HW177933   1.212   1.732  14.448
58698SOL    HW277934   1.126   1.703  14.327
58699SOL     OW77935  12.147   9.963   0.753
58699SOL    HW177936  12.198  10.042   0.772
58699SOL    HW277937  12.058   9.985   0.780
58700SOL     OW77938   1.836   0.582  10.742
58700SOL    HW177939   1.827   0.673  10.714
58700SOL    HW277940   1.766   0.569  10.807
58701SOL     OW77941   4.051   5.625   2.321
58701SOL    HW177942   4.064   5.545   2.373
58701SOL    HW277943   4.125   5.625   2.259
58702SOL     OW77944   9.339   4.626   2.684
58702SOL    HW177945   9.420   4.656   2.725
58702SOL    HW277946   9.272   4.684   2.721
58703SOL     OW77947   6.464   4.074  10.652
58703SOL    HW177948   6.537   4.017  10.674
58703SOL    HW277949   6.498   4.130  10.582
58704SOL     OW77950   4.282   2.503   5.485
58704SOL    HW177951   4.331   2.434   5.440
58704SOL    HW277952   4.267   2.569   5.417
58705SOL     OW77953   4.463   0.986   5.292
58705SOL    HW177954   4.450   1.005   5.385
58705SOL    HW277955   4.378   0.951   5.262
58706SOL     OW77956   2.571  10.669   4.798
58706SOL    HW177957   2.518  10.590   4.800
58706SOL    HW277958   2.620  10.668   4.880
58707SOL     OW77959  10.188   6.766  13.992
58707SOL    HW177960  10.248   6.695  13.968
58707SOL    HW277961  10.244   6.838  14.018
58708SOL     OW77962  12.485   4.156   1.539
58708SOL    HW177963  12.402   4.141   1.493
58708SOL    HW277964  12.497   4.078   1.594
58709SOL     OW77965   4.996  11.061  13.062
58709SOL    HW177966   4.925  11.006  13.094
58709SOL    HW277967   4.961  11.101  12.982
58710SOL     OW77968   0.648   1.392  14.636
58710SOL    HW177969   0.634   1.298  14.630
58710SOL    HW277970   0.629   1.413  14.728
58711SOL     OW77971   0.511  13.876   0.385
58711SOL    HW177972   0.558  13.925   0.318
58711SOL    HW277973   0.573  13.809   0.414
58712SOL     OW77974  12.804   5.443   0.540
58712SOL    HW177975  12.713   5.419   0.528
58712SOL    HW277976  12.802   5.529   0.582
58713SOL     OW77977  12.993  11.137   7.187
58713SOL    HW177978  13.044  11.154   7.107
58713SOL    HW277979  13.052  11.086   7.242
58714SOL     OW77980  14.515   7.676   4.154
58714SOL    HW177981  14.420   7.682   4.155
58714SOL    HW277982  14.539   7.653   4.243
58715SOL     OW77983  14.648  12.204  13.064
58715SOL    HW177984  14.685  12.278  13.015
58715SOL    HW277985  14.725  12.159  13.099
58716SOL     OW77986  10.836  14.042   3.255
58716SOL    HW177987  10.780  14.116   3.233
58716SOL    HW277988  10.776  13.967   3.260
58717SOL     OW77989   5.734   5.977  10.087
58717SOL    HW177990   5.817   5.935  10.064
58717SOL    HW277991   5.668   5.913  10.061
58718SOL     OW77992   7.426   1.555   7.333
58718SOL    HW177993   7.443   1.608   7.255
58718SOL    HW277994   7.453   1.467   7.309
58719SOL     OW77995   7.519  13.721   1.482
58719SOL    HW177996   7.516  13.789   1.550
58719SOL    HW277997   7.574  13.653   1.519
58720SOL     OW77998   7.989   2.571  11.885
58720SOL    HW177999   8.035   2.494  11.920
58720SOL    HW278000   7.957   2.543  11.800
58721SOL     OW78001  12.510  11.343   6.712
58721SOL    HW178002  12.537  11.396   6.636
58721SOL    HW278003  12.586  11.288   6.730
58722SOL     OW78004  11.631  13.616   7.886
58722SOL    HW178005  11.716  13.652   7.910
58722SOL    HW278006  11.618  13.542   7.946
58723SOL     OW78007   5.769   5.499   7.131
58723SOL    HW178008   5.845   5.557   7.128
58723SOL    HW278009   5.767   5.466   7.221
58724SOL     OW78010   7.856   7.503   3.621
58724SOL    HW178011   7.823   7.562   3.689
58724SOL    HW278012   7.893   7.429   3.669
58725SOL     OW78013  13.803  11.078   4.838
58725SOL    HW178014  13.762  11.091   4.923
58725SOL    HW278015  13.888  11.037   4.858
58726SOL     OW78016   9.115   2.302   4.048
58726SOL    HW178017   9.089   2.390   4.073
58726SOL    HW278018   9.210   2.301   4.059
58727SOL     OW78019   2.379   7.840  13.377
58727SOL    HW178020   2.373   7.774  13.446
58727SOL    HW278021   2.295   7.836  13.332
58728SOL     OW78022  11.401   9.570   9.450
58728SOL    HW178023  11.383   9.479   9.425
58728SOL    HW278024  11.421   9.565   9.543
58729SOL     OW78025  11.439   5.181  10.696
58729SOL    HW178026  11.438   5.156  10.603
58729SOL    HW278027  11.512   5.132  10.733
58730SOL     OW78028   0.572   4.068   3.811
58730SOL    HW178029   0.564   3.984   3.855
58730SOL    HW278030   0.654   4.062   3.762
58731SOL     OW78031   1.706  14.782  13.136
58731SOL    HW178032   1.728  14.786  13.043
58731SOL    HW278033   1.618  14.820  13.140
58732SOL     OW78034   0.906   9.891   1.638
58732SOL    HW178035   0.953   9.868   1.558
58732SOL    HW278036   0.813   9.885   1.614
58733SOL     OW78037  14.569   2.232   4.896
58733SOL    HW178038  14.477   2.208   4.894
58733SOL    HW278039  14.599   2.218   4.807
58734SOL     OW78040  13.544   3.980   7.507
58734SOL    HW178041  13.495   3.957   7.428
58734SOL    HW278042  13.572   3.897   7.544
58735SOL     OW78043  11.919   3.183   6.619
58735SOL    HW178044  11.851   3.119   6.639
58735SOL    HW278045  11.891   3.262   6.665
58736SOL     OW78046   4.053   9.966   3.826
58736SOL    HW178047   4.002   9.887   3.809
58736SOL    HW278048   4.081   9.958   3.917
58737SOL     OW78049   3.752   6.789   4.062
58737SOL    HW178050   3.809   6.722   4.099
58737SOL    HW278051   3.742   6.853   4.132
58738SOL     OW78052   2.701  11.687   5.428
58738SOL    HW178053   2.691  11.592   5.425
58738SOL    HW278054   2.792  11.702   5.399
58739SOL     OW78055   0.956   2.595   1.053
58739SOL    HW178056   0.976   2.563   1.142
58739SOL    HW278057   0.970   2.689   1.058
58740SOL     OW78058  14.562   7.386  13.695
58740SOL    HW178059  14.472   7.400  13.665
58740SOL    HW278060  14.573   7.291  13.692
58741SOL     OW78061   3.554  12.398   2.026
58741SOL    HW178062   3.554  12.471   1.964
58741SOL    HW278063   3.497  12.332   1.986
58742SOL     OW78064   6.721  12.408   3.806
58742SOL    HW178065   6.668  12.418   3.727
58742SOL    HW278066   6.746  12.316   3.808
58743SOL     OW78067  13.795   4.328   8.136
58743SOL    HW178068  13.763   4.333   8.046
58743SOL    HW278069  13.731   4.378   8.187
58744SOL     OW78070   5.042   5.430   6.209
58744SOL    HW178071   5.047   5.522   6.236
58744SOL    HW278072   4.967   5.395   6.257
58745SOL     OW78073  11.859   1.326   4.300
58745SOL    HW178074  11.828   1.343   4.211
58745SOL    HW278075  11.936   1.383   4.309
58746SOL     OW78076  12.839   8.083  11.494
58746SOL    HW178077  12.803   8.009  11.445
58746SOL    HW278078  12.813   8.067  11.585
58747SOL     OW78079  11.070   8.827   1.958
58747SOL    HW178080  11.152   8.872   1.980
58747SOL    HW278081  11.003   8.895   1.964
58748SOL     OW78082   3.131  11.418   2.861
58748SOL    HW178083   3.171  11.413   2.947
58748SOL    HW278084   3.061  11.483   2.870
58749SOL     OW78085   4.828  10.849   1.066
58749SOL    HW178086   4.784  10.897   0.997
58749SOL    HW278087   4.852  10.916   1.130
58750SOL     OW78088  12.958  12.434   8.418
58750SOL    HW178089  12.906  12.360   8.386
58750SOL    HW278090  12.940  12.436   8.512
58751SOL     OW78091   8.423   6.794   4.830
58751SOL    HW178092   8.339   6.765   4.865
58751SOL    HW278093   8.482   6.719   4.843
58752SOL     OW78094  13.716   4.833   8.448
58752SOL    HW178095  13.729   4.845   8.542
58752SOL    HW278096  13.736   4.918   8.409
58753SOL     OW78097   7.689  12.676   4.358
58753SOL    HW178098   7.666  12.725   4.279
58753SOL    HW278099   7.764  12.724   4.395
58754SOL     OW78100  11.255   1.459  10.679
58754SOL    HW178101  11.307   1.390  10.636
58754SOL    HW278102  11.172   1.459  10.631
58755SOL     OW78103  12.006   3.125   8.773
58755SOL    HW178104  11.924   3.081   8.795
58755SOL    HW278105  11.996   3.214   8.808
58756SOL     OW78106   1.864  13.987   9.509
58756SOL    HW178107   1.825  14.043   9.576
58756SOL    HW278108   1.929  13.935   9.556
58757SOL     OW78109   9.860   9.902   5.085
58757SOL    HW178110   9.866   9.836   5.154
58757SOL    HW278111   9.799   9.866   5.022
58758SOL     OW78112   9.011   2.705  13.467
58758SOL    HW178113   8.972   2.626  13.504
58758SOL    HW278114   9.037   2.679  13.378
58759SOL     OW78115   0.270   1.269   2.533
58759SOL    HW178116   0.213   1.317   2.471
58759SOL    HW278117   0.237   1.179   2.530
58760SOL     OW78118   4.807   2.433   3.410
58760SOL    HW178119   4.765   2.514   3.383
58760SOL    HW278120   4.893   2.435   3.368
58761SOL     OW78121   7.052  10.156   2.774
58761SOL    HW178122   7.105  10.233   2.754
58761SOL    HW278123   7.042  10.158   2.869
58762SOL     OW78124   3.030  12.253   7.552
58762SOL    HW178125   2.947  12.218   7.521
58762SOL    HW278126   3.007  12.333   7.598
58763SOL     OW78127  11.360   3.248   0.422
58763SOL    HW178128  11.399   3.281   0.502
58763SOL    HW278129  11.401   3.162   0.409
58764SOL     OW78130   8.770   9.367   4.666
58764SOL    HW178131   8.837   9.314   4.710
58764SOL    HW278132   8.809   9.454   4.659
58765SOL     OW78133   0.602  13.991  12.270
58765SOL    HW178134   0.526  13.940  12.241
58765SOL    HW278135   0.592  13.998  12.365
58766SOL     OW78136  11.510   3.018   0.721
58766SOL    HW178137  11.465   3.024   0.806
58766SOL    HW278138  11.516   2.924   0.704
58767SOL     OW78139   5.012   8.184  10.429
58767SOL    HW178140   4.969   8.100  10.412
58767SOL    HW278141   5.044   8.212  10.343
58768SOL     OW78142   3.594   6.081  14.630
58768SOL    HW178143   3.506   6.113  14.647
58768SOL    HW278144   3.617   6.120  14.545
58769SOL     OW78145   0.570  12.564   6.803
58769SOL    HW178146   0.499  12.627   6.815
58769SOL    HW278147   0.540  12.485   6.848
58770SOL     OW78148   6.529  14.258   7.065
58770SOL    HW178149   6.594  14.191   7.086
58770SOL    HW278150   6.446  14.219   7.094
58771SOL     OW78151  11.848  11.694   5.051
58771SOL    HW178152  11.823  11.696   4.959
58771SOL    HW278153  11.811  11.612   5.084
58772SOL     OW78154   3.070  10.131  11.003
58772SOL    HW178155   3.082  10.129  11.098
58772SOL    HW278156   3.019  10.210  10.986
58773SOL     OW78157  12.837   1.663  11.868
58773SOL    HW178158  12.797   1.723  11.931
58773SOL    HW278159  12.814   1.576  11.900
58774SOL     OW78160   7.481   6.994   1.113
58774SOL    HW178161   7.450   6.909   1.084
58774SOL    HW278162   7.567   7.004   1.071
58775SOL     OW78163   6.456   4.557  14.115
58775SOL    HW178164   6.493   4.470  14.129
58775SOL    HW278165   6.484   4.608  14.191
58776SOL     OW78166  14.736   7.403   3.399
58776SOL    HW178167  14.759   7.495   3.397
58776SOL    HW278168  14.667   7.394   3.333
58777SOL     OW78169  13.365   3.570   6.152
58777SOL    HW178170  13.330   3.489   6.115
58777SOL    HW278171  13.293   3.606   6.204
58778SOL     OW78172   4.768   3.947  14.346
58778SOL    HW178173   4.817   3.872  14.380
58778SOL    HW278174   4.823   4.022  14.366
58779SOL     OW78175  14.827   9.257   3.430
58779SOL    HW178176   0.018   9.305   3.473
58779SOL    HW278177  14.779   9.323   3.380
58780SOL     OW78178  13.454   7.011   6.196
58780SOL    HW178179  13.459   7.090   6.251
58780SOL    HW278180  13.439   7.044   6.108
58781SOL     OW78181   7.631   6.870   8.552
58781SOL    HW178182   7.599   6.957   8.527
58781SOL    HW278183   7.688   6.843   8.480
58782SOL     OW78184  11.403  10.357   2.437
58782SOL    HW178185  11.474  10.362   2.373
58782SOL    HW278186  11.366  10.270   2.426
58783SOL     OW78187   5.620  10.440   8.992
58783SOL    HW178188   5.650  10.531   8.993
58783SOL    HW278189   5.668  10.399   8.921
58784SOL     OW78190   1.391  12.777   1.701
58784SOL    HW178191   1.424  12.773   1.791
58784SOL    HW278192   1.388  12.870   1.681
58785SOL     OW78193  14.120  13.752  10.536
58785SOL    HW178194  14.119  13.667  10.580
58785SOL    HW278195  14.195  13.748  10.477
58786SOL     OW78196   7.545   7.592   6.787
58786SOL    HW178197   7.514   7.647   6.714
58786SOL    HW278198   7.531   7.502   6.757
58787SOL     OW78199   8.855   3.625   1.987
58787SOL    HW178200   8.938   3.619   2.033
58787SOL    HW278201   8.804   3.549   2.016
58788SOL     OW78202   8.056   4.372   7.852
58788SOL    HW178203   7.982   4.432   7.843
58788SOL    HW278204   8.059   4.324   7.769
58789SOL     OW78205   4.360   2.750   8.481
58789SOL    HW178206   4.277   2.765   8.526
58789SOL    HW278207   4.383   2.660   8.502
58790SOL     OW78208   0.250  12.266   9.324
58790SOL    HW178209   0.238  12.183   9.279
58790SOL    HW278210   0.323  12.250   9.385
58791SOL     OW78211   0.683   4.105   3.176
58791SOL    HW178212   0.645   4.091   3.263
58791SOL    HW278213   0.618   4.157   3.130
58792SOL     OW78214   7.189  11.957  14.611
58792SOL    HW178215   7.096  11.938  14.600
58792SOL    HW278216   7.207  12.027  14.549
58793SOL     OW78217   7.018   0.060   7.595
58793SOL    HW178218   6.931   0.029   7.568
58793SOL    HW278219   7.026   0.147   7.556
58794SOL     OW78220   6.510   4.556  11.511
58794SOL    HW178221   6.467   4.623  11.564
58794SOL    HW278222   6.602   4.582  11.511
58795SOL     OW78223  12.481   7.521   9.429
58795SOL    HW178224  12.526   7.452   9.380
58795SOL    HW278225  12.408   7.546   9.372
58796SOL     OW78226   4.901   0.425   1.787
58796SOL    HW178227   4.815   0.384   1.782
58796SOL    HW278228   4.957   0.358   1.826
58797SOL     OW78229  10.019  12.367   4.911
58797SOL    HW178230   9.956  12.380   4.840
58797SOL    HW278231  10.034  12.272   4.914
58798SOL     OW78232   9.675   9.610  13.203
58798SOL    HW178233   9.650   9.702  13.211
58798SOL    HW278234   9.594   9.561  13.221
58799SOL     OW78235   2.623   4.758   1.779
58799SOL    HW178236   2.709   4.798   1.791
58799SOL    HW278237   2.561   4.824   1.809
58800SOL     OW78238  12.961   1.996   5.466
58800SOL    HW178239  12.940   1.954   5.550
58800SOL    HW278240  12.922   1.938   5.400
58801SOL     OW78241   8.517   3.029   0.181
58801SOL    HW178242   8.514   3.118   0.216
58801SOL    HW278243   8.608   3.002   0.190
58802SOL     OW78244  11.132   8.440   6.068
58802SOL    HW178245  11.131   8.351   6.033
58802SOL    HW278246  11.086   8.434   6.151
58803SOL     OW78247   2.971  13.179  10.187
58803SOL    HW178248   3.045  13.236  10.166
58803SOL    HW278249   2.991  13.146  10.275
58804SOL     OW78250   6.304  13.464  11.989
58804SOL    HW178251   6.347  13.517  11.922
58804SOL    HW278252   6.234  13.417  11.943
58805SOL     OW78253   8.923   7.812  10.474
58805SOL    HW178254   9.018   7.799  10.475
58805SOL    HW278255   8.888   7.731  10.438
58806SOL     OW78256   1.512   1.375   3.695
58806SOL    HW178257   1.557   1.402   3.615
58806SOL    HW278258   1.423   1.354   3.667
58807SOL     OW78259  12.165   5.517   2.722
58807SOL    HW178260  12.129   5.554   2.802
58807SOL    HW278261  12.260   5.519   2.735
58808SOL     OW78262  13.511   4.018  13.579
58808SOL    HW178263  13.424   4.017  13.619
58808SOL    HW278264  13.527   4.110  13.558
58809SOL     OW78265   4.122   8.582   5.653
58809SOL    HW178266   4.069   8.627   5.719
58809SOL    HW278267   4.155   8.504   5.697
58810SOL     OW78268   5.543   6.933   5.929
58810SOL    HW178269   5.506   6.974   6.008
58810SOL    HW278270   5.610   6.873   5.962
58811SOL     OW78271   8.951   5.546  11.729
58811SOL    HW178272   8.933   5.456  11.757
58811SOL    HW278273   8.868   5.592  11.741
58812SOL     OW78274   3.250  10.878  10.539
58812SOL    HW178275   3.305  10.819  10.488
58812SOL    HW278276   3.161  10.848  10.523
58813SOL     OW78277  10.974  10.399   7.830
58813SOL    HW178278  10.913  10.469   7.854
58813SOL    HW278279  10.982  10.346   7.910
58814SOL     OW78280   3.251  11.435   3.107
58814SOL    HW178281   3.309  11.365   3.135
58814SOL    HW278282   3.194  11.451   3.182
58815SOL     OW78283  11.497   1.251  12.019
58815SOL    HW178284  11.402   1.241  12.021
58815SOL    HW278285  11.518   1.307  12.094
58816SOL     OW78286   9.589   7.148   7.990
58816SOL    HW178287   9.565   7.185   8.075
58816SOL    HW278288   9.684   7.139   7.994
58817SOL     OW78289   2.133  10.101   9.510
58817SOL    HW178290   2.117  10.103   9.416
58817SOL    HW278291   2.069  10.162   9.547
58818SOL     OW78292   4.210   6.988   2.646
58818SOL    HW178293   4.240   6.897   2.647
58818SOL    HW278294   4.141   6.991   2.712
58819SOL     OW78295  14.142   9.239   4.570
58819SOL    HW178296  14.093   9.158   4.582
58819SOL    HW278297  14.159   9.271   4.659
58820SOL     OW78298   0.095   9.098  10.075
58820SOL    HW178299   0.183   9.096  10.111
58820SOL    HW278300   0.104   9.070   9.984
58821SOL     OW78301   3.118   7.929  10.974
58821SOL    HW178302   3.153   7.892  10.893
58821SOL    HW278303   3.088   8.017  10.949
58822SOL     OW78304   2.470   2.571   5.140
58822SOL    HW178305   2.478   2.656   5.097
58822SOL    HW278306   2.488   2.507   5.071
58823SOL     OW78307   1.375   9.996   6.605
58823SOL    HW178308   1.314  10.042   6.548
58823SOL    HW278309   1.327   9.918   6.634
58824SOL     OW78310   8.459  12.656   3.708
58824SOL    HW178311   8.412  12.723   3.658
58824SOL    HW278312   8.404  12.641   3.785
58825SOL     OW78313   7.462   7.715  11.506
58825SOL    HW178314   7.554   7.717  11.481
58825SOL    HW278315   7.416   7.677  11.431
58826SOL     OW78316   9.614   1.765   4.601
58826SOL    HW178317   9.602   1.837   4.663
58826SOL    HW278318   9.572   1.690   4.642
58827SOL     OW78319   5.373   0.634  11.873
58827SOL    HW178320   5.462   0.649  11.907
58827SOL    HW278321   5.325   0.597  11.947
58828SOL     OW78322  10.259   6.954   6.846
58828SOL    HW178323  10.325   7.020   6.868
58828SOL    HW278324  10.249   6.902   6.927
58829SOL     OW78325   4.937  13.274  14.780
58829SOL    HW178326   4.905  13.343  14.721
58829SOL    HW278327   5.029  13.264  14.758
58830SOL     OW78328   7.560  14.512   7.237
58830SOL    HW178329   7.635  14.518   7.178
58830SOL    HW278330   7.570  14.585   7.297
58831SOL     OW78331  11.767   4.528   4.114
58831SOL    HW178332  11.686   4.484   4.086
58831SOL    HW278333  11.834   4.494   4.056
58832SOL     OW78334   0.553   8.618  13.819
58832SOL    HW178335   0.491   8.571  13.764
58832SOL    HW278336   0.617   8.552  13.846
58833SOL     OW78337   2.707   5.132   1.523
58833SOL    HW178338   2.657   5.195   1.575
58833SOL    HW278339   2.745   5.072   1.587
58834SOL     OW78340  10.441   7.887   6.453
58834SOL    HW178341  10.356   7.927   6.471
58834SOL    HW278342  10.475   7.864   6.540
58835SOL     OW78343   7.797  13.154   4.064
58835SOL    HW178344   7.891  13.137   4.068
58835SOL    HW278345   7.790  13.250   4.067
58836SOL     OW78346   3.739  13.910   7.996
58836SOL    HW178347   3.801  13.936   8.064
58836SOL    HW278348   3.661  13.881   8.044
58837SOL     OW78349   3.944   3.672  12.854
58837SOL    HW178350   4.025   3.722  12.862
58837SOL    HW278351   3.954   3.624  12.771
58838SOL     OW78352  11.067  14.216   5.284
58838SOL    HW178353  11.022  14.301   5.277
58838SOL    HW278354  11.139  14.233   5.344
58839SOL     OW78355  10.480   9.158   8.368
58839SOL    HW178356  10.494   9.063   8.364
58839SOL    HW278357  10.387   9.168   8.388
58840SOL     OW78358   4.324   8.576  10.248
58840SOL    HW178359   4.363   8.490  10.263
58840SOL    HW278360   4.319   8.615  10.336
58841SOL     OW78361   7.646   5.723   2.800
58841SOL    HW178362   7.689   5.808   2.811
58841SOL    HW278363   7.712   5.660   2.826
58842SOL     OW78364   4.581  10.814   3.995
58842SOL    HW178365   4.669  10.804   4.031
58842SOL    HW278366   4.593  10.807   3.900
58843SOL     OW78367   0.978   5.540  12.062
58843SOL    HW178368   1.000   5.583  12.145
58843SOL    HW278369   1.019   5.595  11.996
58844SOL     OW78370   1.181   7.811   4.271
58844SOL    HW178371   1.105   7.753   4.260
58844SOL    HW278372   1.232   7.771   4.341
58845SOL     OW78373   8.105   6.437   3.022
58845SOL    HW178374   8.096   6.484   2.939
58845SOL    HW278375   8.131   6.504   3.085
58846SOL     OW78376  12.300   6.138   4.452
58846SOL    HW178377  12.210   6.114   4.429
58846SOL    HW278378  12.299   6.146   4.548
58847SOL     OW78379   6.708   0.443   4.884
58847SOL    HW178380   6.654   0.505   4.934
58847SOL    HW278381   6.657   0.362   4.884
58848SOL     OW78382   3.692   0.455   0.444
58848SOL    HW178383   3.712   0.363   0.426
58848SOL    HW278384   3.633   0.481   0.373
58849SOL     OW78385  10.470  11.021  14.653
58849SOL    HW178386  10.379  10.994  14.641
58849SOL    HW278387  10.465  11.098  14.710
58850SOL     OW78388  13.617  11.951   2.474
58850SOL    HW178389  13.619  11.973   2.567
58850SOL    HW278390  13.628  11.856   2.471
58851SOL     OW78391   9.127   5.163  11.910
58851SOL    HW178392   9.083   5.122  11.985
58851SOL    HW278393   9.060   5.216  11.868
58852SOL     OW78394   7.919  11.444   1.715
58852SOL    HW178395   7.924  11.404   1.803
58852SOL    HW278396   7.990  11.402   1.666
58853SOL     OW78397   3.680   5.331  13.419
58853SOL    HW178398   3.675   5.361  13.509
58853SOL    HW278399   3.766   5.289  13.412
58854SOL     OW78400   8.363   1.638   2.563
58854SOL    HW178401   8.300   1.568   2.582
58854SOL    HW278402   8.329   1.679   2.483
58855SOL     OW78403  13.732   0.235   9.538
58855SOL    HW178404  13.771   0.197   9.617
58855SOL    HW278405  13.683   0.311   9.570
58856SOL     OW78406   7.928   4.433   7.366
58856SOL    HW178407   8.013   4.403   7.399
58856SOL    HW278408   7.949   4.487   7.290
58857SOL     OW78409  10.224   8.345   4.828
58857SOL    HW178410  10.132   8.354   4.804
58857SOL    HW278411  10.223   8.293   4.908
58858SOL     OW78412   1.728   5.150  11.775
58858SOL    HW178413   1.695   5.146  11.686
58858SOL    HW278414   1.712   5.240  11.804
58859SOL     OW78415   6.984   0.950   5.231
58859SOL    HW178416   7.032   0.966   5.313
58859SOL    HW278417   7.052   0.928   5.168
58860SOL     OW78418  10.896  12.815   2.623
58860SOL    HW178419  10.919  12.825   2.531
58860SOL    HW278420  10.818  12.869   2.635
58861SOL     OW78421   9.518   9.036   3.369
58861SOL    HW178422   9.529   9.009   3.277
58861SOL    HW278423   9.456   8.973   3.405
58862SOL     OW78424   0.965  12.504   5.379
58862SOL    HW178425   0.943  12.440   5.446
58862SOL    HW278426   1.036  12.464   5.329
58863SOL     OW78427  14.321   1.983   4.076
58863SOL    HW178428  14.318   2.012   3.984
58863SOL    HW278429  14.254   2.037   4.119
58864SOL     OW78430   1.151   4.839  10.184
58864SOL    HW178431   1.189   4.924  10.208
58864SOL    HW278432   1.098   4.858  10.107
58865SOL     OW78433   6.667   2.015  10.460
58865SOL    HW178434   6.598   1.955  10.489
58865SOL    HW278435   6.630   2.102  10.473
58866SOL     OW78436   8.549   4.441   0.693
58866SOL    HW178437   8.524   4.384   0.620
58866SOL    HW278438   8.625   4.397   0.732
58867SOL     OW78439   9.148  14.290   7.702
58867SOL    HW178440   9.222  14.321   7.650
58867SOL    HW278441   9.090  14.366   7.708
58868SOL     OW78442  10.377   3.152   6.428
58868SOL    HW178443  10.345   3.241   6.413
58868SOL    HW278444  10.333   3.099   6.361
58869SOL     OW78445   1.745  10.938   4.233
58869SOL    HW178446   1.656  10.906   4.215
58869SOL    HW278447   1.802  10.876   4.187
58870SOL     OW78448   0.836   3.857  13.105
58870SOL    HW178449   0.779   3.918  13.059
58870SOL    HW278450   0.863   3.794  13.039
58871SOL     OW78451  13.617  12.901  12.546
58871SOL    HW178452  13.698  12.882  12.594
58871SOL    HW278453  13.587  12.984  12.583
58872SOL     OW78454   3.744   4.881  14.735
58872SOL    HW178455   3.712   4.968  14.712
58872SOL    HW278456   3.828   4.873  14.688
58873SOL     OW78457   9.615   3.040   8.044
58873SOL    HW178458   9.557   3.020   7.970
58873SOL    HW278459   9.580   3.122   8.080
58874SOL     OW78460   2.053   8.280   7.899
58874SOL    HW178461   2.030   8.370   7.921
58874SOL    HW278462   2.134   8.263   7.948
58875SOL     OW78463   2.013   6.937   5.678
58875SOL    HW178464   2.035   6.863   5.621
58875SOL    HW278465   2.043   7.014   5.629
58876SOL     OW78466  14.614  11.274   6.101
58876SOL    HW178467  14.543  11.335   6.121
58876SOL    HW278468  14.578  11.215   6.036
58877SOL     OW78469   9.424   6.242   1.131
58877SOL    HW178470   9.464   6.239   1.218
58877SOL    HW278471   9.482   6.191   1.075
58878SOL     OW78472   9.308  14.208   6.355
58878SOL    HW178473   9.288  14.246   6.270
58878SOL    HW278474   9.256  14.260   6.417
58879SOL     OW78475   2.890  11.776   8.999
58879SOL    HW178476   2.870  11.784   8.906
58879SOL    HW278477   2.968  11.829   9.012
58880SOL     OW78478   6.729   5.531   5.167
58880SOL    HW178479   6.719   5.496   5.256
58880SOL    HW278480   6.749   5.455   5.113
58881SOL     OW78481  12.133   8.894   7.927
58881SOL    HW178482  12.088   8.873   7.845
58881SOL    HW278483  12.159   8.810   7.963
58882SOL     OW78484   0.656   3.484  12.149
58882SOL    HW178485   0.662   3.578  12.166
58882SOL    HW278486   0.594   3.451  12.214
58883SOL     OW78487   9.505   6.854   4.911
58883SOL    HW178488   9.581   6.862   4.969
58883SOL    HW278489   9.430   6.850   4.970
58884SOL     OW78490   8.469   1.134   1.441
58884SOL    HW178491   8.523   1.063   1.405
58884SOL    HW278492   8.508   1.214   1.406
58885SOL     OW78493   0.388   9.089   2.936
58885SOL    HW178494   0.425   9.123   3.018
58885SOL    HW278495   0.297   9.118   2.937
58886SOL     OW78496  12.470   5.138   3.211
58886SOL    HW178497  12.397   5.118   3.151
58886SOL    HW278498  12.428   5.177   3.288
58887SOL     OW78499  11.336   3.886  11.139
58887SOL    HW178500  11.409   3.924  11.189
58887SOL    HW278501  11.270   3.955  11.137
58888SOL     OW78502   9.244   2.846   5.478
58888SOL    HW178503   9.178   2.911   5.501
58888SOL    HW278504   9.194   2.776   5.436
58889SOL     OW78505   3.851   0.546  13.137
58889SOL    HW178506   3.905   0.504  13.070
58889SOL    HW278507   3.821   0.473  13.192
58890SOL     OW78508   1.307  14.334   7.962
58890SOL    HW178509   1.236  14.351   7.900
58890SOL    HW278510   1.271  14.361   8.047
58891SOL     OW78511   6.084   8.535   5.368
58891SOL    HW178512   6.062   8.533   5.274
58891SOL    HW278513   6.017   8.480   5.409
58892SOL     OW78514   2.353   9.246   7.756
58892SOL    HW178515   2.352   9.325   7.811
58892SOL    HW278516   2.262   9.216   7.756
58893SOL     OW78517   2.743   2.361  12.386
58893SOL    HW178518   2.693   2.282  12.408
58893SOL    HW278519   2.788   2.339  12.304
58894SOL     OW78520  11.289  10.688  12.527
58894SOL    HW178521  11.258  10.732  12.606
58894SOL    HW278522  11.242  10.733  12.455
58895SOL     OW78523   8.194   4.752   6.071
58895SOL    HW178524   8.216   4.753   6.164
58895SOL    HW278525   8.201   4.659   6.046
58896SOL     OW78526   9.312  11.308  12.516
58896SOL    HW178527   9.323  11.344  12.604
58896SOL    HW278528   9.392  11.331  12.470
58897SOL     OW78529  14.227   7.621   5.267
58897SOL    HW178530  14.211   7.529   5.287
58897SOL    HW278531  14.147   7.666   5.293
58898SOL     OW78532   7.387   8.380   8.997
58898SOL    HW178533   7.424   8.318   8.934
58898SOL    HW278534   7.342   8.325   9.061
58899SOL     OW78535   3.308   1.073   8.070
58899SOL    HW178536   3.341   1.004   8.012
58899SOL    HW278537   3.213   1.074   8.055
58900SOL     OW78538   4.261  13.956  13.694
58900SOL    HW178539   4.332  14.020  13.690
58900SOL    HW278540   4.222  13.958  13.606
58901SOL     OW78541  10.202  14.880   1.706
58901SOL    HW178542  10.125  14.839   1.746
58901SOL    HW278543  10.264  14.808   1.697
58902SOL     OW78544   0.678   7.204   3.732
58902SOL    HW178545   0.631   7.202   3.815
58902SOL    HW278546   0.712   7.115   3.721
58903SOL     OW78547   9.216   5.888   0.406
58903SOL    HW178548   9.236   5.810   0.458
58903SOL    HW278549   9.210   5.958   0.470
58904SOL     OW78550   2.294   4.059  10.930
58904SOL    HW178551   2.347   4.026  10.858
58904SOL    HW278552   2.332   4.144  10.951
58905SOL     OW78553   3.173  13.037   0.084
58905SOL    HW178554   3.234  13.061   0.154
58905SOL    HW278555   3.164  12.942   0.093
58906SOL     OW78556   7.977   6.632  13.976
58906SOL    HW178557   7.935   6.577  13.909
58906SOL    HW278558   8.048   6.677  13.930
58907SOL     OW78559   4.972   7.055   5.641
58907SOL    HW178560   5.050   7.056   5.696
58907SOL    HW278561   4.993   6.994   5.570
58908SOL     OW78562  13.433  14.026   3.115
58908SOL    HW178563  13.500  13.978   3.164
58908SOL    HW278564  13.350  13.984   3.139
58909SOL     OW78565   1.257  12.832  14.682
58909SOL    HW178566   1.233  12.741  14.698
58909SOL    HW278567   1.174  12.880  14.685
58910SOL     OW78568   6.364   0.826   2.237
58910SOL    HW178569   6.305   0.763   2.279
58910SOL    HW278570   6.421   0.857   2.307
58911SOL     OW78571   5.126  13.640   4.917
58911SOL    HW178572   5.160  13.704   4.979
58911SOL    HW278573   5.051  13.685   4.876
58912SOL     OW78574  11.986   7.192   9.383
58912SOL    HW178575  11.932   7.174   9.460
58912SOL    HW278576  12.074   7.207   9.418
58913SOL     OW78577   8.473   3.490  10.763
58913SOL    HW178578   8.448   3.545  10.688
58913SOL    HW278579   8.391   3.472  10.809
58914SOL     OW78580  13.031  13.647   7.783
58914SOL    HW178581  13.104  13.591   7.811
58914SOL    HW278582  13.069  13.734   7.775
58915SOL     OW78583   8.856   2.688   1.555
58915SOL    HW178584   8.869   2.609   1.608
58915SOL    HW278585   8.858   2.657   1.465
58916SOL     OW78586  11.732   9.941  14.763
58916SOL    HW178587  11.794  10.012  14.749
58916SOL    HW278588  11.730   9.930  14.858
58917SOL     OW78589   2.867   5.780   9.611
58917SOL    HW178590   2.937   5.809   9.670
58917SOL    HW278591   2.912   5.744   9.535
58918SOL     OW78592   6.716   5.166  12.101
58918SOL    HW178593   6.716   5.177  12.196
58918SOL    HW278594   6.801   5.126  12.082
58919SOL     OW78595  13.783   7.895   2.153
58919SOL    HW178596  13.874   7.900   2.126
58919SOL    HW278597  13.772   7.969   2.213
58920SOL     OW78598  12.872  14.359  14.737
58920SOL    HW178599  12.850  14.378  14.646
58920SOL    HW278600  12.811  14.290  14.763
58921SOL     OW78601  13.347  10.183  10.303
58921SOL    HW178602  13.396  10.110  10.340
58921SOL    HW278603  13.351  10.252  10.370
58922SOL     OW78604  12.864   4.265   3.642
58922SOL    HW178605  12.887   4.326   3.572
58922SOL    HW278606  12.939   4.206   3.648
58923SOL     OW78607   5.363   9.177   0.784
58923SOL    HW178608   5.353   9.272   0.790
58923SOL    HW278609   5.389   9.161   0.694
58924SOL     OW78610   4.513   4.067   4.094
58924SOL    HW178611   4.448   4.023   4.039
58924SOL    HW278612   4.474   4.153   4.112
58925SOL     OW78613  11.838   2.572   8.512
58925SOL    HW178614  11.762   2.622   8.484
58925SOL    HW278615  11.886   2.555   8.431
58926SOL     OW78616   9.554   3.396   4.530
58926SOL    HW178617   9.503   3.450   4.471
58926SOL    HW278618   9.641   3.436   4.530
58927SOL     OW78619   7.424   8.696   0.115
58927SOL    HW178620   7.407   8.699   0.209
58927SOL    HW278621   7.357   8.753   0.077
58928SOL     OW78622   3.163  11.371  11.802
58928SOL    HW178623   3.229  11.331  11.859
58928SOL    HW278624   3.152  11.308  11.731
58929SOL     OW78625   7.507  12.458   5.614
58929SOL    HW178626   7.509  12.508   5.533
58929SOL    HW278627   7.421  12.477   5.652
58930SOL     OW78628  11.120   7.506   3.758
58930SOL    HW178629  11.087   7.573   3.818
58930SOL    HW278630  11.183   7.551   3.703
58931SOL     OW78631  11.419  11.488   5.580
58931SOL    HW178632  11.362  11.430   5.529
58931SOL    HW278633  11.459  11.545   5.515
58932SOL     OW78634   2.290   1.147  14.158
58932SOL    HW178635   2.219   1.131  14.220
58932SOL    HW278636   2.291   1.242  14.149
58933SOL     OW78637   2.231   6.765   3.388
58933SOL    HW178638   2.274   6.735   3.308
58933SOL    HW278639   2.170   6.833   3.359
58934SOL     OW78640   6.244   1.887   5.656
58934SOL    HW178641   6.241   1.973   5.613
58934SOL    HW278642   6.336   1.875   5.678
58935SOL     OW78643   9.005   7.901  11.542
58935SOL    HW178644   8.940   7.953  11.589
58935SOL    HW278645   8.963   7.816  11.529
58936SOL     OW78646   2.063   5.833   2.372
58936SOL    HW178647   2.010   5.898   2.327
58936SOL    HW278648   2.025   5.749   2.347
58937SOL     OW78649   1.962   3.608  10.422
58937SOL    HW178650   1.920   3.682  10.466
58937SOL    HW278651   1.900   3.536  10.432
58938SOL     OW78652   7.367   6.381  13.956
58938SOL    HW178653   7.339   6.364  13.866
58938SOL    HW278654   7.294   6.353  14.010
58939SOL     OW78655   3.504   1.995  13.698
58939SOL    HW178656   3.591   1.970  13.668
58939SOL    HW278657   3.489   1.941  13.776
58940SOL     OW78658   9.920  10.159   7.846
58940SOL    HW178659   9.969  10.126   7.770
58940SOL    HW278660   9.878  10.081   7.882
58941SOL     OW78661   4.586   0.420   0.808
58941SOL    HW178662   4.672   0.410   0.768
58941SOL    HW278663   4.576   0.343   0.864
58942SOL     OW78664  10.659   3.332  12.716
58942SOL    HW178665  10.734   3.275  12.734
58942SOL    HW278666  10.607   3.284  12.652
58943SOL     OW78667  11.279  11.716   0.996
58943SOL    HW178668  11.238  11.649   1.050
58943SOL    HW278669  11.229  11.716   0.915
58944SOL     OW78670   2.067  13.360   5.433
58944SOL    HW178671   2.091  13.452   5.441
58944SOL    HW278672   2.147  13.313   5.456
58945SOL     OW78673   5.464   8.177   3.612
58945SOL    HW178674   5.477   8.084   3.592
58945SOL    HW278675   5.388   8.178   3.670
58946SOL     OW78676   6.156   6.641   0.251
58946SOL    HW178677   6.111   6.703   0.308
58946SOL    HW278678   6.211   6.696   0.195
58947SOL     OW78679  10.275  14.122  13.824
58947SOL    HW178680  10.208  14.164  13.878
58947SOL    HW278681  10.349  14.111  13.883
58948SOL     OW78682   8.169   7.042   7.563
58948SOL    HW178683   8.096   7.091   7.523
58948SOL    HW278684   8.135   7.013   7.647
58949SOL     OW78685   6.572  10.138  10.505
58949SOL    HW178686   6.650  10.115  10.453
58949SOL    HW278687   6.602  10.136  10.596
58950SOL     OW78688   9.311  10.967   1.877
58950SOL    HW178689   9.219  10.977   1.853
58950SOL    HW278690   9.333  11.047   1.925
58951SOL     OW78691  10.630   0.273   7.031
58951SOL    HW178692  10.675   0.239   7.108
58951SOL    HW278693  10.575   0.201   7.001
58952SOL     OW78694  14.589   7.950  14.150
58952SOL    HW178695  14.579   7.954  14.245
58952SOL    HW278696  14.573   7.858  14.129
58953SOL     OW78697   4.451  10.521  11.868
58953SOL    HW178698   4.499  10.471  11.801
58953SOL    HW278699   4.402  10.586  11.818
58954SOL     OW78700   7.404   9.626  13.284
58954SOL    HW178701   7.385   9.607  13.376
58954SOL    HW278702   7.442   9.714  13.285
58955SOL     OW78703   3.230  10.722  11.468
58955SOL    HW178704   3.213  10.799  11.413
58955SOL    HW278705   3.238  10.758  11.557
58956SOL     OW78706   8.385   6.680   4.394
58956SOL    HW178707   8.319   6.704   4.459
58956SOL    HW278708   8.336   6.666   4.313
58957SOL     OW78709   8.663   5.679  14.035
58957SOL    HW178710   8.662   5.636  13.949
58957SOL    HW278711   8.748   5.656  14.072
58958SOL     OW78712  11.561   6.396  10.171
58958SOL    HW178713  11.599   6.483  10.187
58958SOL    HW278714  11.620   6.336  10.215
58959SOL     OW78715   6.277  14.369   2.013
58959SOL    HW178716   6.362  14.356   2.055
58959SOL    HW278717   6.220  14.306   2.055
58960SOL     OW78718  13.824   6.790   7.299
58960SOL    HW178719  13.832   6.866   7.357
58960SOL    HW278720  13.771   6.728   7.349
58961SOL     OW78721   3.717   5.049   9.144
58961SOL    HW178722   3.714   5.004   9.060
58961SOL    HW278723   3.643   5.109   9.143
58962SOL     OW78724   8.799   7.153  14.353
58962SOL    HW178725   8.745   7.230  14.338
58962SOL    HW278726   8.755   7.083  14.304
58963SOL     OW78727  10.655   8.173  13.632
58963SOL    HW178728  10.693   8.250  13.589
58963SOL    HW278729  10.675   8.185  13.725
58964SOL     OW78730  13.921   1.292   7.209
58964SOL    HW178731  13.930   1.198   7.193
58964SOL    HW278732  13.883   1.326   7.128
58965SOL     OW78733   3.814   0.688  10.017
58965SOL    HW178734   3.810   0.759  10.081
58965SOL    HW278735   3.866   0.723   9.945
58966SOL     OW78736   1.208   0.025   0.469
58966SOL    HW178737   1.133  14.855   0.436
58966SOL    HW278738   1.282  14.875   0.415
58967SOL     OW78739  10.081  12.166   6.055
58967SOL    HW178740  10.015  12.217   6.006
58967SOL    HW278741  10.037  12.084   6.075
58968SOL     OW78742  13.879  12.548  12.308
58968SOL    HW178743  13.907  12.574  12.396
58968SOL    HW278744  13.889  12.453  12.307
58969SOL     OW78745   3.568   4.416  10.964
58969SOL    HW178746   3.521   4.452  11.040
58969SOL    HW278747   3.501   4.371  10.913
58970SOL     OW78748   8.590   1.564   6.679
58970SOL    HW178749   8.516   1.620   6.658
58970SOL    HW278750   8.576   1.539   6.770
58971SOL     OW78751   7.564   7.511  12.064
58971SOL    HW178752   7.564   7.460  12.145
58971SOL    HW278753   7.572   7.446  11.995
58972SOL     OW78754   0.451   6.680   8.629
58972SOL    HW178755   0.497   6.763   8.617
58972SOL    HW278756   0.521   6.615   8.636
58973SOL     OW78757   7.883   0.832   4.197
58973SOL    HW178758   7.875   0.841   4.292
58973SOL    HW278759   7.945   0.901   4.172
58974SOL     OW78760  12.277   7.146   4.312
58974SOL    HW178761  12.238   7.152   4.399
58974SOL    HW278762  12.203   7.145   4.252
58975SOL     OW78763   0.115   1.367   2.319
58975SOL    HW178764   0.083   1.330   2.237
58975SOL    HW278765   0.099   1.461   2.311
58976SOL     OW78766   4.027   4.595   1.720
58976SOL    HW178767   3.962   4.650   1.763
58976SOL    HW278768   3.978   4.520   1.687
58977SOL     OW78769   7.313   0.473   4.251
58977SOL    HW178770   7.320   0.378   4.257
58977SOL    HW278771   7.359   0.505   4.329
58978SOL     OW78772   0.165   6.677  14.051
58978SOL    HW178773   0.168   6.592  14.095
58978SOL    HW278774   0.101   6.665  13.981
58979SOL     OW78775   4.956  10.414   2.436
58979SOL    HW178776   5.025  10.447   2.379
58979SOL    HW278777   4.950  10.478   2.507
58980SOL     OW78778   6.441   6.381   3.359
58980SOL    HW178779   6.449   6.446   3.289
58980SOL    HW278780   6.347   6.374   3.375
58981SOL     OW78781   3.352   2.545   0.591
58981SOL    HW178782   3.323   2.634   0.610
58981SOL    HW278783   3.327   2.495   0.668
58982SOL     OW78784  10.349   6.832  13.336
58982SOL    HW178785  10.311   6.919  13.337
58982SOL    HW278786  10.367   6.814  13.243
58983SOL     OW78787   4.632  12.977   1.223
58983SOL    HW178788   4.601  12.980   1.133
58983SOL    HW278789   4.609  13.062   1.260
58984SOL     OW78790  11.081   8.917   5.127
58984SOL    HW178791  11.071   8.826   5.155
58984SOL    HW278792  11.074   8.968   5.208
58985SOL     OW78793   1.405  13.354   5.757
58985SOL    HW178794   1.464  13.329   5.686
58985SOL    HW278795   1.463  13.370   5.832
58986SOL     OW78796   8.085  10.255   4.643
58986SOL    HW178797   8.092  10.180   4.703
58986SOL    HW278798   7.998  10.246   4.604
58987SOL     OW78799   1.427  10.968   9.554
58987SOL    HW178800   1.458  11.054   9.525
58987SOL    HW278801   1.496  10.907   9.528
58988SOL     OW78802   4.831   8.333   5.615
58988SOL    HW178803   4.889   8.407   5.636
58988SOL    HW278804   4.833   8.279   5.694
58989SOL     OW78805   6.490   6.932   4.396
58989SOL    HW178806   6.447   6.859   4.441
58989SOL    HW278807   6.576   6.939   4.439
58990SOL     OW78808   7.304   1.565   7.062
58990SOL    HW178809   7.350   1.493   7.019
58990SOL    HW278810   7.215   1.560   7.028
58991SOL     OW78811  13.070   2.603   5.991
58991SOL    HW178812  13.065   2.515   6.029
58991SOL    HW278813  13.148   2.600   5.935
58992SOL     OW78814   2.707   5.559  13.073
58992SOL    HW178815   2.756   5.543  12.993
58992SOL    HW278816   2.734   5.490  13.133
58993SOL     OW78817   0.785  11.331   6.014
58993SOL    HW178818   0.877  11.349   5.993
58993SOL    HW278819   0.764  11.253   5.963
58994SOL     OW78820   1.186  11.821  12.012
58994SOL    HW178821   1.257  11.757  12.009
58994SOL    HW278822   1.218  11.895  11.961
58995SOL     OW78823   4.711  12.310   5.962
58995SOL    HW178824   4.754  12.263   6.033
58995SOL    HW278825   4.741  12.400   5.970
58996SOL     OW78826   5.588  14.434  13.144
58996SOL    HW178827   5.683  14.442  13.159
58996SOL    HW278828   5.569  14.342  13.161
58997SOL     OW78829   4.766   2.283   6.645
58997SOL    HW178830   4.840   2.309   6.699
58997SOL    HW278831   4.792   2.308   6.556
58998SOL     OW78832   7.629   9.268   6.984
58998SOL    HW178833   7.711   9.219   6.997
58998SOL    HW278834   7.655   9.360   6.995
58999SOL     OW78835  13.503  10.509  12.147
58999SOL    HW178836  13.522  10.582  12.088
58999SOL    HW278837  13.489  10.435  12.089
59000SOL     OW78838  12.169   6.683   9.025
59000SOL    HW178839  12.215   6.604   8.996
59000SOL    HW278840  12.077   6.666   9.006
59001SOL     OW78841  13.160   3.624   6.349
59001SOL    HW178842  13.080   3.676   6.346
59001SOL    HW278843  13.145   3.560   6.419
59002SOL     OW78844   3.549   3.699   5.570
59002SOL    HW178845   3.549   3.712   5.664
59002SOL    HW278846   3.638   3.721   5.542
59003SOL     OW78847  11.644   5.553   9.569
59003SOL    HW178848  11.706   5.625   9.558
59003SOL    HW278849  11.623   5.553   9.662
59004SOL     OW78850  14.200   6.972   9.770
59004SOL    HW178851  14.206   6.877   9.767
59004SOL    HW278852  14.280   6.999   9.815
59005SOL     OW78853   5.703  11.313   1.930
59005SOL    HW178854   5.792  11.290   1.901
59005SOL    HW278855   5.694  11.405   1.904
59006SOL     OW78856  12.096  11.993   1.172
59006SOL    HW178857  12.009  11.952   1.172
59006SOL    HW278858  12.130  11.976   1.260
59007SOL     OW78859   9.854   3.972  11.638
59007SOL    HW178860   9.800   4.042  11.674
59007SOL    HW278861   9.901   3.936  11.713
59008SOL     OW78862   8.749  13.895   6.437
59008SOL    HW178863   8.822  13.865   6.493
59008SOL    HW278864   8.785  13.968   6.387
59009SOL     OW78865   6.088   8.143  11.734
59009SOL    HW178866   6.101   8.051  11.755
59009SOL    HW278867   6.154   8.163  11.668
59010SOL     OW78868   5.335   6.630   1.587
59010SOL    HW178869   5.389   6.666   1.657
59010SOL    HW278870   5.386   6.557   1.552
59011SOL     OW78871   6.386   4.471   7.497
59011SOL    HW178872   6.419   4.535   7.433
59011SOL    HW278873   6.432   4.492   7.578
59012SOL     OW78874   1.097  13.081  13.431
59012SOL    HW178875   1.115  13.035  13.349
59012SOL    HW278876   1.113  13.017  13.500
59013SOL     OW78877  14.302   8.170   5.384
59013SOL    HW178878  14.262   8.127   5.460
59013SOL    HW278879  14.272   8.119   5.309
59014SOL     OW78880  11.948   9.350   6.216
59014SOL    HW178881  11.987   9.264   6.228
59014SOL    HW278882  11.914   9.373   6.303
59015SOL     OW78883   4.082   3.881   9.272
59015SOL    HW178884   4.118   3.795   9.250
59015SOL    HW278885   4.138   3.912   9.343
59016SOL     OW78886   1.025   5.209   3.708
59016SOL    HW178887   1.016   5.120   3.675
59016SOL    HW278888   0.977   5.209   3.791
59017SOL     OW78889  11.409   8.791   8.393
59017SOL    HW178890  11.414   8.752   8.480
59017SOL    HW278891  11.448   8.725   8.335
59018SOL     OW78892  14.391   3.525   9.382
59018SOL    HW178893  14.381   3.619   9.395
59018SOL    HW278894  14.303   3.490   9.392
59019SOL     OW78895   5.047   3.443   6.100
59019SOL    HW178896   5.059   3.350   6.084
59019SOL    HW278897   5.062   3.453   6.194
59020SOL     OW78898   0.088   2.111  10.272
59020SOL    HW178899   0.024   2.047  10.305
59020SOL    HW278900   0.152   2.120  10.342
59021SOL     OW78901   7.266   7.362  10.595
59021SOL    HW178902   7.335   7.389  10.656
59021SOL    HW278903   7.189   7.349  10.650
59022SOL     OW78904   0.678   1.581   8.587
59022SOL    HW178905   0.638   1.664   8.612
59022SOL    HW278906   0.636   1.516   8.643
59023SOL     OW78907  11.121  10.810  10.001
59023SOL    HW178908  11.053  10.861  10.044
59023SOL    HW278909  11.203  10.848  10.031
59024SOL     OW78910  14.055   9.238   0.874
59024SOL    HW178911  14.009   9.310   0.917
59024SOL    HW278912  13.985   9.179   0.844
59025SOL     OW78913   3.219   2.668  11.513
59025SOL    HW178914   3.134   2.626  11.504
59025SOL    HW278915   3.280   2.595  11.526
59026SOL     OW78916  10.804   7.201   4.282
59026SOL    HW178917  10.754   7.267   4.330
59026SOL    HW278918  10.813   7.129   4.344
59027SOL     OW78919  13.842   8.784  12.896
59027SOL    HW178920  13.755   8.752  12.922
59027SOL    HW278921  13.881   8.814  12.978
59028SOL     OW78922   5.484  14.743  12.511
59028SOL    HW178923   5.404  14.793  12.497
59028SOL    HW278924   5.555  14.806  12.498
59029SOL     OW78925   3.886   0.657   5.420
59029SOL    HW178926   3.798   0.638   5.454
59029SOL    HW278927   3.896   0.752   5.433
59030SOL     OW78928  14.478   7.310  12.426
59030SOL    HW178929  14.532   7.359  12.364
59030SOL    HW278930  14.409   7.372  12.452
59031SOL     OW78931  14.406  14.853  10.026
59031SOL    HW178932  14.391  14.760  10.041
59031SOL    HW278933  14.489  14.857   9.978
59032SOL     OW78934  11.887  10.712   7.731
59032SOL    HW178935  11.860  10.786   7.676
59032SOL    HW278936  11.806  10.681   7.771
59033SOL     OW78937   1.182   5.192   5.002
59033SOL    HW178938   1.153   5.265   5.057
59033SOL    HW278939   1.210   5.125   5.064
59034SOL     OW78940   7.960   5.239   2.985
59034SOL    HW178941   7.945   5.319   3.036
59034SOL    HW278942   7.953   5.267   2.894
59035SOL     OW78943   0.055   4.723  10.290
59035SOL    HW178944  14.879   4.791  10.252
59035SOL    HW278945   0.015   4.704  10.375
59036SOL     OW78946   3.347  14.148  14.077
59036SOL    HW178947   3.328  14.241  14.088
59036SOL    HW278948   3.278  14.115  14.021
59037SOL     OW78949   4.606   3.953   7.259
59037SOL    HW178950   4.641   3.871   7.226
59037SOL    HW278951   4.512   3.948   7.241
59038SOL     OW78952   9.201  12.026  10.918
59038SOL    HW178953   9.191  12.070  11.002
59038SOL    HW278954   9.129  11.963  10.916
59039SOL     OW78955   6.414  11.382  14.260
59039SOL    HW178956   6.507  11.388  14.239
59039SOL    HW278957   6.378  11.327  14.190
59040SOL     OW78958   7.985   7.905  13.486
59040SOL    HW178959   7.979   8.000  13.481
59040SOL    HW278960   8.054   7.889  13.551
59041SOL     OW78961   3.590  14.794   1.781
59041SOL    HW178962   3.609  14.794   1.875
59041SOL    HW278963   3.640  14.720   1.746
59042SOL     OW78964  13.054  14.092   8.802
59042SOL    HW178965  13.078  14.111   8.711
59042SOL    HW278966  12.959  14.086   8.801
59043SOL     OW78967   6.044  13.737  10.853
59043SOL    HW178968   6.020  13.829  10.868
59043SOL    HW278969   6.121  13.723  10.908
59044SOL     OW78970   6.654   9.685   8.333
59044SOL    HW178971   6.647   9.676   8.238
59044SOL    HW278972   6.619   9.772   8.351
59045SOL     OW78973  13.846  11.630  13.651
59045SOL    HW178974  13.832  11.713  13.606
59045SOL    HW278975  13.785  11.569  13.609
59046SOL     OW78976   5.707   0.104   5.616
59046SOL    HW178977   5.657   0.183   5.597
59046SOL    HW278978   5.747   0.121   5.701
59047SOL     OW78979  14.062  12.000  12.762
59047SOL    HW178980  14.015  11.957  12.690
59047SOL    HW278981  14.042  11.946  12.838
59048SOL     OW78982   1.243   8.931   0.107
59048SOL    HW178983   1.314   8.868   0.097
59048SOL    HW278984   1.252   8.964   0.196
59049SOL     OW78985   6.732  11.634   4.404
59049SOL    HW178986   6.715  11.664   4.493
59049SOL    HW278987   6.719  11.711   4.349
59050SOL     OW78988   5.417   2.143  10.614
59050SOL    HW178989   5.375   2.188  10.687
59050SOL    HW278990   5.354   2.075  10.588
59051SOL     OW78991   4.866   7.889   2.889
59051SOL    HW178992   4.907   7.945   2.955
59051SOL    HW278993   4.887   7.800   2.918
59052SOL     OW78994   1.886   9.018   6.508
59052SOL    HW178995   1.790   9.022   6.510
59052SOL    HW278996   1.908   8.953   6.575
59053SOL     OW78997   6.192   0.228  13.100
59053SOL    HW178998   6.134   0.276  13.158
59053SOL    HW278999   6.165   0.253  13.011
59054SOL     OW79000  14.770   7.019   9.340
59054SOL    HW179001  14.689   7.055   9.376
59054SOL    HW279002  14.767   7.041   9.247
59055SOL     OW79003   4.317  12.054   3.807
59055SOL    HW179004   4.234  12.067   3.761
59055SOL    HW279005   4.352  11.973   3.770
59056SOL     OW79006   4.484   7.364   9.469
59056SOL    HW179007   4.501   7.330   9.557
59056SOL    HW279008   4.389   7.370   9.464
59057SOL     OW79009   3.648  13.043   6.115
59057SOL    HW179010   3.665  13.085   6.199
59057SOL    HW279011   3.604  12.960   6.138
59058SOL     OW79012  12.638  13.388   6.418
59058SOL    HW179013  12.707  13.353   6.474
59058SOL    HW279014  12.660  13.358   6.330
59059SOL     OW79015   5.776  11.212   6.746
59059SOL    HW179016   5.718  11.175   6.679
59059SOL    HW279017   5.718  11.229   6.821
59060SOL     OW79018   2.573  11.455   6.152
59060SOL    HW179019   2.598  11.446   6.059
59060SOL    HW279020   2.503  11.391   6.163
59061SOL     OW79021   4.725   1.887   5.108
59061SOL    HW179022   4.761   1.951   5.170
59061SOL    HW279023   4.701   1.940   5.031
59062SOL     OW79024   3.401  12.726   1.974
59062SOL    HW179025   3.414  12.791   1.905
59062SOL    HW279026   3.452  12.651   1.946
59063SOL     OW79027   4.125   2.678   7.328
59063SOL    HW179028   4.171   2.676   7.244
59063SOL    HW279029   4.169   2.610   7.380
59064SOL     OW79030  14.545   0.655   2.719
59064SOL    HW179031  14.518   0.663   2.627
59064SOL    HW279032  14.479   0.597   2.758
59065SOL     OW79033  14.442   4.639   9.991
59065SOL    HW179034  14.501   4.712   9.973
59065SOL    HW279035  14.500   4.568  10.018
59066SOL     OW79036  11.632   7.267   2.910
59066SOL    HW179037  11.547   7.278   2.952
59066SOL    HW279038  11.611   7.252   2.818
59067SOL     OW79039   6.449  13.150  13.430
59067SOL    HW179040   6.478  13.108  13.350
59067SOL    HW279041   6.435  13.242  13.405
59068SOL     OW79042   3.080   7.997   1.130
59068SOL    HW179043   3.135   8.043   1.066
59068SOL    HW279044   3.032   7.934   1.078
59069SOL     OW79045   3.765   1.708   0.509
59069SOL    HW179046   3.738   1.620   0.536
59069SOL    HW279047   3.688   1.744   0.464
59070SOL     OW79048   7.697   5.115   8.753
59070SOL    HW179049   7.615   5.138   8.711
59070SOL    HW279050   7.765   5.150   8.694
59071SOL     OW79051   9.501  13.078   3.778
59071SOL    HW179052   9.531  13.155   3.730
59071SOL    HW279053   9.581  13.036   3.809
59072SOL     OW79054  12.962  12.656   9.388
59072SOL    HW179055  12.882  12.605   9.399
59072SOL    HW279056  13.020  12.624   9.457
59073SOL     OW79057   6.421   2.787   0.329
59073SOL    HW179058   6.485   2.743   0.273
59073SOL    HW279059   6.346   2.801   0.272
59074SOL     OW79060   2.851   7.419   1.614
59074SOL    HW179061   2.904   7.354   1.659
59074SOL    HW279062   2.899   7.501   1.625
59075SOL     OW79063  10.797   4.216   6.079
59075SOL    HW179064  10.851   4.291   6.102
59075SOL    HW279065  10.860   4.145   6.064
59076SOL     OW79066   8.627  13.836   3.120
59076SOL    HW179067   8.669  13.829   3.206
59076SOL    HW279068   8.538  13.864   3.139
59077SOL     OW79069   2.828  10.014   6.468
59077SOL    HW179070   2.827   9.985   6.377
59077SOL    HW279071   2.793  10.103   6.465
59078SOL     OW79072  10.140  10.218   1.446
59078SOL    HW179073  10.054  10.175   1.442
59078SOL    HW279074  10.174  10.193   1.532
59079SOL     OW79075  14.718   1.629  12.699
59079SOL    HW179076  14.644   1.576  12.667
59079SOL    HW279077  14.779   1.564  12.735
59080SOL     OW79078  13.321   8.830  10.405
59080SOL    HW179079  13.367   8.759  10.451
59080SOL    HW279080  13.263   8.785  10.343
59081SOL     OW79081  12.624   3.747   4.648
59081SOL    HW179082  12.607   3.825   4.595
59081SOL    HW279083  12.623   3.675   4.585
59082SOL     OW79084   4.221   6.193   0.825
59082SOL    HW179085   4.294   6.221   0.880
59082SOL    HW279086   4.225   6.098   0.826
59083SOL     OW79087  13.065  13.662   0.745
59083SOL    HW179088  12.982  13.700   0.716
59083SOL    HW279089  13.042  13.611   0.822
59084SOL     OW79090   4.335   0.432   2.557
59084SOL    HW179091   4.244   0.432   2.528
59084SOL    HW279092   4.382   0.479   2.488
59085SOL     OW79093   1.171  12.739  14.166
59085SOL    HW179094   1.238  12.703  14.109
59085SOL    HW279095   1.099  12.762  14.107
59086SOL     OW79096  13.243  12.048  12.869
59086SOL    HW179097  13.228  12.114  12.802
59086SOL    HW279098  13.156  12.029  12.905
59087SOL     OW79099  11.597   3.354   3.860
59087SOL    HW179100  11.623   3.376   3.949
59087SOL    HW279101  11.510   3.394   3.850
59088SOL     OW79102   6.643   1.763   5.468
59088SOL    HW179103   6.625   1.816   5.545
59088SOL    HW279104   6.655   1.674   5.502
59089SOL     OW79105   2.349  14.368  14.348
59089SOL    HW179106   2.254  14.352  14.344
59089SOL    HW279107   2.357  14.440  14.411
59090SOL     OW79108   6.039   0.524  11.127
59090SOL    HW179109   5.957   0.537  11.079
59090SOL    HW279110   6.078   0.611  11.132
59091SOL     OW79111  14.716   3.197   9.796
59091SOL    HW179112  14.731   3.271   9.738
59091SOL    HW279113  14.688   3.236   9.878
59092SOL     OW79114   8.496  12.234   4.590
59092SOL    HW179115   8.590  12.249   4.578
59092SOL    HW279116   8.476  12.275   4.674
59093SOL     OW79117   2.816  14.338   4.347
59093SOL    HW179118   2.801  14.325   4.441
59093SOL    HW279119   2.751  14.403   4.320
59094SOL     OW79120   4.994   8.658  13.273
59094SOL    HW179121   4.981   8.729  13.335
59094SOL    HW279122   4.909   8.615  13.267
59095SOL     OW79123   6.046   1.587  11.016
59095SOL    HW179124   6.128   1.624  11.049
59095SOL    HW279125   6.000   1.662  10.978
59096SOL     OW79126  10.644  12.770   8.924
59096SOL    HW179127  10.618  12.748   8.835
59096SOL    HW279128  10.671  12.687   8.963
59097SOL     OW79129  12.962  10.354   2.103
59097SOL    HW179130  13.036  10.410   2.126
59097SOL    HW279131  12.909  10.407   2.044
59098SOL     OW79132   9.741  12.932  12.991
59098SOL    HW179133   9.652  12.931  13.027
59098SOL    HW279134   9.746  12.852  12.938
59099SOL     OW79135  14.599   7.111   8.185
59099SOL    HW179136  14.577   7.109   8.278
59099SOL    HW279137  14.538   7.048   8.145
59100SOL     OW79138  14.823   2.810  14.667
59100SOL    HW179139  14.754   2.772  14.721
59100SOL    HW279140   0.015   2.826  14.728
59101SOL     OW79141   2.350  10.709  12.386
59101SOL    HW179142   2.370  10.716  12.479
59101SOL    HW279143   2.389  10.788  12.347
59102SOL     OW79144  14.697   6.537   5.676
59102SOL    HW179145  14.725   6.595   5.747
59102SOL    HW279146  14.636   6.476   5.717
59103SOL     OW79147  13.164   5.229   9.900
59103SOL    HW179148  13.137   5.279   9.822
59103SOL    HW279149  13.167   5.138   9.870
59104SOL     OW79150   4.606   8.545   5.804
59104SOL    HW179151   4.694   8.573   5.780
59104SOL    HW279152   4.551   8.571   5.729
59105SOL     OW79153   4.751  12.847   0.589
59105SOL    HW179154   4.704  12.806   0.662
59105SOL    HW279155   4.825  12.789   0.573
59106SOL     OW79156   0.984   9.433   1.256
59106SOL    HW179157   0.991   9.370   1.327
59106SOL    HW279158   0.973   9.379   1.177
59107SOL     OW79159   6.383  11.648  13.381
59107SOL    HW179160   6.375  11.555  13.359
59107SOL    HW279161   6.339  11.694  13.309
59108SOL     OW79162  11.028  14.764  11.985
59108SOL    HW179163  11.088  14.739  12.054
59108SOL    HW279164  11.068  14.730  11.905
59109SOL     OW79165  13.263   8.063   0.365
59109SOL    HW179166  13.245   7.997   0.432
59109SOL    HW279167  13.352   8.045   0.337
59110SOL     OW79168   9.580   8.528   1.921
59110SOL    HW179169   9.612   8.439   1.906
59110SOL    HW279170   9.517   8.519   1.992
59111SOL     OW79171  11.489   8.148   8.062
59111SOL    HW179172  11.515   8.057   8.044
59111SOL    HW279173  11.394   8.149   8.051
59112SOL     OW79174  14.392   3.307   8.021
59112SOL    HW179175  14.307   3.326   8.060
59112SOL    HW279176  14.426   3.233   8.071
59113SOL     OW79177   5.995   3.333   0.289
59113SOL    HW179178   6.029   3.280   0.216
59113SOL    HW279179   5.936   3.396   0.247
59114SOL     OW79180   1.180  14.733  11.452
59114SOL    HW179181   1.175  14.735  11.357
59114SOL    HW279182   1.217  14.647  11.472
59115SOL     OW79183  12.270   6.916  12.169
59115SOL    HW179184  12.294   6.826  12.151
59115SOL    HW279185  12.351   6.957  12.198
59116SOL     OW79186   3.216  11.212  14.484
59116SOL    HW179187   3.194  11.237  14.394
59116SOL    HW279188   3.171  11.277  14.539
59117SOL     OW79189  11.363   1.772  10.153
59117SOL    HW179190  11.438   1.815  10.112
59117SOL    HW279191  11.295   1.839  10.153
59118SOL     OW79192  10.175   9.379  10.233
59118SOL    HW179193  10.247   9.408  10.178
59118SOL    HW279194  10.216   9.332  10.306
59119SOL     OW79195   9.044  14.187   6.640
59119SOL    HW179196   8.965  14.137   6.621
59119SOL    HW279197   9.046  14.192   6.736
59120SOL     OW79198   6.755   9.454  12.462
59120SOL    HW179199   6.758   9.441  12.556
59120SOL    HW279200   6.831   9.406  12.429
59121SOL     OW79201   1.471  12.105  10.134
59121SOL    HW179202   1.466  12.035  10.200
59121SOL    HW279203   1.472  12.060  10.050
59122SOL     OW79204   7.848   9.651   8.817
59122SOL    HW179205   7.920   9.590   8.832
59122SOL    HW279206   7.769   9.600   8.835
59123SOL     OW79207  14.357   6.206   4.245
59123SOL    HW179208  14.287   6.255   4.201
59123SOL    HW279209  14.371   6.129   4.190
59124SOL     OW79210   0.014  13.194   2.803
59124SOL    HW179211  14.829  13.247   2.756
59124SOL    HW279212  14.844  13.153   2.874
59125SOL     OW79213   6.105   9.638   7.684
59125SOL    HW179214   6.163   9.712   7.703
59125SOL    HW279215   6.062   9.618   7.767
59126SOL     OW79216  14.657  12.100   6.863
59126SOL    HW179217  14.594  12.078   6.795
59126SOL    HW279218  14.743  12.088   6.821
59127SOL     OW79219   2.686   5.716   7.542
59127SOL    HW179220   2.707   5.802   7.579
59127SOL    HW279221   2.618   5.734   7.477
59128SOL     OW79222   3.552   7.279   8.795
59128SOL    HW179223   3.617   7.214   8.769
59128SOL    HW279224   3.591   7.324   8.870
59129SOL     OW79225  11.089   5.801   8.397
59129SOL    HW179226  11.051   5.742   8.463
59129SOL    HW279227  11.013   5.838   8.352
59130SOL     OW79228  13.455  13.442  11.378
59130SOL    HW179229  13.442  13.347  11.375
59130SOL    HW279230  13.471  13.461  11.471
59131SOL     OW79231  12.673   7.596   1.141
59131SOL    HW179232  12.690   7.637   1.226
59131SOL    HW279233  12.630   7.513   1.163
59132SOL     OW79234   7.259   3.347   0.667
59132SOL    HW179235   7.203   3.275   0.637
59132SOL    HW279236   7.264   3.335   0.762
59133SOL     OW79237   0.994  11.818  13.339
59133SOL    HW179238   0.920  11.812  13.279
59133SOL    HW279239   0.959  11.864  13.416
59134SOL     OW79240   0.955  13.878   4.614
59134SOL    HW179241   0.920  13.817   4.549
59134SOL    HW279242   1.035  13.913   4.574
59135SOL     OW79243   3.598   4.383  12.123
59135SOL    HW179244   3.579   4.307  12.179
59135SOL    HW279245   3.687   4.408  12.148
59136SOL     OW79246  12.884   8.097   1.882
59136SOL    HW179247  12.920   8.048   1.957
59136SOL    HW279248  12.789   8.098   1.897
59137SOL     OW79249   4.744   3.286   8.827
59137SOL    HW179250   4.807   3.217   8.849
59137SOL    HW279251   4.719   3.267   8.736
59138SOL     OW79252   5.620   4.955  12.925
59138SOL    HW179253   5.663   4.869  12.926
59138SOL    HW279254   5.634   4.987  12.836
59139SOL     OW79255   0.397   7.955  10.311
59139SOL    HW179256   0.403   7.994  10.224
59139SOL    HW279257   0.349   8.019  10.363
59140SOL     OW79258   3.929   4.364   6.497
59140SOL    HW179259   3.970   4.449   6.513
59140SOL    HW279260   3.838   4.385   6.476
59141SOL     OW79261   7.849   3.919  13.855
59141SOL    HW179262   7.861   3.893  13.763
59141SOL    HW279263   7.897   4.001  13.863
59142SOL     OW79264   6.197   2.875   0.109
59142SOL    HW179265   6.115   2.838   0.077
59142SOL    HW279266   6.263   2.840   0.050
59143SOL     OW79267  12.111   3.138   9.862
59143SOL    HW179268  12.044   3.105   9.922
59143SOL    HW279269  12.130   3.063   9.805
59144SOL     OW79270  10.487   6.560  10.272
59144SOL    HW179271  10.428   6.633  10.254
59144SOL    HW279272  10.515   6.575  10.363
59145SOL     OW79273   8.959   3.215   5.985
59145SOL    HW179274   8.995   3.256   5.906
59145SOL    HW279275   8.945   3.124   5.960
59146SOL     OW79276   7.901   8.795  13.388
59146SOL    HW179277   7.903   8.759  13.476
59146SOL    HW279278   7.967   8.746  13.339
59147SOL     OW79279   8.246  14.752   5.461
59147SOL    HW179280   8.332  14.722   5.429
59147SOL    HW279281   8.187  14.678   5.443
59148SOL     OW79282   8.934   5.682   8.060
59148SOL    HW179283   8.939   5.587   8.071
59148SOL    HW279284   9.021   5.707   8.031
59149SOL     OW79285   3.796  10.132   3.932
59149SOL    HW179286   3.790  10.037   3.942
59149SOL    HW279287   3.793  10.166   4.022
59150SOL     OW79288   9.299   7.818  11.083
59150SOL    HW179289   9.343   7.898  11.110
59150SOL    HW279290   9.349   7.787  11.007
59151SOL     OW79291   5.785   4.531  11.614
59151SOL    HW179292   5.858   4.568  11.564
59151SOL    HW279293   5.768   4.595  11.683
59152SOL     OW79294   4.899   5.139  13.411
59152SOL    HW179295   4.946   5.111  13.332
59152SOL    HW279296   4.932   5.227  13.429
59153SOL     OW79297   4.142   7.384   7.470
59153SOL    HW179298   4.113   7.472   7.445
59153SOL    HW279299   4.235   7.394   7.487
59154SOL     OW79300  10.981   8.952   5.445
59154SOL    HW179301  11.076   8.942   5.445
59154SOL    HW279302  10.959   8.968   5.537
59155SOL     OW79303   1.361   2.231   5.163
59155SOL    HW179304   1.405   2.154   5.127
59155SOL    HW279305   1.431   2.289   5.190
59156SOL     OW79306  14.825   5.184   0.514
59156SOL    HW179307  14.778   5.263   0.540
59156SOL    HW279308  14.757   5.126   0.478
59157SOL     OW79309   6.876   8.477  12.983
59157SOL    HW179310   6.953   8.422  12.968
59157SOL    HW279311   6.805   8.414  13.001
59158SOL     OW79312   7.291  10.339   3.369
59158SOL    HW179313   7.375  10.294   3.357
59158SOL    HW279314   7.232  10.298   3.306
59159SOL     OW79315   6.480   7.150   5.496
59159SOL    HW179316   6.536   7.196   5.559
59159SOL    HW279317   6.540   7.126   5.425
59160SOL     OW79318  11.559  13.807  14.562
59160SOL    HW179319  11.486  13.782  14.619
59160SOL    HW279320  11.637  13.795  14.616
59161SOL     OW79321  11.540   8.296  12.286
59161SOL    HW179322  11.580   8.331  12.365
59161SOL    HW279323  11.465   8.245  12.317
59162SOL     OW79324  10.417  11.309   0.646
59162SOL    HW179325  10.371  11.311   0.729
59162SOL    HW279326  10.453  11.220   0.640
59163SOL     OW79327   7.964  10.777   1.343
59163SOL    HW179328   7.911  10.786   1.422
59163SOL    HW279329   7.999  10.864   1.328
59164SOL     OW79330  10.740   3.690   6.538
59164SOL    HW179331  10.834   3.688   6.517
59164SOL    HW279332  10.699   3.646   6.464
59165SOL     OW79333  12.878   8.408   4.919
59165SOL    HW179334  12.847   8.431   5.007
59165SOL    HW279335  12.952   8.349   4.934
59166SOL     OW79336  13.242  11.423   4.170
59166SOL    HW179337  13.203  11.338   4.151
59166SOL    HW279338  13.261  11.461   4.084
59167SOL     OW79339  13.841   4.425  14.215
59167SOL    HW179340  13.747   4.409  14.225
59167SOL    HW279341  13.881   4.386  14.293
59168SOL     OW79342  11.456  11.752   7.489
59168SOL    HW179343  11.499  11.834   7.465
59168SOL    HW279344  11.405  11.773   7.567
59169SOL     OW79345  12.154   0.448   4.225
59169SOL    HW179346  12.127   0.389   4.154
59169SOL    HW279347  12.152   0.394   4.303
59170SOL     OW79348   8.760   2.152  10.070
59170SOL    HW179349   8.708   2.102  10.007
59170SOL    HW279350   8.845   2.107  10.072
59171SOL     OW79351   9.325  10.631   9.375
59171SOL    HW179352   9.273  10.603   9.300
59171SOL    HW279353   9.356  10.550   9.414
59172SOL     OW79354   0.523   6.114  10.093
59172SOL    HW179355   0.611   6.135  10.062
59172SOL    HW279356   0.464   6.155  10.029
59173SOL     OW79357   7.578   4.038   2.693
59173SOL    HW179358   7.553   3.997   2.610
59173SOL    HW279359   7.638   4.108   2.668
59174SOL     OW79360  12.528  11.509   9.935
59174SOL    HW179361  12.501  11.595   9.902
59174SOL    HW279362  12.586  11.529  10.008
59175SOL     OW79363   7.279   5.210   9.128
59175SOL    HW179364   7.327   5.129   9.117
59175SOL    HW279365   7.290   5.256   9.045
59176SOL     OW79366  11.692   0.389   4.201
59176SOL    HW179367  11.726   0.355   4.118
59176SOL    HW279368  11.752   0.354   4.267
59177SOL     OW79369  14.013  10.170  10.663
59177SOL    HW179370  13.942  10.153  10.601
59177SOL    HW279371  14.047  10.084  10.686
59178SOL     OW79372   7.769   2.574  10.902
59178SOL    HW179373   7.811   2.497  10.864
59178SOL    HW279374   7.833   2.644  10.893
59179SOL     OW79375   4.147  10.324  14.632
59179SOL    HW179376   4.180  10.234  14.634
59179SOL    HW279377   4.086  10.328  14.706
59180SOL     OW79378   7.038   6.791  14.573
59180SOL    HW179379   7.074   6.715  14.620
59180SOL    HW279380   7.109   6.819  14.516
59181SOL     OW79381  13.412  14.765  13.568
59181SOL    HW179382  13.383  14.831  13.505
59181SOL    HW279383  13.504  14.749  13.546
59182SOL     OW79384   4.968   5.957   2.463
59182SOL    HW179385   4.909   5.954   2.538
59182SOL    HW279386   5.036   5.892   2.483
59183SOL     OW79387  10.486   4.196   6.001
59183SOL    HW179388  10.580   4.213   6.011
59183SOL    HW279389  10.464   4.142   6.077
59184SOL     OW79390  14.260   2.174   7.687
59184SOL    HW179391  14.201   2.099   7.696
59184SOL    HW279392  14.277   2.180   7.593
59185SOL     OW79393   7.636   0.051   4.852
59185SOL    HW179394   7.712   0.021   4.901
59185SOL    HW279395   7.613  14.858   4.795
59186SOL     OW79396   4.270  12.583   9.914
59186SOL    HW179397   4.313  12.594   9.999
59186SOL    HW279398   4.180  12.558   9.936
59187SOL     OW79399   7.809  11.222   6.772
59187SOL    HW179400   7.719  11.256   6.768
59187SOL    HW279401   7.806  11.158   6.843
59188SOL     OW79402   3.933   6.615   4.138
59188SOL    HW179403   3.902   6.527   4.159
59188SOL    HW279404   3.964   6.650   4.222
59189SOL     OW79405   6.153   9.261   1.345
59189SOL    HW179406   6.165   9.258   1.440
59189SOL    HW279407   6.234   9.300   1.312
59190SOL     OW79408   0.190   9.333   3.174
59190SOL    HW179409   0.139   9.341   3.094
59190SOL    HW279410   0.130   9.359   3.244
59191SOL     OW79411   3.700  13.353   6.485
59191SOL    HW179412   3.656  13.390   6.562
59191SOL    HW279413   3.631  13.303   6.441
59192SOL     OW79414  10.109   5.240   6.956
59192SOL    HW179415  10.154   5.301   7.014
59192SOL    HW279416  10.176   5.176   6.932
59193SOL     OW79417  11.063   2.667   3.454
59193SOL    HW179418  11.147   2.660   3.498
59193SOL    HW279419  11.061   2.594   3.392
59194SOL     OW79420   5.756   7.942   1.874
59194SOL    HW179421   5.788   7.997   1.946
59194SOL    HW279422   5.773   7.852   1.903
59195SOL     OW79423   3.241   1.559   2.098
59195SOL    HW179424   3.159   1.608   2.106
59195SOL    HW279425   3.268   1.574   2.007
59196SOL     OW79426  10.050   8.935   5.619
59196SOL    HW179427  10.123   8.873   5.626
59196SOL    HW279428  10.014   8.939   5.708
59197SOL     OW79429  14.310   9.231   8.777
59197SOL    HW179430  14.275   9.182   8.703
59197SOL    HW279431  14.379   9.175   8.813
59198SOL     OW79432   6.806  11.826   7.262
59198SOL    HW179433   6.790  11.858   7.173
59198SOL    HW279434   6.892  11.861   7.285
59199SOL     OW79435   9.647   1.967   6.320
59199SOL    HW179436   9.633   2.054   6.357
59199SOL    HW279437   9.600   1.969   6.236
59200SOL     OW79438   9.703   2.532   7.867
59200SOL    HW179439   9.643   2.606   7.866
59200SOL    HW279440   9.653   2.459   7.831
59201SOL     OW79441   1.198   0.471   8.072
59201SOL    HW179442   1.233   0.543   8.124
59201SOL    HW279443   1.132   0.430   8.128
59202SOL     OW79444   4.587   9.719   6.083
59202SOL    HW179445   4.572   9.635   6.127
59202SOL    HW279446   4.608   9.780   6.154
59203SOL     OW79447   3.504   8.982   1.215
59203SOL    HW179448   3.414   9.003   1.188
59203SOL    HW279449   3.558   9.046   1.169
59204SOL     OW79450   8.616   9.924  14.521
59204SOL    HW179451   8.638   9.983  14.449
59204SOL    HW279452   8.651   9.839  14.494
59205SOL     OW79453   8.787  11.538   1.558
59205SOL    HW179454   8.818  11.624   1.529
59205SOL    HW279455   8.820  11.477   1.492
59206SOL     OW79456   4.700   9.434   5.886
59206SOL    HW179457   4.697   9.423   5.981
59206SOL    HW279458   4.769   9.499   5.871
59207SOL     OW79459  10.202  10.240   1.932
59207SOL    HW179460  10.233  10.153   1.954
59207SOL    HW279461  10.140  10.262   2.002
59208SOL     OW79462  12.462  14.140   8.181
59208SOL    HW179463  12.526  14.176   8.119
59208SOL    HW279464  12.513  14.124   8.261
59209SOL     OW79465  12.478   4.976   4.799
59209SOL    HW179466  12.504   5.037   4.868
59209SOL    HW279467  12.539   4.902   4.809
59210SOL     OW79468   6.387  10.592   3.434
59210SOL    HW179469   6.306  10.545   3.415
59210SOL    HW279470   6.382  10.672   3.381
59211SOL     OW79471   7.803   3.948   7.241
59211SOL    HW179472   7.783   4.024   7.296
59211SOL    HW279473   7.899   3.940   7.245
59212SOL     OW79474   3.754   5.239   8.602
59212SOL    HW179475   3.817   5.253   8.673
59212SOL    HW279476   3.791   5.287   8.528
59213SOL     OW79477  13.894   3.540   8.444
59213SOL    HW179478  13.944   3.515   8.522
59213SOL    HW279479  13.909   3.634   8.435
59214SOL     OW79480  10.021   4.974  12.588
59214SOL    HW179481   9.980   5.032  12.524
59214SOL    HW279482  10.111   5.005  12.595
59215SOL     OW79483  10.159   4.078   1.147
59215SOL    HW179484  10.229   4.063   1.211
59215SOL    HW279485  10.079   4.082   1.200
59216SOL     OW79486  10.464   9.056   0.626
59216SOL    HW179487  10.438   8.999   0.553
59216SOL    HW279488  10.409   9.133   0.618
59217SOL     OW79489   8.648   1.005   3.870
59217SOL    HW179490   8.607   1.003   3.956
59217SOL    HW279491   8.643   0.914   3.839
59218SOL     OW79492  12.146   8.359   2.882
59218SOL    HW179493  12.203   8.375   2.958
59218SOL    HW279494  12.195   8.296   2.829
59219SOL     OW79495   6.126  14.393  13.907
59219SOL    HW179496   6.081  14.422  13.828
59219SOL    HW279497   6.055  14.370  13.968
59220SOL     OW79498   7.537  10.722   6.426
59220SOL    HW179499   7.516  10.698   6.516
59220SOL    HW279500   7.537  10.638   6.378
59221SOL     OW79501   9.763   1.782  14.102
59221SOL    HW179502   9.679   1.829  14.102
59221SOL    HW279503   9.827   1.849  14.076
59222SOL     OW79504   5.469  11.133  13.203
59222SOL    HW179505   5.428  11.138  13.117
59222SOL    HW279506   5.397  11.145  13.265
59223SOL     OW79507  13.153  11.583   4.390
59223SOL    HW179508  13.137  11.673   4.363
59223SOL    HW279509  13.189  11.540   4.313
59224SOL     OW79510   0.681   5.376  11.643
59224SOL    HW179511   0.655   5.323  11.719
59224SOL    HW279512   0.644   5.463  11.661
59225SOL     OW79513   4.372   1.731   0.861
59225SOL    HW179514   4.444   1.793   0.850
59225SOL    HW279515   4.294   1.785   0.867
59226SOL     OW79516   0.040   8.024   2.596
59226SOL    HW179517   0.039   8.103   2.542
59226SOL    HW279518   0.132   8.012   2.619
59227SOL     OW79519   6.680  11.504   1.359
59227SOL    HW179520   6.737  11.569   1.319
59227SOL    HW279521   6.683  11.524   1.452
59228SOL     OW79522   2.168  11.681  10.678
59228SOL    HW179523   2.094  11.640  10.633
59228SOL    HW279524   2.171  11.770  10.643
59229SOL     OW79525   1.216   9.623   7.483
59229SOL    HW179526   1.222   9.719   7.484
59229SOL    HW279527   1.179   9.602   7.398
59230SOL     OW79528   5.605   7.616   5.416
59230SOL    HW179529   5.562   7.549   5.470
59230SOL    HW279530   5.682   7.641   5.466
59231SOL     OW79531   2.468   4.325  14.209
59231SOL    HW179532   2.493   4.399  14.154
59231SOL    HW279533   2.449   4.255  14.146
59232SOL     OW79534   7.813   2.916   5.850
59232SOL    HW179535   7.801   3.009   5.867
59232SOL    HW279536   7.841   2.879   5.934
59233SOL     OW79537  12.121  12.025   4.220
59233SOL    HW179538  12.080  12.054   4.302
59233SOL    HW279539  12.215  12.025   4.239
59234SOL     OW79540   6.508   4.275   0.755
59234SOL    HW179541   6.593   4.305   0.723
59234SOL    HW279542   6.446   4.343   0.728
59235SOL     OW79543  13.732   4.780   5.709
59235SOL    HW179544  13.672   4.819   5.772
59235SOL    HW279545  13.685   4.704   5.674
59236SOL     OW79546  13.383  12.187   5.155
59236SOL    HW179547  13.359  12.228   5.238
59236SOL    HW279548  13.464  12.231   5.129
59237SOL     OW79549   0.257   6.189   0.386
59237SOL    HW179550   0.285   6.215   0.474
59237SOL    HW279551   0.287   6.260   0.330
59238SOL     OW79552   1.622   9.947   1.204
59238SOL    HW179553   1.558   9.883   1.174
59238SOL    HW279554   1.676   9.964   1.126
59239SOL     OW79555   7.421  10.001   9.642
59239SOL    HW179556   7.425   9.954   9.558
59239SOL    HW279557   7.447   9.936   9.707
59240SOL     OW79558   1.292   2.077   9.572
59240SOL    HW179559   1.214   2.127   9.547
59240SOL    HW279560   1.348   2.140   9.616
59241SOL     OW79561   3.551  12.528  11.241
59241SOL    HW179562   3.590  12.443  11.220
59241SOL    HW279563   3.579  12.585  11.169
59242SOL     OW79564   0.979   0.929   7.123
59242SOL    HW179565   0.945   0.949   7.210
59242SOL    HW279566   1.073   0.945   7.130
59243SOL     OW79567   9.343  13.610   9.408
59243SOL    HW179568   9.283  13.684   9.407
59243SOL    HW279569   9.429  13.648   9.389
59244SOL     OW79570   4.578   7.817   1.299
59244SOL    HW179571   4.640   7.783   1.234
59244SOL    HW279572   4.498   7.833   1.250
59245SOL     OW79573   0.209   4.529   3.311
59245SOL    HW179574   0.270   4.585   3.263
59245SOL    HW279575   0.131   4.526   3.255
59246SOL     OW79576   0.938  14.665   0.697
59246SOL    HW179577   0.906  14.668   0.787
59246SOL    HW279578   0.955  14.756   0.674
59247SOL     OW79579   0.177   7.969   1.346
59247SOL    HW179580   0.165   7.883   1.306
59247SOL    HW279581   0.203   8.026   1.273
59248SOL     OW79582   3.379  10.386   2.903
59248SOL    HW179583   3.338  10.352   2.982
59248SOL    HW279584   3.306  10.405   2.844
59249SOL     OW79585   4.376  13.032   9.452
59249SOL    HW179586   4.326  12.983   9.517
59249SOL    HW279587   4.430  12.966   9.409
59250SOL     OW79588   1.497   2.147  10.739
59250SOL    HW179589   1.515   2.130  10.831
59250SOL    HW279590   1.440   2.075  10.712
59251SOL     OW79591   0.057   0.322   5.756
59251SOL    HW179592   0.077   0.233   5.783
59251SOL    HW279593   0.046   0.370   5.839
59252SOL     OW79594   0.780  14.237  13.232
59252SOL    HW179595   0.857  14.184  13.252
59252SOL    HW279596   0.758  14.215  13.142
59253SOL     OW79597  10.360  11.586   8.504
59253SOL    HW179598  10.396  11.601   8.417
59253SOL    HW279599  10.348  11.674   8.541
59254SOL     OW79600   9.005   9.936  12.944
59254SOL    HW179601   9.052  10.013  12.913
59254SOL    HW279602   8.948   9.912  12.870
59255SOL     OW79603  13.160   9.102   0.888
59255SOL    HW179604  13.096   9.168   0.859
59255SOL    HW279605  13.218   9.091   0.812
59256SOL     OW79606   5.766   3.692   9.653
59256SOL    HW179607   5.818   3.618   9.683
59256SOL    HW279608   5.699   3.704   9.721
59257SOL     OW79609   6.489   0.464   3.062
59257SOL    HW179610   6.467   0.487   3.152
59257SOL    HW279611   6.431   0.518   3.008
59258SOL     OW79612   3.463  12.010   1.283
59258SOL    HW179613   3.510  11.961   1.351
59258SOL    HW279614   3.377  11.968   1.278
59259SOL     OW79615   4.159   7.365  11.200
59259SOL    HW179616   4.064   7.368  11.191
59259SOL    HW279617   4.187   7.456  11.184
59260SOL     OW79618  10.563  10.370  10.741
59260SOL    HW179619  10.482  10.323  10.759
59260SOL    HW279620  10.593  10.337  10.657
59261SOL     OW79621  10.109  10.806   7.874
59261SOL    HW179622  10.051  10.881   7.884
59261SOL    HW279623  10.050  10.730   7.877
59262SOL     OW79624  10.117   8.910   1.743
59262SOL    HW179625  10.054   8.841   1.764
59262SOL    HW279626  10.203   8.869   1.753
59263SOL     OW79627   3.498  13.391  14.642
59263SOL    HW179628   3.561  13.329  14.606
59263SOL    HW279629   3.539  13.423  14.723
59264SOL     OW79630   6.852   2.172   6.187
59264SOL    HW179631   6.880   2.080   6.188
59264SOL    HW279632   6.838   2.194   6.279
59265SOL     OW79633  10.437   2.633   1.619
59265SOL    HW179634  10.365   2.570   1.622
59265SOL    HW279635  10.502   2.592   1.561
59266SOL     OW79636   5.004   3.099   5.758
59266SOL    HW179637   4.910   3.120   5.760
59266SOL    HW279638   5.027   3.082   5.849
59267SOL     OW79639   1.113   3.164   6.570
59267SOL    HW179640   1.179   3.222   6.532
59267SOL    HW279641   1.162   3.091   6.606
59268SOL     OW79642   2.680  11.438  13.984
59268SOL    HW179643   2.606  11.463  13.929
59268SOL    HW279644   2.640  11.409  14.066
59269SOL     OW79645   1.665  13.421   0.016
59269SOL    HW179646   1.678  13.507  14.857
59269SOL    HW279647   1.578  13.424   0.055
59270SOL     OW79648  13.466   6.589  10.493
59270SOL    HW179649  13.522   6.512  10.502
59270SOL    HW279650  13.461   6.605  10.399
59271SOL     OW79651  12.382   6.426   1.309
59271SOL    HW179652  12.403   6.409   1.217
59271SOL    HW279653  12.316   6.360   1.330
59272SOL     OW79654  11.851   2.145   0.464
59272SOL    HW179655  11.882   2.076   0.405
59272SOL    HW279656  11.779   2.186   0.416
59273SOL     OW79657   1.282   6.932   7.118
59273SOL    HW179658   1.251   6.849   7.153
59273SOL    HW279659   1.330   6.909   7.039
59274SOL     OW79660   8.790  11.276   2.448
59274SOL    HW179661   8.705  11.259   2.488
59274SOL    HW279662   8.799  11.372   2.450
59275SOL     OW79663   8.160   0.771   1.935
59275SOL    HW179664   8.250   0.760   1.967
59275SOL    HW279665   8.149   0.865   1.927
59276SOL     OW79666   2.352   0.899   7.631
59276SOL    HW179667   2.315   0.960   7.695
59276SOL    HW279668   2.418   0.950   7.585
59277SOL     OW79669   3.592  13.731   9.437
59277SOL    HW179670   3.589  13.731   9.532
59277SOL    HW279671   3.683  13.752   9.416
59278SOL     OW79672   5.900   1.933  14.324
59278SOL    HW179673   5.834   1.936  14.393
59278SOL    HW279674   5.937   2.022  14.323
59279SOL     OW79675   4.101   8.832  11.628
59279SOL    HW179676   4.026   8.891  11.617
59279SOL    HW279677   4.081   8.783  11.708
59280SOL     OW79678   7.964   3.098   1.228
59280SOL    HW179679   7.884   3.116   1.277
59280SOL    HW279680   7.954   3.007   1.199
59281SOL     OW79681   2.906   2.323   5.816
59281SOL    HW179682   2.833   2.293   5.763
59281SOL    HW279683   2.867   2.343   5.901
59282SOL     OW79684   4.535   3.381  14.080
59282SOL    HW179685   4.508   3.296  14.113
59282SOL    HW279686   4.548   3.434  14.159
59283SOL     OW79687   0.003   1.973   7.919
59283SOL    HW179688  14.823   1.900   7.937
59283SOL    HW279689   0.090   1.935   7.934
59284SOL     OW79690   1.644   2.637  12.167
59284SOL    HW179691   1.570   2.579  12.146
59284SOL    HW279692   1.710   2.579  12.205
59285SOL     OW79693   0.782  11.127   6.516
59285SOL    HW179694   0.815  11.212   6.545
59285SOL    HW279695   0.728  11.096   6.590
59286SOL     OW79696   2.690   6.849  12.582
59286SOL    HW179697   2.649   6.935  12.595
59286SOL    HW279698   2.742   6.836  12.661
59287SOL     OW79699  13.133  13.559  14.348
59287SOL    HW179700  13.135  13.598  14.436
59287SOL    HW279701  13.218  13.516  14.339
59288SOL     OW79702   6.837   0.444   2.426
59288SOL    HW179703   6.768   0.398   2.473
59288SOL    HW279704   6.834   0.533   2.459
59289SOL     OW79705   9.692   3.092   6.178
59289SOL    HW179706   9.783   3.094   6.206
59289SOL    HW279707   9.683   3.012   6.127
59290SOL     OW79708  12.544   0.575   3.858
59290SOL    HW179709  12.621   0.591   3.804
59290SOL    HW279710  12.517   0.663   3.886
59291SOL     OW79711   0.746   0.611  10.412
59291SOL    HW179712   0.749   0.554  10.336
59291SOL    HW279713   0.711   0.694  10.379
59292SOL     OW79714   1.329   7.528   1.662
59292SOL    HW179715   1.247   7.574   1.681
59292SOL    HW279716   1.394   7.569   1.720
59293SOL     OW79717  10.062   3.768  11.459
59293SOL    HW179718  10.041   3.675  11.461
59293SOL    HW279719  10.133   3.776  11.395
59294SOL     OW79720   3.978   0.802  10.830
59294SOL    HW179721   4.037   0.766  10.896
59294SOL    HW279722   3.918   0.731  10.810
59295SOL     OW79723   3.438  11.738  14.287
59295SOL    HW179724   3.533  11.728  14.288
59295SOL    HW279725   3.420  11.800  14.358
59296SOL     OW79726   8.815   0.253   7.872
59296SOL    HW179727   8.821   0.178   7.813
59296SOL    HW279728   8.801   0.214   7.959
59297SOL     OW79729   2.229   2.298  14.091
59297SOL    HW179730   2.247   2.226  14.030
59297SOL    HW279731   2.169   2.356  14.043
59298SOL     OW79732  11.829  14.652  14.129
59298SOL    HW179733  11.919  14.623  14.114
59298SOL    HW279734  11.838  14.745  14.152
59299SOL     OW79735   8.345   1.873   3.748
59299SOL    HW179736   8.372   1.964   3.734
59299SOL    HW279737   8.250   1.876   3.744
59300SOL     OW79738  10.336   7.357   9.711
59300SOL    HW179739  10.287   7.439   9.700
59300SOL    HW279740  10.338   7.318   9.624
59301SOL     OW79741   8.662   7.116   3.191
59301SOL    HW179742   8.672   7.021   3.205
59301SOL    HW279743   8.583   7.124   3.139
59302SOL     OW79744   5.383  11.345   3.396
59302SOL    HW179745   5.333  11.385   3.325
59302SOL    HW279746   5.459  11.306   3.353
59303SOL     OW79747  13.016  14.632   1.317
59303SOL    HW179748  13.104  14.669   1.308
59303SOL    HW279749  12.958  14.708   1.318
59304SOL     OW79750  11.063   5.332   7.070
59304SOL    HW179751  11.061   5.426   7.053
59304SOL    HW279752  11.050   5.324   7.164
59305SOL     OW79753   1.966   0.880   3.664
59305SOL    HW179754   1.949   0.894   3.571
59305SOL    HW279755   2.012   0.959   3.692
59306SOL     OW79756  11.272   9.573   4.672
59306SOL    HW179757  11.228   9.552   4.754
59306SOL    HW279758  11.204   9.616   4.618
59307SOL     OW79759  11.474   6.148   6.154
59307SOL    HW179760  11.520   6.066   6.135
59307SOL    HW279761  11.436   6.133   6.241
59308SOL     OW79762   6.664  14.488   7.349
59308SOL    HW179763   6.661  14.468   7.256
59308SOL    HW279764   6.727  14.426   7.385
59309SOL     OW79765   0.111   6.218   4.893
59309SOL    HW179766   0.181   6.155   4.908
59309SOL    HW279767   0.058   6.180   4.823
59310SOL     OW79768  14.258  13.573   8.805
59310SOL    HW179769  14.343  13.542   8.837
59310SOL    HW279770  14.268  13.668   8.800
59311SOL     OW79771   0.359   6.432   5.251
59311SOL    HW179772   0.389   6.485   5.177
59311SOL    HW279773   0.329   6.350   5.211
59312SOL     OW79774  14.859  12.059   0.905
59312SOL    HW179775   0.040  12.108   0.961
59312SOL    HW279776   0.034  12.024   0.836
59313SOL     OW79777   6.650   2.905   4.781
59313SOL    HW179778   6.569   2.886   4.828
59313SOL    HW279779   6.630   2.885   4.690
59314SOL     OW79780   5.131  11.555   1.555
59314SOL    HW179781   5.056  11.567   1.497
59314SOL    HW279782   5.198  11.514   1.500
59315SOL     OW79783  10.461   9.155   5.777
59315SOL    HW179784  10.465   9.068   5.818
59315SOL    HW279785  10.481   9.138   5.684
59316SOL     OW79786   8.783   0.484   0.153
59316SOL    HW179787   8.867   0.528   0.164
59316SOL    HW279788   8.792   0.436   0.070
59317SOL     OW79789   6.304   1.434   3.678
59317SOL    HW179790   6.375   1.496   3.688
59317SOL    HW279791   6.282   1.437   3.584
59318SOL     OW79792   4.567  14.617  13.519
59318SOL    HW179793   4.604  14.670  13.589
59318SOL    HW279794   4.633  14.619  13.450
59319SOL     OW79795  11.061   0.263   8.425
59319SOL    HW179796  11.046   0.233   8.335
59319SOL    HW279797  11.140   0.316   8.420
59320SOL     OW79798  13.533  11.593  12.922
59320SOL    HW179799  13.547  11.529  12.852
59320SOL    HW279800  13.482  11.663  12.879
59321SOL     OW79801   1.902   1.479   4.326
59321SOL    HW179802   1.876   1.494   4.236
59321SOL    HW279803   1.982   1.427   4.320
59322SOL     OW79804   4.423   3.825   9.142
59322SOL    HW179805   4.429   3.795   9.232
59322SOL    HW279806   4.383   3.912   9.148
59323SOL     OW79807  10.552   3.948   0.650
59323SOL    HW179808  10.624   3.930   0.591
59323SOL    HW279809  10.593   3.966   0.734
59324SOL     OW79810  12.814   5.909  11.953
59324SOL    HW179811  12.870   5.927  12.029
59324SOL    HW279812  12.860   5.840  11.905
59325SOL     OW79813   9.270  10.242   0.685
59325SOL    HW179814   9.344  10.189   0.655
59325SOL    HW279815   9.198  10.180   0.691
59326SOL     OW79816   7.510   0.777   9.719
59326SOL    HW179817   7.415   0.764   9.713
59326SOL    HW279818   7.520   0.846   9.785
59327SOL     OW79819   3.485   2.662   4.767
59327SOL    HW179820   3.492   2.730   4.834
59327SOL    HW279821   3.560   2.605   4.784
59328SOL     OW79822   0.108  12.471   9.441
59328SOL    HW179823   0.014  12.455   9.431
59328SOL    HW279824   0.150  12.401   9.391
59329SOL     OW79825   1.854  11.840   4.753
59329SOL    HW179826   1.930  11.784   4.766
59329SOL    HW279827   1.794  11.815   4.823
59330SOL     OW79828  11.749   1.558   6.505
59330SOL    HW179829  11.662   1.520   6.493
59330SOL    HW279830  11.777   1.525   6.591
59331SOL     OW79831  14.081   3.221   4.156
59331SOL    HW179832  13.996   3.220   4.201
59331SOL    HW279833  14.078   3.145   4.099
59332SOL     OW79834   4.178   2.364   0.041
59332SOL    HW179835   4.192   2.457   0.023
59332SOL    HW279836   4.160   2.326  14.835
59333SOL     OW79837   5.503  14.099  13.122
59333SOL    HW179838   5.560  14.023  13.134
59333SOL    HW279839   5.460  14.110  13.207
59334SOL     OW79840  12.886   1.269   2.877
59334SOL    HW179841  12.913   1.240   2.964
59334SOL    HW279842  12.815   1.332   2.894
59335SOL     OW79843   9.410   6.222  13.651
59335SOL    HW179844   9.416   6.304  13.700
59335SOL    HW279845   9.486   6.223  13.593
59336SOL     OW79846   6.139   0.649  10.269
59336SOL    HW179847   6.106   0.693  10.347
59336SOL    HW279848   6.219   0.696  10.246
59337SOL     OW79849   8.305   9.773   1.997
59337SOL    HW179850   8.346   9.859   2.007
59337SOL    HW279851   8.226   9.778   2.051
59338SOL     OW79852  11.741   1.423   8.181
59338SOL    HW179853  11.682   1.400   8.110
59338SOL    HW279854  11.826   1.436   8.139
59339SOL     OW79855  11.576   0.410   0.574
59339SOL    HW179856  11.641   0.349   0.539
59339SOL    HW279857  11.582   0.399   0.669
59340SOL     OW79858   7.441   6.566   4.306
59340SOL    HW179859   7.360   6.578   4.355
59340SOL    HW279860   7.498   6.637   4.335
59341SOL     OW79861   1.756  13.443   0.658
59341SOL    HW179862   1.719  13.519   0.702
59341SOL    HW279863   1.844  13.435   0.694
59342SOL     OW79864   7.030   5.226   1.126
59342SOL    HW179865   7.079   5.298   1.166
59342SOL    HW279866   6.998   5.262   1.044
59343SOL     OW79867   7.650   8.372   9.198
59343SOL    HW179868   7.697   8.334   9.124
59343SOL    HW279869   7.634   8.463   9.173
59344SOL     OW79870   3.971   1.511   4.631
59344SOL    HW179871   4.028   1.547   4.698
59344SOL    HW279872   4.025   1.509   4.552
59345SOL     OW79873   7.755  12.222   4.183
59345SOL    HW179874   7.811  12.299   4.195
59345SOL    HW279875   7.666  12.254   4.199
59346SOL     OW79876   4.958   1.952   3.030
59346SOL    HW179877   5.032   1.900   3.062
59346SOL    HW279878   4.964   2.034   3.078
59347SOL     OW79879   8.933  14.426   9.011
59347SOL    HW179880   8.894  14.393   8.931
59347SOL    HW279881   8.962  14.515   8.989
59348SOL     OW79882   2.164  11.285   3.762
59348SOL    HW179883   2.158  11.379   3.744
59348SOL    HW279884   2.106  11.244   3.697
59349SOL     OW79885  10.199   4.942  13.102
59349SOL    HW179886  10.146   5.005  13.053
59349SOL    HW279887  10.136   4.892  13.154
59350SOL     OW79888   7.940   7.671   3.003
59350SOL    HW179889   8.007   7.737   2.984
59350SOL    HW279890   7.915   7.686   3.094
59351SOL     OW79891   7.741   6.326   1.110
59351SOL    HW179892   7.719   6.281   1.191
59351SOL    HW279893   7.832   6.301   1.092
59352SOL     OW79894  11.222  13.328  10.973
59352SOL    HW179895  11.162  13.253  10.978
59352SOL    HW279896  11.309  13.290  10.983
59353SOL     OW79897   2.295   0.259  14.473
59353SOL    HW179898   2.318   0.265  14.380
59353SOL    HW279899   2.215   0.312  14.481
59354SOL     OW79900   0.899   8.025   2.380
59354SOL    HW179901   0.948   8.069   2.449
59354SOL    HW279902   0.831   8.088   2.355
59355SOL     OW79903   7.842   6.374   5.243
59355SOL    HW179904   7.869   6.432   5.172
59355SOL    HW279905   7.874   6.287   5.217
59356SOL     OW79906  14.599  13.726   8.570
59356SOL    HW179907  14.632  13.800   8.520
59356SOL    HW279908  14.595  13.757   8.661
59357SOL     OW79909  10.745   7.237  14.762
59357SOL    HW179910  10.661   7.210  14.724
59357SOL    HW279911  10.728   7.242  14.856
59358SOL     OW79912  10.270  11.047   8.179
59358SOL    HW179913  10.207  10.980   8.153
59358SOL    HW279914  10.354  11.013   8.150
59359SOL     OW79915  12.047   2.455  13.152
59359SOL    HW179916  12.080   2.365  13.151
59359SOL    HW279917  12.122   2.508  13.176
59360SOL     OW79918   3.039   5.109  14.464
59360SOL    HW179919   2.999   5.070  14.542
59360SOL    HW279920   3.105   5.169  14.499
59361SOL     OW79921  11.438   6.361  14.511
59361SOL    HW179922  11.363   6.419  14.529
59361SOL    HW279923  11.452   6.370  14.416
59362SOL     OW79924   4.972   8.688  14.320
59362SOL    HW179925   4.978   8.699  14.415
59362SOL    HW279926   4.913   8.758  14.292
59363SOL     OW79927   5.483   8.650   5.395
59363SOL    HW179928   5.398   8.672   5.434
59363SOL    HW279929   5.462   8.603   5.315
59364SOL     OW79930   8.949   0.041   1.712
59364SOL    HW179931   8.965  14.850   1.649
59364SOL    HW279932   8.894   0.103   1.664
59365SOL     OW79933  13.628   8.414  11.044
59365SOL    HW179934  13.564   8.414  10.972
59365SOL    HW279935  13.713   8.416  11.000
59366SOL     OW79936   1.256   9.974   2.342
59366SOL    HW179937   1.179  10.010   2.298
59366SOL    HW279938   1.328   9.988   2.281
59367SOL     OW79939  13.038   7.754  12.247
59367SOL    HW179940  13.113   7.782  12.195
59367SOL    HW279941  13.071   7.749  12.337
59368SOL     OW79942   1.463  10.500  14.675
59368SOL    HW179943   1.446  10.573  14.616
59368SOL    HW279944   1.540  10.457  14.637
59369SOL     OW79945   3.075   8.660   2.163
59369SOL    HW179946   3.150   8.718   2.147
59369SOL    HW279947   3.088   8.587   2.103
59370SOL     OW79948   2.880  14.637   4.588
59370SOL    HW179949   2.802  14.664   4.636
59370SOL    HW279950   2.878  14.541   4.591
59371SOL     OW79951  14.816   3.977  13.894
59371SOL    HW179952  14.741   3.918  13.892
59371SOL    HW279953  14.851   3.974  13.805
59372SOL     OW79954  13.492  14.399   0.544
59372SOL    HW179955  13.515  14.354   0.463
59372SOL    HW279956  13.565  14.381   0.603
59373SOL     OW79957  11.781   9.940   6.133
59373SOL    HW179958  11.820   9.897   6.209
59373SOL    HW279959  11.731  10.013   6.170
59374SOL     OW79960   0.756  12.869  11.604
59374SOL    HW179961   0.843  12.901  11.580
59374SOL    HW279962   0.765  12.841  11.695
59375SOL     OW79963  12.429   6.288   8.527
59375SOL    HW179964  12.338   6.260   8.538
59375SOL    HW279965  12.444   6.349   8.599
59376SOL     OW79966  12.317  12.737   6.125
59376SOL    HW179967  12.405  12.748   6.088
59376SOL    HW279968  12.322  12.776   6.212
59377SOL     OW79969  12.228   7.290  12.776
59377SOL    HW179970  12.167   7.364  12.782
59377SOL    HW279971  12.215   7.256  12.687
59378SOL     OW79972   9.396   1.266   7.475
59378SOL    HW179973   9.383   1.321   7.398
59378SOL    HW279974   9.465   1.310   7.526
59379SOL     OW79975   1.017   7.916  11.062
59379SOL    HW179976   0.958   7.975  11.016
59379SOL    HW279977   0.959   7.867  11.121
59380SOL     OW79978   1.824   4.913  11.039
59380SOL    HW179979   1.766   4.886  10.968
59380SOL    HW279980   1.860   4.831  11.073
59381SOL     OW79981  10.382  12.109   8.730
59381SOL    HW179982  10.444  12.112   8.803
59381SOL    HW279983  10.325  12.185   8.744
59382SOL     OW79984   6.803  12.052   4.492
59382SOL    HW179985   6.796  12.143   4.463
59382SOL    HW279986   6.798  12.000   4.411
59383SOL     OW79987   6.036   7.516  11.968
59383SOL    HW179988   6.084   7.442  11.932
59383SOL    HW279989   6.016   7.570  11.891
59384SOL     OW79990   9.024   1.193   3.003
59384SOL    HW179991   9.082   1.139   2.950
59384SOL    HW279992   8.955   1.222   2.943
59385SOL     OW79993   6.975  13.618   8.380
59385SOL    HW179994   7.069  13.634   8.369
59385SOL    HW279995   6.965  13.524   8.362
59386SOL     OW79996   2.483   3.600   6.147
59386SOL    HW179997   2.461   3.516   6.186
59386SOL    HW279998   2.486   3.661   6.221
59387SOL     OW79999   3.751  12.715   5.257
59387SOL    HW180000   3.836  12.759   5.258
59387SOL    HW280001   3.741  12.683   5.167
59388SOL     OW80002   8.299  10.648   2.108
59388SOL    HW180003   8.263  10.735   2.128
59388SOL    HW280004   8.344  10.622   2.188
59389SOL     OW80005   0.696  11.319  11.840
59389SOL    HW180006   0.704  11.398  11.787
59389SOL    HW280007   0.732  11.249  11.786
59390SOL     OW80008   0.967   0.397   8.207
59390SOL    HW180009   0.911   0.321   8.192
59390SOL    HW280010   0.948   0.422   8.297
59391SOL     OW80011   6.041   3.744  13.204
59391SOL    HW180012   6.065   3.670  13.148
59391SOL    HW280013   6.076   3.820  13.158
59392SOL     OW80014  12.903   4.306   7.920
59392SOL    HW180015  12.878   4.349   7.839
59392SOL    HW280016  12.822   4.269   7.955
59393SOL     OW80017  11.726   8.688  12.730
59393SOL    HW180018  11.805   8.726  12.692
59393SOL    HW280019  11.711   8.738  12.810
59394SOL     OW80020   1.531   0.488   4.653
59394SOL    HW180021   1.618   0.512   4.621
59394SOL    HW280022   1.517   0.399   4.622
59395SOL     OW80023   0.347   3.729   7.380
59395SOL    HW180024   0.282   3.660   7.390
59395SOL    HW280025   0.414   3.709   7.445
59396SOL     OW80026  12.649   7.679   9.056
59396SOL    HW180027  12.715   7.660   9.123
59396SOL    HW280028  12.688   7.645   8.975
59397SOL     OW80029   6.778   8.616   1.144
59397SOL    HW180030   6.757   8.664   1.064
59397SOL    HW280031   6.759   8.677   1.215
59398SOL     OW80032  11.417   7.001  11.364
59398SOL    HW180033  11.481   6.942  11.325
59398SOL    HW280034  11.430   7.084  11.319
59399SOL     OW80035   6.351   8.413   3.247
59399SOL    HW180036   6.287   8.466   3.296
59399SOL    HW280037   6.348   8.448   3.158
59400SOL     OW80038  10.617   9.020  14.711
59400SOL    HW180039  10.670   8.995  14.787
59400SOL    HW280040  10.527   9.002  14.738
59401SOL     OW80041   7.844   2.638   0.333
59401SOL    HW180042   7.914   2.573   0.329
59401SOL    HW280043   7.877   2.706   0.391
59402SOL     OW80044  14.554   0.401  10.884
59402SOL    HW180045  14.579   0.461  10.814
59402SOL    HW280046  14.618   0.330  10.878
59403SOL     OW80047  12.333  10.637   2.491
59403SOL    HW180048  12.324  10.607   2.400
59403SOL    HW280049  12.331  10.556   2.543
59404SOL     OW80050   3.045   5.002  14.220
59404SOL    HW180051   3.105   5.066  14.183
59404SOL    HW280052   3.024   5.035  14.307
59405SOL     OW80053   3.216   5.592   0.188
59405SOL    HW180054   3.284   5.655   0.164
59405SOL    HW280055   3.257   5.507   0.173
59406SOL     OW80056  10.491  11.508   5.130
59406SOL    HW180057  10.499  11.486   5.037
59406SOL    HW280058  10.549  11.445   5.174
59407SOL     OW80059   4.632   1.844   6.488
59407SOL    HW180060   4.675   1.885   6.413
59407SOL    HW280061   4.625   1.914   6.553
59408SOL     OW80062   1.354   8.889   7.551
59408SOL    HW180063   1.416   8.961   7.550
59408SOL    HW280064   1.274   8.925   7.512
59409SOL     OW80065   5.711   2.190  14.172
59409SOL    HW180066   5.755   2.170  14.089
59409SOL    HW280067   5.779   2.178  14.239
59410SOL     OW80068   0.677   2.250   9.334
59410SOL    HW180069   0.698   2.243   9.241
59410SOL    HW280070   0.582   2.251   9.338
59411SOL     OW80071   7.043   9.706   4.131
59411SOL    HW180072   7.055   9.710   4.226
59411SOL    HW280073   7.054   9.797   4.102
59412SOL     OW80074  10.242  13.915  12.861
59412SOL    HW180075  10.300  13.848  12.825
59412SOL    HW280076  10.265  13.920  12.954
59413SOL     OW80077   0.859   8.136  14.736
59413SOL    HW180078   0.830   8.179  14.655
59413SOL    HW280079   0.912   8.203  14.780
59414SOL     OW80080  10.104   9.765   2.088
59414SOL    HW180081  10.151   9.693   2.046
59414SOL    HW280082  10.061   9.726   2.163
59415SOL     OW80083   9.517   7.401   3.151
59415SOL    HW180084   9.457   7.360   3.089
59415SOL    HW280085   9.592   7.342   3.154
59416SOL     OW80086   7.545   7.165  12.081
59416SOL    HW180087   7.455   7.196  12.073
59416SOL    HW280088   7.577   7.206  12.161
59417SOL     OW80089   6.416   6.699   2.484
59417SOL    HW180090   6.356   6.771   2.502
59417SOL    HW280091   6.502   6.740   2.480
59418SOL     OW80092  14.561  14.835   4.773
59418SOL    HW180093  14.614   0.028   4.806
59418SOL    HW280094  14.508  14.807   4.848
59419SOL     OW80095  13.166   4.564   0.754
59419SOL    HW180096  13.180   4.469   0.748
59419SOL    HW280097  13.078   4.573   0.790
59420SOL     OW80098   2.702   3.167   7.820
59420SOL    HW180099   2.736   3.113   7.748
59420SOL    HW280100   2.702   3.108   7.896
59421SOL     OW80101  10.638  13.821  12.327
59421SOL    HW180102  10.557  13.797  12.372
59421SOL    HW280103  10.625  13.913  12.302
59422SOL     OW80104   2.966  14.205   7.112
59422SOL    HW180105   2.996  14.164   7.193
59422SOL    HW280106   3.038  14.193   7.050
59423SOL     OW80107   4.479   2.941   2.327
59423SOL    HW180108   4.398   2.973   2.288
59423SOL    HW280109   4.531   2.911   2.252
59424SOL     OW80110  14.380  14.262   0.214
59424SOL    HW180111  14.438  14.200   0.259
59424SOL    HW280112  14.355  14.324   0.282
59425SOL     OW80113  11.863   4.728   8.899
59425SOL    HW180114  11.849   4.703   8.991
59425SOL    HW280115  11.957   4.717   8.886
59426SOL     OW80116   4.983   9.665  10.331
59426SOL    HW180117   4.943   9.665  10.418
59426SOL    HW280118   4.936   9.733  10.282
59427SOL     OW80119   2.751   2.229   6.099
59427SOL    HW180120   2.731   2.308   6.149
59427SOL    HW280121   2.828   2.192   6.143
59428SOL     OW80122  10.408  14.822   4.219
59428SOL    HW180123  10.467  14.804   4.291
59428SOL    HW280124  10.322  14.831   4.259
59429SOL     OW80125   1.882   3.676   6.701
59429SOL    HW180126   1.889   3.649   6.792
59429SOL    HW280127   1.788   3.680   6.684
59430SOL     OW80128  11.512   7.643  14.136
59430SOL    HW180129  11.530   7.680  14.222
59430SOL    HW280130  11.417   7.649  14.126
59431SOL     OW80131  13.364   1.374  13.767
59431SOL    HW180132  13.452   1.345  13.740
59431SOL    HW280133  13.332   1.424  13.691
59432SOL     OW80134   3.693   2.000   5.637
59432SOL    HW180135   3.777   1.954   5.638
59432SOL    HW280136   3.628   1.929   5.638
59433SOL     OW80137   0.409   4.918  12.625
59433SOL    HW180138   0.333   4.964  12.591
59433SOL    HW280139   0.385   4.894  12.715
59434SOL     OW80140   2.029   9.651   2.329
59434SOL    HW180141   2.093   9.713   2.293
59434SOL    HW280142   2.062   9.565   2.304
59435SOL     OW80143   3.091   5.576   1.114
59435SOL    HW180144   3.149   5.649   1.136
59435SOL    HW280145   3.094   5.519   1.190
59436SOL     OW80146   0.286  13.673  12.936
59436SOL    HW180147   0.316  13.583  12.920
59436SOL    HW280148   0.327  13.697  13.019
59437SOL     OW80149  10.170   7.249  10.302
59437SOL    HW180150  10.148   7.298  10.382
59437SOL    HW280151  10.143   7.159  10.320
59438SOL     OW80152   3.262   6.121  14.206
59438SOL    HW180153   3.325   6.121  14.134
59438SOL    HW280154   3.310   6.082  14.279
59439SOL     OW80155   8.554   3.952  11.890
59439SOL    HW180156   8.581   3.872  11.935
59439SOL    HW280157   8.608   3.955  11.811
59440SOL     OW80158   7.941  13.529  12.732
59440SOL    HW180159   8.003  13.480  12.678
59440SOL    HW280160   7.874  13.559  12.671
59441SOL     OW80161   7.955   3.683   2.053
59441SOL    HW180162   7.926   3.679   2.145
59441SOL    HW280163   7.875   3.696   2.003
59442SOL     OW80164  14.011   7.932  11.339
59442SOL    HW180165  13.972   7.953  11.424
59442SOL    HW280166  13.942   7.952  11.276
59443SOL     OW80167   5.970  12.136   1.279
59443SOL    HW180168   6.005  12.220   1.251
59443SOL    HW280169   6.033  12.071   1.248
59444SOL     OW80170   2.988  14.566   2.283
59444SOL    HW180171   2.980  14.660   2.299
59444SOL    HW280172   2.975  14.526   2.369
59445SOL     OW80173  14.755   9.489   5.188
59445SOL    HW180174  14.842   9.448   5.192
59445SOL    HW280175  14.771   9.578   5.158
59446SOL     OW80176   2.968   8.197   1.344
59446SOL    HW180177   2.995   8.120   1.294
59446SOL    HW280178   3.037   8.262   1.327
59447SOL     OW80179   4.831   2.330  14.234
59447SOL    HW180180   4.755   2.387  14.228
59447SOL    HW280181   4.795   2.242  14.243
59448SOL     OW80182   2.936   4.777   7.934
59448SOL    HW180183   2.886   4.797   8.013
59448SOL    HW280184   2.942   4.860   7.888
59449SOL     OW80185   8.222  13.153   5.753
59449SOL    HW180186   8.194  13.105   5.675
59449SOL    HW280187   8.198  13.244   5.734
59450SOL     OW80188   2.913   5.064   2.169
59450SOL    HW180189   2.906   5.098   2.080
59450SOL    HW280190   2.898   4.970   2.160
59451SOL     OW80191   6.419  11.579  11.634
59451SOL    HW180192   6.352  11.624  11.583
59451SOL    HW280193   6.487  11.644  11.647
59452SOL     OW80194   6.796   8.052   3.733
59452SOL    HW180195   6.738   8.108   3.681
59452SOL    HW280196   6.884   8.085   3.715
59453SOL     OW80197  12.701  10.141  11.164
59453SOL    HW180198  12.669  10.116  11.078
59453SOL    HW280199  12.791  10.168  11.150
59454SOL     OW80200  12.467   2.063   2.325
59454SOL    HW180201  12.442   2.145   2.282
59454SOL    HW280202  12.495   2.006   2.254
59455SOL     OW80203  10.234   5.710   2.926
59455SOL    HW180204  10.145   5.728   2.896
59455SOL    HW280205  10.243   5.615   2.918
59456SOL     OW80206  14.461   4.212  13.939
59456SOL    HW180207  14.419   4.241  13.858
59456SOL    HW280208  14.410   4.136  13.967
59457SOL     OW80209   3.248   7.262   0.677
59457SOL    HW180210   3.197   7.316   0.738
59457SOL    HW280211   3.279   7.188   0.731
59458SOL     OW80212   0.101   3.035  13.620
59458SOL    HW180213   0.026   3.000  13.571
59458SOL    HW280214   0.107   3.126  13.591
59459SOL     OW80215   5.174  13.967   1.432
59459SOL    HW180216   5.249  13.997   1.381
59459SOL    HW280217   5.102  13.966   1.369
59460SOL     OW80218   7.174  10.510  10.567
59460SOL    HW180219   7.124  10.443  10.520
59460SOL    HW280220   7.197  10.574  10.499
59461SOL     OW80221   1.364   4.989  12.726
59461SOL    HW180222   1.302   4.925  12.689
59461SOL    HW280223   1.308   5.059  12.759
59462SOL     OW80224   2.742   5.435  11.876
59462SOL    HW180225   2.690   5.457  11.954
59462SOL    HW280226   2.745   5.517  11.826
59463SOL     OW80227   7.324   5.377   5.262
59463SOL    HW180228   7.356   5.392   5.173
59463SOL    HW280229   7.399   5.338   5.308
59464SOL     OW80230  11.020   1.050   5.511
59464SOL    HW180231  11.013   1.141   5.484
59464SOL    HW280232  11.060   1.053   5.598
59465SOL     OW80233   5.136  10.261   3.803
59465SOL    HW180234   5.067  10.304   3.752
59465SOL    HW280235   5.171  10.194   3.744
59466SOL     OW80236  14.131   3.579   0.208
59466SOL    HW180237  14.210   3.525   0.204
59466SOL    HW280238  14.145   3.648   0.144
59467SOL     OW80239   2.141   4.469  11.393
59467SOL    HW180240   2.198   4.464  11.469
59467SOL    HW280241   2.147   4.382  11.352
59468SOL     OW80242   5.486  14.494  10.385
59468SOL    HW180243   5.433  14.478  10.307
59468SOL    HW280244   5.443  14.443  10.454
59469SOL     OW80245  11.181  12.616   0.071
59469SOL    HW180246  11.208  12.699   0.032
59469SOL    HW280247  11.196  12.628   0.165
59470SOL     OW80248   0.635   6.095  11.743
59470SOL    HW180249   0.616   6.161  11.677
59470SOL    HW280250   0.553   6.082  11.790
59471SOL     OW80251   8.957   3.509   9.347
59471SOL    HW180252   8.872   3.554   9.345
59471SOL    HW280253   8.991   3.519   9.258
59472SOL     OW80254   1.388   6.115   0.920
59472SOL    HW180255   1.363   6.109   0.828
59472SOL    HW280256   1.383   6.025   0.953
59473SOL     OW80257  11.123   1.955   9.869
59473SOL    HW180258  11.028   1.944   9.880
59473SOL    HW280259  11.133   1.996   9.783
59474SOL     OW80260  11.495  10.191   4.974
59474SOL    HW180261  11.544  10.216   5.053
59474SOL    HW280262  11.525  10.102   4.955
59475SOL     OW80263   4.673  10.085   4.780
59475SOL    HW180264   4.598  10.141   4.801
59475SOL    HW280265   4.668  10.013   4.843
59476SOL     OW80266  14.686  12.898   3.380
59476SOL    HW180267  14.750  12.834   3.411
59476SOL    HW280268  14.682  12.964   3.449
59477SOL     OW80269   5.793   2.830   4.829
59477SOL    HW180270   5.860   2.843   4.896
59477SOL    HW280271   5.841   2.832   4.746
59478SOL     OW80272   0.716  12.990  10.127
59478SOL    HW180273   0.709  13.073  10.175
59478SOL    HW280274   0.707  13.014  10.035
59479SOL     OW80275  13.300   9.158   3.207
59479SOL    HW180276  13.310   9.101   3.130
59479SOL    HW280277  13.255   9.104   3.271
59480SOL     OW80278   3.417  10.514   5.216
59480SOL    HW180279   3.335  10.541   5.173
59480SOL    HW280280   3.452  10.595   5.253
59481SOL     OW80281  12.179   6.114   0.118
59481SOL    HW180282  12.271   6.091   0.106
59481SOL    HW280283  12.131   6.032   0.108
59482SOL     OW80284  10.150   9.187   6.570
59482SOL    HW180285  10.105   9.104   6.553
59482SOL    HW280286  10.182   9.179   6.660
59483SOL     OW80287   4.169  13.368   8.561
59483SOL    HW180288   4.097  13.428   8.581
59483SOL    HW280289   4.248  13.422   8.570
59484SOL     OW80290  11.855  13.845  12.314
59484SOL    HW180291  11.815  13.798  12.386
59484SOL    HW280292  11.885  13.777  12.254
59485SOL     OW80293   2.584  12.033  11.158
59485SOL    HW180294   2.499  11.989  11.164
59485SOL    HW280295   2.563  12.122  11.129
59486SOL     OW80296  14.383   0.376  14.705
59486SOL    HW180297  14.459   0.352  14.759
59486SOL    HW280298  14.417   0.380  14.616
59487SOL     OW80299  13.697  11.304   2.271
59487SOL    HW180300  13.737  11.306   2.358
59487SOL    HW280301  13.753  11.244   2.221
59488SOL     OW80302  13.766  14.758  10.816
59488SOL    HW180303  13.746  14.669  10.845
59488SOL    HW280304  13.688  14.788  10.771
59489SOL     OW80305  12.915   0.455   2.866
59489SOL    HW180306  12.969   0.532   2.884
59489SOL    HW280307  12.904   0.455   2.771
59490SOL     OW80308   5.493   7.313  13.787
59490SOL    HW180309   5.490   7.400  13.828
59490SOL    HW280310   5.407   7.275  13.804
59491SOL     OW80311   3.063   9.027   3.604
59491SOL    HW180312   3.106   8.942   3.603
59491SOL    HW280313   2.984   9.014   3.657
59492SOL     OW80314  11.307   5.753   7.834
59492SOL    HW180315  11.322   5.731   7.926
59492SOL    HW280316  11.392   5.743   7.792
59493SOL     OW80317   9.049  12.190   4.417
59493SOL    HW180318   9.096  12.213   4.336
59493SOL    HW280319   9.093  12.110   4.447
59494SOL     OW80320   1.116  11.702   9.678
59494SOL    HW180321   1.094  11.767   9.745
59494SOL    HW280322   1.033  11.657   9.661
59495SOL     OW80323   2.994   7.483   6.773
59495SOL    HW180324   3.004   7.541   6.698
59495SOL    HW280325   3.055   7.411   6.756
59496SOL     OW80326   2.079   4.772   7.580
59496SOL    HW180327   2.140   4.699   7.591
59496SOL    HW280328   2.135   4.850   7.582
59497SOL     OW80329   1.627   2.356  14.625
59497SOL    HW180330   1.591   2.277  14.665
59497SOL    HW280331   1.705   2.326  14.577
59498SOL     OW80332  10.074   7.280  12.762
59498SOL    HW180333  10.161   7.293  12.799
59498SOL    HW280334  10.027   7.361  12.781
59499SOL     OW80335   9.722  14.080   7.347
59499SOL    HW180336   9.682  13.994   7.338
59499SOL    HW280337   9.709  14.103   7.439
59500SOL     OW80338  14.738  10.835   5.529
59500SOL    HW180339  14.673  10.861   5.464
59500SOL    HW280340  14.749  10.741   5.517
59501SOL     OW80341   8.075   9.906  12.159
59501SOL    HW180342   8.077   9.817  12.125
59501SOL    HW280343   8.006   9.905  12.225
59502SOL     OW80344  11.131   2.822  11.961
59502SOL    HW180345  11.093   2.782  11.883
59502SOL    HW280346  11.067   2.887  11.988
59503SOL     OW80347   8.331  10.703  14.009
59503SOL    HW180348   8.304  10.794  13.995
59503SOL    HW280349   8.370  10.703  14.096
59504SOL     OW80350   4.795  11.573   3.496
59504SOL    HW180351   4.751  11.650   3.460
59504SOL    HW280352   4.865  11.608   3.550
59505SOL     OW80353   1.124  11.613   3.169
59505SOL    HW180354   1.177  11.689   3.193
59505SOL    HW280355   1.038  11.650   3.150
59506SOL     OW80356  10.800   7.667  11.036
59506SOL    HW180357  10.744   7.734  10.996
59506SOL    HW280358  10.881   7.669  10.985
59507SOL     OW80359   6.002  13.846  11.296
59507SOL    HW180360   5.978  13.762  11.257
59507SOL    HW280361   6.098  13.847  11.293
59508SOL     OW80362   1.206  13.697  10.979
59508SOL    HW180363   1.131  13.750  10.953
59508SOL    HW280364   1.267  13.760  11.018
59509SOL     OW80365   0.515   9.484  10.841
59509SOL    HW180366   0.520   9.390  10.853
59509SOL    HW280367   0.579   9.521  10.902
59510SOL     OW80368   5.913  13.433   1.471
59510SOL    HW180369   5.826  13.441   1.431
59510SOL    HW280370   5.972  13.474   1.408
59511SOL     OW80371  11.736   1.241  10.353
59511SOL    HW180372  11.667   1.181  10.326
59511SOL    HW280373  11.782   1.195  10.423
59512SOL     OW80374  10.941  13.510   7.704
59512SOL    HW180375  10.912  13.551   7.785
59512SOL    HW280376  11.005  13.571   7.667
59513SOL     OW80377   6.578  10.620  10.198
59513SOL    HW180378   6.530  10.540  10.220
59513SOL    HW280379   6.670  10.597  10.207
59514SOL     OW80380  12.589  13.009   5.182
59514SOL    HW180381  12.498  13.002   5.155
59514SOL    HW280382  12.637  12.952   5.122
59515SOL     OW80383  13.234   6.708   2.722
59515SOL    HW180384  13.206   6.623   2.756
59515SOL    HW280385  13.237   6.696   2.627
59516SOL     OW80386   7.229   3.063   8.639
59516SOL    HW180387   7.293   3.065   8.568
59516SOL    HW280388   7.230   2.973   8.671
59517SOL     OW80389   1.110   2.050   3.233
59517SOL    HW180390   1.107   2.102   3.313
59517SOL    HW280391   1.049   2.094   3.173
59518SOL     OW80392   0.711   0.972   5.584
59518SOL    HW180393   0.663   0.894   5.610
59518SOL    HW280394   0.694   1.036   5.653
59519SOL     OW80395  12.939   7.832   8.989
59519SOL    HW180396  13.003   7.768   9.021
59519SOL    HW280397  12.921   7.805   8.899
59520SOL     OW80398  11.037   4.270   0.473
59520SOL    HW180399  10.951   4.292   0.437
59520SOL    HW280400  11.021   4.259   0.567
59521SOL     OW80401  13.773  13.344   3.265
59521SOL    HW180402  13.771  13.249   3.272
59521SOL    HW280403  13.858  13.363   3.223
59522SOL     OW80404  14.799   0.129  11.944
59522SOL    HW180405  14.851   0.102  11.868
59522SOL    HW280406  14.731   0.185  11.908
59523SOL     OW80407   5.160  12.533   7.198
59523SOL    HW180408   5.134  12.577   7.117
59523SOL    HW280409   5.205  12.601   7.249
59524SOL     OW80410   7.187  14.367  10.228
59524SOL    HW180411   7.173  14.274  10.244
59524SOL    HW280412   7.118  14.391  10.167
59525SOL     OW80413   1.839   0.079  11.104
59525SOL    HW180414   1.888   0.119  11.032
59525SOL    HW280415   1.902   0.020  11.146
59526SOL     OW80416  10.958  10.228   2.772
59526SOL    HW180417  10.912  10.169   2.831
59526SOL    HW280418  11.013  10.281   2.829
59527SOL     OW80419  10.343   4.084   9.907
59527SOL    HW180420  10.426   4.124   9.932
59527SOL    HW280421  10.284   4.158   9.895
59528SOL     OW80422   8.608   6.899   7.481
59528SOL    HW180423   8.554   6.970   7.445
59528SOL    HW280424   8.544   6.834   7.512
59529SOL     OW80425   8.047   3.530  11.377
59529SOL    HW180426   8.061   3.471  11.451
59529SOL    HW280427   8.105   3.604  11.394
59530SOL     OW80428   6.656  11.941  11.903
59530SOL    HW180429   6.675  11.901  11.988
59530SOL    HW280430   6.713  12.018  11.899
59531SOL     OW80431  12.633  12.217  12.868
59531SOL    HW180432  12.675  12.156  12.808
59531SOL    HW280433  12.643  12.303  12.827
59532SOL     OW80434   9.779   9.546   0.001
59532SOL    HW180435   9.771   9.483  14.809
59532SOL    HW280436   9.742   9.627  14.847
59533SOL     OW80437   9.142   3.871  10.663
59533SOL    HW180438   9.217   3.857  10.606
59533SOL    HW280439   9.130   3.966  10.666
59534SOL     OW80440   3.520  11.028  10.653
59534SOL    HW180441   3.578  11.052  10.725
59534SOL    HW280442   3.506  10.934  10.663
59535SOL     OW80443   0.995  12.499   5.042
59535SOL    HW180444   0.980  12.554   4.966
59535SOL    HW280445   1.081  12.527   5.076
59536SOL     OW80446   0.690   6.210  12.363
59536SOL    HW180447   0.736   6.193  12.446
59536SOL    HW280448   0.613   6.153  12.366
59537SOL     OW80449   6.041   7.539   5.991
59537SOL    HW180450   6.109   7.571   6.051
59537SOL    HW280451   5.972   7.605   5.996
59538SOL     OW80452   1.500   0.503   5.312
59538SOL    HW180453   1.460   0.589   5.301
59538SOL    HW280454   1.433   0.451   5.357
59539SOL     OW80455   7.577   6.472   8.826
59539SOL    HW180456   7.510   6.434   8.882
59539SOL    HW280457   7.540   6.555   8.797
59540SOL     OW80458   0.082   6.337   0.930
59540SOL    HW180459   0.171   6.350   0.896
59540SOL    HW280460   0.076   6.398   1.003
59541SOL     OW80461   6.381  11.000   5.522
59541SOL    HW180462   6.415  11.015   5.611
59541SOL    HW280463   6.318  10.929   5.533
59542SOL     OW80464   3.169  10.101   3.429
59542SOL    HW180465   3.158  10.193   3.453
59542SOL    HW280466   3.246  10.100   3.372
59543SOL     OW80467   8.089   8.131   7.562
59543SOL    HW180468   8.159   8.065   7.565
59543SOL    HW280469   8.078   8.150   7.469
59544SOL     OW80470   9.327   4.877   2.416
59544SOL    HW180471   9.407   4.930   2.408
59544SOL    HW280472   9.291   4.901   2.501
59545SOL     OW80473  11.597   4.448   6.781
59545SOL    HW180474  11.523   4.469   6.838
59545SOL    HW280475  11.568   4.476   6.694
59546SOL     OW80476   2.642   3.431   9.130
59546SOL    HW180477   2.612   3.348   9.094
59546SOL    HW280478   2.657   3.487   9.054
59547SOL     OW80479   5.716  14.013  13.548
59547SOL    HW180480   5.669  14.047  13.472
59547SOL    HW280481   5.804  14.050  13.541
59548SOL     OW80482   8.493  11.278   5.078
59548SOL    HW180483   8.440  11.284   5.157
59548SOL    HW280484   8.558  11.211   5.097
59549SOL     OW80485   0.124   3.932   3.095
59549SOL    HW180486   0.149   4.008   3.146
59549SOL    HW280487   0.161   3.948   3.008
59550SOL     OW80488   7.005  11.647   5.112
59550SOL    HW180489   7.061  11.722   5.128
59550SOL    HW280490   7.013  11.631   5.018
59551SOL     OW80491   3.596   0.529   5.663
59551SOL    HW180492   3.502   0.543   5.662
59551SOL    HW280493   3.606   0.436   5.683
59552SOL     OW80494   2.626  12.467  12.198
59552SOL    HW180495   2.665  12.499  12.280
59552SOL    HW280496   2.700  12.437  12.146
59553SOL     OW80497   8.903   1.075   5.407
59553SOL    HW180498   8.881   1.080   5.314
59553SOL    HW280499   8.848   1.140   5.449
59554SOL     OW80500   9.904   6.780  10.592
59554SOL    HW180501   9.825   6.728  10.583
59554SOL    HW280502   9.966   6.722  10.638
59555SOL     OW80503   9.960   4.325   8.971
59555SOL    HW180504   9.924   4.350   9.056
59555SOL    HW280505   9.959   4.406   8.919
59556SOL     OW80506   5.109  11.474  13.352
59556SOL    HW180507   5.119  11.545  13.289
59556SOL    HW280508   5.026  11.492  13.396
59557SOL     OW80509  11.822   0.626  14.682
59557SOL    HW180510  11.765   0.603  14.755
59557SOL    HW280511  11.886   0.555  14.678
59558SOL     OW80512   4.330   8.637  12.938
59558SOL    HW180513   4.392   8.609  12.871
59558SOL    HW280514   4.343   8.732  12.945
59559SOL     OW80515   8.005  12.719   0.982
59559SOL    HW180516   8.029  12.721   0.890
59559SOL    HW280517   7.984  12.809   1.004
59560SOL     OW80518   0.825   5.330  13.302
59560SOL    HW180519   0.902   5.307  13.353
59560SOL    HW280520   0.763   5.258  13.318
59561SOL     OW80521   7.651   0.735   6.928
59561SOL    HW180522   7.633   0.829   6.926
59561SOL    HW280523   7.746   0.729   6.936
59562SOL     OW80524   0.681   0.870  13.874
59562SOL    HW180525   0.735   0.875  13.953
59562SOL    HW280526   0.740   0.897  13.803
59563SOL     OW80527   2.602   1.370  11.638
59563SOL    HW180528   2.546   1.342  11.710
59563SOL    HW280529   2.677   1.412  11.680
59564SOL     OW80530   5.049  10.564   6.668
59564SOL    HW180531   5.022  10.498   6.732
59564SOL    HW280532   5.014  10.646   6.701
59565SOL     OW80533   8.597   6.091  10.379
59565SOL    HW180534   8.667   6.045  10.425
59565SOL    HW280535   8.546   6.133  10.449
59566SOL     OW80536   8.832   0.698  12.073
59566SOL    HW180537   8.831   0.676  12.166
59566SOL    HW280538   8.861   0.789  12.071
59567SOL     OW80539   4.763  13.819  11.494
59567SOL    HW180540   4.683  13.866  11.473
59567SOL    HW280541   4.833  13.881  11.475
59568SOL     OW80542   1.426   4.545   6.682
59568SOL    HW180543   1.350   4.487   6.671
59568SOL    HW280544   1.410   4.617   6.622
59569SOL     OW80545  11.298  13.475  12.838
59569SOL    HW180546  11.338  13.526  12.909
59569SOL    HW280547  11.324  13.384  12.857
59570SOL     OW80548  13.330   5.158   8.551
59570SOL    HW180549  13.239   5.152   8.578
59570SOL    HW280550  13.326   5.162   8.455
59571SOL     OW80551   6.371  10.523   1.886
59571SOL    HW180552   6.423  10.443   1.876
59571SOL    HW280553   6.283  10.498   1.857
59572SOL     OW80554  10.492  10.251  10.473
59572SOL    HW180555  10.449  10.169  10.451
59572SOL    HW280556  10.439  10.318  10.429
59573SOL     OW80557   8.985   5.158   8.971
59573SOL    HW180558   8.915   5.102   9.005
59573SOL    HW280559   8.959   5.179   8.882
59574SOL     OW80560  14.815   9.689   3.183
59574SOL    HW180561  14.814   9.689   3.088
59574SOL    HW280562  14.857   9.771   3.207
59575SOL     OW80563   2.446   3.950  12.104
59575SOL    HW180564   2.427   3.901  12.184
59575SOL    HW280565   2.459   4.040  12.134
59576SOL     OW80566   9.060  11.697  12.594
59576SOL    HW180567   9.080  11.681  12.502
59576SOL    HW280568   9.065  11.611  12.636
59577SOL     OW80569  12.783   2.489   8.974
59577SOL    HW180570  12.711   2.427   8.984
59577SOL    HW280571  12.747   2.572   9.005
59578SOL     OW80572   5.224  12.783   8.858
59578SOL    HW180573   5.176  12.708   8.823
59578SOL    HW280574   5.293  12.745   8.913
59579SOL     OW80575  14.309   8.388   0.275
59579SOL    HW180576  14.329   8.416   0.364
59579SOL    HW280577  14.319   8.467   0.222
59580SOL     OW80578  12.329   3.625   0.140
59580SOL    HW180579  12.360   3.696   0.084
59580SOL    HW280580  12.393   3.555   0.128
59581SOL     OW80581   4.807   6.622   4.662
59581SOL    HW180582   4.864   6.587   4.731
59581SOL    HW280583   4.771   6.544   4.619
59582SOL     OW80584   8.150   2.690   2.052
59582SOL    HW180585   8.238   2.657   2.071
59582SOL    HW280586   8.135   2.758   2.118
59583SOL     OW80587  10.702  10.158   0.853
59583SOL    HW180588  10.708  10.254   0.844
59583SOL    HW280589  10.746  10.139   0.935
59584SOL     OW80590  10.166  12.090   4.585
59584SOL    HW180591  10.210  12.076   4.669
59584SOL    HW280592  10.224  12.050   4.521
59585SOL     OW80593  13.177   9.670   6.268
59585SOL    HW180594  13.258   9.633   6.233
59585SOL    HW280595  13.197   9.763   6.281
59586SOL     OW80596   9.305   3.692  14.682
59586SOL    HW180597   9.310   3.739  14.599
59586SOL    HW280598   9.212   3.676  14.696
59587SOL     OW80599   9.923   8.166   8.006
59587SOL    HW180600   9.842   8.189   8.051
59587SOL    HW280601   9.978   8.126   8.074
59588SOL     OW80602   3.459   2.016   6.267
59588SOL    HW180603   3.403   2.087   6.237
59588SOL    HW280604   3.430   1.940   6.217
59589SOL     OW80605   1.199  14.668   2.804
59589SOL    HW180606   1.145  14.591   2.786
59589SOL    HW280607   1.175  14.694   2.893
59590SOL     OW80608  11.548   8.830   9.242
59590SOL    HW180609  11.510   8.777   9.312
59590SOL    HW280610  11.502   8.913   9.246
59591SOL     OW80611   6.912   1.668   5.356
59591SOL    HW180612   6.826   1.667   5.314
59591SOL    HW280613   6.908   1.596   5.419
59592SOL     OW80614   4.941   5.370   2.601
59592SOL    HW180615   4.903   5.377   2.689
59592SOL    HW280616   4.907   5.446   2.554
59593SOL     OW80617   1.207   8.102   9.832
59593SOL    HW180618   1.184   8.066   9.746
59593SOL    HW280619   1.295   8.139   9.820
59594SOL     OW80620   1.810   6.311  14.669
59594SOL    HW180621   1.803   6.371  14.595
59594SOL    HW280622   1.762   6.233  14.641
59595SOL     OW80623   9.373   7.799   9.629
59595SOL    HW180624   9.357   7.872   9.688
59595SOL    HW280625   9.468   7.787   9.629
59596SOL     OW80626   8.440  13.911   3.397
59596SOL    HW180627   8.425  13.965   3.319
59596SOL    HW280628   8.503  13.845   3.368
59597SOL     OW80629   7.969  11.560  10.201
59597SOL    HW180630   7.916  11.637  10.177
59597SOL    HW280631   7.999  11.525  10.118
59598SOL     OW80632  13.696  10.014  10.837
59598SOL    HW180633  13.750   9.949  10.793
59598SOL    HW280634  13.635   9.963  10.890
59599SOL     OW80635  13.875   9.921   5.252
59599SOL    HW180636  13.929   9.915   5.173
59599SOL    HW280637  13.922   9.872   5.318
59600SOL     OW80638  10.108  13.518   3.100
59600SOL    HW180639  10.122  13.604   3.061
59600SOL    HW280640  10.143  13.525   3.189
59601SOL     OW80641  11.761   8.868   8.945
59601SOL    HW180642  11.748   8.908   9.031
59601SOL    HW280643  11.694   8.907   8.889
59602SOL     OW80644   9.809   1.883  12.524
59602SOL    HW180645   9.873   1.829  12.569
59602SOL    HW280646   9.761   1.823  12.467
59603SOL     OW80647   4.279  13.987  11.525
59603SOL    HW180648   4.250  14.020  11.440
59603SOL    HW280649   4.304  13.896  11.508
59604SOL     OW80650  12.550   6.823  12.962
59604SOL    HW180651  12.494   6.888  12.920
59604SOL    HW280652  12.524   6.739  12.924
59605SOL     OW80653   2.230   5.593  12.925
59605SOL    HW180654   2.147   5.567  12.885
59605SOL    HW280655   2.292   5.596  12.852
59606SOL     OW80656   1.015   1.744  11.790
59606SOL    HW180657   1.014   1.690  11.711
59606SOL    HW280658   0.923   1.758  11.811
59607SOL     OW80659   8.954  12.606   9.156
59607SOL    HW180660   8.871  12.611   9.204
59607SOL    HW280661   8.938  12.656   9.076
59608SOL     OW80662  13.581   7.185   4.312
59608SOL    HW180663  13.490   7.217   4.314
59608SOL    HW280664  13.623   7.227   4.386
59609SOL     OW80665   7.983   3.867  12.529
59609SOL    HW180666   8.001   3.944  12.582
59609SOL    HW280667   8.034   3.797  12.570
59610SOL     OW80668   3.760   9.846  14.779
59610SOL    HW180669   3.791   9.936  14.784
59610SOL    HW280670   3.803   9.810  14.701
59611SOL     OW80671   9.358   5.842   0.141
59611SOL    HW180672   9.334   5.906   0.208
59611SOL    HW280673   9.309   5.870   0.063
59612SOL     OW80674   3.315   2.756   2.394
59612SOL    HW180675   3.277   2.800   2.319
59612SOL    HW280676   3.321   2.824   2.462
59613SOL     OW80677   4.050  12.649   6.720
59613SOL    HW180678   4.099  12.625   6.799
59613SOL    HW280679   4.112  12.702   6.669
59614SOL     OW80680  13.067   0.158  13.341
59614SOL    HW180681  12.977   0.145  13.369
59614SOL    HW280682  13.063   0.228  13.276
59615SOL     OW80683   7.982   8.976   5.432
59615SOL    HW180684   7.990   9.047   5.368
59615SOL    HW280685   7.887   8.962   5.440
59616SOL     OW80686   5.637   9.303   9.767
59616SOL    HW180687   5.687   9.280   9.846
59616SOL    HW280688   5.552   9.331   9.800
59617SOL     OW80689  10.119  10.377   4.384
59617SOL    HW180690  10.131  10.313   4.314
59617SOL    HW280691  10.142  10.329   4.464
59618SOL     OW80692   4.355  13.537   4.766
59618SOL    HW180693   4.351  13.586   4.848
59618SOL    HW280694   4.277  13.566   4.718
59619SOL     OW80695   0.134   0.755   2.624
59619SOL    HW180696   0.218   0.757   2.669
59619SOL    HW280697   0.118   0.663   2.605
59620SOL     OW80698   8.719  12.013  12.546
59620SOL    HW180699   8.808  11.988  12.522
59620SOL    HW280700   8.674  11.929  12.558
59621SOL     OW80701   6.253   5.181   2.619
59621SOL    HW180702   6.272   5.097   2.661
59621SOL    HW280703   6.167   5.168   2.578
59622SOL     OW80704   2.057  13.175   0.680
59622SOL    HW180705   1.969  13.196   0.649
59622SOL    HW280706   2.086  13.103   0.624
59623SOL     OW80707  14.224  13.628  12.455
59623SOL    HW180708  14.214  13.711  12.502
59623SOL    HW280709  14.315  13.603  12.470
59624SOL     OW80710   3.902   6.806   6.538
59624SOL    HW180711   3.813   6.838   6.548
59624SOL    HW280712   3.920   6.814   6.444
59625SOL     OW80713  14.707   3.662  10.417
59625SOL    HW180714  14.684   3.661  10.510
59625SOL    HW280715  14.638   3.716  10.376
59626SOL     OW80716  14.084   5.069   1.469
59626SOL    HW180717  14.114   5.156   1.494
59626SOL    HW280718  13.997   5.062   1.508
59627SOL     OW80719   7.390   0.184   5.412
59627SOL    HW180720   7.419   0.256   5.356
59627SOL    HW280721   7.381   0.109   5.353
59628SOL     OW80722   9.149  14.457  12.578
59628SOL    HW180723   9.088  14.386  12.559
59628SOL    HW280724   9.184  14.436  12.665
59629SOL     OW80725  10.823   5.576   9.756
59629SOL    HW180726  10.824   5.672   9.760
59629SOL    HW280727  10.800   5.549   9.845
59630SOL     OW80728   6.825   7.084   8.642
59630SOL    HW180729   6.731   7.101   8.641
59630SOL    HW280730   6.854   7.100   8.552
59631SOL     OW80731   1.978   0.057   9.262
59631SOL    HW180732   2.069   0.081   9.279
59631SOL    HW280733   1.927   0.110   9.324
59632SOL     OW80734   0.442  14.178   1.774
59632SOL    HW180735   0.489  14.219   1.847
59632SOL    HW280736   0.502  14.182   1.700
59633SOL     OW80737  12.817   7.253   6.801
59633SOL    HW180738  12.817   7.317   6.872
59633SOL    HW280739  12.769   7.296   6.730
59634SOL     OW80740  14.342   1.819   0.289
59634SOL    HW180741  14.426   1.821   0.333
59634SOL    HW280742  14.277   1.817   0.360
59635SOL     OW80743   6.748  14.763  14.703
59635SOL    HW180744   6.685  14.729  14.766
59635SOL    HW280745   6.807  14.817  14.755
59636SOL     OW80746   9.115   1.498   4.463
59636SOL    HW180747   9.181   1.478   4.397
59636SOL    HW280748   9.034   1.511   4.414
59637SOL     OW80749   3.099  13.278  14.545
59637SOL    HW180750   3.035  13.340  14.578
59637SOL    HW280751   3.180  13.299  14.591
59638SOL     OW80752   8.331   3.219   7.752
59638SOL    HW180753   8.408   3.220   7.809
59638SOL    HW280754   8.260   3.185   7.808
59639SOL     OW80755   0.343  10.371   3.026
59639SOL    HW180756   0.373  10.293   3.071
59639SOL    HW280757   0.324  10.343   2.937
59640SOL     OW80758   6.802   9.319   6.872
59640SOL    HW180759   6.802   9.386   6.940
59640SOL    HW280760   6.894   9.293   6.863
59641SOL     OW80761   0.611  14.332   7.063
59641SOL    HW180762   0.596  14.263   6.998
59641SOL    HW280763   0.530  14.335   7.113
59642SOL     OW80764   2.268   3.364   0.645
59642SOL    HW180765   2.246   3.330   0.732
59642SOL    HW280766   2.268   3.286   0.588
59643SOL     OW80767  11.693   6.041  13.093
59643SOL    HW180768  11.761   5.991  13.138
59643SOL    HW280769  11.736   6.077  13.016
59644SOL     OW80770  14.743   8.163   1.074
59644SOL    HW180771  14.681   8.171   1.147
59644SOL    HW280772  14.784   8.249   1.068
59645SOL     OW80773   4.598   2.945   7.111
59645SOL    HW180774   4.663   2.956   7.041
59645SOL    HW280775   4.632   2.874   7.165
59646SOL     OW80776   5.569  13.516   1.037
59646SOL    HW180777   5.603  13.581   1.100
59646SOL    HW280778   5.477  13.507   1.059
59647SOL     OW80779   1.298  14.210   1.428
59647SOL    HW180780   1.391  14.213   1.450
59647SOL    HW280781   1.265  14.296   1.453
59648SOL     OW80782  14.838   3.572   2.679
59648SOL    HW180783  14.794   3.618   2.751
59648SOL    HW280784   0.050   3.596   2.688
59649SOL     OW80785  12.632   2.320   1.685
59649SOL    HW180786  12.723   2.340   1.704
59649SOL    HW280787  12.633   2.231   1.651
59650SOL     OW80788   1.323   5.750   5.860
59650SOL    HW180789   1.257   5.681   5.855
59650SOL    HW280790   1.366   5.736   5.945
59651SOL     OW80791   8.969   2.062   2.392
59651SOL    HW180792   8.999   1.975   2.368
59651SOL    HW280793   9.050   2.112   2.407
59652SOL     OW80794   0.978   2.554  11.501
59652SOL    HW180795   0.929   2.598  11.431
59652SOL    HW280796   1.027   2.485  11.456
59653SOL     OW80797   5.980   2.873   2.081
59653SOL    HW180798   6.068   2.911   2.077
59653SOL    HW280799   5.921   2.948   2.078
59654SOL     OW80800   5.933   7.683  11.781
59654SOL    HW180801   5.866   7.621  11.753
59654SOL    HW280802   5.886   7.765  11.794
59655SOL     OW80803  14.323  10.476  10.410
59655SOL    HW180804  14.344  10.413  10.479
59655SOL    HW280805  14.261  10.536  10.451
59656SOL     OW80806  11.637   7.897  10.591
59656SOL    HW180807  11.587   7.874  10.669
59656SOL    HW280808  11.602   7.982  10.564
59657SOL     OW80809   9.950   6.948   1.305
59657SOL    HW180810  10.012   7.020   1.294
59657SOL    HW280811   9.875   6.986   1.349
59658SOL     OW80812   1.163   8.271   3.218
59658SOL    HW180813   1.237   8.225   3.177
59658SOL    HW280814   1.189   8.363   3.217
59659SOL     OW80815   0.587   7.726   2.188
59659SOL    HW180816   0.528   7.657   2.156
59659SOL    HW280817   0.641   7.682   2.254
59660SOL     OW80818  14.441   3.189   6.741
59660SOL    HW180819  14.527   3.230   6.732
59660SOL    HW280820  14.453   3.120   6.805
59661SOL     OW80821  11.254  10.623   8.038
59661SOL    HW180822  11.327  10.653   7.982
59661SOL    HW280823  11.217  10.549   7.990
59662SOL     OW80824  14.875  10.629   2.987
59662SOL    HW180825  14.824  10.582   2.920
59662SOL    HW280826   0.078  10.581   2.992
59663SOL     OW80827  11.122   2.021  11.613
59663SOL    HW180828  11.212   2.030  11.584
59663SOL    HW280829  11.122   2.053  11.703
59664SOL     OW80830  12.246   1.579  11.291
59664SOL    HW180831  12.306   1.524  11.341
59664SOL    HW280832  12.237   1.535  11.206
59665SOL     OW80833   2.853   3.320   5.388
59665SOL    HW180834   2.780   3.344   5.331
59665SOL    HW280835   2.812   3.282   5.465
59666SOL     OW80836   3.609  10.415   6.406
59666SOL    HW180837   3.552  10.392   6.479
59666SOL    HW280838   3.574  10.498   6.373
59667SOL     OW80839   5.620   4.403  14.637
59667SOL    HW180840   5.616   4.457  14.558
59667SOL    HW280841   5.556   4.333  14.622
59668SOL     OW80842   2.014   8.626   0.290
59668SOL    HW180843   2.084   8.562   0.303
59668SOL    HW280844   1.946   8.601   0.352
59669SOL     OW80845   7.173   7.319  11.283
59669SOL    HW180846   7.189   7.249  11.346
59669SOL    HW280847   7.102   7.370  11.322
59670SOL     OW80848   7.600   5.646   3.087
59670SOL    HW180849   7.566   5.725   3.045
59670SOL    HW280850   7.693   5.646   3.066
59671SOL     OW80851   7.901   1.295   8.856
59671SOL    HW180852   7.810   1.269   8.871
59671SOL    HW280853   7.925   1.255   8.772
59672SOL     OW80854   2.496   2.979  14.373
59672SOL    HW180855   2.559   3.005  14.440
59672SOL    HW280856   2.550   2.948  14.300
59673SOL     OW80857   7.706   2.651  12.954
59673SOL    HW180858   7.635   2.617  13.009
59673SOL    HW280859   7.733   2.732  12.998
59674SOL     OW80860   2.155   6.256   9.404
59674SOL    HW180861   2.212   6.198   9.352
59674SOL    HW280862   2.089   6.285   9.341
59675SOL     OW80863   5.860  13.784   9.736
59675SOL    HW180864   5.911  13.706   9.715
59675SOL    HW280865   5.841  13.776   9.829
59676SOL     OW80866   8.769  10.288   7.527
59676SOL    HW180867   8.744  10.248   7.611
59676SOL    HW280868   8.773  10.382   7.547
59677SOL     OW80869   5.269   2.411   0.685
59677SOL    HW180870   5.294   2.416   0.593
59677SOL    HW280871   5.353   2.411   0.732
59678SOL     OW80872  14.009   3.733   7.371
59678SOL    HW180873  13.981   3.656   7.323
59678SOL    HW280874  13.942   3.799   7.352
59679SOL     OW80875   9.389  13.884   4.608
59679SOL    HW180876   9.339  13.929   4.540
59679SOL    HW280877   9.459  13.945   4.631
59680SOL     OW80878   1.974  10.790  14.777
59680SOL    HW180879   1.966  10.869  14.830
59680SOL    HW280880   2.006  10.821  14.692
59681SOL     OW80881  11.568  13.082  11.271
59681SOL    HW180882  11.621  13.003  11.258
59681SOL    HW280883  11.484  13.061  11.229
59682SOL     OW80884   0.738  14.363  12.794
59682SOL    HW180885   0.828  14.388  12.814
59682SOL    HW280886   0.685  14.420  12.849
59683SOL     OW80887   6.352   1.889   5.001
59683SOL    HW180888   6.369   1.956   4.935
59683SOL    HW280889   6.259   1.867   4.990
59684SOL     OW80890  11.451   4.481   3.457
59684SOL    HW180891  11.544   4.482   3.482
59684SOL    HW280892  11.452   4.498   3.363
59685SOL     OW80893  13.686  11.482  13.493
59685SOL    HW180894  13.683  11.445  13.405
59685SOL    HW280895  13.608  11.538  13.499
59686SOL     OW80896   3.525   7.474  11.306
59686SOL    HW180897   3.455   7.425  11.349
59686SOL    HW280898   3.539   7.428  11.223
59687SOL     OW80899  13.737  10.442   4.491
59687SOL    HW180900  13.666  10.476   4.546
59687SOL    HW280901  13.758  10.357   4.529
59688SOL     OW80902   8.425  10.619   1.450
59688SOL    HW180903   8.416  10.580   1.363
59688SOL    HW280904   8.465  10.550   1.503
59689SOL     OW80905   6.879   8.060  10.778
59689SOL    HW180906   6.964   8.103  10.790
59689SOL    HW280907   6.815   8.130  10.790
59690SOL     OW80908   5.489   7.091   9.135
59690SOL    HW180909   5.404   7.102   9.091
59690SOL    HW280910   5.473   7.120   9.225
59691SOL     OW80911   8.859  13.976   1.403
59691SOL    HW180912   8.821  13.889   1.395
59691SOL    HW280913   8.837  14.020   1.321
59692SOL     OW80914   8.209   9.968   0.501
59692SOL    HW180915   8.115   9.951   0.505
59692SOL    HW280916   8.246   9.923   0.577
59693SOL     OW80917   3.407  14.843   1.060
59693SOL    HW180918   3.333   0.014   1.092
59693SOL    HW280919   3.484   0.017   1.079
59694SOL     OW80920   2.100   7.162  12.031
59694SOL    HW180921   2.052   7.154  11.948
59694SOL    HW280922   2.192   7.149  12.007
59695SOL     OW80923  11.558   2.258   9.552
59695SOL    HW180924  11.624   2.200   9.591
59695SOL    HW280925  11.563   2.337   9.605
59696SOL     OW80926   3.330  12.727   3.381
59696SOL    HW180927   3.256  12.698   3.434
59696SOL    HW280928   3.309  12.699   3.292
59697SOL     OW80929   7.692  13.582  11.280
59697SOL    HW180930   7.627  13.635  11.234
59697SOL    HW280931   7.641  13.513  11.323
59698SOL     OW80932   1.038   5.737   3.191
59698SOL    HW180933   1.125   5.729   3.151
59698SOL    HW280934   0.983   5.679   3.138
59699SOL     OW80935   3.013  11.328   4.180
59699SOL    HW180936   2.925  11.294   4.196
59699SOL    HW280937   3.029  11.310   4.087
59700SOL     OW80938   0.075   2.922   1.730
59700SOL    HW180939   0.141   2.874   1.680
59700SOL    HW280940   0.052   2.863   1.802
59701SOL     OW80941   5.162   6.693   5.780
59701SOL    HW180942   5.172   6.645   5.698
59701SOL    HW280943   5.211   6.774   5.767
59702SOL     OW80944  13.257   7.893   4.169
59702SOL    HW180945  13.178   7.930   4.131
59702SOL    HW280946  13.260   7.803   4.136
59703SOL     OW80947   8.988   6.258   8.251
59703SOL    HW180948   8.897   6.239   8.273
59703SOL    HW280949   9.026   6.292   8.332
59704SOL     OW80950   3.133  12.226   9.408
59704SOL    HW180951   3.061  12.290   9.410
59704SOL    HW280952   3.212  12.279   9.421
59705SOL     OW80953   1.865  11.912   2.401
59705SOL    HW180954   1.835  11.822   2.388
59705SOL    HW280955   1.961  11.906   2.396
59706SOL     OW80956  13.845   4.639   2.482
59706SOL    HW180957  13.841   4.590   2.400
59706SOL    HW280958  13.754   4.652   2.508
59707SOL     OW80959  10.493  13.520  14.832
59707SOL    HW180960  10.428  13.463  14.792
59707SOL    HW280961  10.509  13.588  14.766
59708SOL     OW80962   8.605   3.404  10.004
59708SOL    HW180963   8.681   3.422   9.949
59708SOL    HW280964   8.575   3.318   9.976
59709SOL     OW80965  10.539   9.944   6.834
59709SOL    HW180966  10.493   9.861   6.825
59709SOL    HW280967  10.563   9.968   6.744
59710SOL     OW80968   5.438   0.820   9.361
59710SOL    HW180969   5.422   0.780   9.446
59710SOL    HW280970   5.351   0.846   9.329
59711SOL     OW80971   4.230   4.066   1.265
59711SOL    HW180972   4.191   4.099   1.346
59711SOL    HW280973   4.242   4.143   1.210
59712SOL     OW80974   8.498  10.103   5.715
59712SOL    HW180975   8.434  10.166   5.682
59712SOL    HW280976   8.577  10.120   5.664
59713SOL     OW80977  10.149   6.459   2.519
59713SOL    HW180978  10.221   6.412   2.476
59713SOL    HW280979  10.144   6.420   2.607
59714SOL     OW80980   3.937  12.773  13.620
59714SOL    HW180981   3.981  12.811  13.545
59714SOL    HW280982   3.918  12.847  13.677
59715SOL     OW80983   0.639  12.501   3.106
59715SOL    HW180984   0.549  12.477   3.083
59715SOL    HW280985   0.631  12.552   3.186
59716SOL     OW80986   9.979   6.713   4.233
59716SOL    HW180987   9.914   6.712   4.303
59716SOL    HW280988   9.971   6.626   4.192
59717SOL     OW80989   0.982  11.177  10.221
59717SOL    HW180990   1.000  11.090  10.257
59717SOL    HW280991   1.004  11.169  10.128
59718SOL     OW80992  13.842   0.483   9.849
59718SOL    HW180993  13.848   0.567   9.804
59718SOL    HW280994  13.840   0.505   9.942
59719SOL     OW80995   5.129   2.063   2.722
59719SOL    HW180996   5.177   1.980   2.712
59719SOL    HW280997   5.109   2.068   2.815
59720SOL     OW80998   9.266   7.718   8.591
59720SOL    HW180999   9.223   7.699   8.507
59720SOL    HW281000   9.242   7.644   8.647
59721SOL     OW81001   9.745   6.788   7.427
59721SOL    HW181002   9.708   6.821   7.509
59721SOL    HW281003   9.804   6.718   7.454
59722SOL     OW81004   8.604   2.346  10.227
59722SOL    HW181005   8.654   2.275  10.186
59722SOL    HW281006   8.593   2.317  10.318
59723SOL     OW81007   4.386  11.409   1.514
59723SOL    HW181008   4.434  11.416   1.597
59723SOL    HW281009   4.309  11.464   1.526
59724SOL     OW81010  13.218   3.873   7.053
59724SOL    HW181011  13.167   3.895   7.132
59724SOL    HW281012  13.224   3.777   7.056
59725SOL     OW81013   3.249   1.605  14.586
59725SOL    HW181014   3.248   1.531  14.647
59725SOL    HW281015   3.272   1.566  14.502
59726SOL     OW81016   5.660   5.972  13.349
59726SOL    HW181017   5.684   5.927  13.430
59726SOL    HW281018   5.693   6.061  13.361
59727SOL     OW81019   8.798   6.354  11.557
59727SOL    HW181020   8.836   6.272  11.526
59727SOL    HW281021   8.860   6.386  11.622
59728SOL     OW81022   0.888   7.131  11.563
59728SOL    HW181023   0.937   7.050  11.549
59728SOL    HW281024   0.814   7.105  11.618
59729SOL     OW81025   0.159  11.737  13.281
59729SOL    HW181026   0.187  11.790  13.355
59729SOL    HW281027   0.215  11.660  13.284
59730SOL     OW81028   3.719   8.429   0.707
59730SOL    HW181029   3.643   8.423   0.765
59730SOL    HW281030   3.693   8.381   0.629
59731SOL     OW81031   7.143   6.940   7.831
59731SOL    HW181032   7.135   6.897   7.746
59731SOL    HW281033   7.237   6.952   7.843
59732SOL     OW81034   9.100  13.773   4.513
59732SOL    HW181035   9.162  13.790   4.442
59732SOL    HW281036   9.154  13.767   4.592
59733SOL     OW81037  11.391   9.191   0.660
59733SOL    HW181038  11.300   9.199   0.687
59733SOL    HW281039  11.441   9.230   0.731
59734SOL     OW81040   3.413  14.234   1.426
59734SOL    HW181041   3.348  14.202   1.489
59734SOL    HW281042   3.377  14.211   1.340
59735SOL     OW81043  13.469  14.230  11.470
59735SOL    HW181044  13.518  14.148  11.461
59735SOL    HW281045  13.377  14.205  11.458
59736SOL     OW81046   3.392   1.201  14.221
59736SOL    HW181047   3.324   1.214  14.155
59736SOL    HW281048   3.440   1.124  14.191
59737SOL     OW81049  13.162   7.751  14.857
59737SOL    HW181050  13.200   7.825  14.810
59737SOL    HW281051  13.226   7.731   0.046
59738SOL     OW81052   2.075  10.665   1.685
59738SOL    HW181053   2.075  10.656   1.589
59738SOL    HW281054   2.138  10.600   1.715
59739SOL     OW81055   5.585   0.141  12.227
59739SOL    HW181056   5.653   0.083  12.262
59739SOL    HW281057   5.597   0.223  12.274
59740SOL     OW81058   8.804  11.710   1.162
59740SOL    HW181059   8.793  11.616   1.173
59740SOL    HW281060   8.843  11.739   1.245
59741SOL     OW81061  14.447  12.508  10.847
59741SOL    HW181062  14.455  12.544  10.759
59741SOL    HW281063  14.533  12.470  10.865
59742SOL     OW81064   7.278  11.479  12.892
59742SOL    HW181065   7.191  11.507  12.863
59742SOL    HW281066   7.287  11.390  12.857
59743SOL     OW81067  13.083  11.561   7.534
59743SOL    HW181068  13.124  11.554   7.621
59743SOL    HW281069  13.059  11.471   7.512
59744SOL     OW81070   7.082   9.702   8.847
59744SOL    HW181071   7.006   9.717   8.903
59744SOL    HW281072   7.051   9.639   8.782
59745SOL     OW81073   0.738  12.097  12.438
59745SOL    HW181074   0.746  12.127  12.528
59745SOL    HW281075   0.829  12.094  12.406
59746SOL     OW81076   7.572  10.718   5.825
59746SOL    HW181077   7.628  10.668   5.884
59746SOL    HW281078   7.558  10.660   5.750
59747SOL     OW81079  12.855  10.523   5.209
59747SOL    HW181080  12.885  10.590   5.271
59747SOL    HW281081  12.792  10.471   5.259
59748SOL     OW81082   7.213   9.257   5.600
59748SOL    HW181083   7.131   9.212   5.579
59748SOL    HW281084   7.243   9.213   5.680
59749SOL     OW81085  14.678   9.704  12.731
59749SOL    HW181086  14.681   9.795  12.701
59749SOL    HW281087  14.735   9.703  12.808
59750SOL     OW81088   3.483   6.537   0.285
59750SOL    HW181089   3.507   6.445   0.287
59750SOL    HW281090   3.521   6.574   0.365
59751SOL     OW81091   9.152  10.779  14.848
59751SOL    HW181092   9.156  10.867  14.809
59751SOL    HW281093   9.063  10.771   0.002
59752SOL     OW81094  14.715   5.889  10.423
59752SOL    HW181095  14.671   5.939  10.354
59752SOL    HW281096  14.790   5.943  10.446
59753SOL     OW81097  11.639   7.255   8.615
59753SOL    HW181098  11.727   7.291   8.611
59753SOL    HW281099  11.584   7.322   8.574
59754SOL     OW81100   0.330  14.857   6.747
59754SOL    HW181101   0.326  14.775   6.796
59754SOL    HW281102   0.315  14.831   6.656
59755SOL     OW81103  14.462   2.759   2.069
59755SOL    HW181104  14.423   2.683   2.024
59755SOL    HW281105  14.407   2.772   2.145
59756SOL     OW81106   4.187   5.923  14.830
59756SOL    HW181107   4.255   5.988  14.810
59756SOL    HW281108   4.235   5.850  14.868
59757SOL     OW81109   8.380   4.850   1.953
59757SOL    HW181110   8.350   4.931   1.995
59757SOL    HW281111   8.413   4.878   1.868
59758SOL     OW81112   1.931  13.153  14.510
59758SOL    HW181113   1.881  13.106  14.576
59758SOL    HW281114   1.910  13.245  14.525
59759SOL     OW81115  12.704   4.476  11.933
59759SOL    HW181116  12.648   4.552  11.916
59759SOL    HW281117  12.739   4.492  12.021
59760SOL     OW81118   9.462  11.361  10.365
59760SOL    HW181119   9.459  11.265  10.373
59760SOL    HW281120   9.457  11.377  10.271
59761SOL     OW81121  14.435   7.326   0.802
59761SOL    HW181122  14.510   7.371   0.843
59761SOL    HW281123  14.454   7.329   0.708
59762SOL     OW81124   6.824   4.939   2.348
59762SOL    HW181125   6.919   4.952   2.340
59762SOL    HW281126   6.792   5.019   2.388
59763SOL     OW81127   6.744  13.778   2.550
59763SOL    HW181128   6.674  13.785   2.485
59763SOL    HW281129   6.718  13.838   2.620
59764SOL     OW81130  10.841   8.122   1.670
59764SOL    HW181131  10.752   8.094   1.691
59764SOL    HW281132  10.866   8.179   1.743
59765SOL     OW81133   8.973   3.713  11.996
59765SOL    HW181134   9.052   3.668  12.028
59765SOL    HW281135   9.002   3.757  11.916
59766SOL     OW81136   6.844  11.922   8.490
59766SOL    HW181137   6.751  11.945   8.490
59766SOL    HW281138   6.856  11.871   8.410
59767SOL     OW81139   4.058  12.151   4.284
59767SOL    HW181140   4.043  12.070   4.236
59767SOL    HW281141   3.970  12.184   4.302
59768SOL     OW81142   2.872  13.174  11.916
59768SOL    HW181143   2.899  13.242  11.978
59768SOL    HW281144   2.944  13.169  11.853
59769SOL     OW81145   1.471   0.352   9.849
59769SOL    HW181146   1.499   0.265   9.877
59769SOL    HW281147   1.552   0.404   9.847
59770SOL     OW81148  13.190   5.353   5.044
59770SOL    HW181149  13.169   5.362   4.951
59770SOL    HW281150  13.112   5.383   5.090
59771SOL     OW81151   7.459   5.706   7.226
59771SOL    HW181152   7.369   5.731   7.206
59771SOL    HW281153   7.451   5.640   7.295
59772SOL     OW81154   9.439   8.810   0.315
59772SOL    HW181155   9.463   8.881   0.375
59772SOL    HW281156   9.444   8.849   0.228
59773SOL     OW81157  12.798  10.590   0.744
59773SOL    HW181158  12.802  10.504   0.701
59773SOL    HW281159  12.871  10.639   0.705
59774SOL     OW81160  11.952  14.735   7.506
59774SOL    HW181161  12.013  14.695   7.568
59774SOL    HW281162  11.946  14.672   7.434
59775SOL     OW81163  13.784   4.051   9.027
59775SOL    HW181164  13.790   4.054   8.932
59775SOL    HW281165  13.772   3.959   9.049
59776SOL     OW81166   4.342   1.012   7.633
59776SOL    HW181167   4.313   1.067   7.560
59776SOL    HW281168   4.427   0.978   7.605
59777SOL     OW81169   6.873   0.408   0.714
59777SOL    HW181170   6.904   0.422   0.624
59777SOL    HW281171   6.916   0.327   0.741
59778SOL     OW81172  14.473   0.935  13.414
59778SOL    HW181173  14.380   0.958  13.409
59778SOL    HW281174  14.480   0.854  13.364
59779SOL     OW81175   4.172   2.542   7.012
59779SOL    HW181176   4.237   2.473   6.997
59779SOL    HW281177   4.094   2.513   6.964
59780SOL     OW81178   3.452   5.108  10.999
59780SOL    HW181179   3.478   5.195  11.028
59780SOL    HW281180   3.488   5.049  11.065
59781SOL     OW81181   9.359  10.067   3.099
59781SOL    HW181182   9.321   9.979   3.096
59781SOL    HW281183   9.448  10.054   3.133
59782SOL     OW81184   0.081   7.781   7.729
59782SOL    HW181185   0.012   7.838   7.693
59782SOL    HW281186   0.161   7.811   7.685
59783SOL     OW81187  11.305   3.153   3.889
59783SOL    HW181188  11.221   3.109   3.874
59783SOL    HW281189  11.324   3.136   3.982
59784SOL     OW81190   3.362   2.003   0.273
59784SOL    HW181191   3.335   2.025   0.183
59784SOL    HW281192   3.280   1.979   0.317
59785SOL     OW81193  13.599   4.727  10.835
59785SOL    HW181194  13.677   4.781  10.845
59785SOL    HW281195  13.571   4.742  10.745
59786SOL     OW81196   1.014  10.539   4.204
59786SOL    HW181197   1.013  10.448   4.235
59786SOL    HW281198   0.941  10.581   4.248
59787SOL     OW81199  11.954   9.474   8.390
59787SOL    HW181200  12.045   9.463   8.419
59787SOL    HW281201  11.918   9.385   8.392
59788SOL     OW81202  14.654   0.336   5.528
59788SOL    HW181203  14.703   0.415   5.552
59788SOL    HW281204  14.710   0.293   5.463
59789SOL     OW81205   4.778   9.274   4.291
59789SOL    HW181206   4.754   9.185   4.268
59789SOL    HW281207   4.846   9.264   4.358
59790SOL     OW81208   3.438  13.392   2.596
59790SOL    HW181209   3.363  13.339   2.624
59790SOL    HW281210   3.421  13.479   2.634
59791SOL     OW81211   7.915   5.061   4.490
59791SOL    HW181212   7.861   5.119   4.543
59791SOL    HW281213   7.957   5.118   4.426
59792SOL     OW81214   5.366  12.245   6.705
59792SOL    HW181215   5.421  12.176   6.669
59792SOL    HW281216   5.339  12.297   6.629
59793SOL     OW81217   5.046  12.141   5.417
59793SOL    HW181218   5.099  12.208   5.459
59793SOL    HW281219   4.973  12.189   5.377
59794SOL     OW81220   6.061  10.776  11.836
59794SOL    HW181221   6.024  10.688  11.832
59794SOL    HW281222   6.001  10.829  11.784
59795SOL     OW81223  10.619  12.616   1.641
59795SOL    HW181224  10.528  12.619   1.611
59795SOL    HW281225  10.623  12.681   1.711
59796SOL     OW81226  13.171  13.874   9.522
59796SOL    HW181227  13.080  13.845   9.525
59796SOL    HW281228  13.167  13.967   9.501
59797SOL     OW81229  10.275   0.851  12.201
59797SOL    HW181230  10.343   0.873  12.265
59797SOL    HW281231  10.276   0.756  12.197
59798SOL     OW81232  10.519   5.900   9.681
59798SOL    HW181233  10.425   5.920   9.674
59798SOL    HW281234  10.550   5.957   9.751
59799SOL     OW81235   6.514   7.827   7.580
59799SOL    HW181236   6.428   7.838   7.620
59799SOL    HW281237   6.533   7.912   7.541
59800SOL     OW81238   8.946   4.150   7.103
59800SOL    HW181239   8.871   4.142   7.162
59800SOL    HW281240   8.930   4.232   7.056
59801SOL     OW81241   7.115   1.067   4.941
59801SOL    HW181242   7.055   0.992   4.935
59801SOL    HW281243   7.201   1.028   4.927
59802SOL     OW81244   8.205   6.610   3.707
59802SOL    HW181245   8.151   6.688   3.692
59802SOL    HW281246   8.200   6.596   3.802
59803SOL     OW81247   3.400   2.936  10.985
59803SOL    HW181248   3.427   2.999  11.052
59803SOL    HW281249   3.320   2.973  10.948
59804SOL     OW81250   6.677   2.360   4.844
59804SOL    HW181251   6.762   2.388   4.810
59804SOL    HW281252   6.683   2.265   4.848
59805SOL     OW81253   2.303   1.328   9.889
59805SOL    HW181254   2.290   1.233   9.885
59805SOL    HW281255   2.344   1.343   9.974
59806SOL     OW81256  11.692  13.943  13.985
59806SOL    HW181257  11.675  14.036  14.001
59806SOL    HW281258  11.606  13.905  13.967
59807SOL     OW81259  13.037   0.971   2.713
59807SOL    HW181260  13.021   1.065   2.708
59807SOL    HW281261  13.129   0.963   2.739
59808SOL     OW81262   2.048   1.840   4.257
59808SOL    HW181263   2.109   1.784   4.304
59808SOL    HW281264   2.101   1.885   4.191
59809SOL     OW81265  11.963  12.702   0.928
59809SOL    HW181266  12.034  12.662   0.979
59809SOL    HW281267  11.886  12.650   0.949
59810SOL     OW81268   8.112   6.666   0.250
59810SOL    HW181269   8.160   6.585   0.236
59810SOL    HW281270   8.078   6.689   0.164
59811SOL     OW81271   2.226   7.536   1.791
59811SOL    HW181272   2.217   7.571   1.880
59811SOL    HW281273   2.250   7.611   1.737
59812SOL     OW81274   3.713  13.988   3.695
59812SOL    HW181275   3.710  13.999   3.790
59812SOL    HW281276   3.791  13.935   3.679
59813SOL     OW81277   7.846   4.158   9.603
59813SOL    HW181278   7.928   4.110   9.590
59813SOL    HW281279   7.781   4.109   9.552
59814SOL     OW81280   6.626  14.460   6.362
59814SOL    HW181281   6.606  14.397   6.293
59814SOL    HW281282   6.716  14.440   6.387
59815SOL     OW81283  10.555   6.308   5.711
59815SOL    HW181284  10.473   6.262   5.730
59815SOL    HW281285  10.550   6.388   5.764
59816SOL     OW81286   1.737  11.013   3.361
59816SOL    HW181287   1.820  11.056   3.340
59816SOL    HW281288   1.742  10.996   3.455
59817SOL     OW81289   2.903   1.582   1.302
59817SOL    HW181290   2.851   1.615   1.229
59817SOL    HW281291   2.992   1.612   1.284
59818SOL     OW81292   4.968   7.416   8.311
59818SOL    HW181293   4.890   7.393   8.362
59818SOL    HW281294   5.039   7.365   8.350
59819SOL     OW81295   3.382  12.358   9.424
59819SOL    HW181296   3.466  12.341   9.468
59819SOL    HW281297   3.392  12.445   9.387
59820SOL     OW81298   3.063  13.984   8.358
59820SOL    HW181299   2.993  14.023   8.411
59820SOL    HW281300   3.020  13.913   8.310
59821SOL     OW81301   4.421  12.646  10.116
59821SOL    HW181302   4.403  12.678  10.204
59821SOL    HW281303   4.492  12.701  10.084
59822SOL     OW81304   0.117   8.110  13.970
59822SOL    HW181305   0.111   8.095  14.065
59822SOL    HW281306   0.026   8.125  13.943
59823SOL     OW81307   5.137   6.635   7.417
59823SOL    HW181308   5.150   6.573   7.489
59823SOL    HW281309   5.160   6.585   7.339
59824SOL     OW81310  10.898  13.626   2.052
59824SOL    HW181311  10.849  13.658   2.128
59824SOL    HW281312  10.988  13.619   2.082
59825SOL     OW81313   8.118  13.071   5.527
59825SOL    HW181314   8.034  13.030   5.507
59825SOL    HW281315   8.154  13.096   5.442
59826SOL     OW81316   6.937   6.455  13.800
59826SOL    HW181317   6.994   6.429  13.872
59826SOL    HW281318   6.895   6.535  13.831
59827SOL     OW81319  10.914   0.069   8.616
59827SOL    HW181320  10.903   0.156   8.576
59827SOL    HW281321  11.002   0.071   8.652
59828SOL     OW81322   7.197   4.481   5.877
59828SOL    HW181323   7.103   4.474   5.890
59828SOL    HW281324   7.229   4.527   5.955
59829SOL     OW81325   0.825   6.660   2.082
59829SOL    HW181326   0.912   6.655   2.121
59829SOL    HW281327   0.841   6.679   1.990
59830SOL     OW81328   7.942   3.104   6.790
59830SOL    HW181329   7.847   3.113   6.779
59830SOL    HW281330   7.955   3.011   6.808
59831SOL     OW81331  11.039   1.680   0.632
59831SOL    HW181332  11.080   1.653   0.714
59831SOL    HW281333  11.042   1.776   0.634
59832SOL     OW81334   0.766   7.836   5.238
59832SOL    HW181335   0.806   7.901   5.296
59832SOL    HW281336   0.699   7.793   5.291
59833SOL     OW81337  10.111   2.834   6.763
59833SOL    HW181338  10.069   2.786   6.693
59833SOL    HW281339  10.039   2.879   6.808
59834SOL     OW81340   0.765   1.098  14.609
59834SOL    HW181341   0.797   1.113  14.520
59834SOL    HW281342   0.669   1.093  14.600
59835SOL     OW81343   2.665   7.255   2.396
59835SOL    HW181344   2.638   7.189   2.332
59835SOL    HW281345   2.632   7.338   2.360
59836SOL     OW81346  11.326   3.616   8.767
59836SOL    HW181347  11.303   3.546   8.707
59836SOL    HW281348  11.344   3.571   8.850
59837SOL     OW81349   8.382   2.987   5.134
59837SOL    HW181350   8.426   2.910   5.099
59837SOL    HW281351   8.452   3.051   5.146
59838SOL     OW81352   2.334  13.648  12.462
59838SOL    HW181353   2.340  13.609  12.375
59838SOL    HW281354   2.248  13.691  12.462
59839SOL     OW81355   1.582  13.946   7.613
59839SOL    HW181356   1.540  13.896   7.543
59839SOL    HW281357   1.648  13.999   7.568
59840SOL     OW81358   9.251   1.701  10.938
59840SOL    HW181359   9.319   1.708  10.871
59840SOL    HW281360   9.262   1.779  10.992
59841SOL     OW81361   3.457   4.835   1.796
59841SOL    HW181362   3.510   4.771   1.842
59841SOL    HW281363   3.478   4.822   1.704
59842SOL     OW81364   7.341  10.581   1.882
59842SOL    HW181365   7.387  10.499   1.897
59842SOL    HW281366   7.292  10.597   1.963
59843SOL     OW81367   1.036  12.098  13.110
59843SOL    HW181368   1.106  12.035  13.091
59843SOL    HW281369   1.077  12.184  13.102
59844SOL     OW81370   5.120   0.169   9.343
59844SOL    HW181371   5.171   0.240   9.303
59844SOL    HW281372   5.068   0.134   9.271
59845SOL     OW81373  10.828  11.234  12.332
59845SOL    HW181374  10.796  11.211  12.245
59845SOL    HW281375  10.798  11.162  12.388
59846SOL     OW81376  11.595   8.108  10.966
59846SOL    HW181377  11.540   8.135  11.039
59846SOL    HW281378  11.651   8.039  11.003
59847SOL     OW81379  14.038   5.082  11.100
59847SOL    HW181380  14.048   5.157  11.159
59847SOL    HW281381  14.127   5.060  11.074
59848SOL     OW81382   9.014   4.337   2.112
59848SOL    HW181383   9.030   4.250   2.149
59848SOL    HW281384   8.931   4.328   2.066
59849SOL     OW81385  11.311   6.220   3.687
59849SOL    HW181386  11.281   6.238   3.598
59849SOL    HW281387  11.356   6.300   3.714
59850SOL     OW81388   5.028   3.615   4.670
59850SOL    HW181389   5.122   3.598   4.673
59850SOL    HW281390   5.002   3.594   4.580
59851SOL     OW81391   3.450   7.660   3.225
59851SOL    HW181392   3.385   7.634   3.291
59851SOL    HW281393   3.461   7.582   3.171
59852SOL     OW81394   6.210  11.829   1.023
59852SOL    HW181395   6.162  11.752   1.053
59852SOL    HW281396   6.301  11.798   1.016
59853SOL     OW81397   3.227   1.413   2.688
59853SOL    HW181398   3.314   1.451   2.692
59853SOL    HW281399   3.230   1.341   2.751
59854SOL     OW81400   0.299   9.789   1.238
59854SOL    HW181401   0.233   9.723   1.217
59854SOL    HW281402   0.355   9.747   1.303
59855SOL     OW81403  11.848   2.839  14.522
59855SOL    HW181404  11.935   2.870  14.548
59855SOL    HW281405  11.787   2.902  14.561
59856SOL     OW81406   4.914  14.796   1.405
59856SOL    HW181407   4.981  14.809   1.473
59856SOL    HW281408   4.868  14.880   1.401
59857SOL     OW81409   2.062   4.449   8.180
59857SOL    HW181410   2.037   4.361   8.154
59857SOL    HW281411   1.982   4.487   8.217
59858SOL     OW81412   4.843   4.695   3.663
59858SOL    HW181413   4.793   4.656   3.591
59858SOL    HW281414   4.777   4.715   3.729
59859SOL     OW81415   7.699   2.894  11.960
59859SOL    HW181416   7.785   2.900  11.919
59859SOL    HW281417   7.711   2.930  12.047
59860SOL     OW81418  12.021  13.471  11.557
59860SOL    HW181419  11.944  13.500  11.606
59860SOL    HW281420  12.089  13.461  11.623
59861SOL     OW81421   0.151   3.343  13.559
59861SOL    HW181422   0.082   3.350  13.493
59861SOL    HW281423   0.232   3.350  13.509
59862SOL     OW81424   6.485   7.750   0.505
59862SOL    HW181425   6.507   7.758   0.412
59862SOL    HW281426   6.557   7.792   0.551
59863SOL     OW81427   6.776   3.085   4.219
59863SOL    HW181428   6.858   3.122   4.188
59863SOL    HW281429   6.710   3.153   4.203
59864SOL     OW81430   8.950   4.095   8.488
59864SOL    HW181431   8.900   4.067   8.565
59864SOL    HW281432   9.040   4.073   8.509
59865SOL     OW81433  12.464   3.151   0.251
59865SOL    HW181434  12.369   3.155   0.264
59865SOL    HW281435  12.500   3.144   0.339
59866SOL     OW81436   9.872   1.039  11.431
59866SOL    HW181437   9.938   1.098  11.466
59866SOL    HW281438   9.790   1.086  11.439
59867SOL     OW81439   7.110   7.581   1.173
59867SOL    HW181440   7.169   7.508   1.155
59867SOL    HW281441   7.087   7.571   1.265
59868SOL     OW81442  10.427   5.869  10.531
59868SOL    HW181443  10.441   5.963  10.516
59868SOL    HW281444  10.468   5.827  10.456
59869SOL     OW81445   5.930   9.883  12.067
59869SOL    HW181446   5.995   9.937  12.022
59869SOL    HW281447   5.871   9.853  11.997
59870SOL     OW81448   2.490   4.311   7.634
59870SOL    HW181449   2.424   4.295   7.567
59870SOL    HW281450   2.446   4.366   7.699
59871SOL     OW81451   6.117  13.725   3.495
59871SOL    HW181452   6.201  13.682   3.482
59871SOL    HW281453   6.066  13.701   3.418
59872SOL     OW81454   9.120   3.787   3.396
59872SOL    HW181455   9.183   3.792   3.324
59872SOL    HW281456   9.090   3.877   3.408
59873SOL     OW81457  10.982   4.486  14.533
59873SOL    HW181458  10.893   4.449  14.530
59873SOL    HW281459  10.999   4.514  14.443
59874SOL     OW81460  10.490  13.571   6.256
59874SOL    HW181461  10.517  13.504   6.319
59874SOL    HW281462  10.448  13.638   6.309
59875SOL     OW81463   0.346   5.612  12.463
59875SOL    HW181464   0.314   5.701  12.445
59875SOL    HW281465   0.441   5.622  12.470
59876SOL     OW81466   8.388   1.758  13.093
59876SOL    HW181467   8.342   1.815  13.032
59876SOL    HW281468   8.410   1.814  13.167
59877SOL     OW81469   6.512  12.368   7.161
59877SOL    HW181470   6.474  12.283   7.184
59877SOL    HW281471   6.558  12.352   7.079
59878SOL     OW81472   0.795  12.264   0.255
59878SOL    HW181473   0.725  12.212   0.216
59878SOL    HW281474   0.774  12.266   0.349
59879SOL     OW81475   3.746   1.919  10.886
59879SOL    HW181476   3.722   1.885  10.973
59879SOL    HW281477   3.670   1.900  10.831
59880SOL     OW81478   4.072  11.366  14.142
59880SOL    HW181479   4.153  11.399  14.181
59880SOL    HW281480   4.075  11.272  14.158
59881SOL     OW81481  12.036   7.854   6.840
59881SOL    HW181482  12.067   7.868   6.929
59881SOL    HW281483  12.081   7.776   6.810
59882SOL     OW81484  11.246   0.949   3.816
59882SOL    HW181485  11.324   0.985   3.859
59882SOL    HW281486  11.265   0.855   3.808
59883SOL     OW81487   5.276  13.790   5.616
59883SOL    HW181488   5.270  13.872   5.664
59883SOL    HW281489   5.261  13.814   5.525
59884SOL     OW81490  11.136  12.439  12.023
59884SOL    HW181491  11.172  12.354  12.048
59884SOL    HW281492  11.094  12.471  12.103
59885SOL     OW81493   7.578   6.224  10.196
59885SOL    HW181494   7.652   6.218  10.257
59885SOL    HW281495   7.515   6.282  10.240
59886SOL     OW81496  13.699   6.134  10.814
59886SOL    HW181497  13.775   6.169  10.769
59886SOL    HW281498  13.735   6.073  10.878
59887SOL     OW81499   5.616   9.026   4.882
59887SOL    HW181500   5.676   9.074   4.939
59887SOL    HW281501   5.642   9.052   4.793
59888SOL     OW81502  12.585  14.350  10.909
59888SOL    HW181503  12.600  14.321  10.999
59888SOL    HW281504  12.640  14.429  10.899
59889SOL     OW81505  13.848  12.908   1.738
59889SOL    HW181506  13.795  12.838   1.699
59889SOL    HW281507  13.798  12.935   1.815
59890SOL     OW81508  10.469   2.098   1.310
59890SOL    HW181509  10.489   2.057   1.395
59890SOL    HW281510  10.409   2.036   1.268
59891SOL     OW81511   2.271  13.195   5.541
59891SOL    HW181512   2.345  13.152   5.583
59891SOL    HW281513   2.237  13.130   5.479
59892SOL     OW81514   5.221   5.227  11.393
59892SOL    HW181515   5.198   5.244  11.302
59892SOL    HW281516   5.316   5.241  11.396
59893SOL     OW81517  11.364   1.093   2.101
59893SOL    HW181518  11.348   1.179   2.140
59893SOL    HW281519  11.444   1.105   2.050
59894SOL     OW81520   3.595  10.848   4.404
59894SOL    HW181521   3.554  10.851   4.317
59894SOL    HW281522   3.688  10.835   4.386
59895SOL     OW81523   0.723  14.632   7.420
59895SOL    HW181524   0.648  14.675   7.377
59895SOL    HW281525   0.687  14.601   7.503
59896SOL     OW81526   9.322  14.303   1.161
59896SOL    HW181527   9.299  14.370   1.225
59896SOL    HW281528   9.346  14.226   1.213
59897SOL     OW81529  10.809   2.242   3.229
59897SOL    HW181530  10.732   2.211   3.276
59897SOL    HW281531  10.847   2.162   3.192
59898SOL     OW81532   8.820   7.964  14.152
59898SOL    HW181533   8.904   7.983  14.193
59898SOL    HW281534   8.836   7.886  14.099
59899SOL     OW81535   8.246   3.370  11.206
59899SOL    HW181536   8.176   3.423  11.244
59899SOL    HW281537   8.319   3.431  11.195
59900SOL     OW81538   5.101   6.829   8.144
59900SOL    HW181539   5.114   6.822   8.238
59900SOL    HW281540   5.006   6.830   8.132
59901SOL     OW81541  14.090   9.910  10.765
59901SOL    HW181542  14.043   9.828  10.755
59901SOL    HW281543  14.169   9.900  10.712
59902SOL     OW81544   4.239  10.307  13.334
59902SOL    HW181545   4.230  10.238  13.268
59902SOL    HW281546   4.272  10.382  13.286
59903SOL     OW81547   5.635   4.420   7.928
59903SOL    HW181548   5.655   4.350   7.990
59903SOL    HW281549   5.633   4.500   7.980
59904SOL     OW81550  11.677  14.060  10.289
59904SOL    HW181551  11.583  14.068  10.278
59904SOL    HW281552  11.701  14.133  10.347
59905SOL     OW81553   4.268   0.108  12.893
59905SOL    HW181554   4.235   0.058  12.818
59905SOL    HW281555   4.195   0.162  12.920
59906SOL     OW81556   8.860   1.303   9.249
59906SOL    HW181557   8.827   1.388   9.278
59906SOL    HW281558   8.887   1.258   9.329
59907SOL     OW81559   4.943  10.558   3.045
59907SOL    HW181560   4.869  10.594   2.995
59907SOL    HW281561   4.965  10.627   3.107
59908SOL     OW81562   5.754  11.248   4.186
59908SOL    HW181563   5.721  11.206   4.266
59908SOL    HW281564   5.746  11.341   4.203
59909SOL     OW81565  14.509   9.584   1.997
59909SOL    HW181566  14.451   9.656   2.022
59909SOL    HW281567  14.533   9.543   2.080
59910SOL     OW81568   0.033   2.876   2.196
59910SOL    HW181569   0.098   2.946   2.203
59910SOL    HW281570   0.036   2.849   2.105
59911SOL     OW81571   2.164   3.639  10.228
59911SOL    HW181572   2.215   3.558  10.231
59911SOL    HW281573   2.104   3.631  10.302
59912SOL     OW81574   3.140   5.493  10.272
59912SOL    HW181575   3.110   5.423  10.330
59912SOL    HW281576   3.074   5.562  10.282
59913SOL     OW81577   1.782  10.945   7.060
59913SOL    HW181578   1.737  11.027   7.045
59913SOL    HW281579   1.741  10.908   7.137
59914SOL     OW81580   6.461   4.287   2.460
59914SOL    HW181581   6.404   4.268   2.535
59914SOL    HW281582   6.499   4.373   2.480
59915SOL     OW81583  13.214   8.961  12.472
59915SOL    HW181584  13.218   9.046  12.430
59915SOL    HW281585  13.233   8.979  12.564
59916SOL     OW81586   5.301   2.155   0.199
59916SOL    HW181587   5.331   2.109   0.277
59916SOL    HW281588   5.206   2.161   0.210
59917SOL     OW81589   7.630  14.460   5.200
59917SOL    HW181590   7.718  14.492   5.220
59917SOL    HW281591   7.625  14.374   5.241
59918SOL     OW81592  10.843   1.377  12.206
59918SOL    HW181593  10.785   1.368  12.131
59918SOL    HW281594  10.812   1.312  12.269
59919SOL     OW81595   4.998  14.397   6.417
59919SOL    HW181596   5.065  14.336   6.386
59919SOL    HW281597   4.923  14.380   6.361
59920SOL     OW81598   9.725  13.494   6.639
59920SOL    HW181599   9.741  13.440   6.718
59920SOL    HW281600   9.673  13.567   6.671
59921SOL     OW81601  12.480   1.584   1.969
59921SOL    HW181602  12.481   1.547   1.880
59921SOL    HW281603  12.390   1.616   1.980
59922SOL     OW81604  12.325  14.060   1.438
59922SOL    HW181605  12.327  14.003   1.515
59922SOL    HW281606  12.255  14.023   1.383
59923SOL     OW81607   8.172   9.606  14.469
59923SOL    HW181608   8.096   9.656  14.497
59923SOL    HW281609   8.245   9.645  14.516
59924SOL     OW81610  12.478   0.268   0.699
59924SOL    HW181611  12.560   0.268   0.650
59924SOL    HW281612  12.410   0.257   0.633
59925SOL     OW81613  10.746   6.703   7.621
59925SOL    HW181614  10.706   6.766   7.560
59925SOL    HW281615  10.749   6.751   7.704
59926SOL     OW81616   7.048  13.081   8.957
59926SOL    HW181617   7.027  13.118   9.043
59926SOL    HW281618   7.130  13.123   8.933
59927SOL     OW81619   5.052   7.997   1.073
59927SOL    HW181620   5.032   7.921   1.127
59927SOL    HW281621   5.095   8.058   1.133
59928SOL     OW81622   0.883   8.210   4.718
59928SOL    HW181623   0.907   8.242   4.805
59928SOL    HW281624   0.807   8.263   4.694
59929SOL     OW81625   5.113   2.162   9.054
59929SOL    HW181626   5.110   2.209   8.970
59929SOL    HW281627   5.046   2.095   9.045
59930SOL     OW81628   6.546   5.532   2.399
59930SOL    HW181629   6.542   5.448   2.446
59930SOL    HW281630   6.496   5.592   2.454
59931SOL     OW81631   4.106   9.722   8.795
59931SOL    HW181632   4.106   9.768   8.712
59931SOL    HW281633   4.021   9.677   8.798
59932SOL     OW81634  14.870   3.178  10.995
59932SOL    HW181635  14.814   3.250  10.966
59932SOL    HW281636  14.810   3.119  11.042
59933SOL     OW81637   0.202  11.080   7.868
59933SOL    HW181638   0.284  11.064   7.915
59933SOL    HW281639   0.229  11.118   7.785
59934SOL     OW81640  11.523  11.531   9.117
59934SOL    HW181641  11.516  11.626   9.106
59934SOL    HW281642  11.568  11.520   9.201
59935SOL     OW81643   0.082  11.894   5.028
59935SOL    HW181644  14.879  11.911   4.982
59935SOL    HW281645   0.136  11.848   4.964
59936SOL     OW81646   8.768   6.819   0.088
59936SOL    HW181647   8.681   6.835   0.050
59936SOL    HW281648   8.772   6.725   0.101
59937SOL     OW81649   2.617   0.972  14.611
59937SOL    HW181650   2.572   0.898  14.650
59937SOL    HW281651   2.548   1.034  14.589
59938SOL     OW81652   3.993   1.140   3.245
59938SOL    HW181653   4.015   1.226   3.210
59938SOL    HW281654   3.960   1.090   3.170
59939SOL     OW81655   1.891   0.514   7.559
59939SOL    HW181656   1.904   0.444   7.622
59939SOL    HW281657   1.959   0.578   7.580
59940SOL     OW81658  12.897  11.358  11.443
59940SOL    HW181659  12.914  11.265  11.458
59940SOL    HW281660  12.907  11.398  11.529
59941SOL     OW81661   2.206   4.460   6.364
59941SOL    HW181662   2.205   4.393   6.431
59941SOL    HW281663   2.137   4.434   6.303
59942SOL     OW81664  11.870   2.827   0.491
59942SOL    HW181665  11.953   2.786   0.469
59942SOL    HW281666  11.875   2.843   0.585
59943SOL     OW81667   6.121   4.188   1.386
59943SOL    HW181668   6.211   4.186   1.353
59943SOL    HW281669   6.130   4.219   1.476
59944SOL     OW81670   8.071  11.310   8.044
59944SOL    HW181671   8.017  11.231   8.039
59944SOL    HW281672   8.036  11.367   7.975
59945SOL     OW81673   0.861   6.775   7.802
59945SOL    HW181674   0.823   6.757   7.888
59945SOL    HW281675   0.893   6.691   7.771
59946SOL     OW81676   6.083  13.744   7.963
59946SOL    HW181677   6.054  13.698   8.042
59946SOL    HW281678   6.004  13.784   7.927
59947SOL     OW81679   2.930  11.311  10.931
59947SOL    HW181680   2.894  11.231  10.970
59947SOL    HW281681   2.882  11.322  10.849
59948SOL     OW81682   5.315  11.563   5.083
59948SOL    HW181683   5.377  11.626   5.047
59948SOL    HW281684   5.366  11.513   5.147
59949SOL     OW81685   7.673   4.914   3.902
59949SOL    HW181686   7.688   4.982   3.967
59949SOL    HW281687   7.713   4.947   3.822
59950SOL     OW81688   2.656   2.834   3.223
59950SOL    HW181689   2.654   2.909   3.281
59950SOL    HW281690   2.697   2.866   3.142
59951SOL     OW81691  13.605  12.052   2.019
59951SOL    HW181692  13.572  12.010   1.940
59951SOL    HW281693  13.528  12.058   2.076
59952SOL     OW81694  10.157   4.200   7.847
59952SOL    HW181695  10.222   4.242   7.790
59952SOL    HW281696  10.206   4.130   7.891
59953SOL     OW81697  11.272   9.719  12.646
59953SOL    HW181698  11.223   9.732  12.564
59953SOL    HW281699  11.212   9.669  12.702
59954SOL     OW81700   6.945   5.204   4.409
59954SOL    HW181701   6.976   5.276   4.353
59954SOL    HW281702   6.954   5.126   4.354
59955SOL     OW81703   7.674   7.909   4.338
59955SOL    HW181704   7.614   7.952   4.277
59955SOL    HW281705   7.715   7.980   4.386
59956SOL     OW81706   9.071  11.312  11.966
59956SOL    HW181707   9.116  11.228  11.976
59956SOL    HW281708   9.014  11.299  11.890
59957SOL     OW81709   7.865   4.659   0.868
59957SOL    HW181710   7.934   4.608   0.824
59957SOL    HW281711   7.834   4.720   0.802
59958SOL     OW81712  14.350   5.346  14.104
59958SOL    HW181713  14.341   5.417  14.167
59958SOL    HW281714  14.367   5.389  14.021
59959SOL     OW81715   1.837  11.326   6.092
59959SOL    HW181716   1.809  11.306   6.003
59959SOL    HW281717   1.756  11.329   6.143
59960SOL     OW81718   8.214   7.400   7.501
59960SOL    HW181719   8.146   7.379   7.436
59960SOL    HW281720   8.296   7.395   7.452
59961SOL     OW81721  12.199   9.057   2.931
59961SOL    HW181722  12.200   9.098   2.845
59961SOL    HW281723  12.121   9.001   2.931
59962SOL     OW81724  13.438   8.035  14.226
59962SOL    HW181725  13.457   8.084  14.145
59962SOL    HW281726  13.387   7.960  14.196
59963SOL     OW81727   3.883   8.873   0.961
59963SOL    HW181728   3.788   8.859   0.964
59963SOL    HW281729   3.917   8.826   1.038
59964SOL     OW81730   8.814  12.076  10.941
59964SOL    HW181731   8.778  12.109  10.859
59964SOL    HW281732   8.767  12.123  11.010
59965SOL     OW81733  13.715  11.825  11.222
59965SOL    HW181734  13.692  11.762  11.291
59965SOL    HW281735  13.773  11.775  11.164
59966SOL     OW81736  12.380  12.520   6.264
59966SOL    HW181737  12.413  12.575   6.335
59966SOL    HW281738  12.336  12.582   6.205
59967SOL     OW81739   9.917   9.447   7.636
59967SOL    HW181740   9.980   9.457   7.708
59967SOL    HW281741   9.833   9.471   7.674
59968SOL     OW81742   5.925   6.143  12.991
59968SOL    HW181743   5.881   6.219  12.953
59968SOL    HW281744   6.014   6.174  13.010
59969SOL     OW81745   2.666   5.497   1.857
59969SOL    HW181746   2.693   5.588   1.845
59969SOL    HW281747   2.741   5.454   1.897
59970SOL     OW81748  13.355   7.058   8.779
59970SOL    HW181749  13.417   7.128   8.800
59970SOL    HW281750  13.269   7.097   8.791
59971SOL     OW81751   3.717   9.631  10.794
59971SOL    HW181752   3.744   9.562  10.734
59971SOL    HW281753   3.728   9.712  10.743
59972SOL     OW81754  11.685   4.759   4.218
59972SOL    HW181755  11.593   4.782   4.201
59972SOL    HW281756  11.702   4.683   4.162
59973SOL     OW81757   4.439  14.248   4.251
59973SOL    HW181758   4.529  14.254   4.283
59973SOL    HW281759   4.445  14.271   4.158
59974SOL     OW81760   6.568   4.447   2.007
59974SOL    HW181761   6.641   4.451   1.944
59974SOL    HW281762   6.596   4.503   2.079
59975SOL     OW81763   4.241   5.862   6.795
59975SOL    HW181764   4.159   5.848   6.842
59975SOL    HW281765   4.271   5.949   6.824
59976SOL     OW81766   2.447   0.045  13.731
59976SOL    HW181767   2.437   0.135  13.700
59976SOL    HW281768   2.398  14.872  13.668
59977SOL     OW81769   4.377  11.435  14.612
59977SOL    HW181770   4.391  11.524  14.580
59977SOL    HW281771   4.319  11.445  14.688
59978SOL     OW81772   6.010  10.647  13.849
59978SOL    HW181773   6.007  10.719  13.911
59978SOL    HW281774   5.982  10.686  13.766
59979SOL     OW81775   5.683   7.891  11.560
59979SOL    HW181776   5.734   7.918  11.636
59979SOL    HW281777   5.637   7.970  11.532
59980SOL     OW81778   3.941  13.316   4.679
59980SOL    HW181779   3.915  13.324   4.770
59980SOL    HW281780   3.961  13.406   4.651
59981SOL     OW81781   9.795  13.719   5.500
59981SOL    HW181782   9.734  13.727   5.574
59981SOL    HW281783   9.869  13.774   5.524
59982SOL     OW81784  12.478   8.762  14.513
59982SOL    HW181785  12.427   8.822  14.459
59982SOL    HW281786  12.543   8.817  14.555
59983SOL     OW81787  10.085  10.725   9.271
59983SOL    HW181788  10.137  10.781   9.215
59983SOL    HW281789  10.003  10.772   9.284
59984SOL     OW81790   5.307   1.358   5.255
59984SOL    HW181791   5.286   1.328   5.344
59984SOL    HW281792   5.380   1.418   5.266
59985SOL     OW81793  12.234   0.289   9.402
59985SOL    HW181794  12.307   0.249   9.450
59985SOL    HW281795  12.156   0.261   9.450
59986SOL     OW81796   8.538  13.608   9.573
59986SOL    HW181797   8.560  13.538   9.512
59986SOL    HW281798   8.443  13.601   9.584
59987SOL     OW81799  10.399  13.282   7.740
59987SOL    HW181800  10.353  13.342   7.681
59987SOL    HW281801  10.472  13.249   7.687
59988SOL     OW81802  14.575   8.824  13.036
59988SOL    HW181803  14.484   8.848  13.020
59988SOL    HW281804  14.622   8.907  13.041
59989SOL     OW81805   8.632  10.532   7.794
59989SOL    HW181806   8.668  10.559   7.710
59989SOL    HW281807   8.630  10.436   7.789
59990SOL     OW81808   7.612  13.954   5.785
59990SOL    HW181809   7.559  13.887   5.828
59990SOL    HW281810   7.692  13.957   5.837
59991SOL     OW81811   7.269  13.299  11.087
59991SOL    HW181812   7.228  13.365  11.030
59991SOL    HW281813   7.363  13.314  11.076
59992SOL     OW81814  10.625   5.474  14.821
59992SOL    HW181815  10.695   5.432  14.772
59992SOL    HW281816  10.553   5.410  14.822
59993SOL     OW81817  14.758  12.526   5.377
59993SOL    HW181818  14.795  12.612   5.360
59993SOL    HW281819  14.766  12.480   5.294
59994SOL     OW81820   9.989  14.035  11.065
59994SOL    HW181821   9.955  14.093  11.132
59994SOL    HW281822  10.055  14.087  11.019
59995SOL     OW81823   5.481   3.308   0.596
59995SOL    HW181824   5.504   3.232   0.650
59995SOL    HW281825   5.455   3.270   0.512
59996SOL     OW81826   2.421   3.770   2.511
59996SOL    HW181827   2.484   3.732   2.450
59996SOL    HW281828   2.418   3.708   2.584
59997SOL     OW81829   4.737   1.365   1.198
59997SOL    HW181830   4.727   1.428   1.269
59997SOL    HW281831   4.695   1.407   1.122
59998SOL     OW81832   1.957   6.666   4.742
59998SOL    HW181833   1.918   6.724   4.808
59998SOL    HW281834   1.957   6.717   4.661
59999SOL     OW81835  11.839  13.385   8.806
59999SOL    HW181836  11.756  13.348   8.776
59999SOL    HW281837  11.814  13.443   8.879
60000SOL     OW81838   1.813   7.826   0.556
60000SOL    HW181839   1.828   7.816   0.649
60000SOL    HW281840   1.731   7.780   0.539
60001SOL     OW81841   2.184   6.912  12.718
60001SOL    HW181842   2.163   6.934  12.809
60001SOL    HW281843   2.270   6.870  12.723
60002SOL     OW81844   4.371   1.742  13.181
60002SOL    HW181845   4.375   1.674  13.249
60002SOL    HW281846   4.288   1.787  13.196
60003SOL     OW81847  13.005  14.158   2.163
60003SOL    HW181848  12.990  14.242   2.205
60003SOL    HW281849  13.037  14.101   2.233
60004SOL     OW81850   6.793  14.066   0.808
60004SOL    HW181851   6.842  14.056   0.727
60004SOL    HW281852   6.856  14.048   0.877
60005SOL     OW81853   5.699   6.001  10.695
60005SOL    HW181854   5.775   6.051  10.726
60005SOL    HW281855   5.727   5.910  10.699
60006SOL     OW81856   6.135   3.927   5.511
60006SOL    HW181857   6.113   3.857   5.572
60006SOL    HW281858   6.230   3.920   5.499
60007SOL     OW81859  12.640  11.494   9.230
60007SOL    HW181860  12.658  11.492   9.324
60007SOL    HW281861  12.612  11.405   9.209
60008SOL     OW81862   1.897   7.143  11.770
60008SOL    HW181863   1.903   7.094  11.688
60008SOL    HW281864   1.815   7.191  11.763
60009SOL     OW81865   9.254   8.740   6.608
60009SOL    HW181866   9.183   8.678   6.623
60009SOL    HW281867   9.301   8.705   6.532
60010SOL     OW81868   1.193  13.379  12.492
60010SOL    HW181869   1.161  13.364  12.581
60010SOL    HW281870   1.136  13.447  12.457
60011SOL     OW81871   5.091   2.514   9.525
60011SOL    HW181872   5.163   2.533   9.586
60011SOL    HW281873   5.111   2.568   9.448
60012SOL     OW81874   9.371   1.713  14.260
60012SOL    HW181875   9.379   1.760  14.343
60012SOL    HW281876   9.355   1.622  14.285
60013SOL     OW81877   8.921   0.311   8.231
60013SOL    HW181878   8.862   0.381   8.202
60013SOL    HW281879   8.986   0.304   8.161
60014SOL     OW81880   0.156   2.592  10.454
60014SOL    HW181881   0.178   2.505  10.489
60014SOL    HW281882   0.240   2.635  10.442
60015SOL     OW81883   9.603   7.469   7.344
60015SOL    HW181884   9.662   7.417   7.291
60015SOL    HW281885   9.535   7.407   7.373
60016SOL     OW81886  13.483  10.126   9.630
60016SOL    HW181887  13.443  10.072   9.698
60016SOL    HW281888  13.498  10.065   9.557
60017SOL     OW81889   7.543   0.589  10.959
60017SOL    HW181890   7.595   0.654  10.911
60017SOL    HW281891   7.575   0.595  11.049
60018SOL     OW81892   1.871   6.925   7.798
60018SOL    HW181893   1.885   6.892   7.887
60018SOL    HW281894   1.957   6.960   7.772
60019SOL     OW81895   3.768  12.190  13.671
60019SOL    HW181896   3.859  12.199  13.700
60019SOL    HW281897   3.717  12.223  13.745
60020SOL     OW81898  11.468   1.099  11.317
60020SOL    HW181899  11.520   1.159  11.370
60020SOL    HW281900  11.378   1.130  11.328
60021SOL     OW81901   3.093  13.494  13.565
60021SOL    HW181902   3.041  13.570  13.541
60021SOL    HW281903   3.117  13.508  13.656
60022SOL     OW81904   3.181   4.574  11.105
60022SOL    HW181905   3.125   4.511  11.059
60022SOL    HW281906   3.149   4.660  11.076
60023SOL     OW81907   7.721  13.779   8.501
60023SOL    HW181908   7.762  13.722   8.436
60023SOL    HW281909   7.654  13.827   8.452
60024SOL     OW81910   8.227  14.080   4.335
60024SOL    HW181911   8.154  14.134   4.366
60024SOL    HW281912   8.191  13.992   4.331
60025SOL     OW81913  14.188   2.347  11.652
60025SOL    HW181914  14.191   2.252  11.643
60025SOL    HW281915  14.256   2.379  11.593
60026SOL     OW81916  10.800   1.337   9.394
60026SOL    HW181917  10.716   1.376   9.416
60026SOL    HW281918  10.864   1.404   9.416
60027SOL     OW81919  12.111   8.565  11.176
60027SOL    HW181920  12.059   8.583  11.098
60027SOL    HW281921  12.106   8.469  11.186
60028SOL     OW81922   9.255   1.886   0.641
60028SOL    HW181923   9.203   1.961   0.668
60028SOL    HW281924   9.191   1.819   0.617
60029SOL     OW81925   1.095   6.079  10.058
60029SOL    HW181926   1.034   6.144  10.021
60029SOL    HW281927   1.166   6.130  10.096
60030SOL     OW81928  12.323  10.381  11.388
60030SOL    HW181929  12.318  10.294  11.427
60030SOL    HW281930  12.415  10.407  11.399
60031SOL     OW81931  14.525  12.045   4.716
60031SOL    HW181932  14.525  12.031   4.621
60031SOL    HW281933  14.541  12.139   4.727
60032SOL     OW81934   4.161  10.119  12.354
60032SOL    HW181935   4.101  10.189  12.378
60032SOL    HW281936   4.216  10.157  12.286
60033SOL     OW81937  12.352   4.607   0.493
60033SOL    HW181938  12.260   4.595   0.517
60033SOL    HW281939  12.376   4.527   0.446
60034SOL     OW81940   3.317   0.273   5.150
60034SOL    HW181941   3.294   0.183   5.125
60034SOL    HW281942   3.412   0.276   5.141
60035SOL     OW81943  12.861   9.330   3.671
60035SOL    HW181944  12.785   9.272   3.659
60035SOL    HW281945  12.859   9.388   3.596
60036SOL     OW81946   9.134  12.341   1.350
60036SOL    HW181947   9.169  12.423   1.385
60036SOL    HW281948   9.139  12.351   1.255
60037SOL     OW81949  13.070   2.590  11.628
60037SOL    HW181950  12.983   2.561  11.654
60037SOL    HW281951  13.090   2.537  11.550
60038SOL     OW81952   4.480  11.966   2.014
60038SOL    HW181953   4.485  11.956   2.109
60038SOL    HW281954   4.404  11.913   1.989
60039SOL     OW81955  11.006  12.300  13.653
60039SOL    HW181956  11.095  12.326  13.630
60039SOL    HW281957  11.017  12.217  13.699
60040SOL     OW81958   5.804   9.871   3.306
60040SOL    HW181959   5.830   9.827   3.387
60040SOL    HW281960   5.830   9.811   3.236
60041SOL     OW81961  12.118   6.597   3.163
60041SOL    HW181962  12.103   6.551   3.080
60041SOL    HW281963  12.158   6.532   3.220
60042SOL     OW81964  12.821   9.178  12.913
60042SOL    HW181965  12.858   9.156  12.827
60042SOL    HW281966  12.897   9.187  12.970
60043SOL     OW81967  10.404   1.169   5.478
60043SOL    HW181968  10.454   1.235   5.526
60043SOL    HW281969  10.386   1.101   5.542
60044SOL     OW81970   7.722   8.529   5.483
60044SOL    HW181971   7.797   8.558   5.534
60044SOL    HW281972   7.736   8.435   5.471
60045SOL     OW81973   1.652   6.165   9.919
60045SOL    HW181974   1.599   6.112   9.859
60045SOL    HW281975   1.739   6.168   9.879
60046SOL     OW81976   3.063   7.727   8.347
60046SOL    HW181977   3.039   7.791   8.280
60046SOL    HW281978   3.009   7.650   8.327
60047SOL     OW81979  12.000  11.269   7.866
60047SOL    HW181980  12.047  11.241   7.787
60047SOL    HW281981  11.928  11.323   7.834
60048SOL     OW81982  14.069   3.537  12.097
60048SOL    HW181983  14.073   3.474  12.169
60048SOL    HW281984  13.983   3.523  12.058
60049SOL     OW81985   5.514  13.576   6.282
60049SOL    HW181986   5.588  13.608   6.231
60049SOL    HW281987   5.452  13.648   6.282
60050SOL     OW81988   9.719   4.824  10.623
60050SOL    HW181989   9.736   4.852  10.533
60050SOL    HW281990   9.726   4.905  10.674
60051SOL     OW81991   2.493   4.046  11.188
60051SOL    HW181992   2.540   3.994  11.122
60051SOL    HW281993   2.452   3.980  11.244
60052SOL     OW81994  10.631   6.809   3.132
60052SOL    HW181995  10.593   6.795   3.045
60052SOL    HW281996  10.566   6.860   3.180
60053SOL     OW81997   2.643   8.782   2.684
60053SOL    HW181998   2.591   8.859   2.659
60053SOL    HW281999   2.601   8.750   2.764
60054SOL     OW82000   9.080  10.376   9.659
60054SOL    HW182001   9.040  10.460   9.637
60054SOL    HW282002   9.169  10.398   9.685
60055SOL     OW82003  11.651   3.475   7.216
60055SOL    HW182004  11.696   3.393   7.196
60055SOL    HW282005  11.664   3.530   7.139
60056SOL     OW82006   8.078   0.536   1.455
60056SOL    HW182007   8.115   0.601   1.515
60056SOL    HW282008   7.988   0.525   1.483
60057SOL     OW82009   3.993   7.016   3.250
60057SOL    HW182010   4.059   6.962   3.207
60057SOL    HW282011   3.954   7.068   3.180
60058SOL     OW82012   7.785  10.938   0.039
60058SOL    HW182013   7.824  11.024   0.025
60058SOL    HW282014   7.779  10.900  14.832
60059SOL     OW82015  12.810   9.638   7.116
60059SOL    HW182016  12.806   9.651   7.022
60059SOL    HW282017  12.726   9.600   7.139
60060SOL     OW82018   3.743  13.418   7.087
60060SOL    HW182019   3.821  13.467   7.060
60060SOL    HW282020   3.691  13.408   7.007
60061SOL     OW82021   7.521   8.660   5.382
60061SOL    HW182022   7.595   8.615   5.421
60061SOL    HW282023   7.506   8.616   5.298
60062SOL     OW82024   7.640   2.222   5.150
60062SOL    HW182025   7.714   2.182   5.196
60062SOL    HW282026   7.601   2.150   5.100
60063SOL     OW82027   0.776   9.775  10.134
60063SOL    HW182028   0.713   9.847  10.139
60063SOL    HW282029   0.782   9.743  10.224
60064SOL     OW82030   8.183  14.508   3.510
60064SOL    HW182031   8.192  14.413   3.506
60064SOL    HW282032   8.106  14.523   3.565
60065SOL     OW82033   9.746   9.356  11.846
60065SOL    HW182034   9.680   9.303  11.801
60065SOL    HW282035   9.708   9.443  11.850
60066SOL     OW82036   1.466   5.317   8.377
60066SOL    HW182037   1.386   5.294   8.329
60066SOL    HW282038   1.454   5.277   8.463
60067SOL     OW82039   3.399   3.440  10.086
60067SOL    HW182040   3.328   3.496  10.055
60067SOL    HW282041   3.359   3.354  10.094
60068SOL     OW82042   8.078   3.619   9.099
60068SOL    HW182043   8.047   3.633   9.189
60068SOL    HW282044   8.099   3.707   9.067
60069SOL     OW82045   2.130  12.699   6.221
60069SOL    HW182046   2.088  12.772   6.266
60069SOL    HW282047   2.104  12.622   6.272
60070SOL     OW82048   7.848  10.861   6.680
60070SOL    HW182049   7.849  10.767   6.695
60070SOL    HW282050   7.841  10.900   6.767
60071SOL     OW82051  11.796   9.682  11.063
60071SOL    HW182052  11.706   9.696  11.093
60071SOL    HW282053  11.820   9.765  11.021
60072SOL     OW82054   4.965   5.051   4.303
60072SOL    HW182055   5.054   5.088   4.299
60072SOL    HW282056   4.960   4.993   4.227
60073SOL     OW82057  13.479   4.219   7.416
60073SOL    HW182058  13.497   4.198   7.325
60073SOL    HW282059  13.500   4.139   7.464
60074SOL     OW82060  11.697   1.533  14.399
60074SOL    HW182061  11.778   1.579  14.422
60074SOL    HW282062  11.725   1.443  14.379
60075SOL     OW82063   3.676  12.182   0.004
60075SOL    HW182064   3.582  12.193  14.871
60075SOL    HW282065   3.710  12.158  14.798
60076SOL     OW82066  14.203   2.629   6.891
60076SOL    HW182067  14.176   2.693   6.957
60076SOL    HW282068  14.209   2.546   6.938
60077SOL     OW82069  10.558   7.984   2.654
60077SOL    HW182070  10.619   7.957   2.586
60077SOL    HW282071  10.593   7.944   2.734
60078SOL     OW82072   7.659   3.778   3.025
60078SOL    HW182073   7.714   3.845   3.065
60078SOL    HW282074   7.670   3.701   3.081
60079SOL     OW82075   0.872  13.631   0.452
60079SOL    HW182076   0.893  13.581   0.531
60079SOL    HW282077   0.799  13.687   0.479
60080SOL     OW82078  12.554  14.795  10.134
60080SOL    HW182079  12.492  14.758  10.197
60080SOL    HW282080  12.577   0.001  10.170
60081SOL     OW82081  12.197  12.848  10.107
60081SOL    HW182082  12.284  12.846  10.066
60081SOL    HW282083  12.153  12.922  10.066
60082SOL     OW82084  14.105   6.949   8.037
60082SOL    HW182085  14.035   6.927   7.975
60082SOL    HW282086  14.121   7.042   8.022
60083SOL     OW82087   3.056  10.485   9.060
60083SOL    HW182088   3.042  10.418   9.128
60083SOL    HW282089   3.143  10.519   9.079
60084SOL     OW82090  11.693   4.197  12.638
60084SOL    HW182091  11.629   4.247  12.689
60084SOL    HW282092  11.645   4.170  12.559
60085SOL     OW82093   6.572   9.642  14.562
60085SOL    HW182094   6.603   9.654  14.652
60085SOL    HW282095   6.640   9.681  14.508
60086SOL     OW82096  11.171   7.869   9.990
60086SOL    HW182097  11.171   7.946   9.933
60086SOL    HW282098  11.215   7.801   9.938
60087SOL     OW82099  12.368   6.139   2.628
60087SOL    HW182100  12.392   6.047   2.630
60087SOL    HW282101  12.299   6.145   2.562
60088SOL     OW82102   4.213   3.626  11.717
60088SOL    HW182103   4.177   3.556  11.663
60088SOL    HW282104   4.232   3.585  11.801
60089SOL     OW82105   7.319   7.008  12.768
60089SOL    HW182106   7.278   7.094  12.759
60089SOL    HW282107   7.411   7.024  12.746
60090SOL     OW82108   2.664   4.361   9.879
60090SOL    HW182109   2.715   4.281   9.866
60090SOL    HW282110   2.687   4.416   9.804
60091SOL     OW82111   3.651   1.355   9.119
60091SOL    HW182112   3.641   1.323   9.208
60091SOL    HW282113   3.700   1.286   9.073
60092SOL     OW82114   3.687   0.652  14.194
60092SOL    HW182115   3.739   0.578  14.227
60092SOL    HW282116   3.708   0.724  14.254
60093SOL     OW82117   0.381  12.358   3.090
60093SOL    HW182118   0.364  12.343   3.183
60093SOL    HW282119   0.328  12.293   3.044
60094SOL     OW82120   0.229  12.055   3.064
60094SOL    HW182121   0.257  12.073   2.974
60094SOL    HW282122   0.275  11.974   3.087
60095SOL     OW82123   7.829   5.996   3.734
60095SOL    HW182124   7.743   5.991   3.692
60095SOL    HW282125   7.892   5.994   3.661
60096SOL     OW82126  12.621   2.594   3.421
60096SOL    HW182127  12.569   2.673   3.437
60096SOL    HW282128  12.559   2.531   3.384
60097SOL     OW82129   9.027   7.384   5.612
60097SOL    HW182130   8.944   7.389   5.660
60097SOL    HW282131   9.043   7.290   5.603
60098SOL     OW82132   6.388   7.359   3.725
60098SOL    HW182133   6.384   7.454   3.723
60098SOL    HW282134   6.434   7.335   3.645
60099SOL     OW82135  12.745   9.416   2.747
60099SOL    HW182136  12.678   9.430   2.814
60099SOL    HW282137  12.827   9.442   2.789
60100SOL     OW82138  13.040   5.975  10.473
60100SOL    HW182139  13.127   5.966  10.511
60100SOL    HW282140  13.039   5.915  10.399
60101SOL     OW82141   9.868   7.092  12.856
60101SOL    HW182142   9.949   7.089  12.804
60101SOL    HW282143   9.837   7.182  12.846
60102SOL     OW82144  10.531   8.152   7.578
60102SOL    HW182145  10.509   8.231   7.628
60102SOL    HW282146  10.503   8.080   7.634
60103SOL     OW82147  13.731  12.334   3.115
60103SOL    HW182148  13.677  12.303   3.189
60103SOL    HW282149  13.701  12.424   3.101
60104SOL     OW82150   2.860   0.143   8.272
60104SOL    HW182151   2.873   0.048   8.266
60104SOL    HW282152   2.882   0.164   8.363
60105SOL     OW82153   0.974   6.827  12.306
60105SOL    HW182154   0.979   6.737  12.340
60105SOL    HW282155   1.065   6.850  12.288
60106SOL     OW82156  10.870   8.758   6.059
60106SOL    HW182157  10.836   8.785   6.145
60106SOL    HW282158  10.927   8.830   6.033
60107SOL     OW82159  10.456  13.802   8.195
60107SOL    HW182160  10.472  13.891   8.162
60107SOL    HW282161  10.364  13.785   8.175
60108SOL     OW82162   4.288   5.899   7.617
60108SOL    HW182163   4.232   5.832   7.578
60108SOL    HW282164   4.376   5.879   7.585
60109SOL     OW82165  14.594  10.488  10.591
60109SOL    HW182166  14.586  10.581  10.569
60109SOL    HW282167  14.573  10.484  10.684
60110SOL     OW82168   1.081  12.119   2.986
60110SOL    HW182169   1.002  12.074   3.018
60110SOL    HW282170   1.083  12.201   3.036
60111SOL     OW82171  13.977   6.115   4.481
60111SOL    HW182172  14.052   6.090   4.426
60111SOL    HW282173  13.998   6.080   4.567
60112SOL     OW82174  13.847   1.117   6.143
60112SOL    HW182175  13.872   1.161   6.224
60112SOL    HW282176  13.831   1.026   6.169
60113SOL     OW82177  12.730   3.784   2.565
60113SOL    HW182178  12.707   3.871   2.598
60113SOL    HW282179  12.650   3.733   2.577
60114SOL     OW82180   8.965   1.710   8.439
60114SOL    HW182181   9.030   1.769   8.400
60114SOL    HW282182   8.977   1.627   8.392
60115SOL     OW82183  11.842   6.672   7.474
60115SOL    HW182184  11.928   6.698   7.439
60115SOL    HW282185  11.827   6.733   7.547
60116SOL     OW82186   3.306   9.492  13.762
60116SOL    HW182187   3.236   9.472  13.824
60116SOL    HW282188   3.374   9.534  13.814
60117SOL     OW82189   3.106  10.460  11.898
60117SOL    HW182190   3.059  10.503  11.827
60117SOL    HW282191   3.199  10.468  11.874
60118SOL     OW82192   7.366   0.449   9.946
60118SOL    HW182193   7.312   0.451  10.025
60118SOL    HW282194   7.453   0.476   9.977
60119SOL     OW82195   5.248   2.261   1.783
60119SOL    HW182196   5.231   2.243   1.691
60119SOL    HW282197   5.342   2.281   1.787
60120SOL     OW82198   2.010  12.435  11.698
60120SOL    HW182199   1.967  12.425  11.783
60120SOL    HW282200   2.066  12.512  11.708
60121SOL     OW82201   1.626   9.222  14.630
60121SOL    HW182202   1.678   9.187  14.702
60121SOL    HW282203   1.595   9.307  14.661
60122SOL     OW82204  10.144   3.420   0.474
60122SOL    HW182205  10.149   3.412   0.379
60122SOL    HW282206  10.069   3.366   0.498
60123SOL     OW82207   1.883   9.277   0.168
60123SOL    HW182208   1.919   9.364   0.155
60123SOL    HW282209   1.830   9.284   0.248
60124SOL     OW82210  11.912   7.029   5.069
60124SOL    HW182211  11.984   7.092   5.072
60124SOL    HW282212  11.905   7.005   4.977
60125SOL     OW82213  10.620   3.302   7.045
60125SOL    HW182214  10.580   3.219   7.021
60125SOL    HW282215  10.565   3.336   7.116
60126SOL     OW82216   9.221  13.767  11.037
60126SOL    HW182217   9.306  13.786  11.075
60126SOL    HW282218   9.176  13.714  11.102
60127SOL     OW82219   1.758   3.691   1.050
60127SOL    HW182220   1.780   3.782   1.070
60127SOL    HW282221   1.803   3.673   0.967
60128SOL     OW82222   1.282   7.974   6.097
60128SOL    HW182223   1.296   8.001   6.006
60128SOL    HW282224   1.225   7.897   6.090
60129SOL     OW82225   4.722   7.766  11.008
60129SOL    HW182226   4.658   7.697  11.022
60129SOL    HW282227   4.722   7.816  11.089
60130SOL     OW82228  11.088   0.499  10.418
60130SOL    HW182229  11.003   0.528  10.383
60130SOL    HW282230  11.106   0.559  10.490
60131SOL     OW82231   6.196  10.359   9.465
60131SOL    HW182232   6.221  10.372   9.374
60131SOL    HW282233   6.206  10.445   9.506
60132SOL     OW82234   1.629  13.479   4.136
60132SOL    HW182235   1.716  13.462   4.172
60132SOL    HW282236   1.569  13.449   4.204
60133SOL     OW82237   7.520   6.297   3.600
60133SOL    HW182238   7.552   6.370   3.548
60133SOL    HW282239   7.432   6.323   3.628
60134SOL     OW82240   0.415  11.885   0.787
60134SOL    HW182241   0.399  11.803   0.740
60134SOL    HW282242   0.415  11.859   0.879
60135SOL     OW82243   5.295   9.090   3.609
60135SOL    HW182244   5.381   9.115   3.575
60135SOL    HW282245   5.278   9.153   3.679
60136SOL     OW82246  13.464   3.281   3.216
60136SOL    HW182247  13.483   3.252   3.127
60136SOL    HW282248  13.481   3.205   3.271
60137SOL     OW82249   0.416   8.403   9.620
60137SOL    HW182250   0.467   8.327   9.593
60137SOL    HW282251   0.375   8.377   9.702
60138SOL     OW82252   4.924  12.572  12.442
60138SOL    HW182253   5.002  12.590  12.495
60138SOL    HW282254   4.923  12.642  12.376
60139SOL     OW82255  13.007   6.854   3.513
60139SOL    HW182256  12.931   6.887   3.466
60139SOL    HW282257  13.082   6.879   3.459
60140SOL     OW82258   5.770   3.545  12.360
60140SOL    HW182259   5.770   3.640  12.363
60140SOL    HW282260   5.734   3.518  12.444
60141SOL     OW82261   7.086   3.718  12.307
60141SOL    HW182262   7.162   3.736  12.362
60141SOL    HW282263   7.011   3.738  12.363
60142SOL     OW82264   9.317   5.288  13.779
60142SOL    HW182265   9.338   5.198  13.803
60142SOL    HW282266   9.293   5.329  13.862
60143SOL     OW82267   9.676   1.580   6.396
60143SOL    HW182268   9.691   1.628   6.478
60143SOL    HW282269   9.761   1.581   6.352
60144SOL     OW82270   8.240  10.541   2.956
60144SOL    HW182271   8.216  10.621   3.004
60144SOL    HW282272   8.204  10.470   3.009
60145SOL     OW82273  11.003   2.070   5.397
60145SOL    HW182274  10.963   1.988   5.424
60145SOL    HW282275  11.002   2.124   5.476
60146SOL     OW82276  11.097  12.235   0.530
60146SOL    HW182277  11.054  12.308   0.574
60146SOL    HW282278  11.029  12.195   0.477
60147SOL     OW82279   7.923  12.875   8.150
60147SOL    HW182280   7.917  12.876   8.054
60147SOL    HW282281   7.869  12.948   8.178
60148SOL     OW82282  11.601   9.948   9.093
60148SOL    HW182283  11.641   9.981   9.012
60148SOL    HW282284  11.542   9.879   9.064
60149SOL     OW82285  12.405  14.465  14.547
60149SOL    HW182286  12.395  14.495  14.456
60149SOL    HW282287  12.495  14.489  14.570
60150SOL     OW82288   6.603   2.391   6.090
60150SOL    HW182289   6.592   2.313   6.144
60150SOL    HW282290   6.516   2.431   6.087
60151SOL     OW82291   8.670   0.616   2.015
60151SOL    HW182292   8.668   0.535   2.065
60151SOL    HW282293   8.730   0.673   2.063
60152SOL     OW82294   0.451   1.988   3.876
60152SOL    HW182295   0.448   1.998   3.971
60152SOL    HW282296   0.523   1.927   3.860
60153SOL     OW82297   0.207  10.625   6.715
60153SOL    HW182298   0.298  10.635   6.687
60153SOL    HW282299   0.211  10.618   6.810
60154SOL     OW82300   2.135   8.014   6.387
60154SOL    HW182301   2.046   8.005   6.354
60154SOL    HW282302   2.153   8.108   6.382
60155SOL     OW82303   6.194  11.337  12.646
60155SOL    HW182304   6.241  11.306  12.569
60155SOL    HW282305   6.247  11.409  12.679
60156SOL     OW82306   1.275   9.265   9.732
60156SOL    HW182307   1.206   9.323   9.701
60156SOL    HW282308   1.349   9.323   9.751
60157SOL     OW82309  12.041   7.631   4.362
60157SOL    HW182310  12.127   7.605   4.394
60157SOL    HW282311  12.039   7.601   4.271
60158SOL     OW82312  11.844  12.968   4.316
60158SOL    HW182313  11.920  12.927   4.275
60158SOL    HW282314  11.790  12.894   4.344
60159SOL     OW82315   1.314  10.376   8.412
60159SOL    HW182316   1.285  10.367   8.321
60159SOL    HW282317   1.398  10.421   8.406
60160SOL     OW82318   3.841   3.907   9.497
60160SOL    HW182319   3.767   3.876   9.445
60160SOL    HW282320   3.880   3.828   9.534
60161SOL     OW82321   7.135  13.689   7.957
60161SOL    HW182322   7.172  13.775   7.942
60161SOL    HW282323   7.040  13.702   7.951
60162SOL     OW82324   9.614  11.440  13.983
60162SOL    HW182325   9.604  11.530  13.954
60162SOL    HW282326   9.526  11.414  14.011
60163SOL     OW82327   1.604  10.952  12.310
60163SOL    HW182328   1.674  10.896  12.278
60163SOL    HW282329   1.590  11.016  12.240
60164SOL     OW82330   2.304   6.115   4.420
60164SOL    HW182331   2.262   6.104   4.334
60164SOL    HW282332   2.270   6.198   4.453
60165SOL     OW82333   6.371  11.796  12.417
60165SOL    HW182334   6.284  11.781  12.452
60165SOL    HW282335   6.430  11.749  12.477
60166SOL     OW82336   3.452   5.458  10.281
60166SOL    HW182337   3.359   5.471  10.264
60166SOL    HW282338   3.455   5.422  10.370
60167SOL     OW82339   8.499   3.828   7.342
60167SOL    HW182340   8.554   3.750   7.333
60167SOL    HW282341   8.436   3.804   7.410
60168SOL     OW82342  11.915  10.802  12.391
60168SOL    HW182343  11.822  10.781  12.383
60168SOL    HW282344  11.919  10.860  12.467
60169SOL     OW82345   3.355  14.560   5.970
60169SOL    HW182346   3.352  14.498   6.043
60169SOL    HW282347   3.380  14.643   6.010
60170SOL     OW82348   8.528  12.844   7.380
60170SOL    HW182349   8.491  12.792   7.310
60170SOL    HW282350   8.513  12.935   7.354
60171SOL     OW82351  14.308  12.036   3.902
60171SOL    HW182352  14.227  11.986   3.910
60171SOL    HW282353  14.317  12.052   3.808
60172SOL     OW82354  11.647  11.685   8.320
60172SOL    HW182355  11.615  11.674   8.231
60172SOL    HW282356  11.682  11.599   8.344
60173SOL     OW82357  13.643   7.780  14.185
60173SOL    HW182358  13.621   7.872  14.203
60173SOL    HW282359  13.595   7.759  14.105
60174SOL     OW82360   0.596   0.848   7.068
60174SOL    HW182361   0.612   0.943   7.071
60174SOL    HW282362   0.654   0.817   6.998
60175SOL     OW82363   6.089  10.943   0.020
60175SOL    HW182364   6.150  11.004  14.858
60175SOL    HW282365   6.140  10.904   0.092
60176SOL     OW82366   6.653   8.610   9.949
60176SOL    HW182367   6.719   8.587   9.884
60176SOL    HW282368   6.618   8.694   9.920
60177SOL     OW82369   7.656   8.252   8.141
60177SOL    HW182370   7.745   8.277   8.166
60177SOL    HW282371   7.639   8.303   8.062
60178SOL     OW82372   6.083   6.297  13.951
60178SOL    HW182373   6.152   6.292  14.018
60178SOL    HW282374   6.119   6.356  13.885
60179SOL     OW82375   1.465   0.838  14.466
60179SOL    HW182376   1.560   0.828  14.467
60179SOL    HW282377   1.433   0.763  14.516
60180SOL     OW82378  11.812   6.250   2.996
60180SOL    HW182379  11.724   6.214   3.010
60180SOL    HW282380  11.871   6.181   3.024
60181SOL     OW82381   0.509   4.147  13.872
60181SOL    HW182382   0.424   4.121  13.909
60181SOL    HW282383   0.550   4.065  13.847
60182SOL     OW82384   4.045  12.259  11.239
60182SOL    HW182385   4.017  12.218  11.157
60182SOL    HW282386   4.093  12.337  11.212
60183SOL     OW82387   1.813  14.763   5.403
60183SOL    HW182388   1.825  14.798   5.491
60183SOL    HW282389   1.894  14.714   5.385
60184SOL     OW82390   8.795   3.483   1.212
60184SOL    HW182391   8.793   3.556   1.150
60184SOL    HW282392   8.727   3.423   1.180
60185SOL     OW82393   4.307   1.653   3.902
60185SOL    HW182394   4.348   1.706   3.970
60185SOL    HW282395   4.325   1.563   3.927
60186SOL     OW82396   5.025   8.826   8.928
60186SOL    HW182397   5.057   8.907   8.888
60186SOL    HW282398   5.066   8.756   8.877
60187SOL     OW82399   0.926   6.677   4.325
60187SOL    HW182400   0.975   6.706   4.247
60187SOL    HW282401   0.976   6.714   4.399
60188SOL     OW82402   4.976  14.658   8.693
60188SOL    HW182403   4.973  14.647   8.788
60188SOL    HW282404   4.892  14.696   8.670
60189SOL     OW82405   9.024   0.994   4.624
60189SOL    HW182406   9.063   1.046   4.553
60189SOL    HW282407   9.068   0.909   4.618
60190SOL     OW82408   2.784   5.265   0.092
60190SOL    HW182409   2.828   5.257   0.177
60190SOL    HW282410   2.821   5.344   0.053
60191SOL     OW82411   1.754   0.140  14.354
60191SOL    HW182412   1.750   0.057  14.307
60191SOL    HW282413   1.666   0.151  14.390
60192SOL     OW82414  13.635   1.578  14.234
60192SOL    HW182415  13.648   1.500  14.181
60192SOL    HW282416  13.562   1.556  14.292
60193SOL     OW82417  13.445   1.113   1.085
60193SOL    HW182418  13.404   1.184   1.036
60193SOL    HW282419  13.514   1.155   1.137
60194SOL     OW82420  11.935  13.899   2.607
60194SOL    HW182421  12.020  13.902   2.563
60194SOL    HW282422  11.955  13.918   2.699
60195SOL     OW82423   7.471   5.268   0.658
60195SOL    HW182424   7.440   5.242   0.745
60195SOL    HW282425   7.457   5.191   0.603
60196SOL     OW82426  11.881  11.952  13.838
60196SOL    HW182427  11.914  12.028  13.789
60196SOL    HW282428  11.931  11.953  13.920
60197SOL     OW82429   9.113   9.087   1.137
60197SOL    HW182430   9.028   9.100   1.180
60197SOL    HW282431   9.176   9.084   1.209
60198SOL     OW82432   1.058   5.533   7.394
60198SOL    HW182433   1.024   5.451   7.356
60198SOL    HW282434   0.998   5.600   7.362
60199SOL     OW82435  10.199  13.879   8.164
60199SOL    HW182436  10.139  13.805   8.176
60199SOL    HW282437  10.233  13.898   8.251
60200SOL     OW82438  12.770   3.136   0.327
60200SOL    HW182439  12.821   3.217   0.326
60200SOL    HW282440  12.709   3.147   0.401
60201SOL     OW82441   1.662   1.911   0.990
60201SOL    HW182442   1.702   1.997   1.004
60201SOL    HW282443   1.611   1.895   1.070
60202SOL     OW82444  12.082   6.508   9.436
60202SOL    HW182445  12.028   6.587   9.445
60202SOL    HW282446  12.020   6.436   9.450
60203SOL     OW82447   3.302   0.718   4.699
60203SOL    HW182448   3.332   0.728   4.609
60203SOL    HW282449   3.223   0.772   4.703
60204SOL     OW82450   0.047   6.440   3.028
60204SOL    HW182451   0.006   6.387   3.096
60204SOL    HW282452   0.007   6.411   2.946
60205SOL     OW82453   5.833   5.285   5.959
60205SOL    HW182454   5.903   5.239   6.005
60205SOL    HW282455   5.781   5.214   5.920
60206SOL     OW82456   7.306  10.485  14.273
60206SOL    HW182457   7.232  10.546  14.275
60206SOL    HW282458   7.378  10.533  14.312
60207SOL     OW82459   0.190   1.084   7.631
60207SOL    HW182460   0.174   1.100   7.538
60207SOL    HW282461   0.268   1.029   7.632
60208SOL     OW82462   5.083   1.338   2.124
60208SOL    HW182463   5.144   1.403   2.160
60208SOL    HW282464   5.045   1.296   2.202
60209SOL     OW82465  12.399   0.832   5.954
60209SOL    HW182466  12.426   0.814   5.864
60209SOL    HW282467  12.303   0.830   5.951
60210SOL     OW82468   7.254   8.658   4.258
60210SOL    HW182469   7.205   8.584   4.225
60210SOL    HW282470   7.246   8.652   4.353
60211SOL     OW82471  10.160  14.239   4.594
60211SOL    HW182472  10.111  14.282   4.663
60211SOL    HW282473  10.247  14.279   4.598
60212SOL     OW82474   2.907   1.515  14.614
60212SOL    HW182475   2.956   1.536  14.693
60212SOL    HW282476   2.973   1.503  14.546
60213SOL     OW82477   0.997   8.703   4.818
60213SOL    HW182478   0.998   8.702   4.722
60213SOL    HW282479   0.905   8.694   4.841
60214SOL     OW82480  14.396   6.989  10.316
60214SOL    HW182481  14.484   6.971  10.283
60214SOL    HW282482  14.350   6.906  10.306
60215SOL     OW82483  11.952   2.529  12.894
60215SOL    HW182484  11.972   2.522  12.988
60215SOL    HW282485  12.013   2.595  12.861
60216SOL     OW82486   2.195   3.872   6.201
60216SOL    HW182487   2.121   3.900   6.148
60216SOL    HW282488   2.235   3.953   6.232
60217SOL     OW82489   1.948   1.379   0.318
60217SOL    HW182490   2.036   1.416   0.312
60217SOL    HW282491   1.908   1.400   0.234
60218SOL     OW82492   4.965   6.083   0.969
60218SOL    HW182493   5.019   6.161   0.981
60218SOL    HW282494   4.897   6.090   1.036
60219SOL     OW82495  11.263   7.259  10.444
60219SOL    HW182496  11.282   7.185  10.386
60219SOL    HW282497  11.345   7.276  10.490
60220SOL     OW82498   0.022   5.071   1.539
60220SOL    HW182499  14.853   5.006   1.489
60220SOL    HW282500  14.837   5.109   1.599
60221SOL     OW82501   9.745   7.955   5.315
60221SOL    HW182502   9.811   8.018   5.287
60221SOL    HW282503   9.667   8.008   5.331
60222SOL     OW82504  13.296   5.710  13.082
60222SOL    HW182505  13.217   5.695  13.133
60222SOL    HW282506  13.367   5.678  13.138
60223SOL     OW82507  10.483   1.339  13.991
60223SOL    HW182508  10.388   1.350  13.998
60223SOL    HW282509  10.517   1.428  13.983
60224SOL     OW82510   8.275   7.865   0.126
60224SOL    HW182511   8.317   7.930   0.070
60224SOL    HW282512   8.223   7.916   0.189
60225SOL     OW82513   4.426   1.808   4.579
60225SOL    HW182514   4.502   1.830   4.634
60225SOL    HW282515   4.382   1.738   4.626
60226SOL     OW82516  10.041  11.313   0.543
60226SOL    HW182517  10.018  11.343   0.631
60226SOL    HW282518   9.970  11.343   0.487
60227SOL     OW82519   4.850   7.530  13.121
60227SOL    HW182520   4.778   7.581  13.158
60227SOL    HW282521   4.808   7.458  13.074
60228SOL     OW82522   7.700  11.517   3.508
60228SOL    HW182523   7.764  11.560   3.565
60228SOL    HW282524   7.673  11.439   3.557
60229SOL     OW82525  14.012  12.842   7.855
60229SOL    HW182526  13.940  12.797   7.812
60229SOL    HW282527  13.995  12.831   7.949
60230SOL     OW82528   5.426   7.671   3.205
60230SOL    HW182529   5.361   7.739   3.224
60230SOL    HW282530   5.509   7.708   3.236
60231SOL     OW82531  12.889  13.811   1.895
60231SOL    HW182532  12.976  13.791   1.927
60231SOL    HW282533  12.903  13.873   1.823
60232SOL     OW82534   1.139  10.119  11.715
60232SOL    HW182535   1.064  10.169  11.683
60232SOL    HW282536   1.109  10.081  11.798
60233SOL     OW82537   8.674   5.413   6.957
60233SOL    HW182538   8.700   5.506   6.959
60233SOL    HW282539   8.757   5.366   6.958
60234SOL     OW82540  14.234  12.006  14.326
60234SOL    HW182541  14.238  12.021  14.420
60234SOL    HW282542  14.325  12.014  14.296
60235SOL     OW82543   9.069   5.389   5.914
60235SOL    HW182544   8.977   5.409   5.894
60235SOL    HW282545   9.073   5.293   5.915
60236SOL     OW82546   1.302   8.854  11.849
60236SOL    HW182547   1.300   8.777  11.906
60236SOL    HW282548   1.214   8.890  11.855
60237SOL     OW82549   9.572  13.808   2.621
60237SOL    HW182550   9.577  13.730   2.675
60237SOL    HW282551   9.527  13.779   2.541
60238SOL     OW82552   2.519  14.092   3.758
60238SOL    HW182553   2.554  14.008   3.789
60238SOL    HW282554   2.424  14.078   3.752
60239SOL     OW82555   2.834  14.396   0.811
60239SOL    HW182556   2.864  14.346   0.887
60239SOL    HW282557   2.908  14.393   0.750
60240SOL     OW82558  12.882   7.407   1.525
60240SOL    HW182559  12.811   7.408   1.588
60240SOL    HW282560  12.929   7.489   1.540
60241SOL     OW82561   7.890   1.343   4.706
60241SOL    HW182562   7.849   1.427   4.685
60241SOL    HW282563   7.984   1.361   4.705
60242SOL     OW82564   6.020   2.975   5.069
60242SOL    HW182565   6.007   2.970   5.163
60242SOL    HW282566   5.941   3.019   5.037
60243SOL     OW82567  11.250  13.712   9.184
60243SOL    HW182568  11.330  13.663   9.205
60243SOL    HW282569  11.272  13.760   9.104
60244SOL     OW82570  10.724  12.052   2.064
60244SOL    HW182571  10.655  12.076   2.126
60244SOL    HW282572  10.783  11.995   2.113
60245SOL     OW82573   9.995   8.911   7.350
60245SOL    HW182574   9.912   8.876   7.315
60245SOL    HW282575  10.017   8.983   7.291
60246SOL     OW82576  10.637   1.855  12.624
60246SOL    HW182577  10.658   1.768  12.589
60246SOL    HW282578  10.556   1.880  12.579
60247SOL     OW82579   6.034  10.204   7.955
60247SOL    HW182580   6.080  10.124   7.930
60247SOL    HW282581   5.943  10.177   7.969
60248SOL     OW82582  12.846   5.309  13.875
60248SOL    HW182583  12.794   5.240  13.917
60248SOL    HW282584  12.890   5.265  13.803
60249SOL     OW82585  13.027  13.906   5.468
60249SOL    HW182586  12.933  13.915   5.485
60249SOL    HW282587  13.069  13.927   5.552
60250SOL     OW82588  10.861  12.249  10.166
60250SOL    HW182589  10.898  12.225  10.250
60250SOL    HW282590  10.884  12.177  10.107
60251SOL     OW82591  12.440   8.118   7.450
60251SOL    HW182592  12.444   8.139   7.357
60251SOL    HW282593  12.347   8.120   7.471
60252SOL     OW82594  10.046  10.245  13.320
60252SOL    HW182595  10.070  10.222  13.231
60252SOL    HW282596   9.978  10.312  13.310
60253SOL     OW82597  14.046  11.162   3.264
60253SOL    HW182598  13.953  11.155   3.247
60253SOL    HW282599  14.086  11.093   3.210
60254SOL     OW82600   3.000   4.029   5.288
60254SOL    HW182601   2.950   4.024   5.370
60254SOL    HW282602   3.083   3.987   5.308
60255SOL     OW82603   6.783  10.525  12.411
60255SOL    HW182604   6.821  10.481  12.335
60255SOL    HW282605   6.768  10.455  12.474
60256SOL     OW82606  12.855   7.707   6.087
60256SOL    HW182607  12.841   7.617   6.057
60256SOL    HW282608  12.769   7.736   6.118
60257SOL     OW82609  14.344  11.474  11.897
60257SOL    HW182610  14.312  11.458  11.809
60257SOL    HW282611  14.337  11.389  11.941
60258SOL     OW82612  10.425   0.353  12.448
60258SOL    HW182613  10.411   0.352  12.354
60258SOL    HW282614  10.391   0.437  12.477
60259SOL     OW82615   7.752  14.604   1.566
60259SOL    HW182616   7.789  14.620   1.480
60259SOL    HW282617   7.738  14.510   1.570
60260SOL     OW82618  10.461   1.327   6.550
60260SOL    HW182619  10.460   1.416   6.516
60260SOL    HW282620  10.418   1.274   6.482
60261SOL     OW82621  10.252   0.908   7.129
60261SOL    HW182622  10.320   0.841   7.134
60261SOL    HW282623  10.205   0.887   7.048
60262SOL     OW82624   0.306   3.762   3.194
60262SOL    HW182625   0.225   3.808   3.171
60262SOL    HW282626   0.375   3.825   3.173
60263SOL     OW82627  14.840   4.584   5.385
60263SOL    HW182628  14.749   4.610   5.393
60263SOL    HW282629   0.003   4.620   5.463
60264SOL     OW82630   2.316   6.361   3.220
60264SOL    HW182631   2.338   6.387   3.309
60264SOL    HW282632   2.393   6.312   3.190
60265SOL     OW82633   4.195  10.159   5.722
60265SOL    HW182634   4.122  10.213   5.753
60265SOL    HW282635   4.268  10.220   5.715
60266SOL     OW82636   6.706   9.907   5.582
60266SOL    HW182637   6.661   9.895   5.665
60266SOL    HW282638   6.799   9.896   5.603
60267SOL     OW82639   5.249   3.208   1.201
60267SOL    HW182640   5.269   3.275   1.266
60267SOL    HW282641   5.162   3.231   1.168
60268SOL     OW82642  14.697   7.185   7.883
60268SOL    HW182643  14.662   7.181   7.972
60268SOL    HW282644  14.654   7.112   7.838
60269SOL     OW82645   4.550   7.545   3.509
60269SOL    HW182646   4.611   7.564   3.437
60269SOL    HW282647   4.480   7.494   3.469
60270SOL     OW82648   2.211   6.482   0.854
60270SOL    HW182649   2.260   6.526   0.784
60270SOL    HW282650   2.127   6.527   0.856
60271SOL     OW82651  11.607   5.859   9.585
60271SOL    HW182652  11.583   5.799   9.656
60271SOL    HW282653  11.530   5.861   9.529
60272SOL     OW82654   5.721   7.028   5.418
60272SOL    HW182655   5.640   7.071   5.443
60272SOL    HW282656   5.714   7.016   5.323
60273SOL     OW82657   4.559   7.176   7.114
60273SOL    HW182658   4.588   7.134   7.033
60273SOL    HW282659   4.532   7.103   7.170
60274SOL     OW82660   6.800   5.826   7.777
60274SOL    HW182661   6.811   5.908   7.826
60274SOL    HW282662   6.888   5.791   7.769
60275SOL     OW82663  13.083   8.944  11.742
60275SOL    HW182664  13.104   8.863  11.788
60275SOL    HW282665  13.069   8.918  11.651
60276SOL     OW82666   1.206   9.570   7.088
60276SOL    HW182667   1.286   9.518   7.095
60276SOL    HW282668   1.174   9.553   7.000
60277SOL     OW82669   9.399   1.633   0.223
60277SOL    HW182670   9.365   1.545   0.241
60277SOL    HW282671   9.481   1.637   0.272
60278SOL     OW82672   8.754   9.522   2.113
60278SOL    HW182673   8.732   9.491   2.025
60278SOL    HW282674   8.704   9.603   2.123
60279SOL     OW82675   5.763  14.616  10.157
60279SOL    HW182676   5.740  14.676  10.085
60279SOL    HW282677   5.785  14.534  10.113
60280SOL     OW82678   6.574  12.192  13.550
60280SOL    HW182679   6.503  12.250  13.575
60280SOL    HW282680   6.532  12.108  13.533
60281SOL     OW82681   9.855   3.530   0.057
60281SOL    HW182682   9.760   3.539   0.054
60281SOL    HW282683   9.885   3.607   0.105
60282SOL     OW82684   1.185  14.027   8.046
60282SOL    HW182685   1.166  13.935   8.065
60282SOL    HW282686   1.117  14.052   7.983
60283SOL     OW82687   1.415  13.850  11.698
60283SOL    HW182688   1.420  13.939  11.733
60283SOL    HW282689   1.506  13.827  11.678
60284SOL     OW82690  10.004  14.428  10.284
60284SOL    HW182691  10.027  14.344  10.325
60284SOL    HW282692  10.034  14.419  10.194
60285SOL     OW82693   1.315  13.217  10.572
60285SOL    HW182694   1.346  13.164  10.646
60285SOL    HW282695   1.260  13.157  10.521
60286SOL     OW82696   7.890   3.886   4.495
60286SOL    HW182697   7.855   3.937   4.422
60286SOL    HW282698   7.961   3.835   4.458
60287SOL     OW82699   7.879   8.126  10.808
60287SOL    HW182700   7.936   8.201  10.788
60287SOL    HW282701   7.866   8.131  10.903
60288SOL     OW82702   2.524   7.736  13.093
60288SOL    HW182703   2.578   7.814  13.096
60288SOL    HW282704   2.467   7.743  13.170
60289SOL     OW82705  14.222   2.587   7.322
60289SOL    HW182706  14.205   2.657   7.259
60289SOL    HW282707  14.258   2.631   7.398
60290SOL     OW82708   4.424   9.548  10.036
60290SOL    HW182709   4.425   9.641  10.012
60290SOL    HW282710   4.422   9.502   9.952
60291SOL     OW82711  13.254   0.766   9.164
60291SOL    HW182712  13.348   0.787   9.169
60291SOL    HW282713  13.236   0.716   9.243
60292SOL     OW82714   3.592  13.443  10.884
60292SOL    HW182715   3.617  13.473  10.796
60292SOL    HW282716   3.582  13.523  10.935
60293SOL     OW82717  12.543  11.528   5.162
60293SOL    HW182718  12.480  11.543   5.232
60293SOL    HW282719  12.567  11.616   5.132
60294SOL     OW82720  12.298   0.671  11.143
60294SOL    HW182721  12.360   0.729  11.099
60294SOL    HW282722  12.253   0.624  11.072
60295SOL     OW82723   7.798  14.579  11.699
60295SOL    HW182724   7.760  14.535  11.774
60295SOL    HW282725   7.805  14.511  11.632
60296SOL     OW82726   4.631  10.900  10.050
60296SOL    HW182727   4.620  10.978   9.995
60296SOL    HW282728   4.722  10.874  10.036
60297SOL     OW82729   8.801   3.768   8.936
60297SOL    HW182730   8.761   3.854   8.941
60297SOL    HW282731   8.743   3.718   8.878
60298SOL     OW82732   1.899   4.204  11.404
60298SOL    HW182733   1.931   4.253  11.480
60298SOL    HW282734   1.809   4.180  11.427
60299SOL     OW82735   3.763   9.168  12.260
60299SOL    HW182736   3.755   9.195  12.351
60299SOL    HW282737   3.847   9.205  12.231
60300SOL     OW82738  11.043   5.184   1.355
60300SOL    HW182739  11.013   5.254   1.297
60300SOL    HW282740  11.064   5.228   1.437
60301SOL     OW82741  10.965   2.757   2.365
60301SOL    HW182742  11.039   2.696   2.361
60301SOL    HW282743  10.940   2.758   2.457
60302SOL     OW82744   0.090   3.052   6.853
60302SOL    HW182745   0.008   3.049   6.902
60302SOL    HW282746   0.111   2.960   6.835
60303SOL     OW82747   2.554  10.933  12.547
60303SOL    HW182748   2.582  10.846  12.519
60303SOL    HW282749   2.614  10.956  12.618
60304SOL     OW82750   9.179   9.454   1.670
60304SOL    HW182751   9.115   9.501   1.617
60304SOL    HW282752   9.155   9.361   1.661
60305SOL     OW82753   4.203   1.363   8.698
60305SOL    HW182754   4.205   1.455   8.671
60305SOL    HW282755   4.152   1.320   8.630
60306SOL     OW82756   4.876   7.027   1.942
60306SOL    HW182757   4.838   7.023   2.030
60306SOL    HW282758   4.946   6.963   1.943
60307SOL     OW82759   2.049   4.468   0.131
60307SOL    HW182760   2.052   4.543   0.072
60307SOL    HW282761   2.124   4.480   0.189
60308SOL     OW82762   4.156  13.475   5.230
60308SOL    HW182763   4.109  13.413   5.286
60308SOL    HW282764   4.215  13.521   5.290
60309SOL     OW82765   3.867   9.987  12.753
60309SOL    HW182766   3.935   9.988  12.686
60309SOL    HW282767   3.785   9.981  12.705
60310SOL     OW82768   6.627   5.775  10.464
60310SOL    HW182769   6.551   5.813  10.509
60310SOL    HW282770   6.633   5.686  10.500
60311SOL     OW82771   5.173   3.232  11.982
60311SOL    HW182772   5.174   3.137  11.991
60311SOL    HW282773   5.116   3.249  11.907
60312SOL     OW82774   7.275   8.238  14.674
60312SOL    HW182775   7.369   8.231  14.658
60312SOL    HW282776   7.265   8.227  14.769
60313SOL     OW82777   1.546   0.955   0.489
60313SOL    HW182778   1.520   0.862   0.487
60313SOL    HW282779   1.486   0.995   0.552
60314SOL     OW82780   7.779   5.116   7.564
60314SOL    HW182781   7.726   5.193   7.585
60314SOL    HW282782   7.715   5.048   7.542
60315SOL     OW82783   9.500  10.309  12.825
60315SOL    HW182784   9.522  10.362  12.749
60315SOL    HW282785   9.409  10.330  12.844
60316SOL     OW82786   2.971   5.811   5.377
60316SOL    HW182787   2.956   5.826   5.284
60316SOL    HW282788   2.885   5.785   5.411
60317SOL     OW82789  11.140  13.916  13.821
60317SOL    HW182790  11.119  13.868  13.901
60317SOL    HW282791  11.179  13.998  13.851
60318SOL     OW82792  10.046  10.168   9.063
60318SOL    HW182793  10.001  10.090   9.031
60318SOL    HW282794  10.036  10.232   8.992
60319SOL     OW82795   2.764   0.575   0.298
60319SOL    HW182796   2.752   0.487   0.261
60319SOL    HW282797   2.685   0.590   0.350
60320SOL     OW82798  14.003   9.797   4.537
60320SOL    HW182799  14.065   9.815   4.607
60320SOL    HW282800  14.051   9.741   4.476
60321SOL     OW82801   4.474   4.436   0.971
60321SOL    HW182802   4.396   4.487   0.952
60321SOL    HW282803   4.478   4.370   0.901
60322SOL     OW82804  11.251  12.835   7.640
60322SOL    HW182805  11.174  12.885   7.665
60322SOL    HW282806  11.225  12.788   7.561
60323SOL     OW82807   7.868  14.658   7.659
60323SOL    HW182808   7.902  14.614   7.736
60323SOL    HW282809   7.807  14.723   7.694
60324SOL     OW82810  12.240   4.516  11.390
60324SOL    HW182811  12.190   4.596  11.373
60324SOL    HW282812  12.247   4.474  11.304
60325SOL     OW82813   8.187   7.133   3.194
60325SOL    HW182814   8.127   7.132   3.268
60325SOL    HW282815   8.252   7.066   3.215
60326SOL     OW82816   8.368   6.247   6.141
60326SOL    HW182817   8.347   6.308   6.212
60326SOL    HW282818   8.372   6.302   6.063
60327SOL     OW82819   2.534   8.133  14.844
60327SOL    HW182820   2.600   8.080  14.799
60327SOL    HW282821   2.460   8.074  14.858
60328SOL     OW82822   1.608   5.905   2.441
60328SOL    HW182823   1.648   5.901   2.528
60328SOL    HW282824   1.616   5.816   2.406
60329SOL     OW82825   5.317   0.200  13.672
60329SOL    HW182826   5.378   0.249  13.616
60329SOL    HW282827   5.356   0.112  13.678
60330SOL     OW82828   9.738   4.540  10.904
60330SOL    HW182829   9.655   4.582  10.881
60330SOL    HW282830   9.746   4.468  10.842
60331SOL     OW82831   5.258   7.345   5.558
60331SOL    HW182832   5.178   7.331   5.607
60331SOL    HW282833   5.298   7.422   5.599
60332SOL     OW82834   7.363   7.115   0.424
60332SOL    HW182835   7.424   7.047   0.454
60332SOL    HW282836   7.325   7.078   0.343
60333SOL     OW82837   5.657   8.047   6.718
60333SOL    HW182838   5.587   8.106   6.688
60333SOL    HW282839   5.662   8.061   6.812
60334SOL     OW82840  14.268   5.783   6.621
60334SOL    HW182841  14.251   5.858   6.565
60334SOL    HW282842  14.241   5.707   6.570
60335SOL     OW82843   2.807   2.128  13.050
60335SOL    HW182844   2.799   2.211  13.001
60335SOL    HW282845   2.837   2.065  12.985
60336SOL     OW82846  10.022   8.615   4.559
60336SOL    HW182847  10.008   8.701   4.599
60336SOL    HW282848  10.068   8.635   4.477
60337SOL     OW82849   8.856  12.125  12.181
60337SOL    HW182850   8.865  12.218  12.205
60337SOL    HW282851   8.902  12.117  12.098
60338SOL     OW82852   9.606  13.950   8.980
60338SOL    HW182853   9.559  13.890   9.037
60338SOL    HW282854   9.551  14.029   8.979
60339SOL     OW82855  14.093  10.662  14.238
60339SOL    HW182856  14.031  10.594  14.210
60339SOL    HW282857  14.046  10.744  14.227
60340SOL     OW82858   7.007  14.531   9.821
60340SOL    HW182859   6.925  14.579   9.831
60340SOL    HW282860   7.034  14.547   9.730
60341SOL     OW82861   4.419  12.460  10.740
60341SOL    HW182862   4.465  12.412  10.808
60341SOL    HW282863   4.438  12.412  10.659
60342SOL     OW82864   6.929   8.755   6.166
60342SOL    HW182865   6.851   8.729   6.117
60342SOL    HW282866   6.987   8.793   6.100
60343SOL     OW82867   6.750   1.749  13.226
60343SOL    HW182868   6.768   1.838  13.256
60343SOL    HW282869   6.666   1.755  13.182
60344SOL     OW82870   8.548  14.512  12.345
60344SOL    HW182871   8.534  14.563  12.265
60344SOL    HW282872   8.534  14.575  12.416
60345SOL     OW82873   3.363   7.488   9.296
60345SOL    HW182874   3.387   7.574   9.330
60345SOL    HW282875   3.276   7.501   9.259
60346SOL     OW82876   0.243  12.452  10.406
60346SOL    HW182877   0.202  12.389  10.465
60346SOL    HW282878   0.203  12.435  10.321
60347SOL     OW82879   3.268   5.567   0.778
60347SOL    HW182880   3.277   5.509   0.703
60347SOL    HW282881   3.348   5.554   0.828
60348SOL     OW82882  14.165   1.325   1.698
60348SOL    HW182883  14.086   1.300   1.747
60348SOL    HW282884  14.181   1.251   1.639
60349SOL     OW82885   7.869   9.882  11.600
60349SOL    HW182886   7.940   9.891  11.663
60349SOL    HW282887   7.910   9.848  11.521
60350SOL     OW82888   9.459   3.502   1.789
60350SOL    HW182889   9.487   3.593   1.803
60350SOL    HW282890   9.372   3.509   1.750
60351SOL     OW82891   7.729   1.062   4.148
60351SOL    HW182892   7.758   0.971   4.159
60351SOL    HW282893   7.809   1.110   4.126
60352SOL     OW82894  11.060  10.508   6.339
60352SOL    HW182895  10.993  10.530   6.403
60352SOL    HW282896  11.049  10.573   6.269
60353SOL     OW82897  10.534  11.357  14.610
60353SOL    HW182898  10.465  11.328  14.669
60353SOL    HW282899  10.615  11.334  14.655
60354SOL     OW82900  13.109   9.325  12.689
60354SOL    HW182901  13.036   9.339  12.628
60354SOL    HW282902  13.080   9.254  12.745
60355SOL     OW82903   2.395   2.705   3.645
60355SOL    HW182904   2.478   2.672   3.612
60355SOL    HW282905   2.353   2.630   3.685
60356SOL     OW82906   2.111   2.080  10.018
60356SOL    HW182907   2.080   2.154   9.966
60356SOL    HW282908   2.174   2.118  10.079
60357SOL     OW82909   5.614   2.941  14.415
60357SOL    HW182910   5.653   3.002  14.477
60357SOL    HW282911   5.526   2.925  14.448
60358SOL     OW82912   4.072  14.427   9.495
60358SOL    HW182913   4.097  14.376   9.418
60358SOL    HW282914   3.981  14.404   9.511
60359SOL     OW82915  13.491  10.573  12.990
60359SOL    HW182916  13.558  10.633  13.025
60359SOL    HW282917  13.426  10.630  12.949
60360SOL     OW82918   4.311  14.698   6.314
60360SOL    HW182919   4.323  14.605   6.336
60360SOL    HW282920   4.364  14.745   6.379
60361SOL     OW82921   2.168  10.412   1.517
60361SOL    HW182922   2.135  10.467   1.446
60361SOL    HW282923   2.180  10.326   1.476
60362SOL     OW82924   9.436   9.692   1.420
60362SOL    HW182925   9.445   9.787   1.408
60362SOL    HW282926   9.392   9.662   1.341
60363SOL     OW82927  14.862  13.927   0.934
60363SOL    HW182928  14.803  13.921   0.859
60363SOL    HW282929  14.808  13.961   1.005
60364SOL     OW82930   5.680   3.012   8.734
60364SOL    HW182931   5.591   3.036   8.759
60364SOL    HW282932   5.715   3.089   8.690
60365SOL     OW82933  14.231   5.666   6.088
60365SOL    HW182934  14.219   5.665   6.183
60365SOL    HW282935  14.264   5.755   6.070
60366SOL     OW82936  11.121  13.185   1.998
60366SOL    HW182937  11.030  13.203   1.976
60366SOL    HW282938  11.150  13.262   2.046
60367SOL     OW82939   7.787   3.783  14.443
60367SOL    HW182940   7.770   3.765  14.350
60367SOL    HW282941   7.702   3.809  14.479
60368SOL     OW82942   5.368  11.383   2.903
60368SOL    HW182943   5.428  11.453   2.926
60368SOL    HW282944   5.378  11.373   2.808
60369SOL     OW82945   4.450  13.939   7.694
60369SOL    HW182946   4.483  13.970   7.778
60369SOL    HW282947   4.369  13.989   7.680
60370SOL     OW82948   2.525  11.585   0.307
60370SOL    HW182949   2.619  11.591   0.293
60370SOL    HW282950   2.512  11.619   0.395
60371SOL     OW82951   3.287   0.813  10.742
60371SOL    HW182952   3.373   0.852  10.760
60371SOL    HW282953   3.237   0.884  10.701
60372SOL     OW82954   8.657   3.080   0.977
60372SOL    HW182955   8.741   3.034   0.978
60372SOL    HW282956   8.656   3.131   1.059
60373SOL     OW82957  14.231   5.777  10.910
60373SOL    HW182958  14.206   5.784  10.817
60373SOL    HW282959  14.194   5.855  10.951
60374SOL     OW82960  11.283  13.012  12.245
60374SOL    HW182961  11.224  12.960  12.300
60374SOL    HW282962  11.355  13.035  12.303
60375SOL     OW82963   7.461   8.519   5.166
60375SOL    HW182964   7.369   8.501   5.188
60375SOL    HW282965   7.476   8.472   5.084
60376SOL     OW82966   9.465  14.665   1.980
60376SOL    HW182967   9.402  14.717   1.931
60376SOL    HW282968   9.548  14.710   1.970
60377SOL     OW82969   4.481  11.193   0.552
60377SOL    HW182970   4.457  11.271   0.503
60377SOL    HW282971   4.404  11.136   0.545
60378SOL     OW82972   0.091   8.415   8.475
60378SOL    HW182973   0.096   8.389   8.383
60378SOL    HW282974   0.045   8.499   8.473
60379SOL     OW82975   5.112  11.502  13.813
60379SOL    HW182976   5.158  11.541  13.738
60379SOL    HW282977   5.161  11.422  13.833
60380SOL     OW82978   3.853   5.119   9.826
60380SOL    HW182979   3.872   5.205   9.787
60380SOL    HW282980   3.848   5.137   9.920
60381SOL     OW82981  12.956   9.528   2.890
60381SOL    HW182982  12.922   9.602   2.840
60381SOL    HW282983  12.965   9.561   2.979
60382SOL     OW82984   4.130   1.021   4.107
60382SOL    HW182985   4.057   0.977   4.151
60382SOL    HW282986   4.184   0.950   4.072
60383SOL     OW82987  11.973   4.162   1.502
60383SOL    HW182988  11.926   4.199   1.428
60383SOL    HW282989  11.951   4.219   1.576
60384SOL     OW82990  12.124   4.302   5.895
60384SOL    HW182991  12.053   4.319   5.957
60384SOL    HW282992  12.090   4.236   5.836
60385SOL     OW82993   4.337   5.420   3.780
60385SOL    HW182994   4.264   5.425   3.718
60385SOL    HW282995   4.363   5.328   3.779
60386SOL     OW82996   4.408   5.536   5.083
60386SOL    HW182997   4.316   5.550   5.060
60386SOL    HW282998   4.407   5.514   5.176
60387SOL     OW82999   4.993   2.479  12.890
60387SOL    HW183000   4.970   2.567  12.919
60387SOL    HW283001   4.952   2.471  12.804
60388SOL     OW83002   4.896  12.973   4.875
60388SOL    HW183003   4.970  12.934   4.921
60388SOL    HW283004   4.925  13.063   4.855
60389SOL     OW83005   0.445  10.258   6.375
60389SOL    HW183006   0.472  10.350   6.381
60389SOL    HW283007   0.431  10.232   6.466
60390SOL     OW83008   4.729   0.281  14.119
60390SOL    HW183009   4.655   0.326  14.079
60390SOL    HW283010   4.715   0.188  14.097
60391SOL     OW83011   8.103  14.376   4.859
60391SOL    HW183012   8.180  14.320   4.853
60391SOL    HW283013   8.129  14.458   4.817
60392SOL     OW83014  14.260   7.405  14.486
60392SOL    HW183015  14.204   7.431  14.414
60392SOL    HW283016  14.235   7.315  14.505
60393SOL     OW83017  12.514   1.459   9.775
60393SOL    HW183018  12.474   1.445   9.689
60393SOL    HW283019  12.484   1.545   9.802
60394SOL     OW83020   8.011   4.964   0.354
60394SOL    HW183021   8.029   4.872   0.336
60394SOL    HW283022   7.917   4.967   0.371
60395SOL     OW83023  10.457   6.442   7.799
60395SOL    HW183024  10.387   6.407   7.744
60395SOL    HW283025  10.418   6.520   7.840
60396SOL     OW83026   2.150   4.473  11.000
60396SOL    HW183027   2.148   4.378  11.010
60396SOL    HW283028   2.227   4.501  11.049
60397SOL     OW83029  12.694  13.945   7.233
60397SOL    HW183030  12.735  14.025   7.200
60397SOL    HW283031  12.600  13.959   7.219
60398SOL     OW83032   9.929   6.275  14.489
60398SOL    HW183033   9.884   6.295  14.408
60398SOL    HW283034  10.015   6.242  14.462
60399SOL     OW83035   7.011   3.002   0.338
60399SOL    HW183036   7.015   2.911   0.367
60399SOL    HW283037   6.918   3.025   0.345
60400SOL     OW83038   3.205   6.976   2.036
60400SOL    HW183039   3.220   6.942   2.124
60400SOL    HW283040   3.281   7.031   2.017
60401SOL     OW83041   9.613   2.760   9.037
60401SOL    HW183042   9.639   2.812   8.961
60401SOL    HW283043   9.555   2.692   9.002
60402SOL     OW83044   9.298   1.985   0.371
60402SOL    HW183045   9.236   2.058   0.377
60402SOL    HW283046   9.334   1.977   0.460
60403SOL     OW83047   4.796   9.900   4.572
60403SOL    HW183048   4.837   9.828   4.619
60403SOL    HW283049   4.748   9.948   4.639
60404SOL     OW83050   5.237  14.429   6.162
60404SOL    HW183051   5.318  14.406   6.209
60404SOL    HW283052   5.190  14.487   6.221
60405SOL     OW83053   8.388   1.377  13.482
60405SOL    HW183054   8.432   1.291  13.485
60405SOL    HW283055   8.314   1.368  13.541
60406SOL     OW83056   4.149   2.023   7.317
60406SOL    HW183057   4.218   2.081   7.286
60406SOL    HW283058   4.075   2.082   7.335
60407SOL     OW83059   0.264   9.295   6.088
60407SOL    HW183060   0.257   9.359   6.018
60407SOL    HW283061   0.303   9.343   6.161
60408SOL     OW83062   5.134  12.763  12.286
60408SOL    HW183063   5.183  12.845  12.294
60408SOL    HW283064   5.051  12.789  12.246
60409SOL     OW83065  11.406   9.419  10.403
60409SOL    HW183066  11.457   9.340  10.423
60409SOL    HW283067  11.420   9.433  10.310
60410SOL     OW83068   2.496   6.463   6.547
60410SOL    HW183069   2.522   6.555   6.543
60410SOL    HW283070   2.427   6.460   6.613
60411SOL     OW83071   5.723   7.518   3.473
60411SOL    HW183072   5.806   7.557   3.445
60411SOL    HW283073   5.724   7.430   3.435
60412SOL     OW83074   2.181  14.364   2.645
60412SOL    HW183075   2.264  14.404   2.672
60412SOL    HW283076   2.175  14.382   2.551
60413SOL     OW83077   6.459   4.840   0.689
60413SOL    HW183078   6.523   4.895   0.644
60413SOL    HW283079   6.460   4.757   0.640
60414SOL     OW83080   9.521   2.258   0.852
60414SOL    HW183081   9.504   2.235   0.760
60414SOL    HW283082   9.548   2.176   0.892
60415SOL     OW83083  11.947  10.276   5.249
60415SOL    HW183084  11.873  10.301   5.304
60415SOL    HW283085  11.965  10.185   5.272
60416SOL     OW83086   5.679   1.316   1.733
60416SOL    HW183087   5.645   1.399   1.768
60416SOL    HW283088   5.774   1.328   1.729
60417SOL     OW83089  11.751   8.497  14.242
60417SOL    HW183090  11.767   8.412  14.283
60417SOL    HW283091  11.657   8.501  14.228
60418SOL     OW83092   1.705   2.401   2.547
60418SOL    HW183093   1.630   2.375   2.601
60418SOL    HW283094   1.733   2.485   2.582
60419SOL     OW83095  10.429   2.816   1.844
60419SOL    HW183096  10.521   2.793   1.838
60419SOL    HW283097  10.394   2.798   1.757
60420SOL     OW83098  10.649   8.301   2.077
60420SOL    HW183099  10.704   8.254   2.140
60420SOL    HW283100  10.707   8.318   2.003
60421SOL     OW83101   8.099   9.255   8.790
60421SOL    HW183102   8.188   9.292   8.791
60421SOL    HW283103   8.078   9.246   8.697
60422SOL     OW83104   3.202   2.289   2.404
60422SOL    HW183105   3.143   2.325   2.338
60422SOL    HW283106   3.273   2.353   2.409
60423SOL     OW83107   6.217   0.394   1.103
60423SOL    HW183108   6.199   0.488   1.101
60423SOL    HW283109   6.180   0.364   1.186
60424SOL     OW83110   6.266  13.371   8.123
60424SOL    HW183111   6.230  13.455   8.151
60424SOL    HW283112   6.235  13.360   8.033
60425SOL     OW83113   9.046   3.594   4.210
60425SOL    HW183114   9.053   3.513   4.260
60425SOL    HW283115   9.135   3.613   4.181
60426SOL     OW83116   4.356   6.106  12.387
60426SOL    HW183117   4.397   6.193  12.379
60426SOL    HW283118   4.428   6.045  12.370
60427SOL     OW83119  13.864  14.732   0.180
60427SOL    HW183120  13.945  14.727   0.130
60427SOL    HW283121  13.800  14.768   0.120
60428SOL     OW83122   0.447  13.392   4.575
60428SOL    HW183123   0.415  13.308   4.606
60428SOL    HW283124   0.523  13.411   4.631
60429SOL     OW83125   2.777   1.465   8.986
60429SOL    HW183126   2.848   1.416   8.944
60429SOL    HW283127   2.819   1.506   9.062
60430SOL     OW83128   2.181   2.947  11.296
60430SOL    HW183129   2.204   2.953  11.389
60430SOL    HW283130   2.264   2.930  11.252
60431SOL     OW83131   2.798   5.441   9.313
60431SOL    HW183132   2.845   5.362   9.341
60431SOL    HW283133   2.829   5.458   9.224
60432SOL     OW83134  10.857   3.157  12.764
60432SOL    HW183135  10.906   3.188  12.840
60432SOL    HW283136  10.812   3.078  12.795
60433SOL     OW83137  13.832  10.089   7.011
60433SOL    HW183138  13.908  10.143   6.991
60433SOL    HW283139  13.815  10.105   7.104
60434SOL     OW83140  13.516   8.619   2.057
60434SOL    HW183141  13.478   8.706   2.067
60434SOL    HW283142  13.449   8.568   2.011
60435SOL     OW83143  12.156  11.186   1.454
60435SOL    HW183144  12.227  11.122   1.445
60435SOL    HW283145  12.145  11.222   1.367
60436SOL     OW83146   3.898  12.980  10.743
60436SOL    HW183147   3.918  13.005  10.833
60436SOL    HW283148   3.976  12.933  10.713
60437SOL     OW83149  10.069  13.745  11.174
60437SOL    HW183150  10.120  13.734  11.254
60437SOL    HW283151  10.075  13.839  11.155
60438SOL     OW83152   4.934  11.708   4.035
60438SOL    HW183153   5.025  11.682   4.039
60438SOL    HW283154   4.919  11.758   4.116
60439SOL     OW83155  11.330  14.546   1.172
60439SOL    HW183156  11.385  14.548   1.094
60439SOL    HW283157  11.325  14.454   1.196
60440SOL     OW83158   3.358  14.484   1.951
60440SOL    HW183159   3.277  14.456   1.908
60440SOL    HW283160   3.427  14.457   1.890
60441SOL     OW83161  11.968   8.761   2.322
60441SOL    HW183162  11.873   8.757   2.314
60441SOL    HW283163  11.997   8.809   2.244
60442SOL     OW83164  12.615   7.236   7.901
60442SOL    HW183165  12.709   7.252   7.910
60442SOL    HW283166  12.600   7.152   7.944
60443SOL     OW83167   6.759   9.083   0.663
60443SOL    HW183168   6.679   9.113   0.705
60443SOL    HW283169   6.753   8.987   0.667
60444SOL     OW83170   5.710  11.370   0.407
60444SOL    HW183171   5.762  11.290   0.413
60444SOL    HW283172   5.745  11.415   0.330
60445SOL     OW83173   1.499  12.362   4.644
60445SOL    HW183174   1.429  12.338   4.583
60445SOL    HW283175   1.568  12.298   4.627
60446SOL     OW83176   4.242  12.870  11.482
60446SOL    HW183177   4.173  12.935  11.468
60446SOL    HW283178   4.321  12.912  11.448
60447SOL     OW83179   8.890  14.715   5.610
60447SOL    HW183180   8.809  14.674   5.639
60447SOL    HW283181   8.899  14.687   5.518
60448SOL     OW83182   4.072   7.079   1.336
60448SOL    HW183183   4.090   6.999   1.385
60448SOL    HW283184   4.035   7.139   1.400
60449SOL     OW83185   8.707   8.842  13.247
60449SOL    HW183186   8.775   8.862  13.312
60449SOL    HW283187   8.748   8.863  13.163
60450SOL     OW83188   2.480   8.547   2.546
60450SOL    HW183189   2.527   8.609   2.601
60450SOL    HW283190   2.454   8.477   2.605
60451SOL     OW83191   6.022   0.495  14.198
60451SOL    HW183192   6.044   0.420  14.252
60451SOL    HW283193   6.082   0.489  14.123
60452SOL     OW83194   4.824  12.090   2.058
60452SOL    HW183195   4.749  12.101   2.000
60452SOL    HW283196   4.854  12.180   2.076
60453SOL     OW83197   9.710  13.879  14.052
60453SOL    HW183198   9.785  13.938  14.059
60453SOL    HW283199   9.749  13.793  14.039
60454SOL     OW83200  13.891   0.315  10.891
60454SOL    HW183201  13.875   0.404  10.861
60454SOL    HW283202  13.814   0.266  10.862
60455SOL     OW83203   8.090   4.054   9.503
60455SOL    HW183204   8.107   4.149   9.507
60455SOL    HW283205   8.176   4.016   9.484
60456SOL     OW83206   0.927   5.399   4.654
60456SOL    HW183207   0.837   5.420   4.677
60456SOL    HW283208   0.936   5.306   4.676
60457SOL     OW83209  13.352   8.801   4.972
60457SOL    HW183210  13.318   8.751   5.046
60457SOL    HW283211  13.276   8.811   4.914
60458SOL     OW83212   3.810  13.695  11.474
60458SOL    HW183213   3.895  13.654  11.491
60458SOL    HW283214   3.828  13.789  11.477
60459SOL     OW83215  13.764   4.416   2.321
60459SOL    HW183216  13.829   4.382   2.383
60459SOL    HW283217  13.688   4.359   2.333
60460SOL     OW83218  14.666   1.358   0.631
60460SOL    HW183219  14.759   1.374   0.618
60460SOL    HW283220  14.653   1.267   0.602
60461SOL     OW83221   1.256   4.927   2.558
60461SOL    HW183222   1.341   4.964   2.579
60461SOL    HW283223   1.275   4.839   2.524
60462SOL     OW83224   5.513   1.340   1.185
60462SOL    HW183225   5.478   1.413   1.133
60462SOL    HW283226   5.604   1.364   1.203
60463SOL     OW83227   4.492  10.432  13.445
60463SOL    HW183228   4.459  10.522  13.452
60463SOL    HW283229   4.475  10.408  13.354
60464SOL     OW83230   5.161   4.115  12.384
60464SOL    HW183231   5.237   4.174  12.389
60464SOL    HW283232   5.145   4.089  12.474
60465SOL     OW83233  10.016   7.191   9.307
60465SOL    HW183234  10.020   7.234   9.393
60465SOL    HW283235   9.927   7.156   9.302
60466SOL     OW83236  13.920   7.961   4.810
60466SOL    HW183237  13.870   7.949   4.729
60466SOL    HW283238  13.939   7.873   4.841
60467SOL     OW83239   5.207  12.340  13.481
60467SOL    HW183240   5.136  12.306  13.535
60467SOL    HW283241   5.186  12.432  13.468
60468SOL     OW83242   9.135   5.339   0.292
60468SOL    HW183243   9.095   5.274   0.350
60468SOL    HW283244   9.068   5.359   0.228
60469SOL     OW83245   7.373  14.582   6.050
60469SOL    HW183246   7.355  14.581   5.956
60469SOL    HW283247   7.303  14.528   6.088
60470SOL     OW83248   5.591   8.227   4.056
60470SOL    HW183249   5.500   8.203   4.040
60470SOL    HW283250   5.634   8.216   3.971
60471SOL     OW83251  14.344   6.945   8.198
60471SOL    HW183252  14.256   6.938   8.161
60471SOL    HW283253  14.398   6.888   8.143
60472SOL     OW83254   7.532   0.963  11.963
60472SOL    HW183255   7.457   0.994  11.912
60472SOL    HW283256   7.540   1.025  12.035
60473SOL     OW83257  14.178  10.856   5.290
60473SOL    HW183258  14.153  10.807   5.368
60473SOL    HW283259  14.176  10.792   5.219
60474SOL     OW83260  12.437  10.764   3.066
60474SOL    HW183261  12.428  10.678   3.025
60474SOL    HW283262  12.499  10.811   3.011
60475SOL     OW83263  14.116   0.422   8.748
60475SOL    HW183264  14.177   0.382   8.686
60475SOL    HW283265  14.045   0.358   8.757
60476SOL     OW83266   9.549  13.098   4.618
60476SOL    HW183267   9.616  13.087   4.685
60476SOL    HW283268   9.551  13.016   4.569
60477SOL     OW83269   4.028   9.592   6.531
60477SOL    HW183270   4.008   9.665   6.589
60477SOL    HW283271   4.008   9.624   6.443
60478SOL     OW83272  13.017   3.977   7.252
60478SOL    HW183273  12.973   3.893   7.267
60478SOL    HW283274  12.969   4.016   7.178
60479SOL     OW83275  11.248  11.409   3.651
60479SOL    HW183276  11.295  11.473   3.705
60479SOL    HW283277  11.315  11.344   3.629
60480SOL     OW83278   2.502  12.987  10.331
60480SOL    HW183279   2.580  12.982  10.276
60480SOL    HW283280   2.453  12.907  10.311
60481SOL     OW83281  12.940   7.295   8.353
60481SOL    HW183282  12.940   7.212   8.306
60481SOL    HW283283  13.032   7.311   8.374
60482SOL     OW83284   6.389   7.923   5.480
60482SOL    HW183285   6.298   7.893   5.478
60482SOL    HW283286   6.438   7.848   5.513
60483SOL     OW83287   4.808   6.143   6.268
60483SOL    HW183288   4.725   6.107   6.297
60483SOL    HW283289   4.805   6.137   6.173
60484SOL     OW83290  10.253   2.737   5.098
60484SOL    HW183291  10.202   2.704   5.172
60484SOL    HW283292  10.227   2.829   5.089
60485SOL     OW83293  10.015   6.976  13.500
60485SOL    HW183294   9.929   7.017  13.513
60485SOL    HW283295  10.049   7.017  13.421
60486SOL     OW83296   7.695  11.780   2.015
60486SOL    HW183297   7.610  11.816   2.040
60486SOL    HW283298   7.681  11.746   1.927
60487SOL     OW83299  13.768  14.201  14.536
60487SOL    HW183300  13.739  14.200  14.444
60487SOL    HW283301  13.857  14.236  14.532
60488SOL     OW83302   2.168   5.696   9.954
60488SOL    HW183303   2.236   5.640   9.992
60488SOL    HW283304   2.111   5.636   9.906
60489SOL     OW83305   5.647   8.588   1.050
60489SOL    HW183306   5.674   8.673   1.085
60489SOL    HW283307   5.691   8.523   1.106
60490SOL     OW83308  13.684  14.176   6.316
60490SOL    HW183309  13.748  14.242   6.341
60490SOL    HW283310  13.623  14.172   6.389
60491SOL     OW83311   7.473   2.548  13.102
60491SOL    HW183312   7.387   2.590  13.107
60491SOL    HW283313   7.460   2.462  13.143
60492SOL     OW83314   1.486  11.114   0.428
60492SOL    HW183315   1.567  11.090   0.473
60492SOL    HW283316   1.473  11.207   0.450
60493SOL     OW83317   0.119   2.963   0.596
60493SOL    HW183318   0.211   2.981   0.577
60493SOL    HW283319   0.070   3.018   0.535
60494SOL     OW83320   9.017  14.795   8.628
60494SOL    HW183321   8.960  14.832   8.561
60494SOL    HW283322   9.104  14.827   8.607
60495SOL     OW83323   0.310  14.108   4.481
60495SOL    HW183324   0.297  14.085   4.573
60495SOL    HW283325   0.405  14.112   4.470
60496SOL     OW83326   7.675   3.332   4.722
60496SOL    HW183327   7.722   3.249   4.729
60496SOL    HW283328   7.683   3.372   4.808
60497SOL     OW83329  13.196   9.710   1.013
60497SOL    HW183330  13.126   9.742   1.070
60497SOL    HW283331  13.192   9.766   0.936
60498SOL     OW83332  13.642  13.239   3.847
60498SOL    HW183333  13.683  13.320   3.877
60498SOL    HW283334  13.661  13.176   3.917
60499SOL     OW83335   1.074   8.232   6.994
60499SOL    HW183336   1.002   8.205   7.051
60499SOL    HW283337   1.068   8.173   6.919
60500SOL     OW83338  10.671  11.781   3.566
60500SOL    HW183339  10.645  11.871   3.546
60500SOL    HW283340  10.766  11.781   3.556
60501SOL     OW83341   0.433   0.013   4.580
60501SOL    HW183342   0.406  14.817   4.527
60501SOL    HW283343   0.380   0.085   4.547
60502SOL     OW83344   8.488   1.715   9.287
60502SOL    HW183345   8.409   1.770   9.289
60502SOL    HW283346   8.465   1.639   9.339
60503SOL     OW83347  10.207   1.227   3.014
60503SOL    HW183348  10.268   1.249   3.085
60503SOL    HW283349  10.216   1.132   3.004
60504SOL     OW83350   5.142   7.895   7.205
60504SOL    HW183351   5.195   7.830   7.161
60504SOL    HW283352   5.081   7.845   7.259
60505SOL     OW83353  14.785   0.657  11.449
60505SOL    HW183354  14.865   0.706  11.432
60505SOL    HW283355  14.762   0.619  11.364
60506SOL     OW83356   3.858   7.051   7.838
60506SOL    HW183357   3.901   7.127   7.800
60506SOL    HW283358   3.928   6.988   7.854
60507SOL     OW83359   1.527   9.055   1.480
60507SOL    HW183360   1.547   8.969   1.517
60507SOL    HW283361   1.447   9.041   1.429
60508SOL     OW83362   5.764  14.692  14.822
60508SOL    HW183363   5.746  14.600  14.843
60508SOL    HW283364   5.689  14.740  14.856
60509SOL     OW83365  13.972   8.652   9.652
60509SOL    HW183366  13.923   8.638   9.570
60509SOL    HW283367  13.929   8.594   9.715
60510SOL     OW83368   1.680   8.722   5.321
60510SOL    HW183369   1.695   8.765   5.237
60510SOL    HW283370   1.600   8.763   5.355
60511SOL     OW83371   4.097  11.145   8.360
60511SOL    HW183372   4.045  11.155   8.280
60511SOL    HW283373   4.158  11.074   8.340
60512SOL     OW83374  13.327  14.734   1.999
60512SOL    HW183375  13.367  14.668   2.054
60512SOL    HW283376  13.325  14.695   1.911
60513SOL     OW83377   6.667   4.129   6.907
60513SOL    HW183378   6.674   4.224   6.918
60513SOL    HW283379   6.582   4.116   6.864
60514SOL     OW83380  13.546   1.896  11.455
60514SOL    HW183381  13.561   1.875  11.547
60514SOL    HW283382  13.548   1.812  11.410
60515SOL     OW83383   6.637  13.084   3.641
60515SOL    HW183384   6.587  13.007   3.667
60515SOL    HW283385   6.619  13.093   3.547
60516SOL     OW83386  12.765  11.396   5.286
60516SOL    HW183387  12.723  11.318   5.322
60516SOL    HW283388  12.696  11.437   5.232
60517SOL     OW83389  11.315  12.466   6.984
60517SOL    HW183390  11.279  12.516   6.911
60517SOL    HW283391  11.363  12.530   7.036
60518SOL     OW83392   1.335  12.330  10.138
60518SOL    HW183393   1.390  12.394  10.183
60518SOL    HW283394   1.390  12.251  10.133
60519SOL     OW83395  13.851   4.601  12.192
60519SOL    HW183396  13.836   4.561  12.106
60519SOL    HW283397  13.907   4.677  12.175
60520SOL     OW83398  14.796   8.243   3.622
60520SOL    HW183399  14.790   8.257   3.717
60520SOL    HW283400   0.003   8.278   3.599
60521SOL     OW83401  14.732   2.895  12.239
60521SOL    HW183402  14.647   2.852  12.250
60521SOL    HW283403  14.796   2.830  12.270
60522SOL     OW83404  12.954   0.412   5.568
60522SOL    HW183405  12.913   0.338   5.613
60522SOL    HW283406  12.883   0.473   5.550
60523SOL     OW83407   2.852   7.256   4.597
60523SOL    HW183408   2.899   7.331   4.563
60523SOL    HW283409   2.841   7.198   4.522
60524SOL     OW83410  14.180   3.814  13.793
60524SOL    HW183411  14.164   3.820  13.888
60524SOL    HW283412  14.092   3.816  13.755
60525SOL     OW83413   5.427   1.168  14.056
60525SOL    HW183414   5.393   1.131  13.975
60525SOL    HW283415   5.482   1.099  14.093
60526SOL     OW83416  11.458   0.578   3.297
60526SOL    HW183417  11.470   0.566   3.392
60526SOL    HW283418  11.525   0.523   3.257
60527SOL     OW83419   0.692   4.279   6.685
60527SOL    HW183420   0.745   4.203   6.708
60527SOL    HW283421   0.607   4.244   6.662
60528SOL     OW83422   8.444  13.503   6.268
60528SOL    HW183423   8.538  13.515   6.277
60528SOL    HW283424   8.416  13.574   6.209
60529SOL     OW83425   2.547  12.127  10.438
60529SOL    HW183426   2.536  12.034  10.459
60529SOL    HW283427   2.519  12.173  10.518
60530SOL     OW83428   0.295   4.295   0.978
60530SOL    HW183429   0.251   4.359   0.923
60530SOL    HW283430   0.246   4.295   1.060
60531SOL     OW83431  13.545   7.492   2.438
60531SOL    HW183432  13.586   7.471   2.354
60531SOL    HW283433  13.615   7.530   2.490
60532SOL     OW83434   1.521   1.848   1.219
60532SOL    HW183435   1.510   1.754   1.237
60532SOL    HW283436   1.548   1.885   1.302
60533SOL     OW83437   4.923   0.310   5.018
60533SOL    HW183438   4.884   0.387   5.058
60533SOL    HW283439   4.996   0.343   4.966
60534SOL     OW83440   0.711   5.399  12.843
60534SOL    HW183441   0.686   5.380  12.934
60534SOL    HW283442   0.634   5.376  12.792
60535SOL     OW83443   1.520  14.011   0.124
60535SOL    HW183444   1.577  13.938   0.099
60535SOL    HW283445   1.577  14.087   0.127
60536SOL     OW83446  11.993   8.123  10.524
60536SOL    HW183447  12.043   8.131  10.443
60536SOL    HW283448  12.039   8.056  10.574
60537SOL     OW83449   4.484   3.163   0.243
60537SOL    HW183450   4.567   3.178   0.288
60537SOL    HW283451   4.418   3.198   0.302
60538SOL     OW83452   3.672  12.473   3.705
60538SOL    HW183453   3.677  12.422   3.785
60538SOL    HW283454   3.600  12.534   3.720
60539SOL     OW83455   4.403   0.308  14.121
60539SOL    HW183456   4.384   0.357  14.041
60539SOL    HW283457   4.401   0.374  14.191
60540SOL     OW83458   2.158   0.510  12.514
60540SOL    HW183459   2.139   0.418  12.536
60540SOL    HW283460   2.157   0.555  12.598
60541SOL     OW83461   2.699   6.170   0.233
60541SOL    HW183462   2.791   6.178   0.255
60541SOL    HW283463   2.698   6.127   0.148
60542SOL     OW83464  10.632   4.502  14.203
60542SOL    HW183465  10.617   4.410  14.182
60542SOL    HW283466  10.561   4.526  14.262
60543SOL     OW83467   8.103   2.024   5.741
60543SOL    HW183468   8.083   2.079   5.817
60543SOL    HW283469   8.048   1.947   5.752
60544SOL     OW83470  13.701  14.655   5.721
60544SOL    HW183471  13.734  14.735   5.679
60544SOL    HW283472  13.637  14.685   5.784
60545SOL     OW83473   5.214   5.894   4.010
60545SOL    HW183474   5.123   5.878   3.985
60545SOL    HW283475   5.229   5.985   3.984
60546SOL     OW83476   6.893   1.682   6.073
60546SOL    HW183477   6.811   1.636   6.089
60546SOL    HW283478   6.866   1.764   6.031
60547SOL     OW83479   9.249  13.046   1.775
60547SOL    HW183480   9.222  13.073   1.862
60547SOL    HW283481   9.233  12.951   1.773
60548SOL     OW83482   2.182   0.960  11.927
60548SOL    HW183483   2.123   0.891  11.955
60548SOL    HW283484   2.211   0.932  11.839
60549SOL     OW83485  13.643  10.990  14.274
60549SOL    HW183486  13.592  11.060  14.314
60549SOL    HW283487  13.669  11.024  14.189
60550SOL     OW83488  13.363   1.231   7.727
60550SOL    HW183489  13.434   1.171   7.751
60550SOL    HW283490  13.379   1.251   7.635
60551SOL     OW83491  14.140   7.372   5.340
60551SOL    HW183492  14.110   7.319   5.267
60551SOL    HW283493  14.200   7.314   5.388
60552SOL     OW83494   2.164  10.240   7.250
60552SOL    HW183495   2.128  10.324   7.277
60552SOL    HW283496   2.190  10.198   7.332
60553SOL     OW83497  13.013  13.941   0.202
60553SOL    HW183498  13.012  14.030   0.238
60553SOL    HW283499  12.984  13.952   0.111
60554SOL     OW83500   0.309   2.798   1.344
60554SOL    HW183501   0.303   2.803   1.439
60554SOL    HW283502   0.299   2.705   1.324
60555SOL     OW83503   7.583  10.831   0.208
60555SOL    HW183504   7.507  10.885   0.186
60555SOL    HW283505   7.654  10.867   0.155
60556SOL     OW83506   9.269   6.373   1.941
60556SOL    HW183507   9.364   6.376   1.953
60556SOL    HW283508   9.246   6.280   1.949
60557SOL     OW83509   0.537   7.396   3.306
60557SOL    HW183510   0.449   7.389   3.270
60557SOL    HW283511   0.551   7.312   3.352
60558SOL     OW83512   2.400   5.835   1.645
60558SOL    HW183513   2.484   5.794   1.625
60558SOL    HW283514   2.344   5.763   1.673
60559SOL     OW83515   9.645   3.358   7.434
60559SOL    HW183516   9.654   3.452   7.454
60559SOL    HW283517   9.700   3.315   7.499
60560SOL     OW83518   1.685   9.310   1.417
60560SOL    HW183519   1.629   9.370   1.366
60560SOL    HW283520   1.626   9.274   1.484
60561SOL     OW83521  11.354   8.895  13.540
60561SOL    HW183522  11.304   8.941  13.473
60561SOL    HW283523  11.409   8.962  13.579
60562SOL     OW83524   4.456  10.273  10.154
60562SOL    HW183525   4.462  10.281  10.058
60562SOL    HW283526   4.534  10.318  10.186
60563SOL     OW83527  10.493   0.040   8.847
60563SOL    HW183528  10.444   0.053   8.766
60563SOL    HW283529  10.483  14.826   8.866
60564SOL     OW83530   9.950  13.148   3.569
60564SOL    HW183531  10.016  13.152   3.639
60564SOL    HW283532   9.879  13.095   3.607
60565SOL     OW83533  10.192  10.073  11.070
60565SOL    HW183534  10.170   9.993  11.022
60565SOL    HW283535  10.128  10.077  11.141
60566SOL     OW83536  11.073  12.616   6.528
60566SOL    HW183537  11.006  12.635   6.462
60566SOL    HW283538  11.023  12.606   6.609
60567SOL     OW83539  10.568   1.481   0.945
60567SOL    HW183540  10.585   1.389   0.924
60567SOL    HW283541  10.539   1.481   1.036
60568SOL     OW83542  11.836  12.675  13.258
60568SOL    HW183543  11.775  12.629  13.200
60568SOL    HW283544  11.922  12.646  13.230
60569SOL     OW83545   5.024   7.289  11.217
60569SOL    HW183546   5.074   7.255  11.143
60569SOL    HW283547   4.950   7.335  11.177
60570SOL     OW83548   9.448   8.807  11.588
60570SOL    HW183549   9.470   8.770  11.502
60570SOL    HW283550   9.384   8.747  11.625
60571SOL     OW83551  13.975   0.868  10.820
60571SOL    HW183552  14.052   0.849  10.766
60571SOL    HW283553  13.990   0.956  10.853
60572SOL     OW83554   3.025   5.396   5.357
60572SOL    HW183555   2.985   5.371   5.440
60572SOL    HW283556   2.955   5.438   5.308
60573SOL     OW83557   5.801   6.875   4.406
60573SOL    HW183558   5.890   6.856   4.436
60573SOL    HW283559   5.761   6.922   4.479
60574SOL     OW83560  12.404  14.226   5.620
60574SOL    HW183561  12.321  14.244   5.664
60574SOL    HW283562  12.426  14.136   5.645
60575SOL     OW83563   6.603   3.548   0.495
60575SOL    HW183564   6.588   3.627   0.548
60575SOL    HW283565   6.541   3.484   0.530
60576SOL     OW83566  12.339   1.416  12.046
60576SOL    HW183567  12.246   1.431  12.026
60576SOL    HW283568  12.344   1.322  12.066
60577SOL     OW83569   5.869   8.178   4.701
60577SOL    HW183570   5.818   8.182   4.782
60577SOL    HW283571   5.900   8.268   4.688
60578SOL     OW83572   3.676   3.414   7.425
60578SOL    HW183573   3.583   3.432   7.415
60578SOL    HW283574   3.717   3.500   7.431
60579SOL     OW83575   1.165   6.058   5.553
60579SOL    HW183576   1.113   6.137   5.540
60579SOL    HW283577   1.162   6.043   5.647
60580SOL     OW83578  14.026  10.827   3.393
60580SOL    HW183579  13.966  10.838   3.467
60580SOL    HW283580  14.012  10.737   3.364
60581SOL     OW83581   3.657   4.081   1.554
60581SOL    HW183582   3.669   4.023   1.629
60581SOL    HW283583   3.627   4.164   1.591
60582SOL     OW83584   1.111  14.550  13.418
60582SOL    HW183585   1.199  14.545  13.380
60582SOL    HW283586   1.052  14.529  13.345
60583SOL     OW83587   3.168  12.350  14.544
60583SOL    HW183588   3.110  12.367  14.470
60583SOL    HW283589   3.230  12.284  14.512
60584SOL     OW83590  12.820  12.494   0.850
60584SOL    HW183591  12.754  12.427   0.866
60584SOL    HW283592  12.893  12.447   0.810
60585SOL     OW83593  13.466   1.514   5.980
60585SOL    HW183594  13.520   1.528   5.903
60585SOL    HW283595  13.418   1.596   5.992
60586SOL     OW83596  13.971   9.706   5.391
60586SOL    HW183597  14.066   9.715   5.388
60586SOL    HW283598  13.955   9.613   5.377
60587SOL     OW83599  12.292   2.748  11.858
60587SOL    HW183600  12.249   2.735  11.773
60587SOL    HW283601  12.276   2.840  11.879
60588SOL     OW83602   2.235  14.492  10.648
60588SOL    HW183603   2.246  14.584  10.627
60588SOL    HW283604   2.286  14.446  10.582
60589SOL     OW83605   5.920   7.940   7.555
60589SOL    HW183606   5.872   7.879   7.611
60589SOL    HW283607   5.859   7.963   7.485
60590SOL     OW83608   2.413   8.753  13.153
60590SOL    HW183609   2.478   8.754  13.082
60590SOL    HW283610   2.329   8.769  13.109
60591SOL     OW83611  12.977   3.651   1.575
60591SOL    HW183612  12.898   3.671   1.626
60591SOL    HW283613  13.020   3.736   1.565
60592SOL     OW83614   2.160   0.950   0.113
60592SOL    HW183615   2.139   0.894   0.188
60592SOL    HW283616   2.080   1.002   0.099
60593SOL     OW83617  12.946   4.625   2.312
60593SOL    HW183618  12.911   4.610   2.399
60593SOL    HW283619  12.875   4.600   2.253
60594SOL     OW83620   9.380   2.161  14.098
60594SOL    HW183621   9.339   2.184  14.182
60594SOL    HW283622   9.324   2.094  14.061
60595SOL     OW83623   9.907   2.844   8.823
60595SOL    HW183624   9.988   2.890   8.799
60595SOL    HW283625   9.847   2.914   8.850
60596SOL     OW83626   2.319  12.577   4.948
60596SOL    HW183627   2.254  12.525   4.996
60596SOL    HW283628   2.296  12.564   4.856
60597SOL     OW83629   7.272  14.055  14.438
60597SOL    HW183630   7.338  14.018  14.496
60597SOL    HW283631   7.319  14.122  14.389
60598SOL     OW83632   2.156  10.408   0.330
60598SOL    HW183633   2.085  10.413   0.266
60598SOL    HW283634   2.165  10.315   0.349
60599SOL     OW83635  13.017   0.967   0.308
60599SOL    HW183636  12.940   1.018   0.283
60599SOL    HW283637  13.014   0.963   0.404
60600SOL     OW83638  14.234  12.002   9.698
60600SOL    HW183639  14.139  12.013   9.695
60600SOL    HW283640  14.250  11.950   9.777
60601SOL     OW83641   9.026  12.178   1.786
60601SOL    HW183642   8.945  12.214   1.824
60601SOL    HW283643   9.081  12.255   1.771
60602SOL     OW83644  12.398   0.068   2.618
60602SOL    HW183645  12.305   0.083   2.634
60602SOL    HW283646  12.413  14.858   2.647
60603SOL     OW83647  11.306   0.594  11.710
60603SOL    HW183648  11.315   0.506  11.675
60603SOL    HW283649  11.232   0.589  11.770
60604SOL     OW83650   6.624   3.101   3.191
60604SOL    HW183651   6.572   3.030   3.229
60604SOL    HW283652   6.599   3.179   3.241
60605SOL     OW83653  14.368  10.536   2.575
60605SOL    HW183654  14.319  10.478   2.518
60605SOL    HW283655  14.380  10.616   2.524
60606SOL     OW83656  14.364   1.228   5.804
60606SOL    HW183657  14.448   1.273   5.795
60606SOL    HW283658  14.299   1.298   5.794
60607SOL     OW83659   6.704   7.904  14.301
60607SOL    HW183660   6.733   7.891  14.391
60607SOL    HW283661   6.779   7.878  14.247
60608SOL     OW83662  12.624   5.264   5.609
60608SOL    HW183663  12.718   5.253   5.590
60608SOL    HW283664  12.600   5.345   5.565
60609SOL     OW83665   6.815   4.728   8.121
60609SOL    HW183666   6.766   4.646   8.123
60609SOL    HW283667   6.770   4.781   8.056
60610SOL     OW83668   0.522   1.208   0.112
60610SOL    HW183669   0.615   1.231   0.108
60610SOL    HW283670   0.520   1.123   0.154
60611SOL     OW83671   7.392   7.561  13.598
60611SOL    HW183672   7.393   7.609  13.681
60611SOL    HW283673   7.301   7.536  13.585
60612SOL     OW83674   9.562  11.510   0.840
60612SOL    HW183675   9.621  11.436   0.855
60612SOL    HW283676   9.594  11.578   0.899
60613SOL     OW83677   2.128  12.295   5.539
60613SOL    HW183678   2.134  12.279   5.633
60613SOL    HW283679   2.131  12.391   5.531
60614SOL     OW83680  12.967  11.319   4.003
60614SOL    HW183681  12.966  11.360   3.917
60614SOL    HW283682  12.912  11.377   4.057
60615SOL     OW83683   4.349   3.312   5.672
60615SOL    HW183684   4.415   3.243   5.679
60615SOL    HW283685   4.265   3.266   5.678
60616SOL     OW83686  10.278  14.346  14.118
60616SOL    HW183687  10.240  14.425  14.156
60616SOL    HW283688  10.312  14.374  14.033
60617SOL     OW83689  10.109   6.224   3.095
60617SOL    HW183690  10.084   6.175   3.017
60617SOL    HW283691  10.129   6.156   3.160
60618SOL     OW83692   7.085   0.500  10.909
60618SOL    HW183693   7.016   0.562  10.931
60618SOL    HW283694   7.053   0.416  10.941
60619SOL     OW83695   0.065   4.268   9.597
60619SOL    HW183696   0.114   4.206   9.544
60619SOL    HW283697   0.091   4.247   9.687
60620SOL     OW83698  14.737  10.224   4.447
60620SOL    HW183699  14.774  10.152   4.498
60620SOL    HW283700  14.805  10.291   4.447
60621SOL     OW83701   3.317   8.541   3.333
60621SOL    HW183702   3.369   8.533   3.413
60621SOL    HW283703   3.373   8.590   3.273
60622SOL     OW83704   0.976  13.722  12.728
60622SOL    HW183705   0.898  13.707  12.781
60622SOL    HW283706   0.944  13.761  12.647
60623SOL     OW83707  11.216  11.500   1.186
60623SOL    HW183708  11.154  11.519   1.256
60623SOL    HW283709  11.282  11.444   1.227
60624SOL     OW83710   9.117   3.845   2.445
60624SOL    HW183711   9.081   3.766   2.486
60624SOL    HW283712   9.122   3.908   2.516
60625SOL     OW83713   7.760   4.095   6.965
60625SOL    HW183714   7.792   4.154   7.034
60625SOL    HW283715   7.786   4.137   6.883
60626SOL     OW83716   1.206  12.172   4.016
60626SOL    HW183717   1.260  12.144   4.090
60626SOL    HW283718   1.202  12.267   4.024
60627SOL     OW83719   7.938   2.681  12.649
60627SOL    HW183720   7.852   2.693  12.690
60627SOL    HW283721   7.969   2.597  12.683
60628SOL     OW83722   7.922   1.994  10.051
60628SOL    HW183723   7.928   2.038  10.136
60628SOL    HW283724   8.000   2.022  10.003
60629SOL     OW83725   2.947   3.100   4.586
60629SOL    HW183726   2.947   3.130   4.677
60629SOL    HW283727   2.899   3.017   4.588
60630SOL     OW83728   8.284   2.229  14.687
60630SOL    HW183729   8.351   2.294  14.664
60630SOL    HW283730   8.287   2.226  14.783
60631SOL     OW83731   5.504   6.819  13.181
60631SOL    HW183732   5.449   6.741  13.180
60631SOL    HW283733   5.494   6.856  13.092
60632SOL     OW83734   5.982   6.339  11.659
60632SOL    HW183735   5.953   6.430  11.663
60632SOL    HW283736   6.076   6.343  11.681
60633SOL     OW83737  14.079  11.437   5.504
60633SOL    HW183738  14.111  11.525   5.525
60633SOL    HW283739  14.151  11.397   5.455
60634SOL     OW83740   5.361  12.475   4.611
60634SOL    HW183741   5.275  12.445   4.640
60634SOL    HW283742   5.343  12.526   4.532
60635SOL     OW83743   4.724   4.106  13.595
60635SOL    HW183744   4.716   4.078  13.504
60635SOL    HW283745   4.702   4.199  13.594
60636SOL     OW83746  13.974   9.297   5.862
60636SOL    HW183747  13.991   9.293   5.768
60636SOL    HW283748  14.012   9.217   5.897
60637SOL     OW83749  12.563   5.055  12.006
60637SOL    HW183750  12.532   5.039  12.096
60637SOL    HW283751  12.493   5.021  11.950
60638SOL     OW83752   5.441   9.959   4.526
60638SOL    HW183753   5.462   9.872   4.493
60638SOL    HW283754   5.349   9.973   4.503
60639SOL     OW83755  11.686   5.652   6.710
60639SOL    HW183756  11.710   5.628   6.800
60639SOL    HW283757  11.722   5.582   6.656
60640SOL     OW83758   9.820   2.095   4.715
60640SOL    HW183759   9.849   2.180   4.682
60640SOL    HW283760   9.861   2.088   4.802
60641SOL     OW83761  10.896  11.541   0.658
60641SOL    HW183762  10.954  11.476   0.698
60641SOL    HW283763  10.809  11.501   0.662
60642SOL     OW83764  13.604  10.101   2.862
60642SOL    HW183765  13.651  10.144   2.934
60642SOL    HW283766  13.655  10.021   2.846
60643SOL     OW83767  13.032   0.217  13.871
60643SOL    HW183768  13.061   0.207  13.962
60643SOL    HW283769  13.089   0.158  13.821
60644SOL     OW83770  14.087  13.814   5.592
60644SOL    HW183771  14.142  13.878   5.546
60644SOL    HW283772  14.105  13.830   5.685
60645SOL     OW83773   5.058   3.304  10.344
60645SOL    HW183774   5.137   3.356  10.328
60645SOL    HW283775   5.069   3.227  10.288
60646SOL     OW83776   4.490  13.548  12.250
60646SOL    HW183777   4.524  13.498  12.176
60646SOL    HW283778   4.415  13.596  12.214
60647SOL     OW83779   5.813  13.615  14.128
60647SOL    HW183780   5.889  13.569  14.165
60647SOL    HW283781   5.760  13.545  14.090
60648SOL     OW83782  14.153   3.013   0.061
60648SOL    HW183783  14.160   2.930   0.106
60648SOL    HW283784  14.077   3.056   0.100
60649SOL     OW83785   2.675   9.255   5.724
60649SOL    HW183786   2.614   9.206   5.779
60649SOL    HW283787   2.717   9.187   5.670
60650SOL     OW83788  13.694  12.143   6.480
60650SOL    HW183789  13.700  12.219   6.422
60650SOL    HW283790  13.605  12.110   6.468
60651SOL     OW83791  13.818   6.880   7.968
60651SOL    HW183792  13.825   6.850   7.877
60651SOL    HW283793  13.725   6.877   7.988
60652SOL     OW83794   6.306  10.245   9.036
60652SOL    HW183795   6.380  10.298   9.008
60652SOL    HW283796   6.307  10.169   8.977
60653SOL     OW83797   7.830  12.241  14.244
60653SOL    HW183798   7.905  12.211  14.296
60653SOL    HW283799   7.810  12.328  14.279
60654SOL     OW83800  10.693  11.478   0.997
60654SOL    HW183801  10.729  11.564   0.975
60654SOL    HW283802  10.626  11.496   1.064
60655SOL     OW83803  12.140   8.722   1.138
60655SOL    HW183804  12.212   8.745   1.197
60655SOL    HW283805  12.061   8.753   1.183
60656SOL     OW83806   0.735  12.132  14.403
60656SOL    HW183807   0.732  12.182  14.321
60656SOL    HW283808   0.761  12.196  14.469
60657SOL     OW83809  14.429  10.675   8.503
60657SOL    HW183810  14.475  10.645   8.581
60657SOL    HW283811  14.439  10.770   8.504
60658SOL     OW83812  11.301   2.233   0.060
60658SOL    HW183813  11.333   2.323   0.065
60658SOL    HW283814  11.380   2.180   0.067
60659SOL     OW83815   9.140   4.150  10.725
60659SOL    HW183816   9.112   4.222  10.669
60659SOL    HW283817   9.226   4.176  10.758
60660SOL     OW83818   7.174   5.539   0.389
60660SOL    HW183819   7.197   5.547   0.297
60660SOL    HW283820   7.257   5.544   0.436
60661SOL     OW83821   1.068   9.178   3.657
60661SOL    HW183822   0.996   9.239   3.671
60661SOL    HW283823   1.093   9.191   3.565
60662SOL     OW83824   3.197   6.425   8.055
60662SOL    HW183825   3.159   6.507   8.087
60662SOL    HW283826   3.154   6.410   7.971
60663SOL     OW83827   2.479  12.419   9.308
60663SOL    HW183828   2.458  12.397   9.399
60663SOL    HW283829   2.420  12.365   9.257
60664SOL     OW83830   7.417  13.531   4.108
60664SOL    HW183831   7.324  13.533   4.134
60664SOL    HW283832   7.457  13.472   4.172
60665SOL     OW83833   6.945  13.494   4.831
60665SOL    HW183834   6.917  13.413   4.874
60665SOL    HW283835   7.032  13.474   4.796
60666SOL     OW83836  14.705   8.878   2.890
60666SOL    HW183837  14.732   8.830   2.968
60666SOL    HW283838  14.651   8.817   2.841
60667SOL     OW83839   0.588   2.389  11.230
60667SOL    HW183840   0.628   2.406  11.144
60667SOL    HW283841   0.526   2.461  11.243
60668SOL     OW83842   8.803  11.281   1.007
60668SOL    HW183843   8.775  11.332   0.930
60668SOL    HW283844   8.784  11.339   1.081
60669SOL     OW83845  10.523  11.980   6.828
60669SOL    HW183846  10.525  11.915   6.899
60669SOL    HW283847  10.591  11.951   6.768
60670SOL     OW83848   9.297   7.243   2.093
60670SOL    HW183849   9.373   7.244   2.035
60670SOL    HW283850   9.227   7.284   2.043
60671SOL     OW83851   7.934   1.433   7.250
60671SOL    HW183852   8.009   1.483   7.284
60671SOL    HW283853   7.960   1.341   7.261
60672SOL     OW83854   0.738   5.932   6.871
60672SOL    HW183855   0.654   5.904   6.907
60672SOL    HW283856   0.780   5.851   6.843
60673SOL     OW83857   1.422   1.605   6.450
60673SOL    HW183858   1.363   1.529   6.440
60673SOL    HW283859   1.510   1.568   6.445
60674SOL     OW83860  13.437   1.242  10.802
60674SOL    HW183861  13.419   1.193  10.882
60674SOL    HW283862  13.435   1.176  10.732
60675SOL     OW83863   8.316   7.445   3.356
60675SOL    HW183864   8.397   7.454   3.307
60675SOL    HW283865   8.251   7.493   3.305
60676SOL     OW83866   3.528   8.824   2.781
60676SOL    HW183867   3.451   8.786   2.823
60676SOL    HW283868   3.499   8.847   2.693
60677SOL     OW83869   0.278   4.451  14.587
60677SOL    HW183870   0.267   4.503  14.507
60677SOL    HW283871   0.245   4.509  14.657
60678SOL     OW83872  10.290   4.458  14.534
60678SOL    HW183873  10.269   4.510  14.612
60678SOL    HW283874  10.367   4.501  14.497
60679SOL     OW83875   1.388   4.409   5.493
60679SOL    HW183876   1.353   4.433   5.579
60679SOL    HW283877   1.396   4.492   5.446
60680SOL     OW83878   9.985   4.071   9.393
60680SOL    HW183879  10.044   4.104   9.460
60680SOL    HW283880   9.908   4.128   9.399
60681SOL     OW83881   0.904   6.157  13.900
60681SOL    HW183882   0.927   6.077  13.853
60681SOL    HW283883   0.893   6.128  13.991
60682SOL     OW83884   5.567  10.165   4.630
60682SOL    HW183885   5.628  10.182   4.558
60682SOL    HW283886   5.531  10.079   4.610
60683SOL     OW83887   2.627   7.390   6.240
60683SOL    HW183888   2.545   7.385   6.289
60683SOL    HW283889   2.690   7.427   6.302
60684SOL     OW83890  13.383  11.619   6.132
60684SOL    HW183891  13.292  11.645   6.124
60684SOL    HW283892  13.426  11.657   6.056
60685SOL     OW83893   6.891   1.136  13.950
60685SOL    HW183894   6.855   1.216  13.988
60685SOL    HW283895   6.964   1.165  13.895
60686SOL     OW83896  12.115   9.175   3.642
60686SOL    HW183897  12.124   9.090   3.685
60686SOL    HW283898  12.034   9.211   3.678
60687SOL     OW83899  13.590   8.596   7.879
60687SOL    HW183900  13.513   8.538   7.883
60687SOL    HW283901  13.580   8.642   7.795
60688SOL     OW83902   1.785   2.570  13.632
60688SOL    HW183903   1.778   2.572  13.727
60688SOL    HW283904   1.697   2.593  13.601
60689SOL     OW83905   9.335  10.747   1.692
60689SOL    HW183906   9.341  10.817   1.757
60689SOL    HW283907   9.242  10.744   1.668
60690SOL     OW83908  12.156   4.714   0.164
60690SOL    HW183909  12.091   4.697   0.232
60690SOL    HW283910  12.149   4.639   0.105
60691SOL     OW83911  12.035   8.233  11.818
60691SOL    HW183912  11.957   8.263  11.864
60691SOL    HW283913  12.015   8.246  11.725
60692SOL     OW83914   5.890   5.223   4.893
60692SOL    HW183915   5.960   5.180   4.943
60692SOL    HW283916   5.812   5.171   4.912
60693SOL     OW83917  10.314  12.217   3.828
60693SOL    HW183918  10.267  12.278   3.771
60693SOL    HW283919  10.367  12.165   3.768
60694SOL     OW83920   6.351   8.649   9.622
60694SOL    HW183921   6.342   8.564   9.666
60694SOL    HW283922   6.276   8.653   9.563
60695SOL     OW83923   4.247   0.855  13.442
60695SOL    HW183924   4.257   0.794  13.515
60695SOL    HW283925   4.336   0.871  13.412
60696SOL     OW83926  12.886   7.011  13.241
60696SOL    HW183927  12.846   6.970  13.317
60696SOL    HW283928  12.814   7.024  13.180
60697SOL     OW83929   5.113  14.105   8.584
60697SOL    HW183930   5.195  14.059   8.569
60697SOL    HW283931   5.139  14.195   8.606
60698SOL     OW83932  13.563   8.063   3.656
60698SOL    HW183933  13.571   7.977   3.615
60698SOL    HW283934  13.513   8.115   3.593
60699SOL     OW83935   2.605  13.624   0.855
60699SOL    HW183936   2.608  13.719   0.851
60699SOL    HW283937   2.696  13.596   0.845
60700SOL     OW83938   9.703  14.810   1.961
60700SOL    HW183939   9.737  14.848   2.041
60700SOL    HW283940   9.750  14.855   1.891
60701SOL     OW83941   5.455   7.062  10.980
60701SOL    HW183942   5.501   6.983  10.952
60701SOL    HW283943   5.513   7.103  11.044
60702SOL     OW83944   8.627   5.140   0.334
60702SOL    HW183945   8.595   5.229   0.347
60702SOL    HW283946   8.650   5.136   0.242
60703SOL     OW83947   2.748   3.994   3.404
60703SOL    HW183948   2.841   3.990   3.382
60703SOL    HW283949   2.745   3.995   3.500
60704SOL     OW83950   2.925   1.235   6.218
60704SOL    HW183951   3.006   1.278   6.246
60704SOL    HW283952   2.900   1.280   6.138
60705SOL     OW83953   9.024   1.998  11.119
60705SOL    HW183954   9.117   1.987  11.100
60705SOL    HW283955   9.015   1.971  11.210
60706SOL     OW83956   4.124   3.624   9.208
60706SOL    HW183957   4.193   3.558   9.196
60706SOL    HW283958   4.064   3.585   9.272
60707SOL     OW83959   2.235  12.956  14.115
60707SOL    HW183960   2.195  12.870  14.104
60707SOL    HW283961   2.193  12.993  14.193
60708SOL     OW83962  10.528   7.184   3.347
60708SOL    HW183963  10.513   7.091   3.330
60708SOL    HW283964  10.609   7.204   3.301
60709SOL     OW83965   7.020   4.141   0.943
60709SOL    HW183966   7.098   4.173   0.898
60709SOL    HW283967   6.951   4.203   0.919
60710SOL     OW83968  13.230   3.844   0.049
60710SOL    HW183969  13.136   3.845   0.067
60710SOL    HW283970  13.249   3.931   0.012
60711SOL     OW83971  14.255   0.554   8.152
60711SOL    HW183972  14.181   0.562   8.093
60711SOL    HW283973  14.281   0.645   8.170
60712SOL     OW83974  10.187  10.641  13.804
60712SOL    HW183975  10.158  10.635  13.713
60712SOL    HW283976  10.106  10.644  13.855
60713SOL     OW83977   4.895   5.497   1.947
60713SOL    HW183978   4.812   5.498   1.899
60713SOL    HW283979   4.957   5.539   1.887
60714SOL     OW83980  13.788   1.579   9.331
60714SOL    HW183981  13.871   1.581   9.284
60714SOL    HW283982  13.743   1.502   9.296
60715SOL     OW83983   1.686   6.543   1.594
60715SOL    HW183984   1.767   6.574   1.554
60715SOL    HW283985   1.659   6.470   1.540
60716SOL     OW83986   6.978  12.439   2.330
60716SOL    HW183987   6.993  12.430   2.424
60716SOL    HW283988   7.044  12.383   2.290
60717SOL     OW83989   2.237  10.657  11.394
60717SOL    HW183990   2.260  10.741  11.434
60717SOL    HW283991   2.321  10.620  11.367
60718SOL     OW83992  13.217   3.942   2.461
60718SOL    HW183993  13.205   3.849   2.482
60718SOL    HW283994  13.174   3.953   2.376
60719SOL     OW83995  13.390   0.559   1.661
60719SOL    HW183996  13.337   0.488   1.624
60719SOL    HW283997  13.398   0.622   1.590
60720SOL     OW83998  13.754  12.157  13.819
60720SOL    HW183999  13.780  12.238  13.863
60720SOL    HW284000  13.802  12.088  13.865
60721SOL     OW84001   2.763   2.280  12.131
60721SOL    HW184002   2.735   2.368  12.109
60721SOL    HW284003   2.807   2.248  12.052
60722SOL     OW84004  14.766   9.487   4.032
60722SOL    HW184005  14.835   9.531   4.082
60722SOL    HW284006  14.691   9.547   4.038
60723SOL     OW84007   1.260   5.345   4.560
60723SOL    HW184008   1.318   5.392   4.620
60723SOL    HW284009   1.284   5.376   4.473
60724SOL     OW84010   6.796   4.502   6.134
60724SOL    HW184011   6.802   4.435   6.202
60724SOL    HW284012   6.839   4.464   6.058
60725SOL     OW84013   8.322  10.616   4.843
60725SOL    HW184014   8.358  10.640   4.928
60725SOL    HW284015   8.229  10.637   4.850
60726SOL     OW84016  13.181   4.999   7.034
60726SOL    HW184017  13.121   4.971   7.104
60726SOL    HW284018  13.199   4.919   6.985
60727SOL     OW84019   8.379   6.982   3.712
60727SOL    HW184020   8.284   6.983   3.711
60727SOL    HW284021   8.402   6.891   3.731
60728SOL     OW84022   7.847   6.499   8.712
60728SOL    HW184023   7.832   6.591   8.690
60728SOL    HW284024   7.770   6.473   8.762
60729SOL     OW84025  11.819   2.292  10.517
60729SOL    HW184026  11.764   2.307  10.593
60729SOL    HW284027  11.838   2.379  10.483
60730SOL     OW84028  12.525  11.810  11.182
60730SOL    HW184029  12.534  11.854  11.098
60730SOL    HW284030  12.540  11.717  11.163
60731SOL     OW84031  11.830   4.661  11.321
60731SOL    HW184032  11.822   4.665  11.416
60731SOL    HW284033  11.803   4.748  11.291
60732SOL     OW84034  13.604  10.432  14.400
60732SOL    HW184035  13.688  10.411  14.441
60732SOL    HW284036  13.539  10.405  14.464
60733SOL     OW84037   2.181   5.287   4.526
60733SOL    HW184038   2.251   5.350   4.513
60733SOL    HW284039   2.200   5.216   4.464
60734SOL     OW84040   9.872   7.892   2.771
60734SOL    HW184041   9.937   7.958   2.747
60734SOL    HW284042   9.790   7.926   2.738
60735SOL     OW84043  10.231  11.541   3.067
60735SOL    HW184044  10.183  11.460   3.086
60735SOL    HW284045  10.183  11.609   3.114
60736SOL     OW84046  13.782   5.537   0.640
60736SOL    HW184047  13.872   5.568   0.644
60736SOL    HW284048  13.783   5.472   0.569
60737SOL     OW84049   5.142   3.556  14.461
60737SOL    HW184050   5.229   3.595  14.452
60737SOL    HW284051   5.129   3.507  14.380
60738SOL     OW84052   4.785   1.747  11.895
60738SOL    HW184053   4.744   1.696  11.825
60738SOL    HW284054   4.718   1.809  11.922
60739SOL     OW84055   9.578  12.923   8.931
60739SOL    HW184056   9.498  12.945   8.977
60739SOL    HW284057   9.630  13.004   8.933
60740SOL     OW84058   1.680  10.192   7.305
60740SOL    HW184059   1.721  10.151   7.381
60740SOL    HW284060   1.752  10.206   7.244
60741SOL     OW84061   4.099   6.330  11.364
60741SOL    HW184062   4.166   6.347  11.431
60741SOL    HW284063   4.037   6.272  11.408
60742SOL     OW84064   0.117  13.885   2.450
60742SOL    HW184065   0.168  13.966   2.453
60742SOL    HW284066   0.118  13.859   2.358
60743SOL     OW84067   8.025  13.862   4.609
60743SOL    HW184068   8.072  13.838   4.688
60743SOL    HW284069   8.080  13.831   4.537
60744SOL     OW84070  10.689   5.223   0.802
60744SOL    HW184071  10.743   5.248   0.877
60744SOL    HW284072  10.742   5.161   0.753
60745SOL     OW84073   9.724   7.657   9.942
60745SOL    HW184074   9.764   7.677  10.027
60745SOL    HW284075   9.656   7.724   9.932
60746SOL     OW84076   8.861   1.627  11.286
60746SOL    HW184077   8.772   1.607  11.257
60746SOL    HW284078   8.916   1.565  11.238
60747SOL     OW84079   7.812  14.603  10.999
60747SOL    HW184080   7.769  14.574  11.080
60747SOL    HW284081   7.817  14.698  11.007
60748SOL     OW84082  12.498   7.443   4.488
60748SOL    HW184083  12.405   7.424   4.477
60748SOL    HW284084  12.542   7.385   4.425
60749SOL     OW84085  13.032   3.954   9.164
60749SOL    HW184086  13.032   3.878   9.106
60749SOL    HW284087  13.045   4.029   9.106
60750SOL     OW84088   7.678   4.278   2.822
60750SOL    HW184089   7.637   4.193   2.838
60750SOL    HW284090   7.720   4.300   2.906
60751SOL     OW84091   8.939   0.613  14.658
60751SOL    HW184092   8.866   0.629  14.598
60751SOL    HW284093   8.953   0.697  14.702
60752SOL     OW84094   5.453  10.747   4.933
60752SOL    HW184095   5.368  10.791   4.928
60752SOL    HW284096   5.447  10.691   5.010
60753SOL     OW84097   0.804   9.276   6.693
60753SOL    HW184098   0.867   9.299   6.761
60753SOL    HW284099   0.835   9.191   6.660
60754SOL     OW84100   6.911   8.659   7.924
60754SOL    HW184101   6.961   8.588   7.963
60754SOL    HW284102   6.976   8.725   7.901
60755SOL     OW84103   3.974   0.946   1.627
60755SOL    HW184104   3.937   0.878   1.571
60755SOL    HW284105   4.025   1.001   1.568
60756SOL     OW84106  10.573   2.718   6.963
60756SOL    HW184107  10.618   2.800   6.982
60756SOL    HW284108  10.480   2.740   6.965
60757SOL     OW84109  13.853   6.495  11.324
60757SOL    HW184110  13.804   6.491  11.406
60757SOL    HW284111  13.787   6.512  11.257
60758SOL     OW84112   5.198  10.896  12.883
60758SOL    HW184113   5.142  10.885  12.960
60758SOL    HW284114   5.138  10.896  12.809
60759SOL     OW84115   5.883   9.358   7.984
60759SOL    HW184116   5.861   9.363   8.077
60759SOL    HW284117   5.804   9.323   7.943
60760SOL     OW84118   1.385   5.332   6.004
60760SOL    HW184119   1.358   5.347   5.913
60760SOL    HW284120   1.359   5.242   6.022
60761SOL     OW84121   1.717  13.105  10.448
60761SOL    HW184122   1.738  13.012  10.463
60761SOL    HW284123   1.799  13.151  10.467
60762SOL     OW84124   7.887   9.015   0.346
60762SOL    HW184125   7.886   8.993   0.253
60762SOL    HW284126   7.949   8.953   0.385
60763SOL     OW84127   9.754   5.694   8.498
60763SOL    HW184128   9.704   5.752   8.555
60763SOL    HW284129   9.825   5.661   8.553
60764SOL     OW84130  12.854   8.728  13.785
60764SOL    HW184131  12.838   8.821  13.768
60764SOL    HW284132  12.896   8.696  13.705
60765SOL     OW84133  13.442   6.268   6.674
60765SOL    HW184134  13.517   6.281   6.616
60765SOL    HW284135  13.386   6.207   6.628
60766SOL     OW84136   2.396   0.157   3.720
60766SOL    HW184137   2.417   0.162   3.627
60766SOL    HW284138   2.429   0.071   3.747
60767SOL     OW84139  13.441   1.740   1.176
60767SOL    HW184140  13.371   1.753   1.112
60767SOL    HW284141  13.457   1.646   1.175
60768SOL     OW84142   0.730  10.889   6.345
60768SOL    HW184143   0.812  10.840   6.342
60768SOL    HW284144   0.750  10.966   6.399
60769SOL     OW84145   5.773  10.520  14.755
60769SOL    HW184146   5.820  10.529  14.838
60769SOL    HW284147   5.835  10.551  14.689
60770SOL     OW84148   1.194   8.372  13.974
60770SOL    HW184149   1.186   8.278  13.986
60770SOL    HW284150   1.281   8.393  14.007
60771SOL     OW84151  14.272   1.400   8.859
60771SOL    HW184152  14.210   1.389   8.787
60771SOL    HW284153  14.297   1.492   8.856
60772SOL     OW84154   4.776   5.456   0.155
60772SOL    HW184155   4.735   5.411   0.229
60772SOL    HW284156   4.702   5.486   0.102
60773SOL     OW84157  11.790   8.836   1.769
60773SOL    HW184158  11.726   8.907   1.768
60773SOL    HW284159  11.873   8.878   1.745
60774SOL     OW84160  14.197   7.416   5.648
60774SOL    HW184161  14.188   7.505   5.681
60774SOL    HW284162  14.127   7.367   5.690
60775SOL     OW84163   7.371  14.340  14.369
60775SOL    HW184164   7.344  14.431  14.362
60775SOL    HW284165   7.452  14.335  14.318
60776SOL     OW84166   6.667  11.390  14.177
60776SOL    HW184167   6.753  11.397  14.219
60776SOL    HW284168   6.684  11.347  14.093
60777SOL     OW84169   5.238   5.686  10.431
60777SOL    HW184170   5.330   5.708  10.418
60777SOL    HW284171   5.203   5.672  10.343
60778SOL     OW84172   7.045   7.177  12.567
60778SOL    HW184173   7.050   7.129  12.649
60778SOL    HW284174   6.951   7.179  12.547
60779SOL     OW84175   3.597   8.851  11.165
60779SOL    HW184176   3.573   8.888  11.250
60779SOL    HW284177   3.520   8.864  11.110
60780SOL     OW84178   4.631   4.582  12.904
60780SOL    HW184179   4.655   4.531  12.981
60780SOL    HW284180   4.548   4.624  12.929
60781SOL     OW84181  13.648   8.986   6.385
60781SOL    HW184182  13.567   9.024   6.349
60781SOL    HW284183  13.635   8.988   6.479
60782SOL     OW84184   0.598   9.396   6.146
60782SOL    HW184185   0.535   9.428   6.210
60782SOL    HW284186   0.609   9.470   6.086
60783SOL     OW84187   9.760   3.542   7.606
60783SOL    HW184188   9.734   3.631   7.582
60783SOL    HW284189   9.771   3.545   7.701
60784SOL     OW84190   7.409  11.698   1.546
60784SOL    HW184191   7.384  11.645   1.622
60784SOL    HW284192   7.352  11.666   1.476
60785SOL     OW84193  11.483   9.265   4.896
60785SOL    HW184194  11.419   9.273   4.967
60785SOL    HW284195  11.430   9.250   4.817
60786SOL     OW84196  11.939   1.476  11.635
60786SOL    HW184197  11.850   1.504  11.615
60786SOL    HW284198  11.955   1.509  11.724
60787SOL     OW84199  11.763   7.928   4.691
60787SOL    HW184200  11.792   7.848   4.646
60787SOL    HW284201  11.740   7.898   4.780
60788SOL     OW84202   2.585   1.775  13.839
60788SOL    HW184203   2.619   1.709  13.899
60788SOL    HW284204   2.490   1.765  13.844
60789SOL     OW84205   7.501   9.191  12.892
60789SOL    HW184206   7.585   9.211  12.933
60789SOL    HW284207   7.449   9.150  12.962
60790SOL     OW84208   0.320   5.670  13.034
60790SOL    HW184209   0.379   5.680  12.959
60790SOL    HW284210   0.254   5.739  13.022
60791SOL     OW84211   2.540  13.350  14.665
60791SOL    HW184212   2.501  13.347  14.577
60791SOL    HW284213   2.615  13.291  14.659
60792SOL     OW84214   6.289  10.948   9.326
60792SOL    HW184215   6.369  10.997   9.310
60792SOL    HW284216   6.218  11.009   9.303
60793SOL     OW84217   3.768   7.918   7.863
60793SOL    HW184218   3.743   7.831   7.831
60793SOL    HW284219   3.757   7.913   7.958
60794SOL     OW84220   5.210   9.486   3.999
60794SOL    HW184221   5.173   9.427   3.933
60794SOL    HW284222   5.205   9.436   4.081
60795SOL     OW84223  11.244  11.133   6.092
60795SOL    HW184224  11.274  11.193   6.160
60795SOL    HW284225  11.175  11.081   6.133
60796SOL     OW84226  14.488  10.773  11.784
60796SOL    HW184227  14.402  10.776  11.742
60796SOL    HW284228  14.495  10.855  11.832
60797SOL     OW84229  10.690  10.517  14.379
60797SOL    HW184230  10.719  10.474  14.298
60797SOL    HW284231  10.753  10.588  14.391
60798SOL     OW84232  14.293   9.786  10.612
60798SOL    HW184233  14.297   9.876  10.582
60798SOL    HW284234  14.355   9.739  10.555
60799SOL     OW84235   6.510  11.596  13.100
60799SOL    HW184236   6.590  11.597  13.153
60799SOL    HW284237   6.458  11.525  13.136
60800SOL     OW84238   8.710  11.556  13.702
60800SOL    HW184239   8.624  11.531  13.735
60800SOL    HW284240   8.694  11.589  13.614
60801SOL     OW84241   6.488  14.560   0.843
60801SOL    HW184242   6.557  14.615   0.881
60801SOL    HW284243   6.516  14.543   0.754
60802SOL     OW84244   1.265  10.319   2.713
60802SOL    HW184245   1.270  10.226   2.693
60802SOL    HW284246   1.310  10.328   2.797
60803SOL     OW84247  13.294   1.276   0.259
60803SOL    HW184248  13.256   1.195   0.225
60803SOL    HW284249  13.386   1.255   0.273
60804SOL     OW84250   8.579   1.874  12.437
60804SOL    HW184251   8.647   1.926  12.395
60804SOL    HW284252   8.615   1.786  12.441
60805SOL     OW84253   7.350  11.216   2.477
60805SOL    HW184254   7.345  11.263   2.394
60805SOL    HW284255   7.441  11.188   2.483
60806SOL     OW84256   7.096   4.758   9.561
60806SOL    HW184257   7.063   4.704   9.489
60806SOL    HW284258   7.085   4.848   9.531
60807SOL     OW84259   1.775  13.976  13.048
60807SOL    HW184260   1.728  13.892  13.040
60807SOL    HW284261   1.760  14.020  12.965
60808SOL     OW84262   0.140   5.460  12.932
60808SOL    HW184263   0.172   5.548  12.955
60808SOL    HW284264   0.095   5.429  13.010
60809SOL     OW84265  13.124  11.079  11.442
60809SOL    HW184266  13.168  10.998  11.415
60809SOL    HW284267  13.042  11.080  11.392
60810SOL     OW84268   3.600  10.867   9.247
60810SOL    HW184269   3.638  10.864   9.334
60810SOL    HW284270   3.612  10.957   9.218
60811SOL     OW84271   7.044  13.806  14.734
60811SOL    HW184272   7.010  13.826  14.821
60811SOL    HW284273   7.020  13.715  14.719
60812SOL     OW84274   5.470   9.434  12.994
60812SOL    HW184275   5.419   9.507  13.030
60812SOL    HW284276   5.553   9.438  13.042
60813SOL     OW84277  13.121   4.755   9.958
60813SOL    HW184278  13.182   4.822   9.927
60813SOL    HW284279  13.174   4.697  10.012
60814SOL     OW84280  14.777   8.778   5.051
60814SOL    HW184281  14.732   8.785   4.966
60814SOL    HW284282  14.717   8.727   5.105
60815SOL     OW84283   3.134  13.492   8.585
60815SOL    HW184284   3.150  13.453   8.672
60815SOL    HW284285   3.216  13.536   8.564
60816SOL     OW84286   7.882  12.742  11.496
60816SOL    HW184287   7.818  12.771  11.561
60816SOL    HW284288   7.967  12.752  11.540
60817SOL     OW84289  12.734   2.432  11.993
60817SOL    HW184290  12.785   2.453  12.071
60817SOL    HW284291  12.677   2.508  11.981
60818SOL     OW84292  11.758  14.730   0.154
60818SOL    HW184293  11.762  14.643   0.114
60818SOL    HW284294  11.799  14.718   0.240
60819SOL     OW84295  14.726   0.456   4.830
60819SOL    HW184296  14.776   0.480   4.752
60819SOL    HW284297  14.650   0.513   4.828
60820SOL     OW84298   4.949  12.337   6.398
60820SOL    HW184299   5.042  12.320   6.388
60820SOL    HW284300   4.921  12.276   6.467
60821SOL     OW84301  14.072  14.020  14.552
60821SOL    HW184302  14.153  14.038  14.504
60821SOL    HW284303  14.017  13.972  14.490
60822SOL     OW84304   1.701  13.667   3.626
60822SOL    HW184305   1.611  13.635   3.616
60822SOL    HW284306   1.714  13.726   3.552
60823SOL     OW84307  11.501  10.863  11.664
60823SOL    HW184308  11.566  10.896  11.727
60823SOL    HW284309  11.417  10.876  11.708
60824SOL     OW84310   2.822   0.595   3.514
60824SOL    HW184311   2.857   0.512   3.481
60824SOL    HW284312   2.884   0.661   3.485
60825SOL     OW84313  12.394  12.193  13.275
60825SOL    HW184314  12.323  12.134  13.299
60825SOL    HW284315  12.357  12.280  13.284
60826SOL     OW84316  11.315   8.739  14.109
60826SOL    HW184317  11.381   8.784  14.162
60826SOL    HW284318  11.273   8.808  14.058
60827SOL     OW84319   6.993  14.360   8.363
60827SOL    HW184320   7.062  14.425   8.349
60827SOL    HW284321   7.032  14.277   8.339
60828SOL     OW84322   0.880   7.500   5.679
60828SOL    HW184323   0.890   7.406   5.696
60828SOL    HW284324   0.947   7.541   5.735
60829SOL     OW84325   9.688   0.207  13.906
60829SOL    HW184326   9.736   0.151  13.846
60829SOL    HW284327   9.606   0.160  13.924
60830SOL     OW84328   2.511   7.136   8.643
60830SOL    HW184329   2.429   7.170   8.607
60830SOL    HW284330   2.517   7.047   8.608
60831SOL     OW84331   7.165  13.299  14.838
60831SOL    HW184332   7.104  13.369  14.862
60831SOL    HW284333   7.126  13.219  14.875
60832SOL     OW84334   8.675  14.712  10.709
60832SOL    HW184335   8.651  14.623  10.734
60832SOL    HW284336   8.757  14.703  10.661
60833SOL     OW84337  13.197   9.415   3.005
60833SOL    HW184338  13.194   9.319   3.008
60833SOL    HW284339  13.110   9.441   2.974
60834SOL     OW84340   4.440   7.305  14.602
60834SOL    HW184341   4.503   7.354  14.548
60834SOL    HW284342   4.493   7.240  14.648
60835SOL     OW84343   8.645   5.366   3.245
60835SOL    HW184344   8.561   5.403   3.273
60835SOL    HW284345   8.680   5.431   3.183
60836SOL     OW84346   0.582   6.995  14.325
60836SOL    HW184347   0.663   6.945  14.325
60836SOL    HW284348   0.578   7.033  14.237
60837SOL     OW84349   8.257   6.791   7.484
60837SOL    HW184350   8.171   6.752   7.496
60837SOL    HW284351   8.245   6.883   7.510
60838SOL     OW84352  13.874  11.715   3.049
60838SOL    HW184353  13.853  11.798   3.006
60838SOL    HW284354  13.922  11.665   2.983
60839SOL     OW84355   6.002   2.309   6.568
60839SOL    HW184356   6.008   2.340   6.658
60839SOL    HW284357   5.918   2.263   6.565
60840SOL     OW84358   2.741   5.971   9.365
60840SOL    HW184359   2.774   5.994   9.279
60840SOL    HW284360   2.747   5.875   9.368
60841SOL     OW84361   7.473  12.791  10.383
60841SOL    HW184362   7.449  12.801  10.475
60841SOL    HW284363   7.410  12.726  10.349
60842SOL     OW84364   0.263   6.872   7.865
60842SOL    HW184365   0.204   6.935   7.824
60842SOL    HW284366   0.280   6.909   7.952
60843SOL     OW84367   2.860   9.786  14.493
60843SOL    HW184368   2.896   9.806  14.580
60843SOL    HW284369   2.784   9.845  14.485
60844SOL     OW84370   6.652  14.824  13.735
60844SOL    HW184371   6.685  14.844  13.647
60844SOL    HW284372   6.589  14.753  13.721
60845SOL     OW84373  12.984   5.314   0.401
60845SOL    HW184374  12.914   5.357   0.450
60845SOL    HW284375  13.054   5.380   0.395
60846SOL     OW84376   6.109   3.641  14.794
60846SOL    HW184377   6.014   3.645  14.796
60846SOL    HW284378   6.138   3.728  14.821
60847SOL     OW84379   1.907   5.844   3.803
60847SOL    HW184380   1.905   5.748   3.797
60847SOL    HW284381   1.823   5.872   3.767
60848SOL     OW84382   4.366  12.328   0.001
60848SOL    HW184383   4.366  12.421   0.023
60848SOL    HW284384   4.278  12.298   0.025
60849SOL     OW84385   2.090  12.524   7.664
60849SOL    HW184386   2.118  12.524   7.756
60849SOL    HW284387   2.043  12.607   7.654
60850SOL     OW84388  12.560   6.086  14.254
60850SOL    HW184389  12.596   6.171  14.281
60850SOL    HW284390  12.612   6.022  14.302
60851SOL     OW84391  13.940   1.233  10.550
60851SOL    HW184392  13.971   1.158  10.498
60851SOL    HW284393  13.877   1.195  10.611
60852SOL     OW84394  12.284   8.081  10.852
60852SOL    HW184395  12.350   8.049  10.789
60852SOL    HW284396  12.201   8.049  10.817
60853SOL     OW84397   2.329   0.258  10.927
60853SOL    HW184398   2.418   0.270  10.960
60853SOL    HW284399   2.287   0.343  10.940
60854SOL     OW84400   6.518   3.373   0.060
60854SOL    HW184401   6.486   3.286   0.036
60854SOL    HW284402   6.439   3.428   0.060
60855SOL     OW84403   9.509  13.623  13.397
60855SOL    HW184404   9.431  13.637  13.343
60855SOL    HW284405   9.574  13.683  13.361
60856SOL     OW84406  12.389   5.349  12.656
60856SOL    HW184407  12.305   5.374  12.618
60856SOL    HW284408  12.455   5.387  12.598
60857SOL     OW84409   1.242  13.521  11.181
60857SOL    HW184410   1.234  13.574  11.102
60857SOL    HW284411   1.180  13.450  11.170
60858SOL     OW84412  13.298  12.049   1.990
60858SOL    HW184413  13.226  12.097   2.030
60858SOL    HW284414  13.370  12.112   1.988
60859SOL     OW84415   9.400   8.438  14.760
60859SOL    HW184416   9.494   8.454  14.756
60859SOL    HW284417   9.370   8.492  14.834
60860SOL     OW84418  13.052  10.126   3.871
60860SOL    HW184419  13.073  10.208   3.916
60860SOL    HW284420  12.979  10.090   3.922
60861SOL     OW84421   5.572  10.853   8.079
60861SOL    HW184422   5.549  10.841   7.986
60861SOL    HW284423   5.659  10.813   8.087
60862SOL     OW84424   6.986   7.267   4.801
60862SOL    HW184425   6.928   7.313   4.863
60862SOL    HW284426   7.067   7.253   4.850
60863SOL     OW84427   3.126   6.242   8.425
60863SOL    HW184428   3.123   6.336   8.445
60863SOL    HW284429   3.208   6.230   8.378
60864SOL     OW84430   6.961   3.445   1.501
60864SOL    HW184431   6.869   3.452   1.525
60864SOL    HW284432   6.987   3.357   1.530
60865SOL     OW84433   3.725  10.360   4.937
60865SOL    HW184434   3.772  10.278   4.925
60865SOL    HW284435   3.692  10.382   4.850
60866SOL     OW84436   1.871  11.723  12.670
60866SOL    HW184437   1.955  11.735  12.714
60866SOL    HW284438   1.817  11.677  12.733
60867SOL     OW84439   7.086   6.958  11.244
60867SOL    HW184440   6.995   6.980  11.261
60867SOL    HW284441   7.133   6.990  11.322
60868SOL     OW84442   5.827   4.688   2.971
60868SOL    HW184443   5.921   4.707   2.976
60868SOL    HW284444   5.785   4.763   3.013
60869SOL     OW84445   5.221  14.760  14.826
60869SOL    HW184446   5.213  14.840  14.879
60869SOL    HW284447   5.166  14.777  14.750
60870SOL     OW84448   1.876   6.000  10.836
60870SOL    HW184449   1.845   6.090  10.848
60870SOL    HW284450   1.849   5.977  10.747
60871SOL     OW84451   0.206  11.168   3.171
60871SOL    HW184452   0.145  11.135   3.106
60871SOL    HW284453   0.181  11.260   3.184
60872SOL     OW84454   6.841   7.949   9.501
60872SOL    HW184455   6.786   8.019   9.466
60872SOL    HW284456   6.863   7.895   9.425
60873SOL     OW84457   3.418  11.061   8.144
60873SOL    HW184458   3.328  11.038   8.166
60873SOL    HW284459   3.457  10.979   8.113
60874SOL     OW84460   3.883   7.083  12.287
60874SOL    HW184461   3.906   7.049  12.200
60874SOL    HW284462   3.963   7.072  12.339
60875SOL     OW84463   4.352  11.391   3.962
60875SOL    HW184464   4.302  11.318   4.000
60875SOL    HW284465   4.331  11.466   4.019
60876SOL     OW84466  13.645   2.088  14.576
60876SOL    HW184467  13.597   2.037  14.511
60876SOL    HW284468  13.732   2.100  14.538
60877SOL     OW84469   4.478   6.185  14.472
60877SOL    HW184470   4.511   6.098  14.493
60877SOL    HW284471   4.389   6.170  14.440
60878SOL     OW84472   8.400   9.834   5.735
60878SOL    HW184473   8.412   9.924   5.706
60878SOL    HW284474   8.382   9.840   5.828
60879SOL     OW84475   2.432   9.371   2.294
60879SOL    HW184476   2.412   9.278   2.293
60879SOL    HW284477   2.525   9.376   2.316
60880SOL     OW84478   5.922  10.876   3.934
60880SOL    HW184479   5.986  10.812   3.906
60880SOL    HW284480   5.928  10.878   4.029
60881SOL     OW84481   8.729  12.269   4.305
60881SOL    HW184482   8.791  12.324   4.258
60881SOL    HW284483   8.733  12.300   4.395
60882SOL     OW84484  10.280   2.548  13.433
60882SOL    HW184485  10.322   2.489  13.495
60882SOL    HW284486  10.231   2.609  13.487
60883SOL     OW84487  13.721   2.748  13.806
60883SOL    HW184488  13.654   2.810  13.836
60883SOL    HW284489  13.703   2.737  13.712
60884SOL     OW84490   9.172   4.882   2.715
60884SOL    HW184491   9.235   4.951   2.736
60884SOL    HW284492   9.144   4.848   2.800
60885SOL     OW84493   5.643   4.155   3.334
60885SOL    HW184494   5.675   4.217   3.400
60885SOL    HW284495   5.594   4.090   3.384
60886SOL     OW84496   5.098  11.597  10.988
60886SOL    HW184497   5.015  11.552  10.975
60886SOL    HW284498   5.084  11.651  11.066
60887SOL     OW84499   0.800  12.907  13.177
60887SOL    HW184500   0.845  12.896  13.261
60887SOL    HW284501   0.863  12.955  13.123
60888SOL     OW84502   0.053   7.902   8.268
60888SOL    HW184503   0.137   7.885   8.310
60888SOL    HW284504   0.006   7.960   8.329
60889SOL     OW84505   3.412   0.733   1.841
60889SOL    HW184506   3.406   0.816   1.792
60889SOL    HW284507   3.323   0.718   1.873
60890SOL     OW84508  14.185  12.994   3.821
60890SOL    HW184509  14.259  13.052   3.804
60890SOL    HW284510  14.114  13.030   3.768
60891SOL     OW84511   4.956   7.994   3.142
60891SOL    HW184512   4.896   8.053   3.188
60891SOL    HW284513   4.974   7.925   3.206
60892SOL     OW84514  11.166   6.241   3.174
60892SOL    HW184515  11.132   6.306   3.112
60892SOL    HW284516  11.165   6.159   3.125
60893SOL     OW84517   0.016  13.308   8.279
60893SOL    HW184518   0.048  13.250   8.349
60893SOL    HW284519   0.034  13.396   8.312
60894SOL     OW84520  12.711  12.050  11.954
60894SOL    HW184521  12.703  11.956  11.972
60894SOL    HW284522  12.626  12.075  11.919
60895SOL     OW84523   8.296   3.202  13.181
60895SOL    HW184524   8.208   3.206  13.217
60895SOL    HW284525   8.351   3.179  13.256
60896SOL     OW84526   5.592  10.601   6.341
60896SOL    HW184527   5.645  10.595   6.421
60896SOL    HW284528   5.612  10.520   6.293
60897SOL     OW84529  13.566   8.773  11.187
60897SOL    HW184530  13.646   8.761  11.136
60897SOL    HW284531  13.520   8.843  11.143
60898SOL     OW84532   6.849   7.225  12.206
60898SOL    HW184533   6.903   7.197  12.132
60898SOL    HW284534   6.759   7.218  12.175
60899SOL     OW84535  14.673   5.982   0.402
60899SOL    HW184536  14.735   5.991   0.329
60899SOL    HW284537  14.588   5.975   0.360
60900SOL     OW84538   6.414  12.497   2.855
60900SOL    HW184539   6.411  12.405   2.832
60900SOL    HW284540   6.504  12.524   2.836
60901SOL     OW84541   1.804   6.311   7.227
60901SOL    HW184542   1.809   6.264   7.310
60901SOL    HW284543   1.875   6.274   7.174
60902SOL     OW84544   9.454   8.851   4.500
60902SOL    HW184545   9.360   8.831   4.495
60902SOL    HW284546   9.460   8.923   4.562
60903SOL     OW84547   1.364   4.716   2.419
60903SOL    HW184548   1.414   4.752   2.346
60903SOL    HW284549   1.328   4.634   2.387
60904SOL     OW84550   7.466   7.383   0.420
60904SOL    HW184551   7.493   7.369   0.329
60904SOL    HW284552   7.426   7.300   0.446
60905SOL     OW84553  13.984   1.755  14.131
60905SOL    HW184554  14.068   1.770  14.175
60905SOL    HW284555  13.954   1.843  14.106
60906SOL     OW84556   1.906   3.831  13.177
60906SOL    HW184557   1.947   3.755  13.218
60906SOL    HW284558   1.857   3.795  13.103
60907SOL     OW84559   1.686   3.205   9.635
60907SOL    HW184560   1.704   3.151   9.558
60907SOL    HW284561   1.661   3.143   9.703
60908SOL     OW84562  12.070   3.684  12.466
60908SOL    HW184563  12.003   3.622  12.438
60908SOL    HW284564  12.118   3.706  12.386
60909SOL     OW84565  12.288  10.970   3.909
60909SOL    HW184566  12.367  11.009   3.945
60909SOL    HW284567  12.258  10.910   3.978
60910SOL     OW84568   5.059   3.047   4.827
60910SOL    HW184569   5.076   3.101   4.750
60910SOL    HW284570   5.142   3.004   4.846
60911SOL     OW84571   6.166   3.378   9.710
60911SOL    HW184572   6.184   3.329   9.790
60911SOL    HW284573   6.093   3.331   9.669
60912SOL     OW84574  12.616  10.312   2.155
60912SOL    HW184575  12.553  10.384   2.154
60912SOL    HW284576  12.674  10.332   2.229
60913SOL     OW84577   3.046   2.223   1.968
60913SOL    HW184578   3.125   2.225   2.023
60913SOL    HW284579   3.027   2.129   1.958
60914SOL     OW84580   0.484   3.208   9.747
60914SOL    HW184581   0.530   3.229   9.665
60914SOL    HW284582   0.548   3.225   9.815
60915SOL     OW84583   5.181  13.396   2.004
60915SOL    HW184584   5.216  13.325   2.058
60915SOL    HW284585   5.191  13.474   2.057
60916SOL     OW84586  12.283   6.660   0.556
60916SOL    HW184587  12.354   6.676   0.494
60916SOL    HW284588  12.216   6.615   0.505
60917SOL     OW84589   3.185  12.651   0.481
60917SOL    HW184590   3.194  12.592   0.555
60917SOL    HW284591   3.232  12.608   0.410
60918SOL     OW84592  14.580   2.126   0.767
60918SOL    HW184593  14.521   2.103   0.838
60918SOL    HW284594  14.644   2.185   0.806
60919SOL     OW84595  12.454   9.648   0.101
60919SOL    HW184596  12.478   9.557   0.116
60919SOL    HW284597  12.364   9.645   0.069
60920SOL     OW84598   2.226  14.694   3.965
60920SOL    HW184599   2.157  14.705   4.032
60920SOL    HW284600   2.248  14.601   3.969
60921SOL     OW84601   6.315   9.516   5.156
60921SOL    HW184602   6.356   9.595   5.119
60921SOL    HW284603   6.256   9.550   5.223
60922SOL     OW84604   9.307   3.095   1.937
60922SOL    HW184605   9.246   3.167   1.955
60922SOL    HW284606   9.371   3.099   2.008
60923SOL     OW84607  10.187   9.136   2.489
60923SOL    HW184608  10.217   9.167   2.575
60923SOL    HW284609  10.266   9.108   2.444
60924SOL     OW84610   2.300   3.967   3.450
60924SOL    HW184611   2.210   3.941   3.430
60924SOL    HW284612   2.347   3.884   3.458
60925SOL     OW84613  10.945  10.592   8.453
60925SOL    HW184614  10.922  10.601   8.545
60925SOL    HW284615  11.004  10.516   8.450
60926SOL     OW84616   9.203   1.497   8.295
60926SOL    HW184617   9.271   1.433   8.316
60926SOL    HW284618   9.122   1.446   8.291
60927SOL     OW84619  12.596  10.384  11.165
60927SOL    HW184620  12.626  10.293  11.172
60927SOL    HW284621  12.587  10.413  11.256
60928SOL     OW84622   5.042   8.033   5.259
60928SOL    HW184623   5.075   8.038   5.348
60928SOL    HW284624   5.103   8.086   5.208
60929SOL     OW84625  13.237   4.096   6.450
60929SOL    HW184626  13.314   4.135   6.409
60929SOL    HW284627  13.202   4.037   6.384
60930SOL     OW84628   8.147   2.703  12.199
60930SOL    HW184629   8.073   2.763  12.204
60930SOL    HW284630   8.117   2.625  12.247
60931SOL     OW84631   3.745   2.106  13.137
60931SOL    HW184632   3.674   2.045  13.158
60931SOL    HW284633   3.716   2.189  13.174
60932SOL     OW84634  10.656   1.152  14.140
60932SOL    HW184635  10.598   1.124  14.211
60932SOL    HW284636  10.617   1.234  14.109
60933SOL     OW84637  13.585  14.286   0.308
60933SOL    HW184638  13.535  14.265   0.229
60933SOL    HW284639  13.673  14.307   0.277
60934SOL     OW84640   4.259   1.505   9.818
60934SOL    HW184641   4.249   1.464   9.733
60934SOL    HW284642   4.351   1.534   9.820
60935SOL     OW84643   3.056   5.759  14.821
60935SOL    HW184644   2.983   5.820  14.809
60935SOL    HW284645   3.079   5.767   0.033
60936SOL     OW84646  12.929   3.093  13.064
60936SOL    HW184647  12.988   3.071  13.137
60936SOL    HW284648  12.926   3.189  13.065
60937SOL     OW84649   1.755   4.463   9.586
60937SOL    HW184650   1.785   4.502   9.504
60937SOL    HW284651   1.670   4.425   9.565
60938SOL     OW84652  14.828   1.066  10.344
60938SOL    HW184653  14.816   1.031  10.256
60938SOL    HW284654  14.753   1.032  10.393
60939SOL     OW84655   0.396   3.770   6.299
60939SOL    HW184656   0.360   3.826   6.230
60939SOL    HW284657   0.474   3.731   6.260
60940SOL     OW84658   0.058  10.959   6.435
60940SOL    HW184659   0.005  11.016   6.491
60940SOL    HW284660   0.026  10.979   6.346
60941SOL     OW84661   4.305  13.277   7.771
60941SOL    HW184662   4.322  13.353   7.716
60941SOL    HW284663   4.242  13.225   7.720
60942SOL     OW84664   2.547  13.475   8.438
60942SOL    HW184665   2.591  13.516   8.513
60942SOL    HW284666   2.461  13.516   8.437
60943SOL     OW84667   6.568  12.612   7.936
60943SOL    HW184668   6.585  12.704   7.956
60943SOL    HW284669   6.596  12.602   7.845
60944SOL     OW84670   4.855  11.913  13.747
60944SOL    HW184671   4.799  11.849  13.703
60944SOL    HW284672   4.899  11.960  13.676
60945SOL     OW84673   6.181  12.820  14.532
60945SOL    HW184674   6.221  12.881  14.594
60945SOL    HW284675   6.237  12.825  14.454
60946SOL     OW84676   4.955   1.165   2.287
60946SOL    HW184677   4.890   1.227   2.319
60946SOL    HW284678   4.948   1.090   2.347
60947SOL     OW84679   1.201  12.432   4.051
60947SOL    HW184680   1.223  12.518   4.014
60947SOL    HW284681   1.219  12.442   4.144
60948SOL     OW84682  12.990   7.116   6.636
60948SOL    HW184683  12.934   7.176   6.685
60948SOL    HW284684  13.029   7.060   6.703
60949SOL     OW84685   1.950  13.184  13.778
60949SOL    HW184686   1.975  13.170  13.869
60949SOL    HW284687   2.019  13.239  13.742
60950SOL     OW84688   2.083  13.218   7.052
60950SOL    HW184689   2.155  13.278   7.037
60950SOL    HW284690   2.077  13.209   7.147
60951SOL     OW84691   8.682   7.732  12.448
60951SOL    HW184692   8.631   7.705  12.372
60951SOL    HW284693   8.642   7.686  12.522
60952SOL     OW84694  14.141  12.767   5.577
60952SOL    HW184695  14.196  12.842   5.600
60952SOL    HW284696  14.057  12.784   5.620
60953SOL     OW84697   9.059   1.065   6.370
60953SOL    HW184698   9.113   1.029   6.441
60953SOL    HW284699   9.009   1.136   6.410
60954SOL     OW84700   7.078   7.793  10.780
60954SOL    HW184701   7.037   7.719  10.735
60954SOL    HW284702   7.006   7.846  10.812
60955SOL     OW84703   5.608   8.873   0.782
60955SOL    HW184704   5.646   8.800   0.734
60955SOL    HW284705   5.516   8.850   0.792
60956SOL     OW84706   9.477   4.098   1.602
60956SOL    HW184707   9.446   4.115   1.691
60956SOL    HW284708   9.493   4.185   1.565
60957SOL     OW84709   2.701  11.065   6.298
60957SOL    HW184710   2.739  10.978   6.287
60957SOL    HW284711   2.652  11.059   6.380
60958SOL     OW84712  12.083   7.391   5.073
60958SOL    HW184713  12.160   7.360   5.025
60958SOL    HW284714  12.086   7.343   5.156
60959SOL     OW84715   5.316  11.301  12.811
60959SOL    HW184716   5.227  11.293  12.846
60959SOL    HW284717   5.359  11.363  12.870
60960SOL     OW84718   3.590  13.554  14.045
60960SOL    HW184719   3.652  13.501  13.994
60960SOL    HW284720   3.642  13.629  14.074
60961SOL     OW84721   6.831  12.755  13.743
60961SOL    HW184722   6.871  12.833  13.705
60961SOL    HW284723   6.882  12.737  13.821
60962SOL     OW84724   3.287   7.362  13.224
60962SOL    HW184725   3.337   7.395  13.299
60962SOL    HW284726   3.290   7.267  13.232
60963SOL     OW84727   7.509  10.083  11.299
60963SOL    HW184728   7.515  10.138  11.221
60963SOL    HW284729   7.596  10.043  11.307
60964SOL     OW84730  12.900  14.057   5.814
60964SOL    HW184731  12.975  14.049   5.754
60964SOL    HW284732  12.881  13.966   5.840
60965SOL     OW84733  10.193  10.930  14.602
60965SOL    HW184734  10.175  10.873  14.677
60965SOL    HW284735  10.139  10.895  14.531
60966SOL     OW84736   6.419   3.646  13.051
60966SOL    HW184737   6.373   3.662  13.133
60966SOL    HW284738   6.379   3.566  13.016
60967SOL     OW84739   9.124  14.189  11.552
60967SOL    HW184740   9.112  14.094  11.549
60967SOL    HW284741   9.064  14.223  11.485
60968SOL     OW84742   2.460   5.498   8.077
60968SOL    HW184743   2.495   5.436   8.013
60968SOL    HW284744   2.470   5.453   8.161
60969SOL     OW84745   3.934   9.970   8.382
60969SOL    HW184746   3.913  10.061   8.363
60969SOL    HW284747   3.849   9.928   8.394
60970SOL     OW84748   9.534  11.424   7.107
60970SOL    HW184749   9.599  11.385   7.049
60970SOL    HW284750   9.458  11.366   7.101
60971SOL     OW84751  10.563   7.707  11.479
60971SOL    HW184752  10.587   7.650  11.406
60971SOL    HW284753  10.507   7.774  11.440
60972SOL     OW84754   9.053  14.634   1.230
60972SOL    HW184755   9.066  14.636   1.135
60972SOL    HW284756   9.121  14.574   1.262
60973SOL     OW84757  13.035   8.269   3.159
60973SOL    HW184758  13.118   8.245   3.118
60973SOL    HW284759  13.015   8.355   3.123
60974SOL     OW84760   1.354   3.319   5.443
60974SOL    HW184761   1.271   3.343   5.482
60974SOL    HW284762   1.376   3.393   5.386
60975SOL     OW84763   5.880   5.817  12.127
60975SOL    HW184764   5.808   5.784  12.073
60975SOL    HW284765   5.844   5.894  12.171
60976SOL     OW84766   9.910  14.502   3.538
60976SOL    HW184767   9.868  14.494   3.624
60976SOL    HW284768   9.982  14.438   3.541
60977SOL     OW84769   1.884   4.931   9.856
60977SOL    HW184770   1.965   4.937   9.805
60977SOL    HW284771   1.853   5.022   9.863
60978SOL     OW84772   1.303  11.039   0.262
60978SOL    HW184773   1.291  10.955   0.307
60978SOL    HW284774   1.371  11.084   0.312
60979SOL     OW84775   9.013  11.284  12.241
60979SOL    HW184776   8.988  11.358  12.296
60979SOL    HW284777   9.008  11.318  12.152
60980SOL     OW84778  10.243  11.893   8.843
60980SOL    HW184779  10.287  11.964   8.796
60980SOL    HW284780  10.156  11.888   8.804
60981SOL     OW84781  13.611  10.911  10.786
60981SOL    HW184782  13.567  10.995  10.798
60981SOL    HW284783  13.566  10.872  10.711
60982SOL     OW84784  13.832  11.985  10.810
60982SOL    HW184785  13.755  12.042  10.816
60982SOL    HW284786  13.800  11.907  10.765
60983SOL     OW84787   3.004   5.582   2.393
60983SOL    HW184788   2.937   5.578   2.461
60983SOL    HW284789   3.070   5.518   2.421
60984SOL     OW84790   4.083   3.133   8.683
60984SOL    HW184791   3.993   3.164   8.676
60984SOL    HW284792   4.113   3.168   8.767
60985SOL     OW84793   4.650   5.148   6.255
60985SOL    HW184794   4.637   5.135   6.161
60985SOL    HW284795   4.683   5.064   6.286
60986SOL     OW84796   5.166  11.192   6.932
60986SOL    HW184797   5.239  11.152   6.979
60986SOL    HW284798   5.137  11.263   6.989
60987SOL     OW84799   3.243   5.085   7.937
60987SOL    HW184800   3.153   5.113   7.920
60987SOL    HW284801   3.246   5.068   8.031
60988SOL     OW84802   9.893   8.711   8.601
60988SOL    HW184803   9.801   8.734   8.590
60988SOL    HW284804   9.928   8.777   8.660
60989SOL     OW84805  11.212   8.469   6.384
60989SOL    HW184806  11.178   8.384   6.356
60989SOL    HW284807  11.142   8.507   6.435
60990SOL     OW84808   1.697   5.574   6.970
60990SOL    HW184809   1.734   5.662   6.978
60990SOL    HW284810   1.607   5.583   7.001
60991SOL     OW84811  13.063  11.000   4.912
60991SOL    HW184812  13.051  10.950   4.993
60991SOL    HW284813  13.005  11.075   4.920
60992SOL     OW84814   4.739   5.156   5.695
60992SOL    HW184815   4.796   5.169   5.619
60992SOL    HW284816   4.794   5.113   5.759
60993SOL     OW84817   9.512   8.429   6.590
60993SOL    HW184818   9.529   8.492   6.661
60993SOL    HW284819   9.493   8.484   6.514
60994SOL     OW84820  11.854   8.892  13.996
60994SOL    HW184821  11.789   8.822  13.984
60994SOL    HW284822  11.825   8.938  14.075
60995SOL     OW84823  10.768  13.345  10.019
60995SOL    HW184824  10.814  13.424  10.049
60995SOL    HW284825  10.716  13.318  10.095
60996SOL     OW84826   4.887  10.523   0.587
60996SOL    HW184827   4.884  10.618   0.603
60996SOL    HW284828   4.837  10.485   0.659
60997SOL     OW84829   8.368   5.029  10.297
60997SOL    HW184830   8.282   5.044  10.336
60997SOL    HW284831   8.429   5.065  10.361
60998SOL     OW84832   9.380  11.875   0.123
60998SOL    HW184833   9.466  11.916   0.117
60998SOL    HW284834   9.381  11.829   0.208
60999SOL     OW84835   4.305   0.730  11.385
60999SOL    HW184836   4.351   0.770  11.458
60999SOL    HW284837   4.221   0.702  11.422
61000SOL     OW84838  12.892   9.162  14.282
61000SOL    HW184839  12.927   9.148  14.194
61000SOL    HW284840  12.935   9.242  14.312
61001SOL     OW84841   0.709   8.654   4.724
61001SOL    HW184842   0.721   8.705   4.804
61001SOL    HW284843   0.723   8.563   4.750
61002SOL     OW84844  12.989   7.149   7.090
61002SOL    HW184845  12.933   7.218   7.052
61002SOL    HW284846  12.971   7.072   7.036
61003SOL     OW84847   3.048   2.171  14.272
61003SOL    HW184848   3.119   2.110  14.292
61003SOL    HW284849   2.993   2.124  14.209
61004SOL     OW84850   5.153   9.484   4.834
61004SOL    HW184851   5.228   9.517   4.785
61004SOL    HW284852   5.144   9.544   4.907
61005SOL     OW84853  14.194   2.665   8.532
61005SOL    HW184854  14.194   2.603   8.459
61005SOL    HW284855  14.139   2.624   8.598
61006SOL     OW84856   4.478   8.291  13.853
61006SOL    HW184857   4.485   8.236  13.775
61006SOL    HW284858   4.409   8.354  13.832
61007SOL     OW84859  13.558  10.480   8.966
61007SOL    HW184860  13.572  10.416   8.897
61007SOL    HW284861  13.644  10.490   9.007
61008SOL     OW84862   8.806   7.522  14.187
61008SOL    HW184863   8.747   7.463  14.235
61008SOL    HW284864   8.884   7.470  14.170
61009SOL     OW84865   7.408  13.891   7.784
61009SOL    HW184866   7.468  13.818   7.771
61009SOL    HW284867   7.379  13.915   7.696
61010SOL     OW84868  11.101   2.153   2.114
61010SOL    HW184869  11.019   2.199   2.100
61010SOL    HW284870  11.152   2.212   2.170
61011SOL     OW84871   3.599   3.104  10.153
61011SOL    HW184872   3.513   3.128  10.119
61011SOL    HW284873   3.658   3.115  10.078
61012SOL     OW84874   1.761   4.944   9.243
61012SOL    HW184875   1.679   4.977   9.206
61012SOL    HW284876   1.759   4.974   9.334
61013SOL     OW84877  10.419   4.218   8.090
61013SOL    HW184878  10.404   4.144   8.031
61013SOL    HW284879  10.336   4.229   8.137
61014SOL     OW84880   9.842   4.903   2.657
61014SOL    HW184881   9.888   4.889   2.574
61014SOL    HW284882   9.895   4.856   2.722
61015SOL     OW84883   0.538  11.086   0.020
61015SOL    HW184884   0.456  11.125   0.052
61015SOL    HW284885   0.555  11.133  14.818
61016SOL     OW84886   8.337   3.376  13.759
61016SOL    HW184887   8.404   3.436  13.726
61016SOL    HW284888   8.347   3.297  13.707
61017SOL     OW84889  13.154   9.473   6.867
61017SOL    HW184890  13.234   9.514   6.833
61017SOL    HW284891  13.181   9.432   6.949
61018SOL     OW84892  11.881   5.047  12.862
61018SOL    HW184893  11.898   4.973  12.920
61018SOL    HW284894  11.797   5.083  12.892
61019SOL     OW84895   7.776  10.736   5.530
61019SOL    HW184896   7.822  10.748   5.613
61019SOL    HW284897   7.737  10.649   5.536
61020SOL     OW84898   4.897   0.519   8.610
61020SOL    HW184899   4.882   0.613   8.600
61020SOL    HW284900   4.911   0.506   8.703
61021SOL     OW84901   5.228   9.837   6.315
61021SOL    HW184902   5.313   9.856   6.354
61021SOL    HW284903   5.231   9.878   6.228
61022SOL     OW84904  12.589   4.947   3.974
61022SOL    HW184905  12.558   5.035   3.953
61022SOL    HW284906  12.573   4.897   3.894
61023SOL     OW84907   5.278   6.163   8.232
61023SOL    HW184908   5.263   6.140   8.141
61023SOL    HW284909   5.191   6.169   8.271
61024SOL     OW84910   4.827   9.957   3.710
61024SOL    HW184911   4.873   9.938   3.629
61024SOL    HW284912   4.785  10.042   3.695
61025SOL     OW84913   0.746   2.372   3.645
61025SOL    HW184914   0.662   2.354   3.603
61025SOL    HW284915   0.725   2.385   3.738
61026SOL     OW84916   0.472   1.597   9.364
61026SOL    HW184917   0.406   1.529   9.376
61026SOL    HW284918   0.490   1.597   9.270
61027SOL     OW84919  10.680  10.568   3.273
61027SOL    HW184920  10.705  10.572   3.365
61027SOL    HW284921  10.714  10.649   3.235
61028SOL     OW84922  12.769   9.441   6.795
61028SOL    HW184923  12.830   9.514   6.800
61028SOL    HW284924  12.785   9.403   6.709
61029SOL     OW84925   5.096   8.900   8.037
61029SOL    HW184926   5.037   8.896   7.962
61029SOL    HW284927   5.047   8.949   8.103
61030SOL     OW84928   5.296  12.508  11.003
61030SOL    HW184929   5.242  12.586  11.012
61030SOL    HW284930   5.353  12.508  11.080
61031SOL     OW84931   3.285   9.297  12.412
61031SOL    HW184932   3.194   9.303  12.383
61031SOL    HW284933   3.327   9.373  12.374
61032SOL     OW84934   6.725   8.165   1.099
61032SOL    HW184935   6.636   8.149   1.069
61032SOL    HW284936   6.728   8.124   1.186
61033SOL     OW84937   3.728  14.011   7.255
61033SOL    HW184938   3.819  13.988   7.270
61033SOL    HW284939   3.685  13.928   7.236
61034SOL     OW84940   5.525   2.200   5.816
61034SOL    HW184941   5.519   2.106   5.799
61034SOL    HW284942   5.479   2.212   5.900
61035SOL     OW84943   2.646  14.705  14.500
61035SOL    HW184944   2.683  14.765  14.564
61035SOL    HW284945   2.717  14.642  14.483
61036SOL     OW84946   1.970   4.228   9.347
61036SOL    HW184947   2.036   4.188   9.405
61036SOL    HW284948   1.887   4.191   9.377
61037SOL     OW84949   8.460   9.481   1.739
61037SOL    HW184950   8.424   9.529   1.813
61037SOL    HW284951   8.549   9.457   1.766
61038SOL     OW84952   7.890   4.271  13.078
61038SOL    HW184953   7.885   4.192  13.132
61038SOL    HW284954   7.984   4.288  13.069
61039SOL     OW84955   5.172   6.922   9.835
61039SOL    HW184956   5.255   6.948   9.794
61039SOL    HW284957   5.197   6.852   9.895
61040SOL     OW84958   2.924   6.244   2.691
61040SOL    HW184959   2.992   6.193   2.646
61040SOL    HW284960   2.968   6.327   2.712
61041SOL     OW84961  14.796   6.688   1.060
61041SOL    HW184962  14.724   6.672   0.998
61041SOL    HW284963  14.775   6.772   1.100
61042SOL     OW84964   6.596   8.638  13.601
61042SOL    HW184965   6.647   8.612  13.678
61042SOL    HW284966   6.538   8.563  13.586
61043SOL     OW84967   0.525   5.719   0.439
61043SOL    HW184968   0.547   5.794   0.495
61043SOL    HW284969   0.435   5.696   0.464
61044SOL     OW84970   9.182   7.640   3.124
61044SOL    HW184971   9.220   7.727   3.134
61044SOL    HW284972   9.250   7.588   3.083
61045SOL     OW84973   8.410  14.543   1.958
61045SOL    HW184974   8.453  14.572   1.878
61045SOL    HW284975   8.316  14.552   1.940
61046SOL     OW84976   6.451   8.117  13.675
61046SOL    HW184977   6.445   8.189  13.612
61046SOL    HW284978   6.428   8.039  13.625
61047SOL     OW84979  10.059   6.911   9.117
61047SOL    HW184980  10.092   6.987   9.164
61047SOL    HW284981  10.053   6.843   9.184
61048SOL     OW84982   2.774  12.320   0.827
61048SOL    HW184983   2.792  12.333   0.733
61048SOL    HW284984   2.860  12.321   0.868
61049SOL     OW84985   0.405   6.852   6.746
61049SOL    HW184986   0.428   6.814   6.831
61049SOL    HW284987   0.423   6.782   6.683
61050SOL     OW84988  12.017   2.790   3.801
61050SOL    HW184989  12.098   2.749   3.831
61050SOL    HW284990  11.970   2.812   3.882
61051SOL     OW84991  10.636   3.467   2.352
61051SOL    HW184992  10.720   3.472   2.307
61051SOL    HW284993  10.648   3.397   2.417
61052SOL     OW84994   0.884   0.128   3.790
61052SOL    HW184995   0.924   0.096   3.871
61052SOL    HW284996   0.958   0.149   3.733
61053SOL     OW84997   5.803   7.933  10.294
61053SOL    HW184998   5.751   7.986  10.354
61053SOL    HW284999   5.812   7.988  10.216
61054SOL     OW85000   9.848   2.932  14.041
61054SOL    HW185001   9.767   2.892  14.008
61054SOL    HW285002   9.909   2.859  14.049
61055SOL     OW85003  14.478  10.021   3.570
61055SOL    HW185004  14.458  10.002   3.661
61055SOL    HW285005  14.474   9.936   3.526
61056SOL     OW85006   8.219  14.041   8.263
61056SOL    HW185007   8.299  14.025   8.314
61056SOL    HW285008   8.174  14.110   8.310
61057SOL     OW85009   9.612   1.807   4.338
61057SOL    HW185010   9.634   1.805   4.431
61057SOL    HW285011   9.581   1.897   4.323
61058SOL     OW85012   5.628   6.599  12.917
61058SOL    HW185013   5.605   6.691  12.904
61058SOL    HW285014   5.549   6.551  12.893
61059SOL     OW85015   0.365   9.726   8.596
61059SOL    HW185016   0.272   9.739   8.577
61059SOL    HW285017   0.388   9.800   8.652
61060SOL     OW85018   1.332  10.556  14.254
61060SOL    HW185019   1.243  10.522  14.260
61060SOL    HW285020   1.345  10.605  14.335
61061SOL     OW85021  10.270  10.513   2.901
61061SOL    HW185022  10.354  10.524   2.946
61061SOL    HW285023  10.209  10.488   2.970
61062SOL     OW85024   7.107  14.484   6.852
61062SOL    HW185025   7.059  14.550   6.901
61062SOL    HW285026   7.196  14.520   6.845
61063SOL     OW85027   7.104   4.674  10.446
61063SOL    HW185028   7.056   4.646  10.368
61063SOL    HW285029   7.063   4.757  10.470
61064SOL     OW85030   9.152   1.911   4.802
61064SOL    HW185031   9.232   1.887   4.848
61064SOL    HW285032   9.146   1.848   4.730
61065SOL     OW85033   4.926   2.648  13.490
61065SOL    HW185034   5.013   2.635  13.529
61065SOL    HW285035   4.868   2.662  13.565
61066SOL     OW85036   7.503   9.240   2.661
61066SOL    HW185037   7.468   9.151   2.664
61066SOL    HW285038   7.453   9.283   2.591
61067SOL     OW85039  12.575  12.025   1.337
61067SOL    HW185040  12.641  11.984   1.393
61067SOL    HW285041  12.584  12.119   1.356
61068SOL     OW85042   9.548   3.797   8.763
61068SOL    HW185043   9.580   3.708   8.749
61068SOL    HW285044   9.468   3.785   8.816
61069SOL     OW85045   5.611   5.102   2.926
61069SOL    HW185046   5.521   5.132   2.932
61069SOL    HW285047   5.663   5.171   2.967
61070SOL     OW85048   3.048   0.654  11.193
61070SOL    HW185049   3.106   0.676  11.121
61070SOL    HW285050   3.073   0.713  11.264
61071SOL     OW85051  10.367  14.260  13.543
61071SOL    HW185052  10.284  14.211  13.546
61071SOL    HW285053  10.428  14.206  13.593
61072SOL     OW85054  11.381  13.946  12.703
61072SOL    HW185055  11.460  13.924  12.752
61072SOL    HW285056  11.310  13.911  12.756
61073SOL     OW85057   2.855   1.666   1.057
61073SOL    HW185058   2.912   1.603   1.013
61073SOL    HW285059   2.897   1.751   1.043
61074SOL     OW85060   0.491   0.121   1.171
61074SOL    HW185061   0.560   0.132   1.236
61074SOL    HW285062   0.411   0.108   1.222
61075SOL     OW85063   4.399   2.752   3.292
61075SOL    HW185064   4.430   2.782   3.206
61075SOL    HW285065   4.413   2.657   3.290
61076SOL     OW85066  14.642   2.736   3.507
61076SOL    HW185067  14.554   2.711   3.480
61076SOL    HW285068  14.646   2.830   3.488
61077SOL     OW85069   9.173  10.583   2.860
61077SOL    HW185070   9.140  10.536   2.937
61077SOL    HW285071   9.205  10.514   2.802
61078SOL     OW85072  10.498   1.187   9.910
61078SOL    HW185073  10.518   1.101   9.874
61078SOL    HW285074  10.402   1.192   9.910
61079SOL     OW85075  14.430   6.222  14.213
61079SOL    HW185076  14.365   6.289  14.235
61079SOL    HW285077  14.482   6.262  14.144
61080SOL     OW85078  13.407   2.467  12.427
61080SOL    HW185079  13.318   2.490  12.453
61080SOL    HW285080  13.430   2.532  12.361
61081SOL     OW85081  14.515  13.273   5.844
61081SOL    HW185082  14.481  13.288   5.932
61081SOL    HW285083  14.477  13.344   5.791
61082SOL     OW85084  12.227   5.691  13.081
61082SOL    HW185085  12.313   5.650  13.068
61082SOL    HW285086  12.166   5.635  13.032
61083SOL     OW85087   8.585   1.474  14.456
61083SOL    HW185088   8.509   1.441  14.504
61083SOL    HW285089   8.594   1.412  14.383
61084SOL     OW85090   8.149  11.500   4.935
61084SOL    HW185091   8.096  11.521   5.012
61084SOL    HW285092   8.177  11.410   4.948
61085SOL     OW85093  13.360   4.551  12.494
61085SOL    HW185094  13.305   4.574  12.420
61085SOL    HW285095  13.449   4.572  12.465
61086SOL     OW85096  14.773   4.987   9.314
61086SOL    HW185097  14.721   5.056   9.274
61086SOL    HW285098  14.748   4.907   9.267
61087SOL     OW85099   2.121   1.281   4.814
61087SOL    HW185100   2.128   1.216   4.884
61087SOL    HW285101   2.164   1.240   4.739
61088SOL     OW85102   0.060   2.032  14.781
61088SOL    HW185103   0.097   2.034  14.869
61088SOL    HW285104   0.093   2.112  14.739
61089SOL     OW85105  14.517   0.502   5.169
61089SOL    HW185106  14.544   0.421   5.125
61089SOL    HW285107  14.592   0.561   5.157
61090SOL     OW85108  10.762  14.831  12.621
61090SOL    HW185109  10.735  14.740  12.608
61090SOL    HW285110  10.680  14.878  12.632
61091SOL     OW85111   4.288  13.548  12.723
61091SOL    HW185112   4.247  13.595  12.796
61091SOL    HW285113   4.217  13.498  12.684
61092SOL     OW85114   6.396   3.980  12.515
61092SOL    HW185115   6.488   4.002  12.528
61092SOL    HW285116   6.370   3.937  12.597
61093SOL     OW85117   3.768  11.466   8.728
61093SOL    HW185118   3.772  11.454   8.823
61093SOL    HW285119   3.751  11.560   8.717
61094SOL     OW85120  10.104   5.249   3.921
61094SOL    HW185121  10.020   5.211   3.946
61094SOL    HW285122  10.098   5.340   3.950
61095SOL     OW85123  12.324   6.982   6.784
61095SOL    HW185124  12.293   6.963   6.872
61095SOL    HW285125  12.412   6.944   6.781
61096SOL     OW85126   3.721   3.836   7.689
61096SOL    HW185127   3.770   3.918   7.686
61096SOL    HW285128   3.750   3.793   7.769
61097SOL     OW85129   6.877  13.547   7.148
61097SOL    HW185130   6.828  13.630   7.151
61097SOL    HW285131   6.820  13.488   7.099
61098SOL     OW85132   9.323  14.834  13.741
61098SOL    HW185133   9.282   0.025  13.790
61098SOL    HW285134   9.365  14.877  13.666
61099SOL     OW85135  10.028   0.379   1.205
61099SOL    HW185136   9.976   0.299   1.211
61099SOL    HW285137   9.997   0.433   1.278
61100SOL     OW85138  13.490   3.701  13.624
61100SOL    HW185139  13.495   3.671  13.534
61100SOL    HW285140  13.515   3.793  13.620
61101SOL     OW85141   7.221  13.729   5.187
61101SOL    HW185142   7.197  13.653   5.134
61101SOL    HW285143   7.306  13.707   5.224
61102SOL     OW85144   7.885   6.782  12.683
61102SOL    HW185145   7.844   6.803  12.599
61102SOL    HW285146   7.889   6.686  12.684
61103SOL     OW85147   4.157   7.013   2.390
61103SOL    HW185148   4.171   7.002   2.484
61103SOL    HW285149   4.228   6.964   2.349
61104SOL     OW85150   8.624  11.810   2.595
61104SOL    HW185151   8.533  11.839   2.597
61104SOL    HW285152   8.630  11.754   2.517
61105SOL     OW85153   6.756   6.424   4.099
61105SOL    HW185154   6.747   6.467   4.013
61105SOL    HW285155   6.717   6.338   4.087
61106SOL     OW85156  14.285  14.102   3.586
61106SOL    HW185157  14.226  14.171   3.555
61106SOL    HW285158  14.227  14.029   3.606
61107SOL     OW85159  12.486   4.706  13.649
61107SOL    HW185160  12.562   4.651  13.631
61107SOL    HW285161  12.504   4.745  13.735
61108SOL     OW85162   7.598   5.823  12.412
61108SOL    HW185163   7.604   5.833  12.317
61108SOL    HW285164   7.683   5.850  12.445
61109SOL     OW85165  14.460   5.171   0.364
61109SOL    HW185166  14.377   5.218   0.356
61109SOL    HW285167  14.514   5.206   0.293
61110SOL     OW85168  11.400   0.346   8.681
61110SOL    HW185169  11.456   0.269   8.696
61110SOL    HW285170  11.461   0.416   8.657
61111SOL     OW85171   6.444  12.295   9.468
61111SOL    HW185172   6.355  12.329   9.478
61111SOL    HW285173   6.435  12.201   9.483
61112SOL     OW85174   9.190   7.896   0.049
61112SOL    HW185175   9.127   7.905  14.858
61112SOL    HW285176   9.233   7.812   0.033
61113SOL     OW85177   9.712   9.340   0.936
61113SOL    HW185178   9.728   9.297   1.020
61113SOL    HW285179   9.797   9.335   0.891
61114SOL     OW85180   2.957  11.547   5.522
61114SOL    HW185181   2.961  11.634   5.561
61114SOL    HW285182   3.015  11.493   5.577
61115SOL     OW85183   7.378   2.304  13.202
61115SOL    HW185184   7.347   2.223  13.161
61115SOL    HW285185   7.327   2.311  13.283
61116SOL     OW85186  12.831  11.698  11.008
61116SOL    HW185187  12.894  11.656  10.949
61116SOL    HW285188  12.844  11.654  11.092
61117SOL     OW85189   6.692   2.776   7.838
61117SOL    HW185190   6.763   2.824   7.880
61117SOL    HW285191   6.663   2.835   7.768
61118SOL     OW85192  12.496   7.269   6.976
61118SOL    HW185193  12.532   7.344   7.023
61118SOL    HW285194  12.565   7.203   6.980
61119SOL     OW85195   8.473   6.397  12.670
61119SOL    HW185196   8.550   6.442  12.706
61119SOL    HW285197   8.405   6.464  12.666
61120SOL     OW85198   1.254  12.691  10.220
61120SOL    HW185199   1.276  12.660  10.307
61120SOL    HW285200   1.308  12.769  10.207
61121SOL     OW85201   1.134   0.965  13.457
61121SOL    HW185202   1.073   0.923  13.396
61121SOL    HW285203   1.220   0.932  13.432
61122SOL     OW85204   0.150  11.878   0.767
61122SOL    HW185205   0.243  11.892   0.785
61122SOL    HW285206   0.144  11.784   0.749
61123SOL     OW85207   3.580   3.466   5.441
61123SOL    HW185208   3.510   3.480   5.378
61123SOL    HW285209   3.578   3.543   5.497
61124SOL     OW85210  11.904   3.669  14.869
61124SOL    HW185211  11.826   3.649   0.041
61124SOL    HW285212  11.972   3.687   0.054
61125SOL     OW85213   3.479  11.846   8.797
61125SOL    HW185214   3.428  11.813   8.723
61125SOL    HW285215   3.502  11.768   8.847
61126SOL     OW85216  13.317   5.769   6.607
61126SOL    HW185217  13.279   5.717   6.536
61126SOL    HW285218  13.410   5.743   6.608
61127SOL     OW85219   1.527   3.511  12.315
61127SOL    HW185220   1.476   3.589  12.338
61127SOL    HW285221   1.614   3.527  12.353
61128SOL     OW85222   2.206   4.498   4.203
61128SOL    HW185223   2.133   4.469   4.147
61128SOL    HW285224   2.277   4.438   4.182
61129SOL     OW85225  12.851   0.288   8.952
61129SOL    HW185226  12.768   0.243   8.937
61129SOL    HW285227  12.832   0.380   8.930
61130SOL     OW85228   7.659  10.789  11.112
61130SOL    HW185229   7.595  10.720  11.094
61130SOL    HW285230   7.669  10.835  11.028
61131SOL     OW85231   9.604   4.360  11.179
61131SOL    HW185232   9.683   4.401  11.215
61131SOL    HW285233   9.630   4.271  11.158
61132SOL     OW85234   5.413  13.321   7.256
61132SOL    HW185235   5.463  13.304   7.176
61132SOL    HW285236   5.478  13.349   7.320
61133SOL     OW85237   1.810  11.523  14.236
61133SOL    HW185238   1.864  11.601  14.247
61133SOL    HW285239   1.756  11.520  14.315
61134SOL     OW85240   2.450   6.808   5.869
61134SOL    HW185241   2.520   6.743   5.865
61134SOL    HW285242   2.392   6.786   5.797
61135SOL     OW85243   1.008   3.003   2.551
61135SOL    HW185244   0.939   3.050   2.505
61135SOL    HW285245   0.978   2.912   2.556
61136SOL     OW85246  14.511   4.772   1.108
61136SOL    HW185247  14.474   4.838   1.049
61136SOL    HW285248  14.448   4.767   1.180
61137SOL     OW85249   3.832   6.043   0.630
61137SOL    HW185250   3.870   5.957   0.648
61137SOL    HW285251   3.901   6.090   0.584
61138SOL     OW85252  12.949   2.265   8.886
61138SOL    HW185253  12.906   2.348   8.904
61138SOL    HW285254  12.902   2.201   8.939
61139SOL     OW85255  13.489   2.122   6.269
61139SOL    HW185256  13.440   2.104   6.350
61139SOL    HW285257  13.471   2.214   6.250
61140SOL     OW85258  10.465   9.880  10.729
61140SOL    HW185259  10.506   9.900  10.813
61140SOL    HW285260  10.537   9.846  10.675
61141SOL     OW85261  10.748   2.998   0.012
61141SOL    HW185262  10.725   3.017  14.801
61141SOL    HW285263  10.741   3.083   0.056
61142SOL     OW85264   3.508   5.806  12.233
61142SOL    HW185265   3.467   5.775  12.152
61142SOL    HW285266   3.580   5.862  12.202
61143SOL     OW85267   3.093  12.977  11.970
61143SOL    HW185268   3.002  13.005  11.958
61143SOL    HW285269   3.146  13.049  11.935
61144SOL     OW85270  11.304   8.456   2.903
61144SOL    HW185271  11.341   8.526   2.957
61144SOL    HW285272  11.263   8.397   2.965
61145SOL     OW85273   3.679   6.282   6.049
61145SOL    HW185274   3.661   6.367   6.010
61145SOL    HW285275   3.696   6.301   6.142
61146SOL     OW85276   3.219   3.954   1.204
61146SOL    HW185277   3.215   3.984   1.113
61146SOL    HW285278   3.269   4.023   1.249
61147SOL     OW85279  10.614   6.121   8.823
61147SOL    HW185280  10.679   6.185   8.796
61147SOL    HW285281  10.580   6.085   8.742
61148SOL     OW85282  10.437   2.393   5.993
61148SOL    HW185283  10.509   2.445   5.959
61148SOL    HW285284  10.394   2.358   5.916
61149SOL     OW85285  14.591  11.680   9.279
61149SOL    HW185286  14.657  11.641   9.222
61149SOL    HW285287  14.594  11.774   9.258
61150SOL     OW85288   6.552   4.025  10.937
61150SOL    HW185289   6.592   3.940  10.919
61150SOL    HW285290   6.605   4.088  10.889
61151SOL     OW85291   4.413   0.394   1.965
61151SOL    HW185292   4.415   0.472   1.910
61151SOL    HW285293   4.492   0.399   2.018
61152SOL     OW85294   3.371   7.059   3.923
61152SOL    HW185295   3.378   7.119   3.998
61152SOL    HW285296   3.277   7.054   3.906
61153SOL     OW85297  11.395  11.080  12.279
61153SOL    HW185298  11.416  10.991  12.307
61153SOL    HW285299  11.316  11.102  12.328
61154SOL     OW85300   3.355   8.076  10.013
61154SOL    HW185301   3.394   8.092   9.927
61154SOL    HW285302   3.275   8.128  10.013
61155SOL     OW85303   6.930  12.272   4.874
61155SOL    HW185304   6.977  12.233   4.800
61155SOL    HW285305   6.873  12.338   4.834
61156SOL     OW85306   9.155   4.670  11.904
61156SOL    HW185307   9.224   4.736  11.905
61156SOL    HW285308   9.081   4.712  11.949
61157SOL     OW85309   9.127   9.773   6.350
61157SOL    HW185310   9.081   9.802   6.271
61157SOL    HW285311   9.096   9.831   6.419
61158SOL     OW85312   7.004   6.731  12.715
61158SOL    HW185313   7.081   6.704  12.666
61158SOL    HW285314   6.943   6.763  12.649
61159SOL     OW85315   9.500  11.107  12.061
61159SOL    HW185316   9.452  11.032  12.025
61159SOL    HW285317   9.437  11.149  12.119
61160SOL     OW85318   2.684  10.052   2.180
61160SOL    HW185319   2.660  10.065   2.272
61160SOL    HW285320   2.617   9.993   2.146
61161SOL     OW85321   0.815   2.675  13.766
61161SOL    HW185322   0.850   2.617  13.834
61161SOL    HW285323   0.849   2.761  13.789
61162SOL     OW85324  11.318   3.701   4.281
61162SOL    HW185325  11.412   3.700   4.301
61162SOL    HW285326  11.314   3.730   4.190
61163SOL     OW85327   0.853  13.240   6.241
61163SOL    HW185328   0.930  13.294   6.258
61163SOL    HW285329   0.836  13.252   6.148
61164SOL     OW85330   5.861   6.409   7.770
61164SOL    HW185331   5.806   6.337   7.802
61164SOL    HW285332   5.931   6.416   7.834
61165SOL     OW85333   6.742   3.119   6.321
61165SOL    HW185334   6.828   3.161   6.329
61165SOL    HW285335   6.692   3.179   6.266
61166SOL     OW85336  14.670  12.102   1.106
61166SOL    HW185337  14.710  12.079   1.190
61166SOL    HW285338  14.735  12.076   1.041
61167SOL     OW85339   7.570   5.880   2.273
61167SOL    HW185340   7.653   5.870   2.227
61167SOL    HW285341   7.580   5.828   2.352
61168SOL     OW85342   6.335   7.116   1.979
61168SOL    HW185343   6.267   7.178   2.003
61168SOL    HW285344   6.372   7.087   2.063
61169SOL     OW85345  12.828   4.822   2.537
61169SOL    HW185346  12.868   4.781   2.614
61169SOL    HW285347  12.769   4.755   2.502
61170SOL     OW85348   7.022   3.837  12.684
61170SOL    HW185349   7.111   3.806  12.695
61170SOL    HW285350   7.024   3.888  12.603
61171SOL     OW85351   1.572  13.179   9.796
61171SOL    HW185352   1.613  13.262   9.819
61171SOL    HW285353   1.548  13.140   9.880
61172SOL     OW85354   2.591   1.859   0.478
61172SOL    HW185355   2.601   1.821   0.565
61172SOL    HW285356   2.674   1.840   0.434
61173SOL     OW85357  11.391   0.008   9.197
61173SOL    HW185358  11.303  14.859   9.174
61173SOL    HW285359  11.423  14.821   9.258
61174SOL     OW85360  10.548  12.263  13.150
61174SOL    HW185361  10.493  12.203  13.202
61174SOL    HW285362  10.502  12.270  13.066
61175SOL     OW85363   8.619   5.772  10.744
61175SOL    HW185364   8.683   5.789  10.675
61175SOL    HW285365   8.593   5.681  10.732
61176SOL     OW85366   5.439   2.205   5.294
61176SOL    HW185367   5.519   2.178   5.250
61176SOL    HW285368   5.385   2.242   5.225
61177SOL     OW85369  12.840  14.120   4.857
61177SOL    HW185370  12.805  14.191   4.910
61177SOL    HW285371  12.923  14.096   4.900
61178SOL     OW85372   8.376  14.028   7.298
61178SOL    HW185373   8.302  13.967   7.298
61178SOL    HW285374   8.453  13.972   7.311
61179SOL     OW85375   6.383  12.179   8.123
61179SOL    HW185376   6.360  12.271   8.130
61179SOL    HW285377   6.427  12.172   8.038
61180SOL     OW85378   2.047   0.401   2.421
61180SOL    HW185379   1.972   0.355   2.384
61180SOL    HW285380   2.038   0.391   2.515
61181SOL     OW85381  13.856   9.115  11.151
61181SOL    HW185382  13.776   9.064  11.167
61181SOL    HW285383  13.877   9.153  11.236
61182SOL     OW85384   7.860   1.913   8.917
61182SOL    HW185385   7.812   1.937   8.996
61182SOL    HW285386   7.794   1.871   8.862
61183SOL     OW85387   1.171  11.279   5.481
61183SOL    HW185388   1.140  11.349   5.423
61183SOL    HW285389   1.187  11.322   5.565
61184SOL     OW85390  14.267   0.905   1.729
61184SOL    HW185391  14.294   0.917   1.820
61184SOL    HW285392  14.172   0.903   1.732
61185SOL     OW85393   7.773   0.919   5.432
61185SOL    HW185394   7.853   0.965   5.457
61185SOL    HW285395   7.704   0.960   5.483
61186SOL     OW85396   5.603  12.218  10.672
61186SOL    HW185397   5.534  12.267  10.626
61186SOL    HW285398   5.560  12.136  10.697
61187SOL     OW85399   0.215   3.540   5.937
61187SOL    HW185400   0.183   3.628   5.918
61187SOL    HW285401   0.290   3.529   5.880
61188SOL     OW85402   4.346   7.946   9.005
61188SOL    HW185403   4.309   8.025   8.968
61188SOL    HW285404   4.282   7.877   8.985
61189SOL     OW85405   5.125   3.370  14.235
61189SOL    HW185406   5.092   3.321  14.160
61189SOL    HW285407   5.155   3.304  14.296
61190SOL     OW85408   0.850   2.780   7.504
61190SOL    HW185409   0.795   2.750   7.577
61190SOL    HW285410   0.807   2.744   7.426
61191SOL     OW85411   8.983   6.253   1.205
61191SOL    HW185412   8.940   6.318   1.149
61191SOL    HW285413   9.066   6.236   1.161
61192SOL     OW85414   8.089   6.435   7.428
61192SOL    HW185415   8.012   6.390   7.393
61192SOL    HW285416   8.138   6.461   7.350
61193SOL     OW85417   2.982   5.866  13.930
61193SOL    HW185418   2.995   5.772  13.945
61193SOL    HW285419   3.069   5.900  13.912
61194SOL     OW85420   0.293  13.928  11.198
61194SOL    HW185421   0.339  13.990  11.255
61194SOL    HW285422   0.209  13.970  11.180
61195SOL     OW85423   2.009   8.268   2.210
61195SOL    HW185424   1.925   8.265   2.164
61195SOL    HW285425   1.989   8.241   2.299
61196SOL     OW85426  12.956   5.335   1.441
61196SOL    HW185427  12.894   5.369   1.506
61196SOL    HW285428  13.015   5.279   1.492
61197SOL     OW85429   7.359   5.530  10.735
61197SOL    HW185430   7.446   5.489  10.734
61197SOL    HW285431   7.337   5.539  10.642
61198SOL     OW85432   3.412   7.942   5.038
61198SOL    HW185433   3.390   7.890   5.115
61198SOL    HW285434   3.440   7.877   4.973
61199SOL     OW85435   7.220   1.116   0.995
61199SOL    HW185436   7.289   1.081   1.051
61199SOL    HW285437   7.174   1.180   1.050
61200SOL     OW85438   9.163   6.512   0.068
61200SOL    HW185439   9.200   6.444   0.125
61200SOL    HW285440   9.124   6.575   0.128
61201SOL     OW85441   7.304   7.070  12.432
61201SOL    HW185442   7.379   7.099  12.483
61201SOL    HW285443   7.228   7.106  12.478
61202SOL     OW85444   3.409   8.996   9.691
61202SOL    HW185445   3.329   9.014   9.740
61202SOL    HW285446   3.424   9.074   9.638
61203SOL     OW85447   8.626   5.781  14.300
61203SOL    HW185448   8.560   5.713  14.285
61203SOL    HW285449   8.682   5.777  14.222
61204SOL     OW85450   0.717   0.121   3.593
61204SOL    HW185451   0.766   0.109   3.674
61204SOL    HW285452   0.696   0.214   3.591
61205SOL     OW85453  13.236   8.659   9.927
61205SOL    HW185454  13.240   8.564   9.937
61205SOL    HW285455  13.324   8.690   9.948
61206SOL     OW85456   3.896  10.632  11.578
61206SOL    HW185457   3.807  10.603  11.596
61206SOL    HW285458   3.899  10.643  11.483
61207SOL     OW85459  14.031  12.679   7.215
61207SOL    HW185460  14.019  12.772   7.234
61207SOL    HW285461  13.955  12.636   7.255
61208SOL     OW85462   5.708   7.023   6.154
61208SOL    HW185463   5.730   7.112   6.128
61208SOL    HW285464   5.792   6.982   6.176
61209SOL     OW85465   8.507   8.087  10.249
61209SOL    HW185466   8.478   8.161  10.302
61209SOL    HW285467   8.426   8.048  10.216
61210SOL     OW85468   1.925   3.090  12.673
61210SOL    HW185469   1.958   3.085  12.584
61210SOL    HW285470   1.961   3.013  12.717
61211SOL     OW85471  10.562   6.997   2.260
61211SOL    HW185472  10.598   6.911   2.281
61211SOL    HW285473  10.548   6.995   2.165
61212SOL     OW85474  12.753   7.921   9.309
61212SOL    HW185475  12.782   7.835   9.279
61212SOL    HW285476  12.735   7.910   9.402
61213SOL     OW85477  12.240   1.295  14.349
61213SOL    HW185478  12.310   1.352  14.381
61213SOL    HW285479  12.215   1.334  14.265
61214SOL     OW85480   2.854   0.120   2.696
61214SOL    HW185481   2.913   0.167   2.637
61214SOL    HW285482   2.862   0.028   2.670
61215SOL     OW85483   0.565  14.568   9.879
61215SOL    HW185484   0.588  14.553   9.971
61215SOL    HW285485   0.551  14.480   9.843
61216SOL     OW85486   1.069   7.132  12.154
61216SOL    HW185487   0.974   7.141  12.147
61216SOL    HW285488   1.104   7.215  12.121
61217SOL     OW85489  14.220  12.109   5.047
61217SOL    HW185490  14.242  12.202   5.054
61217SOL    HW285491  14.242  12.085   4.957
61218SOL     OW85492   9.331  14.478   5.391
61218SOL    HW185493   9.404  14.510   5.444
61218SOL    HW285494   9.357  14.497   5.301
61219SOL     OW85495   0.086  11.853   8.932
61219SOL    HW185496   0.093  11.833   9.026
61219SOL    HW285497   0.090  11.768   8.889
61220SOL     OW85498   3.681  13.277  12.381
61220SOL    HW185499   3.593  13.248  12.358
61220SOL    HW285500   3.713  13.322  12.303
61221SOL     OW85501  14.640   5.485   4.974
61221SOL    HW185502  14.670   5.517   4.889
61221SOL    HW285503  14.547   5.467   4.961
61222SOL     OW85504  13.562  12.959  10.053
61222SOL    HW185505  13.623  12.924  10.118
61222SOL    HW285506  13.619  12.997   9.986
61223SOL     OW85507   5.592   3.263   0.053
61223SOL    HW185508   5.683   3.236   0.042
61223SOL    HW285509   5.585   3.285   0.146
61224SOL     OW85510   1.366   7.337  13.191
61224SOL    HW185511   1.295   7.401  13.178
61224SOL    HW285512   1.364   7.318  13.285
61225SOL     OW85513  11.734  13.614   2.051
61225SOL    HW185514  11.644  13.588   2.033
61225SOL    HW285515  11.740  13.704   2.019
61226SOL     OW85516  12.231  13.282   6.819
61226SOL    HW185517  12.206  13.276   6.727
61226SOL    HW285518  12.327  13.290   6.817
61227SOL     OW85519  10.601   1.057  10.743
61227SOL    HW185520  10.519   1.010  10.754
61227SOL    HW285521  10.668   0.993  10.768
61228SOL     OW85522   1.525   8.810  14.124
61228SOL    HW185523   1.440   8.805  14.168
61228SOL    HW285524   1.567   8.888  14.161
61229SOL     OW85525   3.074   2.314   4.567
61229SOL    HW185526   3.061   2.224   4.538
61229SOL    HW285527   3.165   2.333   4.544
61230SOL     OW85528   0.180  13.772   7.160
61230SOL    HW185529   0.153  13.810   7.244
61230SOL    HW285530   0.199  13.681   7.180
61231SOL     OW85531   2.479  13.696   1.736
61231SOL    HW185532   2.463  13.741   1.819
61231SOL    HW285533   2.569  13.664   1.744
61232SOL     OW85534   1.215   5.956  10.942
61232SOL    HW185535   1.258   5.958  10.857
61232SOL    HW285536   1.128   5.992  10.925
61233SOL     OW85537   9.650   8.978  11.817
61233SOL    HW185538   9.614   8.926  11.745
61233SOL    HW285539   9.608   9.064  11.809
61234SOL     OW85540   0.111   3.663   2.340
61234SOL    HW185541   0.128   3.739   2.396
61234SOL    HW285542   0.162   3.680   2.260
61235SOL     OW85543  14.643   4.850   7.762
61235SOL    HW185544  14.707   4.878   7.828
61235SOL    HW285545  14.646   4.754   7.766
61236SOL     OW85546  13.858   5.736  11.741
61236SOL    HW185547  13.935   5.740  11.685
61236SOL    HW285548  13.843   5.826  11.769
61237SOL     OW85549  11.915   6.075   8.794
61237SOL    HW185550  11.857   6.095   8.720
61237SOL    HW285551  11.877   5.996   8.833
61238SOL     OW85552   1.202   2.988   6.946
61238SOL    HW185553   1.177   2.972   6.855
61238SOL    HW285554   1.297   3.003   6.943
61239SOL     OW85555   1.868   6.097   5.675
61239SOL    HW185556   1.960   6.070   5.672
61239SOL    HW285557   1.823   6.024   5.716
61240SOL     OW85558   3.916   9.293  14.686
61240SOL    HW185559   3.846   9.334  14.736
61240SOL    HW285560   3.946   9.361  14.625
61241SOL     OW85561   4.844  12.408   9.398
61241SOL    HW185562   4.834  12.378   9.307
61241SOL    HW285563   4.852  12.327   9.449
61242SOL     OW85564   0.078  14.727   4.960
61242SOL    HW185565   0.060  14.821   4.962
61242SOL    HW285566   0.135  14.712   5.036
61243SOL     OW85567   4.388   6.934  13.760
61243SOL    HW185568   4.318   6.944  13.825
61243SOL    HW285569   4.357   6.864  13.702
61244SOL     OW85570   5.501   0.670   5.747
61244SOL    HW185571   5.470   0.594   5.797
61244SOL    HW285572   5.436   0.682   5.679
61245SOL     OW85573   1.843   5.622   2.592
61245SOL    HW185574   1.766   5.640   2.646
61245SOL    HW285575   1.808   5.596   2.507
61246SOL     OW85576   7.774   0.651   2.637
61246SOL    HW185577   7.782   0.678   2.545
61246SOL    HW285578   7.740   0.728   2.682
61247SOL     OW85579  12.223   4.868  14.455
61247SOL    HW185580  12.272   4.786  14.444
61247SOL    HW285581  12.291   4.936  14.456
61248SOL     OW85582   1.788  12.041   0.214
61248SOL    HW185583   1.726  12.014   0.145
61248SOL    HW285584   1.753  12.124   0.245
61249SOL     OW85585   2.291   6.479   6.218
61249SOL    HW185586   2.272   6.547   6.153
61249SOL    HW285587   2.385   6.489   6.236
61250SOL     OW85588  11.772   6.271  10.986
61250SOL    HW185589  11.717   6.283  10.908
61250SOL    HW285590  11.711   6.277  11.060
61251SOL     OW85591   6.155  11.031   9.849
61251SOL    HW185592   6.111  10.965   9.903
61251SOL    HW285593   6.194  10.981   9.777
61252SOL     OW85594   3.403  14.024   4.518
61252SOL    HW185595   3.344  13.972   4.464
61252SOL    HW285596   3.348  14.056   4.590
61253SOL     OW85597  10.689   8.935   2.608
61253SOL    HW185598  10.675   8.866   2.673
61253SOL    HW285599  10.680   9.016   2.658
61254SOL     OW85600   1.667   9.419   0.021
61254SOL    HW185601   1.716   9.356   0.074
61254SOL    HW285602   1.576   9.399   0.040
61255SOL     OW85603   3.934  14.111  14.028
61255SOL    HW185604   3.867  14.148  13.971
61255SOL    HW285605   3.889  14.043  14.078
61256SOL     OW85606   3.676  12.577   4.578
61256SOL    HW185607   3.734  12.581   4.502
61256SOL    HW285608   3.603  12.635   4.555
61257SOL     OW85609   5.991  10.102  10.627
61257SOL    HW185610   6.002  10.010  10.653
61257SOL    HW285611   5.983  10.149  10.710
61258SOL     OW85612  12.471   4.983  12.267
61258SOL    HW185613  12.386   5.008  12.232
61258SOL    HW285614  12.465   4.999  12.361
61259SOL     OW85615   1.549   4.908   9.480
61259SOL    HW185616   1.578   4.892   9.570
61259SOL    HW285617   1.575   4.829   9.433
61260SOL     OW85618   4.766   3.427   2.292
61260SOL    HW185619   4.715   3.346   2.304
61260SOL    HW285620   4.702   3.491   2.263
61261SOL     OW85621  13.347  13.926  11.569
61261SOL    HW185622  13.314  14.000  11.518
61261SOL    HW285623  13.437  13.914  11.538
61262SOL     OW85624   0.204  14.580  13.574
61262SOL    HW185625   0.271  14.583  13.643
61262SOL    HW285626   0.254  14.579  13.492
61263SOL     OW85627  13.537   0.123   3.530
61263SOL    HW185628  13.595   0.190   3.568
61263SOL    HW285629  13.490   0.169   3.461
61264SOL     OW85630   8.889   1.696   7.099
61264SOL    HW185631   8.946   1.682   7.174
61264SOL    HW285632   8.946   1.737   7.033
61265SOL     OW85633   6.084   5.327  10.009
61265SOL    HW185634   6.161   5.359   9.962
61265SOL    HW285635   6.017   5.393   9.992
61266SOL     OW85636   1.624  13.336   0.400
61266SOL    HW185637   1.533  13.365   0.401
61266SOL    HW285638   1.661  13.371   0.482
61267SOL     OW85639   8.271   3.777  11.898
61267SOL    HW185640   8.220   3.791  11.978
61267SOL    HW285641   8.358   3.813  11.919
61268SOL     OW85642  13.698   5.539   2.751
61268SOL    HW185643  13.695   5.509   2.661
61268SOL    HW285644  13.772   5.491   2.790
61269SOL     OW85645   3.203   0.001  11.355
61269SOL    HW185646   3.295   0.019  11.372
61269SOL    HW285647   3.188  14.793  11.391
61270SOL     OW85648   3.541   6.331   0.012
61270SOL    HW185649   3.571   6.352  14.803
61270SOL    HW285650   3.620   6.331   0.065
61271SOL     OW85651   9.658   0.518   7.525
61271SOL    HW185652   9.690   0.430   7.544
61271SOL    HW285653   9.705   0.545   7.446
61272SOL     OW85654   5.856  13.108  13.238
61272SOL    HW185655   5.831  13.166  13.310
61272SOL    HW285656   5.944  13.078  13.260
61273SOL     OW85657   3.753   3.573   0.306
61273SOL    HW185658   3.750   3.667   0.326
61273SOL    HW285659   3.667   3.541   0.334
61274SOL     OW85660  14.006  12.088  10.293
61274SOL    HW185661  14.035  12.143  10.220
61274SOL    HW285662  13.958  12.017  10.252
61275SOL     OW85663   9.904   0.239  13.651
61275SOL    HW185664   9.868   0.154  13.677
61275SOL    HW285665   9.998   0.224  13.646
61276SOL     OW85666  12.531   1.420   3.938
61276SOL    HW185667  12.503   1.423   3.847
61276SOL    HW285668  12.603   1.356   3.939
61277SOL     OW85669   9.573   8.843   8.265
61277SOL    HW185670   9.631   8.913   8.235
61277SOL    HW285671   9.613   8.763   8.230
61278SOL     OW85672   1.106  12.033  14.768
61278SOL    HW185673   1.028  12.021  14.822
61278SOL    HW285674   1.111  12.127  14.754
61279SOL     OW85675  14.689  14.630   0.971
61279SOL    HW185676  14.735  14.553   0.938
61279SOL    HW285677  14.626  14.596   1.035
61280SOL     OW85678   9.960   2.500  13.839
61280SOL    HW185679   9.991   2.424  13.790
61280SOL    HW285680   9.903   2.546  13.777
61281SOL     OW85681  13.838   2.077  10.866
61281SOL    HW185682  13.750   2.081  10.828
61281SOL    HW285683  13.843   1.989  10.904
61282SOL     OW85684  10.215   0.904  11.857
61282SOL    HW185685  10.214   0.928  11.949
61282SOL    HW285686  10.274   0.829  11.852
61283SOL     OW85687   7.343   3.107   4.387
61283SOL    HW185688   7.340   3.028   4.334
61283SOL    HW285689   7.433   3.138   4.379
61284SOL     OW85690   6.792   3.043   3.002
61284SOL    HW185691   6.828   3.127   2.973
61284SOL    HW285692   6.727   3.067   3.069
61285SOL     OW85693  11.035  10.190  10.482
61285SOL    HW185694  10.956  10.140  10.505
61285SOL    HW285695  11.088  10.130  10.430
61286SOL     OW85696   0.149   1.621   3.339
61286SOL    HW185697   0.119   1.662   3.420
61286SOL    HW285698   0.187   1.693   3.288
61287SOL     OW85699   7.754   3.259   3.385
61287SOL    HW185700   7.816   3.193   3.417
61287SOL    HW285701   7.808   3.323   3.339
61288SOL     OW85702   3.337   0.958   5.234
61288SOL    HW185703   3.306   0.884   5.183
61288SOL    HW285704   3.258   0.998   5.270
61289SOL     OW85705  11.930   1.478  13.915
61289SOL    HW185706  11.958   1.420  13.986
61289SOL    HW285707  11.903   1.558  13.959
61290SOL     OW85708  13.429   6.694   1.310
61290SOL    HW185709  13.464   6.679   1.222
61290SOL    HW285710  13.412   6.788   1.313
61291SOL     OW85711  13.460  12.138  14.351
61291SOL    HW185712  13.455  12.123  14.256
61291SOL    HW285713  13.539  12.092  14.378
61292SOL     OW85714  10.930   5.602  10.298
61292SOL    HW185715  10.930   5.512  10.330
61292SOL    HW285716  11.022   5.624  10.289
61293SOL     OW85717   5.266   4.464   6.316
61293SOL    HW185718   5.280   4.558   6.319
61293SOL    HW285719   5.292   4.439   6.227
61294SOL     OW85720   2.090   6.684   7.266
61294SOL    HW185721   2.066   6.630   7.341
61294SOL    HW285722   2.183   6.703   7.278
61295SOL     OW85723   6.697   5.552   9.333
61295SOL    HW185724   6.780   5.592   9.361
61295SOL    HW285725   6.688   5.476   9.390
61296SOL     OW85726  11.966   1.649  10.831
61296SOL    HW185727  11.953   1.667  10.924
61296SOL    HW285728  12.016   1.567  10.830
61297SOL     OW85729   3.978  12.482   6.083
61297SOL    HW185730   3.975  12.465   5.989
61297SOL    HW285731   4.021  12.567   6.090
61298SOL     OW85732  11.682   0.147   6.189
61298SOL    HW185733  11.698   0.223   6.245
61298SOL    HW285734  11.672   0.184   6.101
61299SOL     OW85735   6.322   4.776  14.557
61299SOL    HW185736   6.274   4.855  14.581
61299SOL    HW285737   6.320   4.721  14.635
61300SOL     OW85738   3.728   1.914   5.915
61300SOL    HW185739   3.664   1.845   5.938
61300SOL    HW285740   3.781   1.875   5.845
61301SOL     OW85741   0.905  14.432   8.667
61301SOL    HW185742   0.892  14.450   8.760
61301SOL    HW285743   0.998  14.450   8.652
61302SOL     OW85744  12.257  14.875  10.029
61302SOL    HW185745  12.291  14.789  10.005
61302SOL    HW285746  12.191   0.014   9.963
61303SOL     OW85747  10.144  12.739   7.696
61303SOL    HW185748  10.158  12.667   7.635
61303SOL    HW285749  10.081  12.796   7.652
61304SOL     OW85750  13.998  12.702  11.653
61304SOL    HW185751  13.917  12.651  11.665
61304SOL    HW285752  13.971  12.793  11.661
61305SOL     OW85753   0.224  14.277  11.765
61305SOL    HW185754   0.268  14.311  11.688
61305SOL    HW285755   0.136  14.255  11.735
61306SOL     OW85756   5.884   3.815   4.408
61306SOL    HW185757   5.900   3.732   4.453
61306SOL    HW285758   5.851   3.789   4.321
61307SOL     OW85759   1.848  11.671   9.369
61307SOL    HW185760   1.905  11.595   9.376
61307SOL    HW285761   1.763  11.635   9.345
61308SOL     OW85762  12.529  13.584   8.657
61308SOL    HW185763  12.515  13.495   8.689
61308SOL    HW285764  12.440  13.620   8.649
61309SOL     OW85765   6.264   3.707   8.576
61309SOL    HW185766   6.178   3.673   8.550
61309SOL    HW285767   6.327   3.648   8.535
61310SOL     OW85768   4.446  13.837   8.894
61310SOL    HW185769   4.529  13.796   8.870
61310SOL    HW285770   4.383  13.765   8.896
61311SOL     OW85771   3.491  10.839  13.478
61311SOL    HW185772   3.439  10.787  13.416
61311SOL    HW285773   3.546  10.895  13.423
61312SOL     OW85774  12.021  14.260  14.256
61312SOL    HW185775  11.945  14.271  14.314
61312SOL    HW285776  12.094  14.244  14.315
61313SOL     OW85777   4.578   6.617  13.211
61313SOL    HW185778   4.557   6.692  13.267
61313SOL    HW285779   4.644   6.568  13.261
61314SOL     OW85780  13.589  10.291   1.538
61314SOL    HW185781  13.513  10.315   1.484
61314SOL    HW285782  13.626  10.375   1.566
61315SOL     OW85783  12.686   7.867   0.344
61315SOL    HW185784  12.724   7.851   0.258
61315SOL    HW285785  12.676   7.780   0.383
61316SOL     OW85786  13.103  13.664   8.323
61316SOL    HW185787  13.155  13.586   8.305
61316SOL    HW285788  13.096  13.665   8.419
61317SOL     OW85789  13.737   1.900   5.237
61317SOL    HW185790  13.783   1.849   5.303
61317SOL    HW285791  13.680   1.838   5.194
61318SOL     OW85792   3.642   9.237   4.694
61318SOL    HW185793   3.573   9.172   4.679
61318SOL    HW285794   3.701   9.226   4.619
61319SOL     OW85795   8.692   5.482  12.471
61319SOL    HW185796   8.743   5.533  12.407
61319SOL    HW285797   8.727   5.509  12.556
61320SOL     OW85798  14.244  10.240   7.862
61320SOL    HW185799  14.165  10.192   7.839
61320SOL    HW285800  14.316  10.181   7.841
61321SOL     OW85801  13.313   0.097   7.631
61321SOL    HW185802  13.303   0.002   7.631
61321SOL    HW285803  13.359   0.115   7.549
61322SOL     OW85804  14.037   1.760   4.488
61322SOL    HW185805  14.112   1.819   4.496
61322SOL    HW285806  13.989   1.793   4.411
61323SOL     OW85807   5.887  11.570   7.254
61323SOL    HW185808   5.965  11.514   7.254
61323SOL    HW285809   5.897  11.625   7.176
61324SOL     OW85810   5.172  12.324   4.353
61324SOL    HW185811   5.104  12.390   4.346
61324SOL    HW285812   5.186  12.315   4.448
61325SOL     OW85813   7.686   4.318   3.536
61325SOL    HW185814   7.637   4.381   3.483
61325SOL    HW285815   7.621   4.281   3.596
61326SOL     OW85816   9.466   1.975   3.985
61326SOL    HW185817   9.551   2.014   3.963
61326SOL    HW285818   9.445   2.009   4.071
61327SOL     OW85819  14.301  13.016   3.310
61327SOL    HW185820  14.233  13.063   3.263
61327SOL    HW285821  14.352  12.972   3.242
61328SOL     OW85822  12.994   4.843   1.304
61328SOL    HW185823  13.083   4.817   1.281
61328SOL    HW285824  13.003   4.934   1.332
61329SOL     OW85825   9.518   1.283  12.240
61329SOL    HW185826   9.498   1.302  12.148
61329SOL    HW285827   9.611   1.304  12.248
61330SOL     OW85828  10.051   4.103   6.929
61330SOL    HW185829  10.101   4.031   6.888
61330SOL    HW285830  10.110   4.178   6.925
61331SOL     OW85831  11.002   6.970   6.657
61331SOL    HW185832  10.920   6.943   6.700
61331SOL    HW285833  10.981   6.971   6.564
61332SOL     OW85834   0.524  14.385  14.647
61332SOL    HW185835   0.597  14.434  14.685
61332SOL    HW285836   0.560  14.349  14.566
61333SOL     OW85837   4.593   2.958   9.301
61333SOL    HW185838   4.595   2.889   9.236
61333SOL    HW285839   4.641   3.031   9.261
61334SOL     OW85840  10.277  14.309   6.119
61334SOL    HW185841  10.348  14.343   6.064
61334SOL    HW285842  10.223  14.385   6.138
61335SOL     OW85843   5.529  11.710   0.234
61335SOL    HW185844   5.483  11.757   0.303
61335SOL    HW285845   5.612  11.757   0.224
61336SOL     OW85846  13.105   7.020   0.642
61336SOL    HW185847  13.102   7.061   0.728
61336SOL    HW285848  13.163   7.077   0.591
61337SOL     OW85849   7.829   5.845   7.510
61337SOL    HW185850   7.874   5.891   7.581
61337SOL    HW285851   7.889   5.852   7.436
61338SOL     OW85852   5.316   3.742   7.674
61338SOL    HW185853   5.355   3.716   7.591
61338SOL    HW285854   5.310   3.660   7.724
61339SOL     OW85855  12.987   0.173   6.053
61339SOL    HW185856  12.953   0.184   5.965
61339SOL    HW285857  13.048   0.245   6.065
61340SOL     OW85858   6.126   8.783   5.879
61340SOL    HW185859   6.170   8.733   5.810
61340SOL    HW285860   6.131   8.727   5.956
61341SOL     OW85861   7.379   9.668  11.116
61341SOL    HW185862   7.311   9.712  11.065
61341SOL    HW285863   7.416   9.603  11.056
61342SOL     OW85864  10.103  12.799  13.128
61342SOL    HW185865  10.187  12.778  13.170
61342SOL    HW285866  10.073  12.878  13.172
61343SOL     OW85867   2.828   0.355   7.895
61343SOL    HW185868   2.899   0.370   7.956
61343SOL    HW285869   2.871   0.347   7.810
61344SOL     OW85870  11.609   7.880   5.024
61344SOL    HW185871  11.544   7.949   5.015
61344SOL    HW285872  11.584   7.815   4.958
61345SOL     OW85873   8.449   4.701   2.197
61345SOL    HW185874   8.403   4.745   2.126
61345SOL    HW285875   8.526   4.661   2.155
61346SOL     OW85876  14.024   7.049   3.271
61346SOL    HW185877  14.062   7.019   3.354
61346SOL    HW285878  13.987   7.135   3.291
61347SOL     OW85879   2.786  10.935   0.400
61347SOL    HW185880   2.745  10.952   0.485
61347SOL    HW285881   2.782  10.840   0.389
61348SOL     OW85882   4.570   6.791   9.910
61348SOL    HW185883   4.483   6.750   9.903
61348SOL    HW285884   4.562   6.849   9.985
61349SOL     OW85885   9.159   8.204   9.952
61349SOL    HW185886   9.162   8.232  10.043
61349SOL    HW285887   9.166   8.285   9.902
61350SOL     OW85888  11.147   4.973   2.067
61350SOL    HW185889  11.171   5.061   2.098
61350SOL    HW285890  11.216   4.916   2.102
61351SOL     OW85891  14.164   2.504  12.055
61351SOL    HW185892  14.210   2.558  12.119
61351SOL    HW285893  14.201   2.417  12.064
61352SOL     OW85894  14.306   3.971   0.021
61352SOL    HW185895  14.264   3.987   0.106
61352SOL    HW285896  14.393   4.012   0.029
61353SOL     OW85897   9.132   7.218   0.548
61353SOL    HW185898   9.115   7.189   0.458
61353SOL    HW285899   9.192   7.153   0.584
61354SOL     OW85900   5.345   6.624  10.236
61354SOL    HW185901   5.425   6.602  10.284
61354SOL    HW285902   5.345   6.564  10.161
61355SOL     OW85903  13.125   6.458   2.784
61355SOL    HW185904  13.035   6.458   2.750
61355SOL    HW285905  13.177   6.417   2.714
61356SOL     OW85906   5.735   8.221   4.454
61356SOL    HW185907   5.687   8.303   4.465
61356SOL    HW285908   5.794   8.218   4.529
61357SOL     OW85909  10.297   9.289   0.936
61357SOL    HW185910  10.224   9.237   0.970
61357SOL    HW285911  10.365   9.225   0.917
61358SOL     OW85912  13.049   8.399  12.462
61358SOL    HW185913  13.090   8.331  12.516
61358SOL    HW285914  12.964   8.414  12.503
61359SOL     OW85915   5.729  10.375  10.309
61359SOL    HW185916   5.761  10.286  10.324
61359SOL    HW285917   5.654  10.384  10.368
61360SOL     OW85918   5.240   3.400  14.732
61360SOL    HW185919   5.232   3.389  14.826
61360SOL    HW285920   5.210   3.316  14.695
61361SOL     OW85921   3.865   8.597   9.370
61361SOL    HW185922   3.895   8.684   9.397
61361SOL    HW285923   3.773   8.595   9.396
61362SOL     OW85924   0.739   1.250   2.133
61362SOL    HW185925   0.706   1.162   2.155
61362SOL    HW285926   0.695   1.308   2.196
61363SOL     OW85927   2.809  12.856   1.776
61363SOL    HW185928   2.759  12.860   1.695
61363SOL    HW285929   2.804  12.945   1.812
61364SOL     OW85930  12.195  12.001   1.408
61364SOL    HW185931  12.104  11.986   1.430
61364SOL    HW285932  12.243  11.982   1.489
61365SOL     OW85933   1.948   9.875   6.179
61365SOL    HW185934   2.008   9.849   6.109
61365SOL    HW285935   1.881   9.807   6.181
61366SOL     OW85936   8.622   1.715   7.116
61366SOL    HW185937   8.717   1.709   7.102
61366SOL    HW285938   8.612   1.786   7.180
61367SOL     OW85939  11.042   5.143  11.867
61367SOL    HW185940  10.969   5.090  11.899
61367SOL    HW285941  11.119   5.087  11.878
61368SOL     OW85942  14.041   2.687   0.752
61368SOL    HW185943  14.119   2.734   0.724
61368SOL    HW285944  14.065   2.594   0.746
61369SOL     OW85945   6.115  12.593   6.146
61369SOL    HW185946   6.197  12.561   6.109
61369SOL    HW285947   6.059  12.516   6.152
61370SOL     OW85948   8.254   2.685   0.058
61370SOL    HW185949   8.183   2.743   0.086
61370SOL    HW285950   8.213   2.626  14.874
61371SOL     OW85951   7.834   2.380   2.189
61371SOL    HW185952   7.747   2.377   2.228
61371SOL    HW285953   7.858   2.473   2.190
61372SOL     OW85954  12.830   7.722   0.795
61372SOL    HW185955  12.881   7.684   0.723
61372SOL    HW285956  12.788   7.647   0.837
61373SOL     OW85957   4.299   9.401   4.992
61373SOL    HW185958   4.294   9.306   4.984
61373SOL    HW285959   4.207   9.429   5.000
61374SOL     OW85960   8.053  10.838  11.793
61374SOL    HW185961   8.046  10.883  11.877
61374SOL    HW285962   8.002  10.892  11.732
61375SOL     OW85963   7.723   7.905  13.079
61375SOL    HW185964   7.696   7.816  13.104
61375SOL    HW285965   7.680   7.961  13.144
61376SOL     OW85966  10.413  12.968   1.822
61376SOL    HW185967  10.477  13.024   1.866
61376SOL    HW285968  10.346  13.028   1.791
61377SOL     OW85969   2.535  14.774   3.736
61377SOL    HW185970   2.630  14.764   3.730
61377SOL    HW285971   2.502  14.685   3.747
61378SOL     OW85972   2.763   8.662   0.179
61378SOL    HW185973   2.761   8.655   0.274
61378SOL    HW285974   2.848   8.701   0.160
61379SOL     OW85975   4.694  13.867   4.038
61379SOL    HW185976   4.760  13.797   4.030
61379SOL    HW285977   4.745  13.948   4.036
61380SOL     OW85978   5.568   2.501   9.692
61380SOL    HW185979   5.629   2.439   9.652
61380SOL    HW285980   5.562   2.473   9.783
61381SOL     OW85981   8.638   8.731   6.174
61381SOL    HW185982   8.691   8.668   6.221
61381SOL    HW285983   8.609   8.685   6.095
61382SOL     OW85984   8.194   9.149  13.094
61382SOL    HW185985   8.262   9.089  13.063
61382SOL    HW285986   8.117   9.094  13.104
61383SOL     OW85987  13.281   6.992  10.586
61383SOL    HW185988  13.237   7.072  10.558
61383SOL    HW285989  13.336   6.968  10.511
61384SOL     OW85990   0.098  14.753  12.465
61384SOL    HW185991   0.127  14.843  12.451
61384SOL    HW285992   0.177  14.700  12.460
61385SOL     OW85993   2.479  12.761   8.662
61385SOL    HW185994   2.442  12.818   8.595
61385SOL    HW285995   2.490  12.817   8.738
61386SOL     OW85996   0.384   2.297  10.051
61386SOL    HW185997   0.364   2.296  10.145
61386SOL    HW285998   0.465   2.348  10.044
61387SOL     OW85999   4.200  13.359  10.835
61387SOL    HW186000   4.184  13.332  10.744
61387SOL    HW286001   4.191  13.279  10.886
61388SOL     OW86002  14.824   7.324  14.531
61388SOL    HW186003  14.734   7.356  14.540
61388SOL    HW286004  14.879   7.395  14.564
61389SOL     OW86005   3.807   1.380  14.854
61389SOL    HW186006   3.835   1.395   0.065
61389SOL    HW286007   3.860   1.440  14.802
61390SOL     OW86008   2.535  11.175   8.113
61390SOL    HW186009   2.602  11.131   8.059
61390SOL    HW286010   2.546  11.268   8.094
61391SOL     OW86011  13.060   6.140   5.767
61391SOL    HW186012  13.052   6.065   5.708
61391SOL    HW286013  12.980   6.190   5.753
61392SOL     OW86014   2.777   7.366   9.749
61392SOL    HW186015   2.863   7.395   9.779
61392SOL    HW286016   2.765   7.280   9.790
61393SOL     OW86017   0.413   3.670   0.580
61393SOL    HW186018   0.346   3.738   0.580
61393SOL    HW286019   0.409   3.632   0.668
61394SOL     OW86020  14.459  10.159   7.219
61394SOL    HW186021  14.503  10.080   7.252
61394SOL    HW286022  14.498  10.231   7.268
61395SOL     OW86023   3.207   5.586  11.396
61395SOL    HW186024   3.196   5.661  11.455
61395SOL    HW286025   3.136   5.527  11.419
61396SOL     OW86026  12.890   8.251   0.375
61396SOL    HW186027  12.825   8.322   0.374
61396SOL    HW286028  12.911   8.239   0.468
61397SOL     OW86029  12.569   8.076  12.747
61397SOL    HW186030  12.635   8.023  12.793
61397SOL    HW286031  12.608   8.092  12.661
61398SOL     OW86032  14.332   3.207   7.332
61398SOL    HW186033  14.266   3.253   7.384
61398SOL    HW286034  14.414   3.222   7.380
61399SOL     OW86035   1.065  10.068   0.337
61399SOL    HW186036   1.121  10.021   0.276
61399SOL    HW286037   1.090  10.034   0.423
61400SOL     OW86038   0.122  11.326   8.772
61400SOL    HW186039   0.064  11.255   8.798
61400SOL    HW286040   0.103  11.339   8.679
61401SOL     OW86041  12.849   5.096  13.362
61401SOL    HW186042  12.839   5.101  13.267
61401SOL    HW286043  12.865   5.003  13.380
61402SOL     OW86044   1.367   4.249  11.842
61402SOL    HW186045   1.361   4.341  11.865
61402SOL    HW286046   1.458   4.237  11.815
61403SOL     OW86047   7.345   0.908   4.898
61403SOL    HW186048   7.440   0.899   4.885
61403SOL    HW286049   7.307   0.842   4.841
61404SOL     OW86050   6.756   7.999   6.677
61404SOL    HW186051   6.840   7.975   6.637
61404SOL    HW286052   6.693   7.937   6.640
61405SOL     OW86053   2.796  11.601   6.692
61405SOL    HW186054   2.799  11.669   6.760
61405SOL    HW286055   2.861  11.537   6.719
61406SOL     OW86056   9.555   2.835  10.401
61406SOL    HW186057   9.609   2.903  10.442
61406SOL    HW286058   9.474   2.881  10.377
61407SOL     OW86059   3.154   0.560   1.950
61407SOL    HW186060   3.097   0.622   1.995
61407SOL    HW286061   3.095   0.509   1.894
61408SOL     OW86062   0.325   5.621   1.872
61408SOL    HW186063   0.296   5.573   1.949
61408SOL    HW286064   0.305   5.563   1.799
61409SOL     OW86065  12.403   5.652   5.151
61409SOL    HW186066  12.353   5.570   5.161
61409SOL    HW286067  12.495   5.624   5.148
61410SOL     OW86068   3.217  13.192   2.589
61410SOL    HW186069   3.277  13.118   2.576
61410SOL    HW286070   3.207  13.199   2.684
61411SOL     OW86071   2.733   9.803   9.548
61411SOL    HW186072   2.743   9.736   9.481
61411SOL    HW286073   2.706   9.755   9.626
61412SOL     OW86074   3.547   1.398  11.983
61412SOL    HW186075   3.551   1.302  11.986
61412SOL    HW286076   3.626   1.424  11.935
61413SOL     OW86077   6.704   3.955   3.950
61413SOL    HW186078   6.673   3.866   3.932
61413SOL    HW286079   6.648   4.012   3.898
61414SOL     OW86080  14.572   5.942  11.142
61414SOL    HW186081  14.616   5.873  11.192
61414SOL    HW286082  14.478   5.923  11.152
61415SOL     OW86083  10.442   5.729   8.140
61415SOL    HW186084  10.430   5.758   8.230
61415SOL    HW286085  10.423   5.806   8.087
61416SOL     OW86086  11.528   6.409  12.930
61416SOL    HW186087  11.563   6.405  13.018
61416SOL    HW286088  11.522   6.318  12.901
61417SOL     OW86089  13.734   1.819   6.541
61417SOL    HW186090  13.640   1.804   6.550
61417SOL    HW286091  13.741   1.883   6.470
61418SOL     OW86092   8.027  11.816  13.333
61418SOL    HW186093   8.098  11.793  13.274
61418SOL    HW286094   8.061  11.889  13.385
61419SOL     OW86095   5.490  11.190  11.435
61419SOL    HW186096   5.537  11.202  11.517
61419SOL    HW286097   5.552  11.221  11.368
61420SOL     OW86098  14.547   3.564  12.739
61420SOL    HW186099  14.458   3.597  12.749
61420SOL    HW286100  14.598   3.613  12.802
61421SOL     OW86101   4.083   8.521  14.595
61421SOL    HW186102   4.166   8.565  14.615
61421SOL    HW286103   4.021   8.592  14.579
61422SOL     OW86104   1.337   4.089   9.024
61422SOL    HW186105   1.254   4.050   9.053
61422SOL    HW286106   1.312   4.150   8.955
61423SOL     OW86107  13.134   1.501   0.236
61423SOL    HW186108  13.195   1.575   0.239
61423SOL    HW286109  13.188   1.424   0.255
61424SOL     OW86110   4.307   8.916   5.544
61424SOL    HW186111   4.394   8.907   5.504
61424SOL    HW286112   4.304   9.005   5.577
61425SOL     OW86113   0.611   8.927  10.834
61425SOL    HW186114   0.567   8.947  10.752
61425SOL    HW286115   0.695   8.972  10.828
61426SOL     OW86116  10.211   9.398  13.549
61426SOL    HW186117  10.188   9.334  13.617
61426SOL    HW286118  10.242   9.345  13.476
61427SOL     OW86119   2.161  13.807  12.776
61427SOL    HW186120   2.097  13.836  12.841
61427SOL    HW286121   2.206  13.734  12.817
61428SOL     OW86122  10.782   6.382   1.391
61428SOL    HW186123  10.797   6.289   1.375
61428SOL    HW286124  10.705   6.404   1.339
61429SOL     OW86125   0.093  10.893   3.035
61429SOL    HW186126   0.064  10.802   3.038
61429SOL    HW286127   0.013  10.944   3.020
61430SOL     OW86128  11.344   9.194   6.797
61430SOL    HW186129  11.399   9.154   6.730
61430SOL    HW286130  11.387   9.278   6.816
61431SOL     OW86131   0.943   0.608   5.220
61431SOL    HW186132   0.904   0.526   5.192
61431SOL    HW286133   0.870   0.660   5.253
61432SOL     OW86134  14.781  14.225   3.304
61432SOL    HW186135  14.805  14.245   3.214
61432SOL    HW286136  14.839  14.153   3.329
61433SOL     OW86137  12.203  12.868   3.871
61433SOL    HW186138  12.254  12.807   3.925
61433SOL    HW286139  12.147  12.812   3.818
61434SOL     OW86140  13.808  12.209   9.498
61434SOL    HW186141  13.717  12.196   9.527
61434SOL    HW286142  13.852  12.249   9.573
61435SOL     OW86143   4.547  12.407  11.121
61435SOL    HW186144   4.556  12.501  11.108
61435SOL    HW286145   4.638  12.375  11.125
61436SOL     OW86146   9.582   2.345   9.408
61436SOL    HW186147   9.522   2.395   9.464
61436SOL    HW286148   9.637   2.411   9.366
61437SOL     OW86149   5.840   0.765   9.643
61437SOL    HW186150   5.758   0.811   9.662
61437SOL    HW286151   5.812   0.681   9.607
61438SOL     OW86152   1.103   9.913   6.660
61438SOL    HW186153   1.090  10.004   6.633
61438SOL    HW286154   1.081   9.912   6.753
61439SOL     OW86155   0.307   6.371   1.729
61439SOL    HW186156   0.379   6.414   1.776
61439SOL    HW286157   0.249   6.442   1.703
61440SOL     OW86158   7.866   9.390   0.739
61440SOL    HW186159   7.897   9.437   0.662
61440SOL    HW286160   7.853   9.459   0.805
61441SOL     OW86161  13.939  10.031   8.682
61441SOL    HW186162  13.852  10.014   8.643
61441SOL    HW286163  13.988  10.074   8.611
61442SOL     OW86164   5.665   6.866   2.368
61442SOL    HW186165   5.668   6.821   2.453
61442SOL    HW286166   5.571   6.873   2.349
61443SOL     OW86167   9.021   7.425   2.361
61443SOL    HW186168   9.081   7.498   2.348
61443SOL    HW286169   8.956   7.459   2.423
61444SOL     OW86170   4.122  12.642  13.134
61444SOL    HW186171   4.112  12.709  13.066
61444SOL    HW286172   4.216  12.623  13.135
61445SOL     OW86173  14.449  10.923  12.315
61445SOL    HW186174  14.477  10.994  12.258
61445SOL    HW286175  14.399  10.966  12.385
61446SOL     OW86176   7.752  10.226   5.797
61446SOL    HW186177   7.777  10.145   5.753
61446SOL    HW286178   7.809  10.230   5.874
61447SOL     OW86179   0.271  12.608   9.751
61447SOL    HW186180   0.269  12.673   9.681
61447SOL    HW286181   0.364  12.591   9.765
61448SOL     OW86182   1.804   8.330   8.875
61448SOL    HW186183   1.753   8.355   8.953
61448SOL    HW286184   1.891   8.367   8.890
61449SOL     OW86185   9.028  10.322   2.332
61449SOL    HW186186   9.100  10.372   2.293
61449SOL    HW286187   9.021  10.356   2.421
61450SOL     OW86188   4.640   0.736   9.960
61450SOL    HW186189   4.615   0.648   9.933
61450SOL    HW286190   4.716   0.723  10.016
61451SOL     OW86191  10.950   6.069   1.149
61451SOL    HW186192  11.036   6.030   1.140
61451SOL    HW286193  10.917   6.079   1.060
61452SOL     OW86194   2.877  12.937   9.442
61452SOL    HW186195   2.968  12.949   9.467
61452SOL    HW286196   2.880  12.903   9.353
61453SOL     OW86197   6.393  14.785   1.183
61453SOL    HW186198   6.308  14.782   1.227
61453SOL    HW286199   6.457  14.777   1.253
61454SOL     OW86200   2.639  13.210   5.939
61454SOL    HW186201   2.721  13.164   5.957
61454SOL    HW286202   2.635  13.278   6.006
61455SOL     OW86203   3.396  12.801  14.745
61455SOL    HW186204   3.322  12.789  14.684
61455SOL    HW286205   3.392  12.894  14.768
61456SOL     OW86206   2.704   1.684  14.560
61456SOL    HW186207   2.781   1.637  14.592
61456SOL    HW286208   2.633   1.620  14.562
61457SOL     OW86209   7.076   1.221   5.423
61457SOL    HW186210   7.014   1.243   5.353
61457SOL    HW286211   7.146   1.285   5.413
61458SOL     OW86212   5.655  12.753   5.218
61458SOL    HW186213   5.635  12.761   5.124
61458SOL    HW286214   5.631  12.838   5.255
61459SOL     OW86215  12.757   4.664  10.704
61459SOL    HW186216  12.833   4.701  10.660
61459SOL    HW286217  12.703   4.629  10.633
61460SOL     OW86218  11.005   2.672   9.647
61460SOL    HW186219  11.079   2.620   9.616
61460SOL    HW286220  10.980   2.631   9.730
61461SOL     OW86221  14.103   1.737   2.132
61461SOL    HW186222  14.168   1.766   2.068
61461SOL    HW286223  14.155   1.715   2.210
61462SOL     OW86224   1.689   0.320   1.484
61462SOL    HW186225   1.633   0.253   1.445
61462SOL    HW286226   1.728   0.276   1.560
61463SOL     OW86227  10.165  11.015   9.362
61463SOL    HW186228  10.211  11.081   9.310
61463SOL    HW286229  10.200  10.931   9.332
61464SOL     OW86230   5.696   3.656   8.736
61464SOL    HW186231   5.632   3.727   8.733
61464SOL    HW286232   5.662   3.597   8.804
61465SOL     OW86233   8.719  10.030   6.214
61465SOL    HW186234   8.774  10.000   6.142
61465SOL    HW286235   8.641   9.975   6.209
61466SOL     OW86236   6.662  12.232  14.177
61466SOL    HW186237   6.747  12.222  14.135
61466SOL    HW286238   6.622  12.145  14.172
61467SOL     OW86239  10.751   4.738   9.577
61467SOL    HW186240  10.789   4.824   9.557
61467SOL    HW286241  10.813   4.698   9.637
61468SOL     OW86242   9.194   0.774   4.504
61468SOL    HW186243   9.267   0.723   4.538
61468SOL    HW286244   9.234   0.833   4.440
61469SOL     OW86245  11.042  11.365   1.534
61469SOL    HW186246  11.006  11.436   1.480
61469SOL    HW286247  11.120  11.403   1.575
61470SOL     OW86248  12.662   8.979  14.616
61470SOL    HW186249  12.696   8.982  14.705
61470SOL    HW286250  12.740   8.979  14.560
61471SOL     OW86251   5.683   2.565  12.129
61471SOL    HW186252   5.774   2.539  12.115
61471SOL    HW286253   5.688   2.646  12.179
61472SOL     OW86254   3.161  13.488   7.004
61472SOL    HW186255   3.073  13.464   6.974
61472SOL    HW286256   3.200  13.532   6.929
61473SOL     OW86257   8.871  12.899   3.556
61473SOL    HW186258   8.835  12.988   3.549
61473SOL    HW286259   8.807  12.852   3.609
61474SOL     OW86260   2.012   5.872   6.598
61474SOL    HW186261   2.022   5.967   6.602
61474SOL    HW286262   2.101   5.839   6.590
61475SOL     OW86263   4.774   5.563  13.713
61475SOL    HW186264   4.695   5.513  13.693
61475SOL    HW286265   4.774   5.634  13.649
61476SOL     OW86266  10.995   7.469   2.613
61476SOL    HW186267  10.961   7.455   2.701
61476SOL    HW286268  10.940   7.414   2.557
61477SOL     OW86269   4.058  12.933   2.172
61477SOL    HW186270   4.009  12.852   2.188
61477SOL    HW286271   3.991  13.001   2.166
61478SOL     OW86272   8.410   2.135   8.050
61478SOL    HW186273   8.436   2.047   8.079
61478SOL    HW286274   8.372   2.176   8.127
61479SOL     OW86275   7.646  13.427   6.705
61479SOL    HW186276   7.688  13.376   6.636
61479SOL    HW286277   7.590  13.364   6.751
61480SOL     OW86278   9.307   3.167   2.842
61480SOL    HW186279   9.349   3.086   2.815
61480SOL    HW286280   9.364   3.236   2.809
61481SOL     OW86281   0.341   3.372  12.776
61481SOL    HW186282   0.341   3.313  12.852
61481SOL    HW286283   0.263   3.347  12.726
61482SOL     OW86284  12.009   9.516   9.645
61482SOL    HW186285  12.095   9.556   9.632
61482SOL    HW286286  12.015   9.431   9.601
61483SOL     OW86287   8.119   3.299   9.704
61483SOL    HW186288   8.140   3.388   9.732
61483SOL    HW286289   8.077   3.310   9.619
61484SOL     OW86290   9.196   1.862   2.593
61484SOL    HW186291   9.181   1.889   2.502
61484SOL    HW286292   9.119   1.892   2.641
61485SOL     OW86293  14.459  13.213   6.893
61485SOL    HW186294  14.437  13.193   6.802
61485SOL    HW286295  14.430  13.136   6.942
61486SOL     OW86296  11.364   3.790   3.365
61486SOL    HW186297  11.320   3.781   3.449
61486SOL    HW286298  11.455   3.769   3.382
61487SOL     OW86299   4.214  10.238  10.502
61487SOL    HW186300   4.222  10.316  10.446
61487SOL    HW286301   4.254  10.265  10.585
61488SOL     OW86302  12.940   9.599   5.245
61488SOL    HW186303  12.876   9.670   5.249
61488SOL    HW286304  13.019   9.639   5.210
61489SOL     OW86305  11.786  10.788   9.136
61489SOL    HW186306  11.704  10.834   9.119
61489SOL    HW286307  11.761  10.696   9.145
61490SOL     OW86308   8.091  10.292  12.221
61490SOL    HW186309   8.053  10.379  12.235
61490SOL    HW286310   8.058  10.265  12.136
61491SOL     OW86311   2.085   3.890   8.717
61491SOL    HW186312   2.118   3.951   8.783
61491SOL    HW286313   2.079   3.943   8.637
61492SOL     OW86314   8.888  14.513  12.756
61492SOL    HW186315   8.896  14.497  12.850
61492SOL    HW286316   8.969  14.558  12.732
61493SOL     OW86317   1.897   3.327  10.637
61493SOL    HW186318   1.853   3.299  10.717
61493SOL    HW286319   1.826   3.361  10.582
61494SOL     OW86320   2.250  10.934   8.457
61494SOL    HW186321   2.194  10.875   8.507
61494SOL    HW286322   2.215  10.931   8.368
61495SOL     OW86323   8.359  10.941   5.136
61495SOL    HW186324   8.444  10.985   5.128
61495SOL    HW286325   8.368  10.885   5.213
61496SOL     OW86326   5.544  10.624   4.234
61496SOL    HW186327   5.637  10.608   4.252
61496SOL    HW286328   5.498  10.570   4.299
61497SOL     OW86329   8.757   9.639  10.827
61497SOL    HW186330   8.797   9.614  10.910
61497SOL    HW286331   8.711   9.560  10.797
61498SOL     OW86332  13.324   7.866   7.479
61498SOL    HW186333  13.271   7.885   7.557
61498SOL    HW286334  13.404   7.916   7.491
61499SOL     OW86335   6.923  13.839  11.431
61499SOL    HW186336   6.915  13.750  11.465
61499SOL    HW286337   6.922  13.894  11.510
61500SOL     OW86338   2.944   1.320   4.461
61500SOL    HW186339   2.885   1.357   4.396
61500SOL    HW286340   2.945   1.385   4.532
61501SOL     OW86341   9.666   8.785   9.523
61501SOL    HW186342   9.710   8.813   9.443
61501SOL    HW286343   9.738   8.764   9.583
61502SOL     OW86344  11.660   0.817  13.857
61502SOL    HW186345  11.719   0.749  13.825
61502SOL    HW286346  11.650   0.799  13.950
61503SOL     OW86347   7.834   2.158   0.867
61503SOL    HW186348   7.831   2.229   0.803
61503SOL    HW286349   7.760   2.176   0.926
61504SOL     OW86350  10.379   4.485   9.533
61504SOL    HW186351  10.365   4.492   9.628
61504SOL    HW286352  10.317   4.548   9.496
61505SOL     OW86353   0.454  13.818   4.481
61505SOL    HW186354   0.495  13.735   4.455
61505SOL    HW286355   0.497  13.840   4.563
61506SOL     OW86356   0.818  11.823   5.747
61506SOL    HW186357   0.776  11.842   5.831
61506SOL    HW286358   0.761  11.865   5.683
61507SOL     OW86359  11.426   6.540   2.381
61507SOL    HW186360  11.369   6.564   2.308
61507SOL    HW286361  11.510   6.520   2.340
61508SOL     OW86362  13.179   5.298  11.153
61508SOL    HW186363  13.202   5.363  11.220
61508SOL    HW286364  13.251   5.235  11.155
61509SOL     OW86365  12.284   9.203   8.326
61509SOL    HW186366  12.213   9.227   8.265
61509SOL    HW286367  12.364   9.214   8.275
61510SOL     OW86368   5.130  13.670   8.221
61510SOL    HW186369   5.196  13.650   8.154
61510SOL    HW286370   5.136  13.765   8.233
61511SOL     OW86371   7.714   4.536  11.574
61511SOL    HW186372   7.738   4.444  11.589
61511SOL    HW286373   7.666   4.534  11.491
61512SOL     OW86374   9.166  14.739   5.219
61512SOL    HW186375   9.148  14.732   5.313
61512SOL    HW286376   9.082  14.764   5.180
61513SOL     OW86377   3.613   8.528  11.185
61513SOL    HW186378   3.587   8.515  11.093
61513SOL    HW286379   3.682   8.595  11.180
61514SOL     OW86380  12.235  10.677   7.226
61514SOL    HW186381  12.265  10.745   7.165
61514SOL    HW286382  12.207  10.605   7.170
61515SOL     OW86383   4.860   0.865  14.878
61515SOL    HW186384   4.892   0.946   0.038
61515SOL    HW286385   4.936   0.830  14.832
61516SOL     OW86386  14.611   8.727  12.232
61516SOL    HW186387  14.659   8.655  12.192
61516SOL    HW286388  14.566   8.769  12.158
61517SOL     OW86389   4.553   8.548   8.411
61517SOL    HW186390   4.557   8.514   8.501
61517SOL    HW286391   4.572   8.472   8.356
61518SOL     OW86392   2.203   8.005  11.198
61518SOL    HW186393   2.173   8.024  11.110
61518SOL    HW286394   2.234   8.089  11.232
61519SOL     OW86395   8.264   4.079  13.720
61519SOL    HW186396   8.177   4.088  13.682
61519SOL    HW286397   8.256   4.119  13.807
61520SOL     OW86398  11.837  11.964   0.493
61520SOL    HW186399  11.921  11.936   0.456
61520SOL    HW286400  11.782  11.886   0.489
61521SOL     OW86401   3.921   0.090   7.033
61521SOL    HW186402   3.934   0.119   7.124
61521SOL    HW286403   3.872   0.162   6.992
61522SOL     OW86404   5.363  14.112  13.802
61522SOL    HW186405   5.416  14.035  13.822
61522SOL    HW286406   5.326  14.095  13.716
61523SOL     OW86407  11.671   8.632   2.596
61523SOL    HW186408  11.765   8.625   2.585
61523SOL    HW286409  11.640   8.541   2.595
61524SOL     OW86410   3.923   9.285  11.812
61524SOL    HW186411   3.977   9.287  11.891
61524SOL    HW286412   3.923   9.376  11.781
61525SOL     OW86413   6.466   7.244  11.047
61525SOL    HW186414   6.439   7.318  10.992
61525SOL    HW286415   6.548   7.214  11.008
61526SOL     OW86416   1.330   4.474   4.546
61526SOL    HW186417   1.365   4.389   4.572
61526SOL    HW286418   1.399   4.536   4.570
61527SOL     OW86419   2.681   5.291   2.162
61527SOL    HW186420   2.718   5.339   2.088
61527SOL    HW286421   2.758   5.255   2.208
61528SOL     OW86422   4.184  12.360   4.839
61528SOL    HW186423   4.191  12.296   4.769
61528SOL    HW286424   4.197  12.445   4.797
61529SOL     OW86425  10.224   9.549   6.674
61529SOL    HW186426  10.163   9.601   6.622
61529SOL    HW286427  10.246   9.475   6.618
61530SOL     OW86428   8.372  14.855  12.074
61530SOL    HW186429   8.457  14.812  12.087
61530SOL    HW286430   8.330  14.803  12.005
61531SOL     OW86431  14.683   1.267   3.762
61531SOL    HW186432  14.623   1.340   3.778
61531SOL    HW286433  14.654   1.198   3.822
61532SOL     OW86434   9.355   8.943   7.564
61532SOL    HW186435   9.403   8.960   7.645
61532SOL    HW286436   9.280   8.890   7.590
61533SOL     OW86437  13.952   9.518  13.560
61533SOL    HW186438  13.973   9.457  13.631
61533SOL    HW286439  14.036   9.535  13.517
61534SOL     OW86440  13.666  14.474   4.912
61534SOL    HW186441  13.619  14.512   4.838
61534SOL    HW286442  13.758  14.485   4.891
61535SOL     OW86443   7.043   9.538  10.629
61535SOL    HW186444   7.075   9.626  10.607
61535SOL    HW286445   7.088   9.516  10.711
61536SOL     OW86446  13.635   8.351   5.639
61536SOL    HW186447  13.603   8.383   5.723
61536SOL    HW286448  13.725   8.383   5.634
61537SOL     OW86449   9.819  11.549  12.981
61537SOL    HW186450   9.747  11.581  12.926
61537SOL    HW286451   9.817  11.607  13.058
61538SOL     OW86452   9.042   6.398  10.841
61538SOL    HW186453   9.073   6.398  10.750
61538SOL    HW286454   9.062   6.310  10.874
61539SOL     OW86455   4.283   7.459   9.736
61539SOL    HW186456   4.329   7.423   9.812
61539SOL    HW286457   4.274   7.552   9.756
61540SOL     OW86458  14.794  10.251   9.589
61540SOL    HW186459  14.826  10.335   9.623
61540SOL    HW286460  14.700  10.253   9.604
61541SOL     OW86461  14.878   6.704  10.424
61541SOL    HW186462   0.072   6.765  10.419
61541SOL    HW286463   0.038   6.617  10.423
61542SOL     OW86464   7.639   0.433   5.882
61542SOL    HW186465   7.596   0.372   5.822
61542SOL    HW286466   7.631   0.391   5.968
61543SOL     OW86467   7.991  13.142   4.357
61543SOL    HW186468   8.038  13.222   4.377
61543SOL    HW286469   8.022  13.117   4.270
61544SOL     OW86470   3.931   6.921  14.284
61544SOL    HW186471   3.844   6.916  14.323
61544SOL    HW286472   3.983   6.969  14.348
61545SOL     OW86473   6.091   1.947  13.295
61545SOL    HW186474   6.135   2.021  13.336
61545SOL    HW286475   6.050   1.985  13.217
61546SOL     OW86476  13.672   6.783   1.414
61546SOL    HW186477  13.595   6.746   1.369
61546SOL    HW286478  13.746   6.756   1.360
61547SOL     OW86479   9.917  13.802  14.833
61547SOL    HW186480   9.945  13.755   0.032
61547SOL    HW286481   9.843  13.856  14.861
61548SOL     OW86482   1.414  12.597   1.316
61548SOL    HW186483   1.462  12.667   1.360
61548SOL    HW286484   1.451  12.594   1.228
61549SOL     OW86485  10.971   8.630   9.580
61549SOL    HW186486  11.043   8.684   9.612
61549SOL    HW286487  11.014   8.565   9.524
61550SOL     OW86488   2.819   0.543  12.536
61550SOL    HW186489   2.857   0.619  12.580
61550SOL    HW286490   2.735   0.575  12.501
61551SOL     OW86491   9.007   1.103   9.748
61551SOL    HW186492   9.077   1.039   9.745
61551SOL    HW286493   8.951   1.075   9.821
61552SOL     OW86494   1.512   0.925   5.868
61552SOL    HW186495   1.590   0.938   5.923
61552SOL    HW286496   1.506   1.006   5.816
61553SOL     OW86497   7.320   4.904   7.613
61553SOL    HW186498   7.274   4.821   7.628
61553SOL    HW286499   7.281   4.938   7.533
61554SOL     OW86500   3.289   1.957   4.341
61554SOL    HW186501   3.285   1.979   4.248
61554SOL    HW286502   3.379   1.926   4.355
61555SOL     OW86503   7.091  13.440   0.276
61555SOL    HW186504   7.132  13.403   0.354
61555SOL    HW286505   6.997  13.426   0.290
61556SOL     OW86506  12.977   7.477  11.608
61556SOL    HW186507  12.911   7.419  11.646
61556SOL    HW286508  12.949   7.565  11.635
61557SOL     OW86509  10.068  14.770   0.585
61557SOL    HW186510  10.159  14.767   0.556
61557SOL    HW286511  10.060  14.698   0.648
61558SOL     OW86512  11.824   6.693   2.231
61558SOL    HW186513  11.864   6.725   2.312
61558SOL    HW286514  11.861   6.750   2.163
61559SOL     OW86515   6.462   7.271  14.441
61559SOL    HW186516   6.469   7.353  14.491
61559SOL    HW286517   6.368   7.256  14.433
61560SOL     OW86518   5.860   4.943   6.710
61560SOL    HW186519   5.768   4.959   6.690
61560SOL    HW286520   5.907   4.985   6.638
61561SOL     OW86521   4.922  11.947   7.785
61561SOL    HW186522   4.915  12.011   7.714
61561SOL    HW286523   4.956  11.868   7.744
61562SOL     OW86524   6.510  10.055   3.118
61562SOL    HW186525   6.528  10.104   3.037
61562SOL    HW286526   6.441   9.993   3.093
61563SOL     OW86527   5.357   6.343   0.852
61563SOL    HW186528   5.398   6.261   0.825
61563SOL    HW286529   5.430   6.401   0.871
61564SOL     OW86530  11.261   6.598   7.952
61564SOL    HW186531  11.181   6.545   7.943
61564SOL    HW286532  11.261   6.625   8.043
61565SOL     OW86533  13.365   8.430   8.821
61565SOL    HW186534  13.371   8.341   8.786
61565SOL    HW286535  13.394   8.486   8.750
61566SOL     OW86536   2.760   7.403   6.924
61566SOL    HW186537   2.836   7.431   6.872
61566SOL    HW286538   2.695   7.471   6.911
61567SOL     OW86539  11.803  12.190   1.642
61567SOL    HW186540  11.783  12.180   1.735
61567SOL    HW286541  11.758  12.271   1.616
61568SOL     OW86542   4.512   0.893   1.544
61568SOL    HW186543   4.577   0.892   1.614
61568SOL    HW286544   4.428   0.889   1.589
61569SOL     OW86545   7.440  11.880   8.358
61569SOL    HW186546   7.497  11.957   8.362
61569SOL    HW286547   7.409  11.879   8.267
61570SOL     OW86548   0.978   7.315  11.789
61570SOL    HW186549   0.982   7.234  11.737
61570SOL    HW286550   0.887   7.321  11.818
61571SOL     OW86551   2.414  12.714   5.286
61571SOL    HW186552   2.400  12.640   5.226
61571SOL    HW286553   2.496  12.753   5.258
61572SOL     OW86554   1.304  13.245   8.523
61572SOL    HW186555   1.268  13.319   8.475
61572SOL    HW286556   1.335  13.282   8.606
61573SOL     OW86557   0.427  14.247  14.054
61573SOL    HW186558   0.405  14.154  14.058
61573SOL    HW286559   0.349  14.292  14.087
61574SOL     OW86560  12.295   5.187   2.381
61574SOL    HW186561  12.249   5.180   2.465
61574SOL    HW286562  12.281   5.102   2.339
61575SOL     OW86563  10.213  14.626  11.332
61575SOL    HW186564  10.197  14.642  11.425
61575SOL    HW286565  10.286  14.563  11.330
61576SOL     OW86566   9.548   4.849  11.106
61576SOL    HW186567   9.525   4.940  11.087
61576SOL    HW286568   9.549   4.807  11.021
61577SOL     OW86569   1.898   2.485  12.608
61577SOL    HW186570   1.992   2.490  12.624
61577SOL    HW286571   1.875   2.394  12.630
61578SOL     OW86572   9.938   0.564  12.263
61578SOL    HW186573   9.909   0.514  12.339
61578SOL    HW286574   9.996   0.504  12.215
61579SOL     OW86575  10.062   4.659  13.769
61579SOL    HW186576  10.135   4.643  13.709
61579SOL    HW286577  10.103   4.679  13.853
61580SOL     OW86578  11.876   2.598   9.635
61580SOL    HW186579  11.829   2.550   9.703
61580SOL    HW286580  11.839   2.686   9.637
61581SOL     OW86581   1.765   0.000   2.444
61581SOL    HW186582   1.762   0.088   2.406
61581SOL    HW286583   1.857  14.868   2.470
61582SOL     OW86584   6.526   5.173  11.587
61582SOL    HW186585   6.440   5.173  11.630
61582SOL    HW286586   6.589   5.165  11.659
61583SOL     OW86587  11.848  11.621  11.565
61583SOL    HW186588  11.820  11.713  11.567
61583SOL    HW286589  11.795  11.582  11.496
61584SOL     OW86590   6.730   9.729   0.273
61584SOL    HW186591   6.638   9.709   0.253
61584SOL    HW286592   6.780   9.675   0.212
61585SOL     OW86593   1.000  11.416   7.925
61585SOL    HW186594   0.998  11.496   7.977
61585SOL    HW286595   1.010  11.446   7.835
61586SOL     OW86596  13.745   9.536  11.459
61586SOL    HW186597  13.695   9.498  11.531
61586SOL    HW286598  13.694   9.612  11.431
61587SOL     OW86599   6.897   2.510   7.226
61587SOL    HW186600   6.876   2.523   7.318
61587SOL    HW286601   6.885   2.416   7.212
61588SOL     OW86602  14.119   1.809   3.369
61588SOL    HW186603  14.164   1.892   3.384
61588SOL    HW286604  14.074   1.791   3.452
61589SOL     OW86605   2.522  11.658   3.333
61589SOL    HW186606   2.586  11.659   3.261
61589SOL    HW286607   2.570  11.692   3.408
61590SOL     OW86608   8.006   5.934   1.212
61590SOL    HW186609   8.059   5.962   1.137
61590SOL    HW286610   8.042   5.984   1.286
61591SOL     OW86611   8.311   0.534   5.683
61591SOL    HW186612   8.281   0.620   5.655
61591SOL    HW286613   8.249   0.473   5.643
61592SOL     OW86614   3.112  12.523  14.734
61592SOL    HW186615   3.142  12.467  14.663
61592SOL    HW286616   3.047  12.470  14.781
61593SOL     OW86617   2.345   0.355   5.676
61593SOL    HW186618   2.415   0.400   5.629
61593SOL    HW286619   2.267   0.408   5.661
61594SOL     OW86620  14.733   6.237   7.465
61594SOL    HW186621  14.699   6.163   7.414
61594SOL    HW286622  14.672   6.308   7.448
61595SOL     OW86623   5.945   6.685  14.816
61595SOL    HW186624   5.970   6.694  14.724
61595SOL    HW286625   5.869   6.627  14.814
61596SOL     OW86626  11.574   7.546   3.707
61596SOL    HW186627  11.659   7.564   3.746
61596SOL    HW286628  11.546   7.630   3.670
61597SOL     OW86629  12.065   3.740   4.666
61597SOL    HW186630  12.053   3.733   4.571
61597SOL    HW286631  12.004   3.809   4.693
61598SOL     OW86632  14.046   9.408  14.255
61598SOL    HW186633  14.023   9.330  14.205
61598SOL    HW286634  13.965   9.431  14.301
61599SOL     OW86635   8.740  14.229   2.050
61599SOL    HW186636   8.733  14.151   2.105
61599SOL    HW286637   8.662  14.279   2.070
61600SOL     OW86638  11.470   1.671   5.229
61600SOL    HW186639  11.404   1.605   5.208
61600SOL    HW286640  11.493   1.711   5.145
61601SOL     OW86641   7.025   1.827   5.752
61601SOL    HW186642   7.005   1.805   5.660
61601SOL    HW286643   7.096   1.890   5.747
61602SOL     OW86644   1.256   1.098   9.265
61602SOL    HW186645   1.241   1.018   9.215
61602SOL    HW286646   1.168   1.130   9.286
61603SOL     OW86647   9.730   1.242   9.615
61603SOL    HW186648   9.719   1.214   9.524
61603SOL    HW286649   9.774   1.168   9.657
61604SOL     OW86650   6.052   9.503  14.725
61604SOL    HW186651   6.024   9.529  14.637
61604SOL    HW286652   5.972   9.506  14.777
61605SOL     OW86653  12.991  10.303   4.728
61605SOL    HW186654  12.969  10.340   4.813
61605SOL    HW286655  13.087  10.299   4.728
61606SOL     OW86656   2.960   8.756  12.262
61606SOL    HW186657   2.949   8.724  12.352
61606SOL    HW286658   3.028   8.700  12.225
61607SOL     OW86659   1.146   2.788  13.676
61607SOL    HW186660   1.123   2.866  13.626
61607SOL    HW286661   1.114   2.715  13.623
61608SOL     OW86662  11.457  11.356   0.717
61608SOL    HW186663  11.458  11.427   0.781
61608SOL    HW286664  11.392  11.384   0.652
61609SOL     OW86665   7.360   7.357  14.255
61609SOL    HW186666   7.376   7.265  14.237
61609SOL    HW286667   7.417   7.377  14.330
61610SOL     OW86668  13.254  14.610   0.280
61610SOL    HW186669  13.290  14.526   0.310
61610SOL    HW286670  13.168  14.614   0.321
61611SOL     OW86671   6.347   6.489  10.039
61611SOL    HW186672   6.295   6.560  10.002
61611SOL    HW286673   6.416   6.532  10.088
61612SOL     OW86674   7.218  12.828  13.783
61612SOL    HW186675   7.297  12.822  13.837
61612SOL    HW286676   7.244  12.793  13.698
61613SOL     OW86677   6.442  10.618   6.980
61613SOL    HW186678   6.349  10.620   6.999
61613SOL    HW286679   6.482  10.582   7.059
61614SOL     OW86680  14.601  10.239   0.529
61614SOL    HW186681  14.548  10.318   0.514
61614SOL    HW286682  14.691  10.269   0.520
61615SOL     OW86683  14.686   5.736  14.801
61615SOL    HW186684  14.762   5.687  14.832
61615SOL    HW286685  14.702   5.752  14.709
61616SOL     OW86686   0.914   1.154   4.088
61616SOL    HW186687   0.838   1.212   4.094
61616SOL    HW286688   0.927   1.122   4.177
61617SOL     OW86689   2.192   9.302   3.764
61617SOL    HW186690   2.215   9.326   3.853
61617SOL    HW286691   2.124   9.365   3.739
61618SOL     OW86692  14.414   4.367   0.207
61618SOL    HW186693  14.418   4.422   0.129
61618SOL    HW286694  14.322   4.368   0.233
61619SOL     OW86695   2.738   5.357  13.513
61619SOL    HW186696   2.657   5.307  13.501
61619SOL    HW286697   2.708   5.443  13.544
61620SOL     OW86698   8.426   4.605   9.933
61620SOL    HW186699   8.382   4.689   9.948
61620SOL    HW286700   8.360   4.539   9.957
61621SOL     OW86701   1.542   3.298  14.088
61621SOL    HW186702   1.552   3.383  14.131
61621SOL    HW286703   1.482   3.315  14.015
61622SOL     OW86704   5.011   5.272  12.430
61622SOL    HW186705   5.001   5.230  12.344
61622SOL    HW286706   4.952   5.223  12.487
61623SOL     OW86707   6.720  13.993  11.126
61623SOL    HW186708   6.792  14.012  11.186
61623SOL    HW286709   6.683  14.079  11.105
61624SOL     OW86710   7.030   9.811   5.377
61624SOL    HW186711   7.086   9.737   5.397
61624SOL    HW286712   7.006   9.799   5.285
61625SOL     OW86713   6.532   7.445   0.799
61625SOL    HW186714   6.463   7.494   0.753
61625SOL    HW286715   6.494   7.426   0.885
61626SOL     OW86716   4.285  12.286   5.142
61626SOL    HW186717   4.261  12.378   5.152
61626SOL    HW286718   4.241  12.258   5.062
61627SOL     OW86719   9.171   6.534  13.678
61627SOL    HW186720   9.231   6.592  13.630
61627SOL    HW286721   9.228   6.467  13.716
61628SOL     OW86722   1.946  11.686  12.975
61628SOL    HW186723   1.988  11.611  13.017
61628SOL    HW286724   2.006  11.759  12.990
61629SOL     OW86725   2.840   5.339  11.537
61629SOL    HW186726   2.920   5.381  11.569
61629SOL    HW286727   2.806   5.290  11.611
61630SOL     OW86728   3.712   5.678   5.378
61630SOL    HW186729   3.629   5.725   5.379
61630SOL    HW286730   3.688   5.585   5.377
61631SOL     OW86731   7.024  14.237  10.909
61631SOL    HW186732   7.006  14.186  10.988
61631SOL    HW286733   7.097  14.293  10.932
61632SOL     OW86734   4.756   0.056   7.490
61632SOL    HW186735   4.689   0.085   7.553
61632SOL    HW286736   4.775   0.135   7.439
61633SOL     OW86737   0.381   3.394   2.342
61633SOL    HW186738   0.476   3.393   2.329
61633SOL    HW286739   0.351   3.311   2.304
61634SOL     OW86740   4.200  10.230   0.402
61634SOL    HW186741   4.277  10.261   0.448
61634SOL    HW286742   4.220  10.139   0.379
61635SOL     OW86743   4.172   7.633  11.108
61635SOL    HW186744   4.119   7.631  11.028
61635SOL    HW286745   4.118   7.680  11.171
61636SOL     OW86746   3.834   0.444   8.161
61636SOL    HW186747   3.820   0.353   8.133
61636SOL    HW286748   3.924   0.444   8.194
61637SOL     OW86749  10.202  10.160  10.324
61637SOL    HW186750  10.293  10.133  10.326
61637SOL    HW286751  10.162  10.107  10.255
61638SOL     OW86752   2.124   2.931   9.667
61638SOL    HW186753   2.056   2.867   9.690
61638SOL    HW286754   2.077   3.014   9.660
61639SOL     OW86755   7.814   3.023   6.335
61639SOL    HW186756   7.852   2.947   6.380
61639SOL    HW286757   7.851   3.099   6.380
61640SOL     OW86758  11.615  10.011  11.199
61640SOL    HW186759  11.646  10.036  11.112
61640SOL    HW286760  11.595   9.917  11.192
61641SOL     OW86761  12.538  11.867   3.105
61641SOL    HW186762  12.465  11.928   3.115
61641SOL    HW286763  12.498  11.783   3.084
61642SOL     OW86764  14.100  13.248  13.769
61642SOL    HW186765  14.102  13.335  13.727
61642SOL    HW286766  14.014  13.243  13.809
61643SOL     OW86767   9.856  14.858  13.726
61643SOL    HW186768   9.824  14.778  13.769
61643SOL    HW286769   9.951  14.847  13.722
61644SOL     OW86770  12.819  13.761   4.337
61644SOL    HW186771  12.743  13.723   4.293
61644SOL    HW286772  12.846  13.833   4.281
61645SOL     OW86773   0.654   2.417  13.496
61645SOL    HW186774   0.631   2.503  13.530
61645SOL    HW286775   0.593   2.357  13.538
61646SOL     OW86776   0.766  10.506   1.099
61646SOL    HW186777   0.840  10.512   1.038
61646SOL    HW286778   0.746  10.413   1.102
61647SOL     OW86779  12.871   1.917   4.949
61647SOL    HW186780  12.950   1.961   4.918
61647SOL    HW286781  12.799   1.971   4.916
61648SOL     OW86782   4.697  10.463  11.036
61648SOL    HW186783   4.736  10.485  11.121
61648SOL    HW286784   4.605  10.488  11.045
61649SOL     OW86785   7.623   4.861   9.815
61649SOL    HW186786   7.601   4.946   9.855
61649SOL    HW286787   7.673   4.815   9.882
61650SOL     OW86788   4.581   9.250   2.214
61650SOL    HW186789   4.518   9.187   2.248
61650SOL    HW286790   4.537   9.290   2.138
61651SOL     OW86791   8.806  14.621  11.817
61651SOL    HW186792   8.841  14.607  11.905
61651SOL    HW286793   8.712  14.607  11.826
61652SOL     OW86794  12.905  10.814   2.526
61652SOL    HW186795  12.818  10.830   2.561
61652SOL    HW286796  12.924  10.722   2.547
61653SOL     OW86797   5.610  14.183   0.171
61653SOL    HW186798   5.677  14.180   0.240
61653SOL    HW286799   5.552  14.110   0.191
61654SOL     OW86800   1.082  14.746   3.433
61654SOL    HW186801   0.999  14.791   3.452
61654SOL    HW286802   1.058  14.654   3.431
61655SOL     OW86803   1.318  14.552   7.688
61655SOL    HW186804   1.358  14.638   7.702
61655SOL    HW286805   1.384  14.490   7.720
61656SOL     OW86806  11.386   4.480   6.942
61656SOL    HW186807  11.362   4.408   7.001
61656SOL    HW286808  11.315   4.544   6.953
61657SOL     OW86809   1.573  10.491  11.842
61657SOL    HW186810   1.507  10.544  11.797
61657SOL    HW286811   1.646  10.487  11.780
61658SOL     OW86812  11.371   2.987  12.517
61658SOL    HW186813  11.338   2.911  12.469
61658SOL    HW286814  11.460   2.999  12.484
61659SOL     OW86815   1.689   7.337  10.121
61659SOL    HW186816   1.602   7.316  10.155
61659SOL    HW286817   1.680   7.428  10.090
61660SOL     OW86818   5.983   5.356   5.563
61660SOL    HW186819   5.959   5.273   5.522
61660SOL    HW286820   5.938   5.354   5.648
61661SOL     OW86821  12.662   9.596   1.864
61661SOL    HW186822  12.738   9.558   1.818
61661SOL    HW286823  12.605   9.627   1.793
61662SOL     OW86824   8.368  12.064   9.498
61662SOL    HW186825   8.439  12.086   9.559
61662SOL    HW286826   8.351  11.971   9.513
61663SOL     OW86827   9.240   2.155  13.396
61663SOL    HW186828   9.233   2.243  13.432
61663SOL    HW286829   9.335   2.139  13.390
61664SOL     OW86830   0.786   4.486   9.491
61664SOL    HW186831   0.801   4.553   9.424
61664SOL    HW286832   0.847   4.415   9.467
61665SOL     OW86833  12.596   7.759   4.394
61665SOL    HW186834  12.594   7.664   4.397
61665SOL    HW286835  12.685   7.781   4.367
61666SOL     OW86836   0.245   7.083   6.018
61666SOL    HW186837   0.180   7.101   6.085
61666SOL    HW286838   0.281   7.169   5.995
61667SOL     OW86839  13.795   6.071   2.593
61667SOL    HW186840  13.750   5.987   2.604
61667SOL    HW286841  13.725   6.136   2.591
61668SOL     OW86842  14.522  11.264   9.299
61668SOL    HW186843  14.507  11.171   9.280
61668SOL    HW286844  14.552  11.265   9.389
61669SOL     OW86845   6.602   9.753   9.231
61669SOL    HW186846   6.612   9.808   9.309
61669SOL    HW286847   6.643   9.670   9.254
61670SOL     OW86848  10.172   9.871   1.756
61670SOL    HW186849  10.091   9.819   1.755
61670SOL    HW286850  10.242   9.806   1.763
61671SOL     OW86851  14.661   9.649  12.396
61671SOL    HW186852  14.702   9.575  12.441
61671SOL    HW286853  14.735   9.704  12.369
61672SOL     OW86854   9.356   5.319   8.266
61672SOL    HW186855   9.310   5.334   8.183
61672SOL    HW286856   9.409   5.397   8.279
61673SOL     OW86857  10.186   2.422   8.078
61673SOL    HW186858  10.238   2.503   8.076
61673SOL    HW286859  10.124   2.432   8.006
61674SOL     OW86860   9.467  11.294  13.133
61674SOL    HW186861   9.495  11.310  13.043
61674SOL    HW286862   9.545  11.312  13.186
61675SOL     OW86863  11.504  11.426  11.521
61675SOL    HW186864  11.442  11.496  11.500
61675SOL    HW286865  11.581  11.447  11.468
61676SOL     OW86866   6.107   9.869   3.852
61676SOL    HW186867   6.074   9.936   3.911
61676SOL    HW286868   6.043   9.799   3.856
61677SOL     OW86869   1.276   8.150   2.009
61677SOL    HW186870   1.246   8.196   1.931
61677SOL    HW286871   1.203   8.155   2.070
61678SOL     OW86872   8.762   1.441   5.739
61678SOL    HW186873   8.716   1.386   5.801
61678SOL    HW286874   8.852   1.445   5.773
61679SOL     OW86875   1.979  13.375   3.270
61679SOL    HW186876   1.920  13.344   3.338
61679SOL    HW286877   2.066  13.359   3.305
61680SOL     OW86878  14.659   3.455   5.367
61680SOL    HW186879  14.751   3.436   5.347
61680SOL    HW286880  14.622   3.370   5.390
61681SOL     OW86881   9.809   9.173   7.669
61681SOL    HW186882   9.873   9.228   7.713
61681SOL    HW286883   9.729   9.227   7.668
61682SOL     OW86884   4.935   9.361   8.159
61682SOL    HW186885   5.007   9.424   8.167
61682SOL    HW286886   4.938   9.311   8.241
61683SOL     OW86887  13.419   1.638   4.343
61683SOL    HW186888  13.450   1.728   4.329
61683SOL    HW286889  13.359   1.623   4.269
61684SOL     OW86890   8.944   4.473  12.428
61684SOL    HW186891   9.002   4.439  12.497
61684SOL    HW286892   8.986   4.554  12.400
61685SOL     OW86893   9.713   7.411   5.845
61685SOL    HW186894   9.725   7.398   5.939
61685SOL    HW286895   9.664   7.335   5.816
61686SOL     OW86896   0.522  13.860   8.498
61686SOL    HW186897   0.452  13.857   8.433
61686SOL    HW286898   0.557  13.949   8.492
61687SOL     OW86899   4.591   5.111  14.728
61687SOL    HW186900   4.633   5.028  14.751
61687SOL    HW286901   4.637   5.140  14.649
61688SOL     OW86902   0.172   4.383   6.576
61688SOL    HW186903   0.228   4.456   6.605
61688SOL    HW286904   0.125   4.356   6.655
61689SOL     OW86905   9.291  13.543   7.868
61689SOL    HW186906   9.270  13.456   7.903
61689SOL    HW286907   9.387  13.545   7.864
61690SOL     OW86908   3.871   1.121   7.043
61690SOL    HW186909   3.793   1.141   6.990
61690SOL    HW286910   3.838   1.119   7.133
61691SOL     OW86911   1.544   2.047  12.816
61691SOL    HW186912   1.635   2.033  12.792
61691SOL    HW286913   1.507   1.959  12.823
61692SOL     OW86914   1.237  12.369  13.417
61692SOL    HW186915   1.164  12.369  13.479
61692SOL    HW286916   1.198  12.339  13.335
61693SOL     OW86917  10.527  10.790   5.860
61693SOL    HW186918  10.570  10.875   5.871
61693SOL    HW286919  10.479  10.776   5.942
61694SOL     OW86920   9.984  14.463  12.726
61694SOL    HW186921  10.048  14.444  12.657
61694SOL    HW286922   9.966  14.557  12.716
61695SOL     OW86923   9.334   6.248   7.276
61695SOL    HW186924   9.323   6.286   7.364
61695SOL    HW286925   9.388   6.311   7.229
61696SOL     OW86926   4.905  14.316   9.932
61696SOL    HW186927   4.856  14.303   9.851
61696SOL    HW286928   4.903  14.231   9.975
61697SOL     OW86929   8.278  14.704  11.873
61697SOL    HW186930   8.183  14.690  11.884
61697SOL    HW286931   8.286  14.743  11.787
61698SOL     OW86932   6.496  11.108  11.132
61698SOL    HW186933   6.588  11.124  11.154
61698SOL    HW286934   6.497  11.087  11.039
61699SOL     OW86935   4.568  11.409   9.262
61699SOL    HW186936   4.619  11.367   9.330
61699SOL    HW286937   4.610  11.383   9.180
61700SOL     OW86938  13.474   6.833   3.171
61700SOL    HW186939  13.520   6.914   3.194
61700SOL    HW286940  13.464   6.787   3.254
61701SOL     OW86941   0.348   5.903   6.763
61701SOL    HW186942   0.423   5.880   6.708
61701SOL    HW286943   0.286   5.944   6.702
61702SOL     OW86944   4.714  12.308  12.646
61702SOL    HW186945   4.735  12.305  12.552
61702SOL    HW286946   4.655  12.235  12.660
61703SOL     OW86947   6.185   5.764   6.996
61703SOL    HW186948   6.166   5.670   6.994
61703SOL    HW286949   6.183   5.787   7.089
61704SOL     OW86950  12.474   1.786   5.072
61704SOL    HW186951  12.518   1.712   5.115
61704SOL    HW286952  12.386   1.754   5.055
61705SOL     OW86953  11.358   6.865   7.067
61705SOL    HW186954  11.408   6.784   7.081
61705SOL    HW286955  11.312   6.879   7.149
61706SOL     OW86956   0.244   9.064   0.415
61706SOL    HW186957   0.275   9.032   0.499
61706SOL    HW286958   0.313   9.039   0.353
61707SOL     OW86959   7.729   9.645   2.313
61707SOL    HW186960   7.802   9.587   2.334
61707SOL    HW286961   7.667   9.632   2.385
61708SOL     OW86962   8.916   6.240   1.962
61708SOL    HW186963   9.006   6.219   1.939
61708SOL    HW286964   8.902   6.328   1.928
61709SOL     OW86965   7.904   1.630   9.481
61709SOL    HW186966   7.856   1.572   9.422
61709SOL    HW286967   7.836   1.676   9.530
61710SOL     OW86968   0.843  13.235  12.665
61710SOL    HW186969   0.758  13.197  12.687
61710SOL    HW286970   0.853  13.219  12.571
61711SOL     OW86971   8.427   3.313   2.867
61711SOL    HW186972   8.446   3.221   2.886
61711SOL    HW286973   8.402   3.350   2.952
61712SOL     OW86974   0.081   6.857  14.270
61712SOL    HW186975   0.090   6.940  14.223
61712SOL    HW286976   0.105   6.791  14.205
61713SOL     OW86977   1.912   3.726   2.844
61713SOL    HW186978   1.887   3.640   2.879
61713SOL    HW286979   2.007   3.729   2.853
61714SOL     OW86980   3.088   4.163   1.596
61714SOL    HW186981   3.107   4.228   1.664
61714SOL    HW286982   3.166   4.162   1.541
61715SOL     OW86983  13.281  14.298  10.902
61715SOL    HW186984  13.318  14.375  10.945
61715SOL    HW286985  13.313  14.224  10.954
61716SOL     OW86986  10.831  11.354   3.226
61716SOL    HW186987  10.744  11.315   3.220
61716SOL    HW286988  10.859  11.336   3.316
61717SOL     OW86989   3.659   0.470  10.537
61717SOL    HW186990   3.718   0.447  10.609
61717SOL    HW286991   3.575   0.489  10.580
61718SOL     OW86992   5.153   7.504   1.541
61718SOL    HW186993   5.192   7.570   1.599
61718SOL    HW286994   5.224   7.483   1.480
61719SOL     OW86995   6.666   4.078   1.778
61719SOL    HW186996   6.738   4.112   1.829
61719SOL    HW286997   6.701   3.999   1.736
61720SOL     OW86998   6.213  11.963  10.625
61720SOL    HW186999   6.249  11.877  10.604
61720SOL    HW287000   6.129  11.944  10.668
61721SOL     OW87001   5.658   7.519   5.170
61721SOL    HW187002   5.699   7.598   5.136
61721SOL    HW287003   5.621   7.545   5.254
61722SOL     OW87004   9.097   8.069  13.695
61722SOL    HW187005   9.124   8.100  13.782
61722SOL    HW287006   9.170   8.016  13.665
61723SOL     OW87007   1.311   9.911   3.679
61723SOL    HW187008   1.367   9.856   3.733
61723SOL    HW287009   1.248   9.850   3.640
61724SOL     OW87010  11.028  10.251   1.844
61724SOL    HW187011  10.995  10.241   1.933
61724SOL    HW287012  11.098  10.316   1.853
61725SOL     OW87013  11.339   9.373   1.023
61725SOL    HW187014  11.382   9.339   1.101
61725SOL    HW287015  11.390   9.340   0.950
61726SOL     OW87016  14.171   9.329   7.971
61726SOL    HW187017  14.183   9.410   8.019
61726SOL    HW287018  14.258   9.288   7.968
61727SOL     OW87019   4.859  12.268   2.398
61727SOL    HW187020   4.944  12.257   2.441
61727SOL    HW287021   4.810  12.324   2.457
61728SOL     OW87022  12.669  14.393   8.258
61728SOL    HW187023  12.672  14.372   8.164
61728SOL    HW287024  12.645  14.311   8.300
61729SOL     OW87025   4.906   7.743   0.858
61729SOL    HW187026   4.869   7.793   0.786
61729SOL    HW287027   4.922   7.656   0.822
61730SOL     OW87028   0.161   7.192   4.824
61730SOL    HW187029   0.150   7.146   4.907
61730SOL    HW287030   0.225   7.260   4.842
61731SOL     OW87031   2.359   8.160  13.555
61731SOL    HW187032   2.352   8.174  13.649
61731SOL    HW287033   2.274   8.123  13.529
61732SOL     OW87034   3.040   3.365   4.535
61732SOL    HW187035   3.051   3.293   4.597
61732SOL    HW287036   3.098   3.343   4.462
61733SOL     OW87037  11.677   2.287   0.298
61733SOL    HW187038  11.742   2.357   0.292
61733SOL    HW287039  11.698   2.228   0.225
61734SOL     OW87040   0.334  13.664  11.134
61734SOL    HW187041   0.406  13.611  11.168
61734SOL    HW287042   0.353  13.753  11.164
61735SOL     OW87043   1.496   7.806   6.140
61735SOL    HW187044   1.527   7.795   6.051
61735SOL    HW287045   1.430   7.875   6.134
61736SOL     OW87046   3.563   7.623   8.685
61736SOL    HW187047   3.520   7.571   8.753
61736SOL    HW287048   3.652   7.635   8.716
61737SOL     OW87049   4.295  10.957   8.327
61737SOL    HW187050   4.279  10.931   8.237
61737SOL    HW287051   4.324  10.877   8.371
61738SOL     OW87052   9.143   7.485   0.862
61738SOL    HW187053   9.109   7.560   0.813
61738SOL    HW287054   9.205   7.443   0.802
61739SOL     OW87055   3.504  10.849  14.632
61739SOL    HW187056   3.523  10.897  14.551
61739SOL    HW287057   3.454  10.911  14.685
61740SOL     OW87058   9.695   5.636  11.337
61740SOL    HW187059   9.786   5.656  11.362
61740SOL    HW287060   9.702   5.558  11.282
61741SOL     OW87061   8.374  13.432   8.198
61741SOL    HW187062   8.317  13.367   8.157
61741SOL    HW287063   8.414  13.479   8.125
61742SOL     OW87064   6.995   4.962   5.257
61742SOL    HW187065   6.932   4.900   5.293
61742SOL    HW287066   7.066   4.966   5.321
61743SOL     OW87067   4.789   6.374   7.162
61743SOL    HW187068   4.780   6.439   7.231
61743SOL    HW287069   4.850   6.413   7.100
61744SOL     OW87070  11.085   0.021  10.146
61744SOL    HW187071  11.051   0.060  10.226
61744SOL    HW287072  11.082   0.092  10.081
61745SOL     OW87073   3.048  10.790   3.600
61745SOL    HW187074   3.135  10.785   3.640
61745SOL    HW287075   3.014  10.875   3.627
61746SOL     OW87076   2.461  10.295   2.149
61746SOL    HW187077   2.548  10.255   2.145
61746SOL    HW287078   2.452  10.340   2.065
61747SOL     OW87079  13.129   7.323   5.991
61747SOL    HW187080  13.050   7.276   6.018
61747SOL    HW287081  13.117   7.339   5.897
61748SOL     OW87082   7.796   8.834   3.541
61748SOL    HW187083   7.843   8.858   3.620
61748SOL    HW287084   7.852   8.768   3.499
61749SOL     OW87085  14.038  10.580  10.230
61749SOL    HW187086  14.055  10.579  10.324
61749SOL    HW287087  14.107  10.635  10.193
61750SOL     OW87088  11.761   6.534   2.571
61750SOL    HW187089  11.748   6.444   2.540
61750SOL    HW287090  11.820   6.572   2.506
61751SOL     OW87091   2.774   0.908   6.831
61751SOL    HW187092   2.836   0.836   6.839
61751SOL    HW287093   2.704   0.887   6.893
61752SOL     OW87094   2.147   4.996   3.237
61752SOL    HW187095   2.161   4.910   3.198
61752SOL    HW287096   2.067   4.986   3.288
61753SOL     OW87097   3.127  10.687   6.774
61753SOL    HW187098   3.170  10.650   6.697
61753SOL    HW287099   3.035  10.661   6.765
61754SOL     OW87100  12.019   9.907  13.526
61754SOL    HW187101  12.089   9.963  13.491
61754SOL    HW287102  12.065   9.832  13.562
61755SOL     OW87103  11.795  13.767   1.059
61755SOL    HW187104  11.728  13.798   0.997
61755SOL    HW287105  11.820  13.681   1.026
61756SOL     OW87106   5.496   3.392   8.094
61756SOL    HW187107   5.482   3.487   8.088
61756SOL    HW287108   5.462   3.358   8.011
61757SOL     OW87109  13.393   7.052   5.794
61757SOL    HW187110  13.372   7.084   5.882
61757SOL    HW287111  13.411   7.131   5.743
61758SOL     OW87112   6.269  14.386  10.772
61758SOL    HW187113   6.361  14.407  10.789
61758SOL    HW287114   6.263  14.374  10.677
61759SOL     OW87115  11.787   5.552  11.176
61759SOL    HW187116  11.882   5.547  11.170
61759SOL    HW287117  11.769   5.563  11.269
61760SOL     OW87118  13.108   4.117  10.562
61760SOL    HW187119  13.087   4.199  10.606
61760SOL    HW287120  13.130   4.057  10.633
61761SOL     OW87121  12.375   9.485   8.749
61761SOL    HW187122  12.387   9.398   8.787
61761SOL    HW287123  12.377   9.545   8.825
61762SOL     OW87124   4.811   9.288   4.954
61762SOL    HW187125   4.740   9.232   4.925
61762SOL    HW287126   4.769   9.372   4.974
61763SOL     OW87127  14.357   9.278   7.647
61763SOL    HW187128  14.440   9.286   7.600
61763SOL    HW287129  14.381   9.250   7.735
61764SOL     OW87130   3.333  10.866  10.184
61764SOL    HW187131   3.250  10.818  10.187
61764SOL    HW287132   3.391  10.815  10.241
61765SOL     OW87133   3.552   5.398   9.719
61765SOL    HW187134   3.597   5.348   9.651
61765SOL    HW287135   3.617   5.408   9.789
61766SOL     OW87136   4.382  11.125   0.161
61766SOL    HW187137   4.367  11.095   0.072
61766SOL    HW287138   4.349  11.215   0.162
61767SOL     OW87139   5.818   2.134   4.774
61767SOL    HW187140   5.750   2.068   4.789
61767SOL    HW287141   5.791   2.209   4.827
61768SOL     OW87142  11.056   9.184   9.254
61768SOL    HW187143  11.016   9.128   9.187
61768SOL    HW287144  10.983   9.230   9.294
61769SOL     OW87145  14.028   0.988  12.154
61769SOL    HW187146  14.090   0.921  12.181
61769SOL    HW287147  14.070   1.031  12.079
61770SOL     OW87148  11.150   4.561   7.802
61770SOL    HW187149  11.157   4.491   7.867
61770SOL    HW287150  11.131   4.640   7.853
61771SOL     OW87151   4.260  10.087  13.465
61771SOL    HW187152   4.178  10.080  13.515
61771SOL    HW287153   4.259  10.176  13.430
61772SOL     OW87154   5.439   7.695  10.598
61772SOL    HW187155   5.525   7.654  10.587
61772SOL    HW287156   5.452   7.786  10.571
61773SOL     OW87157   1.803  13.364   7.142
61773SOL    HW187158   1.872  13.302   7.117
61773SOL    HW287159   1.800  13.426   7.069
61774SOL     OW87160   7.088   8.067   6.405
61774SOL    HW187161   7.136   8.118   6.340
61774SOL    HW287162   7.139   8.077   6.486
61775SOL     OW87163  12.264   9.618   6.090
61775SOL    HW187164  12.304   9.705   6.082
61775SOL    HW287165  12.337   9.560   6.109
61776SOL     OW87166   0.717  11.513  14.253
61776SOL    HW187167   0.800  11.538  14.294
61776SOL    HW287168   0.743  11.463  14.176
61777SOL     OW87169   7.767   6.505   5.996
61777SOL    HW187170   7.783   6.600   5.995
61777SOL    HW287171   7.683   6.496   6.042
61778SOL     OW87172  14.338   5.273   5.713
61778SOL    HW187173  14.324   5.348   5.771
61778SOL    HW287174  14.398   5.216   5.761
61779SOL     OW87175   1.229  10.705  12.664
61779SOL    HW187176   1.290  10.674  12.731
61779SOL    HW287177   1.232  10.801  12.671
61780SOL     OW87178   0.486   9.375  12.105
61780SOL    HW187179   0.440   9.299  12.141
61780SOL    HW287180   0.551   9.398  12.171
61781SOL     OW87181   0.101  14.558   1.900
61781SOL    HW187182   0.182  14.541   1.948
61781SOL    HW287183   0.047  14.608   1.961
61782SOL     OW87184  11.796   1.651   5.916
61782SOL    HW187185  11.805   1.706   5.994
61782SOL    HW287186  11.706   1.664   5.888
61783SOL     OW87187  10.042   7.591   6.467
61783SOL    HW187188   9.981   7.517   6.470
61783SOL    HW287189   9.994   7.664   6.507
61784SOL     OW87190  14.050  11.831  11.958
61784SOL    HW187191  14.110  11.891  12.002
61784SOL    HW287192  14.063  11.849  11.865
61785SOL     OW87193   8.821   4.501   1.576
61785SOL    HW187194   8.880   4.446   1.628
61785SOL    HW287195   8.878   4.565   1.535
61786SOL     OW87196   5.575  11.735   8.189
61786SOL    HW187197   5.545  11.824   8.174
61786SOL    HW287198   5.543  11.686   8.114
61787SOL     OW87199   5.373   6.494  12.845
61787SOL    HW187200   5.307   6.429  12.823
61787SOL    HW287201   5.395   6.537  12.762
61788SOL     OW87202   6.569   0.685   5.029
61788SOL    HW187203   6.624   0.712   5.103
61788SOL    HW287204   6.481   0.716   5.052
61789SOL     OW87205   4.216   5.308   3.266
61789SOL    HW187206   4.233   5.217   3.290
61789SOL    HW287207   4.151   5.302   3.196
61790SOL     OW87208  13.624   5.983  14.727
61790SOL    HW187209  13.672   6.030  14.658
61790SOL    HW287210  13.633   5.890  14.703
61791SOL     OW87211   5.036   4.676  10.399
61791SOL    HW187212   5.021   4.764  10.364
61791SOL    HW287213   4.950   4.650  10.433
61792SOL     OW87214   8.888  12.691  10.004
61792SOL    HW187215   8.976  12.708   9.971
61792SOL    HW287216   8.832  12.687   9.926
61793SOL     OW87217  13.812   8.538   6.471
61793SOL    HW187218  13.812   8.451   6.512
61793SOL    HW287219  13.786   8.597   6.542
61794SOL     OW87220   2.373   8.448  12.572
61794SOL    HW187221   2.310   8.467  12.503
61794SOL    HW287222   2.425   8.528  12.580
61795SOL     OW87223   4.427  11.278   9.952
61795SOL    HW187224   4.331  11.275   9.952
61795SOL    HW287225   4.448  11.339   9.882
61796SOL     OW87226   9.695  11.314  13.356
61796SOL    HW187227   9.680  11.273  13.441
61796SOL    HW287228   9.773  11.270  13.322
61797SOL     OW87229  12.012   1.279   0.601
61797SOL    HW187230  11.943   1.240   0.654
61797SOL    HW287231  12.091   1.229   0.624
61798SOL     OW87232   9.726   3.543   7.879
61798SOL    HW187233   9.762   3.609   7.938
61798SOL    HW287234   9.640   3.523   7.916
61799SOL     OW87235   7.072   1.657   8.759
61799SOL    HW187236   7.071   1.749   8.730
61799SOL    HW287237   7.085   1.662   8.854
61800SOL     OW87238   2.734   0.930   1.734
61800SOL    HW187239   2.785   0.878   1.672
61800SOL    HW287240   2.699   0.867   1.796
61801SOL     OW87241   4.941   2.197   8.109
61801SOL    HW187242   5.023   2.209   8.061
61801SOL    HW287243   4.874   2.238   8.053
61802SOL     OW87244   0.213  11.624   9.419
61802SOL    HW187245   0.182  11.541   9.382
61802SOL    HW287246   0.271  11.598   9.491
61803SOL     OW87247   9.930   6.206   6.461
61803SOL    HW187248   9.870   6.268   6.419
61803SOL    HW287249   9.882   6.124   6.464
61804SOL     OW87250   7.574   2.187   7.780
61804SOL    HW187251   7.606   2.214   7.694
61804SOL    HW287252   7.498   2.242   7.797
61805SOL     OW87253  11.730  13.727   3.589
61805SOL    HW187254  11.702  13.679   3.511
61805SOL    HW287255  11.661  13.792   3.603
61806SOL     OW87256  12.434   8.227  13.191
61806SOL    HW187257  12.382   8.300  13.158
61806SOL    HW287258  12.480   8.263  13.267
61807SOL     OW87259   6.522   9.692   2.185
61807SOL    HW187260   6.474   9.715   2.106
61807SOL    HW287261   6.576   9.769   2.203
61808SOL     OW87262   9.951   0.980   5.416
61808SOL    HW187263   9.964   1.008   5.506
61808SOL    HW287264  10.038   0.981   5.377
61809SOL     OW87265  10.832   4.723   8.999
61809SOL    HW187266  10.878   4.669   9.063
61809SOL    HW287267  10.835   4.673   8.917
61810SOL     OW87268  12.951   9.590   6.129
61810SOL    HW187269  13.029   9.613   6.179
61810SOL    HW287270  12.984   9.537   6.056
61811SOL     OW87271   8.336   3.766   0.773
61811SOL    HW187272   8.386   3.825   0.829
61811SOL    HW287273   8.383   3.764   0.690
61812SOL     OW87274   2.810  10.670   7.494
61812SOL    HW187275   2.882  10.696   7.553
61812SOL    HW287276   2.851  10.665   7.408
61813SOL     OW87277   4.055   5.687  11.000
61813SOL    HW187278   4.073   5.739  11.079
61813SOL    HW287279   3.961   5.668  11.006
61814SOL     OW87280   1.993   0.249  14.446
61814SOL    HW187281   1.918   0.193  14.428
61814SOL    HW287282   1.972   0.332  14.404
61815SOL     OW87283  12.313   7.310   7.390
61815SOL    HW187284  12.322   7.384   7.330
61815SOL    HW287285  12.353   7.339   7.472
61816SOL     OW87286   9.682   9.425   8.539
61816SOL    HW187287   9.629   9.387   8.609
61816SOL    HW287288   9.729   9.497   8.580
61817SOL     OW87289   4.525   4.774  14.115
61817SOL    HW187290   4.570   4.838  14.170
61817SOL    HW287291   4.446   4.818  14.086
61818SOL     OW87292  14.814  11.820   6.656
61818SOL    HW187293  14.792  11.828   6.749
61818SOL    HW287294   0.027  11.797   6.655
61819SOL     OW87295  10.344   7.314   1.813
61819SOL    HW187296  10.396   7.322   1.893
61819SOL    HW287297  10.286   7.390   1.815
61820SOL     OW87298   4.700  10.575   1.252
61820SOL    HW187299   4.738  10.617   1.175
61820SOL    HW287300   4.676  10.647   1.310
61821SOL     OW87301  12.604  14.566   5.189
61821SOL    HW187302  12.528  14.518   5.222
61821SOL    HW287303  12.586  14.657   5.212
61822SOL     OW87304   4.380  14.523  12.595
61822SOL    HW187305   4.387  14.481  12.510
61822SOL    HW287306   4.294  14.566  12.594
61823SOL     OW87307   2.373   2.105  13.741
61823SOL    HW187308   2.425   2.184  13.755
61823SOL    HW287309   2.359   2.070  13.829
61824SOL     OW87310   5.675   0.750   3.936
61824SOL    HW187311   5.674   0.776   3.844
61824SOL    HW287312   5.753   0.695   3.944
61825SOL     OW87313   7.909  10.560   6.170
61825SOL    HW187314   7.992  10.550   6.217
61825SOL    HW287315   7.851  10.496   6.211
61826SOL     OW87316  13.611  12.354   0.797
61826SOL    HW187317  13.676  12.304   0.848
61826SOL    HW287318  13.659  12.429   0.764
61827SOL     OW87319  14.467   2.371   1.441
61827SOL    HW187320  14.510   2.300   1.393
61827SOL    HW287321  14.475   2.447   1.383
61828SOL     OW87322   8.446  11.141   7.360
61828SOL    HW187323   8.496  11.208   7.407
61828SOL    HW287324   8.444  11.066   7.420
61829SOL     OW87325  13.909   6.365   0.814
61829SOL    HW187326  13.892   6.319   0.732
61829SOL    HW287327  13.977   6.313   0.857
61830SOL     OW87328   3.221   0.851  12.705
61830SOL    HW187329   3.199   0.944  12.698
61830SOL    HW287330   3.262   0.842  12.792
61831SOL     OW87331   1.232  13.441  11.816
61831SOL    HW187332   1.248  13.532  11.841
61831SOL    HW287333   1.298  13.423  11.749
61832SOL     OW87334   3.337  13.534   1.839
61832SOL    HW187335   3.386  13.482   1.902
61832SOL    HW287336   3.248  13.538   1.875
61833SOL     OW87337   5.448  12.289  13.602
61833SOL    HW187338   5.519  12.335  13.558
61833SOL    HW287339   5.371  12.307  13.549
61834SOL     OW87340   7.569   9.678  10.160
61834SOL    HW187341   7.494   9.734  10.182
61834SOL    HW287342   7.644   9.736  10.167
61835SOL     OW87343   4.992   7.556   0.013
61835SOL    HW187344   4.919   7.507   0.051
61835SOL    HW287345   5.014   7.622   0.079
61836SOL     OW87346  14.846   2.936   4.705
61836SOL    HW187347  14.776   2.929   4.639
61836SOL    HW287348  14.800   2.925   4.789
61837SOL     OW87349   4.430  10.851   2.491
61837SOL    HW187350   4.431  10.824   2.399
61837SOL    HW287351   4.454  10.771   2.539
61838SOL     OW87352  10.146   3.041   2.710
61838SOL    HW187353  10.236   3.036   2.741
61838SOL    HW287354  10.143   3.120   2.656
61839SOL     OW87355  14.471   6.995   9.946
61839SOL    HW187356  14.418   6.919   9.971
61839SOL    HW287357  14.514   7.021  10.028
61840SOL     OW87358  11.122  14.585  14.206
61840SOL    HW187359  11.066  14.623  14.274
61840SOL    HW287360  11.066  14.581  14.129
61841SOL     OW87361   8.918   0.456  12.009
61841SOL    HW187362   8.944   0.450  11.917
61841SOL    HW287363   8.898   0.548  12.023
61842SOL     OW87364   2.264  10.538   7.310
61842SOL    HW187365   2.346  10.522   7.355
61842SOL    HW287366   2.278  10.504   7.222
61843SOL     OW87367   5.607   3.941  10.060
61843SOL    HW187368   5.539   3.949   9.993
61843SOL    HW287369   5.591   4.015  10.119
61844SOL     OW87370   5.081   4.421  11.892
61844SOL    HW187371   5.108   4.341  11.937
61844SOL    HW287372   4.999   4.398  11.848
61845SOL     OW87373   6.429  13.481  12.534
61845SOL    HW187374   6.435  13.390  12.562
61845SOL    HW287375   6.452  13.479  12.441
61846SOL     OW87376  14.770   6.214  11.443
61846SOL    HW187377  14.691   6.231  11.392
61846SOL    HW287378  14.738   6.187  11.529
61847SOL     OW87379   8.268   8.009   4.836
61847SOL    HW187380   8.250   8.093   4.877
61847SOL    HW287381   8.356   8.017   4.801
61848SOL     OW87382  11.059   6.154  13.630
61848SOL    HW187383  11.066   6.160  13.535
61848SOL    HW287384  11.145   6.181  13.662
61849SOL     OW87385  10.197   3.867   1.772
61849SOL    HW187386  10.272   3.893   1.826
61849SOL    HW287387  10.165   3.787   1.813
61850SOL     OW87388   1.193   9.048  13.118
61850SOL    HW187389   1.288   9.059  13.119
61850SOL    HW287390   1.159   9.130  13.156
61851SOL     OW87391  10.046   3.154   0.584
61851SOL    HW187392  10.072   3.165   0.676
61851SOL    HW287393   9.981   3.083   0.586
61852SOL     OW87394   0.514   0.875   3.408
61852SOL    HW187395   0.584   0.825   3.449
61852SOL    HW287396   0.434   0.842   3.449
61853SOL     OW87397   7.135   9.466  11.150
61853SOL    HW187398   7.092   9.538  11.195
61853SOL    HW287399   7.064   9.416  11.110
61854SOL     OW87400  14.332   4.772  10.584
61854SOL    HW187401  14.390   4.847  10.602
61854SOL    HW287402  14.368   4.701  10.637
61855SOL     OW87403  14.500  14.250   4.312
61855SOL    HW187404  14.449  14.316   4.264
61855SOL    HW287405  14.449  14.170   4.303
61856SOL     OW87406   0.031  12.195   7.444
61856SOL    HW187407   0.032  12.285   7.411
61856SOL    HW287408  14.819  12.167   7.436
61857SOL     OW87409   9.058   8.437   4.612
61857SOL    HW187410   9.080   8.396   4.696
61857SOL    HW287411   9.041   8.364   4.553
61858SOL     OW87412  13.067   1.038   4.380
61858SOL    HW187413  13.106   1.001   4.459
61858SOL    HW287414  13.132   1.022   4.311
61859SOL     OW87415   1.832   3.899   9.030
61859SOL    HW187416   1.892   3.847   9.083
61859SOL    HW287417   1.826   3.852   8.947
61860SOL     OW87418   5.326   2.139   7.402
61860SOL    HW187419   5.255   2.156   7.340
61860SOL    HW287420   5.343   2.045   7.394
61861SOL     OW87421   9.745  11.981   4.414
61861SOL    HW187422   9.775  11.909   4.470
61861SOL    HW287423   9.806  12.053   4.433
61862SOL     OW87424   1.226  14.120   1.141
61862SOL    HW187425   1.159  14.127   1.073
61862SOL    HW287426   1.185  14.157   1.219
61863SOL     OW87427   3.425   5.726  11.266
61863SOL    HW187428   3.390   5.788  11.201
61863SOL    HW287429   3.347   5.694  11.312
61864SOL     OW87430  11.460   7.246   5.147
61864SOL    HW187431  11.486   7.331   5.111
61864SOL    HW287432  11.518   7.233   5.222
61865SOL     OW87433   2.129  12.099   7.244
61865SOL    HW187434   2.175  12.045   7.308
61865SOL    HW287435   2.098  12.175   7.293
61866SOL     OW87436   5.040   4.370   2.678
61866SOL    HW187437   5.091   4.423   2.739
61866SOL    HW287438   5.076   4.392   2.592
61867SOL     OW87439   3.984   2.018   2.483
61867SOL    HW187440   4.019   2.011   2.394
61867SOL    HW287441   4.056   1.988   2.539
61868SOL     OW87442   6.883   3.822  10.488
61868SOL    HW187443   6.970   3.824  10.527
61868SOL    HW287444   6.895   3.777  10.404
61869SOL     OW87445   2.777   7.923   6.217
61869SOL    HW187446   2.768   7.862   6.144
61869SOL    HW287447   2.687   7.939   6.247
61870SOL     OW87448   2.631   6.137   6.081
61870SOL    HW187449   2.667   6.221   6.052
61870SOL    HW287450   2.594   6.156   6.167
61871SOL     OW87451   9.554   0.916   3.291
61871SOL    HW187452   9.531   1.007   3.309
61871SOL    HW287453   9.521   0.900   3.202
61872SOL     OW87454  14.198   3.088  13.754
61872SOL    HW187455  14.150   3.166  13.781
61872SOL    HW287456  14.283   3.097  13.796
61873SOL     OW87457   7.554  14.677  12.107
61873SOL    HW187458   7.565  14.731  12.029
61873SOL    HW287459   7.639  14.681  12.151
61874SOL     OW87460  11.085  10.834   7.361
61874SOL    HW187461  11.040  10.783   7.428
61874SOL    HW287462  11.015  10.878   7.313
61875SOL     OW87463  10.570   8.047   3.387
61875SOL    HW187464  10.626   8.078   3.316
61875SOL    HW287465  10.552   7.956   3.365
61876SOL     OW87466  12.192   4.206   0.983
61876SOL    HW187467  12.194   4.272   1.053
61876SOL    HW287468  12.272   4.222   0.933
61877SOL     OW87469  11.775   3.940   1.066
61877SOL    HW187470  11.819   3.920   1.148
61877SOL    HW287471  11.827   4.010   1.027
61878SOL     OW87472   5.844   8.255   5.179
61878SOL    HW187473   5.821   8.209   5.260
61878SOL    HW287474   5.930   8.220   5.156
61879SOL     OW87475   2.076   9.919  11.010
61879SOL    HW187476   2.167   9.920  10.980
61879SOL    HW287477   2.078   9.964  11.095
61880SOL     OW87478   1.916   0.351  11.605
61880SOL    HW187479   1.996   0.357  11.552
61880SOL    HW287480   1.849   0.319  11.544
61881SOL     OW87481   8.300  10.758  11.670
61881SOL    HW187482   8.218  10.747  11.718
61881SOL    HW287483   8.353  10.815  11.726
61882SOL     OW87484  13.353   3.792   9.163
61882SOL    HW187485  13.261   3.818   9.169
61882SOL    HW287486  13.392   3.854   9.102
61883SOL     OW87487   7.065  14.606   5.664
61883SOL    HW187488   7.029  14.688   5.628
61883SOL    HW287489   7.063  14.545   5.591
61884SOL     OW87490   2.206  13.021   1.137
61884SOL    HW187491   2.205  13.012   1.041
61884SOL    HW287492   2.209  13.116   1.151
61885SOL     OW87493   2.801  11.574   0.272
61885SOL    HW187494   2.869  11.546   0.211
61885SOL    HW287495   2.823  11.532   0.354
61886SOL     OW87496   8.769   3.865  12.343
61886SOL    HW187497   8.841   3.918  12.309
61886SOL    HW287498   8.733   3.917  12.415
61887SOL     OW87499   2.188   5.183  10.701
61887SOL    HW187500   2.262   5.199  10.760
61887SOL    HW287501   2.218   5.113  10.643
61888SOL     OW87502   1.373   7.132   2.630
61888SOL    HW187503   1.396   7.085   2.549
61888SOL    HW287504   1.386   7.068   2.699
61889SOL     OW87505   2.982   9.275   5.865
61889SOL    HW187506   2.947   9.216   5.798
61889SOL    HW287507   2.986   9.360   5.823
61890SOL     OW87508   2.129  13.059  10.239
61890SOL    HW187509   2.085  13.059  10.154
61890SOL    HW287510   2.218  13.089  10.220
61891SOL     OW87511   2.115  11.084  14.338
61891SOL    HW187512   2.100  11.158  14.278
61891SOL    HW287513   2.209  11.083  14.352
61892SOL     OW87514  12.056   2.920   4.762
61892SOL    HW187515  12.007   2.999   4.785
61892SOL    HW287516  11.993   2.849   4.773
61893SOL     OW87517   9.414   3.787   4.542
61893SOL    HW187518   9.507   3.768   4.560
61893SOL    HW287519   9.413   3.880   4.518
61894SOL     OW87520   2.273  10.248   6.970
61894SOL    HW187521   2.206  10.209   6.914
61894SOL    HW287522   2.232  10.254   7.056
61895SOL     OW87523   6.982   8.880  13.359
61895SOL    HW187524   6.940   8.933  13.427
61895SOL    HW287525   6.923   8.806  13.347
61896SOL     OW87526   7.241   6.368   0.616
61896SOL    HW187527   7.298   6.291   0.612
61896SOL    HW287528   7.290   6.437   0.573
61897SOL     OW87529   7.802   5.008   3.690
61897SOL    HW187530   7.727   4.998   3.631
61897SOL    HW287531   7.877   4.974   3.640
61898SOL     OW87532   2.920   7.931   4.630
61898SOL    HW187533   2.966   7.993   4.574
61898SOL    HW287534   2.963   7.939   4.715
61899SOL     OW87535   9.469   0.181  12.548
61899SOL    HW187536   9.377   0.154  12.543
61899SOL    HW287537   9.482   0.205  12.640
61900SOL     OW87538   8.305   2.831   8.792
61900SOL    HW187539   8.369   2.777   8.746
61900SOL    HW287540   8.279   2.898   8.729
61901SOL     OW87541   4.745  14.093   9.752
61901SOL    HW187542   4.690  14.016   9.761
61901SOL    HW287543   4.796  14.078   9.673
61902SOL     OW87544   9.102   0.360  11.785
61902SOL    HW187545   9.176   0.393  11.734
61902SOL    HW287546   9.026   0.405  11.748
61903SOL     OW87547   3.233   8.846   6.655
61903SOL    HW187548   3.221   8.937   6.683
61903SOL    HW287549   3.291   8.852   6.579
61904SOL     OW87550   2.665  13.603   3.930
61904SOL    HW187551   2.712  13.672   3.977
61904SOL    HW287552   2.726  13.530   3.926
61905SOL     OW87553   7.185  14.708   1.900
61905SOL    HW187554   7.134  14.635   1.932
61905SOL    HW287555   7.216  14.753   1.979
61906SOL     OW87556   3.769   6.512   1.949
61906SOL    HW187557   3.748   6.568   2.024
61906SOL    HW287558   3.818   6.569   1.890
61907SOL     OW87559   2.562   7.837   6.936
61907SOL    HW187560   2.606   7.915   6.903
61907SOL    HW287561   2.472   7.864   6.949
61908SOL     OW87562  13.459   8.947   4.615
61908SOL    HW187563  13.374   8.974   4.651
61908SOL    HW287564  13.493   8.883   4.678
61909SOL     OW87565   9.880   7.417   7.982
61909SOL    HW187566   9.849   7.386   7.897
61909SOL    HW287567   9.870   7.512   7.978
61910SOL     OW87568   6.334  11.369  13.150
61910SOL    HW187569   6.331  11.325  13.235
61910SOL    HW287570   6.255  11.340  13.105
61911SOL     OW87571   3.658   5.254  11.481
61911SOL    HW187572   3.574   5.264  11.436
61911SOL    HW287573   3.660   5.163  11.509
61912SOL     OW87574   4.258  11.763  12.757
61912SOL    HW187575   4.285  11.824  12.826
61912SOL    HW287576   4.265  11.814  12.676
61913SOL     OW87577   0.168  10.276  10.355
61913SOL    HW187578   0.076  10.298  10.345
61913SOL    HW287579   0.178  10.255  10.448
61914SOL     OW87580  13.605  11.769  12.247
61914SOL    HW187581  13.612  11.852  12.199
61914SOL    HW287582  13.649  11.705  12.191
61915SOL     OW87583   3.960   8.096   6.095
61915SOL    HW187584   3.904   8.087   6.172
61915SOL    HW287585   3.976   8.007   6.066
61916SOL     OW87586   6.629  11.648  10.159
61916SOL    HW187587   6.554  11.640  10.100
61916SOL    HW287588   6.694  11.699  10.109
61917SOL     OW87589   3.895  11.092  13.010
61917SOL    HW187590   3.933  11.063  12.927
61917SOL    HW287591   3.830  11.026  13.032
61918SOL     OW87592   6.185   3.591  12.377
61918SOL    HW187593   6.213   3.683  12.382
61918SOL    HW287594   6.194   3.559  12.467
61919SOL     OW87595   5.426  13.876   9.965
61919SOL    HW187596   5.509  13.922   9.952
61919SOL    HW287597   5.450  13.783   9.965
61920SOL     OW87598   5.027  14.155   5.758
61920SOL    HW187599   5.081  14.140   5.836
61920SOL    HW287600   4.985  14.239   5.773
61921SOL     OW87601   3.744   2.750   3.622
61921SOL    HW187602   3.778   2.699   3.548
61921SOL    HW287603   3.808   2.821   3.633
61922SOL     OW87604   6.077   3.387   8.203
61922SOL    HW187605   6.016   3.461   8.205
61922SOL    HW287606   6.050   3.335   8.127
61923SOL     OW87607   3.878  14.123   8.903
61923SOL    HW187608   3.784  14.141   8.902
61923SOL    HW287609   3.919  14.203   8.871
61924SOL     OW87610   4.439  10.185   3.549
61924SOL    HW187611   4.412  10.277   3.554
61924SOL    HW287612   4.388  10.141   3.617
61925SOL     OW87613   1.764   5.621  13.240
61925SOL    HW187614   1.831   5.554  13.226
61925SOL    HW287615   1.801   5.701  13.204
61926SOL     OW87616  13.337   6.371  13.146
61926SOL    HW187617  13.338   6.419  13.063
61926SOL    HW287618  13.273   6.301  13.133
61927SOL     OW87619  11.203  13.625   7.973
61927SOL    HW187620  11.110  13.634   7.952
61927SOL    HW287621  11.206  13.607   8.067
61928SOL     OW87622   2.574  14.210  14.451
61928SOL    HW187623   2.511  14.245  14.387
61928SOL    HW287624   2.660  14.231  14.414
61929SOL     OW87625  14.495   4.055   2.277
61929SOL    HW187626  14.520   4.033   2.367
61929SOL    HW287627  14.401   4.039   2.274
61930SOL     OW87628   0.134   0.637  14.430
61930SOL    HW187629   0.215   0.641  14.480
61930SOL    HW287630   0.148   0.695  14.356
61931SOL     OW87631   2.298   8.605   0.054
61931SOL    HW187632   2.266   8.563   0.134
61931SOL    HW287633   2.392   8.588   0.053
61932SOL     OW87634  12.562  10.369   5.230
61932SOL    HW187635  12.535  10.358   5.139
61932SOL    HW287636  12.549  10.283   5.270
61933SOL     OW87637   9.163  13.478   8.608
61933SOL    HW187638   9.078  13.467   8.565
61933SOL    HW287639   9.200  13.557   8.568
61934SOL     OW87640   7.749   6.653   4.086
61934SOL    HW187641   7.796   6.573   4.109
61934SOL    HW287642   7.712   6.635   4.000
61935SOL     OW87643  11.161   3.352  14.429
61935SOL    HW187644  11.188   3.331  14.519
61935SOL    HW287645  11.103   3.279  14.405
61936SOL     OW87646   5.516   5.810   3.326
61936SOL    HW187647   5.578   5.737   3.315
61936SOL    HW287648   5.563   5.886   3.293
61937SOL     OW87649  14.238   2.784   0.184
61937SOL    HW187650  14.191   2.745   0.258
61937SOL    HW287651  14.243   2.714   0.119
61938SOL     OW87652   8.569  12.067   2.101
61938SOL    HW187653   8.633  12.133   2.074
61938SOL    HW287654   8.617  12.011   2.163
61939SOL     OW87655   7.335  14.214   9.255
61939SOL    HW187656   7.313  14.292   9.306
61939SOL    HW287657   7.280  14.220   9.177
61940SOL     OW87658   5.912  14.357   5.663
61940SOL    HW187659   5.986  14.366   5.603
61940SOL    HW287660   5.952  14.346   5.749
61941SOL     OW87661   6.643   4.516   8.129
61941SOL    HW187662   6.649   4.447   8.063
61941SOL    HW287663   6.626   4.469   8.210
61942SOL     OW87664   7.345  13.878   3.279
61942SOL    HW187665   7.324  13.791   3.314
61942SOL    HW287666   7.380  13.862   3.192
61943SOL     OW87667   1.891   5.953   7.257
61943SOL    HW187668   1.835   5.985   7.328
61943SOL    HW287669   1.944   6.028   7.232
61944SOL     OW87670  11.562   9.432   8.355
61944SOL    HW187671  11.641   9.408   8.403
61944SOL    HW287672  11.515   9.350   8.343
61945SOL     OW87673   7.512  11.957  11.716
61945SOL    HW187674   7.496  12.023  11.649
61945SOL    HW287675   7.597  11.981  11.753
61946SOL     OW87676   9.616   5.103   8.569
61946SOL    HW187677   9.697   5.139   8.534
61946SOL    HW287678   9.597   5.156   8.646
61947SOL     OW87679  12.303   9.864  10.930
61947SOL    HW187680  12.333   9.919  10.858
61947SOL    HW287681  12.208   9.871  10.928
61948SOL     OW87682  11.216  14.758   4.906
61948SOL    HW187683  11.181  14.844   4.883
61948SOL    HW287684  11.262  14.772   4.989
61949SOL     OW87685  14.800   4.230   8.309
61949SOL    HW187686  14.752   4.147   8.302
61949SOL    HW287687  14.739   4.291   8.350
61950SOL     OW87688   5.602  12.666  11.504
61950SOL    HW187689   5.642  12.718  11.434
61950SOL    HW287690   5.675  12.618  11.542
61951SOL     OW87691   7.292  14.280   1.628
61951SOL    HW187692   7.387  14.272   1.621
61951SOL    HW287693   7.257  14.212   1.570
61952SOL     OW87694   1.492   1.667  12.988
61952SOL    HW187695   1.574   1.713  13.007
61952SOL    HW287696   1.520   1.586  12.944
61953SOL     OW87697   4.825   6.945   6.888
61953SOL    HW187698   4.911   6.906   6.901
61953SOL    HW287699   4.841   7.019   6.830
61954SOL     OW87700   6.523  14.027   3.420
61954SOL    HW187701   6.576  13.987   3.489
61954SOL    HW287702   6.490  14.108   3.460
61955SOL     OW87703   1.134   3.253   8.784
61955SOL    HW187704   1.057   3.207   8.752
61955SOL    HW287705   1.151   3.215   8.870
61956SOL     OW87706   2.581   5.144  12.776
61956SOL    HW187707   2.625   5.156  12.692
61956SOL    HW287708   2.653   5.132  12.839
61957SOL     OW87709   8.850  12.880   6.061
61957SOL    HW187710   8.799  12.799   6.056
61957SOL    HW287711   8.842  12.919   5.974
61958SOL     OW87712   1.908  11.989   6.272
61958SOL    HW187713   1.992  11.998   6.227
61958SOL    HW287714   1.903  11.896   6.293
61959SOL     OW87715  14.225   8.040   2.769
61959SOL    HW187716  14.296   7.980   2.751
61959SOL    HW287717  14.194   8.069   2.683
61960SOL     OW87718   5.888   3.417   1.213
61960SOL    HW187719   5.873   3.389   1.303
61960SOL    HW287720   5.816   3.377   1.163
61961SOL     OW87721   1.060   3.961   0.864
61961SOL    HW187722   1.038   4.052   0.845
61961SOL    HW287723   1.130   3.965   0.928
61962SOL     OW87724   4.489  10.330  14.309
61962SOL    HW187725   4.581  10.333  14.338
61962SOL    HW287726   4.458  10.420  14.321
61963SOL     OW87727  14.074   3.809   5.388
61963SOL    HW187728  13.985   3.838   5.408
61963SOL    HW287729  14.062   3.731   5.333
61964SOL     OW87730  10.847   8.162   7.051
61964SOL    HW187731  10.842   8.155   6.955
61964SOL    HW287732  10.765   8.126   7.082
61965SOL     OW87733   1.889  11.412  13.932
61965SOL    HW187734   1.871  11.439  13.842
61965SOL    HW287735   1.970  11.456  13.955
61966SOL     OW87736   2.329   8.734   8.351
61966SOL    HW187737   2.313   8.641   8.368
61966SOL    HW287738   2.242   8.770   8.333
61967SOL     OW87739   0.785   5.910  14.596
61967SOL    HW187740   0.776   5.815  14.608
61967SOL    HW287741   0.851   5.937  14.660
61968SOL     OW87742   5.879   3.709   1.468
61968SOL    HW187743   5.875   3.614   1.480
61968SOL    HW287744   5.883   3.721   1.373
61969SOL     OW87745   8.543   0.643   0.541
61969SOL    HW187746   8.478   0.640   0.471
61969SOL    HW287747   8.509   0.583   0.607
61970SOL     OW87748   6.020   3.092   5.756
61970SOL    HW187749   6.042   3.156   5.824
61970SOL    HW287750   6.096   3.034   5.753
61971SOL     OW87751  12.619   7.722   3.554
61971SOL    HW187752  12.524   7.731   3.562
61971SOL    HW287753  12.653   7.808   3.575
61972SOL     OW87754   3.180   3.602   5.949
61972SOL    HW187755   3.167   3.654   6.029
61972SOL    HW287756   3.254   3.545   5.969
61973SOL     OW87757  10.826   3.579  14.711
61973SOL    HW187758  10.760   3.533  14.762
61973SOL    HW287759  10.871   3.510  14.663
61974SOL     OW87760   8.922   1.126   0.578
61974SOL    HW187761   8.936   1.035   0.553
61974SOL    HW287762   8.973   1.137   0.658
61975SOL     OW87763  13.681  11.147   0.848
61975SOL    HW187764  13.738  11.224   0.843
61975SOL    HW287765  13.687  11.119   0.940
61976SOL     OW87766  11.392   9.798   8.165
61976SOL    HW187767  11.378   9.703   8.172
61976SOL    HW287768  11.487   9.808   8.168
61977SOL     OW87769   3.129   9.878   8.769
61977SOL    HW187770   3.136   9.868   8.674
61977SOL    HW287771   3.051   9.829   8.793
61978SOL     OW87772  11.638   3.927  14.813
61978SOL    HW187773  11.605   3.845  14.850
61978SOL    HW287774  11.680   3.971   0.007
61979SOL     OW87775   1.121  13.786  10.144
61979SOL    HW187776   1.034  13.789  10.183
61979SOL    HW287777   1.176  13.836  10.205
61980SOL     OW87778   1.480   9.969   7.213
61980SOL    HW187779   1.515   9.968   7.303
61980SOL    HW287780   1.502  10.056   7.180
61981SOL     OW87781  10.451   0.257   9.346
61981SOL    HW187782  10.376   0.316   9.344
61981SOL    HW287783  10.435   0.200   9.421
61982SOL     OW87784   8.835   9.826   2.006
61982SOL    HW187785   8.759   9.818   2.064
61982SOL    HW287786   8.898   9.879   2.056
61983SOL     OW87787   7.028  11.712  13.517
61983SOL    HW187788   6.986  11.785  13.562
61983SOL    HW287789   6.976  11.635  13.540
61984SOL     OW87790   3.358  13.945   6.085
61984SOL    HW187791   3.343  13.987   6.170
61984SOL    HW287792   3.439  13.896   6.098
61985SOL     OW87793   0.186   5.948   7.607
61985SOL    HW187794   0.129   6.000   7.664
61985SOL    HW287795   0.155   5.967   7.518
61986SOL     OW87796  13.131  13.745   1.621
61986SOL    HW187797  13.195  13.712   1.557
61986SOL    HW287798  13.053  13.690   1.607
61987SOL     OW87799   8.593   3.183   6.074
61987SOL    HW187800   8.617   3.212   5.986
61987SOL    HW287801   8.501   3.157   6.067
61988SOL     OW87802   9.453   9.683   2.404
61988SOL    HW187803   9.543   9.654   2.389
61988SOL    HW287804   9.445   9.763   2.352
61989SOL     OW87805   6.985   9.644  14.731
61989SOL    HW187806   6.989   9.549  14.722
61989SOL    HW287807   7.074   9.670  14.754
61990SOL     OW87808   8.442  14.176   1.820
61990SOL    HW187809   8.402  14.251   1.777
61990SOL    HW287810   8.369  14.134   1.867
61991SOL     OW87811   3.155  13.915  13.231
61991SOL    HW187812   3.068  13.877  13.239
61991SOL    HW287813   3.164  13.972  13.308
61992SOL     OW87814   3.938   0.703   1.779
61992SOL    HW187815   3.923   0.795   1.758
61992SOL    HW287816   3.850   0.669   1.800
61993SOL     OW87817   7.387   0.379   8.522
61993SOL    HW187818   7.319   0.395   8.587
61993SOL    HW287819   7.347   0.404   8.438
61994SOL     OW87820  10.255  11.783  14.121
61994SOL    HW187821  10.335  11.822  14.085
61994SOL    HW287822  10.245  11.823  14.207
61995SOL     OW87823   7.250   0.526   0.018
61995SOL    HW187824   7.215   0.582   0.088
61995SOL    HW287825   7.250   0.582  14.820
61996SOL     OW87826   5.958   3.849   2.071
61996SOL    HW187827   5.879   3.891   2.038
61996SOL    HW287828   5.994   3.912   2.134
61997SOL     OW87829  10.303   3.997   7.970
61997SOL    HW187830  10.351   3.941   7.909
61997SOL    HW287831  10.251   3.937   8.023
61998SOL     OW87832   8.992   7.669   1.825
61998SOL    HW187833   8.963   7.722   1.899
61998SOL    HW287834   8.913   7.653   1.774
61999SOL     OW87835  13.315   9.126  14.795
61999SOL    HW187836  13.290   9.132  14.703
61999SOL    HW287837  13.388   9.064  14.796
62000SOL     OW87838  13.899   3.034  11.576
62000SOL    HW187839  13.850   2.962  11.537
62000SOL    HW287840  13.988   3.000  11.584
62001SOL     OW87841  10.554   2.121   8.049
62001SOL    HW187842  10.462   2.122   8.076
62001SOL    HW287843  10.575   2.213   8.030
62002SOL     OW87844   7.397   3.141   9.013
62002SOL    HW187845   7.422   3.232   9.033
62002SOL    HW287846   7.441   3.089   9.079
62003SOL     OW87847  12.170  10.389  11.821
62003SOL    HW187848  12.118  10.452  11.771
62003SOL    HW287849  12.177  10.427  11.909
62004SOL     OW87850  11.716   7.070   4.297
62004SOL    HW187851  11.641   7.068   4.238
62004SOL    HW287852  11.756   6.983   4.288
62005SOL     OW87853   2.919   8.448   5.495
62005SOL    HW187854   2.972   8.507   5.549
62005SOL    HW287855   2.912   8.368   5.548
62006SOL     OW87856   2.846  10.402   4.552
62006SOL    HW187857   2.769  10.395   4.608
62006SOL    HW287858   2.862  10.496   4.546
62007SOL     OW87859   1.684   4.932  10.744
62007SOL    HW187860   1.631   5.003  10.708
62007SOL    HW287861   1.774   4.965  10.738
62008SOL     OW87862   2.619   2.058   5.105
62008SOL    HW187863   2.666   2.140   5.113
62008SOL    HW287864   2.597   2.051   5.012
62009SOL     OW87865  10.674   1.767   0.406
62009SOL    HW187866  10.709   1.714   0.477
62009SOL    HW287867  10.742   1.832   0.388
62010SOL     OW87868   5.727   2.198   8.196
62010SOL    HW187869   5.775   2.154   8.125
62010SOL    HW287870   5.636   2.195   8.168
62011SOL     OW87871   2.872   0.912   3.818
62011SOL    HW187872   2.934   0.844   3.842
62011SOL    HW287873   2.923   0.973   3.764
62012SOL     OW87874   2.641   6.683  12.980
62012SOL    HW187875   2.722   6.724  12.950
62012SOL    HW287876   2.670   6.609  13.034
62013SOL     OW87877  14.178  12.993   6.617
62013SOL    HW187878  14.199  12.955   6.532
62013SOL    HW287879  14.084  13.010   6.613
62014SOL     OW87880   9.407   6.316   0.509
62014SOL    HW187881   9.354   6.395   0.521
62014SOL    HW287882   9.489   6.335   0.555
62015SOL     OW87883  11.267   3.379   3.715
62015SOL    HW187884  11.308   3.339   3.791
62015SOL    HW287885  11.190   3.325   3.698
62016SOL     OW87886  14.613   1.143  11.597
62016SOL    HW187887  14.663   1.127  11.677
62016SOL    HW287888  14.524   1.114  11.618
62017SOL     OW87889  12.476   3.301   7.759
62017SOL    HW187890  12.498   3.293   7.666
62017SOL    HW287891  12.461   3.395   7.772
62018SOL     OW87892   0.327   7.813   8.320
62018SOL    HW187893   0.320   7.798   8.226
62018SOL    HW287894   0.420   7.808   8.339
62019SOL     OW87895   8.338  14.653   8.347
62019SOL    HW187896   8.382  14.675   8.430
62019SOL    HW287897   8.246  14.645   8.370
62020SOL     OW87898   7.062   9.397   4.980
62020SOL    HW187899   7.007   9.423   4.907
62020SOL    HW287900   7.021   9.436   5.057
62021SOL     OW87901   2.563   7.586   6.936
62021SOL    HW187902   2.477   7.551   6.956
62021SOL    HW287903   2.553   7.681   6.943
62022SOL     OW87904  12.128   8.876  13.974
62022SOL    HW187905  12.040   8.840  13.986
62022SOL    HW287906  12.183   8.800  13.955
62023SOL     OW87907   4.229   7.763   6.015
62023SOL    HW187908   4.296   7.826   5.987
62023SOL    HW287909   4.254   7.680   5.974
62024SOL     OW87910  14.136   5.170   0.563
62024SOL    HW187911  14.204   5.118   0.606
62024SOL    HW287912  14.114   5.121   0.484
62025SOL     OW87913   2.036  13.406  13.092
62025SOL    HW187914   2.084  13.363  13.021
62025SOL    HW287915   2.100  13.414  13.163
62026SOL     OW87916  10.249  10.938  13.688
62026SOL    HW187917  10.244  11.020  13.736
62026SOL    HW287918  10.288  10.876  13.750
62027SOL     OW87919  13.079   7.669   7.762
62027SOL    HW187920  13.098   7.746   7.709
62027SOL    HW287921  13.048   7.604   7.699
62028SOL     OW87922  14.335  11.655  12.120
62028SOL    HW187923  14.358  11.746  12.105
62028SOL    HW287924  14.343  11.613  12.034
62029SOL     OW87925   3.821  10.911   2.942
62029SOL    HW187926   3.792  11.001   2.955
62029SOL    HW287927   3.907  10.906   2.983
62030SOL     OW87928   7.339  14.422   9.457
62030SOL    HW187929   7.403  14.387   9.519
62030SOL    HW287930   7.366  14.513   9.443
62031SOL     OW87931  12.803   1.790   7.526
62031SOL    HW187932  12.797   1.829   7.613
62031SOL    HW287933  12.886   1.821   7.491
62032SOL     OW87934   6.621  13.996  11.554
62032SOL    HW187935   6.705  14.038  11.573
62032SOL    HW287936   6.570  14.062  11.509
62033SOL     OW87937  11.231   9.452   4.111
62033SOL    HW187938  11.229   9.440   4.016
62033SOL    HW287939  11.182   9.377   4.145
62034SOL     OW87940  10.018   9.695   7.231
62034SOL    HW187941  10.020   9.695   7.327
62034SOL    HW287942   9.961   9.621   7.209
62035SOL     OW87943  14.493  12.244   1.983
62035SOL    HW187944  14.532  12.157   1.989
62035SOL    HW287945  14.526  12.290   2.060
62036SOL     OW87946   6.193   9.614  10.207
62036SOL    HW187947   6.217   9.567  10.287
62036SOL    HW287948   6.263   9.679  10.195
62037SOL     OW87949  14.675   1.571   5.082
62037SOL    HW187950  14.675   1.607   4.993
62037SOL    HW287951  14.595   1.606   5.122
62038SOL     OW87952   0.213   6.456   8.654
62038SOL    HW187953   0.162   6.511   8.713
62038SOL    HW287954   0.163   6.455   8.573
62039SOL     OW87955   0.068  14.700   8.519
62039SOL    HW187956   0.064  14.757   8.442
62039SOL    HW287957  14.857  14.672   8.532
62040SOL     OW87958   8.542   5.091  12.844
62040SOL    HW187959   8.460   5.134  12.817
62040SOL    HW287960   8.604   5.116  12.776
62041SOL     OW87961   5.365   3.026  10.065
62041SOL    HW187962   5.341   3.114  10.036
62041SOL    HW287963   5.329   3.019  10.153
62042SOL     OW87964  10.578   7.799   5.584
62042SOL    HW187965  10.525   7.792   5.663
62042SOL    HW287966  10.544   7.731   5.526
62043SOL     OW87967   3.541   4.945   6.659
62043SOL    HW187968   3.523   4.976   6.570
62043SOL    HW287969   3.526   4.851   6.655
62044SOL     OW87970   2.607   2.576   3.328
62044SOL    HW187971   2.676   2.541   3.383
62044SOL    HW287972   2.639   2.662   3.300
62045SOL     OW87973   6.767   1.622   5.753
62045SOL    HW187974   6.835   1.684   5.778
62045SOL    HW287975   6.814   1.555   5.702
62046SOL     OW87976   0.761  10.475  12.810
62046SOL    HW187977   0.706  10.457  12.886
62046SOL    HW287978   0.823  10.403  12.807
62047SOL     OW87979   0.125   9.982   8.670
62047SOL    HW187980   0.116   9.893   8.636
62047SOL    HW287981   0.050  10.029   8.635
62048SOL     OW87982   2.665  11.702   3.576
62048SOL    HW187983   2.703  11.788   3.559
62048SOL    HW287984   2.580  11.721   3.617
62049SOL     OW87985  13.913  11.807   5.665
62049SOL    HW187986  14.001  11.770   5.661
62049SOL    HW287987  13.860  11.748   5.611
62050SOL     OW87988   5.196  12.742   5.853
62050SOL    HW187989   5.245  12.674   5.899
62050SOL    HW287990   5.236  12.824   5.883
62051SOL     OW87991  13.552   4.172   6.927
62051SOL    HW187992  13.490   4.099   6.922
62051SOL    HW287993  13.573   4.178   7.020
62052SOL     OW87994   9.613   4.640  11.981
62052SOL    HW187995   9.645   4.568  12.036
62052SOL    HW287996   9.573   4.701  12.042
62053SOL     OW87997  13.943  13.976   8.225
62053SOL    HW187998  13.918  13.952   8.136
62053SOL    HW287999  13.909  13.905   8.280
62054SOL     OW88000  11.195   0.793  10.496
62054SOL    HW188001  11.286   0.768  10.479
62054SOL    HW288002  11.183   0.874  10.446
62055SOL     OW88003   4.761  10.544  11.926
62055SOL    HW188004   4.793  10.630  11.954
62055SOL    HW288005   4.666  10.555  11.919
62056SOL     OW88006   6.977  11.405   2.602
62056SOL    HW188007   6.982  11.315   2.634
62056SOL    HW288008   6.906  11.405   2.538
62057SOL     OW88009  12.591   3.379   8.265
62057SOL    HW188010  12.644   3.322   8.210
62057SOL    HW288011  12.501   3.366   8.235
62058SOL     OW88012  11.103   9.581   7.034
62058SOL    HW188013  11.152   9.613   6.958
62058SOL    HW288014  11.092   9.487   7.017
62059SOL     OW88015   4.517   1.231   2.364
62059SOL    HW188016   4.489   1.248   2.454
62059SOL    HW288017   4.596   1.284   2.353
62060SOL     OW88018  14.085   0.723   2.062
62060SOL    HW188019  14.082   0.811   2.025
62060SOL    HW288020  14.020   0.724   2.132
62061SOL     OW88021  11.143   7.219   7.668
62061SOL    HW188022  11.210   7.151   7.654
62061SOL    HW288023  11.193   7.295   7.699
62062SOL     OW88024   4.706   2.106  12.323
62062SOL    HW188025   4.709   2.201  12.314
62062SOL    HW288026   4.613   2.084  12.314
62063SOL     OW88027  13.861  14.402   4.102
62063SOL    HW188028  13.808  14.427   4.026
62063SOL    HW288029  13.798  14.393   4.174
62064SOL     OW88030  10.335   1.708  13.995
62064SOL    HW188031  10.267   1.735  14.057
62064SOL    HW288032  10.291   1.647  13.936
62065SOL     OW88033   4.125   8.554  12.131
62065SOL    HW188034   4.204   8.522  12.087
62065SOL    HW288035   4.144   8.646  12.150
62066SOL     OW88036   3.401   8.524   2.369
62066SOL    HW188037   3.440   8.606   2.399
62066SOL    HW288038   3.313   8.524   2.408
62067SOL     OW88039  10.892  11.175   3.939
62067SOL    HW188040  10.821  11.221   3.894
62067SOL    HW288041  10.931  11.119   3.871
62068SOL     OW88042   5.570   2.095  13.176
62068SOL    HW188043   5.646   2.135  13.135
62068SOL    HW288044   5.600   2.008  13.204
62069SOL     OW88045  10.419  10.824  11.241
62069SOL    HW188046  10.366  10.749  11.268
62069SOL    HW288047  10.365  10.871  11.178
62070SOL     OW88048   9.231   6.452   9.418
62070SOL    HW188049   9.296   6.522   9.411
62070SOL    HW288050   9.162   6.489   9.474
62071SOL     OW88051   2.220  13.590   2.322
62071SOL    HW188052   2.198  13.499   2.302
62071SOL    HW288053   2.271  13.586   2.403
62072SOL     OW88054   4.905   4.229   6.973
62072SOL    HW188055   4.918   4.162   6.906
62072SOL    HW288056   4.841   4.289   6.934
62073SOL     OW88057   6.599  11.838   6.233
62073SOL    HW188058   6.559  11.924   6.223
62073SOL    HW288059   6.610  11.827   6.328
62074SOL     OW88060   9.953   7.311   5.246
62074SOL    HW188061   9.985   7.306   5.156
62074SOL    HW288062   9.910   7.396   5.252
62075SOL     OW88063  12.357   4.573   4.914
62075SOL    HW188064  12.375   4.481   4.896
62075SOL    HW288065  12.340   4.576   5.008
62076SOL     OW88066   8.564   0.961   4.640
62076SOL    HW188067   8.555   1.002   4.554
62076SOL    HW288068   8.646   0.995   4.675
62077SOL     OW88069  11.058   9.348   6.095
62077SOL    HW188070  11.051   9.430   6.046
62077SOL    HW288071  11.092   9.285   6.031
62078SOL     OW88072  10.860   8.671   9.965
62078SOL    HW188073  10.904   8.754   9.985
62078SOL    HW288074  10.931   8.607   9.963
62079SOL     OW88075   0.512   4.080   4.674
62079SOL    HW188076   0.458   4.005   4.701
62079SOL    HW288077   0.550   4.113   4.756
62080SOL     OW88078   3.453   5.219  11.902
62080SOL    HW188079   3.482   5.133  11.874
62080SOL    HW288080   3.449   5.213  11.998
62081SOL     OW88081   7.199   2.242   1.367
62081SOL    HW188082   7.241   2.177   1.425
62081SOL    HW288083   7.239   2.325   1.392
62082SOL     OW88084   9.376   5.900   2.741
62082SOL    HW188085   9.394   5.929   2.830
62082SOL    HW288086   9.373   5.980   2.689
62083SOL     OW88087   0.500  11.926   8.635
62083SOL    HW188088   0.503  11.958   8.725
62083SOL    HW288089   0.434  11.856   8.637
62084SOL     OW88090  14.502   5.244   5.299
62084SOL    HW188091  14.497   5.162   5.348
62084SOL    HW288092  14.433   5.299   5.336
62085SOL     OW88093   3.709   0.803   5.186
62085SOL    HW188094   3.650   0.864   5.231
62085SOL    HW288095   3.670   0.717   5.201
62086SOL     OW88096   1.241  10.588   2.762
62086SOL    HW188097   1.259  10.495   2.759
62086SOL    HW288098   1.291  10.620   2.837
62087SOL     OW88099   8.707   7.454   8.051
62087SOL    HW188100   8.630   7.505   8.077
62087SOL    HW288101   8.729   7.488   7.964
62088SOL     OW88102   1.099   3.272   4.011
62088SOL    HW188103   1.088   3.177   4.000
62088SOL    HW288104   1.186   3.282   4.050
62089SOL     OW88105   2.283   9.360  12.427
62089SOL    HW188106   2.250   9.403  12.348
62089SOL    HW288107   2.345   9.422  12.465
62090SOL     OW88108   1.074  13.567   1.557
62090SOL    HW188109   1.063  13.481   1.516
62090SOL    HW288110   1.072  13.549   1.651
62091SOL     OW88111   4.804  13.616  14.254
62091SOL    HW188112   4.874  13.672  14.219
62091SOL    HW288113   4.725  13.670  14.249
62092SOL     OW88114   7.047   6.302   6.594
62092SOL    HW188115   7.083   6.329   6.510
62092SOL    HW288116   7.002   6.219   6.575
62093SOL     OW88117   5.582   8.172   7.740
62093SOL    HW188118   5.575   8.083   7.774
62093SOL    HW288119   5.563   8.228   7.815
62094SOL     OW88120  14.066   2.816  10.782
62094SOL    HW188121  14.070   2.881  10.713
62094SOL    HW288122  14.104   2.737  10.744
62095SOL     OW88123  10.841  14.685  10.281
62095SOL    HW188124  10.785  14.610  10.302
62095SOL    HW288125  10.784  14.744  10.231
62096SOL     OW88126   6.808  12.856   7.875
62096SOL    HW188127   6.898  12.888   7.871
62096SOL    HW288128   6.755  12.935   7.886
62097SOL     OW88129   1.902   1.057  14.799
62097SOL    HW188130   1.932   0.966  14.796
62097SOL    HW288131   1.814   1.051  14.837
62098SOL     OW88132   9.203  14.107  14.228
62098SOL    HW188133   9.286  14.109  14.180
62098SOL    HW288134   9.176  14.015  14.225
62099SOL     OW88135   9.308   3.230  14.350
62099SOL    HW188136   9.265   3.305  14.309
62099SOL    HW288137   9.396   3.261  14.369
62100SOL     OW88138   5.301   2.939   1.196
62100SOL    HW188139   5.291   2.916   1.104
62100SOL    HW288140   5.270   3.030   1.202
62101SOL     OW88141  13.364  11.085  12.304
62101SOL    HW188142  13.335  11.050  12.219
62101SOL    HW288143  13.333  11.175  12.304
62102SOL     OW88144   9.573   6.158  11.598
62102SOL    HW188145   9.617   6.168  11.514
62102SOL    HW288146   9.524   6.240  11.609
62103SOL     OW88147   3.294   9.463   8.647
62103SOL    HW188148   3.263   9.397   8.585
62103SOL    HW288149   3.377   9.428   8.679
62104SOL     OW88150   1.749  14.024   2.544
62104SOL    HW188151   1.773  14.100   2.491
62104SOL    HW288152   1.826  13.968   2.541
62105SOL     OW88153   7.930   3.853   9.864
62105SOL    HW188154   7.951   3.833   9.956
62105SOL    HW288155   7.860   3.918   9.870
62106SOL     OW88156   1.448   9.404  12.435
62106SOL    HW188157   1.461   9.322  12.484
62106SOL    HW288158   1.398   9.378  12.358
62107SOL     OW88159  11.189   7.917   6.796
62107SOL    HW188160  11.138   7.921   6.877
62107SOL    HW288161  11.167   7.832   6.758
62108SOL     OW88162   2.193   4.922   4.007
62108SOL    HW188163   2.216   5.003   4.052
62108SOL    HW288164   2.107   4.938   3.969
62109SOL     OW88165   1.659   3.169  11.556
62109SOL    HW188166   1.600   3.229  11.602
62109SOL    HW288167   1.624   3.165  11.467
62110SOL     OW88168   0.496  13.412  14.196
62110SOL    HW188169   0.518  13.460  14.276
62110SOL    HW288170   0.462  13.328  14.226
62111SOL     OW88171   1.540   8.504  10.996
62111SOL    HW188172   1.470   8.480  11.057
62111SOL    HW288173   1.544   8.432  10.933
62112SOL     OW88174  14.630  14.452  11.634
62112SOL    HW188175  14.601  14.361  11.637
62112SOL    HW288176  14.726  14.446  11.637
62113SOL     OW88177   2.280   6.907   1.520
62113SOL    HW188178   2.274   6.969   1.593
62113SOL    HW288179   2.230   6.830   1.550
62114SOL     OW88180   5.244   9.559   7.737
62114SOL    HW188181   5.255   9.602   7.652
62114SOL    HW288182   5.227   9.631   7.798
62115SOL     OW88183   8.875   7.852   9.847
62115SOL    HW188184   8.877   7.873   9.754
62115SOL    HW288185   8.899   7.934   9.891
62116SOL     OW88186  14.639   5.787   6.171
62116SOL    HW188187  14.653   5.881   6.183
62116SOL    HW288188  14.663   5.771   6.079
62117SOL     OW88189   1.884   9.315   8.017
62117SOL    HW188190   1.833   9.258   7.960
62117SOL    HW288191   1.942   9.256   8.065
62118SOL     OW88192   1.779   3.389  13.393
62118SOL    HW188193   1.847   3.405  13.458
62118SOL    HW288194   1.744   3.476  13.374
62119SOL     OW88195   8.102  13.642   5.650
62119SOL    HW188196   8.075  13.692   5.727
62119SOL    HW288197   8.074  13.695   5.576
62120SOL     OW88198   7.792   1.067   8.364
62120SOL    HW188199   7.786   0.972   8.358
62120SOL    HW288200   7.769   1.099   8.277
62121SOL     OW88201  14.842   0.808   3.708
62121SOL    HW188202  14.826   0.725   3.663
62121SOL    HW288203  14.767   0.818   3.767
62122SOL     OW88204   8.902   6.983   9.096
62122SOL    HW188205   8.851   6.920   9.046
62122SOL    HW288206   8.984   6.938   9.115
62123SOL     OW88207   2.256   5.246   1.594
62123SOL    HW188208   2.262   5.154   1.620
62123SOL    HW288209   2.345   5.280   1.606
62124SOL     OW88210  13.168   8.164   3.891
62124SOL    HW188211  13.164   8.134   3.801
62124SOL    HW288212  13.261   8.183   3.906
62125SOL     OW88213  12.793   6.321  10.977
62125SOL    HW188214  12.856   6.376  10.930
62125SOL    HW288215  12.758   6.262  10.910
62126SOL     OW88216   1.974   5.311   8.726
62126SOL    HW188217   2.019   5.370   8.785
62126SOL    HW288218   1.958   5.232   8.778
62127SOL     OW88219   1.777   6.397  12.940
62127SOL    HW188220   1.860   6.353  12.956
62127SOL    HW288221   1.746   6.423  13.027
62128SOL     OW88222   4.890  14.399  12.988
62128SOL    HW188223   4.883  14.489  13.018
62128SOL    HW288224   4.970  14.397  12.937
62129SOL     OW88225  12.132   2.378  10.265
62129SOL    HW188226  12.112   2.435  10.190
62129SOL    HW288227  12.125   2.435  10.341
62130SOL     OW88228   3.387   2.184   0.669
62130SOL    HW188229   3.379   2.200   0.575
62130SOL    HW288230   3.298   2.193   0.703
62131SOL     OW88231   7.550   1.262   4.054
62131SOL    HW188232   7.594   1.178   4.065
62131SOL    HW288233   7.612   1.327   4.087
62132SOL     OW88234  12.939   4.887  14.788
62132SOL    HW188235  12.918   4.821  14.721
62132SOL    HW288236  13.007   4.941  14.746
62133SOL     OW88237   5.662   6.975  14.850
62133SOL    HW188238   5.605   6.916  14.800
62133SOL    HW288239   5.676   7.050  14.793
62134SOL     OW88240   7.806   0.357   3.078
62134SOL    HW188241   7.758   0.433   3.044
62134SOL    HW288242   7.883   0.395   3.120
62135SOL     OW88243   9.134   5.240   6.191
62135SOL    HW188244   9.132   5.314   6.252
62135SOL    HW288245   9.070   5.263   6.124
62136SOL     OW88246   9.912   9.534   9.865
62136SOL    HW188247   9.979   9.537   9.934
62136SOL    HW288248   9.857   9.460   9.890
62137SOL     OW88249   9.556   5.500  13.153
62137SOL    HW188250   9.562   5.405  13.157
62137SOL    HW288251   9.637   5.527  13.108
62138SOL     OW88252   0.084   6.132  12.689
62138SOL    HW188253   0.052   6.222  12.696
62138SOL    HW288254   0.176   6.142  12.664
62139SOL     OW88255   7.471   8.444  10.946
62139SOL    HW188256   7.524   8.376  10.906
62139SOL    HW288257   7.516   8.466  11.028
62140SOL     OW88258   2.884   6.229   4.966
62140SOL    HW188259   2.950   6.284   5.008
62140SOL    HW288260   2.826   6.203   5.037
62141SOL     OW88261  13.656  14.730   6.102
62141SOL    HW188262  13.641  14.789   6.028
62141SOL    HW288263  13.624  14.777   6.178
62142SOL     OW88264   9.628   2.367   2.537
62142SOL    HW188265   9.663   2.452   2.512
62142SOL    HW288266   9.574   2.385   2.614
62143SOL     OW88267   0.084  11.281  10.037
62143SOL    HW188268   0.130  11.204  10.070
62143SOL    HW288269   0.153  11.335   9.997
62144SOL     OW88270  10.850   2.920  13.808
62144SOL    HW188271  10.775   2.915  13.748
62144SOL    HW288272  10.874   2.828  13.824
62145SOL     OW88273  13.691   1.531   3.849
62145SOL    HW188274  13.720   1.608   3.899
62145SOL    HW288275  13.601   1.553   3.822
62146SOL     OW88276   0.328  11.485   3.694
62146SOL    HW188277   0.380  11.456   3.619
62146SOL    HW288278   0.239  11.494   3.661
62147SOL     OW88279   1.951  14.874   1.722
62147SOL    HW188280   2.011  14.855   1.794
62147SOL    HW288281   1.982  14.821   1.649
62148SOL     OW88282   8.880   6.638  13.281
62148SOL    HW188283   8.792   6.600  13.278
62148SOL    HW288284   8.870   6.718  13.333
62149SOL     OW88285   6.954   2.817   5.896
62149SOL    HW188286   6.973   2.780   5.982
62149SOL    HW288287   6.872   2.776   5.869
62150SOL     OW88288   2.144   2.800   6.175
62150SOL    HW188289   2.209   2.820   6.243
62150SOL    HW288290   2.073   2.862   6.191
62151SOL     OW88291   5.108   2.334   6.500
62151SOL    HW188292   5.116   2.343   6.594
62151SOL    HW288293   5.055   2.409   6.472
62152SOL     OW88294   9.142   6.335  14.107
62152SOL    HW188295   9.105   6.316  14.020
62152SOL    HW288296   9.215   6.394  14.090
62153SOL     OW88297   6.591  11.245  10.846
62153SOL    HW188298   6.517  11.281  10.798
62153SOL    HW288299   6.566  11.154  10.863
62154SOL     OW88300   4.200   2.997   5.623
62154SOL    HW188301   4.273   2.956   5.670
62154SOL    HW288302   4.160   3.055   5.687
62155SOL     OW88303   9.264   4.093   9.825
62155SOL    HW188304   9.315   4.173   9.840
62155SOL    HW288305   9.227   4.104   9.738
62156SOL     OW88306   3.802   7.269   6.730
62156SOL    HW188307   3.848   7.236   6.807
62156SOL    HW288308   3.804   7.364   6.741
62157SOL     OW88309   2.584   2.657   0.497
62157SOL    HW188310   2.527   2.730   0.471
62157SOL    HW288311   2.586   2.662   0.592
62158SOL     OW88312   8.275  14.851   5.715
62158SOL    HW188313   8.214  14.831   5.644
62158SOL    HW288314   8.277   0.067   5.717
62159SOL     OW88315  11.985   0.149  12.018
62159SOL    HW188316  11.954   0.086  12.084
62159SOL    HW288317  11.944   0.232  12.043
62160SOL     OW88318   3.703   4.811   9.851
62160SOL    HW188319   3.741   4.722   9.849
62160SOL    HW288320   3.671   4.824   9.762
62161SOL     OW88321   6.233   5.642   8.785
62161SOL    HW188322   6.155   5.696   8.772
62161SOL    HW288323   6.223   5.607   8.873
62162SOL     OW88324   4.956   2.470   3.017
62162SOL    HW188325   4.906   2.388   3.022
62162SOL    HW288326   5.033   2.447   2.964
62163SOL     OW88327   5.563   7.201   0.725
62163SOL    HW188328   5.488   7.142   0.733
62163SOL    HW288329   5.568   7.221   0.631
62164SOL     OW88330   2.305   6.424   1.494
62164SOL    HW188331   2.260   6.497   1.451
62164SOL    HW288332   2.394   6.454   1.506
62165SOL     OW88333   8.370   5.304   5.276
62165SOL    HW188334   8.398   5.340   5.360
62165SOL    HW288335   8.449   5.261   5.241
62166SOL     OW88336  11.231   7.396  14.160
62166SOL    HW188337  11.211   7.422  14.070
62166SOL    HW288338  11.162   7.335  14.184
62167SOL     OW88339  11.856   7.226   1.307
62167SOL    HW188340  11.773   7.243   1.264
62167SOL    HW288341  11.852   7.133   1.333
62168SOL     OW88342  10.221   8.157   4.414
62168SOL    HW188343  10.267   8.208   4.481
62168SOL    HW288344  10.128   8.169   4.435
62169SOL     OW88345   2.339  13.599   0.602
62169SOL    HW188346   2.302  13.515   0.631
62169SOL    HW288347   2.431  13.594   0.628
62170SOL     OW88348  11.192   2.704   6.645
62170SOL    HW188349  11.157   2.792   6.655
62170SOL    HW288350  11.114   2.648   6.636
62171SOL     OW88351   9.950   3.127   8.210
62171SOL    HW188352   9.898   3.072   8.151
62171SOL    HW288353   9.987   3.195   8.154
62172SOL     OW88354   2.486   3.888   1.088
62172SOL    HW188355   2.399   3.880   1.127
62172SOL    HW288356   2.469   3.907   0.996
62173SOL     OW88357   6.976   9.476   9.256
62173SOL    HW188358   6.985   9.566   9.288
62173SOL    HW288359   6.884   9.468   9.233
62174SOL     OW88360   5.624   2.940   1.545
62174SOL    HW188361   5.676   3.008   1.587
62174SOL    HW288362   5.582   2.893   1.618
62175SOL     OW88363  12.495  13.267  10.360
62175SOL    HW188364  12.518  13.298  10.272
62175SOL    HW288365  12.573  13.222  10.392
62176SOL     OW88366   7.316  14.754   3.371
62176SOL    HW188367   7.261  14.807   3.314
62176SOL    HW288368   7.299  14.664   3.345
62177SOL     OW88369   9.501   7.495  11.404
62177SOL    HW188370   9.509   7.578  11.452
62177SOL    HW288371   9.590   7.460  11.400
62178SOL     OW88372  10.521   0.910   9.121
62178SOL    HW188373  10.511   0.892   9.027
62178SOL    HW288374  10.580   0.842   9.152
62179SOL     OW88375  11.596  13.319   8.745
62179SOL    HW188376  11.558  13.283   8.825
62179SOL    HW288377  11.606  13.244   8.687
62180SOL     OW88378   9.755  11.521   3.432
62180SOL    HW188379   9.731  11.598   3.485
62180SOL    HW288380   9.775  11.454   3.497
62181SOL     OW88381   4.923   1.782   0.628
62181SOL    HW188382   4.962   1.708   0.580
62181SOL    HW288383   4.855   1.815   0.569
62182SOL     OW88384   8.362   0.632  14.754
62182SOL    HW188385   8.337   0.616  14.663
62182SOL    HW288386   8.455   0.656  14.750
62183SOL     OW88387  12.167  14.697   0.405
62183SOL    HW188388  12.172  14.777   0.458
62183SOL    HW288389  12.256  14.661   0.407
62184SOL     OW88390  12.321   5.233  14.637
62184SOL    HW188391  12.346   5.316  14.598
62184SOL    HW288392  12.349   5.167  14.574
62185SOL     OW88393   4.435   7.514  11.742
62185SOL    HW188394   4.443   7.456  11.818
62185SOL    HW288395   4.341   7.513  11.721
62186SOL     OW88396   9.981   8.972   6.427
62186SOL    HW188397  10.023   8.933   6.504
62186SOL    HW288398   9.896   8.929   6.421
62187SOL     OW88399   5.355   1.812  14.613
62187SOL    HW188400   5.390   1.760  14.541
62187SOL    HW288401   5.401   1.896  14.606
62188SOL     OW88402   9.640   4.718  12.872
62188SOL    HW188403   9.578   4.710  12.944
62188SOL    HW288404   9.712   4.770  12.908
62189SOL     OW88405   5.213  12.610  13.722
62189SOL    HW188406   5.259  12.685  13.682
62189SOL    HW288407   5.122  12.639  13.729
62190SOL     OW88408   1.656   9.644  12.784
62190SOL    HW188409   1.700   9.604  12.709
62190SOL    HW288410   1.680   9.736  12.779
62191SOL     OW88411   0.099  12.395   1.962
62191SOL    HW188412   0.073  12.380   1.871
62191SOL    HW288413   0.145  12.315   1.988
62192SOL     OW88414  13.719   3.369   9.938
62192SOL    HW188415  13.759   3.309   9.875
62192SOL    HW288416  13.677   3.436   9.884
62193SOL     OW88417   2.457   5.853  14.566
62193SOL    HW188418   2.457   5.928  14.506
62193SOL    HW288419   2.423   5.887  14.648
62194SOL     OW88420   1.083   8.431  10.482
62194SOL    HW188421   1.176   8.415  10.501
62194SOL    HW288422   1.077   8.525  10.466
62195SOL     OW88423   8.207   3.952   5.024
62195SOL    HW188424   8.115   3.931   5.040
62195SOL    HW288425   8.215   4.045   5.047
62196SOL     OW88426   4.742  11.600  10.296
62196SOL    HW188427   4.794  11.650  10.234
62196SOL    HW288428   4.781  11.513  10.296
62197SOL     OW88429   8.634  10.723  12.646
62197SOL    HW188430   8.592  10.748  12.563
62197SOL    HW288431   8.672  10.637  12.630
62198SOL     OW88432  10.416  10.332  12.234
62198SOL    HW188433  10.378  10.260  12.183
62198SOL    HW288434  10.459  10.388  12.169
62199SOL     OW88435   9.556   3.849   9.731
62199SOL    HW188436   9.633   3.796   9.748
62199SOL    HW288437   9.567   3.927   9.785
62200SOL     OW88438   2.556  12.833  14.136
62200SOL    HW188439   2.490  12.769  14.108
62200SOL    HW288440   2.620  12.834  14.065
62201SOL     OW88441   2.485  13.012   0.584
62201SOL    HW188442   2.464  13.073   0.514
62201SOL    HW288443   2.450  12.928   0.553
62202SOL     OW88444   4.946   8.928   6.834
62202SOL    HW188445   5.031   8.906   6.872
62202SOL    HW288446   4.967   8.960   6.746
62203SOL     OW88447  11.565  10.968   9.851
62203SOL    HW188448  11.539  10.892   9.904
62203SOL    HW288449  11.585  11.036   9.914
62204SOL     OW88450   1.543   8.871  12.276
62204SOL    HW188451   1.614   8.849  12.336
62204SOL    HW288452   1.560   8.815  12.199
62205SOL     OW88453   5.557   5.270   4.812
62205SOL    HW188454   5.589   5.224   4.890
62205SOL    HW288455   5.617   5.245   4.742
62206SOL     OW88456   6.579   3.293  12.761
62206SOL    HW188457   6.671   3.318  12.747
62206SOL    HW288458   6.529   3.369  12.730
62207SOL     OW88459  12.168   8.125   2.713
62207SOL    HW188460  12.190   8.032   2.712
62207SOL    HW288461  12.108   8.137   2.639
62208SOL     OW88462  12.661   2.131   4.872
62208SOL    HW188463  12.573   2.169   4.874
62208SOL    HW288464  12.676   2.110   4.780
62209SOL     OW88465   2.927   7.646   1.326
62209SOL    HW188466   2.942   7.552   1.333
62209SOL    HW288467   3.014   7.685   1.331
62210SOL     OW88468   1.365   7.673   2.206
62210SOL    HW188469   1.340   7.759   2.172
62210SOL    HW288470   1.389   7.690   2.298
62211SOL     OW88471   6.387  12.713   8.755
62211SOL    HW188472   6.385  12.694   8.849
62211SOL    HW288473   6.299  12.691   8.725
62212SOL     OW88474  10.952   9.262   7.931
62212SOL    HW188475  11.021   9.203   7.900
62212SOL    HW288476  10.988   9.303   8.009
62213SOL     OW88477  10.009   3.496   5.020
62213SOL    HW188478  10.070   3.568   5.036
62213SOL    HW288479   9.923   3.530   5.043
62214SOL     OW88480  12.889   0.092  10.171
62214SOL    HW188481  12.815   0.146  10.200
62214SOL    HW288482  12.963   0.124  10.222
62215SOL     OW88483   8.642  13.265  13.066
62215SOL    HW188484   8.710  13.206  13.098
62215SOL    HW288485   8.688  13.347  13.047
62216SOL     OW88486  13.127   8.099   3.627
62216SOL    HW188487  13.064   8.046   3.578
62216SOL    HW288488  13.176   8.147   3.559
62217SOL     OW88489   9.380   6.734  12.270
62217SOL    HW188490   9.289   6.764  12.279
62217SOL    HW288491   9.410   6.774  12.188
62218SOL     OW88492  11.477   3.164   9.357
62218SOL    HW188493  11.448   3.084   9.399
62218SOL    HW288494  11.411   3.229   9.380
62219SOL     OW88495  13.058  12.386   5.454
62219SOL    HW188496  13.032  12.375   5.546
62219SOL    HW288497  13.011  12.464   5.425
62220SOL     OW88498  13.291   7.649   0.211
62220SOL    HW188499  13.374   7.697   0.221
62220SOL    HW288500  13.317   7.561   0.184
62221SOL     OW88501  14.382  12.699  10.237
62221SOL    HW188502  14.309  12.757  10.257
62221SOL    HW288503  14.357  12.656  10.155
62222SOL     OW88504   3.451  12.376   6.857
62222SOL    HW188505   3.481  12.370   6.948
62222SOL    HW288506   3.356  12.370   6.864
62223SOL     OW88507   3.444  11.729   9.398
62223SOL    HW188508   3.397  11.688   9.326
62223SOL    HW288509   3.433  11.823   9.384
62224SOL     OW88510   6.710   4.625   0.926
62224SOL    HW188511   6.663   4.707   0.912
62224SOL    HW288512   6.761   4.639   1.006
62225SOL     OW88513   7.762   5.707   6.279
62225SOL    HW188514   7.782   5.618   6.307
62225SOL    HW288515   7.800   5.763   6.347
62226SOL     OW88516  11.512   1.601  10.327
62226SOL    HW188517  11.592   1.654  10.337
62226SOL    HW288518  11.454   1.656  10.275
62227SOL     OW88519   5.027  11.401   5.309
62227SOL    HW188520   4.950  11.417   5.364
62227SOL    HW288521   5.072  11.328   5.352
62228SOL     OW88522   1.342   3.713   9.889
62228SOL    HW188523   1.336   3.726   9.795
62228SOL    HW288524   1.297   3.789   9.927
62229SOL     OW88525  12.078   5.657   2.952
62229SOL    HW188526  12.098   5.680   3.042
62229SOL    HW288527  12.055   5.740   2.910
62230SOL     OW88528   2.376  11.635   0.069
62230SOL    HW188529   2.320  11.709   0.093
62230SOL    HW288530   2.438  11.627   0.141
62231SOL     OW88531   2.397  12.828   6.832
62231SOL    HW188532   2.344  12.864   6.760
62231SOL    HW288533   2.377  12.885   6.906
62232SOL     OW88534   1.627  13.355   2.729
62232SOL    HW188535   1.707  13.303   2.736
62232SOL    HW288536   1.560  13.300   2.771
62233SOL     OW88537   7.626   2.212   1.960
62233SOL    HW188538   7.552   2.186   1.906
62233SOL    HW288539   7.607   2.302   1.986
62234SOL     OW88540   1.183   9.679   0.031
62234SOL    HW188541   1.141   9.599   0.061
62234SOL    HW288542   1.153   9.690  14.821
62235SOL     OW88543   0.305   9.688  10.143
62235SOL    HW188544   0.319   9.704  10.050
62235SOL    HW288545   0.331   9.597  10.156
62236SOL     OW88546   5.616  11.299  11.908
62236SOL    HW188547   5.574  11.213  11.896
62236SOL    HW288548   5.683  11.284  11.975
62237SOL     OW88549  14.141   6.946  13.128
62237SOL    HW188550  14.223   6.984  13.097
62237SOL    HW288551  14.160   6.852  13.137
62238SOL     OW88552  13.749   6.885   0.847
62238SOL    HW188553  13.836   6.852   0.868
62238SOL    HW288554  13.727   6.844   0.763
62239SOL     OW88555   4.630  10.260  14.737
62239SOL    HW188556   4.649  10.224  14.651
62239SOL    HW288557   4.608  10.351  14.720
62240SOL     OW88558   6.997   6.446   7.095
62240SOL    HW188559   6.916   6.477   7.136
62240SOL    HW288560   7.056   6.427   7.168
62241SOL     OW88561  12.572   0.811  12.680
62241SOL    HW188562  12.481   0.817  12.711
62241SOL    HW288563  12.625   0.821  12.759
62242SOL     OW88564   6.005   2.916   5.330
62242SOL    HW188565   6.049   2.996   5.359
62242SOL    HW288566   5.957   2.885   5.406
62243SOL     OW88567  12.729  14.673   7.979
62243SOL    HW188568  12.711  14.767   7.975
62243SOL    HW288569  12.781  14.663   8.059
62244SOL     OW88570   6.991  13.555  13.875
62244SOL    HW188571   6.908  13.600  13.860
62244SOL    HW288572   7.051  13.594  13.811
62245SOL     OW88573  10.894   5.354   9.088
62245SOL    HW188574  10.877   5.267   9.053
62245SOL    HW288575  10.847   5.355   9.172
62246SOL     OW88576   7.483   7.980  10.363
62246SOL    HW188577   7.550   8.011  10.302
62246SOL    HW288578   7.444   7.905  10.318
62247SOL     OW88579   3.301   5.784  12.462
62247SOL    HW188580   3.394   5.763  12.456
62247SOL    HW288581   3.274   5.793  12.370
62248SOL     OW88582   2.550  14.452   5.141
62248SOL    HW188583   2.576  14.496   5.060
62248SOL    HW288584   2.552  14.359   5.119
62249SOL     OW88585  10.047   0.967  13.907
62249SOL    HW188586   9.996   0.889  13.882
62249SOL    HW288587   9.982   1.027  13.944
62250SOL     OW88588   4.007   6.293   0.346
62250SOL    HW188589   3.989   6.204   0.314
62250SOL    HW288590   4.100   6.293   0.367
62251SOL     OW88591  10.344   9.027  11.271
62251SOL    HW188592  10.269   9.079  11.242
62251SOL    HW288593  10.396   9.087  11.324
62252SOL     OW88594   9.622  10.763   0.874
62252SOL    HW188595   9.603  10.846   0.830
62252SOL    HW288596   9.640  10.701   0.803
62253SOL     OW88597  10.803   9.544  13.589
62253SOL    HW188598  10.803   9.448  13.584
62253SOL    HW288599  10.849   9.563  13.671
62254SOL     OW88600  12.490  13.781  13.204
62254SOL    HW188601  12.438  13.859  13.183
62254SOL    HW288602  12.457  13.752  13.288
62255SOL     OW88603   3.022  14.364   3.351
62255SOL    HW188604   3.077  14.363   3.430
62255SOL    HW288605   2.937  14.396   3.382
62256SOL     OW88606  10.194   0.598   8.951
62256SOL    HW188607  10.144   0.678   8.938
62256SOL    HW288608  10.149   0.552   9.021
62257SOL     OW88609  11.954   4.925   9.805
62257SOL    HW188610  12.024   4.990   9.799
62257SOL    HW288611  11.993   4.844   9.771
62258SOL     OW88612  10.174   5.175   2.548
62258SOL    HW188613  10.192   5.102   2.608
62258SOL    HW288614  10.152   5.133   2.465
62259SOL     OW88615  13.508  11.606  10.870
62259SOL    HW188616  13.592  11.602  10.825
62259SOL    HW288617  13.490  11.700  10.878
62260SOL     OW88618  11.753  14.265  11.596
62260SOL    HW188619  11.782  14.356  11.599
62260SOL    HW288620  11.664  14.267  11.632
62261SOL     OW88621   7.763   5.553   1.474
62261SOL    HW188622   7.723   5.492   1.536
62261SOL    HW288623   7.781   5.631   1.526
62262SOL     OW88624  11.325   0.305   1.898
62262SOL    HW188625  11.233   0.278   1.898
62262SOL    HW288626  11.349   0.307   1.806
62263SOL     OW88627  11.786   0.261  13.638
62263SOL    HW188628  11.711   0.228  13.588
62263SOL    HW288629  11.748   0.299  13.717
62264SOL     OW88630   2.473   6.811   3.498
62264SOL    HW188631   2.499   6.721   3.481
62264SOL    HW288632   2.378   6.812   3.481
62265SOL     OW88633   2.785  14.854  10.632
62265SOL    HW188634   2.862  14.850  10.689
62265SOL    HW288635   2.717  14.807  10.681
62266SOL     OW88636   0.869  12.373  10.016
62266SOL    HW188637   0.901  12.441  10.075
62266SOL    HW288638   0.859  12.296  10.072
62267SOL     OW88639  13.918   5.701  14.409
62267SOL    HW188640  13.982   5.671  14.344
62267SOL    HW288641  13.833   5.678  14.370
62268SOL     OW88642   8.092  14.045   3.556
62268SOL    HW188643   8.006  14.029   3.516
62268SOL    HW288644   8.078  14.122   3.612
62269SOL     OW88645   5.226   7.320   0.619
62269SOL    HW188646   5.291   7.258   0.587
62269SOL    HW288647   5.219   7.301   0.713
62270SOL     OW88648   9.077   0.940   7.791
62270SOL    HW188649   9.012   0.869   7.791
62270SOL    HW288650   9.156   0.900   7.755
62271SOL     OW88651  14.829  11.740  10.798
62271SOL    HW188652  14.790  11.710  10.716
62271SOL    HW288653   0.017  11.802  10.771
62272SOL     OW88654  10.005  12.119   9.512
62272SOL    HW188655  10.078  12.179   9.496
62272SOL    HW288656   9.965  12.107   9.427
62273SOL     OW88657   1.108   0.923  12.512
62273SOL    HW188658   1.050   0.849  12.528
62273SOL    HW288659   1.061   0.978  12.450
62274SOL     OW88660  12.017  10.240   9.536
62274SOL    HW188661  11.941  10.182   9.545
62274SOL    HW288662  11.980  10.328   9.544
62275SOL     OW88663   4.101   6.938   1.579
62275SOL    HW188664   4.144   6.981   1.653
62275SOL    HW288665   4.151   6.858   1.566
62276SOL     OW88666   5.387  14.600   9.240
62276SOL    HW188667   5.401  14.627   9.149
62276SOL    HW288668   5.361  14.508   9.234
62277SOL     OW88669   5.727   9.843   8.005
62277SOL    HW188670   5.748   9.804   7.921
62277SOL    HW288671   5.726   9.769   8.066
62278SOL     OW88672  10.933  10.489   0.851
62278SOL    HW188673  10.839  10.492   0.832
62278SOL    HW288674  10.948  10.401   0.885
62279SOL     OW88675   2.886  14.207   9.363
62279SOL    HW188676   2.886  14.301   9.381
62279SOL    HW288677   2.859  14.166   9.445
62280SOL     OW88678   6.721  11.445  11.661
62280SOL    HW188679   6.648  11.386  11.644
62280SOL    HW288680   6.683  11.516  11.713
62281SOL     OW88681  10.724   8.168   0.241
62281SOL    HW188682  10.738   8.087   0.191
62281SOL    HW288683  10.733   8.142   0.332
62282SOL     OW88684   4.216   4.817   4.699
62282SOL    HW188685   4.283   4.840   4.763
62282SOL    HW288686   4.209   4.722   4.704
62283SOL     OW88687   2.294  11.888   6.522
62283SOL    HW188688   2.296  11.794   6.542
62283SOL    HW288689   2.316  11.893   6.429
62284SOL     OW88690   3.903   2.522   6.013
62284SOL    HW188691   3.900   2.453   6.080
62284SOL    HW288692   3.971   2.582   6.044
62285SOL     OW88693   0.836   6.899   8.913
62285SOL    HW188694   0.819   6.839   8.986
62285SOL    HW288695   0.750   6.925   8.881
62286SOL     OW88696   4.354   3.591  13.291
62286SOL    HW188697   4.303   3.526  13.339
62286SOL    HW288698   4.429   3.608  13.346
62287SOL     OW88699   6.482   6.415   7.788
62287SOL    HW188700   6.392   6.448   7.777
62287SOL    HW288701   6.536   6.493   7.777
62288SOL     OW88702   0.351   2.698  12.387
62288SOL    HW188703   0.427   2.645  12.409
62288SOL    HW288704   0.312   2.721  12.472
62289SOL     OW88705   7.431   9.773   8.586
62289SOL    HW188706   7.506   9.826   8.611
62289SOL    HW288707   7.388   9.751   8.668
62290SOL     OW88708   3.963   5.738  13.989
62290SOL    HW188709   3.913   5.798  13.932
62290SOL    HW288710   4.032   5.703  13.933
62291SOL     OW88711   7.183   9.936   2.754
62291SOL    HW188712   7.233   9.956   2.675
62291SOL    HW288713   7.130  10.015   2.770
62292SOL     OW88714  11.680   4.024  10.728
62292SOL    HW188715  11.673   4.012  10.823
62292SOL    HW288716  11.652   3.939  10.692
62293SOL     OW88717  12.917   6.186  10.015
62293SOL    HW188718  12.958   6.108   9.977
62293SOL    HW288719  12.879   6.232   9.939
62294SOL     OW88720   5.308  14.598   5.714
62294SOL    HW188721   5.361  14.552   5.649
62294SOL    HW288722   5.219  14.567   5.698
62295SOL     OW88723  10.580   9.673  14.872
62295SOL    HW188724  10.666   9.702  14.843
62295SOL    HW288725  10.522   9.746  14.852
62296SOL     OW88726   7.416   6.392  11.452
62296SOL    HW188727   7.502   6.355  11.474
62296SOL    HW288728   7.413   6.475  11.499
62297SOL     OW88729   1.717   5.147  14.748
62297SOL    HW188730   1.674   5.130  14.664
62297SOL    HW288731   1.808   5.162  14.726
62298SOL     OW88732   1.788   8.836   1.076
62298SOL    HW188733   1.800   8.858   0.984
62298SOL    HW288734   1.696   8.857   1.094
62299SOL     OW88735  10.962   6.195   4.336
62299SOL    HW188736  10.882   6.220   4.383
62299SOL    HW288737  10.950   6.102   4.317
62300SOL     OW88738  12.156  13.378  13.305
62300SOL    HW188739  12.190  13.295  13.339
62300SOL    HW288740  12.084  13.353  13.247
62301SOL     OW88741  11.284   8.200  14.378
62301SOL    HW188742  11.291   8.121  14.432
62301SOL    HW288743  11.206   8.185  14.323
62302SOL     OW88744  12.636   6.752  12.661
62302SOL    HW188745  12.729   6.740  12.641
62302SOL    HW288746  12.624   6.706  12.745
62303SOL     OW88747   0.158  10.357   9.999
62303SOL    HW188748   0.168  10.330  10.091
62303SOL    HW288749   0.130  10.448  10.004
62304SOL     OW88750   3.095   5.922  12.076
62304SOL    HW188751   3.051   5.897  11.995
62304SOL    HW288752   3.053   5.869  12.144
62305SOL     OW88753   9.646   7.165   5.782
62305SOL    HW188754   9.700   7.102   5.734
62305SOL    HW288755   9.572   7.182   5.723
62306SOL     OW88756   5.608  14.308   6.079
62306SOL    HW188757   5.649  14.223   6.093
62306SOL    HW288758   5.561  14.299   5.997
62307SOL     OW88759  14.662   6.330  14.073
62307SOL    HW188760  14.609   6.395  14.027
62307SOL    HW288761  14.725   6.300  14.007
62308SOL     OW88762   4.734   2.992   3.662
62308SOL    HW188763   4.806   3.054   3.667
62308SOL    HW288764   4.775   2.906   3.668
62309SOL     OW88765   0.260  14.821   3.131
62309SOL    HW188766   0.354  14.803   3.126
62309SOL    HW288767   0.224  14.748   3.182
62310SOL     OW88768   3.042  12.240   5.367
62310SOL    HW188769   2.971  12.182   5.339
62310SOL    HW288770   3.003  12.327   5.366
62311SOL     OW88771   7.755  14.739  12.552
62311SOL    HW188772   7.666  14.708  12.570
62311SOL    HW288773   7.751  14.833  12.568
62312SOL     OW88774  13.048  14.049  10.175
62312SOL    HW188775  13.034  13.968  10.225
62312SOL    HW288776  13.004  14.033  10.091
62313SOL     OW88777  12.779  12.474  11.644
62313SOL    HW188778  12.864  12.518  11.641
62313SOL    HW288779  12.776  12.435  11.732
62314SOL     OW88780  12.070   2.523  10.065
62314SOL    HW188781  12.025   2.607  10.077
62314SOL    HW288782  12.092   2.521   9.972
62315SOL     OW88783   3.909   8.684  13.768
62315SOL    HW188784   4.002   8.667  13.758
62315SOL    HW288785   3.904   8.774  13.801
62316SOL     OW88786  12.087   6.911  11.953
62316SOL    HW188787  12.016   6.889  12.014
62316SOL    HW288788  12.167   6.899  12.004
62317SOL     OW88789  12.852   4.933  14.048
62317SOL    HW188790  12.872   4.901  14.137
62317SOL    HW288791  12.865   4.856  13.992
62318SOL     OW88792  14.738   6.239  14.563
62318SOL    HW188793  14.758   6.185  14.639
62318SOL    HW288794  14.714   6.324  14.599
62319SOL     OW88795  13.160  13.423  11.520
62319SOL    HW188796  13.190  13.350  11.466
62319SOL    HW288797  13.209  13.499  11.489
62320SOL     OW88798  14.590   4.393   0.409
62320SOL    HW188799  14.617   4.305   0.436
62320SOL    HW288800  14.510   4.379   0.358
62321SOL     OW88801  13.149  14.810   9.795
62321SOL    HW188802  13.126   0.004   9.739
62321SOL    HW288803  13.234  14.835   9.833
62322SOL     OW88804  11.728  11.086  13.144
62322SOL    HW188805  11.761  11.166  13.184
62322SOL    HW288806  11.757  11.091  13.053
62323SOL     OW88807   8.721   3.894   6.092
62323SOL    HW188808   8.801   3.855   6.059
62323SOL    HW288809   8.677   3.929   6.015
62324SOL     OW88810   9.835   7.371   9.739
62324SOL    HW188811   9.764   7.312   9.764
62324SOL    HW288812   9.791   7.451   9.711
62325SOL     OW88813   0.752   4.347  11.813
62325SOL    HW188814   0.832   4.385  11.777
62325SOL    HW288815   0.711   4.418  11.862
62326SOL     OW88816   7.260   9.192   9.780
62326SOL    HW188817   7.205   9.127   9.823
62326SOL    HW288818   7.255   9.170   9.686
62327SOL     OW88819   9.674  14.589   0.871
62327SOL    HW188820   9.589  14.578   0.912
62327SOL    HW288821   9.657  14.645   0.795
62328SOL     OW88822  14.644   7.864  10.261
62328SOL    HW188823  14.688   7.913  10.330
62328SOL    HW288824  14.553   7.892  10.266
62329SOL     OW88825   5.965   4.065  12.392
62329SOL    HW188826   5.974   4.158  12.371
62329SOL    HW288827   5.905   4.062  12.466
62330SOL     OW88828   6.374   6.778   0.510
62330SOL    HW188829   6.436   6.838   0.552
62330SOL    HW288830   6.323   6.833   0.451
62331SOL     OW88831  13.876   2.118   7.079
62331SOL    HW188832  13.959   2.105   7.125
62331SOL    HW288833  13.867   2.041   7.023
62332SOL     OW88834  11.764  13.307   8.460
62332SOL    HW188835  11.717  13.260   8.529
62332SOL    HW288836  11.711  13.385   8.444
62333SOL     OW88837  11.915   6.803   4.373
62333SOL    HW188838  11.935   6.741   4.444
62333SOL    HW288839  11.834   6.770   4.335
62334SOL     OW88840   0.677   2.096  12.320
62334SOL    HW188841   0.621   2.061  12.389
62334SOL    HW288842   0.766   2.069  12.346
62335SOL     OW88843   3.909   6.732   4.613
62335SOL    HW188844   3.864   6.815   4.628
62335SOL    HW288845   3.909   6.689   4.698
62336SOL     OW88846   0.059  10.208   2.678
62336SOL    HW188847   0.019  10.256   2.606
62336SOL    HW288848   0.128  10.266   2.710
62337SOL     OW88849  14.434   7.586   8.240
62337SOL    HW188850  14.528   7.583   8.225
62337SOL    HW288851  14.412   7.680   8.239
62338SOL     OW88852  10.593   1.568  10.370
62338SOL    HW188853  10.604   1.618  10.289
62338SOL    HW288854  10.674   1.583  10.418
62339SOL     OW88855   6.443   9.475   9.402
62339SOL    HW188856   6.368   9.532   9.419
62339SOL    HW288857   6.508   9.502   9.467
62340SOL     OW88858  10.959  10.088   3.268
62340SOL    HW188859  10.921  10.154   3.211
62340SOL    HW288860  10.906  10.009   3.251
62341SOL     OW88861   8.554   8.167   8.106
62341SOL    HW188862   8.486   8.226   8.073
62341SOL    HW288863   8.506   8.104   8.160
62342SOL     OW88864   9.119  11.779   8.767
62342SOL    HW188865   9.105  11.688   8.794
62342SOL    HW288866   9.190  11.774   8.702
62343SOL     OW88867   6.956  10.791  13.013
62343SOL    HW188868   7.001  10.841  12.946
62343SOL    HW288869   7.002  10.812  13.094
62344SOL     OW88870   7.065   9.561   8.093
62344SOL    HW188871   7.007   9.621   8.046
62344SOL    HW288872   7.132   9.617   8.131
62345SOL     OW88873   8.057   0.673   2.778
62345SOL    HW188874   8.053   0.728   2.856
62345SOL    HW288875   8.081   0.732   2.707
62346SOL     OW88876   3.973   7.886  10.274
62346SOL    HW188877   3.904   7.938  10.233
62346SOL    HW288878   3.997   7.935  10.353
62347SOL     OW88879   1.599   3.665  12.082
62347SOL    HW188880   1.561   3.584  12.116
62347SOL    HW288881   1.602   3.724  12.158
62348SOL     OW88882   4.476   4.268   7.083
62348SOL    HW188883   4.506   4.352   7.050
62348SOL    HW288884   4.553   4.229   7.125
62349SOL     OW88885  10.762   4.228   2.746
62349SOL    HW188886  10.693   4.162   2.741
62349SOL    HW288887  10.775   4.256   2.656
62350SOL     OW88888   8.320   3.300   0.526
62350SOL    HW188889   8.354   3.388   0.542
62350SOL    HW288890   8.382   3.262   0.464
62351SOL     OW88891   6.198  14.513   6.562
62351SOL    HW188892   6.114  14.472   6.539
62351SOL    HW288893   6.177  14.569   6.636
62352SOL     OW88894   6.905  12.767   8.391
62352SOL    HW188895   6.847  12.755   8.316
62352SOL    HW288896   6.953  12.685   8.399
62353SOL     OW88897   8.220  14.094  14.594
62353SOL    HW188898   8.132  14.097  14.632
62353SOL    HW288899   8.235  14.183  14.561
62354SOL     OW88900  10.793  14.347   8.359
62354SOL    HW188901  10.834  14.267   8.325
62354SOL    HW288902  10.770  14.325   8.449
62355SOL     OW88903   5.582  14.157   2.549
62355SOL    HW188904   5.504  14.114   2.514
62355SOL    HW288905   5.584  14.242   2.504
62356SOL     OW88906  12.259   7.877   7.624
62356SOL    HW188907  12.325   7.946   7.630
62356SOL    HW288908  12.291   7.808   7.683
62357SOL     OW88909   8.924   5.326  12.642
62357SOL    HW188910   8.833   5.299  12.632
62357SOL    HW288911   8.973   5.270  12.582
62358SOL     OW88912   4.989   7.189   7.367
62358SOL    HW188913   4.960   7.129   7.299
62358SOL    HW288914   4.987   7.137   7.447
62359SOL     OW88915   8.047   8.119  12.386
62359SOL    HW188916   7.979   8.168  12.340
62359SOL    HW288917   8.010   8.099  12.472
62360SOL     OW88918   4.375   4.302   3.133
62360SOL    HW188919   4.347   4.281   3.044
62360SOL    HW288920   4.423   4.225   3.163
62361SOL     OW88921   1.634  10.217  13.963
62361SOL    HW188922   1.590  10.133  13.979
62361SOL    HW288923   1.728  10.197  13.972
62362SOL     OW88924   4.827  11.405  13.787
62362SOL    HW188925   4.791  11.419  13.875
62362SOL    HW288926   4.918  11.378  13.803
62363SOL     OW88927   9.068  11.753   6.771
62363SOL    HW188928   9.052  11.821   6.837
62363SOL    HW288929   9.077  11.673   6.822
62364SOL     OW88930  10.682  11.055   3.074
62364SOL    HW188931  10.591  11.083   3.064
62364SOL    HW288932  10.704  11.012   2.992
62365SOL     OW88933   0.554   7.133  14.079
62365SOL    HW188934   0.521   7.213  14.120
62365SOL    HW288935   0.554   7.154  13.985
62366SOL     OW88936  12.981   3.351   9.436
62366SOL    HW188937  12.962   3.341   9.342
62366SOL    HW288938  13.024   3.268   9.460
62367SOL     OW88939   8.414   3.656   8.777
62367SOL    HW188940   8.470   3.705   8.718
62367SOL    HW288941   8.330   3.649   8.731
62368SOL     OW88942  11.631  11.607  14.031
62368SOL    HW188943  11.594  11.649  13.954
62368SOL    HW288944  11.619  11.670  14.102
62369SOL     OW88945  12.612   1.530   7.083
62369SOL    HW188946  12.705   1.512   7.090
62369SOL    HW288947  12.577   1.509   7.170
62370SOL     OW88948  14.101   9.406   4.325
62370SOL    HW188949  14.005   9.400   4.323
62370SOL    HW288950  14.126   9.364   4.408
62371SOL     OW88951  11.957   2.414   9.013
62371SOL    HW188952  12.033   2.408   8.955
62371SOL    HW288953  11.937   2.324   9.035
62372SOL     OW88954   3.385  14.524  13.029
62372SOL    HW188955   3.383  14.606  13.078
62372SOL    HW288956   3.293  14.496  13.026
62373SOL     OW88957   2.882   3.029  12.793
62373SOL    HW188958   2.966   3.056  12.831
62373SOL    HW288959   2.817   3.065  12.853
62374SOL     OW88960   5.071   0.553   5.590
62374SOL    HW188961   5.087   0.614   5.518
62374SOL    HW288962   5.058   0.469   5.547
62375SOL     OW88963  10.310  11.589   0.865
62375SOL    HW188964  10.271  11.590   0.778
62375SOL    HW288965  10.304  11.498   0.893
62376SOL     OW88966  10.459   5.136   1.936
62376SOL    HW188967  10.383   5.104   1.985
62376SOL    HW288968  10.505   5.057   1.909
62377SOL     OW88969   1.590   4.039   4.205
62377SOL    HW188970   1.536   4.063   4.130
62377SOL    HW288971   1.540   3.970   4.249
62378SOL     OW88972   0.883   8.002  13.730
62378SOL    HW188973   0.875   7.967  13.642
62378SOL    HW288974   0.866   8.096  13.721
62379SOL     OW88975   2.212   4.539   1.864
62379SOL    HW188976   2.258   4.492   1.794
62379SOL    HW288977   2.142   4.586   1.819
62380SOL     OW88978   2.714   7.762   2.411
62380SOL    HW188979   2.717   7.769   2.316
62380SOL    HW288980   2.702   7.852   2.441
62381SOL     OW88981   5.063  14.338   5.025
62381SOL    HW188982   4.984  14.382   4.994
62381SOL    HW288983   5.042  14.311   5.114
62382SOL     OW88984   9.460  14.507   8.750
62382SOL    HW188985   9.463  14.411   8.750
62382SOL    HW288986   9.367  14.529   8.753
62383SOL     OW88987   5.797   7.041  14.570
62383SOL    HW188988   5.734   6.970  14.558
62383SOL    HW288989   5.743   7.118  14.586
62384SOL     OW88990   4.716   7.163   9.159
62384SOL    HW188991   4.729   7.249   9.121
62384SOL    HW288992   4.712   7.103   9.084
62385SOL     OW88993   5.319   5.524   1.527
62385SOL    HW188994   5.319   5.525   1.623
62385SOL    HW288995   5.407   5.551   1.502
62386SOL     OW88996   3.454  11.922   4.493
62386SOL    HW188997   3.453  12.001   4.548
62386SOL    HW288998   3.520  11.941   4.426
62387SOL     OW88999   7.373   6.101  12.378
62387SOL    HW189000   7.304   6.036  12.389
62387SOL    HW289001   7.421   6.101  12.460
62388SOL     OW89002  10.224   2.583   1.338
62388SOL    HW189003  10.265   2.503   1.304
62388SOL    HW289004  10.296   2.645   1.346
62389SOL     OW89005   4.295   8.253   2.984
62389SOL    HW189006   4.349   8.312   2.931
62389SOL    HW289007   4.224   8.226   2.925
62390SOL     OW89008  13.322   0.674   3.161
62390SOL    HW189009  13.301   0.740   3.094
62390SOL    HW289010  13.303   0.717   3.244
62391SOL     OW89011   1.603  10.371  14.290
62391SOL    HW189012   1.620  10.277  14.286
62391SOL    HW289013   1.508  10.378  14.294
62392SOL     OW89014   3.349  12.709   4.297
62392SOL    HW189015   3.435  12.679   4.269
62392SOL    HW289016   3.298  12.629   4.310
62393SOL     OW89017  13.293   1.698   1.468
62393SOL    HW189018  13.237   1.754   1.415
62393SOL    HW289019  13.382   1.723   1.443
62394SOL     OW89020   9.118  11.326  11.229
62394SOL    HW189021   9.184  11.377  11.182
62394SOL    HW289022   9.045  11.387  11.241
62395SOL     OW89023  11.412   8.657   8.663
62395SOL    HW189024  11.425   8.747   8.694
62395SOL    HW289025  11.328   8.630   8.702
62396SOL     OW89026  14.153   1.448   6.320
62396SOL    HW189027  14.091   1.517   6.296
62396SOL    HW289028  14.176   1.406   6.237
62397SOL     OW89029   4.615  11.808  14.001
62397SOL    HW189030   4.538  11.831  13.950
62397SOL    HW289031   4.674  11.883  13.991
62398SOL     OW89032  11.775  13.549  10.908
62398SOL    HW189033  11.818  13.576  10.827
62398SOL    HW289034  11.846  13.547  10.973
62399SOL     OW89035   8.242   8.366  13.070
62399SOL    HW189036   8.316   8.382  13.011
62399SOL    HW289037   8.165   8.397  13.022
62400SOL     OW89038   6.299   7.759  10.631
62400SOL    HW189039   6.216   7.802  10.612
62400SOL    HW289040   6.316   7.778  10.724
62401SOL     OW89041   7.894   6.774   9.688
62401SOL    HW189042   7.861   6.693   9.651
62401SOL    HW289043   7.828   6.801   9.751
62402SOL     OW89044   4.982  12.730   4.458
62402SOL    HW189045   4.912  12.689   4.508
62402SOL    HW289046   5.014  12.802   4.513
62403SOL     OW89047   1.192  12.998   6.162
62403SOL    HW189048   1.200  13.056   6.237
62403SOL    HW289049   1.236  13.045   6.091
62404SOL     OW89050  11.417  12.267   3.137
62404SOL    HW189051  11.377  12.349   3.107
62404SOL    HW289052  11.486  12.250   3.074
62405SOL     OW89053   8.256  12.490   2.948
62405SOL    HW189054   8.164  12.494   2.923
62405SOL    HW289055   8.271  12.398   2.972
62406SOL     OW89056   4.926  13.861   0.421
62406SOL    HW189057   4.937  13.952   0.394
62406SOL    HW289058   4.921  13.812   0.339
62407SOL     OW89059   9.177   8.044   8.974
62407SOL    HW189060   9.130   7.986   8.915
62407SOL    HW289061   9.162   8.132   8.939
62408SOL     OW89062   3.551   7.174   4.807
62408SOL    HW189063   3.521   7.218   4.887
62408SOL    HW289064   3.637   7.213   4.789
62409SOL     OW89065  10.083   8.340   2.512
62409SOL    HW189066  10.131   8.281   2.455
62409SOL    HW289067  10.007   8.290   2.541
62410SOL     OW89068  13.209   1.289   7.964
62410SOL    HW189069  13.193   1.383   7.973
62410SOL    HW289070  13.264   1.281   7.886
62411SOL     OW89071   7.684   8.666  11.730
62411SOL    HW189072   7.642   8.703  11.653
62411SOL    HW289073   7.729   8.739  11.771
62412SOL     OW89074  10.262   7.481   0.586
62412SOL    HW189075  10.172   7.496   0.615
62412SOL    HW289076  10.316   7.503   0.662
62413SOL     OW89077   9.656   5.221  12.329
62413SOL    HW189078   9.674   5.308  12.292
62413SOL    HW289079   9.610   5.239  12.411
62414SOL     OW89080   2.290  10.960  10.607
62414SOL    HW189081   2.235  10.928  10.678
62414SOL    HW289082   2.378  10.928  10.629
62415SOL     OW89083   4.501   7.149   6.432
62415SOL    HW189084   4.506   7.057   6.459
62415SOL    HW289085   4.410   7.175   6.452
62416SOL     OW89086   2.475   7.588  14.247
62416SOL    HW189087   2.415   7.661  14.259
62416SOL    HW289088   2.434   7.515  14.293
62417SOL     OW89089  12.729  12.880   2.960
62417SOL    HW189090  12.716  12.969   2.992
62417SOL    HW289091  12.681  12.876   2.878
62418SOL     OW89092   9.997  11.693   0.433
62418SOL    HW189093   9.937  11.627   0.399
62418SOL    HW289094   9.997  11.762   0.366
62419SOL     OW89095   8.419  12.348   8.601
62419SOL    HW189096   8.487  12.280   8.598
62419SOL    HW289097   8.387  12.355   8.511
62420SOL     OW89098   1.114  10.484   4.930
62420SOL    HW189099   1.040  10.528   4.887
62420SOL    HW289100   1.121  10.526   5.015
62421SOL     OW89101  14.858   4.028   5.997
62421SOL    HW189102  14.840   4.082   5.921
62421SOL    HW289103  14.781   4.040   6.053
62422SOL     OW89104   4.346   1.120  10.466
62422SOL    HW189105   4.271   1.124  10.406
62422SOL    HW289106   4.307   1.134  10.553
62423SOL     OW89107   6.866   9.551   0.122
62423SOL    HW189108   6.839   9.495   0.049
62423SOL    HW289109   6.956   9.576   0.101
62424SOL     OW89110   6.822  14.458  12.110
62424SOL    HW189111   6.882  14.384  12.109
62424SOL    HW289112   6.738  14.422  12.080
62425SOL     OW89113  12.778   0.807  12.929
62425SOL    HW189114  12.797   0.901  12.918
62425SOL    HW289115  12.788   0.792  13.022
62426SOL     OW89116   6.764   8.584   2.441
62426SOL    HW189117   6.750   8.641   2.516
62426SOL    HW289118   6.679   8.580   2.398
62427SOL     OW89119   8.580   5.477  11.088
62427SOL    HW189120   8.531   5.414  11.141
62427SOL    HW289121   8.551   5.562  11.119
62428SOL     OW89122   1.577  13.877   1.413
62428SOL    HW189123   1.575  13.832   1.498
62428SOL    HW289124   1.486  13.904   1.398
62429SOL     OW89125  14.545  12.861  13.345
62429SOL    HW189126  14.458  12.853  13.305
62429SOL    HW289127  14.571  12.771  13.363
62430SOL     OW89128   1.468   0.716   8.945
62430SOL    HW189129   1.477   0.810   8.926
62430SOL    HW289130   1.450   0.713   9.039
62431SOL     OW89131  12.077   4.649   2.196
62431SOL    HW189132  12.004   4.671   2.138
62431SOL    HW289133  12.049   4.680   2.282
62432SOL     OW89134   1.121   9.679   3.637
62432SOL    HW189135   1.124   9.623   3.714
62432SOL    HW289136   1.202   9.659   3.590
62433SOL     OW89137   9.339   7.108   4.071
62433SOL    HW189138   9.281   7.073   4.138
62433SOL    HW289139   9.359   7.034   4.014
62434SOL     OW89140   2.200  14.655  10.186
62434SOL    HW189141   2.203  14.695  10.099
62434SOL    HW289142   2.212  14.562  10.170
62435SOL     OW89143  10.710  10.415   0.018
62435SOL    HW189144  10.781  10.480   0.017
62435SOL    HW289145  10.726  10.361  14.821
62436SOL     OW89146   2.853   0.245   6.302
62436SOL    HW189147   2.868   0.152   6.287
62436SOL    HW289148   2.851   0.284   6.214
62437SOL     OW89149  13.694   2.077  12.392
62437SOL    HW189150  13.652   2.101  12.474
62437SOL    HW289151  13.748   2.153  12.370
62438SOL     OW89152   6.465   1.894  12.757
62438SOL    HW189153   6.407   1.859  12.825
62438SOL    HW289154   6.438   1.847  12.677
62439SOL     OW89155  13.860   1.262   9.124
62439SOL    HW189156  13.785   1.254   9.183
62439SOL    HW289157  13.896   1.349   9.143
62440SOL     OW89158   6.433  11.197   6.166
62440SOL    HW189159   6.521  11.182   6.131
62440SOL    HW289160   6.376  11.191   6.090
62441SOL     OW89161  10.826  10.503  11.244
62441SOL    HW189162  10.885  10.496  11.319
62441SOL    HW289163  10.772  10.424  11.250
62442SOL     OW89164  12.931  12.389   4.307
62442SOL    HW189165  12.954  12.454   4.240
62442SOL    HW289166  12.928  12.438   4.389
62443SOL     OW89167   3.636   3.827  11.635
62443SOL    HW189168   3.620   3.830  11.729
62443SOL    HW289169   3.580   3.756  11.603
62444SOL     OW89170   6.458  10.590  14.262
62444SOL    HW189171   6.422  10.561  14.346
62444SOL    HW289172   6.549  10.562  14.264
62445SOL     OW89173   3.320  13.702  14.792
62445SOL    HW189174   3.357  13.784  14.761
62445SOL    HW289175   3.374  13.634  14.751
62446SOL     OW89176  10.260   6.810   7.564
62446SOL    HW189177  10.178   6.840   7.523
62446SOL    HW289178  10.232   6.751   7.634
62447SOL     OW89179   9.742   4.514   0.611
62447SOL    HW189180   9.679   4.509   0.540
62447SOL    HW289181   9.778   4.425   0.618
62448SOL     OW89182   7.759  11.206   4.221
62448SOL    HW189183   7.845  11.179   4.190
62448SOL    HW289184   7.710  11.125   4.232
62449SOL     OW89185   1.038   1.272  10.373
62449SOL    HW189186   1.046   1.325  10.452
62449SOL    HW289187   0.977   1.202  10.398
62450SOL     OW89188   9.053  13.627   0.691
62450SOL    HW189189   9.034  13.678   0.770
62450SOL    HW289190   8.971  13.581   0.672
62451SOL     OW89191  13.629   6.318   2.896
62451SOL    HW189192  13.593   6.229   2.903
62451SOL    HW289193  13.683   6.328   2.975
62452SOL     OW89194   7.172  13.477   5.021
62452SOL    HW189195   7.137  13.432   5.098
62452SOL    HW289196   7.095  13.512   4.977
62453SOL     OW89197   2.952   9.183   1.309
62453SOL    HW189198   2.961   9.250   1.377
62453SOL    HW289199   3.003   9.108   1.341
62454SOL     OW89200   8.507   9.547   2.865
62454SOL    HW189201   8.413   9.549   2.848
62454SOL    HW289202   8.518   9.596   2.947
62455SOL     OW89203   7.434   1.687   3.056
62455SOL    HW189204   7.501   1.638   3.008
62455SOL    HW289205   7.358   1.686   2.998
62456SOL     OW89206   3.385   8.105  10.422
62456SOL    HW189207   3.426   8.186  10.451
62456SOL    HW289208   3.457   8.054  10.383
62457SOL     OW89209   2.084   9.780   5.950
62457SOL    HW189210   2.170   9.758   5.915
62457SOL    HW289211   2.022   9.743   5.886
62458SOL     OW89212   4.321  10.966   2.022
62458SOL    HW189213   4.367  10.929   1.947
62458SOL    HW289214   4.285  10.890   2.068
62459SOL     OW89215   6.024   0.448   1.781
62459SOL    HW189216   6.106   0.493   1.799
62459SOL    HW289217   5.975   0.453   1.863
62460SOL     OW89218   5.453   3.751  11.417
62460SOL    HW189219   5.437   3.689  11.488
62460SOL    HW289220   5.415   3.709  11.339
62461SOL     OW89221  13.080  10.382   7.356
62461SOL    HW189222  13.012  10.399   7.292
62461SOL    HW289223  13.037  10.393   7.441
62462SOL     OW89224   6.617   1.576   4.490
62462SOL    HW189225   6.671   1.618   4.557
62462SOL    HW289226   6.528   1.601   4.512
62463SOL     OW89227  14.467   4.275   4.977
62463SOL    HW189228  14.506   4.230   5.053
62463SOL    HW289229  14.530   4.344   4.956
62464SOL     OW89230   7.321   9.106  11.389
62464SOL    HW189231   7.307   9.201  11.395
62464SOL    HW289232   7.260   9.068  11.452
62465SOL     OW89233   8.168   9.772  14.746
62465SOL    HW189234   8.198   9.717  14.818
62465SOL    HW289235   8.232   9.843  14.742
62466SOL     OW89236   0.384  10.617   7.234
62466SOL    HW189237   0.304  10.663   7.260
62466SOL    HW289238   0.352  10.537   7.191
62467SOL     OW89239   0.997   9.988  13.854
62467SOL    HW189240   0.994   9.895  13.831
62467SOL    HW289241   1.037   9.990  13.941
62468SOL     OW89242   1.291   5.443  11.985
62468SOL    HW189243   1.248   5.403  12.060
62468SOL    HW289244   1.221   5.487  11.938
62469SOL     OW89245   2.074  12.861   3.996
62469SOL    HW189246   2.145  12.924   3.979
62469SOL    HW289247   2.115  12.793   4.049
62470SOL     OW89248   0.052   1.106   1.571
62470SOL    HW189249  14.876   1.174   1.532
62470SOL    HW289250   0.121   1.093   1.507
62471SOL     OW89251   1.641   6.771   9.614
62471SOL    HW189252   1.637   6.832   9.540
62471SOL    HW289253   1.570   6.800   9.672
62472SOL     OW89254  12.109  10.911  14.831
62472SOL    HW189255  12.108  10.829   0.001
62472SOL    HW289256  12.191  10.953  14.856
62473SOL     OW89257   9.558  11.303   0.620
62473SOL    HW189258   9.594  11.363   0.685
62473SOL    HW289259   9.528  11.227   0.671
62474SOL     OW89260   4.798   6.687   6.830
62474SOL    HW189261   4.794   6.782   6.833
62474SOL    HW289262   4.784   6.665   6.737
62475SOL     OW89263   4.995   3.581   4.933
62475SOL    HW189264   5.068   3.520   4.941
62475SOL    HW289265   4.985   3.595   4.839
62476SOL     OW89266  12.116   6.204   6.465
62476SOL    HW189267  12.096   6.136   6.530
62476SOL    HW289268  12.076   6.283   6.501
62477SOL     OW89269  12.996  10.826   1.966
62477SOL    HW189270  12.989  10.757   1.900
62477SOL    HW289271  13.063  10.885   1.933
62478SOL     OW89272   6.957   8.584  11.242
62478SOL    HW189273   6.912   8.610  11.322
62478SOL    HW289274   6.993   8.497  11.262
62479SOL     OW89275   0.344  14.469  12.802
62479SOL    HW189276   0.360  14.561  12.823
62479SOL    HW289277   0.314  14.431  12.885
62480SOL     OW89278   1.646   4.142   4.437
62480SOL    HW189279   1.629   4.105   4.350
62480SOL    HW289280   1.666   4.234   4.420
62481SOL     OW89281  10.394   5.871   5.926
62481SOL    HW189282  10.445   5.790   5.925
62481SOL    HW289283  10.427   5.921   5.852
62482SOL     OW89284  11.608   8.626  12.498
62482SOL    HW189285  11.644   8.641  12.585
62482SOL    HW289286  11.660   8.554  12.462
62483SOL     OW89287  14.408   4.428  11.994
62483SOL    HW189288  14.486   4.383  11.961
62483SOL    HW289289  14.401   4.400  12.086
62484SOL     OW89290   9.422   1.940   1.338
62484SOL    HW189291   9.491   1.883   1.306
62484SOL    HW289292   9.342   1.905   1.299
62485SOL     OW89293   1.797   2.451   3.928
62485SOL    HW189294   1.757   2.421   4.010
62485SOL    HW289295   1.787   2.547   3.931
62486SOL     OW89296   2.650   6.085   7.426
62486SOL    HW189297   2.683   6.051   7.509
62486SOL    HW289298   2.555   6.078   7.434
62487SOL     OW89299  11.973   9.932   3.787
62487SOL    HW189300  11.908   9.864   3.807
62487SOL    HW289301  11.993   9.971   3.872
62488SOL     OW89302   6.923   6.820   9.242
62488SOL    HW189303   6.879   6.744   9.202
62488SOL    HW289304   6.999   6.782   9.286
62489SOL     OW89305   6.040   0.675   8.951
62489SOL    HW189306   6.095   0.606   8.988
62489SOL    HW289307   6.049   0.664   8.856
62490SOL     OW89308   9.673   1.469  12.740
62490SOL    HW189309   9.711   1.408  12.804
62490SOL    HW289310   9.687   1.555  12.779
62491SOL     OW89311   9.772   1.336   7.361
62491SOL    HW189312   9.792   1.260   7.415
62491SOL    HW289313   9.801   1.312   7.273
62492SOL     OW89314   2.067   2.924   0.434
62492SOL    HW189315   2.054   2.883   0.349
62492SOL    HW289316   1.986   2.905   0.482
62493SOL     OW89317  10.488   9.573  12.479
62493SOL    HW189318  10.519   9.482  12.486
62493SOL    HW289319  10.566   9.623  12.454
62494SOL     OW89320   7.517  11.816   0.332
62494SOL    HW189321   7.582  11.857   0.276
62494SOL    HW289322   7.493  11.884   0.395
62495SOL     OW89323   5.970   2.191  14.291
62495SOL    HW189324   5.973   2.279  14.329
62495SOL    HW289325   6.035   2.193  14.221
62496SOL     OW89326  11.886   7.960   8.627
62496SOL    HW189327  11.934   7.987   8.549
62496SOL    HW289328  11.949   7.909   8.678
62497SOL     OW89329   0.840   3.832  12.052
62497SOL    HW189330   0.911   3.808  11.992
62497SOL    HW289331   0.875   3.906  12.102
62498SOL     OW89332   2.520  13.317  12.938
62498SOL    HW189333   2.511  13.332  12.844
62498SOL    HW289334   2.586  13.248  12.946
62499SOL     OW89335   9.978  10.563  13.965
62499SOL    HW189336  10.000  10.482  14.011
62499SOL    HW289337   9.932  10.616  14.029
62500SOL     OW89338   3.431   8.174   7.367
62500SOL    HW189339   3.444   8.129   7.450
62500SOL    HW289340   3.341   8.150   7.341
62501SOL     OW89341  12.626  14.141   9.043
62501SOL    HW189342  12.551  14.093   9.079
62501SOL    HW289343  12.601  14.158   8.952
62502SOL     OW89344  13.293   3.144  13.609
62502SOL    HW189345  13.358   3.193  13.660
62502SOL    HW289346  13.212   3.193  13.621
62503SOL     OW89347  11.818   1.632  11.215
62503SOL    HW189348  11.861   1.694  11.274
62503SOL    HW289349  11.797   1.683  11.137
62504SOL     OW89350   9.784   1.949   2.448
62504SOL    HW189351   9.829   1.993   2.519
62504SOL    HW289352   9.743   1.872   2.489
62505SOL     OW89353  14.426   0.414  11.374
62505SOL    HW189354  14.463   0.440  11.290
62505SOL    HW289355  14.500   0.414  11.435
62506SOL     OW89356   6.578  12.625   8.574
62506SOL    HW189357   6.520  12.633   8.650
62506SOL    HW289358   6.656  12.582   8.609
62507SOL     OW89359   5.584   1.596   3.506
62507SOL    HW189360   5.604   1.591   3.600
62507SOL    HW289361   5.548   1.684   3.494
62508SOL     OW89362  12.012  11.236  14.256
62508SOL    HW189363  12.003  11.148  14.220
62508SOL    HW289364  12.055  11.286  14.187
62509SOL     OW89365  13.807  14.272  13.806
62509SOL    HW189366  13.717  14.238  13.813
62509SOL    HW289367  13.841  14.234  13.726
62510SOL     OW89368   5.639  13.434   4.020
62510SOL    HW189369   5.659  13.342   4.002
62510SOL    HW289370   5.690  13.483   3.955
62511SOL     OW89371  11.224   3.065  11.673
62511SOL    HW189372  11.179   3.085  11.755
62511SOL    HW289373  11.301   3.122  11.674
62512SOL     OW89374  10.699   6.907  10.359
62512SOL    HW189375  10.709   7.001  10.348
62512SOL    HW289376  10.785   6.877  10.388
62513SOL     OW89377  14.158   8.863   2.314
62513SOL    HW189378  14.231   8.839   2.371
62513SOL    HW289379  14.083   8.817   2.351
62514SOL     OW89380  14.338   9.288   3.473
62514SOL    HW189381  14.390   9.332   3.405
62514SOL    HW289382  14.249   9.319   3.459
62515SOL     OW89383   6.093   8.925   2.635
62515SOL    HW189384   6.032   8.851   2.643
62515SOL    HW289385   6.042   8.993   2.591
62516SOL     OW89386   1.217   3.737  12.896
62516SOL    HW189387   1.267   3.819  12.893
62516SOL    HW289388   1.273   3.673  12.851
62517SOL     OW89389   8.212   2.186  10.312
62517SOL    HW189390   8.183   2.277  10.300
62517SOL    HW289391   8.305   2.188  10.288
62518SOL     OW89392   0.591  14.139  13.396
62518SOL    HW189393   0.523  14.115  13.333
62518SOL    HW289394   0.653  14.191  13.346
62519SOL     OW89395   0.068  12.449   1.085
62519SOL    HW189396   0.092  12.356   1.076
62519SOL    HW289397  14.874  12.460   1.024
62520SOL     OW89398   7.101   1.599   3.380
62520SOL    HW189399   7.135   1.509   3.390
62520SOL    HW289400   7.174   1.655   3.405
62521SOL     OW89401  13.501   4.211   5.444
62521SOL    HW189402  13.573   4.274   5.434
62521SOL    HW289403  13.496   4.168   5.359
62522SOL     OW89404  11.164  14.849   1.417
62522SOL    HW189405  11.085  14.842   1.470
62522SOL    HW289406  11.197  14.759   1.412
62523SOL     OW89407   2.368   5.225   2.734
62523SOL    HW189408   2.309   5.153   2.759
62523SOL    HW289409   2.417   5.244   2.814
62524SOL     OW89410   3.414   5.155   6.060
62524SOL    HW189411   3.437   5.172   5.969
62524SOL    HW289412   3.469   5.081   6.086
62525SOL     OW89413  12.160   6.303  11.706
62525SOL    HW189414  12.132   6.289  11.796
62525SOL    HW289415  12.206   6.223  11.682
62526SOL     OW89416  10.277  10.993   4.981
62526SOL    HW189417  10.260  11.085   4.960
62526SOL    HW289418  10.191  10.951   4.979
62527SOL     OW89419   8.704   3.618  11.158
62527SOL    HW189420   8.732   3.706  11.185
62527SOL    HW289421   8.705   3.621  11.063
62528SOL     OW89422  14.841   9.573   0.320
62528SOL    HW189423  14.840   9.545   0.228
62528SOL    HW289424   0.016   9.652   0.320
62529SOL     OW89425   6.387  10.906   2.791
62529SOL    HW189426   6.353  10.919   2.703
62529SOL    HW289427   6.405  10.812   2.796
62530SOL     OW89428  12.283   2.380  12.222
62530SOL    HW189429  12.270   2.460  12.172
62530SOL    HW289430  12.347   2.404  12.289
62531SOL     OW89431   6.236  12.138   2.029
62531SOL    HW189432   6.157  12.108   1.986
62531SOL    HW289433   6.305  12.128   1.963
62532SOL     OW89434   3.420   9.837  14.638
62532SOL    HW189435   3.327   9.858  14.628
62532SOL    HW289436   3.432   9.822  14.731
62533SOL     OW89437   3.649   3.308   0.533
62533SOL    HW189438   3.558   3.288   0.555
62533SOL    HW289439   3.647   3.397   0.499
62534SOL     OW89440   0.230   8.784   7.199
62534SOL    HW189441   0.302   8.769   7.137
62534SOL    HW289442   0.274   8.808   7.281
62535SOL     OW89443   1.157   2.748   7.918
62535SOL    HW189444   1.081   2.714   7.967
62535SOL    HW289445   1.122   2.769   7.832
62536SOL     OW89446   9.749   1.450   9.235
62536SOL    HW189447   9.813   1.381   9.223
62536SOL    HW289448   9.797   1.518   9.283
62537SOL     OW89449   8.372   9.774   6.390
62537SOL    HW189450   8.349   9.684   6.412
62537SOL    HW289451   8.405   9.811   6.472
62538SOL     OW89452  12.380  10.082   9.293
62538SOL    HW189453  12.319  10.009   9.305
62538SOL    HW289454  12.338  10.156   9.337
62539SOL     OW89455   1.187   6.723   7.995
62539SOL    HW189456   1.219   6.639   8.029
62539SOL    HW289457   1.147   6.766   8.071
62540SOL     OW89458  10.569   4.925  12.049
62540SOL    HW189459  10.476   4.944  12.057
62540SOL    HW289460  10.588   4.937  11.956
62541SOL     OW89461  13.641  13.545   7.216
62541SOL    HW189462  13.602  13.631   7.205
62541SOL    HW289463  13.638  13.530   7.311
62542SOL     OW89464  14.131   3.439   9.357
62542SOL    HW189465  14.060   3.378   9.377
62542SOL    HW289466  14.093   3.501   9.295
62543SOL     OW89467  12.210  14.783  12.007
62543SOL    HW189468  12.199  14.846  12.078
62543SOL    HW289469  12.253  14.834  11.937
62544SOL     OW89470   6.072   0.523  13.585
62544SOL    HW189471   6.147   0.523  13.644
62544SOL    HW289472   6.063   0.614  13.557
62545SOL     OW89473   4.215  12.791  12.379
62545SOL    HW189474   4.266  12.862  12.419
62545SOL    HW289475   4.244  12.712  12.424
62546SOL     OW89476   4.574   4.930  10.216
62546SOL    HW189477   4.538   4.930  10.127
62546SOL    HW289478   4.560   4.841  10.247
62547SOL     OW89479   5.882  13.967   4.808
62547SOL    HW189480   5.793  13.938   4.830
62547SOL    HW289481   5.932  13.886   4.799
62548SOL     OW89482   4.436  13.017   8.409
62548SOL    HW189483   4.480  13.070   8.475
62548SOL    HW289484   4.371  13.077   8.370
62549SOL     OW89485   3.499   6.040  12.427
62549SOL    HW189486   3.432   5.974  12.415
62549SOL    HW289487   3.524   6.065  12.337
62550SOL     OW89488  12.202   0.890   4.318
62550SOL    HW189489  12.197   0.983   4.339
62550SOL    HW289490  12.294   0.875   4.298
62551SOL     OW89491  10.557  13.300   1.207
62551SOL    HW189492  10.491  13.231   1.216
62551SOL    HW289493  10.639  13.257   1.230
62552SOL     OW89494   9.894   5.439  14.119
62552SOL    HW189495   9.887   5.344  14.121
62552SOL    HW289496   9.811   5.470  14.155
62553SOL     OW89497   9.572  10.298   2.515
62553SOL    HW189498   9.611  10.310   2.601
62553SOL    HW289499   9.646  10.290   2.455
62554SOL     OW89500  11.951   9.684  10.792
62554SOL    HW189501  11.967   9.767  10.837
62554SOL    HW289502  11.994   9.695  10.707
62555SOL     OW89503  12.238  12.679  10.523
62555SOL    HW189504  12.214  12.587  10.537
62555SOL    HW289505  12.167  12.729  10.561
62556SOL     OW89506   6.601   0.321   1.858
62556SOL    HW189507   6.604   0.297   1.951
62556SOL    HW289508   6.557   0.247   1.816
62557SOL     OW89509   6.849   0.571   9.385
62557SOL    HW189510   6.812   0.583   9.472
62557SOL    HW289511   6.774   0.547   9.330
62558SOL     OW89512  14.234   2.557  13.120
62558SOL    HW189513  14.280   2.519  13.045
62558SOL    HW289514  14.303   2.596  13.174
62559SOL     OW89515   5.297  12.657   4.337
62559SOL    HW189516   5.342  12.605   4.271
62559SOL    HW289517   5.206  12.629   4.332
62560SOL     OW89518  13.677  10.087   4.279
62560SOL    HW189519  13.767  10.105   4.305
62560SOL    HW289520  13.668  10.126   4.192
62561SOL     OW89521   8.084   4.000   0.548
62561SOL    HW189522   8.014   3.937   0.531
62561SOL    HW289523   8.060   4.077   0.496
62562SOL     OW89524  13.265  10.440  10.235
62562SOL    HW189525  13.218  10.472  10.158
62562SOL    HW289526  13.267  10.345  10.225
62563SOL     OW89527  10.056  11.602  13.216
62563SOL    HW189528   9.971  11.642  13.233
62563SOL    HW289529  10.110  11.626  13.291
62564SOL     OW89530  11.589   5.529   5.382
62564SOL    HW189531  11.583   5.534   5.477
62564SOL    HW289532  11.648   5.455   5.366
62565SOL     OW89533   4.829  14.125   8.672
62565SOL    HW189534   4.806  14.216   8.657
62565SOL    HW289535   4.916  14.116   8.633
62566SOL     OW89536   5.668   4.904   4.752
62566SOL    HW189537   5.740   4.845   4.772
62566SOL    HW289538   5.675   4.974   4.817
62567SOL     OW89539   2.910   8.315   8.766
62567SOL    HW189540   2.881   8.233   8.805
62567SOL    HW289541   2.971   8.352   8.831
62568SOL     OW89542   1.306  12.889   0.614
62568SOL    HW189543   1.292  12.965   0.558
62568SOL    HW289544   1.401  12.875   0.613
62569SOL     OW89545   2.497   0.746   8.659
62569SOL    HW189546   2.568   0.688   8.688
62569SOL    HW289547   2.442   0.690   8.604
62570SOL     OW89548  11.576  11.277   7.885
62570SOL    HW189549  11.636  11.315   7.821
62570SOL    HW289550  11.566  11.345   7.952
62571SOL     OW89551  11.617   6.337  14.739
62571SOL    HW189552  11.555   6.311  14.807
62571SOL    HW289553  11.562   6.355  14.663
62572SOL     OW89554   9.982   8.576   5.688
62572SOL    HW189555  10.077   8.591   5.685
62572SOL    HW289556   9.971   8.485   5.663
62573SOL     OW89557   6.829  14.356  13.275
62573SOL    HW189558   6.748  14.320  13.239
62573SOL    HW289559   6.892  14.284  13.269
62574SOL     OW89560   7.823  14.297   9.822
62574SOL    HW189561   7.732  14.324   9.828
62574SOL    HW289562   7.821  14.212   9.778
62575SOL     OW89563   7.935   1.930   7.215
62575SOL    HW189564   7.955   1.862   7.280
62575SOL    HW289565   7.843   1.916   7.193
62576SOL     OW89566   5.345  11.885  11.196
62576SOL    HW189567   5.427  11.931  11.178
62576SOL    HW289568   5.372  11.806  11.242
62577SOL     OW89569   9.311   3.545   2.066
62577SOL    HW189570   9.314   3.517   1.975
62577SOL    HW289571   9.218   3.547   2.087
62578SOL     OW89572   1.387   8.316  11.747
62578SOL    HW189573   1.293   8.301  11.736
62578SOL    HW289574   1.401   8.309  11.842
62579SOL     OW89575  13.174   3.193  14.296
62579SOL    HW189576  13.213   3.180  14.210
62579SOL    HW289577  13.080   3.201  14.279
62580SOL     OW89578   3.773   9.313   5.445
62580SOL    HW189579   3.738   9.284   5.529
62580SOL    HW289580   3.855   9.357   5.467
62581SOL     OW89581   7.998   4.267   1.889
62581SOL    HW189582   7.904   4.263   1.871
62581SOL    HW289583   8.005   4.257   1.983
62582SOL     OW89584  13.263   9.451   4.477
62582SOL    HW189585  13.223   9.439   4.563
62582SOL    HW289586  13.258   9.545   4.461
62583SOL     OW89587   3.749   8.771  14.766
62583SOL    HW189588   3.665   8.730  14.788
62583SOL    HW289589   3.735   8.864  14.783
62584SOL     OW89590   1.457  14.304   7.264
62584SOL    HW189591   1.410  14.365   7.207
62584SOL    HW289592   1.416  14.314   7.350
62585SOL     OW89593   9.281   5.469  10.546
62585SOL    HW189594   9.350   5.471  10.480
62585SOL    HW289595   9.224   5.397  10.519
62586SOL     OW89596   8.339   3.876   6.324
62586SOL    HW189597   8.418   3.922   6.296
62586SOL    HW289598   8.348   3.867   6.419
62587SOL     OW89599  12.305   3.358   1.574
62587SOL    HW189600  12.237   3.343   1.508
62587SOL    HW289601  12.361   3.425   1.536
62588SOL     OW89602   5.619  12.891   6.464
62588SOL    HW189603   5.605  12.937   6.382
62588SOL    HW289604   5.687  12.941   6.509
62589SOL     OW89605   7.384   4.010   0.790
62589SOL    HW189606   7.389   3.976   0.880
62589SOL    HW289607   7.299   4.052   0.785
62590SOL     OW89608   0.270  14.426  14.745
62590SOL    HW189609   0.362  14.434  14.722
62590SOL    HW289610   0.257  14.491  14.815
62591SOL     OW89611   6.107   0.492  13.206
62591SOL    HW189612   6.075   0.436  13.277
62591SOL    HW289613   6.050   0.470  13.132
62592SOL     OW89614   4.865  14.561   4.675
62592SOL    HW189615   4.828  14.475   4.657
62592SOL    HW289616   4.950  14.561   4.631
62593SOL     OW89617  12.603  13.015   2.038
62593SOL    HW189618  12.627  12.978   2.123
62593SOL    HW289619  12.582  12.938   1.984
62594SOL     OW89620   7.735  10.548   9.774
62594SOL    HW189621   7.729  10.462   9.816
62594SOL    HW289622   7.646  10.569   9.748
62595SOL     OW89623   3.672   0.425   3.164
62595SOL    HW189624   3.699   0.343   3.124
62595SOL    HW289625   3.731   0.437   3.238
62596SOL     OW89626  11.785   8.570   2.023
62596SOL    HW189627  11.807   8.620   2.102
62596SOL    HW289628  11.823   8.484   2.038
62597SOL     OW89629   8.765  13.568   2.713
62597SOL    HW189630   8.771  13.580   2.808
62597SOL    HW289631   8.747  13.475   2.702
62598SOL     OW89632  14.044   9.688   2.448
62598SOL    HW189633  14.123   9.716   2.402
62598SOL    HW289634  13.979   9.678   2.379
62599SOL     OW89635   2.500   0.424   4.584
62599SOL    HW189636   2.502   0.401   4.677
62599SOL    HW289637   2.582   0.391   4.549
62600SOL     OW89638  11.767  10.800   1.646
62600SOL    HW189639  11.745  10.824   1.736
62600SOL    HW289640  11.862  10.807   1.642
62601SOL     OW89641   3.859   8.946   4.749
62601SOL    HW189642   3.909   9.025   4.730
62601SOL    HW289643   3.810   8.967   4.828
62602SOL     OW89644   9.558   3.376   3.242
62602SOL    HW189645   9.607   3.415   3.314
62602SOL    HW289646   9.555   3.445   3.176
62603SOL     OW89647   2.908  11.679   3.424
62603SOL    HW189648   2.847  11.661   3.495
62603SOL    HW289649   2.886  11.768   3.395
62604SOL     OW89650   5.648   9.902   5.028
62604SOL    HW189651   5.675   9.944   4.947
62604SOL    HW289652   5.702   9.943   5.096
62605SOL     OW89653   3.232   7.190   2.806
62605SOL    HW189654   3.326   7.176   2.812
62605SOL    HW289655   3.209   7.160   2.718
62606SOL     OW89656   1.826   4.236   4.167
62606SOL    HW189657   1.878   4.282   4.234
62606SOL    HW289658   1.872   4.254   4.085
62607SOL     OW89659   4.773   2.037  14.278
62607SOL    HW189660   4.860   2.002  14.258
62607SOL    HW289661   4.712   1.980  14.232
62608SOL     OW89662  13.735  11.373   3.122
62608SOL    HW189663  13.761  11.344   3.035
62608SOL    HW289664  13.712  11.293   3.169
62609SOL     OW89665   0.055   3.908   4.008
62609SOL    HW189666  14.872   3.894   4.080
62609SOL    HW289667   0.071   4.003   4.008
62610SOL     OW89668  14.728   0.552   9.448
62610SOL    HW189669  14.637   0.537   9.473
62610SOL    HW289670  14.731   0.645   9.426
62611SOL     OW89671   5.301   9.784   0.109
62611SOL    HW189672   5.319   9.698   0.148
62611SOL    HW289673   5.229   9.819   0.161
62612SOL     OW89674   4.935  14.575   4.246
62612SOL    HW189675   4.939  14.669   4.228
62612SOL    HW289676   4.989  14.563   4.324
62613SOL     OW89677   4.679   4.467   9.766
62613SOL    HW189678   4.767   4.439   9.741
62613SOL    HW289679   4.629   4.464   9.684
62614SOL     OW89680   0.725   5.076  13.761
62614SOL    HW189681   0.807   5.048  13.720
62614SOL    HW289682   0.732   5.046  13.851
62615SOL     OW89683   9.576   5.006   9.568
62615SOL    HW189684   9.494   4.990   9.520
62615SOL    HW289685   9.632   4.932   9.547
62616SOL     OW89686  11.988   9.684   8.208
62616SOL    HW189687  11.943   9.616   8.258
62616SOL    HW289688  12.051   9.637   8.154
62617SOL     OW89689   1.322  14.526   1.409
62617SOL    HW189690   1.273  14.492   1.484
62617SOL    HW289691   1.341  14.617   1.433
62618SOL     OW89692   3.163   2.243   3.718
62618SOL    HW189693   3.147   2.314   3.657
62618SOL    HW289694   3.219   2.281   3.785
62619SOL     OW89695   0.245   4.600   1.300
62619SOL    HW189696   0.262   4.661   1.228
62619SOL    HW289697   0.157   4.622   1.329
62620SOL     OW89698   1.440   8.722   3.263
62620SOL    HW189699   1.432   8.817   3.269
62620SOL    HW289700   1.465   8.695   3.352
62621SOL     OW89701  11.970   1.512   7.674
62621SOL    HW189702  11.999   1.551   7.592
62621SOL    HW289703  12.020   1.558   7.742
62622SOL     OW89704   0.253  14.260   3.584
62622SOL    HW189705   0.277  14.170   3.563
62622SOL    HW289706   0.168  14.273   3.542
62623SOL     OW89707   5.162   4.555   2.085
62623SOL    HW189708   5.140   4.462   2.090
62623SOL    HW289709   5.204   4.575   2.168
62624SOL     OW89710  14.148   8.015   3.175
62624SOL    HW189711  14.176   8.106   3.174
62624SOL    HW289712  14.082   8.009   3.107
62625SOL     OW89713   8.510   1.327   0.678
62625SOL    HW189714   8.418   1.301   0.669
62625SOL    HW289715   8.559   1.258   0.634
62626SOL     OW89716  13.305  12.383  10.456
62626SOL    HW189717  13.330  12.473  10.474
62626SOL    HW289718  13.212  12.389  10.432
62627SOL     OW89719  10.418  12.828   2.778
62627SOL    HW189720  10.439  12.765   2.847
62627SOL    HW289721  10.337  12.869   2.807
62628SOL     OW89722   6.069   8.235   8.146
62628SOL    HW189723   6.071   8.145   8.176
62628SOL    HW289724   6.140   8.278   8.194
62629SOL     OW89725   5.302  13.092   9.693
62629SOL    HW189726   5.218  13.120   9.657
62629SOL    HW289727   5.350  13.057   9.618
62630SOL     OW89728  13.510  10.229   0.538
62630SOL    HW189729  13.596  10.243   0.577
62630SOL    HW289730  13.452  10.210   0.612
62631SOL     OW89731   9.370   7.709   9.007
62631SOL    HW189732   9.276   7.715   9.027
62631SOL    HW289733   9.385   7.778   8.943
62632SOL     OW89734   7.911   7.309   9.947
62632SOL    HW189735   7.879   7.294  10.036
62632SOL    HW289736   8.006   7.301   9.953
62633SOL     OW89737  14.159   9.068  13.581
62633SOL    HW189738  14.190   9.138  13.524
62633SOL    HW289739  14.194   9.089  13.667
62634SOL     OW89740   4.798   4.263   6.350
62634SOL    HW189741   4.835   4.191   6.299
62634SOL    HW289742   4.857   4.270   6.425
62635SOL     OW89743   3.319   1.802  12.945
62635SOL    HW189744   3.276   1.717  12.933
62635SOL    HW289745   3.329   1.811  13.040
62636SOL     OW89746   8.086   2.262  10.700
62636SOL    HW189747   8.116   2.196  10.637
62636SOL    HW289748   8.164   2.287  10.748
62637SOL     OW89749  11.105   0.908  14.270
62637SOL    HW189750  11.109   0.853  14.192
62637SOL    HW289751  11.157   0.861  14.335
62638SOL     OW89752  11.261   5.377  10.762
62638SOL    HW189753  11.308   5.453  10.798
62638SOL    HW289754  11.326   5.308  10.759
62639SOL     OW89755   1.244  11.641  12.338
62639SOL    HW189756   1.298  11.703  12.288
62639SOL    HW289757   1.166  11.628  12.284
62640SOL     OW89758   1.398   9.319   2.913
62640SOL    HW189759   1.488   9.352   2.911
62640SOL    HW289760   1.399   9.242   2.856
62641SOL     OW89761   9.281   2.600   6.280
62641SOL    HW189762   9.294   2.647   6.362
62641SOL    HW289763   9.199   2.635   6.245
62642SOL     OW89764   1.400   7.949  14.004
62642SOL    HW189765   1.384   7.892  13.929
62642SOL    HW289766   1.317   7.995  14.018
62643SOL     OW89767   1.020   7.638   3.131
62643SOL    HW189768   1.054   7.727   3.122
62643SOL    HW289769   0.972   7.622   3.050
62644SOL     OW89770   0.403  12.140  12.054
62644SOL    HW189771   0.423  12.092  12.135
62644SOL    HW289772   0.478  12.197  12.041
62645SOL     OW89773   8.334   5.487  14.623
62645SOL    HW189774   8.278   5.473  14.547
62645SOL    HW289775   8.376   5.402  14.638
62646SOL     OW89776   2.305   9.275   3.217
62646SOL    HW189777   2.229   9.277   3.274
62646SOL    HW289778   2.301   9.190   3.174
62647SOL     OW89779   9.229   8.980  12.402
62647SOL    HW189780   9.168   9.044  12.368
62647SOL    HW289781   9.252   9.013  12.489
62648SOL     OW89782   6.936   3.444   0.120
62648SOL    HW189783   6.865   3.384   0.095
62648SOL    HW289784   7.014   3.388   0.123
62649SOL     OW89785   1.508  12.435  10.678
62649SOL    HW189786   1.567  12.477  10.616
62649SOL    HW289787   1.454  12.377  10.624
62650SOL     OW89788  11.297  13.615  11.305
62650SOL    HW189789  11.388  13.644  11.310
62650SOL    HW289790  11.302  13.531  11.259
62651SOL     OW89791  13.235   6.547   6.179
62651SOL    HW189792  13.266   6.635   6.202
62651SOL    HW289793  13.279   6.526   6.097
62652SOL     OW89794   0.296   1.692   1.758
62652SOL    HW189795   0.249   1.616   1.725
62652SOL    HW289796   0.366   1.656   1.813
62653SOL     OW89797   5.558   6.844  14.076
62653SOL    HW189798   5.609   6.925  14.083
62653SOL    HW289799   5.518   6.849  13.989
62654SOL     OW89800   5.316   0.486  10.844
62654SOL    HW189801   5.230   0.523  10.823
62654SOL    HW289802   5.324   0.497  10.939
62655SOL     OW89803   7.483   9.935  12.634
62655SOL    HW189804   7.572   9.947  12.667
62655SOL    HW289805   7.445  10.023  12.634
62656SOL     OW89806   5.067  13.437   8.476
62656SOL    HW189807   5.044  13.346   8.460
62656SOL    HW289808   5.001  13.488   8.428
62657SOL     OW89809   8.903   8.790   8.116
62657SOL    HW189810   8.967   8.760   8.051
62657SOL    HW289811   8.820   8.754   8.086
62658SOL     OW89812   3.963   0.914   3.396
62658SOL    HW189813   4.052   0.879   3.382
62658SOL    HW289814   3.961   0.995   3.344
62659SOL     OW89815   6.492   8.170   5.839
62659SOL    HW189816   6.552   8.167   5.913
62659SOL    HW289817   6.537   8.123   5.769
62660SOL     OW89818   4.445   3.370   1.038
62660SOL    HW189819   4.378   3.371   1.106
62660SOL    HW289820   4.400   3.340   0.959
62661SOL     OW89821  11.564  13.978   7.372
62661SOL    HW189822  11.479  13.937   7.387
62661SOL    HW289823  11.585  13.956   7.281
62662SOL     OW89824   7.446   0.148   0.342
62662SOL    HW189825   7.442   0.232   0.296
62662SOL    HW289826   7.366   0.102   0.316
62663SOL     OW89827   2.830  12.368  13.282
62663SOL    HW189828   2.815  12.453  13.325
62663SOL    HW289829   2.775  12.371  13.204
62664SOL     OW89830   1.070   9.055   8.502
62664SOL    HW189831   1.002   8.991   8.520
62664SOL    HW289832   1.137   9.039   8.569
62665SOL     OW89833  11.634  11.545   6.819
62665SOL    HW189834  11.617  11.508   6.732
62665SOL    HW289835  11.600  11.634   6.814
62666SOL     OW89836  14.521  12.093  13.933
62666SOL    HW189837  14.545  12.161  13.870
62666SOL    HW289838  14.516  12.013  13.880
62667SOL     OW89839   7.086   7.312   8.157
62667SOL    HW189840   7.124   7.400   8.150
62667SOL    HW289841   7.072   7.285   8.067
62668SOL     OW89842   9.096   0.257   7.327
62668SOL    HW189843   9.129   0.346   7.316
62668SOL    HW289844   9.162   0.202   7.285
62669SOL     OW89845  10.420  13.921  14.873
62669SOL    HW189846  10.407  13.902  14.780
62669SOL    HW289847  10.344  13.974   0.018
62670SOL     OW89848   3.536   8.302  10.502
62670SOL    HW189849   3.623   8.308  10.462
62670SOL    HW289850   3.551   8.324  10.594
62671SOL     OW89851   6.361  12.370  12.492
62671SOL    HW189852   6.444  12.415  12.509
62671SOL    HW289853   6.296  12.440  12.487
62672SOL     OW89854  13.652   6.888   9.913
62672SOL    HW189855  13.712   6.814   9.908
62672SOL    HW289856  13.707   6.962   9.939
62673SOL     OW89857   3.512  13.180   1.375
62673SOL    HW189858   3.491  13.247   1.440
62673SOL    HW289859   3.600  13.203   1.345
62674SOL     OW89860   8.301   0.927   9.713
62674SOL    HW189861   8.301   0.831   9.711
62674SOL    HW289862   8.208   0.950   9.702
62675SOL     OW89863  11.505  12.747  11.051
62675SOL    HW189864  11.588  12.764  11.007
62675SOL    HW289865  11.529  12.728  11.141
62676SOL     OW89866  11.618   6.591   6.655
62676SOL    HW189867  11.713   6.600   6.645
62676SOL    HW289868  11.587   6.681   6.666
62677SOL     OW89869  10.499   9.502   2.509
62677SOL    HW189870  10.585   9.472   2.479
62677SOL    HW289871  10.437   9.457   2.452
62678SOL     OW89872  11.776   9.759   7.127
62678SOL    HW189873  11.851   9.815   7.149
62678SOL    HW289874  11.748   9.722   7.211
62679SOL     OW89875   4.958   8.688   9.571
62679SOL    HW189876   4.885   8.717   9.518
62679SOL    HW289877   4.985   8.605   9.534
62680SOL     OW89878   0.052   0.491   2.610
62680SOL    HW189879   0.080   0.430   2.542
62680SOL    HW289880   0.029   0.435   2.684
62681SOL     OW89881   7.423   2.623  13.810
62681SOL    HW189882   7.485   2.619  13.883
62681SOL    HW289883   7.339   2.647  13.851
62682SOL     OW89884  11.753   5.371  10.473
62682SOL    HW189885  11.667   5.392  10.435
62682SOL    HW289886  11.763   5.433  10.546
62683SOL     OW89887   5.053  14.716  14.193
62683SOL    HW189888   5.113  14.672  14.253
62683SOL    HW289889   5.106  14.786  14.154
62684SOL     OW89890   9.689   3.970  10.358
62684SOL    HW189891   9.775   3.928  10.365
62684SOL    HW289892   9.694   4.021  10.277
62685SOL     OW89893   8.466   9.235   3.933
62685SOL    HW189894   8.522   9.294   3.883
62685SOL    HW289895   8.434   9.171   3.869
62686SOL     OW89896   5.815   4.729  12.907
62686SOL    HW189897   5.864   4.672  12.847
62686SOL    HW289898   5.781   4.669  12.973
62687SOL     OW89899   1.798   1.086   4.234
62687SOL    HW189900   1.867   1.041   4.185
62687SOL    HW289901   1.801   1.048   4.321
62688SOL     OW89902  13.578   1.599  14.543
62688SOL    HW189903  13.580   1.654  14.621
62688SOL    HW289904  13.603   1.512  14.574
62689SOL     OW89905   3.435  11.152   8.853
62689SOL    HW189906   3.420  11.107   8.936
62689SOL    HW289907   3.440  11.245   8.877
62690SOL     OW89908   7.716  14.554   1.835
62690SOL    HW189909   7.621  14.543   1.830
62690SOL    HW289910   7.737  14.610   1.761
62691SOL     OW89911   0.417   6.906  12.778
62691SOL    HW189912   0.436   6.908  12.684
62691SOL    HW289913   0.342   6.847  12.785
62692SOL     OW89914  12.850   3.347   5.407
62692SOL    HW189915  12.795   3.269   5.393
62692SOL    HW289916  12.787   3.419   5.407
62693SOL     OW89917   1.316   2.955   9.234
62693SOL    HW189918   1.371   2.987   9.162
62693SOL    HW289919   1.304   2.862   9.215
62694SOL     OW89920  12.993   9.224  14.003
62694SOL    HW189921  13.015   9.270  13.922
62694SOL    HW289922  12.933   9.283  14.049
62695SOL     OW89923   8.820   3.216   5.068
62695SOL    HW189924   8.758   3.243   5.000
62695SOL    HW289925   8.765   3.186   5.141
62696SOL     OW89926   9.090   9.151  14.031
62696SOL    HW189927   9.080   9.209  14.107
62696SOL    HW289928   9.104   9.211  13.957
62697SOL     OW89929  12.578   1.280  11.222
62697SOL    HW189930  12.557   1.194  11.259
62697SOL    HW289931  12.562   1.341  11.294
62698SOL     OW89932   1.477   6.111   8.580
62698SOL    HW189933   1.527   6.173   8.527
62698SOL    HW289934   1.488   6.142   8.670
62699SOL     OW89935   2.752   3.814   0.050
62699SOL    HW189936   2.737   3.885   0.113
62699SOL    HW289937   2.752   3.734   0.103
62700SOL     OW89938  11.832   6.194   3.858
62700SOL    HW189939  11.850   6.142   3.781
62700SOL    HW289940  11.811   6.130   3.926
62701SOL     OW89941   9.943   7.786   1.853
62701SOL    HW189942   9.937   7.864   1.908
62701SOL    HW289943   9.969   7.716   1.913
62702SOL     OW89944   2.208   6.546  12.172
62702SOL    HW189945   2.191   6.505  12.087
62702SOL    HW289946   2.125   6.587  12.196
62703SOL     OW89947   9.166   6.490   3.479
62703SOL    HW189948   9.193   6.540   3.402
62703SOL    HW289949   9.248   6.457   3.516
62704SOL     OW89950   7.135   5.669  12.647
62704SOL    HW189951   7.186   5.748  12.664
62704SOL    HW289952   7.172   5.634  12.566
62705SOL     OW89953   5.198   2.903  13.900
62705SOL    HW189954   5.141   2.886  13.826
62705SOL    HW289955   5.175   2.836  13.964
62706SOL     OW89956   1.350  12.905  11.282
62706SOL    HW189957   1.379  12.867  11.365
62706SOL    HW289958   1.410  12.870  11.217
62707SOL     OW89959   0.976   2.282   5.947
62707SOL    HW189960   1.028   2.362   5.942
62707SOL    HW289961   0.959   2.270   6.040
62708SOL     OW89962  13.526   4.111  14.305
62708SOL    HW189963  13.615   4.075  14.303
62708SOL    HW289964  13.472   4.040  14.341
62709SOL     OW89965  11.810   3.662  11.146
62709SOL    HW189966  11.762   3.744  11.151
62709SOL    HW289967  11.778   3.611  11.221
62710SOL     OW89968   7.689   2.921   3.437
62710SOL    HW189969   7.762   2.976   3.408
62710SOL    HW289970   7.693   2.926   3.533
62711SOL     OW89971   0.375   6.524   2.630
62711SOL    HW189972   0.412   6.608   2.656
62711SOL    HW289973   0.447   6.462   2.639
62712SOL     OW89974   1.246  10.343  10.437
62712SOL    HW189975   1.289  10.428  10.430
62712SOL    HW289976   1.159  10.362  10.470
62713SOL     OW89977   3.730   3.922   1.812
62713SOL    HW189978   3.638   3.949   1.820
62713SOL    HW289979   3.725   3.832   1.780
62714SOL     OW89980   0.157   3.246  11.544
62714SOL    HW189981   0.220   3.250  11.616
62714SOL    HW289982   0.176   3.163  11.500
62715SOL     OW89983  10.516   5.884   9.318
62715SOL    HW189984  10.501   5.850   9.407
62715SOL    HW289985  10.435   5.931   9.296
62716SOL     OW89986   4.620   8.354   6.020
62716SOL    HW189987   4.711   8.384   6.027
62716SOL    HW289988   4.584   8.406   5.947
62717SOL     OW89989   7.085  11.277  14.422
62717SOL    HW189990   7.104  11.185  14.404
62717SOL    HW289991   6.994  11.288  14.394
62718SOL     OW89992  10.616   6.582   7.292
62718SOL    HW189993  10.536   6.631   7.311
62718SOL    HW289994  10.637   6.539   7.375
62719SOL     OW89995  10.301   8.245   6.931
62719SOL    HW189996  10.347   8.174   6.886
62719SOL    HW289997  10.210   8.216   6.935
62720SOL     OW89998   4.501   1.436   9.599
62720SOL    HW189999   4.485   1.373   9.529
62720SOL    HW290000   4.548   1.386   9.665
62721SOL     OW90001   8.852   7.048   1.665
62721SOL    HW190002   8.912   7.090   1.727
62721SOL    HW290003   8.838   6.960   1.701
62722SOL     OW90004   4.547  13.256   0.820
62722SOL    HW190005   4.568  13.334   0.870
62722SOL    HW290006   4.459  13.230   0.850
62723SOL     OW90007   3.825   0.931  10.144
62723SOL    HW190008   3.894   0.998  10.142
62723SOL    HW290009   3.745   0.980  10.128
62724SOL     OW90010  10.257  10.105  14.714
62724SOL    HW190011  10.223  10.119  14.625
62724SOL    HW290012  10.298  10.019  14.710
62725SOL     OW90013  12.315   6.841  10.562
62725SOL    HW190014  12.363   6.924  10.565
62725SOL    HW290015  12.362   6.784  10.624
62726SOL     OW90016   6.405  13.002   7.511
62726SOL    HW190017   6.497  12.979   7.528
62726SOL    HW290018   6.387  12.965   7.424
62727SOL     OW90019  10.096   2.735  13.635
62727SOL    HW190020  10.016   2.724  13.687
62727SOL    HW290021  10.167   2.719  13.698
62728SOL     OW90022  14.545  14.280  13.212
62728SOL    HW190023  14.459  14.319  13.225
62728SOL    HW290024  14.532  14.213  13.145
62729SOL     OW90025   7.021   5.022   8.635
62729SOL    HW190026   7.058   5.060   8.556
62729SOL    HW290027   7.031   5.090   8.702
62730SOL     OW90028  11.221   0.510   3.979
62730SOL    HW190029  11.257   0.490   3.893
62730SOL    HW290030  11.294   0.501   4.039
62731SOL     OW90031   3.500   7.166  12.419
62731SOL    HW190032   3.421   7.213  12.445
62731SOL    HW290033   3.483   7.075  12.447
62732SOL     OW90034   8.743   1.232   6.203
62732SOL    HW190035   8.745   1.223   6.298
62732SOL    HW290036   8.710   1.321   6.188
62733SOL     OW90037   9.915  11.251   7.092
62733SOL    HW190038   9.953  11.217   7.011
62733SOL    HW290039   9.820  11.252   7.074
62734SOL     OW90040   2.497   0.845   4.791
62734SOL    HW190041   2.536   0.764   4.759
62734SOL    HW290042   2.534   0.856   4.879
62735SOL     OW90043   8.455  12.760  13.570
62735SOL    HW190044   8.491  12.773  13.483
62735SOL    HW290045   8.453  12.848  13.609
62736SOL     OW90046  11.545   3.228   8.004
62736SOL    HW190047  11.599   3.182   7.940
62736SOL    HW290048  11.512   3.305   7.957
62737SOL     OW90049   7.784  12.466  14.852
62737SOL    HW190050   7.760  12.456  14.760
62737SOL    HW290051   7.700  12.473   0.019
62738SOL     OW90052   1.969   3.137  14.029
62738SOL    HW190053   1.953   3.200  14.100
62738SOL    HW290054   2.017   3.066  14.070
62739SOL     OW90055  10.271   5.728  11.904
62739SOL    HW190056  10.296   5.688  11.988
62739SOL    HW290057  10.192   5.778  11.924
62740SOL     OW90058  13.168   2.617  12.475
62740SOL    HW190059  13.108   2.629  12.549
62740SOL    HW290060  13.164   2.699  12.427
62741SOL     OW90061   5.743  14.113  10.703
62741SOL    HW190062   5.679  14.074  10.761
62741SOL    HW290063   5.690  14.155  10.634
62742SOL     OW90064   2.834   1.173   9.577
62742SOL    HW190065   2.891   1.161   9.501
62742SOL    HW290066   2.881   1.235   9.632
62743SOL     OW90067   9.133   6.121  11.513
62743SOL    HW190068   9.207   6.182  11.521
62743SOL    HW290069   9.138   6.067  11.592
62744SOL     OW90070   9.785  10.253  13.605
62744SOL    HW190071   9.824  10.334  13.574
62744SOL    HW290072   9.731  10.279  13.680
62745SOL     OW90073  13.108  10.792  13.753
62745SOL    HW190074  13.189  10.767  13.797
62745SOL    HW290075  13.136  10.820  13.666
62746SOL     OW90076   3.053   5.694   3.068
62746SOL    HW190077   3.138   5.686   3.025
62746SOL    HW290078   3.012   5.769   3.027
62747SOL     OW90079   1.746   1.543   9.734
62747SOL    HW190080   1.679   1.595   9.691
62747SOL    HW290081   1.813   1.606   9.760
62748SOL     OW90082   1.358   8.393  10.514
62748SOL    HW190083   1.424   8.412  10.447
62748SOL    HW290084   1.355   8.297  10.518
62749SOL     OW90085  14.592  13.428   1.039
62749SOL    HW190086  14.551  13.501   1.085
62749SOL    HW290087  14.640  13.380   1.107
62750SOL     OW90088  11.693   6.244   9.933
62750SOL    HW190089  11.629   6.274   9.868
62750SOL    HW290090  11.682   6.303  10.007
62751SOL     OW90091   8.522   8.388   6.196
62751SOL    HW190092   8.529   8.433   6.112
62751SOL    HW290093   8.430   8.364   6.203
62752SOL     OW90094  11.755   1.988   3.792
62752SOL    HW190095  11.706   1.970   3.872
62752SOL    HW290096  11.846   1.970   3.815
62753SOL     OW90097  10.950  11.645   6.232
62753SOL    HW190098  10.992  11.654   6.317
62753SOL    HW290099  11.019  11.665   6.169
62754SOL     OW90100  11.052  11.668   6.495
62754SOL    HW190101  11.017  11.748   6.535
62754SOL    HW290102  11.135  11.654   6.541
62755SOL     OW90103   6.257  12.702   7.850
62755SOL    HW190104   6.351  12.686   7.842
62755SOL    HW290105   6.218  12.644   7.785
62756SOL     OW90106   1.686   1.109   6.143
62756SOL    HW190107   1.723   1.177   6.088
62756SOL    HW290108   1.602   1.144   6.174
62757SOL     OW90109   9.727  12.902   6.902
62757SOL    HW190110   9.719  12.840   6.830
62757SOL    HW290111   9.732  12.847   6.981
62758SOL     OW90112  14.658   9.084   3.566
62758SOL    HW190113  14.678   9.093   3.659
62758SOL    HW290114  14.712   9.150   3.523
62759SOL     OW90115   5.296   6.912   3.416
62759SOL    HW190116   5.218   6.964   3.396
62759SOL    HW290117   5.369   6.966   3.386
62760SOL     OW90118   9.620  11.054   4.331
62760SOL    HW190119   9.702  11.082   4.289
62760SOL    HW290120   9.642  10.970   4.372
62761SOL     OW90121  12.222   2.050  13.660
62761SOL    HW190122  12.281   2.103  13.715
62761SOL    HW290123  12.154   2.111  13.633
62762SOL     OW90124   7.741  11.432  13.595
62762SOL    HW190125   7.661  11.437  13.543
62762SOL    HW290126   7.711  11.411  13.684
62763SOL     OW90127   9.378  11.781   2.454
62763SOL    HW190128   9.404  11.873   2.440
62763SOL    HW290129   9.461  11.735   2.467
62764SOL     OW90130   3.223   0.533   3.126
62764SOL    HW190131   3.173   0.521   3.207
62764SOL    HW290132   3.294   0.469   3.132
62765SOL     OW90133   5.659  11.260   3.588
62765SOL    HW190134   5.689  11.294   3.672
62765SOL    HW290135   5.565  11.245   3.599
62766SOL     OW90136  13.849   7.962  12.230
62766SOL    HW190137  13.872   7.873  12.201
62766SOL    HW290138  13.805   8.001  12.155
62767SOL     OW90139   4.857   1.056  10.484
62767SOL    HW190140   4.883   1.108  10.559
62767SOL    HW290141   4.765   1.035  10.499
62768SOL     OW90142  12.701  13.906   7.600
62768SOL    HW190143  12.681  13.906   7.506
62768SOL    HW290144  12.622  13.871   7.641
62769SOL     OW90145   6.152   7.906   2.800
62769SOL    HW190146   6.183   7.952   2.878
62769SOL    HW290147   6.232   7.888   2.750
62770SOL     OW90148  10.987   3.957  14.777
62770SOL    HW190149  10.965   4.040  14.819
62770SOL    HW290150  11.082   3.956  14.773
62771SOL     OW90151   4.680  10.177   6.528
62771SOL    HW190152   4.745  10.127   6.478
62771SOL    HW290153   4.639  10.235   6.464
62772SOL     OW90154   9.883   9.215  12.036
62772SOL    HW190155   9.974   9.245  12.039
62772SOL    HW290156   9.845   9.262  11.962
62773SOL     OW90157  12.292   3.292   5.476
62773SOL    HW190158  12.268   3.377   5.513
62773SOL    HW290159  12.359   3.259   5.536
62774SOL     OW90160   3.350   4.320   4.667
62774SOL    HW190161   3.343   4.387   4.599
62774SOL    HW290162   3.261   4.287   4.677
62775SOL     OW90163   2.571   5.662   1.536
62775SOL    HW190164   2.624   5.662   1.457
62775SOL    HW290165   2.504   5.596   1.519
62776SOL     OW90166   6.998   0.759   9.040
62776SOL    HW190167   6.918   0.765   8.987
62776SOL    HW290168   7.017   0.665   9.044
62777SOL     OW90169  10.177   3.885  10.541
62777SOL    HW190170  10.161   3.970  10.583
62777SOL    HW290171  10.267   3.891  10.509
62778SOL     OW90172   8.386  13.994   3.129
62778SOL    HW190173   8.374  13.933   3.056
62778SOL    HW290174   8.332  14.069   3.106
62779SOL     OW90175   5.245   4.436  14.291
62779SOL    HW190176   5.236   4.395  14.205
62779SOL    HW290177   5.247   4.362  14.353
62780SOL     OW90178  13.864   0.672   6.021
62780SOL    HW190179  13.779   0.634   5.995
62780SOL    HW290180  13.928   0.625   5.968
62781SOL     OW90181   3.661   8.808  11.580
62781SOL    HW190182   3.666   8.739  11.646
62781SOL    HW290183   3.575   8.796  11.540
62782SOL     OW90184   7.879  12.456   6.591
62782SOL    HW190185   7.876  12.380   6.649
62782SOL    HW290186   7.813  12.437   6.524
62783SOL     OW90187  12.487   3.131   4.357
62783SOL    HW190188  12.474   3.170   4.443
62783SOL    HW290189  12.399   3.106   4.328
62784SOL     OW90190   1.978   8.436   1.268
62784SOL    HW190191   2.053   8.395   1.310
62784SOL    HW290192   1.920   8.460   1.341
62785SOL     OW90193   3.353   4.034   5.606
62785SOL    HW190194   3.420   4.061   5.543
62785SOL    HW290195   3.385   4.065   5.690
62786SOL     OW90196   8.856   5.208   3.208
62786SOL    HW190197   8.919   5.275   3.181
62786SOL    HW290198   8.777   5.257   3.230
62787SOL     OW90199   9.378  11.704   1.782
62787SOL    HW190200   9.449  11.739   1.728
62787SOL    HW290201   9.326  11.650   1.722
62788SOL     OW90202   6.177  10.888   6.102
62788SOL    HW190203   6.146  10.861   6.188
62788SOL    HW290204   6.268  10.915   6.117
62789SOL     OW90205   2.355  12.260   3.266
62789SOL    HW190206   2.440  12.227   3.238
62789SOL    HW290207   2.294  12.190   3.244
62790SOL     OW90208   1.157  11.269  14.723
62790SOL    HW190209   1.155  11.204  14.793
62790SOL    HW290210   1.247  11.303  14.726
62791SOL     OW90211   9.352  10.159   9.035
62791SOL    HW190212   9.328  10.250   9.052
62791SOL    HW290213   9.379  10.158   8.943
62792SOL     OW90214  13.054  12.171   6.260
62792SOL    HW190215  13.111  12.098   6.239
62792SOL    HW290216  12.983  12.165   6.195
62793SOL     OW90217  11.315   6.817   8.289
62793SOL    HW190218  11.228   6.780   8.308
62793SOL    HW290219  11.376   6.752   8.324
62794SOL     OW90220  12.901   6.734   2.876
62794SOL    HW190221  12.932   6.764   2.791
62794SOL    HW290222  12.825   6.679   2.855
62795SOL     OW90223   6.645  12.293   2.272
62795SOL    HW190224   6.641  12.315   2.179
62795SOL    HW290225   6.668  12.375   2.315
62796SOL     OW90226   5.334   7.760  13.800
62796SOL    HW190227   5.285   7.798  13.727
62796SOL    HW290228   5.373   7.835  13.845
62797SOL     OW90229   1.246   8.944   1.368
62797SOL    HW190230   1.254   8.945   1.464
62797SOL    HW290231   1.249   8.851   1.345
62798SOL     OW90232   1.732  10.883   9.367
62798SOL    HW190233   1.647  10.886   9.323
62798SOL    HW290234   1.719  10.822   9.440
62799SOL     OW90235   7.657   9.919  13.823
62799SOL    HW190236   7.591   9.855  13.851
62799SOL    HW290237   7.608   9.998  13.803
62800SOL     OW90238  13.307   0.731   7.774
62800SOL    HW190239  13.384   0.734   7.718
62800SOL    HW290240  13.242   0.785   7.729
62801SOL     OW90241   2.200   2.441   5.036
62801SOL    HW190242   2.188   2.525   5.080
62801SOL    HW290243   2.242   2.464   4.953
62802SOL     OW90244   6.610  14.296   9.673
62802SOL    HW190245   6.688  14.320   9.624
62802SOL    HW290246   6.539  14.345   9.632
62803SOL     OW90247   1.335   4.533   9.508
62803SOL    HW190248   1.301   4.504   9.423
62803SOL    HW290249   1.401   4.598   9.487
62804SOL     OW90250   3.628   1.800   8.606
62804SOL    HW190251   3.609   1.736   8.538
62804SOL    HW290252   3.680   1.867   8.562
62805SOL     OW90253   0.238   3.460   7.437
62805SOL    HW190254   0.154   3.477   7.395
62805SOL    HW290255   0.295   3.432   7.365
62806SOL     OW90256   1.344  10.685   2.495
62806SOL    HW190257   1.382  10.694   2.582
62806SOL    HW290258   1.259  10.729   2.501
62807SOL     OW90259   3.045   0.036   9.559
62807SOL    HW190260   2.950   0.050   9.562
62807SOL    HW290261   3.073   0.079   9.479
62808SOL     OW90262   7.068  10.518   2.941
62808SOL    HW190263   7.065  10.518   3.037
62808SOL    HW290264   7.010  10.590   2.915
62809SOL     OW90265   3.229   3.893   7.099
62809SOL    HW190266   3.300   3.832   7.120
62809SOL    HW290267   3.272   3.963   7.049
62810SOL     OW90268   5.641  10.883   7.662
62810SOL    HW190269   5.638  10.933   7.580
62810SOL    HW290270   5.734  10.870   7.679
62811SOL     OW90271   8.292   2.498  11.179
62811SOL    HW190272   8.210   2.461  11.148
62811SOL    HW290273   8.302   2.579  11.128
62812SOL     OW90274  11.948   8.290  11.569
62812SOL    HW190275  11.857   8.290  11.541
62812SOL    HW290276  11.995   8.241  11.501
62813SOL     OW90277   4.520  10.076   0.699
62813SOL    HW190278   4.494  10.156   0.653
62813SOL    HW290279   4.526  10.101   0.791
62814SOL     OW90280   5.877   1.297  10.159
62814SOL    HW190281   5.961   1.342  10.170
62814SOL    HW290282   5.851   1.317  10.069
62815SOL     OW90283  11.960   5.147   2.262
62815SOL    HW190284  11.981   5.082   2.328
62815SOL    HW290285  11.954   5.097   2.180
62816SOL     OW90286   1.328   9.295  12.213
62816SOL    HW190287   1.244   9.304  12.167
62816SOL    HW290288   1.363   9.212  12.180
62817SOL     OW90289   3.827  10.553   8.291
62817SOL    HW190290   3.771  10.557   8.214
62817SOL    HW290291   3.907  10.510   8.260
62818SOL     OW90292   9.414  11.751   6.698
62818SOL    HW190293   9.350  11.754   6.628
62818SOL    HW290294   9.479  11.818   6.674
62819SOL     OW90295   6.049   2.480   5.670
62819SOL    HW190296   5.981   2.548   5.674
62819SOL    HW290297   6.017   2.417   5.606
62820SOL     OW90298   6.768   6.862   2.227
62820SOL    HW190299   6.719   6.835   2.304
62820SOL    HW290300   6.736   6.806   2.156
62821SOL     OW90301   8.966  13.788   7.575
62821SOL    HW190302   8.979  13.863   7.633
62821SOL    HW290303   8.970  13.712   7.634
62822SOL     OW90304  11.198   7.120   4.817
62822SOL    HW190305  11.202   7.188   4.884
62822SOL    HW290306  11.270   7.061   4.838
62823SOL     OW90307  12.551   9.488   0.619
62823SOL    HW190308  12.582   9.579   0.627
62823SOL    HW290309  12.540   9.475   0.525
62824SOL     OW90310  14.492   8.203   5.927
62824SOL    HW190311  14.444   8.274   5.884
62824SOL    HW290312  14.530   8.243   6.005
62825SOL     OW90313   9.024  10.414   7.238
62825SOL    HW190314   8.944  10.466   7.241
62825SOL    HW290315   9.008  10.342   7.300
62826SOL     OW90316  10.377  13.774   6.729
62826SOL    HW190317  10.459  13.821   6.712
62826SOL    HW290318  10.316  13.841   6.758
62827SOL     OW90319  10.225   8.173  13.389
62827SOL    HW190320  10.180   8.251  13.357
62827SOL    HW290321  10.290   8.206  13.450
62828SOL     OW90322  13.106   2.385   3.594
62828SOL    HW190323  13.017   2.376   3.561
62828SOL    HW290324  13.158   2.322   3.544
62829SOL     OW90325  12.735  10.551   7.462
62829SOL    HW190326  12.766  10.515   7.378
62829SOL    HW290327  12.652  10.593   7.441
62830SOL     OW90328   4.972   0.831   8.723
62830SOL    HW190329   4.959   0.846   8.816
62830SOL    HW290330   4.889   0.796   8.692
62831SOL     OW90331   1.397   9.707   6.732
62831SOL    HW190332   1.306   9.690   6.754
62831SOL    HW290333   1.441   9.721   6.816
62832SOL     OW90334  14.802   9.248   4.492
62832SOL    HW190335  14.756   9.202   4.422
62832SOL    HW290336  14.740   9.248   4.565
62833SOL     OW90337   5.711   9.462   2.545
62833SOL    HW190338   5.768   9.538   2.558
62833SOL    HW290339   5.760   9.404   2.488
62834SOL     OW90340  14.254   4.070  11.373
62834SOL    HW190341  14.304   4.032  11.445
62834SOL    HW290342  14.193   4.001  11.347
62835SOL     OW90343  13.106   9.525   2.552
62835SOL    HW190344  13.146   9.608   2.527
62835SOL    HW290345  13.028   9.518   2.497
62836SOL     OW90346   8.874   7.645  11.553
62836SOL    HW190347   8.810   7.631  11.623
62836SOL    HW290348   8.846   7.587  11.482
62837SOL     OW90349   2.534   9.931   3.085
62837SOL    HW190350   2.561   9.891   3.168
62837SOL    HW290351   2.493   9.860   3.036
62838SOL     OW90352   7.629   6.716  13.800
62838SOL    HW190353   7.597   6.773  13.730
62838SOL    HW290354   7.700   6.765  13.840
62839SOL     OW90355   1.131   1.023  10.661
62839SOL    HW190356   1.197   1.059  10.603
62839SOL    HW290357   1.105   1.096  10.717
62840SOL     OW90358  11.181   0.904  11.136
62840SOL    HW190359  11.166   0.997  11.119
62840SOL    HW290360  11.143   0.890  11.224
62841SOL     OW90361  11.075  11.560   8.946
62841SOL    HW190362  11.070  11.484   8.888
62841SOL    HW290363  11.042  11.632   8.893
62842SOL     OW90364   3.023   3.288   3.960
62842SOL    HW190365   2.930   3.281   3.984
62842SOL    HW290366   3.021   3.322   3.870
62843SOL     OW90367   3.232  12.618   6.453
62843SOL    HW190368   3.188  12.539   6.485
62843SOL    HW290369   3.161  12.682   6.442
62844SOL     OW90370   2.857   3.079   5.967
62844SOL    HW190371   2.774   3.032   5.964
62844SOL    HW290372   2.906   3.046   5.892
62845SOL     OW90373   5.361  11.638  13.188
62845SOL    HW190374   5.269  11.647  13.163
62845SOL    HW290375   5.378  11.716  13.241
62846SOL     OW90376   9.409   4.841   9.350
62846SOL    HW190377   9.380   4.758   9.386
62846SOL    HW290378   9.329   4.883   9.318
62847SOL     OW90379   6.606   4.119   4.162
62847SOL    HW190380   6.660   4.087   4.090
62847SOL    HW290381   6.547   4.047   4.182
62848SOL     OW90382   4.017  13.449   0.257
62848SOL    HW190383   3.968  13.476   0.179
62848SOL    HW290384   4.104  13.487   0.245
62849SOL     OW90385   2.119   4.061   2.953
62849SOL    HW190386   2.173   4.050   2.874
62849SOL    HW290387   2.177   4.037   3.025
62850SOL     OW90388   6.648   3.971   5.829
62850SOL    HW190389   6.566   3.956   5.782
62850SOL    HW290390   6.638   3.922   5.910
62851SOL     OW90391   9.217   5.254   7.537
62851SOL    HW190392   9.248   5.318   7.601
62851SOL    HW290393   9.159   5.197   7.587
62852SOL     OW90394   3.456   8.919   0.251
62852SOL    HW190395   3.470   8.945   0.342
62852SOL    HW290396   3.447   9.002   0.204
62853SOL     OW90397  13.188  14.712   7.905
62853SOL    HW190398  13.154  14.663   7.980
62853SOL    HW290399  13.117  14.710   7.841
62854SOL     OW90400   8.661  10.303  11.027
62854SOL    HW190401   8.597  10.272  11.090
62854SOL    HW290402   8.706  10.224  10.997
62855SOL     OW90403  13.453   1.699  12.734
62855SOL    HW190404  13.390   1.767  12.711
62855SOL    HW290405  13.533   1.723  12.687
62856SOL     OW90406   7.101   6.372   8.144
62856SOL    HW190407   7.153   6.417   8.211
62856SOL    HW290408   7.115   6.279   8.161
62857SOL     OW90409  13.306   2.552   0.618
62857SOL    HW190410  13.360   2.611   0.566
62857SOL    HW290411  13.351   2.547   0.703
62858SOL     OW90412  14.474  14.123   6.697
62858SOL    HW190413  14.476  14.090   6.787
62858SOL    HW290414  14.546  14.078   6.653
62859SOL     OW90415   5.711  11.166  10.476
62859SOL    HW190416   5.771  11.156  10.402
62859SOL    HW290417   5.631  11.121  10.448
62860SOL     OW90418   2.941   0.407  12.341
62860SOL    HW190419   3.028   0.442  12.359
62860SOL    HW290420   2.884   0.451  12.404
62861SOL     OW90421  13.532  12.447   7.115
62861SOL    HW190422  13.462  12.484   7.168
62861SOL    HW290423  13.502  12.460   7.024
62862SOL     OW90424   0.686   2.634  11.747
62862SOL    HW190425   0.670   2.667  11.836
62862SOL    HW290426   0.743   2.558  11.760
62863SOL     OW90427  14.747  12.915   1.628
62863SOL    HW190428  14.683  12.878   1.689
62863SOL    HW290429  14.783  12.840   1.581
62864SOL     OW90430  12.887   2.025  13.386
62864SOL    HW190431  12.837   2.094  13.431
62864SOL    HW290432  12.826   1.951  13.382
62865SOL     OW90433   0.685   5.927   6.248
62865SOL    HW190434   0.671   5.850   6.302
62865SOL    HW290435   0.597   5.955   6.222
62866SOL     OW90436   1.301  14.871   7.202
62866SOL    HW190437   1.253   0.004   7.284
62866SOL    HW290438   1.391   0.018   7.223
62867SOL     OW90439   4.506   6.900  12.976
62867SOL    HW190440   4.522   6.898  12.882
62867SOL    HW290441   4.498   6.993  12.997
62868SOL     OW90442   7.284   9.651   1.388
62868SOL    HW190443   7.242   9.620   1.468
62868SOL    HW290444   7.227   9.722   1.357
62869SOL     OW90445   2.354   2.283  13.403
62869SOL    HW190446   2.342   2.339  13.326
62869SOL    HW290447   2.328   2.196  13.374
62870SOL     OW90448   1.085   8.871   2.252
62870SOL    HW190449   1.166   8.852   2.300
62870SOL    HW290450   1.015   8.842   2.310
62871SOL     OW90451   4.387   9.280  14.291
62871SOL    HW190452   4.307   9.251  14.246
62871SOL    HW290453   4.454   9.280  14.222
62872SOL     OW90454   8.296   2.962   8.300
62872SOL    HW190455   8.277   3.038   8.245
62872SOL    HW290456   8.288   2.887   8.241
62873SOL     OW90457  13.939  13.016  11.009
62873SOL    HW190458  14.011  12.979  10.958
62873SOL    HW290459  13.911  13.093  10.959
62874SOL     OW90460  13.390  12.440  14.833
62874SOL    HW190461  13.450  12.500  14.876
62874SOL    HW290462  13.414  12.444  14.740
62875SOL     OW90463   0.122   1.527   8.145
62875SOL    HW190464   0.084   1.545   8.231
62875SOL    HW290465   0.048   1.529   8.085
62876SOL     OW90466   5.063   3.284  11.584
62876SOL    HW190467   5.091   3.375  11.570
62876SOL    HW290468   4.996   3.290  11.652
62877SOL     OW90469   7.553   4.486   7.999
62877SOL    HW190470   7.577   4.544   8.071
62877SOL    HW290471   7.462   4.507   7.980
62878SOL     OW90472   1.842   1.728   4.732
62878SOL    HW190473   1.824   1.720   4.639
62878SOL    HW290474   1.892   1.649   4.754
62879SOL     OW90475  10.040   0.087   5.329
62879SOL    HW190476   9.977   0.071   5.399
62879SOL    HW290477  10.121   0.109   5.373
62880SOL     OW90478   3.209   9.343  14.828
62880SOL    HW190479   3.234   9.325  14.737
62880SOL    HW290480   3.251   9.427  14.848
62881SOL     OW90481   9.607  11.821   6.903
62881SOL    HW190482   9.512  11.811   6.907
62881SOL    HW290483   9.621  11.901   6.852
62882SOL     OW90484   4.992   0.098  12.874
62882SOL    HW190485   5.060   0.159  12.903
62882SOL    HW290486   5.039   0.016  12.858
62883SOL     OW90487   0.393   0.073   0.439
62883SOL    HW190488   0.297   0.080   0.435
62883SOL    HW290489   0.422   0.154   0.480
62884SOL     OW90490   5.261  14.647   5.154
62884SOL    HW190491   5.287  14.595   5.078
62884SOL    HW290492   5.341  14.691   5.182
62885SOL     OW90493  14.011  14.106  12.510
62885SOL    HW190494  13.917  14.123  12.501
62885SOL    HW290495  14.016  14.014  12.536
62886SOL     OW90496   3.240   8.502   5.984
62886SOL    HW190497   3.321   8.451   5.983
62886SOL    HW290498   3.244   8.557   5.906
62887SOL     OW90499   5.965   8.695  13.035
62887SOL    HW190500   6.040   8.745  13.002
62887SOL    HW290501   5.899   8.703  12.966
62888SOL     OW90502  12.484   4.115  11.699
62888SOL    HW190503  12.407   4.090  11.751
62888SOL    HW290504  12.552   4.134  11.763
62889SOL     OW90505   8.365   2.036   8.403
62889SOL    HW190506   8.418   2.024   8.482
62889SOL    HW290507   8.274   2.029   8.434
62890SOL     OW90508   3.672   2.793   8.679
62890SOL    HW190509   3.718   2.734   8.740
62890SOL    HW290510   3.601   2.830   8.730
62891SOL     OW90511   7.664   7.072   0.455
62891SOL    HW190512   7.731   7.089   0.389
62891SOL    HW290513   7.661   7.153   0.506
62892SOL     OW90514   6.900   5.918   3.899
62892SOL    HW190515   6.917   5.824   3.906
62892SOL    HW290516   6.902   5.949   3.989
62893SOL     OW90517   8.702   0.326  10.755
62893SOL    HW190518   8.772   0.302  10.695
62893SOL    HW290519   8.698   0.253  10.817
62894SOL     OW90520  12.719   5.523   2.780
62894SOL    HW190521  12.634   5.520   2.823
62894SOL    HW290522  12.769   5.588   2.830
62895SOL     OW90523  12.134   8.508   9.303
62895SOL    HW190524  12.159   8.423   9.338
62895SOL    HW290525  12.190   8.521   9.227
62896SOL     OW90526   6.120   4.698   6.148
62896SOL    HW190527   6.123   4.616   6.197
62896SOL    HW290528   6.123   4.766   6.215
62897SOL     OW90529   2.621   7.834   8.827
62897SOL    HW190530   2.647   7.746   8.852
62897SOL    HW290531   2.577   7.869   8.904
62898SOL     OW90532   8.680   0.064   3.974
62898SOL    HW190533   8.588   0.084   3.990
62898SOL    HW290534   8.685   0.045   3.881
62899SOL     OW90535   5.795   3.313   4.850
62899SOL    HW190536   5.846   3.369   4.908
62899SOL    HW290537   5.733   3.268   4.908
62900SOL     OW90538   1.684   8.293  10.056
62900SOL    HW190539   1.732   8.360  10.008
62900SOL    HW290540   1.744   8.219  10.062
62901SOL     OW90541  14.805   7.414   6.711
62901SOL    HW190542  14.805   7.509   6.720
62901SOL    HW290543  14.750   7.396   6.635
62902SOL     OW90544   1.659   9.206   7.784
62902SOL    HW190545   1.682   9.119   7.751
62902SOL    HW290546   1.679   9.266   7.712
62903SOL     OW90547   4.397   9.396  11.126
62903SOL    HW190548   4.450   9.317  11.131
62903SOL    HW290549   4.308   9.365  11.109
62904SOL     OW90550   4.617  13.182   2.540
62904SOL    HW190551   4.574  13.236   2.475
62904SOL    HW290552   4.606  13.230   2.622
62905SOL     OW90553   1.835   5.238   4.518
62905SOL    HW190554   1.846   5.178   4.592
62905SOL    HW290555   1.924   5.258   4.490
62906SOL     OW90556   1.643   9.597   9.394
62906SOL    HW190557   1.721   9.544   9.409
62906SOL    HW290558   1.573   9.534   9.380
62907SOL     OW90559   0.470   5.959   0.904
62907SOL    HW190560   0.426   5.876   0.922
62907SOL    HW290561   0.525   5.974   0.980
62908SOL     OW90562  10.880   4.558   8.342
62908SOL    HW190563  10.896   4.546   8.248
62908SOL    HW290564  10.786   4.545   8.351
62909SOL     OW90565  11.620  13.943   1.572
62909SOL    HW190566  11.684  13.988   1.516
62909SOL    HW290567  11.545  13.928   1.514
62910SOL     OW90568  11.480   6.600   7.544
62910SOL    HW190569  11.396   6.618   7.502
62910SOL    HW290570  11.542   6.595   7.471
62911SOL     OW90571   0.841   3.748  10.123
62911SOL    HW190572   0.834   3.700  10.041
62911SOL    HW290573   0.846   3.679  10.190
62912SOL     OW90574   7.553   6.369   4.854
62912SOL    HW190575   7.648   6.384   4.856
62912SOL    HW290576   7.516   6.455   4.834
62913SOL     OW90577   8.514   0.097   1.850
62913SOL    HW190578   8.435   0.122   1.897
62913SOL    HW290579   8.586   0.134   1.902
62914SOL     OW90580  13.768   8.840  11.653
62914SOL    HW190581  13.764   8.934  11.669
62914SOL    HW290582  13.833   8.831  11.583
62915SOL     OW90583  10.783   8.652  14.324
62915SOL    HW190584  10.813   8.738  14.294
62915SOL    HW290585  10.697   8.670  14.363
62916SOL     OW90586   9.386   1.445  12.414
62916SOL    HW190587   9.398   1.382  12.343
62916SOL    HW290588   9.434   1.523  12.386
62917SOL     OW90589  12.322   3.345   8.132
62917SOL    HW190590  12.264   3.287   8.182
62917SOL    HW290591  12.319   3.428   8.179
62918SOL     OW90592  10.007   9.095  10.779
62918SOL    HW190593   9.922   9.092  10.736
62918SOL    HW290594  10.007   9.177  10.828
62919SOL     OW90595   1.600   3.833   2.474
62919SOL    HW190596   1.633   3.755   2.518
62919SOL    HW290597   1.678   3.877   2.441
62920SOL     OW90598  13.446  13.958  13.660
62920SOL    HW190599  13.488  14.003  13.733
62920SOL    HW290600  13.355  13.988  13.663
62921SOL     OW90601   4.289   2.210   8.456
62921SOL    HW190602   4.285   2.131   8.509
62921SOL    HW290603   4.208   2.208   8.404
62922SOL     OW90604  14.723   5.608  11.516
62922SOL    HW190605  14.679   5.558  11.448
62922SOL    HW290606  14.814   5.578  11.514
62923SOL     OW90607  10.480  12.573   1.254
62923SOL    HW190608  10.417  12.634   1.292
62923SOL    HW290609  10.426  12.506   1.212
62924SOL     OW90610   0.736   1.687   6.327
62924SOL    HW190611   0.731   1.611   6.269
62924SOL    HW290612   0.668   1.746   6.296
62925SOL     OW90613  10.294   2.168   8.358
62925SOL    HW190614  10.330   2.112   8.426
62925SOL    HW290615  10.268   2.248   8.405
62926SOL     OW90616   4.072  14.477   5.725
62926SOL    HW190617   4.148  14.420   5.720
62926SOL    HW290618   4.108  14.565   5.740
62927SOL     OW90619   9.812  13.887   8.347
62927SOL    HW190620   9.846  13.976   8.354
62927SOL    HW290621   9.879  13.833   8.389
62928SOL     OW90622   3.402   9.435   2.758
62928SOL    HW190623   3.425   9.513   2.707
62928SOL    HW290624   3.324   9.400   2.714
62929SOL     OW90625   9.719   8.748  11.521
62929SOL    HW190626   9.678   8.703  11.595
62929SOL    HW290627   9.712   8.685  11.449
62930SOL     OW90628   5.237   1.763   6.299
62930SOL    HW190629   5.303   1.823   6.266
62930SOL    HW290630   5.196   1.810   6.372
62931SOL     OW90631   5.279  10.813   1.315
62931SOL    HW190632   5.329  10.738   1.345
62931SOL    HW290633   5.301  10.821   1.222
62932SOL     OW90634   5.813  14.335  13.907
62932SOL    HW190635   5.833  14.379  13.990
62932SOL    HW290636   5.718  14.343  13.897
62933SOL     OW90637   1.820   6.811   2.820
62933SOL    HW190638   1.743   6.861   2.794
62933SOL    HW290639   1.882   6.825   2.748
62934SOL     OW90640   4.551   0.768   0.248
62934SOL    HW190641   4.643   0.787   0.227
62934SOL    HW290642   4.538   0.805   0.335
62935SOL     OW90643   1.232  12.663  13.421
62935SOL    HW190644   1.303  12.714  13.460
62935SOL    HW290645   1.271  12.577  13.405
62936SOL     OW90646   4.147   6.521   7.372
62936SOL    HW190647   4.225   6.471   7.349
62936SOL    HW290648   4.151   6.529   7.467
62937SOL     OW90649   3.547   1.818   2.668
62937SOL    HW190650   3.634   1.848   2.643
62937SOL    HW290651   3.505   1.794   2.585
62938SOL     OW90652   2.190   4.186   2.528
62938SOL    HW190653   2.154   4.232   2.452
62938SOL    HW290654   2.211   4.099   2.496
62939SOL     OW90655   0.452  13.729  10.339
62939SOL    HW190656   0.434  13.797  10.404
62939SOL    HW290657   0.386  13.662  10.355
62940SOL     OW90658  12.703   9.295  10.080
62940SOL    HW190659  12.650   9.243  10.021
62940SOL    HW290660  12.692   9.385  10.049
62941SOL     OW90661   6.381  13.429  13.394
62941SOL    HW190662   6.334  13.421  13.311
62941SOL    HW290663   6.378  13.523  13.414
62942SOL     OW90664   5.871  14.140   8.012
62942SOL    HW190665   5.895  14.217   7.960
62942SOL    HW290666   5.802  14.171   8.070
62943SOL     OW90667  11.007   1.751  11.842
62943SOL    HW190668  11.020   1.783  11.931
62943SOL    HW290669  11.083   1.695  11.825
62944SOL     OW90670  10.241   6.857   3.436
62944SOL    HW190671  10.285   6.894   3.513
62944SOL    HW290672  10.163   6.814   3.471
62945SOL     OW90673   3.474   9.659  14.432
62945SOL    HW190674   3.563   9.640  14.464
62945SOL    HW290675   3.445   9.734  14.483
62946SOL     OW90676  14.737  13.337   8.820
62946SOL    HW190677  14.775  13.249   8.822
62946SOL    HW290678  14.742  13.364   8.728
62947SOL     OW90679   6.080   7.998   6.171
62947SOL    HW190680   6.086   8.043   6.255
62947SOL    HW290681   6.151   8.037   6.119
62948SOL     OW90682   9.167  11.941   3.322
62948SOL    HW190683   9.156  11.890   3.403
62948SOL    HW290684   9.091  11.999   3.320
62949SOL     OW90685   3.177   2.601   1.355
62949SOL    HW190686   3.210   2.656   1.283
62949SOL    HW290687   3.108   2.654   1.395
62950SOL     OW90688   1.469  11.781   5.506
62950SOL    HW190689   1.427  11.696   5.519
62950SOL    HW290690   1.554  11.760   5.467
62951SOL     OW90691   6.671   9.638   0.604
62951SOL    HW190692   6.687   9.547   0.632
62951SOL    HW290693   6.737   9.654   0.536
62952SOL     OW90694   5.832   9.192   4.970
62952SOL    HW190695   5.775   9.259   5.007
62952SOL    HW290696   5.915   9.202   5.017
62953SOL     OW90697   4.682   3.550   8.895
62953SOL    HW190698   4.751   3.562   8.961
62953SOL    HW290699   4.683   3.456   8.877
62954SOL     OW90700   9.922   2.811   0.836
62954SOL    HW190701   9.893   2.891   0.793
62954SOL    HW290702  10.016   2.806   0.818
62955SOL     OW90703   8.632   6.047   3.980
62955SOL    HW190704   8.672   6.127   4.015
62955SOL    HW290705   8.692   5.977   4.005
62956SOL     OW90706  14.373   9.454  13.716
62956SOL    HW190707  14.294   9.418  13.677
62956SOL    HW290708  14.378   9.414  13.802
62957SOL     OW90709   3.767   3.746   3.174
62957SOL    HW190710   3.705   3.674   3.180
62957SOL    HW290711   3.758   3.794   3.256
62958SOL     OW90712  11.372   7.858   2.310
62958SOL    HW190713  11.399   7.948   2.325
62958SOL    HW290714  11.309   7.864   2.238
62959SOL     OW90715   4.871   1.746  13.631
62959SOL    HW190716   4.841   1.661  13.598
62959SOL    HW290717   4.913   1.726  13.714
62960SOL     OW90718   1.172  12.886  13.242
62960SOL    HW190719   1.192  12.798  13.273
62960SOL    HW290720   1.160  12.875  13.147
62961SOL     OW90721  14.238  11.298   0.683
62961SOL    HW190722  14.262  11.388   0.705
62961SOL    HW290723  14.180  11.306   0.607
62962SOL     OW90724   6.598   8.465   6.509
62962SOL    HW190725   6.655   8.397   6.544
62962SOL    HW290726   6.604   8.456   6.414
62963SOL     OW90727   2.691   9.182   4.423
62963SOL    HW190728   2.597   9.170   4.415
62963SOL    HW290729   2.729   9.111   4.372
62964SOL     OW90730   6.188  14.739   3.590
62964SOL    HW190731   6.186  14.775   3.501
62964SOL    HW290732   6.267  14.686   3.593
62965SOL     OW90733   1.787   7.261   6.936
62965SOL    HW190734   1.715   7.281   6.876
62965SOL    HW290735   1.835   7.191   6.893
62966SOL     OW90736   7.300   5.118   6.858
62966SOL    HW190737   7.286   5.209   6.883
62966SOL    HW290738   7.345   5.078   6.933
62967SOL     OW90739  14.693   8.499  12.108
62967SOL    HW190740  14.631   8.504  12.034
62967SOL    HW290741  14.677   8.413  12.147
62968SOL     OW90742   1.886  10.238   4.823
62968SOL    HW190743   1.797  10.201   4.821
62968SOL    HW290744   1.913  10.238   4.731
62969SOL     OW90745  11.137   0.079  14.504
62969SOL    HW190746  11.121   0.105  14.595
62969SOL    HW290747  11.190  14.879  14.511
62970SOL     OW90748   4.519   8.862  10.990
62970SOL    HW190749   4.610   8.887  11.008
62970SOL    HW290750   4.505   8.784  11.043
62971SOL     OW90751   8.603   7.772   5.427
62971SOL    HW190752   8.655   7.850   5.448
62971SOL    HW290753   8.638   7.704   5.486
62972SOL     OW90754   2.614   1.135   1.561
62972SOL    HW190755   2.643   1.225   1.541
62972SOL    HW290756   2.687   1.096   1.609
62973SOL     OW90757   4.576  10.800   6.225
62973SOL    HW190758   4.667  10.788   6.251
62973SOL    HW290759   4.579  10.803   6.129
62974SOL     OW90760   0.643   6.373   9.450
62974SOL    HW190761   0.556   6.332   9.450
62974SOL    HW290762   0.703   6.303   9.473
62975SOL     OW90763   6.117   6.389   4.282
62975SOL    HW190764   6.192   6.356   4.232
62975SOL    HW290765   6.065   6.311   4.301
62976SOL     OW90766   9.124   5.437   3.737
62976SOL    HW190767   9.167   5.443   3.822
62976SOL    HW290768   9.194   5.452   3.673
62977SOL     OW90769  12.213  14.028  14.653
62977SOL    HW190770  12.132  14.014  14.604
62977SOL    HW290771  12.233  14.121  14.641
62978SOL     OW90772   7.197   4.867  14.433
62978SOL    HW190773   7.239   4.782  14.416
62978SOL    HW290774   7.174   4.863  14.526
62979SOL     OW90775   6.802  14.874  11.519
62979SOL    HW190776   6.756  14.790  11.510
62979SOL    HW290777   6.785   0.021  11.610
62980SOL     OW90778  11.392   8.095   7.322
62980SOL    HW190779  11.402   8.154   7.396
62980SOL    HW290780  11.402   8.150   7.245
62981SOL     OW90781   1.116   3.009   3.976
62981SOL    HW190782   1.056   2.947   4.017
62981SOL    HW290783   1.203   2.981   4.006
62982SOL     OW90784   0.657  10.267  14.027
62982SOL    HW190785   0.609  10.274  13.944
62982SOL    HW290786   0.594  10.297  14.093
62983SOL     OW90787  11.053  11.620  13.828
62983SOL    HW190788  10.974  11.569  13.848
62983SOL    HW290789  11.104  11.563  13.770
62984SOL     OW90790   2.198   2.281  14.362
62984SOL    HW190791   2.187   2.295  14.268
62984SOL    HW290792   2.293   2.274  14.374
62985SOL     OW90793   1.013   3.391   5.475
62985SOL    HW190794   1.028   3.444   5.553
62985SOL    HW290795   1.021   3.452   5.402
62986SOL     OW90796   7.870   3.043  11.126
62986SOL    HW190797   7.866   3.121  11.182
62986SOL    HW290798   7.801   3.057  11.061
62987SOL     OW90799   1.202   0.092   1.196
62987SOL    HW190800   1.217   0.089   1.101
62987SOL    HW290801   1.288   0.078   1.234
62988SOL     OW90802  10.915   4.869   0.057
62988SOL    HW190803  10.821   4.862   0.075
62988SOL    HW290804  10.926   4.830  14.850
62989SOL     OW90805   0.463   0.308   9.860
62989SOL    HW190806   0.473   0.217   9.887
62989SOL    HW290807   0.413   0.349   9.932
62990SOL     OW90808  11.597  11.969   6.227
62990SOL    HW190809  11.506  11.942   6.222
62990SOL    HW290810  11.632  11.956   6.139
62991SOL     OW90811  11.445   6.643   8.940
62991SOL    HW190812  11.408   6.666   8.854
62991SOL    HW290813  11.413   6.712   8.999
62992SOL     OW90814  11.381   8.800   2.160
62992SOL    HW190815  11.297   8.763   2.185
62992SOL    HW290816  11.420   8.735   2.101
62993SOL     OW90817   8.262   0.499   9.160
62993SOL    HW190818   8.278   0.487   9.067
62993SOL    HW290819   8.349   0.497   9.200
62994SOL     OW90820   5.801   1.652   5.893
62994SOL    HW190821   5.878   1.709   5.889
62994SOL    HW290822   5.835   1.569   5.927
62995SOL     OW90823   0.430   4.437  13.545
62995SOL    HW190824   0.465   4.526  13.537
62995SOL    HW290825   0.493   4.392  13.602
62996SOL     OW90826   5.120   0.743  14.780
62996SOL    HW190827   5.106   0.650  14.802
62996SOL    HW290828   5.184   0.773  14.845
62997SOL     OW90829   1.680   2.357   4.150
62997SOL    HW190830   1.680   2.402   4.235
62997SOL    HW290831   1.643   2.271   4.170
62998SOL     OW90832  13.507  12.610  13.656
62998SOL    HW190833  13.453  12.643  13.584
62998SOL    HW290834  13.444  12.587  13.725
62999SOL     OW90835  11.201  12.701   8.086
62999SOL    HW190836  11.146  12.623   8.094
62999SOL    HW290837  11.266  12.678   8.020
63000SOL     OW90838   0.033   8.290   6.718
63000SOL    HW190839   0.006   8.199   6.726
63000SOL    HW290840   0.055   8.317   6.807
63001SOL     OW90841  10.464   4.113   4.072
63001SOL    HW190842  10.522   4.182   4.104
63001SOL    HW290843  10.492   4.035   4.118
63002SOL     OW90844   0.841   5.268  14.358
63002SOL    HW190845   0.853   5.330  14.286
63002SOL    HW290846   0.887   5.189  14.330
63003SOL     OW90847   0.267  13.836  10.030
63003SOL    HW190848   0.298  13.752  10.064
63003SOL    HW290849   0.346  13.888  10.016
63004SOL     OW90850   2.446   1.210   6.620
63004SOL    HW190851   2.406   1.208   6.533
63004SOL    HW290852   2.501   1.289   6.619
63005SOL     OW90853   9.416  14.474  10.927
63005SOL    HW190854   9.411  14.569  10.923
63005SOL    HW290855   9.330  14.443  10.899
63006SOL     OW90856   7.008  12.274   8.798
63006SOL    HW190857   7.101  12.294   8.806
63006SOL    HW290858   6.971  12.351   8.753
63007SOL     OW90859   4.332   2.598  14.873
63007SOL    HW190860   4.352   2.659   0.064
63007SOL    HW290861   4.417   2.578  14.833
63008SOL     OW90862  10.193   4.529   3.070
63008SOL    HW190863  10.157   4.610   3.034
63008SOL    HW290864  10.122   4.492   3.122
63009SOL     OW90865  14.116   6.861   7.574
63009SOL    HW190866  14.148   6.916   7.502
63009SOL    HW290867  14.176   6.879   7.646
63010SOL     OW90868   5.070   8.903   1.524
63010SOL    HW190869   5.112   8.863   1.448
63010SOL    HW290870   4.996   8.952   1.489
63011SOL     OW90871   0.214   0.687   9.423
63011SOL    HW190872   0.148   0.731   9.476
63011SOL    HW290873   0.255   0.624   9.484
63012SOL     OW90874  10.691  12.070  14.067
63012SOL    HW190875  10.756  12.093  14.133
63012SOL    HW290876  10.719  11.984  14.034
63013SOL     OW90877   4.361  14.157  11.072
63013SOL    HW190878   4.384  14.086  11.013
63013SOL    HW290879   4.417  14.230  11.045
63014SOL     OW90880   3.616   0.271  14.607
63014SOL    HW190881   3.577   0.349  14.567
63014SOL    HW290882   3.696   0.256  14.557
63015SOL     OW90883   1.901  10.744   9.182
63015SOL    HW190884   1.836  10.779   9.242
63015SOL    HW290885   1.891  10.649   9.188
63016SOL     OW90886  10.051   3.391   6.772
63016SOL    HW190887  10.019   3.323   6.832
63016SOL    HW290888  10.070   3.343   6.691
63017SOL     OW90889   8.389   0.739  10.730
63017SOL    HW190890   8.451   0.727  10.801
63017SOL    HW290891   8.393   0.833  10.711
63018SOL     OW90892   9.815   3.317   4.020
63018SOL    HW190893   9.787   3.227   4.005
63018SOL    HW290894   9.736   3.370   4.011
63019SOL     OW90895   3.558  13.758   3.644
63019SOL    HW190896   3.525  13.730   3.730
63019SOL    HW290897   3.611  13.836   3.663
63020SOL     OW90898   4.080  11.174   4.167
63020SOL    HW190899   4.067  11.255   4.217
63020SOL    HW290900   4.029  11.186   4.087
63021SOL     OW90901   9.714   6.592   9.673
63021SOL    HW190902   9.659   6.628   9.603
63021SOL    HW290903   9.738   6.505   9.641
63022SOL     OW90904   9.947  11.283  13.583
63022SOL    HW190905   9.899  11.203  13.562
63022SOL    HW290906   9.919  11.307  13.671
63023SOL     OW90907  13.377  13.973   6.146
63023SOL    HW190908  13.419  13.898   6.188
63023SOL    HW290909  13.420  14.050   6.185
63024SOL     OW90910  11.779  13.418  14.358
63024SOL    HW190911  11.784  13.406  14.263
63024SOL    HW290912  11.766  13.329  14.392
63025SOL     OW90913   9.518   8.040   0.927
63025SOL    HW190914   9.428   8.026   0.956
63025SOL    HW290915   9.513   8.117   0.871
63026SOL     OW90916  10.244   0.599  10.356
63026SOL    HW190917  10.272   0.636  10.272
63026SOL    HW290918  10.290   0.515  10.362
63027SOL     OW90919   1.776   0.037  14.668
63027SOL    HW190920   1.775   0.091  14.747
63027SOL    HW290921   1.729   0.088  14.603
63028SOL     OW90922   7.017  12.158   4.644
63028SOL    HW190923   7.070  12.084   4.673
63028SOL    HW290924   6.943  12.117   4.599
63029SOL     OW90925  10.825   3.626   2.222
63029SOL    HW190926  10.847   3.715   2.247
63029SOL    HW290927  10.813   3.630   2.127
63030SOL     OW90928   3.297   4.964  13.522
63030SOL    HW190929   3.291   4.904  13.596
63030SOL    HW290930   3.340   5.042  13.558
63031SOL     OW90931   1.823  14.199   5.657
63031SOL    HW190932   1.904  14.234   5.619
63031SOL    HW290933   1.755  14.260   5.627
63032SOL     OW90934  11.416   0.855   2.194
63032SOL    HW190935  11.460   0.876   2.276
63032SOL    HW290936  11.386   0.940   2.160
63033SOL     OW90937   5.460   4.013   6.813
63033SOL    HW190938   5.498   3.944   6.868
63033SOL    HW290939   5.365   4.005   6.828
63034SOL     OW90940   9.507  14.612  14.290
63034SOL    HW190941   9.540  14.694  14.252
63034SOL    HW290942   9.473  14.563  14.215
63035SOL     OW90943  14.683  12.906   5.334
63035SOL    HW190944  14.739  12.910   5.412
63035SOL    HW290945  14.718  12.972   5.275
63036SOL     OW90946   3.992  11.305   5.376
63036SOL    HW190947   3.978  11.399   5.368
63036SOL    HW290948   3.991  11.287   5.470
63037SOL     OW90949  14.017  12.509   2.423
63037SOL    HW190950  14.085  12.452   2.386
63037SOL    HW290951  14.057  12.543   2.503
63038SOL     OW90952   1.002   2.436   2.973
63038SOL    HW190953   0.935   2.369   2.956
63038SOL    HW290954   0.952   2.518   2.977
63039SOL     OW90955  12.305   7.532   9.870
63039SOL    HW190956  12.228   7.582   9.898
63039SOL    HW290957  12.270   7.463   9.814
63040SOL     OW90958   0.885  10.545   9.268
63040SOL    HW190959   0.804  10.505   9.301
63040SOL    HW290960   0.857  10.630   9.234
63041SOL     OW90961   4.149   9.730  11.666
63041SOL    HW190962   4.147   9.733  11.570
63041SOL    HW290963   4.083   9.665  11.689
63042SOL     OW90964   8.634  12.668  11.331
63042SOL    HW190965   8.661  12.726  11.260
63042SOL    HW290966   8.710  12.663  11.389
63043SOL     OW90967  10.001   4.086  14.000
63043SOL    HW190968  10.029   4.163  14.048
63043SOL    HW290969   9.912   4.068  14.032
63044SOL     OW90970   0.465   5.593   7.219
63044SOL    HW190971   0.461   5.684   7.249
63044SOL    HW290972   0.424   5.543   7.290
63045SOL     OW90973   4.189   6.320  13.106
63045SOL    HW190974   4.174   6.309  13.200
63045SOL    HW290975   4.168   6.234  13.069
63046SOL     OW90976  13.276   7.471  11.013
63046SOL    HW190977  13.343   7.403  11.024
63046SOL    HW290978  13.257   7.500  11.102
63047SOL     OW90979  14.561  10.580   9.565
63047SOL    HW190980  14.572  10.506   9.504
63047SOL    HW290981  14.468  10.579   9.587
63048SOL     OW90982  14.792   2.574   9.909
63048SOL    HW190983  14.743   2.498   9.876
63048SOL    HW290984  14.827   2.616   9.831
63049SOL     OW90985   6.384   4.298  12.631
63049SOL    HW190986   6.449   4.275  12.698
63049SOL    HW290987   6.303   4.256  12.661
63050SOL     OW90988   6.738  14.521   1.982
63050SOL    HW190989   6.768  14.528   1.891
63050SOL    HW290990   6.813  14.548   2.035
63051SOL     OW90991  12.728  13.592   0.273
63051SOL    HW190992  12.703  13.518   0.217
63051SOL    HW290993  12.771  13.653   0.214
63052SOL     OW90994  12.072   6.207  12.242
63052SOL    HW190995  12.147   6.154  12.268
63052SOL    HW290996  12.094   6.296  12.272
63053SOL     OW90997   7.370  14.042   1.334
63053SOL    HW190998   7.351  13.969   1.276
63053SOL    HW290999   7.432  14.007   1.398
63054SOL     OW91000   3.967  11.940   4.147
63054SOL    HW191001   3.996  11.852   4.167
63054SOL    HW291002   3.888  11.928   4.094
63055SOL     OW91003   1.298  10.647   5.687
63055SOL    HW191004   1.386  10.629   5.719
63055SOL    HW291005   1.243  10.648   5.765
63056SOL     OW91006  11.649   4.311  13.028
63056SOL    HW191007  11.614   4.342  12.944
63056SOL    HW291008  11.651   4.216  13.019
63057SOL     OW91009   2.887   1.489   6.445
63057SOL    HW191010   2.909   1.421   6.508
63057SOL    HW291011   2.872   1.441   6.363
63058SOL     OW91012   1.251   5.097  10.268
63058SOL    HW191013   1.268   5.159  10.338
63058SOL    HW291014   1.300   5.131  10.193
63059SOL     OW91015   4.356   4.351  11.512
63059SOL    HW191016   4.392   4.373  11.598
63059SOL    HW291017   4.352   4.255  11.512
63060SOL     OW91018   9.801  13.206   4.512
63060SOL    HW191019   9.726  13.264   4.498
63060SOL    HW291020   9.857  13.252   4.574
63061SOL     OW91021   7.978   8.210   3.647
63061SOL    HW191022   8.070   8.191   3.665
63061SOL    HW291023   7.977   8.300   3.616
63062SOL     OW91024   8.080   2.358  11.113
63062SOL    HW191025   8.034   2.286  11.070
63062SOL    HW291026   8.012   2.400  11.167
63063SOL     OW91027   3.302   6.945  10.460
63063SOL    HW191028   3.328   6.930  10.551
63063SOL    HW291029   3.384   6.958  10.413
63064SOL     OW91030  10.363  13.067  10.865
63064SOL    HW191031  10.270  13.044  10.854
63064SOL    HW291032  10.371  13.090  10.958
63065SOL     OW91033  14.480   7.113  13.773
63065SOL    HW191034  14.569   7.094  13.745
63065SOL    HW291035  14.484   7.115  13.868
63066SOL     OW91036   4.405   8.540   1.147
63066SOL    HW191037   4.478   8.593   1.117
63066SOL    HW291038   4.329   8.598   1.143
63067SOL     OW91039  12.884   9.634  10.877
63067SOL    HW191040  12.966   9.636  10.926
63067SOL    HW291041  12.823   9.589  10.936
63068SOL     OW91042   9.284   4.631  13.540
63068SOL    HW191043   9.225   4.692  13.495
63068SOL    HW291044   9.228   4.557  13.564
63069SOL     OW91045  13.209  10.485  12.956
63069SOL    HW191046  13.173  10.468  12.869
63069SOL    HW291047  13.294  10.525  12.940
63070SOL     OW91048  13.749   0.915   5.053
63070SOL    HW191049  13.739   0.912   4.958
63070SOL    HW291050  13.843   0.921   5.067
63071SOL     OW91051   2.652   8.102   4.803
63071SOL    HW191052   2.715   8.144   4.863
63071SOL    HW291053   2.653   8.157   4.725
63072SOL     OW91054  14.617   2.978   4.842
63072SOL    HW191055  14.560   2.901   4.836
63072SOL    HW291056  14.565   3.050   4.806
63073SOL     OW91057  10.379  11.628   2.332
63073SOL    HW191058  10.392  11.715   2.370
63073SOL    HW291059  10.284  11.617   2.329
63074SOL     OW91060  11.949   0.184   5.878
63074SOL    HW191061  11.990   0.130   5.946
63074SOL    HW291062  11.856   0.162   5.884
63075SOL     OW91063   0.767   0.124   0.166
63075SOL    HW191064   0.739   0.180   0.093
63075SOL    HW291065   0.750   0.177   0.244
63076SOL     OW91066   2.185   2.759   4.576
63076SOL    HW191067   2.172   2.792   4.665
63076SOL    HW291068   2.252   2.816   4.539
63077SOL     OW91069   2.459  11.423   8.066
63077SOL    HW191070   2.368  11.408   8.040
63077SOL    HW291071   2.454  11.497   8.128
63078SOL     OW91072  13.539   0.306  13.556
63078SOL    HW191073  13.534   0.335  13.465
63078SOL    HW291074  13.464   0.247  13.566
63079SOL     OW91075  11.709   9.578   5.194
63079SOL    HW191076  11.645   9.567   5.264
63079SOL    HW291077  11.780   9.517   5.216
63080SOL     OW91078   3.183  13.406   6.268
63080SOL    HW191079   3.219  13.338   6.325
63080SOL    HW291080   3.144  13.358   6.195
63081SOL     OW91081   9.840  14.414   7.628
63081SOL    HW191082   9.926  14.448   7.655
63081SOL    HW291083   9.802  14.485   7.576
63082SOL     OW91084  10.416   7.796   8.578
63082SOL    HW191085  10.438   7.843   8.658
63082SOL    HW291086  10.498   7.753   8.552
63083SOL     OW91087  10.473   8.760   8.995
63083SOL    HW191088  10.436   8.808   8.921
63083SOL    HW291089  10.557   8.727   8.963
63084SOL     OW91090  11.060   6.428   9.545
63084SOL    HW191091  11.063   6.373   9.624
63084SOL    HW291092  11.014   6.374   9.480
63085SOL     OW91093   9.773   1.255   0.402
63085SOL    HW191094   9.785   1.317   0.330
63085SOL    HW291095   9.847   1.273   0.461
63086SOL     OW91096  12.231   3.533   3.561
63086SOL    HW191097  12.169   3.602   3.537
63086SOL    HW291098  12.186   3.452   3.535
63087SOL     OW91099   7.095   1.936   8.676
63087SOL    HW191100   7.161   1.953   8.609
63087SOL    HW291101   7.132   1.973   8.756
63088SOL     OW91102   4.302  12.151   6.774
63088SOL    HW191103   4.288  12.059   6.793
63088SOL    HW291104   4.381  12.174   6.822
63089SOL     OW91105   7.300  10.775   5.076
63089SOL    HW191106   7.395  10.768   5.086
63089SOL    HW291107   7.284  10.867   5.058
63090SOL     OW91108   6.011  12.026   6.441
63090SOL    HW191109   6.098  12.060   6.421
63090SOL    HW291110   6.019  11.932   6.430
63091SOL     OW91111   0.877  13.404   5.557
63091SOL    HW191112   0.888  13.348   5.634
63091SOL    HW291113   0.857  13.344   5.486
63092SOL     OW91114   0.904   9.716   1.975
63092SOL    HW191115   0.866   9.702   1.888
63092SOL    HW291116   0.828   9.720   2.034
63093SOL     OW91117  11.537   3.028   0.435
63093SOL    HW191118  11.630   3.033   0.415
63093SOL    HW291119  11.534   3.001   0.527
63094SOL     OW91120  11.077   2.224  14.591
63094SOL    HW191121  11.129   2.189  14.518
63094SOL    HW291122  10.988   2.197  14.571
63095SOL     OW91123   7.899  14.238   3.088
63095SOL    HW191124   7.901  14.314   3.031
63095SOL    HW291125   7.984  14.238   3.132
63096SOL     OW91126   7.758   5.767   4.913
63096SOL    HW191127   7.806   5.698   4.867
63096SOL    HW291128   7.815   5.843   4.907
63097SOL     OW91129  13.788  10.835   1.452
63097SOL    HW191130  13.715  10.782   1.483
63097SOL    HW291131  13.751  10.923   1.442
63098SOL     OW91132   8.837   8.695  12.938
63098SOL    HW191133   8.743   8.694  12.921
63098SOL    HW291134   8.859   8.788  12.938
63099SOL     OW91135  13.954  11.902   0.703
63099SOL    HW191136  13.940  11.987   0.745
63099SOL    HW291137  13.946  11.839   0.775
63100SOL     OW91138   3.582   3.350   5.866
63100SOL    HW191139   3.529   3.355   5.786
63100SOL    HW291140   3.538   3.407   5.928
63101SOL     OW91141   6.473  14.052  12.829
63101SOL    HW191142   6.485  13.989  12.900
63101SOL    HW291143   6.470  13.999  12.750
63102SOL     OW91144   8.273  13.263   0.733
63102SOL    HW191145   8.184  13.268   0.768
63102SOL    HW291146   8.312  13.348   0.755
63103SOL     OW91147  12.388   7.539  10.583
63103SOL    HW191148  12.304   7.583  10.568
63103SOL    HW291149  12.454   7.605  10.560
63104SOL     OW91150   6.985   7.303   3.838
63104SOL    HW191151   6.984   7.265   3.926
63104SOL    HW291152   6.912   7.261   3.793
63105SOL     OW91153  11.643  11.535   7.968
63105SOL    HW191154  11.628  11.628   7.950
63105SOL    HW291155  11.700  11.534   8.045
63106SOL     OW91156  14.667  10.241   7.740
63106SOL    HW191157  14.629  10.255   7.827
63106SOL    HW291158  14.712  10.323   7.721
63107SOL     OW91159  13.860   1.543   8.845
63107SOL    HW191160  13.774   1.581   8.829
63107SOL    HW291161  13.898   1.532   8.758
63108SOL     OW91162   9.882  13.373   3.369
63108SOL    HW191163   9.884  13.293   3.421
63108SOL    HW291164   9.972  13.406   3.373
63109SOL     OW91165  11.204  12.933  14.220
63109SOL    HW191166  11.247  12.909  14.138
63109SOL    HW291167  11.114  12.901  14.210
63110SOL     OW91168  11.383   2.426   0.857
63110SOL    HW191169  11.326   2.349   0.865
63110SOL    HW291170  11.455   2.409   0.918
63111SOL     OW91171   7.014   2.894   9.255
63111SOL    HW191172   7.094   2.901   9.308
63111SOL    HW291173   6.945   2.931   9.311
63112SOL     OW91174  14.388  10.445  12.062
63112SOL    HW191175  14.339  10.505  12.005
63112SOL    HW291176  14.477  10.479  12.061
63113SOL     OW91177   8.127  11.006   3.168
63113SOL    HW191178   8.103  11.016   3.076
63113SOL    HW291179   8.162  11.091   3.193
63114SOL     OW91180   5.106   8.883   9.473
63114SOL    HW191181   5.080   8.804   9.520
63114SOL    HW291182   5.187   8.858   9.428
63115SOL     OW91183   7.685   5.297  13.994
63115SOL    HW191184   7.674   5.363  13.926
63115SOL    HW291185   7.631   5.328  14.067
63116SOL     OW91186   0.714   1.588   4.425
63116SOL    HW191187   0.620   1.602   4.417
63116SOL    HW291188   0.726   1.558   4.515
63117SOL     OW91189   2.542   9.063   5.949
63117SOL    HW191190   2.453   9.051   5.982
63117SOL    HW291191   2.550   8.999   5.878
63118SOL     OW91192  10.357   6.731  13.039
63118SOL    HW191193  10.450   6.710  13.041
63118SOL    HW291194  10.314   6.646  13.024
63119SOL     OW91195   7.890   1.070   5.973
63119SOL    HW191196   7.972   1.109   5.942
63119SOL    HW291197   7.872   1.115   6.055
63120SOL     OW91198  10.004   8.605   2.796
63120SOL    HW191199   9.938   8.668   2.826
63120SOL    HW291200  10.034   8.562   2.876
63121SOL     OW91201   9.294   7.288   5.714
63121SOL    HW191202   9.208   7.251   5.692
63121SOL    HW291203   9.325   7.234   5.787
63122SOL     OW91204  11.748   2.820   6.385
63122SOL    HW191205  11.816   2.796   6.322
63122SOL    HW291206  11.726   2.911   6.363
63123SOL     OW91207  12.260  11.736  11.702
63123SOL    HW191208  12.188  11.677  11.683
63123SOL    HW291209  12.316  11.732  11.624
63124SOL     OW91210   9.991   1.051   0.228
63124SOL    HW191211  10.079   1.060   0.193
63124SOL    HW291212   9.963   1.142   0.243
63125SOL     OW91213   0.296   2.794  10.801
63125SOL    HW191214   0.257   2.715  10.839
63125SOL    HW291215   0.306   2.853  10.876
63126SOL     OW91216   0.468   3.586  10.377
63126SOL    HW191217   0.425   3.644  10.315
63126SOL    HW291218   0.559   3.617  10.381
63127SOL     OW91219   7.567  12.391   8.765
63127SOL    HW191220   7.645  12.442   8.787
63127SOL    HW291221   7.503  12.415   8.832
63128SOL     OW91222  13.905   0.131  12.429
63128SOL    HW191223  13.954   0.059  12.388
63128SOL    HW291224  13.818   0.094  12.446
63129SOL     OW91225   1.967  14.240   6.626
63129SOL    HW191226   1.916  14.239   6.707
63129SOL    HW291227   1.928  14.172   6.572
63130SOL     OW91228  14.673   0.535   3.896
63130SOL    HW191229  14.686   0.449   3.858
63130SOL    HW291230  14.636   0.587   3.824
63131SOL     OW91231   3.907  12.382   6.930
63131SOL    HW191232   3.876  12.472   6.917
63131SOL    HW291233   3.923  12.349   6.842
63132SOL     OW91234   5.510   7.885  13.315
63132SOL    HW191235   5.435   7.863  13.370
63132SOL    HW291236   5.570   7.811  13.325
63133SOL     OW91237   3.239   3.651   6.883
63133SOL    HW191238   3.308   3.707   6.918
63133SOL    HW291239   3.166   3.662   6.944
63134SOL     OW91240   7.459  14.296  13.558
63134SOL    HW191241   7.478  14.365  13.495
63134SOL    HW291242   7.518  14.225  13.534
63135SOL     OW91243  12.913   3.297   5.665
63135SOL    HW191244  12.882   3.308   5.575
63135SOL    HW291245  12.907   3.202   5.680
63136SOL     OW91246   9.177  14.783  13.321
63136SOL    HW191247   9.231  14.843  13.372
63136SOL    HW291248   9.210  14.696  13.343
63137SOL     OW91249  11.446   4.761  12.294
63137SOL    HW191250  11.425   4.854  12.280
63137SOL    HW291251  11.499   4.760  12.373
63138SOL     OW91252   0.858   2.946  14.845
63138SOL    HW191253   0.800   2.891  14.793
63138SOL    HW291254   0.895   3.009  14.783
63139SOL     OW91255  14.395  10.781   3.250
63139SOL    HW191256  14.371  10.729   3.327
63139SOL    HW291257  14.490  10.793   3.258
63140SOL     OW91258   5.314   4.057  11.584
63140SOL    HW191259   5.328   3.964  11.566
63140SOL    HW291260   5.338   4.101  11.503
63141SOL     OW91261   3.214   5.683   5.143
63141SOL    HW191262   3.294   5.727   5.112
63141SOL    HW291263   3.143   5.731   5.101
63142SOL     OW91264   1.222   5.055   6.818
63142SOL    HW191265   1.294   5.035   6.878
63142SOL    HW291266   1.251   5.134   6.771
63143SOL     OW91267   4.885   9.155   6.266
63143SOL    HW191268   4.808   9.119   6.308
63143SOL    HW291269   4.896   9.103   6.186
63144SOL     OW91270   6.930   7.022  10.355
63144SOL    HW191271   6.993   7.006  10.285
63144SOL    HW291272   6.845   7.003  10.314
63145SOL     OW91273  14.384  11.469  11.122
63145SOL    HW191274  14.452  11.514  11.172
63145SOL    HW291275  14.406  11.376  11.127
63146SOL     OW91276   9.852   1.956   7.234
63146SOL    HW191277   9.763   1.982   7.257
63146SOL    HW291278   9.856   1.863   7.254
63147SOL     OW91279   7.845   3.630   9.472
63147SOL    HW191280   7.890   3.626   9.556
63147SOL    HW291281   7.915   3.640   9.408
63148SOL     OW91282   2.872   2.229   9.880
63148SOL    HW191283   2.868   2.270   9.794
63148SOL    HW291284   2.847   2.138   9.864
63149SOL     OW91285   5.519   8.380   5.419
63149SOL    HW191286   5.509   8.291   5.385
63149SOL    HW291287   5.535   8.434   5.341
63150SOL     OW91288  13.516   8.755   3.076
63150SOL    HW191289  13.555   8.792   2.997
63150SOL    HW291290  13.482   8.830   3.124
63151SOL     OW91291   5.289  10.696  10.742
63151SOL    HW191292   5.353  10.626  10.743
63151SOL    HW291293   5.285  10.727  10.833
63152SOL     OW91294   1.654   3.661  13.364
63152SOL    HW191295   1.561   3.645  13.380
63152SOL    HW291296   1.656   3.727  13.295
63153SOL     OW91297   0.339   7.760   2.025
63153SOL    HW191298   0.428   7.777   1.996
63153SOL    HW291299   0.341   7.670   2.059
63154SOL     OW91300   6.231  12.989  10.108
63154SOL    HW191301   6.246  12.904  10.066
63154SOL    HW291302   6.186  13.041  10.042
63155SOL     OW91303   0.993   0.341   1.939
63155SOL    HW191304   0.953   0.391   2.010
63155SOL    HW291305   1.029   0.263   1.981
63156SOL     OW91306   0.031   0.802   6.912
63156SOL    HW191307   0.098   0.869   6.893
63156SOL    HW291308  14.838   0.852   6.950
63157SOL     OW91309   8.941  12.089  12.741
63157SOL    HW191310   8.916  12.046  12.659
63157SOL    HW291311   8.941  12.182  12.720
63158SOL     OW91312   3.158   2.283  10.951
63158SOL    HW191313   3.214   2.209  10.927
63158SOL    HW291314   3.086   2.244  10.999
63159SOL     OW91315  13.701   5.245   0.378
63159SOL    HW191316  13.727   5.162   0.419
63159SOL    HW291317  13.626   5.275   0.430
63160SOL     OW91318   0.843   7.803   0.772
63160SOL    HW191319   0.927   7.762   0.794
63160SOL    HW291320   0.800   7.741   0.714
63161SOL     OW91321   7.966   1.597  14.815
63161SOL    HW191322   7.924   1.661  14.758
63161SOL    HW291323   7.897   1.570  14.876
63162SOL     OW91324   2.938   0.463   4.068
63162SOL    HW191325   2.926   0.433   3.978
63162SOL    HW291326   2.874   0.413   4.119
63163SOL     OW91327   1.811   7.482   4.533
63163SOL    HW191328   1.900   7.478   4.567
63163SOL    HW291329   1.819   7.459   4.440
63164SOL     OW91330   3.978   4.867   0.920
63164SOL    HW191331   4.016   4.816   0.992
63164SOL    HW291332   3.934   4.940   0.963
63165SOL     OW91333   8.026  11.232  11.293
63165SOL    HW191334   8.058  11.180  11.219
63165SOL    HW291335   8.057  11.320  11.274
63166SOL     OW91336   7.954  13.295   0.736
63166SOL    HW191337   7.932  13.266   0.648
63166SOL    HW291338   7.870  13.303   0.781
63167SOL     OW91339  13.088   2.108  14.149
63167SOL    HW191340  13.016   2.050  14.175
63167SOL    HW291341  13.096   2.171  14.220
63168SOL     OW91342   6.385   8.952   2.123
63168SOL    HW191343   6.412   9.027   2.071
63168SOL    HW291344   6.374   8.988   2.212
63169SOL     OW91345   7.982   5.599  11.069
63169SOL    HW191346   7.935   5.524  11.104
63169SOL    HW291347   8.021   5.641  11.146
63170SOL     OW91348  10.268  11.279   4.981
63170SOL    HW191349  10.189  11.273   5.033
63170SOL    HW291350  10.339  11.260   5.043
63171SOL     OW91351   6.304   0.177   5.034
63171SOL    HW191352   6.232   0.137   4.985
63171SOL    HW291353   6.376   0.182   4.972
63172SOL     OW91354  10.817   8.704   1.194
63172SOL    HW191355  10.901   8.658   1.191
63172SOL    HW291356  10.822   8.758   1.273
63173SOL     OW91357  13.947   7.379  10.033
63173SOL    HW191358  13.925   7.353   9.943
63173SOL    HW291359  14.025   7.434  10.023
63174SOL     OW91360   8.418  10.541   3.732
63174SOL    HW191361   8.464  10.459   3.751
63174SOL    HW291362   8.488  10.607   3.733
63175SOL     OW91363  12.809   5.662   0.779
63175SOL    HW191364  12.882   5.608   0.809
63175SOL    HW291365  12.785   5.716   0.854
63176SOL     OW91366   3.792  11.970   2.896
63176SOL    HW191367   3.795  11.898   2.833
63176SOL    HW291368   3.725  11.944   2.959
63177SOL     OW91369   4.058   8.933   6.009
63177SOL    HW191370   4.123   8.864   6.021
63177SOL    HW291371   3.981   8.902   6.057
63178SOL     OW91372   5.921   7.942  14.365
63178SOL    HW191373   5.835   7.976  14.389
63178SOL    HW291374   5.983   7.997  14.413
63179SOL     OW91375   0.583   9.618   0.445
63179SOL    HW191376   0.650   9.590   0.382
63179SOL    HW291377   0.500   9.591   0.405
63180SOL     OW91378   3.114   2.975   0.458
63180SOL    HW191379   3.029   2.969   0.502
63180SOL    HW291380   3.123   2.891   0.414
63181SOL     OW91381  12.602   1.222   5.295
63181SOL    HW191382  12.633   1.181   5.214
63181SOL    HW291383  12.663   1.293   5.311
63182SOL     OW91384   7.646   1.337  13.240
63182SOL    HW191385   7.731   1.341  13.198
63182SOL    HW291386   7.614   1.248  13.222
63183SOL     OW91387   2.023   2.348  12.071
63183SOL    HW191388   1.941   2.301  12.088
63183SOL    HW291389   2.028   2.414  12.141
63184SOL     OW91390   6.576   2.645  12.755
63184SOL    HW191391   6.485   2.625  12.776
63184SOL    HW291392   6.579   2.649  12.659
63185SOL     OW91393   7.928   9.737  11.924
63185SOL    HW191394   7.925   9.679  11.848
63185SOL    HW291395   7.957   9.821  11.889
63186SOL     OW91396   1.832   4.135  12.215
63186SOL    HW191397   1.918   4.174  12.227
63186SOL    HW291398   1.777   4.177  12.281
63187SOL     OW91399   1.452   3.068   6.796
63187SOL    HW191400   1.540   3.067   6.758
63187SOL    HW291401   1.448   3.151   6.844
63188SOL     OW91402  14.347   9.732  13.496
63188SOL    HW191403  14.317   9.772  13.578
63188SOL    HW291404  14.429   9.778  13.477
63189SOL     OW91405   9.919  12.938   7.500
63189SOL    HW191406   9.888  12.849   7.513
63189SOL    HW291407   9.852  12.979   7.445
63190SOL     OW91408   6.880   2.142  12.423
63190SOL    HW191409   6.953   2.196  12.452
63190SOL    HW291410   6.803   2.185  12.461
63191SOL     OW91411   9.030  13.981  12.169
63191SOL    HW191412   9.122  14.008  12.178
63191SOL    HW291413   9.028  13.893  12.206
63192SOL     OW91414   8.876  14.663   9.655
63192SOL    HW191415   8.814  14.636   9.723
63192SOL    HW291416   8.900  14.582   9.610
63193SOL     OW91417  10.232  10.089  12.220
63193SOL    HW191418  10.232   9.996  12.195
63193SOL    HW291419  10.155  10.099  12.276
63194SOL     OW91420   7.274  12.997  11.185
63194SOL    HW191421   7.229  13.006  11.101
63194SOL    HW291422   7.204  12.985  11.249
63195SOL     OW91423   7.937   7.915  11.634
63195SOL    HW191424   8.028   7.898  11.607
63195SOL    HW291425   7.921   7.852  11.704
63196SOL     OW91426   4.393   7.958   5.917
63196SOL    HW191427   4.336   7.964   5.840
63196SOL    HW291428   4.472   7.914   5.885
63197SOL     OW91429  12.645   5.006   9.772
63197SOL    HW191430  12.692   5.086   9.750
63197SOL    HW291431  12.712   4.939   9.777
63198SOL     OW91432  12.728   9.088   8.805
63198SOL    HW191433  12.695   9.006   8.767
63198SOL    HW291434  12.795   9.118   8.744
63199SOL     OW91435  14.700  13.758   8.129
63199SOL    HW191436  14.619  13.707   8.137
63199SOL    HW291437  14.698  13.790   8.039
63200SOL     OW91438   7.160  10.707   9.885
63200SOL    HW191439   7.116  10.747   9.960
63200SOL    HW291440   7.103  10.636   9.858
63201SOL     OW91441   6.145  10.204   7.309
63201SOL    HW191442   6.202  10.276   7.336
63201SOL    HW291443   6.169  10.188   7.217
63202SOL     OW91444  11.486   9.192  13.479
63202SOL    HW191445  11.397   9.217  13.453
63202SOL    HW291446  11.542   9.224  13.408
63203SOL     OW91447   1.159   3.033   5.650
63203SOL    HW191448   1.195   3.050   5.563
63203SOL    HW291449   1.231   3.055   5.710
63204SOL     OW91450   1.448  10.297  13.585
63204SOL    HW191451   1.452  10.371  13.525
63204SOL    HW291452   1.385  10.237  13.546
63205SOL     OW91453   0.113  12.694   2.949
63205SOL    HW191454   0.030  12.728   2.982
63205SOL    HW291455   0.114  12.718   2.856
63206SOL     OW91456   9.066   1.157   0.822
63206SOL    HW191457   9.144   1.105   0.806
63206SOL    HW291458   9.066   1.171   0.917
63207SOL     OW91459   3.642  13.469  12.597
63207SOL    HW191460   3.668  13.409  12.527
63207SOL    HW291461   3.593  13.415  12.658
63208SOL     OW91462  14.127  11.998  10.827
63208SOL    HW191463  14.032  12.010  10.831
63208SOL    HW291464  14.148  11.948  10.905
63209SOL     OW91465   3.767   7.670   7.017
63209SOL    HW191466   3.858   7.696   7.032
63209SOL    HW291467   3.716   7.746   7.043
63210SOL     OW91468   7.658   4.413  10.812
63210SOL    HW191469   7.677   4.336  10.758
63210SOL    HW291470   7.700   4.394  10.896
63211SOL     OW91471   4.271   5.672   0.042
63211SOL    HW191472   4.338   5.642   0.104
63211SOL    HW291473   4.200   5.607   0.051
63212SOL     OW91474   6.364  10.928   4.266
63212SOL    HW191475   6.339  10.838   4.288
63212SOL    HW291476   6.389  10.924   4.173
63213SOL     OW91477  13.720  10.213   4.687
63213SOL    HW191478  13.734  10.121   4.664
63213SOL    HW291479  13.807  10.247   4.709
63214SOL     OW91480   5.548   3.115  10.989
63214SOL    HW191481   5.537   3.132  11.082
63214SOL    HW291482   5.497   3.036  10.972
63215SOL     OW91483  12.014   5.242   4.085
63215SOL    HW191484  12.028   5.302   4.011
63215SOL    HW291485  11.970   5.296   4.151
63216SOL     OW91486   4.397   9.582   3.129
63216SOL    HW191487   4.389   9.670   3.167
63216SOL    HW291488   4.443   9.532   3.196
63217SOL     OW91489   3.147   6.082   7.367
63217SOL    HW191490   3.195   6.027   7.305
63217SOL    HW291491   3.081   6.023   7.404
63218SOL     OW91492   7.598  11.228   7.600
63218SOL    HW191493   7.676  11.190   7.559
63218SOL    HW291494   7.532  11.227   7.531
63219SOL     OW91495   4.207   5.558  14.113
63219SOL    HW191496   4.266   5.486  14.136
63219SOL    HW291497   4.189   5.602  14.196
63220SOL     OW91498   6.298   3.445  11.062
63220SOL    HW191499   6.356   3.381  11.021
63220SOL    HW291500   6.353   3.488  11.128
63221SOL     OW91501  10.032   9.704   5.661
63221SOL    HW191502  10.037   9.631   5.598
63221SOL    HW291503  10.016   9.662   5.745
63222SOL     OW91504   8.688   2.983   0.682
63222SOL    HW191505   8.783   2.995   0.681
63222SOL    HW291506   8.660   3.026   0.763
63223SOL     OW91507  13.166   1.144  12.913
63223SOL    HW191508  13.177   1.059  12.955
63223SOL    HW291509  13.079   1.172  12.939
63224SOL     OW91510   9.389   9.305   4.643
63224SOL    HW191511   9.404   9.244   4.715
63224SOL    HW291512   9.445   9.272   4.572
63225SOL     OW91513  11.400   7.531   5.836
63225SOL    HW191514  11.310   7.547   5.808
63225SOL    HW291515  11.437   7.619   5.848
63226SOL     OW91516   7.315   1.377   9.256
63226SOL    HW191517   7.304   1.430   9.335
63226SOL    HW291518   7.343   1.291   9.288
63227SOL     OW91519   3.165   9.899  14.515
63227SOL    HW191520   3.186   9.973  14.458
63227SOL    HW291521   3.082   9.922  14.556
63228SOL     OW91522   4.668   1.321   9.798
63228SOL    HW191523   4.759   1.351   9.806
63228SOL    HW291524   4.676   1.234   9.759
63229SOL     OW91525  12.361   5.138   5.683
63229SOL    HW191526  12.314   5.174   5.608
63229SOL    HW291527  12.443   5.104   5.646
63230SOL     OW91528   0.144   3.596  11.033
63230SOL    HW191529   0.092   3.609  11.112
63230SOL    HW291530   0.170   3.503  11.036
63231SOL     OW91531   8.191   6.382  11.460
63231SOL    HW191532   8.193   6.363  11.554
63231SOL    HW291533   8.098   6.388  11.439
63232SOL     OW91534  12.128  14.795   2.330
63232SOL    HW191535  12.037  14.764   2.329
63232SOL    HW291536  12.133  14.857   2.257
63233SOL     OW91537   8.883   0.728  14.389
63233SOL    HW191538   8.957   0.773  14.349
63233SOL    HW291539   8.837   0.796  14.439
63234SOL     OW91540  12.094   7.986   4.583
63234SOL    HW191541  12.001   7.966   4.593
63234SOL    HW291542  12.133   7.967   4.668
63235SOL     OW91543   2.489   1.445   6.838
63235SOL    HW191544   2.447   1.445   6.924
63235SOL    HW291545   2.419   1.468   6.777
63236SOL     OW91546  12.197  12.048   3.399
63236SOL    HW191547  12.179  12.134   3.436
63236SOL    HW291548  12.252  12.005   3.465
63237SOL     OW91549   1.992  10.410  14.034
63237SOL    HW191550   2.079  10.436  14.065
63237SOL    HW291551   1.931  10.451  14.095
63238SOL     OW91552  10.264  11.601   6.338
63238SOL    HW191553  10.343  11.628   6.385
63238SOL    HW291554  10.286  11.610   6.246
63239SOL     OW91555   0.469   2.345   0.744
63239SOL    HW191556   0.490   2.358   0.837
63239SOL    HW291557   0.373   2.352   0.741
63240SOL     OW91558  14.617  11.700  13.561
63240SOL    HW191559  14.650  11.745  13.483
63240SOL    HW291560  14.522  11.702  13.551
63241SOL     OW91561  13.205   0.654  13.029
63241SOL    HW191562  13.179   0.591  12.962
63241SOL    HW291563  13.150   0.634  13.105
63242SOL     OW91564  10.851   1.448  10.501
63242SOL    HW191565  10.834   1.466  10.593
63242SOL    HW291566  10.945   1.426  10.499
63243SOL     OW91567   1.993  12.215   2.130
63243SOL    HW191568   1.967  12.286   2.070
63243SOL    HW291569   2.065  12.171   2.085
63244SOL     OW91570  13.712  13.482   6.578
63244SOL    HW191571  13.739  13.481   6.670
63244SOL    HW291572  13.793  13.469   6.529
63245SOL     OW91573  14.424   4.052  14.517
63245SOL    HW191574  14.408   3.971  14.566
63245SOL    HW291575  14.368   4.117  14.559
63246SOL     OW91576   9.577  10.084   6.699
63246SOL    HW191577   9.561  10.107   6.791
63246SOL    HW291578   9.672  10.089   6.689
63247SOL     OW91579  13.076   5.364   3.558
63247SOL    HW191580  13.095   5.424   3.485
63247SOL    HW291581  13.127   5.399   3.631
63248SOL     OW91582  11.340   9.871   3.290
63248SOL    HW191583  11.291   9.940   3.335
63248SOL    HW291584  11.427   9.908   3.276
63249SOL     OW91585  11.607   1.584   9.438
63249SOL    HW191586  11.550   1.511   9.460
63249SOL    HW291587  11.676   1.581   9.505
63250SOL     OW91588   4.456   8.249   8.935
63250SOL    HW191589   4.423   8.335   8.909
63250SOL    HW291590   4.432   8.191   8.863
63251SOL     OW91591   5.541  11.761  10.325
63251SOL    HW191592   5.570  11.719  10.406
63251SOL    HW291593   5.623  11.789  10.282
63252SOL     OW91594   5.081  11.257   0.308
63252SOL    HW191595   4.995  11.220   0.330
63252SOL    HW291596   5.106  11.213   0.227
63253SOL     OW91597   3.303   3.475   8.162
63253SOL    HW191598   3.292   3.526   8.081
63253SOL    HW291599   3.246   3.517   8.225
63254SOL     OW91600   7.425  13.594   7.177
63254SOL    HW191601   7.452  13.529   7.112
63254SOL    HW291602   7.363  13.650   7.130
63255SOL     OW91603   5.894  10.898   2.299
63255SOL    HW191604   5.940  10.883   2.216
63255SOL    HW291605   5.858  10.987   2.290
63256SOL     OW91606   4.566   4.029   0.889
63256SOL    HW191607   4.581   4.013   0.982
63256SOL    HW291608   4.580   3.944   0.847
63257SOL     OW91609   4.722   1.580  12.165
63257SOL    HW191610   4.630   1.582  12.138
63257SOL    HW291611   4.766   1.643  12.108
63258SOL     OW91612   4.748   8.667   8.120
63258SOL    HW191613   4.763   8.642   8.029
63258SOL    HW291614   4.836   8.686   8.154
63259SOL     OW91615  13.654   6.253   6.472
63259SOL    HW191616  13.681   6.312   6.401
63259SOL    HW291617  13.667   6.165   6.437
63260SOL     OW91618   2.666  13.059  12.617
63260SOL    HW191619   2.675  13.059  12.522
63260SOL    HW291620   2.679  12.968  12.643
63261SOL     OW91621   1.791  12.005  13.618
63261SOL    HW191622   1.772  11.912  13.605
63261SOL    HW291623   1.725  12.050  13.565
63262SOL     OW91624   6.303   6.620  10.356
63262SOL    HW191625   6.252   6.676  10.297
63262SOL    HW291626   6.340   6.680  10.420
63263SOL     OW91627   7.778   6.186  13.244
63263SOL    HW191628   7.767   6.176  13.149
63263SOL    HW291629   7.811   6.275  13.254
63264SOL     OW91630  12.528  12.948   9.245
63264SOL    HW191631  12.548  13.011   9.176
63264SOL    HW291632  12.502  12.868   9.199
63265SOL     OW91633   6.982  10.027   0.007
63265SOL    HW191634   7.057   9.975   0.036
63265SOL    HW291635   7.021  10.104  14.846
63266SOL     OW91636   2.681  12.387   6.216
63266SOL    HW191637   2.655  12.367   6.306
63266SOL    HW291638   2.777  12.393   6.220
63267SOL     OW91639  12.503   3.414   6.712
63267SOL    HW191640  12.506   3.445   6.802
63267SOL    HW291641  12.546   3.329   6.714
63268SOL     OW91642  11.371   9.688   6.036
63268SOL    HW191643  11.436   9.621   6.059
63268SOL    HW291644  11.293   9.663   6.084
63269SOL     OW91645  13.181   7.286   9.067
63269SOL    HW191646  13.267   7.251   9.046
63269SOL    HW291647  13.127   7.264   8.991
63270SOL     OW91648   4.388   0.931   8.318
63270SOL    HW191649   4.323   0.863   8.335
63270SOL    HW291650   4.397   0.976   8.402
63271SOL     OW91651  12.144   1.195   1.863
63271SOL    HW191652  12.148   1.168   1.771
63271SOL    HW291653  12.098   1.278   1.862
63272SOL     OW91654   9.966  13.776   5.214
63272SOL    HW191655  10.005  13.788   5.301
63272SOL    HW291656   9.980  13.683   5.194
63273SOL     OW91657   9.424  13.652  13.914
63273SOL    HW191658   9.445  13.612  13.829
63273SOL    HW291659   9.466  13.595  13.978
63274SOL     OW91660   3.316  13.555  13.422
63274SOL    HW191661   3.333  13.642  13.459
63274SOL    HW291662   3.242  13.521  13.472
63275SOL     OW91663   1.970   0.499  12.029
63275SOL    HW191664   2.059   0.466  12.021
63275SOL    HW291665   1.936   0.455  12.108
63276SOL     OW91666   1.125   2.198  10.139
63276SOL    HW191667   1.088   2.281  10.170
63276SOL    HW291668   1.201   2.223  10.087
63277SOL     OW91669   7.541   9.287   8.559
63277SOL    HW191670   7.637   9.287   8.563
63277SOL    HW291671   7.520   9.215   8.499
63278SOL     OW91672   2.733   7.826   5.586
63278SOL    HW191673   2.749   7.883   5.661
63278SOL    HW291674   2.685   7.880   5.524
63279SOL     OW91675  10.836   8.308  10.849
63279SOL    HW191676  10.821   8.223  10.891
63279SOL    HW291677  10.796   8.299  10.762
63280SOL     OW91678   9.217  13.133  14.023
63280SOL    HW191679   9.270  13.183  14.084
63280SOL    HW291680   9.243  13.042  14.036
63281SOL     OW91681   0.476  12.094   3.546
63281SOL    HW191682   0.462  12.083   3.640
63281SOL    HW291683   0.485  12.189   3.534
63282SOL     OW91684   6.656   6.278   0.268
63282SOL    HW191685   6.737   6.294   0.218
63282SOL    HW291686   6.588   6.321   0.216
63283SOL     OW91687   3.157   1.596   4.201
63283SOL    HW191688   3.212   1.610   4.278
63283SOL    HW291689   3.093   1.667   4.204
63284SOL     OW91690   8.496   3.129  10.013
63284SOL    HW191691   8.419   3.122   9.956
63284SOL    HW291692   8.565   3.082   9.966
63285SOL     OW91693   8.866   3.656  14.660
63285SOL    HW191694   8.900   3.577  14.702
63285SOL    HW291695   8.923   3.727  14.692
63286SOL     OW91696   2.197   3.855   0.684
63286SOL    HW191697   2.151   3.910   0.621
63286SOL    HW291698   2.163   3.767   0.669
63287SOL     OW91699  10.231   4.467   9.051
63287SOL    HW191700  10.179   4.461   8.971
63287SOL    HW291701  10.296   4.535   9.033
63288SOL     OW91702  14.805   6.668  11.562
63288SOL    HW191703   0.003   6.665  11.506
63288SOL    HW291704  14.777   6.760  11.560
63289SOL     OW91705   6.394  14.703  13.135
63289SOL    HW191706   6.353  14.673  13.216
63289SOL    HW291707   6.488  14.695  13.150
63290SOL     OW91708   0.732  13.606   5.441
63290SOL    HW191709   0.813  13.562   5.465
63290SOL    HW291710   0.667  13.570   5.502
63291SOL     OW91711   4.923  13.794   4.769
63291SOL    HW191712   4.990  13.859   4.752
63291SOL    HW291713   4.912  13.748   4.686
63292SOL     OW91714  11.798  14.711  10.487
63292SOL    HW191715  11.867  14.666  10.536
63292SOL    HW291716  11.732  14.643  10.471
63293SOL     OW91717   5.070   2.720   4.227
63293SOL    HW191718   5.148   2.756   4.185
63293SOL    HW291719   5.022   2.797   4.257
63294SOL     OW91720   6.705   2.400   1.394
63294SOL    HW191721   6.682   2.492   1.382
63294SOL    HW291722   6.786   2.388   1.344
63295SOL     OW91723   2.971   5.576   1.563
63295SOL    HW191724   2.931   5.655   1.525
63295SOL    HW291725   2.994   5.602   1.652
63296SOL     OW91726  14.148   3.331  11.317
63296SOL    HW191727  14.081   3.389  11.354
63296SOL    HW291728  14.103   3.247  11.306
63297SOL     OW91729   2.912   8.380   3.255
63297SOL    HW191730   3.004   8.369   3.229
63297SOL    HW291731   2.905   8.471   3.282
63298SOL     OW91732   0.622  12.398   1.402
63298SOL    HW191733   0.623  12.315   1.450
63298SOL    HW291734   0.660  12.377   1.317
63299SOL     OW91735   2.763   8.237  11.667
63299SOL    HW191736   2.814   8.318  11.656
63299SOL    HW291737   2.783   8.186  11.588
63300SOL     OW91738   3.655   6.224  10.722
63300SOL    HW191739   3.659   6.131  10.702
63300SOL    HW291740   3.729   6.239  10.782
63301SOL     OW91741   9.742   9.173  10.297
63301SOL    HW191742   9.762   9.079  10.295
63301SOL    HW291743   9.656   9.180  10.256
63302SOL     OW91744   0.333   3.199   0.366
63302SOL    HW191745   0.259   3.258   0.354
63302SOL    HW291746   0.410   3.257   0.364
63303SOL     OW91747  12.205   1.505  11.735
63303SOL    HW191748  12.169   1.507  11.824
63303SOL    HW291749  12.191   1.414  11.707
63304SOL     OW91750  10.628  10.943   3.447
63304SOL    HW191751  10.658  10.933   3.357
63304SOL    HW291752  10.602  10.854   3.474
63305SOL     OW91753   0.475   7.890   4.140
63305SOL    HW191754   0.427   7.808   4.150
63305SOL    HW291755   0.565   7.863   4.122
63306SOL     OW91756   6.660   3.335   3.359
63306SOL    HW191757   6.733   3.366   3.412
63306SOL    HW291758   6.582   3.370   3.403
63307SOL     OW91759  14.102   4.231   1.362
63307SOL    HW191760  14.133   4.145   1.389
63307SOL    HW291761  14.007   4.226   1.369
63308SOL     OW91762   1.718   4.861  12.818
63308SOL    HW191763   1.646   4.814  12.775
63308SOL    HW291764   1.741   4.806  12.893
63309SOL     OW91765   7.227   6.257   2.014
63309SOL    HW191766   7.308   6.308   2.017
63309SOL    HW291767   7.219   6.220   2.102
63310SOL     OW91768   1.454   4.281   7.671
63310SOL    HW191769   1.475   4.311   7.759
63310SOL    HW291770   1.514   4.329   7.614
63311SOL     OW91771   8.170   3.031   9.255
63311SOL    HW191772   8.207   2.979   9.327
63311SOL    HW291773   8.230   3.017   9.182
63312SOL     OW91774   5.842   0.422  11.398
63312SOL    HW191775   5.761   0.378  11.373
63312SOL    HW291776   5.837   0.507  11.353
63313SOL     OW91777  10.594   5.391  11.109
63313SOL    HW191778  10.543   5.310  11.115
63313SOL    HW291779  10.605   5.405  11.015
63314SOL     OW91780   3.158   4.088   8.182
63314SOL    HW191781   3.201   4.086   8.096
63314SOL    HW291782   3.208   4.153   8.231
63315SOL     OW91783   8.576   2.160   6.370
63315SOL    HW191784   8.529   2.111   6.303
63315SOL    HW291785   8.508   2.205   6.419
63316SOL     OW91786  12.170  13.263   0.392
63316SOL    HW191787  12.077  13.262   0.370
63316SOL    HW291788  12.211  13.214   0.320
63317SOL     OW91789   4.691   2.180  13.193
63317SOL    HW191790   4.741   2.192  13.112
63317SOL    HW291791   4.639   2.102  13.177
63318SOL     OW91792   6.653   9.479  14.216
63318SOL    HW191793   6.626   9.407  14.160
63318SOL    HW291794   6.577   9.495  14.273
63319SOL     OW91795  14.238   1.445  10.288
63319SOL    HW191796  14.214   1.416  10.199
63319SOL    HW291797  14.266   1.365  10.332
63320SOL     OW91798   9.616  13.208   7.608
63320SOL    HW191799   9.537  13.232   7.656
63320SOL    HW291800   9.584  13.171   7.525
63321SOL     OW91801  11.567   5.340   6.171
63321SOL    HW191802  11.586   5.251   6.202
63321SOL    HW291803  11.591   5.396   6.244
63322SOL     OW91804  13.986   5.093  12.842
63322SOL    HW191805  13.895   5.111  12.817
63322SOL    HW291806  14.000   5.145  12.922
63323SOL     OW91807   5.308   2.508  11.453
63323SOL    HW191808   5.262   2.547  11.379
63323SOL    HW291809   5.361   2.439  11.414
63324SOL     OW91810   0.700  11.543   1.924
63324SOL    HW191811   0.692  11.559   1.830
63324SOL    HW291812   0.781  11.493   1.933
63325SOL     OW91813   9.252   6.508   3.976
63325SOL    HW191814   9.282   6.417   3.969
63325SOL    HW291815   9.321   6.559   3.934
63326SOL     OW91816   6.893   5.849   2.967
63326SOL    HW191817   6.865   5.798   3.042
63326SOL    HW291818   6.824   5.835   2.901
63327SOL     OW91819   9.903   6.448   1.981
63327SOL    HW191820   9.997   6.433   1.993
63327SOL    HW291821   9.897   6.534   1.939
63328SOL     OW91822  11.682   2.871  13.002
63328SOL    HW191823  11.738   2.920  13.061
63328SOL    HW291824  11.703   2.906  12.915
63329SOL     OW91825   1.207   6.424   2.909
63329SOL    HW191826   1.150   6.355   2.876
63329SOL    HW291827   1.189   6.427   3.003
63330SOL     OW91828  12.538   9.952   4.296
63330SOL    HW191829  12.465   9.964   4.356
63330SOL    HW291830  12.510   9.882   4.238
63331SOL     OW91831   6.160  13.717   6.408
63331SOL    HW191832   6.120  13.686   6.326
63331SOL    HW291833   6.188  13.637   6.452
63332SOL     OW91834   2.282   6.116   8.957
63332SOL    HW191835   2.376   6.126   8.941
63332SOL    HW291836   2.256   6.197   9.001
63333SOL     OW91837  10.896   0.792   1.333
63333SOL    HW191838  10.914   0.850   1.406
63333SOL    HW291839  10.871   0.709   1.374
63334SOL     OW91840   0.728   2.336   2.971
63334SOL    HW191841   0.710   2.265   2.909
63334SOL    HW291842   0.661   2.402   2.951
63335SOL     OW91843  10.188   8.039   2.179
63335SOL    HW191844  10.258   7.975   2.196
63335SOL    HW291845  10.145   8.049   2.264
63336SOL     OW91846   7.072  14.222   4.421
63336SOL    HW191847   7.164  14.196   4.433
63336SOL    HW291848   7.077  14.293   4.356
63337SOL     OW91849   1.912   9.487   9.441
63337SOL    HW191850   1.915   9.485   9.536
63337SOL    HW291851   1.907   9.394   9.415
63338SOL     OW91852  14.372   0.249   9.994
63338SOL    HW191853  14.380   0.156  10.014
63338SOL    HW291854  14.456   0.272   9.953
63339SOL     OW91855  11.842  14.088   5.545
63339SOL    HW191856  11.754  14.064   5.515
63339SOL    HW291857  11.838  14.078   5.640
63340SOL     OW91858  14.678  10.004   3.317
63340SOL    HW191859  14.604  10.060   3.341
63340SOL    HW291860  14.647   9.953   3.243
63341SOL     OW91861   4.190   7.942  11.612
63341SOL    HW191862   4.186   7.989  11.695
63341SOL    HW291863   4.151   8.002  11.549
63342SOL     OW91864   5.193   6.095   1.890
63342SOL    HW191865   5.108   6.101   1.847
63342SOL    HW291866   5.210   6.183   1.923
63343SOL     OW91867   3.399  14.333   9.198
63343SOL    HW191868   3.373  14.339   9.106
63343SOL    HW291869   3.317  14.325   9.246
63344SOL     OW91870   1.173   7.991  13.788
63344SOL    HW191871   1.190   8.025  13.700
63344SOL    HW291872   1.077   7.993  13.796
63345SOL     OW91873   8.332   0.610   3.966
63345SOL    HW191874   8.277   0.532   3.971
63345SOL    HW291875   8.313   0.658   4.047
63346SOL     OW91876   2.874   7.200  12.486
63346SOL    HW191877   2.841   7.174  12.572
63346SOL    HW291878   2.969   7.197  12.495
63347SOL     OW91879   8.593  13.655  11.115
63347SOL    HW191880   8.536  13.635  11.190
63347SOL    HW291881   8.565  13.742  11.087
63348SOL     OW91882   7.514   0.935   4.002
63348SOL    HW191883   7.510   0.909   3.910
63348SOL    HW291884   7.608   0.944   4.020
63349SOL     OW91885   6.042   6.250   2.627
63349SOL    HW191886   6.115   6.246   2.689
63349SOL    HW291887   6.008   6.161   2.626
63350SOL     OW91888  12.537  11.102  12.486
63350SOL    HW191889  12.499  11.072  12.568
63350SOL    HW291890  12.509  11.193  12.478
63351SOL     OW91891  14.396   7.562   5.875
63351SOL    HW191892  14.451   7.538   5.800
63351SOL    HW291893  14.318   7.601   5.835
63352SOL     OW91894   3.018  10.420   2.335
63352SOL    HW191895   3.021  10.506   2.376
63352SOL    HW291896   3.098  10.377   2.364
63353SOL     OW91897   4.034   4.335  12.522
63353SOL    HW191898   4.073   4.332  12.609
63353SOL    HW291899   3.955   4.282  12.528
63354SOL     OW91900   6.330   8.804   2.719
63354SOL    HW191901   6.298   8.719   2.750
63354SOL    HW291902   6.252   8.848   2.686
63355SOL     OW91903   2.668   7.250   3.265
63355SOL    HW191904   2.633   7.271   3.351
63355SOL    HW291905   2.694   7.158   3.271
63356SOL     OW91906   1.500  14.135  10.382
63356SOL    HW191907   1.438  14.110  10.313
63356SOL    HW291908   1.449  14.131  10.463
63357SOL     OW91909   6.422   1.383   0.231
63357SOL    HW191910   6.359   1.452   0.251
63357SOL    HW291911   6.457   1.357   0.316
63358SOL     OW91912  11.343   4.614  12.619
63358SOL    HW191913  11.289   4.571  12.552
63358SOL    HW291914  11.337   4.707  12.598
63359SOL     OW91915  14.432  10.470   6.557
63359SOL    HW191916  14.338  10.470   6.540
63359SOL    HW291917  14.462  10.385   6.526
63360SOL     OW91918   0.410  12.984   2.771
63360SOL    HW191919   0.396  13.035   2.851
63360SOL    HW291920   0.323  12.978   2.731
63361SOL     OW91921  10.624  11.555   2.381
63361SOL    HW191922  10.539  11.592   2.359
63361SOL    HW291923  10.605  11.464   2.405
63362SOL     OW91924   3.462   6.265   6.531
63362SOL    HW191925   3.389   6.294   6.477
63362SOL    HW291926   3.482   6.177   6.499
63363SOL     OW91927   6.962  13.905   1.197
63363SOL    HW191928   6.882  13.866   1.233
63363SOL    HW291929   6.943  13.999   1.195
63364SOL     OW91930  10.892  11.928   1.528
63364SOL    HW191931  10.898  11.950   1.435
63364SOL    HW291932  10.976  11.887   1.548
63365SOL     OW91933  14.171   6.340   1.753
63365SOL    HW191934  14.156   6.343   1.848
63365SOL    HW291935  14.250   6.392   1.740
63366SOL     OW91936  12.378   7.724   7.806
63366SOL    HW191937  12.428   7.643   7.809
63366SOL    HW291938  12.384   7.759   7.894
63367SOL     OW91939  12.268   6.982  13.701
63367SOL    HW191940  12.353   7.018  13.729
63367SOL    HW291941  12.267   6.994  13.606
63368SOL     OW91942  13.567  13.921  13.948
63368SOL    HW191943  13.504  13.992  13.964
63368SOL    HW291944  13.599  13.898  14.035
63369SOL     OW91945   0.765  11.231   5.269
63369SOL    HW191946   0.707  11.175   5.219
63369SOL    HW291947   0.775  11.187   5.353
63370SOL     OW91948   3.922   7.811   1.977
63370SOL    HW191949   3.845   7.781   2.025
63370SOL    HW291950   3.886   7.851   1.897
63371SOL     OW91951   7.348   1.262   0.263
63371SOL    HW191952   7.346   1.176   0.305
63371SOL    HW291953   7.436   1.296   0.282
63372SOL     OW91954   7.528   4.140   2.104
63372SOL    HW191955   7.589   4.078   2.145
63372SOL    HW291956   7.564   4.226   2.124
63373SOL     OW91957  11.149   5.679   5.166
63373SOL    HW191958  11.171   5.725   5.085
63373SOL    HW291959  11.228   5.686   5.219
63374SOL     OW91960   5.045   4.141   8.595
63374SOL    HW191961   5.009   4.203   8.532
63374SOL    HW291962   4.996   4.060   8.580
63375SOL     OW91963   1.776  13.297   6.174
63375SOL    HW191964   1.755  13.242   6.249
63375SOL    HW291965   1.700  13.290   6.116
63376SOL     OW91966  10.617  10.470   6.983
63376SOL    HW191967  10.654  10.471   7.072
63376SOL    HW291968  10.680  10.521   6.931
63377SOL     OW91969   5.515  11.819   5.539
63377SOL    HW191970   5.431  11.848   5.503
63377SOL    HW291971   5.491  11.751   5.602
63378SOL     OW91972  10.890   6.687  12.891
63378SOL    HW191973  10.849   6.619  12.837
63378SOL    HW291974  10.978   6.697  12.855
63379SOL     OW91975   1.591   6.091   4.809
63379SOL    HW191976   1.659   6.036   4.846
63379SOL    HW291977   1.547   6.036   4.744
63380SOL     OW91978   9.316  10.464   8.978
63380SOL    HW191979   9.384  10.523   9.010
63380SOL    HW291980   9.239  10.486   9.029
63381SOL     OW91981   8.746   5.188   6.155
63381SOL    HW191982   8.656   5.218   6.165
63381SOL    HW291983   8.753   5.165   6.062
63382SOL     OW91984  10.581   6.419   1.223
63382SOL    HW191985  10.492   6.385   1.217
63382SOL    HW291986  10.575   6.508   1.188
63383SOL     OW91987   2.045   4.852  12.207
63383SOL    HW191988   2.083   4.840  12.294
63383SOL    HW291989   2.115   4.830  12.146
63384SOL     OW91990   0.771   8.170   4.032
63384SOL    HW191991   0.750   8.112   4.105
63384SOL    HW291992   0.712   8.244   4.041
63385SOL     OW91993   8.006   4.412   3.571
63385SOL    HW191994   8.093   4.448   3.554
63385SOL    HW291995   7.950   4.488   3.584
63386SOL     OW91996   7.834   8.358   0.733
63386SOL    HW191997   7.912   8.357   0.678
63386SOL    HW291998   7.768   8.402   0.680
63387SOL     OW91999   1.226   5.810   2.577
63387SOL    HW192000   1.236   5.885   2.519
63387SOL    HW292001   1.282   5.830   2.652
63388SOL     OW92002  14.364  10.281   6.298
63388SOL    HW192003  14.303  10.233   6.354
63388SOL    HW292004  14.442  10.225   6.296
63389SOL     OW92005   5.955   2.490   0.691
63389SOL    HW192006   6.029   2.444   0.732
63389SOL    HW292007   5.996   2.547   0.626
63390SOL     OW92008   6.618   0.078  13.458
63390SOL    HW192009   6.592   0.150  13.516
63390SOL    HW292010   6.613   0.116  13.370
63391SOL     OW92011   2.159   0.690  10.313
63391SOL    HW192012   2.167   0.595  10.300
63391SOL    HW292013   2.165   0.701  10.407
63392SOL     OW92014  11.576   3.643  14.093
63392SOL    HW192015  11.575   3.597  14.178
63392SOL    HW292016  11.521   3.720  14.107
63393SOL     OW92017  11.678   3.915   2.720
63393SOL    HW192018  11.709   3.937   2.808
63393SOL    HW292019  11.583   3.924   2.726
63394SOL     OW92020  10.049   4.101  10.641
63394SOL    HW192021  10.063   4.089  10.735
63394SOL    HW292022   9.974   4.046  10.621
63395SOL     OW92023  14.744   5.099   5.080
63395SOL    HW192024  14.697   5.173   5.043
63395SOL    HW292025  14.836   5.116   5.060
63396SOL     OW92026   0.789   6.909   3.311
63396SOL    HW192027   0.707   6.912   3.261
63396SOL    HW292028   0.814   7.001   3.323
63397SOL     OW92029   1.817   0.750   1.381
63397SOL    HW192030   1.748   0.790   1.434
63397SOL    HW292031   1.890   0.812   1.386
63398SOL     OW92032  12.199   4.226   0.584
63398SOL    HW192033  12.204   4.212   0.679
63398SOL    HW292034  12.252   4.154   0.548
63399SOL     OW92035   4.045  11.516   6.604
63399SOL    HW192036   4.122  11.562   6.572
63399SOL    HW292037   4.078  11.432   6.635
63400SOL     OW92038  12.056   3.439  13.260
63400SOL    HW192039  12.146   3.459  13.287
63400SOL    HW292040  12.050   3.472  13.170
63401SOL     OW92041   0.628   2.020   4.146
63401SOL    HW192042   0.532   2.012   4.146
63401SOL    HW292043   0.658   1.938   4.185
63402SOL     OW92044  14.253   0.938  10.969
63402SOL    HW192045  14.226   1.027  10.943
63402SOL    HW292046  14.297   0.950  11.053
63403SOL     OW92047  11.021  12.069  10.766
63403SOL    HW192048  11.066  12.096  10.847
63403SOL    HW292049  10.946  12.017  10.796
63404SOL     OW92050   5.466  12.557  12.044
63404SOL    HW192051   5.408  12.589  11.975
63404SOL    HW292052   5.407  12.530  12.114
63405SOL     OW92053   0.850   5.605  12.652
63405SOL    HW192054   0.925   5.662  12.667
63405SOL    HW292055   0.816   5.587  12.739
63406SOL     OW92056  12.284   5.732  13.414
63406SOL    HW192057  12.370   5.758  13.447
63406SOL    HW292058  12.228   5.808  13.432
63407SOL     OW92059   6.765  13.530  12.534
63407SOL    HW192060   6.742  13.603  12.477
63407SOL    HW292061   6.854  13.505  12.506
63408SOL     OW92062   1.840   2.566   0.051
63408SOL    HW192063   1.868   2.474   0.056
63408SOL    HW292064   1.827   2.581  14.837
63409SOL     OW92065  10.103  13.586   1.968
63409SOL    HW192066  10.021  13.597   2.017
63409SOL    HW292067  10.076  13.578   1.877
63410SOL     OW92068   0.262  14.723  12.929
63410SOL    HW192069   0.300  14.772  12.856
63410SOL    HW292070   0.201  14.785  12.969
63411SOL     OW92071   7.964   5.315   5.658
63411SOL    HW192072   7.876   5.280   5.674
63411SOL    HW292073   7.958   5.406   5.686
63412SOL     OW92074  12.793  10.176   5.381
63412SOL    HW192075  12.703  10.183   5.411
63412SOL    HW292076  12.844  10.220   5.449
63413SOL     OW92077   4.361  12.453   9.139
63413SOL    HW192078   4.329  12.471   9.227
63413SOL    HW292079   4.341  12.361   9.124
63414SOL     OW92080   8.878  12.035   6.172
63414SOL    HW192081   8.795  12.083   6.171
63414SOL    HW292082   8.863  11.959   6.116
63415SOL     OW92083  13.596   5.398  14.389
63415SOL    HW192084  13.607   5.312  14.349
63415SOL    HW292085  13.676   5.412  14.439
63416SOL     OW92086   8.864   0.690   4.662
63416SOL    HW192087   8.940   0.691   4.720
63416SOL    HW292088   8.876   0.611   4.609
63417SOL     OW92089  10.368   9.411   8.034
63417SOL    HW192090  10.283   9.423   8.076
63417SOL    HW292091  10.406   9.499   8.031
63418SOL     OW92092  13.547  13.314  14.712
63418SOL    HW192093  13.619  13.361  14.670
63418SOL    HW292094  13.578  13.298  14.801
63419SOL     OW92095   4.115  13.134   9.293
63419SOL    HW192096   4.133  13.145   9.200
63419SOL    HW292097   4.178  13.068   9.322
63420SOL     OW92098  12.676   9.701   8.223
63420SOL    HW192099  12.710   9.790   8.224
63420SOL    HW292100  12.688   9.670   8.313
63421SOL     OW92101  14.724  14.036   2.162
63421SOL    HW192102  14.815  14.050   2.138
63421SOL    HW292103  14.676  14.105   2.115
63422SOL     OW92104  11.899  11.469   1.708
63422SOL    HW192105  11.849  11.390   1.689
63422SOL    HW292106  11.986  11.451   1.671
63423SOL     OW92107   6.845   3.705   0.789
63423SOL    HW192108   6.774   3.643   0.803
63423SOL    HW292109   6.801   3.787   0.766
63424SOL     OW92110  12.020  13.991   0.019
63424SOL    HW192111  11.954  14.059   0.030
63424SOL    HW292112  12.022  13.972  14.805
63425SOL     OW92113   3.470   8.911  10.285
63425SOL    HW192114   3.422   8.828  10.282
63425SOL    HW292115   3.516   8.909  10.368
63426SOL     OW92116   5.848  12.003  14.639
63426SOL    HW192117   5.900  12.074  14.676
63426SOL    HW292118   5.782  12.048  14.585
63427SOL     OW92119  14.202  10.976   5.794
63427SOL    HW192120  14.255  10.936   5.862
63427SOL    HW292121  14.135  11.026   5.841
63428SOL     OW92122   7.007   8.354   5.426
63428SOL    HW192123   7.012   8.312   5.512
63428SOL    HW292124   7.098   8.366   5.399
63429SOL     OW92125  14.363   1.084   4.007
63429SOL    HW192126  14.368   1.168   3.962
63429SOL    HW292127  14.414   1.095   4.087
63430SOL     OW92128   7.669   9.551   5.471
63430SOL    HW192129   7.661   9.573   5.564
63430SOL    HW292130   7.581   9.525   5.445
63431SOL     OW92131  14.043  10.684   6.564
63431SOL    HW192132  14.128  10.679   6.609
63431SOL    HW292133  14.029  10.595   6.530
63432SOL     OW92134  12.226   2.999   7.638
63432SOL    HW192135  12.192   2.950   7.563
63432SOL    HW292136  12.321   2.997   7.627
63433SOL     OW92137   6.784  10.198  13.330
63433SOL    HW192138   6.802  10.130  13.395
63433SOL    HW292139   6.695  10.227  13.348
63434SOL     OW92140   9.084   9.247   6.966
63434SOL    HW192141   9.128   9.179   7.016
63434SOL    HW292142   9.072   9.319   7.028
63435SOL     OW92143   7.964   2.018   5.486
63435SOL    HW192144   8.020   2.025   5.564
63435SOL    HW292145   7.908   1.943   5.505
63436SOL     OW92146  12.513   3.086   5.395
63436SOL    HW192147  12.568   3.013   5.424
63436SOL    HW292148  12.469   3.055   5.316
63437SOL     OW92149   2.186  10.244  10.976
63437SOL    HW192150   2.218  10.292  10.900
63437SOL    HW292151   2.206  10.152  10.956
63438SOL     OW92152   8.466   7.281  10.054
63438SOL    HW192153   8.517   7.237   9.986
63438SOL    HW292154   8.530   7.304  10.121
63439SOL     OW92155  11.577   1.125   1.922
63439SOL    HW192156  11.636   1.076   1.980
63439SOL    HW292157  11.609   1.215   1.927
63440SOL     OW92158   9.107  10.430  14.045
63440SOL    HW192159   9.031  10.402  13.995
63440SOL    HW292160   9.140  10.350  14.087
63441SOL     OW92161   4.519   5.567   6.291
63441SOL    HW192162   4.431   5.605   6.288
63441SOL    HW292163   4.504   5.474   6.305
63442SOL     OW92164  10.662   2.076  11.513
63442SOL    HW192165  10.730   2.009  11.526
63442SOL    HW292166  10.590   2.029  11.470
63443SOL     OW92167   2.161   9.573   5.227
63443SOL    HW192168   2.204   9.505   5.277
63443SOL    HW292169   2.087   9.601   5.282
63444SOL     OW92170   1.806   4.526  13.532
63444SOL    HW192171   1.763   4.559  13.453
63444SOL    HW292172   1.879   4.473  13.500
63445SOL     OW92173   0.330   9.167  12.189
63445SOL    HW192174   0.371   9.081  12.195
63445SOL    HW292175   0.245   9.157  12.230
63446SOL     OW92176   7.396   0.578   7.049
63446SOL    HW192177   7.310   0.592   7.009
63446SOL    HW292178   7.452   0.646   7.011
63447SOL     OW92179  10.201  11.899   6.067
63447SOL    HW192180  10.131  11.859   6.118
63447SOL    HW292181  10.156  11.942   5.994
63448SOL     OW92182  10.760   9.249  13.587
63448SOL    HW192183  10.742   9.195  13.510
63448SOL    HW292184  10.838   9.209  13.626
63449SOL     OW92185   5.160   0.766  10.356
63449SOL    HW192186   5.072   0.773  10.393
63449SOL    HW292187   5.162   0.678  10.317
63450SOL     OW92188   4.292   7.574   4.234
63450SOL    HW192189   4.209   7.551   4.192
63450SOL    HW292190   4.267   7.627   4.309
63451SOL     OW92191  12.518   2.909  10.914
63451SOL    HW192192  12.469   2.827  10.906
63451SOL    HW292193  12.452   2.978  10.909
63452SOL     OW92194  14.064  14.082  10.242
63452SOL    HW192195  14.071  14.097  10.148
63452SOL    HW292196  14.152  14.054  10.268
63453SOL     OW92197   2.203   6.364   7.089
63453SOL    HW192198   2.138   6.419   7.045
63453SOL    HW292199   2.278   6.363   7.030
63454SOL     OW92200   6.887   1.966   8.023
63454SOL    HW192201   6.803   1.987   8.064
63454SOL    HW292202   6.889   2.019   7.944
63455SOL     OW92203   6.738   6.590   4.545
63455SOL    HW192204   6.690   6.616   4.467
63455SOL    HW292205   6.774   6.672   4.579
63456SOL     OW92206   6.835   5.129   2.062
63456SOL    HW192207   6.910   5.131   2.122
63456SOL    HW292208   6.763   5.167   2.113
63457SOL     OW92209  11.062   5.880   7.847
63457SOL    HW192210  10.998   5.828   7.896
63457SOL    HW292211  11.145   5.835   7.861
63458SOL     OW92212   2.755   8.140   3.253
63458SOL    HW192213   2.794   8.094   3.179
63458SOL    HW292214   2.817   8.208   3.276
63459SOL     OW92215   9.321   0.595   7.784
63459SOL    HW192216   9.298   0.611   7.876
63459SOL    HW292217   9.402   0.645   7.771
63460SOL     OW92218  13.264   5.001  11.492
63460SOL    HW192219  13.314   5.044  11.422
63460SOL    HW292220  13.233   5.073  11.547
63461SOL     OW92221  10.928  12.899   1.431
63461SOL    HW192222  10.934  12.895   1.526
63461SOL    HW292223  11.007  12.855   1.399
63462SOL     OW92224  13.800   2.322  12.307
63462SOL    HW192225  13.868   2.349  12.244
63462SOL    HW292226  13.718   2.326  12.257
63463SOL     OW92227   8.790   5.125   8.015
63463SOL    HW192228   8.811   5.206   7.969
63463SOL    HW292229   8.698   5.107   7.992
63464SOL     OW92230  10.269  11.669   7.343
63464SOL    HW192231  10.226  11.750   7.317
63464SOL    HW292232  10.342  11.660   7.281
63465SOL     OW92233   9.674   3.891   0.054
63465SOL    HW192234   9.623   3.957   0.006
63465SOL    HW292235   9.701   3.936   0.134
63466SOL     OW92236   7.300  12.074   9.504
63466SOL    HW192237   7.385  12.030   9.513
63466SOL    HW292238   7.266  12.043   9.420
63467SOL     OW92239   2.833   6.933   9.368
63467SOL    HW192240   2.904   6.884   9.412
63467SOL    HW292241   2.777   6.865   9.331
63468SOL     OW92242   2.376  14.626   6.537
63468SOL    HW192243   2.433  14.597   6.465
63468SOL    HW292244   2.298  14.657   6.493
63469SOL     OW92245   2.084   5.575  12.362
63469SOL    HW192246   2.035   5.511  12.413
63469SOL    HW292247   2.022   5.607  12.297
63470SOL     OW92248  12.532   9.217   6.036
63470SOL    HW192249  12.578   9.271   5.972
63470SOL    HW292250  12.453   9.267   6.058
63471SOL     OW92251  11.456   9.000   5.801
63471SOL    HW192252  11.483   9.089   5.823
63471SOL    HW292253  11.474   8.949   5.879
63472SOL     OW92254   1.227   9.905   6.111
63472SOL    HW192255   1.318   9.931   6.129
63472SOL    HW292256   1.229   9.870   6.022
63473SOL     OW92257   0.418  10.950  13.818
63473SOL    HW192258   0.481  10.881  13.839
63473SOL    HW292259   0.402  10.994  13.901
63474SOL     OW92260  13.719   2.428  11.497
63474SOL    HW192261  13.699   2.460  11.409
63474SOL    HW292262  13.799   2.378  11.487
63475SOL     OW92263  14.133   9.519   8.302
63475SOL    HW192264  14.046   9.524   8.341
63475SOL    HW292265  14.191   9.502   8.376
63476SOL     OW92266   7.989   4.710   4.189
63476SOL    HW192267   8.010   4.799   4.216
63476SOL    HW292268   8.074   4.667   4.179
63477SOL     OW92269   3.043   9.365  13.311
63477SOL    HW192270   3.005   9.327  13.232
63477SOL    HW292271   3.095   9.294  13.349
63478SOL     OW92272  12.252   4.682  11.054
63478SOL    HW192273  12.211   4.606  11.095
63478SOL    HW292274  12.337   4.649  11.023
63479SOL     OW92275   3.419   9.529   7.406
63479SOL    HW192276   3.463   9.570   7.332
63479SOL    HW292277   3.390   9.603   7.460
63480SOL     OW92278   1.555   9.394  11.294
63480SOL    HW192279   1.582   9.358  11.210
63480SOL    HW292280   1.624   9.368  11.355
63481SOL     OW92281   4.463   6.885   4.199
63481SOL    HW192282   4.389   6.831   4.225
63481SOL    HW292283   4.452   6.896   4.104
63482SOL     OW92284   9.810   6.719   6.577
63482SOL    HW192285   9.819   6.631   6.541
63482SOL    HW292286   9.722   6.720   6.616
63483SOL     OW92287   9.042   4.643  12.664
63483SOL    HW192288   9.053   4.678  12.576
63483SOL    HW292289   9.110   4.687  12.716
63484SOL     OW92290   4.607  14.456  12.173
63484SOL    HW192291   4.691  14.415  12.190
63484SOL    HW292292   4.582  14.426  12.086
63485SOL     OW92293  10.547  11.562   2.700
63485SOL    HW192294  10.591  11.518   2.627
63485SOL    HW292295  10.615  11.572   2.767
63486SOL     OW92296   4.261   8.747  10.042
63486SOL    HW192297   4.180   8.782  10.080
63486SOL    HW292298   4.285   8.674  10.099
63487SOL     OW92299   8.547   9.939   4.713
63487SOL    HW192300   8.462   9.957   4.753
63487SOL    HW292301   8.526   9.901   4.628
63488SOL     OW92302  10.879   5.991   2.961
63488SOL    HW192303  10.963   6.032   2.983
63488SOL    HW292304  10.901   5.924   2.897
63489SOL     OW92305   9.987   0.717  11.509
63489SOL    HW192306  10.042   0.769  11.567
63489SOL    HW292307  10.007   0.748  11.421
63490SOL     OW92308   5.600   2.902   4.093
63490SOL    HW192309   5.660   2.832   4.067
63490SOL    HW292310   5.655   2.980   4.097
63491SOL     OW92311  14.568  14.571   3.118
63491SOL    HW192312  14.527  14.504   3.173
63491SOL    HW292313  14.575  14.648   3.175
63492SOL     OW92314  11.143  12.011   2.079
63492SOL    HW192315  11.069  11.951   2.073
63492SOL    HW292316  11.200  11.986   2.007
63493SOL     OW92317  10.978   2.965   9.107
63493SOL    HW192318  11.044   3.026   9.142
63493SOL    HW292319  10.930   2.935   9.184
63494SOL     OW92320  12.123   6.551   7.373
63494SOL    HW192321  12.085   6.505   7.448
63494SOL    HW292322  12.143   6.482   7.310
63495SOL     OW92323   7.221  11.972   7.381
63495SOL    HW192324   7.290  11.916   7.417
63495SOL    HW292325   7.268  12.046   7.343
63496SOL     OW92326  10.215   1.338   0.720
63496SOL    HW192327  10.151   1.269   0.738
63496SOL    HW292328  10.180   1.415   0.766
63497SOL     OW92329   5.750   5.604   1.697
63497SOL    HW192330   5.675   5.628   1.642
63497SOL    HW292331   5.791   5.531   1.651
63498SOL     OW92332   1.962   9.318   4.097
63498SOL    HW192333   1.908   9.341   4.172
63498SOL    HW292334   1.932   9.231   4.071
63499SOL     OW92335   2.816  10.719   2.208
63499SOL    HW192336   2.792  10.639   2.162
63499SOL    HW292337   2.756  10.786   2.173
63500SOL     OW92338   0.350   8.265   3.182
63500SOL    HW192339   0.373   8.173   3.191
63500SOL    HW292340   0.293   8.284   3.256
63501SOL     OW92341  14.584   3.858   0.071
63501SOL    HW192342  14.539   3.892   0.148
63501SOL    HW292343  14.581   3.931   0.008
63502SOL     OW92344  14.823   9.202   5.246
63502SOL    HW192345  14.761   9.274   5.234
63502SOL    HW292346   0.022   9.231   5.198
63503SOL     OW92347   8.840   7.631  14.664
63503SOL    HW192348   8.778   7.654  14.595
63503SOL    HW292349   8.919   7.603  14.617
63504SOL     OW92350   5.908   0.170  13.602
63504SOL    HW192351   5.867   0.248  13.638
63504SOL    HW292352   5.936   0.120  13.679
63505SOL     OW92353  13.377   3.112   0.987
63505SOL    HW192354  13.284   3.129   0.998
63505SOL    HW292355  13.419   3.160   1.059
63506SOL     OW92356   6.973   0.952  12.087
63506SOL    HW192357   6.899   0.892  12.094
63506SOL    HW292358   6.933   1.039  12.088
63507SOL     OW92359   7.433   2.213   0.963
63507SOL    HW192360   7.355   2.204   1.017
63507SOL    HW292361   7.504   2.179   1.017
63508SOL     OW92362   3.719   7.103   7.204
63508SOL    HW192363   3.814   7.103   7.197
63508SOL    HW292364   3.701   7.151   7.285
63509SOL     OW92365  13.157   1.332  14.200
63509SOL    HW192366  13.233   1.375  14.161
63509SOL    HW292367  13.165   1.349  14.294
63510SOL     OW92368   1.132  13.690   1.060
63510SOL    HW192369   1.109  13.670   1.150
63510SOL    HW292370   1.216  13.736   1.066
63511SOL     OW92371   0.390   2.170   1.033
63511SOL    HW192372   0.301   2.180   1.066
63511SOL    HW292373   0.426   2.096   1.082
63512SOL     OW92374   6.198   8.123  13.835
63512SOL    HW192375   6.146   8.104  13.757
63512SOL    HW292376   6.288   8.131  13.803
63513SOL     OW92377  13.794  12.500   9.033
63513SOL    HW192378  13.713  12.529   8.991
63513SOL    HW292379  13.842  12.455   8.964
63514SOL     OW92380  13.050  14.308   6.634
63514SOL    HW192381  12.972  14.364   6.635
63514SOL    HW292382  13.023  14.229   6.681
63515SOL     OW92383   5.183   9.796  14.314
63515SOL    HW192384   5.248   9.788  14.383
63515SOL    HW292385   5.213   9.869  14.260
63516SOL     OW92386  13.110   8.663   0.981
63516SOL    HW192387  13.099   8.730   0.914
63516SOL    HW292388  13.038   8.677   1.042
63517SOL     OW92389   8.542  13.314  12.626
63517SOL    HW192390   8.495  13.372  12.567
63517SOL    HW292391   8.618  13.284  12.576
63518SOL     OW92392   1.220  11.061  13.446
63518SOL    HW192393   1.210  10.971  13.475
63518SOL    HW292394   1.315  11.075  13.441
63519SOL     OW92395   1.154   3.312  14.556
63519SOL    HW192396   1.099   3.383  14.524
63519SOL    HW292397   1.203   3.350  14.629
63520SOL     OW92398   4.510   1.779  13.896
63520SOL    HW192399   4.473   1.822  13.819
63520SOL    HW292400   4.436   1.733  13.935
63521SOL     OW92401  14.696   3.981   6.536
63521SOL    HW192402  14.699   3.963   6.630
63521SOL    HW292403  14.733   3.903   6.495
63522SOL     OW92404   2.275  12.193   7.719
63522SOL    HW192405   2.224  12.197   7.800
63522SOL    HW292406   2.305  12.284   7.706
63523SOL     OW92407   7.491  10.191  13.015
63523SOL    HW192408   7.542  10.111  13.026
63523SOL    HW292409   7.413  10.177  13.070
63524SOL     OW92410   1.257   7.234   1.422
63524SOL    HW192411   1.307   7.291   1.364
63524SOL    HW292412   1.218   7.168   1.364
63525SOL     OW92413  11.771   2.696   7.487
63525SOL    HW192414  11.713   2.674   7.561
63525SOL    HW292415  11.791   2.789   7.500
63526SOL     OW92416  14.821  12.828  12.850
63526SOL    HW192417  14.779  12.884  12.785
63526SOL    HW292418  14.779  12.850  12.933
63527SOL     OW92419   7.066   2.167   3.663
63527SOL    HW192420   6.978   2.193   3.689
63527SOL    HW292421   7.054   2.084   3.617
63528SOL     OW92422   6.498  12.225   3.917
63528SOL    HW192423   6.455  12.310   3.907
63528SOL    HW292424   6.571  12.242   3.976
63529SOL     OW92425  10.132  11.469   3.627
63529SOL    HW192426  10.212  11.433   3.589
63529SOL    HW292427  10.064  11.404   3.606
63530SOL     OW92428   5.869   9.869   9.615
63530SOL    HW192429   5.783   9.907   9.628
63530SOL    HW292430   5.925   9.913   9.678
63531SOL     OW92431   1.276   6.146   4.605
63531SOL    HW192432   1.209   6.088   4.639
63531SOL    HW292433   1.357   6.094   4.609
63532SOL     OW92434   2.211  10.329   2.802
63532SOL    HW192435   2.245  10.361   2.718
63532SOL    HW292436   2.117  10.347   2.798
63533SOL     OW92437  14.409  12.721  11.333
63533SOL    HW192438  14.378  12.640  11.292
63533SOL    HW292439  14.430  12.696  11.423
63534SOL     OW92440   3.108   4.434  13.047
63534SOL    HW192441   3.138   4.394  12.966
63534SOL    HW292442   3.037   4.377  13.077
63535SOL     OW92443   6.648   5.439  12.004
63535SOL    HW192444   6.614   5.464  12.089
63535SOL    HW292445   6.709   5.368  12.022
63536SOL     OW92446   4.194   1.919  14.328
63536SOL    HW192447   4.272   1.974  14.332
63536SOL    HW292448   4.202   1.873  14.244
63537SOL     OW92449   1.977   4.777  10.579
63537SOL    HW192450   2.018   4.788  10.493
63537SOL    HW292451   1.930   4.694  10.573
63538SOL     OW92452   5.639   3.603   2.810
63538SOL    HW192453   5.598   3.658   2.877
63538SOL    HW292454   5.617   3.514   2.836
63539SOL     OW92455   2.996   0.650   1.111
63539SOL    HW192456   2.993   0.645   1.015
63539SOL    HW292457   2.906   0.634   1.138
63540SOL     OW92458   0.306   1.540  10.293
63540SOL    HW192459   0.274   1.554  10.203
63540SOL    HW292460   0.393   1.503  10.282
63541SOL     OW92461  11.036  10.247   6.165
63541SOL    HW192462  10.990  10.168   6.193
63541SOL    HW292463  11.050  10.296   6.246
63542SOL     OW92464   9.621   8.615   7.102
63542SOL    HW192465   9.534   8.656   7.102
63542SOL    HW292466   9.621   8.560   7.180
63543SOL     OW92467   6.191   5.643  11.644
63543SOL    HW192468   6.234   5.580  11.701
63543SOL    HW292469   6.124   5.684  11.699
63544SOL     OW92470   9.177   5.454  12.641
63544SOL    HW192471   9.120   5.427  12.713
63544SOL    HW292472   9.153   5.397  12.568
63545SOL     OW92473  14.758   4.182  13.527
63545SOL    HW192474  14.760   4.246  13.598
63545SOL    HW292475  14.748   4.098  13.572
63546SOL     OW92476   9.450  11.921   5.868
63546SOL    HW192477   9.493  11.942   5.951
63546SOL    HW292478   9.390  11.850   5.889
63547SOL     OW92479   9.965   3.821   0.756
63547SOL    HW192480   9.995   3.742   0.801
63547SOL    HW292481   9.989   3.892   0.815
63548SOL     OW92482  11.224   1.549   8.806
63548SOL    HW192483  11.215   1.606   8.729
63548SOL    HW292484  11.310   1.508   8.795
63549SOL     OW92485  12.114   2.917   9.717
63549SOL    HW192486  12.069   2.862   9.780
63549SOL    HW292487  12.071   2.898   9.633
63550SOL     OW92488   2.927   3.139   8.865
63550SOL    HW192489   3.015   3.132   8.901
63550SOL    HW292490   2.881   3.063   8.900
63551SOL     OW92491   5.908  10.776  12.925
63551SOL    HW192492   5.889  10.820  13.007
63551SOL    HW292493   5.832  10.794  12.870
63552SOL     OW92494   5.815   9.412  14.868
63552SOL    HW192495   5.886   9.372   0.038
63552SOL    HW292496   5.737   9.363   0.013
63553SOL     OW92497   0.108   8.397  11.742
63553SOL    HW192498   0.029   8.449  11.758
63553SOL    HW292499   0.166   8.417  11.815
63554SOL     OW92500   6.221   4.056  10.854
63554SOL    HW192501   6.183   4.034  10.769
63554SOL    HW292502   6.315   4.045  10.842
63555SOL     OW92503  10.889   7.793  11.287
63555SOL    HW192504  10.844   7.724  11.338
63555SOL    HW292505  10.837   7.801  11.207
63556SOL     OW92506  12.522  13.968   5.256
63556SOL    HW192507  12.569  14.050   5.268
63556SOL    HW292508  12.581  13.900   5.290
63557SOL     OW92509   5.552   9.094  11.231
63557SOL    HW192510   5.461   9.109  11.258
63557SOL    HW292511   5.547   9.088  11.135
63558SOL     OW92512   7.398   8.713  14.305
63558SOL    HW192513   7.431   8.627  14.277
63558SOL    HW292514   7.319   8.726  14.252
63559SOL     OW92515   6.612  13.018  10.890
63559SOL    HW192516   6.634  12.925  10.878
63559SOL    HW292517   6.681  13.053  10.946
63560SOL     OW92518   0.654   5.439   3.398
63560SOL    HW192519   0.593   5.447   3.471
63560SOL    HW292520   0.717   5.372   3.426
63561SOL     OW92521   4.541   1.776   1.723
63561SOL    HW192522   4.551   1.836   1.649
63561SOL    HW292523   4.627   1.773   1.764
63562SOL     OW92524   9.026   5.138   6.465
63562SOL    HW192525   8.977   5.199   6.520
63562SOL    HW292526   9.002   5.162   6.375
63563SOL     OW92527   7.372   4.331  13.935
63563SOL    HW192528   7.317   4.283  13.997
63563SOL    HW292529   7.385   4.269  13.863
63564SOL     OW92530   4.156  13.961  11.892
63564SOL    HW192531   4.118  13.932  11.809
63564SOL    HW292532   4.241  13.916  11.897
63565SOL     OW92533  13.572   6.537  11.455
63565SOL    HW192534  13.640   6.605  11.454
63565SOL    HW292535  13.584   6.493  11.538
63566SOL     OW92536   3.878  11.828  11.684
63566SOL    HW192537   3.854  11.915  11.716
63566SOL    HW292538   3.974  11.827  11.691
63567SOL     OW92539  12.394  13.540   9.602
63567SOL    HW192540  12.313  13.587   9.580
63567SOL    HW292541  12.423  13.502   9.520
63568SOL     OW92542   4.568   5.339  10.386
63568SOL    HW192543   4.662   5.321  10.381
63568SOL    HW292544   4.526   5.253  10.379
63569SOL     OW92545  11.928   3.524   5.831
63569SOL    HW192546  11.971   3.576   5.764
63569SOL    HW292547  11.859   3.582   5.865
63570SOL     OW92548  14.443   7.411   9.430
63570SOL    HW192549  14.424   7.358   9.352
63570SOL    HW292550  14.361   7.454   9.451
63571SOL     OW92551   7.555   2.299   8.117
63571SOL    HW192552   7.598   2.228   8.069
63571SOL    HW292553   7.475   2.316   8.068
63572SOL     OW92554   4.022   3.797   8.996
63572SOL    HW192555   4.039   3.716   9.044
63572SOL    HW292556   4.056   3.866   9.053
63573SOL     OW92557   5.646  13.820   4.866
63573SOL    HW192558   5.691  13.762   4.805
63573SOL    HW292559   5.560  13.780   4.878
63574SOL     OW92560   1.779   1.915   8.884
63574SOL    HW192561   1.715   1.916   8.955
63574SOL    HW292562   1.849   1.972   8.915
63575SOL     OW92563   4.394   6.384   0.630
63575SOL    HW192564   4.408   6.337   0.713
63575SOL    HW292565   4.361   6.470   0.656
63576SOL     OW92566  11.270   7.712   8.456
63576SOL    HW192567  11.332   7.762   8.402
63576SOL    HW292568  11.244   7.638   8.400
63577SOL     OW92569   1.737   4.761   3.205
63577SOL    HW192570   1.755   4.804   3.121
63577SOL    HW292571   1.800   4.799   3.266
63578SOL     OW92572  10.000   1.661  10.931
63578SOL    HW192573  10.048   1.605  10.992
63578SOL    HW292574  10.043   1.647  10.847
63579SOL     OW92575   4.879   6.468  13.266
63579SOL    HW192576   4.934   6.470  13.188
63579SOL    HW292577   4.921   6.528  13.328
63580SOL     OW92578  11.626   1.863   4.029
63580SOL    HW192579  11.629   1.781   3.980
63580SOL    HW292580  11.680   1.846   4.106
63581SOL     OW92581   0.928   3.216   7.442
63581SOL    HW192582   0.917   3.300   7.398
63581SOL    HW292583   0.968   3.238   7.526
63582SOL     OW92584   7.431  14.379   9.725
63582SOL    HW192585   7.439  14.363   9.819
63582SOL    HW292586   7.400  14.469   9.718
63583SOL     OW92587   6.749   7.343   3.072
63583SOL    HW192588   6.835   7.327   3.033
63583SOL    HW292589   6.699   7.265   3.050
63584SOL     OW92590   5.122  13.542   5.203
63584SOL    HW192591   5.056  13.501   5.147
63584SOL    HW292592   5.205  13.528   5.157
63585SOL     OW92593   8.644   0.099  13.648
63585SOL    HW192594   8.601   0.068  13.728
63585SOL    HW292595   8.733   0.122  13.675
63586SOL     OW92596   4.489   9.610   7.195
63586SOL    HW192597   4.458   9.694   7.229
63586SOL    HW292598   4.513   9.628   7.104
63587SOL     OW92599  13.647   5.336   6.217
63587SOL    HW192600  13.602   5.309   6.136
63587SOL    HW292601  13.693   5.416   6.193
63588SOL     OW92602   7.240   6.575   8.354
63588SOL    HW192603   7.268   6.659   8.318
63588SOL    HW292604   7.318   6.541   8.398
63589SOL     OW92605  10.306  12.423   0.050
63589SOL    HW192606  10.267  12.366   0.117
63589SOL    HW292607  10.382  12.463   0.094
63590SOL     OW92608   0.937   9.273   4.240
63590SOL    HW192609   1.020   9.261   4.286
63590SOL    HW292610   0.879   9.311   4.305
63591SOL     OW92611   7.884  11.212   0.050
63591SOL    HW192612   7.898  11.302   0.079
63591SOL    HW292613   7.837  11.220  14.847
63592SOL     OW92614   9.778  11.312  10.316
63592SOL    HW192615   9.872  11.311  10.336
63592SOL    HW292616   9.744  11.233  10.359
63593SOL     OW92617   4.419  10.001   1.237
63593SOL    HW192618   4.388  10.075   1.185
63593SOL    HW292619   4.430  10.037   1.325
63594SOL     OW92620   5.826   6.597   4.882
63594SOL    HW192621   5.740   6.555   4.886
63594SOL    HW292622   5.856   6.600   4.972
63595SOL     OW92623   6.551   7.099   3.266
63595SOL    HW192624   6.589   7.088   3.178
63595SOL    HW292625   6.458   7.114   3.250
63596SOL     OW92626  13.802  14.867   5.597
63596SOL    HW192627  13.892  14.845   5.572
63596SOL    HW292628  13.762   0.018   5.516
63597SOL     OW92629   2.291  11.965   5.733
63597SOL    HW192630   2.384  11.966   5.711
63597SOL    HW292631   2.259  11.880   5.702
63598SOL     OW92632  14.776   4.107   6.836
63598SOL    HW192633  14.869   4.086   6.836
63598SOL    HW292634  14.771   4.195   6.799
63599SOL     OW92635  10.952   1.241  10.158
63599SOL    HW192636  10.986   1.209  10.242
63599SOL    HW292637  11.028   1.242  10.100
63600SOL     OW92638  14.203   6.220   3.771
63600SOL    HW192639  14.137   6.174   3.824
63600SOL    HW292640  14.279   6.227   3.828
63601SOL     OW92641   7.249   2.339   3.787
63601SOL    HW192642   7.185   2.279   3.748
63601SOL    HW292643   7.202   2.422   3.794
63602SOL     OW92644  13.437  14.710  14.396
63602SOL    HW192645  13.477  14.770  14.459
63602SOL    HW292646  13.505  14.696  14.330
63603SOL     OW92647  12.628   9.640   6.603
63603SOL    HW192648  12.711   9.681   6.579
63603SOL    HW292649  12.593   9.697   6.672
63604SOL     OW92650   4.521  12.329   9.494
63604SOL    HW192651   4.551  12.254   9.443
63604SOL    HW292652   4.594  12.391   9.491
63605SOL     OW92653   8.100  11.053   2.901
63605SOL    HW192654   8.158  11.074   2.827
63605SOL    HW292655   8.020  11.101   2.883
63606SOL     OW92656   5.018   9.765   6.081
63606SOL    HW192657   5.011   9.688   6.025
63606SOL    HW292658   4.944   9.819   6.057
63607SOL     OW92659   2.233   6.635  13.024
63607SOL    HW192660   2.161   6.600  13.077
63607SOL    HW292661   2.294   6.563  13.014
63608SOL     OW92662  11.605   2.899   2.624
63608SOL    HW192663  11.593   2.912   2.529
63608SOL    HW292664  11.644   2.981   2.654
63609SOL     OW92665  10.264   6.591   2.883
63609SOL    HW192666  10.232   6.540   2.958
63609SOL    HW292667  10.260   6.682   2.913
63610SOL     OW92668   4.776   5.979   4.673
63610SOL    HW192669   4.783   5.990   4.768
63610SOL    HW292670   4.700   6.031   4.648
63611SOL     OW92671  11.161  10.175  14.184
63611SOL    HW192672  11.252  10.168  14.212
63611SOL    HW292673  11.138  10.086  14.156
63612SOL     OW92674   5.370   9.030  14.296
63612SOL    HW192675   5.288   8.994  14.262
63612SOL    HW292676   5.418   8.955  14.329
63613SOL     OW92677   1.963   1.318   1.327
63613SOL    HW192678   2.049   1.342   1.362
63613SOL    HW292679   1.901   1.362   1.385
63614SOL     OW92680   6.260   2.586   4.063
63614SOL    HW192681   6.346   2.619   4.087
63614SOL    HW292682   6.267   2.491   4.073
63615SOL     OW92683  11.911   9.234   6.926
63615SOL    HW192684  12.000   9.201   6.943
63615SOL    HW292685  11.872   9.243   7.013
63616SOL     OW92686   2.299   4.283  10.290
63616SOL    HW192687   2.287   4.198  10.248
63616SOL    HW292688   2.217   4.330  10.273
63617SOL     OW92689  11.119   5.436  12.171
63617SOL    HW192690  11.128   5.484  12.089
63617SOL    HW292691  11.030   5.400  12.168
63618SOL     OW92692  12.073  12.860   8.653
63618SOL    HW192693  12.045  12.853   8.562
63618SOL    HW292694  12.107  12.948   8.662
63619SOL     OW92695   6.855  12.656   9.919
63619SOL    HW192696   6.837  12.747   9.896
63619SOL    HW292697   6.949  12.645   9.905
63620SOL     OW92698  14.810   0.346   1.542
63620SOL    HW192699  14.796   0.402   1.466
63620SOL    HW292700  14.861   0.400   1.603
63621SOL     OW92701   6.928   0.610  11.562
63621SOL    HW192702   6.987   0.685  11.573
63621SOL    HW292703   6.986   0.537  11.538
63622SOL     OW92704   9.655   3.737   2.140
63622SOL    HW192705   9.592   3.682   2.186
63622SOL    HW292706   9.620   3.826   2.147
63623SOL     OW92707  11.138   1.817  13.506
63623SOL    HW192708  11.215   1.869  13.532
63623SOL    HW292709  11.079   1.824  13.581
63624SOL     OW92710   7.021  11.178   0.385
63624SOL    HW192711   6.950  11.225   0.341
63624SOL    HW292712   6.977  11.113   0.440
63625SOL     OW92713   6.919   6.306   2.547
63625SOL    HW192714   7.004   6.322   2.587
63625SOL    HW292715   6.935   6.311   2.453
63626SOL     OW92716   6.564  11.676  14.159
63626SOL    HW192717   6.589  11.660  14.068
63626SOL    HW292718   6.587  11.594  14.204
63627SOL     OW92719   8.371   7.533   0.621
63627SOL    HW192720   8.431   7.605   0.601
63627SOL    HW292721   8.418   7.454   0.594
63628SOL     OW92722   9.699  10.065  11.138
63628SOL    HW192723   9.614  10.030  11.167
63628SOL    HW292724   9.697  10.055  11.042
63629SOL     OW92725   9.043   3.960   1.336
63629SOL    HW192726   9.006   3.890   1.282
63629SOL    HW292727   8.994   4.038   1.311
63630SOL     OW92728   0.191   8.658   7.511
63630SOL    HW192729   0.209   8.564   7.511
63630SOL    HW292730   0.275   8.699   7.494
63631SOL     OW92731   9.688   8.190   3.320
63631SOL    HW192732   9.651   8.212   3.406
63631SOL    HW292733   9.763   8.249   3.311
63632SOL     OW92734   9.325   8.888   1.293
63632SOL    HW192735   9.383   8.963   1.309
63632SOL    HW292736   9.308   8.852   1.380
63633SOL     OW92737  12.960  10.675  11.506
63633SOL    HW192738  13.025  10.726  11.459
63633SOL    HW292739  12.946  10.597  11.452
63634SOL     OW92740   5.129   2.422   8.838
63634SOL    HW192741   5.156   2.455   8.752
63634SOL    HW292742   5.034   2.428   8.838
63635SOL     OW92743   3.133   4.518   2.492
63635SOL    HW192744   3.063   4.565   2.537
63635SOL    HW292745   3.182   4.587   2.446
63636SOL     OW92746   8.804   8.167  13.337
63636SOL    HW192747   8.764   8.156  13.251
63636SOL    HW292748   8.806   8.079  13.375
63637SOL     OW92749   0.120  12.690   7.485
63637SOL    HW192750   0.082  12.761   7.536
63637SOL    HW292751   0.213  12.693   7.505
63638SOL     OW92752  10.631   1.234   0.238
63638SOL    HW192753  10.643   1.164   0.303
63638SOL    HW292754  10.545   1.270   0.257
63639SOL     OW92755   8.766   6.912   0.572
63639SOL    HW192756   8.851   6.869   0.570
63639SOL    HW292757   8.704   6.841   0.588
63640SOL     OW92758   2.979   0.605   0.846
63640SOL    HW192759   2.951   0.613   0.755
63640SOL    HW292760   2.927   0.532   0.881
63641SOL     OW92761   6.401   8.686   6.041
63641SOL    HW192762   6.415   8.605   5.991
63641SOL    HW292763   6.371   8.656   6.127
63642SOL     OW92764   3.421  10.121   5.248
63642SOL    HW192765   3.474  10.060   5.300
63642SOL    HW292766   3.485  10.182   5.211
63643SOL     OW92767  13.686  12.919   1.062
63643SOL    HW192768  13.674  13.013   1.073
63643SOL    HW292769  13.691  12.885   1.152
63644SOL     OW92770  13.654   8.199   9.971
63644SOL    HW192771  13.742   8.186  10.006
63644SOL    HW292772  13.652   8.292   9.945
63645SOL     OW92773   4.782   3.391   8.001
63645SOL    HW192774   4.756   3.376   8.091
63645SOL    HW292775   4.708   3.438   7.962
63646SOL     OW92776   6.686   6.657   2.082
63646SOL    HW192777   6.715   6.579   2.034
63646SOL    HW292778   6.592   6.644   2.095
63647SOL     OW92779   0.135  13.145  12.123
63647SOL    HW192780   0.135  13.227  12.073
63647SOL    HW292781   0.064  13.094  12.085
63648SOL     OW92782   1.114  13.570  10.465
63648SOL    HW192783   1.080  13.525  10.388
63648SOL    HW292784   1.209  13.568  10.454
63649SOL     OW92785   4.057   1.992   6.586
63649SOL    HW192786   4.029   1.912   6.632
63649SOL    HW292787   4.051   2.061   6.652
63650SOL     OW92788   3.415   0.556   6.081
63650SOL    HW192789   3.385   0.647   6.085
63650SOL    HW292790   3.334   0.504   6.084
63651SOL     OW92791  14.615   9.246   4.687
63651SOL    HW192792  14.577   9.314   4.741
63651SOL    HW292793  14.541   9.188   4.666
63652SOL     OW92794   6.797   2.199   5.170
63652SOL    HW192795   6.852   2.169   5.242
63652SOL    HW292796   6.792   2.124   5.111
63653SOL     OW92797   8.002   0.214   2.145
63653SOL    HW192798   7.916   0.208   2.105
63653SOL    HW292799   8.057   0.257   2.079
63654SOL     OW92800   5.869   4.270  11.114
63654SOL    HW192801   5.953   4.286  11.158
63654SOL    HW292802   5.893   4.250  11.023
63655SOL     OW92803   0.990   2.565  13.938
63655SOL    HW192804   1.001   2.574  14.032
63655SOL    HW292805   1.074   2.533  13.907
63656SOL     OW92806   6.165   6.370  13.687
63656SOL    HW192807   6.157   6.464  13.697
63656SOL    HW292808   6.251   6.357  13.647
63657SOL     OW92809  12.313   8.522   3.334
63657SOL    HW192810  12.378   8.585   3.302
63657SOL    HW292811  12.322   8.525   3.429
63658SOL     OW92812  11.132   9.810  12.966
63658SOL    HW192813  11.135   9.887  12.910
63658SOL    HW292814  11.128   9.736  12.905
63659SOL     OW92815   7.244   3.353   2.940
63659SOL    HW192816   7.249   3.270   2.988
63659SOL    HW292817   7.271   3.331   2.851
63660SOL     OW92818  10.990  10.208  13.005
63660SOL    HW192819  10.970  10.184  12.914
63660SOL    HW292820  11.040  10.133  13.038
63661SOL     OW92821  13.495   6.683   5.043
63661SOL    HW192822  13.551   6.702   4.968
63661SOL    HW292823  13.408   6.716   5.018
63662SOL     OW92824   9.876   1.161  14.001
63662SOL    HW192825   9.848   1.191  14.088
63662SOL    HW292826   9.878   1.241  13.948
63663SOL     OW92827   5.220   1.075   2.157
63663SOL    HW192828   5.141   1.113   2.194
63663SOL    HW292829   5.268   1.148   2.119
63664SOL     OW92830   9.942   4.759   2.473
63664SOL    HW192831   9.859   4.715   2.495
63664SOL    HW292832  10.008   4.690   2.479
63665SOL     OW92833   4.125   7.215   9.671
63665SOL    HW192834   4.040   7.198   9.711
63665SOL    HW292835   4.139   7.309   9.684
63666SOL     OW92836   0.718   0.080   1.359
63666SOL    HW192837   0.766   0.090   1.441
63666SOL    HW292838   0.784   0.049   1.297
63667SOL     OW92839  13.568   8.473   6.799
63667SOL    HW192840  13.557   8.529   6.723
63667SOL    HW292841  13.481   8.437   6.816
63668SOL     OW92842   4.266  11.153   7.736
63668SOL    HW192843   4.228  11.065   7.741
63668SOL    HW292844   4.359  11.139   7.723
63669SOL     OW92845   8.976   7.712   4.423
63669SOL    HW192846   8.922   7.745   4.495
63669SOL    HW292847   9.062   7.699   4.461
63670SOL     OW92848  14.462  13.125  11.147
63670SOL    HW192849  14.387  13.107  11.091
63670SOL    HW292850  14.447  13.071  11.225
63671SOL     OW92851  12.082   2.276   5.227
63671SOL    HW192852  12.117   2.226   5.301
63671SOL    HW292853  12.004   2.319   5.262
63672SOL     OW92854   0.745   2.539  12.782
63672SOL    HW192855   0.818   2.491  12.822
63672SOL    HW292856   0.696   2.473  12.735
63673SOL     OW92857   2.572   6.328   5.760
63673SOL    HW192858   2.515   6.375   5.699
63673SOL    HW292859   2.639   6.289   5.704
63674SOL     OW92860  13.486   4.830   5.863
63674SOL    HW192861  13.453   4.767   5.799
63674SOL    HW292862  13.426   4.822   5.938
63675SOL     OW92863   9.278  12.000   3.022
63675SOL    HW192864   9.353  11.942   3.006
63675SOL    HW292865   9.235  11.964   3.099
63676SOL     OW92866  14.619  11.963  14.549
63676SOL    HW192867  14.603  11.880  14.593
63676SOL    HW292868  14.619  11.941  14.456
63677SOL     OW92869  12.381   9.750  13.126
63677SOL    HW192870  12.407   9.670  13.081
63677SOL    HW292871  12.404   9.820  13.066
63678SOL     OW92872  13.651   1.865  12.238
63678SOL    HW192873  13.718   1.859  12.171
63678SOL    HW292874  13.669   1.947  12.284
63679SOL     OW92875  12.243   6.736   8.078
63679SOL    HW192876  12.297   6.699   8.008
63679SOL    HW292877  12.211   6.660   8.127
63680SOL     OW92878   1.659  13.299   0.954
63680SOL    HW192879   1.739  13.257   0.986
63680SOL    HW292880   1.632  13.246   0.879
63681SOL     OW92881  11.057   6.857  14.025
63681SOL    HW192882  11.027   6.788  14.084
63681SOL    HW292883  11.016   6.836  13.941
63682SOL     OW92884   9.647   9.471   7.399
63682SOL    HW192885   9.581   9.540   7.390
63682SOL    HW292886   9.651   9.430   7.313
63683SOL     OW92887   2.434   4.527   0.992
63683SOL    HW192888   2.389   4.471   1.055
63683SOL    HW292889   2.364   4.578   0.952
63684SOL     OW92890  10.646   3.532   1.418
63684SOL    HW192891  10.667   3.600   1.354
63684SOL    HW292892  10.611   3.580   1.493
63685SOL     OW92893  12.994   4.212  14.065
63685SOL    HW192894  13.037   4.233  13.982
63685SOL    HW292895  12.901   4.217  14.046
63686SOL     OW92896   2.334  11.816   6.247
63686SOL    HW192897   2.263  11.767   6.206
63686SOL    HW292898   2.358  11.883   6.183
63687SOL     OW92899   5.439   9.587  10.837
63687SOL    HW192900   5.392   9.638  10.771
63687SOL    HW292901   5.520   9.560  10.794
63688SOL     OW92902   6.230   5.202  11.028
63688SOL    HW192903   6.262   5.285  10.994
63688SOL    HW292904   6.181   5.225  11.107
63689SOL     OW92905   3.975   6.026   0.317
63689SOL    HW192906   3.880   6.025   0.306
63689SOL    HW292907   4.004   5.942   0.281
63690SOL     OW92908   2.601  14.286   2.875
63690SOL    HW192909   2.609  14.279   2.970
63690SOL    HW292910   2.566  14.202   2.847
63691SOL     OW92911   5.224  13.789   0.268
63691SOL    HW192912   5.247  13.853   0.201
63691SOL    HW292913   5.303  13.737   0.280
63692SOL     OW92914  13.901  13.184   1.152
63692SOL    HW192915  13.865  13.166   1.239
63692SOL    HW292916  13.962  13.112   1.136
63693SOL     OW92917  13.276  14.640  13.116
63693SOL    HW192918  13.302  14.718  13.067
63693SOL    HW292919  13.223  14.674  13.188
63694SOL     OW92920   3.662   4.001  13.382
63694SOL    HW192921   3.612   4.022  13.303
63694SOL    HW292922   3.705   3.918  13.363
63695SOL     OW92923   4.080   0.329   4.640
63695SOL    HW192924   4.041   0.344   4.726
63695SOL    HW292925   4.006   0.330   4.580
63696SOL     OW92926   1.904   5.502   6.604
63696SOL    HW192927   1.852   5.573   6.566
63696SOL    HW292928   1.872   5.423   6.562
63697SOL     OW92929  14.058   0.277   7.809
63697SOL    HW192930  14.102   0.332   7.744
63697SOL    HW292931  14.102   0.193   7.805
63698SOL     OW92932   8.312  12.488   3.407
63698SOL    HW192933   8.308  12.582   3.424
63698SOL    HW292934   8.343  12.449   3.489
63699SOL     OW92935   4.465   4.346   2.452
63699SOL    HW192936   4.545   4.293   2.453
63699SOL    HW292937   4.404   4.297   2.398
63700SOL     OW92938   9.603   7.151  10.375
63700SOL    HW192939   9.686   7.117  10.343
63700SOL    HW292940   9.623   7.240  10.405
63701SOL     OW92941  14.695  14.311   9.097
63701SOL    HW192942  14.608  14.329   9.133
63701SOL    HW292943  14.756  14.342   9.164
63702SOL     OW92944   0.921  13.975   9.123
63702SOL    HW192945   1.015  13.988   9.132
63702SOL    HW292946   0.898  14.020   9.042
63703SOL     OW92947  14.560  11.272   4.774
63703SOL    HW192948  14.501  11.199   4.756
63703SOL    HW292949  14.515  11.323   4.842
63704SOL     OW92950   3.918   4.707   5.217
63704SOL    HW192951   3.985   4.641   5.199
63704SOL    HW292952   3.902   4.748   5.132
63705SOL     OW92953   4.674   9.565   9.763
63705SOL    HW192954   4.636   9.490   9.808
63705SOL    HW292955   4.612   9.636   9.777
63706SOL     OW92956  11.409   6.472   1.415
63706SOL    HW192957  11.433   6.565   1.421
63706SOL    HW292958  11.447   6.443   1.332
63707SOL     OW92959   9.895  12.863   5.265
63707SOL    HW192960   9.979  12.836   5.227
63707SOL    HW292961   9.852  12.781   5.289
63708SOL     OW92962   2.964  12.415  11.891
63708SOL    HW192963   2.961  12.333  11.940
63708SOL    HW292964   2.894  12.468  11.929
63709SOL     OW92965   3.509   8.161   1.147
63709SOL    HW192966   3.502   8.198   1.235
63709SOL    HW292967   3.419   8.141   1.122
63710SOL     OW92968   4.023   4.045   9.649
63710SOL    HW192969   4.105   4.043   9.599
63710SOL    HW292970   3.961   3.995   9.595
63711SOL     OW92971  11.800   0.300   1.337
63711SOL    HW192972  11.737   0.259   1.396
63711SOL    HW292973  11.883   0.298   1.384
63712SOL     OW92974   5.199   9.230  12.688
63712SOL    HW192975   5.260   9.193  12.751
63712SOL    HW292976   5.154   9.154  12.650
63713SOL     OW92977   1.521   6.163   8.092
63713SOL    HW192978   1.437   6.208   8.099
63713SOL    HW292979   1.530   6.144   7.999
63714SOL     OW92980  11.809  13.825  13.204
63714SOL    HW192981  11.781  13.804  13.293
63714SOL    HW292982  11.772  13.912  13.187
63715SOL     OW92983   2.023   2.080   2.776
63715SOL    HW192984   2.010   1.988   2.799
63715SOL    HW292985   2.050   2.077   2.684
63716SOL     OW92986   4.782   0.815  14.194
63716SOL    HW192987   4.814   0.868  14.267
63716SOL    HW292988   4.849   0.825  14.127
63717SOL     OW92989   9.443   5.767   9.543
63717SOL    HW192990   9.524   5.755   9.494
63717SOL    HW292991   9.468   5.755   9.634
63718SOL     OW92992   2.726   6.199  12.449
63718SOL    HW192993   2.769   6.251  12.518
63718SOL    HW292994   2.792   6.135  12.422
63719SOL     OW92995   3.317  12.528   9.702
63719SOL    HW192996   3.307  12.448   9.651
63719SOL    HW292997   3.233  12.573   9.695
63720SOL     OW92998  10.457   4.055   3.405
63720SOL    HW192999  10.534   4.028   3.355
63720SOL    HW293000  10.486   4.131   3.455
63721SOL     OW93001  12.741  12.179  10.362
63721SOL    HW193002  12.806  12.167  10.294
63721SOL    HW293003  12.657  12.159  10.320
63722SOL     OW93004   0.743   7.474  12.066
63722SOL    HW193005   0.663   7.426  12.046
63722SOL    HW293006   0.721   7.529  12.141
63723SOL     OW93007   2.176   4.778  12.435
63723SOL    HW193008   2.126   4.855  12.462
63723SOL    HW293009   2.125   4.704  12.469
63724SOL     OW93010   2.117  10.813   5.629
63724SOL    HW193011   2.090  10.761   5.553
63724SOL    HW293012   2.140  10.899   5.593
63725SOL     OW93013   0.076   7.262  13.986
63725SOL    HW193014  14.871   7.223  14.008
63725SOL    HW293015   0.120   7.271  14.070
63726SOL     OW93016   6.285   3.651  13.556
63726SOL    HW193017   6.321   3.733  13.588
63726SOL    HW293018   6.245   3.610  13.634
63727SOL     OW93019   9.362   1.773  10.410
63727SOL    HW193020   9.358   1.867  10.389
63727SOL    HW293021   9.391   1.732  10.329
63728SOL     OW93022  10.627   6.650  13.030
63728SOL    HW193023  10.705   6.659  12.975
63728SOL    HW293024  10.649   6.581  13.093
63729SOL     OW93025   7.115  12.398  14.558
63729SOL    HW193026   7.194  12.453  14.558
63729SOL    HW293027   7.147  12.311  14.535
63730SOL     OW93028  11.907   3.094   3.901
63730SOL    HW193029  11.963   3.122   3.828
63730SOL    HW293030  11.818   3.102   3.866
63731SOL     OW93031  10.653   2.598  12.812
63731SOL    HW193032  10.654   2.505  12.835
63731SOL    HW293033  10.570   2.630  12.847
63732SOL     OW93034   2.065   7.542   4.615
63732SOL    HW193035   2.152   7.540   4.574
63732SOL    HW293036   2.077   7.592   4.696
63733SOL     OW93037   8.754   8.667   7.833
63733SOL    HW193038   8.762   8.763   7.834
63733SOL    HW293039   8.842   8.636   7.853
63734SOL     OW93040  10.846   5.546   0.715
63734SOL    HW193041  10.816   5.557   0.805
63734SOL    HW293042  10.930   5.593   0.711
63735SOL     OW93043   9.018  11.840  13.494
63735SOL    HW193044   9.035  11.746  13.495
63735SOL    HW293045   8.982  11.857  13.407
63736SOL     OW93046   0.821  13.688   3.058
63736SOL    HW193047   0.842  13.637   2.980
63736SOL    HW293048   0.905  13.696   3.104
63737SOL     OW93049  12.567   3.615   0.374
63737SOL    HW193050  12.628   3.593   0.304
63737SOL    HW293051  12.620   3.657   0.441
63738SOL     OW93052   4.316   3.978   9.733
63738SOL    HW193053   4.333   3.892   9.771
63738SOL    HW293054   4.304   4.036   9.808
63739SOL     OW93055   7.152   0.188   5.582
63739SOL    HW193056   7.103   0.131   5.522
63739SOL    HW293057   7.230   0.213   5.533
63740SOL     OW93058   1.358  13.859   1.157
63740SOL    HW193059   1.334  13.876   1.248
63740SOL    HW293060   1.322  13.933   1.109
63741SOL     OW93061  12.207   3.575   1.916
63741SOL    HW193062  12.192   3.652   1.971
63741SOL    HW293063  12.160   3.594   1.835
63742SOL     OW93064  12.822   0.664   0.406
63742SOL    HW193065  12.818   0.686   0.499
63742SOL    HW293066  12.911   0.634   0.391
63743SOL     OW93067   6.089   8.639  11.435
63743SOL    HW193068   6.034   8.710  11.466
63743SOL    HW293069   6.078   8.570  11.500
63744SOL     OW93070  10.577   5.608   4.961
63744SOL    HW193071  10.532   5.602   4.877
63744SOL    HW293072  10.670   5.601   4.940
63745SOL     OW93073   6.415   7.433   8.724
63745SOL    HW193074   6.489   7.411   8.782
63745SOL    HW293075   6.398   7.526   8.742
63746SOL     OW93076   1.361   6.066   5.365
63746SOL    HW193077   1.453   6.050   5.386
63746SOL    HW293078   1.313   6.006   5.422
63747SOL     OW93079  11.534   0.738  12.904
63747SOL    HW193080  11.609   0.722  12.962
63747SOL    HW293081  11.573   0.752  12.818
63748SOL     OW93082  12.163  12.714  14.436
63748SOL    HW193083  12.253  12.715  14.406
63748SOL    HW293084  12.122  12.641  14.388
63749SOL     OW93085   0.537  11.987   3.251
63749SOL    HW193086   0.575  11.931   3.318
63749SOL    HW293087   0.531  12.073   3.291
63750SOL     OW93088   8.875   7.140   4.062
63750SOL    HW193089   8.874   7.231   4.033
63750SOL    HW293090   8.808   7.136   4.130
63751SOL     OW93091  10.050   5.502   3.967
63751SOL    HW193092   9.995   5.492   3.890
63751SOL    HW293093  10.019   5.581   4.010
63752SOL     OW93094  14.626   6.728   2.266
63752SOL    HW193095  14.637   6.699   2.175
63752SOL    HW293096  14.669   6.660   2.318
63753SOL     OW93097  10.202   7.477   6.726
63753SOL    HW193098  10.152   7.396   6.730
63753SOL    HW293099  10.137   7.544   6.701
63754SOL     OW93100  11.085   6.956   5.136
63754SOL    HW193101  11.148   6.978   5.068
63754SOL    HW293102  11.000   6.960   5.093
63755SOL     OW93103  11.224   7.917  11.671
63755SOL    HW193104  11.181   7.839  11.635
63755SOL    HW293105  11.152   7.967  11.710
63756SOL     OW93106  13.821   7.943   6.871
63756SOL    HW193107  13.731   7.970   6.850
63756SOL    HW293108  13.839   7.983   6.955
63757SOL     OW93109  12.256   0.438   3.450
63757SOL    HW193110  12.329   0.460   3.393
63757SOL    HW293111  12.258   0.503   3.520
63758SOL     OW93112   5.920  12.196   7.639
63758SOL    HW193113   5.942  12.253   7.713
63758SOL    HW293114   5.861  12.130   7.675
63759SOL     OW93115   7.369   4.081   7.992
63759SOL    HW193116   7.307   4.152   8.008
63759SOL    HW293117   7.455   4.120   8.004
63760SOL     OW93118  14.442   6.479   8.611
63760SOL    HW193119  14.352   6.466   8.641
63760SOL    HW293120  14.434   6.496   8.517
63761SOL     OW93121   6.733  13.622   5.022
63761SOL    HW193122   6.767  13.576   4.945
63761SOL    HW293123   6.760  13.713   5.009
63762SOL     OW93124   4.211   4.322   7.103
63762SOL    HW193125   4.166   4.280   7.177
63762SOL    HW293126   4.302   4.296   7.113
63763SOL     OW93127   3.730   8.114   0.605
63763SOL    HW193128   3.798   8.175   0.577
63763SOL    HW293129   3.777   8.043   0.649
63764SOL     OW93130   3.313   9.600  13.122
63764SOL    HW193131   3.347   9.557  13.201
63764SOL    HW293132   3.344   9.544  13.051
63765SOL     OW93133   0.873  14.074   8.826
63765SOL    HW193134   0.828  14.015   8.766
63765SOL    HW293135   0.806  14.137   8.853
63766SOL     OW93136  12.227   0.868  11.362
63766SOL    HW193137  12.253   0.782  11.330
63766SOL    HW293138  12.132   0.864  11.369
63767SOL     OW93139   5.790   4.806   6.936
63767SOL    HW193140   5.764   4.716   6.915
63767SOL    HW293141   5.810   4.845   6.851
63768SOL     OW93142  14.694   2.487  12.921
63768SOL    HW193143  14.750   2.538  12.862
63768SOL    HW293144  14.662   2.415  12.868
63769SOL     OW93145  11.039  13.571   4.981
63769SOL    HW193146  11.017  13.617   4.901
63769SOL    HW293147  11.107  13.625   5.022
63770SOL     OW93148   7.365   1.445  12.969
63770SOL    HW193149   7.396   1.504  12.900
63770SOL    HW293150   7.271   1.458  12.973
63771SOL     OW93151  12.495  10.723   4.905
63771SOL    HW193152  12.591  10.729   4.911
63771SOL    HW293153  12.474  10.767   4.822
63772SOL     OW93154   9.340   6.488  14.025
63772SOL    HW193155   9.366   6.485  13.933
63772SOL    HW293156   9.422   6.503  14.072
63773SOL     OW93157  13.812   3.620   1.189
63773SOL    HW193158  13.872   3.563   1.141
63773SOL    HW293159  13.829   3.708   1.154
63774SOL     OW93160  12.887   2.437  12.243
63774SOL    HW193161  12.839   2.390  12.311
63774SOL    HW293162  12.863   2.528  12.255
63775SOL     OW93163   2.942  12.738  12.117
63775SOL    HW193164   2.933  12.644  12.134
63775SOL    HW293165   3.032  12.748  12.089
63776SOL     OW93166   4.354   9.021  11.916
63776SOL    HW193167   4.427   9.014  11.977
63776SOL    HW293168   4.276   9.017  11.971
63777SOL     OW93169   0.659   1.962   5.662
63777SOL    HW193170   0.576   1.990   5.700
63777SOL    HW293171   0.724   2.020   5.702
63778SOL     OW93172   9.562   4.283  14.551
63778SOL    HW193173   9.617   4.206  14.560
63778SOL    HW293174   9.481   4.260  14.596
63779SOL     OW93175   9.713   7.587   7.614
63779SOL    HW193176   9.643   7.559   7.674
63779SOL    HW293177   9.703   7.531   7.538
63780SOL     OW93178   2.182   9.843   2.202
63780SOL    HW193179   2.177   9.810   2.112
63780SOL    HW293180   2.193   9.937   2.193
63781SOL     OW93181   7.274   3.847   0.575
63781SOL    HW193182   7.257   3.901   0.652
63781SOL    HW293183   7.211   3.774   0.583
63782SOL     OW93184   9.400  11.165  13.926
63782SOL    HW193185   9.362  11.229  13.986
63782SOL    HW293186   9.366  11.188  13.840
63783SOL     OW93187  13.194   3.885   0.375
63783SOL    HW193188  13.150   3.804   0.348
63783SOL    HW293189  13.137   3.955   0.343
63784SOL     OW93190  10.352   3.883  12.476
63784SOL    HW193191  10.296   3.807  12.461
63784SOL    HW293192  10.354   3.893  12.571
63785SOL     OW93193  14.248   0.037  12.298
63785SOL    HW193194  14.260   0.046  12.204
63785SOL    HW293195  14.182  14.848  12.307
63786SOL     OW93196  13.740  11.572  12.451
63786SOL    HW193197  13.652  11.608  12.447
63786SOL    HW293198  13.787  11.631  12.510
63787SOL     OW93199   2.645  14.504   8.987
63787SOL    HW193200   2.709  14.568   9.020
63787SOL    HW293201   2.560  14.546   9.003
63788SOL     OW93202   3.763   8.450  14.506
63788SOL    HW193203   3.735   8.446  14.598
63788SOL    HW293204   3.858   8.453  14.510
63789SOL     OW93205   5.198   9.149   0.446
63789SOL    HW193206   5.246   9.072   0.475
63789SOL    HW293207   5.109   9.118   0.431
63790SOL     OW93208  11.612   0.099   4.095
63790SOL    HW193209  11.582   0.008   4.090
63790SOL    HW293210  11.704   0.092   4.118
63791SOL     OW93211   6.168   4.378   3.818
63791SOL    HW193212   6.110   4.425   3.878
63791SOL    HW293213   6.123   4.295   3.802
63792SOL     OW93214   1.687   2.375   6.551
63792SOL    HW193215   1.605   2.378   6.599
63792SOL    HW293216   1.681   2.446   6.487
63793SOL     OW93217  11.656   4.857   1.204
63793SOL    HW193218  11.701   4.776   1.227
63793SOL    HW293219  11.565   4.832   1.188
63794SOL     OW93220   3.908  12.489   1.114
63794SOL    HW193221   3.845  12.557   1.091
63794SOL    HW293222   3.957  12.525   1.188
63795SOL     OW93223  10.881   5.011   1.549
63795SOL    HW193224  10.951   5.039   1.609
63795SOL    HW293225  10.906   5.048   1.465
63796SOL     OW93226   5.028  13.659   9.390
63796SOL    HW193227   5.098  13.619   9.339
63796SOL    HW293228   4.973  13.585   9.417
63797SOL     OW93229  11.255   6.625   7.393
63797SOL    HW193230  11.250   6.713   7.356
63797SOL    HW293231  11.174   6.614   7.442
63798SOL     OW93232   9.151   5.903   3.588
63798SOL    HW193233   9.073   5.901   3.644
63798SOL    HW293234   9.184   5.813   3.590
63799SOL     OW93235  11.437   2.431   6.405
63799SOL    HW193236  11.353   2.457   6.442
63799SOL    HW293237  11.423   2.431   6.311
63800SOL     OW93238   5.197  11.795   7.501
63800SOL    HW193239   5.131  11.762   7.562
63800SOL    HW293240   5.183  11.889   7.498
63801SOL     OW93241   1.501   4.436   8.574
63801SOL    HW193242   1.556   4.359   8.585
63801SOL    HW293243   1.559   4.510   8.589
63802SOL     OW93244   7.727   4.020   3.198
63802SOL    HW193245   7.783   4.095   3.217
63802SOL    HW293246   7.725   3.970   3.280
63803SOL     OW93247   5.239  13.489   8.696
63803SOL    HW193248   5.272  13.416   8.747
63803SOL    HW293249   5.182  13.449   8.630
63804SOL     OW93250  11.932   2.700   8.993
63804SOL    HW193251  11.871   2.737   8.929
63804SOL    HW293252  11.919   2.606   8.988
63805SOL     OW93253  10.662   8.710  14.024
63805SOL    HW193254  10.665   8.798  13.984
63805SOL    HW293255  10.745   8.703  14.071
63806SOL     OW93256  12.303  10.652   6.846
63806SOL    HW193257  12.229  10.703   6.812
63806SOL    HW293258  12.280  10.561   6.826
63807SOL     OW93259   3.800   8.280  14.061
63807SOL    HW193260   3.760   8.360  14.028
63807SOL    HW293261   3.745   8.255  14.136
63808SOL     OW93262   0.928  13.910   2.460
63808SOL    HW193263   0.890  13.986   2.504
63808SOL    HW293264   0.909  13.923   2.367
63809SOL     OW93265  14.547  12.683   5.856
63809SOL    HW193266  14.554  12.657   5.948
63809SOL    HW293267  14.599  12.763   5.849
63810SOL     OW93268  10.653  13.411   5.912
63810SOL    HW193269  10.671  13.389   6.003
63810SOL    HW293270  10.595  13.487   5.917
63811SOL     OW93271   4.873   5.284   9.532
63811SOL    HW193272   4.961   5.249   9.545
63811SOL    HW293273   4.865   5.296   9.438
63812SOL     OW93274  10.484   9.898  11.821
63812SOL    HW193275  10.528   9.979  11.798
63812SOL    HW293276  10.510   9.882  11.912
63813SOL     OW93277   2.617   7.289   8.154
63813SOL    HW193278   2.602   7.375   8.114
63813SOL    HW293279   2.646   7.309   8.243
63814SOL     OW93280   8.028   5.214   6.948
63814SOL    HW193281   8.058   5.268   7.021
63814SOL    HW293282   8.099   5.216   6.885
63815SOL     OW93283  13.585   4.961   1.076
63815SOL    HW193284  13.571   4.934   0.986
63815SOL    HW293285  13.624   5.048   1.070
63816SOL     OW93286   8.669   9.973   0.903
63816SOL    HW193287   8.723   9.894   0.891
63816SOL    HW293288   8.733  10.044   0.908
63817SOL     OW93289   8.273   6.495   6.018
63817SOL    HW193290   8.210   6.565   6.001
63817SOL    HW293291   8.338   6.536   6.075
63818SOL     OW93292   1.435   2.480   8.763
63818SOL    HW193293   1.440   2.392   8.802
63818SOL    HW293294   1.510   2.527   8.799
63819SOL     OW93295  11.478  10.855   5.253
63819SOL    HW193296  11.537  10.930   5.262
63819SOL    HW293297  11.523  10.784   5.299
63820SOL     OW93298  10.059  10.288   9.971
63820SOL    HW193299  10.126  10.240   9.921
63820SOL    HW293300  10.020  10.348   9.907
63821SOL     OW93301   2.991   3.119   1.805
63821SOL    HW193302   2.925   3.091   1.868
63821SOL    HW293303   2.955   3.199   1.766
63822SOL     OW93304   6.493   7.499   1.278
63822SOL    HW193305   6.578   7.462   1.303
63822SOL    HW293306   6.493   7.587   1.315
63823SOL     OW93307   5.456  10.034   4.863
63823SOL    HW193308   5.480  10.042   4.955
63823SOL    HW293309   5.510  10.099   4.819
63824SOL     OW93310   4.196   9.652   8.049
63824SOL    HW193311   4.149   9.586   7.998
63824SOL    HW293312   4.267   9.680   7.991
63825SOL     OW93313   4.782   5.076  13.810
63825SOL    HW193314   4.863   5.125  13.798
63825SOL    HW293315   4.726   5.103  13.737
63826SOL     OW93316   6.761   0.133  12.611
63826SOL    HW193317   6.732   0.043  12.596
63826SOL    HW293318   6.763   0.142  12.706
63827SOL     OW93319  11.266   2.567   9.577
63827SOL    HW193320  11.322   2.631   9.621
63827SOL    HW293321  11.302   2.560   9.489
63828SOL     OW93322   8.370   3.297   9.004
63828SOL    HW193323   8.318   3.281   8.926
63828SOL    HW293324   8.394   3.390   8.999
63829SOL     OW93325   4.872   2.307   8.856
63829SOL    HW193326   4.805   2.310   8.924
63829SOL    HW293327   4.879   2.214   8.833
63830SOL     OW93328   8.650  11.410   2.108
63830SOL    HW193329   8.709  11.485   2.110
63830SOL    HW293330   8.575  11.440   2.057
63831SOL     OW93331   9.720   0.594   0.312
63831SOL    HW193332   9.720   0.622   0.220
63831SOL    HW293333   9.678   0.508   0.311
63832SOL     OW93334  12.193   0.276   7.423
63832SOL    HW193335  12.125   0.209   7.420
63832SOL    HW293336  12.257   0.249   7.358
63833SOL     OW93337  13.842   6.589  14.717
63833SOL    HW193338  13.859   6.567  14.625
63833SOL    HW293339  13.814   6.507  14.756
63834SOL     OW93340   5.627   5.151   7.151
63834SOL    HW193341   5.722   5.143   7.147
63834SOL    HW293342   5.597   5.065   7.181
63835SOL     OW93343  12.628   0.287  14.101
63835SOL    HW193344  12.656   0.246  14.019
63835SOL    HW293345  12.674   0.370  14.104
63836SOL     OW93346  11.268  10.278  10.987
63836SOL    HW193347  11.204  10.207  10.988
63836SOL    HW293348  11.233  10.342  10.925
63837SOL     OW93349   2.047   0.674   5.017
63837SOL    HW193350   2.133   0.640   4.991
63837SOL    HW293351   2.024   0.736   4.947
63838SOL     OW93352   4.716   4.054   1.206
63838SOL    HW193353   4.638   4.025   1.253
63838SOL    HW293354   4.789   4.033   1.265
63839SOL     OW93355   5.473   7.994   7.190
63839SOL    HW193356   5.396   7.939   7.176
63839SOL    HW293357   5.439   8.074   7.229
63840SOL     OW93358   0.193  14.868   9.083
63840SOL    HW193359   0.129   0.019   9.147
63840SOL    HW293360   0.195  14.773   9.094
63841SOL     OW93361  14.712  13.617   0.575
63841SOL    HW193362  14.703  13.620   0.670
63841SOL    HW293363  14.622  13.606   0.543
63842SOL     OW93364   5.746   9.444  10.066
63842SOL    HW193365   5.791   9.498  10.131
63842SOL    HW293366   5.706   9.507  10.006
63843SOL     OW93367   3.662   0.994   5.400
63843SOL    HW193368   3.748   1.016   5.436
63843SOL    HW293369   3.630   1.077   5.365
63844SOL     OW93370  13.961   3.114  11.288
63844SOL    HW193371  13.901   3.058  11.336
63844SOL    HW293372  13.913   3.141  11.210
63845SOL     OW93373   4.907   8.268   5.864
63845SOL    HW193374   4.923   8.327   5.938
63845SOL    HW293375   4.874   8.188   5.904
63846SOL     OW93376   8.674   9.330   3.769
63846SOL    HW193377   8.730   9.302   3.841
63846SOL    HW293378   8.659   9.423   3.785
63847SOL     OW93379  10.252  13.416   0.339
63847SOL    HW193380  10.170  13.440   0.383
63847SOL    HW293381  10.273  13.491   0.284
63848SOL     OW93382   0.812   2.827  14.066
63848SOL    HW193383   0.787   2.884  14.138
63848SOL    HW293384   0.897   2.860  14.036
63849SOL     OW93385   6.242   4.467   8.625
63849SOL    HW193386   6.237   4.450   8.719
63849SOL    HW293387   6.154   4.494   8.600
63850SOL     OW93388  13.936   4.300   8.874
63850SOL    HW193389  13.994   4.330   8.805
63850SOL    HW293390  13.983   4.320   8.955
63851SOL     OW93391  13.390   7.912   0.710
63851SOL    HW193392  13.464   7.854   0.696
63851SOL    HW293393  13.319   7.873   0.658
63852SOL     OW93394   0.791  11.842   9.024
63852SOL    HW193395   0.696  11.859   9.025
63852SOL    HW293396   0.817  11.847   9.116
63853SOL     OW93397   7.278   6.058  13.163
63853SOL    HW193398   7.352   6.040  13.221
63853SOL    HW293399   7.261   6.151  13.174
63854SOL     OW93400   1.607   1.240  14.255
63854SOL    HW193401   1.649   1.208  14.335
63854SOL    HW293402   1.647   1.325  14.238
63855SOL     OW93403   1.978   0.443   9.376
63855SOL    HW193404   1.965   0.348   9.387
63855SOL    HW293405   1.894   0.482   9.401
63856SOL     OW93406   3.621   5.205   3.937
63856SOL    HW193407   3.595   5.189   3.846
63856SOL    HW293408   3.716   5.197   3.937
63857SOL     OW93409   2.674   2.012   7.100
63857SOL    HW193410   2.583   2.031   7.127
63857SOL    HW293411   2.716   1.980   7.180
63858SOL     OW93412  12.589   9.465   9.450
63858SOL    HW193413  12.604   9.479   9.356
63858SOL    HW293414  12.514   9.405   9.453
63859SOL     OW93415  10.298  13.041  13.983
63859SOL    HW193416  10.382  13.086  13.983
63859SOL    HW293417  10.302  12.982  13.908
63860SOL     OW93418  12.525   0.925   7.370
63860SOL    HW193419  12.543   1.003   7.423
63860SOL    HW293420  12.453   0.952   7.312
63861SOL     OW93421   2.722   5.466   6.181
63861SOL    HW193422   2.665   5.394   6.156
63861SOL    HW293423   2.805   5.424   6.205
63862SOL     OW93424   3.816   5.858   6.715
63862SOL    HW193425   3.743   5.897   6.763
63862SOL    HW293426   3.887   5.854   6.779
63863SOL     OW93427   6.424   3.246  12.970
63863SOL    HW193428   6.462   3.296  13.043
63863SOL    HW293429   6.495   3.240  12.906
63864SOL     OW93430  11.438   7.447   3.458
63864SOL    HW193431  11.448   7.482   3.547
63864SOL    HW293432  11.410   7.356   3.471
63865SOL     OW93433   1.057  10.297   7.436
63865SOL    HW193434   1.024  10.278   7.348
63865SOL    HW293435   0.979  10.316   7.488
63866SOL     OW93436   1.552  12.351  14.295
63866SOL    HW193437   1.466  12.336  14.334
63866SOL    HW293438   1.611  12.292  14.342
63867SOL     OW93439   9.544  11.277   6.120
63867SOL    HW193440   9.504  11.323   6.046
63867SOL    HW293441   9.579  11.196   6.082
63868SOL     OW93442   0.070   5.648   8.235
63868SOL    HW193443   0.008   5.598   8.288
63868SOL    HW293444   0.082   5.730   8.282
63869SOL     OW93445   6.628  14.091   3.177
63869SOL    HW193446   6.604  14.024   3.114
63869SOL    HW293447   6.579  14.068   3.256
63870SOL     OW93448  13.833   9.230   7.496
63870SOL    HW193449  13.922   9.203   7.520
63870SOL    HW293450  13.844   9.282   7.417
63871SOL     OW93451   5.202   0.862   8.052
63871SOL    HW193452   5.155   0.782   8.028
63871SOL    HW293453   5.189   0.871   8.146
63872SOL     OW93454  11.214   9.745   5.684
63872SOL    HW193455  11.193   9.777   5.597
63872SOL    HW293456  11.130   9.743   5.730
63873SOL     OW93457   5.838   5.092  13.571
63873SOL    HW193458   5.871   5.104  13.660
63873SOL    HW293459   5.832   5.181  13.536
63874SOL     OW93460   4.740  10.432   0.809
63874SOL    HW193461   4.752  10.369   0.881
63874SOL    HW293462   4.685  10.501   0.846
63875SOL     OW93463   4.823   9.815   7.513
63875SOL    HW193464   4.887   9.885   7.512
63875SOL    HW293465   4.789   9.812   7.423
63876SOL     OW93466   0.488   8.396  11.461
63876SOL    HW193467   0.538   8.455  11.405
63876SOL    HW293468   0.413   8.447  11.490
63877SOL     OW93469  11.243   1.590  11.871
63877SOL    HW193470  11.198   1.601  11.954
63877SOL    HW293471  11.331   1.625  11.887
63878SOL     OW93472   5.613  14.581  11.336
63878SOL    HW193473   5.695  14.537  11.356
63878SOL    HW293474   5.637  14.649  11.274
63879SOL     OW93475   8.799   5.821   4.041
63879SOL    HW193476   8.849   5.791   3.965
63879SOL    HW293477   8.859   5.879   4.088
63880SOL     OW93478  14.768  14.699  14.684
63880SOL    HW193479  14.712  14.668  14.613
63880SOL    HW293480  14.853  14.657  14.667
63881SOL     OW93481  10.152   1.760  11.876
63881SOL    HW193482  10.199   1.807  11.945
63881SOL    HW293483  10.136   1.826  11.809
63882SOL     OW93484  13.964  12.921   7.292
63882SOL    HW193485  14.038  12.975   7.319
63882SOL    HW293486  13.908  12.981   7.243
63883SOL     OW93487  14.388  11.705  11.433
63883SOL    HW193488  14.465  11.726  11.486
63883SOL    HW293489  14.406  11.744  11.348
63884SOL     OW93490  14.456   5.918   2.847
63884SOL    HW193491  14.412   6.002   2.835
63884SOL    HW293492  14.489   5.896   2.760
63885SOL     OW93493   9.884   0.318   3.418
63885SOL    HW193494   9.939   0.396   3.425
63885SOL    HW293495   9.846   0.324   3.330
63886SOL     OW93496   5.497   8.730   4.355
63886SOL    HW193497   5.487   8.820   4.324
63886SOL    HW293498   5.442   8.725   4.433
63887SOL     OW93499   9.822   2.137  13.764
63887SOL    HW193500   9.873   2.060  13.740
63887SOL    HW293501   9.815   2.132  13.860
63888SOL     OW93502  10.625   4.806   0.091
63888SOL    HW193503  10.535   4.812   0.057
63888SOL    HW293504  10.667   4.741   0.035
63889SOL     OW93505  11.621   9.835   1.077
63889SOL    HW193506  11.547   9.775   1.080
63889SOL    HW293507  11.631   9.865   1.167
63890SOL     OW93508   6.328   7.616   6.394
63890SOL    HW193509   6.290   7.548   6.338
63890SOL    HW293510   6.374   7.674   6.333
63891SOL     OW93511   0.292  11.481  13.248
63891SOL    HW193512   0.370  11.433  13.218
63891SOL    HW293513   0.229  11.471  13.178
63892SOL     OW93514   7.474   1.389  10.479
63892SOL    HW193515   7.490   1.325  10.410
63892SOL    HW293516   7.554   1.443  10.482
63893SOL     OW93517   9.001   7.683   7.018
63893SOL    HW193518   8.910   7.668   6.995
63893SOL    HW293519   9.050   7.665   6.938
63894SOL     OW93520  12.600   8.123  13.671
63894SOL    HW193521  12.538   8.053  13.650
63894SOL    HW293522  12.647   8.091  13.748
63895SOL     OW93523   8.864  14.807   6.252
63895SOL    HW193524   8.825  14.820   6.165
63895SOL    HW293525   8.876  14.712   6.258
63896SOL     OW93526   7.200   1.054   7.982
63896SOL    HW193527   7.234   0.983   8.036
63896SOL    HW293528   7.171   1.012   7.901
63897SOL     OW93529   3.602   0.885   7.516
63897SOL    HW193530   3.572   0.806   7.561
63897SOL    HW293531   3.613   0.949   7.586
63898SOL     OW93532  10.768   9.383  12.215
63898SOL    HW193533  10.723   9.377  12.299
63898SOL    HW293534  10.859   9.401  12.238
63899SOL     OW93535   6.799   5.713  13.025
63899SOL    HW193536   6.871   5.767  13.056
63899SOL    HW293537   6.820   5.695  12.933
63900SOL     OW93538  12.599  11.424  11.673
63900SOL    HW193539  12.588  11.329  11.680
63900SOL    HW293540  12.637  11.450  11.756
63901SOL     OW93541  11.644   1.932   9.088
63901SOL    HW193542  11.619   1.927   9.180
63901SOL    HW293543  11.605   1.854   9.048
63902SOL     OW93544  10.546   8.250   8.008
63902SOL    HW193545  10.597   8.195   7.947
63902SOL    HW293546  10.455   8.226   7.991
63903SOL     OW93547   8.977  11.957   0.348
63903SOL    HW193548   9.015  12.025   0.293
63903SOL    HW293549   9.048  11.893   0.358
63904SOL     OW93550   7.312  14.373  14.630
63904SOL    HW193551   7.347  14.302  14.684
63904SOL    HW293552   7.339  14.351  14.541
63905SOL     OW93553  14.007   2.558   7.990
63905SOL    HW193554  14.053   2.519   7.916
63905SOL    HW293555  14.006   2.652   7.971
63906SOL     OW93556   3.479  10.350  13.328
63906SOL    HW193557   3.419  10.425  13.324
63906SOL    HW293558   3.516  10.345  13.240
63907SOL     OW93559  10.776   6.677   3.939
63907SOL    HW193560  10.863   6.639   3.934
63907SOL    HW293561  10.724   6.612   3.986
63908SOL     OW93562  14.409   2.653   6.106
63908SOL    HW193563  14.340   2.708   6.143
63908SOL    HW293564  14.448   2.608   6.181
63909SOL     OW93565  14.768  13.733   6.902
63909SOL    HW193566  14.859  13.757   6.883
63909SOL    HW293567  14.735  13.805   6.954
63910SOL     OW93568   6.538   3.661   2.444
63910SOL    HW193569   6.480   3.718   2.394
63910SOL    HW293570   6.599   3.720   2.487
63911SOL     OW93571  11.001   3.445   1.385
63911SOL    HW193572  10.908   3.423   1.384
63911SOL    HW293573  11.045   3.362   1.406
63912SOL     OW93574   4.759  13.622   4.914
63912SOL    HW193575   4.744  13.553   4.849
63912SOL    HW293576   4.808  13.689   4.867
63913SOL     OW93577   0.169   1.345  12.471
63913SOL    HW193578   0.256   1.305  12.476
63913SOL    HW293579   0.112   1.273  12.444
63914SOL     OW93580   5.579   4.123  13.877
63914SOL    HW193581   5.498   4.171  13.890
63914SOL    HW293582   5.621   4.167  13.803
63915SOL     OW93583   0.972   0.881  13.262
63915SOL    HW193584   0.929   0.802  13.231
63915SOL    HW293585   0.921   0.953  13.226
63916SOL     OW93586  13.710   8.956  11.315
63916SOL    HW193587  13.637   8.897  11.298
63916SOL    HW293588  13.787   8.899  11.316
63917SOL     OW93589   7.763  10.199  11.561
63917SOL    HW193590   7.702  10.161  11.625
63917SOL    HW293591   7.793  10.125  11.509
63918SOL     OW93592  10.193  10.980   3.368
63918SOL    HW193593  10.194  10.916   3.440
63918SOL    HW293594  10.105  11.018   3.371
63919SOL     OW93595   9.098   7.033  13.800
63919SOL    HW193596   9.171   7.063  13.747
63919SOL    HW293597   9.136   6.968  13.859
63920SOL     OW93598   1.737   6.678   5.014
63920SOL    HW193599   1.752   6.711   5.103
63920SOL    HW293600   1.731   6.756   4.960
63921SOL     OW93601   1.110  10.318   1.873
63921SOL    HW193602   1.107  10.322   1.968
63921SOL    HW293603   1.050  10.388   1.844
63922SOL     OW93604  14.630  11.323  13.507
63922SOL    HW193605  14.629  11.319  13.411
63922SOL    HW293606  14.594  11.409  13.528
63923SOL     OW93607  11.888   4.843  13.260
63923SOL    HW193608  11.891   4.811  13.350
63923SOL    HW293609  11.939   4.924  13.261
63924SOL     OW93610   5.114   0.725   1.180
63924SOL    HW193611   5.079   0.806   1.144
63924SOL    HW293612   5.058   0.706   1.255
63925SOL     OW93613   3.757   0.165   1.914
63925SOL    HW193614   3.713   0.097   1.862
63925SOL    HW293615   3.843   0.127   1.934
63926SOL     OW93616   9.928   3.608  13.493
63926SOL    HW193617  10.013   3.648  13.472
63926SOL    HW293618   9.950   3.519  13.521
63927SOL     OW93619  12.032  11.892   7.782
63927SOL    HW193620  11.986  11.817   7.745
63927SOL    HW293621  12.123  11.879   7.755
63928SOL     OW93622  12.880   2.140   6.190
63928SOL    HW193623  12.800   2.190   6.174
63928SOL    HW293624  12.889   2.139   6.285
63929SOL     OW93625  11.363  10.528   1.656
63929SOL    HW193626  11.400  10.593   1.596
63929SOL    HW293627  11.282  10.500   1.613
63930SOL     OW93628   5.636  13.760  12.004
63930SOL    HW193629   5.693  13.726  12.074
63930SOL    HW293630   5.695  13.771  11.929
63931SOL     OW93631   6.148  14.234  11.552
63931SOL    HW193632   6.054  14.227  11.534
63931SOL    HW293633   6.186  14.158  11.508
63932SOL     OW93634  13.370  10.169   7.863
63932SOL    HW193635  13.330  10.134   7.943
63932SOL    HW293636  13.407  10.092   7.820
63933SOL     OW93637   1.333   8.723   8.692
63933SOL    HW193638   1.296   8.810   8.674
63933SOL    HW293639   1.365   8.692   8.608
63934SOL     OW93640   4.956   2.054   0.692
63934SOL    HW193641   4.927   2.079   0.605
63934SOL    HW293642   4.933   1.961   0.700
63935SOL     OW93643  10.943   5.690   9.270
63935SOL    HW193644  10.938   5.639   9.351
63935SOL    HW293645  10.970   5.777   9.297
63936SOL     OW93646   9.790  12.856   0.557
63936SOL    HW193647   9.776  12.932   0.500
63936SOL    HW293648   9.712  12.801   0.542
63937SOL     OW93649  14.331  11.371   6.696
63937SOL    HW193650  14.392  11.444   6.707
63937SOL    HW293651  14.298  11.354   6.784
63938SOL     OW93652   8.430   2.942   3.829
63938SOL    HW193653   8.392   2.956   3.916
63938SOL    HW293654   8.513   2.899   3.846
63939SOL     OW93655  12.155   4.762  11.284
63939SOL    HW193656  12.248   4.771  11.305
63939SOL    HW293657  12.153   4.754  11.189
63940SOL     OW93658   1.394  10.455   7.218
63940SOL    HW193659   1.411  10.366   7.185
63940SOL    HW293660   1.471  10.505   7.191
63941SOL     OW93661   3.476   8.064   7.616
63941SOL    HW193662   3.504   7.983   7.573
63941SOL    HW293663   3.515   8.060   7.703
63942SOL     OW93664   6.040   5.481  11.920
63942SOL    HW193665   5.950   5.448  11.925
63942SOL    HW293666   6.086   5.419  11.864
63943SOL     OW93667   9.114   6.882   4.255
63943SOL    HW193668   9.110   6.894   4.160
63943SOL    HW293669   9.132   6.789   4.267
63944SOL     OW93670   0.963   5.994   1.538
63944SOL    HW193671   0.921   6.009   1.623
63944SOL    HW293672   1.055   5.980   1.558
63945SOL     OW93673  14.811   8.673   1.805
63945SOL    HW193674  14.759   8.681   1.885
63945SOL    HW293675  14.817   8.762   1.771
63946SOL     OW93676  12.047  12.670   7.195
63946SOL    HW193677  12.127  12.721   7.182
63946SOL    HW293678  12.059  12.592   7.140
63947SOL     OW93679   3.072  13.709   2.911
63947SOL    HW193680   3.010  13.638   2.893
63947SOL    HW293681   3.107  13.690   2.998
63948SOL     OW93682  12.397   4.088   5.449
63948SOL    HW193683  12.350   4.074   5.367
63948SOL    HW293684  12.348   4.037   5.513
63949SOL     OW93685  14.082   9.111  12.344
63949SOL    HW193686  14.071   9.021  12.313
63949SOL    HW293687  14.052   9.110  12.435
63950SOL     OW93688   3.744   4.806  12.783
63950SOL    HW193689   3.720   4.747  12.854
63950SOL    HW293690   3.661   4.838  12.748
63951SOL     OW93691   4.275   8.361   4.351
63951SOL    HW193692   4.190   8.390   4.385
63951SOL    HW293693   4.308   8.436   4.302
63952SOL     OW93694   2.396  10.812  14.373
63952SOL    HW193695   2.434  10.727  14.395
63952SOL    HW293696   2.314  10.790  14.328
63953SOL     OW93697   6.803   6.798   7.008
63953SOL    HW193698   6.899   6.807   7.006
63953SOL    HW293699   6.787   6.732   7.076
63954SOL     OW93700   3.945  14.750   4.340
63954SOL    HW193701   3.882  14.820   4.355
63954SOL    HW293702   3.919  14.681   4.401
63955SOL     OW93703  14.219   1.507   9.141
63955SOL    HW193704  14.239   1.443   9.210
63955SOL    HW293705  14.250   1.466   9.060
63956SOL     OW93706   3.396  13.196   7.497
63956SOL    HW193707   3.415  13.231   7.584
63956SOL    HW293708   3.457  13.241   7.439
63957SOL     OW93709   4.185  11.616  14.441
63957SOL    HW193710   4.242  11.606  14.365
63957SOL    HW293711   4.206  11.703  14.476
63958SOL     OW93712   7.716   6.179   1.334
63958SOL    HW193713   7.742   6.089   1.316
63958SOL    HW293714   7.621   6.179   1.328
63959SOL     OW93715   5.315   6.350   3.954
63959SOL    HW193716   5.283   6.379   4.039
63959SOL    HW293717   5.332   6.257   3.965
63960SOL     OW93718  11.911   5.444  12.560
63960SOL    HW193719  11.854   5.464  12.487
63960SOL    HW293720  11.866   5.375  12.608
63961SOL     OW93721   1.228  10.259   4.885
63961SOL    HW193722   1.177  10.340   4.883
63961SOL    HW293723   1.277  10.262   4.967
63962SOL     OW93724  13.805  12.595   8.470
63962SOL    HW193725  13.751  12.520   8.444
63962SOL    HW293726  13.764  12.670   8.425
63963SOL     OW93727   7.883   7.400   1.307
63963SOL    HW193728   7.890   7.304   1.308
63963SOL    HW293729   7.950   7.430   1.369
63964SOL     OW93730   7.492   2.372   3.426
63964SOL    HW193731   7.542   2.313   3.481
63964SOL    HW293732   7.432   2.315   3.378
63965SOL     OW93733   4.138   8.891   4.755
63965SOL    HW193734   4.049   8.860   4.739
63965SOL    HW293735   4.131   8.986   4.757
63966SOL     OW93736  12.999   6.520   8.765
63966SOL    HW193737  12.905   6.500   8.760
63966SOL    HW293738  13.032   6.502   8.677
63967SOL     OW93739   2.795   6.175   6.980
63967SOL    HW193740   2.842   6.107   7.029
63967SOL    HW293741   2.719   6.195   7.035
63968SOL     OW93742  11.175   8.020   7.545
63968SOL    HW193743  11.080   8.010   7.536
63968SOL    HW293744  11.211   7.965   7.475
63969SOL     OW93745  12.017   0.462   4.894
63969SOL    HW193746  11.927   0.445   4.866
63969SOL    HW293747  12.013   0.460   4.990
63970SOL     OW93748   6.680  11.509  14.653
63970SOL    HW193749   6.724  11.528  14.736
63970SOL    HW293750   6.674  11.414  14.650
63971SOL     OW93751   5.508  14.191  14.434
63971SOL    HW193752   5.463  14.121  14.387
63971SOL    HW293753   5.476  14.272  14.394
63972SOL     OW93754  10.157  12.704   6.116
63972SOL    HW193755  10.090  12.644   6.147
63972SOL    HW293756  10.129  12.729   6.028
63973SOL     OW93757  11.710   1.656   3.845
63973SOL    HW193758  11.781   1.689   3.789
63973SOL    HW293759  11.640   1.634   3.784
63974SOL     OW93760   1.717   6.498   2.723
63974SOL    HW193761   1.699   6.569   2.785
63974SOL    HW293762   1.675   6.422   2.762
63975SOL     OW93763   7.112  10.289   1.141
63975SOL    HW193764   7.128  10.285   1.235
63975SOL    HW293765   7.031  10.239   1.128
63976SOL     OW93766  11.242   4.505  13.486
63976SOL    HW193767  11.289   4.431  13.523
63976SOL    HW293768  11.283   4.582  13.527
63977SOL     OW93769   4.020   9.251  10.191
63977SOL    HW193770   4.014   9.198  10.111
63977SOL    HW293771   3.931   9.251  10.226
63978SOL     OW93772   0.254   5.907   5.144
63978SOL    HW193773   0.171   5.861   5.133
63978SOL    HW293774   0.282   5.929   5.056
63979SOL     OW93775  13.737  10.950   2.590
63979SOL    HW193776  13.797  10.919   2.521
63979SOL    HW293777  13.655  10.906   2.571
63980SOL     OW93778   7.958  12.672  11.256
63980SOL    HW193779   7.931  12.672  11.348
63980SOL    HW293780   7.966  12.765  11.234
63981SOL     OW93781  12.771   0.141   1.149
63981SOL    HW193782  12.841   0.085   1.114
63981SOL    HW293783  12.692   0.113   1.102
63982SOL     OW93784   6.783   2.557   0.566
63982SOL    HW193785   6.705   2.598   0.603
63982SOL    HW293786   6.752   2.513   0.486
63983SOL     OW93787   8.262  11.628   7.093
63983SOL    HW193788   8.316  11.580   7.031
63983SOL    HW293789   8.263  11.574   7.172
63984SOL     OW93790   1.420   6.976   8.169
63984SOL    HW193791   1.361   6.976   8.093
63984SOL    HW293792   1.415   7.065   8.202
63985SOL     OW93793  14.693   8.864   3.397
63985SOL    HW193794  14.688   8.950   3.439
63985SOL    HW293795  14.681   8.802   3.469
63986SOL     OW93796  11.010  10.179  14.686
63986SOL    HW193797  11.028  10.209  14.597
63986SOL    HW293798  10.916  10.159  14.686
63987SOL     OW93799   0.385   6.508  13.106
63987SOL    HW193800   0.303   6.557  13.121
63987SOL    HW293801   0.374   6.468  13.020
63988SOL     OW93802   5.105  10.389   3.415
63988SOL    HW193803   5.178  10.327   3.420
63988SOL    HW293804   5.075  10.384   3.324
63989SOL     OW93805  10.259  14.288   8.843
63989SOL    HW193806  10.266  14.198   8.874
63989SOL    HW293807  10.294  14.285   8.754
63990SOL     OW93808   6.380   7.694   8.746
63990SOL    HW193809   6.299   7.675   8.699
63990SOL    HW293810   6.421   7.766   8.696
63991SOL     OW93811   8.163   9.160   9.324
63991SOL    HW193812   8.179   9.066   9.318
63991SOL    HW293813   8.082   9.168   9.374
63992SOL     OW93814  10.340   6.376  11.849
63992SOL    HW193815  10.378   6.462  11.828
63992SOL    HW293816  10.257   6.375  11.802
63993SOL     OW93817   7.404   1.875   1.072
63993SOL    HW193818   7.351   1.825   1.134
63993SOL    HW293819   7.455   1.935   1.126
63994SOL     OW93820   0.472  14.182  11.572
63994SOL    HW193821   0.536  14.128  11.618
63994SOL    HW293822   0.525  14.251  11.531
63995SOL     OW93823  12.193   7.701   0.380
63995SOL    HW193824  12.112   7.738   0.345
63995SOL    HW293825  12.192   7.724   0.473
63996SOL     OW93826   0.436   5.977   6.126
63996SOL    HW193827   0.459   6.069   6.111
63996SOL    HW293828   0.345   5.969   6.098
63997SOL     OW93829  14.544  13.804   0.118
63997SOL    HW193830  14.461  13.842   0.148
63997SOL    HW293831  14.569  13.857   0.043
63998SOL     OW93832   0.487  13.780  11.874
63998SOL    HW193833   0.392  13.791  11.878
63998SOL    HW293834   0.505  13.754  11.784
63999SOL     OW93835   1.357  12.876   8.401
63999SOL    HW193836   1.370  12.889   8.495
63999SOL    HW293837   1.386  12.787   8.384
64000SOL     OW93838   5.494  11.297   9.691
64000SOL    HW193839   5.419  11.265   9.642
64000SOL    HW293840   5.456  11.351   9.761
64001SOL     OW93841  10.404   3.009   2.515
64001SOL    HW193842  10.396   3.088   2.567
64001SOL    HW293843  10.351   3.026   2.437
64002SOL     OW93844   4.928   8.074   4.565
64002SOL    HW193845   4.880   8.013   4.508
64002SOL    HW293846   4.869   8.087   4.640
64003SOL     OW93847  11.445   9.234  14.054
64003SOL    HW193848  11.381   9.167  14.079
64003SOL    HW293849  11.446   9.232  13.959
64004SOL     OW93850  13.556   7.614   3.692
64004SOL    HW193851  13.488   7.632   3.756
64004SOL    HW293852  13.582   7.701   3.660
64005SOL     OW93853  12.002   0.569   7.630
64005SOL    HW193854  12.073   0.633   7.632
64005SOL    HW293855  12.030   0.504   7.566
64006SOL     OW93856   1.853  10.480   1.636
64006SOL    HW193857   1.888  10.392   1.647
64006SOL    HW293858   1.925  10.538   1.661
64007SOL     OW93859   3.668   6.569   0.062
64007SOL    HW193860   3.748   6.523   0.087
64007SOL    HW293861   3.614   6.567   0.141
64008SOL     OW93862   9.699  11.792  12.337
64008SOL    HW193863   9.734  11.828  12.255
64008SOL    HW293864   9.777  11.778  12.391
64009SOL     OW93865  14.142  13.080  11.726
64009SOL    HW193866  14.177  13.154  11.775
64009SOL    HW293867  14.220  13.029  11.701
64010SOL     OW93868  14.031   8.056  11.929
64010SOL    HW193869  13.950   8.008  11.910
64010SOL    HW293870  14.013   8.145  11.900
64011SOL     OW93871  11.367   7.296  10.092
64011SOL    HW193872  11.351   7.380  10.135
64011SOL    HW293873  11.418   7.246  10.156
64012SOL     OW93874  14.359  13.622   9.966
64012SOL    HW193875  14.335  13.540   9.923
64012SOL    HW293876  14.279  13.649  10.012
64013SOL     OW93877   6.883  13.546   1.454
64013SOL    HW193878   6.907  13.577   1.366
64013SOL    HW293879   6.817  13.609   1.484
64014SOL     OW93880   0.700   8.437  13.942
64014SOL    HW193881   0.701   8.341  13.937
64014SOL    HW293882   0.792   8.462  13.949
64015SOL     OW93883  13.139   8.806   1.807
64015SOL    HW193884  13.115   8.725   1.853
64015SOL    HW293885  13.225   8.829   1.845
64016SOL     OW93886  13.991  14.090   5.719
64016SOL    HW193887  14.011  14.184   5.712
64016SOL    HW293888  13.899  14.083   5.690
64017SOL     OW93889  13.166   6.055   3.663
64017SOL    HW193890  13.258   6.043   3.640
64017SOL    HW293891  13.139   5.969   3.696
64018SOL     OW93892  10.361  12.540   7.161
64018SOL    HW193893  10.296  12.470   7.162
64018SOL    HW293894  10.315  12.615   7.122
64019SOL     OW93895   6.251   2.228  10.938
64019SOL    HW193896   6.282   2.154  10.992
64019SOL    HW293897   6.171   2.196  10.897
64020SOL     OW93898   0.029   1.187   9.212
64020SOL    HW193899   0.117   1.160   9.239
64020SOL    HW293900  14.870   1.108   9.173
64021SOL     OW93901  10.009   8.839  14.861
64021SOL    HW193902  10.031   8.923   0.022
64021SOL    HW293903  10.054   8.841  14.777
64022SOL     OW93904   4.024  11.021   5.506
64022SOL    HW193905   4.115  11.043   5.527
64022SOL    HW293906   4.020  11.019   5.411
64023SOL     OW93907  13.626   7.139   2.489
64023SOL    HW193908  13.597   7.225   2.517
64023SOL    HW293909  13.657   7.097   2.570
64024SOL     OW93910   0.907   0.140   2.810
64024SOL    HW193911   0.848   0.165   2.739
64024SOL    HW293912   0.852   0.140   2.888
64025SOL     OW93913   0.690   7.193   5.556
64025SOL    HW193914   0.666   7.221   5.467
64025SOL    HW293915   0.691   7.274   5.607
64026SOL     OW93916  10.547   7.315   7.440
64026SOL    HW193917  10.470   7.294   7.492
64026SOL    HW293918  10.619   7.271   7.486
64027SOL     OW93919   0.238   4.454   5.850
64027SOL    HW193920   0.262   4.533   5.898
64027SOL    HW293921   0.210   4.392   5.917
64028SOL     OW93922   2.508   8.112   3.377
64028SOL    HW193923   2.533   8.026   3.412
64028SOL    HW293924   2.578   8.133   3.315
64029SOL     OW93925   4.607   4.290   0.486
64029SOL    HW193926   4.571   4.340   0.413
64029SOL    HW293927   4.584   4.199   0.468
64030SOL     OW93928  13.406   6.509  13.721
64030SOL    HW193929  13.496   6.528  13.693
64030SOL    HW293930  13.355   6.582  13.687
64031SOL     OW93931  10.135  12.488  12.496
64031SOL    HW193932  10.083  12.568  12.497
64031SOL    HW293933  10.201  12.502  12.565
64032SOL     OW93934   3.355  13.768   1.689
64032SOL    HW193935   3.337  13.683   1.730
64032SOL    HW293936   3.356  13.830   1.762
64033SOL     OW93937  14.333   5.213   9.283
64033SOL    HW193938  14.383   5.151   9.230
64033SOL    HW293939  14.298   5.160   9.355
64034SOL     OW93940  10.387   9.867  13.958
64034SOL    HW193941  10.395   9.834  14.047
64034SOL    HW293942  10.455   9.934  13.950
64035SOL     OW93943  14.179   1.049   0.617
64035SOL    HW193944  14.264   1.064   0.659
64035SOL    HW293945  14.132   0.991   0.677
64036SOL     OW93946   1.378   7.282   1.700
64036SOL    HW193947   1.357   7.375   1.706
64036SOL    HW293948   1.363   7.260   1.609
64037SOL     OW93949   2.182  14.743   8.042
64037SOL    HW193950   2.199  14.649   8.039
64037SOL    HW293951   2.092  14.752   8.011
64038SOL     OW93952  10.793   8.735   0.400
64038SOL    HW193953  10.832   8.716   0.315
64038SOL    HW293954  10.791   8.830   0.405
64039SOL     OW93955   7.253   0.154   9.540
64039SOL    HW193956   7.304   0.140   9.460
64039SOL    HW293957   7.206   0.072   9.552
64040SOL     OW93958   3.187  13.997  13.847
64040SOL    HW193959   3.196  14.091  13.836
64040SOL    HW293960   3.272  13.961  13.819
64041SOL     OW93961   2.974   9.263   2.374
64041SOL    HW193962   2.989   9.199   2.444
64041SOL    HW293963   2.978   9.211   2.294
64042SOL     OW93964   7.636   0.430   6.951
64042SOL    HW193965   7.563   0.395   6.901
64042SOL    HW293966   7.608   0.519   6.975
64043SOL     OW93967  14.283  10.129  11.558
64043SOL    HW193968  14.244  10.170  11.636
64043SOL    HW293969  14.340  10.061  11.594
64044SOL     OW93970   3.817  14.045  14.526
64044SOL    HW193971   3.886  14.069  14.465
64044SOL    HW293972   3.744  14.016  14.469
64045SOL     OW93973   4.283  12.340   7.248
64045SOL    HW193974   4.279  12.250   7.216
64045SOL    HW293975   4.195  12.358   7.282
64046SOL     OW93976   5.607   3.092   4.545
64046SOL    HW193977   5.530   3.136   4.582
64046SOL    HW293978   5.681   3.132   4.592
64047SOL     OW93979   7.795   2.228   8.881
64047SOL    HW193980   7.814   2.187   8.965
64047SOL    HW293981   7.747   2.161   8.832
64048SOL     OW93982   7.001   7.275   1.175
64048SOL    HW193983   6.915   7.233   1.174
64048SOL    HW293984   7.032   7.268   1.085
64049SOL     OW93985   1.925  12.242   6.764
64049SOL    HW193986   1.950  12.178   6.697
64049SOL    HW293987   1.978  12.319   6.744
64050SOL     OW93988   6.902   6.210  11.397
64050SOL    HW193989   6.954   6.270  11.342
64050SOL    HW293990   6.863   6.149  11.335
64051SOL     OW93991   7.633   9.331  10.702
64051SOL    HW193992   7.654   9.243  10.734
64051SOL    HW293993   7.715   9.362  10.662
64052SOL     OW93994   4.143  12.510  11.579
64052SOL    HW193995   4.196  12.541  11.652
64052SOL    HW293996   4.069  12.465  11.620
64053SOL     OW93997  13.542   1.843  10.533
64053SOL    HW193998  13.634   1.824  10.553
64053SOL    HW293999  13.492   1.784  10.589
64054SOL     OW94000   0.678   8.366   0.357
64054SOL    HW194001   0.726   8.291   0.392
64054SOL    HW294002   0.610   8.328   0.302
64055SOL     OW94003  11.740   2.321   4.350
64055SOL    HW194004  11.804   2.313   4.420
64055SOL    HW294005  11.792   2.332   4.271
64056SOL     OW94006   6.985  10.455  10.827
64056SOL    HW194007   7.076  10.460  10.799
64056SOL    HW294008   6.951  10.544  10.812
64057SOL     OW94009   0.083  11.243   8.400
64057SOL    HW194010   0.058  11.254   8.308
64057SOL    HW294011   0.177  11.255   8.400
64058SOL     OW94012   6.286  13.002   5.132
64058SOL    HW194013   6.352  13.057   5.089
64058SOL    HW294014   6.273  12.929   5.071
64059SOL     OW94015  14.805   2.252  11.064
64059SOL    HW194016   0.005   2.303  11.065
64059SOL    HW294017  14.785   2.239  10.971
64060SOL     OW94018  12.498   2.555   1.701
64060SOL    HW194019  12.540   2.474   1.671
64060SOL    HW294020  12.536   2.623   1.645
64061SOL     OW94021   0.863  11.137   8.293
64061SOL    HW194022   0.803  11.198   8.337
64061SOL    HW294023   0.805  11.073   8.252
64062SOL     OW94024   7.819  13.733  11.020
64062SOL    HW194025   7.730  13.733  11.055
64062SOL    HW294026   7.812  13.778  10.936
64063SOL     OW94027   7.434  10.431   5.507
64063SOL    HW194028   7.502  10.396   5.564
64063SOL    HW294029   7.355  10.434   5.561
64064SOL     OW94030  12.414  10.397   4.008
64064SOL    HW194031  12.414  10.456   4.083
64064SOL    HW294032  12.454  10.317   4.041
64065SOL     OW94033   6.396  11.485  11.127
64065SOL    HW194034   6.342  11.407  11.135
64065SOL    HW294035   6.443  11.491  11.211
64066SOL     OW94036  14.168  13.240   5.657
64066SOL    HW194037  14.205  13.320   5.622
64066SOL    HW294038  14.242  13.181   5.667
64067SOL     OW94039  14.380  11.375   2.019
64067SOL    HW194040  14.405  11.428   2.095
64067SOL    HW294041  14.423  11.291   2.034
64068SOL     OW94042  11.374   1.852  11.837
64068SOL    HW194043  11.321   1.904  11.776
64068SOL    HW294044  11.443   1.814  11.783
64069SOL     OW94045  14.851  14.614  11.729
64069SOL    HW194046  14.780  14.662  11.771
64069SOL    HW294047   0.025  14.583  11.802
64070SOL     OW94048   9.463   7.230   7.232
64070SOL    HW194049   9.372   7.202   7.226
64070SOL    HW294050   9.493   7.235   7.141
64071SOL     OW94051  13.140  10.192  13.619
64071SOL    HW194052  13.131  10.163  13.528
64071SOL    HW294053  13.062  10.246  13.634
64072SOL     OW94054  14.747  11.642   6.218
64072SOL    HW194055  14.827  11.592   6.201
64072SOL    HW294056  14.758  11.723   6.169
64073SOL     OW94057  10.827   3.895   9.877
64073SOL    HW194058  10.758   3.829   9.870
64073SOL    HW294059  10.908   3.844   9.883
64074SOL     OW94060   3.647   5.468   0.552
64074SOL    HW194061   3.726   5.424   0.520
64074SOL    HW294062   3.628   5.535   0.486
64075SOL     OW94063   6.913  13.760  10.605
64075SOL    HW194064   6.875  13.784  10.520
64075SOL    HW294065   6.838  13.755  10.664
64076SOL     OW94066   5.355  14.839  11.408
64076SOL    HW194067   5.428  14.855  11.348
64076SOL    HW294068   5.396  14.807  11.488
64077SOL     OW94069   0.349   4.964   6.233
64077SOL    HW194070   0.419   5.028   6.221
64077SOL    HW294071   0.384   4.883   6.197
64078SOL     OW94072  14.338   6.804   3.394
64078SOL    HW194073  14.329   6.709   3.381
64078SOL    HW294074  14.419   6.827   3.350
64079SOL     OW94075  14.251  10.138   2.521
64079SOL    HW194076  14.235  10.208   2.457
64079SOL    HW294077  14.182  10.148   2.586
64080SOL     OW94078   8.156   0.827   3.375
64080SOL    HW194079   8.107   0.896   3.419
64080SOL    HW294080   8.130   0.747   3.420
64081SOL     OW94081  10.515   9.575   6.702
64081SOL    HW194082  10.490   9.492   6.743
64081SOL    HW294083  10.467   9.641   6.752
64082SOL     OW94084   7.172   1.465   1.911
64082SOL    HW194085   7.197   1.469   1.819
64082SOL    HW294086   7.104   1.532   1.920
64083SOL     OW94087  12.093  14.842   9.295
64083SOL    HW194088  12.116  14.783   9.367
64083SOL    HW294089  12.144  14.810   9.221
64084SOL     OW94090   2.456  14.020  13.481
64084SOL    HW194091   2.462  13.928  13.453
64084SOL    HW294092   2.385  14.021  13.545
64085SOL     OW94093   4.816  13.593  11.630
64085SOL    HW194094   4.792  13.684  11.616
64085SOL    HW294095   4.897  13.581  11.580
64086SOL     OW94096   8.563  13.126  13.896
64086SOL    HW194097   8.651  13.127  13.858
64086SOL    HW294098   8.575  13.162  13.984
64087SOL     OW94099  10.386   4.075  14.078
64087SOL    HW194100  10.378   4.004  14.015
64087SOL    HW294101  10.334   4.047  14.154
64088SOL     OW94102  13.672   6.537  13.366
64088SOL    HW194103  13.690   6.565  13.276
64088SOL    HW294104  13.577   6.539  13.374
64089SOL     OW94105  12.284   3.495   5.656
64089SOL    HW194106  12.342   3.551   5.605
64089SOL    HW294107  12.223   3.555   5.698
64090SOL     OW94108   5.964  13.912   3.658
64090SOL    HW194109   6.032  13.887   3.596
64090SOL    HW294110   5.891  13.852   3.638
64091SOL     OW94111   4.135   3.713   6.718
64091SOL    HW194112   4.131   3.703   6.814
64091SOL    HW294113   4.224   3.742   6.700
64092SOL     OW94114   6.295  10.659   7.280
64092SOL    HW194115   6.360  10.726   7.261
64092SOL    HW294116   6.246  10.649   7.199
64093SOL     OW94117  11.793   7.486   0.141
64093SOL    HW194118  11.758   7.398   0.156
64093SOL    HW294119  11.718   7.536   0.107
64094SOL     OW94120  13.666   3.378   3.952
64094SOL    HW194121  13.609   3.399   3.878
64094SOL    HW294122  13.632   3.431   4.024
64095SOL     OW94123  12.645   9.939   5.720
64095SOL    HW194124  12.649   9.961   5.813
64095SOL    HW294125  12.552   9.948   5.697
64096SOL     OW94126   0.169   8.324  10.061
64096SOL    HW194127   0.218   8.344   9.982
64096SOL    HW294128   0.089   8.283  10.030
64097SOL     OW94129   1.829   8.739   5.099
64097SOL    HW194130   1.875   8.655   5.096
64097SOL    HW294131   1.899   8.804   5.107
64098SOL     OW94132   2.739   2.409   1.453
64098SOL    HW194133   2.820   2.370   1.486
64098SOL    HW294134   2.736   2.496   1.492
64099SOL     OW94135   4.597   8.710   2.021
64099SOL    HW194136   4.649   8.780   2.061
64099SOL    HW294137   4.662   8.647   1.990
64100SOL     OW94138   7.161   1.161  14.805
64100SOL    HW194139   7.094   1.117  14.857
64100SOL    HW294140   7.145   1.254  14.820
64101SOL     OW94141  14.875   8.486  13.866
64101SOL    HW194142   0.082   8.444  13.866
64101SOL    HW294143  14.815   8.416  13.840
64102SOL     OW94144   5.641   3.966  11.512
64102SOL    HW194145   5.568   3.913  11.481
64102SOL    HW294146   5.675   4.008  11.432
64103SOL     OW94147   8.083  13.009  13.568
64103SOL    HW194148   8.071  13.068  13.643
64103SOL    HW294149   8.084  12.922  13.606
64104SOL     OW94150   7.929   4.620  14.511
64104SOL    HW194151   7.911   4.590  14.600
64104SOL    HW294152   8.021   4.597  14.496
64105SOL     OW94153   8.192   2.754   2.983
64105SOL    HW194154   8.243   2.720   2.909
64105SOL    HW294155   8.153   2.676   3.022
64106SOL     OW94156   9.206   0.060   3.016
64106SOL    HW194157   9.192  14.848   2.993
64106SOL    HW294158   9.297   0.064   3.046
64107SOL     OW94159   2.471   7.287   0.075
64107SOL    HW194160   2.524   7.235   0.015
64107SOL    HW294161   2.534   7.324   0.137
64108SOL     OW94162  11.378  13.637   2.152
64108SOL    HW194163  11.436  13.609   2.081
64108SOL    HW294164  11.403  13.728   2.168
64109SOL     OW94165   5.687   8.623   6.889
64109SOL    HW194166   5.695   8.545   6.945
64109SOL    HW294167   5.665   8.588   6.803
64110SOL     OW94168   9.085   6.740  11.075
64110SOL    HW194169   9.067   6.749  10.981
64110SOL    HW294170   9.019   6.795  11.117
64111SOL     OW94171   2.916  12.545   7.266
64111SOL    HW194172   2.861  12.476   7.301
64111SOL    HW294173   2.971  12.573   7.339
64112SOL     OW94174  12.680   0.201  14.740
64112SOL    HW194175  12.708   0.236  14.655
64112SOL    HW294176  12.661   0.278  14.793
64113SOL     OW94177  14.755   9.556   8.543
64113SOL    HW194178  14.716   9.472   8.567
64113SOL    HW294179  14.742   9.562   8.449
64114SOL     OW94180   9.012  12.969  13.365
64114SOL    HW194181   9.104  12.995  13.359
64114SOL    HW294182   8.991  12.931  13.280
64115SOL     OW94183   3.492  12.083   8.605
64115SOL    HW194184   3.456  12.011   8.657
64115SOL    HW294185   3.462  12.162   8.651
64116SOL     OW94186   0.869   7.969   3.452
64116SOL    HW194187   0.862   7.936   3.363
64116SOL    HW294188   0.940   8.033   3.448
64117SOL     OW94189   5.189   9.257  12.158
64117SOL    HW194190   5.246   9.311  12.212
64117SOL    HW294191   5.130   9.320  12.116
64118SOL     OW94192  13.922   9.741  14.493
64118SOL    HW194193  13.935   9.793  14.414
64118SOL    HW294194  13.984   9.777  14.556
64119SOL     OW94195  14.051   4.395  13.093
64119SOL    HW194196  14.054   4.447  13.174
64119SOL    HW294197  14.085   4.454  13.026
64120SOL     OW94198   3.379   6.957   0.345
64120SOL    HW194199   3.319   7.030   0.361
64120SOL    HW294200   3.455   6.997   0.303
64121SOL     OW94201   7.976  11.822   6.657
64121SOL    HW194202   7.909  11.764   6.691
64121SOL    HW294203   8.058  11.790   6.695
64122SOL     OW94204   2.135  11.890   6.800
64122SOL    HW194205   2.098  11.930   6.721
64122SOL    HW294206   2.109  11.799   6.796
64123SOL     OW94207  13.229  11.994   5.799
64123SOL    HW194208  13.274  12.070   5.762
64123SOL    HW294209  13.210  11.938   5.723
64124SOL     OW94210   1.424   0.008  11.406
64124SOL    HW194211   1.367  14.811  11.399
64124SOL    HW294212   1.390   0.069  11.341
64125SOL     OW94213  10.171   2.906  14.110
64125SOL    HW194214  10.128   2.822  14.102
64125SOL    HW294215  10.230   2.896  14.184
64126SOL     OW94216   9.689   6.214   7.669
64126SOL    HW194217   9.662   6.282   7.607
64126SOL    HW294218   9.763   6.252   7.716
64127SOL     OW94219   1.583  12.550   3.986
64127SOL    HW194220   1.582  12.531   4.079
64127SOL    HW294221   1.594  12.465   3.944
64128SOL     OW94222  10.058  14.656  14.021
64128SOL    HW194223   9.964  14.668  14.029
64128SOL    HW294224  10.081  14.594  14.091
64129SOL     OW94225   8.487   4.843   3.973
64129SOL    HW194226   8.434   4.881   4.042
64129SOL    HW294227   8.538   4.916   3.939
64130SOL     OW94228   0.750  14.160  12.982
64130SOL    HW194229   0.679  14.096  12.970
64130SOL    HW294230   0.738  14.223  12.911
64131SOL     OW94231   3.740   4.230   0.246
64131SOL    HW194232   3.730   4.292   0.174
64131SOL    HW294233   3.793   4.276   0.311
64132SOL     OW94234   1.894   9.548   4.361
64132SOL    HW194235   1.848   9.603   4.425
64132SOL    HW294236   1.827   9.487   4.330
64133SOL     OW94237  11.968   6.478   4.523
64133SOL    HW194238  12.042   6.447   4.470
64133SOL    HW294239  11.943   6.402   4.576
64134SOL     OW94240   2.050  13.685   1.906
64134SOL    HW194241   1.966  13.725   1.889
64134SOL    HW294242   2.091  13.676   1.820
64135SOL     OW94243  12.521   1.246   0.458
64135SOL    HW194244  12.510   1.341   0.463
64135SOL    HW294245  12.604   1.233   0.413
64136SOL     OW94246   0.221  10.020  14.336
64136SOL    HW194247   0.258  10.099  14.375
64136SOL    HW294248   0.293   9.981  14.286
64137SOL     OW94249   6.677   0.217   7.241
64137SOL    HW194250   6.771   0.211   7.254
64137SOL    HW294251   6.660   0.169   7.160
64138SOL     OW94252   0.319   2.716   2.900
64138SOL    HW194253   0.270   2.777   2.844
64138SOL    HW294254   0.399   2.763   2.923
64139SOL     OW94255  10.582   0.922  11.604
64139SOL    HW194256  10.493   0.957  11.612
64139SOL    HW294257  10.633   0.971  11.668
64140SOL     OW94258   5.156  12.834  11.726
64140SOL    HW194259   5.100  12.864  11.654
64140SOL    HW294260   5.245  12.839  11.691
64141SOL     OW94261   7.905  11.022  14.485
64141SOL    HW194262   7.821  11.052  14.519
64141SOL    HW294263   7.908  10.929  14.507
64142SOL     OW94264  10.757   5.765   4.740
64142SOL    HW194265  10.796   5.712   4.809
64142SOL    HW294266  10.703   5.829   4.786
64143SOL     OW94267  10.580   5.912  14.579
64143SOL    HW194268  10.535   5.852  14.638
64143SOL    HW294269  10.628   5.856  14.519
64144SOL     OW94270   0.031  12.589   4.323
64144SOL    HW194271   0.071  12.561   4.240
64144SOL    HW294272  14.817  12.592   4.304
64145SOL     OW94273  13.743   9.273   5.432
64145SOL    HW194274  13.837   9.277   5.450
64145SOL    HW294275  13.721   9.360   5.398
64146SOL     OW94276  10.281  10.952  12.925
64146SOL    HW194277  10.352  11.009  12.956
64146SOL    HW294278  10.207  11.011  12.914
64147SOL     OW94279   5.128   9.358   8.923
64147SOL    HW194280   5.085   9.441   8.943
64147SOL    HW294281   5.210   9.361   8.972
64148SOL     OW94282   7.838   3.839   2.502
64148SOL    HW194283   7.889   3.918   2.523
64148SOL    HW294284   7.813   3.804   2.588
64149SOL     OW94285   9.781  11.895   1.782
64149SOL    HW194286   9.755  11.871   1.871
64149SOL    HW294287   9.869  11.858   1.772
64150SOL     OW94288  12.712   1.142   3.594
64150SOL    HW194289  12.740   1.212   3.535
64150SOL    HW294290  12.669   1.079   3.536
64151SOL     OW94291   8.556   2.528   9.160
64151SOL    HW194292   8.591   2.439   9.152
64151SOL    HW294293   8.542   2.556   9.069
64152SOL     OW94294   2.051  14.534   1.059
64152SOL    HW194295   2.045  14.625   1.088
64152SOL    HW294296   2.058  14.540   0.963
64153SOL     OW94297   1.538   0.965   8.822
64153SOL    HW194298   1.615   0.949   8.767
64153SOL    HW294299   1.550   1.054   8.854
64154SOL     OW94300  14.371   7.470   8.484
64154SOL    HW194301  14.299   7.529   8.507
64154SOL    HW294302  14.400   7.501   8.398
64155SOL     OW94303  11.121   5.981   3.691
64155SOL    HW194304  11.069   5.954   3.767
64155SOL    HW294305  11.165   6.061   3.719
64156SOL     OW94306  10.838  11.255   2.806
64156SOL    HW194307  10.751  11.241   2.843
64156SOL    HW294308  10.890  11.289   2.879
64157SOL     OW94309   4.868   0.095  14.813
64157SOL    HW194310   4.917   0.172  14.842
64157SOL    HW294311   4.798   0.131  14.758
64158SOL     OW94312  12.404   7.897  10.223
64158SOL    HW194313  12.385   7.804  10.211
64158SOL    HW294314  12.452   7.923  10.144
64159SOL     OW94315   9.975  13.304  14.586
64159SOL    HW194316  10.026  13.384  14.592
64159SOL    HW294317  10.015  13.254  14.515
64160SOL     OW94318   4.962   4.087  13.196
64160SOL    HW194319   4.872   4.111  13.219
64160SOL    HW294320   5.015   4.161  13.227
64161SOL     OW94321   0.333   8.554   2.857
64161SOL    HW194322   0.334   8.468   2.815
64161SOL    HW294323   0.376   8.541   2.941
64162SOL     OW94324   7.826   0.367   1.762
64162SOL    HW194325   7.884   0.428   1.716
64162SOL    HW294326   7.739   0.384   1.726
64163SOL     OW94327   4.444  11.328   4.368
64163SOL    HW194328   4.528  11.366   4.341
64163SOL    HW294329   4.397  11.401   4.408
64164SOL     OW94330   8.121   8.157   9.125
64164SOL    HW194331   8.098   8.242   9.088
64164SOL    HW294332   8.040   8.107   9.121
64165SOL     OW94333   7.316   8.694   6.791
64165SOL    HW194334   7.380   8.689   6.720
64165SOL    HW294335   7.299   8.787   6.802
64166SOL     OW94336   2.247  12.402  12.509
64166SOL    HW194337   2.258  12.327  12.567
64166SOL    HW294338   2.314  12.390  12.441
64167SOL     OW94339  10.262   6.276  12.411
64167SOL    HW194340  10.251   6.262  12.317
64167SOL    HW294341  10.238   6.192  12.451
64168SOL     OW94342   7.395   2.392   7.492
64168SOL    HW194343   7.395   2.446   7.413
64168SOL    HW294344   7.476   2.415   7.537
64169SOL     OW94345  13.491   0.849   6.233
64169SOL    HW194346  13.458   0.856   6.323
64169SOL    HW294347  13.494   0.755   6.216
64170SOL     OW94348   0.781   3.559   1.504
64170SOL    HW194349   0.694   3.584   1.473
64170SOL    HW294350   0.807   3.631   1.561
64171SOL     OW94351   3.928   9.015   3.380
64171SOL    HW194352   3.837   9.003   3.353
64171SOL    HW294353   3.952   9.101   3.346
64172SOL     OW94354   0.168   6.851   5.881
64172SOL    HW194355   0.107   6.803   5.937
64172SOL    HW294356   0.190   6.930   5.931
64173SOL     OW94357   1.077  10.394   2.159
64173SOL    HW194358   1.001  10.404   2.218
64173SOL    HW294359   1.151  10.428   2.210
64174SOL     OW94360  13.966   2.912  12.867
64174SOL    HW194361  13.891   2.970  12.879
64174SOL    HW294362  14.028   2.939  12.935
64175SOL     OW94363   2.878   6.548   1.952
64175SOL    HW194364   2.942   6.595   2.006
64175SOL    HW294365   2.831   6.616   1.904
64176SOL     OW94366   3.448   9.427   5.127
64176SOL    HW194367   3.410   9.509   5.095
64176SOL    HW294368   3.522   9.411   5.068
64177SOL     OW94369   7.995  13.451  10.224
64177SOL    HW194370   7.959  13.363  10.215
64177SOL    HW294371   7.922  13.504  10.257
64178SOL     OW94372  12.747  14.425   3.045
64178SOL    HW194373  12.744  14.393   3.135
64178SOL    HW294374  12.749  14.521   3.054
64179SOL     OW94375   5.200  12.342   0.770
64179SOL    HW194376   5.282  12.357   0.816
64179SOL    HW294377   5.149  12.285   0.828
64180SOL     OW94378   2.099   6.799  11.821
64180SOL    HW194379   2.190   6.794  11.850
64180SOL    HW294380   2.059   6.720  11.856
64181SOL     OW94381  12.962   1.376   4.109
64181SOL    HW194382  12.945   1.285   4.082
64181SOL    HW294383  12.877   1.408   4.140
64182SOL     OW94384  12.978   7.895   4.802
64182SOL    HW194385  12.973   7.894   4.898
64182SOL    HW294386  12.888   7.880   4.774
64183SOL     OW94387   7.664   8.519   2.061
64183SOL    HW194388   7.693   8.588   2.121
64183SOL    HW294389   7.658   8.562   1.976
64184SOL     OW94390  12.291   5.993   0.697
64184SOL    HW194391  12.233   6.017   0.625
64184SOL    HW294392  12.281   6.064   0.760
64185SOL     OW94393   5.129  12.682   0.595
64185SOL    HW194394   5.135  12.771   0.630
64185SOL    HW294395   5.097  12.693   0.506
64186SOL     OW94396   2.724   9.109   2.137
64186SOL    HW194397   2.726   9.150   2.050
64186SOL    HW294398   2.635   9.124   2.168
64187SOL     OW94399  13.860   3.856   9.970
64187SOL    HW194400  13.780   3.864  10.022
64187SOL    HW294401  13.887   3.765   9.981
64188SOL     OW94402  13.025   0.172   3.154
64188SOL    HW194403  13.026   0.257   3.198
64188SOL    HW294404  13.037   0.193   3.061
64189SOL     OW94405  10.902  10.780  13.334
64189SOL    HW194406  10.873  10.805  13.422
64189SOL    HW294407  10.867  10.691  13.323
64190SOL     OW94408  13.567   9.309  13.740
64190SOL    HW194409  13.560   9.267  13.655
64190SOL    HW294410  13.493   9.274  13.790
64191SOL     OW94411   2.000   2.687  11.066
64191SOL    HW194412   2.089   2.657  11.082
64191SOL    HW294413   1.969   2.717  11.152
64192SOL     OW94414  14.425   0.555   8.910
64192SOL    HW194415  14.491   0.518   8.969
64192SOL    HW294416  14.344   0.553   8.960
64193SOL     OW94417   9.649  10.337  11.255
64193SOL    HW194418   9.685  10.272  11.194
64193SOL    HW294419   9.708  10.412  11.247
64194SOL     OW94420   8.982   2.949   2.222
64194SOL    HW194421   8.966   2.995   2.140
64194SOL    HW294422   8.945   2.861   2.208
64195SOL     OW94423   1.969   8.153  10.060
64195SOL    HW194424   1.988   8.240  10.026
64195SOL    HW294425   1.947   8.102   9.982
64196SOL     OW94426   4.942   3.623  12.944
64196SOL    HW194427   4.862   3.665  12.913
64196SOL    HW294428   4.955   3.549  12.885
64197SOL     OW94429   8.047   9.371   3.751
64197SOL    HW194430   8.124   9.325   3.717
64197SOL    HW294431   7.974   9.311   3.735
64198SOL     OW94432   9.970  10.287   1.744
64198SOL    HW194433   9.947  10.194   1.752
64198SOL    HW294434  10.056  10.294   1.783
64199SOL     OW94435   2.807  12.251   9.238
64199SOL    HW194436   2.776  12.182   9.297
64199SOL    HW294437   2.795  12.215   9.150
64200SOL     OW94438   2.300   0.384   2.040
64200SOL    HW194439   2.208   0.403   2.024
64200SOL    HW294440   2.310   0.393   2.135
64201SOL     OW94441   9.939   5.516   7.835
64201SOL    HW194442  10.028   5.549   7.846
64201SOL    HW294443   9.891   5.588   7.794
64202SOL     OW94444   7.359  11.897  14.229
64202SOL    HW194445   7.408  11.817  14.208
64202SOL    HW294446   7.418  11.968  14.202
64203SOL     OW94447   0.728  13.552   3.277
64203SOL    HW194448   0.744  13.585   3.189
64203SOL    HW294449   0.636  13.524   3.276
64204SOL     OW94450   7.990  11.039  11.466
64204SOL    HW194451   8.003  11.116  11.412
64204SOL    HW294452   7.904  11.006  11.440
64205SOL     OW94453   6.319   6.190  14.843
64205SOL    HW194454   6.261   6.122  14.878
64205SOL    HW294455   6.272   6.272  14.861
64206SOL     OW94456   0.099  13.634   9.149
64206SOL    HW194457   0.034  13.563   9.151
64206SOL    HW294458   0.111  13.654   9.056
64207SOL     OW94459   0.089   9.126   0.663
64207SOL    HW194460   0.001   9.163   0.667
64207SOL    HW294461   0.141   9.195   0.620
64208SOL     OW94462   3.970   6.836   9.684
64208SOL    HW194463   3.909   6.813   9.754
64208SOL    HW294464   3.992   6.752   9.642
64209SOL     OW94465   2.864   2.259   5.308
64209SOL    HW194466   2.778   2.291   5.281
64209SOL    HW294467   2.897   2.212   5.232
64210SOL     OW94468   3.318  11.882  12.208
64210SOL    HW194469   3.383  11.942  12.172
64210SOL    HW294470   3.320  11.899  12.303
64211SOL     OW94471   9.449  10.392   3.089
64211SOL    HW194472   9.424  10.326   3.024
64211SOL    HW294473   9.373  10.399   3.147
64212SOL     OW94474  11.635   3.920  11.273
64212SOL    HW194475  11.598   3.999  11.311
64212SOL    HW294476  11.647   3.861  11.347
64213SOL     OW94477  10.224  14.082   0.049
64213SOL    HW194478  10.174  14.037  14.860
64213SOL    HW294479  10.274  14.148   0.001
64214SOL     OW94480   7.272   5.596  11.717
64214SOL    HW194481   7.216   5.582  11.793
64214SOL    HW294482   7.215   5.639  11.653
64215SOL     OW94483  12.467   8.004   9.982
64215SOL    HW194484  12.440   7.943   9.914
64215SOL    HW294485  12.561   7.987   9.994
64216SOL     OW94486   8.736   7.459  11.746
64216SOL    HW194487   8.681   7.394  11.789
64216SOL    HW294488   8.711   7.542  11.786
64217SOL     OW94489   0.745   2.132   7.567
64217SOL    HW194490   0.770   2.100   7.480
64217SOL    HW294491   0.817   2.105   7.624
64218SOL     OW94492  12.549  10.297   7.157
64218SOL    HW194493  12.576  10.333   7.073
64218SOL    HW294494  12.509  10.213   7.136
64219SOL     OW94495  10.553   0.133  13.216
64219SOL    HW194496  10.516   0.080  13.286
64219SOL    HW294497  10.536   0.224  13.243
64220SOL     OW94498   3.917  11.516  11.394
64220SOL    HW194499   3.980  11.524  11.466
64220SOL    HW294500   3.968  11.539  11.316
64221SOL     OW94501   6.588  13.189   8.322
64221SOL    HW194502   6.635  13.165   8.402
64221SOL    HW294503   6.656  13.215   8.261
64222SOL     OW94504   5.773   0.081   7.903
64222SOL    HW194505   5.739   0.163   7.869
64222SOL    HW294506   5.841   0.056   7.841
64223SOL     OW94507  13.526   9.813  14.352
64223SOL    HW194508  13.578   9.828  14.273
64223SOL    HW294509  13.519   9.718  14.359
64224SOL     OW94510   0.461   9.530  13.000
64224SOL    HW194511   0.529   9.493  12.944
64224SOL    HW294512   0.379   9.511  12.953
64225SOL     OW94513   5.045  13.738  10.692
64225SOL    HW194514   5.010  13.650  10.673
64225SOL    HW294515   4.968  13.794  10.690
64226SOL     OW94516   4.710  12.795  14.220
64226SOL    HW194517   4.743  12.811  14.308
64226SOL    HW294518   4.655  12.716  14.229
64227SOL     OW94519   2.645   2.351  14.500
64227SOL    HW194520   2.680   2.262  14.495
64227SOL    HW294521   2.587   2.359  14.424
64228SOL     OW94522  10.968   8.733   7.122
64228SOL    HW194523  10.927   8.658   7.079
64228SOL    HW294524  11.054   8.741   7.080
64229SOL     OW94525  11.427   3.574   3.951
64229SOL    HW194526  11.500   3.547   4.008
64229SOL    HW294527  11.393   3.654   3.992
64230SOL     OW94528   1.032  11.263   4.712
64230SOL    HW194529   1.047  11.312   4.631
64230SOL    HW294530   1.019  11.331   4.778
64231SOL     OW94531  10.210   0.847  10.608
64231SOL    HW194532  10.305   0.838  10.613
64231SOL    HW294533  10.179   0.760  10.582
64232SOL     OW94534  10.337   1.914   4.450
64232SOL    HW194535  10.325   1.828   4.490
64232SOL    HW294536  10.251   1.955   4.457
64233SOL     OW94537   1.485   8.987  14.547
64233SOL    HW194538   1.401   8.952  14.578
64233SOL    HW294539   1.491   9.074  14.586
64234SOL     OW94540   3.396  11.767  14.580
64234SOL    HW194541   3.384  11.814  14.662
64234SOL    HW294542   3.356  11.681  14.595
64235SOL     OW94543   4.306   4.650   8.932
64235SOL    HW194544   4.379   4.643   8.870
64235SOL    HW294545   4.233   4.605   8.888
64236SOL     OW94546   8.819   9.498  13.781
64236SOL    HW194547   8.804   9.588  13.810
64236SOL    HW294548   8.778   9.492  13.695
64237SOL     OW94549  10.547   8.256  12.727
64237SOL    HW194550  10.475   8.226  12.671
64237SOL    HW294551  10.512   8.254  12.815
64238SOL     OW94552   6.714   1.375   0.080
64238SOL    HW194553   6.769   1.452   0.098
64238SOL    HW294554   6.689   1.343   0.166
64239SOL     OW94555   3.567   9.907  13.014
64239SOL    HW194556   3.535   9.845  12.949
64239SOL    HW294557   3.580   9.855  13.093
64240SOL     OW94558   3.800   9.227   8.904
64240SOL    HW194559   3.871   9.198   8.961
64240SOL    HW294560   3.723   9.230   8.960
64241SOL     OW94561   1.555   6.881   1.635
64241SOL    HW194562   1.465   6.911   1.640
64241SOL    HW294563   1.606   6.952   1.675
64242SOL     OW94564   6.602  10.814   5.177
64242SOL    HW194565   6.517  10.769   5.177
64242SOL    HW294566   6.580  10.907   5.188
64243SOL     OW94567   6.690   5.846   2.796
64243SOL    HW194568   6.620   5.864   2.858
64243SOL    HW294569   6.646   5.819   2.716
64244SOL     OW94570   8.994   7.275   1.210
64244SOL    HW194571   8.953   7.361   1.216
64244SOL    HW294572   8.941   7.220   1.268
64245SOL     OW94573   6.374  10.926  11.312
64245SOL    HW194574   6.424  10.992  11.264
64245SOL    HW294575   6.325  10.880  11.244
64246SOL     OW94576   7.818   1.591   0.705
64246SOL    HW194577   7.869   1.517   0.672
64246SOL    HW294578   7.825   1.584   0.800
64247SOL     OW94579   9.585   9.087   8.550
64247SOL    HW194580   9.615   9.147   8.618
64247SOL    HW294581   9.635   9.110   8.473
64248SOL     OW94582   9.702   5.730   0.258
64248SOL    HW194583   9.676   5.771   0.341
64248SOL    HW294584   9.637   5.661   0.244
64249SOL     OW94585   4.541   4.637   6.605
64249SOL    HW194586   4.506   4.628   6.516
64249SOL    HW294587   4.601   4.711   6.600
64250SOL     OW94588  11.334   9.918   8.907
64250SOL    HW194589  11.271   9.948   8.841
64250SOL    HW294590  11.419   9.924   8.863
64251SOL     OW94591   1.137  10.216   1.119
64251SOL    HW194592   1.161  10.163   1.042
64251SOL    HW294593   1.110  10.301   1.082
64252SOL     OW94594   7.224   6.318   2.566
64252SOL    HW194595   7.295   6.380   2.583
64252SOL    HW294596   7.258   6.233   2.596
64253SOL     OW94597  12.246   2.915   5.494
64253SOL    HW194598  12.152   2.898   5.493
64253SOL    HW294599  12.286   2.829   5.504
64254SOL     OW94600  13.936  13.638   4.612
64254SOL    HW194601  13.850  13.654   4.651
64254SOL    HW294602  13.921  13.571   4.546
64255SOL     OW94603   4.186   2.901  14.446
64255SOL    HW194604   4.189   2.843  14.522
64255SOL    HW294605   4.100   2.943  14.450
64256SOL     OW94606   0.604  11.507   2.758
64256SOL    HW194607   0.652  11.550   2.687
64256SOL    HW294608   0.554  11.578   2.799
64257SOL     OW94609   6.094   3.378   4.801
64257SOL    HW194610   6.172   3.410   4.846
64257SOL    HW294611   6.034   3.354   4.871
64258SOL     OW94612  10.932   3.503   3.059
64258SOL    HW194613  10.976   3.426   3.094
64258SOL    HW294614  10.937   3.568   3.129
64259SOL     OW94615   9.451   6.770   2.529
64259SOL    HW194616   9.391   6.696   2.521
64259SOL    HW294617   9.466   6.799   2.440
64260SOL     OW94618   6.271  13.117   6.984
64260SOL    HW194619   6.193  13.138   7.035
64260SOL    HW294620   6.263  13.023   6.966
64261SOL     OW94621  13.001   5.677   9.973
64261SOL    HW194622  12.939   5.657   9.903
64261SOL    HW294623  12.962   5.637  10.051
64262SOL     OW94624   3.652   4.644   5.376
64262SOL    HW194625   3.723   4.683   5.325
64262SOL    HW294626   3.588   4.715   5.387
64263SOL     OW94627  13.836   3.967  10.275
64263SOL    HW194628  13.863   3.948  10.185
64263SOL    HW294629  13.849   3.886  10.323
64264SOL     OW94630   5.756  14.765   3.183
64264SOL    HW194631   5.822  14.711   3.227
64264SOL    HW294632   5.707  14.703   3.128
64265SOL     OW94633   4.715   8.599   3.301
64265SOL    HW194634   4.779   8.529   3.316
64265SOL    HW294635   4.631   8.560   3.327
64266SOL     OW94636   0.977  14.307  10.700
64266SOL    HW194637   0.898  14.351  10.668
64266SOL    HW294638   1.048  14.363  10.669
64267SOL     OW94639  10.726   1.117  11.140
64267SOL    HW194640  10.637   1.106  11.174
64267SOL    HW294641  10.780   1.126  11.218
64268SOL     OW94642   1.481   3.549   0.931
64268SOL    HW194643   1.441   3.579   1.013
64268SOL    HW294644   1.574   3.570   0.942
64269SOL     OW94645   1.575  11.013  11.060
64269SOL    HW194646   1.601  11.077  10.994
64269SOL    HW294647   1.642  11.020  11.128
64270SOL     OW94648  10.060  12.544   6.968
64270SOL    HW194649  10.101  12.468   7.010
64270SOL    HW294650   9.972  12.548   7.006
64271SOL     OW94651   3.233   7.858  10.730
64271SOL    HW194652   3.262   7.946  10.707
64271SOL    HW294653   3.252   7.805  10.652
64272SOL     OW94654  10.291  12.725   1.828
64272SOL    HW194655  10.332  12.812   1.827
64272SOL    HW294656  10.282  12.701   1.736
64273SOL     OW94657  11.570   8.385   2.559
64273SOL    HW194658  11.509   8.373   2.632
64273SOL    HW294659  11.605   8.297   2.543
64274SOL     OW94660   4.929  11.018   4.203
64274SOL    HW194661   4.989  11.028   4.277
64274SOL    HW294662   4.882  11.101   4.198
64275SOL     OW94663  13.834  13.948  11.298
64275SOL    HW194664  13.767  14.016  11.289
64275SOL    HW294665  13.896  13.966  11.228
64276SOL     OW94666  11.795   8.710   0.931
64276SOL    HW194667  11.731   8.757   0.878
64276SOL    HW294668  11.835   8.648   0.870
64277SOL     OW94669   6.857   9.897  11.156
64277SOL    HW194670   6.858   9.803  11.173
64277SOL    HW294671   6.807   9.935  11.229
64278SOL     OW94672   5.321  13.864  12.801
64278SOL    HW194673   5.406  13.831  12.772
64278SOL    HW294674   5.262  13.846  12.729
64279SOL     OW94675  13.312  10.854   4.111
64279SOL    HW194676  13.260  10.807   4.176
64279SOL    HW294677  13.401  10.820   4.122
64280SOL     OW94678   7.725  10.421  11.376
64280SOL    HW194679   7.728  10.481  11.450
64280SOL    HW294680   7.770  10.342  11.407
64281SOL     OW94681  11.566   2.282   4.792
64281SOL    HW194682  11.611   2.358   4.756
64281SOL    HW294683  11.546   2.227   4.717
64282SOL     OW94684   1.800   1.474   8.376
64282SOL    HW194685   1.733   1.433   8.321
64282SOL    HW294686   1.753   1.540   8.426
64283SOL     OW94687   7.123  14.826  14.145
64283SOL    HW194688   7.089   0.010  14.081
64283SOL    HW294689   7.051  14.814  14.206
64284SOL     OW94690   9.110   3.689  10.202
64284SOL    HW194691   9.034   3.741  10.174
64284SOL    HW294692   9.151   3.661  10.120
64285SOL     OW94693   4.801   1.353  10.380
64285SOL    HW194694   4.869   1.340  10.447
64285SOL    HW294695   4.850   1.356  10.298
64286SOL     OW94696   0.892  12.052   1.110
64286SOL    HW194697   0.959  12.011   1.166
64286SOL    HW294698   0.816  11.995   1.119
64287SOL     OW94699  13.711  14.501   1.299
64287SOL    HW194700  13.794  14.547   1.314
64287SOL    HW294701  13.687  14.465   1.384
64288SOL     OW94702   4.638   8.199  12.325
64288SOL    HW194703   4.704   8.265  12.342
64288SOL    HW294704   4.567   8.246  12.281
64289SOL     OW94705  14.650  13.192   3.427
64289SOL    HW194706  14.614  13.280   3.440
64289SOL    HW294707  14.676  13.190   3.335
64290SOL     OW94708   5.928  13.317  12.370
64290SOL    HW194709   5.929  13.357  12.283
64290SOL    HW294710   5.978  13.236  12.359
64291SOL     OW94711   4.387   6.990   6.174
64291SOL    HW194712   4.415   6.934   6.247
64291SOL    HW294713   4.468   7.015   6.130
64292SOL     OW94714  11.154  10.373  14.018
64292SOL    HW194715  11.152  10.444  14.082
64292SOL    HW294716  11.143  10.293  14.070
64293SOL     OW94717   0.018   9.477   2.746
64293SOL    HW194718   0.077   9.549   2.723
64293SOL    HW294719   0.043   9.406   2.687
64294SOL     OW94720   3.285   4.067   0.626
64294SOL    HW194721   3.351   4.006   0.595
64294SOL    HW294722   3.322   4.104   0.706
64295SOL     OW94723  11.230  11.401  14.430
64295SOL    HW194724  11.312  11.353  14.440
64295SOL    HW294725  11.162  11.335  14.444
64296SOL     OW94726  13.551  14.437   2.570
64296SOL    HW194727  13.554  14.389   2.652
64296SOL    HW294728  13.639  14.428   2.534
64297SOL     OW94729   4.422  12.425   8.118
64297SOL    HW194730   4.363  12.352   8.135
64297SOL    HW294731   4.418  12.479   8.197
64298SOL     OW94732  10.433   3.652   6.653
64298SOL    HW194733  10.428   3.738   6.612
64298SOL    HW294734  10.489   3.665   6.730
64299SOL     OW94735   2.078   5.245   5.226
64299SOL    HW194736   2.133   5.182   5.180
64299SOL    HW294737   2.050   5.307   5.159
64300SOL     OW94738  13.868   6.176  10.209
64300SOL    HW194739  13.855   6.132  10.293
64300SOL    HW294740  13.959   6.206  10.211
64301SOL     OW94741   8.523   3.757   3.509
64301SOL    HW194742   8.495   3.686   3.568
64301SOL    HW294743   8.557   3.824   3.568
64302SOL     OW94744   5.456   4.309   5.797
64302SOL    HW194745   5.529   4.315   5.735
64302SOL    HW294746   5.405   4.389   5.783
64303SOL     OW94747  11.891  10.313  10.937
64303SOL    HW194748  11.840  10.362  10.873
64303SOL    HW294749  11.981  10.341  10.923
64304SOL     OW94750   9.656  11.040   6.059
64304SOL    HW194751   9.583  10.981   6.078
64304SOL    HW294752   9.724  11.015   6.122
64305SOL     OW94753   8.974   6.209   8.827
64305SOL    HW194754   8.924   6.188   8.906
64305SOL    HW294755   9.027   6.131   8.811
64306SOL     OW94756   9.971   8.003   2.022
64306SOL    HW194757   9.901   7.975   2.080
64306SOL    HW294758  10.045   8.021   2.079
64307SOL     OW94759  11.191   4.724   6.941
64307SOL    HW194760  11.202   4.714   6.847
64307SOL    HW294761  11.096   4.721   6.955
64308SOL     OW94762   8.633  14.362   4.223
64308SOL    HW194763   8.625  14.324   4.136
64308SOL    HW294764   8.551  14.339   4.267
64309SOL     OW94765   0.069  10.038   9.496
64309SOL    HW194766   0.004   9.980   9.455
64309SOL    HW294767   0.019  10.117   9.519
64310SOL     OW94768   8.121  12.448   8.164
64310SOL    HW194769   8.060  12.512   8.200
64310SOL    HW294770   8.205  12.494   8.161
64311SOL     OW94771   9.970   1.802  12.146
64311SOL    HW194772   9.934   1.714  12.149
64311SOL    HW294773  10.064   1.789  12.135
64312SOL     OW94774  10.849  12.458   2.595
64312SOL    HW194775  10.937  12.496   2.589
64312SOL    HW294776  10.805  12.511   2.661
64313SOL     OW94777  13.987   3.614   2.131
64313SOL    HW194778  13.972   3.579   2.219
64313SOL    HW294779  13.922   3.570   2.077
64314SOL     OW94780  11.878   7.102   3.072
64314SOL    HW194781  11.847   7.040   3.007
64314SOL    HW294782  11.810   7.102   3.140
64315SOL     OW94783   3.174  12.881  12.804
64315SOL    HW194784   3.230  12.803  12.806
64315SOL    HW294785   3.209  12.934  12.733
64316SOL     OW94786  13.892   2.456   6.381
64316SOL    HW194787  13.984   2.482   6.387
64316SOL    HW294788  13.894   2.363   6.359
64317SOL     OW94789   9.126   1.100   8.501
64317SOL    HW194790   9.128   1.098   8.406
64317SOL    HW294791   9.202   1.153   8.526
64318SOL     OW94792  10.202   0.220  11.443
64318SOL    HW194793  10.114   0.198  11.473
64318SOL    HW294794  10.194   0.230  11.348
64319SOL     OW94795  14.173   6.744   6.321
64319SOL    HW194796  14.179   6.833   6.354
64319SOL    HW294797  14.153   6.755   6.227
64320SOL     OW94798   6.166   3.011   3.650
64320SOL    HW194799   6.248   2.982   3.691
64320SOL    HW294800   6.178   3.105   3.637
64321SOL     OW94801  11.386   0.572   0.452
64321SOL    HW194802  11.446   0.505   0.486
64321SOL    HW294803  11.307   0.562   0.504
64322SOL     OW94804   9.047  13.458   0.181
64322SOL    HW194805   8.988  13.489   0.112
64322SOL    HW294806   9.052  13.531   0.242
64323SOL     OW94807   0.680   5.732   9.025
64323SOL    HW194808   0.691   5.760   8.934
64323SOL    HW294809   0.634   5.804   9.067
64324SOL     OW94810  13.088   7.987  11.350
64324SOL    HW194811  13.007   8.008  11.398
64324SOL    HW294812  13.058   7.947  11.268
64325SOL     OW94813   1.201   1.650  11.972
64325SOL    HW194814   1.203   1.570  11.919
64325SOL    HW294815   1.147   1.711  11.921
64326SOL     OW94816   4.324   8.995  13.322
64326SOL    HW194817   4.398   9.038  13.279
64326SOL    HW294818   4.319   9.036  13.408
64327SOL     OW94819   9.356  12.438   3.716
64327SOL    HW194820   9.291  12.508   3.715
64327SOL    HW294821   9.436  12.480   3.684
64328SOL     OW94822   5.764   4.026   3.132
64328SOL    HW194823   5.708   4.072   3.194
64328SOL    HW294824   5.837   4.086   3.115
64329SOL     OW94825   8.588   0.871   0.933
64329SOL    HW194826   8.537   0.889   0.854
64329SOL    HW294827   8.659   0.934   0.930
64330SOL     OW94828   2.137  14.214  10.754
64330SOL    HW194829   2.096  14.215  10.668
64330SOL    HW294830   2.143  14.307  10.778
64331SOL     OW94831   7.640   8.299   9.941
64331SOL    HW194832   7.652   8.328   9.850
64331SOL    HW294833   7.714   8.242   9.959
64332SOL     OW94834  14.192   9.787   9.366
64332SOL    HW194835  14.264   9.831   9.321
64332SOL    HW294836  14.190   9.699   9.328
64333SOL     OW94837  10.790   9.282   6.130
64333SOL    HW194838  10.866   9.339   6.119
64333SOL    HW294839  10.781   9.237   6.046
64334SOL     OW94840   2.217   6.765   0.534
64334SOL    HW194841   2.199   6.859   0.545
64334SOL    HW294842   2.287   6.747   0.597
64335SOL     OW94843   7.517   9.871  10.399
64335SOL    HW194844   7.474   9.802  10.449
64335SOL    HW294845   7.524   9.945  10.460
64336SOL     OW94846   6.023   5.183   0.368
64336SOL    HW194847   6.085   5.209   0.435
64336SOL    HW294848   5.991   5.098   0.398
64337SOL     OW94849   5.266   5.929   4.721
64337SOL    HW194850   5.330   5.876   4.769
64337SOL    HW294851   5.195   5.868   4.702
64338SOL     OW94852  13.293  14.201   8.993
64338SOL    HW194853  13.216  14.236   8.948
64338SOL    HW294854  13.350  14.277   9.007
64339SOL     OW94855   7.553   3.565   8.907
64339SOL    HW194856   7.474   3.615   8.926
64339SOL    HW294857   7.624   3.630   8.908
64340SOL     OW94858   0.641   3.323   7.293
64340SOL    HW194859   0.671   3.245   7.247
64340SOL    HW294860   0.581   3.365   7.232
64341SOL     OW94861  12.785  10.684   2.066
64341SOL    HW194862  12.710  10.664   2.010
64341SOL    HW294863  12.828  10.758   2.022
64342SOL     OW94864   7.623  11.752   1.734
64342SOL    HW194865   7.623  11.662   1.701
64342SOL    HW294866   7.538  11.788   1.707
64343SOL     OW94867   2.440   5.422   2.566
64343SOL    HW194868   2.395   5.345   2.603
64343SOL    HW294869   2.447   5.482   2.640
64344SOL     OW94870   7.342  14.064   0.961
64344SOL    HW194871   7.365  13.980   0.921
64344SOL    HW294872   7.408  14.125   0.928
64345SOL     OW94873  13.736  11.697   2.017
64345SOL    HW194874  13.789  11.764   1.973
64345SOL    HW294875  13.750  11.617   1.966
64346SOL     OW94876   2.358   4.339   8.906
64346SOL    HW194877   2.443   4.381   8.894
64346SOL    HW294878   2.365   4.294   8.991
64347SOL     OW94879   0.174   1.771   6.492
64347SOL    HW194880   0.152   1.862   6.511
64347SOL    HW294881   0.219   1.774   6.407
64348SOL     OW94882   2.625  11.845  10.943
64348SOL    HW194883   2.701  11.795  10.974
64348SOL    HW294884   2.608  11.908  11.013
64349SOL     OW94885  13.574   9.438   4.277
64349SOL    HW194886  13.666   9.419   4.294
64349SOL    HW294887  13.528   9.356   4.295
64350SOL     OW94888   8.316  13.485   4.473
64350SOL    HW194889   8.326  13.576   4.500
64350SOL    HW294890   8.339  13.433   4.550
64351SOL     OW94891   8.598   0.218   4.762
64351SOL    HW194892   8.628   0.308   4.747
64351SOL    HW294893   8.585   0.213   4.857
64352SOL     OW94894  12.649  14.664  14.105
64352SOL    HW194895  12.740  14.688  14.117
64352SOL    HW294896  12.606  14.746  14.080
64353SOL     OW94897   7.747  13.575   7.425
64353SOL    HW194898   7.696  13.651   7.454
64353SOL    HW294899   7.785  13.602   7.342
64354SOL     OW94900   4.114   3.975  13.378
64354SOL    HW194901   4.101   3.884  13.352
64354SOL    HW294902   4.061   3.985  13.457
64355SOL     OW94903   9.118   6.836   0.468
64355SOL    HW194904   9.132   6.894   0.543
64355SOL    HW294905   9.116   6.748   0.506
64356SOL     OW94906   2.703   9.261   1.192
64356SOL    HW194907   2.708   9.167   1.206
64356SOL    HW294908   2.783   9.296   1.231
64357SOL     OW94909  10.829   6.838   3.484
64357SOL    HW194910  10.818   6.797   3.570
64357SOL    HW294911  10.820   6.932   3.501
64358SOL     OW94912  10.219   8.221   5.439
64358SOL    HW194913  10.244   8.137   5.477
64358SOL    HW294914  10.249   8.215   5.348
64359SOL     OW94915   9.012  12.531   2.786
64359SOL    HW194916   9.074  12.476   2.835
64359SOL    HW294917   8.961  12.469   2.734
64360SOL     OW94918   3.808   5.804   3.404
64360SOL    HW194919   3.788   5.842   3.319
64360SOL    HW294920   3.769   5.864   3.467
64361SOL     OW94921   2.977  13.731  13.472
64361SOL    HW194922   2.943  13.789  13.404
64361SOL    HW294923   2.990  13.789  13.548
64362SOL     OW94924  10.668  10.684   0.322
64362SOL    HW194925  10.701  10.773   0.333
64362SOL    HW294926  10.593  10.693   0.264
64363SOL     OW94927   3.189   4.617   1.821
64363SOL    HW194928   3.264   4.650   1.871
64363SOL    HW294929   3.136   4.695   1.804
64364SOL     OW94930  14.827  10.067   9.810
64364SOL    HW194931   0.031  10.021   9.820
64364SOL    HW294932  14.842  10.131   9.741
64365SOL     OW94933   8.381   0.159   2.405
64365SOL    HW194934   8.426   0.144   2.488
64365SOL    HW294935   8.316   0.227   2.425
64366SOL     OW94936   1.468   6.516  13.974
64366SOL    HW194937   1.512   6.516  13.889
64366SOL    HW294938   1.537   6.534  14.037
64367SOL     OW94939   7.814  14.660   0.236
64367SOL    HW194940   7.802  14.739   0.289
64367SOL    HW294941   7.829  14.693   0.148
64368SOL     OW94942   6.805   7.820   4.508
64368SOL    HW194943   6.761   7.849   4.427
64368SOL    HW294944   6.735   7.780   4.559
64369SOL     OW94945   0.489   4.267   9.512
64369SOL    HW194946   0.514   4.359   9.499
64369SOL    HW294947   0.509   4.250   9.604
64370SOL     OW94948   3.752   6.189  11.427
64370SOL    HW194949   3.699   6.116  11.394
64370SOL    HW294950   3.841   6.154  11.432
64371SOL     OW94951   4.270   5.078  14.291
64371SOL    HW194952   4.330   5.102  14.221
64371SOL    HW294953   4.326   5.042  14.359
64372SOL     OW94954  13.785   8.292   1.519
64372SOL    HW194955  13.827   8.299   1.434
64372SOL    HW294956  13.829   8.219   1.562
64373SOL     OW94957  14.131   3.396   8.964
64373SOL    HW194958  14.218   3.432   8.951
64373SOL    HW294959  14.084   3.464   9.012
64374SOL     OW94960  14.733   6.037  10.138
64374SOL    HW194961  14.814   6.060  10.183
64374SOL    HW294962  14.752   6.052  10.045
64375SOL     OW94963   9.986  11.606   5.983
64375SOL    HW194964   9.932  11.554   6.042
64375SOL    HW294965   9.938  11.688   5.971
64376SOL     OW94966   8.894   1.282   4.377
64376SOL    HW194967   8.979   1.238   4.372
64376SOL    HW294968   8.881   1.317   4.289
64377SOL     OW94969   6.230  10.781  14.714
64377SOL    HW194970   6.300  10.726  14.748
64377SOL    HW294971   6.207  10.838  14.788
64378SOL     OW94972  11.537   1.589   2.414
64378SOL    HW194973  11.464   1.631   2.368
64378SOL    HW294974  11.554   1.645   2.490
64379SOL     OW94975   3.551   6.095   8.504
64379SOL    HW194976   3.465   6.059   8.526
64379SOL    HW294977   3.546   6.186   8.533
64380SOL     OW94978   2.104   4.290  13.585
64380SOL    HW194979   2.089   4.337  13.667
64380SOL    HW294980   2.045   4.215  13.588
64381SOL     OW94981  10.469  12.537  11.461
64381SOL    HW194982  10.478  12.564  11.553
64381SOL    HW294983  10.472  12.442  11.464
64382SOL     OW94984  11.788   1.964   8.098
64382SOL    HW194985  11.756   1.884   8.140
64382SOL    HW294986  11.712   2.022   8.095
64383SOL     OW94987   5.950   5.696   7.157
64383SOL    HW194988   5.978   5.755   7.227
64383SOL    HW294989   5.987   5.735   7.077
64384SOL     OW94990   6.876   4.367   0.884
64384SOL    HW194991   6.851   4.354   0.793
64384SOL    HW294992   6.805   4.419   0.922
64385SOL     OW94993   7.312  12.751   7.246
64385SOL    HW194994   7.245  12.683   7.233
64385SOL    HW294995   7.388  12.719   7.197
64386SOL     OW94996   1.483   9.474   8.462
64386SOL    HW194997   1.491   9.519   8.546
64386SOL    HW294998   1.540   9.398   8.470
64387SOL     OW94999   1.625  12.043   8.067
64387SOL    HW195000   1.556  11.989   8.028
64387SOL    HW295001   1.581  12.093   8.135
64388SOL     OW95002   5.718   1.143   7.146
64388SOL    HW195003   5.796   1.110   7.190
64388SOL    HW295004   5.744   1.156   7.055
64389SOL     OW95005   7.454   5.570  10.983
64389SOL    HW195006   7.446   5.477  11.006
64389SOL    HW295007   7.404   5.579  10.902
64390SOL     OW95008   0.106   7.274  14.293
64390SOL    HW195009   0.038   7.296  14.358
64390SOL    HW295010   0.187   7.304  14.334
64391SOL     OW95011   4.980   2.768   9.237
64391SOL    HW195012   5.065   2.741   9.273
64391SOL    HW295013   4.932   2.687   9.224
64392SOL     OW95014   9.704   4.334  10.561
64392SOL    HW195015   9.627   4.306  10.510
64392SOL    HW295016   9.692   4.429  10.570
64393SOL     OW95017   6.010   2.592  13.434
64393SOL    HW195018   6.074   2.648  13.477
64393SOL    HW295019   6.062   2.526  13.389
64394SOL     OW95020   4.198   3.389   4.034
64394SOL    HW195021   4.176   3.378   3.941
64394SOL    HW295022   4.292   3.372   4.039
64395SOL     OW95023   5.039  12.204  14.379
64395SOL    HW195024   5.127  12.232  14.353
64395SOL    HW295025   5.021  12.127  14.324
64396SOL     OW95026   1.573   3.993   9.510
64396SOL    HW195027   1.562   4.085   9.534
64396SOL    HW295028   1.667   3.983   9.498
64397SOL     OW95029   1.440   4.822   0.317
64397SOL    HW195030   1.408   4.821   0.227
64397SOL    HW295031   1.503   4.750   0.321
64398SOL     OW95032  11.978  14.274   9.486
64398SOL    HW195033  11.900  14.326   9.468
64398SOL    HW295034  11.945  14.191   9.521
64399SOL     OW95035   1.963  13.973   3.357
64399SOL    HW195036   1.972  14.054   3.407
64399SOL    HW295037   1.988  13.903   3.418
64400SOL     OW95038   1.551  13.143  12.201
64400SOL    HW195039   1.471  13.166  12.155
64400SOL    HW295040   1.605  13.099  12.135
64401SOL     OW95041   1.698   2.846  12.597
64401SOL    HW195042   1.758   2.920  12.606
64401SOL    HW295043   1.696   2.827  12.504
64402SOL     OW95044   0.133   6.891   1.357
64402SOL    HW195045   0.039   6.904   1.374
64402SOL    HW295046   0.175   6.968   1.395
64403SOL     OW95047   3.246  10.698   0.752
64403SOL    HW195048   3.201  10.773   0.716
64403SOL    HW295049   3.201  10.622   0.714
64404SOL     OW95050  12.217  10.420   3.583
64404SOL    HW195051  12.165  10.481   3.635
64404SOL    HW295052  12.250  10.356   3.646
64405SOL     OW95053  10.246   6.708   3.985
64405SOL    HW195054  10.302   6.750   4.050
64405SOL    HW295055  10.184   6.656   4.037
64406SOL     OW95056  13.491   2.748  10.910
64406SOL    HW195057  13.411   2.713  10.950
64406SOL    HW295058  13.471   2.751  10.816
64407SOL     OW95059   7.907  12.925   9.960
64407SOL    HW195060   7.943  13.008   9.930
64407SOL    HW295061   7.815  12.928   9.934
64408SOL     OW95062  10.070   2.650  10.653
64408SOL    HW195063  10.164   2.644  10.665
64408SOL    HW295064  10.050   2.743  10.664
64409SOL     OW95065  14.800  12.195   0.315
64409SOL    HW195066  14.844  12.270   0.355
64409SOL    HW295067  14.862  12.122   0.328
64410SOL     OW95068   8.598  10.676  13.369
64410SOL    HW195069   8.632  10.716  13.289
64410SOL    HW295070   8.516  10.722  13.386
64411SOL     OW95071  13.871  13.516  13.437
64411SOL    HW195072  13.787  13.538  13.477
64411SOL    HW295073  13.871  13.421  13.430
64412SOL     OW95074  14.189  11.755   5.325
64412SOL    HW195075  14.279  11.751   5.292
64412SOL    HW295076  14.154  11.836   5.289
64413SOL     OW95077   3.289  11.687   7.295
64413SOL    HW195078   3.264  11.761   7.351
64413SOL    HW295079   3.384  11.686   7.298
64414SOL     OW95080   7.123   1.669   7.278
64414SOL    HW195081   7.183   1.733   7.316
64414SOL    HW295082   7.168   1.638   7.200
64415SOL     OW95083   0.645   8.740  14.190
64415SOL    HW195084   0.573   8.678  14.189
64415SOL    HW295085   0.628   8.798  14.115
64416SOL     OW95086  12.588  13.430   8.019
64416SOL    HW195087  12.586  13.514   7.973
64416SOL    HW295088  12.513  13.434   8.079
64417SOL     OW95089   8.670   2.529  13.864
64417SOL    HW195090   8.591   2.539  13.918
64417SOL    HW295091   8.707   2.617  13.860
64418SOL     OW95092   8.353   5.155   1.986
64418SOL    HW195093   8.369   5.138   2.079
64418SOL    HW295094   8.422   5.216   1.960
64419SOL     OW95095  14.233  10.952   7.361
64419SOL    HW195096  14.215  10.964   7.268
64419SOL    HW295097  14.159  10.900   7.394
64420SOL     OW95098   1.529   1.193   3.436
64420SOL    HW195099   1.447   1.217   3.478
64420SOL    HW295100   1.564   1.276   3.402
64421SOL     OW95101   9.586  12.093  10.391
64421SOL    HW195102   9.637  12.038  10.451
64421SOL    HW295103   9.555  12.032  10.324
64422SOL     OW95104   0.080   1.940   5.377
64422SOL    HW195105   0.091   2.028   5.413
64422SOL    HW295106   0.148   1.933   5.310
64423SOL     OW95107   2.313   9.559  14.420
64423SOL    HW195108   2.289   9.488  14.361
64423SOL    HW295109   2.377   9.520  14.480
64424SOL     OW95110   7.482  12.264  11.247
64424SOL    HW195111   7.473  12.249  11.153
64424SOL    HW295112   7.420  12.334  11.267
64425SOL     OW95113  10.702  11.523   7.913
64425SOL    HW195114  10.765  11.524   7.841
64425SOL    HW295115  10.617  11.511   7.871
64426SOL     OW95116  10.209  14.092   0.560
64426SOL    HW195117  10.212  13.997   0.550
64426SOL    HW295118  10.162  14.106   0.643
64427SOL     OW95119   5.396   5.660  12.549
64427SOL    HW195120   5.444   5.730  12.506
64427SOL    HW295121   5.463   5.606  12.589
64428SOL     OW95122   8.650  11.614   0.257
64428SOL    HW195123   8.581  11.579   0.200
64428SOL    HW295124   8.689  11.684   0.205
64429SOL     OW95125  12.469   7.852   9.242
64429SOL    HW195126  12.564   7.855   9.241
64429SOL    HW295127  12.442   7.901   9.164
64430SOL     OW95128   4.052  13.339  10.500
64430SOL    HW195129   3.973  13.294  10.472
64430SOL    HW295130   4.110  13.269  10.530
64431SOL     OW95131   7.053  10.908   9.423
64431SOL    HW195132   6.980  10.869   9.471
64431SOL    HW295133   7.032  11.001   9.419
64432SOL     OW95134   2.315  14.045   7.024
64432SOL    HW195135   2.227  14.079   7.005
64432SOL    HW295136   2.373  14.116   6.995
64433SOL     OW95137   3.958   7.855   3.670
64433SOL    HW195138   3.906   7.904   3.606
64433SOL    HW295139   3.952   7.764   3.641
64434SOL     OW95140  13.649  13.926  14.223
64434SOL    HW195141  13.664  14.013  14.261
64434SOL    HW295142  13.723  13.874  14.254
64435SOL     OW95143  11.143   1.769  13.053
64435SOL    HW195144  11.121   1.746  13.143
64435SOL    HW295145  11.122   1.863  13.047
64436SOL     OW95146  12.179  13.844   5.581
64436SOL    HW195147  12.125  13.858   5.503
64436SOL    HW295148  12.123  13.869   5.654
64437SOL     OW95149  10.144   9.434  11.753
64437SOL    HW195150  10.107   9.474  11.831
64437SOL    HW295151  10.228   9.398  11.781
64438SOL     OW95152   5.084  14.419   0.190
64438SOL    HW195153   5.006  14.416   0.245
64438SOL    HW295154   5.153  14.452   0.248
64439SOL     OW95155  11.578   5.649   2.013
64439SOL    HW195156  11.577   5.613   2.102
64439SOL    HW295157  11.581   5.573   1.956
64440SOL     OW95158   7.923   5.341  14.701
64440SOL    HW195159   7.991   5.373  14.761
64440SOL    HW295160   7.847   5.395  14.720
64441SOL     OW95161   3.346   8.373  12.525
64441SOL    HW195162   3.275   8.320  12.489
64441SOL    HW295163   3.356   8.342  12.615
64442SOL     OW95164   0.496   4.537   1.011
64442SOL    HW195165   0.423   4.567   1.065
64442SOL    HW295166   0.493   4.593   0.933
64443SOL     OW95167   0.856   9.056   8.889
64443SOL    HW195168   0.881   9.101   8.808
64443SOL    HW295169   0.885   8.966   8.877
64444SOL     OW95170   6.327   3.485   7.153
64444SOL    HW195171   6.417   3.516   7.147
64444SOL    HW295172   6.284   3.549   7.211
64445SOL     OW95173  13.748   7.559   6.560
64445SOL    HW195174  13.729   7.551   6.467
64445SOL    HW295175  13.776   7.471   6.586
64446SOL     OW95176   4.375  13.180   0.342
64446SOL    HW195177   4.378  13.113   0.410
64446SOL    HW295178   4.435  13.248   0.372
64447SOL     OW95179   5.548  11.329  10.157
64447SOL    HW195180   5.578  11.392  10.093
64447SOL    HW295181   5.477  11.374  10.203
64448SOL     OW95182  13.935   3.432   4.945
64448SOL    HW195183  13.954   3.509   5.000
64448SOL    HW295184  14.020   3.389   4.934
64449SOL     OW95185   2.961  11.119   8.175
64449SOL    HW195186   2.896  11.124   8.245
64449SOL    HW295187   2.910  11.121   8.094
64450SOL     OW95188   1.545   4.375   0.588
64450SOL    HW195189   1.453   4.391   0.608
64450SOL    HW295190   1.582   4.342   0.670
64451SOL     OW95191   8.565   4.549   2.936
64451SOL    HW195192   8.565   4.505   2.851
64451SOL    HW295193   8.657   4.559   2.958
64452SOL     OW95194   7.582   0.475   3.980
64452SOL    HW195195   7.670   0.512   3.982
64452SOL    HW295196   7.527   0.544   4.018
64453SOL     OW95197  12.342   9.343   7.692
64453SOL    HW195198  12.370   9.349   7.783
64453SOL    HW295199  12.311   9.253   7.682
64454SOL     OW95200  11.351   1.585   0.093
64454SOL    HW195201  11.332   1.672   0.126
64454SOL    HW295202  11.306   1.580   0.009
64455SOL     OW95203   6.208  13.067   3.492
64455SOL    HW195204   6.274  13.048   3.425
64455SOL    HW295205   6.225  13.158   3.516
64456SOL     OW95206   1.937   1.796  11.568
64456SOL    HW195207   1.842   1.792  11.560
64456SOL    HW295208   1.960   1.885  11.542
64457SOL     OW95209   9.548   2.184   9.191
64457SOL    HW195210   9.568   2.225   9.275
64457SOL    HW295211   9.455   2.163   9.196
64458SOL     OW95212   4.710   9.869   3.269
64458SOL    HW195213   4.697   9.781   3.304
64458SOL    HW295214   4.804   9.872   3.250
64459SOL     OW95215   8.101  11.922   1.632
64459SOL    HW195216   8.149  11.844   1.661
64459SOL    HW295217   8.030  11.931   1.695
64460SOL     OW95218   5.556   4.426   5.200
64460SOL    HW195219   5.629   4.487   5.207
64460SOL    HW295220   5.514   4.448   5.117
64461SOL     OW95221   8.007   8.519  10.282
64461SOL    HW195222   7.950   8.482  10.214
64461SOL    HW295223   7.946   8.549  10.350
64462SOL     OW95224   0.932   6.723  14.623
64462SOL    HW195225   0.869   6.706  14.692
64462SOL    HW295226   0.907   6.664  14.552
64463SOL     OW95227  11.236   3.837   3.647
64463SOL    HW195228  11.282   3.767   3.693
64463SOL    HW295229  11.200   3.892   3.716
64464SOL     OW95230  13.500   8.088  10.176
64464SOL    HW195231  13.439   8.158  10.199
64464SOL    HW295232  13.558   8.128  10.111
64465SOL     OW95233   3.409  13.658   7.532
64465SOL    HW195234   3.460  13.718   7.586
64465SOL    HW295235   3.475  13.608   7.483
64466SOL     OW95236   8.611   1.361   1.482
64466SOL    HW195237   8.603   1.357   1.578
64466SOL    HW295238   8.659   1.442   1.466
64467SOL     OW95239  14.573   2.622   1.305
64467SOL    HW195240  14.534   2.694   1.354
64467SOL    HW295241  14.571   2.651   1.214
64468SOL     OW95242   9.178   2.121   7.537
64468SOL    HW195243   9.179   2.104   7.632
64468SOL    HW295244   9.269   2.136   7.514
64469SOL     OW95245   0.427  13.661   8.661
64469SOL    HW195246   0.438  13.738   8.605
64469SOL    HW295247   0.455  13.690   8.748
64470SOL     OW95248   3.287   6.571  12.142
64470SOL    HW195249   3.345   6.645  12.124
64470SOL    HW295250   3.242   6.594  12.223
64471SOL     OW95251  13.186  13.760   8.065
64471SOL    HW195252  13.213  13.683   8.014
64471SOL    HW295253  13.214  13.741   8.154
64472SOL     OW95254   5.115   2.462   8.545
64472SOL    HW195255   5.067   2.422   8.473
64472SOL    HW295256   5.071   2.547   8.558
64473SOL     OW95257  12.884   8.869   9.081
64473SOL    HW195258  12.976   8.893   9.092
64473SOL    HW295259  12.885   8.797   9.018
64474SOL     OW95260   9.602  14.370   4.919
64474SOL    HW195261   9.528  14.410   4.872
64474SOL    HW295262   9.660  14.444   4.939
64475SOL     OW95263  11.816   2.877   9.684
64475SOL    HW195264  11.837   2.851   9.773
64475SOL    HW295265  11.735   2.928   9.692
64476SOL     OW95266  14.626  11.291  11.223
64476SOL    HW195267  14.626  11.196  11.223
64476SOL    HW295268  14.662  11.316  11.138
64477SOL     OW95269   8.663  12.619  10.256
64477SOL    HW195270   8.749  12.587  10.282
64477SOL    HW295271   8.603  12.548  10.280
64478SOL     OW95272  13.013   6.456   6.736
64478SOL    HW195273  12.931   6.449   6.785
64478SOL    HW295274  12.996   6.524   6.671
64479SOL     OW95275   1.812   1.936   6.187
64479SOL    HW195276   1.802   1.877   6.262
64479SOL    HW295277   1.748   2.005   6.202
64480SOL     OW95278   2.552   6.341  13.321
64480SOL    HW195279   2.543   6.268  13.382
64480SOL    HW295280   2.608   6.404  13.367
64481SOL     OW95281   0.062   5.107  14.748
64481SOL    HW195282   0.135   5.078  14.803
64481SOL    HW295283   0.037   5.029  14.698
64482SOL     OW95284   6.273   1.973   6.862
64482SOL    HW195285   6.291   1.913   6.934
64482SOL    HW295286   6.247   1.916   6.790
64483SOL     OW95287   6.961   2.637   4.489
64483SOL    HW195288   6.908   2.705   4.531
64483SOL    HW295289   7.003   2.682   4.416
64484SOL     OW95290   3.673   4.162   5.892
64484SOL    HW195291   3.594   4.123   5.855
64484SOL    HW295292   3.656   4.168   5.986
64485SOL     OW95293  14.067   7.852   3.757
64485SOL    HW195294  14.127   7.821   3.824
64485SOL    HW295295  13.981   7.819   3.784
64486SOL     OW95296  14.614   6.972  14.864
64486SOL    HW195297  14.616   7.056  14.818
64486SOL    HW295298  14.705   6.957   0.010
64487SOL     OW95299  10.693   9.287   9.881
64487SOL    HW195300  10.728   9.238   9.956
64487SOL    HW295301  10.598   9.282   9.891
64488SOL     OW95302   9.114   2.616   0.397
64488SOL    HW195303   9.058   2.629   0.320
64488SOL    HW295304   9.086   2.532   0.432
64489SOL     OW95305   8.540   5.517   9.518
64489SOL    HW195306   8.584   5.476   9.593
64489SOL    HW295307   8.448   5.491   9.527
64490SOL     OW95308   8.911  11.607   6.166
64490SOL    HW195309   9.006  11.616   6.166
64490SOL    HW295310   8.880  11.679   6.112
64491SOL     OW95311   5.039  12.336  14.636
64491SOL    HW195312   5.115  12.365  14.687
64491SOL    HW295313   5.074  12.319  14.548
64492SOL     OW95314   7.827   4.044  10.819
64492SOL    HW195315   7.894   4.007  10.761
64492SOL    HW295316   7.767   4.089  10.760
64493SOL     OW95317   5.736   7.945   6.403
64493SOL    HW195318   5.753   8.028   6.359
64493SOL    HW295319   5.823   7.913   6.428
64494SOL     OW95320   9.904  12.532   0.123
64494SOL    HW195321   9.811  12.554   0.131
64494SOL    HW295322   9.905  12.437   0.109
64495SOL     OW95323   9.207   9.713   7.714
64495SOL    HW195324   9.199   9.705   7.809
64495SOL    HW295325   9.117   9.707   7.682
64496SOL     OW95326  12.570   4.615   4.568
64496SOL    HW195327  12.504   4.684   4.577
64496SOL    HW295328  12.558   4.560   4.645
64497SOL     OW95329   9.141  13.123  12.160
64497SOL    HW195330   9.121  13.031  12.141
64497SOL    HW295331   9.166  13.160  12.075
64498SOL     OW95332  12.429   1.806   1.695
64498SOL    HW195333  12.484   1.787   1.770
64498SOL    HW295334  12.340   1.786   1.724
64499SOL     OW95335   8.481   6.192   0.443
64499SOL    HW195336   8.528   6.112   0.465
64499SOL    HW295337   8.397   6.162   0.408
64500SOL     OW95338   2.919   9.814   6.872
64500SOL    HW195339   2.859   9.881   6.906
64500SOL    HW295340   2.868   9.768   6.806
64501SOL     OW95341   7.121   4.119   3.809
64501SOL    HW195342   7.048   4.156   3.759
64501SOL    HW295343   7.082   4.094   3.893
64502SOL     OW95344   8.621  14.399  10.051
64502SOL    HW195345   8.676  14.373  10.125
64502SOL    HW295346   8.543  14.437  10.091
64503SOL     OW95347   9.506   4.688   5.259
64503SOL    HW195348   9.592   4.703   5.297
64503SOL    HW295349   9.513   4.604   5.214
64504SOL     OW95350   1.388   9.295   0.134
64504SOL    HW195351   1.313   9.309   0.192
64504SOL    HW295352   1.357   9.229   0.072
64505SOL     OW95353  12.580  10.576  13.107
64505SOL    HW195354  12.525  10.653  13.089
64505SOL    HW295355  12.583  10.571  13.202
64506SOL     OW95356   2.348   5.149   3.122
64506SOL    HW195357   2.393   5.072   3.086
64506SOL    HW295358   2.283   5.113   3.182
64507SOL     OW95359   3.334   4.455   0.685
64507SOL    HW195360   3.374   4.370   0.702
64507SOL    HW295361   3.370   4.483   0.601
64508SOL     OW95362   9.461   8.078   5.953
64508SOL    HW195363   9.544   8.043   5.986
64508SOL    HW295364   9.405   8.001   5.942
64509SOL     OW95365   0.403   7.411   2.469
64509SOL    HW195366   0.472   7.464   2.430
64509SOL    HW295367   0.361   7.368   2.394
64510SOL     OW95368  13.478   0.643   8.351
64510SOL    HW195369  13.482   0.671   8.259
64510SOL    HW295370  13.524   0.711   8.399
64511SOL     OW95371  14.608   1.188   9.321
64511SOL    HW195372  14.693   1.194   9.276
64511SOL    HW295373  14.554   1.254   9.279
64512SOL     OW95374  12.319   3.952   3.554
64512SOL    HW195375  12.396   3.895   3.566
64512SOL    HW295376  12.313   4.001   3.636
64513SOL     OW95377   4.377  14.677   8.390
64513SOL    HW195378   4.404  14.769   8.393
64513SOL    HW295379   4.456  14.628   8.410
64514SOL     OW95380   4.438   9.489  14.836
64514SOL    HW195381   4.509   9.459  14.780
64514SOL    HW295382   4.461   9.579  14.859
64515SOL     OW95383  11.300   0.622   0.947
64515SOL    HW195384  11.371   0.651   0.890
64515SOL    HW295385  11.310   0.672   1.027
64516SOL     OW95386   0.016   3.657   3.394
64516SOL    HW195387  14.861   3.673   3.306
64516SOL    HW295388  14.818   3.644   3.448
64517SOL     OW95389   6.650   2.310   6.894
64517SOL    HW195390   6.667   2.255   6.970
64517SOL    HW295391   6.565   2.350   6.911
64518SOL     OW95392   2.145   7.963   8.345
64518SOL    HW195393   2.220   7.903   8.353
64518SOL    HW295394   2.074   7.917   8.390
64519SOL     OW95395   4.055   6.377   1.357
64519SOL    HW195396   4.131   6.327   1.385
64519SOL    HW295397   4.089   6.439   1.292
64520SOL     OW95398  12.218   9.048   5.381
64520SOL    HW195399  12.205   9.138   5.412
64520SOL    HW295400  12.298   9.019   5.424
64521SOL     OW95401   0.752  11.807   8.591
64521SOL    HW195402   0.681  11.865   8.616
64521SOL    HW295403   0.801  11.857   8.525
64522SOL     OW95404   7.522   3.422   5.632
64522SOL    HW195405   7.521   3.326   5.626
64522SOL    HW295406   7.459   3.450   5.566
64523SOL     OW95407  11.453  10.398   0.782
64523SOL    HW195408  11.523  10.446   0.739
64523SOL    HW295409  11.418  10.459   0.846
64524SOL     OW95410  14.525   2.949  12.000
64524SOL    HW195411  14.495   2.977  11.913
64524SOL    HW295412  14.620   2.943  11.992
64525SOL     OW95413  12.176   4.245   4.302
64525SOL    HW195414  12.109   4.191   4.345
64525SOL    HW295415  12.126   4.315   4.259
64526SOL     OW95416  12.382   4.775   6.276
64526SOL    HW195417  12.444   4.712   6.240
64526SOL    HW295418  12.437   4.837   6.324
64527SOL     OW95419  12.317  13.434   1.326
64527SOL    HW195420  12.300  13.341   1.312
64527SOL    HW295421  12.365  13.462   1.248
64528SOL     OW95422  11.242   5.773  13.706
64528SOL    HW195423  11.296   5.694  13.714
64528SOL    HW295424  11.181   5.752  13.635
64529SOL     OW95425   6.367  14.243  12.126
64529SOL    HW195426   6.356  14.156  12.166
64529SOL    HW295427   6.293  14.252  12.066
64530SOL     OW95428  14.596   6.278   5.021
64530SOL    HW195429  14.613   6.270   4.927
64530SOL    HW295430  14.655   6.214   5.062
64531SOL     OW95431   2.322  12.982  13.459
64531SOL    HW195432   2.373  13.052  13.501
64531SOL    HW295433   2.269  13.028  13.393
64532SOL     OW95434   4.173   6.989  11.107
64532SOL    HW195435   4.109   7.038  11.159
64532SOL    HW295436   4.225   7.056  11.062
64533SOL     OW95437   3.517   3.712   6.250
64533SOL    HW195438   3.452   3.661   6.297
64533SOL    HW295439   3.587   3.727   6.313
64534SOL     OW95440  12.137  12.530   5.565
64534SOL    HW195441  12.159  12.609   5.516
64534SOL    HW295442  12.046  12.511   5.540
64535SOL     OW95443   6.085   1.781  11.299
64535SOL    HW195444   6.161   1.832  11.327
64535SOL    HW295445   6.116   1.733  11.222
64536SOL     OW95446   3.878   7.431  10.285
64536SOL    HW195447   3.834   7.484  10.219
64536SOL    HW295448   3.883   7.343  10.247
64537SOL     OW95449   4.718   1.258   7.114
64537SOL    HW195450   4.802   1.303   7.127
64537SOL    HW295451   4.669   1.318   7.057
64538SOL     OW95452   8.797   4.765   3.283
64538SOL    HW195453   8.714   4.719   3.268
64538SOL    HW295454   8.792   4.842   3.226
64539SOL     OW95455  10.612   5.504   2.513
64539SOL    HW195456  10.582   5.485   2.601
64539SOL    HW295457  10.684   5.443   2.498
64540SOL     OW95458  10.803  10.794  13.586
64540SOL    HW195459  10.851  10.755  13.659
64540SOL    HW295460  10.791  10.886  13.611
64541SOL     OW95461  10.579   4.666  11.197
64541SOL    HW195462  10.587   4.679  11.103
64541SOL    HW295463  10.531   4.584  11.206
64542SOL     OW95464   9.331   2.621   3.060
64542SOL    HW195465   9.293   2.669   3.134
64542SOL    HW295466   9.277   2.542   3.053
64543SOL     OW95467   0.442   1.531   9.642
64543SOL    HW195468   0.439   1.590   9.567
64543SOL    HW295469   0.496   1.457   9.613
64544SOL     OW95470   7.245   4.402   5.071
64544SOL    HW195471   7.280   4.371   4.988
64544SOL    HW295472   7.152   4.380   5.067
64545SOL     OW95473   3.457   8.820   8.904
64545SOL    HW195474   3.483   8.855   8.819
64545SOL    HW295475   3.540   8.797   8.946
64546SOL     OW95476   4.372  14.659  10.538
64546SOL    HW195477   4.386  14.747  10.575
64546SOL    HW295478   4.389  14.600  10.612
64547SOL     OW95479   7.556   5.278   7.544
64547SOL    HW195480   7.524   5.188   7.537
64547SOL    HW295481   7.519   5.322   7.468
64548SOL     OW95482  14.396   3.393   9.712
64548SOL    HW195483  14.325   3.330   9.702
64548SOL    HW295484  14.463   3.364   9.650
64549SOL     OW95485   5.582   6.034   4.794
64549SOL    HW195486   5.531   5.953   4.794
64549SOL    HW295487   5.618   6.040   4.882
64550SOL     OW95488   4.627  12.963   1.871
64550SOL    HW195489   4.547  13.014   1.854
64550SOL    HW295490   4.662  12.944   1.784
64551SOL     OW95491   7.839   4.995  14.258
64551SOL    HW195492   7.901   4.976  14.329
64551SOL    HW295493   7.844   5.090  14.247
64552SOL     OW95494  12.933   1.687  11.394
64552SOL    HW195495  12.913   1.733  11.475
64552SOL    HW295496  13.022   1.655  11.405
64553SOL     OW95497   0.220  11.433   9.824
64553SOL    HW195498   0.286  11.436   9.755
64553SOL    HW295499   0.158  11.502   9.801
64554SOL     OW95500  10.768  14.301  10.576
64554SOL    HW195501  10.838  14.317  10.512
64554SOL    HW295502  10.689  14.290  10.522
64555SOL     OW95503   6.229   3.209  12.780
64555SOL    HW195504   6.236   3.124  12.737
64555SOL    HW295505   6.296   3.207  12.848
64556SOL     OW95506   1.260  13.611   4.218
64556SOL    HW195507   1.306  13.527   4.214
64556SOL    HW295508   1.193  13.599   4.286
64557SOL     OW95509  13.754   7.999   0.799
64557SOL    HW195510  13.685   8.020   0.736
64557SOL    HW295511  13.828   8.055   0.772
64558SOL     OW95512   4.478   5.543   7.913
64558SOL    HW195513   4.503   5.635   7.924
64558SOL    HW295514   4.430   5.542   7.831
64559SOL     OW95515  12.127   4.606   7.733
64559SOL    HW195516  12.039   4.586   7.765
64559SOL    HW295517  12.159   4.675   7.792
64560SOL     OW95518   0.691   2.960   5.322
64560SOL    HW195519   0.666   2.868   5.330
64560SOL    HW295520   0.659   3.001   5.402
64561SOL     OW95521   7.556   1.954   8.271
64561SOL    HW195522   7.551   1.869   8.314
64561SOL    HW295523   7.648   1.979   8.276
64562SOL     OW95524  12.157   9.405   6.568
64562SOL    HW195525  12.066   9.417   6.595
64562SOL    HW295526  12.208   9.445   6.638
64563SOL     OW95527  12.276   2.850   7.227
64563SOL    HW195528  12.303   2.759   7.229
64563SOL    HW295529  12.190   2.850   7.269
64564SOL     OW95530   6.312  12.091   0.313
64564SOL    HW195531   6.379  12.068   0.378
64564SOL    HW295532   6.263  12.011   0.300
64565SOL     OW95533   3.003   0.197   8.519
64565SOL    HW195534   3.041   0.134   8.581
64565SOL    HW295535   3.075   0.216   8.458
64566SOL     OW95536  10.778   1.004  10.126
64566SOL    HW195537  10.764   1.087  10.171
64566SOL    HW295538  10.689   0.971  10.109
64567SOL     OW95539  11.709  11.421  10.483
64567SOL    HW195540  11.762  11.484  10.435
64567SOL    HW295541  11.766  11.345  10.494
64568SOL     OW95542   4.041   1.990  14.019
64568SOL    HW195543   4.055   1.901  14.052
64568SOL    HW295544   4.061   1.985  13.925
64569SOL     OW95545   9.259   9.186   1.356
64569SOL    HW195546   9.289   9.244   1.287
64569SOL    HW295547   9.339   9.141   1.386
64570SOL     OW95548   2.103   0.475   5.617
64570SOL    HW195549   2.036   0.436   5.560
64570SOL    HW295550   2.151   0.534   5.559
64571SOL     OW95551  11.272  10.625  13.803
64571SOL    HW195552  11.288  10.647  13.895
64571SOL    HW295553  11.344  10.666  13.756
64572SOL     OW95554   4.725   9.034  14.499
64572SOL    HW195555   4.728   8.964  14.566
64572SOL    HW295556   4.817   9.054  14.482
64573SOL     OW95557   2.717  10.504   2.021
64573SOL    HW195558   2.625  10.531   2.022
64573SOL    HW295559   2.715  10.412   1.998
64574SOL     OW95560   6.665  12.723   5.968
64574SOL    HW195561   6.644  12.790   5.903
64574SOL    HW295562   6.730  12.668   5.926
64575SOL     OW95563   7.590   7.432   1.115
64575SOL    HW195564   7.652   7.490   1.160
64575SOL    HW295565   7.630   7.417   1.029
64576SOL     OW95566   1.481  14.061  12.067
64576SOL    HW195567   1.571  14.040  12.093
64576SOL    HW295568   1.484  14.066  11.972
64577SOL     OW95569  11.947   4.393  10.531
64577SOL    HW195570  11.998   4.371  10.610
64577SOL    HW295571  11.991   4.346  10.461
64578SOL     OW95572  11.757   9.196  14.386
64578SOL    HW195573  11.824   9.156  14.441
64578SOL    HW295574  11.787   9.287  14.374
64579SOL     OW95575   5.433   1.063  13.792
64579SOL    HW195576   5.496   1.124  13.754
64579SOL    HW295577   5.486   0.992  13.829
64580SOL     OW95578   2.479   6.016   6.580
64580SOL    HW195579   2.560   5.974   6.552
64580SOL    HW295580   2.468   5.988   6.671
64581SOL     OW95581   2.492  10.917   4.313
64581SOL    HW195582   2.432  10.990   4.323
64581SOL    HW295583   2.468  10.855   4.383
64582SOL     OW95584   3.768  12.193   4.298
64582SOL    HW195585   3.733  12.119   4.248
64582SOL    HW295586   3.719  12.269   4.266
64583SOL     OW95587   0.642  12.211   5.479
64583SOL    HW195588   0.645  12.297   5.438
64583SOL    HW295589   0.724  12.169   5.454
64584SOL     OW95590   0.245  13.008   8.304
64584SOL    HW195591   0.191  12.971   8.374
64584SOL    HW295592   0.308  12.939   8.283
64585SOL     OW95593   1.904   6.995   6.495
64585SOL    HW195594   1.880   6.934   6.425
64585SOL    HW295595   1.844   7.068   6.484
64586SOL     OW95596   8.026   8.911  10.202
64586SOL    HW195597   8.109   8.883  10.163
64586SOL    HW295598   7.965   8.841  10.179
64587SOL     OW95599   0.350   6.196  12.645
64587SOL    HW195600   0.430   6.157  12.681
64587SOL    HW295601   0.370   6.290  12.639
64588SOL     OW95602  11.543   1.064  10.297
64588SOL    HW195603  11.598   0.986  10.314
64588SOL    HW295604  11.457   1.028  10.278
64589SOL     OW95605   4.782   6.478  10.257
64589SOL    HW195606   4.820   6.538  10.192
64589SOL    HW295607   4.857   6.449  10.309
64590SOL     OW95608   5.270  13.171   1.769
64590SOL    HW195609   5.260  13.100   1.832
64590SOL    HW295610   5.362  13.169   1.744
64591SOL     OW95611   8.004   8.426  12.923
64591SOL    HW195612   7.964   8.355  12.872
64591SOL    HW295613   7.941   8.498  12.919
64592SOL     OW95614   4.201   7.437   6.338
64592SOL    HW195615   4.205   7.528   6.369
64592SOL    HW295616   4.269   7.432   6.270
64593SOL     OW95617   8.678   7.355   9.284
64593SOL    HW195618   8.608   7.315   9.335
64593SOL    HW295619   8.699   7.436   9.331
64594SOL     OW95620   8.271   3.770   0.448
64594SOL    HW195621   8.220   3.838   0.492
64594SOL    HW295622   8.206   3.717   0.401
64595SOL     OW95623   6.886   6.726   5.086
64595SOL    HW195624   6.935   6.672   5.148
64595SOL    HW295625   6.865   6.666   5.015
64596SOL     OW95626   2.193   4.711   8.814
64596SOL    HW195627   2.251   4.769   8.863
64596SOL    HW295628   2.252   4.657   8.762
64597SOL     OW95629   5.819   5.062   3.220
64597SOL    HW195630   5.770   4.990   3.182
64597SOL    HW295631   5.754   5.110   3.271
64598SOL     OW95632  13.623  11.626   1.320
64598SOL    HW195633  13.593  11.565   1.388
64598SOL    HW295634  13.718  11.614   1.317
64599SOL     OW95635   2.457   5.952   1.159
64599SOL    HW195636   2.479   6.040   1.188
64599SOL    HW295637   2.542   5.910   1.145
64600SOL     OW95638  14.238  12.711  11.798
64600SOL    HW195639  14.244  12.616  11.790
64600SOL    HW295640  14.144  12.729  11.796
64601SOL     OW95641  11.578   3.994   9.844
64601SOL    HW195642  11.566   4.039   9.928
64601SOL    HW295643  11.532   3.910   9.855
64602SOL     OW95644  14.722   0.812   7.681
64602SOL    HW195645  14.775   0.748   7.633
64602SOL    HW295646  14.683   0.762   7.752
64603SOL     OW95647  10.570   2.111  13.206
64603SOL    HW195648  10.654   2.078  13.175
64603SOL    HW295649  10.505   2.056  13.162
64604SOL     OW95650  10.351  10.010   1.942
64604SOL    HW195651  10.352   9.966   2.027
64604SOL    HW295652  10.335   9.939   1.879
64605SOL     OW95653  10.656   2.180   3.962
64605SOL    HW195654  10.604   2.260   3.962
64605SOL    HW295655  10.593   2.111   3.985
64606SOL     OW95656   6.335   8.662   6.330
64606SOL    HW195657   6.423   8.701   6.336
64606SOL    HW295658   6.287   8.701   6.403
64607SOL     OW95659   8.370   8.306   0.086
64607SOL    HW195660   8.396   8.393   0.120
64607SOL    HW295661   8.374   8.249   0.163
64608SOL     OW95662   3.142  11.710   2.292
64608SOL    HW195663   3.162  11.677   2.379
64608SOL    HW295664   3.057  11.670   2.271
64609SOL     OW95665   0.352   6.879   4.337
64609SOL    HW195666   0.359   6.917   4.250
64609SOL    HW295667   0.435   6.902   4.380
64610SOL     OW95668   1.124   3.328   0.532
64610SOL    HW195669   1.198   3.387   0.541
64610SOL    HW295670   1.078   3.358   0.454
64611SOL     OW95671   0.615  14.589   3.629
64611SOL    HW195672   0.691  14.590   3.688
64611SOL    HW295673   0.610  14.498   3.600
64612SOL     OW95674  12.119   5.543   7.461
64612SOL    HW195675  12.108   5.449   7.446
64612SOL    HW295676  12.199   5.566   7.414
64613SOL     OW95677   2.301  10.044  10.122
64613SOL    HW195678   2.365  10.107  10.155
64613SOL    HW295679   2.301  10.056  10.027
64614SOL     OW95680   5.535   1.109   5.728
64614SOL    HW195681   5.522   1.052   5.653
64614SOL    HW295682   5.479   1.185   5.710
64615SOL     OW95683  12.058  10.466   5.624
64615SOL    HW195684  12.083  10.553   5.593
64615SOL    HW295685  12.133  10.436   5.674
64616SOL     OW95686  11.427  10.456  11.497
64616SOL    HW195687  11.513  10.449  11.538
64616SOL    HW295688  11.372  10.396  11.548
64617SOL     OW95689   7.993   7.126  12.982
64617SOL    HW195690   7.982   7.137  12.887
64617SOL    HW295691   8.088   7.127  12.995
64618SOL     OW95692   6.738  13.698   3.153
64618SOL    HW195693   6.658  13.649   3.174
64618SOL    HW295694   6.710  13.766   3.093
64619SOL     OW95695  10.849   9.446   6.422
64619SOL    HW195696  10.895   9.364   6.406
64619SOL    HW295697  10.880   9.474   6.509
64620SOL     OW95698   5.115   2.067   1.939
64620SOL    HW195699   5.132   2.133   1.872
64620SOL    HW295700   5.029   2.031   1.916
64621SOL     OW95701   8.093  11.400   8.668
64621SOL    HW195702   8.142  11.437   8.595
64621SOL    HW295703   8.158  11.351   8.718
64622SOL     OW95704   5.575  13.946   1.797
64622SOL    HW195705   5.596  14.031   1.838
64622SOL    HW295706   5.656  13.895   1.806
64623SOL     OW95707   6.170   5.704  12.413
64623SOL    HW195708   6.085   5.663  12.400
64623SOL    HW295709   6.154   5.772  12.477
64624SOL     OW95710  14.507   1.338  13.111
64624SOL    HW195711  14.428   1.298  13.147
64624SOL    HW295712  14.578   1.300  13.162
64625SOL     OW95713   0.734   6.447  11.233
64625SOL    HW195714   0.796   6.391  11.279
64625SOL    HW295715   0.733   6.529  11.284
64626SOL     OW95716  14.603   6.253   8.681
64626SOL    HW195717  14.567   6.213   8.603
64626SOL    HW295718  14.560   6.339   8.686
64627SOL     OW95719   8.599   2.278   7.728
64627SOL    HW195720   8.529   2.317   7.780
64627SOL    HW295721   8.657   2.350   7.707
64628SOL     OW95722   3.253   9.720   1.654
64628SOL    HW195723   3.327   9.728   1.594
64628SOL    HW295724   3.237   9.809   1.685
64629SOL     OW95725   1.529   7.601  14.154
64629SOL    HW195726   1.527   7.642  14.068
64629SOL    HW295727   1.522   7.675  14.216
64630SOL     OW95728   0.599   6.368   6.416
64630SOL    HW195729   0.620   6.299   6.479
64630SOL    HW295730   0.566   6.440   6.469
64631SOL     OW95731   0.592   6.804  10.871
64631SOL    HW195732   0.645   6.846  10.939
64631SOL    HW295733   0.502   6.817  10.900
64632SOL     OW95734   7.042  12.642   5.907
64632SOL    HW195735   6.971  12.577   5.901
64632SOL    HW295736   7.096  12.611   5.980
64633SOL     OW95737   7.656   1.349   9.531
64633SOL    HW195738   7.654   1.260   9.498
64633SOL    HW295739   7.626   1.403   9.458
64634SOL     OW95740   2.725   0.266   4.105
64634SOL    HW195741   2.680   0.245   4.023
64634SOL    HW295742   2.690   0.205   4.169
64635SOL     OW95743   3.940  10.861   2.076
64635SOL    HW195744   3.994  10.937   2.097
64635SOL    HW295745   3.990  10.815   2.008
64636SOL     OW95746   4.621   1.188   8.982
64636SOL    HW195747   4.694   1.208   8.924
64636SOL    HW295748   4.546   1.235   8.945
64637SOL     OW95749  11.640  12.032   1.456
64637SOL    HW195750  11.672  12.084   1.529
64637SOL    HW295751  11.548  12.014   1.477
64638SOL     OW95752   1.850   9.627   9.736
64638SOL    HW195753   1.839   9.684   9.660
64638SOL    HW295754   1.770   9.638   9.787
64639SOL     OW95755   8.742  12.018   4.708
64639SOL    HW195756   8.819  11.966   4.730
64639SOL    HW295757   8.669  11.956   4.711
64640SOL     OW95758  12.594   6.819   8.803
64640SOL    HW195759  12.501   6.823   8.825
64640SOL    HW295760  12.597   6.761   8.727
64641SOL     OW95761   6.545   2.757   2.546
64641SOL    HW195762   6.638   2.740   2.538
64641SOL    HW295763   6.529   2.833   2.490
64642SOL     OW95764   5.783   4.354  13.410
64642SOL    HW195765   5.781   4.412  13.486
64642SOL    HW295766   5.698   4.310  13.412
64643SOL     OW95767   0.563   2.595   9.839
64643SOL    HW195768   0.572   2.566   9.930
64643SOL    HW295769   0.521   2.681   9.846
64644SOL     OW95770   9.621   9.898   3.187
64644SOL    HW195771   9.582   9.811   3.182
64644SOL    HW295772   9.715   9.883   3.177
64645SOL     OW95773   6.314  10.580   3.793
64645SOL    HW195774   6.373  10.508   3.774
64645SOL    HW295775   6.347  10.653   3.740
64646SOL     OW95776  14.647   1.040   8.903
64646SOL    HW195777  14.634   0.960   8.853
64646SOL    HW295778  14.685   1.102   8.840
64647SOL     OW95779   7.026   1.062   8.582
64647SOL    HW195780   6.957   1.047   8.518
64647SOL    HW295781   7.090   1.116   8.536
64648SOL     OW95782  14.662   6.390   1.606
64648SOL    HW195783  14.718   6.456   1.566
64648SOL    HW295784  14.680   6.310   1.557
64649SOL     OW95785   6.098   3.290   1.054
64649SOL    HW195786   6.103   3.333   0.969
64649SOL    HW295787   6.065   3.358   1.113
64650SOL     OW95788   5.733   2.691   4.000
64650SOL    HW195789   5.706   2.600   3.997
64650SOL    HW295790   5.829   2.688   3.995
64651SOL     OW95791  14.450   7.335   9.893
64651SOL    HW195792  14.361   7.301   9.904
64651SOL    HW295793  14.467   7.385   9.972
64652SOL     OW95794   5.581   3.857   1.539
64652SOL    HW195795   5.501   3.896   1.577
64652SOL    HW295796   5.586   3.770   1.579
64653SOL     OW95797   2.537   1.735   7.046
64653SOL    HW195798   2.521   1.706   6.956
64653SOL    HW295799   2.613   1.684   7.075
64654SOL     OW95800   6.563   1.719  13.474
64654SOL    HW195801   6.638   1.695  13.420
64654SOL    HW295802   6.550   1.643  13.531
64655SOL     OW95803   6.278  11.405   9.109
64655SOL    HW195804   6.360  11.431   9.066
64655SOL    HW295805   6.225  11.485   9.108
64656SOL     OW95806   8.214  12.668   5.226
64656SOL    HW195807   8.240  12.758   5.209
64656SOL    HW295808   8.119  12.667   5.217
64657SOL     OW95809   4.190   5.782  12.593
64657SOL    HW195810   4.096   5.781  12.614
64657SOL    HW295811   4.194   5.753  12.502
64658SOL     OW95812   4.925   0.049  13.170
64658SOL    HW195813   4.841   0.021  13.205
64658SOL    HW295814   4.908   0.070  13.078
64659SOL     OW95815   8.227   6.159  10.708
64659SOL    HW195816   8.260   6.073  10.733
64659SOL    HW295817   8.220   6.206  10.791
64660SOL     OW95818   9.145   0.057   8.140
64660SOL    HW195819   9.223   0.100   8.175
64660SOL    HW295820   9.164   0.045   8.047
64661SOL     OW95821   9.079  12.375   0.867
64661SOL    HW195822   9.122  12.386   0.952
64661SOL    HW295823   9.055  12.283   0.864
64662SOL     OW95824  13.190  14.555   9.082
64662SOL    HW195825  13.283  14.573   9.079
64662SOL    HW295826  13.180  14.472   9.035
64663SOL     OW95827  13.145   7.999  14.482
64663SOL    HW195828  13.202   7.949  14.423
64663SOL    HW295829  13.146   8.088  14.445
64664SOL     OW95830  11.158   0.065   6.544
64664SOL    HW195831  11.110   0.144   6.520
64664SOL    HW295832  11.246   0.095   6.565
64665SOL     OW95833   6.769   7.479   2.751
64665SOL    HW195834   6.858   7.469   2.785
64665SOL    HW295835   6.748   7.571   2.763
64666SOL     OW95836  14.391   6.047   8.883
64666SOL    HW195837  14.403   6.109   8.811
64666SOL    HW295838  14.414   5.962   8.845
64667SOL     OW95839   4.798  13.917   5.858
64667SOL    HW195840   4.806  14.006   5.892
64667SOL    HW295841   4.768  13.865   5.932
64668SOL     OW95842   2.754   9.426   6.663
64668SOL    HW195843   2.749   9.486   6.738
64668SOL    HW295844   2.847   9.422   6.642
64669SOL     OW95845   4.734   3.026   3.207
64669SOL    HW195846   4.675   3.040   3.133
64669SOL    HW295847   4.821   3.048   3.173
64670SOL     OW95848  11.411   4.656   5.286
64670SOL    HW195849  11.360   4.634   5.208
64670SOL    HW295850  11.412   4.575   5.338
64671SOL     OW95851  11.633   0.070   4.990
64671SOL    HW195852  11.653   0.094   5.081
64671SOL    HW295853  11.543   0.037   4.994
64672SOL     OW95854   2.203  13.586   9.394
64672SOL    HW195855   2.153  13.522   9.344
64672SOL    HW295856   2.293  13.577   9.363
64673SOL     OW95857   6.644  11.743   0.622
64673SOL    HW195858   6.668  11.719   0.712
64673SOL    HW295859   6.711  11.807   0.596
64674SOL     OW95860   0.025   1.784  12.507
64674SOL    HW195861   0.085   1.710  12.514
64674SOL    HW295862  14.869   1.794  12.596
64675SOL     OW95863   1.978   6.337   2.201
64675SOL    HW195864   1.944   6.268   2.258
64675SOL    HW295865   1.922   6.413   2.220
64676SOL     OW95866   8.582   3.989   5.867
64676SOL    HW195867   8.567   3.911   5.814
64676SOL    HW295868   8.616   4.054   5.806
64677SOL     OW95869   7.481   1.993   1.776
64677SOL    HW195870   7.441   1.943   1.848
64677SOL    HW295871   7.567   1.953   1.765
64678SOL     OW95872   2.032   2.529  13.749
64678SOL    HW195873   1.973   2.584  13.698
64678SOL    HW295874   2.095   2.496  13.684
64679SOL     OW95875   5.368   0.606   3.490
64679SOL    HW195876   5.431   0.582   3.422
64679SOL    HW295877   5.337   0.693   3.465
64680SOL     OW95878   5.511  14.117   9.226
64680SOL    HW195879   5.522  14.129   9.320
64680SOL    HW295880   5.551  14.032   9.208
64681SOL     OW95881  11.390  11.096   1.645
64681SOL    HW195882  11.448  11.034   1.600
64681SOL    HW295883  11.310  11.047   1.662
64682SOL     OW95884   0.437  10.625   9.288
64682SOL    HW195885   0.366  10.689   9.296
64682SOL    HW295886   0.431  10.593   9.199
64683SOL     OW95887   4.564  13.977   3.526
64683SOL    HW195888   4.622  14.013   3.459
64683SOL    HW295889   4.563  14.042   3.595
64684SOL     OW95890   4.096   5.377   6.445
64684SOL    HW195891   4.054   5.450   6.489
64684SOL    HW295892   4.153   5.338   6.511
64685SOL     OW95893   6.914  12.360  14.774
64685SOL    HW195894   6.942  12.287  14.830
64685SOL    HW295895   6.987  12.372  14.713
64686SOL     OW95896  11.442   1.519   8.111
64686SOL    HW195897  11.477   1.474   8.034
64686SOL    HW295898  11.358   1.477   8.128
64687SOL     OW95899  12.231   1.238  11.120
64687SOL    HW195900  12.263   1.296  11.051
64687SOL    HW295901  12.156   1.285  11.158
64688SOL     OW95902   7.996   8.337   1.386
64688SOL    HW195903   7.906   8.368   1.393
64688SOL    HW295904   8.011   8.285   1.464
64689SOL     OW95905   4.458  10.869  11.508
64689SOL    HW195906   4.398  10.942  11.494
64689SOL    HW295907   4.540  10.897  11.467
64690SOL     OW95908   9.231  13.822  14.485
64690SOL    HW195909   9.316  13.839  14.527
64690SOL    HW295910   9.254  13.805  14.394
64691SOL     OW95911  13.672   1.030  12.481
64691SOL    HW195912  13.759   0.990  12.474
64691SOL    HW295913  13.622   0.968  12.533
64692SOL     OW95914   2.172   4.883  14.542
64692SOL    HW195915   2.209   4.971  14.553
64692SOL    HW295916   2.178   4.866  14.448
64693SOL     OW95917   5.419  10.974   6.804
64693SOL    HW195918   5.376  11.001   6.723
64693SOL    HW295919   5.381  10.889   6.824
64694SOL     OW95920  13.796   3.059   4.681
64694SOL    HW195921  13.852   3.064   4.759
64694SOL    HW295922  13.797   2.966   4.657
64695SOL     OW95923   1.424   1.841  12.368
64695SOL    HW195924   1.401   1.904  12.299
64695SOL    HW295925   1.519   1.834  12.364
64696SOL     OW95926  10.516   6.189   2.073
64696SOL    HW195927  10.511   6.277   2.034
64696SOL    HW295928  10.434   6.180   2.122
64697SOL     OW95929   5.341   8.422   5.634
64697SOL    HW195930   5.405   8.464   5.692
64697SOL    HW295931   5.390   8.403   5.554
64698SOL     OW95932   8.217   5.756  14.722
64698SOL    HW195933   8.222   5.661  14.717
64698SOL    HW295934   8.249   5.787  14.638
64699SOL     OW95935  14.706   8.377  14.160
64699SOL    HW195936  14.625   8.371  14.109
64699SOL    HW295937  14.688   8.442  14.227
64700SOL     OW95938   6.494   6.894  14.748
64700SOL    HW195939   6.581   6.926  14.773
64700SOL    HW295940   6.476   6.937  14.665
64701SOL     OW95941   6.476  13.087   0.418
64701SOL    HW195942   6.489  13.174   0.456
64701SOL    HW295943   6.386  13.088   0.386
64702SOL     OW95944   2.361  10.752   5.411
64702SOL    HW195945   2.410  10.815   5.465
64702SOL    HW295946   2.404  10.754   5.326
64703SOL     OW95947   5.273  14.822  10.765
64703SOL    HW195948   5.210  14.838  10.694
64703SOL    HW295949   5.324   0.024  10.770
64704SOL     OW95950   2.584  12.021  10.743
64704SOL    HW195951   2.549  11.956  10.681
64704SOL    HW295952   2.626  11.969  10.811
64705SOL     OW95953   2.271  13.594  12.897
64705SOL    HW195954   2.343  13.654  12.919
64705SOL    HW295955   2.312  13.527  12.841
64706SOL     OW95956  13.961  11.042   0.073
64706SOL    HW195957  14.006  10.986   0.136
64706SOL    HW295958  13.914  11.106   0.127
64707SOL     OW95959   6.751   3.675   1.519
64707SOL    HW195960   6.737   3.664   1.425
64707SOL    HW295961   6.734   3.768   1.535
64708SOL     OW95962   3.198   5.085   4.783
64708SOL    HW195963   3.200   4.990   4.796
64708SOL    HW295964   3.286   5.108   4.755
64709SOL     OW95965  14.227  12.321   2.304
64709SOL    HW195966  14.302  12.272   2.338
64709SOL    HW295967  14.254  12.350   2.217
64710SOL     OW95968  11.071   6.835   1.322
64710SOL    HW195969  11.073   6.751   1.276
64710SOL    HW295970  11.021   6.818   1.402
64711SOL     OW95971   5.370  10.993   1.852
64711SOL    HW195972   5.297  11.045   1.885
64711SOL    HW295973   5.446  11.025   1.900
64712SOL     OW95974   3.473  10.334  13.047
64712SOL    HW195975   3.407  10.399  13.026
64712SOL    HW295976   3.438  10.252  13.013
64713SOL     OW95977   3.054   8.523   4.196
64713SOL    HW195978   2.962   8.537   4.174
64713SOL    HW295979   3.069   8.430   4.183
64714SOL     OW95980   1.214   1.428  11.586
64714SOL    HW195981   1.189   1.409  11.677
64714SOL    HW295982   1.258   1.349  11.556
64715SOL     OW95983   3.119   7.566  13.475
64715SOL    HW195984   3.036   7.585  13.519
64715SOL    HW295985   3.186   7.586  13.540
64716SOL     OW95986   2.239   2.556  12.787
64716SOL    HW195987   2.250   2.599  12.872
64716SOL    HW295988   2.248   2.626  12.723
64717SOL     OW95989  12.054   8.909   1.732
64717SOL    HW195990  12.136   8.882   1.773
64717SOL    HW295991  12.064   9.003   1.718
64718SOL     OW95992  14.231   3.978  13.479
64718SOL    HW195993  14.313   3.953  13.437
64718SOL    HW295994  14.163   3.934  13.430
64719SOL     OW95995  13.098  11.998  14.209
64719SOL    HW195996  13.106  11.976  14.117
64719SOL    HW295997  13.111  11.915  14.255
64720SOL     OW95998   5.862   6.476  10.465
64720SOL    HW195999   5.784   6.515  10.425
64720SOL    HW296000   5.902   6.424  10.396
64721SOL     OW96001   9.692   1.245   7.013
64721SOL    HW196002   9.741   1.321   6.980
64721SOL    HW296003   9.748   1.208   7.081
64722SOL     OW96004  10.791  11.573  10.324
64722SOL    HW196005  10.836  11.601  10.244
64722SOL    HW296006  10.841  11.614  10.395
64723SOL     OW96007   4.041   4.813   3.238
64723SOL    HW196008   3.948   4.822   3.219
64723SOL    HW296009   4.044   4.760   3.318
64724SOL     OW96010   5.537   6.430   9.581
64724SOL    HW196011   5.632   6.436   9.582
64724SOL    HW296012   5.519   6.340   9.556
64725SOL     OW96013   9.210  12.043  14.069
64725SOL    HW196014   9.282  12.096  14.104
64725SOL    HW296015   9.219  12.052  13.974
64726SOL     OW96016   8.729   2.231  12.120
64726SOL    HW196017   8.703   2.323  12.128
64726SOL    HW296018   8.816   2.227  12.159
64727SOL     OW96019   3.764  10.965   4.747
64727SOL    HW196020   3.711  11.040   4.777
64727SOL    HW296021   3.851  11.002   4.731
64728SOL     OW96022  13.262   5.887  14.492
64728SOL    HW196023  13.314   5.962  14.521
64728SOL    HW296024  13.206   5.922  14.422
64729SOL     OW96025   1.587   0.116   9.959
64729SOL    HW196026   1.681   0.106   9.968
64729SOL    HW296027   1.550   0.046  10.013
64730SOL     OW96028   4.138  11.477  14.773
64730SOL    HW196029   4.109  11.537  14.704
64730SOL    HW296030   4.057  11.435  14.803
64731SOL     OW96031   6.672   0.496   0.873
64731SOL    HW196032   6.626   0.575   0.842
64731SOL    HW296033   6.725   0.469   0.798
64732SOL     OW96034   3.734   8.069   9.203
64732SOL    HW196035   3.673   8.022   9.146
64732SOL    HW296036   3.820   8.037   9.178
64733SOL     OW96037   3.673  13.307   9.835
64733SOL    HW196038   3.735  13.261   9.891
64733SOL    HW296039   3.649  13.243   9.768
64734SOL     OW96040  10.248   6.712  10.691
64734SOL    HW196041  10.252   6.671  10.777
64734SOL    HW296042  10.331   6.759  10.683
64735SOL     OW96043   9.403   8.687   9.400
64735SOL    HW196044   9.471   8.693   9.467
64735SOL    HW296045   9.337   8.751   9.427
64736SOL     OW96046  10.478  13.331   3.784
64736SOL    HW196047  10.424  13.349   3.861
64736SOL    HW296048  10.463  13.239   3.766
64737SOL     OW96049   3.002   9.105   2.590
64737SOL    HW196050   3.092   9.138   2.591
64737SOL    HW296051   2.967   9.128   2.676
64738SOL     OW96052  13.055   8.547   1.889
64738SOL    HW196053  13.034   8.536   1.796
64738SOL    HW296054  13.039   8.461   1.928
64739SOL     OW96055   2.575   7.595   5.313
64739SOL    HW196056   2.655   7.610   5.363
64739SOL    HW296057   2.570   7.668   5.251
64740SOL     OW96058   7.853  12.342   7.944
64740SOL    HW196059   7.915  12.329   7.872
64740SOL    HW296060   7.865  12.434   7.970
64741SOL     OW96061   7.499   1.061   6.514
64741SOL    HW196062   7.569   1.098   6.459
64741SOL    HW296063   7.499   0.967   6.492
64742SOL     OW96064  14.472  12.433  14.179
64742SOL    HW196065  14.473  12.390  14.265
64742SOL    HW296066  14.480  12.526  14.199
64743SOL     OW96067   8.244  13.286   0.221
64743SOL    HW196068   8.300  13.324   0.289
64743SOL    HW296069   8.231  13.195   0.249
64744SOL     OW96070  10.701  12.580   2.814
64744SOL    HW196071  10.687  12.671   2.789
64744SOL    HW296072  10.682  12.577   2.908
64745SOL     OW96073  14.227   8.332  13.270
64745SOL    HW196074  14.249   8.311  13.180
64745SOL    HW296075  14.192   8.251  13.306
64746SOL     OW96076   2.077   9.493   8.177
64746SOL    HW196077   2.068   9.399   8.165
64746SOL    HW296078   2.037   9.510   8.262
64747SOL     OW96079   0.953   3.872   6.738
64747SOL    HW196080   1.028   3.913   6.780
64747SOL    HW296081   0.924   3.806   6.801
64748SOL     OW96082   4.515  10.337   8.498
64748SOL    HW196083   4.447  10.335   8.431
64748SOL    HW296084   4.579  10.272   8.471
64749SOL     OW96085   9.680   3.163   2.269
64749SOL    HW196086   9.716   3.251   2.282
64749SOL    HW296087   9.676   3.126   2.358
64750SOL     OW96088  10.706   3.641   2.672
64750SOL    HW196089  10.678   3.597   2.753
64750SOL    HW296090  10.799   3.658   2.686
64751SOL     OW96091  12.019  13.875   2.238
64751SOL    HW196092  12.007  13.915   2.152
64751SOL    HW296093  12.046  13.947   2.295
64752SOL     OW96094  12.612  14.133   2.997
64752SOL    HW196095  12.581  14.221   3.016
64752SOL    HW296096  12.684  14.146   2.935
64753SOL     OW96097   2.852   9.494   8.898
64753SOL    HW196098   2.947   9.508   8.896
64753SOL    HW296099   2.841   9.403   8.871
64754SOL     OW96100   2.886  12.061   4.046
64754SOL    HW196101   2.964  12.088   3.996
64754SOL    HW296102   2.917  12.053   4.136
64755SOL     OW96103  12.328   7.334  13.454
64755SOL    HW196104  12.399   7.272  13.439
64755SOL    HW296105  12.305   7.323  13.547
64756SOL     OW96106   3.503   9.329  14.050
64756SOL    HW196107   3.458   9.408  14.020
64756SOL    HW296108   3.500   9.335  14.146
64757SOL     OW96109   5.597   7.823   9.940
64757SOL    HW196110   5.645   7.740   9.943
64757SOL    HW296111   5.536   7.818  10.014
64758SOL     OW96112  13.115   3.962  12.163
64758SOL    HW196113  13.143   4.022  12.094
64758SOL    HW296114  13.196   3.922  12.194
64759SOL     OW96115   4.331   7.197   5.461
64759SOL    HW196116   4.411   7.209   5.411
64759SOL    HW296117   4.302   7.109   5.440
64760SOL     OW96118  12.791   9.284  10.328
64760SOL    HW196119  12.778   9.288  10.233
64760SOL    HW296120  12.885   9.293  10.340
64761SOL     OW96121   4.241   0.178  14.345
64761SOL    HW196122   4.211   0.267  14.367
64761SOL    HW296123   4.278   0.187  14.257
64762SOL     OW96124   6.248   3.487  13.910
64762SOL    HW196125   6.304   3.564  13.910
64762SOL    HW296126   6.174   3.510  13.967
64763SOL     OW96127   6.245  11.418   3.025
64763SOL    HW196128   6.182  11.354   3.058
64763SOL    HW296129   6.192  11.483   2.979
64764SOL     OW96130   6.018   5.007   9.399
64764SOL    HW196131   5.923   5.022   9.393
64764SOL    HW296132   6.043   5.049   9.481
64765SOL     OW96133   1.775  14.127   1.402
64765SOL    HW196134   1.744  14.037   1.412
64765SOL    HW296135   1.765  14.145   1.309
64766SOL     OW96136   6.531  12.316   6.562
64766SOL    HW196137   6.538  12.381   6.492
64766SOL    HW296138   6.485  12.361   6.633
64767SOL     OW96139  14.840   4.612   1.375
64767SOL    HW196140  14.813   4.546   1.311
64767SOL    HW296141  14.759   4.644   1.413
64768SOL     OW96142   7.340   7.026   6.770
64768SOL    HW196143   7.428   7.029   6.733
64768SOL    HW296144   7.284   6.995   6.699
64769SOL     OW96145  13.484   6.037   6.994
64769SOL    HW196146  13.551   6.075   7.050
64769SOL    HW296147  13.532   5.979   6.935
64770SOL     OW96148   2.258   7.424  10.524
64770SOL    HW196149   2.166   7.425  10.550
64770SOL    HW296150   2.259   7.385  10.437
64771SOL     OW96151   5.588   8.558  11.520
64771SOL    HW196152   5.595   8.537  11.427
64771SOL    HW296153   5.518   8.624  11.524
64772SOL     OW96154   8.513   4.072   8.310
64772SOL    HW196155   8.585   4.010   8.303
64772SOL    HW296156   8.539   4.132   8.379
64773SOL     OW96157  12.565   7.165   5.306
64773SOL    HW196158  12.587   7.207   5.389
64773SOL    HW296159  12.619   7.086   5.304
64774SOL     OW96160  13.698  10.705   3.428
64774SOL    HW196161  13.684  10.740   3.340
64774SOL    HW296162  13.676  10.612   3.422
64775SOL     OW96163   3.292   9.045  12.871
64775SOL    HW196164   3.270   9.116  12.810
64775SOL    HW296165   3.207   9.011  12.899
64776SOL     OW96166  11.241   4.278   4.914
64776SOL    HW196167  11.150   4.255   4.936
64776SOL    HW296168  11.261   4.228   4.836
64777SOL     OW96169   2.172  14.006  11.242
64777SOL    HW196170   2.093  13.952  11.239
64777SOL    HW296171   2.177  14.044  11.154
64778SOL     OW96172  12.337   5.404   9.961
64778SOL    HW196173  12.362   5.318   9.927
64778SOL    HW296174  12.283   5.443   9.891
64779SOL     OW96175   6.354  12.247   3.250
64779SOL    HW196176   6.274  12.218   3.294
64779SOL    HW296177   6.424  12.221   3.310
64780SOL     OW96178   3.159   5.688   1.798
64780SOL    HW196179   3.245   5.649   1.805
64780SOL    HW296180   3.107   5.646   1.867
64781SOL     OW96181   6.414  11.530  13.865
64781SOL    HW196182   6.384  11.441  13.845
64781SOL    HW296183   6.500  11.537  13.824
64782SOL     OW96184  10.906   1.542  14.033
64782SOL    HW196185  10.938   1.456  14.008
64782SOL    HW296186  10.855   1.526  14.113
64783SOL     OW96187   6.167   3.212  13.407
64783SOL    HW196188   6.164   3.252  13.320
64783SOL    HW296189   6.117   3.272  13.463
64784SOL     OW96190   7.107   4.263   2.040
64784SOL    HW196191   7.110   4.349   2.081
64784SOL    HW296192   7.165   4.209   2.093
64785SOL     OW96193   9.271   9.302   4.334
64785SOL    HW196194   9.290   9.208   4.333
64785SOL    HW296195   9.330   9.338   4.268
64786SOL     OW96196   4.497  14.258  14.372
64786SOL    HW196197   4.546  14.190  14.418
64786SOL    HW296198   4.521  14.339  14.418
64787SOL     OW96199   6.579   5.870  12.783
64787SOL    HW196200   6.561   5.827  12.699
64787SOL    HW296201   6.555   5.962  12.769
64788SOL     OW96202   1.194   9.670   0.569
64788SOL    HW196203   1.235   9.584   0.564
64788SOL    HW296204   1.104   9.652   0.599
64789SOL     OW96205  10.079   2.761   6.322
64789SOL    HW196206  10.135   2.683   6.321
64789SOL    HW296207  10.023   2.751   6.246
64790SOL     OW96208   2.281   5.629  14.796
64790SOL    HW196209   2.342   5.561  14.766
64790SOL    HW296210   2.241   5.592  14.875
64791SOL     OW96211   5.548   3.204   9.540
64791SOL    HW196212   5.494   3.277   9.508
64791SOL    HW296213   5.606   3.245   9.604
64792SOL     OW96214   4.498  10.598   0.611
64792SOL    HW196215   4.540  10.627   0.693
64792SOL    HW296216   4.527  10.661   0.546
64793SOL     OW96217  11.144  10.543   6.854
64793SOL    HW196218  11.081  10.608   6.886
64793SOL    HW296219  11.213  10.542   6.921
64794SOL     OW96220   9.215  10.736  10.591
64794SOL    HW196221   9.221  10.790  10.512
64794SOL    HW296222   9.196  10.648  10.559
64795SOL     OW96223   0.387   0.479   9.543
64795SOL    HW196224   0.408   0.571   9.559
64795SOL    HW296225   0.467   0.432   9.565
64796SOL     OW96226   3.029   3.644  14.544
64796SOL    HW196227   3.046   3.552  14.522
64796SOL    HW296228   3.114   3.687  14.534
64797SOL     OW96229  11.649  13.732  10.254
64797SOL    HW196230  11.561  13.758  10.227
64797SOL    HW296231  11.670  13.657  10.199
64798SOL     OW96232   0.080   4.776   6.130
64798SOL    HW196233  14.870   4.810   6.126
64798SOL    HW296234   0.109   4.798   6.219
64799SOL     OW96235   4.897   9.576   7.027
64799SOL    HW196236   4.987   9.572   7.058
64799SOL    HW296237   4.904   9.573   6.932
64800SOL     OW96238  10.095   9.811   9.397
64800SOL    HW196239  10.057   9.756   9.466
64800SOL    HW296240  10.116   9.749   9.327
64801SOL     OW96241   1.154   0.938  13.904
64801SOL    HW196242   1.193   0.971  13.985
64801SOL    HW296243   1.221   0.883  13.865
64802SOL     OW96244   3.643   0.022  13.448
64802SOL    HW196245   3.600  14.834  13.396
64802SOL    HW296246   3.615   0.006  13.538
64803SOL     OW96247   4.105   0.106   2.787
64803SOL    HW196248   4.150   0.190   2.786
64803SOL    HW296249   4.040   0.112   2.717
64804SOL     OW96250  12.884   3.776  11.226
64804SOL    HW196251  12.904   3.727  11.146
64804SOL    HW296252  12.886   3.868  11.198
64805SOL     OW96253  14.821   6.107   9.899
64805SOL    HW196254  14.846   6.045   9.831
64805SOL    HW296255   0.024   6.136   9.937
64806SOL     OW96256   5.193  10.551   0.721
64806SOL    HW196257   5.100  10.542   0.701
64806SOL    HW296258   5.215  10.471   0.769
64807SOL     OW96259   1.050   1.579  10.249
64807SOL    HW196260   1.135   1.543  10.222
64807SOL    HW296261   1.030   1.646  10.184
64808SOL     OW96262  10.122   7.502   3.310
64808SOL    HW196263  10.165   7.431   3.263
64808SOL    HW296264  10.038   7.466   3.338
64809SOL     OW96265   1.847  12.566   1.386
64809SOL    HW196266   1.862  12.486   1.436
64809SOL    HW296267   1.934  12.591   1.354
64810SOL     OW96268  12.299   3.255  13.357
64810SOL    HW196269  12.316   3.210  13.440
64810SOL    HW296270  12.293   3.348  13.381
64811SOL     OW96271   5.331   2.891   0.916
64811SOL    HW196272   5.311   2.921   0.828
64811SOL    HW296273   5.419   2.854   0.910
64812SOL     OW96274   8.229  11.745  12.064
64812SOL    HW196275   8.280  11.670  12.033
64812SOL    HW296276   8.224  11.804  11.989
64813SOL     OW96277   5.819   8.006   0.605
64813SOL    HW196278   5.865   8.049   0.533
64813SOL    HW296279   5.882   8.008   0.678
64814SOL     OW96280  13.174   2.456   9.818
64814SOL    HW196281  13.215   2.488   9.898
64814SOL    HW296282  13.111   2.391   9.847
64815SOL     OW96283   9.465   5.975   3.018
64815SOL    HW196284   9.499   6.031   3.088
64815SOL    HW296285   9.539   5.918   2.996
64816SOL     OW96286  12.548  12.348   3.560
64816SOL    HW196287  12.490  12.303   3.499
64816SOL    HW296288  12.496  12.420   3.594
64817SOL     OW96289   2.101   2.792   5.804
64817SOL    HW196290   2.186   2.836   5.804
64817SOL    HW296291   2.037   2.863   5.805
64818SOL     OW96292  11.878   4.051  10.159
64818SOL    HW196293  11.959   4.088  10.123
64818SOL    HW296294  11.854   3.982  10.098
64819SOL     OW96295   5.380   8.078   0.298
64819SOL    HW196296   5.444   8.014   0.331
64819SOL    HW296297   5.297   8.051   0.336
64820SOL     OW96298   7.726  13.387   9.298
64820SOL    HW196299   7.653  13.342   9.341
64820SOL    HW296300   7.795  13.321   9.294
64821SOL     OW96301  10.869   8.335   3.953
64821SOL    HW196302  10.917   8.409   3.992
64821SOL    HW296303  10.812   8.376   3.888
64822SOL     OW96304   7.488   1.129   3.426
64822SOL    HW196305   7.553   1.199   3.420
64822SOL    HW296306   7.503   1.089   3.511
64823SOL     OW96307  11.348   1.510  13.075
64823SOL    HW196308  11.331   1.525  13.168
64823SOL    HW296309  11.296   1.576  13.030
64824SOL     OW96310  14.623   5.183   7.384
64824SOL    HW196311  14.691   5.133   7.429
64824SOL    HW296312  14.670   5.234   7.318
64825SOL     OW96313   5.260   3.531  12.656
64825SOL    HW196314   5.352   3.542  12.682
64825SOL    HW296315   5.249   3.588  12.580
64826SOL     OW96316   3.373   1.721   3.343
64826SOL    HW196317   3.433   1.659   3.386
64826SOL    HW296318   3.293   1.716   3.395
64827SOL     OW96319  14.013   7.121   6.269
64827SOL    HW196320  14.045   7.165   6.190
64827SOL    HW296321  13.927   7.161   6.284
64828SOL     OW96322  13.044   7.746   0.329
64828SOL    HW196323  13.029   7.839   0.311
64828SOL    HW296324  13.118   7.722   0.273
64829SOL     OW96325  12.228  12.419   3.813
64829SOL    HW196326  12.316  12.392   3.838
64829SOL    HW296327  12.171  12.380   3.880
64830SOL     OW96328   3.669   9.370  13.522
64830SOL    HW196329   3.733   9.302  13.503
64830SOL    HW296330   3.599   9.325  13.568
64831SOL     OW96331   9.878  12.713   3.326
64831SOL    HW196332   9.846  12.687   3.240
64831SOL    HW296333   9.848  12.645   3.385
64832SOL     OW96334   1.595   8.179   3.548
64832SOL    HW196335   1.675   8.131   3.571
64832SOL    HW296336   1.625   8.265   3.521
64833SOL     OW96337   8.685  12.910   4.610
64833SOL    HW196338   8.748  12.840   4.627
64833SOL    HW296339   8.737  12.979   4.570
64834SOL     OW96340   0.963   3.937   5.347
64834SOL    HW196341   0.886   3.950   5.292
64834SOL    HW296342   0.954   4.002   5.418
64835SOL     OW96343   3.355  11.694   1.275
64835SOL    HW196344   3.298  11.618   1.257
64835SOL    HW296345   3.427  11.658   1.327
64836SOL     OW96346  14.067   0.244   4.440
64836SOL    HW196347  14.012   0.184   4.489
64836SOL    HW296348  14.044   0.229   4.348
64837SOL     OW96349   7.661   6.632   9.225
64837SOL    HW196350   7.709   6.687   9.287
64837SOL    HW296351   7.570   6.636   9.255
64838SOL     OW96352   0.928   8.769  14.402
64838SOL    HW196353   0.962   8.852  14.367
64838SOL    HW296354   0.843   8.792  14.439
64839SOL     OW96355  14.856   7.074   4.095
64839SOL    HW196356  14.843   6.979   4.102
64839SOL    HW296357  14.794   7.111   4.158
64840SOL     OW96358  11.828   6.116   6.100
64840SOL    HW196359  11.918   6.130   6.070
64840SOL    HW296360  11.777   6.185   6.058
64841SOL     OW96361  11.299   6.060  14.801
64841SOL    HW196362  11.267   6.071  14.711
64841SOL    HW296363  11.278   5.969  14.823
64842SOL     OW96364  13.513  11.014   1.806
64842SOL    HW196365  13.447  11.021   1.737
64842SOL    HW296366  13.519  10.920   1.823
64843SOL     OW96367   6.775  13.333   7.671
64843SOL    HW196368   6.687  13.302   7.652
64843SOL    HW296369   6.768  13.429   7.668
64844SOL     OW96370   4.104   2.188  12.384
64844SOL    HW196371   4.138   2.266  12.341
64844SOL    HW296372   4.080   2.218  12.472
64845SOL     OW96373  12.137   1.755  12.327
64845SOL    HW196374  12.206   1.753  12.394
64845SOL    HW296375  12.083   1.679  12.347
64846SOL     OW96376   7.139   5.028   0.984
64846SOL    HW196377   7.086   5.090   1.034
64846SOL    HW296378   7.093   4.944   0.992
64847SOL     OW96379   6.165   3.606   8.049
64847SOL    HW196380   6.104   3.647   8.110
64847SOL    HW296381   6.165   3.513   8.073
64848SOL     OW96382  12.776  11.082   9.451
64848SOL    HW196383  12.736  11.111   9.370
64848SOL    HW296384  12.865  11.056   9.427
64849SOL     OW96385   5.940   1.491   5.629
64849SOL    HW196386   6.012   1.554   5.639
64849SOL    HW296387   5.978   1.420   5.578
64850SOL     OW96388   4.785   0.867   7.778
64850SOL    HW196389   4.742   0.853   7.862
64850SOL    HW296390   4.716   0.899   7.720
64851SOL     OW96391  10.729   9.650  14.552
64851SOL    HW196392  10.778   9.584  14.502
64851SOL    HW296393  10.776   9.656  14.635
64852SOL     OW96394   8.855   9.534   5.454
64852SOL    HW196395   8.809   9.616   5.436
64852SOL    HW296396   8.844   9.520   5.548
64853SOL     OW96397   1.465   2.235   8.920
64853SOL    HW196398   1.535   2.210   8.980
64853SOL    HW296399   1.392   2.260   8.977
64854SOL     OW96400   2.007   3.856   7.037
64854SOL    HW196401   2.044   3.900   6.961
64854SOL    HW296402   2.033   3.765   7.028
64855SOL     OW96403   6.389   2.217   1.687
64855SOL    HW196404   6.324   2.231   1.618
64855SOL    HW296405   6.447   2.294   1.682
64856SOL     OW96406   6.386   1.370   9.238
64856SOL    HW196407   6.316   1.338   9.296
64856SOL    HW296408   6.383   1.311   9.163
64857SOL     OW96409   5.082   9.948   0.390
64857SOL    HW196410   5.140   9.898   0.447
64857SOL    HW296411   5.129  10.030   0.375
64858SOL     OW96412  13.347   9.294   6.689
64858SOL    HW196413  13.350   9.387   6.708
64858SOL    HW296414  13.345   9.251   6.775
64859SOL     OW96415  12.679   1.153   9.924
64859SOL    HW196416  12.610   1.218   9.936
64859SOL    HW296417  12.686   1.142   9.829
64860SOL     OW96418   1.297  11.841  10.683
64860SOL    HW196419   1.213  11.887  10.689
64860SOL    HW296420   1.298  11.805  10.594
64861SOL     OW96421   2.509  10.671   9.324
64861SOL    HW196422   2.567  10.609   9.369
64861SOL    HW296423   2.421  10.633   9.334
64862SOL     OW96424   2.434   2.286   2.366
64862SOL    HW196425   2.390   2.261   2.284
64862SOL    HW296426   2.371   2.342   2.411
64863SOL     OW96427  13.331   1.588   4.063
64863SOL    HW196428  13.414   1.609   4.020
64863SOL    HW296429  13.271   1.657   4.034
64864SOL     OW96430  12.074   1.564   9.164
64864SOL    HW196431  12.005   1.548   9.100
64864SOL    HW296432  12.142   1.610   9.115
64865SOL     OW96433   4.952  11.670   9.656
64865SOL    HW196434   5.043  11.681   9.628
64865SOL    HW296435   4.953  11.687   9.750
64866SOL     OW96436  11.911   1.896   8.426
64866SOL    HW196437  11.850   1.967   8.408
64866SOL    HW296438  11.998   1.934   8.412
64867SOL     OW96439   6.634  14.832   0.636
64867SOL    HW196440   6.695  14.766   0.670
64867SOL    HW296441   6.642   0.026   0.697
64868SOL     OW96442   0.765   6.966  13.177
64868SOL    HW196443   0.694   6.906  13.153
64868SOL    HW296444   0.721   7.044  13.208
64869SOL     OW96445  13.037  13.690  14.115
64869SOL    HW196446  13.074  13.653  14.196
64869SOL    HW296447  13.069  13.780  14.114
64870SOL     OW96448  14.854   7.289   0.221
64870SOL    HW196449  14.854   7.275   0.127
64870SOL    HW296450   0.009   7.208   0.258
64871SOL     OW96451   8.423  12.101   5.003
64871SOL    HW196452   8.364  12.059   4.940
64871SOL    HW296453   8.454  12.180   4.957
64872SOL     OW96454   9.767   7.411   3.974
64872SOL    HW196455   9.699   7.354   4.011
64872SOL    HW296456   9.789   7.470   4.046
64873SOL     OW96457   4.481  12.657   1.620
64873SOL    HW196458   4.466  12.563   1.613
64873SOL    HW296459   4.395  12.696   1.602
64874SOL     OW96460  10.157   3.490  11.981
64874SOL    HW196461  10.072   3.485  12.024
64874SOL    HW296462  10.151   3.565  11.922
64875SOL     OW96463  13.559  10.555  11.142
64875SOL    HW196464  13.584  10.509  11.222
64875SOL    HW296465  13.464  10.553  11.141
64876SOL     OW96466  10.167   6.755   0.709
64876SOL    HW196467  10.230   6.754   0.781
64876SOL    HW296468  10.093   6.806   0.742
64877SOL     OW96469  11.927   0.029  14.870
64877SOL    HW196470  11.882   0.001  14.790
64877SOL    HW296471  11.892  14.852   0.059
64878SOL     OW96472  13.169   2.969   6.080
64878SOL    HW196473  13.129   3.042   6.126
64878SOL    HW296474  13.252   3.003   6.047
64879SOL     OW96475   4.790  11.878   8.454
64879SOL    HW196476   4.760  11.859   8.366
64879SOL    HW296477   4.741  11.818   8.510
64880SOL     OW96478   6.562   3.758   3.609
64880SOL    HW196479   6.651   3.792   3.620
64880SOL    HW296480   6.510   3.834   3.583
64881SOL     OW96481   6.795  10.707   9.506
64881SOL    HW196482   6.746  10.690   9.426
64881SOL    HW296483   6.829  10.621   9.532
64882SOL     OW96484   0.297   7.493   3.129
64882SOL    HW196485   0.344   7.566   3.088
64882SOL    HW296486   0.225   7.474   3.069
64883SOL     OW96487   5.163   0.838   4.736
64883SOL    HW196488   5.247   0.794   4.750
64883SOL    HW296489   5.180   0.904   4.669
64884SOL     OW96490   8.947   1.394   1.044
64884SOL    HW196491   8.853   1.378   1.058
64884SOL    HW296492   8.954   1.489   1.039
64885SOL     OW96493   5.856   3.503   2.613
64885SOL    HW196494   5.929   3.487   2.672
64885SOL    HW296495   5.782   3.524   2.670
64886SOL     OW96496   5.241  12.693  10.038
64886SOL    HW196497   5.224  12.601  10.018
64886SOL    HW296498   5.303  12.722   9.971
64887SOL     OW96499   7.891  13.306  13.027
64887SOL    HW196500   7.852  13.383  12.984
64887SOL    HW296501   7.985  13.324  13.027
64888SOL     OW96502   5.742  10.584  10.014
64888SOL    HW196503   5.680  10.578   9.942
64888SOL    HW296504   5.696  10.632  10.082
64889SOL     OW96505  14.181   1.336  10.045
64889SOL    HW196506  14.249   1.357   9.981
64889SOL    HW296507  14.103   1.381  10.012
64890SOL     OW96508  11.750   8.508   7.461
64890SOL    HW196509  11.760   8.420   7.424
64890SOL    HW296510  11.828   8.555   7.431
64891SOL     OW96511  13.473   6.603   7.198
64891SOL    HW196512  13.483   6.686   7.152
64891SOL    HW296513  13.500   6.537   7.134
64892SOL     OW96514  13.179   6.201  13.526
64892SOL    HW196515  13.149   6.290  13.543
64892SOL    HW296516  13.274   6.206  13.528
64893SOL     OW96517   3.510   1.524   8.194
64893SOL    HW196518   3.430   1.473   8.181
64893SOL    HW296519   3.569   1.495   8.125
64894SOL     OW96520   8.943   0.852  12.697
64894SOL    HW196521   8.966   0.830  12.787
64894SOL    HW296522   8.849   0.832  12.690
64895SOL     OW96523  13.882   3.174   9.831
64895SOL    HW196524  13.864   3.130   9.913
64895SOL    HW296525  13.854   3.113   9.763
64896SOL     OW96526   8.641   2.018   0.284
64896SOL    HW196527   8.591   2.017   0.202
64896SOL    HW296528   8.732   2.005   0.257
64897SOL     OW96529   6.714  10.175   1.646
64897SOL    HW196530   6.784  10.239   1.660
64897SOL    HW296531   6.754  10.090   1.668
64898SOL     OW96532   3.181   7.879  12.580
64898SOL    HW196533   3.185   7.785  12.563
64898SOL    HW296534   3.101   7.907  12.536
64899SOL     OW96535   0.867  12.284   3.641
64899SOL    HW196536   0.950  12.246   3.669
64899SOL    HW296537   0.801  12.230   3.684
64900SOL     OW96538   9.500   9.248   9.792
64900SOL    HW196539   9.594   9.244   9.808
64900SOL    HW296540   9.491   9.234   9.697
64901SOL     OW96541  10.331  14.678  12.661
64901SOL    HW196542  10.236  14.679  12.652
64901SOL    HW296543  10.362  14.731  12.588
64902SOL     OW96544   9.419  12.725  12.888
64902SOL    HW196545   9.413  12.713  12.793
64902SOL    HW296546   9.513  12.728  12.905
64903SOL     OW96547   6.701  13.112   8.593
64903SOL    HW196548   6.687  13.195   8.639
64903SOL    HW296549   6.641  13.051   8.635
64904SOL     OW96550  13.212   2.500   4.039
64904SOL    HW196551  13.231   2.594   4.035
64904SOL    HW296552  13.157   2.484   3.962
64905SOL     OW96553   5.131  11.175   0.058
64905SOL    HW196554   5.101  11.221  14.859
64905SOL    HW296555   5.106  11.084   0.043
64906SOL     OW96556   2.220   5.681   0.876
64906SOL    HW196557   2.234   5.776   0.880
64906SOL    HW296558   2.141   5.670   0.824
64907SOL     OW96559   4.069   4.509   4.548
64907SOL    HW196560   4.075   4.482   4.640
64907SOL    HW296561   4.025   4.436   4.505
64908SOL     OW96562  12.948   7.231  12.313
64908SOL    HW196563  12.858   7.224  12.283
64908SOL    HW296564  12.974   7.320  12.288
64909SOL     OW96565   6.107  14.076  13.332
64909SOL    HW196566   6.061  14.086  13.415
64909SOL    HW296567   6.051  14.119  13.267
64910SOL     OW96568   0.540   5.411   1.890
64910SOL    HW196569   0.499   5.339   1.939
64910SOL    HW296570   0.588   5.367   1.819
64911SOL     OW96571   8.632   0.669  13.617
64911SOL    HW196572   8.538   0.676  13.598
64911SOL    HW296573   8.675   0.710  13.542
64912SOL     OW96574   8.108   9.556  12.944
64912SOL    HW196575   8.076   9.573  13.032
64912SOL    HW296576   8.176   9.489  12.955
64913SOL     OW96577   6.980   0.662   0.854
64913SOL    HW196578   6.953   0.577   0.821
64913SOL    HW296579   7.067   0.646   0.893
64914SOL     OW96580   7.362  10.870  10.256
64914SOL    HW196581   7.373  10.940  10.192
64914SOL    HW296582   7.356  10.790  10.203
64915SOL     OW96583  11.676   8.917   5.377
64915SOL    HW196584  11.604   8.975   5.403
64915SOL    HW296585  11.753   8.954   5.419
64916SOL     OW96586  14.804   0.273   2.759
64916SOL    HW196587  14.794   0.262   2.664
64916SOL    HW296588  14.737   0.337   2.783
64917SOL     OW96589   4.836  12.006   2.404
64917SOL    HW196590   4.749  11.984   2.372
64917SOL    HW296591   4.833  12.100   2.421
64918SOL     OW96592   5.846   5.538  11.656
64918SOL    HW196593   5.786   5.471  11.624
64918SOL    HW296594   5.829   5.541  11.750
64919SOL     OW96595   7.363   5.226   6.039
64919SOL    HW196596   7.424   5.242   5.966
64919SOL    HW296597   7.407   5.263   6.115
64920SOL     OW96598  10.828  10.805  10.740
64920SOL    HW196599  10.812  10.725  10.791
64920SOL    HW296600  10.888  10.777  10.671
64921SOL     OW96601  12.676   0.369   5.325
64921SOL    HW196602  12.670   0.443   5.386
64921SOL    HW296603  12.671   0.409   5.238
64922SOL     OW96604  10.130  10.274   5.440
64922SOL    HW196605  10.086  10.193   5.414
64922SOL    HW296606  10.107  10.285   5.533
64923SOL     OW96607   7.763   4.525  14.251
64923SOL    HW196608   7.746   4.586  14.180
64923SOL    HW296609   7.734   4.571  14.330
64924SOL     OW96610  10.102   6.843  14.725
64924SOL    HW196611  10.070   6.849  14.635
64924SOL    HW296612  10.195   6.866  14.719
64925SOL     OW96613   7.886  13.200  14.154
64925SOL    HW196614   7.964  13.150  14.131
64925SOL    HW296615   7.917  13.289  14.167
64926SOL     OW96616   5.739   2.250   2.917
64926SOL    HW196617   5.804   2.198   2.965
64926SOL    HW296618   5.737   2.210   2.830
64927SOL     OW96619   0.224   5.178  10.584
64927SOL    HW196620   0.264   5.151  10.502
64927SOL    HW296621   0.149   5.120  10.595
64928SOL     OW96622   1.000   8.473  10.819
64928SOL    HW196623   1.041   8.395  10.857
64928SOL    HW296624   1.021   8.469  10.726
64929SOL     OW96625   5.677   6.080   2.642
64929SOL    HW196626   5.595   6.053   2.601
64929SOL    HW296627   5.650   6.121   2.724
64930SOL     OW96628  11.476   3.355   3.457
64930SOL    HW196629  11.415   3.400   3.398
64930SOL    HW296630  11.501   3.276   3.410
64931SOL     OW96631   6.044   2.686   5.131
64931SOL    HW196632   5.996   2.616   5.086
64931SOL    HW296633   5.992   2.765   5.116
64932SOL     OW96634   6.673   4.228   1.118
64932SOL    HW196635   6.603   4.221   1.053
64932SOL    HW296636   6.696   4.137   1.138
64933SOL     OW96637   4.550   2.360   9.929
64933SOL    HW196638   4.598   2.355   9.847
64933SOL    HW296639   4.532   2.269   9.951
64934SOL     OW96640   2.825   9.823   8.640
64934SOL    HW196641   2.851   9.899   8.588
64934SOL    HW296642   2.759   9.779   8.586
64935SOL     OW96643  13.269   0.910  10.268
64935SOL    HW196644  13.283   0.840  10.205
64935SOL    HW296645  13.348   0.911  10.322
64936SOL     OW96646   1.524  14.355  11.932
64936SOL    HW196647   1.602  14.353  11.988
64936SOL    HW296648   1.480  14.437  11.955
64937SOL     OW96649   0.400  12.707  10.362
64937SOL    HW196650   0.381  12.707  10.268
64937SOL    HW296651   0.358  12.627  10.394
64938SOL     OW96652  12.787  13.038   5.900
64938SOL    HW196653  12.735  13.037   5.820
64938SOL    HW296654  12.746  13.106   5.954
64939SOL     OW96655   2.891  11.368   2.520
64939SOL    HW196656   2.928  11.327   2.442
64939SOL    HW296657   2.868  11.457   2.491
64940SOL     OW96658  13.971  12.601   6.441
64940SOL    HW196659  13.914  12.557   6.504
64940SOL    HW296660  13.997  12.533   6.380
64941SOL     OW96661   8.918   7.494   9.102
64941SOL    HW196662   8.904   7.497   9.007
64941SOL    HW296663   8.957   7.578   9.123
64942SOL     OW96664   2.820  14.808   8.121
64942SOL    HW196665   2.773  14.772   8.196
64942SOL    HW296666   2.753  14.857   8.072
64943SOL     OW96667   5.583   6.700   6.375
64943SOL    HW196668   5.669   6.720   6.337
64943SOL    HW296669   5.601   6.637   6.444
64944SOL     OW96670  11.025   3.638   7.422
64944SOL    HW196671  11.088   3.610   7.356
64944SOL    HW296672  11.042   3.732   7.434
64945SOL     OW96673   9.195   5.001   9.326
64945SOL    HW196674   9.183   5.054   9.405
64945SOL    HW296675   9.108   4.965   9.308
64946SOL     OW96676  10.785   9.091   8.133
64946SOL    HW196677  10.692   9.111   8.128
64946SOL    HW296678  10.828   9.170   8.099
64947SOL     OW96679   0.609   1.688   0.160
64947SOL    HW196680   0.559   1.760   0.121
64947SOL    HW296681   0.553   1.611   0.147
64948SOL     OW96682   4.392  10.936   6.394
64948SOL    HW196683   4.320  10.878   6.420
64948SOL    HW296684   4.448  10.881   6.339
64949SOL     OW96685  12.507   7.874  10.809
64949SOL    HW196686  12.515   7.900  10.901
64949SOL    HW296687  12.591   7.897  10.770
64950SOL     OW96688   8.399   4.406  13.192
64950SOL    HW196689   8.369   4.461  13.264
64950SOL    HW296690   8.491   4.388  13.212
64951SOL     OW96691   1.750   0.286   1.055
64951SOL    HW196692   1.821   0.347   1.034
64951SOL    HW296693   1.779   0.241   1.134
64952SOL     OW96694  11.622   3.837   1.853
64952SOL    HW196695  11.673   3.918   1.847
64952SOL    HW296696  11.549   3.850   1.794
64953SOL     OW96697   4.382   1.687   1.952
64953SOL    HW196698   4.408   1.694   1.860
64953SOL    HW296699   4.428   1.758   1.995
64954SOL     OW96700  10.296  14.552  14.362
64954SOL    HW196701  10.308  14.639  14.401
64954SOL    HW296702  10.368  14.544  14.299
64955SOL     OW96703  11.050  13.101  10.989
64955SOL    HW196704  10.979  13.085  11.052
64955SOL    HW296705  11.011  13.160  10.924
64956SOL     OW96706   9.294   8.917   0.562
64956SOL    HW196707   9.293   8.974   0.485
64956SOL    HW296708   9.203   8.893   0.576
64957SOL     OW96709   9.803  11.882   8.459
64957SOL    HW196710   9.838  11.824   8.390
64957SOL    HW296711   9.809  11.830   8.539
64958SOL     OW96712   3.455  11.716   5.176
64958SOL    HW196713   3.433  11.797   5.130
64958SOL    HW296714   3.391  11.652   5.144
64959SOL     OW96715   4.004  13.129  14.672
64959SOL    HW196716   4.042  13.188  14.737
64959SOL    HW296717   4.074  13.068  14.650
64960SOL     OW96718   9.953   1.878   0.130
64960SOL    HW196719   9.899   1.833   0.065
64960SOL    HW296720   9.892   1.937   0.176
64961SOL     OW96721   0.437  14.156   0.155
64961SOL    HW196722   0.370  14.150   0.086
64961SOL    HW296723   0.478  14.070   0.157
64962SOL     OW96724   1.862   7.874   4.539
64962SOL    HW196725   1.954   7.900   4.541
64962SOL    HW296726   1.822   7.931   4.474
64963SOL     OW96727   2.278   4.516   0.279
64963SOL    HW196728   2.281   4.484   0.370
64963SOL    HW296729   2.348   4.581   0.274
64964SOL     OW96730   8.840   8.102   3.220
64964SOL    HW196731   8.892   8.124   3.142
64964SOL    HW296732   8.899   8.120   3.294
64965SOL     OW96733   4.794   0.448  11.536
64965SOL    HW196734   4.887   0.449  11.514
64965SOL    HW296735   4.757   0.524  11.490
64966SOL     OW96736   1.090   5.433   0.517
64966SOL    HW196737   1.111   5.377   0.442
64966SOL    HW296738   1.032   5.379   0.572
64967SOL     OW96739   6.790   2.458   1.876
64967SOL    HW196740   6.759   2.519   1.943
64967SOL    HW296741   6.852   2.510   1.824
64968SOL     OW96742   3.786   5.257   4.174
64968SOL    HW196743   3.765   5.277   4.265
64968SOL    HW296744   3.716   5.198   4.145
64969SOL     OW96745   7.162   3.369   4.718
64969SOL    HW196746   7.244   3.357   4.670
64969SOL    HW296747   7.127   3.281   4.729
64970SOL     OW96748  10.762  10.888   5.596
64970SOL    HW196749  10.776  10.828   5.669
64970SOL    HW296750  10.836  10.873   5.537
64971SOL     OW96751   3.422   2.509  14.661
64971SOL    HW196752   3.398   2.555  14.742
64971SOL    HW296753   3.357   2.537  14.597
64972SOL     OW96754  11.244   0.489  13.493
64972SOL    HW196755  11.151   0.478  13.510
64972SOL    HW296756  11.254   0.476  13.398
64973SOL     OW96757  12.408   6.152  13.305
64973SOL    HW196758  12.400   6.066  13.263
64973SOL    HW296759  12.321   6.169  13.341
64974SOL     OW96760  10.387   5.070   9.764
64974SOL    HW196761  10.426   4.999   9.816
64974SOL    HW296762  10.326   5.113   9.824
64975SOL     OW96763  13.802  11.602   5.043
64975SOL    HW196764  13.795  11.697   5.029
64975SOL    HW296765  13.850  11.593   5.125
64976SOL     OW96766  11.148   8.000   1.725
64976SOL    HW196767  11.140   7.929   1.662
64976SOL    HW296768  11.242   8.014   1.735
64977SOL     OW96769   2.136   3.324   8.564
64977SOL    HW196770   2.084   3.273   8.627
64977SOL    HW296771   2.075   3.344   8.494
64978SOL     OW96772  12.870  10.072   7.806
64978SOL    HW196773  12.920  10.064   7.725
64978SOL    HW296774  12.778  10.070   7.778
64979SOL     OW96775   3.810   7.159   8.638
64979SOL    HW196776   3.845   7.108   8.711
64979SOL    HW296777   3.751   7.099   8.592
64980SOL     OW96778   5.396   3.317   4.235
64980SOL    HW196779   5.314   3.338   4.280
64980SOL    HW296780   5.369   3.265   4.159
64981SOL     OW96781   6.014   0.595   8.681
64981SOL    HW196782   5.944   0.549   8.726
64981SOL    HW296783   6.057   0.527   8.629
64982SOL     OW96784   1.574   9.678   6.515
64982SOL    HW196785   1.512   9.688   6.588
64982SOL    HW296786   1.572   9.762   6.471
64983SOL     OW96787   9.553  13.561  14.393
64983SOL    HW196788   9.615  13.489  14.407
64983SOL    HW296789   9.470  13.526  14.426
64984SOL     OW96790   7.814   7.141   3.215
64984SOL    HW196791   7.779   7.207   3.274
64984SOL    HW296792   7.909   7.143   3.230
64985SOL     OW96793  14.669   0.968  10.722
64985SOL    HW196794  14.699   1.057  10.704
64985SOL    HW296795  14.648   0.932  10.636
64986SOL     OW96796  12.489   2.047  12.689
64986SOL    HW196797  12.585   2.039  12.693
64986SOL    HW296798  12.472   2.139  12.708
64987SOL     OW96799   9.696   1.884  14.457
64987SOL    HW196800   9.701   1.790  14.440
64987SOL    HW296801   9.603   1.905  14.453
64988SOL     OW96802  12.894   8.610   9.050
64988SOL    HW196803  12.959   8.578   9.113
64988SOL    HW296804  12.942   8.617   8.968
64989SOL     OW96805   7.131   1.746  12.946
64989SOL    HW196806   7.139   1.697  13.028
64989SOL    HW296807   7.162   1.685  12.879
64990SOL     OW96808   0.468  13.282   6.976
64990SOL    HW196809   0.510  13.325   6.902
64990SOL    HW296810   0.393  13.236   6.938
64991SOL     OW96811   8.719   6.981   8.130
64991SOL    HW196812   8.770   7.042   8.183
64991SOL    HW296813   8.784   6.920   8.094
64992SOL     OW96814   8.656  10.132  11.284
64992SOL    HW196815   8.638  10.222  11.311
64992SOL    HW296816   8.734  10.107  11.333
64993SOL     OW96817  14.363  10.730  10.770
64993SOL    HW196818  14.274  10.760  10.752
64993SOL    HW296819  14.363  10.707  10.862
64994SOL     OW96820   3.402   0.128   0.504
64994SOL    HW196821   3.387   0.205   0.560
64994SOL    HW296822   3.326   0.125   0.446
64995SOL     OW96823   1.287   3.343  13.099
64995SOL    HW196824   1.346   3.295  13.041
64995SOL    HW296825   1.287   3.291  13.180
64996SOL     OW96826  13.819   7.407   4.993
64996SOL    HW196827  13.848   7.352   4.920
64996SOL    HW296828  13.723   7.402   4.989
64997SOL     OW96829  12.229  10.501  14.133
64997SOL    HW196830  12.152  10.472  14.082
64997SOL    HW296831  12.254  10.423  14.183
64998SOL     OW96832   2.669   6.241  11.032
64998SOL    HW196833   2.755   6.238  11.074
64998SOL    HW296834   2.636   6.329  11.051
64999SOL     OW96835   4.584  14.624   8.163
64999SOL    HW196836   4.571  14.687   8.092
64999SOL    HW296837   4.650  14.666   8.219
65000SOL     OW96838   5.137   4.914   2.080
65000SOL    HW196839   5.163   4.917   1.987
65000SOL    HW296840   5.058   4.860   2.081
65001SOL     OW96841   0.884  11.966   3.887
65001SOL    HW196842   0.937  11.894   3.853
65001SOL    HW296843   0.910  11.973   3.979
65002SOL     OW96844  10.236   1.000   8.837
65002SOL    HW196845  10.218   1.089   8.867
65002SOL    HW296846  10.218   0.945   8.914
65003SOL     OW96847   9.895   2.130  11.464
65003SOL    HW196848   9.895   2.201  11.399
65003SOL    HW296849   9.883   2.050  11.412
65004SOL     OW96850  14.261   3.440  13.092
65004SOL    HW196851  14.186   3.402  13.138
65004SOL    HW296852  14.232   3.451  13.002
65005SOL     OW96853   9.346   7.550   5.707
65005SOL    HW196854   9.270   7.578   5.758
65005SOL    HW296855   9.340   7.454   5.706
65006SOL     OW96856   4.153  10.481   6.683
65006SOL    HW196857   4.085  10.416   6.699
65006SOL    HW296858   4.234  10.440   6.714
65007SOL     OW96859   7.134   2.447   0.980
65007SOL    HW196860   7.112   2.529   1.024
65007SOL    HW296861   7.100   2.456   0.891
65008SOL     OW96862   4.203   1.556   7.930
65008SOL    HW196863   4.148   1.481   7.907
65008SOL    HW296864   4.145   1.614   7.979
65009SOL     OW96865   6.699  12.820   4.380
65009SOL    HW196866   6.632  12.754   4.399
65009SOL    HW296867   6.731  12.846   4.466
65010SOL     OW96868   7.912  13.940  12.906
65010SOL    HW196869   7.949  14.010  12.852
65010SOL    HW296870   7.855  13.985  12.968
65011SOL     OW96871   6.911   7.700   5.005
65011SOL    HW196872   6.891   7.606   4.998
65011SOL    HW296873   6.993   7.710   4.957
65012SOL     OW96874   8.523   4.767   9.632
65012SOL    HW196875   8.550   4.796   9.545
65012SOL    HW296876   8.586   4.808   9.691
65013SOL     OW96877   7.016   5.434   8.400
65013SOL    HW196878   6.953   5.501   8.424
65013SOL    HW296879   6.964   5.354   8.391
65014SOL     OW96880   9.605   3.371  11.289
65014SOL    HW196881   9.582   3.405  11.376
65014SOL    HW296882   9.671   3.432  11.256
65015SOL     OW96883  12.812   2.984   7.699
65015SOL    HW196884  12.753   3.042   7.748
65015SOL    HW296885  12.835   2.916   7.761
65016SOL     OW96886   7.501  11.878   6.533
65016SOL    HW196887   7.555  11.806   6.500
65016SOL    HW296888   7.414  11.861   6.497
65017SOL     OW96889  12.027   6.264   4.925
65017SOL    HW196890  12.085   6.336   4.898
65017SOL    HW296891  11.974   6.246   4.848
65018SOL     OW96892   3.241   3.772   8.219
65018SOL    HW196893   3.323   3.774   8.268
65018SOL    HW296894   3.268   3.776   8.127
65019SOL     OW96895   2.332  10.060  12.321
65019SOL    HW196896   2.386  10.131  12.357
65019SOL    HW296897   2.378  10.033  12.242
65020SOL     OW96898  14.212   4.306   9.032
65020SOL    HW196899  14.257   4.322   8.949
65020SOL    HW296900  14.254   4.228   9.068
65021SOL     OW96901   2.339   6.928   4.815
65021SOL    HW196902   2.396   7.001   4.836
65021SOL    HW296903   2.334   6.876   4.895
65022SOL     OW96904   3.083  12.630  10.770
65022SOL    HW196905   3.071  12.665  10.682
65022SOL    HW296906   3.158  12.571  10.762
65023SOL     OW96907  12.672   1.402  13.492
65023SOL    HW196908  12.653   1.394  13.585
65023SOL    HW296909  12.723   1.324  13.470
65024SOL     OW96910  14.879  10.207   9.159
65024SOL    HW196911   0.082  10.252   9.177
65024SOL    HW296912   0.023  10.115   9.153
65025SOL     OW96913   4.421  12.017  10.051
65025SOL    HW196914   4.430  12.111  10.040
65025SOL    HW296915   4.346  12.006  10.110
65026SOL     OW96916  13.074  11.103  10.587
65026SOL    HW196917  13.093  11.010  10.571
65026SOL    HW296918  13.161  11.144  10.592
65027SOL     OW96919   9.786   0.008  10.852
65027SOL    HW196920   9.724  14.848  10.791
65027SOL    HW296921   9.822   0.083  10.805
65028SOL     OW96922  11.399   7.814   1.023
65028SOL    HW196923  11.391   7.817   1.118
65028SOL    HW296924  11.344   7.885   0.992
65029SOL     OW96925   5.182   2.065   0.865
65029SOL    HW196926   5.238   2.001   0.820
65029SOL    HW296927   5.115   2.088   0.801
65030SOL     OW96928   8.728   9.322   3.414
65030SOL    HW196929   8.801   9.276   3.456
65030SOL    HW296930   8.650   9.281   3.450
65031SOL     OW96931   0.963  12.389   2.747
65031SOL    HW196932   0.985  12.478   2.719
65031SOL    HW296933   1.046  12.341   2.738
65032SOL     OW96934   4.097   4.516   4.808
65032SOL    HW196935   4.160   4.481   4.871
65032SOL    HW296936   4.012   4.509   4.852
65033SOL     OW96937   4.997   4.583   0.524
65033SOL    HW196938   5.030   4.651   0.582
65033SOL    HW296939   5.075   4.547   0.482
65034SOL     OW96940   8.656   1.602   3.281
65034SOL    HW196941   8.567   1.575   3.302
65034SOL    HW296942   8.649   1.696   3.263
65035SOL     OW96943  11.981   1.637  10.064
65035SOL    HW196944  11.932   1.570  10.111
65035SOL    HW296945  12.058   1.654  10.119
65036SOL     OW96946  10.110   1.962  13.820
65036SOL    HW196947  10.105   2.058  13.819
65036SOL    HW296948  10.198   1.943  13.850
65037SOL     OW96949   2.012   0.773  14.463
65037SOL    HW196950   2.056   0.805  14.384
65037SOL    HW296951   2.074   0.790  14.534
65038SOL     OW96952   7.183  14.611  14.680
65038SOL    HW196953   7.228  14.527  14.682
65038SOL    HW296954   7.179  14.638  14.771
65039SOL     OW96955   5.480   7.764  14.771
65039SOL    HW196956   5.437   7.800  14.849
65039SOL    HW296957   5.413   7.707  14.731
65040SOL     OW96958   3.381  10.763   1.231
65040SOL    HW196959   3.384  10.739   1.138
65040SOL    HW296960   3.450  10.828   1.241
65041SOL     OW96961   0.070   3.610  14.668
65041SOL    HW196962   0.117   3.679  14.621
65041SOL    HW296963   0.075   3.636  14.760
65042SOL     OW96964   3.720   1.965   9.797
65042SOL    HW196965   3.711   1.981   9.891
65042SOL    HW296966   3.796   1.908   9.791
65043SOL     OW96967  13.592   5.803   3.030
65043SOL    HW196968  13.587   5.738   3.100
65043SOL    HW296969  13.677   5.787   2.989
65044SOL     OW96970  12.799   8.839   2.809
65044SOL    HW196971  12.743   8.899   2.857
65044SOL    HW296972  12.809   8.763   2.867
65045SOL     OW96973   3.863   9.514   9.616
65045SOL    HW196974   3.902   9.535   9.700
65045SOL    HW296975   3.832   9.598   9.582
65046SOL     OW96976   4.210  14.053  11.263
65046SOL    HW196977   4.269  14.089  11.196
65046SOL    HW296978   4.175  13.973  11.223
65047SOL     OW96979  11.615   0.012   0.856
65047SOL    HW196980  11.522   0.023   0.839
65047SOL    HW296981  11.623   0.018   0.951
65048SOL     OW96982   8.487   2.254  13.086
65048SOL    HW196983   8.552   2.191  13.115
65048SOL    HW296984   8.489   2.249  12.990
65049SOL     OW96985  12.892   2.389   9.283
65049SOL    HW196986  12.981   2.413   9.256
65049SOL    HW296987  12.886   2.417   9.375
65050SOL     OW96988   0.819  11.145   8.647
65050SOL    HW196989   0.770  11.219   8.611
65050SOL    HW296990   0.910  11.176   8.649
65051SOL     OW96991   3.533  12.342   4.503
65051SOL    HW196992   3.534  12.437   4.490
65051SOL    HW296993   3.466  12.328   4.570
65052SOL     OW96994  10.570  10.604  10.014
65052SOL    HW196995  10.648  10.623   9.962
65052SOL    HW296996  10.520  10.543   9.960
65053SOL     OW96997   7.147  11.508  13.304
65053SOL    HW196998   7.102  11.564  13.240
65053SOL    HW296999   7.144  11.557  13.386
65054SOL     OW97000   2.722   9.520  11.268
65054SOL    HW197001   2.746   9.434  11.303
65054SOL    HW297002   2.725   9.508  11.173
65055SOL     OW97003   8.891  13.803  14.411
65055SOL    HW197004   8.857  13.889  14.390
65055SOL    HW297005   8.963  13.819  14.472
65056SOL     OW97006   9.125   5.218   8.517
65056SOL    HW197007   9.138   5.124   8.532
65056SOL    HW297008   9.087   5.250   8.600
65057SOL     OW97009   3.323   0.981   8.335
65057SOL    HW197010   3.338   0.888   8.350
65057SOL    HW297011   3.327   0.991   8.240
65058SOL     OW97012  12.252  13.971   7.704
65058SOL    HW197013  12.324  13.916   7.672
65058SOL    HW297014  12.294  14.034   7.763
65059SOL     OW97015   8.139   8.345   3.447
65059SOL    HW197016   8.064   8.345   3.387
65059SOL    HW297017   8.176   8.257   3.439
65060SOL     OW97018   4.637   5.654  13.382
65060SOL    HW197019   4.611   5.686  13.296
65060SOL    HW297020   4.718   5.606  13.366
65061SOL     OW97021   0.045   0.620   0.139
65061SOL    HW197022   0.015   0.711   0.139
65061SOL    HW297023  14.845   0.569   0.123
65062SOL     OW97024   4.707  13.656   0.888
65062SOL    HW197025   4.768  13.727   0.909
65062SOL    HW297026   4.710  13.648   0.793
65063SOL     OW97027   9.290  13.380  14.247
65063SOL    HW197028   9.217  13.440  14.230
65063SOL    HW297029   9.258  13.322  14.317
65064SOL     OW97030   5.497  11.015  10.397
65064SOL    HW197031   5.523  10.930  10.433
65064SOL    HW297032   5.421  11.040  10.449
65065SOL     OW97033   1.471  13.448  12.545
65065SOL    HW197034   1.380  13.427  12.525
65065SOL    HW297035   1.517  13.435  12.463
65066SOL     OW97036  14.686   3.658   7.145
65066SOL    HW197037  14.616   3.688   7.203
65066SOL    HW297038  14.702   3.732   7.086
65067SOL     OW97039   5.540   6.164   2.272
65067SOL    HW197040   5.593   6.131   2.199
65067SOL    HW297041   5.605   6.195   2.336
65068SOL     OW97042   9.208   1.421  14.870
65068SOL    HW197043   9.251   1.421   0.076
65068SOL    HW297044   9.272   1.381  14.811
65069SOL     OW97045   7.672   2.869   1.635
65069SOL    HW197046   7.618   2.945   1.616
65069SOL    HW297047   7.630   2.797   1.587
65070SOL     OW97048   5.056   4.666   9.162
65070SOL    HW197049   5.136   4.692   9.208
65070SOL    HW297050   4.995   4.641   9.231
65071SOL     OW97051   6.238   9.587   8.167
65071SOL    HW197052   6.253   9.681   8.162
65071SOL    HW297053   6.251   9.556   8.077
65072SOL     OW97054   1.931   8.070   5.470
65072SOL    HW197055   2.013   8.064   5.520
65072SOL    HW297056   1.904   8.161   5.480
65073SOL     OW97057   7.565   1.835   6.269
65073SOL    HW197058   7.476   1.801   6.272
65073SOL    HW297059   7.554   1.930   6.259
65074SOL     OW97060  14.203  13.251   6.335
65074SOL    HW197061  14.210  13.315   6.406
65074SOL    HW297062  14.264  13.181   6.358
65075SOL     OW97063   1.127   5.571   5.820
65075SOL    HW197064   1.063   5.521   5.871
65075SOL    HW297065   1.074   5.632   5.769
65076SOL     OW97066   9.243   9.660  13.084
65076SOL    HW197067   9.307   9.676  13.014
65076SOL    HW297068   9.251   9.737  13.141
65077SOL     OW97069   0.395   4.918  13.701
65077SOL    HW197070   0.479   4.887  13.735
65077SOL    HW297071   0.361   4.975  13.770
65078SOL     OW97072  13.944  13.184   6.573
65078SOL    HW197073  13.953  13.220   6.661
65078SOL    HW297074  13.910  13.256   6.520
65079SOL     OW97075  13.933   5.059   9.808
65079SOL    HW197076  14.011   5.017   9.771
65079SOL    HW297077  13.861   5.024   9.756
65080SOL     OW97078  14.231   9.697   1.720
65080SOL    HW197079  14.318   9.733   1.741
65080SOL    HW297080  14.179   9.774   1.697
65081SOL     OW97081   2.944   9.467   1.534
65081SOL    HW197082   2.906   9.387   1.571
65081SOL    HW297083   2.877   9.534   1.548
65082SOL     OW97084   7.752  12.183   8.789
65082SOL    HW197085   7.829  12.215   8.742
65082SOL    HW297086   7.693  12.258   8.792
65083SOL     OW97087   4.224  11.567   8.762
65083SOL    HW197088   4.291  11.565   8.830
65083SOL    HW297089   4.273  11.575   8.680
65084SOL     OW97090   2.809  10.108   3.856
65084SOL    HW197091   2.833  10.182   3.911
65084SOL    HW297092   2.715  10.099   3.868
65085SOL     OW97093   4.908  11.975   8.068
65085SOL    HW197094   4.920  11.959   7.974
65085SOL    HW297095   4.987  12.023   8.094
65086SOL     OW97096   9.500   1.303   2.752
65086SOL    HW197097   9.442   1.289   2.827
65086SOL    HW297098   9.448   1.354   2.690
65087SOL     OW97099   3.746   3.863   0.835
65087SOL    HW197100   3.817   3.820   0.787
65087SOL    HW297101   3.696   3.792   0.874
65088SOL     OW97102  14.008   2.229  11.841
65088SOL    HW197103  13.957   2.307  11.826
65088SOL    HW297104  14.006   2.181  11.758
65089SOL     OW97105   5.145   8.705   5.990
65089SOL    HW197106   5.188   8.787   5.965
65089SOL    HW297107   5.215   8.640   5.990
65090SOL     OW97108  14.351   4.351   2.949
65090SOL    HW197109  14.294   4.345   3.026
65090SOL    HW297110  14.358   4.261   2.918
65091SOL     OW97111  11.078  13.533   0.199
65091SOL    HW197112  11.150  13.595   0.210
65091SOL    HW297113  11.007  13.584   0.161
65092SOL     OW97114   9.930   0.742   4.855
65092SOL    HW197115   9.864   0.808   4.876
65092SOL    HW297116   9.906   0.666   4.908
65093SOL     OW97117   2.471   6.241  10.632
65093SOL    HW197118   2.504   6.325  10.663
65093SOL    HW297119   2.497   6.179  10.700
65094SOL     OW97120   0.671   4.589   0.043
65094SOL    HW197121   0.721   4.574  14.843
65094SOL    HW297122   0.736   4.586   0.113
65095SOL     OW97123  12.396   9.755  11.166
65095SOL    HW197124  12.443   9.831  11.198
65095SOL    HW297125  12.357   9.784  11.083
65096SOL     OW97126  13.873   9.411   3.622
65096SOL    HW197127  13.802   9.380   3.566
65096SOL    HW297128  13.848   9.500   3.647
65097SOL     OW97129  11.043   7.677  11.928
65097SOL    HW197130  11.034   7.689  11.833
65097SOL    HW297131  11.085   7.592  11.938
65098SOL     OW97132  12.953  12.242   1.405
65098SOL    HW197133  12.987  12.160   1.370
65098SOL    HW297134  13.007  12.258   1.483
65099SOL     OW97135   4.846  12.310   3.103
65099SOL    HW197136   4.784  12.327   3.032
65099SOL    HW297137   4.919  12.370   3.085
65100SOL     OW97138  11.836   6.656  11.713
65100SOL    HW197139  11.920   6.651  11.758
65100SOL    HW297140  11.780   6.705  11.773
65101SOL     OW97141  12.133   6.673   1.249
65101SOL    HW197142  12.186   6.621   1.309
65101SOL    HW297143  12.043   6.649   1.270
65102SOL     OW97144  12.714   3.002  11.332
65102SOL    HW197145  12.628   2.969  11.354
65102SOL    HW297146  12.697   3.076  11.273
65103SOL     OW97147   2.065  12.037   4.485
65103SOL    HW197148   2.027  12.012   4.401
65103SOL    HW297149   2.008  11.996   4.551
65104SOL     OW97150   5.189   2.522  13.582
65104SOL    HW197151   5.144   2.479  13.655
65104SOL    HW297152   5.281   2.524  13.609
65105SOL     OW97153   6.111   3.470  14.552
65105SOL    HW197154   6.201   3.441  14.538
65105SOL    HW297155   6.115   3.524  14.631
65106SOL     OW97156  11.987   8.806   2.040
65106SOL    HW197157  12.047   8.861   1.990
65106SOL    HW297158  11.902   8.817   1.997
65107SOL     OW97159   2.557  11.398   5.535
65107SOL    HW197160   2.588  11.355   5.615
65107SOL    HW297161   2.468  11.425   5.555
65108SOL     OW97162  11.315   5.850   3.957
65108SOL    HW197163  11.254   5.801   4.012
65108SOL    HW297164  11.318   5.802   3.875
65109SOL     OW97165  14.774  12.903   2.659
65109SOL    HW197166  14.739  12.891   2.571
65109SOL    HW297167  14.765  12.817   2.700
65110SOL     OW97168  11.078   8.489   0.702
65110SOL    HW197169  10.993   8.514   0.666
65110SOL    HW297170  11.086   8.541   0.782
65111SOL     OW97171   9.679   8.968   9.301
65111SOL    HW197172   9.647   8.918   9.226
65111SOL    HW297173   9.601   9.011   9.337
65112SOL     OW97174  14.028  10.010   3.589
65112SOL    HW197175  14.069   9.992   3.504
65112SOL    HW297176  13.976   9.932   3.607
65113SOL     OW97177   1.701   4.420   4.478
65113SOL    HW197178   1.746   4.489   4.430
65113SOL    HW297179   1.615   4.457   4.497
65114SOL     OW97180   5.106   6.847   6.856
65114SOL    HW197181   5.196   6.821   6.878
65114SOL    HW297182   5.066   6.767   6.820
65115SOL     OW97183  11.109   5.634   9.850
65115SOL    HW197184  11.201   5.614   9.868
65115SOL    HW297185  11.068   5.548   9.835
65116SOL     OW97186  12.093   1.557   7.412
65116SOL    HW197187  12.019   1.543   7.354
65116SOL    HW297188  12.165   1.583   7.354
65117SOL     OW97189   4.082   1.070   8.676
65117SOL    HW197190   4.038   0.991   8.645
65117SOL    HW297191   4.010   1.128   8.703
65118SOL     OW97192   5.486  14.176   9.508
65118SOL    HW197193   5.434  14.223   9.574
65118SOL    HW297194   5.571  14.161   9.550
65119SOL     OW97195   8.649   1.971  14.493
65119SOL    HW197196   8.637   1.879  14.517
65119SOL    HW297197   8.691   1.969  14.408
65120SOL     OW97198   4.091   7.001  12.421
65120SOL    HW197199   4.135   6.918  12.403
65120SOL    HW297200   4.071   6.998  12.515
65121SOL     OW97201   3.143  10.526   7.804
65121SOL    HW197202   3.174  10.459   7.863
65121SOL    HW297203   3.167  10.495   7.717
65122SOL     OW97204   4.173   3.707   0.311
65122SOL    HW197205   4.208   3.796   0.299
65122SOL    HW297206   4.101   3.702   0.248
65123SOL     OW97207   2.246   0.449   3.644
65123SOL    HW197208   2.318   0.511   3.651
65123SOL    HW297209   2.189   0.485   3.576
65124SOL     OW97210   8.882   3.443  10.662
65124SOL    HW197211   8.895   3.538  10.659
65124SOL    HW297212   8.951   3.409  10.605
65125SOL     OW97213   0.691   6.146   7.748
65125SOL    HW197214   0.646   6.162   7.665
65125SOL    HW297215   0.745   6.224   7.761
65126SOL     OW97216   7.675  11.997   4.007
65126SOL    HW197217   7.701  12.087   4.028
65126SOL    HW297218   7.583  11.992   4.032
65127SOL     OW97219   2.675   5.704   6.859
65127SOL    HW197220   2.721   5.777   6.819
65127SOL    HW297221   2.628   5.742   6.933
65128SOL     OW97222  14.201   2.169   6.158
65128SOL    HW197223  14.198   2.264   6.147
65128SOL    HW297224  14.246   2.138   6.079
65129SOL     OW97225   6.427  11.724  12.140
65129SOL    HW197226   6.414  11.753  12.230
65129SOL    HW297227   6.423  11.805  12.088
65130SOL     OW97228  12.888   6.343   7.124
65130SOL    HW197229  12.930   6.260   7.144
65130SOL    HW297230  12.960   6.404   7.107
65131SOL     OW97231   3.703  11.469   5.406
65131SOL    HW197232   3.772  11.535   5.398
65131SOL    HW297233   3.706  11.442   5.498
65132SOL     OW97234   8.020  14.099   5.455
65132SOL    HW197235   8.026  14.108   5.550
65132SOL    HW297236   8.042  14.185   5.421
65133SOL     OW97237  12.317   3.925   7.719
65133SOL    HW197238  12.251   3.919   7.649
65133SOL    HW297239  12.313   4.016   7.748
65134SOL     OW97240  13.061  12.960  14.158
65134SOL    HW197241  13.143  12.985  14.115
65134SOL    HW297242  12.993  12.978  14.093
65135SOL     OW97243   0.616   6.021   4.998
65135SOL    HW197244   0.633   6.039   4.906
65135SOL    HW297245   0.545   5.957   4.997
65136SOL     OW97246   3.536   8.603   8.495
65136SOL    HW197247   3.480   8.653   8.436
65136SOL    HW297248   3.477   8.540   8.537
65137SOL     OW97249  12.795  11.737   4.961
65137SOL    HW197250  12.785  11.657   4.909
65137SOL    HW297251  12.705  11.765   4.979
65138SOL     OW97252   9.097  14.070   2.571
65138SOL    HW197253   9.172  14.038   2.622
65138SOL    HW297254   9.066  14.146   2.620
65139SOL     OW97255   6.791   4.291  10.266
65139SOL    HW197256   6.745   4.208  10.256
65139SOL    HW297257   6.828   4.287  10.354
65140SOL     OW97258  14.062   6.427  12.176
65140SOL    HW197259  14.013   6.492  12.125
65140SOL    HW297260  14.123   6.479  12.229
65141SOL     OW97261  10.365   3.040  12.675
65141SOL    HW197262  10.341   2.965  12.620
65141SOL    HW297263  10.437   3.081  12.629
65142SOL     OW97264  13.931   7.605   7.458
65142SOL    HW197265  13.915   7.654   7.377
65142SOL    HW297266  13.987   7.533   7.432
65143SOL     OW97267   3.265  13.607   6.768
65143SOL    HW197268   3.322  13.609   6.692
65143SOL    HW297269   3.301  13.673   6.828
65144SOL     OW97270   1.901  11.878  10.942
65144SOL    HW197271   1.949  11.949  10.985
65144SOL    HW297272   1.840  11.923  10.884
65145SOL     OW97273   2.765  14.102   8.477
65145SOL    HW197274   2.758  14.008   8.493
65145SOL    HW297275   2.738  14.112   8.386
65146SOL     OW97276  14.165  10.472   1.182
65146SOL    HW197277  14.234  10.488   1.117
65146SOL    HW297278  14.173  10.545   1.244
65147SOL     OW97279   4.702   1.953   5.451
65147SOL    HW197280   4.630   2.003   5.489
65147SOL    HW297281   4.744   2.014   5.390
65148SOL     OW97282   6.219   1.255  14.359
65148SOL    HW197283   6.279   1.330  14.360
65148SOL    HW297284   6.157   1.273  14.429
65149SOL     OW97285   1.825  14.549   6.061
65149SOL    HW197286   1.881  14.575   5.988
65149SOL    HW297287   1.760  14.491   6.023
65150SOL     OW97288  13.287   2.582   9.600
65150SOL    HW197289  13.365   2.528   9.611
65150SOL    HW297290  13.229   2.555   9.672
65151SOL     OW97291   3.555   9.102  11.738
65151SOL    HW197292   3.501   9.042  11.687
65151SOL    HW297293   3.512   9.106  11.824
65152SOL     OW97294   1.566   9.544   7.517
65152SOL    HW197295   1.634   9.494   7.563
65152SOL    HW297296   1.595   9.635   7.523
65153SOL     OW97297   1.790  13.354  13.462
65153SOL    HW197298   1.880  13.386  13.465
65153SOL    HW297299   1.795  13.274  13.410
65154SOL     OW97300   1.094  10.672  11.793
65154SOL    HW197301   1.094  10.638  11.882
65154SOL    HW297302   1.085  10.594  11.738
65155SOL     OW97303   1.723   6.429   1.928
65155SOL    HW197304   1.690   6.498   1.986
65155SOL    HW297305   1.643   6.389   1.891
65156SOL     OW97306  10.580   2.584   5.219
65156SOL    HW197307  10.499   2.564   5.266
65156SOL    HW297308  10.629   2.640   5.279
65157SOL     OW97309  10.181   0.740   1.307
65157SOL    HW197310  10.169   0.685   1.385
65157SOL    HW297311  10.142   0.824   1.331
65158SOL     OW97312   1.409  14.246  13.711
65158SOL    HW197313   1.334  14.290  13.752
65158SOL    HW297314   1.399  14.262  13.618
65159SOL     OW97315   0.397  13.083  13.450
65159SOL    HW197316   0.306  13.112  13.442
65159SOL    HW297317   0.446  13.163  13.465
65160SOL     OW97318   6.658   7.149  10.887
65160SOL    HW197319   6.631   7.103  10.808
65160SOL    HW297320   6.670   7.079  10.952
65161SOL     OW97321   5.801   0.966   0.351
65161SOL    HW197322   5.820   1.053   0.387
65161SOL    HW297323   5.841   0.966   0.264
65162SOL     OW97324   7.333  12.963  14.620
65162SOL    HW197325   7.292  12.882  14.652
65162SOL    HW297326   7.394  12.988  14.689
65163SOL     OW97327   6.734  13.770  11.849
65163SOL    HW197328   6.694  13.769  11.762
65163SOL    HW297329   6.662  13.788  11.909
65164SOL     OW97330   7.192   2.899   6.112
65164SOL    HW197331   7.173   2.812   6.076
65164SOL    HW297332   7.214   2.952   6.035
65165SOL     OW97333   1.179   9.832   0.872
65165SOL    HW197334   1.191   9.925   0.889
65165SOL    HW297335   1.085   9.818   0.878
65166SOL     OW97336   8.278   4.959   4.131
65166SOL    HW197337   8.319   5.015   4.197
65166SOL    HW297338   8.186   4.983   4.133
65167SOL     OW97339   6.398   0.190   2.802
65167SOL    HW197340   6.356   0.276   2.806
65167SOL    HW297341   6.349   0.142   2.735
65168SOL     OW97342  14.188   7.949  14.556
65168SOL    HW197343  14.215   7.857  14.554
65168SOL    HW297344  14.269   7.998  14.552
65169SOL     OW97345  13.300   9.382   3.350
65169SOL    HW197346  13.378   9.435   3.331
65169SOL    HW297347  13.311   9.304   3.295
65170SOL     OW97348   5.284  14.014   6.926
65170SOL    HW197349   5.214  14.070   6.960
65170SOL    HW297350   5.242  13.960   6.860
65171SOL     OW97351   7.773   9.853  10.045
65171SOL    HW197352   7.801   9.836  10.135
65171SOL    HW297353   7.852   9.879   9.999
65172SOL     OW97354   3.237  11.084   5.043
65172SOL    HW197355   3.240  10.991   5.020
65172SOL    HW297356   3.311  11.096   5.102
65173SOL     OW97357  10.685   6.279  11.910
65173SOL    HW197358  10.624   6.256  11.840
65173SOL    HW297359  10.705   6.371  11.895
65174SOL     OW97360  12.363  10.393  13.196
65174SOL    HW197361  12.383  10.301  13.183
65174SOL    HW297362  12.445  10.439  13.178
65175SOL     OW97363   1.226   2.714   2.041
65175SOL    HW197364   1.175   2.658   2.100
65175SOL    HW297365   1.163   2.747   1.978
65176SOL     OW97366  11.699  13.764   6.192
65176SOL    HW197367  11.795  13.770   6.195
65176SOL    HW297368  11.680  13.740   6.101
65177SOL     OW97369  12.806   8.592   9.345
65177SOL    HW197370  12.816   8.626   9.256
65177SOL    HW297371  12.811   8.670   9.401
65178SOL     OW97372   0.962   9.315   4.585
65178SOL    HW197373   0.978   9.236   4.637
65178SOL    HW297374   1.046   9.334   4.545
65179SOL     OW97375   8.105  13.527  11.295
65179SOL    HW197376   8.072  13.611  11.264
65179SOL    HW297377   8.106  13.470  11.218
65180SOL     OW97378  12.962  10.645  13.523
65180SOL    HW197379  12.986  10.683  13.438
65180SOL    HW297380  12.919  10.716  13.570
65181SOL     OW97381  14.495   3.470   3.103
65181SOL    HW197382  14.465   3.487   3.014
65181SOL    HW297383  14.416   3.442   3.150
65182SOL     OW97384   0.247   7.982   4.727
65182SOL    HW197385   0.247   7.997   4.632
65182SOL    HW297386   0.330   7.937   4.745
65183SOL     OW97387   1.678   6.443   5.506
65183SOL    HW197388   1.712   6.505   5.441
65183SOL    HW297389   1.711   6.358   5.478
65184SOL     OW97390  14.707  10.948   0.686
65184SOL    HW197391  14.734  10.981   0.772
65184SOL    HW297392  14.626  10.995   0.667
65185SOL     OW97393  13.289   6.892   4.917
65185SOL    HW197394  13.295   6.964   4.855
65185SOL    HW297395  13.213   6.841   4.888
65186SOL     OW97396  10.715   8.495   7.569
65186SOL    HW197397  10.707   8.561   7.499
65186SOL    HW297398  10.625   8.468   7.586
65187SOL     OW97399   9.504   7.744   4.367
65187SOL    HW197400   9.549   7.781   4.444
65187SOL    HW297401   9.518   7.810   4.299
65188SOL     OW97402   1.311  14.608   1.130
65188SOL    HW197403   1.351  14.526   1.100
65188SOL    HW297404   1.302  14.597   1.225
65189SOL     OW97405  12.357  13.151   6.353
65189SOL    HW197406  12.289  13.216   6.335
65189SOL    HW297407  12.394  13.130   6.267
65190SOL     OW97408   2.152   1.350   4.284
65190SOL    HW197409   2.241   1.352   4.248
65190SOL    HW297410   2.132   1.256   4.291
65191SOL     OW97411   5.449   2.976  13.822
65191SOL    HW197412   5.475   3.062  13.855
65191SOL    HW297413   5.365   2.959  13.863
65192SOL     OW97414  14.589   3.240  11.017
65192SOL    HW197415  14.510   3.185  11.014
65192SOL    HW297416  14.577   3.295  11.095
65193SOL     OW97417   4.066  13.328   9.041
65193SOL    HW197418   4.005  13.386   8.996
65193SOL    HW297419   4.126  13.387   9.086
65194SOL     OW97420  13.449   6.923   2.401
65194SOL    HW197421  13.493   7.007   2.391
65194SOL    HW297422  13.418   6.922   2.491
65195SOL     OW97423  11.128  13.645   6.010
65195SOL    HW197424  11.184  13.569   6.025
65195SOL    HW297425  11.181  13.719   6.040
65196SOL     OW97426  11.357   5.926   3.375
65196SOL    HW197427  11.405   5.859   3.326
65196SOL    HW297428  11.265   5.911   3.352
65197SOL     OW97429  14.105   6.258   9.427
65197SOL    HW197430  14.108   6.179   9.373
65197SOL    HW297431  14.162   6.240   9.501
65198SOL     OW97432   1.899   7.295   7.286
65198SOL    HW197433   1.974   7.347   7.316
65198SOL    HW297434   1.909   7.293   7.190
65199SOL     OW97435   5.060   2.313   1.012
65199SOL    HW197436   5.034   2.268   1.092
65199SOL    HW297437   5.018   2.263   0.942
65200SOL     OW97438  14.401  10.549   1.339
65200SOL    HW197439  14.489  10.531   1.304
65200SOL    HW297440  14.400  10.644   1.350
65201SOL     OW97441   9.977  13.362   0.421
65201SOL    HW197442   9.972  13.367   0.516
65201SOL    HW297443   9.995  13.269   0.402
65202SOL     OW97444   7.203  14.672  13.751
65202SOL    HW197445   7.137  14.695  13.817
65202SOL    HW297446   7.152  14.662  13.670
65203SOL     OW97447   2.257   3.964   1.180
65203SOL    HW197448   2.210   4.007   1.251
65203SOL    HW297449   2.247   4.023   1.105
65204SOL     OW97450   8.276   0.941   4.959
65204SOL    HW197451   8.358   0.984   4.984
65204SOL    HW297452   8.242   0.995   4.888
65205SOL     OW97453   1.488  11.475  11.625
65205SOL    HW197454   1.430  11.465  11.550
65205SOL    HW297455   1.484  11.391  11.670
65206SOL     OW97456   3.424   9.470   1.171
65206SOL    HW197457   3.482   9.547   1.168
65206SOL    HW297458   3.342   9.501   1.130
65207SOL     OW97459   3.660   9.220   4.387
65207SOL    HW197460   3.701   9.160   4.325
65207SOL    HW297461   3.605   9.164   4.443
65208SOL     OW97462   5.738   2.307   9.601
65208SOL    HW197463   5.800   2.311   9.674
65208SOL    HW297464   5.793   2.306   9.523
65209SOL     OW97465   6.150   4.605   8.086
65209SOL    HW197466   6.218   4.664   8.120
65209SOL    HW297467   6.076   4.617   8.146
65210SOL     OW97468   6.310  13.405   6.372
65210SOL    HW197469   6.393  13.385   6.415
65210SOL    HW297470   6.247  13.413   6.444
65211SOL     OW97471  12.906  13.508   2.524
65211SOL    HW197472  12.823  13.479   2.484
65211SOL    HW297473  12.920  13.447   2.596
65212SOL     OW97474   4.989   9.402   6.271
65212SOL    HW197475   5.084   9.407   6.262
65212SOL    HW297476   4.970   9.308   6.272
65213SOL     OW97477   0.351   4.024  12.575
65213SOL    HW197478   0.344   4.019  12.670
65213SOL    HW297479   0.445   4.022  12.557
65214SOL     OW97480   2.554   7.747   3.931
65214SOL    HW197481   2.644   7.764   3.904
65214SOL    HW297482   2.521   7.831   3.960
65215SOL     OW97483   9.690   8.418   1.486
65215SOL    HW197484   9.757   8.383   1.544
65215SOL    HW297485   9.738   8.461   1.415
65216SOL     OW97486  14.585   3.126   1.700
65216SOL    HW197487  14.559   3.148   1.611
65216SOL    HW297488  14.598   3.031   1.698
65217SOL     OW97489   4.598   5.863   6.572
65217SOL    HW197490   4.502   5.856   6.567
65217SOL    HW297491   4.615   5.897   6.660
65218SOL     OW97492  13.324   9.630  10.777
65218SOL    HW197493  13.241   9.586  10.761
65218SOL    HW297494  13.361   9.642  10.689
65219SOL     OW97495   4.194  13.128  10.577
65219SOL    HW197496   4.288  13.132  10.593
65219SOL    HW297497   4.182  13.052  10.521
65220SOL     OW97498   4.545   2.802   1.078
65220SOL    HW197499   4.520   2.747   1.004
65220SOL    HW297500   4.468   2.857   1.095
65221SOL     OW97501  13.683   5.806   2.655
65221SOL    HW197502  13.704   5.771   2.569
65221SOL    HW297503  13.686   5.730   2.713
65222SOL     OW97504  12.556  14.076   9.679
65222SOL    HW197505  12.530  14.036   9.762
65222SOL    HW297506  12.643  14.039   9.662
65223SOL     OW97507  10.588   3.709  11.376
65223SOL    HW197508  10.543   3.739  11.455
65223SOL    HW297509  10.565   3.774  11.309
65224SOL     OW97510   5.487   4.990  14.750
65224SOL    HW197511   5.565   5.015  14.700
65224SOL    HW297512   5.441   5.073  14.764
65225SOL     OW97513  10.954   0.441  14.074
65225SOL    HW197514  11.024   0.470  14.133
65225SOL    HW297515  10.993   0.369  14.024
65226SOL     OW97516   5.756   0.038   6.462
65226SOL    HW197517   5.723  14.836   6.500
65226SOL    HW297518   5.774   0.094   6.537
65227SOL     OW97519  12.481   2.313   4.469
65227SOL    HW197520  12.501   2.305   4.376
65227SOL    HW297521  12.515   2.233   4.509
65228SOL     OW97522   1.454  12.408   9.535
65228SOL    HW197523   1.525  12.397   9.598
65228SOL    HW297524   1.486  12.366   9.455
65229SOL     OW97525   1.073  14.256   0.916
65229SOL    HW197526   1.009  14.288   0.853
65229SOL    HW297527   1.158  14.274   0.876
65230SOL     OW97528   9.490  14.035   9.330
65230SOL    HW197529   9.516  13.984   9.253
65230SOL    HW297530   9.426  14.098   9.296
65231SOL     OW97531   9.190   5.273   2.117
65231SOL    HW197532   9.144   5.271   2.033
65231SOL    HW297533   9.166   5.191   2.159
65232SOL     OW97534   1.148  12.044  10.856
65232SOL    HW197535   1.095  11.982  10.807
65232SOL    HW297536   1.202  11.988  10.913
65233SOL     OW97537   4.331   2.164   4.507
65233SOL    HW197538   4.357   2.188   4.418
65233SOL    HW297539   4.402   2.197   4.562
65234SOL     OW97540  10.300   7.801  11.129
65234SOL    HW197541  10.328   7.725  11.078
65234SOL    HW297542  10.303   7.874  11.067
65235SOL     OW97543  10.165   0.550   5.458
65235SOL    HW197544  10.206   0.636   5.448
65235SOL    HW297545  10.101   0.561   5.528
65236SOL     OW97546   1.969  12.957   6.203
65236SOL    HW197547   1.933  13.018   6.267
65236SOL    HW297548   1.896  12.899   6.181
65237SOL     OW97549   6.053   7.110  11.356
65237SOL    HW197550   6.087   7.161  11.283
65237SOL    HW297551   6.101   7.027  11.353
65238SOL     OW97552   0.827   6.647   2.975
65238SOL    HW197553   0.734   6.665   2.983
65238SOL    HW297554   0.834   6.552   2.982
65239SOL     OW97555   7.878   0.367  13.946
65239SOL    HW197556   7.963   0.400  13.914
65239SOL    HW297557   7.814   0.407  13.887
65240SOL     OW97558   2.871   5.067   6.426
65240SOL    HW197559   2.830   5.103   6.505
65240SOL    HW297560   2.919   5.141   6.389
65241SOL     OW97561   0.995   4.354   0.566
65241SOL    HW197562   0.978   4.446   0.549
65241SOL    HW297563   1.059   4.328   0.500
65242SOL     OW97564   4.001  12.291  12.824
65242SOL    HW197565   4.006  12.353  12.897
65242SOL    HW297566   3.909  12.294  12.797
65243SOL     OW97567   6.074  11.402  11.100
65243SOL    HW197568   6.022  11.405  11.180
65243SOL    HW297569   6.142  11.337  11.119
65244SOL     OW97570   8.717   8.192   0.660
65244SOL    HW197571   8.644   8.142   0.698
65244SOL    HW297572   8.717   8.168   0.567
65245SOL     OW97573   9.210   6.592  13.066
65245SOL    HW197574   9.246   6.568  12.981
65245SOL    HW297575   9.172   6.679  13.052
65246SOL     OW97576   5.424   0.531  10.088
65246SOL    HW197577   5.499   0.479  10.119
65246SOL    HW297578   5.436   0.616  10.130
65247SOL     OW97579   4.979   8.657   2.599
65247SOL    HW197580   5.025   8.575   2.620
65247SOL    HW297581   5.001   8.674   2.508
65248SOL     OW97582   1.518   0.405   1.125
65248SOL    HW197583   1.599   0.383   1.078
65248SOL    HW297584   1.536   0.490   1.165
65249SOL     OW97585   4.771   2.421   1.712
65249SOL    HW197586   4.690   2.378   1.739
65249SOL    HW297587   4.839   2.355   1.727
65250SOL     OW97588   9.693   9.190   0.657
65250SOL    HW197589   9.648   9.258   0.606
65250SOL    HW297590   9.690   9.221   0.747
65251SOL     OW97591   5.753  10.226   6.421
65251SOL    HW197592   5.748  10.171   6.499
65251SOL    HW297593   5.752  10.316   6.455
65252SOL     OW97594   2.533   5.592  11.585
65252SOL    HW197595   2.437   5.593  11.586
65252SOL    HW297596   2.557   5.519  11.642
65253SOL     OW97597   3.997   0.302  11.047
65253SOL    HW197598   3.909   0.325  11.018
65253SOL    HW297599   4.026   0.377  11.100
65254SOL     OW97600   7.748  10.194   3.627
65254SOL    HW197601   7.816  10.257   3.651
65254SOL    HW297602   7.692  10.189   3.705
65255SOL     OW97603  13.861  14.564   9.605
65255SOL    HW197604  13.913  14.624   9.658
65255SOL    HW297605  13.778  14.556   9.653
65256SOL     OW97606   4.975   8.361   1.212
65256SOL    HW197607   5.021   8.400   1.138
65256SOL    HW297608   5.009   8.272   1.217
65257SOL     OW97609  14.639  14.859  11.450
65257SOL    HW197610  14.692  14.779  11.452
65257SOL    HW297611  14.549  14.828  11.456
65258SOL     OW97612  14.288   0.975  10.636
65258SOL    HW197613  14.313   0.886  10.660
65258SOL    HW297614  14.316   1.029  10.710
65259SOL     OW97615   6.720  10.425   3.708
65259SOL    HW197616   6.802  10.451   3.667
65259SOL    HW297617   6.670  10.384   3.638
65260SOL     OW97618   8.771  13.719  12.732
65260SOL    HW197619   8.752  13.625  12.725
65260SOL    HW297620   8.734  13.745  12.816
65261SOL     OW97621   6.098  10.817   4.660
65261SOL    HW197622   6.168  10.881   4.644
65261SOL    HW297623   6.138  10.752   4.717
65262SOL     OW97624   9.744   3.800   8.042
65262SOL    HW197625   9.678   3.846   8.094
65262SOL    HW297626   9.768   3.862   7.973
65263SOL     OW97627   4.766   7.029   4.646
65263SOL    HW197628   4.779   7.005   4.555
65263SOL    HW297629   4.712   7.108   4.643
65264SOL     OW97630   7.687   2.222   7.497
65264SOL    HW197631   7.706   2.187   7.410
65264SOL    HW297632   7.665   2.314   7.481
65265SOL     OW97633  12.628   1.681  12.260
65265SOL    HW197634  12.638   1.633  12.178
65265SOL    HW297635  12.718   1.700  12.287
65266SOL     OW97636   2.074  14.523   8.578
65266SOL    HW197637   2.022  14.473   8.641
65266SOL    HW297638   2.062  14.615   8.604
65267SOL     OW97639   1.565   0.791   4.432
65267SOL    HW197640   1.494   0.855   4.431
65267SOL    HW297641   1.600   0.794   4.343
65268SOL     OW97642  11.581   6.322  10.483
65268SOL    HW197643  11.537   6.397  10.522
65268SOL    HW297644  11.515   6.253  10.482
65269SOL     OW97645  11.875   7.037   3.947
65269SOL    HW197646  11.805   7.080   3.996
65269SOL    HW297647  11.928   6.993   4.014
65270SOL     OW97648  14.519   6.753   7.186
65270SOL    HW197649  14.579   6.679   7.191
65270SOL    HW297650  14.534   6.802   7.267
65271SOL     OW97651   0.963  11.426   7.193
65271SOL    HW197652   1.026  11.373   7.241
65271SOL    HW297653   0.882  11.419   7.244
65272SOL     OW97654   4.411   0.518   9.312
65272SOL    HW197655   4.415   0.461   9.388
65272SOL    HW297656   4.343   0.582   9.332
65273SOL     OW97657   1.638   5.909   9.580
65273SOL    HW197658   1.567   5.958   9.621
65273SOL    HW297659   1.694   5.881   9.653
65274SOL     OW97660  11.059   0.257  13.320
65274SOL    HW197661  11.025   0.332  13.369
65274SOL    HW297662  10.990   0.236  13.257
65275SOL     OW97663   7.164   8.447   6.776
65275SOL    HW197664   7.186   8.418   6.688
65275SOL    HW297665   7.227   8.517   6.795
65276SOL     OW97666   7.422  10.330   1.949
65276SOL    HW197667   7.430  10.331   1.854
65276SOL    HW297668   7.503  10.289   1.980
65277SOL     OW97669  14.032  13.598   5.370
65277SOL    HW197670  14.049  13.689   5.345
65277SOL    HW297671  13.937  13.592   5.377
65278SOL     OW97672  10.403   9.155   7.251
65278SOL    HW197673  10.344   9.231   7.246
65278SOL    HW297674  10.367   9.093   7.187
65279SOL     OW97675   7.886   8.715   1.320
65279SOL    HW197676   7.905   8.639   1.265
65279SOL    HW297677   7.966   8.768   1.315
65280SOL     OW97678   3.871  11.395   9.240
65280SOL    HW197679   3.882  11.438   9.325
65280SOL    HW297680   3.940  11.329   9.238
65281SOL     OW97681   3.134   0.798   3.015
65281SOL    HW197682   3.164   0.751   3.093
65281SOL    HW297683   3.089   0.731   2.964
65282SOL     OW97684   3.384  10.245   1.941
65282SOL    HW197685   3.457  10.214   1.887
65282SOL    HW297686   3.307  10.234   1.885
65283SOL     OW97687   5.733   8.967   6.431
65283SOL    HW197688   5.800   8.945   6.496
65283SOL    HW297689   5.782   9.011   6.361
65284SOL     OW97690   0.329  11.134  13.003
65284SOL    HW197691   0.236  11.132  12.981
65284SOL    HW297692   0.373  11.129  12.918
65285SOL     OW97693   9.595   9.750   6.362
65285SOL    HW197694   9.562   9.709   6.282
65285SOL    HW297695   9.604   9.843   6.339
65286SOL     OW97696   1.354   6.341   7.092
65286SOL    HW197697   1.393   6.336   7.179
65286SOL    HW297698   1.428   6.348   7.033
65287SOL     OW97699   7.901  12.053   0.531
65287SOL    HW197700   7.835  12.115   0.499
65287SOL    HW297701   7.978  12.069   0.475
65288SOL     OW97702  13.722   4.861   9.827
65288SOL    HW197703  13.715   4.765   9.820
65288SOL    HW297704  13.634   4.890   9.852
65289SOL     OW97705   2.475  10.569   3.099
65289SOL    HW197706   2.480  10.659   3.133
65289SOL    HW297707   2.500  10.514   3.173
65290SOL     OW97708   1.363   7.254   4.678
65290SOL    HW197709   1.357   7.200   4.756
65290SOL    HW297710   1.450   7.235   4.642
65291SOL     OW97711   8.819   0.195   0.550
65291SOL    HW197712   8.875   0.151   0.614
65291SOL    HW297713   8.730   0.179   0.581
65292SOL     OW97714  13.811   2.803   5.097
65292SOL    HW197715  13.814   2.899   5.105
65292SOL    HW297716  13.793   2.773   5.186
65293SOL     OW97717   9.163  12.640   0.570
65293SOL    HW197718   9.080  12.640   0.617
65293SOL    HW297719   9.170  12.729   0.535
65294SOL     OW97720   7.673   7.612   8.011
65294SOL    HW197721   7.699   7.636   7.922
65294SOL    HW297722   7.702   7.522   8.021
65295SOL     OW97723   8.823  10.951   0.617
65295SOL    HW197724   8.882  10.899   0.562
65295SOL    HW297725   8.797  10.892   0.688
65296SOL     OW97726   5.484   6.048   5.253
65296SOL    HW197727   5.485   6.046   5.349
65296SOL    HW297728   5.574   6.073   5.229
65297SOL     OW97729  11.247   6.435  14.749
65297SOL    HW197730  11.172   6.387  14.714
65297SOL    HW297731  11.210   6.519  14.778
65298SOL     OW97732  13.553   1.391   5.264
65298SOL    HW197733  13.607   1.337   5.323
65298SOL    HW297734  13.464   1.360   5.279
65299SOL     OW97735   4.867   7.632   8.159
65299SOL    HW197736   4.772   7.621   8.156
65299SOL    HW297737   4.896   7.565   8.222
65300SOL     OW97738   2.513   4.127   0.495
65300SOL    HW197739   2.540   4.173   0.575
65300SOL    HW297740   2.548   4.181   0.424
65301SOL     OW97741   3.401   6.931  11.732
65301SOL    HW197742   3.349   6.870  11.679
65301SOL    HW297743   3.429   6.999  11.669
65302SOL     OW97744  11.980   2.986   9.465
65302SOL    HW197745  11.914   2.946   9.521
65302SOL    HW297746  11.963   2.950   9.378
65303SOL     OW97747   2.310   5.939  13.559
65303SOL    HW197748   2.327   5.907  13.471
65303SOL    HW297749   2.383   5.907  13.612
65304SOL     OW97750   7.245   3.224  10.782
65304SOL    HW197751   7.252   3.198  10.691
65304SOL    HW297752   7.163   3.184  10.813
65305SOL     OW97753   0.964   0.091   5.956
65305SOL    HW197754   0.977   0.105   6.050
65305SOL    HW297755   1.042   0.043   5.928
65306SOL     OW97756   1.403   9.239   4.740
65306SOL    HW197757   1.392   9.175   4.811
65306SOL    HW297758   1.419   9.322   4.785
65307SOL     OW97759   8.533  12.837   4.390
65307SOL    HW197760   8.594  12.870   4.456
65307SOL    HW297761   8.574  12.756   4.359
65308SOL     OW97762   1.942   5.492   2.838
65308SOL    HW197763   1.916   5.530   2.754
65308SOL    HW297764   1.945   5.567   2.897
65309SOL     OW97765   1.707   3.070  11.891
65309SOL    HW197766   1.712   3.086  11.797
65309SOL    HW297767   1.676   2.980  11.899
65310SOL     OW97768   2.638  13.191   6.647
65310SOL    HW197769   2.673  13.181   6.735
65310SOL    HW297770   2.716  13.207   6.592
65311SOL     OW97771   7.737  12.058   2.059
65311SOL    HW197772   7.744  11.965   2.037
65311SOL    HW297773   7.676  12.094   1.995
65312SOL     OW97774   9.736   0.830   2.326
65312SOL    HW197775   9.825   0.850   2.354
65312SOL    HW297776   9.746   0.795   2.238
65313SOL     OW97777   4.358  12.788   4.500
65313SOL    HW197778   4.405  12.719   4.453
65313SOL    HW297779   4.424  12.853   4.521
65314SOL     OW97780   2.709   0.534   8.696
65314SOL    HW197781   2.713   0.537   8.601
65314SOL    HW297782   2.797   0.507   8.723
65315SOL     OW97783   4.464  12.744   6.681
65315SOL    HW197784   4.416  12.683   6.624
65315SOL    HW297785   4.402  12.762   6.752
65316SOL     OW97786   4.878   7.718   6.537
65316SOL    HW197787   4.816   7.791   6.532
65316SOL    HW297788   4.913   7.711   6.448
65317SOL     OW97789   8.883  12.193   8.377
65317SOL    HW197790   8.874  12.217   8.284
65317SOL    HW297791   8.844  12.266   8.424
65318SOL     OW97792   2.826  10.155  14.401
65318SOL    HW197793   2.863  10.243  14.394
65318SOL    HW297794   2.856  10.110  14.323
65319SOL     OW97795   1.640  13.166  11.839
65319SOL    HW197796   1.703  13.103  11.803
65319SOL    HW297797   1.555  13.125  11.824
65320SOL     OW97798  12.631   1.466   8.622
65320SOL    HW197799  12.616   1.555   8.589
65320SOL    HW297800  12.557   1.415   8.590
65321SOL     OW97801  10.848   5.314  14.708
65321SOL    HW197802  10.881   5.382  14.650
65321SOL    HW297803  10.870   5.232  14.664
65322SOL     OW97804  12.700   0.401  10.319
65322SOL    HW197805  12.657   0.458  10.255
65322SOL    HW297806  12.717   0.458  10.394
65323SOL     OW97807   7.401   3.940   1.350
65323SOL    HW197808   7.350   3.868   1.388
65323SOL    HW297809   7.358   4.019   1.381
65324SOL     OW97810  14.069   3.614   1.443
65324SOL    HW197811  14.133   3.635   1.511
65324SOL    HW297812  14.121   3.580   1.371
65325SOL     OW97813   8.403  10.758   3.217
65325SOL    HW197814   8.459  10.832   3.194
65325SOL    HW297815   8.437  10.685   3.166
65326SOL     OW97816   8.571   7.030   8.733
65326SOL    HW197817   8.540   7.096   8.794
65326SOL    HW297818   8.666   7.041   8.731
65327SOL     OW97819   5.303   5.894   7.860
65327SOL    HW197820   5.330   5.868   7.772
65327SOL    HW297821   5.279   5.812   7.903
65328SOL     OW97822   4.360  10.770  11.731
65328SOL    HW197823   4.406  10.796  11.651
65328SOL    HW297824   4.361  10.849  11.786
65329SOL     OW97825   9.657   4.417   2.733
65329SOL    HW197826   9.576   4.427   2.783
65329SOL    HW297827   9.704   4.347   2.779
65330SOL     OW97828  11.196   0.936   0.950
65330SOL    HW197829  11.234   0.889   0.876
65330SOL    HW297830  11.133   0.874   0.987
65331SOL     OW97831   3.303   7.821  13.579
65331SOL    HW197832   3.281   7.834  13.671
65331SOL    HW297833   3.218   7.819  13.535
65332SOL     OW97834   4.667  13.563   8.189
65332SOL    HW197835   4.614  13.499   8.236
65332SOL    HW297836   4.731  13.511   8.140
65333SOL     OW97837   7.383   0.550   9.486
65333SOL    HW197838   7.477   0.538   9.502
65333SOL    HW297839   7.342   0.536   9.571
65334SOL     OW97840   7.245   7.264   0.072
65334SOL    HW197841   7.304   7.334   0.100
65334SOL    HW297842   7.204   7.297  14.872
65335SOL     OW97843  11.990  13.314  10.900
65335SOL    HW197844  11.923  13.266  10.948
65335SOL    HW297845  12.005  13.393  10.952
65336SOL     OW97846  14.139   7.936  12.884
65336SOL    HW197847  14.140   8.029  12.906
65336SOL    HW297848  14.106   7.933  12.794
65337SOL     OW97849   5.073  11.632   6.495
65337SOL    HW197850   5.064  11.720   6.531
65337SOL    HW297851   4.995  11.586   6.526
65338SOL     OW97852   2.144   7.582   5.656
65338SOL    HW197853   2.158   7.669   5.691
65338SOL    HW297854   2.230   7.540   5.657
65339SOL     OW97855   5.319   1.936   0.420
65339SOL    HW197856   5.277   1.854   0.392
65339SOL    HW297857   5.411   1.925   0.398
65340SOL     OW97858   5.098  12.083   1.906
65340SOL    HW197859   5.135  12.002   1.941
65340SOL    HW297860   5.012  12.091   1.948
65341SOL     OW97861   3.729   0.629   9.598
65341SOL    HW197862   3.717   0.536   9.580
65341SOL    HW297863   3.654   0.653   9.653
65342SOL     OW97864   7.876   5.846  14.751
65342SOL    HW197865   7.867   5.930  14.796
65342SOL    HW297866   7.968   5.844  14.722
65343SOL     OW97867   5.911  12.827   8.494
65343SOL    HW197868   5.961  12.880   8.432
65343SOL    HW297869   5.971  12.813   8.568
65344SOL     OW97870  11.720  12.188   7.214
65344SOL    HW197871  11.782  12.179   7.286
65344SOL    HW297872  11.730  12.278   7.184
65345SOL     OW97873  13.205   9.426   1.515
65345SOL    HW197874  13.231   9.426   1.607
65345SOL    HW297875  13.287   9.420   1.467
65346SOL     OW97876  11.500   0.440  12.667
65346SOL    HW197877  11.460   0.474  12.588
65346SOL    HW297878  11.541   0.358  12.640
65347SOL     OW97879   5.169   5.040   7.537
65347SOL    HW197880   5.149   4.970   7.475
65347SOL    HW297881   5.227   5.099   7.488
65348SOL     OW97882   7.743  13.599   1.563
65348SOL    HW197883   7.822  13.564   1.522
65348SOL    HW297884   7.755  13.582   1.656
65349SOL     OW97885  13.335   1.880   9.647
65349SOL    HW197886  13.414   1.832   9.623
65349SOL    HW297887  13.284   1.884   9.566
65350SOL     OW97888  14.550   4.762   3.841
65350SOL    HW197889  14.523   4.738   3.753
65350SOL    HW297890  14.479   4.816   3.875
65351SOL     OW97891   6.173  13.745  13.346
65351SOL    HW197892   6.210  13.830  13.322
65351SOL    HW297893   6.232  13.713  13.415
65352SOL     OW97894  10.549   7.581   7.375
65352SOL    HW197895  10.461   7.618   7.369
65352SOL    HW297896  10.536   7.487   7.385
65353SOL     OW97897   5.692  11.875   9.402
65353SOL    HW197898   5.640  11.941   9.447
65353SOL    HW297899   5.650  11.865   9.317
65354SOL     OW97900   5.311   7.322   5.965
65354SOL    HW197901   5.289   7.230   5.952
65354SOL    HW297902   5.242   7.370   5.917
65355SOL     OW97903   2.011  13.296  11.591
65355SOL    HW197904   2.102  13.322  11.607
65355SOL    HW297905   2.018  13.214  11.543
65356SOL     OW97906   1.632  10.882   9.835
65356SOL    HW197907   1.710  10.835   9.804
65356SOL    HW297908   1.658  10.975   9.833
65357SOL     OW97909   9.051   3.719   8.386
65357SOL    HW197910   9.107   3.713   8.464
65357SOL    HW297911   8.962   3.718   8.420
65358SOL     OW97912   6.616   5.114   5.889
65358SOL    HW197913   6.682   5.083   5.827
65358SOL    HW297914   6.665   5.163   5.954
65359SOL     OW97915   3.134   9.250   1.035
65359SOL    HW197916   3.152   9.336   0.997
65359SOL    HW297917   3.062   9.215   0.983
65360SOL     OW97918   1.020  14.749   8.848
65360SOL    HW197919   1.106  14.766   8.887
65360SOL    HW297920   0.998  14.830   8.802
65361SOL     OW97921   1.085   3.373   6.139
65361SOL    HW197922   1.150   3.304   6.152
65361SOL    HW297923   1.119   3.424   6.066
65362SOL     OW97924   5.713  10.732   0.117
65362SOL    HW197925   5.740  10.821   0.096
65362SOL    HW297926   5.618  10.731   0.105
65363SOL     OW97927   8.515   2.987   5.516
65363SOL    HW197928   8.488   2.981   5.608
65363SOL    HW297929   8.610   2.997   5.520
65364SOL     OW97930   1.218   5.932   9.865
65364SOL    HW197931   1.173   5.965   9.943
65364SOL    HW297932   1.213   5.837   9.873
65365SOL     OW97933   7.047  12.501   2.601
65365SOL    HW197934   7.001  12.419   2.614
65365SOL    HW297935   7.051  12.540   2.688
65366SOL     OW97936  11.240   6.789   3.727
65366SOL    HW197937  11.321   6.746   3.753
65366SOL    HW297938  11.227   6.858   3.791
65367SOL     OW97939   5.448  12.303   2.135
65367SOL    HW197940   5.466  12.377   2.192
65367SOL    HW297941   5.390  12.246   2.187
65368SOL     OW97942  13.091   4.893   9.405
65368SOL    HW197943  13.124   4.977   9.371
65368SOL    HW297944  12.996   4.901   9.397
65369SOL     OW97945   0.068   7.741   1.697
65369SOL    HW197946   0.046   7.740   1.791
65369SOL    HW297947   0.076   7.834   1.676
65370SOL     OW97948   1.484  14.479   6.068
65370SOL    HW197949   1.503  14.533   6.145
65370SOL    HW297950   1.539  14.516   5.999
65371SOL     OW97951   0.222   0.938   0.356
65371SOL    HW197952   0.305   0.928   0.309
65371SOL    HW297953   0.224   0.871   0.424
65372SOL     OW97954   8.297  13.564  13.214
65372SOL    HW197955   8.335  13.597  13.295
65372SOL    HW297956   8.239  13.633  13.184
65373SOL     OW97957   7.022   5.380   3.009
65373SOL    HW197958   7.029   5.475   3.003
65373SOL    HW297959   7.102   5.347   2.967
65374SOL     OW97960   8.999   8.933   0.103
65374SOL    HW197961   9.094   8.940   0.094
65374SOL    HW297962   8.965   9.016   0.070
65375SOL     OW97963   4.581   1.354   4.331
65375SOL    HW197964   4.621   1.433   4.368
65375SOL    HW297965   4.652   1.312   4.283
65376SOL     OW97966  10.781   2.792   7.536
65376SOL    HW197967  10.694   2.826   7.558
65376SOL    HW297968  10.795   2.721   7.599
65377SOL     OW97969   2.784   6.170   5.213
65377SOL    HW197970   2.752   6.080   5.220
65377SOL    HW297971   2.713   6.224   5.248
65378SOL     OW97972   2.649  13.643   5.713
65378SOL    HW197973   2.600  13.589   5.651
65378SOL    HW297974   2.607  13.627   5.798
65379SOL     OW97975  13.384   2.871   1.596
65379SOL    HW197976  13.366   2.933   1.526
65379SOL    HW297977  13.313   2.806   1.590
65380SOL     OW97978  14.220   1.499  14.242
65380SOL    HW197979  14.257   1.565  14.301
65380SOL    HW297980  14.233   1.536  14.155
65381SOL     OW97981   3.916   1.934   2.849
65381SOL    HW197982   3.829   1.973   2.847
65381SOL    HW297983   3.911   1.867   2.917
65382SOL     OW97984  12.990  11.081  10.848
65382SOL    HW197985  13.013  11.102  10.757
65382SOL    HW297986  12.976  11.166  10.889
65383SOL     OW97987   5.823  12.336  12.319
65383SOL    HW197988   5.728  12.319  12.317
65383SOL    HW297989   5.863  12.250  12.304
65384SOL     OW97990  10.843  11.131   2.045
65384SOL    HW197991  10.824  11.049   1.999
65384SOL    HW297992  10.928  11.159   2.012
65385SOL     OW97993  13.890   8.404   3.809
65385SOL    HW197994  13.901   8.313   3.781
65385SOL    HW297995  13.921   8.456   3.735
65386SOL     OW97996   7.919  12.762  10.707
65386SOL    HW197997   7.965  12.691  10.753
65386SOL    HW297998   7.917  12.733  10.616
65387SOL     OW97999  13.520  12.159  11.292
65387SOL    HW198000  13.451  12.095  11.305
65387SOL    HW298001  13.595  12.124  11.340
65388SOL     OW98002   7.039   1.036   7.577
65388SOL    HW198003   6.992   1.063   7.656
65388SOL    HW298004   7.018   1.104   7.512
65389SOL     OW98005  12.407   5.880   7.843
65389SOL    HW198006  12.387   5.920   7.928
65389SOL    HW298007  12.326   5.835   7.818
65390SOL     OW98008  12.355   3.207   0.741
65390SOL    HW198009  12.364   3.221   0.835
65390SOL    HW298010  12.312   3.122   0.733
65391SOL     OW98011  11.230   1.357  12.061
65391SOL    HW198012  11.312   1.405  12.070
65391SOL    HW298013  11.162   1.423  12.074
65392SOL     OW98014   7.195   6.210  13.503
65392SOL    HW198015   7.196   6.266  13.425
65392SOL    HW298016   7.102   6.200  13.523
65393SOL     OW98017   2.502   5.906   9.164
65393SOL    HW198018   2.514   5.840   9.233
65393SOL    HW298019   2.591   5.924   9.133
65394SOL     OW98020  14.618  11.876   3.245
65394SOL    HW198021  14.642  11.838   3.330
65394SOL    HW298022  14.682  11.945   3.231
65395SOL     OW98023   7.116   5.244  13.050
65395SOL    HW198024   7.035   5.214  13.008
65395SOL    HW298025   7.171   5.166  13.053
65396SOL     OW98026   2.808   8.092   4.260
65396SOL    HW198027   2.764   8.025   4.312
65396SOL    HW298028   2.750   8.168   4.266
65397SOL     OW98029   1.041   6.798   8.770
65397SOL    HW198030   1.092   6.873   8.740
65397SOL    HW298031   0.972   6.836   8.824
65398SOL     OW98032  10.077   7.252  10.059
65398SOL    HW198033  10.117   7.254  10.146
65398SOL    HW298034   9.996   7.202  10.072
65399SOL     OW98035   2.057   8.496  13.930
65399SOL    HW198036   2.060   8.590  13.943
65399SOL    HW298037   2.108   8.481  13.850
65400SOL     OW98038   6.485  14.367   1.593
65400SOL    HW198039   6.570  14.381   1.634
65400SOL    HW298040   6.422  14.398   1.659
65401SOL     OW98041  14.026  12.841  11.946
65401SOL    HW198042  13.972  12.903  11.897
65401SOL    HW298043  14.066  12.894  12.016
65402SOL     OW98044  12.522  12.294  14.605
65402SOL    HW198045  12.585  12.361  14.632
65402SOL    HW298046  12.554  12.263  14.520
65403SOL     OW98047  13.918   9.365  11.026
65403SOL    HW198048  13.901   9.289  11.082
65403SOL    HW298049  14.011   9.382  11.037
65404SOL     OW98050   5.279  12.002   6.440
65404SOL    HW198051   5.235  11.917   6.454
65404SOL    HW298052   5.326  11.992   6.358
65405SOL     OW98053   4.017   1.908   2.034
65405SOL    HW198054   4.048   1.821   2.060
65405SOL    HW298055   3.948   1.891   1.971
65406SOL     OW98056   2.579  10.959   8.543
65406SOL    HW198057   2.508  11.005   8.588
65406SOL    HW298058   2.589  10.877   8.591
65407SOL     OW98059   7.470  10.163  10.492
65407SOL    HW198060   7.500  10.254  10.498
65407SOL    HW298061   7.389  10.162  10.544
65408SOL     OW98062  12.094   7.378   1.337
65408SOL    HW198063  12.068   7.463   1.303
65408SOL    HW298064  12.014   7.326   1.336
65409SOL     OW98065   8.518   9.861  10.059
65409SOL    HW198066   8.493   9.818   9.977
65409SOL    HW298067   8.614   9.856  10.060
65410SOL     OW98068  13.999   2.962   9.203
65410SOL    HW198069  14.076   3.004   9.165
65410SOL    HW298070  13.925   3.001   9.157
65411SOL     OW98071   5.942  12.560   4.858
65411SOL    HW198072   5.947  12.525   4.947
65411SOL    HW298073   5.939  12.655   4.869
65412SOL     OW98074   0.157   0.126  12.408
65412SOL    HW198075   0.206   0.198  12.448
65412SOL    HW298076   0.097   0.169  12.346
65413SOL     OW98077   6.555   6.190   3.702
65413SOL    HW198078   6.571   6.244   3.624
65413SOL    HW298079   6.635   6.140   3.713
65414SOL     OW98080   2.928   8.492  10.076
65414SOL    HW198081   2.879   8.432  10.020
65414SOL    HW298082   3.020   8.476  10.054
65415SOL     OW98083   3.864   5.856   1.839
65415SOL    HW198084   3.803   5.894   1.903
65415SOL    HW298085   3.915   5.793   1.890
65416SOL     OW98086   5.358   6.884  11.933
65416SOL    HW198087   5.354   6.940  12.011
65416SOL    HW298088   5.445   6.899  11.897
65417SOL     OW98089   2.193   8.512   8.401
65417SOL    HW198090   2.195   8.417   8.387
65417SOL    HW298091   2.130   8.544   8.337
65418SOL     OW98092   2.069   2.464   0.325
65418SOL    HW198093   2.033   2.387   0.280
65418SOL    HW298094   2.163   2.452   0.322
65419SOL     OW98095   5.043   1.983   9.497
65419SOL    HW198096   5.126   1.985   9.448
65419SOL    HW298097   5.035   2.071   9.533
65420SOL     OW98098  14.845   3.942  13.624
65420SOL    HW198099  14.817   3.871  13.566
65420SOL    HW298100   0.058   3.924  13.641
65421SOL     OW98101   8.365  14.264   5.240
65421SOL    HW198102   8.284  14.316   5.239
65421SOL    HW298103   8.342  14.184   5.286
65422SOL     OW98104  12.504  12.942   8.685
65422SOL    HW198105  12.514  13.015   8.623
65422SOL    HW298106  12.460  12.874   8.634
65423SOL     OW98107   1.586  12.780  11.757
65423SOL    HW198108   1.532  12.709  11.723
65423SOL    HW298109   1.597  12.759  11.850
65424SOL     OW98110  10.051   4.437   5.648
65424SOL    HW198111   9.980   4.435   5.584
65424SOL    HW298112  10.075   4.345   5.660
65425SOL     OW98113   7.625   3.227   3.118
65425SOL    HW198114   7.704   3.178   3.094
65425SOL    HW298115   7.596   3.187   3.200
65426SOL     OW98116  13.036   1.069   9.153
65426SOL    HW198117  13.127   1.056   9.181
65426SOL    HW298118  13.038   1.061   9.058
65427SOL     OW98119  12.170   9.421   3.024
65427SOL    HW198120  12.083   9.460   3.026
65427SOL    HW298121  12.229   9.495   3.006
65428SOL     OW98122   7.915   3.537   6.613
65428SOL    HW198123   7.906   3.580   6.528
65428SOL    HW298124   7.852   3.465   6.611
65429SOL     OW98125  12.579   3.493   3.896
65429SOL    HW198126  12.512   3.552   3.862
65429SOL    HW298127  12.536   3.445   3.967
65430SOL     OW98128   0.615   8.299   5.187
65430SOL    HW198129   0.625   8.231   5.120
65430SOL    HW298130   0.551   8.360   5.149
65431SOL     OW98131   2.824  10.706   2.857
65431SOL    HW198132   2.889  10.640   2.879
65431SOL    HW298133   2.865  10.760   2.789
65432SOL     OW98134   3.795   6.003   9.069
65432SOL    HW198135   3.889   5.993   9.057
65432SOL    HW298136   3.781   6.098   9.073
65433SOL     OW98137   7.999   5.095   8.195
65433SOL    HW198138   8.041   5.148   8.127
65433SOL    HW298139   7.908   5.088   8.167
65434SOL     OW98140   6.873   9.387   5.732
65434SOL    HW198141   6.919   9.328   5.673
65434SOL    HW298142   6.910   9.474   5.714
65435SOL     OW98143   2.772   9.059  14.602
65435SOL    HW198144   2.860   9.081  14.631
65435SOL    HW298145   2.729   9.143  14.588
65436SOL     OW98146  11.195   3.947  14.050
65436SOL    HW198147  11.204   4.005  14.126
65436SOL    HW298148  11.187   3.859  14.087
65437SOL     OW98149   8.894   4.005  10.140
65437SOL    HW198150   8.839   4.026  10.216
65437SOL    HW298151   8.880   3.912  10.125
65438SOL     OW98152   1.333  12.919  12.922
65438SOL    HW198153   1.397  12.945  12.987
65438SOL    HW298154   1.357  12.967  12.843
65439SOL     OW98155  11.941  12.805  10.535
65439SOL    HW198156  11.973  12.856  10.461
65439SOL    HW298157  12.002  12.824  10.606
65440SOL     OW98158   4.814  14.479   6.011
65440SOL    HW198159   4.886  14.542   6.021
65440SOL    HW298160   4.755  14.498   6.084
65441SOL     OW98161   5.356   7.322   8.622
65441SOL    HW198162   5.418   7.285   8.685
65441SOL    HW298163   5.398   7.403   8.594
65442SOL     OW98164   2.152   7.703  13.233
65442SOL    HW198165   2.189   7.624  13.273
65442SOL    HW298166   2.184   7.701  13.143
65443SOL     OW98167  14.480   5.060  10.032
65443SOL    HW198168  14.387   5.040  10.035
65443SOL    HW298169  14.518   4.989   9.980
65444SOL     OW98170   0.848   1.791   5.194
65444SOL    HW198171   0.846   1.747   5.279
65444SOL    HW298172   0.935   1.771   5.159
65445SOL     OW98173  14.325  13.790   7.910
65445SOL    HW198174  14.361  13.854   7.849
65445SOL    HW298175  14.375  13.710   7.894
65446SOL     OW98176   2.260  11.278   7.045
65446SOL    HW198177   2.332  11.317   6.997
65446SOL    HW298178   2.221  11.216   6.984
65447SOL     OW98179   2.398   3.037   7.922
65447SOL    HW198180   2.435   3.122   7.897
65447SOL    HW298181   2.464   3.000   7.982
65448SOL     OW98182  14.211  10.939   7.958
65448SOL    HW198183  14.144  10.883   7.998
65448SOL    HW298184  14.236  10.892   7.879
65449SOL     OW98185   0.817   5.017  14.875
65449SOL    HW198186   0.799   4.991   0.086
65449SOL    HW298187   0.764   5.095  14.861
65450SOL     OW98188   5.471   5.333   8.242
65450SOL    HW198189   5.517   5.339   8.325
65450SOL    HW298190   5.384   5.370   8.261
65451SOL     OW98191  12.577  10.995   1.243
65451SOL    HW198192  12.550  10.923   1.185
65451SOL    HW298193  12.621  10.952   1.316
65452SOL     OW98194   9.354   3.967   8.018
65452SOL    HW198195   9.363   4.062   8.011
65452SOL    HW298196   9.285   3.954   8.083
65453SOL     OW98197  14.705   0.458   0.132
65453SOL    HW198198  14.671   0.385   0.081
65453SOL    HW298199  14.626   0.502   0.165
65454SOL     OW98200   9.048   8.240   3.979
65454SOL    HW198201   9.099   8.197   4.047
65454SOL    HW298202   8.974   8.182   3.964
65455SOL     OW98203   6.336   5.697  13.148
65455SOL    HW198204   6.329   5.664  13.058
65455SOL    HW298205   6.339   5.618  13.202
65456SOL     OW98206   4.358   4.329   8.260
65456SOL    HW198207   4.315   4.285   8.186
65456SOL    HW298208   4.423   4.386   8.219
65457SOL     OW98209  14.700   8.262   8.454
65457SOL    HW198210  14.705   8.266   8.358
65457SOL    HW298211  14.742   8.180   8.476
65458SOL     OW98212   0.528  10.536   6.358
65458SOL    HW198213   0.515  10.574   6.444
65458SOL    HW298214   0.487  10.597   6.297
65459SOL     OW98215   5.644  12.463   7.683
65459SOL    HW198216   5.688  12.548   7.692
65459SOL    HW298217   5.682  12.408   7.752
65460SOL     OW98218  11.510   3.979  14.600
65460SOL    HW198219  11.572   3.958  14.669
65460SOL    HW298220  11.536   4.065  14.569
65461SOL     OW98221   4.249  10.346  11.075
65461SOL    HW198222   4.245  10.266  11.127
65461SOL    HW298223   4.158  10.373  11.064
65462SOL     OW98224  12.109   4.121  10.063
65462SOL    HW198225  12.193   4.111  10.107
65462SOL    HW298226  12.120   4.074   9.980
65463SOL     OW98227   1.798   5.208   9.961
65463SOL    HW198228   1.766   5.176  10.045
65463SOL    HW298229   1.881   5.250   9.981
65464SOL     OW98230  12.139   2.717   4.577
65464SOL    HW198231  12.095   2.784   4.629
65464SOL    HW298232  12.075   2.690   4.511
65465SOL     OW98233   7.081  10.043   1.877
65465SOL    HW198234   7.113   9.994   1.953
65465SOL    HW298235   7.050   9.976   1.816
65466SOL     OW98236   8.132   4.317  13.798
65466SOL    HW198237   8.125   4.305  13.703
65466SOL    HW298238   8.086   4.400  13.814
65467SOL     OW98239   0.732   4.558   4.152
65467SOL    HW198240   0.719   4.501   4.076
65467SOL    HW298241   0.826   4.573   4.155
65468SOL     OW98242  10.932   4.480   8.044
65468SOL    HW198243  10.910   4.387   8.031
65468SOL    HW298244  11.026   4.479   8.066
65469SOL     OW98245   4.550  11.590   7.477
65469SOL    HW198246   4.501  11.533   7.537
65469SOL    HW298247   4.584  11.660   7.532
65470SOL     OW98248   5.629   8.077   6.978
65470SOL    HW198249   5.701   8.124   7.019
65470SOL    HW298250   5.566   8.063   7.049
65471SOL     OW98251  12.073   5.131   1.106
65471SOL    HW198252  11.990   5.088   1.088
65471SOL    HW298253  12.065   5.217   1.065
65472SOL     OW98254   0.585  14.758  14.056
65472SOL    HW198255   0.550  14.797  13.975
65472SOL    HW298256   0.584  14.830  14.119
65473SOL     OW98257   6.281   4.197  11.535
65473SOL    HW198258   6.370   4.164  11.526
65473SOL    HW298259   6.280   4.278  11.485
65474SOL     OW98260   4.358  12.262   2.615
65474SOL    HW198261   4.400  12.347   2.607
65474SOL    HW298262   4.266  12.278   2.593
65475SOL     OW98263   4.044   8.760   7.170
65475SOL    HW198264   3.981   8.830   7.153
65475SOL    HW298265   4.060   8.720   7.085
65476SOL     OW98266   5.217  10.120   2.123
65476SOL    HW198267   5.236  10.112   2.029
65476SOL    HW298268   5.295  10.161   2.160
65477SOL     OW98269   0.068  13.925  12.533
65477SOL    HW198270  14.855  13.945  12.539
65477SOL    HW298271   0.100  13.928  12.623
65478SOL     OW98272  10.413   6.716  12.745
65478SOL    HW198273  10.408   6.780  12.816
65478SOL    HW298274  10.322   6.699  12.722
65479SOL     OW98275   7.628  11.005  14.554
65479SOL    HW198276   7.557  11.062  14.581
65479SOL    HW298277   7.611  10.922  14.599
65480SOL     OW98278  13.449   8.673  13.287
65480SOL    HW198279  13.499   8.607  13.334
65480SOL    HW298280  13.430   8.740  13.353
65481SOL     OW98281   0.224   0.577   4.014
65481SOL    HW198282   0.288   0.557   4.082
65481SOL    HW298283   0.211   0.671   4.020
65482SOL     OW98284   7.308   3.951   4.954
65482SOL    HW198285   7.286   4.017   4.890
65482SOL    HW298286   7.404   3.948   4.954
65483SOL     OW98287   0.870   4.314   7.052
65483SOL    HW198288   0.955   4.307   7.095
65483SOL    HW298289   0.822   4.378   7.104
65484SOL     OW98290   5.957   0.077   4.493
65484SOL    HW198291   5.999   0.159   4.468
65484SOL    HW298292   5.893   0.102   4.559
65485SOL     OW98293   9.039  11.887   5.252
65485SOL    HW198294   9.059  11.928   5.336
65485SOL    HW298295   8.944  11.890   5.246
65486SOL     OW98296   5.026   8.675   5.052
65486SOL    HW198297   4.955   8.731   5.019
65486SOL    HW298298   5.007   8.588   5.017
65487SOL     OW98299  13.193  12.634   5.831
65487SOL    HW198300  13.271  12.688   5.817
65487SOL    HW298301  13.148  12.678   5.903
65488SOL     OW98302   8.835   0.391   4.975
65488SOL    HW198303   8.769   0.418   4.911
65488SOL    HW298304   8.916   0.385   4.924
65489SOL     OW98305   1.003   9.537  10.946
65489SOL    HW198306   0.977   9.624  10.916
65489SOL    HW298307   0.969   9.477  10.880
65490SOL     OW98308  11.829   2.354  10.817
65490SOL    HW198309  11.798   2.264  10.815
65490SOL    HW298310  11.749   2.407  10.823
65491SOL     OW98311   9.123   6.184   7.129
65491SOL    HW198312   9.169   6.123   7.071
65491SOL    HW298313   9.185   6.202   7.199
65492SOL     OW98314   4.876   8.061  11.122
65492SOL    HW198315   4.835   7.993  11.175
65492SOL    HW298316   4.858   8.142  11.170
65493SOL     OW98317   2.255   7.600   7.031
65493SOL    HW198318   2.242   7.564   6.943
65493SOL    HW298319   2.166   7.612   7.065
65494SOL     OW98320   6.213  11.781   0.533
65494SOL    HW198321   6.274  11.738   0.473
65494SOL    HW298322   6.257  11.863   0.556
65495SOL     OW98323  14.444   8.527   8.360
65495SOL    HW198324  14.440   8.483   8.445
65495SOL    HW298325  14.353   8.530   8.330
65496SOL     OW98326   1.430  12.705   5.655
65496SOL    HW198327   1.378  12.634   5.617
65496SOL    HW298328   1.371  12.780   5.656
65497SOL     OW98329  10.196   1.455   5.034
65497SOL    HW198330  10.159   1.520   5.094
65497SOL    HW298331  10.279   1.494   5.005
65498SOL     OW98332   1.980  12.241  14.545
65498SOL    HW198333   2.041  12.213  14.613
65498SOL    HW298334   2.003  12.187  14.469
65499SOL     OW98335  12.028   4.676  12.163
65499SOL    HW198336  12.024   4.686  12.258
65499SOL    HW298337  12.096   4.737  12.135
65500SOL     OW98338  11.254  13.386   9.932
65500SOL    HW198339  11.194  13.356  10.000
65500SOL    HW298340  11.339  13.348   9.958
65501SOL     OW98341   3.533   2.413   0.444
65501SOL    HW198342   3.467   2.468   0.487
65501SOL    HW298343   3.610   2.419   0.499
65502SOL     OW98344  13.559  11.913   9.529
65502SOL    HW198345  13.541  12.007   9.538
65502SOL    HW298346  13.560  11.880   9.619
65503SOL     OW98347   5.256   7.628   6.261
65503SOL    HW198348   5.247   7.569   6.337
65503SOL    HW298349   5.315   7.582   6.202
65504SOL     OW98350   5.816   8.776   0.021
65504SOL    HW198351   5.838   8.815  14.816
65504SOL    HW298352   5.865   8.693   0.022
65505SOL     OW98353  12.796   8.770  13.400
65505SOL    HW198354  12.760   8.845  13.353
65505SOL    HW298355  12.751   8.771  13.485
65506SOL     OW98356  10.115   6.720   1.368
65506SOL    HW198357  10.040   6.779   1.362
65506SOL    HW298358  10.087   6.639   1.326
65507SOL     OW98359   5.903   8.263   4.029
65507SOL    HW198360   5.847   8.282   3.954
65507SOL    HW298361   5.967   8.201   3.997
65508SOL     OW98362   4.654   0.424  10.764
65508SOL    HW198363   4.572   0.450  10.722
65508SOL    HW298364   4.718   0.423  10.693
65509SOL     OW98365   6.384   0.692   6.990
65509SOL    HW198366   6.392   0.772   7.041
65509SOL    HW298367   6.317   0.712   6.924
65510SOL     OW98368   3.952   3.691   9.628
65510SOL    HW198369   3.905   3.616   9.665
65510SOL    HW298370   4.038   3.656   9.606
65511SOL     OW98371   0.802   4.486  14.708
65511SOL    HW198372   0.814   4.396  14.739
65511SOL    HW298373   0.737   4.480  14.639
65512SOL     OW98374   1.454   7.378   0.780
65512SOL    HW198375   1.480   7.353   0.692
65512SOL    HW298376   1.363   7.350   0.787
65513SOL     OW98377   5.798   0.994   6.654
65513SOL    HW198378   5.892   0.981   6.667
65513SOL    HW298379   5.793   1.064   6.588
65514SOL     OW98380   4.724   4.365   3.682
65514SOL    HW198381   4.814   4.337   3.701
65514SOL    HW298382   4.693   4.403   3.764
65515SOL     OW98383  10.052   4.135   6.045
65515SOL    HW198384  10.088   4.178   6.123
65515SOL    HW298385  10.106   4.168   5.973
65516SOL     OW98386   8.717  14.338   0.934
65516SOL    HW198387   8.771  14.322   0.857
65516SOL    HW298388   8.647  14.395   0.904
65517SOL     OW98389   4.457  12.721   5.576
65517SOL    HW198390   4.416  12.643   5.537
65517SOL    HW298391   4.515  12.754   5.507
65518SOL     OW98392   4.746   2.931   7.501
65518SOL    HW198393   4.750   2.850   7.552
65518SOL    HW298394   4.653   2.949   7.493
65519SOL     OW98395   8.349  13.982   3.633
65519SOL    HW198396   8.258  13.960   3.616
65519SOL    HW298397   8.393  13.969   3.549
65520SOL     OW98398   1.033   5.025   0.238
65520SOL    HW198399   1.071   5.058   0.319
65520SOL    HW298400   0.941   5.049   0.242
65521SOL     OW98401   9.965   2.821   8.103
65521SOL    HW198402   9.930   2.805   8.190
65521SOL    HW298403   9.893   2.861   8.054
65522SOL     OW98404   3.764  12.823   9.697
65522SOL    HW198405   3.846  12.782   9.671
65522SOL    HW298406   3.719  12.757   9.750
65523SOL     OW98407  11.817   5.727  12.152
65523SOL    HW198408  11.753   5.716  12.223
65523SOL    HW298409  11.839   5.820  12.154
65524SOL     OW98410  14.613   4.613   7.557
65524SOL    HW198411  14.700   4.577   7.542
65524SOL    HW298412  14.589   4.583   7.644
65525SOL     OW98413  13.683  11.134   9.952
65525SOL    HW198414  13.773  11.127   9.919
65525SOL    HW298415  13.666  11.049   9.992
65526SOL     OW98416   3.319   8.914   1.953
65526SOL    HW198417   3.264   8.839   1.934
65526SOL    HW298418   3.403   8.877   1.979
65527SOL     OW98419  11.304  12.515  13.807
65527SOL    HW198420  11.331  12.505  13.716
65527SOL    HW298421  11.231  12.577  13.804
65528SOL     OW98422   7.653   5.994   3.313
65528SOL    HW198423   7.644   6.053   3.238
65528SOL    HW298424   7.667   5.908   3.274
65529SOL     OW98425   1.621  12.716   8.642
65529SOL    HW198426   1.532  12.733   8.611
65529SOL    HW298427   1.611  12.697   8.736
65530SOL     OW98428   5.439   0.362   4.117
65530SOL    HW198429   5.519   0.309   4.127
65530SOL    HW298430   5.450   0.406   4.033
65531SOL     OW98431  10.539  14.361  13.361
65531SOL    HW198432  10.482  14.323  13.428
65531SOL    HW298433  10.585  14.432  13.407
65532SOL     OW98434   0.975   5.453  13.731
65532SOL    HW198435   1.005   5.462  13.821
65532SOL    HW298436   1.006   5.533  13.687
65533SOL     OW98437   0.672  14.095  11.947
65533SOL    HW198438   0.581  14.123  11.950
65533SOL    HW298439   0.701  14.095  12.038
65534SOL     OW98440   4.376   3.519  11.937
65534SOL    HW198441   4.361   3.465  12.015
65534SOL    HW298442   4.368   3.609  11.968
65535SOL     OW98443   0.218  10.250  10.637
65535SOL    HW198444   0.303  10.256  10.681
65535SOL    HW298445   0.176  10.174  10.676
65536SOL     OW98446  11.832  11.002   3.326
65536SOL    HW198447  11.876  11.060   3.389
65536SOL    HW298448  11.782  11.062   3.270
65537SOL     OW98449   0.211   2.293   9.636
65537SOL    HW198450   0.177   2.269   9.722
65537SOL    HW298451   0.237   2.384   9.646
65538SOL     OW98452   1.491  13.263   3.359
65538SOL    HW198453   1.495  13.297   3.270
65538SOL    HW298454   1.440  13.328   3.408
65539SOL     OW98455   8.916   2.839  11.659
65539SOL    HW198456   8.914   2.763  11.600
65539SOL    HW298457   8.867   2.907  11.613
65540SOL     OW98458   4.034   4.988  11.044
65540SOL    HW198459   3.967   4.963  10.981
65540SOL    HW298460   3.989   4.989  11.128
65541SOL     OW98461  11.321   4.876   2.891
65541SOL    HW198462  11.332   4.818   2.966
65541SOL    HW298463  11.236   4.852   2.854
65542SOL     OW98464  14.591   8.389  13.038
65542SOL    HW198465  14.518   8.420  12.984
65542SOL    HW298466  14.620   8.309  12.994
65543SOL     OW98467   9.788   1.610   7.649
65543SOL    HW198468   9.794   1.611   7.554
65543SOL    HW298469   9.808   1.700   7.675
65544SOL     OW98470   6.718   5.915   9.914
65544SOL    HW198471   6.756   5.859   9.846
65544SOL    HW298472   6.769   5.996   9.909
65545SOL     OW98473   2.914  11.812   7.106
65545SOL    HW198474   2.868  11.880   7.155
65545SOL    HW298475   2.849  11.777   7.046
65546SOL     OW98476  10.577  14.383   2.700
65546SOL    HW198477  10.573  14.460   2.642
65546SOL    HW298478  10.620  14.316   2.647
65547SOL     OW98479   1.072  13.060   3.463
65547SOL    HW198480   1.067  13.153   3.442
65547SOL    HW298481   1.165  13.046   3.482
65548SOL     OW98482   1.774   3.719   6.179
65548SOL    HW198483   1.790   3.766   6.097
65548SOL    HW298484   1.687   3.746   6.206
65549SOL     OW98485  13.022   4.632  12.569
65549SOL    HW198486  13.042   4.695  12.638
65549SOL    HW298487  13.101   4.578  12.562
65550SOL     OW98488   5.363  13.120   0.062
65550SOL    HW198489   5.339  13.049   0.122
65550SOL    HW298490   5.326  13.199   0.102
65551SOL     OW98491  10.701   3.702   7.553
65551SOL    HW198492  10.704   3.663   7.466
65551SOL    HW298493  10.609   3.697   7.578
65552SOL     OW98494  11.015   3.806  10.270
65552SOL    HW198495  11.088   3.844  10.320
65552SOL    HW298496  11.011   3.715  10.301
65553SOL     OW98497   3.774   0.735   7.082
65553SOL    HW198498   3.691   0.771   7.050
65553SOL    HW298499   3.773   0.754   7.176
65554SOL     OW98500  12.190   4.365   9.131
65554SOL    HW198501  12.218   4.304   9.199
65554SOL    HW298502  12.174   4.447   9.178
65555SOL     OW98503   9.624  13.187   8.717
65555SOL    HW198504   9.681  13.195   8.793
65555SOL    HW298505   9.659  13.114   8.667
65556SOL     OW98506  12.210   5.916   4.789
65556SOL    HW198507  12.268   5.842   4.768
65556SOL    HW298508  12.130   5.898   4.739
65557SOL     OW98509  10.754   7.441  12.712
65557SOL    HW198510  10.754   7.357  12.759
65557SOL    HW298511  10.817   7.428  12.641
65558SOL     OW98512   6.744   2.119   0.448
65558SOL    HW198513   6.797   2.073   0.383
65558SOL    HW298514   6.732   2.206   0.411
65559SOL     OW98515  10.990  12.846   7.001
65559SOL    HW198516  10.934  12.790   7.055
65559SOL    HW298517  10.984  12.933   7.042
65560SOL     OW98518   3.218   5.417  12.171
65560SOL    HW198519   3.131   5.414  12.130
65560SOL    HW298520   3.216   5.347  12.236
65561SOL     OW98521   3.648  14.437  10.798
65561SOL    HW198522   3.740  14.461  10.802
65561SOL    HW298523   3.626  14.440  10.705
65562SOL     OW98524   9.984   5.513  14.491
65562SOL    HW198525   9.915   5.477  14.547
65562SOL    HW298526  10.046   5.552  14.552
65563SOL     OW98527  14.635  11.406  10.256
65563SOL    HW198528  14.692  11.336  10.287
65563SOL    HW298529  14.587  11.434  10.334
65564SOL     OW98530   3.809   8.097  10.257
65564SOL    HW198531   3.829   8.171  10.315
65564SOL    HW298532   3.746   8.133  10.195
65565SOL     OW98533  13.949  13.676   6.342
65565SOL    HW198534  13.943  13.610   6.273
65565SOL    HW298535  14.014  13.738   6.311
65566SOL     OW98536   2.658   5.481   4.893
65566SOL    HW198537   2.649   5.501   4.987
65566SOL    HW298538   2.619   5.394   4.883
65567SOL     OW98539  12.382   1.796   6.043
65567SOL    HW198540  12.391   1.859   6.114
65567SOL    HW298541  12.309   1.828   5.990
65568SOL     OW98542   4.983  10.223  13.688
65568SOL    HW198543   4.935  10.236  13.770
65568SOL    HW298544   4.930  10.267  13.622
65569SOL     OW98545  12.854   4.610   4.459
65569SOL    HW198546  12.881   4.523   4.429
65569SOL    HW298547  12.761   4.601   4.479
65570SOL     OW98548   2.835  12.126   6.512
65570SOL    HW198549   2.878  12.209   6.531
65570SOL    HW298550   2.798  12.137   6.424
65571SOL     OW98551   6.517   1.578  12.235
65571SOL    HW198552   6.530   1.574  12.330
65571SOL    HW298553   6.426   1.605  12.225
65572SOL     OW98554  11.561   1.422   4.564
65572SOL    HW198555  11.607   1.502   4.539
65572SOL    HW298556  11.621   1.352   4.541
65573SOL     OW98557   7.233   3.820   3.187
65573SOL    HW198558   7.291   3.824   3.110
65573SOL    HW298559   7.241   3.729   3.217
65574SOL     OW98560   5.622   0.334  10.981
65574SOL    HW198561   5.709   0.300  11.001
65574SOL    HW298562   5.637   0.398  10.910
65575SOL     OW98563   6.354   9.568  11.916
65575SOL    HW198564   6.432   9.583  11.969
65575SOL    HW298565   6.375   9.490  11.864
65576SOL     OW98566  11.980  13.588   1.951
65576SOL    HW198567  11.900  13.617   1.993
65576SOL    HW298568  11.951  13.520   1.890
65577SOL     OW98569   6.919  14.630  10.688
65577SOL    HW198570   6.880  14.708  10.728
65577SOL    HW298571   6.907  14.643  10.594
65578SOL     OW98572   8.186   6.361   5.822
65578SOL    HW198573   8.229   6.401   5.897
65578SOL    HW298574   8.103   6.327   5.856
65579SOL     OW98575   2.853   6.435   9.832
65579SOL    HW198576   2.933   6.407   9.787
65579SOL    HW298577   2.828   6.360   9.886
65580SOL     OW98578   7.840  11.918   1.727
65580SOL    HW198579   7.789  11.999   1.727
65580SOL    HW298580   7.776  11.849   1.747
65581SOL     OW98581  14.283  14.530   2.567
65581SOL    HW198582  14.269  14.444   2.527
65581SOL    HW298583  14.378  14.536   2.578
65582SOL     OW98584   9.850   4.318   2.254
65582SOL    HW198585   9.760   4.340   2.230
65582SOL    HW298586   9.854   4.332   2.348
65583SOL     OW98587   0.154   9.722  11.374
65583SOL    HW198588   0.232   9.719  11.318
65583SOL    HW298589   0.149   9.634  11.413
65584SOL     OW98590   0.616  12.744   4.832
65584SOL    HW198591   0.637  12.650   4.823
65584SOL    HW298592   0.652  12.783   4.753
65585SOL     OW98593   4.291  14.349   0.870
65585SOL    HW198594   4.249  14.434   0.881
65585SOL    HW298595   4.371  14.368   0.821
65586SOL     OW98596   6.856  12.146   0.823
65586SOL    HW198597   6.901  12.225   0.854
65586SOL    HW298598   6.898  12.074   0.869
65587SOL     OW98599   9.800   5.032   3.846
65587SOL    HW198600   9.861   4.967   3.882
65587SOL    HW298601   9.714   5.003   3.874
65588SOL     OW98602  13.392   6.777  13.668
65588SOL    HW198603  13.402   6.826  13.586
65588SOL    HW298604  13.466   6.805  13.722
65589SOL     OW98605   4.607   9.994  12.497
65589SOL    HW198606   4.612  10.026  12.587
65589SOL    HW298607   4.690  10.022  12.458
65590SOL     OW98608   5.479   5.228   4.504
65590SOL    HW198609   5.456   5.312   4.463
65590SOL    HW298610   5.565   5.244   4.544
65591SOL     OW98611   3.888   5.996   7.872
65591SOL    HW198612   3.857   6.072   7.921
65591SOL    HW298613   3.891   5.926   7.937
65592SOL     OW98614   8.233  11.113   6.241
65592SOL    HW198615   8.251  11.162   6.321
65592SOL    HW298616   8.218  11.023   6.271
65593SOL     OW98617   7.195   5.780   4.869
65593SOL    HW198618   7.288   5.788   4.848
65593SOL    HW298619   7.171   5.866   4.904
65594SOL     OW98620   9.345  13.501  12.467
65594SOL    HW198621   9.285  13.505  12.392
65594SOL    HW298622   9.298  13.451  12.533
65595SOL     OW98623   3.897  10.073  13.510
65595SOL    HW198624   3.940  10.045  13.429
65595SOL    HW298625   3.871  10.164  13.493
65596SOL     OW98626   6.643   7.835   0.932
65596SOL    HW198627   6.587   7.891   0.878
65596SOL    HW298628   6.582   7.776   0.977
65597SOL     OW98629  12.528   4.421  12.602
65597SOL    HW198630  12.506   4.492  12.662
65597SOL    HW298631  12.466   4.430  12.530
65598SOL     OW98632  11.911  13.549   0.108
65598SOL    HW198633  11.986  13.529   0.052
65598SOL    HW298634  11.925  13.639   0.136
65599SOL     OW98635   9.484  11.712   6.368
65599SOL    HW198636   9.514  11.658   6.442
65599SOL    HW298637   9.389  11.710   6.374
65600SOL     OW98638   3.332  12.143  12.605
65600SOL    HW198639   3.346  12.115  12.695
65600SOL    HW298640   3.253  12.096  12.577
65601SOL     OW98641   6.873  14.807   7.124
65601SOL    HW198642   6.948  14.854   7.159
65601SOL    HW298643   6.907  14.759   7.049
65602SOL     OW98644   8.863   8.011  10.651
65602SOL    HW198645   8.921   8.086  10.636
65602SOL    HW298646   8.873   7.957  10.573
65603SOL     OW98647  13.923   4.557  13.279
65603SOL    HW198648  13.907   4.617  13.206
65603SOL    HW298649  13.886   4.602  13.355
65604SOL     OW98650   1.656   1.777  13.720
65604SOL    HW198651   1.682   1.686  13.729
65604SOL    HW298652   1.725   1.827  13.763
65605SOL     OW98653   5.603  10.963  13.357
65605SOL    HW198654   5.569  11.034  13.303
65605SOL    HW298655   5.541  10.956  13.430
65606SOL     OW98656   5.587  12.298   4.518
65606SOL    HW198657   5.508  12.352   4.523
65606SOL    HW298658   5.635  12.317   4.599
65607SOL     OW98659   1.656   3.364   4.369
65607SOL    HW198660   1.696   3.300   4.311
65607SOL    HW298661   1.623   3.313   4.443
65608SOL     OW98662  14.059  13.597   9.955
65608SOL    HW198663  13.989  13.647   9.998
65608SOL    HW298664  14.022  13.570   9.871
65609SOL     OW98665  11.287   9.436   5.821
65609SOL    HW198666  11.295   9.519   5.773
65609SOL    HW298667  11.222   9.454   5.889
65610SOL     OW98668   8.615  10.697  12.375
65610SOL    HW198669   8.520  10.705  12.361
65610SOL    HW298670   8.654  10.749  12.305
65611SOL     OW98671   5.655  11.125  12.287
65611SOL    HW198672   5.669  11.079  12.369
65611SOL    HW298673   5.560  11.131  12.279
65612SOL     OW98674   1.957   5.216   1.593
65612SOL    HW198675   1.873   5.191   1.554
65612SOL    HW298676   2.022   5.187   1.529
65613SOL     OW98677   7.121  10.186  11.341
65613SOL    HW198678   7.175  10.209  11.417
65613SOL    HW298679   7.109  10.091  11.349
65614SOL     OW98680  12.035   9.708  10.218
65614SOL    HW198681  12.034   9.612  10.212
65614SOL    HW298682  12.013   9.738  10.130
65615SOL     OW98683   4.482  11.115  10.942
65615SOL    HW198684   4.465  11.104  11.036
65615SOL    HW298685   4.561  11.169  10.939
65616SOL     OW98686  12.557  12.182   0.455
65616SOL    HW198687  12.512  12.186   0.371
65616SOL    HW298688  12.622  12.252   0.451
65617SOL     OW98689  10.110  11.199  12.935
65617SOL    HW198690  10.169  11.268  12.966
65617SOL    HW298691  10.023  11.230  12.960
65618SOL     OW98692   6.649  11.140   3.011
65618SOL    HW198693   6.720  11.109   2.956
65618SOL    HW298694   6.685  11.217   3.057
65619SOL     OW98695  12.286   1.223   5.711
65619SOL    HW198696  12.258   1.310   5.741
65619SOL    HW298697  12.260   1.164   5.781
65620SOL     OW98698  12.685   7.378   4.877
65620SOL    HW198699  12.652   7.468   4.878
65620SOL    HW298700  12.743   7.374   4.953
65621SOL     OW98701   0.368   2.284   4.379
65621SOL    HW198702   0.276   2.297   4.402
65621SOL    HW298703   0.398   2.217   4.440
65622SOL     OW98704  14.748   7.255   1.996
65622SOL    HW198705  14.710   7.171   2.020
65622SOL    HW298706  14.673   7.310   1.973
65623SOL     OW98707   7.307   4.770   3.237
65623SOL    HW198708   7.272   4.697   3.185
65623SOL    HW298709   7.401   4.752   3.243
65624SOL     OW98710  11.883   7.915   4.282
65624SOL    HW198711  11.877   7.821   4.299
65624SOL    HW298712  11.972   7.928   4.249
65625SOL     OW98713  11.579  10.861   0.464
65625SOL    HW198714  11.665  10.903   0.467
65625SOL    HW298715  11.517  10.932   0.476
65626SOL     OW98716   8.147   5.041   5.282
65626SOL    HW198717   8.064   5.051   5.236
65626SOL    HW298718   8.147   5.111   5.348
65627SOL     OW98719  10.818   0.886   4.235
65627SOL    HW198720  10.820   0.947   4.161
65627SOL    HW298721  10.884   0.820   4.214
65628SOL     OW98722   2.734  14.122  12.417
65628SOL    HW198723   2.742  14.060  12.345
65628SOL    HW298724   2.640  14.120  12.439
65629SOL     OW98725  13.794   8.928  14.574
65629SOL    HW198726  13.822   8.985  14.646
65629SOL    HW298727  13.700   8.919  14.587
65630SOL     OW98728  11.592   3.844   9.036
65630SOL    HW198729  11.662   3.781   9.052
65630SOL    HW298730  11.636   3.922   9.003
65631SOL     OW98731   2.531   4.983   3.463
65631SOL    HW198732   2.473   5.055   3.441
65631SOL    HW298733   2.502   4.955   3.550
65632SOL     OW98734  14.594   7.586  12.644
65632SOL    HW198735  14.529   7.654  12.666
65632SOL    HW298736  14.543   7.505  12.640
65633SOL     OW98737   7.128   9.658  13.716
65633SOL    HW198738   7.130   9.564  13.734
65633SOL    HW298739   7.115   9.664  13.621
65634SOL     OW98740  10.406   6.005   7.313
65634SOL    HW198741  10.374   6.064   7.381
65634SOL    HW298742  10.441   6.063   7.245
65635SOL     OW98743  12.754   2.835   3.059
65635SOL    HW198744  12.709   2.890   2.994
65635SOL    HW298745  12.846   2.834   3.030
65636SOL     OW98746   3.093   9.081   1.759
65636SOL    HW198747   3.121   9.160   1.713
65636SOL    HW298748   3.174   9.036   1.782
65637SOL     OW98749   2.777  14.387  13.169
65637SOL    HW198750   2.790  14.319  13.103
65637SOL    HW298751   2.694  14.428  13.146
65638SOL     OW98752   2.693  13.676   0.024
65638SOL    HW198753   2.688  13.610   0.093
65638SOL    HW298754   2.701  13.759   0.070
65639SOL     OW98755   7.225  11.423   9.564
65639SOL    HW198756   7.266  11.391   9.483
65639SOL    HW298757   7.233  11.518   9.559
65640SOL     OW98758   0.957   4.070   3.167
65640SOL    HW198759   0.965   4.130   3.093
65640SOL    HW298760   0.863   4.065   3.184
65641SOL     OW98761   0.680   4.168   2.080
65641SOL    HW198762   0.632   4.180   2.162
65641SOL    HW298763   0.652   4.241   2.025
65642SOL     OW98764   1.345  10.276   5.146
65642SOL    HW198765   1.352  10.274   5.242
65642SOL    HW298766   1.380  10.362   5.121
65643SOL     OW98767   4.986   5.214  10.613
65643SOL    HW198768   5.051   5.237  10.547
65643SOL    HW298769   5.037   5.205  10.694
65644SOL     OW98770   9.191  10.919  13.577
65644SOL    HW198771   9.124  10.969  13.531
65644SOL    HW298772   9.261  10.982  13.593
65645SOL     OW98773   5.704  10.292   7.472
65645SOL    HW198774   5.643  10.250   7.533
65645SOL    HW298775   5.721  10.378   7.510
65646SOL     OW98776   9.550   4.719   3.013
65646SOL    HW198777   9.544   4.627   3.038
65646SOL    HW298778   9.459   4.749   3.006
65647SOL     OW98779   3.765  10.979   2.667
65647SOL    HW198780   3.826  11.040   2.709
65647SOL    HW298781   3.755  10.908   2.730
65648SOL     OW98782   4.073   8.160   0.725
65648SOL    HW198783   4.150   8.106   0.741
65648SOL    HW298784   4.022   8.152   0.805
65649SOL     OW98785   9.243   7.369  13.304
65649SOL    HW198786   9.151   7.346  13.293
65649SOL    HW298787   9.245   7.465  13.301
65650SOL     OW98788   8.609   1.751   2.491
65650SOL    HW198789   8.525   1.731   2.531
65650SOL    HW298790   8.670   1.690   2.533
65651SOL     OW98791   2.584   6.707   8.353
65651SOL    HW198792   2.583   6.793   8.393
65651SOL    HW298793   2.676   6.690   8.333
65652SOL     OW98794  12.327   4.618  14.456
65652SOL    HW198795  12.282   4.581  14.531
65652SOL    HW298796  12.320   4.551  14.388
65653SOL     OW98797   8.229  13.399   1.024
65653SOL    HW198798   8.154  13.433   1.073
65653SOL    HW298799   8.214  13.304   1.020
65654SOL     OW98800  11.643  14.103   8.937
65654SOL    HW198801  11.570  14.112   8.998
65654SOL    HW298802  11.715  14.150   8.979
65655SOL     OW98803  10.947   6.215  12.013
65655SOL    HW198804  10.910   6.137  11.972
65655SOL    HW298805  10.894   6.287  11.978
65656SOL     OW98806   1.436  13.919  14.757
65656SOL    HW198807   1.373  13.987  14.731
65656SOL    HW298808   1.466  13.946  14.843
65657SOL     OW98809   2.846  12.359   0.580
65657SOL    HW198810   2.857  12.437   0.524
65657SOL    HW298811   2.899  12.292   0.536
65658SOL     OW98812   1.581  12.228   0.338
65658SOL    HW198813   1.549  12.314   0.364
65658SOL    HW298814   1.533  12.167   0.394
65659SOL     OW98815   3.537  11.043   9.907
65659SOL    HW198816   3.486  11.100   9.965
65659SOL    HW298817   3.528  11.083   9.820
65660SOL     OW98818   1.112   3.323   4.832
65660SOL    HW198819   1.095   3.404   4.783
65660SOL    HW298820   1.129   3.353   4.921
65661SOL     OW98821  11.648  14.827   0.467
65661SOL    HW198822  11.719  14.768   0.491
65661SOL    HW298823  11.574  14.800   0.521
65662SOL     OW98824   9.995  14.620   1.442
65662SOL    HW198825   9.999  14.532   1.405
65662SOL    HW298826   9.907  14.626   1.479
65663SOL     OW98827  11.710   3.953   3.408
65663SOL    HW198828  11.676   4.030   3.452
65663SOL    HW298829  11.705   3.883   3.474
65664SOL     OW98830   3.730   9.907   8.151
65664SOL    HW198831   3.789   9.852   8.100
65664SOL    HW298832   3.642   9.880   8.125
65665SOL     OW98833   1.132   1.161   6.647
65665SOL    HW198834   1.147   1.067   6.651
65665SOL    HW298835   1.160   1.193   6.733
65666SOL     OW98836   5.789  14.028   2.961
65666SOL    HW198837   5.838  13.959   3.007
65666SOL    HW298838   5.698  14.000   2.966
65667SOL     OW98839   1.601   7.961  12.615
65667SOL    HW198840   1.691   7.972  12.644
65667SOL    HW298841   1.606   7.899  12.542
65668SOL     OW98842  13.842   9.110  14.799
65668SOL    HW198843  13.896   9.086  14.874
65668SOL    HW298844  13.753   9.085  14.824
65669SOL     OW98845   1.924  13.940  12.647
65669SOL    HW198846   1.976  13.878  12.594
65669SOL    HW298847   1.870  13.884  12.702
65670SOL     OW98848  13.904  10.457  11.526
65670SOL    HW198849  13.996  10.482  11.522
65670SOL    HW298850  13.903  10.374  11.573
65671SOL     OW98851   5.933   8.796   2.097
65671SOL    HW198852   5.988   8.874   2.097
65671SOL    HW298853   5.856   8.820   2.148
65672SOL     OW98854   9.586   1.807   2.831
65672SOL    HW198855   9.492   1.798   2.851
65672SOL    HW298856   9.588   1.848   2.744
65673SOL     OW98857  14.621   2.155   1.726
65673SOL    HW198858  14.525   2.156   1.724
65673SOL    HW298859  14.643   2.148   1.818
65674SOL     OW98860  12.571   4.127   9.202
65674SOL    HW198861  12.546   4.076   9.125
65674SOL    HW298862  12.637   4.074   9.246
65675SOL     OW98863  12.328  13.177   4.893
65675SOL    HW198864  12.297  13.266   4.880
65675SOL    HW298865  12.417  13.177   4.858
65676SOL     OW98866  13.996   7.729   5.395
65676SOL    HW198867  13.938   7.720   5.471
65676SOL    HW298868  13.955   7.677   5.327
65677SOL     OW98869   8.614   5.435   0.973
65677SOL    HW198870   8.698   5.435   0.928
65677SOL    HW298871   8.555   5.387   0.914
65678SOL     OW98872   8.781   7.161  14.639
65678SOL    HW198873   8.807   7.178  14.549
65678SOL    HW298874   8.742   7.073  14.637
65679SOL     OW98875   2.218   8.283   0.990
65679SOL    HW198876   2.205   8.378   0.987
65679SOL    HW298877   2.309   8.271   0.964
65680SOL     OW98878   5.008   5.286  11.149
65680SOL    HW198879   4.960   5.210  11.182
65680SOL    HW298880   4.975   5.359  11.203
65681SOL     OW98881  13.208  10.224   0.189
65681SOL    HW198882  13.266  10.250   0.117
65681SOL    HW298883  13.205  10.129   0.184
65682SOL     OW98884   8.378  13.479   3.303
65682SOL    HW198885   8.418  13.393   3.317
65682SOL    HW298886   8.375  13.488   3.207
65683SOL     OW98887   4.557   4.154  12.770
65683SOL    HW198888   4.520   4.192  12.690
65683SOL    HW298889   4.613   4.083  12.739
65684SOL     OW98890  10.741   3.334   6.274
65684SOL    HW198891  10.725   3.343   6.180
65684SOL    HW298892  10.781   3.248   6.284
65685SOL     OW98893   1.409   7.131   9.649
65685SOL    HW198894   1.319   7.164   9.656
65685SOL    HW298895   1.421   7.113   9.556
65686SOL     OW98896   0.026   9.290  10.327
65686SOL    HW198897  14.811   9.284  10.314
65686SOL    HW298898   0.060   9.321  10.243
65687SOL     OW98899   3.943   4.872   8.695
65687SOL    HW198900   3.959   4.909   8.609
65687SOL    HW298901   3.975   4.782   8.688
65688SOL     OW98902  10.441  12.851   5.788
65688SOL    HW198903  10.394  12.777   5.825
65688SOL    HW298904  10.490  12.889   5.861
65689SOL     OW98905  13.919   3.382   1.379
65689SOL    HW198906  13.981   3.455   1.388
65689SOL    HW298907  13.860   3.410   1.310
65690SOL     OW98908   9.559   5.680  12.378
65690SOL    HW198909   9.499   5.754  12.387
65690SOL    HW298910   9.535   5.622  12.450
65691SOL     OW98911   1.297  13.721   8.276
65691SOL    HW198912   1.375  13.666   8.267
65691SOL    HW298913   1.251  13.710   8.192
65692SOL     OW98914   5.405  14.108   3.542
65692SOL    HW198915   5.497  14.102   3.568
65692SOL    HW298916   5.408  14.143   3.453
65693SOL     OW98917  11.788   4.806   8.320
65693SOL    HW198918  11.822   4.844   8.239
65693SOL    HW298919  11.793   4.877   8.383
65694SOL     OW98920   7.086   5.249   5.106
65694SOL    HW198921   7.088   5.331   5.157
65694SOL    HW298922   7.158   5.198   5.142
65695SOL     OW98923   9.991   6.707  13.534
65695SOL    HW198924  10.046   6.658  13.473
65695SOL    HW298925  10.007   6.799  13.513
65696SOL     OW98926  10.432  12.063   0.647
65696SOL    HW198927  10.405  11.971   0.649
65696SOL    HW298928  10.455  12.084   0.737
65697SOL     OW98929   1.287   5.393   6.403
65697SOL    HW198930   1.210   5.449   6.408
65697SOL    HW298931   1.342   5.432   6.335
65698SOL     OW98932   1.764   0.484   0.480
65698SOL    HW198933   1.815   0.536   0.543
65698SOL    HW298934   1.752   0.400   0.522
65699SOL     OW98935   4.173   9.172  12.707
65699SOL    HW198936   4.118   9.109  12.660
65699SOL    HW298937   4.119   9.200  12.781
65700SOL     OW98938   5.871   4.925   8.105
65700SOL    HW198939   5.814   4.913   8.029
65700SOL    HW298940   5.960   4.913   8.071
65701SOL     OW98941  13.845   9.476   5.135
65701SOL    HW198942  13.859   9.395   5.086
65701SOL    HW298943  13.763   9.511   5.100
65702SOL     OW98944   8.128  14.450   4.082
65702SOL    HW198945   8.180  14.478   4.158
65702SOL    HW298946   8.091  14.366   4.108
65703SOL     OW98947  10.616  12.156   6.125
65703SOL    HW198948  10.659  12.168   6.209
65703SOL    HW298949  10.644  12.069   6.096
65704SOL     OW98950  13.508  11.986   6.754
65704SOL    HW198951  13.603  11.989   6.752
65704SOL    HW298952  13.488  11.910   6.810
65705SOL     OW98953   1.813  10.729   0.121
65705SOL    HW198954   1.735  10.683   0.089
65705SOL    HW298955   1.865  10.744   0.042
65706SOL     OW98956  12.589  12.981   0.714
65706SOL    HW198957  12.595  12.944   0.802
65706SOL    HW298958  12.623  13.070   0.722
65707SOL     OW98959   9.778   0.879   2.968
65707SOL    HW198960   9.694   0.910   3.001
65707SOL    HW298961   9.771   0.884   2.873
65708SOL     OW98962   8.056   9.913   5.582
65708SOL    HW198963   8.004   9.993   5.578
65708SOL    HW298964   8.041   9.879   5.670
65709SOL     OW98965   6.760  10.557  14.226
65709SOL    HW198966   6.783  10.465  14.217
65709SOL    HW298967   6.766  10.593  14.138
65710SOL     OW98968   0.696   8.234   6.827
65710SOL    HW198969   0.663   8.172   6.891
65710SOL    HW298970   0.767   8.188   6.782
65711SOL     OW98971   5.653  10.247  12.822
65711SOL    HW198972   5.625  10.162  12.789
65711SOL    HW298973   5.652  10.238  12.917
65712SOL     OW98974   1.333   5.000  10.837
65712SOL    HW198975   1.314   5.002  10.743
65712SOL    HW298976   1.254   5.035  10.878
65713SOL     OW98977   1.806  13.194  13.038
65713SOL    HW198978   1.714  13.186  13.010
65713SOL    HW298979   1.818  13.288  13.052
65714SOL     OW98980  13.597   5.707   4.286
65714SOL    HW198981  13.572   5.774   4.223
65714SOL    HW298982  13.515   5.660   4.304
65715SOL     OW98983  10.780   2.730   7.939
65715SOL    HW198984  10.855   2.786   7.916
65715SOL    HW298985  10.711   2.792   7.962
65716SOL     OW98986   2.116   1.554   1.671
65716SOL    HW198987   2.129   1.484   1.735
65716SOL    HW298988   2.201   1.563   1.627
65717SOL     OW98989   4.382   0.079   3.499
65717SOL    HW198990   4.291   0.053   3.486
65717SOL    HW298991   4.432  14.877   3.494
65718SOL     OW98992   9.931  11.956   6.165
65718SOL    HW198993   9.855  12.007   6.191
65718SOL    HW298994   9.970  11.928   6.248
65719SOL     OW98995   0.173   7.840   8.540
65719SOL    HW198996   0.167   7.766   8.600
65719SOL    HW298997   0.221   7.805   8.464
65720SOL     OW98998   8.589   9.329   4.878
65720SOL    HW198999   8.640   9.343   4.798
65720SOL    HW299000   8.650   9.346   4.949
65721SOL     OW99001  12.468   1.851   8.772
65721SOL    HW199002  12.529   1.808   8.832
65721SOL    HW299003  12.414   1.906   8.828
65722SOL     OW99004  14.727   0.783  11.167
65722SOL    HW199005  14.635   0.802  11.189
65722SOL    HW299006  14.770   0.868  11.173
65723SOL     OW99007  14.855   6.362  11.756
65723SOL    HW199008  14.767   6.331  11.733
65723SOL    HW299009   0.024   6.282  11.777
65724SOL     OW99010  13.362   0.837  13.972
65724SOL    HW199011  13.369   0.742  13.975
65724SOL    HW299012  13.453   0.867  13.961
65725SOL     OW99013   9.579   1.139   5.792
65725SOL    HW199014   9.558   1.154   5.884
65725SOL    HW299015   9.495   1.119   5.751
65726SOL     OW99016   4.156   9.215  12.397
65726SOL    HW199017   4.224   9.154  12.367
65726SOL    HW299018   4.124   9.177  12.479
65727SOL     OW99019   6.651  13.779   7.468
65727SOL    HW199020   6.613  13.745   7.549
65727SOL    HW299021   6.600  13.739   7.398
65728SOL     OW99022   9.072   5.139  13.867
65728SOL    HW199023   9.165   5.120  13.883
65728SOL    HW299024   9.045   5.193  13.941
65729SOL     OW99025   9.650  14.351   8.006
65729SOL    HW199026   9.643  14.265   8.049
65729SOL    HW299027   9.565  14.393   8.022
65730SOL     OW99028  14.391  13.960   2.128
65730SOL    HW199029  14.448  13.931   2.057
65730SOL    HW299030  14.420  13.910   2.204
65731SOL     OW99031  10.947  10.559   2.444
65731SOL    HW199032  10.946  10.651   2.416
65731SOL    HW299033  11.034  10.528   2.421
65732SOL     OW99034   5.741  10.260   2.991
65732SOL    HW199035   5.708  10.288   3.076
65732SOL    HW299036   5.808  10.194   3.013
65733SOL     OW99037  13.074   2.371   0.382
65733SOL    HW199038  12.979   2.368   0.384
65733SOL    HW299039  13.101   2.359   0.473
65734SOL     OW99040   6.760   4.341  14.514
65734SOL    HW199041   6.768   4.263  14.569
65734SOL    HW299042   6.669   4.338  14.481
65735SOL     OW99043   1.588  10.240  13.282
65735SOL    HW199044   1.587  10.240  13.186
65735SOL    HW299045   1.510  10.191  13.307
65736SOL     OW99046  13.167   6.382  11.394
65736SOL    HW199047  13.168   6.302  11.341
65736SOL    HW299048  13.184   6.353  11.483
65737SOL     OW99049  12.033  13.373   8.257
65737SOL    HW199050  12.068  13.418   8.333
65737SOL    HW299051  11.939  13.371   8.271
65738SOL     OW99052   5.281  13.589   3.616
65738SOL    HW199053   5.273  13.498   3.587
65738SOL    HW299054   5.272  13.641   3.536
65739SOL     OW99055  10.453   5.567  12.929
65739SOL    HW199056  10.456   5.559  13.024
65739SOL    HW299057  10.518   5.504  12.898
65740SOL     OW99058   2.285   0.184  13.127
65740SOL    HW199059   2.250   0.271  13.105
65740SOL    HW299060   2.210   0.137  13.164
65741SOL     OW99061   8.147   2.210   4.084
65741SOL    HW199062   8.112   2.251   4.163
65741SOL    HW299063   8.098   2.128   4.075
65742SOL     OW99064   4.805  14.809   3.536
65742SOL    HW199065   4.891  14.812   3.578
65742SOL    HW299066   4.793  14.717   3.513
65743SOL     OW99067  14.182   7.468   3.239
65743SOL    HW199068  14.172   7.393   3.298
65743SOL    HW299069  14.158   7.434   3.153
65744SOL     OW99070   9.552  12.514  10.170
65744SOL    HW199071   9.581  12.424  10.181
65744SOL    HW299072   9.460  12.507  10.144
65745SOL     OW99073   4.904  13.972   5.032
65745SOL    HW199074   4.883  14.059   4.999
65745SOL    HW299075   4.825  13.943   5.078
65746SOL     OW99076   4.331   4.043   0.026
65746SOL    HW199077   4.384   4.113  14.866
65746SOL    HW299078   4.264   4.024  14.840
65747SOL     OW99079   4.041   7.554   4.097
65747SOL    HW199080   3.956   7.569   4.139
65747SOL    HW299081   4.026   7.575   4.005
65748SOL     OW99082  12.908  10.299  14.493
65748SOL    HW199083  12.874  10.371  14.547
65748SOL    HW299084  12.863  10.221  14.528
65749SOL     OW99085  14.353   2.076   8.802
65749SOL    HW199086  14.391   2.048   8.885
65749SOL    HW299087  14.266   2.108   8.826
65750SOL     OW99088  13.112   0.285   9.299
65750SOL    HW199089  13.129   0.265   9.391
65750SOL    HW299090  13.039   0.347   9.301
65751SOL     OW99091   0.856   3.731  13.368
65751SOL    HW199092   0.866   3.787  13.290
65751SOL    HW299093   0.771   3.688  13.356
65752SOL     OW99094   5.274   5.110  12.211
65752SOL    HW199095   5.231   5.195  12.208
65752SOL    HW299096   5.226   5.061  12.277
65753SOL     OW99097   4.996   4.496   5.425
65753SOL    HW199098   5.072   4.532   5.471
65753SOL    HW299099   4.979   4.412   5.469
65754SOL     OW99100   7.886   1.102   3.682
65754SOL    HW199101   7.955   1.166   3.702
65754SOL    HW299102   7.808   1.136   3.726
65755SOL     OW99103   0.190   8.342   9.785
65755SOL    HW199104   0.107   8.303   9.816
65755SOL    HW299105   0.189   8.327   9.691
65756SOL     OW99106  13.483  11.223   9.514
65756SOL    HW199107  13.551  11.271   9.466
65756SOL    HW299108  13.518  11.134   9.520
65757SOL     OW99109  11.705   1.615   7.009
65757SOL    HW199110  11.629   1.574   7.051
65757SOL    HW299111  11.670   1.693   6.967
65758SOL     OW99112   5.621  13.368  11.338
65758SOL    HW199113   5.690  13.416  11.384
65758SOL    HW299114   5.550  13.432  11.329
65759SOL     OW99115   3.189   2.687  10.701
65759SOL    HW199116   3.163   2.619  10.763
65759SOL    HW299117   3.107   2.721  10.665
65760SOL     OW99118   8.999   7.756  13.725
65760SOL    HW199119   8.970   7.741  13.815
65760SOL    HW299120   9.018   7.849  13.722
65761SOL     OW99121   2.877   8.142   7.421
65761SOL    HW199122   2.846   8.083   7.490
65761SOL    HW299123   2.861   8.230   7.455
65762SOL     OW99124   5.303   6.116  12.175
65762SOL    HW199125   5.257   6.097  12.093
65762SOL    HW299126   5.254   6.068  12.242
65763SOL     OW99127  11.493   9.304  14.343
65763SOL    HW199128  11.529   9.245  14.409
65763SOL    HW299129  11.431   9.250  14.293
65764SOL     OW99130   1.550   3.543  12.616
65764SOL    HW199131   1.617   3.562  12.682
65764SOL    HW299132   1.598   3.545  12.533
65765SOL     OW99133   4.762   1.973   6.141
65765SOL    HW199134   4.773   1.919   6.219
65765SOL    HW299135   4.816   1.929   6.075
65766SOL     OW99136  12.083  13.463   5.693
65766SOL    HW199137  12.162  13.508   5.721
65766SOL    HW299138  12.114  13.392   5.637
65767SOL     OW99139   3.158   9.263   8.215
65767SOL    HW199140   3.141   9.272   8.121
65767SOL    HW299141   3.169   9.169   8.227
65768SOL     OW99142  10.702   4.395   8.654
65768SOL    HW199143  10.782   4.345   8.667
65768SOL    HW299144  10.666   4.407   8.742
65769SOL     OW99145  13.851   7.079   2.324
65769SOL    HW199146  13.779   7.080   2.387
65769SOL    HW299147  13.820   7.132   2.250
65770SOL     OW99148  11.797  12.228  12.751
65770SOL    HW199149  11.784  12.135  12.764
65770SOL    HW299150  11.858  12.234  12.677
65771SOL     OW99151  13.347  11.802   8.257
65771SOL    HW199152  13.413  11.851   8.209
65771SOL    HW299153  13.378  11.802   8.348
65772SOL     OW99154   2.268  12.932   0.749
65772SOL    HW199155   2.337  12.980   0.704
65772SOL    HW299156   2.314  12.871   0.805
65773SOL     OW99157  12.285   9.952   2.161
65773SOL    HW199158  12.252  10.032   2.120
65773SOL    HW299159  12.365   9.980   2.205
65774SOL     OW99160  13.384   4.686   1.072
65774SOL    HW199161  13.366   4.725   1.157
65774SOL    HW299162  13.399   4.760   1.013
65775SOL     OW99163   8.259   6.544   7.155
65775SOL    HW199164   8.267   6.463   7.104
65775SOL    HW299165   8.348   6.580   7.159
65776SOL     OW99166   3.122   6.993  14.828
65776SOL    HW199167   3.066   6.920  14.799
65776SOL    HW299168   3.157   6.964   0.033
65777SOL     OW99169   2.407  10.218   4.194
65777SOL    HW199170   2.451  10.239   4.111
65777SOL    HW299171   2.464  10.256   4.261
65778SOL     OW99172   1.906  11.728   7.575
65778SOL    HW199173   1.943  11.814   7.592
65778SOL    HW299174   1.885  11.693   7.662
65779SOL     OW99175  13.291   4.501   5.222
65779SOL    HW199176  13.325   4.468   5.139
65779SOL    HW299177  13.367   4.540   5.265
65780SOL     OW99178   7.815   9.197  14.114
65780SOL    HW199179   7.776   9.149  14.187
65780SOL    HW299180   7.890   9.242  14.153
65781SOL     OW99181   5.555  14.047   5.742
65781SOL    HW199182   5.481  14.032   5.682
65781SOL    HW299183   5.544  14.138   5.769
65782SOL     OW99184  10.424   1.578   3.439
65782SOL    HW199185  10.409   1.623   3.356
65782SOL    HW299186  10.501   1.522   3.422
65783SOL     OW99187  10.736  13.857   2.884
65783SOL    HW199188  10.806  13.919   2.864
65783SOL    HW299189  10.684  13.901   2.952
65784SOL     OW99190  10.676  12.338   8.921
65784SOL    HW199191  10.626  12.363   8.844
65784SOL    HW299192  10.767  12.359   8.899
65785SOL     OW99193  11.002  10.180   5.660
65785SOL    HW199194  10.932  10.164   5.596
65785SOL    HW299195  10.970  10.143   5.742
65786SOL     OW99196  11.792  14.485   5.881
65786SOL    HW199197  11.777  14.468   5.788
65786SOL    HW299198  11.870  14.435   5.903
65787SOL     OW99199   8.232   4.848  12.067
65787SOL    HW199200   8.311   4.795  12.060
65787SOL    HW299201   8.264   4.938  12.074
65788SOL     OW99202  10.221   1.649  14.617
65788SOL    HW199203  10.285   1.669  14.684
65788SOL    HW299204  10.250   1.698  14.540
65789SOL     OW99205   6.683   3.862  11.364
65789SOL    HW199206   6.673   3.940  11.309
65789SOL    HW299207   6.615   3.802  11.334
65790SOL     OW99208   0.868  10.589   4.834
65790SOL    HW199209   0.840  10.620   4.748
65790SOL    HW299210   0.786  10.581   4.884
65791SOL     OW99211   3.781   7.020  12.841
65791SOL    HW199212   3.716   7.070  12.792
65791SOL    HW299213   3.731   6.973  12.907
65792SOL     OW99214   4.740   3.180   9.193
65792SOL    HW199215   4.786   3.252   9.150
65792SOL    HW299216   4.810   3.130   9.236
65793SOL     OW99217   9.631   6.077  12.322
65793SOL    HW199218   9.538   6.059  12.326
65793SOL    HW299219   9.656   6.059  12.231
65794SOL     OW99220  13.819   2.269  11.087
65794SOL    HW199221  13.761   2.216  11.141
65794SOL    HW299222  13.859   2.206  11.026
65795SOL     OW99223  12.262   2.882   6.902
65795SOL    HW199224  12.217   2.801   6.878
65795SOL    HW299225  12.269   2.879   6.998
65796SOL     OW99226   2.908   3.091  13.692
65796SOL    HW199227   2.932   3.001  13.713
65796SOL    HW299228   2.878   3.127  13.775
65797SOL     OW99229  11.600   3.662  10.404
65797SOL    HW199230  11.522   3.718  10.401
65797SOL    HW299231  11.566   3.573  10.392
65798SOL     OW99232   0.299  13.452   5.418
65798SOL    HW199233   0.293  13.537   5.374
65798SOL    HW299234   0.210  13.434   5.449
65799SOL     OW99235  14.731  11.670   4.719
65799SOL    HW199236  14.640  11.689   4.738
65799SOL    HW299237  14.770  11.755   4.700
65800SOL     OW99238  14.251   3.537   4.243
65800SOL    HW199239  14.309   3.600   4.201
65800SOL    HW299240  14.268   3.548   4.336
65801SOL     OW99241   9.115  14.434  13.287
65801SOL    HW199242   9.183  14.464  13.347
65801SOL    HW299243   9.099  14.343  13.313
65802SOL     OW99244   8.070   9.061   6.624
65802SOL    HW199245   8.147   9.097   6.579
65802SOL    HW299246   8.054   8.977   6.580
65803SOL     OW99247  13.921  11.473  11.544
65803SOL    HW199248  13.867  11.401  11.577
65803SOL    HW299249  13.971  11.435  11.472
65804SOL     OW99250  13.492   6.091   3.796
65804SOL    HW199251  13.455   6.069   3.710
65804SOL    HW299252  13.581   6.057   3.794
65805SOL     OW99253   6.197   9.023  10.913
65805SOL    HW199254   6.152   9.047  10.832
65805SOL    HW299255   6.250   8.947  10.890
65806SOL     OW99256  13.665   9.103   1.456
65806SOL    HW199257  13.681   9.059   1.540
65806SOL    HW299258  13.677   9.035   1.390
65807SOL     OW99259   1.661   9.963   9.707
65807SOL    HW199260   1.754   9.965   9.684
65807SOL    HW299261   1.658   9.993   9.798
65808SOL     OW99262   0.701   9.194  14.527
65808SOL    HW199263   0.678   9.152  14.444
65808SOL    HW299264   0.617   9.212  14.568
65809SOL     OW99265  14.316   4.075  10.092
65809SOL    HW199266  14.261   4.075  10.014
65809SOL    HW299267  14.399   4.114  10.063
65810SOL     OW99268   4.250  10.383   2.827
65810SOL    HW199269   4.269  10.453   2.890
65810SOL    HW299270   4.304  10.405   2.751
65811SOL     OW99271   3.583  12.689   9.841
65811SOL    HW199272   3.492  12.696   9.812
65811SOL    HW299273   3.589  12.600   9.878
65812SOL     OW99274  12.272   1.397   5.933
65812SOL    HW199275  12.364   1.403   5.960
65812SOL    HW299276  12.247   1.307   5.955
65813SOL     OW99277  13.853  10.633  10.013
65813SOL    HW199278  13.811  10.709  10.053
65813SOL    HW299279  13.923  10.609  10.074
65814SOL     OW99280   1.527   3.659  11.461
65814SOL    HW199281   1.511   3.744  11.501
65814SOL    HW299282   1.548   3.601  11.535
65815SOL     OW99283  13.086   1.193   1.278
65815SOL    HW199284  13.073   1.252   1.204
65815SOL    HW299285  13.137   1.121   1.243
65816SOL     OW99286   0.451   4.643   3.195
65816SOL    HW199287   0.464   4.714   3.132
65816SOL    HW299288   0.496   4.674   3.274
65817SOL     OW99289   8.363   8.334  13.825
65817SOL    HW199290   8.366   8.252  13.775
65817SOL    HW299291   8.390   8.401  13.762
65818SOL     OW99292   7.760   0.314  11.600
65818SOL    HW199293   7.743   0.366  11.521
65818SOL    HW299294   7.750   0.223  11.572
65819SOL     OW99295   0.636   6.331  11.953
65819SOL    HW199296   0.689   6.258  11.984
65819SOL    HW299297   0.555   6.291  11.923
65820SOL     OW99298   7.171   9.521   1.599
65820SOL    HW199299   7.257   9.480   1.605
65820SOL    HW299300   7.122   9.484   1.673
65821SOL     OW99301   5.260   1.560   5.921
65821SOL    HW199302   5.345   1.586   5.956
65821SOL    HW299303   5.226   1.498   5.985
65822SOL     OW99304  13.271   8.725   9.642
65822SOL    HW199305  13.283   8.799   9.702
65822SOL    HW299306  13.221   8.661   9.693
65823SOL     OW99307   3.092   3.520  12.622
65823SOL    HW199308   3.045   3.597  12.651
65823SOL    HW299309   3.152   3.552  12.554
65824SOL     OW99310   3.299   8.781  11.102
65824SOL    HW199311   3.273   8.689  11.098
65824SOL    HW299312   3.225   8.828  11.064
65825SOL     OW99313   3.307  12.783  14.426
65825SOL    HW199314   3.289  12.724  14.353
65825SOL    HW299315   3.389  12.751  14.463
65826SOL     OW99316   3.728   1.652   4.614
65826SOL    HW199317   3.822   1.650   4.635
65826SOL    HW299318   3.714   1.738   4.575
65827SOL     OW99319   3.304   7.795   2.163
65827SOL    HW199320   3.289   7.839   2.080
65827SOL    HW299321   3.239   7.832   2.223
65828SOL     OW99322   7.030   9.755  10.950
65828SOL    HW199323   7.071   9.692  10.891
65828SOL    HW299324   7.100   9.818  10.969
65829SOL     OW99325   1.265   6.919  12.901
65829SOL    HW199326   1.215   7.000  12.888
65829SOL    HW299327   1.329   6.919  12.830
65830SOL     OW99328   5.176  14.383  12.876
65830SOL    HW199329   5.247  14.445  12.861
65830SOL    HW299330   5.216  14.313  12.927
65831SOL     OW99331   8.513   6.707   8.693
65831SOL    HW199332   8.469   6.692   8.776
65831SOL    HW299333   8.444   6.738   8.634
65832SOL     OW99334   9.445  14.460   8.189
65832SOL    HW199335   9.362  14.499   8.217
65832SOL    HW299336   9.454  14.382   8.243
65833SOL     OW99337  10.576   3.996   2.389
65833SOL    HW199338  10.579   3.901   2.404
65833SOL    HW299339  10.520   4.029   2.460
65834SOL     OW99340  11.469   3.647  14.848
65834SOL    HW199341  11.543   3.639  14.789
65834SOL    HW299342  11.392   3.633  14.792
65835SOL     OW99343   8.338   4.296  14.087
65835SOL    HW199344   8.283   4.340  14.022
65835SOL    HW299345   8.371   4.367  14.143
65836SOL     OW99346  14.440   4.813   0.556
65836SOL    HW199347  14.512   4.855   0.509
65836SOL    HW299348  14.480   4.738   0.599
65837SOL     OW99349   2.627  12.262   6.794
65837SOL    HW199350   2.685  12.324   6.750
65837SOL    HW299351   2.590  12.312   6.867
65838SOL     OW99352   3.484   6.127   9.890
65838SOL    HW199353   3.579   6.141   9.884
65838SOL    HW299354   3.457   6.101   9.802
65839SOL     OW99355  11.529  11.632   6.539
65839SOL    HW199356  11.604  11.589   6.496
65839SOL    HW299357  11.541  11.725   6.519
65840SOL     OW99358   6.400   5.940   2.859
65840SOL    HW199359   6.337   5.933   2.787
65840SOL    HW299360   6.353   5.908   2.936
65841SOL     OW99361   2.698   7.740   7.543
65841SOL    HW199362   2.629   7.677   7.562
65841SOL    HW299363   2.679   7.772   7.455
65842SOL     OW99364  12.182  13.760  12.378
65842SOL    HW199365  12.259  13.722  12.336
65842SOL    HW299366  12.124  13.784  12.305
65843SOL     OW99367  14.191   0.902  13.977
65843SOL    HW199368  14.221   0.967  14.041
65843SOL    HW299369  14.256   0.906  13.907
65844SOL     OW99370  13.287   1.050   3.443
65844SOL    HW199371  13.214   1.092   3.488
65844SOL    HW299372  13.365   1.084   3.487
65845SOL     OW99373   6.958   6.948   1.686
65845SOL    HW199374   6.966   7.040   1.659
65845SOL    HW299375   6.953   6.899   1.604
65846SOL     OW99376  14.277   9.744  12.773
65846SOL    HW199377  14.293   9.784  12.859
65846SOL    HW299378  14.250   9.817  12.717
65847SOL     OW99379  12.016  11.352   2.346
65847SOL    HW199380  11.983  11.438   2.371
65847SOL    HW299381  11.948  11.315   2.290
65848SOL     OW99382   0.550   6.583   3.483
65848SOL    HW199383   0.542   6.580   3.578
65848SOL    HW299384   0.644   6.591   3.467
65849SOL     OW99385  13.032   6.637  12.940
65849SOL    HW199386  12.963   6.702  12.950
65849SOL    HW299387  13.034   6.591  13.023
65850SOL     OW99388   5.479   6.376   1.481
65850SOL    HW199389   5.555   6.318   1.477
65850SOL    HW299390   5.443   6.373   1.393
65851SOL     OW99391   5.820   4.148  14.468
65851SOL    HW199392   5.730   4.145  14.501
65851SOL    HW299393   5.870   4.185  14.541
65852SOL     OW99394   8.885   0.780   2.136
65852SOL    HW199395   8.881   0.871   2.107
65852SOL    HW299396   8.850   0.781   2.225
65853SOL     OW99397   5.175  14.794   0.909
65853SOL    HW199398   5.232  14.860   0.948
65853SOL    HW299399   5.089  14.811   0.949
65854SOL     OW99400   6.723   4.477   5.467
65854SOL    HW199401   6.707   4.383   5.455
65854SOL    HW299402   6.670   4.501   5.543
65855SOL     OW99403  12.083   5.516   0.124
65855SOL    HW199404  12.143   5.443   0.143
65855SOL    HW299405  12.021   5.479   0.061
65856SOL     OW99406   0.570   9.729   6.776
65856SOL    HW199407   0.627   9.691   6.709
65856SOL    HW299408   0.554   9.657   6.837
65857SOL     OW99409  10.627   7.864  10.950
65857SOL    HW199410  10.602   7.812  10.874
65857SOL    HW299411  10.551   7.920  10.967
65858SOL     OW99412   0.886   0.530   1.443
65858SOL    HW199413   0.944   0.557   1.372
65858SOL    HW299414   0.874   0.610   1.496
65859SOL     OW99415   6.180   2.249  13.841
65859SOL    HW199416   6.261   2.202  13.823
65859SOL    HW299417   6.181   2.323  13.780
65860SOL     OW99418  11.436   5.806   8.945
65860SOL    HW199419  11.469   5.894   8.925
65860SOL    HW299420  11.412   5.810   9.037
65861SOL     OW99421   5.544  12.707  14.160
65861SOL    HW199422   5.589  12.640  14.212
65861SOL    HW299423   5.495  12.657  14.094
65862SOL     OW99424   4.418  11.279   1.263
65862SOL    HW199425   4.327  11.271   1.235
65862SOL    HW299426   4.414  11.319   1.349
65863SOL     OW99427   9.915   7.989  10.202
65863SOL    HW199428   9.992   8.042  10.220
65863SOL    HW299429   9.842   8.052  10.206
65864SOL     OW99430   9.755   5.833   1.387
65864SOL    HW199431   9.741   5.746   1.425
65864SOL    HW299432   9.775   5.888   1.463
65865SOL     OW99433  11.788  12.478   4.382
65865SOL    HW199434  11.852  12.454   4.315
65865SOL    HW299435  11.835  12.471   4.464
65866SOL     OW99436   9.885  10.733   6.869
65866SOL    HW199437   9.793  10.710   6.860
65866SOL    HW299438   9.888  10.793   6.944
65867SOL     OW99439   5.632   6.788   7.192
65867SOL    HW199440   5.622   6.799   7.097
65867SOL    HW299441   5.683   6.865   7.220
65868SOL     OW99442  12.047   8.019   9.200
65868SOL    HW199443  12.042   7.923   9.200
65868SOL    HW299444  12.000   8.045   9.120
65869SOL     OW99445   7.540  13.206   9.665
65869SOL    HW199446   7.451  13.186   9.696
65869SOL    HW299447   7.531  13.210   9.570
65870SOL     OW99448  11.329   0.481  12.426
65870SOL    HW199449  11.238   0.462  12.446
65870SOL    HW299450  11.326   0.542  12.352
65871SOL     OW99451  14.353  10.233  13.185
65871SOL    HW199452  14.313  10.155  13.225
65871SOL    HW299453  14.286  10.268  13.128
65872SOL     OW99454  14.265   9.932   2.315
65872SOL    HW199455  14.268  10.012   2.368
65872SOL    HW299456  14.357   9.912   2.297
65873SOL     OW99457   4.622   0.230   8.377
65873SOL    HW199458   4.608   0.322   8.353
65873SOL    HW299459   4.692   0.201   8.319
65874SOL     OW99460   9.065   4.499   4.161
65874SOL    HW199461   9.075   4.554   4.239
65874SOL    HW299462   9.048   4.560   4.090
65875SOL     OW99463   6.711   8.767   3.105
65875SOL    HW199464   6.642   8.801   3.048
65875SOL    HW299465   6.679   8.681   3.134
65876SOL     OW99466   9.793  14.336  12.194
65876SOL    HW199467   9.812  14.422  12.156
65876SOL    HW299468   9.862  14.279  12.160
65877SOL     OW99469   4.304   3.250   0.821
65877SOL    HW199470   4.328   3.187   0.753
65877SOL    HW299471   4.286   3.331   0.773
65878SOL     OW99472  13.234   9.595  11.597
65878SOL    HW199473  13.259   9.650  11.671
65878SOL    HW299474  13.308   9.536  11.585
65879SOL     OW99475  13.588  14.185   6.579
65879SOL    HW199476  13.562  14.103   6.621
65879SOL    HW299477  13.512  14.242   6.588
65880SOL     OW99478   0.689  12.719   6.014
65880SOL    HW199479   0.720  12.807   5.994
65880SOL    HW299480   0.693  12.713   6.110
65881SOL     OW99481  10.997  11.803   5.605
65881SOL    HW199482  10.921  11.745   5.599
65881SOL    HW299483  11.024  11.798   5.697
65882SOL     OW99484   4.770  10.776   2.253
65882SOL    HW199485   4.856  10.800   2.288
65882SOL    HW299486   4.763  10.682   2.268
65883SOL     OW99487  10.880   0.602   6.724
65883SOL    HW199488  10.904   0.512   6.705
65883SOL    HW299489  10.907   0.615   6.815
65884SOL     OW99490   3.568   5.469  14.593
65884SOL    HW199491   3.516   5.549  14.590
65884SOL    HW299492   3.659   5.499  14.597
65885SOL     OW99493   1.408   3.788  14.187
65885SOL    HW199494   1.320   3.781  14.150
65885SOL    HW299495   1.464   3.808  14.112
65886SOL     OW99496  12.034  13.541   8.039
65886SOL    HW199497  12.048  13.463   8.092
65886SOL    HW299498  12.005  13.509   7.954
65887SOL     OW99499   8.900  11.666   9.391
65887SOL    HW199500   8.937  11.754   9.385
65887SOL    HW299501   8.808  11.681   9.414
65888SOL     OW99502  11.411   4.164   0.158
65888SOL    HW199503  11.393   4.215   0.079
65888SOL    HW299504  11.324   4.147   0.196
65889SOL     OW99505   8.245  11.527   9.447
65889SOL    HW199506   8.240  11.581   9.368
65889SOL    HW299507   8.181  11.564   9.507
65890SOL     OW99508   4.863  11.844   5.917
65890SOL    HW199509   4.778  11.809   5.943
65890SOL    HW299510   4.897  11.887   5.995
65891SOL     OW99511   6.926   0.447   8.217
65891SOL    HW199512   6.832   0.455   8.232
65891SOL    HW299513   6.954   0.375   8.273
65892SOL     OW99514   4.936   2.622   5.529
65892SOL    HW199515   4.996   2.579   5.589
65892SOL    HW299516   4.903   2.698   5.578
65893SOL     OW99517   3.027   2.685   0.399
65893SOL    HW199518   3.090   2.646   0.338
65893SOL    HW299519   2.942   2.675   0.355
65894SOL     OW99520  11.710  10.187  12.086
65894SOL    HW199521  11.760  10.120  12.040
65894SOL    HW299522  11.621  10.151  12.093
65895SOL     OW99523   6.035   3.887  10.584
65895SOL    HW199524   5.965   3.912  10.524
65895SOL    HW299525   6.115   3.891  10.530
65896SOL     OW99526  12.836  10.973   2.781
65896SOL    HW199527  12.851  11.056   2.737
65896SOL    HW299528  12.903  10.914   2.745
65897SOL     OW99529   7.267  10.242   7.203
65897SOL    HW199530   7.232  10.274   7.286
65897SOL    HW299531   7.289  10.151   7.220
65898SOL     OW99532   8.475  12.291   7.508
65898SOL    HW199533   8.403  12.329   7.559
65898SOL    HW299534   8.497  12.359   7.444
65899SOL     OW99535  14.686  12.211  12.026
65899SOL    HW199536  14.732  12.203  11.942
65899SOL    HW299537  14.684  12.122  12.061
65900SOL     OW99538  11.426   2.232  11.161
65900SOL    HW199539  11.377   2.253  11.081
65900SOL    HW299540  11.366   2.177  11.212
65901SOL     OW99541  11.460   4.232  14.312
65901SOL    HW199542  11.548   4.213  14.280
65901SOL    HW299543  11.461   4.325  14.331
65902SOL     OW99544  10.131   1.816   9.941
65902SOL    HW199545  10.159   1.775  10.023
65902SOL    HW299546  10.067   1.755   9.904
65903SOL     OW99547   9.001   3.657  11.267
65903SOL    HW199548   9.006   3.721  11.196
65903SOL    HW299549   9.004   3.572  11.224
65904SOL     OW99550   5.354  14.135   6.354
65904SOL    HW199551   5.269  14.155   6.313
65904SOL    HW299552   5.406  14.214   6.339
65905SOL     OW99553   6.673  10.569   8.139
65905SOL    HW199554   6.674  10.664   8.123
65905SOL    HW299555   6.765  10.545   8.148
65906SOL     OW99556   2.100   9.269   5.637
65906SOL    HW199557   2.092   9.320   5.717
65906SOL    HW299558   2.138   9.186   5.665
65907SOL     OW99559   0.845  14.117  13.924
65907SOL    HW199560   0.755  14.147  13.938
65907SOL    HW299561   0.890  14.138  14.005
65908SOL     OW99562  10.924  11.678  10.773
65908SOL    HW199563  10.872  11.744  10.819
65908SOL    HW299564  10.923  11.602  10.831
65909SOL     OW99565  13.439   3.690   1.231
65909SOL    HW199566  13.473   3.667   1.144
65909SOL    HW299567  13.503   3.654   1.292
65910SOL     OW99568  11.369   3.093   5.914
65910SOL    HW199569  11.282   3.058   5.934
65910SOL    HW299570  11.355   3.146   5.835
65911SOL     OW99571  12.765   5.856   0.975
65911SOL    HW199572  12.714   5.934   0.999
65911SOL    HW299573  12.856   5.884   0.981
65912SOL     OW99574   8.769   6.327  12.959
65912SOL    HW199575   8.855   6.339  13.001
65912SOL    HW299576   8.711   6.302  13.031
65913SOL     OW99577  14.063   8.917   0.625
65913SOL    HW199578  14.047   8.917   0.531
65913SOL    HW299579  13.995   8.973   0.661
65914SOL     OW99580   4.026   7.847  14.545
65914SOL    HW199581   4.072   7.784  14.601
65914SOL    HW299582   3.992   7.912  14.606
65915SOL     OW99583  13.205   2.696   5.685
65915SOL    HW199584  13.131   2.754   5.708
65915SOL    HW299585  13.222   2.715   5.593
65916SOL     OW99586  11.147   0.262   2.969
65916SOL    HW199587  11.057   0.262   2.936
65916SOL    HW299588  11.191   0.329   2.917
65917SOL     OW99589  11.014   2.159  12.325
65917SOL    HW199590  10.926   2.196  12.319
65917SOL    HW299591  11.070   2.220  12.277
65918SOL     OW99592   8.090   1.995  14.371
65918SOL    HW199593   8.159   1.964  14.312
65918SOL    HW299594   8.119   1.966  14.458
65919SOL     OW99595   6.320   8.164   3.122
65919SOL    HW199596   6.340   8.244   3.172
65919SOL    HW299597   6.258   8.193   3.055
65920SOL     OW99598   6.073  13.574   5.806
65920SOL    HW199599   6.055  13.639   5.738
65920SOL    HW299600   6.080  13.491   5.758
65921SOL     OW99601  10.277  12.131   6.858
65921SOL    HW199602  10.350  12.069   6.853
65921SOL    HW299603  10.230  12.119   6.776
65922SOL     OW99604  12.019   9.026   9.394
65922SOL    HW199605  12.036   8.933   9.381
65922SOL    HW299606  11.958   9.050   9.324
65923SOL     OW99607   6.571  14.209   5.857
65923SOL    HW199608   6.548  14.275   5.792
65923SOL    HW299609   6.645  14.162   5.819
65924SOL     OW99610   4.495  10.131   8.076
65924SOL    HW199611   4.541  10.054   8.109
65924SOL    HW299612   4.520  10.137   7.984
65925SOL     OW99613   7.605  13.281  14.131
65925SOL    HW199614   7.575  13.328  14.053
65925SOL    HW299615   7.699  13.271  14.118
65926SOL     OW99616   6.301   2.009   5.247
65926SOL    HW199617   6.307   1.971   5.160
65926SOL    HW299618   6.391   2.024   5.274
65927SOL     OW99619   0.058   2.523   7.157
65927SOL    HW199620   0.146   2.488   7.173
65927SOL    HW299621   0.039   2.501   7.066
65928SOL     OW99622   9.636   8.070   2.672
65928SOL    HW199623   9.565   8.021   2.712
65928SOL    HW299624   9.611   8.162   2.684
65929SOL     OW99625   0.761  13.544   4.940
65929SOL    HW199626   0.732  13.569   5.028
65929SOL    HW299627   0.798  13.625   4.904
65930SOL     OW99628  13.818   2.894  10.518
65930SOL    HW199629  13.729   2.860  10.527
65930SOL    HW299630  13.823   2.925  10.428
65931SOL     OW99631  10.588  12.253   4.709
65931SOL    HW199632  10.556  12.243   4.619
65931SOL    HW299633  10.637  12.173   4.726
65932SOL     OW99634   4.116   5.464   0.097
65932SOL    HW199635   4.021   5.458   0.109
65932SOL    HW299636   4.153   5.430   0.179
65933SOL     OW99637   2.221   5.161   2.351
65933SOL    HW199638   2.311   5.190   2.336
65933SOL    HW299639   2.166   5.231   2.316
65934SOL     OW99640   1.092  11.150   3.180
65934SOL    HW199641   1.010  11.160   3.229
65934SOL    HW299642   1.125  11.239   3.172
65935SOL     OW99643  10.463   7.200  11.478
65935SOL    HW199644  10.404   7.252  11.532
65935SOL    HW299645  10.429   7.110  11.487
65936SOL     OW99646  13.750   8.843   3.876
65936SOL    HW199647  13.824   8.801   3.831
65936SOL    HW299648  13.680   8.778   3.872
65937SOL     OW99649   9.439   3.682  10.700
65937SOL    HW199650   9.469   3.769  10.726
65937SOL    HW299651   9.498   3.621  10.744
65938SOL     OW99652   8.434   6.478  11.603
65938SOL    HW199653   8.424   6.573  11.590
65938SOL    HW299654   8.371   6.439  11.543
65939SOL     OW99655   1.039   9.611  13.480
65939SOL    HW199656   1.094   9.644  13.410
65939SOL    HW299657   0.952   9.603  13.441
65940SOL     OW99658   5.720  10.199  11.384
65940SOL    HW199659   5.788  10.250  11.429
65940SOL    HW299660   5.742  10.108  11.403
65941SOL     OW99661   7.154  11.241  13.982
65941SOL    HW199662   7.210  11.199  14.047
65941SOL    HW299663   7.145  11.177  13.912
65942SOL     OW99664   3.632  10.400  10.248
65942SOL    HW199665   3.701  10.442  10.197
65942SOL    HW299666   3.640  10.437  10.335
65943SOL     OW99667   7.444   2.414   4.722
65943SOL    HW199668   7.536   2.391   4.709
65943SOL    HW299669   7.427   2.481   4.656
65944SOL     OW99670   8.563   0.272   6.701
65944SOL    HW199671   8.609   0.293   6.619
65944SOL    HW299672   8.628   0.225   6.753
65945SOL     OW99673   6.607   2.845   3.827
65945SOL    HW199674   6.544   2.883   3.887
65945SOL    HW299675   6.690   2.885   3.849
65946SOL     OW99676   8.492  11.638   1.462
65946SOL    HW199677   8.508  11.731   1.480
65946SOL    HW299678   8.432  11.638   1.388
65947SOL     OW99679   2.654  11.936   4.898
65947SOL    HW199680   2.666  12.020   4.854
65947SOL    HW299681   2.729  11.883   4.871
65948SOL     OW99682   1.546   6.002   7.299
65948SOL    HW199683   1.559   5.999   7.204
65948SOL    HW299684   1.477   5.938   7.315
65949SOL     OW99685   2.194   5.911   5.301
65949SOL    HW199686   2.130   5.843   5.324
65949SOL    HW299687   2.237   5.933   5.384
65950SOL     OW99688   2.900   1.593   1.857
65950SOL    HW199689   2.872   1.609   1.767
65950SOL    HW299690   2.892   1.498   1.867
65951SOL     OW99691   6.517  12.237   1.609
65951SOL    HW199692   6.510  12.332   1.598
65951SOL    HW299693   6.476  12.201   1.530
65952SOL     OW99694  11.091  14.690   4.503
65952SOL    HW199695  11.055  14.714   4.418
65952SOL    HW299696  11.015  14.665   4.555
65953SOL     OW99697   1.345   7.223  13.927
65953SOL    HW199698   1.277   7.155  13.929
65953SOL    HW299699   1.372   7.233  14.018
65954SOL     OW99700  14.673   5.924   1.288
65954SOL    HW199701  14.643   5.920   1.379
65954SOL    HW299702  14.605   5.973   1.242
65955SOL     OW99703   0.529   8.958   5.046
65955SOL    HW199704   0.471   9.029   5.072
65955SOL    HW299705   0.476   8.904   4.987
65956SOL     OW99706   2.158  10.051  11.233
65956SOL    HW199707   2.205  10.135  11.232
65956SOL    HW299708   2.093  10.060  11.302
65957SOL     OW99709   5.900   0.538   0.472
65957SOL    HW199710   5.969   0.573   0.416
65957SOL    HW299711   5.943   0.467   0.520
65958SOL     OW99712   9.153  14.695   7.618
65958SOL    HW199713   9.073  14.671   7.666
65958SOL    HW299714   9.210  14.619   7.626
65959SOL     OW99715  12.806  11.481   8.022
65959SOL    HW199716  12.854  11.409   8.063
65959SOL    HW299717  12.851  11.496   7.939
65960SOL     OW99718   3.117  10.453   9.961
65960SOL    HW199719   3.037  10.506   9.962
65960SOL    HW299720   3.139  10.440  10.053
65961SOL     OW99721   5.906   0.904   3.607
65961SOL    HW199722   5.991   0.872   3.638
65961SOL    HW299723   5.918   0.916   3.513
65962SOL     OW99724   5.043  14.672  11.681
65962SOL    HW199725   5.097  14.744  11.648
65962SOL    HW299726   5.106  14.604  11.706
65963SOL     OW99727  10.897   6.028  12.779
65963SOL    HW199728  10.896   6.032  12.683
65963SOL    HW299729  10.932   5.941  12.798
65964SOL     OW99730  14.369  13.701   6.166
65964SOL    HW199731  14.343  13.677   6.255
65964SOL    HW299732  14.365  13.796   6.164
65965SOL     OW99733   0.520   9.215   8.421
65965SOL    HW199734   0.516   9.207   8.326
65965SOL    HW299735   0.608   9.247   8.439
65966SOL     OW99736   3.092   5.061   8.928
65966SOL    HW199737   3.179   5.026   8.946
65966SOL    HW299738   3.109   5.150   8.896
65967SOL     OW99739   8.962  12.949   3.810
65967SOL    HW199740   8.922  12.919   3.728
65967SOL    HW299741   8.917  12.898   3.877
65968SOL     OW99742   0.170   5.435  10.058
65968SOL    HW199743   0.191   5.490   9.982
65968SOL    HW299744   0.233   5.460  10.125
65969SOL     OW99745   8.953   5.014  12.921
65969SOL    HW199746   9.016   5.013  12.849
65969SOL    HW299747   8.956   5.103  12.954
65970SOL     OW99748  10.686   9.476   4.326
65970SOL    HW199749  10.716   9.386   4.337
65970SOL    HW299750  10.726   9.523   4.399
65971SOL     OW99751   4.407   8.719   1.573
65971SOL    HW199752   4.466   8.743   1.501
65971SOL    HW299753   4.365   8.638   1.543
65972SOL     OW99754  10.625  11.992   5.320
65972SOL    HW199755  10.575  11.910   5.322
65972SOL    HW299756  10.656  11.999   5.230
65973SOL     OW99757   9.514  11.438  13.660
65973SOL    HW199758   9.501  11.442  13.754
65973SOL    HW299759   9.609  11.436  13.649
65974SOL     OW99760   1.363  10.589  11.693
65974SOL    HW199761   1.375  10.675  11.653
65974SOL    HW299762   1.302  10.605  11.766
65975SOL     OW99763   0.181   7.774   0.899
65975SOL    HW199764   0.142   7.835   0.962
65975SOL    HW299765   0.273   7.798   0.896
65976SOL     OW99766   3.980  13.725   9.088
65976SOL    HW199767   4.061  13.707   9.040
65976SOL    HW299768   3.980  13.819   9.101
65977SOL     OW99769   6.329  13.967   6.268
65977SOL    HW199770   6.321  13.877   6.236
65977SOL    HW299771   6.284  14.020   6.202
65978SOL     OW99772   1.157   7.219   9.623
65978SOL    HW199773   1.114   7.228   9.538
65978SOL    HW299774   1.122   7.291   9.676
65979SOL     OW99775  11.810  14.093  14.668
65979SOL    HW199776  11.850  14.040  14.599
65979SOL    HW299777  11.742  14.037  14.704
65980SOL     OW99778   8.771   6.432   4.980
65980SOL    HW199779   8.785   6.517   4.938
65980SOL    HW299780   8.677   6.427   4.994
65981SOL     OW99781   3.880  13.063   4.619
65981SOL    HW199782   3.925  13.059   4.535
65981SOL    HW299783   3.885  13.154   4.646
65982SOL     OW99784   5.969   3.119   7.399
65982SOL    HW199785   5.957   3.026   7.419
65982SOL    HW299786   6.061   3.136   7.420
65983SOL     OW99787   5.749   9.877  13.416
65983SOL    HW199788   5.763   9.878  13.321
65983SOL    HW299789   5.726   9.967  13.438
65984SOL     OW99790   7.119   5.973   1.468
65984SOL    HW199791   7.040   5.999   1.420
65984SOL    HW299792   7.118   5.877   1.464
65985SOL     OW99793  12.535   1.641  10.338
65985SOL    HW199794  12.561   1.732  10.350
65985SOL    HW299795  12.617   1.595  10.320
65986SOL     OW99796   0.470   6.595   7.101
65986SOL    HW199797   0.389   6.588   7.152
65986SOL    HW299798   0.482   6.689   7.087
65987SOL     OW99799  11.937   9.240   0.121
65987SOL    HW199800  11.944   9.161   0.068
65987SOL    HW299801  12.027   9.258   0.150
65988SOL     OW99802  10.828   6.655   9.460
65988SOL    HW199803  10.881   6.654   9.540
65988SOL    HW299804  10.809   6.563   9.442
65989SOL     OW99805   7.937   7.927   7.711
65989SOL    HW199806   8.013   7.870   7.713
65989SOL    HW299807   7.972   8.013   7.687
65990SOL     OW99808  10.718   9.165  13.065
65990SOL    HW199809  10.798   9.115  13.082
65990SOL    HW299810  10.720   9.236  13.129
65991SOL     OW99811  12.806   2.009   9.016
65991SOL    HW199812  12.786   2.058   9.096
65991SOL    HW299813  12.752   1.930   9.023
65992SOL     OW99814  11.134   4.626  12.428
65992SOL    HW199815  11.041   4.627  12.409
65992SOL    HW299816  11.176   4.617  12.343
65993SOL     OW99817  13.006   4.040   3.578
65993SOL    HW199818  13.028   4.052   3.486
65993SOL    HW299819  13.079   3.989   3.614
65994SOL     OW99820  13.147  14.022   7.399
65994SOL    HW199821  13.084  13.986   7.462
65994SOL    HW299822  13.144  13.962   7.325
65995SOL     OW99823   2.662   8.986   1.222
65995SOL    HW199824   2.743   8.941   1.248
65995SOL    HW299825   2.626   8.932   1.152
65996SOL     OW99826   4.962   3.444  10.581
65996SOL    HW199827   4.970   3.535  10.610
65996SOL    HW299828   4.970   3.448  10.485
65997SOL     OW99829   3.986   9.205   6.686
65997SOL    HW199830   4.041   9.217   6.608
65997SOL    HW299831   3.897   9.223   6.655
65998SOL     OW99832  11.976  11.507   9.409
65998SOL    HW199833  11.968  11.448   9.484
65998SOL    HW299834  11.965  11.450   9.333
65999SOL     OW99835  14.232  10.394   2.385
65999SOL    HW199836  14.147  10.436   2.373
65999SOL    HW299837  14.289  10.439   2.323
66000SOL     OW99838   3.344   6.839   5.849
66000SOL    HW199839   3.297   6.773   5.796
66000SOL    HW299840   3.435   6.832   5.820
66001SOL     OW99841  12.459   5.173   3.909
66001SOL    HW199842  12.535   5.230   3.901
66001SOL    HW299843  12.406   5.212   3.978
66002SOL     OW99844   9.273   4.242  13.213
66002SOL    HW199845   9.199   4.286  13.255
66002SOL    HW299846   9.271   4.153  13.247
66003SOL     OW99847   1.791  13.023   8.505
66003SOL    HW199848   1.711  13.063   8.471
66003SOL    HW299849   1.768  12.932   8.520
66004SOL     OW99850   7.165   2.517  12.755
66004SOL    HW199851   7.122   2.589  12.801
66004SOL    HW299852   7.209   2.559  12.681
66005SOL     OW99853  12.262  13.881  13.896
66005SOL    HW199854  12.175  13.863  13.861
66005SOL    HW299855  12.304  13.795  13.903
66006SOL     OW99856   7.316   9.179   2.851
66006SOL    HW199857   7.347   9.176   2.761
66006SOL    HW299858   7.351   9.261   2.886
66007SOL     OW99859  11.645   5.086   2.054
66007SOL    HW199860  11.691   5.135   1.986
66007SOL    HW299861  11.593   5.021   2.006
66008SOL     OW99862   1.905   4.544   4.750
66008SOL    HW199863   1.878   4.481   4.817
66008SOL    HW299864   1.885   4.630   4.789
66009SOL     OW99865   4.319   6.170  14.058
66009SOL    HW199866   4.296   6.077  14.065
66009SOL    HW299867   4.411   6.170  14.034
66010SOL     OW99868  13.038   9.828   7.417
66010SOL    HW199869  12.959   9.851   7.367
66010SOL    HW299870  13.100   9.798   7.351
66011SOL     OW99871  14.115   5.654  12.846
66011SOL    HW199872  14.068   5.619  12.771
66011SOL    HW299873  14.069   5.735  12.868
66012SOL     OW99874   1.278  13.865   7.128
66012SOL    HW199875   1.330  13.943   7.107
66012SOL    HW299876   1.187  13.894   7.122
66013SOL     OW99877   3.219  13.136   5.187
66013SOL    HW199878   3.151  13.199   5.160
66013SOL    HW299879   3.300  13.174   5.152
66014SOL     OW99880   3.121  14.118   2.566
66014SOL    HW199881   3.171  14.195   2.540
66014SOL    HW299882   3.156  14.094   2.652
66015SOL     OW99883   9.841   2.800  12.687
66015SOL    HW199884   9.932   2.779  12.706
66015SOL    HW299885   9.812   2.852  12.763
66016SOL     OW99886  13.931   6.831   3.151
66016SOL    HW199887  13.848   6.863   3.115
66016SOL    HW299888  13.976   6.911   3.180
66017SOL     OW99889   9.109   8.167  10.598
66017SOL    HW199890   9.110   8.138  10.506
66017SOL    HW299891   9.202   8.181  10.619
66018SOL     OW99892   4.852   7.865   3.785
66018SOL    HW199893   4.861   7.769   3.786
66018SOL    HW299894   4.759   7.880   3.771
66019SOL     OW99895  14.518   8.534   9.902
66019SOL    HW199896  14.495   8.453   9.855
66019SOL    HW299897  14.571   8.584   9.841
66020SOL     OW99898   5.299  11.321   4.505
66020SOL    HW199899   5.289  11.241   4.454
66020SOL    HW299900   5.258  11.301   4.590
66021SOL     OW99901   8.922   4.567  11.811
66021SOL    HW199902   9.009   4.602  11.830
66021SOL    HW299903   8.897   4.520  11.890
66022SOL     OW99904   7.579  11.591   9.332
66022SOL    HW199905   7.634  11.528   9.286
66022SOL    HW299906   7.635  11.668   9.345
66023SOL     OW99907   2.937  11.264  13.618
66023SOL    HW199908   2.855  11.230  13.655
66023SOL    HW299909   2.909  11.333  13.558
66024SOL     OW99910   8.003  11.080   1.359
66024SOL    HW199911   7.980  11.128   1.438
66024SOL    HW299912   7.950  11.120   1.290
66025SOL     OW99913   9.562   4.743   0.090
66025SOL    HW199914   9.484   4.697   0.119
66025SOL    HW299915   9.611   4.678   0.039
66026SOL     OW99916   7.655  13.003   3.895
66026SOL    HW199917   7.713  13.056   3.950
66026SOL    HW299918   7.567  13.019   3.930
66027SOL     OW99919   3.590   0.683   1.427
66027SOL    HW199920   3.523   0.717   1.368
66027SOL    HW299921   3.579   0.735   1.507
66028SOL     OW99922   3.178  10.627   6.516
66028SOL    HW199923   3.115  10.563   6.483
66028SOL    HW299924   3.148  10.711   6.481
66029SOL     OW99925   5.735   4.558   6.797
66029SOL    HW199926   5.749   4.470   6.830
66029SOL    HW299927   5.688   4.546   6.715
66030SOL     OW99928  14.315  13.263  12.999
66030SOL    HW199929  14.397  13.252  12.950
66030SOL    HW299930  14.340  13.252  13.091
66031SOL     OW99931  12.160   3.800   9.197
66031SOL    HW199932  12.210   3.864   9.146
66031SOL    HW299933  12.072   3.837   9.202
66032SOL     OW99934  14.271   1.803   1.939
66032SOL    HW199935  14.245   1.751   1.863
66032SOL    HW299936  14.203   1.870   1.946
66033SOL     OW99937   9.783  10.473   1.711
66033SOL    HW199938   9.830  10.552   1.686
66033SOL    HW299939   9.851  10.405   1.713
66034SOL     OW99940   0.743  10.963   5.056
66034SOL    HW199941   0.799  10.899   5.099
66034SOL    HW299942   0.655  10.925   5.060
66035SOL     OW99943  10.995   4.314   2.843
66035SOL    HW199944  11.038   4.344   2.763
66035SOL    HW299945  10.908   4.287   2.814
66036SOL     OW99946   1.025   6.600   1.785
66036SOL    HW199947   1.066   6.555   1.711
66036SOL    HW299948   1.048   6.547   1.861
66037SOL     OW99949  14.827  10.126   7.135
66037SOL    HW199950  14.870  10.212   7.136
66037SOL    HW299951  14.830  10.100   7.042
66038SOL     OW99952   2.107   5.448   2.376
66038SOL    HW199953   2.075   5.475   2.290
66038SOL    HW299954   2.179   5.508   2.395
66039SOL     OW99955  12.226   2.561   8.494
66039SOL    HW199956  12.307   2.512   8.507
66039SOL    HW299957  12.178   2.549   8.576
66040SOL     OW99958   3.839  12.662   3.437
66040SOL    HW199959   3.896  12.690   3.508
66040SOL    HW299960   3.761  12.716   3.446
66041SOL     OW99961   0.351   6.694   8.160
66041SOL    HW199962   0.353   6.642   8.241
66041SOL    HW299963   0.285   6.761   8.176
66042SOL     OW99964   0.687  13.377  13.258
66042SOL    HW199965   0.606  13.335  13.287
66042SOL    HW299966   0.684  13.465  13.297
66043SOL     OW99967   6.039   0.253   2.337
66043SOL    HW199968   6.054   0.188   2.268
66043SOL    HW299969   6.079   0.334   2.303
66044SOL     OW99970   2.604   1.420  13.086
66044SOL    HW199971   2.660   1.414  13.163
66044SOL    HW299972   2.515   1.412  13.120
66045SOL     OW99973   3.557   7.857  10.021
66045SOL    HW199974   3.537   7.810   9.940
66045SOL    HW299975   3.517   7.943  10.011
66046SOL     OW99976  10.154   0.007   8.903
66046SOL    HW199977  10.063   0.019   8.876
66046SOL    HW299978  10.195   0.093   8.889
66047SOL     OW99979   6.710   8.689   5.386
66047SOL    HW199980   6.763   8.670   5.464
66047SOL    HW299981   6.728   8.616   5.327
66048SOL     OW99982   3.185   3.255   3.142
66048SOL    HW199983   3.177   3.343   3.179
66048SOL    HW299984   3.111   3.247   3.082
66049SOL     OW99985  13.829   8.413   7.193
66049SOL    HW199986  13.807   8.401   7.286
66049SOL    HW299987  13.924   8.401   7.190
66050SOL     OW99988   7.991   5.469   3.262
66050SOL    HW199989   7.909   5.436   3.299
66050SOL    HW299990   8.036   5.510   3.335
66051SOL     OW99991   4.243  11.080  13.347
66051SOL    HW199992   4.150  11.068  13.331
66051SOL    HW299993   4.286  11.030  13.277
66052SOL     OW99994   8.731   7.123  13.374
66052SOL    HW199995   8.767   7.161  13.453
66052SOL    HW299996   8.680   7.193  13.334
66053SOL     OW99997   6.557   0.006   3.225
66053SOL    HW199998   6.606   0.030   3.304
66053SOL    HW299999   6.580  14.794   3.210
66054SOL     OW    0   2.938  12.491   8.004
66054SOL    HW1    1   2.924  12.452   7.918
66054SOL    HW2    2   3.030  12.475   8.024
66055SOL     OW    3   0.406  13.753   6.537
66055SOL    HW1    4   0.428  13.718   6.451
66055SOL    HW2    5   0.367  13.679   6.584
66056SOL     OW    6   7.709  13.324   9.893
66056SOL    HW1    7   7.731  13.359   9.979
66056SOL    HW2    8   7.617  13.299   9.899
66057SOL     OW    9   2.230  13.240   4.752
66057SOL    HW1   10   2.209  13.251   4.660
66057SOL    HW2   11   2.194  13.318   4.795
66058SOL     OW   12   6.859   7.835   7.517
66058SOL    HW1   13   6.768   7.827   7.546
66058SOL    HW2   14   6.898   7.750   7.538
66059SOL     OW   15   7.911   2.320   2.831
66059SOL    HW1   16   7.911   2.311   2.927
66059SOL    HW2   17   7.885   2.412   2.817
66060SOL     OW   18   2.877   9.577   3.384
66060SOL    HW1   19   2.879   9.672   3.382
66060SOL    HW2   20   2.801   9.555   3.439
66061SOL     OW   21  10.061  10.948  12.703
66061SOL    HW1   22  10.010  10.995  12.637
66061SOL    HW2   23  10.151  10.977  12.689
66062SOL     OW   24   9.115  11.454  14.031
66062SOL    HW1   25   9.027  11.492  14.026
66062SOL    HW2   26   9.102  11.360  14.026
66063SOL     OW   27   7.372   9.201   3.354
66063SOL    HW1   28   7.301   9.138   3.348
66063SOL    HW2   29   7.451   9.148   3.360
66064SOL     OW   30   8.177   0.795   7.985
66064SOL    HW1   31   8.152   0.887   7.998
66064SOL    HW2   32   8.272   0.798   7.975
66065SOL     OW   33   0.148   1.967   8.874
66065SOL    HW1   34   0.172   2.058   8.890
66065SOL    HW2   35   0.216   1.934   8.815
66066SOL     OW   36   9.235   0.768  10.239
66066SOL    HW1   37   9.139   0.769  10.240
66066SOL    HW2   38   9.258   0.683  10.277
66067SOL     OW   39   9.314   7.922   6.684
66067SOL    HW1   40   9.381   7.893   6.622
66067SOL    HW2   41   9.315   8.017   6.678
66068SOL     OW   42  11.465  12.376   6.323
66068SOL    HW1   43  11.435  12.429   6.250
66068SOL    HW2   44  11.465  12.435   6.398
66069SOL     OW   45  13.063  13.344   6.851
66069SOL    HW1   46  13.043  13.254   6.827
66069SOL    HW2   47  13.133  13.338   6.915
66070SOL     OW   48  13.536   8.137   0.667
66070SOL    HW1   49  13.455   8.092   0.693
66070SOL    HW2   50  13.540   8.214   0.723
66071SOL     OW   51   2.153  12.707  11.401
66071SOL    HW1   52   2.093  12.650  11.449
66071SOL    HW2   53   2.096  12.768  11.355
66072SOL     OW   54   6.058   3.609   5.265
66072SOL    HW1   55   6.015   3.528   5.295
66072SOL    HW2   56   6.141   3.610   5.311
66073SOL     OW   57   9.506   7.520   1.595
66073SOL    HW1   58   9.550   7.503   1.511
66073SOL    HW2   59   9.425   7.564   1.570
66074SOL     OW   60  12.427   8.789  11.506
66074SOL    HW1   61  12.426   8.816  11.414
66074SOL    HW2   62  12.374   8.709  11.508
66075SOL     OW   63   3.659   2.014   2.901
66075SOL    HW1   64   3.636   2.089   2.956
66075SOL    HW2   65   3.588   1.951   2.916
66076SOL     OW   66   1.569  10.047   3.412
66076SOL    HW1   67   1.627  10.123   3.406
66076SOL    HW2   68   1.596  10.002   3.492
66077SOL     OW   69   9.922   7.917   4.384
66077SOL    HW1   70   9.881   7.852   4.441
66077SOL    HW2   71   9.915   7.881   4.296
66078SOL     OW   72   3.063   6.702   1.168
66078SOL    HW1   73   3.141   6.722   1.220
66078SOL    HW2   74   3.051   6.608   1.179
66079SOL     OW   75   9.718   0.667   9.247
66079SOL    HW1   76   9.629   0.644   9.274
66079SOL    HW2   77   9.714   0.667   9.151
66080SOL     OW   78   4.397   7.515   5.150
66080SOL    HW1   79   4.450   7.589   5.121
66080SOL    HW2   80   4.345   7.492   5.073
66081SOL     OW   81   1.764   8.345   9.520
66081SOL    HW1   82   1.673   8.363   9.495
66081SOL    HW2   83   1.796   8.283   9.455
66082SOL     OW   84  11.200  10.926   9.527
66082SOL    HW1   85  11.211  10.832   9.515
66082SOL    HW2   86  11.283  10.956   9.564
66083SOL     OW   87   3.452   9.570   3.842
66083SOL    HW1   88   3.492   9.566   3.755
66083SOL    HW2   89   3.403   9.488   3.849
66084SOL     OW   90   9.073  11.281   2.573
66084SOL    HW1   91   9.092  11.361   2.523
66084SOL    HW2   92   8.978  11.275   2.575
66085SOL     OW   93   0.820   4.982   8.251
66085SOL    HW1   94   0.760   4.949   8.318
66085SOL    HW2   95   0.887   4.915   8.243
66086SOL     OW   96   8.801  12.558  12.109
66086SOL    HW1   97   8.709  12.584  12.116
66086SOL    HW2   98   8.830  12.546  12.200
66087SOL     OW   99   0.299  11.050   8.762
66087SOL    HW1  100   0.255  10.991   8.701
66087SOL    HW2  101   0.366  10.995   8.804
66088SOL     OW  102  14.849   7.486   2.098
66088SOL    HW1  103  14.803   7.424   2.042
66088SOL    HW2  104   0.003   7.433   2.170
66089SOL     OW  105   8.415   8.792  13.754
66089SOL    HW1  106   8.468   8.739  13.814
66089SOL    HW2  107   8.478   8.834  13.696
66090SOL     OW  108  10.050   6.063   2.223
66090SOL    HW1  109   9.965   6.093   2.255
66090SOL    HW2  110  10.048   5.968   2.236
66091SOL     OW  111   6.005   4.841   3.315
66091SOL    HW1  112   6.053   4.809   3.391
66091SOL    HW2  113   5.923   4.875   3.351
66092SOL     OW  114   1.889   2.571   6.886
66092SOL    HW1  115   1.856   2.652   6.845
66092SOL    HW2  116   1.810   2.519   6.902
66093SOL     OW  117   8.632  13.130   6.210
66093SOL    HW1  118   8.687  13.169   6.142
66093SOL    HW2  119   8.551  13.181   6.208
66094SOL     OW  120  12.206   2.582   2.109
66094SOL    HW1  121  12.181   2.495   2.078
66094SOL    HW2  122  12.263   2.616   2.040
66095SOL     OW  123   4.485   8.889  10.346
66095SOL    HW1  124   4.468   8.842  10.427
66095SOL    HW2  125   4.474   8.981  10.369
66096SOL     OW  126   3.835   8.998   6.383
66096SOL    HW1  127   3.770   9.043   6.437
66096SOL    HW2  128   3.801   9.006   6.294
66097SOL     OW  129   9.875   8.530   9.183
66097SOL    HW1  130   9.795   8.538   9.131
66097SOL    HW2  131   9.937   8.486   9.124
66098SOL     OW  132  13.623  12.474   1.418
66098SOL    HW1  133  13.713  12.441   1.424
66098SOL    HW2  134  13.603  12.471   1.324
66099SOL     OW  135  11.564  10.265  12.875
66099SOL    HW1  136  11.623  10.338  12.858
66099SOL    HW2  137  11.602  10.191  12.828
66100SOL     OW  138  10.959  12.251   5.954
66100SOL    HW1  139  10.960  12.155   5.949
66100SOL    HW2  140  10.885  12.277   5.899
66101SOL     OW  141  12.084   1.012   6.361
66101SOL    HW1  142  12.166   1.044   6.324
66101SOL    HW2  143  12.105   0.989   6.452
66102SOL     OW  144   5.398   4.944   6.389
66102SOL    HW1  145   5.384   4.923   6.481
66102SOL    HW2  146   5.487   4.915   6.371
66103SOL     OW  147   8.669   1.991  10.891
66103SOL    HW1  148   8.622   1.930  10.949
66103SOL    HW2  149   8.644   1.963  10.803
66104SOL     OW  150  12.295   1.768  13.933
66104SOL    HW1  151  12.239   1.702  13.891
66104SOL    HW2  152  12.377   1.764  13.884
66105SOL     OW  153   0.329   8.589  11.804
66105SOL    HW1  154   0.388   8.662  11.820
66105SOL    HW2  155   0.305   8.597  11.712
66106SOL     OW  156  12.297   1.972   6.657
66106SOL    HW1  157  12.371   1.971   6.718
66106SOL    HW2  158  12.224   2.004   6.710
66107SOL     OW  159  10.310   2.956  13.390
66107SOL    HW1  160  10.309   2.911  13.305
66107SOL    HW2  161  10.306   2.885  13.455
66108SOL     OW  162   7.883   9.957   6.124
66108SOL    HW1  163   7.849   9.950   6.213
66108SOL    HW2  164   7.978   9.965   6.134
66109SOL     OW  165   6.799   3.787  11.716
66109SOL    HW1  166   6.863   3.845  11.676
66109SOL    HW2  167   6.717   3.809  11.673
66110SOL     OW  168  11.415  12.972  10.101
66110SOL    HW1  169  11.506  12.955  10.127
66110SOL    HW2  170  11.421  13.043  10.038
66111SOL     OW  171   4.256   3.752   5.883
66111SOL    HW1  172   4.191   3.693   5.845
66111SOL    HW2  173   4.340   3.714   5.856
66112SOL     OW  174   0.491  12.055  14.218
66112SOL    HW1  175   0.546  12.006  14.279
66112SOL    HW2  176   0.480  12.141  14.259
66113SOL     OW  177  14.585   7.241   2.924
66113SOL    HW1  178  14.553   7.261   2.836
66113SOL    HW2  179  14.507   7.217   2.973
66114SOL     OW  180   7.238   0.043   8.251
66114SOL    HW1  181   7.333   0.041   8.239
66114SOL    HW2  182   7.221  14.860   8.320
66115SOL     OW  183   8.598   5.335  13.167
66115SOL    HW1  184   8.616   5.391  13.091
66115SOL    HW2  185   8.668   5.356  13.230
66116SOL     OW  186  12.017   2.237  11.037
66116SOL    HW1  187  11.967   2.254  10.957
66116SOL    HW2  188  12.009   2.143  11.051
66117SOL     OW  189  14.026  13.129   7.925
66117SOL    HW1  190  13.945  13.108   7.972
66117SOL    HW2  191  14.051  13.046   7.884
66118SOL     OW  192  13.719   5.942   8.295
66118SOL    HW1  193  13.714   5.883   8.220
66118SOL    HW2  194  13.761   5.889   8.364
66119SOL     OW  195   0.303   9.712   4.848
66119SOL    HW1  196   0.381   9.752   4.808
66119SOL    HW2  197   0.239   9.783   4.850
66120SOL     OW  198   2.354   7.104  11.852
66120SOL    HW1  199   2.434   7.057  11.831
66120SOL    HW2  200   2.362   7.188  11.805
66121SOL     OW  201  11.076   9.189  14.708
66121SOL    HW1  202  11.012   9.235  14.654
66121SOL    HW2  203  11.160   9.228  14.685
66122SOL     OW  204   1.279  12.985   6.891
66122SOL    HW1  205   1.239  12.941   6.816
66122SOL    HW2  206   1.223  13.061   6.907
66123SOL     OW  207   5.023   2.846  10.067
66123SOL    HW1  208   4.940   2.799  10.072
66123SOL    HW2  209   5.089   2.781  10.090
66124SOL     OW  210   5.034  14.560   2.257
66124SOL    HW1  211   5.091  14.522   2.190
66124SOL    HW2  212   4.954  14.583   2.211
66125SOL     OW  213  13.346   5.613   5.818
66125SOL    HW1  214  13.325   5.652   5.733
66125SOL    HW2  215  13.410   5.544   5.798
66126SOL     OW  216   6.190  10.216   3.411
66126SOL    HW1  217   6.175  10.126   3.440
66126SOL    HW2  218   6.283  10.220   3.388
66127SOL     OW  219   9.047   0.799   1.243
66127SOL    HW1  220   9.017   0.765   1.158
66127SOL    HW2  221   9.108   0.733   1.275
66128SOL     OW  222   8.797   4.224  12.506
66128SOL    HW1  223   8.882   4.222  12.550
66128SOL    HW2  224   8.816   4.197  12.416
66129SOL     OW  225   9.422  13.251   6.134
66129SOL    HW1  226   9.370  13.306   6.075
66129SOL    HW2  227   9.506  13.240   6.088
66130SOL     OW  228  13.186   9.854  11.360
66130SOL    HW1  229  13.230   9.857  11.445
66130SOL    HW2  230  13.181   9.761  11.339
66131SOL     OW  231  10.469   2.259   3.077
66131SOL    HW1  232  10.524   2.331   3.046
66131SOL    HW2  233  10.380   2.293   3.068
66132SOL     OW  234   3.504   1.408   7.091
66132SOL    HW1  235   3.478   1.467   7.162
66132SOL    HW2  236   3.581   1.449   7.052
66133SOL     OW  237   2.576  10.080   1.474
66133SOL    HW1  238   2.512  10.070   1.544
66133SOL    HW2  239   2.554  10.011   1.412
66134SOL     OW  240   3.451   6.647   9.887
66134SOL    HW1  241   3.413   6.570   9.844
66134SOL    HW2  242   3.510   6.684   9.822
66135SOL     OW  243   1.217   1.251   8.689
66135SOL    HW1  244   1.189   1.187   8.624
66135SOL    HW2  245   1.268   1.315   8.640
66136SOL     OW  246   5.854   3.430   1.533
66136SOL    HW1  247   5.913   3.432   1.608
66136SOL    HW2  248   5.818   3.341   1.534
66137SOL     OW  249  14.553  13.817  11.857
66137SOL    HW1  250  14.648  13.808  11.858
66137SOL    HW2  251  14.534  13.878  11.928
66138SOL     OW  252  10.536  14.180   4.250
66138SOL    HW1  253  10.525  14.102   4.196
66138SOL    HW2  254  10.601  14.154   4.316
66139SOL     OW  255  14.094  12.807   6.111
66139SOL    HW1  256  14.148  12.826   6.034
66139SOL    HW2  257  14.062  12.719   6.096
66140SOL     OW  258   8.167   9.950   4.531
66140SOL    HW1  259   8.137   9.946   4.621
66140SOL    HW2  260   8.092   9.984   4.482
66141SOL     OW  261  10.387   6.575  14.068
66141SOL    HW1  262  10.472   6.543  14.098
66141SOL    HW2  263  10.332   6.497  14.063
66142SOL     OW  264   2.495   6.505  14.556
66142SOL    HW1  265   2.554   6.551  14.495
66142SOL    HW2  266   2.548   6.433  14.590
66143SOL     OW  267   6.271  14.476   3.293
66143SOL    HW1  268   6.311  14.525   3.365
66143SOL    HW2  269   6.277  14.535   3.218
66144SOL     OW  270   3.510  11.251  11.153
66144SOL    HW1  271   3.534  11.340  11.179
66144SOL    HW2  272   3.472  11.260  11.066
66145SOL     OW  273  11.842   2.073  10.887
66145SOL    HW1  274  11.788   2.088  10.965
66145SOL    HW2  275  11.781   2.034  10.824
66146SOL     OW  276   8.771   5.916   7.391
66146SOL    HW1  277   8.697   5.951   7.341
66146SOL    HW2  278   8.840   5.904   7.326
66147SOL     OW  279   3.004   4.774  11.352
66147SOL    HW1  280   3.003   4.806  11.443
66147SOL    HW2  281   3.020   4.852  11.300
66148SOL     OW  282   2.593   0.449   4.244
66148SOL    HW1  283   2.653   0.394   4.193
66148SOL    HW2  284   2.647   0.520   4.277
66149SOL     OW  285   9.760  13.869   6.864
66149SOL    HW1  286   9.745  13.915   6.781
66149SOL    HW2  287   9.842  13.905   6.896
66150SOL     OW  288  14.633  13.402  13.298
66150SOL    HW1  289  14.586  13.379  13.379
66150SOL    HW2  290  14.657  13.317  13.260
66151SOL     OW  291   8.383  10.399   0.697
66151SOL    HW1  292   8.450  10.342   0.734
66151SOL    HW2  293   8.307  10.342   0.684
66152SOL     OW  294   1.065   5.795  11.660
66152SOL    HW1  295   1.074   5.739  11.583
66152SOL    HW2  296   0.990   5.851  11.640
66153SOL     OW  297   4.376  14.613   2.568
66153SOL    HW1  298   4.361  14.705   2.548
66153SOL    HW2  299   4.412  14.613   2.657
66154SOL     OW  300   7.140  12.487   1.540
66154SOL    HW1  301   7.176  12.417   1.595
66154SOL    HW2  302   7.089  12.442   1.473
66155SOL     OW  303  10.120  11.982   8.087
66155SOL    HW1  304  10.147  12.074   8.082
66155SOL    HW2  305  10.091  11.960   7.998
66156SOL     OW  306   8.954   3.184   1.515
66156SOL    HW1  307   8.927   3.102   1.475
66156SOL    HW2  308   8.881   3.207   1.573
66157SOL     OW  309   7.398   6.761  12.860
66157SOL    HW1  310   7.339   6.693  12.827
66157SOL    HW2  311   7.346   6.842  12.856
66158SOL     OW  312  10.948   2.462   8.971
66158SOL    HW1  313  10.962   2.556   8.965
66158SOL    HW2  314  11.036   2.425   8.984
66159SOL     OW  315   1.949   8.420  11.713
66159SOL    HW1  316   1.864   8.384  11.687
66159SOL    HW2  317   1.962   8.495  11.655
66160SOL     OW  318   6.867   6.578   1.022
66160SOL    HW1  319   6.794   6.537   0.975
66160SOL    HW2  320   6.899   6.646   0.962
66161SOL     OW  321   5.347   1.547  13.767
66161SOL    HW1  322   5.437   1.537  13.738
66161SOL    HW2  323   5.339   1.640  13.788
66162SOL     OW  324   2.329  14.274  13.749
66162SOL    HW1  325   2.242  14.298  13.716
66162SOL    HW2  326   2.386  14.344  13.717
66163SOL     OW  327  12.952  13.157   2.444
66163SOL    HW1  328  12.963  13.195   2.357
66163SOL    HW2  329  13.038  13.167   2.485
66164SOL     OW  330   2.414   1.994   5.833
66164SOL    HW1  331   2.352   2.058   5.867
66164SOL    HW2  332   2.453   1.954   5.911
66165SOL     OW  333   1.038   6.315  14.771
66165SOL    HW1  334   1.047   6.357  14.857
66165SOL    HW2  335   0.945   6.296  14.764
66166SOL     OW  336   2.432  14.636  12.667
66166SOL    HW1  337   2.483  14.713  12.641
66166SOL    HW2  338   2.413  14.650  12.760
66167SOL     OW  339  13.626   9.051   8.405
66167SOL    HW1  340  13.567   9.109   8.454
66167SOL    HW2  341  13.646   8.980   8.465
66168SOL     OW  342   2.301  11.047  12.633
66168SOL    HW1  343   2.244  11.054  12.557
66168SOL    HW2  344   2.386  11.022  12.598
66169SOL     OW  345  14.126   9.877   0.948
66169SOL    HW1  346  14.159   9.963   0.972
66169SOL    HW2  347  14.067   9.893   0.875
66170SOL     OW  348  12.440  11.556   5.983
66170SOL    HW1  349  12.408  11.644   6.002
66170SOL    HW2  350  12.462  11.558   5.890
66171SOL     OW  351   3.121   5.187   4.485
66171SOL    HW1  352   3.094   5.273   4.452
66171SOL    HW2  353   3.202   5.204   4.533
66172SOL     OW  354  14.187   2.190   1.280
66172SOL    HW1  355  14.165   2.181   1.372
66172SOL    HW2  356  14.104   2.214   1.237
66173SOL     OW  357  10.482   8.481  13.806
66173SOL    HW1  358  10.454   8.445  13.891
66173SOL    HW2  359  10.443   8.568  13.803
66174SOL     OW  360   2.901   1.128   4.678
66174SOL    HW1  361   2.837   1.063   4.648
66174SOL    HW2  362   2.923   1.178   4.600
66175SOL     OW  363  11.713  11.166   9.603
66175SOL    HW1  364  11.645  11.113   9.645
66175SOL    HW2  365  11.668  11.205   9.528
66176SOL     OW  366   1.087  11.326  12.706
66176SOL    HW1  367   1.130  11.403  12.671
66176SOL    HW2  368   1.106  11.329  12.800
66177SOL     OW  369   7.906   4.871   2.459
66177SOL    HW1  370   7.939   4.896   2.373
66177SOL    HW2  371   7.812   4.886   2.455
66178SOL     OW  372   9.460   8.265   8.896
66178SOL    HW1  373   9.411   8.346   8.912
66178SOL    HW2  374   9.543   8.295   8.859
66179SOL     OW  375   3.746  10.122  10.495
66179SOL    HW1  376   3.741  10.138  10.401
66179SOL    HW2  377   3.840  10.113  10.512
66180SOL     OW  378   6.869  12.404   9.416
66180SOL    HW1  379   6.937  12.344   9.384
66180SOL    HW2  380   6.907  12.443   9.495
66181SOL     OW  381   0.505   9.878   8.799
66181SOL    HW1  382   0.539   9.797   8.760
66181SOL    HW2  383   0.487   9.855   8.890
66182SOL     OW  384  13.316  14.214  12.459
66182SOL    HW1  385  13.343  14.291  12.408
66182SOL    HW2  386  13.308  14.144  12.394
66183SOL     OW  387   9.123  10.654   1.043
66183SOL    HW1  388   9.209  10.680   1.013
66183SOL    HW2  389   9.126  10.665   1.138
66184SOL     OW  390  11.614   3.317   1.703
66184SOL    HW1  391  11.566   3.289   1.625
66184SOL    HW2  392  11.610   3.413   1.700
66185SOL     OW  393   7.766   1.768  10.262
66185SOL    HW1  394   7.779   1.801  10.351
66185SOL    HW2  395   7.756   1.847  10.209
66186SOL     OW  396   3.376  10.408   1.049
66186SOL    HW1  397   3.316  10.446   0.985
66186SOL    HW2  398   3.324  10.403   1.130
66187SOL     OW  399   8.782   8.792  10.115
66187SOL    HW1  400   8.699   8.779  10.068
66187SOL    HW2  401   8.848   8.794  10.046
66188SOL     OW  402   5.828   7.740   5.582
66188SOL    HW1  403   5.813   7.804   5.651
66188SOL    HW2  404   5.889   7.677   5.620
66189SOL     OW  405   8.227  10.840   6.106
66189SOL    HW1  406   8.237  10.931   6.079
66189SOL    HW2  407   8.207  10.845   6.199
66190SOL     OW  408  10.950   8.860  14.269
66190SOL    HW1  409  10.955   8.811  14.187
66190SOL    HW2  410  11.041   8.884  14.288
66191SOL     OW  411  12.992  11.835   9.977
66191SOL    HW1  412  13.005  11.926  10.005
66191SOL    HW2  413  12.999  11.838   9.881
66192SOL     OW  414   9.368  11.219   7.079
66192SOL    HW1  415   9.361  11.142   7.136
66192SOL    HW2  416   9.289  11.215   7.024
66193SOL     OW  417  13.974   2.776  14.072
66193SOL    HW1  418  13.977   2.688  14.035
66193SOL    HW2  419  14.054   2.782  14.124
66194SOL     OW  420  10.411   5.899   5.475
66194SOL    HW1  421  10.317   5.901   5.454
66194SOL    HW2  422  10.429   5.807   5.493
66195SOL     OW  423   4.470   9.401   5.727
66195SOL    HW1  424   4.533   9.401   5.798
66195SOL    HW2  425   4.408   9.470   5.749
66196SOL     OW  426   5.408  14.401  14.300
66196SOL    HW1  427   5.408  14.473  14.362
66196SOL    HW2  428   5.488  14.414  14.249
66197SOL     OW  429  13.507   3.050  14.728
66197SOL    HW1  430  13.499   2.960  14.760
66197SOL    HW2  431  13.598   3.057  14.699
66198SOL     OW  432  13.203   0.417   5.750
66198SOL    HW1  433  13.116   0.436   5.715
66198SOL    HW2  434  13.247   0.502   5.754
66199SOL     OW  435   4.464   5.048   1.737
66199SOL    HW1  436   4.399   5.051   1.807
66199SOL    HW2  437   4.457   4.959   1.702
66200SOL     OW  438   2.143  14.692   0.043
66200SOL    HW1  439   2.165  14.639  14.846
66200SOL    HW2  440   2.061  14.654   0.075
66201SOL     OW  441   1.554   1.217   2.698
66201SOL    HW1  442   1.495   1.150   2.664
66201SOL    HW2  443   1.641   1.176   2.694
66202SOL     OW  444   2.228   6.947   8.458
66202SOL    HW1  445   2.141   6.917   8.432
66202SOL    HW2  446   2.287   6.878   8.428
66203SOL     OW  447   5.562   5.739  11.123
66203SOL    HW1  448   5.578   5.832  11.139
66203SOL    HW2  449   5.648   5.704  11.098
66204SOL     OW  450  12.015   5.110  12.632
66204SOL    HW1  451  11.949   5.061  12.681
66204SOL    HW2  452  12.031   5.057  12.553
66205SOL     OW  453   8.714   2.475   0.472
66205SOL    HW1  454   8.752   2.411   0.532
66205SOL    HW2  455   8.717   2.433   0.387
66206SOL     OW  456   2.410  12.049   5.398
66206SOL    HW1  457   2.463  12.057   5.477
66206SOL    HW2  458   2.447  11.973   5.353
66207SOL     OW  459   1.847   6.326   9.503
66207SOL    HW1  460   1.913   6.333   9.572
66207SOL    HW2  461   1.779   6.388   9.528
66208SOL     OW  462   4.041   3.313  14.540
66208SOL    HW1  463   3.951   3.341  14.555
66208SOL    HW2  464   4.062   3.346  14.453
66209SOL     OW  465   5.535   3.248   6.033
66209SOL    HW1  466   5.494   3.161   6.038
66209SOL    HW2  467   5.477   3.304   6.085
66210SOL     OW  468   3.256   8.729   5.735
66210SOL    HW1  469   3.239   8.779   5.815
66210SOL    HW2  470   3.350   8.709   5.738
66211SOL     OW  471   2.038   2.267   0.917
66211SOL    HW1  472   2.085   2.215   0.852
66211SOL    HW2  473   2.103   2.329   0.951
66212SOL     OW  474  11.406   2.457  13.999
66212SOL    HW1  475  11.419   2.423  13.910
66212SOL    HW2  476  11.494   2.482  14.028
66213SOL     OW  477  11.841   7.083   2.220
66213SOL    HW1  478  11.782   7.043   2.282
66213SOL    HW2  479  11.874   7.161   2.265
66214SOL     OW  480  14.129   9.515   5.975
66214SOL    HW1  481  14.119   9.605   5.943
66214SOL    HW2  482  14.055   9.468   5.937
66215SOL     OW  483  10.518  11.758  14.608
66215SOL    HW1  484  10.612  11.745  14.621
66215SOL    HW2  485  10.509  11.851  14.586
66216SOL     OW  486   8.073   8.950   2.281
66216SOL    HW1  487   8.090   9.038   2.317
66216SOL    HW2  488   7.986   8.957   2.242
66217SOL     OW  489   1.916  11.359   4.106
66217SOL    HW1  490   1.966  11.278   4.109
66217SOL    HW2  491   1.968  11.422   4.156
66218SOL     OW  492   3.955   7.130  11.231
66218SOL    HW1  493   3.905   7.211  11.232
66218SOL    HW2  494   3.896   7.064  11.267
66219SOL     OW  495  12.363   3.740  12.174
66219SOL    HW1  496  12.364   3.741  12.078
66219SOL    HW2  497  12.395   3.827  12.199
66220SOL     OW  498   8.273   9.773  12.315
66220SOL    HW1  499   8.325   9.747  12.240
66220SOL    HW2  500   8.316   9.851  12.349
66221SOL     OW  501  13.620   2.452  12.651
66221SOL    HW1  502  13.576   2.461  12.567
66221SOL    HW2  503  13.713   2.459  12.629
66222SOL     OW  504  14.419  10.520   5.328
66222SOL    HW1  505  14.350  10.455   5.315
66222SOL    HW2  506  14.440  10.552   5.241
66223SOL     OW  507   8.673   7.792   7.546
66223SOL    HW1  508   8.702   7.819   7.633
66223SOL    HW2  509   8.577   7.793   7.551
66224SOL     OW  510   2.049   3.840   0.330
66224SOL    HW1  511   2.023   3.853   0.239
66224SOL    HW2  512   2.141   3.866   0.333
66225SOL     OW  513   3.464   7.889   9.296
66225SOL    HW1  514   3.419   7.970   9.272
66225SOL    HW2  515   3.395   7.834   9.333
66226SOL     OW  516  10.066   5.234   7.645
66226SOL    HW1  517  10.000   5.290   7.603
66226SOL    HW2  518  10.134   5.295   7.673
66227SOL     OW  519   5.025   8.978  11.113
66227SOL    HW1  520   5.047   8.998  11.204
66227SOL    HW2  521   5.074   9.043  11.062
66228SOL     OW  522  13.625   9.356   0.460
66228SOL    HW1  523  13.628   9.270   0.501
66228SOL    HW2  524  13.717   9.379   0.445
66229SOL     OW  525  11.968   6.373   6.676
66229SOL    HW1  526  11.974   6.317   6.753
66229SOL    HW2  527  12.057   6.408   6.664
66230SOL     OW  528   6.129   7.503   5.080
66230SOL    HW1  529   6.043   7.466   5.100
66230SOL    HW2  530   6.185   7.474   5.152
66231SOL     OW  531   7.257  12.806   3.782
66231SOL    HW1  532   7.335  12.862   3.773
66231SOL    HW2  533   7.188  12.866   3.809
66232SOL     OW  534  14.407   2.073   4.522
66232SOL    HW1  535  14.363   2.126   4.588
66232SOL    HW2  536  14.405   2.125   4.443
66233SOL     OW  537   9.672  11.018   1.954
66233SOL    HW1  538   9.693  11.111   1.957
66233SOL    HW2  539   9.656  11.000   1.861
66234SOL     OW  540  14.613   3.298   1.241
66234SOL    HW1  541  14.598   3.362   1.171
66234SOL    HW2  542  14.673   3.234   1.203
66235SOL     OW  543  13.825   0.753   2.825
66235SOL    HW1  544  13.753   0.753   2.762
66235SOL    HW2  545  13.792   0.704   2.899
66236SOL     OW  546  11.267  11.551   4.220
66236SOL    HW1  547  11.203  11.587   4.159
66236SOL    HW2  548  11.241  11.587   4.305
66237SOL     OW  549   3.649   5.653   1.885
66237SOL    HW1  550   3.734   5.650   1.928
66237SOL    HW2  551   3.586   5.659   1.956
66238SOL     OW  552   9.530   7.637   8.558
66238SOL    HW1  553   9.438   7.661   8.567
66238SOL    HW2  554   9.531   7.542   8.565
66239SOL     OW  555  12.181  10.492   5.351
66239SOL    HW1  556  12.155  10.440   5.427
66239SOL    HW2  557  12.203  10.428   5.284
66240SOL     OW  558   5.972   2.431  14.638
66240SOL    HW1  559   6.041   2.481  14.681
66240SOL    HW2  560   5.930   2.382  14.709
66241SOL     OW  561  11.588   9.694  10.361
66241SOL    HW1  562  11.641   9.618  10.386
66241SOL    HW2  563  11.561   9.733  10.444
66242SOL     OW  564   0.008  10.167   3.367
66242SOL    HW1  565  14.826  10.116   3.315
66242SOL    HW2  566  14.858  10.157   3.457
66243SOL     OW  567  14.196   3.665  14.258
66243SOL    HW1  568  14.217   3.582  14.213
66243SOL    HW2  569  14.279   3.691  14.298
66244SOL     OW  570   1.802   3.372   1.840
66244SOL    HW1  571   1.859   3.448   1.847
66244SOL    HW2  572   1.855   3.299   1.873
66245SOL     OW  573   5.555   7.747  14.213
66245SOL    HW1  574   5.647   7.753  14.186
66245SOL    HW2  575   5.508   7.724  14.133
66246SOL     OW  576   4.638   1.607  11.729
66246SOL    HW1  577   4.609   1.538  11.789
66246SOL    HW2  578   4.718   1.571  11.689
66247SOL     OW  579  11.876  11.907  12.015
66247SOL    HW1  580  11.897  11.814  12.002
66247SOL    HW2  581  11.784  11.914  11.989
66248SOL     OW  582   6.144   5.640   1.221
66248SOL    HW1  583   6.071   5.595   1.178
66248SOL    HW2  584   6.140   5.730   1.188
66249SOL     OW  585   8.780  13.081  11.010
66249SOL    HW1  586   8.873  13.058  11.003
66249SOL    HW2  587   8.777  13.153  11.073
66250SOL     OW  588   6.016  12.957   2.276
66250SOL    HW1  589   6.076  12.929   2.206
66250SOL    HW2  590   6.057  12.926   2.356
66251SOL     OW  591  14.550  11.456  10.513
66251SOL    HW1  592  14.522  11.368  10.539
66251SOL    HW2  593  14.496  11.515  10.566
66252SOL     OW  594   7.077  14.606   9.231
66252SOL    HW1  595   7.133  14.683   9.231
66252SOL    HW2  596   7.005  14.629   9.172
66253SOL     OW  597   2.282  14.746   4.928
66253SOL    HW1  598   2.277  14.817   4.864
66253SOL    HW2  599   2.339  14.780   4.997
66254SOL     OW  600   4.549  11.362  14.118
66254SOL    HW1  601   4.538  11.371  14.023
66254SOL    HW2  602   4.633  11.403  14.136
66255SOL     OW  603  13.374   7.470  13.813
66255SOL    HW1  604  13.439   7.437  13.752
66255SOL    HW2  605  13.357   7.396  13.872
66256SOL     OW  606   2.425   7.565   6.116
66256SOL    HW1  607   2.339   7.548   6.153
66256SOL    HW2  608   2.474   7.483   6.130
66257SOL     OW  609   0.542   1.413  10.243
66257SOL    HW1  610   0.606   1.465  10.292
66257SOL    HW2  611   0.549   1.325  10.281
66258SOL     OW  612  10.044   0.202   3.086
66258SOL    HW1  613  10.085   0.117   3.073
66258SOL    HW2  614   9.968   0.184   3.141
66259SOL     OW  615  11.768   4.733  14.682
66259SOL    HW1  616  11.779   4.707  14.774
66259SOL    HW2  617  11.854   4.765  14.655
66260SOL     OW  618  13.302   1.274   1.420
66260SOL    HW1  619  13.298   1.212   1.492
66260SOL    HW2  620  13.234   1.245   1.359
66261SOL     OW  621   3.780  11.586   4.485
66261SOL    HW1  622   3.856  11.544   4.525
66261SOL    HW2  623   3.738  11.633   4.557
66262SOL     OW  624  13.832   3.742   3.362
66262SOL    HW1  625  13.818   3.802   3.288
66262SOL    HW2  626  13.807   3.793   3.439
66263SOL     OW  627  12.613   4.603  12.368
66263SOL    HW1  628  12.521   4.607  12.341
66263SOL    HW2  629  12.629   4.688  12.410
66264SOL     OW  630   2.799  12.781   2.408
66264SOL    HW1  631   2.881  12.829   2.395
66264SOL    HW2  632   2.730  12.845   2.392
66265SOL     OW  633  13.461   3.942   9.862
66265SOL    HW1  634  13.397   3.900   9.919
66265SOL    HW2  635  13.441   3.909   9.775
66266SOL     OW  636   8.378  14.388   1.641
66266SOL    HW1  637   8.382  14.483   1.653
66266SOL    HW2  638   8.386  14.376   1.546
66267SOL     OW  639   2.002   6.286   9.932
66267SOL    HW1  640   1.930   6.247   9.882
66267SOL    HW2  641   2.081   6.257   9.886
66268SOL     OW  642   0.299  11.901  13.078
66268SOL    HW1  643   0.250  11.871  13.154
66268SOL    HW2  644   0.293  11.997  13.081
66269SOL     OW  645   7.912   0.948   8.744
66269SOL    HW1  646   7.996   0.980   8.776
66269SOL    HW2  647   7.874   0.901   8.817
66270SOL     OW  648   8.196   7.895  13.707
66270SOL    HW1  649   8.254   7.880  13.782
66270SOL    HW2  650   8.217   7.824  13.647
66271SOL     OW  651   9.942   6.322   3.347
66271SOL    HW1  652   9.921   6.311   3.440
66271SOL    HW2  653  10.038   6.321   3.344
66272SOL     OW  654  13.822  10.387   7.254
66272SOL    HW1  655  13.760  10.314   7.260
66272SOL    HW2  656  13.773  10.458   7.213
66273SOL     OW  657   9.646  12.382   4.548
66273SOL    HW1  658   9.586  12.385   4.622
66273SOL    HW2  659   9.702  12.459   4.559
66274SOL     OW  660   8.073   4.272   3.992
66274SOL    HW1  661   8.019   4.281   4.070
66274SOL    HW2  662   8.143   4.212   4.017
66275SOL     OW  663   8.345   3.411   7.142
66275SOL    HW1  664   8.375   3.320   7.144
66275SOL    HW2  665   8.336   3.431   7.049
66276SOL     OW  666  12.784   3.297   3.534
66276SOL    HW1  667  12.793   3.203   3.520
66276SOL    HW2  668  12.745   3.330   3.453
66277SOL     OW  669   3.111   8.111   8.087
66277SOL    HW1  670   3.194   8.081   8.051
66277SOL    HW2  671   3.110   8.205   8.070
66278SOL     OW  672   6.423   2.240  14.779
66278SOL    HW1  673   6.446   2.330  14.755
66278SOL    HW2  674   6.366   2.210  14.708
66279SOL     OW  675   2.158   6.873   1.232
66279SOL    HW1  676   2.231   6.893   1.173
66279SOL    HW2  677   2.182   6.914   1.315
66280SOL     OW  678   1.315   1.111   1.547
66280SOL    HW1  679   1.355   1.156   1.473
66280SOL    HW2  680   1.225   1.092   1.519
66281SOL     OW  681   2.972  11.032  14.203
66281SOL    HW1  682   3.055  11.017  14.248
66281SOL    HW2  683   2.997  11.081  14.124
66282SOL     OW  684   6.231  11.288   7.401
66282SOL    HW1  685   6.242  11.313   7.492
66282SOL    HW2  686   6.225  11.192   7.402
66283SOL     OW  687   9.156   3.335  10.528
66283SOL    HW1  688   9.174   3.393  10.454
66283SOL    HW2  689   9.222   3.359  10.593
66284SOL     OW  690  11.096   1.620   5.355
66284SOL    HW1  691  11.150   1.589   5.282
66284SOL    HW2  692  11.158   1.662   5.414
66285SOL     OW  693   3.193   4.405  14.130
66285SOL    HW1  694   3.211   4.416  14.037
66285SOL    HW2  695   3.277   4.419  14.173
66286SOL     OW  696  13.725  10.398   6.528
66286SOL    HW1  697  13.819  10.410   6.518
66286SOL    HW2  698  13.688  10.484   6.508
66287SOL     OW  699   4.867   7.113   3.187
66287SOL    HW1  700   4.913   7.130   3.105
66287SOL    HW2  701   4.775   7.102   3.162
66288SOL     OW  702   9.251   1.607   2.694
66288SOL    HW1  703   9.274   1.624   2.786
66288SOL    HW2  704   9.246   1.693   2.654
66289SOL     OW  705  10.730   3.735   1.977
66289SOL    HW1  706  10.703   3.807   1.920
66289SOL    HW2  707  10.649   3.688   1.997
66290SOL     OW  708   7.001   1.752  11.790
66290SOL    HW1  709   6.913   1.769  11.823
66290SOL    HW2  710   7.005   1.657  11.778
66291SOL     OW  711  11.531   2.790  11.517
66291SOL    HW1  712  11.527   2.699  11.545
66291SOL    HW2  713  11.450   2.804  11.469
66292SOL     OW  714   5.178  10.224   0.461
66292SOL    HW1  715   5.143  10.218   0.550
66292SOL    HW2  716   5.105  10.258   0.410
66293SOL     OW  717   1.790   1.597   1.322
66293SOL    HW1  718   1.703   1.578   1.287
66293SOL    HW2  719   1.832   1.648   1.254
66294SOL     OW  720   9.210  10.772   9.752
66294SOL    HW1  721   9.140  10.837   9.750
66294SOL    HW2  722   9.271  10.801   9.685
66295SOL     OW  723  10.769  11.035  11.047
66295SOL    HW1  724  10.769  11.070  11.136
66295SOL    HW2  725  10.781  10.941  11.058
66296SOL     OW  726  11.978   9.708   9.055
66296SOL    HW1  727  11.935   9.790   9.079
66296SOL    HW2  728  11.977   9.655   9.135
66297SOL     OW  729   7.021   9.967   3.375
66297SOL    HW1  730   6.944   9.991   3.323
66297SOL    HW2  731   7.094   9.972   3.312
66298SOL     OW  732  13.369   9.891  12.652
66298SOL    HW1  733  13.334   9.908  12.564
66298SOL    HW2  734  13.416   9.808  12.644
66299SOL     OW  735  11.385  12.509   1.455
66299SOL    HW1  736  11.379  12.420   1.419
66299SOL    HW2  737  11.399  12.496   1.549
66300SOL     OW  738  10.327   8.719   1.462
66300SOL    HW1  739  10.279   8.748   1.384
66300SOL    HW2  740  10.414   8.759   1.453
66301SOL     OW  741   8.678   9.888   5.539
66301SOL    HW1  742   8.666   9.793   5.546
66301SOL    HW2  743   8.759   9.906   5.587
66302SOL     OW  744   2.682  13.298   5.404
66302SOL    HW1  745   2.688  13.216   5.356
66302SOL    HW2  746   2.762  13.345   5.382
66303SOL     OW  747   2.813   0.098   0.863
66303SOL    HW1  748   2.801   0.030   0.796
66303SOL    HW2  749   2.897   0.077   0.903
66304SOL     OW  750   0.359   1.491  14.426
66304SOL    HW1  751   0.426   1.454  14.483
66304SOL    HW2  752   0.283   1.501  14.482
66305SOL     OW  753   1.525   8.344   4.616
66305SOL    HW1  754   1.465   8.326   4.688
66305SOL    HW2  755   1.477   8.316   4.538
66306SOL     OW  756  10.629   7.681   7.750
66306SOL    HW1  757  10.644   7.774   7.768
66306SOL    HW2  758  10.665   7.667   7.663
66307SOL     OW  759  14.548   0.729  14.715
66307SOL    HW1  760  14.496   0.753  14.639
66307SOL    HW2  761  14.639   0.732  14.684
66308SOL     OW  762   6.882   8.253  13.558
66308SOL    HW1  763   6.922   8.272  13.642
66308SOL    HW2  764   6.823   8.327  13.541
66309SOL     OW  765   8.156   9.469   2.258
66309SOL    HW1  766   8.192   9.381   2.244
66309SOL    HW2  767   8.200   9.501   2.337
66310SOL     OW  768  10.746   3.458   3.829
66310SOL    HW1  769  10.744   3.534   3.771
66310SOL    HW2  770  10.819   3.475   3.888
66311SOL     OW  771   7.181   8.860   3.838
66311SOL    HW1  772   7.176   8.940   3.890
66311SOL    HW2  773   7.247   8.807   3.882
66312SOL     OW  774   5.514  10.914   2.213
66312SOL    HW1  775   5.427  10.954   2.209
66312SOL    HW2  776   5.500  10.823   2.184
66313SOL     OW  777   6.776  14.656   9.785
66313SOL    HW1  778   6.754  14.627   9.697
66313SOL    HW2  779   6.694  14.646   9.834
66314SOL     OW  780  13.320   8.820   8.763
66314SOL    HW1  781  13.365   8.751   8.715
66314SOL    HW2  782  13.372   8.833   8.842
66315SOL     OW  783   0.965   2.616   6.921
66315SOL    HW1  784   1.016   2.691   6.952
66315SOL    HW2  785   0.916   2.649   6.846
66316SOL     OW  786   7.486   6.738  14.202
66316SOL    HW1  787   7.494   6.734  14.107
66316SOL    HW2  788   7.480   6.647  14.230
66317SOL     OW  789   8.401   2.018   3.395
66317SOL    HW1  790   8.417   1.991   3.305
66317SOL    HW2  791   8.429   1.943   3.448
66318SOL     OW  792  13.396   0.422   6.725
66318SOL    HW1  793  13.367   0.362   6.656
66318SOL    HW2  794  13.492   0.418   6.722
66319SOL     OW  795   3.956   5.879   2.844
66319SOL    HW1  796   3.952   5.897   2.938
66319SOL    HW2  797   3.892   5.809   2.831
66320SOL     OW  798   4.655  12.539  12.783
66320SOL    HW1  799   4.653  12.615  12.724
66320SOL    HW2  800   4.668  12.464  12.725
66321SOL     OW  801  10.350   7.927   8.165
66321SOL    HW1  802  10.276   7.986   8.176
66321SOL    HW2  803  10.311   7.840   8.157
66322SOL     OW  804  13.642   1.474   6.448
66322SOL    HW1  805  13.622   1.442   6.361
66322SOL    HW2  806  13.725   1.520   6.439
66323SOL     OW  807   2.341   9.254  11.713
66323SOL    HW1  808   2.268   9.228  11.657
66323SOL    HW2  809   2.373   9.173  11.752
66324SOL     OW  810   0.873  13.882  12.252
66324SOL    HW1  811   0.796  13.939  12.246
66324SOL    HW2  812   0.947  13.942  12.250
66325SOL     OW  813  11.353   0.281   6.530
66325SOL    HW1  814  11.416   0.228   6.482
66325SOL    HW2  815  11.367   0.370   6.497
66326SOL     OW  816   7.441   8.879   2.275
66326SOL    HW1  817   7.421   8.973   2.275
66326SOL    HW2  818   7.377   8.841   2.335
66327SOL     OW  819   3.522   8.232   7.123
66327SOL    HW1  820   3.612   8.200   7.124
66327SOL    HW2  821   3.490   8.215   7.212
66328SOL     OW  822   6.592  10.522  11.118
66328SOL    HW1  823   6.628  10.439  11.148
66328SOL    HW2  824   6.604  10.520  11.023
66329SOL     OW  825   5.649  11.277  13.058
66329SOL    HW1  826   5.702  11.277  13.138
66329SOL    HW2  827   5.622  11.186  13.047
66330SOL     OW  828   4.336   4.675   9.448
66330SOL    HW1  829   4.387   4.682   9.528
66330SOL    HW2  830   4.254   4.720   9.468
66331SOL     OW  831   6.453   5.770  11.647
66331SOL    HW1  832   6.430   5.678  11.633
66331SOL    HW2  833   6.464   5.777  11.741
66332SOL     OW  834  10.111   4.647   0.970
66332SOL    HW1  835  10.140   4.615   1.055
66332SOL    HW2  836  10.190   4.685   0.931
66333SOL     OW  837   8.806  10.411  10.191
66333SOL    HW1  838   8.805  10.406  10.287
66333SOL    HW2  839   8.897  10.433  10.170
66334SOL     OW  840   8.073   1.166  10.402
66334SOL    HW1  841   8.140   1.208  10.457
66334SOL    HW2  842   8.031   1.103  10.460
66335SOL     OW  843   8.456   7.317   2.876
66335SOL    HW1  844   8.421   7.230   2.891
66335SOL    HW2  845   8.505   7.338   2.956
66336SOL     OW  846  14.404  12.347  11.504
66336SOL    HW1  847  14.313  12.318  11.495
66336SOL    HW2  848  14.403  12.440  11.482
66337SOL     OW  849   4.331   0.757  12.532
66337SOL    HW1  850   4.392   0.737  12.462
66337SOL    HW2  851   4.306   0.849  12.517
66338SOL     OW  852  11.745   8.250   5.552
66338SOL    HW1  853  11.829   8.294   5.567
66338SOL    HW2  854  11.718   8.219   5.639
66339SOL     OW  855   8.260   0.799   8.632
66339SOL    HW1  856   8.302   0.753   8.705
66339SOL    HW2  857   8.175   0.825   8.666
66340SOL     OW  858  13.143   2.970  13.191
66340SOL    HW1  859  13.128   2.932  13.105
66340SOL    HW2  860  13.097   2.913  13.252
66341SOL     OW  861   9.009   6.499   1.017
66341SOL    HW1  862   9.089   6.551   1.022
66341SOL    HW2  863   9.016   6.451   0.934
66342SOL     OW  864  13.715   8.254  11.524
66342SOL    HW1  865  13.622   8.247  11.542
66342SOL    HW2  866  13.721   8.314  11.450
66343SOL     OW  867   1.140   1.756   1.881
66343SOL    HW1  868   1.171   1.827   1.937
66343SOL    HW2  869   1.215   1.696   1.875
66344SOL     OW  870  12.442  13.781   7.642
66344SOL    HW1  871  12.459  13.709   7.581
66344SOL    HW2  872  12.419  13.739   7.724
66345SOL     OW  873   0.758   8.100  13.099
66345SOL    HW1  874   0.749   8.190  13.129
66345SOL    HW2  875   0.803   8.054  13.170
66346SOL     OW  876   1.330   4.733   5.769
66346SOL    HW1  877   1.385   4.798   5.813
66346SOL    HW2  878   1.371   4.721   5.683
66347SOL     OW  879   1.184   8.054  12.531
66347SOL    HW1  880   1.179   8.138  12.576
66347SOL    HW2  881   1.239   8.000  12.587
66348SOL     OW  882   2.932   0.645  10.171
66348SOL    HW1  883   3.010   0.672  10.123
66348SOL    HW2  884   2.950   0.555  10.197
66349SOL     OW  885   7.404   3.011  10.110
66349SOL    HW1  886   7.402   2.920  10.080
66349SOL    HW2  887   7.442   3.059  10.035
66350SOL     OW  888  12.536  10.219   1.874
66350SOL    HW1  889  12.527  10.139   1.823
66350SOL    HW2  890  12.557  10.188   1.963
66351SOL     OW  891   9.008   6.181  12.425
66351SOL    HW1  892   9.022   6.089  12.449
66351SOL    HW2  893   9.029   6.184  12.331
66352SOL     OW  894   9.965   7.715   3.387
66352SOL    HW1  895   9.887   7.662   3.401
66352SOL    HW2  896  10.037   7.652   3.382
66353SOL     OW  897   7.196  14.377   2.763
66353SOL    HW1  898   7.134  14.414   2.700
66353SOL    HW2  899   7.276  14.363   2.713
66354SOL     OW  900   8.504  12.288   0.325
66354SOL    HW1  901   8.481  12.281   0.232
66354SOL    HW2  902   8.419  12.293   0.370
66355SOL     OW  903   6.508  13.220  11.676
66355SOL    HW1  904   6.598  13.202  11.647
66355SOL    HW2  905   6.476  13.135  11.708
66356SOL     OW  906   0.733   4.345   8.533
66356SOL    HW1  907   0.755   4.306   8.617
66356SOL    HW2  908   0.816   4.378   8.499
66357SOL     OW  909   8.208   6.554   3.962
66357SOL    HW1  910   8.298   6.569   3.993
66357SOL    HW2  911   8.152   6.598   4.026
66358SOL     OW  912   8.891   5.098   2.902
66358SOL    HW1  913   8.894   5.189   2.931
66358SOL    HW2  914   8.939   5.097   2.820
66359SOL     OW  915   6.679  13.075   7.313
66359SOL    HW1  916   6.587  13.096   7.302
66359SOL    HW2  917   6.684  13.030   7.397
66360SOL     OW  918   0.257   0.674  10.601
66360SOL    HW1  919   0.191   0.620  10.558
66360SOL    HW2  920   0.331   0.614  10.615
66361SOL     OW  921   1.536  13.706   5.856
66361SOL    HW1  922   1.616  13.696   5.803
66361SOL    HW2  923   1.465  13.692   5.793
66362SOL     OW  924   3.883   3.419   8.933
66362SOL    HW1  925   3.899   3.470   8.854
66362SOL    HW2  926   3.961   3.365   8.943
66363SOL     OW  927   3.222   5.843   6.416
66363SOL    HW1  928   3.239   5.930   6.380
66363SOL    HW2  929   3.269   5.784   6.358
66364SOL     OW  930   0.641   3.803  12.782
66364SOL    HW1  931   0.597   3.733  12.733
66364SOL    HW2  932   0.722   3.819  12.733
66365SOL     OW  933   3.944   0.435   0.188
66365SOL    HW1  934   3.971   0.348   0.219
66365SOL    HW2  935   3.969   0.495   0.258
66366SOL     OW  936   5.553   2.573   1.112
66366SOL    HW1  937   5.600   2.496   1.080
66366SOL    HW2  938   5.610   2.646   1.090
66367SOL     OW  939   2.468  11.852   9.230
66367SOL    HW1  940   2.552  11.845   9.275
66367SOL    HW2  941   2.473  11.937   9.184
66368SOL     OW  942  13.352   7.018  13.100
66368SOL    HW1  943  13.433   6.969  13.089
66368SOL    HW2  944  13.369   7.076  13.175
66369SOL     OW  945  10.894   0.569   1.916
66369SOL    HW1  946  10.837   0.534   1.848
66369SOL    HW2  947  10.846   0.554   1.998
66370SOL     OW  948   4.801  10.591   5.953
66370SOL    HW1  949   4.799  10.662   5.890
66370SOL    HW2  950   4.884  10.602   6.000
66371SOL     OW  951   6.575  13.306   1.512
66371SOL    HW1  952   6.517  13.320   1.437
66371SOL    HW2  953   6.521  13.259   1.576
66372SOL     OW  954   3.435   2.965   9.953
66372SOL    HW1  955   3.519   2.944   9.912
66372SOL    HW2  956   3.375   2.898   9.919
66373SOL     OW  957   6.797   4.026   8.842
66373SOL    HW1  958   6.780   3.941   8.881
66373SOL    HW2  959   6.884   4.051   8.875
66374SOL     OW  960   0.090   8.144  11.838
66374SOL    HW1  961   0.112   8.167  11.928
66374SOL    HW2  962   0.107   8.224  11.788
66375SOL     OW  963   2.993   1.895   6.512
66375SOL    HW1  964   3.025   1.977   6.550
66375SOL    HW2  965   3.028   1.894   6.423
66376SOL     OW  966  10.217  11.567  13.983
66376SOL    HW1  967  10.227  11.657  14.014
66376SOL    HW2  968  10.198  11.516  14.062
66377SOL     OW  969   0.644   9.106   9.029
66377SOL    HW1  970   0.730   9.093   8.989
66377SOL    HW2  971   0.664   9.123   9.122
66378SOL     OW  972   9.916  12.899  12.480
66378SOL    HW1  973   9.974  12.856  12.543
66378SOL    HW2  974   9.938  12.992  12.488
66379SOL     OW  975   6.662   6.922   5.704
66379SOL    HW1  976   6.661   6.871   5.785
66379SOL    HW2  977   6.725   6.992   5.721
66380SOL     OW  978   8.555  12.732   2.151
66380SOL    HW1  979   8.567  12.737   2.056
66380SOL    HW2  980   8.510  12.648   2.165
66381SOL     OW  981  10.467   8.776   4.009
66381SOL    HW1  982  10.506   8.722   3.941
66381SOL    HW2  983  10.486   8.730   4.091
66382SOL     OW  984   6.228   1.620  13.493
66382SOL    HW1  985   6.272   1.583  13.570
66382SOL    HW2  986   6.203   1.708  13.520
66383SOL     OW  987   9.589   9.426   1.269
66383SOL    HW1  988   9.670   9.393   1.231
66383SOL    HW2  989   9.615   9.462   1.354
66384SOL     OW  990   9.016   2.111   2.003
66384SOL    HW1  991   9.002   2.180   2.068
66384SOL    HW2  992   9.094   2.139   1.956
66385SOL     OW  993   5.915   9.327   2.960
66385SOL    HW1  994   5.825   9.358   2.962
66385SOL    HW2  995   5.920   9.265   3.033
66386SOL     OW  996  14.311   0.661   7.203
66386SOL    HW1  997  14.231   0.614   7.179
66386SOL    HW2  998  14.280   0.749   7.226
66387SOL     OW  999   2.708  14.757   9.135
66387SOL    HW1 1000   2.686  14.798   9.051
66387SOL    HW2 1001   2.654  14.805   9.198
66388SOL     OW 1002   7.550   4.412   6.261
66388SOL    HW1 1003   7.479   4.393   6.322
66388SOL    HW2 1004   7.530   4.360   6.183
66389SOL     OW 1005  12.619   9.261   2.499
66389SOL    HW1 1006  12.658   9.323   2.560
66389SOL    HW2 1007  12.548   9.219   2.549
66390SOL     OW 1008   6.084  12.869   7.231
66390SOL    HW1 1009   6.094  12.843   7.323
66390SOL    HW2 1010   6.031  12.799   7.192
66391SOL     OW 1011   7.138   3.636   2.894
66391SOL    HW1 1012   7.173   3.554   2.860
66391SOL    HW2 1013   7.213   3.678   2.937
66392SOL     OW 1014  11.280   7.447   2.619
66392SOL    HW1 1015  11.323   7.516   2.569
66392SOL    HW2 1016  11.187   7.470   2.617
66393SOL     OW 1017  10.993   6.602   6.205
66393SOL    HW1 1018  10.965   6.516   6.234
66393SOL    HW2 1019  11.073   6.620   6.256
66394SOL     OW 1020  11.601   9.315   7.434
66394SOL    HW1 1021  11.533   9.317   7.367
66394SOL    HW2 1022  11.564   9.366   7.507
66395SOL     OW 1023   5.748   6.998  12.812
66395SOL    HW1 1024   5.809   6.924  12.813
66395SOL    HW2 1025   5.805   7.075  12.808
66396SOL     OW 1026   0.577  13.476   5.887
66396SOL    HW1 1027   0.581  13.495   5.793
66396SOL    HW2 1028   0.504  13.530   5.918
66397SOL     OW 1029   9.649  13.725  10.187
66397SOL    HW1 1030   9.622  13.814  10.165
66397SOL    HW2 1031   9.592  13.669  10.134
66398SOL     OW 1032   4.100   1.511   9.029
66398SOL    HW1 1033   4.061   1.497   8.943
66398SOL    HW2 1034   4.034   1.561   9.078
66399SOL     OW 1035  14.061   2.253  10.855
66399SOL    HW1 1036  13.977   2.208  10.847
66399SOL    HW2 1037  14.038   2.345  10.869
66400SOL     OW 1038   6.637   0.094   6.989
66400SOL    HW1 1039   6.728   0.070   7.003
66400SOL    HW2 1040   6.594   0.012   6.962
66401SOL     OW 1041   0.806   1.538   0.035
66401SOL    HW1 1042   0.738   1.594   0.071
66401SOL    HW2 1043   0.851   1.592  14.850
66402SOL     OW 1044   7.966  12.168  12.094
66402SOL    HW1 1045   7.963  12.257  12.131
66402SOL    HW2 1046   8.059  12.146  12.092
66403SOL     OW 1047   9.112  14.473   9.258
66403SOL    HW1 1048   9.113  14.409   9.187
66403SOL    HW2 1049   9.097  14.557   9.214
66404SOL     OW 1050   8.574   7.420  11.448
66404SOL    HW1 1051   8.637   7.467  11.394
66404SOL    HW2 1052   8.531   7.488  11.500
66405SOL     OW 1053  13.427   3.284  11.972
66405SOL    HW1 1054  13.365   3.229  11.924
66405SOL    HW2 1055  13.462   3.227  12.040
66406SOL     OW 1056   5.825  10.134   0.577
66406SOL    HW1 1057   5.854  10.198   0.513
66406SOL    HW2 1058   5.730  10.132   0.568
66407SOL     OW 1059  12.727   4.291   7.193
66407SOL    HW1 1060  12.666   4.248   7.133
66407SOL    HW2 1061  12.756   4.221   7.252
66408SOL     OW 1062   1.972   2.134   5.553
66408SOL    HW1 1063   2.057   2.106   5.587
66408SOL    HW2 1064   1.940   2.059   5.504
66409SOL     OW 1065  11.765   5.649   1.348
66409SOL    HW1 1066  11.775   5.651   1.444
66409SOL    HW2 1067  11.729   5.563   1.329
66410SOL     OW 1068   3.364   2.888  12.558
66410SOL    HW1 1069   3.333   2.799  12.570
66410SOL    HW2 1070   3.429   2.900  12.627
66411SOL     OW 1071  10.712   8.896   3.589
66411SOL    HW1 1072  10.632   8.917   3.638
66411SOL    HW2 1073  10.783   8.929   3.644
66412SOL     OW 1074   5.420   4.499   2.524
66412SOL    HW1 1075   5.365   4.538   2.455
66412SOL    HW2 1076   5.371   4.515   2.605
66413SOL     OW 1077   7.812   7.390   8.888
66413SOL    HW1 1078   7.894   7.408   8.842
66413SOL    HW2 1079   7.788   7.301   8.860
66414SOL     OW 1080   5.826   8.364   8.132
66414SOL    HW1 1081   5.919   8.344   8.143
66414SOL    HW2 1082   5.818   8.456   8.157
66415SOL     OW 1083   8.818   6.142   0.899
66415SOL    HW1 1084   8.774   6.226   0.911
66415SOL    HW2 1085   8.897   6.162   0.848
66416SOL     OW 1086   6.256   0.170  14.086
66416SOL    HW1 1087   6.240   0.120  14.167
66416SOL    HW2 1088   6.338   0.135  14.053
66417SOL     OW 1089  14.494   0.633  14.276
66417SOL    HW1 1090  14.580   0.653  14.239
66417SOL    HW2 1091  14.512   0.575  14.350
66418SOL     OW 1092   4.297  12.789  11.737
66418SOL    HW1 1093   4.293  12.836  11.654
66418SOL    HW2 1094   4.272  12.853  11.803
66419SOL     OW 1095   0.240   8.626   6.301
66419SOL    HW1 1096   0.314   8.599   6.355
66419SOL    HW2 1097   0.257   8.586   6.215
66420SOL     OW 1098  14.870   1.700   5.752
66420SOL    HW1 1099  14.842   1.625   5.806
66420SOL    HW2 1100   0.085   1.695   5.752
66421SOL     OW 1101   0.146   4.135  13.445
66421SOL    HW1 1102   0.196   4.089  13.512
66421SOL    HW2 1103   0.063   4.157  13.488
66422SOL     OW 1104   2.155   0.033   8.243
66422SOL    HW1 1105   2.182  14.840   8.187
66422SOL    HW2 1106   2.220   0.034   8.313
66423SOL     OW 1107   7.334   7.765   5.374
66423SOL    HW1 1108   7.400   7.704   5.340
66423SOL    HW2 1109   7.330   7.746   5.467
66424SOL     OW 1110  13.073  14.161  12.552
66424SOL    HW1 1111  13.023  14.210  12.487
66424SOL    HW2 1112  13.165  14.179  12.530
66425SOL     OW 1113   5.108   8.044  12.801
66425SOL    HW1 1114   5.126   8.095  12.723
66425SOL    HW2 1115   5.131   8.102  12.874
66426SOL     OW 1116  10.333  10.324   8.181
66426SOL    HW1 1117  10.278  10.251   8.152
66426SOL    HW2 1118  10.272  10.389   8.215
66427SOL     OW 1119   9.690   6.025  12.684
66427SOL    HW1 1120   9.665   6.044  12.775
66427SOL    HW2 1121   9.608   6.006  12.640
66428SOL     OW 1122  14.255   8.045   8.098
66428SOL    HW1 1123  14.273   8.124   8.047
66428SOL    HW2 1124  14.160   8.046   8.111
66429SOL     OW 1125   1.520   0.119   6.589
66429SOL    HW1 1126   1.460   0.128   6.663
66429SOL    HW2 1127   1.470   0.150   6.513
66430SOL     OW 1128   4.892   4.155  14.107
66430SOL    HW1 1129   4.954   4.152  14.179
66430SOL    HW2 1130   4.852   4.067  14.105
66431SOL     OW 1131   1.742   4.532   2.565
66431SOL    HW1 1132   1.672   4.508   2.505
66431SOL    HW2 1133   1.790   4.450   2.581
66432SOL     OW 1134   4.203  12.302  10.504
66432SOL    HW1 1135   4.130  12.242  10.487
66432SOL    HW2 1136   4.191  12.372  10.440
66433SOL     OW 1137   2.137   7.425   4.161
66433SOL    HW1 1138   2.129   7.516   4.134
66433SOL    HW2 1139   2.219   7.421   4.209
66434SOL     OW 1140   7.022   5.795   4.250
66434SOL    HW1 1141   7.093   5.858   4.234
66434SOL    HW2 1142   7.057   5.738   4.319
66435SOL     OW 1143   6.490   8.840   0.435
66435SOL    HW1 1144   6.514   8.925   0.471
66435SOL    HW2 1145   6.403   8.853   0.398
66436SOL     OW 1146   5.120   5.370   3.008
66436SOL    HW1 1147   5.184   5.306   2.977
66436SOL    HW2 1148   5.063   5.320   3.067
66437SOL     OW 1149   3.231   7.700   8.934
66437SOL    HW1 1150   3.182   7.780   8.949
66437SOL    HW2 1151   3.228   7.687   8.839
66438SOL     OW 1152   7.110  10.120   5.167
66438SOL    HW1 1153   7.095  10.213   5.181
66438SOL    HW2 1154   7.048  10.076   5.226
66439SOL     OW 1155   1.989   4.792   3.381
66439SOL    HW1 1156   1.920   4.767   3.443
66439SOL    HW2 1157   2.040   4.713   3.370
66440SOL     OW 1158  10.346   1.474  10.212
66440SOL    HW1 1159  10.422   1.482  10.269
66440SOL    HW2 1160  10.383   1.461  10.125
66441SOL     OW 1161  11.408   2.184  13.049
66441SOL    HW1 1162  11.460   2.232  13.113
66441SOL    HW2 1163  11.472   2.143  12.991
66442SOL     OW 1164   3.547   2.263   4.923
66442SOL    HW1 1165   3.624   2.312   4.894
66442SOL    HW2 1166   3.520   2.306   5.005
66443SOL     OW 1167   7.878   6.049   2.297
66443SOL    HW1 1168   7.907   5.962   2.271
66443SOL    HW2 1169   7.958   6.102   2.297
66444SOL     OW 1170   6.185   4.531   9.096
66444SOL    HW1 1171   6.216   4.446   9.064
66444SOL    HW2 1172   6.253   4.561   9.155
66445SOL     OW 1173   3.762   0.036   3.698
66445SOL    HW1 1174   3.799  14.866   3.626
66445SOL    HW2 1175   3.826   0.105   3.716
66446SOL     OW 1176   8.889   3.101  13.825
66446SOL    HW1 1177   8.851   3.176  13.779
66446SOL    HW2 1178   8.883   3.029  13.763
66447SOL     OW 1179   0.322   0.699   0.121
66447SOL    HW1 1180   0.229   0.684   0.108
66447SOL    HW2 1181   0.361   0.612   0.119
66448SOL     OW 1182  13.025   1.323   1.805
66448SOL    HW1 1183  13.020   1.280   1.719
66448SOL    HW2 1184  13.115   1.309   1.833
66449SOL     OW 1185   6.643   6.273   6.929
66449SOL    HW1 1186   6.579   6.278   7.000
66449SOL    HW2 1187   6.591   6.289   6.850
66450SOL     OW 1188   4.996  12.554   4.259
66450SOL    HW1 1189   4.912  12.509   4.256
66450SOL    HW2 1190   4.985  12.623   4.325
66451SOL     OW 1191  10.161   8.316  11.485
66451SOL    HW1 1192  10.180   8.293  11.575
66451SOL    HW2 1193  10.248   8.329  11.445
66452SOL     OW 1194   1.056   1.951   9.175
66452SOL    HW1 1195   1.064   1.977   9.083
66452SOL    HW2 1196   0.963   1.933   9.187
66453SOL     OW 1197  13.306   1.107   9.300
66453SOL    HW1 1198  13.322   1.017   9.327
66453SOL    HW2 1199  13.357   1.160   9.361
66454SOL     OW 1200  14.663   0.438  14.453
66454SOL    HW1 1201  14.705   0.371  14.400
66454SOL    HW2 1202  14.711   0.437  14.536
66455SOL     OW 1203   2.398  10.507   6.674
66455SOL    HW1 1204   2.463  10.575   6.687
66455SOL    HW2 1205   2.316  10.546   6.703
66456SOL     OW 1206  10.769  10.203   0.203
66456SOL    HW1 1207  10.738  10.262   0.135
66456SOL    HW2 1208  10.853  10.239   0.230
66457SOL     OW 1209  10.734   5.562  11.612
66457SOL    HW1 1210  10.822   5.589  11.638
66457SOL    HW2 1211  10.733   5.573  11.517
66458SOL     OW 1212  14.381  12.977   4.936
66458SOL    HW1 1213  14.409  12.886   4.945
66458SOL    HW2 1214  14.380  12.993   4.842
66459SOL     OW 1215   8.054   3.199   0.102
66459SOL    HW1 1216   7.982   3.232   0.049
66459SOL    HW2 1217   8.104   3.278   0.125
66460SOL     OW 1218  12.101  12.808  14.677
66460SOL    HW1 1219  12.113  12.728  14.728
66460SOL    HW2 1220  12.127  12.785  14.589
66461SOL     OW 1221   3.602  12.640  10.749
66461SOL    HW1 1222   3.522  12.606  10.709
66461SOL    HW2 1223   3.572  12.682  10.830
66462SOL     OW 1224   9.195   5.742  10.458
66462SOL    HW1 1225   9.236   5.665  10.497
66462SOL    HW2 1226   9.268   5.798  10.433
66463SOL     OW 1227   6.280   2.754  12.540
66463SOL    HW1 1228   6.202   2.787  12.497
66463SOL    HW2 1229   6.343   2.741  12.470
66464SOL     OW 1230   9.713   6.072  12.037
66464SOL    HW1 1231   9.790   6.016  12.050
66464SOL    HW2 1232   9.750   6.156  12.008
66465SOL     OW 1233   3.623  13.094   8.316
66465SOL    HW1 1234   3.574  13.021   8.355
66465SOL    HW2 1235   3.559  13.164   8.308
66466SOL     OW 1236  13.082   8.910  14.841
66466SOL    HW1 1237  13.115   8.820  14.836
66466SOL    HW2 1238  13.154   8.961  14.879
66467SOL     OW 1239  10.473  10.834   9.552
66467SOL    HW1 1240  10.458  10.905   9.490
66467SOL    HW2 1241  10.556  10.856   9.595
66468SOL     OW 1242   1.595  14.588   5.840
66468SOL    HW1 1243   1.611  14.678   5.811
66468SOL    HW2 1244   1.525  14.556   5.783
66469SOL     OW 1245   8.624   2.036  13.143
66469SOL    HW1 1246   8.685   1.974  13.102
66469SOL    HW2 1247   8.591   1.989  13.220
66470SOL     OW 1248   9.237  12.695   5.234
66470SOL    HW1 1249   9.214  12.787   5.225
66470SOL    HW2 1250   9.276  12.688   5.321
66471SOL     OW 1251   9.707  11.456  12.416
66471SOL    HW1 1252   9.673  11.366  12.412
66471SOL    HW2 1253   9.785  11.454  12.361
66472SOL     OW 1254  10.616   2.472  14.182
66472SOL    HW1 1255  10.707   2.503  14.184
66472SOL    HW2 1256  10.624   2.377  14.167
66473SOL     OW 1257   7.131   7.749  14.027
66473SOL    HW1 1258   7.199   7.793  14.078
66473SOL    HW2 1259   7.172   7.668  13.996
66474SOL     OW 1260  13.675   0.325  11.145
66474SOL    HW1 1261  13.631   0.354  11.065
66474SOL    HW2 1262  13.604   0.302  11.205
66475SOL     OW 1263   8.366   7.332  10.497
66475SOL    HW1 1264   8.365   7.292  10.584
66475SOL    HW2 1265   8.451   7.377  10.493
66476SOL     OW 1266   4.438   7.279   3.688
66476SOL    HW1 1267   4.520   7.251   3.727
66476SOL    HW2 1268   4.464   7.323   3.607
66477SOL     OW 1269  11.743  11.620  13.630
66477SOL    HW1 1270  11.676  11.604  13.564
66477SOL    HW2 1271  11.699  11.674  13.696
66478SOL     OW 1272   8.956   5.961   7.849
66478SOL    HW1 1273   9.009   5.892   7.809
66478SOL    HW2 1274   9.016   6.007   7.908
66479SOL     OW 1275   1.907   2.078  13.252
66479SOL    HW1 1276   1.929   2.171  13.257
66479SOL    HW2 1277   1.816   2.073  13.283
66480SOL     OW 1278  12.485  10.966   9.339
66480SOL    HW1 1279  12.425  10.912   9.390
66480SOL    HW2 1280  12.548  10.904   9.302
66481SOL     OW 1281  10.119   3.973   6.333
66481SOL    HW1 1282  10.166   3.920   6.397
66481SOL    HW2 1283  10.068   4.035   6.385
66482SOL     OW 1284   0.240  13.940   0.667
66482SOL    HW1 1285   0.155  13.902   0.644
66482SOL    HW2 1286   0.240  14.026   0.625
66483SOL     OW 1287   5.194   8.976  12.272
66483SOL    HW1 1288   5.193   9.066  12.240
66483SOL    HW2 1289   5.254   8.930  12.213
66484SOL     OW 1290   7.779   4.300   0.626
66484SOL    HW1 1291   7.726   4.223   0.606
66484SOL    HW2 1292   7.808   4.288   0.716
66485SOL     OW 1293   8.753   3.330   2.553
66485SOL    HW1 1294   8.822   3.363   2.496
66485SOL    HW2 1295   8.756   3.387   2.630
66486SOL     OW 1296   8.379   2.153   7.082
66486SOL    HW1 1297   8.409   2.160   6.991
66486SOL    HW2 1298   8.283   2.159   7.075
66487SOL     OW 1299  11.470   2.014   2.594
66487SOL    HW1 1300  11.525   1.940   2.618
66487SOL    HW2 1301  11.529   2.089   2.596
66488SOL     OW 1302   7.799   1.837  12.187
66488SOL    HW1 1303   7.817   1.818  12.279
66488SOL    HW2 1304   7.852   1.914  12.167
66489SOL     OW 1305   3.530  11.693   7.790
66489SOL    HW1 1306   3.439  11.667   7.805
66489SOL    HW2 1307   3.573  11.612   7.761
66490SOL     OW 1308   3.552  13.868   7.653
66490SOL    HW1 1309   3.643  13.866   7.683
66490SOL    HW2 1310   3.540  13.956   7.618
66491SOL     OW 1311  13.882   2.703  13.255
66491SOL    HW1 1312  13.860   2.796  13.261
66491SOL    HW2 1313  13.907   2.690  13.163
66492SOL     OW 1314   6.205  11.989   4.039
66492SOL    HW1 1315   6.247  12.075   4.035
66492SOL    HW2 1316   6.276  11.927   4.021
66493SOL     OW 1317   9.991  14.700  12.291
66493SOL    HW1 1318   9.936  14.661  12.360
66493SOL    HW2 1319   9.944  14.682  12.210
66494SOL     OW 1320  14.764   8.637   9.377
66494SOL    HW1 1321  14.754   8.544   9.396
66494SOL    HW2 1322  14.755   8.643   9.282
66495SOL     OW 1323  12.718  13.302  13.867
66495SOL    HW1 1324  12.750  13.379  13.915
66495SOL    HW2 1325  12.654  13.262  13.925
66496SOL     OW 1326  10.233   0.855   3.754
66496SOL    HW1 1327  10.322   0.821   3.766
66496SOL    HW2 1328  10.231   0.885   3.663
66497SOL     OW 1329   3.989   8.204   0.473
66497SOL    HW1 1330   4.002   8.127   0.418
66497SOL    HW2 1331   4.019   8.176   0.560
66498SOL     OW 1332   0.965  12.598   1.782
66498SOL    HW1 1333   1.011  12.620   1.701
66498SOL    HW2 1334   0.900  12.534   1.757
66499SOL     OW 1335  11.491   0.652  10.777
66499SOL    HW1 1336  11.448   0.669  10.861
66499SOL    HW2 1337  11.581   0.682  10.790
66500SOL     OW 1338   9.702  11.088  10.479
66500SOL    HW1 1339   9.621  11.099  10.428
66500SOL    HW2 1340   9.695  11.000  10.514
66501SOL     OW 1341   9.790  13.468   3.667
66501SOL    HW1 1342   9.877  13.457   3.628
66501SOL    HW2 1343   9.774  13.563   3.663
66502SOL     OW 1344   7.437   8.625   6.516
66502SOL    HW1 1345   7.494   8.609   6.441
66502SOL    HW2 1346   7.394   8.542   6.532
66503SOL     OW 1347  11.935   1.541   4.910
66503SOL    HW1 1348  11.900   1.462   4.951
66503SOL    HW2 1349  11.921   1.610   4.974
66504SOL     OW 1350  10.547  14.586   3.883
66504SOL    HW1 1351  10.555  14.502   3.929
66504SOL    HW2 1352  10.471  14.628   3.923
66505SOL     OW 1353   2.013  11.225  10.509
66505SOL    HW1 1354   2.007  11.303  10.564
66505SOL    HW2 1355   1.942  11.235  10.446
66506SOL     OW 1356   7.204   9.795   2.372
66506SOL    HW1 1357   7.245   9.864   2.423
66506SOL    HW2 1358   7.242   9.714   2.406
66507SOL     OW 1359   6.855   0.500   8.521
66507SOL    HW1 1360   6.856   0.520   8.615
66507SOL    HW2 1361   6.894   0.578   8.480
66508SOL     OW 1362   3.251   4.056   6.083
66508SOL    HW1 1363   3.179   4.113   6.056
66508SOL    HW2 1364   3.271   4.084   6.172
66509SOL     OW 1365  13.870  14.294  10.540
66509SOL    HW1 1366  13.813  14.340  10.603
66509SOL    HW2 1367  13.815  14.279  10.464
66510SOL     OW 1368  14.234   1.979   1.681
66510SOL    HW1 1369  14.169   2.016   1.622
66510SOL    HW2 1370  14.294   1.931   1.623
66511SOL     OW 1371  14.837  14.782   0.661
66511SOL    HW1 1372  14.869  14.698   0.627
66511SOL    HW2 1373  14.874  14.787   0.749
66512SOL     OW 1374   2.557  10.142   6.498
66512SOL    HW1 1375   2.474  10.188   6.507
66512SOL    HW2 1376   2.601  10.186   6.425
66513SOL     OW 1377   1.479   9.986   7.780
66513SOL    HW1 1378   1.440   9.936   7.708
66513SOL    HW2 1379   1.557   9.936   7.805
66514SOL     OW 1380   2.824   2.448  10.819
66514SOL    HW1 1381   2.878   2.393  10.762
66514SOL    HW2 1382   2.735   2.438  10.785
66515SOL     OW 1383   5.015   6.350   2.387
66515SOL    HW1 1384   5.076   6.283   2.419
66515SOL    HW2 1385   4.983   6.393   2.465
66516SOL     OW 1386   6.452   5.401  13.553
66516SOL    HW1 1387   6.364   5.430  13.576
66516SOL    HW2 1388   6.461   5.316  13.597
66517SOL     OW 1389  14.194   8.680   5.605
66517SOL    HW1 1390  14.157   8.649   5.523
66517SOL    HW2 1391  14.138   8.753   5.631
66518SOL     OW 1392   7.916   9.441   5.402
66518SOL    HW1 1393   7.906   9.479   5.315
66518SOL    HW2 1394   7.847   9.481   5.454
66519SOL     OW 1395  12.904   8.718   5.211
66519SOL    HW1 1396  12.986   8.729   5.259
66519SOL    HW2 1397  12.837   8.754   5.269
66520SOL     OW 1398  10.119   3.995  11.575
66520SOL    HW1 1399  10.078   3.917  11.537
66520SOL    HW2 1400  10.046   4.050  11.603
66521SOL     OW 1401   5.933  12.736   9.371
66521SOL    HW1 1402   5.874  12.673   9.332
66521SOL    HW2 1403   6.000  12.751   9.304
66522SOL     OW 1404   0.989   8.670  11.003
66522SOL    HW1 1405   0.957   8.617  11.076
66522SOL    HW2 1406   1.024   8.606  10.941
66523SOL     OW 1407  10.517   2.462  13.622
66523SOL    HW1 1408  10.603   2.478  13.661
66523SOL    HW2 1409  10.533   2.399  13.551
66524SOL     OW 1410  11.180  12.857   4.916
66524SOL    HW1 1411  11.109  12.793   4.922
66524SOL    HW2 1412  11.243  12.830   4.983
66525SOL     OW 1413   4.136   1.415  12.755
66525SOL    HW1 1414   4.089   1.399  12.673
66525SOL    HW2 1415   4.102   1.500  12.786
66526SOL     OW 1416   2.790   7.950  10.547
66526SOL    HW1 1417   2.821   7.973  10.635
66526SOL    HW2 1418   2.696   7.970  10.549
66527SOL     OW 1419   9.820   4.547  11.291
66527SOL    HW1 1420   9.900   4.506  11.324
66527SOL    HW2 1421   9.849   4.595  11.213
66528SOL     OW 1422  11.010   6.881   0.380
66528SOL    HW1 1423  11.002   6.790   0.351
66528SOL    HW2 1424  10.979   6.881   0.470
66529SOL     OW 1425  13.505   0.271   7.753
66529SOL    HW1 1426  13.520   0.207   7.823
66529SOL    HW2 1427  13.439   0.230   7.697
66530SOL     OW 1428   4.640   4.797   2.866
66530SOL    HW1 1429   4.720   4.847   2.880
66530SOL    HW2 1430   4.666   4.706   2.876
66531SOL     OW 1431   3.786   2.182   4.235
66531SOL    HW1 1432   3.771   2.273   4.209
66531SOL    HW2 1433   3.847   2.187   4.309
66532SOL     OW 1434   1.405   4.399  11.490
66532SOL    HW1 1435   1.393   4.462  11.561
66532SOL    HW2 1436   1.325   4.407  11.437
66533SOL     OW 1437   7.111  11.111   2.680
66533SOL    HW1 1438   7.184  11.131   2.621
66533SOL    HW2 1439   7.143  11.036   2.732
66534SOL     OW 1440   7.828  14.602   8.652
66534SOL    HW1 1441   7.841  14.554   8.734
66534SOL    HW2 1442   7.774  14.543   8.599
66535SOL     OW 1443  10.279   7.216   3.745
66535SOL    HW1 1444  10.317   7.271   3.677
66535SOL    HW2 1445  10.314   7.129   3.728
66536SOL     OW 1446   2.396   0.655   3.524
66536SOL    HW1 1447   2.419   0.703   3.604
66536SOL    HW2 1448   2.380   0.724   3.459
66537SOL     OW 1449  11.819   8.354   3.748
66537SOL    HW1 1450  11.814   8.259   3.761
66537SOL    HW2 1451  11.877   8.384   3.818
66538SOL     OW 1452  10.428  13.572  11.880
66538SOL    HW1 1453  10.446  13.525  11.961
66538SOL    HW2 1454  10.433  13.505  11.812
66539SOL     OW 1455   4.692   7.075   5.605
66539SOL    HW1 1456   4.682   7.107   5.515
66539SOL    HW2 1457   4.784   7.093   5.626
66540SOL     OW 1458  10.491   1.237   0.712
66540SOL    HW1 1459  10.535   1.278   0.638
66540SOL    HW2 1460  10.404   1.277   0.713
66541SOL     OW 1461   1.773  10.085   5.970
66541SOL    HW1 1462   1.739  10.106   5.883
66541SOL    HW2 1463   1.843  10.022   5.954
66542SOL     OW 1464  14.432   8.794  11.187
66542SOL    HW1 1465  14.520   8.796  11.225
66542SOL    HW2 1466  14.416   8.885  11.160
66543SOL     OW 1467   9.969   8.699   1.122
66543SOL    HW1 1468   9.914   8.713   1.046
66543SOL    HW2 1469  10.032   8.771   1.121
66544SOL     OW 1470   5.275  14.349  10.573
66544SOL    HW1 1471   5.262  14.308  10.659
66544SOL    HW2 1472   5.311  14.279  10.519
66545SOL     OW 1473   5.903   5.412   1.515
66545SOL    HW1 1474   5.916   5.342   1.451
66545SOL    HW2 1475   5.978   5.470   1.501
66546SOL     OW 1476  13.269  12.617   5.407
66546SOL    HW1 1477  13.194  12.652   5.454
66546SOL    HW2 1478  13.345  12.652   5.453
66547SOL     OW 1479  11.941   7.524   2.556
66547SOL    HW1 1480  12.015   7.570   2.515
66547SOL    HW2 1481  11.982   7.458   2.612
66548SOL     OW 1482  12.760   1.673  11.194
66548SOL    HW1 1483  12.729   1.747  11.245
66548SOL    HW2 1484  12.835   1.640  11.244
66549SOL     OW 1485   4.606   9.197  13.630
66549SOL    HW1 1486   4.591   9.291  13.620
66549SOL    HW2 1487   4.521   9.161  13.655
66550SOL     OW 1488   6.271   7.361  13.838
66550SOL    HW1 1489   6.190   7.322  13.871
66550SOL    HW2 1490   6.317   7.390  13.917
66551SOL     OW 1491  12.110   9.083   4.165
66551SOL    HW1 1492  12.073   9.003   4.202
66551SOL    HW2 1493  12.204   9.069   4.167
66552SOL     OW 1494  11.930   2.805   4.158
66552SOL    HW1 1495  11.836   2.815   4.141
66552SOL    HW2 1496  11.959   2.892   4.184
66553SOL     OW 1497   4.309   7.029   7.217
66553SOL    HW1 1498   4.280   7.056   7.305
66553SOL    HW2 1499   4.332   6.936   7.227
66554SOL     OW 1500   0.996   8.942   5.084
66554SOL    HW1 1501   1.018   8.954   5.176
66554SOL    HW2 1502   0.956   9.024   5.057
66555SOL     OW 1503   4.343  11.505   4.575
66555SOL    HW1 1504   4.434  11.510   4.605
66555SOL    HW2 1505   4.292  11.529   4.653
66556SOL     OW 1506   2.130   8.246   8.354
66556SOL    HW1 1507   2.050   8.251   8.302
66556SOL    HW2 1508   2.134   8.155   8.383
66557SOL     OW 1509  10.609  14.668   9.797
66557SOL    HW1 1510  10.624  14.660   9.703
66557SOL    HW2 1511  10.516  14.648   9.807
66558SOL     OW 1512  14.208   6.426  11.595
66558SOL    HW1 1513  14.271   6.498  11.592
66558SOL    HW2 1514  14.162   6.438  11.678
66559SOL     OW 1515  12.471  14.465  10.234
66559SOL    HW1 1516  12.406  14.533  10.253
66559SOL    HW2 1517  12.509  14.491  10.151
66560SOL     OW 1518  13.699  12.564   4.814
66560SOL    HW1 1519  13.635  12.568   4.743
66560SOL    HW2 1520  13.714  12.471   4.828
66561SOL     OW 1521   0.505  14.793  14.748
66561SOL    HW1 1522   0.551  14.871  14.779
66561SOL    HW2 1523   0.446  14.825  14.680
66562SOL     OW 1524   5.849   5.589   9.531
66562SOL    HW1 1525   5.928   5.535   9.539
66562SOL    HW2 1526   5.813   5.567   9.445
66563SOL     OW 1527  11.091   1.999   4.041
66563SOL    HW1 1528  10.998   1.982   4.057
66563SOL    HW2 1529  11.120   2.047   4.119
66564SOL     OW 1530   3.806   2.909   9.340
66564SOL    HW1 1531   3.783   2.878   9.427
66564SOL    HW2 1532   3.804   3.004   9.347
66565SOL     OW 1533   1.145   7.757   6.234
66565SOL    HW1 1534   1.106   7.789   6.316
66565SOL    HW2 1535   1.231   7.723   6.260
66566SOL     OW 1536   0.852   2.497  13.223
66566SOL    HW1 1537   0.775   2.443  13.206
66566SOL    HW2 1538   0.924   2.434  13.232
66567SOL     OW 1539   6.360   1.344  11.183
66567SOL    HW1 1540   6.351   1.288  11.106
66567SOL    HW2 1541   6.342   1.286  11.257
66568SOL     OW 1542   7.084   5.549  11.290
66568SOL    HW1 1543   7.015   5.556  11.224
66568SOL    HW2 1544   7.107   5.456  11.293
66569SOL     OW 1545   4.057   8.921   8.630
66569SOL    HW1 1546   4.070   8.843   8.684
66569SOL    HW2 1547   3.975   8.959   8.661
66570SOL     OW 1548   8.086   9.687   0.795
66570SOL    HW1 1549   8.050   9.599   0.808
66570SOL    HW2 1550   8.018   9.746   0.826
66571SOL     OW 1551   2.084   9.978  13.402
66571SOL    HW1 1552   2.048  10.027  13.328
66571SOL    HW2 1553   2.099  10.044  13.470
66572SOL     OW 1554   6.066  14.619   8.457
66572SOL    HW1 1555   6.120  14.540   8.453
66572SOL    HW2 1556   6.023  14.615   8.542
66573SOL     OW 1557   7.529   0.669   8.316
66573SOL    HW1 1558   7.598   0.634   8.372
66573SOL    HW2 1559   7.506   0.753   8.355
66574SOL     OW 1560  10.125   3.722  12.464
66574SOL    HW1 1561  10.073   3.651  12.427
66574SOL    HW2 1562  10.162   3.685  12.545
66575SOL     OW 1563   3.861  12.177   6.423
66575SOL    HW1 1564   3.780  12.147   6.464
66575SOL    HW2 1565   3.876  12.264   6.459
66576SOL     OW 1566   7.350   4.647   6.079
66576SOL    HW1 1567   7.388   4.710   6.018
66576SOL    HW2 1568   7.423   4.619   6.134
66577SOL     OW 1569   2.208  10.339   4.588
66577SOL    HW1 1570   2.279  10.352   4.649
66577SOL    HW2 1571   2.167  10.425   4.579
66578SOL     OW 1572  11.177   3.044  13.577
66578SOL    HW1 1573  11.184   3.014  13.667
66578SOL    HW2 1574  11.193   2.966  13.524
66579SOL     OW 1575   1.106   0.427   8.665
66579SOL    HW1 1576   1.158   0.478   8.603
66579SOL    HW2 1577   1.129   0.463   8.751
66580SOL     OW 1578  13.227  10.803  11.979
66580SOL    HW1 1579  13.170  10.775  11.907
66580SOL    HW2 1580  13.294  10.857  11.938
66581SOL     OW 1581  14.218  11.193   4.124
66581SOL    HW1 1582  14.260  11.277   4.109
66581SOL    HW2 1583  14.289  11.135   4.151
66582SOL     OW 1584   9.869   8.461   6.968
66582SOL    HW1 1585   9.861   8.493   6.878
66582SOL    HW2 1586   9.798   8.505   7.015
66583SOL     OW 1587   9.237   9.868   2.675
66583SOL    HW1 1588   9.263   9.779   2.654
66583SOL    HW2 1589   9.141   9.867   2.671
66584SOL     OW 1590   4.436  14.855   4.106
66584SOL    HW1 1591   4.409  14.811   4.187
66584SOL    HW2 1592   4.357   0.021   4.076
66585SOL     OW 1593   1.567  13.236  14.724
66585SOL    HW1 1594   1.533  13.303  14.664
66585SOL    HW2 1595   1.615  13.286  14.790
66586SOL     OW 1596   4.234   4.296   0.136
66586SOL    HW1 1597   4.223   4.207   0.102
66586SOL    HW2 1598   4.202   4.353   0.065
66587SOL     OW 1599   3.187  14.724   4.113
66587SOL    HW1 1600   3.262  14.754   4.062
66587SOL    HW2 1601   3.160  14.802   4.163
66588SOL     OW 1602  11.155  13.751  14.018
66588SOL    HW1 1603  11.169  13.775  14.109
66588SOL    HW2 1604  11.086  13.684  14.022
66589SOL     OW 1605   8.377   3.903   5.349
66589SOL    HW1 1606   8.423   3.844   5.409
66589SOL    HW2 1607   8.326   3.960   5.407
66590SOL     OW 1608  14.303   4.101   4.866
66590SOL    HW1 1609  14.335   4.017   4.898
66590SOL    HW2 1610  14.356   4.166   4.913
66591SOL     OW 1611   9.514   8.144   1.937
66591SOL    HW1 1612   9.457   8.093   1.995
66591SOL    HW2 1613   9.569   8.079   1.894
66592SOL     OW 1614   3.458   5.302  14.384
66592SOL    HW1 1615   3.522   5.370  14.403
66592SOL    HW2 1616   3.442   5.260  14.469
66593SOL     OW 1617  14.215  13.418  12.218
66593SOL    HW1 1618  14.250  13.502  12.249
66593SOL    HW2 1619  14.259  13.403  12.135
66594SOL     OW 1620   4.980   3.094   0.889
66594SOL    HW1 1621   5.000   3.136   0.973
66594SOL    HW2 1622   4.885   3.090   0.887
66595SOL     OW 1623   0.090   4.578   0.428
66595SOL    HW1 1624   0.161   4.533   0.474
66595SOL    HW2 1625   0.021   4.587   0.495
66596SOL     OW 1626   9.784   3.246  14.730
66596SOL    HW1 1627   9.824   3.178  14.784
66596SOL    HW2 1628   9.743   3.199  14.657
66597SOL     OW 1629   5.677   0.342   7.923
66597SOL    HW1 1630   5.584   0.355   7.907
66597SOL    HW2 1631   5.700   0.409   7.987
66598SOL     OW 1632   6.790  13.175   2.493
66598SOL    HW1 1633   6.714  13.117   2.493
66598SOL    HW2 1634   6.803  13.197   2.400
66599SOL     OW 1635   8.797  10.571  11.142
66599SOL    HW1 1636   8.755  10.494  11.105
66599SOL    HW2 1637   8.839  10.613  11.067
66600SOL     OW 1638  11.580  12.359  11.115
66600SOL    HW1 1639  11.663  12.404  11.127
66600SOL    HW2 1640  11.599  12.268  11.136
66601SOL     OW 1641   9.704   3.165   2.640
66601SOL    HW1 1642   9.657   3.100   2.587
66601SOL    HW2 1643   9.754   3.113   2.703
66602SOL     OW 1644   4.224   2.345  11.015
66602SOL    HW1 1645   4.268   2.390  10.943
66602SOL    HW2 1646   4.183   2.269  10.975
66603SOL     OW 1647   3.813   6.384   1.041
66603SOL    HW1 1648   3.766   6.318   0.992
66603SOL    HW2 1649   3.808   6.355   1.132
66604SOL     OW 1650   8.498   4.959  14.118
66604SOL    HW1 1651   8.479   4.875  14.077
66604SOL    HW2 1652   8.526   4.937  14.207
66605SOL     OW 1653   6.876  12.852  12.686
66605SOL    HW1 1654   6.899  12.945  12.685
66605SOL    HW2 1655   6.938  12.811  12.626
66606SOL     OW 1656   7.133  11.903   7.139
66606SOL    HW1 1657   7.140  11.926   7.232
66606SOL    HW2 1658   7.156  11.810   7.137
66607SOL     OW 1659   8.411  13.030  10.131
66607SOL    HW1 1660   8.496  12.999  10.164
66607SOL    HW2 1661   8.386  13.098  10.194
66608SOL     OW 1662   9.757   7.671   1.092
66608SOL    HW1 1663   9.725   7.723   1.019
66608SOL    HW2 1664   9.775   7.735   1.161
66609SOL     OW 1665   2.991   9.473   7.971
66609SOL    HW1 1666   2.916   9.469   8.031
66609SOL    HW2 1667   3.031   9.558   7.987
66610SOL     OW 1668   2.176   0.977   8.245
66610SOL    HW1 1669   2.197   0.897   8.198
66610SOL    HW2 1670   2.188   0.955   8.337
66611SOL     OW 1671   6.114  13.500   6.195
66611SOL    HW1 1672   6.189  13.460   6.240
66611SOL    HW2 1673   6.040  13.444   6.218
66612SOL     OW 1674  14.231   6.000  12.841
66612SOL    HW1 1675  14.224   5.986  12.747
66612SOL    HW2 1676  14.157   5.952  12.878
66613SOL     OW 1677   8.958   2.715   0.176
66613SOL    HW1 1678   8.881   2.760   0.210
66613SOL    HW2 1679   9.000   2.780   0.119
66614SOL     OW 1680   4.166   7.547   8.954
66614SOL    HW1 1681   4.150   7.631   8.909
66614SOL    HW2 1682   4.123   7.557   9.039
66615SOL     OW 1683   2.774   3.496   4.930
66615SOL    HW1 1684   2.752   3.504   4.837
66615SOL    HW2 1685   2.850   3.554   4.941
66616SOL     OW 1686  10.295  11.596  10.671
66616SOL    HW1 1687  10.227  11.660  10.692
66616SOL    HW2 1688  10.280  11.524  10.733
66617SOL     OW 1689   1.872  10.702  13.473
66617SOL    HW1 1690   1.890  10.671  13.562
66617SOL    HW2 1691   1.814  10.636  13.436
66618SOL     OW 1692  12.968  11.743  11.804
66618SOL    HW1 1693  12.916  11.715  11.729
66618SOL    HW2 1694  13.059  11.733  11.776
66619SOL     OW 1695  12.206   1.123  12.483
66619SOL    HW1 1696  12.217   1.218  12.487
66619SOL    HW2 1697  12.288   1.091  12.447
66620SOL     OW 1698  10.272   4.383  11.531
66620SOL    HW1 1699  10.298   4.391  11.623
66620SOL    HW2 1700  10.354   4.391  11.482
66621SOL     OW 1701   8.107   7.369   7.980
66621SOL    HW1 1702   8.160   7.317   7.919
66621SOL    HW2 1703   8.022   7.377   7.937
66622SOL     OW 1704   4.691  11.094  13.078
66622SOL    HW1 1705   4.724  11.163  13.136
66622SOL    HW2 1706   4.596  11.105  13.079
66623SOL     OW 1707   3.323   4.138   6.982
66623SOL    HW1 1708   3.360   4.226   6.975
66623SOL    HW2 1709   3.284   4.121   6.897
66624SOL     OW 1710   7.711  13.616   4.268
66624SOL    HW1 1711   7.689  13.610   4.361
66624SOL    HW2 1712   7.635  13.659   4.229
66625SOL     OW 1713   6.096   5.624   0.678
66625SOL    HW1 1714   6.148   5.624   0.598
66625SOL    HW2 1715   6.068   5.715   0.689
66626SOL     OW 1716   0.101   1.679   2.811
66626SOL    HW1 1717   0.146   1.757   2.842
66626SOL    HW2 1718   0.103   1.618   2.884
66627SOL     OW 1719   6.706  14.685   4.218
66627SOL    HW1 1720   6.627  14.639   4.191
66627SOL    HW2 1721   6.777  14.645   4.168
66628SOL     OW 1722   4.451  14.859   8.000
66628SOL    HW1 1723   4.377   0.023   7.959
66628SOL    HW2 1724   4.507  14.834   7.926
66629SOL     OW 1725   6.853  13.770   9.280
66629SOL    HW1 1726   6.886  13.794   9.366
66629SOL    HW2 1727   6.877  13.678   9.270
66630SOL     OW 1728   8.755   1.528   9.345
66630SOL    HW1 1729   8.716   1.609   9.314
66630SOL    HW2 1730   8.766   1.540   9.439
66631SOL     OW 1731   9.806   0.916   7.323
66631SOL    HW1 1732   9.858   0.841   7.293
66631SOL    HW2 1733   9.717   0.896   7.296
66632SOL     OW 1734   2.384  11.931   2.088
66632SOL    HW1 1735   2.475  11.914   2.063
66632SOL    HW2 1736   2.362  11.859   2.147
66633SOL     OW 1737  11.638   7.562   4.116
66633SOL    HW1 1738  11.604   7.648   4.143
66633SOL    HW2 1739  11.566   7.523   4.066
66634SOL     OW 1740   5.737   1.797   8.414
66634SOL    HW1 1741   5.704   1.886   8.423
66634SOL    HW2 1742   5.793   1.800   8.336
66635SOL     OW 1743  11.813  11.439   5.742
66635SOL    HW1 1744  11.830  11.436   5.648
66635SOL    HW2 1745  11.814  11.347   5.770
66636SOL     OW 1746  11.600   4.483   3.201
66636SOL    HW1 1747  11.686   4.506   3.237
66636SOL    HW2 1748  11.557   4.567   3.188
66637SOL     OW 1749   2.761   2.980   2.299
66637SOL    HW1 1750   2.834   2.921   2.318
66637SOL    HW2 1751   2.683   2.928   2.313
66638SOL     OW 1752  12.470   6.229   3.352
66638SOL    HW1 1753  12.524   6.297   3.311
66638SOL    HW2 1754  12.388   6.232   3.303
66639SOL     OW 1755   7.331   6.604   0.500
66639SOL    HW1 1756   7.383   6.681   0.523
66639SOL    HW2 1757   7.246   6.639   0.472
66640SOL     OW 1758   2.992   6.703   6.973
66640SOL    HW1 1759   3.058   6.756   6.928
66640SOL    HW2 1760   3.042   6.647   7.032
66641SOL     OW 1761   8.201   1.241   6.640
66641SOL    HW1 1762   8.250   1.189   6.704
66641SOL    HW2 1763   8.242   1.328   6.644
66642SOL     OW 1764   6.563   1.278   4.257
66642SOL    HW1 1765   6.506   1.214   4.215
66642SOL    HW2 1766   6.526   1.363   4.233
66643SOL     OW 1767   1.795   1.339  11.081
66643SOL    HW1 1768   1.854   1.380  11.018
66643SOL    HW2 1769   1.718   1.396  11.083
66644SOL     OW 1770  13.518   0.119   8.006
66644SOL    HW1 1771  13.436   0.091   7.967
66644SOL    HW2 1772  13.492   0.167   8.084
66645SOL     OW 1773  12.625   2.108   8.781
66645SOL    HW1 1774  12.668   2.095   8.696
66645SOL    HW2 1775  12.620   2.020   8.819
66646SOL     OW 1776   6.316   4.436   7.927
66646SOL    HW1 1777   6.258   4.360   7.925
66646SOL    HW2 1778   6.266   4.504   7.972
66647SOL     OW 1779   4.170   0.999   2.773
66647SOL    HW1 1780   4.102   1.049   2.727
66647SOL    HW2 1781   4.184   0.922   2.717
66648SOL     OW 1782  13.000   1.649   8.823
66648SOL    HW1 1783  12.970   1.592   8.752
66648SOL    HW2 1784  12.958   1.613   8.901
66649SOL     OW 1785   7.180  13.645   2.318
66649SOL    HW1 1786   7.230  13.699   2.379
66649SOL    HW2 1787   7.097  13.692   2.306
66650SOL     OW 1788   2.345   2.600   2.311
66650SOL    HW1 1789   2.305   2.539   2.372
66650SOL    HW2 1790   2.273   2.628   2.254
66651SOL     OW 1791   6.790   8.861   9.567
66651SOL    HW1 1792   6.799   8.899   9.654
66651SOL    HW2 1793   6.860   8.901   9.515
66652SOL     OW 1794  10.829   0.660  11.017
66652SOL    HW1 1795  10.841   0.755  11.018
66652SOL    HW2 1796  10.847   0.635  10.926
66653SOL     OW 1797   3.042   1.610   6.155
66653SOL    HW1 1798   3.085   1.681   6.203
66653SOL    HW2 1799   3.113   1.549   6.134
66654SOL     OW 1800   4.254  13.715   9.305
66654SOL    HW1 1801   4.220  13.759   9.383
66654SOL    HW2 1802   4.302  13.783   9.258
66655SOL     OW 1803   8.858  13.042   3.075
66655SOL    HW1 1804   8.866  12.995   2.992
66655SOL    HW2 1805   8.826  12.977   3.137
66656SOL     OW 1806   4.272   4.165   0.382
66656SOL    HW1 1807   4.258   4.228   0.312
66656SOL    HW2 1808   4.257   4.214   0.462
66657SOL     OW 1809   7.517   5.906   9.540
66657SOL    HW1 1810   7.612   5.916   9.534
66657SOL    HW2 1811   7.488   5.897   9.450
66658SOL     OW 1812  11.897   0.569  12.792
66658SOL    HW1 1813  11.836   0.509  12.837
66658SOL    HW2 1814  11.890   0.544  12.699
66659SOL     OW 1815  13.052   8.915  13.522
66659SOL    HW1 1816  13.081   8.839  13.572
66659SOL    HW2 1817  12.981   8.952  13.573
66660SOL     OW 1818   8.146  13.917   1.218
66660SOL    HW1 1819   8.213  13.849   1.218
66660SOL    HW2 1820   8.120  13.925   1.127
66661SOL     OW 1821   6.107  11.417   4.759
66661SOL    HW1 1822   6.133  11.405   4.850
66661SOL    HW2 1823   6.043  11.488   4.760
66662SOL     OW 1824  10.735  10.105  10.222
66662SOL    HW1 1825  10.786  10.065  10.292
66662SOL    HW2 1826  10.801  10.141  10.162
66663SOL     OW 1827   6.566   5.564   7.253
66663SOL    HW1 1828   6.477   5.588   7.278
66663SOL    HW2 1829   6.599   5.514   7.327
66664SOL     OW 1830   6.271  10.705  11.593
66664SOL    HW1 1831   6.276  10.636  11.659
66664SOL    HW2 1832   6.362  10.721  11.568
66665SOL     OW 1833  14.564   8.064   5.525
66665SOL    HW1 1834  14.472   8.044   5.543
66665SOL    HW2 1835  14.598   7.984   5.485
66666SOL     OW 1836   7.517   0.161   2.328
66666SOL    HW1 1837   7.576   0.089   2.309
66666SOL    HW2 1838   7.469   0.134   2.406
66667SOL     OW 1839   2.587  14.114   7.365
66667SOL    HW1 1840   2.662  14.064   7.398
66667SOL    HW2 1841   2.615  14.145   7.279
66668SOL     OW 1842   6.517   0.972   0.686
66668SOL    HW1 1843   6.463   1.038   0.729
66668SOL    HW2 1844   6.599   1.017   0.665
66669SOL     OW 1845   8.606   5.908  12.029
66669SOL    HW1 1846   8.585   5.941  12.117
66669SOL    HW2 1847   8.543   5.950  11.972
66670SOL     OW 1848   2.844   3.529   3.978
66670SOL    HW1 1849   2.860   3.617   4.012
66670SOL    HW2 1850   2.903   3.521   3.903
66671SOL     OW 1851   7.563   6.147   8.609
66671SOL    HW1 1852   7.471   6.172   8.611
66671SOL    HW2 1853   7.604   6.211   8.550
66672SOL     OW 1854   4.719  13.911  13.576
66672SOL    HW1 1855   4.687  13.977  13.639
66672SOL    HW2 1856   4.672  13.831  13.600
66673SOL     OW 1857   7.793   5.573  11.960
66673SOL    HW1 1858   7.709   5.616  11.943
66673SOL    HW2 1859   7.783   5.485  11.925
66674SOL     OW 1860   6.793  11.889  13.829
66674SOL    HW1 1861   6.807  11.816  13.890
66674SOL    HW2 1862   6.877  11.900  13.785
66675SOL     OW 1863   9.078  14.773  14.132
66675SOL    HW1 1864   9.138  14.847  14.136
66675SOL    HW2 1865   9.100  14.719  14.208
66676SOL     OW 1866  14.808   1.216  10.610
66676SOL    HW1 1867   0.013   1.217  10.566
66676SOL    HW2 1868  14.828   1.236  10.702
66677SOL     OW 1869   9.590  10.633   6.593
66677SOL    HW1 1870   9.657  10.687   6.552
66677SOL    HW2 1871   9.638  10.576   6.653
66678SOL     OW 1872  13.290   3.310   0.502
66678SOL    HW1 1873  13.289   3.271   0.414
66678SOL    HW2 1874  13.339   3.247   0.555
66679SOL     OW 1875   1.097   6.364   1.184
66679SOL    HW1 1876   1.013   6.386   1.223
66679SOL    HW2 1877   1.119   6.278   1.220
66680SOL     OW 1878   5.782  12.800   1.863
66680SOL    HW1 1879   5.691  12.792   1.891
66680SOL    HW2 1880   5.816  12.874   1.914
66681SOL     OW 1881   2.761   9.211   2.790
66681SOL    HW1 1882   2.691   9.203   2.726
66681SOL    HW2 1883   2.782   9.121   2.815
66682SOL     OW 1884   9.589  11.621   5.592
66682SOL    HW1 1885   9.614  11.652   5.678
66682SOL    HW2 1886   9.602  11.526   5.595
66683SOL     OW 1887   3.080   0.483   8.950
66683SOL    HW1 1888   3.002   0.526   8.986
66683SOL    HW2 1889   3.151   0.547   8.964
66684SOL     OW 1890  12.162   2.107   0.021
66684SOL    HW1 1891  12.236   2.152   0.063
66684SOL    HW2 1892  12.129   2.170  14.837
66685SOL     OW 1893   5.990   3.833   3.993
66685SOL    HW1 1894   6.033   3.905   4.040
66685SOL    HW2 1895   5.905   3.823   4.035
66686SOL     OW 1896   8.285   2.622   6.189
66686SOL    HW1 1897   8.230   2.694   6.220
66686SOL    HW2 1898   8.343   2.662   6.124
66687SOL     OW 1899  14.088   8.735  12.458
66687SOL    HW1 1900  14.090   8.724  12.553
66687SOL    HW2 1901  14.172   8.776  12.436
66688SOL     OW 1902   5.532   0.822  13.898
66688SOL    HW1 1903   5.544   0.852  13.988
66688SOL    HW2 1904   5.542   0.727  13.904
66689SOL     OW 1905  14.164   6.110  14.710
66689SOL    HW1 1906  14.113   6.036  14.675
66689SOL    HW2 1907  14.185   6.084  14.799
66690SOL     OW 1908   1.723   5.644   1.573
66690SOL    HW1 1909   1.709   5.592   1.494
66690SOL    HW2 1910   1.735   5.579   1.642
66691SOL     OW 1911   3.256   0.427  10.187
66691SOL    HW1 1912   3.331   0.373  10.163
66691SOL    HW2 1913   3.226   0.465  10.105
66692SOL     OW 1914   8.094   5.179   0.502
66692SOL    HW1 1915   8.139   5.102   0.468
66692SOL    HW2 1916   8.005   5.150   0.521
66693SOL     OW 1917   9.383   2.976   3.578
66693SOL    HW1 1918   9.289   2.993   3.568
66693SOL    HW2 1919   9.399   2.897   3.527
66694SOL     OW 1920   7.937   1.392   0.488
66694SOL    HW1 1921   7.948   1.313   0.541
66694SOL    HW2 1922   8.023   1.434   0.488
66695SOL     OW 1923  10.661  14.461  12.010
66695SOL    HW1 1924  10.661  14.414  11.926
66695SOL    HW2 1925  10.752  14.458  12.039
66696SOL     OW 1926   1.015   6.599   5.632
66696SOL    HW1 1927   0.921   6.582   5.638
66696SOL    HW2 1928   1.057   6.520   5.665
66697SOL     OW 1929  11.319   1.953  13.676
66697SOL    HW1 1930  11.402   1.906  13.672
66697SOL    HW2 1931  11.342   2.039  13.711
66698SOL     OW 1932   2.733   1.401   9.971
66698SOL    HW1 1933   2.708   1.343  10.042
66698SOL    HW2 1934   2.742   1.487  10.012
66699SOL     OW 1935   0.313   6.436  14.525
66699SOL    HW1 1936   0.360   6.502  14.576
66699SOL    HW2 1937   0.254   6.486  14.469
66700SOL     OW 1938   2.274   1.161   6.369
66700SOL    HW1 1939   2.201   1.132   6.314
66700SOL    HW2 1940   2.309   1.238   6.324
66701SOL     OW 1941  13.843   1.763   5.451
66701SOL    HW1 1942  13.901   1.741   5.524
66701SOL    HW2 1943  13.808   1.849   5.473
66702SOL     OW 1944  10.791   4.033  10.131
66702SOL    HW1 1945  10.782   3.948  10.174
66702SOL    HW2 1946  10.808   4.012  10.039
66703SOL     OW 1947   3.974   1.474   7.673
66703SOL    HW1 1948   3.959   1.568   7.681
66703SOL    HW2 1949   4.069   1.464   7.677
66704SOL     OW 1950   9.487   6.059   4.639
66704SOL    HW1 1951   9.547   6.130   4.662
66704SOL    HW2 1952   9.503   5.992   4.706
66705SOL     OW 1953   9.443   1.718   0.961
66705SOL    HW1 1954   9.351   1.690   0.964
66705SOL    HW2 1955   9.459   1.735   0.868
66706SOL     OW 1956   6.609  10.178   5.643
66706SOL    HW1 1957   6.685  10.130   5.610
66706SOL    HW2 1958   6.646  10.239   5.707
66707SOL     OW 1959   0.712   9.240  10.932
66707SOL    HW1 1960   0.742   9.274  11.016
66707SOL    HW2 1961   0.791   9.207  10.890
66708SOL     OW 1962  13.817   9.789   7.272
66708SOL    HW1 1963  13.891   9.848   7.285
66708SOL    HW2 1964  13.811   9.777   7.178
66709SOL     OW 1965   2.011   6.848   0.980
66709SOL    HW1 1966   2.052   6.866   1.065
66709SOL    HW2 1967   1.933   6.903   0.979
66710SOL     OW 1968   2.390  11.362   9.745
66710SOL    HW1 1969   2.421  11.335   9.659
66710SOL    HW2 1970   2.362  11.453   9.733
66711SOL     OW 1971   5.782   7.075   3.867
66711SOL    HW1 1972   5.699   7.120   3.855
66711SOL    HW2 1973   5.834   7.135   3.921
66712SOL     OW 1974  11.262   9.887  11.164
66712SOL    HW1 1975  11.273   9.893  11.069
66712SOL    HW2 1976  11.247   9.977  11.191
66713SOL     OW 1977  12.537  13.118  14.034
66713SOL    HW1 1978  12.525  13.045  13.973
66713SOL    HW2 1979  12.480  13.098  14.108
66714SOL     OW 1980  13.617   5.079   9.459
66714SOL    HW1 1981  13.694   5.035   9.496
66714SOL    HW2 1982  13.589   5.140   9.527
66715SOL     OW 1983   9.343   8.197   7.409
66715SOL    HW1 1984   9.411   8.138   7.441
66715SOL    HW2 1985   9.385   8.283   7.409
66716SOL     OW 1986  14.316   3.139   3.603
66716SOL    HW1 1987  14.276   3.192   3.534
66716SOL    HW2 1988  14.299   3.189   3.683
66717SOL     OW 1989   1.999   8.158   0.850
66717SOL    HW1 1990   2.059   8.184   0.780
66717SOL    HW2 1991   2.039   8.193   0.930
66718SOL     OW 1992  11.479  12.444   1.984
66718SOL    HW1 1993  11.550  12.395   2.025
66718SOL    HW2 1994  11.414  12.378   1.961
66719SOL     OW 1995   6.875   3.038   5.377
66719SOL    HW1 1996   6.892   3.000   5.463
66719SOL    HW2 1997   6.881   2.964   5.316
66720SOL     OW 1998   4.604  10.620  12.292
66720SOL    HW1 1999   4.670  10.689  12.295
66720SOL    HW2 2000   4.575  10.610  12.382
66721SOL     OW 2001  14.653  14.255   1.964
66721SOL    HW1 2002  14.699  14.246   1.881
66721SOL    HW2 2003  14.566  14.289   1.940
66722SOL     OW 2004   8.349  10.501   0.434
66722SOL    HW1 2005   8.365  10.454   0.516
66722SOL    HW2 2006   8.432  10.495   0.387
66723SOL     OW 2007   4.851   1.986   2.692
66723SOL    HW1 2008   4.946   1.998   2.694
66723SOL    HW2 2009   4.837   1.898   2.726
66724SOL     OW 2010   2.874   5.019   0.568
66724SOL    HW1 2011   2.860   5.107   0.603
66724SOL    HW2 2012   2.792   4.998   0.523
66725SOL     OW 2013   9.503   6.157   3.264
66725SOL    HW1 2014   9.475   6.102   3.337
66725SOL    HW2 2015   9.425   6.209   3.244
66726SOL     OW 2016   5.824  10.705   9.062
66726SOL    HW1 2017   5.881  10.683   8.987
66726SOL    HW2 2018   5.867  10.664   9.137
66727SOL     OW 2019  10.583   6.576   5.471
66727SOL    HW1 2020  10.558   6.581   5.379
66727SOL    HW2 2021  10.539   6.497   5.503
66728SOL     OW 2022   6.878  14.816   5.077
66728SOL    HW1 2023   6.849  14.877   5.009
66728SOL    HW2 2024   6.866  14.729   5.039
66729SOL     OW 2025   7.552   4.984   7.490
66729SOL    HW1 2026   7.473   4.941   7.525
66729SOL    HW2 2027   7.573   4.935   7.411
66730SOL     OW 2028   4.255   2.018  14.878
66730SOL    HW1 2029   4.197   1.947   0.025
66730SOL    HW2 2030   4.322   2.021   0.067
66731SOL     OW 2031  13.715   3.128  10.697
66731SOL    HW1 2032  13.711   3.091  10.785
66731SOL    HW2 2033  13.768   3.065  10.648
66732SOL     OW 2034   3.047  14.693   3.464
66732SOL    HW1 2035   2.972  14.635   3.475
66732SOL    HW2 2036   3.123  14.640   3.490
66733SOL     OW 2037  14.122   8.305  11.303
66733SOL    HW1 2038  14.064   8.254  11.247
66733SOL    HW2 2039  14.091   8.289  11.392
66734SOL     OW 2040   2.599  12.020   0.675
66734SOL    HW1 2041   2.541  11.954   0.638
66734SOL    HW2 2042   2.680  11.973   0.696
66735SOL     OW 2043   6.467  10.324  13.161
66735SOL    HW1 2044   6.385  10.374  13.156
66735SOL    HW2 2045   6.460  10.275  13.243
66736SOL     OW 2046   9.018   1.637  10.853
66736SOL    HW1 2047   9.105   1.649  10.891
66736SOL    HW2 2048   8.979   1.724  10.854
66737SOL     OW 2049   3.128   5.006   8.460
66737SOL    HW1 2050   3.128   5.069   8.532
66737SOL    HW2 2051   3.036   4.998   8.436
66738SOL     OW 2052   1.642   7.937   0.928
66738SOL    HW1 2053   1.715   7.906   0.875
66738SOL    HW2 2054   1.647   7.885   1.008
66739SOL     OW 2055   5.651  11.412  14.300
66739SOL    HW1 2056   5.655  11.332  14.248
66739SOL    HW2 2057   5.605  11.475  14.244
66740SOL     OW 2058   3.163  10.681   7.076
66740SOL    HW1 2059   3.252  10.716   7.084
66740SOL    HW2 2060   3.132  10.713   6.991
66741SOL     OW 2061  12.116  11.151  12.562
66741SOL    HW1 2062  12.042  11.211  12.577
66741SOL    HW2 2063  12.194  11.206  12.572
66742SOL     OW 2064  10.464  13.033   0.014
66742SOL    HW1 2065  10.522  13.015  14.819
66742SOL    HW2 2066  10.456  12.949   0.058
66743SOL     OW 2067  11.833   8.273   2.055
66743SOL    HW1 2068  11.742   8.241   2.056
66743SOL    HW2 2069  11.871   8.239   2.136
66744SOL     OW 2070   4.250   7.373   8.083
66744SOL    HW1 2071   4.190   7.357   8.156
66744SOL    HW2 2072   4.332   7.332   8.110
66745SOL     OW 2073  10.616  11.939   4.527
66745SOL    HW1 2074  10.562  11.869   4.564
66745SOL    HW2 2075  10.683  11.956   4.592
66746SOL     OW 2076   5.521   6.935   4.481
66746SOL    HW1 2077   5.444   6.918   4.536
66746SOL    HW2 2078   5.514   6.872   4.410
66747SOL     OW 2079  13.344   0.519  12.711
66747SOL    HW1 2080  13.266   0.473  12.678
66747SOL    HW2 2081  13.338   0.606  12.672
66748SOL     OW 2082   7.604  12.598   9.383
66748SOL    HW1 2083   7.671  12.666   9.380
66748SOL    HW2 2084   7.552  12.619   9.460
66749SOL     OW 2085  14.442  14.432  12.072
66749SOL    HW1 2086  14.478  14.470  11.993
66749SOL    HW2 2087  14.347  14.445  12.064
66750SOL     OW 2088  11.261   2.099   1.584
66750SOL    HW1 2089  11.233   2.189   1.603
66750SOL    HW2 2090  11.195   2.065   1.524
66751SOL     OW 2091  10.962   7.015   7.718
66751SOL    HW1 2092  11.017   7.091   7.702
66751SOL    HW2 2093  10.909   7.040   7.794
66752SOL     OW 2094   8.783   3.800   1.546
66752SOL    HW1 2095   8.703   3.749   1.537
66752SOL    HW2 2096   8.763   3.884   1.506
66753SOL     OW 2097   4.870   2.828  10.497
66753SOL    HW1 2098   4.914   2.871  10.570
66753SOL    HW2 2099   4.940   2.793  10.443
66754SOL     OW 2100   1.142   6.882   4.793
66754SOL    HW1 2101   1.114   6.972   4.781
66754SOL    HW2 2102   1.078   6.845   4.854
66755SOL     OW 2103   3.294   6.142  11.912
66755SOL    HW1 2104   3.225   6.100  11.861
66755SOL    HW2 2105   3.265   6.233  11.921
66756SOL     OW 2106   0.252   0.958   6.085
66756SOL    HW1 2107   0.297   1.042   6.078
66756SOL    HW2 2108   0.161   0.981   6.105
66757SOL     OW 2109   3.402   3.783  12.164
66757SOL    HW1 2110   3.464   3.854  12.181
66757SOL    HW2 2111   3.454   3.703  12.172
66758SOL     OW 2112  10.483   3.219   1.677
66758SOL    HW1 2113  10.551   3.287   1.667
66758SOL    HW2 2114  10.519   3.159   1.742
66759SOL     OW 2115  10.786   0.932   8.956
66759SOL    HW1 2116  10.712   0.984   8.925
66759SOL    HW2 2117  10.789   0.949   9.050
66760SOL     OW 2118   3.948   2.518  13.009
66760SOL    HW1 2119   3.959   2.423  13.017
66760SOL    HW2 2120   3.858   2.534  13.035
66761SOL     OW 2121  12.367   2.228   3.635
66761SOL    HW1 2122  12.309   2.182   3.696
66761SOL    HW2 2123  12.326   2.314   3.623
66762SOL     OW 2124   6.179   5.510   5.096
66762SOL    HW1 2125   6.148   5.528   5.008
66762SOL    HW2 2126   6.100   5.513   5.151
66763SOL     OW 2127   4.186   3.274  14.276
66763SOL    HW1 2128   4.194   3.193  14.225
66763SOL    HW2 2129   4.228   3.253  14.360
66764SOL     OW 2130   9.677   1.837   3.768
66764SOL    HW1 2131   9.758   1.850   3.718
66764SOL    HW2 2132   9.698   1.766   3.828
66765SOL     OW 2133  12.242   5.088  12.160
66765SOL    HW1 2134  12.233   5.176  12.123
66765SOL    HW2 2135  12.172   5.038  12.119
66766SOL     OW 2136   1.254   1.260   0.245
66766SOL    HW1 2137   1.244   1.333   0.184
66766SOL    HW2 2138   1.334   1.216   0.217
66767SOL     OW 2139   2.283  14.794   2.832
66767SOL    HW1 2140   2.348  14.857   2.863
66767SOL    HW2 2141   2.335  14.718   2.805
66768SOL     OW 2142   4.128   0.851   3.818
66768SOL    HW1 2143   4.198   0.872   3.880
66768SOL    HW2 2144   4.125   0.925   3.758
66769SOL     OW 2145  11.296   1.776  11.287
66769SOL    HW1 2146  11.262   1.687  11.275
66769SOL    HW2 2147  11.375   1.765  11.340
66770SOL     OW 2148   0.409   8.869   8.033
66770SOL    HW1 2149   0.477   8.818   7.989
66770SOL    HW2 2150   0.335   8.867   7.972
66771SOL     OW 2151  10.910   2.046  10.833
66771SOL    HW1 2152  10.855   2.004  10.900
66771SOL    HW2 2153  10.999   2.037  10.866
66772SOL     OW 2154   4.259  11.679  13.555
66772SOL    HW1 2155   4.273  11.770  13.530
66772SOL    HW2 2156   4.164  11.668  13.552
66773SOL     OW 2157   2.872   2.596   2.103
66773SOL    HW1 2158   2.810   2.648   2.154
66773SOL    HW2 2159   2.820   2.523   2.069
66774SOL     OW 2160   9.866  11.975  11.153
66774SOL    HW1 2161   9.770  11.968  11.150
66774SOL    HW2 2162   9.889  12.016  11.070
66775SOL     OW 2163  13.594   9.085  12.618
66775SOL    HW1 2164  13.633   9.166  12.584
66775SOL    HW2 2165  13.664   9.020  12.609
66776SOL     OW 2166  13.264   0.045  13.090
66776SOL    HW1 2167  13.330   0.114  13.091
66776SOL    HW2 2168  13.183   0.088  13.115
66777SOL     OW 2169   8.409   2.750   8.096
66777SOL    HW1 2170   8.349   2.804   8.046
66777SOL    HW2 2171   8.490   2.802   8.102
66778SOL     OW 2172  10.878   1.455   2.736
66778SOL    HW1 2173  10.965   1.418   2.752
66778SOL    HW2 2174  10.885   1.546   2.763
66779SOL     OW 2175   0.756   6.234   9.049
66779SOL    HW1 2176   0.741   6.140   9.064
66779SOL    HW2 2177   0.803   6.263   9.126
66780SOL     OW 2178  13.873   8.037  11.556
66780SOL    HW1 2179  13.868   8.026  11.651
66780SOL    HW2 2180  13.828   8.119  11.539
66781SOL     OW 2181   2.481   3.463   7.021
66781SOL    HW1 2182   2.417   3.522   6.981
66781SOL    HW2 2183   2.564   3.510   7.013
66782SOL     OW 2184   7.642   6.871   8.991
66782SOL    HW1 2185   7.551   6.902   8.998
66782SOL    HW2 2186   7.652   6.809   9.063
66783SOL     OW 2187  11.282   8.047  13.311
66783SOL    HW1 2188  11.204   7.992  13.303
66783SOL    HW2 2189  11.265   8.101  13.388
66784SOL     OW 2190  12.176   0.102   6.629
66784SOL    HW1 2191  12.157   0.069   6.717
66784SOL    HW2 2192  12.249   0.162   6.641
66785SOL     OW 2193   7.137   9.131   7.903
66785SOL    HW1 2194   7.227   9.152   7.878
66785SOL    HW2 2195   7.122   9.182   7.982
66786SOL     OW 2196   1.669  13.513  13.677
66786SOL    HW1 2197   1.692  13.437  13.623
66786SOL    HW2 2198   1.576  13.526  13.661
66787SOL     OW 2199   3.197   9.679  11.308
66787SOL    HW1 2200   3.182   9.666  11.214
66787SOL    HW2 2201   3.273   9.624  11.328
66788SOL     OW 2202   8.287   7.616  10.512
66788SOL    HW1 2203   8.209   7.589  10.561
66788SOL    HW2 2204   8.357   7.563  10.548
66789SOL     OW 2205   5.222  13.828   7.673
66789SOL    HW1 2206   5.194  13.917   7.651
66789SOL    HW2 2207   5.315  13.826   7.654
66790SOL     OW 2208  10.373   3.207   2.710
66790SOL    HW1 2209  10.386   3.197   2.804
66790SOL    HW2 2210  10.446   3.263   2.682
66791SOL     OW 2211   8.280  14.724   0.565
66791SOL    HW1 2212   8.305  14.674   0.487
66791SOL    HW2 2213   8.322  14.678   0.638
66792SOL     OW 2214  14.813   9.481   0.051
66792SOL    HW1 2215  14.832   9.388   0.055
66792SOL    HW2 2216  14.756   9.491  14.855
66793SOL     OW 2217  11.304  12.716   7.170
66793SOL    HW1 2218  11.242  12.697   7.099
66793SOL    HW2 2219  11.291  12.809   7.189
66794SOL     OW 2220  13.560   4.606   2.157
66794SOL    HW1 2221  13.571   4.672   2.089
66794SOL    HW2 2222  13.642   4.556   2.156
66795SOL     OW 2223  13.992   5.835   0.559
66795SOL    HW1 2224  13.939   5.789   0.625
66795SOL    HW2 2225  14.035   5.906   0.607
66796SOL     OW 2226   4.322   3.099   9.049
66796SOL    HW1 2227   4.397   3.065   9.000
66796SOL    HW2 2228   4.302   3.030   9.112
66797SOL     OW 2229  12.315   2.397  13.446
66797SOL    HW1 2230  12.356   2.408  13.360
66797SOL    HW2 2231  12.376   2.339  13.493
66798SOL     OW 2232  11.976   7.424   9.220
66798SOL    HW1 2233  11.963   7.354   9.283
66798SOL    HW2 2234  11.897   7.421   9.165
66799SOL     OW 2235  12.472   6.068   6.114
66799SOL    HW1 2236  12.557   6.034   6.141
66799SOL    HW2 2237  12.452   6.136   6.178
66800SOL     OW 2238   6.058   7.812  13.817
66800SOL    HW1 2239   6.023   7.729  13.786
66800SOL    HW2 2240   6.139   7.789  13.863
66801SOL     OW 2241   9.525  11.038   0.740
66801SOL    HW1 2242   9.499  11.011   0.652
66801SOL    HW2 2243   9.465  10.992   0.798
66802SOL     OW 2244   7.274  13.250   8.903
66802SOL    HW1 2245   7.346  13.253   8.840
66802SOL    HW2 2246   7.296  13.317   8.968
66803SOL     OW 2247  11.211   6.648  13.407
66803SOL    HW1 2248  11.190   6.676  13.318
66803SOL    HW2 2249  11.135   6.673  13.459
66804SOL     OW 2250   9.740  11.235  14.422
66804SOL    HW1 2251   9.786  11.316  14.446
66804SOL    HW2 2252   9.810  11.177  14.391
66805SOL     OW 2253   8.326   6.042   4.860
66805SOL    HW1 2254   8.281   5.980   4.917
66805SOL    HW2 2255   8.339   6.120   4.914
66806SOL     OW 2256   0.958  12.632   2.140
66806SOL    HW1 2257   0.880  12.594   2.100
66806SOL    HW2 2258   0.934  12.724   2.157
66807SOL     OW 2259   7.870   0.659   4.614
66807SOL    HW1 2260   7.931   0.718   4.656
66807SOL    HW2 2261   7.920   0.617   4.544
66808SOL     OW 2262  12.062   5.846   9.368
66808SOL    HW1 2263  12.041   5.907   9.297
66808SOL    HW2 2264  11.985   5.789   9.374
66809SOL     OW 2265   9.718   0.714   8.913
66809SOL    HW1 2266   9.646   0.765   8.949
66809SOL    HW2 2267   9.693   0.697   8.822
66810SOL     OW 2268  11.693   8.537  10.358
66810SOL    HW1 2269  11.631   8.607  10.381
66810SOL    HW2 2270  11.638   8.461  10.342
66811SOL     OW 2271  11.641   6.422   8.364
66811SOL    HW1 2272  11.729   6.432   8.399
66811SOL    HW2 2273  11.643   6.468   8.280
66812SOL     OW 2274   0.833   6.986  10.408
66812SOL    HW1 2275   0.874   6.973  10.493
66812SOL    HW2 2276   0.772   7.059  10.422
66813SOL     OW 2277   1.654   0.008  13.855
66813SOL    HW1 2278   1.636   0.018  13.948
66813SOL    HW2 2279   1.657  14.793  13.841
66814SOL     OW 2280   4.741   3.248   0.765
66814SOL    HW1 2281   4.795   3.258   0.687
66814SOL    HW2 2282   4.695   3.332   0.773
66815SOL     OW 2283  11.360  12.594   6.166
66815SOL    HW1 2284  11.277  12.640   6.181
66815SOL    HW2 2285  11.427  12.659   6.188
66816SOL     OW 2286   5.979   7.561  13.707
66816SOL    HW1 2287   6.010   7.564  13.616
66816SOL    HW2 2288   5.974   7.468  13.728
66817SOL     OW 2289   7.623   3.330   7.462
66817SOL    HW1 2290   7.632   3.338   7.367
66817SOL    HW2 2291   7.713   3.320   7.494
66818SOL     OW 2292   3.798   6.554  13.942
66818SOL    HW1 2293   3.796   6.642  13.903
66818SOL    HW2 2294   3.711   6.543  13.981
66819SOL     OW 2295  13.243  13.521   7.919
66819SOL    HW1 2296  13.333  13.499   7.894
66819SOL    HW2 2297  13.207  13.439   7.952
66820SOL     OW 2298  10.294   8.820   2.459
66820SOL    HW1 2299  10.348   8.899   2.453
66820SOL    HW2 2300  10.272   8.814   2.552
66821SOL     OW 2301   2.502  10.140   7.562
66821SOL    HW1 2302   2.408  10.137   7.545
66821SOL    HW2 2303   2.527  10.049   7.576
66822SOL     OW 2304   2.018  14.407   5.560
66822SOL    HW1 2305   2.061  14.486   5.527
66822SOL    HW2 2306   1.941  14.440   5.607
66823SOL     OW 2307   0.881   4.591   5.793
66823SOL    HW1 2308   0.961   4.638   5.772
66823SOL    HW2 2309   0.826   4.601   5.715
66824SOL     OW 2310  13.406   0.424   8.840
66824SOL    HW1 2311  13.338   0.474   8.886
66824SOL    HW2 2312  13.478   0.486   8.829
66825SOL     OW 2313   6.970   7.807  14.269
66825SOL    HW1 2314   7.015   7.756  14.202
66825SOL    HW2 2315   6.973   7.752  14.347
66826SOL     OW 2316   1.510   3.286   3.712
66826SOL    HW1 2317   1.417   3.274   3.731
66826SOL    HW2 2318   1.537   3.204   3.670
66827SOL     OW 2319   9.331   4.189  14.666
66827SOL    HW1 2320   9.240   4.157  14.665
66827SOL    HW2 2321   9.327   4.271  14.714
66828SOL     OW 2322   5.688   9.696   4.597
66828SOL    HW1 2323   5.686   9.712   4.503
66828SOL    HW2 2324   5.702   9.783   4.636
66829SOL     OW 2325  14.635   8.226  12.114
66829SOL    HW1 2326  14.598   8.209  12.028
66829SOL    HW2 2327  14.693   8.151  12.130
66830SOL     OW 2328   5.089  10.369   1.529
66830SOL    HW1 2329   5.061  10.453   1.494
66830SOL    HW2 2330   5.101  10.313   1.452
66831SOL     OW 2331   3.491   0.101   9.581
66831SOL    HW1 2332   3.473   0.010   9.556
66831SOL    HW2 2333   3.417   0.151   9.545
66832SOL     OW 2334  13.324   2.185   4.957
66832SOL    HW1 2335  13.302   2.106   4.908
66832SOL    HW2 2336  13.350   2.248   4.890
66833SOL     OW 2337   4.562   1.716   5.238
66833SOL    HW1 2338   4.618   1.755   5.172
66833SOL    HW2 2339   4.569   1.621   5.223
66834SOL     OW 2340  13.500  14.768  10.441
66834SOL    HW1 2341  13.530  14.821  10.515
66834SOL    HW2 2342  13.502  14.678  10.474
66835SOL     OW 2343  14.694   5.391  13.541
66835SOL    HW1 2344  14.744   5.385  13.460
66835SOL    HW2 2345  14.645   5.473  13.533
66836SOL     OW 2346   9.455   2.589   8.917
66836SOL    HW1 2347   9.386   2.632   8.866
66836SOL    HW2 2348   9.431   2.496   8.915
66837SOL     OW 2349   6.296   9.074   5.357
66837SOL    HW1 2350   6.326   9.137   5.422
66837SOL    HW2 2351   6.219   9.033   5.396
66838SOL     OW 2352  11.113   9.627  11.250
66838SOL    HW1 2353  11.160   9.598  11.172
66838SOL    HW2 2354  11.052   9.556  11.269
66839SOL     OW 2355  12.317  13.623   5.735
66839SOL    HW1 2356  12.313  13.643   5.641
66839SOL    HW2 2357  12.332  13.708   5.776
66840SOL     OW 2358  14.721  10.295   8.968
66840SOL    HW1 2359  14.775  10.372   8.955
66840SOL    HW2 2360  14.778  10.233   9.013
66841SOL     OW 2361  13.510  11.487   3.060
66841SOL    HW1 2362  13.502  11.581   3.077
66841SOL    HW2 2363  13.602  11.467   3.073
66842SOL     OW 2364   8.922  11.052  12.351
66842SOL    HW1 2365   8.924  11.141  12.316
66842SOL    HW2 2366   8.991  11.006  12.303
66843SOL     OW 2367   9.564   5.503  12.809
66843SOL    HW1 2368   9.603   5.583  12.843
66843SOL    HW2 2369   9.553   5.447  12.885
66844SOL     OW 2370   6.834   5.689   1.150
66844SOL    HW1 2371   6.792   5.688   1.236
66844SOL    HW2 2372   6.761   5.685   1.088
66845SOL     OW 2373   6.209   4.204   6.250
66845SOL    HW1 2374   6.227   4.193   6.157
66845SOL    HW2 2375   6.159   4.286   6.255
66846SOL     OW 2376   6.180   5.989  11.600
66846SOL    HW1 2377   6.213   5.967  11.686
66846SOL    HW2 2378   6.086   5.972  11.606
66847SOL     OW 2379  11.689  13.204   5.617
66847SOL    HW1 2380  11.677  13.112   5.641
66847SOL    HW2 2381  11.753  13.203   5.547
66848SOL     OW 2382  14.574  10.268   5.034
66848SOL    HW1 2383  14.568  10.229   5.121
66848SOL    HW2 2384  14.643  10.219   4.990
66849SOL     OW 2385   8.977   8.184   0.624
66849SOL    HW1 2386   8.886   8.167   0.649
66849SOL    HW2 2387   9.023   8.195   0.707
66850SOL     OW 2388  11.349   5.515  14.476
66850SOL    HW1 2389  11.317   5.508  14.386
66850SOL    HW2 2390  11.444   5.515  14.467
66851SOL     OW 2391   6.702   1.904  11.494
66851SOL    HW1 2392   6.672   1.989  11.525
66851SOL    HW2 2393   6.790   1.919  11.461
66852SOL     OW 2394   2.120   7.853   5.801
66852SOL    HW1 2395   2.052   7.808   5.851
66852SOL    HW2 2396   2.202   7.816   5.833
66853SOL     OW 2397  12.311   3.570   9.128
66853SOL    HW1 2398  12.386   3.571   9.187
66853SOL    HW2 2399  12.271   3.656   9.139
66854SOL     OW 2400   0.197   8.132   7.366
66854SOL    HW1 2401   0.192   8.039   7.390
66854SOL    HW2 2402   0.127   8.144   7.302
66855SOL     OW 2403  14.829   0.111   7.461
66855SOL    HW1 2404  14.767   0.177   7.491
66855SOL    HW2 2405  14.802   0.089   7.372
66856SOL     OW 2406  12.174   2.908  14.119
66856SOL    HW1 2407  12.175   2.941  14.208
66856SOL    HW2 2408  12.086   2.873  14.106
66857SOL     OW 2409   7.236   0.469   2.522
66857SOL    HW1 2410   7.196   0.549   2.488
66857SOL    HW2 2411   7.330   0.479   2.503
66858SOL     OW 2412   9.105  12.896   0.475
66858SOL    HW1 2413   9.044  12.896   0.401
66858SOL    HW2 2414   9.051  12.918   0.550
66859SOL     OW 2415   6.352   5.886   0.548
66859SOL    HW1 2416   6.385   5.972   0.576
66859SOL    HW2 2417   6.350   5.834   0.628
66860SOL     OW 2418  14.300   2.659  11.439
66860SOL    HW1 2419  14.381   2.705  11.421
66860SOL    HW2 2420  14.326   2.568  11.453
66861SOL     OW 2421   9.805   2.201   2.133
66861SOL    HW1 2422   9.746   2.265   2.094
66861SOL    HW2 2423   9.817   2.230   2.223
66862SOL     OW 2424   7.615   9.762   5.054
66862SOL    HW1 2425   7.674   9.695   5.089
66862SOL    HW2 2426   7.571   9.798   5.131
66863SOL     OW 2427   3.647   1.479   9.570
66863SOL    HW1 2428   3.700   1.469   9.649
66863SOL    HW2 2429   3.659   1.570   9.544
66864SOL     OW 2430   9.655  13.209   0.666
66864SOL    HW1 2431   9.595  13.150   0.711
66864SOL    HW2 2432   9.742  13.177   0.690
66865SOL     OW 2433   8.100   2.593   8.375
66865SOL    HW1 2434   8.024   2.636   8.415
66865SOL    HW2 2435   8.064   2.513   8.336
66866SOL     OW 2436   1.144  12.466   1.281
66866SOL    HW1 2437   1.146  12.381   1.238
66866SOL    HW2 2438   1.235  12.484   1.304
66867SOL     OW 2439  12.944   0.294  10.336
66867SOL    HW1 2440  13.020   0.351  10.324
66867SOL    HW2 2441  12.870   0.346  10.304
66868SOL     OW 2442   2.643   9.176   4.934
66868SOL    HW1 2443   2.547   9.173   4.944
66868SOL    HW2 2444   2.658   9.229   4.857
66869SOL     OW 2445   7.160  10.202   3.198
66869SOL    HW1 2446   7.075  10.182   3.160
66869SOL    HW2 2447   7.216  10.222   3.123
66870SOL     OW 2448   2.965   2.800   2.370
66870SOL    HW1 2449   3.029   2.840   2.312
66870SOL    HW2 2450   3.004   2.717   2.397
66871SOL     OW 2451   4.461   6.054  12.029
66871SOL    HW1 2452   4.371   6.085  12.039
66871SOL    HW2 2453   4.516   6.126  12.060
66872SOL     OW 2454   6.581   0.196  10.747
66872SOL    HW1 2455   6.515   0.181  10.679
66872SOL    HW2 2456   6.659   0.149  10.716
66873SOL     OW 2457   0.353   8.594   8.816
66873SOL    HW1 2458   0.313   8.607   8.902
66873SOL    HW2 2459   0.444   8.618   8.828
66874SOL     OW 2460   1.732   8.841   8.587
66874SOL    HW1 2461   1.806   8.886   8.628
66874SOL    HW2 2462   1.723   8.760   8.636
66875SOL     OW 2463   0.912   4.103   5.832
66875SOL    HW1 2464   0.825   4.099   5.793
66875SOL    HW2 2465   0.927   4.197   5.848
66876SOL     OW 2466   0.868   1.853   9.706
66876SOL    HW1 2467   0.824   1.872   9.623
66876SOL    HW2 2468   0.960   1.842   9.682
66877SOL     OW 2469  12.907  12.099  11.492
66877SOL    HW1 2470  12.927  12.096  11.585
66877SOL    HW2 2471  12.827  12.152  11.486
66878SOL     OW 2472   7.317   9.980   4.199
66878SOL    HW1 2473   7.351  10.041   4.265
66878SOL    HW2 2474   7.231  10.015   4.176
66879SOL     OW 2475   4.611   3.471   0.790
66879SOL    HW1 2476   4.580   3.532   0.857
66879SOL    HW2 2477   4.547   3.478   0.719
66880SOL     OW 2478  11.650   8.386   2.954
66880SOL    HW1 2479  11.713   8.411   2.886
66880SOL    HW2 2480  11.655   8.291   2.956
66881SOL     OW 2481  12.161   2.191   4.297
66881SOL    HW1 2482  12.078   2.146   4.285
66881SOL    HW2 2483  12.227   2.122   4.288
66882SOL     OW 2484   4.823  10.784   3.395
66882SOL    HW1 2485   4.791  10.702   3.357
66882SOL    HW2 2486   4.876  10.823   3.325
66883SOL     OW 2487  11.691   2.677  13.815
66883SOL    HW1 2488  11.736   2.626  13.882
66883SOL    HW2 2489  11.655   2.752  13.862
66884SOL     OW 2490   6.918   5.974  13.678
66884SOL    HW1 2491   6.844   5.919  13.705
66884SOL    HW2 2492   6.960   6.000  13.760
66885SOL     OW 2493   1.990   0.441   0.925
66885SOL    HW1 2494   1.993   0.537   0.925
66885SOL    HW2 2495   2.077   0.414   0.897
66886SOL     OW 2496   5.189   5.566   9.146
66886SOL    HW1 2497   5.150   5.495   9.095
66886SOL    HW2 2498   5.184   5.535   9.237
66887SOL     OW 2499   1.955  11.609   4.977
66887SOL    HW1 2500   2.037  11.560   4.979
66887SOL    HW2 2501   1.897  11.556   4.923
66888SOL     OW 2502  12.345   6.449  14.626
66888SOL    HW1 2503  12.327   6.358  14.653
66888SOL    HW2 2504  12.288   6.463  14.551
66889SOL     OW 2505   5.474  12.411   0.140
66889SOL    HW1 2506   5.510  12.341   0.086
66889SOL    HW2 2507   5.550  12.456   0.176
66890SOL     OW 2508  14.575  10.356  11.128
66890SOL    HW1 2509  14.486  10.323  11.131
66890SOL    HW2 2510  14.595  10.379  11.219
66891SOL     OW 2511   9.116   7.020  13.062
66891SOL    HW1 2512   9.074   6.940  13.030
66891SOL    HW2 2513   9.067   7.043  13.141
66892SOL     OW 2514   6.162  14.205   3.664
66892SOL    HW1 2515   6.131  14.114   3.659
66892SOL    HW2 2516   6.256  14.197   3.680
66893SOL     OW 2517  14.026  13.330   6.140
66893SOL    HW1 2518  14.050  13.422   6.127
66893SOL    HW2 2519  14.086  13.297   6.206
66894SOL     OW 2520   6.147   2.628   6.241
66894SOL    HW1 2521   6.215   2.651   6.304
66894SOL    HW2 2522   6.146   2.702   6.180
66895SOL     OW 2523  10.580   1.206   4.177
66895SOL    HW1 2524  10.658   1.172   4.133
66895SOL    HW2 2525  10.507   1.175   4.123
66896SOL     OW 2526  10.155   9.124  12.580
66896SOL    HW1 2527  10.198   9.163  12.656
66896SOL    HW2 2528  10.217   9.137  12.508
66897SOL     OW 2529   8.605   0.261   2.289
66897SOL    HW1 2530   8.522   0.235   2.328
66897SOL    HW2 2531   8.666   0.191   2.313
66898SOL     OW 2532   8.094   2.821   0.294
66898SOL    HW1 2533   8.148   2.889   0.254
66898SOL    HW2 2534   8.004   2.844   0.270
66899SOL     OW 2535   3.853   8.534   2.752
66899SOL    HW1 2536   3.790   8.530   2.824
66899SOL    HW2 2537   3.917   8.600   2.780
66900SOL     OW 2538  11.106   8.284   4.999
66900SOL    HW1 2539  11.028   8.269   5.053
66900SOL    HW2 2540  11.075   8.272   4.909
66901SOL     OW 2541   8.847   9.455   9.842
66901SOL    HW1 2542   8.822   9.387   9.779
66901SOL    HW2 2543   8.859   9.534   9.789
66902SOL     OW 2544  11.081  10.770   3.861
66902SOL    HW1 2545  11.077  10.815   3.946
66902SOL    HW2 2546  11.018  10.699   3.870
66903SOL     OW 2547   3.011   2.260  11.357
66903SOL    HW1 2548   2.957   2.187  11.386
66903SOL    HW2 2549   3.100   2.236  11.384
66904SOL     OW 2550   2.424   3.198  14.018
66904SOL    HW1 2551   2.446   3.110  13.989
66904SOL    HW2 2552   2.366   3.185  14.093
66905SOL     OW 2553  11.778  12.844   8.706
66905SOL    HW1 2554  11.778  12.793   8.625
66905SOL    HW2 2555  11.871  12.854   8.728
66906SOL     OW 2556  10.514   8.419   5.296
66906SOL    HW1 2557  10.581   8.382   5.238
66906SOL    HW2 2558  10.447   8.452   5.238
66907SOL     OW 2559   4.217  10.264   8.623
66907SOL    HW1 2560   4.156  10.318   8.672
66907SOL    HW2 2561   4.268  10.218   8.689
66908SOL     OW 2562   4.849   5.913   7.507
66908SOL    HW1 2563   4.901   5.981   7.464
66908SOL    HW2 2564   4.795   5.961   7.570
66909SOL     OW 2565  13.237   7.605   7.526
66909SOL    HW1 2566  13.309   7.664   7.501
66909SOL    HW2 2567  13.158   7.656   7.511
66910SOL     OW 2568   2.701  14.055   8.228
66910SOL    HW1 2569   2.702  14.149   8.211
66910SOL    HW2 2570   2.721  14.015   8.143
66911SOL     OW 2571  10.466  11.038   6.145
66911SOL    HW1 2572  10.519  11.047   6.066
66911SOL    HW2 2573  10.486  10.950   6.177
66912SOL     OW 2574  12.280  14.603   5.438
66912SOL    HW1 2575  12.360  14.553   5.451
66912SOL    HW2 2576  12.270  14.655   5.518
66913SOL     OW 2577   0.299   2.801   7.905
66913SOL    HW1 2578   0.315   2.867   7.838
66913SOL    HW2 2579   0.204   2.804   7.919
66914SOL     OW 2580   2.658  14.156   9.596
66914SOL    HW1 2581   2.597  14.104   9.648
66914SOL    HW2 2582   2.641  14.246   9.624
66915SOL     OW 2583   7.920  12.635   1.701
66915SOL    HW1 2584   7.995  12.694   1.708
66915SOL    HW2 2585   7.859  12.665   1.768
66916SOL     OW 2586   0.029  10.591   2.325
66916SOL    HW1 2587   0.007  10.672   2.278
66916SOL    HW2 2588   0.063  10.621   2.409
66917SOL     OW 2589   3.341   4.878  12.050
66917SOL    HW1 2590   3.270   4.821  12.021
66917SOL    HW2 2591   3.409   4.867  11.984
66918SOL     OW 2592   6.833   4.619   5.736
66918SOL    HW1 2593   6.801   4.693   5.685
66918SOL    HW2 2594   6.895   4.575   5.679
66919SOL     OW 2595  11.018  12.881   8.169
66919SOL    HW1 2596  10.932  12.872   8.128
66919SOL    HW2 2597  11.073  12.819   8.123
66920SOL     OW 2598   4.712  11.220   7.930
66920SOL    HW1 2599   4.749  11.136   7.904
66920SOL    HW2 2600   4.760  11.244   8.010
66921SOL     OW 2601   8.399   4.713   1.456
66921SOL    HW1 2602   8.352   4.724   1.373
66921SOL    HW2 2603   8.491   4.731   1.433
66922SOL     OW 2604  12.719  12.960   3.751
66922SOL    HW1 2605  12.659  12.973   3.825
66922SOL    HW2 2606  12.679  12.891   3.699
66923SOL     OW 2607   7.270  12.877   7.494
66923SOL    HW1 2608   7.178  12.855   7.512
66923SOL    HW2 2609   7.283  12.850   7.403
66924SOL     OW 2610   1.072   0.544   1.191
66924SOL    HW1 2611   1.014   0.469   1.180
66924SOL    HW2 2612   1.021   0.619   1.159
66925SOL     OW 2613  10.294   2.332  10.390
66925SOL    HW1 2614  10.336   2.371  10.467
66925SOL    HW2 2615  10.211   2.297  10.422
66926SOL     OW 2616   3.040   1.169   8.521
66926SOL    HW1 2617   3.056   1.086   8.475
66926SOL    HW2 2618   2.952   1.159   8.557
66927SOL     OW 2619   3.595   6.162   4.589
66927SOL    HW1 2620   3.662   6.184   4.653
66927SOL    HW2 2621   3.540   6.240   4.584
66928SOL     OW 2622  14.022   2.665   5.583
66928SOL    HW1 2623  14.023   2.684   5.677
66928SOL    HW2 2624  14.024   2.570   5.579
66929SOL     OW 2625   3.766   5.413   1.706
66929SOL    HW1 2626   3.759   5.504   1.733
66929SOL    HW2 2627   3.675   5.383   1.701
66930SOL     OW 2628  10.605  11.066   9.677
66930SOL    HW1 2629  10.666  10.995   9.698
66930SOL    HW2 2630  10.554  11.079   9.757
66931SOL     OW 2631  14.282   6.611   3.082
66931SOL    HW1 2632  14.333   6.531   3.095
66931SOL    HW2 2633  14.205   6.600   3.138
66932SOL     OW 2634  13.847  12.900   2.867
66932SOL    HW1 2635  13.777  12.866   2.921
66932SOL    HW2 2636  13.803  12.936   2.790
66933SOL     OW 2637  13.363   8.495   4.066
66933SOL    HW1 2638  13.325   8.547   4.137
66933SOL    HW2 2639  13.313   8.520   3.989
66934SOL     OW 2640  13.877   7.643  13.482
66934SOL    HW1 2641  13.881   7.637  13.577
66934SOL    HW2 2642  13.868   7.737  13.464
66935SOL     OW 2643   3.309   2.608   0.007
66935SOL    HW1 2644   3.267   2.592   0.091
66935SOL    HW2 2645   3.273   2.692  14.858
66936SOL     OW 2646  12.702  13.933   2.106
66936SOL    HW1 2647  12.732  13.903   2.020
66936SOL    HW2 2648  12.731  14.024   2.111
66937SOL     OW 2649   2.735   8.588   7.750
66937SOL    HW1 2650   2.829   8.581   7.736
66937SOL    HW2 2651   2.703   8.641   7.678
66938SOL     OW 2652  12.592   8.589   2.809
66938SOL    HW1 2653  12.581   8.506   2.761
66938SOL    HW2 2654  12.590   8.656   2.741
66939SOL     OW 2655   3.473   5.672   3.391
66939SOL    HW1 2656   3.502   5.687   3.301
66939SOL    HW2 2657   3.498   5.582   3.410
66940SOL     OW 2658  12.283  11.608   6.724
66940SOL    HW1 2659  12.218  11.597   6.794
66940SOL    HW2 2660  12.238  11.577   6.645
66941SOL     OW 2661   2.274  12.855  10.757
66941SOL    HW1 2662   2.362  12.843  10.719
66941SOL    HW2 2663   2.216  12.862  10.681
66942SOL     OW 2664   5.582   5.196   7.794
66942SOL    HW1 2665   5.517   5.186   7.863
66942SOL    HW2 2666   5.532   5.213   7.714
66943SOL     OW 2667   6.611  11.179  12.530
66943SOL    HW1 2668   6.634  11.185  12.623
66943SOL    HW2 2669   6.516  11.170  12.529
66944SOL     OW 2670  13.227   5.731   1.589
66944SOL    HW1 2671  13.202   5.782   1.512
66944SOL    HW2 2672  13.245   5.797   1.656
66945SOL     OW 2673   1.707   7.271  12.210
66945SOL    HW1 2674   1.667   7.351  12.243
66945SOL    HW2 2675   1.665   7.200  12.259
66946SOL     OW 2676   3.007   8.107   1.602
66946SOL    HW1 2677   3.022   8.135   1.512
66946SOL    HW2 2678   2.918   8.072   1.601
66947SOL     OW 2679   7.871   2.053   9.664
66947SOL    HW1 2680   7.860   2.145   9.686
66947SOL    HW2 2681   7.965   2.039   9.663
66948SOL     OW 2682  13.567   1.066  13.598
66948SOL    HW1 2683  13.655   1.090  13.624
66948SOL    HW2 2684  13.556   0.975  13.626
66949SOL     OW 2685   6.571  13.007   2.514
66949SOL    HW1 2686   6.505  13.073   2.494
66949SOL    HW2 2687   6.540  12.966   2.595
66950SOL     OW 2688   2.048  13.987   9.953
66950SOL    HW1 2689   2.048  13.914  10.015
66950SOL    HW2 2690   2.124  13.971   9.897
66951SOL     OW 2691   1.885  11.668   5.769
66951SOL    HW1 2692   1.803  11.673   5.819
66951SOL    HW2 2693   1.875  11.734   5.701
66952SOL     OW 2694  13.606   9.199   6.811
66952SOL    HW1 2695  13.693   9.234   6.792
66952SOL    HW2 2696  13.559   9.272   6.852
66953SOL     OW 2697   0.433   3.504   1.018
66953SOL    HW1 2698   0.468   3.426   1.062
66953SOL    HW2 2699   0.365   3.471   0.960
66954SOL     OW 2700  10.683  11.750   6.948
66954SOL    HW1 2701  10.733  11.776   7.026
66954SOL    HW2 2702  10.598  11.720   6.983
66955SOL     OW 2703  14.582  11.453  11.470
66955SOL    HW1 2704  14.567  11.373  11.420
66955SOL    HW2 2705  14.599  11.520  11.403
66956SOL     OW 2706  10.019  13.195   7.266
66956SOL    HW1 2707   9.974  13.237   7.339
66956SOL    HW2 2708  10.072  13.264   7.227
66957SOL     OW 2709  12.440   3.485  11.120
66957SOL    HW1 2710  12.520   3.438  11.140
66957SOL    HW2 2711  12.379   3.459  11.189
66958SOL     OW 2712  11.568   7.614   2.950
66958SOL    HW1 2713  11.499   7.574   2.897
66958SOL    HW2 2714  11.584   7.550   3.020
66959SOL     OW 2715   8.502  10.533  14.741
66959SOL    HW1 2716   8.533  10.444  14.759
66959SOL    HW2 2717   8.461  10.561  14.822
66960SOL     OW 2718   7.545   6.541  14.447
66960SOL    HW1 2719   7.626   6.549  14.395
66960SOL    HW2 2720   7.574   6.545  14.538
66961SOL     OW 2721  10.492   9.785   6.371
66961SOL    HW1 2722  10.494   9.689   6.373
66961SOL    HW2 2723  10.481   9.807   6.278
66962SOL     OW 2724  14.611   5.518   3.901
66962SOL    HW1 2725  14.630   5.572   3.824
66962SOL    HW2 2726  14.568   5.441   3.867
66963SOL     OW 2727  12.568   2.818   4.752
66963SOL    HW1 2728  12.503   2.879   4.718
66963SOL    HW2 2729  12.530   2.786   4.834
66964SOL     OW 2730   1.106   3.808   7.251
66964SOL    HW1 2731   1.182   3.793   7.194
66964SOL    HW2 2732   1.129   3.763   7.333
66965SOL     OW 2733  10.377  14.386   1.109
66965SOL    HW1 2734  10.404  14.470   1.071
66965SOL    HW2 2735  10.364  14.328   1.034
66966SOL     OW 2736  12.133  13.521   7.702
66966SOL    HW1 2737  12.160  13.450   7.643
66966SOL    HW2 2738  12.143  13.600   7.649
66967SOL     OW 2739   3.746   4.067   7.560
66967SOL    HW1 2740   3.741   4.157   7.527
66967SOL    HW2 2741   3.698   4.069   7.642
66968SOL     OW 2742   4.739   7.290   8.414
66968SOL    HW1 2743   4.679   7.356   8.449
66968SOL    HW2 2744   4.683   7.231   8.364
66969SOL     OW 2745  12.340   0.195  14.107
66969SOL    HW1 2746  12.261   0.248  14.092
66969SOL    HW2 2747  12.412   0.257  14.094
66970SOL     OW 2748   1.139   4.914  14.740
66970SOL    HW1 2749   1.205   4.876  14.798
66970SOL    HW2 2750   1.129   5.004  14.770
66971SOL     OW 2751  12.917   4.569   5.550
66971SOL    HW1 2752  12.833   4.558   5.506
66971SOL    HW2 2753  12.979   4.521   5.496
66972SOL     OW 2754   4.345  12.129  12.983
66972SOL    HW1 2755   4.433  12.166  12.978
66972SOL    HW2 2756   4.314  12.127  12.893
66973SOL     OW 2757   5.119   1.391   1.845
66973SOL    HW1 2758   5.035   1.414   1.807
66973SOL    HW2 2759   5.104   1.389   1.939
66974SOL     OW 2760   2.165   8.811  12.257
66974SOL    HW1 2761   2.241   8.869  12.259
66974SOL    HW2 2762   2.155   8.783  12.348
66975SOL     OW 2763   6.947  14.491   7.260
66975SOL    HW1 2764   6.884  14.495   7.188
66975SOL    HW2 2765   6.933  14.405   7.299
66976SOL     OW 2766  12.657   9.497  11.023
66976SOL    HW1 2767  12.631   9.436  11.092
66976SOL    HW2 2768  12.579   9.550  11.007
66977SOL     OW 2769  12.349   9.077  13.900
66977SOL    HW1 2770  12.387   9.104  13.984
66977SOL    HW2 2771  12.296   9.000  13.920
66978SOL     OW 2772  13.953   9.500   4.090
66978SOL    HW1 2773  13.920   9.587   4.065
66978SOL    HW2 2774  14.031   9.518   4.143
66979SOL     OW 2775  10.321  13.145   7.344
66979SOL    HW1 2776  10.272  13.077   7.298
66979SOL    HW2 2777  10.390  13.171   7.283
66980SOL     OW 2778   2.430   2.923   4.406
66980SOL    HW1 2779   2.434   2.877   4.322
66980SOL    HW2 2780   2.484   2.870   4.465
66981SOL     OW 2781   2.814   9.627  13.874
66981SOL    HW1 2782   2.818   9.656  13.783
66981SOL    HW2 2783   2.760   9.548  13.873
66982SOL     OW 2784  11.276   1.581   4.699
66982SOL    HW1 2785  11.312   1.562   4.612
66982SOL    HW2 2786  11.344   1.553   4.759
66983SOL     OW 2787  10.230  12.260   0.257
66983SOL    HW1 2788  10.202  12.172   0.284
66983SOL    HW2 2789  10.195  12.318   0.324
66984SOL     OW 2790   3.444  12.565   3.182
66984SOL    HW1 2791   3.505  12.527   3.245
66984SOL    HW2 2792   3.371  12.502   3.179
66985SOL     OW 2793   8.688  11.411   2.704
66985SOL    HW1 2794   8.599  11.420   2.671
66985SOL    HW2 2795   8.718  11.500   2.719
66986SOL     OW 2796   5.027   5.656   2.885
66986SOL    HW1 2797   5.075   5.628   2.963
66986SOL    HW2 2798   5.026   5.751   2.890
66987SOL     OW 2799   4.581   0.427   8.657
66987SOL    HW1 2800   4.658   0.424   8.599
66987SOL    HW2 2801   4.589   0.348   8.711
66988SOL     OW 2802  14.387   7.880   6.871
66988SOL    HW1 2803  14.351   7.969   6.880
66988SOL    HW2 2804  14.347   7.846   6.791
66989SOL     OW 2805   1.155  10.826   1.542
66989SOL    HW1 2806   1.063  10.822   1.570
66989SOL    HW2 2807   1.182  10.735   1.535
66990SOL     OW 2808   3.956   9.485   9.216
66990SOL    HW1 2809   4.002   9.549   9.269
66990SOL    HW2 2810   3.928   9.534   9.138
66991SOL     OW 2811   9.623   0.146   2.274
66991SOL    HW1 2812   9.710   0.130   2.238
66991SOL    HW2 2813   9.575   0.065   2.260
66992SOL     OW 2814   6.074   2.538  13.028
66992SOL    HW1 2815   6.057   2.611  12.968
66992SOL    HW2 2816   6.130   2.575  13.097
66993SOL     OW 2817   1.937   1.720   7.774
66993SOL    HW1 2818   1.906   1.703   7.685
66993SOL    HW2 2819   2.028   1.749   7.762
66994SOL     OW 2820   4.590   8.427   8.641
66994SOL    HW1 2821   4.580   8.361   8.709
66994SOL    HW2 2822   4.638   8.498   8.683
66995SOL     OW 2823   0.658   6.583   9.982
66995SOL    HW1 2824   0.565   6.578  10.002
66995SOL    HW2 2825   0.680   6.675   9.993
66996SOL     OW 2826   0.089   3.768  11.749
66996SOL    HW1 2827   0.030   3.815  11.690
66996SOL    HW2 2828   0.090   3.678  11.715
66997SOL     OW 2829  11.385   8.201   7.586
66997SOL    HW1 2830  11.309   8.143   7.597
66997SOL    HW2 2831  11.350   8.289   7.602
66998SOL     OW 2832   8.325   2.191  14.081
66998SOL    HW1 2833   8.363   2.232  14.003
66998SOL    HW2 2834   8.258   2.132  14.047
66999SOL     OW 2835  12.433   3.065  14.130
66999SOL    HW1 2836  12.362   3.018  14.085
66999SOL    HW2 2837  12.389   3.111  14.201
67000SOL     OW 2838   2.808   9.314  14.228
67000SOL    HW1 2839   2.714   9.307  14.211
67000SOL    HW2 2840   2.833   9.399  14.191
67001SOL     OW 2841   0.558  11.395  10.008
67001SOL    HW1 2842   0.509  11.357   9.935
67001SOL    HW2 2843   0.622  11.328  10.031
67002SOL     OW 2844  11.712   2.866  13.994
67002SOL    HW1 2845  11.743   2.810  14.064
67002SOL    HW2 2846  11.792   2.902  13.955
67003SOL     OW 2847   5.613   1.424   4.361
67003SOL    HW1 2848   5.669   1.351   4.386
67003SOL    HW2 2849   5.563   1.445   4.440
67004SOL     OW 2850   2.732  14.821   9.717
67004SOL    HW1 2851   2.753  14.855   9.630
67004SOL    HW2 2852   2.807  14.767   9.740
67005SOL     OW 2853  13.333   7.010   6.496
67005SOL    HW1 2854  13.348   7.043   6.584
67005SOL    HW2 2855  13.366   7.079   6.438
67006SOL     OW 2856  14.707  10.762  11.621
67006SOL    HW1 2857  14.629  10.745  11.674
67006SOL    HW2 2858  14.680  10.833  11.562
67007SOL     OW 2859   2.188  14.725   1.782
67007SOL    HW1 2860   2.198  14.679   1.865
67007SOL    HW2 2861   2.263  14.785   1.779
67008SOL     OW 2862   3.298  14.870  11.857
67008SOL    HW1 2863   3.379  14.820  11.846
67008SOL    HW2 2864   3.277  14.861  11.950
67009SOL     OW 2865   7.506   1.370  14.309
67009SOL    HW1 2866   7.433   1.431  14.314
67009SOL    HW2 2867   7.575   1.410  14.362
67010SOL     OW 2868  13.425   1.804   6.710
67010SOL    HW1 2869  13.422   1.891   6.671
67010SOL    HW2 2870  13.379   1.748   6.648
67011SOL     OW 2871   6.088  10.524   0.264
67011SOL    HW1 2872   6.074  10.539   0.357
67011SOL    HW2 2873   6.125  10.435   0.260
67012SOL     OW 2874   9.009   0.866   8.421
67012SOL    HW1 2875   8.994   0.798   8.486
67012SOL    HW2 2876   9.077   0.921   8.459
67013SOL     OW 2877   4.887  10.487   6.455
67013SOL    HW1 2878   4.879  10.392   6.455
67013SOL    HW2 2879   4.976  10.504   6.485
67014SOL     OW 2880   4.564   9.663   6.375
67014SOL    HW1 2881   4.653   9.666   6.339
67014SOL    HW2 2882   4.570   9.712   6.457
67015SOL     OW 2883   9.780   3.334   4.821
67015SOL    HW1 2884   9.840   3.294   4.884
67015SOL    HW2 2885   9.705   3.275   4.819
67016SOL     OW 2886  13.035  12.836  14.753
67016SOL    HW1 2887  13.032  12.895  14.828
67016SOL    HW2 2888  12.974  12.766  14.774
67017SOL     OW 2889   8.729   0.110  14.775
67017SOL    HW1 2890   8.776   0.055  14.712
67017SOL    HW2 2891   8.798   0.156  14.822
67018SOL     OW 2892   9.689   5.847   1.673
67018SOL    HW1 2893   9.636   5.922   1.644
67018SOL    HW2 2894   9.647   5.819   1.754
67019SOL     OW 2895   2.952  13.545   3.674
67019SOL    HW1 2896   2.875  13.502   3.713
67019SOL    HW2 2897   2.949  13.634   3.708
67020SOL     OW 2898  12.636   1.670   6.553
67020SOL    HW1 2899  12.596   1.636   6.633
67020SOL    HW2 2900  12.565   1.715   6.508
67021SOL     OW 2901  10.652   2.743   1.335
67021SOL    HW1 2902  10.721   2.720   1.273
67021SOL    HW2 2903  10.623   2.659   1.371
67022SOL     OW 2904   0.308   8.524   6.048
67022SOL    HW1 2905   0.310   8.554   5.957
67022SOL    HW2 2906   0.345   8.436   6.044
67023SOL     OW 2907   1.421  11.308   3.089
67023SOL    HW1 2908   1.362  11.324   3.016
67023SOL    HW2 2909   1.499  11.268   3.049
67024SOL     OW 2910   3.435  13.052   3.758
67024SOL    HW1 2911   3.517  13.028   3.717
67024SOL    HW2 2912   3.429  13.146   3.747
67025SOL     OW 2913   7.029  12.230   9.977
67025SOL    HW1 2914   6.955  12.289   9.960
67025SOL    HW2 2915   7.029  12.170   9.903
67026SOL     OW 2916   2.490   5.306  13.146
67026SOL    HW1 2917   2.491   5.400  13.133
67026SOL    HW2 2918   2.405   5.277  13.114
67027SOL     OW 2919   4.091  14.399  13.300
67027SOL    HW1 2920   4.169  14.451  13.321
67027SOL    HW2 2921   4.018  14.459  13.312
67028SOL     OW 2922   2.158   6.147   5.207
67028SOL    HW1 2923   2.173   6.069   5.262
67028SOL    HW2 2924   2.190   6.121   5.121
67029SOL     OW 2925   0.632   9.441   2.600
67029SOL    HW1 2926   0.579   9.394   2.535
67029SOL    HW2 2927   0.655   9.374   2.665
67030SOL     OW 2928   2.620   6.654   3.274
67030SOL    HW1 2929   2.595   6.582   3.332
67030SOL    HW2 2930   2.705   6.683   3.307
67031SOL     OW 2931   3.516   6.657   0.776
67031SOL    HW1 2932   3.550   6.613   0.854
67031SOL    HW2 2933   3.510   6.749   0.801
67032SOL     OW 2934   3.528   4.323   2.502
67032SOL    HW1 2935   3.468   4.306   2.575
67032SOL    HW2 2936   3.475   4.368   2.437
67033SOL     OW 2937   6.800  13.887   5.019
67033SOL    HW1 2938   6.890  13.921   5.018
67033SOL    HW2 2939   6.754  13.940   4.953
67034SOL     OW 2940   9.979   3.195   4.471
67034SOL    HW1 2941  10.073   3.215   4.473
67034SOL    HW2 2942   9.943   3.257   4.409
67035SOL     OW 2943   1.440   4.449   0.973
67035SOL    HW1 2944   1.485   4.533   0.962
67035SOL    HW2 2945   1.411   4.449   1.064
67036SOL     OW 2946   3.563  12.874   9.502
67036SOL    HW1 2947   3.648  12.834   9.484
67036SOL    HW2 2948   3.552  12.939   9.433
67037SOL     OW 2949  13.570   8.683   1.676
67037SOL    HW1 2950  13.566   8.653   1.767
67037SOL    HW2 2951  13.482   8.715   1.658
67038SOL     OW 2952   2.625  10.257  12.101
67038SOL    HW1 2953   2.695  10.196  12.082
67038SOL    HW2 2954   2.660  10.314  12.170
67039SOL     OW 2955  14.203   3.882   9.715
67039SOL    HW1 2956  14.136   3.904   9.650
67039SOL    HW2 2957  14.197   3.787   9.724
67040SOL     OW 2958  12.006  10.929   7.442
67040SOL    HW1 2959  11.966  10.848   7.409
67040SOL    HW2 2960  11.948  10.957   7.513
67041SOL     OW 2961   4.579  14.719  12.113
67041SOL    HW1 2962   4.658  14.755  12.073
67041SOL    HW2 2963   4.601  14.628  12.132
67042SOL     OW 2964  14.321  13.833   3.004
67042SOL    HW1 2965  14.405  13.794   3.026
67042SOL    HW2 2966  14.264  13.813   3.078
67043SOL     OW 2967  12.325   2.920   1.308
67043SOL    HW1 2968  12.333   3.014   1.323
67043SOL    HW2 2969  12.298   2.914   1.216
67044SOL     OW 2970   1.133   9.100   6.823
67044SOL    HW1 2971   1.078   9.107   6.745
67044SOL    HW2 2972   1.094   9.029   6.874
67045SOL     OW 2973  10.143   6.230   1.951
67045SOL    HW1 2974  10.057   6.202   1.981
67045SOL    HW2 2975  10.184   6.150   1.916
67046SOL     OW 2976   1.929   9.146  13.119
67046SOL    HW1 2977   1.937   9.174  13.028
67046SOL    HW2 2978   2.019   9.141  13.151
67047SOL     OW 2979   2.622  11.389  14.244
67047SOL    HW1 2980   2.578  11.452  14.301
67047SOL    HW2 2981   2.658  11.324  14.304
67048SOL     OW 2982  11.425   8.100   2.399
67048SOL    HW1 2983  11.402   8.083   2.490
67048SOL    HW2 2984  11.374   8.177   2.375
67049SOL     OW 2985   2.015  13.677  13.552
67049SOL    HW1 2986   2.066  13.631  13.619
67049SOL    HW2 2987   2.056  13.653  13.469
67050SOL     OW 2988  10.937  11.925  12.541
67050SOL    HW1 2989  10.960  11.915  12.448
67050SOL    HW2 2990  10.990  11.998  12.571
67051SOL     OW 2991  13.691  10.030   9.881
67051SOL    HW1 2992  13.693  10.115   9.838
67051SOL    HW2 2993  13.762   9.980   9.841
67052SOL     OW 2994   1.711   8.299   4.051
67052SOL    HW1 2995   1.691   8.393   4.047
67052SOL    HW2 2996   1.642   8.258   3.998
67053SOL     OW 2997  10.398  14.412   4.245
67053SOL    HW1 2998  10.440  14.340   4.198
67053SOL    HW2 2999  10.306  14.385   4.252
67054SOL     OW 3000   4.495  10.545   4.908
67054SOL    HW1 3001   4.578  10.578   4.876
67054SOL    HW2 3002   4.436  10.550   4.833
67055SOL     OW 3003   3.558   3.935   2.263
67055SOL    HW1 3004   3.534   3.965   2.351
67055SOL    HW2 3005   3.475   3.906   2.224
67056SOL     OW 3006   4.366   6.014   9.849
67056SOL    HW1 3007   4.273   5.992   9.838
67056SOL    HW2 3008   4.382   6.004   9.943
67057SOL     OW 3009   0.158  12.355   2.683
67057SOL    HW1 3010   0.198  12.269   2.670
67057SOL    HW2 3011   0.097  12.365   2.610
67058SOL     OW 3012   2.450   5.017   4.685
67058SOL    HW1 3013   2.483   4.945   4.740
67058SOL    HW2 3014   2.517   5.029   4.619
67059SOL     OW 3015   5.528   2.480  11.927
67059SOL    HW1 3016   5.615   2.488  11.967
67059SOL    HW2 3017   5.474   2.542  11.977
67060SOL     OW 3018   5.717   0.954  11.077
67060SOL    HW1 3019   5.769   1.023  11.119
67060SOL    HW2 3020   5.653   0.929  11.144
67061SOL     OW 3021   0.475   3.380   6.303
67061SOL    HW1 3022   0.519   3.448   6.253
67061SOL    HW2 3023   0.387   3.375   6.266
67062SOL     OW 3024   2.183   7.889   9.453
67062SOL    HW1 3025   2.151   7.799   9.438
67062SOL    HW2 3026   2.110   7.945   9.426
67063SOL     OW 3027   3.600   3.461   8.962
67063SOL    HW1 3028   3.606   3.531   8.897
67063SOL    HW2 3029   3.691   3.441   8.984
67064SOL     OW 3030  10.254   3.197   8.159
67064SOL    HW1 3031  10.206   3.277   8.140
67064SOL    HW2 3032  10.328   3.227   8.212
67065SOL     OW 3033   3.538  14.752   3.750
67065SOL    HW1 3034   3.604  14.812   3.717
67065SOL    HW2 3035   3.585  14.671   3.768
67066SOL     OW 3036  10.178   2.506   8.546
67066SOL    HW1 3037  10.273   2.514   8.550
67066SOL    HW2 3038  10.149   2.525   8.636
67067SOL     OW 3039   9.246   5.054   1.419
67067SOL    HW1 3040   9.320   4.996   1.438
67067SOL    HW2 3041   9.279   5.142   1.439
67068SOL     OW 3042  12.146  13.589  11.297
67068SOL    HW1 3043  12.186  13.644  11.364
67068SOL    HW2 3044  12.086  13.533  11.345
67069SOL     OW 3045   6.110   4.190  13.822
67069SOL    HW1 3046   6.154   4.168  13.739
67069SOL    HW2 3047   6.171   4.249  13.866
67070SOL     OW 3048   8.908   5.542  11.442
67070SOL    HW1 3049   8.946   5.494  11.516
67070SOL    HW2 3050   8.837   5.593  11.481
67071SOL     OW 3051  12.068  12.501   2.905
67071SOL    HW1 3052  12.076  12.500   3.001
67071SOL    HW2 3053  12.087  12.591   2.880
67072SOL     OW 3054   0.118  10.877   2.629
67072SOL    HW1 3055   0.106  10.825   2.709
67072SOL    HW2 3056   0.207  10.911   2.636
67073SOL     OW 3057  10.417   3.451   0.791
67073SOL    HW1 3058  10.443   3.415   0.876
67073SOL    HW2 3059  10.324   3.469   0.800
67074SOL     OW 3060   1.207  10.011   7.222
67074SOL    HW1 3061   1.172  10.054   7.144
67074SOL    HW2 3062   1.278   9.956   7.189
67075SOL     OW 3063  14.140   4.569   9.089
67075SOL    HW1 3064  14.058   4.617   9.103
67075SOL    HW2 3065  14.113   4.478   9.078
67076SOL     OW 3066  11.792   1.922   3.142
67076SOL    HW1 3067  11.793   1.941   3.236
67076SOL    HW2 3068  11.877   1.952   3.110
67077SOL     OW 3069  13.338   0.605  13.758
67077SOL    HW1 3070  13.314   0.534  13.818
67077SOL    HW2 3071  13.263   0.613  13.699
67078SOL     OW 3072   0.032   0.702   5.784
67078SOL    HW1 3073  14.846   0.634   5.767
67078SOL    HW2 3074   0.001   0.744   5.865
67079SOL     OW 3075  12.550   0.783  12.413
67079SOL    HW1 3076  12.519   0.693  12.410
67079SOL    HW2 3077  12.555   0.804  12.506
67080SOL     OW 3078  11.899   7.657  10.772
67080SOL    HW1 3079  11.907   7.694  10.684
67080SOL    HW2 3080  11.899   7.562  10.758
67081SOL     OW 3081  13.758   9.887   7.635
67081SOL    HW1 3082  13.721   9.827   7.699
67081SOL    HW2 3083  13.683   9.912   7.580
67082SOL     OW 3084  14.265   3.600   0.564
67082SOL    HW1 3085  14.329   3.573   0.630
67082SOL    HW2 3086  14.228   3.681   0.599
67083SOL     OW 3087   1.285   8.043   0.597
67083SOL    HW1 3088   1.307   7.989   0.674
67083SOL    HW2 3089   1.339   8.007   0.527
67084SOL     OW 3090   7.115   9.081   2.185
67084SOL    HW1 3091   7.209   9.089   2.201
67084SOL    HW2 3092   7.105   9.103   2.093
67085SOL     OW 3093   0.515   7.039   0.097
67085SOL    HW1 3094   0.442   7.043   0.158
67085SOL    HW2 3095   0.535   7.130   0.076
67086SOL     OW 3096   5.063  13.235   3.379
67086SOL    HW1 3097   5.035  13.166   3.439
67086SOL    HW2 3098   5.136  13.278   3.423
67087SOL     OW 3099  14.224   4.347  11.375
67087SOL    HW1 3100  14.173   4.391  11.307
67087SOL    HW2 3101  14.238   4.258  11.341
67088SOL     OW 3102   7.999   5.327  12.388
67088SOL    HW1 3103   7.958   5.295  12.468
67088SOL    HW2 3104   7.948   5.405  12.365
67089SOL     OW 3105   8.009   0.528   8.540
67089SOL    HW1 3106   8.037   0.508   8.450
67089SOL    HW2 3107   7.914   0.513   8.539
67090SOL     OW 3108  11.310   8.974  12.590
67090SOL    HW1 3109  11.307   8.904  12.525
67090SOL    HW2 3110  11.401   8.975  12.620
67091SOL     OW 3111   9.952   8.331  11.250
67091SOL    HW1 3112  10.033   8.360  11.208
67091SOL    HW2 3113   9.973   8.243  11.282
67092SOL     OW 3114   8.739   1.008  10.863
67092SOL    HW1 3115   8.789   1.058  10.798
67092SOL    HW2 3116   8.728   0.922  10.823
67093SOL     OW 3117   2.161   6.895  10.321
67093SOL    HW1 3118   2.167   6.816  10.376
67093SOL    HW2 3119   2.216   6.876  10.245
67094SOL     OW 3120   0.702  14.513   1.138
67094SOL    HW1 3121   0.773  14.450   1.148
67094SOL    HW2 3122   0.702  14.536   1.045
67095SOL     OW 3123   3.327  12.695   1.598
67095SOL    HW1 3124   3.305  12.781   1.634
67095SOL    HW2 3125   3.244  12.647   1.598
67096SOL     OW 3126   2.598   7.620   5.725
67096SOL    HW1 3127   2.623   7.695   5.671
67096SOL    HW2 3128   2.676   7.565   5.728
67097SOL     OW 3129   4.930   4.755   0.046
67097SOL    HW1 3130   4.939   4.709   0.129
67097SOL    HW2 3131   4.948   4.847   0.068
67098SOL     OW 3132   4.472  11.486  10.221
67098SOL    HW1 3133   4.556  11.529  10.234
67098SOL    HW2 3134   4.462  11.429  10.298
67099SOL     OW 3135  10.604   8.212   8.309
67099SOL    HW1 3136  10.602   8.116   8.310
67099SOL    HW2 3137  10.607   8.235   8.216
67100SOL     OW 3138   1.799   1.336   4.537
67100SOL    HW1 3139   1.838   1.398   4.598
67100SOL    HW2 3140   1.848   1.348   4.456
67101SOL     OW 3141   2.293   0.401   9.160
67101SOL    HW1 3142   2.223   0.463   9.139
67101SOL    HW2 3143   2.334   0.383   9.076
67102SOL     OW 3144   8.692   9.484  13.550
67102SOL    HW1 3145   8.597   9.495  13.542
67102SOL    HW2 3146   8.729   9.546  13.487
67103SOL     OW 3147   7.354  13.290  10.628
67103SOL    HW1 3148   7.353  13.241  10.710
67103SOL    HW2 3149   7.447  13.310  10.613
67104SOL     OW 3150   0.402  13.428  12.879
67104SOL    HW1 3151   0.476  13.438  12.819
67104SOL    HW2 3152   0.348  13.359  12.840
67105SOL     OW 3153   8.967  14.687   8.877
67105SOL    HW1 3154   8.944  14.762   8.932
67105SOL    HW2 3155   8.953  14.719   8.787
67106SOL     OW 3156   8.079   3.146   7.448
67106SOL    HW1 3157   8.113   3.225   7.406
67106SOL    HW2 3158   8.084   3.079   7.380
67107SOL     OW 3159   8.016  13.262   8.951
67107SOL    HW1 3160   8.028  13.217   8.867
67107SOL    HW2 3161   8.035  13.354   8.931
67108SOL     OW 3162   8.174   5.163  11.598
67108SOL    HW1 3163   8.268   5.152  11.583
67108SOL    HW2 3164   8.148   5.085  11.647
67109SOL     OW 3165   5.580  10.980   2.478
67109SOL    HW1 3166   5.547  11.059   2.435
67109SOL    HW2 3167   5.580  10.913   2.409
67110SOL     OW 3168   4.552   3.685   1.784
67110SOL    HW1 3169   4.473   3.703   1.835
67110SOL    HW2 3170   4.624   3.710   1.843
67111SOL     OW 3171  12.063   0.087   2.998
67111SOL    HW1 3172  12.011   0.074   3.078
67111SOL    HW2 3173  12.126   0.155   3.021
67112SOL     OW 3174  11.030   5.611   8.121
67112SOL    HW1 3175  11.091   5.584   8.053
67112SOL    HW2 3176  11.083   5.613   8.201
67113SOL     OW 3177  12.882   4.033   1.658
67113SOL    HW1 3178  12.857   4.077   1.740
67113SOL    HW2 3179  12.842   4.086   1.589
67114SOL     OW 3180  13.426   2.153   9.015
67114SOL    HW1 3181  13.430   2.237   9.060
67114SOL    HW2 3182  13.354   2.161   8.954
67115SOL     OW 3183   0.476   2.034   5.413
67115SOL    HW1 3184   0.480   1.956   5.469
67115SOL    HW2 3185   0.513   2.104   5.466
67116SOL     OW 3186   9.413  11.762  13.077
67116SOL    HW1 3187   9.320  11.780  13.060
67116SOL    HW2 3188   9.412  11.706  13.154
67117SOL     OW 3189  12.857   8.020   2.608
67117SOL    HW1 3190  12.882   7.944   2.661
67117SOL    HW2 3191  12.801   8.071   2.665
67118SOL     OW 3192   4.980   9.690  10.006
67118SOL    HW1 3193   4.887   9.704  10.025
67118SOL    HW2 3194   5.012   9.776   9.978
67119SOL     OW 3195   0.950   9.060   6.579
67119SOL    HW1 3196   0.901   8.978   6.573
67119SOL    HW2 3197   0.926   9.108   6.500
67120SOL     OW 3198   0.537   1.921   7.529
67120SOL    HW1 3199   0.512   1.971   7.606
67120SOL    HW2 3200   0.582   1.985   7.473
67121SOL     OW 3201  10.601  14.493   3.336
67121SOL    HW1 3202  10.567  14.504   3.248
67121SOL    HW2 3203  10.694  14.474   3.324
67122SOL     OW 3204   4.266   5.613  14.655
67122SOL    HW1 3205   4.304   5.527  14.673
67122SOL    HW2 3206   4.268   5.658  14.740
67123SOL     OW 3207   2.582   8.915   2.430
67123SOL    HW1 3208   2.520   8.847   2.456
67123SOL    HW2 3209   2.645   8.869   2.373
67124SOL     OW 3210   1.056   5.147   1.676
67124SOL    HW1 3211   1.110   5.205   1.730
67124SOL    HW2 3212   1.114   5.076   1.651
67125SOL     OW 3213   6.499   5.789   8.716
67125SOL    HW1 3214   6.475   5.877   8.744
67125SOL    HW2 3215   6.460   5.731   8.781
67126SOL     OW 3216  11.950   1.785   5.032
67126SOL    HW1 3217  11.971   1.870   5.070
67126SOL    HW2 3218  11.895   1.742   5.097
67127SOL     OW 3219   5.542   3.598   3.674
67127SOL    HW1 3220   5.455   3.622   3.642
67127SOL    HW2 3221   5.532   3.509   3.706
67128SOL     OW 3222   7.142   1.026  12.441
67128SOL    HW1 3223   7.164   1.098  12.383
67128SOL    HW2 3224   7.148   1.063  12.529
67129SOL     OW 3225  13.065   3.866  14.460
67129SOL    HW1 3226  13.140   3.876  14.519
67129SOL    HW2 3227  13.104   3.841  14.376
67130SOL     OW 3228  12.979  11.985  12.195
67130SOL    HW1 3229  13.012  11.910  12.145
67130SOL    HW2 3230  13.008  11.969  12.284
67131SOL     OW 3231   6.844   6.356   3.285
67131SOL    HW1 3232   6.892   6.349   3.202
67131SOL    HW2 3233   6.907   6.331   3.352
67132SOL     OW 3234  14.539  10.702  14.031
67132SOL    HW1 3235  14.466  10.718  14.091
67132SOL    HW2 3236  14.517  10.751  13.952
67133SOL     OW 3237   6.281  14.086   0.864
67133SOL    HW1 3238   6.305  14.101   0.772
67133SOL    HW2 3239   6.189  14.112   0.869
67134SOL     OW 3240   1.455   6.089   1.600
67134SOL    HW1 3241   1.452   6.073   1.505
67134SOL    HW2 3242   1.474   6.004   1.638
67135SOL     OW 3243   4.463   7.939  11.635
67135SOL    HW1 3244   4.517   7.862  11.657
67135SOL    HW2 3245   4.373   7.907  11.642
67136SOL     OW 3246   9.113  12.446   8.884
67136SOL    HW1 3247   9.155  12.528   8.909
67136SOL    HW2 3248   9.169  12.378   8.922
67137SOL     OW 3249  11.503   8.590   1.283
67137SOL    HW1 3250  11.539   8.533   1.351
67137SOL    HW2 3251  11.576   8.604   1.223
67138SOL     OW 3252  11.086   3.814   9.990
67138SOL    HW1 3253  11.040   3.827  10.072
67138SOL    HW2 3254  11.167   3.865   9.999
67139SOL     OW 3255   4.862  13.944   9.486
67139SOL    HW1 3256   4.947  13.944   9.530
67139SOL    HW2 3257   4.824  13.859   9.508
67140SOL     OW 3258   1.504   0.469  13.963
67140SOL    HW1 3259   1.502   0.459  14.058
67140SOL    HW2 3260   1.457   0.392  13.930
67141SOL     OW 3261   8.176   3.094  11.642
67141SOL    HW1 3262   8.147   3.181  11.669
67141SOL    HW2 3263   8.140   3.083  11.554
67142SOL     OW 3264   4.118   2.537   4.178
67142SOL    HW1 3265   4.051   2.606   4.173
67142SOL    HW2 3266   4.200   2.585   4.190
67143SOL     OW 3267   1.203   1.085   6.143
67143SOL    HW1 3268   1.285   1.130   6.162
67143SOL    HW2 3269   1.177   1.117   6.057
67144SOL     OW 3270   1.147   5.899   4.663
67144SOL    HW1 3271   1.063   5.884   4.706
67144SOL    HW2 3272   1.132   5.876   4.571
67145SOL     OW 3273   0.315  11.735  11.042
67145SOL    HW1 3274   0.391  11.724  10.985
67145SOL    HW2 3275   0.264  11.805  11.001
67146SOL     OW 3276  10.324   7.528   7.629
67146SOL    HW1 3277  10.365   7.610   7.601
67146SOL    HW2 3278  10.243   7.555   7.672
67147SOL     OW 3279   7.311   0.431  12.905
67147SOL    HW1 3280   7.253   0.375  12.854
67147SOL    HW2 3281   7.343   0.374  12.975
67148SOL     OW 3282   6.958   2.436   0.735
67148SOL    HW1 3283   6.881   2.378   0.738
67148SOL    HW2 3284   6.927   2.514   0.690
67149SOL     OW 3285  10.052   8.868   8.238
67149SOL    HW1 3286  10.119   8.830   8.181
67149SOL    HW2 3287  10.050   8.809   8.314
67150SOL     OW 3288   4.879  13.643   8.421
67150SOL    HW1 3289   4.921  13.727   8.400
67150SOL    HW2 3290   4.812  13.633   8.353
67151SOL     OW 3291  14.094   7.071   2.869
67151SOL    HW1 3292  14.145   7.009   2.921
67151SOL    HW2 3293  14.055   7.017   2.799
67152SOL     OW 3294  11.953  13.190   5.468
67152SOL    HW1 3295  11.952  13.250   5.393
67152SOL    HW2 3296  12.045  13.185   5.494
67153SOL     OW 3297  11.398   9.594  14.061
67153SOL    HW1 3298  11.466   9.570  14.123
67153SOL    HW2 3299  11.317   9.564  14.101
67154SOL     OW 3300   6.163   3.853  12.918
67154SOL    HW1 3301   6.175   3.911  12.993
67154SOL    HW2 3302   6.109   3.903  12.857
67155SOL     OW 3303   3.548  11.212   2.614
67155SOL    HW1 3304   3.608  11.139   2.633
67155SOL    HW2 3305   3.515  11.238   2.700
67156SOL     OW 3306   0.478   1.937   2.119
67156SOL    HW1 3307   0.509   1.900   2.036
67156SOL    HW2 3308   0.465   1.861   2.175
67157SOL     OW 3309   6.782  13.398   1.637
67157SOL    HW1 3310   6.702  13.376   1.589
67157SOL    HW2 3311   6.844  13.423   1.569
67158SOL     OW 3312   1.342   7.456   1.289
67158SOL    HW1 3313   1.269   7.496   1.337
67158SOL    HW2 3314   1.420   7.494   1.328
67159SOL     OW 3315   4.553   8.165  11.724
67159SOL    HW1 3316   4.643   8.135  11.731
67159SOL    HW2 3317   4.504   8.090  11.690
67160SOL     OW 3318  12.171  14.774   1.493
67160SOL    HW1 3319  12.217  14.818   1.421
67160SOL    HW2 3320  12.160  14.684   1.463
67161SOL     OW 3321   8.556  11.000   0.168
67161SOL    HW1 3322   8.572  10.947   0.090
67161SOL    HW2 3323   8.540  11.089   0.135
67162SOL     OW 3324   5.718   1.096   9.087
67162SOL    HW1 3325   5.690   1.045   9.163
67162SOL    HW2 3326   5.742   1.030   9.022
67163SOL     OW 3327  10.515   7.921   0.157
67163SOL    HW1 3328  10.448   7.985   0.180
67163SOL    HW2 3329  10.543   7.945   0.069
67164SOL     OW 3330  11.811  11.878   0.806
67164SOL    HW1 3331  11.729  11.840   0.839
67164SOL    HW2 3332  11.801  11.972   0.822
67165SOL     OW 3333   1.310  11.404   4.636
67165SOL    HW1 3334   1.281  11.428   4.724
67165SOL    HW2 3335   1.365  11.326   4.649
67166SOL     OW 3336   5.305   1.028  10.172
67166SOL    HW1 3337   5.364   1.101  10.187
67166SOL    HW2 3338   5.219   1.061  10.198
67167SOL     OW 3339   8.098   0.106   5.421
67167SOL    HW1 3340   8.170   0.043   5.423
67167SOL    HW2 3341   8.024   0.060   5.461
67168SOL     OW 3342  10.285   7.488  14.606
67168SOL    HW1 3343  10.333   7.426  14.660
67168SOL    HW2 3344  10.324   7.573  14.627
67169SOL     OW 3345   9.587   2.282  10.843
67169SOL    HW1 3346   9.580   2.359  10.786
67169SOL    HW2 3347   9.662   2.233  10.809
67170SOL     OW 3348  11.066   8.603   2.550
67170SOL    HW1 3349  11.061   8.684   2.601
67170SOL    HW2 3350  10.978   8.567   2.553
67171SOL     OW 3351  11.702   6.405   3.759
67171SOL    HW1 3352  11.673   6.458   3.834
67171SOL    HW2 3353  11.751   6.333   3.799
67172SOL     OW 3354  14.403   7.359   7.429
67172SOL    HW1 3355  14.388   7.341   7.336
67172SOL    HW2 3356  14.365   7.283   7.474
67173SOL     OW 3357  11.456   4.937   9.071
67173SOL    HW1 3358  11.487   4.878   9.139
67173SOL    HW2 3359  11.514   4.920   8.996
67174SOL     OW 3360  11.804  10.076   7.309
67174SOL    HW1 3361  11.869  10.136   7.273
67174SOL    HW2 3362  11.737  10.068   7.241
67175SOL     OW 3363   1.115  13.513   0.866
67175SOL    HW1 3364   1.093  13.442   0.926
67175SOL    HW2 3365   1.147  13.583   0.923
67176SOL     OW 3366   4.358   7.555   6.891
67176SOL    HW1 3367   4.274   7.510   6.891
67176SOL    HW2 3368   4.415   7.499   6.838
67177SOL     OW 3369   8.096   3.074   5.515
67177SOL    HW1 3370   8.137   3.097   5.432
67177SOL    HW2 3371   8.011   3.039   5.492
67178SOL     OW 3372  10.437  11.614  12.921
67178SOL    HW1 3373  10.422  11.629  12.828
67178SOL    HW2 3374  10.502  11.544  12.924
67179SOL     OW 3375  12.548  10.133  12.269
67179SOL    HW1 3376  12.614  10.091  12.324
67179SOL    HW2 3377  12.599  10.178  12.202
67180SOL     OW 3378  14.322   5.518  11.752
67180SOL    HW1 3379  14.374   5.477  11.683
67180SOL    HW2 3380  14.237   5.534  11.712
67181SOL     OW 3381  10.487   2.939  12.370
67181SOL    HW1 3382  10.405   2.897  12.396
67181SOL    HW2 3383  10.540   2.868  12.334
67182SOL     OW 3384   1.644  13.445   1.353
67182SOL    HW1 3385   1.580  13.378   1.328
67182SOL    HW2 3386   1.602  13.528   1.332
67183SOL     OW 3387   9.507   3.886   9.456
67183SOL    HW1 3388   9.526   3.883   9.549
67183SOL    HW2 3389   9.592   3.897   9.414
67184SOL     OW 3390   4.342  13.023  12.463
67184SOL    HW1 3391   4.369  13.086  12.531
67184SOL    HW2 3392   4.392  13.049  12.386
67185SOL     OW 3393   0.682  12.163  11.133
67185SOL    HW1 3394   0.687  12.213  11.052
67185SOL    HW2 3395   0.770  12.168  11.170
67186SOL     OW 3396   3.294  14.336   8.946
67186SOL    HW1 3397   3.246  14.343   8.863
67186SOL    HW2 3398   3.363  14.272   8.927
67187SOL     OW 3399   9.713  12.111   6.317
67187SOL    HW1 3400   9.775  12.124   6.389
67187SOL    HW2 3401   9.691  12.200   6.288
67188SOL     OW 3402   8.577   7.990  10.673
67188SOL    HW1 3403   8.664   8.014  10.641
67188SOL    HW2 3404   8.549   7.920  10.614
67189SOL     OW 3405   7.352   3.660   9.084
67189SOL    HW1 3406   7.283   3.599   9.057
67189SOL    HW2 3407   7.417   3.605   9.127
67190SOL     OW 3408  11.557  13.462   5.616
67190SOL    HW1 3409  11.533  13.498   5.702
67190SOL    HW2 3410  11.586  13.373   5.635
67191SOL     OW 3411   7.979  14.064  14.440
67191SOL    HW1 3412   7.986  14.024  14.353
67191SOL    HW2 3413   7.938  14.149  14.424
67192SOL     OW 3414  10.256  13.938  10.029
67192SOL    HW1 3415  10.215  13.860  10.066
67192SOL    HW2 3416  10.349  13.917  10.024
67193SOL     OW 3417   7.244   8.411   8.471
67193SOL    HW1 3418   7.164   8.461   8.487
67193SOL    HW2 3419   7.223   8.357   8.395
67194SOL     OW 3420   2.840   8.933   5.972
67194SOL    HW1 3421   2.911   8.984   5.933
67194SOL    HW2 3422   2.849   8.947   6.066
67195SOL     OW 3423   8.551  11.099  13.518
67195SOL    HW1 3424   8.586  11.117  13.431
67195SOL    HW2 3425   8.517  11.009  13.511
67196SOL     OW 3426  11.389  12.146   8.531
67196SOL    HW1 3427  11.415  12.114   8.445
67196SOL    HW2 3428  11.398  12.071   8.589
67197SOL     OW 3429   2.957   1.340   3.669
67197SOL    HW1 3430   2.877   1.357   3.620
67197SOL    HW2 3431   2.938   1.370   3.757
67198SOL     OW 3432  13.050   8.750  10.944
67198SOL    HW1 3433  13.140   8.765  10.916
67198SOL    HW2 3434  12.996   8.785  10.873
67199SOL     OW 3435   6.025   5.742  11.829
67199SOL    HW1 3436   5.995   5.792  11.905
67199SOL    HW2 3437   6.066   5.664  11.866
67200SOL     OW 3438   8.036   7.404   8.715
67200SOL    HW1 3439   8.029   7.473   8.650
67200SOL    HW2 3440   8.089   7.336   8.673
67201SOL     OW 3441   3.558   4.305   4.029
67201SOL    HW1 3442   3.496   4.297   4.102
67201SOL    HW2 3443   3.576   4.398   4.023
67202SOL     OW 3444   8.582  11.146   2.680
67202SOL    HW1 3445   8.636  11.224   2.687
67202SOL    HW2 3446   8.535  11.141   2.763
67203SOL     OW 3447   4.918   3.026   9.313
67203SOL    HW1 3448   4.942   2.934   9.298
67203SOL    HW2 3449   5.001   3.073   9.311
67204SOL     OW 3450   1.613   5.203   9.729
67204SOL    HW1 3451   1.667   5.200   9.807
67204SOL    HW2 3452   1.667   5.162   9.661
67205SOL     OW 3453   2.783   3.802  13.825
67205SOL    HW1 3454   2.817   3.872  13.882
67205SOL    HW2 3455   2.852   3.737  13.823
67206SOL     OW 3456   0.275  10.329   8.654
67206SOL    HW1 3457   0.371  10.336   8.657
67206SOL    HW2 3458   0.249  10.390   8.585
67207SOL     OW 3459  13.718   8.409  10.684
67207SOL    HW1 3460  13.631   8.387  10.717
67207SOL    HW2 3461  13.729   8.355  10.606
67208SOL     OW 3462   0.513   8.468  10.156
67208SOL    HW1 3463   0.550   8.509  10.078
67208SOL    HW2 3464   0.506   8.375  10.133
67209SOL     OW 3465  11.662  10.237   4.325
67209SOL    HW1 3466  11.608  10.186   4.265
67209SOL    HW2 3467  11.615  10.234   4.408
67210SOL     OW 3468  14.363   1.327   9.856
67210SOL    HW1 3469  14.428   1.259   9.836
67210SOL    HW2 3470  14.393   1.404   9.809
67211SOL     OW 3471   3.460  12.877   8.376
67211SOL    HW1 3472   3.487  12.786   8.370
67211SOL    HW2 3473   3.382  12.875   8.431
67212SOL     OW 3474   8.444  14.294   4.395
67212SOL    HW1 3475   8.390  14.225   4.356
67212SOL    HW2 3476   8.456  14.265   4.486
67213SOL     OW 3477  12.785  14.726  11.889
67213SOL    HW1 3478  12.719  14.701  11.954
67213SOL    HW2 3479  12.794  14.821  11.901
67214SOL     OW 3480   6.605  10.426   5.052
67214SOL    HW1 3481   6.568  10.513   5.037
67214SOL    HW2 3482   6.698  10.442   5.066
67215SOL     OW 3483  13.572   4.019  11.009
67215SOL    HW1 3484  13.533   3.974  10.934
67215SOL    HW2 3485  13.666   4.018  10.991
67216SOL     OW 3486  11.415   6.103   4.359
67216SOL    HW1 3487  11.400   6.171   4.294
67216SOL    HW2 3488  11.459   6.033   4.312
67217SOL     OW 3489  10.737  11.223   6.107
67217SOL    HW1 3490  10.763  11.297   6.052
67217SOL    HW2 3491  10.662  11.256   6.157
67218SOL     OW 3492  10.999  10.511   1.621
67218SOL    HW1 3493  10.914  10.467   1.618
67218SOL    HW2 3494  11.043  10.484   1.541
67219SOL     OW 3495   8.764   2.396   9.858
67219SOL    HW1 3496   8.760   2.381   9.952
67219SOL    HW2 3497   8.714   2.477   9.844
67220SOL     OW 3498   8.256   4.830   5.167
67220SOL    HW1 3499   8.197   4.903   5.184
67220SOL    HW2 3500   8.344   4.867   5.172
67221SOL     OW 3501  11.859   4.513   6.527
67221SOL    HW1 3502  11.911   4.545   6.453
67221SOL    HW2 3503  11.833   4.424   6.501
67222SOL     OW 3504   2.569  11.432   6.653
67222SOL    HW1 3505   2.606  11.409   6.568
67222SOL    HW2 3506   2.622  11.506   6.683
67223SOL     OW 3507   5.488   2.561   5.017
67223SOL    HW1 3508   5.566   2.514   5.046
67223SOL    HW2 3509   5.463   2.614   5.093
67224SOL     OW 3510   3.246  12.704   8.679
67224SOL    HW1 3511   3.269  12.794   8.659
67224SOL    HW2 3512   3.177  12.711   8.745
67225SOL     OW 3513   1.988   0.698   4.702
67225SOL    HW1 3514   1.894   0.710   4.689
67225SOL    HW2 3515   2.026   0.783   4.680
67226SOL     OW 3516   2.871   4.488  12.555
67226SOL    HW1 3517   2.868   4.441  12.638
67226SOL    HW2 3518   2.795   4.455  12.506
67227SOL     OW 3519  11.371   1.432  12.680
67227SOL    HW1 3520  11.337   1.351  12.720
67227SOL    HW2 3521  11.329   1.502  12.729
67228SOL     OW 3522   6.354   6.561   5.347
67228SOL    HW1 3523   6.397   6.581   5.264
67228SOL    HW2 3524   6.332   6.468   5.340
67229SOL     OW 3525   2.458   6.280   1.265
67229SOL    HW1 3526   2.473   6.346   1.332
67229SOL    HW2 3527   2.368   6.295   1.236
67230SOL     OW 3528   4.461  11.161   8.396
67230SOL    HW1 3529   4.448  11.148   8.490
67230SOL    HW2 3530   4.420  11.085   8.355
67231SOL     OW 3531  14.351   4.375   3.481
67231SOL    HW1 3532  14.280   4.343   3.536
67231SOL    HW2 3533  14.431   4.347   3.526
67232SOL     OW 3534   4.059   0.794  11.163
67232SOL    HW1 3535   4.055   0.857  11.235
67232SOL    HW2 3536   3.968   0.781  11.137
67233SOL     OW 3537  11.650   5.139   9.117
67233SOL    HW1 3538  11.604   5.222   9.124
67233SOL    HW2 3539  11.581   5.073   9.114
67234SOL     OW 3540   9.746   9.169   1.123
67234SOL    HW1 3541   9.748   9.108   1.196
67234SOL    HW2 3542   9.676   9.138   1.066
67235SOL     OW 3543   9.245  12.940   3.742
67235SOL    HW1 3544   9.325  12.966   3.786
67235SOL    HW2 3545   9.180  12.934   3.811
67236SOL     OW 3546   1.160  11.690   5.786
67236SOL    HW1 3547   1.089  11.630   5.764
67236SOL    HW2 3548   1.218  11.640   5.843
67237SOL     OW 3549  12.880  13.806   4.875
67237SOL    HW1 3550  12.928  13.889   4.873
67237SOL    HW2 3551  12.890  13.771   4.786
67238SOL     OW 3552   9.675  12.292   3.487
67238SOL    HW1 3553   9.604  12.236   3.456
67238SOL    HW2 3554   9.742  12.232   3.518
67239SOL     OW 3555   2.387   8.983  12.600
67239SOL    HW1 3556   2.477   8.973  12.569
67239SOL    HW2 3557   2.389   9.057  12.660
67240SOL     OW 3558  10.155   8.558  10.100
67240SOL    HW1 3559  10.242   8.518  10.100
67240SOL    HW2 3560  10.094   8.485  10.110
67241SOL     OW 3561   0.107  12.938  14.737
67241SOL    HW1 3562   0.088  13.013  14.794
67241SOL    HW2 3563   0.203  12.934  14.734
67242SOL     OW 3564   0.242   2.853   2.621
67242SOL    HW1 3565   0.187   2.848   2.543
67242SOL    HW2 3566   0.179   2.858   2.694
67243SOL     OW 3567  12.842   2.828  11.726
67243SOL    HW1 3568  12.850   2.773  11.648
67243SOL    HW2 3569  12.887   2.909  11.701
67244SOL     OW 3570   5.832  11.267   7.691
67244SOL    HW1 3571   5.915  11.290   7.651
67244SOL    HW2 3572   5.853  11.196   7.752
67245SOL     OW 3573   1.503   6.165   5.719
67245SOL    HW1 3574   1.415   6.155   5.684
67245SOL    HW2 3575   1.545   6.081   5.701
67246SOL     OW 3576   3.661  14.692  12.204
67246SOL    HW1 3577   3.629  14.770  12.248
67246SOL    HW2 3578   3.668  14.718  12.112
67247SOL     OW 3579   3.134  14.861  12.633
67247SOL    HW1 3580   3.177  14.834  12.552
67247SOL    HW2 3581   3.083  14.784  12.659
67248SOL     OW 3582  12.408   8.257  12.564
67248SOL    HW1 3583  12.366   8.234  12.647
67248SOL    HW2 3584  12.420   8.173  12.520
67249SOL     OW 3585   8.064  11.080  11.051
67249SOL    HW1 3586   8.019  11.000  11.024
67249SOL    HW2 3587   8.020  11.150  11.002
67250SOL     OW 3588   1.180  10.511   5.467
67250SOL    HW1 3589   1.226  10.556   5.397
67250SOL    HW2 3590   1.204  10.559   5.546
67251SOL     OW 3591   9.336   1.191   4.514
67251SOL    HW1 3592   9.415   1.136   4.506
67251SOL    HW2 3593   9.361   1.274   4.474
67252SOL     OW 3594   1.138   7.569   0.614
67252SOL    HW1 3595   1.226   7.565   0.579
67252SOL    HW2 3596   1.081   7.563   0.537
67253SOL     OW 3597   0.927   6.084  10.408
67253SOL    HW1 3598   0.908   6.115  10.496
67253SOL    HW2 3599   0.955   6.161  10.360
67254SOL     OW 3600   7.385   7.749   7.685
67254SOL    HW1 3601   7.401   7.822   7.625
67254SOL    HW2 3602   7.383   7.790   7.772
67255SOL     OW 3603  12.912   6.590   1.653
67255SOL    HW1 3604  12.992   6.638   1.634
67255SOL    HW2 3605  12.914   6.577   1.748
67256SOL     OW 3606  12.325   2.672   0.033
67256SOL    HW1 3607  12.271   2.716   0.098
67256SOL    HW2 3608  12.413   2.676   0.069
67257SOL     OW 3609  10.699   0.207   4.631
67257SOL    HW1 3610  10.673   0.171   4.546
67257SOL    HW2 3611  10.763   0.275   4.610
67258SOL     OW 3612   3.736   0.122   9.241
67258SOL    HW1 3613   3.721   0.161   9.155
67258SOL    HW2 3614   3.688   0.178   9.301
67259SOL     OW 3615   6.945   4.715  13.572
67259SOL    HW1 3616   6.942   4.679  13.660
67259SOL    HW2 3617   7.025   4.679  13.534
67260SOL     OW 3618  13.148   6.340  14.373
67260SOL    HW1 3619  13.158   6.404  14.302
67260SOL    HW2 3620  13.197   6.378  14.446
67261SOL     OW 3621  13.505   0.137  11.744
67261SOL    HW1 3622  13.534   0.178  11.826
67261SOL    HW2 3623  13.522   0.202  11.677
67262SOL     OW 3624   1.718  10.940  13.280
67262SOL    HW1 3625   1.806  10.919  13.313
67262SOL    HW2 3626   1.733  10.972  13.191
67263SOL     OW 3627   8.534   2.643  11.034
67263SOL    HW1 3628   8.460   2.703  11.044
67263SOL    HW2 3629   8.517   2.573  11.097
67264SOL     OW 3630   0.873  11.638  12.844
67264SOL    HW1 3631   0.964  11.663  12.829
67264SOL    HW2 3632   0.832  11.642  12.758
67265SOL     OW 3633  14.649  10.065   1.619
67265SOL    HW1 3634  14.646   9.981   1.666
67265SOL    HW2 3635  14.739  10.096   1.631
67266SOL     OW 3636   9.289   2.249   5.245
67266SOL    HW1 3637   9.343   2.216   5.317
67266SOL    HW2 3638   9.319   2.339   5.231
67267SOL     OW 3639   3.158   9.177  13.454
67267SOL    HW1 3640   3.253   9.165  13.459
67267SOL    HW2 3641   3.123   9.088  13.454
67268SOL     OW 3642   1.469  11.643  13.215
67268SOL    HW1 3643   1.467  11.563  13.268
67268SOL    HW2 3644   1.377  11.661  13.197
67269SOL     OW 3645   3.575   0.996  11.093
67269SOL    HW1 3646   3.591   1.070  11.152
67269SOL    HW2 3647   3.482   1.001  11.073
67270SOL     OW 3648   2.334  11.671   7.957
67270SOL    HW1 3649   2.325  11.608   7.886
67270SOL    HW2 3650   2.252  11.665   8.006
67271SOL     OW 3651   6.622  13.999  13.819
67271SOL    HW1 3652   6.590  14.085  13.792
67271SOL    HW2 3653   6.547  13.941  13.809
67272SOL     OW 3654  14.361   6.022   4.036
67272SOL    HW1 3655  14.391   6.074   3.962
67272SOL    HW2 3656  14.395   5.934   4.019
67273SOL     OW 3657   7.946   8.328   2.707
67273SOL    HW1 3658   7.962   8.313   2.614
67273SOL    HW2 3659   7.981   8.249   2.749
67274SOL     OW 3660   0.241  13.400   6.395
67274SOL    HW1 3661   0.334  13.420   6.396
67274SOL    HW2 3662   0.213  13.418   6.306
67275SOL     OW 3663   5.226   9.636   1.679
67275SOL    HW1 3664   5.247   9.685   1.759
67275SOL    HW2 3665   5.185   9.701   1.622
67276SOL     OW 3666   4.424  10.937  14.245
67276SOL    HW1 3667   4.369  10.887  14.184
67276SOL    HW2 3668   4.502  10.960  14.193
67277SOL     OW 3669   4.894   0.911  13.944
67277SOL    HW1 3670   4.855   0.995  13.921
67277SOL    HW2 3671   4.986   0.919  13.918
67278SOL     OW 3672  14.033   2.432   1.641
67278SOL    HW1 3673  14.126   2.440   1.622
67278SOL    HW2 3674  13.989   2.486   1.575
67279SOL     OW 3675   7.183  14.353  12.445
67279SOL    HW1 3676   7.272  14.382  12.425
67279SOL    HW2 3677   7.189  14.321  12.535
67280SOL     OW 3678   7.746   6.239   6.831
67280SOL    HW1 3679   7.787   6.325   6.829
67280SOL    HW2 3680   7.803   6.184   6.777
67281SOL     OW 3681  10.438  10.846   1.238
67281SOL    HW1 3682  10.363  10.836   1.296
67281SOL    HW2 3683  10.446  10.761   1.194
67282SOL     OW 3684   2.374   3.388   6.623
67282SOL    HW1 3685   2.368   3.300   6.660
67282SOL    HW2 3686   2.459   3.389   6.578
67283SOL     OW 3687  11.682  14.317   5.411
67283SOL    HW1 3688  11.682  14.405   5.449
67283SOL    HW2 3689  11.594  14.283   5.430
67284SOL     OW 3690   9.584   6.760   0.087
67284SOL    HW1 3691   9.498   6.761   0.129
67284SOL    HW2 3692   9.624   6.678   0.116
67285SOL     OW 3693  14.529   7.618   6.867
67285SOL    HW1 3694  14.447   7.572   6.888
67285SOL    HW2 3695  14.514   7.708   6.894
67286SOL     OW 3696   9.765   5.715   8.011
67286SOL    HW1 3697   9.805   5.720   8.098
67286SOL    HW2 3698   9.825   5.764   7.955
67287SOL     OW 3699   6.329   1.695  10.816
67287SOL    HW1 3700   6.339   1.787  10.793
67287SOL    HW2 3701   6.325   1.694  10.912
67288SOL     OW 3702   5.540   5.356   7.000
67288SOL    HW1 3703   5.622   5.406   7.003
67288SOL    HW2 3704   5.558   5.276   7.050
67289SOL     OW 3705   8.555   5.381  13.955
67289SOL    HW1 3706   8.651   5.391  13.951
67289SOL    HW2 3707   8.534   5.319  13.885
67290SOL     OW 3708   0.241  13.652   4.278
67290SOL    HW1 3709   0.189  13.727   4.307
67290SOL    HW2 3710   0.328  13.688   4.262
67291SOL     OW 3711   4.156  13.791   9.561
67291SOL    HW1 3712   4.105  13.868   9.587
67291SOL    HW2 3713   4.108  13.718   9.600
67292SOL     OW 3714   9.737  11.273   2.015
67292SOL    HW1 3715   9.757  11.362   1.987
67292SOL    HW2 3716   9.677  11.283   2.088
67293SOL     OW 3717   9.378   0.578   9.711
67293SOL    HW1 3718   9.472   0.598   9.709
67293SOL    HW2 3719   9.347   0.619   9.792
67294SOL     OW 3720   0.357  10.220   9.620
67294SOL    HW1 3721   0.345  10.137   9.574
67294SOL    HW2 3722   0.291  10.278   9.582
67295SOL     OW 3723   9.689   3.105   1.954
67295SOL    HW1 3724   9.597   3.116   1.976
67295SOL    HW2 3725   9.711   3.184   1.905
67296SOL     OW 3726   0.173   1.372   8.434
67296SOL    HW1 3727   0.108   1.304   8.452
67296SOL    HW2 3728   0.121   1.450   8.414
67297SOL     OW 3729   1.130  13.606   4.653
67297SOL    HW1 3730   1.180  13.673   4.698
67297SOL    HW2 3731   1.056  13.589   4.712
67298SOL     OW 3732   3.449   7.214  11.655
67298SOL    HW1 3733   3.504   7.273  11.604
67298SOL    HW2 3734   3.389   7.271  11.702
67299SOL     OW 3735   6.904   8.961   1.322
67299SOL    HW1 3736   6.970   9.008   1.272
67299SOL    HW2 3737   6.887   9.018   1.398
67300SOL     OW 3738   9.331  10.927   0.902
67300SOL    HW1 3739   9.243  10.958   0.880
67300SOL    HW2 3740   9.341  10.846   0.854
67301SOL     OW 3741  11.213  11.355  11.390
67301SOL    HW1 3742  11.166  11.339  11.308
67301SOL    HW2 3743  11.305  11.359  11.365
67302SOL     OW 3744   3.541   1.550   4.045
67302SOL    HW1 3745   3.575   1.500   4.119
67302SOL    HW2 3746   3.580   1.637   4.055
67303SOL     OW 3747   6.969  10.777   5.478
67303SOL    HW1 3748   6.901  10.735   5.426
67303SOL    HW2 3749   6.940  10.868   5.486
67304SOL     OW 3750   6.870  10.764  12.129
67304SOL    HW1 3751   6.788  10.813  12.139
67304SOL    HW2 3752   6.844  10.673  12.122
67305SOL     OW 3753  12.968  11.665   0.826
67305SOL    HW1 3754  12.896  11.621   0.870
67305SOL    HW2 3755  12.962  11.637   0.735
67306SOL     OW 3756   4.798   4.167   7.245
67306SOL    HW1 3757   4.863   4.163   7.175
67306SOL    HW2 3758   4.738   4.094   7.226
67307SOL     OW 3759   6.403  14.559   3.743
67307SOL    HW1 3760   6.437  14.616   3.812
67307SOL    HW2 3761   6.318  14.530   3.775
67308SOL     OW 3762   1.859   3.210   1.419
67308SOL    HW1 3763   1.887   3.174   1.335
67308SOL    HW2 3764   1.838   3.302   1.400
67309SOL     OW 3765  14.690   3.538   4.958
67309SOL    HW1 3766  14.747   3.479   5.008
67309SOL    HW2 3767  14.750   3.587   4.902
67310SOL     OW 3768   1.326  13.261   5.397
67310SOL    HW1 3769   1.273  13.340   5.411
67310SOL    HW2 3770   1.406  13.276   5.447
67311SOL     OW 3771   2.109   2.261   8.067
67311SOL    HW1 3772   2.103   2.259   8.163
67311SOL    HW2 3773   2.097   2.170   8.040
67312SOL     OW 3774   7.680   6.974   9.521
67312SOL    HW1 3775   7.663   7.054   9.570
67312SOL    HW2 3776   7.611   6.914   9.549
67313SOL     OW 3777   0.796   4.920  10.425
67313SOL    HW1 3778   0.767   4.895  10.337
67313SOL    HW2 3779   0.830   4.839  10.463
67314SOL     OW 3780  13.164   3.977   7.845
67314SOL    HW1 3781  13.089   3.917   7.835
67314SOL    HW2 3782  13.134   4.041   7.910
67315SOL     OW 3783   4.359  14.477  10.895
67315SOL    HW1 3784   4.402  14.456  10.978
67315SOL    HW2 3785   4.276  14.518  10.921
67316SOL     OW 3786   9.034   7.537   6.736
67316SOL    HW1 3787   9.078   7.538   6.651
67316SOL    HW2 3788   8.941   7.546   6.714
67317SOL     OW 3789  14.201   4.714  10.123
67317SOL    HW1 3790  14.194   4.789  10.182
67317SOL    HW2 3791  14.295   4.704  10.108
67318SOL     OW 3792  12.456   0.406   8.588
67318SOL    HW1 3793  12.517   0.449   8.647
67318SOL    HW2 3794  12.428   0.327   8.635
67319SOL     OW 3795  12.306   5.386   5.147
67319SOL    HW1 3796  12.327   5.322   5.215
67319SOL    HW2 3797  12.224   5.426   5.176
67320SOL     OW 3798  11.822  12.026   3.004
67320SOL    HW1 3799  11.860  12.056   3.086
67320SOL    HW2 3800  11.884  11.961   2.971
67321SOL     OW 3801  11.622   2.249   3.753
67321SOL    HW1 3802  11.529   2.239   3.774
67321SOL    HW2 3803  11.658   2.161   3.759
67322SOL     OW 3804   7.338   2.263   5.449
67322SOL    HW1 3805   7.384   2.336   5.409
67322SOL    HW2 3806   7.330   2.287   5.542
67323SOL     OW 3807  10.606   3.790   3.808
67323SOL    HW1 3808  10.528   3.810   3.859
67323SOL    HW2 3809  10.579   3.722   3.747
67324SOL     OW 3810  13.502   3.730   7.040
67324SOL    HW1 3811  13.505   3.704   6.948
67324SOL    HW2 3812  13.479   3.650   7.087
67325SOL     OW 3813  10.798   9.821  14.080
67325SOL    HW1 3814  10.735   9.750  14.071
67325SOL    HW2 3815  10.797   9.844  14.173
67326SOL     OW 3816   5.490   8.259   0.507
67326SOL    HW1 3817   5.498   8.215   0.591
67326SOL    HW2 3818   5.515   8.192   0.443
67327SOL     OW 3819   4.694  14.142  11.749
67327SOL    HW1 3820   4.611  14.102  11.725
67327SOL    HW2 3821   4.727  14.181  11.668
67328SOL     OW 3822  11.412  12.312   3.870
67328SOL    HW1 3823  11.397  12.381   3.806
67328SOL    HW2 3824  11.370  12.235   3.832
67329SOL     OW 3825   8.812   6.285  13.615
67329SOL    HW1 3826   8.740   6.277  13.678
67329SOL    HW2 3827   8.840   6.376  13.623
67330SOL     OW 3828   9.556   9.315   0.414
67330SOL    HW1 3829   9.504   9.394   0.422
67330SOL    HW2 3830   9.622   9.337   0.347
67331SOL     OW 3831   6.024   7.200   4.089
67331SOL    HW1 3832   6.065   7.171   4.171
67331SOL    HW2 3833   6.097   7.210   4.028
67332SOL     OW 3834   8.695   4.230   6.685
67332SOL    HW1 3835   8.696   4.189   6.598
67332SOL    HW2 3836   8.629   4.299   6.678
67333SOL     OW 3837  13.116   4.251  11.020
67333SOL    HW1 3838  13.091   4.299  11.099
67333SOL    HW2 3839  13.210   4.264  11.013
67334SOL     OW 3840  10.701   8.255  13.322
67334SOL    HW1 3841  10.782   8.206  13.312
67334SOL    HW2 3842  10.725   8.332  13.371
67335SOL     OW 3843   0.743  12.959   2.840
67335SOL    HW1 3844   0.666  12.999   2.799
67335SOL    HW2 3845   0.816  13.016   2.815
67336SOL     OW 3846  10.220   1.706  12.620
67336SOL    HW1 3847  10.219   1.802  12.616
67336SOL    HW2 3848  10.286   1.686  12.686
67337SOL     OW 3849   4.298  14.579   7.582
67337SOL    HW1 3850   4.308  14.484   7.578
67337SOL    HW2 3851   4.214  14.597   7.540
67338SOL     OW 3852  13.326   1.739  13.695
67338SOL    HW1 3853  13.310   1.660  13.745
67338SOL    HW2 3854  13.266   1.733  13.620
67339SOL     OW 3855   9.955   1.576   7.166
67339SOL    HW1 3856  10.040   1.618   7.154
67339SOL    HW2 3857   9.938   1.531   7.084
67340SOL     OW 3858   7.328   7.913  10.859
67340SOL    HW1 3859   7.259   7.863  10.816
67340SOL    HW2 3860   7.283   7.987  10.899
67341SOL     OW 3861  10.846   9.589   5.105
67341SOL    HW1 3862  10.937   9.571   5.127
67341SOL    HW2 3863  10.811   9.631   5.184
67342SOL     OW 3864  12.473  13.364   4.074
67342SOL    HW1 3865  12.528  13.293   4.106
67342SOL    HW2 3866  12.488  13.365   3.979
67343SOL     OW 3867  10.364   8.970   9.177
67343SOL    HW1 3868  10.426   9.025   9.226
67343SOL    HW2 3869  10.418   8.901   9.139
67344SOL     OW 3870  10.213   2.460   1.658
67344SOL    HW1 3871  10.216   2.445   1.752
67344SOL    HW2 3872  10.131   2.509   1.644
67345SOL     OW 3873  13.347   5.540   8.517
67345SOL    HW1 3874  13.438   5.521   8.538
67345SOL    HW2 3875  13.340   5.635   8.520
67346SOL     OW 3876   8.873   4.184  14.023
67346SOL    HW1 3877   8.890   4.145  13.937
67346SOL    HW2 3878   8.959   4.210  14.056
67347SOL     OW 3879   0.928   7.225   4.084
67347SOL    HW1 3880   1.023   7.237   4.095
67347SOL    HW2 3881   0.908   7.144   4.131
67348SOL     OW 3882   6.141  10.325  14.616
67348SOL    HW1 3883   6.198  10.343  14.541
67348SOL    HW2 3884   6.131  10.230  14.617
67349SOL     OW 3885   5.631  11.574   1.934
67349SOL    HW1 3886   5.605  11.637   2.001
67349SOL    HW2 3887   5.552  11.523   1.916
67350SOL     OW 3888   7.253   7.671   0.339
67350SOL    HW1 3889   7.199   7.731   0.391
67350SOL    HW2 3890   7.338   7.714   0.333
67351SOL     OW 3891  14.766  11.548   6.639
67351SOL    HW1 3892  14.786  11.642   6.644
67351SOL    HW2 3893  14.681  11.544   6.594
67352SOL     OW 3894  11.023   8.155   8.905
67352SOL    HW1 3895  11.067   8.140   8.821
67352SOL    HW2 3896  11.054   8.085   8.962
67353SOL     OW 3897   4.753   8.346   0.848
67353SOL    HW1 3898   4.705   8.416   0.891
67353SOL    HW2 3899   4.717   8.265   0.885
67354SOL     OW 3900  11.221  13.574  11.647
67354SOL    HW1 3901  11.272  13.493  11.652
67354SOL    HW2 3902  11.182  13.572  11.559
67355SOL     OW 3903  11.515   9.626   0.339
67355SOL    HW1 3904  11.545   9.696   0.396
67355SOL    HW2 3905  11.528   9.546   0.390
67356SOL     OW 3906   6.679  11.932  11.376
67356SOL    HW1 3907   6.759  11.911  11.423
67356SOL    HW2 3908   6.708  11.968  11.293
67357SOL     OW 3909  11.958   2.049   5.128
67357SOL    HW1 3910  11.945   1.997   5.207
67357SOL    HW2 3911  11.999   2.130   5.158
67358SOL     OW 3912   1.440  10.977   8.294
67358SOL    HW1 3913   1.408  11.048   8.351
67358SOL    HW2 3914   1.520  10.948   8.336
67359SOL     OW 3915  11.697  10.287   9.028
67359SOL    HW1 3916  11.740  10.366   8.995
67359SOL    HW2 3917  11.703  10.225   8.955
67360SOL     OW 3918   7.001   3.834   6.568
67360SOL    HW1 3919   7.001   3.748   6.609
67360SOL    HW2 3920   7.048   3.890   6.631
67361SOL     OW 3921   7.788   6.915   1.231
67361SOL    HW1 3922   7.778   6.940   1.139
67361SOL    HW2 3923   7.770   6.821   1.232
67362SOL     OW 3924  11.388   7.043   1.033
67362SOL    HW1 3925  11.393   7.043   1.129
67362SOL    HW2 3926  11.475   7.071   1.005
67363SOL     OW 3927   4.345   2.866   6.996
67363SOL    HW1 3928   4.408   2.904   7.057
67363SOL    HW2 3929   4.269   2.925   7.001
67364SOL     OW 3930  10.597  10.069   2.451
67364SOL    HW1 3931  10.556  10.156   2.458
67364SOL    HW2 3932  10.529  10.014   2.412
67365SOL     OW 3933  10.851  12.657  13.860
67365SOL    HW1 3934  10.771  12.629  13.816
67365SOL    HW2 3935  10.852  12.608  13.942
67366SOL     OW 3936   4.043   6.762   3.829
67366SOL    HW1 3937   3.972   6.826   3.823
67366SOL    HW2 3938   4.024   6.712   3.909
67367SOL     OW 3939   2.958  10.087   4.262
67367SOL    HW1 3940   2.992  10.043   4.185
67367SOL    HW2 3941   2.998  10.042   4.336
67368SOL     OW 3942   8.246   6.804  11.057
67368SOL    HW1 3943   8.232   6.804  10.963
67368SOL    HW2 3944   8.341   6.815  11.067
67369SOL     OW 3945   2.947  14.233  10.326
67369SOL    HW1 3946   2.989  14.188  10.252
67369SOL    HW2 3947   2.922  14.318  10.292
67370SOL     OW 3948  14.694   8.913   8.421
67370SOL    HW1 3949  14.684   8.823   8.450
67370SOL    HW2 3950  14.648   8.917   8.337
67371SOL     OW 3951   7.106   5.088   9.434
67371SOL    HW1 3952   7.087   5.110   9.526
67371SOL    HW2 3953   7.094   5.171   9.387
67372SOL     OW 3954   5.186   4.113   6.105
67372SOL    HW1 3955   5.095   4.108   6.133
67372SOL    HW2 3956   5.206   4.206   6.105
67373SOL     OW 3957  12.360   8.585  11.883
67373SOL    HW1 3958  12.282   8.636  11.862
67373SOL    HW2 3959  12.433   8.640  11.855
67374SOL     OW 3960  14.748   7.995   5.730
67374SOL    HW1 3961  14.694   7.960   5.801
67374SOL    HW2 3962  14.685   8.024   5.665
67375SOL     OW 3963   8.809   2.999   9.438
67375SOL    HW1 3964   8.798   2.977   9.531
67375SOL    HW2 3965   8.724   2.977   9.398
67376SOL     OW 3966  12.788  11.483   0.126
67376SOL    HW1 3967  12.873  11.499   0.166
67376SOL    HW2 3968  12.801  11.502   0.033
67377SOL     OW 3969  12.309   3.018  12.689
67377SOL    HW1 3970  12.361   3.046  12.763
67377SOL    HW2 3971  12.227   2.988  12.727
67378SOL     OW 3972  11.857  10.958  12.611
67378SOL    HW1 3973  11.871  10.936  12.703
67378SOL    HW2 3974  11.932  11.012  12.588
67379SOL     OW 3975   0.549  11.058  11.757
67379SOL    HW1 3976   0.592  11.097  11.681
67379SOL    HW2 3977   0.588  10.971  11.765
67380SOL     OW 3978   4.303   0.418   7.471
67380SOL    HW1 3979   4.264   0.416   7.384
67380SOL    HW2 3980   4.239   0.373   7.527
67381SOL     OW 3981   6.157  10.299  12.396
67381SOL    HW1 3982   6.083  10.239  12.402
67381SOL    HW2 3983   6.191  10.304  12.485
67382SOL     OW 3984  12.215   4.847   1.772
67382SOL    HW1 3985  12.234   4.824   1.863
67382SOL    HW2 3986  12.300   4.845   1.728
67383SOL     OW 3987   0.554  10.522  11.608
67383SOL    HW1 3988   0.475  10.492  11.564
67383SOL    HW2 3989   0.567  10.460  11.680
67384SOL     OW 3990  10.497   1.243  12.421
67384SOL    HW1 3991  10.472   1.278  12.506
67384SOL    HW2 3992  10.420   1.254  12.366
67385SOL     OW 3993   5.417   0.072   7.877
67385SOL    HW1 3994   5.504   0.082   7.838
67385SOL    HW2 3995   5.358   0.116   7.815
67386SOL     OW 3996  13.627   6.348   8.334
67386SOL    HW1 3997  13.683   6.287   8.286
67386SOL    HW2 3998  13.553   6.364   8.276
67387SOL     OW 3999   1.731   7.783   7.242
67387SOL    HW1 4000   1.635   7.782   7.235
67387SOL    HW2 4001   1.748   7.757   7.332
67388SOL     OW 4002   5.579  12.837   4.961
67388SOL    HW1 4003   5.577  12.773   4.890
67388SOL    HW2 4004   5.568  12.922   4.917
67389SOL     OW 4005  13.812  13.529   7.980
67389SOL    HW1 4006  13.896  13.570   7.961
67389SOL    HW2 4007  13.799  13.466   7.910
67390SOL     OW 4008   5.488   0.789   4.146
67390SOL    HW1 4009   5.538   0.800   4.227
67390SOL    HW2 4010   5.554   0.769   4.080
67391SOL     OW 4011   0.116  14.311  10.164
67391SOL    HW1 4012   0.207  14.335  10.182
67391SOL    HW2 4013   0.064  14.372  10.216
67392SOL     OW 4014  13.525   2.936   1.290
67392SOL    HW1 4015  13.595   2.875   1.313
67392SOL    HW2 4016  13.457   2.881   1.251
67393SOL     OW 4017  12.126   8.181   3.405
67393SOL    HW1 4018  12.040   8.213   3.433
67393SOL    HW2 4019  12.131   8.203   3.312
67394SOL     OW 4020   0.650   9.221   5.764
67394SOL    HW1 4021   0.731   9.265   5.738
67394SOL    HW2 4022   0.639   9.244   5.856
67395SOL     OW 4023   6.838   3.039   3.862
67395SOL    HW1 4024   6.767   3.061   3.802
67395SOL    HW2 4025   6.901   3.110   3.852
67396SOL     OW 4026   8.727  12.348   2.897
67396SOL    HW1 4027   8.669  12.417   2.929
67396SOL    HW2 4028   8.789  12.333   2.968
67397SOL     OW 4029   6.404   7.874  12.809
67397SOL    HW1 4030   6.443   7.863  12.896
67397SOL    HW2 4031   6.320   7.918  12.827
67398SOL     OW 4032  11.439   6.215   6.624
67398SOL    HW1 4033  11.533   6.215   6.606
67398SOL    HW2 4034  11.423   6.296   6.672
67399SOL     OW 4035  11.276  11.222   4.402
67399SOL    HW1 4036  11.310  11.205   4.315
67399SOL    HW2 4037  11.351  11.209   4.460
67400SOL     OW 4038   7.979  10.928   1.626
67400SOL    HW1 4039   7.984  10.862   1.695
67400SOL    HW2 4040   8.069  10.958   1.616
67401SOL     OW 4041   0.644   5.223   5.038
67401SOL    HW1 4042   0.697   5.298   5.064
67401SOL    HW2 4043   0.707   5.150   5.034
67402SOL     OW 4044  13.404  12.175  14.048
67402SOL    HW1 4045  13.424  12.151  13.958
67402SOL    HW2 4046  13.481  12.224  14.077
67403SOL     OW 4047  10.327   0.676   7.554
67403SOL    HW1 4048  10.400   0.638   7.602
67403SOL    HW2 4049  10.350   0.768   7.543
67404SOL     OW 4050   3.875  13.862   7.559
67404SOL    HW1 4051   3.859  13.808   7.482
67404SOL    HW2 4052   3.842  13.809   7.632
67405SOL     OW 4053   4.329  10.377   5.816
67405SOL    HW1 4054   4.422  10.360   5.796
67405SOL    HW2 4055   4.296  10.421   5.738
67406SOL     OW 4056  13.121   9.875   2.090
67406SOL    HW1 4057  13.065   9.811   2.044
67406SOL    HW2 4058  13.059   9.939   2.125
67407SOL     OW 4059   7.162   6.252  14.095
67407SOL    HW1 4060   7.155   6.311  14.170
67407SOL    HW2 4061   7.116   6.172  14.123
67408SOL     OW 4062  14.305   4.937  14.280
67408SOL    HW1 4063  14.399   4.935  14.298
67408SOL    HW2 4064  14.272   5.007  14.336
67409SOL     OW 4065   9.862   4.199  14.806
67409SOL    HW1 4066   9.923   4.223  14.876
67409SOL    HW2 4067   9.785   4.166  14.851
67410SOL     OW 4068  11.218   2.359   7.816
67410SOL    HW1 4069  11.307   2.380   7.788
67410SOL    HW2 4070  11.213   2.264   7.810
67411SOL     OW 4071   8.948   7.895   3.622
67411SOL    HW1 4072   8.894   7.847   3.560
67411SOL    HW2 4073   8.958   7.982   3.582
67412SOL     OW 4074   6.088   9.475  12.007
67412SOL    HW1 4075   6.156   9.541  11.992
67412SOL    HW2 4076   6.132   9.405  12.055
67413SOL     OW 4077   8.990   8.872   3.029
67413SOL    HW1 4078   8.915   8.927   3.051
67413SOL    HW2 4079   9.004   8.887   2.936
67414SOL     OW 4080   2.157   5.439   0.744
67414SOL    HW1 4081   2.181   5.440   0.652
67414SOL    HW2 4082   2.063   5.420   0.744
67415SOL     OW 4083   9.865  13.257   7.542
67415SOL    HW1 4084   9.771  13.244   7.556
67415SOL    HW2 4085   9.901  13.263   7.630
67416SOL     OW 4086  12.806   6.137   6.012
67416SOL    HW1 4087  12.786   6.052   6.050
67416SOL    HW2 4088  12.780   6.200   6.080
67417SOL     OW 4089   2.318   4.948   1.576
67417SOL    HW1 4090   2.252   4.969   1.510
67417SOL    HW2 4091   2.355   4.864   1.548
67418SOL     OW 4092   9.792  13.148   8.964
67418SOL    HW1 4093   9.749  13.225   9.000
67418SOL    HW2 4094   9.868  13.182   8.917
67419SOL     OW 4095  13.488   2.196   3.953
67419SOL    HW1 4096  13.563   2.162   3.904
67419SOL    HW2 4097  13.525   2.231   4.033
67420SOL     OW 4098   5.512  12.436   3.081
67420SOL    HW1 4099   5.567  12.436   3.159
67420SOL    HW2 4100   5.442  12.374   3.102
67421SOL     OW 4101  14.495   2.415   0.985
67421SOL    HW1 4102  14.497   2.510   0.978
67421SOL    HW2 4103  14.403   2.392   0.972
67422SOL     OW 4104   9.135   3.104  13.642
67422SOL    HW1 4105   9.216   3.153  13.656
67422SOL    HW2 4106   9.111   3.072  13.729
67423SOL     OW 4107   8.975  12.892  13.097
67423SOL    HW1 4108   8.910  12.944  13.050
67423SOL    HW2 4109   8.977  12.808  13.051
67424SOL     OW 4110  13.232  10.534   1.853
67424SOL    HW1 4111  13.141  10.510   1.842
67424SOL    HW2 4112  13.247  10.532   1.947
67425SOL     OW 4113   7.016  12.219   0.114
67425SOL    HW1 4114   7.093  12.165   0.103
67425SOL    HW2 4115   7.041  12.284   0.180
67426SOL     OW 4116   3.034  11.186   4.921
67426SOL    HW1 4117   2.963  11.122   4.917
67426SOL    HW2 4118   3.103  11.143   4.971
67427SOL     OW 4119   7.806   4.407   5.714
67427SOL    HW1 4120   7.854   4.418   5.796
67427SOL    HW2 4121   7.854   4.458   5.650
67428SOL     OW 4122   4.690   7.606  13.688
67428SOL    HW1 4123   4.642   7.529  13.658
67428SOL    HW2 4124   4.742   7.574  13.762
67429SOL     OW 4125   2.839   7.461   3.815
67429SOL    HW1 4126   2.930   7.442   3.794
67429SOL    HW2 4127   2.802   7.496   3.734
67430SOL     OW 4128   5.110  12.567   6.815
67430SOL    HW1 4129   5.201  12.597   6.814
67430SOL    HW2 4130   5.060  12.641   6.779
67431SOL     OW 4131   1.726   9.354   4.272
67431SOL    HW1 4132   1.638   9.376   4.240
67431SOL    HW2 4133   1.711   9.299   4.349
67432SOL     OW 4134   3.718  11.581  10.308
67432SOL    HW1 4135   3.689  11.630  10.231
67432SOL    HW2 4136   3.813  11.589  10.308
67433SOL     OW 4137   8.060   6.058  13.082
67433SOL    HW1 4138   8.137   6.107  13.054
67433SOL    HW2 4139   7.987   6.100  13.036
67434SOL     OW 4140   9.227   3.388   5.017
67434SOL    HW1 4141   9.226   3.481   5.038
67434SOL    HW2 4142   9.319   3.368   4.999
67435SOL     OW 4143  10.927   4.160   0.074
67435SOL    HW1 4144  10.945   4.220   0.002
67435SOL    HW2 4145  10.856   4.201   0.123
67436SOL     OW 4146  13.660   2.010   0.655
67436SOL    HW1 4147  13.647   2.096   0.614
67436SOL    HW2 4148  13.579   1.994   0.703
67437SOL     OW 4149   4.526  12.688   1.946
67437SOL    HW1 4150   4.521  12.775   1.905
67437SOL    HW2 4151   4.561  12.631   1.877
67438SOL     OW 4152  13.332   4.275   8.792
67438SOL    HW1 4153  13.276   4.251   8.717
67438SOL    HW2 4154  13.419   4.284   8.754
67439SOL     OW 4155   7.954   9.816  12.699
67439SOL    HW1 4156   7.904   9.735  12.684
67439SOL    HW2 4157   8.013   9.822  12.624
67440SOL     OW 4158   5.201   0.124  11.682
67440SOL    HW1 4159   5.279   0.162  11.642
67440SOL    HW2 4160   5.235   0.054  11.738
67441SOL     OW 4161  11.779  12.887   8.293
67441SOL    HW1 4162  11.797  12.870   8.200
67441SOL    HW2 4163  11.865  12.885   8.334
67442SOL     OW 4164   7.803   7.881   2.387
67442SOL    HW1 4165   7.885   7.839   2.363
67442SOL    HW2 4166   7.787   7.855   2.477
67443SOL     OW 4167  13.599   4.217   4.501
67443SOL    HW1 4168  13.691   4.224   4.475
67443SOL    HW2 4169  13.554   4.285   4.452
67444SOL     OW 4170  11.914   4.906   2.910
67444SOL    HW1 4171  11.889   4.957   2.833
67444SOL    HW2 4172  11.831   4.877   2.948
67445SOL     OW 4173  11.202   1.191   5.677
67445SOL    HW1 4174  11.192   1.283   5.653
67445SOL    HW2 4175  11.271   1.190   5.743
67446SOL     OW 4176   7.798  12.490  13.595
67446SOL    HW1 4177   7.847  12.543  13.659
67446SOL    HW2 4178   7.742  12.434  13.648
67447SOL     OW 4179  11.778   4.755   0.814
67447SOL    HW1 4180  11.855   4.802   0.847
67447SOL    HW2 4181  11.713   4.762   0.884
67448SOL     OW 4182   3.395  13.197   9.495
67448SOL    HW1 4183   3.433  13.133   9.434
67448SOL    HW2 4184   3.421  13.282   9.461
67449SOL     OW 4185   2.875   6.463  11.044
67449SOL    HW1 4186   2.926   6.412  11.106
67449SOL    HW2 4187   2.938   6.492  10.978
67450SOL     OW 4188   5.523   7.668   6.113
67450SOL    HW1 4189   5.571   7.748   6.091
67450SOL    HW2 4190   5.569   7.600   6.064
67451SOL     OW 4191   8.260  12.387   0.448
67451SOL    HW1 4192   8.231  12.477   0.433
67451SOL    HW2 4193   8.288  12.385   0.539
67452SOL     OW 4194  14.105   9.179   7.742
67452SOL    HW1 4195  14.081   9.240   7.811
67452SOL    HW2 4196  14.181   9.220   7.699
67453SOL     OW 4197   9.091   3.469   2.846
67453SOL    HW1 4198   9.085   3.490   2.939
67453SOL    HW2 4199   9.054   3.381   2.838
67454SOL     OW 4200   8.946   9.211   3.565
67454SOL    HW1 4201   8.945   9.145   3.635
67454SOL    HW2 4202   8.986   9.167   3.491
67455SOL     OW 4203   4.615   3.307   5.911
67455SOL    HW1 4204   4.526   3.330   5.937
67455SOL    HW2 4205   4.671   3.362   5.966
67456SOL     OW 4206   7.965  10.983   4.183
67456SOL    HW1 4207   8.052  10.963   4.149
67456SOL    HW2 4208   7.905  10.959   4.112
67457SOL     OW 4209  14.522   0.992  12.187
67457SOL    HW1 4210  14.613   0.963  12.190
67457SOL    HW2 4211  14.484   0.962  12.270
67458SOL     OW 4212   0.699  14.809   6.535
67458SOL    HW1 4213   0.724  14.717   6.550
67458SOL    HW2 4214   0.778  14.859   6.553
67459SOL     OW 4215   1.525   6.798   4.235
67459SOL    HW1 4216   1.592   6.760   4.292
67459SOL    HW2 4217   1.542   6.760   4.149
67460SOL     OW 4218   0.767  10.852  11.805
67460SOL    HW1 4219   0.817  10.910  11.863
67460SOL    HW2 4220   0.825  10.777  11.791
67461SOL     OW 4221   7.460   9.900   1.626
67461SOL    HW1 4222   7.545   9.931   1.659
67461SOL    HW2 4223   7.454   9.936   1.538
67462SOL     OW 4224   6.814  11.287   0.679
67462SOL    HW1 4225   6.908  11.299   0.692
67462SOL    HW2 4226   6.786  11.236   0.755
67463SOL     OW 4227  14.388   3.786  12.445
67463SOL    HW1 4228  14.459   3.737  12.404
67463SOL    HW2 4229  14.432   3.846  12.505
67464SOL     OW 4230   1.944  14.220   8.416
67464SOL    HW1 4231   1.936  14.197   8.324
67464SOL    HW2 4232   1.953  14.316   8.416
67465SOL     OW 4233   0.910  11.701   4.541
67465SOL    HW1 4234   0.973  11.695   4.613
67465SOL    HW2 4235   0.916  11.792   4.512
67466SOL     OW 4236   3.976   6.007  10.852
67466SOL    HW1 4237   3.943   6.070  10.789
67466SOL    HW2 4238   4.035   5.951  10.802
67467SOL     OW 4239   6.391  13.111  13.707
67467SOL    HW1 4240   6.470  13.142  13.752
67467SOL    HW2 4241   6.416  13.106  13.615
67468SOL     OW 4242   1.883  12.962   4.973
67468SOL    HW1 4243   1.830  12.948   4.894
67468SOL    HW2 4244   1.973  12.948   4.944
67469SOL     OW 4245   1.073   5.344   0.201
67469SOL    HW1 4246   1.076   5.418   0.141
67469SOL    HW2 4247   1.113   5.272   0.152
67470SOL     OW 4248   6.380   5.870  12.155
67470SOL    HW1 4249   6.323   5.819  12.213
67470SOL    HW2 4250   6.435   5.804  12.112
67471SOL     OW 4251   2.626  14.461   1.958
67471SOL    HW1 4252   2.562  14.478   1.890
67471SOL    HW2 4253   2.578  14.414   2.026
67472SOL     OW 4254   4.977   3.777  13.798
67472SOL    HW1 4255   5.011   3.864  13.778
67472SOL    HW2 4256   5.052   3.719  13.785
67473SOL     OW 4257  10.820  12.631  11.599
67473SOL    HW1 4258  10.744  12.594  11.554
67473SOL    HW2 4259  10.783  12.690  11.664
67474SOL     OW 4260  13.256  13.367  14.086
67474SOL    HW1 4261  13.172  13.324  14.105
67474SOL    HW2 4262  13.313  13.295  14.057
67475SOL     OW 4263   2.971   7.552   6.064
67475SOL    HW1 4264   2.889   7.505   6.080
67475SOL    HW2 4265   3.018   7.548   6.147
67476SOL     OW 4266   3.727   2.700   9.193
67476SOL    HW1 4267   3.647   2.647   9.199
67476SOL    HW2 4268   3.706   2.780   9.242
67477SOL     OW 4269   9.843   2.168   5.789
67477SOL    HW1 4270   9.806   2.158   5.877
67477SOL    HW2 4271   9.923   2.219   5.803
67478SOL     OW 4272   0.043  14.544   6.067
67478SOL    HW1 4273  14.830  14.567   6.063
67478SOL    HW2 4274   0.059  14.494   5.986
67479SOL     OW 4275  12.083   3.587  11.173
67479SOL    HW1 4276  12.115   3.677  11.161
67479SOL    HW2 4277  11.990   3.598  11.192
67480SOL     OW 4278  10.009   9.356  12.870
67480SOL    HW1 4279   9.964   9.273  12.886
67480SOL    HW2 4280  10.023   9.392  12.958
67481SOL     OW 4281   9.716   6.729   3.459
67481SOL    HW1 4282   9.725   6.655   3.399
67481SOL    HW2 4283   9.627   6.720   3.493
67482SOL     OW 4284  12.698  13.520   1.347
67482SOL    HW1 4285  12.668  13.449   1.403
67482SOL    HW2 4286  12.636  13.591   1.364
67483SOL     OW 4287   8.675  10.517  11.644
67483SOL    HW1 4288   8.668  10.552  11.733
67483SOL    HW2 4289   8.599  10.552  11.599
67484SOL     OW 4290   6.129   1.646   5.493
67484SOL    HW1 4291   6.090   1.702   5.426
67484SOL    HW2 4292   6.186   1.705   5.543
67485SOL     OW 4293   7.215  14.355  13.311
67485SOL    HW1 4294   7.221  14.450  13.316
67485SOL    HW2 4295   7.181  14.338  13.223
67486SOL     OW 4296   9.946   8.915   3.746
67486SOL    HW1 4297   9.874   8.871   3.701
67486SOL    HW2 4298   9.929   8.898   3.839
67487SOL     OW 4299  12.875  13.413   8.619
67487SOL    HW1 4300  12.917  13.484   8.570
67487SOL    HW2 4301  12.934  13.397   8.692
67488SOL     OW 4302   7.367   5.277  13.352
67488SOL    HW1 4303   7.297   5.223  13.315
67488SOL    HW2 4304   7.435   5.214  13.376
67489SOL     OW 4305   7.713  14.197   4.558
67489SOL    HW1 4306   7.655  14.224   4.487
67489SOL    HW2 4307   7.708  14.102   4.559
67490SOL     OW 4308  13.836  12.472   3.887
67490SOL    HW1 4309  13.777  12.497   3.958
67490SOL    HW2 4310  13.778  12.431   3.822
67491SOL     OW 4311   0.547  13.768   1.755
67491SOL    HW1 4312   0.626  13.738   1.708
67491SOL    HW2 4313   0.475  13.724   1.710
67492SOL     OW 4314   9.770  12.635   2.023
67492SOL    HW1 4315   9.690  12.688   2.015
67492SOL    HW2 4316   9.829  12.672   1.957
67493SOL     OW 4317   1.062   0.765   9.860
67493SOL    HW1 4318   1.040   0.837   9.801
67493SOL    HW2 4319   1.069   0.688   9.803
67494SOL     OW 4320   5.742   4.656  10.744
67494SOL    HW1 4321   5.677   4.640  10.813
67494SOL    HW2 4322   5.692   4.650  10.663
67495SOL     OW 4323  13.932  10.896   2.409
67495SOL    HW1 4324  13.914  10.925   2.319
67495SOL    HW2 4325  14.027  10.903   2.417
67496SOL     OW 4326  10.088   6.736   9.813
67496SOL    HW1 4327  10.066   6.677   9.885
67496SOL    HW2 4328  10.184   6.736   9.810
67497SOL     OW 4329  10.904   4.391   3.723
67497SOL    HW1 4330  10.994   4.408   3.694
67497SOL    HW2 4331  10.879   4.311   3.677
67498SOL     OW 4332  11.645  13.809   2.800
67498SOL    HW1 4333  11.657  13.809   2.705
67498SOL    HW2 4334  11.729  13.839   2.836
67499SOL     OW 4335   4.412  13.557   0.537
67499SOL    HW1 4336   4.450  13.484   0.488
67499SOL    HW2 4337   4.485  13.617   0.550
67500SOL     OW 4338   2.306   9.210  10.895
67500SOL    HW1 4339   2.372   9.228  10.827
67500SOL    HW2 4340   2.239   9.159  10.850
67501SOL     OW 4341   5.148   5.305   0.481
67501SOL    HW1 4342   5.063   5.302   0.524
67501SOL    HW2 4343   5.200   5.365   0.535
67502SOL     OW 4344   6.041   5.976  12.281
67502SOL    HW1 4345   6.117   5.924  12.308
67502SOL    HW2 4346   5.966   5.932  12.319
67503SOL     OW 4347  12.873  12.680   8.265
67503SOL    HW1 4348  12.950  12.733   8.245
67503SOL    HW2 4349  12.907  12.603   8.310
67504SOL     OW 4350   1.986   1.405  14.325
67504SOL    HW1 4351   1.927   1.446  14.262
67504SOL    HW2 4352   1.939   1.407  14.408
67505SOL     OW 4353  11.711  13.561   2.551
67505SOL    HW1 4354  11.670  13.544   2.466
67505SOL    HW2 4355  11.732  13.655   2.549
67506SOL     OW 4356   8.741  14.824   2.775
67506SOL    HW1 4357   8.798  14.864   2.841
67506SOL    HW2 4358   8.785  14.841   2.692
67507SOL     OW 4359   6.070   8.578  13.916
67507SOL    HW1 4360   6.082   8.637  13.841
67507SOL    HW2 4361   6.072   8.490  13.877
67508SOL     OW 4362   7.189  14.471   4.639
67508SOL    HW1 4363   7.248  14.406   4.601
67508SOL    HW2 4364   7.242  14.520   4.701
67509SOL     OW 4365   1.318  10.015  11.337
67509SOL    HW1 4366   1.389  10.069  11.302
67509SOL    HW2 4367   1.289  10.060  11.415
67510SOL     OW 4368   2.330   8.079  10.220
67510SOL    HW1 4369   2.314   8.085  10.126
67510SOL    HW2 4370   2.418   8.113  10.232
67511SOL     OW 4371  14.480  10.436   2.798
67511SOL    HW1 4372  14.436  10.473   2.722
67511SOL    HW2 4373  14.562  10.484   2.805
67512SOL     OW 4374  14.132  12.386   8.268
67512SOL    HW1 4375  14.111  12.410   8.359
67512SOL    HW2 4376  14.060  12.423   8.217
67513SOL     OW 4377   8.805   9.451  13.142
67513SOL    HW1 4378   8.792   9.517  13.074
67513SOL    HW2 4379   8.897   9.425  13.133
67514SOL     OW 4380  12.202   8.836   3.143
67514SOL    HW1 4381  12.177   8.761   3.090
67514SOL    HW2 4382  12.292   8.855   3.118
67515SOL     OW 4383   5.798   4.839  11.444
67515SOL    HW1 4384   5.781   4.920  11.493
67515SOL    HW2 4385   5.878   4.857  11.395
67516SOL     OW 4386   2.990   9.556   7.685
67516SOL    HW1 4387   2.957   9.466   7.681
67516SOL    HW2 4388   2.940   9.596   7.757
67517SOL     OW 4389  14.131   6.005   4.210
67517SOL    HW1 4390  14.081   6.026   4.131
67517SOL    HW2 4391  14.221   6.027   4.188
67518SOL     OW 4392  14.759  11.804   6.919
67518SOL    HW1 4393  14.705  11.831   6.993
67518SOL    HW2 4394  14.817  11.736   6.955
67519SOL     OW 4395  12.190   5.630  10.436
67519SOL    HW1 4396  12.145   5.579  10.503
67519SOL    HW2 4397  12.259   5.572  10.405
67520SOL     OW 4398  14.166   4.846   0.085
67520SOL    HW1 4399  14.076   4.815   0.083
67520SOL    HW2 4400  14.201   4.825  14.878
67521SOL     OW 4401   0.672   9.330  11.876
67521SOL    HW1 4402   0.693   9.266  11.809
67521SOL    HW2 4403   0.743   9.394  11.872
67522SOL     OW 4404   9.610  10.382   1.486
67522SOL    HW1 4405   9.562  10.461   1.461
67522SOL    HW2 4406   9.661  10.407   1.563
67523SOL     OW 4407   4.796   3.223   6.239
67523SOL    HW1 4408   4.704   3.232   6.218
67523SOL    HW2 4409   4.807   3.272   6.321
67524SOL     OW 4410   1.327   8.777  14.350
67524SOL    HW1 4411   1.251   8.818  14.391
67524SOL    HW2 4412   1.389   8.764  14.422
67525SOL     OW 4413  14.308   5.217   3.147
67525SOL    HW1 4414  14.395   5.178   3.132
67525SOL    HW2 4415  14.322   5.281   3.217
67526SOL     OW 4416  10.281   8.638   7.622
67526SOL    HW1 4417  10.197   8.638   7.668
67526SOL    HW2 4418  10.266   8.692   7.545
67527SOL     OW 4419  11.177   6.642  12.892
67527SOL    HW1 4420  11.150   6.561  12.851
67527SOL    HW2 4421  11.273   6.641  12.885
67528SOL     OW 4422   2.236   3.369  12.671
67528SOL    HW1 4423   2.189   3.378  12.588
67528SOL    HW2 4424   2.308   3.431  12.664
67529SOL     OW 4425   8.401   3.293   6.673
67529SOL    HW1 4426   8.391   3.360   6.741
67529SOL    HW2 4427   8.342   3.223   6.700
67530SOL     OW 4428   3.548   4.064  12.049
67530SOL    HW1 4429   3.638   4.090  12.071
67530SOL    HW2 4430   3.494   4.136  12.079
67531SOL     OW 4431   7.156   2.982   6.913
67531SOL    HW1 4432   7.093   2.917   6.944
67531SOL    HW2 4433   7.164   2.966   6.819
67532SOL     OW 4434   9.341   2.160  12.701
67532SOL    HW1 4435   9.427   2.133  12.667
67532SOL    HW2 4436   9.362   2.225  12.769
67533SOL     OW 4437   7.761   5.899   6.788
67533SOL    HW1 4438   7.678   5.947   6.793
67533SOL    HW2 4439   7.743   5.826   6.729
67534SOL     OW 4440  13.681  10.281   5.821
67534SOL    HW1 4441  13.746  10.335   5.776
67534SOL    HW2 4442  13.725  10.198   5.837
67535SOL     OW 4443   8.967   1.492  11.645
67535SOL    HW1 4444   8.940   1.454  11.729
67535SOL    HW2 4445   9.017   1.423  11.602
67536SOL     OW 4446  13.521   9.487   8.892
67536SOL    HW1 4447  13.438   9.485   8.844
67536SOL    HW2 4448  13.497   9.515   8.980
67537SOL     OW 4449   9.657   0.589   3.583
67537SOL    HW1 4450   9.638   0.501   3.616
67537SOL    HW2 4451   9.607   0.647   3.641
67538SOL     OW 4452  12.953  13.047  11.308
67538SOL    HW1 4453  12.885  13.004  11.361
67538SOL    HW2 4454  13.022  12.981  11.299
67539SOL     OW 4455   3.570  13.794   7.202
67539SOL    HW1 4456   3.516  13.715   7.207
67539SOL    HW2 4457   3.591  13.803   7.109
67540SOL     OW 4458   3.438  14.320  13.676
67540SOL    HW1 4459   3.489  14.240  13.660
67540SOL    HW2 4460   3.361  14.310  13.620
67541SOL     OW 4461   9.736   6.890   0.245
67541SOL    HW1 4462   9.678   6.862   0.173
67541SOL    HW2 4463   9.821   6.905   0.203
67542SOL     OW 4464   5.006   1.187  11.092
67542SOL    HW1 4465   5.062   1.160  11.165
67542SOL    HW2 4466   5.064   1.242  11.038
67543SOL     OW 4467  12.068  14.577  11.896
67543SOL    HW1 4468  12.045  14.607  11.808
67543SOL    HW2 4469  12.086  14.657  11.945
67544SOL     OW 4470  14.259  12.944   7.371
67544SOL    HW1 4471  14.332  12.976   7.424
67544SOL    HW2 4472  14.263  12.849   7.379
67545SOL     OW 4473   5.022  10.219   1.295
67545SOL    HW1 4474   4.999  10.129   1.317
67545SOL    HW2 4475   4.945  10.270   1.322
67546SOL     OW 4476   2.459  11.990   8.065
67546SOL    HW1 4477   2.461  11.925   8.135
67546SOL    HW2 4478   2.515  11.954   7.996
67547SOL     OW 4479   3.786  13.870   9.718
67547SOL    HW1 4480   3.722  13.884   9.788
67547SOL    HW2 4481   3.798  13.775   9.715
67548SOL     OW 4482   8.332  11.815   9.632
67548SOL    HW1 4483   8.268  11.744   9.634
67548SOL    HW2 4484   8.410  11.779   9.675
67549SOL     OW 4485  11.796   4.317   3.852
67549SOL    HW1 4486  11.873   4.372   3.843
67549SOL    HW2 4487  11.823   4.232   3.817
67550SOL     OW 4488   0.876   2.360   6.518
67550SOL    HW1 4489   0.853   2.268   6.509
67550SOL    HW2 4490   0.796   2.407   6.494
67551SOL     OW 4491  10.215   2.246   2.769
67551SOL    HW1 4492  10.191   2.235   2.861
67551SOL    HW2 4493  10.151   2.308   2.735
67552SOL     OW 4494   7.120   6.312  10.605
67552SOL    HW1 4495   7.058   6.378  10.636
67552SOL    HW2 4496   7.075   6.268  10.533
67553SOL     OW 4497   0.659  11.334   8.415
67553SOL    HW1 4498   0.654  11.427   8.439
67553SOL    HW2 4499   0.624  11.288   8.491
67554SOL     OW 4500   4.565   3.072  10.618
67554SOL    HW1 4501   4.628   3.110  10.557
67554SOL    HW2 4502   4.618   3.039  10.691
67555SOL     OW 4503  13.143  12.900  14.511
67555SOL    HW1 4504  13.120  12.895  14.604
67555SOL    HW2 4505  13.059  12.903  14.466
67556SOL     OW 4506   3.672   3.426   1.750
67556SOL    HW1 4507   3.682   3.389   1.838
67556SOL    HW2 4508   3.579   3.417   1.731
67557SOL     OW 4509   2.770  11.234   4.324
67557SOL    HW1 4510   2.797  11.287   4.399
67557SOL    HW2 4511   2.677  11.255   4.312
67558SOL     OW 4512   1.129   1.575   0.290
67558SOL    HW1 4513   1.087   1.654   0.256
67558SOL    HW2 4514   1.159   1.529   0.211
67559SOL     OW 4515  12.152   4.725   1.054
67559SOL    HW1 4516  12.232   4.715   1.002
67559SOL    HW2 4517  12.163   4.665   1.128
67560SOL     OW 4518   5.288   3.696   7.162
67560SOL    HW1 4519   5.344   3.736   7.095
67560SOL    HW2 4520   5.205   3.681   7.117
67561SOL     OW 4521   8.889   3.196   3.923
67561SOL    HW1 4522   8.799   3.228   3.923
67561SOL    HW2 4523   8.913   3.189   3.831
67562SOL     OW 4524   4.993   0.586   9.341
67562SOL    HW1 4525   5.081   0.612   9.367
67562SOL    HW2 4526   4.942   0.588   9.422
67563SOL     OW 4527   0.471   2.436   2.536
67563SOL    HW1 4528   0.505   2.465   2.621
67563SOL    HW2 4529   0.529   2.363   2.511
67564SOL     OW 4530   5.779  10.715   8.266
67564SOL    HW1 4531   5.816  10.773   8.332
67564SOL    HW2 4532   5.833  10.728   8.188
67565SOL     OW 4533   4.431  10.424   9.425
67565SOL    HW1 4534   4.391  10.364   9.361
67565SOL    HW2 4535   4.359  10.481   9.453
67566SOL     OW 4536  10.189  11.810   1.090
67566SOL    HW1 4537  10.226  11.730   1.126
67566SOL    HW2 4538  10.253  11.878   1.112
67567SOL     OW 4539  10.208  11.067   1.294
67567SOL    HW1 4540  10.200  11.121   1.372
67567SOL    HW2 4541  10.208  10.977   1.327
67568SOL     OW 4542  13.940   5.303   1.785
67568SOL    HW1 4543  14.016   5.248   1.805
67568SOL    HW2 4544  13.943   5.372   1.851
67569SOL     OW 4545   4.947   4.156   8.175
67569SOL    HW1 4546   4.917   4.180   8.087
67569SOL    HW2 4547   4.983   4.237   8.211
67570SOL     OW 4548   7.420   2.041   2.840
67570SOL    HW1 4549   7.484   2.113   2.832
67570SOL    HW2 4550   7.380   2.055   2.926
67571SOL     OW 4551   2.908  12.577   0.416
67571SOL    HW1 4552   2.851  12.609   0.346
67571SOL    HW2 4553   2.995  12.609   0.393
67572SOL     OW 4554  13.127   5.737   7.336
67572SOL    HW1 4555  13.207   5.776   7.302
67572SOL    HW2 4556  13.157   5.667   7.394
67573SOL     OW 4557   4.784   5.179   1.963
67573SOL    HW1 4558   4.767   5.235   2.039
67573SOL    HW2 4559   4.816   5.240   1.896
67574SOL     OW 4560   4.739  10.604   4.776
67574SOL    HW1 4561   4.744  10.512   4.750
67574SOL    HW2 4562   4.697  10.648   4.702
67575SOL     OW 4563   7.072   4.833   1.787
67575SOL    HW1 4564   7.061   4.738   1.789
67575SOL    HW2 4565   7.035   4.864   1.870
67576SOL     OW 4566   3.556   7.590   5.146
67576SOL    HW1 4567   3.505   7.554   5.074
67576SOL    HW2 4568   3.496   7.651   5.190
67577SOL     OW 4569   5.483   8.784   2.087
67577SOL    HW1 4570   5.526   8.769   2.003
67577SOL    HW2 4571   5.395   8.815   2.065
67578SOL     OW 4572   6.814  12.340   1.596
67578SOL    HW1 4573   6.752  12.268   1.603
67578SOL    HW2 4574   6.779  12.395   1.525
67579SOL     OW 4575   7.606  12.888   2.333
67579SOL    HW1 4576   7.558  12.824   2.282
67579SOL    HW2 4577   7.625  12.842   2.416
67580SOL     OW 4578   8.424  12.103   9.212
67580SOL    HW1 4579   8.372  12.110   9.292
67580SOL    HW2 4580   8.460  12.014   9.215
67581SOL     OW 4581   9.539   9.253   7.973
67581SOL    HW1 4582   9.485   9.195   8.026
67581SOL    HW2 4583   9.477   9.307   7.925
67582SOL     OW 4584  11.557   8.004   1.862
67582SOL    HW1 4585  11.536   7.954   1.783
67582SOL    HW2 4586  11.637   8.052   1.839
67583SOL     OW 4587  11.104   2.822   4.115
67583SOL    HW1 4588  11.125   2.754   4.051
67583SOL    HW2 4589  11.015   2.801   4.144
67584SOL     OW 4590   8.821   2.163   5.822
67584SOL    HW1 4591   8.839   2.097   5.755
67584SOL    HW2 4592   8.851   2.245   5.783
67585SOL     OW 4593  11.921  11.276  14.503
67585SOL    HW1 4594  11.853  11.341  14.486
67585SOL    HW2 4595  11.963  11.263  14.417
67586SOL     OW 4596   7.657  14.803  12.976
67586SOL    HW1 4597   7.751  14.820  12.969
67586SOL    HW2 4598   7.648  14.710  12.954
67587SOL     OW 4599  14.780   2.167   2.765
67587SOL    HW1 4600  14.806   2.188   2.855
67587SOL    HW2 4601  14.714   2.233   2.743
67588SOL     OW 4602   4.249   6.508   7.965
67588SOL    HW1 4603   4.175   6.548   8.010
67588SOL    HW2 4604   4.236   6.414   7.975
67589SOL     OW 4605   7.159   0.093   5.884
67589SOL    HW1 4606   7.254   0.093   5.870
67589SOL    HW2 4607   7.123   0.124   5.801
67590SOL     OW 4608  12.630   0.761  10.341
67590SOL    HW1 4609  12.544   0.719  10.344
67590SOL    HW2 4610  12.611   0.851  10.314
67591SOL     OW 4611   8.223   1.523  13.031
67591SOL    HW1 4612   8.263   1.477  12.958
67591SOL    HW2 4613   8.265   1.609  13.032
67592SOL     OW 4614  13.026   5.389   9.702
67592SOL    HW1 4615  13.026   5.341   9.619
67592SOL    HW2 4616  13.041   5.480   9.678
67593SOL     OW 4617   6.781  13.486   9.277
67593SOL    HW1 4618   6.735  13.499   9.194
67593SOL    HW2 4619   6.711  13.468   9.340
67594SOL     OW 4620   7.651   4.452   7.174
67594SOL    HW1 4621   7.716   4.383   7.159
67594SOL    HW2 4622   7.568   4.406   7.185
67595SOL     OW 4623   7.610  11.496  11.166
67595SOL    HW1 4624   7.517  11.496  11.145
67595SOL    HW2 4625   7.636  11.404  11.159
67596SOL     OW 4626   1.376  14.347   7.539
67596SOL    HW1 4627   1.307  14.283   7.521
67596SOL    HW2 4628   1.331  14.419   7.583
67597SOL     OW 4629   0.540  13.181  14.443
67597SOL    HW1 4630   0.553  13.252  14.506
67597SOL    HW2 4631   0.627  13.161  14.410
67598SOL     OW 4632   3.102   8.216  11.792
67598SOL    HW1 4633   3.055   8.286  11.746
67598SOL    HW2 4634   3.036   8.149  11.807
67599SOL     OW 4635  12.082   9.327  10.788
67599SOL    HW1 4636  12.095   9.422  10.790
67599SOL    HW2 4637  12.170   9.292  10.776
67600SOL     OW 4638   1.059   5.480  14.840
67600SOL    HW1 4639   1.052   5.497  14.746
67600SOL    HW2 4640   1.120   5.546  14.872
67601SOL     OW 4641   8.900   6.179   5.099
67601SOL    HW1 4642   8.894   6.113   5.168
67601SOL    HW2 4643   8.811   6.209   5.087
67602SOL     OW 4644   5.496   0.500  12.277
67602SOL    HW1 4645   5.467   0.591  12.272
67602SOL    HW2 4646   5.541   0.494  12.362
67603SOL     OW 4647   0.765   1.897   7.840
67603SOL    HW1 4648   0.732   1.881   7.929
67603SOL    HW2 4649   0.764   1.812   7.798
67604SOL     OW 4650  14.389   7.199   6.840
67604SOL    HW1 4651  14.345   7.132   6.789
67604SOL    HW2 4652  14.323   7.230   6.902
67605SOL     OW 4653  11.838  10.330   6.179
67605SOL    HW1 4654  11.813  10.314   6.270
67605SOL    HW2 4655  11.908  10.267   6.162
67606SOL     OW 4656  14.104   5.742   4.775
67606SOL    HW1 4657  14.113   5.835   4.756
67606SOL    HW2 4658  14.165   5.699   4.716
67607SOL     OW 4659  10.661  12.766   2.120
67607SOL    HW1 4660  10.706  12.687   2.149
67607SOL    HW2 4661  10.613  12.796   2.197
67608SOL     OW 4662   2.204   1.543   7.663
67608SOL    HW1 4663   2.179   1.461   7.704
67608SOL    HW2 4664   2.299   1.549   7.677
67609SOL     OW 4665  13.544   4.581   5.622
67609SOL    HW1 4666  13.525   4.488   5.615
67609SOL    HW2 4667  13.457   4.623   5.622
67610SOL     OW 4668   0.079  12.408  12.558
67610SOL    HW1 4669   0.115  12.361  12.633
67610SOL    HW2 4670   0.092  12.349  12.484
67611SOL     OW 4671   9.568  13.326   8.106
67611SOL    HW1 4672   9.527  13.376   8.035
67611SOL    HW2 4673   9.503  13.259   8.128
67612SOL     OW 4674  11.402   0.035  14.015
67612SOL    HW1 4675  11.442  14.831  14.037
67612SOL    HW2 4676  11.390   0.079  14.100
67613SOL     OW 4677   2.887  11.422   8.143
67613SOL    HW1 4678   2.850  11.342   8.105
67613SOL    HW2 4679   2.982  11.408   8.140
67614SOL     OW 4680  13.667   5.044   4.438
67614SOL    HW1 4681  13.600   5.059   4.504
67614SOL    HW2 4682  13.701   4.956   4.457
67615SOL     OW 4683   9.294   8.151  13.335
67615SOL    HW1 4684   9.335   8.237  13.328
67615SOL    HW2 4685   9.240   8.143  13.257
67616SOL     OW 4686   5.417  13.041   7.284
67616SOL    HW1 4687   5.398  13.135   7.279
67616SOL    HW2 4688   5.348  13.006   7.341
67617SOL     OW 4689   9.111   5.948   8.923
67617SOL    HW1 4690   9.122   5.882   8.855
67617SOL    HW2 4691   9.079   5.898   8.999
67618SOL     OW 4692   3.209   3.024   4.611
67618SOL    HW1 4693   3.116   3.046   4.600
67618SOL    HW2 4694   3.229   3.050   4.701
67619SOL     OW 4695   2.834   2.240  10.606
67619SOL    HW1 4696   2.910   2.296  10.622
67619SOL    HW2 4697   2.795   2.275  10.526
67620SOL     OW 4698  12.671   9.575  14.754
67620SOL    HW1 4699  12.734   9.641  14.725
67620SOL    HW2 4700  12.593   9.590  14.700
67621SOL     OW 4701   9.604  12.973   4.148
67621SOL    HW1 4702   9.522  12.946   4.189
67621SOL    HW2 4703   9.619  13.062   4.179
67622SOL     OW 4704   0.150  12.402   9.059
67622SOL    HW1 4705   0.208  12.422   9.133
67622SOL    HW2 4706   0.122  12.312   9.073
67623SOL     OW 4707   9.978   8.895  13.770
67623SOL    HW1 4708   9.983   8.920  13.677
67623SOL    HW2 4709   9.914   8.957  13.807
67624SOL     OW 4710   3.739  10.612   0.004
67624SOL    HW1 4711   3.699  10.601  14.798
67624SOL    HW2 4712   3.762  10.523   0.031
67625SOL     OW 4713  10.352   6.676   4.233
67625SOL    HW1 4714  10.435   6.663   4.280
67625SOL    HW2 4715  10.288   6.694   4.301
67626SOL     OW 4716   3.890  10.707   1.545
67626SOL    HW1 4717   3.830  10.673   1.611
67626SOL    HW2 4718   3.971  10.724   1.592
67627SOL     OW 4719   3.466  12.831   0.419
67627SOL    HW1 4720   3.530  12.900   0.398
67627SOL    HW2 4721   3.431  12.804   0.334
67628SOL     OW 4722   8.306   9.626  10.549
67628SOL    HW1 4723   8.376   9.646  10.487
67628SOL    HW2 4724   8.233   9.596  10.494
67629SOL     OW 4725  12.415   4.962  10.803
67629SOL    HW1 4726  12.407   4.920  10.717
67629SOL    HW2 4727  12.509   4.978  10.813
67630SOL     OW 4728   9.742   8.504  11.386
67630SOL    HW1 4729   9.669   8.474  11.332
67630SOL    HW2 4730   9.820   8.492  11.330
67631SOL     OW 4731   3.019  10.835   5.525
67631SOL    HW1 4732   3.050  10.856   5.613
67631SOL    HW2 4733   3.011  10.920   5.481
67632SOL     OW 4734   3.278  10.779  11.763
67632SOL    HW1 4735   3.246  10.760  11.851
67632SOL    HW2 4736   3.360  10.826  11.776
67633SOL     OW 4737   0.162  13.285   9.834
67633SOL    HW1 4738   0.196  13.244   9.913
67633SOL    HW2 4739   0.074  13.249   9.824
67634SOL     OW 4740   3.088   5.291   8.793
67634SOL    HW1 4741   3.105   5.377   8.831
67634SOL    HW2 4742   2.993   5.287   8.784
67635SOL     OW 4743   8.212   2.720  12.604
67635SOL    HW1 4744   8.124   2.756  12.616
67635SOL    HW2 4745   8.264   2.764  12.671
67636SOL     OW 4746  11.310  14.734   1.808
67636SOL    HW1 4747  11.228  14.780   1.794
67636SOL    HW2 4748  11.300  14.692   1.894
67637SOL     OW 4749   2.285   7.526  13.393
67637SOL    HW1 4750   2.287   7.459  13.461
67637SOL    HW2 4751   2.295   7.477  13.311
67638SOL     OW 4752  13.423   5.359   1.290
67638SOL    HW1 4753  13.497   5.325   1.239
67638SOL    HW2 4754  13.458   5.369   1.378
67639SOL     OW 4755   4.999   0.850   5.743
67639SOL    HW1 4756   4.906   0.830   5.730
67639SOL    HW2 4757   5.033   0.862   5.654
67640SOL     OW 4758  11.297   5.951  10.163
67640SOL    HW1 4759  11.251   5.980  10.242
67640SOL    HW2 4760  11.258   6.004  10.093
67641SOL     OW 4761   4.998   3.389   7.186
67641SOL    HW1 4762   4.976   3.444   7.262
67641SOL    HW2 4763   5.019   3.451   7.117
67642SOL     OW 4764   9.146   6.724   1.413
67642SOL    HW1 4765   9.124   6.791   1.477
67642SOL    HW2 4766   9.061   6.700   1.374
67643SOL     OW 4767   8.948   1.886   9.364
67643SOL    HW1 4768   8.916   1.966   9.406
67643SOL    HW2 4769   8.903   1.883   9.280
67644SOL     OW 4770  10.039   0.445  14.215
67644SOL    HW1 4771  10.091   0.375  14.255
67644SOL    HW2 4772   9.984   0.400  14.151
67645SOL     OW 4773  14.830   8.042   6.761
67645SOL    HW1 4774  14.771   7.987   6.709
67645SOL    HW2 4775  14.828   8.003   6.849
67646SOL     OW 4776   4.458   4.898   9.958
67646SOL    HW1 4777   4.373   4.939   9.947
67646SOL    HW2 4778   4.449   4.812   9.917
67647SOL     OW 4779   9.341   8.566   1.753
67647SOL    HW1 4780   9.332   8.472   1.764
67647SOL    HW2 4781   9.421   8.578   1.703
67648SOL     OW 4782   9.785   0.400  12.713
67648SOL    HW1 4783   9.730   0.428  12.786
67648SOL    HW2 4784   9.752   0.313  12.690
67649SOL     OW 4785   0.481  12.405   3.579
67649SOL    HW1 4786   0.546  12.421   3.647
67649SOL    HW2 4787   0.397  12.408   3.625
67650SOL     OW 4788   3.742  14.393  14.118
67650SOL    HW1 4789   3.767  14.371  14.208
67650SOL    HW2 4790   3.812  14.354  14.064
67651SOL     OW 4791   8.421  13.008   3.771
67651SOL    HW1 4792   8.476  12.957   3.831
67651SOL    HW2 4793   8.482  13.069   3.729
67652SOL     OW 4794  10.395   6.090   2.501
67652SOL    HW1 4795  10.370   6.011   2.548
67652SOL    HW2 4796  10.463   6.130   2.555
67653SOL     OW 4797   8.209   4.926   7.291
67653SOL    HW1 4798   8.151   4.927   7.215
67653SOL    HW2 4799   8.292   4.891   7.258
67654SOL     OW 4800  13.331   4.427   4.143
67654SOL    HW1 4801  13.351   4.477   4.064
67654SOL    HW2 4802  13.407   4.440   4.200
67655SOL     OW 4803  10.610   8.052   4.924
67655SOL    HW1 4804  10.521   8.017   4.932
67655SOL    HW2 4805  10.667   7.977   4.938
67656SOL     OW 4806   7.965  13.178  10.197
67656SOL    HW1 4807   7.952  13.093  10.155
67656SOL    HW2 4808   7.958  13.159  10.291
67657SOL     OW 4809  13.496   7.187  10.887
67657SOL    HW1 4810  13.436   7.113  10.880
67657SOL    HW2 4811  13.464   7.237  10.962
67658SOL     OW 4812   9.042  12.214   3.896
67658SOL    HW1 4813   8.961  12.191   3.941
67658SOL    HW2 4814   9.067  12.134   3.849
67659SOL     OW 4815   2.721  12.988  12.317
67659SOL    HW1 4816   2.696  12.907  12.274
67659SOL    HW2 4817   2.814  12.998  12.297
67660SOL     OW 4818   4.732   2.758   0.435
67660SOL    HW1 4819   4.660   2.705   0.400
67660SOL    HW2 4820   4.766   2.706   0.508
67661SOL     OW 4821   9.014   1.059   1.373
67661SOL    HW1 4822   9.045   0.988   1.316
67661SOL    HW2 4823   8.924   1.035   1.394
67662SOL     OW 4824  11.205   4.276   3.166
67662SOL    HW1 4825  11.196   4.240   3.078
67662SOL    HW2 4826  11.270   4.220   3.209
67663SOL     OW 4827   5.896  10.092   3.488
67663SOL    HW1 4828   5.867  10.024   3.428
67663SOL    HW2 4829   5.872  10.174   3.445
67664SOL     OW 4830   9.227   2.903  11.979
67664SOL    HW1 4831   9.207   2.892  11.886
67664SOL    HW2 4832   9.183   2.829  12.022
67665SOL     OW 4833   5.753   8.311   9.289
67665SOL    HW1 4834   5.821   8.299   9.224
67665SOL    HW2 4835   5.701   8.230   9.284
67666SOL     OW 4836   1.169   8.792   6.292
67666SOL    HW1 4837   1.108   8.847   6.242
67666SOL    HW2 4838   1.213   8.853   6.352
67667SOL     OW 4839   2.756   8.650  11.716
67667SOL    HW1 4840   2.835   8.667  11.766
67667SOL    HW2 4841   2.774   8.685  11.629
67668SOL     OW 4842   3.603   5.036   0.812
67668SOL    HW1 4843   3.589   4.959   0.757
67668SOL    HW2 4844   3.571   5.110   0.759
67669SOL     OW 4845   7.466  11.769  10.538
67669SOL    HW1 4846   7.429  11.818  10.465
67669SOL    HW2 4847   7.396  11.712  10.568
67670SOL     OW 4848   9.677   1.780   5.380
67670SOL    HW1 4849   9.673   1.871   5.409
67670SOL    HW2 4850   9.746   1.779   5.314
67671SOL     OW 4851  10.681   2.619   9.193
67671SOL    HW1 4852  10.697   2.566   9.271
67671SOL    HW2 4853  10.765   2.621   9.148
67672SOL     OW 4854   7.594   5.914   0.338
67672SOL    HW1 4855   7.584   5.868   0.255
67672SOL    HW2 4856   7.660   5.981   0.322
67673SOL     OW 4857   2.577  12.423   7.025
67673SOL    HW1 4858   2.537  12.502   6.989
67673SOL    HW2 4859   2.640  12.455   7.090
67674SOL     OW 4860  13.340   5.501   6.091
67674SOL    HW1 4861  13.309   5.585   6.126
67674SOL    HW2 4862  13.318   5.504   5.998
67675SOL     OW 4863  14.777   0.839  13.207
67675SOL    HW1 4864  14.698   0.785  13.209
67675SOL    HW2 4865  14.760   0.908  13.271
67676SOL     OW 4866   9.282   2.780   8.805
67676SOL    HW1 4867   9.348   2.848   8.790
67676SOL    HW2 4868   9.229   2.814   8.876
67677SOL     OW 4869  14.600   6.935   2.562
67677SOL    HW1 4870  14.674   6.911   2.617
67677SOL    HW2 4871  14.621   7.024   2.531
67678SOL     OW 4872  11.357   7.600   9.252
67678SOL    HW1 4873  11.392   7.514   9.232
67678SOL    HW2 4874  11.264   7.594   9.228
67679SOL     OW 4875   3.017  10.197   8.017
67679SOL    HW1 4876   3.014  10.222   7.924
67679SOL    HW2 4877   3.060  10.271   8.060
67680SOL     OW 4878  10.835  13.628   6.094
67680SOL    HW1 4879  10.833  13.566   6.166
67680SOL    HW2 4880  10.926  13.627   6.064
67681SOL     OW 4881   6.115   8.288   6.009
67681SOL    HW1 4882   6.181   8.219   6.005
67681SOL    HW2 4883   6.057   8.270   5.935
67682SOL     OW 4884   4.913   1.835   6.349
67682SOL    HW1 4885   4.944   1.749   6.322
67682SOL    HW2 4886   4.969   1.859   6.423
67683SOL     OW 4887   5.799   1.171   6.882
67683SOL    HW1 4888   5.871   1.200   6.825
67683SOL    HW2 4889   5.765   1.093   6.840
67684SOL     OW 4890   9.350   1.313   8.980
67684SOL    HW1 4891   9.368   1.223   9.005
67684SOL    HW2 4892   9.415   1.332   8.911
67685SOL     OW 4893  11.003  13.178   4.726
67685SOL    HW1 4894  10.916  13.211   4.704
67685SOL    HW2 4895  10.990  13.124   4.804
67686SOL     OW 4896   0.449   2.998   9.216
67686SOL    HW1 4897   0.468   2.959   9.131
67686SOL    HW2 4898   0.372   3.054   9.201
67687SOL     OW 4899  14.009  13.890  10.821
67687SOL    HW1 4900  14.030  13.969  10.772
67687SOL    HW2 4901  14.032  13.818  10.762
67688SOL     OW 4902   4.182   7.789   1.519
67688SOL    HW1 4903   4.205   7.858   1.581
67688SOL    HW2 4904   4.216   7.709   1.559
67689SOL     OW 4905  14.700   1.981   4.023
67689SOL    HW1 4906  14.623   2.038   4.023
67689SOL    HW2 4907  14.766   2.031   3.975
67690SOL     OW 4908  12.648   5.374   5.310
67690SOL    HW1 4909  12.583   5.305   5.314
67690SOL    HW2 4910  12.617   5.440   5.373
67691SOL     OW 4911  14.704   0.287   3.053
67691SOL    HW1 4912  14.632   0.293   2.990
67691SOL    HW2 4913  14.765   0.356   3.027
67692SOL     OW 4914  10.156   5.683   2.309
67692SOL    HW1 4915  10.190   5.673   2.219
67692SOL    HW2 4916  10.230   5.660   2.365
67693SOL     OW 4917  13.301   4.814   1.325
67693SOL    HW1 4918  13.326   4.906   1.319
67693SOL    HW2 4919  13.252   4.808   1.407
67694SOL     OW 4920   5.100  12.926   5.048
67694SOL    HW1 4921   5.148  12.848   5.075
67694SOL    HW2 4922   5.066  12.964   5.129
67695SOL     OW 4923   5.883   0.600  12.139
67695SOL    HW1 4924   5.977   0.606  12.122
67695SOL    HW2 4925   5.875   0.530  12.203
67696SOL     OW 4926   8.668  12.441   6.206
67696SOL    HW1 4927   8.681  12.497   6.129
67696SOL    HW2 4928   8.726  12.478   6.273
67697SOL     OW 4929   5.905   3.601   0.755
67697SOL    HW1 4930   5.840   3.670   0.741
67697SOL    HW2 4931   5.972   3.642   0.810
67698SOL     OW 4932  11.868   6.993   9.223
67698SOL    HW1 4933  11.921   7.051   9.278
67698SOL    HW2 4934  11.866   7.036   9.138
67699SOL     OW 4935   9.793   1.033  10.178
67699SOL    HW1 4936   9.824   0.942  10.181
67699SOL    HW2 4937   9.701   1.028  10.206
67700SOL     OW 4938   6.516   5.599  10.001
67700SOL    HW1 4939   6.610   5.615   9.991
67700SOL    HW2 4940   6.490   5.654  10.075
67701SOL     OW 4941   7.061   0.281   2.420
67701SOL    HW1 4942   7.124   0.352   2.429
67701SOL    HW2 4943   6.977   0.320   2.443
67702SOL     OW 4944  13.073  11.865   8.207
67702SOL    HW1 4945  13.168  11.860   8.218
67702SOL    HW2 4946  13.038  11.857   8.295
67703SOL     OW 4947   3.750   0.662   8.597
67703SOL    HW1 4948   3.744   0.566   8.603
67703SOL    HW2 4949   3.693   0.694   8.667
67704SOL     OW 4950   2.143  10.742   0.535
67704SOL    HW1 4951   2.181  10.695   0.608
67704SOL    HW2 4952   2.157  10.835   0.555
67705SOL     OW 4953   1.985   0.944   4.075
67705SOL    HW1 4954   2.037   1.024   4.077
67705SOL    HW2 4955   1.936   0.949   3.993
67706SOL     OW 4956   5.065  13.115   7.144
67706SOL    HW1 4957   5.038  13.192   7.094
67706SOL    HW2 4958   5.019  13.042   7.103
67707SOL     OW 4959   5.926   5.866   1.564
67707SOL    HW1 4960   5.858   5.865   1.631
67707SOL    HW2 4961   5.976   5.945   1.582
67708SOL     OW 4962  10.271  12.761   4.698
67708SOL    HW1 4963  10.281  12.666   4.708
67708SOL    HW2 4964  10.344  12.788   4.643
67709SOL     OW 4965   8.316   3.636  11.430
67709SOL    HW1 4966   8.345   3.557  11.477
67709SOL    HW2 4967   8.376   3.644  11.356
67710SOL     OW 4968  12.463  13.498   1.108
67710SOL    HW1 4969  12.443  13.444   1.032
67710SOL    HW2 4970  12.533  13.556   1.078
67711SOL     OW 4971   7.428  11.677   9.964
67711SOL    HW1 4972   7.466  11.758   9.931
67711SOL    HW2 4973   7.464  11.608   9.908
67712SOL     OW 4974   5.397   5.125   0.771
67712SOL    HW1 4975   5.383   5.211   0.732
67712SOL    HW2 4976   5.490   5.122   0.791
67713SOL     OW 4977  11.640   6.420   6.884
67713SOL    HW1 4978  11.667   6.494   6.938
67713SOL    HW2 4979  11.655   6.449   6.794
67714SOL     OW 4980   1.100  11.726  13.640
67714SOL    HW1 4981   1.070  11.665  13.707
67714SOL    HW2 4982   1.033  11.794  13.639
67715SOL     OW 4983   7.858   9.088   4.833
67715SOL    HW1 4984   7.950   9.071   4.851
67715SOL    HW2 4985   7.832   9.017   4.773
67716SOL     OW 4986  14.238  10.265   2.068
67716SOL    HW1 4987  14.239  10.217   1.985
67716SOL    HW2 4988  14.317  10.234   2.114
67717SOL     OW 4989   4.132   5.709   9.082
67717SOL    HW1 4990   4.177   5.627   9.064
67717SOL    HW2 4991   4.050   5.704   9.033
67718SOL     OW 4992   4.586  11.045   1.633
67718SOL    HW1 4993   4.634  11.095   1.699
67718SOL    HW2 4994   4.613  11.084   1.549
67719SOL     OW 4995   3.103   5.357   9.155
67719SOL    HW1 4996   3.034   5.423   9.153
67719SOL    HW2 4997   3.057   5.274   9.171
67720SOL     OW 4998  14.495   2.005  10.818
67720SOL    HW1 4999  14.462   2.081  10.866
67720SOL    HW2 5000  14.547   1.957  10.882
67721SOL     OW 5001   0.814  11.675  13.140
67721SOL    HW1 5002   0.846  11.680  13.050
67721SOL    HW2 5003   0.754  11.749  13.150
67722SOL     OW 5004   4.961   0.424  12.111
67722SOL    HW1 5005   4.925   0.345  12.073
67722SOL    HW2 5006   5.035   0.394  12.164
67723SOL     OW 5007  13.822  10.399   2.334
67723SOL    HW1 5008  13.880  10.466   2.369
67723SOL    HW2 5009  13.877  10.346   2.276
67724SOL     OW 5010   9.415   7.897   7.255
67724SOL    HW1 5011   9.406   7.804   7.277
67724SOL    HW2 5012   9.347   7.913   7.190
67725SOL     OW 5013   4.548  13.994  10.513
67725SOL    HW1 5014   4.628  14.028  10.555
67725SOL    HW2 5015   4.526  14.060  10.447
67726SOL     OW 5016  12.053   8.632   3.035
67726SOL    HW1 5017  12.076   8.552   2.989
67726SOL    HW2 5018  12.036   8.696   2.966
67727SOL     OW 5019   5.785  14.284   9.518
67727SOL    HW1 5020   5.817  14.287   9.428
67727SOL    HW2 5021   5.823  14.204   9.554
67728SOL     OW 5022   2.056   3.475   3.105
67728SOL    HW1 5023   2.056   3.382   3.082
67728SOL    HW2 5024   2.015   3.479   3.191
67729SOL     OW 5025  11.669   3.580  10.923
67729SOL    HW1 5026  11.734   3.600  10.990
67729SOL    HW2 5027  11.586   3.576  10.970
67730SOL     OW 5028   2.228   4.945  10.154
67730SOL    HW1 5029   2.182   4.955  10.071
67730SOL    HW2 5030   2.317   4.919  10.129
67731SOL     OW 5031   7.907   1.369  14.209
67731SOL    HW1 5032   7.843   1.383  14.279
67731SOL    HW2 5033   7.880   1.430  14.140
67732SOL     OW 5034  11.298   7.704   9.822
67732SOL    HW1 5035  11.321   7.615   9.794
67732SOL    HW2 5036  11.382   7.744   9.844
67733SOL     OW 5037  10.040   6.245   8.367
67733SOL    HW1 5038   9.947   6.222   8.369
67733SOL    HW2 5039  10.050   6.310   8.436
67734SOL     OW 5040  13.651   9.260   3.488
67734SOL    HW1 5041  13.688   9.202   3.421
67734SOL    HW2 5042  13.635   9.203   3.563
67735SOL     OW 5043  13.379   3.443   6.457
67735SOL    HW1 5044  13.414   3.507   6.396
67735SOL    HW2 5045  13.384   3.486   6.543
67736SOL     OW 5046  10.474   3.958   4.425
67736SOL    HW1 5047  10.564   3.979   4.451
67736SOL    HW2 5048  10.485   3.902   4.348
67737SOL     OW 5049   4.459   8.047  14.008
67737SOL    HW1 5050   4.521   7.975  13.999
67737SOL    HW2 5051   4.493   8.116  13.950
67738SOL     OW 5052   8.829   1.181  14.309
67738SOL    HW1 5053   8.845   1.260  14.360
67738SOL    HW2 5054   8.885   1.114  14.348
67739SOL     OW 5055   8.578   0.690   1.506
67739SOL    HW1 5056   8.635   0.652   1.573
67739SOL    HW2 5057   8.495   0.705   1.551
67740SOL     OW 5058  12.353  10.098   0.948
67740SOL    HW1 5059  12.366  10.164   1.016
67740SOL    HW2 5060  12.358  10.014   0.995
67741SOL     OW 5061   3.287   7.474  14.098
67741SOL    HW1 5062   3.248   7.440  14.179
67741SOL    HW2 5063   3.356   7.533  14.128
67742SOL     OW 5064  14.013   0.613   3.529
67742SOL    HW1 5065  13.983   0.575   3.447
67742SOL    HW2 5066  13.934   0.648   3.571
67743SOL     OW 5067   9.065   3.434   7.646
67743SOL    HW1 5068   9.044   3.355   7.696
67743SOL    HW2 5069   9.026   3.418   7.560
67744SOL     OW 5070  11.824   0.276  10.996
67744SOL    HW1 5071  11.868   0.292  10.913
67744SOL    HW2 5072  11.769   0.354  11.009
67745SOL     OW 5073  11.672   1.832   6.849
67745SOL    HW1 5074  11.626   1.870   6.774
67745SOL    HW2 5075  11.707   1.908   6.896
67746SOL     OW 5076   0.010  11.665   9.808
67746SOL    HW1 5077  14.833  11.608   9.860
67746SOL    HW2 5078  14.839  11.685   9.729
67747SOL     OW 5079   9.861  14.692   1.065
67747SOL    HW1 5080   9.770  14.705   1.038
67747SOL    HW2 5081   9.859  14.611   1.115
67748SOL     OW 5082   2.838   3.410   5.831
67748SOL    HW1 5083   2.841   3.467   5.908
67748SOL    HW2 5084   2.747   3.381   5.827
67749SOL     OW 5085  12.645   8.893   7.232
67749SOL    HW1 5086  12.716   8.928   7.179
67749SOL    HW2 5087  12.584   8.966   7.241
67750SOL     OW 5088  14.449   5.690   9.643
67750SOL    HW1 5089  14.541   5.662   9.648
67750SOL    HW2 5090  14.402   5.610   9.618
67751SOL     OW 5091   0.586   7.410  14.455
67751SOL    HW1 5092   0.630   7.491  14.482
67751SOL    HW2 5093   0.617   7.396  14.365
67752SOL     OW 5094   4.152   9.272   0.062
67752SOL    HW1 5095   4.124   9.215  14.870
67752SOL    HW2 5096   4.239   9.240   0.085
67753SOL     OW 5097   1.528   0.419   0.016
67753SOL    HW1 5098   1.474   0.342   0.033
67753SOL    HW2 5099   1.547   0.455   0.102
67754SOL     OW 5100   3.206  10.020   5.872
67754SOL    HW1 5101   3.142  10.090   5.871
67754SOL    HW2 5102   3.231  10.008   5.780
67755SOL     OW 5103  12.423   6.205   6.874
67755SOL    HW1 5104  12.483   6.229   6.803
67755SOL    HW2 5105  12.476   6.214   6.953
67756SOL     OW 5106  12.955   5.194   1.721
67756SOL    HW1 5107  12.878   5.153   1.680
67756SOL    HW2 5108  12.949   5.169   1.813
67757SOL     OW 5109  12.196  13.189  12.237
67757SOL    HW1 5110  12.272  13.160  12.287
67757SOL    HW2 5111  12.207  13.149  12.151
67758SOL     OW 5112  11.071   2.872  11.514
67758SOL    HW1 5113  11.142   2.912  11.564
67758SOL    HW2 5114  11.013   2.834  11.580
67759SOL     OW 5115   5.517   9.421   0.972
67759SOL    HW1 5116   5.514   9.502   1.023
67759SOL    HW2 5117   5.461   9.439   0.896
67760SOL     OW 5118   9.155   8.752  14.180
67760SOL    HW1 5119   9.097   8.734  14.254
67760SOL    HW2 5120   9.186   8.665  14.152
67761SOL     OW 5121  10.398   6.047   6.931
67761SOL    HW1 5122  10.441   5.982   6.876
67761SOL    HW2 5123  10.312   6.010   6.949
67762SOL     OW 5124   4.741   6.858  11.314
67762SOL    HW1 5125   4.810   6.791  11.309
67762SOL    HW2 5126   4.662   6.813  11.284
67763SOL     OW 5127  14.277  12.610   7.142
67763SOL    HW1 5128  14.193  12.631   7.180
67763SOL    HW2 5129  14.279  12.514   7.139
67764SOL     OW 5130  13.984  12.474   2.158
67764SOL    HW1 5131  13.977  12.437   2.246
67764SOL    HW2 5132  14.077  12.470   2.137
67765SOL     OW 5133   8.375   1.579  10.743
67765SOL    HW1 5134   8.340   1.664  10.718
67765SOL    HW2 5135   8.297   1.525  10.759
67766SOL     OW 5136  10.403   9.398   3.403
67766SOL    HW1 5137  10.433   9.318   3.447
67766SOL    HW2 5138  10.446   9.396   3.318
67767SOL     OW 5139   0.304   7.696   4.204
67767SOL    HW1 5140   0.349   7.629   4.154
67767SOL    HW2 5141   0.230   7.650   4.245
67768SOL     OW 5142   3.504  12.372   7.133
67768SOL    HW1 5143   3.510  12.276   7.141
67768SOL    HW2 5144   3.459  12.400   7.212
67769SOL     OW 5145   0.440   9.855   6.131
67769SOL    HW1 5146   0.485   9.858   6.046
67769SOL    HW2 5147   0.495   9.798   6.185
67770SOL     OW 5148   0.872   4.486  12.977
67770SOL    HW1 5149   0.817   4.410  12.996
67770SOL    HW2 5150   0.818   4.543  12.923
67771SOL     OW 5151   1.288   1.733   1.524
67771SOL    HW1 5152   1.260   1.680   1.449
67771SOL    HW2 5153   1.363   1.783   1.491
67772SOL     OW 5154   7.586   5.012   4.526
67772SOL    HW1 5155   7.663   4.998   4.580
67772SOL    HW2 5156   7.547   4.925   4.516
67773SOL     OW 5157   0.777   7.288  10.977
67773SOL    HW1 5158   0.705   7.245  11.022
67773SOL    HW2 5159   0.835   7.318  11.047
67774SOL     OW 5160   7.261   1.618   0.111
67774SOL    HW1 5161   7.189   1.663   0.066
67774SOL    HW2 5162   7.340   1.650   0.067
67775SOL     OW 5163  10.895   7.303  14.539
67775SOL    HW1 5164  10.851   7.385  14.514
67775SOL    HW2 5165  10.839   7.266  14.607
67776SOL     OW 5166   4.062   5.032   7.613
67776SOL    HW1 5167   4.020   4.993   7.536
67776SOL    HW2 5168   4.137   4.976   7.632
67777SOL     OW 5169  10.078   6.060  11.449
67777SOL    HW1 5170  10.026   6.058  11.530
67777SOL    HW2 5171  10.147   6.125  11.467
67778SOL     OW 5172   8.204  14.017  10.596
67778SOL    HW1 5173   8.220  13.929  10.630
67778SOL    HW2 5174   8.132  14.005  10.533
67779SOL     OW 5175   4.253   4.625   0.156
67779SOL    HW1 5176   4.251   4.530   0.163
67779SOL    HW2 5177   4.196   4.655   0.226
67780SOL     OW 5178   8.469  12.009  11.486
67780SOL    HW1 5179   8.473  11.937  11.549
67780SOL    HW2 5180   8.456  12.087  11.540
67781SOL     OW 5181   6.734   5.225   7.226
67781SOL    HW1 5182   6.819   5.186   7.206
67781SOL    HW2 5183   6.735   5.308   7.180
67782SOL     OW 5184   3.880  13.729  14.468
67782SOL    HW1 5185   3.813  13.764  14.527
67782SOL    HW2 5186   3.941  13.683  14.525
67783SOL     OW 5187   9.815   4.175  13.108
67783SOL    HW1 5188   9.780   4.229  13.179
67783SOL    HW2 5189   9.772   4.208  13.029
67784SOL     OW 5190   1.977  10.345   5.039
67784SOL    HW1 5191   1.890  10.371   5.071
67784SOL    HW2 5192   1.961  10.307   4.953
67785SOL     OW 5193   0.177   9.071   9.804
67785SOL    HW1 5194   0.211   9.159   9.786
67785SOL    HW2 5195   0.240   9.013   9.760
67786SOL     OW 5196   4.189  11.855  11.819
67786SOL    HW1 5197   4.262  11.808  11.778
67786SOL    HW2 5198   4.209  11.852  11.912
67787SOL     OW 5199   4.923  12.175  10.602
67787SOL    HW1 5200   4.977  12.096  10.595
67787SOL    HW2 5201   4.987  12.247  10.604
67788SOL     OW 5202  11.492  14.272   4.777
67788SOL    HW1 5203  11.403  14.299   4.800
67788SOL    HW2 5204  11.538  14.354   4.760
67789SOL     OW 5205  13.175   7.209   7.398
67789SOL    HW1 5206  13.168   7.258   7.480
67789SOL    HW2 5207  13.227   7.132   7.421
67790SOL     OW 5208   9.739   4.603  13.146
67790SOL    HW1 5209   9.692   4.686  13.134
67790SOL    HW2 5210   9.812   4.608  13.084
67791SOL     OW 5211   0.995  12.548   6.226
67791SOL    HW1 5212   1.057  12.611   6.190
67791SOL    HW2 5213   0.945  12.598   6.292
67792SOL     OW 5214   2.012   7.621   8.800
67792SOL    HW1 5215   2.073   7.567   8.850
67792SOL    HW2 5216   2.049   7.709   8.804
67793SOL     OW 5217  14.054   3.053   8.667
67793SOL    HW1 5218  13.999   3.110   8.721
67793SOL    HW2 5219  14.054   2.969   8.714
67794SOL     OW 5220   1.604   1.380   8.162
67794SOL    HW1 5221   1.612   1.292   8.126
67794SOL    HW2 5222   1.510   1.396   8.165
67795SOL     OW 5223   6.147  12.895   2.518
67795SOL    HW1 5224   6.193  12.895   2.602
67795SOL    HW2 5225   6.188  12.824   2.468
67796SOL     OW 5226   5.954  12.759   4.602
67796SOL    HW1 5227   5.934  12.846   4.637
67796SOL    HW2 5228   6.013  12.720   4.666
67797SOL     OW 5229  14.320   2.181   0.509
67797SOL    HW1 5230  14.292   2.166   0.600
67797SOL    HW2 5231  14.241   2.169   0.457
67798SOL     OW 5232   0.998  12.473   7.338
67798SOL    HW1 5233   0.987  12.543   7.273
67798SOL    HW2 5234   1.080  12.430   7.313
67799SOL     OW 5235  10.229  14.822   3.214
67799SOL    HW1 5236  10.176  14.748   3.244
67799SOL    HW2 5237  10.309  14.781   3.179
67800SOL     OW 5238  10.842   9.204   8.974
67800SOL    HW1 5239  10.846   9.287   9.021
67800SOL    HW2 5240  10.778   9.218   8.905
67801SOL     OW 5241  10.720   4.087   4.368
67801SOL    HW1 5242  10.788   4.153   4.383
67801SOL    HW2 5243  10.737   4.054   4.280
67802SOL     OW 5244   3.992   1.084   7.372
67802SOL    HW1 5245   4.075   1.110   7.414
67802SOL    HW2 5246   4.015   1.012   7.315
67803SOL     OW 5247   4.431   0.292   4.212
67803SOL    HW1 5248   4.502   0.310   4.274
67803SOL    HW2 5249   4.470   0.232   4.149
67804SOL     OW 5250  14.451   9.952  10.294
67804SOL    HW1 5251  14.436   9.863  10.263
67804SOL    HW2 5252  14.543   9.953  10.320
67805SOL     OW 5253   4.978  10.142   2.539
67805SOL    HW1 5254   4.961  10.236   2.529
67805SOL    HW2 5255   5.014  10.115   2.455
67806SOL     OW 5256   9.733   2.213  10.298
67806SOL    HW1 5257   9.661   2.268  10.329
67806SOL    HW2 5258   9.798   2.274  10.265
67807SOL     OW 5259  13.029  14.173   6.389
67807SOL    HW1 5260  13.035  14.078   6.402
67807SOL    HW2 5261  13.062  14.210   6.471
67808SOL     OW 5262   9.033   0.077  14.423
67808SOL    HW1 5263   9.015   0.122  14.505
67808SOL    HW2 5264   9.056  14.868  14.448
67809SOL     OW 5265   6.726   2.984   8.251
67809SOL    HW1 5266   6.675   2.922   8.304
67809SOL    HW2 5267   6.681   2.985   8.166
67810SOL     OW 5268   9.068  11.263  13.374
67810SOL    HW1 5269   9.041  11.307  13.455
67810SOL    HW2 5270   9.033  11.174  13.383
67811SOL     OW 5271   7.811   6.461  13.267
67811SOL    HW1 5272   7.791   6.494  13.355
67811SOL    HW2 5273   7.880   6.519  13.235
67812SOL     OW 5274  10.605   9.803   4.644
67812SOL    HW1 5275  10.626   9.862   4.717
67812SOL    HW2 5276  10.685   9.751   4.631
67813SOL     OW 5277   9.528  10.389   9.471
67813SOL    HW1 5278   9.535  10.317   9.407
67813SOL    HW2 5279   9.497  10.346   9.551
67814SOL     OW 5280   2.167  10.706   0.098
67814SOL    HW1 5281   2.096  10.738   0.043
67814SOL    HW2 5282   2.124  10.667   0.174
67815SOL     OW 5283   3.319   9.712  12.286
67815SOL    HW1 5284   3.405   9.747  12.263
67815SOL    HW2 5285   3.320   9.622  12.253
67816SOL     OW 5286  12.497  13.853   4.545
67816SOL    HW1 5287  12.539  13.893   4.621
67816SOL    HW2 5288  12.569  13.837   4.484
67817SOL     OW 5289   0.469  12.418   2.236
67817SOL    HW1 5290   0.403  12.487   2.229
67817SOL    HW2 5291   0.469  12.393   2.328
67818SOL     OW 5292  12.205   2.372   2.543
67818SOL    HW1 5293  12.168   2.438   2.484
67818SOL    HW2 5294  12.299   2.375   2.527
67819SOL     OW 5295  12.187  10.196   5.506
67819SOL    HW1 5296  12.104  10.195   5.553
67819SOL    HW2 5297  12.253  10.176   5.572
67820SOL     OW 5298   9.406   8.362   6.294
67820SOL    HW1 5299   9.359   8.366   6.378
67820SOL    HW2 5300   9.366   8.288   6.248
67821SOL     OW 5301   3.999   9.713   7.233
67821SOL    HW1 5302   4.055   9.676   7.301
67821SOL    HW2 5303   4.048   9.700   7.151
67822SOL     OW 5304   7.802   7.265   5.261
67822SOL    HW1 5305   7.789   7.316   5.341
67822SOL    HW2 5306   7.896   7.249   5.257
67823SOL     OW 5307   5.070   2.181   3.149
67823SOL    HW1 5308   4.984   2.216   3.125
67823SOL    HW2 5309   5.077   2.195   3.243
67824SOL     OW 5310   6.791   1.124   7.761
67824SOL    HW1 5311   6.806   1.210   7.800
67824SOL    HW2 5312   6.755   1.071   7.832
67825SOL     OW 5313   2.901   6.643  10.040
67825SOL    HW1 5314   2.844   6.660  10.115
67825SOL    HW2 5315   2.850   6.583   9.984
67826SOL     OW 5316   4.004  10.400   4.067
67826SOL    HW1 5317   3.975  10.459   4.136
67826SOL    HW2 5318   3.952  10.426   3.990
67827SOL     OW 5319  14.812   7.761   3.764
67827SOL    HW1 5320  14.787   7.675   3.730
67827SOL    HW2 5321  14.770   7.766   3.850
67828SOL     OW 5322   3.625  14.266  11.012
67828SOL    HW1 5323   3.639  14.291  10.921
67828SOL    HW2 5324   3.713  14.252  11.047
67829SOL     OW 5325  14.724   5.391   6.441
67829SOL    HW1 5326  14.654   5.422   6.384
67829SOL    HW2 5327  14.804   5.409   6.391
67830SOL     OW 5328   6.671   7.576  13.769
67830SOL    HW1 5329   6.756   7.581  13.814
67830SOL    HW2 5330   6.620   7.647  13.807
67831SOL     OW 5331  10.415   4.834   6.019
67831SOL    HW1 5332  10.389   4.742   6.030
67831SOL    HW2 5333  10.385   4.858   5.932
67832SOL     OW 5334  12.285  14.347   9.037
67832SOL    HW1 5335  12.341  14.270   9.030
67832SOL    HW2 5336  12.217  14.333   8.971
67833SOL     OW 5337   3.056   1.763  14.183
67833SOL    HW1 5338   3.140   1.799  14.212
67833SOL    HW2 5339   3.005   1.753  14.264
67834SOL     OW 5340   5.141   2.504   5.308
67834SOL    HW1 5341   5.113   2.571   5.370
67834SOL    HW2 5342   5.110   2.422   5.346
67835SOL     OW 5343   7.280   6.697   6.761
67835SOL    HW1 5344   7.304   6.728   6.848
67835SOL    HW2 5345   7.219   6.625   6.777
67836SOL     OW 5346   5.390  12.768  11.252
67836SOL    HW1 5347   5.392  12.751  11.158
67836SOL    HW2 5348   5.474  12.736  11.285
67837SOL     OW 5349  13.461   4.260   5.740
67837SOL    HW1 5350  13.479   4.237   5.649
67837SOL    HW2 5351  13.377   4.307   5.736
67838SOL     OW 5352   0.227   1.624  12.455
67838SOL    HW1 5353   0.319   1.640  12.473
67838SOL    HW2 5354   0.213   1.534  12.486
67839SOL     OW 5355  11.653  13.768   7.671
67839SOL    HW1 5356  11.661  13.720   7.753
67839SOL    HW2 5357  11.667  13.860   7.696
67840SOL     OW 5358  13.483  13.795   8.541
67840SOL    HW1 5359  13.411  13.834   8.492
67840SOL    HW2 5360  13.537  13.870   8.567
67841SOL     OW 5361   8.494   1.739  10.381
67841SOL    HW1 5362   8.450   1.696  10.308
67841SOL    HW2 5363   8.502   1.830  10.355
67842SOL     OW 5364  11.003  12.629   5.097
67842SOL    HW1 5365  10.922  12.638   5.147
67842SOL    HW2 5366  10.974  12.629   5.006
67843SOL     OW 5367   6.751   0.577   7.346
67843SOL    HW1 5368   6.830   0.556   7.297
67843SOL    HW2 5369   6.679   0.549   7.289
67844SOL     OW 5370   4.891   5.849   1.196
67844SOL    HW1 5371   4.815   5.865   1.251
67844SOL    HW2 5372   4.914   5.758   1.212
67845SOL     OW 5373   2.528   8.003   8.661
67845SOL    HW1 5374   2.573   7.931   8.705
67845SOL    HW2 5375   2.436   7.992   8.686
67846SOL     OW 5376   8.492   4.727   0.569
67846SOL    HW1 5377   8.561   4.788   0.543
67846SOL    HW2 5378   8.493   4.728   0.665
67847SOL     OW 5379   2.242   8.252   1.631
67847SOL    HW1 5380   2.324   8.213   1.661
67847SOL    HW2 5381   2.174   8.198   1.669
67848SOL     OW 5382   9.809   6.464   3.160
67848SOL    HW1 5383   9.832   6.401   3.230
67848SOL    HW2 5384   9.875   6.448   3.092
67849SOL     OW 5385  12.664   0.781   8.089
67849SOL    HW1 5386  12.589   0.722   8.086
67849SOL    HW2 5387  12.727   0.742   8.028
67850SOL     OW 5388  12.982   4.987   8.772
67850SOL    HW1 5389  13.035   4.927   8.719
67850SOL    HW2 5390  13.016   5.074   8.750
67851SOL     OW 5391   7.005   6.974  13.434
67851SOL    HW1 5392   7.034   6.890  13.397
67851SOL    HW2 5393   7.056   7.039  13.386
67852SOL     OW 5394   8.563  14.739   5.832
67852SOL    HW1 5395   8.544  14.730   5.738
67852SOL    HW2 5396   8.512  14.814   5.860
67853SOL     OW 5397  13.600   2.166  11.643
67853SOL    HW1 5398  13.509   2.196  11.647
67853SOL    HW2 5399  13.594   2.071  11.652
67854SOL     OW 5400   7.155   9.868   0.780
67854SOL    HW1 5401   7.067   9.847   0.811
67854SOL    HW2 5402   7.213   9.843   0.852
67855SOL     OW 5403   0.420   4.991  14.384
67855SOL    HW1 5404   0.455   5.052  14.449
67855SOL    HW2 5405   0.350   5.041  14.341
67856SOL     OW 5406   6.195  12.839   2.824
67856SOL    HW1 5407   6.117  12.791   2.799
67856SOL    HW2 5408   6.201  12.828   2.918
67857SOL     OW 5409   3.420   2.771   6.377
67857SOL    HW1 5410   3.414   2.866   6.376
67857SOL    HW2 5411   3.505   2.751   6.338
67858SOL     OW 5412   2.862   4.530   3.786
67858SOL    HW1 5413   2.806   4.604   3.765
67858SOL    HW2 5414   2.802   4.459   3.808
67859SOL     OW 5415  12.393   9.047  13.076
67859SOL    HW1 5416  12.461   8.984  13.101
67859SOL    HW2 5417  12.310   9.002  13.093
67860SOL     OW 5418   1.032   1.263   3.534
67860SOL    HW1 5419   1.065   1.306   3.455
67860SOL    HW2 5420   1.029   1.333   3.599
67861SOL     OW 5421  12.177  12.959   2.168
67861SOL    HW1 5422  12.191  12.999   2.254
67861SOL    HW2 5423  12.154  13.033   2.111
67862SOL     OW 5424   5.610   8.930   3.085
67862SOL    HW1 5425   5.537   8.919   3.146
67862SOL    HW2 5426   5.569   8.928   2.999
67863SOL     OW 5427   1.700  10.634  12.383
67863SOL    HW1 5428   1.754  10.672  12.314
67863SOL    HW2 5429   1.691  10.542  12.358
67864SOL     OW 5430   1.418   6.852   7.601
67864SOL    HW1 5431   1.419   6.892   7.688
67864SOL    HW2 5432   1.492   6.791   7.601
67865SOL     OW 5433  12.006  14.375   2.891
67865SOL    HW1 5434  12.023  14.454   2.840
67865SOL    HW2 5435  12.006  14.405   2.982
67866SOL     OW 5436  11.453   1.275  14.270
67866SOL    HW1 5437  11.513   1.324  14.214
67866SOL    HW2 5438  11.464   1.184  14.244
67867SOL     OW 5439   3.252  13.806   7.813
67867SOL    HW1 5440   3.213  13.736   7.761
67867SOL    HW2 5441   3.304  13.856   7.750
67868SOL     OW 5442   0.582   3.923   7.397
67868SOL    HW1 5443   0.496   3.929   7.356
67868SOL    HW2 5444   0.567   3.877   7.479
67869SOL     OW 5445  14.616   3.372  14.848
67869SOL    HW1 5446  14.629   3.309  14.776
67869SOL    HW2 5447  14.667   3.336   0.041
67870SOL     OW 5448  10.434   1.630   2.806
67870SOL    HW1 5449  10.455   1.561   2.869
67870SOL    HW2 5450  10.463   1.597   2.722
67871SOL     OW 5451  10.228  11.849  12.612
67871SOL    HW1 5452  10.266  11.762  12.614
67871SOL    HW2 5453  10.187  11.860  12.698
67872SOL     OW 5454   4.937   6.887  11.893
67872SOL    HW1 5455   5.032   6.884  11.882
67872SOL    HW2 5456   4.914   6.978  11.876
67873SOL     OW 5457   7.897  10.993   3.644
67873SOL    HW1 5458   7.805  11.013   3.662
67873SOL    HW2 5459   7.945  11.068   3.680
67874SOL     OW 5460   2.835  10.664   7.984
67874SOL    HW1 5461   2.856  10.574   7.959
67874SOL    HW2 5462   2.740  10.664   7.994
67875SOL     OW 5463   8.377  14.178  13.585
67875SOL    HW1 5464   8.306  14.242  13.577
67875SOL    HW2 5465   8.456  14.228  13.565
67876SOL     OW 5466   1.742  11.388   7.539
67876SOL    HW1 5467   1.835  11.396   7.563
67876SOL    HW2 5468   1.741  11.401   7.444
67877SOL     OW 5469   4.253   0.193   4.377
67877SOL    HW1 5470   4.177   0.226   4.330
67877SOL    HW2 5471   4.326   0.207   4.317
67878SOL     OW 5472  10.639  12.373  10.470
67878SOL    HW1 5473  10.612  12.436  10.537
67878SOL    HW2 5474  10.725  12.343  10.500
67879SOL     OW 5475  10.047   9.606  14.202
67879SOL    HW1 5476  10.104   9.614  14.278
67879SOL    HW2 5477   9.959   9.625  14.235
67880SOL     OW 5478  14.084   4.613   6.808
67880SOL    HW1 5479  14.105   4.692   6.758
67880SOL    HW2 5480  13.989   4.610   6.809
67881SOL     OW 5481  14.162   8.330   7.452
67881SOL    HW1 5482  14.179   8.422   7.469
67881SOL    HW2 5483  14.247   8.294   7.427
67882SOL     OW 5484   6.204   0.407   2.563
67882SOL    HW1 5485   6.113   0.377   2.558
67882SOL    HW2 5486   6.221   0.418   2.656
67883SOL     OW 5487   2.273   0.845  13.214
67883SOL    HW1 5488   2.189   0.826  13.256
67883SOL    HW2 5489   2.249   0.879  13.127
67884SOL     OW 5490   5.938  13.825  13.928
67884SOL    HW1 5491   5.957  13.916  13.908
67884SOL    HW2 5492   5.966  13.814  14.019
67885SOL     OW 5493   6.323   3.764   3.375
67885SOL    HW1 5494   6.381   3.749   3.300
67885SOL    HW2 5495   6.266   3.687   3.377
67886SOL     OW 5496   6.864  13.851  13.254
67886SOL    HW1 5497   6.785  13.810  13.219
67886SOL    HW2 5498   6.932  13.784  13.244
67887SOL     OW 5499   8.271   2.098   1.921
67887SOL    HW1 5500   8.198   2.084   1.861
67887SOL    HW2 5501   8.229   2.111   2.007
67888SOL     OW 5502   8.078  10.568   0.526
67888SOL    HW1 5503   8.049  10.652   0.491
67888SOL    HW2 5504   8.170  10.562   0.501
67889SOL     OW 5505   8.506   7.103  12.283
67889SOL    HW1 5506   8.453   7.064  12.214
67889SOL    HW2 5507   8.463   7.186  12.302
67890SOL     OW 5508   6.893  11.872  11.518
67890SOL    HW1 5509   6.899  11.832  11.605
67890SOL    HW2 5510   6.911  11.965  11.534
67891SOL     OW 5511   4.284   8.599   5.985
67891SOL    HW1 5512   4.199   8.595   6.030
67891SOL    HW2 5513   4.296   8.511   5.948
67892SOL     OW 5514   6.682   0.675   6.920
67892SOL    HW1 5515   6.654   0.607   6.982
67892SOL    HW2 5516   6.601   0.701   6.876
67893SOL     OW 5517  10.191   5.645  11.661
67893SOL    HW1 5518  10.234   5.654  11.746
67893SOL    HW2 5519  10.099   5.663  11.679
67894SOL     OW 5520   9.446  11.383   1.761
67894SOL    HW1 5521   9.488  11.380   1.675
67894SOL    HW2 5522   9.447  11.293   1.792
67895SOL     OW 5523   5.491   2.257  13.806
67895SOL    HW1 5524   5.433   2.330  13.828
67895SOL    HW2 5525   5.579   2.294  13.810
67896SOL     OW 5526   0.234  10.116  12.859
67896SOL    HW1 5527   0.276  10.084  12.939
67896SOL    HW2 5528   0.269  10.204  12.846
67897SOL     OW 5529   5.416   9.466   5.045
67897SOL    HW1 5530   5.328   9.468   5.081
67897SOL    HW2 5531   5.427   9.552   5.002
67898SOL     OW 5532   4.706   2.949  12.221
67898SOL    HW1 5533   4.630   2.929  12.275
67898SOL    HW2 5534   4.696   3.041  12.197
67899SOL     OW 5535  14.183   0.603   6.161
67899SOL    HW1 5536  14.091   0.580   6.179
67899SOL    HW2 5537  14.178   0.667   6.090
67900SOL     OW 5538   1.216   5.126   1.274
67900SOL    HW1 5539   1.286   5.061   1.281
67900SOL    HW2 5540   1.135   5.076   1.280
67901SOL     OW 5541   5.170   9.954   4.486
67901SOL    HW1 5542   5.151   9.953   4.580
67901SOL    HW2 5543   5.124   9.878   4.452
67902SOL     OW 5544   6.558   4.424  11.064
67902SOL    HW1 5545   6.484   4.381  11.107
67902SOL    HW2 5546   6.549   4.400  10.972
67903SOL     OW 5547  12.119   9.818  13.930
67903SOL    HW1 5548  12.150   9.832  13.841
67903SOL    HW2 5549  12.176   9.749  13.965
67904SOL     OW 5550   8.021   3.814  12.898
67904SOL    HW1 5551   8.049   3.764  12.821
67904SOL    HW2 5552   8.078   3.784  12.969
67905SOL     OW 5553  12.660  10.162  12.657
67905SOL    HW1 5554  12.719  10.220  12.609
67905SOL    HW2 5555  12.652  10.085  12.601
67906SOL     OW 5556   9.983  10.034   6.871
67906SOL    HW1 5557   9.955  10.035   6.962
67906SOL    HW2 5558  10.063   9.981   6.871
67907SOL     OW 5559   5.508   8.755   9.941
67907SOL    HW1 5560   5.595   8.785   9.966
67907SOL    HW2 5561   5.504   8.664   9.969
67908SOL     OW 5562  12.352   9.786   5.597
67908SOL    HW1 5563  12.324   9.839   5.671
67908SOL    HW2 5564  12.288   9.714   5.594
67909SOL     OW 5565  14.662   8.115   9.383
67909SOL    HW1 5566  14.718   8.079   9.452
67909SOL    HW2 5567  14.581   8.065   9.391
67910SOL     OW 5568  14.651  10.529   7.784
67910SOL    HW1 5569  14.557  10.541   7.793
67910SOL    HW2 5570  14.688  10.564   7.865
67911SOL     OW 5571   2.542   4.372   8.270
67911SOL    HW1 5572   2.556   4.288   8.313
67911SOL    HW2 5573   2.618   4.426   8.294
67912SOL     OW 5574  10.893  13.870   0.476
67912SOL    HW1 5575  10.838  13.853   0.553
67912SOL    HW2 5576  10.868  13.803   0.413
67913SOL     OW 5577  12.062   3.754   2.223
67913SOL    HW1 5578  12.067   3.807   2.144
67913SOL    HW2 5579  11.968   3.746   2.241
67914SOL     OW 5580  10.446   9.893   6.112
67914SOL    HW1 5581  10.540   9.883   6.102
67914SOL    HW2 5582  10.409   9.849   6.035
67915SOL     OW 5583  14.612  12.159  12.469
67915SOL    HW1 5584  14.625  12.217  12.545
67915SOL    HW2 5585  14.517  12.161  12.454
67916SOL     OW 5586   8.029   9.614   1.755
67916SOL    HW1 5587   8.084   9.664   1.695
67916SOL    HW2 5588   8.060   9.524   1.748
67917SOL     OW 5589  14.320  11.567  10.658
67917SOL    HW1 5590  14.336  11.610  10.574
67917SOL    HW2 5591  14.341  11.634  10.724
67918SOL     OW 5592   9.270   2.229  14.781
67918SOL    HW1 5593   9.332   2.242  14.853
67918SOL    HW2 5594   9.234   2.142  14.796
67919SOL     OW 5595   1.603   7.228   3.378
67919SOL    HW1 5596   1.611   7.322   3.398
67919SOL    HW2 5597   1.690   7.192   3.393
67920SOL     OW 5598   0.479  13.373  11.583
67920SOL    HW1 5599   0.570  13.395  11.604
67920SOL    HW2 5600   0.471  13.280  11.605
67921SOL     OW 5601   7.541  14.224   1.693
67921SOL    HW1 5602   7.568  14.185   1.777
67921SOL    HW2 5603   7.618  14.273   1.664
67922SOL     OW 5604  12.024   3.024   8.032
67922SOL    HW1 5605  12.079   3.066   8.098
67922SOL    HW2 5606  12.084   2.970   7.981
67923SOL     OW 5607   6.191  11.775  14.268
67923SOL    HW1 5608   6.140  11.794  14.189
67923SOL    HW2 5609   6.276  11.745  14.234
67924SOL     OW 5610   8.962   8.783   6.366
67924SOL    HW1 5611   8.920   8.697   6.365
67924SOL    HW2 5612   8.903   8.837   6.419
67925SOL     OW 5613   2.749   8.642   8.876
67925SOL    HW1 5614   2.767   8.663   8.968
67925SOL    HW2 5615   2.674   8.584   8.879
67926SOL     OW 5616  12.042  10.816   1.667
67926SOL    HW1 5617  12.118  10.762   1.687
67926SOL    HW2 5618  12.045  10.828   1.572
67927SOL     OW 5619   8.445   5.820   5.867
67927SOL    HW1 5620   8.378   5.889   5.871
67927SOL    HW2 5621   8.416   5.755   5.930
67928SOL     OW 5622   5.741   4.470   4.543
67928SOL    HW1 5623   5.746   4.381   4.576
67928SOL    HW2 5624   5.833   4.499   4.540
67929SOL     OW 5625   1.074   6.284   0.653
67929SOL    HW1 5626   0.985   6.255   0.633
67929SOL    HW2 5627   1.122   6.274   0.571
67930SOL     OW 5628   8.065   1.157  14.041
67930SOL    HW1 5629   8.082   1.063  14.048
67930SOL    HW2 5630   8.042   1.184  14.130
67931SOL     OW 5631   2.694  11.604   7.487
67931SOL    HW1 5632   2.599  11.617   7.490
67931SOL    HW2 5633   2.709  11.523   7.537
67932SOL     OW 5634   1.243  12.105   7.929
67932SOL    HW1 5635   1.150  12.121   7.913
67932SOL    HW2 5636   1.287  12.181   7.891
67933SOL     OW 5637   1.682   6.616  14.142
67933SOL    HW1 5638   1.751   6.656  14.088
67933SOL    HW2 5639   1.683   6.667  14.223
67934SOL     OW 5640   3.304   6.903   3.272
67934SOL    HW1 5641   3.280   6.956   3.197
67934SOL    HW2 5642   3.381   6.946   3.309
67935SOL     OW 5643  12.573   8.193   8.201
67935SOL    HW1 5644  12.600   8.190   8.109
67935SOL    HW2 5645  12.531   8.109   8.217
67936SOL     OW 5646   8.993   4.923   1.362
67936SOL    HW1 5647   8.949   5.007   1.350
67936SOL    HW2 5648   9.082   4.946   1.388
67937SOL     OW 5649   7.604  12.434   4.449
67937SOL    HW1 5650   7.513  12.455   4.471
67937SOL    HW2 5651   7.634  12.509   4.398
67938SOL     OW 5652   2.162   0.665   2.424
67938SOL    HW1 5653   2.123   0.591   2.471
67938SOL    HW2 5654   2.097   0.735   2.431
67939SOL     OW 5655   4.214   2.618  10.161
67939SOL    HW1 5656   4.159   2.694  10.141
67939SOL    HW2 5657   4.197   2.557  10.089
67940SOL     OW 5658  11.538   2.907  10.069
67940SOL    HW1 5659  11.458   2.872  10.108
67940SOL    HW2 5660  11.558   2.984  10.121
67941SOL     OW 5661   1.822   1.073   3.202
67941SOL    HW1 5662   1.729   1.087   3.219
67941SOL    HW2 5663   1.829   1.064   3.107
67942SOL     OW 5664  11.345  14.792  11.103
67942SOL    HW1 5665  11.353  14.735  11.179
67942SOL    HW2 5666  11.253  14.817  11.101
67943SOL     OW 5667   1.065   8.034  14.466
67943SOL    HW1 5668   1.115   7.962  14.504
67943SOL    HW2 5669   1.024   8.078  14.541
67944SOL     OW 5670  11.196  12.277   3.423
67944SOL    HW1 5671  11.196  12.351   3.362
67944SOL    HW2 5672  11.271  12.224   3.396
67945SOL     OW 5673  13.361   9.263   6.983
67945SOL    HW1 5674  13.423   9.262   7.056
67945SOL    HW2 5675  13.277   9.237   7.021
67946SOL     OW 5676  11.719  13.133  11.768
67946SOL    HW1 5677  11.668  13.206  11.805
67946SOL    HW2 5678  11.656  13.062  11.758
67947SOL     OW 5679   8.975   3.390  11.161
67947SOL    HW1 5680   8.993   3.356  11.073
67947SOL    HW2 5681   8.884   3.368  11.178
67948SOL     OW 5682  14.431   3.812  13.689
67948SOL    HW1 5683  14.426   3.792  13.596
67948SOL    HW2 5684  14.341   3.834  13.714
67949SOL     OW 5685   5.404  14.387   5.560
67949SOL    HW1 5686   5.495  14.396   5.529
67949SOL    HW2 5687   5.355  14.360   5.483
67950SOL     OW 5688   2.443  10.516   1.953
67950SOL    HW1 5689   2.382  10.562   2.010
67950SOL    HW2 5690   2.389  10.483   1.881
67951SOL     OW 5691   3.226  13.563   4.795
67951SOL    HW1 5692   3.268  13.487   4.755
67951SOL    HW2 5693   3.287  13.636   4.778
67952SOL     OW 5694   3.058  13.524  10.110
67952SOL    HW1 5695   3.130  13.460  10.110
67952SOL    HW2 5696   2.979  13.471  10.099
67953SOL     OW 5697   1.353   9.810   1.111
67953SOL    HW1 5698   1.327   9.726   1.149
67953SOL    HW2 5699   1.300   9.818   1.031
67954SOL     OW 5700  10.185   5.135  10.455
67954SOL    HW1 5701  10.188   5.068  10.387
67954SOL    HW2 5702  10.169   5.217  10.408
67955SOL     OW 5703   1.479  14.822  10.140
67955SOL    HW1 5704   1.529  14.740  10.147
67955SOL    HW2 5705   1.389  14.794  10.126
67956SOL     OW 5706  12.040   8.211  12.213
67956SOL    HW1 5707  11.954   8.173  12.232
67956SOL    HW2 5708  12.070   8.245  12.298
67957SOL     OW 5709   6.326   3.767   9.004
67957SOL    HW1 5710   6.393   3.703   9.025
67957SOL    HW2 5711   6.277   3.779   9.085
67958SOL     OW 5712  11.163   7.135   5.906
67958SOL    HW1 5713  11.138   7.051   5.867
67958SOL    HW2 5714  11.239   7.163   5.855
67959SOL     OW 5715   8.435   8.090  13.985
67959SOL    HW1 5716   8.356   8.100  14.038
67959SOL    HW2 5717   8.422   8.151  13.912
67960SOL     OW 5718   3.120   9.073  10.082
67960SOL    HW1 5719   3.094   9.025  10.160
67960SOL    HW2 5720   3.210   9.101  10.100
67961SOL     OW 5721  12.896   5.746   6.330
67961SOL    HW1 5722  12.877   5.654   6.311
67961SOL    HW2 5723  12.810   5.786   6.340
67962SOL     OW 5724   9.396   8.180   1.252
67962SOL    HW1 5725   9.340   8.144   1.184
67962SOL    HW2 5726   9.484   8.150   1.229
67963SOL     OW 5727   2.506  11.411   6.932
67963SOL    HW1 5728   2.582  11.364   6.969
67963SOL    HW2 5729   2.529  11.426   6.841
67964SOL     OW 5730   0.008   8.534  10.199
67964SOL    HW1 5731   0.069   8.530  10.126
67964SOL    HW2 5732  14.802   8.547  10.159
67965SOL     OW 5733   7.223   3.320  11.329
67965SOL    HW1 5734   7.210   3.364  11.413
67965SOL    HW2 5735   7.256   3.388  11.271
67966SOL     OW 5736  13.221   0.080   2.162
67966SOL    HW1 5737  13.236  14.878   2.113
67966SOL    HW2 5738  13.126   0.087   2.167
67967SOL     OW 5739   8.246   9.136  11.987
67967SOL    HW1 5740   8.192   9.121  12.064
67967SOL    HW2 5741   8.300   9.057  11.980
67968SOL     OW 5742   7.718   1.354   0.344
67968SOL    HW1 5743   7.803   1.347   0.387
67968SOL    HW2 5744   7.656   1.315   0.406
67969SOL     OW 5745  11.088   5.663   0.771
67969SOL    HW1 5746  11.065   5.756   0.762
67969SOL    HW2 5747  11.141   5.644   0.693
67970SOL     OW 5748  11.207   1.173   8.451
67970SOL    HW1 5749  11.138   1.225   8.492
67970SOL    HW2 5750  11.172   1.085   8.447
67971SOL     OW 5751  13.953   1.120  10.930
67971SOL    HW1 5752  13.871   1.168  10.936
67971SOL    HW2 5753  14.020   1.187  10.917
67972SOL     OW 5754   2.186  12.206   6.393
67972SOL    HW1 5755   2.133  12.285   6.382
67972SOL    HW2 5756   2.240  12.201   6.314
67973SOL     OW 5757   2.880   2.879   6.374
67973SOL    HW1 5758   2.916   2.927   6.449
67973SOL    HW2 5759   2.786   2.881   6.387
67974SOL     OW 5760   0.648   6.129  12.689
67974SOL    HW1 5761   0.681   6.188  12.757
67974SOL    HW2 5762   0.717   6.063  12.679
67975SOL     OW 5763   5.576   8.951   8.950
67975SOL    HW1 5764   5.570   8.878   8.888
67975SOL    HW2 5765   5.493   8.951   8.997
67976SOL     OW 5766  10.384   7.786  10.491
67976SOL    HW1 5767  10.323   7.726  10.448
67976SOL    HW2 5768  10.467   7.739  10.491
67977SOL     OW 5769  14.285  14.189   4.772
67977SOL    HW1 5770  14.247  14.236   4.846
67977SOL    HW2 5771  14.301  14.256   4.706
67978SOL     OW 5772   9.032   0.805   6.966
67978SOL    HW1 5773   8.938   0.821   6.961
67978SOL    HW2 5774   9.040   0.724   7.017
67979SOL     OW 5775   3.886  10.854  12.399
67979SOL    HW1 5776   3.949  10.909  12.446
67979SOL    HW2 5777   3.817  10.914  12.372
67980SOL     OW 5778   3.220   6.784  10.760
67980SOL    HW1 5779   3.137   6.767  10.805
67980SOL    HW2 5780   3.283   6.727  10.803
67981SOL     OW 5781   8.523   0.169   0.634
67981SOL    HW1 5782   8.438   0.168   0.589
67981SOL    HW2 5783   8.520   0.094   0.693
67982SOL     OW 5784   1.626  11.134  14.799
67982SOL    HW1 5785   1.634  11.222  14.835
67982SOL    HW2 5786   1.614  11.148  14.705
67983SOL     OW 5787   2.939  11.208  12.053
67983SOL    HW1 5788   2.879  11.272  12.091
67983SOL    HW2 5789   3.017  11.260  12.030
67984SOL     OW 5790   8.432   3.622  11.191
67984SOL    HW1 5791   8.401   3.676  11.118
67984SOL    HW2 5792   8.524   3.604  11.170
67985SOL     OW 5793   8.978   3.632  14.394
67985SOL    HW1 5794   9.028   3.550  14.403
67985SOL    HW2 5795   8.942   3.647  14.481
67986SOL     OW 5796   0.938   0.318   3.201
67986SOL    HW1 5797   0.901   0.308   3.288
67986SOL    HW2 5798   0.879   0.269   3.144
67987SOL     OW 5799  14.017   4.474   2.801
67987SOL    HW1 5800  14.015   4.400   2.861
67987SOL    HW2 5801  14.102   4.515   2.815
67988SOL     OW 5802   9.754   6.235   8.343
67988SOL    HW1 5803   9.724   6.159   8.291
67988SOL    HW2 5804   9.729   6.213   8.433
67989SOL     OW 5805   0.540   7.593  11.315
67989SOL    HW1 5806   0.520   7.529  11.383
67989SOL    HW2 5807   0.635   7.585  11.302
67990SOL     OW 5808   1.846  10.634  10.856
67990SOL    HW1 5809   1.937  10.630  10.884
67990SOL    HW2 5810   1.847  10.601  10.766
67991SOL     OW 5811  13.995  14.334  13.038
67991SOL    HW1 5812  13.968  14.254  13.083
67991SOL    HW2 5813  13.953  14.405  13.087
67992SOL     OW 5814  14.313   6.483   0.845
67992SOL    HW1 5815  14.367   6.487   0.767
67992SOL    HW2 5816  14.244   6.547   0.830
67993SOL     OW 5817  14.403  12.606   8.476
67993SOL    HW1 5818  14.484  12.642   8.511
67993SOL    HW2 5819  14.394  12.647   8.390
67994SOL     OW 5820   1.073  14.878   1.556
67994SOL    HW1 5821   1.054  14.860   1.648
67994SOL    HW2 5822   1.044   0.089   1.542
67995SOL     OW 5823   9.055   6.550  11.543
67995SOL    HW1 5824   9.094   6.616  11.600
67995SOL    HW2 5825   9.124   6.532  11.478
67996SOL     OW 5826   5.439   8.858   7.663
67996SOL    HW1 5827   5.435   8.906   7.580
67996SOL    HW2 5828   5.529   8.829   7.670
67997SOL     OW 5829   2.660   2.148   9.132
67997SOL    HW1 5830   2.743   2.175   9.173
67997SOL    HW2 5831   2.642   2.062   9.170
67998SOL     OW 5832   3.271  13.968   9.977
67998SOL    HW1 5833   3.255  13.892  10.033
67998SOL    HW2 5834   3.329  13.936   9.909
67999SOL     OW 5835   0.921  13.065  12.994
67999SOL    HW1 5836   0.989  13.126  12.967
67999SOL    HW2 5837   0.841  13.118  12.994
68000SOL     OW 5838  11.454   3.471   0.240
68000SOL    HW1 5839  11.438   3.564   0.260
68000SOL    HW2 5840  11.438   3.426   0.323
68001SOL     OW 5841  14.350  13.427   0.300
68001SOL    HW1 5842  14.284  13.372   0.257
68001SOL    HW2 5843  14.414  13.447   0.231
68002SOL     OW 5844   3.278  11.401   7.329
68002SOL    HW1 5845   3.292  11.360   7.244
68002SOL    HW2 5846   3.278  11.495   7.311
68003SOL     OW 5847   5.223   6.800   8.391
68003SOL    HW1 5848   5.201   6.747   8.468
68003SOL    HW2 5849   5.279   6.870   8.426
68004SOL     OW 5850  11.029   7.153   0.326
68004SOL    HW1 5851  11.020   7.061   0.349
68004SOL    HW2 5852  10.998   7.159   0.236
68005SOL     OW 5853   0.481   0.159  10.572
68005SOL    HW1 5854   0.527   0.112  10.502
68005SOL    HW2 5855   0.540   0.153  10.647
68006SOL     OW 5856   7.403   7.982   2.492
68006SOL    HW1 5857   7.383   8.038   2.417
68006SOL    HW2 5858   7.431   7.899   2.453
68007SOL     OW 5859  12.902   5.581  14.198
68007SOL    HW1 5860  12.957   5.522  14.146
68007SOL    HW2 5861  12.907   5.665  14.152
68008SOL     OW 5862   8.723   3.039   9.874
68008SOL    HW1 5863   8.678   3.013   9.794
68008SOL    HW2 5864   8.784   3.107   9.846
68009SOL     OW 5865   9.040   9.105   8.758
68009SOL    HW1 5866   9.035   9.076   8.667
68009SOL    HW2 5867   9.087   9.034   8.803
68010SOL     OW 5868   2.778   5.198   9.688
68010SOL    HW1 5869   2.821   5.259   9.748
68010SOL    HW2 5870   2.832   5.119   9.691
68011SOL     OW 5871   5.860  14.011  14.296
68011SOL    HW1 5872   5.935  14.040  14.244
68011SOL    HW2 5873   5.855  14.075  14.367
68012SOL     OW 5874  12.493  14.514   7.884
68012SOL    HW1 5875  12.572  14.568   7.898
68012SOL    HW2 5876  12.482  14.514   7.789
68013SOL     OW 5877   9.147   9.185   8.997
68013SOL    HW1 5878   9.220   9.177   8.935
68013SOL    HW2 5879   9.076   9.221   8.945
68014SOL     OW 5880  12.828   2.500   5.274
68014SOL    HW1 5881  12.801   2.409   5.271
68014SOL    HW2 5882  12.911   2.499   5.322
68015SOL     OW 5883   6.723   6.197  10.502
68015SOL    HW1 5884   6.678   6.155  10.429
68015SOL    HW2 5885   6.685   6.155  10.580
68016SOL     OW 5886   0.375   0.899  14.617
68016SOL    HW1 5887   0.431   0.892  14.694
68016SOL    HW2 5888   0.350   0.809  14.598
68017SOL     OW 5889   9.294  12.905  12.453
68017SOL    HW1 5890   9.274  12.852  12.376
68017SOL    HW2 5891   9.356  12.971  12.421
68018SOL     OW 5892  10.572   9.724   9.145
68018SOL    HW1 5893  10.488   9.769   9.155
68018SOL    HW2 5894  10.576   9.700   9.052
68019SOL     OW 5895   4.667   4.790  13.843
68019SOL    HW1 5896   4.647   4.754  13.930
68019SOL    HW2 5897   4.581   4.804  13.803
68020SOL     OW 5898   1.943  14.237   1.602
68020SOL    HW1 5899   1.994  14.311   1.572
68020SOL    HW2 5900   1.877  14.223   1.534
68021SOL     OW 5901  13.891  12.626  10.559
68021SOL    HW1 5902  13.803  12.601  10.587
68021SOL    HW2 5903  13.931  12.543  10.532
68022SOL     OW 5904   1.587   6.813  10.504
68022SOL    HW1 5905   1.603   6.728  10.545
68022SOL    HW2 5906   1.563   6.871  10.577
68023SOL     OW 5907   2.648  14.745   4.683
68023SOL    HW1 5908   2.694  14.798   4.618
68023SOL    HW2 5909   2.636  14.805   4.757
68024SOL     OW 5910   0.729  12.730  10.089
68024SOL    HW1 5911   0.711  12.676  10.166
68024SOL    HW2 5912   0.710  12.820  10.118
68025SOL     OW 5913  10.113  12.179  11.817
68025SOL    HW1 5914  10.080  12.116  11.880
68025SOL    HW2 5915  10.167  12.126  11.757
68026SOL     OW 5916  10.293   6.752   2.151
68026SOL    HW1 5917  10.353   6.730   2.079
68026SOL    HW2 5918  10.209   6.766   2.107
68027SOL     OW 5919   7.741   7.999   7.205
68027SOL    HW1 5920   7.660   8.049   7.221
68027SOL    HW2 5921   7.769   7.972   7.293
68028SOL     OW 5922  12.554  14.592   9.574
68028SOL    HW1 5923  12.537  14.505   9.538
68028SOL    HW2 5924  12.646  14.590   9.599
68029SOL     OW 5925   9.986   9.049   0.213
68029SOL    HW1 5926  10.000   9.048   0.308
68029SOL    HW2 5927  10.061   9.098   0.179
68030SOL     OW 5928   9.329   1.784   0.017
68030SOL    HW1 5929   9.331   1.729  14.818
68030SOL    HW2 5930   9.368   1.730   0.085
68031SOL     OW 5931  13.773   0.857   6.187
68031SOL    HW1 5932  13.678   0.849   6.188
68031SOL    HW2 5933  13.802   0.792   6.123
68032SOL     OW 5934   6.007  11.751   5.330
68032SOL    HW1 5935   6.061  11.672   5.327
68032SOL    HW2 5936   5.917  11.718   5.342
68033SOL     OW 5937  11.313  11.228  11.638
68033SOL    HW1 5938  11.382  11.291  11.619
68033SOL    HW2 5939  11.250  11.238  11.567
68034SOL     OW 5940  12.973  12.556  10.911
68034SOL    HW1 5941  12.880  12.535  10.923
68034SOL    HW2 5942  13.013  12.541  10.996
68035SOL     OW 5943   5.471   4.038   7.203
68035SOL    HW1 5944   5.461   4.123   7.160
68035SOL    HW2 5945   5.397   4.033   7.264
68036SOL     OW 5946   1.099   8.082   7.360
68036SOL    HW1 5947   1.145   8.062   7.442
68036SOL    HW2 5948   1.122   8.010   7.301
68037SOL     OW 5949   0.545   2.265   7.186
68037SOL    HW1 5950   0.522   2.222   7.104
68037SOL    HW2 5951   0.469   2.252   7.242
68038SOL     OW 5952   3.306   5.069   0.930
68038SOL    HW1 5953   3.225   5.120   0.939
68038SOL    HW2 5954   3.368   5.113   0.988
68039SOL     OW 5955   5.673   2.205   0.215
68039SOL    HW1 5956   5.688   2.292   0.179
68039SOL    HW2 5957   5.661   2.219   0.309
68040SOL     OW 5958   6.371   0.328   2.327
68040SOL    HW1 5959   6.322   0.369   2.256
68040SOL    HW2 5960   6.320   0.347   2.406
68041SOL     OW 5961   0.029   8.016   3.945
68041SOL    HW1 5962  14.849   7.947   3.919
68041SOL    HW2 5963   0.100   7.970   3.991
68042SOL     OW 5964   1.799   7.255  14.774
68042SOL    HW1 5965   1.852   7.175  14.779
68042SOL    HW2 5966   1.857   7.320  14.734
68043SOL     OW 5967   0.721   0.784   4.717
68043SOL    HW1 5968   0.626   0.795   4.722
68043SOL    HW2 5969   0.740   0.783   4.623
68044SOL     OW 5970   1.049   3.974  14.737
68044SOL    HW1 5971   1.039   3.986  14.643
68044SOL    HW2 5972   1.061   4.062  14.772
68045SOL     OW 5973   0.383  14.507   2.604
68045SOL    HW1 5974   0.380  14.558   2.685
68045SOL    HW2 5975   0.414  14.420   2.632
68046SOL     OW 5976   3.443  10.727   6.979
68046SOL    HW1 5977   3.446  10.650   6.923
68046SOL    HW2 5978   3.437  10.801   6.918
68047SOL     OW 5979  11.778   6.794   3.799
68047SOL    HW1 5980  11.808   6.877   3.835
68047SOL    HW2 5981  11.688   6.810   3.771
68048SOL     OW 5982   5.123   4.660  12.036
68048SOL    HW1 5983   5.086   4.646  12.123
68048SOL    HW2 5984   5.107   4.578  11.990
68049SOL     OW 5985  10.637   7.511   2.019
68049SOL    HW1 5986  10.604   7.588   1.973
68049SOL    HW2 5987  10.710   7.545   2.072
68050SOL     OW 5988  12.937   3.352   0.268
68050SOL    HW1 5989  12.933   3.436   0.221
68050SOL    HW2 5990  12.938   3.286   0.199
68051SOL     OW 5991  12.286   2.365   7.195
68051SOL    HW1 5992  12.274   2.318   7.278
68051SOL    HW2 5993  12.319   2.298   7.135
68052SOL     OW 5994   1.189   3.963  13.886
68052SOL    HW1 5995   1.204   3.967  13.792
68052SOL    HW2 5996   1.140   4.043  13.906
68053SOL     OW 5997  11.686   7.184  11.888
68053SOL    HW1 5998  11.768   7.219  11.922
68053SOL    HW2 5999  11.704   7.165  11.796
68054SOL     OW 6000   5.946  14.626  12.052
68054SOL    HW1 6001   5.939  14.716  12.021
68054SOL    HW2 6002   6.011  14.629  12.121
68055SOL     OW 6003  10.967   0.117   4.232
68055SOL    HW1 6004  10.935   0.166   4.156
68055SOL    HW2 6005  11.038   0.171   4.267
68056SOL     OW 6006  12.116   6.148   7.519
68056SOL    HW1 6007  12.092   6.091   7.592
68056SOL    HW2 6008  12.181   6.099   7.470
68057SOL     OW 6009   6.187  14.264   2.585
68057SOL    HW1 6010   6.183  14.301   2.673
68057SOL    HW2 6011   6.266  14.302   2.547
68058SOL     OW 6012  11.558  11.330   1.176
68058SOL    HW1 6013  11.549  11.419   1.142
68058SOL    HW2 6014  11.650  11.324   1.203
68059SOL     OW 6015   1.099   1.626   8.286
68059SOL    HW1 6016   1.187   1.659   8.268
68059SOL    HW2 6017   1.052   1.701   8.323
68060SOL     OW 6018  14.763   1.506  14.667
68060SOL    HW1 6019  14.815   1.495  14.587
68060SOL    HW2 6020  14.797   1.585  14.707
68061SOL     OW 6021  13.574   2.854   3.220
68061SOL    HW1 6022  13.555   2.877   3.129
68061SOL    HW2 6023  13.576   2.759   3.221
68062SOL     OW 6024   9.817  12.595   4.547
68062SOL    HW1 6025   9.907  12.623   4.533
68062SOL    HW2 6026   9.788  12.645   4.624
68063SOL     OW 6027   1.207   8.145   0.187
68063SOL    HW1 6028   1.207   8.190   0.102
68063SOL    HW2 6029   1.270   8.073   0.176
68064SOL     OW 6030  12.740   5.685   2.555
68064SOL    HW1 6031  12.811   5.647   2.502
68064SOL    HW2 6032  12.726   5.621   2.625
68065SOL     OW 6033   5.423   3.532  12.167
68065SOL    HW1 6034   5.405   3.617  12.207
68065SOL    HW2 6035   5.384   3.468  12.228
68066SOL     OW 6036  10.793   1.211   0.541
68066SOL    HW1 6037  10.887   1.231   0.544
68066SOL    HW2 6038  10.789   1.120   0.513
68067SOL     OW 6039   2.116   3.809  10.947
68067SOL    HW1 6040   2.162   3.736  10.906
68067SOL    HW2 6041   2.181   3.879  10.951
68068SOL     OW 6042   9.010   1.477   6.165
68068SOL    HW1 6043   9.016   1.570   6.146
68068SOL    HW2 6044   8.923   1.466   6.205
68069SOL     OW 6045   1.685  13.634  13.392
68069SOL    HW1 6046   1.711  13.609  13.481
68069SOL    HW2 6047   1.734  13.575  13.335
68070SOL     OW 6048   5.934  12.190   4.879
68070SOL    HW1 6049   5.935  12.263   4.817
68070SOL    HW2 6050   5.890  12.226   4.957
68071SOL     OW 6051   0.418   3.561  11.104
68071SOL    HW1 6052   0.325   3.585  11.102
68071SOL    HW2 6053   0.443   3.558  11.011
68072SOL     OW 6054  11.559  11.942  12.923
68072SOL    HW1 6055  11.624  11.899  12.978
68072SOL    HW2 6056  11.502  11.988  12.984
68073SOL     OW 6057  10.505   0.655  12.594
68073SOL    HW1 6058  10.575   0.592  12.608
68073SOL    HW2 6059  10.494   0.658  12.499
68074SOL     OW 6060   4.670   1.268   6.350
68074SOL    HW1 6061   4.756   1.270   6.308
68074SOL    HW2 6062   4.632   1.354   6.332
68075SOL     OW 6063   8.254   1.866   0.932
68075SOL    HW1 6064   8.268   1.952   0.972
68075SOL    HW2 6065   8.244   1.884   0.839
68076SOL     OW 6066   6.619   3.736  14.257
68076SOL    HW1 6067   6.594   3.769  14.342
68076SOL    HW2 6068   6.570   3.790  14.194
68077SOL     OW 6069   7.341   6.667   4.577
68077SOL    HW1 6070   7.278   6.668   4.649
68077SOL    HW2 6071   7.381   6.581   4.581
68078SOL     OW 6072   2.192  14.449   3.292
68078SOL    HW1 6073   2.242  14.403   3.224
68078SOL    HW2 6074   2.159  14.528   3.248
68079SOL     OW 6075  11.467  14.398   8.650
68079SOL    HW1 6076  11.491  14.314   8.610
68079SOL    HW2 6077  11.485  14.463   8.583
68080SOL     OW 6078  13.496   5.672   7.762
68080SOL    HW1 6079  13.437   5.598   7.772
68080SOL    HW2 6080  13.464   5.738   7.823
68081SOL     OW 6081  11.976   1.184  12.663
68081SOL    HW1 6082  11.897   1.188  12.611
68081SOL    HW2 6083  12.047   1.178  12.600
68082SOL     OW 6084   6.656   6.301   6.546
68082SOL    HW1 6085   6.569   6.313   6.585
68082SOL    HW2 6086   6.716   6.340   6.609
68083SOL     OW 6087  11.304   8.734   1.134
68083SOL    HW1 6088  11.360   8.672   1.181
68083SOL    HW2 6089  11.215   8.710   1.159
68084SOL     OW 6090  11.004   2.262   9.471
68084SOL    HW1 6091  11.051   2.241   9.391
68084SOL    HW2 6092  10.939   2.327   9.445
68085SOL     OW 6093   0.987  13.896   7.362
68085SOL    HW1 6094   1.071  13.927   7.396
68085SOL    HW2 6095   0.929  13.896   7.437
68086SOL     OW 6096  13.133   7.045  11.242
68086SOL    HW1 6097  13.101   7.049  11.332
68086SOL    HW2 6098  13.104   7.127  11.203
68087SOL     OW 6099   7.568  10.492   2.819
68087SOL    HW1 6100   7.518  10.491   2.901
68087SOL    HW2 6101   7.654  10.455   2.843
68088SOL     OW 6102  12.999  13.733  11.341
68088SOL    HW1 6103  12.949  13.655  11.317
68088SOL    HW2 6104  12.943  13.781  11.402
68089SOL     OW 6105   4.265  13.072  10.948
68089SOL    HW1 6106   4.359  13.076  10.931
68089SOL    HW2 6107   4.231  13.009  10.885
68090SOL     OW 6108   1.689   6.349   5.835
68090SOL    HW1 6109   1.617   6.296   5.799
68090SOL    HW2 6110   1.768   6.307   5.803
68091SOL     OW 6111   5.524  10.438  14.753
68091SOL    HW1 6112   5.618  10.454  14.757
68091SOL    HW2 6113   5.512  10.388  14.672
68092SOL     OW 6114   7.198  14.853  11.641
68092SOL    HW1 6115   7.222   0.026  11.717
68092SOL    HW2 6116   7.203   0.034  11.567
68093SOL     OW 6117   7.105   4.666   6.720
68093SOL    HW1 6118   7.187   4.711   6.701
68093SOL    HW2 6119   7.046   4.693   6.649
68094SOL     OW 6120   2.142   5.768  14.603
68094SOL    HW1 6121   2.203   5.712  14.651
68094SOL    HW2 6122   2.171   5.762  14.512
68095SOL     OW 6123   1.513   4.156   3.382
68095SOL    HW1 6124   1.486   4.186   3.295
68095SOL    HW2 6125   1.511   4.061   3.376
68096SOL     OW 6126   5.646   0.626  10.444
68096SOL    HW1 6127   5.654   0.712  10.401
68096SOL    HW2 6128   5.612   0.645  10.531
68097SOL     OW 6129  12.398   8.097   1.775
68097SOL    HW1 6130  12.392   8.132   1.864
68097SOL    HW2 6131  12.333   8.147   1.726
68098SOL     OW 6132   6.558   1.862   1.881
68098SOL    HW1 6133   6.561   1.792   1.946
68098SOL    HW2 6134   6.466   1.889   1.879
68099SOL     OW 6135   5.433  14.591  10.107
68099SOL    HW1 6136   5.514  14.594  10.158
68099SOL    HW2 6137   5.430  14.677  10.064
68100SOL     OW 6138   4.116  13.311  11.378
68100SOL    HW1 6139   4.052  13.279  11.314
68100SOL    HW2 6140   4.198  13.317  11.328
68101SOL     OW 6141  12.168  13.236   5.179
68101SOL    HW1 6142  12.136  13.270   5.095
68101SOL    HW2 6143  12.221  13.306   5.215
68102SOL     OW 6144  10.592   1.143   8.943
68102SOL    HW1 6145  10.604   1.224   8.994
68102SOL    HW2 6146  10.512   1.159   8.892
68103SOL     OW 6147  12.834  11.935  11.171
68103SOL    HW1 6148  12.831  11.857  11.115
68103SOL    HW2 6149  12.874  12.002  11.116
68104SOL     OW 6150  10.819   8.375   6.120
68104SOL    HW1 6151  10.749   8.426   6.161
68104SOL    HW2 6152  10.829   8.413   6.033
68105SOL     OW 6153  10.411  10.277   6.975
68105SOL    HW1 6154  10.367  10.271   6.890
68105SOL    HW2 6155  10.481  10.341   6.962
68106SOL     OW 6156   4.930  14.822  11.370
68106SOL    HW1 6157   4.875   0.018  11.391
68106SOL    HW2 6158   5.017  14.860  11.356
68107SOL     OW 6159  12.661  13.539   0.884
68107SOL    HW1 6160  12.721  13.578   0.820
68107SOL    HW2 6161  12.585  13.513   0.831
68108SOL     OW 6162   5.522   2.365   1.796
68108SOL    HW1 6163   5.572   2.410   1.727
68108SOL    HW2 6164   5.462   2.432   1.829
68109SOL     OW 6165   2.671   4.367   5.415
68109SOL    HW1 6166   2.670   4.434   5.346
68109SOL    HW2 6167   2.599   4.309   5.392
68110SOL     OW 6168   1.736   8.356  12.007
68110SOL    HW1 6169   1.741   8.260  12.006
68110SOL    HW2 6170   1.815   8.383  12.055
68111SOL     OW 6171   7.174   5.637   4.400
68111SOL    HW1 6172   7.183   5.639   4.495
68111SOL    HW2 6173   7.261   5.661   4.367
68112SOL     OW 6174   8.929   2.663  10.703
68112SOL    HW1 6175   9.022   2.686  10.705
68112SOL    HW2 6176   8.886   2.736  10.747
68113SOL     OW 6177   4.805   6.049  12.315
68113SOL    HW1 6178   4.854   6.017  12.390
68113SOL    HW2 6179   4.822   6.144  12.315
68114SOL     OW 6180   9.166   3.940   0.942
68114SOL    HW1 6181   9.199   3.941   1.031
68114SOL    HW2 6182   9.240   3.913   0.888
68115SOL     OW 6183   2.564   0.003   7.957
68115SOL    HW1 6184   2.480  14.872   7.913
68115SOL    HW2 6185   2.565   0.094   7.987
68116SOL     OW 6186   9.123  10.098   4.206
68116SOL    HW1 6187   9.065  10.135   4.272
68116SOL    HW2 6188   9.069  10.032   4.162
68117SOL     OW 6189   3.095   8.425   9.481
68117SOL    HW1 6190   3.160   8.477   9.528
68117SOL    HW2 6191   3.088   8.467   9.395
68118SOL     OW 6192   6.181  12.237   9.556
68118SOL    HW1 6193   6.107  12.220   9.497
68118SOL    HW2 6194   6.169  12.174   9.627
68119SOL     OW 6195   7.522  10.206   3.467
68119SOL    HW1 6196   7.483  10.267   3.529
68119SOL    HW2 6197   7.605  10.181   3.508
68120SOL     OW 6198   9.469   9.541   8.313
68120SOL    HW1 6199   9.413   9.467   8.287
68120SOL    HW2 6200   9.518   9.507   8.388
68121SOL     OW 6201   1.263  11.729   9.280
68121SOL    HW1 6202   1.318  11.737   9.358
68121SOL    HW2 6203   1.229  11.817   9.265
68122SOL     OW 6204  12.616   2.269   9.002
68122SOL    HW1 6205  12.632   2.233   8.915
68122SOL    HW2 6206  12.524   2.250   9.019
68123SOL     OW 6207   3.874  10.056  14.622
68123SOL    HW1 6208   3.886  10.146  14.593
68123SOL    HW2 6209   3.874  10.004  14.541
68124SOL     OW 6210   3.412   5.374   4.264
68124SOL    HW1 6211   3.466   5.435   4.314
68124SOL    HW2 6212   3.359   5.429   4.207
68125SOL     OW 6213  14.020   5.987   2.729
68125SOL    HW1 6214  13.950   6.022   2.674
68125SOL    HW2 6215  14.058   5.915   2.678
68126SOL     OW 6216   3.317  12.118   4.608
68126SOL    HW1 6217   3.245  12.059   4.632
68126SOL    HW2 6218   3.273  12.197   4.578
68127SOL     OW 6219  12.814   9.156   7.708
68127SOL    HW1 6220  12.787   9.122   7.794
68127SOL    HW2 6221  12.800   9.250   7.714
68128SOL     OW 6222   1.895   1.455   2.167
68128SOL    HW1 6223   1.832   1.487   2.101
68128SOL    HW2 6224   1.857   1.482   2.251
68129SOL     OW 6225   7.017   1.902   3.493
68129SOL    HW1 6226   6.968   1.839   3.546
68129SOL    HW2 6227   6.949   1.950   3.445
68130SOL     OW 6228   1.341   6.534  11.063
68130SOL    HW1 6229   1.406   6.523  11.132
68130SOL    HW2 6230   1.282   6.603  11.096
68131SOL     OW 6231   1.605  11.542  12.333
68131SOL    HW1 6232   1.525  11.500  12.363
68131SOL    HW2 6233   1.602  11.630  12.369
68132SOL     OW 6234   1.443   5.441  13.775
68132SOL    HW1 6235   1.443   5.438  13.680
68132SOL    HW2 6236   1.534   5.427  13.801
68133SOL     OW 6237   8.045   6.719   8.865
68133SOL    HW1 6238   8.082   6.790   8.813
68133SOL    HW2 6239   7.950   6.727   8.851
68134SOL     OW 6240  11.132   5.191   3.821
68134SOL    HW1 6241  11.126   5.107   3.774
68134SOL    HW2 6242  11.222   5.196   3.851
68135SOL     OW 6243   0.124  14.117   1.476
68135SOL    HW1 6244   0.145  14.210   1.465
68135SOL    HW2 6245   0.187  14.086   1.541
68136SOL     OW 6246  12.469   1.864   1.407
68136SOL    HW1 6247  12.439   1.775   1.390
68136SOL    HW2 6248  12.469   1.871   1.503
68137SOL     OW 6249   2.991  13.960  11.750
68137SOL    HW1 6250   2.988  14.031  11.815
68137SOL    HW2 6251   3.048  13.894  11.789
68138SOL     OW 6252   0.104   1.495   8.731
68138SOL    HW1 6253   0.044   1.421   8.720
68138SOL    HW2 6254   0.054   1.571   8.701
68139SOL     OW 6255   1.495  11.456   9.462
68139SOL    HW1 6256   1.427  11.524   9.469
68139SOL    HW2 6257   1.556  11.490   9.397
68140SOL     OW 6258  12.364  12.955   0.412
68140SOL    HW1 6259  12.375  13.037   0.365
68140SOL    HW2 6260  12.453  12.924   0.428
68141SOL     OW 6261   4.635   2.292   9.653
68141SOL    HW1 6262   4.564   2.353   9.634
68141SOL    HW2 6263   4.709   2.348   9.677
68142SOL     OW 6264  11.516   8.259   1.762
68142SOL    HW1 6265  11.475   8.183   1.803
68142SOL    HW2 6266  11.610   8.246   1.774
68143SOL     OW 6267   3.334  14.066   6.347
68143SOL    HW1 6268   3.356  14.022   6.429
68143SOL    HW2 6269   3.339  14.159   6.368
68144SOL     OW 6270   9.689   3.436   6.399
68144SOL    HW1 6271   9.734   3.381   6.463
68144SOL    HW2 6272   9.744   3.431   6.320
68145SOL     OW 6273   3.977   2.520   6.822
68145SOL    HW1 6274   4.011   2.522   6.733
68145SOL    HW2 6275   3.957   2.427   6.838
68146SOL     OW 6276   4.581   5.356   8.123
68146SOL    HW1 6277   4.506   5.335   8.179
68146SOL    HW2 6278   4.545   5.413   8.055
68147SOL     OW 6279   2.985  11.039   7.722
68147SOL    HW1 6280   3.074  11.071   7.710
68147SOL    HW2 6281   2.987  10.992   7.805
68148SOL     OW 6282   4.585   7.312  10.915
68148SOL    HW1 6283   4.673   7.312  10.876
68148SOL    HW2 6284   4.553   7.401  10.900
68149SOL     OW 6285   9.061   8.471  11.015
68149SOL    HW1 6286   9.137   8.511  11.058
68149SOL    HW2 6287   9.044   8.392  11.067
68150SOL     OW 6288   6.138   1.405   1.244
68150SOL    HW1 6289   6.217   1.399   1.190
68150SOL    HW2 6290   6.109   1.315   1.256
68151SOL     OW 6291  12.855   1.141   1.952
68151SOL    HW1 6292  12.781   1.149   2.012
68151SOL    HW2 6293  12.899   1.226   1.957
68152SOL     OW 6294   0.436   5.032   8.158
68152SOL    HW1 6295   0.498   5.052   8.087
68152SOL    HW2 6296   0.425   5.115   8.204
68153SOL     OW 6297  10.658   2.277   1.276
68153SOL    HW1 6298  10.692   2.281   1.187
68153SOL    HW2 6299  10.591   2.209   1.273
68154SOL     OW 6300   7.011   8.883  12.575
68154SOL    HW1 6301   6.978   8.809  12.626
68154SOL    HW2 6302   7.089   8.913  12.623
68155SOL     OW 6303   1.702   0.844   0.953
68155SOL    HW1 6304   1.614   0.816   0.931
68155SOL    HW2 6305   1.750   0.840   0.871
68156SOL     OW 6306   2.170   5.964   0.892
68156SOL    HW1 6307   2.125   5.956   0.808
68156SOL    HW2 6308   2.148   6.051   0.923
68157SOL     OW 6309   7.691  14.561  13.790
68157SOL    HW1 6310   7.621  14.496  13.792
68157SOL    HW2 6311   7.708  14.576  13.697
68158SOL     OW 6312  11.698  10.831  14.757
68158SOL    HW1 6313  11.602  10.833  14.754
68158SOL    HW2 6314  11.720  10.881  14.835
68159SOL     OW 6315   4.532  10.195   5.659
68159SOL    HW1 6316   4.585  10.270   5.684
68159SOL    HW2 6317   4.589  10.119   5.673
68160SOL     OW 6318   2.045   4.734  11.746
68160SOL    HW1 6319   2.067   4.761  11.657
68160SOL    HW2 6320   1.989   4.804  11.780
68161SOL     OW 6321  12.471   4.525  11.563
68161SOL    HW1 6322  12.523   4.551  11.488
68161SOL    HW2 6323  12.388   4.495  11.525
68162SOL     OW 6324   2.339  11.090   9.019
68162SOL    HW1 6325   2.337  11.182   8.993
68162SOL    HW2 6326   2.392  11.088   9.098
68163SOL     OW 6327   2.367   3.183  13.231
68163SOL    HW1 6328   2.434   3.117  13.248
68163SOL    HW2 6329   2.289   3.151  13.276
68164SOL     OW 6330   7.693   7.150  14.814
68164SOL    HW1 6331   7.717   7.237  14.784
68164SOL    HW2 6332   7.626   7.121  14.752
68165SOL     OW 6333   5.613   7.649  12.478
68165SOL    HW1 6334   5.563   7.660  12.558
68165SOL    HW2 6335   5.549   7.617  12.414
68166SOL     OW 6336   9.924   3.619   4.283
68166SOL    HW1 6337   9.880   3.692   4.327
68166SOL    HW2 6338  10.012   3.652   4.264
68167SOL     OW 6339   5.759  14.568   2.094
68167SOL    HW1 6340   5.828  14.554   2.029
68167SOL    HW2 6341   5.799  14.626   2.159
68168SOL     OW 6342   8.391   6.401  10.355
68168SOL    HW1 6343   8.429   6.365  10.435
68168SOL    HW2 6344   8.408   6.495  10.361
68169SOL     OW 6345   0.533  11.236   8.663
68169SOL    HW1 6346   0.518  11.142   8.671
68169SOL    HW2 6347   0.489  11.273   8.740
68170SOL     OW 6348  12.006   8.343  14.030
68170SOL    HW1 6349  12.077   8.299  13.982
68170SOL    HW2 6350  12.018   8.316  14.121
68171SOL     OW 6351  12.795  13.632  10.074
68171SOL    HW1 6352  12.732  13.605  10.008
68171SOL    HW2 6353  12.877  13.588  10.049
68172SOL     OW 6354   5.866   9.712   3.555
68172SOL    HW1 6355   5.772   9.693   3.553
68172SOL    HW2 6356   5.903   9.644   3.610
68173SOL     OW 6357  13.355  14.499  11.057
68173SOL    HW1 6358  13.263  14.523  11.062
68173SOL    HW2 6359  13.379  14.478  11.148
68174SOL     OW 6360   4.730   7.031   0.073
68174SOL    HW1 6361   4.798   7.069   0.017
68174SOL    HW2 6362   4.740   7.075   0.157
68175SOL     OW 6363   0.940  12.163   2.314
68175SOL    HW1 6364   1.014  12.162   2.254
68175SOL    HW2 6365   0.978  12.181   2.400
68176SOL     OW 6366   4.649   4.000   2.125
68176SOL    HW1 6367   4.636   3.940   2.198
68176SOL    HW2 6368   4.600   4.079   2.149
68177SOL     OW 6369   0.742  13.135   4.937
68177SOL    HW1 6370   0.834  13.127   4.911
68177SOL    HW2 6371   0.717  13.223   4.908
68178SOL     OW 6372   4.169   2.339  10.303
68178SOL    HW1 6373   4.222   2.396  10.248
68178SOL    HW2 6374   4.218   2.258  10.308
68179SOL     OW 6375   1.409   3.778   2.879
68179SOL    HW1 6376   1.321   3.813   2.864
68179SOL    HW2 6377   1.422   3.715   2.808
68180SOL     OW 6378   9.024   4.453  10.792
68180SOL    HW1 6379   9.108   4.413  10.812
68180SOL    HW2 6380   9.009   4.434  10.700
68181SOL     OW 6381  12.689  14.422  14.195
68181SOL    HW1 6382  12.766  14.369  14.175
68181SOL    HW2 6383  12.696  14.497  14.137
68182SOL     OW 6384   5.264   2.487   1.483
68182SOL    HW1 6385   5.302   2.551   1.424
68182SOL    HW2 6386   5.323   2.412   1.479
68183SOL     OW 6387   7.964   2.181   1.261
68183SOL    HW1 6388   8.029   2.250   1.244
68183SOL    HW2 6389   8.016   2.103   1.280
68184SOL     OW 6390   5.057   9.525  14.297
68184SOL    HW1 6391   5.117   9.600  14.302
68184SOL    HW2 6392   5.115   9.449  14.294
68185SOL     OW 6393   4.814   3.011  11.402
68185SOL    HW1 6394   4.895   2.977  11.442
68185SOL    HW2 6395   4.843   3.050  11.320
68186SOL     OW 6396   3.637   0.570  11.710
68186SOL    HW1 6397   3.634   0.549  11.617
68186SOL    HW2 6398   3.688   0.498  11.749
68187SOL     OW 6399   2.575   3.640   8.172
68187SOL    HW1 6400   2.610   3.638   8.261
68187SOL    HW2 6401   2.652   3.636   8.116
68188SOL     OW 6402  12.844  10.580  14.613
68188SOL    HW1 6403  12.834  10.533  14.696
68188SOL    HW2 6404  12.757  10.614  14.594
68189SOL     OW 6405  12.174  10.914  14.416
68189SOL    HW1 6406  12.138  10.829  14.392
68189SOL    HW2 6407  12.105  10.956  14.468
68190SOL     OW 6408  10.011  12.720  11.310
68190SOL    HW1 6409  10.083  12.673  11.267
68190SOL    HW2 6410   9.966  12.652  11.361
68191SOL     OW 6411   2.582  11.712  12.602
68191SOL    HW1 6412   2.624  11.629  12.579
68191SOL    HW2 6413   2.631  11.743  12.678
68192SOL     OW 6414   7.333   8.946   2.973
68192SOL    HW1 6415   7.408   8.975   3.026
68192SOL    HW2 6416   7.312   9.022   2.919
68193SOL     OW 6417  14.440  13.616   8.140
68193SOL    HW1 6418  14.444  13.546   8.205
68193SOL    HW2 6419  14.351  13.650   8.147
68194SOL     OW 6420   7.895   3.137   4.365
68194SOL    HW1 6421   7.801   3.155   4.367
68194SOL    HW2 6422   7.902   3.041   4.372
68195SOL     OW 6423   9.838  13.527  11.433
68195SOL    HW1 6424   9.800  13.451  11.477
68195SOL    HW2 6425   9.831  13.507  11.340
68196SOL     OW 6426   6.934   4.836   7.123
68196SOL    HW1 6427   6.962   4.751   7.155
68196SOL    HW2 6428   7.014   4.888   7.120
68197SOL     OW 6429   1.982   5.101   7.612
68197SOL    HW1 6430   1.996   5.195   7.602
68197SOL    HW2 6431   2.047   5.074   7.678
68198SOL     OW 6432   5.838  11.072   3.513
68198SOL    HW1 6433   5.754  11.117   3.520
68198SOL    HW2 6434   5.828  10.996   3.570
68199SOL     OW 6435   5.940  10.095   3.121
68199SOL    HW1 6436   6.005  10.149   3.166
68199SOL    HW2 6437   5.925  10.021   3.179
68200SOL     OW 6438  14.131  11.926   1.968
68200SOL    HW1 6439  14.077  11.853   1.937
68200SOL    HW2 6440  14.195  11.885   2.027
68201SOL     OW 6441  14.113  13.457   4.728
68201SOL    HW1 6442  14.172  13.492   4.795
68201SOL    HW2 6443  14.060  13.532   4.701
68202SOL     OW 6444   3.026   0.165  13.535
68202SOL    HW1 6445   3.092   0.201  13.476
68202SOL    HW2 6446   2.947   0.158  13.481
68203SOL     OW 6447   1.020  11.558   5.468
68203SOL    HW1 6448   0.965  11.527   5.540
68203SOL    HW2 6449   0.992  11.649   5.455
68204SOL     OW 6450  14.094   0.714  12.825
68204SOL    HW1 6451  14.050   0.791  12.790
68204SOL    HW2 6452  14.027   0.645  12.820
68205SOL     OW 6453   5.921  11.568   3.009
68205SOL    HW1 6454   5.826  11.564   3.012
68205SOL    HW2 6455   5.949  11.556   3.100
68206SOL     OW 6456   0.890   4.631  14.466
68206SOL    HW1 6457   0.812   4.585  14.497
68206SOL    HW2 6458   0.888   4.716  14.509
68207SOL     OW 6459   8.823  12.031  11.592
68207SOL    HW1 6460   8.744  11.995  11.551
68207SOL    HW2 6461   8.894  12.008  11.531
68208SOL     OW 6462  13.648  12.998   4.960
68208SOL    HW1 6463  13.656  12.953   4.876
68208SOL    HW2 6464  13.687  13.084   4.946
68209SOL     OW 6465  10.572   4.867  13.231
68209SOL    HW1 6466  10.624   4.789  13.210
68209SOL    HW2 6467  10.609   4.899  13.313
68210SOL     OW 6468  10.400  10.086   7.729
68210SOL    HW1 6469  10.462  10.105   7.658
68210SOL    HW2 6470  10.396  10.168   7.779
68211SOL     OW 6471   6.772   4.620   3.133
68211SOL    HW1 6472   6.861   4.655   3.127
68211SOL    HW2 6473   6.784   4.527   3.150
68212SOL     OW 6474   0.997  10.508  10.834
68212SOL    HW1 6475   1.091  10.523  10.846
68212SOL    HW2 6476   0.980  10.425  10.879
68213SOL     OW 6477  13.545   1.320   5.668
68213SOL    HW1 6478  13.588   1.286   5.747
68213SOL    HW2 6479  13.557   1.415   5.674
68214SOL     OW 6480  14.810   0.795   3.248
68214SOL    HW1 6481  14.877   0.820   3.312
68214SOL    HW2 6482  14.849   0.721   3.201
68215SOL     OW 6483   5.569   1.051   8.601
68215SOL    HW1 6484   5.605   1.014   8.521
68215SOL    HW2 6485   5.629   1.022   8.670
68216SOL     OW 6486   2.219   5.623  14.021
68216SOL    HW1 6487   2.140   5.583  13.986
68216SOL    HW2 6488   2.289   5.561  14.001
68217SOL     OW 6489   1.959   1.919   3.110
68217SOL    HW1 6490   2.046   1.939   3.075
68217SOL    HW2 6491   1.947   1.826   3.090
68218SOL     OW 6492   4.382  11.513   3.689
68218SOL    HW1 6493   4.391  11.542   3.780
68218SOL    HW2 6494   4.464  11.466   3.671
68219SOL     OW 6495   5.233   4.286  13.529
68219SOL    HW1 6496   5.142   4.259  13.533
68219SOL    HW2 6497   5.236   4.369  13.575
68220SOL     OW 6498  11.568   1.300   5.001
68220SOL    HW1 6499  11.572   1.269   5.091
68220SOL    HW2 6500  11.657   1.290   4.968
68221SOL     OW 6501  13.649   5.456  10.574
68221SOL    HW1 6502  13.720   5.478  10.634
68221SOL    HW2 6503  13.688   5.391  10.514
68222SOL     OW 6504  14.523  12.720   6.137
68222SOL    HW1 6505  14.454  12.769   6.182
68222SOL    HW2 6506  14.565  12.667   6.205
68223SOL     OW 6507   2.185   2.187  11.229
68223SOL    HW1 6508   2.172   2.102  11.188
68223SOL    HW2 6509   2.098   2.216  11.255
68224SOL     OW 6510   7.084   0.357   1.862
68224SOL    HW1 6511   7.034   0.335   1.941
68224SOL    HW2 6512   7.093   0.453   1.866
68225SOL     OW 6513   1.810  12.630   3.199
68225SOL    HW1 6514   1.893  12.591   3.171
68225SOL    HW2 6515   1.769  12.660   3.119
68226SOL     OW 6516   1.062   6.775   1.047
68226SOL    HW1 6517   1.104   6.716   1.110
68226SOL    HW2 6518   0.970   6.777   1.074
68227SOL     OW 6519   5.699   8.207   8.398
68227SOL    HW1 6520   5.704   8.157   8.316
68227SOL    HW2 6521   5.730   8.294   8.374
68228SOL     OW 6522   1.352   8.651   8.426
68228SOL    HW1 6523   1.257   8.644   8.439
68228SOL    HW2 6524   1.380   8.561   8.411
68229SOL     OW 6525   6.107   8.082  14.550
68229SOL    HW1 6526   6.065   8.163  14.523
68229SOL    HW2 6527   6.070   8.063  14.635
68230SOL     OW 6528  11.308   3.698  13.553
68230SOL    HW1 6529  11.219   3.704  13.517
68230SOL    HW2 6530  11.309   3.760  13.625
68231SOL     OW 6531   5.949   7.405   6.241
68231SOL    HW1 6532   5.941   7.499   6.257
68231SOL    HW2 6533   6.040   7.394   6.213
68232SOL     OW 6534   5.225   7.185   9.622
68232SOL    HW1 6535   5.141   7.151   9.591
68232SOL    HW2 6536   5.247   7.129   9.696
68233SOL     OW 6537   1.950   6.292   1.931
68233SOL    HW1 6538   1.864   6.335   1.931
68233SOL    HW2 6539   1.974   6.289   2.024
68234SOL     OW 6540   7.514   8.594   1.071
68234SOL    HW1 6541   7.431   8.555   1.099
68234SOL    HW2 6542   7.574   8.520   1.063
68235SOL     OW 6543  12.750   8.952  11.826
68235SOL    HW1 6544  12.827   8.914  11.868
68235SOL    HW2 6545  12.766   9.047  11.828
68236SOL     OW 6546   0.935  13.546   2.854
68236SOL    HW1 6547   1.012  13.490   2.841
68236SOL    HW2 6548   0.939  13.609   2.782
68237SOL     OW 6549   5.961   0.281  10.036
68237SOL    HW1 6550   5.886   0.248   9.987
68237SOL    HW2 6551   5.931   0.365  10.071
68238SOL     OW 6552   3.150  10.713   1.440
68238SOL    HW1 6553   3.218  10.772   1.408
68238SOL    HW2 6554   3.141  10.735   1.533
68239SOL     OW 6555   0.337   5.698   3.511
68239SOL    HW1 6556   0.431   5.680   3.518
68239SOL    HW2 6557   0.307   5.639   3.442
68240SOL     OW 6558   0.964  10.207   4.138
68240SOL    HW1 6559   1.051  10.169   4.150
68240SOL    HW2 6560   0.945  10.250   4.222
68241SOL     OW 6561  11.536  14.436   9.663
68241SOL    HW1 6562  11.586  14.417   9.584
68241SOL    HW2 6563  11.452  14.392   9.649
68242SOL     OW 6564   2.520   0.343   9.912
68242SOL    HW1 6565   2.544   0.353   9.819
68242SOL    HW2 6566   2.594   0.381   9.959
68243SOL     OW 6567  11.782   1.132  11.552
68243SOL    HW1 6568  11.749   1.096  11.635
68243SOL    HW2 6569  11.877   1.130  11.561
68244SOL     OW 6570   2.066   8.615   8.792
68244SOL    HW1 6571   2.026   8.648   8.872
68244SOL    HW2 6572   2.111   8.692   8.754
68245SOL     OW 6573   5.016   3.278  12.916
68245SOL    HW1 6574   5.002   3.183  12.907
68245SOL    HW2 6575   5.103   3.293  12.879
68246SOL     OW 6576  10.035   6.868  12.489
68246SOL    HW1 6577   9.941   6.881  12.476
68246SOL    HW2 6578  10.055   6.918  12.568
68247SOL     OW 6579   3.685   0.842   6.482
68247SOL    HW1 6580   3.602   0.796   6.477
68247SOL    HW2 6581   3.673   0.918   6.425
68248SOL     OW 6582   5.969  14.583   5.985
68248SOL    HW1 6583   5.975  14.488   5.979
68248SOL    HW2 6584   5.878  14.601   6.007
68249SOL     OW 6585  11.890  13.376   2.623
68249SOL    HW1 6586  11.829  13.442   2.589
68249SOL    HW2 6587  11.976  13.406   2.594
68250SOL     OW 6588   3.988   9.999   1.030
68250SOL    HW1 6589   4.044  10.061   1.076
68250SOL    HW2 6590   3.979  10.035   0.942
68251SOL     OW 6591   1.839   1.438  14.570
68251SOL    HW1 6592   1.761   1.433  14.625
68251SOL    HW2 6593   1.909   1.400  14.624
68252SOL     OW 6594   3.620   9.681   8.361
68252SOL    HW1 6595   3.628   9.612   8.427
68252SOL    HW2 6596   3.640   9.637   8.278
68253SOL     OW 6597   3.802   1.474  11.279
68253SOL    HW1 6598   3.832   1.526  11.204
68253SOL    HW2 6599   3.709   1.493  11.286
68254SOL     OW 6600   9.686   4.600   2.530
68254SOL    HW1 6601   9.695   4.545   2.608
68254SOL    HW2 6602   9.651   4.683   2.563
68255SOL     OW 6603   5.042   4.747   8.229
68255SOL    HW1 6604   5.136   4.760   8.213
68255SOL    HW2 6605   5.006   4.835   8.230
68256SOL     OW 6606   6.346   1.217   5.404
68256SOL    HW1 6607   6.323   1.285   5.467
68256SOL    HW2 6608   6.435   1.240   5.376
68257SOL     OW 6609  14.104   8.603   5.361
68257SOL    HW1 6610  14.138   8.533   5.307
68257SOL    HW2 6611  14.057   8.660   5.300
68258SOL     OW 6612  11.735  11.207   0.443
68258SOL    HW1 6613  11.790  11.129   0.446
68258SOL    HW2 6614  11.794  11.279   0.463
68259SOL     OW 6615   2.758   2.789   1.861
68259SOL    HW1 6616   2.734   2.745   1.943
68259SOL    HW2 6617   2.689   2.854   1.847
68260SOL     OW 6618   0.007   6.677   3.190
68260SOL    HW1 6619   0.049   6.655   3.273
68260SOL    HW2 6620   0.018   6.599   3.136
68261SOL     OW 6621  11.286  11.278  13.603
68261SOL    HW1 6622  11.350  11.211  13.628
68261SOL    HW2 6623  11.312  11.303  13.514
68262SOL     OW 6624   6.483   1.022  10.880
68262SOL    HW1 6625   6.529   1.099  10.912
68262SOL    HW2 6626   6.394   1.031  10.913
68263SOL     OW 6627  13.144   1.840   6.892
68263SOL    HW1 6628  13.214   1.824   6.954
68263SOL    HW2 6629  13.178   1.808   6.808
68264SOL     OW 6630   1.424   6.948   6.311
68264SOL    HW1 6631   1.385   6.906   6.234
68264SOL    HW2 6632   1.384   6.903   6.386
68265SOL     OW 6633   1.330  10.567   4.560
68265SOL    HW1 6634   1.405  10.626   4.571
68265SOL    HW2 6635   1.262  10.624   4.524
68266SOL     OW 6636   8.971   9.953  11.714
68266SOL    HW1 6637   8.992  10.037  11.755
68266SOL    HW2 6638   8.939   9.976  11.627
68267SOL     OW 6639   9.071   4.406   2.507
68267SOL    HW1 6640   9.066   4.480   2.566
68267SOL    HW2 6641   9.119   4.439   2.430
68268SOL     OW 6642  13.279   2.391   1.054
68268SOL    HW1 6643  13.229   2.309   1.045
68268SOL    HW2 6644  13.213   2.457   1.072
68269SOL     OW 6645  11.274  10.535   6.165
68269SOL    HW1 6646  11.208  10.533   6.235
68269SOL    HW2 6647  11.224  10.527   6.084
68270SOL     OW 6648   8.943  13.560   6.921
68270SOL    HW1 6649   8.884  13.486   6.935
68270SOL    HW2 6650   8.932  13.614   6.999
68271SOL     OW 6651   8.225   0.899   7.014
68271SOL    HW1 6652   8.215   0.815   6.969
68271SOL    HW2 6653   8.289   0.881   7.083
68272SOL     OW 6654   4.314   5.534   6.786
68272SOL    HW1 6655   4.222   5.554   6.769
68272SOL    HW2 6656   4.337   5.466   6.723
68273SOL     OW 6657  11.736   4.820  10.421
68273SOL    HW1 6658  11.714   4.727  10.416
68273SOL    HW2 6659  11.779   4.839  10.337
68274SOL     OW 6660  10.555   2.920   7.247
68274SOL    HW1 6661  10.640   2.879   7.232
68274SOL    HW2 6662  10.576   3.008   7.279
68275SOL     OW 6663   4.755  12.445   5.603
68275SOL    HW1 6664   4.756  12.350   5.611
68275SOL    HW2 6665   4.693  12.474   5.669
68276SOL     OW 6666   2.365   7.275   5.992
68276SOL    HW1 6667   2.332   7.204   6.047
68276SOL    HW2 6668   2.320   7.263   5.908
68277SOL     OW 6669  13.042   3.636   6.703
68277SOL    HW1 6670  13.017   3.612   6.792
68277SOL    HW2 6671  13.067   3.553   6.663
68278SOL     OW 6672   7.282   5.722   9.796
68278SOL    HW1 6673   7.273   5.815   9.776
68278SOL    HW2 6674   7.227   5.709   9.874
68279SOL     OW 6675  11.574  10.393  11.224
68279SOL    HW1 6676  11.501  10.424  11.170
68279SOL    HW2 6677  11.591  10.464  11.285
68280SOL     OW 6678  13.727   2.688   5.352
68280SOL    HW1 6679  13.694   2.745   5.422
68280SOL    HW2 6680  13.735   2.602   5.393
68281SOL     OW 6681   3.474   4.853   2.564
68281SOL    HW1 6682   3.403   4.798   2.598
68281SOL    HW2 6683   3.534   4.791   2.522
68282SOL     OW 6684  12.957   5.187   7.587
68282SOL    HW1 6685  13.034   5.244   7.582
68282SOL    HW2 6686  12.883   5.247   7.588
68283SOL     OW 6687  14.274   8.276   1.071
68283SOL    HW1 6688  14.316   8.357   1.101
68283SOL    HW2 6689  14.187   8.304   1.043
68284SOL     OW 6690   1.728   6.750   0.054
68284SOL    HW1 6691   1.680   6.833   0.054
68284SOL    HW2 6692   1.666   6.687   0.017
68285SOL     OW 6693   7.147   2.203  12.493
68285SOL    HW1 6694   7.107   2.211  12.406
68285SOL    HW2 6695   7.241   2.209  12.476
68286SOL     OW 6696   0.632   1.239   9.292
68286SOL    HW1 6697   0.610   1.330   9.274
68286SOL    HW2 6698   0.608   1.226   9.384
68287SOL     OW 6699  11.060   7.377   6.420
68287SOL    HW1 6700  11.034   7.469   6.422
68287SOL    HW2 6701  11.026   7.344   6.337
68288SOL     OW 6702  10.013   4.730  11.625
68288SOL    HW1 6703   9.958   4.728  11.703
68288SOL    HW2 6704  10.099   4.702  11.655
68289SOL     OW 6705   7.627   5.675   6.638
68289SOL    HW1 6706   7.697   5.613   6.659
68289SOL    HW2 6707   7.549   5.635   6.676
68290SOL     OW 6708   0.983   6.101   7.051
68290SOL    HW1 6709   1.013   6.146   6.973
68290SOL    HW2 6710   0.905   6.054   7.023
68291SOL     OW 6711   8.663   4.944   4.919
68291SOL    HW1 6712   8.702   5.022   4.958
68291SOL    HW2 6713   8.702   4.871   4.967
68292SOL     OW 6714   3.211  10.300   3.962
68292SOL    HW1 6715   3.304  10.298   3.940
68292SOL    HW2 6716   3.203  10.241   4.037
68293SOL     OW 6717  10.897   5.653   4.256
68293SOL    HW1 6718  10.943   5.581   4.213
68293SOL    HW2 6719  10.946   5.668   4.337
68294SOL     OW 6720   2.863   3.562   4.634
68294SOL    HW1 6721   2.921   3.632   4.663
68294SOL    HW2 6722   2.921   3.489   4.614
68295SOL     OW 6723   5.475  14.217  12.001
68295SOL    HW1 6724   5.503  14.284  12.063
68295SOL    HW2 6725   5.555  14.166  11.983
68296SOL     OW 6726   7.134  14.298  13.041
68296SOL    HW1 6727   7.090  14.383  13.048
68296SOL    HW2 6728   7.062  14.234  13.042
68297SOL     OW 6729   6.877  10.418   6.418
68297SOL    HW1 6730   6.917  10.331   6.423
68297SOL    HW2 6731   6.911  10.464   6.495
68298SOL     OW 6732  12.066  10.165   7.086
68298SOL    HW1 6733  12.123  10.138   7.014
68298SOL    HW2 6734  12.125  10.180   7.159
68299SOL     OW 6735  12.788   3.434   0.479
68299SOL    HW1 6736  12.803   3.428   0.384
68299SOL    HW2 6737  12.707   3.485   0.487
68300SOL     OW 6738   0.477  10.161   9.887
68300SOL    HW1 6739   0.425  10.127   9.960
68300SOL    HW2 6740   0.417  10.161   9.813
68301SOL     OW 6741   1.007   3.379   1.096
68301SOL    HW1 6742   1.013   3.445   1.027
68301SOL    HW2 6743   1.014   3.429   1.178
68302SOL     OW 6744   2.197  13.315   2.291
68302SOL    HW1 6745   2.131  13.261   2.335
68302SOL    HW2 6746   2.164  13.326   2.202
68303SOL     OW 6747   1.781   8.197   1.633
68303SOL    HW1 6748   1.746   8.286   1.634
68303SOL    HW2 6749   1.761   8.163   1.720
68304SOL     OW 6750   8.203  14.800   7.909
68304SOL    HW1 6751   8.131  14.863   7.904
68304SOL    HW2 6752   8.239  14.812   7.997
68305SOL     OW 6753   5.133   3.419   0.962
68305SOL    HW1 6754   5.171   3.352   0.905
68305SOL    HW2 6755   5.208   3.461   1.004
68306SOL     OW 6756   3.064  10.127  10.260
68306SOL    HW1 6757   3.125  10.201  10.252
68306SOL    HW2 6758   2.993  10.148  10.200
68307SOL     OW 6759   0.955   4.326  13.539
68307SOL    HW1 6760   1.044   4.339  13.505
68307SOL    HW2 6761   0.901   4.389  13.490
68308SOL     OW 6762  13.644  11.046  13.451
68308SOL    HW1 6763  13.595  11.032  13.370
68308SOL    HW2 6764  13.595  11.116  13.496
68309SOL     OW 6765  13.377  10.891   3.662
68309SOL    HW1 6766  13.368  10.958   3.730
68309SOL    HW2 6767  13.305  10.908   3.602
68310SOL     OW 6768  11.193   2.017   6.018
68310SOL    HW1 6769  11.103   2.039   5.995
68310SOL    HW2 6770  11.213   2.073   6.093
68311SOL     OW 6771   1.982   6.360   3.767
68311SOL    HW1 6772   1.979   6.454   3.750
68311SOL    HW2 6773   1.960   6.351   3.859
68312SOL     OW 6774   2.594   3.263   3.774
68312SOL    HW1 6775   2.549   3.180   3.759
68312SOL    HW2 6776   2.652   3.274   3.699
68313SOL     OW 6777   4.604   4.114   3.597
68313SOL    HW1 6778   4.512   4.091   3.607
68313SOL    HW2 6779   4.608   4.208   3.616
68314SOL     OW 6780   4.480   5.604   0.218
68314SOL    HW1 6781   4.550   5.568   0.272
68314SOL    HW2 6782   4.428   5.657   0.278
68315SOL     OW 6783   1.244   1.017   2.160
68315SOL    HW1 6784   1.167   1.066   2.130
68315SOL    HW2 6785   1.209   0.956   2.225
68316SOL     OW 6786   5.862   6.724   7.634
68316SOL    HW1 6787   5.863   6.777   7.714
68316SOL    HW2 6788   5.829   6.639   7.662
68317SOL     OW 6789   9.265   5.216  14.514
68317SOL    HW1 6790   9.252   5.196  14.421
68317SOL    HW2 6791   9.351   5.182  14.534
68318SOL     OW 6792   4.204   0.701  12.129
68318SOL    HW1 6793   4.178   0.617  12.167
68318SOL    HW2 6794   4.277   0.731  12.183
68319SOL     OW 6795   5.064   9.941   9.411
68319SOL    HW1 6796   5.019   9.941   9.496
68319SOL    HW2 6797   5.146   9.894   9.427
68320SOL     OW 6798  14.640   7.109  13.161
68320SOL    HW1 6799  14.656   7.050  13.088
68320SOL    HW2 6800  14.722   7.157  13.173
68321SOL     OW 6801  11.995   6.011   6.928
68321SOL    HW1 6802  11.959   6.097   6.951
68321SOL    HW2 6803  11.963   5.952   6.996
68322SOL     OW 6804   5.521   0.726  13.264
68322SOL    HW1 6805   5.585   0.672  13.310
68322SOL    HW2 6806   5.440   0.716  13.314
68323SOL     OW 6807   9.492   5.580   8.374
68323SOL    HW1 6808   9.572   5.602   8.422
68323SOL    HW2 6809   9.455   5.665   8.350
68324SOL     OW 6810   2.042  11.962   7.649
68324SOL    HW1 6811   2.023  12.015   7.571
68324SOL    HW2 6812   2.127  11.995   7.680
68325SOL     OW 6813   9.434   3.667   7.279
68325SOL    HW1 6814   9.416   3.721   7.356
68325SOL    HW2 6815   9.517   3.702   7.245
68326SOL     OW 6816   5.118   3.010   8.062
68326SOL    HW1 6817   5.079   3.083   8.110
68326SOL    HW2 6818   5.043   2.964   8.023
68327SOL     OW 6819   4.261   5.153  10.098
68327SOL    HW1 6820   4.332   5.191  10.047
68327SOL    HW2 6821   4.301   5.130  10.182
68328SOL     OW 6822  10.910   8.194   2.081
68328SOL    HW1 6823  10.953   8.247   2.148
68328SOL    HW2 6824  10.952   8.109   2.086
68329SOL     OW 6825  13.170   0.121   3.433
68329SOL    HW1 6826  13.237   0.140   3.367
68329SOL    HW2 6827  13.094   0.094   3.381
68330SOL     OW 6828  10.142   1.027  14.520
68330SOL    HW1 6829  10.099   1.048  14.437
68330SOL    HW2 6830  10.121   0.935  14.536
68331SOL     OW 6831  12.628  11.231   9.132
68331SOL    HW1 6832  12.539  11.204   9.109
68331SOL    HW2 6833  12.683  11.158   9.103
68332SOL     OW 6834   3.594   0.337  12.549
68332SOL    HW1 6835   3.534   0.317  12.621
68332SOL    HW2 6836   3.538   0.376  12.482
68333SOL     OW 6837  14.742   7.425  12.332
68333SOL    HW1 6838  14.760   7.494  12.396
68333SOL    HW2 6839  14.814   7.363  12.342
68334SOL     OW 6840   0.162   8.872  10.924
68334SOL    HW1 6841   0.162   8.967  10.910
68334SOL    HW2 6842   0.230   8.839  10.865
68335SOL     OW 6843   9.330   1.206   8.004
68335SOL    HW1 6844   9.278   1.126   7.998
68335SOL    HW2 6845   9.382   1.207   7.924
68336SOL     OW 6846   1.025  11.097   2.880
68336SOL    HW1 6847   1.045  11.138   2.963
68336SOL    HW2 6848   1.093  11.030   2.869
68337SOL     OW 6849  12.094   7.899  10.140
68337SOL    HW1 6850  12.180   7.939  10.150
68337SOL    HW2 6851  12.108   7.822  10.085
68338SOL     OW 6852   0.865   7.259   2.555
68338SOL    HW1 6853   0.924   7.332   2.536
68338SOL    HW2 6854   0.851   7.263   2.649
68339SOL     OW 6855   9.099  11.428   3.023
68339SOL    HW1 6856   9.131  11.359   2.965
68339SOL    HW2 6857   9.178  11.472   3.053
68340SOL     OW 6858  10.568  11.905   6.365
68340SOL    HW1 6859  10.647  11.915   6.417
68340SOL    HW2 6860  10.599  11.901   6.275
68341SOL     OW 6861   9.012  11.902   6.975
68341SOL    HW1 6862   9.011  11.858   7.060
68341SOL    HW2 6863   8.925  11.941   6.967
68342SOL     OW 6864  14.463   4.260  11.638
68342SOL    HW1 6865  14.512   4.286  11.716
68342SOL    HW2 6866  14.416   4.338  11.611
68343SOL     OW 6867   4.595   0.344   5.737
68343SOL    HW1 6868   4.580   0.335   5.831
68343SOL    HW2 6869   4.602   0.254   5.705
68344SOL     OW 6870   3.070   6.662   2.119
68344SOL    HW1 6871   3.157   6.661   2.080
68344SOL    HW2 6872   3.086   6.653   2.213
68345SOL     OW 6873   6.481   4.985  13.275
68345SOL    HW1 6874   6.409   5.034  13.235
68345SOL    HW2 6875   6.559   5.035  13.253
68346SOL     OW 6876   3.025  11.048  12.271
68346SOL    HW1 6877   3.041  11.107  12.197
68346SOL    HW2 6878   2.936  11.070  12.300
68347SOL     OW 6879  12.842   6.739  14.769
68347SOL    HW1 6880  12.926   6.775  14.795
68347SOL    HW2 6881  12.813   6.686  14.843
68348SOL     OW 6882   5.153   5.402  14.141
68348SOL    HW1 6883   5.076   5.384  14.086
68348SOL    HW2 6884   5.227   5.392  14.082
68349SOL     OW 6885  14.842  10.265  11.079
68349SOL    HW1 6886  14.748  10.281  11.089
68349SOL    HW2 6887  14.864  10.206  11.151
68350SOL     OW 6888  11.652  11.446   3.606
68350SOL    HW1 6889  11.564  11.483   3.591
68350SOL    HW2 6890  11.684  11.494   3.682
68351SOL     OW 6891   0.180   6.404   6.817
68351SOL    HW1 6892   0.131   6.464   6.761
68351SOL    HW2 6893   0.173   6.319   6.774
68352SOL     OW 6894   9.511   5.498   2.257
68352SOL    HW1 6895   9.506   5.427   2.193
68352SOL    HW2 6896   9.557   5.568   2.211
68353SOL     OW 6897   9.866   8.870   7.908
68353SOL    HW1 6898   9.951   8.826   7.901
68353SOL    HW2 6899   9.832   8.872   7.819
68354SOL     OW 6900  12.789   2.746   0.753
68354SOL    HW1 6901  12.767   2.659   0.721
68354SOL    HW2 6902  12.884   2.744   0.766
68355SOL     OW 6903   0.116  12.817   6.496
68355SOL    HW1 6904   0.107  12.763   6.417
68355SOL    HW2 6905   0.143  12.755   6.564
68356SOL     OW 6906   2.108  11.935   9.977
68356SOL    HW1 6907   2.199  11.938  10.008
68356SOL    HW2 6908   2.064  11.875  10.038
68357SOL     OW 6909  10.513   2.064   0.299
68357SOL    HW1 6910  10.571   2.031   0.231
68357SOL    HW2 6911  10.544   2.153   0.316
68358SOL     OW 6912  12.892  11.050  11.332
68358SOL    HW1 6913  12.830  10.978  11.323
68358SOL    HW2 6914  12.852  11.123  11.284
68359SOL     OW 6915  13.706   2.136   5.375
68359SOL    HW1 6916  13.629   2.121   5.430
68359SOL    HW2 6917  13.688   2.088   5.294
68360SOL     OW 6918   5.631   8.644  11.043
68360SOL    HW1 6919   5.574   8.569  11.062
68360SOL    HW2 6920   5.598   8.679  10.961
68361SOL     OW 6921   1.589  12.322  12.335
68361SOL    HW1 6922   1.604  12.308  12.241
68361SOL    HW2 6923   1.677  12.333  12.371
68362SOL     OW 6924   3.810  14.267  10.423
68362SOL    HW1 6925   3.719  14.259  10.396
68362SOL    HW2 6926   3.827  14.362  10.423
68363SOL     OW 6927  10.797  11.963   0.751
68363SOL    HW1 6928  10.844  11.974   0.668
68363SOL    HW2 6929  10.741  11.886   0.738
68364SOL     OW 6930  14.277   9.739   9.623
68364SOL    HW1 6931  14.265   9.768   9.533
68364SOL    HW2 6932  14.268   9.643   9.619
68365SOL     OW 6933   5.513  11.519   2.362
68365SOL    HW1 6934   5.513  11.444   2.302
68365SOL    HW2 6935   5.436  11.570   2.337
68366SOL     OW 6936   1.918   5.426  13.141
68366SOL    HW1 6937   1.967   5.413  13.059
68366SOL    HW2 6938   1.886   5.338  13.162
68367SOL     OW 6939  14.878  10.365  12.668
68367SOL    HW1 6940   0.072  10.319  12.707
68367SOL    HW2 6941  14.877  10.336  12.576
68368SOL     OW 6942   2.650   2.397   9.569
68368SOL    HW1 6943   2.718   2.451   9.530
68368SOL    HW2 6944   2.582   2.459   9.597
68369SOL     OW 6945   8.428  13.875  12.901
68369SOL    HW1 6946   8.365  13.821  12.949
68369SOL    HW2 6947   8.514  13.840  12.927
68370SOL     OW 6948   8.230   5.788   5.014
68370SOL    HW1 6949   8.287   5.714   4.991
68370SOL    HW2 6950   8.229   5.789   5.109
68371SOL     OW 6951  13.987   2.993   6.755
68371SOL    HW1 6952  14.022   3.014   6.841
68371SOL    HW2 6953  14.061   2.956   6.706
68372SOL     OW 6954   2.635   4.867  13.621
68372SOL    HW1 6955   2.620   4.885  13.714
68372SOL    HW2 6956   2.554   4.827  13.590
68373SOL     OW 6957   5.922  10.847   7.350
68373SOL    HW1 6958   5.891  10.775   7.295
68373SOL    HW2 6959   5.999  10.812   7.395
68374SOL     OW 6960   4.341   9.875  12.371
68374SOL    HW1 6961   4.416   9.876  12.431
68374SOL    HW2 6962   4.293   9.954  12.392
68375SOL     OW 6963   2.224   4.775  13.881
68375SOL    HW1 6964   2.172   4.855  13.886
68375SOL    HW2 6965   2.213   4.735  13.968
68376SOL     OW 6966   6.714   4.337   0.048
68376SOL    HW1 6967   6.697   4.266  14.866
68376SOL    HW2 6968   6.690   4.416  14.880
68377SOL     OW 6969   4.251   7.721   5.687
68377SOL    HW1 6970   4.276   7.727   5.595
68377SOL    HW2 6971   4.205   7.804   5.705
68378SOL     OW 6972   6.359   7.047   5.236
68378SOL    HW1 6973   6.380   7.122   5.292
68378SOL    HW2 6974   6.400   6.972   5.280
68379SOL     OW 6975  13.188   1.910   1.321
68379SOL    HW1 6976  13.135   1.941   1.248
68379SOL    HW2 6977  13.268   1.962   1.317
68380SOL     OW 6978   3.311   0.928   3.364
68380SOL    HW1 6979   3.296   0.972   3.447
68380SOL    HW2 6980   3.267   0.843   3.374
68381SOL     OW 6981  13.947   2.837  12.340
68381SOL    HW1 6982  13.945   2.793  12.425
68381SOL    HW2 6983  14.033   2.879  12.337
68382SOL     OW 6984   8.742   1.670  10.806
68382SOL    HW1 6985   8.701   1.603  10.860
68382SOL    HW2 6986   8.833   1.644  10.799
68383SOL     OW 6987   7.324  11.806   4.958
68383SOL    HW1 6988   7.360  11.795   5.046
68383SOL    HW2 6989   7.351  11.894   4.932
68384SOL     OW 6990   4.615   2.523  12.093
68384SOL    HW1 6991   4.590   2.608  12.128
68384SOL    HW2 6992   4.574   2.519  12.007
68385SOL     OW 6993   6.215  14.177  10.290
68385SOL    HW1 6994   6.245  14.182  10.199
68385SOL    HW2 6995   6.256  14.097  10.324
68386SOL     OW 6996   6.288   1.763   2.772
68386SOL    HW1 6997   6.382   1.750   2.769
68386SOL    HW2 6998   6.275   1.832   2.837
68387SOL     OW 6999   7.940   0.331   4.392
68387SOL    HW1 7000   7.908   0.252   4.348
68387SOL    HW2 7001   7.888   0.337   4.472
68388SOL     OW 7002   9.789   8.439   3.119
68388SOL    HW1 7003   9.781   8.532   3.142
68388SOL    HW2 7004   9.699   8.409   3.110
68389SOL     OW 7005   5.722  14.144   1.542
68389SOL    HW1 7006   5.816  14.160   1.532
68389SOL    HW2 7007   5.693  14.209   1.607
68390SOL     OW 7008   8.296  13.997   4.625
68390SOL    HW1 7009   8.233  14.066   4.606
68390SOL    HW2 7010   8.376  14.043   4.651
68391SOL     OW 7011   2.012  10.586   5.823
68391SOL    HW1 7012   1.996  10.645   5.749
68391SOL    HW2 7013   1.988  10.499   5.789
68392SOL     OW 7014  11.857   6.533   0.955
68392SOL    HW1 7015  11.790   6.466   0.941
68392SOL    HW2 7016  11.851   6.554   1.049
68393SOL     OW 7017   0.626   0.797   9.426
68393SOL    HW1 7018   0.697   0.751   9.382
68393SOL    HW2 7019   0.668   0.843   9.499
68394SOL     OW 7020   3.454   5.157   5.768
68394SOL    HW1 7021   3.549   5.148   5.755
68394SOL    HW2 7022   3.439   5.251   5.767
68395SOL     OW 7023   6.682   5.675   1.372
68395SOL    HW1 7024   6.674   5.758   1.419
68395SOL    HW2 7025   6.592   5.651   1.350
68396SOL     OW 7026  14.644  10.866  14.443
68396SOL    HW1 7027  14.667  10.774  14.459
68396SOL    HW2 7028  14.677  10.884  14.355
68397SOL     OW 7029   6.833  13.739   7.931
68397SOL    HW1 7030   6.775  13.724   8.005
68397SOL    HW2 7031   6.821  13.831   7.908
68398SOL     OW 7032   0.539  14.596   7.023
68398SOL    HW1 7033   0.450  14.593   6.988
68398SOL    HW2 7034   0.572  14.506   7.014
68399SOL     OW 7035   4.219   3.679   9.547
68399SOL    HW1 7036   4.223   3.603   9.489
68399SOL    HW2 7037   4.263   3.749   9.498
68400SOL     OW 7038  12.421  11.722  13.483
68400SOL    HW1 7039  12.493  11.695  13.540
68400SOL    HW2 7040  12.366  11.778  13.537
68401SOL     OW 7041   6.429  12.111   5.399
68401SOL    HW1 7042   6.419  12.016   5.391
68401SOL    HW2 7043   6.510  12.123   5.448
68402SOL     OW 7044  10.553  10.186   4.994
68402SOL    HW1 7045  10.543  10.251   4.924
68402SOL    HW2 7046  10.468  10.185   5.038
68403SOL     OW 7047   0.304   3.142   5.613
68403SOL    HW1 7048   0.227   3.132   5.558
68403SOL    HW2 7049   0.276   3.201   5.684
68404SOL     OW 7050   3.186   4.601  12.760
68404SOL    HW1 7051   3.193   4.507  12.779
68404SOL    HW2 7052   3.258   4.640  12.809
68405SOL     OW 7053   0.965  10.420   5.924
68405SOL    HW1 7054   0.929  10.374   6.000
68405SOL    HW2 7055   0.901  10.404   5.854
68406SOL     OW 7056  13.689   8.717   5.725
68406SOL    HW1 7057  13.749   8.674   5.785
68406SOL    HW2 7058  13.687   8.661   5.647
68407SOL     OW 7059  11.263   9.900   9.458
68407SOL    HW1 7060  11.306   9.816   9.444
68407SOL    HW2 7061  11.294   9.955   9.387
68408SOL     OW 7062  10.468  11.643   9.287
68408SOL    HW1 7063  10.505  11.650   9.376
68408SOL    HW2 7064  10.392  11.701   9.289
68409SOL     OW 7065   1.181   3.839  12.158
68409SOL    HW1 7066   1.104   3.895  12.146
68409SOL    HW2 7067   1.168   3.768  12.095
68410SOL     OW 7068   2.544   3.539  12.935
68410SOL    HW1 7069   2.573   3.627  12.911
68410SOL    HW2 7070   2.611   3.481  12.899
68411SOL     OW 7071   3.734  10.360   0.059
68411SOL    HW1 7072   3.698  10.295  14.879
68411SOL    HW2 7073   3.731  10.319   0.146
68412SOL     OW 7074   9.896   6.580   7.536
68412SOL    HW1 7075   9.983   6.566   7.573
68412SOL    HW2 7076   9.879   6.501   7.485
68413SOL     OW 7077  12.078  13.834   0.478
68413SOL    HW1 7078  12.087  13.748   0.520
68413SOL    HW2 7079  12.166  13.871   0.480
68414SOL     OW 7080  11.008  12.127   5.170
68414SOL    HW1 7081  11.054  12.054   5.128
68414SOL    HW2 7082  10.975  12.091   5.252
68415SOL     OW 7083  11.968   2.153   8.683
68415SOL    HW1 7084  11.888   2.204   8.671
68415SOL    HW2 7085  12.021   2.171   8.606
68416SOL     OW 7086   9.458   8.907  10.106
68416SOL    HW1 7087   9.539   8.883  10.061
68416SOL    HW2 7088   9.418   8.823  10.130
68417SOL     OW 7089   6.213   9.825   4.945
68417SOL    HW1 7090   6.296   9.786   4.972
68417SOL    HW2 7091   6.158   9.751   4.919
68418SOL     OW 7092   7.758   9.996   9.664
68418SOL    HW1 7093   7.720  10.082   9.681
68418SOL    HW2 7094   7.705   9.936   9.716
68419SOL     OW 7095  10.669   5.726   9.156
68419SOL    HW1 7096  10.759   5.729   9.188
68419SOL    HW2 7097  10.620   5.781   9.218
68420SOL     OW 7098   9.720   3.738   6.787
68420SOL    HW1 7099   9.725   3.748   6.692
68420SOL    HW2 7100   9.664   3.662   6.800
68421SOL     OW 7101   1.054  11.935   1.299
68421SOL    HW1 7102   1.036  12.013   1.353
68421SOL    HW2 7103   0.999  11.867   1.337
68422SOL     OW 7104   6.517   0.315   7.419
68422SOL    HW1 7105   6.598   0.289   7.376
68422SOL    HW2 7106   6.543   0.333   7.510
68423SOL     OW 7107   7.069   4.578   2.962
68423SOL    HW1 7108   7.079   4.669   2.934
68423SOL    HW2 7109   7.138   4.565   3.026
68424SOL     OW 7110   1.249   9.112  14.186
68424SOL    HW1 7111   1.307   9.175  14.229
68424SOL    HW2 7112   1.187   9.167  14.138
68425SOL     OW 7113   9.280  14.311   9.904
68425SOL    HW1 7114   9.217  14.268   9.845
68425SOL    HW2 7115   9.266  14.269   9.988
68426SOL     OW 7116  11.810   6.576   9.812
68426SOL    HW1 7117  11.742   6.593   9.748
68426SOL    HW2 7118  11.801   6.646   9.877
68427SOL     OW 7119  13.275  10.669   5.407
68427SOL    HW1 7120  13.215  10.629   5.343
68427SOL    HW2 7121  13.300  10.753   5.368
68428SOL     OW 7122  13.362   3.415   1.018
68428SOL    HW1 7123  13.450   3.453   1.019
68428SOL    HW2 7124  13.339   3.409   0.925
68429SOL     OW 7125   8.038  12.243   7.267
68429SOL    HW1 7126   8.026  12.154   7.299
68429SOL    HW2 7127   7.949  12.273   7.247
68430SOL     OW 7128   3.597  10.669  13.067
68430SOL    HW1 7129   3.657  10.599  13.043
68430SOL    HW2 7130   3.523  10.659  13.008
68431SOL     OW 7131   3.798   1.733  12.122
68431SOL    HW1 7132   3.839   1.775  12.197
68431SOL    HW2 7133   3.819   1.640  12.131
68432SOL     OW 7134  13.967   9.138  10.870
68432SOL    HW1 7135  14.008   9.121  10.955
68432SOL    HW2 7136  13.938   9.229  10.876
68433SOL     OW 7137   8.191   2.156   8.732
68433SOL    HW1 7138   8.130   2.133   8.661
68433SOL    HW2 7139   8.145   2.225   8.781
68434SOL     OW 7140   3.594   9.841   2.041
68434SOL    HW1 7141   3.498   9.836   2.041
68434SOL    HW2 7142   3.616   9.878   2.127
68435SOL     OW 7143   1.444   6.012   7.780
68435SOL    HW1 7144   1.375   6.076   7.759
68435SOL    HW2 7145   1.511   6.028   7.714
68436SOL     OW 7146   5.904  13.940  11.522
68436SOL    HW1 7147   5.946  13.934  11.436
68436SOL    HW2 7148   5.913  14.031  11.547
68437SOL     OW 7149   2.334   6.956   9.919
68437SOL    HW1 7150   2.359   6.984   9.831
68437SOL    HW2 7151   2.289   7.031   9.957
68438SOL     OW 7152   0.462   2.200   3.203
68438SOL    HW1 7153   0.399   2.195   3.275
68438SOL    HW2 7154   0.508   2.116   3.206
68439SOL     OW 7155   5.755   4.478   5.933
68439SOL    HW1 7156   5.831   4.436   5.973
68439SOL    HW2 7157   5.721   4.412   5.873
68440SOL     OW 7158   8.781   7.633   2.853
68440SOL    HW1 7159   8.772   7.610   2.945
68440SOL    HW2 7160   8.791   7.728   2.854
68441SOL     OW 7161   9.795   2.977  11.980
68441SOL    HW1 7162   9.721   2.922  11.954
68441SOL    HW2 7163   9.872   2.920  11.969
68442SOL     OW 7164   1.904   9.727   9.293
68442SOL    HW1 7165   1.907   9.634   9.316
68442SOL    HW2 7166   1.992   9.748   9.263
68443SOL     OW 7167   2.402   1.752  12.051
68443SOL    HW1 7168   2.380   1.812  12.123
68443SOL    HW2 7169   2.337   1.772  11.984
68444SOL     OW 7170   7.517   8.988   0.501
68444SOL    HW1 7171   7.442   9.045   0.487
68444SOL    HW2 7172   7.591   9.048   0.507
68445SOL     OW 7173  12.398   1.479  13.616
68445SOL    HW1 7174  12.324   1.424  13.592
68445SOL    HW2 7175  12.415   1.532  13.539
68446SOL     OW 7176   8.301  13.883   0.034
68446SOL    HW1 7177   8.281  13.969   0.069
68446SOL    HW2 7178   8.287  13.823   0.107
68447SOL     OW 7179   1.377   1.822   3.366
68447SOL    HW1 7180   1.423   1.764   3.305
68447SOL    HW2 7181   1.364   1.904   3.317
68448SOL     OW 7182   8.298   2.234   4.453
68448SOL    HW1 7183   8.323   2.326   4.451
68448SOL    HW2 7184   8.349   2.193   4.384
68449SOL     OW 7185   2.952  13.773  10.451
68449SOL    HW1 7186   2.880  13.827  10.420
68449SOL    HW2 7187   2.955  13.789  10.545
68450SOL     OW 7188   3.612   5.701   8.110
68450SOL    HW1 7189   3.644   5.615   8.085
68450SOL    HW2 7190   3.560   5.730   8.035
68451SOL     OW 7191   8.090   8.147  13.738
68451SOL    HW1 7192   8.122   8.227  13.781
68451SOL    HW2 7193   8.168   8.091  13.731
68452SOL     OW 7194  12.142   7.779  14.425
68452SOL    HW1 7195  12.107   7.756  14.339
68452SOL    HW2 7196  12.066   7.812  14.473
68453SOL     OW 7197  12.199  14.031  12.186
68453SOL    HW1 7198  12.264  13.964  12.165
68453SOL    HW2 7199  12.210  14.046  12.280
68454SOL     OW 7200   2.745  14.032  11.079
68454SOL    HW1 7201   2.657  14.023  11.115
68454SOL    HW2 7202   2.744  13.980  10.998
68455SOL     OW 7203   3.404   0.916   3.654
68455SOL    HW1 7204   3.387   0.844   3.593
68455SOL    HW2 7205   3.497   0.936   3.642
68456SOL     OW 7206   4.273  11.170  13.605
68456SOL    HW1 7207   4.282  11.144  13.514
68456SOL    HW2 7208   4.232  11.257  13.601
68457SOL     OW 7209   7.025   8.935   8.111
68457SOL    HW1 7210   7.070   8.967   8.032
68457SOL    HW2 7211   6.935   8.966   8.102
68458SOL     OW 7212  12.926   4.949   0.207
68458SOL    HW1 7213  12.982   5.026   0.198
68458SOL    HW2 7214  12.902   4.926   0.118
68459SOL     OW 7215   5.689   4.636   0.499
68459SOL    HW1 7216   5.634   4.702   0.541
68459SOL    HW2 7217   5.726   4.586   0.571
68460SOL     OW 7218   3.883   2.185   1.976
68460SOL    HW1 7219   3.889   2.276   2.004
68460SOL    HW2 7220   3.908   2.186   1.884
68461SOL     OW 7221  14.080   7.763  12.558
68461SOL    HW1 7222  13.991   7.794  12.541
68461SOL    HW2 7223  14.073   7.668  12.555
68462SOL     OW 7224   0.927   4.045  12.193
68462SOL    HW1 7225   0.971   4.118  12.149
68462SOL    HW2 7226   0.839   4.077  12.210
68463SOL     OW 7227   1.526  13.463  14.294
68463SOL    HW1 7228   1.560  13.433  14.378
68463SOL    HW2 7229   1.467  13.534  14.316
68464SOL     OW 7230  13.080   3.377   5.256
68464SOL    HW1 7231  13.127   3.461   5.252
68464SOL    HW2 7232  13.004   3.394   5.312
68465SOL     OW 7233   4.487  10.836   5.438
68465SOL    HW1 7234   4.479  10.811   5.530
68465SOL    HW2 7235   4.410  10.799   5.396
68466SOL     OW 7236   1.583   4.128   0.464
68466SOL    HW1 7237   1.537   4.206   0.495
68466SOL    HW2 7238   1.527   4.055   0.491
68467SOL     OW 7239  12.413  12.765   4.073
68467SOL    HW1 7240  12.373  12.805   4.150
68467SOL    HW2 7241  12.487  12.715   4.107
68468SOL     OW 7242   1.537   9.159   5.428
68468SOL    HW1 7243   1.454   9.148   5.381
68468SOL    HW2 7244   1.603   9.125   5.368
68469SOL     OW 7245   3.068   7.653   1.663
68469SOL    HW1 7246   3.105   7.737   1.635
68469SOL    HW2 7247   3.121   7.627   1.738
68470SOL     OW 7248  12.039   5.250  14.134
68470SOL    HW1 7249  12.114   5.288  14.087
68470SOL    HW2 7250  12.035   5.299  14.216
68471SOL     OW 7251   4.902  13.404   3.262
68471SOL    HW1 7252   4.966  13.337   3.288
68471SOL    HW2 7253   4.946  13.487   3.282
68472SOL     OW 7254   1.140  11.405   2.999
68472SOL    HW1 7255   1.141  11.471   3.068
68472SOL    HW2 7256   1.206  11.435   2.936
68473SOL     OW 7257   2.156  10.942   4.321
68473SOL    HW1 7258   2.194  10.958   4.407
68473SOL    HW2 7259   2.154  10.846   4.313
68474SOL     OW 7260   4.565   3.149   5.717
68474SOL    HW1 7261   4.584   3.191   5.633
68474SOL    HW2 7262   4.609   3.204   5.782
68475SOL     OW 7263   0.301   9.100   5.096
68475SOL    HW1 7264   0.232   9.061   5.043
68475SOL    HW2 7265   0.268   9.187   5.117
68476SOL     OW 7266   9.637  14.129  13.236
68476SOL    HW1 7267   9.705  14.061  13.235
68476SOL    HW2 7268   9.577  14.104  13.165
68477SOL     OW 7269   2.728   0.067  11.127
68477SOL    HW1 7270   2.667  14.874  11.133
68477SOL    HW2 7271   2.787   0.055  11.201
68478SOL     OW 7272   5.608   9.038  10.234
68478SOL    HW1 7273   5.584   9.130  10.247
68478SOL    HW2 7274   5.540   9.004  10.176
68479SOL     OW 7275  10.318   1.215   1.440
68479SOL    HW1 7276  10.269   1.148   1.490
68479SOL    HW2 7277  10.410   1.188   1.449
68480SOL     OW 7278  13.652  12.728   8.287
68480SOL    HW1 7279  13.560  12.703   8.277
68480SOL    HW2 7280  13.678  12.763   8.202
68481SOL     OW 7281   1.927  10.492   8.482
68481SOL    HW1 7282   1.878  10.568   8.450
68481SOL    HW2 7283   1.935  10.435   8.406
68482SOL     OW 7284   8.086   6.906   2.003
68482SOL    HW1 7285   8.033   6.850   1.946
68482SOL    HW2 7286   8.092   6.989   1.956
68483SOL     OW 7287   7.950  11.717   1.438
68483SOL    HW1 7288   7.964  11.749   1.527
68483SOL    HW2 7289   8.037  11.722   1.397
68484SOL     OW 7290  14.054   6.368  14.757
68484SOL    HW1 7291  13.978   6.317  14.784
68484SOL    HW2 7292  14.112   6.303  14.715
68485SOL     OW 7293  13.388   5.857   8.541
68485SOL    HW1 7294  13.468   5.864   8.489
68485SOL    HW2 7295  13.419   5.843   8.631
68486SOL     OW 7296   1.361   7.379  10.836
68486SOL    HW1 7297   1.385   7.405  10.925
68486SOL    HW2 7298   1.276   7.336  10.846
68487SOL     OW 7299  14.244   0.234   8.575
68487SOL    HW1 7300  14.333   0.241   8.542
68487SOL    HW2 7301  14.247   0.165   8.640
68488SOL     OW 7302   5.191  11.165  10.086
68488SOL    HW1 7303   5.278  11.130  10.071
68488SOL    HW2 7304   5.137  11.089  10.107
68489SOL     OW 7305  11.911  14.511  12.134
68489SOL    HW1 7306  11.826  14.537  12.099
68489SOL    HW2 7307  11.965  14.493  12.057
68490SOL     OW 7308   4.952  10.209   0.729
68490SOL    HW1 7309   4.918  10.152   0.659
68490SOL    HW2 7310   4.884  10.275   0.741
68491SOL     OW 7311   0.659   9.256   6.974
68491SOL    HW1 7312   0.701   9.265   6.888
68491SOL    HW2 7313   0.664   9.344   7.012
68492SOL     OW 7314   1.882   1.445  10.632
68492SOL    HW1 7315   1.966   1.403  10.650
68492SOL    HW2 7316   1.858   1.414  10.545
68493SOL     OW 7317   4.394   9.034  10.845
68493SOL    HW1 7318   4.432   8.969  10.905
68493SOL    HW2 7319   4.465   9.056  10.785
68494SOL     OW 7320   3.300   1.171   0.748
68494SOL    HW1 7321   3.228   1.166   0.811
68494SOL    HW2 7322   3.345   1.253   0.769
68495SOL     OW 7323   7.987  12.767   0.687
68495SOL    HW1 7324   7.941  12.682   0.688
68495SOL    HW2 7325   7.955  12.810   0.608
68496SOL     OW 7326   8.377   1.817   7.460
68496SOL    HW1 7327   8.343   1.841   7.546
68496SOL    HW2 7328   8.362   1.723   7.453
68497SOL     OW 7329  10.008   3.634   0.991
68497SOL    HW1 7330  10.099   3.640   1.018
68497SOL    HW2 7331   9.958   3.653   1.070
68498SOL     OW 7332   0.417   4.812  14.115
68498SOL    HW1 7333   0.388   4.902  14.104
68498SOL    HW2 7334   0.507   4.819  14.146
68499SOL     OW 7335  14.196   7.562   6.437
68499SOL    HW1 7336  14.220   7.592   6.349
68499SOL    HW2 7337  14.115   7.609   6.457
68500SOL     OW 7338   4.825   1.231   4.202
68500SOL    HW1 7339   4.775   1.189   4.131
68500SOL    HW2 7340   4.895   1.168   4.222
68501SOL     OW 7341   7.434   4.248   4.070
68501SOL    HW1 7342   7.509   4.307   4.063
68501SOL    HW2 7343   7.378   4.271   3.996
68502SOL     OW 7344   2.783   9.321   7.883
68502SOL    HW1 7345   2.870   9.359   7.901
68502SOL    HW2 7346   2.800   9.228   7.866
68503SOL     OW 7347  14.493   9.807   4.003
68503SOL    HW1 7348  14.432   9.842   3.938
68503SOL    HW2 7349  14.515   9.720   3.971
68504SOL     OW 7350   4.573   7.551  10.559
68504SOL    HW1 7351   4.503   7.550  10.493
68504SOL    HW2 7352   4.528   7.538  10.642
68505SOL     OW 7353   7.411  11.523   3.797
68505SOL    HW1 7354   7.365  11.508   3.880
68505SOL    HW2 7355   7.472  11.595   3.817
68506SOL     OW 7356   7.271  11.421   5.962
68506SOL    HW1 7357   7.198  11.475   5.991
68506SOL    HW2 7358   7.335  11.427   6.032
68507SOL     OW 7359   8.610  11.366   7.487
68507SOL    HW1 7360   8.679  11.341   7.426
68507SOL    HW2 7361   8.569  11.442   7.446
68508SOL     OW 7362  14.561   9.084   7.367
68508SOL    HW1 7363  14.589   9.127   7.448
68508SOL    HW2 7364  14.555   9.155   7.303
68509SOL     OW 7365  12.777  13.651   9.132
68509SOL    HW1 7366  12.756  13.597   9.055
68509SOL    HW2 7367  12.754  13.740   9.105
68510SOL     OW 7368  11.583  11.447   4.904
68510SOL    HW1 7369  11.633  11.422   4.826
68510SOL    HW2 7370  11.573  11.365   4.953
68511SOL     OW 7371   2.812   8.575   2.942
68511SOL    HW1 7372   2.830   8.481   2.949
68511SOL    HW2 7373   2.897   8.614   2.918
68512SOL     OW 7374   8.617   8.794   1.436
68512SOL    HW1 7375   8.689   8.778   1.374
68512SOL    HW2 7376   8.648   8.757   1.519
68513SOL     OW 7377  10.785  14.360   1.607
68513SOL    HW1 7378  10.867  14.359   1.656
68513SOL    HW2 7379  10.730  14.294   1.649
68514SOL     OW 7380   1.151  10.826   7.360
68514SOL    HW1 7381   1.079  10.889   7.350
68514SOL    HW2 7382   1.127  10.754   7.302
68515SOL     OW 7383   0.259   7.115   3.925
68515SOL    HW1 7384   0.193   7.107   3.857
68515SOL    HW2 7385   0.240   7.200   3.966
68516SOL     OW 7386  14.813   1.862   5.148
68516SOL    HW1 7387  14.877   1.881   5.217
68516SOL    HW2 7388  14.847   1.785   5.104
68517SOL     OW 7389   5.059   5.293   2.334
68517SOL    HW1 7390   5.048   5.201   2.355
68517SOL    HW2 7391   5.058   5.338   2.419
68518SOL     OW 7392   5.728   3.973   2.030
68518SOL    HW1 7393   5.720   3.956   2.124
68518SOL    HW2 7394   5.746   4.067   2.024
68519SOL     OW 7395   0.527  10.738   2.122
68519SOL    HW1 7396   0.499  10.829   2.132
68519SOL    HW2 7397   0.456  10.697   2.073
68520SOL     OW 7398   5.826   0.571  10.951
68520SOL    HW1 7399   5.819   0.660  10.917
68520SOL    HW2 7400   5.838   0.517  10.874
68521SOL     OW 7401   4.431  12.747  10.652
68521SOL    HW1 7402   4.429  12.739  10.557
68521SOL    HW2 7403   4.456  12.660  10.683
68522SOL     OW 7404   5.583   1.522  13.651
68522SOL    HW1 7405   5.639   1.485  13.720
68522SOL    HW2 7406   5.639   1.525  13.574
68523SOL     OW 7407   2.445   0.929   9.732
68523SOL    HW1 7408   2.462   0.877   9.810
68523SOL    HW2 7409   2.350   0.937   9.729
68524SOL     OW 7410   6.300   2.258   9.396
68524SOL    HW1 7411   6.352   2.179   9.409
68524SOL    HW2 7412   6.234   2.233   9.331
68525SOL     OW 7413   6.102   5.937   4.411
68525SOL    HW1 7414   6.173   6.001   4.403
68525SOL    HW2 7415   6.071   5.947   4.501
68526SOL     OW 7416  13.591   2.320   7.796
68526SOL    HW1 7417  13.636   2.279   7.870
68526SOL    HW2 7418  13.611   2.264   7.722
68527SOL     OW 7419   2.397  12.384  11.268
68527SOL    HW1 7420   2.364  12.410  11.182
68527SOL    HW2 7421   2.378  12.459  11.325
68528SOL     OW 7422  13.130   6.824  13.769
68528SOL    HW1 7423  13.214   6.823  13.723
68528SOL    HW2 7424  13.082   6.749  13.732
68529SOL     OW 7425   7.304   8.733   7.406
68529SOL    HW1 7426   7.359   8.799   7.362
68529SOL    HW2 7427   7.314   8.752   7.499
68530SOL     OW 7428   2.735  13.610   2.387
68530SOL    HW1 7429   2.773  13.647   2.467
68530SOL    HW2 7430   2.708  13.687   2.336
68531SOL     OW 7431   2.453   9.256  10.648
68531SOL    HW1 7432   2.421   9.183  10.595
68531SOL    HW2 7433   2.405   9.332  10.615
68532SOL     OW 7434  10.098   1.728   7.433
68532SOL    HW1 7435  10.121   1.642   7.468
68532SOL    HW2 7436  10.128   1.726   7.342
68533SOL     OW 7437  14.854  14.071   3.947
68533SOL    HW1 7438   0.057  14.064   3.900
68533SOL    HW2 7439  14.797  14.005   3.905
68534SOL     OW 7440   2.449   0.692   2.486
68534SOL    HW1 7441   2.462   0.629   2.556
68534SOL    HW2 7442   2.357   0.680   2.461
68535SOL     OW 7443   8.551   9.055   7.834
68535SOL    HW1 7444   8.513   9.121   7.776
68535SOL    HW2 7445   8.476   9.006   7.867
68536SOL     OW 7446   1.326  14.817   1.453
68536SOL    HW1 7447   1.239  14.845   1.481
68536SOL    HW2 7448   1.386  14.864   1.511
68537SOL     OW 7449   4.777   6.354  10.621
68537SOL    HW1 7450   4.864   6.315  10.627
68537SOL    HW2 7451   4.776   6.419  10.691
68538SOL     OW 7452  13.171   7.841  12.549
68538SOL    HW1 7453  13.263   7.816  12.562
68538SOL    HW2 7454  13.128   7.760  12.522
68539SOL     OW 7455  10.120   8.968  13.980
68539SOL    HW1 7456  10.059   8.942  14.049
68539SOL    HW2 7457  10.084   8.930  13.900
68540SOL     OW 7458   6.650  14.664  13.220
68540SOL    HW1 7459   6.686  14.753  13.223
68540SOL    HW2 7460   6.690  14.620  13.295
68541SOL     OW 7461   2.113   0.285   1.107
68541SOL    HW1 7462   2.055   0.317   1.037
68541SOL    HW2 7463   2.166   0.217   1.065
68542SOL     OW 7464  11.447   8.895  11.091
68542SOL    HW1 7465  11.470   8.861  11.178
68542SOL    HW2 7466  11.414   8.984  11.109
68543SOL     OW 7467   3.213  11.105  13.155
68543SOL    HW1 7468   3.165  11.186  13.171
68543SOL    HW2 7469   3.297  11.133  13.121
68544SOL     OW 7470  10.267  12.590   7.899
68544SOL    HW1 7471  10.296  12.516   7.847
68544SOL    HW2 7472  10.238  12.655   7.835
68545SOL     OW 7473   9.243   9.168  11.982
68545SOL    HW1 7474   9.312   9.163  12.048
68545SOL    HW2 7475   9.167   9.125  12.023
68546SOL     OW 7476   9.783   8.434   2.667
68546SOL    HW1 7477   9.761   8.432   2.574
68546SOL    HW2 7478   9.870   8.473   2.671
68547SOL     OW 7479   3.905   5.645   6.016
68547SOL    HW1 7480   3.822   5.612   6.049
68547SOL    HW2 7481   3.948   5.682   6.093
68548SOL     OW 7482   5.152   2.434  10.486
68548SOL    HW1 7483   5.151   2.381  10.406
68548SOL    HW2 7484   5.083   2.396  10.540
68549SOL     OW 7485   1.570   5.612   9.545
68549SOL    HW1 7486   1.660   5.644   9.556
68549SOL    HW2 7487   1.531   5.619   9.632
68550SOL     OW 7488   1.422  11.408  14.770
68550SOL    HW1 7489   1.396  11.374  14.855
68550SOL    HW2 7490   1.458  11.495  14.788
68551SOL     OW 7491   7.139   1.874   4.315
68551SOL    HW1 7492   7.202   1.929   4.361
68551SOL    HW2 7493   7.061   1.873   4.371
68552SOL     OW 7494   1.738   1.011   5.424
68552SOL    HW1 7495   1.703   1.092   5.389
68552SOL    HW2 7496   1.665   0.971   5.472
68553SOL     OW 7497   0.842   9.135   6.303
68553SOL    HW1 7498   0.917   9.093   6.261
68553SOL    HW2 7499   0.766   9.096   6.260
68554SOL     OW 7500   3.309  11.310  10.510
68554SOL    HW1 7501   3.387  11.352  10.473
68554SOL    HW2 7502   3.304  11.225  10.467
68555SOL     OW 7503   2.414   6.408  11.439
68555SOL    HW1 7504   2.489   6.461  11.414
68555SOL    HW2 7505   2.407   6.419  11.534
68556SOL     OW 7506   8.699   4.039   5.437
68556SOL    HW1 7507   8.760   3.987   5.383
68556SOL    HW2 7508   8.672   4.111   5.380
68557SOL     OW 7509   1.727  12.434   7.609
68557SOL    HW1 7510   1.718  12.347   7.647
68557SOL    HW2 7511   1.819  12.456   7.619
68558SOL     OW 7512   3.180   8.049  12.024
68558SOL    HW1 7513   3.152   8.091  12.105
68558SOL    HW2 7514   3.103   8.002  11.993
68559SOL     OW 7515   0.172   8.363   3.692
68559SOL    HW1 7516   0.144   8.339   3.781
68559SOL    HW2 7517   0.267   8.348   3.692
68560SOL     OW 7518  10.615   6.007   7.726
68560SOL    HW1 7519  10.689   6.066   7.715
68560SOL    HW2 7520  10.634   5.933   7.668
68561SOL     OW 7521   7.000   3.141  10.333
68561SOL    HW1 7522   6.961   3.106  10.413
68561SOL    HW2 7523   7.094   3.137  10.348
68562SOL     OW 7524  13.081  13.848  12.937
68562SOL    HW1 7525  13.001  13.889  12.904
68562SOL    HW2 7526  13.060  13.825  13.028
68563SOL     OW 7527   3.653   3.835   7.394
68563SOL    HW1 7528   3.677   3.894   7.466
68563SOL    HW2 7529   3.590   3.885   7.342
68564SOL     OW 7530  12.550  12.779   3.627
68564SOL    HW1 7531  12.529  12.726   3.705
68564SOL    HW2 7532  12.478  12.762   3.567
68565SOL     OW 7533   5.580   6.649  11.600
68565SOL    HW1 7534   5.612   6.578  11.545
68565SOL    HW2 7535   5.488   6.659  11.577
68566SOL     OW 7536   6.767   8.890  14.341
68566SOL    HW1 7537   6.837   8.876  14.277
68566SOL    HW2 7538   6.694   8.924  14.290
68567SOL     OW 7539   7.160   2.322   6.146
68567SOL    HW1 7540   7.172   2.372   6.227
68567SOL    HW2 7541   7.187   2.233   6.168
68568SOL     OW 7542   9.941  14.523   9.090
68568SOL    HW1 7543  10.028  14.532   9.051
68568SOL    HW2 7544   9.952  14.456   9.158
68569SOL     OW 7545   2.484   2.926   2.888
68569SOL    HW1 7546   2.439   3.010   2.892
68569SOL    HW2 7547   2.557   2.940   2.828
68570SOL     OW 7548  11.798   5.800  13.224
68570SOL    HW1 7549  11.765   5.713  13.201
68570SOL    HW2 7550  11.814   5.796  13.318
68571SOL     OW 7551   6.141   4.585  14.155
68571SOL    HW1 7552   6.230   4.575  14.120
68571SOL    HW2 7553   6.123   4.679  14.150
68572SOL     OW 7554  12.838   8.062   7.491
68572SOL    HW1 7555  12.930   8.059   7.463
68572SOL    HW2 7556  12.795   8.118   7.427
68573SOL     OW 7557  12.371  14.876  14.307
68573SOL    HW1 7558  12.370   0.048  14.388
68573SOL    HW2 7559  12.345   0.058  14.239
68574SOL     OW 7560   5.561  11.648   6.365
68574SOL    HW1 7561   5.493  11.704   6.326
68574SOL    HW2 7562   5.537  11.643   6.458
68575SOL     OW 7563  11.828   4.772   1.541
68575SOL    HW1 7564  11.744   4.818   1.536
68575SOL    HW2 7565  11.829   4.735   1.630
68576SOL     OW 7566   3.749  11.217   4.318
68576SOL    HW1 7567   3.808  11.283   4.353
68576SOL    HW2 7568   3.711  11.175   4.395
68577SOL     OW 7569   3.254  11.353   8.641
68577SOL    HW1 7570   3.184  11.396   8.593
68577SOL    HW2 7571   3.318  11.328   8.574
68578SOL     OW 7572   2.838   8.854  10.918
68578SOL    HW1 7573   2.773   8.836  10.850
68578SOL    HW2 7574   2.789   8.904  10.984
68579SOL     OW 7575   8.050   4.617  13.822
68579SOL    HW1 7576   7.992   4.658  13.886
68579SOL    HW2 7577   8.115   4.685  13.802
68580SOL     OW 7578   6.339   5.050   0.872
68580SOL    HW1 7579   6.268   5.092   0.824
68580SOL    HW2 7580   6.397   5.015   0.805
68581SOL     OW 7581   2.849  13.322   2.571
68581SOL    HW1 7582   2.911  13.264   2.615
68581SOL    HW2 7583   2.772  13.267   2.555
68582SOL     OW 7584  12.189  11.749   6.241
68582SOL    HW1 7585  12.149  11.813   6.301
68582SOL    HW2 7586  12.245  11.695   6.298
68583SOL     OW 7587   2.087   8.794   6.166
68583SOL    HW1 7588   2.182   8.796   6.169
68583SOL    HW2 7589   2.060   8.780   6.257
68584SOL     OW 7590  10.619   7.374   4.506
68584SOL    HW1 7591  10.565   7.450   4.527
68584SOL    HW2 7592  10.556   7.304   4.486
68585SOL     OW 7593   8.313  13.037   7.180
68585SOL    HW1 7594   8.391  12.998   7.142
68585SOL    HW2 7595   8.333  13.130   7.187
68586SOL     OW 7596  13.123   6.808  10.714
68586SOL    HW1 7597  13.173   6.873  10.665
68586SOL    HW2 7598  13.146   6.724  10.672
68587SOL     OW 7599  10.460   9.793  14.238
68587SOL    HW1 7600  10.500   9.707  14.230
68587SOL    HW2 7601  10.492   9.827  14.321
68588SOL     OW 7602   1.709   1.153   1.860
68588SOL    HW1 7603   1.627   1.123   1.820
68588SOL    HW2 7604   1.695   1.246   1.876
68589SOL     OW 7605   6.111   9.934   0.039
68589SOL    HW1 7606   6.153   9.894  14.843
68589SOL    HW2 7607   6.018   9.920   0.025
68590SOL     OW 7608   2.918  13.537   3.401
68590SOL    HW1 7609   2.912  13.537   3.497
68590SOL    HW2 7610   2.976  13.611   3.381
68591SOL     OW 7611   9.514   4.477   0.453
68591SOL    HW1 7612   9.446   4.455   0.517
68591SOL    HW2 7613   9.529   4.396   0.404
68592SOL     OW 7614   4.535  10.150  13.894
68592SOL    HW1 7615   4.465  10.195  13.941
68592SOL    HW2 7616   4.539  10.194  13.809
68593SOL     OW 7617   1.488   4.188   9.237
68593SOL    HW1 7618   1.444   4.145   9.164
68593SOL    HW2 7619   1.506   4.117   9.299
68594SOL     OW 7620  14.829   4.299   4.514
68594SOL    HW1 7621  14.838   4.206   4.489
68594SOL    HW2 7622  14.735   4.314   4.511
68595SOL     OW 7623  14.194  12.805   3.998
68595SOL    HW1 7624  14.199  12.864   3.922
68595SOL    HW2 7625  14.231  12.723   3.966
68596SOL     OW 7626   1.713   3.265   2.351
68596SOL    HW1 7627   1.771   3.322   2.402
68596SOL    HW2 7628   1.654   3.226   2.415
68597SOL     OW 7629  11.291   1.633  13.341
68597SOL    HW1 7630  11.354   1.702  13.317
68597SOL    HW2 7631  11.227   1.676  13.397
68598SOL     OW 7632   2.429   8.116   3.656
68598SOL    HW1 7633   2.411   8.021   3.658
68598SOL    HW2 7634   2.457   8.133   3.566
68599SOL     OW 7635   3.353  12.464   7.344
68599SOL    HW1 7636   3.338  12.460   7.439
68599SOL    HW2 7637   3.362  12.557   7.325
68600SOL     OW 7638   5.792   4.759   8.663
68600SOL    HW1 7639   5.869   4.703   8.655
68600SOL    HW2 7640   5.822   4.834   8.713
68601SOL     OW 7641  11.360   4.617   0.561
68601SOL    HW1 7642  11.405   4.661   0.488
68601SOL    HW2 7643  11.378   4.524   0.547
68602SOL     OW 7644   9.174   2.387   6.949
68602SOL    HW1 7645   9.174   2.366   7.042
68602SOL    HW2 7646   9.234   2.324   6.910
68603SOL     OW 7647  11.070  11.050   4.437
68603SOL    HW1 7648  11.138  11.117   4.433
68603SOL    HW2 7649  11.015  11.067   4.361
68604SOL     OW 7650   2.254   4.947  10.503
68604SOL    HW1 7651   2.314   4.918  10.572
68604SOL    HW2 7652   2.255   4.875  10.439
68605SOL     OW 7653  11.526   3.007  10.647
68605SOL    HW1 7654  11.559   3.096  10.654
68605SOL    HW2 7655  11.527   2.973  10.737
68606SOL     OW 7656   3.439  10.909   5.460
68606SOL    HW1 7657   3.390  10.827   5.452
68606SOL    HW2 7658   3.520  10.885   5.506
68607SOL     OW 7659   9.469  14.211   4.474
68607SOL    HW1 7660   9.399  14.155   4.509
68607SOL    HW2 7661   9.548  14.179   4.518
68608SOL     OW 7662   6.387   0.518  10.647
68608SOL    HW1 7663   6.314   0.520  10.709
68608SOL    HW2 7664   6.458   0.564  10.692
68609SOL     OW 7665   4.019   2.420   9.563
68609SOL    HW1 7666   3.976   2.498   9.528
68609SOL    HW2 7667   4.112   2.441   9.561
68610SOL     OW 7668   7.320   2.222   9.851
68610SOL    HW1 7669   7.327   2.192   9.942
68610SOL    HW2 7670   7.237   2.269   9.847
68611SOL     OW 7671  10.556   1.182  11.458
68611SOL    HW1 7672  10.647   1.188  11.428
68611SOL    HW2 7673  10.556   1.225  11.543
68612SOL     OW 7674   6.004   4.065   4.488
68612SOL    HW1 7675   5.978   3.993   4.431
68612SOL    HW2 7676   6.050   4.023   4.561
68613SOL     OW 7677   1.755  13.252   8.923
68613SOL    HW1 7678   1.802  13.309   8.863
68613SOL    HW2 7679   1.790  13.274   9.010
68614SOL     OW 7680   6.523  14.044   9.570
68614SOL    HW1 7681   6.549  14.109   9.635
68614SOL    HW2 7682   6.526  14.091   9.487
68615SOL     OW 7683  10.250   5.423   2.956
68615SOL    HW1 7684  10.177   5.367   2.929
68615SOL    HW2 7685  10.236   5.436   3.050
68616SOL     OW 7686  10.941   4.523  10.057
68616SOL    HW1 7687  10.956   4.478  10.141
68616SOL    HW2 7688  10.929   4.615  10.081
68617SOL     OW 7689  14.063   1.709   8.274
68617SOL    HW1 7690  13.973   1.739   8.281
68617SOL    HW2 7691  14.059   1.629   8.223
68618SOL     OW 7692  11.380   0.109   0.458
68618SOL    HW1 7693  11.435   0.031   0.464
68618SOL    HW2 7694  11.425   0.174   0.511
68619SOL     OW 7695   4.937   9.566   8.561
68619SOL    HW1 7696   4.899   9.653   8.553
68619SOL    HW2 7697   4.902   9.533   8.644
68620SOL     OW 7698  11.415   2.305   6.792
68620SOL    HW1 7699  11.365   2.230   6.760
68620SOL    HW2 7700  11.492   2.308   6.735
68621SOL     OW 7701  11.989   2.075  10.550
68621SOL    HW1 7702  11.959   2.166  10.540
68621SOL    HW2 7703  12.025   2.071  10.638
68622SOL     OW 7704   0.637  11.758   4.219
68622SOL    HW1 7705   0.674  11.762   4.130
68622SOL    HW2 7706   0.546  11.786   4.208
68623SOL     OW 7707   0.816  10.242   9.029
68623SOL    HW1 7708   0.842  10.150   9.019
68623SOL    HW2 7709   0.879  10.277   9.092
68624SOL     OW 7710   6.059   7.504   8.725
68624SOL    HW1 7711   6.049   7.474   8.816
68624SOL    HW2 7712   6.069   7.599   8.732
68625SOL     OW 7713  13.302   4.437   1.159
68625SOL    HW1 7714  13.324   4.523   1.120
68625SOL    HW2 7715  13.359   4.431   1.235
68626SOL     OW 7716   1.573  12.221  14.559
68626SOL    HW1 7717   1.609  12.197  14.644
68626SOL    HW2 7718   1.507  12.288  14.578
68627SOL     OW 7719   5.919   9.449  14.147
68627SOL    HW1 7720   6.006   9.408  14.149
68627SOL    HW2 7721   5.882   9.423  14.063
68628SOL     OW 7722  13.601  14.802   4.459
68628SOL    HW1 7723  13.607  14.749   4.380
68628SOL    HW2 7724  13.506  14.813   4.473
68629SOL     OW 7725   7.967   9.231   5.667
68629SOL    HW1 7726   7.976   9.183   5.585
68629SOL    HW2 7727   7.964   9.323   5.641
68630SOL     OW 7728   1.752   4.492   7.984
68630SOL    HW1 7729   1.751   4.494   7.889
68630SOL    HW2 7730   1.722   4.580   8.010
68631SOL     OW 7731  13.444   1.522   4.914
68631SOL    HW1 7732  13.428   1.543   4.822
68631SOL    HW2 7733  13.434   1.427   4.920
68632SOL     OW 7734   6.375   8.555  12.063
68632SOL    HW1 7735   6.381   8.567  11.968
68632SOL    HW2 7736   6.338   8.467  12.074
68633SOL     OW 7737   6.152   2.428   3.656
68633SOL    HW1 7738   6.091   2.400   3.587
68633SOL    HW2 7739   6.156   2.523   3.647
68634SOL     OW 7740   6.720   1.883  12.700
68634SOL    HW1 7741   6.626   1.887  12.717
68634SOL    HW2 7742   6.746   1.974  12.685
68635SOL     OW 7743   5.313  14.420  13.991
68635SOL    HW1 7744   5.264  14.471  13.926
68635SOL    HW2 7745   5.245  14.372  14.039
68636SOL     OW 7746   0.953   0.816   2.869
68636SOL    HW1 7747   1.031   0.853   2.910
68636SOL    HW2 7748   0.881   0.869   2.904
68637SOL     OW 7749   8.005   4.082  11.855
68637SOL    HW1 7750   8.077   4.069  11.916
68637SOL    HW2 7751   7.983   4.175  11.863
68638SOL     OW 7752   8.815   5.059  14.781
68638SOL    HW1 7753   8.757   5.107  14.722
68638SOL    HW2 7754   8.891   5.117  14.792
68639SOL     OW 7755   7.332  11.284   9.339
68639SOL    HW1 7756   7.418  11.316   9.366
68639SOL    HW2 7757   7.337  11.189   9.350
68640SOL     OW 7758   0.840   9.013  10.512
68640SOL    HW1 7759   0.811   8.931  10.472
68640SOL    HW2 7760   0.783   9.080  10.474
68641SOL     OW 7761   0.950   4.388   4.663
68641SOL    HW1 7762   0.970   4.463   4.606
68641SOL    HW2 7763   0.939   4.314   4.603
68642SOL     OW 7764   7.873  10.482   2.676
68642SOL    HW1 7765   7.869  10.521   2.763
68642SOL    HW2 7766   7.833  10.547   2.618
68643SOL     OW 7767  10.037  11.553   5.723
68643SOL    HW1 7768  10.075  11.473   5.759
68643SOL    HW2 7769  10.008  11.602   5.800
68644SOL     OW 7770  10.366   4.772   0.560
68644SOL    HW1 7771  10.286   4.737   0.522
68644SOL    HW2 7772  10.421   4.794   0.485
68645SOL     OW 7773  12.269   0.459   7.839
68645SOL    HW1 7774  12.177   0.443   7.820
68645SOL    HW2 7775  12.313   0.377   7.817
68646SOL     OW 7776   2.976   1.554   7.564
68646SOL    HW1 7777   3.001   1.646   7.563
68646SOL    HW2 7778   2.908   1.547   7.497
68647SOL     OW 7779  13.395   3.614  14.252
68647SOL    HW1 7780  13.438   3.699  14.252
68647SOL    HW2 7781  13.435   3.567  14.179
68648SOL     OW 7782   1.140  13.296   4.082
68648SOL    HW1 7783   1.201  13.257   4.145
68648SOL    HW2 7784   1.101  13.370   4.129
68649SOL     OW 7785   4.850   6.316   8.218
68649SOL    HW1 7786   4.845   6.238   8.164
68649SOL    HW2 7787   4.940   6.346   8.210
68650SOL     OW 7788  10.892   9.850   8.671
68650SOL    HW1 7789  10.959   9.837   8.603
68650SOL    HW2 7790  10.876   9.762   8.705
68651SOL     OW 7791   5.066  14.523  14.681
68651SOL    HW1 7792   4.999  14.456  14.668
68651SOL    HW2 7793   5.017  14.601  14.707
68652SOL     OW 7794   3.678   8.910   8.229
68652SOL    HW1 7795   3.656   8.829   8.183
68652SOL    HW2 7796   3.759   8.889   8.277
68653SOL     OW 7797   1.979   2.653   9.420
68653SOL    HW1 7798   1.975   2.572   9.470
68653SOL    HW2 7799   1.977   2.626   9.328
68654SOL     OW 7800  12.763   2.324  12.458
68654SOL    HW1 7801  12.671   2.300  12.449
68654SOL    HW2 7802  12.811   2.245  12.430
68655SOL     OW 7803   3.446   5.682   2.054
68655SOL    HW1 7804   3.428   5.775   2.041
68655SOL    HW2 7805   3.375   5.652   2.111
68656SOL     OW 7806   5.818   1.753   2.030
68656SOL    HW1 7807   5.852   1.842   2.015
68656SOL    HW2 7808   5.768   1.761   2.112
68657SOL     OW 7809  10.525   5.830   4.043
68657SOL    HW1 7810  10.555   5.781   4.120
68657SOL    HW2 7811  10.593   5.813   3.977
68658SOL     OW 7812   0.457   0.342   1.341
68658SOL    HW1 7813   0.460   0.297   1.426
68658SOL    HW2 7814   0.549   0.350   1.316
68659SOL     OW 7815  12.466   6.016   5.472
68659SOL    HW1 7816  12.422   6.055   5.548
68659SOL    HW2 7817  12.516   6.089   5.434
68660SOL     OW 7818   4.502  12.656  11.923
68660SOL    HW1 7819   4.526  12.566  11.945
68660SOL    HW2 7820   4.524  12.665  11.830
68661SOL     OW 7821   1.693   9.351   2.887
68661SOL    HW1 7822   1.744   9.270   2.891
68661SOL    HW2 7823   1.757   9.419   2.866
68662SOL     OW 7824  11.650   0.020   1.120
68662SOL    HW1 7825  11.601  14.851   1.186
68662SOL    HW2 7826  11.641   0.112   1.146
68663SOL     OW 7827  13.591  13.675   4.203
68663SOL    HW1 7828  13.500  13.686   4.228
68663SOL    HW2 7829  13.614  13.758   4.159
68664SOL     OW 7830   4.944   8.079  14.642
68664SOL    HW1 7831   4.991   8.033  14.711
68664SOL    HW2 7832   4.923   8.165  14.679
68665SOL     OW 7833   0.231   6.560   7.910
68665SOL    HW1 7834   0.268   6.504   7.978
68665SOL    HW2 7835   0.277   6.643   7.919
68666SOL     OW 7836   9.358   0.405  12.776
68666SOL    HW1 7837   9.265   0.419  12.759
68666SOL    HW2 7838   9.369   0.430  12.868
68667SOL     OW 7839   9.538   4.626   1.738
68667SOL    HW1 7840   9.557   4.651   1.829
68667SOL    HW2 7841   9.443   4.615   1.736
68668SOL     OW 7842   1.394   7.312   5.668
68668SOL    HW1 7843   1.385   7.226   5.626
68668SOL    HW2 7844   1.363   7.299   5.758
68669SOL     OW 7845   4.160   5.085   9.841
68669SOL    HW1 7846   4.123   4.998   9.852
68669SOL    HW2 7847   4.195   5.107   9.928
68670SOL     OW 7848   0.185  13.993   8.586
68670SOL    HW1 7849   0.165  13.901   8.572
68670SOL    HW2 7850   0.197  14.001   8.681
68671SOL     OW 7851  10.725  11.807   3.101
68671SOL    HW1 7852  10.812  11.847   3.103
68671SOL    HW2 7853  10.738  11.720   3.139
68672SOL     OW 7854   5.621   3.795   9.417
68672SOL    HW1 7855   5.690   3.779   9.352
68672SOL    HW2 7856   5.660   3.767   9.500
68673SOL     OW 7857  10.211   5.702   1.166
68673SOL    HW1 7858  10.298   5.693   1.204
68673SOL    HW2 7859  10.177   5.784   1.203
68674SOL     OW 7860   1.393   3.429   4.769
68674SOL    HW1 7861   1.318   3.427   4.711
68674SOL    HW2 7862   1.469   3.428   4.711
68675SOL     OW 7863   2.914  13.937   6.365
68675SOL    HW1 7864   2.848  13.877   6.331
68675SOL    HW2 7865   2.977  13.946   6.293
68676SOL     OW 7866   8.388   1.003  10.256
68676SOL    HW1 7867   8.440   0.922  10.260
68676SOL    HW2 7868   8.436   1.065  10.311
68677SOL     OW 7869   9.464  12.533   7.398
68677SOL    HW1 7870   9.376  12.546   7.433
68677SOL    HW2 7871   9.466  12.440   7.373
68678SOL     OW 7872   2.605   2.318   5.867
68678SOL    HW1 7873   2.520   2.355   5.890
68678SOL    HW2 7874   2.643   2.291   5.951
68679SOL     OW 7875  14.340  13.515  13.713
68679SOL    HW1 7876  14.249  13.520  13.683
68679SOL    HW2 7877  14.344  13.574  13.788
68680SOL     OW 7878  11.057  11.876   9.385
68680SOL    HW1 7879  11.109  11.796   9.387
68680SOL    HW2 7880  10.970  11.850   9.417
68681SOL     OW 7881   5.030   1.617   6.193
68681SOL    HW1 7882   5.097   1.668   6.238
68681SOL    HW2 7883   5.068   1.530   6.182
68682SOL     OW 7884  12.102   2.193  13.987
68682SOL    HW1 7885  12.173   2.250  13.958
68682SOL    HW2 7886  12.145   2.120  14.030
68683SOL     OW 7887  12.737   5.573   8.534
68683SOL    HW1 7888  12.774   5.534   8.455
68683SOL    HW2 7889  12.643   5.556   8.528
68684SOL     OW 7890  10.525   9.374   9.072
68684SOL    HW1 7891  10.617   9.401   9.068
68684SOL    HW2 7892  10.476   9.450   9.039
68685SOL     OW 7893  10.872   1.082  11.362
68685SOL    HW1 7894  10.927   1.006  11.380
68685SOL    HW2 7895  10.898   1.147  11.426
68686SOL     OW 7896   9.559   4.668   7.683
68686SOL    HW1 7897   9.569   4.760   7.659
68686SOL    HW2 7898   9.621   4.622   7.628
68687SOL     OW 7899   9.733   5.402   6.610
68687SOL    HW1 7900   9.699   5.370   6.526
68687SOL    HW2 7901   9.658   5.441   6.653
68688SOL     OW 7902   4.055  10.939   6.363
68688SOL    HW1 7903   3.977  10.970   6.410
68688SOL    HW2 7904   4.082  11.013   6.309
68689SOL     OW 7905   5.921   2.405  10.861
68689SOL    HW1 7906   5.844   2.421  10.807
68689SOL    HW2 7907   5.888   2.357  10.937
68690SOL     OW 7908   7.289   2.503   8.888
68690SOL    HW1 7909   7.345   2.442   8.937
68690SOL    HW2 7910   7.290   2.583   8.940
68691SOL     OW 7911   9.783   7.384   6.124
68691SOL    HW1 7912   9.730   7.418   6.196
68691SOL    HW2 7913   9.842   7.322   6.165
68692SOL     OW 7914   5.657   7.869   4.381
68692SOL    HW1 7915   5.715   7.926   4.329
68692SOL    HW2 7916   5.707   7.852   4.461
68693SOL     OW 7917   1.421  10.700  14.515
68693SOL    HW1 7918   1.349  10.761  14.500
68693SOL    HW2 7919   1.498  10.744  14.479
68694SOL     OW 7920   2.336   2.291   6.160
68694SOL    HW1 7921   2.357   2.362   6.100
68694SOL    HW2 7922   2.337   2.212   6.106
68695SOL     OW 7923   1.147   2.851   0.996
68695SOL    HW1 7924   1.167   2.796   0.921
68695SOL    HW2 7925   1.222   2.842   1.054
68696SOL     OW 7926   2.451  14.587  14.136
68696SOL    HW1 7927   2.358  14.612  14.134
68696SOL    HW2 7928   2.454  14.511  14.195
68697SOL     OW 7929  14.649  14.685  10.741
68697SOL    HW1 7930  14.630  14.733  10.661
68697SOL    HW2 7931  14.639  14.593  10.717
68698SOL     OW 7932  13.077  12.907   9.386
68698SOL    HW1 7933  13.091  12.905   9.481
68698SOL    HW2 7934  13.041  12.821   9.366
68699SOL     OW 7935  14.257  13.261   2.090
68699SOL    HW1 7936  14.227  13.190   2.034
68699SOL    HW2 7937  14.325  13.221   2.144
68700SOL     OW 7938  11.155   9.128  10.265
68700SOL    HW1 7939  11.243   9.159  10.245
68700SOL    HW2 7940  11.102   9.208  10.272
68701SOL     OW 7941   5.695  10.923  10.090
68701SOL    HW1 7942   5.740  11.005  10.067
68701SOL    HW2 7943   5.602  10.943  10.079
68702SOL     OW 7944   5.362   8.099  11.325
68702SOL    HW1 7945   5.268   8.082  11.334
68702SOL    HW2 7946   5.375   8.111  11.231
68703SOL     OW 7947   7.272   1.657   8.263
68703SOL    HW1 7948   7.316   1.572   8.262
68703SOL    HW2 7949   7.180   1.636   8.243
68704SOL     OW 7950   1.335  14.060   2.135
68704SOL    HW1 7951   1.352  14.121   2.063
68704SOL    HW2 7952   1.413  14.065   2.190
68705SOL     OW 7953   2.093  11.898  13.472
68705SOL    HW1 7954   2.019  11.857  13.428
68705SOL    HW2 7955   2.168  11.879  13.416
68706SOL     OW 7956  11.994   4.896   0.911
68706SOL    HW1 7957  12.023   4.818   0.959
68706SOL    HW2 7958  12.065   4.912   0.849
68707SOL     OW 7959   2.465  10.069   9.717
68707SOL    HW1 7960   2.430  10.135   9.657
68707SOL    HW2 7961   2.546  10.039   9.675
68708SOL     OW 7962   2.348  13.692  11.959
68708SOL    HW1 7963   2.361  13.784  11.981
68708SOL    HW2 7964   2.423  13.670  11.904
68709SOL     OW 7965   3.181   3.419   3.489
68709SOL    HW1 7966   3.180   3.476   3.412
68709SOL    HW2 7967   3.274   3.405   3.507
68710SOL     OW 7968   2.694   6.191   2.844
68710SOL    HW1 7969   2.773   6.189   2.791
68710SOL    HW2 7970   2.622   6.196   2.780
68711SOL     OW 7971   2.296  13.979   1.747
68711SOL    HW1 7972   2.237  13.905   1.731
68711SOL    HW2 7973   2.260  14.050   1.694
68712SOL     OW 7974   5.747   8.654   7.968
68712SOL    HW1 7975   5.792   8.736   7.986
68712SOL    HW2 7976   5.700   8.634   8.049
68713SOL     OW 7977   6.168  13.977   3.314
68713SOL    HW1 7978   6.197  14.068   3.307
68713SOL    HW2 7979   6.073  13.982   3.309
68714SOL     OW 7980   5.046   6.558   4.782
68714SOL    HW1 7981   5.102   6.481   4.772
68714SOL    HW2 7982   5.106   6.632   4.783
68715SOL     OW 7983   6.412  10.157   8.710
68715SOL    HW1 7984   6.428  10.220   8.640
68715SOL    HW2 7985   6.333  10.111   8.682
68716SOL     OW 7986  10.618   0.289   2.128
68716SOL    HW1 7987  10.542   0.263   2.076
68716SOL    HW2 7988  10.629   0.382   2.111
68717SOL     OW 7989  13.287   4.372  13.959
68717SOL    HW1 7990  13.325   4.292  13.994
68717SOL    HW2 7991  13.318   4.376  13.868
68718SOL     OW 7992   5.315  12.979   5.942
68718SOL    HW1 7993   5.357  12.935   6.016
68718SOL    HW2 7994   5.364  13.060   5.931
68719SOL     OW 7995   8.983   5.894  13.606
68719SOL    HW1 7996   8.920   5.900  13.535
68719SOL    HW2 7997   8.931   5.902  13.685
68720SOL     OW 7998   8.698  12.295   2.011
68720SOL    HW1 7999   8.663  12.373   1.967
68720SOL    HW2 8000   8.786  12.320   2.036
68721SOL     OW 8001   8.969  11.335   4.217
68721SOL    HW1 8002   9.008  11.275   4.280
68721SOL    HW2 8003   9.024  11.327   4.139
68722SOL     OW 8004   8.148   6.133   5.465
68722SOL    HW1 8005   8.207   6.201   5.498
68722SOL    HW2 8006   8.204   6.056   5.455
68723SOL     OW 8007   0.326   7.580   4.503
68723SOL    HW1 8008   0.350   7.672   4.515
68723SOL    HW2 8009   0.252   7.582   4.442
68724SOL     OW 8010   1.538   7.172   1.210
68724SOL    HW1 8011   1.451   7.180   1.249
68724SOL    HW2 8012   1.559   7.079   1.219
68725SOL     OW 8013   5.238   3.433   2.137
68725SOL    HW1 8014   5.210   3.524   2.148
68725SOL    HW2 8015   5.318   3.438   2.086
68726SOL     OW 8016   6.056   4.415   2.556
68726SOL    HW1 8017   5.970   4.374   2.562
68726SOL    HW2 8018   6.087   4.393   2.468
68727SOL     OW 8019   2.411  10.581   9.652
68727SOL    HW1 8020   2.342  10.628   9.698
68727SOL    HW2 8021   2.368  10.504   9.614
68728SOL     OW 8022   5.194   2.159  11.848
68728SOL    HW1 8023   5.276   2.110  11.842
68728SOL    HW2 8024   5.129   2.094  11.873
68729SOL     OW 8025   2.756   4.326   6.683
68729SOL    HW1 8026   2.850   4.318   6.702
68729SOL    HW2 8027   2.715   4.343   6.768
68730SOL     OW 8028   8.266   7.932  14.560
68730SOL    HW1 8029   8.299   7.844  14.544
68730SOL    HW2 8030   8.303   7.956  14.645
68731SOL     OW 8031   0.509   9.570  12.661
68731SOL    HW1 8032   0.416   9.551  12.656
68731SOL    HW2 8033   0.517   9.628  12.737
68732SOL     OW 8034   1.680   3.538   0.265
68732SOL    HW1 8035   1.678   3.489   0.346
68732SOL    HW2 8036   1.601   3.592   0.267
68733SOL     OW 8037   9.351   6.955  13.425
68733SOL    HW1 8038   9.270   6.927  13.381
68733SOL    HW2 8039   9.406   6.988  13.354
68734SOL     OW 8040  13.616   4.883   7.407
68734SOL    HW1 8041  13.601   4.977   7.416
68734SOL    HW2 8042  13.553   4.854   7.341
68735SOL     OW 8043  12.480   4.823   6.630
68735SOL    HW1 8044  12.570   4.803   6.656
68735SOL    HW2 8045  12.465   4.770   6.552
68736SOL     OW 8046  14.759   1.281  12.045
68736SOL    HW1 8047  14.830   1.345  12.042
68736SOL    HW2 8048  14.757   1.252  12.136
68737SOL     OW 8049  11.727   1.056   6.645
68737SOL    HW1 8050  11.646   1.065   6.594
68737SOL    HW2 8051  11.787   1.119   6.605
68738SOL     OW 8052   7.252   5.598   0.946
68738SOL    HW1 8053   7.216   5.669   0.892
68738SOL    HW2 8054   7.237   5.519   0.894
68739SOL     OW 8055   1.144   5.356   2.625
68739SOL    HW1 8056   1.069   5.397   2.582
68739SOL    HW2 8057   1.147   5.395   2.712
68740SOL     OW 8058   7.478   0.448   0.246
68740SOL    HW1 8059   7.557   0.465   0.195
68740SOL    HW2 8060   7.411   0.427   0.181
68741SOL     OW 8061   7.559  13.320  12.772
68741SOL    HW1 8062   7.559  13.362  12.686
68741SOL    HW2 8063   7.543  13.227  12.753
68742SOL     OW 8064   5.906   9.260   8.834
68742SOL    HW1 8065   5.929   9.278   8.743
68742SOL    HW2 8066   5.874   9.169   8.832
68743SOL     OW 8067   8.357   5.278   1.194
68743SOL    HW1 8068   8.384   5.301   1.105
68743SOL    HW2 8069   8.370   5.359   1.244
68744SOL     OW 8070  10.777   5.823  10.983
68744SOL    HW1 8071  10.705   5.808  11.045
68744SOL    HW2 8072  10.846   5.762  11.010
68745SOL     OW 8073   2.070  11.456   5.763
68745SOL    HW1 8074   2.000  11.521   5.772
68745SOL    HW2 8075   2.061  11.400   5.841
68746SOL     OW 8076   1.537   6.580  11.238
68746SOL    HW1 8077   1.605   6.524  11.200
68746SOL    HW2 8078   1.563   6.590  11.330
68747SOL     OW 8079  11.395   5.050  12.324
68747SOL    HW1 8080  11.382   5.108  12.399
68747SOL    HW2 8081  11.325   5.075  12.263
68748SOL     OW 8082   7.661  13.553   8.070
68748SOL    HW1 8083   7.727  13.585   8.008
68748SOL    HW2 8084   7.706  13.553   8.155
68749SOL     OW 8085   8.003  14.439  13.611
68749SOL    HW1 8086   7.918  14.474  13.587
68749SOL    HW2 8087   8.039  14.403  13.530
68750SOL     OW 8088   6.456  13.240  11.104
68750SOL    HW1 8089   6.449  13.198  11.019
68750SOL    HW2 8090   6.401  13.187  11.162
68751SOL     OW 8091   2.938  10.912   0.982
68751SOL    HW1 8092   3.030  10.931   0.964
68751SOL    HW2 8093   2.936  10.891   1.076
68752SOL     OW 8094   3.937   6.123   9.732
68752SOL    HW1 8095   3.954   6.090   9.644
68752SOL    HW2 8096   3.936   6.045   9.788
68753SOL     OW 8097   0.057  10.986   6.089
68753SOL    HW1 8098   0.088  11.042   6.018
68753SOL    HW2 8099  14.856  10.948   6.056
68754SOL     OW 8100   1.201   4.298   2.332
68754SOL    HW1 8101   1.150   4.261   2.260
68754SOL    HW2 8102   1.270   4.232   2.349
68755SOL     OW 8103   3.722   4.325   4.461
68755SOL    HW1 8104   3.719   4.402   4.518
68755SOL    HW2 8105   3.732   4.360   4.373
68756SOL     OW 8106   3.822   3.259  11.160
68756SOL    HW1 8107   3.812   3.312  11.080
68756SOL    HW2 8108   3.733   3.251  11.194
68757SOL     OW 8109   2.593   4.207  10.788
68757SOL    HW1 8110   2.552   4.251  10.863
68757SOL    HW2 8111   2.531   4.140  10.762
68758SOL     OW 8112   4.574   9.059   2.896
68758SOL    HW1 8113   4.587   9.068   2.990
68758SOL    HW2 8114   4.649   9.104   2.858
68759SOL     OW 8115   7.929   2.766   3.801
68759SOL    HW1 8116   7.925   2.785   3.894
68759SOL    HW2 8117   7.993   2.828   3.766
68760SOL     OW 8118   2.352  14.796   3.250
68760SOL    HW1 8119   2.435  14.838   3.227
68760SOL    HW2 8120   2.290  14.868   3.262
68761SOL     OW 8121  13.560   7.573   4.771
68761SOL    HW1 8122  13.501   7.498   4.767
68761SOL    HW2 8123  13.527   7.634   4.705
68762SOL     OW 8124   1.080   1.890   6.437
68762SOL    HW1 8125   1.152   1.879   6.375
68762SOL    HW2 8126   1.006   1.917   6.383
68763SOL     OW 8127   4.695   6.754  13.629
68763SOL    HW1 8128   4.632   6.700  13.581
68763SOL    HW2 8129   4.714   6.827  13.570
68764SOL     OW 8130   1.274   7.369   2.117
68764SOL    HW1 8131   1.320   7.292   2.082
68764SOL    HW2 8132   1.183   7.341   2.124
68765SOL     OW 8133   6.935   7.522   9.355
68765SOL    HW1 8134   6.873   7.524   9.428
68765SOL    HW2 8135   6.996   7.452   9.377
68766SOL     OW 8136  13.202   4.155  11.991
68766SOL    HW1 8137  13.164   4.242  12.007
68766SOL    HW2 8138  13.171   4.132  11.903
68767SOL     OW 8139   8.889   8.228  12.939
68767SOL    HW1 8140   8.904   8.318  12.909
68767SOL    HW2 8141   8.911   8.175  12.862
68768SOL     OW 8142   6.947   2.722   4.957
68768SOL    HW1 8143   6.860   2.760   4.959
68768SOL    HW2 8144   6.940   2.644   5.013
68769SOL     OW 8145   6.024   1.702   6.464
68769SOL    HW1 8146   5.971   1.644   6.409
68769SOL    HW2 8147   5.979   1.786   6.459
68770SOL     OW 8148   9.205   5.712  12.382
68770SOL    HW1 8149   9.226   5.669  12.299
68770SOL    HW2 8150   9.205   5.641  12.447
68771SOL     OW 8151  11.451   8.071   9.518
68771SOL    HW1 8152  11.359   8.049   9.530
68771SOL    HW2 8153  11.452   8.165   9.501
68772SOL     OW 8154  12.245   7.015  13.426
68772SOL    HW1 8155  12.336   7.034  13.401
68772SOL    HW2 8156  12.192   7.052  13.355
68773SOL     OW 8157  11.888  13.131   9.104
68773SOL    HW1 8158  11.979  13.125   9.078
68773SOL    HW2 8159  11.877  13.222   9.132
68774SOL     OW 8160   1.074  14.289   7.813
68774SOL    HW1 8161   1.013  14.308   7.885
68774SOL    HW2 8162   1.033  14.327   7.736
68775SOL     OW 8163   5.854   8.014   4.954
68775SOL    HW1 8164   5.791   8.085   4.969
68775SOL    HW2 8165   5.808   7.935   4.984
68776SOL     OW 8166   5.367   2.318  14.669
68776SOL    HW1 8167   5.406   2.247  14.618
68776SOL    HW2 8168   5.400   2.398  14.627
68777SOL     OW 8169   2.046   8.127  14.307
68777SOL    HW1 8170   2.130   8.172  14.295
68777SOL    HW2 8171   1.993   8.155  14.233
68778SOL     OW 8172   1.443  10.806   7.348
68778SOL    HW1 8173   1.353  10.832   7.370
68778SOL    HW2 8174   1.433  10.746   7.274
68779SOL     OW 8175  12.158   4.778  13.580
68779SOL    HW1 8176  12.234   4.811  13.628
68779SOL    HW2 8177  12.183   4.787  13.488
68780SOL     OW 8178  10.358   8.599   4.819
68780SOL    HW1 8179  10.303   8.650   4.760
68780SOL    HW2 8180  10.329   8.508   4.808
68781SOL     OW 8181   1.791  10.656   6.666
68781SOL    HW1 8182   1.863  10.707   6.703
68781SOL    HW2 8183   1.745  10.621   6.742
68782SOL     OW 8184   4.976   0.940  10.941
68782SOL    HW1 8185   4.902   0.881  10.958
68782SOL    HW2 8186   4.972   1.004  11.013
68783SOL     OW 8187   0.938  12.057  12.202
68783SOL    HW1 8188   1.015  12.111  12.223
68783SOL    HW2 8189   0.955  11.973  12.243
68784SOL     OW 8190   3.832   9.819  11.757
68784SOL    HW1 8191   3.780   9.899  11.764
68784SOL    HW2 8192   3.852   9.812  11.663
68785SOL     OW 8193   2.138   8.282   6.248
68785SOL    HW1 8194   2.070   8.276   6.180
68785SOL    HW2 8195   2.217   8.248   6.205
68786SOL     OW 8196  14.370   9.983   6.088
68786SOL    HW1 8197  14.435   9.951   6.026
68786SOL    HW2 8198  14.355  10.074   6.062
68787SOL     OW 8199   9.960  13.296   8.780
68787SOL    HW1 8200   9.987  13.287   8.688
68787SOL    HW2 8201   9.932  13.387   8.788
68788SOL     OW 8202   7.436   9.983   0.941
68788SOL    HW1 8203   7.492   9.988   0.864
68788SOL    HW2 8204   7.409   9.891   0.944
68789SOL     OW 8205  14.341  10.698   5.493
68789SOL    HW1 8206  14.372  10.644   5.420
68789SOL    HW2 8207  14.259  10.657   5.519
68790SOL     OW 8208   3.941  14.162   1.847
68790SOL    HW1 8209   3.922  14.084   1.795
68790SOL    HW2 8210   3.874  14.226   1.821
68791SOL     OW 8211  14.342  10.492   8.289
68791SOL    HW1 8212  14.251  10.521   8.293
68791SOL    HW2 8213  14.392  10.568   8.320
68792SOL     OW 8214   1.705   7.738   5.639
68792SOL    HW1 8215   1.669   7.670   5.695
68792SOL    HW2 8216   1.774   7.695   5.590
68793SOL     OW 8217   2.805   6.517   4.126
68793SOL    HW1 8218   2.852   6.539   4.046
68793SOL    HW2 8219   2.771   6.429   4.110
68794SOL     OW 8220   7.482  10.803  11.619
68794SOL    HW1 8221   7.510  10.893  11.633
68794SOL    HW2 8222   7.405  10.809  11.563
68795SOL     OW 8223   4.818  14.354   5.774
68795SOL    HW1 8224   4.811  14.407   5.854
68795SOL    HW2 8225   4.770  14.404   5.708
68796SOL     OW 8226   7.025   8.245  14.038
68796SOL    HW1 8227   7.099   8.286  14.081
68796SOL    HW2 8228   7.008   8.166  14.088
68797SOL     OW 8229   6.905  12.261   7.946
68797SOL    HW1 8230   6.863  12.280   7.862
68797SOL    HW2 8231   6.851  12.306   8.011
68798SOL     OW 8232   9.309   9.506  11.838
68798SOL    HW1 8233   9.232   9.516  11.895
68798SOL    HW2 8234   9.340   9.596  11.824
68799SOL     OW 8235   8.746  13.079   1.966
68799SOL    HW1 8236   8.711  13.068   2.054
68799SOL    HW2 8237   8.787  12.995   1.946
68800SOL     OW 8238   2.201   3.579   8.701
68800SOL    HW1 8239   2.137   3.628   8.649
68800SOL    HW2 8240   2.206   3.493   8.658
68801SOL     OW 8241  10.961   1.252  10.784
68801SOL    HW1 8242  10.949   1.161  10.758
68801SOL    HW2 8243  11.055   1.260  10.803
68802SOL     OW 8244  13.246   4.599   5.698
68802SOL    HW1 8245  13.261   4.682   5.653
68802SOL    HW2 8246  13.156   4.575   5.675
68803SOL     OW 8247   2.085  11.786  11.153
68803SOL    HW1 8248   2.026  11.834  11.095
68803SOL    HW2 8249   2.125  11.719  11.097
68804SOL     OW 8250  10.562   1.257   6.211
68804SOL    HW1 8251  10.604   1.336   6.176
68804SOL    HW2 8252  10.594   1.250   6.301
68805SOL     OW 8253  12.867   7.857   4.342
68805SOL    HW1 8254  12.902   7.775   4.378
68805SOL    HW2 8255  12.893   7.924   4.406
68806SOL     OW 8256  14.735   9.909   3.946
68806SOL    HW1 8257  14.663   9.850   3.968
68806SOL    HW2 8258  14.750   9.959   4.027
68807SOL     OW 8259   9.324   9.428   7.749
68807SOL    HW1 8260   9.259   9.451   7.683
68807SOL    HW2 8261   9.294   9.344   7.784
68808SOL     OW 8262   6.267   3.912  11.649
68808SOL    HW1 8263   6.213   3.860  11.708
68808SOL    HW2 8264   6.265   4.000  11.685
68809SOL     OW 8265   1.852   2.767  10.626
68809SOL    HW1 8266   1.883   2.855  10.650
68809SOL    HW2 8267   1.889   2.710  10.693
68810SOL     OW 8268   3.746  12.275   3.912
68810SOL    HW1 8269   3.831  12.278   3.867
68810SOL    HW2 8270   3.711  12.189   3.891
68811SOL     OW 8271   3.265   6.095   2.301
68811SOL    HW1 8272   3.247   6.118   2.210
68811SOL    HW2 8273   3.277   6.000   2.300
68812SOL     OW 8274  13.486   4.820   6.638
68812SOL    HW1 8275  13.425   4.775   6.581
68812SOL    HW2 8276  13.566   4.830   6.585
68813SOL     OW 8277   4.023   6.170  13.798
68813SOL    HW1 8278   3.952   6.234  13.791
68813SOL    HW2 8279   4.012   6.131  13.885
68814SOL     OW 8280   3.788  10.287   0.884
68814SOL    HW1 8281   3.872  10.332   0.891
68814SOL    HW2 8282   3.756  10.281   0.974
68815SOL     OW 8283  13.795   7.666  11.263
68815SOL    HW1 8284  13.833   7.715  11.191
68815SOL    HW2 8285  13.702   7.657  11.239
68816SOL     OW 8286   8.586   2.250   2.514
68816SOL    HW1 8287   8.640   2.329   2.513
68816SOL    HW2 8288   8.649   2.178   2.510
68817SOL     OW 8289   6.537   7.393   8.978
68817SOL    HW1 8290   6.561   7.480   9.010
68817SOL    HW2 8291   6.616   7.339   8.992
68818SOL     OW 8292   2.122  11.972   4.804
68818SOL    HW1 8293   2.186  11.907   4.774
68818SOL    HW2 8294   2.140  11.983   4.897
68819SOL     OW 8295   4.013  11.990   9.399
68819SOL    HW1 8296   4.100  12.029   9.401
68819SOL    HW2 8297   4.028  11.901   9.365
68820SOL     OW 8298   7.961   4.324   8.191
68820SOL    HW1 8299   7.972   4.383   8.266
68820SOL    HW2 8300   7.945   4.382   8.117
68821SOL     OW 8301   9.505   6.924   7.184
68821SOL    HW1 8302   9.449   6.958   7.114
68821SOL    HW2 8303   9.445   6.871   7.237
68822SOL     OW 8304  11.814  14.021   2.934
68822SOL    HW1 8305  11.750  14.052   2.997
68822SOL    HW2 8306  11.822  14.093   2.871
68823SOL     OW 8307  13.353  13.503   3.536
68823SOL    HW1 8308  13.268  13.460   3.530
68823SOL    HW2 8309  13.412  13.437   3.572
68824SOL     OW 8310   5.486  12.729   9.028
68824SOL    HW1 8311   5.536  12.659   8.986
68824SOL    HW2 8312   5.545  12.804   9.029
68825SOL     OW 8313   4.016  12.100   8.163
68825SOL    HW1 8314   4.038  12.013   8.129
68825SOL    HW2 8315   3.921  12.102   8.167
68826SOL     OW 8316   2.770   1.622  12.023
68826SOL    HW1 8317   2.685   1.585  12.002
68826SOL    HW2 8318   2.756   1.669  12.105
68827SOL     OW 8319  13.500   0.419  14.083
68827SOL    HW1 8320  13.572   0.470  14.121
68827SOL    HW2 8321  13.421   0.467  14.107
68828SOL     OW 8322  14.636   9.863   6.359
68828SOL    HW1 8323  14.552   9.818   6.355
68828SOL    HW2 8324  14.665   9.867   6.268
68829SOL     OW 8325   9.113   4.187   0.854
68829SOL    HW1 8326   9.018   4.180   0.838
68829SOL    HW2 8327   9.136   4.104   0.895
68830SOL     OW 8328  12.559  13.185  12.145
68830SOL    HW1 8329  12.532  13.190  12.054
68830SOL    HW2 8330  12.622  13.256  12.156
68831SOL     OW 8331  10.585  14.558   2.450
68831SOL    HW1 8332  10.676  14.550   2.422
68831SOL    HW2 8333  10.588  14.610   2.530
68832SOL     OW 8334  13.261   1.030  13.432
68832SOL    HW1 8335  13.251   1.119  13.399
68832SOL    HW2 8336  13.316   1.039  13.510
68833SOL     OW 8337   5.362   5.682   0.957
68833SOL    HW1 8338   5.403   5.697   1.042
68833SOL    HW2 8339   5.271   5.709   0.968
68834SOL     OW 8340   4.955  14.859   3.828
68834SOL    HW1 8341   4.998   0.063   3.810
68834SOL    HW2 8342   4.864   0.003   3.847
68835SOL     OW 8343   5.216   8.857   6.631
68835SOL    HW1 8344   5.285   8.918   6.657
68835SOL    HW2 8345   5.146   8.912   6.597
68836SOL     OW 8346   3.092   4.238  13.379
68836SOL    HW1 8347   3.063   4.146  13.382
68836SOL    HW2 8348   3.159   4.244  13.448
68837SOL     OW 8349  12.198  12.824  13.563
68837SOL    HW1 8350  12.206  12.917  13.582
68837SOL    HW2 8351  12.275  12.803  13.510
68838SOL     OW 8352   6.190   7.304  14.423
68838SOL    HW1 8353   6.118   7.257  14.465
68838SOL    HW2 8354   6.161   7.319  14.333
68839SOL     OW 8355   1.372   0.438   6.431
68839SOL    HW1 8356   1.303   0.393   6.479
68839SOL    HW2 8357   1.372   0.397   6.345
68840SOL     OW 8358   1.668  14.256   4.122
68840SOL    HW1 8359   1.581  14.218   4.135
68840SOL    HW2 8360   1.694  14.288   4.208
68841SOL     OW 8361  11.538  14.676   9.038
68841SOL    HW1 8362  11.492  14.759   9.025
68841SOL    HW2 8363  11.470  14.609   9.029
68842SOL     OW 8364   8.555   6.391   6.996
68842SOL    HW1 8365   8.635   6.442   6.981
68842SOL    HW2 8366   8.554   6.326   6.926
68843SOL     OW 8367   9.173   9.465   9.956
68843SOL    HW1 8368   9.087   9.483   9.918
68843SOL    HW2 8369   9.155   9.407  10.030
68844SOL     OW 8370  13.729   9.948  13.931
68844SOL    HW1 8371  13.721   9.927  13.839
68844SOL    HW2 8372  13.700  10.039  13.938
68845SOL     OW 8373   8.819   2.173  12.957
68845SOL    HW1 8374   8.745   2.226  12.926
68845SOL    HW2 8375   8.782   2.121  13.030
68846SOL     OW 8376   0.121   9.714   9.092
68846SOL    HW1 8377   0.151   9.681   9.008
68846SOL    HW2 8378   0.073   9.640   9.131
68847SOL     OW 8379  10.468   8.388   9.548
68847SOL    HW1 8380  10.561   8.405   9.564
68847SOL    HW2 8381  10.463   8.293   9.536
68848SOL     OW 8382   1.799   0.098   0.235
68848SOL    HW1 8383   1.884   0.142   0.233
68848SOL    HW2 8384   1.776   0.086   0.142
68849SOL     OW 8385  10.660  14.510  11.421
68849SOL    HW1 8386  10.602  14.489  11.494
68849SOL    HW2 8387  10.667  14.428  11.372
68850SOL     OW 8388   5.575   2.397  10.998
68850SOL    HW1 8389   5.595   2.329  11.063
68850SOL    HW2 8390   5.536   2.349  10.925
68851SOL     OW 8391  13.254  10.243   4.778
68851SOL    HW1 8392  13.322  10.193   4.732
68851SOL    HW2 8393  13.238  10.193   4.858
68852SOL     OW 8394   5.377   4.231   6.507
68852SOL    HW1 8395   5.360   4.296   6.438
68852SOL    HW2 8396   5.430   4.278   6.571
68853SOL     OW 8397  10.210  13.194  10.454
68853SOL    HW1 8398  10.168  13.125  10.504
68853SOL    HW2 8399  10.260  13.244  10.519
68854SOL     OW 8400   2.526  13.253   0.772
68854SOL    HW1 8401   2.564  13.279   0.689
68854SOL    HW2 8402   2.573  13.173   0.797
68855SOL     OW 8403  13.549  11.525  14.641
68855SOL    HW1 8404  13.562  11.538  14.547
68855SOL    HW2 8405  13.560  11.431  14.654
68856SOL     OW 8406   6.408   5.246  12.701
68856SOL    HW1 8407   6.422   5.309  12.630
68856SOL    HW2 8408   6.460   5.170  12.675
68857SOL     OW 8409   5.307   2.618   9.681
68857SOL    HW1 8410   5.310   2.680   9.754
68857SOL    HW2 8411   5.398   2.599   9.661
68858SOL     OW 8412  10.198   7.038   5.201
68858SOL    HW1 8413  10.165   6.957   5.240
68858SOL    HW2 8414  10.121   7.096   5.199
68859SOL     OW 8415   2.592  10.637   7.001
68859SOL    HW1 8416   2.612  10.705   7.064
68859SOL    HW2 8417   2.558  10.564   7.053
68860SOL     OW 8418   0.079  13.297   6.025
68860SOL    HW1 8419   0.173  13.279   6.021
68860SOL    HW2 8420   0.073  13.381   6.072
68861SOL     OW 8421   0.246   0.388   5.232
68861SOL    HW1 8422   0.295   0.316   5.273
68861SOL    HW2 8423   0.301   0.417   5.160
68862SOL     OW 8424   0.763  11.823   5.248
68862SOL    HW1 8425   0.757  11.728   5.237
68862SOL    HW2 8426   0.720  11.840   5.331
68863SOL     OW 8427   6.453   4.099   8.312
68863SOL    HW1 8428   6.427   4.056   8.231
68863SOL    HW2 8429   6.372   4.140   8.345
68864SOL     OW 8430   4.406   0.396  12.470
68864SOL    HW1 8431   4.454   0.432  12.545
68864SOL    HW2 8432   4.314   0.415  12.490
68865SOL     OW 8433   5.932  10.033   2.846
68865SOL    HW1 8434   5.976   9.950   2.863
68865SOL    HW2 8435   5.926  10.075   2.931
68866SOL     OW 8436  14.628   7.231  12.166
68866SOL    HW1 8437  14.696   7.267  12.224
68866SOL    HW2 8438  14.585   7.308  12.128
68867SOL     OW 8439   5.022  11.122   6.694
68867SOL    HW1 8440   5.018  11.134   6.789
68867SOL    HW2 8441   4.955  11.182   6.660
68868SOL     OW 8442  11.262  12.816   0.831
68868SOL    HW1 8443  11.272  12.745   0.767
68868SOL    HW2 8444  11.347  12.821   0.876
68869SOL     OW 8445   3.940   7.250  11.865
68869SOL    HW1 8446   3.950   7.342  11.890
68869SOL    HW2 8447   3.846   7.233  11.873
68870SOL     OW 8448   4.940   7.911  13.746
68870SOL    HW1 8449   4.871   7.960  13.702
68870SOL    HW2 8450   4.983   7.976  13.802
68871SOL     OW 8451   2.635  12.317   8.257
68871SOL    HW1 8452   2.570  12.387   8.249
68871SOL    HW2 8453   2.703  12.353   8.314
68872SOL     OW 8454   2.073   6.646  13.700
68872SOL    HW1 8455   2.042   6.651  13.610
68872SOL    HW2 8456   2.158   6.601  13.694
68873SOL     OW 8457   1.092  11.421   4.484
68873SOL    HW1 8458   1.096  11.517   4.486
68873SOL    HW2 8459   1.171  11.393   4.531
68874SOL     OW 8460  13.745  12.754   4.410
68874SOL    HW1 8461  13.777  12.839   4.381
68874SOL    HW2 8462  13.671  12.735   4.352
68875SOL     OW 8463  10.624   5.692   4.256
68875SOL    HW1 8464  10.624   5.681   4.351
68875SOL    HW2 8465  10.680   5.622   4.224
68876SOL     OW 8466  10.185   1.269   7.180
68876SOL    HW1 8467  10.134   1.256   7.261
68876SOL    HW2 8468  10.274   1.283   7.210
68877SOL     OW 8469   6.611   4.358  14.196
68877SOL    HW1 8470   6.581   4.309  14.119
68877SOL    HW2 8471   6.560   4.322  14.269
68878SOL     OW 8472   9.150   3.688   9.409
68878SOL    HW1 8473   9.092   3.614   9.389
68878SOL    HW2 8474   9.213   3.653   9.472
68879SOL     OW 8475   6.012  10.545   7.988
68879SOL    HW1 8476   6.055  10.625   7.957
68879SOL    HW2 8477   5.931  10.541   7.937
68880SOL     OW 8478   3.459   1.552   2.739
68880SOL    HW1 8479   3.485   1.644   2.727
68880SOL    HW2 8480   3.505   1.525   2.818
68881SOL     OW 8481   4.677  13.925   8.569
68881SOL    HW1 8482   4.657  13.975   8.490
68881SOL    HW2 8483   4.742  13.977   8.615
68882SOL     OW 8484  14.169  13.575   6.880
68882SOL    HW1 8485  14.252  13.565   6.832
68882SOL    HW2 8486  14.188  13.542   6.967
68883SOL     OW 8487  12.838   9.671   3.133
68883SOL    HW1 8488  12.918   9.651   3.182
68883SOL    HW2 8489  12.771   9.682   3.201
68884SOL     OW 8490  14.207  10.408   0.469
68884SOL    HW1 8491  14.247  10.412   0.382
68884SOL    HW2 8492  14.132  10.467   0.464
68885SOL     OW 8493  10.674   5.636   3.446
68885SOL    HW1 8494  10.716   5.591   3.519
68885SOL    HW2 8495  10.641   5.565   3.390
68886SOL     OW 8496   0.984   6.261   4.095
68886SOL    HW1 8497   0.993   6.305   4.179
68886SOL    HW2 8498   0.937   6.180   4.115
68887SOL     OW 8499   4.183  13.155   0.145
68887SOL    HW1 8500   4.102  13.141   0.192
68887SOL    HW2 8501   4.252  13.149   0.211
68888SOL     OW 8502   6.255  11.760   3.657
68888SOL    HW1 8503   6.181  11.698   3.659
68888SOL    HW2 8504   6.278  11.767   3.565
68889SOL     OW 8505   9.883   7.561   5.152
68889SOL    HW1 8506   9.967   7.597   5.124
68889SOL    HW2 8507   9.864   7.606   5.234
68890SOL     OW 8508   6.083   3.228   3.115
68890SOL    HW1 8509   6.042   3.167   3.177
68890SOL    HW2 8510   6.024   3.303   3.112
68891SOL     OW 8511  10.187  12.544   9.842
68891SOL    HW1 8512  10.242  12.526   9.918
68891SOL    HW2 8513  10.149  12.460   9.818
68892SOL     OW 8514  14.684   3.119   7.244
68892SOL    HW1 8515  14.677   3.050   7.310
68892SOL    HW2 8516  14.615   3.181   7.267
68893SOL     OW 8517   4.941  13.757   3.119
68893SOL    HW1 8518   4.883  13.704   3.066
68893SOL    HW2 8519   4.948  13.711   3.203
68894SOL     OW 8520  10.756   4.286   0.322
68894SOL    HW1 8521  10.681   4.328   0.364
68894SOL    HW2 8522  10.758   4.322   0.233
68895SOL     OW 8523   8.022   6.994   7.072
68895SOL    HW1 8524   7.996   7.086   7.079
68895SOL    HW2 8525   8.096   6.986   7.132
68896SOL     OW 8526  14.787   6.310   7.760
68896SOL    HW1 8527  14.704   6.351   7.783
68896SOL    HW2 8528  14.764   6.242   7.696
68897SOL     OW 8529   6.516  14.154   1.911
68897SOL    HW1 8530   6.434  14.117   1.946
68897SOL    HW2 8531   6.548  14.210   1.982
68898SOL     OW 8532   5.575   0.572  13.476
68898SOL    HW1 8533   5.652   0.525  13.507
68898SOL    HW2 8534   5.564   0.644  13.539
68899SOL     OW 8535   9.225   7.210   6.855
68899SOL    HW1 8536   9.154   7.252   6.904
68899SOL    HW2 8537   9.182   7.152   6.793
68900SOL     OW 8538   2.625   1.500   9.504
68900SOL    HW1 8539   2.713   1.500   9.467
68900SOL    HW2 8540   2.631   1.441   9.579
68901SOL     OW 8541  11.652  14.529   2.161
68901SOL    HW1 8542  11.587  14.462   2.141
68901SOL    HW2 8543  11.609  14.612   2.138
68902SOL     OW 8544   1.167   9.479   2.925
68902SOL    HW1 8545   1.102   9.428   2.973
68902SOL    HW2 8546   1.247   9.427   2.932
68903SOL     OW 8547   5.535   3.255   4.928
68903SOL    HW1 8548   5.475   3.225   4.996
68903SOL    HW2 8549   5.504   3.213   4.848
68904SOL     OW 8550   6.551  14.376   2.097
68904SOL    HW1 8551   6.619  14.425   2.050
68904SOL    HW2 8552   6.555  14.411   2.186
68905SOL     OW 8553   2.426   7.958   7.360
68905SOL    HW1 8554   2.422   7.999   7.274
68905SOL    HW2 8555   2.501   7.898   7.355
68906SOL     OW 8556  11.001  11.952   4.271
68906SOL    HW1 8557  10.925  11.965   4.214
68906SOL    HW2 8558  11.048  12.035   4.267
68907SOL     OW 8559   7.790   4.866  13.308
68907SOL    HW1 8560   7.817   4.921  13.381
68907SOL    HW2 8561   7.804   4.776  13.338
68908SOL     OW 8562  14.136   4.205  14.821
68908SOL    HW1 8563  14.086   4.202   0.022
68908SOL    HW2 8564  14.100   4.134  14.768
68909SOL     OW 8565   1.406   2.053  13.534
68909SOL    HW1 8566   1.392   2.097  13.449
68909SOL    HW2 8567   1.459   2.115  13.584
68910SOL     OW 8568  13.060  12.346  10.331
68910SOL    HW1 8569  12.989  12.385  10.382
68910SOL    HW2 8570  13.043  12.374  10.241
68911SOL     OW 8571   0.948  12.585  11.994
68911SOL    HW1 8572   1.002  12.622  12.064
68911SOL    HW2 8573   0.920  12.500  12.028
68912SOL     OW 8574   9.170  13.440   5.277
68912SOL    HW1 8575   9.256  13.460   5.313
68912SOL    HW2 8576   9.108  13.485   5.335
68913SOL     OW 8577   2.975   4.835  11.653
68913SOL    HW1 8578   2.886   4.815  11.681
68913SOL    HW2 8579   2.969   4.921  11.612
68914SOL     OW 8580  11.525   5.363  13.067
68914SOL    HW1 8581  11.546   5.453  13.091
68914SOL    HW2 8582  11.578   5.309  13.126
68915SOL     OW 8583   8.339  13.787  12.133
68915SOL    HW1 8584   8.255  13.822  12.160
68915SOL    HW2 8585   8.403  13.851  12.165
68916SOL     OW 8586  11.495   1.949   6.637
68916SOL    HW1 8587  11.557   1.965   6.566
68916SOL    HW2 8588  11.434   2.022   6.632
68917SOL     OW 8589   6.442   0.722   9.504
68917SOL    HW1 8590   6.463   0.815   9.512
68917SOL    HW2 8591   6.350   0.716   9.528
68918SOL     OW 8592   5.160   9.857   5.179
68918SOL    HW1 8593   5.175   9.827   5.269
68918SOL    HW2 8594   5.218   9.932   5.169
68919SOL     OW 8595  11.031   8.287   6.291
68919SOL    HW1 8596  10.960   8.326   6.242
68919SOL    HW2 8597  11.007   8.195   6.301
68920SOL     OW 8598  13.250  10.474   6.356
68920SOL    HW1 8599  13.225  10.536   6.424
68920SOL    HW2 8600  13.185  10.403   6.363
68921SOL     OW 8601   7.379   9.269   1.884
68921SOL    HW1 8602   7.428   9.307   1.812
68921SOL    HW2 8603   7.388   9.333   1.955
68922SOL     OW 8604  12.042   0.433  14.343
68922SOL    HW1 8605  11.968   0.372  14.348
68922SOL    HW2 8606  12.081   0.416  14.257
68923SOL     OW 8607   3.485  12.469   1.627
68923SOL    HW1 8608   3.419  12.400   1.621
68923SOL    HW2 8609   3.438  12.549   1.604
68924SOL     OW 8610  14.843   7.261   0.625
68924SOL    HW1 8611   0.051   7.222   0.624
68924SOL    HW2 8612  14.809   7.242   0.713
68925SOL     OW 8613   4.761   3.207   5.317
68925SOL    HW1 8614   4.807   3.289   5.298
68925SOL    HW2 8615   4.828   3.139   5.309
68926SOL     OW 8616  14.530   4.132  11.332
68926SOL    HW1 8617  14.470   4.166  11.265
68926SOL    HW2 8618  14.526   4.197  11.402
68927SOL     OW 8619   6.677   2.133   9.549
68927SOL    HW1 8620   6.700   2.223   9.573
68927SOL    HW2 8621   6.592   2.140   9.507
68928SOL     OW 8622   0.046  14.589   2.333
68928SOL    HW1 8623   0.138  14.562   2.329
68928SOL    HW2 8624   0.050  14.681   2.361
68929SOL     OW 8625   4.650   4.720   3.894
68929SOL    HW1 8626   4.650   4.791   3.959
68929SOL    HW2 8627   4.684   4.644   3.941
68930SOL     OW 8628   9.110   8.526   4.271
68930SOL    HW1 8629   9.063   8.598   4.229
68930SOL    HW2 8630   9.044   8.483   4.325
68931SOL     OW 8631   8.468   4.228   6.918
68931SOL    HW1 8632   8.562   4.210   6.909
68931SOL    HW2 8633   8.464   4.305   6.975
68932SOL     OW 8634   0.743   7.910  12.916
68932SOL    HW1 8635   0.744   7.819  12.945
68932SOL    HW2 8636   0.744   7.961  12.996
68933SOL     OW 8637   5.463   5.907  13.972
68933SOL    HW1 8638   5.551   5.878  13.999
68933SOL    HW2 8639   5.404   5.842  14.010
68934SOL     OW 8640  14.313  12.867   7.927
68934SOL    HW1 8641  14.361  12.785   7.938
68934SOL    HW2 8642  14.228  12.841   7.891
68935SOL     OW 8643   1.319  10.370   5.846
68935SOL    HW1 8644   1.243  10.426   5.831
68935SOL    HW2 8645   1.394  10.429   5.840
68936SOL     OW 8646   3.541   8.052  11.273
68936SOL    HW1 8647   3.631   8.078  11.255
68936SOL    HW2 8648   3.535   7.962  11.241
68937SOL     OW 8649  10.509   2.369   8.903
68937SOL    HW1 8650  10.429   2.332   8.867
68937SOL    HW2 8651  10.536   2.435   8.838
68938SOL     OW 8652   0.363  11.787   7.395
68938SOL    HW1 8653   0.277  11.807   7.360
68938SOL    HW2 8654   0.347  11.764   7.487
68939SOL     OW 8655  14.742   1.422   4.320
68939SOL    HW1 8656  14.832   1.406   4.293
68939SOL    HW2 8657  14.723   1.510   4.289
68940SOL     OW 8658  14.438   2.982  11.124
68940SOL    HW1 8659  14.434   2.971  11.029
68940SOL    HW2 8660  14.347   2.993  11.151
68941SOL     OW 8661   2.879   6.048   3.335
68941SOL    HW1 8662   2.892   6.043   3.240
68941SOL    HW2 8663   2.903   6.138   3.358
68942SOL     OW 8664  10.189  11.307   4.597
68942SOL    HW1 8665  10.133  11.342   4.527
68942SOL    HW2 8666  10.130  11.293   4.670
68943SOL     OW 8667   0.011   9.050   6.349
68943SOL    HW1 8668   0.016   9.063   6.254
68943SOL    HW2 8669   0.075   9.111   6.385
68944SOL     OW 8670  14.076   2.345  13.134
68944SOL    HW1 8671  14.124   2.427  13.146
68944SOL    HW2 8672  14.142   2.282  13.104
68945SOL     OW 8673   7.928   5.644   2.653
68945SOL    HW1 8674   7.934   5.732   2.616
68945SOL    HW2 8675   7.985   5.647   2.730
68946SOL     OW 8676   4.582  10.712   0.840
68946SOL    HW1 8677   4.621  10.798   0.824
68946SOL    HW2 8678   4.555  10.714   0.932
68947SOL     OW 8679   8.708  14.061   7.521
68947SOL    HW1 8680   8.796  14.090   7.495
68947SOL    HW2 8681   8.708  14.066   7.617
68948SOL     OW 8682   8.085   4.038  12.717
68948SOL    HW1 8683   8.066   4.129  12.695
68948SOL    HW2 8684   8.031   4.020  12.794
68949SOL     OW 8685  13.104  13.326  14.683
68949SOL    HW1 8686  13.166  13.365  14.621
68949SOL    HW2 8687  13.127  13.234  14.686
68950SOL     OW 8688   6.841  10.866   9.722
68950SOL    HW1 8689   6.809  10.837   9.636
68950SOL    HW2 8690   6.803  10.803   9.784
68951SOL     OW 8691  10.603   3.440   0.445
68951SOL    HW1 8692  10.584   3.506   0.512
68951SOL    HW2 8693  10.525   3.385   0.443
68952SOL     OW 8694   2.489  12.079   9.037
68952SOL    HW1 8695   2.499  12.164   8.994
68952SOL    HW2 8696   2.395  12.060   9.031
68953SOL     OW 8697   6.947   7.934   9.128
68953SOL    HW1 8698   6.857   7.919   9.157
68953SOL    HW2 8699   6.979   7.847   9.104
68954SOL     OW 8700  10.373   3.788   3.128
68954SOL    HW1 8701  10.351   3.702   3.092
68954SOL    HW2 8702  10.465   3.780   3.153
68955SOL     OW 8703  13.617   6.602  13.118
68955SOL    HW1 8704  13.524   6.586  13.138
68955SOL    HW2 8705  13.624   6.697  13.114
68956SOL     OW 8706  14.175   8.161   4.962
68956SOL    HW1 8707  14.212   8.076   4.937
68956SOL    HW2 8708  14.110   8.140   5.029
68957SOL     OW 8709   5.012  11.356   2.351
68957SOL    HW1 8710   5.081  11.321   2.294
68957SOL    HW2 8711   4.975  11.279   2.394
68958SOL     OW 8712  12.421   3.072  11.837
68958SOL    HW1 8713  12.482   3.040  11.904
68958SOL    HW2 8714  12.444   3.165  11.827
68959SOL     OW 8715   4.476   2.172   3.984
68959SOL    HW1 8716   4.445   2.144   4.070
68959SOL    HW2 8717   4.400   2.166   3.928
68960SOL     OW 8718   6.742   2.170   5.938
68960SOL    HW1 8719   6.670   2.232   5.925
68960SOL    HW2 8720   6.754   2.168   6.033
68961SOL     OW 8721   8.399   5.555   5.076
68961SOL    HW1 8722   8.472   5.555   5.013
68961SOL    HW2 8723   8.372   5.463   5.081
68962SOL     OW 8724   3.084   8.839   8.460
68962SOL    HW1 8725   3.046   8.915   8.504
68962SOL    HW2 8726   3.017   8.812   8.397
68963SOL     OW 8727  11.647   9.510  12.473
68963SOL    HW1 8728  11.669   9.516  12.566
68963SOL    HW2 8729  11.570   9.454  12.470
68964SOL     OW 8730   4.299   1.478   3.153
68964SOL    HW1 8731   4.347   1.554   3.120
68964SOL    HW2 8732   4.323   1.474   3.246
68965SOL     OW 8733   8.010  14.548   6.013
68965SOL    HW1 8734   8.035  14.463   6.049
68965SOL    HW2 8735   7.963  14.591   6.085
68966SOL     OW 8736   9.146  11.934   5.526
68966SOL    HW1 8737   9.224  11.897   5.485
68966SOL    HW2 8738   9.180  11.982   5.602
68967SOL     OW 8739   1.382   5.590  10.189
68967SOL    HW1 8740   1.330   5.638  10.254
68967SOL    HW2 8741   1.452   5.549  10.241
68968SOL     OW 8742   8.101   5.131   2.480
68968SOL    HW1 8743   8.044   5.132   2.403
68968SOL    HW2 8744   8.119   5.038   2.496
68969SOL     OW 8745   0.203  10.136   7.000
68969SOL    HW1 8746   0.130  10.085   7.037
68969SOL    HW2 8747   0.280  10.082   7.015
68970SOL     OW 8748   6.536   7.471   5.235
68970SOL    HW1 8749   6.494   7.522   5.166
68970SOL    HW2 8750   6.629   7.474   5.214
68971SOL     OW 8751   9.702   0.673  11.481
68971SOL    HW1 8752   9.792   0.704  11.494
68971SOL    HW2 8753   9.648   0.750  11.496
68972SOL     OW 8754  11.302   0.407   2.757
68972SOL    HW1 8755  11.397   0.401   2.743
68972SOL    HW2 8756  11.265   0.410   2.669
68973SOL     OW 8757   9.527   0.154   3.280
68973SOL    HW1 8758   9.450   0.209   3.292
68973SOL    HW2 8759   9.525   0.092   3.353
68974SOL     OW 8760   4.448  11.657   9.370
68974SOL    HW1 8761   4.358  11.631   9.390
68974SOL    HW2 8762   4.471  11.606   9.293
68975SOL     OW 8763  13.394  11.356   6.232
68975SOL    HW1 8764  13.398  11.450   6.212
68975SOL    HW2 8765  13.471  11.319   6.189
68976SOL     OW 8766   7.126   9.933  11.437
68976SOL    HW1 8767   7.031   9.925  11.446
68976SOL    HW2 8768   7.155   9.850  11.400
68977SOL     OW 8769  12.858   1.122   4.859
68977SOL    HW1 8770  12.944   1.154   4.830
68977SOL    HW2 8771  12.799   1.145   4.787
68978SOL     OW 8772  12.937   9.333   2.023
68978SOL    HW1 8773  12.876   9.290   1.963
68978SOL    HW2 8774  13.022   9.295   2.004
68979SOL     OW 8775   7.692   1.602   2.974
68979SOL    HW1 8776   7.758   1.650   3.023
68979SOL    HW2 8777   7.719   1.511   2.980
68980SOL     OW 8778   2.004  10.522  12.239
68980SOL    HW1 8779   1.957  10.487  12.164
68980SOL    HW2 8780   1.997  10.453  12.306
68981SOL     OW 8781   6.752   7.578   1.566
68981SOL    HW1 8782   6.807   7.502   1.590
68981SOL    HW2 8783   6.666   7.540   1.549
68982SOL     OW 8784   3.002   2.084   7.956
68982SOL    HW1 8785   3.084   2.041   7.936
68982SOL    HW2 8786   3.026   2.175   7.974
68983SOL     OW 8787   8.990   8.309   1.591
68983SOL    HW1 8788   8.914   8.293   1.535
68983SOL    HW2 8789   9.065   8.282   1.538
68984SOL     OW 8790   1.812   8.131   8.695
68984SOL    HW1 8791   1.815   8.219   8.732
68984SOL    HW2 8792   1.751   8.137   8.621
68985SOL     OW 8793   5.387   0.155  14.494
68985SOL    HW1 8794   5.403   0.114  14.409
68985SOL    HW2 8795   5.296   0.184  14.490
68986SOL     OW 8796   3.384  14.158  10.957
68986SOL    HW1 8797   3.478  14.157  10.978
68986SOL    HW2 8798   3.351  14.237  10.999
68987SOL     OW 8799  12.500  10.868   0.723
68987SOL    HW1 8800  12.590  10.868   0.756
68987SOL    HW2 8801  12.499  10.936   0.656
68988SOL     OW 8802  13.956   6.843   2.404
68988SOL    HW1 8803  13.936   6.926   2.361
68988SOL    HW2 8804  13.914   6.777   2.348
68989SOL     OW 8805   9.065   1.065   9.160
68989SOL    HW1 8806   9.145   1.112   9.184
68989SOL    HW2 8807   8.999   1.099   9.220
68990SOL     OW 8808   3.284   4.911   1.976
68990SOL    HW1 8809   3.332   4.874   1.902
68990SOL    HW2 8810   3.297   4.847   2.047
68991SOL     OW 8811   6.662  13.766  14.062
68991SOL    HW1 8812   6.622  13.772  14.148
68991SOL    HW2 8813   6.747  13.809  14.072
68992SOL     OW 8814  14.791   3.247   9.332
68992SOL    HW1 8815  14.707   3.263   9.377
68992SOL    HW2 8816  14.852   3.226   9.403
68993SOL     OW 8817  10.454  11.945  10.567
68993SOL    HW1 8818  10.486  11.946  10.476
68993SOL    HW2 8819  10.359  11.947  10.559
68994SOL     OW 8820   1.875   0.311   9.739
68994SOL    HW1 8821   1.894   0.390   9.789
68994SOL    HW2 8822   1.788   0.283   9.770
68995SOL     OW 8823   0.191  14.083   7.371
68995SOL    HW1 8824   0.189  14.078   7.275
68995SOL    HW2 8825   0.156  13.999   7.401
68996SOL     OW 8826   7.581   4.829  10.668
68996SOL    HW1 8827   7.496   4.786  10.653
68996SOL    HW2 8828   7.631   4.766  10.720
68997SOL     OW 8829   4.981   8.048  12.050
68997SOL    HW1 8830   5.021   8.133  12.031
68997SOL    HW2 8831   5.049   7.984  12.028
68998SOL     OW 8832   6.960   2.426   5.022
68998SOL    HW1 8833   6.962   2.424   4.927
68998SOL    HW2 8834   6.908   2.350   5.048
68999SOL     OW 8835   1.812   1.999  12.753
68999SOL    HW1 8836   1.856   1.929  12.704
68999SOL    HW2 8837   1.842   1.988  12.843
69000SOL     OW 8838   1.373   5.894   4.986
69000SOL    HW1 8839   1.377   5.989   4.976
69000SOL    HW2 8840   1.442   5.874   5.049
69001SOL     OW 8841  12.643   8.245   6.928
69001SOL    HW1 8842  12.571   8.307   6.938
69001SOL    HW2 8843  12.710   8.274   6.990
69002SOL     OW 8844   7.649  10.829   9.986
69002SOL    HW1 8845   7.669  10.919  10.014
69002SOL    HW2 8846   7.561  10.835   9.949
69003SOL     OW 8847   0.277   8.825  13.333
69003SOL    HW1 8848   0.350   8.878  13.300
69003SOL    HW2 8849   0.319   8.747  13.368
69004SOL     OW 8850   4.542   1.291   2.661
69004SOL    HW1 8851   4.478   1.251   2.720
69004SOL    HW2 8852   4.516   1.383   2.656
69005SOL     OW 8853   1.354  13.219   4.693
69005SOL    HW1 8854   1.349  13.293   4.753
69005SOL    HW2 8855   1.344  13.142   4.748
69006SOL     OW 8856   1.354  11.987  12.211
69006SOL    HW1 8857   1.303  12.012  12.133
69006SOL    HW2 8858   1.385  11.899  12.191
69007SOL     OW 8859   9.679   1.733  12.859
69007SOL    HW1 8860   9.697   1.750  12.951
69007SOL    HW2 8861   9.765   1.724  12.818
69008SOL     OW 8862   5.790   6.751  14.252
69008SOL    HW1 8863   5.784   6.717  14.341
69008SOL    HW2 8864   5.715   6.810  14.244
69009SOL     OW 8865  13.043   4.958   7.259
69009SOL    HW1 8866  13.024   4.865   7.270
69009SOL    HW2 8867  13.089   4.983   7.339
69010SOL     OW 8868   7.916  11.482   9.318
69010SOL    HW1 8869   7.973  11.529   9.256
69010SOL    HW2 8870   7.833  11.475   9.272
69011SOL     OW 8871   2.572  12.834   4.394
69011SOL    HW1 8872   2.563  12.815   4.301
69011SOL    HW2 8873   2.497  12.791   4.435
69012SOL     OW 8874   0.932   0.728   3.258
69012SOL    HW1 8875   0.863   0.765   3.202
69012SOL    HW2 8876   0.984   0.804   3.283
69013SOL     OW 8877   6.245  10.781   2.564
69013SOL    HW1 8878   6.247  10.740   2.477
69013SOL    HW2 8879   6.283  10.714   2.622
69014SOL     OW 8880   1.767   7.510   6.028
69014SOL    HW1 8881   1.827   7.555   5.968
69014SOL    HW2 8882   1.760   7.421   5.993
69015SOL     OW 8883   2.464   9.680   8.260
69015SOL    HW1 8884   2.465   9.763   8.212
69015SOL    HW2 8885   2.554   9.648   8.254
69016SOL     OW 8886  12.067  12.800  12.292
69016SOL    HW1 8887  12.011  12.845  12.228
69016SOL    HW2 8888  12.007  12.770  12.360
69017SOL     OW 8889   9.228   0.267   6.496
69017SOL    HW1 8890   9.298   0.259   6.432
69017SOL    HW2 8891   9.182   0.347   6.471
69018SOL     OW 8892   6.498   4.515   6.160
69018SOL    HW1 8893   6.592   4.522   6.177
69018SOL    HW2 8894   6.489   4.531   6.066
69019SOL     OW 8895   6.351   0.537  13.093
69019SOL    HW1 8896   6.292   0.496  13.156
69019SOL    HW2 8897   6.358   0.472  13.022
69020SOL     OW 8898  10.056  14.461   6.189
69020SOL    HW1 8899   9.998  14.533   6.213
69020SOL    HW2 8900  10.010  14.382   6.219
69021SOL     OW 8901  13.830   8.224   1.256
69021SOL    HW1 8902  13.735   8.218   1.247
69021SOL    HW2 8903  13.859   8.267   1.176
69022SOL     OW 8904  13.851   4.825  10.882
69022SOL    HW1 8905  13.872   4.820  10.975
69022SOL    HW2 8906  13.915   4.768  10.840
69023SOL     OW 8907  11.487   9.456   7.620
69023SOL    HW1 8908  11.459   9.548   7.618
69023SOL    HW2 8909  11.410   9.408   7.649
69024SOL     OW 8910   6.920  14.560   4.047
69024SOL    HW1 8911   6.884  14.497   3.984
69024SOL    HW2 8912   6.953  14.632   3.993
69025SOL     OW 8913   9.446   5.352   2.918
69025SOL    HW1 8914   9.405   5.409   2.983
69025SOL    HW2 8915   9.390   5.275   2.915
69026SOL     OW 8916  12.897   1.987   1.781
69026SOL    HW1 8917  12.966   2.015   1.722
69026SOL    HW2 8918  12.924   2.022   1.867
69027SOL     OW 8919   7.799  12.083  10.174
69027SOL    HW1 8920   7.743  12.143  10.125
69027SOL    HW2 8921   7.879  12.077  10.122
69028SOL     OW 8922   8.496  14.811  14.748
69028SOL    HW1 8923   8.445  14.840  14.673
69028SOL    HW2 8924   8.561   0.001  14.761
69029SOL     OW 8925  12.241   3.111   5.302
69029SOL    HW1 8926  12.252   3.165   5.379
69029SOL    HW2 8927  12.266   3.023   5.330
69030SOL     OW 8928   6.127   2.061  12.882
69030SOL    HW1 8929   6.141   2.042  12.790
69030SOL    HW2 8930   6.208   2.103  12.911
69031SOL     OW 8931   2.259  10.477  14.373
69031SOL    HW1 8932   2.206  10.397  14.366
69031SOL    HW2 8933   2.227  10.520  14.452
69032SOL     OW 8934  12.906   3.196  13.982
69032SOL    HW1 8935  12.924   3.155  13.897
69032SOL    HW2 8936  12.811   3.187  13.994
69033SOL     OW 8937   9.924  10.069   8.160
69033SOL    HW1 8938   9.934  10.160   8.190
69033SOL    HW2 8939   9.975  10.018   8.223
69034SOL     OW 8940   6.259   0.997   9.650
69034SOL    HW1 8941   6.205   0.965   9.578
69034SOL    HW2 8942   6.201   1.056   9.699
69035SOL     OW 8943  11.183   5.468  12.441
69035SOL    HW1 8944  11.135   5.513  12.511
69035SOL    HW2 8945  11.123   5.470  12.366
69036SOL     OW 8946   9.029  10.953   9.694
69036SOL    HW1 8947   9.013  10.929   9.603
69036SOL    HW2 8948   8.953  11.006   9.719
69037SOL     OW 8949   4.898   5.480  12.209
69037SOL    HW1 8950   4.984   5.438  12.205
69037SOL    HW2 8951   4.853   5.450  12.129
69038SOL     OW 8952   9.072   3.536   7.903
69038SOL    HW1 8953   9.032   3.505   7.822
69038SOL    HW2 8954   9.129   3.464   7.930
69039SOL     OW 8955   9.907   5.176   6.763
69039SOL    HW1 8956   9.942   5.216   6.842
69039SOL    HW2 8957   9.941   5.086   6.765
69040SOL     OW 8958   9.477   9.416  13.199
69040SOL    HW1 8959   9.444   9.328  13.217
69040SOL    HW2 8960   9.399   9.471  13.194
69041SOL     OW 8961   5.606   9.728  13.609
69041SOL    HW1 8962   5.631   9.785  13.536
69041SOL    HW2 8963   5.569   9.788  13.674
69042SOL     OW 8964   6.268  14.516   2.269
69042SOL    HW1 8965   6.358  14.514   2.300
69042SOL    HW2 8966   6.244  14.424   2.260
69043SOL     OW 8967   0.008   7.775   8.031
69043SOL    HW1 8968   0.071   7.813   7.969
69043SOL    HW2 8969   0.033   7.811   8.116
69044SOL     OW 8970   4.144   0.532   3.450
69044SOL    HW1 8971   4.195   0.454   3.429
69044SOL    HW2 8972   4.199   0.605   3.424
69045SOL     OW 8973   4.721  12.977   3.070
69045SOL    HW1 8974   4.714  12.939   2.983
69045SOL    HW2 8975   4.796  12.932   3.110
69046SOL     OW 8976   3.584  13.320   4.782
69046SOL    HW1 8977   3.659  13.326   4.842
69046SOL    HW2 8978   3.596  13.235   4.739
69047SOL     OW 8979   6.589   9.621   1.512
69047SOL    HW1 8980   6.511   9.604   1.460
69047SOL    HW2 8981   6.583   9.560   1.586
69048SOL     OW 8982   9.212  12.062  13.803
69048SOL    HW1 8983   9.281  12.128  13.792
69048SOL    HW2 8984   9.175  12.052  13.715
69049SOL     OW 8985   5.456  12.796   6.963
69049SOL    HW1 8986   5.371  12.817   7.000
69049SOL    HW2 8987   5.444  12.709   6.924
69050SOL     OW 8988   9.895   3.617   8.446
69050SOL    HW1 8989   9.931   3.692   8.493
69050SOL    HW2 8990   9.801   3.636   8.440
69051SOL     OW 8991   6.197  11.642  11.028
69051SOL    HW1 8992   6.272  11.620  11.083
69051SOL    HW2 8993   6.146  11.560  11.024
69052SOL     OW 8994   2.019   6.304   6.844
69052SOL    HW1 8995   1.928   6.281   6.824
69052SOL    HW2 8996   2.012   6.387   6.892
69053SOL     OW 8997   9.534   4.223  11.900
69053SOL    HW1 8998   9.552   4.233  11.994
69053SOL    HW2 8999   9.449   4.265  11.887
69054SOL     OW 9000  12.596   2.767   6.015
69054SOL    HW1 9001  12.651   2.783   6.092
69054SOL    HW2 9002  12.532   2.702   6.045
69055SOL     OW 9003   6.460  10.382   0.145
69055SOL    HW1 9004   6.490  10.314   0.085
69055SOL    HW2 9005   6.366  10.387   0.129
69056SOL     OW 9006  13.912   7.791   0.264
69056SOL    HW1 9007  13.975   7.749   0.322
69056SOL    HW2 9008  13.901   7.729   0.192
69057SOL     OW 9009   5.296  12.274   6.424
69057SOL    HW1 9010   5.285  12.180   6.431
69057SOL    HW2 9011   5.276  12.295   6.333
69058SOL     OW 9012   0.088   2.203   4.185
69058SOL    HW1 9013   0.105   2.212   4.279
69058SOL    HW2 9014   0.021   2.269   4.167
69059SOL     OW 9015  12.619   4.266  11.300
69059SOL    HW1 9016  12.591   4.185  11.257
69059SOL    HW2 9017  12.543   4.292  11.352
69060SOL     OW 9018   0.385  13.890  12.767
69060SOL    HW1 9019   0.319  13.852  12.825
69060SOL    HW2 9020   0.349  13.974  12.741
69061SOL     OW 9021   1.244  13.225  14.833
69061SOL    HW1 9022   1.225  13.297  14.773
69061SOL    HW2 9023   1.175  13.161  14.817
69062SOL     OW 9024   6.058   6.834   0.424
69062SOL    HW1 9025   5.970   6.795   0.427
69062SOL    HW2 9026   6.066   6.879   0.508
69063SOL     OW 9027   6.365  10.441   8.137
69063SOL    HW1 9028   6.449  10.469   8.101
69063SOL    HW2 9029   6.372  10.459   8.231
69064SOL     OW 9030   7.218   7.064   6.504
69064SOL    HW1 9031   7.132   7.105   6.514
69064SOL    HW2 9032   7.275   7.134   6.474
69065SOL     OW 9033   1.348  11.158   6.368
69065SOL    HW1 9034   1.370  11.213   6.444
69065SOL    HW2 9035   1.405  11.081   6.377
69066SOL     OW 9036  13.759  13.362   7.736
69066SOL    HW1 9037  13.846  13.378   7.699
69066SOL    HW2 9038  13.737  13.273   7.710
69067SOL     OW 9039  10.226   4.544  13.113
69067SOL    HW1 9040  10.152   4.602  13.131
69067SOL    HW2 9041  10.240   4.552  13.018
69068SOL     OW 9042   0.523  11.742   9.723
69068SOL    HW1 9043   0.557  11.748   9.812
69068SOL    HW2 9044   0.432  11.770   9.730
69069SOL     OW 9045   3.960   3.213   5.026
69069SOL    HW1 9046   4.041   3.216   5.076
69069SOL    HW2 9047   3.920   3.129   5.051
69070SOL     OW 9048   3.166   4.328   3.276
69070SOL    HW1 9049   3.073   4.328   3.254
69070SOL    HW2 9050   3.208   4.373   3.202
69071SOL     OW 9051  14.264   5.263   7.538
69071SOL    HW1 9052  14.301   5.177   7.557
69071SOL    HW2 9053  14.171   5.255   7.561
69072SOL     OW 9054   8.281   8.320   4.742
69072SOL    HW1 9055   8.238   8.322   4.828
69072SOL    HW2 9056   8.213   8.291   4.682
69073SOL     OW 9057  10.071   6.093   2.778
69073SOL    HW1 9058  10.166   6.084   2.781
69073SOL    HW2 9059  10.039   6.005   2.756
69074SOL     OW 9060  14.595   3.440  14.141
69074SOL    HW1 9061  14.671   3.499  14.144
69074SOL    HW2 9062  14.631   3.357  14.110
69075SOL     OW 9063  14.611   9.943   9.121
69075SOL    HW1 9064  14.688   9.993   9.095
69075SOL    HW2 9065  14.585   9.896   9.042
69076SOL     OW 9066   6.358   0.832   9.860
69076SOL    HW1 9067   6.340   0.859   9.770
69076SOL    HW2 9068   6.281   0.781   9.885
69077SOL     OW 9069   4.463   6.787   3.483
69077SOL    HW1 9070   4.451   6.731   3.559
69077SOL    HW2 9071   4.501   6.731   3.416
69078SOL     OW 9072   0.051   5.756   4.359
69078SOL    HW1 9073   0.123   5.778   4.299
69078SOL    HW2 9074   0.026   5.840   4.397
69079SOL     OW 9075  12.560  11.208   7.891
69079SOL    HW1 9076  12.517  11.161   7.963
69079SOL    HW2 9077  12.584  11.292   7.930
69080SOL     OW 9078  13.129   7.702   7.162
69080SOL    HW1 9079  13.083   7.659   7.233
69080SOL    HW2 9080  13.077   7.780   7.142
69081SOL     OW 9081   7.007  13.578   0.021
69081SOL    HW1 9082   6.939  13.563   0.086
69081SOL    HW2 9083   6.963  13.563  14.817
69082SOL     OW 9084   5.537   0.024   3.304
69082SOL    HW1 9085   5.617  14.852   3.295
69082SOL    HW2 9086   5.473  14.844   3.341
69083SOL     OW 9087   5.792  14.227   3.462
69083SOL    HW1 9088   5.879  14.239   3.424
69083SOL    HW2 9089   5.789  14.289   3.535
69084SOL     OW 9090   7.675   1.839   7.134
69084SOL    HW1 9091   7.685   1.772   7.065
69084SOL    HW2 9092   7.708   1.796   7.213
69085SOL     OW 9093  14.640  14.449  10.601
69085SOL    HW1 9094  14.724  14.410  10.576
69085SOL    HW2 9095  14.584  14.374  10.621
69086SOL     OW 9096   4.590   7.323   9.712
69086SOL    HW1 9097   4.520   7.305   9.775
69086SOL    HW2 9098   4.659   7.261   9.735
69087SOL     OW 9099   4.008   9.699   2.186
69087SOL    HW1 9100   3.922   9.668   2.159
69087SOL    HW2 9101   4.008   9.687   2.281
69088SOL     OW 9102   6.806   6.842  12.302
69088SOL    HW1 9103   6.781   6.826  12.211
69088SOL    HW2 9104   6.901   6.834  12.302
69089SOL     OW 9105   3.029  11.726  11.943
69089SOL    HW1 9106   2.957  11.671  11.913
69089SOL    HW2 9107   3.085  11.737  11.866
69090SOL     OW 9108  10.114   8.741   0.242
69090SOL    HW1 9109  10.065   8.728   0.160
69090SOL    HW2 9110  10.178   8.809   0.220
69091SOL     OW 9111  10.668   1.599   7.480
69091SOL    HW1 9112  10.611   1.574   7.407
69091SOL    HW2 9113  10.623   1.673   7.521
69092SOL     OW 9114  13.560   5.583   1.746
69092SOL    HW1 9115  13.585   5.673   1.764
69092SOL    HW2 9116  13.509   5.556   1.822
69093SOL     OW 9117   4.149   4.981   3.045
69093SOL    HW1 9118   4.132   4.936   2.962
69093SOL    HW2 9119   4.082   4.947   3.104
69094SOL     OW 9120   9.663  14.389  10.315
69094SOL    HW1 9121   9.674  14.443  10.393
69094SOL    HW2 9122   9.746  14.342  10.306
69095SOL     OW 9123   2.580   2.583   5.384
69095SOL    HW1 9124   2.666   2.627   5.384
69095SOL    HW2 9125   2.547   2.597   5.295
69096SOL     OW 9126   6.562   8.239  12.587
69096SOL    HW1 9127   6.492   8.264  12.527
69096SOL    HW2 9128   6.622   8.314  12.586
69097SOL     OW 9129   2.944   7.248   1.070
69097SOL    HW1 9130   2.865   7.230   1.120
69097SOL    HW2 9131   2.949   7.176   1.007
69098SOL     OW 9132   1.164  14.181   8.256
69098SOL    HW1 9133   1.228  14.143   8.317
69098SOL    HW2 9134   1.163  14.120   8.182
69099SOL     OW 9135  11.972  12.122   5.083
69099SOL    HW1 9136  11.927  12.194   5.126
69099SOL    HW2 9137  11.955  12.046   5.137
69100SOL     OW 9138   8.441  12.571   4.186
69100SOL    HW1 9139   8.519  12.587   4.238
69100SOL    HW2 9140   8.450  12.481   4.155
69101SOL     OW 9141   2.752  10.867   1.861
69101SOL    HW1 9142   2.793  10.785   1.836
69101SOL    HW2 9143   2.824  10.927   1.877
69102SOL     OW 9144   1.750   9.914  11.420
69102SOL    HW1 9145   1.752   9.861  11.500
69102SOL    HW2 9146   1.694   9.865  11.360
69103SOL     OW 9147   1.589   4.191   1.804
69103SOL    HW1 9148   1.563   4.134   1.876
69103SOL    HW2 9149   1.605   4.276   1.845
69104SOL     OW 9150   6.859  14.474  12.396
69104SOL    HW1 9151   6.828  14.503  12.310
69104SOL    HW2 9152   6.942  14.430  12.378
69105SOL     OW 9153   3.209   8.104  14.042
69105SOL    HW1 9154   3.284   8.045  14.047
69105SOL    HW2 9155   3.228   8.173  14.105
69106SOL     OW 9156  14.435   5.558   3.123
69106SOL    HW1 9157  14.436   5.502   3.201
69106SOL    HW2 9158  14.343   5.563   3.098
69107SOL     OW 9159   9.676  10.911   2.962
69107SOL    HW1 9160   9.759  10.907   2.914
69107SOL    HW2 9161   9.653  10.819   2.978
69108SOL     OW 9162   1.358  11.668   1.461
69108SOL    HW1 9163   1.268  11.682   1.433
69108SOL    HW2 9164   1.350  11.619   1.543
69109SOL     OW 9165  14.643   3.895  14.381
69109SOL    HW1 9166  14.576   3.962  14.395
69109SOL    HW2 9167  14.640   3.878  14.287
69110SOL     OW 9168   3.315   6.678  11.565
69110SOL    HW1 9169   3.299   6.592  11.604
69110SOL    HW2 9170   3.229   6.706  11.533
69111SOL     OW 9171   8.956   9.634  11.626
69111SOL    HW1 9172   8.916   9.680  11.699
69111SOL    HW2 9173   9.041   9.676  11.615
69112SOL     OW 9174   5.856   4.734   4.285
69112SOL    HW1 9175   5.776   4.726   4.337
69112SOL    HW2 9176   5.908   4.799   4.332
69113SOL     OW 9177   9.788   6.681   5.292
69113SOL    HW1 9178   9.860   6.703   5.352
69113SOL    HW2 9179   9.808   6.593   5.262
69114SOL     OW 9180  11.748   7.772  12.290
69114SOL    HW1 9181  11.761   7.829  12.365
69114SOL    HW2 9182  11.712   7.691  12.327
69115SOL     OW 9183  14.312   3.183   8.579
69115SOL    HW1 9184  14.334   3.125   8.506
69115SOL    HW2 9185  14.219   3.170   8.593
69116SOL     OW 9186   0.797   2.149  11.960
69116SOL    HW1 9187   0.859   2.154  11.887
69116SOL    HW2 9188   0.842   2.191  12.033
69117SOL     OW 9189   9.554   8.658   1.605
69117SOL    HW1 9190   9.555   8.705   1.522
69117SOL    HW2 9191   9.586   8.570   1.583
69118SOL     OW 9192   5.952   3.111   3.826
69118SOL    HW1 9193   6.034   3.095   3.778
69118SOL    HW2 9194   5.973   3.181   3.887
69119SOL     OW 9195  11.120   6.001   8.676
69119SOL    HW1 9196  11.084   5.978   8.590
69119SOL    HW2 9197  11.139   5.916   8.717
69120SOL     OW 9198   4.729  12.772   1.666
69120SOL    HW1 9199   4.643  12.730   1.669
69120SOL    HW2 9200   4.781  12.717   1.607
69121SOL     OW 9201   6.656  10.295   4.479
69121SOL    HW1 9202   6.578  10.274   4.427
69121SOL    HW2 9203   6.637  10.262   4.566
69122SOL     OW 9204  13.128   9.229   7.113
69122SOL    HW1 9205  13.033   9.234   7.099
69122SOL    HW2 9206  13.136   9.183   7.197
69123SOL     OW 9207   1.607  12.326   9.332
69123SOL    HW1 9208   1.688  12.309   9.381
69123SOL    HW2 9209   1.633  12.390   9.265
69124SOL     OW 9210   3.202   9.853  12.922
69124SOL    HW1 9211   3.236   9.772  12.883
69124SOL    HW2 9212   3.136   9.883  12.859
69125SOL     OW 9213   6.536   4.090  11.212
69125SOL    HW1 9214   6.527   4.066  11.120
69125SOL    HW2 9215   6.450   4.070  11.250
69126SOL     OW 9216   5.339   3.237   2.301
69126SOL    HW1 9217   5.298   3.305   2.248
69126SOL    HW2 9218   5.430   3.265   2.309
69127SOL     OW 9219   1.680  10.205  14.704
69127SOL    HW1 9220   1.683  10.288  14.656
69127SOL    HW2 9221   1.617  10.152  14.655
69128SOL     OW 9222  12.417   2.319  12.742
69128SOL    HW1 9223  12.413   2.341  12.835
69128SOL    HW2 9224  12.326   2.317  12.713
69129SOL     OW 9225  11.968   7.744   5.390
69129SOL    HW1 9226  11.960   7.659   5.347
69129SOL    HW2 9227  12.004   7.801   5.322
69130SOL     OW 9228   3.853   3.319   0.997
69130SOL    HW1 9229   3.860   3.314   1.092
69130SOL    HW2 9230   3.841   3.228   0.970
69131SOL     OW 9231   0.777   6.146   1.364
69131SOL    HW1 9232   0.851   6.112   1.414
69131SOL    HW2 9233   0.706   6.153   1.428
69132SOL     OW 9234  10.607   5.636   7.935
69132SOL    HW1 9235  10.585   5.724   7.907
69132SOL    HW2 9236  10.525   5.599   7.967
69133SOL     OW 9237   3.186  12.404   8.822
69133SOL    HW1 9238   3.157  12.495   8.834
69133SOL    HW2 9239   3.147  12.357   8.895
69134SOL     OW 9240  12.893   0.673   5.835
69134SOL    HW1 9241  12.818   0.615   5.825
69134SOL    HW2 9242  12.873   0.748   5.779
69135SOL     OW 9243   3.013   9.392   6.702
69135SOL    HW1 9244   3.087   9.446   6.672
69135SOL    HW2 9245   3.006   9.411   6.796
69136SOL     OW 9246   7.923   7.557  11.520
69136SOL    HW1 9247   7.982   7.515  11.582
69136SOL    HW2 9248   7.842   7.507  11.526
69137SOL     OW 9249   8.755  10.277   9.779
69137SOL    HW1 9250   8.687  10.247   9.838
69137SOL    HW2 9251   8.837  10.243   9.815
69138SOL     OW 9252   4.642   3.807   3.127
69138SOL    HW1 9253   4.597   3.810   3.043
69138SOL    HW2 9254   4.723   3.856   3.113
69139SOL     OW 9255  14.096   4.129  11.862
69139SOL    HW1 9256  14.104   4.163  11.773
69139SOL    HW2 9257  14.031   4.186  11.904
69140SOL     OW 9258  12.451   6.799   5.869
69140SOL    HW1 9259  12.487   6.876   5.827
69140SOL    HW2 9260  12.385   6.833   5.930
69141SOL     OW 9261  11.640  10.790  13.782
69141SOL    HW1 9262  11.572  10.754  13.725
69141SOL    HW2 9263  11.596  10.860  13.831
69142SOL     OW 9264   5.585   4.616   6.517
69142SOL    HW1 9265   5.589   4.709   6.539
69142SOL    HW2 9266   5.600   4.613   6.422
69143SOL     OW 9267  10.311   8.769  11.382
69143SOL    HW1 9268  10.321   8.844  11.324
69143SOL    HW2 9269  10.226   8.781  11.423
69144SOL     OW 9270   0.692   5.282   2.498
69144SOL    HW1 9271   0.661   5.235   2.420
69144SOL    HW2 9272   0.704   5.372   2.469
69145SOL     OW 9273   6.514   1.537   7.917
69145SOL    HW1 9274   6.603   1.564   7.938
69145SOL    HW2 9275   6.475   1.614   7.875
69146SOL     OW 9276   3.261   0.433  14.791
69146SOL    HW1 9277   3.354   0.424  14.807
69146SOL    HW2 9278   3.235   0.509  14.844
69147SOL     OW 9279   9.523   8.860   0.695
69147SOL    HW1 9280   9.435   8.884   0.666
69147SOL    HW2 9281   9.539   8.918   0.770
69148SOL     OW 9282   2.280  10.422   1.779
69148SOL    HW1 9283   2.216  10.356   1.807
69148SOL    HW2 9284   2.278  10.418   1.683
69149SOL     OW 9285   9.490   0.849  11.555
69149SOL    HW1 9286   9.484   0.900  11.474
69149SOL    HW2 9287   9.423   0.888  11.612
69150SOL     OW 9288   1.516   7.867  14.272
69150SOL    HW1 9289   1.608   7.890  14.265
69150SOL    HW2 9290   1.474   7.911  14.197
69151SOL     OW 9291  13.700   2.744   1.376
69151SOL    HW1 9292  13.712   2.710   1.465
69151SOL    HW2 9293  13.786   2.733   1.335
69152SOL     OW 9294   4.198   5.406   2.413
69152SOL    HW1 9295   4.185   5.325   2.461
69152SOL    HW2 9296   4.242   5.380   2.333
69153SOL     OW 9297   6.288  10.182   9.745
69153SOL    HW1 9298   6.232  10.165   9.669
69153SOL    HW2 9299   6.377  10.163   9.714
69154SOL     OW 9300   6.068   3.221   6.625
69154SOL    HW1 9301   6.157   3.187   6.638
69154SOL    HW2 9302   6.056   3.284   6.696
69155SOL     OW 9303   8.491  12.634   7.822
69155SOL    HW1 9304   8.464  12.712   7.773
69155SOL    HW2 9305   8.427  12.567   7.798
69156SOL     OW 9306  13.094  11.035   7.529
69156SOL    HW1 9307  13.059  10.946   7.520
69156SOL    HW2 9308  13.187  11.027   7.511
69157SOL     OW 9309   3.877   5.799  13.531
69157SOL    HW1 9310   3.858   5.817  13.438
69157SOL    HW2 9311   3.962   5.755  13.529
69158SOL     OW 9312   2.198   2.200   9.290
69158SOL    HW1 9313   2.229   2.201   9.380
69158SOL    HW2 9314   2.158   2.114   9.280
69159SOL     OW 9315   2.706   5.821  14.236
69159SOL    HW1 9316   2.703   5.862  14.322
69159SOL    HW2 9317   2.787   5.769  14.237
69160SOL     OW 9318   2.247  12.836   3.195
69160SOL    HW1 9319   2.277  12.745   3.200
69160SOL    HW2 9320   2.157  12.829   3.161
69161SOL     OW 9321   8.455   9.789   2.432
69161SOL    HW1 9322   8.442   9.849   2.506
69161SOL    HW2 9323   8.369   9.750   2.417
69162SOL     OW 9324   4.598   4.259   9.985
69162SOL    HW1 9325   4.680   4.260  10.034
69162SOL    HW2 9326   4.558   4.344  10.004
69163SOL     OW 9327   6.980   0.533   7.197
69163SOL    HW1 9328   7.070   0.502   7.194
69163SOL    HW2 9329   6.943   0.508   7.113
69164SOL     OW 9330   1.757  14.679  11.363
69164SOL    HW1 9331   1.708  14.749  11.319
69164SOL    HW2 9332   1.772  14.613  11.295
69165SOL     OW 9333  14.572   4.168   1.499
69165SOL    HW1 9334  14.630   4.128   1.433
69165SOL    HW2 9335  14.551   4.097   1.559
69166SOL     OW 9336   3.078   3.247   2.092
69166SOL    HW1 9337   3.095   3.231   2.184
69166SOL    HW2 9338   3.125   3.177   2.046
69167SOL     OW 9339   2.817   6.697   0.064
69167SOL    HW1 9340   2.838   6.681  14.852
69167SOL    HW2 9341   2.899   6.683   0.111
69168SOL     OW 9342   8.035   1.219  14.613
69168SOL    HW1 9343   8.070   1.130  14.607
69168SOL    HW2 9344   7.948   1.213  14.572
69169SOL     OW 9345  13.401   3.280  12.868
69169SOL    HW1 9346  13.391   3.203  12.812
69169SOL    HW2 9347  13.451   3.249  12.943
69170SOL     OW 9348  11.721   5.250  13.232
69170SOL    HW1 9349  11.747   5.158  13.228
69170SOL    HW2 9350  11.799   5.298  13.205
69171SOL     OW 9351   5.990   2.970   3.201
69171SOL    HW1 9352   5.979   3.002   3.290
69171SOL    HW2 9353   6.050   2.896   3.209
69172SOL     OW 9354   7.550  13.490   9.619
69172SOL    HW1 9355   7.584  13.411   9.661
69172SOL    HW2 9356   7.520  13.544   9.692
69173SOL     OW 9357  14.847   0.310   8.062
69173SOL    HW1 9358   0.025   0.331   7.988
69173SOL    HW2 9359  14.793   0.238   8.031
69174SOL     OW 9360   1.347   1.882   4.109
69174SOL    HW1 9361   1.350   1.816   4.178
69174SOL    HW2 9362   1.312   1.836   4.033
69175SOL     OW 9363   9.938   8.435   7.733
69175SOL    HW1 9364   9.857   8.402   7.771
69175SOL    HW2 9365   9.982   8.357   7.698
69176SOL     OW 9366   7.417   7.265   9.507
69176SOL    HW1 9367   7.342   7.303   9.553
69176SOL    HW2 9368   7.378   7.208   9.440
69177SOL     OW 9369   2.156   9.048   7.013
69177SOL    HW1 9370   2.249   9.036   7.029
69177SOL    HW2 9371   2.132   8.978   6.952
69178SOL     OW 9372   9.883   6.001  10.177
69178SOL    HW1 9373   9.876   5.974  10.085
69178SOL    HW2 9374   9.935   5.932  10.218
69179SOL     OW 9375  10.136   4.619   2.142
69179SOL    HW1 9376  10.083   4.539   2.136
69179SOL    HW2 9377  10.202   4.609   2.073
69180SOL     OW 9378  10.501  13.446  10.446
69180SOL    HW1 9379  10.510  13.540  10.464
69180SOL    HW2 9380  10.450  13.413  10.520
69181SOL     OW 9381  13.137   9.130   7.374
69181SOL    HW1 9382  13.066   9.070   7.351
69181SOL    HW2 9383  13.173   9.095   7.456
69182SOL     OW 9384   0.658   6.117   0.760
69182SOL    HW1 9385   0.576   6.080   0.793
69182SOL    HW2 9386   0.682   6.184   0.824
69183SOL     OW 9387   9.614   7.616   5.608
69183SOL    HW1 9388   9.543   7.552   5.611
69183SOL    HW2 9389   9.570   7.700   5.619
69184SOL     OW 9390  14.869   0.882  10.895
69184SOL    HW1 9391  14.801   0.885  10.828
69184SOL    HW2 9392  14.822   0.873  10.977
69185SOL     OW 9393  11.505   6.049   8.876
69185SOL    HW1 9394  11.477   6.130   8.918
69185SOL    HW2 9395  11.543   6.076   8.793
69186SOL     OW 9396   5.116   6.522  14.272
69186SOL    HW1 9397   5.186   6.461  14.298
69186SOL    HW2 9398   5.051   6.467  14.229
69187SOL     OW 9399   2.409   5.420   0.465
69187SOL    HW1 9400   2.388   5.490   0.527
69187SOL    HW2 9401   2.349   5.349   0.488
69188SOL     OW 9402  11.713  12.757   4.382
69188SOL    HW1 9403  11.660  12.774   4.460
69188SOL    HW2 9404  11.722  12.662   4.380
69189SOL     OW 9405   3.457   8.549   7.130
69189SOL    HW1 9406   3.530   8.584   7.182
69189SOL    HW2 9407   3.466   8.454   7.138
69190SOL     OW 9408   4.233   6.618   0.115
69190SOL    HW1 9409   4.137   6.618   0.114
69190SOL    HW2 9410   4.258   6.695   0.064
69191SOL     OW 9411  13.488   3.069  11.122
69191SOL    HW1 9412  13.446   3.000  11.173
69191SOL    HW2 9413  13.479   3.147  11.176
69192SOL     OW 9414   1.348   2.625  12.697
69192SOL    HW1 9415   1.284   2.608  12.628
69192SOL    HW2 9416   1.429   2.586  12.663
69193SOL     OW 9417  12.150  12.122   8.879
69193SOL    HW1 9418  12.214  12.051   8.873
69193SOL    HW2 9419  12.161  12.172   8.798
69194SOL     OW 9420  14.863   7.636  12.061
69194SOL    HW1 9421   0.032   7.598  12.134
69194SOL    HW2 9422   0.045   7.699  12.022
69195SOL     OW 9423   3.961  10.226  10.280
69195SOL    HW1 9424   3.960  10.156  10.345
69195SOL    HW2 9425   4.053  10.236  10.257
69196SOL     OW 9426   4.697  12.001  10.148
69196SOL    HW1 9427   4.624  12.003  10.087
69196SOL    HW2 9428   4.766  12.052  10.105
69197SOL     OW 9429   7.737   6.191   7.566
69197SOL    HW1 9430   7.799   6.217   7.498
69197SOL    HW2 9431   7.785   6.128   7.620
69198SOL     OW 9432  10.070   6.031   6.622
69198SOL    HW1 9433   9.988   5.984   6.606
69198SOL    HW2 9434  10.047   6.124   6.609
69199SOL     OW 9435  13.326  12.832   1.180
69199SOL    HW1 9436  13.293  12.743   1.193
69199SOL    HW2 9437  13.254  12.889   1.207
69200SOL     OW 9438  14.422  13.607  12.164
69200SOL    HW1 9439  14.475  13.581  12.088
69200SOL    HW2 9440  14.486  13.619  12.234
69201SOL     OW 9441  14.519   0.918   8.016
69201SOL    HW1 9442  14.575   0.995   8.028
69201SOL    HW2 9443  14.508   0.912   7.921
69202SOL     OW 9444   2.273  10.837   3.858
69202SOL    HW1 9445   2.199  10.800   3.907
69202SOL    HW2 9446   2.333  10.870   3.925
69203SOL     OW 9447   1.341   6.356   5.917
69203SOL    HW1 9448   1.385   6.291   5.971
69203SOL    HW2 9449   1.334   6.433   5.973
69204SOL     OW 9450  10.277   4.333  13.586
69204SOL    HW1 9451  10.239   4.395  13.524
69204SOL    HW2 9452  10.204   4.306  13.641
69205SOL     OW 9453   8.757  10.627   8.482
69205SOL    HW1 9454   8.742  10.665   8.569
69205SOL    HW2 9455   8.851  10.606   8.481
69206SOL     OW 9456   6.476   1.608   7.178
69206SOL    HW1 9457   6.571   1.615   7.172
69206SOL    HW2 9458   6.461   1.551   7.254
69207SOL     OW 9459   7.070  11.077  10.203
69207SOL    HW1 9460   7.051  11.133  10.128
69207SOL    HW2 9461   7.163  11.091  10.220
69208SOL     OW 9462   9.931   6.396  13.098
69208SOL    HW1 9463   9.980   6.317  13.123
69208SOL    HW2 9464   9.894   6.428  13.180
69209SOL     OW 9465   5.917  13.196   2.276
69209SOL    HW1 9466   5.840  13.181   2.221
69209SOL    HW2 9467   5.963  13.112   2.277
69210SOL     OW 9468   0.798   8.494   9.144
69210SOL    HW1 9469   0.887   8.513   9.173
69210SOL    HW2 9470   0.745   8.498   9.223
69211SOL     OW 9471  12.925   9.246  12.259
69211SOL    HW1 9472  12.928   9.334  12.296
69211SOL    HW2 9473  12.861   9.251  12.188
69212SOL     OW 9474   9.592   5.876   2.443
69212SOL    HW1 9475   9.657   5.919   2.388
69212SOL    HW2 9476   9.511   5.882   2.394
69213SOL     OW 9477   5.370   4.727  13.374
69213SOL    HW1 9478   5.351   4.639  13.342
69213SOL    HW2 9479   5.288   4.756  13.415
69214SOL     OW 9480  14.842  12.481  11.374
69214SOL    HW1 9481  14.820  12.544  11.306
69214SOL    HW2 9482  14.762  12.429  11.385
69215SOL     OW 9483   4.804   0.766   3.926
69215SOL    HW1 9484   4.814   0.765   4.021
69215SOL    HW2 9485   4.725   0.715   3.909
69216SOL     OW 9486   3.283  11.533   3.381
69216SOL    HW1 9487   3.282  11.485   3.464
69216SOL    HW2 9488   3.195  11.518   3.345
69217SOL     OW 9489  10.545  14.498   7.698
69217SOL    HW1 9490  10.578  14.483   7.610
69217SOL    HW2 9491  10.525  14.592   7.701
69218SOL     OW 9492  14.553   1.611   8.121
69218SOL    HW1 9493  14.580   1.675   8.187
69218SOL    HW2 9494  14.472   1.647   8.084
69219SOL     OW 9495   5.523   5.236  10.584
69219SOL    HW1 9496   5.501   5.328  10.572
69219SOL    HW2 9497   5.581   5.234  10.660
69220SOL     OW 9498   7.349   2.662  12.631
69220SOL    HW1 9499   7.304   2.746  12.635
69220SOL    HW2 9500   7.435   2.678  12.669
69221SOL     OW 9501   4.209   2.764  14.697
69221SOL    HW1 9502   4.147   2.820  14.744
69221SOL    HW2 9503   4.241   2.702  14.762
69222SOL     OW 9504  10.646  14.549  10.900
69222SOL    HW1 9505  10.661  14.563  10.806
69222SOL    HW2 9506  10.687  14.624  10.943
69223SOL     OW 9507   1.211  14.360   3.497
69223SOL    HW1 9508   1.267  14.352   3.575
69223SOL    HW2 9509   1.141  14.418   3.526
69224SOL     OW 9510   6.240  12.540   0.471
69224SOL    HW1 9511   6.316  12.482   0.465
69224SOL    HW2 9512   6.168  12.482   0.494
69225SOL     OW 9513   0.081   8.576   2.974
69225SOL    HW1 9514   0.171   8.573   2.940
69225SOL    HW2 9515   0.027   8.542   2.904
69226SOL     OW 9516   7.215   3.529   7.732
69226SOL    HW1 9517   7.271   3.601   7.760
69226SOL    HW2 9518   7.272   3.472   7.681
69227SOL     OW 9519  12.919  12.107   3.008
69227SOL    HW1 9520  12.923  12.076   3.098
69227SOL    HW2 9521  12.829  12.136   2.996
69228SOL     OW 9522   2.735   0.593  13.080
69228SOL    HW1 9523   2.644   0.618  13.094
69228SOL    HW2 9524   2.786   0.669  13.109
69229SOL     OW 9525   6.776   7.757   1.828
69229SOL    HW1 9526   6.729   7.775   1.910
69229SOL    HW2 9527   6.732   7.680   1.792
69230SOL     OW 9528   9.526   8.106  11.588
69230SOL    HW1 9529   9.492   8.133  11.503
69230SOL    HW2 9530   9.470   8.034  11.615
69231SOL     OW 9531  12.731   1.125   6.646
69231SOL    HW1 9532  12.786   1.058   6.606
69231SOL    HW2 9533  12.791   1.182   6.693
69232SOL     OW 9534   8.078   1.777  14.062
69232SOL    HW1 9535   7.996   1.744  14.099
69232SOL    HW2 9536   8.146   1.736  14.116
69233SOL     OW 9537   0.889  11.395   0.062
69233SOL    HW1 9538   0.822  11.459   0.085
69233SOL    HW2 9539   0.909  11.413  14.849
69234SOL     OW 9540   4.576   3.506   4.416
69234SOL    HW1 9541   4.608   3.488   4.327
69234SOL    HW2 9542   4.654   3.505   4.470
69235SOL     OW 9543  13.080   6.773   1.594
69235SOL    HW1 9544  13.057   6.857   1.633
69235SOL    HW2 9545  13.124   6.796   1.512
69236SOL     OW 9546   1.980   0.842  11.645
69236SOL    HW1 9547   2.074   0.842  11.665
69236SOL    HW2 9548   1.950   0.755  11.672
69237SOL     OW 9549   8.046   0.145   8.689
69237SOL    HW1 9550   7.959   0.123   8.724
69237SOL    HW2 9551   8.075   0.218   8.743
69238SOL     OW 9552   2.849   2.377  13.747
69238SOL    HW1 9553   2.800   2.443  13.697
69238SOL    HW2 9554   2.918   2.348  13.686
69239SOL     OW 9555   6.765   4.297   0.318
69239SOL    HW1 9556   6.767   4.308   0.223
69239SOL    HW2 9557   6.817   4.370   0.352
69240SOL     OW 9558   6.681  12.875  14.200
69240SOL    HW1 9559   6.714  12.789  14.226
69240SOL    HW2 9560   6.632  12.859  14.120
69241SOL     OW 9561   1.859   7.188   3.201
69241SOL    HW1 9562   1.936   7.208   3.148
69241SOL    HW2 9563   1.785   7.201   3.140
69242SOL     OW 9564   5.809   0.901   5.812
69242SOL    HW1 9565   5.878   0.936   5.868
69242SOL    HW2 9566   5.760   0.978   5.783
69243SOL     OW 9567  11.464   2.517  14.684
69243SOL    HW1 9568  11.539   2.562  14.646
69243SOL    HW2 9569  11.498   2.479  14.766
69244SOL     OW 9570   3.695   7.659  12.187
69244SOL    HW1 9571   3.730   7.637  12.273
69244SOL    HW2 9572   3.736   7.742  12.164
69245SOL     OW 9573   9.722   6.070   2.304
69245SOL    HW1 9574   9.739   6.164   2.297
69245SOL    HW2 9575   9.740   6.036   2.217
69246SOL     OW 9576   1.666   2.894   5.229
69246SOL    HW1 9577   1.738   2.948   5.262
69246SOL    HW2 9578   1.626   2.856   5.307
69247SOL     OW 9579   0.192   9.646   8.849
69247SOL    HW1 9580   0.216   9.566   8.802
69247SOL    HW2 9581   0.098   9.656   8.834
69248SOL     OW 9582   5.069   2.927   5.537
69248SOL    HW1 9583   5.049   2.998   5.597
69248SOL    HW2 9584   5.016   2.946   5.459
69249SOL     OW 9585   6.118   4.142  12.811
69249SOL    HW1 9586   6.191   4.173  12.866
69249SOL    HW2 9587   6.040   4.182  12.849
69250SOL     OW 9588   0.540   5.066   4.012
69250SOL    HW1 9589   0.463   5.028   3.971
69250SOL    HW2 9590   0.505   5.120   4.083
69251SOL     OW 9591  11.996   5.189   6.513
69251SOL    HW1 9592  11.935   5.157   6.580
69251SOL    HW2 9593  11.940   5.223   6.444
69252SOL     OW 9594  12.903  14.700   5.312
69252SOL    HW1 9595  12.943  14.628   5.360
69252SOL    HW2 9596  12.956  14.776   5.335
69253SOL     OW 9597  10.587   5.401   3.340
69253SOL    HW1 9598  10.577   5.316   3.297
69253SOL    HW2 9599  10.497   5.430   3.356
69254SOL     OW 9600   2.169  10.098   0.073
69254SOL    HW1 9601   2.109  10.153   0.023
69254SOL    HW2 9602   2.138  10.008   0.056
69255SOL     OW 9603   7.165   3.317   7.226
69255SOL    HW1 9604   7.252   3.355   7.230
69255SOL    HW2 9605   7.126   3.353   7.147
69256SOL     OW 9606  11.793   1.733   4.199
69256SOL    HW1 9607  11.814   1.709   4.289
69256SOL    HW2 9608  11.872   1.711   4.150
69257SOL     OW 9609  11.462   8.160   9.864
69257SOL    HW1 9610  11.539   8.209   9.894
69257SOL    HW2 9611  11.499   8.089   9.812
69258SOL     OW 9612  11.903  10.961   7.907
69258SOL    HW1 9613  11.872  10.977   7.818
69258SOL    HW2 9614  11.841  10.898   7.943
69259SOL     OW 9615  11.239  14.121   7.756
69259SOL    HW1 9616  11.290  14.152   7.681
69259SOL    HW2 9617  11.176  14.059   7.718
69260SOL     OW 9618   8.522  10.304  12.549
69260SOL    HW1 9619   8.542  10.296  12.455
69260SOL    HW2 9620   8.427  10.315  12.552
69261SOL     OW 9621   2.039  10.563   9.434
69261SOL    HW1 9622   1.989  10.504   9.377
69261SOL    HW2 9623   2.114  10.590   9.382
69262SOL     OW 9624   8.732   3.308  12.873
69262SOL    HW1 9625   8.649   3.306  12.921
69262SOL    HW2 9626   8.725   3.383  12.815
69263SOL     OW 9627  12.815  14.197   7.119
69263SOL    HW1 9628  12.902  14.236   7.129
69263SOL    HW2 9629  12.822  14.144   7.039
69264SOL     OW 9630  13.824   6.245  12.881
69264SOL    HW1 9631  13.856   6.265  12.793
69264SOL    HW2 9632  13.741   6.292  12.888
69265SOL     OW 9633   6.536  14.389  13.954
69265SOL    HW1 9634   6.601  14.438  14.004
69265SOL    HW2 9635   6.517  14.313  14.008
69266SOL     OW 9636  12.644   3.540  12.736
69266SOL    HW1 9637  12.682   3.453  12.725
69266SOL    HW2 9638  12.663   3.563  12.827
69267SOL     OW 9639   5.560   7.806  12.997
69267SOL    HW1 9640   5.480   7.854  13.020
69267SOL    HW2 9641   5.631   7.860  13.032
69268SOL     OW 9642  11.602  13.539   6.699
69268SOL    HW1 9643  11.608  13.630   6.729
69268SOL    HW2 9644  11.568  13.545   6.610
69269SOL     OW 9645  11.031   5.841   2.767
69269SOL    HW1 9646  11.058   5.788   2.842
69269SOL    HW2 9647  10.973   5.783   2.717
69270SOL     OW 9648   1.435   0.536   1.790
69270SOL    HW1 9649   1.344   0.507   1.783
69270SOL    HW2 9650   1.450   0.547   1.884
69271SOL     OW 9651   1.408  13.061   3.564
69271SOL    HW1 9652   1.361  13.120   3.623
69271SOL    HW2 9653   1.435  13.118   3.491
69272SOL     OW 9654   1.590  12.236   6.929
69272SOL    HW1 9655   1.631  12.318   6.958
69272SOL    HW2 9656   1.503  12.263   6.899
69273SOL     OW 9657  10.919  10.714   1.779
69273SOL    HW1 9658  10.949  10.796   1.739
69273SOL    HW2 9659  10.952  10.646   1.720
69274SOL     OW 9660  13.856   9.837   3.294
69274SOL    HW1 9661  13.857   9.880   3.209
69274SOL    HW2 9662  13.857   9.909   3.358
69275SOL     OW 9663   4.148   4.281   0.614
69275SOL    HW1 9664   4.123   4.371   0.636
69275SOL    HW2 9665   4.173   4.242   0.697
69276SOL     OW 9666   3.158   1.921  12.767
69276SOL    HW1 9667   3.242   1.893  12.805
69276SOL    HW2 9668   3.095   1.856  12.797
69277SOL     OW 9669  14.448   2.653   3.821
69277SOL    HW1 9670  14.361   2.627   3.791
69277SOL    HW2 9671  14.469   2.731   3.769
69278SOL     OW 9672   6.493   6.525   9.404
69278SOL    HW1 9673   6.480   6.475   9.323
69278SOL    HW2 9674   6.512   6.459   9.470
69279SOL     OW 9675  12.618   6.849   1.202
69279SOL    HW1 9676  12.586   6.838   1.112
69279SOL    HW2 9677  12.543   6.882   1.250
69280SOL     OW 9678   2.075   3.916   3.265
69280SOL    HW1 9679   2.033   4.001   3.272
69280SOL    HW2 9680   2.014   3.856   3.308
69281SOL     OW 9681  10.381  11.423   9.107
69281SOL    HW1 9682  10.329  11.468   9.041
69281SOL    HW2 9683  10.404  11.491   9.170
69282SOL     OW 9684   2.504  12.657   3.112
69282SOL    HW1 9685   2.471  12.622   3.195
69282SOL    HW2 9686   2.576  12.714   3.136
69283SOL     OW 9687  13.480  12.415  14.520
69283SOL    HW1 9688  13.485  12.510  14.511
69283SOL    HW2 9689  13.390  12.394  14.496
69284SOL     OW 9690   0.063  11.944  12.691
69284SOL    HW1 9691   0.083  11.868  12.745
69284SOL    HW2 9692   0.022  11.908  12.612
69285SOL     OW 9693   9.632   1.149   4.833
69285SOL    HW1 9694   9.669   1.200   4.906
69285SOL    HW2 9695   9.538   1.161   4.842
69286SOL     OW 9696   5.536   7.426   9.332
69286SOL    HW1 9697   5.556   7.492   9.398
69286SOL    HW2 9698   5.511   7.349   9.382
69287SOL     OW 9699   2.122   1.054   6.180
69287SOL    HW1 9700   2.120   0.987   6.112
69287SOL    HW2 9701   2.068   1.125   6.146
69288SOL     OW 9702   1.421  10.524   4.998
69288SOL    HW1 9703   1.345  10.508   4.943
69288SOL    HW2 9704   1.487  10.559   4.939
69289SOL     OW 9705   4.154   9.130  10.642
69289SOL    HW1 9706   4.236   9.157  10.683
69289SOL    HW2 9707   4.119   9.210  10.603
69290SOL     OW 9708   3.416   5.686   5.441
69290SOL    HW1 9709   3.430   5.780   5.430
69290SOL    HW2 9710   3.324   5.678   5.465
69291SOL     OW 9711   6.406   0.252  14.685
69291SOL    HW1 9712   6.494   0.217  14.669
69291SOL    HW2 9713   6.387   0.227  14.775
69292SOL     OW 9714   9.671   9.387  13.470
69292SOL    HW1 9715   9.654   9.478  13.493
69292SOL    HW2 9716   9.611   9.369  13.397
69293SOL     OW 9717   2.417   4.945   2.593
69293SOL    HW1 9718   2.341   4.967   2.648
69293SOL    HW2 9719   2.381   4.889   2.525
69294SOL     OW 9720   8.182  13.551  14.309
69294SOL    HW1 9721   8.240  13.624  14.288
69294SOL    HW2 9722   8.222  13.510  14.385
69295SOL     OW 9723   6.969   4.151   4.581
69295SOL    HW1 9724   6.884   4.120   4.614
69295SOL    HW2 9725   6.999   4.080   4.524
69296SOL     OW 9726   9.759  12.611  14.644
69296SOL    HW1 9727   9.672  12.648  14.652
69296SOL    HW2 9728   9.797  12.653  14.567
69297SOL     OW 9729   2.023  11.406   1.360
69297SOL    HW1 9730   2.111  11.370   1.353
69297SOL    HW2 9731   2.018  11.471   1.289
69298SOL     OW 9732   3.442  11.075   2.915
69298SOL    HW1 9733   3.429  11.167   2.891
69298SOL    HW2 9734   3.397  11.065   2.999
69299SOL     OW 9735  10.370   6.813   9.755
69299SOL    HW1 9736  10.370   6.827   9.661
69299SOL    HW2 9737  10.406   6.893   9.792
69300SOL     OW 9738   0.699   6.633   5.082
69300SOL    HW1 9739   0.778   6.580   5.074
69300SOL    HW2 9740   0.673   6.651   4.992
69301SOL     OW 9741   1.457  14.529   2.484
69301SOL    HW1 9742   1.464  14.433   2.481
69301SOL    HW2 9743   1.537  14.557   2.528
69302SOL     OW 9744   5.880  12.628   1.415
69302SOL    HW1 9745   5.961  12.677   1.425
69302SOL    HW2 9746   5.856  12.604   1.505
69303SOL     OW 9747  14.028   7.244   5.121
69303SOL    HW1 9748  13.950   7.203   5.085
69303SOL    HW2 9749  14.084   7.171   5.148
69304SOL     OW 9750  11.673   4.432   1.439
69304SOL    HW1 9751  11.731   4.359   1.418
69304SOL    HW2 9752  11.663   4.427   1.534
69305SOL     OW 9753  10.201   2.048   3.284
69305SOL    HW1 9754  10.274   2.011   3.333
69305SOL    HW2 9755  10.131   2.057   3.349
69306SOL     OW 9756  12.602   8.646   4.764
69306SOL    HW1 9757  12.516   8.665   4.727
69306SOL    HW2 9758  12.641   8.732   4.781
69307SOL     OW 9759   1.435   1.785  11.994
69307SOL    HW1 9760   1.503   1.725  12.024
69307SOL    HW2 9761   1.360   1.728  11.975
69308SOL     OW 9762  11.542   6.509   8.084
69308SOL    HW1 9763  11.579   6.546   8.003
69308SOL    HW2 9764  11.458   6.470   8.056
69309SOL     OW 9765   4.208   7.888   0.645
69309SOL    HW1 9766   4.151   7.847   0.580
69309SOL    HW2 9767   4.239   7.815   0.698
69310SOL     OW 9768   3.534   9.513   2.280
69310SOL    HW1 9769   3.564   9.425   2.302
69310SOL    HW2 9770   3.609   9.554   2.237
69311SOL     OW 9771   8.970  11.066   3.034
69311SOL    HW1 9772   8.927  11.150   3.050
69311SOL    HW2 9773   8.971  11.022   3.119
69312SOL     OW 9774   9.743   0.170   7.093
69312SOL    HW1 9775   9.738   0.265   7.093
69312SOL    HW2 9776   9.820   0.149   7.042
69313SOL     OW 9777  11.901  14.197   8.971
69313SOL    HW1 9778  11.928  14.265   8.909
69313SOL    HW2 9779  11.966  14.203   9.042
69314SOL     OW 9780  11.691   7.710   9.481
69314SOL    HW1 9781  11.618   7.768   9.458
69314SOL    HW2 9782  11.769   7.756   9.449
69315SOL     OW 9783   1.710  13.994   6.551
69315SOL    HW1 9784   1.795  13.951   6.557
69315SOL    HW2 9785   1.659  13.956   6.623
69316SOL     OW 9786  10.777   6.527  10.772
69316SOL    HW1 9787  10.866   6.505  10.743
69316SOL    HW2 9788  10.769   6.484  10.857
69317SOL     OW 9789   8.732   3.507   5.852
69317SOL    HW1 9790   8.713   3.413   5.843
69317SOL    HW2 9791   8.673   3.537   5.921
69318SOL     OW 9792  11.598   5.863   4.653
69318SOL    HW1 9793  11.691   5.846   4.671
69318SOL    HW2 9794  11.592   5.870   4.558
69319SOL     OW 9795   3.942   5.293   1.182
69319SOL    HW1 9796   3.933   5.272   1.089
69319SOL    HW2 9797   3.895   5.375   1.193
69320SOL     OW 9798   1.803  14.212   4.620
69320SOL    HW1 9799   1.807  14.151   4.547
69320SOL    HW2 9800   1.888  14.206   4.662
69321SOL     OW 9801   1.826  14.232   5.945
69321SOL    HW1 9802   1.740  14.215   5.983
69321SOL    HW2 9803   1.807  14.255   5.854
69322SOL     OW 9804  11.677   6.177   1.321
69322SOL    HW1 9805  11.633   6.244   1.268
69322SOL    HW2 9806  11.606   6.120   1.351
69323SOL     OW 9807   3.467   0.925   7.267
69323SOL    HW1 9808   3.488   0.924   7.360
69323SOL    HW2 9809   3.552   0.929   7.223
69324SOL     OW 9810  10.958   3.121  11.919
69324SOL    HW1 9811  10.889   3.136  11.984
69324SOL    HW2 9812  11.007   3.203  11.916
69325SOL     OW 9813   2.298   6.535  11.026
69325SOL    HW1 9814   2.282   6.443  11.004
69325SOL    HW2 9815   2.300   6.580  10.942
69326SOL     OW 9816   7.028  12.109   7.576
69326SOL    HW1 9817   6.996  12.030   7.533
69326SOL    HW2 9818   7.120  12.090   7.597
69327SOL     OW 9819  11.266  14.624   4.692
69327SOL    HW1 9820  11.198  14.665   4.639
69327SOL    HW2 9821  11.261  14.667   4.777
69328SOL     OW 9822  13.424   1.946   7.949
69328SOL    HW1 9823  13.330   1.961   7.957
69328SOL    HW2 9824  13.464   2.020   7.994
69329SOL     OW 9825  11.780   7.382   9.054
69329SOL    HW1 9826  11.799   7.305   9.001
69329SOL    HW2 9827  11.744   7.446   8.993
69330SOL     OW 9828   8.702  12.467   7.936
69330SOL    HW1 9829   8.663  12.533   7.879
69330SOL    HW2 9830   8.771  12.513   7.983
69331SOL     OW 9831   0.177   9.133   4.527
69331SOL    HW1 9832   0.188   9.086   4.444
69331SOL    HW2 9833   0.096   9.182   4.516
69332SOL     OW 9834   9.576  13.324  10.993
69332SOL    HW1 9835   9.585  13.331  10.898
69332SOL    HW2 9836   9.636  13.254  11.018
69333SOL     OW 9837  14.396   2.666   4.299
69333SOL    HW1 9838  14.456   2.738   4.320
69333SOL    HW2 9839  14.349   2.649   4.381
69334SOL     OW 9840   6.313   8.949   6.280
69334SOL    HW1 9841   6.404   8.921   6.274
69334SOL    HW2 9842   6.265   8.870   6.303
69335SOL     OW 9843   3.489   4.681   6.054
69335SOL    HW1 9844   3.517   4.590   6.048
69335SOL    HW2 9845   3.563   4.726   6.095
69336SOL     OW 9846  12.431   0.590   9.579
69336SOL    HW1 9847  12.374   0.620   9.649
69336SOL    HW2 9848  12.452   0.499   9.602
69337SOL     OW 9849  12.975   0.698   9.047
69337SOL    HW1 9850  13.053   0.664   9.090
69337SOL    HW2 9851  13.008   0.762   8.985
69338SOL     OW 9852  11.047   1.081  10.377
69338SOL    HW1 9853  11.001   1.003  10.346
69338SOL    HW2 9854  10.987   1.122  10.439
69339SOL     OW 9855   5.644  14.566   7.983
69339SOL    HW1 9856   5.707  14.559   7.912
69339SOL    HW2 9857   5.694  14.600   8.057
69340SOL     OW 9858   8.951   0.249  14.011
69340SOL    HW1 9859   8.893   0.324  14.027
69340SOL    HW2 9860   8.967   0.213  14.099
69341SOL     OW 9861   9.302  12.308  12.790
69341SOL    HW1 9862   9.388  12.302  12.832
69341SOL    HW2 9863   9.246  12.349  12.856
69342SOL     OW 9864   9.643   4.961  13.197
69342SOL    HW1 9865   9.571   5.011  13.235
69342SOL    HW2 9866   9.690   4.926  13.272
69343SOL     OW 9867   5.192   7.161   9.256
69343SOL    HW1 9868   5.218   7.153   9.164
69343SOL    HW2 9869   5.274   7.155   9.305
69344SOL     OW 9870   5.381  12.435   5.784
69344SOL    HW1 9871   5.456  12.385   5.816
69344SOL    HW2 9872   5.304  12.387   5.815
69345SOL     OW 9873  10.250   2.103  13.262
69345SOL    HW1 9874  10.219   2.062  13.181
69345SOL    HW2 9875  10.278   2.029  13.317
69346SOL     OW 9876   7.711   1.044  12.837
69346SOL    HW1 9877   7.707   1.012  12.927
69346SOL    HW2 9878   7.788   1.001  12.799
69347SOL     OW 9879   5.525   6.848   8.659
69347SOL    HW1 9880   5.483   6.924   8.697
69347SOL    HW2 9881   5.616   6.875   8.645
69348SOL     OW 9882   0.878   0.032  12.391
69348SOL    HW1 9883   0.932  14.833  12.398
69348SOL    HW2 9884   0.933   0.102  12.427
69349SOL     OW 9885   5.896   1.823   8.210
69349SOL    HW1 9886   5.934   1.778   8.134
69349SOL    HW2 9887   5.942   1.907   8.214
69350SOL     OW 9888   0.857   8.902   8.602
69350SOL    HW1 9889   0.905   8.820   8.614
69350SOL    HW2 9890   0.768   8.874   8.578
69351SOL     OW 9891   6.819   1.661  14.646
69351SOL    HW1 9892   6.745   1.602  14.631
69351SOL    HW2 9893   6.877   1.645  14.572
69352SOL     OW 9894   1.968  12.977  13.555
69352SOL    HW1 9895   2.020  13.047  13.595
69352SOL    HW2 9896   1.884  13.019  13.535
69353SOL     OW 9897   0.631  10.771   8.099
69353SOL    HW1 9898   0.554  10.725   8.065
69353SOL    HW2 9899   0.688  10.702   8.133
69354SOL     OW 9900   0.580   0.065  12.667
69354SOL    HW1 9901   0.585   0.109  12.582
69354SOL    HW2 9902   0.660   0.091  12.712
69355SOL     OW 9903   7.735  11.834   1.295
69355SOL    HW1 9904   7.792  11.785   1.355
69355SOL    HW2 9905   7.671  11.876   1.352
69356SOL     OW 9906   3.961   0.096  14.828
69356SOL    HW1 9907   3.994   0.066   0.033
69356SOL    HW2 9908   3.869   0.117  14.843
69357SOL     OW 9909   8.067   0.672  11.248
69357SOL    HW1 9910   8.085   0.744  11.308
69357SOL    HW2 9911   8.124   0.689  11.173
69358SOL     OW 9912  14.111  12.561   6.909
69358SOL    HW1 9913  14.176  12.565   6.980
69358SOL    HW2 9914  14.068  12.646   6.912
69359SOL     OW 9915   2.608   4.269  12.035
69359SOL    HW1 9916   2.524   4.267  11.990
69359SOL    HW2 9917   2.668   4.222  11.976
69360SOL     OW 9918   7.284  13.893   2.795
69360SOL    HW1 9919   7.369  13.936   2.802
69360SOL    HW2 9920   7.272  13.848   2.879
69361SOL     OW 9921  14.676   0.486   2.375
69361SOL    HW1 9922  14.722   0.422   2.430
69361SOL    HW2 9923  14.676   0.446   2.288
69362SOL     OW 9924   8.028   9.597   0.348
69362SOL    HW1 9925   8.103   9.657   0.343
69362SOL    HW2 9926   7.997   9.590   0.258
69363SOL     OW 9927  11.366   2.988   7.043
69363SOL    HW1 9928  11.415   2.961   7.121
69363SOL    HW2 9929  11.410   2.943   6.971
69364SOL     OW 9930  12.455   7.833   0.142
69364SOL    HW1 9931  12.547   7.854   0.163
69364SOL    HW2 9932  12.428   7.775   0.213
69365SOL     OW 9933  13.376   3.691   4.350
69365SOL    HW1 9934  13.344   3.647   4.271
69365SOL    HW2 9935  13.425   3.767   4.317
69366SOL     OW 9936   4.184   1.479  10.236
69366SOL    HW1 9937   4.176   1.414  10.166
69366SOL    HW2 9938   4.276   1.476  10.261
69367SOL     OW 9939   8.622   3.975   9.969
69367SOL    HW1 9940   8.610   4.024  10.051
69367SOL    HW2 9941   8.627   3.884   9.997
69368SOL     OW 9942   4.205   8.019   2.818
69368SOL    HW1 9943   4.189   8.025   2.724
69368SOL    HW2 9944   4.291   8.060   2.829
69369SOL     OW 9945   5.320   7.897  13.040
69369SOL    HW1 9946   5.269   7.855  12.971
69369SOL    HW2 9947   5.260   7.905  13.113
69370SOL     OW 9948  12.583   2.651   0.119
69370SOL    HW1 9949  12.661   2.624   0.168
69370SOL    HW2 9950  12.586   2.747   0.120
69371SOL     OW 9951   1.061   0.216   0.239
69371SOL    HW1 9952   1.081   0.146   0.177
69371SOL    HW2 9953   1.147   0.250   0.265
69372SOL     OW 9954  11.513   3.210   8.726
69372SOL    HW1 9955  11.490   3.117   8.732
69372SOL    HW2 9956  11.466   3.241   8.648
69373SOL     OW 9957  11.341  12.652   3.243
69373SOL    HW1 9958  11.362  12.744   3.231
69373SOL    HW2 9959  11.417  12.605   3.210
69374SOL     OW 9960   0.463   7.718  10.044
69374SOL    HW1 9961   0.525   7.717  10.117
69374SOL    HW2 9962   0.483   7.798   9.997
69375SOL     OW 9963   5.368   7.523  10.044
69375SOL    HW1 9964   5.305   7.476  10.099
69375SOL    HW2 9965   5.397   7.596  10.099
69376SOL     OW 9966   2.625  14.537   5.915
69376SOL    HW1 9967   2.626  14.465   5.851
69376SOL    HW2 9968   2.718  14.552   5.935
69377SOL     OW 9969   9.184   8.522   2.786
69377SOL    HW1 9970   9.185   8.602   2.839
69377SOL    HW2 9971   9.267   8.524   2.738
69378SOL     OW 9972   1.455  12.549   0.037
69378SOL    HW1 9973   1.500  12.471   0.070
69378SOL    HW2 9974   1.502  12.622   0.076
69379SOL     OW 9975   1.613  13.247  10.966
69379SOL    HW1 9976   1.586  13.326  10.920
69379SOL    HW2 9977   1.559  13.245  11.045
69380SOL     OW 9978  13.297   4.758   8.935
69380SOL    HW1 9979  13.263   4.723   8.852
69380SOL    HW2 9980  13.300   4.852   8.922
69381SOL     OW 9981   7.634  14.099  14.826
69381SOL    HW1 9982   7.681  14.181  14.839
69381SOL    HW2 9983   7.688  14.049  14.766
69382SOL     OW 9984   3.150  11.628   8.854
69382SOL    HW1 9985   3.119  11.648   8.766
69382SOL    HW2 9986   3.071  11.625   8.908
69383SOL     OW 9987   6.288  10.353   9.950
69383SOL    HW1 9988   6.278  10.277   9.893
69383SOL    HW2 9989   6.295  10.427   9.891
69384SOL     OW 9990   7.624   9.830  11.687
69384SOL    HW1 9991   7.576   9.912  11.689
69384SOL    HW2 9992   7.706   9.850  11.642
69385SOL     OW 9993   8.424   8.535   2.331
69385SOL    HW1 9994   8.496   8.596   2.351
69385SOL    HW2 9995   8.369   8.536   2.409
69386SOL     OW 9996  12.461   3.677   2.540
69386SOL    HW1 9997  12.472   3.609   2.475
69386SOL    HW2 9998  12.422   3.750   2.492
69387SOL     OW 9999   9.893   0.813   9.639
69387SOL    HW110000   9.920   0.898   9.604
69387SOL    HW210001   9.799   0.821   9.653
69388SOL     OW10002  13.070   0.763   6.934
69388SOL    HW110003  13.067   0.838   6.994
69388SOL    HW210004  12.994   0.710   6.958
69389SOL     OW10005   6.944  12.833   2.565
69389SOL    HW110006   6.959  12.841   2.471
69389SOL    HW210007   6.928  12.923   2.595
69390SOL     OW10008  10.885   4.881   8.274
69390SOL    HW110009  10.814   4.825   8.306
69390SOL    HW210010  10.911   4.841   8.191
69391SOL     OW10011  13.556   9.899   6.504
69391SOL    HW110012  13.601   9.891   6.420
69391SOL    HW210013  13.599   9.836   6.561
69392SOL     OW10014   8.738   9.830   6.440
69392SOL    HW110015   8.732   9.900   6.375
69392SOL    HW210016   8.666   9.849   6.501
69393SOL     OW10017   0.157   2.557   7.646
69393SOL    HW110018   0.193   2.474   7.616
69393SOL    HW210019   0.144   2.545   7.740
69394SOL     OW10020   2.789  12.751  11.043
69394SOL    HW110021   2.870  12.701  11.044
69394SOL    HW210022   2.749  12.731  10.958
69395SOL     OW10023   8.517  12.296  13.481
69395SOL    HW110024   8.609  12.319  13.481
69395SOL    HW210025   8.503  12.254  13.395
69396SOL     OW10026   8.317   8.838   8.329
69396SOL    HW110027   8.260   8.900   8.375
69396SOL    HW210028   8.270   8.817   8.248
69397SOL     OW10029  10.294   2.372   1.217
69397SOL    HW110030  10.314   2.290   1.261
69397SOL    HW210031  10.331   2.362   1.130
69398SOL     OW10032  12.131   7.780   8.488
69398SOL    HW110033  12.097   7.797   8.576
69398SOL    HW210034  12.146   7.868   8.451
69399SOL     OW10035  13.654   9.440   9.326
69399SOL    HW110036  13.659   9.372   9.394
69399SOL    HW210037  13.745   9.463   9.308
69400SOL     OW10038   1.600   8.765  10.996
69400SOL    HW110039   1.600   8.676  11.030
69400SOL    HW210040   1.511   8.779  10.964
69401SOL     OW10041   2.183  11.786  13.696
69401SOL    HW110042   2.178  11.861  13.756
69401SOL    HW210043   2.156  11.822  13.612
69402SOL     OW10044  13.788   2.738  14.547
69402SOL    HW110045  13.781   2.643  14.561
69402SOL    HW210046  13.882   2.757  14.554
69403SOL     OW10047  13.723  10.690   9.524
69403SOL    HW110048  13.788  10.712   9.591
69403SOL    HW210049  13.678  10.613   9.559
69404SOL     OW10050   4.756   9.323  13.135
69404SOL    HW110051   4.676   9.365  13.166
69404SOL    HW210052   4.789   9.274  13.210
69405SOL     OW10053   9.226  12.108   6.358
69405SOL    HW110054   9.201  12.016   6.355
69405SOL    HW210055   9.213  12.134   6.449
69406SOL     OW10056   3.230   1.623  10.288
69406SOL    HW110057   3.274   1.689  10.235
69406SOL    HW210058   3.141   1.620  10.254
69407SOL     OW10059   4.581   1.464   0.571
69407SOL    HW110060   4.536   1.405   0.631
69407SOL    HW210061   4.599   1.411   0.493
69408SOL     OW10062   5.600  11.254   4.423
69408SOL    HW110063   5.513  11.294   4.420
69408SOL    HW210064   5.597  11.194   4.497
69409SOL     OW10065   8.693   8.550   8.835
69409SOL    HW110066   8.704   8.519   8.925
69409SOL    HW210067   8.677   8.644   8.844
69410SOL     OW10068   1.169   0.788   1.520
69410SOL    HW110069   1.222   0.835   1.455
69410SOL    HW210070   1.178   0.696   1.496
69411SOL     OW10071  10.284   9.401  11.473
69411SOL    HW110072  10.327   9.384  11.557
69411SOL    HW210073  10.216   9.334  11.467
69412SOL     OW10074   1.997   7.289   7.667
69412SOL    HW110075   1.943   7.213   7.645
69412SOL    HW210076   2.013   7.331   7.583
69413SOL     OW10077   6.976   4.019   4.036
69413SOL    HW110078   6.976   4.072   4.115
69413SOL    HW210079   6.887   3.984   4.030
69414SOL     OW10080   1.346  11.111  10.085
69414SOL    HW110081   1.283  11.174  10.050
69414SOL    HW210082   1.342  11.037  10.025
69415SOL     OW10083   2.429   1.584   6.334
69415SOL    HW110084   2.426   1.494   6.300
69415SOL    HW210085   2.491   1.580   6.406
69416SOL     OW10086   2.851   8.800   1.412
69416SOL    HW110087   2.891   8.824   1.496
69416SOL    HW210088   2.759   8.785   1.433
69417SOL     OW10089   5.416   4.542   6.941
69417SOL    HW110090   5.417   4.637   6.942
69417SOL    HW210091   5.488   4.517   7.000
69418SOL     OW10092  13.222  13.146   8.782
69418SOL    HW110093  13.182  13.217   8.832
69418SOL    HW210094  13.301  13.123   8.832
69419SOL     OW10095   7.381   2.921  12.963
69419SOL    HW110096   7.328   2.855  13.008
69419SOL    HW210097   7.469   2.911  12.999
69420SOL     OW10098  14.240   1.496  12.597
69420SOL    HW110099  14.196   1.552  12.661
69420SOL    HW210100  14.263   1.554  12.525
69421SOL     OW10101   9.932   7.896   6.505
69421SOL    HW110102   9.920   7.974   6.451
69421SOL    HW210103   9.860   7.839   6.482
69422SOL     OW10104   3.530  12.983   4.212
69422SOL    HW110105   3.497  12.944   4.131
69422SOL    HW210106   3.457  12.978   4.273
69423SOL     OW10107   2.042   5.946  14.026
69423SOL    HW110108   2.126   5.955  13.983
69423SOL    HW210109   2.001   5.870  13.984
69424SOL     OW10110  10.085   9.116  11.211
69424SOL    HW110111  10.025   9.041  11.201
69424SOL    HW210112  10.104   9.143  11.121
69425SOL     OW10113   3.675   8.085   8.099
69425SOL    HW110114   3.711   8.000   8.126
69425SOL    HW210115   3.704   8.146   8.166
69426SOL     OW10116   2.290   8.217   3.230
69426SOL    HW110117   2.313   8.309   3.227
69426SOL    HW210118   2.364   8.175   3.275
69427SOL     OW10119   7.452  14.785  13.726
69427SOL    HW110120   7.359  14.760  13.729
69427SOL    HW210121   7.492  14.733  13.795
69428SOL     OW10122   5.902   0.760   4.794
69428SOL    HW110123   5.937   0.782   4.880
69428SOL    HW210124   5.976   0.718   4.749
69429SOL     OW10125   2.252  13.564   4.174
69429SOL    HW110126   2.286  13.615   4.248
69429SOL    HW210127   2.162  13.595   4.163
69430SOL     OW10128   2.594  13.097   7.392
69430SOL    HW110129   2.658  13.064   7.330
69430SOL    HW210130   2.602  13.192   7.387
69431SOL     OW10131   2.776   1.686  10.650
69431SOL    HW110132   2.740   1.620  10.592
69431SOL    HW210133   2.804   1.757  10.591
69432SOL     OW10134   5.028  14.611   5.370
69432SOL    HW110135   5.042  14.706   5.365
69432SOL    HW210136   5.065  14.578   5.288
69433SOL     OW10137  10.737  14.342  11.063
69433SOL    HW110138  10.774  14.289  10.992
69433SOL    HW210139  10.696  14.417  11.018
69434SOL     OW10140   1.208   6.038   4.334
69434SOL    HW110141   1.140   6.100   4.358
69434SOL    HW210142   1.182   5.956   4.376
69435SOL     OW10143   2.715  14.076  11.556
69435SOL    HW110144   2.744  14.056  11.645
69435SOL    HW210145   2.796  14.100  11.510
69436SOL     OW10146   0.924   1.617   4.095
69436SOL    HW110147   1.000   1.575   4.055
69436SOL    HW210148   0.926   1.587   4.186
69437SOL     OW10149   1.437   0.821   5.351
69437SOL    HW110150   1.359   0.844   5.299
69437SOL    HW210151   1.434   0.879   5.426
69438SOL     OW10152   5.854   8.308  10.446
69438SOL    HW110153   5.792   8.360  10.497
69438SOL    HW210154   5.852   8.221  10.484
69439SOL     OW10155   4.092   7.941   3.882
69439SOL    HW110156   4.026   7.913   3.945
69439SOL    HW210157   4.058   7.912   3.797
69440SOL     OW10158  14.239   6.637  10.998
69440SOL    HW110159  14.300   6.659  10.927
69440SOL    HW210160  14.155   6.671  10.970
69441SOL     OW10161   8.730   0.739  11.611
69441SOL    HW110162   8.697   0.711  11.697
69441SOL    HW210163   8.789   0.812  11.631
69442SOL     OW10164   4.783   7.026  12.823
69442SOL    HW110165   4.821   7.050  12.738
69442SOL    HW210166   4.692   7.006  12.803
69443SOL     OW10167  13.728   6.053   1.888
69443SOL    HW110168  13.633   6.067   1.891
69443SOL    HW210169  13.765   6.141   1.896
69444SOL     OW10170   0.886   4.918   7.595
69444SOL    HW110171   0.911   4.858   7.665
69444SOL    HW210172   0.942   4.893   7.521
69445SOL     OW10173   3.444   6.398   9.083
69445SOL    HW110174   3.521   6.453   9.071
69445SOL    HW210175   3.478   6.309   9.089
69446SOL     OW10176   1.743   3.187   8.554
69446SOL    HW110177   1.736   3.123   8.483
69446SOL    HW210178   1.822   3.237   8.534
69447SOL     OW10179   1.892   6.114  13.871
69447SOL    HW110180   1.940   6.091  13.792
69447SOL    HW210181   1.938   6.068  13.941
69448SOL     OW10182   2.175  12.115  13.236
69448SOL    HW110183   2.132  12.196  13.209
69448SOL    HW210184   2.103  12.054  13.252
69449SOL     OW10185  11.215  14.613   7.074
69449SOL    HW110186  11.299  14.651   7.100
69449SOL    HW210187  11.151  14.661   7.125
69450SOL     OW10188   4.227   2.984  11.852
69450SOL    HW110189   4.311   2.954  11.815
69450SOL    HW210190   4.162   2.926  11.814
69451SOL     OW10191  12.916   0.617  14.055
69451SOL    HW110192  12.839   0.654  14.011
69451SOL    HW210193  12.956   0.692  14.100
69452SOL     OW10194  13.740  11.352  13.238
69452SOL    HW110195  13.762  11.267  13.275
69452SOL    HW210196  13.822  11.385  13.202
69453SOL     OW10197  11.757   2.329   8.605
69453SOL    HW110198  11.776   2.401   8.545
69453SOL    HW210199  11.737   2.372   8.688
69454SOL     OW10200   4.690  13.740  11.905
69454SOL    HW110201   4.726  13.655  11.880
69454SOL    HW210202   4.764  13.800  11.898
69455SOL     OW10203   8.259  13.104   9.382
69455SOL    HW110204   8.280  13.160   9.307
69455SOL    HW210205   8.221  13.164   9.446
69456SOL     OW10206   5.980   6.337   1.410
69456SOL    HW110207   5.967   6.419   1.361
69456SOL    HW210208   5.933   6.350   1.492
69457SOL     OW10209  10.671   8.958   7.208
69457SOL    HW110210  10.628   8.872   7.211
69457SOL    HW210211  10.635   9.005   7.284
69458SOL     OW10212   1.486   8.717   1.631
69458SOL    HW110213   1.538   8.744   1.556
69458SOL    HW210214   1.529   8.638   1.663
69459SOL     OW10215   8.920   2.488  12.608
69459SOL    HW110216   8.937   2.551  12.678
69459SOL    HW210217   8.919   2.403  12.652
69460SOL     OW10218  10.238   1.490   7.472
69460SOL    HW110219  10.274   1.495   7.561
69460SOL    HW210220  10.202   1.401   7.466
69461SOL     OW10221   9.090   3.077  10.463
69461SOL    HW110222   9.123   3.165  10.482
69461SOL    HW210223   9.017   3.092  10.402
69462SOL     OW10224   9.675  14.492   3.772
69462SOL    HW110225   9.655  14.564   3.832
69462SOL    HW210226   9.759  14.457   3.804
69463SOL     OW10227  13.573   9.837   5.523
69463SOL    HW110228  13.509   9.797   5.463
69463SOL    HW210229  13.524   9.906   5.567
69464SOL     OW10230   7.812   9.783   3.509
69464SOL    HW110231   7.881   9.849   3.514
69464SOL    HW210232   7.815   9.753   3.418
69465SOL     OW10233   7.823   9.078  10.563
69465SOL    HW110234   7.914   9.081  10.536
69465SOL    HW210235   7.800   9.170  10.579
69466SOL     OW10236   5.612   0.524  12.505
69466SOL    HW110237   5.646   0.610  12.530
69466SOL    HW210238   5.553   0.499  12.576
69467SOL     OW10239   0.580   4.316   5.974
69467SOL    HW110240   0.544   4.308   5.886
69467SOL    HW210241   0.638   4.240   5.984
69468SOL     OW10242  12.733   9.948   8.768
69468SOL    HW110243  12.812   9.956   8.715
69468SOL    HW210244  12.740   9.861   8.808
69469SOL     OW10245   7.159   0.295   6.783
69469SOL    HW110246   7.187   0.236   6.713
69469SOL    HW210247   7.072   0.325   6.757
69470SOL     OW10248   8.751   4.976   3.098
69470SOL    HW110249   8.777   5.046   3.157
69470SOL    HW210250   8.789   4.999   3.013
69471SOL     OW10251   7.129  14.806  14.479
69471SOL    HW110252   7.178  14.761  14.547
69471SOL    HW210253   7.149   0.019  14.493
69472SOL     OW10254   3.407  13.639   9.266
69472SOL    HW110255   3.479  13.665   9.322
69472SOL    HW210256   3.334  13.694   9.293
69473SOL     OW10257   2.062   2.246   1.866
69473SOL    HW110258   2.140   2.301   1.852
69473SOL    HW210259   2.089   2.183   1.932
69474SOL     OW10260  12.760   3.021   2.258
69474SOL    HW110261  12.793   3.044   2.171
69474SOL    HW210262  12.692   2.957   2.242
69475SOL     OW10263   2.175   8.996  14.388
69475SOL    HW110264   2.241   9.048  14.342
69475SOL    HW210265   2.092   9.036  14.364
69476SOL     OW10266  11.622  11.110   5.252
69476SOL    HW110267  11.707  11.066   5.254
69476SOL    HW210268  11.605  11.134   5.343
69477SOL     OW10269   6.792   5.199  12.375
69477SOL    HW110270   6.870   5.227  12.423
69477SOL    HW210271   6.754   5.130  12.429
69478SOL     OW10272  12.057  12.105   2.284
69478SOL    HW110273  12.138  12.083   2.331
69478SOL    HW210274  12.042  12.198   2.304
69479SOL     OW10275   8.834   6.148  13.374
69479SOL    HW110276   8.789   6.068  13.401
69479SOL    HW210277   8.816   6.210  13.446
69480SOL     OW10278  11.282   2.567   9.154
69480SOL    HW110279  11.309   2.517   9.231
69480SOL    HW210280  11.260   2.501   9.089
69481SOL     OW10281   6.453   6.862   4.680
69481SOL    HW110282   6.526   6.843   4.739
69481SOL    HW210283   6.462   6.955   4.661
69482SOL     OW10284   7.913  12.299   6.263
69482SOL    HW110285   7.958  12.342   6.336
69482SOL    HW210286   7.895  12.370   6.201
69483SOL     OW10287  10.721   4.064   2.177
69483SOL    HW110288  10.669   4.037   2.101
69483SOL    HW210289  10.670   4.034   2.252
69484SOL     OW10290   5.305   8.520  14.002
69484SOL    HW110291   5.372   8.476  14.056
69484SOL    HW210292   5.232   8.459  14.001
69485SOL     OW10293   4.725   9.763   0.590
69485SOL    HW110294   4.655   9.810   0.636
69485SOL    HW210295   4.764   9.707   0.656
69486SOL     OW10296  10.341   8.783  12.130
69486SOL    HW110297  10.373   8.704  12.088
69486SOL    HW210298  10.258   8.802  12.086
69487SOL     OW10299   3.921   4.141   9.211
69487SOL    HW110300   3.945   4.054   9.242
69487SOL    HW210301   3.963   4.148   9.126
69488SOL     OW10302  14.111   4.546   2.069
69488SOL    HW110303  14.147   4.618   2.018
69488SOL    HW210304  14.179   4.479   2.067
69489SOL     OW10305   5.076  13.289   1.226
69489SOL    HW110306   5.081  13.258   1.136
69489SOL    HW210307   5.142  13.238   1.273
69490SOL     OW10308   1.822   3.580  14.118
69490SOL    HW110309   1.737   3.559  14.156
69490SOL    HW210310   1.801   3.624  14.035
69491SOL     OW10311  12.117  13.512  14.839
69491SOL    HW110312  12.062  13.439  14.810
69491SOL    HW210313  12.204  13.491  14.806
69492SOL     OW10314  12.548   6.575   0.170
69492SOL    HW110315  12.455   6.558   0.155
69492SOL    HW210316  12.592   6.530   0.098
69493SOL     OW10317   5.886  12.592  12.904
69493SOL    HW110318   5.872  12.685  12.920
69493SOL    HW210319   5.914  12.587  12.812
69494SOL     OW10320   7.256   2.605   4.133
69494SOL    HW110321   7.281   2.612   4.041
69494SOL    HW210322   7.166   2.571   4.130
69495SOL     OW10323   7.734  12.540  10.868
69495SOL    HW110324   7.729  12.543  10.964
69495SOL    HW210325   7.824  12.514  10.849
69496SOL     OW10326   6.864   7.806  12.984
69496SOL    HW110327   6.855   7.766  12.897
69496SOL    HW210328   6.864   7.732  13.045
69497SOL     OW10329  10.851  10.800  14.045
69497SOL    HW110330  10.886  10.740  13.980
69497SOL    HW210331  10.796  10.744  14.101
69498SOL     OW10332   8.019   0.140   7.900
69498SOL    HW110333   8.005   0.153   7.806
69498SOL    HW210334   8.056   0.223   7.930
69499SOL     OW10335   5.833   9.981   5.871
69499SOL    HW110336   5.915   9.934   5.886
69499SOL    HW210337   5.787   9.975   5.955
69500SOL     OW10338   8.512   4.988  10.947
69500SOL    HW110339   8.600   4.992  10.983
69500SOL    HW210340   8.521   4.937  10.866
69501SOL     OW10341   4.574  14.320   4.981
69501SOL    HW110342   4.550  14.230   4.961
69501SOL    HW210343   4.562  14.329   5.075
69502SOL     OW10344  12.925   6.203   2.106
69502SOL    HW110345  12.840   6.159   2.107
69502SOL    HW210346  12.932   6.245   2.191
69503SOL     OW10347  14.487   0.646   2.439
69503SOL    HW110348  14.444   0.690   2.366
69503SOL    HW210349  14.530   0.570   2.399
69504SOL     OW10350   0.595   4.306   6.960
69504SOL    HW110351   0.617   4.308   6.867
69504SOL    HW210352   0.679   4.298   7.005
69505SOL     OW10353   3.808   9.808   4.902
69505SOL    HW110354   3.841   9.891   4.936
69505SOL    HW210355   3.779   9.829   4.813
69506SOL     OW10356   4.668   6.580   1.000
69506SOL    HW110357   4.577   6.589   0.973
69506SOL    HW210358   4.673   6.624   1.085
69507SOL     OW10359  10.706   3.218  14.249
69507SOL    HW110360  10.748   3.304  14.254
69507SOL    HW210361  10.715   3.192  14.157
69508SOL     OW10362  14.656   4.838   8.646
69508SOL    HW110363  14.693   4.893   8.578
69508SOL    HW210364  14.571   4.809   8.611
69509SOL     OW10365   9.313   8.501  11.114
69509SOL    HW110366   9.357   8.479  11.196
69509SOL    HW210367   9.382   8.502  11.049
69510SOL     OW10368   7.309  10.894  13.246
69510SOL    HW110369   7.219  10.863  13.259
69510SOL    HW210370   7.301  10.967  13.185
69511SOL     OW10371  10.473   6.786  10.476
69511SOL    HW110372  10.401   6.801  10.415
69511SOL    HW210373  10.544   6.841  10.442
69512SOL     OW10374  10.918   6.177  14.219
69512SOL    HW110375  10.998   6.228  14.229
69512SOL    HW210376  10.943   6.088  14.243
69513SOL     OW10377   9.925   2.195   9.320
69513SOL    HW110378   9.933   2.261   9.251
69513SOL    HW210379   9.945   2.112   9.277
69514SOL     OW10380   8.066   5.494   6.335
69514SOL    HW110381   8.068   5.559   6.405
69514SOL    HW210382   8.131   5.525   6.272
69515SOL     OW10383   6.294   3.068  14.650
69515SOL    HW110384   6.300   3.053  14.556
69515SOL    HW210385   6.210   3.111  14.662
69516SOL     OW10386   6.601  12.510   0.315
69516SOL    HW110387   6.684  12.533   0.356
69516SOL    HW210388   6.578  12.426   0.354
69517SOL     OW10389  14.052   1.669  11.520
69517SOL    HW110390  14.001   1.726  11.577
69517SOL    HW210391  14.117   1.629  11.577
69518SOL     OW10392  11.635  11.206   7.592
69518SOL    HW110393  11.549  11.174   7.565
69518SOL    HW210394  11.658  11.274   7.528
69519SOL     OW10395  13.575  10.597  13.525
69519SOL    HW110396  13.606  10.672  13.475
69519SOL    HW210397  13.479  10.606  13.526
69520SOL     OW10398   1.462   2.459   4.887
69520SOL    HW110399   1.489   2.455   4.978
69520SOL    HW210400   1.501   2.540   4.854
69521SOL     OW10401   7.635  11.840   6.949
69521SOL    HW110402   7.693  11.852   7.024
69521SOL    HW210403   7.548  11.859   6.983
69522SOL     OW10404   2.041  14.846   4.448
69522SOL    HW110405   2.064   0.029   4.516
69522SOL    HW210406   2.088  14.876   4.371
69523SOL     OW10407  13.669   3.568  10.577
69523SOL    HW110408  13.616   3.494  10.606
69523SOL    HW210409  13.679   3.554  10.483
69524SOL     OW10410   1.283   0.599  13.143
69524SOL    HW110411   1.219   0.626  13.078
69524SOL    HW210412   1.325   0.680  13.171
69525SOL     OW10413  14.099   5.650  11.986
69525SOL    HW110414  14.012   5.688  11.999
69525SOL    HW210415  14.083   5.564  11.947
69526SOL     OW10416  13.246   3.200  12.511
69526SOL    HW110417  13.224   3.135  12.577
69526SOL    HW210418  13.179   3.189  12.443
69527SOL     OW10419   7.198  10.837   4.723
69527SOL    HW110420   7.116  10.885   4.718
69527SOL    HW210421   7.261  10.891   4.675
69528SOL     OW10422  12.361   3.108   3.767
69528SOL    HW110423  12.432   3.163   3.734
69528SOL    HW210424  12.362   3.124   3.862
69529SOL     OW10425   8.094   1.335  11.839
69529SOL    HW110426   8.051   1.367  11.760
69529SOL    HW210427   8.171   1.391  11.848
69530SOL     OW10428   0.560   8.572   9.896
69530SOL    HW110429   0.475   8.617   9.891
69530SOL    HW210430   0.582   8.553   9.805
69531SOL     OW10431  13.674  14.035   1.266
69531SOL    HW110432  13.610  14.045   1.336
69531SOL    HW210433  13.665  13.944   1.238
69532SOL     OW10434   4.317   8.805   3.819
69532SOL    HW110435   4.399   8.844   3.848
69532SOL    HW210436   4.337   8.767   3.734
69533SOL     OW10437  12.369   9.370   1.494
69533SOL    HW110438  12.379   9.317   1.415
69533SOL    HW210439  12.391   9.459   1.466
69534SOL     OW10440   0.451   4.239   2.669
69534SOL    HW110441   0.368   4.267   2.630
69534SOL    HW210442   0.436   4.147   2.692
69535SOL     OW10443   8.581   0.402   4.455
69535SOL    HW110444   8.623   0.375   4.374
69535SOL    HW210445   8.629   0.356   4.524
69536SOL     OW10446   4.682   5.474   4.865
69536SOL    HW110447   4.732   5.497   4.787
69536SOL    HW210448   4.612   5.416   4.833
69537SOL     OW10449   5.334   7.840   5.201
69537SOL    HW110450   5.251   7.805   5.169
69537SOL    HW210451   5.394   7.832   5.126
69538SOL     OW10452   2.354   7.928   7.651
69538SOL    HW110453   2.341   7.947   7.558
69538SOL    HW210454   2.419   7.993   7.680
69539SOL     OW10455   3.256   1.532  12.941
69539SOL    HW110456   3.164   1.505  12.938
69539SOL    HW210457   3.304   1.449  12.938
69540SOL     OW10458  10.156   4.629   5.835
69540SOL    HW110459  10.236   4.662   5.795
69540SOL    HW210460  10.131   4.555   5.780
69541SOL     OW10461   7.981   1.742   0.360
69541SOL    HW110462   8.043   1.684   0.405
69541SOL    HW210463   7.914   1.760   0.426
69542SOL     OW10464  10.516   6.243  11.680
69542SOL    HW110465  10.433   6.290  11.668
69542SOL    HW210466  10.497   6.154  11.651
69543SOL     OW10467  12.666  13.989  10.340
69543SOL    HW110468  12.697  14.067  10.386
69543SOL    HW210469  12.647  14.019  10.251
69544SOL     OW10470   1.321   3.166   5.823
69544SOL    HW110471   1.399   3.206   5.861
69544SOL    HW210472   1.258   3.165   5.895
69545SOL     OW10473   1.436  12.075  12.462
69545SOL    HW110474   1.385  12.056  12.383
69545SOL    HW210475   1.504  12.135  12.433
69546SOL     OW10476   0.668   5.039  12.613
69546SOL    HW110477   0.579   5.005  12.627
69546SOL    HW210478   0.657   5.134  12.611
69547SOL     OW10479   4.795   1.277   8.786
69547SOL    HW110480   4.834   1.195   8.753
69547SOL    HW210481   4.744   1.310   8.712
69548SOL     OW10482   9.883   2.558   0.434
69548SOL    HW110483   9.848   2.484   0.384
69548SOL    HW210484   9.805   2.600   0.471
69549SOL     OW10485   4.115   1.089  13.739
69549SOL    HW110486   4.039   1.131  13.779
69549SOL    HW210487   4.157   1.042  13.811
69550SOL     OW10488   6.410   3.234   7.231
69550SOL    HW110489   6.404   3.310   7.173
69550SOL    HW210490   6.486   3.251   7.287
69551SOL     OW10491   6.875   9.359  10.561
69551SOL    HW110492   6.913   9.441  10.594
69551SOL    HW210493   6.951   9.304  10.541
69552SOL     OW10494   0.954  11.204  10.730
69552SOL    HW110495   0.984  11.122  10.769
69552SOL    HW210496   0.881  11.179  10.674
69553SOL     OW10497  10.587   3.174   8.814
69553SOL    HW110498  10.625   3.118   8.881
69553SOL    HW210499  10.655   3.180   8.747
69554SOL     OW10500  11.187  12.012   7.749
69554SOL    HW110501  11.144  11.989   7.667
69554SOL    HW210502  11.261  12.067   7.723
69555SOL     OW10503   8.484   4.162  11.561
69555SOL    HW110504   8.511   4.245  11.601
69555SOL    HW210505   8.388   4.162  11.567
69556SOL     OW10506   7.236   8.806   3.206
69556SOL    HW110507   7.146   8.834   3.222
69556SOL    HW210508   7.261   8.851   3.125
69557SOL     OW10509   6.740   3.190  13.454
69557SOL    HW110510   6.667   3.146  13.410
69557SOL    HW210511   6.810   3.191  13.389
69558SOL     OW10512  11.108   3.801  13.184
69558SOL    HW110513  11.147   3.861  13.247
69558SOL    HW210514  11.068   3.858  13.118
69559SOL     OW10515  10.250  11.873   5.303
69559SOL    HW110516  10.321  11.895   5.363
69559SOL    HW210517  10.170  11.889   5.353
69560SOL     OW10518  11.723   3.487  11.365
69560SOL    HW110519  11.764   3.501  11.450
69560SOL    HW210520  11.631   3.471  11.386
69561SOL     OW10521   7.823  14.254  13.511
69561SOL    HW110522   7.791  14.343  13.494
69561SOL    HW210523   7.754  14.197  13.476
69562SOL     OW10524  10.706   4.830   4.609
69562SOL    HW110525  10.735   4.750   4.652
69562SOL    HW210526  10.777   4.892   4.623
69563SOL     OW10527   9.376  14.610   0.225
69563SOL    HW110528   9.450  14.580   0.278
69563SOL    HW210529   9.304  14.551   0.249
69564SOL     OW10530   2.148   7.675   2.042
69564SOL    HW110531   2.056   7.658   2.059
69564SOL    HW210532   2.157   7.770   2.053
69565SOL     OW10533  13.549  14.828  12.832
69565SOL    HW110534  13.511   0.013  12.892
69565SOL    HW210535  13.504  14.843  12.749
69566SOL     OW10536   1.760  14.784   7.707
69566SOL    HW110537   1.762  14.770   7.612
69566SOL    HW210538   1.763  14.879   7.717
69567SOL     OW10539  13.743   0.573   1.821
69567SOL    HW110540  13.821   0.544   1.867
69567SOL    HW210541  13.710   0.495   1.777
69568SOL     OW10542   2.791   9.241  11.304
69568SOL    HW110543   2.714   9.184  11.302
69568SOL    HW210544   2.819   9.239  11.396
69569SOL     OW10545   1.804   4.036   3.258
69569SOL    HW110546   1.817   4.130   3.246
69569SOL    HW210547   1.849   3.996   3.183
69570SOL     OW10548   2.039   0.511   8.647
69570SOL    HW110549   2.045   0.422   8.681
69570SOL    HW210550   1.950   0.539   8.669
69571SOL     OW10551  14.650   0.881   5.278
69571SOL    HW110552  14.620   0.948   5.217
69571SOL    HW210553  14.569   0.848   5.318
69572SOL     OW10554   8.702   9.410   9.486
69572SOL    HW110555   8.629   9.355   9.516
69572SOL    HW210556   8.700   9.403   9.390
69573SOL     OW10557   9.107   3.259  12.829
69573SOL    HW110558   9.046   3.191  12.799
69573SOL    HW210559   9.178   3.210  12.872
69574SOL     OW10560   4.986   2.762   6.950
69574SOL    HW110561   4.917   2.825   6.972
69574SOL    HW210562   5.013   2.785   6.861
69575SOL     OW10563   8.175  10.302   6.106
69575SOL    HW110564   8.168  10.225   6.163
69575SOL    HW210565   8.252  10.284   6.051
69576SOL     OW10566   7.270   1.888   8.419
69576SOL    HW110567   7.285   1.806   8.371
69576SOL    HW210568   7.190   1.923   8.381
69577SOL     OW10569   8.909   0.564   5.463
69577SOL    HW110570   8.819   0.552   5.433
69577SOL    HW210571   8.942   0.475   5.476
69578SOL     OW10572   4.693   4.898   8.393
69578SOL    HW110573   4.707   4.890   8.299
69578SOL    HW210574   4.608   4.942   8.401
69579SOL     OW10575   0.669   4.299  13.023
69579SOL    HW110576   0.648   4.208  13.002
69579SOL    HW210577   0.626   4.315  13.107
69580SOL     OW10578   1.665  13.032   5.514
69580SOL    HW110579   1.711  13.078   5.444
69580SOL    HW210580   1.729  13.025   5.585
69581SOL     OW10581  14.146   3.389   6.310
69581SOL    HW110582  14.086   3.353   6.375
69581SOL    HW210583  14.114   3.356   6.226
69582SOL     OW10584   9.791   8.957   6.928
69582SOL    HW110585   9.728   9.028   6.931
69582SOL    HW210586   9.741   8.879   6.950
69583SOL     OW10587  10.273   6.282  13.169
69583SOL    HW110588  10.249   6.291  13.262
69583SOL    HW210589  10.368   6.284  13.168
69584SOL     OW10590   7.606   9.151   5.480
69584SOL    HW110591   7.633   9.177   5.568
69584SOL    HW210592   7.561   9.227   5.444
69585SOL     OW10593  13.801  13.310  10.007
69585SOL    HW110594  13.747  13.251   9.955
69585SOL    HW210595  13.891  13.285   9.986
69586SOL     OW10596   5.000  14.488  10.566
69586SOL    HW110597   5.084  14.444  10.576
69586SOL    HW210598   4.950  14.430  10.508
69587SOL     OW10599   4.719   4.212   5.566
69587SOL    HW110600   4.687   4.217   5.476
69587SOL    HW210601   4.666   4.145   5.608
69588SOL     OW10602   5.637  12.593   8.041
69588SOL    HW110603   5.625  12.505   8.005
69588SOL    HW210604   5.577  12.596   8.116
69589SOL     OW10605   0.176  13.717   8.914
69589SOL    HW110606   0.134  13.715   8.828
69589SOL    HW210607   0.208  13.807   8.922
69590SOL     OW10608  14.705   6.380   9.217
69590SOL    HW110609  14.661   6.343   9.140
69590SOL    HW210610  14.676   6.326   9.290
69591SOL     OW10611   4.199   6.740  12.439
69591SOL    HW110612   4.135   6.683  12.482
69591SOL    HW210613   4.276   6.738  12.496
69592SOL     OW10614   9.279  11.723   4.706
69592SOL    HW110615   9.324  11.681   4.633
69592SOL    HW210616   9.186  11.705   4.691
69593SOL     OW10617  11.282   2.361   3.303
69593SOL    HW110618  11.362   2.400   3.337
69593SOL    HW210619  11.307   2.323   3.219
69594SOL     OW10620   5.615  11.425  10.512
69594SOL    HW110621   5.672  11.349  10.525
69594SOL    HW210622   5.552  11.420  10.584
69595SOL     OW10623  11.798  14.541  11.552
69595SOL    HW110624  11.785  14.540  11.458
69595SOL    HW210625  11.866  14.607  11.567
69596SOL     OW10626   2.522   8.679   4.690
69596SOL    HW110627   2.516   8.770   4.661
69596SOL    HW210628   2.490   8.680   4.780
69597SOL     OW10629  12.026  14.215   9.906
69597SOL    HW110630  11.939  14.174   9.901
69597SOL    HW210631  12.085  14.150   9.868
69598SOL     OW10632   8.432   1.748  14.514
69598SOL    HW110633   8.361   1.686  14.495
69598SOL    HW210634   8.476   1.712  14.590
69599SOL     OW10635  13.145   8.032   5.169
69599SOL    HW110636  13.121   8.016   5.260
69599SOL    HW210637  13.089   7.972   5.119
69600SOL     OW10638   8.426   0.472   3.592
69600SOL    HW110639   8.514   0.447   3.622
69600SOL    HW210640   8.441   0.537   3.523
69601SOL     OW10641   1.070   0.721   4.721
69601SOL    HW110642   1.019   0.660   4.668
69601SOL    HW210643   1.161   0.708   4.693
69602SOL     OW10644  11.069   5.628   2.336
69602SOL    HW110645  11.001   5.610   2.272
69602SOL    HW210646  11.034   5.595   2.419
69603SOL     OW10647   4.391   3.521   9.165
69603SOL    HW110648   4.390   3.586   9.095
69603SOL    HW210649   4.481   3.520   9.196
69604SOL     OW10650   9.862   5.478  12.769
69604SOL    HW110651   9.861   5.573  12.767
69604SOL    HW210652   9.788   5.451  12.714
69605SOL     OW10653   7.530  14.523   9.256
69605SOL    HW110654   7.553  14.558   9.170
69605SOL    HW210655   7.500  14.600   9.306
69606SOL     OW10656   6.507   7.445   4.195
69606SOL    HW110657   6.597   7.413   4.183
69606SOL    HW210658   6.460   7.412   4.118
69607SOL     OW10659   4.893   2.778  10.893
69607SOL    HW110660   4.842   2.742  10.820
69607SOL    HW210661   4.984   2.774  10.863
69608SOL     OW10662  10.491   5.447  12.102
69608SOL    HW110663  10.458   5.516  12.045
69608SOL    HW210664  10.568   5.486  12.144
69609SOL     OW10665   7.856   3.843  13.584
69609SOL    HW110666   7.889   3.804  13.503
69609SOL    HW210667   7.774   3.797  13.601
69610SOL     OW10668   9.638  13.293   2.443
69610SOL    HW110669   9.554  13.298   2.397
69610SOL    HW210670   9.635  13.210   2.490
69611SOL     OW10671  10.966   1.900  12.088
69611SOL    HW110672  10.880   1.924  12.121
69611SOL    HW210673  11.024   1.908  12.164
69612SOL     OW10674   8.012   8.604   8.334
69612SOL    HW110675   8.091   8.576   8.379
69612SOL    HW210676   8.038   8.685   8.289
69613SOL     OW10677   9.190   4.356  10.087
69613SOL    HW110678   9.243   4.279  10.109
69613SOL    HW210679   9.229   4.427  10.138
69614SOL     OW10680   3.782   6.070   3.280
69614SOL    HW110681   3.764   6.089   3.373
69614SOL    HW210682   3.718   6.124   3.233
69615SOL     OW10683   5.124   2.306   2.527
69615SOL    HW110684   5.056   2.298   2.461
69615SOL    HW210685   5.129   2.219   2.567
69616SOL     OW10686   3.678   3.133   3.216
69616SOL    HW110687   3.668   3.205   3.278
69616SOL    HW210688   3.592   3.125   3.175
69617SOL     OW10689  12.576   1.427   1.759
69617SOL    HW110690  12.556   1.405   1.668
69617SOL    HW210691  12.534   1.358   1.810
69618SOL     OW10692  13.755   7.069   2.776
69618SOL    HW110693  13.667   7.042   2.803
69618SOL    HW210694  13.797   7.098   2.857
69619SOL     OW10695   0.898   9.754   6.949
69619SOL    HW110696   0.809   9.768   6.981
69619SOL    HW210697   0.938   9.841   6.951
69620SOL     OW10698  14.203   6.884   1.486
69620SOL    HW110699  14.187   6.970   1.448
69620SOL    HW210700  14.286   6.856   1.447
69621SOL     OW10701   5.504   8.343  12.947
69621SOL    HW110702   5.415   8.378  12.952
69621SOL    HW210703   5.543   8.364  13.032
69622SOL     OW10704  13.762  12.153   2.897
69622SOL    HW110705  13.756  12.204   2.978
69622SOL    HW210706  13.792  12.216   2.832
69623SOL     OW10707   9.667  12.382  13.465
69623SOL    HW110708   9.682  12.365  13.372
69623SOL    HW210709   9.601  12.319  13.491
69624SOL     OW10710   9.007   3.434  14.020
69624SOL    HW110711   9.053   3.353  13.997
69624SOL    HW210712   8.914   3.410  14.017
69625SOL     OW10713   8.166   3.470   5.760
69625SOL    HW110714   8.219   3.444   5.835
69625SOL    HW210715   8.076   3.464   5.791
69626SOL     OW10716   5.048   1.116   4.626
69626SOL    HW110717   4.973   1.173   4.644
69626SOL    HW210718   5.116   1.146   4.686
69627SOL     OW10719   7.233  11.148   0.738
69627SOL    HW110720   7.187  11.231   0.725
69627SOL    HW210721   7.318  11.162   0.696
69628SOL     OW10722   6.555   4.096   3.747
69628SOL    HW110723   6.519   4.184   3.756
69628SOL    HW210724   6.512   4.061   3.669
69629SOL     OW10725   4.244   6.154   6.878
69629SOL    HW110726   4.310   6.184   6.814
69629SOL    HW210727   4.281   6.177   6.963
69630SOL     OW10728   1.653   8.285   7.611
69630SOL    HW110729   1.728   8.229   7.591
69630SOL    HW210730   1.587   8.259   7.547
69631SOL     OW10731   4.386  11.582   5.706
69631SOL    HW110732   4.433  11.565   5.788
69631SOL    HW210733   4.344  11.667   5.719
69632SOL     OW10734   8.830   4.163  11.588
69632SOL    HW110735   8.803   4.097  11.651
69632SOL    HW210736   8.756   4.170  11.527
69633SOL     OW10737   6.379  12.367  13.632
69633SOL    HW110738   6.375  12.352  13.727
69633SOL    HW210739   6.304  12.319  13.597
69634SOL     OW10740   2.102  14.527  11.939
69634SOL    HW110741   2.187  14.512  11.980
69634SOL    HW210742   2.053  14.578  12.003
69635SOL     OW10743   2.027   2.067  10.431
69635SOL    HW110744   1.994   2.043  10.518
69635SOL    HW210745   1.949   2.069  10.376
69636SOL     OW10746   2.204   6.798  11.155
69636SOL    HW110747   2.207   6.705  11.133
69636SOL    HW210748   2.295   6.822  11.169
69637SOL     OW10749  12.006   4.448   6.791
69637SOL    HW110750  11.930   4.503   6.810
69637SOL    HW210751  12.034   4.474   6.703
69638SOL     OW10752   5.441   4.376   4.636
69638SOL    HW110753   5.498   4.452   4.627
69638SOL    HW210754   5.498   4.301   4.617
69639SOL     OW10755  14.601  13.806  10.299
69639SOL    HW110756  14.557  13.870  10.244
69639SOL    HW210757  14.641  13.858  10.369
69640SOL     OW10758   2.118  11.515   3.319
69640SOL    HW110759   2.135  11.609   3.329
69640SOL    HW210760   2.147  11.495   3.230
69641SOL     OW10761   8.275   8.476  10.253
69641SOL    HW110762   8.313   8.535  10.317
69641SOL    HW210763   8.181   8.477  10.272
69642SOL     OW10764  14.120  10.885  10.582
69642SOL    HW110765  14.062  10.961  10.575
69642SOL    HW210766  14.194  10.906  10.525
69643SOL     OW10767   4.773  13.225   2.891
69643SOL    HW110768   4.850  13.199   2.841
69643SOL    HW210769   4.761  13.156   2.956
69644SOL     OW10770   5.352  14.195   1.767
69644SOL    HW110771   5.429  14.140   1.780
69644SOL    HW210772   5.388  14.283   1.756
69645SOL     OW10773   9.145   7.057   7.421
69645SOL    HW110774   9.137   7.138   7.369
69645SOL    HW210775   9.070   7.004   7.394
69646SOL     OW10776   8.466   9.445  11.652
69646SOL    HW110777   8.390   9.406  11.693
69646SOL    HW210778   8.439   9.462  11.562
69647SOL     OW10779   3.439  12.132  13.247
69647SOL    HW110780   3.489  12.093  13.319
69647SOL    HW210781   3.354  12.088  13.250
69648SOL     OW10782  13.881   7.368  10.849
69648SOL    HW110783  13.976   7.369  10.859
69648SOL    HW210784  13.858   7.460  10.837
69649SOL     OW10785   1.148  12.509   7.839
69649SOL    HW110786   1.089  12.543   7.907
69649SOL    HW210787   1.089  12.473   7.772
69650SOL     OW10788   4.759  12.907   8.267
69650SOL    HW110789   4.799  12.897   8.354
69650SOL    HW210790   4.824  12.956   8.217
69651SOL     OW10791   5.715   3.738   7.221
69651SOL    HW110792   5.805   3.723   7.193
69651SOL    HW210793   5.717   3.730   7.316
69652SOL     OW10794  14.299  14.559  14.250
69652SOL    HW110795  14.263  14.486  14.201
69652SOL    HW210796  14.315  14.627  14.184
69653SOL     OW10797   9.482   5.232  12.868
69653SOL    HW110798   9.482   5.137  12.857
69653SOL    HW210799   9.429   5.248  12.946
69654SOL     OW10800   7.683   3.665   7.356
69654SOL    HW110801   7.676   3.578   7.395
69654SOL    HW210802   7.774   3.691   7.370
69655SOL     OW10803   9.535   9.667  12.502
69655SOL    HW110804   9.488   9.630  12.576
69655SOL    HW210805   9.614   9.614  12.495
69656SOL     OW10806  14.617   3.712   0.629
69656SOL    HW110807  14.565   3.674   0.700
69656SOL    HW210808  14.649   3.795   0.665
69657SOL     OW10809   0.377  13.117   8.953
69657SOL    HW110810   0.433  13.093   8.879
69657SOL    HW210811   0.433  13.173   9.008
69658SOL     OW10812   1.234   4.652  13.067
69658SOL    HW110813   1.305   4.711  13.040
69658SOL    HW210814   1.206   4.609  12.987
69659SOL     OW10815  11.833   4.291  13.793
69659SOL    HW110816  11.793   4.282  13.707
69659SOL    HW210817  11.913   4.340  13.778
69660SOL     OW10818  11.981   0.956   1.347
69660SOL    HW110819  12.061   0.912   1.320
69660SOL    HW210820  11.914   0.922   1.288
69661SOL     OW10821  13.947   2.318   0.619
69661SOL    HW110822  13.990   2.320   0.704
69661SOL    HW210823  13.855   2.340   0.638
69662SOL     OW10824   9.641   2.993   4.784
69662SOL    HW110825   9.584   3.006   4.709
69662SOL    HW210826   9.590   3.026   4.859
69663SOL     OW10827  14.167   7.664   1.444
69663SOL    HW110828  14.173   7.574   1.412
69663SOL    HW210829  14.135   7.714   1.368
69664SOL     OW10830   5.550   0.995   8.024
69664SOL    HW110831   5.556   1.057   7.952
69664SOL    HW210832   5.465   1.014   8.065
69665SOL     OW10833   9.610  11.857   5.156
69665SOL    HW110834   9.517  11.837   5.142
69665SOL    HW210835   9.613  11.952   5.163
69666SOL     OW10836   6.079   1.009   9.914
69666SOL    HW110837   6.122   1.007   9.999
69666SOL    HW210838   6.084   0.919   9.881
69667SOL     OW10839   8.824   2.937  14.410
69667SOL    HW110840   8.750   2.886  14.443
69667SOL    HW210841   8.901   2.893  14.445
69668SOL     OW10842   2.666   3.777   1.568
69668SOL    HW110843   2.724   3.741   1.635
69668SOL    HW210844   2.724   3.825   1.509
69669SOL     OW10845  11.565   5.528   6.411
69669SOL    HW110846  11.499   5.574   6.359
69669SOL    HW210847  11.574   5.580   6.490
69670SOL     OW10848   2.167   3.775   5.447
69670SOL    HW110849   2.220   3.817   5.514
69670SOL    HW210850   2.228   3.757   5.375
69671SOL     OW10851  11.975   4.507   4.568
69671SOL    HW110852  11.882   4.530   4.573
69671SOL    HW210853  11.993   4.499   4.474
69672SOL     OW10854   8.742  13.330   9.753
69672SOL    HW110855   8.693  13.273   9.693
69672SOL    HW210856   8.761  13.408   9.701
69673SOL     OW10857   7.921   7.560   4.526
69673SOL    HW110858   7.894   7.468   4.527
69673SOL    HW210859   7.957   7.574   4.439
69674SOL     OW10860   9.729   9.596  11.532
69674SOL    HW110861   9.822   9.574  11.527
69674SOL    HW210862   9.705   9.619  11.443
69675SOL     OW10863   1.724   3.428  10.455
69675SOL    HW110864   1.643   3.469  10.486
69675SOL    HW210865   1.695   3.357  10.398
69676SOL     OW10866   4.146  12.288   2.848
69676SOL    HW110867   4.166  12.305   2.940
69676SOL    HW210868   4.198  12.352   2.799
69677SOL     OW10869   2.709  11.638   9.123
69677SOL    HW110870   2.782  11.694   9.097
69677SOL    HW210871   2.704  11.647   9.218
69678SOL     OW10872   2.811   7.858  10.928
69678SOL    HW110873   2.900   7.824  10.930
69678SOL    HW210874   2.759   7.786  10.891
69679SOL     OW10875   4.132   4.836  13.515
69679SOL    HW110876   4.158   4.927  13.529
69679SOL    HW210877   4.214   4.791  13.497
69680SOL     OW10878   2.146  12.136   5.865
69680SOL    HW110879   2.070  12.142   5.807
69680SOL    HW210880   2.204  12.074   5.822
69681SOL     OW10881  12.880  13.033  12.022
69681SOL    HW110882  12.819  12.990  12.082
69681SOL    HW210883  12.865  12.990  11.938
69682SOL     OW10884   2.324   5.618   2.400
69682SOL    HW110885   2.375   5.697   2.421
69682SOL    HW210886   2.367   5.548   2.449
69683SOL     OW10887   4.566  12.029   7.782
69683SOL    HW110888   4.476  12.020   7.814
69683SOL    HW210889   4.590  12.119   7.803
69684SOL     OW10890   6.078   1.547  10.197
69684SOL    HW110891   6.096   1.474  10.138
69684SOL    HW210892   6.140   1.615  10.172
69685SOL     OW10893   3.407   4.625   9.485
69685SOL    HW110894   3.335   4.582   9.531
69685SOL    HW210895   3.393   4.604   9.393
69686SOL     OW10896  13.357   2.520  10.024
69686SOL    HW110897  13.314   2.539  10.107
69686SOL    HW210898  13.403   2.601  10.002
69687SOL     OW10899  12.120   0.695   3.395
69687SOL    HW110900  12.207   0.666   3.366
69687SOL    HW210901  12.119   0.677   3.488
69688SOL     OW10902  11.223   9.496  14.327
69688SOL    HW110903  11.205   9.588  14.306
69688SOL    HW210904  11.291   9.499  14.394
69689SOL     OW10905   0.009   2.049   2.505
69689SOL    HW110906   0.001   2.093   2.589
69689SOL    HW210907   0.066   2.106   2.453
69690SOL     OW10908   0.936  11.652  10.588
69690SOL    HW110909   0.963  11.561  10.573
69690SOL    HW210910   0.944  11.693  10.502
69691SOL     OW10911   8.423   0.140   4.082
69691SOL    HW110912   8.371   0.102   4.011
69691SOL    HW210913   8.391   0.098   4.161
69692SOL     OW10914   5.184   8.128  13.396
69692SOL    HW110915   5.231   8.187  13.336
69692SOL    HW210916   5.153   8.057  13.341
69693SOL     OW10917  13.298   2.833   7.805
69693SOL    HW110918  13.252   2.795   7.730
69693SOL    HW210919  13.278   2.773   7.878
69694SOL     OW10920   3.176  11.450   9.496
69694SOL    HW110921   3.092  11.405   9.490
69694SOL    HW210922   3.206  11.456   9.405
69695SOL     OW10923  12.911   4.022   8.258
69695SOL    HW110924  12.971   4.048   8.189
69695SOL    HW210925  12.948   4.061   8.338
69696SOL     OW10926   3.049   2.473   5.344
69696SOL    HW110927   2.973   2.416   5.355
69696SOL    HW210928   3.082   2.453   5.256
69697SOL     OW10929   3.164  12.625   8.279
69697SOL    HW110930   3.159  12.548   8.221
69697SOL    HW210931   3.077  12.632   8.317
69698SOL     OW10932   9.176   6.268  12.848
69698SOL    HW110933   9.148   6.177  12.856
69698SOL    HW210934   9.233   6.283  12.923
69699SOL     OW10935  13.934   2.741  12.595
69699SOL    HW110936  14.017   2.744  12.642
69699SOL    HW210937  13.871   2.782  12.655
69700SOL     OW10938   9.029  14.795   1.445
69700SOL    HW110939   9.035  14.874   1.392
69700SOL    HW210940   9.035  14.723   1.382
69701SOL     OW10941   5.116   4.367   3.593
69701SOL    HW110942   5.210   4.386   3.584
69701SOL    HW210943   5.076   4.452   3.615
69702SOL     OW10944  11.146   0.499   0.550
69702SOL    HW110945  11.115   0.587   0.570
69702SOL    HW210946  11.067   0.450   0.528
69703SOL     OW10947  14.716   8.090  10.814
69703SOL    HW110948  14.728   8.113  10.722
69703SOL    HW210949  14.745   7.999  10.820
69704SOL     OW10950   5.118  13.740  14.795
69704SOL    HW110951   5.177  13.785  14.856
69704SOL    HW210952   5.168  13.664  14.765
69705SOL     OW10953   9.687  13.394   9.068
69705SOL    HW110954   9.606  13.438   9.042
69705SOL    HW210955   9.670  13.365   9.158
69706SOL     OW10956   0.615  10.721  11.008
69706SOL    HW110957   0.535  10.774  11.008
69706SOL    HW210958   0.621  10.689  11.098
69707SOL     OW10959   5.050   2.629   1.768
69707SOL    HW110960   5.126   2.600   1.718
69707SOL    HW210961   4.980   2.637   1.703
69708SOL     OW10962  11.766   1.470   6.124
69708SOL    HW110963  11.851   1.456   6.166
69708SOL    HW210964  11.785   1.527   6.050
69709SOL     OW10965   7.373   6.714   1.214
69709SOL    HW110966   7.388   6.696   1.307
69709SOL    HW210967   7.448   6.676   1.169
69710SOL     OW10968   5.586  12.764   3.252
69710SOL    HW110969   5.561  12.672   3.243
69710SOL    HW210970   5.537  12.809   3.183
69711SOL     OW10971   1.451   7.552   5.240
69711SOL    HW110972   1.454   7.595   5.325
69711SOL    HW210973   1.540   7.519   5.226
69712SOL     OW10974   1.643  14.212   6.149
69712SOL    HW110975   1.703  14.212   6.223
69712SOL    HW210976   1.596  14.295   6.156
69713SOL     OW10977   4.546  14.605  10.320
69713SOL    HW110978   4.483  14.544  10.281
69713SOL    HW210979   4.496  14.650  10.388
69714SOL     OW10980   3.442  12.740   6.608
69714SOL    HW110981   3.405  12.733   6.697
69714SOL    HW210982   3.385  12.685   6.554
69715SOL     OW10983   9.538   7.089   1.663
69715SOL    HW110984   9.461   7.079   1.608
69715SOL    HW210985   9.517   7.164   1.720
69716SOL     OW10986   2.596   5.310   8.931
69716SOL    HW110987   2.642   5.251   8.991
69716SOL    HW210988   2.503   5.294   8.948
69717SOL     OW10989   9.071  13.822   6.908
69717SOL    HW110990   9.134  13.816   6.836
69717SOL    HW210991   9.040  13.733   6.920
69718SOL     OW10992   6.662  10.373   1.380
69718SOL    HW110993   6.743  10.409   1.343
69718SOL    HW210994   6.645  10.295   1.327
69719SOL     OW10995  10.912   2.320  12.632
69719SOL    HW110996  10.979   2.388  12.631
69719SOL    HW210997  10.874   2.321  12.545
69720SOL     OW10998   3.145   8.884  11.825
69720SOL    HW110999   3.116   8.903  11.914
69720SOL    HW211000   3.179   8.794  11.829
69721SOL     OW11001   7.571   4.295   4.636
69721SOL    HW111002   7.635   4.365   4.625
69721SOL    HW211003   7.620   4.214   4.623
69722SOL     OW11004   8.943   3.403   7.410
69722SOL    HW111005   8.908   3.318   7.384
69722SOL    HW211006   8.925   3.460   7.335
69723SOL     OW11007   9.078   1.053   0.063
69723SOL    HW111008   9.074   1.132   0.010
69723SOL    HW211009   9.035   1.077   0.145
69724SOL     OW11010   1.988  13.781   9.108
69724SOL    HW111011   1.971  13.860   9.159
69724SOL    HW211012   1.902  13.747   9.086
69725SOL     OW11013  13.389   3.943   2.011
69725SOL    HW111014  13.451   3.874   2.034
69725SOL    HW211015  13.356   3.918   1.925
69726SOL     OW11016  11.595   1.101   2.599
69726SOL    HW111017  11.612   1.195   2.597
69726SOL    HW211018  11.578   1.081   2.691
69727SOL     OW11019   1.289  14.708   4.854
69727SOL    HW111020   1.225  14.688   4.923
69727SOL    HW211021   1.330  14.790   4.882
69728SOL     OW11022   8.048   7.721  11.316
69728SOL    HW111023   7.992   7.653  11.352
69728SOL    HW211024   8.104   7.748  11.388
69729SOL     OW11025  13.370  10.246   9.904
69729SOL    HW111026  13.281  10.277   9.888
69729SOL    HW211027  13.410  10.312   9.961
69730SOL     OW11028   0.107   8.196   7.790
69730SOL    HW111029   0.040   8.232   7.848
69730SOL    HW211030   0.074   8.213   7.702
69731SOL     OW11031  13.710  11.986   7.074
69731SOL    HW111032  13.791  11.995   7.024
69731SOL    HW211033  13.664  11.913   7.032
69732SOL     OW11034   3.983   6.648   1.802
69732SOL    HW111035   4.012   6.654   1.711
69732SOL    HW211036   3.995   6.736   1.837
69733SOL     OW11037  12.384   9.469   1.063
69733SOL    HW111038  12.448   9.481   0.993
69733SOL    HW211039  12.310   9.523   1.037
69734SOL     OW11040   8.315   0.522   8.572
69734SOL    HW111041   8.270   0.598   8.610
69734SOL    HW211042   8.246   0.471   8.530
69735SOL     OW11043   5.842   6.400   1.653
69735SOL    HW111044   5.765   6.344   1.663
69735SOL    HW211045   5.806   6.488   1.640
69736SOL     OW11046   6.947   2.933  12.778
69736SOL    HW111047   6.933   3.025  12.804
69736SOL    HW211048   6.959   2.937  12.684
69737SOL     OW11049  14.324   2.398  11.148
69737SOL    HW111050  14.290   2.469  11.095
69737SOL    HW211051  14.278   2.407  11.232
69738SOL     OW11052   7.365  14.676   8.052
69738SOL    HW111053   7.336  14.638   7.969
69738SOL    HW211054   7.366  14.770   8.035
69739SOL     OW11055  14.593   1.061   4.756
69739SOL    HW111056  14.640   1.058   4.672
69739SOL    HW211057  14.651   1.014   4.817
69740SOL     OW11058  11.366  13.299   3.078
69740SOL    HW111059  11.410  13.381   3.099
69740SOL    HW211060  11.435  13.232   3.083
69741SOL     OW11061   3.029   1.385  10.256
69741SOL    HW111062   3.079   1.325  10.200
69741SOL    HW211063   3.057   1.363  10.345
69742SOL     OW11064  10.471  10.052   7.110
69742SOL    HW111065  10.491   9.993   7.037
69742SOL    HW211066  10.460  10.138   7.069
69743SOL     OW11067   2.588  12.710  13.709
69743SOL    HW111068   2.506  12.712  13.660
69743SOL    HW211069   2.580  12.634  13.766
69744SOL     OW11070  13.139   8.311  14.128
69744SOL    HW111071  13.192   8.389  14.111
69744SOL    HW211072  13.131   8.308  14.224
69745SOL     OW11073   4.154  12.053  14.877
69745SOL    HW111074   4.151  12.040   0.092
69745SOL    HW211075   4.071  12.019  14.845
69746SOL     OW11076   4.211   9.245   0.346
69746SOL    HW111077   4.148   9.266   0.277
69746SOL    HW211078   4.162   9.257   0.428
69747SOL     OW11079  12.806   4.738  13.515
69747SOL    HW111080  12.752   4.660  13.507
69747SOL    HW211081  12.823   4.765  13.425
69748SOL     OW11082  13.862  11.396  12.254
69748SOL    HW111083  13.842  11.481  12.293
69748SOL    HW211084  13.957  11.391  12.255
69749SOL     OW11085   2.829  13.726  11.113
69749SOL    HW111086   2.777  13.764  11.184
69749SOL    HW211087   2.778  13.743  11.034
69750SOL     OW11088   6.780   7.216   3.690
69750SOL    HW111089   6.738   7.132   3.708
69750SOL    HW211090   6.719   7.262   3.632
69751SOL     OW11091  13.121   5.900   1.830
69751SOL    HW111092  13.027   5.911   1.817
69751SOL    HW211093  13.153   5.989   1.847
69752SOL     OW11094   5.677   0.855   4.385
69752SOL    HW111095   5.667   0.915   4.459
69752SOL    HW211096   5.754   0.803   4.407
69753SOL     OW11097   8.239  12.012  12.558
69753SOL    HW111098   8.226  12.033  12.465
69753SOL    HW211099   8.176  11.942  12.576
69754SOL     OW11100   9.959   8.897  14.207
69754SOL    HW111101   9.996   8.936  14.287
69754SOL    HW211102   9.867   8.883  14.228
69755SOL     OW11103  13.092   8.031   7.369
69755SOL    HW111104  13.160   8.088   7.406
69755SOL    HW211105  13.127   8.006   7.284
69756SOL     OW11106  10.515  14.559   8.930
69756SOL    HW111107  10.426  14.560   8.893
69756SOL    HW211108  10.504  14.588   9.020
69757SOL     OW11109  14.060   6.719  10.041
69757SOL    HW111110  14.035   6.747   9.953
69757SOL    HW211111  14.067   6.624  10.035
69758SOL     OW11112   1.722   5.218   9.064
69758SOL    HW111113   1.647   5.215   9.005
69758SOL    HW211114   1.740   5.311   9.076
69759SOL     OW11115   9.833  13.700   4.018
69759SOL    HW111116   9.772  13.633   4.049
69759SOL    HW211117   9.918  13.656   4.016
69760SOL     OW11118   1.717   9.066   2.637
69760SOL    HW111119   1.804   9.061   2.598
69760SOL    HW211120   1.733   9.092   2.728
69761SOL     OW11121   9.044   8.075   6.169
69761SOL    HW111122   9.089   8.006   6.119
69761SOL    HW211123   9.045   8.042   6.259
69762SOL     OW11124   6.778   8.886  13.961
69762SOL    HW111125   6.838   8.895  13.887
69762SOL    HW211126   6.754   8.793  13.960
69763SOL     OW11127  11.861   9.807   7.910
69763SOL    HW111128  11.783   9.788   7.858
69763SOL    HW211129  11.928   9.748   7.875
69764SOL     OW11130   6.297   8.108  10.544
69764SOL    HW111131   6.346   8.183  10.511
69764SOL    HW211132   6.354   8.070  10.611
69765SOL     OW11133  12.683   2.534  10.043
69765SOL    HW111134  12.614   2.536   9.976
69765SOL    HW211135  12.647   2.478  10.112
69766SOL     OW11136   6.941   8.536  14.311
69766SOL    HW111137   6.879   8.573  14.374
69766SOL    HW211138   6.977   8.459  14.355
69767SOL     OW11139   1.269  10.052  10.438
69767SOL    HW111140   1.193  10.035  10.383
69767SOL    HW211141   1.284  10.146  10.431
69768SOL     OW11142   2.147   2.599   5.987
69768SOL    HW111143   2.123   2.640   6.071
69768SOL    HW211144   2.128   2.666   5.922
69769SOL     OW11145  12.887  13.881   9.962
69769SOL    HW111146  12.980  13.868   9.941
69769SOL    HW211147  12.860  13.800  10.004
69770SOL     OW11148   8.569   5.991   8.821
69770SOL    HW111149   8.487   5.991   8.772
69770SOL    HW211150   8.626   6.049   8.770
69771SOL     OW11151   0.159   4.677   0.938
69771SOL    HW111152   0.209   4.721   1.007
69771SOL    HW211153   0.068   4.691   0.963
69772SOL     OW11154  12.975   8.118  10.524
69772SOL    HW111155  12.879   8.116  10.524
69772SOL    HW211156  12.997   8.192  10.581
69773SOL     OW11157   2.773   7.077  13.092
69773SOL    HW111158   2.848   7.133  13.115
69773SOL    HW211159   2.699   7.117  13.138
69774SOL     OW11160  12.089  11.521   4.910
69774SOL    HW111161  12.096  11.581   4.835
69774SOL    HW211162  12.104  11.576   4.986
69775SOL     OW11163   4.677   8.331   7.909
69775SOL    HW111164   4.645   8.272   7.841
69775SOL    HW211165   4.601   8.345   7.966
69776SOL     OW11166   0.864   0.420  11.853
69776SOL    HW111167   0.872   0.431  11.759
69776SOL    HW211168   0.818   0.336  11.864
69777SOL     OW11169   9.638   6.502  12.935
69777SOL    HW111170   9.599   6.492  12.848
69777SOL    HW211171   9.731   6.522  12.917
69778SOL     OW11172   5.391   8.154   6.329
69778SOL    HW111173   5.383   8.074   6.278
69778SOL    HW211174   5.328   8.214   6.288
69779SOL     OW11175   6.943   1.599   0.789
69779SOL    HW111176   6.938   1.691   0.764
69779SOL    HW211177   7.011   1.562   0.733
69780SOL     OW11178   3.410   1.501  14.356
69780SOL    HW111179   3.342   1.452  14.311
69780SOL    HW211180   3.480   1.437  14.371
69781SOL     OW11181   6.720   5.800   0.378
69781SOL    HW111182   6.732   5.895   0.383
69781SOL    HW211183   6.728   5.770   0.468
69782SOL     OW11184  11.489   4.760   0.351
69782SOL    HW111185  11.457   4.837   0.304
69782SOL    HW211186  11.568   4.789   0.396
69783SOL     OW11187   7.261   3.662   1.434
69783SOL    HW111188   7.249   3.589   1.374
69783SOL    HW211189   7.196   3.726   1.409
69784SOL     OW11190   8.827  14.693   5.305
69784SOL    HW111191   8.875  14.763   5.260
69784SOL    HW211192   8.737  14.704   5.275
69785SOL     OW11193   2.533   2.803  11.556
69785SOL    HW111194   2.611   2.753  11.535
69785SOL    HW211195   2.562   2.895  11.554
69786SOL     OW11196   4.090  11.522   1.538
69786SOL    HW111197   4.059  11.446   1.587
69786SOL    HW211198   4.119  11.584   1.605
69787SOL     OW11199  14.171   2.425   9.186
69787SOL    HW111200  14.200   2.439   9.276
69787SOL    HW211201  14.128   2.507   9.162
69788SOL     OW11202   7.591   7.312   3.859
69788SOL    HW111203   7.500   7.320   3.887
69788SOL    HW211204   7.618   7.226   3.891
69789SOL     OW11205   2.175  11.356  14.070
69789SOL    HW111206   2.231  11.278  14.077
69789SOL    HW211207   2.156  11.380  14.161
69790SOL     OW11208   6.311   2.145   8.991
69790SOL    HW111209   6.300   2.105   8.905
69790SOL    HW211210   6.319   2.071   9.051
69791SOL     OW11211   0.732  10.396   2.701
69791SOL    HW111212   0.816  10.351   2.716
69791SOL    HW211213   0.699  10.415   2.789
69792SOL     OW11214   5.506   5.736   1.187
69792SOL    HW111215   5.601   5.739   1.190
69792SOL    HW211216   5.478   5.814   1.236
69793SOL     OW11217   5.444   3.440  11.357
69793SOL    HW111218   5.496   3.361  11.370
69793SOL    HW211219   5.501   3.499  11.308
69794SOL     OW11220   6.580  13.287   3.829
69794SOL    HW111221   6.638  13.291   3.905
69794SOL    HW211222   6.626  13.231   3.767
69795SOL     OW11223   7.943   0.339   8.918
69795SOL    HW111224   7.959   0.369   9.007
69795SOL    HW211225   7.865   0.285   8.924
69796SOL     OW11226   5.825   3.850   5.556
69796SOL    HW111227   5.804   3.833   5.464
69796SOL    HW211228   5.770   3.924   5.580
69797SOL     OW11229  10.273   7.767  13.180
69797SOL    HW111230  10.361   7.769  13.218
69797SOL    HW211231  10.267   7.681  13.138
69798SOL     OW11232   8.142   6.090   2.224
69798SOL    HW111233   8.184   6.174   2.204
69798SOL    HW211234   8.180   6.029   2.161
69799SOL     OW11235   4.683  13.043   4.201
69799SOL    HW111236   4.765  13.039   4.152
69799SOL    HW211237   4.709  13.032   4.292
69800SOL     OW11238   3.232   8.407   1.029
69800SOL    HW111239   3.148   8.364   1.046
69800SOL    HW211240   3.241   8.470   1.101
69801SOL     OW11241   3.118   3.752   4.708
69801SOL    HW111242   3.214   3.748   4.718
69801SOL    HW211243   3.086   3.758   4.798
69802SOL     OW11244   6.027   2.649   9.988
69802SOL    HW111245   5.973   2.660  10.066
69802SOL    HW211246   5.974   2.593   9.931
69803SOL     OW11247   8.301  14.103   9.071
69803SOL    HW111248   8.236  14.173   9.076
69803SOL    HW211249   8.288  14.052   9.151
69804SOL     OW11250   9.423   3.151   9.528
69804SOL    HW111251   9.345   3.095   9.531
69804SOL    HW211252   9.469   3.123   9.448
69805SOL     OW11253   0.005   3.980   5.647
69805SOL    HW111254  14.868   4.023   5.731
69805SOL    HW211255  14.816   4.013   5.589
69806SOL     OW11256   8.326   1.661  10.174
69806SOL    HW111257   8.250   1.663  10.232
69806SOL    HW211258   8.292   1.685  10.088
69807SOL     OW11259   2.551   8.504   1.164
69807SOL    HW111260   2.459   8.528   1.175
69807SOL    HW211261   2.551   8.408   1.174
69808SOL     OW11262   2.613   0.702   1.838
69808SOL    HW111263   2.567   0.634   1.789
69808SOL    HW211264   2.561   0.714   1.918
69809SOL     OW11265  13.468  14.473  11.670
69809SOL    HW111266  13.458  14.530  11.594
69809SOL    HW211267  13.497  14.389  11.633
69810SOL     OW11268   7.855   4.223   5.337
69810SOL    HW111269   7.849   4.289   5.268
69810SOL    HW211270   7.772   4.175   5.332
69811SOL     OW11271   6.111   6.745  14.567
69811SOL    HW111272   6.179   6.693  14.610
69811SOL    HW211273   6.160   6.808  14.514
69812SOL     OW11274   7.303  13.429   8.451
69812SOL    HW111275   7.275  13.451   8.362
69812SOL    HW211276   7.250  13.352   8.474
69813SOL     OW11277   5.058  10.873   5.985
69813SOL    HW111278   5.114  10.947   6.006
69813SOL    HW211279   5.104  10.797   6.021
69814SOL     OW11280  10.123   9.291   5.070
69814SOL    HW111281  10.178   9.214   5.086
69814SOL    HW211282  10.057   9.260   5.008
69815SOL     OW11283   7.048   5.748   9.976
69815SOL    HW111284   6.955   5.731   9.961
69815SOL    HW211285   7.066   5.710  10.062
69816SOL     OW11286  13.776  13.253   0.816
69816SOL    HW111287  13.801  13.192   0.747
69816SOL    HW211288  13.688  13.225   0.843
69817SOL     OW11289   8.445  11.694   2.876
69817SOL    HW111290   8.391  11.764   2.840
69817SOL    HW211291   8.495  11.662   2.801
69818SOL     OW11292   4.154   3.025   3.534
69818SOL    HW111293   4.178   3.068   3.616
69818SOL    HW211294   4.214   2.951   3.527
69819SOL     OW11295   4.243   0.873   3.044
69819SOL    HW111296   4.174   0.884   2.978
69819SOL    HW211297   4.307   0.815   3.003
69820SOL     OW11298   0.762  14.163   5.213
69820SOL    HW111299   0.781  14.098   5.145
69820SOL    HW211300   0.787  14.246   5.174
69821SOL     OW11301   4.123   7.534  11.813
69821SOL    HW111302   4.141   7.450  11.857
69821SOL    HW211303   4.128   7.514  11.720
69822SOL     OW11304  14.611   7.937   8.824
69822SOL    HW111305  14.697   7.941   8.865
69822SOL    HW211306  14.604   8.021   8.777
69823SOL     OW11307   1.713   7.822  11.709
69823SOL    HW111308   1.667   7.843  11.628
69823SOL    HW211309   1.804   7.809  11.682
69824SOL     OW11310  12.700  14.107  11.315
69824SOL    HW111311  12.734  14.129  11.401
69824SOL    HW211312  12.636  14.038  11.331
69825SOL     OW11313   0.420   7.504   2.115
69825SOL    HW111314   0.465   7.453   2.048
69825SOL    HW211315   0.369   7.440   2.164
69826SOL     OW11316   6.028  14.636   9.028
69826SOL    HW111317   5.989  14.679   8.952
69826SOL    HW211318   5.981  14.672   9.103
69827SOL     OW11319   6.029  12.305   0.435
69827SOL    HW111320   6.053  12.291   0.343
69827SOL    HW211321   5.933  12.303   0.435
69828SOL     OW11322   2.441  12.460   4.241
69828SOL    HW111323   2.465  12.386   4.184
69828SOL    HW211324   2.377  12.423   4.301
69829SOL     OW11325  10.408  11.640   3.460
69829SOL    HW111326  10.314  11.660   3.459
69829SOL    HW211327  10.412  11.546   3.478
69830SOL     OW11328   3.234   4.284  12.850
69830SOL    HW111329   3.280   4.278  12.767
69830SOL    HW211330   3.303   4.289  12.916
69831SOL     OW11331   6.269   3.233   5.862
69831SOL    HW111332   6.333   3.270   5.923
69831SOL    HW211333   6.189   3.283   5.877
69832SOL     OW11334  11.632   6.753   8.315
69832SOL    HW111335  11.690   6.684   8.283
69832SOL    HW211336  11.662   6.833   8.271
69833SOL     OW11337  12.360  10.849   6.994
69833SOL    HW111338  12.298  10.922   6.986
69833SOL    HW211339  12.326  10.781   6.936
69834SOL     OW11340  13.450   2.818   3.668
69834SOL    HW111341  13.387   2.886   3.642
69834SOL    HW211342  13.396   2.748   3.704
69835SOL     OW11343   8.740   4.579  11.392
69835SOL    HW111344   8.726   4.540  11.306
69835SOL    HW211345   8.831   4.611  11.389
69836SOL     OW11346  12.251   8.970  11.055
69836SOL    HW111347  12.174   9.024  11.036
69836SOL    HW211348  12.316   8.999  10.991
69837SOL     OW11349  12.899   8.352  13.967
69837SOL    HW111350  12.915   8.352  13.873
69837SOL    HW211351  12.986   8.341  14.007
69838SOL     OW11352   0.833   9.081   8.220
69838SOL    HW111353   0.834   9.113   8.310
69838SOL    HW211354   0.757   9.124   8.180
69839SOL     OW11355  11.270   8.110  13.044
69839SOL    HW111356  11.264   8.104  13.139
69839SOL    HW211357  11.199   8.169  13.019
69840SOL     OW11358   3.226  10.110  11.226
69840SOL    HW111359   3.283  10.034  11.227
69840SOL    HW211360   3.200  10.123  11.317
69841SOL     OW11361  10.330   1.204   6.299
69841SOL    HW111362  10.414   1.206   6.254
69841SOL    HW211363  10.275   1.267   6.252
69842SOL     OW11364   0.843   1.472   1.945
69842SOL    HW111365   0.925   1.475   1.896
69842SOL    HW211366   0.835   1.380   1.973
69843SOL     OW11367  11.877   5.914   9.721
69843SOL    HW111368  11.787   5.883   9.711
69843SOL    HW211369  11.930   5.835   9.713
69844SOL     OW11370   2.143  11.345   8.616
69844SOL    HW111371   2.062  11.388   8.643
69844SOL    HW211372   2.161  11.379   8.528
69845SOL     OW11373  11.965  14.752  11.644
69845SOL    HW111374  12.046  14.775  11.598
69845SOL    HW211375  11.922  14.836  11.660
69846SOL     OW11376  10.569  13.997  12.967
69846SOL    HW111377  10.554  14.089  12.943
69846SOL    HW211378  10.663  13.983  12.953
69847SOL     OW11379   0.169   2.581   3.666
69847SOL    HW111380   0.081   2.585   3.704
69847SOL    HW211381   0.200   2.493   3.688
69848SOL     OW11382   5.765   5.690  12.686
69848SOL    HW111383   5.721   5.760  12.733
69848SOL    HW211384   5.854   5.688  12.723
69849SOL     OW11385  14.608   7.635   3.018
69849SOL    HW111386  14.703   7.639   3.032
69849SOL    HW211387  14.580   7.560   3.070
69850SOL     OW11388   3.352   8.614   6.771
69850SOL    HW111389   3.313   8.690   6.727
69850SOL    HW211390   3.338   8.630   6.864
69851SOL     OW11391  14.255  13.637   9.122
69851SOL    HW111392  14.233  13.545   9.110
69851SOL    HW211393  14.175  13.684   9.099
69852SOL     OW11394  12.260   4.800   2.989
69852SOL    HW111395  12.343   4.770   2.952
69852SOL    HW211396  12.282   4.832   3.076
69853SOL     OW11397   3.467  12.852   9.181
69853SOL    HW111398   3.407  12.927   9.184
69853SOL    HW211399   3.426  12.790   9.120
69854SOL     OW11400  13.185  11.141  10.335
69854SOL    HW111401  13.211  11.231  10.316
69854SOL    HW211402  13.115  11.149  10.399
69855SOL     OW11403   4.706   2.922   2.128
69855SOL    HW111404   4.719   2.986   2.059
69855SOL    HW211405   4.795   2.893   2.150
69856SOL     OW11406  12.660   3.021   7.061
69856SOL    HW111407  12.748   3.050   7.038
69856SOL    HW211408  12.627   2.980   6.981
69857SOL     OW11409   0.907  13.971   0.266
69857SOL    HW111410   0.959  13.895   0.239
69857SOL    HW211411   0.964  14.046   0.250
69858SOL     OW11412  13.565   4.575   5.080
69858SOL    HW111413  13.566   4.646   5.145
69858SOL    HW211414  13.652   4.535   5.088
69859SOL     OW11415   7.524   5.649   3.406
69859SOL    HW111416   7.586   5.693   3.348
69859SOL    HW211417   7.439   5.659   3.363
69860SOL     OW11418   1.279  11.940   3.897
69860SOL    HW111419   1.251  11.880   3.967
69860SOL    HW211420   1.263  12.027   3.933
69861SOL     OW11421   2.978   7.181   4.202
69861SOL    HW111422   2.957   7.108   4.260
69861SOL    HW211423   2.945   7.259   4.247
69862SOL     OW11424  13.150   4.238  10.034
69862SOL    HW111425  13.227   4.279   9.993
69862SOL    HW211426  13.171   4.235  10.127
69863SOL     OW11427   4.236   2.543   0.639
69863SOL    HW111428   4.270   2.548   0.729
69863SOL    HW211429   4.216   2.451   0.626
69864SOL     OW11430   2.582   1.902   1.727
69864SOL    HW111431   2.629   1.906   1.643
69864SOL    HW211432   2.594   1.811   1.755
69865SOL     OW11433  13.503   4.509   7.164
69865SOL    HW111434  13.571   4.503   7.230
69865SOL    HW211435  13.422   4.487   7.210
69866SOL     OW11436   1.699   3.417   3.492
69866SOL    HW111437   1.757   3.458   3.557
69866SOL    HW211438   1.661   3.490   3.445
69867SOL     OW11439  11.794   9.719   3.781
69867SOL    HW111440  11.702   9.744   3.790
69867SOL    HW211441  11.792   9.640   3.728
69868SOL     OW11442   2.760   1.353   1.469
69868SOL    HW111443   2.796   1.439   1.493
69868SOL    HW211444   2.819   1.290   1.512
69869SOL     OW11445  10.158  12.751   0.511
69869SOL    HW111446  10.174  12.708   0.427
69869SOL    HW211447  10.069  12.726   0.534
69870SOL     OW11448  12.117   1.953   8.817
69870SOL    HW111449  12.041   1.897   8.831
69870SOL    HW211450  12.081   2.038   8.794
69871SOL     OW11451  13.629  14.006   1.636
69871SOL    HW111452  13.708  14.045   1.673
69871SOL    HW211453  13.599  14.069   1.571
69872SOL     OW11454   7.552  11.997   9.135
69872SOL    HW111455   7.556  12.084   9.174
69872SOL    HW211456   7.644  11.971   9.126
69873SOL     OW11457   0.123   2.660   9.472
69873SOL    HW111458   0.199   2.602   9.481
69873SOL    HW211459   0.058   2.608   9.425
69874SOL     OW11460   4.206  13.106   8.979
69874SOL    HW111461   4.158  13.189   8.978
69874SOL    HW211462   4.139  13.039   8.993
69875SOL     OW11463  12.387  12.341   6.638
69875SOL    HW111464  12.472  12.299   6.646
69875SOL    HW211465  12.355  12.316   6.552
69876SOL     OW11466   1.169   5.806  12.050
69876SOL    HW111467   1.239   5.855  12.091
69876SOL    HW211468   1.175   5.828  11.957
69877SOL     OW11469   6.222   4.414  13.491
69877SOL    HW111470   6.197   4.496  13.533
69877SOL    HW211471   6.301   4.387  13.538
69878SOL     OW11472   6.989   2.837   8.781
69878SOL    HW111473   7.045   2.799   8.713
69878SOL    HW211474   7.047   2.846   8.857
69879SOL     OW11475   3.326   1.850  14.518
69879SOL    HW111476   3.419   1.857  14.541
69879SOL    HW211477   3.303   1.759  14.537
69880SOL     OW11478  10.821   4.931   7.025
69880SOL    HW111479  10.899   4.974   6.990
69880SOL    HW211480  10.794   4.987   7.097
69881SOL     OW11481   6.313   4.890   8.171
69881SOL    HW111482   6.365   4.863   8.247
69881SOL    HW211483   6.349   4.975   8.147
69882SOL     OW11484   0.966   0.767  13.632
69882SOL    HW111485   0.901   0.808  13.575
69882SOL    HW211486   1.050   0.796  13.598
69883SOL     OW11487  11.794  11.475   6.373
69883SOL    HW111488  11.834  11.546   6.424
69883SOL    HW211489  11.794  11.509   6.283
69884SOL     OW11490  13.280   6.516   1.636
69884SOL    HW111491  13.349   6.579   1.659
69884SOL    HW211492  13.200   6.556   1.669
69885SOL     OW11493  14.436   1.614   0.084
69885SOL    HW111494  14.506   1.672   0.054
69885SOL    HW211495  14.394   1.662   0.155
69886SOL     OW11496  12.611   3.087   4.117
69886SOL    HW111497  12.588   3.103   4.208
69886SOL    HW211498  12.531   3.053   4.077
69887SOL     OW11499   2.087   0.320  14.678
69887SOL    HW111500   2.066   0.284  14.592
69887SOL    HW211501   2.122   0.245  14.728
69888SOL     OW11502   7.102   6.438   0.089
69888SOL    HW111503   7.159   6.441   0.165
69888SOL    HW211504   7.117   6.521   0.044
69889SOL     OW11505   1.851   7.944  12.703
69889SOL    HW111506   1.938   7.984  12.702
69889SOL    HW211507   1.868   7.851  12.692
69890SOL     OW11508   0.890   8.714   3.692
69890SOL    HW111509   0.807   8.703   3.645
69890SOL    HW211510   0.873   8.784   3.755
69891SOL     OW11511   4.119   9.718  11.360
69891SOL    HW111512   4.063   9.659  11.309
69891SOL    HW211513   4.207   9.685  11.346
69892SOL     OW11514   2.012   6.313   4.230
69892SOL    HW111515   2.071   6.240   4.212
69892SOL    HW211516   1.937   6.272   4.274
69893SOL     OW11517   4.328   3.698   4.590
69893SOL    HW111518   4.341   3.604   4.583
69893SOL    HW211519   4.237   3.708   4.617
69894SOL     OW11520   2.321  11.285  11.647
69894SOL    HW111521   2.348  11.376  11.662
69894SOL    HW211522   2.252  11.292  11.582
69895SOL     OW11523   9.701   7.195  14.651
69895SOL    HW111524   9.645   7.259  14.695
69895SOL    HW211525   9.786   7.203  14.694
69896SOL     OW11526   4.766   3.417   3.620
69896SOL    HW111527   4.742   3.502   3.585
69896SOL    HW211528   4.758   3.357   3.546
69897SOL     OW11529   2.586   2.607  14.168
69897SOL    HW111530   2.648   2.642  14.104
69897SOL    HW211531   2.637   2.603  14.249
69898SOL     OW11532   5.376  14.493   6.622
69898SOL    HW111533   5.369  14.401   6.598
69898SOL    HW211534   5.449  14.496   6.684
69899SOL     OW11535   0.912   2.735   2.547
69899SOL    HW111536   0.967   2.660   2.568
69899SOL    HW211537   0.844   2.736   2.614
69900SOL     OW11538  11.326   5.618   9.179
69900SOL    HW111539  11.255   5.554   9.172
69900SOL    HW211540  11.281   5.701   9.197
69901SOL     OW11541   2.841  10.980   4.852
69901SOL    HW111542   2.771  10.960   4.791
69901SOL    HW211543   2.920  10.947   4.809
69902SOL     OW11544   5.512  13.534  10.241
69902SOL    HW111545   5.483  13.567  10.326
69902SOL    HW211546   5.580  13.595  10.213
69903SOL     OW11547   6.254   5.575   0.433
69903SOL    HW111548   6.198   5.576   0.356
69903SOL    HW211549   6.341   5.596   0.399
69904SOL     OW11550   8.647   3.141   8.343
69904SOL    HW111551   8.567   3.194   8.351
69904SOL    HW211552   8.676   3.128   8.433
69905SOL     OW11553   0.099   8.234   5.433
69905SOL    HW111554   0.096   8.160   5.493
69905SOL    HW211555   0.132   8.307   5.485
69906SOL     OW11556   5.786   6.769   2.024
69906SOL    HW111557   5.816   6.843   1.972
69906SOL    HW211558   5.866   6.718   2.039
69907SOL     OW11559   3.440   7.083   7.194
69907SOL    HW111560   3.377   7.151   7.172
69907SOL    HW211561   3.513   7.098   7.134
69908SOL     OW11562   4.873   1.669   5.669
69908SOL    HW111563   4.960   1.699   5.695
69908SOL    HW211564   4.888   1.622   5.586
69909SOL     OW11565   5.781   9.685   7.184
69909SOL    HW111566   5.824   9.650   7.107
69909SOL    HW211567   5.853   9.715   7.240
69910SOL     OW11568  12.435  11.366   2.808
69910SOL    HW111569  12.383  11.413   2.743
69910SOL    HW211570  12.450  11.280   2.769
69911SOL     OW11571   4.956  12.324   9.790
69911SOL    HW111572   4.994  12.411   9.795
69911SOL    HW211573   4.875  12.336   9.741
69912SOL     OW11574   0.505   1.978  13.803
69912SOL    HW111575   0.580   1.925  13.830
69912SOL    HW211576   0.437   1.915  13.781
69913SOL     OW11577  14.807   6.723   3.949
69913SOL    HW111578  14.736   6.659   3.945
69913SOL    HW211579  14.798   6.764   4.035
69914SOL     OW11580   9.963  13.922   9.404
69914SOL    HW111581  10.006  13.997   9.445
69914SOL    HW211582  10.008  13.846   9.442
69915SOL     OW11583   4.762  11.253   6.743
69915SOL    HW111584   4.727  11.340   6.763
69915SOL    HW211585   4.788  11.258   6.651
69916SOL     OW11586   5.273   1.542  10.409
69916SOL    HW111587   5.216   1.607  10.369
69916SOL    HW211588   5.361   1.568  10.380
69917SOL     OW11589   8.075  13.695   9.802
69917SOL    HW111590   7.983  13.716   9.783
69917SOL    HW211591   8.080  13.695   9.898
69918SOL     OW11592   8.901   0.445   7.025
69918SOL    HW111593   8.904   0.361   7.072
69918SOL    HW211594   8.956   0.503   7.077
69919SOL     OW11595   0.789   6.881  12.070
69919SOL    HW111596   0.828   6.952  12.018
69919SOL    HW211597   0.861   6.851  12.127
69920SOL     OW11598   7.857  11.834   7.129
69920SOL    HW111599   7.824  11.794   7.210
69920SOL    HW211600   7.903  11.763   7.085
69921SOL     OW11601  12.485   2.799  14.233
69921SOL    HW111602  12.486   2.891  14.205
69921SOL    HW211603  12.518   2.801  14.323
69922SOL     OW11604  10.731  13.806   1.225
69922SOL    HW111605  10.786  13.803   1.147
69922SOL    HW211606  10.771  13.872   1.280
69923SOL     OW11607  13.932   4.907   6.982
69923SOL    HW111608  13.862   4.971   6.970
69923SOL    HW211609  13.953   4.878   6.893
69924SOL     OW11610  10.606   0.912   7.286
69924SOL    HW111611  10.614   0.983   7.223
69924SOL    HW211612  10.596   0.833   7.232
69925SOL     OW11613   0.516  12.044  14.790
69925SOL    HW111614   0.420  12.047  14.785
69925SOL    HW211615   0.540  12.129  14.828
69926SOL     OW11616   8.269   8.314   4.267
69926SOL    HW111617   8.338   8.335   4.330
69926SOL    HW211618   8.218   8.395   4.259
69927SOL     OW11619   6.152   9.635   4.115
69927SOL    HW111620   6.225   9.665   4.061
69927SOL    HW211621   6.079   9.627   4.054
69928SOL     OW11622   2.713  12.855  13.891
69928SOL    HW111623   2.791  12.905  13.867
69928SOL    HW211624   2.701  12.793  13.818
69929SOL     OW11625   8.831   9.420  11.795
69929SOL    HW111626   8.918   9.411  11.833
69929SOL    HW211627   8.847   9.431  11.701
69930SOL     OW11628   7.962   3.716   5.758
69930SOL    HW111629   7.917   3.772   5.822
69930SOL    HW211630   8.053   3.715   5.787
69931SOL     OW11631  10.516  10.532   2.563
69931SOL    HW111632  10.595  10.533   2.618
69931SOL    HW211633  10.522  10.613   2.511
69932SOL     OW11634  13.603   3.436   9.000
69932SOL    HW111635  13.537   3.368   8.991
69932SOL    HW211636  13.586   3.496   8.927
69933SOL     OW11637   1.219   7.729   1.093
69933SOL    HW111638   1.209   7.674   1.171
69933SOL    HW211639   1.306   7.706   1.060
69934SOL     OW11640   0.520  14.302   6.255
69934SOL    HW111641   0.490  14.338   6.171
69934SOL    HW211642   0.609  14.335   6.265
69935SOL     OW11643  12.806   2.714   5.820
69935SOL    HW111644  12.727   2.762   5.842
69935SOL    HW211645  12.872   2.749   5.880
69936SOL     OW11646  13.520   5.789   5.465
69936SOL    HW111647  13.438   5.805   5.512
69936SOL    HW211648  13.584   5.844   5.511
69937SOL     OW11649   1.870   2.116   3.286
69937SOL    HW111650   1.853   2.038   3.338
69937SOL    HW211651   1.904   2.083   3.203
69938SOL     OW11652   1.202   0.927  13.096
69938SOL    HW111653   1.118   0.888  13.120
69938SOL    HW211654   1.206   0.917  13.001
69939SOL     OW11655  13.121   3.734   8.992
69939SOL    HW111656  13.171   3.684   9.057
69939SOL    HW211657  13.183   3.750   8.921
69940SOL     OW11658   1.982   8.286  11.274
69940SOL    HW111659   1.915   8.256  11.213
69940SOL    HW211660   1.990   8.380  11.256
69941SOL     OW11661   5.911  14.829  13.402
69941SOL    HW111662   5.881   0.024  13.454
69941SOL    HW211663   6.002  14.851  13.379
69942SOL     OW11664   4.363   3.257  14.726
69942SOL    HW111665   4.449   3.297  14.722
69942SOL    HW211666   4.313   3.312  14.787
69943SOL     OW11667   2.573   2.992   1.842
69943SOL    HW111668   2.620   3.060   1.891
69943SOL    HW211669   2.510   3.041   1.789
69944SOL     OW11670   8.390   1.601   8.171
69944SOL    HW111671   8.470   1.607   8.119
69944SOL    HW211672   8.409   1.533   8.235
69945SOL     OW11673  13.327   4.767  11.197
69945SOL    HW111674  13.338   4.850  11.149
69945SOL    HW211675  13.399   4.767  11.260
69946SOL     OW11676  14.217   6.351   8.991
69946SOL    HW111677  14.187   6.433   9.030
69946SOL    HW211678  14.171   6.283   9.041
69947SOL     OW11679  13.139   2.397   2.684
69947SOL    HW111680  13.118   2.323   2.627
69947SOL    HW211681  13.166   2.467   2.625
69948SOL     OW11682  14.654   4.738   1.595
69948SOL    HW111683  14.724   4.702   1.650
69948SOL    HW211684  14.632   4.821   1.637
69949SOL     OW11685   0.288  10.726  10.158
69949SOL    HW111686   0.282  10.696  10.248
69949SOL    HW211687   0.207  10.696  10.117
69950SOL     OW11688   2.799   1.854   1.496
69950SOL    HW111689   2.797   1.759   1.505
69950SOL    HW211690   2.891   1.878   1.504
69951SOL     OW11691   5.287  14.225   3.184
69951SOL    HW111692   5.362  14.233   3.243
69951SOL    HW211693   5.249  14.140   3.205
69952SOL     OW11694  13.253   9.603  12.450
69952SOL    HW111695  13.320   9.587  12.516
69952SOL    HW211696  13.172   9.613  12.500
69953SOL     OW11697   6.217  14.382  10.042
69953SOL    HW111698   6.173  14.297  10.044
69953SOL    HW211699   6.163  14.438  10.097
69954SOL     OW11700   8.408   9.631   4.288
69954SOL    HW111701   8.436   9.682   4.212
69954SOL    HW211702   8.425   9.540   4.263
69955SOL     OW11703   5.324  13.036  14.153
69955SOL    HW111704   5.412  13.040  14.191
69955SOL    HW211705   5.272  13.093  14.209
69956SOL     OW11706   6.967  10.707  13.993
69956SOL    HW111707   6.878  10.682  13.967
69956SOL    HW211708   6.957  10.793  14.034
69957SOL     OW11709  12.470   4.996   0.866
69957SOL    HW111710  12.526   4.920   0.879
69957SOL    HW211711  12.428   5.009   0.951
69958SOL     OW11712   8.167  10.002   8.703
69958SOL    HW111713   8.261   9.999   8.719
69958SOL    HW211714   8.155  10.075   8.642
69959SOL     OW11715  14.353   2.628   0.631
69959SOL    HW111716  14.416   2.686   0.673
69959SOL    HW211717  14.389   2.612   0.544
69960SOL     OW11718   8.442   9.882   2.965
69960SOL    HW111719   8.371   9.895   2.902
69960SOL    HW211720   8.409   9.919   3.046
69961SOL     OW11721  13.404   9.384   6.445
69961SOL    HW111722  13.314   9.394   6.414
69961SOL    HW211723  13.397   9.326   6.520
69962SOL     OW11724  11.908   7.013   0.274
69962SOL    HW111725  11.908   7.013   0.370
69962SOL    HW211726  11.997   6.989   0.250
69963SOL     OW11727  12.473   0.042   5.843
69963SOL    HW111728  12.397   0.090   5.809
69963SOL    HW211729  12.448   0.015   5.931
69964SOL     OW11730  11.900   3.962   3.217
69964SOL    HW111731  11.833   3.953   3.285
69964SOL    HW211732  11.960   3.889   3.232
69965SOL     OW11733   8.070  10.648  14.743
69965SOL    HW111734   8.067  10.632  14.837
69965SOL    HW211735   8.080  10.561  14.704
69966SOL     OW11736  14.539   9.100  14.113
69966SOL    HW111737  14.573   9.127  14.027
69966SOL    HW211738  14.591   9.023  14.135
69967SOL     OW11739   7.056  14.315  12.200
69967SOL    HW111740   7.096  14.323  12.286
69967SOL    HW211741   7.129  14.291  12.142
69968SOL     OW11742   0.962  12.851   6.562
69968SOL    HW111743   0.877  12.895   6.568
69968SOL    HW211744   0.994  12.872   6.474
69969SOL     OW11745   7.667   9.100   7.235
69969SOL    HW111746   7.659   9.195   7.239
69969SOL    HW211747   7.699   9.081   7.147
69970SOL     OW11748   2.277  10.429  13.611
69970SOL    HW111749   2.192  10.434  13.654
69970SOL    HW211750   2.309  10.341  13.630
69971SOL     OW11751   6.463  11.542   4.510
69971SOL    HW111752   6.531  11.482   4.542
69971SOL    HW211753   6.510  11.603   4.453
69972SOL     OW11754  11.507   3.409  14.656
69972SOL    HW111755  11.456   3.346  14.605
69972SOL    HW211756  11.482   3.494  14.621
69973SOL     OW11757   3.323   8.856   3.353
69973SOL    HW111758   3.301   8.942   3.318
69973SOL    HW211759   3.338   8.802   3.275
69974SOL     OW11760   1.012   1.767  10.059
69974SOL    HW111761   0.932   1.814  10.081
69974SOL    HW211762   1.077   1.835  10.040
69975SOL     OW11763  10.270   2.447   4.634
69975SOL    HW111764  10.244   2.369   4.683
69975SOL    HW211765  10.363   2.457   4.653
69976SOL     OW11766  14.412   6.701   0.684
69976SOL    HW111767  14.347   6.671   0.620
69976SOL    HW211768  14.368   6.771   0.732
69977SOL     OW11769   3.219  13.649   5.749
69977SOL    HW111770   3.205  13.658   5.843
69977SOL    HW211771   3.131  13.637   5.712
69978SOL     OW11772   5.302   6.043   1.156
69978SOL    HW111773   5.272   6.113   1.098
69978SOL    HW211774   5.395   6.063   1.171
69979SOL     OW11775   5.062  12.570   9.801
69979SOL    HW111776   5.094  12.649   9.756
69979SOL    HW211777   5.141  12.527   9.833
69980SOL     OW11778  11.142   9.750  14.277
69980SOL    HW111779  11.086   9.787  14.346
69980SOL    HW211780  11.146   9.819  14.211
69981SOL     OW11781   4.877   5.568  14.616
69981SOL    HW111782   4.875   5.482  14.659
69981SOL    HW211783   4.959   5.608  14.647
69982SOL     OW11784   0.032   8.602   8.230
69982SOL    HW111785   0.085   8.636   8.302
69982SOL    HW211786   0.095   8.576   8.164
69983SOL     OW11787   5.268   0.466   7.466
69983SOL    HW111788   5.364   0.469   7.470
69983SOL    HW211789   5.246   0.507   7.382
69984SOL     OW11790  10.788   2.763  12.656
69984SOL    HW111791  10.774   2.849  12.695
69984SOL    HW211792  10.758   2.701  12.722
69985SOL     OW11793   1.057   4.971   2.842
69985SOL    HW111794   0.967   4.957   2.813
69985SOL    HW211795   1.107   4.900   2.802
69986SOL     OW11796   8.398  11.001  13.174
69986SOL    HW111797   8.361  10.933  13.117
69986SOL    HW211798   8.398  11.080  13.120
69987SOL     OW11799   3.965  10.498   7.239
69987SOL    HW111800   4.030  10.428   7.240
69987SOL    HW211801   3.934  10.501   7.148
69988SOL     OW11802  14.598   8.230   7.770
69988SOL    HW111803  14.672   8.284   7.796
69988SOL    HW211804  14.525   8.292   7.760
69989SOL     OW11805   8.175   1.273  13.135
69989SOL    HW111806   8.199   1.357  13.095
69989SOL    HW211807   8.238   1.211  13.099
69990SOL     OW11808  13.818   0.617  10.849
69990SOL    HW111809  13.769   0.604  10.768
69990SOL    HW211810  13.881   0.685  10.828
69991SOL     OW11811   8.309  12.165   7.246
69991SOL    HW111812   8.358  12.219   7.184
69991SOL    HW211813   8.220  12.201   7.244
69992SOL     OW11814   2.891   8.604   2.622
69992SOL    HW111815   2.827   8.667   2.655
69992SOL    HW211816   2.850   8.567   2.544
69993SOL     OW11817   4.674  11.089  14.409
69993SOL    HW111818   4.624  11.112  14.487
69993SOL    HW211819   4.732  11.018  14.437
69994SOL     OW11820  11.308   6.045   8.000
69994SOL    HW111821  11.307   6.048   7.905
69994SOL    HW211822  11.355   6.124   8.026
69995SOL     OW11823  14.276   1.029   1.069
69995SOL    HW111824  14.254   0.968   0.999
69995SOL    HW211825  14.310   0.974   1.140
69996SOL     OW11826   4.341   5.471   0.974
69996SOL    HW111827   4.253   5.461   1.010
69996SOL    HW211828   4.367   5.560   0.998
69997SOL     OW11829   2.133   8.104   3.661
69997SOL    HW111830   2.174   8.190   3.664
69997SOL    HW211831   2.196   8.046   3.704
69998SOL     OW11832  14.581  14.106   0.347
69998SOL    HW111833  14.575  14.022   0.392
69998SOL    HW211834  14.617  14.166   0.413
69999SOL     OW11835   0.966  12.022   1.915
69999SOL    HW111836   1.056  12.018   1.884
69999SOL    HW211837   0.958  11.948   1.976
70000SOL     OW11838  11.453   2.326   8.587
70000SOL    HW111839  11.546   2.312   8.568
70000SOL    HW211840  11.407   2.265   8.529
70001SOL     OW11841   6.027  14.747   4.072
70001SOL    HW111842   5.999  14.658   4.093
70001SOL    HW211843   5.976  14.804   4.130
70002SOL     OW11844   8.142   9.146   0.320
70002SOL    HW111845   8.133   9.228   0.368
70002SOL    HW211846   8.070   9.092   0.353
70003SOL     OW11847   9.793   0.544   4.978
70003SOL    HW111848   9.832   0.497   5.052
70003SOL    HW211849   9.718   0.590   5.016
70004SOL     OW11850  12.398   7.548   0.231
70004SOL    HW111851  12.394   7.558   0.136
70004SOL    HW211852  12.314   7.579   0.263
70005SOL     OW11853   4.858  10.057   2.038
70005SOL    HW111854   4.897   9.989   2.092
70005SOL    HW211855   4.788  10.012   1.990
70006SOL     OW11856   9.638   3.443  14.631
70006SOL    HW111857   9.566   3.449  14.694
70006SOL    HW211858   9.692   3.370  14.663
70007SOL     OW11859   0.102  10.155   3.019
70007SOL    HW111860   0.019  10.173   2.974
70007SOL    HW211861   0.124  10.238   3.062
70008SOL     OW11862  12.656  13.949  10.617
70008SOL    HW111863  12.658  14.045  10.612
70008SOL    HW211864  12.628  13.922  10.529
70009SOL     OW11865  13.299  13.650   0.416
70009SOL    HW111866  13.340  13.717   0.361
70009SOL    HW211867  13.208  13.680   0.426
70010SOL     OW11868   8.000  12.503  10.832
70010SOL    HW111869   8.059  12.509  10.908
70010SOL    HW211870   8.038  12.435  10.777
70011SOL     OW11871   7.605  11.690   8.455
70011SOL    HW111872   7.541  11.757   8.432
70011SOL    HW211873   7.589  11.619   8.393
70012SOL     OW11874  14.384   0.768   7.524
70012SOL    HW111875  14.369   0.822   7.446
70012SOL    HW211876  14.296   0.753   7.559
70013SOL     OW11877   4.906  12.932  11.296
70013SOL    HW111878   4.894  12.846  11.255
70013SOL    HW211879   4.960  12.915  11.373
70014SOL     OW11880   4.934   2.545   0.163
70014SOL    HW111881   4.919   2.493   0.242
70014SOL    HW211882   4.925   2.636   0.192
70015SOL     OW11883   3.103   0.118  10.483
70015SOL    HW111884   3.181   0.095  10.433
70015SOL    HW211885   3.088   0.042  10.540
70016SOL     OW11886  12.230  13.070   9.828
70016SOL    HW111887  12.245  13.126   9.752
70016SOL    HW211888  12.206  13.130   9.898
70017SOL     OW11889   8.290  10.978   9.101
70017SOL    HW111890   8.335  10.911   9.050
70017SOL    HW211891   8.310  10.956   9.192
70018SOL     OW11892   2.512   8.736   6.512
70018SOL    HW111893   2.594   8.687   6.516
70018SOL    HW211894   2.535   8.817   6.467
70019SOL     OW11895   5.806   2.587   9.827
70019SOL    HW111896   5.826   2.602   9.735
70019SOL    HW211897   5.765   2.668   9.857
70020SOL     OW11898   6.896  11.533   6.711
70020SOL    HW111899   6.851  11.450   6.697
70020SOL    HW211900   6.938  11.553   6.627
70021SOL     OW11901   2.689   4.277  10.315
70021SOL    HW111902   2.730   4.349  10.363
70021SOL    HW211903   2.612   4.317  10.274
70022SOL     OW11904   9.228  12.119  13.171
70022SOL    HW111905   9.215  12.091  13.081
70022SOL    HW211906   9.142  12.155  13.197
70023SOL     OW11907  11.128   3.004   6.002
70023SOL    HW111908  11.120   2.912   5.979
70023SOL    HW211909  11.039   3.038   5.994
70024SOL     OW11910  12.015   2.823   5.681
70024SOL    HW111911  11.987   2.732   5.693
70024SOL    HW211912  11.938   2.875   5.704
70025SOL     OW11913   0.429   5.962   1.273
70025SOL    HW111914   0.386   6.046   1.287
70025SOL    HW211915   0.516   5.985   1.239
70026SOL     OW11916   6.134   0.914  13.775
70026SOL    HW111917   6.134   0.845  13.841
70026SOL    HW211918   6.186   0.878  13.703
70027SOL     OW11919   3.657  13.006   1.085
70027SOL    HW111920   3.711  12.996   1.163
70027SOL    HW211921   3.573  13.038   1.118
70028SOL     OW11922  10.764   7.341   2.937
70028SOL    HW111923  10.697   7.286   2.896
70028SOL    HW211924  10.778   7.302   3.023
70029SOL     OW11925   3.445   5.661  14.352
70029SOL    HW111926   3.411   5.656  14.441
70029SOL    HW211927   3.504   5.586  14.344
70030SOL     OW11928   6.181  12.611   9.265
70030SOL    HW111929   6.237  12.647   9.197
70030SOL    HW211930   6.213  12.651   9.346
70031SOL     OW11931   6.324   4.836   5.275
70031SOL    HW111932   6.268   4.884   5.214
70031SOL    HW211933   6.275   4.755   5.293
70032SOL     OW11934  11.644   9.164  12.207
70032SOL    HW111935  11.698   9.242  12.223
70032SOL    HW211936  11.569   9.175  12.264
70033SOL     OW11937  14.120  14.698  11.476
70033SOL    HW111938  14.097  14.767  11.415
70033SOL    HW211939  14.072  14.719  11.556
70034SOL     OW11940   6.999   2.501   6.529
70034SOL    HW111941   7.094   2.504   6.516
70034SOL    HW211942   6.988   2.482   6.622
70035SOL     OW11943   2.717  13.942  10.494
70035SOL    HW111944   2.699  14.002  10.566
70035SOL    HW211945   2.648  13.959  10.430
70036SOL     OW11946   1.414  12.250   7.595
70036SOL    HW111947   1.417  12.306   7.672
70036SOL    HW211948   1.344  12.187   7.613
70037SOL     OW11949  14.750  14.602  12.440
70037SOL    HW111950  14.831  14.652  12.447
70037SOL    HW211951  14.690  14.660  12.394
70038SOL     OW11952   9.941   1.543   6.313
70038SOL    HW111953  10.016   1.557   6.255
70038SOL    HW211954   9.976   1.558   6.401
70039SOL     OW11955   2.129  12.246   7.944
70039SOL    HW111956   2.174  12.207   8.019
70039SOL    HW211957   2.056  12.295   7.983
70040SOL     OW11958  11.368   4.398   5.369
70040SOL    HW111959  11.419   4.318   5.358
70040SOL    HW211960  11.299   4.374   5.432
70041SOL     OW11961  13.448   7.186   0.268
70041SOL    HW111962  13.395   7.237   0.206
70041SOL    HW211963  13.538   7.200   0.239
70042SOL     OW11964   3.010   7.238   1.741
70042SOL    HW111965   2.953   7.195   1.805
70042SOL    HW211966   3.071   7.170   1.714
70043SOL     OW11967   9.130   6.148  14.633
70043SOL    HW111968   9.143   6.142  14.539
70043SOL    HW211969   9.128   6.242  14.651
70044SOL     OW11970   2.152   0.335   5.922
70044SOL    HW111971   2.237   0.350   5.881
70044SOL    HW211972   2.146   0.403   5.990
70045SOL     OW11973   6.114   5.403   7.275
70045SOL    HW111974   6.031   5.407   7.322
70045SOL    HW211975   6.137   5.310   7.274
70046SOL     OW11976   1.077  14.663   9.206
70046SOL    HW111977   1.121  14.584   9.176
70046SOL    HW211978   1.147  14.723   9.229
70047SOL     OW11979   8.464  14.404   2.973
70047SOL    HW111980   8.549  14.433   2.939
70047SOL    HW211981   8.412  14.385   2.894
70048SOL     OW11982  13.716   7.253   4.604
70048SOL    HW111983  13.750   7.312   4.537
70048SOL    HW211984  13.652   7.306   4.651
70049SOL     OW11985   7.774  10.854  13.051
70049SOL    HW111986   7.716  10.873  13.124
70049SOL    HW211987   7.800  10.940  13.018
70050SOL     OW11988   1.292   1.631   5.374
70050SOL    HW111989   1.269   1.559   5.315
70050SOL    HW211990   1.378   1.660   5.343
70051SOL     OW11991   0.023   5.420   2.700
70051SOL    HW111992   0.081   5.469   2.642
70051SOL    HW211993  14.817   5.427   2.659
70052SOL     OW11994   4.806  10.307   1.057
70052SOL    HW111995   4.853  10.377   1.101
70052SOL    HW211996   4.731  10.289   1.114
70053SOL     OW11997   9.463   8.502   3.384
70053SOL    HW111998   9.440   8.592   3.362
70053SOL    HW211999   9.532   8.510   3.449
70054SOL     OW12000  11.161  10.426   8.484
70054SOL    HW112001  11.151  10.387   8.570
70054SOL    HW212002  11.181  10.353   8.426
70055SOL     OW12003   1.248   4.039   4.587
70055SOL    HW112004   1.235   4.023   4.681
70055SOL    HW212005   1.322   4.099   4.583
70056SOL     OW12006   2.131   4.381  11.859
70056SOL    HW112007   2.042   4.416  11.861
70056SOL    HW212008   2.186   4.454  11.831
70057SOL     OW12009   1.586  11.708  11.478
70057SOL    HW112010   1.555  11.626  11.515
70057SOL    HW212011   1.617  11.685  11.390
70058SOL     OW12012   2.636   9.355  13.397
70058SOL    HW112013   2.556   9.324  13.439
70058SOL    HW212014   2.605   9.407  13.322
70059SOL     OW12015   2.032   7.572  12.664
70059SOL    HW112016   1.985   7.498  12.626
70059SOL    HW212017   2.010   7.646  12.606
70060SOL     OW12018  12.933   7.691  11.373
70060SOL    HW112019  12.857   7.637  11.396
70060SOL    HW212020  12.965   7.724  11.457
70061SOL     OW12021  13.401   9.142   1.540
70061SOL    HW112022  13.343   9.069   1.520
70061SOL    HW212023  13.481   9.124   1.491
70062SOL     OW12024   4.601   8.134   0.344
70062SOL    HW112025   4.592   8.190   0.421
70062SOL    HW212026   4.668   8.176   0.290
70063SOL     OW12027   2.645   3.442   7.785
70063SOL    HW112028   2.639   3.480   7.873
70063SOL    HW212029   2.680   3.354   7.799
70064SOL     OW12030   6.465   5.719   3.381
70064SOL    HW112031   6.469   5.750   3.471
70064SOL    HW212032   6.508   5.787   3.330
70065SOL     OW12033  10.572  10.598  13.797
70065SOL    HW112034  10.544  10.554  13.717
70065SOL    HW212035  10.657  10.636  13.776
70066SOL     OW12036  12.952   2.673   7.404
70066SOL    HW112037  12.926   2.598   7.456
70066SOL    HW212038  13.010   2.637   7.337
70067SOL     OW12039   5.222   7.160  14.473
70067SOL    HW112040   5.188   7.149  14.562
70067SOL    HW212041   5.285   7.089  14.462
70068SOL     OW12042   4.909   5.220   7.615
70068SOL    HW112043   4.997   5.249   7.593
70068SOL    HW212044   4.875   5.180   7.535
70069SOL     OW12045   3.425  11.479  14.463
70069SOL    HW112046   3.360  11.535  14.421
70069SOL    HW212047   3.439  11.408  14.401
70070SOL     OW12048  11.045   9.642   2.531
70070SOL    HW112049  11.117   9.594   2.572
70070SOL    HW212050  11.083   9.728   2.511
70071SOL     OW12051  10.225   9.887   8.564
70071SOL    HW112052  10.273   9.804   8.559
70071SOL    HW212053  10.284   9.952   8.527
70072SOL     OW12054   1.498   4.624   9.065
70072SOL    HW112055   1.489   4.564   8.991
70072SOL    HW212056   1.507   4.711   9.024
70073SOL     OW12057   1.899   4.103   7.301
70073SOL    HW112058   1.860   4.099   7.388
70073SOL    HW212059   1.824   4.096   7.241
70074SOL     OW12060  11.087   3.341   2.598
70074SOL    HW112061  11.030   3.368   2.526
70074SOL    HW212062  11.160   3.403   2.595
70075SOL     OW12063   4.801   1.013   1.334
70075SOL    HW112064   4.877   1.019   1.275
70075SOL    HW212065   4.727   1.039   1.280
70076SOL     OW12066   0.354   4.887   3.892
70076SOL    HW112067   0.358   4.916   3.801
70076SOL    HW212068   0.386   4.796   3.890
70077SOL     OW12069   8.230   0.201  10.237
70077SOL    HW112070   8.243   0.142  10.312
70077SOL    HW212071   8.318   0.212  10.200
70078SOL     OW12072  13.906   3.530   4.399
70078SOL    HW112073  13.845   3.602   4.381
70078SOL    HW212074  13.946   3.511   4.314
70079SOL     OW12075  13.444  13.017   9.516
70079SOL    HW112076  13.423  13.069   9.594
70079SOL    HW212077  13.435  12.926   9.544
70080SOL     OW12078   2.002   3.151   0.853
70080SOL    HW112079   2.080   3.102   0.827
70080SOL    HW212080   1.929   3.101   0.815
70081SOL     OW12081  13.534  11.781   8.458
70081SOL    HW112082  13.598  11.827   8.511
70081SOL    HW212083  13.586  11.724   8.401
70082SOL     OW12084   2.818   2.735   5.394
70082SOL    HW112085   2.779   2.813   5.434
70082SOL    HW212086   2.912   2.743   5.411
70083SOL     OW12087  10.137   9.051   6.058
70083SOL    HW112088  10.214   9.098   6.026
70083SOL    HW212089  10.171   8.994   6.126
70084SOL     OW12090  12.087   6.419   2.964
70084SOL    HW112091  12.027   6.344   2.972
70084SOL    HW212092  12.123   6.412   2.876
70085SOL     OW12093   3.504   4.015   7.261
70085SOL    HW112094   3.506   4.030   7.167
70085SOL    HW212095   3.411   4.001   7.280
70086SOL     OW12096   9.873   5.492   1.911
70086SOL    HW112097   9.884   5.571   1.858
70086SOL    HW212098   9.961   5.455   1.917
70087SOL     OW12099  12.163   2.971   6.073
70087SOL    HW112100  12.140   2.989   6.164
70087SOL    HW212101  12.253   3.000   6.064
70088SOL     OW12102   0.356   7.565   8.084
70088SOL    HW112103   0.293   7.521   8.142
70088SOL    HW212104   0.388   7.496   8.027
70089SOL     OW12105   2.758   2.548   4.078
70089SOL    HW112106   2.836   2.542   4.023
70089SOL    HW212107   2.718   2.632   4.053
70090SOL     OW12108  13.842  12.150   8.990
70090SOL    HW112109  13.931  12.182   8.976
70090SOL    HW212110  13.809  12.132   8.902
70091SOL     OW12111   4.713  10.411   3.507
70091SOL    HW112112   4.627  10.436   3.541
70091SOL    HW212113   4.713  10.440   3.416
70092SOL     OW12114   0.749   0.126   9.869
70092SOL    HW112115   0.740   0.031   9.862
70092SOL    HW212116   0.707   0.160   9.791
70093SOL     OW12117  13.915   0.644   8.191
70093SOL    HW112118  13.965   0.712   8.237
70093SOL    HW212119  13.877   0.591   8.261
70094SOL     OW12120   2.451   1.050  13.528
70094SOL    HW112121   2.494   1.043  13.614
70094SOL    HW212122   2.383   1.116  13.541
70095SOL     OW12123  11.879  11.832  13.475
70095SOL    HW112124  11.857  11.920  13.504
70095SOL    HW212125  11.834  11.774  13.536
70096SOL     OW12126  13.477  10.837   5.547
70096SOL    HW112127  13.466  10.747   5.516
70096SOL    HW212128  13.398  10.853   5.599
70097SOL     OW12129   8.098   3.712   0.200
70097SOL    HW112130   8.013   3.681   0.230
70097SOL    HW212131   8.108   3.674   0.113
70098SOL     OW12132   4.890   5.784  11.386
70098SOL    HW112133   4.831   5.835  11.442
70098SOL    HW212134   4.835   5.755  11.313
70099SOL     OW12135   3.303   7.720   2.785
70099SOL    HW112136   3.231   7.671   2.825
70099SOL    HW212137   3.376   7.659   2.783
70100SOL     OW12138   2.353   7.408   3.295
70100SOL    HW112139   2.375   7.501   3.294
70100SOL    HW212140   2.416   7.368   3.356
70101SOL     OW12141   3.785   2.767  14.446
70101SOL    HW112142   3.710   2.787  14.502
70101SOL    HW212143   3.839   2.845  14.449
70102SOL     OW12144   9.171   5.232   9.140
70102SOL    HW112145   9.203   5.153   9.183
70102SOL    HW212146   9.105   5.201   9.079
70103SOL     OW12147  12.109   5.443  14.310
70103SOL    HW112148  12.071   5.441  14.397
70103SOL    HW212149  12.073   5.522  14.269
70104SOL     OW12150   0.775   7.611   1.651
70104SOL    HW112151   0.853   7.561   1.626
70104SOL    HW212152   0.753   7.579   1.739
70105SOL     OW12153   6.169   8.806   6.501
70105SOL    HW112154   6.209   8.840   6.581
70105SOL    HW212155   6.080   8.843   6.502
70106SOL     OW12156   8.724   4.141   1.277
70106SOL    HW112157   8.811   4.124   1.241
70106SOL    HW212158   8.733   4.225   1.323
70107SOL     OW12159  13.299   4.461  13.697
70107SOL    HW112160  13.238   4.411  13.643
70107SOL    HW212161  13.245   4.526  13.742
70108SOL     OW12162  11.192   7.523  11.171
70108SOL    HW112163  11.199   7.604  11.221
70108SOL    HW212164  11.098   7.511  11.156
70109SOL     OW12165   0.207   0.917   3.659
70109SOL    HW112166   0.269   0.849   3.687
70109SOL    HW212167   0.122   0.872   3.655
70110SOL     OW12168   7.390   4.185  12.761
70110SOL    HW112169   7.367   4.154  12.673
70110SOL    HW212170   7.370   4.279  12.759
70111SOL     OW12171   6.641   1.388  10.287
70111SOL    HW112172   6.715   1.327  10.296
70111SOL    HW212173   6.563   1.332  10.291
70112SOL     OW12174  11.179   9.545  10.948
70112SOL    HW112175  11.153   9.457  10.921
70112SOL    HW212176  11.257   9.564  10.895
70113SOL     OW12177   6.253   6.613   7.325
70113SOL    HW112178   6.171   6.636   7.369
70113SOL    HW212179   6.322   6.645   7.383
70114SOL     OW12180   6.418   9.545   9.970
70114SOL    HW112181   6.437   9.608  10.040
70114SOL    HW212182   6.419   9.460  10.013
70115SOL     OW12183   0.503   2.518  14.684
70115SOL    HW112184   0.419   2.541  14.725
70115SOL    HW212185   0.484   2.515  14.590
70116SOL     OW12186   8.569   0.384  13.877
70116SOL    HW112187   8.572   0.289  13.868
70116SOL    HW212188   8.655   0.408  13.912
70117SOL     OW12189   2.535  12.335  12.805
70117SOL    HW112190   2.543  12.425  12.835
70117SOL    HW212191   2.518  12.285  12.884
70118SOL     OW12192  13.800  13.424  12.334
70118SOL    HW112193  13.744  13.494  12.300
70118SOL    HW212194  13.744  13.375  12.394
70119SOL     OW12195   3.511   5.353   6.240
70119SOL    HW112196   3.476   5.285   6.183
70119SOL    HW212197   3.469   5.339   6.324
70120SOL     OW12198   1.524   1.935  11.034
70120SOL    HW112199   1.456   1.875  11.003
70120SOL    HW212200   1.606   1.886  11.022
70121SOL     OW12201  10.084  12.413   1.973
70121SOL    HW112202  10.113  12.505   1.973
70121SOL    HW212203  10.157  12.365   1.934
70122SOL     OW12204  10.844   4.928   7.643
70122SOL    HW112205  10.822   4.875   7.566
70122SOL    HW212206  10.775   4.994   7.647
70123SOL     OW12207   6.323   1.387   6.203
70123SOL    HW112208   6.400   1.430   6.167
70123SOL    HW212209   6.249   1.436   6.166
70124SOL     OW12210   8.692   6.933   2.912
70124SOL    HW112211   8.746   6.957   2.837
70124SOL    HW212212   8.717   6.842   2.932
70125SOL     OW12213   2.313  10.272  11.364
70125SOL    HW112214   2.297  10.211  11.436
70125SOL    HW212215   2.408  10.269  11.352
70126SOL     OW12216   7.193   3.703  14.160
70126SOL    HW112217   7.115   3.647  14.161
70126SOL    HW212218   7.251   3.660  14.096
70127SOL     OW12219   1.315   4.238   0.811
70127SOL    HW112220   1.393   4.182   0.813
70127SOL    HW212221   1.337   4.311   0.869
70128SOL     OW12222   0.967   8.782   9.708
70128SOL    HW112223   1.028   8.785   9.635
70128SOL    HW212224   0.984   8.698   9.751
70129SOL     OW12225  12.675   6.828  14.244
70129SOL    HW112226  12.745   6.861  14.187
70129SOL    HW212227  12.607   6.895  14.241
70130SOL     OW12228  10.172   9.406   6.948
70130SOL    HW112229  10.104   9.440   6.890
70130SOL    HW212230  10.154   9.312   6.954
70131SOL     OW12231  13.605  10.584   8.410
70131SOL    HW112232  13.694  10.565   8.438
70131SOL    HW212233  13.551  10.564   8.487
70132SOL     OW12234  13.256  13.352   7.228
70132SOL    HW112235  13.165  13.334   7.249
70132SOL    HW212236  13.259  13.354   7.132
70133SOL     OW12237  13.733  14.054   0.457
70133SOL    HW112238  13.702  14.089   0.373
70133SOL    HW212239  13.828  14.055   0.450
70134SOL     OW12240  11.791  11.870  11.518
70134SOL    HW112241  11.880  11.904  11.518
70134SOL    HW212242  11.746  11.922  11.585
70135SOL     OW12243   5.651   6.012  12.672
70135SOL    HW112244   5.577   6.067  12.647
70135SOL    HW212245   5.722   6.040  12.615
70136SOL     OW12246   7.433  12.822   8.059
70136SOL    HW112247   7.475  12.763   8.122
70136SOL    HW212248   7.458  12.910   8.087
70137SOL     OW12249   1.936  10.478  10.377
70137SOL    HW112250   1.861  10.447  10.325
70137SOL    HW212251   2.013  10.454  10.325
70138SOL     OW12252  12.550   1.831   3.572
70138SOL    HW112253  12.468   1.873   3.547
70138SOL    HW212254  12.573   1.872   3.655
70139SOL     OW12255   4.289  14.412   4.725
70139SOL    HW112256   4.209  14.388   4.771
70139SOL    HW212257   4.318  14.331   4.683
70140SOL     OW12258  11.361   5.712  10.275
70140SOL    HW112259  11.330   5.795  10.239
70140SOL    HW212260  11.330   5.646  10.213
70141SOL     OW12261   6.515  10.618   3.122
70141SOL    HW112262   6.585  10.615   3.056
70141SOL    HW212263   6.527  10.703   3.164
70142SOL     OW12264   0.412   9.969  14.151
70142SOL    HW112265   0.385   9.878  14.147
70142SOL    HW212266   0.508   9.966  14.149
70143SOL     OW12267   3.060   4.159  14.801
70143SOL    HW112268   3.050   4.167   0.016
70143SOL    HW212269   3.039   4.247  14.767
70144SOL     OW12270  10.965   7.729  14.717
70144SOL    HW112271  11.019   7.788  14.771
70144SOL    HW212272  10.981   7.759  14.628
70145SOL     OW12273   1.130   3.200  13.955
70145SOL    HW112274   1.222   3.176  13.962
70145SOL    HW212275   1.110   3.242  14.038
70146SOL     OW12276   4.759  10.715   1.625
70146SOL    HW112277   4.697  10.644   1.609
70146SOL    HW212278   4.740  10.779   1.557
70147SOL     OW12279   8.855   3.395   6.856
70147SOL    HW112280   8.786   3.407   6.791
70147SOL    HW212281   8.903   3.478   6.855
70148SOL     OW12282  10.090  11.589   8.132
70148SOL    HW112283  10.128  11.565   8.048
70148SOL    HW212284  10.115  11.518   8.191
70149SOL     OW12285   2.103   7.054   7.458
70149SOL    HW112286   2.105   7.012   7.544
70149SOL    HW212287   2.036   7.008   7.409
70150SOL     OW12288  14.241   4.639   3.869
70150SOL    HW112289  14.166   4.689   3.903
70150SOL    HW212290  14.233   4.646   3.774
70151SOL     OW12291  12.804   6.760   8.954
70151SOL    HW112292  12.748   6.777   8.878
70151SOL    HW212293  12.751   6.708   9.013
70152SOL     OW12294  12.761   7.439   0.908
70152SOL    HW112295  12.717   7.353   0.911
70152SOL    HW212296  12.747   7.476   0.995
70153SOL     OW12297  14.332  14.363   8.284
70153SOL    HW112298  14.359  14.277   8.316
70153SOL    HW212299  14.410  14.399   8.242
70154SOL     OW12300  11.328  12.064  12.604
70154SOL    HW112301  11.375  12.109  12.534
70154SOL    HW212302  11.342  11.971  12.585
70155SOL     OW12303  10.813   9.189  10.398
70155SOL    HW112304  10.817   9.284  10.390
70155SOL    HW212305  10.868   9.169  10.473
70156SOL     OW12306   1.367   5.889   2.797
70156SOL    HW112307   1.318   5.965   2.828
70156SOL    HW212308   1.454   5.899   2.836
70157SOL     OW12309  11.158   2.852  13.357
70157SOL    HW112310  11.167   2.927  13.298
70157SOL    HW212311  11.203   2.780  13.312
70158SOL     OW12312   2.954  12.317  10.209
70158SOL    HW112313   2.972  12.224  10.202
70158SOL    HW212314   3.033  12.360  10.176
70159SOL     OW12315   1.714  13.699   0.418
70159SOL    HW112316   1.639  13.687   0.360
70159SOL    HW212317   1.688  13.660   0.501
70160SOL     OW12318  13.352   6.231   1.796
70160SOL    HW112319  13.395   6.316   1.792
70160SOL    HW212320  13.263   6.248   1.765
70161SOL     OW12321  10.995   6.566   2.569
70161SOL    HW112322  10.942   6.517   2.507
70161SOL    HW212323  10.931   6.602   2.631
70162SOL     OW12324   0.619   6.920   5.462
70162SOL    HW112325   0.644   7.003   5.501
70162SOL    HW212326   0.535   6.938   5.419
70163SOL     OW12327   0.800   5.758   8.491
70163SOL    HW112328   0.859   5.683   8.506
70163SOL    HW212329   0.859   5.833   8.484
70164SOL     OW12330   4.941   7.429   7.747
70164SOL    HW112331   4.900   7.513   7.727
70164SOL    HW212332   4.956   7.431   7.842
70165SOL     OW12333   5.453   3.636  10.848
70165SOL    HW112334   5.453   3.640  10.944
70165SOL    HW212335   5.522   3.698  10.821
70166SOL     OW12336   4.640   1.047  14.366
70166SOL    HW112337   4.619   0.965  14.409
70166SOL    HW212338   4.735   1.047  14.358
70167SOL     OW12339   6.184   0.049  10.324
70167SOL    HW112340   6.256  14.870  10.346
70167SOL    HW212341   6.218   0.104  10.253
70168SOL     OW12342   5.396   2.494   8.633
70168SOL    HW112343   5.368   2.585   8.631
70168SOL    HW212344   5.334   2.448   8.576
70169SOL     OW12345  11.487   1.355   3.956
70169SOL    HW112346  11.540   1.276   3.968
70169SOL    HW212347  11.510   1.411   4.030
70170SOL     OW12348  14.280   3.968   9.143
70170SOL    HW112349  14.269   3.900   9.210
70170SOL    HW212350  14.359   4.015   9.169
70171SOL     OW12351   7.693   9.332  13.717
70171SOL    HW112352   7.778   9.370  13.697
70171SOL    HW212353   7.636   9.364  13.647
70172SOL     OW12354   1.938  13.284   3.959
70172SOL    HW112355   1.908  13.195   3.980
70172SOL    HW212356   1.932  13.289   3.863
70173SOL     OW12357  10.219  12.802   5.441
70173SOL    HW112358  10.210  12.707   5.452
70173SOL    HW212359  10.186  12.819   5.352
70174SOL     OW12360   7.505   5.791   3.629
70174SOL    HW112361   7.514   5.753   3.542
70174SOL    HW212362   7.548   5.876   3.623
70175SOL     OW12363   8.431  10.601  11.295
70175SOL    HW112364   8.434  10.516  11.251
70175SOL    HW212365   8.400  10.661  11.227
70176SOL     OW12366   2.901  11.101  11.698
70176SOL    HW112367   2.986  11.128  11.665
70176SOL    HW212368   2.840  11.118  11.626
70177SOL     OW12369  12.168  10.700   5.640
70177SOL    HW112370  12.083  10.716   5.682
70177SOL    HW212371  12.211  10.786   5.640
70178SOL     OW12372   7.145   2.044  11.402
70178SOL    HW112373   7.216   2.052  11.339
70178SOL    HW212374   7.177   1.981  11.466
70179SOL     OW12375  10.135   6.185   4.668
70179SOL    HW112376  10.107   6.096   4.646
70179SOL    HW212377  10.157   6.180   4.761
70180SOL     OW12378   0.703   2.598   3.442
70180SOL    HW112379   0.609   2.588   3.422
70180SOL    HW212380   0.719   2.534   3.511
70181SOL     OW12381   1.472   2.747   8.505
70181SOL    HW112382   1.518   2.778   8.427
70181SOL    HW212383   1.462   2.653   8.492
70182SOL     OW12384   2.608   3.253   0.293
70182SOL    HW112385   2.693   3.261   0.250
70182SOL    HW212386   2.596   3.336   0.339
70183SOL     OW12387   0.190  14.540   7.386
70183SOL    HW112388   0.233  14.583   7.461
70183SOL    HW212389   0.185  14.448   7.411
70184SOL     OW12390  13.432   6.569   3.947
70184SOL    HW112391  13.522   6.595   3.964
70184SOL    HW212392  13.381   6.649   3.960
70185SOL     OW12393   2.407   7.857   2.220
70185SOL    HW112394   2.423   7.951   2.225
70185SOL    HW212395   2.450   7.829   2.139
70186SOL     OW12396   0.841   4.531  13.366
70186SOL    HW112397   0.840   4.483  13.283
70186SOL    HW212398   0.785   4.607  13.350
70187SOL     OW12399  12.749  12.982   1.214
70187SOL    HW112400  12.698  13.059   1.241
70187SOL    HW212401  12.698  12.908   1.246
70188SOL     OW12402   3.719   3.108  14.293
70188SOL    HW112403   3.643   3.050  14.296
70188SOL    HW212404   3.683   3.195  14.274
70189SOL     OW12405   6.863   5.225   9.686
70189SOL    HW112406   6.875   5.133   9.663
70189SOL    HW212407   6.927   5.241   9.755
70190SOL     OW12408  11.918   1.305   4.697
70190SOL    HW112409  11.873   1.238   4.749
70190SOL    HW212410  11.896   1.387   4.741
70191SOL     OW12411   9.114   1.923  11.709
70191SOL    HW112412   9.142   1.831  11.708
70191SOL    HW212413   9.029   1.922  11.664
70192SOL     OW12414   2.746   3.275  13.538
70192SOL    HW112415   2.797   3.202  13.574
70192SOL    HW212416   2.661   3.269  13.582
70193SOL     OW12417   1.445  13.770  13.439
70193SOL    HW112418   1.517  13.733  13.389
70193SOL    HW212419   1.413  13.697  13.493
70194SOL     OW12420  11.252   8.155   0.435
70194SOL    HW112421  11.300   8.190   0.509
70194SOL    HW212422  11.174   8.210   0.428
70195SOL     OW12423  10.002  10.836  14.073
70195SOL    HW112424   9.910  10.860  14.077
70195SOL    HW212425  10.042  10.902  14.016
70196SOL     OW12426  14.818   2.244   7.991
70196SOL    HW112427  14.723   2.247   8.001
70196SOL    HW212428  14.838   2.152   7.974
70197SOL     OW12429   3.359   1.354   0.242
70197SOL    HW112430   3.355   1.449   0.250
70197SOL    HW212431   3.429   1.338   0.178
70198SOL     OW12432   9.641   3.985  13.497
70198SOL    HW112433   9.731   3.984  13.531
70198SOL    HW212434   9.608   3.897  13.514
70199SOL     OW12435   3.737   8.831   2.403
70199SOL    HW112436   3.770   8.871   2.323
70199SOL    HW212437   3.642   8.840   2.396
70200SOL     OW12438   2.915  12.468   3.320
70200SOL    HW112439   2.951  12.431   3.401
70200SOL    HW212440   2.849  12.531   3.350
70201SOL     OW12441   5.215  14.528  12.627
70201SOL    HW112442   5.171  14.445  12.643
70201SOL    HW212443   5.308  14.506  12.627
70202SOL     OW12444  14.620   6.559   3.841
70202SOL    HW112445  14.526   6.575   3.839
70202SOL    HW212446  14.651   6.584   3.754
70203SOL     OW12447   0.960  12.279  13.333
70203SOL    HW112448   0.956  12.189  13.302
70203SOL    HW212449   0.915  12.278  13.418
70204SOL     OW12450   6.990   6.781   6.641
70204SOL    HW112451   7.072   6.811   6.680
70204SOL    HW212452   6.974   6.696   6.680
70205SOL     OW12453  10.895   3.884   7.602
70205SOL    HW112454  10.825   3.822   7.580
70205SOL    HW212455  10.948   3.889   7.522
70206SOL     OW12456  14.764   2.775  10.098
70206SOL    HW112457  14.852   2.814  10.096
70206SOL    HW212458  14.762   2.715  10.024
70207SOL     OW12459   1.246   6.149   9.109
70207SOL    HW112460   1.237   6.235   9.151
70207SOL    HW212461   1.340   6.131   9.110
70208SOL     OW12462   8.719  14.827   6.039
70208SOL    HW112463   8.686  14.771   5.969
70208SOL    HW212464   8.667   0.027   6.033
70209SOL     OW12465   7.465   4.915   6.684
70209SOL    HW112466   7.375   4.928   6.653
70209SOL    HW212467   7.494   5.002   6.710
70210SOL     OW12468   1.143   2.668  12.981
70210SOL    HW112469   1.180   2.736  12.925
70210SOL    HW212470   1.219   2.631  13.026
70211SOL     OW12471   9.605  13.504   4.105
70211SOL    HW112472   9.527  13.515   4.050
70211SOL    HW212473   9.582  13.547   4.188
70212SOL     OW12474   8.636   1.977   1.351
70212SOL    HW112475   8.709   1.916   1.358
70212SOL    HW212476   8.616   2.001   1.442
70213SOL     OW12477  14.304  11.272  12.283
70213SOL    HW112478  14.340  11.316  12.360
70213SOL    HW212479  14.230  11.327  12.257
70214SOL     OW12480   7.319  10.961   0.975
70214SOL    HW112481   7.267  10.961   0.894
70214SOL    HW212482   7.376  11.037   0.966
70215SOL     OW12483   1.205  11.071   9.284
70215SOL    HW112484   1.160  11.130   9.223
70215SOL    HW212485   1.215  10.990   9.234
70216SOL     OW12486   5.217  14.167   0.183
70216SOL    HW112487   5.186  14.257   0.193
70216SOL    HW212488   5.283  14.158   0.253
70217SOL     OW12489  13.009  11.892   1.728
70217SOL    HW112490  13.051  11.882   1.814
70217SOL    HW212491  13.012  11.804   1.690
70218SOL     OW12492   9.028   2.617   7.268
70218SOL    HW112493   9.080   2.642   7.344
70218SOL    HW212494   8.944   2.662   7.282
70219SOL     OW12495   6.546  14.196   0.754
70219SOL    HW112496   6.500  14.211   0.836
70219SOL    HW212497   6.630  14.157   0.780
70220SOL     OW12498   9.177  10.841   3.657
70220SOL    HW112499   9.270  10.859   3.668
70220SOL    HW212500   9.145  10.827   3.746
70221SOL     OW12501  11.819   2.921  12.662
70221SOL    HW112502  11.785   2.833  12.646
70221SOL    HW212503  11.747   2.966  12.706
70222SOL     OW12504   0.988   1.805  12.870
70222SOL    HW112505   1.011   1.801  12.963
70222SOL    HW212506   1.037   1.733  12.830
70223SOL     OW12507   9.535   9.694   1.086
70223SOL    HW112508   9.496   9.613   1.118
70223SOL    HW212509   9.595   9.666   1.017
70224SOL     OW12510   0.382  11.580  10.623
70224SOL    HW112511   0.325  11.647  10.585
70224SOL    HW212512   0.330  11.541  10.693
70225SOL     OW12513   9.850   2.523   3.065
70225SOL    HW112514   9.813   2.598   3.111
70225SOL    HW212515   9.851   2.453   3.131
70226SOL     OW12516   1.609  13.396  12.296
70226SOL    HW112517   1.617  13.306  12.264
70226SOL    HW212518   1.534  13.432  12.248
70227SOL     OW12519   3.723  13.024   2.291
70227SOL    HW112520   3.778  13.072   2.228
70227SOL    HW212521   3.693  13.089   2.353
70228SOL     OW12522   5.168   6.897   7.883
70228SOL    HW112523   5.112   6.961   7.840
70228SOL    HW212524   5.144   6.904   7.976
70229SOL     OW12525  10.828   7.287   7.062
70229SOL    HW112526  10.740   7.323   7.047
70229SOL    HW212527  10.824   7.198   7.028
70230SOL     OW12528  14.628  10.610  12.113
70230SOL    HW112529  14.686  10.628  12.188
70230SOL    HW212530  14.549  10.661  12.132
70231SOL     OW12531   4.082   4.564  10.958
70231SOL    HW112532   4.034   4.615  10.893
70231SOL    HW212533   4.014   4.514  11.003
70232SOL     OW12534   8.781   4.006  10.962
70232SOL    HW112535   8.733   4.080  10.926
70232SOL    HW212536   8.744   3.994  11.050
70233SOL     OW12537  10.664  12.108  10.644
70233SOL    HW112538  10.589  12.064  10.603
70233SOL    HW212539  10.693  12.172  10.578
70234SOL     OW12540   5.364   2.922   4.194
70234SOL    HW112541   5.331   2.873   4.119
70234SOL    HW212542   5.459   2.922   4.183
70235SOL     OW12543   6.665   7.477   9.611
70235SOL    HW112544   6.623   7.444   9.532
70235SOL    HW212545   6.613   7.440   9.683
70236SOL     OW12546   7.394   8.897   0.775
70236SOL    HW112547   7.384   8.942   0.691
70236SOL    HW212548   7.304   8.881   0.805
70237SOL     OW12549   9.256   4.307   0.036
70237SOL    HW112550   9.306   4.266   0.107
70237SOL    HW212551   9.200   4.370   0.080
70238SOL     OW12552   0.361   5.930   2.327
70238SOL    HW112553   0.429   5.891   2.272
70238SOL    HW212554   0.370   6.024   2.314
70239SOL     OW12555   0.919   3.597   7.522
70239SOL    HW112556   0.998   3.596   7.577
70239SOL    HW212557   0.849   3.570   7.580
70240SOL     OW12558  13.993   2.915  11.844
70240SOL    HW112559  14.087   2.925  11.859
70240SOL    HW212560  13.952   2.966  11.914
70241SOL     OW12561   0.072   2.156  12.941
70241SOL    HW112562   0.089   2.166  13.035
70241SOL    HW212563   0.088   2.063  12.924
70242SOL     OW12564   9.856   2.523   9.659
70242SOL    HW112565   9.925   2.478   9.707
70242SOL    HW212566   9.779   2.467   9.670
70243SOL     OW12567   0.199  14.331  14.155
70243SOL    HW112568   0.162  14.293  14.236
70243SOL    HW212569   0.131  14.391  14.124
70244SOL     OW12570   4.081  12.877   0.364
70244SOL    HW112571   4.162  12.884   0.313
70244SOL    HW212572   4.012  12.903   0.303
70245SOL     OW12573   4.988   4.520  11.289
70245SOL    HW112574   5.057   4.479  11.340
70245SOL    HW212575   5.020   4.519  11.199
70246SOL     OW12576   4.078   9.368   1.754
70246SOL    HW112577   4.062   9.439   1.692
70246SOL    HW212578   4.136   9.308   1.707
70247SOL     OW12579  11.847   6.716  12.351
70247SOL    HW112580  11.848   6.620  12.354
70247SOL    HW212581  11.929   6.742  12.394
70248SOL     OW12582   5.194  10.795  10.512
70248SOL    HW112583   5.164  10.885  10.520
70248SOL    HW212584   5.218  10.769  10.601
70249SOL     OW12585   6.180  14.618   1.574
70249SOL    HW112586   6.235  14.547   1.606
70249SOL    HW212587   6.098  14.609   1.622
70250SOL     OW12588  12.045  12.378   9.515
70250SOL    HW112589  11.981  12.308   9.512
70250SOL    HW212590  11.997  12.456   9.487
70251SOL     OW12591   7.422  11.074   4.044
70251SOL    HW112592   7.450  11.085   3.954
70251SOL    HW212593   7.360  11.000   4.041
70252SOL     OW12594  12.018  12.452  11.845
70252SOL    HW112595  11.984  12.399  11.774
70252SOL    HW212596  11.961  12.433  11.919
70253SOL     OW12597  13.074   9.287   6.666
70253SOL    HW112598  13.094   9.330   6.749
70253SOL    HW212599  13.159   9.274   6.625
70254SOL     OW12600  12.990  14.659   6.661
70254SOL    HW112601  12.977  14.754   6.671
70254SOL    HW212602  12.904  14.622   6.681
70255SOL     OW12603   4.032   9.121   0.899
70255SOL    HW112604   3.982   9.041   0.885
70255SOL    HW212605   3.967   9.185   0.928
70256SOL     OW12606   4.478  13.381   5.233
70256SOL    HW112607   4.531  13.379   5.153
70256SOL    HW212608   4.395  13.418   5.206
70257SOL     OW12609  10.008   5.240   7.921
70257SOL    HW112610  10.006   5.178   7.993
70257SOL    HW212611  10.043   5.190   7.847
70258SOL     OW12612  10.155   4.060   3.013
70258SOL    HW112613  10.185   4.044   3.102
70258SOL    HW212614  10.234   4.053   2.959
70259SOL     OW12615   0.562   8.155   6.526
70259SOL    HW112616   0.656   8.139   6.520
70259SOL    HW212617   0.552   8.210   6.603
70260SOL     OW12618   6.669  11.609  13.769
70260SOL    HW112619   6.647  11.637  13.680
70260SOL    HW212620   6.694  11.690  13.814
70261SOL     OW12621  14.435  10.918   2.036
70261SOL    HW112622  14.471  10.830   2.025
70261SOL    HW212623  14.366  10.924   1.970
70262SOL     OW12624   5.863  11.650  13.897
70262SOL    HW112625   5.841  11.743  13.890
70262SOL    HW212626   5.800  11.606  13.839
70263SOL     OW12627   8.831  12.377   5.742
70263SOL    HW112628   8.883  12.402   5.819
70263SOL    HW212629   8.742  12.405   5.763
70264SOL     OW12630  14.697  14.651   0.115
70264SOL    HW112631  14.610  14.636   0.079
70264SOL    HW212632  14.755  14.595   0.063
70265SOL     OW12633   6.758   5.543   1.764
70265SOL    HW112634   6.685   5.588   1.721
70265SOL    HW212635   6.832   5.603   1.754
70266SOL     OW12636   3.919  10.104  10.052
70266SOL    HW112637   4.005  10.065  10.066
70266SOL    HW212638   3.910  10.168  10.123
70267SOL     OW12639  12.501   0.160  10.704
70267SOL    HW112640  12.597   0.161  10.705
70267SOL    HW212641  12.477   0.251  10.685
70268SOL     OW12642   2.345   1.371   3.361
70268SOL    HW112643   2.407   1.417   3.305
70268SOL    HW212644   2.288   1.439   3.395
70269SOL     OW12645   8.553   7.417  12.866
70269SOL    HW112646   8.520   7.460  12.787
70269SOL    HW212647   8.551   7.324  12.845
70270SOL     OW12648  13.573   9.284   9.782
70270SOL    HW112649  13.598   9.230   9.857
70270SOL    HW212650  13.478   9.278   9.778
70271SOL     OW12651   2.482  11.446   9.158
70271SOL    HW112652   2.447  11.483   9.239
70271SOL    HW212653   2.552  11.506   9.132
70272SOL     OW12654   4.199   5.709  12.323
70272SOL    HW112655   4.111   5.729  12.291
70272SOL    HW212656   4.257   5.749  12.260
70273SOL     OW12657  10.046  11.371   4.366
70273SOL    HW112658   9.961  11.413   4.350
70273SOL    HW212659  10.110  11.441   4.351
70274SOL     OW12660  11.136   8.028   2.693
70274SOL    HW112661  11.202   7.961   2.711
70274SOL    HW212662  11.184   8.111   2.693
70275SOL     OW12663  13.533   3.675   7.911
70275SOL    HW112664  13.605   3.695   7.852
70275SOL    HW212665  13.493   3.760   7.930
70276SOL     OW12666   0.225   4.338   2.567
70276SOL    HW112667   0.189   4.317   2.481
70276SOL    HW212668   0.214   4.433   2.575
70277SOL     OW12669   7.515   0.365   9.718
70277SOL    HW112670   7.445   0.384   9.780
70277SOL    HW212671   7.482   0.292   9.666
70278SOL     OW12672  13.461  12.342   2.623
70278SOL    HW112673  13.493  12.369   2.709
70278SOL    HW212674  13.493  12.410   2.564
70279SOL     OW12675  13.189  11.212  13.677
70279SOL    HW112676  13.140  11.167  13.746
70279SOL    HW212677  13.277  11.223  13.712
70280SOL     OW12678  12.298   3.445   7.411
70280SOL    HW112679  12.391   3.429   7.425
70280SOL    HW212680  12.294   3.491   7.327
70281SOL     OW12681  13.629   8.109   2.600
70281SOL    HW112682  13.542   8.147   2.608
70281SOL    HW212683  13.638   8.090   2.506
70282SOL     OW12684  13.121   7.726  11.857
70282SOL    HW112685  13.189   7.660  11.843
70282SOL    HW212686  13.164   7.795  11.908
70283SOL     OW12687   8.821  10.957   7.966
70283SOL    HW112688   8.803  10.916   8.051
70283SOL    HW212689   8.738  10.951   7.919
70284SOL     OW12690  12.877   2.703  12.887
70284SOL    HW112691  12.801   2.702  12.828
70284SOL    HW212692  12.839   2.706  12.975
70285SOL     OW12693  10.841  11.413   6.341
70285SOL    HW112694  10.778  11.479   6.313
70285SOL    HW212695  10.925  11.443   6.306
70286SOL     OW12696  12.453  10.919   2.526
70286SOL    HW112697  12.432  10.826   2.532
70286SOL    HW212698  12.507  10.927   2.447
70287SOL     OW12699   1.684  11.789  13.197
70287SOL    HW112700   1.688  11.807  13.103
70287SOL    HW212701   1.601  11.743  13.209
70288SOL     OW12702   7.587   1.079  10.083
70288SOL    HW112703   7.501   1.094  10.045
70288SOL    HW212704   7.634   1.161  10.070
70289SOL     OW12705  14.771   0.328  10.248
70289SOL    HW112706  14.831   0.394  10.213
70289SOL    HW212707  14.684   0.363  10.229
70290SOL     OW12708  13.480   3.774   5.070
70290SOL    HW112709  13.440   3.687   5.059
70290SOL    HW212710  13.470   3.816   4.984
70291SOL     OW12711  14.147   8.013   5.213
70291SOL    HW112712  14.222   7.960   5.185
70291SOL    HW212713  14.085   7.950   5.249
70292SOL     OW12714   4.511   0.219   0.978
70292SOL    HW112715   4.461   0.282   1.030
70292SOL    HW212716   4.491   0.134   1.017
70293SOL     OW12717  10.142   8.297  11.768
70293SOL    HW112718  10.062   8.292  11.820
70293SOL    HW212719  10.147   8.388  11.740
70294SOL     OW12720   2.045   0.566   9.135
70294SOL    HW112721   1.964   0.596   9.094
70294SOL    HW212722   2.016   0.511   9.208
70295SOL     OW12723   1.092   8.752   3.432
70295SOL    HW112724   1.068   8.761   3.524
70295SOL    HW212725   1.168   8.809   3.421
70296SOL     OW12726   5.950  10.612  10.369
70296SOL    HW112727   5.993  10.542  10.418
70296SOL    HW212728   5.878  10.567  10.323
70297SOL     OW12729   3.672   3.662  13.546
70297SOL    HW112730   3.604   3.729  13.552
70297SOL    HW212731   3.635   3.586  13.590
70298SOL     OW12732   2.747   5.262  10.959
70298SOL    HW112733   2.764   5.303  10.874
70298SOL    HW212734   2.787   5.321  11.023
70299SOL     OW12735   1.062   2.440   9.933
70299SOL    HW112736   0.982   2.464   9.980
70299SOL    HW212737   1.116   2.519   9.937
70300SOL     OW12738   7.000  12.160   1.343
70300SOL    HW112739   6.977  12.151   1.435
70300SOL    HW212740   7.087  12.199   1.343
70301SOL     OW12741  11.116   0.880   5.317
70301SOL    HW112742  11.076   0.948   5.373
70301SOL    HW212743  11.061   0.877   5.240
70302SOL     OW12744   4.034  14.779   7.670
70302SOL    HW112745   3.960  14.823   7.628
70302SOL    HW212746   4.109  14.836   7.652
70303SOL     OW12747  14.750   2.160   6.671
70303SOL    HW112748  14.703   2.090   6.625
70303SOL    HW212749  14.706   2.165   6.757
70304SOL     OW12750   4.021   7.942  12.784
70304SOL    HW112751   4.014   7.870  12.847
70304SOL    HW212752   4.113   7.966  12.784
70305SOL     OW12753   0.546   7.987   2.169
70305SOL    HW112754   0.499   7.991   2.252
70305SOL    HW212755   0.570   7.895   2.159
70306SOL     OW12756  14.518   5.686  13.010
70306SOL    HW112757  14.493   5.620  12.946
70306SOL    HW212758  14.551   5.636  13.085
70307SOL     OW12759   7.850  11.899  14.618
70307SOL    HW112760   7.904  11.823  14.639
70307SOL    HW212761   7.808  11.876  14.535
70308SOL     OW12762   3.989  11.245   6.377
70308SOL    HW112763   4.016  11.244   6.468
70308SOL    HW212764   3.904  11.201   6.377
70309SOL     OW12765   0.793  14.252  14.632
70309SOL    HW112766   0.863  14.315  14.646
70309SOL    HW212767   0.819  14.203  14.554
70310SOL     OW12768   6.693   6.749  11.560
70310SOL    HW112769   6.677   6.723  11.469
70310SOL    HW212770   6.769   6.698  11.587
70311SOL     OW12771   5.346  14.224   8.994
70311SOL    HW112772   5.427  14.193   8.954
70311SOL    HW212773   5.367  14.235   9.087
70312SOL     OW12774  13.129   5.456  12.813
70312SOL    HW112775  13.081   5.499  12.884
70312SOL    HW212776  13.163   5.375  12.853
70313SOL     OW12777   5.597   7.678   8.259
70313SOL    HW112778   5.636   7.752   8.306
70313SOL    HW212779   5.672   7.632   8.221
70314SOL     OW12780  13.771   2.443   2.540
70314SOL    HW112781  13.787   2.524   2.491
70314SOL    HW212782  13.855   2.423   2.582
70315SOL     OW12783   9.536   4.043  12.379
70315SOL    HW112784   9.472   3.972  12.377
70315SOL    HW212785   9.528   4.080  12.467
70316SOL     OW12786   2.051   8.440  10.185
70316SOL    HW112787   1.961   8.449  10.216
70316SOL    HW212788   2.086   8.529  10.186
70317SOL     OW12789  11.032   2.823   0.943
70317SOL    HW112790  11.064   2.914   0.944
70317SOL    HW212791  11.109   2.771   0.923
70318SOL     OW12792   5.000   7.193  13.292
70318SOL    HW112793   5.032   7.170  13.380
70318SOL    HW212794   5.076   7.232  13.249
70319SOL     OW12795  10.978   2.592   2.030
70319SOL    HW112796  10.987   2.541   1.950
70319SOL    HW212797  10.945   2.677   2.000
70320SOL     OW12798   1.192   1.110   9.893
70320SOL    HW112799   1.146   1.186   9.856
70320SOL    HW212800   1.273   1.147   9.929
70321SOL     OW12801  11.249   2.510   4.919
70321SOL    HW112802  11.277   2.512   5.011
70321SOL    HW212803  11.153   2.500   4.924
70322SOL     OW12804  11.546  10.916   9.153
70322SOL    HW112805  11.498  10.926   9.071
70322SOL    HW212806  11.534  10.999   9.198
70323SOL     OW12807   4.314   6.994   9.021
70323SOL    HW112808   4.365   7.056   8.968
70323SOL    HW212809   4.290   7.044   9.099
70324SOL     OW12810  11.195   6.976   1.921
70324SOL    HW112811  11.217   6.964   1.829
70324SOL    HW212812  11.123   7.039   1.921
70325SOL     OW12813  12.453   8.732   0.911
70325SOL    HW112814  12.431   8.826   0.916
70325SOL    HW212815  12.426   8.706   0.823
70326SOL     OW12816   7.397   4.927   8.087
70326SOL    HW112817   7.363   4.917   7.998
70326SOL    HW212818   7.325   4.900   8.144
70327SOL     OW12819  10.777  11.632  12.700
70327SOL    HW112820  10.794  11.554  12.648
70327SOL    HW212821  10.730  11.691  12.642
70328SOL     OW12822   6.177  11.265  11.819
70328SOL    HW112823   6.176  11.236  11.728
70328SOL    HW212824   6.120  11.343  11.820
70329SOL     OW12825   7.290  11.487   5.451
70329SOL    HW112826   7.255  11.399   5.464
70329SOL    HW212827   7.228  11.545   5.495
70330SOL     OW12828   5.158   2.289  13.361
70330SOL    HW112829   5.245   2.249  13.361
70330SOL    HW212830   5.171   2.375  13.402
70331SOL     OW12831   4.106  14.035   4.438
70331SOL    HW112832   4.069  13.985   4.511
70331SOL    HW212833   4.069  13.993   4.360
70332SOL     OW12834   9.625  13.370  13.265
70332SOL    HW112835   9.558  13.359  13.197
70332SOL    HW212836   9.604  13.454  13.306
70333SOL     OW12837  14.273   4.763   6.979
70333SOL    HW112838  14.201   4.725   6.929
70333SOL    HW212839  14.270   4.857   6.957
70334SOL     OW12840   5.139   9.778   7.865
70334SOL    HW112841   5.166   9.851   7.810
70334SOL    HW212842   5.044   9.784   7.868
70335SOL     OW12843   4.854   7.351   5.500
70335SOL    HW112844   4.922   7.317   5.558
70335SOL    HW212845   4.901   7.375   5.420
70336SOL     OW12846   2.522   2.149  12.157
70336SOL    HW112847   2.544   2.137  12.064
70336SOL    HW212848   2.598   2.194  12.194
70337SOL     OW12849   6.260   0.121  12.076
70337SOL    HW112850   6.315   0.046  12.055
70337SOL    HW212851   6.253   0.169  11.994
70338SOL     OW12852   3.492   4.464  14.750
70338SOL    HW112853   3.568   4.434  14.701
70338SOL    HW212854   3.522   4.545  14.792
70339SOL     OW12855   8.122  10.663  14.399
70339SOL    HW112856   8.050  10.637  14.456
70339SOL    HW212857   8.121  10.598  14.329
70340SOL     OW12858   1.338   5.710   5.282
70340SOL    HW112859   1.289   5.756   5.214
70340SOL    HW212860   1.296   5.734   5.364
70341SOL     OW12861   7.286   9.839  10.877
70341SOL    HW112862   7.272   9.934  10.874
70341SOL    HW212863   7.378   9.828  10.854
70342SOL     OW12864  12.874   0.857   9.234
70342SOL    HW112865  12.923   0.787   9.190
70342SOL    HW212866  12.933   0.932   9.233
70343SOL     OW12867   9.038  14.158  13.120
70343SOL    HW112868   9.090  14.181  13.196
70343SOL    HW212869   9.041  14.062  13.117
70344SOL     OW12870  12.764   1.820   7.802
70344SOL    HW112871  12.706   1.895   7.801
70344SOL    HW212872  12.746   1.776   7.885
70345SOL     OW12873   0.677   4.865   9.133
70345SOL    HW112874   0.714   4.799   9.192
70345SOL    HW212875   0.718   4.947   9.160
70346SOL     OW12876  11.751  12.389   3.689
70346SOL    HW112877  11.681  12.374   3.753
70346SOL    HW212878  11.831  12.364   3.735
70347SOL     OW12879   4.020   7.556   6.145
70347SOL    HW112880   4.089   7.541   6.210
70347SOL    HW212881   3.998   7.469   6.112
70348SOL     OW12882   7.276  13.555  11.721
70348SOL    HW112883   7.250  13.487  11.659
70348SOL    HW212884   7.333  13.510  11.784
70349SOL     OW12885   4.859   4.657   2.710
70349SOL    HW112886   4.922   4.625   2.773
70349SOL    HW212887   4.910   4.673   2.630
70350SOL     OW12888  10.658   1.028   9.631
70350SOL    HW112889  10.601   1.098   9.599
70350SOL    HW212890  10.614   0.996   9.710
70351SOL     OW12891  11.737   1.243   7.078
70351SOL    HW112892  11.656   1.219   7.122
70351SOL    HW212893  11.801   1.255   7.148
70352SOL     OW12894  12.055  11.210  14.783
70352SOL    HW112895  12.010  11.127  14.793
70352SOL    HW212896  12.021  11.247  14.702
70353SOL     OW12897   6.094  13.151   6.361
70353SOL    HW112898   6.059  13.074   6.405
70353SOL    HW212899   6.177  13.168   6.404
70354SOL     OW12900   2.350   4.967   8.732
70354SOL    HW112901   2.369   4.971   8.826
70354SOL    HW212902   2.386   4.883   8.703
70355SOL     OW12903  13.667   8.197   2.878
70355SOL    HW112904  13.588   8.160   2.917
70355SOL    HW212905  13.664   8.169   2.786
70356SOL     OW12906   3.200   6.106   6.304
70356SOL    HW112907   3.114   6.100   6.261
70356SOL    HW212908   3.197   6.190   6.350
70357SOL     OW12909   6.328   7.739   4.802
70357SOL    HW112910   6.316   7.666   4.742
70357SOL    HW212911   6.240   7.774   4.815
70358SOL     OW12912   7.378   9.727   5.810
70358SOL    HW112913   7.293   9.695   5.839
70358SOL    HW212914   7.359   9.813   5.772
70359SOL     OW12915   1.365   4.989   8.454
70359SOL    HW112916   1.278   4.980   8.416
70359SOL    HW212917   1.424   4.997   8.379
70360SOL     OW12918   2.569  10.745   8.026
70360SOL    HW112919   2.488  10.698   8.045
70360SOL    HW212920   2.573  10.814   8.091
70361SOL     OW12921  13.746   5.038  10.757
70361SOL    HW112922  13.784   4.954  10.784
70361SOL    HW212923  13.819   5.100  10.761
70362SOL     OW12924  12.081  13.581   4.300
70362SOL    HW112925  12.078  13.608   4.392
70362SOL    HW212926  12.173  13.590   4.275
70363SOL     OW12927   7.467   7.521  14.739
70363SOL    HW112928   7.559   7.530  14.765
70363SOL    HW212929   7.417   7.554  14.813
70364SOL     OW12930   5.713   1.221  12.199
70364SOL    HW112931   5.751   1.230  12.112
70364SOL    HW212932   5.635   1.277  12.197
70365SOL     OW12933   8.941   4.920   6.594
70365SOL    HW112934   8.983   4.851   6.544
70365SOL    HW212935   8.977   5.001   6.558
70366SOL     OW12936   8.034   4.144   8.006
70366SOL    HW112937   8.048   4.223   7.954
70366SOL    HW212938   7.974   4.172   8.076
70367SOL     OW12939   5.498  10.347   0.906
70367SOL    HW112940   5.478  10.311   0.820
70367SOL    HW212941   5.567  10.412   0.889
70368SOL     OW12942  11.361  14.173   1.844
70368SOL    HW112943  11.401  14.087   1.858
70368SOL    HW212944  11.289  14.176   1.907
70369SOL     OW12945   2.477   7.773   9.310
70369SOL    HW112946   2.451   7.713   9.380
70369SOL    HW212947   2.453   7.860   9.343
70370SOL     OW12948   3.878   2.395   7.099
70370SOL    HW112949   3.884   2.420   7.191
70370SOL    HW212950   3.850   2.475   7.054
70371SOL     OW12951   6.177   4.751   3.522
70371SOL    HW112952   6.201   4.751   3.614
70371SOL    HW212953   6.253   4.789   3.477
70372SOL     OW12954   2.274   7.865   6.563
70372SOL    HW112955   2.239   7.944   6.522
70372SOL    HW212956   2.367   7.883   6.574
70373SOL     OW12957  12.927  14.710   6.259
70373SOL    HW112958  12.987  14.751   6.196
70373SOL    HW212959  12.938  14.616   6.244
70374SOL     OW12960   1.390   6.869  11.094
70374SOL    HW112961   1.378   6.950  11.145
70374SOL    HW212962   1.310   6.862  11.042
70375SOL     OW12963   3.568   7.087  13.515
70375SOL    HW112964   3.478   7.115  13.534
70375SOL    HW212965   3.618   7.168  13.509
70376SOL     OW12966   7.614  13.378  11.684
70376SOL    HW112967   7.598  13.381  11.778
70376SOL    HW212968   7.698  13.422  11.672
70377SOL     OW12969   9.154  11.540   4.973
70377SOL    HW112970   9.101  11.536   5.053
70377SOL    HW212971   9.089  11.543   4.902
70378SOL     OW12972   4.622   0.237   7.656
70378SOL    HW112973   4.579   0.297   7.595
70378SOL    HW212974   4.647   0.292   7.731
70379SOL     OW12975   6.382  11.834  11.335
70379SOL    HW112976   6.406  11.813  11.244
70379SOL    HW212977   6.464  11.863  11.375
70380SOL     OW12978  14.162   9.522   1.925
70380SOL    HW112979  14.182   9.587   1.858
70380SOL    HW212980  14.090   9.471   1.887
70381SOL     OW12981   1.231  10.670   9.537
70381SOL    HW112982   1.279  10.604   9.587
70381SOL    HW212983   1.211  10.626   9.454
70382SOL     OW12984   0.219   5.109   7.414
70382SOL    HW112985   0.153   5.170   7.382
70382SOL    HW212986   0.176   5.062   7.485
70383SOL     OW12987  10.957  12.584  10.355
70383SOL    HW112988  11.011  12.587  10.277
70383SOL    HW212989  10.971  12.496  10.391
70384SOL     OW12990   6.562  13.413  11.436
70384SOL    HW112991   6.556  13.319  11.418
70384SOL    HW212992   6.526  13.454  11.357
70385SOL     OW12993  13.627   1.211   9.752
70385SOL    HW112994  13.695   1.172   9.808
70385SOL    HW212995  13.645   1.305   9.755
70386SOL     OW12996   7.278   2.132  13.679
70386SOL    HW112997   7.283   2.157  13.587
70386SOL    HW212998   7.367   2.104  13.701
70387SOL     OW12999   5.626   8.192   3.146
70387SOL    HW113000   5.566   8.200   3.220
70387SOL    HW213001   5.585   8.128   3.088
70388SOL     OW13002  14.265   9.111   2.196
70388SOL    HW113003  14.181   9.151   2.216
70388SOL    HW213004  14.248   9.016   2.199
70389SOL     OW13005   5.158  11.317   7.206
70389SOL    HW113006   5.115  11.367   7.276
70389SOL    HW213007   5.138  11.225   7.226
70390SOL     OW13008   5.545   2.475  12.468
70390SOL    HW113009   5.566   2.568  12.454
70390SOL    HW213010   5.567   2.459  12.560
70391SOL     OW13011  11.992  13.459  12.893
70391SOL    HW113012  11.939  13.539  12.895
70391SOL    HW213013  12.081  13.490  12.908
70392SOL     OW13014   3.929   6.438   0.009
70392SOL    HW113015   3.944   6.344   0.001
70392SOL    HW213016   4.004   6.478  14.844
70393SOL     OW13017   8.401  11.107   8.758
70393SOL    HW113018   8.496  11.118   8.747
70393SOL    HW213019   8.390  11.014   8.777
70394SOL     OW13020   4.955   4.817   6.560
70394SOL    HW113021   4.969   4.903   6.520
70394SOL    HW213022   5.004   4.821   6.643
70395SOL     OW13023   7.719  10.171  14.409
70395SOL    HW113024   7.796  10.128  14.444
70395SOL    HW213025   7.680  10.216  14.484
70396SOL     OW13026   2.036  12.979  10.852
70396SOL    HW113027   1.956  12.935  10.823
70396SOL    HW213028   2.104  12.911  10.848
70397SOL     OW13029  13.580  10.743  10.308
70397SOL    HW113030  13.522  10.684  10.357
70397SOL    HW213031  13.666  10.728  10.347
70398SOL     OW13032  14.343   8.212   0.484
70398SOL    HW113033  14.285   8.287   0.501
70398SOL    HW213034  14.430   8.242   0.511
70399SOL     OW13035   9.518  14.392   3.229
70399SOL    HW113036   9.422  14.398   3.233
70399SOL    HW213037   9.537  14.300   3.247
70400SOL     OW13038  14.116   3.685  12.977
70400SOL    HW113039  14.136   3.776  12.954
70400SOL    HW213040  14.022   3.685  12.995
70401SOL     OW13041   1.544   5.106   7.715
70401SOL    HW113042   1.578   5.188   7.752
70401SOL    HW213043   1.455   5.100   7.748
70402SOL     OW13044   2.104   5.750   2.637
70402SOL    HW113045   2.123   5.775   2.547
70402SOL    HW213046   2.054   5.668   2.629
70403SOL     OW13047  10.330   0.391   6.051
70403SOL    HW113048  10.292   0.333   5.985
70403SOL    HW213049  10.295   0.360   6.134
70404SOL     OW13050   1.891   0.177   1.995
70404SOL    HW113051   1.875   0.259   2.042
70404SOL    HW213052   1.986   0.176   1.980
70405SOL     OW13053   2.472  13.552   9.353
70405SOL    HW113054   2.553  13.539   9.403
70405SOL    HW213055   2.497  13.535   9.262
70406SOL     OW13056  11.230   3.942   7.739
70406SOL    HW113057  11.259   3.962   7.828
70406SOL    HW213058  11.177   4.017   7.713
70407SOL     OW13059  13.044   8.524   3.050
70407SOL    HW113060  13.100   8.537   2.974
70407SOL    HW213061  13.036   8.611   3.090
70408SOL     OW13062   1.290   8.284   3.993
70408SOL    HW113063   1.253   8.335   4.065
70408SOL    HW213064   1.213   8.243   3.952
70409SOL     OW13065  11.499   8.722  10.380
70409SOL    HW113066  11.514   8.813  10.406
70409SOL    HW213067  11.410   8.702  10.411
70410SOL     OW13068  13.081  14.052  11.710
70410SOL    HW113069  13.160  14.037  11.658
70410SOL    HW213070  13.114  14.080  11.796
70411SOL     OW13071   7.969  11.784   2.396
70411SOL    HW113072   8.033  11.854   2.406
70411SOL    HW213073   8.015  11.705   2.424
70412SOL     OW13074  13.564   5.193   7.154
70412SOL    HW113075  13.635   5.134   7.127
70412SOL    HW213076  13.520   5.214   7.072
70413SOL     OW13077  10.562   1.662  13.490
70413SOL    HW113078  10.553   1.607  13.569
70413SOL    HW213079  10.482   1.646  13.441
70414SOL     OW13080   4.706   2.599  13.240
70414SOL    HW113081   4.762   2.660  13.288
70414SOL    HW213082   4.674   2.538  13.307
70415SOL     OW13083   8.927  13.142  14.816
70415SOL    HW113084   8.939  13.189   0.019
70415SOL    HW213085   8.913  13.051  14.842
70416SOL     OW13086   9.574   1.450   7.701
70416SOL    HW113087   9.523   1.521   7.661
70416SOL    HW213088   9.665   1.479   7.693
70417SOL     OW13089  10.528   8.363  11.085
70417SOL    HW113090  10.609   8.325  11.053
70417SOL    HW213091  10.537   8.457  11.068
70418SOL     OW13092  11.197   1.815  13.895
70418SOL    HW113093  11.106   1.846  13.895
70418SOL    HW213094  11.236   1.854  13.817
70419SOL     OW13095  10.147   2.734   1.969
70419SOL    HW113096  10.196   2.785   1.905
70419SOL    HW213097  10.165   2.776   2.053
70420SOL     OW13098   4.313   4.436   2.111
70420SOL    HW113099   4.290   4.343   2.101
70420SOL    HW213100   4.316   4.470   2.022
70421SOL     OW13101  13.352   5.242   3.340
70421SOL    HW113102  13.413   5.217   3.271
70421SOL    HW213103  13.278   5.281   3.293
70422SOL     OW13104   8.908   8.199  10.197
70422SOL    HW113105   8.867   8.225  10.280
70422SOL    HW213106   8.993   8.163  10.223
70423SOL     OW13107  13.364   2.121   1.391
70423SOL    HW113108  13.424   2.184   1.350
70423SOL    HW213109  13.323   2.170   1.462
70424SOL     OW13110  12.351   1.638   4.635
70424SOL    HW113111  12.344   1.543   4.649
70424SOL    HW213112  12.263   1.671   4.653
70425SOL     OW13113   2.957   5.797   0.641
70425SOL    HW113114   2.920   5.714   0.671
70425SOL    HW213115   3.040   5.805   0.688
70426SOL     OW13116  11.289  12.039   0.529
70426SOL    HW113117  11.299  12.074   0.441
70426SOL    HW213118  11.222  12.094   0.570
70427SOL     OW13119   8.317   1.740   4.445
70427SOL    HW113120   8.398   1.728   4.493
70427SOL    HW213121   8.345   1.758   4.355
70428SOL     OW13122   2.602   4.015   8.066
70428SOL    HW113123   2.652   4.083   8.111
70428SOL    HW213124   2.665   3.945   8.050
70429SOL     OW13125   9.024  11.840   3.546
70429SOL    HW113126   9.016  11.790   3.464
70429SOL    HW213127   8.943  11.821   3.593
70430SOL     OW13128   8.376   2.980  14.314
70430SOL    HW113129   8.392   3.074  14.309
70430SOL    HW213130   8.439   2.941  14.254
70431SOL     OW13131   1.167  13.939   4.425
70431SOL    HW113132   1.215  13.968   4.502
70431SOL    HW213133   1.222  13.872   4.386
70432SOL     OW13134   5.772  13.827   6.900
70432SOL    HW113135   5.678  13.822   6.917
70432SOL    HW213136   5.807  13.876   6.975
70433SOL     OW13137   7.908   2.601   2.870
70433SOL    HW113138   7.912   2.678   2.813
70433SOL    HW213139   7.815   2.585   2.883
70434SOL     OW13140  13.320   3.652   7.340
70434SOL    HW113141  13.240   3.629   7.294
70434SOL    HW213142  13.350   3.733   7.298
70435SOL     OW13143   5.194   1.206   2.614
70435SOL    HW113144   5.111   1.162   2.627
70435SOL    HW213145   5.174   1.276   2.552
70436SOL     OW13146   9.323  10.500   6.816
70436SOL    HW113147   9.408  10.458   6.826
70436SOL    HW213148   9.295  10.519   6.906
70437SOL     OW13149  12.033  11.767   9.285
70437SOL    HW113150  12.000  11.699   9.343
70437SOL    HW213151  12.007  11.849   9.328
70438SOL     OW13152   7.686   0.691  11.803
70438SOL    HW113153   7.640   0.607  11.801
70438SOL    HW213154   7.674   0.722  11.892
70439SOL     OW13155   5.615   8.166   5.661
70439SOL    HW113156   5.576   8.253   5.658
70439SOL    HW213157   5.622   8.145   5.754
70440SOL     OW13158   7.254  13.782  13.013
70440SOL    HW113159   7.284  13.772  13.103
70440SOL    HW213160   7.172  13.733  13.010
70441SOL     OW13161  10.579   5.543   7.379
70441SOL    HW113162  10.543   5.578   7.297
70441SOL    HW213163  10.528   5.464   7.397
70442SOL     OW13164   9.469   9.183  12.162
70442SOL    HW113165   9.487   9.158  12.253
70442SOL    HW213166   9.517   9.119  12.110
70443SOL     OW13167   8.530   7.900  13.101
70443SOL    HW113168   8.595   7.969  13.093
70443SOL    HW213169   8.548   7.842  13.027
70444SOL     OW13170   6.394   1.451   4.720
70444SOL    HW113171   6.451   1.380   4.750
70444SOL    HW213172   6.385   1.508   4.796
70445SOL     OW13173  13.150  10.730   6.040
70445SOL    HW113174  13.141  10.692   5.953
70445SOL    HW213175  13.239  10.766   6.041
70446SOL     OW13176   6.221  10.561   1.333
70446SOL    HW113177   6.239  10.493   1.399
70446SOL    HW213178   6.295  10.554   1.272
70447SOL     OW13179   6.310   3.868  10.002
70447SOL    HW113180   6.301   3.824   9.917
70447SOL    HW213181   6.366   3.811  10.054
70448SOL     OW13182  13.623   1.953   2.720
70448SOL    HW113183  13.688   1.891   2.686
70448SOL    HW213184  13.638   2.033   2.669
70449SOL     OW13185   4.409   1.690  10.906
70449SOL    HW113186   4.492   1.689  10.954
70449SOL    HW213187   4.383   1.782  10.906
70450SOL     OW13188   9.091  11.985  14.373
70450SOL    HW113189   9.180  12.010  14.352
70450SOL    HW213190   9.036  12.036  14.314
70451SOL     OW13191   0.877   1.070   4.352
70451SOL    HW113192   0.924   1.114   4.423
70451SOL    HW213193   0.785   1.085   4.373
70452SOL     OW13194   4.622   1.991   1.598
70452SOL    HW113195   4.675   1.946   1.532
70452SOL    HW213196   4.568   2.052   1.547
70453SOL     OW13197   8.860   0.819   1.781
70453SOL    HW113198   8.949   0.850   1.764
70453SOL    HW213199   8.832   0.867   1.858
70454SOL     OW13200   8.691   7.606   3.645
70454SOL    HW113201   8.687   7.540   3.715
70454SOL    HW213202   8.601   7.640   3.640
70455SOL     OW13203   9.026   8.466  10.327
70455SOL    HW113204   8.951   8.409  10.343
70455SOL    HW213205   8.999   8.551  10.362
70456SOL     OW13206  10.191   1.058   9.316
70456SOL    HW113207  10.275   1.025   9.350
70456SOL    HW213208  10.185   1.022   9.228
70457SOL     OW13209  11.936  11.509   0.489
70457SOL    HW113210  11.968  11.578   0.547
70457SOL    HW213211  11.845  11.496   0.514
70458SOL     OW13212   1.751   8.952   7.953
70458SOL    HW113213   1.752   8.993   7.867
70458SOL    HW213214   1.693   8.876   7.943
70459SOL     OW13215   8.561   6.236   4.746
70459SOL    HW113216   8.626   6.304   4.730
70459SOL    HW213217   8.485   6.264   4.694
70460SOL     OW13218   3.780   4.002  14.376
70460SOL    HW113219   3.775   4.076  14.316
70460SOL    HW213220   3.693   3.962  14.372
70461SOL     OW13221  11.488   0.576   8.268
70461SOL    HW113222  11.503   0.567   8.174
70461SOL    HW213223  11.504   0.668   8.286
70462SOL     OW13224   4.365   7.712   3.290
70462SOL    HW113225   4.307   7.635   3.285
70462SOL    HW213226   4.357   7.753   3.204
70463SOL     OW13227   0.574   2.798  10.634
70463SOL    HW113228   0.548   2.806  10.725
70463SOL    HW213229   0.560   2.884  10.596
70464SOL     OW13230  11.603   8.549   7.005
70464SOL    HW113231  11.660   8.601   7.060
70464SOL    HW213232  11.521   8.599   7.002
70465SOL     OW13233  12.727   6.903  13.447
70465SOL    HW113234  12.731   6.949  13.531
70465SOL    HW213235  12.741   6.811  13.468
70466SOL     OW13236   7.997  12.393   4.711
70466SOL    HW113237   7.933  12.464   4.711
70466SOL    HW213238   8.064  12.421   4.649
70467SOL     OW13239   7.241   0.845   7.767
70467SOL    HW113240   7.195   0.842   7.683
70467SOL    HW213241   7.334   0.850   7.743
70468SOL     OW13242   7.388   3.036   0.731
70468SOL    HW113243   7.404   3.125   0.762
70468SOL    HW213244   7.474   3.001   0.710
70469SOL     OW13245   6.527  11.001   9.992
70469SOL    HW113246   6.468  11.052  10.048
70469SOL    HW213247   6.472  10.973   9.919
70470SOL     OW13248   0.129  12.651   7.843
70470SOL    HW113249   0.114  12.611   7.758
70470SOL    HW213250   0.206  12.707   7.831
70471SOL     OW13251   1.208  13.365   2.449
70471SOL    HW113252   1.173  13.283   2.484
70471SOL    HW213253   1.131  13.412   2.417
70472SOL     OW13254  11.416  10.384   3.333
70472SOL    HW113255  11.491  10.421   3.380
70472SOL    HW213256  11.344  10.388   3.396
70473SOL     OW13257  14.364   4.442  12.858
70473SOL    HW113258  14.304   4.502  12.903
70473SOL    HW213259  14.376   4.370  12.920
70474SOL     OW13260   4.072   4.087   0.117
70474SOL    HW113261   4.036   3.999   0.109
70474SOL    HW213262   4.050   4.114   0.206
70475SOL     OW13263   3.308  14.660   0.069
70475SOL    HW113264   3.393  14.658   0.027
70475SOL    HW213265   3.262  14.584   0.034
70476SOL     OW13266   8.119  13.004   0.685
70476SOL    HW113267   8.079  12.917   0.680
70476SOL    HW213268   8.152  13.009   0.775
70477SOL     OW13269   5.893   3.668  12.045
70477SOL    HW113270   5.829   3.597  12.052
70477SOL    HW213271   5.942   3.663  12.127
70478SOL     OW13272  10.303   7.886  10.097
70478SOL    HW113273  10.222   7.936  10.110
70478SOL    HW213274  10.361   7.946  10.049
70479SOL     OW13275  10.400   3.525   2.990
70479SOL    HW113276  10.353   3.442   2.983
70479SOL    HW213277  10.492   3.502   2.979
70480SOL     OW13278   4.273  12.447  11.102
70480SOL    HW113279   4.368  12.431  11.101
70480SOL    HW213280   4.258  12.501  11.180
70481SOL     OW13281   7.647   6.318   2.729
70481SOL    HW113282   7.590   6.249   2.761
70481SOL    HW213283   7.654   6.302   2.635
70482SOL     OW13284   4.442  13.730   0.995
70482SOL    HW113285   4.434  13.818   0.957
70482SOL    HW213286   4.532  13.704   0.976
70483SOL     OW13287   5.136   0.887   3.678
70483SOL    HW113288   5.191   0.845   3.745
70483SOL    HW213289   5.191   0.957   3.643
70484SOL     OW13290  11.378   2.817   3.584
70484SOL    HW113291  11.344   2.810   3.495
70484SOL    HW213292  11.405   2.908   3.592
70485SOL     OW13293   6.527   4.594  11.802
70485SOL    HW113294   6.474   4.581  11.881
70485SOL    HW213295   6.507   4.518  11.747
70486SOL     OW13296   3.490   4.220   0.758
70486SOL    HW113297   3.560   4.179   0.707
70486SOL    HW213298   3.511   4.201   0.849
70487SOL     OW13299   6.375  13.481   4.119
70487SOL    HW113300   6.306  13.508   4.058
70487SOL    HW213301   6.364  13.386   4.127
70488SOL     OW13302  10.125   7.705   2.519
70488SOL    HW113303  10.172   7.784   2.547
70488SOL    HW213304  10.142   7.642   2.589
70489SOL     OW13305   5.266   9.710   8.734
70489SOL    HW113306   5.180   9.736   8.700
70489SOL    HW213307   5.328   9.759   8.680
70490SOL     OW13308   6.708   8.588   7.316
70490SOL    HW113309   6.673   8.661   7.265
70490SOL    HW213310   6.720   8.624   7.404
70491SOL     OW13311   7.435   7.384  11.543
70491SOL    HW113312   7.354   7.433  11.557
70491SOL    HW213313   7.503   7.451  11.536
70492SOL     OW13314   4.806   4.796   2.381
70492SOL    HW113315   4.792   4.775   2.289
70492SOL    HW213316   4.883   4.745   2.406
70493SOL     OW13317   9.560  13.678   9.746
70493SOL    HW113318   9.499  13.751   9.741
70493SOL    HW213319   9.647  13.719   9.738
70494SOL     OW13320   5.464   7.305   8.155
70494SOL    HW113321   5.414   7.231   8.189
70494SOL    HW213322   5.413   7.337   8.081
70495SOL     OW13323   5.969   0.353  12.537
70495SOL    HW113324   6.058   0.388  12.545
70495SOL    HW213325   5.925   0.380  12.617
70496SOL     OW13326   0.287  11.456   8.941
70496SOL    HW113327   0.214  11.472   9.001
70496SOL    HW213328   0.248  11.410   8.867
70497SOL     OW13329   6.083   2.849   0.368
70497SOL    HW113330   6.041   2.930   0.398
70497SOL    HW213331   6.152   2.878   0.308
70498SOL     OW13332  14.112   0.429   2.991
70498SOL    HW113333  14.057   0.364   3.035
70498SOL    HW213334  14.106   0.407   2.898
70499SOL     OW13335  13.432  12.787   5.873
70499SOL    HW113336  13.478  12.865   5.841
70499SOL    HW213337  13.471  12.770   5.959
70500SOL     OW13338   1.259   0.713  11.345
70500SOL    HW113339   1.229   0.706  11.254
70500SOL    HW213340   1.232   0.801  11.373
70501SOL     OW13341   4.813  10.960   5.996
70501SOL    HW113342   4.808  11.025   6.066
70501SOL    HW213343   4.902  10.926   6.000
70502SOL     OW13344  13.572  10.570  13.815
70502SOL    HW113345  13.596  10.604  13.728
70502SOL    HW213346  13.537  10.483  13.798
70503SOL     OW13347   0.486   5.028   7.514
70503SOL    HW113348   0.424   5.084   7.466
70503SOL    HW213349   0.501   5.074   7.596
70504SOL     OW13350  10.451   7.832   5.832
70504SOL    HW113351  10.458   7.873   5.919
70504SOL    HW213352  10.362   7.799   5.828
70505SOL     OW13353   0.840   2.401  14.220
70505SOL    HW113354   0.791   2.458  14.161
70505SOL    HW213355   0.861   2.457  14.295
70506SOL     OW13356   7.479  10.745   4.858
70506SOL    HW113357   7.473  10.656   4.890
70506SOL    HW213358   7.402  10.756   4.802
70507SOL     OW13359   6.879   2.698  13.486
70507SOL    HW113360   6.827   2.623  13.460
70507SOL    HW213361   6.852   2.768  13.427
70508SOL     OW13362   6.638   3.292  10.869
70508SOL    HW113363   6.551   3.255  10.880
70508SOL    HW213364   6.690   3.220  10.833
70509SOL     OW13365  12.523   2.890   6.800
70509SOL    HW113366  12.537   2.804   6.761
70509SOL    HW213367  12.431   2.890   6.827
70510SOL     OW13368   3.647  11.842   7.093
70510SOL    HW113369   3.653  11.788   7.172
70510SOL    HW213370   3.555  11.838   7.068
70511SOL     OW13371   7.028  12.539   6.800
70511SOL    HW113372   7.038  12.628   6.767
70511SOL    HW213373   7.118  12.504   6.802
70512SOL     OW13374   7.406   7.837   8.120
70512SOL    HW113375   7.482   7.891   8.102
70512SOL    HW213376   7.333   7.881   8.075
70513SOL     OW13377  13.105   1.914   7.503
70513SOL    HW113378  13.200   1.926   7.496
70513SOL    HW213379  13.094   1.822   7.524
70514SOL     OW13380  10.874   5.842   9.863
70514SOL    HW113381  10.951   5.801   9.901
70514SOL    HW213382  10.803   5.821   9.924
70515SOL     OW13383   6.799   9.073   8.476
70515SOL    HW113384   6.751   9.037   8.400
70515SOL    HW213385   6.891   9.062   8.452
70516SOL     OW13386   8.580   4.799  10.735
70516SOL    HW113387   8.585   4.819  10.642
70516SOL    HW213388   8.600   4.705  10.740
70517SOL     OW13389  10.146   1.744   8.511
70517SOL    HW113390  10.130   1.819   8.568
70517SOL    HW213391  10.213   1.775   8.449
70518SOL     OW13392   0.951   1.265   8.504
70518SOL    HW113393   0.874   1.289   8.453
70518SOL    HW213394   0.965   1.339   8.563
70519SOL     OW13395   6.338   8.407   9.744
70519SOL    HW113396   6.379   8.397   9.830
70519SOL    HW213397   6.275   8.335   9.738
70520SOL     OW13398   0.159  11.674   7.661
70520SOL    HW113399   0.104  11.750   7.640
70520SOL    HW213400   0.098  11.609   7.696
70521SOL     OW13401   5.388  13.018   0.912
70521SOL    HW113402   5.459  13.039   0.972
70521SOL    HW213403   5.386  13.091   0.850
70522SOL     OW13404   9.025   7.518  14.468
70522SOL    HW113405   9.039   7.546  14.377
70522SOL    HW213406   9.094   7.454  14.484
70523SOL     OW13407   3.222  12.104   6.694
70523SOL    HW113408   3.148  12.093   6.754
70523SOL    HW213409   3.289  12.147   6.748
70524SOL     OW13410  11.360   9.041   9.291
70524SOL    HW113411  11.280   9.037   9.343
70524SOL    HW213412  11.345   9.114   9.230
70525SOL     OW13413  11.883   1.494   3.996
70525SOL    HW113414  11.806   1.538   3.960
70525SOL    HW213415  11.882   1.407   3.957
70526SOL     OW13416  12.634  13.013   7.510
70526SOL    HW113417  12.722  13.017   7.473
70526SOL    HW213418  12.597  13.100   7.494
70527SOL     OW13419  11.155   6.629   1.883
70527SOL    HW113420  11.100   6.551   1.878
70527SOL    HW213421  11.093   6.701   1.896
70528SOL     OW13422   2.101   2.340   7.080
70528SOL    HW113423   2.158   2.393   7.137
70528SOL    HW213424   2.107   2.383   6.994
70529SOL     OW13425   7.462   5.681  13.806
70529SOL    HW113426   7.550   5.689  13.768
70529SOL    HW213427   7.420   5.611  13.757
70530SOL     OW13428  10.084   7.102   0.395
70530SOL    HW113429  10.134   7.149   0.462
70530SOL    HW213430  10.150   7.072   0.332
70531SOL     OW13431   3.867   0.605   2.186
70531SOL    HW113432   3.939   0.587   2.126
70531SOL    HW213433   3.802   0.539   2.167
70532SOL     OW13434  11.901   1.268   1.982
70532SOL    HW113435  11.806   1.281   1.984
70532SOL    HW213436  11.913   1.176   2.005
70533SOL     OW13437  11.975   2.431   7.814
70533SOL    HW113438  11.914   2.438   7.740
70533SOL    HW213439  12.021   2.348   7.798
70534SOL     OW13440  13.354  10.585   0.638
70534SOL    HW113441  13.314  10.653   0.692
70534SOL    HW213442  13.440  10.621   0.615
70535SOL     OW13443  12.695  10.989   8.112
70535SOL    HW113444  12.672  11.080   8.095
70535SOL    HW213445  12.625  10.956   8.168
70536SOL     OW13446   4.780   2.792  13.026
70536SOL    HW113447   4.752   2.737  13.099
70536SOL    HW213448   4.857   2.838  13.059
70537SOL     OW13449  13.310   9.075   0.648
70537SOL    HW113450  13.285   8.997   0.598
70537SOL    HW213451  13.239   9.137   0.631
70538SOL     OW13452  12.417   8.729   9.620
70538SOL    HW113453  12.421   8.707   9.527
70538SOL    HW213454  12.508   8.728   9.650
70539SOL     OW13455   7.489  12.852   3.277
70539SOL    HW113456   7.498  12.843   3.182
70539SOL    HW213457   7.518  12.768   3.312
70540SOL     OW13458   9.321   8.634   6.154
70540SOL    HW113459   9.228   8.611   6.155
70540SOL    HW213460   9.366   8.550   6.145
70541SOL     OW13461   1.111   1.990   8.325
70541SOL    HW113462   1.154   2.054   8.268
70541SOL    HW213463   1.183   1.947   8.371
70542SOL     OW13464   1.379   3.322   1.241
70542SOL    HW113465   1.305   3.359   1.289
70542SOL    HW213466   1.350   3.319   1.150
70543SOL     OW13467   7.855   7.656   9.291
70543SOL    HW113468   7.784   7.603   9.255
70543SOL    HW213469   7.930   7.597   9.294
70544SOL     OW13470   2.861  14.144  13.446
70544SOL    HW113471   2.899  14.134  13.359
70544SOL    HW213472   2.866  14.238  13.464
70545SOL     OW13473  12.090   0.745   0.181
70545SOL    HW113474  12.149   0.681   0.142
70545SOL    HW213475  12.098   0.822   0.125
70546SOL     OW13476   6.403   7.734   1.368
70546SOL    HW113477   6.399   7.829   1.357
70546SOL    HW213478   6.319   7.710   1.406
70547SOL     OW13479   9.940   5.449  10.179
70547SOL    HW113480   9.919   5.534  10.141
70547SOL    HW213481   9.988   5.403  10.109
70548SOL     OW13482   9.110  12.906  11.963
70548SOL    HW113483   9.156  12.845  12.021
70548SOL    HW213484   9.022  12.911  11.999
70549SOL     OW13485  13.603  14.192   3.316
70549SOL    HW113486  13.602  14.100   3.343
70549SOL    HW213487  13.517  14.207   3.277
70550SOL     OW13488   0.270  10.454  13.598
70550SOL    HW113489   0.303  10.538  13.629
70550SOL    HW213490   0.189  10.475  13.552
70551SOL     OW13491  12.214   9.439  11.682
70551SOL    HW113492  12.126   9.438  11.644
70551SOL    HW213493  12.273   9.447  11.607
70552SOL     OW13494   8.168   6.249   9.055
70552SOL    HW113495   8.145   6.342   9.045
70552SOL    HW213496   8.239   6.249   9.120
70553SOL     OW13497   6.470  12.842   3.671
70553SOL    HW113498   6.457  12.777   3.740
70553SOL    HW213499   6.401  12.825   3.607
70554SOL     OW13500   3.730   6.000   1.233
70554SOL    HW113501   3.744   6.093   1.247
70554SOL    HW213502   3.760   5.959   1.314
70555SOL     OW13503   5.406  12.335  10.515
70555SOL    HW113504   5.313  12.314  10.501
70555SOL    HW213505   5.426  12.400  10.448
70556SOL     OW13506   6.427   3.884   6.686
70556SOL    HW113507   6.463   3.880   6.775
70556SOL    HW213508   6.341   3.924   6.696
70557SOL     OW13509   8.297   5.884  12.565
70557SOL    HW113510   8.248   5.915  12.489
70557SOL    HW213511   8.351   5.958  12.592
70558SOL     OW13512   7.622  14.443   5.999
70558SOL    HW113513   7.551  14.506   5.984
70558SOL    HW213514   7.604  14.407   6.086
70559SOL     OW13515  13.078   5.077   3.903
70559SOL    HW113516  13.003   5.085   3.845
70559SOL    HW213517  13.147   5.040   3.848
70560SOL     OW13518   5.410   3.462   3.239
70560SOL    HW113519   5.421   3.372   3.208
70560SOL    HW213520   5.316   3.479   3.230
70561SOL     OW13521   4.697   9.195   0.326
70561SOL    HW113522   4.655   9.145   0.256
70561SOL    HW213523   4.661   9.159   0.407
70562SOL     OW13524   0.752   2.706   5.062
70562SOL    HW113525   0.829   2.704   5.119
70562SOL    HW213526   0.697   2.775   5.098
70563SOL     OW13527   9.309   5.428   3.537
70563SOL    HW113528   9.391   5.392   3.569
70563SOL    HW213529   9.318   5.427   3.441
70564SOL     OW13530   6.266  10.287  12.639
70564SOL    HW113531   6.268  10.353  12.708
70564SOL    HW213532   6.302  10.208  12.680
70565SOL     OW13533   9.511   1.227  10.971
70565SOL    HW113534   9.562   1.151  11.000
70565SOL    HW213535   9.557   1.258  10.893
70566SOL     OW13536   0.931   7.829   8.941
70566SOL    HW113537   1.001   7.895   8.938
70566SOL    HW213538   0.932   7.791   8.853
70567SOL     OW13539  14.255  10.208  12.587
70567SOL    HW113540  14.316  10.224  12.514
70567SOL    HW213541  14.197  10.285  12.586
70568SOL     OW13542   0.520  10.349   1.777
70568SOL    HW113543   0.593  10.298   1.742
70568SOL    HW213544   0.469  10.287   1.828
70569SOL     OW13545   2.895   8.667   3.868
70569SOL    HW113546   2.950   8.653   3.945
70569SOL    HW213547   2.811   8.628   3.892
70570SOL     OW13548   9.841   5.420   1.555
70570SOL    HW113549   9.858   5.346   1.614
70570SOL    HW213550   9.882   5.396   1.473
70571SOL     OW13551  11.861  10.706   5.993
70571SOL    HW113552  11.825  10.620   5.973
70571SOL    HW213553  11.824  10.729   6.078
70572SOL     OW13554  10.275   1.463   8.462
70572SOL    HW113555  10.222   1.543   8.463
70572SOL    HW213556  10.364   1.492   8.482
70573SOL     OW13557  12.683   6.967   3.085
70573SOL    HW113558  12.755   7.012   3.041
70573SOL    HW213559  12.625   6.940   3.014
70574SOL     OW13560   4.063   5.127   0.182
70574SOL    HW113561   4.007   5.177   0.242
70574SOL    HW213562   4.135   5.187   0.161
70575SOL     OW13563   5.862  11.831   1.085
70575SOL    HW113564   5.948  11.789   1.095
70575SOL    HW213565   5.820  11.783   1.014
70576SOL     OW13566   5.997   8.787   7.699
70576SOL    HW113567   5.992   8.700   7.739
70576SOL    HW213568   5.984   8.770   7.606
70577SOL     OW13569   3.720   4.297  13.626
70577SOL    HW113570   3.682   4.349  13.697
70577SOL    HW213571   3.688   4.209  13.642
70578SOL     OW13572   2.287  12.980  11.219
70578SOL    HW113573   2.340  13.041  11.270
70578SOL    HW213574   2.287  13.015  11.130
70579SOL     OW13575   0.807  14.012   5.825
70579SOL    HW113576   0.784  13.921   5.808
70579SOL    HW213577   0.896  14.021   5.790
70580SOL     OW13578   8.282   8.578   1.560
70580SOL    HW113579   8.287   8.514   1.631
70580SOL    HW213580   8.273   8.526   1.481
70581SOL     OW13581   1.429   0.734   3.178
70581SOL    HW113582   1.503   0.760   3.233
70581SOL    HW213583   1.439   0.786   3.099
70582SOL     OW13584   0.266   0.938   9.758
70582SOL    HW113585   0.232   1.006   9.817
70582SOL    HW213586   0.264   0.858   9.809
70583SOL     OW13587  13.102   4.278   0.462
70583SOL    HW113588  13.195   4.300   0.466
70583SOL    HW213589  13.085   4.232   0.545
70584SOL     OW13590   9.429   4.000   6.053
70584SOL    HW113591   9.385   3.915   6.047
70584SOL    HW213592   9.492   4.000   5.981
70585SOL     OW13593  11.397   1.160   0.314
70585SOL    HW113594  11.359   1.243   0.286
70585SOL    HW213595  11.427   1.118   0.234
70586SOL     OW13596   2.634  11.380  14.774
70586SOL    HW113597   2.688  11.458  14.762
70586SOL    HW213598   2.690  11.319  14.821
70587SOL     OW13599  13.671  14.534   1.718
70587SOL    HW113600  13.765  14.534   1.736
70587SOL    HW213601  13.630  14.518   1.803
70588SOL     OW13602   5.369   0.186  10.780
70588SOL    HW113603   5.461   0.200  10.759
70588SOL    HW213604   5.335   0.274  10.798
70589SOL     OW13605   3.043   3.640   1.162
70589SOL    HW113606   3.055   3.597   1.078
70589SOL    HW213607   2.971   3.702   1.148
70590SOL     OW13608  10.933   6.421   5.535
70590SOL    HW113609  10.867   6.402   5.469
70590SOL    HW213610  11.013   6.380   5.502
70591SOL     OW13611   5.708  12.780   0.881
70591SOL    HW113612   5.654  12.833   0.822
70591SOL    HW213613   5.772  12.738   0.823
70592SOL     OW13614   0.738   2.147   6.808
70592SOL    HW113615   0.792   2.215   6.848
70592SOL    HW213616   0.657   2.147   6.859
70593SOL     OW13617   5.674  13.552   9.731
70593SOL    HW113618   5.741  13.510   9.785
70593SOL    HW213619   5.714  13.634   9.702
70594SOL     OW13620  11.195   8.868  14.402
70594SOL    HW113621  11.214   8.774  14.400
70594SOL    HW213622  11.170   8.884  14.493
70595SOL     OW13623   4.015   9.063  12.060
70595SOL    HW113624   4.063   9.143  12.036
70595SOL    HW213625   3.952   9.051  11.989
70596SOL     OW13626   4.173   9.977   2.969
70596SOL    HW113627   4.144  10.033   3.041
70596SOL    HW213628   4.147  10.024   2.890
70597SOL     OW13629  11.781  11.396   7.750
70597SOL    HW113630  11.741  11.455   7.815
70597SOL    HW213631  11.751  11.430   7.666
70598SOL     OW13632   2.527   7.302   3.499
70598SOL    HW113633   2.536   7.208   3.484
70598SOL    HW213634   2.546   7.313   3.592
70599SOL     OW13635  11.551   2.346  11.437
70599SOL    HW113636  11.522   2.410  11.502
70599SOL    HW213637  11.558   2.396  11.356
70600SOL     OW13638  12.647  11.791   8.906
70600SOL    HW113639  12.708  11.850   8.862
70600SOL    HW213640  12.664  11.705   8.868
70601SOL     OW13641   2.999  11.158   3.959
70601SOL    HW113642   3.077  11.193   3.915
70601SOL    HW213643   2.929  11.166   3.893
70602SOL     OW13644  13.446   5.910   2.750
70602SOL    HW113645  13.449   5.877   2.840
70602SOL    HW213646  13.529   5.884   2.712
70603SOL     OW13647   3.555   1.381  14.600
70603SOL    HW113648   3.473   1.361  14.645
70603SOL    HW213649   3.588   1.459  14.644
70604SOL     OW13650  12.710  13.404   2.776
70604SOL    HW113651  12.651  13.401   2.700
70604SOL    HW213652  12.789  13.359   2.747
70605SOL     OW13653  12.065  14.421   8.872
70605SOL    HW113654  12.125  14.428   8.798
70605SOL    HW213655  12.058  14.511   8.906
70606SOL     OW13656  12.794   6.149   7.747
70606SOL    HW113657  12.861   6.144   7.679
70606SOL    HW213658  12.734   6.077   7.726
70607SOL     OW13659   9.927   8.357   9.414
70607SOL    HW113660   9.900   8.394   9.330
70607SOL    HW213661  10.014   8.395   9.430
70608SOL     OW13662   9.505   4.710  10.853
70608SOL    HW113663   9.435   4.773  10.833
70608SOL    HW213664   9.567   4.720  10.781
70609SOL     OW13665   8.408   6.741  11.569
70609SOL    HW113666   8.429   6.816  11.624
70609SOL    HW213667   8.379   6.780  11.486
70610SOL     OW13668   1.635   3.042   1.453
70610SOL    HW113669   1.675   3.127   1.434
70610SOL    HW213670   1.688   3.007   1.525
70611SOL     OW13671  10.380   5.440   0.963
70611SOL    HW113672  10.394   5.417   0.871
70611SOL    HW213673  10.457   5.407   1.008
70612SOL     OW13674   2.767   8.826   5.334
70612SOL    HW113675   2.772   8.899   5.272
70612SOL    HW213676   2.858   8.804   5.353
70613SOL     OW13677  14.803   3.608   0.228
70613SOL    HW113678  14.726   3.642   0.184
70613SOL    HW213679  14.834   3.680   0.283
70614SOL     OW13680  13.914   6.940   1.199
70614SOL    HW113681  13.861   6.902   1.129
70614SOL    HW213682  13.951   6.865   1.245
70615SOL     OW13683   4.066  10.049   6.382
70615SOL    HW113684   4.092  10.139   6.362
70615SOL    HW213685   3.977  10.057   6.415
70616SOL     OW13686  13.710   8.643   8.675
70616SOL    HW113687  13.732   8.684   8.592
70616SOL    HW213688  13.733   8.551   8.663
70617SOL     OW13689   0.965   1.338   9.831
70617SOL    HW113690   0.992   1.428   9.850
70617SOL    HW213691   0.930   1.305   9.914
70618SOL     OW13692   2.880   2.443  10.185
70618SOL    HW113693   2.952   2.380  10.179
70618SOL    HW213694   2.909   2.519  10.134
70619SOL     OW13695   2.212   8.884  10.639
70619SOL    HW113696   2.213   8.789  10.633
70619SOL    HW213697   2.304   8.908  10.656
70620SOL     OW13698   3.074   9.477  11.937
70620SOL    HW113699   3.034   9.391  11.942
70620SOL    HW213700   3.008   9.531  11.893
70621SOL     OW13701   0.033  11.171   0.855
70621SOL    HW113702   0.094  11.112   0.899
70621SOL    HW213703   0.054  11.161   0.762
70622SOL     OW13704   5.381  11.068   7.612
70622SOL    HW113705   5.348  11.058   7.701
70622SOL    HW213706   5.430  11.150   7.614
70623SOL     OW13707   9.786  13.531   9.582
70623SOL    HW113708   9.811  13.444   9.550
70623SOL    HW213709   9.725  13.564   9.515
70624SOL     OW13710   2.061   7.242  11.252
70624SOL    HW113711   2.146   7.213  11.218
70624SOL    HW213712   1.998   7.212  11.186
70625SOL     OW13713  11.790   0.555  10.546
70625SOL    HW113714  11.817   0.488  10.609
70625SOL    HW213715  11.750   0.624  10.600
70626SOL     OW13716   2.095  10.720   4.013
70626SOL    HW113717   2.000  10.717   4.013
70626SOL    HW213718   2.120  10.695   4.102
70627SOL     OW13719   4.293  14.162   0.469
70627SOL    HW113720   4.364  14.110   0.507
70627SOL    HW213721   4.235  14.181   0.543
70628SOL     OW13722   5.191   9.261   5.045
70628SOL    HW113723   5.240   9.183   5.019
70628SOL    HW213724   5.214   9.327   4.979
70629SOL     OW13725   2.880   7.383   8.147
70629SOL    HW113726   2.944   7.390   8.076
70629SOL    HW213727   2.860   7.289   8.151
70630SOL     OW13728   8.113   2.546  14.041
70630SOL    HW113729   8.118   2.578  14.131
70630SOL    HW213730   8.070   2.460  14.048
70631SOL     OW13731   7.082  12.374   8.115
70631SOL    HW113732   7.139  12.298   8.105
70631SOL    HW213733   7.025  12.372   8.039
70632SOL     OW13734   6.318   0.779   0.472
70632SOL    HW113735   6.231   0.794   0.510
70632SOL    HW213736   6.317   0.687   0.447
70633SOL     OW13737   8.200   2.347   9.820
70633SOL    HW113738   8.125   2.334   9.879
70633SOL    HW213739   8.207   2.442   9.811
70634SOL     OW13740  13.065   1.751   1.807
70634SOL    HW113741  12.977   1.790   1.817
70634SOL    HW213742  13.056   1.693   1.731
70635SOL     OW13743   8.820   2.286   0.650
70635SOL    HW113744   8.759   2.301   0.722
70635SOL    HW213745   8.772   2.228   0.590
70636SOL     OW13746  10.974   9.821   9.633
70636SOL    HW113747  11.062   9.784   9.629
70636SOL    HW213748  10.963   9.848   9.724
70637SOL     OW13749   6.163  12.803   3.572
70637SOL    HW113750   6.073  12.776   3.550
70637SOL    HW213751   6.174  12.887   3.526
70638SOL     OW13752   4.509   2.748  12.223
70638SOL    HW113753   4.439   2.703  12.176
70638SOL    HW213754   4.485   2.739  12.315
70639SOL     OW13755   5.606  14.196  10.504
70639SOL    HW113756   5.623  14.265  10.440
70639SOL    HW213757   5.523  14.158  10.476
70640SOL     OW13758  14.817  12.400  13.379
70640SOL    HW113759  14.878  12.358  13.438
70640SOL    HW213760  14.747  12.336  13.365
70641SOL     OW13761   9.201   1.803  12.631
70641SOL    HW113762   9.182   1.822  12.539
70641SOL    HW213763   9.295   1.784  12.633
70642SOL     OW13764   6.755   0.063  13.129
70642SOL    HW113765   6.728   0.144  13.172
70642SOL    HW213766   6.716   0.068  13.042
70643SOL     OW13767   9.833   6.682   3.956
70643SOL    HW113768   9.779   6.725   3.889
70643SOL    HW213769   9.770   6.632   4.008
70644SOL     OW13770  13.715   5.652   7.979
70644SOL    HW113771  13.642   5.590   7.988
70644SOL    HW213772  13.687   5.711   7.909
70645SOL     OW13773   9.663   6.518  14.694
70645SOL    HW113774   9.746   6.471  14.691
70645SOL    HW213775   9.679   6.598  14.644
70646SOL     OW13776   4.262  13.280   0.869
70646SOL    HW113777   4.236  13.371   0.854
70646SOL    HW213778   4.187  13.228   0.838
70647SOL     OW13779   8.269   0.302  10.613
70647SOL    HW113780   8.210   0.358  10.563
70647SOL    HW213781   8.343   0.359  10.636
70648SOL     OW13782  13.247   8.411   9.967
70648SOL    HW113783  13.162   8.369   9.959
70648SOL    HW213784  13.307   8.352   9.921
70649SOL     OW13785   5.028   5.848  14.445
70649SOL    HW113786   4.992   5.773  14.398
70649SOL    HW213787   4.962   5.917  14.433
70650SOL     OW13788   9.337  14.220   0.804
70650SOL    HW113789   9.431  14.204   0.818
70650SOL    HW213790   9.293  14.157   0.861
70651SOL     OW13791   0.446  13.838   5.649
70651SOL    HW113792   0.391  13.914   5.670
70651SOL    HW213793   0.394  13.789   5.584
70652SOL     OW13794   2.038  11.121  10.058
70652SOL    HW113795   2.119  11.152  10.098
70652SOL    HW213796   2.013  11.044  10.109
70653SOL     OW13797   9.445  14.798   8.790
70653SOL    HW113798   9.479  14.842   8.868
70653SOL    HW213799   9.507  14.727   8.774
70654SOL     OW13800  10.789   8.129  12.692
70654SOL    HW113801  10.714   8.182  12.719
70654SOL    HW213802  10.794   8.140  12.597
70655SOL     OW13803   8.349   7.617   1.495
70655SOL    HW113804   8.343   7.638   1.588
70655SOL    HW213805   8.282   7.672   1.454
70656SOL     OW13806   1.752   9.327   9.849
70656SOL    HW113807   1.836   9.352   9.811
70656SOL    HW213808   1.760   9.349   9.942
70657SOL     OW13809   0.903   4.681   2.903
70657SOL    HW113810   0.906   4.762   2.955
70657SOL    HW213811   0.825   4.691   2.849
70658SOL     OW13812   0.750  11.516   3.178
70658SOL    HW113813   0.684  11.553   3.237
70658SOL    HW213814   0.826  11.573   3.189
70659SOL     OW13815   1.518   7.886   2.418
70659SOL    HW113816   1.580   7.843   2.477
70659SOL    HW213817   1.535   7.980   2.428
70660SOL     OW13818   3.698  14.812   8.898
70660SOL    HW113819   3.681  14.848   8.985
70660SOL    HW213820   3.614  14.775   8.871
70661SOL     OW13821   3.586  12.588   4.233
70661SOL    HW113822   3.621  12.509   4.190
70661SOL    HW213823   3.650  12.656   4.213
70662SOL     OW13824   8.739   0.748  13.362
70662SOL    HW113825   8.816   0.709  13.322
70662SOL    HW213826   8.666   0.693  13.332
70663SOL     OW13827  13.134  10.137   1.098
70663SOL    HW113828  13.215  10.087   1.111
70663SOL    HW213829  13.164  10.223   1.068
70664SOL     OW13830   9.950   0.521   1.443
70664SOL    HW113831   9.889   0.473   1.499
70664SOL    HW213832  10.024   0.541   1.500
70665SOL     OW13833   0.578   4.664   9.631
70665SOL    HW113834   0.536   4.647   9.547
70665SOL    HW213835   0.672   4.654   9.614
70666SOL     OW13836   5.780   2.292  12.568
70666SOL    HW113837   5.869   2.297  12.602
70666SOL    HW213838   5.790   2.305  12.473
70667SOL     OW13839   1.205   5.295   1.828
70667SOL    HW113840   1.213   5.390   1.819
70667SOL    HW213841   1.282   5.269   1.878
70668SOL     OW13842   7.055   6.973   2.881
70668SOL    HW113843   7.122   6.926   2.931
70668SOL    HW213844   7.087   6.971   2.790
70669SOL     OW13845   6.035   9.408  10.433
70669SOL    HW113846   5.978   9.340  10.396
70669SOL    HW213847   6.123   9.372  10.427
70670SOL     OW13848   0.565   3.662   3.774
70670SOL    HW113849   0.622   3.709   3.834
70670SOL    HW213850   0.523   3.731   3.722
70671SOL     OW13851   3.384  11.799  14.015
70671SOL    HW113852   3.441  11.747  13.960
70671SOL    HW213853   3.415  11.782  14.104
70672SOL     OW13854  10.680  12.571   3.703
70672SOL    HW113855  10.726  12.509   3.760
70672SOL    HW213856  10.737  12.580   3.626
70673SOL     OW13857  11.404   2.652   5.839
70673SOL    HW113858  11.361   2.723   5.791
70673SOL    HW213859  11.361   2.652   5.925
70674SOL     OW13860   7.910   8.063   4.264
70674SOL    HW113861   7.828   8.103   4.235
70674SOL    HW213862   7.920   8.092   4.355
70675SOL     OW13863  11.339   1.144   0.806
70675SOL    HW113864  11.270   1.100   0.856
70675SOL    HW213865  11.333   1.236   0.835
70676SOL     OW13866  13.567  11.869  10.935
70676SOL    HW113867  13.480  11.904  10.952
70676SOL    HW213868  13.612  11.873  11.020
70677SOL     OW13869  13.057  13.462   4.708
70677SOL    HW113870  13.039  13.540   4.655
70677SOL    HW213871  12.986  13.460   4.773
70678SOL     OW13872   7.506  11.159   0.920
70678SOL    HW113873   7.580  11.102   0.940
70678SOL    HW213874   7.502  11.161   0.824
70679SOL     OW13875   1.244   1.389   5.789
70679SOL    HW113876   1.293   1.446   5.730
70679SOL    HW213877   1.241   1.437   5.872
70680SOL     OW13878   3.037   7.885   6.272
70680SOL    HW113879   2.951   7.923   6.256
70680SOL    HW213880   3.033   7.799   6.230
70681SOL     OW13881   6.793   4.477   1.835
70681SOL    HW113882   6.881   4.503   1.805
70681SOL    HW213883   6.751   4.440   1.757
70682SOL     OW13884   1.510   8.505   0.654
70682SOL    HW113885   1.498   8.600   0.647
70682SOL    HW213886   1.426   8.473   0.686
70683SOL     OW13887  10.881  13.236   9.347
70683SOL    HW113888  10.821  13.169   9.316
70683SOL    HW213889  10.882  13.301   9.276
70684SOL     OW13890   5.131  12.774   0.018
70684SOL    HW113891   5.191  12.827  14.845
70684SOL    HW213892   5.184  12.698   0.044
70685SOL     OW13893   1.518   7.110   9.899
70685SOL    HW113894   1.512   7.192   9.947
70685SOL    HW213895   1.470   7.125   9.818
70686SOL     OW13896   4.539   5.044   6.006
70686SOL    HW113897   4.490   5.101   5.947
70686SOL    HW213898   4.606   5.005   5.950
70687SOL     OW13899   7.396   2.535  13.559
70687SOL    HW113900   7.477   2.561  13.515
70687SOL    HW213901   7.413   2.550  13.652
70688SOL     OW13902   1.658   4.640   8.671
70688SOL    HW113903   1.734   4.672   8.623
70688SOL    HW213904   1.685   4.641   8.763
70689SOL     OW13905   5.374   2.154   7.683
70689SOL    HW113906   5.383   2.223   7.617
70689SOL    HW213907   5.313   2.091   7.643
70690SOL     OW13908  10.907   6.858   8.084
70690SOL    HW113909  10.846   6.918   8.126
70690SOL    HW213910  10.855   6.779   8.067
70691SOL     OW13911   5.263   1.516   5.503
70691SOL    HW113912   5.332   1.472   5.552
70691SOL    HW213913   5.302   1.598   5.475
70692SOL     OW13914   2.471   5.152   6.394
70692SOL    HW113915   2.399   5.181   6.338
70692SOL    HW213916   2.549   5.164   6.339
70693SOL     OW13917   6.854  12.260   2.578
70693SOL    HW113918   6.839  12.277   2.671
70693SOL    HW213919   6.776  12.212   2.550
70694SOL     OW13920   8.479   7.586  13.911
70694SOL    HW113921   8.547   7.644  13.877
70694SOL    HW213922   8.397   7.627  13.885
70695SOL     OW13923   3.707   8.441  13.068
70695SOL    HW113924   3.637   8.430  13.133
70695SOL    HW213925   3.725   8.351  13.038
70696SOL     OW13926   1.638   9.225  10.328
70696SOL    HW113927   1.604   9.135  10.323
70696SOL    HW213928   1.567   9.279  10.293
70697SOL     OW13929   6.308   2.018   6.282
70697SOL    HW113930   6.275   2.073   6.211
70697SOL    HW213931   6.316   1.931   6.243
70698SOL     OW13932   2.000   0.940   9.161
70698SOL    HW113933   2.090   0.954   9.189
70698SOL    HW213934   1.955   1.021   9.184
70699SOL     OW13935  10.861   0.024  10.740
70699SOL    HW113936  10.769   0.011  10.716
70699SOL    HW213937  10.907   0.032  10.656
70700SOL     OW13938   4.258   3.746   7.279
70700SOL    HW113939   4.270   3.835   7.244
70700SOL    HW213940   4.326   3.694   7.236
70701SOL     OW13941  11.561   8.118   6.531
70701SOL    HW113942  11.594   8.070   6.607
70701SOL    HW213943  11.469   8.133   6.550
70702SOL     OW13944   5.425  10.329  10.161
70702SOL    HW113945   5.513  10.310  10.130
70702SOL    HW213946   5.434  10.340  10.256
70703SOL     OW13947   0.019   5.101  12.171
70703SOL    HW113948   0.063   5.083  12.254
70703SOL    HW213949  14.810   5.068  12.183
70704SOL     OW13950  12.872  12.655  11.320
70704SOL    HW113951  12.783  12.677  11.294
70704SOL    HW213952  12.927  12.683  11.247
70705SOL     OW13953   2.299  11.899   1.513
70705SOL    HW113954   2.230  11.832   1.505
70705SOL    HW213955   2.310  11.932   1.424
70706SOL     OW13956   4.064   6.566   7.771
70706SOL    HW113957   3.977   6.567   7.731
70706SOL    HW213958   4.047   6.550   7.864
70707SOL     OW13959  12.510   9.015   3.476
70707SOL    HW113960  12.437   9.070   3.447
70707SOL    HW213961  12.582   9.038   3.418
70708SOL     OW13962   9.212   8.683   1.551
70708SOL    HW113963   9.271   8.647   1.618
70708SOL    HW213964   9.168   8.756   1.595
70709SOL     OW13965  13.204   6.564  10.597
70709SOL    HW113966  13.298   6.578  10.607
70709SOL    HW213967  13.196   6.470  10.579
70710SOL     OW13968  14.307  14.446   5.801
70710SOL    HW113969  14.305  14.529   5.753
70710SOL    HW213970  14.219  14.436   5.837
70711SOL     OW13971  13.247   0.592   3.947
70711SOL    HW113972  13.255   0.498   3.932
70711SOL    HW213973  13.312   0.612   4.015
70712SOL     OW13974  14.675   5.442   4.649
70712SOL    HW113975  14.626   5.363   4.671
70712SOL    HW213976  14.751   5.410   4.601
70713SOL     OW13977   9.054   3.419   0.812
70713SOL    HW113978   8.980   3.369   0.845
70713SOL    HW213979   9.023   3.455   0.728
70714SOL     OW13980   7.243  12.020   0.125
70714SOL    HW113981   7.317  12.077   0.146
70714SOL    HW213982   7.203  12.000   0.210
70715SOL     OW13983  11.568   6.783   3.397
70715SOL    HW113984  11.474   6.785   3.412
70715SOL    HW213985  11.593   6.691   3.410
70716SOL     OW13986   2.555  10.416  11.078
70716SOL    HW113987   2.539  10.384  11.167
70716SOL    HW213988   2.615  10.490  11.090
70717SOL     OW13989   9.721   2.848   1.873
70717SOL    HW113990   9.712   2.870   1.781
70717SOL    HW213991   9.716   2.932   1.919
70718SOL     OW13992   0.066  10.287   4.685
70718SOL    HW113993   0.161  10.281   4.694
70718SOL    HW213994   0.052  10.317   4.595
70719SOL     OW13995   4.453  10.720   3.463
70719SOL    HW113996   4.416  10.732   3.376
70719SOL    HW213997   4.527  10.782   3.466
70720SOL     OW13998   5.674   7.330   9.956
70720SOL    HW113999   5.610   7.291  10.016
70720SOL    HW214000   5.638   7.314   9.868
70721SOL     OW14001   2.066  13.292   6.171
70721SOL    HW114002   1.971  13.302   6.165
70721SOL    HW214003   2.088  13.231   6.099
70722SOL     OW14004   7.219  11.758   4.102
70722SOL    HW114005   7.228  11.664   4.085
70722SOL    HW214006   7.240  11.767   4.195
70723SOL     OW14007   4.634   8.380  10.574
70723SOL    HW114008   4.688   8.327  10.633
70723SOL    HW214009   4.633   8.331  10.492
70724SOL     OW14010   3.599  12.442  12.030
70724SOL    HW114011   3.678  12.449  11.975
70724SOL    HW214012   3.608  12.511  12.095
70725SOL     OW14013  10.084  11.582   7.519
70725SOL    HW114014   9.999  11.588   7.476
70725SOL    HW214015  10.148  11.604   7.451
70726SOL     OW14016  11.707   5.105   5.449
70726SOL    HW114017  11.621   5.147   5.443
70726SOL    HW214018  11.688   5.011   5.451
70727SOL     OW14019   5.603  11.396   9.106
70727SOL    HW114020   5.566  11.461   9.045
70727SOL    HW214021   5.610  11.316   9.054
70728SOL     OW14022   5.576  10.134   1.056
70728SOL    HW114023   5.555  10.212   1.006
70728SOL    HW214024   5.493  10.085   1.060
70729SOL     OW14025   3.759   1.960   0.220
70729SOL    HW114026   3.729   2.038   0.173
70729SOL    HW214027   3.690   1.941   0.283
70730SOL     OW14028   7.271   4.436  12.418
70730SOL    HW114029   7.211   4.364  12.399
70730SOL    HW214030   7.356   4.406  12.384
70731SOL     OW14031   0.894   8.291  12.583
70731SOL    HW114032   0.982   8.305  12.619
70731SOL    HW214033   0.887   8.196  12.574
70732SOL     OW14034  14.137   4.509   1.254
70732SOL    HW114035  14.118   4.430   1.305
70732SOL    HW214036  14.106   4.488   1.166
70733SOL     OW14037   5.521   5.216   6.766
70733SOL    HW114038   5.517   5.247   6.857
70733SOL    HW214039   5.587   5.272   6.725
70734SOL     OW14040   3.767   3.836  13.766
70734SOL    HW114041   3.743   3.823  13.675
70734SOL    HW214042   3.817   3.757  13.789
70735SOL     OW14043   7.890  14.108   1.985
70735SOL    HW114044   7.923  14.180   1.931
70735SOL    HW214045   7.906  14.136   2.075
70736SOL     OW14046   8.724  12.160  10.683
70736SOL    HW114047   8.706  12.139  10.592
70736SOL    HW214048   8.795  12.225  10.679
70737SOL     OW14049   1.411  13.409   8.767
70737SOL    HW114050   1.468  13.485   8.775
70737SOL    HW214051   1.326  13.445   8.743
70738SOL     OW14052   6.475   3.987   8.058
70738SOL    HW114053   6.556   4.010   8.103
70738SOL    HW214054   6.482   4.029   7.972
70739SOL     OW14055  12.978   9.605   9.678
70739SOL    HW114056  13.071   9.629   9.676
70739SOL    HW214057  12.974   9.530   9.738
70740SOL     OW14058   5.434   8.373  14.759
70740SOL    HW114059   5.402   8.398  14.672
70740SOL    HW214060   5.529   8.383  14.753
70741SOL     OW14061   1.725   2.973   2.382
70741SOL    HW114062   1.767   2.920   2.315
70741SOL    HW214063   1.635   2.984   2.353
70742SOL     OW14064   5.876   1.922  11.444
70742SOL    HW114065   5.932   1.886  11.375
70742SOL    HW214066   5.931   1.922  11.522
70743SOL     OW14067  13.941   3.734  12.271
70743SOL    HW114068  13.972   3.665  12.211
70743SOL    HW214069  13.975   3.815  12.233
70744SOL     OW14070   1.000   1.707  12.493
70744SOL    HW114071   1.036   1.646  12.429
70744SOL    HW214072   1.002   1.660  12.576
70745SOL     OW14073  14.736   8.601   5.631
70745SOL    HW114074  14.655   8.583   5.679
70745SOL    HW214075  14.750   8.695   5.641
70746SOL     OW14076   2.513  10.902   8.235
70746SOL    HW114077   2.490  10.871   8.323
70746SOL    HW214078   2.533  10.994   8.246
70747SOL     OW14079   7.978   2.872   8.674
70747SOL    HW114080   7.975   2.867   8.770
70747SOL    HW214081   8.072   2.874   8.654
70748SOL     OW14082  13.929   8.411   6.117
70748SOL    HW114083  13.836   8.434   6.118
70748SOL    HW214084  13.944   8.378   6.029
70749SOL     OW14085  14.611   7.737   6.181
70749SOL    HW114086  14.642   7.825   6.160
70749SOL    HW214087  14.675   7.704   6.244
70750SOL     OW14088   6.479  13.756   9.834
70750SOL    HW114089   6.527  13.753   9.751
70750SOL    HW214090   6.437  13.671   9.841
70751SOL     OW14091   9.427   7.678   2.427
70751SOL    HW114092   9.438   7.613   2.357
70751SOL    HW214093   9.500   7.662   2.486
70752SOL     OW14094   8.347   7.224   0.528
70752SOL    HW114095   8.254   7.237   0.549
70752SOL    HW214096   8.349   7.213   0.433
70753SOL     OW14097   2.954   6.552   2.853
70753SOL    HW114098   2.957   6.645   2.873
70753SOL    HW214099   2.864   6.525   2.874
70754SOL     OW14100  14.446  10.237  13.640
70754SOL    HW114101  14.423  10.227  13.732
70754SOL    HW214102  14.528  10.188  13.631
70755SOL     OW14103  10.612  10.019  13.892
70755SOL    HW114104  10.578  10.109  13.892
70755SOL    HW214105  10.698  10.027  13.933
70756SOL     OW14106  13.050   3.984   8.491
70756SOL    HW114107  13.012   3.918   8.549
70756SOL    HW214108  13.145   3.971   8.500
70757SOL     OW14109   1.650   6.761   1.155
70757SOL    HW114110   1.613   6.746   1.242
70757SOL    HW214111   1.575   6.779   1.100
70758SOL     OW14112  13.197   2.775   3.967
70758SOL    HW114113  13.113   2.761   4.012
70758SOL    HW214114  13.173   2.818   3.885
70759SOL     OW14115  10.576   4.584   2.428
70759SOL    HW114116  10.618   4.670   2.428
70759SOL    HW214117  10.578   4.557   2.336
70760SOL     OW14118  13.324   7.119   9.523
70760SOL    HW114119  13.236   7.109   9.487
70760SOL    HW214120  13.373   7.164   9.455
70761SOL     OW14121   9.240   9.069   0.084
70761SOL    HW114122   9.320   9.017   0.075
70761SOL    HW214123   9.220   9.067   0.177
70762SOL     OW14124   2.573   7.933  11.518
70762SOL    HW114125   2.635   8.001  11.491
70762SOL    HW214126   2.494   7.953  11.468
70763SOL     OW14127   2.337   0.040  14.066
70763SOL    HW114128   2.376   0.073  13.985
70763SOL    HW214129   2.412   0.024  14.124
70764SOL     OW14130   6.051   4.448   6.284
70764SOL    HW114131   6.050   4.514   6.353
70764SOL    HW214132   5.963   4.412   6.285
70765SOL     OW14133   4.381   9.682   4.910
70765SOL    HW114134   4.340   9.597   4.925
70765SOL    HW214135   4.454   9.663   4.850
70766SOL     OW14136   0.187   9.317   2.600
70766SOL    HW114137   0.215   9.228   2.580
70766SOL    HW214138   0.229   9.371   2.533
70767SOL     OW14139   6.670  13.748  12.370
70767SOL    HW114140   6.678  13.670  12.316
70767SOL    HW214141   6.641  13.816  12.310
70768SOL     OW14142  10.643  10.225   9.411
70768SOL    HW114143  10.686  10.299   9.454
70768SOL    HW214144  10.715  10.173   9.375
70769SOL     OW14145   4.120   7.053   7.933
70769SOL    HW114146   4.149   7.143   7.948
70769SOL    HW214147   4.151   7.032   7.845
70770SOL     OW14148   8.761   0.188   6.846
70770SOL    HW114149   8.784   0.097   6.829
70770SOL    HW214150   8.815   0.213   6.921
70771SOL     OW14151   0.408  10.184  11.442
70771SOL    HW114152   0.411  10.106  11.497
70771SOL    HW214153   0.414  10.257  11.503
70772SOL     OW14154   8.214  14.279   7.221
70772SOL    HW114155   8.283  14.345   7.214
70772SOL    HW214156   8.260  14.197   7.239
70773SOL     OW14157   3.365   6.467   2.144
70773SOL    HW114158   3.306   6.428   2.208
70773SOL    HW214159   3.399   6.393   2.094
70774SOL     OW14160   3.218  10.135  14.365
70774SOL    HW114161   3.310  10.149  14.340
70774SOL    HW214162   3.188  10.222  14.392
70775SOL     OW14163  13.639   3.550   1.429
70775SOL    HW114164  13.636   3.462   1.392
70775SOL    HW214165  13.728   3.580   1.414
70776SOL     OW14166   0.213   9.448   3.939
70776SOL    HW114167   0.197   9.355   3.957
70776SOL    HW214168   0.176   9.494   4.014
70777SOL     OW14169   5.706  13.580   5.144
70777SOL    HW114170   5.761  13.570   5.067
70777SOL    HW214171   5.757  13.635   5.203
70778SOL     OW14172   4.413  13.178   3.128
70778SOL    HW114173   4.460  13.261   3.122
70778SOL    HW214174   4.460  13.129   3.196
70779SOL     OW14175  13.532   3.043  13.983
70779SOL    HW114176  13.489   2.963  13.953
70779SOL    HW214177  13.610   3.013  14.029
70780SOL     OW14178   0.672   9.871  12.143
70780SOL    HW114179   0.589   9.868  12.191
70780SOL    HW214180   0.668   9.953  12.094
70781SOL     OW14181   2.544  13.078   3.343
70781SOL    HW114182   2.617  13.047   3.396
70781SOL    HW214183   2.467  13.033   3.380
70782SOL     OW14184   4.376   6.429   8.659
70782SOL    HW114185   4.447   6.487   8.631
70782SOL    HW214186   4.421   6.354   8.698
70783SOL     OW14187   0.449   4.466   6.185
70783SOL    HW114188   0.512   4.438   6.119
70783SOL    HW214189   0.437   4.388   6.241
70784SOL     OW14190   8.201   8.873   4.091
70784SOL    HW114191   8.235   8.924   4.164
70784SOL    HW214192   8.149   8.935   4.040
70785SOL     OW14193   4.872  10.688   8.177
70785SOL    HW114194   4.890  10.746   8.250
70785SOL    HW214195   4.937  10.619   8.184
70786SOL     OW14196   1.259   3.821   5.592
70786SOL    HW114197   1.193   3.872   5.638
70786SOL    HW214198   1.241   3.837   5.499
70787SOL     OW14199   7.427  14.562   8.617
70787SOL    HW114200   7.463  14.565   8.706
70787SOL    HW214201   7.490  14.510   8.567
70788SOL     OW14202   0.373   4.128   5.889
70788SOL    HW114203   0.375   4.166   5.977
70788SOL    HW214204   0.302   4.065   5.891
70789SOL     OW14205  11.285   0.921  12.532
70789SOL    HW114206  11.218   0.941  12.467
70789SOL    HW214207  11.367   0.921  12.482
70790SOL     OW14208   5.981  12.640  10.957
70790SOL    HW114209   6.062  12.595  10.934
70790SOL    HW214210   5.922  12.620  10.884
70791SOL     OW14211  12.507   8.523   6.117
70791SOL    HW114212  12.589   8.557   6.151
70791SOL    HW214213  12.520   8.520   6.022
70792SOL     OW14214  13.563   9.785  14.058
70792SOL    HW114215  13.627   9.825  13.999
70792SOL    HW214216  13.523   9.716  14.006
70793SOL     OW14217   9.816  12.500  11.341
70793SOL    HW114218   9.747  12.514  11.406
70793SOL    HW214219   9.818  12.405  11.328
70794SOL     OW14220   6.353  12.969   5.395
70794SOL    HW114221   6.306  12.965   5.312
70794SOL    HW214222   6.290  13.005   5.457
70795SOL     OW14223  14.422  10.461   7.610
70795SOL    HW114224  14.383  10.382   7.571
70795SOL    HW214225  14.516  10.442   7.613
70796SOL     OW14226   8.075  11.602   5.819
70796SOL    HW114227   8.010  11.647   5.873
70796SOL    HW214228   8.147  11.583   5.880
70797SOL     OW14229   8.638  12.648  13.296
70797SOL    HW114230   8.680  12.694  13.369
70797SOL    HW214231   8.619  12.717  13.232
70798SOL     OW14232   4.568  11.652   4.697
70798SOL    HW114233   4.643  11.608   4.736
70798SOL    HW214234   4.601  11.688   4.614
70799SOL     OW14235   2.823  13.978   1.918
70799SOL    HW114236   2.803  13.925   1.841
70799SOL    HW214237   2.738  14.008   1.949
70800SOL     OW14238   1.237   5.658  10.494
70800SOL    HW114239   1.219   5.749  10.516
70800SOL    HW214240   1.164   5.633  10.436
70801SOL     OW14241   4.068   6.011   9.113
70801SOL    HW114242   4.156   5.976   9.097
70801SOL    HW214243   4.083   6.099   9.147
70802SOL     OW14244  12.715   5.378   0.911
70802SOL    HW114245  12.692   5.442   0.978
70802SOL    HW214246  12.807   5.397   0.891
70803SOL     OW14247   4.273   8.626  12.431
70803SOL    HW114248   4.234   8.682  12.364
70803SOL    HW214249   4.201   8.605  12.490
70804SOL     OW14250   5.252   0.319   0.648
70804SOL    HW114251   5.198   0.287   0.720
70804SOL    HW214252   5.342   0.304   0.676
70805SOL     OW14253   2.869  12.954   7.292
70805SOL    HW114254   2.916  12.891   7.346
70805SOL    HW214255   2.830  12.901   7.222
70806SOL     OW14256  11.027  14.450  12.983
70806SOL    HW114257  11.068  14.433  12.898
70806SOL    HW214258  10.964  14.520  12.964
70807SOL     OW14259   3.401   8.376   0.526
70807SOL    HW114260   3.443   8.376   0.440
70807SOL    HW214261   3.379   8.284   0.541
70808SOL     OW14262   5.793   0.758   8.423
70808SOL    HW114263   5.887   0.777   8.414
70808SOL    HW214264   5.786   0.664   8.404
70809SOL     OW14265   4.715   2.332   2.154
70809SOL    HW114266   4.703   2.427   2.150
70809SOL    HW214267   4.632   2.296   2.125
70810SOL     OW14268   7.652   1.584   2.210
70810SOL    HW114269   7.560   1.610   2.213
70810SOL    HW214270   7.658   1.526   2.134
70811SOL     OW14271  12.214   0.068  10.285
70811SOL    HW114272  12.126   0.035  10.266
70811SOL    HW214273  12.259   0.065  10.201
70812SOL     OW14274  10.896  11.436  12.010
70812SOL    HW114275  10.931  11.525  12.016
70812SOL    HW214276  10.820  11.435  12.068
70813SOL     OW14277   3.300   5.697   2.911
70813SOL    HW114278   3.341   5.648   2.839
70813SOL    HW214279   3.299   5.788   2.879
70814SOL     OW14280   0.877   0.405   0.248
70814SOL    HW114281   0.933   0.329   0.265
70814SOL    HW214282   0.935   0.480   0.256
70815SOL     OW14283  11.660  12.580   8.854
70815SOL    HW114284  11.727  12.578   8.923
70815SOL    HW214285  11.581  12.548   8.896
70816SOL     OW14286   8.791   0.087   7.659
70816SOL    HW114287   8.842   0.152   7.610
70816SOL    HW214288   8.703   0.123   7.663
70817SOL     OW14289   5.544   8.758   8.740
70817SOL    HW114290   5.564   8.664   8.735
70817SOL    HW214291   5.467   8.769   8.685
70818SOL     OW14292   2.791   2.555   9.397
70818SOL    HW114293   2.778   2.588   9.308
70818SOL    HW214294   2.871   2.598   9.427
70819SOL     OW14295   5.052   2.973   9.815
70819SOL    HW114296   4.994   3.020   9.755
70819SOL    HW214297   4.996   2.950   9.889
70820SOL     OW14298   9.840   4.979   7.192
70820SOL    HW114299   9.858   4.886   7.209
70820SOL    HW214300   9.922   5.014   7.158
70821SOL     OW14301   0.016  13.954   9.077
70821SOL    HW114302  14.867  13.931   8.988
70821SOL    HW214303   0.111  13.964   9.069
70822SOL     OW14304   9.998   1.526   1.589
70822SOL    HW114305   9.978   1.615   1.559
70822SOL    HW214306  10.092   1.517   1.577
70823SOL     OW14307   0.365  12.039   9.868
70823SOL    HW114308   0.455  12.048   9.898
70823SOL    HW214309   0.350  11.944   9.866
70824SOL     OW14310   3.704   9.720   4.665
70824SOL    HW114311   3.622   9.686   4.700
70824SOL    HW214312   3.754   9.642   4.642
70825SOL     OW14313   1.988   6.086   3.947
70825SOL    HW114314   1.953   6.007   3.906
70825SOL    HW214315   1.934   6.097   4.026
70826SOL     OW14316   3.957   6.665   5.252
70826SOL    HW114317   3.940   6.738   5.192
70826SOL    HW214318   3.871   6.636   5.280
70827SOL     OW14319   8.324   6.972   2.741
70827SOL    HW114320   8.267   6.906   2.782
70827SOL    HW214321   8.387   6.994   2.809
70828SOL     OW14322  11.252   5.927  12.156
70828SOL    HW114323  11.298   5.964  12.232
70828SOL    HW214324  11.241   6.000  12.096
70829SOL     OW14325   5.210   2.641   9.282
70829SOL    HW114326   5.264   2.720   9.285
70829SOL    HW214327   5.266   2.572   9.317
70830SOL     OW14328  11.366   6.625   0.989
70830SOL    HW114329  11.306   6.551   1.002
70830SOL    HW214330  11.319   6.700   1.026
70831SOL     OW14331   1.882   6.471   5.288
70831SOL    HW114332   1.962   6.431   5.323
70831SOL    HW214333   1.912   6.555   5.251
70832SOL     OW14334  11.098   3.234   1.026
70832SOL    HW114335  11.128   3.308   0.974
70832SOL    HW214336  11.046   3.181   0.966
70833SOL     OW14337   2.991  13.032   5.519
70833SOL    HW114338   2.905  12.995   5.499
70833SOL    HW214339   2.972  13.122   5.545
70834SOL     OW14340   4.059   6.134   5.611
70834SOL    HW114341   4.100   6.181   5.538
70834SOL    HW214342   3.971   6.114   5.579
70835SOL     OW14343   1.864   6.505   4.491
70835SOL    HW114344   1.877   6.479   4.582
70835SOL    HW214345   1.919   6.445   4.441
70836SOL     OW14346   4.701   3.838   9.229
70836SOL    HW114347   4.772   3.784   9.265
70836SOL    HW214348   4.632   3.775   9.210
70837SOL     OW14349   1.498  11.350   3.826
70837SOL    HW114350   1.593  11.340   3.834
70837SOL    HW214351   1.470  11.276   3.773
70838SOL     OW14352  14.550   7.809   8.504
70838SOL    HW114353  14.553   7.775   8.593
70838SOL    HW214354  14.622   7.765   8.459
70839SOL     OW14355   6.634  13.262   0.238
70839SOL    HW114356   6.572  13.192   0.219
70839SOL    HW214357   6.596  13.340   0.199
70840SOL     OW14358   3.583  11.523   7.293
70840SOL    HW114359   3.548  11.465   7.360
70840SOL    HW214360   3.602  11.605   7.339
70841SOL     OW14361  11.319   0.234  10.579
70841SOL    HW114362  11.403   0.188  10.583
70841SOL    HW214363  11.327   0.305  10.642
70842SOL     OW14364   0.167   6.094  13.195
70842SOL    HW114365   0.140   6.058  13.111
70842SOL    HW214366   0.218   6.024  13.236
70843SOL     OW14367   3.727   9.416  14.414
70843SOL    HW114368   3.751   9.454  14.330
70843SOL    HW214369   3.737   9.488  14.477
70844SOL     OW14370   6.461   3.619   2.742
70844SOL    HW114371   6.541   3.614   2.690
70844SOL    HW214372   6.429   3.709   2.728
70845SOL     OW14373   0.847   6.701  13.160
70845SOL    HW114374   0.844   6.789  13.197
70845SOL    HW214375   0.756   6.680  13.139
70846SOL     OW14376  10.561   6.554  12.212
70846SOL    HW114377  10.571   6.573  12.305
70846SOL    HW214378  10.577   6.459  12.205
70847SOL     OW14379  11.616   9.770  10.108
70847SOL    HW114380  11.604   9.761  10.202
70847SOL    HW214381  11.550   9.835  10.081
70848SOL     OW14382   1.602  11.638   4.723
70848SOL    HW114383   1.562  11.683   4.798
70848SOL    HW214384   1.581  11.695   4.649
70849SOL     OW14385  12.106   0.670  12.423
70849SOL    HW114386  12.163   0.646  12.349
70849SOL    HW214387  12.118   0.599  12.485
70850SOL     OW14388   5.083   7.917   8.599
70850SOL    HW114389   5.166   7.905   8.646
70850SOL    HW214390   5.067   7.833   8.556
70851SOL     OW14391  11.852   6.110   8.512
70851SOL    HW114392  11.812   6.062   8.439
70851SOL    HW214393  11.904   6.179   8.470
70852SOL     OW14394  12.329   8.362   4.446
70852SOL    HW114395  12.395   8.315   4.497
70852SOL    HW214396  12.289   8.296   4.390
70853SOL     OW14397   6.612  13.160   4.865
70853SOL    HW114398   6.564  13.106   4.927
70853SOL    HW214399   6.550  13.175   4.794
70854SOL     OW14400   7.310   3.407  14.343
70854SOL    HW114401   7.255   3.328  14.344
70854SOL    HW214402   7.397   3.374  14.320
70855SOL     OW14403   1.062   1.201   5.255
70855SOL    HW114404   0.994   1.170   5.315
70855SOL    HW214405   1.035   1.169   5.169
70856SOL     OW14406   0.425   1.512   6.098
70856SOL    HW114407   0.388   1.461   6.026
70856SOL    HW214408   0.509   1.471   6.116
70857SOL     OW14409   2.961   6.452   9.365
70857SOL    HW114410   2.876   6.456   9.410
70857SOL    HW214411   3.014   6.519   9.409
70858SOL     OW14412  11.359   8.798   3.838
70858SOL    HW114413  11.381   8.760   3.752
70858SOL    HW214414  11.288   8.742   3.871
70859SOL     OW14415  13.363   3.778   0.567
70859SOL    HW114416  13.303   3.761   0.640
70859SOL    HW214417  13.314   3.837   0.509
70860SOL     OW14418  10.475   5.729  14.762
70860SOL    HW114419  10.470   5.761  14.852
70860SOL    HW214420  10.510   5.640  14.770
70861SOL     OW14421   7.056   0.620   3.841
70861SOL    HW114422   7.109   0.640   3.918
70861SOL    HW214423   6.967   0.642   3.868
70862SOL     OW14424   4.941   9.078   8.614
70862SOL    HW114425   4.935   9.158   8.563
70862SOL    HW214426   4.886   9.093   8.691
70863SOL     OW14427  13.167   3.708   8.023
70863SOL    HW114428  13.237   3.753   8.071
70863SOL    HW214429  13.090   3.719   8.078
70864SOL     OW14430   0.542   2.853   1.535
70864SOL    HW114431   0.602   2.808   1.475
70864SOL    HW214432   0.567   2.945   1.528
70865SOL     OW14433   1.542  10.634   6.312
70865SOL    HW114434   1.577  10.676   6.390
70865SOL    HW214435   1.493  10.559   6.346
70866SOL     OW14436   2.512  12.139   4.135
70866SOL    HW114437   2.513  12.074   4.206
70866SOL    HW214438   2.420  12.149   4.113
70867SOL     OW14439   1.423   3.132   1.684
70867SOL    HW114440   1.495   3.107   1.626
70867SOL    HW214441   1.466   3.154   1.767
70868SOL     OW14442  10.211  11.580  13.664
70868SOL    HW114443  10.199  11.580  13.759
70868SOL    HW214444  10.242  11.491  13.644
70869SOL     OW14445  13.306   7.208  13.940
70869SOL    HW114446  13.363   7.170  13.873
70869SOL    HW214447  13.218   7.192  13.908
70870SOL     OW14448   2.025   3.593   6.979
70870SOL    HW114449   2.079   3.599   6.900
70870SOL    HW214450   2.058   3.516   7.025
70871SOL     OW14451   8.558  10.396   8.088
70871SOL    HW114452   8.530  10.453   8.016
70871SOL    HW214453   8.539  10.308   8.058
70872SOL     OW14454   4.146   6.092   7.337
70872SOL    HW114455   4.125   6.050   7.420
70872SOL    HW214456   4.082   6.163   7.330
70873SOL     OW14457   5.963  10.291   9.892
70873SOL    HW114458   5.967  10.211   9.840
70873SOL    HW214459   6.019  10.274   9.968
70874SOL     OW14460  13.491  14.568  14.722
70874SOL    HW114461  13.576  14.542  14.687
70874SOL    HW214462  13.437  14.489  14.718
70875SOL     OW14463  10.495  11.204   2.532
70875SOL    HW114464  10.546  11.253   2.596
70875SOL    HW214465  10.559  11.171   2.470
70876SOL     OW14466  12.281   0.647   1.266
70876SOL    HW114467  12.198   0.599   1.269
70876SOL    HW214468  12.318   0.626   1.181
70877SOL     OW14469  13.919   0.955  12.404
70877SOL    HW114470  13.918   0.999  12.319
70877SOL    HW214471  13.961   0.871  12.387
70878SOL     OW14472   7.674   2.321   0.177
70878SOL    HW114473   7.648   2.413   0.186
70878SOL    HW214474   7.756   2.314   0.226
70879SOL     OW14475   4.561  14.322  14.128
70879SOL    HW114476   4.544  14.309  14.222
70879SOL    HW214477   4.488  14.374  14.097
70880SOL     OW14478   3.077   5.243  13.915
70880SOL    HW114479   3.111   5.235  14.004
70880SOL    HW214480   3.137   5.304  13.871
70881SOL     OW14481  12.669   1.953  11.312
70881SOL    HW114482  12.651   2.016  11.242
70881SOL    HW214483  12.762   1.964  11.331
70882SOL     OW14484   3.017   0.331   1.847
70882SOL    HW114485   2.937   0.333   1.900
70882SOL    HW214486   3.063   0.252   1.877
70883SOL     OW14487   9.745  13.656   1.444
70883SOL    HW114488   9.701  13.656   1.359
70883SOL    HW214489   9.741  13.565   1.473
70884SOL     OW14490  12.897   5.652  13.534
70884SOL    HW114491  12.871   5.743  13.520
70884SOL    HW214492  12.858   5.629  13.619
70885SOL     OW14493   2.677  14.512   9.605
70885SOL    HW114494   2.744  14.535   9.669
70885SOL    HW214495   2.721  14.522   9.520
70886SOL     OW14496  11.104  13.893  14.431
70886SOL    HW114497  11.195  13.921  14.420
70886SOL    HW214498  11.102  13.806  14.391
70887SOL     OW14499   0.751   0.749   5.328
70887SOL    HW114500   0.678   0.738   5.390
70887SOL    HW214501   0.721   0.818   5.269
70888SOL     OW14502  10.841   4.545  10.726
70888SOL    HW114503  10.858   4.637  10.746
70888SOL    HW214504  10.812   4.545  10.635
70889SOL     OW14505  13.842   0.393   7.954
70889SOL    HW114506  13.899   0.330   7.910
70889SOL    HW214507  13.820   0.352   8.037
70890SOL     OW14508  11.839   9.246   2.814
70890SOL    HW114509  11.773   9.190   2.772
70890SOL    HW214510  11.809   9.335   2.796
70891SOL     OW14511  12.987   3.377   8.110
70891SOL    HW114512  12.900   3.337   8.106
70891SOL    HW214513  12.978   3.448   8.174
70892SOL     OW14514   3.340   7.999   8.046
70892SOL    HW114515   3.415   8.036   7.999
70892SOL    HW214516   3.373   7.915   8.081
70893SOL     OW14517   8.213   7.493   8.464
70893SOL    HW114518   8.215   7.586   8.440
70893SOL    HW214519   8.275   7.451   8.403
70894SOL     OW14520  12.697   3.072   6.432
70894SOL    HW114521  12.776   3.033   6.467
70894SOL    HW214522  12.639   3.081   6.507
70895SOL     OW14523  14.082   3.461   4.617
70895SOL    HW114524  14.037   3.391   4.664
70895SOL    HW214525  14.024   3.484   4.545
70896SOL     OW14526  11.854   1.190  12.308
70896SOL    HW114527  11.906   1.126  12.259
70896SOL    HW214528  11.857   1.269  12.254
70897SOL     OW14529   5.748   3.942   5.191
70897SOL    HW114530   5.717   3.855   5.216
70897SOL    HW214531   5.843   3.937   5.199
70898SOL     OW14532   2.915   2.424   2.702
70898SOL    HW114533   2.975   2.350   2.711
70898SOL    HW214534   2.828   2.385   2.708
70899SOL     OW14535   3.882  11.785   9.584
70899SOL    HW114536   3.876  11.880   9.579
70899SOL    HW214537   3.975  11.767   9.603
70900SOL     OW14538   9.200   5.239   9.556
70900SOL    HW114539   9.295   5.251   9.560
70900SOL    HW214540   9.169   5.269   9.641
70901SOL     OW14541   9.793   2.461  13.082
70901SOL    HW114542   9.736   2.519  13.133
70901SOL    HW214543   9.764   2.472  12.992
70902SOL     OW14544   4.280  12.520   2.796
70902SOL    HW114545   4.234  12.590   2.843
70902SOL    HW214546   4.304  12.559   2.713
70903SOL     OW14547  12.347   3.998   0.542
70903SOL    HW114548  12.383   3.984   0.630
70903SOL    HW214549  12.404   3.947   0.485
70904SOL     OW14550  11.737   3.053  13.502
70904SOL    HW114551  11.653   3.025  13.467
70904SOL    HW214552  11.774   2.973  13.541
70905SOL     OW14553   4.887   0.307   2.926
70905SOL    HW114554   4.871   0.288   2.834
70905SOL    HW214555   4.978   0.281   2.941
70906SOL     OW14556  14.539  11.571   1.051
70906SOL    HW114557  14.546  11.662   1.078
70906SOL    HW214558  14.622  11.531   1.076
70907SOL     OW14559   8.517   1.075   2.581
70907SOL    HW114560   8.473   0.993   2.607
70907SOL    HW214561   8.549   1.112   2.663
70908SOL     OW14562   7.974  10.071   4.391
70908SOL    HW114563   7.942  10.119   4.315
70908SOL    HW214564   7.915  10.096   4.462
70909SOL     OW14565   5.419   9.287  13.595
70909SOL    HW114566   5.469   9.358  13.556
70909SOL    HW214567   5.338   9.328  13.625
70910SOL     OW14568   8.963   8.396   7.863
70910SOL    HW114569   9.014   8.402   7.783
70910SOL    HW214570   8.887   8.343   7.839
70911SOL     OW14571   8.504   3.298  12.600
70911SOL    HW114572   8.523   3.382  12.642
70911SOL    HW214573   8.457   3.248  12.666
70912SOL     OW14574  14.854   5.062   5.897
70912SOL    HW114575  14.815   5.138   5.855
70912SOL    HW214576  14.864   5.087   5.989
70913SOL     OW14577   6.361   3.440   4.164
70913SOL    HW114578   6.278   3.397   4.143
70913SOL    HW214579   6.355   3.526   4.124
70914SOL     OW14580  13.693  13.078   7.599
70914SOL    HW114581  13.654  13.063   7.513
70914SOL    HW214582  13.786  13.095   7.581
70915SOL     OW14583  12.822  13.096  14.469
70915SOL    HW114584  12.823  13.134  14.382
70915SOL    HW214585  12.747  13.037  14.468
70916SOL     OW14586   4.289   5.355   5.479
70916SOL    HW114587   4.372   5.379   5.438
70916SOL    HW214588   4.241   5.437   5.487
70917SOL     OW14589  14.843   4.342   8.688
70917SOL    HW114590   0.006   4.427   8.688
70917SOL    HW214591  14.759   4.358   8.646
70918SOL     OW14592   6.246  13.211   2.795
70918SOL    HW114593   6.209  13.299   2.801
70918SOL    HW214594   6.295  13.211   2.713
70919SOL     OW14595   4.228  12.917  13.107
70919SOL    HW114596   4.300  12.888  13.163
70919SOL    HW214597   4.169  12.964  13.166
70920SOL     OW14598   9.877   9.100   8.879
70920SOL    HW114599   9.859   9.008   8.898
70920SOL    HW214600   9.800   9.147   8.913
70921SOL     OW14601   2.590   3.242   0.933
70921SOL    HW114602   2.550   3.329   0.935
70921SOL    HW214603   2.527   3.186   0.978
70922SOL     OW14604  14.850   1.340  13.686
70922SOL    HW114605   0.021   1.382  13.756
70922SOL    HW214606  14.872   1.247  13.693
70923SOL     OW14607   7.145   4.881  13.853
70923SOL    HW114608   7.187   4.798  13.832
70923SOL    HW214609   7.139   4.881  13.949
70924SOL     OW14610   6.746  10.470   2.520
70924SOL    HW114611   6.731  10.465   2.426
70924SOL    HW214612   6.759  10.563   2.538
70925SOL     OW14613   2.817  11.643  11.021
70925SOL    HW114614   2.798  11.626  11.114
70925SOL    HW214615   2.796  11.561  10.977
70926SOL     OW14616  12.896   9.154   4.838
70926SOL    HW114617  12.836   9.090   4.802
70926SOL    HW214618  12.915   9.123   4.927
70927SOL     OW14619  11.465  14.186   5.389
70927SOL    HW114620  11.443  14.186   5.296
70927SOL    HW214621  11.477  14.094   5.411
70928SOL     OW14622   7.888  11.761   6.026
70928SOL    HW114623   7.834  11.760   6.106
70928SOL    HW214624   7.874  11.848   5.989
70929SOL     OW14625   4.849   5.088  12.967
70929SOL    HW114626   4.942   5.107  12.957
70929SOL    HW214627   4.842   4.994  12.947
70930SOL     OW14628   9.353   1.867   1.905
70930SOL    HW114629   9.411   1.827   1.969
70930SOL    HW214630   9.266   1.861   1.943
70931SOL     OW14631  12.603   9.378   8.581
70931SOL    HW114632  12.532   9.422   8.627
70931SOL    HW214633  12.562   9.302   8.540
70932SOL     OW14634   1.667  12.550   1.756
70932SOL    HW114635   1.624  12.490   1.695
70932SOL    HW214636   1.655  12.510   1.842
70933SOL     OW14637   2.189  13.188   9.802
70933SOL    HW114638   2.172  13.242   9.725
70933SOL    HW214639   2.234  13.111   9.767
70934SOL     OW14640   0.714   2.168  12.838
70934SOL    HW114641   0.746   2.181  12.927
70934SOL    HW214642   0.635   2.114  12.848
70935SOL     OW14643  13.060   2.993  14.497
70935SOL    HW114644  13.152   3.017  14.496
70935SOL    HW214645  13.020   3.053  14.560
70936SOL     OW14646  11.530   5.736  11.424
70936SOL    HW114647  11.609   5.682  11.438
70936SOL    HW214648  11.533   5.800  11.495
70937SOL     OW14649   5.116  14.091   1.862
70937SOL    HW114650   5.209  14.113   1.860
70937SOL    HW214651   5.107  14.020   1.798
70938SOL     OW14652  12.146   5.050  13.908
70938SOL    HW114653  12.126   5.014  13.994
70938SOL    HW214654  12.153   5.145  13.922
70939SOL     OW14655   6.050   7.924   6.889
70939SOL    HW114656   6.086   7.965   6.968
70939SOL    HW214657   6.079   7.833   6.893
70940SOL     OW14658   2.272   5.303  13.737
70940SOL    HW114659   2.279   5.272  13.647
70940SOL    HW214660   2.185   5.343  13.742
70941SOL     OW14661   7.127  10.236   1.424
70941SOL    HW114662   7.198  10.190   1.469
70941SOL    HW214663   7.121  10.320   1.469
70942SOL     OW14664   9.341  10.573   6.086
70942SOL    HW114665   9.412  10.527   6.131
70942SOL    HW214666   9.298  10.624   6.155
70943SOL     OW14667   9.937   6.739  11.344
70943SOL    HW114668   9.950   6.772  11.255
70943SOL    HW214669   9.847   6.762  11.366
70944SOL     OW14670   4.223   2.233   2.774
70944SOL    HW114671   4.181   2.237   2.859
70944SOL    HW214672   4.199   2.146   2.739
70945SOL     OW14673   2.371   2.677  13.012
70945SOL    HW114674   2.433   2.674  13.085
70945SOL    HW214675   2.412   2.736  12.948
70946SOL     OW14676   9.622   5.402  10.967
70946SOL    HW114677   9.605   5.389  11.061
70946SOL    HW214678   9.712   5.433  10.963
70947SOL     OW14679  14.630  14.879   6.284
70947SOL    HW114680  14.614   0.092   6.303
70947SOL    HW214681  14.544  14.838   6.294
70948SOL     OW14682  12.856   9.138   2.779
70948SOL    HW114683  12.795   9.112   2.848
70948SOL    HW214684  12.808   9.205   2.730
70949SOL     OW14685   4.355   0.685   7.380
70949SOL    HW114686   4.295   0.757   7.402
70949SOL    HW214687   4.341   0.620   7.449
70950SOL     OW14688  12.022   7.818  12.848
70950SOL    HW114689  12.109   7.858  12.845
70950SOL    HW214690  11.965   7.886  12.886
70951SOL     OW14691   6.272  14.563   4.342
70951SOL    HW114692   6.180  14.548   4.321
70951SOL    HW214693   6.305  14.476   4.364
70952SOL     OW14694   2.490   2.302   6.570
70952SOL    HW114695   2.415   2.295   6.511
70952SOL    HW214696   2.468   2.245   6.643
70953SOL     OW14697   5.922   8.719  14.264
70953SOL    HW114698   6.005   8.690  14.227
70953SOL    HW214699   5.891   8.787  14.203
70954SOL     OW14700  13.182  12.660  11.640
70954SOL    HW114701  13.227  12.706  11.710
70954SOL    HW214702  13.241  12.664  11.565
70955SOL     OW14703  11.859  12.627   6.756
70955SOL    HW114704  11.889  12.649   6.845
70955SOL    HW214705  11.785  12.569   6.770
70956SOL     OW14706  10.170   5.943   0.904
70956SOL    HW114707  10.076   5.955   0.896
70956SOL    HW214708  10.202   6.023   0.946
70957SOL     OW14709   8.944  13.157   8.422
70957SOL    HW114710   8.959  13.241   8.378
70957SOL    HW214711   8.991  13.094   8.368
70958SOL     OW14712   3.150   4.614   9.654
70958SOL    HW114713   3.162   4.690   9.598
70958SOL    HW214714   3.089   4.558   9.605
70959SOL     OW14715  10.880  13.137   3.472
70959SOL    HW114716  10.863  13.194   3.548
70959SOL    HW214717  10.795  13.126   3.431
70960SOL     OW14718   5.359  10.505   9.053
70960SOL    HW114719   5.360  10.601   9.044
70960SOL    HW214720   5.443  10.477   9.018
70961SOL     OW14721   4.750   2.740   3.331
70961SOL    HW114722   4.700   2.818   3.311
70961SOL    HW214723   4.799   2.722   3.251
70962SOL     OW14724  11.866  12.613   4.016
70962SOL    HW114725  11.917  12.691   4.040
70962SOL    HW214726  11.894  12.547   4.079
70963SOL     OW14727   1.659   4.438  14.703
70963SOL    HW114728   1.577   4.450  14.655
70963SOL    HW214729   1.650   4.492  14.782
70964SOL     OW14730  12.777   3.192   8.155
70964SOL    HW114731  12.768   3.112   8.207
70964SOL    HW214732  12.781   3.162   8.064
70965SOL     OW14733   8.531   0.870   8.135
70965SOL    HW114734   8.473   0.906   8.202
70965SOL    HW214735   8.600   0.936   8.125
70966SOL     OW14736   8.151  10.783   5.735
70966SOL    HW114737   8.163  10.708   5.794
70966SOL    HW214738   8.056  10.798   5.734
70967SOL     OW14739  11.730   2.859   5.976
70967SOL    HW114740  11.678   2.914   6.034
70967SOL    HW214741  11.758   2.917   5.906
70968SOL     OW14742  14.827   2.448   6.155
70968SOL    HW114743   0.005   2.524   6.156
70968SOL    HW214744  14.831   2.413   6.244
70969SOL     OW14745  11.177   0.366  14.457
70969SOL    HW114746  11.143   0.277  14.463
70969SOL    HW214747  11.099   0.422  14.459
70970SOL     OW14748  12.952   6.668   6.565
70970SOL    HW114749  13.031   6.720   6.552
70970SOL    HW214750  12.934   6.630   6.479
70971SOL     OW14751  14.017   1.571   1.147
70971SOL    HW114752  14.016   1.661   1.182
70971SOL    HW214753  14.109   1.554   1.129
70972SOL     OW14754   7.876   1.290  13.061
70972SOL    HW114755   7.966   1.302  13.092
70972SOL    HW214756   7.870   1.197  13.042
70973SOL     OW14757   0.807   6.176  12.103
70973SOL    HW114758   0.763   6.179  12.188
70973SOL    HW214759   0.826   6.084  12.089
70974SOL     OW14760   2.189   4.067   5.037
70974SOL    HW114761   2.243   4.145   5.044
70974SOL    HW214762   2.150   4.073   4.950
70975SOL     OW14763   7.573   0.922   3.668
70975SOL    HW114764   7.531   0.839   3.688
70975SOL    HW214765   7.660   0.899   3.636
70976SOL     OW14766   6.657   3.001   6.065
70976SOL    HW114767   6.642   2.980   6.156
70976SOL    HW214768   6.752   3.013   6.058
70977SOL     OW14769   5.993   9.443   0.704
70977SOL    HW114770   5.984   9.476   0.615
70977SOL    HW214771   6.084   9.463   0.728
70978SOL     OW14772  14.115   6.899   8.649
70978SOL    HW114773  14.168   6.975   8.672
70978SOL    HW214774  14.154   6.866   8.567
70979SOL     OW14775   5.729   4.517   0.757
70979SOL    HW114776   5.775   4.437   0.782
70979SOL    HW214777   5.637   4.499   0.777
70980SOL     OW14778  12.700   1.965  13.656
70980SOL    HW114779  12.780   1.998  13.696
70980SOL    HW214780  12.716   1.871  13.643
70981SOL     OW14781   9.708   8.844  13.424
70981SOL    HW114782   9.692   8.819  13.514
70981SOL    HW214783   9.784   8.902  13.428
70982SOL     OW14784   5.395  10.248   3.437
70982SOL    HW114785   5.412  10.279   3.348
70982SOL    HW214786   5.482  10.240   3.476
70983SOL     OW14787   3.579   5.987  11.306
70983SOL    HW114788   3.622   5.902  11.307
70983SOL    HW214789   3.487   5.967  11.325
70984SOL     OW14790  11.655   7.183   2.591
70984SOL    HW114791  11.739   7.206   2.629
70984SOL    HW214792  11.676   7.124   2.519
70985SOL     OW14793   5.091  14.377  13.326
70985SOL    HW114794   5.096  14.311  13.257
70985SOL    HW214795   5.044  14.450  13.286
70986SOL     OW14796   0.566   1.615   8.083
70986SOL    HW114797   0.622   1.585   8.012
70986SOL    HW214798   0.501   1.545   8.094
70987SOL     OW14799   9.972   2.999   7.684
70987SOL    HW114800   9.945   2.994   7.776
70987SOL    HW214801   9.970   2.908   7.654
70988SOL     OW14802   1.690   6.700   4.458
70988SOL    HW114803   1.611   6.671   4.504
70988SOL    HW214804   1.751   6.627   4.466
70989SOL     OW14805   6.377  13.604   2.583
70989SOL    HW114806   6.461  13.559   2.571
70989SOL    HW214807   6.356  13.638   2.495
70990SOL     OW14808  14.334   2.926  10.368
70990SOL    HW114809  14.377   3.011  10.379
70990SOL    HW214810  14.271   2.923  10.440
70991SOL     OW14811  13.706   8.478  13.155
70991SOL    HW114812  13.679   8.391  13.128
70991SOL    HW214813  13.687   8.481  13.249
70992SOL     OW14814   5.103   5.299  10.124
70992SOL    HW114815   5.053   5.342  10.055
70992SOL    HW214816   5.127   5.214  10.087
70993SOL     OW14817  11.681   4.243   5.892
70993SOL    HW114818  11.599   4.292   5.898
70993SOL    HW214819  11.712   4.259   5.803
70994SOL     OW14820   7.529  12.008  12.361
70994SOL    HW114821   7.604  12.012  12.302
70994SOL    HW214822   7.455  11.982  12.305
70995SOL     OW14823   8.570   3.566   7.261
70995SOL    HW114824   8.543   3.533   7.175
70995SOL    HW214825   8.570   3.489   7.317
70996SOL     OW14826   1.849  12.658   4.615
70996SOL    HW114827   1.842  12.654   4.711
70996SOL    HW214828   1.767  12.700   4.587
70997SOL     OW14829  11.141  12.998   3.961
70997SOL    HW114830  11.224  13.043   3.945
70997SOL    HW214831  11.079  13.039   3.901
70998SOL     OW14832   5.680   2.490   1.410
70998SOL    HW114833   5.716   2.484   1.498
70998SOL    HW214834   5.680   2.584   1.390
70999SOL     OW14835   5.408  12.912   7.651
70999SOL    HW114836   5.346  12.882   7.585
70999SOL    HW214837   5.355  12.925   7.729
71000SOL     OW14838   0.179  11.083  11.850
71000SOL    HW114839   0.198  11.003  11.801
71000SOL    HW214840   0.228  11.151  11.804
71001SOL     OW14841  10.064   2.129   8.994
71001SOL    HW114842  10.040   2.051   9.045
71001SOL    HW214843  10.035   2.203   9.047
71002SOL     OW14844  12.213   7.935   8.976
71002SOL    HW114845  12.202   7.902   9.065
71002SOL    HW214846  12.301   7.971   8.973
71003SOL     OW14847  10.176  11.179  14.452
71003SOL    HW114848  10.202  11.115  14.518
71003SOL    HW214849  10.174  11.262  14.498
71004SOL     OW14850   5.820  10.177   9.555
71004SOL    HW114851   5.885  10.164   9.487
71004SOL    HW214852   5.823  10.271   9.573
71005SOL     OW14853   7.971  10.368   9.133
71005SOL    HW114854   7.972  10.463   9.150
71005SOL    HW214855   7.888  10.353   9.088
71006SOL     OW14856   5.427   1.561  14.053
71006SOL    HW114857   5.366   1.633  14.034
71006SOL    HW214858   5.402   1.492  13.991
71007SOL     OW14859  10.194   5.423   7.429
71007SOL    HW114860  10.270   5.369   7.449
71007SOL    HW214861  10.217   5.511   7.458
71008SOL     OW14862   6.184   8.106   5.771
71008SOL    HW114863   6.260   8.136   5.721
71008SOL    HW214864   6.215   8.029   5.818
71009SOL     OW14865  12.892   1.087   8.397
71009SOL    HW114866  12.808   1.125   8.369
71009SOL    HW214867  12.900   1.006   8.346
71010SOL     OW14868   5.820   3.596  10.695
71010SOL    HW114869   5.894   3.637  10.739
71010SOL    HW214870   5.764   3.670  10.670
71011SOL     OW14871   6.980  13.278   4.111
71011SOL    HW114872   7.059  13.319   4.145
71011SOL    HW214873   6.967  13.201   4.166
71012SOL     OW14874   1.845   8.054   7.236
71012SOL    HW114875   1.762   8.049   7.284
71012SOL    HW214876   1.836   7.990   7.166
71013SOL     OW14877  12.175   2.696  13.279
71013SOL    HW114878  12.204   2.654  13.360
71013SOL    HW214879  12.153   2.786  13.305
71014SOL     OW14880   0.970   0.218  14.106
71014SOL    HW114881   1.029   0.188  14.036
71014SOL    HW214882   0.934   0.300  14.073
71015SOL     OW14883  10.228   0.042  10.442
71015SOL    HW114884  10.192   0.082  10.522
71015SOL    HW214885  10.208  14.828  10.451
71016SOL     OW14886   3.642   1.590   6.577
71016SOL    HW114887   3.666   1.683   6.585
71016SOL    HW214888   3.611   1.581   6.487
71017SOL     OW14889  11.554  11.066   1.853
71017SOL    HW114890  11.523  10.977   1.837
71017SOL    HW214891  11.505  11.120   1.790
71018SOL     OW14892   5.263   8.401   4.712
71018SOL    HW114893   5.239   8.342   4.641
71018SOL    HW214894   5.180   8.442   4.738
71019SOL     OW14895   7.280   1.724   2.437
71019SOL    HW114896   7.308   1.799   2.489
71019SOL    HW214897   7.196   1.750   2.400
71020SOL     OW14898   1.081   5.341   7.914
71020SOL    HW114899   1.062   5.394   7.837
71020SOL    HW214900   1.114   5.403   7.979
71021SOL     OW14901  14.149   8.450   7.842
71021SOL    HW114902  14.097   8.434   7.921
71021SOL    HW214903  14.163   8.545   7.842
71022SOL     OW14904  14.364   4.285   8.230
71022SOL    HW114905  14.349   4.331   8.148
71022SOL    HW214906  14.277   4.257   8.258
71023SOL     OW14907   7.374   2.014   4.509
71023SOL    HW114908   7.350   2.083   4.448
71023SOL    HW214909   7.409   2.060   4.585
71024SOL     OW14910   0.442  14.450   6.011
71024SOL    HW114911   0.359  14.498   6.013
71024SOL    HW214912   0.503  14.511   5.970
71025SOL     OW14913  11.825   7.776   7.990
71025SOL    HW114914  11.912   7.738   8.007
71025SOL    HW214915  11.839   7.870   7.994
71026SOL     OW14916   9.663  12.254  11.554
71026SOL    HW114917   9.625  12.337  11.581
71026SOL    HW214918   9.757  12.270  11.552
71027SOL     OW14919   3.964  14.842   6.787
71027SOL    HW114920   3.968   0.002   6.874
71027SOL    HW214921   4.046  14.867   6.745
71028SOL     OW14922   9.753   6.965   8.147
71028SOL    HW114923   9.729   6.998   8.234
71028SOL    HW214924   9.743   6.870   8.154
71029SOL     OW14925  14.538   2.040  12.104
71029SOL    HW114926  14.593   1.969  12.070
71029SOL    HW214927  14.530   2.021  12.197
71030SOL     OW14928  14.228  12.581  12.375
71030SOL    HW114929  14.193  12.666  12.403
71030SOL    HW214930  14.244  12.592  12.281
71031SOL     OW14931   4.160   0.512  11.184
71031SOL    HW114932   4.219   0.572  11.230
71031SOL    HW214933   4.078   0.560  11.177
71032SOL     OW14934   3.811   3.636   7.877
71032SOL    HW114935   3.893   3.654   7.922
71032SOL    HW214936   3.745   3.636   7.946
71033SOL     OW14937   6.116   7.870  10.073
71033SOL    HW114938   6.108   7.959  10.039
71033SOL    HW214939   6.099   7.878  10.167
71034SOL     OW14940   5.692   1.815   9.179
71034SOL    HW114941   5.653   1.818   9.267
71034SOL    HW214942   5.697   1.907   9.153
71035SOL     OW14943   1.577   7.536   5.778
71035SOL    HW114944   1.615   7.490   5.853
71035SOL    HW214945   1.501   7.483   5.753
71036SOL     OW14946   5.902  14.474   1.514
71036SOL    HW114947   5.974  14.538   1.511
71036SOL    HW214948   5.937  14.397   1.470
71037SOL     OW14949   6.856   9.750   7.296
71037SOL    HW114950   6.850   9.758   7.391
71037SOL    HW214951   6.779   9.797   7.263
71038SOL     OW14952   4.914  11.585   1.359
71038SOL    HW114953   4.821  11.575   1.382
71038SOL    HW214954   4.917  11.663   1.304
71039SOL     OW14955   1.936  12.213   3.292
71039SOL    HW114956   1.846  12.244   3.279
71039SOL    HW214957   1.985  12.293   3.312
71040SOL     OW14958   4.806   4.863  11.121
71040SOL    HW114959   4.747   4.809  11.069
71040SOL    HW214960   4.815   4.944  11.070
71041SOL     OW14961   4.154   2.834  12.692
71041SOL    HW114962   4.114   2.758  12.734
71041SOL    HW214963   4.248   2.819  12.700
71042SOL     OW14964   4.515  11.086   8.897
71042SOL    HW114965   4.602  11.048   8.885
71042SOL    HW214966   4.524  11.176   8.864
71043SOL     OW14967   9.385   1.200   0.683
71043SOL    HW114968   9.469   1.206   0.728
71043SOL    HW214969   9.400   1.242   0.599
71044SOL     OW14970   6.355   1.119   6.750
71044SOL    HW114971   6.437   1.071   6.745
71044SOL    HW214972   6.372   1.202   6.705
71045SOL     OW14973   7.811   3.358   6.961
71045SOL    HW114974   7.861   3.314   6.892
71045SOL    HW214975   7.745   3.408   6.914
71046SOL     OW14976  10.153   6.853   4.948
71046SOL    HW114977  10.156   6.947   4.966
71046SOL    HW214978  10.177   6.846   4.856
71047SOL     OW14979  10.906   5.587   5.239
71047SOL    HW114980  10.925   5.497   5.212
71047SOL    HW214981  10.989   5.633   5.232
71048SOL     OW14982  11.186   1.454   8.194
71048SOL    HW114983  11.156   1.485   8.280
71048SOL    HW214984  11.134   1.505   8.132
71049SOL     OW14985   7.131   6.415   7.319
71049SOL    HW114986   7.159   6.507   7.315
71049SOL    HW214987   7.067   6.413   7.390
71050SOL     OW14988   4.547   1.013   4.728
71050SOL    HW114989   4.563   1.063   4.648
71050SOL    HW214990   4.583   0.926   4.709
71051SOL     OW14991   4.766   5.270   6.606
71051SOL    HW114992   4.752   5.360   6.636
71051SOL    HW214993   4.800   5.280   6.517
71052SOL     OW14994   2.359   4.271   4.113
71052SOL    HW114995   2.414   4.193   4.109
71052SOL    HW214996   2.333   4.287   4.022
71053SOL     OW14997  14.608   1.026  13.667
71053SOL    HW114998  14.513   1.018  13.666
71053SOL    HW214999  14.631   1.053  13.578
71054SOL     OW15000  11.221   6.951  10.022
71054SOL    HW115001  11.143   6.899  10.041
71054SOL    HW215002  11.252   6.916   9.938
71055SOL     OW15003   8.512   0.112  13.897
71055SOL    HW115004   8.538   0.022  13.879
71055SOL    HW215005   8.505   0.117  13.992
71056SOL     OW15006   4.880   8.885   0.736
71056SOL    HW115007   4.876   8.936   0.656
71056SOL    HW215008   4.805   8.825   0.731
71057SOL     OW15009   5.723   0.650   9.371
71057SOL    HW115010   5.636   0.669   9.406
71057SOL    HW215011   5.756   0.735   9.342
71058SOL     OW15012   1.690  14.770  14.196
71058SOL    HW115013   1.608  14.811  14.169
71058SOL    HW215014   1.680  14.678  14.174
71059SOL     OW15015   0.599  10.480   0.764
71059SOL    HW115016   0.646  10.563   0.760
71059SOL    HW215017   0.519  10.494   0.714
71060SOL     OW15018   6.274   6.151   4.957
71060SOL    HW115019   6.347   6.139   5.017
71060SOL    HW215020   6.264   6.246   4.948
71061SOL     OW15021   9.623   9.312  12.681
71061SOL    HW115022   9.662   9.389  12.639
71061SOL    HW215023   9.619   9.335  12.774
71062SOL     OW15024   8.370   5.614   6.812
71062SOL    HW115025   8.378   5.593   6.719
71062SOL    HW215026   8.326   5.699   6.814
71063SOL     OW15027   8.396   4.495  13.815
71063SOL    HW115028   8.312   4.457  13.789
71063SOL    HW215029   8.421   4.552  13.742
71064SOL     OW15030   2.798  11.210   0.059
71064SOL    HW115031   2.854  11.284   0.083
71064SOL    HW215032   2.844  11.133   0.092
71065SOL     OW15033   5.184  12.781   9.688
71065SOL    HW115034   5.152  12.864   9.721
71065SOL    HW215035   5.200  12.796   9.595
71066SOL     OW15036  12.433  12.761   9.082
71066SOL    HW115037  12.500  12.695   9.101
71066SOL    HW215038  12.383  12.725   9.009
71067SOL     OW15039   1.275   6.698   3.400
71067SOL    HW115040   1.304   6.697   3.491
71067SOL    HW215041   1.353   6.673   3.350
71068SOL     OW15042   2.452   2.118   4.047
71068SOL    HW115043   2.543   2.123   4.077
71068SOL    HW215044   2.447   2.184   3.977
71069SOL     OW15045   7.912  10.112   9.463
71069SOL    HW115046   7.864  10.144   9.386
71069SOL    HW215047   7.843  10.094   9.528
71070SOL     OW15048   0.789   4.927   4.215
71070SOL    HW115049   0.724   4.860   4.197
71070SOL    HW215050   0.834   4.941   4.131
71071SOL     OW15051   5.579   0.343  11.339
71071SOL    HW115052   5.554   0.265  11.289
71071SOL    HW215053   5.513   0.408  11.315
71072SOL     OW15054   3.722   7.533  14.032
71072SOL    HW115055   3.792   7.469  14.032
71072SOL    HW215056   3.750   7.599  13.968
71073SOL     OW15057  12.661   8.437  12.851
71073SOL    HW115058  12.679   8.444  12.945
71073SOL    HW215059  12.634   8.525  12.825
71074SOL     OW15060   9.141   5.415   9.334
71074SOL    HW115061   9.157   5.363   9.255
71074SOL    HW215062   9.155   5.353   9.406
71075SOL     OW15063   4.609   0.707  10.479
71075SOL    HW115064   4.635   0.616  10.492
71075SOL    HW215065   4.638   0.751  10.559
71076SOL     OW15066   1.039  10.711   0.656
71076SOL    HW115067   1.068  10.747   0.572
71076SOL    HW215068   1.016  10.788   0.708
71077SOL     OW15069   2.511   4.129   1.251
71077SOL    HW115070   2.445   4.169   1.195
71077SOL    HW215071   2.494   4.035   1.245
71078SOL     OW15072  12.958   0.888   1.171
71078SOL    HW115073  13.048   0.904   1.143
71078SOL    HW215074  12.957   0.915   1.263
71079SOL     OW15075   7.328   6.642   9.230
71079SOL    HW115076   7.315   6.686   9.146
71079SOL    HW215077   7.330   6.549   9.209
71080SOL     OW15078   3.056   1.307   0.655
71080SOL    HW115079   2.996   1.260   0.596
71080SOL    HW215080   3.130   1.247   0.665
71081SOL     OW15081   2.700   8.905   3.487
71081SOL    HW115082   2.698   9.001   3.481
71081SOL    HW215083   2.756   8.878   3.414
71082SOL     OW15084   8.471   7.781  11.258
71082SOL    HW115085   8.425   7.733  11.189
71082SOL    HW215086   8.561   7.785  11.228
71083SOL     OW15087   6.767   6.317   0.715
71083SOL    HW115088   6.832   6.266   0.667
71083SOL    HW215089   6.711   6.356   0.647
71084SOL     OW15090  14.185  10.342  13.009
71084SOL    HW115091  14.124  10.315  12.941
71084SOL    HW215092  14.151  10.425  13.041
71085SOL     OW15093  11.599   1.084   4.031
71085SOL    HW115094  11.556   1.056   4.112
71085SOL    HW215095  11.655   1.011   4.007
71086SOL     OW15096   5.268   1.761   3.394
71086SOL    HW115097   5.252   1.757   3.300
71086SOL    HW215098   5.357   1.794   3.403
71087SOL     OW15099   3.505   8.099   9.792
71087SOL    HW115100   3.597   8.091   9.819
71087SOL    HW215101   3.503   8.180   9.740
71088SOL     OW15102   2.710   1.430  10.511
71088SOL    HW115103   2.784   1.384  10.550
71088SOL    HW215104   2.687   1.377  10.434
71089SOL     OW15105  12.117  12.304   1.082
71089SOL    HW115106  12.144  12.320   0.992
71089SOL    HW215107  12.198  12.281   1.128
71090SOL     OW15108   2.856   5.653   2.725
71090SOL    HW115109   2.779   5.629   2.777
71090SOL    HW215110   2.826   5.725   2.670
71091SOL     OW15111   7.323  13.487   5.668
71091SOL    HW115112   7.335  13.398   5.634
71091SOL    HW215113   7.239  13.484   5.713
71092SOL     OW15114   0.298  13.940   1.611
71092SOL    HW115115   0.358  14.000   1.655
71092SOL    HW215116   0.227  13.927   1.674
71093SOL     OW15117  12.262   3.391  10.592
71093SOL    HW115118  12.216   3.360  10.514
71093SOL    HW215119  12.217   3.472  10.616
71094SOL     OW15120   4.198   7.359   3.868
71094SOL    HW115121   4.145   7.283   3.845
71094SOL    HW215122   4.269   7.359   3.804
71095SOL     OW15123   0.901   2.116  12.467
71095SOL    HW115124   0.926   2.087  12.555
71095SOL    HW215125   0.984   2.143  12.427
71096SOL     OW15126   7.048   5.312  10.270
71096SOL    HW115127   6.976   5.251  10.261
71096SOL    HW215128   7.109   5.269  10.330
71097SOL     OW15129   8.883   9.153   1.240
71097SOL    HW115130   8.797   9.192   1.224
71097SOL    HW215131   8.871   9.098   1.317
71098SOL     OW15132  10.313   1.689   1.899
71098SOL    HW115133  10.317   1.764   1.839
71098SOL    HW215134  10.263   1.722   1.974
71099SOL     OW15135  10.868  13.314   2.320
71099SOL    HW115136  10.868  13.397   2.369
71099SOL    HW215137  10.819  13.333   2.241
71100SOL     OW15138   2.581  14.458  10.543
71100SOL    HW115139   2.502  14.405  10.529
71100SOL    HW215140   2.572  14.491  10.632
71101SOL     OW15141  11.402   6.981   6.021
71101SOL    HW115142  11.445   6.948   5.942
71101SOL    HW215143  11.417   7.075   6.019
71102SOL     OW15144   4.226   1.931   4.466
71102SOL    HW115145   4.288   1.864   4.495
71102SOL    HW215146   4.268   2.014   4.490
71103SOL     OW15147   2.455   9.720   9.475
71103SOL    HW115148   2.486   9.796   9.426
71103SOL    HW215149   2.413   9.758   9.553
71104SOL     OW15150  12.892  10.283   2.918
71104SOL    HW115151  12.986  10.282   2.902
71104SOL    HW215152  12.876  10.363   2.968
71105SOL     OW15153   9.660  14.445  13.525
71105SOL    HW115154   9.612  14.518  13.485
71105SOL    HW215155   9.605  14.369  13.511
71106SOL     OW15156   8.952  14.398   8.700
71106SOL    HW115157   8.875  14.423   8.752
71106SOL    HW215158   8.952  14.302   8.702
71107SOL     OW15159   5.576   4.143   6.008
71107SOL    HW115160   5.645   4.193   6.052
71107SOL    HW215161   5.528   4.208   5.958
71108SOL     OW15162   4.860  10.792   0.646
71108SOL    HW115163   4.815  10.838   0.717
71108SOL    HW215164   4.867  10.856   0.576
71109SOL     OW15165  12.229  12.448  13.268
71109SOL    HW115166  12.227  12.499  13.187
71109SOL    HW215167  12.169  12.493  13.327
71110SOL     OW15168   7.241   3.720   9.428
71110SOL    HW115169   7.325   3.715   9.383
71110SOL    HW215170   7.240   3.808   9.467
71111SOL     OW15171  10.382  12.677  10.493
71111SOL    HW115172  10.446  12.697  10.561
71111SOL    HW215173  10.363  12.762  10.452
71112SOL     OW15174   3.550  12.017  10.538
71112SOL    HW115175   3.585  12.104  10.517
71112SOL    HW215176   3.537  11.976  10.453
71113SOL     OW15177  11.164   9.317  11.524
71113SOL    HW115178  11.099   9.261  11.567
71113SOL    HW215179  11.195   9.375  11.592
71114SOL     OW15180  12.769   6.857  11.809
71114SOL    HW115181  12.803   6.873  11.721
71114SOL    HW215182  12.676   6.877  11.803
71115SOL     OW15183  13.582   6.166   8.938
71115SOL    HW115184  13.666   6.174   8.984
71115SOL    HW215185  13.516   6.185   9.004
71116SOL     OW15186   5.403   7.551   8.442
71116SOL    HW115187   5.433   7.639   8.416
71116SOL    HW215188   5.394   7.504   8.359
71117SOL     OW15189   6.505   0.362   0.646
71117SOL    HW115190   6.594   0.335   0.671
71117SOL    HW215191   6.515   0.401   0.559
71118SOL     OW15192  11.539   2.664   9.431
71118SOL    HW115193  11.472   2.711   9.382
71118SOL    HW215194  11.615   2.663   9.373
71119SOL     OW15195  14.370  14.096   1.065
71119SOL    HW115196  14.353  14.187   1.089
71119SOL    HW215197  14.315  14.081   0.988
71120SOL     OW15198  11.258  13.427   0.664
71120SOL    HW115199  11.174  13.381   0.663
71120SOL    HW215200  11.262  13.471   0.579
71121SOL     OW15201   1.206   7.430  12.420
71121SOL    HW115202   1.150   7.408  12.495
71121SOL    HW215203   1.150   7.416  12.344
71122SOL     OW15204   7.116   8.003   7.708
71122SOL    HW115205   7.118   7.972   7.617
71122SOL    HW215206   7.177   8.077   7.710
71123SOL     OW15207  13.506   5.182   5.829
71123SOL    HW115208  13.472   5.192   5.918
71123SOL    HW215209  13.457   5.107   5.794
71124SOL     OW15210   7.199  10.290   6.367
71124SOL    HW115211   7.163  10.343   6.297
71124SOL    HW215212   7.272  10.341   6.401
71125SOL     OW15213   1.682   5.531  11.994
71125SOL    HW115214   1.616   5.543  11.926
71125SOL    HW215215   1.713   5.441  11.981
71126SOL     OW15216   1.602   3.592   7.735
71126SOL    HW115217   1.663   3.539   7.685
71126SOL    HW215218   1.580   3.539   7.812
71127SOL     OW15219   7.471  11.439  14.101
71127SOL    HW115220   7.439  11.437  14.192
71127SOL    HW215221   7.564  11.461  14.109
71128SOL     OW15222   8.259   2.596   3.878
71128SOL    HW115223   8.272   2.635   3.964
71128SOL    HW215224   8.187   2.534   3.890
71129SOL     OW15225  12.939   3.098   9.896
71129SOL    HW115226  13.033   3.079   9.901
71129SOL    HW215227  12.931   3.156   9.820
71130SOL     OW15228   4.008   3.039  10.164
71130SOL    HW115229   4.101   3.021  10.177
71130SOL    HW215230   4.006   3.130  10.134
71131SOL     OW15231   0.187  12.178   3.767
71131SOL    HW115232   0.102  12.220   3.776
71131SOL    HW215233   0.193  12.119   3.842
71132SOL     OW15234   4.017   3.555   4.431
71132SOL    HW115235   4.095   3.503   4.448
71132SOL    HW215236   4.006   3.609   4.509
71133SOL     OW15237   3.585   9.905   4.528
71133SOL    HW115238   3.653   9.847   4.562
71133SOL    HW215239   3.508   9.849   4.518
71134SOL     OW15240  13.274  11.862   4.708
71134SOL    HW115241  13.315  11.868   4.794
71134SOL    HW215242  13.205  11.796   4.718
71135SOL     OW15243   7.653   6.398   5.661
71135SOL    HW115244   7.736   6.381   5.615
71135SOL    HW215245   7.652   6.493   5.675
71136SOL     OW15246   7.524   1.977   1.313
71136SOL    HW115247   7.459   1.916   1.348
71136SOL    HW215248   7.581   1.996   1.387
71137SOL     OW15249  12.404   0.863   5.094
71137SOL    HW115250  12.358   0.786   5.062
71137SOL    HW215251  12.460   0.830   5.165
71138SOL     OW15252   7.664  14.100   7.648
71138SOL    HW115253   7.605  14.158   7.600
71138SOL    HW215254   7.646  14.119   7.740
71139SOL     OW15255  11.401   9.603  10.040
71139SOL    HW115256  11.436   9.521  10.075
71139SOL    HW215257  11.478   9.660  10.033
71140SOL     OW15258  12.141   5.788   5.052
71140SOL    HW115259  12.173   5.755   5.136
71140SOL    HW215260  12.217   5.832   5.014
71141SOL     OW15261  14.654   7.686  10.602
71141SOL    HW115262  14.596   7.746  10.554
71141SOL    HW215263  14.595   7.620  10.639
71142SOL     OW15264   4.182   0.477   9.959
71142SOL    HW115265   4.260   0.424   9.946
71142SOL    HW215266   4.211   0.550  10.014
71143SOL     OW15267  10.578   3.380  13.880
71143SOL    HW115268  10.630   3.430  13.818
71143SOL    HW215269  10.508   3.342  13.826
71144SOL     OW15270   1.252   1.867   1.076
71144SOL    HW115271   1.331   1.874   1.129
71144SOL    HW215272   1.183   1.903   1.131
71145SOL     OW15273   2.656   9.078   9.954
71145SOL    HW115274   2.732   9.119   9.996
71145SOL    HW215275   2.690   8.995   9.920
71146SOL     OW15276   0.302  13.017  13.744
71146SOL    HW115277   0.322  12.932  13.784
71146SOL    HW215278   0.324  13.005  13.651
71147SOL     OW15279   7.075   5.502   8.130
71147SOL    HW115280   7.080   5.406   8.123
71147SOL    HW215281   7.050   5.517   8.221
71148SOL     OW15282   2.373  13.304   6.636
71148SOL    HW115283   2.361  13.283   6.543
71148SOL    HW215284   2.464  13.279   6.654
71149SOL     OW15285  14.749   5.876  11.501
71149SOL    HW115286  14.734   5.782  11.513
71149SOL    HW215287  14.661   5.914  11.494
71150SOL     OW15288   3.457   5.212   4.850
71150SOL    HW115289   3.512   5.224   4.772
71150SOL    HW215290   3.488   5.279   4.911
71151SOL     OW15291   8.202  12.863  13.957
71151SOL    HW115292   8.193  12.779  13.912
71151SOL    HW215293   8.142  12.921  13.911
71152SOL     OW15294  11.593   5.207  13.844
71152SOL    HW115295  11.623   5.118  13.823
71152SOL    HW215296  11.499   5.204  13.829
71153SOL     OW15297   6.339  12.800   8.239
71153SOL    HW115298   6.250  12.810   8.274
71153SOL    HW215299   6.396  12.827   8.311
71154SOL     OW15300   6.962  10.749  14.552
71154SOL    HW115301   7.038  10.702  14.585
71154SOL    HW215302   6.955  10.722  14.460
71155SOL     OW15303   8.380  14.289   5.568
71155SOL    HW115304   8.328  14.231   5.513
71155SOL    HW215305   8.471  14.265   5.550
71156SOL     OW15306   4.743  12.592   7.663
71156SOL    HW115307   4.797  12.526   7.620
71156SOL    HW215308   4.660  12.548   7.680
71157SOL     OW15309  13.779  11.868  12.803
71157SOL    HW115310  13.834  11.808  12.753
71157SOL    HW215311  13.809  11.859  12.893
71158SOL     OW15312   1.764  10.043   5.514
71158SOL    HW115313   1.739   9.969   5.568
71158SOL    HW215314   1.746  10.014   5.424
71159SOL     OW15315   2.214   9.321   5.389
71159SOL    HW115316   2.151   9.307   5.459
71159SOL    HW215317   2.275   9.248   5.397
71160SOL     OW15318  14.336   5.804   7.994
71160SOL    HW115319  14.246   5.838   7.999
71160SOL    HW215320  14.354   5.799   7.900
71161SOL     OW15321   7.259  13.298   6.535
71161SOL    HW115322   7.314  13.317   6.611
71161SOL    HW215323   7.245  13.384   6.495
71162SOL     OW15324  12.637  14.310   3.655
71162SOL    HW115325  12.583  14.275   3.726
71162SOL    HW215326  12.605  14.400   3.643
71163SOL     OW15327   0.157  14.724   6.215
71163SOL    HW115328   0.227  14.740   6.151
71163SOL    HW215329   0.099  14.662   6.172
71164SOL     OW15330   5.851   3.189   0.651
71164SOL    HW115331   5.792   3.255   0.687
71164SOL    HW215332   5.878   3.137   0.727
71165SOL     OW15333  10.172   4.429   6.583
71165SOL    HW115334  10.214   4.408   6.667
71165SOL    HW215335  10.080   4.404   6.595
71166SOL     OW15336  13.187  12.989   2.107
71166SOL    HW115337  13.116  12.972   2.170
71166SOL    HW215338  13.234  12.906   2.101
71167SOL     OW15339   8.671   4.143   7.229
71167SOL    HW115340   8.674   4.231   7.191
71167SOL    HW215341   8.637   4.088   7.158
71168SOL     OW15342   8.769   5.437   1.551
71168SOL    HW115343   8.858   5.402   1.562
71168SOL    HW215344   8.761   5.453   1.457
71169SOL     OW15345  14.869   8.257   0.756
71169SOL    HW115346   0.059   8.308   0.797
71169SOL    HW215347   0.022   8.167   0.758
71170SOL     OW15348   4.589   0.593  10.212
71170SOL    HW115349   4.589   0.659  10.281
71170SOL    HW215350   4.504   0.550  10.220
71171SOL     OW15351  12.980   2.026   3.583
71171SOL    HW115352  12.984   2.056   3.493
71171SOL    HW215353  12.921   2.087   3.627
71172SOL     OW15354  10.161   5.820   5.419
71172SOL    HW115355  10.124   5.807   5.332
71172SOL    HW215356  10.122   5.902   5.449
71173SOL     OW15357   0.055  13.847   7.385
71173SOL    HW115358  14.841  13.847   7.406
71173SOL    HW215359   0.098  13.816   7.465
71174SOL     OW15360   5.954   3.615   7.699
71174SOL    HW115361   5.924   3.620   7.790
71174SOL    HW215362   6.047   3.639   7.703
71175SOL     OW15363   6.542   7.109  13.396
71175SOL    HW115364   6.619   7.069  13.435
71175SOL    HW215365   6.490   7.139  13.470
71176SOL     OW15366   0.390   2.712  13.758
71176SOL    HW115367   0.306   2.666  13.758
71176SOL    HW215368   0.439   2.670  13.829
71177SOL     OW15369   8.296  11.036   0.929
71177SOL    HW115370   8.245  10.958   0.906
71177SOL    HW215371   8.384  11.003   0.947
71178SOL     OW15372   8.612   0.364   6.315
71178SOL    HW115373   8.635   0.440   6.368
71178SOL    HW215374   8.662   0.292   6.353
71179SOL     OW15375   5.566   8.559   5.733
71179SOL    HW115376   5.591   8.518   5.816
71179SOL    HW215377   5.623   8.636   5.727
71180SOL     OW15378   5.507  10.724   8.991
71180SOL    HW115379   5.589  10.769   8.969
71180SOL    HW215380   5.463  10.713   8.907
71181SOL     OW15381   7.912   8.932   0.102
71181SOL    HW115382   7.834   8.880   0.086
71181SOL    HW215383   7.906   9.004   0.039
71182SOL     OW15384   8.503   2.414   1.463
71182SOL    HW115385   8.460   2.449   1.541
71182SOL    HW215386   8.519   2.322   1.484
71183SOL     OW15387  13.608   7.967  12.796
71183SOL    HW115388  13.673   7.941  12.861
71183SOL    HW215389  13.646   7.942  12.712
71184SOL     OW15390   4.257   1.374   2.869
71184SOL    HW115391   4.291   1.286   2.860
71184SOL    HW215392   4.267   1.394   2.963
71185SOL     OW15393   6.720   9.492   2.090
71185SOL    HW115394   6.644   9.550   2.095
71185SOL    HW215395   6.719   9.444   2.172
71186SOL     OW15396   2.554  14.483  12.999
71186SOL    HW115397   2.543  14.575  13.022
71186SOL    HW215398   2.481  14.438  13.043
71187SOL     OW15399   9.375   8.849  12.221
71187SOL    HW115400   9.282   8.868  12.231
71187SOL    HW215401   9.417   8.899  12.291
71188SOL     OW15402   9.842  13.463   9.835
71188SOL    HW115403   9.762  13.415   9.857
71188SOL    HW215404   9.824  13.503   9.750
71189SOL     OW15405   9.780   4.038  10.613
71189SOL    HW115406   9.778   4.133  10.625
71189SOL    HW215407   9.730   4.023  10.533
71190SOL     OW15408   3.034   9.839  11.451
71190SOL    HW115409   3.081   9.842  11.534
71190SOL    HW215410   3.090   9.786  11.394
71191SOL     OW15411   6.347  14.337  14.583
71191SOL    HW115412   6.295  14.294  14.651
71191SOL    HW215413   6.398  14.267  14.543
71192SOL     OW15414  12.121  13.925   6.457
71192SOL    HW115415  12.121  13.858   6.526
71192SOL    HW215416  12.213  13.939   6.439
71193SOL     OW15417   0.688   4.155   6.276
71193SOL    HW115418   0.638   4.123   6.201
71193SOL    HW215419   0.720   4.076   6.320
71194SOL     OW15420   6.886   3.569   2.459
71194SOL    HW115421   6.973   3.531   2.464
71194SOL    HW215422   6.863   3.589   2.550
71195SOL     OW15423   0.531   1.577   1.867
71195SOL    HW115424   0.520   1.495   1.915
71195SOL    HW215425   0.593   1.556   1.798
71196SOL     OW15426   8.682  14.022   5.352
71196SOL    HW115427   8.609  13.966   5.325
71196SOL    HW215428   8.729  14.040   5.271
71197SOL     OW15429   9.826  10.766   0.597
71197SOL    HW115430   9.899  10.716   0.561
71197SOL    HW215431   9.763  10.700   0.626
71198SOL     OW15432  14.533   6.789  11.859
71198SOL    HW115433  14.600   6.721  11.851
71198SOL    HW215434  14.579   6.870  11.838
71199SOL     OW15435   0.702   0.256   0.743
71199SOL    HW115436   0.667   0.187   0.800
71199SOL    HW215437   0.625   0.298   0.706
71200SOL     OW15438   8.959  13.917   0.351
71200SOL    HW115439   9.015  13.859   0.299
71200SOL    HW215440   9.017  13.949   0.420
71201SOL     OW15441   3.135   9.527   8.873
71201SOL    HW115442   3.185   9.517   8.792
71201SOL    HW215443   3.198   9.559   8.937
71202SOL     OW15444  10.450   9.331   6.782
71202SOL    HW115445  10.467   9.245   6.821
71202SOL    HW215446  10.355   9.343   6.791
71203SOL     OW15447   1.617   3.768  14.853
71203SOL    HW115448   1.606   3.863  14.850
71203SOL    HW215449   1.689   3.754   0.034
71204SOL     OW15450   8.405   7.036   7.408
71204SOL    HW115451   8.421   7.129   7.422
71204SOL    HW215452   8.328   7.017   7.461
71205SOL     OW15453   5.188   7.514  11.275
71205SOL    HW115454   5.152   7.597  11.246
71205SOL    HW215455   5.131   7.447  11.236
71206SOL     OW15456   7.241   0.087  10.080
71206SOL    HW115457   7.269   0.073   9.989
71206SOL    HW215458   7.237   0.182  10.090
71207SOL     OW15459   9.155  11.143   1.128
71207SOL    HW115460   9.115  11.100   1.052
71207SOL    HW215461   9.249  11.125   1.118
71208SOL     OW15462  12.153   2.255  12.677
71208SOL    HW115463  12.158   2.163  12.652
71208SOL    HW215464  12.088   2.293  12.617
71209SOL     OW15465   5.782  10.716   1.430
71209SOL    HW115466   5.792  10.623   1.412
71209SOL    HW215467   5.870  10.752   1.422
71210SOL     OW15468  11.622   3.149  10.194
71210SOL    HW115469  11.678   3.222  10.220
71210SOL    HW215470  11.533   3.183  10.199
71211SOL     OW15471   4.787   9.706   1.104
71211SOL    HW115472   4.720   9.757   1.059
71211SOL    HW215473   4.801   9.752   1.187
71212SOL     OW15474   0.585   0.654   8.068
71212SOL    HW115475   0.624   0.694   7.990
71212SOL    HW215476   0.593   0.720   8.136
71213SOL     OW15477  10.888  10.828   2.383
71213SOL    HW115478  10.849  10.822   2.295
71213SOL    HW215479  10.816  10.859   2.438
71214SOL     OW15480   2.856   4.573  14.850
71214SOL    HW115481   2.833   4.501  14.791
71214SOL    HW215482   2.843   4.652  14.798
71215SOL     OW15483  14.312   7.869  13.990
71215SOL    HW115484  14.292   7.953  14.032
71215SOL    HW215485  14.254   7.807  14.033
71216SOL     OW15486  11.524   2.769   1.414
71216SOL    HW115487  11.614   2.797   1.433
71216SOL    HW215488  11.469   2.834   1.458
71217SOL     OW15489  11.509  11.169   0.144
71217SOL    HW115490  11.584  11.110   0.160
71217SOL    HW215491  11.493  11.162   0.050
71218SOL     OW15492   2.885   7.060  13.915
71218SOL    HW115493   2.949   7.129  13.929
71218SOL    HW215494   2.856   7.072  13.825
71219SOL     OW15495   9.233   5.877   4.789
71219SOL    HW115496   9.196   5.919   4.867
71219SOL    HW215497   9.291   5.944   4.752
71220SOL     OW15498  10.187  14.519  13.573
71220SOL    HW115499  10.222  14.448  13.519
71220SOL    HW215500  10.092  14.514  13.559
71221SOL     OW15501   1.946   8.017   9.736
71221SOL    HW115502   1.889   7.990   9.663
71221SOL    HW215503   1.919   8.106   9.755
71222SOL     OW15504  10.395   4.942  11.375
71222SOL    HW115505  10.318   4.907  11.419
71222SOL    HW215506  10.462   4.875  11.387
71223SOL     OW15507   4.473   1.256   9.407
71223SOL    HW115508   4.533   1.211   9.347
71223SOL    HW215509   4.445   1.188   9.468
71224SOL     OW15510   8.605   0.047   8.800
71224SOL    HW115511   8.622  14.835   8.820
71224SOL    HW215512   8.692   0.085   8.788
71225SOL     OW15513   5.394   7.924  13.996
71225SOL    HW115514   5.374   8.003  13.946
71225SOL    HW215515   5.324   7.919  14.061
71226SOL     OW15516   4.538   3.518   3.797
71226SOL    HW115517   4.582   3.459   3.735
71226SOL    HW215518   4.556   3.606   3.763
71227SOL     OW15519  11.507   1.157  11.758
71227SOL    HW115520  11.484   1.171  11.850
71227SOL    HW215521  11.469   1.072  11.737
71228SOL     OW15522  13.200  12.590   1.259
71228SOL    HW115523  13.130  12.548   1.208
71228SOL    HW215524  13.172  12.583   1.350
71229SOL     OW15525   9.240  12.951   8.937
71229SOL    HW115526   9.200  12.870   8.966
71229SOL    HW215527   9.186  12.980   8.863
71230SOL     OW15528  13.419   0.699   0.332
71230SOL    HW115529  13.412   0.794   0.339
71230SOL    HW215530  13.377   0.666   0.411
71231SOL     OW15531   0.462   4.861   9.784
71231SOL    HW115532   0.388   4.802   9.797
71231SOL    HW215533   0.529   4.807   9.743
71232SOL     OW15534   7.583   9.513   8.755
71232SOL    HW115535   7.520   9.442   8.746
71232SOL    HW215536   7.531   9.589   8.781
71233SOL     OW15537   8.742   1.205   5.917
71233SOL    HW115538   8.736   1.177   6.008
71233SOL    HW215539   8.829   1.176   5.889
71234SOL     OW15540   5.529   5.894  12.448
71234SOL    HW115541   5.624   5.908  12.452
71234SOL    HW215542   5.494   5.947  12.519
71235SOL     OW15543   0.694   2.944   6.167
71235SOL    HW115544   0.677   2.939   6.261
71235SOL    HW215545   0.621   2.896   6.127
71236SOL     OW15546  14.232   6.151   1.219
71236SOL    HW115547  14.266   6.222   1.274
71236SOL    HW215548  14.309   6.099   1.196
71237SOL     OW15549   5.635   8.930   6.694
71237SOL    HW115550   5.626   8.834   6.701
71237SOL    HW215551   5.656   8.945   6.602
71238SOL     OW15552  14.599   1.646  11.237
71238SOL    HW115553  14.514   1.669  11.274
71238SOL    HW215554  14.660   1.711  11.273
71239SOL     OW15555   4.161  10.877   1.380
71239SOL    HW115556   4.089  10.842   1.328
71239SOL    HW215557   4.239  10.838   1.342
71240SOL     OW15558   1.883  10.903   5.778
71240SOL    HW115559   1.866  10.959   5.702
71240SOL    HW215560   1.973  10.873   5.765
71241SOL     OW15561  13.489   2.238  10.548
71241SOL    HW115562  13.405   2.217  10.507
71241SOL    HW215563  13.551   2.176  10.511
71242SOL     OW15564  12.324   8.752  11.259
71242SOL    HW115565  12.237   8.716  11.275
71242SOL    HW215566  12.310   8.824  11.198
71243SOL     OW15567  11.661   2.499   4.655
71243SOL    HW115568  11.646   2.584   4.696
71243SOL    HW215569  11.606   2.500   4.577
71244SOL     OW15570   3.840   8.301  11.427
71244SOL    HW115571   3.864   8.393  11.415
71244SOL    HW215572   3.842   8.265  11.338
71245SOL     OW15573  13.889  12.844   2.258
71245SOL    HW115574  13.825  12.791   2.305
71245SOL    HW215575  13.881  12.816   2.167
71246SOL     OW15576   6.047   1.228  11.559
71246SOL    HW115577   6.021   1.318  11.543
71246SOL    HW215578   6.094   1.202  11.480
71247SOL     OW15579   8.518  11.557   8.092
71247SOL    HW115580   8.561  11.618   8.033
71247SOL    HW215581   8.541  11.470   8.059
71248SOL     OW15582   2.592   7.481   4.231
71248SOL    HW115583   2.519   7.537   4.205
71248SOL    HW215584   2.627   7.522   4.310
71249SOL     OW15585  14.628  10.142   6.784
71249SOL    HW115586  14.658  10.229   6.810
71249SOL    HW215587  14.682  10.082   6.837
71250SOL     OW15588   6.134  10.626  13.036
71250SOL    HW115589   6.057  10.667  12.995
71250SOL    HW215590   6.194  10.611  12.963
71251SOL     OW15591  14.035  13.754   9.013
71251SOL    HW115592  13.957  13.699   9.010
71251SOL    HW215593  14.014  13.830   8.959
71252SOL     OW15594  14.301  14.243  11.710
71252SOL    HW115595  14.289  14.334  11.683
71252SOL    HW215596  14.395  14.233  11.720
71253SOL     OW15597  11.034   2.135   5.668
71253SOL    HW115598  11.055   2.226   5.646
71253SOL    HW215599  11.003   2.139   5.758
71254SOL     OW15600   4.954   3.458   1.169
71254SOL    HW115601   5.001   3.459   1.085
71254SOL    HW215602   4.865   3.432   1.146
71255SOL     OW15603   1.631   4.557  13.314
71255SOL    HW115604   1.543   4.589  13.293
71255SOL    HW215605   1.632   4.467  13.282
71256SOL     OW15606  11.194   0.187   9.607
71256SOL    HW115607  11.184   0.116   9.670
71256SOL    HW215608  11.146   0.159   9.530
71257SOL     OW15609  10.919   3.876  11.110
71257SOL    HW115610  10.915   3.933  11.034
71257SOL    HW215611  11.012   3.871  11.132
71258SOL     OW15612   6.274  13.981  13.671
71258SOL    HW115613   6.309  13.941  13.751
71258SOL    HW215614   6.351  14.000  13.618
71259SOL     OW15615   7.516   5.659  10.078
71259SOL    HW115616   7.603   5.658  10.040
71259SOL    HW215617   7.471   5.732  10.034
71260SOL     OW15618   6.195   2.815   6.050
71260SOL    HW115619   6.153   2.806   5.965
71260SOL    HW215620   6.221   2.907   6.055
71261SOL     OW15621   9.858   9.883   0.229
71261SOL    HW115622   9.909   9.905   0.307
71261SOL    HW215623   9.771   9.919   0.247
71262SOL     OW15624  13.700   2.514   9.939
71262SOL    HW115625  13.611   2.479   9.946
71262SOL    HW215626  13.700   2.591   9.995
71263SOL     OW15627   2.671   4.470   1.629
71263SOL    HW115628   2.599   4.532   1.639
71263SOL    HW215629   2.648   4.420   1.551
71264SOL     OW15630   9.816   4.866   9.808
71264SOL    HW115631   9.722   4.882   9.811
71264SOL    HW215632   9.828   4.782   9.853
71265SOL     OW15633   4.740  14.226   1.170
71265SOL    HW115634   4.706  14.251   1.084
71265SOL    HW215635   4.677  14.163   1.204
71266SOL     OW15636  12.466   1.738   6.353
71266SOL    HW115637  12.526   1.713   6.283
71266SOL    HW215638  12.427   1.820   6.323
71267SOL     OW15639   3.943   8.363   2.989
71267SOL    HW115640   3.860   8.409   3.006
71267SOL    HW215641   3.945   8.352   2.894
71268SOL     OW15642   7.075   3.687  13.424
71268SOL    HW115643   7.051   3.611  13.372
71268SOL    HW215644   7.019   3.681  13.502
71269SOL     OW15645  11.326  10.316  14.577
71269SOL    HW115646  11.380  10.383  14.620
71269SOL    HW215647  11.385  10.241  14.567
71270SOL     OW15648   7.720   5.054   3.258
71270SOL    HW115649   7.798   4.998   3.262
71270SOL    HW215650   7.669   5.020   3.184
71271SOL     OW15651   1.917  13.643   9.549
71271SOL    HW115652   1.979  13.710   9.579
71271SOL    HW215653   1.832  13.687   9.547
71272SOL     OW15654   7.155  12.632  10.036
71272SOL    HW115655   7.140  12.554  10.090
71272SOL    HW215656   7.164  12.704  10.098
71273SOL     OW15657   6.831   7.475   5.166
71273SOL    HW115658   6.888   7.398   5.157
71273SOL    HW215659   6.880   7.535   5.222
71274SOL     OW15660   6.213  10.176   8.189
71274SOL    HW115661   6.173  10.230   8.258
71274SOL    HW215662   6.262  10.109   8.236
71275SOL     OW15663   2.682  14.726  12.545
71275SOL    HW115664   2.720  14.672  12.476
71275SOL    HW215665   2.735  14.706  12.623
71276SOL     OW15666   4.169  10.500   9.040
71276SOL    HW115667   4.125  10.544   8.967
71276SOL    HW215668   4.262  10.515   9.026
71277SOL     OW15669   7.957   9.718  10.742
71277SOL    HW115670   7.993   9.633  10.715
71277SOL    HW215671   7.873   9.697  10.781
71278SOL     OW15672  11.433   4.728  11.147
71278SOL    HW115673  11.524   4.753  11.135
71278SOL    HW215674  11.419   4.729  11.242
71279SOL     OW15675   8.315   2.696  11.976
71279SOL    HW115676   8.241   2.714  12.034
71279SOL    HW215677   8.290   2.732  11.892
71280SOL     OW15678  14.739  10.241   2.951
71280SOL    HW115679  14.669  10.190   2.910
71280SOL    HW215680  14.764  10.305   2.885
71281SOL     OW15681  12.384   0.369   6.784
71281SOL    HW115682  12.356   0.386   6.873
71281SOL    HW215683  12.425   0.283   6.787
71282SOL     OW15684  14.728   7.780   4.031
71282SOL    HW115685  14.640   7.747   4.052
71282SOL    HW215686  14.754   7.828   4.109
71283SOL     OW15687   7.090  10.407  14.020
71283SOL    HW115688   7.143  10.480  13.990
71283SOL    HW215689   7.006  10.418  13.976
71284SOL     OW15690   8.664   1.126   0.267
71284SOL    HW115691   8.685   1.184   0.194
71284SOL    HW215692   8.719   1.050   0.254
71285SOL     OW15693   5.610   9.665   9.186
71285SOL    HW115694   5.532   9.672   9.131
71285SOL    HW215695   5.680   9.641   9.126
71286SOL     OW15696   0.256   6.233  12.340
71286SOL    HW115697   0.292   6.250  12.428
71286SOL    HW215698   0.162   6.224  12.354
71287SOL     OW15699   0.796   3.177  10.628
71287SOL    HW115700   0.789   3.115  10.556
71287SOL    HW215701   0.732   3.147  10.692
71288SOL     OW15702   0.103   2.025   6.538
71288SOL    HW115703   0.018   2.059   6.509
71288SOL    HW215704   0.106   2.047   6.631
71289SOL     OW15705   8.597   5.222   1.582
71289SOL    HW115706   8.585   5.183   1.496
71289SOL    HW215707   8.605   5.316   1.565
71290SOL     OW15708  10.491  13.409   8.339
71290SOL    HW115709  10.471  13.371   8.425
71290SOL    HW215710  10.551  13.482   8.359
71291SOL     OW15711   1.705  12.936  13.357
71291SOL    HW115712   1.726  12.861  13.413
71291SOL    HW215713   1.633  12.906  13.302
71292SOL     OW15714   0.042   2.952  13.895
71292SOL    HW115715  14.873   2.870  13.887
71292SOL    HW215716   0.061   2.977  13.805
71293SOL     OW15717   8.480  11.340   4.554
71293SOL    HW115718   8.443  11.428   4.549
71293SOL    HW215719   8.481  11.319   4.647
71294SOL     OW15720   0.628   8.333  12.505
71294SOL    HW115721   0.722   8.320  12.512
71294SOL    HW215722   0.616   8.387  12.427
71295SOL     OW15723  11.868   3.534  12.384
71295SOL    HW115724  11.825   3.531  12.298
71295SOL    HW215725  11.832   3.460  12.432
71296SOL     OW15726   5.349  12.687  12.824
71296SOL    HW115727   5.430  12.671  12.775
71296SOL    HW215728   5.358  12.777  12.855
71297SOL     OW15729  12.402   7.930  11.739
71297SOL    HW115730  12.422   7.874  11.664
71297SOL    HW215731  12.314   7.903  11.766
71298SOL     OW15732  12.580  14.122  14.465
71298SOL    HW115733  12.608  14.064  14.394
71298SOL    HW215734  12.522  14.185  14.422
71299SOL     OW15735   4.531   5.991   0.131
71299SOL    HW115736   4.465   6.021   0.067
71299SOL    HW215737   4.565   5.910   0.094
71300SOL     OW15738   6.150   5.114   7.290
71300SOL    HW115739   6.128   5.052   7.360
71300SOL    HW215740   6.115   5.075   7.211
71301SOL     OW15741   9.347  12.438   4.532
71301SOL    HW115742   9.354  12.358   4.480
71301SOL    HW215743   9.256  12.442   4.559
71302SOL     OW15744   5.113   6.644   6.425
71302SOL    HW115745   5.188   6.656   6.483
71302SOL    HW215746   5.050   6.594   6.477
71303SOL     OW15747   0.176  12.187  12.688
71303SOL    HW115748   0.125  12.107  12.673
71303SOL    HW215749   0.264  12.156  12.707
71304SOL     OW15750   7.485   8.287  11.303
71304SOL    HW115751   7.572   8.327  11.304
71304SOL    HW215752   7.428   8.354  11.266
71305SOL     OW15753   4.374   5.361  14.633
71305SOL    HW115754   4.445   5.410  14.591
71305SOL    HW215755   4.418   5.299  14.691
71306SOL     OW15756   1.363   3.887   0.087
71306SOL    HW115757   1.434   3.911   0.027
71306SOL    HW215758   1.379   3.940   0.165
71307SOL     OW15759   7.844   6.786  14.148
71307SOL    HW115760   7.901   6.764  14.074
71307SOL    HW215761   7.785   6.712  14.155
71308SOL     OW15762  13.899   7.463   8.508
71308SOL    HW115763  13.879   7.431   8.420
71308SOL    HW215764  13.912   7.383   8.559
71309SOL     OW15765   7.127   1.449  10.907
71309SOL    HW115766   7.125   1.543  10.923
71309SOL    HW215767   7.204   1.418  10.956
71310SOL     OW15768   0.955  13.646  10.647
71310SOL    HW115769   1.031  13.628  10.591
71310SOL    HW215770   0.889  13.681  10.587
71311SOL     OW15771   8.173  12.915   3.800
71311SOL    HW115772   8.263  12.939   3.779
71311SOL    HW215773   8.169  12.918   3.895
71312SOL     OW15774  10.667   2.807   8.865
71312SOL    HW115775  10.632   2.725   8.900
71312SOL    HW215776  10.750   2.783   8.825
71313SOL     OW15777   3.188  12.473   0.715
71313SOL    HW115778   3.199  12.420   0.794
71313SOL    HW215779   3.145  12.553   0.746
71314SOL     OW15780  13.751  11.911   8.611
71314SOL    HW115781  13.846  11.911   8.597
71314SOL    HW215782  13.740  11.895   8.705
71315SOL     OW15783   1.151   6.361  14.390
71315SOL    HW115784   1.080   6.417  14.359
71315SOL    HW215785   1.113   6.315  14.465
71316SOL     OW15786   4.746   0.686  11.373
71316SOL    HW115787   4.711   0.774  11.384
71316SOL    HW215788   4.689   0.645  11.309
71317SOL     OW15789   0.956   5.079  12.080
71317SOL    HW115790   0.973   5.041  12.166
71317SOL    HW215791   1.038   5.066  12.032
71318SOL     OW15792  10.041   8.651   0.804
71318SOL    HW115793  10.070   8.735   0.840
71318SOL    HW215794  10.087   8.644   0.720
71319SOL     OW15795   5.420   7.203   1.303
71319SOL    HW115796   5.352   7.239   1.360
71319SOL    HW215797   5.450   7.124   1.349
71320SOL     OW15798  13.160  10.517   8.890
71320SOL    HW115799  13.130  10.526   8.800
71320SOL    HW215800  13.232  10.580   8.898
71321SOL     OW15801   0.514  14.431  10.139
71321SOL    HW115802   0.553  14.350  10.108
71321SOL    HW215803   0.478  14.408  10.225
71322SOL     OW15804   8.999  10.417   9.344
71322SOL    HW115805   8.985  10.322   9.346
71322SOL    HW215806   8.920  10.454   9.383
71323SOL     OW15807   9.830  13.144   6.789
71323SOL    HW115808   9.795  13.080   6.851
71323SOL    HW215809   9.763  13.211   6.783
71324SOL     OW15810   8.048   0.760   3.923
71324SOL    HW115811   8.089   0.767   4.009
71324SOL    HW215812   8.079   0.675   3.889
71325SOL     OW15813   5.933   7.509  12.570
71325SOL    HW115814   5.960   7.501  12.662
71325SOL    HW215815   6.012   7.488  12.520
71326SOL     OW15816   6.055   3.460   8.578
71326SOL    HW115817   6.111   3.383   8.589
71326SOL    HW215818   6.024   3.454   8.487
71327SOL     OW15819   2.687  13.706  13.639
71327SOL    HW115820   2.720  13.780  13.691
71327SOL    HW215821   2.682  13.740  13.550
71328SOL     OW15822  10.941   6.510   3.270
71328SOL    HW115823  10.917   6.422   3.297
71328SOL    HW215824  10.984   6.499   3.185
71329SOL     OW15825   1.999   5.719   5.276
71329SOL    HW115826   1.956   5.741   5.194
71329SOL    HW215827   1.953   5.641   5.307
71330SOL     OW15828   5.694   1.653  12.699
71330SOL    HW115829   5.632   1.722  12.726
71330SOL    HW215830   5.638   1.577  12.683
71331SOL     OW15831   6.389   6.253   3.033
71331SOL    HW115832   6.481   6.271   3.051
71331SOL    HW215833   6.372   6.169   3.074
71332SOL     OW15834  12.429   5.026   3.549
71332SOL    HW115835  12.336   5.005   3.540
71332SOL    HW215836  12.431   5.118   3.577
71333SOL     OW15837   2.861  11.715   2.487
71333SOL    HW115838   2.869  11.809   2.470
71333SOL    HW215839   2.897  11.673   2.409
71334SOL     OW15840   9.561   6.587  12.441
71334SOL    HW115841   9.522   6.648  12.378
71334SOL    HW215842   9.513   6.505  12.427
71335SOL     OW15843   2.313   0.069  10.249
71335SOL    HW115844   2.355   0.154  10.236
71335SOL    HW215845   2.220   0.089  10.256
71336SOL     OW15846  14.116   5.729   6.877
71336SOL    HW115847  14.149   5.771   6.797
71336SOL    HW215848  14.107   5.801   6.939
71337SOL     OW15849   4.518  13.234   1.327
71337SOL    HW115850   4.557  13.315   1.360
71337SOL    HW215851   4.455  13.262   1.261
71338SOL     OW15852  12.599  14.338  14.750
71338SOL    HW115853  12.617  14.425  14.713
71338SOL    HW215854  12.514  14.313  14.713
71339SOL     OW15855  14.844   6.248   0.376
71339SOL    HW115856  14.776   6.229   0.311
71339SOL    HW215857   0.041   6.199   0.345
71340SOL     OW15858  11.126   1.683   3.277
71340SOL    HW115859  11.112   1.759   3.333
71340SOL    HW215860  11.124   1.719   3.188
71341SOL     OW15861   6.536  13.963  10.583
71341SOL    HW115862   6.459  13.960  10.526
71341SOL    HW215863   6.512  14.024  10.653
71342SOL     OW15864   3.939  14.531   7.736
71342SOL    HW115865   3.892  14.545   7.818
71342SOL    HW215866   3.990  14.611   7.723
71343SOL     OW15867  13.120   1.482   1.533
71343SOL    HW115868  13.127   1.396   1.576
71343SOL    HW215869  13.210   1.507   1.513
71344SOL     OW15870  13.045   5.803  10.246
71344SOL    HW115871  12.973   5.842  10.196
71344SOL    HW215872  13.001   5.740  10.304
71345SOL     OW15873  12.331  10.041   4.652
71345SOL    HW115874  12.337  10.126   4.607
71345SOL    HW215875  12.239  10.016   4.643
71346SOL     OW15876   2.545  11.989   2.477
71346SOL    HW115877   2.471  12.038   2.442
71346SOL    HW215878   2.593  11.960   2.400
71347SOL     OW15879   5.924   7.394  11.440
71347SOL    HW115880   6.007   7.436  11.460
71347SOL    HW215881   5.946   7.327  11.375
71348SOL     OW15882  10.093  12.410   0.419
71348SOL    HW115883  10.140  12.439   0.497
71348SOL    HW215884  10.016  12.468   0.415
71349SOL     OW15885   8.186   6.324   8.413
71349SOL    HW115886   8.268   6.279   8.433
71349SOL    HW215887   8.168   6.377   8.491
71350SOL     OW15888  11.734  13.443  12.153
71350SOL    HW115889  11.663  13.393  12.113
71350SOL    HW215890  11.697  13.480  12.233
71351SOL     OW15891   3.408   8.697  11.438
71351SOL    HW115892   3.427   8.613  11.396
71351SOL    HW215893   3.434   8.762  11.373
71352SOL     OW15894   9.187  13.670   8.812
71352SOL    HW115895   9.195  13.622   8.729
71352SOL    HW215896   9.133  13.613   8.867
71353SOL     OW15897   7.884   6.369   4.616
71353SOL    HW115898   7.859   6.414   4.535
71353SOL    HW215899   7.893   6.277   4.590
71354SOL     OW15900  13.292   2.745  10.187
71354SOL    HW115901  13.267   2.807  10.256
71354SOL    HW215902  13.375   2.707  10.218
71355SOL     OW15903   9.284  13.649   4.720
71355SOL    HW115904   9.319  13.729   4.681
71355SOL    HW215905   9.338  13.634   4.798
71356SOL     OW15906   8.659   7.278  11.923
71356SOL    HW115907   8.610   7.197  11.906
71356SOL    HW215908   8.746   7.248  11.950
71357SOL     OW15909   9.802   8.117   9.549
71357SOL    HW115910   9.825   8.164   9.469
71357SOL    HW215911   9.707   8.127   9.556
71358SOL     OW15912   7.627   3.162   3.803
71358SOL    HW115913   7.709   3.212   3.799
71358SOL    HW215914   7.601   3.165   3.895
71359SOL     OW15915   7.806  14.460   8.873
71359SOL    HW115916   7.756  14.383   8.899
71359SOL    HW215917   7.818  14.509   8.954
71360SOL     OW15918  13.268  13.803   5.867
71360SOL    HW115919  13.298  13.856   5.941
71360SOL    HW215920  13.307  13.717   5.882
71361SOL     OW15921   3.053   6.706   6.567
71361SOL    HW115922   2.967   6.676   6.540
71361SOL    HW215923   3.095   6.630   6.606
71362SOL     OW15924   7.160   8.521   4.878
71362SOL    HW115925   7.106   8.444   4.858
71362SOL    HW215926   7.157   8.527   4.973
71363SOL     OW15927   1.153   5.167   9.311
71363SOL    HW115928   1.240   5.166   9.350
71363SOL    HW215929   1.151   5.092   9.252
71364SOL     OW15930  13.577   6.665  14.443
71364SOL    HW115931  13.654   6.630  14.487
71364SOL    HW215932  13.541   6.729  14.505
71365SOL     OW15933  10.500   1.454   1.225
71365SOL    HW115934  10.410   1.485   1.238
71365SOL    HW215935  10.535   1.443   1.313
71366SOL     OW15936   1.574   2.460   8.229
71366SOL    HW115937   1.527   2.454   8.313
71366SOL    HW215938   1.512   2.428   8.164
71367SOL     OW15939   5.192   2.308   5.109
71367SOL    HW115940   5.169   2.397   5.137
71367SOL    HW215941   5.225   2.320   5.020
71368SOL     OW15942   3.298   0.864   5.868
71368SOL    HW115943   3.302   0.802   5.795
71368SOL    HW215944   3.207   0.893   5.871
71369SOL     OW15945  13.469   2.609  12.189
71369SOL    HW115946  13.561   2.634  12.193
71369SOL    HW215947  13.428   2.675  12.133
71370SOL     OW15948   5.130   9.011   5.237
71370SOL    HW115949   5.170   9.083   5.287
71370SOL    HW215950   5.201   8.947   5.229
71371SOL     OW15951   7.561   5.203   6.656
71371SOL    HW115952   7.647   5.235   6.627
71371SOL    HW215953   7.543   5.254   6.735
71372SOL     OW15954  11.006   5.803  13.497
71372SOL    HW115955  11.019   5.816  13.403
71372SOL    HW215956  11.020   5.890  13.536
71373SOL     OW15957  14.395   7.139   3.944
71373SOL    HW115958  14.343   7.059   3.947
71373SOL    HW215959  14.482   7.110   3.916
71374SOL     OW15960   3.151  11.764  12.615
71374SOL    HW115961   3.231  11.720  12.645
71374SOL    HW215962   3.173  11.796  12.527
71375SOL     OW15963  13.129  12.495  12.444
71375SOL    HW115964  13.186  12.420  12.427
71375SOL    HW215965  13.072  12.500  12.367
71376SOL     OW15966   0.169   2.313   5.970
71376SOL    HW115967   0.106   2.340   5.902
71376SOL    HW215968   0.170   2.386   6.032
71377SOL     OW15969  11.263  11.035  11.442
71377SOL    HW115970  11.313  10.962  11.404
71377SOL    HW215971  11.320  11.072  11.509
71378SOL     OW15972   6.692   9.981  14.209
71378SOL    HW115973   6.694  10.047  14.278
71378SOL    HW215974   6.672  10.031  14.129
71379SOL     OW15975   8.342   7.516   7.872
71379SOL    HW115976   8.284   7.578   7.916
71379SOL    HW215977   8.289   7.437   7.861
71380SOL     OW15978   1.940  11.903   8.508
71380SOL    HW115979   2.020  11.855   8.489
71380SOL    HW215980   1.892  11.847   8.569
71381SOL     OW15981   1.960   3.171  14.643
71381SOL    HW115982   2.024   3.242  14.633
71381SOL    HW215983   1.895   3.188  14.575
71382SOL     OW15984   4.019  14.501  14.049
71382SOL    HW115985   4.008  14.592  14.077
71382SOL    HW215986   3.963  14.493  13.972
71383SOL     OW15987   5.291  10.291   3.066
71383SOL    HW115988   5.201  10.292   3.099
71383SOL    HW215989   5.297  10.368   3.010
71384SOL     OW15990  11.006  13.870   8.479
71384SOL    HW115991  10.977  13.809   8.547
71384SOL    HW215992  11.081  13.916   8.518
71385SOL     OW15993   3.091  10.915   4.711
71385SOL    HW115994   3.147  10.844   4.682
71385SOL    HW215995   3.088  10.976   4.637
71386SOL     OW15996  12.061   4.619   5.164
71386SOL    HW115997  12.084   4.604   5.072
71386SOL    HW215998  12.086   4.537   5.208
71387SOL     OW15999  11.425   6.898   0.445
71387SOL    HW116000  11.397   6.823   0.393
71387SOL    HW216001  11.343   6.937   0.476
71388SOL     OW16002   1.133   8.400   2.626
71388SOL    HW116003   1.108   8.490   2.605
71388SOL    HW216004   1.075   8.346   2.573
71389SOL     OW16005   0.308   5.825   7.244
71389SOL    HW116006   0.301   5.833   7.149
71389SOL    HW216007   0.223   5.856   7.277
71390SOL     OW16008   7.429   5.260   3.870
71390SOL    HW116009   7.384   5.213   3.800
71390SOL    HW216010   7.503   5.304   3.827
71391SOL     OW16011   8.390  14.698  10.389
71391SOL    HW116012   8.381  14.792  10.401
71391SOL    HW216013   8.483  14.685  10.370
71392SOL     OW16014   1.040   4.570   9.707
71392SOL    HW116015   1.046   4.481   9.671
71392SOL    HW216016   0.987   4.618   9.644
71393SOL     OW16017   7.217   2.986  11.056
71393SOL    HW116018   7.300   3.030  11.042
71393SOL    HW216019   7.188   3.016  11.142
71394SOL     OW16020   4.921   5.606   9.531
71394SOL    HW116021   4.902   5.512   9.526
71394SOL    HW216022   4.849   5.642   9.583
71395SOL     OW16023   5.771   9.814   4.331
71395SOL    HW116024   5.766   9.816   4.235
71395SOL    HW216025   5.781   9.906   4.356
71396SOL     OW16026   5.689   4.893  11.038
71396SOL    HW116027   5.698   4.840  11.117
71396SOL    HW216028   5.595   4.894  11.020
71397SOL     OW16029   2.062   7.637   3.748
71397SOL    HW116030   2.085   7.562   3.693
71397SOL    HW216031   2.029   7.598   3.829
71398SOL     OW16032   8.559   4.034   5.166
71398SOL    HW116033   8.510   4.109   5.133
71398SOL    HW216034   8.493   3.975   5.203
71399SOL     OW16035   3.265   6.444  13.942
71399SOL    HW116036   3.187   6.404  13.982
71399SOL    HW216037   3.231   6.492  13.867
71400SOL     OW16038   8.886   8.141  12.121
71400SOL    HW116039   8.970   8.184  12.107
71400SOL    HW216040   8.903   8.077  12.191
71401SOL     OW16041  13.184  13.407   6.582
71401SOL    HW116042  13.269  13.449   6.594
71401SOL    HW216043  13.155  13.385   6.670
71402SOL     OW16044   8.021   2.396  12.697
71402SOL    HW116045   8.052   2.307  12.680
71402SOL    HW216046   7.967   2.387  12.776
71403SOL     OW16047  11.531   7.236  10.596
71403SOL    HW116048  11.506   7.259  10.686
71403SOL    HW216049  11.619   7.200  10.605
71404SOL     OW16050   5.258   8.046   3.798
71404SOL    HW116051   5.308   8.018   3.875
71404SOL    HW216052   5.168   8.055   3.830
71405SOL     OW16053   5.209   8.056   3.028
71405SOL    HW116054   5.129   8.025   3.070
71405SOL    HW216055   5.192   8.149   3.010
71406SOL     OW16056   1.104   7.595  11.651
71406SOL    HW116057   1.082   7.522  11.708
71406SOL    HW216058   1.125   7.667  11.711
71407SOL     OW16059   2.560   1.574   3.554
71407SOL    HW116060   2.514   1.513   3.612
71407SOL    HW216061   2.507   1.654   3.556
71408SOL     OW16062   5.120   5.192   8.439
71408SOL    HW116063   5.189   5.173   8.503
71408SOL    HW216064   5.148   5.272   8.395
71409SOL     OW16065   7.383  10.333   0.643
71409SOL    HW116066   7.336  10.416   0.634
71409SOL    HW216067   7.371  10.308   0.735
71410SOL     OW16068   0.604  12.357  12.355
71410SOL    HW116069   0.626  12.274  12.398
71410SOL    HW216070   0.681  12.378  12.302
71411SOL     OW16071   1.449  11.523   2.009
71411SOL    HW116072   1.473  11.446   2.061
71411SOL    HW216073   1.532  11.570   1.997
71412SOL     OW16074   8.517  12.393   3.261
71412SOL    HW116075   8.531  12.443   3.181
71412SOL    HW216076   8.432  12.423   3.293
71413SOL     OW16077   3.889   3.720  14.504
71413SOL    HW116078   3.973   3.699  14.546
71413SOL    HW216079   3.878   3.814  14.518
71414SOL     OW16080   2.003  11.896   9.338
71414SOL    HW116081   2.086  11.851   9.317
71414SOL    HW216082   1.942  11.825   9.356
71415SOL     OW16083  10.513   2.553   8.180
71415SOL    HW116084  10.469   2.638   8.170
71415SOL    HW216085  10.605   2.575   8.190
71416SOL     OW16086   6.998  11.500   3.695
71416SOL    HW116087   6.928  11.519   3.633
71416SOL    HW216088   7.077  11.499   3.641
71417SOL     OW16089   1.320   0.118  11.157
71417SOL    HW116090   1.371   0.081  11.085
71417SOL    HW216091   1.275   0.193  11.118
71418SOL     OW16092  13.436  11.881  10.693
71418SOL    HW116093  13.457  11.952  10.633
71418SOL    HW216094  13.500  11.891  10.764
71419SOL     OW16095   0.304   7.574  14.746
71419SOL    HW116096   0.353   7.602  14.668
71419SOL    HW216097   0.349   7.615  14.819
71420SOL     OW16098   1.791   5.487   3.351
71420SOL    HW116099   1.852   5.551   3.315
71420SOL    HW216100   1.725   5.475   3.282
71421SOL     OW16101  12.825   2.193   3.721
71421SOL    HW116102  12.735   2.162   3.707
71421SOL    HW216103  12.821   2.287   3.701
71422SOL     OW16104   0.358  11.210  12.685
71422SOL    HW116105   0.438  11.181  12.642
71422SOL    HW216106   0.317  11.129  12.717
71423SOL     OW16107   6.392   7.886   6.748
71423SOL    HW116108   6.377   7.829   6.824
71423SOL    HW216109   6.459   7.948   6.777
71424SOL     OW16110   3.799  10.735   8.488
71424SOL    HW116111   3.772  10.824   8.464
71424SOL    HW216112   3.796  10.687   8.405
71425SOL     OW16113  13.312   0.078   0.087
71425SOL    HW116114  13.368   0.095   0.163
71425SOL    HW216115  13.339  14.870   0.057
71426SOL     OW16116   0.019   2.767   3.410
71426SOL    HW116117  14.841   2.752   3.485
71426SOL    HW216118  14.839   2.783   3.336
71427SOL     OW16119  14.651  12.432   3.427
71427SOL    HW116120  14.615  12.474   3.505
71427SOL    HW216121  14.575  12.403   3.378
71428SOL     OW16122   4.557  11.096   6.778
71428SOL    HW116123   4.511  11.120   6.859
71428SOL    HW216124   4.628  11.160   6.771
71429SOL     OW16125   9.448  13.194   6.403
71429SOL    HW116126   9.409  13.202   6.316
71429SOL    HW216127   9.489  13.278   6.419
71430SOL     OW16128  10.627  10.480   8.953
71430SOL    HW116129  10.620  10.540   8.879
71430SOL    HW216130  10.540  10.440   8.960
71431SOL     OW16131   4.929  12.304  10.847
71431SOL    HW116132   5.000  12.257  10.891
71431SOL    HW216133   4.891  12.240  10.787
71432SOL     OW16134   6.053  11.143   1.318
71432SOL    HW116135   6.084  11.083   1.385
71432SOL    HW216136   6.005  11.088   1.257
71433SOL     OW16137   6.173   9.599  14.338
71433SOL    HW116138   6.240   9.554  14.390
71433SOL    HW216139   6.212   9.609  14.251
71434SOL     OW16140  13.613  13.175   9.130
71434SOL    HW116141  13.528  13.210   9.153
71434SOL    HW216142  13.642  13.128   9.208
71435SOL     OW16143  11.873   3.080   1.785
71435SOL    HW116144  11.814   3.022   1.834
71435SOL    HW216145  11.919   3.130   1.853
71436SOL     OW16146   5.916   2.359   9.406
71436SOL    HW116147   5.935   2.447   9.375
71436SOL    HW216148   5.996   2.309   9.391
71437SOL     OW16149  13.175  10.851  10.492
71437SOL    HW116150  13.270  10.838  10.489
71437SOL    HW216151  13.143  10.804  10.415
71438SOL     OW16152   0.680   3.379   5.725
71438SOL    HW116153   0.774   3.365   5.713
71438SOL    HW216154   0.639   3.328   5.656
71439SOL     OW16155  12.273   8.196  13.642
71439SOL    HW116156  12.260   8.210  13.736
71439SOL    HW216157  12.289   8.284  13.607
71440SOL     OW16158  13.201   6.561   1.378
71440SOL    HW116159  13.284   6.598   1.345
71440SOL    HW216160  13.204   6.577   1.472
71441SOL     OW16161  11.929  14.671   6.987
71441SOL    HW116162  11.955  14.747   6.935
71441SOL    HW216163  11.850  14.639   6.945
71442SOL     OW16164   3.508   9.876  10.070
71442SOL    HW116165   3.548   9.879   9.983
71442SOL    HW216166   3.430   9.931  10.064
71443SOL     OW16167  11.106   6.801   0.670
71443SOL    HW116168  11.194   6.765   0.681
71443SOL    HW216169  11.049   6.724   0.662
71444SOL     OW16170   1.276  12.172  10.592
71444SOL    HW116171   1.220  12.197  10.666
71444SOL    HW216172   1.216  12.160  10.519
71445SOL     OW16173   5.382   2.324   6.111
71445SOL    HW116174   5.371   2.229   6.110
71445SOL    HW216175   5.450   2.340   6.176
71446SOL     OW16176  12.259  14.021  12.477
71446SOL    HW116177  12.225  13.932  12.469
71446SOL    HW216178  12.218  14.055  12.557
71447SOL     OW16179   9.231  13.435   9.239
71447SOL    HW116180   9.209  13.364   9.299
71447SOL    HW216181   9.290  13.492   9.289
71448SOL     OW16182   1.862  11.036   0.036
71448SOL    HW116183   1.781  11.057  14.869
71448SOL    HW216184   1.835  11.024   0.127
71449SOL     OW16185  14.148   7.906   4.443
71449SOL    HW116186  14.065   7.950   4.425
71449SOL    HW216187  14.123   7.818   4.471
71450SOL     OW16188  13.189   0.127   7.886
71450SOL    HW116189  13.233   0.128   7.801
71450SOL    HW216190  13.193   0.035   7.913
71451SOL     OW16191   2.872   8.617  12.892
71451SOL    HW116192   2.891   8.545  12.831
71451SOL    HW216193   2.946   8.616  12.953
71452SOL     OW16194   0.048   8.756  13.920
71452SOL    HW116195   0.007   8.798  13.844
71452SOL    HW216196   0.039   8.662  13.903
71453SOL     OW16197  14.027   6.253  13.330
71453SOL    HW116198  14.037   6.316  13.259
71453SOL    HW216199  13.946   6.277  13.374
71454SOL     OW16200   6.558   1.545   0.666
71454SOL    HW116201   6.558   1.605   0.592
71454SOL    HW216202   6.650   1.529   0.685
71455SOL     OW16203  11.209   1.224  12.790
71455SOL    HW116204  11.180   1.136  12.765
71455SOL    HW216205  11.129   1.269  12.816
71456SOL     OW16206   3.553  14.752  11.840
71456SOL    HW116207   3.614  14.694  11.887
71456SOL    HW216208   3.608  14.801  11.779
71457SOL     OW16209  14.665  11.246  12.414
71457SOL    HW116210  14.740  11.283  12.461
71457SOL    HW216211  14.705  11.191  12.346
71458SOL     OW16212   8.184  13.739  10.710
71458SOL    HW116213   8.184  13.797  10.786
71458SOL    HW216214   8.228  13.659  10.740
71459SOL     OW16215   0.966  12.974   6.320
71459SOL    HW116216   0.916  13.056   6.317
71459SOL    HW216217   1.025  12.979   6.244
71460SOL     OW16218   4.874  10.471  13.299
71460SOL    HW116219   4.872  10.526  13.221
71460SOL    HW216220   4.859  10.532  13.371
71461SOL     OW16221  10.756   2.529  13.742
71461SOL    HW116222  10.829   2.564  13.794
71461SOL    HW216223  10.798   2.480  13.672
71462SOL     OW16224  11.243   9.020   5.620
71462SOL    HW116225  11.301   8.993   5.691
71462SOL    HW216226  11.275   9.107   5.595
71463SOL     OW16227  11.659   2.616   5.008
71463SOL    HW116228  11.660   2.673   5.085
71463SOL    HW216229  11.745   2.630   4.968
71464SOL     OW16230  12.000  10.614   9.371
71464SOL    HW116231  11.961  10.556   9.437
71464SOL    HW216232  12.007  10.699   9.415
71465SOL     OW16233   2.962  14.715   9.184
71465SOL    HW116234   2.875  14.727   9.145
71465SOL    HW216235   2.988  14.627   9.156
71466SOL     OW16236   0.675   3.075   0.121
71466SOL    HW116237   0.709   3.003   0.067
71466SOL    HW216238   0.690   3.154   0.068
71467SOL     OW16239   7.734  13.836   7.511
71467SOL    HW116240   7.724  13.899   7.582
71467SOL    HW216241   7.644  13.816   7.485
71468SOL     OW16242   2.972  14.460   9.118
71468SOL    HW116243   2.925  14.440   9.037
71468SOL    HW216244   2.981  14.376   9.162
71469SOL     OW16245   7.316   6.016  13.706
71469SOL    HW116246   7.332   5.984  13.618
71469SOL    HW216247   7.223   6.038  13.708
71470SOL     OW16248  10.245   1.493   2.202
71470SOL    HW116249  10.320   1.491   2.261
71470SOL    HW216250  10.235   1.585   2.178
71471SOL     OW16251  14.634   4.022   4.063
71471SOL    HW116252  14.629   4.107   4.020
71471SOL    HW216253  14.599   3.960   3.999
71472SOL     OW16254  11.611   6.790   2.604
71472SOL    HW116255  11.591   6.813   2.695
71472SOL    HW216256  11.630   6.696   2.607
71473SOL     OW16257  10.353   8.380  10.068
71473SOL    HW116258  10.312   8.326  10.000
71473SOL    HW216259  10.438   8.404  10.031
71474SOL     OW16260   1.194   0.050   9.833
71474SOL    HW116261   1.124   0.115   9.841
71474SOL    HW216262   1.149  14.846   9.831
71475SOL     OW16263   8.223   8.555   2.174
71475SOL    HW116264   8.225   8.459   2.180
71475SOL    HW216265   8.306   8.583   2.211
71476SOL     OW16266  12.086   1.094  11.917
71476SOL    HW116267  12.166   1.080  11.866
71476SOL    HW216268  12.117   1.113  12.005
71477SOL     OW16269  14.169  13.355   7.998
71477SOL    HW116270  14.149  13.267   7.967
71477SOL    HW216271  14.155  13.352   8.093
71478SOL     OW16272  10.433  10.284   2.452
71478SOL    HW116273  10.351  10.326   2.426
71478SOL    HW216274  10.484  10.354   2.493
71479SOL     OW16275   4.455   7.162  13.040
71479SOL    HW116276   4.471   7.168  13.134
71479SOL    HW216277   4.496   7.240  13.004
71480SOL     OW16278   0.832  11.484   6.871
71480SOL    HW116279   0.750  11.517   6.907
71480SOL    HW216280   0.899  11.514   6.932
71481SOL     OW16281   2.599   4.409   3.530
71481SOL    HW116282   2.577   4.320   3.505
71481SOL    HW216283   2.694   4.415   3.518
71482SOL     OW16284   2.013   3.522  13.543
71482SOL    HW116285   2.054   3.589  13.488
71482SOL    HW216286   2.078   3.452  13.548
71483SOL     OW16287   5.929  13.924   5.908
71483SOL    HW116288   5.973  13.968   5.980
71483SOL    HW216289   5.936  13.831   5.929
71484SOL     OW16290   8.178   9.897   3.373
71484SOL    HW116291   8.130   9.816   3.353
71484SOL    HW216292   8.110   9.957   3.403
71485SOL     OW16293   0.892   7.204   0.122
71485SOL    HW116294   0.798   7.223   0.116
71485SOL    HW216295   0.910   7.150   0.046
71486SOL     OW16296   8.260   7.261   8.220
71486SOL    HW116297   8.200   7.313   8.166
71486SOL    HW216298   8.339   7.315   8.225
71487SOL     OW16299   6.210   0.491  13.970
71487SOL    HW116300   6.246   0.519  13.886
71487SOL    HW216301   6.215   0.396  13.969
71488SOL     OW16302   4.931   5.189   7.890
71488SOL    HW116303   4.983   5.112   7.869
71488SOL    HW216304   4.894   5.217   7.806
71489SOL     OW16305   8.570  10.707  12.924
71489SOL    HW116306   8.600  10.704  12.833
71489SOL    HW216307   8.637  10.659  12.973
71490SOL     OW16308   0.750  12.273  11.712
71490SOL    HW116309   0.690  12.289  11.639
71490SOL    HW216310   0.752  12.177  11.721
71491SOL     OW16311   3.570   2.869  12.804
71491SOL    HW116312   3.613   2.789  12.773
71491SOL    HW216313   3.580   2.866  12.899
71492SOL     OW16314   6.346   0.023   8.773
71492SOL    HW116315   6.440   0.021   8.759
71492SOL    HW216316   6.324  14.816   8.807
71493SOL     OW16317  10.910  13.003   5.334
71493SOL    HW116318  10.986  12.954   5.304
71493SOL    HW216319  10.846  12.993   5.263
71494SOL     OW16320   5.080   2.283  14.711
71494SOL    HW116321   5.072   2.259  14.619
71494SOL    HW216322   5.175   2.290  14.726
71495SOL     OW16323   9.656   7.126   2.053
71495SOL    HW116324   9.578   7.074   2.032
71495SOL    HW216325   9.700   7.077   2.122
71496SOL     OW16326  14.106   5.045   3.819
71496SOL    HW116327  14.188   5.027   3.864
71496SOL    HW216328  14.131   5.055   3.727
71497SOL     OW16329   6.328  14.770   2.050
71497SOL    HW116330   6.335  14.699   1.986
71497SOL    HW216331   6.243  14.756   2.092
71498SOL     OW16332   8.063  10.022   0.007
71498SOL    HW116333   8.043   9.929   0.020
71498SOL    HW216334   8.114  10.047   0.084
71499SOL     OW16335   6.074   3.164   9.213
71499SOL    HW116336   6.111   3.137   9.297
71499SOL    HW216337   6.029   3.246   9.232
71500SOL     OW16338   6.478  13.679   5.762
71500SOL    HW116339   6.459  13.619   5.690
71500SOL    HW216340   6.473  13.766   5.722
71501SOL     OW16341  14.092   6.640   9.660
71501SOL    HW116342  14.183   6.643   9.632
71501SOL    HW216343  14.094   6.599   9.746
71502SOL     OW16344   1.593   3.502  14.244
71502SOL    HW116345   1.556   3.585  14.273
71502SOL    HW216346   1.600   3.449  14.323
71503SOL     OW16347   8.870   0.611   2.667
71503SOL    HW116348   8.891   0.570   2.752
71503SOL    HW216349   8.861   0.704   2.687
71504SOL     OW16350  11.021  13.388   2.609
71504SOL    HW116351  11.009  13.390   2.704
71504SOL    HW216352  10.946  13.435   2.574
71505SOL     OW16353   5.803  13.526   6.887
71505SOL    HW116354   5.761  13.551   6.969
71505SOL    HW216355   5.789  13.601   6.829
71506SOL     OW16356  13.174  11.081   8.744
71506SOL    HW116357  13.225  11.080   8.825
71506SOL    HW216358  13.159  10.988   8.724
71507SOL     OW16359  10.616   4.379   8.115
71507SOL    HW116360  10.697   4.355   8.070
71507SOL    HW216361  10.558   4.304   8.102
71508SOL     OW16362   2.500   7.566   1.401
71508SOL    HW116363   2.576   7.558   1.344
71508SOL    HW216364   2.433   7.607   1.347
71509SOL     OW16365  14.160   8.340   6.262
71509SOL    HW116366  14.072   8.349   6.225
71509SOL    HW216367  14.147   8.338   6.356
71510SOL     OW16368   6.800  12.294  13.077
71510SOL    HW116369   6.734  12.342  13.126
71510SOL    HW216370   6.882  12.314  13.121
71511SOL     OW16371   3.627   2.878  10.856
71511SOL    HW116372   3.615   2.958  10.805
71511SOL    HW216373   3.545   2.867  10.904
71512SOL     OW16374   4.265   2.385   6.062
71512SOL    HW116375   4.212   2.400   5.984
71512SOL    HW216376   4.320   2.310   6.040
71513SOL     OW16377   6.146   7.653   3.871
71513SOL    HW116378   6.155   7.665   3.965
71513SOL    HW216379   6.234   7.664   3.836
71514SOL     OW16380   7.031   5.895   1.949
71514SOL    HW116381   6.986   5.819   1.986
71514SOL    HW216382   6.960   5.951   1.916
71515SOL     OW16383   9.173  10.226  11.287
71515SOL    HW116384   9.126  10.277  11.353
71515SOL    HW216385   9.238  10.286  11.252
71516SOL     OW16386   4.342   1.401   4.017
71516SOL    HW116387   4.256   1.364   3.997
71516SOL    HW216388   4.328   1.453   4.096
71517SOL     OW16389   5.196   7.793   2.925
71517SOL    HW116390   5.114   7.772   2.971
71517SOL    HW216391   5.200   7.888   2.925
71518SOL     OW16392   2.722   4.784  12.786
71518SOL    HW116393   2.696   4.869  12.821
71518SOL    HW216394   2.793   4.803  12.725
71519SOL     OW16395   5.666   3.142   4.281
71519SOL    HW116396   5.641   3.102   4.364
71519SOL    HW216397   5.600   3.210   4.266
71520SOL     OW16398   7.905   6.708   3.047
71520SOL    HW116399   7.927   6.779   2.987
71520SOL    HW216400   7.984   6.696   3.100
71521SOL     OW16401  10.827  12.514   7.606
71521SOL    HW116402  10.791  12.602   7.616
71521SOL    HW216403  10.834  12.502   7.511
71522SOL     OW16404  11.410   3.540  11.728
71522SOL    HW116405  11.335   3.598  11.715
71522SOL    HW216406  11.430   3.546  11.821
71523SOL     OW16407   8.342  12.023   3.944
71523SOL    HW116408   8.254  11.986   3.950
71523SOL    HW216409   8.391  11.980   4.015
71524SOL     OW16410   4.159   9.997   1.500
71524SOL    HW116411   4.154   9.934   1.429
71524SOL    HW216412   4.083   9.977   1.555
71525SOL     OW16413  11.158  13.660  14.302
71525SOL    HW116414  11.225  13.639  14.367
71525SOL    HW216415  11.116  13.576  14.284
71526SOL     OW16416  12.278   3.200   6.813
71526SOL    HW116417  12.294   3.167   6.901
71526SOL    HW216418  12.192   3.242   6.819
71527SOL     OW16419   7.116  14.447   1.232
71527SOL    HW116420   7.075  14.365   1.205
71527SOL    HW216421   7.155  14.482   1.152
71528SOL     OW16422  12.424   9.808   5.969
71528SOL    HW116423  12.494   9.754   5.930
71528SOL    HW216424  12.471   9.872   6.022
71529SOL     OW16425   3.690  14.042  11.751
71529SOL    HW116426   3.644  14.109  11.802
71529SOL    HW216427   3.657  13.959  11.787
71530SOL     OW16428  10.987   0.516   8.380
71530SOL    HW116429  11.042   0.580   8.426
71530SOL    HW216430  11.023   0.431   8.407
71531SOL     OW16431  12.536   6.183   9.366
71531SOL    HW116432  12.523   6.187   9.461
71531SOL    HW216433  12.504   6.267   9.334
71532SOL     OW16434   6.427   8.716   7.022
71532SOL    HW116435   6.478   8.726   6.941
71532SOL    HW216436   6.380   8.798   7.030
71533SOL     OW16437  13.566  13.221  10.773
71533SOL    HW116438  13.530  13.186  10.854
71533SOL    HW216439  13.586  13.312  10.792
71534SOL     OW16440   9.125  11.940   7.916
71534SOL    HW116441   9.084  11.899   7.993
71534SOL    HW216442   9.066  11.918   7.843
71535SOL     OW16443   4.688  14.180   6.997
71535SOL    HW116444   4.759  14.222   7.046
71535SOL    HW216445   4.688  14.222   6.912
71536SOL     OW16446  12.997   9.918   5.075
71536SOL    HW116447  12.911   9.959   5.080
71536SOL    HW216448  12.990   9.858   5.001
71537SOL     OW16449   6.454   7.149   9.687
71537SOL    HW116450   6.390   7.175   9.621
71537SOL    HW216451   6.538   7.149   9.642
71538SOL     OW16452   7.308   2.655  11.580
71538SOL    HW116453   7.299   2.735  11.529
71538SOL    HW216454   7.329   2.587  11.515
71539SOL     OW16455  10.061  11.437   6.363
71539SOL    HW116456  10.078  11.396   6.278
71539SOL    HW216457  10.134  11.499   6.375
71540SOL     OW16458   4.034  11.142   5.154
71540SOL    HW116459   4.127  11.163   5.161
71540SOL    HW216460   3.991  11.204   5.212
71541SOL     OW16461   5.593   4.445  14.135
71541SOL    HW116462   5.630   4.359  14.155
71541SOL    HW216463   5.501   4.428  14.118
71542SOL     OW16464  13.012   9.040   9.673
71542SOL    HW116465  13.061   9.115   9.707
71542SOL    HW216466  13.025   8.971   9.738
71543SOL     OW16467   7.237   7.034   8.192
71543SOL    HW116468   7.282   6.953   8.216
71543SOL    HW216469   7.304   7.087   8.150
71544SOL     OW16470   4.637   4.649   3.481
71544SOL    HW116471   4.575   4.647   3.555
71544SOL    HW216472   4.581   4.642   3.403
71545SOL     OW16473   8.699   7.171  10.781
71545SOL    HW116474   8.758   7.096  10.786
71545SOL    HW216475   8.612   7.134  10.790
71546SOL     OW16476   7.463  11.999  13.281
71546SOL    HW116477   7.459  12.094  13.284
71546SOL    HW216478   7.388  11.969  13.332
71547SOL     OW16479   8.388  13.328  13.800
71547SOL    HW116480   8.400  13.308  13.708
71547SOL    HW216481   8.449  13.271  13.846
71548SOL     OW16482   6.598   1.476   5.450
71548SOL    HW116483   6.511   1.449   5.477
71548SOL    HW216484   6.596   1.473   5.354
71549SOL     OW16485   5.391   0.572   4.306
71549SOL    HW116486   5.385   0.490   4.257
71549SOL    HW216487   5.440   0.631   4.249
71550SOL     OW16488  13.462  11.051   4.823
71550SOL    HW116489  13.474  11.127   4.765
71550SOL    HW216490  13.429  11.088   4.904
71551SOL     OW16491   8.461   3.548   7.753
71551SOL    HW116492   8.547   3.520   7.721
71551SOL    HW216493   8.443   3.490   7.827
71552SOL     OW16494   7.516   5.585  11.840
71552SOL    HW116495   7.548   5.536  11.764
71552SOL    HW216496   7.428   5.613  11.814
71553SOL     OW16497   6.818   9.982   2.080
71553SOL    HW116498   6.764   9.935   2.144
71553SOL    HW216499   6.895  10.010   2.130
71554SOL     OW16500   5.460   4.899   9.230
71554SOL    HW116501   5.424   4.906   9.142
71554SOL    HW216502   5.493   4.987   9.250
71555SOL     OW16503  10.348   2.228  10.804
71555SOL    HW116504  10.259   2.262  10.793
71555SOL    HW216505  10.396   2.263  10.729
71556SOL     OW16506  13.962  11.333   9.978
71556SOL    HW116507  13.900  11.340  10.051
71556SOL    HW216508  14.045  11.363  10.014
71557SOL     OW16509  13.493  12.762   3.434
71557SOL    HW116510  13.420  12.720   3.479
71557SOL    HW216511  13.569  12.708   3.456
71558SOL     OW16512   6.703  13.243   9.074
71558SOL    HW116513   6.772  13.198   9.123
71558SOL    HW216514   6.749  13.307   9.020
71559SOL     OW16515   3.921  11.526   9.465
71559SOL    HW116516   3.871  11.597   9.505
71559SOL    HW216517   3.908  11.451   9.524
71560SOL     OW16518  10.864   7.253  11.153
71560SOL    HW116519  10.826   7.212  11.075
71560SOL    HW216520  10.789   7.271  11.210
71561SOL     OW16521  10.511  13.582   5.424
71561SOL    HW116522  10.580  13.550   5.482
71561SOL    HW216523  10.432  13.539   5.455
71562SOL     OW16524  12.067   5.843  13.614
71562SOL    HW116525  12.001   5.780  13.585
71562SOL    HW216526  12.026   5.928  13.600
71563SOL     OW16527   4.552   5.180   3.211
71563SOL    HW116528   4.518   5.094   3.187
71563SOL    HW216529   4.578   5.172   3.303
71564SOL     OW16530  11.882   6.384  11.670
71564SOL    HW116531  11.849   6.473  11.657
71564SOL    HW216532  11.971   6.387  11.636
71565SOL     OW16533  10.985   3.034   2.309
71565SOL    HW116534  10.964   2.941   2.309
71565SOL    HW216535  10.978   3.060   2.401
71566SOL     OW16536  13.399  14.130  11.070
71566SOL    HW116537  13.474  14.143  11.128
71566SOL    HW216538  13.346  14.063  11.114
71567SOL     OW16539  13.956   6.199   2.364
71567SOL    HW116540  13.927   6.128   2.420
71567SOL    HW216541  14.052   6.200   2.373
71568SOL     OW16542   1.103   4.618   4.839
71568SOL    HW116543   1.076   4.677   4.767
71568SOL    HW216544   1.064   4.534   4.816
71569SOL     OW16545   8.144  13.764  10.272
71569SOL    HW116546   8.176  13.734  10.187
71569SOL    HW216547   8.218  13.751  10.332
71570SOL     OW16548  12.772  11.501   7.558
71570SOL    HW116549  12.788  11.439   7.629
71570SOL    HW216550  12.786  11.450   7.478
71571SOL     OW16551  12.565  14.650   8.274
71571SOL    HW116552  12.600  14.561   8.274
71571SOL    HW216553  12.634  14.703   8.315
71572SOL     OW16554   4.707   3.620   4.864
71572SOL    HW116555   4.618   3.652   4.848
71572SOL    HW216556   4.758   3.652   4.789
71573SOL     OW16557   9.765   5.877  10.968
71573SOL    HW116558   9.821   5.809  11.006
71573SOL    HW216559   9.768   5.861  10.874
71574SOL     OW16560   6.623   8.118   6.108
71574SOL    HW116561   6.575   8.115   6.191
71574SOL    HW216562   6.714   8.105   6.132
71575SOL     OW16563   0.366   9.183  11.512
71575SOL    HW116564   0.356   9.277  11.530
71575SOL    HW216565   0.370   9.178  11.417
71576SOL     OW16566   4.160   5.866   8.301
71576SOL    HW116567   4.170   5.926   8.375
71576SOL    HW216568   4.066   5.860   8.287
71577SOL     OW16569   3.312   0.655  11.391
71577SOL    HW116570   3.397   0.682  11.356
71577SOL    HW216571   3.259   0.735  11.390
71578SOL     OW16572  11.781   5.437  12.326
71578SOL    HW116573  11.778   5.454  12.232
71578SOL    HW216574  11.743   5.350  12.336
71579SOL     OW16575   9.077  12.347   6.964
71579SOL    HW116576   8.994  12.324   7.006
71579SOL    HW216577   9.054  12.364   6.873
71580SOL     OW16578   5.359  13.268   4.547
71580SOL    HW116579   5.271  13.300   4.527
71580SOL    HW216580   5.353  13.173   4.536
71581SOL     OW16581   0.978  12.181   0.433
71581SOL    HW116582   0.938  12.240   0.497
71581SOL    HW216583   0.917  12.180   0.360
71582SOL     OW16584   6.445  11.837   3.041
71582SOL    HW116585   6.388  11.794   2.978
71582SOL    HW216586   6.385  11.883   3.100
71583SOL     OW16587   2.136   8.373   4.143
71583SOL    HW116588   2.112   8.359   4.052
71583SOL    HW216589   2.054   8.365   4.191
71584SOL     OW16590  11.811   0.918   2.625
71584SOL    HW116591  11.775   0.997   2.585
71584SOL    HW216592  11.905   0.930   2.621
71585SOL     OW16593   4.753   8.812   0.388
71585SOL    HW116594   4.693   8.819   0.463
71585SOL    HW216595   4.836   8.784   0.426
71586SOL     OW16596   6.913   0.527   5.849
71586SOL    HW116597   6.864   0.605   5.872
71586SOL    HW216598   6.852   0.455   5.864
71587SOL     OW16599  11.449   4.364  10.778
71587SOL    HW116600  11.500   4.375  10.858
71587SOL    HW216601  11.514   4.349  10.710
71588SOL     OW16602   7.436  10.554   3.449
71588SOL    HW116603   7.473  10.595   3.371
71588SOL    HW216604   7.401  10.471   3.418
71589SOL     OW16605   7.057  11.631  14.282
71589SOL    HW116606   7.116  11.658  14.353
71589SOL    HW216607   6.978  11.683  14.296
71590SOL     OW16608  14.713   4.678   9.673
71590SOL    HW116609  14.637   4.619   9.677
71590SOL    HW216610  14.749   4.665   9.586
71591SOL     OW16611  12.513  14.613   9.063
71591SOL    HW116612  12.565  14.693   9.055
71591SOL    HW216613  12.558  14.561   9.130
71592SOL     OW16614   4.110   2.402  14.487
71592SOL    HW116615   4.053   2.477  14.473
71592SOL    HW216616   4.148   2.384  14.401
71593SOL     OW16617   0.093   8.032   6.291
71593SOL    HW116618   0.125   8.121   6.304
71593SOL    HW216619   0.166   7.976   6.318
71594SOL     OW16620  12.024   6.314   2.382
71594SOL    HW116621  12.040   6.399   2.423
71594SOL    HW216622  11.934   6.319   2.351
71595SOL     OW16623   5.063   5.203   5.820
71595SOL    HW116624   5.057   5.297   5.834
71595SOL    HW216625   5.029   5.164   5.901
71596SOL     OW16626   8.816  11.567  11.742
71596SOL    HW116627   8.881  11.610  11.798
71596SOL    HW216628   8.855  11.568  11.655
71597SOL     OW16629   5.859   3.858   7.546
71597SOL    HW116630   5.948   3.824   7.557
71597SOL    HW216631   5.804   3.780   7.541
71598SOL     OW16632  13.998   2.617   2.524
71598SOL    HW116633  14.063   2.622   2.595
71598SOL    HW216634  14.031   2.548   2.466
71599SOL     OW16635   3.443   1.318   4.185
71599SOL    HW116636   3.413   1.377   4.115
71599SOL    HW216637   3.375   1.324   4.252
71600SOL     OW16638   9.750   6.388   6.398
71600SOL    HW116639   9.702   6.396   6.481
71600SOL    HW216640   9.698   6.440   6.336
71601SOL     OW16641  11.770   3.304  12.552
71601SOL    HW116642  11.862   3.278  12.565
71601SOL    HW216643  11.737   3.317  12.641
71602SOL     OW16644   0.402   2.127  11.296
71602SOL    HW116645   0.394   2.155  11.387
71602SOL    HW216646   0.495   2.137  11.276
71603SOL     OW16647   2.154  11.490   2.109
71603SOL    HW116648   2.203  11.410   2.128
71603SOL    HW216649   2.153  11.495   2.013
71604SOL     OW16650   7.696  10.026  12.267
71604SOL    HW116651   7.769   9.987  12.315
71604SOL    HW216652   7.702   9.988  12.179
71605SOL     OW16653   9.539   7.020  13.811
71605SOL    HW116654   9.592   6.952  13.768
71605SOL    HW216655   9.477   7.047  13.744
71606SOL     OW16656   4.830   5.563   7.109
71606SOL    HW116657   4.794   5.484   7.149
71606SOL    HW216658   4.923   5.544   7.096
71607SOL     OW16659   9.783   2.277   0.404
71607SOL    HW116660   9.781   2.189   0.366
71607SOL    HW216661   9.693   2.293   0.432
71608SOL     OW16662   7.529   6.560   5.132
71608SOL    HW116663   7.523   6.621   5.058
71608SOL    HW216664   7.583   6.488   5.099
71609SOL     OW16665   3.819   5.960  10.451
71609SOL    HW116666   3.764   6.008  10.513
71609SOL    HW216667   3.767   5.956  10.371
71610SOL     OW16668   7.335   1.697   1.716
71610SOL    HW116669   7.355   1.777   1.764
71610SOL    HW216670   7.410   1.640   1.732
71611SOL     OW16671  13.483   2.412   9.158
71611SOL    HW116672  13.557   2.405   9.097
71611SOL    HW216673  13.491   2.501   9.194
71612SOL     OW16674  13.885   7.945   1.061
71612SOL    HW116675  13.833   7.980   0.988
71612SOL    HW216676  13.903   8.022   1.115
71613SOL     OW16677   5.300   0.801   8.847
71613SOL    HW116678   5.342   0.853   8.915
71613SOL    HW216679   5.219   0.770   8.887
71614SOL     OW16680   1.122  12.251  12.354
71614SOL    HW116681   1.132  12.262  12.259
71614SOL    HW216682   1.195  12.299  12.392
71615SOL     OW16683  13.728  13.323  13.725
71615SOL    HW116684  13.767  13.246  13.684
71615SOL    HW216685  13.695  13.376  13.653
71616SOL     OW16686  14.791   5.943   5.727
71616SOL    HW116687  14.725   5.912   5.788
71616SOL    HW216688  14.796   5.874   5.660
71617SOL     OW16689   8.973   7.031   3.123
71617SOL    HW116690   8.928   6.991   3.049
71617SOL    HW216691   8.986   7.122   3.096
71618SOL     OW16692   5.497   1.524  13.091
71618SOL    HW116693   5.579   1.478  13.073
71618SOL    HW216694   5.445   1.461  13.141
71619SOL     OW16695   2.093  13.820  12.478
71619SOL    HW116696   2.108  13.853  12.390
71619SOL    HW216697   2.026  13.752  12.467
71620SOL     OW16698  14.271   4.107   7.663
71620SOL    HW116699  14.223   4.036   7.706
71620SOL    HW216700  14.239   4.105   7.572
71621SOL     OW16701   0.012  13.984   7.934
71621SOL    HW116702   0.106  13.966   7.941
71621SOL    HW216703  14.877  14.060   7.990
71622SOL     OW16704  13.055  10.925   9.102
71622SOL    HW116705  13.110  10.850   9.120
71622SOL    HW216706  13.108  10.982   9.046
71623SOL     OW16707   7.094   5.661   2.967
71623SOL    HW116708   7.124   5.619   2.886
71623SOL    HW216709   7.026   5.723   2.938
71624SOL     OW16710   2.853  11.028   9.848
71624SOL    HW116711   2.906  10.982   9.913
71624SOL    HW216712   2.881  10.991   9.764
71625SOL     OW16713   2.865   4.412   3.447
71625SOL    HW116714   2.914   4.369   3.517
71625SOL    HW216715   2.886   4.361   3.369
71626SOL     OW16716  10.938  10.658   0.331
71626SOL    HW116717  10.842  10.663   0.329
71626SOL    HW216718  10.960  10.655   0.424
71627SOL     OW16719   0.899  12.454  12.550
71627SOL    HW116720   0.805  12.453  12.535
71627SOL    HW216721   0.920  12.545  12.569
71628SOL     OW16722   3.499  14.456  10.015
71628SOL    HW116723   3.545  14.401   9.952
71628SOL    HW216724   3.464  14.528   9.963
71629SOL     OW16725   4.064   5.873  14.221
71629SOL    HW116726   4.078   5.793  14.272
71629SOL    HW216727   4.051   5.842  14.132
71630SOL     OW16728   5.525  13.070  13.352
71630SOL    HW116729   5.585  13.063  13.427
71630SOL    HW216730   5.452  13.122  13.385
71631SOL     OW16731   3.795   0.375  10.189
71631SOL    HW116732   3.882   0.358  10.153
71631SOL    HW216733   3.789   0.318  10.265
71632SOL     OW16734   9.555   1.044   9.860
71632SOL    HW116735   9.514   1.080   9.938
71632SOL    HW216736   9.649   1.052   9.877
71633SOL     OW16737   1.692  13.095   4.170
71633SOL    HW116738   1.763  13.083   4.105
71633SOL    HW216739   1.733  13.143   4.241
71634SOL     OW16740   9.318  14.831   1.834
71634SOL    HW116741   9.253   0.018   1.852
71634SOL    HW216742   9.282  14.779   1.762
71635SOL     OW16743   0.353  11.069  14.044
71635SOL    HW116744   0.281  11.052  14.105
71635SOL    HW216745   0.422  11.106  14.098
71636SOL     OW16746   7.167  14.392   2.431
71636SOL    HW116747   7.238  14.422   2.374
71636SOL    HW216748   7.120  14.471   2.455
71637SOL     OW16749   2.123   4.274   6.554
71637SOL    HW116750   2.029   4.262   6.563
71637SOL    HW216751   2.147   4.333   6.625
71638SOL     OW16752  14.673   3.663   5.546
71638SOL    HW116753  14.742   3.712   5.503
71638SOL    HW216754  14.622   3.624   5.475
71639SOL     OW16755  11.088  14.063   5.965
71639SOL    HW116756  11.069  14.047   6.057
71639SOL    HW216757  11.121  14.153   5.962
71640SOL     OW16758   5.518  11.054  11.833
71640SOL    HW116759   5.540  10.987  11.768
71640SOL    HW216760   5.434  11.089  11.804
71641SOL     OW16761   7.048  11.473   1.253
71641SOL    HW116762   7.128  11.444   1.209
71641SOL    HW216763   7.031  11.405   1.318
71642SOL     OW16764   1.996   1.984   0.408
71642SOL    HW116765   1.998   2.048   0.336
71642SOL    HW216766   2.083   1.990   0.447
71643SOL     OW16767   3.568   5.433   4.942
71643SOL    HW116768   3.532   5.497   4.880
71643SOL    HW216769   3.631   5.483   4.994
71644SOL     OW16770   0.920   1.814   2.329
71644SOL    HW116771   0.856   1.744   2.318
71644SOL    HW216772   0.941   1.841   2.239
71645SOL     OW16773  12.811   5.861   8.400
71645SOL    HW116774  12.727   5.882   8.360
71645SOL    HW216775  12.807   5.899   8.488
71646SOL     OW16776   6.288   0.521   0.415
71646SOL    HW116777   6.374   0.480   0.405
71646SOL    HW216778   6.234   0.452   0.453
71647SOL     OW16779   3.476  10.087  13.441
71647SOL    HW116780   3.513  10.173  13.422
71647SOL    HW216781   3.551  10.034  13.469
71648SOL     OW16782  14.733   4.802  11.223
71648SOL    HW116783  14.730   4.892  11.190
71648SOL    HW216784  14.710   4.809  11.315
71649SOL     OW16785   8.033   0.982   9.525
71649SOL    HW116786   8.089   0.910   9.495
71649SOL    HW216787   8.002   0.954   9.612
71650SOL     OW16788   1.722  12.796   1.734
71650SOL    HW116789   1.716  12.702   1.748
71650SOL    HW216790   1.802  12.822   1.780
71651SOL     OW16791   9.828  13.752   1.889
71651SOL    HW116792   9.895  13.751   1.957
71651SOL    HW216793   9.765  13.685   1.916
71652SOL     OW16794  12.636   4.331   1.055
71652SOL    HW116795  12.639   4.395   1.127
71652SOL    HW216796  12.695   4.368   0.989
71653SOL     OW16797   8.164   0.705   0.592
71653SOL    HW116798   8.180   0.628   0.537
71653SOL    HW216799   8.228   0.770   0.562
71654SOL     OW16800   3.514   4.952  11.864
71654SOL    HW116801   3.492   4.906  11.782
71654SOL    HW216802   3.608   4.939  11.874
71655SOL     OW16803   5.322  12.665   1.609
71655SOL    HW116804   5.336  12.601   1.540
71655SOL    HW216805   5.269  12.619   1.674
71656SOL     OW16806   8.429  11.713   0.373
71656SOL    HW116807   8.410  11.648   0.441
71656SOL    HW216808   8.518  11.694   0.345
71657SOL     OW16809   5.351   7.959   8.433
71657SOL    HW116810   5.305   7.918   8.360
71657SOL    HW216811   5.389   8.039   8.396
71658SOL     OW16812  11.285  12.398  12.858
71658SOL    HW116813  11.379  12.394  12.841
71658SOL    HW216814  11.252  12.313  12.828
71659SOL     OW16815   6.305   9.797  12.753
71659SOL    HW116816   6.374   9.859  12.778
71659SOL    HW216817   6.291   9.744  12.831
71660SOL     OW16818   7.739  10.379   8.997
71660SOL    HW116819   7.719  10.456   9.049
71660SOL    HW216820   7.668  10.318   9.015
71661SOL     OW16821   9.781  11.300   3.180
71661SOL    HW116822   9.724  11.229   3.151
71661SOL    HW216823   9.720  11.369   3.207
71662SOL     OW16824   5.393   1.012   9.706
71662SOL    HW116825   5.440   0.959   9.771
71662SOL    HW216826   5.309   0.967   9.695
71663SOL     OW16827  14.815  12.147   5.349
71663SOL    HW116828  14.808  12.214   5.417
71663SOL    HW216829  14.727  12.110   5.342
71664SOL     OW16830   0.406   8.189  14.582
71664SOL    HW116831   0.314   8.215  14.572
71664SOL    HW216832   0.417   8.116  14.520
71665SOL     OW16833   0.850   0.228   6.408
71665SOL    HW116834   0.864   0.234   6.503
71665SOL    HW216835   0.763   0.265   6.394
71666SOL     OW16836   4.781  13.408  12.383
71666SOL    HW116837   4.876  13.413  12.377
71666SOL    HW216838   4.753  13.497  12.402
71667SOL     OW16839  10.080   9.208   9.751
71667SOL    HW116840  10.122   9.230   9.834
71667SOL    HW216841  10.100   9.115   9.738
71668SOL     OW16842   9.473   3.198   7.821
71668SOL    HW116843   9.433   3.141   7.887
71668SOL    HW216844   9.465   3.286   7.857
71669SOL     OW16845   2.318  10.539  10.930
71669SOL    HW116846   2.388  10.487  10.968
71669SOL    HW216847   2.316  10.619  10.982
71670SOL     OW16848   6.551   1.235   0.435
71670SOL    HW116849   6.624   1.177   0.457
71670SOL    HW216850   6.476   1.176   0.422
71671SOL     OW16851   3.768   0.286   9.871
71671SOL    HW116852   3.820   0.323   9.799
71671SOL    HW216853   3.775   0.352   9.941
71672SOL     OW16854  10.925   7.706  10.511
71672SOL    HW116855  10.839   7.681  10.477
71672SOL    HW216856  10.955   7.628  10.559
71673SOL     OW16857   2.767   1.838   6.336
71673SOL    HW116858   2.804   1.753   6.310
71673SOL    HW216859   2.808   1.857   6.420
71674SOL     OW16860  14.417   1.111   1.617
71674SOL    HW116861  14.503   1.078   1.594
71674SOL    HW216862  14.364   1.032   1.630
71675SOL     OW16863  13.885  13.846  13.443
71675SOL    HW116864  13.794  13.858  13.470
71675SOL    HW216865  13.905  13.755  13.465
71676SOL     OW16866   1.433  11.394  12.498
71676SOL    HW116867   1.491  11.326  12.534
71676SOL    HW216868   1.390  11.352  12.423
71677SOL     OW16869  11.119  12.745   1.317
71677SOL    HW116870  11.200  12.709   1.282
71677SOL    HW216871  11.050  12.694   1.273
71678SOL     OW16872   3.083  12.303   5.620
71678SOL    HW116873   3.089  12.275   5.528
71678SOL    HW216874   3.159  12.262   5.662
71679SOL     OW16875   9.584   2.304   3.068
71679SOL    HW116876   9.534   2.248   3.127
71679SOL    HW216877   9.675   2.294   3.097
71680SOL     OW16878   2.394   3.205   7.626
71680SOL    HW116879   2.412   3.114   7.652
71680SOL    HW216880   2.404   3.255   7.707
71681SOL     OW16881   9.092   7.059   7.895
71681SOL    HW116882   9.106   7.004   7.972
71681SOL    HW216883   9.171   7.113   7.890
71682SOL     OW16884   7.148   5.438   1.931
71682SOL    HW116885   7.061   5.417   1.896
71682SOL    HW216886   7.179   5.508   1.873
71683SOL     OW16887  12.179  12.740   1.450
71683SOL    HW116888  12.216  12.695   1.374
71683SOL    HW216889  12.101  12.690   1.472
71684SOL     OW16890   5.308   3.380   7.532
71684SOL    HW116891   5.400   3.360   7.515
71684SOL    HW216892   5.307   3.411   7.623
71685SOL     OW16893  10.350   8.276   4.607
71685SOL    HW116894  10.386   8.362   4.586
71685SOL    HW216895  10.282   8.293   4.672
71686SOL     OW16896   1.717   0.503   9.914
71686SOL    HW116897   1.677   0.491  10.000
71686SOL    HW216898   1.809   0.520   9.933
71687SOL     OW16899   7.412   8.303  12.413
71687SOL    HW116900   7.491   8.272  12.457
71687SOL    HW216901   7.398   8.391  12.448
71688SOL     OW16902   8.280  11.568  14.124
71688SOL    HW116903   8.337  11.635  14.086
71688SOL    HW216904   8.340  11.501  14.157
71689SOL     OW16905  11.505   9.512   5.368
71689SOL    HW116906  11.479   9.541   5.456
71689SOL    HW216907  11.429   9.531   5.313
71690SOL     OW16908   2.343   4.088  14.181
71690SOL    HW116909   2.267   4.143  14.195
71690SOL    HW216910   2.344   4.029  14.256
71691SOL     OW16911  12.910  14.591   0.611
71691SOL    HW116912  12.887  14.672   0.565
71691SOL    HW216913  12.968  14.620   0.681
71692SOL     OW16914  12.218   0.371  10.725
71692SOL    HW116915  12.193   0.282  10.701
71692SOL    HW216916  12.295   0.391  10.673
71693SOL     OW16917  11.338  11.483  13.778
71693SOL    HW116918  11.311  11.418  13.712
71693SOL    HW216919  11.320  11.440  13.861
71694SOL     OW16920   3.489   4.424   0.422
71694SOL    HW116921   3.519   4.488   0.357
71694SOL    HW216922   3.561   4.361   0.428
71695SOL     OW16923   9.052   7.980   6.449
71695SOL    HW116924   9.042   8.008   6.540
71695SOL    HW216925   9.113   7.907   6.452
71696SOL     OW16926  14.440  14.036  11.207
71696SOL    HW116927  14.430  13.963  11.268
71696SOL    HW216928  14.374  14.099  11.234
71697SOL     OW16929   0.464  13.262   0.573
71697SOL    HW116930   0.555  13.283   0.591
71697SOL    HW216931   0.442  13.191   0.633
71698SOL     OW16932   0.589   1.800  11.639
71698SOL    HW116933   0.645   1.877  11.649
71698SOL    HW216934   0.518   1.830  11.582
71699SOL     OW16935   2.830  12.395   1.893
71699SOL    HW116936   2.738  12.411   1.869
71699SOL    HW216937   2.878  12.469   1.854
71700SOL     OW16938  11.068   9.829  11.916
71700SOL    HW116939  11.111   9.839  11.831
71700SOL    HW216940  11.002   9.898  11.918
71701SOL     OW16941   3.784   5.184  10.406
71701SOL    HW116942   3.797   5.168  10.312
71701SOL    HW216943   3.761   5.098  10.441
71702SOL     OW16944   4.588   5.745   8.929
71702SOL    HW116945   4.590   5.707   8.841
71702SOL    HW216946   4.583   5.669   8.988
71703SOL     OW16947   5.998   8.719   6.193
71703SOL    HW116948   5.966   8.644   6.242
71703SOL    HW216949   6.043   8.681   6.118
71704SOL     OW16950  10.907   7.261   5.919
71704SOL    HW116951  10.992   7.223   5.897
71704SOL    HW216952  10.845   7.191   5.902
71705SOL     OW16953   7.839   4.707   5.079
71705SOL    HW116954   7.830   4.652   5.156
71705SOL    HW216955   7.932   4.707   5.060
71706SOL     OW16956   7.407   0.040   5.180
71706SOL    HW116957   7.339   0.053   5.114
71706SOL    HW216958   7.484   0.013   5.130
71707SOL     OW16959  14.555   1.334  13.618
71707SOL    HW116960  14.642   1.298  13.637
71707SOL    HW216961  14.521   1.359  13.704
71708SOL     OW16962   1.940  10.379  13.277
71708SOL    HW116963   2.032  10.402  13.293
71708SOL    HW216964   1.944  10.290  13.241
71709SOL     OW16965  10.471  12.983   0.469
71709SOL    HW116966  10.481  12.887   0.467
71709SOL    HW216967  10.511  13.013   0.388
71710SOL     OW16968   2.679  14.781   6.573
71710SOL    HW116969   2.594  14.775   6.531
71710SOL    HW216970   2.705  14.873   6.565
71711SOL     OW16971   0.191  10.988  14.254
71711SOL    HW116972   0.106  10.947  14.266
71711SOL    HW216973   0.201  11.047  14.329
71712SOL     OW16974   5.403   5.879   6.180
71712SOL    HW116975   5.490   5.850   6.151
71712SOL    HW216976   5.342   5.827   6.127
71713SOL     OW16977  10.417   5.220   6.108
71713SOL    HW116978  10.417   5.138   6.159
71713SOL    HW216979  10.500   5.218   6.060
71714SOL     OW16980   6.732   7.815   0.193
71714SOL    HW116981   6.666   7.746   0.185
71714SOL    HW216982   6.792   7.799   0.120
71715SOL     OW16983  14.255   8.275   3.612
71715SOL    HW116984  14.313   8.301   3.541
71715SOL    HW216985  14.232   8.357   3.655
71716SOL     OW16986   2.267   1.433  13.904
71716SOL    HW116987   2.180   1.453  13.869
71716SOL    HW216988   2.250   1.401  13.992
71717SOL     OW16989   8.023   5.723  13.744
71717SOL    HW116990   8.019   5.630  13.764
71717SOL    HW216991   7.956   5.763  13.800
71718SOL     OW16992   8.115  11.288   1.570
71718SOL    HW116993   8.159  11.203   1.569
71718SOL    HW216994   8.182  11.349   1.603
71719SOL     OW16995  13.328   8.484   1.910
71719SOL    HW116996  13.250   8.541   1.909
71719SOL    HW216997  13.295   8.400   1.879
71720SOL     OW16998  12.559   6.837   6.880
71720SOL    HW116999  12.628   6.779   6.846
71720SOL    HW217000  12.517   6.785   6.949
71721SOL     OW17001   6.042   3.615   9.208
71721SOL    HW117002   5.972   3.563   9.248
71721SOL    HW217003   6.065   3.567   9.128
71722SOL     OW17004   3.159   7.779   4.807
71722SOL    HW117005   3.253   7.797   4.814
71722SOL    HW217006   3.120   7.824   4.882
71723SOL     OW17007   2.350  11.943  14.639
71723SOL    HW117008   2.439  11.949  14.672
71723SOL    HW217009   2.301  12.008  14.689
71724SOL     OW17010   5.384   8.533   7.234
71724SOL    HW117011   5.296   8.506   7.262
71724SOL    HW217012   5.421   8.576   7.311
71725SOL     OW17013   7.629   6.148   9.921
71725SOL    HW117014   7.722   6.127   9.919
71725SOL    HW217015   7.612   6.178  10.010
71726SOL     OW17016   9.063   0.722  11.716
71726SOL    HW117017   9.008   0.786  11.672
71726SOL    HW217018   9.132   0.702  11.652
71727SOL     OW17019   7.660   7.928   5.609
71727SOL    HW117020   7.734   7.868   5.619
71727SOL    HW217021   7.612   7.920   5.692
71728SOL     OW17022  10.784   8.807   6.593
71728SOL    HW117023  10.714   8.761   6.640
71728SOL    HW217024  10.829   8.738   6.544
71729SOL     OW17025   7.075   7.713   0.923
71729SOL    HW117026   7.119   7.667   0.995
71729SOL    HW217027   7.056   7.644   0.859
71730SOL     OW17028  13.654  14.802   2.086
71730SOL    HW117029  13.628  14.791   1.995
71730SOL    HW217030  13.631   0.013   2.106
71731SOL     OW17031  11.749   3.042  14.687
71731SOL    HW117032  11.768   3.073  14.775
71731SOL    HW217033  11.748   3.122  14.633
71732SOL     OW17034  14.708   7.007  12.400
71732SOL    HW117035  14.637   6.967  12.348
71732SOL    HW217036  14.785   7.000  12.344
71733SOL     OW17037   5.930   1.444   0.296
71733SOL    HW117038   5.921   1.532   0.332
71733SOL    HW217039   5.913   1.454   0.202
71734SOL     OW17040  12.562   9.129  12.164
71734SOL    HW117041  12.600   9.201  12.113
71734SOL    HW217042  12.623   9.056  12.152
71735SOL     OW17043   3.084   4.086  13.632
71735SOL    HW117044   3.165   4.114  13.588
71735SOL    HW217045   3.075   3.993  13.608
71736SOL     OW17046   5.512   3.806  12.805
71736SOL    HW117047   5.478   3.815  12.894
71736SOL    HW217048   5.502   3.713  12.784
71737SOL     OW17049   8.754  12.034   4.188
71737SOL    HW117050   8.821  11.987   4.238
71737SOL    HW217051   8.727  12.105   4.246
71738SOL     OW17052  13.007   4.212   6.218
71738SOL    HW117053  12.974   4.239   6.304
71738SOL    HW217054  13.060   4.135   6.236
71739SOL     OW17055  11.854   9.310   2.300
71739SOL    HW117056  11.896   9.355   2.226
71739SOL    HW217057  11.812   9.380   2.350
71740SOL     OW17058   5.933  12.666   2.946
71740SOL    HW117059   5.930  12.675   3.041
71740SOL    HW217060   5.843  12.643   2.921
71741SOL     OW17061   1.068   2.665   4.301
71741SOL    HW117062   1.002   2.689   4.236
71741SOL    HW217063   1.114   2.747   4.319
71742SOL     OW17064  11.051   9.242   2.084
71742SOL    HW117065  11.107   9.316   2.062
71742SOL    HW217066  11.111   9.176   2.118
71743SOL     OW17067   6.888   5.497   1.408
71743SOL    HW117068   6.868   5.425   1.348
71743SOL    HW217069   6.824   5.565   1.386
71744SOL     OW17070   6.871   4.458   2.796
71744SOL    HW117071   6.950   4.460   2.849
71744SOL    HW217072   6.820   4.534   2.825
71745SOL     OW17073   4.142   8.468  11.572
71745SOL    HW117074   4.209   8.433  11.631
71745SOL    HW217075   4.075   8.504  11.630
71746SOL     OW17076  12.982  10.446   1.178
71746SOL    HW117077  13.066  10.429   1.221
71746SOL    HW217078  13.004  10.458   1.086
71747SOL     OW17079   4.408   4.296   8.717
71747SOL    HW117080   4.410   4.391   8.727
71747SOL    HW217081   4.489   4.266   8.757
71748SOL     OW17082  12.051  11.518  10.677
71748SOL    HW117083  11.987  11.449  10.695
71748SOL    HW217084  12.106  11.520  10.755
71749SOL     OW17085  11.004  11.177  14.224
71749SOL    HW117086  10.929  11.227  14.256
71749SOL    HW217087  11.042  11.138  14.302
71750SOL     OW17088   4.891  13.948  10.940
71750SOL    HW117089   4.827  13.894  10.893
71750SOL    HW217090   4.882  14.035  10.901
71751SOL     OW17091  12.594  12.802  12.681
71751SOL    HW117092  12.636  12.851  12.610
71751SOL    HW217093  12.540  12.737  12.637
71752SOL     OW17094   5.655   8.355   0.855
71752SOL    HW117095   5.613   8.432   0.892
71752SOL    HW217096   5.588   8.315   0.800
71753SOL     OW17097   1.903  12.121  10.702
71753SOL    HW117098   1.974  12.073  10.744
71753SOL    HW217099   1.832  12.058  10.695
71754SOL     OW17100   6.259   9.277  10.332
71754SOL    HW117101   6.216   9.192  10.325
71754SOL    HW217102   6.312   9.284  10.252
71755SOL     OW17103   1.935  14.257   4.092
71755SOL    HW117104   1.921  14.351   4.093
71755SOL    HW217105   1.848  14.219   4.103
71756SOL     OW17106   1.465   4.674   5.418
71756SOL    HW117107   1.460   4.769   5.428
71756SOL    HW217108   1.542   4.649   5.470
71757SOL     OW17109  13.114  12.740  13.879
71757SOL    HW117110  13.042  12.680  13.898
71757SOL    HW217111  13.192  12.684  13.881
71758SOL     OW17112   2.548  10.826  14.107
71758SOL    HW117113   2.606  10.900  14.123
71758SOL    HW217114   2.498  10.816  14.188
71759SOL     OW17115   4.571   6.437  14.111
71759SOL    HW117116   4.585   6.343  14.115
71759SOL    HW217117   4.510   6.455  14.184
71760SOL     OW17118   8.066   6.673   4.132
71760SOL    HW117119   8.042   6.754   4.086
71760SOL    HW217120   7.988   6.652   4.184
71761SOL     OW17121   7.895   1.953   6.837
71761SOL    HW117122   7.866   1.922   6.751
71761SOL    HW217123   7.894   1.874   6.892
71762SOL     OW17124   5.616   2.657  11.059
71762SOL    HW117125   5.586   2.568  11.041
71762SOL    HW217126   5.666   2.649  11.141
71763SOL     OW17127   1.829   9.620   7.269
71763SOL    HW117128   1.897   9.557   7.294
71763SOL    HW217129   1.753   9.566   7.247
71764SOL     OW17130   3.337  13.714  10.166
71764SOL    HW117131   3.326  13.659  10.243
71764SOL    HW217132   3.430  13.734  10.164
71765SOL     OW17133   6.790   1.870   1.693
71765SOL    HW117134   6.723   1.856   1.760
71765SOL    HW217135   6.872   1.879   1.742
71766SOL     OW17136  10.937  12.033   9.181
71766SOL    HW117137  10.982  11.971   9.238
71766SOL    HW217138  10.985  12.115   9.192
71767SOL     OW17139   1.360  11.816   3.176
71767SOL    HW117140   1.392  11.732   3.143
71767SOL    HW217141   1.329  11.862   3.098
71768SOL     OW17142  13.581   5.422  11.131
71768SOL    HW117143  13.524   5.425  11.054
71768SOL    HW217144  13.582   5.512  11.164
71769SOL     OW17145   8.246   2.982   0.145
71769SOL    HW117146   8.197   3.063   0.134
71769SOL    HW217147   8.337   3.011   0.158
71770SOL     OW17148   1.328   1.953   8.470
71770SOL    HW117149   1.400   1.924   8.414
71770SOL    HW217150   1.370   1.975   8.553
71771SOL     OW17151   8.122   8.143   4.600
71771SOL    HW117152   8.114   8.067   4.656
71771SOL    HW217153   8.174   8.113   4.525
71772SOL     OW17154   7.584   5.681   8.970
71772SOL    HW117155   7.550   5.769   8.988
71772SOL    HW217156   7.641   5.692   8.894
71773SOL     OW17157   4.448   2.286  12.394
71773SOL    HW117158   4.530   2.325  12.423
71773SOL    HW217159   4.387   2.301  12.466
71774SOL     OW17160  12.368   5.232   4.718
71774SOL    HW117161  12.374   5.139   4.740
71774SOL    HW217162  12.459   5.258   4.702
71775SOL     OW17163   3.387   7.470  12.228
71775SOL    HW117164   3.417   7.491  12.316
71775SOL    HW217165   3.347   7.384  12.236
71776SOL     OW17166   4.337  12.578   4.022
71776SOL    HW117167   4.394  12.637   3.972
71776SOL    HW217168   4.282  12.636   4.074
71777SOL     OW17169  11.504  14.015   0.595
71777SOL    HW117170  11.547  14.094   0.627
71777SOL    HW217171  11.572  13.969   0.546
71778SOL     OW17172   4.505   8.485   0.437
71778SOL    HW117173   4.409   8.490   0.434
71778SOL    HW217174   4.526   8.488   0.530
71779SOL     OW17175   7.606   8.697   4.362
71779SOL    HW117176   7.595   8.655   4.448
71779SOL    HW217177   7.540   8.766   4.361
71780SOL     OW17178   6.077   2.143   6.913
71780SOL    HW117179   6.117   2.227   6.890
71780SOL    HW217180   6.142   2.078   6.884
71781SOL     OW17181   7.074  13.862  14.444
71781SOL    HW117182   7.152  13.914  14.429
71781SOL    HW217183   7.050  13.879  14.535
71782SOL     OW17184   7.168   3.462  10.949
71782SOL    HW117185   7.221   3.448  11.027
71782SOL    HW217186   7.190   3.388  10.891
71783SOL     OW17187   6.834  14.090   4.447
71783SOL    HW117188   6.857  14.013   4.499
71783SOL    HW217189   6.916  14.140   4.440
71784SOL     OW17190   6.036  14.624   9.366
71784SOL    HW117191   6.083  14.541   9.380
71784SOL    HW217192   5.956  14.614   9.418
71785SOL     OW17193   2.047   6.792  10.057
71785SOL    HW117194   1.954   6.807  10.071
71785SOL    HW217195   2.075   6.740  10.132
71786SOL     OW17196   8.856   7.287  12.391
71786SOL    HW117197   8.887   7.345  12.321
71786SOL    HW217198   8.840   7.203  12.347
71787SOL     OW17199   0.644   0.738   7.803
71787SOL    HW117200   0.667   0.655   7.760
71787SOL    HW217201   0.725   0.789   7.801
71788SOL     OW17202  10.925   3.923   0.944
71788SOL    HW117203  10.942   3.957   1.031
71788SOL    HW217204  10.844   3.966   0.916
71789SOL     OW17205   7.644   4.547  12.408
71789SOL    HW117206   7.578   4.501  12.356
71789SOL    HW217207   7.642   4.503  12.493
71790SOL     OW17208   6.573   9.857   9.950
71790SOL    HW117209   6.641   9.912   9.990
71790SOL    HW217210   6.529   9.815  10.024
71791SOL     OW17211  12.542   8.125   4.304
71791SOL    HW117212  12.586   8.092   4.382
71791SOL    HW217213  12.450   8.129   4.327
71792SOL     OW17214  13.975   4.840   5.822
71792SOL    HW117215  13.890   4.806   5.795
71792SOL    HW217216  13.964   4.935   5.823
71793SOL     OW17217   4.474  14.094  13.995
71793SOL    HW117218   4.379  14.082  13.989
71793SOL    HW217219   4.484  14.180  14.036
71794SOL     OW17220   8.360   2.970   4.117
71794SOL    HW117221   8.446   2.998   4.148
71794SOL    HW217222   8.315   3.051   4.094
71795SOL     OW17223  13.393  14.338   9.932
71795SOL    HW117224  13.312  14.343   9.983
71795SOL    HW217225  13.412  14.429   9.909
71796SOL     OW17226   6.478   7.143   3.541
71796SOL    HW117227   6.383   7.135   3.536
71796SOL    HW217228   6.508   7.125   3.452
71797SOL     OW17229   2.556   6.359   2.316
71797SOL    HW117230   2.651   6.361   2.306
71797SOL    HW217231   2.523   6.330   2.231
71798SOL     OW17232   2.502  10.086   6.134
71798SOL    HW117233   2.442  10.051   6.200
71798SOL    HW217234   2.567  10.133   6.186
71799SOL     OW17235   1.416   2.000   5.387
71799SOL    HW117236   1.470   2.029   5.313
71799SOL    HW217237   1.331   1.981   5.347
71800SOL     OW17238  11.426   2.356   5.594
71800SOL    HW117239  11.385   2.352   5.508
71800SOL    HW217240  11.473   2.439   5.595
71801SOL     OW17241   3.340  11.700   3.021
71801SOL    HW117242   3.305  11.611   3.031
71801SOL    HW217243   3.369  11.724   3.109
71802SOL     OW17244   0.814   7.257   2.814
71802SOL    HW117245   0.755   7.300   2.876
71802SOL    HW217246   0.783   7.166   2.811
71803SOL     OW17247  11.420   9.208  11.476
71803SOL    HW117248  11.438   9.139  11.540
71803SOL    HW217249  11.336   9.245  11.504
71804SOL     OW17250   7.831  10.112   4.116
71804SOL    HW117251   7.826  10.181   4.050
71804SOL    HW217252   7.895  10.050   4.082
71805SOL     OW17253   8.600   1.838   2.225
71805SOL    HW117254   8.690   1.841   2.193
71805SOL    HW217255   8.605   1.785   2.305
71806SOL     OW17256  10.462  13.530   2.960
71806SOL    HW117257  10.556  13.546   2.953
71806SOL    HW217258  10.444  13.538   3.054
71807SOL     OW17259   8.499   6.016   2.998
71807SOL    HW117260   8.560   5.948   3.027
71807SOL    HW217261   8.514   6.089   3.057
71808SOL     OW17262   5.375   9.308   8.231
71808SOL    HW117263   5.469   9.295   8.243
71808SOL    HW217264   5.344   9.224   8.195
71809SOL     OW17265   6.795   6.879  12.560
71809SOL    HW117266   6.800   6.848  12.470
71809SOL    HW217267   6.791   6.975  12.552
71810SOL     OW17268   5.784   3.963  13.576
71810SOL    HW117269   5.865   3.953  13.525
71810SOL    HW217270   5.784   4.054  13.603
71811SOL     OW17271  12.489   6.089  12.723
71811SOL    HW117272  12.557   6.049  12.777
71811SOL    HW217273  12.523   6.176  12.701
71812SOL     OW17274   0.071  13.503  13.044
71812SOL    HW117275   0.122  13.577  13.010
71812SOL    HW217276   0.117  13.475  13.123
71813SOL     OW17277  11.376  11.486   7.504
71813SOL    HW117278  11.409  11.576   7.500
71813SOL    HW217279  11.282  11.494   7.489
71814SOL     OW17280   5.047   8.198   3.458
71814SOL    HW117281   5.105   8.122   3.455
71814SOL    HW217282   4.974   8.171   3.514
71815SOL     OW17283  10.670   5.452   1.076
71815SOL    HW117284  10.756   5.487   1.054
71815SOL    HW217285  10.615   5.529   1.089
71816SOL     OW17286  10.497   9.090  13.211
71816SOL    HW117287  10.568   9.101  13.148
71816SOL    HW217288  10.438   9.027  13.169
71817SOL     OW17289  13.643   3.297   4.668
71817SOL    HW117290  13.696   3.219   4.685
71817SOL    HW217291  13.651   3.311   4.574
71818SOL     OW17292   8.881  10.027   0.366
71818SOL    HW117293   8.811   9.992   0.310
71818SOL    HW217294   8.836  10.082   0.429
71819SOL     OW17295  11.415   6.171   3.232
71819SOL    HW117296  11.382   6.094   3.279
71819SOL    HW217297  11.338   6.226   3.218
71820SOL     OW17298   0.504   4.046   5.412
71820SOL    HW117299   0.580   3.990   5.427
71820SOL    HW217300   0.428   3.990   5.431
71821SOL     OW17301   8.767  14.100  11.573
71821SOL    HW117302   8.838  14.145  11.618
71821SOL    HW217303   8.781  14.007  11.590
71822SOL     OW17304  12.871  10.433  14.017
71822SOL    HW117305  12.784  10.404  13.991
71822SOL    HW217306  12.864  10.449  14.111
71823SOL     OW17307   0.003  10.998   3.465
71823SOL    HW117308  14.798  11.030   3.435
71823SOL    HW217309   0.014  10.914   3.421
71824SOL     OW17310   3.402  14.492  10.911
71824SOL    HW117311   3.425  14.551  10.983
71824SOL    HW217312   3.484  14.450  10.887
71825SOL     OW17313   3.914  13.013   1.839
71825SOL    HW117314   3.846  13.009   1.771
71825SOL    HW217315   3.930  12.921   1.862
71826SOL     OW17316   2.917   0.385   7.628
71826SOL    HW117317   2.848   0.383   7.561
71826SOL    HW217318   2.976   0.314   7.602
71827SOL     OW17319  13.332  10.100   7.024
71827SOL    HW117320  13.396  10.154   6.977
71827SOL    HW217321  13.256  10.157   7.035
71828SOL     OW17322   8.202  10.389  14.704
71828SOL    HW117323   8.287  10.346  14.699
71828SOL    HW217324   8.166  10.381  14.615
71829SOL     OW17325   7.959   4.923  14.481
71829SOL    HW117326   7.927   4.836  14.506
71829SOL    HW217327   7.948   4.976  14.559
71830SOL     OW17328   9.701   0.138   0.297
71830SOL    HW117329   9.627   0.082   0.322
71830SOL    HW217330   9.772   0.112   0.356
71831SOL     OW17331   5.060   3.358   0.386
71831SOL    HW117332   4.966   3.373   0.397
71831SOL    HW217333   5.099   3.396   0.464
71832SOL     OW17334   3.453   0.734   8.380
71832SOL    HW117335   3.449   0.732   8.476
71832SOL    HW217336   3.505   0.657   8.356
71833SOL     OW17337  12.135   9.511   7.076
71833SOL    HW117338  12.131   9.463   7.158
71833SOL    HW217339  12.178   9.594   7.099
71834SOL     OW17340   1.405  12.993  14.359
71834SOL    HW117341   1.427  13.031  14.444
71834SOL    HW217342   1.442  13.054  14.295
71835SOL     OW17343   6.675  10.792   0.505
71835SOL    HW117344   6.656  10.703   0.536
71835SOL    HW217345   6.593  10.840   0.516
71836SOL     OW17346   6.721   5.330   4.036
71836SOL    HW117347   6.787   5.260   4.034
71836SOL    HW217348   6.756   5.397   3.978
71837SOL     OW17349   8.889   2.893  11.284
71837SOL    HW117350   8.856   2.873  11.197
71837SOL    HW217351   8.909   2.808  11.323
71838SOL     OW17352   5.379   8.290   2.447
71838SOL    HW117353   5.411   8.222   2.507
71838SOL    HW217354   5.452   8.352   2.441
71839SOL     OW17355   7.658   1.276   4.845
71839SOL    HW117356   7.743   1.259   4.805
71839SOL    HW217357   7.604   1.200   4.822
71840SOL     OW17358  13.333  11.801  12.794
71840SOL    HW117359  13.317  11.895  12.802
71840SOL    HW217360  13.255  11.766  12.753
71841SOL     OW17361   8.508   5.682   7.221
71841SOL    HW117362   8.463   5.755   7.178
71841SOL    HW217363   8.597   5.684   7.185
71842SOL     OW17364   0.835  10.725  10.828
71842SOL    HW117365   0.754  10.716  10.877
71842SOL    HW217366   0.853  10.637  10.794
71843SOL     OW17367   4.633   8.072   9.413
71843SOL    HW117368   4.699   8.032   9.357
71843SOL    HW217369   4.598   7.999   9.464
71844SOL     OW17370  12.412   7.649   2.153
71844SOL    HW117371  12.374   7.577   2.102
71844SOL    HW217372  12.413   7.617   2.243
71845SOL     OW17373   6.085  11.807   2.442
71845SOL    HW117374   6.154  11.790   2.378
71845SOL    HW217375   6.097  11.899   2.467
71846SOL     OW17376   5.221  12.341   8.658
71846SOL    HW117377   5.284  12.298   8.715
71846SOL    HW217378   5.274  12.384   8.590
71847SOL     OW17379   2.682   9.086   8.624
71847SOL    HW117380   2.587   9.103   8.629
71847SOL    HW217381   2.699   9.026   8.696
71848SOL     OW17382   1.945   8.440  12.146
71848SOL    HW117383   2.024   8.413  12.099
71848SOL    HW217384   1.932   8.531  12.120
71849SOL     OW17385   6.056  13.639   5.538
71849SOL    HW117386   6.006  13.642   5.457
71849SOL    HW217387   6.129  13.699   5.524
71850SOL     OW17388   6.103  10.365   3.213
71850SOL    HW117389   6.107  10.305   3.288
71850SOL    HW217390   6.195  10.380   3.190
71851SOL     OW17391   0.227   5.635   9.818
71851SOL    HW117392   0.285   5.707   9.794
71851SOL    HW217393   0.139   5.674   9.821
71852SOL     OW17394  14.054  10.553   8.757
71852SOL    HW117395  13.971  10.516   8.725
71852SOL    HW217396  14.080  10.614   8.688
71853SOL     OW17397  10.074  12.108   1.262
71853SOL    HW117398   9.996  12.162   1.265
71853SOL    HW217399  10.091  12.085   1.353
71854SOL     OW17400   3.089  12.653   1.452
71854SOL    HW117401   3.018  12.610   1.500
71854SOL    HW217402   3.111  12.591   1.383
71855SOL     OW17403   6.953   4.693  10.204
71855SOL    HW117404   6.900   4.675  10.127
71855SOL    HW217405   6.970   4.787  10.200
71856SOL     OW17406   9.902   1.611   5.317
71856SOL    HW117407   9.929   1.676   5.381
71856SOL    HW217408   9.973   1.609   5.253
71857SOL     OW17409   1.703  12.996   8.933
71857SOL    HW117410   1.717  13.086   8.905
71857SOL    HW217411   1.609  12.984   8.929
71858SOL     OW17412   1.234   8.413   4.239
71858SOL    HW117413   1.141   8.423   4.258
71858SOL    HW217414   1.269   8.368   4.315
71859SOL     OW17415   4.775   0.919  13.013
71859SOL    HW117416   4.834   0.857  12.970
71859SOL    HW217417   4.688   0.881  13.004
71860SOL     OW17418   5.230  14.282  10.829
71860SOL    HW117419   5.279  14.226  10.889
71860SOL    HW217420   5.239  14.370  10.867
71861SOL     OW17421   6.605   0.189   3.829
71861SOL    HW117422   6.571   0.209   3.916
71861SOL    HW217423   6.645   0.271   3.799
71862SOL     OW17424   4.838   4.217  12.412
71862SOL    HW117425   4.892   4.141  12.434
71862SOL    HW217426   4.879   4.254  12.334
71863SOL     OW17427   9.263   1.753   8.338
71863SOL    HW117428   9.356   1.730   8.336
71863SOL    HW217429   9.218   1.670   8.325
71864SOL     OW17430   1.745  11.066  13.887
71864SOL    HW117431   1.698  10.988  13.915
71864SOL    HW217432   1.676  11.125  13.856
71865SOL     OW17433  14.670   4.845   0.153
71865SOL    HW117434  14.765   4.849   0.158
71865SOL    HW217435  14.646   4.770   0.208
71866SOL     OW17436   4.181  14.689   1.109
71866SOL    HW117437   4.258  14.674   1.164
71866SOL    HW217438   4.123  14.743   1.162
71867SOL     OW17439  11.478   4.820   5.007
71867SOL    HW117440  11.447   4.910   4.999
71867SOL    HW217441  11.441   4.776   4.931
71868SOL     OW17442   8.702   6.099  12.802
71868SOL    HW117443   8.750   6.181  12.816
71868SOL    HW217444   8.647   6.091  12.880
71869SOL     OW17445   2.959   0.690   2.085
71869SOL    HW117446   2.929   0.600   2.096
71869SOL    HW217447   2.923   0.737   2.160
71870SOL     OW17448   3.442   4.868   1.056
71870SOL    HW117449   3.504   4.935   1.087
71870SOL    HW217450   3.407   4.904   0.975
71871SOL     OW17451   2.191   6.720   6.713
71871SOL    HW117452   2.240   6.777   6.773
71871SOL    HW217453   2.213   6.631   6.740
71872SOL     OW17454  13.591  11.356  12.784
71872SOL    HW117455  13.620  11.272  12.819
71872SOL    HW217456  13.629  11.359  12.696
71873SOL     OW17457  11.072   2.528   3.007
71873SOL    HW117458  11.043   2.516   3.098
71873SOL    HW217459  11.165   2.503   3.009
71874SOL     OW17460   2.777   5.229  12.273
71874SOL    HW117461   2.815   5.146  12.244
71874SOL    HW217462   2.853   5.288  12.283
71875SOL     OW17463   5.985   6.519   5.695
71875SOL    HW117464   6.023   6.565   5.620
71875SOL    HW217465   5.942   6.443   5.658
71876SOL     OW17466   8.299   0.721   7.392
71876SOL    HW117467   8.263   0.808   7.373
71876SOL    HW217468   8.320   0.724   7.485
71877SOL     OW17469   1.698  11.101   0.586
71877SOL    HW117470   1.654  11.163   0.644
71877SOL    HW217471   1.766  11.153   0.543
71878SOL     OW17472  14.379  13.102   2.291
71878SOL    HW117473  14.415  13.139   2.372
71878SOL    HW217474  14.374  13.008   2.308
71879SOL     OW17475  13.473   1.921   7.354
71879SOL    HW117476  13.546   1.865   7.381
71879SOL    HW217477  13.442   1.961   7.436
71880SOL     OW17478   4.530   9.424   2.551
71880SOL    HW117479   4.504   9.455   2.639
71880SOL    HW217480   4.615   9.464   2.536
71881SOL     OW17481  10.856   0.856  10.395
71881SOL    HW117482  10.862   0.768  10.359
71881SOL    HW217483  10.777   0.892  10.356
71882SOL     OW17484  12.546   0.765   5.305
71882SOL    HW117485  12.548   0.678   5.265
71882SOL    HW217486  12.635   0.779   5.337
71883SOL     OW17487  10.656  10.288   1.143
71883SOL    HW117488  10.616  10.357   1.195
71883SOL    HW217489  10.659  10.212   1.201
71884SOL     OW17490   8.593   7.393   2.043
71884SOL    HW117491   8.578   7.331   1.972
71884SOL    HW217492   8.616   7.340   2.118
71885SOL     OW17493  14.618   3.419   6.147
71885SOL    HW117494  14.695   3.413   6.090
71885SOL    HW217495  14.649   3.388   6.232
71886SOL     OW17496   8.554   5.793  13.626
71886SOL    HW117497   8.608   5.873  13.622
71886SOL    HW217498   8.464   5.825  13.617
71887SOL     OW17499   5.688  13.759  11.407
71887SOL    HW117500   5.765  13.780  11.459
71887SOL    HW217501   5.657  13.844  11.375
71888SOL     OW17502   2.885  11.787   9.853
71888SOL    HW117503   2.908  11.696   9.836
71888SOL    HW217504   2.827  11.811   9.781
71889SOL     OW17505   3.850   1.417   1.093
71889SOL    HW117506   3.900   1.498   1.102
71889SOL    HW217507   3.761   1.441   1.118
71890SOL     OW17508   4.869   1.481   8.952
71890SOL    HW117509   4.780   1.516   8.948
71890SOL    HW217510   4.873   1.417   8.881
71891SOL     OW17511   6.756   7.838   1.508
71891SOL    HW117512   6.763   7.746   1.532
71891SOL    HW217513   6.676   7.868   1.551
71892SOL     OW17514  11.936  11.812   6.763
71892SOL    HW117515  11.843  11.836   6.770
71892SOL    HW217516  11.981  11.880   6.814
71893SOL     OW17517   5.364  12.096   9.721
71893SOL    HW117518   5.286  12.045   9.742
71893SOL    HW217519   5.334  12.161   9.657
71894SOL     OW17520   5.850   6.481   2.087
71894SOL    HW117521   5.927   6.531   2.061
71894SOL    HW217522   5.852   6.481   2.183
71895SOL     OW17523   6.313  13.775   3.007
71895SOL    HW117524   6.314  13.687   3.044
71895SOL    HW217525   6.359  13.828   3.072
71896SOL     OW17526   2.115   1.149  10.173
71896SOL    HW117527   2.166   1.132  10.094
71896SOL    HW217528   2.102   1.244  10.173
71897SOL     OW17529  11.480  10.785   3.400
71897SOL    HW117530  11.418  10.758   3.333
71897SOL    HW217531  11.554  10.821   3.351
71898SOL     OW17532  12.568   1.040  10.247
71898SOL    HW117533  12.568   1.097  10.170
71898SOL    HW217534  12.596   1.095  10.319
71899SOL     OW17535   1.236   8.548   3.841
71899SOL    HW117536   1.277   8.481   3.895
71899SOL    HW217537   1.146   8.517   3.828
71900SOL     OW17538  10.962   9.520  13.831
71900SOL    HW117539  11.038   9.462  13.832
71900SOL    HW217540  10.921   9.508  13.917
71901SOL     OW17541   4.031   5.281   8.077
71901SOL    HW117542   4.117   5.323   8.074
71901SOL    HW217543   4.040   5.205   8.020
71902SOL     OW17544   1.605   2.822  11.981
71902SOL    HW117545   1.649   2.768  12.046
71902SOL    HW217546   1.525   2.774  11.960
71903SOL     OW17547  11.043   5.422  12.726
71903SOL    HW117548  11.051   5.517  12.714
71903SOL    HW217549  10.963   5.398  12.679
71904SOL     OW17550  13.262   9.497  12.851
71904SOL    HW117551  13.200   9.491  12.779
71904SOL    HW217552  13.261   9.409  12.891
71905SOL     OW17553  13.777   6.455  14.017
71905SOL    HW117554  13.753   6.407  13.938
71905SOL    HW217555  13.843   6.401  14.060
71906SOL     OW17556   0.446   3.544   9.060
71906SOL    HW117557   0.460   3.468   9.004
71906SOL    HW217558   0.385   3.599   9.011
71907SOL     OW17559   7.363  12.922  12.160
71907SOL    HW117560   7.297  12.908  12.093
71907SOL    HW217561   7.444  12.887  12.123
71908SOL     OW17562   1.686   7.357  12.742
71908SOL    HW117563   1.707   7.327  12.654
71908SOL    HW217564   1.645   7.442  12.730
71909SOL     OW17565  14.218  14.439   3.641
71909SOL    HW117566  14.166  14.382   3.585
71909SOL    HW217567  14.187  14.420   3.730
71910SOL     OW17568   9.010  12.048   6.563
71910SOL    HW117569   9.026  11.982   6.495
71910SOL    HW217570   8.915  12.060   6.561
71911SOL     OW17571  14.339  11.986   3.313
71911SOL    HW117572  14.288  11.938   3.248
71911SOL    HW217573  14.424  11.940   3.314
71912SOL     OW17574   5.684   1.314   4.945
71912SOL    HW117575   5.660   1.404   4.923
71912SOL    HW217576   5.618   1.286   5.008
71913SOL     OW17577   6.508   8.276   9.124
71913SOL    HW117578   6.563   8.203   9.096
71913SOL    HW217579   6.570   8.347   9.141
71914SOL     OW17580   1.608   9.551   3.413
71914SOL    HW117581   1.586   9.478   3.471
71914SOL    HW217582   1.616   9.511   3.326
71915SOL     OW17583   8.937   6.689   9.703
71915SOL    HW117584   8.841   6.682   9.709
71915SOL    HW217585   8.952   6.774   9.663
71916SOL     OW17586   9.285   7.653   0.240
71916SOL    HW117587   9.351   7.589   0.267
71916SOL    HW217588   9.299   7.665   0.147
71917SOL     OW17589   0.409   5.951  14.448
71917SOL    HW117590   0.340   6.017  14.441
71917SOL    HW217591   0.463   5.981  14.520
71918SOL     OW17592  11.776   2.581  14.455
71918SOL    HW117593  11.704   2.600  14.395
71918SOL    HW217594  11.808   2.666  14.483
71919SOL     OW17595  12.080   7.754  10.969
71919SOL    HW117596  12.164   7.723  10.935
71919SOL    HW217597  12.016   7.694  10.931
71920SOL     OW17598  13.639   3.565   5.872
71920SOL    HW117599  13.570   3.622   5.906
71920SOL    HW217600  13.597   3.513   5.804
71921SOL     OW17601   9.585   6.982  12.801
71921SOL    HW117602   9.522   6.929  12.751
71921SOL    HW217603   9.569   7.071  12.772
71922SOL     OW17604  10.300   3.564   5.094
71922SOL    HW117605  10.337   3.514   5.020
71922SOL    HW217606  10.339   3.651   5.085
71923SOL     OW17607  12.906   0.199   7.974
71923SOL    HW117608  12.998   0.178   7.964
71923SOL    HW217609  12.869   0.126   8.024
71924SOL     OW17610  14.699   0.372  13.448
71924SOL    HW117611  14.646   0.357  13.370
71924SOL    HW217612  14.778   0.319  13.434
71925SOL     OW17613   9.740   4.513   0.214
71925SOL    HW117614   9.753   4.516   0.120
71925SOL    HW217615   9.812   4.458   0.246
71926SOL     OW17616  10.871   8.040  12.264
71926SOL    HW117617  10.934   8.112  12.271
71926SOL    HW217618  10.804   8.060  12.330
71927SOL     OW17619   1.425   0.790  14.815
71927SOL    HW117620   1.505   0.739  14.804
71927SOL    HW217621   1.354   0.728  14.796
71928SOL     OW17622   8.913  13.222   2.619
71928SOL    HW117623   8.826  13.183   2.633
71928SOL    HW217624   8.972  13.147   2.615
71929SOL     OW17625   4.091   6.967   9.461
71929SOL    HW117626   4.159   7.014   9.508
71929SOL    HW217627   4.039   6.924   9.529
71930SOL     OW17628  14.577   4.321  14.458
71930SOL    HW117629  14.561   4.279  14.374
71930SOL    HW217630  14.504   4.294  14.513
71931SOL     OW17631   6.177   1.611   9.765
71931SOL    HW117632   6.198   1.692   9.812
71931SOL    HW217633   6.257   1.559   9.770
71932SOL     OW17634  10.213   7.681   8.143
71932SOL    HW117635  10.143   7.635   8.190
71932SOL    HW217636  10.173   7.707   8.060
71933SOL     OW17637  10.296  11.007   2.500
71933SOL    HW117638  10.357  10.935   2.514
71933SOL    HW217639  10.333  11.080   2.551
71934SOL     OW17640   6.695  14.779   7.333
71934SOL    HW117641   6.748  14.800   7.256
71934SOL    HW217642   6.698  14.683   7.338
71935SOL     OW17643  12.023   9.489  11.882
71935SOL    HW117644  11.942   9.451  11.848
71935SOL    HW217645  12.080   9.414  11.898
71936SOL     OW17646  13.762   5.367   8.515
71936SOL    HW117647  13.850   5.404   8.501
71936SOL    HW217648  13.704   5.443   8.519
71937SOL     OW17649   0.447   5.208  14.879
71937SOL    HW117650   0.539   5.207   0.026
71937SOL    HW217651   0.446   5.164  14.794
71938SOL     OW17652   9.127   0.133   5.823
71938SOL    HW117653   9.068   0.206   5.841
71938SOL    HW217654   9.103   0.066   5.887
71939SOL     OW17655   0.819   7.615   5.427
71939SOL    HW117656   0.851   7.564   5.502
71939SOL    HW217657   0.861   7.576   5.351
71940SOL     OW17658   9.950   3.345  13.986
71940SOL    HW117659   9.934   3.260  13.946
71940SOL    HW217660   9.997   3.395  13.919
71941SOL     OW17661   6.537   8.887   5.884
71941SOL    HW117662   6.502   8.824   5.948
71941SOL    HW217663   6.611   8.841   5.844
71942SOL     OW17664   7.520   3.544   1.447
71942SOL    HW117665   7.429   3.554   1.477
71942SOL    HW217666   7.518   3.467   1.392
71943SOL     OW17667   4.459   5.560   5.959
71943SOL    HW117668   4.487   5.471   5.940
71943SOL    HW217669   4.374   5.551   6.000
71944SOL     OW17670   1.307   7.128  12.346
71944SOL    HW117671   1.316   7.216  12.381
71944SOL    HW217672   1.216   7.123  12.316
71945SOL     OW17673   7.978   7.556   1.497
71945SOL    HW117674   7.997   7.543   1.590
71945SOL    HW217675   8.039   7.625   1.470
71946SOL     OW17676  11.804   5.115   0.954
71946SOL    HW117677  11.855   5.034   0.959
71946SOL    HW217678  11.825   5.152   0.868
71947SOL     OW17679   5.065   9.332  14.499
71947SOL    HW117680   4.969   9.335  14.502
71947SOL    HW217681   5.086   9.318  14.407
71948SOL     OW17682  13.821  14.577   6.304
71948SOL    HW117683  13.732  14.597   6.332
71948SOL    HW217684  13.830  14.483   6.320
71949SOL     OW17685   7.017   7.198   1.443
71949SOL    HW117686   7.019   7.207   1.348
71949SOL    HW217687   7.085   7.133   1.462
71950SOL     OW17688  13.070   5.979  13.385
71950SOL    HW117689  12.981   6.015  13.389
71950SOL    HW217690  13.127   6.051  13.413
71951SOL     OW17691   3.394   7.597   3.970
71951SOL    HW117692   3.348   7.681   3.974
71951SOL    HW217693   3.331   7.537   3.930
71952SOL     OW17694  10.306   9.886  13.471
71952SOL    HW117695  10.401   9.872  13.465
71952SOL    HW217696  10.283   9.855  13.559
71953SOL     OW17697  13.655   2.028  13.261
71953SOL    HW117698  13.706   2.098  13.218
71953SOL    HW217699  13.612   2.071  13.334
71954SOL     OW17700   9.033   6.511   4.765
71954SOL    HW117701   9.086   6.477   4.837
71954SOL    HW217702   8.953   6.542   4.807
71955SOL     OW17703  12.944  10.068   3.615
71955SOL    HW117704  12.988  10.054   3.699
71955SOL    HW217705  12.865  10.117   3.638
71956SOL     OW17706   5.164  13.840  13.082
71956SOL    HW117707   5.195  13.852  12.992
71956SOL    HW217708   5.077  13.800  13.071
71957SOL     OW17709   4.884   7.670   3.491
71957SOL    HW117710   4.918   7.638   3.574
71957SOL    HW217711   4.956   7.720   3.453
71958SOL     OW17712   7.424   9.936   3.559
71958SOL    HW117713   7.488   9.915   3.628
71958SOL    HW217714   7.469  10.001   3.504
71959SOL     OW17715   8.658   6.301  14.683
71959SOL    HW117716   8.654   6.296  14.778
71959SOL    HW217717   8.745   6.337  14.664
71960SOL     OW17718   9.115   7.393   1.930
71960SOL    HW117719   9.038   7.360   1.976
71960SOL    HW217720   9.084   7.470   1.883
71961SOL     OW17721  13.947  11.764   9.958
71961SOL    HW117722  13.967  11.823   9.885
71961SOL    HW217723  13.966  11.677   9.925
71962SOL     OW17724  11.009   8.308  13.970
71962SOL    HW117725  11.070   8.378  13.947
71962SOL    HW217726  11.054   8.227  13.945
71963SOL     OW17727   1.730  11.198   2.153
71963SOL    HW117728   1.795  11.260   2.182
71963SOL    HW217729   1.702  11.152   2.232
71964SOL     OW17730   4.851  12.780  13.232
71964SOL    HW117731   4.935  12.735  13.248
71964SOL    HW217732   4.828  12.755  13.142
71965SOL     OW17733   2.980   7.058   8.206
71965SOL    HW117734   2.981   7.047   8.111
71965SOL    HW217735   2.938   6.978   8.239
71966SOL     OW17736   8.552   2.603  11.314
71966SOL    HW117737   8.458   2.593  11.328
71966SOL    HW217738   8.567   2.697  11.309
71967SOL     OW17739  11.138   6.367  14.218
71967SOL    HW117740  11.218   6.406  14.252
71967SOL    HW217741  11.165   6.323  14.138
71968SOL     OW17742  12.939   3.768   6.277
71968SOL    HW117743  12.901   3.803   6.358
71968SOL    HW217744  12.866   3.769   6.214
71969SOL     OW17745  12.595   5.141   9.337
71969SOL    HW117746  12.551   5.215   9.295
71969SOL    HW217747  12.632   5.091   9.264
71970SOL     OW17748   5.934   3.610   9.991
71970SOL    HW117749   5.979   3.623   9.907
71970SOL    HW217750   5.910   3.698  10.019
71971SOL     OW17751   3.314   4.364  12.364
71971SOL    HW117752   3.379   4.422  12.404
71971SOL    HW217753   3.254   4.343  12.436
71972SOL     OW17754   9.526  13.479  11.195
71972SOL    HW117755   9.542  13.412  11.128
71972SOL    HW217756   9.573  13.448  11.272
71973SOL     OW17757  14.526  12.022   4.454
71973SOL    HW117758  14.616  12.052   4.465
71973SOL    HW217759  14.498  12.058   4.370
71974SOL     OW17760   3.491   2.982   1.431
71974SOL    HW117761   3.439   2.949   1.504
71974SOL    HW217762   3.534   2.904   1.395
71975SOL     OW17763  13.282   9.703  13.258
71975SOL    HW117764  13.199   9.664  13.233
71975SOL    HW217765  13.268   9.732  13.349
71976SOL     OW17766   1.189   7.364  12.109
71976SOL    HW117767   1.275   7.390  12.143
71976SOL    HW217768   1.190   7.389  12.017
71977SOL     OW17769   2.466  13.152   2.055
71977SOL    HW117770   2.413  13.213   2.003
71977SOL    HW217771   2.419  13.069   2.049
71978SOL     OW17772  13.547   8.281   4.067
71978SOL    HW117773  13.499   8.199   4.078
71978SOL    HW217774  13.480   8.349   4.071
71979SOL     OW17775   0.378  12.362  14.129
71979SOL    HW117776   0.289  12.327  14.137
71979SOL    HW217777   0.413  12.321  14.051
71980SOL     OW17778   7.889   8.072  12.601
71980SOL    HW117779   7.820   8.110  12.547
71980SOL    HW217780   7.843   8.013  12.660
71981SOL     OW17781   0.865  13.713   7.155
71981SOL    HW117782   0.887  13.772   7.227
71981SOL    HW217783   0.878  13.765   7.076
71982SOL     OW17784  13.505   6.913   1.873
71982SOL    HW117785  13.458   6.995   1.859
71982SOL    HW217786  13.491   6.893   1.966
71983SOL     OW17787   7.895   2.441   9.065
71983SOL    HW117788   7.863   2.376   9.003
71983SOL    HW217789   7.935   2.389   9.135
71984SOL     OW17790  11.070   7.441  10.532
71984SOL    HW117791  11.061   7.490  10.450
71984SOL    HW217792  11.111   7.359  10.507
71985SOL     OW17793   9.722  12.643   7.834
71985SOL    HW117794   9.629  12.639   7.812
71985SOL    HW217795   9.725  12.687   7.919
71986SOL     OW17796   3.338  14.679  11.595
71986SOL    HW117797   3.304  14.763  11.626
71986SOL    HW217798   3.261  14.635  11.558
71987SOL     OW17799   1.372  12.893  12.004
71987SOL    HW117800   1.295  12.845  12.033
71987SOL    HW217801   1.349  12.985  12.015
71988SOL     OW17802   4.822   5.961  13.298
71988SOL    HW117803   4.852   5.973  13.208
71988SOL    HW217804   4.730   5.937  13.290
71989SOL     OW17805   6.703  11.918   3.616
71989SOL    HW117806   6.715  11.962   3.700
71989SOL    HW217807   6.635  11.852   3.633
71990SOL     OW17808   0.754  10.222   2.980
71990SOL    HW117809   0.745  10.204   3.074
71990SOL    HW217810   0.734  10.316   2.973
71991SOL     OW17811   2.492   7.107  13.813
71991SOL    HW117812   2.433   7.045  13.855
71991SOL    HW217813   2.499   7.180  13.875
71992SOL     OW17814  11.525   8.179   0.750
71992SOL    HW117815  11.477   8.258   0.728
71992SOL    HW217816  11.529   8.130   0.669
71993SOL     OW17817   9.072  10.352   0.397
71993SOL    HW117818   9.126  10.426   0.371
71993SOL    HW217819   9.065  10.360   0.493
71994SOL     OW17820   0.244   4.027   4.551
71994SOL    HW117821   0.304   3.968   4.596
71994SOL    HW217822   0.273   4.115   4.578
71995SOL     OW17823   1.848   6.738   3.341
71995SOL    HW117824   1.840   6.719   3.247
71995SOL    HW217825   1.886   6.659   3.379
71996SOL     OW17826   1.028   1.596   9.844
71996SOL    HW117827   1.017   1.656   9.771
71996SOL    HW217828   0.999   1.646   9.921
71997SOL     OW17829   2.857   1.831   0.339
71997SOL    HW117830   2.841   1.741   0.312
71997SOL    HW217831   2.849   1.882   0.258
71998SOL     OW17832   8.418   9.799   4.513
71998SOL    HW117833   8.323   9.802   4.525
71998SOL    HW217834   8.431   9.734   4.444
71999SOL     OW17835   7.012   7.825   1.671
71999SOL    HW117836   6.952   7.840   1.598
71999SOL    HW217837   6.957   7.828   1.749
72000SOL     OW17838   9.494  10.296  14.067
72000SOL    HW117839   9.528  10.351  14.138
72000SOL    HW217840   9.416  10.255  14.103
72001SOL     OW17841   5.551   6.827  10.900
72001SOL    HW117842   5.633   6.777  10.890
72001SOL    HW217843   5.485   6.761  10.922
72002SOL     OW17844   8.380   0.591   3.093
72002SOL    HW117845   8.370   0.679   3.131
72002SOL    HW217846   8.439   0.605   3.018
72003SOL     OW17847   3.027   4.463   4.801
72003SOL    HW117848   3.044   4.431   4.713
72003SOL    HW217849   3.111   4.496   4.831
72004SOL     OW17850   9.218   5.947   9.641
72004SOL    HW117851   9.266   5.864   9.632
72004SOL    HW217852   9.275   6.002   9.694
72005SOL     OW17853   2.309   9.456  10.532
72005SOL    HW117854   2.239   9.499  10.581
72005SOL    HW217855   2.364   9.527  10.500
72006SOL     OW17856   0.554   3.607   8.782
72006SOL    HW117857   0.471   3.603   8.736
72006SOL    HW217858   0.561   3.697   8.813
72007SOL     OW17859  11.592   4.376   5.132
72007SOL    HW117860  11.576   4.284   5.111
72007SOL    HW217861  11.675   4.376   5.180
72008SOL     OW17862  12.359   0.779  10.030
72008SOL    HW117863  12.312   0.700  10.058
72008SOL    HW217864  12.451   0.753  10.028
72009SOL     OW17865  13.249   2.108   2.094
72009SOL    HW117866  13.304   2.032   2.077
72009SOL    HW217867  13.310   2.178   2.116
72010SOL     OW17868   3.374   4.232   1.804
72010SOL    HW117869   3.421   4.255   1.724
72010SOL    HW217870   3.288   4.273   1.794
72011SOL     OW17871   6.523   9.269   6.351
72011SOL    HW117872   6.602   9.232   6.311
72011SOL    HW217873   6.454   9.253   6.288
72012SOL     OW17874   8.138   9.607   8.913
72012SOL    HW117875   8.213   9.548   8.912
72012SOL    HW217876   8.176   9.694   8.901
72013SOL     OW17877   0.187  10.088  11.243
72013SOL    HW117878   0.283  10.092  11.251
72013SOL    HW217879   0.172  10.031  11.168
72014SOL     OW17880   8.071   6.490  14.197
72014SOL    HW117881   8.119   6.566  14.229
72014SOL    HW217882   8.024   6.522  14.120
72015SOL     OW17883  10.389  13.512   2.391
72015SOL    HW117884  10.337  13.452   2.337
72015SOL    HW217885  10.383  13.476   2.480
72016SOL     OW17886   2.337   8.189  12.688
72016SOL    HW117887   2.365   8.165  12.776
72016SOL    HW217888   2.381   8.272  12.670
72017SOL     OW17889  12.506   1.428   7.327
72017SOL    HW117890  12.542   1.339   7.329
72017SOL    HW217891  12.557   1.477   7.390
72018SOL     OW17892   9.249   2.947   9.478
72018SOL    HW117893   9.170   2.903   9.446
72018SOL    HW217894   9.291   2.882   9.535
72019SOL     OW17895  14.841  12.055   8.804
72019SOL    HW117896  14.863  11.976   8.852
72019SOL    HW217897  14.776  12.100   8.858
72020SOL     OW17898   4.804  11.953  11.436
72020SOL    HW117899   4.857  12.026  11.468
72020SOL    HW217900   4.735  11.994  11.383
72021SOL     OW17901  11.643  10.620   7.862
72021SOL    HW117902  11.576  10.685   7.885
72021SOL    HW217903  11.638  10.555   7.932
72022SOL     OW17904   1.075   8.077   4.536
72022SOL    HW117905   1.016   8.123   4.596
72022SOL    HW217906   1.103   7.999   4.585
72023SOL     OW17907   1.237  14.841  11.684
72023SOL    HW117908   1.204  14.784  11.615
72023SOL    HW217909   1.196  14.808  11.764
72024SOL     OW17910   9.248   9.902  14.542
72024SOL    HW117911   9.277   9.898  14.633
72024SOL    HW217912   9.318   9.860  14.492
72025SOL     OW17913   0.262   2.298   7.763
72025SOL    HW117914   0.343   2.261   7.727
72025SOL    HW217915   0.199   2.226   7.758
72026SOL     OW17916  10.452   4.961  12.998
72026SOL    HW117917  10.495   4.920  13.073
72026SOL    HW217918  10.360   4.967  13.024
72027SOL     OW17919   8.744   7.026   7.035
72027SOL    HW117920   8.684   7.055   7.104
72027SOL    HW217921   8.721   7.079   6.959
72028SOL     OW17922   1.704   2.838   0.105
72028SOL    HW117923   1.637   2.833   0.173
72028SOL    HW217924   1.787   2.826   0.153
72029SOL     OW17925   9.744   8.531  11.732
72029SOL    HW117926   9.774   8.531  11.823
72029SOL    HW217927   9.807   8.476  11.686
72030SOL     OW17928  11.725   3.758  12.712
72030SOL    HW117929  11.788   3.718  12.651
72030SOL    HW217930  11.760   3.845  12.727
72031SOL     OW17931   7.965   9.828   5.863
72031SOL    HW117932   7.984   9.916   5.896
72031SOL    HW217933   7.884   9.803   5.907
72032SOL     OW17934   0.502   0.264   8.703
72032SOL    HW117935   0.498   0.354   8.736
72032SOL    HW217936   0.448   0.214   8.764
72033SOL     OW17937  12.945  12.094  13.588
72033SOL    HW117938  12.854  12.116  13.566
72033SOL    HW217939  12.984  12.071  13.504
72034SOL     OW17940  12.867   3.756   3.162
72034SOL    HW117941  12.782   3.793   3.190
72034SOL    HW217942  12.902   3.716   3.241
72035SOL     OW17943  11.745   1.044   5.370
72035SOL    HW117944  11.700   0.960   5.366
72035SOL    HW217945  11.817   1.031   5.432
72036SOL     OW17946   0.855   3.675   5.354
72036SOL    HW117947   0.867   3.672   5.449
72036SOL    HW217948   0.893   3.759   5.328
72037SOL     OW17949   3.986   0.253   3.328
72037SOL    HW117950   3.895   0.266   3.354
72037SOL    HW217951   3.981   0.225   3.236
72038SOL     OW17952   9.526  12.634   2.311
72038SOL    HW117953   9.436  12.650   2.339
72038SOL    HW217954   9.519  12.559   2.251
72039SOL     OW17955   3.897   7.442  12.643
72039SOL    HW117956   3.835   7.465  12.712
72039SOL    HW217957   3.850   7.379  12.588
72040SOL     OW17958   5.217   2.836  12.325
72040SOL    HW117959   5.210   2.851  12.419
72040SOL    HW217960   5.141   2.880  12.288
72041SOL     OW17961  10.334   9.271   8.868
72041SOL    HW117962  10.264   9.223   8.912
72041SOL    HW217963  10.394   9.297   8.938
72042SOL     OW17964   5.175   7.806   1.963
72042SOL    HW117965   5.152   7.899   1.965
72042SOL    HW217966   5.105   7.764   2.014
72043SOL     OW17967   2.975  14.550   4.170
72043SOL    HW117968   3.045  14.615   4.166
72043SOL    HW217969   2.927  14.571   4.250
72044SOL     OW17970   1.192   2.233  10.684
72044SOL    HW117971   1.242   2.214  10.605
72044SOL    HW217972   1.249   2.204  10.756
72045SOL     OW17973   5.338   9.840   3.963
72045SOL    HW117974   5.361   9.864   3.873
72045SOL    HW217975   5.243   9.851   3.967
72046SOL     OW17976  12.473   8.362   0.627
72046SOL    HW117977  12.498   8.366   0.535
72046SOL    HW217978  12.555   8.367   0.675
72047SOL     OW17979  10.756  10.156  11.421
72047SOL    HW117980  10.679  10.196  11.461
72047SOL    HW217981  10.754  10.185  11.330
72048SOL     OW17982  12.719   0.315   4.066
72048SOL    HW117983  12.743   0.279   4.152
72048SOL    HW217984  12.691   0.239   4.015
72049SOL     OW17985   7.904  13.230   0.477
72049SOL    HW117986   7.854  13.234   0.396
72049SOL    HW217987   7.995  13.220   0.448
72050SOL     OW17988   3.830   7.496   2.983
72050SOL    HW117989   3.889   7.487   2.908
72050SOL    HW217990   3.812   7.590   2.988
72051SOL     OW17991   5.391  12.096   5.205
72051SOL    HW117992   5.327  12.026   5.200
72051SOL    HW217993   5.339  12.176   5.213
72052SOL     OW17994   7.216   1.579  14.620
72052SOL    HW117995   7.138   1.523  14.610
72052SOL    HW217996   7.289   1.517  14.628
72053SOL     OW17997  10.995   1.465   0.004
72053SOL    HW117998  11.006   1.536   0.067
72053SOL    HW217999  10.900   1.457  14.874
72054SOL     OW18000  11.464  14.828  11.676
72054SOL    HW118001  11.386  14.779  11.702
72054SOL    HW218002  11.536  14.766  11.686
72055SOL     OW18003  10.074   5.050   1.430
72055SOL    HW118004  10.038   5.135   1.406
72055SOL    HW218005  10.002   5.007   1.477
72056SOL     OW18006   8.460   2.488  14.646
72056SOL    HW118007   8.535   2.541  14.673
72056SOL    HW218008   8.398   2.551  14.608
72057SOL     OW18009  14.608   3.238   2.004
72057SOL    HW118010  14.635   3.166   2.062
72057SOL    HW218011  14.612   3.201   1.916
72058SOL     OW18012   5.935   5.357  14.524
72058SOL    HW118013   5.863   5.296  14.538
72058SOL    HW218014   5.998   5.337  14.593
72059SOL     OW18015   3.731   2.480   4.947
72059SOL    HW118016   3.777   2.490   5.030
72059SOL    HW218017   3.790   2.520   4.882
72060SOL     OW18018   6.343  12.756   0.601
72060SOL    HW118019   6.304  12.688   0.546
72060SOL    HW218020   6.283  12.830   0.593
72061SOL     OW18021   5.802   5.748   1.325
72061SOL    HW118022   5.848   5.667   1.302
72061SOL    HW218023   5.853   5.785   1.396
72062SOL     OW18024   6.596   7.229   4.560
72062SOL    HW118025   6.547   7.262   4.636
72062SOL    HW218026   6.669   7.291   4.551
72063SOL     OW18027   9.740  13.010   0.361
72063SOL    HW118028   9.698  13.061   0.292
72063SOL    HW218029   9.834  13.023   0.347
72064SOL     OW18030  13.993  14.068   0.200
72064SOL    HW118031  13.993  14.052   0.105
72064SOL    HW218032  13.992  13.980   0.238
72065SOL     OW18033   6.468   6.014   8.373
72065SOL    HW118034   6.510   6.079   8.430
72065SOL    HW218035   6.436   5.947   8.433
72066SOL     OW18036   7.359   3.162  13.463
72066SOL    HW118037   7.412   3.129  13.390
72066SOL    HW218038   7.422   3.205  13.521
72067SOL     OW18039   6.541   8.099  11.388
72067SOL    HW118040   6.596   8.138  11.320
72067SOL    HW218041   6.593   8.105  11.468
72068SOL     OW18042   9.474  14.031  13.033
72068SOL    HW118043   9.394  14.078  13.013
72068SOL    HW218044   9.476  13.958  12.971
72069SOL     OW18045   2.191   8.741   8.577
72069SOL    HW118046   2.183   8.661   8.525
72069SOL    HW218047   2.283   8.743   8.604
72070SOL     OW18048   3.094   9.685   7.262
72070SOL    HW118049   3.021   9.636   7.301
72070SOL    HW218050   3.052   9.763   7.226
72071SOL     OW18051   9.057   9.905   9.824
72071SOL    HW118052   9.109   9.931   9.900
72071SOL    HW218053   9.083   9.967   9.755
72072SOL     OW18054  12.050   6.144   3.317
72072SOL    HW118055  12.012   6.137   3.405
72072SOL    HW218056  11.975   6.137   3.258
72073SOL     OW18057  14.175   3.011  10.586
72073SOL    HW118058  14.118   3.040  10.515
72073SOL    HW218059  14.166   3.078  10.653
72074SOL     OW18060  11.797   1.245   1.637
72074SOL    HW118061  11.822   1.311   1.702
72074SOL    HW218062  11.758   1.296   1.565
72075SOL     OW18063   9.125   6.085  12.155
72075SOL    HW118064   9.146   6.154  12.092
72075SOL    HW218065   9.154   6.004  12.112
72076SOL     OW18066  12.860   2.855   9.942
72076SOL    HW118067  12.806   2.831   9.867
72076SOL    HW218068  12.883   2.947   9.925
72077SOL     OW18069   2.547   0.454  11.228
72077SOL    HW118070   2.532   0.386  11.295
72077SOL    HW218071   2.576   0.405  11.151
72078SOL     OW18072   5.524  12.189  14.072
72078SOL    HW118073   5.582  12.249  14.026
72078SOL    HW218074   5.536  12.105  14.027
72079SOL     OW18075   0.949   2.407  10.232
72079SOL    HW118076   0.902   2.490  10.220
72079SOL    HW218077   0.960   2.399  10.327
72080SOL     OW18078   4.120   1.266  14.535
72080SOL    HW118079   4.173   1.290  14.459
72080SOL    HW218080   4.170   1.199  14.580
72081SOL     OW18081   3.653   3.059  11.862
72081SOL    HW118082   3.584   3.009  11.905
72081SOL    HW218083   3.720   2.994  11.841
72082SOL     OW18084   7.931   0.896  14.805
72082SOL    HW118085   7.842   0.922  14.830
72082SOL    HW218086   7.979   0.891   0.007
72083SOL     OW18087   9.670   7.148   3.862
72083SOL    HW118088   9.764   7.149   3.847
72083SOL    HW218089   9.654   7.063   3.904
72084SOL     OW18090  13.250  14.486   5.829
72084SOL    HW118091  13.285  14.461   5.914
72084SOL    HW218092  13.266  14.580   5.823
72085SOL     OW18093  12.399   3.877   9.881
72085SOL    HW118094  12.468   3.878   9.815
72085SOL    HW218095  12.445   3.870   9.964
72086SOL     OW18096  13.066   4.258  13.605
72086SOL    HW118097  13.094   4.228  13.518
72086SOL    HW218098  13.068   4.179  13.659
72087SOL     OW18099   8.422   2.562   1.923
72087SOL    HW118100   8.431   2.514   2.005
72087SOL    HW218101   8.431   2.494   1.855
72088SOL     OW18102   6.256  14.525   6.130
72088SOL    HW118103   6.294  14.438   6.119
72088SOL    HW218104   6.271  14.569   6.047
72089SOL     OW18105  13.416  12.402   6.841
72089SOL    HW118106  13.446  12.406   6.751
72089SOL    HW218107  13.355  12.475   6.850
72090SOL     OW18108   1.780   8.109   0.075
72090SOL    HW118109   1.834   8.185   0.099
72090SOL    HW218110   1.755   8.125  14.864
72091SOL     OW18111   8.503   8.933  11.111
72091SOL    HW118112   8.458   8.872  11.171
72091SOL    HW218113   8.511   8.884  11.030
72092SOL     OW18114   7.596   3.946   9.079
72092SOL    HW118115   7.506   3.939   9.047
72092SOL    HW218116   7.647   3.893   9.018
72093SOL     OW18117   9.671  11.200   1.109
72093SOL    HW118118   9.737  11.141   1.145
72093SOL    HW218119   9.675  11.277   1.165
72094SOL     OW18120  13.084   2.863   8.322
72094SOL    HW118121  13.108   2.812   8.399
72094SOL    HW218122  13.159   2.920   8.307
72095SOL     OW18123  12.274  11.636  14.266
72095SOL    HW118124  12.323  11.692  14.206
72095SOL    HW218125  12.234  11.696  14.329
72096SOL     OW18126  11.862  10.671   4.667
72096SOL    HW118127  11.879  10.682   4.760
72096SOL    HW218128  11.872  10.759   4.630
72097SOL     OW18129   9.763  12.414  14.089
72097SOL    HW118130   9.701  12.416  14.017
72097SOL    HW218131   9.741  12.334  14.138
72098SOL     OW18132  14.788  10.925  13.462
72098SOL    HW118133  14.764  10.914  13.554
72098SOL    HW218134  14.879  10.956  13.464
72099SOL     OW18135   7.167   4.710   5.707
72099SOL    HW118136   7.194   4.630   5.753
72099SOL    HW218137   7.115   4.678   5.633
72100SOL     OW18138   6.323   7.428  13.072
72100SOL    HW118139   6.301   7.467  12.987
72100SOL    HW218140   6.392   7.365  13.052
72101SOL     OW18141   1.072   9.617   0.323
72101SOL    HW118142   1.034   9.681   0.262
72101SOL    HW218143   1.128   9.670   0.380
72102SOL     OW18144   5.748   3.275   3.032
72102SOL    HW118145   5.659   3.307   3.015
72102SOL    HW218146   5.737   3.205   3.096
72103SOL     OW18147   5.495  13.721   7.261
72103SOL    HW118148   5.440  13.783   7.214
72103SOL    HW218149   5.560  13.776   7.306
72104SOL     OW18150   9.979  11.735   5.336
72104SOL    HW118151   9.951  11.744   5.245
72104SOL    HW218152   9.903  11.763   5.388
72105SOL     OW18153   5.524  11.200   1.440
72105SOL    HW118154   5.512  11.128   1.378
72105SOL    HW218155   5.547  11.157   1.522
72106SOL     OW18156   9.446  11.282   3.471
72106SOL    HW118157   9.537  11.253   3.480
72106SOL    HW218158   9.419  11.305   3.560
72107SOL     OW18159   0.081   6.739   2.178
72107SOL    HW118160   0.067   6.751   2.084
72107SOL    HW218161   0.172   6.711   2.186
72108SOL     OW18162   3.969   3.463   2.571
72108SOL    HW118163   4.004   3.374   2.573
72108SOL    HW218164   3.959   3.487   2.663
72109SOL     OW18165  13.560   6.388   3.525
72109SOL    HW118166  13.600   6.318   3.474
72109SOL    HW218167  13.486   6.418   3.472
72110SOL     OW18168   5.648  10.004  10.831
72110SOL    HW118169   5.641  10.086  10.881
72110SOL    HW218170   5.707  10.026  10.758
72111SOL     OW18171   2.072  14.061   2.413
72111SOL    HW118172   2.126  14.067   2.492
72111SOL    HW218173   2.105  13.984   2.367
72112SOL     OW18174  14.063  10.255   0.917
72112SOL    HW118175  14.067  10.217   0.829
72112SOL    HW218176  14.128  10.206   0.967
72113SOL     OW18177  10.832  12.277  14.404
72113SOL    HW118178  10.794  12.290  14.491
72113SOL    HW218179  10.851  12.365  14.372
72114SOL     OW18180  11.131   6.309   6.421
72114SOL    HW118181  11.188   6.236   6.395
72114SOL    HW218182  11.117   6.296   6.515
72115SOL     OW18183  10.293   3.752   6.408
72115SOL    HW118184  10.359   3.821   6.419
72115SOL    HW218185  10.328   3.678   6.458
72116SOL     OW18186  11.128   1.129   7.016
72116SOL    HW118187  11.210   1.142   6.969
72116SOL    HW218188  11.113   1.034   7.013
72117SOL     OW18189   2.941   9.205   7.475
72117SOL    HW118190   2.926   9.220   7.382
72117SOL    HW218191   2.938   9.110   7.485
72118SOL     OW18192  10.349   1.594   5.486
72118SOL    HW118193  10.411   1.604   5.558
72118SOL    HW218194  10.377   1.659   5.421
72119SOL     OW18195   3.259   2.185   6.198
72119SOL    HW118196   3.301   2.184   6.112
72119SOL    HW218197   3.297   2.260   6.243
72120SOL     OW18198   3.759   1.875   1.888
72120SOL    HW118199   3.740   1.963   1.856
72120SOL    HW218200   3.674   1.839   1.912
72121SOL     OW18201  13.482   4.251  10.339
72121SOL    HW118202  13.510   4.162  10.362
72121SOL    HW218203  13.506   4.304  10.415
72122SOL     OW18204   4.096   9.233   1.203
72122SOL    HW118205   4.159   9.287   1.250
72122SOL    HW218206   4.070   9.287   1.128
72123SOL     OW18207   8.400   3.026  14.634
72123SOL    HW118208   8.381   3.000  14.543
72123SOL    HW218209   8.439   3.113  14.626
72124SOL     OW18210   1.441   1.714   6.792
72124SOL    HW118211   1.427   1.776   6.720
72124SOL    HW218212   1.468   1.769   6.866
72125SOL     OW18213  11.862  14.315  12.498
72125SOL    HW118214  11.879  14.236  12.447
72125SOL    HW218215  11.877  14.289  12.589
72126SOL     OW18216   1.137   4.787   6.733
72126SOL    HW118217   1.165   4.875   6.759
72126SOL    HW218218   1.145   4.787   6.637
72127SOL     OW18219   4.072   1.262   2.175
72127SOL    HW118220   4.160   1.248   2.142
72127SOL    HW218221   4.047   1.177   2.213
72128SOL     OW18222   9.730  11.142   9.126
72128SOL    HW118223   9.748  11.224   9.080
72128SOL    HW218224   9.791  11.142   9.200
72129SOL     OW18225  11.591   4.598   6.204
72129SOL    HW118226  11.572   4.562   6.117
72129SOL    HW218227  11.506   4.604   6.246
72130SOL     OW18228   2.307   1.431   7.066
72130SOL    HW118229   2.369   1.391   7.127
72130SOL    HW218230   2.291   1.519   7.102
72131SOL     OW18231   5.465  10.691   0.736
72131SOL    HW118232   5.532  10.623   0.750
72131SOL    HW218233   5.382  10.643   0.734
72132SOL     OW18234   1.792   1.398   5.305
72132SOL    HW118235   1.718   1.338   5.293
72132SOL    HW218236   1.752   1.485   5.309
72133SOL     OW18237  10.487  14.663  12.900
72133SOL    HW118238  10.446  14.655  12.813
72133SOL    HW218239  10.520  14.753  12.902
72134SOL     OW18240  14.635   7.169   9.793
72134SOL    HW118241  14.628   7.265   9.795
72134SOL    HW218242  14.560   7.139   9.844
72135SOL     OW18243  11.759  13.130   9.698
72135SOL    HW118244  11.735  13.196   9.762
72135SOL    HW218245  11.727  13.164   9.614
72136SOL     OW18246  10.592  10.819   2.386
72136SOL    HW118247  10.529  10.768   2.334
72136SOL    HW218248  10.595  10.904   2.343
72137SOL     OW18249   0.194   3.579   4.647
72137SOL    HW118250   0.233   3.550   4.564
72137SOL    HW218251   0.106   3.540   4.647
72138SOL     OW18252   0.466   9.991   4.463
72138SOL    HW118253   0.466   9.902   4.427
72138SOL    HW218254   0.557  10.005   4.490
72139SOL     OW18255   2.911  13.609   8.814
72139SOL    HW118256   2.952  13.682   8.859
72139SOL    HW218257   2.837  13.585   8.870
72140SOL     OW18258   7.199   9.770   4.671
72140SOL    HW118259   7.217   9.852   4.717
72140SOL    HW218260   7.264   9.709   4.706
72141SOL     OW18261   0.083  14.195   9.261
72141SOL    HW118262   0.057  14.107   9.232
72141SOL    HW218263   0.151  14.221   9.200
72142SOL     OW18264   2.200  14.335  13.499
72142SOL    HW118265   2.191  14.271  13.428
72142SOL    HW218266   2.122  14.320  13.554
72143SOL     OW18267   7.677   6.844  12.913
72143SOL    HW118268   7.582   6.850  12.900
72143SOL    HW218269   7.710   6.808  12.831
72144SOL     OW18270  10.593   7.451   0.675
72144SOL    HW118271  10.634   7.374   0.637
72144SOL    HW218272  10.543   7.418   0.749
72145SOL     OW18273   7.434   2.607  10.342
72145SOL    HW118274   7.402   2.581  10.255
72145SOL    HW218275   7.525   2.634  10.327
72146SOL     OW18276   2.758   1.564   7.143
72146SOL    HW118277   2.851   1.587   7.150
72146SOL    HW218278   2.756   1.493   7.078
72147SOL     OW18279  10.602  12.617   6.060
72147SOL    HW118280  10.675  12.589   6.116
72147SOL    HW218281  10.583  12.540   6.007
72148SOL     OW18282   5.586   8.697   7.348
72148SOL    HW118283   5.585   8.736   7.261
72148SOL    HW218284   5.672   8.655   7.355
72149SOL     OW18285   2.524   6.140  11.959
72149SOL    HW118286   2.473   6.197  12.017
72149SOL    HW218287   2.607   6.187  11.947
72150SOL     OW18288   7.846   5.868   8.228
72150SOL    HW118289   7.835   5.818   8.309
72150SOL    HW218290   7.765   5.918   8.219
72151SOL     OW18291  13.784   8.311   7.456
72151SOL    HW118292  13.814   8.317   7.547
72151SOL    HW218293  13.693   8.341   7.459
72152SOL     OW18294   0.683   1.238  10.029
72152SOL    HW118295   0.719   1.211  10.113
72152SOL    HW218296   0.723   1.323  10.011
72153SOL     OW18297   4.757  13.209   6.817
72153SOL    HW118298   4.702  13.163   6.753
72153SOL    HW218299   4.721  13.298   6.820
72154SOL     OW18300  14.357  13.727   3.446
72154SOL    HW118301  14.309  13.796   3.401
72154SOL    HW218302  14.437  13.769   3.476
72155SOL     OW18303   5.858   2.661  11.770
72155SOL    HW118304   5.857   2.603  11.846
72155SOL    HW218305   5.857   2.749  11.807
72156SOL     OW18306   9.295   6.418  13.269
72156SOL    HW118307   9.262   6.463  13.191
72156SOL    HW218308   9.217   6.386  13.314
72157SOL     OW18309   9.284   0.154   9.613
72157SOL    HW118310   9.336   0.123   9.539
72157SOL    HW218311   9.243   0.235   9.581
72158SOL     OW18312   9.633  11.805  10.511
72158SOL    HW118313   9.663  11.718  10.487
72158SOL    HW218314   9.710  11.861  10.500
72159SOL     OW18315   7.908  12.425   5.161
72159SOL    HW118316   7.938  12.516   5.155
72159SOL    HW218317   7.987  12.372   5.152
72160SOL     OW18318   4.207   5.604   4.580
72160SOL    HW118319   4.283   5.583   4.635
72160SOL    HW218320   4.151   5.527   4.587
72161SOL     OW18321   6.957   3.566   4.684
72161SOL    HW118322   7.014   3.633   4.647
72161SOL    HW218323   7.014   3.490   4.696
72162SOL     OW18324  10.433   8.879  12.856
72162SOL    HW118325  10.443   8.830  12.775
72162SOL    HW218326  10.464   8.967  12.834
72163SOL     OW18327   4.565   7.440   6.755
72163SOL    HW118328   4.648   7.469   6.793
72163SOL    HW218329   4.547   7.503   6.684
72164SOL     OW18330   4.316  10.898   8.965
72164SOL    HW118331   4.294  10.868   8.877
72164SOL    HW218332   4.387  10.961   8.952
72165SOL     OW18333  11.857   2.727  14.155
72165SOL    HW118334  11.812   2.680  14.225
72165SOL    HW218335  11.878   2.660  14.090
72166SOL     OW18336   7.768  12.194  11.143
72166SOL    HW118337   7.836  12.261  11.157
72166SOL    HW218338   7.689  12.232  11.182
72167SOL     OW18339   5.493  11.644   8.606
72167SOL    HW118340   5.408  11.687   8.598
72167SOL    HW218341   5.550  11.694   8.548
72168SOL     OW18342   7.958   7.611   1.878
72168SOL    HW118343   7.863   7.598   1.878
72168SOL    HW218344   7.993   7.532   1.838
72169SOL     OW18345   2.559   8.228   2.849
72169SOL    HW118346   2.558   8.238   2.753
72169SOL    HW218347   2.634   8.279   2.878
72170SOL     OW18348   8.952   3.885   4.792
72170SOL    HW118349   8.965   3.862   4.884
72170SOL    HW218350   9.040   3.897   4.758
72171SOL     OW18351   9.875   6.937   2.507
72171SOL    HW118352   9.944   6.898   2.560
72171SOL    HW218353   9.797   6.933   2.563
72172SOL     OW18354  10.060   4.533   3.490
72172SOL    HW118355  10.113   4.542   3.569
72172SOL    HW218356  10.008   4.454   3.505
72173SOL     OW18357  13.727   1.850  13.917
72173SOL    HW118358  13.749   1.920  13.978
72173SOL    HW218359  13.642   1.874  13.881
72174SOL     OW18360   0.230   1.775   9.833
72174SOL    HW118361   0.230   1.680   9.824
72174SOL    HW218362   0.221   1.790   9.927
72175SOL     OW18363  10.866   9.753  13.146
72175SOL    HW118364  10.843   9.805  13.069
72175SOL    HW218365  10.793   9.766  13.207
72176SOL     OW18366   2.380   4.532  11.130
72176SOL    HW118367   2.425   4.616  11.117
72176SOL    HW218368   2.394   4.511  11.222
72177SOL     OW18369   8.226  11.209  12.663
72177SOL    HW118370   8.255  11.118  12.668
72177SOL    HW218371   8.305  11.258  12.644
72178SOL     OW18372  11.992  14.816  11.020
72178SOL    HW118373  11.982  14.723  11.002
72178SOL    HW218374  12.085  14.834  11.003
72179SOL     OW18375  13.872  11.361   2.487
72179SOL    HW118376  13.877  11.303   2.563
72179SOL    HW218377  13.962  11.386   2.469
72180SOL     OW18378  14.552   6.349   4.679
72180SOL    HW118379  14.483   6.286   4.658
72180SOL    HW218380  14.505   6.426   4.711
72181SOL     OW18381  10.306   5.492  11.270
72181SOL    HW118382  10.211   5.477  11.275
72181SOL    HW218383  10.327   5.484  11.178
72182SOL     OW18384   5.783   5.126   0.087
72182SOL    HW118385   5.795   5.124   0.181
72182SOL    HW218386   5.763   5.217   0.066
72183SOL     OW18387  14.503  11.104   7.743
72183SOL    HW118388  14.563  11.142   7.679
72183SOL    HW218389  14.416  11.116   7.705
72184SOL     OW18390   3.731  13.317   2.731
72184SOL    HW118391   3.652  13.357   2.696
72184SOL    HW218392   3.803  13.362   2.688
72185SOL     OW18393  10.882   3.669   6.182
72185SOL    HW118394  10.953   3.724   6.150
72185SOL    HW218395  10.920   3.623   6.258
72186SOL     OW18396  13.198   1.982  13.794
72186SOL    HW118397  13.217   1.935  13.713
72186SOL    HW218398  13.200   1.914  13.862
72187SOL     OW18399  11.124  14.764   3.971
72187SOL    HW118400  11.108  14.752   4.065
72187SOL    HW218401  11.129  14.859   3.960
72188SOL     OW18402   7.093   8.821   7.810
72188SOL    HW118403   7.056   8.902   7.775
72188SOL    HW218404   7.170   8.805   7.755
72189SOL     OW18405  11.074  12.278   3.121
72189SOL    HW118406  10.988  12.287   3.082
72189SOL    HW218407  11.133  12.265   3.047
72190SOL     OW18408   4.652  10.219   0.437
72190SOL    HW118409   4.737  10.183   0.466
72190SOL    HW218410   4.612  10.147   0.387
72191SOL     OW18411   5.828   9.048   9.060
72191SOL    HW118412   5.764   9.104   9.018
72191SOL    HW218413   5.776   8.976   9.097
72192SOL     OW18414   5.267   8.569  13.256
72192SOL    HW118415   5.178   8.604  13.269
72192SOL    HW218416   5.256   8.474  13.255
72193SOL     OW18417  12.099   3.351  13.837
72193SOL    HW118418  12.020   3.319  13.794
72193SOL    HW218419  12.129   3.423  13.781
72194SOL     OW18420  10.254  13.154  12.667
72194SOL    HW118421  10.220  13.064  12.672
72194SOL    HW218422  10.297  13.168  12.751
72195SOL     OW18423  14.653  12.808  10.008
72195SOL    HW118424  14.671  12.720   9.974
72195SOL    HW218425  14.732  12.832  10.056
72196SOL     OW18426   7.585   8.333   0.458
72196SOL    HW118427   7.613   8.412   0.412
72196SOL    HW218428   7.496   8.351   0.487
72197SOL     OW18429   0.081  10.262   2.157
72197SOL    HW118430   0.082  10.177   2.201
72197SOL    HW218431   0.172  10.292   2.160
72198SOL     OW18432  14.291   2.632   5.191
72198SOL    HW118433  14.207   2.593   5.215
72198SOL    HW218434  14.348   2.557   5.174
72199SOL     OW18435   1.483   2.915   3.404
72199SOL    HW118436   1.508   3.005   3.424
72199SOL    HW218437   1.477   2.912   3.309
72200SOL     OW18438  13.624   3.124  13.296
72200SOL    HW118439  13.564   3.066  13.342
72200SOL    HW218440  13.667   3.174  13.365
72201SOL     OW18441   2.386   4.423  13.258
72201SOL    HW118442   2.462   4.467  13.219
72201SOL    HW218443   2.323   4.494  13.274
72202SOL     OW18444  11.304  10.593  10.315
72202SOL    HW118445  11.315  10.590  10.410
72202SOL    HW218446  11.218  10.555  10.299
72203SOL     OW18447   1.497  13.475  11.695
72203SOL    HW118448   1.549  13.491  11.774
72203SOL    HW218449   1.552  13.418  11.641
72204SOL     OW18450   4.704   6.774   2.640
72204SOL    HW118451   4.670   6.838   2.578
72204SOL    HW218452   4.721   6.696   2.588
72205SOL     OW18453   1.266  10.816  13.530
72205SOL    HW118454   1.325  10.743  13.509
72205SOL    HW218455   1.187  10.773  13.562
72206SOL     OW18456   8.679   0.343  12.388
72206SOL    HW118457   8.617   0.276  12.360
72206SOL    HW218458   8.742   0.350  12.316
72207SOL     OW18459   7.317  13.164   0.305
72207SOL    HW118460   7.261  13.242   0.303
72207SOL    HW218461   7.375  13.178   0.380
72208SOL     OW18462  10.501   1.825   9.131
72208SOL    HW118463  10.473   1.915   9.147
72208SOL    HW218464  10.568   1.832   9.063
72209SOL     OW18465  13.941   1.164   0.628
72209SOL    HW118466  14.036   1.164   0.615
72209SOL    HW218467  13.929   1.131   0.717
72210SOL     OW18468   4.835   7.848  12.489
72210SOL    HW118469   4.925   7.817  12.496
72210SOL    HW218470   4.838   7.917  12.424
72211SOL     OW18471   8.093   6.578  10.571
72211SOL    HW118472   8.185   6.564  10.592
72211SOL    HW218473   8.067   6.653  10.626
72212SOL     OW18474   3.226   5.267   0.620
72212SOL    HW118475   3.201   5.177   0.599
72212SOL    HW218476   3.318   5.261   0.646
72213SOL     OW18477   0.176   6.933   8.137
72213SOL    HW118478   0.181   7.018   8.094
72213SOL    HW218479   0.127   6.949   8.217
72214SOL     OW18480   0.963   1.672   0.734
72214SOL    HW118481   1.018   1.736   0.688
72214SOL    HW218482   1.008   1.656   0.816
72215SOL     OW18483   4.085  14.563   2.751
72215SOL    HW118484   4.130  14.632   2.800
72215SOL    HW218485   4.149  14.492   2.745
72216SOL     OW18486  13.132  12.342  10.812
72216SOL    HW118487  13.076  12.408  10.853
72216SOL    HW218488  13.112  12.350  10.718
72217SOL     OW18489   1.732   1.624   6.785
72217SOL    HW118490   1.708   1.535   6.760
72217SOL    HW218491   1.649   1.668   6.800
72218SOL     OW18492  13.990   2.660  12.974
72218SOL    HW118493  14.072   2.629  13.013
72218SOL    HW218494  14.012   2.742  12.931
72219SOL     OW18495   1.573  13.043   0.278
72219SOL    HW118496   1.639  13.111   0.263
72219SOL    HW218497   1.529  13.032   0.194
72220SOL     OW18498   7.638   5.288   3.726
72220SOL    HW118499   7.673   5.355   3.667
72220SOL    HW218500   7.709   5.225   3.735
72221SOL     OW18501   0.850   7.098   5.243
72221SOL    HW118502   0.941   7.071   5.232
72221SOL    HW218503   0.799   7.018   5.233
72222SOL     OW18504  10.867   4.678   8.700
72222SOL    HW118505  10.961   4.661   8.694
72222SOL    HW218506  10.829   4.627   8.629
72223SOL     OW18507   3.951   3.296  10.133
72223SOL    HW118508   3.884   3.305  10.200
72223SOL    HW218509   3.987   3.385  10.123
72224SOL     OW18510   1.462   1.966   9.993
72224SOL    HW118511   1.430   2.056   9.991
72224SOL    HW218512   1.407   1.919   9.930
72225SOL     OW18513   4.294  12.576   9.379
72225SOL    HW118514   4.211  12.566   9.425
72225SOL    HW218515   4.358  12.591   9.449
72226SOL     OW18516  12.430   4.207   2.787
72226SOL    HW118517  12.452   4.275   2.850
72226SOL    HW218518  12.379   4.252   2.720
72227SOL     OW18519   0.496  11.160   1.557
72227SOL    HW118520   0.427  11.154   1.492
72227SOL    HW218521   0.495  11.074   1.601
72228SOL     OW18522   7.965   1.648  14.314
72228SOL    HW118523   8.051   1.631  14.352
72228SOL    HW218524   7.955   1.583  14.245
72229SOL     OW18525   4.696   5.286   1.077
72229SOL    HW118526   4.767   5.300   1.140
72229SOL    HW218527   4.688   5.190   1.070
72230SOL     OW18528   5.810   6.217  12.066
72230SOL    HW118529   5.871   6.227  12.139
72230SOL    HW218530   5.723   6.229  12.105
72231SOL     OW18531  13.083  14.283   7.390
72231SOL    HW118532  13.138  14.339   7.444
72231SOL    HW218533  13.129  14.200   7.386
72232SOL     OW18534   6.211  11.815   6.013
72232SOL    HW118535   6.299  11.837   5.982
72232SOL    HW218536   6.215  11.721   6.029
72233SOL     OW18537  10.986   6.390   5.965
72233SOL    HW118538  11.032   6.317   6.007
72233SOL    HW218539  10.900   6.391   6.005
72234SOL     OW18540  11.093   0.442   0.912
72234SOL    HW118541  11.079   0.419   1.004
72234SOL    HW218542  11.153   0.516   0.915
72235SOL     OW18543  11.536   8.717  11.311
72235SOL    HW118544  11.539   8.663  11.390
72235SOL    HW218545  11.627   8.725  11.284
72236SOL     OW18546   1.891  13.484   3.693
72236SOL    HW118547   1.849  13.422   3.633
72236SOL    HW218548   1.860  13.570   3.664
72237SOL     OW18549  14.010   3.923  11.356
72237SOL    HW118550  13.975   3.953  11.439
72237SOL    HW218551  13.969   3.980  11.290
72238SOL     OW18552  13.123  10.343  13.193
72238SOL    HW118553  13.118  10.407  13.264
72238SOL    HW218554  13.171  10.388  13.123
72239SOL     OW18555   1.086  13.304   1.047
72239SOL    HW118556   1.001  13.261   1.058
72239SOL    HW218557   1.147  13.252   1.100
72240SOL     OW18558   9.698   9.851   9.009
72240SOL    HW118559   9.630   9.822   8.949
72240SOL    HW218560   9.744   9.920   8.962
72241SOL     OW18561   9.027  10.359  11.470
72241SOL    HW118562   9.005  10.388  11.558
72241SOL    HW218563   8.998  10.431  11.413
72242SOL     OW18564  10.205   6.077   0.274
72242SOL    HW118565  10.162   6.068   0.359
72242SOL    HW218566  10.203   6.171   0.256
72243SOL     OW18567   5.506   1.446  12.614
72243SOL    HW118568   5.422   1.492  12.623
72243SOL    HW218569   5.483   1.354  12.626
72244SOL     OW18570   8.520   1.377   4.732
72244SOL    HW118571   8.606   1.365   4.691
72244SOL    HW218572   8.529   1.458   4.782
72245SOL     OW18573   8.164  13.848   2.288
72245SOL    HW118574   8.171  13.771   2.231
72245SOL    HW218575   8.070  13.861   2.298
72246SOL     OW18576  12.756   3.595  13.225
72246SOL    HW118577  12.737   3.622  13.315
72246SOL    HW218578  12.827   3.531  13.233
72247SOL     OW18579   1.996  14.225   0.736
72247SOL    HW118580   2.057  14.296   0.715
72247SOL    HW218581   2.052  14.148   0.745
72248SOL     OW18582   7.149   4.218   6.021
72248SOL    HW118583   7.058   4.243   6.003
72248SOL    HW218584   7.183   4.189   5.937
72249SOL     OW18585  14.024   9.097  12.854
72249SOL    HW118586  13.974   9.085  12.934
72249SOL    HW218587  14.113   9.115  12.883
72250SOL     OW18588   8.145   2.208  13.475
72250SOL    HW118589   8.064   2.200  13.425
72250SOL    HW218590   8.181   2.119  13.477
72251SOL     OW18591   8.140  13.017   2.819
72251SOL    HW118592   8.150  13.058   2.906
72251SOL    HW218593   8.129  13.090   2.759
72252SOL     OW18594  11.483   5.083   9.892
72252SOL    HW118595  11.430   5.129   9.827
72252SOL    HW218596  11.553   5.042   9.842
72253SOL     OW18597  10.789   2.465   6.985
72253SOL    HW118598  10.862   2.528   6.993
72253SOL    HW218599  10.720   2.502   7.040
72254SOL     OW18600  12.048  11.621   1.261
72254SOL    HW118601  11.998  11.677   1.201
72254SOL    HW218602  12.087  11.554   1.204
72255SOL     OW18603   5.602  12.736   7.579
72255SOL    HW118604   5.566  12.789   7.508
72255SOL    HW218605   5.584  12.785   7.658
72256SOL     OW18606   9.648   9.772  14.725
72256SOL    HW118607   9.667   9.728  14.642
72256SOL    HW218608   9.668   9.864  14.708
72257SOL     OW18609   5.391  14.828   8.276
72257SOL    HW118610   5.437  14.769   8.335
72257SOL    HW218611   5.397  14.786   8.190
72258SOL     OW18612   2.691   3.797   7.859
72258SOL    HW118613   2.700   3.712   7.901
72258SOL    HW218614   2.596   3.807   7.846
72259SOL     OW18615  12.411   3.593   7.740
72259SOL    HW118616  12.316   3.583   7.747
72259SOL    HW218617  12.428   3.683   7.768
72260SOL     OW18618  13.491   9.452   1.962
72260SOL    HW118619  13.443   9.535   1.953
72260SOL    HW218620  13.545   9.447   1.883
72261SOL     OW18621   7.178   5.996   6.608
72261SOL    HW118622   7.187   6.091   6.605
72261SOL    HW218623   7.086   5.980   6.588
72262SOL     OW18624  11.762  13.388  14.043
72262SOL    HW118625  11.732  13.326  13.976
72262SOL    HW218626  11.857  13.391  14.032
72263SOL     OW18627   3.059   3.063   0.054
72263SOL    HW118628   3.140   3.013   0.064
72263SOL    HW218629   2.991   2.997   0.039
72264SOL     OW18630   2.873  10.982  13.283
72264SOL    HW118631   2.803  11.048  13.283
72264SOL    HW218632   2.878  10.953  13.374
72265SOL     OW18633  14.850   6.490  10.692
72265SOL    HW118634  14.766   6.456  10.723
72265SOL    HW218635  14.878   6.427  10.626
72266SOL     OW18636  10.248   3.918  10.076
72266SOL    HW118637  10.162   3.918  10.034
72266SOL    HW218638  10.298   3.984  10.029
72267SOL     OW18639   4.474   8.877   1.815
72267SOL    HW118640   4.528   8.824   1.874
72267SOL    HW218641   4.465   8.823   1.736
72268SOL     OW18642   8.840   8.604   1.021
72268SOL    HW118643   8.845   8.513   0.992
72268SOL    HW218644   8.930   8.636   1.019
72269SOL     OW18645   5.632   0.961  13.140
72269SOL    HW118646   5.646   0.894  13.207
72269SOL    HW218647   5.555   1.010  13.169
72270SOL     OW18648   2.004   8.941  11.706
72270SOL    HW118649   2.008   9.027  11.663
72270SOL    HW218650   1.911   8.922  11.713
72271SOL     OW18651  12.757   2.171   9.237
72271SOL    HW118652  12.700   2.205   9.168
72271SOL    HW218653  12.802   2.249   9.271
72272SOL     OW18654   1.992   0.458   0.274
72272SOL    HW118655   1.959   0.384   0.324
72272SOL    HW218656   2.041   0.510   0.338
72273SOL     OW18657   4.408  11.052  13.108
72273SOL    HW118658   4.387  11.014  13.023
72273SOL    HW218659   4.373  11.141  13.104
72274SOL     OW18660  11.583   5.597   2.299
72274SOL    HW118661  11.549   5.669   2.353
72274SOL    HW218662  11.674   5.620   2.282
72275SOL     OW18663   9.881   3.376   2.981
72275SOL    HW118664   9.815   3.319   2.942
72275SOL    HW218665   9.906   3.436   2.910
72276SOL     OW18666  13.838   2.903   9.450
72276SOL    HW118667  13.878   2.821   9.478
72276SOL    HW218668  13.860   2.910   9.358
72277SOL     OW18669  13.078  12.098  10.407
72277SOL    HW118670  13.064  12.189  10.380
72277SOL    HW218671  13.167  12.097  10.442
72278SOL     OW18672  13.480   4.445  14.685
72278SOL    HW118673  13.507   4.353  14.694
72278SOL    HW218674  13.424   4.445  14.607
72279SOL     OW18675   4.076   9.629   0.822
72279SOL    HW118676   3.991   9.646   0.862
72279SOL    HW218677   4.097   9.708   0.773
72280SOL     OW18678   0.136   8.362   5.709
72280SOL    HW118679   0.089   8.354   5.792
72280SOL    HW218680   0.116   8.450   5.678
72281SOL     OW18681  12.416   2.614   9.594
72281SOL    HW118682  12.340   2.556   9.587
72281SOL    HW218683  12.476   2.567   9.651
72282SOL     OW18684   6.247   5.380   5.593
72282SOL    HW118685   6.154   5.364   5.576
72282SOL    HW218686   6.248   5.459   5.647
72283SOL     OW18687   2.924   5.097   8.282
72283SOL    HW118688   2.982   5.170   8.259
72283SOL    HW218689   2.836   5.129   8.260
72284SOL     OW18690   3.297  13.240  12.431
72284SOL    HW118691   3.259  13.305  12.489
72284SOL    HW218692   3.349  13.291  12.368
72285SOL     OW18693   8.829  13.623   2.309
72285SOL    HW118694   8.892  13.625   2.236
72285SOL    HW218695   8.879  13.652   2.385
72286SOL     OW18696  11.085   4.892   9.662
72286SOL    HW118697  11.071   4.902   9.567
72286SOL    HW218698  11.145   4.817   9.669
72287SOL     OW18699   9.072   7.355   4.625
72287SOL    HW118700   9.161   7.370   4.594
72287SOL    HW218701   9.079   7.280   4.684
72288SOL     OW18702   1.742   3.900   7.042
72288SOL    HW118703   1.742   3.996   7.045
72288SOL    HW218704   1.835   3.877   7.040
72289SOL     OW18705  14.128  14.819  10.159
72289SOL    HW118706  14.140  14.876  10.235
72289SOL    HW218707  14.178  14.861  10.089
72290SOL     OW18708   8.763   5.210   6.420
72290SOL    HW118709   8.739   5.302   6.431
72290SOL    HW218710   8.741   5.190   6.329
72291SOL     OW18711   2.713   8.335  13.531
72291SOL    HW118712   2.773   8.314  13.603
72291SOL    HW218713   2.765   8.320  13.452
72292SOL     OW18714   3.348  14.846   5.303
72292SOL    HW118715   3.403  14.771   5.280
72292SOL    HW218716   3.307  14.873   5.221
72293SOL     OW18717   6.750   8.084   3.299
72293SOL    HW118718   6.684   8.047   3.242
72293SOL    HW218719   6.700   8.122   3.372
72294SOL     OW18720   7.995   0.990   2.508
72294SOL    HW118721   8.028   0.929   2.442
72294SOL    HW218722   7.908   1.015   2.477
72295SOL     OW18723   9.823   6.010   3.023
72295SOL    HW118724   9.787   5.925   2.996
72295SOL    HW218725   9.915   5.992   3.042
72296SOL     OW18726  12.359   0.596   7.287
72296SOL    HW118727  12.416   0.595   7.364
72296SOL    HW218728  12.397   0.662   7.230
72297SOL     OW18729   3.325   1.981  13.482
72297SOL    HW118730   3.375   1.985  13.563
72297SOL    HW218731   3.324   2.071  13.450
72298SOL     OW18732  10.201   2.413   0.043
72298SOL    HW118733  10.188   2.505   0.019
72298SOL    HW218734  10.292   2.408   0.070
72299SOL     OW18735   7.047   8.165   7.206
72299SOL    HW118736   6.983   8.231   7.179
72299SOL    HW218737   7.126   8.216   7.226
72300SOL     OW18738   4.692  13.439   8.592
72300SOL    HW118739   4.750  13.491   8.537
72300SOL    HW218740   4.672  13.497   8.666
72301SOL     OW18741  13.732   7.087   8.832
72301SOL    HW118742  13.740   7.013   8.772
72301SOL    HW218743  13.659   7.138   8.797
72302SOL     OW18744  14.408   0.710   8.426
72302SOL    HW118745  14.466   0.637   8.403
72302SOL    HW218746  14.408   0.710   8.522
72303SOL     OW18747   1.651   8.144   8.479
72303SOL    HW118748   1.702   8.214   8.439
72303SOL    HW218749   1.668   8.067   8.424
72304SOL     OW18750  10.069  11.068   9.970
72304SOL    HW118751  10.048  10.996  10.030
72304SOL    HW218752  10.139  11.116  10.014
72305SOL     OW18753  14.234   3.619   9.622
72305SOL    HW118754  14.185   3.564   9.562
72305SOL    HW218755  14.306   3.563   9.653
72306SOL     OW18756  10.949  11.441  10.901
72306SOL    HW118757  10.953  11.477  10.990
72306SOL    HW218758  10.881  11.373  10.906
72307SOL     OW18759   1.857  13.472   4.279
72307SOL    HW118760   1.884  13.508   4.194
72307SOL    HW218761   1.901  13.528   4.343
72308SOL     OW18762   8.833  13.050   9.768
72308SOL    HW118763   8.757  13.082   9.817
72308SOL    HW218764   8.796  12.995   9.699
72309SOL     OW18765   5.239  11.729   8.600
72309SOL    HW118766   5.190  11.783   8.537
72309SOL    HW218767   5.236  11.641   8.564
72310SOL     OW18768   3.090   6.388   5.601
72310SOL    HW118769   3.109   6.298   5.572
72310SOL    HW218770   3.037   6.425   5.530
72311SOL     OW18771   1.271   2.016   1.677
72311SOL    HW118772   1.357   1.976   1.690
72311SOL    HW218773   1.241   2.038   1.765
72312SOL     OW18774  11.245   7.090   6.268
72312SOL    HW118775  11.244   7.066   6.360
72312SOL    HW218776  11.329   7.060   6.235
72313SOL     OW18777   7.288  12.125   5.129
72313SOL    HW118778   7.338  12.126   5.047
72313SOL    HW218779   7.211  12.179   5.111
72314SOL     OW18780  13.441  11.379   9.994
72314SOL    HW118781  13.425  11.305   9.936
72314SOL    HW218782  13.457  11.453   9.935
72315SOL     OW18783   2.473  11.905   8.653
72315SOL    HW118784   2.498  11.870   8.739
72315SOL    HW218785   2.463  11.999   8.668
72316SOL     OW18786   0.075   6.152  11.881
72316SOL    HW118787   0.102   6.066  11.850
72316SOL    HW218788   0.104   6.155  11.973
72317SOL     OW18789   2.600   2.306   5.287
72317SOL    HW118790   2.584   2.370   5.218
72317SOL    HW218791   2.580   2.353   5.368
72318SOL     OW18792   9.084  10.881   2.267
72318SOL    HW118793   9.088  10.859   2.173
72318SOL    HW218794   9.037  10.965   2.270
72319SOL     OW18795   8.628  12.532   0.281
72319SOL    HW118796   8.721  12.538   0.304
72319SOL    HW218797   8.604  12.442   0.301
72320SOL     OW18798   1.249  13.056   2.377
72320SOL    HW118799   1.185  13.072   2.308
72320SOL    HW218800   1.200  13.066   2.459
72321SOL     OW18801   7.265   8.371  14.143
72321SOL    HW118802   7.321   8.411  14.210
72321SOL    HW218803   7.308   8.392  14.060
72322SOL     OW18804  12.658   6.866   4.754
72322SOL    HW118805  12.653   6.959   4.774
72322SOL    HW218806  12.603   6.823   4.819
72323SOL     OW18807  10.005   7.493   1.634
72323SOL    HW118808  10.083   7.477   1.686
72323SOL    HW218809  10.004   7.588   1.621
72324SOL     OW18810  10.132   6.591  10.471
72324SOL    HW118811  10.167   6.632  10.550
72324SOL    HW218812  10.188   6.514  10.458
72325SOL     OW18813   6.614   7.731  14.754
72325SOL    HW118814   6.612   7.645  14.797
72325SOL    HW218815   6.589   7.792  14.823
72326SOL     OW18816  13.667  10.135   5.219
72326SOL    HW118817  13.597  10.098   5.165
72326SOL    HW218818  13.720  10.059   5.245
72327SOL     OW18819   7.250   3.001  10.309
72327SOL    HW118820   7.179   2.949  10.273
72327SOL    HW218821   7.315   3.006  10.238
72328SOL     OW18822  10.783   1.890   0.706
72328SOL    HW118823  10.734   1.831   0.764
72328SOL    HW218824  10.718   1.953   0.675
72329SOL     OW18825   2.640   1.254   5.974
72329SOL    HW118826   2.714   1.231   5.919
72329SOL    HW218827   2.652   1.202   6.054
72330SOL     OW18828   2.681   6.211   4.183
72330SOL    HW118829   2.685   6.215   4.278
72330SOL    HW218830   2.608   6.151   4.164
72331SOL     OW18831   5.666   3.736  13.607
72331SOL    HW118832   5.692   3.824  13.632
72331SOL    HW218833   5.658   3.739  13.512
72332SOL     OW18834   5.117   5.455   9.668
72332SOL    HW118835   5.078   5.512   9.603
72332SOL    HW218836   5.204   5.435   9.633
72333SOL     OW18837   0.639   9.035   1.414
72333SOL    HW118838   0.678   9.076   1.491
72333SOL    HW218839   0.713   8.995   1.368
72334SOL     OW18840  12.048   3.434  10.932
72334SOL    HW118841  12.120   3.373  10.914
72334SOL    HW218842  12.066   3.467  11.020
72335SOL     OW18843   4.812  14.576   7.708
72335SOL    HW118844   4.731  14.617   7.738
72335SOL    HW218845   4.784  14.494   7.666
72336SOL     OW18846  11.602  13.544   4.492
72336SOL    HW118847  11.678  13.518   4.545
72336SOL    HW218848  11.624  13.631   4.459
72337SOL     OW18849  14.507   2.218   2.334
72337SOL    HW118850  14.427   2.192   2.380
72337SOL    HW218851  14.556   2.136   2.325
72338SOL     OW18852   9.851  11.810   7.935
72338SOL    HW118853   9.839  11.838   8.026
72338SOL    HW218854   9.771  11.763   7.914
72339SOL     OW18855  13.208  12.940  13.631
72339SOL    HW118856  13.173  12.859  13.595
72339SOL    HW218857  13.134  12.982  13.675
72340SOL     OW18858   8.904   9.560  10.366
72340SOL    HW118859   8.890   9.646  10.328
72340SOL    HW218860   8.830   9.547  10.425
72341SOL     OW18861   0.167   2.767   8.816
72341SOL    HW118862   0.094   2.733   8.868
72341SOL    HW218863   0.206   2.690   8.775
72342SOL     OW18864   0.716   0.356   1.333
72342SOL    HW118865   0.733   0.263   1.348
72342SOL    HW218866   0.800   0.399   1.349
72343SOL     OW18867  13.720   3.127   2.735
72343SOL    HW118868  13.813   3.118   2.715
72343SOL    HW218869  13.676   3.100   2.655
72344SOL     OW18870  14.447  14.768   7.294
72344SOL    HW118871  14.466  14.675   7.307
72344SOL    HW218872  14.505  14.795   7.223
72345SOL     OW18873   1.779  10.855  10.388
72345SOL    HW118874   1.699  10.827  10.344
72345SOL    HW218875   1.767  10.949  10.403
72346SOL     OW18876  10.825   9.837   7.304
72346SOL    HW118877  10.799   9.929   7.312
72346SOL    HW218878  10.752   9.789   7.344
72347SOL     OW18879   9.366   9.440  12.215
72347SOL    HW118880   9.433   9.371  12.216
72347SOL    HW218881   9.332   9.439  12.126
72348SOL     OW18882   6.661   9.336  11.339
72348SOL    HW118883   6.714   9.272  11.386
72348SOL    HW218884   6.691   9.330  11.249
72349SOL     OW18885   0.191   9.712  12.440
72349SOL    HW118886   0.236   9.729  12.523
72349SOL    HW218887   0.259   9.679  12.381
72350SOL     OW18888   8.548  12.114   2.980
72350SOL    HW118889   8.623  12.173   2.988
72350SOL    HW218890   8.537  12.101   2.886
72351SOL     OW18891   0.183   6.913  10.425
72351SOL    HW118892   0.196   6.951  10.338
72351SOL    HW218893   0.173   6.989  10.483
72352SOL     OW18894   5.540   2.930   3.438
72352SOL    HW118895   5.631   2.922   3.466
72352SOL    HW218896   5.508   2.840   3.438
72353SOL     OW18897   5.275   0.744   5.607
72353SOL    HW118898   5.250   0.725   5.516
72353SOL    HW218899   5.193   0.764   5.651
72354SOL     OW18900  14.311   5.277   8.043
72354SOL    HW118901  14.226   5.246   8.012
72354SOL    HW218902  14.293   5.364   8.080
72355SOL     OW18903   9.206  14.374  11.268
72355SOL    HW118904   9.122  14.367  11.314
72355SOL    HW218905   9.218  14.289  11.226
72356SOL     OW18906   5.312   4.562   5.775
72356SOL    HW118907   5.314   4.577   5.681
72356SOL    HW218908   5.219   4.569   5.798
72357SOL     OW18909  14.712   1.048  13.405
72357SOL    HW118910  14.625   1.009  13.400
72357SOL    HW218911  14.715   1.111  13.332
72358SOL     OW18912   6.849   1.677  13.678
72358SOL    HW118913   6.914   1.747  13.680
72358SOL    HW218914   6.823   1.665  13.769
72359SOL     OW18915   6.384   9.436   3.128
72359SOL    HW118916   6.327   9.365   3.099
72359SOL    HW218917   6.328   9.514   3.127
72360SOL     OW18918   5.218   6.196   0.080
72360SOL    HW118919   5.181   6.266   0.027
72360SOL    HW218920   5.245   6.239   0.161
72361SOL     OW18921  13.854   6.210   3.671
72361SOL    HW118922  13.884   6.274   3.606
72361SOL    HW218923  13.807   6.263   3.736
72362SOL     OW18924  10.239   7.372   8.635
72362SOL    HW118925  10.208   7.440   8.575
72362SOL    HW218926  10.214   7.290   8.593
72363SOL     OW18927  10.582   8.279   1.206
72363SOL    HW118928  10.672   8.280   1.173
72363SOL    HW218929  10.539   8.351   1.160
72364SOL     OW18930   7.325   6.860  10.321
72364SOL    HW118931   7.294   6.893  10.236
72364SOL    HW218932   7.294   6.923  10.385
72365SOL     OW18933   0.861   0.427   8.919
72365SOL    HW118934   0.805   0.394   8.989
72365SOL    HW218935   0.945   0.383   8.931
72366SOL     OW18936  10.677   7.346   0.984
72366SOL    HW118937  10.638   7.276   1.037
72366SOL    HW218938  10.607   7.374   0.926
72367SOL     OW18939   8.655  13.434   3.690
72367SOL    HW118940   8.587  13.382   3.646
72367SOL    HW218941   8.681  13.381   3.765
72368SOL     OW18942  10.439   6.088   8.582
72368SOL    HW118943  10.360   6.061   8.629
72368SOL    HW218944  10.440   6.034   8.504
72369SOL     OW18945   4.738  11.486  13.236
72369SOL    HW118946   4.726  11.554  13.169
72369SOL    HW218947   4.787  11.529  13.306
72370SOL     OW18948   5.778   1.407   0.992
72370SOL    HW118949   5.769   1.465   1.068
72370SOL    HW218950   5.847   1.448   0.940
72371SOL     OW18951  13.731   9.033   1.038
72371SOL    HW118952  13.746   8.945   1.072
72371SOL    HW218953  13.690   9.081   1.110
72372SOL     OW18954  14.295   9.546  10.353
72372SOL    HW118955  14.384   9.570  10.380
72372SOL    HW218956  14.291   9.570  10.260
72373SOL     OW18957  10.390  12.887   4.347
72373SOL    HW118958  10.473  12.905   4.302
72373SOL    HW218959  10.411  12.815   4.407
72374SOL     OW18960  13.303   8.687   6.998
72374SOL    HW118961  13.363   8.660   7.067
72374SOL    HW218962  13.354   8.747   6.943
72375SOL     OW18963   8.758   4.793   9.368
72375SOL    HW118964   8.702   4.837   9.304
72375SOL    HW218965   8.750   4.700   9.347
72376SOL     OW18966   1.538   0.239  12.629
72376SOL    HW118967   1.519   0.286  12.548
72376SOL    HW218968   1.628   0.262  12.649
72377SOL     OW18969   5.379   7.397  12.862
72377SOL    HW118970   5.395   7.465  12.928
72377SOL    HW218971   5.315   7.340  12.903
72378SOL     OW18972   1.292  14.045   4.661
72378SOL    HW118973   1.244  14.084   4.734
72378SOL    HW218974   1.369  14.101   4.650
72379SOL     OW18975  11.460   7.945   1.617
72379SOL    HW118976  11.448   7.970   1.525
72379SOL    HW218977  11.446   7.850   1.618
72380SOL     OW18978   8.943  14.243  11.846
72380SOL    HW118979   9.030  14.204  11.852
72380SOL    HW218980   8.954  14.318  11.787
72381SOL     OW18981  14.856  10.309  12.368
72381SOL    HW118982   0.013  10.374  12.309
72381SOL    HW218983  14.773  10.284  12.328
72382SOL     OW18984   0.810   4.516  12.156
72382SOL    HW118985   0.809   4.485  12.247
72382SOL    HW218986   0.896   4.488  12.123
72383SOL     OW18987   1.140  10.810  10.051
72383SOL    HW118988   1.219  10.833  10.004
72383SOL    HW218989   1.073  10.801   9.982
72384SOL     OW18990   9.656   6.452   1.420
72384SOL    HW118991   9.668   6.544   1.396
72384SOL    HW218992   9.569   6.449   1.459
72385SOL     OW18993   2.341   5.130   0.822
72385SOL    HW118994   2.432   5.103   0.823
72385SOL    HW218995   2.339   5.211   0.874
72386SOL     OW18996   6.259   7.957   3.655
72386SOL    HW118997   6.193   8.017   3.619
72386SOL    HW218998   6.295   8.003   3.730
72387SOL     OW18999   8.567   9.161   3.575
72387SOL    HW119000   8.569   9.076   3.618
72387SOL    HW219001   8.594   9.222   3.644
72388SOL     OW19002   9.052   5.578   2.091
72388SOL    HW119003   9.054   5.672   2.076
72388SOL    HW219004   9.113   5.542   2.026
72389SOL     OW19005   7.717   0.192   8.896
72389SOL    HW119006   7.758   0.107   8.880
72389SOL    HW219007   7.705   0.230   8.809
72390SOL     OW19008  10.702   9.594  12.068
72390SOL    HW119009  10.721   9.519  12.125
72390SOL    HW219010  10.767   9.589  11.999
72391SOL     OW19011   1.051  12.351   6.939
72391SOL    HW119012   0.972  12.394   6.906
72391SOL    HW219013   1.099  12.420   6.985
72392SOL     OW19014  12.506  13.587   6.979
72392SOL    HW119015  12.446  13.529   6.931
72392SOL    HW219016  12.448  13.646   7.028
72393SOL     OW19017   3.406  10.330   4.856
72393SOL    HW119018   3.357  10.299   4.779
72393SOL    HW219019   3.470  10.392   4.820
72394SOL     OW19020   3.436   1.275  10.321
72394SOL    HW119021   3.436   1.179  10.321
72394SOL    HW219022   3.418   1.299  10.231
72395SOL     OW19023  12.101   8.832   9.880
72395SOL    HW119024  12.148   8.774   9.940
72395SOL    HW219025  12.038   8.775   9.835
72396SOL     OW19026   4.550   7.358   3.105
72396SOL    HW119027   4.606   7.433   3.125
72396SOL    HW219028   4.610   7.283   3.104
72397SOL     OW19029   9.911  12.723   1.799
72397SOL    HW119030   9.883  12.644   1.754
72397SOL    HW219031   9.946  12.780   1.730
72398SOL     OW19032   2.720   3.226   5.616
72398SOL    HW119033   2.779   3.242   5.689
72398SOL    HW219034   2.633   3.221   5.656
72399SOL     OW19035   2.193   8.182   0.674
72399SOL    HW119036   2.234   8.106   0.717
72399SOL    HW219037   2.266   8.232   0.638
72400SOL     OW19038   3.136  13.652  12.976
72400SOL    HW119039   3.167  13.732  12.933
72400SOL    HW219040   3.044  13.646  12.952
72401SOL     OW19041   7.401   8.432  10.645
72401SOL    HW119042   7.313   8.471  10.643
72401SOL    HW219043   7.404   8.376  10.567
72402SOL     OW19044  10.716   8.329   3.427
72402SOL    HW119045  10.633   8.356   3.467
72402SOL    HW219046  10.715   8.372   3.341
72403SOL     OW19047  13.392   6.626   4.283
72403SOL    HW119048  13.325   6.656   4.345
72403SOL    HW219049  13.390   6.691   4.213
72404SOL     OW19050   9.836  11.813   3.918
72404SOL    HW119051   9.924  11.843   3.939
72404SOL    HW219052   9.850  11.735   3.863
72405SOL     OW19053   6.094   9.341  11.680
72405SOL    HW119054   6.133   9.310  11.762
72405SOL    HW219055   6.166   9.342  11.618
72406SOL     OW19056   8.714   4.871  12.950
72406SOL    HW119057   8.662   4.936  12.903
72406SOL    HW219058   8.805   4.894  12.931
72407SOL     OW19059   2.451   7.423   8.419
72407SOL    HW119060   2.511   7.479   8.370
72407SOL    HW219061   2.467   7.444   8.511
72408SOL     OW19062  10.227   5.371   7.162
72408SOL    HW119063  10.272   5.396   7.243
72408SOL    HW219064  10.141   5.412   7.169
72409SOL     OW19065  13.499  12.025  12.408
72409SOL    HW119066  13.569  11.964  12.432
72409SOL    HW219067  13.503  12.093  12.474
72410SOL     OW19068   7.532  10.197   7.046
72410SOL    HW119069   7.486  10.168   6.967
72410SOL    HW219070   7.469  10.182   7.117
72411SOL     OW19071   2.777   8.222   0.582
72411SOL    HW119072   2.837   8.255   0.515
72411SOL    HW219073   2.772   8.293   0.646
72412SOL     OW19074   6.275   1.187  11.401
72412SOL    HW119075   6.288   1.171  11.494
72412SOL    HW219076   6.254   1.100  11.365
72413SOL     OW19077  12.932   0.910   7.852
72413SOL    HW119078  12.925   1.004   7.836
72413SOL    HW219079  12.875   0.871   7.785
72414SOL     OW19080   7.284   8.232   8.240
72414SOL    HW119081   7.349   8.199   8.302
72414SOL    HW219082   7.333   8.293   8.184
72415SOL     OW19083  14.853   6.054   9.098
72415SOL    HW119084   0.057   6.066   9.054
72415SOL    HW219085  14.792   6.108   9.048
72416SOL     OW19086   7.804   2.037   8.304
72416SOL    HW119087   7.879   1.995   8.262
72416SOL    HW219088   7.823   2.131   8.297
72417SOL     OW19089   1.459   3.823   2.230
72417SOL    HW119090   1.546   3.828   2.190
72417SOL    HW219091   1.476   3.807   2.323
72418SOL     OW19092  12.928   5.461   4.077
72418SOL    HW119093  13.001   5.446   4.018
72418SOL    HW219094  12.876   5.381   4.073
72419SOL     OW19095  11.978   3.168   2.841
72419SOL    HW119096  11.974   3.227   2.917
72419SOL    HW219097  12.051   3.109   2.861
72420SOL     OW19098   0.928   6.036  12.412
72420SOL    HW119099   0.883   5.969  12.361
72420SOL    HW219100   1.020   6.023  12.392
72421SOL     OW19101   6.968   9.235   9.817
72421SOL    HW119102   7.020   9.154   9.818
72421SOL    HW219103   7.000   9.284   9.893
72422SOL     OW19104  12.561   8.433   1.713
72422SOL    HW119105  12.622   8.389   1.772
72422SOL    HW219106  12.561   8.524   1.742
72423SOL     OW19107   5.271   8.629   8.350
72423SOL    HW119108   5.283   8.560   8.415
72423SOL    HW219109   5.303   8.591   8.268
72424SOL     OW19110   3.134   8.536  12.224
72424SOL    HW119111   3.189   8.491  12.159
72424SOL    HW219112   3.186   8.533  12.305
72425SOL     OW19113   2.897  10.185   9.724
72425SOL    HW119114   2.819  10.164   9.672
72425SOL    HW219115   2.901  10.281   9.721
72426SOL     OW19116   1.099   8.561   2.126
72426SOL    HW119117   1.161   8.553   2.054
72426SOL    HW219118   1.119   8.645   2.166
72427SOL     OW19119  10.896  11.645   1.705
72427SOL    HW119120  10.826  11.707   1.727
72427SOL    HW219121  10.852  11.560   1.703
72428SOL     OW19122   9.086   1.849  12.351
72428SOL    HW119123   9.149   1.921  12.338
72428SOL    HW219124   9.082   1.806  12.265
72429SOL     OW19125   5.103   5.751  14.681
72429SOL    HW119126   5.088   5.819  14.746
72429SOL    HW219127   5.080   5.792  14.597
72430SOL     OW19128  12.715   5.328   7.616
72430SOL    HW119129  12.620   5.320   7.612
72430SOL    HW219130  12.731   5.422   7.606
72431SOL     OW19131  11.800   0.815  11.668
72431SOL    HW119132  11.793   0.811  11.572
72431SOL    HW219133  11.876   0.761  11.688
72432SOL     OW19134   0.141   2.167   1.158
72432SOL    HW119135   0.104   2.231   1.219
72432SOL    HW219136   0.176   2.098   1.214
72433SOL     OW19137   5.896  11.766  11.336
72433SOL    HW119138   5.924  11.788  11.247
72433SOL    HW219139   5.955  11.815  11.393
72434SOL     OW19140   5.684   9.695   7.495
72434SOL    HW119141   5.589   9.706   7.506
72434SOL    HW219142   5.700   9.720   7.404
72435SOL     OW19143   4.486   4.633  14.612
72435SOL    HW119144   4.412   4.667  14.661
72435SOL    HW219145   4.540   4.589  14.678
72436SOL     OW19146  10.107  12.623   4.962
72436SOL    HW119147  10.061  12.686   4.906
72436SOL    HW219148  10.068  12.538   4.940
72437SOL     OW19149   6.635   9.967  11.301
72437SOL    HW119150   6.650  10.044  11.357
72437SOL    HW219151   6.628   9.894  11.363
72438SOL     OW19152   1.617  14.071   5.260
72438SOL    HW119153   1.634  14.040   5.349
72438SOL    HW219154   1.699  14.114   5.234
72439SOL     OW19155   1.653   5.547   0.910
72439SOL    HW119156   1.619   5.587   0.830
72439SOL    HW219157   1.727   5.602   0.935
72440SOL     OW19158   9.786   8.633   7.547
72440SOL    HW119159   9.794   8.704   7.610
72440SOL    HW219160   9.835   8.560   7.586
72441SOL     OW19161  13.681   6.798   4.894
72441SOL    HW119162  13.667   6.888   4.863
72441SOL    HW219163  13.776   6.787   4.892
72442SOL     OW19164  13.374   3.172   9.597
72442SOL    HW119165  13.385   3.260   9.634
72442SOL    HW219166  13.434   3.117   9.647
72443SOL     OW19167  14.535   2.707   1.011
72443SOL    HW119168  14.443   2.728   1.027
72443SOL    HW219169  14.550   2.736   0.921
72444SOL     OW19170  12.013  14.738   8.159
72444SOL    HW119171  12.061  14.814   8.126
72444SOL    HW219172  11.972  14.768   8.240
72445SOL     OW19173   2.174   6.418   8.084
72445SOL    HW119174   2.248   6.457   8.038
72445SOL    HW219175   2.167   6.469   8.165
72446SOL     OW19176   9.531  10.714  13.633
72446SOL    HW119177   9.611  10.689  13.680
72446SOL    HW219178   9.485  10.772  13.693
72447SOL     OW19179  10.061   9.207  13.249
72447SOL    HW119180  10.045   9.185  13.158
72447SOL    HW219181  10.008   9.285  13.265
72448SOL     OW19182  13.592  10.022   1.161
72448SOL    HW119183  13.598  10.088   1.092
72448SOL    HW219184  13.660  10.046   1.223
72449SOL     OW19185   6.352  13.240   5.001
72449SOL    HW119186   6.313  13.309   5.056
72449SOL    HW219187   6.443  13.266   4.991
72450SOL     OW19188   6.009   5.901   0.671
72450SOL    HW119189   6.011   5.906   0.576
72450SOL    HW219190   6.076   5.964   0.699
72451SOL     OW19191   3.238   6.841  11.921
72451SOL    HW119192   3.234   6.915  11.983
72451SOL    HW219193   3.300   6.870  11.854
72452SOL     OW19194   8.940   0.621   8.595
72452SOL    HW119195   8.907   0.536   8.565
72452SOL    HW219196   9.031   0.602   8.621
72453SOL     OW19197   9.170  14.119  10.422
72453SOL    HW119198   9.174  14.025  10.405
72453SOL    HW219199   9.128  14.126  10.508
72454SOL     OW19200   5.860   9.166  11.809
72454SOL    HW119201   5.884   9.077  11.835
72454SOL    HW219202   5.943   9.210  11.794
72455SOL     OW19203  11.865   0.092  11.186
72455SOL    HW119204  11.931   0.032  11.150
72455SOL    HW219205  11.851   0.156  11.116
72456SOL     OW19206   3.566  10.272   7.316
72456SOL    HW119207   3.528  10.204   7.371
72456SOL    HW219208   3.496  10.337   7.307
72457SOL     OW19209  14.813  11.851   7.697
72457SOL    HW119210  14.834  11.813   7.782
72457SOL    HW219211  14.744  11.915   7.715
72458SOL     OW19212   2.178   0.101   3.996
72458SOL    HW119213   2.223   0.152   4.063
72458SOL    HW219214   2.223   0.016   3.996
72459SOL     OW19215   7.752   0.229   4.596
72459SOL    HW119216   7.803   0.255   4.673
72459SOL    HW219217   7.662   0.252   4.618
72460SOL     OW19218   0.076  14.739  13.156
72460SOL    HW119219   0.028  14.801  13.100
72460SOL    HW219220   0.037  14.654  13.137
72461SOL     OW19221  12.924   8.338   9.697
72461SOL    HW119222  12.835   8.310   9.718
72461SOL    HW219223  12.917   8.432   9.682
72462SOL     OW19224   5.876  10.580  14.130
72462SOL    HW119225   5.878  10.549  14.039
72462SOL    HW219226   5.883  10.500  14.183
72463SOL     OW19227   5.004   4.600   7.438
72463SOL    HW119228   5.051   4.585   7.521
72463SOL    HW219229   4.965   4.516   7.417
72464SOL     OW19230  10.602   5.623   5.244
72464SOL    HW119231  10.695   5.607   5.260
72464SOL    HW219232  10.591   5.614   5.150
72465SOL     OW19233   9.239   2.304   5.655
72465SOL    HW119234   9.309   2.294   5.718
72465SOL    HW219235   9.170   2.352   5.702
72466SOL     OW19236   2.564   2.290  13.014
72466SOL    HW119237   2.590   2.205  13.051
72466SOL    HW219238   2.609   2.294  12.930
72467SOL     OW19239  10.280   1.778   8.935
72467SOL    HW119240  10.232   1.699   8.957
72467SOL    HW219241  10.289   1.825   9.018
72468SOL     OW19242   7.109  11.751   1.792
72468SOL    HW119243   7.053  11.679   1.763
72468SOL    HW219244   7.075  11.776   1.878
72469SOL     OW19245  11.758   2.991  11.446
72469SOL    HW119246  11.730   3.004  11.537
72469SOL    HW219247  11.739   2.899  11.429
72470SOL     OW19248  13.465  14.397   9.029
72470SOL    HW119249  13.486  14.433   8.943
72470SOL    HW219250  13.541  14.418   9.083
72471SOL     OW19251   9.685   9.353   0.175
72471SOL    HW119252   9.601   9.319   0.145
72471SOL    HW219253   9.705   9.425   0.115
72472SOL     OW19254   7.291   8.368   9.376
72472SOL    HW119255   7.316   8.322   9.296
72472SOL    HW219256   7.302   8.303   9.446
72473SOL     OW19257   0.078   4.639  13.972
72473SOL    HW119258   0.171   4.626  13.950
72473SOL    HW219259   0.076   4.629  14.067
72474SOL     OW19260  12.482  12.207  12.144
72474SOL    HW119261  12.398  12.193  12.099
72474SOL    HW219262  12.537  12.250  12.079
72475SOL     OW19263   1.362   0.850   8.518
72475SOL    HW119264   1.442   0.831   8.566
72475SOL    HW219265   1.362   0.945   8.506
72476SOL     OW19266  12.156  10.957   5.384
72476SOL    HW119267  12.069  10.978   5.417
72476SOL    HW219268  12.148  10.867   5.352
72477SOL     OW19269   7.697   7.615  12.538
72477SOL    HW119270   7.753   7.544  12.572
72477SOL    HW219271   7.640   7.637  12.612
72478SOL     OW19272   3.169  10.534  14.271
72478SOL    HW119273   3.204  10.454  14.231
72478SOL    HW219274   3.126  10.580  14.199
72479SOL     OW19275   8.864   7.620  12.827
72479SOL    HW119276   8.906   7.683  12.768
72479SOL    HW219277   8.841   7.546  12.771
72480SOL     OW19278   3.211  13.993  14.607
72480SOL    HW119279   3.183  13.991  14.515
72480SOL    HW219280   3.307  13.995  14.603
72481SOL     OW19281  11.244  12.441  11.506
72481SOL    HW119282  11.243  12.495  11.585
72481SOL    HW219283  11.266  12.502  11.436
72482SOL     OW19284   7.248   9.079   4.417
72482SOL    HW119285   7.159   9.052   4.396
72482SOL    HW219286   7.304   9.021   4.364
72483SOL     OW19287   8.749  12.371   8.555
72483SOL    HW119288   8.728  12.391   8.646
72483SOL    HW219289   8.678  12.313   8.527
72484SOL     OW19290   2.324   6.959  13.192
72484SOL    HW119291   2.329   6.923  13.104
72484SOL    HW219292   2.270   7.037  13.183
72485SOL     OW19293   7.468  13.990   0.289
72485SOL    HW119294   7.405  13.926   0.255
72485SOL    HW219295   7.427  14.075   0.275
72486SOL     OW19296   6.133   2.048   8.516
72486SOL    HW119297   6.190   2.125   8.509
72486SOL    HW219298   6.065   2.075   8.578
72487SOL     OW19299   5.818   6.424   0.460
72487SOL    HW119300   5.786   6.470   0.538
72487SOL    HW219301   5.829   6.492   0.394
72488SOL     OW19302   0.714   1.713   5.756
72488SOL    HW119303   0.808   1.712   5.777
72488SOL    HW219304   0.699   1.801   5.721
72489SOL     OW19305  11.312   1.012   8.164
72489SOL    HW119306  11.323   0.920   8.189
72489SOL    HW219307  11.309   1.010   8.068
72490SOL     OW19308  12.392   6.564   0.781
72490SOL    HW119309  12.364   6.596   0.695
72490SOL    HW219310  12.331   6.603   0.843
72491SOL     OW19311   5.679   4.090   6.351
72491SOL    HW119312   5.607   4.076   6.412
72491SOL    HW219313   5.706   4.002   6.324
72492SOL     OW19314   3.953   3.178   2.117
72492SOL    HW119315   3.904   3.110   2.163
72492SOL    HW219316   3.958   3.146   2.026
72493SOL     OW19317  13.098  13.726   9.265
72493SOL    HW119318  13.080  13.722   9.359
72493SOL    HW219319  13.185  13.764   9.259
72494SOL     OW19320  14.167  11.001   2.517
72494SOL    HW119321  14.176  10.916   2.560
72494SOL    HW219322  14.248  11.047   2.539
72495SOL     OW19323   0.799   2.653   6.674
72495SOL    HW119324   0.776   2.684   6.587
72495SOL    HW219325   0.721   2.606   6.704
72496SOL     OW19326   8.988   3.322   9.604
72496SOL    HW119327   9.050   3.266   9.559
72496SOL    HW219328   9.009   3.411   9.575
72497SOL     OW19329   9.292   4.712   3.568
72497SOL    HW119330   9.330   4.638   3.520
72497SOL    HW219331   9.358   4.735   3.633
72498SOL     OW19332  14.097  11.670   0.224
72498SOL    HW119333  14.039  11.597   0.245
72498SOL    HW219334  14.040  11.747   0.230
72499SOL     OW19335  12.158  11.707   8.461
72499SOL    HW119336  12.070  11.739   8.439
72499SOL    HW219337  12.216  11.776   8.430
72500SOL     OW19338   8.107   0.642  10.814
72500SOL    HW119339   8.177   0.673  10.757
72500SOL    HW219340   8.148   0.574  10.868
72501SOL     OW19341   5.379  12.114   3.385
72501SOL    HW119342   5.398  12.027   3.349
72501SOL    HW219343   5.453  12.168   3.358
72502SOL     OW19344  11.993   1.116   7.088
72502SOL    HW119345  11.991   1.021   7.095
72502SOL    HW219346  12.039   1.133   7.006
72503SOL     OW19347  10.323  13.518   0.807
72503SOL    HW119348  10.277  13.602   0.798
72503SOL    HW219349  10.400  13.527   0.750
72504SOL     OW19350  12.733  12.521  13.400
72504SOL    HW119351  12.804  12.466  13.367
72504SOL    HW219352  12.773  12.607  13.411
72505SOL     OW19353   1.074   4.709  11.607
72505SOL    HW119354   1.141   4.657  11.562
72505SOL    HW219355   1.006   4.723  11.542
72506SOL     OW19356   3.711  12.563   7.811
72506SOL    HW119357   3.700  12.544   7.904
72506SOL    HW219358   3.674  12.487   7.766
72507SOL     OW19359   5.451  13.006   4.077
72507SOL    HW119360   5.446  12.924   4.028
72507SOL    HW219361   5.512  13.060   4.026
72508SOL     OW19362   5.924   9.913   1.124
72508SOL    HW119363   5.993   9.852   1.099
72508SOL    HW219364   5.843   9.866   1.104
72509SOL     OW19365  14.052   8.861   8.722
72509SOL    HW119366  13.961   8.882   8.743
72509SOL    HW219367  14.087   8.823   8.803
72510SOL     OW19368  12.286  10.841   9.486
72510SOL    HW119369  12.310  10.857   9.578
72510SOL    HW219370  12.302  10.747   9.474
72511SOL     OW19371   4.341  12.536   6.543
72511SOL    HW119372   4.409  12.469   6.542
72511SOL    HW219373   4.296  12.525   6.459
72512SOL     OW19374   7.150   4.772   3.613
72512SOL    HW119375   7.132   4.855   3.656
72512SOL    HW219376   7.078   4.762   3.550
72513SOL     OW19377  14.843   3.589  13.004
72513SOL    HW119378   0.020   3.540  12.943
72513SOL    HW219379  14.768   3.531  13.018
72514SOL     OW19380  13.948   6.613   4.326
72514SOL    HW119381  13.959   6.519   4.338
72514SOL    HW219382  13.872   6.621   4.269
72515SOL     OW19383   5.680  10.402   6.188
72515SOL    HW119384   5.743  10.404   6.116
72515SOL    HW219385   5.720  10.344   6.253
72516SOL     OW19386   2.027   3.310   5.289
72516SOL    HW119387   2.014   3.331   5.196
72516SOL    HW219388   2.027   3.395   5.333
72517SOL     OW19389   7.806   8.852  11.870
72517SOL    HW119390   7.821   8.846  11.964
72517SOL    HW219391   7.871   8.916  11.840
72518SOL     OW19392  11.133   2.014  10.989
72518SOL    HW119393  11.107   1.926  11.014
72518SOL    HW219394  11.228   2.015  10.998
72519SOL     OW19395  11.459  12.160   1.241
72519SOL    HW119396  11.502  12.075   1.227
72519SOL    HW219397  11.365  12.140   1.235
72520SOL     OW19398   1.533  14.511   8.685
72520SOL    HW119399   1.598  14.482   8.620
72520SOL    HW219400   1.462  14.447   8.677
72521SOL     OW19401  14.007   8.004   2.938
72521SOL    HW119402  13.950   7.951   2.882
72521SOL    HW219403  14.052   8.063   2.878
72522SOL     OW19404  12.649   7.375   1.678
72522SOL    HW119405  12.655   7.351   1.771
72522SOL    HW219406  12.566   7.338   1.649
72523SOL     OW19407  13.517   9.718   7.931
72523SOL    HW119408  13.544   9.690   7.843
72523SOL    HW219409  13.589   9.773   7.961
72524SOL     OW19410   6.659   6.595  14.183
72524SOL    HW119411   6.716   6.530  14.224
72524SOL    HW219412   6.606   6.544  14.120
72525SOL     OW19413   7.209  11.143   3.282
72525SOL    HW119414   7.279  11.171   3.342
72525SOL    HW219415   7.130  11.144   3.336
72526SOL     OW19416   1.239   5.582  12.640
72526SOL    HW119417   1.311   5.519  12.647
72526SOL    HW219418   1.248   5.618  12.551
72527SOL     OW19419  13.674  12.972  14.627
72527SOL    HW119420  13.581  12.947  14.624
72527SOL    HW219421  13.676  13.060  14.589
72528SOL     OW19422   9.660   8.848   9.889
72528SOL    HW119423   9.739   8.900   9.903
72528SOL    HW219424   9.612   8.895   9.821
72529SOL     OW19425   3.699   0.809  12.153
72529SOL    HW119426   3.779   0.861  12.160
72529SOL    HW219427   3.669   0.798  12.243
72530SOL     OW19428   0.415   6.826  10.366
72530SOL    HW119429   0.451   6.797  10.449
72530SOL    HW219430   0.323   6.844  10.384
72531SOL     OW19431   2.583   6.232   7.167
72531SOL    HW119432   2.525   6.291   7.215
72531SOL    HW219433   2.616   6.172   7.233
72532SOL     OW19434  11.273   8.822   2.547
72532SOL    HW119435  11.260   8.896   2.489
72532SOL    HW219436  11.195   8.821   2.603
72533SOL     OW19437   5.544   8.696  14.797
72533SOL    HW119438   5.492   8.726  14.722
72533SOL    HW219439   5.627   8.742  14.789
72534SOL     OW19440  11.710   9.624   7.353
72534SOL    HW119441  11.748   9.550   7.399
72534SOL    HW219442  11.676   9.681   7.423
72535SOL     OW19443   9.947   6.855   3.545
72535SOL    HW119444   9.879   6.817   3.490
72535SOL    HW219445   9.968   6.785   3.608
72536SOL     OW19446   0.689  12.313  10.464
72536SOL    HW119447   0.716  12.316  10.556
72536SOL    HW219448   0.609  12.261  10.464
72537SOL     OW19449   8.962   9.609   0.600
72537SOL    HW119450   8.870   9.624   0.578
72537SOL    HW219451   9.011   9.650   0.528
72538SOL     OW19452   0.898  10.074   2.622
72538SOL    HW119453   0.933   9.994   2.663
72538SOL    HW219454   0.920  10.144   2.684
72539SOL     OW19455   5.645  10.914  14.409
72539SOL    HW119456   5.705  10.861  14.356
72539SOL    HW219457   5.637  10.866  14.492
72540SOL     OW19458  12.562   2.522   3.828
72540SOL    HW119459  12.483   2.495   3.875
72540SOL    HW219460  12.545   2.613   3.803
72541SOL     OW19461   1.667   6.575  11.815
72541SOL    HW119462   1.582   6.564  11.771
72541SOL    HW219463   1.660   6.660  11.859
72542SOL     OW19464  14.560  10.148   5.787
72542SOL    HW119465  14.625  10.086   5.821
72542SOL    HW219466  14.603  10.190   5.713
72543SOL     OW19467   0.059   4.850   5.009
72543SOL    HW119468   0.115   4.902   4.952
72543SOL    HW219469   0.024   4.781   4.952
72544SOL     OW19470  12.457   5.108  13.219
72544SOL    HW119471  12.427   5.100  13.309
72544SOL    HW219472  12.389   5.066  13.167
72545SOL     OW19473   4.368  14.215   1.082
72545SOL    HW119474   4.350  14.257   0.998
72545SOL    HW219475   4.354  14.284   1.147
72546SOL     OW19476   5.950   2.458   7.672
72546SOL    HW119477   5.894   2.453   7.750
72546SOL    HW219478   6.039   2.454   7.706
72547SOL     OW19479   4.642   5.540   6.599
72547SOL    HW119480   4.676   5.586   6.676
72547SOL    HW219481   4.572   5.597   6.566
72548SOL     OW19482   6.277   4.916   2.742
72548SOL    HW119483   6.367   4.931   2.771
72548SOL    HW219484   6.284   4.847   2.677
72549SOL     OW19485   5.707   2.570  10.779
72549SOL    HW119486   5.655   2.506  10.730
72549SOL    HW219487   5.662   2.577  10.864
72550SOL     OW19488   8.660  13.313  10.779
72550SOL    HW119489   8.749  13.301  10.811
72550SOL    HW219490   8.669  13.323  10.684
72551SOL     OW19491  11.827   7.729  10.245
72551SOL    HW119492  11.912   7.700  10.211
72551SOL    HW219493  11.785   7.649  10.275
72552SOL     OW19494   2.055   8.668   9.949
72552SOL    HW119495   1.996   8.715  10.007
72552SOL    HW219496   2.143   8.698   9.974
72553SOL     OW19497   2.007  11.401   2.601
72553SOL    HW119498   2.008  11.372   2.510
72553SOL    HW219499   1.929  11.360   2.639
72554SOL     OW19500  13.134  14.820   2.733
72554SOL    HW119501  13.215  14.852   2.693
72554SOL    HW219502  13.148  14.832   2.827
72555SOL     OW19503  10.607   9.449   8.343
72555SOL    HW119504  10.579   9.390   8.414
72555SOL    HW219505  10.528   9.499   8.322
72556SOL     OW19506   8.843   7.236   3.368
72556SOL    HW119507   8.792   7.190   3.302
72556SOL    HW219508   8.895   7.299   3.319
72557SOL     OW19509  14.459   7.468   5.296
72557SOL    HW119510  14.545   7.450   5.258
72557SOL    HW219511  14.417   7.526   5.233
72558SOL     OW19512  13.387  12.880  12.762
72558SOL    HW119513  13.300  12.901  12.796
72558SOL    HW219514  13.370  12.829  12.683
72559SOL     OW19515   0.491   9.258   2.016
72559SOL    HW119516   0.445   9.239   2.098
72559SOL    HW219517   0.437   9.217   1.948
72560SOL     OW19518   5.896   1.600   4.894
72560SOL    HW119519   5.896   1.590   4.989
72560SOL    HW219520   5.829   1.666   4.877
72561SOL     OW19521  11.222   7.696  12.468
72561SOL    HW119522  11.249   7.679  12.378
72561SOL    HW219523  11.171   7.777  12.463
72562SOL     OW19524   5.266  10.706   7.709
72562SOL    HW119525   5.181  10.684   7.671
72562SOL    HW219526   5.254  10.795   7.744
72563SOL     OW19527  13.901   6.510   5.605
72563SOL    HW119528  13.877   6.578   5.669
72563SOL    HW219529  13.904   6.556   5.521
72564SOL     OW19530   9.953   2.551   2.191
72564SOL    HW119531   9.893   2.617   2.225
72564SOL    HW219532   9.932   2.546   2.098
72565SOL     OW19533  10.800  12.149   1.817
72565SOL    HW119534  10.769  12.236   1.791
72565SOL    HW219535  10.786  12.146   1.912
72566SOL     OW19536  11.859   4.028  13.890
72566SOL    HW119537  11.795   3.961  13.866
72566SOL    HW219538  11.811   4.110  13.883
72567SOL     OW19539   2.497   3.889   0.201
72567SOL    HW119540   2.488   3.893   0.106
72567SOL    HW219541   2.588   3.912   0.217
72568SOL     OW19542  11.054   2.011   0.679
72568SOL    HW119543  10.966   1.985   0.706
72568SOL    HW219544  11.039   2.083   0.618
72569SOL     OW19545  13.541   9.621   2.286
72569SOL    HW119546  13.480   9.570   2.233
72569SOL    HW219547  13.584   9.680   2.224
72570SOL     OW19548  10.072   4.743  10.391
72570SOL    HW119549  10.064   4.659  10.347
72570SOL    HW219550  10.006   4.798  10.349
72571SOL     OW19551   3.977   0.649   6.177
72571SOL    HW119552   3.946   0.623   6.090
72571SOL    HW219553   3.921   0.600   6.238
72572SOL     OW19554  13.678   3.120  11.761
72572SOL    HW119555  13.706   3.086  11.846
72572SOL    HW219556  13.735   3.077  11.698
72573SOL     OW19557  10.637   6.090   4.689
72573SOL    HW119558  10.546   6.107   4.664
72573SOL    HW219559  10.632   6.044   4.772
72574SOL     OW19560   4.099   0.865   7.213
72574SOL    HW119561   4.185   0.862   7.172
72574SOL    HW219562   4.051   0.792   7.174
72575SOL     OW19563   1.152   7.738   1.724
72575SOL    HW119564   1.184   7.828   1.729
72575SOL    HW219565   1.112   7.721   1.809
72576SOL     OW19566   0.542   4.684   3.902
72576SOL    HW119567   0.602   4.759   3.902
72576SOL    HW219568   0.593   4.612   3.864
72577SOL     OW19569  13.110  14.775  14.337
72577SOL    HW119570  13.200  14.808  14.331
72577SOL    HW219571  13.075  14.816  14.416
72578SOL     OW19572  12.598  13.713   3.950
72578SOL    HW119573  12.538  13.787   3.943
72578SOL    HW219574  12.683  13.748   3.925
72579SOL     OW19575  13.185   2.766  10.855
72579SOL    HW119576  13.123   2.693  10.849
72579SOL    HW219577  13.222   2.758  10.943
72580SOL     OW19578   2.905   0.296   3.115
72580SOL    HW119579   2.911   0.391   3.118
72580SOL    HW219580   2.994   0.266   3.132
72581SOL     OW19581  10.546   3.974   9.160
72581SOL    HW119582  10.483   4.037   9.127
72581SOL    HW219583  10.543   3.985   9.255
72582SOL     OW19584  13.342  12.001   3.781
72582SOL    HW119585  13.360  11.924   3.727
72582SOL    HW219586  13.394  11.988   3.860
72583SOL     OW19587  12.502  10.442   2.918
72583SOL    HW119588  12.479  10.351   2.938
72583SOL    HW219589  12.433  10.473   2.860
72584SOL     OW19590   8.460  14.247   8.811
72584SOL    HW119591   8.393  14.295   8.762
72584SOL    HW219592   8.447  14.272   8.902
72585SOL     OW19593  12.863  14.815   4.114
72585SOL    HW119594  12.902  14.799   4.028
72585SOL    HW219595  12.861  14.729   4.156
72586SOL     OW19596   9.972   8.021   6.758
72586SOL    HW119597   9.903   8.087   6.754
72586SOL    HW219598   9.942   7.951   6.700
72587SOL     OW19599  10.787  12.705   6.432
72587SOL    HW119600  10.775  12.639   6.364
72587SOL    HW219601  10.776  12.657   6.514
72588SOL     OW19602   6.478   4.532   6.741
72588SOL    HW119603   6.507   4.588   6.669
72588SOL    HW219604   6.480   4.443   6.705
72589SOL     OW19605   3.595   2.347   2.278
72589SOL    HW119606   3.617   2.430   2.236
72589SOL    HW219607   3.679   2.303   2.290
72590SOL     OW19608  10.417  10.671   0.178
72590SOL    HW119609  10.364  10.746   0.205
72590SOL    HW219610  10.412  10.672   0.082
72591SOL     OW19611   3.797  12.598   8.780
72591SOL    HW119612   3.807  12.651   8.701
72591SOL    HW219613   3.704  12.606   8.803
72592SOL     OW19614  13.519   6.780   0.283
72592SOL    HW119615  13.530   6.716   0.212
72592SOL    HW219616  13.600   6.772   0.334
72593SOL     OW19617   3.394   1.568   7.765
72593SOL    HW119618   3.480   1.541   7.798
72593SOL    HW219619   3.405   1.570   7.670
72594SOL     OW19620  12.438   6.958   3.321
72594SOL    HW119621  12.358   6.949   3.373
72594SOL    HW219622  12.509   6.944   3.383
72595SOL     OW19623  14.406  11.773   0.284
72595SOL    HW119624  14.404  11.853   0.230
72595SOL    HW219625  14.410  11.702   0.221
72596SOL     OW19626  10.758   8.516   8.250
72596SOL    HW119627  10.705   8.540   8.327
72596SOL    HW219628  10.745   8.589   8.189
72597SOL     OW19629   1.512  11.470   1.712
72597SOL    HW119630   1.513  11.378   1.735
72597SOL    HW219631   1.419  11.493   1.706
72598SOL     OW19632   4.611   0.280   6.032
72598SOL    HW119633   4.576   0.284   6.121
72598SOL    HW219634   4.605   0.187   6.009
72599SOL     OW19635  11.770   4.282  10.135
72599SOL    HW119636  11.792   4.191  10.152
72599SOL    HW219637  11.829   4.308  10.064
72600SOL     OW19638   6.370   2.500   6.062
72600SOL    HW119639   6.336   2.426   6.111
72600SOL    HW219640   6.360   2.575   6.121
72601SOL     OW19641   0.128   5.646  13.368
72601SOL    HW119642   0.109   5.702  13.293
72601SOL    HW219643   0.203   5.593  13.340
72602SOL     OW19644   6.840   4.134  12.461
72602SOL    HW119645   6.803   4.222  12.459
72602SOL    HW219646   6.778   4.084  12.514
72603SOL     OW19647   3.607   0.424   0.733
72603SOL    HW119648   3.575   0.447   0.646
72603SOL    HW219649   3.699   0.450   0.733
72604SOL     OW19650   5.287  13.393  10.267
72604SOL    HW119651   5.297  13.329  10.337
72604SOL    HW219652   5.377  13.415  10.242
72605SOL     OW19653  14.367   5.582   4.780
72605SOL    HW119654  14.325   5.536   4.706
72605SOL    HW219655  14.317   5.554   4.856
72606SOL     OW19656   8.791  13.862  11.704
72606SOL    HW119657   8.796  13.767  11.694
72606SOL    HW219658   8.817  13.879  11.794
72607SOL     OW19659  13.455   1.166   6.472
72607SOL    HW119660  13.543   1.140   6.497
72607SOL    HW219661  13.461   1.188   6.379
72608SOL     OW19662   3.414   1.387  10.988
72608SOL    HW119663   3.399   1.350  11.075
72608SOL    HW219664   3.342   1.450  10.976
72609SOL     OW19665   0.776   0.456   5.677
72609SOL    HW119666   0.864   0.488   5.659
72609SOL    HW219667   0.783   0.415   5.763
72610SOL     OW19668   3.250  10.765  10.837
72610SOL    HW119669   3.194  10.810  10.900
72610SOL    HW219670   3.244  10.819  10.758
72611SOL     OW19671   4.600  11.066   2.513
72611SOL    HW119672   4.534  11.002   2.490
72611SOL    HW219673   4.561  11.115   2.586
72612SOL     OW19674   5.342   1.213   3.392
72612SOL    HW119675   5.375   1.290   3.439
72612SOL    HW219676   5.334   1.242   3.301
72613SOL     OW19677   7.795  11.766   7.402
72613SOL    HW119678   7.863  11.706   7.434
72613SOL    HW219679   7.755  11.801   7.481
72614SOL     OW19680   7.945   6.588  13.551
72614SOL    HW119681   7.869   6.577  13.493
72614SOL    HW219682   7.941   6.679  13.579
72615SOL     OW19683   0.407   0.250  14.502
72615SOL    HW119684   0.434   0.304  14.428
72615SOL    HW219685   0.347   0.186  14.465
72616SOL     OW19686   5.412   8.907   1.326
72616SOL    HW119687   5.467   8.893   1.249
72616SOL    HW219688   5.379   8.997   1.315
72617SOL     OW19689   7.940  10.117  11.071
72617SOL    HW119690   8.031  10.113  11.041
72617SOL    HW219691   7.924  10.210  11.085
72618SOL     OW19692   7.034   2.165   9.860
72618SOL    HW119693   6.941   2.145   9.856
72618SOL    HW219694   7.077   2.080   9.850
72619SOL     OW19695  10.061   4.575   4.218
72619SOL    HW119696  10.011   4.656   4.225
72619SOL    HW219697  10.045   4.530   4.302
72620SOL     OW19698   8.113   7.614  13.965
72620SOL    HW119699   8.157   7.572  13.891
72620SOL    HW219700   8.182   7.663  14.009
72621SOL     OW19701   1.535   0.818  11.082
72621SOL    HW119702   1.567   0.907  11.096
72621SOL    HW219703   1.569   0.768  11.156
72622SOL     OW19704  10.788   0.756   5.114
72622SOL    HW119705  10.755   0.690   5.053
72622SOL    HW219706  10.776   0.717   5.201
72623SOL     OW19707   0.715   9.003   1.852
72623SOL    HW119708   0.754   9.057   1.921
72623SOL    HW219709   0.782   8.939   1.829
72624SOL     OW19710  14.658  10.000   4.239
72624SOL    HW119711  14.583  10.049   4.206
72624SOL    HW219712  14.692  10.054   4.311
72625SOL     OW19713  13.270  13.596   6.293
72625SOL    HW119714  13.332  13.525   6.307
72625SOL    HW219715  13.311  13.650   6.225
72626SOL     OW19716   9.141  10.527   7.002
72626SOL    HW119717   9.071  10.482   7.050
72626SOL    HW219718   9.177  10.590   7.064
72627SOL     OW19719   3.169   3.063  12.628
72627SOL    HW119720   3.117   3.083  12.550
72627SOL    HW219721   3.230   2.995  12.599
72628SOL     OW19722   3.376   5.001   2.811
72628SOL    HW119723   3.342   5.079   2.769
72628SOL    HW219724   3.449   5.033   2.864
72629SOL     OW19725   7.672  11.854  10.279
72629SOL    HW119726   7.728  11.931  10.269
72629SOL    HW219727   7.587  11.883  10.245
72630SOL     OW19728  12.121   1.783   9.644
72630SOL    HW119729  12.060   1.825   9.704
72630SOL    HW219730  12.144   1.700   9.687
72631SOL     OW19731   5.762  10.571  12.025
72631SOL    HW119732   5.731  10.658  12.049
72631SOL    HW219733   5.736  10.515  12.098
72632SOL     OW19734   0.827  14.508   7.794
72632SOL    HW119735   0.739  14.541   7.779
72632SOL    HW219736   0.884  14.567   7.744
72633SOL     OW19737   1.953   8.229  13.704
72633SOL    HW119738   1.974   8.320  13.687
72633SOL    HW219739   1.927   8.194  13.618
72634SOL     OW19740  11.358   3.815  10.367
72634SOL    HW119741  11.362   3.806  10.272
72634SOL    HW219742  11.406   3.896  10.386
72635SOL     OW19743  13.832   9.964   8.292
72635SOL    HW119744  13.908   9.915   8.261
72635SOL    HW219745  13.833  10.044   8.239
72636SOL     OW19746   6.903   0.085  14.795
72636SOL    HW119747   6.996   0.071  14.814
72636SOL    HW219748   6.873   0.144  14.863
72637SOL     OW19749  11.198  13.740   0.753
72637SOL    HW119750  11.231  13.779   0.671
72637SOL    HW219751  11.247  13.658   0.762
72638SOL     OW19752   9.253   6.812   3.468
72638SOL    HW119753   9.161   6.819   3.441
72638SOL    HW219754   9.294   6.893   3.437
72639SOL     OW19755   9.157   0.133  11.930
72639SOL    HW119756   9.144   0.226  11.908
72639SOL    HW219757   9.243   0.112  11.896
72640SOL     OW19758  13.439   7.812  11.900
72640SOL    HW119759  13.424   7.903  11.923
72640SOL    HW219760  13.442   7.811  11.804
72641SOL     OW19761   3.472  10.559   3.234
72641SOL    HW119762   3.452  10.650   3.214
72641SOL    HW219763   3.404  10.509   3.189
72642SOL     OW19764  12.733  13.151  10.441
72642SOL    HW119765  12.794  13.220  10.414
72642SOL    HW219766  12.746  13.145  10.535
72643SOL     OW19767   9.481   3.977   2.122
72643SOL    HW119768   9.503   4.064   2.155
72643SOL    HW219769   9.428   3.938   2.192
72644SOL     OW19770  10.012  10.716   9.571
72644SOL    HW119771  10.038  10.720   9.479
72644SOL    HW219772   9.917  10.707   9.569
72645SOL     OW19773   3.209   7.268  12.236
72645SOL    HW119774   3.219   7.196  12.298
72645SOL    HW219775   3.154   7.232  12.166
72646SOL     OW19776  13.159  13.607   5.399
72646SOL    HW119777  13.119  13.549   5.463
72646SOL    HW219778  13.117  13.692   5.414
72647SOL     OW19779  10.980  14.634   3.151
72647SOL    HW119780  11.024  14.681   3.222
72647SOL    HW219781  10.917  14.577   3.195
72648SOL     OW19782   4.895  10.829   8.446
72648SOL    HW119783   4.806  10.852   8.472
72648SOL    HW219784   4.902  10.735   8.466
72649SOL     OW19785   4.104  10.508   9.999
72649SOL    HW119786   4.185  10.528   9.952
72649SOL    HW219787   4.067  10.594  10.020
72650SOL     OW19788  10.934   2.415   4.938
72650SOL    HW119789  10.876   2.345   4.907
72650SOL    HW219790  10.947   2.396   5.031
72651SOL     OW19791   9.220  13.225   8.715
72651SOL    HW119792   9.153  13.273   8.667
72651SOL    HW219793   9.176  13.146   8.746
72652SOL     OW19794   0.467  10.633   2.394
72652SOL    HW119795   0.488  10.709   2.449
72652SOL    HW219796   0.494  10.660   2.306
72653SOL     OW19797   4.402  13.708  14.552
72653SOL    HW119798   4.356  13.698  14.469
72653SOL    HW219799   4.488  13.742  14.528
72654SOL     OW19800   6.320   5.049   8.911
72654SOL    HW119801   6.374   5.122   8.940
72654SOL    HW219802   6.377   4.998   8.854
72655SOL     OW19803   7.231   1.852  10.333
72655SOL    HW119804   7.239   1.945  10.354
72655SOL    HW219805   7.155   1.847  10.275
72656SOL     OW19806  12.321  12.714   4.690
72656SOL    HW119807  12.264  12.790   4.702
72656SOL    HW219808  12.341  12.685   4.778
72657SOL     OW19809   6.591   7.211   8.397
72657SOL    HW119810   6.532   7.152   8.445
72657SOL    HW219811   6.670   7.159   8.382
72658SOL     OW19812   9.529   4.630   4.012
72658SOL    HW119813   9.472   4.638   4.089
72658SOL    HW219814   9.610   4.674   4.037
72659SOL     OW19815   1.870   1.742   1.106
72659SOL    HW119816   1.873   1.651   1.074
72659SOL    HW219817   1.811   1.787   1.046
72660SOL     OW19818   4.381   4.395   5.521
72660SOL    HW119819   4.324   4.461   5.482
72660SOL    HW219820   4.440   4.446   5.578
72661SOL     OW19821   9.056   4.114  14.826
72661SOL    HW119822   8.994   4.081   0.011
72661SOL    HW219823   9.124   4.158  14.877
72662SOL     OW19824   6.215  13.460   3.853
72662SOL    HW119825   6.257  13.374   3.845
72662SOL    HW219826   6.129  13.442   3.890
72663SOL     OW19827  11.316   2.725   1.170
72663SOL    HW119828  11.362   2.807   1.187
72663SOL    HW219829  11.378   2.657   1.197
72664SOL     OW19830   0.358  13.498   8.442
72664SOL    HW119831   0.349  13.410   8.478
72664SOL    HW219832   0.393  13.550   8.514
72665SOL     OW19833  13.267   6.308   7.616
72665SOL    HW119834  13.282   6.399   7.590
72665SOL    HW219835  13.286   6.307   7.710
72666SOL     OW19836   2.315  10.502   3.353
72666SOL    HW119837   2.276  10.588   3.366
72666SOL    HW219838   2.409  10.517   3.364
72667SOL     OW19839  13.966   5.694   3.650
72667SOL    HW119840  13.971   5.615   3.704
72667SOL    HW219841  13.890   5.742   3.684
72668SOL     OW19842  14.711   8.058   2.929
72668SOL    HW119843  14.660   8.110   2.990
72668SOL    HW219844  14.730   7.976   2.976
72669SOL     OW19845   5.309  12.772  10.450
72669SOL    HW119846   5.328  12.822  10.370
72669SOL    HW219847   5.321  12.835  10.521
72670SOL     OW19848  14.875   6.326  13.470
72670SOL    HW119849   0.036   6.365  13.393
72670SOL    HW219850   0.030   6.237  13.473
72671SOL     OW19851  11.639  12.262  14.747
72671SOL    HW119852  11.598  12.317  14.814
72671SOL    HW219853  11.713  12.222  14.791
72672SOL     OW19854   2.412  12.746   0.491
72672SOL    HW119855   2.422  12.680   0.423
72672SOL    HW219856   2.359  12.704   0.558
72673SOL     OW19857   7.999  11.989   7.397
72673SOL    HW119858   7.998  12.034   7.482
72673SOL    HW219859   7.922  11.931   7.401
72674SOL     OW19860  12.194  13.697   1.419
72674SOL    HW119861  12.126  13.735   1.362
72674SOL    HW219862  12.195  13.604   1.397
72675SOL     OW19863  12.960  12.414   4.891
72675SOL    HW119864  13.015  12.377   4.960
72675SOL    HW219865  12.875  12.371   4.901
72676SOL     OW19866   3.015  11.332  12.410
72676SOL    HW119867   3.012  11.427  12.418
72676SOL    HW219868   3.070  11.316  12.333
72677SOL     OW19869   5.310  11.412  14.627
72677SOL    HW119870   5.317  11.489  14.683
72677SOL    HW219871   5.399  11.375  14.626
72678SOL     OW19872   1.292   9.354   3.396
72678SOL    HW119873   1.290   9.273   3.344
72678SOL    HW219874   1.220   9.406   3.360
72679SOL     OW19875   8.627   8.516   4.633
72679SOL    HW119876   8.698   8.563   4.677
72679SOL    HW219877   8.564   8.584   4.609
72680SOL     OW19878   9.474   2.018   3.711
72680SOL    HW119879   9.542   1.951   3.716
72680SOL    HW219880   9.448   2.032   3.803
72681SOL     OW19881   1.635   8.173   8.076
72681SOL    HW119882   1.659   8.212   7.992
72681SOL    HW219883   1.549   8.209   8.095
72682SOL     OW19884   0.817   0.117   3.082
72682SOL    HW119885   0.819   0.021   3.080
72682SOL    HW219886   0.724   0.139   3.085
72683SOL     OW19887   9.175  14.091  11.816
72683SOL    HW119888   9.206  14.144  11.743
72683SOL    HW219889   9.190  14.001  11.788
72684SOL     OW19890  12.950  14.650   0.248
72684SOL    HW119891  12.987  14.728   0.206
72684SOL    HW219892  12.910  14.682   0.329
72685SOL     OW19893  12.042   8.886  12.081
72685SOL    HW119894  12.039   8.949  12.153
72685SOL    HW219895  11.968   8.911  12.025
72686SOL     OW19896   3.333   3.062   5.925
72686SOL    HW119897   3.294   3.138   5.969
72686SOL    HW219898   3.276   3.045   5.851
72687SOL     OW19899   8.273   6.189  14.109
72687SOL    HW119900   8.288   6.100  14.140
72687SOL    HW219901   8.239   6.178  14.020
72688SOL     OW19902   7.717  11.656  10.456
72688SOL    HW119903   7.646  11.629  10.514
72688SOL    HW219904   7.679  11.726  10.403
72689SOL     OW19905   7.717  12.320   0.641
72689SOL    HW119906   7.635  12.359   0.671
72689SOL    HW219907   7.694  12.280   0.557
72690SOL     OW19908   1.988   9.289   9.215
72690SOL    HW119909   2.002   9.194   9.214
72690SOL    HW219910   2.020   9.319   9.130
72691SOL     OW19911   5.586  10.666  12.843
72691SOL    HW119912   5.629  10.586  12.813
72691SOL    HW219913   5.609  10.731  12.777
72692SOL     OW19914   4.335   8.702   2.105
72692SOL    HW119915   4.423   8.731   2.084
72692SOL    HW219916   4.338   8.684   2.199
72693SOL     OW19917  13.190   9.352   2.323
72693SOL    HW119918  13.150   9.267   2.337
72693SOL    HW219919  13.284   9.333   2.315
72694SOL     OW19920   5.942   4.976   4.442
72694SOL    HW119921   5.863   5.019   4.410
72694SOL    HW219922   6.008   5.045   4.445
72695SOL     OW19923   9.819   2.639  14.580
72695SOL    HW119924   9.746   2.629  14.641
72695SOL    HW219925   9.885   2.577  14.610
72696SOL     OW19926   8.277   2.421   0.786
72696SOL    HW119927   8.215   2.428   0.858
72696SOL    HW219928   8.313   2.510   0.776
72697SOL     OW19929  10.095   7.611   2.260
72697SOL    HW119930  10.113   7.662   2.339
72697SOL    HW219931  10.162   7.641   2.197
72698SOL     OW19932   1.155   9.810   4.768
72698SOL    HW119933   1.157   9.842   4.678
72698SOL    HW219934   1.218   9.865   4.814
72699SOL     OW19935   1.736   5.564   4.361
72699SOL    HW119936   1.829   5.541   4.365
72699SOL    HW219937   1.698   5.499   4.302
72700SOL     OW19938   8.060  12.084  12.832
72700SOL    HW119939   8.079  12.130  12.914
72700SOL    HW219940   8.065  12.152  12.765
72701SOL     OW19941  13.020   2.924   2.362
72701SOL    HW119942  12.974   2.850   2.402
72701SOL    HW219943  12.952   2.974   2.317
72702SOL     OW19944   0.400   9.326   5.256
72702SOL    HW119945   0.489   9.348   5.283
72702SOL    HW219946   0.409   9.245   5.206
72703SOL     OW19947  13.397   7.932  10.988
72703SOL    HW119948  13.478   7.895  11.026
72703SOL    HW219949  13.422   8.019  10.958
72704SOL     OW19950   8.690  10.131   9.569
72704SOL    HW119951   8.711  10.191   9.641
72704SOL    HW219952   8.704  10.044   9.607
72705SOL     OW19953   8.902   2.694   2.162
72705SOL    HW119954   8.877   2.602   2.156
72705SOL    HW219955   8.860   2.736   2.087
72706SOL     OW19956  12.240   8.984   1.457
72706SOL    HW119957  12.145   8.980   1.465
72706SOL    HW219958  12.272   8.911   1.510
72707SOL     OW19959   3.366  14.167  13.165
72707SOL    HW119960   3.281  14.204  13.187
72707SOL    HW219961   3.429  14.220  13.214
72708SOL     OW19962   7.445  10.266   2.372
72708SOL    HW119963   7.485  10.290   2.456
72708SOL    HW219964   7.520  10.255   2.312
72709SOL     OW19965   2.140   3.988  11.697
72709SOL    HW119966   2.231   3.969  11.673
72709SOL    HW219967   2.121   3.928  11.769
72710SOL     OW19968  13.683  12.902   8.990
72710SOL    HW119969  13.705  12.845   8.917
72710SOL    HW219970  13.740  12.873   9.061
72711SOL     OW19971  13.835  10.057   5.859
72711SOL    HW119972  13.865  10.026   5.944
72711SOL    HW219973  13.915  10.078   5.811
72712SOL     OW19974   2.938   2.690   0.673
72712SOL    HW119975   2.887   2.769   0.654
72712SOL    HW219976   2.987   2.674   0.592
72713SOL     OW19977   7.440   3.409   9.379
72713SOL    HW119978   7.469   3.499   9.365
72713SOL    HW219979   7.449   3.366   9.294
72714SOL     OW19980   6.183  11.625   6.959
72714SOL    HW119981   6.258  11.614   7.017
72714SOL    HW219982   6.141  11.539   6.958
72715SOL     OW19983  12.101   7.709   7.947
72715SOL    HW119984  12.168   7.686   8.012
72715SOL    HW219985  12.143   7.695   7.863
72716SOL     OW19986   5.293   7.915   3.256
72716SOL    HW119987   5.314   7.961   3.337
72716SOL    HW219988   5.284   7.984   3.190
72717SOL     OW19989  13.962  14.853   2.601
72717SOL    HW119990  13.911   0.047   2.634
72717SOL    HW219991  14.052   0.006   2.597
72718SOL     OW19992   5.965  10.326  11.499
72718SOL    HW119993   5.989  10.300  11.588
72718SOL    HW219994   5.988  10.418  11.494
72719SOL     OW19995   7.946   1.407   5.758
72719SOL    HW119996   8.009   1.459   5.807
72719SOL    HW219997   7.999   1.341   5.714
72720SOL     OW19998   4.166   0.960   0.244
72720SOL    HW119999   4.090   0.976   0.187
72720SOL    HW220000   4.227   1.031   0.223
72721SOL     OW20001   7.927   0.945  12.727
72721SOL    HW120002   7.958   0.978  12.642
72721SOL    HW220003   7.975   0.997  12.791
72722SOL     OW20004   0.574   7.316   1.989
72722SOL    HW120005   0.492   7.277   1.958
72722SOL    HW220006   0.633   7.242   2.002
72723SOL     OW20007   9.943   2.244   1.521
72723SOL    HW120008   9.892   2.313   1.477
72723SOL    HW220009   9.941   2.268   1.613
72724SOL     OW20010  11.064   3.097  11.089
72724SOL    HW120011  10.986   3.049  11.119
72724SOL    HW220012  11.133   3.069  11.149
72725SOL     OW20013   6.103   5.962   8.561
72725SOL    HW120014   6.041   6.033   8.547
72725SOL    HW220015   6.169   5.974   8.492
72726SOL     OW20016   1.993  14.347  11.753
72726SOL    HW120017   1.989  14.394  11.670
72726SOL    HW220018   2.024  14.412  11.816
72727SOL     OW20019   3.686   7.172   9.441
72727SOL    HW120020   3.601   7.159   9.399
72727SOL    HW220021   3.685   7.112   9.515
72728SOL     OW20022  14.698   7.220  14.076
72728SOL    HW120023  14.660   7.291  14.127
72728SOL    HW220024  14.626   7.158  14.063
72729SOL     OW20025   2.656   3.800  10.582
72729SOL    HW120026   2.630   3.712  10.609
72729SOL    HW220027   2.687   3.790  10.492
72730SOL     OW20028   7.099  13.981  13.584
72730SOL    HW120029   7.119  14.067  13.547
72730SOL    HW220030   7.008  13.988  13.612
72731SOL     OW20031  10.999   3.280   3.633
72731SOL    HW120032  10.987   3.335   3.711
72731SOL    HW220033  10.910   3.262   3.603
72732SOL     OW20034   4.581   3.417   0.089
72732SOL    HW120035   4.544   3.335   0.122
72732SOL    HW220036   4.539   3.485   0.143
72733SOL     OW20037   0.089  10.699   7.514
72733SOL    HW120038   0.130  10.753   7.446
72733SOL    HW220039   0.014  10.659   7.471
72734SOL     OW20040  10.366   5.785   3.513
72734SOL    HW120041  10.328   5.742   3.590
72734SOL    HW220042  10.439   5.730   3.488
72735SOL     OW20043   6.282  12.723   5.043
72735SOL    HW120044   6.367  12.701   5.082
72735SOL    HW220045   6.245  12.639   5.018
72736SOL     OW20046   8.584   8.150   3.243
72736SOL    HW120047   8.666   8.103   3.226
72736SOL    HW220048   8.602   8.240   3.214
72737SOL     OW20049   0.043  13.093   3.346
72737SOL    HW120050  14.858  13.023   3.340
72737SOL    HW220051  14.871  13.174   3.346
72738SOL     OW20052   4.911  13.552  11.883
72738SOL    HW120053   5.001  13.522  11.869
72738SOL    HW220054   4.882  13.582  11.797
72739SOL     OW20055  14.207   3.156   6.428
72739SOL    HW120056  14.188   3.230   6.370
72739SOL    HW220057  14.133   3.154   6.489
72740SOL     OW20058  12.011  14.190  11.583
72740SOL    HW120059  11.918  14.186  11.608
72740SOL    HW220060  12.055  14.224  11.660
72741SOL     OW20061  14.300   0.588  13.651
72741SOL    HW120062  14.222   0.533  13.661
72741SOL    HW220063  14.372   0.532  13.679
72742SOL     OW20064   7.536   4.830  12.424
72742SOL    HW120065   7.555   4.864  12.336
72742SOL    HW220066   7.594   4.754  12.433
72743SOL     OW20067   3.758   1.032   7.277
72743SOL    HW120068   3.706   1.053   7.355
72743SOL    HW220069   3.848   1.054   7.301
72744SOL     OW20070   0.868  14.048   9.769
72744SOL    HW120071   0.928  13.992   9.818
72744SOL    HW220072   0.868  14.011   9.681
72745SOL     OW20073   4.613   9.914   1.975
72745SOL    HW120074   4.599   9.843   2.038
72745SOL    HW220075   4.540   9.974   1.990
72746SOL     OW20076   2.665   9.649   9.020
72746SOL    HW120077   2.733   9.587   8.994
72746SOL    HW220078   2.700   9.735   8.995
72747SOL     OW20079   4.667   6.283  11.119
72747SOL    HW120080   4.685   6.231  11.197
72747SOL    HW220081   4.744   6.271  11.064
72748SOL     OW20082   7.487   8.025   3.293
72748SOL    HW120083   7.396   8.041   3.270
72748SOL    HW220084   7.506   8.087   3.364
72749SOL     OW20085   9.792   8.532  13.782
72749SOL    HW120086   9.868   8.554  13.728
72749SOL    HW220087   9.742   8.471  13.729
72750SOL     OW20088  12.738   0.979  14.080
72750SOL    HW120089  12.801   0.990  14.152
72750SOL    HW220090  12.763   0.896  14.039
72751SOL     OW20091   4.244  12.230   8.190
72751SOL    HW120092   4.163  12.195   8.154
72751SOL    HW220093   4.217  12.283   8.265
72752SOL     OW20094  13.585   9.647   9.944
72752SOL    HW120095  13.511   9.707   9.934
72752SOL    HW220096  13.611   9.626   9.855
72753SOL     OW20097   3.381  10.477   0.535
72753SOL    HW120098   3.286  10.477   0.521
72753SOL    HW220099   3.391  10.457   0.628
72754SOL     OW20100   5.840  11.157  14.695
72754SOL    HW120101   5.896  11.084  14.666
72754SOL    HW220102   5.828  11.211  14.617
72755SOL     OW20103   1.034  10.656   3.890
72755SOL    HW120104   0.955  10.632   3.937
72755SOL    HW220105   1.085  10.707   3.953
72756SOL     OW20106  14.453  10.196   2.227
72756SOL    HW120107  14.461  10.152   2.312
72756SOL    HW220108  14.542  10.206   2.196
72757SOL     OW20109   1.709   3.255   8.129
72757SOL    HW120110   1.707   3.190   8.200
72757SOL    HW220111   1.800   3.285   8.126
72758SOL     OW20112   0.612   0.491   1.637
72758SOL    HW120113   0.676   0.421   1.637
72758SOL    HW220114   0.551   0.469   1.707
72759SOL     OW20115   1.046  13.314   3.815
72759SOL    HW120116   0.975  13.255   3.791
72759SOL    HW220117   1.066  13.293   3.906
72760SOL     OW20118   3.293   9.926   3.636
72760SOL    HW120119   3.224   9.963   3.581
72760SOL    HW220120   3.272   9.957   3.725
72761SOL     OW20121   4.633   6.248  11.802
72761SOL    HW120122   4.572   6.187  11.760
72761SOL    HW220123   4.591   6.333  11.792
72762SOL     OW20124  11.633   7.480   8.163
72762SOL    HW120125  11.588   7.499   8.081
72762SOL    HW220126  11.659   7.566   8.197
72763SOL     OW20127  11.012  14.104  10.495
72763SOL    HW120128  10.981  14.035  10.553
72763SOL    HW220129  10.942  14.113  10.430
72764SOL     OW20130  11.769   1.483   3.368
72764SOL    HW120131  11.746   1.532   3.289
72764SOL    HW220132  11.863   1.498   3.378
72765SOL     OW20133   3.245   9.302   1.322
72765SOL    HW120134   3.308   9.348   1.266
72765SOL    HW220135   3.163   9.303   1.272
72766SOL     OW20136   8.627   6.514  13.273
72766SOL    HW120137   8.617   6.419  13.274
72766SOL    HW220138   8.598   6.540  13.186
72767SOL     OW20139   9.895   1.113   7.858
72767SOL    HW120140   9.867   1.182   7.919
72767SOL    HW220141   9.840   1.038   7.881
72768SOL     OW20142   2.491   6.033  10.995
72768SOL    HW120143   2.562   6.058  11.054
72768SOL    HW220144   2.532   6.024  10.910
72769SOL     OW20145  11.459  10.574   4.718
72769SOL    HW120146  11.464  10.478   4.718
72769SOL    HW220147  11.398  10.594   4.647
72770SOL     OW20148   9.694   2.677   2.500
72770SOL    HW120149   9.787   2.696   2.503
72770SOL    HW220150   9.674   2.672   2.406
72771SOL     OW20151  12.025   4.838  10.229
72771SOL    HW120152  11.991   4.749  10.217
72771SOL    HW220153  11.960   4.894  10.188
72772SOL     OW20154   4.140   7.043   7.442
72772SOL    HW120155   4.126   7.126   7.488
72772SOL    HW220156   4.155   6.979   7.511
72773SOL     OW20157   8.523  13.977   7.998
72773SOL    HW120158   8.608  13.989   7.956
72773SOL    HW220159   8.518  14.047   8.063
72774SOL     OW20160  13.821   1.613  11.128
72774SOL    HW120161  13.828   1.559  11.050
72774SOL    HW220162  13.793   1.553  11.197
72775SOL     OW20163  13.910   7.620   5.684
72775SOL    HW120164  13.815   7.631   5.683
72775SOL    HW220165  13.925   7.540   5.632
72776SOL     OW20166   2.834   3.834   7.619
72776SOL    HW120167   2.773   3.816   7.691
72776SOL    HW220168   2.792   3.797   7.541
72777SOL     OW20169   8.987  13.184   0.229
72777SOL    HW120170   8.942  13.141   0.302
72777SOL    HW220171   8.966  13.277   0.240
72778SOL     OW20172   7.499   3.873   8.102
72778SOL    HW120173   7.575   3.930   8.116
72778SOL    HW220174   7.439   3.925   8.049
72779SOL     OW20175  12.041   4.142   5.288
72779SOL    HW120176  12.113   4.095   5.245
72779SOL    HW220177  12.041   4.109   5.378
72780SOL     OW20178   1.420   3.092  12.661
72780SOL    HW120179   1.494   3.150  12.642
72780SOL    HW220180   1.461   3.012  12.695
72781SOL     OW20181  12.065   2.941   0.995
72781SOL    HW120182  12.013   2.889   1.057
72781SOL    HW220183  12.045   3.032   1.016
72782SOL     OW20184  10.597   5.324   8.081
72782SOL    HW120185  10.648   5.398   8.113
72782SOL    HW220186  10.658   5.275   8.026
72783SOL     OW20187   9.672  13.741   0.474
72783SOL    HW120188   9.596  13.751   0.416
72783SOL    HW220189   9.684  13.828   0.513
72784SOL     OW20190   8.412  14.876  14.480
72784SOL    HW120191   8.325  14.844  14.459
72784SOL    HW220192   8.403   0.092  14.486
72785SOL     OW20193   2.202   0.463   9.603
72785SOL    HW120194   2.131   0.523   9.627
72785SOL    HW220195   2.259   0.515   9.546
72786SOL     OW20196   1.110  14.151   3.382
72786SOL    HW120197   1.076  14.170   3.295
72786SOL    HW220198   1.137  14.236   3.417
72787SOL     OW20199   7.756   5.334   5.099
72787SOL    HW120200   7.798   5.411   5.137
72787SOL    HW220201   7.736   5.359   5.009
72788SOL     OW20202   1.428  13.708  14.365
72788SOL    HW120203   1.360  13.757  14.319
72788SOL    HW220204   1.499  13.770  14.377
72789SOL     OW20205   2.544   2.947   7.544
72789SOL    HW120206   2.618   2.973   7.489
72789SOL    HW220207   2.474   2.926   7.483
72790SOL     OW20208  13.453  14.683   0.114
72790SOL    HW120209  13.389  14.646   0.175
72790SOL    HW220210  13.446  14.630   0.035
72791SOL     OW20211  14.756   7.369  10.001
72791SOL    HW120212  14.832   7.350   9.946
72791SOL    HW220213  14.705   7.432   9.949
72792SOL     OW20214   0.233   8.033   9.264
72792SOL    HW120215   0.174   7.961   9.286
72792SOL    HW220216   0.316   7.990   9.244
72793SOL     OW20217   4.960  14.194  10.849
72793SOL    HW120218   4.947  14.251  10.925
72793SOL    HW220219   5.049  14.213  10.820
72794SOL     OW20220   0.236   9.173  11.148
72794SOL    HW120221   0.220   9.078  11.151
72794SOL    HW220222   0.212   9.203  11.236
72795SOL     OW20223   8.566  14.003  10.664
72795SOL    HW120224   8.593  13.928  10.611
72795SOL    HW220225   8.603  14.079  10.619
72796SOL     OW20226   3.023   6.972   6.529
72796SOL    HW120227   3.037   6.881   6.553
72796SOL    HW220228   3.097   6.995   6.474
72797SOL     OW20229   8.833  12.479   0.825
72797SOL    HW120230   8.808  12.402   0.774
72797SOL    HW220231   8.918  12.455   0.864
72798SOL     OW20232   7.613   0.720   1.267
72798SOL    HW120233   7.618   0.639   1.216
72798SOL    HW220234   7.704   0.748   1.277
72799SOL     OW20235   7.622   8.130   1.081
72799SOL    HW120236   7.582   8.091   1.158
72799SOL    HW220237   7.676   8.060   1.044
72800SOL     OW20238  10.720   7.199   8.766
72800SOL    HW120239  10.634   7.197   8.724
72800SOL    HW220240  10.744   7.107   8.777
72801SOL     OW20241   0.740   1.070   3.845
72801SOL    HW120242   0.783   1.037   3.766
72801SOL    HW220243   0.810   1.113   3.894
72802SOL     OW20244   1.537  10.001   8.901
72802SOL    HW120245   1.503   9.930   8.955
72802SOL    HW220246   1.494  10.080   8.935
72803SOL     OW20247  12.130   6.019  11.316
72803SOL    HW120248  12.062   5.972  11.267
72803SOL    HW220249  12.207   6.014  11.261
72804SOL     OW20250   3.121   1.336   6.612
72804SOL    HW120251   3.060   1.390   6.664
72804SOL    HW220252   3.195   1.321   6.671
72805SOL     OW20253   5.910   8.852  11.483
72805SOL    HW120254   5.971   8.925  11.469
72805SOL    HW220255   5.851   8.856  11.408
72806SOL     OW20256   3.233  13.613  12.670
72806SOL    HW120257   3.199  13.558  12.740
72806SOL    HW220258   3.190  13.582  12.591
72807SOL     OW20259  11.813  14.176   1.309
72807SOL    HW120260  11.862  14.132   1.379
72807SOL    HW220261  11.787  14.260   1.348
72808SOL     OW20262  14.175   9.623   7.787
72808SOL    HW120263  14.253   9.617   7.733
72808SOL    HW220264  14.204   9.601   7.876
72809SOL     OW20265   5.451   2.291  12.304
72809SOL    HW120266   5.460   2.379  12.339
72809SOL    HW220267   5.414   2.304  12.217
72810SOL     OW20268   3.509   3.435   2.975
72810SOL    HW120269   3.418   3.441   3.004
72810SOL    HW220270   3.561   3.460   3.051
72811SOL     OW20271  11.380  13.368   9.049
72811SOL    HW120272  11.426  13.288   9.023
72811SOL    HW220273  11.287  13.346   9.041
72812SOL     OW20274  11.215   6.170   2.544
72812SOL    HW120275  11.274   6.218   2.602
72812SOL    HW220276  11.213   6.222   2.464
72813SOL     OW20277   5.165   9.817   9.064
72813SOL    HW120278   5.145   9.865   9.144
72813SOL    HW220279   5.139   9.876   8.993
72814SOL     OW20280   6.661  12.402   1.923
72814SOL    HW120281   6.744  12.409   1.970
72814SOL    HW220282   6.664  12.471   1.857
72815SOL     OW20283  10.824   9.388   8.203
72815SOL    HW120284  10.738   9.394   8.245
72815SOL    HW220285  10.871   9.466   8.233
72816SOL     OW20286  12.064  13.987   1.959
72816SOL    HW120287  12.103  14.074   1.968
72816SOL    HW220288  12.049  13.977   1.865
72817SOL     OW20289  13.997  13.560  10.719
72817SOL    HW120290  13.932  13.533  10.655
72817SOL    HW220291  14.057  13.485  10.725
72818SOL     OW20292   9.297   2.630   4.993
72818SOL    HW120293   9.242   2.562   4.953
72818SOL    HW220294   9.357   2.656   4.922
72819SOL     OW20295   2.655   6.055   5.522
72819SOL    HW120296   2.626   6.000   5.595
72819SOL    HW220297   2.719   6.114   5.560
72820SOL     OW20298  13.818   5.445   9.591
72820SOL    HW120299  13.811   5.529   9.636
72820SOL    HW220300  13.866   5.389   9.652
72821SOL     OW20301   1.363   1.569   0.407
72821SOL    HW120302   1.276   1.570   0.368
72821SOL    HW220303   1.413   1.634   0.357
72822SOL     OW20304   2.696  12.090   8.433
72822SOL    HW120305   2.678  12.114   8.524
72822SOL    HW220306   2.677  12.169   8.382
72823SOL     OW20307  10.350   2.848  11.957
72823SOL    HW120308  10.349   2.870  11.865
72823SOL    HW220309  10.439   2.868  11.987
72824SOL     OW20310  14.235   8.206   2.042
72824SOL    HW120311  14.279   8.216   1.957
72824SOL    HW220312  14.239   8.293   2.081
72825SOL     OW20313   4.045  12.168   2.162
72825SOL    HW120314   4.031  12.129   2.249
72825SOL    HW220315   4.140  12.179   2.157
72826SOL     OW20316  10.170   7.805   9.211
72826SOL    HW120317  10.089   7.839   9.171
72826SOL    HW220318  10.166   7.834   9.302
72827SOL     OW20319   1.731   2.753   1.767
72827SOL    HW120320   1.654   2.736   1.822
72827SOL    HW220321   1.763   2.666   1.743
72828SOL     OW20322  13.768   5.107  11.095
72828SOL    HW120323  13.862   5.094  11.089
72828SOL    HW220324  13.758   5.202  11.109
72829SOL     OW20325   3.211  13.034  10.711
72829SOL    HW120326   3.287  13.084  10.741
72829SOL    HW220327   3.194  12.971  10.782
72830SOL     OW20328  12.652   4.612   6.747
72830SOL    HW120329  12.717   4.604   6.677
72830SOL    HW220330  12.648   4.524   6.786
72831SOL     OW20331   6.388   3.867   1.307
72831SOL    HW120332   6.437   3.814   1.244
72831SOL    HW220333   6.297   3.842   1.294
72832SOL     OW20334  14.054  10.601   2.380
72832SOL    HW120335  14.072  10.649   2.461
72832SOL    HW220336  14.043  10.670   2.314
72833SOL     OW20337   0.510   5.170   5.444
72833SOL    HW120338   0.496   5.228   5.369
72833SOL    HW220339   0.436   5.186   5.502
72834SOL     OW20340   4.167   5.952  13.812
72834SOL    HW120341   4.119   6.032  13.792
72834SOL    HW220342   4.252   5.963  13.769
72835SOL     OW20343   7.751   0.268   1.386
72835SOL    HW120344   7.752   0.350   1.436
72835SOL    HW220345   7.818   0.280   1.318
72836SOL     OW20346   5.646   2.267  10.183
72836SOL    HW120347   5.593   2.217  10.245
72836SOL    HW220348   5.677   2.343  10.233
72837SOL     OW20349   7.351  13.142   3.566
72837SOL    HW120350   7.313  13.061   3.533
72837SOL    HW220351   7.426  13.158   3.510
72838SOL     OW20352   3.481   2.469   8.164
72838SOL    HW120353   3.468   2.558   8.197
72838SOL    HW220354   3.445   2.471   8.075
72839SOL     OW20355  14.626   7.522   0.875
72839SOL    HW120356  14.609   7.609   0.840
72839SOL    HW220357  14.717   7.505   0.853
72840SOL     OW20358  10.233   4.257  12.265
72840SOL    HW120359  10.297   4.186  12.265
72840SOL    HW220360  10.172   4.234  12.336
72841SOL     OW20361   2.340   7.475   7.815
72841SOL    HW120362   2.276   7.530   7.859
72841SOL    HW220363   2.292   7.395   7.794
72842SOL     OW20364   0.116   7.088  11.553
72842SOL    HW120365   0.140   7.076  11.462
72842SOL    HW220366   0.035   7.038  11.564
72843SOL     OW20367   1.321   7.789   8.544
72843SOL    HW120368   1.393   7.738   8.581
72843SOL    HW220369   1.300   7.745   8.462
72844SOL     OW20370   5.374   5.719   3.630
72844SOL    HW120371   5.379   5.724   3.725
72844SOL    HW220372   5.414   5.800   3.599
72845SOL     OW20373   0.865   6.054   4.231
72845SOL    HW120374   0.805   5.979   4.233
72845SOL    HW220375   0.907   6.054   4.317
72846SOL     OW20376  10.483   0.981  11.991
72846SOL    HW120377  10.473   0.892  11.955
72846SOL    HW220378  10.570   0.981  12.030
72847SOL     OW20379   8.287  13.392  14.508
72847SOL    HW120380   8.363  13.424  14.557
72847SOL    HW220381   8.307  13.300  14.490
72848SOL     OW20382   4.729  10.134   7.345
72848SOL    HW120383   4.673  10.060   7.322
72848SOL    HW220384   4.719  10.196   7.272
72849SOL     OW20385  13.391   4.249  10.986
72849SOL    HW120386  13.444   4.170  10.987
72849SOL    HW220387  13.448   4.316  10.948
72850SOL     OW20388   9.709  10.105   5.227
72850SOL    HW120389   9.628  10.079   5.184
72850SOL    HW220390   9.777  10.054   5.184
72851SOL     OW20391   6.420   5.769  10.211
72851SOL    HW120392   6.389   5.690  10.255
72851SOL    HW220393   6.406   5.839  10.274
72852SOL     OW20394   4.672  13.341  13.337
72852SOL    HW120395   4.681  13.394  13.258
72852SOL    HW220396   4.701  13.399  13.408
72853SOL     OW20397  14.293   6.650   0.197
72853SOL    HW120398  14.310   6.724   0.139
72853SOL    HW220399  14.206   6.619   0.171
72854SOL     OW20400   3.846  13.667   2.999
72854SOL    HW120401   3.876  13.637   2.913
72854SOL    HW220402   3.751  13.654   2.997
72855SOL     OW20403  10.753  12.609   4.132
72855SOL    HW120404  10.820  12.634   4.069
72855SOL    HW220405  10.692  12.555   4.083
72856SOL     OW20406   5.021   0.799  12.701
72856SOL    HW120407   4.946   0.745  12.725
72856SOL    HW220408   4.983   0.874  12.656
72857SOL     OW20409  12.093   9.932   4.638
72857SOL    HW120410  12.068   9.858   4.583
72857SOL    HW220411  12.068   9.907   4.726
72858SOL     OW20412   2.878   3.460   1.392
72858SOL    HW120413   2.801   3.496   1.348
72858SOL    HW220414   2.951   3.513   1.359
72859SOL     OW20415   2.502   6.751   2.103
72859SOL    HW120416   2.454   6.801   2.037
72859SOL    HW220417   2.513   6.665   2.063
72860SOL     OW20418   5.929  11.136  14.188
72860SOL    HW120419   5.991  11.165  14.255
72860SOL    HW220420   5.964  11.171  14.106
72861SOL     OW20421   0.261  10.753   4.803
72861SOL    HW120422   0.206  10.693   4.752
72861SOL    HW220423   0.224  10.840   4.785
72862SOL     OW20424   4.935   4.728   2.125
72862SOL    HW120425   4.996   4.659   2.101
72862SOL    HW220426   4.863   4.720   2.063
72863SOL     OW20427   4.514  10.313   5.236
72863SOL    HW120428   4.515  10.231   5.286
72863SOL    HW220429   4.569  10.295   5.160
72864SOL     OW20430   9.036  13.143   7.912
72864SOL    HW120431   9.063  13.057   7.943
72864SOL    HW220432   9.031  13.134   7.816
72865SOL     OW20433   7.583   1.302   1.526
72865SOL    HW120434   7.604   1.316   1.434
72865SOL    HW220435   7.663   1.263   1.562
72866SOL     OW20436   6.632   4.107  13.412
72866SOL    HW120437   6.664   4.198  13.408
72866SOL    HW220438   6.576   4.105  13.490
72867SOL     OW20439   1.142   2.215  12.356
72867SOL    HW120440   1.212   2.162  12.394
72867SOL    HW220441   1.187   2.291  12.320
72868SOL     OW20442  12.039   7.342   6.840
72868SOL    HW120443  12.101   7.374   6.905
72868SOL    HW220444  12.043   7.247   6.847
72869SOL     OW20445  10.343   6.439  10.516
72869SOL    HW120446  10.438   6.439  10.502
72869SOL    HW220447  10.333   6.418  10.609
72870SOL     OW20448   7.960   1.718   5.988
72870SOL    HW120449   7.924   1.719   5.899
72870SOL    HW220450   7.914   1.788   6.033
72871SOL     OW20451  10.215  10.597   8.611
72871SOL    HW120452  10.138  10.565   8.659
72871SOL    HW220453  10.180  10.665   8.553
72872SOL     OW20454   8.348   5.951  14.228
72872SOL    HW120455   8.265   5.904  14.236
72872SOL    HW220456   8.399   5.898  14.167
72873SOL     OW20457   6.273   1.759  12.902
72873SOL    HW120458   6.256   1.680  12.852
72873SOL    HW220459   6.243   1.738  12.991
72874SOL     OW20460   8.650   8.544   8.129
72874SOL    HW120461   8.640   8.525   8.036
72874SOL    HW220462   8.686   8.463   8.166
72875SOL     OW20463  14.462   8.887   9.053
72875SOL    HW120464  14.501   8.955   9.108
72875SOL    HW220465  14.451   8.812   9.111
72876SOL     OW20466   1.368   1.840   9.465
72876SOL    HW120467   1.354   1.932   9.489
72876SOL    HW220468   1.285   1.813   9.426
72877SOL     OW20469   7.060   5.611   3.339
72877SOL    HW120470   7.121   5.653   3.278
72877SOL    HW220471   7.021   5.684   3.388
72878SOL     OW20472   3.101  13.383   2.419
72878SOL    HW120473   3.145  13.317   2.473
72878SOL    HW220474   3.016  13.396   2.462
72879SOL     OW20475   3.469   8.880   7.903
72879SOL    HW120476   3.556   8.842   7.912
72879SOL    HW220477   3.410   8.815   7.941
72880SOL     OW20478   5.385   6.507   8.328
72880SOL    HW120479   5.377   6.425   8.378
72880SOL    HW220480   5.434   6.565   8.386
72881SOL     OW20481   1.242   6.520  11.932
72881SOL    HW120482   1.176   6.495  11.997
72881SOL    HW220483   1.326   6.512  11.979
72882SOL     OW20484   6.328  13.293   3.556
72882SOL    HW120485   6.278  13.374   3.563
72882SOL    HW220486   6.351  13.271   3.646
72883SOL     OW20487   6.220  14.393   1.732
72883SOL    HW120488   6.189  14.308   1.701
72883SOL    HW220489   6.218  14.386   1.827
72884SOL     OW20490   2.148  10.174  11.875
72884SOL    HW120491   2.241  10.150  11.880
72884SOL    HW220492   2.116  10.164  11.964
72885SOL     OW20493  14.239   6.904   3.081
72885SOL    HW120494  14.282   6.822   3.058
72885SOL    HW220495  14.182   6.881   3.155
72886SOL     OW20496   3.629   6.706   3.010
72886SOL    HW120497   3.659   6.668   2.927
72886SOL    HW220498   3.683   6.664   3.077
72887SOL     OW20499   5.700   8.321   2.601
72887SOL    HW120500   5.639   8.393   2.614
72887SOL    HW220501   5.786   8.363   2.594
72888SOL     OW20502   2.643  10.877   2.111
72888SOL    HW120503   2.571  10.940   2.114
72888SOL    HW220504   2.667  10.873   2.019
72889SOL     OW20505   1.578  12.705   5.135
72889SOL    HW120506   1.592  12.626   5.187
72889SOL    HW220507   1.586  12.776   5.199
72890SOL     OW20508  11.912   6.947   8.387
72890SOL    HW120509  11.835   6.937   8.443
72890SOL    HW220510  11.879   6.987   8.306
72891SOL     OW20511  10.587   2.369   0.335
72891SOL    HW120512  10.559   2.375   0.427
72891SOL    HW220513  10.651   2.440   0.325
72892SOL     OW20514   1.774   6.837  10.080
72892SOL    HW120515   1.765   6.918  10.131
72892SOL    HW220516   1.739   6.769  10.137
72893SOL     OW20517   4.948   1.581   3.801
72893SOL    HW120518   4.885   1.520   3.841
72893SOL    HW220519   4.908   1.605   3.718
72894SOL     OW20520  12.052   2.343   9.593
72894SOL    HW120521  12.006   2.426   9.600
72894SOL    HW220522  11.993   2.279   9.634
72895SOL     OW20523   3.501  12.903   5.446
72895SOL    HW120524   3.477  12.810   5.447
72895SOL    HW220525   3.417  12.948   5.448
72896SOL     OW20526   1.951   6.271  10.916
72896SOL    HW120527   2.033   6.246  10.873
72896SOL    HW220528   1.960   6.238  11.005
72897SOL     OW20529   0.758   2.229  13.345
72897SOL    HW120530   0.824   2.198  13.407
72897SOL    HW220531   0.720   2.306  13.386
72898SOL     OW20532   7.349   8.682  11.016
72898SOL    HW120533   7.405   8.619  10.972
72898SOL    HW220534   7.323   8.639  11.097
72899SOL     OW20535   2.260   0.575  12.877
72899SOL    HW120536   2.195   0.643  12.893
72899SOL    HW220537   2.341   0.624  12.861
72900SOL     OW20538   2.402   5.273  10.862
72900SOL    HW120539   2.496   5.270  10.847
72900SOL    HW220540   2.389   5.344  10.924
72901SOL     OW20541   9.312   4.191   3.277
72901SOL    HW120542   9.383   4.132   3.303
72901SOL    HW220543   9.243   4.133   3.246
72902SOL     OW20544   4.192   0.459   4.879
72902SOL    HW120545   4.215   0.398   4.949
72902SOL    HW220546   4.266   0.519   4.874
72903SOL     OW20547  14.571  13.717   7.218
72903SOL    HW120548  14.616  13.633   7.208
72903SOL    HW220549  14.480  13.698   7.198
72904SOL     OW20550   9.998   6.280  10.508
72904SOL    HW120551   9.932   6.344  10.480
72904SOL    HW220552  10.079   6.331  10.516
72905SOL     OW20553  11.940   6.097  13.318
72905SOL    HW120554  11.959   6.038  13.245
72905SOL    HW220555  11.929   6.183  13.276
72906SOL     OW20556  11.494   5.147   3.881
72906SOL    HW120557  11.477   5.178   3.970
72906SOL    HW220558  11.578   5.102   3.887
72907SOL     OW20559  14.254  14.589  13.264
72907SOL    HW120560  14.307  14.591  13.185
72907SOL    HW220561  14.175  14.540  13.240
72908SOL     OW20562   1.560   7.614   3.181
72908SOL    HW120563   1.639   7.668   3.174
72908SOL    HW220564   1.545   7.581   3.092
72909SOL     OW20565   4.577  12.284   2.140
72909SOL    HW120566   4.599  12.340   2.066
72909SOL    HW220567   4.599  12.195   2.110
72910SOL     OW20568  12.986  10.399  13.684
72910SOL    HW120569  12.903  10.413  13.637
72910SOL    HW220570  13.031  10.483  13.678
72911SOL     OW20571  11.173   7.347  14.666
72911SOL    HW120572  11.081   7.339  14.640
72911SOL    HW220573  11.177   7.302  14.750
72912SOL     OW20574   0.308   5.789   2.932
72912SOL    HW120575   0.223   5.755   2.959
72912SOL    HW220576   0.337   5.842   3.006
72913SOL     OW20577   9.902   8.306  11.875
72913SOL    HW120578   9.892   8.394  11.912
72913SOL    HW220579   9.813   8.279  11.855
72914SOL     OW20580   1.255   5.903  13.469
72914SOL    HW120581   1.182   5.964  13.473
72914SOL    HW220582   1.332   5.959  13.455
72915SOL     OW20583   0.369  12.752   3.225
72915SOL    HW120584   0.435  12.707   3.279
72915SOL    HW220585   0.365  12.701   3.144
72916SOL     OW20586  12.044   1.872   2.344
72916SOL    HW120587  12.049   1.967   2.355
72916SOL    HW220588  11.951   1.852   2.351
72917SOL     OW20589   5.781  13.520  11.027
72917SOL    HW120590   5.742  13.445  10.981
72917SOL    HW220591   5.707  13.578  11.044
72918SOL     OW20592  10.864   5.319  12.130
72918SOL    HW120593  10.817   5.248  12.173
72918SOL    HW220594  10.836   5.314  12.039
72919SOL     OW20595   9.150   8.619  11.470
72919SOL    HW120596   9.094   8.652  11.540
72919SOL    HW220597   9.100   8.547  11.431
72920SOL     OW20598   7.173   3.471   9.512
72920SOL    HW120599   7.255   3.446   9.470
72920SOL    HW220600   7.162   3.563   9.490
72921SOL     OW20601  12.711   9.733  14.144
72921SOL    HW120602  12.628   9.686  14.139
72921SOL    HW220603  12.702   9.790  14.220
72922SOL     OW20604   3.894  13.660   4.463
72922SOL    HW120605   3.907  13.604   4.387
72922SOL    HW220606   3.818  13.623   4.508
72923SOL     OW20607   3.186   7.622  12.528
72923SOL    HW120608   3.149   7.588  12.447
72923SOL    HW220609   3.281   7.610  12.518
72924SOL     OW20610   9.656  13.212  14.126
72924SOL    HW120611   9.628  13.302  14.108
72924SOL    HW220612   9.751  13.213  14.110
72925SOL     OW20613   4.557  14.565  13.885
72925SOL    HW120614   4.476  14.553  13.934
72925SOL    HW220615   4.573  14.479  13.844
72926SOL     OW20616  10.419   3.787   8.499
72926SOL    HW120617  10.494   3.785   8.558
72926SOL    HW220618  10.367   3.710   8.522
72927SOL     OW20619  10.092   3.705  13.995
72927SOL    HW120620  10.169   3.650  13.981
72927SOL    HW220621  10.119   3.791  13.962
72928SOL     OW20622  11.276   9.032   1.968
72928SOL    HW120623  11.330   9.031   2.046
72928SOL    HW220624  11.310   8.960   1.914
72929SOL     OW20625   1.234  12.266  11.165
72929SOL    HW120626   1.319  12.305  11.188
72929SOL    HW220627   1.181  12.277  11.244
72930SOL     OW20628   9.212  13.089   6.251
72930SOL    HW120629   9.134  13.073   6.197
72930SOL    HW220630   9.258  13.160   6.206
72931SOL     OW20631   4.335   9.786  10.775
72931SOL    HW120632   4.380   9.848  10.718
72931SOL    HW220633   4.405   9.742  10.823
72932SOL     OW20634   7.662   1.510   9.281
72932SOL    HW120635   7.670   1.550   9.195
72932SOL    HW220636   7.723   1.436   9.279
72933SOL     OW20637   0.750   5.584   1.955
72933SOL    HW120638   0.705   5.667   1.936
72933SOL    HW220639   0.685   5.517   1.934
72934SOL     OW20640   4.514  13.395  12.833
72934SOL    HW120641   4.423  13.426  12.843
72934SOL    HW220642   4.554  13.461  12.776
72935SOL     OW20643  13.098   4.685   4.314
72935SOL    HW120644  13.070   4.686   4.222
72935SOL    HW220645  13.030   4.636   4.360
72936SOL     OW20646  11.234   4.097   3.809
72936SOL    HW120647  11.308   4.113   3.867
72936SOL    HW220648  11.168   4.056   3.865
72937SOL     OW20649   9.106  11.060   0.823
72937SOL    HW120650   9.021  11.017   0.828
72937SOL    HW220651   9.108  11.099   0.735
72938SOL     OW20652   6.100  10.024   2.258
72938SOL    HW120653   6.134  10.113   2.242
72938SOL    HW220654   6.022  10.038   2.312
72939SOL     OW20655  12.943   5.702   2.197
72939SOL    HW120656  13.004   5.773   2.217
72939SOL    HW220657  12.950   5.643   2.272
72940SOL     OW20658   6.854  10.620  13.411
72940SOL    HW120659   6.883  10.567  13.485
72940SOL    HW220660   6.825  10.557  13.345
72941SOL     OW20661   5.574  11.590   1.440
72941SOL    HW120662   5.522  11.571   1.518
72941SOL    HW220663   5.649  11.639   1.473
72942SOL     OW20664   1.395   3.656   3.808
72942SOL    HW120665   1.456   3.726   3.788
72942SOL    HW220666   1.386   3.607   3.727
72943SOL     OW20667  11.951   7.061   2.698
72943SOL    HW120668  11.968   7.146   2.739
72943SOL    HW220669  11.924   7.004   2.770
72944SOL     OW20670   9.261  12.982  13.000
72944SOL    HW120671   9.204  12.905  13.003
72944SOL    HW220672   9.228  13.033  12.925
72945SOL     OW20673   0.889  14.102   6.721
72945SOL    HW120674   0.822  14.042   6.689
72945SOL    HW220675   0.966  14.046   6.736
72946SOL     OW20676   4.609   0.178  13.672
72946SOL    HW120677   4.566   0.222  13.745
72946SOL    HW220678   4.697   0.157  13.704
72947SOL     OW20679   7.907   8.021   0.499
72947SOL    HW120680   7.950   8.062   0.574
72947SOL    HW220681   7.814   8.017   0.524
72948SOL     OW20682   9.398   8.005  12.709
72948SOL    HW120683   9.479   7.956  12.720
72948SOL    HW220684   9.423   8.081  12.657
72949SOL     OW20685  11.798  10.594   6.855
72949SOL    HW120686  11.838  10.666   6.903
72949SOL    HW220687  11.704  10.602   6.874
72950SOL     OW20688   3.242   4.723   1.135
72950SOL    HW120689   3.298   4.645   1.135
72950SOL    HW220690   3.300   4.794   1.164
72951SOL     OW20691   1.689   8.421   3.485
72951SOL    HW120692   1.607   8.467   3.470
72951SOL    HW220693   1.731   8.418   3.399
72952SOL     OW20694  14.705   1.125  11.842
72952SOL    HW120695  14.716   1.191  11.910
72952SOL    HW220696  14.658   1.053  11.886
72953SOL     OW20697   0.708   5.492   3.741
72953SOL    HW120698   0.687   5.522   3.653
72953SOL    HW220699   0.711   5.397   3.734
72954SOL     OW20700  13.148   3.947   6.244
72954SOL    HW120701  13.110   3.859   6.244
72954SOL    HW220702  13.234   3.936   6.205
72955SOL     OW20703   0.863  10.928  14.344
72955SOL    HW120704   0.942  10.881  14.318
72955SOL    HW220705   0.894  10.993  14.407
72956SOL     OW20706   8.067  12.593   2.506
72956SOL    HW120707   8.094  12.580   2.415
72956SOL    HW220708   8.140  12.638   2.547
72957SOL     OW20709  13.205  13.166   4.301
72957SOL    HW120710  13.235  13.149   4.212
72957SOL    HW220711  13.133  13.228   4.291
72958SOL     OW20712   2.372   7.138  14.301
72958SOL    HW120713   2.466   7.148  14.289
72958SOL    HW220714   2.333   7.166  14.218
72959SOL     OW20715   9.484   2.532  13.424
72959SOL    HW120716   9.404   2.492  13.458
72959SOL    HW220717   9.499   2.608  13.480
72960SOL     OW20718   6.079   9.313   6.269
72960SOL    HW120719   6.125   9.256   6.330
72960SOL    HW220720   6.101   9.279   6.182
72961SOL     OW20721   9.081   0.390   8.009
72961SOL    HW120722   9.113   0.480   8.014
72961SOL    HW220723   9.044   0.383   7.921
72962SOL     OW20724   2.406  12.237   3.550
72962SOL    HW120725   2.367  12.257   3.465
72962SOL    HW220726   2.500  12.238   3.534
72963SOL     OW20727  13.429   7.903   8.205
72963SOL    HW120728  13.498   7.859   8.255
72963SOL    HW220729  13.396   7.836   8.145
72964SOL     OW20730   3.744   2.840   9.601
72964SOL    HW120731   3.720   2.926   9.634
72964SOL    HW220732   3.745   2.783   9.678
72965SOL     OW20733   2.676   0.750   3.254
72965SOL    HW120734   2.631   0.834   3.261
72965SOL    HW220735   2.741   0.751   3.323
72966SOL     OW20736   6.349   9.839  14.204
72966SOL    HW120737   6.352   9.795  14.120
72966SOL    HW220738   6.435   9.823  14.243
72967SOL     OW20739   8.287   7.671   4.744
72967SOL    HW120740   8.357   7.725   4.783
72967SOL    HW220741   8.212   7.684   4.802
72968SOL     OW20742   0.142  11.010   1.542
72968SOL    HW120743   0.189  11.079   1.588
72968SOL    HW220744   0.169  10.929   1.585
72969SOL     OW20745   8.488   3.325   3.398
72969SOL    HW120746   8.572   3.279   3.391
72969SOL    HW220747   8.486   3.357   3.488
72970SOL     OW20748   0.762   3.421  10.856
72970SOL    HW120749   0.755   3.326  10.847
72970SOL    HW220750   0.718   3.456  10.779
72971SOL     OW20751  12.314   9.168  14.689
72971SOL    HW120752  12.283   9.146  14.601
72971SOL    HW220753  12.263   9.112  14.747
72972SOL     OW20754   4.128   2.871   4.271
72972SOL    HW120755   4.067   2.813   4.224
72972SOL    HW220756   4.078   2.903   4.346
72973SOL     OW20757   3.347  10.707   9.327
72973SOL    HW120758   3.437  10.739   9.333
72973SOL    HW220759   3.311  10.718   9.415
72974SOL     OW20760   6.104   8.158   6.410
72974SOL    HW120761   6.142   8.243   6.387
72974SOL    HW220762   6.045   8.178   6.483
72975SOL     OW20763   1.391   1.621   8.928
72975SOL    HW120764   1.392   1.694   8.989
72975SOL    HW220765   1.457   1.560   8.962
72976SOL     OW20766   9.042   3.283  10.922
72976SOL    HW120767   9.071   3.348  10.857
72976SOL    HW220768   8.952   3.263  10.897
72977SOL     OW20769   8.919   9.233  12.937
72977SOL    HW120770   8.996   9.186  12.906
72977SOL    HW220771   8.954   9.310  12.982
72978SOL     OW20772   3.195   9.399  13.996
72978SOL    HW120773   3.181   9.315  14.039
72978SOL    HW220774   3.171   9.464  14.063
72979SOL     OW20775   8.951   1.916  10.862
72979SOL    HW120776   8.977   1.959  10.943
72979SOL    HW220777   8.857   1.934  10.855
72980SOL     OW20778   9.899   3.141  10.743
72980SOL    HW120779   9.835   3.204  10.776
72980SOL    HW220780   9.975   3.194  10.718
72981SOL     OW20781   9.900  12.363   7.443
72981SOL    HW120782   9.850  12.405   7.372
72981SOL    HW220783   9.833  12.326   7.500
72982SOL     OW20784  13.673   9.370   7.666
72982SOL    HW120785  13.613   9.356   7.592
72982SOL    HW220786  13.751   9.320   7.643
72983SOL     OW20787  12.802   7.982   8.454
72983SOL    HW120788  12.837   7.911   8.400
72983SOL    HW220789  12.872   8.048   8.454
72984SOL     OW20790  14.041  10.501  11.007
72984SOL    HW120791  14.008  10.492  10.918
72984SOL    HW220792  13.977  10.455  11.061
72985SOL     OW20793  13.576   7.823   9.876
72985SOL    HW120794  13.607   7.776   9.798
72985SOL    HW220795  13.486   7.848   9.854
72986SOL     OW20796   2.485   6.017   1.861
72986SOL    HW120797   2.470   6.110   1.843
72986SOL    HW220798   2.444   5.971   1.787
72987SOL     OW20799  14.184   4.751  14.026
72987SOL    HW120800  14.220   4.810  14.092
72987SOL    HW220801  14.198   4.796  13.943
72988SOL     OW20802   5.991   6.555  12.044
72988SOL    HW120803   6.036   6.471  12.051
72988SOL    HW220804   5.899   6.533  12.037
72989SOL     OW20805  11.179  12.608  11.091
72989SOL    HW120806  11.096  12.642  11.124
72989SOL    HW220807  11.157  12.565  11.009
72990SOL     OW20808   9.042  13.020  10.909
72990SOL    HW120809   9.133  13.019  10.881
72990SOL    HW220810   9.005  12.939  10.873
72991SOL     OW20811  13.987   3.506   4.140
72991SOL    HW120812  14.081   3.513   4.158
72991SOL    HW220813  13.980   3.442   4.070
72992SOL     OW20814   9.014  11.804  10.930
72992SOL    HW120815   8.928  11.845  10.934
72992SOL    HW220816   9.023  11.776  10.839
72993SOL     OW20817   3.601  14.190   6.731
72993SOL    HW120818   3.601  14.180   6.826
72993SOL    HW220819   3.566  14.278   6.716
72994SOL     OW20820   3.332   4.661   5.781
72994SOL    HW120821   3.394   4.701   5.841
72994SOL    HW220822   3.342   4.567   5.796
72995SOL     OW20823   7.938   4.940  10.394
72995SOL    HW120824   8.001   4.900  10.454
72995SOL    HW220825   7.857   4.892  10.409
72996SOL     OW20826   8.592  12.491  14.214
72996SOL    HW120827   8.605  12.480  14.308
72996SOL    HW220828   8.642  12.569  14.191
72997SOL     OW20829   2.283   1.933  13.569
72997SOL    HW120830   2.332   2.004  13.611
72997SOL    HW220831   2.191   1.953  13.587
72998SOL     OW20832  13.404   8.264   2.599
72998SOL    HW120833  13.407   8.312   2.516
72998SOL    HW220834  13.315   8.278   2.632
72999SOL     OW20835   3.895  13.124   8.806
72999SOL    HW120836   3.928  13.098   8.892
72999SOL    HW220837   3.968  13.107   8.746
73000SOL     OW20838  11.082   5.385   2.798
73000SOL    HW120839  11.063   5.292   2.809
73000SOL    HW220840  11.158   5.401   2.855
73001SOL     OW20841   5.306  12.539  12.249
73001SOL    HW120842   5.241  12.605  12.274
73001SOL    HW220843   5.275  12.458  12.289
73002SOL     OW20844   1.451   3.001   7.490
73002SOL    HW120845   1.503   2.983   7.569
73002SOL    HW220846   1.498   3.071   7.446
73003SOL     OW20847  10.544  11.593  13.332
73003SOL    HW120848  10.586  11.643  13.402
73003SOL    HW220849  10.600  11.516  13.321
73004SOL     OW20850   5.996   5.285  14.065
73004SOL    HW120851   6.006   5.263  14.157
73004SOL    HW220852   5.936   5.360  14.065
73005SOL     OW20853   4.647   2.098   8.115
73005SOL    HW120854   4.622   2.089   8.207
73005SOL    HW220855   4.663   2.191   8.103
73006SOL     OW20856   7.576   0.445   1.656
73006SOL    HW120857   7.511   0.387   1.617
73006SOL    HW220858   7.527   0.520   1.687
73007SOL     OW20859   6.677   6.382  14.415
73007SOL    HW120860   6.731   6.372  14.337
73007SOL    HW220861   6.735   6.424  14.479
73008SOL     OW20862   8.538   1.023  11.035
73008SOL    HW120863   8.613   1.053  10.984
73008SOL    HW220864   8.464   1.032  10.976
73009SOL     OW20865   9.524   5.219   7.397
73009SOL    HW120866   9.431   5.241   7.397
73009SOL    HW220867   9.562   5.274   7.465
73010SOL     OW20868   1.609   9.166   6.597
73010SOL    HW120869   1.606   9.190   6.689
73010SOL    HW220870   1.600   9.248   6.549
73011SOL     OW20871  10.994  11.156   3.386
73011SOL    HW120872  10.922  11.128   3.442
73011SOL    HW220873  10.989  11.098   3.310
73012SOL     OW20874   6.251   8.493   1.509
73012SOL    HW120875   6.168   8.515   1.553
73012SOL    HW220876   6.287   8.578   1.483
73013SOL     OW20877  12.769  13.527   5.156
73013SOL    HW120878  12.798  13.472   5.229
73013SOL    HW220879  12.843  13.586   5.139
73014SOL     OW20880  11.126   5.024   0.450
73014SOL    HW120881  11.143   4.945   0.400
73014SOL    HW220882  11.050   5.064   0.408
73015SOL     OW20883  12.670   0.086   5.318
73015SOL    HW120884  12.664   0.047   5.406
73015SOL    HW220885  12.647   0.178   5.331
73016SOL     OW20886   3.745   1.794  12.938
73016SOL    HW120887   3.666   1.845  12.955
73016SOL    HW220888   3.713   1.705  12.925
73017SOL     OW20889   4.166   4.549   7.292
73017SOL    HW120890   4.192   4.518   7.205
73017SOL    HW220891   4.072   4.536   7.296
73018SOL     OW20892   0.962  14.302   6.896
73018SOL    HW120893   0.911  14.231   6.855
73018SOL    HW220894   1.045  14.262   6.919
73019SOL     OW20895  10.633   4.709   9.222
73019SOL    HW120896  10.668   4.662   9.147
73019SOL    HW220897  10.639   4.646   9.294
73020SOL     OW20898  13.577   2.653  11.282
73020SOL    HW120899  13.552   2.568  11.246
73020SOL    HW220900  13.494   2.701  11.289
73021SOL     OW20901   3.849  10.810   4.285
73021SOL    HW120902   3.846  10.850   4.198
73021SOL    HW220903   3.897  10.873   4.339
73022SOL     OW20904  12.550   1.252   1.962
73022SOL    HW120905  12.535   1.332   2.014
73022SOL    HW220906  12.492   1.187   2.002
73023SOL     OW20907  10.558   1.839  11.718
73023SOL    HW120908  10.582   1.918  11.669
73023SOL    HW220909  10.517   1.783  11.653
73024SOL     OW20910  11.853   3.415  14.578
73024SOL    HW120911  11.788   3.360  14.534
73024SOL    HW220912  11.820   3.504  14.567
73025SOL     OW20913  10.421   4.841   7.252
73025SOL    HW120914  10.429   4.822   7.158
73025SOL    HW220915  10.366   4.771   7.286
73026SOL     OW20916   9.121   8.076  10.293
73026SOL    HW120917   9.103   7.989  10.258
73026SOL    HW220918   9.216   8.081  10.298
73027SOL     OW20919   6.475   5.620  13.815
73027SOL    HW120920   6.411   5.554  13.840
73027SOL    HW220921   6.559   5.573  13.817
73028SOL     OW20922   4.214   8.653   0.129
73028SOL    HW120923   4.127   8.689   0.146
73028SOL    HW220924   4.225   8.583   0.194
73029SOL     OW20925  10.364   2.150   5.483
73029SOL    HW120926  10.316   2.226   5.517
73029SOL    HW220927  10.447   2.151   5.531
73030SOL     OW20928   6.439  12.518   3.397
73030SOL    HW120929   6.345  12.499   3.399
73030SOL    HW220930   6.452  12.566   3.316
73031SOL     OW20931  13.873  11.307   5.224
73031SOL    HW120932  13.968  11.304   5.216
73031SOL    HW220933  13.853  11.397   5.248
73032SOL     OW20934   6.475  14.389  10.136
73032SOL    HW120935   6.385  14.421  10.127
73032SOL    HW220936   6.482  14.319  10.071
73033SOL     OW20937   6.864  12.435   9.133
73033SOL    HW120938   6.934  12.372   9.115
73033SOL    HW220939   6.864  12.444   9.229
73034SOL     OW20940  11.878   3.152   2.467
73034SOL    HW120941  11.815   3.133   2.536
73034SOL    HW220942  11.883   3.248   2.466
73035SOL     OW20943   3.261   0.817  10.001
73035SOL    HW120944   3.344   0.776  10.026
73035SOL    HW220945   3.254   0.894  10.057
73036SOL     OW20946   1.082  12.854   9.695
73036SOL    HW120947   1.159  12.814   9.653
73036SOL    HW220948   1.047  12.785   9.751
73037SOL     OW20949  11.536   8.336  12.855
73037SOL    HW120950  11.626   8.368  12.846
73037SOL    HW220951  11.504   8.376  12.936
73038SOL     OW20952   9.550   9.627  14.476
73038SOL    HW120953   9.516   9.550  14.430
73038SOL    HW220954   9.637   9.601  14.505
73039SOL     OW20955   6.946   4.310   7.381
73039SOL    HW120956   6.993   4.370   7.438
73039SOL    HW220957   6.996   4.229   7.383
73040SOL     OW20958   0.640   8.991   0.674
73040SOL    HW120959   0.569   8.993   0.738
73040SOL    HW220960   0.689   9.072   0.689
73041SOL     OW20961   3.037  11.560   1.790
73041SOL    HW120962   3.076  11.624   1.849
73041SOL    HW220963   2.969  11.518   1.843
73042SOL     OW20964  11.949   3.578   8.263
73042SOL    HW120965  12.015   3.536   8.318
73042SOL    HW220966  11.932   3.662   8.307
73043SOL     OW20967   3.253  12.006  14.472
73043SOL    HW120968   3.161  12.034  14.463
73043SOL    HW220969   3.248  11.920  14.512
73044SOL     OW20970   3.536  14.539  14.021
73044SOL    HW120971   3.586  14.482  14.079
73044SOL    HW220972   3.593  14.614  14.006
73045SOL     OW20973  10.512  14.561  14.200
73045SOL    HW120974  10.550  14.571  14.112
73045SOL    HW220975  10.581  14.521  14.252
73046SOL     OW20976   1.658   8.799   7.478
73046SOL    HW120977   1.647   8.718   7.528
73046SOL    HW220978   1.588   8.796   7.412
73047SOL     OW20979  10.038  10.417   4.039
73047SOL    HW120980  10.089  10.347   4.079
73047SOL    HW220981   9.947  10.394   4.058
73048SOL     OW20982   6.703  14.548   6.806
73048SOL    HW120983   6.632  14.541   6.742
73048SOL    HW220984   6.774  14.496   6.769
73049SOL     OW20985  13.023   2.304   2.310
73049SOL    HW120986  13.034   2.216   2.273
73049SOL    HW220987  12.929   2.318   2.311
73050SOL     OW20988   9.124  10.778  13.052
73050SOL    HW120989   9.210  10.742  13.031
73050SOL    HW220990   9.099  10.733  13.133
73051SOL     OW20991  10.777  10.572   9.814
73051SOL    HW120992  10.789  10.490   9.862
73051SOL    HW220993  10.744  10.545   9.729
73052SOL     OW20994  10.415   0.024  11.165
73052SOL    HW120995  10.440  14.827  11.217
73052SOL    HW220996  10.403  14.869  11.077
73053SOL     OW20997   3.868   0.723   0.229
73053SOL    HW120998   3.794   0.695   0.175
73053SOL    HW220999   3.901   0.802   0.186
73054SOL     OW21000   9.348  13.828  12.451
73054SOL    HW121001   9.300  13.815  12.532
73054SOL    HW221002   9.288  13.798  12.382
73055SOL     OW21003   8.839   2.412   2.486
73055SOL    HW121004   8.825   2.357   2.409
73055SOL    HW221005   8.930   2.441   2.479
73056SOL     OW21006   9.539   2.103  10.133
73056SOL    HW121007   9.618   2.098  10.187
73056SOL    HW221008   9.468   2.075  10.191
73057SOL     OW21009   7.541   3.401   8.705
73057SOL    HW121010   7.539   3.451   8.787
73057SOL    HW221011   7.462   3.347   8.709
73058SOL     OW21012   9.422   8.646   6.404
73058SOL    HW121013   9.451   8.737   6.406
73058SOL    HW221014   9.411   8.626   6.311
73059SOL     OW21015   8.365   1.633   3.342
73059SOL    HW121016   8.383   1.700   3.407
73059SOL    HW221017   8.347   1.553   3.392
73060SOL     OW21018   8.567   7.834  10.934
73060SOL    HW121019   8.633   7.848  11.001
73060SOL    HW221020   8.600   7.880  10.857
73061SOL     OW21021   3.575   4.103   9.229
73061SOL    HW121022   3.622   4.170   9.180
73061SOL    HW221023   3.644   4.054   9.274
73062SOL     OW21024  12.071   6.910   7.959
73062SOL    HW121025  12.088   7.004   7.957
73062SOL    HW221026  12.148   6.872   8.002
73063SOL     OW21027   2.553   5.272   2.907
73063SOL    HW121028   2.644   5.274   2.877
73063SOL    HW221029   2.537   5.181   2.931
73064SOL     OW21030   9.921   5.660   1.709
73064SOL    HW121031   9.854   5.727   1.692
73064SOL    HW221032   9.886   5.581   1.667
73065SOL     OW21033  10.352  14.123   6.755
73065SOL    HW121034  10.394  14.123   6.669
73065SOL    HW221035  10.265  14.085   6.739
73066SOL     OW21036   4.558   9.151   4.602
73066SOL    HW121037   4.485   9.089   4.599
73066SOL    HW221038   4.636   9.097   4.591
73067SOL     OW21039   9.397   3.401   5.587
73067SOL    HW121040   9.491   3.412   5.572
73067SOL    HW221041   9.384   3.425   5.679
73068SOL     OW21042  13.311   3.578  13.767
73068SOL    HW121043  13.381   3.622  13.720
73068SOL    HW221044  13.230   3.609  13.725
73069SOL     OW21045   1.624   0.423  10.184
73069SOL    HW121046   1.692   0.473  10.230
73069SOL    HW221047   1.652   0.332  10.192
73070SOL     OW21048   2.731  11.634   8.778
73070SOL    HW121049   2.727  11.579   8.699
73070SOL    HW221050   2.734  11.724   8.744
73071SOL     OW21051   9.624   1.976  11.995
73071SOL    HW121052   9.670   1.928  11.926
73071SOL    HW221053   9.598   2.059  11.954
73072SOL     OW21054  11.056   4.578   1.169
73072SOL    HW121055  10.994   4.510   1.142
73072SOL    HW221056  11.034   4.654   1.115
73073SOL     OW21057   4.758   6.260  12.887
73073SOL    HW121058   4.728   6.278  12.976
73073SOL    HW221059   4.849   6.232  12.896
73074SOL     OW21060   6.159   8.247   2.390
73074SOL    HW121061   6.180   8.176   2.329
73074SOL    HW221062   6.239   8.261   2.440
73075SOL     OW21063   6.938   4.303  13.885
73075SOL    HW121064   6.870   4.369  13.870
73075SOL    HW221065   7.000   4.345  13.945
73076SOL     OW21066   6.731   9.836   1.870
73076SOL    HW121067   6.780   9.881   1.939
73076SOL    HW221068   6.657   9.894   1.851
73077SOL     OW21069   8.256   7.548  11.196
73077SOL    HW121070   8.203   7.619  11.233
73077SOL    HW221071   8.224   7.540  11.106
73078SOL     OW21072  14.442   3.566   0.798
73078SOL    HW121073  14.522   3.525   0.832
73078SOL    HW221074  14.388   3.582   0.875
73079SOL     OW21075   9.366   0.262   2.598
73079SOL    HW121076   9.339   0.188   2.653
73079SOL    HW221077   9.311   0.254   2.520
73080SOL     OW21078  11.780   0.956  12.456
73080SOL    HW121079  11.798   1.037  12.408
73080SOL    HW221080  11.864   0.929  12.491
73081SOL     OW21081  10.535   0.175   1.394
73081SOL    HW121082  10.557   0.169   1.301
73081SOL    HW221083  10.472   0.104   1.408
73082SOL     OW21084   3.090   7.130   5.447
73082SOL    HW121085   3.043   7.149   5.528
73082SOL    HW221086   3.170   7.085   5.476
73083SOL     OW21087   3.112  10.126   0.629
73083SOL    HW121088   3.119  10.151   0.537
73083SOL    HW221089   3.128  10.031   0.629
73084SOL     OW21090   6.252  14.501   7.641
73084SOL    HW121091   6.336  14.524   7.601
73084SOL    HW221092   6.187  14.529   7.577
73085SOL     OW21093   8.181   7.055  13.524
73085SOL    HW121094   8.235   7.000  13.467
73085SOL    HW221095   8.242   7.117  13.563
73086SOL     OW21096   2.064   7.833   7.223
73086SOL    HW121097   2.133   7.843   7.288
73086SOL    HW221098   1.983   7.828   7.274
73087SOL     OW21099  12.793   9.021  10.641
73087SOL    HW121100  12.871   9.059  10.682
73087SOL    HW221101  12.793   8.930  10.669
73088SOL     OW21102  10.564  10.187   6.419
73088SOL    HW121103  10.498  10.157   6.356
73088SOL    HW221104  10.523  10.263   6.462
73089SOL     OW21105  11.728  11.436  11.369
73089SOL    HW121106  11.699  11.444  11.278
73089SOL    HW221107  11.801  11.375  11.366
73090SOL     OW21108   4.546   5.796   3.100
73090SOL    HW121109   4.606   5.858   3.139
73090SOL    HW221110   4.506   5.750   3.174
73091SOL     OW21111   9.479  12.166  14.045
73091SOL    HW121112   9.507  12.127  13.962
73091SOL    HW221113   9.558  12.169  14.098
73092SOL     OW21114  12.283  13.116   0.176
73092SOL    HW121115  12.214  13.149   0.119
73092SOL    HW221116  12.355  13.095   0.117
73093SOL     OW21117  10.384  13.229   6.682
73093SOL    HW121118  10.289  13.244   6.686
73093SOL    HW221119  10.396  13.142   6.721
73094SOL     OW21120   5.691   7.098  14.002
73094SOL    HW121121   5.780   7.071  13.983
73094SOL    HW221122   5.670   7.162  13.934
73095SOL     OW21123  12.710  14.267  11.942
73095SOL    HW121124  12.619  14.295  11.931
73095SOL    HW221125  12.758  14.346  11.966
73096SOL     OW21126   8.753   9.977  11.090
73096SOL    HW121127   8.695  10.013  11.157
73096SOL    HW221128   8.827  10.038  11.088
73097SOL     OW21129   4.896   6.290   5.901
73097SOL    HW121130   4.977   6.313   5.856
73097SOL    HW221131   4.832   6.353   5.868
73098SOL     OW21132  11.073  13.459   6.906
73098SOL    HW121133  10.984  13.492   6.901
73098SOL    HW221134  11.109  13.472   6.818
73099SOL     OW21135   6.700   2.339   9.107
73099SOL    HW121136   6.728   2.431   9.109
73099SOL    HW221137   6.612   2.342   9.070
73100SOL     OW21138   8.239  14.380   6.339
73100SOL    HW121139   8.146  14.364   6.324
73100SOL    HW221140   8.242  14.456   6.398
73101SOL     OW21141  14.010   8.539  12.101
73101SOL    HW121142  14.077   8.486  12.143
73101SOL    HW221143  14.056   8.582  12.028
73102SOL     OW21144  14.868   9.009   0.264
73102SOL    HW121145  14.851   8.922   0.300
73102SOL    HW221146   0.044   9.052   0.329
73103SOL     OW21147  10.422   3.275  14.746
73103SOL    HW121148  10.388   3.187  14.726
73103SOL    HW221149  10.353   3.316  14.798
73104SOL     OW21150   2.596   7.372   8.761
73104SOL    HW121151   2.691   7.361   8.758
73104SOL    HW221152   2.562   7.287   8.733
73105SOL     OW21153  12.492  13.351  12.764
73105SOL    HW121154  12.418  13.310  12.720
73105SOL    HW221155  12.502  13.436  12.720
73106SOL     OW21156   4.756  14.131  14.143
73106SOL    HW121157   4.700  14.199  14.106
73106SOL    HW221158   4.792  14.170  14.223
73107SOL     OW21159  14.281  12.328   4.784
73107SOL    HW121160  14.290  12.378   4.702
73107SOL    HW221161  14.275  12.237   4.756
73108SOL     OW21162   4.288   0.202   5.917
73108SOL    HW121163   4.344   0.271   5.953
73108SOL    HW221164   4.282   0.137   5.986
73109SOL     OW21165   8.363   1.340  14.258
73109SOL    HW121166   8.331   1.256  14.289
73109SOL    HW221167   8.411   1.319  14.177
73110SOL     OW21168  12.711   8.427   8.852
73110SOL    HW121169  12.696   8.469   8.937
73110SOL    HW221170  12.801   8.396   8.857
73111SOL     OW21171  12.235   9.459  10.520
73111SOL    HW121172  12.290   9.451  10.442
73111SOL    HW221173  12.159   9.404  10.502
73112SOL     OW21174  12.528   4.462   1.516
73112SOL    HW121175  12.526   4.376   1.558
73112SOL    HW221176  12.592   4.512   1.567
73113SOL     OW21177  13.920   1.556  14.674
73113SOL    HW121178  13.876   1.502  14.609
73113SOL    HW221179  13.959   1.627  14.624
73114SOL     OW21180   1.882   5.421   0.775
73114SOL    HW121181   1.825   5.419   0.697
73114SOL    HW221182   1.850   5.496   0.825
73115SOL     OW21183   0.321  13.111   3.029
73115SOL    HW121184   0.346  13.196   2.993
73115SOL    HW221185   0.234  13.095   2.993
73116SOL     OW21186   2.533   0.585   7.057
73116SOL    HW121187   2.463   0.640   7.091
73116SOL    HW221188   2.491   0.500   7.042
73117SOL     OW21189   6.390   2.356   8.203
73117SOL    HW121190   6.400   2.445   8.236
73117SOL    HW221191   6.415   2.300   8.277
73118SOL     OW21192  13.866  12.243   5.461
73118SOL    HW121193  13.845  12.164   5.410
73118SOL    HW221194  13.950  12.222   5.502
73119SOL     OW21195  10.519   7.118  14.669
73119SOL    HW121196  10.507   7.123  14.575
73119SOL    HW221197  10.495   7.028  14.692
73120SOL     OW21198  10.681   6.796  11.174
73120SOL    HW121199  10.762   6.760  11.211
73120SOL    HW221200  10.628   6.821  11.249
73121SOL     OW21201   6.615   2.243   7.953
73121SOL    HW121202   6.579   2.204   7.873
73121SOL    HW221203   6.634   2.333   7.929
73122SOL     OW21204   3.717   1.918   8.867
73122SOL    HW121205   3.805   1.955   8.858
73122SOL    HW221206   3.690   1.898   8.778
73123SOL     OW21207   4.346   7.578   3.964
73123SOL    HW121208   4.275   7.518   3.941
73123SOL    HW221209   4.352   7.573   4.060
73124SOL     OW21210   8.658   7.697   1.786
73124SOL    HW121211   8.710   7.728   1.860
73124SOL    HW221212   8.653   7.602   1.799
73125SOL     OW21213   3.530   4.279  14.035
73125SOL    HW121214   3.487   4.334  14.100
73125SOL    HW221215   3.492   4.192  14.047
73126SOL     OW21216   3.200   2.968  14.219
73126SOL    HW121217   3.255   2.932  14.149
73126SOL    HW221218   3.157   2.892  14.258
73127SOL     OW21219   3.156   1.475  12.053
73127SOL    HW121220   3.090   1.475  12.122
73127SOL    HW221221   3.150   1.388  12.013
73128SOL     OW21222   5.391   4.935   2.341
73128SOL    HW121223   5.470   4.978   2.376
73128SOL    HW221224   5.364   4.990   2.267
73129SOL     OW21225   2.029   7.098   4.772
73129SOL    HW121226   2.054   7.108   4.680
73129SOL    HW221227   1.938   7.126   4.775
73130SOL     OW21228   4.981  13.582  12.742
73130SOL    HW121229   5.075  13.578  12.762
73130SOL    HW221230   4.940  13.524  12.806
73131SOL     OW21231   5.467   2.222   9.124
73131SOL    HW121232   5.459   2.255   9.035
73131SOL    HW221233   5.433   2.133   9.119
73132SOL     OW21234  12.110  13.679  14.604
73132SOL    HW121235  12.180  13.744  14.608
73132SOL    HW221236  12.119  13.629  14.685
73133SOL     OW21237  13.215   3.062   3.124
73133SOL    HW121238  13.136   3.058   3.070
73133SOL    HW221239  13.286   3.037   3.065
73134SOL     OW21240   9.543   5.832  13.569
73134SOL    HW121241   9.458   5.865  13.599
73134SOL    HW221242   9.521   5.760  13.510
73135SOL     OW21243   5.957   8.558   4.887
73135SOL    HW121244   5.955   8.653   4.878
73135SOL    HW221245   5.879   8.536   4.937
73136SOL     OW21246   8.759   9.759  10.507
73136SOL    HW121247   8.776   9.779  10.599
73136SOL    HW221248   8.727   9.669  10.507
73137SOL     OW21249  10.134   0.878   4.732
73137SOL    HW121250  10.135   0.957   4.785
73137SOL    HW221251  10.052   0.835   4.754
73138SOL     OW21252  13.193   7.230   1.367
73138SOL    HW121253  13.106   7.221   1.327
73138SOL    HW221254  13.241   7.286   1.306
73139SOL     OW21255   3.135  14.479  13.018
73139SOL    HW121256   3.079  14.447  12.947
73139SOL    HW221257   3.074  14.514  13.083
73140SOL     OW21258   6.007   7.464  12.846
73140SOL    HW121259   5.967   7.504  12.924
73140SOL    HW221260   6.086   7.515  12.831
73141SOL     OW21261   6.754   1.890   9.502
73141SOL    HW121262   6.735   1.984   9.507
73141SOL    HW221263   6.821   1.883   9.434
73142SOL     OW21264  12.175   5.129   7.504
73142SOL    HW121265  12.125   5.074   7.566
73142SOL    HW221266  12.230   5.067   7.457
73143SOL     OW21267   8.860   2.995   7.546
73143SOL    HW121268   8.954   3.009   7.536
73143SOL    HW221269   8.821   3.050   7.478
73144SOL     OW21270  14.500   5.877   0.918
73144SOL    HW121271  14.512   5.863   0.824
73144SOL    HW221272  14.516   5.791   0.957
73145SOL     OW21273   7.103   0.745   5.747
73145SOL    HW121274   7.161   0.688   5.797
73145SOL    HW221275   7.096   0.704   5.661
73146SOL     OW21276   4.123   8.844  12.214
73146SOL    HW121277   4.075   8.898  12.151
73146SOL    HW221278   4.192   8.902  12.247
73147SOL     OW21279   2.899   8.865   6.513
73147SOL    HW121280   2.875   8.888   6.602
73147SOL    HW221281   2.889   8.770   6.509
73148SOL     OW21282   7.966   8.327  11.306
73148SOL    HW121283   7.897   8.331  11.373
73148SOL    HW221284   8.006   8.241  11.318
73149SOL     OW21285   6.424   3.705  10.209
73149SOL    HW121286   6.482   3.768  10.250
73149SOL    HW221287   6.464   3.620  10.227
73150SOL     OW21288  13.537   8.980   2.805
73150SOL    HW121289  13.619   8.984   2.855
73150SOL    HW221290  13.520   9.072   2.781
73151SOL     OW21291   2.861   7.456   9.506
73151SOL    HW121292   2.924   7.521   9.534
73151SOL    HW221293   2.822   7.424   9.588
73152SOL     OW21294  11.041   8.903   1.260
73152SOL    HW121295  11.079   8.820   1.287
73152SOL    HW221296  11.105   8.969   1.291
73153SOL     OW21297   6.484   6.373   2.612
73153SOL    HW121298   6.551   6.434   2.642
73153SOL    HW221299   6.510   6.289   2.650
73154SOL     OW21300   8.902  13.379   5.455
73154SOL    HW121301   8.947  13.337   5.528
73154SOL    HW221302   8.925  13.471   5.461
73155SOL     OW21303   6.010  14.717   4.373
73155SOL    HW121304   6.014  14.806   4.408
73155SOL    HW221305   5.947  14.671   4.429
73156SOL     OW21306   1.618   4.580   9.797
73156SOL    HW121307   1.672   4.534   9.734
73156SOL    HW221308   1.542   4.523   9.812
73157SOL     OW21309   6.809   0.844  10.723
73157SOL    HW121310   6.787   0.888  10.642
73157SOL    HW221311   6.898   0.812  10.710
73158SOL     OW21312   4.126   3.076  14.101
73158SOL    HW121313   4.055   3.018  14.074
73158SOL    HW221314   4.150   3.123  14.021
73159SOL     OW21315  13.332  12.907   4.931
73159SOL    HW121316  13.374  12.944   5.008
73159SOL    HW221317  13.362  12.816   4.928
73160SOL     OW21318   2.448  13.124   9.498
73160SOL    HW121319   2.491  13.186   9.439
73160SOL    HW221320   2.504  13.047   9.497
73161SOL     OW21321   1.150   0.717   3.640
73161SOL    HW121322   1.176   0.754   3.556
73161SOL    HW221323   1.222   0.658   3.664
73162SOL     OW21324   8.896   0.067  12.958
73162SOL    HW121325   8.808   0.035  12.977
73162SOL    HW221326   8.883   0.149  12.912
73163SOL     OW21327  11.645   2.495   2.964
73163SOL    HW121328  11.671   2.482   2.873
73163SOL    HW221329  11.659   2.588   2.980
73164SOL     OW21330   9.799  14.203   4.797
73164SOL    HW121331   9.852  14.207   4.877
73164SOL    HW221332   9.720  14.253   4.817
73165SOL     OW21333   5.658  12.873  12.667
73165SOL    HW121334   5.629  12.889  12.757
73165SOL    HW221335   5.610  12.794  12.640
73166SOL     OW21336  11.143   2.380   5.771
73166SOL    HW121337  11.121   2.459   5.722
73166SOL    HW221338  11.222   2.346   5.728
73167SOL     OW21339  13.576   3.962   1.449
73167SOL    HW121340  13.537   3.884   1.487
73167SOL    HW221341  13.583   4.024   1.522
73168SOL     OW21342  10.107  12.274   2.802
73168SOL    HW121343  10.185  12.281   2.858
73168SOL    HW221344  10.058  12.200   2.838
73169SOL     OW21345   1.351   4.165   2.882
73169SOL    HW121346   1.280   4.103   2.867
73169SOL    HW221347   1.431   4.113   2.878
73170SOL     OW21348   2.867  12.799   4.518
73170SOL    HW121349   2.774  12.811   4.497
73170SOL    HW221350   2.885  12.866   4.584
73171SOL     OW21351   7.630   9.729   0.771
73171SOL    HW121352   7.668   9.815   0.789
73171SOL    HW221353   7.685   9.668   0.821
73172SOL     OW21354   1.179   6.813  10.218
73172SOL    HW121355   1.220   6.821  10.133
73172SOL    HW221356   1.163   6.903  10.247
73173SOL     OW21357  13.105   0.647  14.418
73173SOL    HW121358  13.169   0.711  14.450
73173SOL    HW221359  13.132   0.564  14.458
73174SOL     OW21360  14.817   2.903   5.728
73174SOL    HW121361  14.751   2.937   5.788
73174SOL    HW221362   0.014   2.887   5.784
73175SOL     OW21363   1.556  11.177   8.126
73175SOL    HW121364   1.514  11.108   8.177
73175SOL    HW221365   1.511  11.257   8.152
73176SOL     OW21366  10.272   6.377   9.985
73176SOL    HW121367  10.346   6.411   9.934
73176SOL    HW221368  10.213   6.452   9.994
73177SOL     OW21369   3.700   1.413   1.940
73177SOL    HW121370   3.628   1.444   1.994
73177SOL    HW221371   3.726   1.329   1.980
73178SOL     OW21372   0.616   5.475   1.226
73178SOL    HW121373   0.612   5.396   1.172
73178SOL    HW221374   0.549   5.463   1.293
73179SOL     OW21375   4.619   9.898   7.270
73179SOL    HW121376   4.669   9.818   7.254
73179SOL    HW221377   4.539   9.887   7.219
73180SOL     OW21378   2.213   4.118   7.622
73180SOL    HW121379   2.279   4.093   7.688
73180SOL    HW221380   2.138   4.145   7.674
73181SOL     OW21381   9.451  14.429  11.383
73181SOL    HW121382   9.382  14.411  11.320
73181SOL    HW221383   9.461  14.347  11.432
73182SOL     OW21384   9.146   4.058   3.110
73182SOL    HW121385   9.196   3.981   3.082
73182SOL    HW221386   9.166   4.124   3.043
73183SOL     OW21387   0.952   1.177   0.513
73183SOL    HW121388   0.999   1.257   0.533
73183SOL    HW221389   1.005   1.134   0.446
73184SOL     OW21390  10.651   4.959   8.608
73184SOL    HW121391  10.619   4.920   8.527
73184SOL    HW221392  10.614   4.903   8.677
73185SOL     OW21393  13.350   2.452  14.061
73185SOL    HW121394  13.408   2.484  13.992
73185SOL    HW221395  13.271   2.426  14.015
73186SOL     OW21396   8.503   3.490   0.848
73186SOL    HW121397   8.479   3.521   0.761
73186SOL    HW221398   8.448   3.413   0.862
73187SOL     OW21399   8.248   8.406   1.333
73187SOL    HW121400   8.297   8.327   1.353
73187SOL    HW221401   8.156   8.381   1.342
73188SOL     OW21402   8.144   9.648  13.370
73188SOL    HW121403   8.142   9.694  13.286
73188SOL    HW221404   8.061   9.670  13.411
73189SOL     OW21405   6.011  13.311   5.427
73189SOL    HW121406   5.958  13.338   5.352
73189SOL    HW221407   5.951  13.260   5.482
73190SOL     OW21408  14.017   4.251   8.493
73190SOL    HW121409  14.053   4.319   8.549
73190SOL    HW221410  14.083   4.182   8.492
73191SOL     OW21411  10.746   5.803   1.796
73191SOL    HW121412  10.722   5.895   1.811
73191SOL    HW221413  10.841   5.804   1.789
73192SOL     OW21414   8.054  14.860   0.187
73192SOL    HW121415   8.110  14.787   0.162
73192SOL    HW221416   7.985  14.860   0.121
73193SOL     OW21417  10.207   3.579   7.013
73193SOL    HW121418  10.302   3.574   7.012
73193SOL    HW221419  10.178   3.519   6.945
73194SOL     OW21420   3.768   5.533   3.338
73194SOL    HW121421   3.754   5.625   3.360
73194SOL    HW221422   3.841   5.533   3.276
73195SOL     OW21423   1.014   5.287   7.038
73195SOL    HW121424   0.966   5.287   7.120
73195SOL    HW221425   1.051   5.198   7.031
73196SOL     OW21426   2.192  12.856  13.001
73196SOL    HW121427   2.272  12.908  13.006
73196SOL    HW221428   2.121  12.920  13.012
73197SOL     OW21429   4.511   5.618   3.699
73197SOL    HW121430   4.440   5.564   3.733
73197SOL    HW221431   4.466   5.692   3.657
73198SOL     OW21432   2.777  11.190   3.815
73198SOL    HW121433   2.772  11.279   3.780
73198SOL    HW221434   2.694  11.179   3.863
73199SOL     OW21435   8.418   4.468   6.438
73199SOL    HW121436   8.333   4.427   6.453
73199SOL    HW221437   8.472   4.398   6.403
73200SOL     OW21438  11.600   9.270   7.873
73200SOL    HW121439  11.520   9.322   7.875
73200SOL    HW221440  11.657   9.317   7.811
73201SOL     OW21441   3.907   2.272   1.071
73201SOL    HW121442   3.961   2.282   0.993
73201SOL    HW221443   3.948   2.200   1.119
73202SOL     OW21444   0.927  11.212   1.310
73202SOL    HW121445   0.871  11.217   1.386
73202SOL    HW221446   1.013  11.242   1.340
73203SOL     OW21447  10.230   3.441  11.598
73203SOL    HW121448  10.155   3.476  11.646
73203SOL    HW221449  10.221   3.477  11.509
73204SOL     OW21450  10.930   8.588   1.980
73204SOL    HW121451  10.867   8.627   2.041
73204SOL    HW221452  10.992   8.659   1.962
73205SOL     OW21453   1.688   2.080  11.274
73205SOL    HW121454   1.611   2.085  11.331
73205SOL    HW221455   1.655   2.044  11.192
73206SOL     OW21456  12.382   2.573   6.100
73206SOL    HW121457  12.386   2.477   6.095
73206SOL    HW221458  12.320   2.598   6.032
73207SOL     OW21459  14.830   3.142   0.452
73207SOL    HW121460  14.739   3.120   0.432
73207SOL    HW221461  14.827   3.232   0.485
73208SOL     OW21462   4.499   9.105   1.110
73208SOL    HW121463   4.567   9.170   1.130
73208SOL    HW221464   4.443   9.104   1.187
73209SOL     OW21465   5.837   1.188   0.729
73209SOL    HW121466   5.780   1.262   0.709
73209SOL    HW221467   5.925   1.226   0.734
73210SOL     OW21468   6.439   3.172   3.554
73210SOL    HW121469   6.408   3.253   3.514
73210SOL    HW221470   6.451   3.111   3.481
73211SOL     OW21471   3.863   9.521   1.135
73211SOL    HW121472   3.785   9.540   1.188
73211SOL    HW221473   3.935   9.524   1.198
73212SOL     OW21474   2.083   2.011   9.003
73212SOL    HW121475   2.111   1.921   9.018
73212SOL    HW221476   2.165   2.061   9.005
73213SOL     OW21477   8.791   4.729  12.526
73213SOL    HW121478   8.706   4.733  12.569
73213SOL    HW221479   8.851   4.701  12.595
73214SOL     OW21480   4.508  12.243   7.494
73214SOL    HW121481   4.565  12.271   7.421
73214SOL    HW221482   4.473  12.159   7.466
73215SOL     OW21483  12.595   6.277   4.209
73215SOL    HW121484  12.676   6.295   4.162
73215SOL    HW221485  12.588   6.181   4.209
73216SOL     OW21486   4.486   7.157  11.118
73216SOL    HW121487   4.503   7.181  11.027
73216SOL    HW221488   4.559   7.196  11.167
73217SOL     OW21489   9.236   9.689   8.021
73217SOL    HW121490   9.240   9.684   8.117
73217SOL    HW221491   9.171   9.623   7.997
73218SOL     OW21492  10.419  12.645   8.313
73218SOL    HW121493  10.397  12.577   8.249
73218SOL    HW221494  10.380  12.613   8.395
73219SOL     OW21495   0.584  13.146   1.548
73219SOL    HW121496   0.538  13.168   1.630
73219SOL    HW221497   0.548  13.060   1.524
73220SOL     OW21498   6.391  13.592  10.080
73220SOL    HW121499   6.428  13.675  10.111
73220SOL    HW221500   6.310  13.616  10.035
73221SOL     OW21501   7.033   8.311   4.100
73221SOL    HW121502   7.040   8.226   4.056
73221SOL    HW221503   7.047   8.291   4.192
73222SOL     OW21504  10.794  12.768  10.659
73222SOL    HW121505  10.857  12.803  10.722
73222SOL    HW221506  10.784  12.837  10.594
73223SOL     OW21507  13.702  10.944  13.944
73223SOL    HW121508  13.647  11.020  13.961
73223SOL    HW221509  13.718  10.947  13.850
73224SOL     OW21510   9.328  10.221   6.025
73224SOL    HW121511   9.236  10.221   5.999
73224SOL    HW221512   9.373  10.178   5.952
73225SOL     OW21513   4.432   1.321   8.516
73225SOL    HW121514   4.363   1.343   8.579
73225SOL    HW221515   4.430   1.225   8.512
73226SOL     OW21516  10.417   2.035   3.470
73226SOL    HW121517  10.426   2.036   3.565
73226SOL    HW221518  10.501   2.000   3.439
73227SOL     OW21519   1.215   9.909   9.019
73227SOL    HW121520   1.258   9.994   9.020
73227SOL    HW221521   1.286   9.846   9.005
73228SOL     OW21522   1.737  14.243   3.297
73228SOL    HW121523   1.799  14.194   3.243
73228SOL    HW221524   1.655  14.240   3.247
73229SOL     OW21525   5.573   2.017   4.885
73229SOL    HW121526   5.505   2.076   4.854
73229SOL    HW221527   5.540   1.983   4.968
73230SOL     OW21528   5.383  12.953  10.254
73230SOL    HW121529   5.469  12.982  10.226
73230SOL    HW221530   5.330  12.953  10.174
73231SOL     OW21531   6.142   8.612   0.647
73231SOL    HW121532   6.065   8.562   0.675
73231SOL    HW221533   6.211   8.586   0.707
73232SOL     OW21534   4.707  13.015   3.397
73232SOL    HW121535   4.616  12.988   3.392
73232SOL    HW221536   4.711  13.096   3.346
73233SOL     OW21537  13.648   6.770   2.974
73233SOL    HW121538  13.598   6.721   2.909
73233SOL    HW221539  13.598   6.760   3.055
73234SOL     OW21540  10.204   2.252  13.520
73234SOL    HW121541  10.115   2.273  13.551
73234SOL    HW221542  10.191   2.215  13.433
73235SOL     OW21543   1.721   6.834  11.670
73235SOL    HW121544   1.783   6.890  11.623
73235SOL    HW221545   1.765   6.816  11.754
73236SOL     OW21546   4.210   0.499   0.551
73236SOL    HW121547   4.118   0.523   0.539
73236SOL    HW221548   4.209   0.438   0.625
73237SOL     OW21549   0.476   6.465  11.615
73237SOL    HW121550   0.446   6.377  11.591
73237SOL    HW221551   0.397   6.518  11.614
73238SOL     OW21552   5.674   0.242   4.185
73238SOL    HW121553   5.759   0.268   4.219
73238SOL    HW221554   5.683   0.148   4.167
73239SOL     OW21555   8.060   8.559  12.307
73239SOL    HW121556   8.000   8.579  12.379
73239SOL    HW221557   8.034   8.620  12.238
73240SOL     OW21558   7.282  12.045   1.338
73240SOL    HW121559   7.195  12.005   1.340
73240SOL    HW221560   7.325  12.006   1.262
73241SOL     OW21561   2.554   8.251  14.530
73241SOL    HW121562   2.548   8.346  14.529
73241SOL    HW221563   2.643   8.232  14.502
73242SOL     OW21564   8.739  10.096   8.838
73242SOL    HW121565   8.760  10.176   8.789
73242SOL    HW221566   8.726  10.126   8.928
73243SOL     OW21567   2.625   0.243   8.740
73243SOL    HW121568   2.534   0.269   8.723
73243SOL    HW221569   2.677   0.319   8.715
73244SOL     OW21570  10.064   9.769   8.014
73244SOL    HW121571   9.975   9.795   7.988
73244SOL    HW221572  10.121   9.832   7.970
73245SOL     OW21573   1.232  12.727   8.997
73245SOL    HW121574   1.140  12.754   8.991
73245SOL    HW221575   1.230  12.643   9.041
73246SOL     OW21576   8.277   3.086  13.946
73246SOL    HW121577   8.343   3.028  13.908
73246SOL    HW221578   8.202   3.030  13.964
73247SOL     OW21579   6.114  11.302  13.015
73247SOL    HW121580   6.116  11.236  12.946
73247SOL    HW221581   6.111  11.385  12.967
73248SOL     OW21582   1.405   6.987   2.020
73248SOL    HW121583   1.361   6.975   1.936
73248SOL    HW221584   1.440   7.076   2.016
73249SOL     OW21585  12.088  13.763   7.541
73249SOL    HW121586  12.002  13.795   7.565
73249SOL    HW221587  12.149  13.817   7.590
73250SOL     OW21588  13.401   9.495   0.422
73250SOL    HW121589  13.473   9.444   0.460
73250SOL    HW221590  13.366   9.546   0.494
73251SOL     OW21591   3.534   1.015   0.034
73251SOL    HW121592   3.536   0.928  14.874
73251SOL    HW221593   3.576   1.003   0.119
73252SOL     OW21594   7.651   4.406  13.082
73252SOL    HW121595   7.735   4.361  13.093
73252SOL    HW221596   7.674   4.498  13.068
73253SOL     OW21597  14.817   2.375   6.928
73253SOL    HW121598  14.837   2.317   7.001
73253SOL    HW221599   0.014   2.368   6.870
73254SOL     OW21600  14.132   0.162   3.327
73254SOL    HW121601  14.062   0.128   3.383
73254SOL    HW221602  14.125   0.110   3.247
73255SOL     OW21603   8.555   8.598  12.302
73255SOL    HW121604   8.471   8.606  12.348
73255SOL    HW221605   8.575   8.687  12.273
73256SOL     OW21606   2.908   1.304   1.895
73256SOL    HW121607   2.838   1.242   1.919
73256SOL    HW221608   2.986   1.268   1.937
73257SOL     OW21609   9.212  12.191   9.638
73257SOL    HW121610   9.238  12.101   9.618
73257SOL    HW221611   9.121  12.197   9.610
73258SOL     OW21612  10.790   4.376   3.150
73258SOL    HW121613  10.873   4.409   3.117
73258SOL    HW221614  10.801   4.281   3.153
73259SOL     OW21615   2.402   9.760   4.371
73259SOL    HW121616   2.312   9.730   4.376
73259SOL    HW221617   2.399   9.850   4.405
73260SOL     OW21618   5.484   5.509  10.542
73260SOL    HW121619   5.478   5.575  10.473
73260SOL    HW221620   5.497   5.559  10.622
73261SOL     OW21621   7.327  10.226   8.781
73261SOL    HW121622   7.351  10.294   8.845
73261SOL    HW221623   7.266  10.169   8.828
73262SOL     OW21624  11.467   8.844   8.091
73262SOL    HW121625  11.513   8.928   8.086
73262SOL    HW221626  11.375   8.866   8.081
73263SOL     OW21627   0.507  10.281  13.777
73263SOL    HW121628   0.494  10.374  13.794
73263SOL    HW221629   0.472  10.268  13.689
73264SOL     OW21630   4.448  11.673   6.242
73264SOL    HW121631   4.431  11.581   6.261
73264SOL    HW221632   4.390  11.721   6.301
73265SOL     OW21633   3.226   3.643   9.997
73265SOL    HW121634   3.229   3.587   9.920
73265SOL    HW221635   3.133   3.657  10.013
73266SOL     OW21636   6.388   0.448   9.735
73266SOL    HW121637   6.337   0.462   9.815
73266SOL    HW221638   6.426   0.361   9.746
73267SOL     OW21639   2.434   3.771  11.130
73267SOL    HW121640   2.487   3.718  11.189
73267SOL    HW221641   2.498   3.815  11.074
73268SOL     OW21642  12.767   1.631  10.197
73268SOL    HW121643  12.723   1.562  10.147
73268SOL    HW221644  12.855   1.597  10.212
73269SOL     OW21645   4.420   5.597   0.616
73269SOL    HW121646   4.471   5.516   0.613
73269SOL    HW221647   4.474   5.658   0.665
73270SOL     OW21648  12.581   7.080  10.318
73270SOL    HW121649  12.591   7.010  10.254
73270SOL    HW221650  12.582   7.160  10.266
73271SOL     OW21651   4.509   5.288   5.808
73271SOL    HW121652   4.573   5.236   5.758
73271SOL    HW221653   4.495   5.367   5.754
73272SOL     OW21654  14.015   8.191   4.650
73272SOL    HW121655  14.103   8.226   4.637
73272SOL    HW221656  14.022   8.137   4.729
73273SOL     OW21657   8.483  13.014  13.659
73273SOL    HW121658   8.435  13.082  13.611
73273SOL    HW221659   8.499  13.053  13.745
73274SOL     OW21660  11.090   0.535   6.422
73274SOL    HW121661  11.081   0.585   6.503
73274SOL    HW221662  11.086   0.601   6.353
73275SOL     OW21663   7.352   8.588   2.185
73275SOL    HW121664   7.357   8.597   2.090
73275SOL    HW221665   7.364   8.677   2.217
73276SOL     OW21666   9.841   0.609   2.859
73276SOL    HW121667   9.762   0.658   2.881
73276SOL    HW221668   9.813   0.547   2.791
73277SOL     OW21669   5.001   4.986   2.341
73277SOL    HW121670   5.026   4.964   2.251
73277SOL    HW221671   4.938   4.918   2.365
73278SOL     OW21672   2.555  14.150  10.034
73278SOL    HW121673   2.462  14.167  10.043
73278SOL    HW221674   2.594  14.237  10.020
73279SOL     OW21675   1.820   9.371   6.336
73279SOL    HW121676   1.880   9.445   6.333
73279SOL    HW221677   1.743   9.404   6.383
73280SOL     OW21678   2.468   1.606  12.857
73280SOL    HW121679   2.477   1.687  12.806
73280SOL    HW221680   2.537   1.549  12.824
73281SOL     OW21681  11.425   2.477  11.962
73281SOL    HW121682  11.519   2.468  11.970
73281SOL    HW221683  11.389   2.394  11.992
73282SOL     OW21684   4.066   0.007   0.182
73282SOL    HW121685   4.017  14.805   0.191
73282SOL    HW221686   4.158  14.861   0.194
73283SOL     OW21687   3.788  11.057   8.073
73283SOL    HW121688   3.818  11.143   8.103
73283SOL    HW221689   3.819  11.052   7.983
73284SOL     OW21690  12.756   4.277  10.420
73284SOL    HW121691  12.807   4.215  10.367
73284SOL    HW221692  12.747   4.354  10.364
73285SOL     OW21693   4.772   9.083  12.279
73285SOL    HW121694   4.830   9.012  12.307
73285SOL    HW221695   4.821   9.163  12.298
73286SOL     OW21696  14.482   2.038   0.002
73286SOL    HW121697  14.408   2.098  14.872
73286SOL    HW221698  14.498   2.035   0.096
73287SOL     OW21699   4.875   9.113  11.380
73287SOL    HW121700   4.962   9.086  11.407
73287SOL    HW221701   4.823   9.032  11.378
73288SOL     OW21702   3.326  12.423  14.248
73288SOL    HW121703   3.275  12.343  14.250
73288SOL    HW221704   3.263  12.492  14.229
73289SOL     OW21705   4.279  11.264  10.441
73289SOL    HW121706   4.200  11.307  10.475
73289SOL    HW221707   4.350  11.324  10.463
73290SOL     OW21708   8.653   8.829   6.667
73290SOL    HW121709   8.711   8.880   6.610
73290SOL    HW221710   8.660   8.739   6.633
73291SOL     OW21711  14.305   1.693  12.401
73291SOL    HW121712  14.264   1.733  12.324
73291SOL    HW221713  14.352   1.765  12.443
73292SOL     OW21714   3.597  12.700   7.565
73292SOL    HW121715   3.653  12.659   7.631
73292SOL    HW221716   3.508  12.690   7.600
73293SOL     OW21717   0.033  12.775   5.872
73293SOL    HW121718   0.067  12.686   5.878
73293SOL    HW221719  14.871  12.791   5.957
73294SOL     OW21720  13.053   5.115   1.285
73294SOL    HW121721  13.001   5.186   1.321
73294SOL    HW221722  13.029   5.112   1.192
73295SOL     OW21723   6.541   2.773   2.147
73295SOL    HW121724   6.592   2.827   2.208
73295SOL    HW221725   6.451   2.801   2.161
73296SOL     OW21726   2.363   2.530   4.508
73296SOL    HW121727   2.415   2.607   4.531
73296SOL    HW221728   2.361   2.529   4.413
73297SOL     OW21729  14.475   0.491  12.528
73297SOL    HW121730  14.434   0.404  12.536
73297SOL    HW221731  14.404   0.553  12.544
73298SOL     OW21732  10.450   0.207  14.382
73298SOL    HW121733  10.358   0.221  14.403
73298SOL    HW221734  10.493   0.289  14.407
73299SOL     OW21735  12.222   0.321  11.787
73299SOL    HW121736  12.301   0.327  11.733
73299SOL    HW221737  12.151   0.309  11.724
73300SOL     OW21738   5.594   9.310   8.446
73300SOL    HW121739   5.564   9.266   8.526
73300SOL    HW221740   5.610   9.400   8.473
73301SOL     OW21741  14.064   6.009  11.893
73301SOL    HW121742  14.140   5.959  11.863
73301SOL    HW221743  14.095   6.099  11.899
73302SOL     OW21744   1.075   3.616   8.667
73302SOL    HW121745   1.077   3.579   8.755
73302SOL    HW221746   0.982   3.619   8.644
73303SOL     OW21747   2.110   2.672   4.058
73303SOL    HW121748   2.122   2.582   4.029
73303SOL    HW221749   2.109   2.666   4.154
73304SOL     OW21750  13.041   2.751  11.255
73304SOL    HW121751  13.056   2.822  11.317
73304SOL    HW221752  12.970   2.782  11.199
73305SOL     OW21753   7.792   3.900   3.438
73305SOL    HW121754   7.804   3.918   3.532
73305SOL    HW221755   7.880   3.906   3.401
73306SOL     OW21756  12.968   0.537   7.432
73306SOL    HW121757  13.053   0.577   7.444
73306SOL    HW221758  12.942   0.510   7.520
73307SOL     OW21759  13.196   2.902  14.088
73307SOL    HW121760  13.160   2.987  14.060
73307SOL    HW221761  13.248   2.872  14.013
73308SOL     OW21762  12.175  13.527   6.333
73308SOL    HW121763  12.269  13.543   6.323
73308SOL    HW221764  12.157  13.542   6.426
73309SOL     OW21765   3.425   2.044   4.592
73309SOL    HW121766   3.520   2.036   4.588
73309SOL    HW221767   3.394   2.011   4.508
73310SOL     OW21768   8.982   1.297   2.490
73310SOL    HW121769   9.028   1.232   2.542
73310SOL    HW221770   9.011   1.281   2.400
73311SOL     OW21771  10.140   3.819   8.094
73311SOL    HW121772  10.132   3.726   8.074
73311SOL    HW221773  10.127   3.824   8.189
73312SOL     OW21774   4.589  12.164  13.458
73312SOL    HW121775   4.681  12.182  13.474
73312SOL    HW221776   4.588  12.105  13.383
73313SOL     OW21777   8.101  11.571   7.303
73313SOL    HW121778   8.027  11.513   7.320
73313SOL    HW221779   8.078  11.618   7.223
73314SOL     OW21780   3.288   3.434   7.765
73314SOL    HW121781   3.301   3.418   7.671
73314SOL    HW221782   3.319   3.355   7.808
73315SOL     OW21783   1.639  14.389   5.548
73315SOL    HW121784   1.556  14.428   5.574
73315SOL    HW221785   1.664  14.436   5.469
73316SOL     OW21786   1.069   1.799   8.739
73316SOL    HW121787   1.034   1.865   8.680
73316SOL    HW221788   1.049   1.716   8.697
73317SOL     OW21789   9.843   9.836  12.174
73317SOL    HW121790   9.748   9.833  12.186
73317SOL    HW221791   9.855   9.838  12.079
73318SOL     OW21792  13.423   8.149   6.542
73318SOL    HW121793  13.384   8.074   6.497
73318SOL    HW221794  13.437   8.119   6.632
73319SOL     OW21795   1.012  11.730   1.711
73319SOL    HW121796   1.080  11.790   1.681
73319SOL    HW221797   0.937  11.747   1.653
73320SOL     OW21798  13.393   6.737  12.923
73320SOL    HW121799  13.377   6.755  13.016
73320SOL    HW221800  13.364   6.647  12.911
73321SOL     OW21801  12.889  12.712   2.646
73321SOL    HW121802  12.860  12.804   2.648
73321SOL    HW221803  12.939  12.701   2.727
73322SOL     OW21804   8.015   7.145  11.839
73322SOL    HW121805   8.026   7.082  11.767
73322SOL    HW221806   7.936   7.115  11.885
73323SOL     OW21807   0.218  12.645  10.014
73323SOL    HW121808   0.313  12.646  10.023
73323SOL    HW221809   0.203  12.623   9.922
73324SOL     OW21810   7.294   0.020   8.745
73324SOL    HW121811   7.206   0.032   8.710
73324SOL    HW221812   7.309   0.097   8.800
73325SOL     OW21813   2.629   0.213   5.445
73325SOL    HW121814   2.578   0.185   5.369
73325SOL    HW221815   2.686   0.139   5.465
73326SOL     OW21816   6.739  13.288   7.124
73326SOL    HW121817   6.663  13.230   7.125
73326SOL    HW221818   6.749  13.316   7.215
73327SOL     OW21819  13.585  10.087   1.721
73327SOL    HW121820  13.500  10.057   1.687
73327SOL    HW221821  13.602  10.169   1.674
73328SOL     OW21822   2.810  14.657   2.057
73328SOL    HW121823   2.869  14.611   2.118
73328SOL    HW221824   2.749  14.590   2.027
73329SOL     OW21825  12.445   9.965   8.220
73329SOL    HW121826  12.540   9.963   8.229
73329SOL    HW221827  12.422  10.057   8.224
73330SOL     OW21828   4.679   3.480   6.432
73330SOL    HW121829   4.691   3.559   6.379
73330SOL    HW221830   4.601   3.499   6.485
73331SOL     OW21831   0.570   7.621   8.229
73331SOL    HW121832   0.486   7.601   8.189
73331SOL    HW221833   0.599   7.702   8.187
73332SOL     OW21834   0.260  10.817   4.477
73332SOL    HW121835   0.247  10.879   4.549
73332SOL    HW221836   0.290  10.871   4.404
73333SOL     OW21837  11.230   7.507   4.847
73333SOL    HW121838  11.294   7.440   4.823
73333SOL    HW221839  11.229   7.568   4.773
73334SOL     OW21840   8.829   5.569  12.720
73334SOL    HW121841   8.886   5.494  12.704
73334SOL    HW221842   8.877   5.644  12.685
73335SOL     OW21843  11.446   4.040   3.982
73335SOL    HW121844  11.510   3.987   3.935
73335SOL    HW221845  11.485   4.052   4.069
73336SOL     OW21846   8.041   8.811   2.899
73336SOL    HW121847   8.020   8.718   2.906
73336SOL    HW221848   8.130   8.817   2.934
73337SOL     OW21849  11.273  13.223   4.334
73337SOL    HW121850  11.346  13.179   4.290
73337SOL    HW221851  11.233  13.155   4.388
73338SOL     OW21852  11.109  12.490  12.608
73338SOL    HW121853  11.080  12.462  12.695
73338SOL    HW221854  11.129  12.408  12.562
73339SOL     OW21855   1.768   1.560   3.593
73339SOL    HW121856   1.718   1.622   3.540
73339SOL    HW221857   1.718   1.551   3.674
73340SOL     OW21858   4.352   3.693   5.327
73340SOL    HW121859   4.343   3.629   5.398
73340SOL    HW221860   4.437   3.735   5.344
73341SOL     OW21861   0.779  10.787  10.437
73341SOL    HW121862   0.702  10.798  10.382
73341SOL    HW221863   0.782  10.867  10.491
73342SOL     OW21864   7.770   5.948  11.213
73342SOL    HW121865   7.819   5.914  11.288
73342SOL    HW221866   7.755   5.872  11.157
73343SOL     OW21867   9.575   6.402   7.489
73343SOL    HW121868   9.482   6.382   7.482
73343SOL    HW221869   9.599   6.433   7.402
73344SOL     OW21870   2.485   1.436  10.654
73344SOL    HW121871   2.551   1.436  10.584
73344SOL    HW221872   2.459   1.345  10.663
73345SOL     OW21873   4.399   4.676   6.370
73345SOL    HW121874   4.371   4.585   6.371
73345SOL    HW221875   4.420   4.694   6.278
73346SOL     OW21876   1.758   8.902   2.199
73346SOL    HW121877   1.801   8.863   2.123
73346SOL    HW221878   1.729   8.827   2.251
73347SOL     OW21879  10.616   2.695  12.439
73347SOL    HW121880  10.679   2.725  12.505
73347SOL    HW221881  10.558   2.636  12.487
73348SOL     OW21882  13.509  14.156  14.527
73348SOL    HW121883  13.503  14.062  14.511
73348SOL    HW221884  13.601  14.171  14.550
73349SOL     OW21885  12.389   8.411  11.183
73349SOL    HW121886  12.362   8.346  11.247
73349SOL    HW221887  12.325   8.481  11.191
73350SOL     OW21888   7.964  14.686  11.255
73350SOL    HW121889   7.976  14.696  11.350
73350SOL    HW221890   8.031  14.623  11.229
73351SOL     OW21891  11.447  14.431   7.654
73351SOL    HW121892  11.422  14.437   7.746
73351SOL    HW221893  11.423  14.342   7.628
73352SOL     OW21894   8.239   2.082  13.079
73352SOL    HW121895   8.325   2.096  13.119
73352SOL    HW221896   8.258   2.038  12.996
73353SOL     OW21897   8.652   1.105  13.331
73353SOL    HW121898   8.745   1.128  13.340
73353SOL    HW221899   8.628   1.134  13.243
73354SOL     OW21900  13.534  10.318   1.171
73354SOL    HW121901  13.613  10.288   1.215
73354SOL    HW221902  13.527  10.411   1.195
73355SOL     OW21903   9.273   8.796  13.762
73355SOL    HW121904   9.285   8.889  13.745
73355SOL    HW221905   9.187   8.790  13.802
73356SOL     OW21906   1.239   7.588   3.658
73356SOL    HW121907   1.150   7.609   3.688
73356SOL    HW221908   1.262   7.508   3.705
73357SOL     OW21909   9.056   2.759   9.361
73357SOL    HW121910   9.004   2.687   9.397
73357SOL    HW221911   9.017   2.776   9.275
73358SOL     OW21912  10.002   6.119   4.341
73358SOL    HW121913   9.956   6.095   4.421
73358SOL    HW221914  10.057   6.044   4.321
73359SOL     OW21915   2.982  11.565   0.639
73359SOL    HW121916   3.021  11.547   0.725
73359SOL    HW221917   2.987  11.660   0.630
73360SOL     OW21918  11.122  14.465   8.125
73360SOL    HW121919  11.113  14.451   8.219
73360SOL    HW221920  11.180  14.541   8.118
73361SOL     OW21921  14.776   0.206   7.177
73361SOL    HW121922  14.727   0.194   7.258
73361SOL    HW221923  14.727   0.273   7.129
73362SOL     OW21924   9.239   8.625   5.229
73362SOL    HW121925   9.252   8.707   5.277
73362SOL    HW221926   9.186   8.572   5.288
73363SOL     OW21927   1.987  14.326   1.875
73363SOL    HW121928   1.900  14.341   1.911
73363SOL    HW221929   1.980  14.243   1.827
73364SOL     OW21930   4.609   8.319   6.328
73364SOL    HW121931   4.623   8.312   6.233
73364SOL    HW221932   4.580   8.409   6.341
73365SOL     OW21933   0.768  11.434   3.489
73365SOL    HW121934   0.797  11.372   3.556
73365SOL    HW221935   0.849  11.471   3.454
73366SOL     OW21936   1.184  13.632   6.778
73366SOL    HW121937   1.179  13.614   6.684
73366SOL    HW221938   1.189  13.546   6.819
73367SOL     OW21939  13.086  13.458  12.774
73367SOL    HW121940  13.057  13.549  12.766
73367SOL    HW221941  13.167  13.462  12.824
73368SOL     OW21942  10.260  14.243  12.045
73368SOL    HW121943  10.291  14.310  11.983
73368SOL    HW221944  10.313  14.166  12.025
73369SOL     OW21945  14.734  14.140   0.078
73369SOL    HW121946  14.676  14.120   0.151
73369SOL    HW221947  14.725  14.066   0.018
73370SOL     OW21948   1.511   9.182  10.652
73370SOL    HW121949   1.453   9.112  10.682
73370SOL    HW221950   1.461   9.262  10.665
73371SOL     OW21951   6.680   2.900   0.440
73371SOL    HW121952   6.710   2.935   0.355
73371SOL    HW221953   6.593   2.867   0.422
73372SOL     OW21954  12.072   4.506   7.280
73372SOL    HW121955  12.048   4.596   7.300
73372SOL    HW221956  12.092   4.507   7.186
73373SOL     OW21957  13.863   4.201  13.526
73373SOL    HW121958  13.824   4.187  13.612
73373SOL    HW221959  13.793   4.180  13.464
73374SOL     OW21960   8.780   2.369   0.223
73374SOL    HW121961   8.761   2.309   0.151
73374SOL    HW221962   8.862   2.411   0.198
73375SOL     OW21963   7.104   3.130   0.865
73375SOL    HW121964   7.062   3.122   0.779
73375SOL    HW221965   7.165   3.057   0.869
73376SOL     OW21966   7.733   2.433   4.012
73376SOL    HW121967   7.688   2.421   3.928
73376SOL    HW221968   7.670   2.480   4.067
73377SOL     OW21969  12.645   3.148   4.855
73377SOL    HW121970  12.716   3.200   4.817
73377SOL    HW221971  12.690   3.076   4.899
73378SOL     OW21972   4.383   3.776   7.795
73378SOL    HW121973   4.322   3.778   7.722
73378SOL    HW221974   4.426   3.862   7.792
73379SOL     OW21975   0.508  12.032   2.286
73379SOL    HW121976   0.547  11.951   2.317
73379SOL    HW221977   0.582  12.089   2.267
73380SOL     OW21978   2.668   2.723   6.988
73380SOL    HW121979   2.576   2.733   6.965
73380SOL    HW221980   2.695   2.642   6.945
73381SOL     OW21981  11.803  12.595   8.593
73381SOL    HW121982  11.892  12.576   8.622
73381SOL    HW221983  11.750  12.588   8.672
73382SOL     OW21984   8.066   0.546   8.810
73382SOL    HW121985   8.041   0.550   8.717
73382SOL    HW221986   8.026   0.466   8.843
73383SOL     OW21987   7.797   0.183  14.136
73383SOL    HW121988   7.802   0.252  14.070
73383SOL    HW221989   7.887   0.174  14.168
73384SOL     OW21990  14.312   2.527   2.386
73384SOL    HW121991  14.319   2.605   2.330
73384SOL    HW221992  14.393   2.528   2.438
73385SOL     OW21993  12.952   2.073  11.730
73385SOL    HW121994  12.943   2.098  11.822
73385SOL    HW221995  12.937   2.155  11.682
73386SOL     OW21996   2.658   1.569  11.079
73386SOL    HW121997   2.638   1.619  11.000
73386SOL    HW221998   2.580   1.516  11.095
73387SOL     OW21999   2.575   3.298   7.412
73387SOL    HW122000   2.601   3.379   7.457
73387SOL    HW222001   2.523   3.251   7.477
73388SOL     OW22002  13.368  12.999   7.902
73388SOL    HW122003  13.306  12.970   7.968
73388SOL    HW222004  13.423  13.064   7.946
73389SOL     OW22005   1.804   8.341   8.371
73389SOL    HW122006   1.802   8.420   8.316
73389SOL    HW222007   1.847   8.370   8.452
73390SOL     OW22008   5.232   9.420   2.504
73390SOL    HW122009   5.226   9.365   2.426
73390SOL    HW222010   5.158   9.481   2.497
73391SOL     OW22011   1.669  14.238   7.880
73391SOL    HW122012   1.641  14.297   7.951
73391SOL    HW222013   1.611  14.162   7.888
73392SOL     OW22014  13.593  11.757  10.341
73392SOL    HW122015  13.616  11.749  10.248
73392SOL    HW222016  13.579  11.851  10.355
73393SOL     OW22017  13.034  13.478   5.591
73393SOL    HW122018  13.009  13.482   5.683
73393SOL    HW222019  13.052  13.386   5.575
73394SOL     OW22020  10.392   4.231   9.433
73394SOL    HW122021  10.357   4.244   9.345
73394SOL    HW222022  10.393   4.319   9.471
73395SOL     OW22023  11.115  10.014  13.134
73395SOL    HW122024  11.103   9.938  13.077
73395SOL    HW222025  11.107   9.979  13.223
73396SOL     OW22026   3.421  13.752  13.950
73396SOL    HW122027   3.477  13.682  13.982
73396SOL    HW222028   3.451  13.768  13.860
73397SOL     OW22029  12.994  10.380   5.862
73397SOL    HW122030  12.978  10.292   5.898
73397SOL    HW222031  13.088  10.380   5.842
73398SOL     OW22032   0.802   6.426   4.507
73398SOL    HW122033   0.735   6.363   4.481
73398SOL    HW222034   0.758   6.511   4.505
73399SOL     OW22035   9.788   6.860   9.341
73399SOL    HW122036   9.858   6.808   9.301
73399SOL    HW222037   9.734   6.796   9.388
73400SOL     OW22038  13.132  11.660   6.109
73400SOL    HW122039  13.106  11.643   6.019
73400SOL    HW222040  13.073  11.606   6.161
73401SOL     OW22041   1.056   7.968   3.784
73401SOL    HW122042   0.998   7.981   3.710
73401SOL    HW222043   1.049   8.048   3.836
73402SOL     OW22044   7.453   1.114  10.700
73402SOL    HW122045   7.428   1.027  10.731
73402SOL    HW222046   7.427   1.115  10.608
73403SOL     OW22047   7.629   4.083  12.381
73403SOL    HW122048   7.620   3.988  12.387
73403SOL    HW222049   7.635   4.113  12.472
73404SOL     OW22050   6.788   1.455  13.529
73404SOL    HW122051   6.819   1.520  13.591
73404SOL    HW222052   6.844   1.464  13.452
73405SOL     OW22053   7.395  11.293  13.576
73405SOL    HW122054   7.401  11.363  13.641
73405SOL    HW222055   7.397  11.337  13.492
73406SOL     OW22056  11.783   3.296  13.939
73406SOL    HW122057  11.812   3.272  13.851
73406SOL    HW222058  11.794   3.391  13.943
73407SOL     OW22059   9.817   6.491  12.372
73407SOL    HW122060   9.756   6.535  12.432
73407SOL    HW222061   9.788   6.519  12.285
73408SOL     OW22062   4.334   1.053   8.554
73408SOL    HW122063   4.242   1.069   8.576
73408SOL    HW222064   4.370   1.012   8.632
73409SOL     OW22065   9.821   4.509   6.437
73409SOL    HW122066   9.823   4.462   6.354
73409SOL    HW222067   9.729   4.506   6.464
73410SOL     OW22068  12.245   9.665   6.374
73410SOL    HW122069  12.236   9.613   6.294
73410SOL    HW222070  12.291   9.607   6.436
73411SOL     OW22071   5.957   4.476  10.622
73411SOL    HW122072   6.035   4.525  10.594
73411SOL    HW222073   5.903   4.541  10.666
73412SOL     OW22074   9.042   5.617   9.915
73412SOL    HW122075   8.998   5.651   9.837
73412SOL    HW222076   8.986   5.644   9.987
73413SOL     OW22077   4.375   6.587   6.311
73413SOL    HW122078   4.347   6.609   6.222
73413SOL    HW222079   4.299   6.604   6.365
73414SOL     OW22080   9.747  10.585  14.782
73414SOL    HW122081   9.770  10.677  14.794
73414SOL    HW222082   9.817  10.537  14.827
73415SOL     OW22083  12.046   1.434   6.928
73415SOL    HW122084  11.979   1.451   6.862
73415SOL    HW222085  11.998   1.398   7.002
73416SOL     OW22086  10.991   0.323   6.773
73416SOL    HW122087  11.011   0.232   6.794
73416SOL    HW222088  11.076   0.365   6.764
73417SOL     OW22089   9.627  13.880   1.216
73417SOL    HW122090   9.559  13.947   1.228
73417SOL    HW222091   9.647  13.883   1.123
73418SOL     OW22092   5.069   1.174   6.519
73418SOL    HW122093   4.993   1.221   6.553
73418SOL    HW222094   5.118   1.149   6.598
73419SOL     OW22095   3.491  11.670   3.249
73419SOL    HW122096   3.421  11.624   3.296
73419SOL    HW222097   3.535  11.720   3.317
73420SOL     OW22098  12.207  14.707   3.085
73420SOL    HW122099  12.289  14.670   3.052
73420SOL    HW222100  12.186  14.776   3.023
73421SOL     OW22101   0.575   3.284   0.277
73421SOL    HW122102   0.634   3.358   0.286
73421SOL    HW222103   0.630   3.207   0.293
73422SOL     OW22104  14.346   3.732  10.707
73422SOL    HW122105  14.433   3.708  10.676
73422SOL    HW222106  14.304   3.771  10.630
73423SOL     OW22107   1.116   8.561  12.222
73423SOL    HW122108   1.151   8.634  12.273
73423SOL    HW222109   1.099   8.493  12.288
73424SOL     OW22110   4.646  11.093  11.816
73424SOL    HW122111   4.693  11.146  11.880
73424SOL    HW222112   4.569  11.061  11.862
73425SOL     OW22113   6.353   7.802   0.212
73425SOL    HW122114   6.401   7.865   0.158
73425SOL    HW222115   6.415   7.731   0.227
73426SOL     OW22116   7.416  13.052   6.223
73426SOL    HW122117   7.487  13.094   6.273
73426SOL    HW222118   7.336  13.090   6.258
73427SOL     OW22119  10.340   1.598  10.745
73427SOL    HW122120  10.362   1.521  10.693
73427SOL    HW222121  10.254   1.625  10.714
73428SOL     OW22122   6.969   3.366   4.293
73428SOL    HW122123   6.893   3.381   4.349
73428SOL    HW222124   7.039   3.419   4.332
73429SOL     OW22125   2.737   5.993   3.806
73429SOL    HW122126   2.770   6.007   3.717
73429SOL    HW222127   2.814   5.971   3.857
73430SOL     OW22128  14.026   3.613   9.933
73430SOL    HW122129  14.002   3.552  10.003
73430SOL    HW222130  14.026   3.559   9.854
73431SOL     OW22131   4.881   8.586   8.574
73431SOL    HW122132   4.882   8.677   8.544
73431SOL    HW222133   4.790   8.559   8.564
73432SOL     OW22134   1.320   7.886  14.877
73432SOL    HW122135   1.371   7.808  14.857
73432SOL    HW222136   1.265   7.899  14.799
73433SOL     OW22137  13.587  12.122  10.596
73433SOL    HW122138  13.660  12.122  10.534
73433SOL    HW222139  13.607  12.195  10.656
73434SOL     OW22140   3.614   2.917  11.287
73434SOL    HW122141   3.642   2.869  11.209
73434SOL    HW222142   3.544   2.864  11.324
73435SOL     OW22143  12.047   5.879   0.070
73435SOL    HW122144  12.084   5.812   0.128
73435SOL    HW222145  11.953   5.859   0.068
73436SOL     OW22146   8.838   8.112   5.011
73436SOL    HW122147   8.777   8.182   5.034
73436SOL    HW222148   8.830   8.050   5.084
73437SOL     OW22149  14.401   1.795  13.741
73437SOL    HW122150  14.465   1.833  13.681
73437SOL    HW222151  14.317   1.810  13.699
73438SOL     OW22152   4.855  13.998  10.205
73438SOL    HW122153   4.783  13.945  10.238
73438SOL    HW222154   4.928  13.936  10.196
73439SOL     OW22155   7.821  11.202   2.147
73439SOL    HW122156   7.791  11.292   2.141
73439SOL    HW222157   7.771  11.156   2.078
73440SOL     OW22158  13.736   6.280   3.171
73440SOL    HW122159  13.825   6.259   3.199
73440SOL    HW222160  13.682   6.265   3.249
73441SOL     OW22161  10.790   9.843   6.902
73441SOL    HW122162  10.777   9.753   6.931
73441SOL    HW222163  10.703   9.883   6.909
73442SOL     OW22164  10.154   7.614   1.258
73442SOL    HW122165  10.081   7.558   1.232
73442SOL    HW222166  10.157   7.683   1.192
73443SOL     OW22167  11.517   2.662   9.716
73443SOL    HW122168  11.571   2.702   9.649
73443SOL    HW222169  11.459   2.732   9.746
73444SOL     OW22170  13.681   5.619   6.163
73444SOL    HW122171  13.677   5.688   6.097
73444SOL    HW222172  13.716   5.662   6.241
73445SOL     OW22173  12.359   5.330   9.578
73445SOL    HW122174  12.313   5.388   9.638
73445SOL    HW222175  12.342   5.366   9.491
73446SOL     OW22176  12.974   1.274  11.886
73446SOL    HW122177  12.926   1.305  11.963
73446SOL    HW222178  12.908   1.269  11.817
73447SOL     OW22179   5.163   1.150  11.326
73447SOL    HW122180   5.157   1.065  11.370
73447SOL    HW222181   5.240   1.192  11.365
73448SOL     OW22182   5.217  12.352   5.491
73448SOL    HW122183   5.306  12.325   5.512
73448SOL    HW222184   5.214  12.445   5.512
73449SOL     OW22185   6.621  13.408  10.939
73449SOL    HW122186   6.704  13.426  10.984
73449SOL    HW222187   6.566  13.367  11.005
73450SOL     OW22188   4.779   0.744  13.411
73450SOL    HW122189   4.797   0.653  13.388
73450SOL    HW222190   4.862   0.776  13.449
73451SOL     OW22191   3.551  11.676   2.262
73451SOL    HW122192   3.576  11.720   2.344
73451SOL    HW222193   3.521  11.747   2.206
73452SOL     OW22194  13.060   0.826  14.123
73452SOL    HW122195  13.074   0.880  14.045
73452SOL    HW222196  13.091   0.880  14.196
73453SOL     OW22197   0.303   2.771   1.626
73453SOL    HW122198   0.392   2.783   1.592
73453SOL    HW222199   0.313   2.713   1.701
73454SOL     OW22200   5.215   7.575   4.050
73454SOL    HW122201   5.198   7.667   4.071
73454SOL    HW222202   5.291   7.553   4.104
73455SOL     OW22203   7.350  13.532   1.097
73455SOL    HW122204   7.444  13.520   1.081
73455SOL    HW222205   7.310  13.449   1.073
73456SOL     OW22206   7.798   0.554   1.472
73456SOL    HW122207   7.783   0.643   1.440
73456SOL    HW222208   7.727   0.537   1.533
73457SOL     OW22209   6.882   6.037   1.350
73457SOL    HW122210   6.855   6.120   1.389
73457SOL    HW222211   6.815   5.974   1.380
73458SOL     OW22212   1.750   5.280  13.967
73458SOL    HW122213   1.718   5.365  13.936
73458SOL    HW222214   1.772   5.295  14.059
73459SOL     OW22215   6.537   4.693   3.235
73459SOL    HW122216   6.490   4.682   3.152
73459SOL    HW222217   6.629   4.682   3.212
73460SOL     OW22218   4.163   5.023   8.840
73460SOL    HW122219   4.219   4.964   8.891
73460SOL    HW222220   4.091   4.968   8.811
73461SOL     OW22221   0.868   3.139   6.852
73461SOL    HW122222   0.954   3.103   6.875
73461SOL    HW222223   0.817   3.063   6.824
73462SOL     OW22224  12.764  10.392   8.516
73462SOL    HW122225  12.739  10.452   8.586
73462SOL    HW222226  12.739  10.437   8.435
73463SOL     OW22227   3.210   0.738  14.017
73463SOL    HW122228   3.272   0.672  14.048
73463SOL    HW222229   3.165   0.768  14.096
73464SOL     OW22230   8.430   0.066  11.003
73464SOL    HW122231   8.371   0.003  11.045
73464SOL    HW222232   8.372   0.124  10.954
73465SOL     OW22233   5.360   9.596  12.023
73465SOL    HW122234   5.377   9.690  12.009
73465SOL    HW222235   5.429   9.568  12.083
73466SOL     OW22236   6.280   0.923  10.486
73466SOL    HW122237   6.303   0.901  10.396
73466SOL    HW222238   6.361   0.911  10.535
73467SOL     OW22239   3.300   9.730   6.502
73467SOL    HW122240   3.226   9.739   6.443
73467SOL    HW222241   3.267   9.756   6.588
73468SOL     OW22242   3.464  12.286   8.183
73468SOL    HW122243   3.413  12.218   8.227
73468SOL    HW222244   3.505  12.335   8.254
73469SOL     OW22245  12.627  11.769  14.749
73469SOL    HW122246  12.671  11.843  14.707
73469SOL    HW222247  12.682  11.749  14.825
73470SOL     OW22248   1.529   0.260  10.417
73470SOL    HW122249   1.472   0.183  10.426
73470SOL    HW222250   1.614   0.224  10.391
73471SOL     OW22251   0.267   0.612   3.075
73471SOL    HW122252   0.246   0.702   3.051
73471SOL    HW222253   0.217   0.596   3.155
73472SOL     OW22254  10.408  11.317   8.399
73472SOL    HW122255  10.498  11.288   8.410
73472SOL    HW222256  10.403  11.399   8.447
73473SOL     OW22257   1.629   6.287   4.612
73473SOL    HW122258   1.661   6.345   4.681
73473SOL    HW222259   1.613   6.204   4.656
73474SOL     OW22260  10.969  13.658   9.799
73474SOL    HW122261  11.005  13.668   9.887
73474SOL    HW222262  11.026  13.593   9.757
73475SOL     OW22263   8.221   6.713  13.870
73475SOL    HW122264   8.188   6.717  13.780
73475SOL    HW222265   8.283   6.640  13.869
73476SOL     OW22266   3.082   3.842   7.788
73476SOL    HW122267   3.067   3.758   7.830
73476SOL    HW222268   3.051   3.830   7.698
73477SOL     OW22269   8.970   8.216   1.889
73477SOL    HW122270   8.981   8.296   1.940
73477SOL    HW222271   8.957   8.245   1.799
73478SOL     OW22272  12.732  12.661   6.515
73478SOL    HW122273  12.782  12.584   6.489
73478SOL    HW222274  12.756  12.675   6.607
73479SOL     OW22275   6.902   1.263   3.325
73479SOL    HW122276   6.993   1.269   3.355
73479SOL    HW222277   6.910   1.258   3.229
73480SOL     OW22278  11.037   1.998   6.932
73480SOL    HW122279  10.979   2.072   6.949
73480SOL    HW222280  11.125   2.032   6.950
73481SOL     OW22281  10.533  14.611   1.421
73481SOL    HW122282  10.467  14.551   1.455
73481SOL    HW222283  10.483  14.684   1.384
73482SOL     OW22284   9.088   1.060  14.392
73482SOL    HW122285   9.138   0.993  14.345
73482SOL    HW222286   9.128   1.064  14.478
73483SOL     OW22287   9.244   8.193   8.190
73483SOL    HW122288   9.163   8.172   8.236
73483SOL    HW222289   9.219   8.261   8.127
73484SOL     OW22290   6.047   2.055   3.734
73484SOL    HW122291   6.135   2.029   3.708
73484SOL    HW222292   6.060   2.118   3.805
73485SOL     OW22293   5.579   3.810  10.309
73485SOL    HW122294   5.618   3.875  10.368
73485SOL    HW222295   5.582   3.852  10.223
73486SOL     OW22296   7.601  12.218   1.001
73486SOL    HW122297   7.626  12.189   0.913
73486SOL    HW222298   7.683  12.226   1.048
73487SOL     OW22299   8.534   5.854  14.656
73487SOL    HW122300   8.529   5.776  14.711
73487SOL    HW222301   8.451   5.853  14.607
73488SOL     OW22302   5.914   1.386   0.000
73488SOL    HW122303   5.865   1.445  14.823
73488SOL    HW222304   5.867   1.302  14.874
73489SOL     OW22305   6.824  11.631  10.688
73489SOL    HW122306   6.868  11.671  10.613
73489SOL    HW222307   6.830  11.696  10.757
73490SOL     OW22308   4.114   3.004   0.797
73490SOL    HW122309   4.133   3.097   0.809
73490SOL    HW222310   4.189   2.970   0.747
73491SOL     OW22311   8.810   8.110   3.945
73491SOL    HW122312   8.745   8.155   3.892
73491SOL    HW222313   8.783   8.018   3.944
73492SOL     OW22314  14.015   0.562   3.799
73492SOL    HW122315  13.969   0.479   3.806
73492SOL    HW222316  14.026   0.576   3.705
73493SOL     OW22317   9.570   8.918  12.993
73493SOL    HW122318   9.562   9.003  13.036
73493SOL    HW222319   9.615   8.863  13.057
73494SOL     OW22320   6.608   1.023  14.111
73494SOL    HW122321   6.575   1.052  14.196
73494SOL    HW222322   6.600   1.100  14.055
73495SOL     OW22323   7.608   0.913  14.187
73495SOL    HW122324   7.545   0.977  14.222
73495SOL    HW222325   7.659   0.962  14.123
73496SOL     OW22326   2.737   5.091   5.805
73496SOL    HW122327   2.811   5.035   5.781
73496SOL    HW222328   2.712   5.135   5.724
73497SOL     OW22329   4.299   0.309   1.376
73497SOL    HW122330   4.341   0.355   1.303
73497SOL    HW222331   4.264   0.229   1.337
73498SOL     OW22332  13.693  11.756   6.280
73498SOL    HW122333  13.706  11.669   6.243
73498SOL    HW222334  13.618  11.746   6.339
73499SOL     OW22335   5.124   9.539   7.228
73499SOL    HW122336   5.212   9.557   7.263
73499SOL    HW222337   5.137   9.468   7.165
73500SOL     OW22338  12.837  11.260   2.463
73500SOL    HW122339  12.800  11.342   2.432
73500SOL    HW222340  12.832  11.266   2.559
73501SOL     OW22341   3.769   7.905  10.507
73501SOL    HW122342   3.693   7.942  10.460
73501SOL    HW222343   3.808   7.844  10.444
73502SOL     OW22344   4.351  13.900   9.892
73502SOL    HW122345   4.377  13.987   9.863
73502SOL    HW222346   4.402  13.840   9.836
73503SOL     OW22347  11.943   3.347   4.156
73503SOL    HW122348  11.859   3.317   4.190
73503SOL    HW222349  11.945   3.441   4.175
73504SOL     OW22350   6.252   6.395  11.728
73504SOL    HW122351   6.342   6.367  11.710
73504SOL    HW222352   6.234   6.461  11.662
73505SOL     OW22353   1.120   8.106   2.530
73505SOL    HW122354   1.177   8.055   2.587
73505SOL    HW222355   1.176   8.177   2.497
73506SOL     OW22356  13.661   0.825   1.770
73506SOL    HW122357  13.702   0.741   1.788
73506SOL    HW222358  13.582   0.826   1.825
73507SOL     OW22359   1.647   8.003  10.419
73507SOL    HW122360   1.729   7.964  10.390
73507SOL    HW222361   1.645   7.989  10.514
73508SOL     OW22362   8.529   8.064   4.411
73508SOL    HW122363   8.537   8.015   4.328
73508SOL    HW222364   8.441   8.044   4.441
73509SOL     OW22365   3.609  14.220   6.417
73509SOL    HW122366   3.647  14.147   6.369
73509SOL    HW222367   3.632  14.205   6.508
73510SOL     OW22368  14.269  11.373   5.760
73510SOL    HW122369  14.297  11.287   5.728
73510SOL    HW222370  14.298  11.434   5.693
73511SOL     OW22371  14.532  12.964  13.011
73511SOL    HW122372  14.540  13.058  13.027
73511SOL    HW222373  14.464  12.934  13.071
73512SOL     OW22374   5.731  14.844   3.551
73512SOL    HW122375   5.691   0.049   3.533
73512SOL    HW222376   5.820  14.852   3.516
73513SOL     OW22377   6.456   8.712   2.143
73513SOL    HW122378   6.443   8.804   2.122
73513SOL    HW222379   6.451   8.708   2.238
73514SOL     OW22380   0.939   8.189   6.525
73514SOL    HW122381   1.025   8.210   6.488
73514SOL    HW222382   0.896   8.135   6.458
73515SOL     OW22383   7.199  14.401   0.303
73515SOL    HW122384   7.249  14.477   0.332
73515SOL    HW222385   7.126  14.439   0.253
73516SOL     OW22386   2.641  10.711  14.654
73516SOL    HW122387   2.685  10.715  14.739
73516SOL    HW222388   2.711  10.718  14.589
73517SOL     OW22389   8.826   5.693   1.819
73517SOL    HW122390   8.781   5.636   1.882
73517SOL    HW222391   8.757   5.720   1.758
73518SOL     OW22392   9.114  13.420   3.844
73518SOL    HW122393   9.182  13.387   3.784
73518SOL    HW222394   9.092  13.344   3.899
73519SOL     OW22395  13.600   5.012   9.067
73519SOL    HW122396  13.640   4.993   9.152
73519SOL    HW222397  13.602   5.108   9.061
73520SOL     OW22398   4.406   2.081  14.262
73520SOL    HW122399   4.357   2.120  14.190
73520SOL    HW222400   4.473   2.028  14.218
73521SOL     OW22401  10.808   1.146   0.022
73521SOL    HW122402  10.722   1.139   0.065
73521SOL    HW222403  10.788   1.167  14.811
73522SOL     OW22404   7.346  13.417   7.345
73522SOL    HW122405   7.255  13.407   7.317
73522SOL    HW222406   7.378  13.493   7.297
73523SOL     OW22407   0.537   6.477   7.817
73523SOL    HW122408   0.451   6.447   7.847
73523SOL    HW222409   0.558   6.550   7.876
73524SOL     OW22410   2.477   5.482  13.425
73524SOL    HW122411   2.529   5.454  13.350
73524SOL    HW222412   2.387   5.465  13.400
73525SOL     OW22413  11.089  11.466   2.730
73525SOL    HW122414  11.013  11.432   2.777
73525SOL    HW222415  11.103  11.553   2.769
73526SOL     OW22416   1.074  11.957  10.532
73526SOL    HW122417   0.986  11.925  10.513
73526SOL    HW222418   1.127  11.925  10.459
73527SOL     OW22419   1.752  13.131  12.476
73527SOL    HW122420   1.788  13.140  12.564
73527SOL    HW222421   1.807  13.188  12.421
73528SOL     OW22422  10.078   5.534   8.271
73528SOL    HW122423  10.056   5.468   8.204
73528SOL    HW222424  10.154   5.580   8.235
73529SOL     OW22425   8.193   5.146   7.716
73529SOL    HW122426   8.258   5.196   7.669
73529SOL    HW222427   8.212   5.054   7.695
73530SOL     OW22428   0.006   6.845  14.535
73530SOL    HW122429   0.018   6.835  14.441
73530SOL    HW222430   0.068   6.913  14.561
73531SOL     OW22431   2.861  12.655  13.591
73531SOL    HW122432   2.839  12.640  13.499
73531SOL    HW222433   2.776  12.655  13.636
73532SOL     OW22434   8.279   4.892   7.682
73532SOL    HW122435   8.341   4.856   7.746
73532SOL    HW222436   8.228   4.816   7.653
73533SOL     OW22437  12.377   8.685   7.703
73533SOL    HW122438  12.462   8.643   7.688
73533SOL    HW222439  12.377   8.760   7.643
73534SOL     OW22440   9.242   5.684   5.950
73534SOL    HW122441   9.263   5.694   6.043
73534SOL    HW222442   9.171   5.746   5.935
73535SOL     OW22443   2.206   1.882  11.583
73535SOL    HW122444   2.120   1.841  11.598
73535SOL    HW222445   2.258   1.813  11.542
73536SOL     OW22446   2.631  10.532   0.004
73536SOL    HW122447   2.688  10.603   0.032
73536SOL    HW222448   2.543  10.560   0.029
73537SOL     OW22449   7.927   9.136  12.516
73537SOL    HW122450   7.916   9.213  12.460
73537SOL    HW222451   7.870   9.153  12.592
73538SOL     OW22452   1.062  14.061   5.731
73538SOL    HW122453   1.111  13.992   5.686
73538SOL    HW222454   1.121  14.093   5.798
73539SOL     OW22455   8.943   0.176   7.111
73539SOL    HW122456   8.953   0.147   7.202
73539SOL    HW222457   9.033   0.182   7.079
73540SOL     OW22458   7.222   9.971  12.173
73540SOL    HW122459   7.288   9.965  12.242
73540SOL    HW222460   7.138   9.962  12.220
73541SOL     OW22461   5.474   2.440  13.175
73541SOL    HW122462   5.438   2.369  13.228
73541SOL    HW222463   5.472   2.407  13.085
73542SOL     OW22464   2.832  11.456   8.946
73542SOL    HW122465   2.831  11.521   8.876
73542SOL    HW222466   2.763  11.485   9.006
73543SOL     OW22467   7.430   9.689  12.053
73543SOL    HW122468   7.486   9.738  12.114
73543SOL    HW222469   7.349   9.675  12.103
73544SOL     OW22470   3.797  11.030   5.223
73544SOL    HW122471   3.884  11.059   5.194
73544SOL    HW222472   3.748  11.110   5.238
73545SOL     OW22473   3.441   5.563   4.620
73545SOL    HW122474   3.458   5.619   4.695
73545SOL    HW222475   3.392   5.619   4.559
73546SOL     OW22476  11.786   3.737   2.554
73546SOL    HW122477  11.858   3.686   2.590
73546SOL    HW222478  11.768   3.804   2.619
73547SOL     OW22479   9.582   9.281  10.982
73547SOL    HW122480   9.618   9.367  11.003
73547SOL    HW222481   9.490   9.297  10.964
73548SOL     OW22482   2.753   2.306   3.400
73548SOL    HW122483   2.781   2.299   3.309
73548SOL    HW222484   2.827   2.272   3.450
73549SOL     OW22485   3.336   4.160  13.524
73549SOL    HW122486   3.410   4.125  13.574
73549SOL    HW222487   3.368   4.161  13.433
73550SOL     OW22488   4.357  10.640   1.302
73550SOL    HW122489   4.371  10.651   1.396
73550SOL    HW222490   4.348  10.546   1.289
73551SOL     OW22491   9.192   6.104   1.979
73551SOL    HW122492   9.187   6.086   1.885
73551SOL    HW222493   9.267   6.054   2.010
73552SOL     OW22494   3.542   0.678  13.129
73552SOL    HW122495   3.578   0.762  13.101
73552SOL    HW222496   3.609   0.614  13.104
73553SOL     OW22497  14.262   7.727   8.683
73553SOL    HW122498  14.211   7.717   8.602
73553SOL    HW222499  14.239   7.650   8.735
73554SOL     OW22500  10.464   6.144  14.215
73554SOL    HW122501  10.412   6.153  14.135
73554SOL    HW222502  10.415   6.081  14.268
73555SOL     OW22503  14.384   6.762  13.248
73555SOL    HW122504  14.451   6.739  13.184
73555SOL    HW222505  14.332   6.683  13.258
73556SOL     OW22506   2.594  13.224   0.067
73556SOL    HW122507   2.611  13.304   0.116
73556SOL    HW222508   2.574  13.253  14.858
73557SOL     OW22509   5.816  12.276   3.527
73557SOL    HW122510   5.893  12.318   3.565
73557SOL    HW222511   5.800  12.200   3.583
73558SOL     OW22512   0.190   0.968  13.187
73558SOL    HW122513   0.264   0.930  13.140
73558SOL    HW222514   0.136   0.893  13.211
73559SOL     OW22515  13.954   5.712   6.068
73559SOL    HW122516  13.901   5.638   6.040
73559SOL    HW222517  14.043   5.690   6.040
73560SOL     OW22518  11.774  10.207  11.338
73560SOL    HW122519  11.726  10.274  11.290
73560SOL    HW222520  11.722  10.127  11.326
73561SOL     OW22521   9.395   1.914   8.727
73561SOL    HW122522   9.420   1.957   8.646
73561SOL    HW222523   9.441   1.963   8.795
73562SOL     OW22524  14.376   7.842   8.284
73562SOL    HW122525  14.417   7.915   8.237
73562SOL    HW222526  14.407   7.850   8.374
73563SOL     OW22527  14.820   1.239   7.306
73563SOL    HW122528  14.769   1.161   7.329
73563SOL    HW222529  14.792   1.260   7.217
73564SOL     OW22530   2.590   5.060  13.159
73564SOL    HW122531   2.575   5.154  13.149
73564SOL    HW222532   2.655   5.054  13.229
73565SOL     OW22533   1.401   5.923   8.193
73565SOL    HW122534   1.429   5.900   8.282
73565SOL    HW222535   1.452   6.001   8.172
73566SOL     OW22536   3.901   1.057   0.524
73566SOL    HW122537   3.818   1.055   0.573
73566SOL    HW222538   3.952   0.985   0.561
73567SOL     OW22539  14.078   2.562  14.831
73567SOL    HW122540  14.018   2.488  14.834
73567SOL    HW222541  14.071   2.595  14.741
73568SOL     OW22542   8.786   5.125   7.522
73568SOL    HW122543   8.796   5.139   7.427
73568SOL    HW222544   8.752   5.208   7.555
73569SOL     OW22545  12.564   5.467  13.865
73569SOL    HW122546  12.655   5.494  13.860
73569SOL    HW222547  12.552   5.406  13.793
73570SOL     OW22548  14.403   7.816   5.398
73570SOL    HW122549  14.492   7.786   5.383
73570SOL    HW222550  14.348   7.741   5.375
73571SOL     OW22551  12.320   7.413  13.183
73571SOL    HW122552  12.231   7.445  13.191
73571SOL    HW222553  12.346   7.392  13.273
73572SOL     OW22554   0.575   0.680  11.372
73572SOL    HW122555   0.547   0.628  11.447
73572SOL    HW222556   0.667   0.656  11.360
73573SOL     OW22557   4.749   2.930   4.624
73573SOL    HW122558   4.684   2.875   4.667
73573SOL    HW222559   4.739   3.016   4.666
73574SOL     OW22560  13.706   5.124  10.169
73574SOL    HW122561  13.729   5.034  10.190
73574SOL    HW222562  13.613   5.121  10.150
73575SOL     OW22563   2.717  11.991   6.730
73575SOL    HW122564   2.741  12.004   6.638
73575SOL    HW222565   2.665  12.069   6.752
73576SOL     OW22566   3.511  13.440   6.936
73576SOL    HW122567   3.542  13.438   6.845
73576SOL    HW222568   3.443  13.373   6.939
73577SOL     OW22569  11.087   3.195   9.826
73577SOL    HW122570  11.036   3.261   9.778
73577SOL    HW222571  11.081   3.116   9.771
73578SOL     OW22572  14.179   7.225   1.591
73578SOL    HW122573  14.102   7.271   1.556
73578SOL    HW222574  14.192   7.152   1.531
73579SOL     OW22575   0.181  14.263   1.903
73579SOL    HW122576   0.266  14.265   1.858
73579SOL    HW222577   0.130  14.332   1.860
73580SOL     OW22578  13.069   3.110   3.356
73580SOL    HW122579  13.122   3.093   3.278
73580SOL    HW222580  13.084   3.034   3.412
73581SOL     OW22581  12.296  13.703   8.616
73581SOL    HW122582  12.297  13.795   8.589
73581SOL    HW222583  12.224  13.698   8.680
73582SOL     OW22584  11.827  11.013   8.677
73582SOL    HW122585  11.761  10.950   8.648
73582SOL    HW222586  11.777  11.084   8.718
73583SOL     OW22587   4.518   6.810  14.877
73583SOL    HW122588   4.532   6.717   0.015
73583SOL    HW222589   4.604   6.850   0.005
73584SOL     OW22590   7.894   0.834   3.723
73584SOL    HW122591   7.942   0.808   3.801
73584SOL    HW222592   7.898   0.929   3.722
73585SOL     OW22593   8.314   4.255   5.472
73585SOL    HW122594   8.399   4.272   5.431
73585SOL    HW222595   8.251   4.300   5.416
73586SOL     OW22596   0.266  13.299   7.811
73586SOL    HW122597   0.192  13.257   7.768
73586SOL    HW222598   0.259  13.274   7.903
73587SOL     OW22599   3.261   0.540   8.499
73587SOL    HW122600   3.249   0.630   8.529
73587SOL    HW222601   3.196   0.530   8.429
73588SOL     OW22602   7.011   4.021   9.310
73588SOL    HW122603   6.953   4.084   9.351
73588SOL    HW222604   7.068   3.991   9.381
73589SOL     OW22605   2.064  11.131  11.712
73589SOL    HW122606   2.158  11.138  11.701
73589SOL    HW222607   2.039  11.057  11.655
73590SOL     OW22608   3.102   9.837   3.320
73590SOL    HW122609   3.128   9.929   3.331
73590SOL    HW222610   3.009   9.837   3.344
73591SOL     OW22611   9.085  14.032   7.377
73591SOL    HW122612   9.040  14.110   7.408
73591SOL    HW222613   9.162  14.024   7.433
73592SOL     OW22614  13.942   0.613   6.708
73592SOL    HW122615  13.922   0.684   6.770
73592SOL    HW222616  13.891   0.635   6.630
73593SOL     OW22617   9.432   3.249  12.674
73593SOL    HW122618   9.417   3.155  12.687
73593SOL    HW222619   9.345   3.284  12.654
73594SOL     OW22620   8.419  13.359   9.542
73594SOL    HW122621   8.482  13.300   9.585
73594SOL    HW222622   8.379  13.408   9.614
73595SOL     OW22623  10.233   4.928   4.374
73595SOL    HW122624  10.303   4.871   4.341
73595SOL    HW222625  10.239   5.006   4.320
73596SOL     OW22626   7.385  11.619   5.782
73596SOL    HW122627   7.332  11.563   5.840
73596SOL    HW222628   7.466  11.570   5.769
73597SOL     OW22629  14.532  10.729   4.626
73597SOL    HW122630  14.499  10.655   4.678
73597SOL    HW222631  14.549  10.691   4.539
73598SOL     OW22632  12.817   3.919  12.469
73598SOL    HW122633  12.791   3.827  12.469
73598SOL    HW222634  12.901   3.921  12.515
73599SOL     OW22635   2.900   9.324   5.588
73599SOL    HW122636   2.877   9.383   5.516
73599SOL    HW222637   2.825   9.328   5.647
73600SOL     OW22638   3.161  12.620   3.576
73600SOL    HW122639   3.101  12.550   3.601
73600SOL    HW222640   3.242  12.600   3.623
73601SOL     OW22641  13.631   7.346   9.911
73601SOL    HW122642  13.579   7.286   9.858
73601SOL    HW222643  13.636   7.426   9.860
73602SOL     OW22644   5.429   0.764  10.212
73602SOL    HW122645   5.346   0.808  10.195
73602SOL    HW222646   5.481   0.827  10.261
73603SOL     OW22647   9.938   6.592   8.092
73603SOL    HW122648   9.996   6.520   8.114
73603SOL    HW222649   9.890   6.562   8.014
73604SOL     OW22650   0.444   8.429  10.826
73604SOL    HW122651   0.482   8.517  10.828
73604SOL    HW222652   0.512   8.373  10.863
73605SOL     OW22653  11.580   4.411  12.759
73605SOL    HW122654  11.650   4.470  12.733
73605SOL    HW222655  11.505   4.468  12.777
73606SOL     OW22656  11.853   8.302   0.764
73606SOL    HW122657  11.767   8.341   0.780
73606SOL    HW222658  11.841   8.249   0.685
73607SOL     OW22659   7.443   1.296   8.517
73607SOL    HW122660   7.434   1.352   8.594
73607SOL    HW222661   7.466   1.210   8.553
73608SOL     OW22662   6.142   6.425   8.770
73608SOL    HW122663   6.047   6.418   8.759
73608SOL    HW222664   6.155   6.506   8.819
73609SOL     OW22665   4.895   6.562   3.309
73609SOL    HW122666   4.972   6.618   3.322
73609SOL    HW222667   4.918   6.507   3.234
73610SOL     OW22668   8.499  14.587   5.334
73610SOL    HW122669   8.423  14.555   5.285
73610SOL    HW222670   8.569  14.526   5.313
73611SOL     OW22671   6.722   1.576   9.529
73611SOL    HW122672   6.685   1.537   9.450
73611SOL    HW222673   6.737   1.668   9.506
73612SOL     OW22674   2.761   1.142   7.718
73612SOL    HW122675   2.766   1.047   7.728
73612SOL    HW222676   2.832   1.163   7.656
73613SOL     OW22677   1.176  14.583   2.451
73613SOL    HW122678   1.193  14.610   2.361
73613SOL    HW222679   1.245  14.625   2.503
73614SOL     OW22680   0.035  13.833   6.577
73614SOL    HW122681   0.042  13.845   6.483
73614SOL    HW222682   0.089  13.756   6.595
73615SOL     OW22683   1.514   5.377  14.703
73615SOL    HW122684   1.577   5.328  14.756
73615SOL    HW222685   1.430   5.364  14.747
73616SOL     OW22686  10.615  10.934  11.414
73616SOL    HW122687  10.562  10.910  11.491
73616SOL    HW222688  10.594  10.867  11.349
73617SOL     OW22689   5.329  13.542  11.273
73617SOL    HW122690   5.400  13.575  11.218
73617SOL    HW222691   5.268  13.615  11.280
73618SOL     OW22692  12.341   1.982   8.449
73618SOL    HW122693  12.409   1.938   8.399
73618SOL    HW222694  12.302   1.913   8.502
73619SOL     OW22695   3.557   3.411   4.880
73619SOL    HW122696   3.540   3.321   4.910
73619SOL    HW222697   3.650   3.412   4.857
73620SOL     OW22698  12.318  12.312   3.124
73620SOL    HW122699  12.266  12.370   3.180
73620SOL    HW222700  12.407  12.346   3.131
73621SOL     OW22701   3.993   1.466  14.661
73621SOL    HW122702   4.029   1.393  14.611
73621SOL    HW222703   4.067   1.524  14.676
73622SOL     OW22704   6.604   0.140  10.232
73622SOL    HW122705   6.565   0.181  10.155
73622SOL    HW222706   6.608   0.210  10.297
73623SOL     OW22707  13.422  10.890   5.261
73623SOL    HW122708  13.486  10.827   5.226
73623SOL    HW222709  13.450  10.904   5.351
73624SOL     OW22710   2.718   6.767  11.984
73624SOL    HW122711   2.715   6.777  11.889
73624SOL    HW222712   2.725   6.857  12.017
73625SOL     OW22713   1.985   6.409   7.919
73625SOL    HW122714   2.061   6.421   7.977
73625SOL    HW222715   2.016   6.438   7.834
73626SOL     OW22716  13.940  11.780   7.363
73626SOL    HW122717  13.859  11.745   7.327
73626SOL    HW222718  13.913  11.827   7.442
73627SOL     OW22719   9.884   7.074  10.182
73627SOL    HW122720   9.920   7.065  10.270
73627SOL    HW222721   9.824   7.000  10.173
73628SOL     OW22722  13.797   2.337   6.713
73628SOL    HW122723  13.723   2.386   6.677
73628SOL    HW222724  13.782   2.336   6.807
73629SOL     OW22725  11.457  13.719   2.987
73629SOL    HW122726  11.514  13.753   2.918
73629SOL    HW222727  11.518  13.687   3.054
73630SOL     OW22728   0.538   8.706   5.154
73630SOL    HW122729   0.471   8.739   5.214
73630SOL    HW222730   0.570   8.784   5.108
73631SOL     OW22731  10.303   4.924  12.102
73631SOL    HW122732  10.306   4.946  12.009
73631SOL    HW222733  10.215   4.888  12.115
73632SOL     OW22734  12.373  11.137  10.699
73632SOL    HW122735  12.353  11.230  10.704
73632SOL    HW222736  12.425  11.119  10.777
73633SOL     OW22737  10.896   5.523  14.113
73633SOL    HW122738  10.976   5.513  14.165
73633SOL    HW222739  10.922   5.576  14.038
73634SOL     OW22740  13.390   3.218   6.845
73634SOL    HW122741  13.465   3.202   6.903
73634SOL    HW222742  13.395   3.148   6.780
73635SOL     OW22743   1.856  13.693   5.771
73635SOL    HW122744   1.821  13.733   5.691
73635SOL    HW222745   1.891  13.767   5.821
73636SOL     OW22746  11.108   7.895  10.431
73636SOL    HW122747  11.169   7.866  10.364
73636SOL    HW222748  11.036   7.832  10.427
73637SOL     OW22749   1.147  12.756  11.139
73637SOL    HW122750   1.191  12.819  11.196
73637SOL    HW222751   1.076  12.721  11.192
73638SOL     OW22752   7.300   7.166  11.782
73638SOL    HW122753   7.212   7.189  11.752
73638SOL    HW222754   7.345   7.250  11.793
73639SOL     OW22755   7.385  10.565  10.737
73639SOL    HW122756   7.407  10.658  10.733
73639SOL    HW222757   7.304  10.557  10.687
73640SOL     OW22758   9.574   0.877   7.203
73640SOL    HW122759   9.504   0.922   7.250
73640SOL    HW222760   9.553   0.888   7.111
73641SOL     OW22761  10.685   4.589  13.924
73641SOL    HW122762  10.664   4.499  13.901
73641SOL    HW222763  10.683   4.590  14.020
73642SOL     OW22764  10.073   2.486   5.289
73642SOL    HW122765  10.036   2.478   5.378
73642SOL    HW222766  10.019   2.552   5.247
73643SOL     OW22767  11.317   1.970  12.425
73643SOL    HW122768  11.307   1.876  12.438
73643SOL    HW222769  11.400   1.992  12.468
73644SOL     OW22770   5.647  11.241  11.648
73644SOL    HW122771   5.612  11.317  11.693
73644SOL    HW222772   5.607  11.166  11.692
73645SOL     OW22773   9.288   8.138   0.626
73645SOL    HW122774   9.255   8.222   0.658
73645SOL    HW222775   9.276   8.078   0.700
73646SOL     OW22776  11.976   9.771  14.203
73646SOL    HW122777  11.882   9.790  14.198
73646SOL    HW222778  12.002   9.758  14.112
73647SOL     OW22779  13.372  14.783  11.743
73647SOL    HW122780  13.388  14.710  11.803
73647SOL    HW222781  13.433  14.851  11.772
73648SOL     OW22782   2.784   4.360   5.835
73648SOL    HW122783   2.868   4.406   5.828
73648SOL    HW222784   2.747   4.392   5.918
73649SOL     OW22785  10.024   9.577   8.715
73649SOL    HW122786  10.077   9.565   8.635
73649SOL    HW222787  10.079   9.632   8.771
73650SOL     OW22788  14.416   5.224   4.973
73650SOL    HW122789  14.348   5.156   4.975
73650SOL    HW222790  14.445   5.232   5.063
73651SOL     OW22791  13.113   5.811   3.743
73651SOL    HW122792  13.051   5.790   3.813
73651SOL    HW222793  13.176   5.739   3.744
73652SOL     OW22794   8.522   7.523   7.672
73652SOL    HW122795   8.501   7.608   7.632
73652SOL    HW222796   8.454   7.511   7.738
73653SOL     OW22797   9.921   5.657  11.642
73653SOL    HW122798   9.899   5.720  11.574
73653SOL    HW222799   9.882   5.575  11.612
73654SOL     OW22800  14.563   1.062   5.095
73654SOL    HW122801  14.502   1.008   5.044
73654SOL    HW222802  14.532   1.152   5.082
73655SOL     OW22803   9.106  10.014  14.873
73655SOL    HW122804   9.128  10.107  14.863
73655SOL    HW222805   9.177   9.967  14.830
73656SOL     OW22806  12.925   2.997   2.714
73656SOL    HW122807  12.953   3.055   2.784
73656SOL    HW222808  13.005   2.953   2.685
73657SOL     OW22809   5.824   4.940   8.832
73657SOL    HW122810   5.781   5.022   8.809
73657SOL    HW222811   5.816   4.935   8.927
73658SOL     OW22812   3.433   5.812   0.433
73658SOL    HW122813   3.488   5.854   0.499
73658SOL    HW222814   3.469   5.724   0.424
73659SOL     OW22815  14.239   8.913   0.083
73659SOL    HW122816  14.173   8.980   0.064
73659SOL    HW222817  14.259   8.924   0.175
73660SOL     OW22818   6.312  11.302  12.413
73660SOL    HW122819   6.345  11.383  12.375
73660SOL    HW222820   6.332  11.235  12.347
73661SOL     OW22821   0.751  10.066  11.928
73661SOL    HW122822   0.834  10.108  11.907
73661SOL    HW222823   0.703  10.064  11.845
73662SOL     OW22824   1.759  11.342   3.194
73662SOL    HW122825   1.730  11.309   3.108
73662SOL    HW222826   1.689  11.315   3.254
73663SOL     OW22827  11.092  14.040  12.022
73663SOL    HW122828  11.170  14.093  12.008
73663SOL    HW222829  11.115  13.953  11.991
73664SOL     OW22830   1.441   0.126   8.319
73664SOL    HW122831   1.444   0.182   8.242
73664SOL    HW222832   1.533   0.113   8.343
73665SOL     OW22833  11.344   9.358   7.944
73665SOL    HW122834  11.272   9.320   7.993
73665SOL    HW222835  11.401   9.397   8.010
73666SOL     OW22836   6.685  12.412   4.798
73666SOL    HW122837   6.624  12.485   4.810
73666SOL    HW222838   6.628  12.337   4.777
73667SOL     OW22839   7.100   9.902   9.708
73667SOL    HW122840   7.178   9.907   9.653
73667SOL    HW222841   7.133   9.910   9.797
73668SOL     OW22842  13.138   7.447   2.597
73668SOL    HW122843  13.171   7.466   2.684
73668SOL    HW222844  13.161   7.355   2.582
73669SOL     OW22845  10.513   1.674   5.682
73669SOL    HW122846  10.580   1.616   5.646
73669SOL    HW222847  10.515   1.658   5.776
73670SOL     OW22848  11.454   7.123  14.117
73670SOL    HW122849  11.514   7.191  14.148
73670SOL    HW222850  11.503   7.079  14.048
73671SOL     OW22851   0.498   5.612   3.104
73671SOL    HW122852   0.488   5.600   3.009
73671SOL    HW222853   0.589   5.586   3.121
73672SOL     OW22854   8.383  11.192   0.604
73672SOL    HW122855   8.301  11.182   0.653
73672SOL    HW222856   8.449  11.150   0.659
73673SOL     OW22857   6.481   4.905   7.102
73673SOL    HW122858   6.562   4.923   7.054
73673SOL    HW222859   6.419   4.879   7.034
73674SOL     OW22860  12.264   5.171   0.016
73674SOL    HW122861  12.181   5.186  14.849
73674SOL    HW222862  12.331   5.197  14.833
73675SOL     OW22863  11.299   4.534   1.556
73675SOL    HW122864  11.356   4.545   1.480
73675SOL    HW222865  11.211   4.549   1.522
73676SOL     OW22866  12.677   2.777   9.762
73676SOL    HW122867  12.599   2.722   9.761
73676SOL    HW222868  12.648   2.861   9.725
73677SOL     OW22869   5.552   1.971   2.820
73677SOL    HW122870   5.635   1.956   2.775
73677SOL    HW222871   5.513   2.045   2.774
73678SOL     OW22872   3.318   3.022   2.797
73678SOL    HW122873   3.399   2.971   2.795
73678SOL    HW222874   3.257   2.969   2.847
73679SOL     OW22875   6.289   0.754   7.463
73679SOL    HW122876   6.320   0.777   7.376
73679SOL    HW222877   6.367   0.758   7.518
73680SOL     OW22878   8.858   5.956   3.391
73680SOL    HW122879   8.843   6.020   3.460
73680SOL    HW222880   8.945   5.977   3.357
73681SOL     OW22881  10.667  13.615  13.748
73681SOL    HW122882  10.625  13.577  13.670
73681SOL    HW222883  10.607  13.594  13.820
73682SOL     OW22884  14.768   4.162   2.960
73682SOL    HW122885  14.817   4.141   3.039
73682SOL    HW222886  14.835   4.196   2.899
73683SOL     OW22887   1.470  11.655   9.093
73683SOL    HW122888   1.397  11.682   9.149
73683SOL    HW222889   1.486  11.730   9.036
73684SOL     OW22890   7.245   9.921  14.851
73684SOL    HW122891   7.244  10.017  14.858
73684SOL    HW222892   7.192   9.903  14.773
73685SOL     OW22893   7.891   2.825   2.680
73685SOL    HW122894   7.819   2.870   2.635
73685SOL    HW222895   7.911   2.881   2.754
73686SOL     OW22896   8.368   0.079   6.754
73686SOL    HW122897   8.291   0.115   6.708
73686SOL    HW222898   8.431   0.151   6.754
73687SOL     OW22899  11.922  10.266   1.127
73687SOL    HW122900  11.872  10.185   1.134
73687SOL    HW222901  11.857  10.332   1.102
73688SOL     OW22902  12.118   8.225   1.696
73688SOL    HW122903  12.099   8.299   1.637
73688SOL    HW222904  12.103   8.260   1.784
73689SOL     OW22905   8.346   8.897   7.795
73689SOL    HW122906   8.393   8.831   7.743
73689SOL    HW222907   8.271   8.922   7.741
73690SOL     OW22908   7.709   3.175   1.395
73690SOL    HW122909   7.753   3.194   1.478
73690SOL    HW222910   7.706   3.080   1.391
73691SOL     OW22911   2.601  11.648  12.244
73691SOL    HW122912   2.550  11.655  12.164
73691SOL    HW222913   2.608  11.738  12.276
73692SOL     OW22914  14.718   0.052   9.701
73692SOL    HW122915  14.639   0.047   9.646
73692SOL    HW222916  14.773  14.860   9.670
73693SOL     OW22917   8.476   0.050  10.187
73693SOL    HW122918   8.404   0.002  10.146
73693SOL    HW222919   8.533  14.862  10.222
73694SOL     OW22920   4.929   3.913   9.977
73694SOL    HW122921   4.915   3.914   9.882
73694SOL    HW222922   4.894   3.997  10.007
73695SOL     OW22923   7.936  10.571  10.365
73695SOL    HW122924   7.989  10.526  10.300
73695SOL    HW222925   7.873  10.506  10.394
73696SOL     OW22926   6.291   9.007   4.309
73696SOL    HW122927   6.342   8.974   4.383
73696SOL    HW222928   6.311   9.101   4.305
73697SOL     OW22929  12.215  14.528   6.013
73697SOL    HW122930  12.309  14.538   5.998
73697SOL    HW222931  12.182  14.491   5.931
73698SOL     OW22932   3.884   1.858  12.342
73698SOL    HW122933   3.945   1.924  12.375
73698SOL    HW222934   3.836   1.829  12.420
73699SOL     OW22935  11.915   8.332   3.431
73699SOL    HW122936  11.901   8.421   3.400
73699SOL    HW222937  11.836   8.310   3.481
73700SOL     OW22938   3.396   0.474   0.355
73700SOL    HW122939   3.368   0.489   0.445
73700SOL    HW222940   3.378   0.381   0.340
73701SOL     OW22941   8.728   6.251   8.656
73701SOL    HW122942   8.815   6.253   8.694
73701SOL    HW222943   8.699   6.342   8.658
73702SOL     OW22944   0.473   1.342  11.848
73702SOL    HW122945   0.506   1.431  11.862
73702SOL    HW222946   0.520   1.289  11.912
73703SOL     OW22947   7.247  14.732   0.051
73703SOL    HW122948   7.338  14.703   0.052
73703SOL    HW222949   7.214  14.709   0.138
73704SOL     OW22950   9.250  12.998  11.125
73704SOL    HW122951   9.157  12.986  11.145
73704SOL    HW222952   9.257  13.089  11.096
73705SOL     OW22953  14.397   8.468  12.846
73705SOL    HW122954  14.309   8.473  12.807
73705SOL    HW222955  14.445   8.409  12.789
73706SOL     OW22956   7.318   8.059  11.276
73706SOL    HW122957   7.284   8.021  11.357
73706SOL    HW222958   7.370   8.134  11.305
73707SOL     OW22959   7.584   7.646   9.890
73707SOL    HW122960   7.532   7.656   9.810
73707SOL    HW222961   7.658   7.592   9.863
73708SOL     OW22962  13.484  12.708   4.040
73708SOL    HW122963  13.559  12.681   4.094
73708SOL    HW222964  13.428  12.631   4.036
73709SOL     OW22965  14.339   8.366  14.846
73709SOL    HW122966  14.254   8.348   0.005
73709SOL    HW222967  14.371   8.443   0.012
73710SOL     OW22968   0.154   0.013  13.370
73710SOL    HW122969   0.146  14.826  13.302
73710SOL    HW222970   0.171  14.844  13.451
73711SOL     OW22971   5.517   5.119  12.439
73711SOL    HW122972   5.555   5.103  12.353
73711SOL    HW222973   5.429   5.153  12.421
73712SOL     OW22974   7.747   0.149   3.230
73712SOL    HW122975   7.787   0.173   3.314
73712SOL    HW222976   7.769   0.222   3.172
73713SOL     OW22977  13.151   2.915  11.714
73713SOL    HW122978  13.113   2.947  11.632
73713SOL    HW222979  13.161   2.820  11.701
73714SOL     OW22980   2.159   2.407  10.735
73714SOL    HW122981   2.079   2.456  10.752
73714SOL    HW222982   2.230   2.467  10.758
73715SOL     OW22983   8.269   9.430   9.310
73715SOL    HW122984   8.210   9.471   9.374
73715SOL    HW222985   8.238   9.340   9.302
73716SOL     OW22986   8.745   0.272   2.614
73716SOL    HW122987   8.677   0.216   2.576
73716SOL    HW222988   8.703   0.311   2.690
73717SOL     OW22989   7.782  10.588   3.835
73717SOL    HW122990   7.867  10.622   3.809
73717SOL    HW222991   7.735  10.575   3.753
73718SOL     OW22992   3.557   7.983   8.970
73718SOL    HW122993   3.633   8.026   8.931
73718SOL    HW222994   3.498   7.967   8.897
73719SOL     OW22995   5.841   8.897  14.080
73719SOL    HW122996   5.798   8.887  13.995
73719SOL    HW222997   5.911   8.961  14.063
73720SOL     OW22998  13.088   8.691   6.367
73720SOL    HW122999  13.105   8.614   6.313
73720SOL    HW223000  13.161   8.750   6.349
73721SOL     OW23001   8.015  13.851  14.241
73721SOL    HW123002   7.949  13.856  14.173
73721SOL    HW223003   8.096  13.829  14.195
73722SOL     OW23004  10.183   7.860  14.292
73722SOL    HW123005  10.236   7.853  14.213
73722SOL    HW223006  10.211   7.942  14.332
73723SOL     OW23007   5.251   3.532   5.206
73723SOL    HW123008   5.171   3.578   5.233
73723SOL    HW223009   5.219   3.462   5.148
73724SOL     OW23010  11.656   7.907  12.737
73724SOL    HW123011  11.608   7.954  12.806
73724SOL    HW223012  11.598   7.834  12.714
73725SOL     OW23013   7.250   3.554  10.585
73725SOL    HW123014   7.175   3.520  10.633
73725SOL    HW223015   7.213   3.590  10.504
73726SOL     OW23016   3.820   4.403   9.549
73726SOL    HW123017   3.825   4.308   9.555
73726SOL    HW223018   3.857   4.424   9.463
73727SOL     OW23019   7.587  14.347   2.915
73727SOL    HW123020   7.680  14.369   2.904
73727SOL    HW223021   7.573  14.352   3.009
73728SOL     OW23022   9.449   9.394   0.930
73728SOL    HW123023   9.544   9.381   0.932
73728SOL    HW223024   9.432   9.435   0.845
73729SOL     OW23025   0.102   0.285   4.782
73729SOL    HW123026   0.046   0.344   4.731
73729SOL    HW223027   0.167   0.253   4.719
73730SOL     OW23028  11.411   4.827   0.985
73730SOL    HW123029  11.420   4.828   0.889
73730SOL    HW223030  11.396   4.735   1.006
73731SOL     OW23031   8.904   3.861   6.648
73731SOL    HW123032   8.864   3.917   6.581
73731SOL    HW223033   8.974   3.915   6.686
73732SOL     OW23034   3.953   0.545   7.370
73732SOL    HW123035   3.994   0.586   7.447
73732SOL    HW223036   3.872   0.594   7.357
73733SOL     OW23037   9.453  13.221   2.925
73733SOL    HW123038   9.448  13.157   2.995
73733SOL    HW223039   9.446  13.306   2.969
73734SOL     OW23040   8.736   4.044   9.137
73734SOL    HW123041   8.727   4.102   9.061
73734SOL    HW223042   8.815   4.075   9.182
73735SOL     OW23043  14.479   6.288  12.079
73735SOL    HW123044  14.516   6.204  12.052
73735SOL    HW223045  14.437   6.270  12.163
73736SOL     OW23046  13.054  13.961  12.197
73736SOL    HW123047  12.978  14.018  12.206
73736SOL    HW223048  13.044  13.921  12.110
73737SOL     OW23049   4.812  10.559  11.639
73737SOL    HW123050   4.747  10.619  11.600
73737SOL    HW223051   4.773  10.533  11.723
73738SOL     OW23052   6.134  10.460   0.753
73738SOL    HW123053   6.188  10.537   0.770
73738SOL    HW223054   6.179  10.414   0.682
73739SOL     OW23055  13.341   9.978   7.282
73739SOL    HW123056  13.277   9.907   7.274
73739SOL    HW223057  13.332  10.027   7.201
73740SOL     OW23058   4.481   9.806  10.011
73740SOL    HW123059   4.486   9.831  10.104
73740SOL    HW223060   4.562   9.841   9.973
73741SOL     OW23061   4.568   5.378   2.766
73741SOL    HW123062   4.649   5.339   2.733
73741SOL    HW223063   4.593   5.465   2.796
73742SOL     OW23064  11.966   0.464   7.868
73742SOL    HW123065  11.929   0.377   7.852
73742SOL    HW223066  11.965   0.507   7.782
73743SOL     OW23067  11.618   1.148   2.228
73743SOL    HW123068  11.672   1.187   2.297
73743SOL    HW223069  11.669   1.074   2.195
73744SOL     OW23070   4.130   5.308   4.311
73744SOL    HW123071   4.218   5.314   4.348
73744SOL    HW223072   4.145   5.290   4.218
73745SOL     OW23073   2.686   3.576   0.155
73745SOL    HW123074   2.656   3.530   0.077
73745SOL    HW223075   2.607   3.590   0.207
73746SOL     OW23076  13.440   3.619  12.399
73746SOL    HW123077  13.480   3.532  12.397
73746SOL    HW223078  13.410   3.630  12.490
73747SOL     OW23079  11.698   4.242  14.637
73747SOL    HW123080  11.678   4.336  14.632
73747SOL    HW223081  11.734   4.230  14.725
73748SOL     OW23082   5.825  10.717   4.711
73748SOL    HW123083   5.749  10.772   4.733
73748SOL    HW223084   5.898  10.778   4.706
73749SOL     OW23085   5.330   5.603  11.169
73749SOL    HW123086   5.411   5.652  11.152
73749SOL    HW223087   5.269   5.669  11.202
73750SOL     OW23088   5.393   6.220  10.911
73750SOL    HW123089   5.429   6.133  10.891
73750SOL    HW223090   5.467   6.267  10.949
73751SOL     OW23091   0.612   9.530  11.467
73751SOL    HW123092   0.697   9.487  11.467
73751SOL    HW223093   0.631   9.621  11.489
73752SOL     OW23094  13.219   0.985  14.687
73752SOL    HW123095  13.269   0.950  14.613
73752SOL    HW223096  13.128   0.979  14.658
73753SOL     OW23097  13.613   6.869  13.125
73753SOL    HW123098  13.699   6.879  13.083
73753SOL    HW223099  13.626   6.903  13.213
73754SOL     OW23100   2.577  14.249   9.335
73754SOL    HW123101   2.636  14.243   9.410
73754SOL    HW223102   2.575  14.161   9.298
73755SOL     OW23103   8.613   5.287   8.846
73755SOL    HW123104   8.571   5.326   8.923
73755SOL    HW223105   8.682   5.349   8.822
73756SOL     OW23106   1.475   9.144   0.588
73756SOL    HW123107   1.522   9.123   0.506
73756SOL    HW223108   1.544   9.172   0.648
73757SOL     OW23109   1.590   5.486   1.382
73757SOL    HW123110   1.651   5.419   1.413
73757SOL    HW223111   1.517   5.436   1.345
73758SOL     OW23112  10.893   1.965   9.357
73758SOL    HW123113  10.927   1.878   9.335
73758SOL    HW223114  10.971   2.019   9.367
73759SOL     OW23115   3.726  12.754   2.395
73759SOL    HW123116   3.732  12.850   2.393
73759SOL    HW223117   3.646  12.734   2.346
73760SOL     OW23118   4.729  14.649  12.997
73760SOL    HW123119   4.744  14.715  12.930
73760SOL    HW223120   4.636  14.656  13.019
73761SOL     OW23121  14.255   9.200  13.816
73761SOL    HW123122  14.297   9.124  13.855
73761SOL    HW223123  14.261   9.268  13.883
73762SOL     OW23124  13.094   7.641  13.302
73762SOL    HW123125  13.081   7.709  13.369
73762SOL    HW223126  13.029   7.660  13.235
73763SOL     OW23127   1.703  14.378  13.225
73763SOL    HW123128   1.641  14.345  13.290
73763SOL    HW223129   1.762  14.304  13.209
73764SOL     OW23130  11.201   8.569  13.566
73764SOL    HW123131  11.113   8.554  13.602
73764SOL    HW223132  11.185   8.602  13.478
73765SOL     OW23133  12.929   0.895  10.589
73765SOL    HW123134  12.940   0.962  10.522
73765SOL    HW223135  13.011   0.898  10.639
73766SOL     OW23136   9.317   1.149  13.344
73766SOL    HW123137   9.297   1.194  13.262
73766SOL    HW223138   9.401   1.106  13.327
73767SOL     OW23139   8.492   8.625   3.729
73767SOL    HW123140   8.456   8.547   3.772
73767SOL    HW223141   8.502   8.688   3.800
73768SOL     OW23142   0.686   1.932   3.574
73768SOL    HW123143   0.716   1.952   3.663
73768SOL    HW223144   0.692   1.836   3.568
73769SOL     OW23145  14.465   2.554   6.710
73769SOL    HW123146  14.373   2.557   6.734
73769SOL    HW223147  14.510   2.526   6.789
73770SOL     OW23148   4.633   8.804   1.430
73770SOL    HW123149   4.702   8.865   1.458
73770SOL    HW223150   4.681   8.729   1.393
73771SOL     OW23151   4.927  13.753  12.108
73771SOL    HW123152   4.940  13.685  12.042
73771SOL    HW223153   4.833  13.757  12.120
73772SOL     OW23154   8.958   4.205   9.706
73772SOL    HW123155   8.897   4.220   9.778
73772SOL    HW223156   8.965   4.290   9.662
73773SOL     OW23157  10.884  14.786  14.593
73773SOL    HW123158  10.956  14.849  14.586
73773SOL    HW223159  10.817  14.831  14.644
73774SOL     OW23160  10.126  10.444  12.085
73774SOL    HW123161  10.197  10.495  12.124
73774SOL    HW223162  10.169  10.366  12.050
73775SOL     OW23163   4.716   7.684   9.356
73775SOL    HW123164   4.756   7.752   9.302
73775SOL    HW223165   4.666   7.631   9.295
73776SOL     OW23166   4.584   8.974   6.189
73776SOL    HW123167   4.539   8.957   6.272
73776SOL    HW223168   4.533   9.045   6.149
73777SOL     OW23169   9.163   2.969   6.937
73777SOL    HW123170   9.193   2.910   7.006
73777SOL    HW223171   9.104   2.915   6.884
73778SOL     OW23172   8.578  13.335   6.505
73778SOL    HW123173   8.624  13.415   6.479
73778SOL    HW223174   8.604  13.321   6.596
73779SOL     OW23175   0.234   4.393   2.991
73779SOL    HW123176   0.155   4.444   3.009
73779SOL    HW223177   0.293   4.455   2.948
73780SOL     OW23178   6.070  10.846  10.309
73780SOL    HW123179   6.023  10.766  10.333
73780SOL    HW223180   6.162  10.825  10.321
73781SOL     OW23181  14.810   2.764   7.041
73781SOL    HW123182   0.008   2.776   7.094
73781SOL    HW223183  14.737   2.770   7.103
73782SOL     OW23184  11.821   3.136   6.160
73782SOL    HW123185  11.730   3.117   6.137
73782SOL    HW223186  11.872   3.093   6.091
73783SOL     OW23187   6.759  11.374   9.226
73783SOL    HW123188   6.735  11.441   9.162
73783SOL    HW223189   6.842  11.338   9.194
73784SOL     OW23190   5.378   8.513   5.189
73784SOL    HW123191   5.310   8.487   5.251
73784SOL    HW223192   5.373   8.448   5.118
73785SOL     OW23193   3.603  13.100   9.331
73785SOL    HW123194   3.687  13.122   9.371
73785SOL    HW223195   3.606  13.141   9.244
73786SOL     OW23196   2.188   1.626  12.379
73786SOL    HW123197   2.135   1.692  12.423
73786SOL    HW223198   2.126   1.575  12.328
73787SOL     OW23199   1.065   4.529  11.980
73787SOL    HW123200   1.022   4.602  12.024
73787SOL    HW223201   1.007   4.509  11.906
73788SOL     OW23202   8.691  10.818   0.326
73788SOL    HW123203   8.632  10.825   0.402
73788SOL    HW223204   8.648  10.871   0.258
73789SOL     OW23205   1.726   8.320   7.856
73789SOL    HW123206   1.694   8.297   7.769
73789SOL    HW223207   1.807   8.270   7.866
73790SOL     OW23208   0.231  13.832  10.626
73790SOL    HW123209   0.262  13.754  10.672
73790SOL    HW223210   0.189  13.885  10.694
73791SOL     OW23211   9.932   3.870   6.628
73791SOL    HW123212   9.863   3.837   6.571
73791SOL    HW223213   9.976   3.792   6.661
73792SOL     OW23214   1.186  11.220   6.668
73792SOL    HW123215   1.092  11.200   6.662
73792SOL    HW223216   1.200  11.241   6.760
73793SOL     OW23217   7.906  13.110  12.549
73793SOL    HW123218   7.858  13.083  12.627
73793SOL    HW223219   7.954  13.031  12.522
73794SOL     OW23220   4.634   4.636   0.347
73794SOL    HW123221   4.575   4.568   0.379
73794SOL    HW223222   4.576   4.698   0.302
73795SOL     OW23223  12.896   8.328   2.869
73795SOL    HW123224  12.906   8.407   2.816
73795SOL    HW223225  12.922   8.355   2.957
73796SOL     OW23226   1.845   7.840   5.873
73796SOL    HW123227   1.788   7.827   5.798
73796SOL    HW223228   1.861   7.934   5.876
73797SOL     OW23229   8.817   7.006  10.482
73797SOL    HW123230   8.891   6.981  10.427
73797SOL    HW223231   8.846   6.984  10.571
73798SOL     OW23232   6.005   8.595   7.886
73798SOL    HW123233   6.039   8.507   7.875
73798SOL    HW223234   5.911   8.583   7.900
73799SOL     OW23235   5.952   5.995   7.064
73799SOL    HW123236   5.894   6.025   7.134
73799SOL    HW223237   6.039   5.992   7.104
73800SOL     OW23238   3.415  11.024   3.831
73800SOL    HW123239   3.507  11.039   3.850
73800SOL    HW223240   3.368  11.080   3.893
73801SOL     OW23241  12.961   4.706   6.604
73801SOL    HW123242  13.002   4.774   6.657
73801SOL    HW223243  12.981   4.624   6.650
73802SOL     OW23244  12.160   4.394   5.271
73802SOL    HW123245  12.150   4.303   5.243
73802SOL    HW223246  12.125   4.396   5.360
73803SOL     OW23247   3.453   4.311  12.986
73803SOL    HW123248   3.485   4.268  12.907
73803SOL    HW223249   3.532   4.343  13.030
73804SOL     OW23250  14.185   8.388   5.213
73804SOL    HW123251  14.099   8.349   5.196
73804SOL    HW223252  14.247   8.317   5.198
73805SOL     OW23253   3.794   7.359   9.877
73805SOL    HW123254   3.882   7.325   9.894
73805SOL    HW223255   3.795   7.381   9.783
73806SOL     OW23256   0.483   3.409   1.315
73806SOL    HW123257   0.495   3.494   1.359
73806SOL    HW223258   0.568   3.391   1.275
73807SOL     OW23259   0.073  13.465   1.126
73807SOL    HW123260   0.028  13.381   1.136
73807SOL    HW223261   0.053  13.512   1.207
73808SOL     OW23262   0.008   8.778   9.980
73808SOL    HW123263  14.857   8.814  10.063
73808SOL    HW223264  14.810   8.772   9.926
73809SOL     OW23265   0.877   0.998   6.636
73809SOL    HW123266   0.945   0.930   6.628
73809SOL    HW223267   0.926   1.080   6.643
73810SOL     OW23268   9.264   2.719   1.920
73810SOL    HW123269   9.344   2.668   1.934
73810SOL    HW223270   9.200   2.655   1.890
73811SOL     OW23271   8.701   9.288   0.656
73811SOL    HW123272   8.701   9.331   0.741
73811SOL    HW223273   8.623   9.233   0.657
73812SOL     OW23274   3.987   0.281   8.517
73812SOL    HW123275   3.981   0.323   8.431
73812SOL    HW223276   4.073   0.239   8.517
73813SOL     OW23277  13.605   5.528  13.122
73813SOL    HW123278  13.676   5.477  13.161
73813SOL    HW223279  13.553   5.558  13.197
73814SOL     OW23280   6.824  14.150  10.048
73814SOL    HW123281   6.858  14.236  10.074
73814SOL    HW223282   6.888  14.088  10.081
73815SOL     OW23283   8.478   0.648   1.069
73815SOL    HW123284   8.536   0.722   1.052
73815SOL    HW223285   8.451   0.619   0.982
73816SOL     OW23286   3.183   5.614   6.772
73816SOL    HW123287   3.242   5.561   6.720
73816SOL    HW223288   3.219   5.612   6.860
73817SOL     OW23289   0.978   3.219   4.313
73817SOL    HW123290   0.946   3.146   4.259
73817SOL    HW223291   1.025   3.275   4.252
73818SOL     OW23292   0.228  12.678  12.219
73818SOL    HW123293   0.300  12.619  12.197
73818SOL    HW223294   0.217  12.732  12.140
73819SOL     OW23295  10.904   1.132  12.716
73819SOL    HW123296  10.843   1.121  12.789
73819SOL    HW223297  10.903   1.225  12.697
73820SOL     OW23298  12.390  10.320   2.435
73820SOL    HW123299  12.457  10.280   2.489
73820SOL    HW223300  12.311  10.268   2.450
73821SOL     OW23301  10.142   4.082   0.667
73821SOL    HW123302  10.212   4.053   0.608
73821SOL    HW223303  10.106   4.000   0.702
73822SOL     OW23304  12.015   2.250   3.230
73822SOL    HW123305  12.031   2.173   3.176
73822SOL    HW223306  11.952   2.302   3.179
73823SOL     OW23307   4.590  14.353   3.155
73823SOL    HW123308   4.591  14.410   3.232
73823SOL    HW223309   4.531  14.281   3.180
73824SOL     OW23310   4.570   5.728   7.239
73824SOL    HW123311   4.534   5.759   7.156
73824SOL    HW223312   4.649   5.781   7.253
73825SOL     OW23313  14.313   8.156  12.700
73825SOL    HW123314  14.318   8.076  12.648
73825SOL    HW223315  14.396   8.201  12.684
73826SOL     OW23316  10.714   1.282   4.916
73826SOL    HW123317  10.733   1.376   4.921
73826SOL    HW223318  10.634   1.276   4.863
73827SOL     OW23319   0.789   7.920   6.622
73827SOL    HW123320   0.817   7.942   6.533
73827SOL    HW223321   0.700   7.886   6.612
73828SOL     OW23322   4.232   0.811   2.378
73828SOL    HW123323   4.243   0.748   2.307
73828SOL    HW223324   4.315   0.858   2.380
73829SOL     OW23325  12.799   3.460  14.008
73829SOL    HW123326  12.845   3.379  14.030
73829SOL    HW223327  12.711   3.448  14.042
73830SOL     OW23328  11.879  10.525  11.704
73830SOL    HW123329  11.796  10.570  11.684
73830SOL    HW223330  11.875  10.509  11.798
73831SOL     OW23331   5.320   3.078  12.212
73831SOL    HW123332   5.302   3.050  12.123
73831SOL    HW223333   5.282   3.009  12.267
73832SOL     OW23334   1.227   1.608  13.474
73832SOL    HW123335   1.226   1.552  13.396
73832SOL    HW223336   1.137   1.601  13.508
73833SOL     OW23337   0.723   3.901   0.662
73833SOL    HW123338   0.782   3.883   0.735
73833SOL    HW223339   0.663   3.827   0.660
73834SOL     OW23340   6.278   4.149   1.656
73834SOL    HW123341   6.259   4.228   1.706
73834SOL    HW223342   6.241   4.078   1.708
73835SOL     OW23343  11.614  14.367   3.677
73835SOL    HW123344  11.649  14.428   3.741
73835SOL    HW223345  11.684  14.302   3.665
73836SOL     OW23346  14.045   5.914   7.934
73836SOL    HW123347  13.996   5.995   7.920
73836SOL    HW223348  14.011   5.853   7.868
73837SOL     OW23349   1.096   3.967   9.031
73837SOL    HW123350   1.090   3.929   8.943
73837SOL    HW223351   1.013   4.013   9.044
73838SOL     OW23352   0.297   3.096   6.692
73838SOL    HW123353   0.298   3.189   6.669
73838SOL    HW223354   0.228   3.088   6.758
73839SOL     OW23355  12.729   1.876   1.007
73839SOL    HW123356  12.714   1.907   1.096
73839SOL    HW223357  12.667   1.804   0.996
73840SOL     OW23358   4.053  10.174   1.254
73840SOL    HW123359   4.122  10.126   1.299
73840SOL    HW223360   4.092  10.259   1.233
73841SOL     OW23361   1.224   1.523   1.339
73841SOL    HW123362   1.136   1.521   1.301
73841SOL    HW223363   1.251   1.431   1.341
73842SOL     OW23364   5.450  11.303   0.423
73842SOL    HW123365   5.538  11.337   0.410
73842SOL    HW223366   5.434  11.247   0.347
73843SOL     OW23367  14.596  12.858  13.993
73843SOL    HW123368  14.670  12.818  13.947
73843SOL    HW223369  14.632  12.937  14.033
73844SOL     OW23370   4.694   1.552  10.537
73844SOL    HW123371   4.613   1.519  10.574
73844SOL    HW223372   4.730   1.479  10.487
73845SOL     OW23373   2.758  11.003   7.526
73845SOL    HW123374   2.702  10.937   7.566
73845SOL    HW223375   2.810  11.038   7.599
73846SOL     OW23376   1.059   6.117   2.176
73846SOL    HW123377   1.117   6.118   2.100
73846SOL    HW223378   1.113   6.150   2.248
73847SOL     OW23379   2.273  11.830   4.246
73847SOL    HW123380   2.304  11.901   4.303
73847SOL    HW223381   2.348  11.772   4.237
73848SOL     OW23382   9.002  10.415   0.931
73848SOL    HW123383   9.038  10.503   0.933
73848SOL    HW223384   9.061  10.363   0.985
73849SOL     OW23385  11.647   1.008  12.166
73849SOL    HW123386  11.732   0.979  12.197
73849SOL    HW223387  11.664   1.091  12.121
73850SOL     OW23388   3.925   1.243  13.825
73850SOL    HW123389   3.949   1.332  13.849
73850SOL    HW223390   3.835   1.233  13.857
73851SOL     OW23391  13.427   3.414   5.134
73851SOL    HW123392  13.386   3.447   5.214
73851SOL    HW223393  13.397   3.323   5.127
73852SOL     OW23394  11.484  14.684   7.099
73852SOL    HW123395  11.497  14.772   7.064
73852SOL    HW223396  11.568  14.661   7.139
73853SOL     OW23397   2.619   5.184  12.515
73853SOL    HW123398   2.568   5.263  12.504
73853SOL    HW223399   2.681   5.184  12.442
73854SOL     OW23400   7.730   0.672   5.785
73854SOL    HW123401   7.695   0.592   5.825
73854SOL    HW223402   7.776   0.716   5.856
73855SOL     OW23403  13.746   3.108  12.827
73855SOL    HW123404  13.761   3.149  12.913
73855SOL    HW223405  13.651   3.097  12.823
73856SOL     OW23406   2.958   4.728  12.643
73856SOL    HW123407   2.911   4.652  12.610
73856SOL    HW223408   3.026   4.691  12.701
73857SOL     OW23409   1.407   3.409  13.881
73857SOL    HW123410   1.375   3.355  13.809
73857SOL    HW223411   1.329   3.450  13.917
73858SOL     OW23412  11.994   5.676  13.919
73858SOL    HW123413  12.038   5.760  13.905
73858SOL    HW223414  11.904   5.691  13.892
73859SOL     OW23415  10.855   1.509   8.499
73859SOL    HW123416  10.865   1.604   8.505
73859SOL    HW223417  10.937   1.479   8.460
73860SOL     OW23418   3.078   5.715  12.279
73860SOL    HW123419   3.002   5.684  12.230
73860SOL    HW223420   3.090   5.650  12.349
73861SOL     OW23421   0.056   2.750   1.951
73861SOL    HW123422  14.874   2.682   1.923
73861SOL    HW223423   0.125   2.702   1.997
73862SOL     OW23424   2.096   7.395   5.209
73862SOL    HW123425   2.114   7.483   5.243
73862SOL    HW223426   2.087   7.408   5.114
73863SOL     OW23427   5.937   1.274  10.484
73863SOL    HW123428   5.982   1.196  10.453
73863SOL    HW223429   6.005   1.341  10.490
73864SOL     OW23430   9.645  12.204   0.926
73864SOL    HW123431   9.576  12.143   0.952
73864SOL    HW223432   9.608  12.291   0.942
73865SOL     OW23433  14.343  14.695   5.681
73865SOL    HW123434  14.436  14.674   5.694
73865SOL    HW223435  14.328  14.684   5.587
73866SOL     OW23436   9.862  12.277   1.887
73866SOL    HW123437   9.928  12.208   1.877
73866SOL    HW223438   9.904  12.342   1.943
73867SOL     OW23439  10.442  14.316  10.938
73867SOL    HW123440  10.519  14.370  10.921
73867SOL    HW223441  10.387  14.369  10.996
73868SOL     OW23442   9.735   6.507   4.907
73868SOL    HW123443   9.736   6.499   4.812
73868SOL    HW223444   9.766   6.596   4.924
73869SOL     OW23445   1.647   1.655   6.101
73869SOL    HW123446   1.585   1.727   6.103
73869SOL    HW223447   1.694   1.662   6.185
73870SOL     OW23448   5.148  12.863  12.633
73870SOL    HW123449   5.068  12.879  12.581
73870SOL    HW223450   5.125  12.791  12.691
73871SOL     OW23451   7.000   3.900   4.462
73871SOL    HW123452   7.033   3.888   4.373
73871SOL    HW223453   7.069   3.865   4.518
73872SOL     OW23454  14.444   8.548  14.104
73872SOL    HW123455  14.356   8.577  14.127
73872SOL    HW223456  14.498   8.573  14.179
73873SOL     OW23457   9.066   5.194  13.287
73873SOL    HW123458   9.125   5.198  13.362
73873SOL    HW223459   9.026   5.281  13.283
73874SOL     OW23460   4.011  11.349   2.942
73874SOL    HW123461   4.020  11.352   3.037
73874SOL    HW223462   3.972  11.434   2.919
73875SOL     OW23463  10.927   8.553  13.188
73875SOL    HW123464  10.901   8.635  13.146
73875SOL    HW223465  10.877   8.485  13.144
73876SOL     OW23466   2.494  13.089  14.313
73876SOL    HW123467   2.457  13.021  14.257
73876SOL    HW223468   2.464  13.067  14.401
73877SOL     OW23469   1.084  12.296  14.850
73877SOL    HW123470   1.029  12.358   0.019
73877SOL    HW223471   1.087  12.332  14.761
73878SOL     OW23472   0.766  13.429  10.603
73878SOL    HW123473   0.788  13.522  10.599
73878SOL    HW223474   0.834  13.391  10.659
73879SOL     OW23475   2.821   9.689   4.436
73879SOL    HW123476   2.785   9.722   4.354
73879SOL    HW223477   2.781   9.744   4.504
73880SOL     OW23478   7.556   9.003   0.056
73880SOL    HW123479   7.506   8.957  14.869
73880SOL    HW223480   7.634   9.033   0.011
73881SOL     OW23481  11.223   7.557   4.198
73881SOL    HW123482  11.205   7.500   4.274
73881SOL    HW223483  11.274   7.502   4.139
73882SOL     OW23484   7.993   4.059  11.139
73882SOL    HW123485   8.053   4.102  11.079
73882SOL    HW223486   7.978   4.123  11.209
73883SOL     OW23487   0.507   8.516   2.595
73883SOL    HW123488   0.549   8.440   2.634
73883SOL    HW223489   0.484   8.489   2.507
73884SOL     OW23490   8.597  14.714   8.493
73884SOL    HW123491   8.571  14.722   8.585
73884SOL    HW223492   8.659  14.785   8.479
73885SOL     OW23493  12.551   1.138   7.544
73885SOL    HW123494  12.573   1.207   7.608
73885SOL    HW223495  12.459   1.118   7.561
73886SOL     OW23496  13.531  14.472  12.744
73886SOL    HW123497  13.572  14.495  12.827
73886SOL    HW223498  13.584  14.516  12.678
73887SOL     OW23499   3.764   9.338  12.970
73887SOL    HW123500   3.709   9.399  13.018
73887SOL    HW223501   3.705   9.298  12.905
73888SOL     OW23502   9.457   6.303   9.535
73888SOL    HW123503   9.431   6.297   9.443
73888SOL    HW223504   9.377   6.289   9.584
73889SOL     OW23505  13.184   5.082   6.180
73889SOL    HW123506  13.183   5.103   6.274
73889SOL    HW223507  13.107   5.027   6.167
73890SOL     OW23508  13.101  14.745  13.613
73890SOL    HW123509  13.172  14.732  13.676
73890SOL    HW223510  13.023  14.756  13.667
73891SOL     OW23511   8.463   7.883   7.837
73891SOL    HW123512   8.445   7.847   7.750
73891SOL    HW223513   8.558   7.896   7.839
73892SOL     OW23514   3.168  12.930   0.469
73892SOL    HW123515   3.209  12.949   0.385
73892SOL    HW223516   3.168  12.834   0.474
73893SOL     OW23517   2.814   3.997  13.469
73893SOL    HW123518   2.902   3.979  13.437
73893SOL    HW223519   2.791   3.921  13.522
73894SOL     OW23520   7.690  11.860   7.637
73894SOL    HW123521   7.636  11.792   7.678
73894SOL    HW223522   7.728  11.908   7.710
73895SOL     OW23523   3.136   4.378   2.174
73895SOL    HW123524   3.163   4.351   2.087
73895SOL    HW223525   3.044   4.353   2.179
73896SOL     OW23526   4.239   7.159   9.248
73896SOL    HW123527   4.248   7.251   9.222
73896SOL    HW223528   4.173   7.160   9.317
73897SOL     OW23529   6.673   8.690   8.483
73897SOL    HW123530   6.736   8.739   8.535
73897SOL    HW223531   6.726   8.649   8.414
73898SOL     OW23532   5.724   5.149   0.501
73898SOL    HW123533   5.762   5.065   0.476
73898SOL    HW223534   5.763   5.168   0.587
73899SOL     OW23535  11.293  11.886  14.175
73899SOL    HW123536  11.225  11.822  14.152
73899SOL    HW223537  11.262  11.925  14.257
73900SOL     OW23538  12.788   5.031   1.584
73900SOL    HW123539  12.771   5.032   1.490
73900SOL    HW223540  12.759   4.945   1.613
73901SOL     OW23541   9.473  12.627   4.338
73901SOL    HW123542   9.484  12.564   4.410
73901SOL    HW223543   9.485  12.575   4.259
73902SOL     OW23544  11.136  14.056   1.973
73902SOL    HW123545  11.085  13.993   1.921
73902SOL    HW223546  11.115  14.033   2.063
73903SOL     OW23547   4.489   0.419   3.351
73903SOL    HW123548   4.478   0.484   3.282
73903SOL    HW223549   4.476   0.335   3.308
73904SOL     OW23550   2.606  12.479   2.721
73904SOL    HW123551   2.653  12.454   2.642
73904SOL    HW223552   2.674  12.511   2.780
73905SOL     OW23553   8.633   0.517   7.097
73905SOL    HW123554   8.594   0.442   7.141
73905SOL    HW223555   8.706   0.481   7.047
73906SOL     OW23556  10.772  10.916   6.301
73906SOL    HW123557  10.752  10.827   6.330
73906SOL    HW223558  10.687  10.953   6.280
73907SOL     OW23559  10.413   3.668  12.092
73907SOL    HW123560  10.377   3.586  12.127
73907SOL    HW223561  10.478   3.695  12.157
73908SOL     OW23562  10.552   7.965   3.827
73908SOL    HW123563  10.646   7.962   3.846
73908SOL    HW223564  10.514   7.902   3.888
73909SOL     OW23565   2.183   1.658  10.028
73909SOL    HW123566   2.203   1.717  10.101
73909SOL    HW223567   2.255   1.669   9.967
73910SOL     OW23568   9.038  11.334   1.702
73910SOL    HW123569   8.954  11.379   1.717
73910SOL    HW223570   9.099  11.377   1.762
73911SOL     OW23571   7.121  10.015   5.844
73911SOL    HW123572   7.165   9.978   5.921
73911SOL    HW223573   7.192  10.044   5.787
73912SOL     OW23574   9.295   7.926  13.476
73912SOL    HW123575   9.338   7.995  13.427
73912SOL    HW223576   9.203   7.932  13.450
73913SOL     OW23577   2.189   8.320  12.076
73913SOL    HW123578   2.194   8.225  12.086
73913SOL    HW223579   2.278   8.351  12.091
73914SOL     OW23580  12.033   7.501   1.630
73914SOL    HW123581  12.010   7.417   1.670
73914SOL    HW223582  12.120   7.486   1.592
73915SOL     OW23583   6.566  13.038   5.196
73915SOL    HW123584   6.556  12.984   5.118
73915SOL    HW223585   6.481  13.032   5.240
73916SOL     OW23586  10.908  14.597   7.967
73916SOL    HW123587  10.996  14.563   7.983
73916SOL    HW223588  10.914  14.642   7.883
73917SOL     OW23589  11.008  14.046   6.226
73917SOL    HW123590  10.917  14.072   6.240
73917SOL    HW223591  11.026  13.983   6.296
73918SOL     OW23592   1.546  11.574   2.469
73918SOL    HW123593   1.566  11.655   2.423
73918SOL    HW223594   1.452  11.576   2.483
73919SOL     OW23595   2.214   1.445   5.195
73919SOL    HW123596   2.160   1.518   5.166
73919SOL    HW223597   2.167   1.367   5.165
73920SOL     OW23598   9.099   7.674   4.918
73920SOL    HW123599   9.180   7.623   4.914
73920SOL    HW223600   9.085   7.689   5.012
73921SOL     OW23601  10.050  14.079   0.835
73921SOL    HW123602  10.011  14.095   0.921
73921SOL    HW223603  10.094  13.994   0.845
73922SOL     OW23604  12.413  14.342   3.040
73922SOL    HW123605  12.408  14.381   2.953
73922SOL    HW223606  12.360  14.262   3.034
73923SOL     OW23607   4.106  11.540   3.663
73923SOL    HW123608   4.197  11.510   3.656
73923SOL    HW223609   4.088  11.582   3.579
73924SOL     OW23610   0.479  10.821   0.365
73924SOL    HW123611   0.532  10.810   0.285
73924SOL    HW223612   0.541  10.855   0.429
73925SOL     OW23613  11.442   2.356  12.578
73925SOL    HW123614  11.482   2.352  12.665
73925SOL    HW223615  11.349   2.341  12.593
73926SOL     OW23616   7.754  11.485   7.645
73926SOL    HW123617   7.713  11.521   7.567
73926SOL    HW223618   7.706  11.404   7.663
73927SOL     OW23619   3.489   7.751   6.044
73927SOL    HW123620   3.557   7.793   5.991
73927SOL    HW223621   3.534   7.725   6.124
73928SOL     OW23622   4.115   3.407   5.867
73928SOL    HW123623   4.093   3.315   5.853
73928SOL    HW223624   4.115   3.444   5.778
73929SOL     OW23625   8.709  14.867  12.414
73929SOL    HW123626   8.659   0.034  12.347
73929SOL    HW223627   8.796  14.857  12.378
73930SOL     OW23628   6.579   0.085  14.604
73930SOL    HW123629   6.638   0.018  14.638
73930SOL    HW223630   6.561   0.057  14.514
73931SOL     OW23631  10.113   2.027   7.183
73931SOL    HW123632  10.118   2.087   7.258
73931SOL    HW223633  10.022   2.000   7.180
73932SOL     OW23634   1.846   0.228   9.479
73932SOL    HW123635   1.888   0.238   9.564
73932SOL    HW223636   1.753   0.218   9.499
73933SOL     OW23637  11.525   9.512  11.231
73933SOL    HW123638  11.599   9.465  11.270
73933SOL    HW223639  11.468   9.444  11.195
73934SOL     OW23640   5.083  12.995   9.494
73934SOL    HW123641   5.053  12.908   9.467
73934SOL    HW223642   5.007  13.034   9.537
73935SOL     OW23643   4.526   6.498   0.334
73935SOL    HW123644   4.582   6.441   0.387
73935SOL    HW223645   4.439   6.458   0.338
73936SOL     OW23646   9.947   5.754  12.821
73936SOL    HW123647  10.038   5.742  12.851
73936SOL    HW223648   9.952   5.826  12.759
73937SOL     OW23649   6.306  11.385   9.515
73937SOL    HW123650   6.390  11.388   9.469
73937SOL    HW223651   6.323  11.328   9.590
73938SOL     OW23652   4.550   5.130   7.416
73938SOL    HW123653   4.540   5.219   7.449
73938SOL    HW223654   4.468   5.112   7.370
73939SOL     OW23655  14.668   2.618   5.809
73939SOL    HW123656  14.701   2.610   5.719
73939SOL    HW223657  14.575   2.638   5.798
73940SOL     OW23658   7.290   3.700   3.650
73940SOL    HW123659   7.241   3.644   3.710
73940SOL    HW223660   7.382   3.683   3.671
73941SOL     OW23661  13.615   6.271  13.151
73941SOL    HW123662  13.524   6.260  13.124
73941SOL    HW223663  13.649   6.340  13.094
73942SOL     OW23664   0.726  13.773   5.663
73942SOL    HW123665   0.748  13.756   5.571
73942SOL    HW223666   0.632  13.751   5.669
73943SOL     OW23667  11.475   9.099   5.410
73943SOL    HW123668  11.413   9.036   5.374
73943SOL    HW223669  11.423   9.155   5.468
73944SOL     OW23670  10.141   1.089  12.105
73944SOL    HW123671  10.164   1.001  12.133
73944SOL    HW223672  10.053   1.104  12.140
73945SOL     OW23673   5.040  11.440   2.911
73945SOL    HW123674   4.983  11.498   2.860
73945SOL    HW223675   5.066  11.372   2.849
73946SOL     OW23676   8.632  11.070  11.436
73946SOL    HW123677   8.670  11.027  11.359
73946SOL    HW223678   8.539  11.048  11.432
73947SOL     OW23679   9.096   3.938   9.326
73947SOL    HW123680   9.026   3.962   9.387
73947SOL    HW223681   9.131   3.856   9.360
73948SOL     OW23682   1.132   8.544   0.523
73948SOL    HW123683   1.132   8.449   0.512
73948SOL    HW223684   1.084   8.559   0.604
73949SOL     OW23685  11.402  11.359  13.111
73949SOL    HW123686  11.348  11.343  13.034
73949SOL    HW223687  11.450  11.439  13.090
73950SOL     OW23688   6.091   2.477   1.369
73950SOL    HW123689   6.167   2.536   1.379
73950SOL    HW223690   6.018   2.536   1.350
73951SOL     OW23691   7.866   6.412   4.120
73951SOL    HW123692   7.957   6.390   4.139
73951SOL    HW223693   7.829   6.331   4.086
73952SOL     OW23694  11.247   5.301   4.127
73952SOL    HW123695  11.340   5.323   4.121
73952SOL    HW223696  11.243   5.229   4.190
73953SOL     OW23697  11.680  10.507  10.845
73953SOL    HW123698  11.614  10.478  10.909
73953SOL    HW223699  11.656  10.461  10.764
73954SOL     OW23700   6.333  10.562  11.115
73954SOL    HW123701   6.426  10.560  11.092
73954SOL    HW223702   6.305  10.651  11.092
73955SOL     OW23703   7.127   8.609  10.244
73955SOL    HW123704   7.149   8.655  10.326
73955SOL    HW223705   7.143   8.674  10.176
73956SOL     OW23706   3.496  14.307   0.201
73956SOL    HW123707   3.505  14.346   0.114
73956SOL    HW223708   3.402  14.306   0.217
73957SOL     OW23709   3.854  10.571   5.093
73957SOL    HW123710   3.788  10.637   5.072
73957SOL    HW223711   3.816  10.488   5.062
73958SOL     OW23712  12.996  12.112  10.998
73958SOL    HW123713  13.087  12.083  10.991
73958SOL    HW223714  12.998  12.204  10.973
73959SOL     OW23715   4.230   0.691  13.648
73959SOL    HW123716   4.208   0.714  13.738
73959SOL    HW223717   4.194   0.603  13.636
73960SOL     OW23718  13.516   7.176   9.724
73960SOL    HW123719  13.433   7.152   9.683
73960SOL    HW223720  13.583   7.138   9.667
73961SOL     OW23721   8.230   3.493  11.787
73961SOL    HW123722   8.274   3.561  11.839
73961SOL    HW223723   8.154   3.468  11.840
73962SOL     OW23724   4.446   9.216  14.788
73962SOL    HW123725   4.406   9.301  14.807
73962SOL    HW223726   4.434   9.204  14.694
73963SOL     OW23727  14.684   4.293   8.915
73963SOL    HW123728  14.745   4.305   8.842
73963SOL    HW223729  14.639   4.211   8.895
73964SOL     OW23730  11.827   1.557   8.669
73964SOL    HW123731  11.804   1.464   8.670
73964SOL    HW223732  11.792   1.590   8.587
73965SOL     OW23733   4.253   0.122   9.840
73965SOL    HW123734   4.203   0.138   9.920
73965SOL    HW223735   4.343   0.147   9.863
73966SOL     OW23736   3.545   1.025  10.252
73966SOL    HW123737   3.453   1.006  10.235
73966SOL    HW223738   3.575   0.951  10.304
73967SOL     OW23739   7.847   7.297  14.447
73967SOL    HW123740   7.820   7.350  14.521
73967SOL    HW223741   7.853   7.208  14.481
73968SOL     OW23742  11.335   8.089   4.009
73968SOL    HW123743  11.332   8.089   4.105
73968SOL    HW223744  11.261   8.035   3.983
73969SOL     OW23745   2.441   5.152   6.704
73969SOL    HW123746   2.470   5.170   6.615
73969SOL    HW223747   2.505   5.197   6.760
73970SOL     OW23748   1.976   5.931   8.005
73970SOL    HW123749   2.002   5.939   8.096
73970SOL    HW223750   1.980   5.838   7.986
73971SOL     OW23751  11.484   7.499  13.740
73971SOL    HW123752  11.545   7.462  13.676
73971SOL    HW223753  11.441   7.423  13.778
73972SOL     OW23754  12.250   7.879  14.840
73972SOL    HW123755  12.268   7.799  14.791
73972SOL    HW223756  12.332   7.900   0.005
73973SOL     OW23757   3.329   4.384   5.759
73973SOL    HW123758   3.420   4.375   5.730
73973SOL    HW223759   3.278   4.375   5.678
73974SOL     OW23760   9.920  11.941   2.964
73974SOL    HW123761   9.953  11.945   2.874
73974SOL    HW223762   9.893  12.030   2.984
73975SOL     OW23763  14.335   0.179   4.692
73975SOL    HW123764  14.283   0.101   4.672
73975SOL    HW223765  14.389   0.154   4.767
73976SOL     OW23766  12.692   8.327   9.416
73976SOL    HW123767  12.716   8.287   9.333
73976SOL    HW223768  12.748   8.405   9.423
73977SOL     OW23769  10.254  12.675   9.594
73977SOL    HW123770  10.238  12.643   9.682
73977SOL    HW223771  10.349  12.672   9.584
73978SOL     OW23772   8.273  10.951   4.220
73978SOL    HW123773   8.289  11.035   4.178
73978SOL    HW223774   8.225  10.973   4.299
73979SOL     OW23775  11.308  10.124   6.006
73979SOL    HW123776  11.266  10.192   5.953
73979SOL    HW223777  11.236  10.068   6.035
73980SOL     OW23778   2.358   9.164  13.998
73980SOL    HW123779   2.313   9.097  13.946
73980SOL    HW223780   2.373   9.122  14.083
73981SOL     OW23781   8.840   8.478   3.028
73981SOL    HW123782   8.819   8.561   3.072
73981SOL    HW223783   8.790   8.412   3.076
73982SOL     OW23784   8.262   8.861   1.563
73982SOL    HW123785   8.261   8.766   1.564
73982SOL    HW223786   8.306   8.884   1.481
73983SOL     OW23787   6.478  13.953   5.683
73983SOL    HW123788   6.437  14.028   5.726
73983SOL    HW223789   6.478  13.976   5.590
73984SOL     OW23790   6.734   8.206  14.518
73984SOL    HW123791   6.740   8.127  14.573
73984SOL    HW223792   6.791   8.187  14.444
73985SOL     OW23793  10.940   4.498  11.060
73985SOL    HW123794  11.020   4.528  11.102
73985SOL    HW223795  10.969   4.463  10.976
73986SOL     OW23796   0.144   6.984   1.859
73986SOL    HW123797   0.163   7.049   1.791
73986SOL    HW223798   0.126   7.035   1.937
73987SOL     OW23799   5.840   0.865  12.047
73987SOL    HW123800   5.851   0.782  12.094
73987SOL    HW223801   5.926   0.906  12.050
73988SOL     OW23802  11.489   8.552  14.306
73988SOL    HW123803  11.417   8.573  14.247
73988SOL    HW223804  11.500   8.631  14.359
73989SOL     OW23805   1.086   2.302   1.828
73989SOL    HW123806   0.994   2.319   1.848
73989SOL    HW223807   1.117   2.384   1.789
73990SOL     OW23808   5.978  14.769   5.087
73990SOL    HW123809   5.965  14.787   4.994
73990SOL    HW223810   5.951  14.850   5.132
73991SOL     OW23811  14.760   9.434  11.682
73991SOL    HW123812  14.683   9.471  11.725
73991SOL    HW223813  14.833   9.464  11.736
73992SOL     OW23814   3.091   4.146   5.662
73992SOL    HW123815   3.172   4.097   5.648
73992SOL    HW223816   3.113   4.236   5.640
73993SOL     OW23817  14.741   9.341   0.742
73993SOL    HW123818  14.656   9.385   0.746
73993SOL    HW223819  14.784   9.380   0.665
73994SOL     OW23820   7.859   3.469   2.506
73994SOL    HW123821   7.820   3.391   2.467
73994SOL    HW223822   7.864   3.532   2.433
73995SOL     OW23823   4.592   4.434   1.773
73995SOL    HW123824   4.668   4.381   1.798
73995SOL    HW223825   4.519   4.373   1.774
73996SOL     OW23826  10.624   7.258  11.250
73996SOL    HW123827  10.574   7.263  11.332
73996SOL    HW223828  10.561   7.222  11.186
73997SOL     OW23829   5.220   9.622  10.216
73997SOL    HW123830   5.168   9.650  10.141
73997SOL    HW223831   5.160   9.629  10.291
73998SOL     OW23832   4.903   3.732   9.365
73998SOL    HW123833   4.877   3.726   9.457
73998SOL    HW223834   4.971   3.799   9.363
73999SOL     OW23835   0.358   1.232   8.994
73999SOL    HW123836   0.451   1.255   8.990
73999SOL    HW223837   0.358   1.136   8.997
74000SOL     OW23838   7.594  13.802  11.122
74000SOL    HW123839   7.615  13.892  11.095
74000SOL    HW223840   7.504  13.807  11.154
74001SOL     OW23841  13.740  10.352  12.834
74001SOL    HW123842  13.773  10.272  12.873
74001SOL    HW223843  13.680  10.322  12.765
74002SOL     OW23844   8.888   7.873  11.882
74002SOL    HW123845   8.905   7.967  11.875
74002SOL    HW223846   8.931   7.847  11.964
74003SOL     OW23847   5.703   5.490   4.473
74003SOL    HW123848   5.615   5.500   4.510
74003SOL    HW223849   5.762   5.511   4.545
74004SOL     OW23850   5.756   4.448  12.760
74004SOL    HW123851   5.823   4.412  12.702
74004SOL    HW223852   5.792   4.436  12.848
74005SOL     OW23853  12.515   1.076   9.440
74005SOL    HW123854  12.518   1.096   9.347
74005SOL    HW223855  12.439   1.018   9.450
74006SOL     OW23856   5.025   2.288   6.183
74006SOL    HW123857   5.004   2.373   6.144
74006SOL    HW223858   5.109   2.303   6.227
74007SOL     OW23859  10.523   1.093  13.017
74007SOL    HW123860  10.456   1.082  12.950
74007SOL    HW223861  10.474   1.097  13.100
74008SOL     OW23862   9.920   0.136   7.415
74008SOL    HW123863   9.959   0.069   7.470
74008SOL    HW223864   9.994   0.190   7.386
74009SOL     OW23865  12.964  14.064   0.573
74009SOL    HW123866  12.919  14.104   0.647
74009SOL    HW223867  12.981  14.136   0.513
74010SOL     OW23868   4.550   2.198   2.404
74010SOL    HW123869   4.559   2.131   2.472
74010SOL    HW223870   4.631   2.194   2.354
74011SOL     OW23871  12.242  13.079  11.998
74011SOL    HW123872  12.320  13.123  11.965
74011SOL    HW223873  12.189  13.064  11.921
74012SOL     OW23874   4.639   0.789   4.587
74012SOL    HW123875   4.622   0.715   4.529
74012SOL    HW223876   4.729   0.814   4.569
74013SOL     OW23877   8.787   4.917   0.971
74013SOL    HW123878   8.691   4.922   0.967
74013SOL    HW223879   8.812   4.990   1.027
74014SOL     OW23880   4.017   4.844   1.327
74014SOL    HW123881   4.061   4.911   1.275
74014SOL    HW223882   3.995   4.888   1.409
74015SOL     OW23883   8.211   5.960   2.689
74015SOL    HW123884   8.269   5.912   2.748
74015SOL    HW223885   8.154   6.011   2.746
74016SOL     OW23886  12.376   8.925  12.043
74016SOL    HW123887  12.458   8.967  12.070
74016SOL    HW223888  12.391   8.902  11.951
74017SOL     OW23889  12.530   6.468   2.334
74017SOL    HW123890  12.574   6.391   2.370
74017SOL    HW223891  12.488   6.436   2.254
74018SOL     OW23892   1.026   0.515   5.644
74018SOL    HW123893   1.070   0.449   5.696
74018SOL    HW223894   1.059   0.598   5.677
74019SOL     OW23895   6.433   1.614   1.069
74019SOL    HW123896   6.407   1.669   0.995
74019SOL    HW223897   6.425   1.525   1.036
74020SOL     OW23898   2.233   6.373   1.106
74020SOL    HW123899   2.241   6.432   1.031
74020SOL    HW223900   2.164   6.312   1.080
74021SOL     OW23901   3.166   0.816   0.781
74021SOL    HW123902   3.119   0.739   0.813
74021SOL    HW223903   3.218   0.784   0.708
74022SOL     OW23904   2.419  12.099   1.655
74022SOL    HW123905   2.367  12.031   1.611
74022SOL    HW223906   2.504  12.095   1.611
74023SOL     OW23907   9.352   6.660  11.905
74023SOL    HW123908   9.368   6.570  11.933
74023SOL    HW223909   9.258   6.663  11.886
74024SOL     OW23910  13.366  11.845  13.948
74024SOL    HW123911  13.298  11.910  13.962
74024SOL    HW223912  13.382  11.846  13.854
74025SOL     OW23913   3.855   4.162   4.635
74025SOL    HW123914   3.838   4.192   4.546
74025SOL    HW223915   3.769   4.159   4.677
74026SOL     OW23916   2.782   1.507   6.183
74026SOL    HW123917   2.864   1.551   6.162
74026SOL    HW223918   2.717   1.550   6.128
74027SOL     OW23919  13.938   7.740   0.731
74027SOL    HW123920  14.005   7.727   0.798
74027SOL    HW223921  13.897   7.823   0.753
74028SOL     OW23922   1.843   3.562   7.979
74028SOL    HW123923   1.851   3.589   8.071
74028SOL    HW223924   1.916   3.605   7.935
74029SOL     OW23925   5.818  13.516  13.201
74029SOL    HW123926   5.825  13.438  13.256
74029SOL    HW223927   5.725  13.523  13.180
74030SOL     OW23928  14.311   9.332  12.055
74030SOL    HW123929  14.232   9.371  12.091
74030SOL    HW223930  14.296   9.237  12.060
74031SOL     OW23931   9.893  13.983   3.393
74031SOL    HW123932   9.978  13.980   3.349
74031SOL    HW223933   9.859  14.070   3.373
74032SOL     OW23934   2.998  12.760   6.421
74032SOL    HW123935   2.915  12.748   6.467
74032SOL    HW223936   2.974  12.768   6.329
74033SOL     OW23937  12.358  11.212   5.697
74033SOL    HW123938  12.392  11.299   5.715
74033SOL    HW223939  12.406  11.155   5.757
74034SOL     OW23940  14.295   6.656   2.794
74034SOL    HW123941  14.277   6.746   2.765
74034SOL    HW223942  14.235   6.642   2.867
74035SOL     OW23943   6.972   4.722   8.913
74035SOL    HW123944   6.942   4.751   8.827
74035SOL    HW223945   7.007   4.802   8.954
74036SOL     OW23946   9.104   8.268   8.413
74036SOL    HW123947   9.125   8.215   8.490
74036SOL    HW223948   9.174   8.333   8.409
74037SOL     OW23949   9.227  11.562  11.792
74037SOL    HW123950   9.231  11.560  11.696
74037SOL    HW223951   9.286  11.492  11.820
74038SOL     OW23952   7.791   4.944   8.919
74038SOL    HW123953   7.753   4.991   8.844
74038SOL    HW223954   7.885   4.955   8.908
74039SOL     OW23955  13.983   7.740   4.254
74039SOL    HW123956  13.891   7.750   4.280
74039SOL    HW223957  13.997   7.646   4.254
74040SOL     OW23958   4.975  13.062   8.243
74040SOL    HW123959   4.930  13.123   8.301
74040SOL    HW223960   4.991  13.112   8.163
74041SOL     OW23961   1.327   1.864   9.779
74041SOL    HW123962   1.255   1.919   9.810
74041SOL    HW223963   1.334   1.883   9.686
74042SOL     OW23964   2.133   8.737   1.780
74042SOL    HW123965   2.174   8.676   1.842
74042SOL    HW223966   2.114   8.684   1.703
74043SOL     OW23967   3.078   6.352   9.691
74043SOL    HW123968   3.134   6.421   9.653
74043SOL    HW223969   3.071   6.287   9.621
74044SOL     OW23970   9.780   6.915   4.530
74044SOL    HW123971   9.772   6.824   4.501
74044SOL    HW223972   9.709   6.960   4.484
74045SOL     OW23973   9.229  12.537   7.522
74045SOL    HW123974   9.226  12.473   7.593
74045SOL    HW223975   9.144  12.530   7.480
74046SOL     OW23976   1.699   3.141   1.149
74046SOL    HW123977   1.661   3.205   1.209
74046SOL    HW223978   1.668   3.168   1.063
74047SOL     OW23979  10.644   9.019  14.192
74047SOL    HW123980  10.704   8.982  14.257
74047SOL    HW223981  10.579   8.951  14.177
74048SOL     OW23982   5.196   3.478   8.813
74048SOL    HW123983   5.243   3.548   8.767
74048SOL    HW223984   5.130   3.448   8.750
74049SOL     OW23985   0.811   4.116  10.473
74049SOL    HW123986   0.830   4.051  10.405
74049SOL    HW223987   0.888   4.173  10.474
74050SOL     OW23988  14.273   0.329   1.702
74050SOL    HW123989  14.297   0.421   1.711
74050SOL    HW223990  14.355   0.284   1.684
74051SOL     OW23991   5.469   4.450   7.450
74051SOL    HW123992   5.532   4.448   7.522
74051SOL    HW223993   5.398   4.393   7.479
74052SOL     OW23994   0.674   8.135   6.130
74052SOL    HW123995   0.661   8.074   6.057
74052SOL    HW223996   0.717   8.211   6.090
74053SOL     OW23997  11.484   6.762   1.421
74053SOL    HW123998  11.400   6.740   1.461
74053SOL    HW223999  11.470   6.848   1.382
74054SOL     OW24000   9.893   0.875   6.578
74054SOL    HW124001   9.984   0.904   6.585
74054SOL    HW224002   9.843   0.957   6.569
74055SOL     OW24003   6.320   5.212  11.805
74055SOL    HW124004   6.329   5.117  11.801
74055SOL    HW224005   6.323   5.233  11.898
74056SOL     OW24006   0.523   8.989   6.603
74056SOL    HW124007   0.540   8.942   6.521
74056SOL    HW224008   0.519   8.920   6.670
74057SOL     OW24009   3.534   0.531   7.508
74057SOL    HW124010   3.498   0.589   7.575
74057SOL    HW224011   3.481   0.549   7.430
74058SOL     OW24012  11.004   6.546   1.473
74058SOL    HW124013  10.921   6.498   1.472
74058SOL    HW224014  11.015   6.577   1.384
74059SOL     OW24015   6.618  11.034  12.898
74059SOL    HW124016   6.522  11.038  12.895
74059SOL    HW224017   6.641  10.957  12.846
74060SOL     OW24018   2.108   9.456   1.955
74060SOL    HW124019   2.123   9.378   1.901
74060SOL    HW224020   2.111   9.529   1.892
74061SOL     OW24021   6.769   5.854  10.972
74061SOL    HW124022   6.732   5.943  10.972
74061SOL    HW224023   6.838   5.858  10.906
74062SOL     OW24024  12.887  11.567  12.003
74062SOL    HW124025  12.959  11.527  11.954
74062SOL    HW224026  12.808  11.530  11.963
74063SOL     OW24027   7.507   6.480  13.170
74063SOL    HW124028   7.597   6.484  13.204
74063SOL    HW224029   7.485   6.571  13.150
74064SOL     OW24030   6.138   3.608  12.986
74064SOL    HW124031   6.090   3.556  12.922
74064SOL    HW224032   6.147   3.694  12.945
74065SOL     OW24033   1.752   6.921   0.821
74065SOL    HW124034   1.809   6.876   0.759
74065SOL    HW224035   1.754   7.013   0.793
74066SOL     OW24036   9.060   6.249   9.398
74066SOL    HW124037   9.144   6.281   9.366
74066SOL    HW224038   9.032   6.315   9.462
74067SOL     OW24039   5.050   0.275  10.887
74067SOL    HW124040   4.988   0.214  10.845
74067SOL    HW224041   5.039   0.357  10.839
74068SOL     OW24042  11.215  14.200  14.222
74068SOL    HW124043  11.151  14.228  14.287
74068SOL    HW224044  11.270  14.138  14.268
74069SOL     OW24045  13.227   3.255   5.690
74069SOL    HW124046  13.248   3.223   5.602
74069SOL    HW224047  13.137   3.287   5.684
74070SOL     OW24048   1.529   4.637   4.886
74070SOL    HW124049   1.503   4.545   4.889
74070SOL    HW224050   1.527   4.666   4.977
74071SOL     OW24051  14.273   6.516   3.364
74071SOL    HW124052  14.189   6.525   3.320
74071SOL    HW224053  14.251   6.489   3.453
74072SOL     OW24054   8.494   7.595   7.368
74072SOL    HW124055   8.580   7.622   7.400
74072SOL    HW224056   8.433   7.657   7.409
74073SOL     OW24057  12.725  11.644   6.710
74073SOL    HW124058  12.769  11.646   6.795
74073SOL    HW224059  12.642  11.690   6.725
74074SOL     OW24060   5.704  10.447  14.342
74074SOL    HW124061   5.770  10.404  14.288
74074SOL    HW224062   5.751  10.522  14.380
74075SOL     OW24063   5.221  14.703  12.264
74075SOL    HW124064   5.127  14.708  12.251
74075SOL    HW224065   5.233  14.634  12.329
74076SOL     OW24066   1.442   4.993   9.146
74076SOL    HW124067   1.347   4.988   9.132
74076SOL    HW224068   1.452   5.028   9.234
74077SOL     OW24069   3.258  13.163   0.661
74077SOL    HW124070   3.289  13.100   0.596
74077SOL    HW224071   3.199  13.220   0.611
74078SOL     OW24072  12.127   2.599   9.803
74078SOL    HW124073  12.088   2.676   9.845
74078SOL    HW224074  12.144   2.627   9.713
74079SOL     OW24075   6.234   3.742  14.161
74079SOL    HW124076   6.271   3.674  14.217
74079SOL    HW224077   6.142   3.718  14.150
74080SOL     OW24078  10.761   9.153  10.125
74080SOL    HW124079  10.786   9.142  10.217
74080SOL    HW224080  10.707   9.076  10.105
74081SOL     OW24081   0.597  13.614   2.743
74081SOL    HW124082   0.633  13.703   2.753
74081SOL    HW224083   0.563  13.612   2.654
74082SOL     OW24084   8.141   1.470  10.794
74082SOL    HW124085   8.106   1.498  10.879
74082SOL    HW224086   8.083   1.512  10.730
74083SOL     OW24087   5.962  14.053   1.204
74083SOL    HW124088   6.048  14.034   1.167
74083SOL    HW224089   5.929  14.127   1.153
74084SOL     OW24090  10.064   0.675   2.111
74084SOL    HW124091  10.117   0.627   2.174
74084SOL    HW224092  10.122   0.743   2.077
74085SOL     OW24093   8.087  11.018  12.024
74085SOL    HW124094   8.074  11.063  12.108
74085SOL    HW224095   8.138  11.081  11.972
74086SOL     OW24096  10.361  12.701   7.454
74086SOL    HW124097  10.288  12.679   7.396
74086SOL    HW224098  10.387  12.789   7.429
74087SOL     OW24099   8.991   5.151   0.401
74087SOL    HW124100   8.931   5.130   0.329
74087SOL    HW224101   9.022   5.066   0.432
74088SOL     OW24102   7.819   4.646  10.143
74088SOL    HW124103   7.892   4.708  10.147
74088SOL    HW224104   7.767   4.666  10.220
74089SOL     OW24105   0.220  13.888  13.322
74089SOL    HW124106   0.165  13.902  13.399
74089SOL    HW224107   0.280  13.817  13.348
74090SOL     OW24108  13.955   2.641   9.409
74090SOL    HW124109  13.964   2.596   9.325
74090SOL    HW224110  13.883   2.595   9.454
74091SOL     OW24111  10.605  12.220   5.014
74091SOL    HW124112  10.658  12.141   5.029
74091SOL    HW224113  10.643  12.285   5.073
74092SOL     OW24114   0.362  14.175  11.301
74092SOL    HW124115   0.334  14.267  11.295
74092SOL    HW224116   0.424  14.174  11.374
74093SOL     OW24117   4.445   0.437   6.611
74093SOL    HW124118   4.439   0.347   6.642
74093SOL    HW224119   4.379   0.485   6.662
74094SOL     OW24120   2.348   0.706   1.629
74094SOL    HW124121   2.322   0.624   1.671
74094SOL    HW224122   2.292   0.713   1.552
74095SOL     OW24123  13.835   1.636  11.778
74095SOL    HW124124  13.902   1.633  11.846
74095SOL    HW224125  13.857   1.713  11.726
74096SOL     OW24126  11.904   5.697   4.869
74096SOL    HW124127  11.892   5.792   4.874
74096SOL    HW224128  11.995   5.683   4.894
74097SOL     OW24129   9.113   7.659   9.882
74097SOL    HW124130   9.044   7.725   9.889
74097SOL    HW224131   9.190   7.700   9.921
74098SOL     OW24132   5.787  13.055  12.552
74098SOL    HW124133   5.774  13.140  12.593
74098SOL    HW224134   5.737  12.994  12.606
74099SOL     OW24135   2.881   8.517   4.616
74099SOL    HW124136   2.916   8.543   4.701
74099SOL    HW224137   2.937   8.562   4.553
74100SOL     OW24138   4.255   6.097   5.029
74100SOL    HW124139   4.350   6.087   5.034
74100SOL    HW224140   4.240   6.163   4.961
74101SOL     OW24141   0.229   0.709   8.750
74101SOL    HW124142   0.263   0.756   8.674
74101SOL    HW224143   0.195   0.627   8.713
74102SOL     OW24144   5.354   4.386   4.912
74102SOL    HW124145   5.292   4.446   4.953
74102SOL    HW224146   5.342   4.400   4.818
74103SOL     OW24147   4.968   0.540   7.332
74103SOL    HW124148   5.020   0.607   7.286
74103SOL    HW224149   4.931   0.587   7.407
74104SOL     OW24150  11.084   5.950   3.321
74104SOL    HW124151  11.099   5.994   3.404
74104SOL    HW224152  11.005   5.899   3.334
74105SOL     OW24153   5.221   4.966   4.822
74105SOL    HW124154   5.287   4.950   4.755
74105SOL    HW224155   5.271   4.982   4.902
74106SOL     OW24156   4.346   2.540  14.585
74106SOL    HW124157   4.276   2.475  14.584
74106SOL    HW224158   4.313   2.609  14.644
74107SOL     OW24159  13.544   5.469  12.391
74107SOL    HW124160  13.528   5.548  12.338
74107SOL    HW224161  13.469   5.465  12.451
74108SOL     OW24162  12.905   1.968  14.311
74108SOL    HW124163  12.866   2.055  14.312
74108SOL    HW224164  12.899   1.938  14.402
74109SOL     OW24165   4.245  11.262   2.462
74109SOL    HW124166   4.287  11.320   2.399
74109SOL    HW224167   4.236  11.178   2.416
74110SOL     OW24168   3.684  10.073   9.900
74110SOL    HW124169   3.766  10.099   9.942
74110SOL    HW224170   3.704   9.989   9.858
74111SOL     OW24171  12.754   2.668  10.585
74111SOL    HW124172  12.678   2.726  10.577
74111SOL    HW224173  12.787   2.684  10.673
74112SOL     OW24174  13.126   6.600   5.694
74112SOL    HW124175  13.187   6.673   5.690
74112SOL    HW224176  13.164   6.534   5.636
74113SOL     OW24177   3.407   4.419   3.697
74113SOL    HW124178   3.406   4.437   3.603
74113SOL    HW224179   3.323   4.452   3.729
74114SOL     OW24180   3.772   9.681   5.384
74114SOL    HW124181   3.789   9.678   5.290
74114SOL    HW224182   3.859   9.683   5.424
74115SOL     OW24183   2.178   6.959   0.805
74115SOL    HW124184   2.127   6.909   0.869
74115SOL    HW224185   2.261   6.975   0.849
74116SOL     OW24186   8.201  10.949  14.104
74116SOL    HW124187   8.203  10.943  14.200
74116SOL    HW224188   8.138  10.882  14.077
74117SOL     OW24189   9.450   2.653   4.700
74117SOL    HW124190   9.366   2.637   4.656
74117SOL    HW224191   9.481   2.735   4.663
74118SOL     OW24192  11.129  12.779   6.146
74118SOL    HW124193  11.059  12.721   6.116
74118SOL    HW224194  11.090  12.826   6.221
74119SOL     OW24195   3.098   7.543   9.221
74119SOL    HW124196   3.047   7.480   9.170
74119SOL    HW224197   3.095   7.624   9.170
74120SOL     OW24198   0.370  10.910  11.046
74120SOL    HW124199   0.330  10.834  11.005
74120SOL    HW224200   0.361  10.980  10.981
74121SOL     OW24201   7.981   7.779  12.224
74121SOL    HW124202   7.918   7.751  12.158
74121SOL    HW224203   7.928   7.811  12.297
74122SOL     OW24204   4.476   2.595  13.585
74122SOL    HW124205   4.416   2.520  13.589
74122SOL    HW224206   4.547   2.566  13.527
74123SOL     OW24207   7.582  11.234   6.394
74123SOL    HW124208   7.574  11.144   6.425
74123SOL    HW224209   7.565  11.229   6.300
74124SOL     OW24210   1.000   8.970   3.804
74124SOL    HW124211   1.030   9.054   3.769
74124SOL    HW224212   1.073   8.910   3.789
74125SOL     OW24213   0.906   9.873  12.325
74125SOL    HW124214   0.858   9.863  12.243
74125SOL    HW224215   0.839   9.891  12.390
74126SOL     OW24216   2.926  11.676   9.347
74126SOL    HW124217   2.954  11.600   9.295
74126SOL    HW224218   2.993  11.742   9.329
74127SOL     OW24219   0.839  11.479  11.604
74127SOL    HW124220   0.758  11.528  11.617
74127SOL    HW224221   0.843  11.464  11.509
74128SOL     OW24222   9.779   4.079  14.575
74128SOL    HW124223   9.811   3.989  14.582
74128SOL    HW224224   9.798   4.118  14.660
74129SOL     OW24225  10.730   6.483   1.758
74129SOL    HW124226  10.742   6.423   1.684
74129SOL    HW224227  10.810   6.474   1.809
74130SOL     OW24228  11.014  12.460   3.813
74130SOL    HW124229  11.065  12.379   3.810
74130SOL    HW224230  10.998  12.482   3.721
74131SOL     OW24231  13.715   6.283  13.811
74131SOL    HW124232  13.622   6.278  13.834
74131SOL    HW224233  13.744   6.192  13.807
74132SOL     OW24234  14.567  10.844   2.641
74132SOL    HW124235  14.528  10.881   2.562
74132SOL    HW224236  14.497  10.846   2.706
74133SOL     OW24237  14.125  13.575   6.091
74133SOL    HW124238  14.110  13.646   6.028
74133SOL    HW224239  14.217  13.584   6.115
74134SOL     OW24240  12.174   6.102   2.452
74134SOL    HW124241  12.117   6.177   2.437
74134SOL    HW224242  12.197   6.072   2.364
74135SOL     OW24243   0.779   7.151  12.017
74135SOL    HW124244   0.686   7.133  12.029
74135SOL    HW224245   0.790   7.243  12.044
74136SOL     OW24246   7.072   3.970   0.737
74136SOL    HW124247   7.050   4.038   0.674
74136SOL    HW224248   7.016   3.987   0.813
74137SOL     OW24249   4.446  13.455   4.371
74137SOL    HW124250   4.479  13.366   4.385
74137SOL    HW224251   4.369  13.443   4.315
74138SOL     OW24252   9.572   2.393   8.604
74138SOL    HW124253   9.627   2.362   8.533
74138SOL    HW224254   9.582   2.328   8.674
74139SOL     OW24255   0.484   7.720  14.253
74139SOL    HW124256   0.408   7.683  14.208
74139SOL    HW224257   0.555   7.713  14.190
74140SOL     OW24258   5.994  14.224   1.447
74140SOL    HW124259   6.089  14.231   1.459
74140SOL    HW224260   5.983  14.153   1.384
74141SOL     OW24261   3.308  14.751  10.208
74141SOL    HW124262   3.299  14.764  10.303
74141SOL    HW224263   3.398  14.780  10.189
74142SOL     OW24264   4.634   9.828  13.553
74142SOL    HW124265   4.566   9.883  13.592
74142SOL    HW224266   4.704   9.889  13.531
74143SOL     OW24267   9.288   7.123   8.367
74143SOL    HW124268   9.336   7.075   8.299
74143SOL    HW224269   9.354   7.140   8.434
74144SOL     OW24270  12.971  11.278   5.034
74144SOL    HW124271  12.930  11.237   5.110
74144SOL    HW224272  12.940  11.369   5.037
74145SOL     OW24273  10.376   3.205   2.007
74145SOL    HW124274  10.471   3.207   1.991
74145SOL    HW224275  10.354   3.293   2.036
74146SOL     OW24276  10.509  14.536   7.950
74146SOL    HW124277  10.577  14.483   7.991
74146SOL    HW224278  10.507  14.507   7.859
74147SOL     OW24279   2.937   6.297  13.007
74147SOL    HW124280   2.929   6.202  13.009
74147SOL    HW224281   3.009   6.316  13.067
74148SOL     OW24282  10.506   5.625   1.369
74148SOL    HW124283  10.570   5.557   1.390
74148SOL    HW224284  10.505   5.628   1.273
74149SOL     OW24285   1.385   7.083   7.446
74149SOL    HW124286   1.296   7.096   7.480
74149SOL    HW224287   1.420   7.011   7.497
74150SOL     OW24288   8.475   6.863   9.280
74150SOL    HW124289   8.425   6.856   9.362
74150SOL    HW224290   8.412   6.900   9.218
74151SOL     OW24291   3.337  10.298  11.077
74151SOL    HW124292   3.318  10.253  10.994
74151SOL    HW224293   3.297  10.242  11.143
74152SOL     OW24294  13.996   6.865  12.814
74152SOL    HW124295  14.064   6.813  12.772
74152SOL    HW224296  13.943   6.897  12.741
74153SOL     OW24297   7.554  12.165   9.726
74153SOL    HW124298   7.646  12.185   9.743
74153SOL    HW224299   7.555  12.108   9.650
74154SOL     OW24300   7.699   4.751   2.780
74154SOL    HW124301   7.682   4.708   2.863
74154SOL    HW224302   7.792   4.773   2.783
74155SOL     OW24303  14.041  13.678   7.915
74155SOL    HW124304  14.117  13.695   7.971
74155SOL    HW224305  14.079  13.645   7.833
74156SOL     OW24306  10.898   9.510   7.255
74156SOL    HW124307  10.928   9.528   7.344
74156SOL    HW224308  10.835   9.580   7.236
74157SOL     OW24309   7.464  14.643   2.281
74157SOL    HW124310   7.463  14.624   2.375
74157SOL    HW224311   7.554  14.670   2.263
74158SOL     OW24312   6.117  10.858   0.593
74158SOL    HW124313   6.176  10.863   0.668
74158SOL    HW224314   6.030  10.870   0.629
74159SOL     OW24315   7.293   9.546   1.968
74159SOL    HW124316   7.331   9.608   1.905
74159SOL    HW224317   7.365   9.523   2.026
74160SOL     OW24318  14.447   1.883   8.572
74160SOL    HW124319  14.487   1.946   8.632
74160SOL    HW224320  14.359   1.917   8.556
74161SOL     OW24321   3.038  12.202   1.384
74161SOL    HW124322   3.066  12.171   1.470
74161SOL    HW224323   3.010  12.122   1.338
74162SOL     OW24324   7.668  12.737   6.903
74162SOL    HW124325   7.750  12.780   6.880
74162SOL    HW224326   7.600  12.797   6.870
74163SOL     OW24327   2.087   6.119  14.522
74163SOL    HW124328   2.025   6.048  14.503
74163SOL    HW224329   2.085   6.127  14.617
74164SOL     OW24330  12.475   4.573  10.927
74164SOL    HW124331  12.561   4.610  10.907
74164SOL    HW224332  12.444   4.537  10.844
74165SOL     OW24333   2.237   3.849   9.961
74165SOL    HW124334   2.207   3.911   9.894
74165SOL    HW224335   2.274   3.905  10.030
74166SOL     OW24336   9.136  14.424  10.448
74166SOL    HW124337   9.216  14.390  10.488
74166SOL    HW224338   9.067  14.367  10.481
74167SOL     OW24339   2.580   5.180   9.194
74167SOL    HW124340   2.491   5.146   9.204
74167SOL    HW224341   2.600   5.218   9.280
74168SOL     OW24342  14.819  13.950   1.343
74168SOL    HW124343  14.748  13.988   1.394
74168SOL    HW224344   0.014  14.008   1.356
74169SOL     OW24345   9.915  12.103  10.906
74169SOL    HW124346   9.970  12.038  10.863
74169SOL    HW224347   9.957  12.187  10.888
74170SOL     OW24348   5.419  13.694  11.792
74170SOL    HW124349   5.439  13.604  11.819
74170SOL    HW224350   5.324  13.701  11.799
74171SOL     OW24351   5.618   8.313   6.365
74171SOL    HW124352   5.683   8.268   6.419
74171SOL    HW224353   5.539   8.258   6.372
74172SOL     OW24354  13.260  13.962   0.551
74172SOL    HW124355  13.218  13.877   0.565
74172SOL    HW224356  13.260  13.973   0.456
74173SOL     OW24357  13.506   7.708   2.748
74173SOL    HW124358  13.594   7.681   2.722
74173SOL    HW224359  13.481   7.773   2.683
74174SOL     OW24360   9.844   0.709   5.450
74174SOL    HW124361   9.921   0.744   5.406
74174SOL    HW224362   9.788   0.785   5.465
74175SOL     OW24363   1.087   5.388   1.214
74175SOL    HW124364   1.022   5.404   1.284
74175SOL    HW224365   1.129   5.306   1.239
74176SOL     OW24366   0.379   0.923  10.621
74176SOL    HW124367   0.335   0.983  10.561
74176SOL    HW224368   0.364   0.836  10.584
74177SOL     OW24369   2.879  13.979   9.577
74177SOL    HW124370   2.836  13.908   9.531
74177SOL    HW224371   2.812  14.048   9.582
74178SOL     OW24372   3.289   6.009  13.004
74178SOL    HW124373   3.295   5.950  12.929
74178SOL    HW224374   3.252   6.090  12.968
74179SOL     OW24375   0.964   1.128   2.958
74179SOL    HW124376   0.873   1.155   2.947
74179SOL    HW224377   1.010   1.209   2.983
74180SOL     OW24378  12.010  11.666  14.004
74180SOL    HW124379  12.044  11.608  13.936
74180SOL    HW224380  11.933  11.707  13.965
74181SOL     OW24381   3.070   3.759   2.770
74181SOL    HW124382   3.015   3.817   2.718
74181SOL    HW224383   3.012   3.686   2.794
74182SOL     OW24384   0.675  14.679   8.386
74182SOL    HW124385   0.670  14.661   8.480
74182SOL    HW224386   0.683  14.774   8.380
74183SOL     OW24387  12.120  11.171   8.904
74183SOL    HW124388  12.034  11.141   8.935
74183SOL    HW224389  12.117  11.266   8.915
74184SOL     OW24390  13.420   1.742   9.418
74184SOL    HW124391  13.434   1.810   9.352
74184SOL    HW224392  13.354   1.685   9.379
74185SOL     OW24393   3.695  11.765   4.695
74185SOL    HW124394   3.699  11.844   4.642
74185SOL    HW224395   3.753  11.783   4.769
74186SOL     OW24396   6.550   8.741  13.197
74186SOL    HW124397   6.616   8.728  13.265
74186SOL    HW224398   6.596   8.786  13.126
74187SOL     OW24399  13.844   9.243   2.815
74187SOL    HW124400  13.843   9.198   2.730
74187SOL    HW224401  13.914   9.202   2.864
74188SOL     OW24402   7.379   2.131   3.949
74188SOL    HW124403   7.362   2.204   3.888
74188SOL    HW224404   7.294   2.110   3.985
74189SOL     OW24405   0.863   7.414   0.918
74189SOL    HW124406   0.898   7.489   0.966
74189SOL    HW224407   0.922   7.342   0.941
74190SOL     OW24408  10.551   2.975   6.559
74190SOL    HW124409  10.490   3.045   6.534
74190SOL    HW224410  10.544   2.911   6.488
74191SOL     OW24411  12.648  13.955   4.779
74191SOL    HW124412  12.693  14.039   4.775
74191SOL    HW224413  12.697  13.905   4.844
74192SOL     OW24414   8.101   4.482   3.165
74192SOL    HW124415   8.188   4.449   3.142
74192SOL    HW224416   8.103   4.490   3.260
74193SOL     OW24417   7.607   2.824  12.376
74193SOL    HW124418   7.584   2.826  12.469
74193SOL    HW224419   7.701   2.807  12.375
74194SOL     OW24420   8.821  10.353   8.071
74194SOL    HW124421   8.830  10.259   8.054
74194SOL    HW224422   8.727  10.367   8.084
74195SOL     OW24423   5.089   8.127   6.594
74195SOL    HW124424   4.998   8.136   6.567
74195SOL    HW224425   5.091   8.050   6.651
74196SOL     OW24426   4.264  10.517  10.520
74196SOL    HW124427   4.275  10.584  10.452
74196SOL    HW224428   4.185  10.544  10.568
74197SOL     OW24429  12.405   2.596   8.059
74197SOL    HW124430  12.438   2.550   8.137
74197SOL    HW224431  12.430   2.540   7.986
74198SOL     OW24432  14.179   2.066   3.402
74198SOL    HW124433  14.097   2.081   3.354
74198SOL    HW224434  14.244   2.119   3.356
74199SOL     OW24435   1.052   6.615   2.758
74199SOL    HW124436   1.086   6.558   2.827
74199SOL    HW224437   1.059   6.703   2.795
74200SOL     OW24438  10.013   8.065   7.568
74200SOL    HW124439   9.960   8.126   7.516
74200SOL    HW224440   9.950   8.001   7.601
74201SOL     OW24441   5.006  13.560   4.397
74201SOL    HW124442   4.931  13.599   4.441
74201SOL    HW224443   4.970  13.526   4.314
74202SOL     OW24444  12.267  14.137  14.033
74202SOL    HW124445  12.283  14.052  13.993
74202SOL    HW224446  12.334  14.145  14.101
74203SOL     OW24447   7.876   8.402   3.331
74203SOL    HW124448   7.862   8.310   3.355
74203SOL    HW224449   7.795   8.426   3.285
74204SOL     OW24450   5.522   5.622   3.036
74204SOL    HW124451   5.472   5.611   2.955
74204SOL    HW224452   5.456   5.646   3.102
74205SOL     OW24453   9.788   3.721   1.865
74205SOL    HW124454   9.722   3.719   1.935
74205SOL    HW224455   9.845   3.646   1.884
74206SOL     OW24456   1.048   2.754   5.128
74206SOL    HW124457   1.049   2.672   5.078
74206SOL    HW224458   1.138   2.785   5.127
74207SOL     OW24459   7.590   6.273  13.451
74207SOL    HW124460   7.649   6.240  13.383
74207SOL    HW224461   7.649   6.299  13.522
74208SOL     OW24462   7.805  13.244   0.140
74208SOL    HW124463   7.872  13.312   0.134
74208SOL    HW224464   7.752  13.254   0.061
74209SOL     OW24465  12.814  14.218   7.408
74209SOL    HW124466  12.796  14.211   7.315
74209SOL    HW224467  12.909  14.211   7.415
74210SOL     OW24468   7.446   8.142  10.042
74210SOL    HW124469   7.411   8.198  10.112
74210SOL    HW224470   7.513   8.196  10.000
74211SOL     OW24471   9.826   9.471  10.808
74211SOL    HW124472   9.863   9.409  10.871
74211SOL    HW224473   9.880   9.460  10.730
74212SOL     OW24474   0.058  14.117   5.312
74212SOL    HW124475  14.849  14.085   5.327
74212SOL    HW224476   0.085  14.077   5.230
74213SOL     OW24477   1.198   9.048   0.405
74213SOL    HW124478   1.267   8.985   0.425
74213SOL    HW224479   1.150   9.058   0.487
74214SOL     OW24480   9.315  12.716   6.894
74214SOL    HW124481   9.300  12.643   6.953
74214SOL    HW224482   9.256  12.700   6.820
74215SOL     OW24483   6.785   6.814  13.061
74215SOL    HW124484   6.721   6.791  13.128
74215SOL    HW224485   6.733   6.829  12.982
74216SOL     OW24486   0.366  10.607   5.047
74216SOL    HW124487   0.297  10.643   4.991
74216SOL    HW224488   0.324  10.534   5.092
74217SOL     OW24489  13.415  12.927  14.571
74217SOL    HW124490  13.335  12.879  14.547
74217SOL    HW224491  13.385  12.996  14.630
74218SOL     OW24492   2.188  12.345  12.914
74218SOL    HW124493   2.283  12.342  12.927
74218SOL    HW224494   2.175  12.418  12.854
74219SOL     OW24495   0.577  14.389   1.938
74219SOL    HW124496   0.603  14.445   1.864
74219SOL    HW224497   0.659  14.367   1.981
74220SOL     OW24498  12.084   1.285   2.405
74220SOL    HW124499  12.068   1.371   2.367
74220SOL    HW224500  12.154   1.248   2.352
74221SOL     OW24501   6.325  14.745   6.394
74221SOL    HW124502   6.265  14.813   6.426
74221SOL    HW224503   6.323  14.678   6.462
74222SOL     OW24504   8.202   4.309   9.101
74222SOL    HW124505   8.275   4.331   9.042
74222SOL    HW224506   8.243   4.298   9.187
74223SOL     OW24507  10.267   1.545   1.152
74223SOL    HW124508  10.248   1.592   1.071
74223SOL    HW224509  10.211   1.586   1.218
74224SOL     OW24510   0.575   7.961   9.612
74224SOL    HW124511   0.489   7.958   9.653
74224SOL    HW224512   0.627   8.015   9.671
74225SOL     OW24513  12.382   4.757  13.394
74225SOL    HW124514  12.407   4.755  13.486
74225SOL    HW224515  12.433   4.686  13.354
74226SOL     OW24516  14.782  14.705   5.364
74226SOL    HW124517  14.777  14.628   5.420
74226SOL    HW224518  14.870  14.703   5.328
74227SOL     OW24519  10.248   5.695   4.742
74227SOL    HW124520  10.322   5.634   4.735
74227SOL    HW224521  10.286   5.774   4.780
74228SOL     OW24522   7.161  11.406   7.143
74228SOL    HW124523   7.086  11.420   7.085
74228SOL    HW224524   7.210  11.334   7.103
74229SOL     OW24525   2.020   8.048   4.176
74229SOL    HW124526   1.973   8.057   4.093
74229SOL    HW224527   1.950   8.041   4.241
74230SOL     OW24528  13.424   9.980   9.853
74230SOL    HW124529  13.391  10.065   9.882
74230SOL    HW224530  13.519   9.988   9.860
74231SOL     OW24531   4.247   5.327  12.705
74231SOL    HW124532   4.187   5.311  12.778
74231SOL    HW224533   4.192   5.365  12.637
74232SOL     OW24534  12.509  10.447  10.006
74232SOL    HW124535  12.603  10.463  10.019
74232SOL    HW224536  12.501  10.426   9.913
74233SOL     OW24537   3.178  13.162   6.048
74233SOL    HW124538   3.179  13.147   5.954
74233SOL    HW224539   3.268  13.186   6.070
74234SOL     OW24540   7.795   4.745  12.793
74234SOL    HW124541   7.717   4.765  12.742
74234SOL    HW224542   7.763   4.698  12.870
74235SOL     OW24543   9.396  13.467   3.074
74235SOL    HW124544   9.325  13.420   3.119
74235SOL    HW224545   9.429  13.529   3.139
74236SOL     OW24546  11.009  12.128   7.119
74236SOL    HW124547  10.919  12.104   7.096
74236SOL    HW224548  11.000  12.178   7.201
74237SOL     OW24549   9.320   8.059  12.988
74237SOL    HW124550   9.335   8.151  12.966
74237SOL    HW224551   9.370   8.011  12.921
74238SOL     OW24552   1.232   0.570   4.128
74238SOL    HW124553   1.301   0.539   4.068
74238SOL    HW224554   1.173   0.621   4.072
74239SOL     OW24555   0.609  11.521   5.783
74239SOL    HW124556   0.687  11.519   5.838
74239SOL    HW224557   0.617  11.444   5.726
74240SOL     OW24558   0.522   8.335   7.286
74240SOL    HW124559   0.524   8.263   7.350
74240SOL    HW224560   0.545   8.293   7.203
74241SOL     OW24561   5.744  13.155   2.014
74241SOL    HW124562   5.826  13.150   1.964
74241SOL    HW224563   5.713  13.065   2.018
74242SOL     OW24564  14.338  14.231  12.413
74242SOL    HW124565  14.387  14.159  12.371
74242SOL    HW224566  14.267  14.250  12.352
74243SOL     OW24567   0.379  13.829  13.606
74243SOL    HW124568   0.420  13.744  13.622
74243SOL    HW224569   0.288  13.809  13.587
74244SOL     OW24570   6.690   6.322  13.784
74244SOL    HW124571   6.658   6.389  13.724
74244SOL    HW224572   6.785   6.325  13.775
74245SOL     OW24573  11.820  11.137   2.974
74245SOL    HW124574  11.754  11.150   3.043
74245SOL    HW224575  11.904  11.141   3.020
74246SOL     OW24576  11.258   9.187   0.063
74246SOL    HW124577  11.256   9.283   0.061
74246SOL    HW224578  11.211   9.161  14.863
74247SOL     OW24579   4.668   3.705   4.593
74247SOL    HW124580   4.588   3.653   4.590
74247SOL    HW224581   4.693   3.716   4.502
74248SOL     OW24582   8.777  10.312  12.034
74248SOL    HW124583   8.788  10.275  11.946
74248SOL    HW224584   8.732  10.395  12.019
74249SOL     OW24585  14.083  14.717   9.166
74249SOL    HW124586  14.040  14.680   9.243
74249SOL    HW224587  14.163  14.757   9.199
74250SOL     OW24588   3.524   8.182   7.896
74250SOL    HW124589   3.570   8.258   7.860
74250SOL    HW224590   3.586   8.143   7.957
74251SOL     OW24591   2.361   0.888  12.337
74251SOL    HW124592   2.338   0.902  12.429
74251SOL    HW224593   2.317   0.806  12.314
74252SOL     OW24594  14.684   2.968   8.336
74252SOL    HW124595  14.730   2.966   8.420
74252SOL    HW224596  14.644   2.881   8.328
74253SOL     OW24597   6.941   1.299   0.835
74253SOL    HW124598   6.936   1.386   0.874
74253SOL    HW224599   6.900   1.241   0.900
74254SOL     OW24600   7.926   5.322  13.477
74254SOL    HW124601   7.902   5.230  13.474
74254SOL    HW224602   7.961   5.335  13.566
74255SOL     OW24603   6.886   0.111  11.998
74255SOL    HW124604   6.962   0.064  12.032
74255SOL    HW224605   6.812   0.054  12.018
74256SOL     OW24606  11.960   2.560  11.049
74256SOL    HW124607  11.886   2.610  11.013
74256SOL    HW224608  12.004   2.524  10.972
74257SOL     OW24609   6.996   2.509   4.141
74257SOL    HW124610   6.942   2.539   4.214
74257SOL    HW224611   6.933   2.475   4.077
74258SOL     OW24612   6.815   8.344   5.805
74258SOL    HW124613   6.818   8.249   5.801
74258SOL    HW224614   6.759   8.363   5.880
74259SOL     OW24615   9.841  11.438   7.939
74259SOL    HW124616   9.862  11.344   7.937
74259SOL    HW224617   9.926  11.481   7.928
74260SOL     OW24618   0.207   1.091  10.459
74260SOL    HW124619   0.226   1.145  10.382
74260SOL    HW224620   0.117   1.061  10.445
74261SOL     OW24621   1.410   2.056   8.721
74261SOL    HW124622   1.401   1.991   8.790
74261SOL    HW224623   1.416   2.140   8.767
74262SOL     OW24624  10.332   3.570  13.943
74262SOL    HW124625  10.349   3.583  13.850
74262SOL    HW224626  10.340   3.475  13.956
74263SOL     OW24627  10.964   3.905   2.710
74263SOL    HW124628  11.010   3.847   2.649
74263SOL    HW224629  10.934   3.978   2.655
74264SOL     OW24630   0.136   3.851   0.910
74264SOL    HW124631   0.101   3.821   0.994
74264SOL    HW224632   0.063   3.899   0.870
74265SOL     OW24633  10.066   2.109   3.540
74265SOL    HW124634  10.130   2.041   3.562
74265SOL    HW224635   9.986   2.082   3.585
74266SOL     OW24636   8.416  10.037  12.418
74266SOL    HW124637   8.498  10.061  12.374
74266SOL    HW224638   8.444   9.976  12.487
74267SOL     OW24639   9.518   9.148   2.305
74267SOL    HW124640   9.432   9.151   2.263
74267SOL    HW224641   9.506   9.090   2.380
74268SOL     OW24642   6.692   8.532   1.741
74268SOL    HW124643   6.754   8.591   1.784
74268SOL    HW224644   6.620   8.522   1.804
74269SOL     OW24645   3.656   9.653   9.198
74269SOL    HW124646   3.609   9.735   9.207
74269SOL    HW224647   3.639   9.624   9.109
74270SOL     OW24648  12.546  13.309   4.712
74270SOL    HW124649  12.591  13.342   4.790
74270SOL    HW224650  12.606  13.243   4.677
74271SOL     OW24651   5.976   0.872   5.475
74271SOL    HW124652   6.066   0.904   5.478
74271SOL    HW224653   5.922   0.951   5.481
74272SOL     OW24654   7.476   8.956   4.251
74272SOL    HW124655   7.541   9.026   4.242
74272SOL    HW224656   7.488   8.902   4.173
74273SOL     OW24657  13.964  12.698   3.747
74273SOL    HW124658  13.962  12.621   3.803
74273SOL    HW224659  14.056  12.722   3.741
74274SOL     OW24660  10.818   8.824  11.939
74274SOL    HW124661  10.793   8.771  11.863
74274SOL    HW224662  10.753   8.802  12.005
74275SOL     OW24663   3.342  13.815   6.918
74275SOL    HW124664   3.281  13.795   6.988
74275SOL    HW224665   3.334  13.909   6.904
74276SOL     OW24666  14.640  13.296   4.894
74276SOL    HW124667  14.580  13.341   4.953
74276SOL    HW224668  14.691  13.366   4.854
74277SOL     OW24669   9.948   7.013   7.977
74277SOL    HW124670   9.910   6.978   7.896
74277SOL    HW224671   9.878   7.009   8.041
74278SOL     OW24672   8.600   4.293  14.679
74278SOL    HW124673   8.594   4.375  14.630
74278SOL    HW224674   8.531   4.238  14.642
74279SOL     OW24675   6.504   4.094   8.583
74279SOL    HW124676   6.484   4.067   8.493
74279SOL    HW224677   6.441   4.046   8.636
74280SOL     OW24678   6.798  13.226  11.301
74280SOL    HW124679   6.893  13.212  11.306
74280SOL    HW224680   6.761  13.138  11.298
74281SOL     OW24681   1.264   2.687   0.773
74281SOL    HW124682   1.352   2.651   0.778
74281SOL    HW224683   1.250   2.704   0.680
74282SOL     OW24684  11.132   2.952   3.836
74282SOL    HW124685  11.094   2.957   3.748
74282SOL    HW224686  11.172   2.866   3.841
74283SOL     OW24687   9.816   9.303   5.223
74283SOL    HW124688   9.900   9.332   5.257
74283SOL    HW224689   9.825   9.207   5.217
74284SOL     OW24690   5.106   1.826   2.393
74284SOL    HW124691   5.154   1.909   2.396
74284SOL    HW224692   5.039   1.839   2.326
74285SOL     OW24693  13.681   9.975  11.305
74285SOL    HW124694  13.680   9.890  11.260
74285SOL    HW224695  13.762   9.975  11.356
74286SOL     OW24696  10.545   5.028   7.413
74286SOL    HW124697  10.480   5.028   7.483
74286SOL    HW224698  10.535   4.944   7.370
74287SOL     OW24699  14.407  12.393   2.521
74287SOL    HW124700  14.477  12.328   2.514
74287SOL    HW224701  14.351  12.359   2.591
74288SOL     OW24702   1.713   5.005  12.365
74288SOL    HW124703   1.628   4.966  12.386
74288SOL    HW224704   1.699   5.051  12.283
74289SOL     OW24705  11.897   6.557  13.070
74289SOL    HW124706  11.934   6.629  13.122
74289SOL    HW224707  11.968   6.493  13.066
74290SOL     OW24708   4.737  12.661   0.990
74290SOL    HW124709   4.694  12.655   0.905
74290SOL    HW224710   4.678  12.615   1.050
74291SOL     OW24711   1.452   4.422   0.124
74291SOL    HW124712   1.434   4.491   0.060
74291SOL    HW224713   1.396   4.443   0.199
74292SOL     OW24714   0.344   4.743  10.455
74292SOL    HW124715   0.391   4.824  10.437
74292SOL    HW224716   0.333   4.701  10.370
74293SOL     OW24717   7.127  12.912  13.023
74293SOL    HW124718   7.083  12.832  12.995
74293SOL    HW224719   7.215  12.884  13.049
74294SOL     OW24720  14.471   9.670   6.188
74294SOL    HW124721  14.490   9.687   6.096
74294SOL    HW224722  14.383   9.633   6.188
74295SOL     OW24723   8.658   2.952   4.873
74295SOL    HW124724   8.612   2.930   4.955
74295SOL    HW224725   8.632   3.043   4.856
74296SOL     OW24726   5.988   1.586  13.320
74296SOL    HW124727   6.074   1.604  13.357
74296SOL    HW224728   5.974   1.657  13.256
74297SOL     OW24729  12.684   2.259  13.755
74297SOL    HW124730  12.591   2.256  13.779
74297SOL    HW224731  12.724   2.186  13.802
74298SOL     OW24732  14.418   6.216   7.426
74298SOL    HW124733  14.371   6.206   7.343
74298SOL    HW224734  14.469   6.136   7.434
74299SOL     OW24735   1.738   2.409  12.291
74299SOL    HW124736   1.658   2.398  12.342
74299SOL    HW224737   1.743   2.330  12.238
74300SOL     OW24738   8.032   2.198   5.966
74300SOL    HW124739   8.062   2.247   6.042
74300SOL    HW224740   7.942   2.172   5.988
74301SOL     OW24741   0.204   8.745  10.329
74301SOL    HW124742   0.135   8.800  10.366
74301SOL    HW224743   0.158   8.669  10.294
74302SOL     OW24744   3.201   0.183   0.353
74302SOL    HW124745   3.210   0.145   0.266
74302SOL    HW224746   3.111   0.164   0.379
74303SOL     OW24747   5.403  10.463   3.651
74303SOL    HW124748   5.463  10.477   3.724
74303SOL    HW224749   5.437  10.386   3.606
74304SOL     OW24750   9.179   3.512  12.749
74304SOL    HW124751   9.159   3.447  12.816
74304SOL    HW224752   9.094   3.538  12.714
74305SOL     OW24753   2.344   9.119   6.143
74305SOL    HW124754   2.414   9.184   6.143
74305SOL    HW224755   2.276   9.157   6.088
74306SOL     OW24756   5.913  12.618   1.160
74306SOL    HW124757   5.906  12.624   1.256
74306SOL    HW224758   5.823  12.617   1.129
74307SOL     OW24759   8.938   9.032  11.746
74307SOL    HW124760   8.995   9.086  11.692
74307SOL    HW224761   8.850   9.062  11.725
74308SOL     OW24762   1.189   0.952   5.771
74308SOL    HW124763   1.147   0.866   5.773
74308SOL    HW224764   1.177   0.983   5.682
74309SOL     OW24765  11.086   9.330  10.674
74309SOL    HW124766  11.160   9.308  10.730
74309SOL    HW224767  11.056   9.246  10.640
74310SOL     OW24768  10.122   6.925   8.244
74310SOL    HW124769  10.144   6.971   8.162
74310SOL    HW224770  10.037   6.884   8.226
74311SOL     OW24771  12.256   4.530  13.682
74311SOL    HW124772  12.227   4.597  13.620
74311SOL    HW224773  12.197   4.540  13.757
74312SOL     OW24774   0.801  12.315  14.744
74312SOL    HW124775   0.843  12.356  14.820
74312SOL    HW224776   0.789  12.223  14.770
74313SOL     OW24777   8.505  12.785   5.036
74313SOL    HW124778   8.573  12.721   5.055
74313SOL    HW224779   8.437  12.736   4.990
74314SOL     OW24780  12.140  12.216   4.010
74314SOL    HW124781  12.212  12.170   3.967
74314SOL    HW224782  12.111  12.156   4.079
74315SOL     OW24783   5.897   2.338   5.069
74315SOL    HW124784   5.815   2.319   5.024
74315SOL    HW224785   5.872   2.389   5.145
74316SOL     OW24786   1.467   7.966  10.227
74316SOL    HW124787   1.419   7.904  10.282
74316SOL    HW224788   1.529   8.007  10.287
74317SOL     OW24789   5.118  14.470  10.065
74317SOL    HW124790   5.046  14.418  10.030
74317SOL    HW224791   5.194  14.411  10.063
74318SOL     OW24792   0.930  10.592  11.357
74318SOL    HW124793   0.910  10.652  11.284
74318SOL    HW224794   0.957  10.650  11.428
74319SOL     OW24795   6.105  12.483  12.245
74319SOL    HW124796   6.033  12.451  12.190
74319SOL    HW224797   6.132  12.406  12.295
74320SOL     OW24798   9.503   3.305   4.161
74320SOL    HW124799   9.479   3.346   4.078
74320SOL    HW224800   9.549   3.373   4.209
74321SOL     OW24801   6.327   3.673   9.551
74321SOL    HW124802   6.313   3.768   9.558
74321SOL    HW224803   6.377   3.650   9.629
74322SOL     OW24804   9.105  14.035   4.909
74322SOL    HW124805   9.183  14.006   4.958
74322SOL    HW224806   9.139  14.099   4.847
74323SOL     OW24807   7.110   8.228   9.618
74323SOL    HW124808   7.178   8.167   9.590
74323SOL    HW224809   7.035   8.173   9.639
74324SOL     OW24810   1.021  11.009  11.266
74324SOL    HW124811   1.110  10.979  11.248
74324SOL    HW224812   0.964  10.936  11.239
74325SOL     OW24813   6.926  13.852   9.531
74325SOL    HW124814   6.889  13.826   9.615
74325SOL    HW224815   6.929  13.948   9.534
74326SOL     OW24816   7.597   0.277  11.009
74326SOL    HW124817   7.518   0.295  10.959
74326SOL    HW224818   7.580   0.311  11.096
74327SOL     OW24819   0.284   3.495   0.767
74327SOL    HW124820   0.263   3.415   0.718
74327SOL    HW224821   0.203   3.546   0.765
74328SOL     OW24822   1.122  11.621   9.063
74328SOL    HW124823   1.151  11.653   8.978
74328SOL    HW224824   1.194  11.645   9.122
74329SOL     OW24825   2.531   1.686   4.686
74329SOL    HW124826   2.533   1.648   4.598
74329SOL    HW224827   2.469   1.758   4.680
74330SOL     OW24828   2.462  12.240   4.892
74330SOL    HW124829   2.416  12.305   4.838
74330SOL    HW224830   2.467  12.280   4.979
74331SOL     OW24831   9.700  10.855   3.793
74331SOL    HW124832   9.679  10.862   3.886
74331SOL    HW224833   9.764  10.924   3.777
74332SOL     OW24834  12.483   8.782  13.355
74332SOL    HW124835  12.515   8.764  13.443
74332SOL    HW224836  12.408   8.840  13.368
74333SOL     OW24837   5.390  10.780   5.479
74333SOL    HW124838   5.438  10.698   5.473
74333SOL    HW224839   5.303  10.760   5.444
74334SOL     OW24840   2.983  14.801   8.385
74334SOL    HW124841   3.045  14.874   8.381
74334SOL    HW224842   3.033  14.730   8.426
74335SOL     OW24843   0.273   9.791   9.292
74335SOL    HW124844   0.235   9.741   9.220
74335SOL    HW224845   0.233   9.754   9.371
74336SOL     OW24846   7.650   0.087  12.325
74336SOL    HW124847   7.688   0.015  12.275
74336SOL    HW224848   7.562   0.098  12.287
74337SOL     OW24849  12.048   3.092   0.534
74337SOL    HW124850  12.031   3.032   0.607
74337SOL    HW224851  12.053   3.179   0.575
74338SOL     OW24852  13.725   3.636   4.097
74338SOL    HW124853  13.737   3.705   4.163
74338SOL    HW224854  13.806   3.586   4.098
74339SOL     OW24855   4.337   6.658  10.646
74339SOL    HW124856   4.411   6.624  10.596
74339SOL    HW224857   4.331   6.601  10.723
74340SOL     OW24858   2.679   1.161   1.929
74340SOL    HW124859   2.699   1.100   1.858
74340SOL    HW224860   2.688   1.109   2.008
74341SOL     OW24861   3.902  10.783   6.109
74341SOL    HW124862   3.903  10.879   6.103
74341SOL    HW224863   3.810  10.759   6.094
74342SOL     OW24864  12.923  13.376   7.123
74342SOL    HW124865  12.881  13.434   7.059
74342SOL    HW224866  12.904  13.288   7.091
74343SOL     OW24867   8.079   6.942   0.714
74343SOL    HW124868   8.067   6.906   0.626
74343SOL    HW224869   8.098   7.035   0.699
74344SOL     OW24870  12.622  10.851   7.862
74344SOL    HW124871  12.641  10.899   7.943
74344SOL    HW224872  12.545  10.895   7.826
74345SOL     OW24873   0.066   0.887   0.833
74345SOL    HW124874   0.076   0.872   0.927
74345SOL    HW224875   0.114   0.968   0.816
74346SOL     OW24876  11.834  12.379  13.365
74346SOL    HW124877  11.898  12.448  13.383
74346SOL    HW224878  11.803  12.398  13.277
74347SOL     OW24879   2.089   0.247   8.085
74347SOL    HW124880   2.122   0.212   8.003
74347SOL    HW224881   2.096   0.174   8.147
74348SOL     OW24882   0.096  13.536  11.115
74348SOL    HW124883   0.025  13.594  11.090
74348SOL    HW224884   0.176  13.582  11.088
74349SOL     OW24885   5.362   8.493   8.585
74349SOL    HW124886   5.352   8.437   8.662
74349SOL    HW224887   5.456   8.507   8.577
74350SOL     OW24888  13.795   3.170   1.858
74350SOL    HW124889  13.796   3.125   1.774
74350SOL    HW224890  13.886   3.170   1.887
74351SOL     OW24891   9.700  14.087   4.577
74351SOL    HW124892   9.745  14.149   4.635
74351SOL    HW224893   9.763  14.016   4.565
74352SOL     OW24894   6.929   7.367   9.947
74352SOL    HW124895   6.849   7.373  10.000
74352SOL    HW224896   6.969   7.454   9.955
74353SOL     OW24897   6.488   0.765   7.832
74353SOL    HW124898   6.397   0.793   7.820
74353SOL    HW224899   6.491   0.677   7.796
74354SOL     OW24900  12.703  10.741   0.495
74354SOL    HW124901  12.700  10.727   0.590
74354SOL    HW224902  12.721  10.834   0.484
74355SOL     OW24903   2.289  12.229   4.035
74355SOL    HW124904   2.267  12.233   3.942
74355SOL    HW224905   2.216  12.274   4.079
74356SOL     OW24906  10.112  10.791   6.172
74356SOL    HW124907  10.125  10.714   6.118
74356SOL    HW224908  10.130  10.761   6.261
74357SOL     OW24909  12.140   0.376  14.061
74357SOL    HW124910  12.050   0.394  14.034
74357SOL    HW224911  12.193   0.434  14.006
74358SOL     OW24912   9.045   9.402  11.217
74358SOL    HW124913   8.997   9.458  11.277
74358SOL    HW224914   9.088   9.337  11.274
74359SOL     OW24915   9.120   8.029  11.322
74359SOL    HW124916   9.083   7.968  11.259
74359SOL    HW224917   9.070   8.013  11.403
74360SOL     OW24918  10.988   8.902   9.951
74360SOL    HW124919  11.047   8.912   9.877
74360SOL    HW224920  10.931   8.979   9.948
74361SOL     OW24921   0.007   0.991  14.293
74361SOL    HW124922   0.064   1.022  14.363
74361SOL    HW224923  14.805   1.041  14.303
74362SOL     OW24924   9.378  12.723   1.167
74362SOL    HW124925   9.397  12.643   1.119
74362SOL    HW224926   9.340  12.782   1.102
74363SOL     OW24927   9.251   7.301   9.573
74363SOL    HW124928   9.240   7.394   9.593
74363SOL    HW224929   9.190   7.256   9.631
74364SOL     OW24930   8.500  12.599  12.137
74364SOL    HW124931   8.454  12.662  12.192
74364SOL    HW224932   8.478  12.514  12.175
74365SOL     OW24933   8.166   0.642   4.689
74365SOL    HW124934   8.221   0.705   4.642
74365SOL    HW224935   8.212   0.558   4.678
74366SOL     OW24936   7.673   1.609   0.448
74366SOL    HW124937   7.664   1.532   0.392
74366SOL    HW224938   7.708   1.575   0.531
74367SOL     OW24939   7.928  14.167  13.766
74367SOL    HW124940   7.989  14.241  13.760
74367SOL    HW224941   7.887  14.163  13.680
74368SOL     OW24942   6.035   1.227   7.710
74368SOL    HW124943   5.973   1.257   7.644
74368SOL    HW224944   6.114   1.205   7.661
74369SOL     OW24945   5.898   3.755   3.366
74369SOL    HW124946   5.960   3.691   3.401
74369SOL    HW224947   5.813   3.727   3.401
74370SOL     OW24948   8.056   1.536   3.846
74370SOL    HW124949   8.052   1.457   3.793
74370SOL    HW224950   7.999   1.599   3.801
74371SOL     OW24951   8.114  14.571   9.408
74371SOL    HW124952   8.019  14.574   9.399
74371SOL    HW224953   8.133  14.481   9.436
74372SOL     OW24954   2.302   3.462   5.782
74372SOL    HW124955   2.267   3.374   5.787
74372SOL    HW224956   2.319   3.477   5.689
74373SOL     OW24957  10.265   5.645   6.750
74373SOL    HW124958  10.250   5.692   6.832
74373SOL    HW224959  10.237   5.706   6.682
74374SOL     OW24960   4.365  11.476   7.642
74374SOL    HW124961   4.411  11.396   7.665
74374SOL    HW224962   4.312  11.452   7.566
74375SOL     OW24963   3.438  14.807   4.022
74375SOL    HW124964   3.487  14.753   4.084
74375SOL    HW224965   3.474  14.784   3.936
74376SOL     OW24966  13.026  14.202   0.242
74376SOL    HW124967  12.955  14.258   0.210
74376SOL    HW224968  13.104  14.256   0.233
74377SOL     OW24969   8.237  11.099  13.349
74377SOL    HW124970   8.303  11.051  13.298
74377SOL    HW224971   8.273  11.188  13.356
74378SOL     OW24972   0.813   6.815  11.058
74378SOL    HW124973   0.885   6.817  11.121
74378SOL    HW224974   0.803   6.722  11.036
74379SOL     OW24975   0.310  10.347   2.244
74379SOL    HW124976   0.347  10.383   2.163
74379SOL    HW224977   0.349  10.400   2.313
74380SOL     OW24978   2.594   5.294   9.474
74380SOL    HW124979   2.651   5.264   9.545
74380SOL    HW224980   2.646   5.360   9.428
74381SOL     OW24981   1.708   7.879   8.384
74381SOL    HW124982   1.780   7.836   8.430
74381SOL    HW224983   1.740   7.892   8.295
74382SOL     OW24984   3.539  13.642  11.048
74382SOL    HW124985   3.545  13.630  11.143
74382SOL    HW224986   3.488  13.723  11.038
74383SOL     OW24987   7.402  12.027  12.857
74383SOL    HW124988   7.474  12.049  12.917
74383SOL    HW224989   7.446  12.008  12.774
74384SOL     OW24990   9.332  10.000   4.379
74384SOL    HW124991   9.296  10.061   4.444
74384SOL    HW224992   9.284  10.019   4.299
74385SOL     OW24993   3.176  11.288  12.626
74385SOL    HW124994   3.164  11.197  12.653
74385SOL    HW224995   3.137  11.293  12.539
74386SOL     OW24996  13.510   9.251   4.981
74386SOL    HW124997  13.429   9.295   4.955
74386SOL    HW224998  13.514   9.262   5.076
74387SOL     OW24999  10.350  13.582   4.038
74387SOL    HW125000  10.424  13.560   4.093
74387SOL    HW225001  10.321  13.498   4.002
74388SOL     OW25002   4.310  10.970  10.518
74388SOL    HW125003   4.395  10.960  10.562
74388SOL    HW225004   4.321  11.046  10.461
74389SOL     OW25005   1.155  11.553   9.994
74389SOL    HW125006   1.116  11.635   9.963
74389SOL    HW225007   1.183  11.508   9.914
74390SOL     OW25008  10.222   7.035   0.156
74390SOL    HW125009  10.157   6.971   0.128
74390SOL    HW225010  10.295   6.982   0.188
74391SOL     OW25011   2.407  12.287  13.661
74391SOL    HW125012   2.351  12.364  13.657
74391SOL    HW225013   2.346  12.214  13.671
74392SOL     OW25014  12.941   0.089  14.597
74392SOL    HW125015  12.857   0.047  14.577
74392SOL    HW225016  12.959   0.145  14.521
74393SOL     OW25017   7.926  13.587   1.368
74393SOL    HW125018   7.998  13.631   1.412
74393SOL    HW225019   7.861  13.656   1.352
74394SOL     OW25020   4.602  10.063   0.945
74394SOL    HW125021   4.589   9.979   0.989
74394SOL    HW225022   4.697  10.074   0.941
74395SOL     OW25023   8.256   7.373   2.479
74395SOL    HW125024   8.217   7.460   2.483
74395SOL    HW225025   8.213   7.324   2.550
74396SOL     OW25026   3.717  13.479  11.624
74396SOL    HW125027   3.716  13.565  11.583
74396SOL    HW225028   3.810  13.459  11.636
74397SOL     OW25029  10.100  10.859   2.640
74397SOL    HW125030  10.135  10.908   2.565
74397SOL    HW225031  10.023  10.814   2.605
74398SOL     OW25032  11.461   5.111   3.394
74398SOL    HW125033  11.382   5.110   3.448
74398SOL    HW225034  11.524   5.162   3.445
74399SOL     OW25035   4.638   7.229   2.013
74399SOL    HW125036   4.689   7.149   2.022
74399SOL    HW225037   4.698   7.299   2.035
74400SOL     OW25038  13.412   6.928  14.076
74400SOL    HW125039  13.353   6.952  14.004
74400SOL    HW225040  13.495   6.908  14.033
74401SOL     OW25041  10.659   9.351  12.466
74401SOL    HW125042  10.664   9.256  12.471
74401SOL    HW225043  10.698   9.382  12.547
74402SOL     OW25044   4.472  14.050   7.977
74402SOL    HW125045   4.510  14.124   8.023
74402SOL    HW225046   4.506  13.973   8.023
74403SOL     OW25047  12.798  12.032  10.826
74403SOL    HW125048  12.845  11.999  10.749
74403SOL    HW225049  12.863  12.028  10.897
74404SOL     OW25050   3.340   5.208   2.630
74404SOL    HW125051   3.407   5.193   2.563
74404SOL    HW225052   3.274   5.261   2.586
74405SOL     OW25053   2.862  13.980   2.679
74405SOL    HW125054   2.948  14.013   2.704
74405SOL    HW225055   2.816  14.056   2.643
74406SOL     OW25056  10.295  10.479   7.156
74406SOL    HW125057  10.322  10.545   7.092
74406SOL    HW225058  10.337  10.398   7.126
74407SOL     OW25059   3.466   3.715  11.128
74407SOL    HW125060   3.460   3.633  11.079
74407SOL    HW225061   3.507   3.777  11.068
74408SOL     OW25062   0.466   8.129   4.499
74408SOL    HW125063   0.407   8.178   4.556
74408SOL    HW225064   0.419   8.122   4.416
74409SOL     OW25065   7.711   6.492   6.391
74409SOL    HW125066   7.761   6.563   6.350
74409SOL    HW225067   7.738   6.494   6.483
74410SOL     OW25068   1.802  11.148  11.092
74410SOL    HW125069   1.868  11.137  11.160
74410SOL    HW225070   1.852  11.163  11.012
74411SOL     OW25071  10.880   5.653   0.303
74411SOL    HW125072  10.805   5.640   0.362
74411SOL    HW225073  10.840   5.681   0.221
74412SOL     OW25074   1.211   5.180  12.778
74412SOL    HW125075   1.195   5.233  12.857
74412SOL    HW225076   1.155   5.219  12.711
74413SOL     OW25077   1.905  13.574   2.930
74413SOL    HW125078   1.935  13.538   2.846
74413SOL    HW225079   1.915  13.668   2.922
74414SOL     OW25080   5.966   7.920   5.760
74414SOL    HW125081   6.029   7.848   5.771
74414SOL    HW225082   6.020   7.994   5.729
74415SOL     OW25083   3.527   9.670   1.526
74415SOL    HW125084   3.533   9.578   1.501
74415SOL    HW225085   3.557   9.673   1.617
74416SOL     OW25086   1.536   4.498  13.923
74416SOL    HW125087   1.564   4.462  14.008
74416SOL    HW225088   1.571   4.436  13.859
74417SOL     OW25089  11.142  11.458   7.863
74417SOL    HW125090  11.064  11.484   7.814
74417SOL    HW225091  11.176  11.383   7.814
74418SOL     OW25092   3.354   8.321  13.047
74418SOL    HW125093   3.421   8.351  13.109
74418SOL    HW225094   3.271   8.344  13.089
74419SOL     OW25095   5.383   2.015  13.881
74419SOL    HW125096   5.387   2.111  13.876
74419SOL    HW225097   5.457   1.985  13.829
74420SOL     OW25098   4.500   2.592   0.388
74420SOL    HW125099   4.471   2.521   0.446
74420SOL    HW225100   4.421   2.620   0.342
74421SOL     OW25101   7.079   9.256   0.846
74421SOL    HW125102   7.017   9.192   0.881
74421SOL    HW225103   7.150   9.203   0.810
74422SOL     OW25104   2.450  10.287   9.944
74422SOL    HW125105   2.476  10.203   9.906
74422SOL    HW225106   2.498  10.292  10.026
74423SOL     OW25107  10.124   7.306   0.073
74423SOL    HW125108  10.133   7.217   0.108
74423SOL    HW225109  10.213   7.329   0.044
74424SOL     OW25110   3.383   1.088   6.416
74424SOL    HW125111   3.457   1.079   6.356
74424SOL    HW225112   3.374   1.001   6.455
74425SOL     OW25113   1.188  11.047   1.209
74425SOL    HW125114   1.108  11.064   1.259
74425SOL    HW225115   1.257  11.047   1.275
74426SOL     OW25116   6.287   6.745  11.684
74426SOL    HW125117   6.202   6.789  11.684
74426SOL    HW225118   6.279   6.679  11.615
74427SOL     OW25119  13.618   9.856   8.688
74427SOL    HW125120  13.678   9.792   8.725
74427SOL    HW225121  13.577   9.897   8.765
74428SOL     OW25122   5.355   5.831  11.421
74428SOL    HW125123   5.299   5.862  11.492
74428SOL    HW225124   5.294   5.795  11.357
74429SOL     OW25125   8.052  13.633   2.065
74429SOL    HW125126   8.145  13.617   2.083
74429SOL    HW225127   8.018  13.549   2.035
74430SOL     OW25128   7.108  13.548  12.683
74430SOL    HW125129   7.054  13.494  12.742
74430SOL    HW225130   7.101  13.504  12.598
74431SOL     OW25131   8.721   6.308   2.464
74431SOL    HW125132   8.747   6.261   2.543
74431SOL    HW225133   8.633   6.274   2.444
74432SOL     OW25134   8.142   0.902  11.929
74432SOL    HW125135   8.098   0.821  11.952
74432SOL    HW225136   8.233   0.888  11.955
74433SOL     OW25137   9.557   1.537   4.967
74433SOL    HW125138   9.485   1.532   5.029
74433SOL    HW225139   9.610   1.459   4.984
74434SOL     OW25140   4.622   2.502   4.851
74434SOL    HW125141   4.656   2.495   4.761
74434SOL    HW225142   4.527   2.499   4.841
74435SOL     OW25143  12.268   8.078   5.043
74435SOL    HW125144  12.179   8.047   5.029
74435SOL    HW225145  12.275   8.157   4.990
74436SOL     OW25146  13.711  10.800  13.302
74436SOL    HW125147  13.739  10.886  13.332
74436SOL    HW225148  13.615  10.805  13.302
74437SOL     OW25149  14.415   3.022   6.971
74437SOL    HW125150  14.490   2.972   7.003
74437SOL    HW225151  14.360   3.034   7.049
74438SOL     OW25152   7.539   7.866   5.845
74438SOL    HW125153   7.475   7.933   5.867
74438SOL    HW225154   7.603   7.869   5.915
74439SOL     OW25155   9.438   5.512   2.694
74439SOL    HW125156   9.491   5.591   2.708
74439SOL    HW225157   9.443   5.465   2.778
74440SOL     OW25158  14.586   3.740   8.559
74440SOL    HW125159  14.641   3.719   8.483
74440SOL    HW225160  14.588   3.661   8.612
74441SOL     OW25161   2.970   7.632  10.926
74441SOL    HW125162   3.008   7.594  11.005
74441SOL    HW225163   2.917   7.562  10.888
74442SOL     OW25164  10.460   1.539   8.081
74442SOL    HW125165  10.382   1.579   8.042
74442SOL    HW225166  10.489   1.476   8.016
74443SOL     OW25167   4.113   4.489  12.308
74443SOL    HW125168   4.103   4.453  12.396
74443SOL    HW225169   4.177   4.432  12.266
74444SOL     OW25170   5.148   0.901  13.888
74444SOL    HW125171   5.216   0.895  13.821
74444SOL    HW225172   5.159   0.822  13.941
74445SOL     OW25173   5.969   1.253  14.224
74445SOL    HW125174   5.963   1.345  14.198
74445SOL    HW225175   6.061   1.239  14.243
74446SOL     OW25176   7.989   4.141  13.979
74446SOL    HW125177   7.987   4.188  14.063
74446SOL    HW225178   8.030   4.202  13.918
74447SOL     OW25179  14.257   5.155   2.261
74447SOL    HW125180  14.233   5.133   2.351
74447SOL    HW225181  14.212   5.089   2.208
74448SOL     OW25182   5.596  10.208   5.356
74448SOL    HW125183   5.677  10.183   5.400
74448SOL    HW225184   5.539  10.239   5.427
74449SOL     OW25185   3.544   1.362   8.770
74449SOL    HW125186   3.525   1.323   8.855
74449SOL    HW225187   3.599   1.437   8.790
74450SOL     OW25188   6.442  13.163   7.225
74450SOL    HW125189   6.394  13.152   7.143
74450SOL    HW225190   6.378  13.202   7.285
74451SOL     OW25191  12.654   4.829   6.363
74451SOL    HW125192  12.650   4.917   6.400
74451SOL    HW225193  12.746   4.818   6.338
74452SOL     OW25194  13.703   8.563   4.881
74452SOL    HW125195  13.642   8.489   4.892
74452SOL    HW225196  13.768   8.531   4.818
74453SOL     OW25197   8.089  12.529  13.339
74453SOL    HW125198   8.068  12.485  13.422
74453SOL    HW225199   8.185  12.525  13.333
74454SOL     OW25200  14.227   5.638   6.376
74454SOL    HW125201  14.319   5.666   6.371
74454SOL    HW225202  14.232   5.545   6.395
74455SOL     OW25203  12.699   6.160   4.723
74455SOL    HW125204  12.634   6.105   4.767
74455SOL    HW225205  12.648   6.227   4.679
74456SOL     OW25206   9.327  10.733   2.085
74456SOL    HW125207   9.392  10.802   2.098
74456SOL    HW225208   9.248  10.779   2.058
74457SOL     OW25209   5.648  13.882   7.432
74457SOL    HW125210   5.686  13.900   7.518
74457SOL    HW225211   5.704  13.929   7.370
74458SOL     OW25212   4.028   7.286   1.538
74458SOL    HW125213   4.064   7.351   1.478
74458SOL    HW225214   4.101   7.264   1.596
74459SOL     OW25215   2.965  12.640   1.840
74459SOL    HW125216   2.896  12.706   1.846
74459SOL    HW225217   2.955  12.603   1.753
74460SOL     OW25218   0.982   6.399   4.320
74460SOL    HW125219   0.961   6.492   4.331
74460SOL    HW225220   0.954   6.358   4.402
74461SOL     OW25221  10.203   8.114  14.812
74461SOL    HW125222  10.279   8.108  14.754
74461SOL    HW225223  10.238   8.148   0.015
74462SOL     OW25224  13.047   0.609  10.052
74462SOL    HW125225  12.992   0.657  10.113
74462SOL    HW225226  12.986   0.562   9.995
74463SOL     OW25227   2.614   2.570   6.591
74463SOL    HW125228   2.587   2.479   6.580
74463SOL    HW225229   2.655   2.573   6.677
74464SOL     OW25230   3.612   9.819   9.814
74464SOL    HW125231   3.682   9.823   9.750
74464SOL    HW225232   3.559   9.743   9.787
74465SOL     OW25233   8.851  14.417  11.636
74465SOL    HW125234   8.782  14.368  11.591
74465SOL    HW225235   8.803  14.483  11.687
74466SOL     OW25236  13.928   7.568   5.192
74466SOL    HW125237  13.853   7.513   5.166
74466SOL    HW225238  14.004   7.521   5.158
74467SOL     OW25239  13.389  12.170   2.942
74467SOL    HW125240  13.293  12.166   2.945
74467SOL    HW225241  13.410  12.263   2.938
74468SOL     OW25242   2.552   7.784  10.126
74468SOL    HW125243   2.593   7.713  10.077
74468SOL    HW225244   2.463   7.788  10.092
74469SOL     OW25245   1.361   0.081   4.921
74469SOL    HW125246   1.322   0.158   4.963
74469SOL    HW225247   1.451   0.079   4.952
74470SOL     OW25248   9.159   5.907   0.966
74470SOL    HW125249   9.083   5.887   0.911
74470SOL    HW225250   9.234   5.871   0.918
74471SOL     OW25251   3.806  10.309   1.826
74471SOL    HW125252   3.734  10.247   1.832
74471SOL    HW225253   3.764  10.392   1.806
74472SOL     OW25254   8.832   7.338   4.448
74472SOL    HW125255   8.781   7.260   4.467
74472SOL    HW225256   8.923   7.311   4.458
74473SOL     OW25257   8.156   3.222   3.657
74473SOL    HW125258   8.229   3.162   3.644
74473SOL    HW225259   8.144   3.264   3.572
74474SOL     OW25260   8.048   7.833   9.443
74474SOL    HW125261   8.016   7.779   9.370
74474SOL    HW225262   7.976   7.831   9.507
74475SOL     OW25263   8.206  10.805   0.838
74475SOL    HW125264   8.148  10.735   0.868
74475SOL    HW225265   8.284  10.759   0.806
74476SOL     OW25266   7.543   7.806  13.332
74476SOL    HW125267   7.590   7.888  13.322
74476SOL    HW225268   7.452   7.832  13.347
74477SOL     OW25269  10.435   5.449   2.734
74477SOL    HW125270  10.374   5.445   2.660
74477SOL    HW225271  10.382   5.422   2.810
74478SOL     OW25272   5.223   6.005   7.472
74478SOL    HW125273   5.220   6.053   7.389
74478SOL    HW225274   5.180   5.922   7.454
74479SOL     OW25275   4.045  14.153  10.736
74479SOL    HW125276   4.022  14.097  10.662
74479SOL    HW225277   4.099  14.222  10.698
74480SOL     OW25278  13.173   5.032   7.515
74480SOL    HW125279  13.099   5.079   7.555
74480SOL    HW225280  13.230   5.010   7.589
74481SOL     OW25281   7.202   8.083   4.018
74481SOL    HW125282   7.261   8.108   4.090
74481SOL    HW225283   7.249   8.014   3.971
74482SOL     OW25284   1.003  13.986  13.516
74482SOL    HW125285   1.060  13.981  13.592
74482SOL    HW225286   0.949  14.064  13.530
74483SOL     OW25287   3.037  11.972   7.868
74483SOL    HW125288   2.954  11.950   7.826
74483SOL    HW225289   3.036  11.922   7.950
74484SOL     OW25290   6.492   1.202   3.669
74484SOL    HW125291   6.484   1.115   3.709
74484SOL    HW225292   6.463   1.263   3.737
74485SOL     OW25293   0.983   0.444  13.594
74485SOL    HW125294   0.908   0.384  13.586
74485SOL    HW225295   0.972   0.506  13.522
74486SOL     OW25296   9.652   1.086   9.390
74486SOL    HW125297   9.655   1.158   9.326
74486SOL    HW225298   9.571   1.040   9.369
74487SOL     OW25299   3.325   7.298  11.388
74487SOL    HW125300   3.337   7.247  11.468
74487SOL    HW225301   3.237   7.335  11.396
74488SOL     OW25302  14.006   1.151   2.258
74488SOL    HW125303  14.029   1.244   2.253
74488SOL    HW225304  14.027   1.126   2.348
74489SOL     OW25305   2.994  12.961   0.723
74489SOL    HW125306   3.031  12.994   0.640
74489SOL    HW225307   2.916  12.913   0.697
74490SOL     OW25308   9.041   8.118   3.436
74490SOL    HW125309   9.122   8.169   3.435
74490SOL    HW225310   8.976   8.177   3.474
74491SOL     OW25311  11.003   6.532   8.686
74491SOL    HW125312  11.063   6.461   8.709
74491SOL    HW225313  11.060   6.599   8.647
74492SOL     OW25314   8.868  12.333   8.120
74492SOL    HW125315   8.844  12.276   8.047
74492SOL    HW225316   8.959  12.357   8.103
74493SOL     OW25317   7.264   1.380   4.225
74493SOL    HW125318   7.358   1.396   4.235
74493SOL    HW225319   7.240   1.330   4.304
74494SOL     OW25320   4.718   8.107  14.298
74494SOL    HW125321   4.697   8.142  14.212
74494SOL    HW225322   4.701   8.180  14.358
74495SOL     OW25323  11.758   9.333   5.763
74495SOL    HW125324  11.728   9.315   5.674
74495SOL    HW225325  11.678   9.348   5.813
74496SOL     OW25326   7.204   4.155   1.802
74496SOL    HW125327   7.172   4.068   1.824
74496SOL    HW225328   7.158   4.213   1.863
74497SOL     OW25329   4.381   6.378  13.434
74497SOL    HW125330   4.436   6.303  13.412
74497SOL    HW225331   4.438   6.434  13.487
74498SOL     OW25332   7.415   6.493   2.578
74498SOL    HW125333   7.452   6.559   2.520
74498SOL    HW225334   7.428   6.527   2.666
74499SOL     OW25335   5.143   3.332   2.719
74499SOL    HW125336   5.107   3.278   2.788
74499SOL    HW225337   5.079   3.328   2.648
74500SOL     OW25338  14.497  12.991  10.180
74500SOL    HW125339  14.425  13.011  10.119
74500SOL    HW225340  14.517  12.899  10.164
74501SOL     OW25341   0.073   0.118   4.996
74501SOL    HW125342   0.093   0.187   4.933
74501SOL    HW225343   0.022   0.162   5.065
74502SOL     OW25344   2.184   8.254   7.404
74502SOL    HW125345   2.178   8.228   7.312
74502SOL    HW225346   2.096   8.239   7.439
74503SOL     OW25347   8.928   1.484   0.062
74503SOL    HW125348   8.923   1.544   0.136
74503SOL    HW225349   9.022   1.482   0.040
74504SOL     OW25350  14.112  10.438   5.538
74504SOL    HW125351  14.055  10.421   5.613
74504SOL    HW225352  14.193  10.390   5.559
74505SOL     OW25353   2.457   1.928   9.183
74505SOL    HW125354   2.481   1.850   9.133
74505SOL    HW225355   2.361   1.931   9.179
74506SOL     OW25356   5.337   7.147   3.048
74506SOL    HW125357   5.383   7.167   2.967
74506SOL    HW225358   5.352   7.224   3.104
74507SOL     OW25359   1.721   9.908   7.875
74507SOL    HW125360   1.809   9.884   7.847
74507SOL    HW225361   1.734   9.959   7.955
74508SOL     OW25362   9.724   2.479  11.045
74508SOL    HW125363   9.732   2.561  10.996
74508SOL    HW225364   9.638   2.444  11.020
74509SOL     OW25365  14.282   7.348  14.003
74509SOL    HW125366  14.191   7.362  14.028
74509SOL    HW225367  14.294   7.401  13.924
74510SOL     OW25368  10.850  11.269   6.908
74510SOL    HW125369  10.887  11.281   6.821
74510SOL    HW225370  10.866  11.351   6.953
74511SOL     OW25371  10.958   4.752   0.597
74511SOL    HW125372  11.046   4.755   0.560
74511SOL    HW225373  10.920   4.672   0.563
74512SOL     OW25374   2.589   7.715   9.757
74512SOL    HW125375   2.553   7.651   9.819
74512SOL    HW225376   2.546   7.797   9.779
74513SOL     OW25377   8.099  12.044  11.411
74513SOL    HW125378   8.066  12.090  11.489
74513SOL    HW225379   8.116  11.955  11.442
74514SOL     OW25380  10.842   5.874   6.557
74514SOL    HW125381  10.792   5.935   6.503
74514SOL    HW225382  10.779   5.843   6.622
74515SOL     OW25383  13.168  13.790   4.525
74515SOL    HW125384  13.214  13.817   4.605
74515SOL    HW225385  13.183  13.861   4.463
74516SOL     OW25386  10.728  11.559  11.398
74516SOL    HW125387  10.776  11.530  11.475
74516SOL    HW225388  10.742  11.654  11.395
74517SOL     OW25389   5.362   2.198   3.170
74517SOL    HW125390   5.375   2.267   3.105
74517SOL    HW225391   5.277   2.161   3.149
74518SOL     OW25392   2.880  10.177   0.910
74518SOL    HW125393   2.894  10.271   0.918
74518SOL    HW225394   2.859  10.162   0.818
74519SOL     OW25395   9.305   4.812   0.463
74519SOL    HW125396   9.345   4.858   0.537
74519SOL    HW225397   9.344   4.853   0.386
74520SOL     OW25398  13.990  14.123   4.881
74520SOL    HW125399  13.972  14.102   4.789
74520SOL    HW225400  14.059  14.062   4.906
74521SOL     OW25401   4.834   3.865   8.598
74521SOL    HW125402   4.836   3.911   8.515
74521SOL    HW225403   4.776   3.790   8.582
74522SOL     OW25404   6.375  11.492   5.761
74522SOL    HW125405   6.375  11.582   5.729
74522SOL    HW225406   6.318  11.446   5.700
74523SOL     OW25407   4.187  10.800  10.852
74523SOL    HW125408   4.279  10.794  10.824
74523SOL    HW225409   4.139  10.750  10.787
74524SOL     OW25410   1.919   3.497   2.439
74524SOL    HW125411   1.992   3.435   2.449
74524SOL    HW225412   1.959   3.583   2.453
74525SOL     OW25413   7.737   5.584  10.467
74525SOL    HW125414   7.751   5.550  10.555
74525SOL    HW225415   7.825   5.598  10.432
74526SOL     OW25416  12.267  13.876  11.687
74526SOL    HW125417  12.276  13.947  11.751
74526SOL    HW225418  12.190  13.900  11.635
74527SOL     OW25419   3.856   3.338  12.871
74527SOL    HW125420   3.858   3.342  12.775
74527SOL    HW225421   3.764   3.346  12.894
74528SOL     OW25422   6.389   1.454   2.394
74528SOL    HW125423   6.345   1.528   2.438
74528SOL    HW225424   6.477   1.453   2.430
74529SOL     OW25425   2.642   7.437   0.233
74529SOL    HW125426   2.627   7.404   0.322
74529SOL    HW225427   2.737   7.443   0.226
74530SOL     OW25428   9.952   1.758   0.395
74530SOL    HW125429  10.007   1.793   0.325
74530SOL    HW225430  10.010   1.697   0.442
74531SOL     OW25431   9.593   7.628  10.572
74531SOL    HW125432   9.682   7.658  10.552
74531SOL    HW225433   9.606   7.560  10.638
74532SOL     OW25434  14.098   4.495  11.711
74532SOL    HW125435  14.120   4.480  11.803
74532SOL    HW225436  14.095   4.407  11.673
74533SOL     OW25437   6.824  13.921  12.751
74533SOL    HW125438   6.738  13.913  12.711
74533SOL    HW225439   6.813  13.886  12.839
74534SOL     OW25440  11.199   3.571  13.902
74534SOL    HW125441  11.207   3.534  13.990
74534SOL    HW225442  11.112   3.612  13.902
74535SOL     OW25443  11.712   4.948  10.664
74535SOL    HW125444  11.794   4.989  10.691
74535SOL    HW225445  11.732   4.909  10.579
74536SOL     OW25446   4.306  10.782   5.908
74536SOL    HW125447   4.291  10.748   5.997
74536SOL    HW225448   4.223  10.769   5.863
74537SOL     OW25449   1.882   6.263   0.047
74537SOL    HW125450   1.956   6.323   0.035
74537SOL    HW225451   1.850   6.248  14.838
74538SOL     OW25452  14.267   4.872   7.451
74538SOL    HW125453  14.173   4.892   7.448
74538SOL    HW225454  14.271   4.782   7.486
74539SOL     OW25455   4.134  12.840  14.635
74539SOL    HW125456   4.165  12.922  14.597
74539SOL    HW225457   4.194  12.774  14.602
74540SOL     OW25458   4.441   9.825  11.651
74540SOL    HW125459   4.368   9.764  11.637
74540SOL    HW225460   4.401   9.902  11.691
74541SOL     OW25461   3.501  14.067  11.280
74541SOL    HW125462   3.569  14.103  11.337
74541SOL    HW225463   3.435  14.135  11.276
74542SOL     OW25464  14.615  11.423  12.935
74542SOL    HW125465  14.623  11.419  13.030
74542SOL    HW225466  14.545  11.361  12.915
74543SOL     OW25467   1.126  12.447  13.907
74543SOL    HW125468   1.204  12.395  13.886
74543SOL    HW225469   1.135  12.525  13.853
74544SOL     OW25470   1.187   3.126   6.078
74544SOL    HW125471   1.234   3.051   6.042
74544SOL    HW225472   1.104   3.090   6.109
74545SOL     OW25473   0.892  10.089   8.490
74545SOL    HW125474   0.928  10.009   8.452
74545SOL    HW225475   0.866  10.064   8.579
74546SOL     OW25476   9.067  13.697  10.616
74546SOL    HW125477   8.981  13.696  10.659
74546SOL    HW225478   9.119  13.759  10.667
74547SOL     OW25479   1.859  14.561  10.789
74547SOL    HW125480   1.808  14.548  10.869
74547SOL    HW225481   1.848  14.479  10.741
74548SOL     OW25482  12.332  12.244   2.843
74548SOL    HW125483  12.395  12.303   2.802
74548SOL    HW225484  12.301  12.292   2.920
74549SOL     OW25485   0.668   9.213  10.444
74549SOL    HW125486   0.689   9.303  10.418
74549SOL    HW225487   0.575   9.217  10.467
74550SOL     OW25488   3.626  10.442   7.752
74550SOL    HW125489   3.559  10.374   7.764
74550SOL    HW225490   3.702  10.411   7.800
74551SOL     OW25491   0.290  13.184   4.642
74551SOL    HW125492   0.310  13.091   4.650
74551SOL    HW225493   0.207  13.195   4.688
74552SOL     OW25494   1.869   2.799   3.546
74552SOL    HW125495   1.858   2.704   3.556
74552SOL    HW225496   1.821   2.836   3.620
74553SOL     OW25497   8.686  11.617  13.431
74553SOL    HW125498   8.702  11.538  13.379
74553SOL    HW225499   8.730  11.687  13.383
74554SOL     OW25500   0.557  13.202   8.682
74554SOL    HW125501   0.498  13.276   8.665
74554SOL    HW225502   0.510  13.126   8.648
74555SOL     OW25503  10.408  11.387   5.691
74555SOL    HW125504  10.323  11.351   5.716
74555SOL    HW225505  10.394  11.420   5.602
74556SOL     OW25506   3.086  11.972   2.328
74556SOL    HW125507   3.133  11.889   2.334
74556SOL    HW225508   3.104  12.017   2.410
74557SOL     OW25509  11.842   0.052   5.468
74557SOL    HW125510  11.820  14.876   5.393
74557SOL    HW225511  11.778   0.123   5.465
74558SOL     OW25512  11.810  13.001  12.395
74558SOL    HW125513  11.794  12.977  12.303
74558SOL    HW225514  11.861  13.082  12.389
74559SOL     OW25515   0.678   5.367   8.484
74559SOL    HW125516   0.605   5.428   8.476
74559SOL    HW225517   0.731   5.382   8.405
74560SOL     OW25518  12.596  12.900   0.958
74560SOL    HW125519  12.521  12.861   1.004
74560SOL    HW225520  12.665  12.834   0.964
74561SOL     OW25521   2.779  14.210   6.213
74561SOL    HW125522   2.699  14.222   6.161
74561SOL    HW225523   2.830  14.145   6.163
74562SOL     OW25524   0.369  12.866  14.129
74562SOL    HW125525   0.374  12.842  14.036
74562SOL    HW225526   0.453  12.839  14.165
74563SOL     OW25527  11.597   5.025  10.889
74563SOL    HW125528  11.504   5.002  10.896
74563SOL    HW225529  11.626   4.981  10.809
74564SOL     OW25530   9.949  13.563  14.376
74564SOL    HW125531   9.876  13.503  14.364
74564SOL    HW225532  10.019  13.527  14.321
74565SOL     OW25533  12.287   3.822   4.803
74565SOL    HW125534  12.217   3.809   4.739
74565SOL    HW225535  12.349   3.751   4.786
74566SOL     OW25536   8.700   9.778   8.137
74566SOL    HW125537   8.606   9.763   8.143
74566SOL    HW225538   8.733   9.763   8.225
74567SOL     OW25539  14.021  12.325   2.989
74567SOL    HW125540  14.102  12.375   3.001
74567SOL    HW225541  13.965  12.382   2.937
74568SOL     OW25542   0.671   2.831   7.980
74568SOL    HW125543   0.689   2.901   8.043
74568SOL    HW225544   0.643   2.877   7.901
74569SOL     OW25545  12.595   6.900   2.259
74569SOL    HW125546  12.512   6.906   2.211
74569SOL    HW225547  12.576   6.938   2.345
74570SOL     OW25548  13.196   0.424   4.928
74570SOL    HW125549  13.125   0.463   4.877
74570SOL    HW225550  13.155   0.402   5.012
74571SOL     OW25551   5.594   6.250   6.522
74571SOL    HW125552   5.650   6.204   6.459
74571SOL    HW225553   5.624   6.219   6.608
74572SOL     OW25554  13.632   3.170   6.967
74572SOL    HW125555  13.701   3.181   6.902
74572SOL    HW225556  13.615   3.076   6.968
74573SOL     OW25557   9.350  13.544  10.884
74573SOL    HW125558   9.286  13.603  10.925
74573SOL    HW225559   9.429  13.554  10.936
74574SOL     OW25560   4.044   1.327   7.917
74574SOL    HW125561   3.967   1.349   7.864
74574SOL    HW225562   4.055   1.233   7.904
74575SOL     OW25563  12.531   7.838  14.601
74575SOL    HW125564  12.559   7.894  14.672
74575SOL    HW225565  12.608   7.786  14.579
74576SOL     OW25566   8.102   9.923  11.413
74576SOL    HW125567   8.154   9.874  11.478
74576SOL    HW225568   8.125   9.883  11.329
74577SOL     OW25569   9.403   3.364  10.794
74577SOL    HW125570   9.419   3.352  10.888
74577SOL    HW225571   9.489   3.381  10.757
74578SOL     OW25572   0.503  11.702  12.639
74578SOL    HW125573   0.498  11.761  12.564
74578SOL    HW225574   0.463  11.751  12.711
74579SOL     OW25575   5.275   1.994   9.214
74579SOL    HW125576   5.210   1.925   9.218
74579SOL    HW225577   5.235   2.063   9.161
74580SOL     OW25578   7.457  12.528   3.901
74580SOL    HW125579   7.389  12.593   3.917
74580SOL    HW225580   7.539  12.578   3.901
74581SOL     OW25581   9.008   1.208   6.908
74581SOL    HW125582   8.954   1.153   6.965
74581SOL    HW225583   8.975   1.189   6.820
74582SOL     OW25584   6.556   5.854   7.597
74582SOL    HW125585   6.588   5.796   7.667
74582SOL    HW225586   6.484   5.903   7.638
74583SOL     OW25587  14.695  11.706  14.714
74583SOL    HW125588  14.614  11.655  14.727
74583SOL    HW225589  14.711  11.701  14.620
74584SOL     OW25590  11.267   7.884  14.310
74584SOL    HW125591  11.349   7.870  14.356
74584SOL    HW225592  11.199   7.860  14.373
74585SOL     OW25593  10.573   3.222   4.876
74585SOL    HW125594  10.499   3.278   4.898
74585SOL    HW225595  10.557   3.140   4.921
74586SOL     OW25596   2.094   5.198   5.903
74586SOL    HW125597   2.069   5.266   5.966
74586SOL    HW225598   2.119   5.123   5.958
74587SOL     OW25599   7.118  10.723  13.683
74587SOL    HW125600   7.030  10.758  13.700
74587SOL    HW225601   7.131  10.735  13.589
74588SOL     OW25602   9.229  12.056   7.256
74588SOL    HW125603   9.319  12.024   7.267
74588SOL    HW225604   9.224  12.080   7.163
74589SOL     OW25605  13.554  10.045   8.895
74589SOL    HW125606  13.647  10.065   8.890
74589SOL    HW225607  13.521  10.100   8.966
74590SOL     OW25608   6.241   5.130   1.325
74590SOL    HW125609   6.148   5.111   1.337
74590SOL    HW225610   6.283   5.043   1.325
74591SOL     OW25611   0.963   4.628   0.546
74591SOL    HW125612   1.000   4.716   0.543
74591SOL    HW225613   0.870   4.641   0.559
74592SOL     OW25614   8.194  12.593   4.107
74592SOL    HW125615   8.217  12.526   4.042
74592SOL    HW225616   8.267  12.594   4.169
74593SOL     OW25617   9.619   1.733   2.491
74593SOL    HW125618   9.534   1.755   2.454
74593SOL    HW225619   9.654   1.664   2.434
74594SOL     OW25620   1.378   8.769  10.845
74594SOL    HW125621   1.398   8.678  10.822
74594SOL    HW225622   1.286   8.779  10.821
74595SOL     OW25623  13.738  13.996   7.382
74595SOL    HW125624  13.743  14.090   7.368
74595SOL    HW225625  13.747  13.958   7.295
74596SOL     OW25626   6.520   0.955  10.560
74596SOL    HW125627   6.552   0.956  10.469
74596SOL    HW225628   6.557   0.874  10.597
74597SOL     OW25629  13.409  12.171   0.042
74597SOL    HW125630  13.436  12.251  14.875
74597SOL    HW225631  13.313  12.172   0.037
74598SOL     OW25632  10.716   1.556   8.196
74598SOL    HW125633  10.735   1.639   8.239
74598SOL    HW225634  10.626   1.564   8.167
74599SOL     OW25635   7.940   4.573   5.479
74599SOL    HW125636   7.932   4.653   5.428
74599SOL    HW225637   7.988   4.599   5.558
74600SOL     OW25638   0.007   1.209   7.779
74600SOL    HW125639   0.070   1.161   7.725
74600SOL    HW225640   0.060   1.243   7.852
74601SOL     OW25641   8.069   7.920   5.651
74601SOL    HW125642   8.090   7.964   5.569
74601SOL    HW225643   8.135   7.852   5.661
74602SOL     OW25644  12.040   4.020   4.357
74602SOL    HW125645  11.960   4.000   4.406
74602SOL    HW225646  12.106   4.037   4.425
74603SOL     OW25647   3.980   3.811  10.128
74603SOL    HW125648   4.067   3.844  10.107
74603SOL    HW225649   3.929   3.825  10.049
74604SOL     OW25650   7.849  10.373   7.939
74604SOL    HW125651   7.874  10.396   7.849
74604SOL    HW225652   7.866  10.452   7.990
74605SOL     OW25653   8.177  14.621   4.787
74605SOL    HW125654   8.152  14.648   4.698
74605SOL    HW225655   8.129  14.679   4.845
74606SOL     OW25656   4.669  12.427  11.677
74606SOL    HW125657   4.625  12.505  11.643
74606SOL    HW225658   4.755  12.429  11.636
74607SOL     OW25659  14.233   7.439   0.984
74607SOL    HW125660  14.305   7.472   1.038
74607SOL    HW225661  14.274   7.415   0.901
74608SOL     OW25662   9.787   6.733   9.891
74608SOL    HW125663   9.874   6.760   9.861
74608SOL    HW225664   9.757   6.671   9.825
74609SOL     OW25665   0.567  10.730   9.492
74609SOL    HW125666   0.517  10.700   9.416
74609SOL    HW225667   0.636  10.664   9.503
74610SOL     OW25668   5.068   2.311   7.218
74610SOL    HW125669   5.053   2.225   7.257
74610SOL    HW225670   5.096   2.367   7.291
74611SOL     OW25671  12.082  13.359  10.263
74611SOL    HW125672  12.009  13.298  10.261
74611SOL    HW225673  12.088  13.393  10.174
74612SOL     OW25674   4.582  10.931   8.231
74612SOL    HW125675   4.503  10.883   8.258
74612SOL    HW225676   4.638  10.930   8.309
74613SOL     OW25677   3.520   7.834   0.886
74613SOL    HW125678   3.534   7.915   0.837
74613SOL    HW225679   3.562   7.849   0.970
74614SOL     OW25680  11.952  13.070  13.894
74614SOL    HW125681  11.881  13.091  13.834
74614SOL    HW225682  11.940  12.977  13.914
74615SOL     OW25683   8.554  13.424  13.344
74615SOL    HW125684   8.556  13.415  13.249
74615SOL    HW225685   8.534  13.516  13.359
74616SOL     OW25686   1.464   1.252   9.898
74616SOL    HW125687   1.496   1.342   9.901
74616SOL    HW225688   1.536   1.199   9.932
74617SOL     OW25689   7.219  11.369  12.605
74617SOL    HW125690   7.158  11.421  12.658
74617SOL    HW225691   7.256  11.433  12.544
74618SOL     OW25692   8.557   3.627   6.048
74618SOL    HW125693   8.476   3.633   6.097
74618SOL    HW225694   8.602   3.711   6.064
74619SOL     OW25695   6.233  11.893   9.367
74619SOL    HW125696   6.261  11.803   9.347
74619SOL    HW225697   6.163  11.911   9.305
74620SOL     OW25698   9.335  13.295   4.958
74620SOL    HW125699   9.366  13.327   4.873
74620SOL    HW225700   9.384  13.346   5.022
74621SOL     OW25701   1.274   6.421   4.604
74621SOL    HW125702   1.258   6.326   4.608
74621SOL    HW225703   1.201   6.459   4.653
74622SOL     OW25704   5.976  14.439  14.819
74622SOL    HW125705   5.947  14.491   0.015
74622SOL    HW225706   5.998  14.505  14.753
74623SOL     OW25707  12.643   3.273   2.887
74623SOL    HW125708  12.717   3.295   2.944
74623SOL    HW225709  12.575   3.336   2.910
74624SOL     OW25710   4.256   4.763  12.448
74624SOL    HW125711   4.217   4.710  12.517
74624SOL    HW225712   4.273   4.848  12.490
74625SOL     OW25713  11.970   4.775   4.814
74625SOL    HW125714  11.944   4.832   4.742
74625SOL    HW225715  12.065   4.776   4.813
74626SOL     OW25716   6.030   7.088  14.355
74626SOL    HW125717   5.962   7.108  14.419
74626SOL    HW225718   6.022   7.157  14.289
74627SOL     OW25719  13.344  13.944  10.720
74627SOL    HW125720  13.421  14.001  10.725
74627SOL    HW225721  13.363  13.873  10.781
74628SOL     OW25722   1.107   0.775  10.522
74628SOL    HW125723   1.111   0.786  10.427
74628SOL    HW225724   1.111   0.864  10.556
74629SOL     OW25725   6.355   9.056  14.642
74629SOL    HW125726   6.303   8.978  14.624
74629SOL    HW225727   6.294   9.117  14.683
74630SOL     OW25728   7.001   1.400  14.573
74630SOL    HW125729   7.014   1.305  14.574
74630SOL    HW225730   6.928   1.416  14.633
74631SOL     OW25731   6.848  12.191  13.659
74631SOL    HW125732   6.769  12.196  13.606
74631SOL    HW225733   6.853  12.277  13.701
74632SOL     OW25734   6.174  10.207  11.321
74632SOL    HW125735   6.213  10.285  11.360
74632SOL    HW225736   6.102  10.184  11.380
74633SOL     OW25737   6.373  13.959  14.161
74633SOL    HW125738   6.387  13.865  14.161
74633SOL    HW225739   6.461  13.996  14.152
74634SOL     OW25740  14.722   2.436  13.839
74634SOL    HW125741  14.765   2.493  13.902
74634SOL    HW225742  14.665   2.381  13.892
74635SOL     OW25743   3.548   0.087  13.709
74635SOL    HW125744   3.571   0.148  13.779
74635SOL    HW225745   3.565   0.000  13.747
74636SOL     OW25746  10.403  10.121   4.376
74636SOL    HW125747  10.441  10.146   4.461
74636SOL    HW225748  10.471  10.143   4.312
74637SOL     OW25749   6.225  12.946  14.776
74637SOL    HW125750   6.204  13.038  14.793
74637SOL    HW225751   6.273  12.918  14.854
74638SOL     OW25752   1.656  11.070   2.383
74638SOL    HW125753   1.564  11.098   2.387
74638SOL    HW225754   1.656  10.983   2.423
74639SOL     OW25755   0.391   7.713  10.743
74639SOL    HW125756   0.329   7.784  10.762
74639SOL    HW225757   0.391   7.706  10.648
74640SOL     OW25758  13.008   8.884   7.506
74640SOL    HW125759  13.069   8.949   7.541
74640SOL    HW225760  12.953   8.860   7.581
74641SOL     OW25761   7.946  10.494   1.894
74641SOL    HW125762   8.010  10.484   1.964
74641SOL    HW225763   7.867  10.525   1.938
74642SOL     OW25764   0.059   8.624  12.999
74642SOL    HW125765   0.036   8.543  13.044
74642SOL    HW225766  14.858   8.651  12.955
74643SOL     OW25767   7.629  11.608  10.175
74643SOL    HW125768   7.672  11.680  10.221
74643SOL    HW225769   7.544  11.644  10.150
74644SOL     OW25770   4.166   8.726   8.295
74644SOL    HW125771   4.215   8.744   8.375
74644SOL    HW225772   4.205   8.645   8.261
74645SOL     OW25773   2.652   2.360   2.704
74645SOL    HW125774   2.698   2.301   2.645
74645SOL    HW225775   2.597   2.302   2.757
74646SOL     OW25776   5.534   0.419  14.544
74646SOL    HW125777   5.500   0.330  14.550
74646SOL    HW225778   5.458   0.472  14.519
74647SOL     OW25779   5.989  12.322   5.400
74647SOL    HW125780   6.070  12.336   5.449
74647SOL    HW225781   6.005  12.243   5.349
74648SOL     OW25782   1.790   4.930  12.069
74648SOL    HW125783   1.858   4.901  12.131
74648SOL    HW225784   1.836   4.935  11.985
74649SOL     OW25785  13.394   6.081  14.602
74649SOL    HW125786  13.476   6.048  14.640
74649SOL    HW225787  13.422   6.138  14.531
74650SOL     OW25788   0.436   0.761   7.632
74650SOL    HW125789   0.466   0.847   7.601
74650SOL    HW225790   0.466   0.756   7.723
74651SOL     OW25791   4.784   9.192   6.719
74651SOL    HW125792   4.820   9.249   6.787
74651SOL    HW225793   4.694   9.221   6.708
74652SOL     OW25794   7.986   6.273   0.066
74652SOL    HW125795   7.988   6.301   0.157
74652SOL    HW225796   8.054   6.205   0.059
74653SOL     OW25797   2.780   6.084  10.250
74653SOL    HW125798   2.688   6.091  10.278
74653SOL    HW225799   2.789   6.153  10.184
74654SOL     OW25800  10.174   6.282   3.822
74654SOL    HW125801  10.261   6.269   3.861
74654SOL    HW225802  10.113   6.247   3.887
74655SOL     OW25803   8.278  13.354   9.959
74655SOL    HW125804   8.360  13.315   9.927
74655SOL    HW225805   8.220  13.279   9.972
74656SOL     OW25806  10.510   7.752   9.420
74656SOL    HW125807  10.556   7.691   9.477
74656SOL    HW225808  10.577   7.783   9.359
74657SOL     OW25809   4.069  12.763  11.079
74657SOL    HW125810   3.983  12.721  11.084
74657SOL    HW225811   4.122  12.718  11.144
74658SOL     OW25812  11.989   1.438  14.708
74658SOL    HW125813  11.896   1.456  14.723
74658SOL    HW225814  11.990   1.380  14.632
74659SOL     OW25815  13.381   1.573  11.737
74659SOL    HW125816  13.435   1.618  11.801
74659SOL    HW225817  13.291   1.589  11.765
74660SOL     OW25818   0.514   1.551   5.710
74660SOL    HW125819   0.542   1.460   5.701
74660SOL    HW225820   0.593   1.599   5.733
74661SOL     OW25821   9.903  10.902   4.523
74661SOL    HW125822   9.914  10.997   4.521
74661SOL    HW225823   9.883  10.882   4.614
74662SOL     OW25824   5.733   9.023   7.925
74662SOL    HW125825   5.702   9.088   7.862
74662SOL    HW225826   5.826   9.014   7.907
74663SOL     OW25827  14.853  10.159  12.882
74663SOL    HW125828  14.857  10.243  12.927
74663SOL    HW225829   0.064  10.139  12.860
74664SOL     OW25830   6.810   6.624   3.495
74664SOL    HW125831   6.754   6.702   3.502
74664SOL    HW225832   6.837   6.622   3.404
74665SOL     OW25833   4.781  11.249   6.457
74665SOL    HW125834   4.754  11.158   6.450
74665SOL    HW225835   4.762  11.287   6.371
74666SOL     OW25836   3.344   5.696   7.221
74666SOL    HW125837   3.352   5.792   7.219
74666SOL    HW225838   3.430   5.666   7.252
74667SOL     OW25839  14.131   2.777   9.538
74667SOL    HW125840  14.070   2.720   9.491
74667SOL    HW225841  14.212   2.728   9.543
74668SOL     OW25842   0.947  13.193  10.501
74668SOL    HW125843   0.867  13.148  10.528
74668SOL    HW225844   0.968  13.249  10.576
74669SOL     OW25845   3.879   4.725  11.753
74669SOL    HW125846   3.942   4.724  11.680
74669SOL    HW225847   3.821   4.651  11.735
74670SOL     OW25848  14.493   6.572  13.569
74670SOL    HW125849  14.456   6.645  13.618
74670SOL    HW225850  14.558   6.612  13.512
74671SOL     OW25851   7.691  14.482   4.808
74671SOL    HW125852   7.697  14.475   4.712
74671SOL    HW225853   7.732  14.566   4.828
74672SOL     OW25854  12.884   4.979   6.952
74672SOL    HW125855  12.846   4.925   7.021
74672SOL    HW225856  12.890   5.067   6.990
74673SOL     OW25857   1.357   0.699   5.028
74673SOL    HW125858   1.435   0.739   5.066
74673SOL    HW225859   1.314   0.656   5.103
74674SOL     OW25860  14.286   0.684   6.415
74674SOL    HW125861  14.265   0.675   6.322
74674SOL    HW225862  14.277   0.778   6.433
74675SOL     OW25863   7.538  13.780   6.703
74675SOL    HW125864   7.463  13.821   6.657
74675SOL    HW225865   7.535  13.817   6.791
74676SOL     OW25866   0.850  14.547  11.347
74676SOL    HW125867   0.803  14.580  11.270
74676SOL    HW225868   0.848  14.621  11.408
74677SOL     OW25869   0.360  13.324  13.810
74677SOL    HW125870   0.302  13.352  13.881
74677SOL    HW225871   0.324  13.240  13.781
74678SOL     OW25872  10.697   2.371   6.713
74678SOL    HW125873  10.621   2.382   6.771
74678SOL    HW225874  10.758   2.440   6.740
74679SOL     OW25875   3.660  11.790  10.153
74679SOL    HW125876   3.578  11.812  10.111
74679SOL    HW225877   3.716  11.867  10.139
74680SOL     OW25878   9.691   0.099   9.780
74680SOL    HW125879   9.731   0.119   9.864
74680SOL    HW225880   9.597   0.112   9.794
74681SOL     OW25881   5.642  13.524   4.269
74681SOL    HW125882   5.642  13.484   4.183
74681SOL    HW225883   5.665  13.453   4.329
74682SOL     OW25884   0.938   6.559   4.941
74682SOL    HW125885   0.988   6.583   4.862
74682SOL    HW225886   0.879   6.490   4.912
74683SOL     OW25887   7.724  12.583   6.272
74683SOL    HW125888   7.653  12.579   6.209
74683SOL    HW225889   7.714  12.504   6.326
74684SOL     OW25890   7.374  11.821   1.846
74684SOL    HW125891   7.289  11.811   1.803
74684SOL    HW225892   7.362  11.782   1.933
74685SOL     OW25893   6.572   3.790   4.940
74685SOL    HW125894   6.652   3.821   4.898
74685SOL    HW225895   6.577   3.826   5.029
74686SOL     OW25896  13.391   8.182  10.781
74686SOL    HW125897  13.299   8.165  10.762
74686SOL    HW225898  13.439   8.137  10.710
74687SOL     OW25899  10.212  11.896   0.607
74687SOL    HW125900  10.170  11.811   0.594
74687SOL    HW225901  10.154  11.942   0.668
74688SOL     OW25902   8.244  13.123   1.003
74688SOL    HW125903   8.257  13.097   1.094
74688SOL    HW225904   8.331  13.122   0.964
74689SOL     OW25905   9.234   2.435  11.450
74689SOL    HW125906   9.304   2.372  11.469
74689SOL    HW225907   9.235   2.494  11.525
74690SOL     OW25908  14.222   9.622   0.934
74690SOL    HW125909  14.186   9.704   0.970
74690SOL    HW225910  14.224   9.637   0.840
74691SOL     OW25911   6.467  11.572   7.466
74691SOL    HW125912   6.375  11.594   7.453
74691SOL    HW225913   6.484  11.500   7.405
74692SOL     OW25914   0.971  12.582   6.659
74692SOL    HW125915   0.957  12.660   6.605
74692SOL    HW225916   1.059  12.553   6.637
74693SOL     OW25917  13.196  12.556   6.794
74693SOL    HW125918  13.200  12.652   6.789
74693SOL    HW225919  13.140  12.531   6.720
74694SOL     OW25920   4.682   5.439  14.237
74694SOL    HW125921   4.777   5.435  14.233
74694SOL    HW225922   4.654   5.459  14.148
74695SOL     OW25923  14.224   6.505   5.614
74695SOL    HW125924  14.149   6.497   5.555
74695SOL    HW225925  14.189   6.549   5.692
74696SOL     OW25926  10.606   3.543   7.859
74696SOL    HW125927  10.690   3.524   7.816
74696SOL    HW225928  10.570   3.456   7.879
74697SOL     OW25929   9.846   0.083   9.545
74697SOL    HW125930   9.794   0.095   9.624
74697SOL    HW225931   9.848  14.868   9.531
74698SOL     OW25932   4.362   3.939  10.560
74698SOL    HW125933   4.389   3.998  10.489
74698SOL    HW225934   4.429   3.950  10.627
74699SOL     OW25935   3.325   0.322   3.575
74699SOL    HW125936   3.388   0.358   3.638
74699SOL    HW225937   3.373   0.252   3.530
74700SOL     OW25938   7.032   8.330  11.351
74700SOL    HW125939   7.029   8.236  11.369
74700SOL    HW225940   7.081   8.366  11.425
74701SOL     OW25941   8.541  14.263   7.409
74701SOL    HW125942   8.530  14.325   7.480
74701SOL    HW225943   8.581  14.186   7.450
74702SOL     OW25944   2.197   3.529   0.408
74702SOL    HW125945   2.111   3.571   0.410
74702SOL    HW225946   2.209   3.496   0.497
74703SOL     OW25947  11.688   5.319   5.887
74703SOL    HW125948  11.608   5.370   5.870
74703SOL    HW225949  11.732   5.366   5.957
74704SOL     OW25950  12.493   8.184   7.195
74704SOL    HW125951  12.435   8.260   7.192
74704SOL    HW225952  12.494   8.150   7.105
74705SOL     OW25953  13.471  10.738   7.930
74705SOL    HW125954  13.561  10.724   7.900
74705SOL    HW225955  13.440  10.651   7.953
74706SOL     OW25956   6.590   5.438   6.236
74706SOL    HW125957   6.610   5.505   6.301
74706SOL    HW225958   6.530   5.378   6.281
74707SOL     OW25959   8.272  12.597   9.079
74707SOL    HW125960   8.331  12.567   9.009
74707SOL    HW225961   8.198  12.636   9.033
74708SOL     OW25962   1.858  12.180   3.929
74708SOL    HW125963   1.882  12.088   3.914
74708SOL    HW225964   1.889  12.226   3.851
74709SOL     OW25965  11.588   2.679   5.433
74709SOL    HW125966  11.512   2.728   5.402
74709SOL    HW225967  11.600   2.709   5.524
74710SOL     OW25968  12.662   9.669   8.860
74710SOL    HW125969  12.595   9.703   8.800
74710SOL    HW225970  12.614   9.611   8.919
74711SOL     OW25971  14.720   5.032  11.846
74711SOL    HW125972  14.782   4.974  11.800
74711SOL    HW225973  14.762   5.118  11.844
74712SOL     OW25974   2.486   4.492  12.168
74712SOL    HW125975   2.522   4.404  12.162
74712SOL    HW225976   2.430   4.490  12.246
74713SOL     OW25977   9.791  12.075  13.256
74713SOL    HW125978   9.790  12.032  13.170
74713SOL    HW225979   9.749  12.012  13.314
74714SOL     OW25980   6.189   9.159   9.072
74714SOL    HW125981   6.217   9.092   9.134
74714SOL    HW225982   6.118   9.205   9.116
74715SOL     OW25983   3.198   5.807  11.552
74715SOL    HW125984   3.240   5.865  11.616
74715SOL    HW225985   3.110   5.845  11.541
74716SOL     OW25986   8.345   1.761   8.678
74716SOL    HW125987   8.437   1.752   8.652
74716SOL    HW225988   8.347   1.813   8.758
74717SOL     OW25989   2.316   5.887   7.109
74717SOL    HW125990   2.338   5.945   7.181
74717SOL    HW225991   2.252   5.825   7.146
74718SOL     OW25992   5.979  12.585   2.666
74718SOL    HW125993   6.023  12.500   2.663
74718SOL    HW225994   5.984  12.612   2.757
74719SOL     OW25995   0.068   8.512   7.213
74719SOL    HW125996   0.098   8.602   7.201
74719SOL    HW225997   0.139   8.470   7.262
74720SOL     OW25998  11.476  13.413   5.112
74720SOL    HW125999  11.407  13.438   5.173
74720SOL    HW226000  11.478  13.484   5.047
74721SOL     OW26001  12.363   7.216   6.436
74721SOL    HW126002  12.401   7.241   6.521
74721SOL    HW226003  12.435   7.174   6.390
74722SOL     OW26004   5.416   5.360  14.424
74722SOL    HW126005   5.426   5.398  14.337
74722SOL    HW226006   5.501   5.319  14.441
74723SOL     OW26007   8.632   9.913   4.062
74723SOL    HW126008   8.686   9.991   4.050
74723SOL    HW226009   8.607   9.914   4.154
74724SOL     OW26010  10.414   0.206  14.101
74724SOL    HW126011  10.499   0.222  14.060
74724SOL    HW226012  10.432   0.200  14.194
74725SOL     OW26013   7.933  13.111   7.777
74725SOL    HW126014   7.839  13.128   7.785
74725SOL    HW226015   7.953  13.132   7.685
74726SOL     OW26016   3.654   3.499  10.692
74726SOL    HW126017   3.635   3.589  10.668
74726SOL    HW226018   3.689   3.505  10.781
74727SOL     OW26019   8.106   2.456  12.419
74727SOL    HW126020   8.066   2.414  12.495
74727SOL    HW226021   8.190   2.488  12.451
74728SOL     OW26022  14.191   2.437   7.744
74728SOL    HW126023  14.203   2.344   7.724
74728SOL    HW226024  14.218   2.482   7.664
74729SOL     OW26025  10.442   8.621   2.802
74729SOL    HW126026  10.359   8.668   2.800
74729SOL    HW226027  10.433   8.553   2.735
74730SOL     OW26028   9.166   7.861   2.217
74730SOL    HW126029   9.092   7.898   2.168
74730SOL    HW226030   9.185   7.779   2.172
74731SOL     OW26031   9.689   2.750   5.777
74731SOL    HW126032   9.656   2.818   5.835
74731SOL    HW226033   9.624   2.680   5.783
74732SOL     OW26034  10.789   7.861   6.102
74732SOL    HW126035  10.763   7.905   6.020
74732SOL    HW226036  10.716   7.876   6.162
74733SOL     OW26037   6.858   6.559   0.498
74733SOL    HW126038   6.789   6.616   0.532
74733SOL    HW226039   6.812   6.497   0.441
74734SOL     OW26040   9.584   3.185  13.521
74734SOL    HW126041   9.661   3.152  13.567
74734SOL    HW226042   9.618   3.217  13.437
74735SOL     OW26043   5.302  11.080  11.669
74735SOL    HW126044   5.222  11.130  11.689
74735SOL    HW226045   5.324  11.105  11.579
74736SOL     OW26046   4.024  11.275  14.559
74736SOL    HW126047   3.968  11.346  14.528
74736SOL    HW226048   4.093  11.269  14.493
74737SOL     OW26049   2.350  12.217   7.123
74737SOL    HW126050   2.400  12.143   7.087
74737SOL    HW226051   2.271  12.177   7.159
74738SOL     OW26052  14.751  13.406   2.647
74738SOL    HW126053  14.774  13.432   2.558
74738SOL    HW226054  14.692  13.475   2.678
74739SOL     OW26055   2.063  13.803   4.002
74739SOL    HW126056   2.069  13.792   3.907
74739SOL    HW226057   2.017  13.725   4.032
74740SOL     OW26058   7.678   2.852   3.698
74740SOL    HW126059   7.612   2.823   3.760
74740SOL    HW226060   7.761   2.822   3.734
74741SOL     OW26061   0.562   4.016   0.450
74741SOL    HW126062   0.508   3.981   0.380
74741SOL    HW226063   0.631   3.951   0.463
74742SOL     OW26064   2.589   7.294   5.309
74742SOL    HW126065   2.579   7.389   5.304
74742SOL    HW226066   2.640   7.271   5.232
74743SOL     OW26067  14.419  12.079  13.071
74743SOL    HW126068  14.351  12.141  13.097
74743SOL    HW226069  14.498  12.132  13.065
74744SOL     OW26070   8.100   1.618   9.880
74744SOL    HW126071   8.055   1.702   9.893
74744SOL    HW226072   8.083   1.570   9.961
74745SOL     OW26073  12.162   3.513   3.035
74745SOL    HW126074  12.216   3.453   2.984
74745SOL    HW226075  12.186   3.600   3.002
74746SOL     OW26076   9.567   0.862  13.059
74746SOL    HW126077   9.551   0.917  12.982
74746SOL    HW226078   9.527   0.910  13.132
74747SOL     OW26079  10.161   0.214  14.415
74747SOL    HW126080  10.143   0.159  14.339
74747SOL    HW226081  10.152   0.155  14.490
74748SOL     OW26082   9.416   0.823   3.076
74748SOL    HW126083   9.321   0.820   3.089
74748SOL    HW226084   9.426   0.855   2.986
74749SOL     OW26085  11.620   1.312  11.426
74749SOL    HW126086  11.697   1.262  11.452
74749SOL    HW226087  11.567   1.319  11.505
74750SOL     OW26088  14.311   6.205   0.856
74750SOL    HW126089  14.308   6.299   0.841
74750SOL    HW226090  14.226   6.185   0.898
74751SOL     OW26091   3.396   7.220   9.303
74751SOL    HW126092   3.303   7.203   9.293
74751SOL    HW226093   3.401   7.314   9.324
74752SOL     OW26094   7.049   4.816   2.807
74752SOL    HW126095   7.043   4.827   2.712
74752SOL    HW226096   7.142   4.803   2.824
74753SOL     OW26097  13.295   7.717   4.923
74753SOL    HW126098  13.359   7.717   4.852
74753SOL    HW226099  13.296   7.806   4.956
74754SOL     OW26100   8.125   1.219   5.901
74754SOL    HW126101   8.198   1.163   5.929
74754SOL    HW226102   8.151   1.308   5.927
74755SOL     OW26103   4.827  12.926  10.146
74755SOL    HW126104   4.834  13.021  10.154
74755SOL    HW226105   4.910  12.893  10.180
74756SOL     OW26106   1.824  14.461   8.845
74756SOL    HW126107   1.856  14.386   8.795
74756SOL    HW226108   1.734  14.474   8.814
74757SOL     OW26109   2.460  13.791   7.940
74757SOL    HW126110   2.477  13.704   7.976
74757SOL    HW226111   2.365  13.797   7.937
74758SOL     OW26112   8.094   7.267   1.161
74758SOL    HW126113   8.170   7.325   1.168
74758SOL    HW226114   8.033   7.315   1.104
74759SOL     OW26115   0.134   5.133  13.852
74759SOL    HW126116   0.091   5.191  13.789
74759SOL    HW226117   0.062   5.096  13.903
74760SOL     OW26118   4.704   1.951  13.726
74760SOL    HW126119   4.748   1.891  13.666
74760SOL    HW226120   4.661   1.894  13.789
74761SOL     OW26121  12.268  11.839   0.235
74761SOL    HW126122  12.313  11.768   0.281
74761SOL    HW226123  12.315  11.846   0.151
74762SOL     OW26124   7.636   7.519   0.581
74762SOL    HW126125   7.580   7.461   0.528
74762SOL    HW226126   7.603   7.607   0.563
74763SOL     OW26127   2.388   5.998   2.437
74763SOL    HW126128   2.444   5.946   2.494
74763SOL    HW226129   2.418   5.976   2.348
74764SOL     OW26130   2.686  12.659  14.863
74764SOL    HW126131   2.772  12.699  14.847
74764SOL    HW226132   2.638  12.671  14.781
74765SOL     OW26133   5.568   8.893   1.121
74765SOL    HW126134   5.554   8.870   1.029
74765SOL    HW226135   5.662   8.902   1.129
74766SOL     OW26136   7.240   6.842   1.869
74766SOL    HW126137   7.327   6.883   1.863
74766SOL    HW226138   7.244   6.768   1.809
74767SOL     OW26139   2.824   7.877   3.999
74767SOL    HW126140   2.906   7.837   3.970
74767SOL    HW226141   2.822   7.864   4.093
74768SOL     OW26142  14.679   3.792   7.647
74768SOL    HW126143  14.725   3.782   7.731
74768SOL    HW226144  14.630   3.873   7.656
74769SOL     OW26145  10.096   3.087   4.733
74769SOL    HW126146  10.167   3.140   4.697
74769SOL    HW226147  10.027   3.092   4.667
74770SOL     OW26148  12.309   4.876   9.292
74770SOL    HW126149  12.285   4.964   9.263
74770SOL    HW226150  12.348   4.835   9.215
74771SOL     OW26151   4.861   8.664   6.968
74771SOL    HW126152   4.951   8.679   6.941
74771SOL    HW226153   4.819   8.750   6.960
74772SOL     OW26154   0.847  13.624  14.429
74772SOL    HW126155   0.908  13.591  14.363
74772SOL    HW226156   0.901  13.672  14.491
74773SOL     OW26157   5.289   5.316   6.382
74773SOL    HW126158   5.261   5.361   6.303
74773SOL    HW226159   5.296   5.224   6.356
74774SOL     OW26160   7.089   2.223   2.061
74774SOL    HW126161   7.109   2.250   1.971
74774SOL    HW226162   7.155   2.157   2.081
74775SOL     OW26163  14.744   0.052   6.854
74775SOL    HW126164  14.823   0.049   6.801
74775SOL    HW226165  14.771   0.020   6.940
74776SOL     OW26166   6.142  10.234   3.960
74776SOL    HW126167   6.211  10.180   3.998
74776SOL    HW226168   6.127  10.197   3.874
74777SOL     OW26169   9.401   9.092  14.550
74777SOL    HW126170   9.341   9.031  14.594
74777SOL    HW226171   9.482   9.042  14.541
74778SOL     OW26172  12.785   8.070   4.007
74778SOL    HW126173  12.693   8.092   3.999
74778SOL    HW226174  12.823   8.094   3.922
74779SOL     OW26175  11.725   2.673  10.806
74779SOL    HW126176  11.699   2.636  10.890
74779SOL    HW226177  11.643   2.701  10.766
74780SOL     OW26178   1.177   0.643   8.843
74780SOL    HW126179   1.262   0.657   8.886
74780SOL    HW226180   1.166   0.720   8.787
74781SOL     OW26181   4.105  13.372   3.489
74781SOL    HW126182   4.018  13.407   3.470
74781SOL    HW226183   4.137  13.339   3.405
74782SOL     OW26184   5.544   0.145   7.106
74782SOL    HW126185   5.510   0.150   7.016
74782SOL    HW226186   5.541   0.235   7.138
74783SOL     OW26187   8.355  11.017  14.600
74783SOL    HW126188   8.290  11.087  14.596
74783SOL    HW226189   8.330  10.967  14.678
74784SOL     OW26190   0.105   2.035   6.822
74784SOL    HW126191   0.015   2.013   6.848
74784SOL    HW226192   0.151   1.951   6.821
74785SOL     OW26193   6.192  13.495   2.761
74785SOL    HW126194   6.124  13.495   2.695
74785SOL    HW226195   6.261  13.550   2.725
74786SOL     OW26196  10.752  13.986   8.554
74786SOL    HW126197  10.836  13.986   8.509
74786SOL    HW226198  10.745  13.898   8.591
74787SOL     OW26199  10.785  10.595   4.741
74787SOL    HW126200  10.809  10.555   4.657
74787SOL    HW226201  10.868  10.603   4.788
74788SOL     OW26202   8.401  12.520   8.119
74788SOL    HW126203   8.464  12.512   8.191
74788SOL    HW226204   8.431  12.455   8.054
74789SOL     OW26205   1.330  13.157   4.240
74789SOL    HW126206   1.369  13.084   4.192
74789SOL    HW226207   1.309  13.120   4.326
74790SOL     OW26208  11.484  11.938   4.125
74790SOL    HW126209  11.471  11.993   4.202
74790SOL    HW226210  11.579  11.934   4.115
74791SOL     OW26211   9.791   1.426  11.714
74791SOL    HW126212   9.821   1.448  11.626
74791SOL    HW226213   9.762   1.510  11.751
74792SOL     OW26214  14.615   5.380   9.465
74792SOL    HW126215  14.550   5.362   9.532
74792SOL    HW226216  14.624   5.475   9.465
74793SOL     OW26217   4.889   0.050   0.471
74793SOL    HW126218   4.837   0.105   0.411
74793SOL    HW226219   4.837   0.047   0.551
74794SOL     OW26220  10.724   8.974   9.788
74794SOL    HW126221  10.632   8.992   9.808
74794SOL    HW226222  10.725   8.884   9.756
74795SOL     OW26223   8.628   4.865  11.620
74795SOL    HW126224   8.620   4.770  11.621
74795SOL    HW226225   8.709   4.881  11.571
74796SOL     OW26226   5.593   0.984   1.964
74796SOL    HW126227   5.588   0.890   1.983
74796SOL    HW226228   5.559   1.026   2.043
74797SOL     OW26229  10.885  14.218  12.374
74797SOL    HW126230  10.876  14.166  12.454
74797SOL    HW226231  10.958  14.176  12.327
74798SOL     OW26232   6.473   2.966  13.657
74798SOL    HW126233   6.461   2.887  13.604
74798SOL    HW226234   6.457   3.038  13.596
74799SOL     OW26235   4.955  10.960  14.774
74799SOL    HW126236   4.917  11.037  14.816
74799SOL    HW226237   4.927  10.887  14.830
74800SOL     OW26238  11.300   1.119  14.015
74800SOL    HW126239  11.251   1.180  14.071
74800SOL    HW226240  11.386   1.161  14.004
74801SOL     OW26241   4.097   8.609   6.871
74801SOL    HW126242   4.103   8.678   6.805
74801SOL    HW226243   4.042   8.541   6.830
74802SOL     OW26244   2.857  10.912  13.563
74802SOL    HW126245   2.785  10.892  13.622
74802SOL    HW226246   2.936  10.886  13.610
74803SOL     OW26247   6.117   8.256   2.955
74803SOL    HW126248   6.022   8.256   2.961
74803SOL    HW226249   6.135   8.289   2.866
74804SOL     OW26250   3.042   4.458   2.968
74804SOL    HW126251   3.026   4.432   3.059
74804SOL    HW226252   3.119   4.409   2.941
74805SOL     OW26253   5.393  13.269  14.333
74805SOL    HW126254   5.332  13.316  14.276
74805SOL    HW226255   5.442  13.337  14.378
74806SOL     OW26256   0.929   0.831   0.331
74806SOL    HW126257   1.002   0.892   0.320
74806SOL    HW226258   0.895   0.851   0.418
74807SOL     OW26259  12.132   4.869   2.717
74807SOL    HW126260  12.067   4.888   2.784
74807SOL    HW226261  12.141   4.774   2.718
74808SOL     OW26262  13.845   0.354   2.898
74808SOL    HW126263  13.836   0.425   2.962
74808SOL    HW226264  13.818   0.275   2.946
74809SOL     OW26265  14.528   1.826  13.447
74809SOL    HW126266  14.593   1.827  13.518
74809SOL    HW226267  14.541   1.910  13.403
74810SOL     OW26268  11.465  12.263  14.523
74810SOL    HW126269  11.451  12.355  14.499
74810SOL    HW226270  11.531  12.266  14.592
74811SOL     OW26271  12.128   3.005   1.714
74811SOL    HW126272  12.042   3.036   1.740
74811SOL    HW226273  12.113   2.959   1.631
74812SOL     OW26274  13.306  13.570   4.120
74812SOL    HW126275  13.240  13.615   4.173
74812SOL    HW226276  13.315  13.484   4.161
74813SOL     OW26277   5.537  10.306   8.099
74813SOL    HW126278   5.582  10.293   8.183
74813SOL    HW226279   5.507  10.397   8.102
74814SOL     OW26280   8.406  13.480   0.852
74814SOL    HW126281   8.374  13.447   0.936
74814SOL    HW226282   8.390  13.574   0.855
74815SOL     OW26283   9.538   0.949  10.803
74815SOL    HW126284   9.573   0.988  10.723
74815SOL    HW226285   9.569   1.006  10.873
74816SOL     OW26286   3.462   5.825   7.524
74816SOL    HW126287   3.384   5.830   7.578
74816SOL    HW226288   3.458   5.738   7.484
74817SOL     OW26289  12.088   1.882   4.143
74817SOL    HW126290  12.030   1.903   4.216
74817SOL    HW226291  12.056   1.935   4.070
74818SOL     OW26292   9.028  11.331  10.630
74818SOL    HW126293   8.961  11.295  10.572
74818SOL    HW226294   9.081  11.387  10.574
74819SOL     OW26295   1.145   3.122  12.319
74819SOL    HW126296   1.064   3.172  12.307
74819SOL    HW226297   1.211   3.173  12.271
74820SOL     OW26298   8.369   6.878   0.669
74820SOL    HW126299   8.394   6.965   0.701
74820SOL    HW226300   8.298   6.850   0.727
74821SOL     OW26301   9.291   8.084   2.104
74821SOL    HW126302   9.309   8.144   2.177
74821SOL    HW226303   9.214   8.035   2.132
74822SOL     OW26304   8.311  13.635   2.119
74822SOL    HW126305   8.400  13.640   2.155
74822SOL    HW226306   8.324  13.616   2.026
74823SOL     OW26307   4.426  13.001  14.349
74823SOL    HW126308   4.520  13.011  14.338
74823SOL    HW226309   4.387  13.065  14.289
74824SOL     OW26310   0.154   0.098  12.914
74824SOL    HW126311   0.064   0.067  12.905
74824SOL    HW226312   0.145   0.193  12.928
74825SOL     OW26313   4.813   0.319   7.002
74825SOL    HW126314   4.724   0.353   6.997
74825SOL    HW226315   4.802   0.224   7.009
74826SOL     OW26316   6.534  11.648  12.592
74826SOL    HW126317   6.623  11.679  12.611
74826SOL    HW226318   6.547  11.581  12.524
74827SOL     OW26319   4.404   7.239  13.895
74827SOL    HW126320   4.471   7.181  13.858
74827SOL    HW226321   4.406   7.221  13.988
74828SOL     OW26322   7.140   5.670   2.450
74828SOL    HW126323   7.074   5.739   2.441
74828SOL    HW226324   7.145   5.631   2.362
74829SOL     OW26325   2.257  11.009  11.389
74829SOL    HW126326   2.173  10.971  11.413
74829SOL    HW226327   2.236  11.090  11.343
74830SOL     OW26328   0.494   8.175   8.076
74830SOL    HW126329   0.496   8.259   8.122
74830SOL    HW226330   0.480   8.111   8.146
74831SOL     OW26331   4.831   5.203  11.627
74831SOL    HW126332   4.837   5.112  11.597
74831SOL    HW226333   4.920   5.236  11.618
74832SOL     OW26334   9.670  11.546   5.222
74832SOL    HW126335   9.743  11.608   5.232
74832SOL    HW226336   9.592  11.597   5.243
74833SOL     OW26337   0.433   7.499   8.568
74833SOL    HW126338   0.476   7.559   8.507
74833SOL    HW226339   0.431   7.415   8.522
74834SOL     OW26340  13.318   2.523   6.262
74834SOL    HW126341  13.245   2.487   6.312
74834SOL    HW226342  13.311   2.617   6.274
74835SOL     OW26343   9.065  12.076   0.582
74835SOL    HW126344   9.127  12.115   0.521
74835SOL    HW226345   8.992  12.048   0.527
74836SOL     OW26346  13.773   0.892  12.872
74836SOL    HW126347  13.787   0.970  12.818
74836SOL    HW226348  13.690   0.907  12.915
74837SOL     OW26349   9.937  14.264   9.251
74837SOL    HW126350   9.864  14.240   9.308
74837SOL    HW226351   9.899  14.267   9.163
74838SOL     OW26352   9.957   7.968  10.505
74838SOL    HW126353  10.049   7.964  10.477
74838SOL    HW226354   9.945   8.057  10.536
74839SOL     OW26355  11.536   4.619  11.655
74839SOL    HW126356  11.542   4.689  11.721
74839SOL    HW226357  11.485   4.551  11.698
74840SOL     OW26358   0.514  13.134   6.521
74840SOL    HW126359   0.419  13.147   6.525
74840SOL    HW226360   0.551  13.205   6.574
74841SOL     OW26361   0.483   8.127   8.397
74841SOL    HW126362   0.508   8.035   8.386
74841SOL    HW226363   0.470   8.137   8.491
74842SOL     OW26364  10.322  12.793  13.582
74842SOL    HW126365  10.238  12.798  13.538
74842SOL    HW226366  10.350  12.702  13.570
74843SOL     OW26367  11.845  11.601  12.587
74843SOL    HW126368  11.841  11.610  12.682
74843SOL    HW226369  11.938  11.588  12.568
74844SOL     OW26370  13.141  13.081  13.393
74844SOL    HW126371  13.234  13.085  13.369
74844SOL    HW226372  13.141  13.041  13.480
74845SOL     OW26373  12.958   8.041  13.473
74845SOL    HW126374  12.960   8.091  13.392
74845SOL    HW226375  12.889   8.082  13.525
74846SOL     OW26376   0.368   2.244  13.087
74846SOL    HW126377   0.422   2.276  13.160
74846SOL    HW226378   0.279   2.268  13.112
74847SOL     OW26379  13.023  13.117  13.754
74847SOL    HW126380  12.936  13.117  13.793
74847SOL    HW226381  13.013  13.167  13.673
74848SOL     OW26382   8.281   1.056   1.023
74848SOL    HW126383   8.263   1.149   1.033
74848SOL    HW226384   8.247   1.034   0.936
74849SOL     OW26385  11.375  10.215  10.414
74849SOL    HW126386  11.439  10.252  10.353
74849SOL    HW226387  11.334  10.144  10.365
74850SOL     OW26388   4.078   2.922  14.875
74850SOL    HW126389   4.089   3.010  14.840
74850SOL    HW226390   4.116   2.925   0.083
74851SOL     OW26391   5.574  10.519   3.879
74851SOL    HW126392   5.593  10.428   3.902
74851SOL    HW226393   5.645  10.545   3.820
74852SOL     OW26394   8.477   4.212   2.281
74852SOL    HW126395   8.434   4.141   2.328
74852SOL    HW226396   8.410   4.280   2.271
74853SOL     OW26397   9.909   1.853   4.580
74853SOL    HW126398   9.891   1.759   4.576
74853SOL    HW226399   9.823   1.895   4.581
74854SOL     OW26400  10.810   7.961  13.551
74854SOL    HW126401  10.882   7.990  13.495
74854SOL    HW226402  10.767   8.041  13.579
74855SOL     OW26403  12.189   5.795   7.610
74855SOL    HW126404  12.183   5.704   7.580
74855SOL    HW226405  12.098   5.824   7.617
74856SOL     OW26406   5.627   6.742   6.937
74856SOL    HW126407   5.643   6.784   6.853
74856SOL    HW226408   5.624   6.648   6.916
74857SOL     OW26409  13.171  13.034   8.096
74857SOL    HW126410  13.170  12.948   8.139
74857SOL    HW226411  13.219  13.090   8.157
74858SOL     OW26412   6.971  13.026   1.642
74858SOL    HW126413   7.010  13.113   1.640
74858SOL    HW226414   6.954  13.009   1.734
74859SOL     OW26415   4.711  10.611   3.767
74859SOL    HW126416   4.771  10.557   3.817
74859SOL    HW226417   4.643  10.551   3.737
74860SOL     OW26418   3.354   9.092  14.738
74860SOL    HW126419   3.393   9.005  14.744
74860SOL    HW226420   3.418   9.144  14.689
74861SOL     OW26421   9.430   8.895   0.042
74861SOL    HW126422   9.421   8.810  14.878
74861SOL    HW226423   9.467   8.952  14.855
74862SOL     OW26424  11.645  11.819  13.803
74862SOL    HW126425  11.724  11.862  13.835
74862SOL    HW226426  11.574  11.862  13.851
74863SOL     OW26427   2.007   4.349   1.720
74863SOL    HW126428   2.085   4.376   1.671
74863SOL    HW226429   1.984   4.426   1.772
74864SOL     OW26430  11.262  12.778  13.174
74864SOL    HW126431  11.288  12.844  13.238
74864SOL    HW226432  11.189  12.818  13.126
74865SOL     OW26433   5.171  13.574   3.128
74865SOL    HW126434   5.202  13.638   3.064
74865SOL    HW226435   5.139  13.501   3.075
74866SOL     OW26436  12.684  12.899   2.281
74866SOL    HW126437  12.757  12.852   2.241
74866SOL    HW226438  12.616  12.832   2.291
74867SOL     OW26439  14.138   9.685   6.547
74867SOL    HW126440  14.124   9.695   6.453
74867SOL    HW226441  14.222   9.639   6.554
74868SOL     OW26442   0.817   6.204   0.971
74868SOL    HW126443   0.799   6.298   0.983
74868SOL    HW226444   0.912   6.197   0.978
74869SOL     OW26445   1.898   6.220   0.423
74869SOL    HW126446   1.971   6.262   0.378
74869SOL    HW226447   1.918   6.231   0.516
74870SOL     OW26448  11.839   3.660   0.976
74870SOL    HW126449  11.824   3.750   1.004
74870SOL    HW226450  11.928   3.660   0.941
74871SOL     OW26451   0.371   5.164   3.027
74871SOL    HW126452   0.432   5.185   3.098
74871SOL    HW226453   0.358   5.247   2.981
74872SOL     OW26454  12.835   8.315  13.340
74872SOL    HW126455  12.882   8.248  13.290
74872SOL    HW226456  12.853   8.397  13.294
74873SOL     OW26457   2.292   4.356   9.550
74873SOL    HW126458   2.269   4.265   9.533
74873SOL    HW226459   2.325   4.356   9.640
74874SOL     OW26460  10.025  14.652  10.625
74874SOL    HW126461   9.946  14.608  10.655
74874SOL    HW226462  10.093  14.584  10.629
74875SOL     OW26463  10.060   9.016   4.353
74875SOL    HW126464  10.094   9.079   4.290
74875SOL    HW226465   9.976   8.988   4.315
74876SOL     OW26466  11.923  10.001   5.273
74876SOL    HW126467  11.892   9.976   5.186
74876SOL    HW226468  11.847   9.988   5.330
74877SOL     OW26469   2.277   7.417   3.689
74877SOL    HW126470   2.238   7.334   3.717
74877SOL    HW226471   2.360   7.423   3.737
74878SOL     OW26472   9.767   8.082  12.055
74878SOL    HW126473   9.765   8.122  11.968
74878SOL    HW226474   9.728   8.147  12.113
74879SOL     OW26475  14.485   8.136  11.904
74879SOL    HW126476  14.567   8.136  11.853
74879SOL    HW226477  14.432   8.067  11.865
74880SOL     OW26478   1.928   7.704   8.426
74880SOL    HW126479   1.975   7.673   8.503
74880SOL    HW226480   1.923   7.628   8.369
74881SOL     OW26481   8.304   7.001  12.535
74881SOL    HW126482   8.375   6.960  12.486
74881SOL    HW226483   8.225   6.955  12.507
74882SOL     OW26484  13.418   0.180  14.214
74882SOL    HW126485  13.461   0.252  14.168
74882SOL    HW226486  13.448   0.189  14.305
74883SOL     OW26487  11.958   9.732  11.636
74883SOL    HW126488  12.002   9.796  11.693
74883SOL    HW226489  11.925   9.665  11.696
74884SOL     OW26490   4.661  10.321   3.029
74884SOL    HW126491   4.607  10.248   3.061
74884SOL    HW226492   4.610  10.399   3.052
74885SOL     OW26493   0.392   9.959   7.091
74885SOL    HW126494   0.352   9.875   7.113
74885SOL    HW226495   0.426   9.992   7.174
74886SOL     OW26496   3.347  12.523  14.869
74886SOL    HW126497   3.269  12.504  14.816
74886SOL    HW226498   3.419  12.521  14.806
74887SOL     OW26499   2.889  12.542   1.596
74887SOL    HW126500   2.877  12.470   1.534
74887SOL    HW226501   2.810  12.596   1.586
74888SOL     OW26502   3.409   9.526   1.904
74888SOL    HW126503   3.454   9.450   1.867
74888SOL    HW226504   3.317   9.512   1.884
74889SOL     OW26505   6.220  11.099  12.031
74889SOL    HW126506   6.163  11.128  12.102
74889SOL    HW226507   6.196  11.155  11.957
74890SOL     OW26508   7.831   1.234  11.889
74890SOL    HW126509   7.924   1.242  11.868
74890SOL    HW226510   7.829   1.186  11.972
74891SOL     OW26511   5.743   8.536  10.623
74891SOL    HW126512   5.682   8.587  10.677
74891SOL    HW226513   5.826   8.538  10.672
74892SOL     OW26514   2.900   4.015   5.533
74892SOL    HW126515   2.815   4.034   5.572
74892SOL    HW226516   2.963   4.049   5.596
74893SOL     OW26517   0.274   8.672  11.198
74893SOL    HW126518   0.181   8.689  11.185
74893SOL    HW226519   0.279   8.579  11.218
74894SOL     OW26520   1.656   0.769  10.081
74894SOL    HW126521   1.584   0.773  10.019
74894SOL    HW226522   1.620   0.724  10.158
74895SOL     OW26523   3.214  12.144   1.085
74895SOL    HW126524   3.259  12.066   1.052
74895SOL    HW226525   3.154  12.111   1.152
74896SOL     OW26526   8.363   4.858  11.698
74896SOL    HW126527   8.455   4.861  11.672
74896SOL    HW226528   8.320   4.809  11.628
74897SOL     OW26529   2.149   0.742   8.048
74897SOL    HW126530   2.200   0.680   8.100
74897SOL    HW226531   2.172   0.723   7.958
74898SOL     OW26532   5.998   6.147   8.877
74898SOL    HW126533   5.985   6.204   8.801
74898SOL    HW226534   5.981   6.204   8.952
74899SOL     OW26535   2.871   9.394  13.532
74899SOL    HW126536   2.929   9.360  13.464
74899SOL    HW226537   2.783   9.379  13.498
74900SOL     OW26538   5.278   6.027   6.395
74900SOL    HW126539   5.186   6.050   6.380
74900SOL    HW226540   5.293   5.952   6.337
74901SOL     OW26541  12.323   4.715   3.679
74901SOL    HW126542  12.280   4.800   3.688
74901SOL    HW226543  12.325   4.681   3.769
74902SOL     OW26544   4.417   9.744   7.904
74902SOL    HW126545   4.468   9.697   7.838
74902SOL    HW226546   4.480   9.805   7.943
74903SOL     OW26547   0.351   9.429  11.599
74903SOL    HW126548   0.426   9.487  11.608
74903SOL    HW226549   0.348   9.380  11.682
74904SOL     OW26550   5.313   3.869  14.267
74904SOL    HW126551   5.222   3.879  14.238
74904SOL    HW226552   5.358   3.832  14.192
74905SOL     OW26553  12.402   5.619   1.173
74905SOL    HW126554  12.355   5.544   1.134
74905SOL    HW226555  12.494   5.594   1.169
74906SOL     OW26556   1.561  11.656  14.119
74906SOL    HW126557   1.653  11.677  14.105
74906SOL    HW226558   1.516  11.740  14.117
74907SOL     OW26559   6.040   2.512   4.896
74907SOL    HW126560   5.993   2.444   4.944
74907SOL    HW226561   5.982   2.535   4.823
74908SOL     OW26562   4.125   5.573   5.497
74908SOL    HW126563   4.168   5.657   5.488
74908SOL    HW226564   4.125   5.557   5.592
74909SOL     OW26565   7.926  12.798   9.000
74909SOL    HW126566   7.990  12.838   9.058
74909SOL    HW226567   7.879  12.872   8.962
74910SOL     OW26568  13.078   6.295   1.734
74910SOL    HW126569  13.020   6.224   1.707
74910SOL    HW226570  13.071   6.360   1.664
74911SOL     OW26571   1.915   9.178  11.525
74911SOL    HW126572   1.851   9.107  11.525
74911SOL    HW226573   1.988   9.145  11.472
74912SOL     OW26574   6.897   1.726   1.505
74912SOL    HW126575   6.841   1.766   1.571
74912SOL    HW226576   6.903   1.634   1.531
74913SOL     OW26577   9.463  10.895  11.889
74913SOL    HW126578   9.521  10.827  11.924
74913SOL    HW226579   9.452  10.872  11.797
74914SOL     OW26580   1.675  10.216  12.119
74914SOL    HW126581   1.591  10.220  12.072
74914SOL    HW226582   1.683  10.124  12.146
74915SOL     OW26583   9.811   1.630   3.976
74915SOL    HW126584   9.799   1.592   4.063
74915SOL    HW226585   9.887   1.687   3.986
74916SOL     OW26586  11.149   2.661   8.752
74916SOL    HW126587  11.230   2.698   8.718
74916SOL    HW226588  11.148   2.685   8.845
74917SOL     OW26589   6.988   1.293   1.354
74917SOL    HW126590   6.985   1.200   1.376
74917SOL    HW226591   6.949   1.336   1.430
74918SOL     OW26592   0.970   8.356   4.309
74918SOL    HW126593   0.956   8.393   4.222
74918SOL    HW226594   0.924   8.272   4.308
74919SOL     OW26595   5.710  10.478   3.508
74919SOL    HW126596   5.667  10.556   3.543
74919SOL    HW226597   5.799  10.481   3.545
74920SOL     OW26598   4.512   8.132  10.916
74920SOL    HW126599   4.600   8.124  10.879
74920SOL    HW226600   4.521   8.198  10.984
74921SOL     OW26601  13.483   8.613   5.146
74921SOL    HW126602  13.566   8.577   5.115
74921SOL    HW226603  13.499   8.635   5.238
74922SOL     OW26604  14.131   1.096   1.520
74922SOL    HW126605  14.092   1.074   1.605
74922SOL    HW226606  14.224   1.075   1.530
74923SOL     OW26607   0.842   5.408   7.597
74923SOL    HW126608   0.752   5.377   7.586
74923SOL    HW226609   0.895   5.328   7.596
74924SOL     OW26610  12.023   7.351   2.749
74924SOL    HW126611  11.959   7.353   2.820
74924SOL    HW226612  12.079   7.427   2.764
74925SOL     OW26613   8.857   7.992   7.337
74925SOL    HW126614   8.952   8.000   7.346
74925SOL    HW226615   8.822   8.074   7.372
74926SOL     OW26616   4.423   0.728  12.888
74926SOL    HW126617   4.328   0.735  12.895
74926SOL    HW226618   4.451   0.811  12.850
74927SOL     OW26619  12.292   7.017   7.783
74927SOL    HW126620  12.249   6.944   7.738
74927SOL    HW226621  12.385   7.003   7.768
74928SOL     OW26622   6.986  10.806  10.073
74928SOL    HW126623   6.896  10.815  10.043
74928SOL    HW226624   7.002  10.885  10.124
74929SOL     OW26625   1.118  13.703   2.323
74929SOL    HW126626   1.195  13.725   2.376
74929SOL    HW226627   1.097  13.784   2.275
74930SOL     OW26628  10.065   5.295   5.796
74930SOL    HW126629  10.101   5.356   5.732
74930SOL    HW226630   9.970   5.306   5.788
74931SOL     OW26631   7.931   2.816   9.130
74931SOL    HW126632   7.890   2.824   9.216
74931SOL    HW226633   8.025   2.811   9.149
74932SOL     OW26634   6.773  11.764  10.394
74932SOL    HW126635   6.680  11.758  10.372
74932SOL    HW226636   6.815  11.791  10.312
74933SOL     OW26637   7.579   5.306   8.969
74933SOL    HW126638   7.623   5.224   8.948
74933SOL    HW226639   7.635   5.374   8.932
74934SOL     OW26640   6.358   7.179   6.131
74934SOL    HW126641   6.372   7.111   6.197
74934SOL    HW226642   6.445   7.196   6.095
74935SOL     OW26643   7.679  12.813  10.804
74935SOL    HW126644   7.757  12.826  10.749
74935SOL    HW226645   7.685  12.722  10.833
74936SOL     OW26646   2.433   9.565   0.476
74936SOL    HW126647   2.435   9.659   0.457
74936SOL    HW226648   2.375   9.558   0.552
74937SOL     OW26649   3.864  12.641   4.383
74937SOL    HW126650   3.841  12.692   4.305
74937SOL    HW226651   3.955  12.663   4.400
74938SOL     OW26652   4.049   3.119   1.476
74938SOL    HW126653   4.082   3.182   1.540
74938SOL    HW226654   4.119   3.055   1.466
74939SOL     OW26655  12.588   1.871  13.898
74939SOL    HW126656  12.643   1.798  13.927
74939SOL    HW226657  12.619   1.890  13.809
74940SOL     OW26658   3.319   0.085  12.838
74940SOL    HW126659   3.272   0.030  12.776
74940SOL    HW226660   3.264   0.085  12.916
74941SOL     OW26661   2.417  10.741   0.209
74941SOL    HW126662   2.409  10.762   0.302
74941SOL    HW226663   2.329  10.755   0.174
74942SOL     OW26664  13.399   4.008   8.229
74942SOL    HW126665  13.480   4.058   8.236
74942SOL    HW226666  13.333   4.072   8.202
74943SOL     OW26667   5.669   4.070   5.580
74943SOL    HW126668   5.651   4.125   5.504
74943SOL    HW226669   5.589   4.017   5.590
74944SOL     OW26670   5.331   7.906   5.804
74944SOL    HW126671   5.245   7.879   5.774
74944SOL    HW226672   5.354   7.980   5.747
74945SOL     OW26673   4.350  10.793   0.110
74945SOL    HW126674   4.307  10.729   0.167
74945SOL    HW226675   4.331  10.878   0.151
74946SOL     OW26676  14.761  12.254   2.694
74946SOL    HW126677  14.695  12.262   2.763
74946SOL    HW226678  14.827  12.320   2.717
74947SOL     OW26679   7.006   8.949  11.720
74947SOL    HW126680   6.984   9.022  11.777
74947SOL    HW226681   7.088   8.976  11.677
74948SOL     OW26682   6.917   8.416   7.229
74948SOL    HW126683   6.842   8.474   7.239
74948SOL    HW226684   6.993   8.474   7.235
74949SOL     OW26685   6.874   7.111   8.335
74949SOL    HW126686   6.870   7.017   8.315
74949SOL    HW226687   6.903   7.151   8.253
74950SOL     OW26688   7.220   2.363  14.010
74950SOL    HW126689   7.191   2.278  14.044
74950SOL    HW226690   7.299   2.343  13.959
74951SOL     OW26691   9.479   3.315   3.576
74951SOL    HW126692   9.559   3.304   3.524
74951SOL    HW226693   9.506   3.299   3.666
74952SOL     OW26694   7.221   6.100   1.012
74952SOL    HW126695   7.160   6.037   1.051
74952SOL    HW226696   7.165   6.169   0.978
74953SOL     OW26697  11.812   4.752   0.128
74953SOL    HW126698  11.834   4.671   0.082
74953SOL    HW226699  11.892   4.775   0.176
74954SOL     OW26700   1.017  12.905  13.969
74954SOL    HW126701   1.001  12.950  13.886
74954SOL    HW226702   1.087  12.956  14.010
74955SOL     OW26703  11.944   6.305   4.258
74955SOL    HW126704  11.993   6.378   4.221
74955SOL    HW226705  11.852   6.328   4.244
74956SOL     OW26706   8.041   8.380   4.523
74956SOL    HW126707   8.015   8.405   4.612
74956SOL    HW226708   8.039   8.284   4.524
74957SOL     OW26709  12.304   8.802   5.601
74957SOL    HW126710  12.304   8.885   5.649
74957SOL    HW226711  12.396   8.776   5.597
74958SOL     OW26712  11.355  12.019   5.760
74958SOL    HW126713  11.345  12.105   5.719
74958SOL    HW226714  11.450  12.009   5.772
74959SOL     OW26715   7.415  12.160   5.360
74959SOL    HW126716   7.369  12.139   5.279
74959SOL    HW226717   7.407  12.255   5.369
74960SOL     OW26718  12.150  13.606   1.687
74960SOL    HW126719  12.234  13.592   1.731
74960SOL    HW226720  12.173  13.648   1.605
74961SOL     OW26721   3.659  13.956   8.946
74961SOL    HW126722   3.629  13.867   8.966
74961SOL    HW226723   3.668  13.997   9.032
74962SOL     OW26724   8.859  13.489  13.107
74962SOL    HW126725   8.831  13.535  13.186
74962SOL    HW226726   8.924  13.426  13.138
74963SOL     OW26727   0.406   1.849   2.590
74963SOL    HW126728   0.355   1.882   2.515
74963SOL    HW226729   0.371   1.761   2.606
74964SOL     OW26730   4.234   0.966  11.029
74964SOL    HW126731   4.186   0.977  10.947
74964SOL    HW226732   4.169   0.931  11.090
74965SOL     OW26733   1.852   4.466  14.181
74965SOL    HW126734   1.762   4.445  14.156
74965SOL    HW226735   1.847   4.481  14.275
74966SOL     OW26736   3.071  11.351  10.306
74966SOL    HW126737   3.095  11.341  10.214
74966SOL    HW226738   3.154  11.362  10.351
74967SOL     OW26739  10.422  13.972   4.888
74967SOL    HW126740  10.438  14.019   4.806
74967SOL    HW226741  10.480  13.896   4.885
74968SOL     OW26742  14.163   4.125   7.407
74968SOL    HW126743  14.218   4.163   7.338
74968SOL    HW226744  14.140   4.038   7.375
74969SOL     OW26745   7.108   3.347  13.166
74969SOL    HW126746   7.131   3.286  13.096
74969SOL    HW226747   7.186   3.403  13.175
74970SOL     OW26748   0.264   2.912   3.814
74970SOL    HW126749   0.334   2.963   3.773
74970SOL    HW226750   0.187   2.969   3.809
74971SOL     OW26751   8.399   2.581  13.684
74971SOL    HW126752   8.317   2.531  13.682
74971SOL    HW226753   8.434   2.572  13.596
74972SOL     OW26754  13.552   7.241   5.589
74972SOL    HW126755  13.576   7.283   5.506
74972SOL    HW226756  13.489   7.301   5.629
74973SOL     OW26757  14.428   4.220   0.675
74973SOL    HW126758  14.336   4.243   0.666
74973SOL    HW226759  14.458   4.208   0.584
74974SOL     OW26760  11.154   0.677   4.993
74974SOL    HW126761  11.080   0.641   4.945
74974SOL    HW226762  11.187   0.748   4.939
74975SOL     OW26763  13.907   7.864   6.239
74975SOL    HW126764  13.991   7.898   6.208
74975SOL    HW226765  13.842   7.925   6.204
74976SOL     OW26766   8.157   1.448  13.949
74976SOL    HW126767   8.105   1.369  13.940
74976SOL    HW226768   8.210   1.433  14.028
74977SOL     OW26769   3.310   2.163  12.828
74977SOL    HW126770   3.245   2.093  12.832
74977SOL    HW226771   3.261   2.239  12.796
74978SOL     OW26772   3.175   0.403  13.371
74978SOL    HW126773   3.254   0.417  13.423
74978SOL    HW226774   3.207   0.378  13.284
74979SOL     OW26775   4.844   0.664   6.399
74979SOL    HW126776   4.824   0.577   6.435
74979SOL    HW226777   4.822   0.725   6.470
74980SOL     OW26778   9.853  11.274  13.018
74980SOL    HW126779   9.803  11.245  12.942
74980SOL    HW226780   9.856  11.369  13.010
74981SOL     OW26781   4.632  10.986   9.683
74981SOL    HW126782   4.625  10.890   9.674
74981SOL    HW226783   4.570  11.020   9.618
74982SOL     OW26784  12.302   3.729  11.552
74982SOL    HW126785  12.373   3.702  11.610
74982SOL    HW226786  12.243   3.779  11.609
74983SOL     OW26787   9.547   5.238  12.601
74983SOL    HW126788   9.591   5.157  12.626
74983SOL    HW226789   9.542   5.288  12.683
74984SOL     OW26790  13.803   5.589  10.992
74984SOL    HW126791  13.828   5.654  11.058
74984SOL    HW226792  13.713   5.568  11.013
74985SOL     OW26793  11.651  14.331  10.914
74985SOL    HW126794  11.614  14.419  10.903
74985SOL    HW226795  11.579  14.279  10.950
74986SOL     OW26796  10.399   0.431   4.514
74986SOL    HW126797  10.434   0.508   4.467
74986SOL    HW226798  10.305   0.448   4.520
74987SOL     OW26799   5.109   6.676   1.738
74987SOL    HW126800   5.175   6.629   1.790
74987SOL    HW226801   5.149   6.685   1.651
74988SOL     OW26802   7.816   9.546  13.933
74988SOL    HW126803   7.846   9.628  13.893
74988SOL    HW226804   7.891   9.487  13.926
74989SOL     OW26805  13.895  10.140  10.422
74989SOL    HW126806  13.934  10.070  10.371
74989SOL    HW226807  13.882  10.211  10.360
74990SOL     OW26808  12.195   5.401   6.471
74990SOL    HW126809  12.287   5.388   6.493
74990SOL    HW226810  12.156   5.314   6.479
74991SOL     OW26811   1.732  10.141   5.127
74991SOL    HW126812   1.815  10.116   5.166
74991SOL    HW226813   1.720  10.232   5.151
74992SOL     OW26814   3.909   1.298   6.770
74992SOL    HW126815   3.851   1.258   6.704
74992SOL    HW226816   3.994   1.257   6.754
74993SOL     OW26817   4.970  12.020  14.196
74993SOL    HW126818   4.920  11.947  14.232
74993SOL    HW226819   4.918  12.050  14.121
74994SOL     OW26820   2.706  12.026   0.390
74994SOL    HW126821   2.626  11.976   0.401
74994SOL    HW226822   2.688  12.111   0.431
74995SOL     OW26823   3.078   9.329   9.192
74995SOL    HW126824   3.171   9.349   9.182
74995SOL    HW226825   3.034   9.413   9.177
74996SOL     OW26826   6.951  11.714   2.105
74996SOL    HW126827   6.932  11.806   2.089
74996SOL    HW226828   6.899  11.667   2.039
74997SOL     OW26829   7.242  11.744  14.435
74997SOL    HW126830   7.269  11.815  14.377
74997SOL    HW226831   7.204  11.789  14.511
74998SOL     OW26832  13.867   4.959   0.152
74998SOL    HW126833  13.943   5.015   0.168
74998SOL    HW226834  13.811   4.972   0.228
74999SOL     OW26835  14.646   3.027   5.105
74999SOL    HW126836  14.642   3.029   5.010
74999SOL    HW226837  14.583   3.094   5.133
75000SOL     OW26838   0.290   2.994   8.738
75000SOL    HW126839   0.237   3.015   8.662
75000SOL    HW226840   0.250   2.915   8.775
75001SOL     OW26841   8.576   2.168  13.572
75001SOL    HW126842   8.648   2.110  13.598
75001SOL    HW226843   8.522   2.115  13.513
75002SOL     OW26844  13.098   7.276   0.301
75002SOL    HW126845  13.158   7.289   0.374
75002SOL    HW226846  13.011   7.288   0.338
75003SOL     OW26847   4.269  14.640   5.449
75003SOL    HW126848   4.177  14.612   5.453
75003SOL    HW226849   4.264  14.732   5.425
75004SOL     OW26850   4.713   7.365  14.557
75004SOL    HW126851   4.759   7.332  14.481
75004SOL    HW226852   4.758   7.447  14.579
75005SOL     OW26853   7.853   6.079  11.740
75005SOL    HW126854   7.810   5.994  11.732
75005SOL    HW226855   7.902   6.089  11.659
75006SOL     OW26856  10.482   7.613   4.320
75006SOL    HW126857  10.410   7.618   4.383
75006SOL    HW226858  10.439   7.605   4.235
75007SOL     OW26859   1.239  13.759  13.861
75007SOL    HW126860   1.325  13.719  13.874
75007SOL    HW226861   1.253  13.824  13.792
75008SOL     OW26862   7.524   8.995   3.888
75008SOL    HW126863   7.501   9.087   3.873
75008SOL    HW226864   7.496   8.950   3.808
75009SOL     OW26865   9.428   9.857  10.054
75009SOL    HW126866   9.492   9.852  10.125
75009SOL    HW226867   9.358   9.797  10.080
75010SOL     OW26868  11.955  10.583   0.418
75010SOL    HW126869  11.862  10.575   0.440
75010SOL    HW226870  11.986  10.492   0.411
75011SOL     OW26871   3.973   4.281   5.122
75011SOL    HW126872   4.045   4.345   5.118
75011SOL    HW226873   3.928   4.290   5.038
75012SOL     OW26874  11.689  10.322   6.649
75012SOL    HW126875  11.724  10.322   6.738
75012SOL    HW226876  11.595  10.334   6.660
75013SOL     OW26877  12.274  14.750   3.354
75013SOL    HW126878  12.237  14.706   3.278
75013SOL    HW226879  12.307  14.833   3.320
75014SOL     OW26880   4.275   8.958   2.452
75014SOL    HW126881   4.307   8.949   2.541
75014SOL    HW226882   4.185   8.990   2.461
75015SOL     OW26883   2.627   4.602   7.324
75015SOL    HW126884   2.631   4.619   7.230
75015SOL    HW226885   2.539   4.568   7.338
75016SOL     OW26886   7.248   1.135   9.697
75016SOL    HW126887   7.253   1.043   9.670
75016SOL    HW226888   7.191   1.135   9.774
75017SOL     OW26889   2.517   0.093   9.801
75017SOL    HW126890   2.606   0.058   9.800
75017SOL    HW226891   2.516   0.157   9.872
75018SOL     OW26892  11.788   6.518   5.766
75018SOL    HW126893  11.694   6.506   5.771
75018SOL    HW226894  11.822   6.435   5.731
75019SOL     OW26895   0.280  13.955   3.552
75019SOL    HW126896   0.218  13.953   3.625
75019SOL    HW226897   0.303  13.863   3.539
75020SOL     OW26898  12.774   6.338   0.076
75020SOL    HW126899  12.807   6.427   0.064
75020SOL    HW226900  12.706   6.329   0.009
75021SOL     OW26901   8.077  13.240   3.752
75021SOL    HW126902   8.039  13.328   3.760
75021SOL    HW226903   8.004  13.185   3.724
75022SOL     OW26904   5.929   9.002   6.230
75022SOL    HW126905   5.969   8.926   6.271
75022SOL    HW226906   5.977   9.013   6.148
75023SOL     OW26907   8.731  12.297   0.592
75023SOL    HW126908   8.813  12.333   0.559
75023SOL    HW226909   8.702  12.237   0.523
75024SOL     OW26910   1.581  13.885   9.297
75024SOL    HW126911   1.487  13.875   9.283
75024SOL    HW226912   1.593  13.980   9.306
75025SOL     OW26913   4.338  14.799  13.835
75025SOL    HW126914   4.396  14.825  13.907
75025SOL    HW226915   4.250  14.811  13.870
75026SOL     OW26916   9.611  14.177  12.360
75026SOL    HW126917   9.652  14.236  12.297
75026SOL    HW226918   9.671  14.174  12.434
75027SOL     OW26919  13.029   8.944   4.113
75027SOL    HW126920  13.118   8.920   4.088
75027SOL    HW226921  12.973   8.879   4.071
75028SOL     OW26922  13.316  13.113   0.160
75028SOL    HW126923  13.333  13.200   0.198
75028SOL    HW226924  13.346  13.052   0.227
75029SOL     OW26925   1.011  12.444   0.719
75029SOL    HW126926   1.064  12.364   0.718
75029SOL    HW226927   1.074  12.514   0.701
75030SOL     OW26928  11.841   2.859   4.461
75030SOL    HW126929  11.753   2.840   4.493
75030SOL    HW226930  11.873   2.775   4.427
75031SOL     OW26931   4.831   2.215   3.037
75031SOL    HW126932   4.759   2.162   3.071
75031SOL    HW226933   4.824   2.206   2.942
75032SOL     OW26934   7.696   1.990   4.820
75032SOL    HW126935   7.636   2.038   4.763
75032SOL    HW226936   7.782   2.003   4.780
75033SOL     OW26937   5.103  14.797   9.612
75033SOL    HW126938   5.142  14.711   9.624
75033SOL    HW226939   5.175  14.853   9.583
75034SOL     OW26940   6.987  11.617  11.411
75034SOL    HW126941   6.909  11.577  11.374
75034SOL    HW226942   6.966  11.711  11.415
75035SOL     OW26943   4.775   3.035   0.532
75035SOL    HW126944   4.753   2.945   0.508
75035SOL    HW226945   4.720   3.054   0.608
75036SOL     OW26946   5.759   9.530   3.278
75036SOL    HW126947   5.668   9.553   3.295
75036SOL    HW226948   5.766   9.438   3.303
75037SOL     OW26949   4.649   0.209  14.700
75037SOL    HW126950   4.595   0.278  14.739
75037SOL    HW226951   4.589   0.160  14.645
75038SOL     OW26952  10.656   3.641  11.003
75038SOL    HW126953  10.709   3.714  11.034
75038SOL    HW226954  10.603   3.616  11.079
75039SOL     OW26955  10.957   4.816  13.216
75039SOL    HW126956  10.979   4.732  13.259
75039SOL    HW226957  10.934   4.791  13.127
75040SOL     OW26958  10.775  10.145   0.587
75040SOL    HW126959  10.743  10.232   0.561
75040SOL    HW226960  10.761  10.142   0.682
75041SOL     OW26961  14.741   7.219   1.044
75041SOL    HW126962  14.721   7.159   0.973
75041SOL    HW226963  14.837   7.215   1.053
75042SOL     OW26964  11.677   8.976   7.786
75042SOL    HW126965  11.742   8.925   7.834
75042SOL    HW226966  11.593   8.944   7.818
75043SOL     OW26967  12.750   5.027  12.662
75043SOL    HW126968  12.802   5.070  12.594
75043SOL    HW226969  12.812   5.008  12.732
75044SOL     OW26970   4.868   9.121   0.538
75044SOL    HW126971   4.870   9.217   0.536
75044SOL    HW226972   4.777   9.099   0.557
75045SOL     OW26973   2.274   5.339   7.283
75045SOL    HW126974   2.215   5.363   7.212
75045SOL    HW226975   2.230   5.368   7.362
75046SOL     OW26976  11.373  12.113   3.352
75046SOL    HW126977  11.442  12.163   3.396
75046SOL    HW226978  11.372  12.147   3.263
75047SOL     OW26979   8.542  11.835   9.229
75047SOL    HW126980   8.524  11.756   9.178
75047SOL    HW226981   8.572  11.802   9.314
75048SOL     OW26982  11.133   6.931   8.867
75048SOL    HW126983  11.133   6.863   8.935
75048SOL    HW226984  11.208   6.987   8.889
75049SOL     OW26985   1.402   0.425   0.734
75049SOL    HW126986   1.331   0.397   0.676
75049SOL    HW226987   1.467   0.463   0.675
75050SOL     OW26988   3.570   2.145  10.946
75050SOL    HW126989   3.652   2.097  10.960
75050SOL    HW226990   3.598   2.237  10.943
75051SOL     OW26991  14.540   2.500   5.006
75051SOL    HW126992  14.607   2.479   4.941
75051SOL    HW226993  14.511   2.414   5.039
75052SOL     OW26994   5.131   8.814   6.254
75052SOL    HW126995   5.117   8.803   6.160
75052SOL    HW226996   5.213   8.862   6.261
75053SOL     OW26997   5.377   4.103   8.900
75053SOL    HW126998   5.418   4.020   8.875
75053SOL    HW226999   5.439   4.143   8.961
75054SOL     OW27000  13.379  11.436   5.727
75054SOL    HW127001  13.423  11.505   5.777
75054SOL    HW227002  13.393  11.460   5.635
75055SOL     OW27003  13.325   8.251  14.755
75055SOL    HW127004  13.300   8.158  14.762
75055SOL    HW227005  13.416   8.249  14.726
75056SOL     OW27006   1.767  13.536   6.323
75056SOL    HW127007   1.675  13.549   6.348
75056SOL    HW227008   1.770  13.447   6.287
75057SOL     OW27009   6.118   7.622  14.196
75057SOL    HW127010   6.171   7.675  14.255
75057SOL    HW227011   6.166   7.622  14.114
75058SOL     OW27012   5.991  12.581   8.335
75058SOL    HW127013   6.035  12.556   8.416
75058SOL    HW227014   6.045  12.650   8.298
75059SOL     OW27015   3.131   5.912  10.582
75059SOL    HW127016   3.203   5.949  10.633
75059SOL    HW227017   3.102   5.983  10.526
75060SOL     OW27018   4.427   1.138   1.426
75060SOL    HW127019   4.355   1.161   1.486
75060SOL    HW227020   4.453   1.050   1.453
75061SOL     OW27021   5.101   1.981   1.142
75061SOL    HW127022   5.050   2.058   1.171
75061SOL    HW227023   5.166   2.017   1.082
75062SOL     OW27024  13.646   2.569  13.337
75062SOL    HW127025  13.728   2.613  13.317
75062SOL    HW227026  13.583   2.606  13.275
75063SOL     OW27027  13.370   3.346  10.041
75063SOL    HW127028  13.400   3.414  10.101
75063SOL    HW227029  13.331   3.279  10.098
75064SOL     OW27030   7.999   5.407  11.477
75064SOL    HW127031   8.060   5.336  11.455
75064SOL    HW227032   8.018   5.428  11.568
75065SOL     OW27033   7.515   2.843  11.295
75065SOL    HW127034   7.425   2.827  11.323
75065SOL    HW227035   7.515   2.823  11.201
75066SOL     OW27036   8.615   2.620   9.403
75066SOL    HW127037   8.709   2.605   9.413
75066SOL    HW227038   8.593   2.584   9.317
75067SOL     OW27039  13.840   0.775   4.239
75067SOL    HW127040  13.880   0.771   4.152
75067SOL    HW227041  13.751   0.806   4.223
75068SOL     OW27042  12.721   4.080  14.627
75068SOL    HW127043  12.681   4.081  14.714
75068SOL    HW227044  12.745   3.988  14.613
75069SOL     OW27045   8.734   7.443  10.735
75069SOL    HW127046   8.723   7.350  10.754
75069SOL    HW227047   8.741   7.484  10.822
75070SOL     OW27048   4.267   4.108   3.417
75070SOL    HW127049   4.255   4.086   3.509
75070SOL    HW227050   4.341   4.054   3.388
75071SOL     OW27051   1.172   1.205   6.934
75071SOL    HW127052   1.077   1.206   6.943
75071SOL    HW227053   1.203   1.268   6.999
75072SOL     OW27054   5.067   5.330  14.393
75072SOL    HW127055   5.051   5.235  14.390
75072SOL    HW227056   5.099   5.352  14.306
75073SOL     OW27057   1.937  10.456   7.301
75073SOL    HW127058   1.974  10.515   7.235
75073SOL    HW227059   1.876  10.511   7.350
75074SOL     OW27060   2.303  11.637   9.713
75074SOL    HW127061   2.213  11.669   9.714
75074SOL    HW227062   2.348  11.693   9.650
75075SOL     OW27063   9.304   5.891   2.357
75075SOL    HW127064   9.313   5.799   2.382
75075SOL    HW227065   9.210   5.907   2.359
75076SOL     OW27066   7.736   5.586   2.237
75076SOL    HW127067   7.735   5.679   2.216
75076SOL    HW227068   7.643   5.561   2.240
75077SOL     OW27069   0.769  10.444  13.228
75077SOL    HW127070   0.729  10.397  13.302
75077SOL    HW227071   0.790  10.530  13.264
75078SOL     OW27072   7.382  13.589   0.685
75078SOL    HW127073   7.410  13.567   0.597
75078SOL    HW227074   7.393  13.508   0.735
75079SOL     OW27075  11.812   7.548   1.295
75079SOL    HW127076  11.823   7.644   1.292
75079SOL    HW227077  11.850   7.522   1.379
75080SOL     OW27078   9.226  11.294  10.808
75080SOL    HW127079   9.144  11.313  10.761
75080SOL    HW227080   9.207  11.214  10.856
75081SOL     OW27081   3.631   7.021   0.594
75081SOL    HW127082   3.661   7.109   0.570
75081SOL    HW227083   3.662   6.965   0.522
75082SOL     OW27084   4.331  14.736   0.523
75082SOL    HW127085   4.271  14.755   0.595
75082SOL    HW227086   4.413  14.779   0.549
75083SOL     OW27087   0.477   3.787   4.208
75083SOL    HW127088   0.456   3.871   4.167
75083SOL    HW227089   0.414   3.725   4.171
75084SOL     OW27090  12.202   5.021   6.474
75084SOL    HW127091  12.127   5.079   6.484
75084SOL    HW227092  12.181   4.966   6.399
75085SOL     OW27093  11.185  12.975   9.445
75085SOL    HW127094  11.156  12.934   9.364
75085SOL    HW227095  11.205  12.902   9.504
75086SOL     OW27096   1.967   3.218   7.286
75086SOL    HW127097   2.024   3.256   7.353
75086SOL    HW227098   1.943   3.132   7.321
75087SOL     OW27099   4.133   8.529   9.316
75087SOL    HW127100   4.056   8.581   9.336
75087SOL    HW227101   4.158   8.555   9.227
75088SOL     OW27102   1.849   9.353  14.416
75088SOL    HW127103   1.854   9.358  14.512
75088SOL    HW227104   1.765   9.392  14.394
75089SOL     OW27105  11.086   3.040  10.759
75089SOL    HW127106  11.174   3.062  10.789
75089SOL    HW227107  11.037   3.021  10.838
75090SOL     OW27108  12.235  11.038   2.005
75090SOL    HW127109  12.144  11.008   2.003
75090SOL    HW227110  12.286  10.958   2.020
75091SOL     OW27111   9.328  14.510  13.475
75091SOL    HW127112   9.361  14.438  13.529
75091SOL    HW227113   9.403  14.569  13.465
75092SOL     OW27114  13.985   4.157   9.320
75092SOL    HW127115  13.900   4.152   9.277
75092SOL    HW227116  14.005   4.251   9.323
75093SOL     OW27117   1.368   4.524   1.802
75093SOL    HW127118   1.308   4.458   1.834
75093SOL    HW227119   1.315   4.603   1.791
75094SOL     OW27120   9.077   8.616  14.794
75094SOL    HW127121   9.116   8.530  14.809
75094SOL    HW227122   9.055   8.648   0.002
75095SOL     OW27123   1.303  10.999   7.789
75095SOL    HW127124   1.251  10.946   7.729
75095SOL    HW227125   1.240  11.032   7.853
75096SOL     OW27126   0.243   3.669   3.555
75096SOL    HW127127   0.166   3.677   3.499
75096SOL    HW227128   0.255   3.575   3.566
75097SOL     OW27129  14.236   3.031  14.364
75097SOL    HW127130  14.292   3.087  14.418
75097SOL    HW227131  14.158   3.017  14.417
75098SOL     OW27132  11.640  10.594  11.645
75098SOL    HW127133  11.593  10.675  11.660
75098SOL    HW227134  11.639  10.583  11.550
75099SOL     OW27135   7.480   0.135  13.035
75099SOL    HW127136   7.395   0.096  13.053
75099SOL    HW227137   7.539   0.060  13.028
75100SOL     OW27138   3.700   7.501   7.281
75100SOL    HW127139   3.690   7.582   7.332
75100SOL    HW227140   3.632   7.507   7.214
75101SOL     OW27141   4.620   3.668  14.469
75101SOL    HW127142   4.629   3.594  14.528
75101SOL    HW227143   4.678   3.735  14.505
75102SOL     OW27144   8.663   8.485  10.188
75102SOL    HW127145   8.735   8.547  10.177
75102SOL    HW227146   8.660   8.438  10.104
75103SOL     OW27147   5.304   0.055   9.499
75103SOL    HW127148   5.251   0.085   9.425
75103SOL    HW227149   5.392   0.088   9.481
75104SOL     OW27150  14.151   9.434  10.878
75104SOL    HW127151  14.160   9.379  10.800
75104SOL    HW227152  14.186   9.519  10.852
75105SOL     OW27153   4.895   3.156   7.066
75105SOL    HW127154   4.912   3.250   7.071
75105SOL    HW227155   4.849   3.134   7.147
75106SOL     OW27156  13.028  12.812   0.750
75106SOL    HW127157  13.084  12.879   0.711
75106SOL    HW227158  12.978  12.858   0.817
75107SOL     OW27159  12.133  11.651  12.940
75107SOL    HW127160  12.201  11.595  12.902
75107SOL    HW227161  12.178  11.733  12.959
75108SOL     OW27162  12.022   1.243  10.008
75108SOL    HW127163  12.105   1.202   9.984
75108SOL    HW227164  11.982   1.181  10.070
75109SOL     OW27165  12.984   9.014   3.197
75109SOL    HW127166  12.996   9.073   3.271
75109SOL    HW227167  12.995   9.070   3.120
75110SOL     OW27168  13.460   2.296   0.053
75110SOL    HW127169  13.378   2.327   0.015
75110SOL    HW227170  13.482   2.361   0.119
75111SOL     OW27171  11.781  13.504   9.649
75111SOL    HW127172  11.695  13.462   9.640
75111SOL    HW227173  11.783  13.535   9.740
75112SOL     OW27174   7.918   2.499  14.488
75112SOL    HW127175   7.840   2.519  14.540
75112SOL    HW227176   7.950   2.416  14.523
75113SOL     OW27177  13.345  11.579   5.286
75113SOL    HW127178  13.354  11.654   5.228
75113SOL    HW227179  13.317  11.508   5.228
75114SOL     OW27180   3.457   4.176   3.662
75114SOL    HW127181   3.450   4.266   3.693
75114SOL    HW227182   3.448   4.182   3.567
75115SOL     OW27183   7.586   9.833   4.122
75115SOL    HW127184   7.545   9.831   4.035
75115SOL    HW227185   7.677   9.806   4.107
75116SOL     OW27186  13.778   9.519   8.066
75116SOL    HW127187  13.788   9.479   7.980
75116SOL    HW227188  13.684   9.533   8.075
75117SOL     OW27189  13.203   7.137  12.889
75117SOL    HW127190  13.152   7.169  12.964
75117SOL    HW227191  13.280   7.095  12.927
75118SOL     OW27192   5.479   9.690   3.173
75118SOL    HW127193   5.402   9.689   3.229
75118SOL    HW227194   5.487   9.599   3.142
75119SOL     OW27195   2.150  14.429   0.615
75119SOL    HW127196   2.241  14.441   0.641
75119SOL    HW227197   2.133  14.501   0.553
75120SOL     OW27198   3.184   1.786   7.149
75120SOL    HW127199   3.116   1.820   7.091
75120SOL    HW227200   3.263   1.783   7.095
75121SOL     OW27201   4.336  10.093  11.509
75121SOL    HW127202   4.347  10.182  11.475
75121SOL    HW227203   4.353  10.036  11.434
75122SOL     OW27204  11.796  11.373   5.485
75122SOL    HW127205  11.874  11.342   5.438
75122SOL    HW227206  11.737  11.298   5.484
75123SOL     OW27207   3.393   3.386  11.554
75123SOL    HW127208   3.319   3.394  11.615
75123SOL    HW227209   3.395   3.292  11.533
75124SOL     OW27210   2.089  11.179   4.232
75124SOL    HW127211   2.093  11.086   4.253
75124SOL    HW227212   2.149  11.221   4.294
75125SOL     OW27213  13.206   2.341   3.242
75125SOL    HW127214  13.145   2.387   3.185
75125SOL    HW227215  13.269   2.301   3.183
75126SOL     OW27216   1.163  14.439  11.142
75126SOL    HW127217   1.085  14.468  11.093
75126SOL    HW227218   1.158  14.343  11.140
75127SOL     OW27219   4.429  14.522   0.221
75127SOL    HW127220   4.517  14.556   0.205
75127SOL    HW227221   4.425  14.509   0.316
75128SOL     OW27222  12.942   4.403  13.805
75128SOL    HW127223  12.997   4.355  13.743
75128SOL    HW227224  13.003   4.459  13.852
75129SOL     OW27225   4.354   9.980   5.946
75129SOL    HW127226   4.382  10.034   6.020
75129SOL    HW227227   4.372  10.034   5.869
75130SOL     OW27228   0.896   3.004   1.960
75130SOL    HW127229   0.977   3.055   1.973
75130SOL    HW227230   0.852   3.007   2.045
75131SOL     OW27231   6.087   4.436   2.954
75131SOL    HW127232   6.077   4.527   2.982
75131SOL    HW227233   6.163   4.437   2.896
75132SOL     OW27234   6.436   2.432  11.278
75132SOL    HW127235   6.349   2.424  11.240
75132SOL    HW227236   6.477   2.347  11.262
75133SOL     OW27237  12.058   6.577   2.422
75133SOL    HW127238  12.144   6.610   2.396
75133SOL    HW227239  11.997   6.646   2.396
75134SOL     OW27240   2.077   5.986   0.623
75134SOL    HW127241   2.125   5.966   0.543
75134SOL    HW227242   2.089   6.080   0.636
75135SOL     OW27243  11.968   1.303  13.707
75135SOL    HW127244  11.889   1.267  13.667
75135SOL    HW227245  11.936   1.358  13.779
75136SOL     OW27246   0.864   6.433   0.347
75136SOL    HW127247   0.821   6.507   0.389
75136SOL    HW227248   0.911   6.389   0.418
75137SOL     OW27249  12.665  11.246   7.641
75137SOL    HW127250  12.711  11.162   7.631
75137SOL    HW227251  12.640  11.249   7.733
75138SOL     OW27252  13.262   1.217   8.622
75138SOL    HW127253  13.350   1.180   8.616
75138SOL    HW227254  13.256   1.250   8.711
75139SOL     OW27255   1.164  12.537   9.188
75139SOL    HW127256   1.145  12.621   9.230
75139SOL    HW227257   1.194  12.480   9.259
75140SOL     OW27258  11.786  13.890  12.676
75140SOL    HW127259  11.773  13.858  12.587
75140SOL    HW227260  11.708  13.861  12.724
75141SOL     OW27261  11.051   2.161   2.927
75141SOL    HW127262  10.981   2.226   2.922
75141SOL    HW227263  11.090   2.161   2.840
75142SOL     OW27264  11.412   0.533   4.990
75142SOL    HW127265  11.409   0.447   4.947
75142SOL    HW227266  11.327   0.572   4.971
75143SOL     OW27267   6.199   1.388  12.055
75143SOL    HW127268   6.170   1.478  12.039
75143SOL    HW227269   6.292   1.389  12.034
75144SOL     OW27270   5.174   8.202   6.005
75144SOL    HW127271   5.160   8.117   6.049
75144SOL    HW227272   5.098   8.211   5.947
75145SOL     OW27273  12.311   1.281  11.494
75145SOL    HW127274  12.216   1.290  11.501
75145SOL    HW227275  12.324   1.217  11.424
75146SOL     OW27276   2.962   8.501   6.748
75146SOL    HW127277   3.037   8.492   6.688
75146SOL    HW227278   2.998   8.547   6.824
75147SOL     OW27279   1.564   3.470  10.795
75147SOL    HW127280   1.543   3.442  10.706
75147SOL    HW227281   1.481   3.502  10.830
75148SOL     OW27282   2.338   0.678   7.483
75148SOL    HW127283   2.325   0.762   7.526
75148SOL    HW227284   2.421   0.645   7.517
75149SOL     OW27285   7.883   4.058  13.261
75149SOL    HW127286   7.954   3.996  13.244
75149SOL    HW227287   7.807   4.003  13.282
75150SOL     OW27288  11.502   1.498   4.810
75150SOL    HW127289  11.509   1.433   4.881
75150SOL    HW227290  11.519   1.448   4.730
75151SOL     OW27291  10.463   8.126   5.797
75151SOL    HW127292  10.414   8.045   5.809
75151SOL    HW227293  10.476   8.133   5.703
75152SOL     OW27294   0.264   4.003   3.760
75152SOL    HW127295   0.332   3.977   3.697
75152SOL    HW227296   0.311   4.012   3.843
75153SOL     OW27297   6.161  13.416  12.444
75153SOL    HW127298   6.195  13.404  12.532
75153SOL    HW227299   6.077  13.370  12.444
75154SOL     OW27300   1.737   6.080  11.236
75154SOL    HW127301   1.794   6.133  11.182
75154SOL    HW227302   1.695   6.020  11.175
75155SOL     OW27303   0.887  10.551   2.491
75155SOL    HW127304   0.975  10.514   2.485
75155SOL    HW227305   0.829  10.475   2.486
75156SOL     OW27306  10.297  14.571   3.692
75156SOL    HW127307  10.218  14.622   3.709
75156SOL    HW227308  10.324  14.540   3.779
75157SOL     OW27309   8.392   3.087   3.599
75157SOL    HW127310   8.387   3.005   3.648
75157SOL    HW227311   8.481   3.090   3.566
75158SOL     OW27312   8.181   7.180  14.722
75158SOL    HW127313   8.273   7.163  14.744
75158SOL    HW227314   8.150   7.098  14.684
75159SOL     OW27315  12.430   1.809   7.692
75159SOL    HW127316  12.391   1.723   7.684
75159SOL    HW227317  12.391   1.846   7.771
75160SOL     OW27318  10.430   5.309  12.496
75160SOL    HW127319  10.470   5.260  12.568
75160SOL    HW227320  10.404   5.241  12.433
75161SOL     OW27321   7.008   5.265  13.877
75161SOL    HW127322   6.985   5.341  13.824
75161SOL    HW227323   6.952   5.195  13.845
75162SOL     OW27324   9.580   6.187   7.945
75162SOL    HW127325   9.670   6.185   7.978
75162SOL    HW227326   9.588   6.175   7.851
75163SOL     OW27327   9.748   4.160  14.173
75163SOL    HW127328   9.735   4.250  14.144
75163SOL    HW227329   9.824   4.164  14.232
75164SOL     OW27330   5.135   0.188   6.914
75164SOL    HW127331   5.134   0.214   7.006
75164SOL    HW227332   5.092   0.260   6.868
75165SOL     OW27333  11.506  12.691  13.300
75165SOL    HW127334  11.417  12.690  13.264
75165SOL    HW227335  11.557  12.637  13.239
75166SOL     OW27336   9.496   2.457   5.264
75166SOL    HW127337   9.496   2.550   5.241
75166SOL    HW227338   9.566   2.419   5.210
75167SOL     OW27339  11.517   6.829   0.040
75167SOL    HW127340  11.553   6.741   0.035
75167SOL    HW227341  11.447   6.830  14.854
75168SOL     OW27342  13.922  10.012  11.970
75168SOL    HW127343  13.942   9.994  12.062
75168SOL    HW227344  14.007  10.037  11.933
75169SOL     OW27345  14.427   4.851   4.398
75169SOL    HW127346  14.465   4.817   4.316
75169SOL    HW227347  14.492   4.830   4.465
75170SOL     OW27348   0.900  14.560  13.190
75170SOL    HW127349   0.871  14.575  13.100
75170SOL    HW227350   0.820  14.564  13.243
75171SOL     OW27351  13.411   5.535   1.530
75171SOL    HW127352  13.329   5.583   1.542
75171SOL    HW227353  13.450   5.533   1.617
75172SOL     OW27354  10.933   0.385   9.793
75172SOL    HW127355  10.850   0.337   9.792
75172SOL    HW227356  10.908   0.475   9.814
75173SOL     OW27357   7.730  10.396  14.613
75173SOL    HW127358   7.752  10.336  14.684
75173SOL    HW227359   7.725  10.482  14.656
75174SOL     OW27360  12.072   6.754  12.508
75174SOL    HW127361  12.154   6.724  12.547
75174SOL    HW227362  12.016   6.774  12.584
75175SOL     OW27363   8.019  13.260  14.476
75175SOL    HW127364   8.063  13.345  14.474
75175SOL    HW227365   7.926  13.281  14.487
75176SOL     OW27366  11.372   6.295   4.169
75176SOL    HW127367  11.281   6.322   4.185
75176SOL    HW227368  11.369   6.254   4.083
75177SOL     OW27369   8.664  14.331   1.299
75177SOL    HW127370   8.580  14.357   1.337
75177SOL    HW227371   8.672  14.384   1.220
75178SOL     OW27372  12.009   3.620   6.145
75178SOL    HW127373  11.997   3.532   6.180
75178SOL    HW227374  11.998   3.611   6.051
75179SOL     OW27375   8.847   4.145  13.237
75179SOL    HW127376   8.790   4.212  13.199
75179SOL    HW227377   8.883   4.098  13.162
75180SOL     OW27378  13.812   9.047   5.747
75180SOL    HW127379  13.859   9.123   5.714
75180SOL    HW227380  13.723   9.079   5.764
75181SOL     OW27381   3.177   0.989  10.581
75181SOL    HW127382   3.181   1.064  10.642
75181SOL    HW227383   3.132   1.023  10.504
75182SOL     OW27384   0.998  11.564  12.403
75182SOL    HW127385   0.964  11.477  12.378
75182SOL    HW227386   1.085  11.546  12.438
75183SOL     OW27387   5.175  11.523  11.752
75183SOL    HW127388   5.163  11.609  11.794
75183SOL    HW227389   5.113  11.466  11.797
75184SOL     OW27390   3.242   6.957   6.376
75184SOL    HW127391   3.249   6.893   6.305
75184SOL    HW227392   3.323   7.008   6.370
75185SOL     OW27393  12.617  10.707   5.521
75185SOL    HW127394  12.563  10.677   5.448
75185SOL    HW227395  12.567  10.778   5.561
75186SOL     OW27396   0.562   7.891  13.629
75186SOL    HW127397   0.560   7.887  13.534
75186SOL    HW227398   0.637   7.837  13.654
75187SOL     OW27399  12.315   6.361   0.191
75187SOL    HW127400  12.269   6.285   0.155
75187SOL    HW227401  12.324   6.341   0.285
75188SOL     OW27402   2.203  13.221   9.306
75188SOL    HW127403   2.256  13.169   9.367
75188SOL    HW227404   2.267  13.261   9.247
75189SOL     OW27405   4.818   4.908   6.226
75189SOL    HW127406   4.860   4.917   6.140
75189SOL    HW227407   4.784   4.818   6.226
75190SOL     OW27408   8.350  13.083   4.047
75190SOL    HW127409   8.351  13.150   4.115
75190SOL    HW227410   8.364  13.132   3.965
75191SOL     OW27411   8.738   2.919   3.209
75191SOL    HW127412   8.831   2.918   3.230
75191SOL    HW227413   8.733   2.881   3.121
75192SOL     OW27414   4.824   6.786   8.104
75192SOL    HW127415   4.732   6.809   8.100
75192SOL    HW227416   4.825   6.690   8.105
75193SOL     OW27417  11.094   2.145  10.576
75193SOL    HW127418  11.162   2.078  10.570
75193SOL    HW227419  11.012   2.097  10.571
75194SOL     OW27420  10.254   8.622   8.320
75194SOL    HW127421  10.265   8.643   8.227
75194SOL    HW227422  10.314   8.549   8.336
75195SOL     OW27423   7.170  14.212   9.573
75195SOL    HW127424   7.234  14.273   9.535
75195SOL    HW227425   7.191  14.209   9.666
75196SOL     OW27426  10.207   2.049   0.968
75196SOL    HW127427  10.252   2.133   0.974
75196SOL    HW227428  10.130   2.067   0.914
75197SOL     OW27429   9.070   9.363   0.423
75197SOL    HW127430   9.053   9.453   0.454
75197SOL    HW227431   9.079   9.312   0.503
75198SOL     OW27432   6.998  14.859   4.313
75198SOL    HW127433   7.066   0.033   4.272
75198SOL    HW227434   7.046  14.784   4.349
75199SOL     OW27435  12.904   0.747  10.261
75199SOL    HW127436  12.813   0.774  10.274
75199SOL    HW227437  12.947   0.824  10.225
75200SOL     OW27438   8.286   8.255   8.368
75200SOL    HW127439   8.249   8.220   8.449
75200SOL    HW227440   8.381   8.253   8.383
75201SOL     OW27441  11.687   8.093   6.791
75201SOL    HW127442  11.647   8.177   6.815
75201SOL    HW227443  11.621   8.028   6.814
75202SOL     OW27444   5.895   5.504   4.822
75202SOL    HW127445   5.898   5.411   4.845
75202SOL    HW227446   5.900   5.506   4.727
75203SOL     OW27447   3.099   2.737   5.379
75203SOL    HW127448   3.157   2.767   5.449
75203SOL    HW227449   3.116   2.643   5.372
75204SOL     OW27450   4.154   1.760  14.584
75204SOL    HW127451   4.215   1.833  14.590
75204SOL    HW227452   4.074   1.798  14.548
75205SOL     OW27453  12.546  11.687   0.259
75205SOL    HW127454  12.608  11.629   0.213
75205SOL    HW227455  12.554  11.771   0.214
75206SOL     OW27456   1.425  12.684   2.892
75206SOL    HW127457   1.397  12.603   2.848
75206SOL    HW227458   1.386  12.754   2.839
75207SOL     OW27459   0.994   1.005  10.078
75207SOL    HW127460   1.054   1.048  10.017
75207SOL    HW227461   1.048   0.938  10.121
75208SOL     OW27462   9.845   4.189   6.416
75208SOL    HW127463   9.781   4.170   6.348
75208SOL    HW227464   9.922   4.220   6.368
75209SOL     OW27465   1.156   0.898  12.832
75209SOL    HW127466   1.237   0.880  12.786
75209SOL    HW227467   1.089   0.903  12.764
75210SOL     OW27468   8.861   4.082   7.753
75210SOL    HW127469   8.866   4.122   7.666
75210SOL    HW227470   8.771   4.052   7.760
75211SOL     OW27471  13.443   3.078   9.351
75211SOL    HW127472  13.361   3.093   9.304
75211SOL    HW227473  13.427   3.109   9.440
75212SOL     OW27474   5.891  10.133  10.356
75212SOL    HW127475   5.897  10.079  10.277
75212SOL    HW227476   5.947  10.088  10.420
75213SOL     OW27477   7.691  10.779   3.046
75213SOL    HW127478   7.760  10.766   3.111
75213SOL    HW227479   7.737  10.785   2.963
75214SOL     OW27480   9.288   7.107   2.344
75214SOL    HW127481   9.316   7.123   2.253
75214SOL    HW227482   9.329   7.023   2.367
75215SOL     OW27483   0.027  13.840   6.325
75215SOL    HW127484   0.101  13.824   6.267
75215SOL    HW227485  14.831  13.801   6.280
75216SOL     OW27486  11.368   0.850   9.933
75216SOL    HW127487  11.429   0.869   9.862
75216SOL    HW227488  11.325   0.934   9.950
75217SOL     OW27489  11.535   6.890   7.551
75217SOL    HW127490  11.474   6.826   7.588
75217SOL    HW227491  11.503   6.906   7.462
75218SOL     OW27492  11.831   3.135  12.903
75218SOL    HW127493  11.851   3.221  12.939
75218SOL    HW227494  11.848   3.074  12.975
75219SOL     OW27495  13.187  11.861   4.184
75219SOL    HW127496  13.152  11.904   4.261
75219SOL    HW227497  13.252  11.922   4.149
75220SOL     OW27498   5.911   9.637   6.928
75220SOL    HW127499   5.886   9.594   6.846
75220SOL    HW227500   5.939   9.566   6.986
75221SOL     OW27501  14.134   8.064  10.105
75221SOL    HW127502  14.092   7.978  10.106
75221SOL    HW227503  14.204   8.056  10.040
75222SOL     OW27504  12.447   9.499   2.929
75222SOL    HW127505  12.455   9.406   2.950
75222SOL    HW227506  12.411   9.501   2.840
75223SOL     OW27507   0.928   4.353   5.954
75223SOL    HW127508   0.891   4.383   6.037
75223SOL    HW227509   0.922   4.429   5.897
75224SOL     OW27510   6.078   0.667   6.947
75224SOL    HW127511   6.088   0.600   6.880
75224SOL    HW227512   6.112   0.747   6.906
75225SOL     OW27513  14.777   5.682  10.220
75225SOL    HW127514  14.805   5.601  10.263
75225SOL    HW227515  14.791   5.750  10.287
75226SOL     OW27516  11.521   8.667   1.966
75226SOL    HW127517  11.521   8.726   1.890
75226SOL    HW227518  11.614   8.661   1.991
75227SOL     OW27519   8.712   2.546   1.344
75227SOL    HW127520   8.721   2.504   1.258
75227SOL    HW227521   8.631   2.508   1.380
75228SOL     OW27522   3.630   4.339   6.466
75228SOL    HW127523   3.570   4.352   6.539
75228SOL    HW227524   3.634   4.424   6.423
75229SOL     OW27525  10.916   6.778   9.976
75229SOL    HW127526  10.850   6.792   9.908
75229SOL    HW227527  10.954   6.693   9.954
75230SOL     OW27528   7.842  11.942   8.220
75230SOL    HW127529   7.877  12.023   8.185
75230SOL    HW227530   7.903  11.917   8.289
75231SOL     OW27531  14.117  10.752   0.617
75231SOL    HW127532  14.081  10.680   0.565
75231SOL    HW227533  14.055  10.824   0.605
75232SOL     OW27534   9.751   2.381   5.427
75232SOL    HW127535   9.658   2.403   5.423
75232SOL    HW227536   9.768   2.333   5.346
75233SOL     OW27537  10.679   5.416  12.833
75233SOL    HW127538  10.658   5.323  12.824
75233SOL    HW227539  10.684   5.448  12.743
75234SOL     OW27540  11.910  13.526   2.886
75234SOL    HW127541  11.843  13.526   2.955
75234SOL    HW227542  11.863  13.498   2.808
75235SOL     OW27543   3.135   9.687   1.381
75235SOL    HW127544   3.141   9.622   1.452
75235SOL    HW227545   3.046   9.720   1.387
75236SOL     OW27546  14.113   4.443   4.827
75236SOL    HW127547  14.151   4.423   4.912
75236SOL    HW227548  14.018   4.436   4.840
75237SOL     OW27549  13.695   1.581  12.954
75237SOL    HW127550  13.636   1.590  13.028
75237SOL    HW227551  13.730   1.669  12.939
75238SOL     OW27552   0.460   4.272   0.332
75238SOL    HW127553   0.447   4.230   0.247
75238SOL    HW227554   0.447   4.201   0.396
75239SOL     OW27555  12.952  11.323  10.919
75239SOL    HW127556  13.002  11.401  10.942
75239SOL    HW227557  12.894  11.352  10.849
75240SOL     OW27558   6.674   7.537   6.519
75240SOL    HW127559   6.758   7.543   6.563
75240SOL    HW227560   6.697   7.525   6.426
75241SOL     OW27561  14.860   2.717   9.700
75241SOL    HW127562  14.816   2.798   9.674
75241SOL    HW227563   0.012   2.680   9.617
75242SOL     OW27564  14.876   7.289   4.378
75242SOL    HW127565  14.800   7.244   4.340
75242SOL    HW227566  14.859   7.289   4.472
75243SOL     OW27567   6.345   9.221  10.764
75243SOL    HW127568   6.441   9.217  10.766
75243SOL    HW227569   6.318   9.202  10.854
75244SOL     OW27570   8.637  14.294   2.429
75244SOL    HW127571   8.696  14.231   2.471
75244SOL    HW227572   8.695  14.357   2.387
75245SOL     OW27573   4.537   9.680   2.137
75245SOL    HW127574   4.445   9.662   2.116
75245SOL    HW227575   4.536   9.696   2.232
75246SOL     OW27576   4.347   5.726  12.852
75246SOL    HW127577   4.311   5.767  12.773
75246SOL    HW227578   4.324   5.634  12.844
75247SOL     OW27579  11.674   3.451   0.918
75247SOL    HW127580  11.718   3.535   0.912
75247SOL    HW227581  11.736   3.388   0.880
75248SOL     OW27582   1.751   8.631   9.625
75248SOL    HW127583   1.766   8.537   9.634
75248SOL    HW227584   1.663   8.638   9.587
75249SOL     OW27585   6.487  13.365   9.416
75249SOL    HW127586   6.475  13.460   9.410
75249SOL    HW227587   6.548  13.353   9.489
75250SOL     OW27588   4.911  13.388   6.019
75250SOL    HW127589   4.907  13.478   5.985
75250SOL    HW227590   4.968  13.342   5.957
75251SOL     OW27591   1.188   4.494  11.348
75251SOL    HW127592   1.181   4.502  11.253
75251SOL    HW227593   1.113   4.439  11.373
75252SOL     OW27594   3.633  13.770  11.833
75252SOL    HW127595   3.607  13.681  11.809
75252SOL    HW227596   3.623  13.772  11.929
75253SOL     OW27597   6.521   8.185   6.794
75253SOL    HW127598   6.572   8.209   6.717
75253SOL    HW227599   6.586   8.160   6.860
75254SOL     OW27600   8.822  10.490  14.524
75254SOL    HW127601   8.789  10.498  14.435
75254SOL    HW227602   8.806  10.399  14.548
75255SOL     OW27603   5.909   0.482   0.781
75255SOL    HW127604   5.993   0.439   0.794
75255SOL    HW227605   5.898   0.536   0.860
75256SOL     OW27606   5.348   1.783   4.120
75256SOL    HW127607   5.396   1.705   4.148
75256SOL    HW227608   5.282   1.750   4.059
75257SOL     OW27609   5.934   3.061  12.827
75257SOL    HW127610   5.916   3.059  12.921
75257SOL    HW227611   6.002   3.127  12.817
75258SOL     OW27612  13.219   5.135   9.343
75258SOL    HW127613  13.271   5.126   9.423
75258SOL    HW227614  13.281   5.159   9.275
75259SOL     OW27615   1.474   0.795   9.867
75259SOL    HW127616   1.534   0.735   9.823
75259SOL    HW227617   1.417   0.828   9.798
75260SOL     OW27618  12.842  12.220   7.686
75260SOL    HW127619  12.905  12.168   7.636
75260SOL    HW227620  12.795  12.272   7.620
75261SOL     OW27621   2.108  10.169   6.749
75261SOL    HW127622   2.113  10.193   6.657
75261SOL    HW227623   2.076  10.078   6.748
75262SOL     OW27624   4.360  13.801  13.134
75262SOL    HW127625   4.437  13.778  13.082
75262SOL    HW227626   4.341  13.891  13.109
75263SOL     OW27627   0.432   8.026   1.432
75263SOL    HW127628   0.429   8.083   1.355
75263SOL    HW227629   0.351   7.975   1.427
75264SOL     OW27630  14.037  10.954   5.559
75264SOL    HW127631  14.111  10.962   5.620
75264SOL    HW227632  14.063  10.883   5.500
75265SOL     OW27633   5.926   3.891   0.179
75265SOL    HW127634   5.896   3.817   0.125
75265SOL    HW227635   5.930   3.965   0.118
75266SOL     OW27636   5.520   7.446   2.732
75266SOL    HW127637   5.464   7.412   2.662
75266SOL    HW227638   5.467   7.513   2.776
75267SOL     OW27639  12.045  13.216   5.984
75267SOL    HW127640  12.017  13.126   5.965
75267SOL    HW227641  12.010  13.268   5.911
75268SOL     OW27642   5.820   1.377   9.871
75268SOL    HW127643   5.847   1.453   9.923
75268SOL    HW227644   5.783   1.414   9.791
75269SOL     OW27645   6.694   8.367  11.845
75269SOL    HW127646   6.602   8.341  11.845
75269SOL    HW227647   6.734   8.316  11.775
75270SOL     OW27648   1.606   4.178   6.110
75270SOL    HW127649   1.661   4.157   6.186
75270SOL    HW227650   1.535   4.230   6.147
75271SOL     OW27651   9.657   3.456  10.728
75271SOL    HW127652   9.680   3.493  10.643
75271SOL    HW227653   9.717   3.499  10.790
75272SOL     OW27654   2.646   9.591  14.329
75272SOL    HW127655   2.683   9.677  14.350
75272SOL    HW227656   2.564   9.610  14.285
75273SOL     OW27657   6.176   9.673   9.164
75273SOL    HW127658   6.161   9.597   9.107
75273SOL    HW227659   6.088   9.705   9.185
75274SOL     OW27660   2.852  13.374  12.386
75274SOL    HW127661   2.836  13.344  12.296
75274SOL    HW227662   2.880  13.296  12.433
75275SOL     OW27663   5.113   1.558   2.899
75275SOL    HW127664   5.207   1.546   2.887
75275SOL    HW227665   5.073   1.512   2.826
75276SOL     OW27666   0.037   7.218  12.269
75276SOL    HW127667   0.072   7.139  12.311
75276SOL    HW227668   0.114   7.272  12.251
75277SOL     OW27669   5.414   5.957  14.536
75277SOL    HW127670   5.358   5.882  14.556
75277SOL    HW227671   5.499   5.934  14.575
75278SOL     OW27672   6.449  14.490   9.338
75278SOL    HW127673   6.524  14.509   9.281
75278SOL    HW227674   6.449  14.562   9.401
75279SOL     OW27675   2.946  10.637   4.255
75279SOL    HW127676   3.027  10.660   4.208
75279SOL    HW227677   2.953  10.542   4.269
75280SOL     OW27678   9.113   8.684   7.951
75280SOL    HW127679   9.123   8.681   7.856
75280SOL    HW227680   9.203   8.683   7.985
75281SOL     OW27681   9.811   6.971   2.242
75281SOL    HW127682   9.801   6.877   2.226
75281SOL    HW227683   9.838   6.977   2.333
75282SOL     OW27684  13.906   3.452   3.860
75282SOL    HW127685  13.903   3.390   3.787
75282SOL    HW227686  13.830   3.428   3.914
75283SOL     OW27687   3.147   8.385  13.545
75283SOL    HW127688   3.232   8.395  13.502
75283SOL    HW227689   3.134   8.467  13.592
75284SOL     OW27690  11.563   6.402   1.194
75284SOL    HW127691  11.618   6.481   1.188
75284SOL    HW227692  11.568   6.363   1.107
75285SOL     OW27693  13.047   8.010  10.147
75285SOL    HW127694  12.971   7.964  10.182
75285SOL    HW227695  13.036   8.101  10.176
75286SOL     OW27696   4.628   2.063   4.926
75286SOL    HW127697   4.547   2.112   4.940
75286SOL    HW227698   4.599   1.982   4.885
75287SOL     OW27699  13.877  14.517  13.930
75287SOL    HW127700  13.905  14.440  13.880
75287SOL    HW227701  13.852  14.581  13.863
75288SOL     OW27702   2.187   6.547   4.867
75288SOL    HW127703   2.110   6.596   4.837
75288SOL    HW227704   2.163   6.456   4.854
75289SOL     OW27705   5.750   2.032   8.807
75289SOL    HW127706   5.735   1.941   8.832
75289SOL    HW227707   5.775   2.076   8.889
75290SOL     OW27708   8.084  11.843   2.692
75290SOL    HW127709   8.123  11.901   2.758
75290SOL    HW227710   8.148  11.838   2.622
75291SOL     OW27711  14.506  10.888   7.239
75291SOL    HW127712  14.515  10.793   7.225
75291SOL    HW227713  14.437  10.896   7.305
75292SOL     OW27714  11.136   7.569   8.901
75292SOL    HW127715  11.130   7.479   8.934
75292SOL    HW227716  11.108   7.564   8.810
75293SOL     OW27717   8.024  11.892   9.449
75293SOL    HW127718   8.116  11.874   9.427
75293SOL    HW227719   7.998  11.962   9.389
75294SOL     OW27720   6.137   6.063  13.760
75294SOL    HW127721   6.173   6.136  13.809
75294SOL    HW227722   6.197   5.990  13.778
75295SOL     OW27723   8.006  11.022  13.458
75295SOL    HW127724   7.962  11.076  13.392
75295SOL    HW227725   8.099  11.029  13.436
75296SOL     OW27726   7.452   3.151  11.047
75296SOL    HW127727   7.478   3.232  11.003
75296SOL    HW227728   7.471   3.167  11.139
75297SOL     OW27729  10.925   4.866  11.193
75297SOL    HW127730  10.960   4.781  11.165
75297SOL    HW227731  10.865   4.892  11.123
75298SOL     OW27732   5.036  12.398  11.236
75298SOL    HW127733   5.100  12.460  11.271
75298SOL    HW227734   5.068  12.377  11.149
75299SOL     OW27735  12.406   5.439   2.291
75299SOL    HW127736  12.381   5.353   2.325
75299SOL    HW227737  12.500   5.433   2.276
75300SOL     OW27738   2.596   5.260  10.230
75300SOL    HW127739   2.528   5.204  10.268
75300SOL    HW227740   2.586   5.247  10.135
75301SOL     OW27741  10.850   3.743   8.436
75301SOL    HW127742  10.864   3.836   8.454
75301SOL    HW227743  10.893   3.697   8.508
75302SOL     OW27744   1.146   7.933   1.351
75302SOL    HW127745   1.109   7.897   1.432
75302SOL    HW227746   1.097   7.890   1.281
75303SOL     OW27747   0.711   3.048   8.130
75303SOL    HW127748   0.694   3.141   8.119
75303SOL    HW227749   0.783   3.043   8.192
75304SOL     OW27750  12.415   5.712  11.175
75304SOL    HW127751  12.334   5.671  11.144
75304SOL    HW227752  12.401   5.805  11.161
75305SOL     OW27753   2.831   3.834   4.112
75305SOL    HW127754   2.824   3.782   4.192
75305SOL    HW227755   2.922   3.864   4.111
75306SOL     OW27756   5.198   5.030  14.179
75306SOL    HW127757   5.193   5.054  14.272
75306SOL    HW227758   5.244   4.946  14.179
75307SOL     OW27759  14.672   5.066   7.050
75307SOL    HW127760  14.583   5.095   7.069
75307SOL    HW227761  14.693   5.106   6.966
75308SOL     OW27762  12.662   1.977   9.384
75308SOL    HW127763  12.692   2.057   9.340
75308SOL    HW227764  12.584   1.950   9.335
75309SOL     OW27765   0.381   0.718   5.195
75309SOL    HW127766   0.447   0.712   5.125
75309SOL    HW227767   0.390   0.807   5.230
75310SOL     OW27768  14.548   2.852   1.808
75310SOL    HW127769  14.512   2.865   1.895
75310SOL    HW227770  14.484   2.795   1.764
75311SOL     OW27771   7.193   1.781  12.402
75311SOL    HW127772   7.195   1.855  12.341
75311SOL    HW227773   7.103   1.779  12.434
75312SOL     OW27774   1.456   7.880   3.215
75312SOL    HW127775   1.488   7.908   3.129
75312SOL    HW227776   1.474   7.786   3.217
75313SOL     OW27777  12.032   0.330   2.702
75313SOL    HW127778  12.060   0.273   2.630
75313SOL    HW227779  11.961   0.282   2.744
75314SOL     OW27780   6.718  12.756  13.304
75314SOL    HW127781   6.668  12.699  13.362
75314SOL    HW227782   6.701  12.845  13.335
75315SOL     OW27783   6.138   8.569  11.928
75315SOL    HW127784   6.173   8.657  11.913
75315SOL    HW227785   6.156   8.551  12.020
75316SOL     OW27786  11.982   7.979   1.739
75316SOL    HW127787  12.014   7.903   1.691
75316SOL    HW227788  12.034   8.052   1.705
75317SOL     OW27789   9.332   8.652   3.034
75317SOL    HW127790   9.378   8.568   3.029
75317SOL    HW227791   9.253   8.633   3.085
75318SOL     OW27792   9.217   2.168   1.838
75318SOL    HW127793   9.301   2.122   1.828
75318SOL    HW227794   9.238   2.259   1.814
75319SOL     OW27795   9.583   3.467   3.926
75319SOL    HW127796   9.542   3.390   3.888
75319SOL    HW227797   9.516   3.535   3.921
75320SOL     OW27798  10.283   5.035   9.502
75320SOL    HW127799  10.370   5.051   9.466
75320SOL    HW227800  10.299   5.011   9.594
75321SOL     OW27801  11.965   0.885   7.779
75321SOL    HW127802  12.033   0.817   7.782
75321SOL    HW227803  11.956   0.906   7.686
75322SOL     OW27804  14.411  11.472   0.836
75322SOL    HW127805  14.454  11.501   0.917
75322SOL    HW227806  14.416  11.376   0.840
75323SOL     OW27807  14.451   2.939   5.460
75323SOL    HW127808  14.486   2.874   5.400
75323SOL    HW227809  14.360   2.914   5.473
75324SOL     OW27810   5.439   4.809   7.816
75324SOL    HW127811   5.379   4.768   7.878
75324SOL    HW227812   5.383   4.840   7.745
75325SOL     OW27813   3.679   7.923   1.101
75325SOL    HW127814   3.645   7.889   1.184
75325SOL    HW227815   3.657   8.016   1.102
75326SOL     OW27816  10.384   7.166  13.666
75326SOL    HW127817  10.368   7.184  13.759
75326SOL    HW227818  10.307   7.117  13.637
75327SOL     OW27819   6.072  13.584  10.277
75327SOL    HW127820   6.154  13.567  10.324
75327SOL    HW227821   6.054  13.677  10.293
75328SOL     OW27822   2.898   8.645   5.959
75328SOL    HW127823   2.888   8.732   5.920
75328SOL    HW227824   2.948   8.660   6.039
75329SOL     OW27825   0.409   1.084  12.580
75329SOL    HW127826   0.395   0.989  12.574
75329SOL    HW227827   0.356   1.111  12.655
75330SOL     OW27828   6.558  11.044   5.344
75330SOL    HW127829   6.487  11.028   5.406
75330SOL    HW227830   6.595  11.129   5.371
75331SOL     OW27831   4.855   9.819   6.832
75331SOL    HW127832   4.848   9.886   6.900
75331SOL    HW227833   4.942   9.782   6.844
75332SOL     OW27834   6.698   6.949   9.325
75332SOL    HW127835   6.677   6.912   9.411
75332SOL    HW227836   6.779   6.905   9.299
75333SOL     OW27837   1.959  10.472   8.738
75333SOL    HW127838   1.887  10.523   8.775
75333SOL    HW227839   1.940  10.470   8.644
75334SOL     OW27840   7.268   7.798  10.251
75334SOL    HW127841   7.327   7.748  10.195
75334SOL    HW227842   7.217   7.732  10.298
75335SOL     OW27843   6.259  11.772   9.023
75335SOL    HW127844   6.299  11.747   9.106
75335SOL    HW227845   6.330  11.812   8.973
75336SOL     OW27846  10.391   4.727   4.703
75336SOL    HW127847  10.404   4.764   4.616
75336SOL    HW227848  10.479   4.706   4.734
75337SOL     OW27849   5.275   3.907  10.312
75337SOL    HW127850   5.300   3.815  10.315
75337SOL    HW227851   5.318   3.946  10.388
75338SOL     OW27852   5.165   9.164  10.983
75338SOL    HW127853   5.219   9.239  11.006
75338SOL    HW227854   5.145   9.176  10.890
75339SOL     OW27855  10.884   7.972  10.650
75339SOL    HW127856  10.921   7.891  10.615
75339SOL    HW227857  10.938   7.992  10.726
75340SOL     OW27858  14.791   0.790   4.331
75340SOL    HW127859  14.749   0.743   4.259
75340SOL    HW227860  14.868   0.831   4.291
75341SOL     OW27861   8.114   4.241   1.464
75341SOL    HW127862   8.195   4.292   1.468
75341SOL    HW227863   8.116   4.199   1.378
75342SOL     OW27864   4.182   4.542   5.363
75342SOL    HW127865   4.099   4.552   5.411
75342SOL    HW227866   4.225   4.627   5.373
75343SOL     OW27867   4.614   9.251   1.439
75343SOL    HW127868   4.624   9.308   1.362
75343SOL    HW227869   4.559   9.301   1.499
75344SOL     OW27870   9.175   0.148  12.622
75344SOL    HW127871   9.158   0.064  12.580
75344SOL    HW227872   9.119   0.210  12.575
75345SOL     OW27873   4.898   0.983   1.578
75345SOL    HW127874   4.867   0.987   1.487
75345SOL    HW227875   4.966   1.050   1.583
75346SOL     OW27876   5.788  13.539  12.442
75346SOL    HW127877   5.836  13.598  12.501
75346SOL    HW227878   5.839  13.457  12.444
75347SOL     OW27879   1.436   2.968   3.772
75347SOL    HW127880   1.391   2.911   3.710
75347SOL    HW227881   1.381   2.967   3.850
75348SOL     OW27882   3.494   6.861  13.912
75348SOL    HW127883   3.408   6.890  13.881
75348SOL    HW227884   3.517   6.923  13.981
75349SOL     OW27885   0.085   6.444   7.076
75349SOL    HW127886   0.111   6.387   7.148
75349SOL    HW227887   0.142   6.417   7.003
75350SOL     OW27888  13.007  14.373   2.943
75350SOL    HW127889  13.002  14.358   2.849
75350SOL    HW227890  12.916  14.389   2.970
75351SOL     OW27891  14.456   8.109   0.244
75351SOL    HW127892  14.407   8.135   0.322
75351SOL    HW227893  14.466   8.190   0.194
75352SOL     OW27894   0.679  12.164   4.618
75352SOL    HW127895   0.671  12.087   4.561
75352SOL    HW227896   0.691  12.128   4.705
75353SOL     OW27897  10.041   9.565   3.938
75353SOL    HW127898  10.105   9.499   3.963
75353SOL    HW227899  10.083   9.649   3.958
75354SOL     OW27900   4.732  11.211   3.193
75354SOL    HW127901   4.765  11.126   3.164
75354SOL    HW227902   4.661  11.189   3.254
75355SOL     OW27903   3.069   4.435   7.578
75355SOL    HW127904   3.041   4.471   7.661
75355SOL    HW227905   3.005   4.466   7.514
75356SOL     OW27906  11.126  10.335  10.093
75356SOL    HW127907  11.116  10.418  10.046
75356SOL    HW227908  11.104  10.356  10.184
75357SOL     OW27909  10.415  13.060   3.814
75357SOL    HW127910  10.445  13.027   3.899
75357SOL    HW227911  10.367  12.987   3.775
75358SOL     OW27912  13.027  12.560   4.081
75358SOL    HW127913  13.025  12.507   4.000
75358SOL    HW227914  13.063  12.644   4.054
75359SOL     OW27915   0.114  10.134   6.590
75359SOL    HW127916   0.072  10.209   6.548
75359SOL    HW227917   0.043  10.072   6.607
75360SOL     OW27918   0.072  13.223  14.237
75360SOL    HW127919   0.130  13.228  14.314
75360SOL    HW227920   0.015  13.299  14.245
75361SOL     OW27921   0.715  13.615   1.587
75361SOL    HW127922   0.761  13.658   1.516
75361SOL    HW227923   0.707  13.524   1.559
75362SOL     OW27924   3.661  11.215   8.392
75362SOL    HW127925   3.719  11.259   8.329
75362SOL    HW227926   3.708  11.219   8.475
75363SOL     OW27927   0.387   7.053   9.894
75363SOL    HW127928   0.342   7.071   9.977
75363SOL    HW227929   0.334   7.099   9.828
75364SOL     OW27930   7.742   3.306  12.582
75364SOL    HW127931   7.788   3.265  12.509
75364SOL    HW227932   7.651   3.314  12.552
75365SOL     OW27933  11.146  10.083   0.778
75365SOL    HW127934  11.093  10.152   0.817
75365SOL    HW227935  11.111  10.074   0.689
75366SOL     OW27936   5.238   7.580  10.743
75366SOL    HW127937   5.308   7.637  10.711
75366SOL    HW227938   5.222   7.519  10.672
75367SOL     OW27939   0.457   1.938   3.380
75367SOL    HW127940   0.532   1.958   3.436
75367SOL    HW227941   0.387   1.915   3.441
75368SOL     OW27942   9.571   1.183   8.734
75368SOL    HW127943   9.545   1.273   8.753
75368SOL    HW227944   9.660   1.176   8.770
75369SOL     OW27945   1.307  11.013  10.344
75369SOL    HW127946   1.215  10.987  10.342
75369SOL    HW227947   1.322  11.055  10.259
75370SOL     OW27948   4.645  12.751  10.067
75370SOL    HW127949   4.717  12.811  10.087
75370SOL    HW227950   4.688  12.665  10.058
75371SOL     OW27951   1.192   2.308   3.123
75371SOL    HW127952   1.129   2.371   3.088
75371SOL    HW227953   1.173   2.303   3.216
75372SOL     OW27954   0.747   8.498  10.292
75372SOL    HW127955   0.738   8.410  10.330
75372SOL    HW227956   0.669   8.509  10.239
75373SOL     OW27957   1.751   1.850   4.241
75373SOL    HW127958   1.844   1.867   4.227
75373SOL    HW227959   1.707   1.932   4.217
75374SOL     OW27960   5.270   6.645  11.823
75374SOL    HW127961   5.279   6.660  11.728
75374SOL    HW227962   5.295   6.728  11.863
75375SOL     OW27963   9.769   9.373  11.295
75375SOL    HW127964   9.700   9.315  11.263
75375SOL    HW227965   9.768   9.362  11.390
75376SOL     OW27966   1.051  10.506  10.557
75376SOL    HW127967   0.963  10.485  10.526
75376SOL    HW227968   1.041  10.521  10.651
75377SOL     OW27969   4.861   8.609   1.323
75377SOL    HW127970   4.888   8.581   1.410
75377SOL    HW227971   4.883   8.535   1.265
75378SOL     OW27972   3.376   5.377   1.556
75378SOL    HW127973   3.395   5.463   1.592
75378SOL    HW227974   3.359   5.322   1.633
75379SOL     OW27975   6.616   3.809  10.403
75379SOL    HW127976   6.709   3.799  10.423
75379SOL    HW227977   6.574   3.734  10.445
75380SOL     OW27978   3.698  12.884  14.378
75380SOL    HW127979   3.629  12.950  14.384
75380SOL    HW227980   3.656  12.803  14.409
75381SOL     OW27981   6.126   5.883   2.786
75381SOL    HW127982   6.063   5.883   2.858
75381SOL    HW227983   6.080   5.928   2.715
75382SOL     OW27984   8.296   6.536  12.404
75382SOL    HW127985   8.248   6.558  12.325
75382SOL    HW227986   8.349   6.460  12.380
75383SOL     OW27987   9.721   5.308  14.408
75383SOL    HW127988   9.756   5.394  14.387
75383SOL    HW227989   9.756   5.250  14.340
75384SOL     OW27990  13.509   4.067   3.595
75384SOL    HW127991  13.513   4.106   3.682
75384SOL    HW227992  13.415   4.057   3.578
75385SOL     OW27993  14.749   7.410  13.410
75385SOL    HW127994  14.708   7.458  13.482
75385SOL    HW227995  14.734   7.464  13.333
75386SOL     OW27996   5.420   5.249   7.567
75386SOL    HW127997   5.342   5.268   7.619
75386SOL    HW227998   5.387   5.238   7.478
75387SOL     OW27999   7.182   0.196  11.867
75387SOL    HW128000   7.165   0.169  11.958
75387SOL    HW228001   7.124   0.272  11.854
75388SOL     OW28002   8.584  12.872   1.310
75388SOL    HW128003   8.544  12.786   1.298
75388SOL    HW228004   8.626  12.891   1.226
75389SOL     OW28005  12.996   7.322  10.348
75389SOL    HW128006  13.040   7.394  10.393
75389SOL    HW228007  12.977   7.356  10.260
75390SOL     OW28008   3.821   4.087   1.089
75390SOL    HW128009   3.812   4.053   1.178
75390SOL    HW228010   3.813   4.010   1.032
75391SOL     OW28011   5.236   6.295   8.959
75391SOL    HW128012   5.304   6.324   8.898
75391SOL    HW228013   5.230   6.366   9.023
75392SOL     OW28014   8.849  14.607   3.300
75392SOL    HW128015   8.930  14.646   3.267
75392SOL    HW228016   8.820  14.548   3.230
75393SOL     OW28017   1.981   3.999   6.101
75393SOL    HW128018   1.888   3.996   6.081
75393SOL    HW228019   2.010   4.084   6.067
75394SOL     OW28020  13.989   2.501  13.443
75394SOL    HW128021  14.082   2.479  13.447
75394SOL    HW228022  13.982   2.558  13.367
75395SOL     OW28023   4.710   4.383  11.707
75395SOL    HW128024   4.740   4.391  11.797
75395SOL    HW228025   4.790   4.369  11.656
75396SOL     OW28026   3.269   3.091   1.986
75396SOL    HW128027   3.358   3.095   2.020
75396SOL    HW228028   3.276   3.045   1.903
75397SOL     OW28029   5.213   7.880   1.381
75397SOL    HW128030   5.248   7.918   1.462
75397SOL    HW228031   5.275   7.907   1.313
75398SOL     OW28032  14.064   6.416   8.234
75398SOL    HW128033  14.095   6.428   8.324
75398SOL    HW228034  13.972   6.390   8.243
75399SOL     OW28035  12.236  12.951   5.751
75399SOL    HW128036  12.141  12.946   5.759
75399SOL    HW228037  12.265  12.860   5.760
75400SOL     OW28038   5.504   4.032   1.801
75400SOL    HW128039   5.549   3.948   1.812
75400SOL    HW228040   5.571   4.090   1.764
75401SOL     OW28041  14.296  14.777   3.898
75401SOL    HW128042  14.254  14.811   3.977
75401SOL    HW228043  14.318  14.686   3.919
75402SOL     OW28044  12.191   9.895   9.259
75402SOL    HW128045  12.105   9.872   9.294
75402SOL    HW228046  12.223   9.815   9.217
75403SOL     OW28047   3.999   9.018   3.901
75403SOL    HW128048   3.906   8.997   3.890
75403SOL    HW228049   4.029   9.043   3.814
75404SOL     OW28050   0.666   5.447  14.606
75404SOL    HW128051   0.734   5.495  14.559
75404SOL    HW228052   0.690   5.456  14.698
75405SOL     OW28053  10.798   7.528   3.721
75405SOL    HW128054  10.824   7.551   3.632
75405SOL    HW228055  10.706   7.552   3.727
75406SOL     OW28056  13.533   4.877   3.404
75406SOL    HW128057  13.460   4.939   3.404
75406SOL    HW228058  13.529   4.837   3.491
75407SOL     OW28059  10.393   2.805   1.354
75407SOL    HW128060  10.369   2.878   1.411
75407SOL    HW228061  10.488   2.811   1.347
75408SOL     OW28062   8.362   9.549  14.794
75408SOL    HW128063   8.454   9.524  14.788
75408SOL    HW228064   8.342   9.550   0.008
75409SOL     OW28065  13.260   0.039   9.169
75409SOL    HW128066  13.234   0.109   9.229
75409SOL    HW228067  13.218  14.840   9.205
75410SOL     OW28068  12.896   7.642  14.045
75410SOL    HW128069  12.864   7.699  13.976
75410SOL    HW228070  12.818   7.617  14.095
75411SOL     OW28071   6.617   2.285  10.550
75411SOL    HW128072   6.576   2.348  10.492
75411SOL    HW228073   6.571   2.295  10.633
75412SOL     OW28074   1.293   7.199   0.663
75412SOL    HW128075   1.218   7.196   0.604
75412SOL    HW228076   1.333   7.112   0.656
75413SOL     OW28077   9.277  10.828   8.492
75413SOL    HW128078   9.244  10.899   8.436
75413SOL    HW228079   9.365  10.811   8.459
75414SOL     OW28080  13.694   4.373  13.347
75414SOL    HW128081  13.694   4.278  13.333
75414SOL    HW228082  13.785   4.399  13.335
75415SOL     OW28083   5.073   8.003   9.153
75415SOL    HW128084   5.067   7.946   9.076
75415SOL    HW228085   5.154   8.052   9.141
75416SOL     OW28086  10.805  14.558   2.916
75416SOL    HW128087  10.827  14.641   2.958
75416SOL    HW228088  10.713  14.543   2.938
75417SOL     OW28089  14.090   6.609  11.404
75417SOL    HW128090  14.118   6.557  11.480
75417SOL    HW228091  14.011   6.565  11.373
75418SOL     OW28092  11.104   0.020   6.836
75418SOL    HW128093  11.073   0.028   6.746
75418SOL    HW228094  11.026   0.034   6.890
75419SOL     OW28095   7.043   0.383   7.983
75419SOL    HW128096   7.132   0.418   7.979
75419SOL    HW228097   7.006   0.420   8.063
75420SOL     OW28098  10.654   7.821  13.304
75420SOL    HW128099  10.592   7.749  13.306
75420SOL    HW228100  10.619   7.882  13.239
75421SOL     OW28101   4.089   8.351  14.830
75421SOL    HW128102   4.171   8.303  14.817
75421SOL    HW228103   4.095   8.425  14.768
75422SOL     OW28104   4.807   0.281   4.615
75422SOL    HW128105   4.825   0.208   4.674
75422SOL    HW228106   4.831   0.359   4.665
75423SOL     OW28107   4.446   2.745  12.659
75423SOL    HW128108   4.414   2.709  12.576
75423SOL    HW228109   4.469   2.669  12.711
75424SOL     OW28110   8.385   9.478   2.459
75424SOL    HW128111   8.466   9.506   2.503
75424SOL    HW228112   8.410   9.402   2.407
75425SOL     OW28113   7.391   7.818   6.889
75425SOL    HW128114   7.335   7.864   6.951
75425SOL    HW228115   7.363   7.849   6.803
75426SOL     OW28116   8.778   1.806  10.467
75426SOL    HW128117   8.740   1.824  10.553
75426SOL    HW228118   8.703   1.789  10.410
75427SOL     OW28119   5.648   2.333   4.892
75427SOL    HW128120   5.560   2.355   4.924
75427SOL    HW228121   5.677   2.412   4.846
75428SOL     OW28122   8.579   9.646  11.766
75428SOL    HW128123   8.672   9.624  11.770
75428SOL    HW228124   8.539   9.572  11.720
75429SOL     OW28125   6.296  11.442   5.041
75429SOL    HW128126   6.380  11.398   5.027
75429SOL    HW228127   6.320  11.531   5.067
75430SOL     OW28128   8.935   3.935  11.430
75430SOL    HW128129   8.951   4.028  11.449
75430SOL    HW228130   8.941   3.891  11.515
75431SOL     OW28131   6.298   6.899  11.358
75431SOL    HW128132   6.354   6.939  11.291
75431SOL    HW228133   6.356   6.887  11.433
75432SOL     OW28134  10.237  10.848   0.306
75432SOL    HW128135  10.232  10.885   0.394
75432SOL    HW228136  10.254  10.924   0.249
75433SOL     OW28137   9.717   2.527   7.118
75433SOL    HW128138   9.677   2.609   7.148
75433SOL    HW228139   9.751   2.548   7.031
75434SOL     OW28140   1.722  14.046   3.059
75434SOL    HW128141   1.699  13.954   3.070
75434SOL    HW228142   1.763  14.050   2.973
75435SOL     OW28143   2.106   3.991   3.854
75435SOL    HW128144   2.157   4.041   3.791
75435SOL    HW228145   2.034   3.954   3.803
75436SOL     OW28146  12.018  11.253   4.870
75436SOL    HW128147  12.096  11.200   4.882
75436SOL    HW228148  12.050  11.343   4.868
75437SOL     OW28149   4.313  13.107  13.644
75437SOL    HW128150   4.406  13.086  13.634
75437SOL    HW228151   4.274  13.083  13.560
75438SOL     OW28152   8.733   6.626   8.361
75438SOL    HW128153   8.804   6.571   8.328
75438SOL    HW228154   8.674   6.565   8.406
75439SOL     OW28155  12.610  14.282   8.005
75439SOL    HW128156  12.564  14.241   7.932
75439SOL    HW228157  12.612  14.376   7.984
75440SOL     OW28158  11.846   4.574  10.199
75440SOL    HW128159  11.815   4.495  10.242
75440SOL    HW228160  11.922   4.545  10.148
75441SOL     OW28161  10.444   9.091   1.544
75441SOL    HW128162  10.377   9.056   1.484
75441SOL    HW228163  10.502   9.143   1.488
75442SOL     OW28164   1.126   0.885   6.665
75442SOL    HW128165   1.085   0.817   6.720
75442SOL    HW228166   1.182   0.836   6.605
75443SOL     OW28167   7.576  12.386   6.688
75443SOL    HW128168   7.595  12.479   6.692
75443SOL    HW228169   7.658  12.344   6.716
75444SOL     OW28170   7.414   9.695  14.852
75444SOL    HW128171   7.368   9.772   0.005
75444SOL    HW228172   7.411   9.703  14.756
75445SOL     OW28173   7.173   1.334   1.155
75445SOL    HW128174   7.119   1.395   1.105
75445SOL    HW228175   7.129   1.328   1.240
75446SOL     OW28176   1.619  10.934   3.045
75446SOL    HW128177   1.698  10.886   3.068
75446SOL    HW228178   1.556  10.866   3.019
75447SOL     OW28179  13.167   6.058   0.160
75447SOL    HW128180  13.254   6.065   0.199
75447SOL    HW228181  13.151   6.144   0.122
75448SOL     OW28182   9.201   7.740  10.407
75448SOL    HW128183   9.215   7.658  10.455
75448SOL    HW228184   9.278   7.793  10.427
75449SOL     OW28185  12.034   9.933   8.141
75449SOL    HW128186  11.997   9.937   8.053
75449SOL    HW228187  12.006   9.848   8.175
75450SOL     OW28188   6.724   6.084  12.120
75450SOL    HW128189   6.737   6.144  12.047
75450SOL    HW228190   6.646   6.034  12.097
75451SOL     OW28191   8.243   4.337   2.536
75451SOL    HW128192   8.242   4.430   2.514
75451SOL    HW228193   8.255   4.335   2.630
75452SOL     OW28194  12.171   9.278   8.101
75452SOL    HW128195  12.093   9.252   8.052
75452SOL    HW228196  12.210   9.348   8.048
75453SOL     OW28197  10.607   6.727  10.736
75453SOL    HW128198  10.568   6.719  10.648
75453SOL    HW228199  10.677   6.662  10.738
75454SOL     OW28200   1.269   4.257   8.802
75454SOL    HW128201   1.181   4.293   8.806
75454SOL    HW228202   1.282   4.235   8.709
75455SOL     OW28203   6.112  14.074  12.658
75455SOL    HW128204   6.152  14.142  12.712
75455SOL    HW228205   6.129  14.101  12.568
75456SOL     OW28206  12.091   7.698   9.913
75456SOL    HW128207  12.115   7.731   9.826
75456SOL    HW228208  12.011   7.649   9.899
75457SOL     OW28209   9.542  12.138   5.138
75457SOL    HW128210   9.543  12.173   5.227
75457SOL    HW228211   9.461  12.171   5.099
75458SOL     OW28212   5.814   3.301   4.102
75458SOL    HW128213   5.782   3.259   4.022
75458SOL    HW228214   5.791   3.240   4.172
75459SOL     OW28215   1.972  12.617   1.747
75459SOL    HW128216   1.883  12.582   1.742
75459SOL    HW228217   1.974  12.688   1.683
75460SOL     OW28218   8.899   5.464  10.531
75460SOL    HW128219   8.957   5.478  10.606
75460SOL    HW228220   8.855   5.548  10.518
75461SOL     OW28221   5.481   1.262  10.189
75461SOL    HW128222   5.483   1.342  10.242
75461SOL    HW228223   5.549   1.206  10.228
75462SOL     OW28224  12.402   9.872   6.231
75462SOL    HW128225  12.493   9.879   6.260
75462SOL    HW228226  12.362   9.810   6.292
75463SOL     OW28227   2.216   1.351  12.433
75463SOL    HW128228   2.245   1.442  12.425
75463SOL    HW228229   2.163   1.335  12.356
75464SOL     OW28230   4.664   3.530   9.262
75464SOL    HW128231   4.752   3.545   9.228
75464SOL    HW228232   4.676   3.469   9.334
75465SOL     OW28233  10.277  12.036  11.660
75465SOL    HW128234  10.272  12.066  11.570
75465SOL    HW228235  10.300  11.943  11.654
75466SOL     OW28236  13.643  12.619  14.797
75466SOL    HW128237  13.697  12.661  14.864
75466SOL    HW228238  13.596  12.691  14.755
75467SOL     OW28239   8.593   7.634  12.217
75467SOL    HW128240   8.562   7.547  12.190
75467SOL    HW228241   8.561   7.693  12.148
75468SOL     OW28242   5.378   8.150   5.326
75468SOL    HW128243   5.312   8.181   5.265
75468SOL    HW228244   5.409   8.067   5.289
75469SOL     OW28245  11.366   1.650   7.048
75469SOL    HW128246  11.425   1.679   7.118
75469SOL    HW228247  11.346   1.730   6.999
75470SOL     OW28248   9.023   1.552   2.205
75470SOL    HW128249   9.031   1.572   2.112
75470SOL    HW228250   8.932   1.573   2.226
75471SOL     OW28251   6.347  14.295   6.063
75471SOL    HW128252   6.431  14.253   6.044
75471SOL    HW228253   6.305  14.306   5.978
75472SOL     OW28254   3.633   2.861   6.684
75472SOL    HW128255   3.678   2.933   6.640
75472SOL    HW228256   3.681   2.850   6.766
75473SOL     OW28257   0.657  12.034  12.152
75473SOL    HW128258   0.739  12.079  12.130
75473SOL    HW228259   0.644  12.051  12.245
75474SOL     OW28260  14.729   0.847   9.356
75474SOL    HW128261  14.745   0.884   9.269
75474SOL    HW228262  14.651   0.892   9.387
75475SOL     OW28263  12.194  14.255   6.644
75475SOL    HW128264  12.151  14.170   6.638
75475SOL    HW228265  12.278  14.243   6.600
75476SOL     OW28266   9.891   8.525   1.312
75476SOL    HW128267   9.924   8.565   1.392
75476SOL    HW228268   9.901   8.593   1.245
75477SOL     OW28269   6.899   6.253   4.272
75477SOL    HW128270   6.845   6.212   4.340
75477SOL    HW228271   6.851   6.332   4.248
75478SOL     OW28272  13.517  10.591  10.744
75478SOL    HW128273  13.430  10.568  10.775
75478SOL    HW228274  13.566  10.612  10.824
75479SOL     OW28275  14.720  10.757  10.051
75479SOL    HW128276  14.750  10.846  10.070
75479SOL    HW228277  14.667  10.733  10.126
75480SOL     OW28278  11.781   5.741  11.632
75480SOL    HW128279  11.775   5.650  11.663
75480SOL    HW228280  11.799   5.792  11.711
75481SOL     OW28281   5.132   2.716   2.386
75481SOL    HW128282   5.191   2.640   2.381
75481SOL    HW228283   5.137   2.743   2.478
75482SOL     OW28284   6.135   3.793   1.211
75482SOL    HW128285   6.155   3.711   1.256
75482SOL    HW228286   6.041   3.790   1.194
75483SOL     OW28287   6.897   5.464  14.047
75483SOL    HW128288   6.969   5.527  14.036
75483SOL    HW228289   6.929   5.383  14.009
75484SOL     OW28290   8.231  10.050  11.678
75484SOL    HW128291   8.257   9.958  11.676
75484SOL    HW228292   8.172  10.057  11.752
75485SOL     OW28293  13.641   8.238  13.044
75485SOL    HW128294  13.703   8.230  12.972
75485SOL    HW228295  13.625   8.147  13.072
75486SOL     OW28296   2.996   5.412   9.584
75486SOL    HW128297   2.970   5.401   9.676
75486SOL    HW228298   2.915   5.439   9.540
75487SOL     OW28299  10.740   9.833  14.364
75487SOL    HW128300  10.751   9.913  14.416
75487SOL    HW228301  10.734   9.763  14.429
75488SOL     OW28302   7.186   5.037  12.258
75488SOL    HW128303   7.253   4.969  12.248
75488SOL    HW228304   7.235   5.118  12.267
75489SOL     OW28305   3.920   7.827  11.187
75489SOL    HW128306   3.987   7.894  11.183
75489SOL    HW228307   3.885   7.832  11.276
75490SOL     OW28308  12.151   6.697   2.797
75490SOL    HW128309  12.058   6.683   2.814
75490SOL    HW228310  12.186   6.728   2.880
75491SOL     OW28311   1.959  11.716  14.345
75491SOL    HW128312   2.043  11.734  14.388
75491SOL    HW228313   1.917  11.801  14.337
75492SOL     OW28314  13.118  11.572   2.959
75492SOL    HW128315  13.109  11.593   2.866
75492SOL    HW228316  13.165  11.647   2.997
75493SOL     OW28317   3.615   3.181  11.334
75493SOL    HW128318   3.521   3.194  11.341
75493SOL    HW228319   3.624   3.090  11.305
75494SOL     OW28320   9.832  11.498  10.091
75494SOL    HW128321   9.807  11.424  10.147
75494SOL    HW228322   9.830  11.463  10.002
75495SOL     OW28323   3.355   2.275  11.164
75495SOL    HW128324   3.275   2.282  11.113
75495SOL    HW228325   3.402   2.201  11.125
75496SOL     OW28326   6.502   5.667  12.587
75496SOL    HW128327   6.465   5.591  12.541
75496SOL    HW228328   6.509   5.638  12.678
75497SOL     OW28329   8.866   3.722   9.571
75497SOL    HW128330   8.842   3.651   9.630
75497SOL    HW228331   8.821   3.702   9.489
75498SOL     OW28332   8.561   0.724  12.350
75498SOL    HW128333   8.520   0.642  12.379
75498SOL    HW228334   8.653   0.714  12.373
75499SOL     OW28335  12.759   5.622  12.130
75499SOL    HW128336  12.798   5.581  12.053
75499SOL    HW228337  12.721   5.549  12.179
75500SOL     OW28338   8.663   7.007   1.929
75500SOL    HW128339   8.620   6.966   2.003
75500SOL    HW228340   8.603   7.076   1.901
75501SOL     OW28341   0.773   2.121   3.408
75501SOL    HW128342   0.842   2.157   3.465
75501SOL    HW228343   0.749   2.038   3.449
75502SOL     OW28344   9.908   1.864   8.937
75502SOL    HW128345   9.942   1.795   8.880
75502SOL    HW228346   9.815   1.869   8.915
75503SOL     OW28347  13.037   2.701  14.627
75503SOL    HW128348  13.130   2.708  14.649
75503SOL    HW228349  13.017   2.782  14.581
75504SOL     OW28350  13.804   4.643   6.014
75504SOL    HW128351  13.841   4.705   6.077
75504SOL    HW228352  13.878   4.614   5.962
75505SOL     OW28353   4.084  12.587   7.770
75505SOL    HW128354   4.027  12.539   7.831
75505SOL    HW228355   4.136  12.644   7.826
75506SOL     OW28356   9.401   0.476  14.789
75506SOL    HW128357   9.429   0.453  14.701
75506SOL    HW228358   9.425   0.401  14.843
75507SOL     OW28359   8.987   3.976   2.809
75507SOL    HW128360   8.967   4.016   2.724
75507SOL    HW228361   9.010   4.051   2.864
75508SOL     OW28362   5.721   8.151   0.247
75508SOL    HW128363   5.681   8.070   0.214
75508SOL    HW228364   5.792   8.121   0.304
75509SOL     OW28365   2.612   5.412   8.556
75509SOL    HW128366   2.557   5.487   8.576
75509SOL    HW228367   2.574   5.340   8.606
75510SOL     OW28368   8.168  12.971  12.290
75510SOL    HW128369   8.105  12.952  12.359
75510SOL    HW228370   8.125  12.943  12.210
75511SOL     OW28371  14.385   4.490  11.531
75511SOL    HW128372  14.444   4.488  11.457
75511SOL    HW228373  14.305   4.448  11.500
75512SOL     OW28374  13.423  10.990   2.966
75512SOL    HW128375  13.456  11.057   2.906
75512SOL    HW228376  13.344  10.956   2.923
75513SOL     OW28377   4.361  11.341   8.217
75513SOL    HW128378   4.393  11.274   8.277
75513SOL    HW228379   4.291  11.385   8.265
75514SOL     OW28380   8.272  13.915   2.672
75514SOL    HW128381   8.293  13.852   2.603
75514SOL    HW228382   8.178  13.930   2.662
75515SOL     OW28383   7.109   2.403   2.254
75515SOL    HW128384   7.103   2.339   2.183
75515SOL    HW228385   7.070   2.482   2.218
75516SOL     OW28386   4.948  10.177   4.691
75516SOL    HW128387   4.940  10.085   4.716
75516SOL    HW228388   5.031  10.182   4.644
75517SOL     OW28389  13.906  11.025  11.917
75517SOL    HW128390  13.821  11.049  11.955
75517SOL    HW228391  13.970  11.059  11.979
75518SOL     OW28392   0.152   8.151   1.064
75518SOL    HW128393   0.066   8.109   1.073
75518SOL    HW228394   0.133   8.235   1.023
75519SOL     OW28395  12.249   7.695   4.979
75519SOL    HW128396  12.294   7.612   4.994
75519SOL    HW228397  12.242   7.735   5.066
75520SOL     OW28398   2.461  13.473   8.767
75520SOL    HW128399   2.426  13.521   8.842
75520SOL    HW228400   2.530  13.530   8.732
75521SOL     OW28401   4.182   4.775  14.490
75521SOL    HW128402   4.127   4.848  14.518
75521SOL    HW228403   4.271   4.806  14.502
75522SOL     OW28404   0.905  13.961  11.023
75522SOL    HW128405   0.978  13.905  11.049
75522SOL    HW228406   0.827  13.907  11.032
75523SOL     OW28407   0.355  13.905   4.193
75523SOL    HW128408   0.344  13.915   4.288
75523SOL    HW228409   0.441  13.864   4.182
75524SOL     OW28410  12.908  10.297  11.073
75524SOL    HW128411  13.000  10.323  11.069
75524SOL    HW228412  12.882  10.288  10.981
75525SOL     OW28413  13.707  13.067   9.392
75525SOL    HW128414  13.623  13.036   9.425
75525SOL    HW228415  13.710  13.160   9.414
75526SOL     OW28416  14.647  14.435  11.221
75526SOL    HW128417  14.631  14.432  11.126
75526SOL    HW228418  14.560  14.433  11.261
75527SOL     OW28419   2.337  12.379   9.640
75527SOL    HW128420   2.366  12.467   9.665
75527SOL    HW228421   2.354  12.325   9.717
75528SOL     OW28422   6.106   5.531   8.349
75528SOL    HW128423   6.058   5.481   8.416
75528SOL    HW228424   6.119   5.468   8.278
75529SOL     OW28425  13.265  13.929  11.175
75529SOL    HW128426  13.185  13.879  11.156
75529SOL    HW228427  13.320  13.867  11.223
75530SOL     OW28428   3.880   1.150   2.933
75530SOL    HW128429   3.863   1.056   2.926
75530SOL    HW228430   3.900   1.177   2.844
75531SOL     OW28431   7.632   4.650   7.380
75531SOL    HW128432   7.598   4.568   7.345
75531SOL    HW228433   7.719   4.628   7.414
75532SOL     OW28434   4.614  14.024   1.301
75532SOL    HW128435   4.658  14.018   1.386
75532SOL    HW228436   4.556  13.948   1.300
75533SOL     OW28437   3.291  10.082   3.181
75533SOL    HW128438   3.341  10.001   3.169
75533SOL    HW228439   3.242  10.093   3.100
75534SOL     OW28440   4.806   0.815  10.341
75534SOL    HW128441   4.732   0.777  10.389
75534SOL    HW228442   4.826   0.896  10.388
75535SOL     OW28443  10.330   3.338   4.892
75535SOL    HW128444  10.247   3.321   4.938
75535SOL    HW228445  10.335   3.271   4.824
75536SOL     OW28446   5.997  11.788   8.972
75536SOL    HW128447   6.014  11.864   8.916
75536SOL    HW228448   6.083  11.756   8.996
75537SOL     OW28449   8.168   7.793  10.158
75537SOL    HW128450   8.236   7.748  10.109
75537SOL    HW228451   8.086   7.754  10.128
75538SOL     OW28452   0.330   4.236  11.045
75538SOL    HW128453   0.322   4.313  11.100
75538SOL    HW228454   0.288   4.166  11.095
75539SOL     OW28455   5.493   3.996   6.534
75539SOL    HW128456   5.443   4.076   6.518
75539SOL    HW228457   5.514   4.000   6.627
75540SOL     OW28458  11.139   5.094   6.375
75540SOL    HW128459  11.189   5.032   6.322
75540SOL    HW228460  11.181   5.091   6.461
75541SOL     OW28461   0.150   6.514   5.897
75541SOL    HW128462   0.144   6.576   5.825
75541SOL    HW228463   0.064   6.472   5.900
75542SOL     OW28464   2.712  12.156   8.709
75542SOL    HW128465   2.802  12.188   8.707
75542SOL    HW228466   2.679  12.184   8.794
75543SOL     OW28467  11.030   6.294  12.963
75543SOL    HW128468  11.009   6.356  13.032
75543SOL    HW228469  10.949   6.244  12.950
75544SOL     OW28470   2.688   4.096   5.780
75544SOL    HW128471   2.746   4.045   5.836
75544SOL    HW228472   2.704   4.187   5.804
75545SOL     OW28473  11.610  14.760   9.675
75545SOL    HW128474  11.571  14.764   9.762
75545SOL    HW228475  11.588  14.672   9.643
75546SOL     OW28476   4.911  14.786  14.402
75546SOL    HW128477   4.945  14.745  14.323
75546SOL    HW228478   4.822  14.753  14.410
75547SOL     OW28479   6.405  14.007   7.565
75547SOL    HW128480   6.350  14.085   7.573
75547SOL    HW228481   6.488  14.040   7.531
75548SOL     OW28482   3.663   5.210   2.909
75548SOL    HW128483   3.641   5.296   2.944
75548SOL    HW228484   3.616   5.149   2.966
75549SOL     OW28485  10.158   5.024   2.292
75549SOL    HW128486  10.221   5.034   2.221
75549SOL    HW228487  10.109   4.944   2.270
75550SOL     OW28488   4.513   2.180  10.548
75550SOL    HW128489   4.500   2.238  10.472
75550SOL    HW228490   4.523   2.093  10.510
75551SOL     OW28491   8.842   1.644  13.688
75551SOL    HW128492   8.794   1.668  13.609
75551SOL    HW228493   8.903   1.575  13.660
75552SOL     OW28494  14.690  10.709  10.784
75552SOL    HW128495  14.769  10.673  10.743
75552SOL    HW228496  14.688  10.670  10.871
75553SOL     OW28497  12.937  10.153   4.466
75553SOL    HW128498  12.956  10.218   4.398
75553SOL    HW228499  12.932  10.204   4.547
75554SOL     OW28500   1.349  10.997   5.686
75554SOL    HW128501   1.364  11.081   5.642
75554SOL    HW228502   1.427  10.984   5.740
75555SOL     OW28503  10.318   6.259  11.225
75555SOL    HW128504  10.354   6.181  11.267
75555SOL    HW228505  10.377   6.276  11.152
75556SOL     OW28506  11.075  13.576   4.351
75556SOL    HW128507  11.080  13.506   4.416
75556SOL    HW228508  11.158  13.622   4.359
75557SOL     OW28509   6.997   2.909  14.014
75557SOL    HW128510   6.918   2.858  13.997
75557SOL    HW228511   6.969   3.000  14.006
75558SOL     OW28512   0.550   9.160   8.149
75558SOL    HW128513   0.587   9.149   8.061
75558SOL    HW228514   0.463   9.120   8.143
75559SOL     OW28515   2.993   9.740   3.062
75559SOL    HW128516   3.045   9.766   3.138
75559SOL    HW228517   2.948   9.820   3.035
75560SOL     OW28518   5.112   8.258  11.968
75560SOL    HW128519   5.198   8.299  11.978
75560SOL    HW228520   5.056   8.328  11.933
75561SOL     OW28521   3.362   4.053   3.034
75561SOL    HW128522   3.325   4.025   2.949
75561SOL    HW228523   3.449   4.012   3.036
75562SOL     OW28524   1.451   9.459   1.667
75562SOL    HW128525   1.446   9.527   1.599
75562SOL    HW228526   1.437   9.507   1.749
75563SOL     OW28527  14.841   4.711   7.208
75563SOL    HW128528  14.758   4.664   7.211
75563SOL    HW228529  14.853   4.744   7.297
75564SOL     OW28530   7.319   0.801  14.041
75564SOL    HW128531   7.291   0.892  14.045
75564SOL    HW228532   7.414   0.804  14.047
75565SOL     OW28533   1.108   0.952  11.457
75565SOL    HW128534   1.178   1.017  11.449
75565SOL    HW228535   1.056   0.982  11.532
75566SOL     OW28536   4.926   1.020   9.526
75566SOL    HW128537   4.938   1.098   9.471
75566SOL    HW228538   4.834   1.025   9.554
75567SOL     OW28539   9.216   4.362   3.487
75567SOL    HW128540   9.212   4.283   3.433
75567SOL    HW228541   9.298   4.405   3.460
75568SOL     OW28542  13.612   7.321  14.238
75568SOL    HW128543  13.642   7.233  14.262
75568SOL    HW228544  13.600   7.366  14.322
75569SOL     OW28545   6.910   6.594  11.629
75569SOL    HW128546   6.961   6.517  11.654
75569SOL    HW228547   6.895   6.640  11.712
75570SOL     OW28548   5.484   1.584   0.788
75570SOL    HW128549   5.545   1.655   0.769
75570SOL    HW228550   5.438   1.569   0.706
75571SOL     OW28551   3.218   8.099   3.397
75571SOL    HW128552   3.202   8.174   3.339
75571SOL    HW228553   3.238   8.027   3.337
75572SOL     OW28554   4.559  14.490   1.102
75572SOL    HW128555   4.495  14.433   1.143
75572SOL    HW228556   4.510  14.536   1.034
75573SOL     OW28557   5.215  13.248   5.073
75573SOL    HW128558   5.244  13.293   4.993
75573SOL    HW228559   5.136  13.295   5.100
75574SOL     OW28560   4.985  12.248   0.339
75574SOL    HW128561   4.960  12.168   0.384
75574SOL    HW228562   5.005  12.310   0.408
75575SOL     OW28563  13.648   7.197   8.124
75575SOL    HW128564  13.666   7.111   8.162
75575SOL    HW228565  13.724   7.215   8.068
75576SOL     OW28566  13.147   7.735   3.571
75576SOL    HW128567  13.101   7.761   3.651
75576SOL    HW228568  13.215   7.802   3.560
75577SOL     OW28569  14.700   4.863   6.102
75577SOL    HW128570  14.644   4.908   6.165
75577SOL    HW228571  14.685   4.909   6.020
75578SOL     OW28572   8.276   6.730   9.102
75578SOL    HW128573   8.197   6.783   9.107
75578SOL    HW228574   8.261   6.657   9.161
75579SOL     OW28575   0.491   5.475  12.062
75579SOL    HW128576   0.582   5.455  12.086
75579SOL    HW228577   0.439   5.415  12.115
75580SOL     OW28578   2.172  10.021   3.672
75580SOL    HW128579   2.126  10.030   3.588
75580SOL    HW228580   2.191   9.928   3.679
75581SOL     OW28581   5.967   1.217   8.171
75581SOL    HW128582   5.987   1.244   8.082
75581SOL    HW228583   5.989   1.124   8.174
75582SOL     OW28584  12.613   9.637   5.941
75582SOL    HW128585  12.701   9.666   5.917
75582SOL    HW228586  12.627   9.560   5.995
75583SOL     OW28587   1.055  10.967  13.903
75583SOL    HW128588   1.025  10.913  13.829
75583SOL    HW228589   0.980  11.023  13.924
75584SOL     OW28590   2.548   2.653  13.219
75584SOL    HW128591   2.504   2.648  13.304
75584SOL    HW228592   2.623   2.593  13.228
75585SOL     OW28593  11.485   1.597   1.057
75585SOL    HW128594  11.519   1.686   1.054
75585SOL    HW228595  11.473   1.579   1.151
75586SOL     OW28596   9.540  13.366   0.287
75586SOL    HW128597   9.497  13.300   0.342
75586SOL    HW228598   9.493  13.361   0.204
75587SOL     OW28599  12.832   3.691   9.200
75587SOL    HW128600  12.857   3.604   9.169
75587SOL    HW228601  12.909   3.723   9.247
75588SOL     OW28602   5.655   2.174   1.943
75588SOL    HW128603   5.595   2.232   1.896
75588SOL    HW228604   5.600   2.101   1.972
75589SOL     OW28605   4.701  14.120   3.345
75589SOL    HW128606   4.745  14.191   3.391
75589SOL    HW228607   4.762  14.095   3.276
75590SOL     OW28608   7.140   0.949  13.597
75590SOL    HW128609   7.176   0.968  13.510
75590SOL    HW228610   7.201   0.885  13.634
75591SOL     OW28611  12.107  11.333   1.893
75591SOL    HW128612  12.075  11.272   1.960
75591SOL    HW228613  12.029  11.358   1.844
75592SOL     OW28614  14.031   3.051   0.968
75592SOL    HW128615  14.056   3.042   0.876
75592SOL    HW228616  13.952   3.105   0.966
75593SOL     OW28617   1.647  11.711   2.842
75593SOL    HW128618   1.618  11.800   2.820
75593SOL    HW228619   1.732  11.724   2.885
75594SOL     OW28620  10.500  11.383  12.639
75594SOL    HW128621  10.471  11.321  12.706
75594SOL    HW228622  10.594  11.368  12.630
75595SOL     OW28623  11.638   2.109  13.600
75595SOL    HW128624  11.624   2.034  13.543
75595SOL    HW228625  11.711   2.083  13.656
75596SOL     OW28626   1.023   9.071  13.704
75596SOL    HW128627   0.997   9.026  13.784
75596SOL    HW228628   0.940   9.094  13.661
75597SOL     OW28629  10.331  13.413  14.620
75597SOL    HW128630  10.298  13.342  14.675
75597SOL    HW228631  10.254  13.467  14.602
75598SOL     OW28632   9.890   2.264   6.920
75598SOL    HW128633   9.974   2.276   6.963
75598SOL    HW228634   9.909   2.211   6.843
75599SOL     OW28635   3.748   0.055   4.401
75599SOL    HW128636   3.664   0.100   4.408
75599SOL    HW228637   3.811   0.125   4.383
75600SOL     OW28638   1.408   8.304   6.446
75600SOL    HW128639   1.453   8.386   6.427
75600SOL    HW228640   1.371   8.276   6.362
75601SOL     OW28641  14.372  11.526  13.398
75601SOL    HW128642  14.343  11.448  13.445
75601SOL    HW228643  14.322  11.597  13.438
75602SOL     OW28644   0.287   4.001   5.642
75602SOL    HW128645   0.203   3.998   5.596
75602SOL    HW228646   0.299   4.093   5.664
75603SOL     OW28647  14.581  14.514  14.370
75603SOL    HW128648  14.494  14.537  14.335
75603SOL    HW228649  14.624  14.598  14.383
75604SOL     OW28650   3.916   5.862   5.498
75604SOL    HW128651   3.846   5.797   5.491
75604SOL    HW228652   3.984   5.819   5.548
75605SOL     OW28653   9.288   5.997  11.723
75605SOL    HW128654   9.353   5.946  11.674
75605SOL    HW228655   9.328   6.009  11.809
75606SOL     OW28656   8.574   4.171   1.527
75606SOL    HW128657   8.487   4.146   1.494
75606SOL    HW228658   8.592   4.255   1.484
75607SOL     OW28659   6.999  11.047   8.934
75607SOL    HW128660   7.039  10.962   8.916
75607SOL    HW228661   7.008  11.096   8.852
75608SOL     OW28662  14.206   2.003  13.580
75608SOL    HW128663  14.128   2.005  13.524
75608SOL    HW228664  14.175   2.031  13.665
75609SOL     OW28665   9.402   7.270   2.546
75609SOL    HW128666   9.344   7.193   2.541
75609SOL    HW228667   9.461   7.260   2.472
75610SOL     OW28668  13.494   8.589   6.551
75610SOL    HW128669  13.404   8.619   6.544
75610SOL    HW228670  13.501   8.519   6.486
75611SOL     OW28671   4.349   2.104  11.435
75611SOL    HW128672   4.387   2.069  11.354
75611SOL    HW228673   4.420   2.154  11.475
75612SOL     OW28674   5.281   0.415   9.894
75612SOL    HW128675   5.249   0.492   9.846
75612SOL    HW228676   5.342   0.451   9.958
75613SOL     OW28677   5.213  10.819   6.879
75613SOL    HW128678   5.183  10.831   6.969
75613SOL    HW228679   5.133  10.808   6.827
75614SOL     OW28680  13.042   1.973   8.360
75614SOL    HW128681  13.083   2.057   8.382
75614SOL    HW228682  13.043   1.924   8.441
75615SOL     OW28683   9.378   2.035   2.169
75615SOL    HW128684   9.356   2.024   2.262
75615SOL    HW228685   9.415   1.950   2.143
75616SOL     OW28686  11.051   9.505  13.413
75616SOL    HW128687  11.095   9.563  13.350
75616SOL    HW228688  10.986   9.562  13.455
75617SOL     OW28689   2.814   0.811  13.894
75617SOL    HW128690   2.744   0.776  13.950
75617SOL    HW228691   2.786   0.790  13.805
75618SOL     OW28692   8.954   4.180   1.154
75618SOL    HW128693   8.923   4.270   1.154
75618SOL    HW228694   9.023   4.178   1.088
75619SOL     OW28695   5.967   7.020  13.579
75619SOL    HW128696   5.875   7.014  13.554
75619SOL    HW228697   6.013   6.967  13.515
75620SOL     OW28698   5.592  13.297   6.640
75620SOL    HW128699   5.528  13.324   6.575
75620SOL    HW228700   5.551  13.316   6.725
75621SOL     OW28701  14.058   5.452   8.961
75621SOL    HW128702  14.095   5.446   9.049
75621SOL    HW228703  13.993   5.382   8.957
75622SOL     OW28704  10.611   6.245  14.626
75622SOL    HW128705  10.576   6.173  14.680
75622SOL    HW228706  10.533   6.295  14.600
75623SOL     OW28707   1.964   5.932  12.536
75623SOL    HW128708   2.057   5.915  12.548
75623SOL    HW228709   1.929   5.850  12.502
75624SOL     OW28710  10.742   7.957   7.738
75624SOL    HW128711  10.752   8.043   7.697
75624SOL    HW228712  10.831   7.930   7.760
75625SOL     OW28713  13.363  11.558   7.530
75625SOL    HW128714  13.364  11.627   7.463
75625SOL    HW228715  13.299  11.494   7.497
75626SOL     OW28716  12.990   3.660   0.554
75626SOL    HW128717  12.994   3.588   0.491
75626SOL    HW228718  13.080   3.668   0.586
75627SOL     OW28719  10.732   1.696  14.640
75627SOL    HW128720  10.691   1.778  14.666
75627SOL    HW228721  10.695   1.630  14.699
75628SOL     OW28722   0.086   4.803   5.854
75628SOL    HW128723   0.071   4.898   5.854
75628SOL    HW228724   0.080   4.777   5.945
75629SOL     OW28725   3.342  12.680   7.788
75629SOL    HW128726   3.330  12.772   7.765
75629SOL    HW228727   3.310  12.674   7.878
75630SOL     OW28728  12.942   7.303   1.256
75630SOL    HW128729  13.010   7.371   1.250
75630SOL    HW228730  12.899   7.320   1.340
75631SOL     OW28731   1.559   9.295   1.992
75631SOL    HW128732   1.539   9.389   1.996
75631SOL    HW228733   1.565   9.275   1.899
75632SOL     OW28734   1.138   7.387   8.862
75632SOL    HW128735   1.232   7.375   8.874
75632SOL    HW228736   1.116   7.327   8.791
75633SOL     OW28737   1.973   7.389   0.258
75633SOL    HW128738   1.948   7.472   0.217
75633SOL    HW228739   2.068   7.383   0.243
75634SOL     OW28740  12.436   9.764   7.571
75634SOL    HW128741  12.370   9.821   7.532
75634SOL    HW228742  12.394   9.728   7.649
75635SOL     OW28743   0.080   9.090   3.724
75635SOL    HW128744   0.026   9.168   3.742
75635SOL    HW228745   0.168   9.116   3.749
75636SOL     OW28746   2.805   6.842  12.332
75636SOL    HW128747   2.795   6.837  12.427
75636SOL    HW228748   2.715   6.844  12.299
75637SOL     OW28749   0.030  10.724   0.789
75637SOL    HW128750  14.860  10.780   0.729
75637SOL    HW228751  14.850  10.706   0.861
75638SOL     OW28752  12.192  11.911   1.687
75638SOL    HW128753  12.234  11.891   1.771
75638SOL    HW228754  12.150  11.830   1.661
75639SOL     OW28755   6.691  13.740  10.777
75639SOL    HW128756   6.686  13.674  10.846
75639SOL    HW228757   6.638  13.813  10.809
75640SOL     OW28758   0.593   4.701   4.544
75640SOL    HW128759   0.575   4.744   4.460
75640SOL    HW228760   0.683   4.670   4.536
75641SOL     OW28761  11.671   2.484  14.077
75641SOL    HW128762  11.755   2.438  14.071
75641SOL    HW228763  11.636   2.458  14.162
75642SOL     OW28764   4.017  13.857  11.226
75642SOL    HW128765   4.020  13.781  11.285
75642SOL    HW228766   3.926  13.886  11.230
75643SOL     OW28767   3.110  10.112   7.023
75643SOL    HW128768   3.114  10.207   7.027
75643SOL    HW228769   3.198  10.083   7.048
75644SOL     OW28770   4.296  11.932   9.150
75644SOL    HW128771   4.280  12.027   9.146
75644SOL    HW228772   4.331  11.917   9.238
75645SOL     OW28773   2.746   1.896   5.819
75645SOL    HW128774   2.706   1.966   5.768
75645SOL    HW228775   2.750   1.931   5.908
75646SOL     OW28776   6.041   4.283   7.320
75646SOL    HW128777   6.130   4.319   7.318
75646SOL    HW228778   6.053   4.190   7.339
75647SOL     OW28779  11.462   9.292   6.188
75647SOL    HW128780  11.500   9.378   6.174
75647SOL    HW228781  11.410   9.302   6.267
75648SOL     OW28782  11.262   0.861   4.819
75648SOL    HW128783  11.317   0.939   4.828
75648SOL    HW228784  11.256   0.847   4.725
75649SOL     OW28785   5.621   6.258   3.340
75649SOL    HW128786   5.656   6.296   3.259
75649SOL    HW228787   5.528   6.278   3.337
75650SOL     OW28788   2.216   1.232   2.254
75650SOL    HW128789   2.299   1.198   2.218
75650SOL    HW228790   2.215   1.324   2.228
75651SOL     OW28791   4.889   2.157   1.519
75651SOL    HW128792   4.798   2.175   1.497
75651SOL    HW228793   4.926   2.242   1.539
75652SOL     OW28794   3.262  11.816   5.772
75652SOL    HW128795   3.220  11.819   5.858
75652SOL    HW228796   3.352  11.843   5.788
75653SOL     OW28797  10.235  11.814   3.768
75653SOL    HW128798  10.249  11.720   3.782
75653SOL    HW228799  10.310  11.856   3.810
75654SOL     OW28800   3.771  10.179   6.352
75654SOL    HW128801   3.722  10.120   6.295
75654SOL    HW228802   3.774  10.262   6.304
75655SOL     OW28803   7.160   9.130   3.954
75655SOL    HW128804   7.075   9.162   3.922
75655SOL    HW228805   7.142   9.098   4.042
75656SOL     OW28806   3.475  12.238  11.874
75656SOL    HW128807   3.515  12.308  11.925
75656SOL    HW228808   3.407  12.281  11.822
75657SOL     OW28809   5.145   4.710   3.248
75657SOL    HW128810   5.176   4.790   3.291
75657SOL    HW228811   5.055   4.729   3.223
75658SOL     OW28812   1.006   9.719  13.771
75658SOL    HW128813   1.002   9.691  13.680
75658SOL    HW228814   0.973   9.643  13.820
75659SOL     OW28815  14.580   2.352  13.421
75659SOL    HW128816  14.628   2.366  13.339
75659SOL    HW228817  14.629   2.402  13.486
75660SOL     OW28818   8.336   1.698   1.304
75660SOL    HW128819   8.332   1.750   1.385
75660SOL    HW228820   8.256   1.645   1.306
75661SOL     OW28821  11.825  13.667   7.492
75661SOL    HW128822  11.772  13.699   7.565
75661SOL    HW228823  11.805  13.574   7.486
75662SOL     OW28824   4.675   5.883  10.801
75662SOL    HW128825   4.583   5.857  10.807
75662SOL    HW228826   4.673   5.973  10.771
75663SOL     OW28827   7.357   4.218   4.466
75663SOL    HW128828   7.410   4.139   4.467
75663SOL    HW228829   7.406   4.280   4.520
75664SOL     OW28830  10.731  14.829   6.685
75664SOL    HW128831  10.761  14.873   6.765
75664SOL    HW228832  10.738  14.736   6.705
75665SOL     OW28833   3.738  11.848   1.918
75665SOL    HW128834   3.673  11.821   1.982
75665SOL    HW228835   3.789  11.769   1.900
75666SOL     OW28836  10.031   9.434   9.611
75666SOL    HW128837  10.071   9.350   9.632
75666SOL    HW228838  10.027   9.481   9.694
75667SOL     OW28839   7.041   4.176   0.145
75667SOL    HW128840   7.050   4.271   0.142
75667SOL    HW228841   7.047   4.154   0.239
75668SOL     OW28842   7.002   0.867   9.867
75668SOL    HW128843   7.053   0.793   9.831
75668SOL    HW228844   6.984   0.922   9.791
75669SOL     OW28845   1.092  11.112  11.934
75669SOL    HW128846   1.041  11.166  11.874
75669SOL    HW228847   1.105  11.168  12.011
75670SOL     OW28848   0.714  14.202   9.048
75670SOL    HW128849   0.770  14.271   9.083
75670SOL    HW228850   0.646  14.250   9.000
75671SOL     OW28851   4.739  12.347   4.363
75671SOL    HW128852   4.652  12.341   4.323
75671SOL    HW228853   4.722  12.383   4.450
75672SOL     OW28854   2.512   6.139  10.371
75672SOL    HW128855   2.521   6.180  10.457
75672SOL    HW228856   2.418   6.126  10.360
75673SOL     OW28857   2.030   4.487  13.049
75673SOL    HW128858   1.986   4.432  13.113
75673SOL    HW228859   2.002   4.576  13.071
75674SOL     OW28860  12.913   7.074   4.606
75674SOL    HW128861  12.840   7.095   4.547
75674SOL    HW228862  12.914   6.978   4.609
75675SOL     OW28863  11.590  12.401   4.579
75675SOL    HW128864  11.555  12.486   4.605
75675SOL    HW228865  11.638  12.419   4.498
75676SOL     OW28866  10.716  11.718  13.498
75676SOL    HW128867  10.787  11.776  13.528
75676SOL    HW228868  10.740  11.632  13.531
75677SOL     OW28869   1.474   7.221   5.124
75677SOL    HW128870   1.478   7.156   5.194
75677SOL    HW228871   1.550   7.277   5.141
75678SOL     OW28872   6.625  14.546  12.960
75678SOL    HW128873   6.706  14.596  12.949
75678SOL    HW228874   6.583  14.585  13.037
75679SOL     OW28875  10.590   8.975  13.479
75679SOL    HW128876  10.584   9.022  13.563
75679SOL    HW228877  10.586   9.044  13.413
75680SOL     OW28878   8.177   5.128  10.636
75680SOL    HW128879   8.162   5.050  10.689
75680SOL    HW228880   8.127   5.197  10.680
75681SOL     OW28881  11.251   5.427  13.050
75681SOL    HW128882  11.338   5.388  13.038
75681SOL    HW228883  11.202   5.361  13.099
75682SOL     OW28884   3.267  12.726  13.745
75682SOL    HW128885   3.223  12.700  13.664
75682SOL    HW228886   3.292  12.817  13.731
75683SOL     OW28887   0.516  12.630   1.567
75683SOL    HW128888   0.550  12.552   1.523
75683SOL    HW228889   0.421  12.622   1.560
75684SOL     OW28890   9.935  14.836   5.818
75684SOL    HW128891  10.020  14.799   5.840
75684SOL    HW228892   9.913   0.014   5.892
75685SOL     OW28893  11.487   6.243   2.304
75685SOL    HW128894  11.531   6.314   2.257
75685SOL    HW228895  11.408   6.283   2.340
75686SOL     OW28896   6.268   9.368  12.483
75686SOL    HW128897   6.282   9.291  12.428
75686SOL    HW228898   6.356   9.397  12.507
75687SOL     OW28899   5.662   7.230  14.746
75687SOL    HW128900   5.596   7.293  14.716
75687SOL    HW228901   5.686   7.260  14.834
75688SOL     OW28902   0.851   7.258   5.780
75688SOL    HW128903   0.940   7.236   5.809
75688SOL    HW228904   0.794   7.208   5.839
75689SOL     OW28905   1.023  13.326  14.403
75689SOL    HW128906   0.941  13.276  14.398
75689SOL    HW228907   1.090  13.261  14.424
75690SOL     OW28908  11.480   2.893   7.300
75690SOL    HW128909  11.424   2.815   7.303
75690SOL    HW228910  11.438   2.956   7.357
75691SOL     OW28911   2.461   4.393   4.853
75691SOL    HW128912   2.544   4.347   4.847
75691SOL    HW228913   2.484   4.485   4.842
75692SOL     OW28914   8.580  10.921  11.129
75692SOL    HW128915   8.492  10.951  11.152
75692SOL    HW228916   8.565  10.843  11.076
75693SOL     OW28917  12.665  14.070  14.785
75693SOL    HW128918  12.627  14.135  14.726
75693SOL    HW228919  12.595  14.051  14.848
75694SOL     OW28920  12.853   0.858   4.991
75694SOL    HW128921  12.911   0.910   4.937
75694SOL    HW228922  12.910   0.794   5.034
75695SOL     OW28923   0.835   9.129  10.197
75695SOL    HW128924   0.887   9.172  10.265
75695SOL    HW228925   0.774   9.196  10.167
75696SOL     OW28926   4.480   4.654  11.413
75696SOL    HW128927   4.427   4.575  11.424
75696SOL    HW228928   4.557   4.640  11.467
75697SOL     OW28929   3.518  10.739  10.740
75697SOL    HW128930   3.560  10.753  10.824
75697SOL    HW228931   3.425  10.729  10.761
75698SOL     OW28932  11.736   0.446   7.391
75698SOL    HW128933  11.829   0.456   7.370
75698SOL    HW228934  11.694   0.520   7.347
75699SOL     OW28935   8.662  11.297   8.283
75699SOL    HW128936   8.618  11.329   8.362
75699SOL    HW228937   8.591  11.263   8.229
75700SOL     OW28938   4.304   1.999  12.465
75700SOL    HW128939   4.351   1.960  12.391
75700SOL    HW228940   4.228   2.042  12.426
75701SOL     OW28941  11.722  13.294   1.693
75701SOL    HW128942  11.733  13.218   1.636
75701SOL    HW228943  11.791  13.354   1.667
75702SOL     OW28944   6.922  14.507   3.409
75702SOL    HW128945   6.895  14.535   3.497
75702SOL    HW228946   6.999  14.560   3.390
75703SOL     OW28947   7.598   3.647  10.012
75703SOL    HW128948   7.680   3.692  10.034
75703SOL    HW228949   7.531   3.716  10.015
75704SOL     OW28950   6.937  10.313   6.759
75704SOL    HW128951   7.020  10.328   6.804
75704SOL    HW228952   6.961  10.261   6.682
75705SOL     OW28953   2.214  13.745   5.058
75705SOL    HW128954   2.190  13.806   4.988
75705SOL    HW228955   2.310  13.748   5.060
75706SOL     OW28956   1.800   8.711  12.418
75706SOL    HW128957   1.778   8.619  12.406
75706SOL    HW228958   1.868   8.712  12.484
75707SOL     OW28959   2.667   9.745   2.324
75707SOL    HW128960   2.584   9.754   2.278
75707SOL    HW228961   2.731   9.786   2.266
75708SOL     OW28962  12.877  10.655  11.943
75708SOL    HW128963  12.964  10.687  11.966
75708SOL    HW228964  12.843  10.718  11.879
75709SOL     OW28965   6.617   1.016   5.809
75709SOL    HW128966   6.645   1.090   5.754
75709SOL    HW228967   6.522   1.025   5.815
75710SOL     OW28968   2.858   8.442   0.014
75710SOL    HW128969   2.806   8.507   0.061
75710SOL    HW228970   2.823   8.442  14.805
75711SOL     OW28971   4.662   3.357  11.071
75711SOL    HW128972   4.706   3.349  10.986
75711SOL    HW228973   4.734   3.372  11.133
75712SOL     OW28974   8.064   0.234  11.498
75712SOL    HW128975   8.138   0.216  11.556
75712SOL    HW228976   8.047   0.327  11.509
75713SOL     OW28977   7.428   1.803  13.032
75713SOL    HW128978   7.509   1.754  13.014
75713SOL    HW228979   7.439   1.836  13.121
75714SOL     OW28980   8.671   7.953   1.330
75714SOL    HW128981   8.733   8.003   1.382
75714SOL    HW228982   8.603   7.925   1.392
75715SOL     OW28983   0.997   4.864  12.717
75715SOL    HW128984   1.060   4.816  12.664
75715SOL    HW228985   0.925   4.883  12.656
75716SOL     OW28986   6.820  10.602  14.850
75716SOL    HW128987   6.752  10.641   0.026
75716SOL    HW228988   6.895  10.661  14.859
75717SOL     OW28989  10.407  12.164  10.063
75717SOL    HW128990  10.468  12.223  10.108
75717SOL    HW228991  10.425  12.179   9.970
75718SOL     OW28992   5.586   0.280   5.275
75718SOL    HW128993   5.565   0.348   5.339
75718SOL    HW228994   5.679   0.262   5.289
75719SOL     OW28995   6.644   9.386   5.541
75719SOL    HW128996   6.641   9.291   5.552
75719SOL    HW228997   6.642   9.420   5.631
75720SOL     OW28998  11.544  14.252   6.874
75720SOL    HW128999  11.508  14.261   6.786
75720SOL    HW229000  11.470  14.268   6.932
75721SOL     OW29001   2.983  11.389   7.131
75721SOL    HW129002   2.999  11.472   7.177
75721SOL    HW229003   3.068  11.344   7.132
75722SOL     OW29004   6.567  11.204  13.142
75722SOL    HW129005   6.572  11.140  13.070
75722SOL    HW229006   6.508  11.271  13.109
75723SOL     OW29007  11.706  10.711   0.869
75723SOL    HW129008  11.789  10.683   0.828
75723SOL    HW229009  11.718  10.693   0.962
75724SOL     OW29010  12.109   8.663   5.511
75724SOL    HW129011  12.172   8.731   5.534
75724SOL    HW229012  12.108   8.663   5.415
75725SOL     OW29013   4.293  12.978   6.077
75725SOL    HW129014   4.385  12.954   6.087
75725SOL    HW229015   4.272  13.026   6.158
75726SOL     OW29016   4.584   4.952   3.721
75726SOL    HW129017   4.578   4.891   3.794
75726SOL    HW229018   4.513   4.925   3.662
75727SOL     OW29019   2.497   5.748   2.570
75727SOL    HW129020   2.474   5.783   2.656
75727SOL    HW229021   2.593   5.748   2.570
75728SOL     OW29022  11.266  13.912   0.450
75728SOL    HW129023  11.340  13.965   0.479
75728SOL    HW229024  11.191  13.971   0.454
75729SOL     OW29025   0.642   2.371   3.896
75729SOL    HW129026   0.667   2.357   3.987
75729SOL    HW229027   0.554   2.335   3.890
75730SOL     OW29028   4.007   5.661   1.963
75730SOL    HW129029   3.944   5.638   2.031
75730SOL    HW229030   4.064   5.585   1.956
75731SOL     OW29031   1.460  13.213  10.070
75731SOL    HW129032   1.407  13.141  10.035
75731SOL    HW229033   1.458  13.199  10.165
75732SOL     OW29034   8.995   6.830   8.597
75732SOL    HW129035   8.901   6.823   8.584
75732SOL    HW229036   9.006   6.841   8.691
75733SOL     OW29037  12.900   5.124   1.992
75733SOL    HW129038  12.902   5.073   2.073
75733SOL    HW229039  12.939   5.208   2.015
75734SOL     OW29040   1.930  12.418  14.091
75734SOL    HW129041   2.016  12.389  14.059
75734SOL    HW229042   1.934  12.405  14.186
75735SOL     OW29043   9.121   4.053   9.069
75735SOL    HW129044   9.076   4.117   9.123
75735SOL    HW229045   9.114   3.971   9.117
75736SOL     OW29046   7.014   0.284  14.625
75736SOL    HW129047   7.027   0.205  14.678
75736SOL    HW229048   6.920   0.299  14.627
75737SOL     OW29049  12.865  10.017  11.576
75737SOL    HW129050  12.779  10.030  11.616
75737SOL    HW229051  12.925  10.069  11.630
75738SOL     OW29052   2.508  11.004   9.741
75738SOL    HW129053   2.545  10.916   9.745
75738SOL    HW229054   2.455  11.011   9.821
75739SOL     OW29055   0.585   0.271   4.252
75739SOL    HW129056   0.546   0.184   4.240
75739SOL    HW229057   0.631   0.288   4.170
75740SOL     OW29058  11.458  13.573   5.843
75740SOL    HW129059  11.436  13.634   5.914
75740SOL    HW229060  11.389  13.586   5.778
75741SOL     OW29061   7.387  13.808  12.058
75741SOL    HW129062   7.437  13.776  12.133
75741SOL    HW229063   7.359  13.895  12.084
75742SOL     OW29064  11.450   8.615   4.917
75742SOL    HW129065  11.539   8.608   4.884
75742SOL    HW229066  11.458   8.665   4.998
75743SOL     OW29067   1.030   5.188   5.579
75743SOL    HW129068   1.060   5.279   5.587
75743SOL    HW229069   0.969   5.188   5.506
75744SOL     OW29070  12.932   2.662   1.702
75744SOL    HW129071  12.932   2.567   1.717
75744SOL    HW229072  12.892   2.699   1.780
75745SOL     OW29073  11.320   3.892  10.731
75745SOL    HW129074  11.293   3.844  10.809
75745SOL    HW229075  11.387   3.837  10.691
75746SOL     OW29076   8.150   6.689   3.172
75746SOL    HW129077   8.137   6.663   3.264
75746SOL    HW229078   8.234   6.734   3.172
75747SOL     OW29079  12.184   7.077   2.548
75747SOL    HW129080  12.234   7.134   2.606
75747SOL    HW229081  12.093   7.100   2.565
75748SOL     OW29082   8.861   4.136  12.253
75748SOL    HW129083   8.800   4.184  12.196
75748SOL    HW229084   8.900   4.070  12.195
75749SOL     OW29085  14.258   4.833  11.516
75749SOL    HW129086  14.275   4.880  11.434
75749SOL    HW229087  14.194   4.766  11.492
75750SOL     OW29088  12.533  10.440   4.255
75750SOL    HW129089  12.616  10.485   4.270
75750SOL    HW229090  12.551  10.348   4.274
75751SOL     OW29091  14.562  10.810   8.084
75751SOL    HW129092  14.479  10.765   8.066
75751SOL    HW229093  14.538  10.903   8.086
75752SOL     OW29094   9.394   5.481  14.333
75752SOL    HW129095   9.468   5.427  14.304
75752SOL    HW229096   9.407   5.490  14.427
75753SOL     OW29097   6.095   7.212   2.453
75753SOL    HW129098   6.183   7.211   2.492
75753SOL    HW229099   6.084   7.301   2.422
75754SOL     OW29100   6.531   5.920   6.239
75754SOL    HW129101   6.566   5.941   6.326
75754SOL    HW229102   6.606   5.883   6.192
75755SOL     OW29103  13.932   2.516  11.025
75755SOL    HW129104  13.874   2.584  10.990
75755SOL    HW229105  13.873   2.446  11.053
75756SOL     OW29106   5.365   4.510   8.234
75756SOL    HW129107   5.309   4.549   8.301
75756SOL    HW229108   5.425   4.453   8.283
75757SOL     OW29109  13.846  10.772   3.917
75757SOL    HW129110  13.895  10.810   3.844
75757SOL    HW229111  13.755  10.776   3.889
75758SOL     OW29112   8.408   7.983  14.775
75758SOL    HW129113   8.480   7.920  14.764
75758SOL    HW229114   8.448   8.068  14.758
75759SOL     OW29115  13.602   5.929  12.512
75759SOL    HW129116  13.576   5.931  12.605
75759SOL    HW229117  13.651   6.010  12.500
75760SOL     OW29118   1.798   6.278   6.204
75760SOL    HW129119   1.725   6.241   6.253
75760SOL    HW229120   1.803   6.369   6.233
75761SOL     OW29121   9.220  11.622   4.075
75761SOL    HW129122   9.311  11.591   4.068
75761SOL    HW229123   9.185  11.614   3.987
75762SOL     OW29124   3.813  10.518  10.079
75762SOL    HW129125   3.855  10.594  10.118
75762SOL    HW229126   3.885  10.469  10.038
75763SOL     OW29127   6.842   9.379   0.723
75763SOL    HW129128   6.794   9.312   0.772
75763SOL    HW229129   6.889   9.329   0.656
75764SOL     OW29130   2.869   1.447  10.921
75764SOL    HW129131   2.794   1.474  10.975
75764SOL    HW229132   2.883   1.355  10.944
75765SOL     OW29133   6.168   6.676   4.914
75765SOL    HW129134   6.125   6.751   4.955
75765SOL    HW229135   6.173   6.699   4.821
75766SOL     OW29136   4.800  14.489   1.837
75766SOL    HW129137   4.707  14.468   1.844
75766SOL    HW229138   4.839  14.413   1.794
75767SOL     OW29139  12.179   3.988  13.397
75767SOL    HW129140  12.253   4.046  13.382
75767SOL    HW229141  12.141   4.019  13.479
75768SOL     OW29142  13.402   0.222   2.030
75768SOL    HW129143  13.343   0.171   2.086
75768SOL    HW229144  13.476   0.244   2.087
75769SOL     OW29145  11.511  10.441   6.300
75769SOL    HW129146  11.533  10.371   6.240
75769SOL    HW229147  11.456  10.501   6.249
75770SOL     OW29148   7.210  12.942  10.930
75770SOL    HW129149   7.128  12.975  10.892
75770SOL    HW229150   7.212  12.849  10.908
75771SOL     OW29151   3.420   7.681   9.889
75771SOL    HW129152   3.354   7.654   9.952
75771SOL    HW229153   3.452   7.599   9.850
75772SOL     OW29154   0.643  14.351  13.885
75772SOL    HW129155   0.567  14.309  13.925
75772SOL    HW229156   0.614  14.371  13.796
75773SOL     OW29157  14.047   2.825   8.804
75773SOL    HW129158  13.961   2.829   8.846
75773SOL    HW229159  14.076   2.735   8.818
75774SOL     OW29160  10.359   8.159   9.408
75774SOL    HW129161  10.312   8.089   9.453
75774SOL    HW229162  10.415   8.113   9.346
75775SOL     OW29163  12.444  12.091  11.526
75775SOL    HW129164  12.363  12.058  11.486
75775SOL    HW229165  12.513  12.034  11.492
75776SOL     OW29166   3.274   5.907   2.055
75776SOL    HW129167   3.281   5.955   1.973
75776SOL    HW229168   3.185   5.874   2.056
75777SOL     OW29169   6.725  12.788  12.231
75777SOL    HW129170   6.747  12.720  12.167
75777SOL    HW229171   6.650  12.753  12.279
75778SOL     OW29172  13.352   3.220   8.595
75778SOL    HW129173  13.273   3.210   8.543
75778SOL    HW229174  13.336   3.169   8.675
75779SOL     OW29175   9.127  12.425   7.989
75779SOL    HW129176   9.156  12.446   8.078
75779SOL    HW229177   9.048  12.478   7.977
75780SOL     OW29178   5.049   4.364   8.903
75780SOL    HW129179   4.971   4.320   8.868
75780SOL    HW229180   5.022   4.397   8.988
75781SOL     OW29181  11.637   3.891   3.846
75781SOL    HW129182  11.704   3.953   3.816
75781SOL    HW229183  11.685   3.830   3.902
75782SOL     OW29184   8.289   8.570  10.981
75782SOL    HW129185   8.326   8.657  10.994
75782SOL    HW229186   8.198   8.578  11.008
75783SOL     OW29187   5.954   3.380   5.360
75783SOL    HW129188   5.885   3.411   5.419
75783SOL    HW229189   5.970   3.290   5.388
75784SOL     OW29190   6.482   7.717  13.034
75784SOL    HW129191   6.544   7.777  13.075
75784SOL    HW229192   6.479   7.641  13.092
75785SOL     OW29193   0.041  14.578  11.171
75785SOL    HW129194  14.856  14.520  11.212
75785SOL    HW229195   0.069  14.636  11.242
75786SOL     OW29196   7.313   4.802  12.186
75786SOL    HW129197   7.380   4.736  12.169
75786SOL    HW229198   7.239   4.776  12.132
75787SOL     OW29199   4.684   8.807   3.102
75787SOL    HW129200   4.704   8.757   3.181
75787SOL    HW229201   4.638   8.744   3.046
75788SOL     OW29202  13.908  11.026  12.614
75788SOL    HW129203  13.823  11.042  12.656
75788SOL    HW229204  13.934  10.940  12.645
75789SOL     OW29205  10.715  10.299   3.525
75789SOL    HW129206  10.622  10.280   3.519
75789SOL    HW229207  10.719  10.394   3.540
75790SOL     OW29208   6.665   3.403   9.717
75790SOL    HW129209   6.708   3.335   9.768
75790SOL    HW229210   6.651   3.364   9.631
75791SOL     OW29211  14.429   0.930   7.754
75791SOL    HW129212  14.394   0.869   7.689
75791SOL    HW229213  14.498   0.978   7.709
75792SOL     OW29214   0.508  14.846   3.682
75792SOL    HW129215   0.590   0.013   3.664
75792SOL    HW229216   0.533  14.754   3.686
75793SOL     OW29217  10.494   5.756  11.617
75793SOL    HW129218  10.561   5.692  11.594
75793SOL    HW229219  10.437   5.761  11.540
75794SOL     OW29220   0.298  14.384  13.061
75794SOL    HW129221   0.310  14.292  13.083
75794SOL    HW229222   0.256  14.422  13.139
75795SOL     OW29223   2.666   3.503   1.866
75795SOL    HW129224   2.759   3.507   1.844
75795SOL    HW229225   2.628   3.450   1.797
75796SOL     OW29226   5.301  10.987   7.851
75796SOL    HW129227   5.214  10.954   7.876
75796SOL    HW229228   5.344  11.007   7.934
75797SOL     OW29229   8.552   6.842   2.091
75797SOL    HW129230   8.605   6.860   2.169
75797SOL    HW229231   8.462   6.857   2.121
75798SOL     OW29232   6.373   0.102   6.161
75798SOL    HW129233   6.416   0.029   6.205
75798SOL    HW229234   6.401   0.095   6.070
75799SOL     OW29235   9.993   3.910  11.871
75799SOL    HW129236  10.077   3.947  11.899
75799SOL    HW229237   9.935   3.922  11.946
75800SOL     OW29238   0.012  14.653   9.997
75800SOL    HW129239   0.064  14.635   9.919
75800SOL    HW229240   0.066  14.714  10.048
75801SOL     OW29241  11.193   5.371  14.636
75801SOL    HW129242  11.263   5.373  14.571
75801SOL    HW229243  11.151   5.457  14.629
75802SOL     OW29244   3.174  14.147   1.543
75802SOL    HW129245   3.179  14.052   1.549
75802SOL    HW229246   3.085  14.168   1.573
75803SOL     OW29247   9.722   3.994   7.803
75803SOL    HW129248   9.732   4.010   7.710
75803SOL    HW229249   9.661   3.921   7.809
75804SOL     OW29250   9.476  11.092   6.383
75804SOL    HW129251   9.492  11.009   6.339
75804SOL    HW229252   9.478  11.157   6.313
75805SOL     OW29253   8.613  10.914  14.785
75805SOL    HW129254   8.559  10.953  14.717
75805SOL    HW229255   8.683  10.869  14.738
75806SOL     OW29256   7.067   4.173   8.567
75806SOL    HW129257   7.115   4.144   8.490
75806SOL    HW229258   7.035   4.092   8.607
75807SOL     OW29259   7.240   4.069  11.764
75807SOL    HW129260   7.169   4.018  11.804
75807SOL    HW229261   7.305   4.003  11.740
75808SOL     OW29262   4.802  14.589  11.817
75808SOL    HW129263   4.880  14.595  11.762
75808SOL    HW229264   4.729  14.599  11.756
75809SOL     OW29265   2.642  12.363   6.474
75809SOL    HW129266   2.663  12.434   6.536
75809SOL    HW229267   2.592  12.300   6.526
75810SOL     OW29268  14.548   4.039  12.283
75810SOL    HW129269  14.570   3.949  12.260
75810SOL    HW229270  14.567   4.047  12.376
75811SOL     OW29271  13.763  11.511   9.076
75811SOL    HW129272  13.802  11.425   9.091
75811SOL    HW229273  13.825  11.555   9.018
75812SOL     OW29274   9.824   1.115   8.840
75812SOL    HW129275   9.878   1.076   8.772
75812SOL    HW229276   9.847   1.066   8.919
75813SOL     OW29277  10.014   4.990  12.897
75813SOL    HW129278  10.000   4.970  12.804
75813SOL    HW229279   9.984   5.080  12.907
75814SOL     OW29280   2.454  14.551   1.759
75814SOL    HW129281   2.413  14.536   1.674
75814SOL    HW229282   2.439  14.643   1.777
75815SOL     OW29283   8.215   3.400  12.607
75815SOL    HW129284   8.269   3.417  12.529
75815SOL    HW229285   8.227   3.307  12.625
75816SOL     OW29286  11.087   2.354   8.310
75816SOL    HW129287  11.141   2.357   8.230
75816SOL    HW229288  11.109   2.435   8.356
75817SOL     OW29289   0.692   7.578   8.807
75817SOL    HW129290   0.715   7.492   8.842
75817SOL    HW229291   0.755   7.593   8.737
75818SOL     OW29292   1.359   2.750   1.650
75818SOL    HW129293   1.442   2.701   1.645
75818SOL    HW229294   1.312   2.726   1.570
75819SOL     OW29295   9.887   5.071   7.463
75819SOL    HW129296   9.882   5.033   7.375
75819SOL    HW229297   9.907   5.163   7.448
75820SOL     OW29298   2.195   5.179   6.517
75820SOL    HW129299   2.127   5.203   6.580
75820SOL    HW229300   2.277   5.182   6.566
75821SOL     OW29301   0.257   5.361   0.143
75821SOL    HW129302   0.321   5.397   0.204
75821SOL    HW229303   0.305   5.350   0.061
75822SOL     OW29304   4.081   2.032   0.546
75822SOL    HW129305   4.066   2.079   0.464
75822SOL    HW229306   3.994   2.013   0.579
75823SOL     OW29307   7.909  14.066  10.799
75823SOL    HW129308   7.896  13.972  10.805
75823SOL    HW229309   7.859  14.094  10.722
75824SOL     OW29310   0.606  14.830   2.031
75824SOL    HW129311   0.700  14.813   2.031
75824SOL    HW229312   0.582  14.830   2.123
75825SOL     OW29313   8.997  14.268   3.337
75825SOL    HW129314   8.969  14.200   3.398
75825SOL    HW229315   8.921  14.284   3.282
75826SOL     OW29316   2.010   3.617  11.688
75826SOL    HW129317   1.937   3.663  11.729
75826SOL    HW229318   2.036   3.672  11.615
75827SOL     OW29319   9.482   0.799   0.159
75827SOL    HW129320   9.518   0.713   0.135
75827SOL    HW229321   9.389   0.792   0.139
75828SOL     OW29322   5.081   9.106   3.435
75828SOL    HW129323   5.104   9.078   3.346
75828SOL    HW229324   5.162   9.098   3.485
75829SOL     OW29325  14.735  10.043  10.898
75829SOL    HW129326  14.797  10.108  10.931
75829SOL    HW229327  14.651  10.071  10.934
75830SOL     OW29328   3.072   2.094   6.857
75830SOL    HW129329   3.115   2.087   6.772
75830SOL    HW229330   3.032   2.181   6.857
75831SOL     OW29331  10.390   5.722  12.157
75831SOL    HW129332  10.417   5.659  12.224
75831SOL    HW229333  10.383   5.805  12.205
75832SOL     OW29334   8.815   3.620   5.600
75832SOL    HW129335   8.761   3.594   5.675
75832SOL    HW229336   8.904   3.628   5.635
75833SOL     OW29337   3.545   9.718   7.982
75833SOL    HW129338   3.603   9.662   8.034
75833SOL    HW229339   3.488   9.656   7.936
75834SOL     OW29340   8.075   2.502   1.247
75834SOL    HW129341   8.101   2.482   1.157
75834SOL    HW229342   8.138   2.453   1.301
75835SOL     OW29343   0.967   6.085   4.494
75835SOL    HW129344   0.899   6.021   4.514
75835SOL    HW229345   0.995   6.119   4.579
75836SOL     OW29346  10.877  14.576   4.643
75836SOL    HW129347  10.816  14.605   4.710
75836SOL    HW229348  10.830  14.507   4.596
75837SOL     OW29349  10.994   6.577   7.015
75837SOL    HW129350  10.928   6.632   7.058
75837SOL    HW229351  11.056   6.640   6.978
75838SOL     OW29352   1.920   7.091  12.830
75838SOL    HW129353   1.883   7.090  12.741
75838SOL    HW229354   1.852   7.052  12.885
75839SOL     OW29355   7.959  12.872  12.884
75839SOL    HW129356   7.920  12.859  12.970
75839SOL    HW229357   7.915  12.949  12.848
75840SOL     OW29358   1.151   7.651   7.097
75840SOL    HW129359   1.161   7.649   7.192
75840SOL    HW229360   1.218   7.592   7.064
75841SOL     OW29361   4.898  12.444  11.536
75841SOL    HW129362   4.956  12.515  11.561
75841SOL    HW229363   4.875  12.464  11.445
75842SOL     OW29364  14.423   3.002   1.141
75842SOL    HW129365  14.363   2.940   1.101
75842SOL    HW229366  14.367   3.058   1.195
75843SOL     OW29367   5.382   1.193   0.694
75843SOL    HW129368   5.454   1.246   0.728
75843SOL    HW229369   5.400   1.187   0.600
75844SOL     OW29370   6.544  12.598   1.719
75844SOL    HW129371   6.452  12.581   1.700
75844SOL    HW229372   6.571  12.661   1.651
75845SOL     OW29373   8.452   6.095   0.135
75845SOL    HW129374   8.429   6.063   0.222
75845SOL    HW229375   8.415   6.031   0.075
75846SOL     OW29376   8.050   0.007  12.178
75846SOL    HW129377   8.111  14.850  12.241
75846SOL    HW229378   8.081   0.097  12.164
75847SOL     OW29379  11.297   9.725   6.516
75847SOL    HW129380  11.306   9.804   6.570
75847SOL    HW229381  11.284   9.654   6.579
75848SOL     OW29382   9.904   6.393  14.733
75848SOL    HW129383   9.898   6.318  14.792
75848SOL    HW229384   9.924   6.355  14.648
75849SOL     OW29385  13.212   4.952   2.428
75849SOL    HW129386  13.292   4.979   2.382
75849SOL    HW229387  13.200   4.860   2.403
75850SOL     OW29388  10.960  11.540   9.637
75850SOL    HW129389  10.899  11.507   9.703
75850SOL    HW229390  10.930  11.500   9.555
75851SOL     OW29391   6.890   4.404   9.548
75851SOL    HW129392   6.983   4.387   9.530
75851SOL    HW229393   6.855   4.318   9.571
75852SOL     OW29394   3.941  11.166   2.742
75852SOL    HW129395   3.978  11.227   2.679
75852SOL    HW229396   3.962  11.203   2.828
75853SOL     OW29397   7.800   6.339  11.754
75853SOL    HW129398   7.818   6.245  11.752
75853SOL    HW229399   7.832   6.368  11.839
75854SOL     OW29400  11.927  10.586   8.915
75854SOL    HW129401  11.852  10.610   8.970
75854SOL    HW229402  11.922  10.644   8.840
75855SOL     OW29403  12.229   1.129   6.007
75855SOL    HW129404  12.154   1.070   6.014
75855SOL    HW229405  12.277   1.118   6.088
75856SOL     OW29406   3.748   0.533   6.884
75856SOL    HW129407   3.766   0.587   6.961
75856SOL    HW229408   3.749   0.594   6.811
75857SOL     OW29409   1.686   0.660   2.991
75857SOL    HW129410   1.770   0.650   3.035
75857SOL    HW229411   1.660   0.751   3.007
75858SOL     OW29412   4.185   7.843   0.098
75858SOL    HW129413   4.183   7.820   0.191
75858SOL    HW229414   4.271   7.882   0.085
75859SOL     OW29415  14.728   6.332   3.933
75859SOL    HW129416  14.793   6.312   3.866
75859SOL    HW229417  14.687   6.414   3.904
75860SOL     OW29418   0.403  11.771  10.080
75860SOL    HW129419   0.342  11.706  10.114
75860SOL    HW229420   0.476  11.720  10.046
75861SOL     OW29421  10.076   4.302   8.558
75861SOL    HW129422  10.022   4.307   8.480
75861SOL    HW229423  10.151   4.248   8.532
75862SOL     OW29424   3.576  14.711   6.851
75862SOL    HW129425   3.504  14.668   6.896
75862SOL    HW229426   3.534  14.762   6.782
75863SOL     OW29427   4.181   1.634  11.119
75863SOL    HW129428   4.180   1.538  11.123
75863SOL    HW229429   4.255   1.655  11.062
75864SOL     OW29430   1.124   8.021   9.575
75864SOL    HW129431   1.147   8.068   9.494
75864SOL    HW229432   1.160   7.933   9.563
75865SOL     OW29433  10.888  14.058   1.699
75865SOL    HW129434  10.906  13.989   1.762
75865SOL    HW229435  10.860  14.132   1.752
75866SOL     OW29436   6.148  12.161  14.616
75866SOL    HW129437   6.151  12.092  14.550
75866SOL    HW229438   6.239  12.190  14.623
75867SOL     OW29439   0.788  10.523  10.482
75867SOL    HW129440   0.702  10.514  10.440
75867SOL    HW229441   0.807  10.616  10.476
75868SOL     OW29442  10.451   6.441   4.612
75868SOL    HW129443  10.446   6.382   4.687
75868SOL    HW229444  10.431   6.386   4.536
75869SOL     OW29445   7.868  11.627   9.554
75869SOL    HW129446   7.816  11.690   9.505
75869SOL    HW229447   7.913  11.576   9.486
75870SOL     OW29448  11.816  14.271  14.428
75870SOL    HW129449  11.734  14.290  14.384
75870SOL    HW229450  11.790  14.236  14.513
75871SOL     OW29451  10.353   2.762   6.636
75871SOL    HW129452  10.429   2.818   6.648
75871SOL    HW229453  10.281   2.809   6.676
75872SOL     OW29454   9.458  12.196   6.603
75872SOL    HW129455   9.364  12.209   6.613
75872SOL    HW229456   9.469  12.178   6.509
75873SOL     OW29457   5.666   5.309  12.556
75873SOL    HW129458   5.614   5.385  12.582
75873SOL    HW229459   5.604   5.252  12.512
75874SOL     OW29460   2.307   9.133  10.429
75874SOL    HW129461   2.378   9.089  10.384
75874SOL    HW229462   2.251   9.166  10.359
75875SOL     OW29463  12.301   2.359  13.983
75875SOL    HW129464  12.322   2.368  13.890
75875SOL    HW229465  12.361   2.419  14.027
75876SOL     OW29466  13.563   9.202   8.854
75876SOL    HW129467  13.532   9.292   8.847
75876SOL    HW229468  13.658   9.210   8.859
75877SOL     OW29469   0.399  10.562   1.585
75877SOL    HW129470   0.469  10.544   1.523
75877SOL    HW229471   0.425  10.516   1.665
75878SOL     OW29472   6.794   0.007   4.585
75878SOL    HW129473   6.863  14.858   4.525
75878SOL    HW229474   6.715   0.009   4.530
75879SOL     OW29475   3.231  12.702   4.682
75879SOL    HW129476   3.190  12.785   4.707
75879SOL    HW229477   3.312  12.728   4.638
75880SOL     OW29478   9.882   7.165  10.672
75880SOL    HW129479   9.868   7.102  10.742
75880SOL    HW229480   9.881   7.250  10.715
75881SOL     OW29481   8.060  11.295   5.886
75881SOL    HW129482   8.119  11.315   5.958
75881SOL    HW229483   7.973  11.297   5.924
75882SOL     OW29484   5.594   9.967   1.945
75882SOL    HW129485   5.580  10.058   1.921
75882SOL    HW229486   5.603   9.967   2.040
75883SOL     OW29487   5.546   1.348   6.010
75883SOL    HW129488   5.569   1.255   6.015
75883SOL    HW229489   5.497   1.356   5.928
75884SOL     OW29490   2.325  14.482   2.987
75884SOL    HW129491   2.327  14.457   2.895
75884SOL    HW229492   2.380  14.417   3.031
75885SOL     OW29493  12.942  10.320   5.605
75885SOL    HW129494  12.943  10.393   5.667
75885SOL    HW229495  13.025  10.328   5.558
75886SOL     OW29496   5.203  14.051   0.844
75886SOL    HW129497   5.143  14.123   0.867
75886SOL    HW229498   5.158  14.005   0.774
75887SOL     OW29499   0.160  13.963   5.106
75887SOL    HW129500   0.084  13.954   5.048
75887SOL    HW229501   0.225  13.902   5.069
75888SOL     OW29502  10.066   9.827   9.910
75888SOL    HW129503  10.097   9.771   9.981
75888SOL    HW229504  10.145   9.845   9.858
75889SOL     OW29505   0.220   0.003   9.757
75889SOL    HW129506   0.202   0.052   9.676
75889SOL    HW229507   0.175  14.799   9.744
75890SOL     OW29508   1.619   7.249   2.997
75890SOL    HW129509   1.535   7.294   2.988
75890SOL    HW229510   1.597   7.160   3.024
75891SOL     OW29511  12.470   3.875   0.315
75891SOL    HW129512  12.466   3.871   0.219
75891SOL    HW229513  12.475   3.783   0.342
75892SOL     OW29514   0.601   8.797   0.108
75892SOL    HW129515   0.555   8.723   0.146
75892SOL    HW229516   0.676   8.759   0.062
75893SOL     OW29517  11.435   1.038   4.931
75893SOL    HW129518  11.473   1.126   4.934
75893SOL    HW229519  11.391   1.028   5.015
75894SOL     OW29520   3.472   1.718   1.940
75894SOL    HW129521   3.516   1.674   2.013
75894SOL    HW229522   3.412   1.780   1.983
75895SOL     OW29523  12.542  11.738  14.080
75895SOL    HW129524  12.608  11.708  14.018
75895SOL    HW229525  12.558  11.687  14.159
75896SOL     OW29526   3.845  11.476   3.965
75896SOL    HW129527   3.819  11.476   4.057
75896SOL    HW229528   3.929  11.521   3.963
75897SOL     OW29529   9.859   7.750   2.463
75897SOL    HW129530   9.857   7.841   2.433
75897SOL    HW229531   9.946   7.741   2.504
75898SOL     OW29532  12.459  14.314  11.934
75898SOL    HW129533  12.426  14.304  12.024
75898SOL    HW229534  12.420  14.395  11.904
75899SOL     OW29535   6.353  12.753   4.448
75899SOL    HW129536   6.410  12.678   4.435
75899SOL    HW229537   6.265  12.721   4.429
75900SOL     OW29538   4.859   4.600   4.224
75900SOL    HW129539   4.902   4.593   4.139
75900SOL    HW229540   4.924   4.569   4.287
75901SOL     OW29541   4.385   6.123  14.823
75901SOL    HW129542   4.381   6.206  14.869
75901SOL    HW229543   4.425   6.143  14.739
75902SOL     OW29544   3.207   8.512  11.027
75902SOL    HW129545   3.189   8.446  11.094
75902SOL    HW229546   3.121   8.549  11.006
75903SOL     OW29547   0.988   4.182  10.888
75903SOL    HW129548   0.915   4.121  10.887
75903SOL    HW229549   0.964   4.249  10.824
75904SOL     OW29550   4.559  14.661   7.847
75904SOL    HW129551   4.537  14.570   7.867
75904SOL    HW229552   4.526  14.675   7.759
75905SOL     OW29553   2.796   8.988   4.655
75905SOL    HW129554   2.787   8.958   4.745
75905SOL    HW229555   2.708   9.014   4.629
75906SOL     OW29556   9.895   0.012   8.207
75906SOL    HW129557   9.855  14.861   8.288
75906SOL    HW229558   9.967   0.068   8.235
75907SOL     OW29559   1.950  10.314   6.158
75907SOL    HW129560   1.879  10.334   6.219
75907SOL    HW229561   1.982  10.228   6.186
75908SOL     OW29562   2.947  11.269   2.258
75908SOL    HW129563   2.996  11.201   2.303
75908SOL    HW229564   2.937  11.236   2.168
75909SOL     OW29565   7.223   0.444   3.178
75909SOL    HW129566   7.280   0.521   3.182
75909SOL    HW229567   7.153   0.468   3.118
75910SOL     OW29568  12.813   0.590  12.003
75910SOL    HW129569  12.802   0.616  11.912
75910SOL    HW229570  12.800   0.671  12.053
75911SOL     OW29571  10.206  10.423  12.702
75911SOL    HW129572  10.124  10.471  12.700
75911SOL    HW229573  10.208  10.375  12.618
75912SOL     OW29574   8.967   4.533  10.128
75912SOL    HW129575   8.907   4.510  10.057
75912SOL    HW229576   9.039   4.471  10.120
75913SOL     OW29577   4.609   8.519   9.120
75913SOL    HW129578   4.669   8.455   9.159
75913SOL    HW229579   4.524   8.499   9.160
75914SOL     OW29580   9.327   3.962   5.352
75914SOL    HW129581   9.323   4.057   5.363
75914SOL    HW229582   9.420   3.942   5.347
75915SOL     OW29583  14.293   3.851   4.418
75915SOL    HW129584  14.309   3.773   4.471
75915SOL    HW229585  14.376   3.867   4.373
75916SOL     OW29586  11.286   3.747   6.878
75916SOL    HW129587  11.282   3.771   6.785
75916SOL    HW229588  11.380   3.750   6.899
75917SOL     OW29589   5.636   1.233  11.480
75917SOL    HW129590   5.545   1.262  11.484
75917SOL    HW229591   5.666   1.238  11.570
75918SOL     OW29592   4.481   7.523  13.952
75918SOL    HW129593   4.576   7.527  13.960
75918SOL    HW229594   4.460   7.429  13.951
75919SOL     OW29595   7.112   2.504  14.222
75919SOL    HW129596   7.159   2.469  14.146
75919SOL    HW229597   7.181   2.539  14.278
75920SOL     OW29598   2.378   3.323  14.851
75920SOL    HW129599   2.470   3.308  14.874
75920SOL    HW229600   2.331   3.318   0.054
75921SOL     OW29601  13.198  14.164   2.655
75921SOL    HW129602  13.225  14.076   2.627
75921SOL    HW229603  13.217  14.166   2.748
75922SOL     OW29604   9.940   3.931   4.138
75922SOL    HW129605   9.896   4.015   4.125
75922SOL    HW229606  10.032   3.953   4.150
75923SOL     OW29607   9.008   5.781  12.729
75923SOL    HW129608   9.065   5.720  12.775
75923SOL    HW229609   8.970   5.835  12.798
75924SOL     OW29610   1.771   4.523   8.319
75924SOL    HW129611   1.774   4.618   8.329
75924SOL    HW229612   1.691   4.507   8.269
75925SOL     OW29613  14.770   8.987   7.705
75925SOL    HW129614  14.828   9.040   7.650
75925SOL    HW229615  14.790   8.897   7.682
75926SOL     OW29616   8.305   4.582   5.259
75926SOL    HW129617   8.324   4.605   5.350
75926SOL    HW229618   8.285   4.666   5.218
75927SOL     OW29619   1.991   6.284   5.995
75927SOL    HW129620   2.039   6.346   6.050
75927SOL    HW229621   1.911   6.265   6.044
75928SOL     OW29622   9.064   9.850   2.261
75928SOL    HW129623   9.050   9.931   2.212
75928SOL    HW229624   8.989   9.844   2.321
75929SOL     OW29625   9.370   2.617  14.048
75929SOL    HW129626   9.345   2.666  14.126
75929SOL    HW229627   9.436   2.554  14.079
75930SOL     OW29628  12.988   3.314  10.453
75930SOL    HW129629  13.011   3.405  10.433
75930SOL    HW229630  12.909   3.321  10.506
75931SOL     OW29631   7.760   1.453  11.154
75931SOL    HW129632   7.793   1.399  11.083
75931SOL    HW229633   7.821   1.527  11.158
75932SOL     OW29634   1.544  10.920   0.090
75932SOL    HW129635   1.571  10.961   0.008
75932SOL    HW229636   1.499  10.990   0.138
75933SOL     OW29637   6.276   5.421   5.888
75933SOL    HW129638   6.345   5.476   5.923
75933SOL    HW229639   6.319   5.368   5.821
75934SOL     OW29640   6.133   1.220   0.182
75934SOL    HW129641   6.093   1.294   0.226
75934SOL    HW229642   6.201   1.190   0.242
75935SOL     OW29643   4.455   5.230   9.868
75935SOL    HW129644   4.507   5.199   9.794
75935SOL    HW229645   4.516   5.282   9.920
75936SOL     OW29646   4.516  12.114  13.719
75936SOL    HW129647   4.552  12.159  13.796
75936SOL    HW229648   4.563  12.153  13.645
75937SOL     OW29649   5.680   3.269   8.276
75937SOL    HW129650   5.628   3.326   8.219
75937SOL    HW229651   5.616   3.216   8.323
75938SOL     OW29652   8.633   8.759   8.387
75938SOL    HW129653   8.712   8.800   8.421
75938SOL    HW229654   8.624   8.679   8.438
75939SOL     OW29655   9.214   3.625   1.252
75939SOL    HW129656   9.144   3.624   1.187
75939SOL    HW229657   9.169   3.611   1.335
75940SOL     OW29658   1.206  10.859   4.001
75940SOL    HW129659   1.240  10.870   4.090
75940SOL    HW229660   1.283  10.839   3.948
75941SOL     OW29661   0.918   3.138   9.159
75941SOL    HW129662   0.926   3.219   9.210
75941SOL    HW229663   0.890   3.073   9.223
75942SOL     OW29664   4.766  13.286   1.191
75942SOL    HW129665   4.705  13.307   1.261
75942SOL    HW229666   4.852  13.310   1.227
75943SOL     OW29667   1.008   4.755  13.678
75943SOL    HW129668   0.939   4.693  13.699
75943SOL    HW229669   1.077   4.737  13.742
75944SOL     OW29670   3.199   6.902   6.900
75944SOL    HW129671   3.115   6.947   6.889
75944SOL    HW229672   3.265   6.969   6.882
75945SOL     OW29673  10.851  10.788  12.106
75945SOL    HW129674  10.765  10.830  12.102
75945SOL    HW229675  10.862  10.765  12.198
75946SOL     OW29676   4.387   4.901   2.431
75946SOL    HW129677   4.445   4.898   2.506
75946SOL    HW229678   4.376   4.995   2.412
75947SOL     OW29679   6.800   5.310   5.019
75947SOL    HW129680   6.751   5.276   4.944
75947SOL    HW229681   6.882   5.343   4.982
75948SOL     OW29682  14.814  13.816  10.585
75948SOL    HW129683  14.780  13.727  10.586
75948SOL    HW229684   0.021  13.809  10.544
75949SOL     OW29685  11.201   1.177  13.600
75949SOL    HW129686  11.171   1.251  13.548
75949SOL    HW229687  11.124   1.150  13.650
75950SOL     OW29688  14.520   1.230  10.601
75950SOL    HW129689  14.520   1.253  10.694
75950SOL    HW229690  14.598   1.272  10.566
75951SOL     OW29691  10.457  11.496   6.962
75951SOL    HW129692  10.508  11.416   6.969
75951SOL    HW229693  10.422  11.510   7.050
75952SOL     OW29694  12.649  12.864   1.682
75952SOL    HW129695  12.664  12.954   1.713
75952SOL    HW229696  12.606  12.821   1.756
75953SOL     OW29697  11.828   0.650  13.721
75953SOL    HW129698  11.808   0.560  13.746
75953SOL    HW229699  11.921   0.661  13.742
75954SOL     OW29700  14.720  14.278   7.341
75954SOL    HW129701  14.683  14.363   7.366
75954SOL    HW229702  14.716  14.278   7.246
75955SOL     OW29703   2.818   5.776   8.386
75955SOL    HW129704   2.897   5.739   8.426
75955SOL    HW229705   2.747   5.727   8.427
75956SOL     OW29706   2.225  13.689  14.523
75956SOL    HW129707   2.239  13.684  14.429
75956SOL    HW229708   2.311  13.672  14.562
75957SOL     OW29709   8.401   5.393  11.288
75957SOL    HW129710   8.444   5.414  11.372
75957SOL    HW229711   8.383   5.479  11.249
75958SOL     OW29712   4.665   8.354   7.348
75958SOL    HW129713   4.610   8.420   7.390
75958SOL    HW229714   4.716   8.403   7.283
75959SOL     OW29715  10.556   6.152   1.124
75959SOL    HW129716  10.585   6.104   1.202
75959SOL    HW229717  10.609   6.231   1.125
75960SOL     OW29718  12.204   0.541  10.100
75960SOL    HW129719  12.207   0.476  10.030
75960SOL    HW229720  12.203   0.489  10.180
75961SOL     OW29721   4.485  14.001   5.432
75961SOL    HW129722   4.447  14.032   5.514
75961SOL    HW229723   4.531  13.921   5.456
75962SOL     OW29724  13.745   6.697  12.683
75962SOL    HW129725  13.718   6.636  12.615
75962SOL    HW229726  13.814   6.650  12.731
75963SOL     OW29727   1.461   7.775  10.972
75963SOL    HW129728   1.474   7.710  11.041
75963SOL    HW229729   1.542   7.825  10.970
75964SOL     OW29730   9.374   9.083  13.647
75964SOL    HW129731   9.344   9.041  13.566
75964SOL    HW229732   9.315   9.158  13.659
75965SOL     OW29733   9.607   4.024   8.190
75965SOL    HW129734   9.554   3.946   8.206
75965SOL    HW229735   9.554   4.078   8.132
75966SOL     OW29736   7.408  11.973   7.054
75966SOL    HW129737   7.313  11.964   7.062
75966SOL    HW229738   7.438  11.987   7.144
75967SOL     OW29739   4.816   9.114   5.231
75967SOL    HW129740   4.910   9.099   5.224
75967SOL    HW229741   4.793   9.167   5.155
75968SOL     OW29742  10.779   1.192   1.615
75968SOL    HW129743  10.866   1.172   1.650
75968SOL    HW229744  10.794   1.211   1.522
75969SOL     OW29745   0.482   0.069   0.179
75969SOL    HW129746   0.423   0.077   0.253
75969SOL    HW229747   0.568   0.054   0.218
75970SOL     OW29748   0.125  10.186   5.002
75970SOL    HW129749   0.038  10.154   4.977
75970SOL    HW229750   0.117  10.281   5.000
75971SOL     OW29751  12.266   2.220   0.326
75971SOL    HW129752  12.193   2.255   0.275
75971SOL    HW229753  12.233   2.136   0.359
75972SOL     OW29754  10.762   4.673   5.914
75972SOL    HW129755  10.813   4.753   5.929
75972SOL    HW229756  10.711   4.692   5.835
75973SOL     OW29757   5.716   8.207   3.820
75973SOL    HW129758   5.721   8.112   3.810
75973SOL    HW229759   5.700   8.240   3.732
75974SOL     OW29760   1.429   9.835   6.978
75974SOL    HW129761   1.429   9.874   7.065
75974SOL    HW229762   1.494   9.885   6.929
75975SOL     OW29763  11.864   7.670   4.987
75975SOL    HW129764  11.791   7.731   4.974
75975SOL    HW229765  11.855   7.641   5.078
75976SOL     OW29766   0.740   7.787  11.173
75976SOL    HW129767   0.692   7.869  11.186
75976SOL    HW229768   0.726   7.739  11.255
75977SOL     OW29769  13.557   9.774   9.249
75977SOL    HW129770  13.645   9.774   9.212
75977SOL    HW229771  13.528   9.684   9.243
75978SOL     OW29772   4.945   8.425   4.982
75978SOL    HW129773   4.938   8.395   5.073
75978SOL    HW229774   4.980   8.349   4.935
75979SOL     OW29775   5.981   1.791   3.990
75979SOL    HW129776   5.886   1.800   3.993
75979SOL    HW229777   6.014   1.870   4.033
75980SOL     OW29778   5.446   9.227  14.687
75980SOL    HW129779   5.378   9.161  14.674
75980SOL    HW229780   5.415   9.303  14.637
75981SOL     OW29781   6.918   4.565   2.550
75981SOL    HW129782   6.902   4.527   2.637
75981SOL    HW229783   6.976   4.639   2.567
75982SOL     OW29784   3.627  13.226   2.422
75982SOL    HW129785   3.680  13.302   2.444
75982SOL    HW229786   3.540  13.246   2.456
75983SOL     OW29787  13.690   3.023   8.762
75983SOL    HW129788  13.734   2.998   8.843
75983SOL    HW229789  13.711   2.953   8.700
75984SOL     OW29790   9.213   8.861   5.356
75984SOL    HW129791   9.194   8.845   5.449
75984SOL    HW229792   9.224   8.956   5.350
75985SOL     OW29793  10.949  13.911   5.781
75985SOL    HW129794  10.887  13.973   5.743
75985SOL    HW229795  11.010  13.965   5.831
75986SOL     OW29796  10.459   6.115   5.083
75986SOL    HW129797  10.483   6.162   5.163
75986SOL    HW229798  10.413   6.037   5.114
75987SOL     OW29799  14.873   8.181   0.170
75987SOL    HW129800  14.779   8.203   0.168
75987SOL    HW229801  14.876   8.097   0.216
75988SOL     OW29802   3.282  12.448  11.721
75988SOL    HW129803   3.288  12.475  11.812
75988SOL    HW229804   3.188  12.446  11.703
75989SOL     OW29805  14.772   0.054   7.984
75989SOL    HW129806  14.849   0.036   7.932
75989SOL    HW229807  14.716  14.857   7.973
75990SOL     OW29808   2.085  13.310   4.504
75990SOL    HW129809   2.042  13.395   4.506
75990SOL    HW229810   2.118  13.302   4.414
75991SOL     OW29811   8.347  12.884   0.499
75991SOL    HW129812   8.424  12.891   0.555
75991SOL    HW229813   8.296  12.963   0.519
75992SOL     OW29814  13.802   7.572   0.523
75992SOL    HW129815  13.730   7.630   0.499
75992SOL    HW229816  13.850   7.621   0.590
75993SOL     OW29817  10.815   7.415   9.934
75993SOL    HW129818  10.777   7.499   9.959
75993SOL    HW229819  10.883   7.398  10.000
75994SOL     OW29820   0.734  12.282   5.860
75994SOL    HW129821   0.659  12.338   5.878
75994SOL    HW229822   0.698  12.204   5.819
75995SOL     OW29823   5.870   9.181   0.790
75995SOL    HW129824   5.959   9.201   0.759
75995SOL    HW229825   5.813   9.237   0.737
75996SOL     OW29826  13.834   2.391   3.944
75996SOL    HW129827  13.795   2.460   3.890
75996SOL    HW229828  13.833   2.313   3.889
75997SOL     OW29829   1.457   7.463   9.131
75997SOL    HW129830   1.381   7.511   9.162
75997SOL    HW229831   1.530   7.497   9.183
75998SOL     OW29832   5.924   5.138   6.211
75998SOL    HW129833   6.018   5.148   6.195
75998SOL    HW229834   5.908   5.186   6.292
75999SOL     OW29835   8.273   6.294  12.242
75999SOL    HW129836   8.239   6.207  12.262
75999SOL    HW229837   8.317   6.284  12.157
76000SOL     OW29838  11.320  10.785  10.803
76000SOL    HW129839  11.238  10.829  10.827
76000SOL    HW229840  11.360  10.763  10.887
76001SOL     OW29841   1.983   3.591  13.798
76001SOL    HW129842   1.895   3.617  13.827
76001SOL    HW229843   1.970   3.562  13.708
76002SOL     OW29844   1.093   0.603   9.643
76002SOL    HW129845   1.180   0.627   9.613
76002SOL    HW229846   1.084   0.511   9.619
76003SOL     OW29847   4.967  11.250   5.687
76003SOL    HW129848   4.939  11.321   5.629
76003SOL    HW229849   5.053  11.225   5.655
76004SOL     OW29850  13.643   6.936   3.921
76004SOL    HW129851  13.571   6.997   3.905
76004SOL    HW229852  13.700   6.980   3.983
76005SOL     OW29853   5.173  11.728   2.844
76005SOL    HW129854   5.082  11.722   2.815
76005SOL    HW229855   5.201  11.816   2.818
76006SOL     OW29856  10.921   9.710   2.096
76006SOL    HW129857  10.904   9.795   2.137
76006SOL    HW229858  11.015   9.696   2.110
76007SOL     OW29859  14.505   2.713   4.844
76007SOL    HW129860  14.549   2.677   4.766
76007SOL    HW229861  14.498   2.639   4.904
76008SOL     OW29862  13.376   6.369   7.886
76008SOL    HW129863  13.290   6.390   7.922
76008SOL    HW229864  13.431   6.445   7.905
76009SOL     OW29865   5.629   1.696  14.494
76009SOL    HW129866   5.656   1.785  14.518
76009SOL    HW229867   5.630   1.697  14.398
76010SOL     OW29868   9.485   6.115   3.644
76010SOL    HW129869   9.520   6.028   3.625
76010SOL    HW229870   9.541   6.148   3.714
76011SOL     OW29871   6.792   0.129   3.374
76011SOL    HW129872   6.836   0.172   3.301
76011SOL    HW229873   6.860   0.075   3.414
76012SOL     OW29874  10.728   6.368  11.010
76012SOL    HW129875  10.672   6.290  11.002
76012SOL    HW229876  10.791   6.345  11.078
76013SOL     OW29877   6.722  11.962  10.736
76013SOL    HW129878   6.658  11.892  10.747
76013SOL    HW229879   6.670  12.037  10.706
76014SOL     OW29880   6.147   5.129   4.761
76014SOL    HW129881   6.150   5.222   4.737
76014SOL    HW229882   6.140   5.130   4.857
76015SOL     OW29883   4.966  12.297  12.807
76015SOL    HW129884   5.048  12.313  12.760
76015SOL    HW229885   4.898  12.327  12.747
76016SOL     OW29886   3.208   5.054  14.768
76016SOL    HW129887   3.118   5.034  14.744
76016SOL    HW229888   3.210   5.045  14.863
76017SOL     OW29889  11.952  12.723   0.567
76017SOL    HW129890  11.982  12.714   0.476
76017SOL    HW229891  11.910  12.639   0.586
76018SOL     OW29892  13.008   6.990   0.282
76018SOL    HW129893  13.038   6.910   0.325
76018SOL    HW229894  13.066   7.058   0.316
76019SOL     OW29895   6.319   2.511  10.547
76019SOL    HW129896   6.282   2.423  10.554
76019SOL    HW229897   6.293   2.554  10.629
76020SOL     OW29898  14.174   2.977  11.182
76020SOL    HW129899  14.109   2.936  11.125
76020SOL    HW229900  14.128   3.051  11.223
76021SOL     OW29901   8.110   8.884   0.735
76021SOL    HW129902   8.116   8.976   0.713
76021SOL    HW229903   8.120   8.838   0.652
76022SOL     OW29904   0.285   5.420  12.276
76022SOL    HW129905   0.301   5.501  12.323
76022SOL    HW229906   0.343   5.356  12.317
76023SOL     OW29907   1.866  11.473   4.375
76023SOL    HW129908   1.860  11.439   4.285
76023SOL    HW229909   1.894  11.564   4.365
76024SOL     OW29910   3.637   9.219   9.124
76024SOL    HW129911   3.673   9.287   9.181
76024SOL    HW229912   3.637   9.140   9.179
76025SOL     OW29913   1.610   8.740   7.003
76025SOL    HW129914   1.625   8.646   6.993
76025SOL    HW229915   1.676   8.781   6.947
76026SOL     OW29916  12.144   0.844   4.961
76026SOL    HW129917  12.118   0.885   4.879
76026SOL    HW229918  12.172   0.756   4.936
76027SOL     OW29919   2.482   9.487   3.274
76027SOL    HW129920   2.410   9.424   3.283
76027SOL    HW229921   2.561   9.434   3.271
76028SOL     OW29922   2.336  14.854  13.477
76028SOL    HW129923   2.247   0.007  13.464
76028SOL    HW229924   2.329  14.760  13.465
76029SOL     OW29925   8.292  11.092   7.882
76029SOL    HW129926   8.260  11.006   7.855
76029SOL    HW229927   8.213  11.145   7.892
76030SOL     OW29928   3.687   2.930  13.609
76030SOL    HW129929   3.730   2.846  13.623
76030SOL    HW229930   3.637   2.944  13.690
76031SOL     OW29931   5.833   6.766   7.904
76031SOL    HW129932   5.838   6.811   7.989
76031SOL    HW229933   5.774   6.693   7.920
76032SOL     OW29934  11.378   8.530  11.044
76032SOL    HW129935  11.444   8.493  10.985
76032SOL    HW229936  11.414   8.517  11.131
76033SOL     OW29937   4.492   4.344   0.233
76033SOL    HW129938   4.553   4.352   0.159
76033SOL    HW229939   4.409   4.319   0.193
76034SOL     OW29940   1.632  11.422  13.717
76034SOL    HW129941   1.637  11.417  13.812
76034SOL    HW229942   1.547  11.386  13.695
76035SOL     OW29943   1.143  13.737   8.969
76035SOL    HW129944   1.168  13.829   8.971
76035SOL    HW229945   1.047  13.738   8.967
76036SOL     OW29946  13.461   5.490  14.866
76036SOL    HW129947  13.499   5.553   0.047
76036SOL    HW229948  13.402   5.541  14.812
76037SOL     OW29949   9.103   0.621   4.788
76037SOL    HW129950   9.167   0.634   4.718
76037SOL    HW229951   9.104   0.527   4.804
76038SOL     OW29952  13.075   2.359  12.517
76038SOL    HW129953  12.994   2.331  12.475
76038SOL    HW229954  13.096   2.443  12.476
76039SOL     OW29955  12.733   3.279  12.748
76039SOL    HW129956  12.661   3.226  12.782
76039SOL    HW229957  12.767   3.228  12.674
76040SOL     OW29958   1.156   3.088   0.847
76040SOL    HW129959   1.144   3.030   0.922
76040SOL    HW229960   1.082   3.068   0.790
76041SOL     OW29961   2.934  11.032  11.029
76041SOL    HW129962   2.883  11.009  11.107
76041SOL    HW229963   3.021  10.994  11.045
76042SOL     OW29964   4.041   9.776   5.413
76042SOL    HW129965   4.088   9.826   5.480
76042SOL    HW229966   4.060   9.821   5.331
76043SOL     OW29967   3.363   2.205  13.090
76043SOL    HW129968   3.349   2.178  13.000
76043SOL    HW229969   3.410   2.289  13.083
76044SOL     OW29970   7.200  14.515   8.208
76044SOL    HW129971   7.204  14.428   8.168
76044SOL    HW229972   7.258  14.568   8.154
76045SOL     OW29973  13.756  10.174   1.358
76045SOL    HW129974  13.698  10.197   1.430
76045SOL    HW229975  13.808  10.253   1.343
76046SOL     OW29976   8.953  13.241   4.479
76046SOL    HW129977   9.017  13.274   4.543
76046SOL    HW229978   8.888  13.311   4.471
76047SOL     OW29979   6.831   1.575   3.396
76047SOL    HW129980   6.817   1.482   3.412
76047SOL    HW229981   6.926   1.584   3.386
76048SOL     OW29982   8.183   5.530   5.622
76048SOL    HW129983   8.265   5.480   5.621
76048SOL    HW229984   8.162   5.545   5.530
76049SOL     OW29985   8.711   5.763   1.104
76049SOL    HW129986   8.802   5.790   1.108
76049SOL    HW229987   8.679   5.801   1.022
76050SOL     OW29988   8.163  11.239   5.037
76050SOL    HW129989   8.183  11.233   5.131
76050SOL    HW229990   8.068  11.242   5.033
76051SOL     OW29991  13.526   0.784   7.350
76051SOL    HW129992  13.511   0.745   7.436
76051SOL    HW229993  13.550   0.709   7.294
76052SOL     OW29994  12.802   7.207   3.456
76052SOL    HW129995  12.778   7.186   3.546
76052SOL    HW229996  12.841   7.127   3.421
76053SOL     OW29997  12.462   9.560   8.351
76053SOL    HW129998  12.535   9.517   8.397
76053SOL    HW229999  12.505   9.628   8.298
76054SOL     OW30000  13.564   0.410   8.487
76054SOL    HW130001  13.618   0.408   8.567
76054SOL    HW230002  13.550   0.504   8.470
76055SOL     OW30003   3.464  11.937   5.018
76055SOL    HW130004   3.548  11.974   5.042
76055SOL    HW230005   3.423  12.004   4.963
76056SOL     OW30006   5.527   1.829   3.393
76056SOL    HW130007   5.581   1.826   3.314
76056SOL    HW230008   5.564   1.899   3.445
76057SOL     OW30009  11.706  11.371  13.500
76057SOL    HW130010  11.639  11.432  13.470
76057SOL    HW230011  11.682  11.352  13.591
76058SOL     OW30012   1.683   2.529  13.205
76058SOL    HW130013   1.675   2.480  13.124
76058SOL    HW230014   1.689   2.621  13.178
76059SOL     OW30015   7.438   1.863   3.257
76059SOL    HW130016   7.372   1.843   3.323
76059SOL    HW230017   7.452   1.779   3.212
76060SOL     OW30018  10.525  11.155   0.399
76060SOL    HW130019  10.472  11.101   0.339
76060SOL    HW230020  10.510  11.117   0.485
76061SOL     OW30021   6.523   5.794   7.890
76061SOL    HW130022   6.461   5.848   7.939
76061SOL    HW230023   6.609   5.830   7.913
76062SOL     OW30024   9.962  13.213   2.369
76062SOL    HW130025   9.903  13.169   2.429
76062SOL    HW230026  10.044  13.163   2.375
76063SOL     OW30027   5.454  13.264   1.259
76063SOL    HW130028   5.387  13.196   1.261
76063SOL    HW230029   5.416  13.334   1.206
76064SOL     OW30030   2.094   4.238  12.219
76064SOL    HW130031   2.181   4.222  12.255
76064SOL    HW230032   2.087   4.333  12.216
76065SOL     OW30033   5.978  13.114   4.411
76065SOL    HW130034   5.953  13.206   4.419
76065SOL    HW230035   6.065  13.110   4.450
76066SOL     OW30036   1.015  11.303  13.811
76066SOL    HW130037   0.938  11.246  13.814
76066SOL    HW230038   1.038  11.309  13.718
76067SOL     OW30039   4.598  11.204   0.987
76067SOL    HW130040   4.547  11.178   1.064
76067SOL    HW230041   4.539  11.259   0.937
76068SOL     OW30042   3.847   1.134   9.628
76068SOL    HW130043   3.785   1.062   9.626
76068SOL    HW230044   3.890   1.126   9.713
76069SOL     OW30045   4.792   6.573  10.874
76069SOL    HW130046   4.757   6.485  10.889
76069SOL    HW230047   4.714   6.627  10.862
76070SOL     OW30048   8.684   2.286  11.670
76070SOL    HW130049   8.629   2.217  11.633
76070SOL    HW230050   8.625   2.360  11.681
76071SOL     OW30051  10.154   1.573   6.893
76071SOL    HW130052  10.135   1.666   6.892
76071SOL    HW230053  10.088   1.534   6.836
76072SOL     OW30054  12.439  11.028   8.916
76072SOL    HW130055  12.403  11.020   9.005
76072SOL    HW230056  12.365  11.006   8.859
76073SOL     OW30057  10.829   6.392  12.237
76073SOL    HW130058  10.829   6.297  12.225
76073SOL    HW230059  10.919   6.413  12.261
76074SOL     OW30060   6.640  10.016   3.577
76074SOL    HW130061   6.718  10.009   3.632
76074SOL    HW230062   6.674  10.015   3.488
76075SOL     OW30063  10.676   2.709   6.704
76075SOL    HW130064  10.732   2.783   6.728
76075SOL    HW230065  10.633   2.685   6.786
76076SOL     OW30066   6.433   3.196   3.990
76076SOL    HW130067   6.390   3.273   3.952
76076SOL    HW230068   6.515   3.188   3.942
76077SOL     OW30069   8.426   6.254  12.011
76077SOL    HW130070   8.405   6.172  11.965
76077SOL    HW230071   8.521   6.257  12.012
76078SOL     OW30072  11.819  13.262  13.213
76078SOL    HW130073  11.833  13.341  13.264
76078SOL    HW230074  11.897  13.254  13.158
76079SOL     OW30075   4.369   6.368   3.844
76079SOL    HW130076   4.447   6.355   3.898
76079SOL    HW230077   4.404   6.388   3.757
76080SOL     OW30078   3.926  13.829  13.457
76080SOL    HW130079   3.838  13.854  13.429
76080SOL    HW230080   3.965  13.909  13.491
76081SOL     OW30081  12.387   9.159   5.192
76081SOL    HW130082  12.336   9.121   5.263
76081SOL    HW230083  12.435   9.231   5.233
76082SOL     OW30084   8.343  11.090  11.159
76082SOL    HW130085   8.307  11.086  11.248
76082SOL    HW230086   8.266  11.098  11.103
76083SOL     OW30087   5.963   8.483   9.965
76083SOL    HW130088   6.041   8.463  10.017
76083SOL    HW230089   5.894   8.429  10.004
76084SOL     OW30090   7.010   7.183   3.293
76084SOL    HW130091   7.018   7.193   3.198
76084SOL    HW230092   7.042   7.265   3.329
76085SOL     OW30093   8.910   2.500  13.072
76085SOL    HW130094   8.947   2.441  13.007
76085SOL    HW230095   8.878   2.442  13.141
76086SOL     OW30096   7.671   3.099  13.526
76086SOL    HW130097   7.620   3.178  13.545
76086SOL    HW230098   7.625   3.029  13.571
76087SOL     OW30099   7.201   8.337  10.940
76087SOL    HW130100   7.139   8.401  10.974
76087SOL    HW230101   7.285   8.383  10.939
76088SOL     OW30102   7.571  11.031  14.268
76088SOL    HW130103   7.584  11.023  14.362
76088SOL    HW230104   7.636  11.095  14.240
76089SOL     OW30105   7.038   6.251   4.666
76089SOL    HW130106   7.068   6.162   4.648
76089SOL    HW230107   7.072   6.271   4.753
76090SOL     OW30108   7.357   4.129  13.197
76090SOL    HW130109   7.406   4.101  13.274
76090SOL    HW230110   7.267   4.137  13.227
76091SOL     OW30111   9.242   1.074   0.465
76091SOL    HW130112   9.188   0.999   0.436
76091SOL    HW230113   9.325   1.061   0.420
76092SOL     OW30114  14.195  11.728   5.605
76092SOL    HW130115  14.284  11.700   5.625
76092SOL    HW230116  14.192  11.731   5.509
76093SOL     OW30117  10.950   5.937  14.322
76093SOL    HW130118  10.990   5.854  14.295
76093SOL    HW230119  10.996   5.961  14.402
76094SOL     OW30120  10.510   4.654  13.514
76094SOL    HW130121  10.590   4.706  13.504
76094SOL    HW230122  10.488   4.625  13.425
76095SOL     OW30123   7.322   8.390   6.522
76095SOL    HW130124   7.321   8.301   6.557
76095SOL    HW230125   7.280   8.383   6.437
76096SOL     OW30126   5.461  10.220   6.224
76096SOL    HW130127   5.522  10.147   6.239
76096SOL    HW230128   5.513  10.285   6.177
76097SOL     OW30129  12.678   3.382   1.544
76097SOL    HW130130  12.695   3.439   1.619
76097SOL    HW230131  12.750   3.318   1.546
76098SOL     OW30132   0.746   9.570   9.330
76098SOL    HW130133   0.773   9.656   9.298
76098SOL    HW230134   0.707   9.528   9.254
76099SOL     OW30135   3.902   6.451   4.566
76099SOL    HW130136   3.863   6.537   4.551
76099SOL    HW230137   3.994   6.470   4.586
76100SOL     OW30138   2.557   6.306   4.743
76100SOL    HW130139   2.566   6.398   4.770
76100SOL    HW230140   2.643   6.283   4.709
76101SOL     OW30141   7.837   2.077  12.964
76101SOL    HW130142   7.743   2.080  12.982
76101SOL    HW230143   7.860   2.167  12.941
76102SOL     OW30144  13.435   2.031   0.954
76102SOL    HW130145  13.427   2.010   0.861
76102SOL    HW230146  13.345   2.041   0.985
76103SOL     OW30147   3.443   0.194   7.412
76103SOL    HW130148   3.407   0.271   7.455
76103SOL    HW230149   3.412   0.120   7.464
76104SOL     OW30150   8.031   8.117   2.853
76104SOL    HW130151   8.069   8.184   2.909
76104SOL    HW230152   8.064   8.034   2.889
76105SOL     OW30153   3.231   7.490   2.184
76105SOL    HW130154   3.289   7.536   2.244
76105SOL    HW230155   3.148   7.537   2.190
76106SOL     OW30156  14.278   7.594   2.762
76106SOL    HW130157  14.198   7.544   2.750
76106SOL    HW230158  14.253   7.665   2.822
76107SOL     OW30159   7.045  14.353  14.519
76107SOL    HW130160   7.134  14.363  14.554
76107SOL    HW230161   7.009  14.442  14.520
76108SOL     OW30162  10.053   6.764  12.906
76108SOL    HW130163  10.103   6.845  12.917
76108SOL    HW230164  10.116   6.694  12.921
76109SOL     OW30165   4.639   8.067   3.029
76109SOL    HW130166   4.686   8.076   3.112
76109SOL    HW230167   4.626   7.972   3.019
76110SOL     OW30168   5.062   9.361  12.475
76110SOL    HW130169   5.115   9.440  12.480
76110SOL    HW230170   5.114   9.294  12.519
76111SOL     OW30171   4.347   7.931  11.010
76111SOL    HW130172   4.412   7.984  10.964
76111SOL    HW230173   4.392   7.848  11.027
76112SOL     OW30174  14.168   9.850  10.029
76112SOL    HW130175  14.103   9.788   9.995
76112SOL    HW230176  14.182   9.912   9.957
76113SOL     OW30177  11.312  10.530   5.656
76113SOL    HW130178  11.341  10.484   5.735
76113SOL    HW230179  11.275  10.461   5.601
76114SOL     OW30180  11.609  14.709  12.404
76114SOL    HW130181  11.695  14.670  12.393
76114SOL    HW230182  11.621  14.773  12.474
76115SOL     OW30183  10.410   2.093   5.941
76115SOL    HW130184  10.465   2.117   5.866
76115SOL    HW230185  10.321   2.109   5.911
76116SOL     OW30186   1.184   7.819   4.639
76116SOL    HW130187   1.141   7.745   4.597
76116SOL    HW230188   1.200   7.789   4.728
76117SOL     OW30189   4.550  11.562  13.847
76117SOL    HW130190   4.581  11.644  13.886
76117SOL    HW230191   4.458  11.578  13.827
76118SOL     OW30192   6.036  14.778   0.306
76118SOL    HW130193   5.993  14.698   0.334
76118SOL    HW230194   5.971  14.822   0.251
76119SOL     OW30195   7.577  13.928   6.311
76119SOL    HW130196   7.635  13.986   6.360
76119SOL    HW230197   7.630  13.850   6.293
76120SOL     OW30198   3.447   1.579   2.457
76120SOL    HW130199   3.466   1.552   2.548
76120SOL    HW230200   3.414   1.500   2.415
76121SOL     OW30201   5.056   6.606  13.414
76121SOL    HW130202   5.147   6.576  13.420
76121SOL    HW230203   5.062   6.692  13.371
76122SOL     OW30204   1.888   1.757   7.006
76122SOL    HW130205   1.810   1.727   6.960
76122SOL    HW230206   1.869   1.848   7.027
76123SOL     OW30207   1.144   1.460   2.639
76123SOL    HW130208   1.092   1.517   2.583
76123SOL    HW230209   1.083   1.391   2.667
76124SOL     OW30210   7.537  11.136  11.344
76124SOL    HW130211   7.615  11.102  11.386
76124SOL    HW230212   7.557  11.228  11.326
76125SOL     OW30213   2.977   8.557   7.639
76125SOL    HW130214   2.954   8.527   7.551
76125SOL    HW230215   3.037   8.630   7.624
76126SOL     OW30216   0.739   1.029   1.176
76126SOL    HW130217   0.764   1.087   1.248
76126SOL    HW230218   0.741   0.941   1.215
76127SOL     OW30219   0.418   4.612  11.171
76127SOL    HW130220   0.328   4.582  11.188
76127SOL    HW230221   0.466   4.590  11.251
76128SOL     OW30222  10.776   8.653   4.104
76128SOL    HW130223  10.866   8.639   4.076
76128SOL    HW230224  10.774   8.744   4.134
76129SOL     OW30225  12.329  11.354  11.860
76129SOL    HW130226  12.380  11.362  11.941
76129SOL    HW230227  12.377  11.291  11.807
76130SOL     OW30228   1.741   8.581   1.354
76130SOL    HW130229   1.712   8.663   1.394
76130SOL    HW230230   1.698   8.580   1.269
76131SOL     OW30231  13.634   4.707   0.099
76131SOL    HW130232  13.632   4.788   0.048
76131SOL    HW230233  13.551   4.706   0.146
76132SOL     OW30234   0.124   9.338  14.070
76132SOL    HW130235   0.131   9.423  14.113
76132SOL    HW230236   0.088   9.358  13.983
76133SOL     OW30237  14.619  14.750   4.049
76133SOL    HW130238  14.595  14.745   4.142
76133SOL    HW230239  14.714  14.738   4.048
76134SOL     OW30240   1.385   9.303  13.953
76134SOL    HW130241   1.368   9.218  13.912
76134SOL    HW230242   1.308   9.319  14.008
76135SOL     OW30243   8.748   3.612   4.202
76135SOL    HW130244   8.842   3.608   4.220
76135SOL    HW230245   8.742   3.598   4.107
76136SOL     OW30246   3.365  14.306   8.444
76136SOL    HW130247   3.318  14.235   8.400
76136SOL    HW230248   3.346  14.383   8.392
76137SOL     OW30249   9.130   1.420   5.446
76137SOL    HW130250   9.121   1.507   5.485
76137SOL    HW230251   9.180   1.434   5.366
76138SOL     OW30252  11.867  11.826   8.255
76138SOL    HW130253  11.788  11.784   8.289
76138SOL    HW230254  11.871  11.796   8.164
76139SOL     OW30255   6.447   4.001   0.741
76139SOL    HW130256   6.433   4.096   0.737
76139SOL    HW230257   6.359   3.964   0.746
76140SOL     OW30258   5.551  12.361   0.667
76140SOL    HW130259   5.527  12.366   0.760
76140SOL    HW230260   5.585  12.273   0.656
76141SOL     OW30261   7.956   3.678  12.040
76141SOL    HW130262   7.982   3.746  12.102
76141SOL    HW230263   7.986   3.709  11.955
76142SOL     OW30264   0.689  10.548   1.712
76142SOL    HW130265   0.678  10.521   1.621
76142SOL    HW230266   0.649  10.478   1.764
76143SOL     OW30267   3.593   3.156   2.580
76143SOL    HW130268   3.643   3.087   2.623
76143SOL    HW230269   3.656   3.227   2.568
76144SOL     OW30270   9.526   2.218   6.331
76144SOL    HW130271   9.432   2.225   6.351
76144SOL    HW230272   9.570   2.251   6.409
76145SOL     OW30273  13.897  13.888   1.968
76145SOL    HW130274  13.887  13.923   1.879
76145SOL    HW230275  13.978  13.929   2.000
76146SOL     OW30276  10.944   0.470   4.894
76146SOL    HW130277  10.850   0.481   4.909
76146SOL    HW230278  10.949   0.430   4.807
76147SOL     OW30279  11.217   3.511   0.096
76147SOL    HW130280  11.164   3.572   0.044
76147SOL    HW230281  11.306   3.545   0.090
76148SOL     OW30282  13.336   7.300   3.716
76148SOL    HW130283  13.302   7.283   3.629
76148SOL    HW230284  13.422   7.340   3.701
76149SOL     OW30285   5.386   7.400  11.421
76149SOL    HW130286   5.338   7.449  11.355
76149SOL    HW230287   5.350   7.311  11.416
76150SOL     OW30288   1.376   4.404   6.279
76150SOL    HW130289   1.285   4.378   6.292
76150SOL    HW230290   1.405   4.437   6.364
76151SOL     OW30291  14.685  10.826  12.400
76151SOL    HW130292  14.596  10.842  12.368
76151SOL    HW230293  14.690  10.732  12.413
76152SOL     OW30294   7.100   5.227   4.630
76152SOL    HW130295   7.024   5.249   4.576
76152SOL    HW230296   7.155   5.173   4.573
76153SOL     OW30297  11.382  14.417   7.928
76153SOL    HW130298  11.421  14.394   8.012
76153SOL    HW230299  11.288  14.404   7.940
76154SOL     OW30300  11.744   3.448   7.738
76154SOL    HW130301  11.792   3.370   7.767
76154SOL    HW230302  11.755   3.510   7.810
76155SOL     OW30303   8.280  13.567   4.858
76155SOL    HW130304   8.186  13.554   4.876
76155SOL    HW230305   8.287  13.659   4.833
76156SOL     OW30306  14.750  11.599   5.377
76156SOL    HW130307  14.832  11.562   5.409
76156SOL    HW230308  14.742  11.682   5.423
76157SOL     OW30309  12.443  13.679   2.219
76157SOL    HW130310  12.482  13.764   2.240
76157SOL    HW230311  12.350  13.697   2.206
76158SOL     OW30312   4.622   8.448   3.053
76158SOL    HW130313   4.551   8.465   2.992
76158SOL    HW230314   4.579   8.436   3.137
76159SOL     OW30315   2.655  10.790   1.560
76159SOL    HW130316   2.613  10.874   1.579
76159SOL    HW230317   2.584  10.734   1.528
76160SOL     OW30318  11.064  11.300   4.131
76160SOL    HW130319  11.017  11.242   4.071
76160SOL    HW230320  11.154  11.269   4.127
76161SOL     OW30321  12.822  11.265   5.582
76161SOL    HW130322  12.774  11.254   5.500
76161SOL    HW230323  12.894  11.202   5.575
76162SOL     OW30324   9.927   0.606   4.033
76162SOL    HW130325   9.924   0.636   3.942
76162SOL    HW230326   9.959   0.681   4.083
76163SOL     OW30327   2.775   2.258   5.000
76163SOL    HW130328   2.802   2.280   4.911
76163SOL    HW230329   2.848   2.207   5.035
76164SOL     OW30330   3.219  10.724  12.013
76164SOL    HW130331   3.132  10.737  12.049
76164SOL    HW230332   3.272  10.696  12.087
76165SOL     OW30333   5.133   4.640   3.638
76165SOL    HW130334   5.181   4.688   3.571
76165SOL    HW230335   5.043   4.672   3.630
76166SOL     OW30336   1.472   8.442   2.241
76166SOL    HW130337   1.548   8.402   2.283
76166SOL    HW230338   1.465   8.398   2.156
76167SOL     OW30339  13.383  14.663   0.932
76167SOL    HW130340  13.436  14.593   0.970
76167SOL    HW230341  13.353  14.628   0.849
76168SOL     OW30342   7.279   6.403  11.191
76168SOL    HW130343   7.319   6.413  11.277
76168SOL    HW230344   7.301   6.484  11.145
76169SOL     OW30345   9.756   1.651   5.655
76169SOL    HW130346   9.743   1.568   5.701
76169SOL    HW230347   9.850   1.653   5.635
76170SOL     OW30348  10.839   3.248   8.986
76170SOL    HW130349  10.847   3.174   8.926
76170SOL    HW230350  10.802   3.210   9.066
76171SOL     OW30351  14.142   6.600  14.507
76171SOL    HW130352  14.202   6.672  14.524
76171SOL    HW230353  14.174   6.528  14.561
76172SOL     OW30354   2.161   7.093  12.961
76172SOL    HW130355   2.214   7.129  12.890
76172SOL    HW230356   2.072   7.094  12.927
76173SOL     OW30357   9.500   3.067  10.132
76173SOL    HW130358   9.440   3.014  10.184
76173SOL    HW230359   9.471   3.157  10.147
76174SOL     OW30360  11.043   4.592   2.397
76174SOL    HW130361  11.119   4.590   2.338
76174SOL    HW230362  11.017   4.684   2.398
76175SOL     OW30363  12.969   6.429  13.270
76175SOL    HW130364  12.902   6.367  13.297
76175SOL    HW230365  13.036   6.375  13.227
76176SOL     OW30366   7.219   2.437   0.620
76176SOL    HW130367   7.295   2.388   0.654
76176SOL    HW230368   7.153   2.428   0.689
76177SOL     OW30369   3.363  12.754  11.775
76177SOL    HW130370   3.426  12.690  11.743
76177SOL    HW230371   3.397  12.839  11.745
76178SOL     OW30372   6.904   2.425   3.470
76178SOL    HW130373   6.860   2.509   3.463
76178SOL    HW230374   6.994   2.442   3.443
76179SOL     OW30375   2.452  14.217   1.501
76179SOL    HW130376   2.376  14.164   1.523
76179SOL    HW230377   2.416  14.296   1.461
76180SOL     OW30378   5.940   8.711   6.886
76180SOL    HW130379   5.846   8.693   6.897
76180SOL    HW230380   5.981   8.625   6.895
76181SOL     OW30381   3.812   0.193  14.113
76181SOL    HW130382   3.908   0.191  14.118
76181SOL    HW230383   3.787   0.274  14.157
76182SOL     OW30384   8.823   4.457   9.914
76182SOL    HW130385   8.812   4.365   9.938
76182SOL    HW230386   8.752   4.475   9.853
76183SOL     OW30387   6.049   8.180  12.034
76183SOL    HW130388   5.959   8.153  12.051
76183SOL    HW230389   6.068   8.150  11.946
76184SOL     OW30390  10.014   1.452  12.816
76184SOL    HW130391  10.084   1.419  12.873
76184SOL    HW230392   9.977   1.374  12.775
76185SOL     OW30393   9.002  10.783  12.666
76185SOL    HW130394   8.987  10.728  12.589
76185SOL    HW230395   9.013  10.871  12.630
76186SOL     OW30396  10.772  11.606   6.581
76186SOL    HW130397  10.846  11.576   6.634
76186SOL    HW230398  10.796  11.582   6.491
76187SOL     OW30399   7.917  10.480   9.576
76187SOL    HW130400   7.850  10.527   9.624
76187SOL    HW230401   7.904  10.507   9.485
76188SOL     OW30402  13.180   4.166  12.618
76188SOL    HW130403  13.236   4.145  12.543
76188SOL    HW230404  13.196   4.259  12.634
76189SOL     OW30405  14.151  12.133   4.538
76189SOL    HW130406  14.065  12.175   4.545
76189SOL    HW230407  14.210  12.203   4.509
76190SOL     OW30408  10.100  14.803  12.932
76190SOL    HW130409  10.125  14.728  12.987
76190SOL    HW230410  10.166  14.869  12.949
76191SOL     OW30411   7.306   5.223   3.301
76191SOL    HW130412   7.225   5.172   3.289
76191SOL    HW230413   7.366   5.188   3.235
76192SOL     OW30414   4.271  10.905  12.505
76192SOL    HW130415   4.241  10.834  12.562
76192SOL    HW230416   4.202  10.971  12.510
76193SOL     OW30417   7.601   4.819  10.997
76193SOL    HW130418   7.662   4.799  10.926
76193SOL    HW230419   7.657   4.853  11.067
76194SOL     OW30420  14.785   0.460   9.754
76194SOL    HW130421  14.811   0.541   9.798
76194SOL    HW230422  14.824   0.465   9.667
76195SOL     OW30423  10.754   1.448   0.364
76195SOL    HW130424  10.780   1.384   0.298
76195SOL    HW230425  10.836   1.476   0.405
76196SOL     OW30426   0.907   4.149  12.883
76196SOL    HW130427   0.817   4.126  12.858
76196SOL    HW230428   0.906   4.146  12.979
76197SOL     OW30429   3.510   4.623   1.996
76197SOL    HW130430   3.522   4.656   2.085
76197SOL    HW230431   3.473   4.535   2.007
76198SOL     OW30432   9.839  11.629   1.330
76198SOL    HW130433   9.837  11.722   1.306
76198SOL    HW230434   9.899  11.624   1.404
76199SOL     OW30435   7.164   5.078   0.719
76199SOL    HW130436   7.186   5.065   0.811
76199SOL    HW230437   7.159   4.990   0.683
76200SOL     OW30438   2.319   4.570   9.209
76200SOL    HW130439   2.310   4.656   9.250
76200SOL    HW230440   2.233   4.552   9.172
76201SOL     OW30441   6.583  12.844   0.398
76201SOL    HW130442   6.542  12.788   0.464
76201SOL    HW230443   6.549  12.931   0.415
76202SOL     OW30444   5.243  11.108  10.944
76202SOL    HW130445   5.148  11.100  10.929
76202SOL    HW230446   5.256  11.201  10.963
76203SOL     OW30447  12.034  12.683   4.468
76203SOL    HW130448  11.950  12.689   4.514
76203SOL    HW230449  12.076  12.767   4.484
76204SOL     OW30450  10.649  10.282  13.839
76204SOL    HW130451  10.614  10.357  13.790
76204SOL    HW230452  10.733  10.312  13.871
76205SOL     OW30453  11.363   7.645   0.173
76205SOL    HW130454  11.274   7.628   0.142
76205SOL    HW230455  11.352   7.705   0.247
76206SOL     OW30456   3.501  11.628   1.011
76206SOL    HW130457   3.580  11.683   1.010
76206SOL    HW230458   3.452  11.659   1.087
76207SOL     OW30459   0.323  10.283   5.639
76207SOL    HW130460   0.333  10.222   5.713
76207SOL    HW230461   0.383  10.355   5.659
76208SOL     OW30462  13.385   1.746  14.133
76208SOL    HW130463  13.371   1.704  14.048
76208SOL    HW230464  13.449   1.689  14.178
76209SOL     OW30465   9.519  10.398  12.572
76209SOL    HW130466   9.495  10.323  12.517
76209SOL    HW230467   9.542  10.467  12.510
76210SOL     OW30468   2.932   5.556   6.936
76210SOL    HW130469   2.999   5.615   6.902
76210SOL    HW230470   2.849   5.593   6.905
76211SOL     OW30471  13.075   5.125  13.714
76211SOL    HW130472  13.155   5.104  13.764
76211SOL    HW230473  13.085   5.216  13.689
76212SOL     OW30474   4.934  14.830   9.823
76212SOL    HW130475   4.969  14.796   9.741
76212SOL    HW230476   4.994   0.022   9.846
76213SOL     OW30477  10.362   1.095   4.082
76213SOL    HW130478  10.379   1.006   4.112
76213SOL    HW230479  10.296   1.085   4.013
76214SOL     OW30480   3.934   8.339   3.926
76214SOL    HW130481   3.956   8.247   3.912
76214SOL    HW230482   3.863   8.338   3.990
76215SOL     OW30483   2.188   9.309   8.824
76215SOL    HW130484   2.209   9.402   8.833
76215SOL    HW230485   2.103   9.307   8.781
76216SOL     OW30486   2.664   8.214   1.449
76216SOL    HW130487   2.739   8.165   1.414
76216SOL    HW230488   2.594   8.199   1.386
76217SOL     OW30489  12.058   1.902   3.789
76217SOL    HW130490  12.022   1.829   3.739
76217SOL    HW230491  12.145   1.873   3.816
76218SOL     OW30492   1.278   1.519   5.066
76218SOL    HW130493   1.316   1.448   5.118
76218SOL    HW230494   1.336   1.526   4.990
76219SOL     OW30495   2.687  11.194   9.667
76219SOL    HW130496   2.612  11.208   9.609
76219SOL    HW230497   2.669  11.109   9.708
76220SOL     OW30498  12.037   9.996   4.041
76220SOL    HW130499  12.074  10.051   4.110
76220SOL    HW230500  12.108   9.936   4.017
76221SOL     OW30501   7.171   0.631  11.163
76221SOL    HW130502   7.152   0.610  11.072
76221SOL    HW230503   7.086   0.645  11.203
76222SOL     OW30504   5.507  13.551   6.807
76222SOL    HW130505   5.584  13.571   6.753
76222SOL    HW230506   5.536  13.567   6.897
76223SOL     OW30507  14.132  10.708   9.794
76223SOL    HW130508  14.130  10.754   9.711
76223SOL    HW230509  14.042  10.678   9.808
76224SOL     OW30510   2.917   1.233   7.495
76224SOL    HW130511   2.912   1.308   7.436
76224SOL    HW230512   3.010   1.227   7.517
76225SOL     OW30513  11.607   8.127   2.129
76225SOL    HW130514  11.551   8.058   2.094
76225SOL    HW230515  11.557   8.164   2.202
76226SOL     OW30516   9.650   9.508   1.767
76226SOL    HW130517   9.561   9.505   1.731
76226SOL    HW230518   9.655   9.594   1.810
76227SOL     OW30519   8.288  11.694   6.666
76227SOL    HW130520   8.274  11.599   6.671
76227SOL    HW230521   8.352  11.705   6.595
76228SOL     OW30522   3.272   7.264   0.063
76228SOL    HW130523   3.182   7.248   0.092
76228SOL    HW230524   3.288   7.356   0.086
76229SOL     OW30525  12.032  13.405   9.548
76229SOL    HW130526  11.949  13.434   9.587
76229SOL    HW230527  12.014  13.316   9.519
76230SOL     OW30528   1.156   3.598   7.678
76230SOL    HW130529   1.161   3.689   7.648
76230SOL    HW230530   1.241   3.561   7.656
76231SOL     OW30531   2.597  14.261   3.976
76231SOL    HW130532   2.664  14.328   3.959
76231SOL    HW230533   2.573  14.229   3.889
76232SOL     OW30534   5.329  10.613  11.765
76232SOL    HW130535   5.303  10.705  11.766
76232SOL    HW230536   5.267  10.571  11.706
76233SOL     OW30537   7.308   3.048   7.561
76233SOL    HW130538   7.382   3.027   7.504
76233SOL    HW230539   7.230   3.032   7.507
76234SOL     OW30540   5.973   1.594   3.069
76234SOL    HW130541   5.907   1.592   3.137
76234SOL    HW230542   6.010   1.505   3.069
76235SOL     OW30543  13.891  10.641   1.792
76235SOL    HW130544  13.969  10.586   1.793
76235SOL    HW230545  13.837  10.604   1.721
76236SOL     OW30546  12.970  13.497  14.853
76236SOL    HW130547  12.910  13.522  14.783
76236SOL    HW230548  13.029  13.433  14.813
76237SOL     OW30549   5.127   4.838   7.370
76237SOL    HW130550   5.087   4.751   7.371
76237SOL    HW230551   5.148   4.853   7.278
76238SOL     OW30552   1.444  11.534   0.265
76238SOL    HW130553   1.368  11.516   0.209
76238SOL    HW230554   1.491  11.603   0.218
76239SOL     OW30555  14.877  13.023   3.002
76239SOL    HW130556   0.072  12.982   3.046
76239SOL    HW230557  14.809  12.956   3.003
76240SOL     OW30558  14.288   6.513   5.976
76240SOL    HW130559  14.240   6.540   5.898
76240SOL    HW230560  14.223   6.467   6.029
76241SOL     OW30561   4.690   2.624   6.720
76241SOL    HW130562   4.641   2.637   6.639
76241SOL    HW230563   4.632   2.657   6.789
76242SOL     OW30564  10.865   2.325   1.467
76242SOL    HW130565  10.836   2.271   1.540
76242SOL    HW230566  10.803   2.306   1.396
76243SOL     OW30567   7.889   6.538   1.020
76243SOL    HW130568   7.849   6.619   1.051
76243SOL    HW230569   7.837   6.468   1.060
76244SOL     OW30570   4.630   1.539   6.291
76244SOL    HW130571   4.676   1.595   6.229
76244SOL    HW230572   4.544   1.580   6.302
76245SOL     OW30573   6.552   3.070   9.301
76245SOL    HW130574   6.621   3.136   9.289
76245SOL    HW230575   6.535   3.070   9.395
76246SOL     OW30576  12.225   6.497   8.207
76246SOL    HW130577  12.274   6.453   8.137
76246SOL    HW230578  12.275   6.479   8.286
76247SOL     OW30579   0.062   7.016   7.312
76247SOL    HW130580   0.063   7.024   7.216
76247SOL    HW230581   0.107   6.933   7.329
76248SOL     OW30582   1.407   5.919  12.136
76248SOL    HW130583   1.483   5.910  12.192
76248SOL    HW230584   1.422   5.999  12.087
76249SOL     OW30585  13.380   7.851   3.802
76249SOL    HW130586  13.290   7.838   3.832
76249SOL    HW230587  13.372   7.911   3.727
76250SOL     OW30588  13.394  10.121   8.475
76250SOL    HW130589  13.405  10.182   8.402
76250SOL    HW230590  13.483  10.101   8.503
76251SOL     OW30591  12.743   7.066   9.395
76251SOL    HW130592  12.792   6.984   9.402
76251SOL    HW230593  12.771   7.118   9.470
76252SOL     OW30594   2.662   3.344   5.177
76252SOL    HW130595   2.674   3.387   5.092
76252SOL    HW230596   2.572   3.310   5.173
76253SOL     OW30597   4.393  12.487   5.430
76253SOL    HW130598   4.416  12.424   5.498
76253SOL    HW230599   4.422  12.446   5.349
76254SOL     OW30600   1.330   1.337   2.397
76254SOL    HW130601   1.291   1.378   2.474
76254SOL    HW230602   1.287   1.379   2.322
76255SOL     OW30603   0.972   0.173   0.706
76255SOL    HW130604   0.889   0.210   0.673
76255SOL    HW230605   0.995   0.230   0.779
76256SOL     OW30606   3.533   0.230  10.346
76256SOL    HW130607   3.613   0.193  10.383
76256SOL    HW230608   3.548   0.325  10.349
76257SOL     OW30609   8.011   5.310  11.763
76257SOL    HW130610   8.013   5.251  11.839
76257SOL    HW230611   8.076   5.275  11.703
76258SOL     OW30612   8.692   4.614   4.075
76258SOL    HW130613   8.655   4.701   4.059
76258SOL    HW230614   8.732   4.590   3.991
76259SOL     OW30615   7.367  12.067  10.520
76259SOL    HW130616   7.439  12.054  10.582
76259SOL    HW230617   7.394  12.020  10.442
76260SOL     OW30618  14.650   3.222   5.706
76260SOL    HW130619  14.620   3.178   5.785
76260SOL    HW230620  14.655   3.315   5.731
76261SOL     OW30621   2.002  14.581   1.639
76261SOL    HW130622   2.074  14.627   1.683
76261SOL    HW230623   2.046  14.518   1.582
76262SOL     OW30624   6.246  12.427   5.021
76262SOL    HW130625   6.274  12.388   5.104
76262SOL    HW230626   6.195  12.359   4.978
76263SOL     OW30627  12.134   9.844   0.489
76263SOL    HW130628  12.156   9.882   0.574
76263SOL    HW230629  12.175   9.758   0.489
76264SOL     OW30630   8.963  13.376   9.470
76264SOL    HW130631   8.918  13.318   9.408
76264SOL    HW230632   8.971  13.325   9.550
76265SOL     OW30633  10.554  12.136   3.972
76265SOL    HW130634  10.481  12.198   3.969
76265SOL    HW230635  10.536  12.080   4.047
76266SOL     OW30636   6.518   0.401   1.296
76266SOL    HW130637   6.601   0.419   1.251
76266SOL    HW230638   6.471   0.484   1.294
76267SOL     OW30639   9.526  13.559   9.997
76267SOL    HW130640   9.447  13.509  10.017
76267SOL    HW230641   9.508  13.598   9.911
76268SOL     OW30642   4.218  10.495   3.680
76268SOL    HW130643   4.215  10.504   3.776
76268SOL    HW230644   4.156  10.424   3.661
76269SOL     OW30645  12.024  11.323   7.467
76269SOL    HW130646  12.052  11.394   7.409
76269SOL    HW230647  11.948  11.285   7.422
76270SOL     OW30648   3.231   2.924   3.718
76270SOL    HW130649   3.278   3.002   3.748
76270SOL    HW230650   3.139   2.948   3.722
76271SOL     OW30651   0.697  14.648  13.792
76271SOL    HW130652   0.788  14.632  13.768
76271SOL    HW230653   0.677  14.581  13.856
76272SOL     OW30654   6.026  14.084  13.631
76272SOL    HW130655   5.998  14.135  13.707
76272SOL    HW230656   6.117  14.061  13.648
76273SOL     OW30657   9.927   2.726   9.991
76273SOL    HW130658  10.007   2.691   9.951
76273SOL    HW230659   9.947   2.817  10.010
76274SOL     OW30660   0.337   4.564   7.415
76274SOL    HW130661   0.332   4.654   7.449
76274SOL    HW230662   0.326   4.509   7.492
76275SOL     OW30663  12.247   5.543   3.496
76275SOL    HW130664  12.308   5.603   3.452
76275SOL    HW230665  12.294   5.516   3.575
76276SOL     OW30666   1.943  12.471   6.372
76276SOL    HW130667   1.909  12.460   6.461
76276SOL    HW230668   1.867  12.457   6.315
76277SOL     OW30669   9.668  11.973   8.092
76277SOL    HW130670   9.651  12.064   8.113
76277SOL    HW230671   9.595  11.925   8.131
76278SOL     OW30672   7.779   1.810   4.574
76278SOL    HW130673   7.730   1.876   4.526
76278SOL    HW230674   7.718   1.776   4.639
76279SOL     OW30675   9.525   0.045   3.771
76279SOL    HW130676   9.469  14.854   3.801
76279SOL    HW230677   9.565   0.011   3.690
76280SOL     OW30678   1.120   5.068   0.514
76280SOL    HW130679   1.086   5.076   0.603
76280SOL    HW230680   1.208   5.033   0.525
76281SOL     OW30681   1.856   8.276   9.768
76281SOL    HW130682   1.818   8.304   9.685
76281SOL    HW230683   1.878   8.357   9.813
76282SOL     OW30684   7.268   9.217  14.220
76282SOL    HW130685   7.344   9.171  14.185
76282SOL    HW230686   7.274   9.306  14.186
76283SOL     OW30687   0.315   0.544   4.570
76283SOL    HW130688   0.317   0.596   4.651
76283SOL    HW230689   0.355   0.601   4.504
76284SOL     OW30690   3.192   3.047   7.967
76284SOL    HW130691   3.202   2.992   8.045
76284SOL    HW230692   3.159   3.130   8.000
76285SOL     OW30693  14.794  14.640  11.462
76285SOL    HW130694  14.760  14.558  11.427
76285SOL    HW230695  14.817  14.620  11.553
76286SOL     OW30696   3.278   5.055   3.898
76286SOL    HW130697   3.330   4.986   3.937
76286SOL    HW230698   3.209   5.072   3.962
76287SOL     OW30699  13.227   0.610  14.039
76287SOL    HW130700  13.172   0.674  14.083
76287SOL    HW230701  13.173   0.531  14.032
76288SOL     OW30702  11.370   0.919  11.768
76288SOL    HW130703  11.416   0.895  11.848
76288SOL    HW230704  11.329   0.837  11.739
76289SOL     OW30705   5.930   4.730  14.513
76289SOL    HW130706   5.873   4.694  14.581
76289SOL    HW230707   5.957   4.815  14.548
76290SOL     OW30708  11.857  12.567   6.422
76290SOL    HW130709  11.793  12.611   6.478
76290SOL    HW230710  11.937  12.619   6.430
76291SOL     OW30711   1.807  11.232  14.183
76291SOL    HW130712   1.887  11.246  14.133
76291SOL    HW230713   1.800  11.309  14.240
76292SOL     OW30714  11.041   1.824   6.437
76292SOL    HW130715  11.056   1.897   6.497
76292SOL    HW230716  10.994   1.759   6.489
76293SOL     OW30717   4.959  11.727  11.379
76293SOL    HW130718   5.017  11.744  11.305
76293SOL    HW230719   4.944  11.814  11.417
76294SOL     OW30720  13.896   1.533   2.330
76294SOL    HW130721  13.851   1.449   2.328
76294SOL    HW230722  13.850   1.587   2.265
76295SOL     OW30723   3.252   4.149  10.586
76295SOL    HW130724   3.331   4.103  10.614
76295SOL    HW230725   3.243   4.127  10.493
76296SOL     OW30726  11.744   6.072   6.351
76296SOL    HW130727  11.736   5.979   6.334
76296SOL    HW230728  11.756   6.111   6.264
76297SOL     OW30729   7.971   4.237   8.531
76297SOL    HW130730   7.960   4.268   8.621
76297SOL    HW230731   7.957   4.142   8.537
76298SOL     OW30732   8.717   0.169   6.456
76298SOL    HW130733   8.668   0.090   6.434
76298SOL    HW230734   8.807   0.138   6.467
76299SOL     OW30735   5.154  12.884   4.625
76299SOL    HW130736   5.192  12.961   4.667
76299SOL    HW230737   5.184  12.810   4.680
76300SOL     OW30738   6.323   0.506   0.792
76300SOL    HW130739   6.250   0.455   0.757
76300SOL    HW230740   6.401   0.455   0.769
76301SOL     OW30741   6.287   7.833  14.353
76301SOL    HW130742   6.238   7.890  14.294
76301SOL    HW230743   6.306   7.889  14.429
76302SOL     OW30744   1.719  11.928  10.717
76302SOL    HW130745   1.706  11.855  10.657
76302SOL    HW230746   1.633  11.969  10.725
76303SOL     OW30747   8.675  11.384  13.982
76303SOL    HW130748   8.713  11.331  13.912
76303SOL    HW230749   8.744  11.445  14.006
76304SOL     OW30750   5.092  10.809  11.268
76304SOL    HW130751   5.156  10.871  11.301
76304SOL    HW230752   5.056  10.767  11.346
76305SOL     OW30753   1.041   8.527  10.141
76305SOL    HW130754   1.015   8.544  10.232
76305SOL    HW230755   0.961   8.541  10.091
76306SOL     OW30756  11.098   4.804   4.508
76306SOL    HW130757  11.136   4.861   4.575
76306SOL    HW230758  11.161   4.732   4.500
76307SOL     OW30759  10.087  14.177   2.346
76307SOL    HW130760  10.002  14.161   2.305
76307SOL    HW230761  10.073  14.254   2.401
76308SOL     OW30762  13.319   1.085   3.865
76308SOL    HW130763  13.371   1.091   3.946
76308SOL    HW230764  13.361   1.147   3.806
76309SOL     OW30765   5.068   0.679   7.880
76309SOL    HW130766   5.122   0.641   7.810
76309SOL    HW230767   5.018   0.605   7.914
76310SOL     OW30768   1.821   6.636   9.771
76310SOL    HW130769   1.790   6.705   9.712
76310SOL    HW230770   1.834   6.680   9.855
76311SOL     OW30771   9.876   4.812  12.186
76311SOL    HW130772   9.796   4.863  12.202
76311SOL    HW230773   9.858   4.727  12.225
76312SOL     OW30774   9.200  11.025  12.457
76312SOL    HW130775   9.106  11.009  12.451
76312SOL    HW230776   9.208  11.119  12.473
76313SOL     OW30777   6.583   1.649  11.570
76313SOL    HW130778   6.608   1.736  11.538
76313SOL    HW230779   6.491   1.641  11.545
76314SOL     OW30780  10.440   3.766   7.282
76314SOL    HW130781  10.460   3.673   7.287
76314SOL    HW230782  10.525   3.809   7.279
76315SOL     OW30783   9.362   3.826   0.080
76315SOL    HW130784   9.381   3.831  14.866
76315SOL    HW230785   9.296   3.757   0.087
76316SOL     OW30786  14.804   9.139   2.428
76316SOL    HW130787  14.759   9.055   2.414
76316SOL    HW230788   0.011   9.114   2.461
76317SOL     OW30789   4.220   3.993   5.763
76317SOL    HW130790   4.239   3.900   5.773
76317SOL    HW230791   4.196   4.022   5.851
76318SOL     OW30792   8.172   2.163   9.183
76318SOL    HW130793   8.231   2.110   9.236
76318SOL    HW230794   8.226   2.193   9.110
76319SOL     OW30795  11.309  12.571   5.747
76319SOL    HW130796  11.400  12.591   5.727
76319SOL    HW230797  11.267  12.656   5.762
76320SOL     OW30798   4.138  13.513  11.790
76320SOL    HW130799   4.111  13.481  11.876
76320SOL    HW230800   4.217  13.463  11.770
76321SOL     OW30801   9.655   8.471  13.413
76321SOL    HW130802   9.734   8.423  13.437
76321SOL    HW230803   9.627   8.514  13.493
76322SOL     OW30804   2.411  12.852   4.942
76322SOL    HW130805   2.375  12.764   4.929
76322SOL    HW230806   2.335  12.908   4.949
76323SOL     OW30807   1.150   6.967  11.496
76323SOL    HW130808   1.169   7.007  11.581
76323SOL    HW230809   1.189   6.879  11.502
76324SOL     OW30810   2.524  12.401  14.813
76324SOL    HW130811   2.559  12.485  14.841
76324SOL    HW230812   2.509  12.411  14.719
76325SOL     OW30813   7.417   1.226   5.815
76325SOL    HW130814   7.511   1.236   5.804
76325SOL    HW230815   7.388   1.308   5.855
76326SOL     OW30816  10.756  14.266   4.913
76326SOL    HW130817  10.774  14.178   4.880
76326SOL    HW230818  10.678  14.294   4.864
76327SOL     OW30819  14.625   4.356  13.189
76327SOL    HW130820  14.531   4.339  13.196
76327SOL    HW230821  14.639   4.433  13.244
76328SOL     OW30822  11.641   7.722   0.960
76328SOL    HW130823  11.655   7.792   0.896
76328SOL    HW230824  11.557   7.744   1.001
76329SOL     OW30825  10.431   0.323  10.950
76329SOL    HW130826  10.523   0.313  10.973
76329SOL    HW230827  10.409   0.243  10.901
76330SOL     OW30828   2.857   3.425   2.554
76330SOL    HW130829   2.905   3.403   2.634
76330SOL    HW230830   2.925   3.449   2.491
76331SOL     OW30831   6.472   6.470   3.895
76331SOL    HW130832   6.457   6.556   3.935
76331SOL    HW230833   6.566   6.470   3.875
76332SOL     OW30834   5.374  13.687   8.857
76332SOL    HW130835   5.309  13.657   8.793
76332SOL    HW230836   5.380  13.616   8.921
76333SOL     OW30837   7.672   0.796   6.579
76333SOL    HW130838   7.605   0.735   6.609
76333SOL    HW230839   7.754   0.747   6.584
76334SOL     OW30840   8.538   1.030  14.337
76334SOL    HW130841   8.457   1.080  14.323
76334SOL    HW230842   8.592   1.051  14.261
76335SOL     OW30843   9.945   8.448   8.675
76335SOL    HW130844   9.969   8.516   8.737
76335SOL    HW230845   9.909   8.495   8.600
76336SOL     OW30846  11.650   8.471   4.431
76336SOL    HW130847  11.599   8.510   4.359
76336SOL    HW230848  11.655   8.378   4.410
76337SOL     OW30849   5.566  14.773   6.969
76337SOL    HW130850   5.483  14.743   6.933
76337SOL    HW230851   5.546  14.858   7.008
76338SOL     OW30852  10.336   4.107   6.514
76338SOL    HW130853  10.379   4.193   6.518
76338SOL    HW230854  10.245   4.125   6.538
76339SOL     OW30855   7.703   6.700   6.639
76339SOL    HW130856   7.718   6.793   6.659
76339SOL    HW230857   7.789   6.665   6.619
76340SOL     OW30858  10.981   5.297   0.073
76340SOL    HW130859  10.923   5.302  14.876
76340SOL    HW230860  11.021   5.210   0.066
76341SOL     OW30861   8.970   7.470   4.231
76341SOL    HW130862   8.922   7.410   4.287
76341SOL    HW230863   8.971   7.553   4.279
76342SOL     OW30864   4.309   4.484   2.592
76342SOL    HW130865   4.384   4.444   2.548
76342SOL    HW230866   4.242   4.490   2.525
76343SOL     OW30867  12.252   3.662   6.374
76343SOL    HW130868  12.177   3.611   6.343
76343SOL    HW230869  12.214   3.726   6.434
76344SOL     OW30870  13.640   0.676  10.397
76344SOL    HW130871  13.547   0.662  10.380
76344SOL    HW230872  13.665   0.749  10.341
76345SOL     OW30873   6.117  14.146  10.019
76345SOL    HW130874   6.047  14.094  10.059
76345SOL    HW230875   6.156  14.087   9.954
76346SOL     OW30876  11.098   5.266   9.337
76346SOL    HW130877  11.166   5.289   9.273
76346SOL    HW230878  11.022   5.316   9.309
76347SOL     OW30879  14.232   7.941   5.591
76347SOL    HW130880  14.302   7.953   5.656
76347SOL    HW230881  14.270   7.881   5.527
76348SOL     OW30882   5.416   4.759  10.728
76348SOL    HW130883   5.463   4.798  10.654
76348SOL    HW230884   5.445   4.668  10.729
76349SOL     OW30885  12.383   3.994   4.970
76349SOL    HW130886  12.468   3.951   4.984
76349SOL    HW230887  12.346   3.947   4.895
76350SOL     OW30888  13.796  13.790  11.728
76350SOL    HW130889  13.804  13.886  11.733
76350SOL    HW230890  13.705  13.775  11.703
76351SOL     OW30891   6.048   6.898   9.887
76351SOL    HW130892   5.990   6.840   9.937
76351SOL    HW230893   6.063   6.972   9.946
76352SOL     OW30894  10.409   2.656   4.217
76352SOL    HW130895  10.450   2.657   4.130
76352SOL    HW230896  10.389   2.564   4.233
76353SOL     OW30897  10.870   4.920  11.931
76353SOL    HW130898  10.791   4.880  11.968
76353SOL    HW230899  10.925   4.845  11.906
76354SOL     OW30900   4.224   4.066   1.596
76354SOL    HW130901   4.297   4.015   1.631
76354SOL    HW230902   4.149   4.007   1.604
76355SOL     OW30903  10.758  10.498  13.596
76355SOL    HW130904  10.844  10.470  13.628
76355SOL    HW230905  10.770  10.509  13.502
76356SOL     OW30906  10.288   0.158  11.837
76356SOL    HW130907  10.374   0.141  11.876
76356SOL    HW230908  10.287   0.104  11.758
76357SOL     OW30909   5.320   2.316   8.367
76357SOL    HW130910   5.231   2.342   8.344
76357SOL    HW230911   5.312   2.226   8.398
76358SOL     OW30912   0.578   1.894  14.266
76358SOL    HW130913   0.658   1.947  14.262
76358SOL    HW230914   0.603   1.810  14.227
76359SOL     OW30915   3.911   8.402   8.816
76359SOL    HW130916   3.832   8.416   8.764
76359SOL    HW230917   3.966   8.479   8.799
76360SOL     OW30918   2.091   3.672  13.337
76360SOL    HW130919   2.148   3.607  13.295
76360SOL    HW230920   2.150   3.743  13.362
76361SOL     OW30921  12.608  10.544   3.875
76361SOL    HW130922  12.541  10.479   3.894
76361SOL    HW230923  12.607  10.553   3.780
76362SOL     OW30924  12.583   8.769   5.614
76362SOL    HW130925  12.642   8.694   5.620
76362SOL    HW230926  12.582   8.807   5.702
76363SOL     OW30927   3.328  10.076   9.999
76363SOL    HW130928   3.272  10.098   9.924
76363SOL    HW230929   3.384  10.153  10.010
76364SOL     OW30930   3.021   4.035   0.796
76364SOL    HW130931   2.940   3.985   0.805
76364SOL    HW230932   2.999   4.108   0.738
76365SOL     OW30933  10.818   0.230  13.133
76365SOL    HW130934  10.844   0.147  13.093
76365SOL    HW230935  10.723   0.229  13.133
76366SOL     OW30936   0.057   3.452   7.660
76366SOL    HW130937   0.121   3.422   7.595
76366SOL    HW230938  14.853   3.417   7.629
76367SOL     OW30939   3.429   0.318   8.595
76367SOL    HW130940   3.466   0.290   8.511
76367SOL    HW230941   3.378   0.396   8.574
76368SOL     OW30942  13.068   8.595   0.677
76368SOL    HW130943  12.985   8.567   0.639
76368SOL    HW230944  13.100   8.517   0.723
76369SOL     OW30945   5.891   1.937   1.712
76369SOL    HW130946   5.908   2.031   1.710
76369SOL    HW230947   5.897   1.913   1.805
76370SOL     OW30948   6.162  12.690  11.820
76370SOL    HW130949   6.093  12.676  11.885
76370SOL    HW230950   6.127  12.759  11.763
76371SOL     OW30951  13.698  10.767  11.245
76371SOL    HW130952  13.743  10.828  11.187
76371SOL    HW230953  13.665  10.699  11.186
76372SOL     OW30954   7.579   8.605  12.554
76372SOL    HW130955   7.507   8.579  12.497
76372SOL    HW230956   7.536   8.650  12.627
76373SOL     OW30957   9.710   2.580  12.624
76373SOL    HW130958   9.726   2.569  12.530
76373SOL    HW230959   9.754   2.662  12.646
76374SOL     OW30960   9.225   1.531   4.713
76374SOL    HW130961   9.201   1.523   4.621
76374SOL    HW230962   9.144   1.512   4.761
76375SOL     OW30963   4.737   5.795   5.415
76375SOL    HW130964   4.754   5.701   5.413
76375SOL    HW230965   4.764   5.822   5.503
76376SOL     OW30966  13.653   2.990  10.925
76376SOL    HW130967  13.592   3.023  10.990
76376SOL    HW230968  13.626   2.899  10.912
76377SOL     OW30969   4.887  13.766   5.383
76377SOL    HW130970   4.896  13.852   5.425
76377SOL    HW230971   4.970  13.721   5.400
76378SOL     OW30972  13.897   1.130   3.414
76378SOL    HW130973  13.903   1.091   3.502
76378SOL    HW230974  13.831   1.198   3.422
76379SOL     OW30975  14.217   0.346   0.766
76379SOL    HW130976  14.310   0.363   0.749
76379SOL    HW230977  14.194   0.276   0.705
76380SOL     OW30978   7.042   3.147  12.386
76380SOL    HW130979   6.969   3.206  12.365
76380SOL    HW230980   7.112   3.175  12.326
76381SOL     OW30981   9.242   7.845  14.063
76381SOL    HW130982   9.244   7.892  13.979
76381SOL    HW230983   9.328   7.806  14.071
76382SOL     OW30984   9.132   5.617   0.523
76382SOL    HW130985   9.143   5.581   0.612
76382SOL    HW230986   9.146   5.542   0.465
76383SOL     OW30987   6.607   9.459   8.040
76383SOL    HW130988   6.552   9.410   8.102
76383SOL    HW230989   6.695   9.423   8.054
76384SOL     OW30990  10.655   9.803  13.302
76384SOL    HW130991  10.713   9.835  13.372
76384SOL    HW230992  10.603   9.735  13.345
76385SOL     OW30993   8.736  10.147   3.941
76385SOL    HW130994   8.735  10.214   4.009
76385SOL    HW230995   8.784  10.187   3.868
76386SOL     OW30996   0.457   0.207   9.137
76386SOL    HW130997   0.413   0.184   9.055
76386SOL    HW230998   0.392   0.260   9.184
76387SOL     OW30999   8.741   3.139  13.139
76387SOL    HW131000   8.713   3.226  13.169
76387SOL    HW231001   8.810   3.113  13.200
76388SOL     OW31002   6.427   2.371   0.555
76388SOL    HW131003   6.411   2.277   0.548
76388SOL    HW231004   6.440   2.386   0.649
76389SOL     OW31005   0.729  10.392   8.539
76389SOL    HW131006   0.737  10.305   8.500
76389SOL    HW231007   0.820  10.421   8.550
76390SOL     OW31008   1.323   3.910  10.508
76390SOL    HW131009   1.299   3.818  10.518
76390SOL    HW231010   1.265   3.957  10.568
76391SOL     OW31011   6.121   8.745   9.525
76391SOL    HW131012   6.026   8.748   9.515
76391SOL    HW231013   6.137   8.784   9.611
76392SOL     OW31014   5.922  12.018   6.853
76392SOL    HW131015   5.923  12.088   6.788
76392SOL    HW231016   5.990  11.957   6.825
76393SOL     OW31017   7.897   2.845   6.529
76393SOL    HW131018   7.813   2.840   6.575
76393SOL    HW231019   7.946   2.769   6.561
76394SOL     OW31020   1.911   5.877   1.572
76394SOL    HW131021   1.839   5.814   1.574
76394SOL    HW231022   1.959   5.857   1.492
76395SOL     OW31023   1.332   5.830   7.940
76395SOL    HW131024   1.362   5.837   8.031
76395SOL    HW231025   1.386   5.894   7.893
76396SOL     OW31026   2.773  14.012   7.961
76396SOL    HW131027   2.850  13.979   7.915
76396SOL    HW231028   2.701  13.958   7.930
76397SOL     OW31029   0.468   5.219   7.728
76397SOL    HW131030   0.464   5.281   7.656
76397SOL    HW231031   0.538   5.253   7.784
76398SOL     OW31032   1.476   6.055  13.418
76398SOL    HW131033   1.502   6.128  13.474
76398SOL    HW231034   1.549   6.045  13.356
76399SOL     OW31035   7.868   5.470   5.401
76399SOL    HW131036   7.963   5.478   5.392
76399SOL    HW231037   7.833   5.524   5.331
76400SOL     OW31038  13.878   7.680   8.128
76400SOL    HW131039  13.952   7.709   8.182
76400SOL    HW231040  13.918   7.622   8.063
76401SOL     OW31041  10.359   8.137  10.718
76401SOL    HW131042  10.447   8.100  10.706
76401SOL    HW231043  10.375   8.228  10.744
76402SOL     OW31044   5.421   6.903   6.460
76402SOL    HW131045   5.472   6.974   6.422
76402SOL    HW231046   5.463   6.823   6.428
76403SOL     OW31047   0.076  13.979   9.540
76403SOL    HW131048   0.062  13.890   9.508
76403SOL    HW231049   0.108  13.968   9.629
76404SOL     OW31050   6.373   6.000   3.149
76404SOL    HW131051   6.456   5.977   3.108
76404SOL    HW231052   6.312   5.932   3.120
76405SOL     OW31053   0.578   1.331   5.429
76405SOL    HW131054   0.599   1.422   5.405
76405SOL    HW231055   0.571   1.333   5.525
76406SOL     OW31056  10.898   9.305   8.635
76406SOL    HW131057  10.918   9.255   8.556
76406SOL    HW231058  10.805   9.290   8.650
76407SOL     OW31059   5.921   3.382   2.083
76407SOL    HW131060   5.873   3.404   2.162
76407SOL    HW231061   5.953   3.466   2.050
76408SOL     OW31062  10.337   9.716   4.883
76408SOL    HW131063  10.417   9.712   4.934
76408SOL    HW231064  10.343   9.799   4.836
76409SOL     OW31065   0.734   7.370  10.733
76409SOL    HW131066   0.664   7.435  10.747
76409SOL    HW231067   0.750   7.333  10.819
76410SOL     OW31068   4.685   1.320  11.940
76410SOL    HW131069   4.689   1.349  12.031
76410SOL    HW231070   4.764   1.355  11.899
76411SOL     OW31071   8.783   1.480   2.521
76411SOL    HW131072   8.708   1.466   2.462
76411SOL    HW231073   8.848   1.416   2.491
76412SOL     OW31074  11.182  11.617  13.575
76412SOL    HW131075  11.134  11.672  13.513
76412SOL    HW231076  11.173  11.528  13.542
76413SOL     OW31077   8.748  14.479   7.995
76413SOL    HW131078   8.668  14.440   7.960
76413SOL    HW231079   8.717  14.550   8.051
76414SOL     OW31080   3.328  14.794  13.444
76414SOL    HW131081   3.349   0.007  13.456
76414SOL    HW231082   3.252  14.779  13.501
76415SOL     OW31083   7.752   7.757  12.057
76415SOL    HW131084   7.676   7.698  12.056
76415SOL    HW231085   7.714   7.845  12.054
76416SOL     OW31086   2.145   8.989   8.023
76416SOL    HW131087   2.233   9.026   8.023
76416SOL    HW231088   2.158   8.895   8.011
76417SOL     OW31089   4.881   4.590   6.749
76417SOL    HW131090   4.901   4.672   6.704
76417SOL    HW231091   4.956   4.575   6.806
76418SOL     OW31092  10.287   6.882   2.921
76418SOL    HW131093  10.208   6.927   2.891
76418SOL    HW231094  10.358   6.920   2.869
76419SOL     OW31095   9.655   6.823  13.046
76419SOL    HW131096   9.655   6.871  12.963
76419SOL    HW231097   9.585   6.759  13.036
76420SOL     OW31098   0.018   5.020   2.890
76420SOL    HW131099   0.067   5.075   2.829
76420SOL    HW231100   0.077   5.009   2.965
76421SOL     OW31101   4.257  11.875   6.822
76421SOL    HW131102   4.252  11.848   6.914
76421SOL    HW231103   4.172  11.851   6.785
76422SOL     OW31104  11.350   8.090   0.935
76422SOL    HW131105  11.279   8.129   0.884
76422SOL    HW231106  11.429   8.133   0.903
76423SOL     OW31107  12.475   6.039   4.816
76423SOL    HW131108  12.475   6.006   4.906
76423SOL    HW231109  12.383   6.059   4.798
76424SOL     OW31110   6.480   7.012   2.451
76424SOL    HW131111   6.538   7.073   2.405
76424SOL    HW231112   6.446   7.062   2.525
76425SOL     OW31113   2.498   2.938  11.989
76425SOL    HW131114   2.522   2.909  12.077
76425SOL    HW231115   2.579   2.973  11.952
76426SOL     OW31116  12.689   2.361   7.242
76426SOL    HW131117  12.710   2.391   7.153
76426SOL    HW231118  12.623   2.293   7.229
76427SOL     OW31119   8.959   9.545   9.340
76427SOL    HW131120   8.893   9.492   9.386
76427SOL    HW231121   9.013   9.482   9.293
76428SOL     OW31122  13.344  13.767  10.342
76428SOL    HW131123  13.335  13.725  10.428
76428SOL    HW231124  13.438  13.761  10.322
76429SOL     OW31125  11.875   6.867  12.114
76429SOL    HW131126  11.809   6.853  12.046
76429SOL    HW231127  11.861   6.794  12.175
76430SOL     OW31128   5.759   1.918   7.339
76430SOL    HW131129   5.814   1.975   7.285
76430SOL    HW231130   5.821   1.855   7.377
76431SOL     OW31131   2.105   8.774   2.656
76431SOL    HW131132   2.027   8.799   2.705
76431SOL    HW231133   2.083   8.795   2.565
76432SOL     OW31134  10.340   5.252  10.649
76432SOL    HW131135  10.432   5.223  10.645
76432SOL    HW231136  10.298   5.209  10.575
76433SOL     OW31137   0.957   2.802  11.721
76433SOL    HW131138   1.002   2.856  11.656
76433SOL    HW231139   0.904   2.741  11.670
76434SOL     OW31140   6.360   6.569   8.046
76434SOL    HW131141   6.452   6.566   8.071
76434SOL    HW231142   6.354   6.643   7.984
76435SOL     OW31143  10.533   2.847   6.330
76435SOL    HW131144  10.589   2.815   6.259
76435SOL    HW231145  10.445   2.847   6.294
76436SOL     OW31146   9.472   5.076   7.658
76436SOL    HW131147   9.440   5.003   7.710
76436SOL    HW231148   9.397   5.101   7.603
76437SOL     OW31149  11.217   2.043  12.130
76437SOL    HW131150  11.184   2.060  12.219
76437SOL    HW231151  11.297   2.095  12.124
76438SOL     OW31152  12.981   7.090  12.713
76438SOL    HW131153  13.041   7.063  12.643
76438SOL    HW231154  13.038   7.104  12.789
76439SOL     OW31155   6.631  11.657   6.700
76439SOL    HW131156   6.591  11.591   6.756
76439SOL    HW231157   6.723  11.631   6.694
76440SOL     OW31158   4.337   9.851   8.627
76440SOL    HW131159   4.417   9.853   8.574
76440SOL    HW231160   4.274   9.802   8.573
76441SOL     OW31161  10.263  10.494   7.626
76441SOL    HW131162  10.313  10.436   7.684
76441SOL    HW231163  10.318  10.503   7.548
76442SOL     OW31164  14.848  14.716   5.684
76442SOL    HW131165  14.876  14.784   5.623
76442SOL    HW231166   0.045  14.662   5.698
76443SOL     OW31167  11.016   3.452   2.334
76443SOL    HW131168  10.953   3.524   2.327
76443SOL    HW231169  11.080   3.468   2.265
76444SOL     OW31170   6.208   2.792  14.217
76444SOL    HW131171   6.179   2.700  14.216
76444SOL    HW231172   6.132   2.840  14.250
76445SOL     OW31173   8.842   6.724   0.964
76445SOL    HW131174   8.913   6.683   1.014
76445SOL    HW231175   8.838   6.813   0.998
76446SOL     OW31176   1.024   5.260  10.596
76446SOL    HW131177   0.947   5.208  10.616
76446SOL    HW231178   1.007   5.345  10.636
76447SOL     OW31179   5.214   1.422   6.160
76447SOL    HW131180   5.274   1.449   6.229
76447SOL    HW231181   5.239   1.331   6.142
76448SOL     OW31182   6.172  14.784  10.856
76448SOL    HW131183   6.126  14.727  10.794
76448SOL    HW231184   6.263  14.754  10.853
76449SOL     OW31185  10.470   0.599   1.852
76449SOL    HW131186  10.411   0.648   1.794
76449SOL    HW231187  10.528   0.666   1.889
76450SOL     OW31188   9.254   1.392  10.864
76450SOL    HW131189   9.279   1.426  10.778
76450SOL    HW231190   9.331   1.342  10.893
76451SOL     OW31191   1.229   4.679  11.043
76451SOL    HW131192   1.281   4.599  11.038
76451SOL    HW231193   1.293   4.749  11.058
76452SOL     OW31194   3.786  14.606   7.505
76452SOL    HW131195   3.813  14.563   7.586
76452SOL    HW231196   3.793  14.537   7.438
76453SOL     OW31197  11.076   2.555  12.626
76453SOL    HW131198  11.149   2.611  12.600
76453SOL    HW231199  11.033   2.602  12.697
76454SOL     OW31200   0.758   2.960   8.791
76454SOL    HW131201   0.670   2.980   8.824
76454SOL    HW231202   0.812   3.032   8.823
76455SOL     OW31203  14.242   3.888   1.148
76455SOL    HW131204  14.206   3.914   1.232
76455SOL    HW231205  14.308   3.956   1.129
76456SOL     OW31206   4.570   1.138   1.204
76456SOL    HW131207   4.519   1.124   1.284
76456SOL    HW231208   4.631   1.208   1.226
76457SOL     OW31209   1.502   7.609   2.918
76457SOL    HW131210   1.568   7.582   2.855
76457SOL    HW231211   1.420   7.572   2.885
76458SOL     OW31212  10.302   9.197  10.970
76458SOL    HW131213  10.291   9.230  10.880
76458SOL    HW231214  10.348   9.268  11.015
76459SOL     OW31215  10.676   6.933   0.633
76459SOL    HW131216  10.604   6.907   0.575
76459SOL    HW231217  10.703   7.019   0.601
76460SOL     OW31218   2.973  12.878   9.176
76460SOL    HW131219   2.989  12.783   9.170
76460SOL    HW231220   2.882  12.889   9.149
76461SOL     OW31221  14.399   3.544   6.761
76461SOL    HW131222  14.397   3.535   6.666
76461SOL    HW231223  14.337   3.478   6.793
76462SOL     OW31224  13.694  12.668   5.083
76462SOL    HW131225  13.718  12.659   4.991
76462SOL    HW231226  13.771  12.705   5.125
76463SOL     OW31227  10.418   6.149  10.443
76463SOL    HW131228  10.384   6.221  10.496
76463SOL    HW231229  10.423   6.184  10.354
76464SOL     OW31230  13.805   3.308  11.556
76464SOL    HW131231  13.775   3.321  11.466
76464SOL    HW231232  13.832   3.217  11.559
76465SOL     OW31233   7.727   3.685  11.758
76465SOL    HW131234   7.771   3.610  11.716
76465SOL    HW231235   7.782   3.760  11.736
76466SOL     OW31236  14.671   4.414   2.466
76466SOL    HW131237  14.707   4.493   2.507
76466SOL    HW231238  14.643   4.360   2.540
76467SOL     OW31239  13.803   4.283  11.606
76467SOL    HW131240  13.816   4.306  11.514
76467SOL    HW231241  13.747   4.352  11.641
76468SOL     OW31242   6.758   2.517  10.318
76468SOL    HW131243   6.663   2.533  10.321
76468SOL    HW231244   6.786   2.521  10.409
76469SOL     OW31245  13.503  14.435   7.658
76469SOL    HW131246  13.534  14.505   7.715
76469SOL    HW231247  13.573  14.370   7.660
76470SOL     OW31248   4.847   0.390  14.577
76470SOL    HW131249   4.868   0.342  14.497
76470SOL    HW231250   4.797   0.328  14.630
76471SOL     OW31251   1.386   9.678   2.886
76471SOL    HW131252   1.438   9.615   2.936
76471SOL    HW231253   1.380   9.640   2.798
76472SOL     OW31254   5.689   1.606  10.791
76472SOL    HW131255   5.702   1.610  10.886
76472SOL    HW231256   5.594   1.592  10.781
76473SOL     OW31257   4.814   0.480   9.196
76473SOL    HW131258   4.872   0.535   9.249
76473SOL    HW231259   4.761   0.541   9.145
76474SOL     OW31260   8.008   4.498   0.119
76474SOL    HW131261   7.956   4.553   0.061
76474SOL    HW231262   8.087   4.479   0.069
76475SOL     OW31263   0.479  14.526  11.000
76475SOL    HW131264   0.391  14.491  10.991
76475SOL    HW231265   0.472  14.618  10.972
76476SOL     OW31266   5.311   9.522   0.807
76476SOL    HW131267   5.263   9.598   0.841
76476SOL    HW231268   5.304   9.531   0.711
76477SOL     OW31269   6.473  13.975   0.200
76477SOL    HW131270   6.401  13.923   0.236
76477SOL    HW231271   6.535  13.983   0.271
76478SOL     OW31272  10.825  14.363   9.370
76478SOL    HW131273  10.775  14.359   9.451
76478SOL    HW231274  10.765  14.402   9.307
76479SOL     OW31275  10.991   7.070   5.676
76479SOL    HW131276  10.985   7.162   5.654
76479SOL    HW231277  10.933   7.060   5.752
76480SOL     OW31278  11.913   8.039   5.228
76480SOL    HW131279  11.853   8.025   5.301
76480SOL    HW231280  11.948   8.127   5.242
76481SOL     OW31281   5.287   8.025   2.342
76481SOL    HW131282   5.289   8.107   2.293
76481SOL    HW231283   5.278   8.052   2.433
76482SOL     OW31284   9.705   6.870   5.103
76482SOL    HW131285   9.720   6.957   5.139
76482SOL    HW231286   9.744   6.810   5.167
76483SOL     OW31287   7.357   5.360   0.244
76483SOL    HW131288   7.380   5.304   0.170
76483SOL    HW231289   7.408   5.439   0.231
76484SOL     OW31290   0.393   5.355   5.260
76484SOL    HW131291   0.302   5.345   5.235
76484SOL    HW231292   0.442   5.348   5.178
76485SOL     OW31293   5.926  11.770   9.959
76485SOL    HW131294   5.974  11.826   9.898
76485SOL    HW231295   5.895  11.697   9.906
76486SOL     OW31296  11.476  10.750  14.175
76486SOL    HW131297  11.444  10.840  14.178
76486SOL    HW231298  11.545  10.747  14.242
76487SOL     OW31299   4.493   1.062   5.795
76487SOL    HW131300   4.571   1.021   5.835
76487SOL    HW231301   4.488   1.148   5.836
76488SOL     OW31302  11.997  13.320   3.070
76488SOL    HW131303  12.028  13.386   3.132
76488SOL    HW231304  11.982  13.369   2.989
76489SOL     OW31305   5.986  14.334   6.516
76489SOL    HW131306   5.957  14.323   6.426
76489SOL    HW231307   6.010  14.246   6.544
76490SOL     OW31308   8.350  12.093   9.944
76490SOL    HW131309   8.272  12.053   9.904
76490SOL    HW231310   8.376  12.031  10.013
76491SOL     OW31311   0.836   4.624  10.462
76491SOL    HW131312   0.916   4.677  10.462
76491SOL    HW231313   0.860   4.543  10.417
76492SOL     OW31314   1.614  10.537   0.017
76492SOL    HW131315   1.635  10.449   0.049
76492SOL    HW231316   1.553  10.523  14.825
76493SOL     OW31317   1.501   8.041   0.148
76493SOL    HW131318   1.466   8.004   0.067
76493SOL    HW231319   1.588   8.073   0.124
76494SOL     OW31320   2.854  14.299  12.580
76494SOL    HW131321   2.819  14.235  12.518
76494SOL    HW231322   2.788  14.304  12.649
76495SOL     OW31323  13.597   7.755  13.895
76495SOL    HW131324  13.665   7.698  13.858
76495SOL    HW231325  13.515   7.706  13.881
76496SOL     OW31326   3.047   4.268   9.955
76496SOL    HW131327   2.979   4.201   9.941
76496SOL    HW231328   3.041   4.324   9.877
76497SOL     OW31329   7.275   6.631  14.436
76497SOL    HW131330   7.266   6.622  14.531
76497SOL    HW231331   7.367   6.611  14.418
76498SOL     OW31332   9.113   1.062   8.768
76498SOL    HW131333   9.127   0.968   8.777
76498SOL    HW231334   9.093   1.075   8.675
76499SOL     OW31335   9.782   0.461   1.654
76499SOL    HW131336   9.695   0.498   1.657
76499SOL    HW231337   9.818   0.475   1.742
76500SOL     OW31338   0.983   4.780   8.184
76500SOL    HW131339   0.928   4.745   8.114
76500SOL    HW231340   1.067   4.797   8.143
76501SOL     OW31341  11.206   0.920  13.873
76501SOL    HW131342  11.240   0.993  13.925
76501SOL    HW231343  11.159   0.866  13.936
76502SOL     OW31344   7.665   2.563   2.936
76502SOL    HW131345   7.609   2.631   2.899
76502SOL    HW231346   7.635   2.552   3.026
76503SOL     OW31347  13.635   0.869  12.108
76503SOL    HW131348  13.590   0.858  12.024
76503SOL    HW231349  13.564   0.880  12.171
76504SOL     OW31350   0.725  14.548   1.790
76504SOL    HW131351   0.749  14.531   1.699
76504SOL    HW231352   0.796  14.602   1.824
76505SOL     OW31353   3.004  13.211   9.684
76505SOL    HW131354   2.918  13.238   9.715
76505SOL    HW231355   3.065  13.241   9.751
76506SOL     OW31356  13.509   0.442   3.036
76506SOL    HW131357  13.424   0.485   3.037
76506SOL    HW231358  13.489   0.348   3.031
76507SOL     OW31359  10.806  13.743   3.736
76507SOL    HW131360  10.830  13.702   3.652
76507SOL    HW231361  10.719  13.708   3.755
76508SOL     OW31362  14.748  12.032   6.484
76508SOL    HW131363  14.762  11.947   6.526
76508SOL    HW231364  14.671  12.068   6.528
76509SOL     OW31365   1.965   3.339   8.119
76509SOL    HW131366   2.041   3.281   8.118
76509SOL    HW231367   1.965   3.381   8.033
76510SOL     OW31368  14.278   0.250   1.020
76510SOL    HW131369  14.357   0.217   0.978
76510SOL    HW231370  14.211   0.250   0.952
76511SOL     OW31371  10.713   2.914   1.560
76511SOL    HW131372  10.721   2.856   1.484
76511SOL    HW231373  10.654   2.984   1.531
76512SOL     OW31374   9.530   2.403   2.828
76512SOL    HW131375   9.437   2.386   2.820
76512SOL    HW231376   9.555   2.367   2.912
76513SOL     OW31377   7.440   0.638   2.403
76513SOL    HW131378   7.505   0.699   2.367
76513SOL    HW231379   7.468   0.552   2.371
76514SOL     OW31380   6.433  13.496  11.207
76514SOL    HW131381   6.437  13.408  11.168
76514SOL    HW231382   6.372  13.544  11.151
76515SOL     OW31383  13.507  10.995   7.949
76515SOL    HW131384  13.485  10.904   7.968
76515SOL    HW231385  13.599  10.993   7.923
76516SOL     OW31386   6.316   0.090   8.261
76516SOL    HW131387   6.271   0.172   8.239
76516SOL    HW231388   6.398   0.119   8.303
76517SOL     OW31389   6.259   3.337   4.505
76517SOL    HW131390   6.215   3.397   4.565
76517SOL    HW231391   6.254   3.252   4.548
76518SOL     OW31392   7.622   1.709   0.912
76518SOL    HW131393   7.557   1.770   0.875
76518SOL    HW231394   7.698   1.718   0.854
76519SOL     OW31395  11.731   1.305  11.912
76519SOL    HW131396  11.777   1.245  11.854
76519SOL    HW231397  11.642   1.270  11.918
76520SOL     OW31398   6.609   9.264  14.036
76520SOL    HW131399   6.636   9.235  13.949
76520SOL    HW231400   6.613   9.185  14.090
76521SOL     OW31401   4.843   2.475   9.600
76521SOL    HW131402   4.831   2.570   9.600
76521SOL    HW231403   4.938   2.463   9.597
76522SOL     OW31404  11.672   0.636  11.932
76522SOL    HW131405  11.597   0.577  11.939
76522SOL    HW231406  11.720   0.604  11.855
76523SOL     OW31407   7.902  13.135  11.383
76523SOL    HW131408   7.807  13.123  11.383
76523SOL    HW231409   7.914  13.227  11.410
76524SOL     OW31410  11.337   1.133  13.280
76524SOL    HW131411  11.307   1.199  13.342
76524SOL    HW231412  11.275   1.138  13.208
76525SOL     OW31413  13.330  11.466   9.400
76525SOL    HW131414  13.351  11.559   9.389
76525SOL    HW231415  13.349  11.449   9.493
76526SOL     OW31416   7.981  14.862   9.064
76526SOL    HW131417   8.005   0.057   9.119
76526SOL    HW231418   8.060  14.807   9.064
76527SOL     OW31419   8.585   2.535  14.164
76527SOL    HW131420   8.547   2.516  14.250
76527SOL    HW231421   8.509   2.544  14.107
76528SOL     OW31422  10.714   5.784  10.394
76528SOL    HW131423  10.783   5.738  10.347
76528SOL    HW231424  10.747   5.874  10.402
76529SOL     OW31425  11.167   8.435   1.983
76529SOL    HW131426  11.077   8.468   1.992
76529SOL    HW231427  11.187   8.443   1.890
76530SOL     OW31428   8.918  12.237   4.881
76530SOL    HW131429   8.854  12.169   4.864
76530SOL    HW231430   8.969  12.204   4.955
76531SOL     OW31431  12.107  13.386   8.723
76531SOL    HW131432  12.016  13.366   8.745
76531SOL    HW231433  12.151  13.393   8.808
76532SOL     OW31434   5.271  11.094  14.182
76532SOL    HW131435   5.349  11.048  14.213
76532SOL    HW231436   5.241  11.144  14.258
76533SOL     OW31437   9.995   0.340  10.134
76533SOL    HW131438  10.064   0.285  10.172
76533SOL    HW231439   9.926   0.341  10.201
76534SOL     OW31440   2.545   1.043  12.999
76534SOL    HW131441   2.526   1.055  13.092
76534SOL    HW231442   2.623   0.988  12.997
76535SOL     OW31443  13.062  13.070  10.067
76535SOL    HW131444  13.006  13.019  10.125
76535SOL    HW231445  13.123  13.115  10.125
76536SOL     OW31446   3.585  10.807   3.116
76536SOL    HW131447   3.605  10.715   3.098
76536SOL    HW231448   3.625  10.855   3.043
76537SOL     OW31449   2.920   7.555   2.481
76537SOL    HW131450   2.914   7.534   2.575
76537SOL    HW231451   2.863   7.631   2.471
76538SOL     OW31452   1.344   6.229  13.245
76538SOL    HW131453   1.368   6.154  13.300
76538SOL    HW231454   1.376   6.305  13.294
76539SOL     OW31455  12.499   7.489  14.551
76539SOL    HW131456  12.587   7.514  14.523
76539SOL    HW231457  12.447   7.489  14.470
76540SOL     OW31458   5.082  12.930   8.637
76540SOL    HW131459   5.065  12.836   8.627
76540SOL    HW231460   5.104  12.940   8.729
76541SOL     OW31461   8.940   6.589   1.678
76541SOL    HW131462   9.024   6.547   1.660
76541SOL    HW231463   8.960   6.683   1.683
76542SOL     OW31464   7.168   9.780  10.634
76542SOL    HW131465   7.228   9.786  10.708
76542SOL    HW231466   7.224   9.761  10.559
76543SOL     OW31467   5.273   8.648   3.323
76543SOL    HW131468   5.261   8.553   3.328
76543SOL    HW231469   5.197   8.684   3.369
76544SOL     OW31470   9.066   9.742   4.295
76544SOL    HW131471   8.991   9.758   4.354
76544SOL    HW231472   9.026   9.709   4.215
76545SOL     OW31473   5.032   4.897   0.503
76545SOL    HW131474   5.016   4.981   0.461
76545SOL    HW231475   5.102   4.857   0.451
76546SOL     OW31476   8.647   7.650   3.136
76546SOL    HW131477   8.555   7.653   3.110
76546SOL    HW231478   8.670   7.557   3.128
76547SOL     OW31479   7.618   7.341  12.273
76547SOL    HW131480   7.581   7.373  12.356
76547SOL    HW231481   7.712   7.337  12.289
76548SOL     OW31482  12.181  13.113  14.162
76548SOL    HW131483  12.106  13.053  14.167
76548SOL    HW231484  12.192  13.130  14.068
76549SOL     OW31485   2.568   9.108   3.102
76549SOL    HW131486   2.564   9.028   3.049
76549SOL    HW231487   2.661   9.116   3.126
76550SOL     OW31488   2.346   4.661   9.860
76550SOL    HW131489   2.259   4.638   9.892
76550SOL    HW231490   2.374   4.584   9.811
76551SOL     OW31491   4.886   7.202  10.212
76551SOL    HW131492   4.960   7.180  10.156
76551SOL    HW231493   4.874   7.296  10.200
76552SOL     OW31494   8.489  10.743   5.299
76552SOL    HW131495   8.583  10.727   5.299
76552SOL    HW231496   8.450  10.660   5.327
76553SOL     OW31497   1.754   7.415   7.890
76553SOL    HW131498   1.669   7.439   7.853
76553SOL    HW231499   1.779   7.490   7.943
76554SOL     OW31500   7.673  10.240   3.085
76554SOL    HW131501   7.679  10.192   3.168
76554SOL    HW231502   7.580  10.233   3.061
76555SOL     OW31503   2.237   3.124   0.523
76555SOL    HW131504   2.183   3.048   0.502
76555SOL    HW231505   2.308   3.120   0.458
76556SOL     OW31506  11.204   9.938   7.923
76556SOL    HW131507  11.125   9.892   7.895
76556SOL    HW231508  11.255   9.872   7.969
76557SOL     OW31509   6.109   2.384   6.303
76557SOL    HW131510   6.075   2.383   6.392
76557SOL    HW231511   6.124   2.477   6.284
76558SOL     OW31512   0.981   2.754   8.467
76558SOL    HW131513   1.066   2.775   8.506
76558SOL    HW231514   0.922   2.822   8.499
76559SOL     OW31515  13.392  10.829  11.154
76559SOL    HW131516  13.458  10.858  11.092
76559SOL    HW231517  13.402  10.733  11.156
76560SOL     OW31518   7.528   8.288   3.422
76560SOL    HW131519   7.549   8.340   3.344
76560SOL    HW231520   7.609   8.240   3.441
76561SOL     OW31521   8.466  11.805  13.225
76561SOL    HW131522   8.478  11.872  13.158
76561SOL    HW231523   8.460  11.853  13.307
76562SOL     OW31524  12.971  13.611  10.401
76562SOL    HW131525  13.025  13.655  10.336
76562SOL    HW231526  12.936  13.681  10.456
76563SOL     OW31527   2.197   7.635   5.226
76563SOL    HW131528   2.275   7.685   5.200
76563SOL    HW231529   2.123   7.687   5.195
76564SOL     OW31530   9.278   1.980  13.719
76564SOL    HW131531   9.300   2.070  13.743
76564SOL    HW231532   9.184   1.983  13.702
76565SOL     OW31533   6.099  10.782  12.360
76565SOL    HW131534   6.025  10.841  12.346
76565SOL    HW231535   6.068  10.697  12.329
76566SOL     OW31536  14.223  11.851   2.821
76566SOL    HW131537  14.292  11.845   2.887
76566SOL    HW231538  14.158  11.910   2.859
76567SOL     OW31539  11.682  10.898  11.860
76567SOL    HW131540  11.752  10.858  11.911
76567SOL    HW231541  11.621  10.932  11.925
76568SOL     OW31542  11.675  11.813  12.562
76568SOL    HW131543  11.714  11.726  12.563
76568SOL    HW231544  11.733  11.866  12.616
76569SOL     OW31545   1.029  14.689  12.321
76569SOL    HW131546   1.057  14.743  12.247
76569SOL    HW231547   1.108  14.642  12.348
76570SOL     OW31548   4.864  13.657   2.126
76570SOL    HW131549   4.841  13.618   2.042
76570SOL    HW231550   4.791  13.634   2.184
76571SOL     OW31551  12.595  12.855   2.700
76571SOL    HW131552  12.570  12.772   2.659
76571SOL    HW231553  12.665  12.889   2.644
76572SOL     OW31554   0.485   5.207  13.718
76572SOL    HW131555   0.477   5.170  13.630
76572SOL    HW231556   0.571   5.178  13.748
76573SOL     OW31557   4.711   6.500   8.340
76573SOL    HW131558   4.680   6.540   8.258
76573SOL    HW231559   4.764   6.425   8.311
76574SOL     OW31560   3.353   7.530   6.068
76574SOL    HW131561   3.398   7.614   6.078
76574SOL    HW231562   3.357   7.512   5.974
76575SOL     OW31563   9.143   3.170  11.996
76575SOL    HW131564   9.161   3.076  11.990
76575SOL    HW231565   9.206   3.202  12.060
76576SOL     OW31566   1.125   9.501  14.293
76576SOL    HW131567   1.214   9.534  14.304
76576SOL    HW231568   1.076   9.539  14.366
76577SOL     OW31569  10.880   5.211   3.152
76577SOL    HW131570  10.810   5.153   3.182
76577SOL    HW231571  10.912   5.253   3.231
76578SOL     OW31572  12.108   8.616   6.250
76578SOL    HW131573  12.031   8.571   6.285
76578SOL    HW231574  12.153   8.549   6.198
76579SOL     OW31575   0.961   7.356   4.726
76579SOL    HW131576   0.883   7.411   4.729
76579SOL    HW231577   0.981   7.337   4.818
76580SOL     OW31578  10.215   1.948   0.076
76580SOL    HW131579  10.226   2.020   0.138
76580SOL    HW231580  10.138   1.901   0.108
76581SOL     OW31581   0.616   0.388   9.665
76581SOL    HW131582   0.668   0.441   9.725
76581SOL    HW231583   0.547   0.350   9.720
76582SOL     OW31584  10.450   3.462   5.784
76582SOL    HW131585  10.488   3.546   5.759
76582SOL    HW231586  10.365   3.460   5.740
76583SOL     OW31587   0.922   8.936  12.297
76583SOL    HW131588   0.886   9.025  12.307
76583SOL    HW231589   0.938   8.927  12.204
76584SOL     OW31590   3.812   1.874   2.618
76584SOL    HW131591   3.843   1.863   2.708
76584SOL    HW231592   3.864   1.946   2.583
76585SOL     OW31593   1.454   3.983   7.669
76585SOL    HW131594   1.463   4.076   7.652
76585SOL    HW231595   1.535   3.959   7.714
76586SOL     OW31596   5.623  12.980  10.972
76586SOL    HW131597   5.718  12.971  10.967
76586SOL    HW231598   5.609  13.051  11.034
76587SOL     OW31599   9.433  13.256   4.436
76587SOL    HW131600   9.429  13.351   4.444
76587SOL    HW231601   9.467  13.226   4.521
76588SOL     OW31602  14.048   6.134   9.107
76588SOL    HW131603  14.036   6.075   9.032
76588SOL    HW231604  14.070   6.076   9.180
76589SOL     OW31605   6.581   0.333  11.656
76589SOL    HW131606   6.666   0.358  11.692
76589SOL    HW231607   6.527   0.412  11.664
76590SOL     OW31608   4.960   4.990   5.989
76590SOL    HW131609   5.051   4.961   6.002
76590SOL    HW231610   4.930   4.939   5.914
76591SOL     OW31611   3.345  12.738   8.087
76591SOL    HW131612   3.292  12.685   8.147
76591SOL    HW231613   3.311  12.826   8.097
76592SOL     OW31614   4.910   1.453   2.683
76592SOL    HW131615   4.893   1.360   2.693
76592SOL    HW231616   4.952   1.461   2.597
76593SOL     OW31617  14.130   6.881   6.938
76593SOL    HW131618  14.164   6.825   7.009
76593SOL    HW231619  14.063   6.935   6.980
76594SOL     OW31620   8.794   8.408   6.262
76594SOL    HW131621   8.818   8.416   6.170
76594SOL    HW231622   8.699   8.399   6.262
76595SOL     OW31623   4.627   2.528   5.113
76595SOL    HW131624   4.638   2.513   5.019
76595SOL    HW231625   4.601   2.620   5.120
76596SOL     OW31626  14.846   1.208   2.864
76596SOL    HW131627  14.795   1.208   2.783
76596SOL    HW231628  14.794   1.155   2.924
76597SOL     OW31629   0.156   8.627   3.541
76597SOL    HW131630   0.074   8.669   3.516
76597SOL    HW231631   0.140   8.594   3.630
76598SOL     OW31632   1.076  12.615   8.519
76598SOL    HW131633   1.040  12.690   8.566
76598SOL    HW231634   1.075  12.641   8.427
76599SOL     OW31635  13.866  12.266   2.677
76599SOL    HW131636  13.842  12.284   2.586
76599SOL    HW231637  13.954  12.228   2.671
76600SOL     OW31638  13.282   9.377   9.598
76600SOL    HW131639  13.233   9.368   9.517
76600SOL    HW231640  13.341   9.450   9.583
76601SOL     OW31641   5.042   7.876   6.697
76601SOL    HW131642   5.106   7.822   6.743
76601SOL    HW231643   4.979   7.813   6.662
76602SOL     OW31644   5.097  11.885  10.375
76602SOL    HW131645   5.159  11.819  10.405
76602SOL    HW231646   5.110  11.959  10.434
76603SOL     OW31647  14.290   3.402   7.124
76603SOL    HW131648  14.255   3.478   7.171
76603SOL    HW231649  14.313   3.340   7.194
76604SOL     OW31650   0.517   2.059   8.616
76604SOL    HW131651   0.536   2.134   8.672
76604SOL    HW231652   0.565   2.076   8.535
76605SOL     OW31653   9.496  12.629  14.642
76605SOL    HW131654   9.433  12.578  14.692
76605SOL    HW231655   9.456  12.716  14.632
76606SOL     OW31656   3.410   4.879   4.673
76606SOL    HW131657   3.353   4.890   4.597
76606SOL    HW231658   3.490   4.839   4.637
76607SOL     OW31659   3.280  12.307   1.532
76607SOL    HW131660   3.248  12.219   1.551
76607SOL    HW231661   3.242  12.328   1.446
76608SOL     OW31662   8.555   0.186   7.645
76608SOL    HW131663   8.486   0.122   7.627
76608SOL    HW231664   8.537   0.258   7.585
76609SOL     OW31665   2.842   4.972   1.718
76609SOL    HW131666   2.916   4.912   1.706
76609SOL    HW231667   2.854   5.008   1.806
76610SOL     OW31668   1.093   1.184   5.915
76610SOL    HW131669   1.126   1.104   5.876
76610SOL    HW231670   1.152   1.253   5.884
76611SOL     OW31671   4.726   4.013  10.651
76611SOL    HW131672   4.771   4.070  10.713
76611SOL    HW231673   4.666   3.962  10.705
76612SOL     OW31674   3.992  10.146   7.978
76612SOL    HW131675   4.087  10.144   7.977
76612SOL    HW231676   3.967  10.158   7.886
76613SOL     OW31677   3.269   7.730   8.083
76613SOL    HW131678   3.179   7.756   8.062
76613SOL    HW231679   3.278   7.642   8.046
76614SOL     OW31680   6.770   3.890  13.462
76614SOL    HW131681   6.805   3.865  13.376
76614SOL    HW231682   6.716   3.967  13.443
76615SOL     OW31683   6.365   8.754   1.214
76615SOL    HW131684   6.421   8.687   1.253
76615SOL    HW231685   6.306   8.706   1.155
76616SOL     OW31686   9.589   1.259  13.863
76616SOL    HW131687   9.648   1.305  13.803
76616SOL    HW231688   9.502   1.273  13.826
76617SOL     OW31689   8.974   0.848   0.757
76617SOL    HW131690   9.069   0.836   0.745
76617SOL    HW231691   8.939   0.759   0.758
76618SOL     OW31692   1.697  14.093  12.808
76618SOL    HW131693   1.610  14.130  12.793
76618SOL    HW231694   1.740  14.095  12.723
76619SOL     OW31695  12.142   8.271  12.447
76619SOL    HW131696  12.218   8.325  12.422
76619SOL    HW231697  12.179   8.202  12.502
76620SOL     OW31698   6.311   4.281   9.008
76620SOL    HW131699   6.325   4.290   9.102
76620SOL    HW231700   6.397   4.257   8.974
76621SOL     OW31701  10.174   7.485  11.138
76621SOL    HW131702  10.236   7.467  11.068
76621SOL    HW231703  10.135   7.569  11.114
76622SOL     OW31704   0.536   1.003   6.320
76622SOL    HW131705   0.569   0.963   6.400
76622SOL    HW231706   0.484   0.934   6.278
76623SOL     OW31707   6.002  11.626   8.476
76623SOL    HW131708   6.061  11.621   8.551
76623SOL    HW231709   5.918  11.596   8.509
76624SOL     OW31710   0.933   4.139   1.283
76624SOL    HW131711   0.920   4.176   1.196
76624SOL    HW231712   0.856   4.167   1.333
76625SOL     OW31713  11.680   2.717   7.774
76625SOL    HW131714  11.594   2.755   7.760
76625SOL    HW231715  11.717   2.766   7.848
76626SOL     OW31716  14.151   9.803   2.957
76626SOL    HW131717  14.127   9.770   2.871
76626SOL    HW231718  14.105   9.746   3.019
76627SOL     OW31719   9.319  14.180   4.756
76627SOL    HW131720   9.394  14.135   4.796
76627SOL    HW231721   9.279  14.113   4.700
76628SOL     OW31722  12.951   1.165   8.649
76628SOL    HW131723  13.018   1.232   8.634
76628SOL    HW231724  12.943   1.121   8.564
76629SOL     OW31725   7.920  10.378   3.718
76629SOL    HW131726   8.007  10.386   3.758
76629SOL    HW231727   7.860  10.409   3.786
76630SOL     OW31728  12.957   1.752   3.757
76630SOL    HW131729  12.981   1.670   3.715
76630SOL    HW231730  12.962   1.817   3.686
76631SOL     OW31731   2.601  12.109  10.132
76631SOL    HW131732   2.545  12.186  10.132
76631SOL    HW231733   2.614  12.087  10.224
76632SOL     OW31734  12.283   3.937  14.439
76632SOL    HW131735  12.255   4.010  14.494
76632SOL    HW231736  12.204   3.910  14.393
76633SOL     OW31737  11.349   4.700  13.637
76633SOL    HW131738  11.320   4.789  13.615
76633SOL    HW231739  11.444   4.703  13.623
76634SOL     OW31740   2.012   7.640  10.697
76634SOL    HW131741   1.916   7.637  10.704
76634SOL    HW231742   2.041   7.554  10.727
76635SOL     OW31743  10.553  14.801   8.068
76635SOL    HW131744  10.649  14.803   8.074
76635SOL    HW231745  10.533  14.716   8.030
76636SOL     OW31746   2.206   2.980   0.804
76636SOL    HW131747   2.216   2.885   0.790
76636SOL    HW231748   2.269   3.020   0.745
76637SOL     OW31749   7.416   4.367   3.681
76637SOL    HW131750   7.464   4.399   3.758
76637SOL    HW231751   7.420   4.439   3.618
76638SOL     OW31752   1.679  11.402   8.374
76638SOL    HW131753   1.632  11.421   8.294
76638SOL    HW231754   1.615  11.418   8.444
76639SOL     OW31755  11.483   7.890   6.835
76639SOL    HW131756  11.391   7.915   6.844
76639SOL    HW231757  11.481   7.807   6.787
76640SOL     OW31758   2.213   2.066   8.359
76640SOL    HW131759   2.215   2.014   8.279
76640SOL    HW231760   2.304   2.069   8.387
76641SOL     OW31761   6.623  10.751  10.912
76641SOL    HW131762   6.633  10.805  10.991
76641SOL    HW231763   6.708  10.757  10.868
76642SOL     OW31764   5.438  12.320   9.111
76642SOL    HW131765   5.439  12.333   9.206
76642SOL    HW231766   5.521  12.277   9.091
76643SOL     OW31767  10.870  14.867   5.551
76643SOL    HW131768  10.961  14.873   5.580
76643SOL    HW231769  10.831   0.071   5.576
76644SOL     OW31770   1.228   0.953  12.160
76644SOL    HW131771   1.217   1.031  12.215
76644SOL    HW231772   1.321   0.930  12.171
76645SOL     OW31773   7.813  14.852   8.798
76645SOL    HW131774   7.827  14.794   8.873
76645SOL    HW231775   7.822  14.795   8.722
76646SOL     OW31776   2.655   8.864  14.749
76646SOL    HW131777   2.684   8.939  14.697
76646SOL    HW231778   2.731   8.806  14.752
76647SOL     OW31779   5.334   6.738   5.017
76647SOL    HW131780   5.253   6.764   5.061
76647SOL    HW231781   5.395   6.809   5.037
76648SOL     OW31782   5.680  13.011  13.555
76648SOL    HW131783   5.764  12.971  13.577
76648SOL    HW231784   5.688  13.102  13.583
76649SOL     OW31785   9.459  10.959   0.479
76649SOL    HW131786   9.383  11.007   0.447
76649SOL    HW231787   9.503  10.928   0.399
76650SOL     OW31788   1.138  13.419  13.980
76650SOL    HW131789   1.116  13.396  13.889
76650SOL    HW231790   1.231  13.443  13.976
76651SOL     OW31791   5.460   8.473   2.095
76651SOL    HW131792   5.387   8.490   2.036
76651SOL    HW231793   5.448   8.534   2.168
76652SOL     OW31794  13.929  10.313   7.662
76652SOL    HW131795  13.844  10.274   7.641
76652SOL    HW231796  13.909  10.404   7.682
76653SOL     OW31797   6.184   4.086   7.651
76653SOL    HW131798   6.203   4.043   7.568
76653SOL    HW231799   6.171   4.178   7.628
76654SOL     OW31800  12.433   4.335   4.697
76654SOL    HW131801  12.369   4.268   4.721
76654SOL    HW231802  12.480   4.353   4.778
76655SOL     OW31803   0.835   5.686   1.229
76655SOL    HW131804   0.774   5.624   1.188
76655SOL    HW231805   0.896   5.709   1.159
76656SOL     OW31806  14.085  11.092  14.690
76656SOL    HW131807  14.012  11.039  14.658
76656SOL    HW231808  14.074  11.095  14.785
76657SOL     OW31809  11.845  12.810   1.945
76657SOL    HW131810  11.878  12.884   1.996
76657SOL    HW231811  11.760  12.789   1.985
76658SOL     OW31812   1.525   0.257   2.276
76658SOL    HW131813   1.479   0.186   2.322
76658SOL    HW231814   1.492   0.252   2.186
76659SOL     OW31815  13.160   7.617   4.056
76659SOL    HW131816  13.143   7.577   4.141
76659SOL    HW231817  13.074   7.619   4.013
76660SOL     OW31818  11.347  10.033   6.923
76660SOL    HW131819  11.283  10.054   6.991
76660SOL    HW231820  11.372  10.117   6.886
76661SOL     OW31821   4.557   7.476   9.220
76661SOL    HW131822   4.518   7.419   9.286
76661SOL    HW231823   4.622   7.421   9.177
76662SOL     OW31824   4.058   8.308   6.318
76662SOL    HW131825   4.048   8.213   6.327
76662SOL    HW231826   4.086   8.320   6.227
76663SOL     OW31827   0.715   3.903   5.560
76663SOL    HW131828   0.798   3.948   5.545
76663SOL    HW231829   0.678   3.944   5.638
76664SOL     OW31830  11.865   5.860   1.116
76664SOL    HW131831  11.795   5.821   1.064
76664SOL    HW231832  11.864   5.811   1.198
76665SOL     OW31833   7.572   3.037  11.480
76665SOL    HW131834   7.554   3.016  11.388
76665SOL    HW231835   7.569   2.952  11.525
76666SOL     OW31836  14.828   6.621   9.188
76666SOL    HW131837  14.762   6.677   9.148
76666SOL    HW231838  14.781   6.541   9.210
76667SOL     OW31839   8.327  13.690  11.534
76667SOL    HW131840   8.305  13.630  11.606
76667SOL    HW231841   8.272  13.767  11.550
76668SOL     OW31842  14.720   3.634   3.186
76668SOL    HW131843  14.666   3.588   3.122
76668SOL    HW231844  14.671   3.630   3.268
76669SOL     OW31845  12.032   5.233   4.544
76669SOL    HW131846  11.938   5.241   4.529
76669SOL    HW231847  12.060   5.322   4.567
76670SOL     OW31848  14.345   0.459   5.369
76670SOL    HW131849  14.411   0.484   5.305
76670SOL    HW231850  14.299   0.385   5.328
76671SOL     OW31851   1.326   8.327   7.071
76671SOL    HW131852   1.301   8.317   7.163
76671SOL    HW231853   1.249   8.298   7.022
76672SOL     OW31854  13.261  12.441  12.048
76672SOL    HW131855  13.265  12.536  12.043
76672SOL    HW231856  13.188  12.417  11.991
76673SOL     OW31857  14.144  14.260   6.323
76673SOL    HW131858  14.219  14.265   6.382
76673SOL    HW231859  14.181  14.231   6.239
76674SOL     OW31860   0.053   2.453  11.503
76674SOL    HW131861   0.125   2.515  11.495
76674SOL    HW231862  14.853   2.507  11.499
76675SOL     OW31863  12.894   9.071   5.494
76675SOL    HW131864  12.961   9.092   5.429
76675SOL    HW231865  12.917   9.124   5.570
76676SOL     OW31866   2.965  12.425   9.396
76676SOL    HW131867   2.911  12.465   9.464
76676SOL    HW231868   2.905  12.370   9.345
76677SOL     OW31869  10.393   9.656   2.713
76677SOL    HW131870  10.324   9.701   2.663
76677SOL    HW231871  10.447   9.614   2.647
76678SOL     OW31872   1.124  12.591   5.886
76678SOL    HW131873   1.124  12.496   5.880
76678SOL    HW231874   1.034  12.614   5.910
76679SOL     OW31875   3.702  13.650   4.727
76679SOL    HW131876   3.641  13.598   4.779
76679SOL    HW231877   3.783  13.651   4.778
76680SOL     OW31878   5.812   1.423   5.345
76680SOL    HW131879   5.763   1.342   5.360
76680SOL    HW231880   5.901   1.402   5.374
76681SOL     OW31881   5.337   0.101   4.467
76681SOL    HW131882   5.306   0.134   4.383
76681SOL    HW231883   5.432   0.109   4.462
76682SOL     OW31884  10.165  14.877  10.715
76682SOL    HW131885  10.101  14.807  10.702
76682SOL    HW231886  10.121   0.060  10.772
76683SOL     OW31887  14.583   4.346   7.401
76683SOL    HW131888  14.552   4.427   7.360
76683SOL    HW231889  14.675   4.340   7.375
76684SOL     OW31890   2.579   4.542   0.139
76684SOL    HW131891   2.508   4.530   0.076
76684SOL    HW231892   2.659   4.527   0.088
76685SOL     OW31893  13.632   9.831  14.613
76685SOL    HW131894  13.600   9.828  14.524
76685SOL    HW231895  13.728   9.827  14.604
76686SOL     OW31896   7.631   9.019   3.426
76686SOL    HW131897   7.674   8.937   3.451
76686SOL    HW231898   7.581   9.045   3.504
76687SOL     OW31899   1.423  10.499   4.145
76687SOL    HW131900   1.351  10.561   4.154
76687SOL    HW231901   1.410  10.436   4.215
76688SOL     OW31902  14.413   3.330   0.358
76688SOL    HW131903  14.413   3.408   0.303
76688SOL    HW231904  14.358   3.353   0.433
76689SOL     OW31905   7.289   7.484  10.359
76689SOL    HW131906   7.257   7.461  10.447
76689SOL    HW231907   7.209   7.505  10.310
76690SOL     OW31908   1.148   6.364   4.917
76690SOL    HW131909   1.235   6.326   4.922
76690SOL    HW231910   1.151   6.440   4.975
76691SOL     OW31911  14.674   0.174  10.942
76691SOL    HW131912  14.611   0.112  10.977
76691SOL    HW231913  14.737   0.188  11.013
76692SOL     OW31914   6.186   3.095   6.123
76692SOL    HW131915   6.244   3.171   6.134
76692SOL    HW231916   6.106   3.131   6.085
76693SOL     OW31917   7.818   8.923  13.067
76693SOL    HW131918   7.895   8.911  13.011
76693SOL    HW231919   7.832   8.862  13.140
76694SOL     OW31920  13.597   7.742   5.008
76694SOL    HW131921  13.615   7.684   4.935
76694SOL    HW231922  13.552   7.817   4.969
76695SOL     OW31923   8.753   7.733  14.355
76695SOL    HW131924   8.783   7.680  14.282
76695SOL    HW231925   8.829   7.787  14.379
76696SOL     OW31926  12.350   7.178   9.104
76696SOL    HW131927  12.398   7.196   9.023
76696SOL    HW231928  12.414   7.193   9.173
76697SOL     OW31929   2.117   4.557   9.924
76697SOL    HW131930   2.129   4.486   9.861
76697SOL    HW231931   2.025   4.583   9.913
76698SOL     OW31932  13.300   5.683   0.935
76698SOL    HW131933  13.303   5.644   1.023
76698SOL    HW231934  13.234   5.631   0.889
76699SOL     OW31935  11.551   6.253   7.403
76699SOL    HW131936  11.621   6.192   7.378
76699SOL    HW231937  11.505   6.271   7.322
76700SOL     OW31938   3.416  10.259   3.642
76700SOL    HW131939   3.332  10.305   3.633
76700SOL    HW231940   3.416  10.196   3.571
76701SOL     OW31941   2.443   1.065   7.053
76701SOL    HW131942   2.383   1.071   6.978
76701SOL    HW231943   2.523   1.109   7.023
76702SOL     OW31944   5.766   2.464   1.694
76702SOL    HW131945   5.819   2.385   1.687
76702SOL    HW231946   5.828   2.536   1.689
76703SOL     OW31947  14.617   3.063  14.074
76703SOL    HW131948  14.690   3.112  14.034
76703SOL    HW231949  14.641   3.056  14.166
76704SOL     OW31950  10.749   3.038   6.319
76704SOL    HW131951  10.740   3.008   6.409
76704SOL    HW231952  10.673   3.002   6.274
76705SOL     OW31953  14.780   0.920   5.013
76705SOL    HW131954  14.705   0.961   5.056
76705SOL    HW231955  14.828   0.993   4.973
76706SOL     OW31956   2.110   8.923   7.542
76706SOL    HW131957   2.192   8.943   7.498
76706SOL    HW231958   2.133   8.855   7.606
76707SOL     OW31959   9.559   0.994  13.355
76707SOL    HW131960   9.518   0.915  13.389
76707SOL    HW231961   9.648   0.992  13.390
76708SOL     OW31962  14.666   8.260   8.943
76708SOL    HW131963  14.590   8.314   8.963
76708SOL    HW231964  14.739   8.307   8.984
76709SOL     OW31965  11.214   2.324   2.334
76709SOL    HW131966  11.130   2.286   2.361
76709SOL    HW231967  11.232   2.392   2.399
76710SOL     OW31968  12.000   3.121  11.470
76710SOL    HW131969  11.980   3.188  11.405
76710SOL    HW231970  11.923   3.065  11.470
76711SOL     OW31971   3.671   6.265   2.497
76711SOL    HW131972   3.685   6.323   2.422
76711SOL    HW231973   3.757   6.228   2.515
76712SOL     OW31974   1.610   7.542   8.460
76712SOL    HW131975   1.581   7.455   8.489
76712SOL    HW231976   1.704   7.543   8.477
76713SOL     OW31977   8.399   9.801  13.638
76713SOL    HW131978   8.426   9.753  13.560
76713SOL    HW231979   8.401   9.893  13.612
76714SOL     OW31980  13.430  11.920   4.475
76714SOL    HW131981  13.453  11.839   4.429
76714SOL    HW231982  13.399  11.891   4.561
76715SOL     OW31983   3.555   6.702   7.099
76715SOL    HW131984   3.565   6.681   7.192
76715SOL    HW231985   3.461   6.695   7.083
76716SOL     OW31986   7.614   3.807  12.408
76716SOL    HW131987   7.622   3.792  12.503
76716SOL    HW231988   7.684   3.754  12.370
76717SOL     OW31989   5.458  13.663   0.335
76717SOL    HW131990   5.516  13.705   0.399
76717SOL    HW231991   5.477  13.570   0.342
76718SOL     OW31992   9.616   2.061   7.325
76718SOL    HW131993   9.613   2.156   7.319
76718SOL    HW231994   9.618   2.043   7.419
76719SOL     OW31995   3.527   9.636   7.158
76719SOL    HW131996   3.445   9.608   7.117
76719SOL    HW231997   3.590   9.637   7.087
76720SOL     OW31998  13.041  10.110   2.720
76720SOL    HW131999  13.102  10.183   2.722
76720SOL    HW232000  13.090  10.039   2.677
76721SOL     OW32001  11.444   6.286   9.004
76721SOL    HW132002  11.503   6.361   8.995
76721SOL    HW232003  11.461   6.253   9.092
76722SOL     OW32004   7.350  14.663  11.413
76722SOL    HW132005   7.344  14.755  11.439
76722SOL    HW232006   7.334  14.615  11.494
76723SOL     OW32007  13.562   5.323   5.458
76723SOL    HW132008  13.536   5.238   5.424
76723SOL    HW232009  13.618   5.360   5.389
76724SOL     OW32010   1.539  13.515   9.501
76724SOL    HW132011   1.613  13.462   9.528
76724SOL    HW232012   1.527  13.495   9.408
76725SOL     OW32013   9.286   6.554   7.210
76725SOL    HW132014   9.345   6.614   7.257
76725SOL    HW232015   9.200   6.597   7.214
76726SOL     OW32016   4.157   4.749   2.459
76726SOL    HW132017   4.159   4.726   2.552
76726SOL    HW232018   4.226   4.815   2.449
76727SOL     OW32019   7.031  11.148  12.497
76727SOL    HW132020   7.104  11.128  12.438
76727SOL    HW232021   7.036  11.081  12.565
76728SOL     OW32022   9.287  13.410   2.043
76728SOL    HW132023   9.283  13.325   2.088
76728SOL    HW232024   9.283  13.387   1.950
76729SOL     OW32025   2.410   5.627  14.418
76729SOL    HW132026   2.434   5.700  14.476
76729SOL    HW232027   2.418   5.663  14.330
76730SOL     OW32028  13.195   8.297   9.647
76730SOL    HW132029  13.102   8.315   9.639
76730SOL    HW232030  13.204   8.252   9.731
76731SOL     OW32031  14.325   0.811   1.238
76731SOL    HW132032  14.325   0.803   1.334
76731SOL    HW232033  14.257   0.750   1.209
76732SOL     OW32034  11.697   0.562   3.169
76732SOL    HW132035  11.775   0.509   3.184
76732SOL    HW232036  11.726   0.652   3.183
76733SOL     OW32037   8.529   7.281   7.496
76733SOL    HW132038   8.546   7.367   7.535
76733SOL    HW232039   8.529   7.221   7.570
76734SOL     OW32040   8.807  13.802  14.134
76734SOL    HW132041   8.798  13.754  14.217
76734SOL    HW232042   8.897  13.835  14.135
76735SOL     OW32043   8.861   9.870   7.962
76735SOL    HW132044   8.783   9.858   8.016
76735SOL    HW232045   8.917   9.796   7.983
76736SOL     OW32046  12.460   4.710   7.973
76736SOL    HW132047  12.432   4.722   8.064
76736SOL    HW232048  12.451   4.797   7.934
76737SOL     OW32049  10.170   4.464   1.749
76737SOL    HW132050  10.082   4.497   1.765
76737SOL    HW232051  10.168   4.433   1.658
76738SOL     OW32052  10.868  14.471   5.077
76738SOL    HW132053  10.817  14.419   5.015
76738SOL    HW232054  10.953  14.482   5.035
76739SOL     OW32055  10.712   1.966   0.087
76739SOL    HW132056  10.669   1.948   0.004
76739SOL    HW232057  10.768   2.041   0.069
76740SOL     OW32058  10.376   5.549  12.373
76740SOL    HW132059  10.421   5.469  12.399
76740SOL    HW232060  10.287   5.538  12.408
76741SOL     OW32061   9.979  12.666   4.014
76741SOL    HW132062   9.925  12.700   4.086
76741SOL    HW232063   9.976  12.571   4.025
76742SOL     OW32064   1.796   2.587   0.422
76742SOL    HW132065   1.833   2.577   0.510
76742SOL    HW232066   1.846   2.659   0.383
76743SOL     OW32067   3.361   8.654   0.201
76743SOL    HW132068   3.402   8.741   0.206
76743SOL    HW232069   3.425   8.601   0.154
76744SOL     OW32070   3.740   0.416  13.369
76744SOL    HW132071   3.758   0.509  13.372
76744SOL    HW232072   3.760   0.385  13.457
76745SOL     OW32073   0.924   9.679  14.411
76745SOL    HW132074   0.850   9.693  14.470
76745SOL    HW232075   0.886   9.641  14.332
76746SOL     OW32076   1.675   8.559   2.678
76746SOL    HW132077   1.678   8.603   2.594
76746SOL    HW232078   1.583   8.564   2.705
76747SOL     OW32079  10.495  13.205   4.430
76747SOL    HW132080  10.473  13.269   4.498
76747SOL    HW232081  10.411  13.171   4.400
76748SOL     OW32082  10.446   2.001   8.527
76748SOL    HW132083  10.539   2.008   8.548
76748SOL    HW232084  10.410   1.945   8.596
76749SOL     OW32085   2.507   3.011   0.290
76749SOL    HW132086   2.550   3.097   0.296
76749SOL    HW232087   2.496   2.997   0.196
76750SOL     OW32088  11.419  10.753   7.863
76750SOL    HW132089  11.398  10.724   7.774
76750SOL    HW232090  11.415  10.848   7.859
76751SOL     OW32091   6.359   9.300   5.512
76751SOL    HW132092   6.436   9.347   5.481
76751SOL    HW232093   6.359   9.313   5.607
76752SOL     OW32094  12.140   4.338  13.230
76752SOL    HW132095  12.076   4.381  13.174
76752SOL    HW232096  12.166   4.260  13.181
76753SOL     OW32097  13.925   1.513   3.422
76753SOL    HW132098  13.905   1.458   3.498
76753SOL    HW232099  13.876   1.593   3.437
76754SOL     OW32100   2.362   1.914   7.122
76754SOL    HW132101   2.421   1.840   7.104
76754SOL    HW232102   2.329   1.940   7.036
76755SOL     OW32103  12.065   5.519   8.925
76755SOL    HW132104  12.041   5.560   9.008
76755SOL    HW232105  11.990   5.533   8.868
76756SOL     OW32106   4.458   1.762  11.338
76756SOL    HW132107   4.363   1.756  11.346
76756SOL    HW232108   4.489   1.779  11.427
76757SOL     OW32109   0.618  11.742   6.499
76757SOL    HW132110   0.572  11.822   6.523
76757SOL    HW232111   0.567  11.672   6.540
76758SOL     OW32112   3.026   8.947   7.133
76758SOL    HW132113   3.052   8.953   7.225
76758SOL    HW232114   3.106   8.969   7.085
76759SOL     OW32115  12.675   4.074  13.358
76759SOL    HW132116  12.745   4.102  13.417
76759SOL    HW232117  12.642   4.156  13.319
76760SOL     OW32118  10.715   4.995  10.996
76760SOL    HW132119  10.698   4.904  10.973
76760SOL    HW232120  10.802   5.013  10.959
76761SOL     OW32121   5.604   8.915  12.785
76761SOL    HW132122   5.550   8.945  12.857
76761SOL    HW232123   5.672   8.983  12.776
76762SOL     OW32124   3.886   4.556   7.229
76762SOL    HW132125   3.881   4.474   7.181
76762SOL    HW232126   3.850   4.622   7.170
76763SOL     OW32127   1.803   5.774  11.259
76763SOL    HW132128   1.711   5.753  11.244
76763SOL    HW232129   1.842   5.772  11.172
76764SOL     OW32130   4.381  10.642  12.090
76764SOL    HW132131   4.403  10.589  12.013
76764SOL    HW232132   4.438  10.609  12.159
76765SOL     OW32133   3.668  14.691  14.249
76765SOL    HW132134   3.591  14.746  14.262
76765SOL    HW232135   3.654  14.616  14.306
76766SOL     OW32136  14.421   5.934   7.660
76766SOL    HW132137  14.510   5.915   7.631
76766SOL    HW232138  14.380   5.849   7.672
76767SOL     OW32139   2.882   9.215   7.215
76767SOL    HW132140   2.923   9.149   7.159
76767SOL    HW232141   2.845   9.278   7.154
76768SOL     OW32142   3.435   0.507   7.960
76768SOL    HW132143   3.345   0.513   7.927
76768SOL    HW232144   3.447   0.587   8.011
76769SOL     OW32145   2.610  12.729   9.848
76769SOL    HW132146   2.591  12.640   9.878
76769SOL    HW232147   2.683  12.758   9.903
76770SOL     OW32148  12.272  13.289   9.659
76770SOL    HW132149  12.338  13.355   9.680
76770SOL    HW232150  12.209  13.334   9.603
76771SOL     OW32151   7.449   2.799  13.274
76771SOL    HW132152   7.363   2.773  13.309
76771SOL    HW232153   7.482   2.719  13.233
76772SOL     OW32154   1.986   2.499   4.607
76772SOL    HW132155   1.931   2.447   4.667
76772SOL    HW232156   1.961   2.590   4.624
76773SOL     OW32157  11.209   3.713   3.117
76773SOL    HW132158  11.274   3.724   3.186
76773SOL    HW232159  11.125   3.729   3.161
76774SOL     OW32160  10.830  13.900   4.904
76774SOL    HW132161  10.865  13.834   4.844
76774SOL    HW232162  10.907  13.945   4.938
76775SOL     OW32163  12.317  14.318  13.235
76775SOL    HW132164  12.263  14.310  13.314
76775SOL    HW232165  12.358  14.404  13.243
76776SOL     OW32166   6.546  13.610   5.215
76776SOL    HW132167   6.601  13.627   5.139
76776SOL    HW232168   6.476  13.553   5.182
76777SOL     OW32169  13.151   2.900   3.746
76777SOL    HW132170  13.072   2.953   3.750
76777SOL    HW232171  13.125   2.821   3.700
76778SOL     OW32172  13.219   5.509   3.745
76778SOL    HW132173  13.314   5.515   3.740
76778SOL    HW232174  13.202   5.455   3.822
76779SOL     OW32175   3.397   3.545   5.220
76779SOL    HW132176   3.385   3.450   5.229
76779SOL    HW232177   3.312   3.577   5.190
76780SOL     OW32178  10.252   7.785  12.617
76780SOL    HW132179  10.300   7.745  12.689
76780SOL    HW232180  10.163   7.798  12.651
76781SOL     OW32181   7.246   3.735   5.257
76781SOL    HW132182   7.241   3.765   5.166
76781SOL    HW232183   7.169   3.773   5.298
76782SOL     OW32184   8.879  10.929  11.567
76782SOL    HW132185   8.845  10.843  11.541
76782SOL    HW232186   8.811  10.991  11.540
76783SOL     OW32187   5.799  10.408   5.156
76783SOL    HW132188   5.815  10.360   5.238
76783SOL    HW232189   5.827  10.347   5.087
76784SOL     OW32190   4.200   2.932   6.408
76784SOL    HW132191   4.207   2.853   6.462
76784SOL    HW232192   4.184   2.899   6.319
76785SOL     OW32193  12.923   4.325   4.441
76785SOL    HW132194  12.874   4.282   4.371
76785SOL    HW232195  12.891   4.283   4.521
76786SOL     OW32196   9.637   8.425  14.495
76786SOL    HW132197   9.641   8.513  14.532
76786SOL    HW232198   9.673   8.434  14.407
76787SOL     OW32199  12.633   4.774   2.975
76787SOL    HW132200  12.663   4.862   2.952
76787SOL    HW232201  12.650   4.766   3.069
76788SOL     OW32202   6.012   6.453   4.696
76788SOL    HW132203   6.083   6.517   4.692
76788SOL    HW232204   5.938   6.502   4.733
76789SOL     OW32205   9.964   6.722   6.123
76789SOL    HW132206   9.950   6.655   6.057
76789SOL    HW232207   9.878   6.765   6.132
76790SOL     OW32208   8.167   0.522   6.629
76790SOL    HW132209   8.097   0.581   6.600
76790SOL    HW232210   8.132   0.434   6.613
76791SOL     OW32211   2.372  12.188   9.826
76791SOL    HW132212   2.287  12.186   9.870
76791SOL    HW232213   2.423  12.120   9.869
76792SOL     OW32214  12.620   0.238   6.414
76792SOL    HW132215  12.531   0.206   6.399
76792SOL    HW232216  12.612   0.295   6.490
76793SOL     OW32217   2.382   7.805   5.646
76793SOL    HW132218   2.362   7.838   5.558
76793SOL    HW232219   2.407   7.714   5.633
76794SOL     OW32220  12.300   3.483  11.853
76794SOL    HW132221  12.297   3.418  11.923
76794SOL    HW232222  12.294   3.432  11.772
76795SOL     OW32223   4.025   0.686   2.862
76795SOL    HW132224   4.091   0.688   2.792
76795SOL    HW232225   4.068   0.641   2.934
76796SOL     OW32226   1.541   1.608  11.047
76796SOL    HW132227   1.470   1.565  10.999
76796SOL    HW232228   1.589   1.657  10.980
76797SOL     OW32229  10.527   6.522  13.808
76797SOL    HW132230  10.490   6.437  13.831
76797SOL    HW232231  10.465   6.586  13.843
76798SOL     OW32232  13.716   6.551   9.838
76798SOL    HW132233  13.675   6.556   9.924
76798SOL    HW232234  13.754   6.463   9.834
76799SOL     OW32235  10.879   3.499  14.139
76799SOL    HW132236  10.786   3.518  14.133
76799SOL    HW232237  10.915   3.532  14.056
76800SOL     OW32238  13.573  13.794   7.169
76800SOL    HW132239  13.623  13.875   7.180
76800SOL    HW232240  13.498  13.803   7.227
76801SOL     OW32241  11.720   5.799   0.166
76801SOL    HW132242  11.688   5.868   0.108
76801SOL    HW232243  11.732   5.842   0.251
76802SOL     OW32244   9.686   0.999   0.452
76802SOL    HW132245   9.716   0.982   0.541
76802SOL    HW232246   9.715   1.088   0.433
76803SOL     OW32247   0.959   3.982  13.477
76803SOL    HW132248   0.925   3.905  13.431
76803SOL    HW232249   0.886   4.045  13.475
76804SOL     OW32250  13.926   4.824  10.032
76804SOL    HW132251  13.854   4.813  10.094
76804SOL    HW232252  13.892   4.884   9.966
76805SOL     OW32253   5.747   6.569   0.694
76805SOL    HW132254   5.658   6.552   0.722
76805SOL    HW232255   5.801   6.542   0.768
76806SOL     OW32256  13.782   0.576  11.140
76806SOL    HW132257  13.763   0.482  11.143
76806SOL    HW232258  13.774   0.599  11.048
76807SOL     OW32259   4.602   6.992  11.817
76807SOL    HW132260   4.554   6.921  11.861
76807SOL    HW232261   4.613   6.961  11.727
76808SOL     OW32262   7.569   6.115  10.987
76808SOL    HW132263   7.478   6.118  11.015
76808SOL    HW232264   7.568   6.060  10.909
76809SOL     OW32265   2.210   3.887   7.933
76809SOL    HW132266   2.226   3.977   7.906
76809SOL    HW232267   2.251   3.880   8.019
76810SOL     OW32268  13.298   8.988   2.999
76810SOL    HW132269  13.226   8.934   2.968
76810SOL    HW232270  13.333   9.029   2.920
76811SOL     OW32271   1.018   5.829   3.443
76811SOL    HW132272   1.022   5.794   3.354
76811SOL    HW232273   0.996   5.921   3.431
76812SOL     OW32274   6.910   6.577  10.361
76812SOL    HW132275   6.941   6.592  10.450
76812SOL    HW232276   6.984   6.603  10.306
76813SOL     OW32277   0.318   0.175  14.874
76813SOL    HW132278   0.380   0.134   0.055
76813SOL    HW232279   0.268   0.101  14.839
76814SOL     OW32280   9.639   7.757  14.276
76814SOL    HW132281   9.629   7.665  14.252
76814SOL    HW232282   9.717   7.786  14.228
76815SOL     OW32283  11.284   6.258   6.921
76815SOL    HW132284  11.195   6.271   6.951
76815SOL    HW232285  11.309   6.343   6.884
76816SOL     OW32286   9.685   8.636  12.821
76816SOL    HW132287   9.634   8.629  12.901
76816SOL    HW232288   9.737   8.555  12.819
76817SOL     OW32289   8.070   5.462   6.710
76817SOL    HW132290   8.094   5.534   6.652
76817SOL    HW232291   8.056   5.503   6.795
76818SOL     OW32292   9.149   7.345   0.058
76818SOL    HW132293   9.173   7.253   0.060
76818SOL    HW232294   9.054   7.345   0.048
76819SOL     OW32295   9.785  10.332   4.348
76819SOL    HW132296   9.871  10.357   4.383
76819SOL    HW232297   9.729  10.325   4.425
76820SOL     OW32298   8.578   1.554  10.567
76820SOL    HW132299   8.539   1.616  10.505
76820SOL    HW232300   8.508   1.537  10.630
76821SOL     OW32301  10.984   2.832  10.912
76821SOL    HW132302  11.071   2.799  10.934
76821SOL    HW232303  10.944   2.852  10.997
76822SOL     OW32304  13.645   4.793   2.814
76822SOL    HW132305  13.663   4.699   2.811
76822SOL    HW232306  13.601   4.812   2.730
76823SOL     OW32307   0.319  10.929   7.600
76823SOL    HW132308   0.375  10.875   7.655
76823SOL    HW232309   0.369  10.938   7.518
76824SOL     OW32310   4.257   8.995   1.533
76824SOL    HW132311   4.287   8.909   1.562
76824SOL    HW232312   4.315   9.017   1.460
76825SOL     OW32313  13.851  13.661   1.052
76825SOL    HW132314  13.798  13.660   0.972
76825SOL    HW232315  13.861  13.569   1.075
76826SOL     OW32316  11.737   8.661   6.430
76826SOL    HW132317  11.810   8.600   6.418
76826SOL    HW232318  11.675   8.613   6.486
76827SOL     OW32319   2.696  11.744   5.705
76827SOL    HW132320   2.662  11.830   5.726
76827SOL    HW232321   2.717  11.749   5.612
76828SOL     OW32322  14.027  14.092   3.247
76828SOL    HW132323  13.939  14.104   3.212
76828SOL    HW232324  14.065  14.180   3.248
76829SOL     OW32325   5.533   2.422   0.811
76829SOL    HW132326   5.504   2.363   0.881
76829SOL    HW232327   5.609   2.379   0.773
76830SOL     OW32328   4.915   3.802   6.089
76830SOL    HW132329   5.009   3.786   6.083
76830SOL    HW232330   4.890   3.828   6.001
76831SOL     OW32331  10.349  13.749  10.911
76831SOL    HW132332  10.397  13.684  10.859
76831SOL    HW232333  10.261  13.712  10.920
76832SOL     OW32334  14.137  11.883   3.155
76832SOL    HW132335  14.093  11.923   3.080
76832SOL    HW232336  14.119  11.789   3.146
76833SOL     OW32337   4.925   4.620  14.086
76833SOL    HW132338   4.907   4.693  14.025
76833SOL    HW232339   4.967   4.554  14.031
76834SOL     OW32340   8.738  10.988  14.277
76834SOL    HW132341   8.772  10.899  14.265
76834SOL    HW232342   8.671  10.997  14.209
76835SOL     OW32343   4.588   4.593   4.787
76835SOL    HW132344   4.535   4.659   4.831
76835SOL    HW232345   4.593   4.622   4.696
76836SOL     OW32346   9.378  11.618   8.887
76836SOL    HW132347   9.366  11.671   8.808
76836SOL    HW232348   9.315  11.654   8.949
76837SOL     OW32349   7.336   9.471  14.051
76837SOL    HW132350   7.409   9.518  14.090
76837SOL    HW232351   7.376   9.394  14.010
76838SOL     OW32352   0.059  12.721   3.570
76838SOL    HW132353   0.021  12.792   3.622
76838SOL    HW232354   0.152  12.725   3.589
76839SOL     OW32355   7.335   7.605  11.275
76839SOL    HW132356   7.367   7.656  11.201
76839SOL    HW232357   7.329   7.515  11.242
76840SOL     OW32358   7.454  11.212   5.768
76840SOL    HW132359   7.486  11.133   5.811
76840SOL    HW232360   7.371  11.232   5.811
76841SOL     OW32361   4.777   3.033  11.756
76841SOL    HW132362   4.711   3.092  11.719
76841SOL    HW232363   4.734   2.994  11.832
76842SOL     OW32364   9.067  12.394  12.949
76842SOL    HW132365   9.075  12.378  13.042
76842SOL    HW232366   8.977  12.368  12.928
76843SOL     OW32367  13.686   8.336  14.045
76843SOL    HW132368  13.608   8.351  13.992
76843SOL    HW232369  13.677   8.397  14.118
76844SOL     OW32370   4.423   1.090  11.677
76844SOL    HW132371   4.437   1.150  11.603
76844SOL    HW232372   4.418   1.003  11.636
76845SOL     OW32373  10.989   0.962   7.827
76845SOL    HW132374  10.959   0.876   7.858
76845SOL    HW232375  10.981   1.019   7.904
76846SOL     OW32376   0.656   3.535  12.581
76846SOL    HW132377   0.720   3.523  12.651
76846SOL    HW232378   0.577   3.564  12.626
76847SOL     OW32379   7.673   6.953  10.403
76847SOL    HW132380   7.605   6.984  10.463
76847SOL    HW232381   7.700   6.869  10.440
76848SOL     OW32382   6.271  13.052  10.435
76848SOL    HW132383   6.321  13.039  10.354
76848SOL    HW232384   6.316  12.996  10.499
76849SOL     OW32385   3.204   5.236   9.515
76849SOL    HW132386   3.151   5.308   9.548
76849SOL    HW232387   3.281   5.235   9.572
76850SOL     OW32388   1.792   6.438  12.456
76850SOL    HW132389   1.880   6.471  12.441
76850SOL    HW232390   1.795   6.346  12.431
76851SOL     OW32391   7.207   6.856   8.516
76851SOL    HW132392   7.266   6.892   8.450
76851SOL    HW232393   7.260   6.791   8.563
76852SOL     OW32394   8.892   0.567   0.729
76852SOL    HW132395   8.865   0.595   0.642
76852SOL    HW232396   8.966   0.509   0.715
76853SOL     OW32397   5.313   0.098   5.432
76853SOL    HW132398   5.395   0.054   5.408
76853SOL    HW232399   5.301   0.077   5.525
76854SOL     OW32400   0.569   9.093   2.281
76854SOL    HW132401   0.640   9.156   2.273
76854SOL    HW232402   0.608   9.009   2.255
76855SOL     OW32403   3.954   2.060   1.494
76855SOL    HW132404   3.970   2.090   1.583
76855SOL    HW232405   4.030   2.006   1.472
76856SOL     OW32406   1.165   3.660   3.499
76856SOL    HW132407   1.259   3.644   3.488
76856SOL    HW232408   1.146   3.736   3.444
76857SOL     OW32409  11.526   4.224   9.516
76857SOL    HW132410  11.591   4.175   9.467
76857SOL    HW232411  11.445   4.174   9.505
76858SOL     OW32412   3.286   3.713  11.864
76858SOL    HW132413   3.288   3.806  11.840
76858SOL    HW232414   3.197   3.685  11.843
76859SOL     OW32415  11.550  11.336  10.823
76859SOL    HW132416  11.474  11.355  10.878
76859SOL    HW232417  11.565  11.417  10.774
76860SOL     OW32418   7.827   5.853  10.209
76860SOL    HW132419   7.835   5.934  10.158
76860SOL    HW232420   7.779   5.794  10.151
76861SOL     OW32421   1.576   6.548   0.889
76861SOL    HW132422   1.654   6.538   0.943
76861SOL    HW232423   1.550   6.640   0.902
76862SOL     OW32424   0.571   0.462  13.672
76862SOL    HW132425   0.628   0.403  13.622
76862SOL    HW232426   0.605   0.549  13.653
76863SOL     OW32427  14.878  14.849   1.292
76863SOL    HW132428   0.028   0.059   1.282
76863SOL    HW232429  14.783  14.854   1.285
76864SOL     OW32430  11.682   1.444   0.304
76864SOL    HW132431  11.646   1.510   0.364
76864SOL    HW232432  11.691   1.490   0.221
76865SOL     OW32433   0.834  10.732   9.038
76865SOL    HW132434   0.855  10.805   9.095
76865SOL    HW232435   0.779  10.770   8.969
76866SOL     OW32436   1.638   2.458   7.801
76866SOL    HW132437   1.611   2.487   7.714
76866SOL    HW232438   1.664   2.367   7.789
76867SOL     OW32439   3.308   4.560   4.920
76867SOL    HW132440   3.399   4.584   4.934
76867SOL    HW232441   3.271   4.551   5.008
76868SOL     OW32442  12.437  11.433   8.060
76868SOL    HW132443  12.360  11.376   8.054
76868SOL    HW232444  12.446  11.471   7.973
76869SOL     OW32445   6.598   5.617   4.286
76869SOL    HW132446   6.621   5.644   4.197
76869SOL    HW232447   6.683   5.599   4.327
76870SOL     OW32448   9.534   0.397   5.331
76870SOL    HW132449   9.614   0.442   5.302
76870SOL    HW232450   9.566   0.327   5.387
76871SOL     OW32451   8.329   6.818  12.960
76871SOL    HW132452   8.300   6.852  13.045
76871SOL    HW232453   8.249   6.782  12.920
76872SOL     OW32454  12.915  12.271   9.186
76872SOL    HW132455  12.829  12.230   9.176
76872SOL    HW232456  12.910  12.318   9.269
76873SOL     OW32457   0.784  13.366   8.537
76873SOL    HW132458   0.748  13.284   8.572
76873SOL    HW232459   0.867  13.340   8.497
76874SOL     OW32460  14.754  12.802   2.160
76874SOL    HW132461  14.777  12.895   2.149
76874SOL    HW232462  14.685  12.787   2.096
76875SOL     OW32463   9.084   8.350   1.106
76875SOL    HW132464   9.062   8.294   1.181
76875SOL    HW232465   9.107   8.434   1.146
76876SOL     OW32466   9.505   6.886   2.295
76876SOL    HW132467   9.457   6.897   2.213
76876SOL    HW232468   9.594   6.916   2.276
76877SOL     OW32469  11.640   8.857   1.427
76877SOL    HW132470  11.620   8.950   1.432
76877SOL    HW232471  11.634   8.836   1.334
76878SOL     OW32472   2.392   9.057   2.021
76878SOL    HW132473   2.392   9.079   2.114
76878SOL    HW232474   2.309   9.010   2.007
76879SOL     OW32475   5.490   5.879   9.868
76879SOL    HW132476   5.430   5.946   9.900
76879SOL    HW232477   5.551   5.926   9.812
76880SOL     OW32478  11.278  10.278   9.355
76880SOL    HW132479  11.250  10.295   9.445
76880SOL    HW232480  11.291  10.183   9.352
76881SOL     OW32481   8.646  10.721   3.740
76881SOL    HW132482   8.710  10.783   3.707
76881SOL    HW232483   8.633  10.746   3.832
76882SOL     OW32484   5.703   1.613  11.071
76882SOL    HW132485   5.625   1.558  11.082
76882SOL    HW232486   5.773   1.564  11.114
76883SOL     OW32487   0.407   9.131   7.745
76883SOL    HW132488   0.392   9.098   7.656
76883SOL    HW232489   0.319   9.139   7.782
76884SOL     OW32490   4.425   6.005  13.741
76884SOL    HW132491   4.484   5.951  13.794
76884SOL    HW232492   4.423   5.960  13.656
76885SOL     OW32493   3.060  14.690  10.068
76885SOL    HW132494   3.067  14.728   9.980
76885SOL    HW232495   3.139  14.719  10.114
76886SOL     OW32496   5.057  14.329   2.523
76886SOL    HW132497   4.987  14.388   2.498
76886SOL    HW232498   5.045  14.252   2.467
76887SOL     OW32499   9.159  11.296   9.407
76887SOL    HW132500   9.070  11.328   9.422
76887SOL    HW232501   9.204  11.312   9.490
76888SOL     OW32502   9.442  11.220   4.618
76888SOL    HW132503   9.454  11.125   4.621
76888SOL    HW232504   9.349  11.233   4.635
76889SOL     OW32505   0.718   3.677  13.827
76889SOL    HW132506   0.714   3.655  13.734
76889SOL    HW232507   0.722   3.772  13.830
76890SOL     OW32508   4.489  10.843   2.220
76890SOL    HW132509   4.496  10.900   2.143
76890SOL    HW232510   4.578  10.816   2.238
76891SOL     OW32511   0.898   5.641   4.924
76891SOL    HW132512   0.856   5.727   4.932
76891SOL    HW232513   0.989   5.657   4.951
76892SOL     OW32514  14.217   9.592   6.214
76892SOL    HW132515  14.139   9.635   6.248
76892SOL    HW232516  14.189   9.553   6.131
76893SOL     OW32517   0.969  10.290  12.834
76893SOL    HW132518   1.039  10.354  12.817
76893SOL    HW232519   1.015  10.207  12.846
76894SOL     OW32520  12.948  14.325   2.683
76894SOL    HW132521  12.953  14.414   2.648
76894SOL    HW232522  13.034  14.287   2.665
76895SOL     OW32523  12.825  11.343   7.325
76895SOL    HW132524  12.732  11.323   7.311
76895SOL    HW232525  12.870  11.282   7.267
76896SOL     OW32526   2.479   2.801  12.260
76896SOL    HW132527   2.556   2.756  12.293
76896SOL    HW232528   2.444   2.743  12.193
76897SOL     OW32529   2.294   2.901   6.399
76897SOL    HW132530   2.225   2.958   6.434
76897SOL    HW232531   2.313   2.841   6.471
76898SOL     OW32532   8.089   1.825   6.646
76898SOL    HW132533   8.141   1.905   6.649
76898SOL    HW232534   8.104   1.784   6.731
76899SOL     OW32535   4.521   6.015  12.963
76899SOL    HW132536   4.427   6.004  12.959
76899SOL    HW232537   4.534   6.085  13.028
76900SOL     OW32538   6.613   0.012   2.815
76900SOL    HW132539   6.544   0.078   2.824
76900SOL    HW232540   6.581  14.817   2.865
76901SOL     OW32541   6.341   1.757   6.992
76901SOL    HW132542   6.383   1.715   7.068
76901SOL    HW232543   6.405   1.749   6.922
76902SOL     OW32544   9.645  10.441   7.184
76902SOL    HW132545   9.567  10.407   7.228
76902SOL    HW232546   9.719  10.400   7.230
76903SOL     OW32547  12.484   4.851   5.447
76903SOL    HW132548  12.412   4.876   5.389
76903SOL    HW232549  12.560   4.844   5.388
76904SOL     OW32550   6.047  13.234   7.512
76904SOL    HW132551   5.974  13.172   7.514
76904SOL    HW232552   6.117  13.191   7.561
76905SOL     OW32553   7.734  12.804   1.156
76905SOL    HW132554   7.735  12.738   1.086
76905SOL    HW232555   7.710  12.755   1.234
76906SOL     OW32556  13.850   5.366   4.065
76906SOL    HW132557  13.896   5.434   4.115
76906SOL    HW232558  13.879   5.284   4.105
76907SOL     OW32559  10.455  12.559  14.065
76907SOL    HW132560  10.507  12.481  14.083
76907SOL    HW232561  10.441  12.599  14.150
76908SOL     OW32562   1.432  11.090   1.010
76908SOL    HW132563   1.353  11.083   1.064
76908SOL    HW232564   1.436  11.008   0.961
76909SOL     OW32565  11.081  10.081  11.017
76909SOL    HW132566  11.054   9.992  10.995
76909SOL    HW232567  11.015  10.112  11.079
76910SOL     OW32568   5.131   2.058   0.004
76910SOL    HW132569   5.104   2.132  14.830
76910SOL    HW232570   5.220   2.079   0.032
76911SOL     OW32571   9.614   1.292  10.415
76911SOL    HW132572   9.699   1.286  10.371
76911SOL    HW232573   9.611   1.380  10.451
76912SOL     OW32574  12.790   1.887  12.051
76912SOL    HW132575  12.707   1.875  12.097
76912SOL    HW232576  12.789   1.979  12.024
76913SOL     OW32577   5.354  11.787   0.844
76913SOL    HW132578   5.285  11.737   0.887
76913SOL    HW232579   5.351  11.760   0.753
76914SOL     OW32580   4.306   8.225  12.202
76914SOL    HW132581   4.372   8.244  12.135
76914SOL    HW232582   4.230   8.193  12.152
76915SOL     OW32583   4.630   1.127   9.247
76915SOL    HW132584   4.609   1.154   9.158
76915SOL    HW232585   4.635   1.031   9.242
76916SOL     OW32586  13.737  14.721  11.625
76916SOL    HW132587  13.676  14.790  11.600
76916SOL    HW232588  13.773  14.689  11.541
76917SOL     OW32589   0.646  12.019  12.878
76917SOL    HW132590   0.642  12.088  12.944
76917SOL    HW232591   0.721  12.043  12.823
76918SOL     OW32592  12.668  10.437   9.376
76918SOL    HW132593  12.689  10.484   9.295
76918SOL    HW232594  12.609  10.495   9.423
76919SOL     OW32595   4.604  13.809   3.073
76919SOL    HW132596   4.670  13.759   3.024
76919SOL    HW232597   4.641  13.818   3.161
76920SOL     OW32598   8.040   5.757  13.006
76920SOL    HW132599   7.970   5.777  13.068
76920SOL    HW232600   8.099   5.700  13.054
76921SOL     OW32601   9.235  12.922   8.012
76921SOL    HW132602   9.296  12.917   7.938
76921SOL    HW232603   9.284  12.888   8.086
76922SOL     OW32604   1.899  11.663   6.224
76922SOL    HW132605   1.955  11.593   6.259
76922SOL    HW232606   1.814  11.648   6.265
76923SOL     OW32607   5.211  13.008  10.048
76923SOL    HW132608   5.168  12.962  10.119
76923SOL    HW232609   5.156  12.992   9.971
76924SOL     OW32610   5.539  14.407  13.562
76924SOL    HW132611   5.532  14.377  13.652
76924SOL    HW232612   5.448  14.423  13.536
76925SOL     OW32613  14.343   0.188   9.036
76925SOL    HW132614  14.253   0.208   9.061
76925SOL    HW232615  14.396   0.250   9.087
76926SOL     OW32616   6.971   3.214   3.743
76926SOL    HW132617   6.958   3.300   3.783
76926SOL    HW232618   7.059   3.219   3.705
76927SOL     OW32619   6.735   6.505  13.181
76927SOL    HW132620   6.776   6.555  13.111
76927SOL    HW232621   6.777   6.419  13.177
76928SOL     OW32622   4.048   9.456   5.049
76928SOL    HW132623   4.000   9.430   5.128
76928SOL    HW232624   3.979   9.474   4.985
76929SOL     OW32625   5.212  11.401   9.462
76929SOL    HW132626   5.155  11.445   9.399
76929SOL    HW232627   5.301  11.424   9.435
76930SOL     OW32628   5.457  11.896  11.734
76930SOL    HW132629   5.551  11.900  11.751
76930SOL    HW232630   5.433  11.805  11.749
76931SOL     OW32631   3.633   5.332   9.241
76931SOL    HW132632   3.543   5.310   9.265
76931SOL    HW232633   3.634   5.427   9.236
76932SOL     OW32634   7.760   0.371   9.812
76932SOL    HW132635   7.705   0.319   9.871
76932SOL    HW232636   7.705   0.387   9.735
76933SOL     OW32637  12.560   4.578   8.648
76933SOL    HW132638  12.551   4.489   8.612
76933SOL    HW232639  12.469   4.606   8.663
76934SOL     OW32640  12.784   1.923   8.248
76934SOL    HW132641  12.848   1.872   8.198
76934SOL    HW232642  12.837   1.984   8.300
76935SOL     OW32643   4.575   8.602   6.222
76935SOL    HW132644   4.539   8.690   6.215
76935SOL    HW232645   4.558   8.562   6.137
76936SOL     OW32646   7.474   3.439   3.327
76936SOL    HW132647   7.554   3.415   3.280
76936SOL    HW232648   7.479   3.390   3.409
76937SOL     OW32649   1.868  13.540  13.895
76937SOL    HW132650   1.952  13.520  13.854
76937SOL    HW232651   1.806  13.542  13.822
76938SOL     OW32652   6.664  10.295   6.819
76938SOL    HW132653   6.758  10.296   6.798
76938SOL    HW232654   6.659  10.252   6.904
76939SOL     OW32655   5.957  10.400   9.189
76939SOL    HW132656   5.923  10.323   9.235
76939SOL    HW232657   5.939  10.473   9.248
76940SOL     OW32658   5.161   7.615   9.890
76940SOL    HW132659   5.240   7.574   9.924
76940SOL    HW232660   5.093   7.548   9.900
76941SOL     OW32661  11.130   4.219   7.710
76941SOL    HW132662  11.159   4.295   7.760
76941SOL    HW232663  11.203   4.200   7.651
76942SOL     OW32664   8.887  11.894   8.679
76942SOL    HW132665   8.944  11.970   8.692
76942SOL    HW232666   8.932  11.822   8.724
76943SOL     OW32667  13.843   6.890  14.328
76943SOL    HW132668  13.831   6.802  14.363
76943SOL    HW232669  13.755   6.928  14.327
76944SOL     OW32670  11.062  12.162   4.503
76944SOL    HW132671  11.103  12.081   4.534
76944SOL    HW232672  11.096  12.174   4.414
76945SOL     OW32673   3.088   3.899  13.379
76945SOL    HW132674   3.048   3.842  13.313
76945SOL    HW232675   3.182   3.885  13.369
76946SOL     OW32676   7.127   5.548   4.995
76946SOL    HW132677   7.167   5.624   4.954
76946SOL    HW232678   7.171   5.540   5.080
76947SOL     OW32679   8.091   5.887  11.522
76947SOL    HW132680   8.117   5.942  11.596
76947SOL    HW232681   8.137   5.924  11.447
76948SOL     OW32682   5.006   1.298   3.577
76948SOL    HW132683   4.926   1.321   3.530
76948SOL    HW232684   5.067   1.368   3.556
76949SOL     OW32685   8.079   2.198   4.611
76949SOL    HW132686   8.117   2.229   4.694
76949SOL    HW232687   8.155   2.180   4.556
76950SOL     OW32688   3.544  13.358  10.082
76950SOL    HW132689   3.565  13.360   9.988
76950SOL    HW232690   3.623  13.322  10.123
76951SOL     OW32691  12.513  10.508   3.261
76951SOL    HW132692  12.475  10.423   3.237
76951SOL    HW232693  12.438  10.567   3.267
76952SOL     OW32694   1.323  14.202  10.623
76952SOL    HW132695   1.338  14.284  10.670
76952SOL    HW232696   1.340  14.134  10.687
76953SOL     OW32697  11.652  12.390   5.390
76953SOL    HW132698  11.717  12.409   5.322
76953SOL    HW232699  11.574  12.365   5.342
76954SOL     OW32700   2.801   7.767   4.234
76954SOL    HW132701   2.808   7.690   4.179
76954SOL    HW232702   2.717   7.757   4.279
76955SOL     OW32703   2.178  11.282  14.580
76955SOL    HW132704   2.098  11.242  14.613
76955SOL    HW232705   2.248  11.227  14.615
76956SOL     OW32706  14.125   8.884   0.924
76956SOL    HW132707  14.138   8.897   0.830
76956SOL    HW232708  14.064   8.811   0.931
76957SOL     OW32709   7.598  10.513   4.783
76957SOL    HW132710   7.521  10.537   4.732
76957SOL    HW232711   7.672  10.546   4.732
76958SOL     OW32712  10.838   8.971   9.195
76958SOL    HW132713  10.923   8.937   9.222
76958SOL    HW232714  10.775   8.913   9.238
76959SOL     OW32715  12.865   8.418   7.092
76959SOL    HW132716  12.841   8.459   7.009
76959SOL    HW232717  12.957   8.442   7.104
76960SOL     OW32718   8.463  11.245   9.845
76960SOL    HW132719   8.401  11.176   9.868
76960SOL    HW232720   8.414  11.326   9.856
76961SOL     OW32721   1.421   4.262  12.511
76961SOL    HW132722   1.502   4.300  12.476
76961SOL    HW232723   1.352   4.321  12.481
76962SOL     OW32724   8.615   9.262  13.012
76962SOL    HW132725   8.686   9.298  13.066
76962SOL    HW232726   8.562   9.212  13.073
76963SOL     OW32727   4.149   1.266   5.671
76963SOL    HW132728   4.194   1.301   5.595
76963SOL    HW232729   4.108   1.342   5.712
76964SOL     OW32730   3.851  10.161  12.199
76964SOL    HW132731   3.830  10.244  12.243
76964SOL    HW232732   3.793  10.159  12.123
76965SOL     OW32733   3.515   0.105  10.750
76965SOL    HW132734   3.560   0.134  10.830
76965SOL    HW232735   3.437   0.060  10.781
76966SOL     OW32736   4.373  13.887   1.930
76966SOL    HW132737   4.304  13.939   1.888
76966SOL    HW232738   4.451  13.903   1.875
76967SOL     OW32739   9.087   2.519  13.760
76967SOL    HW132740   9.025   2.554  13.824
76967SOL    HW232741   9.147   2.592  13.743
76968SOL     OW32742  14.024   6.158   1.608
76968SOL    HW132743  14.076   6.228   1.646
76968SOL    HW232744  13.954   6.203   1.561
76969SOL     OW32745   9.567  13.755   4.297
76969SOL    HW132746   9.630  13.743   4.368
76969SOL    HW232747   9.613  13.807   4.232
76970SOL     OW32748   8.103   2.070   7.039
76970SOL    HW132749   8.048   2.053   7.115
76970SOL    HW232750   8.041   2.090   6.968
76971SOL     OW32751   3.002   2.232   9.283
76971SOL    HW132752   3.022   2.287   9.359
76971SOL    HW232753   2.988   2.294   9.212
76972SOL     OW32754   5.385   5.393  13.983
76972SOL    HW132755   5.471   5.355  14.001
76972SOL    HW232756   5.384   5.408  13.889
76973SOL     OW32757   7.614   2.820   4.115
76973SOL    HW132758   7.706   2.809   4.092
76973SOL    HW232759   7.566   2.793   4.036
76974SOL     OW32760   2.493  12.304   7.875
76974SOL    HW132761   2.485  12.243   7.948
76974SOL    HW232762   2.586  12.303   7.853
76975SOL     OW32763  11.353  11.241   2.881
76975SOL    HW132764  11.304  11.313   2.923
76975SOL    HW232765  11.376  11.275   2.795
76976SOL     OW32766   3.948  14.400  11.433
76976SOL    HW132767   3.972  14.481  11.388
76976SOL    HW232768   3.922  14.427  11.521
76977SOL     OW32769   3.741  10.081   5.132
76977SOL    HW132770   3.703  10.041   5.211
76977SOL    HW232771   3.835  10.078   5.146
76978SOL     OW32772   2.556  13.890  14.587
76978SOL    HW132773   2.499  13.966  14.598
76978SOL    HW232774   2.577  13.888  14.494
76979SOL     OW32775  10.685   6.344   7.127
76979SOL    HW132776  10.663   6.423   7.176
76979SOL    HW232777  10.720   6.284   7.193
76980SOL     OW32778   5.106   9.208   7.957
76980SOL    HW132779   5.052   9.187   8.034
76980SOL    HW232780   5.081   9.143   7.892
76981SOL     OW32781  10.980   1.813  11.424
76981SOL    HW132782  10.931   1.847  11.348
76981SOL    HW232783  11.011   1.892  11.469
76982SOL     OW32784   9.396   2.097  14.544
76982SOL    HW132785   9.368   2.134  14.628
76982SOL    HW232786   9.490   2.115  14.540
76983SOL     OW32787   6.449  11.849   8.846
76983SOL    HW132788   6.456  11.940   8.816
76983SOL    HW232789   6.461  11.797   8.767
76984SOL     OW32790  11.580  12.254   4.873
76984SOL    HW132791  11.666  12.286   4.901
76984SOL    HW232792  11.564  12.296   4.789
76985SOL     OW32793  11.536  11.331   8.909
76985SOL    HW132794  11.456  11.285   8.883
76985SOL    HW232795  11.508  11.393   8.976
76986SOL     OW32796   9.563  11.010   1.712
76986SOL    HW132797   9.521  11.058   1.641
76986SOL    HW232798   9.496  11.003   1.779
76987SOL     OW32799   1.884  13.231   7.963
76987SOL    HW132800   1.922  13.317   7.984
76987SOL    HW232801   1.897  13.180   8.043
76988SOL     OW32802  13.656   4.988   0.721
76988SOL    HW132803  13.633   5.081   0.728
76988SOL    HW232804  13.696   4.980   0.634
76989SOL     OW32805   9.216   3.497   3.160
76989SOL    HW132806   9.262   3.414   3.150
76989SOL    HW232807   9.176   3.493   3.247
76990SOL     OW32808  11.739   6.225   6.577
76990SOL    HW132809  11.752   6.162   6.505
76990SOL    HW232810  11.816   6.282   6.573
76991SOL     OW32811  14.744   6.851   4.182
76991SOL    HW132812  14.654   6.879   4.198
76991SOL    HW232813  14.782   6.840   4.269
76992SOL     OW32814  11.524   2.649   3.788
76992SOL    HW132815  11.449   2.693   3.747
76992SOL    HW232816  11.584   2.630   3.716
76993SOL     OW32817   0.768   2.232   7.859
76993SOL    HW132818   0.848   2.180   7.848
76993SOL    HW232819   0.723   2.192   7.933
76994SOL     OW32820  13.629   3.110   7.396
76994SOL    HW132821  13.577   3.085   7.473
76994SOL    HW232822  13.628   3.205   7.396
76995SOL     OW32823   3.738  10.851   1.125
76995SOL    HW132824   3.693  10.767   1.132
76995SOL    HW232825   3.720  10.880   1.036
76996SOL     OW32826   7.432  13.222   5.581
76996SOL    HW132827   7.447  13.301   5.529
76996SOL    HW232828   7.416  13.154   5.516
76997SOL     OW32829   1.857   6.458   6.424
76997SOL    HW132830   1.903   6.532   6.463
76997SOL    HW232831   1.784   6.440   6.483
76998SOL     OW32832   0.549  10.321   6.046
76998SOL    HW132833   0.462  10.306   6.084
76998SOL    HW232834   0.608  10.272   6.104
76999SOL     OW32835   4.517   7.444   0.156
76999SOL    HW132836   4.521   7.537   0.133
76999SOL    HW232837   4.574   7.401   0.092
77000SOL     OW32838  11.500   1.440   6.094
77000SOL    HW132839  11.591   1.426   6.119
77000SOL    HW232840  11.503   1.513   6.031
77001SOL     OW32841   3.181  13.149   7.328
77001SOL    HW132842   3.111  13.118   7.385
77001SOL    HW232843   3.258  13.156   7.385
77002SOL     OW32844   8.639   9.146   7.549
77002SOL    HW132845   8.565   9.086   7.550
77002SOL    HW232846   8.610   9.219   7.493
77003SOL     OW32847   6.594   7.712   7.871
77003SOL    HW132848   6.532   7.649   7.909
77003SOL    HW232849   6.554   7.738   7.788
77004SOL     OW32850   8.885   7.435   8.705
77004SOL    HW132851   8.897   7.413   8.613
77004SOL    HW232852   8.886   7.350   8.750
77005SOL     OW32853  10.142   1.934  11.595
77005SOL    HW132854  10.143   1.996  11.668
77005SOL    HW232855  10.138   1.990  11.517
77006SOL     OW32856   7.736   7.867  11.011
77006SOL    HW132857   7.819   7.845  11.052
77006SOL    HW232858   7.686   7.912  11.079
77007SOL     OW32859  10.530   5.185   3.593
77007SOL    HW132860  10.511   5.092   3.592
77007SOL    HW232861  10.623   5.190   3.613
77008SOL     OW32862   6.577  14.066  10.223
77008SOL    HW132863   6.629  14.082  10.302
77008SOL    HW232864   6.623  14.114  10.155
77009SOL     OW32865   3.266   4.717   2.331
77009SOL    HW132866   3.198   4.785   2.333
77009SOL    HW232867   3.333   4.751   2.272
77010SOL     OW32868   8.225   4.344   2.819
77010SOL    HW132869   8.319   4.331   2.829
77010SOL    HW232870   8.187   4.260   2.845
77011SOL     OW32871   8.573  12.295  11.937
77011SOL    HW132872   8.607  12.384  11.941
77011SOL    HW232873   8.651  12.241  11.921
77012SOL     OW32874  10.710  12.399   0.729
77012SOL    HW132875  10.653  12.433   0.798
77012SOL    HW232876  10.764  12.333   0.773
77013SOL     OW32877   5.028   5.293  10.874
77013SOL    HW132878   5.030   5.277  10.969
77013SOL    HW232879   5.012   5.387  10.866
77014SOL     OW32880   3.363   7.747  10.519
77014SOL    HW132881   3.314   7.668  10.497
77014SOL    HW232882   3.400   7.776  10.435
77015SOL     OW32883  13.226  12.472  13.262
77015SOL    HW132884  13.313  12.435  13.251
77015SOL    HW232885  13.202  12.504  13.175
77016SOL     OW32886  12.865   4.708   7.838
77016SOL    HW132887  12.814   4.693   7.758
77016SOL    HW232888  12.805   4.684   7.909
77017SOL     OW32889   4.411   9.322   2.035
77017SOL    HW132890   4.396   9.272   1.955
77017SOL    HW232891   4.336   9.383   2.039
77018SOL     OW32892   7.558   3.702   9.329
77018SOL    HW132893   7.597   3.703   9.416
77018SOL    HW232894   7.624   3.742   9.272
77019SOL     OW32895   6.019   1.822   5.299
77019SOL    HW132896   6.076   1.850   5.227
77019SOL    HW232897   5.936   1.866   5.283
77020SOL     OW32898   8.251   9.186   4.621
77020SOL    HW132899   8.281   9.223   4.538
77020SOL    HW232900   8.194   9.254   4.658
77021SOL     OW32901   7.742  10.408  10.007
77021SOL    HW132902   7.723  10.477  10.071
77021SOL    HW232903   7.821  10.365  10.040
77022SOL     OW32904   5.403   0.680   4.835
77022SOL    HW132905   5.496   0.681   4.811
77022SOL    HW232906   5.369   0.599   4.797
77023SOL     OW32907   4.459  13.581   6.188
77023SOL    HW132908   4.474  13.487   6.197
77023SOL    HW232909   4.480  13.617   6.274
77024SOL     OW32910   1.903   1.922   3.904
77024SOL    HW132911   1.999   1.918   3.907
77024SOL    HW232912   1.882   2.008   3.941
77025SOL     OW32913  11.961  11.302   6.909
77025SOL    HW132914  11.948  11.274   6.818
77025SOL    HW232915  12.039  11.357   6.906
77026SOL     OW32916  12.847   5.431   5.866
77026SOL    HW132917  12.834   5.498   5.799
77026SOL    HW232918  12.941   5.414   5.866
77027SOL     OW32919   6.861   0.340   4.263
77027SOL    HW132920   6.791   0.389   4.219
77027SOL    HW232921   6.841   0.248   4.244
77028SOL     OW32922   2.262  14.433   1.203
77028SOL    HW132923   2.290  14.370   1.137
77028SOL    HW232924   2.199  14.489   1.157
77029SOL     OW32925   1.924   0.631  14.197
77029SOL    HW132926   1.842   0.581  14.195
77029SOL    HW232927   1.969   0.600  14.276
77030SOL     OW32928   1.660   3.745   0.507
77030SOL    HW132929   1.614   3.780   0.583
77030SOL    HW232930   1.669   3.651   0.524
77031SOL     OW32931   8.407   5.052  11.493
77031SOL    HW132932   8.460   4.980  11.526
77031SOL    HW232933   8.430   5.058  11.400
77032SOL     OW32934   1.988  13.440   0.814
77032SOL    HW132935   2.078  13.410   0.802
77032SOL    HW232936   1.987  13.473   0.904
77033SOL     OW32937   0.534   2.459   7.737
77033SOL    HW132938   0.566   2.376   7.772
77033SOL    HW232939   0.524   2.514   7.815
77034SOL     OW32940  11.137  12.183   4.241
77034SOL    HW132941  11.137  12.275   4.213
77034SOL    HW232942  11.137  12.133   4.159
77035SOL     OW32943  10.556  14.481   3.041
77035SOL    HW132944  10.503  14.559   3.022
77035SOL    HW232945  10.544  14.425   2.964
77036SOL     OW32946   9.808   3.708   4.021
77036SOL    HW132947   9.843   3.792   4.052
77036SOL    HW232948   9.831   3.645   4.090
77037SOL     OW32949  14.811   5.345  12.585
77037SOL    HW132950  14.839   5.434  12.607
77037SOL    HW232951  14.878   5.313  12.524
77038SOL     OW32952  13.611  10.854   0.187
77038SOL    HW132953  13.627  10.912   0.112
77038SOL    HW232954  13.560  10.781   0.150
77039SOL     OW32955   3.004   6.076   2.477
77039SOL    HW132956   3.085   6.053   2.430
77039SOL    HW232957   2.942   6.099   2.408
77040SOL     OW32958   6.309  12.764   5.928
77040SOL    HW132959   6.364  12.807   5.862
77040SOL    HW232960   6.333  12.806   6.011
77041SOL     OW32961  12.484  14.837   5.177
77041SOL    HW132962  12.560  14.869   5.225
77041SOL    HW232963  12.466   0.026   5.112
77042SOL     OW32964  13.022   5.926   9.898
77042SOL    HW132965  12.929   5.933   9.875
77042SOL    HW232966  13.029   5.843   9.945
77043SOL     OW32967   6.541  10.558   1.592
77043SOL    HW132968   6.560  10.500   1.518
77043SOL    HW232969   6.526  10.499   1.666
77044SOL     OW32970  11.083  14.267   3.343
77044SOL    HW132971  11.075  14.339   3.405
77044SOL    HW232972  11.070  14.188   3.396
77045SOL     OW32973   1.080  12.106   7.180
77045SOL    HW132974   1.029  12.128   7.102
77045SOL    HW232975   1.171  12.107   7.150
77046SOL     OW32976   1.917   4.824  13.942
77046SOL    HW132977   1.926   4.751  13.880
77046SOL    HW232978   1.823   4.830  13.959
77047SOL     OW32979   2.431   4.966   9.816
77047SOL    HW132980   2.349   5.015   9.813
77047SOL    HW232981   2.404   4.874   9.815
77048SOL     OW32982   5.507  13.883   4.295
77048SOL    HW132983   5.484  13.845   4.210
77048SOL    HW232984   5.425  13.920   4.327
77049SOL     OW32985   5.785  12.249  11.331
77049SOL    HW132986   5.748  12.307  11.265
77049SOL    HW232987   5.842  12.190  11.282
77050SOL     OW32988  13.235   1.211  12.445
77050SOL    HW132989  13.171   1.160  12.395
77050SOL    HW232990  13.260   1.282  12.385
77051SOL     OW32991   4.392  14.182   6.476
77051SOL    HW132992   4.471  14.235   6.469
77051SOL    HW232993   4.329  14.225   6.418
77052SOL     OW32994   8.300   5.802   7.036
77052SOL    HW132995   8.247   5.746   7.092
77052SOL    HW232996   8.238   5.838   6.973
77053SOL     OW32997  14.291  13.217  13.953
77053SOL    HW132998  14.245  13.194  14.034
77053SOL    HW232999  14.220  13.240  13.892
77054SOL     OW33000  14.767   5.889   4.042
77054SOL    HW133001  14.771   5.844   4.126
77054SOL    HW233002  14.751   5.981   4.064
77055SOL     OW33003   1.264   5.180   2.885
77055SOL    HW133004   1.240   5.265   2.920
77055SOL    HW233005   1.182   5.141   2.855
77056SOL     OW33006  13.076  10.540   3.797
77056SOL    HW133007  13.055  10.631   3.819
77056SOL    HW233008  13.009  10.488   3.842
77057SOL     OW33009   9.203  12.115   6.986
77057SOL    HW133010   9.152  12.047   6.941
77057SOL    HW233011   9.160  12.197   6.961
77058SOL     OW33012   6.243  10.425   8.714
77058SOL    HW133013   6.316  10.407   8.773
77058SOL    HW233014   6.265  10.508   8.673
77059SOL     OW33015   9.793   6.032  11.198
77059SOL    HW133016   9.776   5.992  11.113
77059SOL    HW233017   9.875   6.080  11.186
77060SOL     OW33018   4.768   4.815   6.877
77060SOL    HW133019   4.733   4.870   6.807
77060SOL    HW233020   4.777   4.729   6.837
77061SOL     OW33021   3.938  10.203  11.422
77061SOL    HW133022   3.988  10.121  11.422
77061SOL    HW233023   3.986  10.260  11.481
77062SOL     OW33024  10.935   9.182   7.443
77062SOL    HW133025  10.880   9.249   7.402
77062SOL    HW233026  10.963   9.126   7.371
77063SOL     OW33027   6.790  12.900  10.591
77063SOL    HW133028   6.751  12.984  10.567
77063SOL    HW233029   6.716  12.840  10.596
77064SOL     OW33030  13.995   9.449   4.820
77064SOL    HW133031  13.940   9.371   4.826
77064SOL    HW233032  13.933   9.522   4.817
77065SOL     OW33033   0.969   6.541  14.269
77065SOL    HW133034   0.975   6.519  14.176
77065SOL    HW233035   1.042   6.601  14.284
77066SOL     OW33036  12.887  11.153   0.560
77066SOL    HW133037  12.957  11.160   0.495
77066SOL    HW233038  12.912  11.212   0.630
77067SOL     OW33039  10.920   4.426  12.638
77067SOL    HW133040  10.907   4.510  12.682
77067SOL    HW233041  11.014   4.412  12.639
77068SOL     OW33042   4.865   9.450   5.419
77068SOL    HW133043   4.943   9.459   5.473
77068SOL    HW233044   4.896   9.411   5.338
77069SOL     OW33045  13.642   5.151  12.030
77069SOL    HW133046  13.588   5.221  11.992
77069SOL    HW233047  13.626   5.075  11.974
77070SOL     OW33048   7.429  12.145   2.349
77070SOL    HW133049   7.371  12.089   2.297
77070SOL    HW233050   7.516  12.109   2.335
77071SOL     OW33051  10.922   3.612  10.650
77071SOL    HW133052  10.994   3.675  10.644
77071SOL    HW233053  10.956   3.541  10.705
77072SOL     OW33054   3.273  13.919   1.946
77072SOL    HW133055   3.237  13.889   2.030
77072SOL    HW233056   3.203  13.973   1.909
77073SOL     OW33057   5.196  12.206  12.080
77073SOL    HW133058   5.185  12.276  12.016
77073SOL    HW233059   5.229  12.132  12.030
77074SOL     OW33060  14.406  14.660   1.750
77074SOL    HW133061  14.335  14.604   1.718
77074SOL    HW233062  14.467  14.599   1.792
77075SOL     OW33063   3.808   4.576  10.416
77075SOL    HW133064   3.853   4.557  10.498
77075SOL    HW233065   3.723   4.534  10.424
77076SOL     OW33066   1.365  14.233   9.502
77076SOL    HW133067   1.335  14.144   9.484
77076SOL    HW233068   1.424  14.225   9.576
77077SOL     OW33069   0.969   7.785  13.490
77077SOL    HW133070   1.042   7.825  13.443
77077SOL    HW233071   1.009   7.751  13.571
77078SOL     OW33072   9.297  10.953  11.257
77078SOL    HW133073   9.285  10.860  11.237
77078SOL    HW233074   9.226  10.974  11.317
77079SOL     OW33075  11.155   1.852   7.715
77079SOL    HW133076  11.083   1.859   7.652
77079SOL    HW233077  11.155   1.760   7.741
77080SOL     OW33078   2.133   5.987   6.191
77080SOL    HW133079   2.185   6.012   6.267
77080SOL    HW233080   2.154   6.054   6.125
77081SOL     OW33081   1.732   5.022   5.168
77081SOL    HW133082   1.769   5.064   5.091
77081SOL    HW233083   1.642   5.057   5.173
77082SOL     OW33084   6.633   5.939   3.118
77082SOL    HW133085   6.643   6.020   3.168
77082SOL    HW233086   6.680   5.873   3.170
77083SOL     OW33087  14.354   3.591   3.831
77083SOL    HW133088  14.389   3.521   3.775
77083SOL    HW233089  14.259   3.588   3.816
77084SOL     OW33090   5.259   2.088  11.438
77084SOL    HW133091   5.267   2.086  11.342
77084SOL    HW233092   5.167   2.066  11.454
77085SOL     OW33093  10.358   7.014   6.365
77085SOL    HW133094  10.376   7.088   6.423
77085SOL    HW233095  10.266   6.994   6.379
77086SOL     OW33096   3.600  11.534   2.938
77086SOL    HW133097   3.560  11.620   2.931
77086SOL    HW233098   3.690  11.547   2.906
77087SOL     OW33099   2.735  13.265  13.821
77087SOL    HW133100   2.694  13.300  13.900
77087SOL    HW233101   2.768  13.343  13.775
77088SOL     OW33102   3.625   2.726  11.680
77088SOL    HW133103   3.579   2.686  11.753
77088SOL    HW233104   3.670   2.653  11.636
77089SOL     OW33105  14.288  12.624   1.038
77089SOL    HW133106  14.352  12.674   0.989
77089SOL    HW233107  14.339  12.560   1.087
77090SOL     OW33108  11.340   4.225  14.796
77090SOL    HW133109  11.370   4.266  14.715
77090SOL    HW233110  11.252   4.260  14.810
77091SOL     OW33111  11.817   5.089   0.210
77091SOL    HW133112  11.864   5.016   0.171
77091SOL    HW233113  11.853   5.097   0.298
77092SOL     OW33114   8.153   1.661   4.900
77092SOL    HW133115   8.157   1.591   4.835
77092SOL    HW233116   8.230   1.649   4.955
77093SOL     OW33117  12.618   6.407   4.619
77093SOL    HW133118  12.563   6.368   4.551
77093SOL    HW233119  12.579   6.492   4.636
77094SOL     OW33120  14.452   6.162  12.334
77094SOL    HW133121  14.358   6.153  12.317
77094SOL    HW233122  14.487   6.075  12.317
77095SOL     OW33123   7.267  12.208   1.573
77095SOL    HW133124   7.206  12.151   1.620
77095SOL    HW233125   7.303  12.153   1.504
77096SOL     OW33126   7.528   9.425  10.275
77096SOL    HW133127   7.558   9.516  10.265
77096SOL    HW233128   7.600   9.373  10.241
77097SOL     OW33129   4.329  14.526  11.456
77097SOL    HW133130   4.338  14.557  11.546
77097SOL    HW233131   4.282  14.443  11.464
77098SOL     OW33132  14.458   4.374   4.206
77098SOL    HW133133  14.470   4.425   4.126
77098SOL    HW233134  14.363   4.369   4.217
77099SOL     OW33135   0.643   2.177   0.640
77099SOL    HW133136   0.607   2.176   0.551
77099SOL    HW233137   0.580   2.231   0.689
77100SOL     OW33138   8.497  12.224  11.643
77100SOL    HW133139   8.502  12.200  11.736
77100SOL    HW233140   8.562  12.293  11.633
77101SOL     OW33141  11.350  13.189   9.653
77101SOL    HW133142  11.260  13.220   9.660
77101SOL    HW233143  11.360  13.165   9.561
77102SOL     OW33144   9.748  10.256   2.287
77102SOL    HW133145   9.792  10.337   2.311
77102SOL    HW233146   9.755  10.251   2.192
77103SOL     OW33147   1.664   5.848   8.829
77103SOL    HW133148   1.568   5.850   8.829
77103SOL    HW233149   1.689   5.904   8.755
77104SOL     OW33150   1.657   2.173   1.616
77104SOL    HW133151   1.752   2.163   1.623
77104SOL    HW233152   1.638   2.164   1.523
77105SOL     OW33153   5.592  13.089   7.072
77105SOL    HW133154   5.550  13.050   7.148
77105SOL    HW233155   5.527  13.081   7.002
77106SOL     OW33156   6.103  14.670  12.558
77106SOL    HW133157   6.009  14.684  12.574
77106SOL    HW233158   6.138  14.759  12.545
77107SOL     OW33159   1.440   3.127   0.387
77107SOL    HW133160   1.418   3.080   0.467
77107SOL    HW233161   1.535   3.116   0.379
77108SOL     OW33162   6.743   4.949  11.480
77108SOL    HW133163   6.664   4.965  11.430
77108SOL    HW233164   6.814   4.982  11.425
77109SOL     OW33165   8.414   3.470   4.534
77109SOL    HW133166   8.447   3.461   4.624
77109SOL    HW233167   8.487   3.511   4.487
77110SOL     OW33168   3.982   6.117  14.582
77110SOL    HW133169   4.016   6.147  14.666
77110SOL    HW233170   4.059   6.086  14.535
77111SOL     OW33171   4.677  10.296   6.848
77111SOL    HW133172   4.649  10.231   6.784
77111SOL    HW233173   4.652  10.380   6.808
77112SOL     OW33174  12.781   7.990  11.001
77112SOL    HW133175  12.760   8.061  11.061
77112SOL    HW233176  12.825   7.925  11.056
77113SOL     OW33177   2.480   4.618   2.294
77113SOL    HW133178   2.567   4.660   2.289
77113SOL    HW233179   2.439   4.637   2.210
77114SOL     OW33180   4.921  12.026   1.687
77114SOL    HW133181   4.982  12.029   1.760
77114SOL    HW233182   4.967  11.978   1.618
77115SOL     OW33183   0.613  11.429  11.352
77115SOL    HW133184   0.615  11.522  11.377
77115SOL    HW233185   0.617  11.430  11.256
77116SOL     OW33186   1.850   3.623   4.432
77116SOL    HW133187   1.853   3.538   4.476
77116SOL    HW233188   1.881   3.606   4.343
77117SOL     OW33189   9.192  12.267   6.648
77117SOL    HW133190   9.119  12.206   6.635
77117SOL    HW233191   9.151  12.353   6.650
77118SOL     OW33192   3.356  11.018   9.105
77118SOL    HW133193   3.288  11.074   9.143
77118SOL    HW233194   3.346  10.935   9.151
77119SOL     OW33195   0.471   7.683   7.423
77119SOL    HW133196   0.494   7.679   7.331
77119SOL    HW233197   0.410   7.610   7.436
77120SOL     OW33198   0.715   9.797   8.466
77120SOL    HW133199   0.783   9.730   8.471
77120SOL    HW233200   0.725   9.847   8.547
77121SOL     OW33201  10.569  12.377   1.810
77121SOL    HW133202  10.658  12.406   1.833
77121SOL    HW233203  10.552  12.418   1.725
77122SOL     OW33204   4.441  12.379  12.882
77122SOL    HW133205   4.413  12.413  12.967
77122SOL    HW233206   4.521  12.429  12.861
77123SOL     OW33207   6.664  14.719   8.831
77123SOL    HW133208   6.645  14.804   8.791
77123SOL    HW233209   6.590  14.664   8.806
77124SOL     OW33210  11.913   4.312   1.746
77124SOL    HW133211  11.879   4.397   1.776
77124SOL    HW233212  11.997   4.303   1.791
77125SOL     OW33213   9.772  13.689  14.637
77125SOL    HW133214   9.735  13.608  14.672
77125SOL    HW233215   9.822  13.726  14.710
77126SOL     OW33216  13.340   9.047   1.093
77126SOL    HW133217  13.283   9.051   1.016
77126SOL    HW233218  13.284   9.072   1.166
77127SOL     OW33219   8.765  13.709   1.613
77127SOL    HW133220   8.719  13.759   1.545
77127SOL    HW233221   8.740  13.752   1.694
77128SOL     OW33222  11.192   0.709  10.940
77128SOL    HW133223  11.173   0.779  11.003
77128SOL    HW233224  11.246   0.647  10.988
77129SOL     OW33225   2.040  12.422  13.497
77129SOL    HW133226   2.006  12.511  13.496
77129SOL    HW233227   2.063  12.404  13.405
77130SOL     OW33228   8.853   5.013  12.398
77130SOL    HW133229   8.768   5.057  12.391
77130SOL    HW233230   8.832   4.923  12.421
77131SOL     OW33231   8.828   3.752   2.893
77131SOL    HW133232   8.847   3.706   2.975
77131SOL    HW233233   8.888   3.826   2.893
77132SOL     OW33234   1.423   8.203   6.192
77132SOL    HW133235   1.385   8.272   6.138
77132SOL    HW233236   1.392   8.122   6.152
77133SOL     OW33237   5.784   9.267   1.176
77133SOL    HW133238   5.803   9.190   1.230
77133SOL    HW233239   5.734   9.325   1.234
77134SOL     OW33240   5.649   3.080   3.210
77134SOL    HW133241   5.679   3.003   3.161
77134SOL    HW233242   5.605   3.044   3.286
77135SOL     OW33243  13.433  12.629   5.004
77135SOL    HW133244  13.526  12.632   5.027
77135SOL    HW233245  13.424  12.552   4.948
77136SOL     OW33246   1.200   1.904  13.418
77136SOL    HW133247   1.276   1.950  13.452
77136SOL    HW233248   1.198   1.821  13.467
77137SOL     OW33249  12.945   5.831   6.600
77137SOL    HW133250  12.991   5.822   6.516
77137SOL    HW233251  12.890   5.753   6.605
77138SOL     OW33252   5.376   6.934   5.216
77138SOL    HW133253   5.424   7.016   5.229
77138SOL    HW233254   5.328   6.921   5.297
77139SOL     OW33255   6.268  10.042   7.585
77139SOL    HW133256   6.335  10.006   7.643
77139SOL    HW233257   6.297  10.019   7.497
77140SOL     OW33258  12.178  14.017   9.779
77140SOL    HW133259  12.138  13.931   9.767
77140SOL    HW233260  12.267  13.998   9.808
77141SOL     OW33261   9.147   1.150   5.526
77141SOL    HW133262   9.131   1.244   5.525
77141SOL    HW233263   9.076   1.113   5.474
77142SOL     OW33264   7.387  11.363  11.596
77142SOL    HW133265   7.350  11.290  11.547
77142SOL    HW233266   7.348  11.441  11.555
77143SOL     OW33267  10.612  13.854  11.590
77143SOL    HW133268  10.552  13.846  11.665
77143SOL    HW233269  10.581  13.788  11.528
77144SOL     OW33270  14.446   8.710   4.113
77144SOL    HW133271  14.452   8.653   4.190
77144SOL    HW233272  14.376   8.671   4.060
77145SOL     OW33273   7.078  11.339   0.612
77145SOL    HW133274   7.138  11.405   0.578
77145SOL    HW233275   7.085  11.266   0.551
77146SOL     OW33276  11.832  12.180  13.055
77146SOL    HW133277  11.813  12.258  13.002
77146SOL    HW233278  11.914  12.147  13.019
77147SOL     OW33279   6.532   1.039  12.519
77147SOL    HW133280   6.611   0.993  12.492
77147SOL    HW233281   6.519   1.015  12.611
77148SOL     OW33282  13.963  12.315  10.622
77148SOL    HW133283  13.937  12.279  10.537
77148SOL    HW233284  14.057  12.332  10.613
77149SOL     OW33285  11.626  14.165   8.636
77149SOL    HW133286  11.707  14.215   8.626
77149SOL    HW233287  11.613  14.161   8.731
77150SOL     OW33288   8.144  11.108  12.297
77150SOL    HW133289   8.215  11.046  12.314
77150SOL    HW233290   8.170  11.188  12.343
77151SOL     OW33291   9.505   6.585  10.790
77151SOL    HW133292   9.429   6.584  10.732
77151SOL    HW233293   9.467   6.589  10.878
77152SOL     OW33294   0.150   6.166   8.659
77152SOL    HW133295   0.096   6.132   8.730
77152SOL    HW233296   0.164   6.258   8.680
77153SOL     OW33297  10.246  14.345   9.885
77153SOL    HW133298  10.325  14.314   9.928
77153SOL    HW233299  10.260  14.327   9.792
77154SOL     OW33300   7.541  11.923   9.961
77154SOL    HW133301   7.573  12.008   9.989
77154SOL    HW233302   7.469  11.943   9.901
77155SOL     OW33303   4.832   7.954   9.287
77155SOL    HW133304   4.904   7.921   9.341
77155SOL    HW233305   4.875   7.996   9.213
77156SOL     OW33306  13.116  12.492   9.188
77156SOL    HW133307  13.046  12.541   9.231
77156SOL    HW233308  13.083  12.402   9.185
77157SOL     OW33309   5.808   7.990  12.381
77157SOL    HW133310   5.764   8.042  12.448
77157SOL    HW233311   5.887   8.040  12.360
77158SOL     OW33312   8.671   2.129   8.184
77158SOL    HW133313   8.694   2.215   8.219
77158SOL    HW233314   8.602   2.146   8.120
77159SOL     OW33315  10.379   9.847   4.500
77159SOL    HW133316  10.390   9.936   4.467
77159SOL    HW233317  10.462   9.826   4.543
77160SOL     OW33318   2.416   8.295   4.087
77160SOL    HW133319   2.402   8.250   4.003
77160SOL    HW233320   2.328   8.314   4.119
77161SOL     OW33321   4.137   7.429   0.118
77161SOL    HW133322   4.139   7.380   0.200
77161SOL    HW233323   4.131   7.362   0.050
77162SOL     OW33324   0.916   1.759   1.187
77162SOL    HW133325   0.849   1.768   1.255
77162SOL    HW233326   0.870   1.778   1.105
77163SOL     OW33327   8.453   3.181   8.588
77163SOL    HW133328   8.512   3.236   8.640
77163SOL    HW233329   8.445   3.227   8.505
77164SOL     OW33330  13.081   7.663  10.679
77164SOL    HW133331  13.137   7.703  10.745
77164SOL    HW233332  13.008   7.626  10.729
77165SOL     OW33333   5.916   2.835   3.754
77165SOL    HW133334   5.954   2.779   3.822
77165SOL    HW233335   5.939   2.924   3.781
77166SOL     OW33336   9.843   8.852   9.007
77166SOL    HW133337   9.905   8.804   9.063
77166SOL    HW233338   9.767   8.794   9.002
77167SOL     OW33339  13.734  13.393   6.119
77167SOL    HW133340  13.823  13.357   6.110
77167SOL    HW233341  13.746  13.488   6.115
77168SOL     OW33342  14.307  12.509   5.610
77168SOL    HW133343  14.313  12.603   5.593
77168SOL    HW233344  14.378  12.471   5.560
77169SOL     OW33345  13.659   0.109   9.969
77169SOL    HW133346  13.719   0.038   9.991
77169SOL    HW233347  13.602   0.117  10.045
77170SOL     OW33348   2.734  12.554   2.249
77170SOL    HW133349   2.823  12.570   2.218
77170SOL    HW233350   2.710  12.633   2.298
77171SOL     OW33351   9.225   2.702   7.460
77171SOL    HW133352   9.315   2.716   7.490
77171SOL    HW233353   9.179   2.669   7.538
77172SOL     OW33354   8.570  10.071   1.132
77172SOL    HW133355   8.610  10.022   1.060
77172SOL    HW233356   8.611  10.157   1.127
77173SOL     OW33357   0.077   9.967   0.586
77173SOL    HW133358   0.161   9.927   0.566
77173SOL    HW233359   0.031   9.902   0.640
77174SOL     OW33360  13.716   8.912   1.969
77174SOL    HW133361  13.676   8.955   2.045
77174SOL    HW233362  13.657   8.932   1.896
77175SOL     OW33363   5.837   6.832  11.290
77175SOL    HW133364   5.791   6.755  11.257
77175SOL    HW233365   5.928   6.804  11.298
77176SOL     OW33366  11.312   5.179   2.639
77176SOL    HW133367  11.325   5.159   2.732
77176SOL    HW233368  11.367   5.255   2.623
77177SOL     OW33369   9.355   4.967  13.638
77177SOL    HW133370   9.303   4.905  13.586
77177SOL    HW233371   9.440   4.924  13.650
77178SOL     OW33372   5.185  11.623   7.938
77178SOL    HW133373   5.204  11.691   8.003
77178SOL    HW233374   5.270  11.583   7.919
77179SOL     OW33375   3.064  11.657   4.103
77179SOL    HW133376   3.075  11.728   4.166
77179SOL    HW233377   2.978  11.619   4.123
77180SOL     OW33378  12.606   0.315   7.783
77180SOL    HW133379  12.640   0.226   7.775
77180SOL    HW233380  12.683   0.371   7.776
77181SOL     OW33381   9.216   5.567   4.586
77181SOL    HW133382   9.310   5.549   4.597
77181SOL    HW233383   9.175   5.480   4.583
77182SOL     OW33384  13.230  11.319  11.404
77182SOL    HW133385  13.184  11.235  11.403
77182SOL    HW233386  13.160  11.384  11.397
77183SOL     OW33387   1.885  12.060   0.773
77183SOL    HW133388   1.855  11.969   0.783
77183SOL    HW233389   1.963  12.066   0.828
77184SOL     OW33390   4.239   6.398   7.600
77184SOL    HW133391   4.210   6.455   7.672
77184SOL    HW233392   4.213   6.310   7.628
77185SOL     OW33393   9.571   7.016   4.340
77185SOL    HW133394   9.516   6.951   4.295
77185SOL    HW233395   9.617   7.061   4.269
77186SOL     OW33396  11.671   8.856  12.931
77186SOL    HW133397  11.591   8.826  12.973
77186SOL    HW233398  11.720   8.899  13.002
77187SOL     OW33399   6.376   8.298  14.452
77187SOL    HW133400   6.397   8.221  14.399
77187SOL    HW233401   6.426   8.369  14.413
77188SOL     OW33402   0.858   3.103   0.441
77188SOL    HW133403   0.792   3.171   0.453
77188SOL    HW233404   0.809   3.022   0.428
77189SOL     OW33405  11.009   1.736   8.333
77189SOL    HW133406  11.019   1.735   8.237
77189SOL    HW233407  10.916   1.725   8.348
77190SOL     OW33408  14.812  12.780  11.274
77190SOL    HW133409  14.750  12.814  11.338
77190SOL    HW233410   0.013  12.829  11.290
77191SOL     OW33411   9.247   0.708   5.037
77191SOL    HW133412   9.192   0.696   4.960
77191SOL    HW233413   9.287   0.794   5.024
77192SOL     OW33414   3.405   0.793   4.456
77192SOL    HW133415   3.351   0.872   4.453
77192SOL    HW233416   3.452   0.793   4.372
77193SOL     OW33417   0.704   6.588  11.460
77193SOL    HW133418   0.657   6.552  11.536
77193SOL    HW233419   0.744   6.668  11.494
77194SOL     OW33420  14.115   8.400  10.909
77194SOL    HW133421  14.130   8.480  10.959
77194SOL    HW233422  14.192   8.392  10.853
77195SOL     OW33423  14.844   3.757   7.872
77195SOL    HW133424   0.006   3.815   7.936
77195SOL    HW233425  14.812   3.683   7.924
77196SOL     OW33426   5.835   6.051   9.156
77196SOL    HW133427   5.759   6.096   9.193
77196SOL    HW233428   5.905   6.116   9.158
77197SOL     OW33429   4.973  10.721  10.245
77197SOL    HW133430   4.894  10.729  10.191
77197SOL    HW233431   4.950  10.656  10.311
77198SOL     OW33432   6.907   0.563  12.028
77198SOL    HW133433   6.952   0.500  11.971
77198SOL    HW233434   6.909   0.645  11.979
77199SOL     OW33435   8.533   0.640   3.371
77199SOL    HW133436   8.550   0.705   3.439
77199SOL    HW233437   8.439   0.648   3.353
77200SOL     OW33438   6.037   4.669   6.454
77200SOL    HW133439   6.052   4.702   6.543
77200SOL    HW233440   6.048   4.746   6.398
77201SOL     OW33441  12.336   6.864   2.150
77201SOL    HW133442  12.304   6.787   2.196
77201SOL    HW233443  12.289   6.937   2.189
77202SOL     OW33444   4.084  12.508   1.963
77202SOL    HW133445   4.010  12.479   2.018
77202SOL    HW233446   4.084  12.446   1.890
77203SOL     OW33447  13.176  11.819   1.954
77203SOL    HW133448  13.202  11.907   1.980
77203SOL    HW233449  13.213  11.762   2.022
77204SOL     OW33450   3.016   8.578   3.626
77204SOL    HW133451   2.983   8.606   3.712
77204SOL    HW233452   3.108   8.601   3.626
77205SOL     OW33453  13.665   0.980   9.958
77205SOL    HW133454  13.722   1.058   9.957
77205SOL    HW233455  13.577   1.016   9.968
77206SOL     OW33456  14.170   4.940   2.085
77206SOL    HW133457  14.201   4.892   2.008
77206SOL    HW233458  14.163   4.874   2.154
77207SOL     OW33459   1.743  12.972  11.628
77207SOL    HW133460   1.688  13.010  11.560
77207SOL    HW233461   1.686  12.909  11.673
77208SOL     OW33462   9.408   4.877   7.850
77208SOL    HW133463   9.504   4.878   7.843
77208SOL    HW233464   9.386   4.785   7.859
77209SOL     OW33465   3.263   0.991  10.236
77209SOL    HW133466   3.179   1.027  10.265
77209SOL    HW233467   3.267   0.905  10.278
77210SOL     OW33468  14.153  13.077   2.501
77210SOL    HW133469  14.175  13.134   2.428
77210SOL    HW233470  14.152  12.989   2.463
77211SOL     OW33471  13.552  13.459  13.105
77211SOL    HW133472  13.585  13.454  13.016
77211SOL    HW233473  13.532  13.369  13.129
77212SOL     OW33474   3.003  12.006   6.845
77212SOL    HW133475   2.913  11.981   6.824
77212SOL    HW233476   3.029  11.948   6.916
77213SOL     OW33477   1.439   0.219   7.474
77213SOL    HW133478   1.450   0.303   7.429
77213SOL    HW233479   1.366   0.234   7.535
77214SOL     OW33480  13.727   8.935   9.027
77214SOL    HW133481  13.794   8.867   9.017
77214SOL    HW233482  13.740   8.968   9.116
77215SOL     OW33483  12.065   5.631  11.356
77215SOL    HW133484  12.133   5.647  11.290
77215SOL    HW233485  12.033   5.543  11.337
77216SOL     OW33486   5.291  11.964   5.544
77216SOL    HW133487   5.228  11.893   5.553
77216SOL    HW233488   5.271  12.023   5.617
77217SOL     OW33489  10.976   2.409   0.302
77217SOL    HW133490  11.025   2.447   0.229
77217SOL    HW233491  10.897   2.462   0.308
77218SOL     OW33492  12.754   2.332   2.394
77218SOL    HW133493  12.721   2.262   2.450
77218SOL    HW233494  12.744   2.411   2.446
77219SOL     OW33495  11.921  11.747   3.161
77219SOL    HW133496  11.865  11.712   3.092
77219SOL    HW233497  11.991  11.682   3.170
77220SOL     OW33498   5.014   3.503   4.181
77220SOL    HW133499   5.048   3.562   4.114
77220SOL    HW233500   4.920   3.499   4.163
77221SOL     OW33501   2.716  10.472   6.012
77221SOL    HW133502   2.795  10.509   6.052
77221SOL    HW233503   2.644  10.526   6.046
77222SOL     OW33504   2.605   0.716   2.264
77222SOL    HW133505   2.694   0.701   2.297
77222SOL    HW233506   2.550   0.707   2.342
77223SOL     OW33507   7.356  13.613  13.700
77223SOL    HW133508   7.410  13.566  13.764
77223SOL    HW233509   7.300  13.545  13.662
77224SOL     OW33510  14.650   9.745  11.536
77224SOL    HW133511  14.606   9.688  11.600
77224SOL    HW233512  14.611   9.721  11.452
77225SOL     OW33513   6.026  11.557   8.210
77225SOL    HW133514   6.115  11.590   8.198
77225SOL    HW233515   6.009  11.567   8.304
77226SOL     OW33516   0.676   0.013  13.661
77226SOL    HW133517   0.599  14.866  13.612
77226SOL    HW233518   0.725  14.812  13.676
77227SOL     OW33519   9.304   7.893   3.187
77227SOL    HW133520   9.263   7.972   3.153
77227SOL    HW233521   9.319   7.911   3.280
77228SOL     OW33522   6.060   8.084   5.494
77228SOL    HW133523   6.092   8.005   5.451
77228SOL    HW233524   6.139   8.130   5.524
77229SOL     OW33525  11.528   4.757  12.773
77229SOL    HW133526  11.489   4.731  12.857
77229SOL    HW233527  11.473   4.716  12.707
77230SOL     OW33528   9.139  14.479   0.245
77230SOL    HW133529   9.106  14.398   0.285
77230SOL    HW233530   9.062  14.535   0.237
77231SOL     OW33531  12.840   4.761  11.430
77231SOL    HW133532  12.855   4.731  11.519
77231SOL    HW233533  12.921   4.807  11.407
77232SOL     OW33534  14.441   0.575   0.081
77232SOL    HW133535  14.491   0.655   0.095
77232SOL    HW233536  14.399   0.587  14.876
77233SOL     OW33537  14.196   6.708   1.160
77233SOL    HW133538  14.229   6.696   1.249
77233SOL    HW233539  14.259   6.766   1.118
77234SOL     OW33540   5.608   2.504   2.903
77234SOL    HW133541   5.672   2.575   2.891
77234SOL    HW233542   5.658   2.424   2.888
77235SOL     OW33543   9.143   9.616   8.268
77235SOL    HW133544   9.212   9.551   8.281
77235SOL    HW233545   9.063   9.563   8.258
77236SOL     OW33546   0.462   6.238   6.028
77236SOL    HW133547   0.452   6.327   5.996
77236SOL    HW233548   0.470   6.184   5.949
77237SOL     OW33549   1.175   6.738   7.500
77237SOL    HW133550   1.263   6.774   7.505
77237SOL    HW233551   1.145   6.759   7.412
77238SOL     OW33552   1.689  12.598   8.297
77238SOL    HW133553   1.732  12.516   8.322
77238SOL    HW233554   1.761  12.653   8.265
77239SOL     OW33555   8.326   0.149   7.132
77239SOL    HW133556   8.293   0.184   7.049
77239SOL    HW233557   8.251   0.154   7.191
77240SOL     OW33558  14.466  11.525   5.922
77240SOL    HW133559  14.403  11.453   5.923
77240SOL    HW233560  14.456  11.565   5.835
77241SOL     OW33561   4.783   5.711  12.328
77241SOL    HW133562   4.827   5.638  12.285
77241SOL    HW233563   4.832   5.725  12.409
77242SOL     OW33564   5.928  12.613   3.594
77242SOL    HW133565   5.961  12.577   3.511
77242SOL    HW233566   5.979  12.567   3.661
77243SOL     OW33567   5.163  12.255  11.044
77243SOL    HW133568   5.238  12.197  11.056
77243SOL    HW233569   5.198  12.331  10.998
77244SOL     OW33570   7.629  13.072  11.400
77244SOL    HW133571   7.562  13.068  11.469
77244SOL    HW233572   7.616  12.991  11.350
77245SOL     OW33573  10.818   8.677   7.343
77245SOL    HW133574  10.738   8.638   7.310
77245SOL    HW233575  10.858   8.719   7.266
77246SOL     OW33576   0.453   6.696   3.748
77246SOL    HW133577   0.384   6.672   3.809
77246SOL    HW233578   0.443   6.790   3.736
77247SOL     OW33579   4.841   0.021  11.083
77247SOL    HW133580   4.866  14.853  11.163
77247SOL    HW233581   4.855   0.113  11.106
77248SOL     OW33582   7.490  10.788   9.749
77248SOL    HW133583   7.537  10.809   9.668
77248SOL    HW233584   7.420  10.854   9.753
77249SOL     OW33585   4.687  14.835   6.781
77249SOL    HW133586   4.707  14.870   6.868
77249SOL    HW233587   4.598  14.801   6.790
77250SOL     OW33588   1.378   7.948   6.956
77250SOL    HW133589   1.381   8.010   6.883
77250SOL    HW233590   1.452   7.890   6.940
77251SOL     OW33591   2.212  10.084   0.651
77251SOL    HW133592   2.184  10.144   0.721
77251SOL    HW233593   2.307  10.083   0.657
77252SOL     OW33594  12.617  14.799  11.353
77252SOL    HW133595  12.593  14.789  11.261
77252SOL    HW233596  12.622  14.709  11.386
77253SOL     OW33597   7.046  11.668   5.508
77253SOL    HW133598   6.987  11.713   5.447
77253SOL    HW233599   7.068  11.735   5.573
77254SOL     OW33600   3.168   0.554   9.971
77254SOL    HW133601   3.194   0.641  10.002
77254SOL    HW233602   3.194   0.553   9.879
77255SOL     OW33603   4.980  12.731   1.367
77255SOL    HW133604   5.033  12.655   1.342
77255SOL    HW233605   4.947  12.765   1.284
77256SOL     OW33606   3.121  13.395   0.587
77256SOL    HW133607   3.087  13.484   0.577
77256SOL    HW233608   3.204  13.406   0.632
77257SOL     OW33609   7.612   5.094   8.119
77257SOL    HW133610   7.662   5.052   8.049
77257SOL    HW233611   7.540   5.033   8.137
77258SOL     OW33612   0.348  14.451   0.300
77258SOL    HW133613   0.311  14.387   0.238
77258SOL    HW233614   0.308  14.534   0.275
77259SOL     OW33615  13.994  11.533  10.498
77259SOL    HW133616  14.005  11.493  10.412
77259SOL    HW233617  13.969  11.624  10.479
77260SOL     OW33618  11.319   5.820   8.167
77260SOL    HW133619  11.254   5.863   8.222
77260SOL    HW233620  11.337   5.883   8.098
77261SOL     OW33621  11.607   5.645   3.331
77261SOL    HW133622  11.587   5.552   3.318
77261SOL    HW233623  11.634   5.651   3.423
77262SOL     OW33624   7.215   4.495   4.162
77262SOL    HW133625   7.244   4.514   4.252
77262SOL    HW233626   7.288   4.525   4.107
77263SOL     OW33627   7.379  14.188  14.805
77263SOL    HW133628   7.471  14.161  14.800
77263SOL    HW233629   7.333  14.111  14.839
77264SOL     OW33630  14.434   8.568  11.004
77264SOL    HW133631  14.444   8.652  11.049
77264SOL    HW233632  14.384   8.514  11.064
77265SOL     OW33633   5.282   4.190   2.264
77265SOL    HW133634   5.373   4.180   2.290
77265SOL    HW233635   5.282   4.171   2.170
77266SOL     OW33636   6.497   8.454   2.343
77266SOL    HW133637   6.523   8.451   2.251
77266SOL    HW233638   6.473   8.546   2.358
77267SOL     OW33639  13.284   8.572   8.372
77267SOL    HW133640  13.196   8.609   8.378
77267SOL    HW233641  13.298   8.560   8.278
77268SOL     OW33642  11.186  12.385   7.418
77268SOL    HW133643  11.266  12.403   7.467
77268SOL    HW233644  11.216  12.344   7.337
77269SOL     OW33645   9.177  12.334   7.735
77269SOL    HW133646   9.092  12.299   7.710
77269SOL    HW233647   9.169  12.353   7.828
77270SOL     OW33648   6.800  13.765   4.679
77270SOL    HW133649   6.836  13.678   4.666
77270SOL    HW233650   6.877  13.823   4.673
77271SOL     OW33651  12.681   3.986   8.118
77271SOL    HW133652  12.651   4.066   8.076
77271SOL    HW233653  12.757   4.014   8.169
77272SOL     OW33654   6.803   1.574   4.240
77272SOL    HW133655   6.739   1.574   4.311
77272SOL    HW233656   6.822   1.482   4.225
77273SOL     OW33657   5.183  13.136   6.139
77273SOL    HW133658   5.100  13.155   6.095
77273SOL    HW233659   5.233  13.087   6.074
77274SOL     OW33660   6.247  11.203   1.562
77274SOL    HW133661   6.335  11.201   1.527
77274SOL    HW233662   6.231  11.296   1.582
77275SOL     OW33663   4.728   1.600   0.075
77275SOL    HW133664   4.753   1.546   0.000
77275SOL    HW233665   4.769   1.559   0.150
77276SOL     OW33666  12.334  13.958   0.515
77276SOL    HW133667  12.306  13.950   0.606
77276SOL    HW233668  12.362  14.049   0.506
77277SOL     OW33669   1.819   2.297   0.090
77277SOL    HW133670   1.791   2.328   0.176
77277SOL    HW233671   1.790   2.206   0.087
77278SOL     OW33672   6.386   4.003   7.077
77278SOL    HW133673   6.424   4.086   7.105
77278SOL    HW233674   6.297   4.026   7.049
77279SOL     OW33675   0.500  13.395   3.213
77279SOL    HW133676   0.511  13.398   3.118
77279SOL    HW233677   0.414  13.354   3.226
77280SOL     OW33678  12.076   1.645   1.096
77280SOL    HW133679  11.986   1.634   1.125
77280SOL    HW233680  12.070   1.681   1.008
77281SOL     OW33681   0.951   0.710  12.602
77281SOL    HW133682   0.900   0.646  12.554
77281SOL    HW233683   0.985   0.662  12.678
77282SOL     OW33684   1.267   9.340   8.633
77282SOL    HW133685   1.322   9.267   8.605
77282SOL    HW233686   1.194   9.340   8.570
77283SOL     OW33687   6.842   0.283   9.165
77283SOL    HW133688   6.791   0.363   9.163
77283SOL    HW233689   6.924   0.308   9.209
77284SOL     OW33690   8.483   9.086   0.656
77284SOL    HW133691   8.464   9.026   0.584
77284SOL    HW233692   8.397   9.111   0.690
77285SOL     OW33693   0.487  14.087   4.986
77285SOL    HW133694   0.533  14.087   4.902
77285SOL    HW233695   0.429  14.011   4.982
77286SOL     OW33696  11.855  14.603   8.594
77286SOL    HW133697  11.889  14.516   8.574
77286SOL    HW233698  11.796  14.589   8.669
77287SOL     OW33699   5.241  13.945   3.699
77287SOL    HW133700   5.303  13.998   3.649
77287SOL    HW233701   5.257  13.970   3.791
77288SOL     OW33702   8.717  11.016  12.009
77288SOL    HW133703   8.755  11.059  11.933
77288SOL    HW233704   8.709  11.085  12.074
77289SOL     OW33705   0.945   1.480   8.860
77289SOL    HW133706   0.957   1.553   8.920
77289SOL    HW233707   0.962   1.402   8.913
77290SOL     OW33708   6.371   4.364   9.260
77290SOL    HW133709   6.430   4.387   9.331
77290SOL    HW233710   6.295   4.325   9.303
77291SOL     OW33711   3.688  11.043  10.860
77291SOL    HW133712   3.677  11.065  10.952
77291SOL    HW233713   3.745  10.966  10.860
77292SOL     OW33714   0.809   2.471  14.529
77292SOL    HW133715   0.730   2.418  14.516
77292SOL    HW233716   0.789   2.554  14.485
77293SOL     OW33717   4.600   9.397   6.590
77293SOL    HW133718   4.567   9.452   6.660
77293SOL    HW233719   4.681   9.439   6.562
77294SOL     OW33720  13.526  12.913   5.164
77294SOL    HW133721  13.577  12.951   5.092
77294SOL    HW233722  13.542  12.819   5.157
77295SOL     OW33723   3.191   6.179   1.268
77295SOL    HW133724   3.287   6.180   1.271
77295SOL    HW233725   3.165   6.141   1.352
77296SOL     OW33726   8.544   9.062  14.224
77296SOL    HW133727   8.616   9.089  14.167
77296SOL    HW233728   8.472   9.042  14.165
77297SOL     OW33729   5.901   5.618   3.822
77297SOL    HW133730   5.840   5.692   3.825
77297SOL    HW233731   5.975   5.646   3.876
77298SOL     OW33732  12.847  13.288   8.105
77298SOL    HW133733  12.763  13.333   8.109
77298SOL    HW233734  12.866  13.282   8.011
77299SOL     OW33735   6.530   3.522  10.527
77299SOL    HW133736   6.435   3.533  10.532
77299SOL    HW233737   6.542   3.450  10.464
77300SOL     OW33738   6.045   4.193   6.726
77300SOL    HW133739   5.996   4.224   6.802
77300SOL    HW233740   6.072   4.274   6.682
77301SOL     OW33741  10.257   6.249   9.527
77301SOL    HW133742  10.271   6.257   9.433
77301SOL    HW233743  10.247   6.155   9.542
77302SOL     OW33744   3.611  10.261   1.387
77302SOL    HW133745   3.545  10.224   1.327
77302SOL    HW233746   3.561  10.317   1.446
77303SOL     OW33747  12.684  12.128  13.495
77303SOL    HW133748  12.721  12.063  13.435
77303SOL    HW233749  12.633  12.186  13.438
77304SOL     OW33750   7.325   0.331  13.389
77304SOL    HW133751   7.351   0.357  13.301
77304SOL    HW233752   7.239   0.292  13.379
77305SOL     OW33753  13.948  11.869   1.330
77305SOL    HW133754  13.921  11.900   1.244
77305SOL    HW233755  13.874  11.888   1.387
77306SOL     OW33756   6.613   6.619   8.088
77306SOL    HW133757   6.669   6.565   8.032
77306SOL    HW233758   6.670   6.649   8.158
77307SOL     OW33759   9.870  10.493  13.003
77307SOL    HW133760   9.960  10.493  13.034
77307SOL    HW233761   9.818  10.470  13.080
77308SOL     OW33762   0.055  10.103  11.735
77308SOL    HW133763  14.854  10.153  11.727
77308SOL    HW233764   0.045  10.031  11.673
77309SOL     OW33765   5.921  11.367   1.172
77309SOL    HW133766   5.985  11.329   1.232
77309SOL    HW233767   5.837  11.355   1.215
77310SOL     OW33768   1.449  13.191   7.546
77310SOL    HW133769   1.463  13.220   7.456
77310SOL    HW233770   1.403  13.264   7.588
77311SOL     OW33771   1.057   0.436   7.832
77311SOL    HW133772   1.089   0.454   7.920
77311SOL    HW233773   0.969   0.474   7.830
77312SOL     OW33774   4.802  11.244  11.438
77312SOL    HW133775   4.880  11.193  11.414
77312SOL    HW233776   4.831  11.335  11.434
77313SOL     OW33777  10.841   9.376   3.997
77313SOL    HW133778  10.768   9.391   3.937
77313SOL    HW233779  10.806   9.317   4.063
77314SOL     OW33780  13.368  14.574   8.454
77314SOL    HW133781  13.460  14.574   8.482
77314SOL    HW233782  13.319  14.603   8.531
77315SOL     OW33783  13.249   3.489   3.840
77315SOL    HW133784  13.261   3.571   3.793
77315SOL    HW233785  13.180   3.443   3.791
77316SOL     OW33786   2.321  11.012  10.286
77316SOL    HW133787   2.329  11.055  10.370
77316SOL    HW233788   2.241  10.960  10.293
77317SOL     OW33789   4.329   9.210   7.268
77317SOL    HW133790   4.374   9.126   7.263
77317SOL    HW233791   4.285   9.209   7.353
77318SOL     OW33792   1.855  11.673   7.865
77318SOL    HW133793   1.771  11.668   7.820
77318SOL    HW233794   1.852  11.757   7.911
77319SOL     OW33795  12.109   0.286  13.193
77319SOL    HW133796  12.182   0.346  13.213
77319SOL    HW233797  12.058   0.282  13.274
77320SOL     OW33798   5.354   0.420  13.485
77320SOL    HW133799   5.316   0.484  13.545
77320SOL    HW233800   5.443   0.450  13.471
77321SOL     OW33801  10.471   8.357   3.977
77321SOL    HW133802  10.452   8.304   3.899
77321SOL    HW233803  10.395   8.345   4.033
77322SOL     OW33804   4.969   6.765   1.282
77322SOL    HW133805   4.999   6.819   1.209
77322SOL    HW233806   4.925   6.691   1.241
77323SOL     OW33807  13.401  10.501   2.764
77323SOL    HW133808  13.475  10.450   2.731
77323SOL    HW233809  13.436  10.546   2.840
77324SOL     OW33810  10.354   2.560  13.804
77324SOL    HW133811  10.378   2.649  13.831
77324SOL    HW233812  10.412   2.540  13.730
77325SOL     OW33813   3.407   8.172   0.071
77325SOL    HW133814   3.412   8.155  14.857
77325SOL    HW233815   3.497   8.190   0.097
77326SOL     OW33816   1.690   0.059   8.400
77326SOL    HW133817   1.650   0.033   8.483
77326SOL    HW233818   1.770   0.008   8.394
77327SOL     OW33819   1.792   7.609   2.452
77327SOL    HW133820   1.699   7.597   2.473
77327SOL    HW233821   1.832   7.525   2.473
77328SOL     OW33822   9.709  13.040   5.411
77328SOL    HW133823   9.738  12.955   5.379
77328SOL    HW233824   9.700  13.029   5.506
77329SOL     OW33825   3.817   1.470   4.976
77329SOL    HW133826   3.786   1.448   4.888
77329SOL    HW233827   3.757   1.425   5.035
77330SOL     OW33828  11.644   2.369   3.498
77330SOL    HW133829  11.623   2.338   3.586
77330SOL    HW233830  11.667   2.461   3.509
77331SOL     OW33831   8.362   9.962   7.017
77331SOL    HW133832   8.327   9.910   7.090
77331SOL    HW233833   8.346   9.907   6.940
77332SOL     OW33834  14.236   8.696  11.371
77332SOL    HW133835  14.267   8.606  11.380
77332SOL    HW233836  14.286   8.732  11.299
77333SOL     OW33837   9.263   3.890  12.126
77333SOL    HW133838   9.300   3.844  12.201
77333SOL    HW233839   9.280   3.982  12.144
77334SOL     OW33840   2.565   1.446  13.929
77334SOL    HW133841   2.584   1.365  13.976
77334SOL    HW233842   2.475   1.435  13.898
77335SOL     OW33843   9.854   1.524   4.819
77335SOL    HW133844   9.882   1.437   4.849
77335SOL    HW233845   9.816   1.507   4.732
77336SOL     OW33846   6.624   1.816   1.304
77336SOL    HW133847   6.663   1.898   1.335
77336SOL    HW233848   6.535   1.818   1.338
77337SOL     OW33849  13.323   8.333   6.783
77337SOL    HW133850  13.280   8.341   6.698
77337SOL    HW233851  13.334   8.239   6.797
77338SOL     OW33852   0.114   8.016   1.642
77338SOL    HW133853   0.043   8.080   1.648
77338SOL    HW233854   0.135   8.012   1.549
77339SOL     OW33855   8.886  13.418   7.241
77339SOL    HW133856   8.822  13.466   7.294
77339SOL    HW233857   8.969  13.461   7.260
77340SOL     OW33858  14.101  12.964  13.429
77340SOL    HW133859  14.070  13.003  13.348
77340SOL    HW233860  14.023  12.925  13.468
77341SOL     OW33861   4.000   1.546  14.284
77341SOL    HW133862   4.052   1.466  14.282
77341SOL    HW233863   3.926   1.525  14.341
77342SOL     OW33864   1.401   8.554   2.703
77342SOL    HW133865   1.374   8.563   2.794
77342SOL    HW233866   1.367   8.469   2.676
77343SOL     OW33867   2.848  11.968   0.805
77343SOL    HW133868   2.932  11.933   0.775
77343SOL    HW233869   2.871  12.045   0.857
77344SOL     OW33870   8.381  13.540   7.185
77344SOL    HW133871   8.311  13.595   7.149
77344SOL    HW233872   8.419  13.593   7.255
77345SOL     OW33873   1.974  12.294   4.417
77345SOL    HW133874   2.005  12.204   4.425
77345SOL    HW233875   1.927  12.310   4.498
77346SOL     OW33876   7.983   8.544  13.686
77346SOL    HW133877   8.031   8.518  13.765
77346SOL    HW233878   8.028   8.623  13.655
77347SOL     OW33879   0.487   0.112   7.701
77347SOL    HW133880   0.449   0.151   7.622
77347SOL    HW233881   0.491   0.185   7.763
77348SOL     OW33882   0.269   9.414   8.071
77348SOL    HW133883   0.236   9.378   7.989
77348SOL    HW233884   0.306   9.339   8.117
77349SOL     OW33885  12.200   7.386   8.686
77349SOL    HW133886  12.162   7.326   8.749
77349SOL    HW233887  12.162   7.471   8.708
77350SOL     OW33888   5.488   9.848   4.174
77350SOL    HW133889   5.440   9.924   4.208
77350SOL    HW233890   5.465   9.845   4.081
77351SOL     OW33891  12.518  13.992  12.563
77351SOL    HW133892  12.480  13.930  12.625
77351SOL    HW233893  12.466  13.983  12.483
77352SOL     OW33894   2.874   3.510  11.591
77352SOL    HW133895   2.855   3.516  11.684
77352SOL    HW233896   2.807   3.451  11.556
77353SOL     OW33897  12.039  14.305  10.537
77353SOL    HW133898  12.048  14.236  10.604
77353SOL    HW233899  11.952  14.291  10.499
77354SOL     OW33900   5.906  13.598  12.877
77354SOL    HW133901   5.975  13.599  12.944
77354SOL    HW233902   5.869  13.686  12.880
77355SOL     OW33903   6.912   8.228   9.005
77355SOL    HW133904   6.932   8.213   8.913
77355SOL    HW233905   6.923   8.322   9.017
77356SOL     OW33906   5.435   7.915   9.400
77356SOL    HW133907   5.397   7.910   9.487
77356SOL    HW233908   5.372   7.869   9.344
77357SOL     OW33909   9.532  11.741  13.514
77357SOL    HW133910   9.459  11.760  13.572
77357SOL    HW233911   9.606  11.726  13.573
77358SOL     OW33912   5.647   2.615   2.399
77358SOL    HW133913   5.689   2.699   2.383
77358SOL    HW233914   5.566   2.636   2.446
77359SOL     OW33915   6.896   6.187  13.522
77359SOL    HW133916   6.825   6.155  13.467
77359SOL    HW233917   6.902   6.123  13.593
77360SOL     OW33918  11.080  10.417   7.587
77360SOL    HW133919  11.067  10.397   7.680
77360SOL    HW233920  11.123  10.339   7.552
77361SOL     OW33921  13.362   3.925   3.969
77361SOL    HW133922  13.402   4.009   3.948
77361SOL    HW233923  13.367   3.918   4.064
77362SOL     OW33924   1.580   2.932  13.478
77362SOL    HW133925   1.498   2.980  13.490
77362SOL    HW233926   1.561   2.844  13.512
77363SOL     OW33927   2.244  10.193   1.359
77363SOL    HW133928   2.230  10.177   1.266
77363SOL    HW233929   2.233  10.108   1.401
77364SOL     OW33930  14.281   5.644  13.838
77364SOL    HW133931  14.316   5.703  13.771
77364SOL    HW233932  14.229   5.581  13.789
77365SOL     OW33933   0.839   4.596   0.250
77365SOL    HW133934   0.924   4.638   0.264
77365SOL    HW233935   0.790   4.613   0.330
77366SOL     OW33936   5.774   8.024   2.562
77366SOL    HW133937   5.718   8.090   2.604
77366SOL    HW233938   5.774   8.048   2.469
77367SOL     OW33939   0.214   5.132  12.605
77367SOL    HW133940   0.152   5.124  12.678
77367SOL    HW233941   0.220   5.226  12.589
77368SOL     OW33942  12.028  14.619   2.751
77368SOL    HW133943  12.087  14.568   2.696
77368SOL    HW233944  12.019  14.703   2.706
77369SOL     OW33945   9.127   8.010   7.390
77369SOL    HW133946   9.170   7.965   7.318
77369SOL    HW233947   9.192   8.075   7.420
77370SOL     OW33948   8.560  14.240   3.583
77370SOL    HW133949   8.627  14.302   3.553
77370SOL    HW233950   8.603  14.155   3.581
77371SOL     OW33951   9.200   4.548  11.298
77371SOL    HW133952   9.249   4.502  11.230
77371SOL    HW233953   9.265   4.602  11.342
77372SOL     OW33954   8.403   2.508   4.381
77372SOL    HW133955   8.410   2.541   4.292
77372SOL    HW233956   8.418   2.584   4.437
77373SOL     OW33957   3.173  11.889  13.433
77373SOL    HW133958   3.225  11.925  13.505
77373SOL    HW233959   3.192  11.947  13.359
77374SOL     OW33960   1.849   9.333   6.997
77374SOL    HW133961   1.814   9.421   6.981
77374SOL    HW233962   1.940   9.348   7.021
77375SOL     OW33963  12.073   5.458   8.443
77375SOL    HW133964  12.054   5.544   8.480
77375SOL    HW233965  12.152   5.429   8.487
77376SOL     OW33966  13.805   4.423  13.953
77376SOL    HW133967  13.823   4.439  14.046
77376SOL    HW233968  13.867   4.356  13.927
77377SOL     OW33969   7.789   9.788   4.413
77377SOL    HW133970   7.736   9.868   4.420
77377SOL    HW233971   7.868   9.816   4.368
77378SOL     OW33972   4.817   9.622  10.571
77378SOL    HW133973   4.751   9.554  10.580
77378SOL    HW233974   4.891   9.591  10.624
77379SOL     OW33975   5.743  13.672   5.761
77379SOL    HW133976   5.711  13.645   5.674
77379SOL    HW233977   5.785  13.756   5.747
77380SOL     OW33978  10.400   3.020  11.077
77380SOL    HW133979  10.324   2.968  11.051
77380SOL    HW233980  10.460   2.958  11.117
77381SOL     OW33981   6.163   4.787   3.920
77381SOL    HW133982   6.255   4.797   3.895
77381SOL    HW233983   6.139   4.870   3.961
77382SOL     OW33984  13.622   4.977  13.170
77382SOL    HW133985  13.545   4.920  13.170
77382SOL    HW233986  13.610   5.033  13.094
77383SOL     OW33987   9.503  13.852   7.701
77383SOL    HW133988   9.453  13.786   7.750
77383SOL    HW233989   9.588  13.855   7.744
77384SOL     OW33990   9.002   8.461  13.998
77384SOL    HW133991   9.092   8.490  13.987
77384SOL    HW233992   8.975   8.495  14.083
77385SOL     OW33993   7.586   7.280   4.950
77385SOL    HW133994   7.498   7.300   4.982
77385SOL    HW233995   7.641   7.350   4.987
77386SOL     OW33996  10.013  13.681   8.176
77386SOL    HW133997   9.953  13.615   8.142
77386SOL    HW233998   9.982  13.699   8.265
77387SOL     OW33999   6.093  11.348   4.305
77387SOL    HW134000   6.127  11.425   4.353
77387SOL    HW234001   6.041  11.301   4.370
77388SOL     OW34002   0.388   4.150   8.107
77388SOL    HW134003   0.479   4.160   8.135
77388SOL    HW234004   0.336   4.184   8.180
77389SOL     OW34005   1.707  10.102   4.299
77389SOL    HW134006   1.669  10.189   4.313
77389SOL    HW234007   1.672  10.074   4.215
77390SOL     OW34008  12.854   6.262   9.725
77390SOL    HW134009  12.834   6.305   9.641
77390SOL    HW234010  12.947   6.244   9.721
77391SOL     OW34011   1.766  11.285   5.797
77391SOL    HW134012   1.739  11.348   5.731
77391SOL    HW234013   1.784  11.205   5.748
77392SOL     OW34014   3.886   4.705   2.007
77392SOL    HW134015   3.859   4.776   2.066
77392SOL    HW234016   3.908   4.633   2.065
77393SOL     OW34017  11.300   7.475   0.928
77393SOL    HW134018  11.315   7.442   1.016
77393SOL    HW234019  11.205   7.471   0.917
77394SOL     OW34020   3.296   9.152  11.188
77394SOL    HW134021   3.265   9.068  11.222
77394SOL    HW234022   3.374   9.172  11.239
77395SOL     OW34023  13.103   3.019   4.662
77395SOL    HW134024  13.008   3.024   4.647
77395SOL    HW234025  13.124   3.100   4.708
77396SOL     OW34026  11.430  12.517   4.822
77396SOL    HW134027  11.518  12.541   4.851
77396SOL    HW234028  11.376  12.524   4.900
77397SOL     OW34029   9.188   1.640   0.974
77397SOL    HW134030   9.113   1.684   1.014
77397SOL    HW234031   9.152   1.595   0.898
77398SOL     OW34032  12.411   4.436  10.699
77398SOL    HW134033  12.376   4.469  10.616
77398SOL    HW234034  12.496   4.399  10.676
77399SOL     OW34035   1.236   2.434   3.610
77399SOL    HW134036   1.172   2.476   3.668
77399SOL    HW234037   1.241   2.493   3.534
77400SOL     OW34038   3.324   8.229   9.068
77400SOL    HW134039   3.403   8.273   9.098
77400SOL    HW234040   3.348   8.189   8.985
77401SOL     OW34041  11.912   7.524  12.229
77401SOL    HW134042  11.951   7.586  12.290
77401SOL    HW234043  11.977   7.453  12.223
77402SOL     OW34044   3.823   0.788  10.390
77402SOL    HW134045   3.803   0.833  10.307
77402SOL    HW234046   3.745   0.801  10.444
77403SOL     OW34047   6.742  11.844   1.421
77403SOL    HW134048   6.795  11.803   1.353
77403SOL    HW234049   6.665  11.879   1.375
77404SOL     OW34050  12.226  11.775   8.066
77404SOL    HW134051  12.196  11.685   8.054
77404SOL    HW234052  12.166  11.828   8.013
77405SOL     OW34053   0.746  11.290   9.730
77405SOL    HW134054   0.651  11.287   9.733
77405SOL    HW234055   0.769  11.251   9.646
77406SOL     OW34056   8.637   1.498   8.629
77406SOL    HW134057   8.730   1.477   8.624
77406SOL    HW234058   8.632   1.593   8.616
77407SOL     OW34059  14.251   8.824   8.918
77407SOL    HW134060  14.233   8.749   8.975
77407SOL    HW234061  14.337   8.855   8.945
77408SOL     OW34062  12.616   8.499   9.105
77408SOL    HW134063  12.530   8.523   9.140
77408SOL    HW234064  12.661   8.582   9.091
77409SOL     OW34065   2.121  12.296   9.483
77409SOL    HW134066   2.188  12.328   9.543
77409SOL    HW234067   2.161  12.221   9.439
77410SOL     OW34068   2.444  14.720   8.714
77410SOL    HW134069   2.501  14.671   8.655
77410SOL    HW234070   2.364  14.668   8.720
77411SOL     OW34071   6.486   3.481   4.409
77411SOL    HW134072   6.456   3.494   4.319
77411SOL    HW234073   6.427   3.415   4.445
77412SOL     OW34074   2.941   1.135  12.276
77412SOL    HW134075   2.888   1.190  12.218
77412SOL    HW234076   3.030   1.169  12.267
77413SOL     OW34077   3.810   5.081  14.057
77413SOL    HW134078   3.844   5.165  14.086
77413SOL    HW234079   3.836   5.019  14.126
77414SOL     OW34080   3.068  14.390  11.274
77414SOL    HW134081   3.163  14.392  11.261
77414SOL    HW234082   3.038  14.320  11.215
77415SOL     OW34083  14.603  12.363   2.221
77415SOL    HW134084  14.691  12.399   2.209
77415SOL    HW234085  14.612  12.302   2.295
77416SOL     OW34086  12.923   9.900   0.897
77416SOL    HW134087  12.830   9.913   0.913
77416SOL    HW234088  12.959   9.874   0.983
77417SOL     OW34089  13.592  11.397   6.504
77417SOL    HW134090  13.547  11.323   6.544
77417SOL    HW234091  13.582  11.384   6.410
77418SOL     OW34092  10.950   8.533   2.823
77418SOL    HW134093  10.863   8.573   2.820
77418SOL    HW234094  10.998   8.585   2.888
77419SOL     OW34095   6.569   9.284   3.700
77419SOL    HW134096   6.648   9.337   3.701
77419SOL    HW234097   6.571   9.238   3.616
77420SOL     OW34098   1.870   3.235   2.696
77420SOL    HW134099   1.908   3.165   2.749
77420SOL    HW234100   1.897   3.215   2.606
77421SOL     OW34101  14.339  14.344   7.492
77421SOL    HW134102  14.410  14.301   7.539
77421SOL    HW234103  14.381  14.416   7.445
77422SOL     OW34104  10.171   7.112   0.825
77422SOL    HW134105  10.146   7.051   0.894
77422SOL    HW234106  10.142   7.198   0.858
77423SOL     OW34107   4.958  13.241   4.826
77423SOL    HW134108   4.957  13.308   4.758
77423SOL    HW234109   4.968  13.289   4.908
77424SOL     OW34110   8.105  10.327   3.994
77424SOL    HW134111   8.028  10.365   4.034
77424SOL    HW234112   8.149  10.400   3.950
77425SOL     OW34113  11.600   2.741   0.658
77425SOL    HW134114  11.659   2.693   0.717
77425SOL    HW234115  11.641   2.734   0.572
77426SOL     OW34116  14.014  11.335  11.300
77426SOL    HW134117  14.097  11.315  11.345
77426SOL    HW234118  14.034  11.326  11.207
77427SOL     OW34119   6.207   5.399  13.675
77427SOL    HW134120   6.123   5.441  13.656
77427SOL    HW234121   6.215   5.403  13.770
77428SOL     OW34122   6.125  11.412   4.044
77428SOL    HW134123   6.100  11.378   4.130
77428SOL    HW234124   6.053  11.472   4.021
77429SOL     OW34125  14.663  11.345  11.703
77429SOL    HW134126  14.574  11.326  11.734
77429SOL    HW234127  14.650  11.405  11.629
77430SOL     OW34128   7.534   2.610  14.049
77430SOL    HW134129   7.607   2.550  14.064
77430SOL    HW234130   7.495   2.623  14.135
77431SOL     OW34131   7.749   6.093   8.028
77431SOL    HW134132   7.833   6.137   8.019
77431SOL    HW234133   7.723   6.107   8.119
77432SOL     OW34134   6.012  14.201   7.434
77432SOL    HW134135   5.995  14.125   7.378
77432SOL    HW234136   6.046  14.268   7.374
77433SOL     OW34137   9.247   7.316  10.741
77433SOL    HW134138   9.155   7.312  10.716
77433SOL    HW234139   9.284   7.234  10.709
77434SOL     OW34140  14.748   8.414   7.325
77434SOL    HW134141  14.689   8.477   7.366
77434SOL    HW234142  14.809   8.467   7.275
77435SOL     OW34143  14.579   8.418   8.074
77435SOL    HW134144  14.560   8.479   8.145
77435SOL    HW234145  14.500   8.419   8.020
77436SOL     OW34146  10.857   5.007  12.897
77436SOL    HW134147  10.920   5.073  12.924
77436SOL    HW234148  10.878   4.930  12.951
77437SOL     OW34149   3.826   1.181   3.473
77437SOL    HW134150   3.854   1.266   3.508
77437SOL    HW234151   3.854   1.182   3.382
77438SOL     OW34152  11.959   7.396   4.559
77438SOL    HW134153  11.931   7.421   4.647
77438SOL    HW234154  12.007   7.471   4.526
77439SOL     OW34155   9.844  11.286   1.537
77439SOL    HW134156   9.754  11.318   1.538
77439SOL    HW234157   9.837  11.191   1.547
77440SOL     OW34158   1.276  14.788   8.946
77440SOL    HW134159   1.290  14.711   9.000
77440SOL    HW234160   1.346  14.786   8.881
77441SOL     OW34161  14.191   5.099   6.114
77441SOL    HW134162  14.190   5.006   6.091
77441SOL    HW234163  14.116   5.136   6.066
77442SOL     OW34164  10.242  14.059   3.521
77442SOL    HW134165  10.297  14.109   3.582
77442SOL    HW234166  10.271  14.087   3.434
77443SOL     OW34167   1.206   0.606  13.566
77443SOL    HW134168   1.269   0.535  13.554
77443SOL    HW234169   1.127   0.563  13.599
77444SOL     OW34170   2.756   7.462  14.486
77444SOL    HW134171   2.767   7.556  14.473
77444SOL    HW234172   2.675   7.454  14.537
77445SOL     OW34173  14.786   1.404  11.193
77445SOL    HW134174  14.723   1.476  11.199
77445SOL    HW234175  14.797   1.374  11.283
77446SOL     OW34176   3.583   6.336   5.641
77446SOL    HW134177   3.529   6.258   5.654
77446SOL    HW234178   3.629   6.347   5.724
77447SOL     OW34179   5.599  12.077   9.583
77447SOL    HW134180   5.679  12.060   9.632
77447SOL    HW234181   5.531  12.086   9.649
77448SOL     OW34182  13.837   3.274   6.302
77448SOL    HW134183  13.835   3.300   6.210
77448SOL    HW234184  13.772   3.330   6.344
77449SOL     OW34185   6.141   9.844   5.345
77449SOL    HW134186   6.101   9.875   5.426
77449SOL    HW234187   6.107   9.756   5.333
77450SOL     OW34188   5.755   8.432  10.150
77450SOL    HW134189   5.835   8.434  10.202
77450SOL    HW234190   5.686   8.408  10.212
77451SOL     OW34191  13.973  10.669  14.849
77451SOL    HW134192  13.899  10.672   0.029
77451SOL    HW234193  13.952  10.735  14.782
77452SOL     OW34194   0.916   0.459   2.196
77452SOL    HW134195   0.952   0.534   2.149
77452SOL    HW234196   0.985   0.432   2.256
77453SOL     OW34197  12.718   9.721  12.930
77453SOL    HW134198  12.774   9.650  12.963
77453SOL    HW234199  12.779   9.780  12.885
77454SOL     OW34200  11.637   6.214  14.238
77454SOL    HW134201  11.560   6.186  14.286
77454SOL    HW234202  11.609   6.219  14.146
77455SOL     OW34203  10.636   9.444  11.277
77455SOL    HW134204  10.726   9.450  11.246
77455SOL    HW234205  10.623   9.523  11.328
77456SOL     OW34206  14.772   2.896   6.227
77456SOL    HW134207  14.787   2.819   6.173
77456SOL    HW234208  14.695   2.874   6.279
77457SOL     OW34209  10.053   9.843   3.508
77457SOL    HW134210  10.141   9.883   3.511
77457SOL    HW234211  10.060   9.766   3.563
77458SOL     OW34212   8.265   2.962   8.561
77458SOL    HW134213   8.259   2.956   8.466
77458SOL    HW234214   8.325   3.036   8.576
77459SOL     OW34215   0.312   0.415  10.875
77459SOL    HW134216   0.217   0.427  10.868
77459SOL    HW234217   0.323   0.343  10.937
77460SOL     OW34218  13.051   2.866   5.110
77460SOL    HW134219  13.089   2.828   5.189
77460SOL    HW234220  13.041   2.959   5.131
77461SOL     OW34221  11.217  12.940  12.579
77461SOL    HW134222  11.288  12.985  12.532
77461SOL    HW234223  11.216  12.980  12.666
77462SOL     OW34224   1.015   1.756   0.113
77462SOL    HW134225   1.000   1.851   0.109
77462SOL    HW234226   0.996   1.725   0.025
77463SOL     OW34227  11.784   7.152  11.624
77463SOL    HW134228  11.737   7.078  11.587
77463SOL    HW234229  11.850   7.112  11.681
77464SOL     OW34230   2.272  13.234   6.395
77464SOL    HW134231   2.206  13.175   6.431
77464SOL    HW234232   2.243  13.251   6.305
77465SOL     OW34233   9.589   8.383  13.683
77465SOL    HW134234   9.495   8.369  13.673
77465SOL    HW234235   9.628   8.332  13.612
77466SOL     OW34236  14.637   3.827   0.984
77466SOL    HW134237  14.687   3.837   0.903
77466SOL    HW234238  14.587   3.909   0.991
77467SOL     OW34239   3.303   9.329  10.331
77467SOL    HW134240   3.216   9.318  10.370
77467SOL    HW234241   3.288   9.381  10.252
77468SOL     OW34242   2.834   7.755  14.848
77468SOL    HW134243   2.858   7.665  14.824
77468SOL    HW234244   2.755   7.746   0.020
77469SOL     OW34245  14.237  10.597  14.482
77469SOL    HW134246  14.196  10.624  14.400
77469SOL    HW234247  14.170  10.614  14.549
77470SOL     OW34248  11.702   3.751  13.558
77470SOL    HW134249  11.793   3.735  13.585
77470SOL    HW234250  11.670   3.665  13.531
77471SOL     OW34251  14.566  10.481   0.382
77471SOL    HW134252  14.604  10.568   0.365
77471SOL    HW234253  14.482  10.482   0.337
77472SOL     OW34254  14.153   0.099   9.919
77472SOL    HW134255  14.223   0.163   9.931
77472SOL    HW234256  14.074   0.152   9.909
77473SOL     OW34257   9.330   0.253   1.671
77473SOL    HW134258   9.350   0.162   1.692
77473SOL    HW234259   9.385   0.305   1.729
77474SOL     OW34260   4.556   1.096  14.089
77474SOL    HW134261   4.641   1.121  14.053
77474SOL    HW234262   4.575   1.071  14.180
77475SOL     OW34263   2.984   9.233  11.900
77475SOL    HW134264   2.900   9.218  11.858
77475SOL    HW234265   3.048   9.193  11.840
77476SOL     OW34266   5.498   1.138   6.899
77476SOL    HW134267   5.498   1.227   6.936
77476SOL    HW234268   5.492   1.081   6.976
77477SOL     OW34269   4.662   1.457   8.558
77477SOL    HW134270   4.575   1.419   8.547
77477SOL    HW234271   4.662   1.492   8.648
77478SOL     OW34272   2.184  12.706   8.922
77478SOL    HW134273   2.207  12.758   8.846
77478SOL    HW234274   2.103  12.744   8.954
77479SOL     OW34275   6.071  12.572  14.559
77479SOL    HW134276   6.120  12.653  14.576
77479SOL    HW234277   6.102  12.511  14.626
77480SOL     OW34278   5.990   2.844  14.511
77480SOL    HW134279   5.974   2.761  14.465
77480SOL    HW234280   5.965   2.911  14.448
77481SOL     OW34281   2.864  14.098  14.602
77481SOL    HW134282   2.800  14.076  14.670
77481SOL    HW234283   2.865  14.022  14.545
77482SOL     OW34284   5.974  11.440  11.921
77482SOL    HW134285   6.029  11.474  11.992
77482SOL    HW234286   5.926  11.367  11.960
77483SOL     OW34287  13.053   8.768   1.469
77483SOL    HW134288  13.009   8.819   1.400
77483SOL    HW234289  13.015   8.801   1.550
77484SOL     OW34290  13.990   1.031   2.848
77484SOL    HW134291  13.898   1.010   2.830
77484SOL    HW234292  14.008   0.992   2.933
77485SOL     OW34293   3.026  13.797  10.693
77485SOL    HW134294   2.999  13.761  10.778
77485SOL    HW234295   3.119  13.777  10.686
77486SOL     OW34296   2.904   5.020   4.520
77486SOL    HW134297   2.974   5.077   4.487
77486SOL    HW234298   2.940   4.983   4.601
77487SOL     OW34299   5.891   0.256  11.006
77487SOL    HW134300   5.923   0.192  10.943
77487SOL    HW234301   5.968   0.309  11.027
77488SOL     OW34302   9.022   4.027   3.465
77488SOL    HW134303   8.933   4.009   3.498
77488SOL    HW234304   9.012   4.102   3.407
77489SOL     OW34305   3.824   1.822   7.267
77489SOL    HW134306   3.791   1.902   7.309
77489SOL    HW234307   3.875   1.854   7.192
77490SOL     OW34308  14.360   3.935   8.712
77490SOL    HW134309  14.349   3.840   8.713
77490SOL    HW234310  14.377   3.956   8.620
77491SOL     OW34311  12.619   2.927   3.574
77491SOL    HW134312  12.694   2.882   3.536
77491SOL    HW234313  12.599   2.997   3.511
77492SOL     OW34314   6.577  10.305   9.943
77492SOL    HW134315   6.591  10.353   9.861
77492SOL    HW234316   6.488  10.327   9.969
77493SOL     OW34317   8.162   1.387  12.732
77493SOL    HW134318   8.173   1.390  12.636
77493SOL    HW234319   8.250   1.404  12.766
77494SOL     OW34320  12.239   8.598   2.474
77494SOL    HW134321  12.279   8.512   2.486
77494SOL    HW234322  12.242   8.612   2.379
77495SOL     OW34323   8.807   0.147  12.593
77495SOL    HW134324   8.721   0.185  12.576
77495SOL    HW234325   8.812   0.071  12.534
77496SOL     OW34326  10.921   4.701   3.689
77496SOL    HW134327  10.827   4.707   3.703
77496SOL    HW234328  10.951   4.635   3.751
77497SOL     OW34329  11.187  14.639   3.752
77497SOL    HW134330  11.273  14.614   3.786
77497SOL    HW234331  11.145  14.684   3.825
77498SOL     OW34332  12.160   4.971  10.438
77498SOL    HW134333  12.113   4.916  10.376
77498SOL    HW234334  12.157   5.058  10.400
77499SOL     OW34335  11.181   0.080   8.712
77499SOL    HW134336  11.139   0.078   8.798
77499SOL    HW234337  11.273   0.097   8.731
77500SOL     OW34338   8.529   6.423   8.445
77500SOL    HW134339   8.498   6.333   8.447
77500SOL    HW234340   8.449   6.476   8.439
77501SOL     OW34341   6.391   4.608   0.534
77501SOL    HW134342   6.383   4.561   0.617
77501SOL    HW234343   6.304   4.645   0.520
77502SOL     OW34344  10.955  14.271  13.279
77502SOL    HW134345  10.860  14.279  13.272
77502SOL    HW234346  10.968  14.204  13.346
77503SOL     OW34347   3.620   5.087   2.160
77503SOL    HW134348   3.697   5.055   2.207
77503SOL    HW234349   3.631   5.181   2.155
77504SOL     OW34350   7.553   1.814   5.276
77504SOL    HW134351   7.599   1.731   5.262
77504SOL    HW234352   7.591   1.873   5.211
77505SOL     OW34353   9.093  10.457  10.588
77505SOL    HW134354   9.180  10.417  10.597
77505SOL    HW234355   9.045  10.427  10.665
77506SOL     OW34356  12.972   3.741   8.220
77506SOL    HW134357  12.879   3.719   8.229
77506SOL    HW234358  12.978   3.831   8.253
77507SOL     OW34359   1.871   6.373   0.776
77507SOL    HW134360   1.887   6.435   0.847
77507SOL    HW234361   1.857   6.427   0.699
77508SOL     OW34362  11.648  14.536   6.846
77508SOL    HW134363  11.569  14.556   6.796
77508SOL    HW234364  11.644  14.442   6.860
77509SOL     OW34365   9.348   3.600  12.512
77509SOL    HW134366   9.399   3.560  12.583
77509SOL    HW234367   9.262   3.558  12.517
77510SOL     OW34368  10.600  12.118  11.354
77510SOL    HW134369  10.626  12.077  11.272
77510SOL    HW234370  10.592  12.046  11.416
77511SOL     OW34371   0.883   9.039  11.824
77511SOL    HW134372   0.794   9.025  11.857
77511SOL    HW234373   0.872   9.099  11.750
77512SOL     OW34374  11.190  14.369  12.024
77512SOL    HW134375  11.229  14.387  12.109
77512SOL    HW234376  11.238  14.292  11.992
77513SOL     OW34377  12.085  10.424   3.183
77513SOL    HW134378  12.009  10.470   3.219
77513SOL    HW234379  12.118  10.372   3.256
77514SOL     OW34380   6.650   3.513   5.196
77514SOL    HW134381   6.691   3.480   5.116
77514SOL    HW234382   6.678   3.604   5.202
77515SOL     OW34383  11.831   8.950  11.927
77515SOL    HW134384  11.758   9.011  11.939
77515SOL    HW234385  11.860   8.965  11.837
77516SOL     OW34386  10.518   1.037   2.015
77516SOL    HW134387  10.502   1.112   1.959
77516SOL    HW234388  10.581   1.068   2.080
77517SOL     OW34389   5.285  11.604   2.606
77517SOL    HW134390   5.241  11.616   2.690
77517SOL    HW234391   5.220  11.560   2.551
77518SOL     OW34392  13.032   6.025   8.376
77518SOL    HW134393  12.953   5.971   8.372
77518SOL    HW234394  13.044   6.057   8.287
77519SOL     OW34395  12.345   0.100  13.567
77519SOL    HW134396  12.393   0.121  13.648
77519SOL    HW234397  12.412   0.096  13.500
77520SOL     OW34398   1.540   6.389   7.670
77520SOL    HW134399   1.579   6.311   7.709
77520SOL    HW234400   1.518   6.363   7.581
77521SOL     OW34401   4.752   8.919   3.652
77521SOL    HW134402   4.703   8.987   3.699
77521SOL    HW234403   4.704   8.839   3.670
77522SOL     OW34404   1.358   1.208  10.968
77522SOL    HW134405   1.447   1.214  10.934
77522SOL    HW234406   1.357   1.269  11.042
77523SOL     OW34407   3.883   9.288   3.419
77523SOL    HW134408   3.799   9.319   3.452
77523SOL    HW234409   3.876   9.298   3.324
77524SOL     OW34410  10.306   4.540  12.425
77524SOL    HW134411  10.254   4.609  12.465
77524SOL    HW234412  10.247   4.465  12.421
77525SOL     OW34413   8.605  12.199   0.016
77525SOL    HW134414   8.625  12.130  14.832
77525SOL    HW234415   8.515  12.226  14.874
77526SOL     OW34416   7.917   8.920  12.356
77526SOL    HW134417   7.909   9.000  12.408
77526SOL    HW234418   7.975   8.864  12.407
77527SOL     OW34419   6.719   2.717   1.979
77527SOL    HW134420   6.737   2.799   1.934
77527SOL    HW234421   6.648   2.738   2.040
77528SOL     OW34422  11.154   0.631   8.566
77528SOL    HW134423  11.116   0.553   8.605
77528SOL    HW234424  11.227   0.655   8.623
77529SOL     OW34425   5.669   2.692   7.246
77529SOL    HW134426   5.587   2.741   7.259
77529SOL    HW234427   5.696   2.667   7.335
77530SOL     OW34428   6.669   8.432  14.657
77530SOL    HW134429   6.678   8.505  14.596
77530SOL    HW234430   6.686   8.354  14.603
77531SOL     OW34431  12.652  13.036   0.192
77531SOL    HW134432  12.646  13.131   0.181
77531SOL    HW234433  12.630  13.001   0.106
77532SOL     OW34434  13.424   2.188   4.470
77532SOL    HW134435  13.472   2.131   4.530
77532SOL    HW234436  13.376   2.128   4.413
77533SOL     OW34437  12.568  13.331  12.419
77533SOL    HW134438  12.648  13.287  12.448
77533SOL    HW234439  12.544  13.287  12.338
77534SOL     OW34440  14.206   5.654   1.049
77534SOL    HW134441  14.300   5.643   1.061
77534SOL    HW234442  14.170   5.647   1.137
77535SOL     OW34443   4.349  12.594   0.859
77535SOL    HW134444   4.291  12.584   0.935
77535SOL    HW234445   4.359  12.506   0.824
77536SOL     OW34446  12.154   0.835  14.557
77536SOL    HW134447  12.223   0.902  14.561
77536SOL    HW234448  12.076   0.883  14.528
77537SOL     OW34449   5.436  12.576  10.766
77537SOL    HW134450   5.416  12.534  10.849
77537SOL    HW234451   5.441  12.503  10.703
77538SOL     OW34452   2.604   9.798  12.250
77538SOL    HW134453   2.531   9.854  12.225
77538SOL    HW234454   2.650   9.779  12.168
77539SOL     OW34455   3.924   8.115   0.981
77539SOL    HW134456   3.852   8.179   0.973
77539SOL    HW234457   3.886   8.033   0.949
77540SOL     OW34458  13.171   4.897   0.805
77540SOL    HW134459  13.169   4.801   0.801
77540SOL    HW234460  13.097   4.924   0.751
77541SOL     OW34461  12.993   7.331   9.535
77541SOL    HW134462  12.919   7.272   9.539
77541SOL    HW234463  13.069   7.277   9.557
77542SOL     OW34464  10.941  11.291   6.655
77542SOL    HW134465  10.891  11.277   6.574
77542SOL    HW234466  11.003  11.218   6.657
77543SOL     OW34467   5.571   9.930   3.182
77543SOL    HW134468   5.563   9.836   3.164
77543SOL    HW234469   5.661   9.940   3.213
77544SOL     OW34470  13.390   8.565   0.576
77544SOL    HW134471  13.311   8.593   0.622
77544SOL    HW234472  13.370   8.475   0.548
77545SOL     OW34473  14.174   9.653   4.352
77545SOL    HW134474  14.268   9.661   4.335
77545SOL    HW234475  14.157   9.559   4.352
77546SOL     OW34476   1.630  11.185   2.975
77546SOL    HW134477   1.606  11.103   3.018
77546SOL    HW234478   1.651  11.161   2.885
77547SOL     OW34479   0.646  10.559   3.239
77547SOL    HW134480   0.703  10.607   3.298
77547SOL    HW234481   0.559  10.564   3.280
77548SOL     OW34482   5.050  11.156  11.662
77548SOL    HW134483   5.018  11.246  11.667
77548SOL    HW234484   4.975  11.106  11.629
77549SOL     OW34485  14.234   9.076   3.598
77549SOL    HW134486  14.270   9.158   3.563
77549SOL    HW234487  14.302   9.011   3.581
77550SOL     OW34488  14.293  11.670  14.120
77550SOL    HW134489  14.247  11.703  14.197
77550SOL    HW234490  14.314  11.579  14.141
77551SOL     OW34491   9.832   6.189   0.262
77551SOL    HW134492   9.873   6.260   0.311
77551SOL    HW234493   9.745   6.223   0.238
77552SOL     OW34494   9.709   2.104   3.965
77552SOL    HW134495   9.750   2.128   4.048
77552SOL    HW234496   9.768   2.039   3.926
77553SOL     OW34497  14.438   3.215   5.154
77553SOL    HW134498  14.343   3.213   5.162
77553SOL    HW234499  14.470   3.205   5.244
77554SOL     OW34500  13.877  10.740  11.912
77554SOL    HW134501  13.935  10.817  11.915
77554SOL    HW234502  13.822  10.755  11.835
77555SOL     OW34503   4.322   9.612   0.410
77555SOL    HW134504   4.296   9.652   0.326
77555SOL    HW234505   4.365   9.530   0.385
77556SOL     OW34506  10.617   1.547  12.518
77556SOL    HW134507  10.647   1.513  12.602
77556SOL    HW234508  10.571   1.474  12.477
77557SOL     OW34509   9.670   3.140  14.496
77557SOL    HW134510   9.716   3.106  14.418
77557SOL    HW234511   9.613   3.208  14.462
77558SOL     OW34512  14.787   8.742   2.077
77558SOL    HW134513  14.830   8.822   2.107
77558SOL    HW234514  14.859   8.680   2.063
77559SOL     OW34515  12.242   2.159   3.018
77559SOL    HW134516  12.287   2.232   3.060
77559SOL    HW234517  12.289   2.146   2.936
77560SOL     OW34518  10.169   4.983   5.957
77560SOL    HW134519  10.080   4.996   5.990
77560SOL    HW234520  10.181   4.888   5.955
77561SOL     OW34521   9.519   3.187  12.408
77561SOL    HW134522   9.463   3.212  12.481
77561SOL    HW234523   9.565   3.109  12.438
77562SOL     OW34524   2.484  13.363  14.350
77562SOL    HW134525   2.397  13.392  14.376
77562SOL    HW234526   2.475  13.269  14.337
77563SOL     OW34527   3.747   4.148   8.600
77563SOL    HW134528   3.699   4.065   8.595
77563SOL    HW234529   3.784   4.150   8.688
77564SOL     OW34530   3.017   4.553   7.807
77564SOL    HW134531   2.979   4.622   7.861
77564SOL    HW234532   3.049   4.489   7.870
77565SOL     OW34533   7.887   4.249  10.398
77565SOL    HW134534   7.921   4.160  10.388
77565SOL    HW234535   7.928   4.282  10.477
77566SOL     OW34536   2.696   6.698  13.885
77566SOL    HW134537   2.770   6.658  13.839
77566SOL    HW234538   2.651   6.750  13.818
77567SOL     OW34539  11.405   0.597   7.497
77567SOL    HW134540  11.457   0.653   7.554
77567SOL    HW234541  11.325   0.647   7.480
77568SOL     OW34542  13.828   6.084   7.455
77568SOL    HW134543  13.920   6.099   7.435
77568SOL    HW234544  13.784   6.164   7.425
77569SOL     OW34545   9.619   0.595   0.047
77569SOL    HW134546   9.704   0.578   0.006
77569SOL    HW234547   9.555   0.572  14.859
77570SOL     OW34548   6.893  11.112   9.789
77570SOL    HW134549   6.973  11.118   9.737
77570SOL    HW234550   6.864  11.021   9.778
77571SOL     OW34551   3.162  10.617   5.127
77571SOL    HW134552   3.075  10.651   5.149
77571SOL    HW234553   3.146  10.532   5.087
77572SOL     OW34554   9.040   6.837   0.012
77572SOL    HW134555   9.095   6.796   0.079
77572SOL    HW234556   8.950   6.823   0.043
77573SOL     OW34557  14.216   7.276  12.030
77573SOL    HW134558  14.150   7.245  12.093
77573SOL    HW234559  14.272   7.335  12.080
77574SOL     OW34560  11.767  13.186  11.492
77574SOL    HW134561  11.764  13.207  11.586
77574SOL    HW234562  11.683  13.216  11.459
77575SOL     OW34563   6.396   0.989   7.092
77575SOL    HW134564   6.454   1.040   7.035
77575SOL    HW234565   6.455   0.943   7.152
77576SOL     OW34566  11.302  12.376   7.872
77576SOL    HW134567  11.326  12.290   7.836
77576SOL    HW234568  11.229  12.405   7.818
77577SOL     OW34569   0.809   9.233   0.449
77577SOL    HW134570   0.862   9.162   0.486
77577SOL    HW234571   0.842   9.312   0.492
77578SOL     OW34572   7.188   3.452  11.958
77578SOL    HW134573   7.122   3.521  11.948
77578SOL    HW234574   7.268   3.499  11.982
77579SOL     OW34575   3.309   2.518  10.153
77579SOL    HW134576   3.301   2.572  10.232
77579SOL    HW234577   3.325   2.429  10.187
77580SOL     OW34578  12.414  12.490  11.619
77580SOL    HW134579  12.327  12.454  11.605
77580SOL    HW234580  12.465  12.416  11.654
77581SOL     OW34581   8.277  10.645  10.554
77581SOL    HW134582   8.312  10.726  10.517
77581SOL    HW234583   8.213  10.674  10.620
77582SOL     OW34584   2.298  14.231   7.273
77582SOL    HW134585   2.393  14.218   7.280
77582SOL    HW234586   2.289  14.313   7.225
77583SOL     OW34587   0.170  13.991  10.871
77583SOL    HW134588   0.205  14.077  10.893
77583SOL    HW234589   0.075  14.001  10.878
77584SOL     OW34590  11.615  12.648   3.898
77584SOL    HW134591  11.709  12.649   3.913
77584SOL    HW234592  11.577  12.626   3.983
77585SOL     OW34593   7.842   1.534  11.680
77585SOL    HW134594   7.769   1.474  11.694
77585SOL    HW234595   7.869   1.518  11.589
77586SOL     OW34596  11.730   9.846   5.143
77586SOL    HW134597  11.686   9.879   5.065
77586SOL    HW234598  11.714   9.752   5.143
77587SOL     OW34599   9.723   0.025   4.532
77587SOL    HW134600   9.669   0.101   4.511
77587SOL    HW234601   9.660  14.833   4.543
77588SOL     OW34602   0.182   6.438  14.204
77588SOL    HW134603   0.123   6.376  14.247
77588SOL    HW234604   0.265   6.390  14.197
77589SOL     OW34605   4.659  11.723   2.302
77589SOL    HW134606   4.593  11.790   2.318
77589SOL    HW234607   4.615  11.641   2.321
77590SOL     OW34608  12.781  10.194   1.610
77590SOL    HW134609  12.765  10.108   1.570
77590SOL    HW234610  12.801  10.175   1.701
77591SOL     OW34611   5.118   4.982   5.201
77591SOL    HW134612   5.124   4.889   5.226
77591SOL    HW234613   5.037   4.988   5.151
77592SOL     OW34614  12.633  14.001  13.422
77592SOL    HW134615  12.602  14.061  13.490
77592SOL    HW234616  12.585  13.919  13.438
77593SOL     OW34617   1.956   6.002  12.903
77593SOL    HW134618   1.958   6.098  12.903
77593SOL    HW234619   1.899   5.980  12.829
77594SOL     OW34620   1.211   6.120   8.849
77594SOL    HW134621   1.130   6.076   8.821
77594SOL    HW234622   1.194   6.146   8.939
77595SOL     OW34623   4.316   3.331   9.336
77595SOL    HW134624   4.359   3.246   9.329
77595SOL    HW234625   4.356   3.385   9.268
77596SOL     OW34626  10.988   8.271  11.555
77596SOL    HW134627  11.079   8.281  11.528
77596SOL    HW234628  10.965   8.182  11.530
77597SOL     OW34629  10.578   4.938   8.894
77597SOL    HW134630  10.544   4.990   8.967
77597SOL    HW234631  10.590   4.850   8.931
77598SOL     OW34632   7.035   5.562   6.331
77598SOL    HW134633   6.970   5.506   6.373
77598SOL    HW234634   7.114   5.550   6.385
77599SOL     OW34635  10.319  11.470   2.809
77599SOL    HW134636  10.409  11.489   2.781
77599SOL    HW234637  10.317  11.497   2.901
77600SOL     OW34638   8.098   5.046  14.087
77600SOL    HW134639   8.040   5.120  14.107
77600SOL    HW234640   8.082   4.983  14.157
77601SOL     OW34641  13.864   7.254  12.199
77601SOL    HW134642  13.812   7.259  12.119
77601SOL    HW234643  13.801   7.233  12.268
77602SOL     OW34644   7.756   2.874   4.575
77602SOL    HW134645   7.662   2.888   4.582
77602SOL    HW234646   7.794   2.937   4.637
77603SOL     OW34647   1.158   8.107   6.357
77603SOL    HW134648   1.175   8.041   6.290
77603SOL    HW234649   1.136   8.186   6.308
77604SOL     OW34650   7.747   3.326   6.615
77604SOL    HW134651   7.735   3.297   6.705
77604SOL    HW234652   7.659   3.332   6.579
77605SOL     OW34653  11.442  10.819   0.170
77605SOL    HW134654  11.370  10.798   0.229
77605SOL    HW234655  11.514  10.843   0.228
77606SOL     OW34656   6.779   8.211   4.366
77606SOL    HW134657   6.686   8.208   4.342
77606SOL    HW234658   6.784   8.271   4.440
77607SOL     OW34659  11.255   5.809  11.503
77607SOL    HW134660  11.170   5.766  11.495
77607SOL    HW234661  11.317   5.736  11.508
77608SOL     OW34662  10.401  14.145   2.560
77608SOL    HW134663  10.408  14.089   2.482
77608SOL    HW234664  10.418  14.233   2.528
77609SOL     OW34665   6.339   4.234   9.540
77609SOL    HW134666   6.320   4.225   9.633
77609SOL    HW234667   6.268   4.288   9.505
77610SOL     OW34668   3.087   2.772   1.937
77610SOL    HW134669   3.111   2.689   1.977
77610SOL    HW234670   3.005   2.797   1.980
77611SOL     OW34671   1.608   3.613   5.189
77611SOL    HW134672   1.687   3.633   5.238
77611SOL    HW234673   1.640   3.583   5.103
77612SOL     OW34674   4.970   7.620   4.455
77612SOL    HW134675   4.959   7.664   4.371
77612SOL    HW234676   5.065   7.605   4.462
77613SOL     OW34677   4.082   0.564   7.625
77613SOL    HW134678   4.168   0.604   7.638
77613SOL    HW234679   4.023   0.618   7.677
77614SOL     OW34680  14.563   8.263  13.356
77614SOL    HW134681  14.507   8.326  13.311
77614SOL    HW234682  14.509   8.186  13.367
77615SOL     OW34683  10.834   3.289   4.829
77615SOL    HW134684  10.744   3.278   4.860
77615SOL    HW234685  10.861   3.374   4.863
77616SOL     OW34686   6.404   6.131  12.266
77616SOL    HW134687   6.492   6.167  12.259
77616SOL    HW234688   6.402   6.059  12.203
77617SOL     OW34689   0.130   9.066   6.086
77617SOL    HW134690   0.188   9.142   6.094
77617SOL    HW234691   0.189   8.991   6.094
77618SOL     OW34692   6.757   4.399   6.902
77618SOL    HW134693   6.713   4.477   6.937
77618SOL    HW234694   6.772   4.419   6.810
77619SOL     OW34695   6.076   5.029  10.224
77619SOL    HW134696   6.016   5.094  10.261
77619SOL    HW234697   6.053   4.947  10.267
77620SOL     OW34698   8.100   5.655   0.788
77620SOL    HW134699   8.094   5.598   0.864
77620SOL    HW234700   8.194   5.668   0.775
77621SOL     OW34701  10.888   4.131   7.113
77621SOL    HW134702  10.972   4.165   7.083
77621SOL    HW234703  10.862   4.189   7.185
77622SOL     OW34704   7.808   3.881   0.460
77622SOL    HW134705   7.788   3.973   0.441
77622SOL    HW234706   7.724   3.843   0.484
77623SOL     OW34707  13.121   5.610   3.350
77623SOL    HW134708  13.078   5.579   3.271
77623SOL    HW234709  13.051   5.647   3.403
77624SOL     OW34710   6.921   6.789   4.619
77624SOL    HW134711   6.860   6.862   4.614
77624SOL    HW234712   7.008   6.829   4.611
77625SOL     OW34713  13.742   5.975  14.228
77625SOL    HW134714  13.756   6.056  14.277
77625SOL    HW234715  13.830   5.948  14.201
77626SOL     OW34716   9.006   2.349  12.867
77626SOL    HW134717   9.090   2.343  12.912
77626SOL    HW234718   8.954   2.277  12.903
77627SOL     OW34719   1.005   6.787   0.516
77627SOL    HW134720   1.062   6.784   0.593
77627SOL    HW234721   0.955   6.868   0.526
77628SOL     OW34722  12.613   6.651   7.669
77628SOL    HW134723  12.669   6.672   7.743
77628SOL    HW234724  12.661   6.584   7.620
77629SOL     OW34725   5.704   1.776  12.396
77629SOL    HW134726   5.759   1.735  12.463
77629SOL    HW234727   5.616   1.777  12.435
77630SOL     OW34728   2.322   8.577   5.902
77630SOL    HW134729   2.251   8.524   5.865
77630SOL    HW234730   2.380   8.594   5.828
77631SOL     OW34731   4.124  10.143   2.757
77631SOL    HW134732   4.035  10.174   2.742
77631SOL    HW234733   4.177  10.223   2.754
77632SOL     OW34734   0.682   6.030   8.537
77632SOL    HW134735   0.679   5.941   8.573
77632SOL    HW234736   0.769   6.062   8.561
77633SOL     OW34737   1.413   6.484   3.546
77633SOL    HW134738   1.486   6.426   3.567
77633SOL    HW234739   1.427   6.562   3.600
77634SOL     OW34740   8.343   8.701   8.023
77634SOL    HW134741   8.359   8.755   7.945
77634SOL    HW234742   8.289   8.628   7.991
77635SOL     OW34743   5.536   9.861  11.570
77635SOL    HW134744   5.551   9.775  11.611
77635SOL    HW234745   5.498   9.840  11.485
77636SOL     OW34746  14.077   2.045   5.938
77636SOL    HW134747  14.033   2.043   5.853
77636SOL    HW234748  14.006   2.062   6.001
77637SOL     OW34749   4.216  11.004   7.052
77637SOL    HW134750   4.294  11.046   7.015
77637SOL    HW234751   4.251  10.931   7.103
77638SOL     OW34752   7.018  13.325   1.319
77638SOL    HW134753   6.961  13.393   1.355
77638SOL    HW234754   7.098  13.331   1.371
77639SOL     OW34755   0.955  13.181   9.385
77639SOL    HW134756   0.993  13.211   9.468
77639SOL    HW234757   0.861  13.173   9.403
77640SOL     OW34758   7.034   7.703   4.609
77640SOL    HW134759   7.112   7.730   4.562
77640SOL    HW234760   6.964   7.760   4.576
77641SOL     OW34761  12.718   5.643   3.330
77641SOL    HW134762  12.754   5.554   3.328
77641SOL    HW234763  12.749   5.679   3.413
77642SOL     OW34764   8.110  11.440   4.286
77642SOL    HW134765   8.143  11.526   4.259
77642SOL    HW234766   8.030  11.459   4.335
77643SOL     OW34767   0.458  12.987   5.324
77643SOL    HW134768   0.549  12.997   5.295
77643SOL    HW234769   0.444  12.892   5.327
77644SOL     OW34770  14.634  11.477  12.218
77644SOL    HW134771  14.561  11.453  12.275
77644SOL    HW234772  14.706  11.496  12.278
77645SOL     OW34773   6.291  11.618   9.321
77645SOL    HW134774   6.308  11.536   9.275
77645SOL    HW234775   6.225  11.597   9.387
77646SOL     OW34776   7.467  14.365  11.696
77646SOL    HW134777   7.425  14.440  11.737
77646SOL    HW234778   7.495  14.396  11.610
77647SOL     OW34779  11.329   7.082  12.099
77647SOL    HW134780  11.330   7.134  12.019
77647SOL    HW234781  11.358   7.142  12.168
77648SOL     OW34782   8.641  10.744   6.730
77648SOL    HW134783   8.555  10.759   6.692
77648SOL    HW234784   8.652  10.649   6.727
77649SOL     OW34785  13.079  11.693   4.745
77649SOL    HW134786  13.030  11.727   4.820
77649SOL    HW234787  13.065  11.598   4.749
77650SOL     OW34788   6.312   8.687  14.366
77650SOL    HW134789   6.405   8.708  14.362
77650SOL    HW234790   6.289   8.660  14.277
77651SOL     OW34791   3.159  10.830   0.194
77651SOL    HW134792   3.173  10.854   0.102
77651SOL    HW234793   3.247  10.812   0.227
77652SOL     OW34794  12.291   2.009  14.048
77652SOL    HW134795  12.343   1.989  14.126
77652SOL    HW234796  12.289   1.928  13.999
77653SOL     OW34797   2.162  13.973   0.795
77653SOL    HW134798   2.238  13.920   0.770
77653SOL    HW234799   2.191  14.022   0.872
77654SOL     OW34800  13.522  11.964   8.132
77654SOL    HW134801  13.509  11.988   8.041
77654SOL    HW234802  13.613  11.987   8.151
77655SOL     OW34803   8.532  11.361   3.690
77655SOL    HW134804   8.514  11.269   3.674
77655SOL    HW234805   8.469  11.387   3.758
77656SOL     OW34806   2.875   2.954   9.820
77656SOL    HW134807   2.805   2.899   9.785
77656SOL    HW234808   2.923   2.898   9.880
77657SOL     OW34809   1.103   6.334   7.772
77657SOL    HW134810   1.138   6.418   7.742
77657SOL    HW234811   1.009   6.347   7.774
77658SOL     OW34812   5.966  12.650  13.341
77658SOL    HW134813   5.988  12.602  13.421
77658SOL    HW234814   5.907  12.720  13.371
77659SOL     OW34815  11.694   8.032  13.732
77659SOL    HW134816  11.713   7.941  13.756
77659SOL    HW234817  11.780   8.071  13.716
77660SOL     OW34818   7.365  12.535   3.067
77660SOL    HW134819   7.359  12.626   3.036
77660SOL    HW234820   7.451  12.506   3.037
77661SOL     OW34821   7.656  14.501  14.818
77661SOL    HW134822   7.639  14.573  14.757
77661SOL    HW234823   7.571  14.481  14.856
77662SOL     OW34824   8.589   1.018   6.947
77662SOL    HW134825   8.654   1.074   6.989
77662SOL    HW234826   8.546   0.974   7.021
77663SOL     OW34827   1.701   8.486   5.176
77663SOL    HW134828   1.711   8.569   5.224
77663SOL    HW234829   1.677   8.512   5.087
77664SOL     OW34830   3.545   2.445  11.299
77664SOL    HW134831   3.472   2.411  11.248
77664SOL    HW234832   3.504   2.485  11.376
77665SOL     OW34833   4.634  11.528   8.397
77665SOL    HW134834   4.672  11.489   8.318
77665SOL    HW234835   4.617  11.619   8.374
77666SOL     OW34836   5.228   2.466   3.876
77666SOL    HW134837   5.260   2.533   3.936
77666SOL    HW234838   5.276   2.481   3.795
77667SOL     OW34839   4.521   0.419   6.326
77667SOL    HW134840   4.502   0.439   6.417
77667SOL    HW234841   4.549   0.502   6.288
77668SOL     OW34842  13.207   7.590  11.241
77668SOL    HW134843  13.156   7.545  11.307
77668SOL    HW234844  13.290   7.612  11.285
77669SOL     OW34845   5.476  10.524   5.436
77669SOL    HW134846   5.483  10.486   5.349
77669SOL    HW234847   5.421  10.463   5.485
77670SOL     OW34848   4.849  12.419   5.062
77670SOL    HW134849   4.890  12.473   4.995
77670SOL    HW234850   4.865  12.467   5.144
77671SOL     OW34851  11.632   5.765   2.872
77671SOL    HW134852  11.598   5.771   2.962
77671SOL    HW234853  11.592   5.840   2.827
77672SOL     OW34854   1.905   2.246  11.223
77672SOL    HW134855   1.844   2.172  11.232
77672SOL    HW234856   1.894   2.276  11.133
77673SOL     OW34857   2.687   7.316   7.633
77673SOL    HW134858   2.661   7.245   7.574
77673SOL    HW234859   2.709   7.271   7.715
77674SOL     OW34860   8.710  12.824   5.594
77674SOL    HW134861   8.703  12.865   5.680
77674SOL    HW234862   8.787  12.864   5.554
77675SOL     OW34863  14.380   0.291  10.590
77675SOL    HW134864  14.306   0.351  10.605
77675SOL    HW234865  14.373   0.226  10.660
77676SOL     OW34866  12.039  13.146  10.514
77676SOL    HW134867  12.051  13.069  10.458
77676SOL    HW234868  12.116  13.200  10.496
77677SOL     OW34869  14.588  12.958   0.055
77677SOL    HW134870  14.512  13.002   0.018
77677SOL    HW234871  14.557  12.871   0.077
77678SOL     OW34872   3.382   8.086  12.905
77678SOL    HW134873   3.374   8.155  12.970
77678SOL    HW234874   3.291   8.063  12.883
77679SOL     OW34875  14.017   3.133   4.522
77679SOL    HW134876  13.971   3.174   4.449
77679SOL    HW234877  13.948   3.109   4.584
77680SOL     OW34878   7.225  14.773   2.743
77680SOL    HW134879   7.268  14.771   2.828
77680SOL    HW234880   7.145  14.824   2.757
77681SOL     OW34881  11.507  13.016   5.870
77681SOL    HW134882  11.451  13.090   5.846
77681SOL    HW234883  11.509  12.961   5.791
77682SOL     OW34884   0.861   6.142   8.822
77682SOL    HW134885   0.847   6.208   8.753
77682SOL    HW234886   0.826   6.183   8.901
77683SOL     OW34887   1.045   7.679   6.833
77683SOL    HW134888   0.965   7.627   6.828
77683SOL    HW234889   1.069   7.678   6.925
77684SOL     OW34890   1.843   0.743   9.030
77684SOL    HW134891   1.755   0.737   9.065
77684SOL    HW234892   1.879   0.823   9.067
77685SOL     OW34893   6.400  13.500   4.486
77685SOL    HW134894   6.483  13.492   4.439
77685SOL    HW234895   6.345  13.554   4.430
77686SOL     OW34896   7.357   6.101   9.085
77686SOL    HW134897   7.355   6.036   9.015
77686SOL    HW234898   7.449   6.127   9.091
77687SOL     OW34899  10.840   3.716  13.560
77687SOL    HW134900  10.830   3.639  13.615
77687SOL    HW234901  10.921   3.701  13.512
77688SOL     OW34902   6.773   0.696   3.859
77688SOL    HW134903   6.794   0.769   3.800
77688SOL    HW234904   6.698   0.727   3.909
77689SOL     OW34905  10.760   0.871   5.894
77689SOL    HW134906  10.728   0.914   5.974
77689SOL    HW234907  10.815   0.936   5.851
77690SOL     OW34908   2.006  13.250  10.744
77690SOL    HW134909   2.039  13.167  10.777
77690SOL    HW234910   2.044  13.259  10.657
77691SOL     OW34911   7.205   9.360   1.229
77691SOL    HW134912   7.187   9.368   1.322
77691SOL    HW234913   7.290   9.403   1.217
77692SOL     OW34914   9.414   5.254  13.155
77692SOL    HW134915   9.322   5.275  13.171
77692SOL    HW234916   9.449   5.234  13.242
77693SOL     OW34917   2.288  12.956   9.677
77693SOL    HW134918   2.200  12.938   9.643
77693SOL    HW234919   2.333  13.001   9.606
77694SOL     OW34920   2.855   4.696   8.796
77694SOL    HW134921   2.940   4.735   8.776
77694SOL    HW234922   2.838   4.721   8.887
77695SOL     OW34923   6.203   1.009   0.738
77695SOL    HW134924   6.175   0.920   0.758
77695SOL    HW234925   6.224   1.047   0.823
77696SOL     OW34926  10.480   8.449   6.910
77696SOL    HW134927  10.417   8.380   6.925
77696SOL    HW234928  10.530   8.421   6.833
77697SOL     OW34929   1.461   7.259   1.954
77697SOL    HW134930   1.457   7.345   1.996
77697SOL    HW234931   1.449   7.277   1.861
77698SOL     OW34932  10.750  10.320  12.010
77698SOL    HW134933  10.676  10.380  12.003
77698SOL    HW234934  10.818  10.359  11.955
77699SOL     OW34935   3.301  14.291  10.636
77699SOL    HW134936   3.224  14.234  10.639
77699SOL    HW234937   3.337  14.289  10.725
77700SOL     OW34938   0.453   6.006   0.316
77700SOL    HW134939   0.376   6.062   0.325
77700SOL    HW234940   0.453   5.951   0.394
77701SOL     OW34941  13.810   2.046   6.079
77701SOL    HW134942  13.737   1.989   6.101
77701SOL    HW234943  13.842   2.078   6.164
77702SOL     OW34944   9.250  12.060   8.722
77702SOL    HW134945   9.232  12.135   8.665
77702SOL    HW234946   9.165  12.015   8.730
77703SOL     OW34947   1.033   4.602  14.226
77703SOL    HW134948   0.954   4.561  14.192
77703SOL    HW234949   1.010   4.631  14.314
77704SOL     OW34950   6.151   8.708   3.041
77704SOL    HW134951   6.151   8.652   2.963
77704SOL    HW234952   6.204   8.660   3.105
77705SOL     OW34953   2.771   7.196   5.091
77705SOL    HW134954   2.848   7.158   5.134
77705SOL    HW234955   2.790   7.189   4.997
77706SOL     OW34956   0.665   4.660   6.488
77706SOL    HW134957   0.717   4.740   6.486
77706SOL    HW234958   0.729   4.589   6.492
77707SOL     OW34959   8.420  10.652  14.515
77707SOL    HW134960   8.458  10.610  14.592
77707SOL    HW234961   8.336  10.687  14.546
77708SOL     OW34962   1.981   3.702  12.919
77708SOL    HW134963   2.064   3.749  12.932
77708SOL    HW234964   1.990   3.622  12.972
77709SOL     OW34965  14.082  10.665   5.017
77709SOL    HW134966  14.054  10.744   4.969
77709SOL    HW234967  14.177  10.669   5.016
77710SOL     OW34968  13.244   6.235   9.438
77710SOL    HW134969  13.165   6.241   9.385
77710SOL    HW234970  13.290   6.317   9.422
77711SOL     OW34971  13.653   7.333   1.088
77711SOL    HW134972  13.706   7.293   1.019
77711SOL    HW234973  13.610   7.259   1.131
77712SOL     OW34974  11.282   4.955  13.013
77712SOL    HW134975  11.353   4.893  13.027
77712SOL    HW234976  11.213   4.904  12.971
77713SOL     OW34977  13.430  14.282   9.335
77713SOL    HW134978  13.420  14.286   9.240
77713SOL    HW234979  13.516  14.240   9.348
77714SOL     OW34980   1.198   0.419   5.427
77714SOL    HW134981   1.162   0.481   5.491
77714SOL    HW234982   1.197   0.335   5.472
77715SOL     OW34983   5.344   0.052   2.706
77715SOL    HW134984   5.378  14.846   2.734
77715SOL    HW234985   5.393   0.115   2.758
77716SOL     OW34986   4.058  12.047   3.649
77716SOL    HW134987   3.998  11.973   3.663
77716SOL    HW234988   4.081  12.040   3.556
77717SOL     OW34989  10.743  13.094  13.469
77717SOL    HW134990  10.728  13.004  13.496
77717SOL    HW234991  10.736  13.093  13.374
77718SOL     OW34992   7.573  11.633   5.495
77718SOL    HW134993   7.541  11.718   5.527
77718SOL    HW234994   7.495  11.578   5.494
77719SOL     OW34995  12.326   8.100   0.189
77719SOL    HW134996  12.332   8.005   0.180
77719SOL    HW234997  12.312   8.132   0.100
77720SOL     OW34998   3.373   3.936   3.270
77720SOL    HW134999   3.327   3.987   3.336
77720SOL    HW235000   3.366   3.988   3.190
77721SOL     OW35001  13.076  14.039   4.963
77721SOL    HW135002  13.125  14.004   4.889
77721SOL    HW235003  13.110  13.992   5.039
77722SOL     OW35004   2.192   7.858   3.246
77722SOL    HW135005   2.129   7.900   3.305
77722SOL    HW235006   2.181   7.903   3.162
77723SOL     OW35007   9.726   8.904   7.622
77723SOL    HW135008   9.703   8.884   7.531
77723SOL    HW235009   9.742   8.998   7.622
77724SOL     OW35010  12.613  12.117   4.357
77724SOL    HW135011  12.575  12.033   4.380
77724SOL    HW235012  12.706  12.108   4.375
77725SOL     OW35013   3.819  11.310   8.159
77725SOL    HW135014   3.909  11.319   8.129
77725SOL    HW235015   3.785  11.399   8.160
77726SOL     OW35016  11.604   0.185   5.405
77726SOL    HW135017  11.628   0.227   5.322
77726SOL    HW235018  11.582   0.095   5.381
77727SOL     OW35019  10.591   7.493   6.059
77727SOL    HW135020  10.513   7.498   6.003
77727SOL    HW235021  10.575   7.558   6.128
77728SOL     OW35022   9.304   5.089   2.970
77728SOL    HW135023   9.221   5.069   3.013
77728SOL    HW235024   9.364   5.110   3.041
77729SOL     OW35025   2.023   6.558   6.993
77729SOL    HW135026   2.054   6.610   7.067
77729SOL    HW235027   1.938   6.596   6.971
77730SOL     OW35028  13.692   4.601  14.633
77730SOL    HW135029  13.672   4.687  14.668
77730SOL    HW235030  13.608   4.555  14.633
77731SOL     OW35031   4.564  11.027  11.258
77731SOL    HW135032   4.469  11.020  11.259
77731SOL    HW235033   4.582  11.119  11.276
77732SOL     OW35034  12.923   2.853   0.479
77732SOL    HW135035  12.995   2.819   0.532
77732SOL    HW235036  12.926   2.948   0.492
77733SOL     OW35037  14.704   3.379   0.475
77733SOL    HW135038  14.614   3.352   0.456
77733SOL    HW235039  14.711   3.467   0.437
77734SOL     OW35040   6.149   1.484   6.589
77734SOL    HW135041   6.116   1.491   6.679
77734SOL    HW235042   6.118   1.564   6.546
77735SOL     OW35043  10.508   5.551   6.713
77735SOL    HW135044  10.424   5.598   6.711
77735SOL    HW235045  10.523   5.526   6.622
77736SOL     OW35046   9.908   2.971   1.319
77736SOL    HW135047   9.835   2.930   1.366
77736SOL    HW235048   9.881   3.061   1.307
77737SOL     OW35049  12.667   2.113  12.167
77737SOL    HW135050  12.620   2.082  12.090
77737SOL    HW235051  12.691   2.203  12.147
77738SOL     OW35052   7.661   6.829   9.817
77738SOL    HW135053   7.638   6.911   9.861
77738SOL    HW235054   7.658   6.763   9.887
77739SOL     OW35055  14.863   5.693   8.543
77739SOL    HW135056   0.068   5.731   8.520
77739SOL    HW235057  14.859   5.612   8.491
77740SOL     OW35058  12.919  12.447  11.922
77740SOL    HW135059  12.924  12.361  11.965
77740SOL    HW235060  12.987  12.445  11.856
77741SOL     OW35061  12.170  12.570   3.464
77741SOL    HW135062  12.140  12.601   3.549
77741SOL    HW235063  12.224  12.642   3.430
77742SOL     OW35064   7.506   4.432   1.847
77742SOL    HW135065   7.566   4.454   1.775
77742SOL    HW235066   7.479   4.342   1.828
77743SOL     OW35067  13.324  14.272   4.120
77743SOL    HW135068  13.309  14.256   4.027
77743SOL    HW235069  13.393  14.211   4.144
77744SOL     OW35070   6.681  14.233  12.776
77744SOL    HW135071   6.745  14.176  12.733
77744SOL    HW235072   6.598  14.185  12.767
77745SOL     OW35073   6.628   9.822   6.721
77745SOL    HW135074   6.690   9.800   6.791
77745SOL    HW235075   6.557   9.868   6.765
77746SOL     OW35076   3.537   3.199   8.829
77746SOL    HW135077   3.558   3.264   8.761
77746SOL    HW235078   3.485   3.248   8.893
77747SOL     OW35079   9.987   1.898  14.340
77747SOL    HW135080  10.049   1.970  14.341
77747SOL    HW235081   9.906   1.934  14.376
77748SOL     OW35082   0.313  12.392   0.185
77748SOL    HW135083   0.369  12.390   0.108
77748SOL    HW235084   0.345  12.320   0.239
77749SOL     OW35085   7.466  10.528   9.752
77749SOL    HW135086   7.462  10.622   9.773
77749SOL    HW235087   7.412  10.487   9.820
77750SOL     OW35088   4.462   4.082  10.334
77750SOL    HW135089   4.396   4.107  10.269
77750SOL    HW235090   4.527   4.152  10.330
77751SOL     OW35091   9.205   4.103   2.576
77751SOL    HW135092   9.280   4.057   2.614
77751SOL    HW235093   9.230   4.195   2.579
77752SOL     OW35094   8.392   8.555   1.174
77752SOL    HW135095   8.325   8.494   1.207
77752SOL    HW235096   8.459   8.498   1.136
77753SOL     OW35097   2.294   2.292  12.707
77753SOL    HW135098   2.279   2.381  12.738
77753SOL    HW235099   2.386   2.274  12.727
77754SOL     OW35100   9.283  12.426   9.744
77754SOL    HW135101   9.369  12.411   9.782
77754SOL    HW235102   9.259  12.342   9.705
77755SOL     OW35103  13.038  14.562   8.113
77755SOL    HW135104  13.121  14.552   8.160
77755SOL    HW235105  13.018  14.474   8.082
77756SOL     OW35106  12.617   0.229   5.987
77756SOL    HW135107  12.572   0.183   5.916
77756SOL    HW235108  12.670   0.162   6.030
77757SOL     OW35109   9.315  14.588   3.937
77757SOL    HW135110   9.277  14.596   4.024
77757SOL    HW235111   9.322  14.494   3.921
77758SOL     OW35112   1.458  11.260  12.876
77758SOL    HW135113   1.517  11.332  12.856
77758SOL    HW235114   1.511  11.181  12.862
77759SOL     OW35115  14.244  11.048   3.856
77759SOL    HW135116  14.251  11.108   3.930
77759SOL    HW235117  14.159  11.069   3.817
77760SOL     OW35118   1.493  13.659   0.252
77760SOL    HW135119   1.519  13.707   0.174
77760SOL    HW235120   1.468  13.572   0.221
77761SOL     OW35121   2.310  12.340   6.793
77761SOL    HW135122   2.339  12.275   6.730
77761SOL    HW235123   2.348  12.312   6.876
77762SOL     OW35124   1.224   6.602  13.839
77762SOL    HW135125   1.298   6.564  13.887
77762SOL    HW235126   1.147   6.559  13.875
77763SOL     OW35127  13.697   7.656   8.774
77763SOL    HW135128  13.629   7.719   8.802
77763SOL    HW235129  13.680   7.643   8.681
77764SOL     OW35130   0.908   8.223  14.327
77764SOL    HW135131   0.872   8.184  14.247
77764SOL    HW235132   0.963   8.154  14.365
77765SOL     OW35133   1.637   6.854  11.958
77765SOL    HW135134   1.723   6.894  11.957
77765SOL    HW235135   1.613   6.849  12.051
77766SOL     OW35136  11.434   2.266   1.999
77766SOL    HW135137  11.429   2.183   1.953
77766SOL    HW235138  11.483   2.246   2.079
77767SOL     OW35139   9.131   9.770  13.374
77767SOL    HW135140   9.104   9.728  13.456
77767SOL    HW235141   9.119   9.864  13.391
77768SOL     OW35142   5.254   6.187  10.427
77768SOL    HW135143   5.187   6.152  10.367
77768SOL    HW235144   5.230   6.280  10.438
77769SOL     OW35145   9.684  11.171   4.853
77769SOL    HW135146   9.718  11.236   4.915
77769SOL    HW235147   9.602  11.209   4.821
77770SOL     OW35148   0.650   6.671   4.555
77770SOL    HW135149   0.657   6.753   4.507
77770SOL    HW235150   0.557   6.660   4.571
77771SOL     OW35151   4.856   1.976   9.085
77771SOL    HW135152   4.829   2.004   8.997
77771SOL    HW235153   4.878   1.883   9.075
77772SOL     OW35154   8.853   7.221   8.880
77772SOL    HW135155   8.788   7.253   8.942
77772SOL    HW235156   8.844   7.125   8.882
77773SOL     OW35157   9.826  13.058   9.518
77773SOL    HW135158   9.916  13.027   9.533
77773SOL    HW235159   9.772  12.981   9.531
77774SOL     OW35160  13.993   5.875   6.283
77774SOL    HW135161  14.061   5.809   6.298
77774SOL    HW235162  13.952   5.850   6.201
77775SOL     OW35163  14.824  12.106   9.387
77775SOL    HW135164   0.010  12.036   9.387
77775SOL    HW235165  14.800  12.116   9.479
77776SOL     OW35166   0.915   0.498   6.648
77776SOL    HW135167   0.850   0.548   6.696
77776SOL    HW235168   0.890   0.406   6.661
77777SOL     OW35169   5.166   2.709   2.829
77777SOL    HW135170   5.103   2.638   2.816
77777SOL    HW235171   5.136   2.779   2.772
77778SOL     OW35172   8.732   3.645   8.700
77778SOL    HW135173   8.763   3.579   8.638
77778SOL    HW235174   8.746   3.728   8.656
77779SOL     OW35175   8.049  12.229   0.374
77779SOL    HW135176   7.987  12.303   0.376
77779SOL    HW235177   8.131  12.266   0.404
77780SOL     OW35178   3.084   7.503  12.314
77780SOL    HW135179   3.102   7.414  12.286
77780SOL    HW235180   3.098   7.556  12.236
77781SOL     OW35181  10.727   7.626   5.310
77781SOL    HW135182  10.736   7.619   5.405
77781SOL    HW235183  10.814   7.605   5.276
77782SOL     OW35184   0.305  12.646  11.344
77782SOL    HW135185   0.242  12.717  11.349
77782SOL    HW235186   0.289  12.606  11.258
77783SOL     OW35187   8.159  11.681   5.571
77783SOL    HW135188   8.123  11.644   5.652
77783SOL    HW235189   8.155  11.609   5.508
77784SOL     OW35190  12.604   3.905   4.430
77784SOL    HW135191  12.593   3.998   4.449
77784SOL    HW235192  12.681   3.901   4.373
77785SOL     OW35193   1.416  12.243   1.080
77785SOL    HW135194   1.490  12.193   1.044
77785SOL    HW235195   1.442  12.335   1.067
77786SOL     OW35196   2.306   8.432   0.541
77786SOL    HW135197   2.368   8.389   0.600
77786SOL    HW235198   2.273   8.507   0.592
77787SOL     OW35199   8.899  11.242   8.154
77787SOL    HW135200   8.812  11.253   8.191
77787SOL    HW235201   8.956  11.293   8.211
77788SOL     OW35202   6.169  10.800   0.249
77788SOL    HW135203   6.171  10.705   0.263
77788SOL    HW235204   6.130  10.835   0.329
77789SOL     OW35205  10.373   0.392   8.263
77789SOL    HW135206  10.333   0.399   8.349
77789SOL    HW235207  10.364   0.299   8.239
77790SOL     OW35208   2.594   0.669   5.149
77790SOL    HW135209   2.528   0.629   5.093
77790SOL    HW235210   2.628   0.742   5.098
77791SOL     OW35211   5.055   1.675   4.975
77791SOL    HW135212   4.986   1.734   5.007
77791SOL    HW235213   5.073   1.617   5.049
77792SOL     OW35214   4.746  12.161   5.604
77792SOL    HW135215   4.770  12.168   5.511
77792SOL    HW235216   4.744  12.067   5.622
77793SOL     OW35217  11.195   1.972   8.160
77793SOL    HW135218  11.287   1.991   8.144
77793SOL    HW235219  11.166   2.042   8.219
77794SOL     OW35220  11.059   3.727   2.508
77794SOL    HW135221  11.124   3.723   2.437
77794SOL    HW235222  10.976   3.745   2.463
77795SOL     OW35223  12.811   7.855   5.493
77795SOL    HW135224  12.882   7.898   5.446
77795SOL    HW235225  12.827   7.877   5.585
77796SOL     OW35226   6.237   3.114   4.910
77796SOL    HW135227   6.244   3.208   4.927
77796SOL    HW235228   6.153   3.089   4.947
77797SOL     OW35229  14.866   8.176  14.324
77797SOL    HW135230   0.075   8.208  14.309
77797SOL    HW235231  14.810   8.237  14.275
77798SOL     OW35232   7.315  13.707  13.281
77798SOL    HW135233   7.404  13.672  13.290
77798SOL    HW235234   7.261  13.646  13.332
77799SOL     OW35235  11.554   3.810   7.922
77799SOL    HW135236  11.458   3.804   7.922
77799SOL    HW235237  11.576   3.841   7.835
77800SOL     OW35238   1.318   9.123   9.536
77800SOL    HW135239   1.291   9.163   9.619
77800SOL    HW235240   1.409   9.096   9.552
77801SOL     OW35241  12.189  13.144  12.636
77801SOL    HW135242  12.206  13.159  12.729
77801SOL    HW235243  12.142  13.222  12.607
77802SOL     OW35244   5.640   9.465   1.287
77802SOL    HW135245   5.641   9.476   1.382
77802SOL    HW235246   5.655   9.553   1.252
77803SOL     OW35247   0.720   2.023  13.128
77803SOL    HW135248   0.736   2.100  13.183
77803SOL    HW235249   0.788   1.961  13.154
77804SOL     OW35250  11.005  13.850   4.478
77804SOL    HW135251  11.100  13.843   4.490
77804SOL    HW235252  10.991  13.939   4.447
77805SOL     OW35253   7.576   2.264   9.743
77805SOL    HW135254   7.506   2.267   9.808
77805SOL    HW235255   7.531   2.277   9.659
77806SOL     OW35256   0.084  14.208   2.173
77806SOL    HW135257   0.116  14.247   2.091
77806SOL    HW235258   0.007  14.260   2.195
77807SOL     OW35259   9.590   1.095   4.558
77807SOL    HW135260   9.613   1.090   4.651
77807SOL    HW235261   9.643   1.026   4.518
77808SOL     OW35262   8.385  14.324  10.979
77808SOL    HW135263   8.412  14.416  10.976
77808SOL    HW235264   8.310  14.320  10.919
77809SOL     OW35265  10.631   5.214  13.304
77809SOL    HW135266  10.633   5.310  13.294
77809SOL    HW235267  10.597   5.183  13.220
77810SOL     OW35268  13.928   5.948   8.951
77810SOL    HW135269  13.887   5.865   8.977
77810SOL    HW235270  13.979   5.926   8.873
77811SOL     OW35271   0.627   0.337  13.298
77811SOL    HW135272   0.569   0.396  13.346
77811SOL    HW235273   0.615   0.361  13.206
77812SOL     OW35274   2.955   7.974   0.748
77812SOL    HW135275   2.875   8.006   0.707
77812SOL    HW235276   3.021   7.978   0.679
77813SOL     OW35277   0.412   0.696   6.738
77813SOL    HW135278   0.381   0.752   6.808
77813SOL    HW235279   0.382   0.608   6.761
77814SOL     OW35280  12.333  11.310  12.599
77814SOL    HW135281  12.316  11.367  12.674
77814SOL    HW235282  12.400  11.356  12.548
77815SOL     OW35283   5.987   7.732   1.700
77815SOL    HW135284   6.004   7.765   1.788
77815SOL    HW235285   5.893   7.747   1.687
77816SOL     OW35286   6.175   7.244   0.546
77816SOL    HW135287   6.243   7.214   0.485
77816SOL    HW235288   6.182   7.184   0.620
77817SOL     OW35289   8.912   2.393  10.554
77817SOL    HW135290   8.975   2.329  10.585
77817SOL    HW235291   8.914   2.463  10.619
77818SOL     OW35292  12.046   0.716   2.859
77818SOL    HW135293  12.033   0.700   2.765
77818SOL    HW235294  11.970   0.768   2.885
77819SOL     OW35295   6.361  12.713   9.437
77819SOL    HW135296   6.442  12.665   9.417
77819SOL    HW235297   6.374  12.798   9.396
77820SOL     OW35298  14.645  14.096   7.836
77820SOL    HW135299  14.719  14.035   7.842
77820SOL    HW235300  14.630  14.124   7.926
77821SOL     OW35301   4.698   3.500   7.427
77821SOL    HW135302   4.786   3.507   7.390
77821SOL    HW235303   4.661   3.422   7.385
77822SOL     OW35304   4.341   4.002   7.218
77822SOL    HW135305   4.271   4.044   7.268
77822SOL    HW235306   4.345   4.052   7.136
77823SOL     OW35307   3.433  11.149   0.939
77823SOL    HW135308   3.416  11.223   0.880
77823SOL    HW235309   3.507  11.178   0.993
77824SOL     OW35310   6.934   0.472   1.531
77824SOL    HW135311   6.898   0.411   1.595
77824SOL    HW235312   6.996   0.419   1.481
77825SOL     OW35313   1.096   3.631   0.936
77825SOL    HW135314   1.145   3.708   0.967
77825SOL    HW235315   1.071   3.654   0.846
77826SOL     OW35316   9.299   1.763  13.556
77826SOL    HW135317   9.296   1.789  13.464
77826SOL    HW235318   9.312   1.845  13.604
77827SOL     OW35319  12.138   2.849   2.973
77827SOL    HW135320  12.163   2.858   2.882
77827SOL    HW235321  12.043   2.865   2.974
77828SOL     OW35322   5.454  12.160   7.818
77828SOL    HW135323   5.359  12.156   7.826
77828SOL    HW235324   5.473  12.121   7.732
77829SOL     OW35325  14.752   1.995   6.376
77829SOL    HW135326  14.822   1.941   6.340
77829SOL    HW235327  14.712   2.037   6.300
77830SOL     OW35328  12.508   9.932   1.752
77830SOL    HW135329  12.443   9.887   1.807
77830SOL    HW235330  12.592   9.903   1.786
77831SOL     OW35331   5.703   6.779   9.429
77831SOL    HW135332   5.786   6.732   9.416
77831SOL    HW235333   5.724   6.871   9.409
77832SOL     OW35334   5.513   0.303   5.599
77832SOL    HW135335   5.512   0.384   5.548
77832SOL    HW235336   5.423   0.269   5.591
77833SOL     OW35337   7.509   8.122   8.344
77833SOL    HW135338   7.555   8.179   8.282
77833SOL    HW235339   7.571   8.051   8.361
77834SOL     OW35340   4.318   9.771   2.415
77834SOL    HW135341   4.322   9.847   2.474
77834SOL    HW235342   4.318   9.696   2.474
77835SOL     OW35343   7.208   4.995   6.642
77835SOL    HW135344   7.234   5.041   6.723
77835SOL    HW235345   7.113   4.986   6.650
77836SOL     OW35346  12.849   4.445   0.936
77836SOL    HW135347  12.857   4.529   0.981
77836SOL    HW235348  12.838   4.468   0.844
77837SOL     OW35349   2.380   3.101   1.651
77837SOL    HW135350   2.299   3.050   1.652
77837SOL    HW235351   2.352   3.191   1.667
77838SOL     OW35352   3.414  11.993   7.683
77838SOL    HW135353   3.398  12.019   7.773
77838SOL    HW235354   3.500  11.952   7.684
77839SOL     OW35355   0.119  11.735   4.573
77839SOL    HW135356   0.088  11.781   4.495
77839SOL    HW235357   0.141  11.647   4.543
77840SOL     OW35358   7.646   4.811  14.230
77840SOL    HW135359   7.710   4.881  14.244
77840SOL    HW235360   7.584   4.821  14.302
77841SOL     OW35361   1.288   6.455   2.213
77841SOL    HW135362   1.362   6.410   2.172
77841SOL    HW235363   1.312   6.548   2.211
77842SOL     OW35364  13.648   5.109   7.671
77842SOL    HW135365  13.642   5.176   7.738
77842SOL    HW235366  13.647   5.157   7.588
77843SOL     OW35367  12.592   8.402   4.652
77843SOL    HW135368  12.665   8.406   4.590
77843SOL    HW235369  12.594   8.487   4.696
77844SOL     OW35370   1.705   2.522   2.295
77844SOL    HW135371   1.629   2.464   2.288
77844SOL    HW235372   1.715   2.538   2.389
77845SOL     OW35373   6.607   2.171  11.225
77845SOL    HW135374   6.666   2.096  11.220
77845SOL    HW235375   6.614   2.213  11.140
77846SOL     OW35376   2.402   3.081   1.052
77846SOL    HW135377   2.426   3.069   1.144
77846SOL    HW235378   2.344   3.007   1.033
77847SOL     OW35379  10.857   1.182  13.535
77847SOL    HW135380  10.799   1.111  13.563
77847SOL    HW235381  10.872   1.233  13.614
77848SOL     OW35382   7.541   3.794   3.436
77848SOL    HW135383   7.486   3.873   3.433
77848SOL    HW235384   7.631   3.828   3.436
77849SOL     OW35385  10.153   3.874   5.348
77849SOL    HW135386  10.229   3.899   5.400
77849SOL    HW235387  10.169   3.911   5.262
77850SOL     OW35388   4.703   9.985  14.822
77850SOL    HW135389   4.784   9.973  14.872
77850SOL    HW235390   4.719  10.061  14.767
77851SOL     OW35391   9.720  10.109  13.213
77851SOL    HW135392   9.662  10.080  13.283
77851SOL    HW235393   9.775  10.033  13.194
77852SOL     OW35394   2.280   8.540   1.151
77852SOL    HW135395   2.217   8.497   1.209
77852SOL    HW235396   2.282   8.631   1.182
77853SOL     OW35397   2.307   3.081  10.278
77853SOL    HW135398   2.227   3.100  10.327
77853SOL    HW235399   2.284   3.007  10.222
77854SOL     OW35400   9.113   5.742  11.606
77854SOL    HW135401   9.049   5.676  11.631
77854SOL    HW235402   9.101   5.812  11.670
77855SOL     OW35403   4.142   3.568  10.941
77855SOL    HW135404   4.139   3.512  10.863
77855SOL    HW235405   4.217   3.625  10.927
77856SOL     OW35406  12.953  14.536   6.980
77856SOL    HW135407  12.974  14.458   7.032
77856SOL    HW235408  12.867  14.517   6.943
77857SOL     OW35409  13.762   0.662   1.367
77857SOL    HW135410  13.831   0.595   1.375
77857SOL    HW235411  13.786   0.729   1.431
77858SOL     OW35412   0.103   5.385   6.325
77858SOL    HW135413   0.148   5.403   6.408
77858SOL    HW235414   0.156   5.316   6.284
77859SOL     OW35415   5.277   8.495   9.140
77859SOL    HW135416   5.250   8.409   9.107
77859SOL    HW235417   5.367   8.483   9.169
77860SOL     OW35418   5.038   3.659  10.369
77860SOL    HW135419   5.132   3.673  10.384
77860SOL    HW235420   4.998   3.745  10.387
77861SOL     OW35421   0.059  11.058   7.184
77861SOL    HW135422   0.053  10.978   7.132
77861SOL    HW235423  14.847  11.083   7.199
77862SOL     OW35424   6.217   2.752  13.543
77862SOL    HW135425   6.294   2.737  13.488
77862SOL    HW235426   6.179   2.833  13.510
77863SOL     OW35427  10.459   8.650   4.265
77863SOL    HW135428  10.469   8.728   4.320
77863SOL    HW235429  10.365   8.632   4.265
77864SOL     OW35430   4.339   6.707   3.769
77864SOL    HW135431   4.388   6.782   3.803
77864SOL    HW235432   4.247   6.734   3.775
77865SOL     OW35433  10.133   1.030   1.569
77865SOL    HW135434  10.089   0.969   1.629
77865SOL    HW235435  10.063   1.063   1.513
77866SOL     OW35436   8.043  13.510  13.427
77866SOL    HW135437   8.044  13.604  13.449
77866SOL    HW235438   8.005  13.507  13.339
77867SOL     OW35439  12.005   6.972   9.964
77867SOL    HW135440  11.965   6.935  10.043
77867SOL    HW235441  11.986   7.065   9.970
77868SOL     OW35442  13.706  12.662   3.597
77868SOL    HW135443  13.787  12.674   3.646
77868SOL    HW235444  13.663  12.588   3.639
77869SOL     OW35445   6.052   7.052   6.420
77869SOL    HW135446   6.120   7.021   6.480
77869SOL    HW235447   6.080   7.140   6.396
77870SOL     OW35448   7.706  13.020   0.265
77870SOL    HW135449   7.760  13.094   0.241
77870SOL    HW235450   7.704  12.965   0.186
77871SOL     OW35451   7.122  10.488   6.165
77871SOL    HW135452   7.149  10.547   6.236
77871SOL    HW235453   7.085  10.546   6.099
77872SOL     OW35454  12.669   6.476   5.797
77872SOL    HW135455  12.613   6.419   5.849
77872SOL    HW235456  12.608   6.536   5.754
77873SOL     OW35457  12.861   2.818   4.401
77873SOL    HW135458  12.798   2.746   4.401
77873SOL    HW235459  12.832   2.875   4.472
77874SOL     OW35460   7.769   6.232  11.197
77874SOL    HW135461   7.717   6.197  11.125
77874SOL    HW235462   7.795   6.155  11.248
77875SOL     OW35463   4.634  11.172   4.016
77875SOL    HW135464   4.538  11.182   4.015
77875SOL    HW235465   4.649  11.081   3.994
77876SOL     OW35466   4.262   5.095   9.425
77876SOL    HW135467   4.182   5.042   9.429
77876SOL    HW235468   4.320   5.057   9.491
77877SOL     OW35469   7.372   2.348  10.711
77877SOL    HW135470   7.343   2.407  10.642
77877SOL    HW235471   7.464   2.331  10.691
77878SOL     OW35472   6.233   4.227   8.337
77878SOL    HW135473   6.188   4.281   8.273
77878SOL    HW235474   6.179   4.233   8.416
77879SOL     OW35475  14.141   4.837   8.901
77879SOL    HW135476  14.076   4.814   8.968
77879SOL    HW235477  14.159   4.930   8.917
77880SOL     OW35478   4.520   8.814   1.039
77880SOL    HW135479   4.615   8.824   1.046
77880SOL    HW235480   4.487   8.903   1.030
77881SOL     OW35481  14.604   0.686   1.668
77881SOL    HW135482  14.565   0.627   1.732
77881SOL    HW235483  14.622   0.630   1.592
77882SOL     OW35484   2.260  12.642   8.083
77882SOL    HW135485   2.178  12.657   8.035
77882SOL    HW235486   2.288  12.729   8.109
77883SOL     OW35487  11.456   5.958   2.780
77883SOL    HW135488  11.429   6.009   2.703
77883SOL    HW235489  11.390   5.889   2.788
77884SOL     OW35490   1.914  11.437  10.724
77884SOL    HW135491   1.860  11.381  10.780
77884SOL    HW235492   1.952  11.500  10.785
77885SOL     OW35493   2.777   2.240   4.589
77885SOL    HW135494   2.851   2.189   4.554
77885SOL    HW235495   2.699   2.196   4.554
77886SOL     OW35496  10.194   1.402  11.513
77886SOL    HW135497  10.156   1.489  11.526
77886SOL    HW235498  10.277   1.419  11.468
77887SOL     OW35499   6.350  10.232  11.916
77887SOL    HW135500   6.389  10.309  11.875
77887SOL    HW235501   6.321  10.263  12.002
77888SOL     OW35502   5.662  11.175   8.727
77888SOL    HW135503   5.686  11.264   8.700
77888SOL    HW235504   5.651  11.127   8.645
77889SOL     OW35505  13.584   5.250   0.745
77889SOL    HW135506  13.573   5.333   0.791
77889SOL    HW235507  13.530   5.258   0.667
77890SOL     OW35508   3.398   6.590   8.432
77890SOL    HW135509   3.396   6.669   8.377
77890SOL    HW235510   3.306   6.568   8.446
77891SOL     OW35511  13.848   7.881  11.795
77891SOL    HW135512  13.834   7.804  11.741
77891SOL    HW235513  13.766   7.931  11.786
77892SOL     OW35514  11.714  13.734   5.921
77892SOL    HW135515  11.660  13.656   5.903
77892SOL    HW235516  11.803  13.707   5.899
77893SOL     OW35517   0.571  14.114  14.769
77893SOL    HW135518   0.620  14.045  14.725
77893SOL    HW235519   0.622  14.193  14.754
77894SOL     OW35520  10.164   3.142   3.635
77894SOL    HW135521  10.154   3.061   3.686
77894SOL    HW235522  10.097   3.201   3.670
77895SOL     OW35523   1.127  14.183   8.825
77895SOL    HW135524   1.046  14.132   8.835
77895SOL    HW235525   1.110  14.241   8.752
77896SOL     OW35526   8.365  12.865   8.294
77896SOL    HW135527   8.408  12.848   8.211
77896SOL    HW235528   8.387  12.956   8.314
77897SOL     OW35529  10.914   5.589   7.126
77897SOL    HW135530  10.983   5.655   7.132
77897SOL    HW235531  10.843   5.624   7.181
77898SOL     OW35532   5.324   1.528   8.625
77898SOL    HW135533   5.370   1.601   8.668
77898SOL    HW235534   5.357   1.529   8.536
77899SOL     OW35535  10.478   7.969   7.872
77899SOL    HW135536  10.564   7.958   7.833
77899SOL    HW235537  10.469   7.895   7.933
77900SOL     OW35538   9.372   1.153   2.171
77900SOL    HW135539   9.441   1.191   2.225
77900SOL    HW235540   9.353   1.220   2.106
77901SOL     OW35541   3.562   8.497   4.454
77901SOL    HW135542   3.485   8.479   4.400
77901SOL    HW235543   3.632   8.517   4.391
77902SOL     OW35544  10.502   8.865   4.433
77902SOL    HW135545  10.497   8.813   4.513
77902SOL    HW235546  10.471   8.952   4.459
77903SOL     OW35547   0.458   2.837  14.527
77903SOL    HW135548   0.428   2.747  14.522
77903SOL    HW235549   0.405   2.884  14.462
77904SOL     OW35550   3.120  10.125  11.483
77904SOL    HW135551   3.153  10.150  11.569
77904SOL    HW235552   3.079  10.039  11.497
77905SOL     OW35553  11.230  14.240   1.583
77905SOL    HW135554  11.237  14.185   1.661
77905SOL    HW235555  11.313  14.287   1.579
77906SOL     OW35556   4.518   1.661   7.566
77906SOL    HW135557   4.578   1.638   7.637
77906SOL    HW235558   4.557   1.621   7.488
77907SOL     OW35559  13.277  13.194   1.323
77907SOL    HW135560  13.228  13.133   1.268
77907SOL    HW235561  13.274  13.277   1.275
77908SOL     OW35562  13.339  13.666   9.917
77908SOL    HW135563  13.392  13.728   9.967
77908SOL    HW235564  13.339  13.700   9.828
77909SOL     OW35565   4.985  12.843   2.149
77909SOL    HW135566   4.978  12.866   2.057
77909SOL    HW235567   5.023  12.921   2.190
77910SOL     OW35568   7.698  13.632   4.555
77910SOL    HW135569   7.619  13.625   4.609
77910SOL    HW235570   7.735  13.717   4.580
77911SOL     OW35571   8.398  10.308  12.185
77911SOL    HW135572   8.436  10.228  12.148
77911SOL    HW235573   8.323  10.277  12.236
77912SOL     OW35574   9.582  11.519   0.215
77912SOL    HW135575   9.515  11.568   0.263
77912SOL    HW235576   9.541  11.434   0.198
77913SOL     OW35577  14.335  13.932   4.657
77913SOL    HW135578  14.253  13.908   4.613
77913SOL    HW235579  14.313  14.010   4.707
77914SOL     OW35580   8.769   8.110   0.410
77914SOL    HW135581   8.743   8.099   0.318
77914SOL    HW235582   8.757   8.023   0.449
77915SOL     OW35583   1.875  14.491  11.137
77915SOL    HW135584   1.871  14.417  11.077
77915SOL    HW235585   1.815  14.556  11.101
77916SOL     OW35586   4.693   8.768  13.698
77916SOL    HW135587   4.610   8.744  13.739
77916SOL    HW235588   4.759   8.720  13.749
77917SOL     OW35589  14.488  12.699   0.406
77917SOL    HW135590  14.573  12.727   0.439
77917SOL    HW235591  14.500  12.695   0.311
77918SOL     OW35592   9.942  14.301  11.487
77918SOL    HW135593   9.950  14.337  11.575
77918SOL    HW235594   9.852  14.267  11.484
77919SOL     OW35595   0.781  14.311   3.416
77919SOL    HW135596   0.696  14.351   3.434
77919SOL    HW235597   0.795  14.251   3.489
77920SOL     OW35598   7.730  10.217   9.318
77920SOL    HW135599   7.672  10.256   9.383
77920SOL    HW235600   7.687  10.233   9.234
77921SOL     OW35601  11.820   0.876   7.178
77921SOL    HW135602  11.815   0.801   7.237
77921SOL    HW235603  11.906   0.868   7.136
77922SOL     OW35604   5.385  11.269  12.523
77922SOL    HW135605   5.415  11.291  12.611
77922SOL    HW235606   5.309  11.326  12.508
77923SOL     OW35607   4.692   8.148  13.365
77923SOL    HW135608   4.655   8.127  13.280
77923SOL    HW235609   4.670   8.241  13.378
77924SOL     OW35610  10.994   1.054   3.893
77924SOL    HW135611  11.083   1.020   3.907
77924SOL    HW235612  10.970   1.022   3.806
77925SOL     OW35613  12.782   3.506   0.906
77925SOL    HW135614  12.715   3.550   0.853
77925SOL    HW235615  12.822   3.444   0.846
77926SOL     OW35616   5.234  12.593   5.613
77926SOL    HW135617   5.260  12.684   5.621
77926SOL    HW235618   5.298  12.545   5.665
77927SOL     OW35619   3.709   8.615   7.271
77927SOL    HW135620   3.776   8.660   7.322
77927SOL    HW235621   3.756   8.544   7.226
77928SOL     OW35622   3.186   7.407   9.621
77928SOL    HW135623   3.177   7.495   9.583
77928SOL    HW235624   3.167   7.348   9.548
77929SOL     OW35625   6.258  12.366  13.161
77929SOL    HW135626   6.326  12.434  13.157
77929SOL    HW235627   6.176  12.413  13.154
77930SOL     OW35628   0.732   9.318   2.297
77930SOL    HW135629   0.806   9.305   2.356
77930SOL    HW235630   0.759   9.389   2.239
77931SOL     OW35631   3.299   9.642   5.010
77931SOL    HW135632   3.323   9.646   4.918
77931SOL    HW235633   3.285   9.734   5.035
77932SOL     OW35634  14.561   6.957   0.637
77932SOL    HW135635  14.555   6.862   0.631
77932SOL    HW235636  14.636   6.980   0.582
77933SOL     OW35637   5.388   0.384   8.431
77933SOL    HW135638   5.361   0.461   8.382
77933SOL    HW235639   5.439   0.332   8.369
77934SOL     OW35640   2.069   7.707  13.527
77934SOL    HW135641   2.118   7.786  13.507
77934SOL    HW235642   2.107   7.640  13.469
77935SOL     OW35643   4.443   4.992   4.538
77935SOL    HW135644   4.392   4.987   4.457
77935SOL    HW235645   4.381   5.023   4.604
77936SOL     OW35646   2.690  12.071   1.520
77936SOL    HW135647   2.696  12.108   1.432
77936SOL    HW235648   2.767  12.103   1.566
77937SOL     OW35649  10.365   0.716   0.299
77937SOL    HW135650  10.281   0.711   0.343
77937SOL    HW235651  10.427   0.738   0.369
77938SOL     OW35652  12.990   5.441   0.860
77938SOL    HW135653  13.034   5.412   0.940
77938SOL    HW235654  12.992   5.364   0.803
77939SOL     OW35655  12.179  13.103  10.837
77939SOL    HW135656  12.118  13.176  10.845
77939SOL    HW235657  12.256  13.140  10.794
77940SOL     OW35658   6.997  12.617   3.221
77940SOL    HW135659   6.989  12.659   3.136
77940SOL    HW235660   6.934  12.663   3.277
77941SOL     OW35661   5.533   8.000   1.731
77941SOL    HW135662   5.490   7.915   1.737
77941SOL    HW235663   5.601   7.996   1.799
77942SOL     OW35664   8.989  12.596   8.704
77942SOL    HW135665   8.967  12.557   8.619
77942SOL    HW235666   9.024  12.523   8.755
77943SOL     OW35667  13.500   7.702  11.211
77943SOL    HW135668  13.464   7.782  11.250
77943SOL    HW235669  13.514   7.643  11.286
77944SOL     OW35670  13.540   1.602   7.723
77944SOL    HW135671  13.601   1.673   7.746
77944SOL    HW235672  13.453   1.639   7.740
77945SOL     OW35673  11.579   1.836  12.309
77945SOL    HW135674  11.497   1.796  12.281
77945SOL    HW235675  11.606   1.786  12.386
77946SOL     OW35676   8.213   5.800  10.606
77946SOL    HW135677   8.193   5.862  10.536
77946SOL    HW235678   8.298   5.829  10.639
77947SOL     OW35679  14.216  11.428  13.931
77947SOL    HW135680  14.134  11.461  13.893
77947SOL    HW235681  14.282  11.490  13.901
77948SOL     OW35682   4.628   6.090   2.866
77948SOL    HW135683   4.595   6.177   2.888
77948SOL    HW235684   4.710   6.083   2.915
77949SOL     OW35685  11.870   5.314  14.493
77949SOL    HW135686  11.794   5.268  14.529
77949SOL    HW235687  11.865   5.296  14.399
77950SOL     OW35688   9.796   5.044  11.029
77950SOL    HW135689   9.864   5.111  11.042
77950SOL    HW235690   9.839   4.962  11.053
77951SOL     OW35691   1.870  14.577  12.944
77951SOL    HW135692   1.883  14.668  12.916
77951SOL    HW235693   1.906  14.573  13.032
77952SOL     OW35694  14.139  11.599  11.168
77952SOL    HW135695  14.223  11.560  11.189
77952SOL    HW235696  14.101  11.623  11.252
77953SOL     OW35697  12.261   4.260  12.893
77953SOL    HW135698  12.304   4.200  12.954
77953SOL    HW235699  12.300   4.239  12.808
77954SOL     OW35700   8.712   4.860   7.072
77954SOL    HW135701   8.678   4.948   7.058
77954SOL    HW235702   8.695   4.814   6.989
77955SOL     OW35703   2.706   8.505  10.916
77955SOL    HW135704   2.624   8.510  10.966
77955SOL    HW235705   2.701   8.421  10.871
77956SOL     OW35706   9.032  14.175  13.788
77956SOL    HW135707   9.077  14.250  13.748
77956SOL    HW235708   8.993  14.128  13.713
77957SOL     OW35709   9.597   6.622   3.078
77957SOL    HW135710   9.673   6.568   3.099
77957SOL    HW235711   9.621   6.709   3.108
77958SOL     OW35712   4.015  11.418  12.416
77958SOL    HW135713   4.059  11.354  12.360
77958SOL    HW235714   3.954  11.464  12.357
77959SOL     OW35715  12.053  14.415   0.451
77959SOL    HW135716  12.035  14.324   0.428
77959SOL    HW235717  12.021  14.424   0.541
77960SOL     OW35718   6.928   7.515   2.000
77960SOL    HW135719   6.913   7.526   1.907
77960SOL    HW235720   6.908   7.423   2.017
77961SOL     OW35721   5.558  12.620  13.815
77961SOL    HW135722   5.602  12.704  13.820
77961SOL    HW235723   5.472  12.635  13.855
77962SOL     OW35724   6.894   4.079   8.311
77962SOL    HW135725   6.863   4.099   8.399
77962SOL    HW235726   6.981   4.119   8.307
77963SOL     OW35727  14.732   1.636  12.321
77963SOL    HW135728  14.808   1.599  12.275
77963SOL    HW235729  14.768   1.664  12.405
77964SOL     OW35730   1.208   4.511  10.718
77964SOL    HW135731   1.174   4.596  10.748
77964SOL    HW235732   1.233   4.465  10.798
77965SOL     OW35733  13.941   9.847   4.973
77965SOL    HW135734  13.900   9.881   4.894
77965SOL    HW235735  13.935   9.752   4.963
77966SOL     OW35736  13.151   0.405   4.266
77966SOL    HW135737  13.115   0.432   4.350
77966SOL    HW235738  13.198   0.482   4.233
77967SOL     OW35739  14.618   1.176   1.845
77967SOL    HW135740  14.628   1.081   1.834
77967SOL    HW235741  14.590   1.186   1.936
77968SOL     OW35742   9.849   6.951   7.730
77968SOL    HW135743   9.927   6.938   7.676
77968SOL    HW235744   9.784   6.890   7.694
77969SOL     OW35745  13.221  12.667   3.465
77969SOL    HW135746  13.168  12.603   3.513
77969SOL    HW235747  13.190  12.752   3.497
77970SOL     OW35748  11.682  11.980   8.553
77970SOL    HW135749  11.774  11.954   8.550
77970SOL    HW235750  11.673  12.047   8.485
77971SOL     OW35751   0.418   8.643   5.501
77971SOL    HW135752   0.445   8.689   5.421
77971SOL    HW235753   0.493   8.586   5.522
77972SOL     OW35754  14.015   5.396   1.046
77972SOL    HW135755  14.044   5.342   0.972
77972SOL    HW235756  14.085   5.388   1.110
77973SOL     OW35757   8.929   0.025   6.494
77973SOL    HW135758   8.923  14.859   6.411
77973SOL    HW235759   9.019   0.010   6.523
77974SOL     OW35760  11.103   4.744  10.910
77974SOL    HW135761  11.111   4.718  11.002
77974SOL    HW235762  11.189   4.728  10.873
77975SOL     OW35763  11.914   1.867   7.044
77975SOL    HW135764  11.917   1.963   7.047
77975SOL    HW235765  11.911   1.840   7.135
77976SOL     OW35766   3.280  10.309   0.765
77976SOL    HW135767   3.220  10.368   0.811
77976SOL    HW235768   3.223  10.248   0.718
77977SOL     OW35769   3.201  12.895   3.785
77977SOL    HW135770   3.274  12.945   3.749
77977SOL    HW235771   3.191  12.820   3.726
77978SOL     OW35772   6.012  10.642   8.835
77978SOL    HW135773   5.973  10.686   8.759
77978SOL    HW235774   6.052  10.563   8.798
77979SOL     OW35775   7.622   3.633  13.210
77979SOL    HW135776   7.681   3.691  13.258
77979SOL    HW235777   7.605   3.680  13.128
77980SOL     OW35778   3.245  13.313   4.591
77980SOL    HW135779   3.215  13.270   4.511
77980SOL    HW235780   3.334  13.279   4.605
77981SOL     OW35781  12.540   2.763   8.593
77981SOL    HW135782  12.457   2.760   8.641
77981SOL    HW235783  12.544   2.680   8.546
77982SOL     OW35784   1.888  11.516   8.112
77982SOL    HW135785   1.854  11.461   8.041
77982SOL    HW235786   1.853  11.476   8.192
77983SOL     OW35787   6.460   1.101   0.158
77983SOL    HW135788   6.513   1.116   0.079
77983SOL    HW235789   6.428   1.188   0.182
77984SOL     OW35790   5.532   4.039  12.271
77984SOL    HW135791   5.506   4.100  12.201
77984SOL    HW235792   5.559   4.096  12.343
77985SOL     OW35793   3.125   6.994   3.517
77985SOL    HW135794   3.138   7.086   3.494
77985SOL    HW235795   3.192   6.947   3.468
77986SOL     OW35796   1.415  13.918  10.802
77986SOL    HW135797   1.395  13.844  10.745
77986SOL    HW235798   1.331  13.960  10.817
77987SOL     OW35799   1.309   5.603   3.735
77987SOL    HW135800   1.347   5.608   3.823
77987SOL    HW235801   1.308   5.509   3.715
77988SOL     OW35802   2.149  14.127   2.918
77988SOL    HW135803   2.093  14.097   2.989
77988SOL    HW235804   2.096  14.193   2.872
77989SOL     OW35805   6.248  12.789   9.898
77989SOL    HW135806   6.164  12.788   9.854
77989SOL    HW235807   6.282  12.700   9.888
77990SOL     OW35808   1.286   8.334   0.674
77990SOL    HW135809   1.266   8.321   0.767
77990SOL    HW235810   1.301   8.246   0.640
77991SOL     OW35811   6.174  13.822   4.039
77991SOL    HW135812   6.096  13.874   4.022
77991SOL    HW235813   6.220  13.818   3.956
77992SOL     OW35814  11.685   5.142   8.817
77992SOL    HW135815  11.765   5.189   8.795
77992SOL    HW235816  11.693   5.122   8.911
77993SOL     OW35817  11.741  10.162   3.444
77993SOL    HW135818  11.795  10.097   3.490
77993SOL    HW235819  11.782  10.246   3.465
77994SOL     OW35820   1.113   3.431   6.758
77994SOL    HW135821   1.093   3.341   6.734
77994SOL    HW235822   1.098   3.435   6.852
77995SOL     OW35823  14.270   3.627   8.622
77995SOL    HW135824  14.184   3.585   8.627
77995SOL    HW235825  14.298   3.634   8.713
77996SOL     OW35826   6.200   6.555  11.520
77996SOL    HW135827   6.217   6.504  11.441
77996SOL    HW235828   6.106   6.573  11.517
77997SOL     OW35829  12.181   6.658  13.566
77997SOL    HW135830  12.273   6.658  13.539
77997SOL    HW235831  12.172   6.738  13.617
77998SOL     OW35832  11.522   9.382   3.209
77998SOL    HW135833  11.498   9.290   3.219
77998SOL    HW235834  11.614   9.380   3.184
77999SOL     OW35835  11.920   8.817   8.698
77999SOL    HW135836  11.903   8.847   8.609
77999SOL    HW235837  11.839   8.774   8.725
78000SOL     OW35838   6.230   1.329   7.240
78000SOL    HW135839   6.312   1.351   7.286
78000SOL    HW235840   6.257   1.270   7.170
78001SOL     OW35841   8.736   9.511   4.258
78001SOL    HW135842   8.806   9.455   4.291
78001SOL    HW235843   8.662   9.493   4.316
78002SOL     OW35844   4.740  12.390  13.071
78002SOL    HW135845   4.820  12.338  13.080
78002SOL    HW235846   4.770  12.481  13.073
78003SOL     OW35847   3.669   2.271   8.583
78003SOL    HW135848   3.715   2.352   8.561
78003SOL    HW235849   3.713   2.203   8.531
78004SOL     OW35850   0.985  10.828   5.938
78004SOL    HW135851   1.066  10.778   5.948
78004SOL    HW235852   1.006  10.915   5.970
78005SOL     OW35853  12.385  10.470   5.802
78005SOL    HW135854  12.361  10.546   5.749
78005SOL    HW235855  12.474  10.449   5.776
78006SOL     OW35856  10.871   6.486   4.995
78006SOL    HW135857  10.808   6.451   4.932
78006SOL    HW235858  10.859   6.432   5.073
78007SOL     OW35859   6.528   0.990   9.569
78007SOL    HW135860   6.570   1.068   9.533
78007SOL    HW235861   6.451   1.023   9.616
78008SOL     OW35862   6.530   3.032   5.839
78008SOL    HW135863   6.555   3.035   5.931
78008SOL    HW235864   6.580   2.958   5.804
78009SOL     OW35865  10.680   3.294   2.013
78009SOL    HW135866  10.757   3.305   2.068
78009SOL    HW235867  10.690   3.206   1.977
78010SOL     OW35868   5.578  13.288   8.877
78010SOL    HW135869   5.544  13.273   8.789
78010SOL    HW235870   5.602  13.201   8.908
78011SOL     OW35871   4.891   0.208  10.551
78011SOL    HW135872   4.926   0.134  10.502
78011SOL    HW235873   4.925   0.196  10.640
78012SOL     OW35874   0.730   7.599   2.386
78012SOL    HW135875   0.806   7.655   2.369
78012SOL    HW235876   0.765   7.510   2.381
78013SOL     OW35877  10.846   2.581  10.607
78013SOL    HW135878  10.896   2.662  10.603
78013SOL    HW235879  10.786   2.585  10.532
78014SOL     OW35880   3.504   2.709   5.939
78014SOL    HW135881   3.515   2.785   5.996
78014SOL    HW235882   3.566   2.725   5.867
78015SOL     OW35883   3.615   9.462   0.795
78015SOL    HW135884   3.522   9.482   0.785
78015SOL    HW235885   3.625   9.375   0.758
78016SOL     OW35886  10.067   9.689   6.513
78016SOL    HW135887  10.025   9.752   6.455
78016SOL    HW235888  10.008   9.614   6.514
78017SOL     OW35889  10.850  11.361   1.808
78017SOL    HW135890  10.762  11.397   1.822
78017SOL    HW235891  10.841  11.306   1.730
78018SOL     OW35892   3.909  12.572   3.093
78018SOL    HW135893   3.866  12.502   3.044
78018SOL    HW235894   3.968  12.527   3.154
78019SOL     OW35895   2.908  10.026  10.751
78019SOL    HW135896   2.905  10.117  10.781
78019SOL    HW235897   2.972  10.027  10.680
78020SOL     OW35898   5.621   9.018  12.364
78020SOL    HW135899   5.616   9.105  12.324
78020SOL    HW235900   5.534   9.005  12.402
78021SOL     OW35901  14.325  13.698  10.360
78021SOL    HW135902  14.420  13.692  10.357
78021SOL    HW235903  14.295  13.633  10.296
78022SOL     OW35904  13.803   9.013   4.849
78022SOL    HW135905  13.782   8.972   4.765
78022SOL    HW235906  13.729   8.991   4.906
78023SOL     OW35907  14.333   2.675   7.555
78023SOL    HW135908  14.321   2.771   7.555
78023SOL    HW235909  14.427   2.663   7.557
78024SOL     OW35910   7.829  13.167   8.116
78024SOL    HW135911   7.923  13.177   8.099
78024SOL    HW235912   7.813  13.224   8.192
78025SOL     OW35913   5.877   0.930   2.165
78025SOL    HW135914   5.793   0.946   2.208
78025SOL    HW235915   5.889   1.004   2.106
78026SOL     OW35916   8.858   1.718   4.578
78026SOL    HW135917   8.810   1.796   4.605
78026SOL    HW235918   8.950   1.745   4.578
78027SOL     OW35919   3.408   7.404   7.726
78027SOL    HW135920   3.475   7.417   7.793
78027SOL    HW235921   3.397   7.491   7.686
78028SOL     OW35922   3.909   4.376  11.894
78028SOL    HW135923   3.981   4.323  11.928
78028SOL    HW235924   3.881   4.429  11.969
78029SOL     OW35925  12.991  10.377  11.852
78029SOL    HW135926  13.000  10.285  11.827
78029SOL    HW235927  12.908  10.404  11.812
78030SOL     OW35928  10.912  10.616   8.801
78030SOL    HW135929  10.852  10.679   8.761
78030SOL    HW235930  10.914  10.640   8.894
78031SOL     OW35931  11.145  14.225   0.186
78031SOL    HW135932  11.214  14.216   0.121
78031SOL    HW235933  11.084  14.154   0.167
78032SOL     OW35934   9.769   0.314  11.066
78032SOL    HW135935   9.808   0.233  11.098
78032SOL    HW235936   9.841   0.377  11.062
78033SOL     OW35937   0.628  10.137  11.709
78033SOL    HW135938   0.535  10.114  11.703
78033SOL    HW235939   0.629  10.218  11.759
78034SOL     OW35940  14.330  10.383   4.040
78034SOL    HW135941  14.386  10.379   3.963
78034SOL    HW235942  14.384  10.422   4.108
78035SOL     OW35943   6.796  10.087  12.710
78035SOL    HW135944   6.847  10.105  12.630
78035SOL    HW235945   6.862  10.078  12.778
78036SOL     OW35946  11.767   2.900  12.277
78036SOL    HW135947  11.772   2.818  12.228
78036SOL    HW235948  11.748   2.966  12.210
78037SOL     OW35949  10.176   6.184   4.931
78037SOL    HW135950  10.098   6.230   4.962
78037SOL    HW235951  10.247   6.220   4.983
78038SOL     OW35952   1.365   3.297  11.823
78038SOL    HW135953   1.454   3.314  11.853
78038SOL    HW235954   1.333   3.229  11.882
78039SOL     OW35955   5.650  10.758  14.628
78039SOL    HW135956   5.641  10.687  14.691
78039SOL    HW235957   5.736  10.796  14.645
78040SOL     OW35958   0.905  10.545   1.419
78040SOL    HW135959   0.922  10.617   1.479
78040SOL    HW235960   0.934  10.578   1.334
78041SOL     OW35961   2.292   0.555  12.113
78041SOL    HW135962   2.244   0.600  12.183
78041SOL    HW235963   2.362   0.509  12.159
78042SOL     OW35964   9.302   5.762   7.368
78042SOL    HW135965   9.278   5.730   7.281
78042SOL    HW235966   9.227   5.814   7.397
78043SOL     OW35967  10.585  10.605  11.791
78043SOL    HW135968  10.543  10.683  11.755
78043SOL    HW235969  10.669  10.599  11.745
78044SOL     OW35970  10.239  11.258  11.969
78044SOL    HW135971  10.164  11.265  11.910
78044SOL    HW235972  10.316  11.272  11.913
78045SOL     OW35973   1.948  13.671   1.590
78045SOL    HW135974   1.929  13.754   1.547
78045SOL    HW235975   1.861  13.633   1.608
78046SOL     OW35976   8.964   2.305   7.452
78046SOL    HW135977   8.961   2.386   7.503
78046SOL    HW235978   9.039   2.257   7.487
78047SOL     OW35979   1.267   8.357   9.504
78047SOL    HW135980   1.173   8.366   9.521
78047SOL    HW235981   1.273   8.281   9.446
78048SOL     OW35982   6.645   3.529  12.079
78048SOL    HW135983   6.733   3.568  12.085
78048SOL    HW235984   6.600   3.581  12.012
78049SOL     OW35985  12.455   0.537  12.452
78049SOL    HW135986  12.381   0.510  12.505
78049SOL    HW235987  12.480   0.459  12.403
78050SOL     OW35988  12.962   1.812   9.541
78050SOL    HW135989  13.031   1.873   9.514
78050SOL    HW235990  12.883   1.845   9.497
78051SOL     OW35991   3.324   4.328   7.265
78051SOL    HW135992   3.413   4.351   7.289
78051SOL    HW235993   3.333   4.253   7.207
78052SOL     OW35994  12.072  14.312  11.837
78052SOL    HW135995  12.100  14.395  11.875
78052SOL    HW235996  12.026  14.267  11.909
78053SOL     OW35997   3.794  14.366  13.478
78053SOL    HW135998   3.831  14.438  13.426
78053SOL    HW235999   3.767  14.408  13.560
78054SOL     OW36000   7.235  10.221  11.038
78054SOL    HW136001   7.196  10.306  11.019
78054SOL    HW236002   7.172  10.179  11.097
78055SOL     OW36003   0.587   8.794   1.573
78055SOL    HW136004   0.665   8.845   1.594
78055SOL    HW236005   0.520   8.860   1.557
78056SOL     OW36006   4.242  12.902   9.638
78056SOL    HW136007   4.156  12.860   9.636
78056SOL    HW236008   4.251  12.933   9.728
78057SOL     OW36009  13.467   7.210   6.372
78057SOL    HW136010  13.521   7.288   6.362
78057SOL    HW236011  13.377   7.244   6.380
78058SOL     OW36012   8.306   1.499  11.776
78058SOL    HW136013   8.257   1.574  11.742
78058SOL    HW236014   8.397   1.529  11.777
78059SOL     OW36015  13.529   6.056  10.417
78059SOL    HW136016  13.447   6.062  10.466
78059SOL    HW236017  13.504   6.072  10.326
78060SOL     OW36018   2.856   5.225   1.324
78060SOL    HW136019   2.787   5.285   1.296
78060SOL    HW236020   2.816   5.171   1.392
78061SOL     OW36021   7.957   7.080   8.693
78061SOL    HW136022   7.904   7.075   8.773
78061SOL    HW236023   8.036   7.128   8.720
78062SOL     OW36024   6.059  11.576   2.558
78062SOL    HW136025   6.123  11.525   2.508
78062SOL    HW236026   6.059  11.662   2.515
78063SOL     OW36027   2.682   0.097   7.718
78063SOL    HW136028   2.660   0.026   7.657
78063SOL    HW236029   2.665   0.061   7.804
78064SOL     OW36030   0.040  10.263   6.141
78064SOL    HW136031   0.031  10.278   6.047
78064SOL    HW236032   0.127  10.225   6.152
78065SOL     OW36033   7.764   3.544  10.321
78065SOL    HW136034   7.780   3.460  10.278
78065SOL    HW236035   7.727   3.600  10.253
78066SOL     OW36036  12.809   1.683  13.980
78066SOL    HW136037  12.877   1.684  13.913
78066SOL    HW236038  12.852   1.713  14.059
78067SOL     OW36039  10.614   0.854  11.317
78067SOL    HW136040  10.683   0.909  11.282
78067SOL    HW236041  10.629   0.853  11.412
78068SOL     OW36042   7.506   5.621  14.133
78068SOL    HW136043   7.489   5.639  14.040
78068SOL    HW236044   7.447   5.549  14.155
78069SOL     OW36045   3.083   3.208   0.328
78069SOL    HW136046   3.122   3.145   0.269
78069SOL    HW236047   3.088   3.166   0.414
78070SOL     OW36048   0.715  14.116   0.538
78070SOL    HW136049   0.646  14.057   0.571
78070SOL    HW236050   0.761  14.064   0.472
78071SOL     OW36051  12.457   2.643  12.693
78071SOL    HW136052  12.384   2.614  12.639
78071SOL    HW236053  12.450   2.592  12.773
78072SOL     OW36054   5.131   5.824  11.206
78072SOL    HW136055   5.048   5.777  11.213
78072SOL    HW236056   5.107   5.916  11.213
78073SOL     OW36057   9.971   7.019   7.089
78073SOL    HW136058   9.904   7.043   7.153
78073SOL    HW236059   9.927   7.027   7.004
78074SOL     OW36060   9.667   3.942  12.777
78074SOL    HW136061   9.663   3.960  12.870
78074SOL    HW236062   9.672   3.846  12.771
78075SOL     OW36063  14.558  14.583   2.220
78075SOL    HW136064  14.487  14.538   2.175
78075SOL    HW236065  14.553  14.674   2.189
78076SOL     OW36066   9.768  10.383   1.088
78076SOL    HW136067   9.688  10.397   1.138
78076SOL    HW236068   9.837  10.420   1.142
78077SOL     OW36069   7.087   6.079   8.235
78077SOL    HW136070   6.999   6.046   8.255
78077SOL    HW236071   7.139   6.000   8.223
78078SOL     OW36072  13.319  13.575  10.596
78078SOL    HW136073  13.409  13.593  10.570
78078SOL    HW236074  13.314  13.603  10.687
78079SOL     OW36075   2.717  10.917   5.720
78079SOL    HW136076   2.649  10.856   5.750
78079SOL    HW236077   2.796  10.887   5.764
78080SOL     OW36078   4.132   6.395  11.640
78080SOL    HW136079   4.189   6.417  11.715
78080SOL    HW236080   4.062   6.343  11.679
78081SOL     OW36081   0.912   7.092  12.969
78081SOL    HW136082   0.987   7.118  13.023
78081SOL    HW236083   0.869   7.023  13.020
78082SOL     OW36084   9.206   4.948   9.005
78082SOL    HW136085   9.146   4.946   8.931
78082SOL    HW236086   9.154   4.918   9.079
78083SOL     OW36087   5.764   3.341  14.451
78083SOL    HW136088   5.724   3.277  14.510
78083SOL    HW236089   5.694   3.404  14.433
78084SOL     OW36090   3.768  14.832   5.935
78084SOL    HW136091   3.767   0.015   6.008
78084SOL    HW236092   3.858  14.833   5.903
78085SOL     OW36093   7.714  10.062   1.654
78085SOL    HW136094   7.707  10.129   1.586
78085SOL    HW236095   7.797  10.017   1.635
78086SOL     OW36096   6.219   4.945  14.829
78086SOL    HW136097   6.150   4.912   0.007
78086SOL    HW236098   6.228   5.038  14.853
78087SOL     OW36099   9.600  10.756  10.175
78087SOL    HW136100   9.638  10.692  10.115
78087SOL    HW236101   9.552  10.817  10.118
78088SOL     OW36102  13.663   9.783   1.562
78088SOL    HW136103  13.630   9.745   1.643
78088SOL    HW236104  13.696   9.869   1.587
78089SOL     OW36105   7.905   1.595  13.239
78089SOL    HW136106   7.985   1.646  13.223
78089SOL    HW236107   7.936   1.508  13.263
78090SOL     OW36108  10.938   7.796   5.072
78090SOL    HW136109  10.852   7.792   5.030
78090SOL    HW236110  10.943   7.716   5.124
78091SOL     OW36111  10.202  13.042  13.304
78091SOL    HW136112  10.269  13.066  13.239
78091SOL    HW236113  10.119  13.071  13.264
78092SOL     OW36114   4.152   7.190   3.414
78092SOL    HW136115   4.167   7.146   3.498
78092SOL    HW236116   4.086   7.136   3.370
78093SOL     OW36117  13.010  12.900  10.549
78093SOL    HW136118  13.004  12.805  10.542
78093SOL    HW236119  13.058  12.914  10.632
78094SOL     OW36120  11.259  14.268   0.903
78094SOL    HW136121  11.220  14.183   0.922
78094SOL    HW236122  11.259  14.274   0.808
78095SOL     OW36123   2.773   3.838   0.817
78095SOL    HW136124   2.815   3.752   0.809
78095SOL    HW236125   2.776   3.856   0.911
78096SOL     OW36126  10.691   5.471  12.568
78096SOL    HW136127  10.598   5.451  12.559
78096SOL    HW236128  10.701   5.559  12.531
78097SOL     OW36129   2.653   0.229   1.846
78097SOL    HW136130   2.704   0.199   1.770
78097SOL    HW236131   2.686   0.176   1.919
78098SOL     OW36132   8.741  10.586   0.552
78098SOL    HW136133   8.670  10.596   0.489
78098SOL    HW236134   8.819  10.612   0.505
78099SOL     OW36135   7.570   2.616   2.466
78099SOL    HW136136   7.612   2.531   2.478
78099SOL    HW236137   7.498   2.599   2.405
78100SOL     OW36138   3.556   9.227  12.105
78100SOL    HW136139   3.632   9.217  12.162
78100SOL    HW236140   3.578   9.300  12.047
78101SOL     OW36141  13.893   0.544   8.472
78101SOL    HW136142  13.978   0.510   8.499
78101SOL    HW236143  13.830   0.499   8.528
78102SOL     OW36144   3.153   0.076   7.108
78102SOL    HW136145   3.089   0.014   7.073
78102SOL    HW236146   3.227   0.071   7.047
78103SOL     OW36147   1.682   0.004   4.456
78103SOL    HW136148   1.759   0.061   4.458
78103SOL    HW236149   1.717  14.795   4.458
78104SOL     OW36150   3.372   7.638   7.598
78104SOL    HW136151   3.450   7.687   7.575
78104SOL    HW236152   3.300   7.698   7.580
78105SOL     OW36153   4.650  13.765   7.561
78105SOL    HW136154   4.567  13.810   7.576
78105SOL    HW236155   4.669  13.722   7.644
78106SOL     OW36156   3.564   0.240  11.333
78106SOL    HW136157   3.592   0.317  11.284
78106SOL    HW236158   3.471   0.254  11.350
78107SOL     OW36159  12.575   3.834   5.360
78107SOL    HW136160  12.624   3.884   5.426
78107SOL    HW236161  12.486   3.832   5.394
78108SOL     OW36162   5.791  13.345  13.433
78108SOL    HW136163   5.711  13.363  13.482
78108SOL    HW236164   5.859  13.392  13.480
78109SOL     OW36165  12.090   4.257  10.322
78109SOL    HW136166  12.139   4.175  10.318
78109SOL    HW236167  12.006   4.237  10.281
78110SOL     OW36168  11.650   4.842   5.633
78110SOL    HW136169  11.601   4.856   5.552
78110SOL    HW236170  11.669   4.748   5.633
78111SOL     OW36171   1.105  13.514   1.831
78111SOL    HW136172   1.116  13.422   1.810
78111SOL    HW236173   1.107  13.518   1.927
78112SOL     OW36174  14.830   5.505   4.323
78112SOL    HW136175  14.857   5.594   4.347
78112SOL    HW236176  14.753   5.517   4.268
78113SOL     OW36177  11.854  11.018  10.791
78113SOL    HW136178  11.781  10.956  10.794
78113SOL    HW236179  11.929  10.965  10.762
78114SOL     OW36180   8.369  12.613  13.303
78114SOL    HW136181   8.321  12.661  13.235
78114SOL    HW236182   8.453  12.591  13.262
78115SOL     OW36183   3.464  12.224   7.905
78115SOL    HW136184   3.465  12.130   7.886
78115SOL    HW236185   3.467  12.229   8.000
78116SOL     OW36186  11.189   0.368  11.890
78116SOL    HW136187  11.249   0.324  11.831
78116SOL    HW236188  11.106   0.320  11.881
78117SOL     OW36189   5.141   6.641   8.609
78117SOL    HW136190   5.055   6.607   8.581
78117SOL    HW236191   5.202   6.569   8.592
78118SOL     OW36192   4.848  12.539   1.543
78118SOL    HW136193   4.882  12.595   1.473
78118SOL    HW236194   4.897  12.458   1.534
78119SOL     OW36195   6.704  12.210   3.369
78119SOL    HW136196   6.787  12.169   3.392
78119SOL    HW236197   6.727  12.273   3.300
78120SOL     OW36198  12.248   4.608  12.745
78120SOL    HW136199  12.248   4.643  12.656
78120SOL    HW236200  12.217   4.680  12.799
78121SOL     OW36201   0.477   3.028   1.223
78121SOL    HW136202   0.455   2.937   1.244
78121SOL    HW236203   0.524   3.060   1.300
78122SOL     OW36204  10.735  10.851   8.032
78122SOL    HW136205  10.782  10.826   8.112
78122SOL    HW236206  10.747  10.775   7.974
78123SOL     OW36207   0.022  12.502  11.667
78123SOL    HW136208  14.871  12.512  11.577
78123SOL    HW236209  14.833  12.450  11.709
78124SOL     OW36210   6.630  11.698  12.889
78124SOL    HW136211   6.568  11.641  12.933
78124SOL    HW236212   6.596  11.787  12.903
78125SOL     OW36213   8.562  14.359   4.704
78125SOL    HW136214   8.621  14.414   4.652
78125SOL    HW236215   8.490  14.418   4.728
78126SOL     OW36216   9.877   5.083   2.049
78126SOL    HW136217   9.872   5.048   1.960
78126SOL    HW236218   9.817   5.029   2.100
78127SOL     OW36219   8.357  11.401   7.831
78127SOL    HW136220   8.284  11.345   7.807
78127SOL    HW236221   8.358  11.469   7.764
78128SOL     OW36222   4.162  14.213  11.629
78128SOL    HW136223   4.191  14.133  11.584
78128SOL    HW236224   4.073  14.193  11.657
78129SOL     OW36225  12.568  11.088   3.069
78129SOL    HW136226  12.628  11.154   3.034
78129SOL    HW236227  12.623  11.011   3.082
78130SOL     OW36228   9.465   1.744   5.197
78130SOL    HW136229   9.553   1.768   5.228
78130SOL    HW236230   9.426   1.696   5.270
78131SOL     OW36231   7.131   8.238  12.612
78131SOL    HW136232   7.110   8.185  12.535
78131SOL    HW236233   7.064   8.214  12.676
78132SOL     OW36234   5.553  14.605   3.046
78132SOL    HW136235   5.547  14.581   2.954
78132SOL    HW236236   5.515  14.531   3.093
78133SOL     OW36237   1.809   3.450   2.854
78133SOL    HW136238   1.753   3.403   2.914
78133SOL    HW236239   1.819   3.391   2.779
78134SOL     OW36240   2.008   5.960   7.668
78134SOL    HW136241   1.949   5.995   7.735
78134SOL    HW236242   2.089   5.941   7.715
78135SOL     OW36243   1.869  13.098   9.762
78135SOL    HW136244   1.810  13.167   9.732
78135SOL    HW236245   1.892  13.050   9.682
78136SOL     OW36246  10.503   4.703   4.380
78136SOL    HW136247  10.522   4.612   4.398
78136SOL    HW236248  10.448   4.701   4.301
78137SOL     OW36249   3.776   2.096  14.157
78137SOL    HW136250   3.841   2.162  14.130
78137SOL    HW236251   3.810   2.064  14.241
78138SOL     OW36252  12.481   4.783  10.278
78138SOL    HW136253  12.453   4.691  10.280
78138SOL    HW236254  12.439   4.822  10.355
78139SOL     OW36255  14.309   0.448   4.736
78139SOL    HW136256  14.297   0.365   4.691
78139SOL    HW236257  14.275   0.514   4.675
78140SOL     OW36258   2.445   6.649   7.258
78140SOL    HW136259   2.536   6.642   7.229
78140SOL    HW236260   2.422   6.741   7.242
78141SOL     OW36261   4.739   0.274   5.380
78141SOL    HW136262   4.754   0.191   5.425
78141SOL    HW236263   4.767   0.259   5.290
78142SOL     OW36264   8.607   8.936   3.780
78142SOL    HW136265   8.690   8.941   3.829
78142SOL    HW236266   8.541   8.917   3.847
78143SOL     OW36267   2.726  11.866   6.002
78143SOL    HW136268   2.632  11.849   6.014
78143SOL    HW236269   2.768  11.788   6.038
78144SOL     OW36270  12.377  14.728  14.680
78144SOL    HW136271  12.313  14.745  14.749
78144SOL    HW236272  12.422  14.648  14.708
78145SOL     OW36273   1.969   6.959   2.193
78145SOL    HW136274   2.024   6.883   2.214
78145SOL    HW236275   1.952   6.951   2.099
78146SOL     OW36276   6.042   3.387  11.307
78146SOL    HW136277   6.053   3.355  11.217
78146SOL    HW236278   6.026   3.308  11.358
78147SOL     OW36279   2.324   6.215   7.985
78147SOL    HW136280   2.315   6.124   8.013
78147SOL    HW236281   2.251   6.260   8.028
78148SOL     OW36282   7.472   8.035   4.795
78148SOL    HW136283   7.483   7.946   4.762
78148SOL    HW236284   7.391   8.066   4.754
78149SOL     OW36285  13.896   6.852   6.280
78149SOL    HW136286  13.918   6.945   6.281
78149SOL    HW236287  13.817   6.845   6.333
78150SOL     OW36288   5.261  13.615   9.236
78150SOL    HW136289   5.263  13.707   9.210
78150SOL    HW236290   5.350  13.584   9.219
78151SOL     OW36291   6.942  14.227   1.147
78151SOL    HW136292   6.982  14.201   1.064
78151SOL    HW236293   6.889  14.304   1.125
78152SOL     OW36294  14.111   1.261   2.523
78152SOL    HW136295  14.194   1.268   2.476
78152SOL    HW236296  14.097   1.347   2.562
78153SOL     OW36297   2.788   5.125   5.308
78153SOL    HW136298   2.700   5.087   5.319
78153SOL    HW236299   2.799   5.181   5.385
78154SOL     OW36300   5.045   0.393   6.716
78154SOL    HW136301   5.133   0.413   6.684
78154SOL    HW236302   5.012   0.477   6.747
78155SOL     OW36303   7.525  12.070   6.231
78155SOL    HW136304   7.464  12.139   6.205
78155SOL    HW236305   7.605  12.090   6.183
78156SOL     OW36306  11.136   9.458   3.833
78156SOL    HW136307  11.076   9.396   3.791
78156SOL    HW236308  11.095   9.543   3.822
78157SOL     OW36309   7.917   6.106   4.517
78157SOL    HW136310   8.010   6.123   4.506
78157SOL    HW236311   7.883   6.098   4.428
78158SOL     OW36312   9.558   4.649   0.818
78158SOL    HW136313   9.559   4.557   0.846
78158SOL    HW236314   9.594   4.648   0.730
78159SOL     OW36315  13.216  11.315  12.352
78159SOL    HW136316  13.145  11.293  12.413
78159SOL    HW236317  13.195  11.403  12.322
78160SOL     OW36318  12.228   5.823   1.630
78160SOL    HW136319  12.268   5.878   1.562
78160SOL    HW236320  12.221   5.736   1.590
78161SOL     OW36321   6.894  14.069   6.393
78161SOL    HW136322   6.910  13.992   6.338
78161SOL    HW236323   6.921  14.043   6.480
78162SOL     OW36324   4.840  11.437   0.351
78162SOL    HW136325   4.807  11.417   0.438
78162SOL    HW236326   4.842  11.352   0.306
78163SOL     OW36327  14.261   7.338   4.263
78163SOL    HW136328  14.272   7.374   4.351
78163SOL    HW236329  14.255   7.243   4.277
78164SOL     OW36330  12.297   8.658  13.661
78164SOL    HW136331  12.217   8.708  13.644
78164SOL    HW236332  12.324   8.686  13.749
78165SOL     OW36333   8.107  14.670   4.527
78165SOL    HW136334   8.084  14.730   4.456
78165SOL    HW236335   8.056  14.591   4.511
78166SOL     OW36336  11.817  12.785   5.689
78166SOL    HW136337  11.729  12.818   5.667
78166SOL    HW236338  11.857  12.768   5.603
78167SOL     OW36339   1.650   1.443   6.397
78167SOL    HW136340   1.600   1.365   6.375
78167SOL    HW236341   1.683   1.426   6.486
78168SOL     OW36342  14.642   9.357   8.709
78168SOL    HW136343  14.592   9.306   8.773
78168SOL    HW236344  14.671   9.292   8.644
78169SOL     OW36345   2.404   0.255  13.575
78169SOL    HW136346   2.309   0.248  13.561
78169SOL    HW236347   2.443   0.224  13.494
78170SOL     OW36348   3.981  10.987  13.252
78170SOL    HW136349   3.955  11.045  13.180
78170SOL    HW236350   3.914  11.000  13.319
78171SOL     OW36351  14.739   1.304   4.089
78171SOL    HW136352  14.700   1.330   4.173
78171SOL    HW236353  14.723   1.210   4.084
78172SOL     OW36354   7.993   7.927   0.885
78172SOL    HW136355   8.075   7.974   0.900
78172SOL    HW236356   8.014   7.860   0.820
78173SOL     OW36357   2.811  11.448  12.104
78173SOL    HW136358   2.837  11.483  12.018
78173SOL    HW236359   2.765  11.520  12.146
78174SOL     OW36360   5.353   8.518   3.871
78174SOL    HW136361   5.295   8.483   3.803
78174SOL    HW236362   5.402   8.588   3.827
78175SOL     OW36363   9.139  12.212  11.381
78175SOL    HW136364   9.200  12.258  11.438
78175SOL    HW236365   9.151  12.120  11.402
78176SOL     OW36366  14.307  13.785   7.091
78176SOL    HW136367  14.255  13.715   7.130
78176SOL    HW236368  14.257  13.812   7.014
78177SOL     OW36369   1.481  10.501  10.749
78177SOL    HW136370   1.455  10.509  10.658
78177SOL    HW236371   1.577  10.493  10.746
78178SOL     OW36372   2.246  10.549   8.577
78178SOL    HW136373   2.152  10.552   8.593
78178SOL    HW236374   2.254  10.544   8.482
78179SOL     OW36375  12.867  10.093   7.490
78179SOL    HW136376  12.901  10.059   7.407
78179SOL    HW236377  12.902  10.182   7.495
78180SOL     OW36378   5.184  10.974   3.522
78180SOL    HW136379   5.198  10.930   3.438
78180SOL    HW236380   5.093  11.002   3.520
78181SOL     OW36381  14.552  12.220  14.384
78181SOL    HW136382  14.595  12.157  14.442
78181SOL    HW236383  14.519  12.167  14.312
78182SOL     OW36384   6.683   1.757   7.833
78182SOL    HW136385   6.729   1.730   7.913
78182SOL    HW236386   6.654   1.846   7.852
78183SOL     OW36387   3.266   9.400   2.341
78183SOL    HW136388   3.296   9.315   2.375
78183SOL    HW236389   3.345   9.445   2.313
78184SOL     OW36390   1.355  13.333   7.099
78184SOL    HW136391   1.309  13.289   7.170
78184SOL    HW236392   1.335  13.426   7.110
78185SOL     OW36393  11.414   9.055  10.199
78185SOL    HW136394  11.452   9.038  10.285
78185SOL    HW236395  11.349   8.986  10.187
78186SOL     OW36396   0.518   8.881   6.303
78186SOL    HW136397   0.432   8.897   6.264
78186SOL    HW236398   0.579   8.929   6.248
78187SOL     OW36399  13.056   9.650   8.229
78187SOL    HW136400  13.113   9.683   8.160
78187SOL    HW236401  12.969   9.684   8.207
78188SOL     OW36402   7.612   4.600   9.191
78188SOL    HW136403   7.667   4.661   9.241
78188SOL    HW236404   7.673   4.532   9.161
78189SOL     OW36405   9.426   8.282   7.867
78189SOL    HW136406   9.436   8.374   7.843
78189SOL    HW236407   9.331   8.268   7.869
78190SOL     OW36408   5.616  13.333   9.517
78190SOL    HW136409   5.660  13.377   9.590
78190SOL    HW236410   5.630  13.239   9.534
78191SOL     OW36411  14.033   5.374   4.381
78191SOL    HW136412  13.960   5.334   4.428
78191SOL    HW236413  14.090   5.300   4.358
78192SOL     OW36414   8.762   5.178   0.642
78192SOL    HW136415   8.772   5.246   0.708
78192SOL    HW236416   8.847   5.135   0.638
78193SOL     OW36417   1.670   7.861   3.409
78193SOL    HW136418   1.581   7.895   3.400
78193SOL    HW236419   1.677   7.834   3.500
78194SOL     OW36420   8.054   7.373  12.156
78194SOL    HW136421   8.102   7.456  12.160
78194SOL    HW236422   8.031   7.363  12.063
78195SOL     OW36423   7.148  12.194   6.039
78195SOL    HW136424   7.146  12.098   6.044
78195SOL    HW236425   7.063  12.217   6.002
78196SOL     OW36426   4.852   7.930   5.567
78196SOL    HW136427   4.945   7.926   5.545
78196SOL    HW236428   4.826   8.019   5.543
78197SOL     OW36429   6.243   1.246  14.004
78197SOL    HW136430   6.248   1.163  14.051
78197SOL    HW236431   6.312   1.240  13.937
78198SOL     OW36432   0.053  11.890  14.707
78198SOL    HW136433  14.864  11.847  14.757
78198SOL    HW236434   0.032  11.870  14.615
78199SOL     OW36435   9.181   1.314   9.870
78199SOL    HW136436   9.227   1.351   9.795
78199SOL    HW236437   9.111   1.261   9.832
78200SOL     OW36438  10.595   3.646   3.246
78200SOL    HW136439  10.635   3.591   3.178
78200SOL    HW236440  10.561   3.583   3.310
78201SOL     OW36441   3.643   5.924  12.866
78201SOL    HW136442   3.726   5.963  12.837
78201SOL    HW236443   3.586   5.999  12.885
78202SOL     OW36444   9.726   5.282  13.363
78202SOL    HW136445   9.781   5.205  13.343
78202SOL    HW236446   9.646   5.245  13.401
78203SOL     OW36447  14.044   8.655   4.746
78203SOL    HW136448  14.129   8.652   4.704
78203SOL    HW236449  13.990   8.592   4.698
78204SOL     OW36450   1.116   2.314  11.415
78204SOL    HW136451   1.205   2.320  11.381
78204SOL    HW236452   1.080   2.235  11.375
78205SOL     OW36453   4.374  11.724   1.420
78205SOL    HW136454   4.366  11.723   1.516
78205SOL    HW236455   4.467  11.708   1.403
78206SOL     OW36456  11.103   6.300   7.635
78206SOL    HW136457  11.197   6.316   7.641
78206SOL    HW236458  11.080   6.330   7.547
78207SOL     OW36459   1.392   0.145   1.767
78207SOL    HW136460   1.309   0.160   1.721
78207SOL    HW236461   1.451   0.113   1.699
78208SOL     OW36462  14.197  12.291   1.089
78208SOL    HW136463  14.142  12.214   1.106
78208SOL    HW236464  14.188  12.345   1.167
78209SOL     OW36465   6.297   1.493   3.371
78209SOL    HW136466   6.303   1.533   3.284
78209SOL    HW236467   6.233   1.423   3.361
78210SOL     OW36468   1.858   5.807  10.996
78210SOL    HW136469   1.931   5.751  10.970
78210SOL    HW236470   1.870   5.887  10.944
78211SOL     OW36471   3.536  12.786   1.445
78211SOL    HW136472   3.480  12.819   1.374
78211SOL    HW236473   3.476  12.743   1.505
78212SOL     OW36474   2.804  14.079   7.593
78212SOL    HW136475   2.740  14.018   7.631
78212SOL    HW236476   2.875  14.081   7.657
78213SOL     OW36477   2.569  10.803  10.474
78213SOL    HW136478   2.488  10.771  10.434
78213SOL    HW236479   2.591  10.881  10.424
78214SOL     OW36480   0.945  12.195   5.449
78214SOL    HW136481   0.964  12.252   5.523
78214SOL    HW236482   1.017  12.212   5.387
78215SOL     OW36483   5.227  11.202   9.634
78215SOL    HW136484   5.224  11.270   9.567
78215SOL    HW236485   5.243  11.121   9.585
78216SOL     OW36486   3.986  13.263  12.816
78216SOL    HW136487   3.908  13.214  12.841
78216SOL    HW236488   4.057  13.199  12.819
78217SOL     OW36489   0.913   1.924  10.281
78217SOL    HW136490   0.901   1.997  10.220
78217SOL    HW236491   0.979   1.955  10.342
78218SOL     OW36492   3.858  13.679   4.130
78218SOL    HW136493   3.798  13.619   4.176
78218SOL    HW236494   3.938  13.628   4.117
78219SOL     OW36495   0.227   7.179   0.676
78219SOL    HW136496   0.296   7.208   0.616
78219SOL    HW236497   0.262   7.199   0.763
78220SOL     OW36498   9.529  12.213   7.292
78220SOL    HW136499   9.497  12.212   7.382
78220SOL    HW236500   9.559  12.124   7.276
78221SOL     OW36501   7.669  10.194   9.867
78221SOL    HW136502   7.700  10.264   9.925
78221SOL    HW236503   7.688  10.113   9.914
78222SOL     OW36504   6.234   4.834  12.949
78222SOL    HW136505   6.161   4.830  13.010
78222SOL    HW236506   6.256   4.742  12.932
78223SOL     OW36507  14.554  12.158   5.464
78223SOL    HW136508  14.471  12.204   5.476
78223SOL    HW236509  14.600  12.170   5.548
78224SOL     OW36510  10.396   9.739   5.857
78224SOL    HW136511  10.484   9.743   5.818
78224SOL    HW236512  10.346   9.805   5.809
78225SOL     OW36513  10.708   2.771   1.790
78225SOL    HW136514  10.702   2.822   1.710
78225SOL    HW236515  10.717   2.680   1.761
78226SOL     OW36516  12.982   3.356  10.783
78226SOL    HW136517  12.890   3.381  10.795
78226SOL    HW236518  12.979   3.269  10.744
78227SOL     OW36519   6.392   2.339   5.459
78227SOL    HW136520   6.463   2.283   5.428
78227SOL    HW236521   6.394   2.415   5.400
78228SOL     OW36522   9.779   9.097  12.758
78228SOL    HW136523   9.726   9.176  12.743
78228SOL    HW236524   9.717   9.025  12.750
78229SOL     OW36525   3.357   1.799  10.509
78229SOL    HW136526   3.332   1.727  10.451
78229SOL    HW236527   3.279   1.815  10.562
78230SOL     OW36528   4.911  11.146   1.599
78230SOL    HW136529   4.948  11.200   1.530
78230SOL    HW236530   4.944  11.058   1.582
78231SOL     OW36531   7.001   5.961   1.107
78231SOL    HW136532   6.948   5.884   1.128
78231SOL    HW236533   6.970   6.029   1.167
78232SOL     OW36534  10.691   8.202   7.339
78232SOL    HW136535  10.658   8.166   7.257
78232SOL    HW236536  10.622   8.185   7.403
78233SOL     OW36537   5.178  13.222   9.384
78233SOL    HW136538   5.152  13.130   9.394
78233SOL    HW236539   5.145  13.265   9.463
78234SOL     OW36540   0.833   3.589   4.326
78234SOL    HW136541   0.858   3.506   4.367
78234SOL    HW236542   0.747   3.608   4.362
78235SOL     OW36543   5.770  13.416   0.480
78235SOL    HW136544   5.736  13.491   0.529
78235SOL    HW236545   5.705  13.348   0.492
78236SOL     OW36546  14.578   7.884   2.267
78236SOL    HW136547  14.609   7.802   2.307
78236SOL    HW236548  14.568   7.862   2.174
78237SOL     OW36549   8.934   7.497  13.650
78237SOL    HW136550   8.956   7.453  13.732
78237SOL    HW236551   8.932   7.590  13.672
78238SOL     OW36552   7.521   9.872  14.340
78238SOL    HW136553   7.513   9.866  14.244
78238SOL    HW236554   7.613   9.852  14.357
78239SOL     OW36555   3.276   5.823  13.515
78239SOL    HW136556   3.264   5.836  13.421
78239SOL    HW236557   3.349   5.880  13.537
78240SOL     OW36558  14.769  13.619   5.406
78240SOL    HW136559  14.753  13.603   5.499
78240SOL    HW236560  14.857  13.584   5.390
78241SOL     OW36561   3.587   7.337   3.329
78241SOL    HW136562   3.597   7.378   3.415
78241SOL    HW236563   3.676   7.331   3.294
78242SOL     OW36564   1.662   7.655   3.686
78242SOL    HW136565   1.612   7.600   3.627
78242SOL    HW236566   1.753   7.626   3.676
78243SOL     OW36567   1.595  10.540   9.317
78243SOL    HW136568   1.583  10.589   9.398
78243SOL    HW236569   1.598  10.608   9.249
78244SOL     OW36570   1.944  10.818   4.879
78244SOL    HW136571   1.876  10.843   4.941
78244SOL    HW236572   2.017  10.877   4.897
78245SOL     OW36573   0.497   4.497   8.552
78245SOL    HW136574   0.546   4.544   8.484
78245SOL    HW236575   0.550   4.420   8.572
78246SOL     OW36576  14.258   0.397   6.482
78246SOL    HW136577  14.165   0.376   6.495
78246SOL    HW236578  14.257   0.484   6.442
78247SOL     OW36579  13.327   8.701  13.852
78247SOL    HW136580  13.289   8.641  13.917
78247SOL    HW236581  13.419   8.710  13.879
78248SOL     OW36582   9.399   8.598   0.098
78248SOL    HW136583   9.493   8.596   0.115
78248SOL    HW236584   9.358   8.579   0.182
78249SOL     OW36585  14.222   9.664   7.462
78249SOL    HW136586  14.286   9.636   7.527
78249SOL    HW236587  14.138   9.632   7.496
78250SOL     OW36588   5.044   1.504  12.390
78250SOL    HW136589   5.083   1.421  12.417
78250SOL    HW236590   5.055   1.506  12.295
78251SOL     OW36591  14.767  11.320  11.957
78251SOL    HW136592  14.696  11.357  12.010
78251SOL    HW236593  14.740  11.336  11.867
78252SOL     OW36594   2.816   3.124   8.327
78252SOL    HW136595   2.861   3.106   8.409
78252SOL    HW236596   2.763   3.202   8.345
78253SOL     OW36597  14.500  10.278   9.612
78253SOL    HW136598  14.466  10.305   9.697
78253SOL    HW236599  14.488  10.183   9.610
78254SOL     OW36600   6.525   3.586   6.896
78254SOL    HW136601   6.535   3.681   6.896
78254SOL    HW236602   6.554   3.559   6.983
78255SOL     OW36603   5.065  12.023  14.631
78255SOL    HW136604   5.017  11.959  14.578
78255SOL    HW236605   5.047  12.107  14.589
78256SOL     OW36606  10.501   3.041   6.101
78256SOL    HW136607  10.469   3.104   6.036
78256SOL    HW236608  10.431   3.036   6.166
78257SOL     OW36609   5.523   3.358   2.913
78257SOL    HW136610   5.518   3.302   2.835
78257SOL    HW236611   5.448   3.417   2.904
78258SOL     OW36612   0.117   5.311  14.592
78258SOL    HW136613   0.050   5.365  14.635
78258SOL    HW236614   0.117   5.229  14.642
78259SOL     OW36615  14.611   4.160   5.165
78259SOL    HW136616  14.703   4.184   5.173
78259SOL    HW236617  14.606   4.072   5.202
78260SOL     OW36618   4.875   9.370  12.896
78260SOL    HW136619   4.807   9.360  12.962
78260SOL    HW236620   4.918   9.284  12.893
78261SOL     OW36621  14.513  11.150  12.157
78261SOL    HW136622  14.565  11.150  12.237
78261SOL    HW236623  14.448  11.219  12.171
78262SOL     OW36624   0.121   3.446   1.128
78262SOL    HW136625   0.072   3.528   1.119
78262SOL    HW236626   0.200   3.469   1.177
78263SOL     OW36627   8.900   3.825   6.335
78263SOL    HW136628   8.959   3.901   6.341
78263SOL    HW236629   8.817   3.857   6.372
78264SOL     OW36630   7.728   9.426  11.694
78264SOL    HW136631   7.669   9.444  11.620
78264SOL    HW236632   7.691   9.476  11.767
78265SOL     OW36633   1.920  11.587  10.965
78265SOL    HW136634   1.914  11.681  10.950
78265SOL    HW236635   2.013  11.572  10.986
78266SOL     OW36636   7.482  11.832  13.969
78266SOL    HW136637   7.428  11.766  14.012
78266SOL    HW236638   7.542  11.780  13.915
78267SOL     OW36639  13.697   3.095   0.763
78267SOL    HW136640  13.740   3.156   0.823
78267SOL    HW236641  13.769   3.055   0.714
78268SOL     OW36642  14.253   6.179   2.872
78268SOL    HW136643  14.168   6.213   2.843
78268SOL    HW236644  14.314   6.203   2.802
78269SOL     OW36645   1.694   3.102   2.104
78269SOL    HW136646   1.690   3.141   2.191
78269SOL    HW236647   1.762   3.034   2.112
78270SOL     OW36648   6.347   4.738   9.198
78270SOL    HW136649   6.335   4.740   9.293
78270SOL    HW236650   6.401   4.816   9.180
78271SOL     OW36651  11.783   8.680   3.151
78271SOL    HW136652  11.807   8.686   3.243
78271SOL    HW236653  11.861   8.644   3.108
78272SOL     OW36654   8.469  10.668  14.235
78272SOL    HW136655   8.560  10.696  14.221
78272SOL    HW236656   8.452  10.690  14.327
78273SOL     OW36657   2.471   7.730   1.051
78273SOL    HW136658   2.421   7.658   1.089
78273SOL    HW236659   2.533   7.687   0.993
78274SOL     OW36660   6.192   2.788   9.782
78274SOL    HW136661   6.123   2.768   9.845
78274SOL    HW236662   6.244   2.707   9.776
78275SOL     OW36663  13.239   5.777   5.145
78275SOL    HW136664  13.162   5.811   5.099
78275SOL    HW236665  13.300   5.851   5.149
78276SOL     OW36666   6.481   4.575  12.793
78276SOL    HW136667   6.550   4.511  12.808
78276SOL    HW236668   6.434   4.543  12.716
78277SOL     OW36669   4.779  10.889   7.601
78277SOL    HW136670   4.847  10.859   7.541
78277SOL    HW236671   4.721  10.942   7.547
78278SOL     OW36672   6.839   5.891   4.812
78278SOL    HW136673   6.807   5.801   4.807
78278SOL    HW236674   6.762   5.945   4.795
78279SOL     OW36675   1.354   6.069  11.154
78279SOL    HW136676   1.303   6.059  11.234
78279SOL    HW236677   1.323   5.998  11.097
78280SOL     OW36678   3.834   5.718   4.581
78280SOL    HW136679   3.828   5.635   4.535
78280SOL    HW236680   3.925   5.747   4.566
78281SOL     OW36681   6.124   4.051  13.081
78281SOL    HW136682   6.192   4.112  13.054
78281SOL    HW236683   6.048   4.106  13.099
78282SOL     OW36684  11.449  11.288  14.475
78282SOL    HW136685  11.446  11.194  14.458
78282SOL    HW236686  11.443  11.328  14.388
78283SOL     OW36687   5.521   9.512  13.440
78283SOL    HW136688   5.447   9.561  13.403
78283SOL    HW236689   5.559   9.572  13.504
78284SOL     OW36690   3.534  10.875   3.396
78284SOL    HW136691   3.558  10.903   3.308
78284SOL    HW236692   3.454  10.823   3.384
78285SOL     OW36693   7.638  11.690   5.212
78285SOL    HW136694   7.626  11.662   5.303
78285SOL    HW236695   7.695  11.767   5.218
78286SOL     OW36696   7.987  14.430   4.470
78286SOL    HW136697   7.897  14.447   4.498
78286SOL    HW236698   7.979  14.359   4.406
78287SOL     OW36699   1.330   2.364   4.062
78287SOL    HW136700   1.386   2.390   3.990
78287SOL    HW236701   1.246   2.342   4.021
78288SOL     OW36702  14.219   4.581   1.734
78288SOL    HW136703  14.169   4.499   1.737
78288SOL    HW236704  14.268   4.577   1.652
78289SOL     OW36705   6.542  12.812  14.812
78289SOL    HW136706   6.584  12.807   0.018
78289SOL    HW236707   6.466  12.756  14.819
78290SOL     OW36708   4.360   1.163  13.290
78290SOL    HW136709   4.395   1.091  13.342
78290SOL    HW236710   4.297   1.206  13.348
78291SOL     OW36711  12.542   1.735  14.523
78291SOL    HW136712  12.610   1.734  14.456
78291SOL    HW236713  12.559   1.815  14.572
78292SOL     OW36714  14.590  12.414   4.132
78292SOL    HW136715  14.521  12.394   4.069
78292SOL    HW236716  14.664  12.358   4.105
78293SOL     OW36717   5.059   8.567  14.832
78293SOL    HW136718   5.142   8.519  14.842
78293SOL    HW236719   5.013   8.552   0.035
78294SOL     OW36720   6.687   4.467   7.403
78294SOL    HW136721   6.760   4.404   7.402
78294SOL    HW236722   6.675   4.491   7.311
78295SOL     OW36723   1.687   7.615   6.272
78295SOL    HW136724   1.728   7.564   6.203
78295SOL    HW236725   1.646   7.689   6.225
78296SOL     OW36726  11.405   2.745   8.029
78296SOL    HW136727  11.410   2.841   8.037
78296SOL    HW236728  11.427   2.727   7.938
78297SOL     OW36729  14.454  13.648  13.148
78297SOL    HW136730  14.404  13.640  13.067
78297SOL    HW236731  14.543  13.624  13.124
78298SOL     OW36732   6.431   2.110  13.787
78298SOL    HW136733   6.419   2.015  13.788
78298SOL    HW236734   6.440   2.134  13.879
78299SOL     OW36735   3.705  11.115   9.205
78299SOL    HW136736   3.697  11.211   9.197
78299SOL    HW236737   3.774  11.103   9.270
78300SOL     OW36738   4.764   9.341   0.046
78300SOL    HW136739   4.704   9.336   0.120
78300SOL    HW236740   4.851   9.329   0.084
78301SOL     OW36741  12.897  13.921   3.570
78301SOL    HW136742  12.881  14.015   3.566
78301SOL    HW236743  12.848  13.886   3.495
78302SOL     OW36744  12.086   6.893   0.902
78302SOL    HW136745  12.051   6.981   0.886
78302SOL    HW236746  12.030   6.835   0.850
78303SOL     OW36747  11.929   1.110  10.889
78303SOL    HW136748  11.864   1.041  10.904
78303SOL    HW236749  11.880   1.180  10.845
78304SOL     OW36750   4.108   2.038   9.244
78304SOL    HW136751   4.138   2.005   9.160
78304SOL    HW236752   4.013   2.029   9.241
78305SOL     OW36753   8.197   0.240   5.668
78305SOL    HW136754   8.137   0.270   5.736
78305SOL    HW236755   8.144   0.231   5.590
78306SOL     OW36756   6.602  13.097  14.361
78306SOL    HW136757   6.614  13.021  14.305
78306SOL    HW236758   6.573  13.060  14.445
78307SOL     OW36759   8.509   7.800  10.522
78307SOL    HW136760   8.556   7.726  10.484
78307SOL    HW236761   8.418   7.770  10.528
78308SOL     OW36762   6.314   8.233   0.077
78308SOL    HW136763   6.369   8.159   0.050
78308SOL    HW236764   6.359   8.310   0.043
78309SOL     OW36765   8.581   9.383   7.962
78309SOL    HW136766   8.606   9.382   8.054
78309SOL    HW236767   8.492   9.417   7.961
78310SOL     OW36768  13.120  14.589   9.635
78310SOL    HW136769  13.126  14.665   9.692
78310SOL    HW236770  13.188  14.602   9.569
78311SOL     OW36771   9.600  14.331   6.342
78311SOL    HW136772   9.573  14.413   6.299
78311SOL    HW236773   9.535  14.318   6.411
78312SOL     OW36774   7.084   8.314  10.048
78312SOL    HW136775   7.073   8.220  10.029
78312SOL    HW236776   7.165   8.319  10.098
78313SOL     OW36777  12.127   4.689   8.908
78313SOL    HW136778  12.189   4.620   8.933
78313SOL    HW236779  12.179   4.748   8.853
78314SOL     OW36780   3.276   8.298   7.821
78314SOL    HW136781   3.339   8.239   7.862
78314SOL    HW236782   3.306   8.306   7.730
78315SOL     OW36783   4.001   9.239   2.162
78315SOL    HW136784   4.008   9.231   2.257
78315SOL    HW236785   4.020   9.151   2.129
78316SOL     OW36786   1.499   5.471   9.332
78316SOL    HW136787   1.409   5.441   9.345
78316SOL    HW236788   1.520   5.519   9.411
78317SOL     OW36789   8.592   8.189   9.992
78317SOL    HW136790   8.581   8.153  10.080
78317SOL    HW236791   8.515   8.158   9.944
78318SOL     OW36792   1.870  12.416   0.267
78318SOL    HW136793   1.856  12.449   0.356
78318SOL    HW236794   1.831  12.482   0.210
78319SOL     OW36795   1.864   7.230  13.204
78319SOL    HW136796   1.887   7.268  13.119
78319SOL    HW236797   1.906   7.144  13.204
78320SOL     OW36798  10.158  14.595   8.396
78320SOL    HW136799  10.202  14.510   8.400
78320SOL    HW236800  10.086  14.582   8.335
78321SOL     OW36801   5.831   0.344   5.342
78321SOL    HW136802   5.854   0.374   5.431
78321SOL    HW236803   5.877   0.405   5.284
78322SOL     OW36804  11.166   5.522   6.658
78322SOL    HW136805  11.129   5.595   6.708
78322SOL    HW236806  11.252   5.508   6.696
78323SOL     OW36807  14.410   1.678   1.219
78323SOL    HW136808  14.385   1.655   1.129
78323SOL    HW236809  14.350   1.627   1.273
78324SOL     OW36810   5.186   7.555  12.255
78324SOL    HW136811   5.160   7.646  12.265
78324SOL    HW236812   5.137   7.508  12.321
78325SOL     OW36813   7.356  13.194   7.912
78325SOL    HW136814   7.351  13.137   7.835
78325SOL    HW236815   7.408  13.269   7.883
78326SOL     OW36816   7.867   1.521  10.307
78326SOL    HW136817   7.875   1.487  10.396
78326SOL    HW236818   7.816   1.601  10.316
78327SOL     OW36819   6.967   3.843  14.615
78327SOL    HW136820   6.912   3.778  14.660
78327SOL    HW236821   6.948   3.925  14.660
78328SOL     OW36822   6.064  14.712   2.912
78328SOL    HW136823   5.971  14.697   2.927
78328SOL    HW236824   6.086  14.655   2.838
78329SOL     OW36825   6.337   7.386   7.221
78329SOL    HW136826   6.330   7.299   7.180
78329SOL    HW236827   6.381   7.440   7.156
78330SOL     OW36828  11.462   7.082   0.145
78330SOL    HW136829  11.402   7.102   0.217
78330SOL    HW236830  11.462   6.986   0.140
78331SOL     OW36831  10.297  13.856   4.061
78331SOL    HW136832  10.312  13.763   4.048
78331SOL    HW236833  10.242  13.861   4.140
78332SOL     OW36834  14.564   7.099  13.481
78332SOL    HW136835  14.637   7.074  13.538
78332SOL    HW236836  14.596   7.081  13.392
78333SOL     OW36837   0.363   2.492   6.686
78333SOL    HW136838   0.286   2.516   6.635
78333SOL    HW236839   0.335   2.500   6.777
78334SOL     OW36840   6.053   0.373   8.511
78334SOL    HW136841   5.979   0.348   8.567
78334SOL    HW236842   6.113   0.299   8.515
78335SOL     OW36843  12.189   9.022   6.517
78335SOL    HW136844  12.222   8.942   6.476
78335SOL    HW236845  12.128   8.990   6.584
78336SOL     OW36846   0.522  14.314   8.894
78336SOL    HW136847   0.495  14.395   8.937
78336SOL    HW236848   0.499  14.326   8.802
78337SOL     OW36849   1.520   6.106   9.109
78337SOL    HW136850   1.568   6.189   9.116
78337SOL    HW236851   1.558   6.051   9.178
78338SOL     OW36852  14.836  10.342   0.432
78338SOL    HW136853  14.876  10.420   0.471
78338SOL    HW236854  14.806  10.371   0.346
78339SOL     OW36855   2.622  11.113   6.942
78339SOL    HW136856   2.536  11.071   6.936
78339SOL    HW236857   2.676  11.069   6.877
78340SOL     OW36858  11.841   4.311   5.247
78340SOL    HW136859  11.895   4.252   5.300
78340SOL    HW236860  11.890   4.322   5.166
78341SOL     OW36861   0.088  10.591   7.849
78341SOL    HW136862   0.084  10.685   7.867
78341SOL    HW236863   0.094  10.585   7.753
78342SOL     OW36864  14.123  12.766   8.345
78342SOL    HW136865  14.110  12.678   8.382
78342SOL    HW236866  14.151  12.819   8.419
78343SOL     OW36867   6.588   1.428   4.975
78343SOL    HW136868   6.673   1.470   4.964
78343SOL    HW236869   6.525   1.499   4.959
78344SOL     OW36870  14.700  10.956   1.872
78344SOL    HW136871  14.613  10.991   1.853
78344SOL    HW236872  14.723  10.992   1.958
78345SOL     OW36873   2.012   7.619  12.283
78345SOL    HW136874   2.107   7.619  12.293
78345SOL    HW236875   1.989   7.529  12.262
78346SOL     OW36876   6.989  13.138  12.684
78346SOL    HW136877   6.953  13.225  12.698
78346SOL    HW236878   6.974  13.120  12.591
78347SOL     OW36879   9.917   2.293  14.545
78347SOL    HW136880   9.965   2.376  14.547
78347SOL    HW236881   9.980   2.229  14.516
78348SOL     OW36882   7.384  11.644   1.007
78348SOL    HW136883   7.451  11.704   0.973
78348SOL    HW236884   7.430  11.560   1.016
78349SOL     OW36885   0.374  10.522  11.857
78349SOL    HW136886   0.425  10.587  11.906
78349SOL    HW236887   0.371  10.556  11.767
78350SOL     OW36888   9.778   2.796   3.174
78350SOL    HW136889   9.741   2.818   3.089
78350SOL    HW236890   9.822   2.877   3.202
78351SOL     OW36891   5.294   1.436   7.426
78351SOL    HW136892   5.384   1.464   7.408
78351SOL    HW236893   5.301   1.376   7.500
78352SOL     OW36894  11.591   7.936  14.835
78352SOL    HW136895  11.554   7.960   0.040
78352SOL    HW236896  11.685   7.945  14.846
78353SOL     OW36897   1.486   6.402   6.239
78353SOL    HW136898   1.517   6.422   6.151
78353SOL    HW236899   1.560   6.357   6.281
78354SOL     OW36900   6.535   7.301  14.165
78354SOL    HW136901   6.505   7.271  14.251
78354SOL    HW236902   6.628   7.320  14.177
78355SOL     OW36903   1.020  12.751   3.826
78355SOL    HW136904   0.977  12.666   3.838
78355SOL    HW236905   1.008  12.796   3.910
78356SOL     OW36906  10.210   4.665   9.434
78356SOL    HW136907  10.187   4.741   9.487
78356SOL    HW236908  10.255   4.701   9.358
78357SOL     OW36909   2.448  14.826   2.187
78357SOL    HW136910   2.533  14.849   2.150
78357SOL    HW236911   2.440  14.731   2.173
78358SOL     OW36912   1.316   6.867   9.428
78358SOL    HW136913   1.259   6.802   9.387
78358SOL    HW236914   1.284   6.951   9.396
78359SOL     OW36915   0.706   7.671   4.632
78359SOL    HW136916   0.764   7.676   4.556
78359SOL    HW236917   0.637   7.734   4.614
78360SOL     OW36918   5.410  14.759   3.789
78360SOL    HW136919   5.363  14.819   3.847
78360SOL    HW236920   5.502  14.772   3.812
78361SOL     OW36921  10.313   1.268   0.375
78361SOL    HW136922  10.299   1.185   0.420
78361SOL    HW236923  10.361   1.321   0.438
78362SOL     OW36924   2.620   0.640   6.254
78362SOL    HW136925   2.627   0.701   6.180
78362SOL    HW236926   2.678   0.676   6.320
78363SOL     OW36927   2.407   2.822   6.923
78363SOL    HW136928   2.314   2.824   6.947
78363SOL    HW236929   2.425   2.910   6.890
78364SOL     OW36930   2.622   0.562   5.762
78364SOL    HW136931   2.668   0.485   5.730
78364SOL    HW236932   2.557   0.581   5.695
78365SOL     OW36933   3.475   6.141   5.856
78365SOL    HW136934   3.393   6.157   5.903
78365SOL    HW236935   3.537   6.118   5.925
78366SOL     OW36936  14.273   1.541   1.001
78366SOL    HW136937  14.224   1.492   0.935
78366SOL    HW236938  14.343   1.482   1.028
78367SOL     OW36939   3.053   8.266   6.444
78367SOL    HW136940   2.989   8.196   6.456
78367SOL    HW236941   3.138   8.221   6.448
78368SOL     OW36942   5.951   6.931   3.686
78368SOL    HW136943   5.889   6.931   3.613
78368SOL    HW236944   5.903   6.972   3.759
78369SOL     OW36945   1.027  14.832   5.610
78369SOL    HW136946   1.070  14.781   5.678
78369SOL    HW236947   0.965   0.008   5.657
78370SOL     OW36948   5.666   4.588   4.879
78370SOL    HW136949   5.704   4.502   4.860
78370SOL    HW236950   5.733   4.651   4.852
78371SOL     OW36951   4.248   4.828   7.254
78371SOL    HW136952   4.250   4.835   7.350
78371SOL    HW236953   4.192   4.753   7.237
78372SOL     OW36954  12.971  12.428   8.692
78372SOL    HW136955  12.955  12.514   8.731
78372SOL    HW236956  13.066  12.424   8.681
78373SOL     OW36957  13.078  13.376   8.876
78373SOL    HW136958  13.038  13.387   8.963
78373SOL    HW236959  13.115  13.462   8.856
78374SOL     OW36960  13.786  12.877  11.215
78374SOL    HW136961  13.832  12.913  11.140
78374SOL    HW236962  13.805  12.937  11.286
78375SOL     OW36963   7.157   3.930   6.778
78375SOL    HW136964   7.218   3.856   6.784
78375SOL    HW236965   7.166   3.975   6.862
78376SOL     OW36966  10.022  13.149   4.892
78376SOL    HW136967   9.980  13.151   4.977
78376SOL    HW236968  10.071  13.067   4.890
78377SOL     OW36969   4.961  10.362   7.558
78377SOL    HW136970   4.929  10.417   7.486
78377SOL    HW236971   5.046  10.330   7.528
78378SOL     OW36972  10.621   4.316   6.330
78378SOL    HW136973  10.644   4.249   6.266
78378SOL    HW236974  10.525   4.323   6.324
78379SOL     OW36975   5.112   2.279  13.079
78379SOL    HW136976   5.107   2.304  13.172
78379SOL    HW236977   5.077   2.354  13.032
78380SOL     OW36978   0.459   1.251   0.406
78380SOL    HW136979   0.538   1.221   0.361
78380SOL    HW236980   0.465   1.212   0.494
78381SOL     OW36981   7.743   9.278   2.776
78381SOL    HW136982   7.806   9.206   2.779
78381SOL    HW236983   7.681   9.252   2.708
78382SOL     OW36984   9.200  13.278  10.430
78382SOL    HW136985   9.290  13.262  10.402
78382SOL    HW236986   9.208  13.297  10.524
78383SOL     OW36987  10.004   0.441   6.048
78383SOL    HW136988   9.910   0.458   6.048
78383SOL    HW236989  10.041   0.509   5.991
78384SOL     OW36990   8.604   0.152   8.394
78384SOL    HW136991   8.547   0.148   8.471
78384SOL    HW236992   8.544   0.159   8.320
78385SOL     OW36993   7.020   2.681   9.596
78385SOL    HW136994   7.039   2.772   9.621
78385SOL    HW236995   7.103   2.649   9.559
78386SOL     OW36996  13.369   4.609   9.786
78386SOL    HW136997  13.299   4.632   9.725
78386SOL    HW236998  13.355   4.665   9.862
78387SOL     OW36999  12.069   9.132   9.969
78387SOL    HW137000  12.067   9.038   9.987
78387SOL    HW237001  11.978   9.154   9.950
78388SOL     OW37002   9.566   6.293  11.144
78388SOL    HW137003   9.494   6.319  11.087
78388SOL    HW237004   9.570   6.361  11.211
78389SOL     OW37005   2.318  13.218  12.333
78389SOL    HW137006   2.402  13.231  12.377
78389SOL    HW237007   2.321  13.275  12.256
78390SOL     OW37008   6.850   9.359   7.668
78390SOL    HW137009   6.835   9.267   7.690
78390SOL    HW237010   6.915   9.388   7.732
78391SOL     OW37011   4.427   2.178   2.008
78391SOL    HW137012   4.499   2.138   1.959
78391SOL    HW237013   4.353   2.120   1.993
78392SOL     OW37014  10.642   4.533  12.059
78392SOL    HW137015  10.645   4.444  12.093
78392SOL    HW237016  10.556   4.566  12.084
78393SOL     OW37017   5.689   6.286   7.966
78393SOL    HW137018   5.601   6.308   7.996
78393SOL    HW237019   5.679   6.201   7.922
78394SOL     OW37020   6.711   1.975   3.653
78394SOL    HW137021   6.740   2.066   3.665
78394SOL    HW237022   6.713   1.938   3.742
78395SOL     OW37023   1.045  12.922   5.016
78395SOL    HW137024   1.020  13.014   5.012
78395SOL    HW237025   1.124  12.922   5.070
78396SOL     OW37026   7.702  13.079   4.354
78396SOL    HW137027   7.775  13.106   4.409
78396SOL    HW237028   7.736  13.087   4.264
78397SOL     OW37029   3.813   8.419   9.098
78397SOL    HW137030   3.847   8.465   9.175
78397SOL    HW237031   3.857   8.461   9.023
78398SOL     OW37032  11.467   4.611   1.352
78398SOL    HW137033  11.549   4.565   1.370
78398SOL    HW237034  11.423   4.556   1.288
78399SOL     OW37035   2.815   3.650   9.764
78399SOL    HW137036   2.888   3.669   9.824
78399SOL    HW237037   2.743   3.703   9.797
78400SOL     OW37038   6.635  11.963   2.084
78400SOL    HW137039   6.587  11.883   2.107
78400SOL    HW237040   6.599  12.030   2.141
78401SOL     OW37041   7.248   4.692  11.552
78401SOL    HW137042   7.178   4.705  11.615
78401SOL    HW237043   7.328   4.718  11.599
78402SOL     OW37044  10.872  10.516   4.188
78402SOL    HW137045  10.907  10.428   4.200
78402SOL    HW237046  10.777  10.504   4.182
78403SOL     OW37047   5.316   0.898   9.946
78403SOL    HW137048   5.318   0.937  10.033
78403SOL    HW237049   5.223   0.894   9.924
78404SOL     OW37050   0.356   8.106   4.223
78404SOL    HW137051   0.328   8.152   4.144
78404SOL    HW237052   0.409   8.033   4.191
78405SOL     OW37053  12.478   3.103   9.848
78405SOL    HW137054  12.562   3.120   9.890
78405SOL    HW237055  12.447   3.022   9.888
78406SOL     OW37056   6.710   1.139   9.405
78406SOL    HW137057   6.662   1.184   9.335
78406SOL    HW237058   6.777   1.202   9.432
78407SOL     OW37059  10.792   7.097  12.037
78407SOL    HW137060  10.855   7.070  12.104
78407SOL    HW237061  10.707   7.088  12.079
78408SOL     OW37062  12.456   5.051   6.359
78408SOL    HW137063  12.415   5.103   6.289
78408SOL    HW237064  12.389   5.045   6.427
78409SOL     OW37065   9.265   8.561   0.315
78409SOL    HW137066   9.169   8.558   0.315
78409SOL    HW237067   9.287   8.646   0.353
78410SOL     OW37068   0.655   3.886   0.102
78410SOL    HW137069   0.615   3.947   0.164
78410SOL    HW237070   0.644   3.928   0.017
78411SOL     OW37071   6.551   7.403  12.457
78411SOL    HW137072   6.523   7.314  12.478
78411SOL    HW237073   6.508   7.459  12.522
78412SOL     OW37074   3.377   4.053   8.484
78412SOL    HW137075   3.375   4.148   8.486
78412SOL    HW237076   3.398   4.027   8.574
78413SOL     OW37077   4.694   4.524   5.029
78413SOL    HW137078   4.658   4.552   4.945
78413SOL    HW237079   4.678   4.429   5.031
78414SOL     OW37080   9.028   7.423  12.186
78414SOL    HW137081   9.006   7.510  12.222
78414SOL    HW237082   9.081   7.442  12.109
78415SOL     OW37083   9.917   7.855   0.024
78415SOL    HW137084   9.891   7.854  14.811
78415SOL    HW237085  10.000   7.808   0.026
78416SOL     OW37086   7.864   5.996  10.809
78416SOL    HW137087   7.773   5.986  10.838
78416SOL    HW237088   7.876   5.927  10.743
78417SOL     OW37089  11.551  12.854   4.138
78417SOL    HW137090  11.646  12.842   4.140
78417SOL    HW237091  11.517  12.777   4.182
78418SOL     OW37092   7.705   5.062  11.719
78418SOL    HW137093   7.691   5.053  11.625
78418SOL    HW237094   7.617   5.074  11.755
78419SOL     OW37095  10.740  10.665   5.742
78419SOL    HW137096  10.677  10.700   5.805
78419SOL    HW237097  10.688  10.643   5.664
78420SOL     OW37098   1.788   5.603   7.372
78420SOL    HW137099   1.758   5.513   7.364
78420SOL    HW237100   1.844   5.617   7.296
78421SOL     OW37101   8.754   4.261   6.947
78421SOL    HW137102   8.738   4.233   6.857
78421SOL    HW237103   8.821   4.328   6.939
78422SOL     OW37104   1.537   1.980   3.688
78422SOL    HW137105   1.486   2.023   3.620
78422SOL    HW237106   1.586   2.051   3.730
78423SOL     OW37107   9.156   5.660   7.609
78423SOL    HW137108   9.183   5.728   7.671
78423SOL    HW237109   9.063   5.647   7.626
78424SOL     OW37110   0.203  12.886   9.545
78424SOL    HW137111   0.155  12.915   9.467
78424SOL    HW237112   0.140  12.896   9.617
78425SOL     OW37113   9.602   5.104   2.444
78425SOL    HW137114   9.585   5.193   2.412
78425SOL    HW237115   9.608   5.113   2.539
78426SOL     OW37116   0.882  11.356   6.631
78426SOL    HW137117   0.877  11.389   6.720
78426SOL    HW237118   0.897  11.434   6.577
78427SOL     OW37119   8.426  12.509   1.593
78427SOL    HW137120   8.507  12.479   1.552
78427SOL    HW237121   8.423  12.603   1.575
78428SOL     OW37122  12.733  13.213   0.705
78428SOL    HW137123  12.679  13.266   0.647
78428SOL    HW237124  12.732  13.261   0.788
78429SOL     OW37125   7.037   2.829   3.939
78429SOL    HW137126   6.964   2.890   3.935
78429SOL    HW237127   7.104   2.874   3.991
78430SOL     OW37128  14.536  14.625   9.412
78430SOL    HW137129  14.569  14.684   9.344
78430SOL    HW237130  14.515  14.683   9.485
78431SOL     OW37131   5.651  13.054  13.056
78431SOL    HW137132   5.714  13.069  13.127
78431SOL    HW237133   5.590  12.990  13.091
78432SOL     OW37134   9.483   8.357  13.228
78432SOL    HW137135   9.436   8.437  13.204
78432SOL    HW237136   9.551   8.387  13.289
78433SOL     OW37137  12.694   3.265  10.855
78433SOL    HW137138  12.640   3.235  10.782
78433SOL    HW237139  12.692   3.361  10.849
78434SOL     OW37140   1.431  12.926   7.961
78434SOL    HW137141   1.346  12.971   7.958
78434SOL    HW237142   1.492  12.993   7.992
78435SOL     OW37143   5.409  14.044  12.394
78435SOL    HW137144   5.371  14.105  12.331
78435SOL    HW237145   5.377  13.958  12.367
78436SOL     OW37146   5.449  11.305   2.638
78436SOL    HW137147   5.532  11.317   2.684
78436SOL    HW237148   5.433  11.389   2.595
78437SOL     OW37149   0.034  13.822   0.544
78437SOL    HW137150  14.855  13.884   0.589
78437SOL    HW237151  14.877  13.736   0.563
78438SOL     OW37152   9.143   8.467   5.420
78438SOL    HW137153   9.186   8.495   5.501
78438SOL    HW237154   9.086   8.395   5.448
78439SOL     OW37155   9.016  12.761  10.792
78439SOL    HW137156   9.079  12.690  10.782
78439SOL    HW237157   8.995  12.788  10.703
78440SOL     OW37158   2.499  11.078  11.262
78440SOL    HW137159   2.513  10.984  11.251
78440SOL    HW237160   2.411  11.086  11.299
78441SOL     OW37161   3.112   9.636   4.452
78441SOL    HW137162   3.124   9.552   4.407
78441SOL    HW237163   3.018   9.651   4.450
78442SOL     OW37164   5.290  12.098  12.739
78442SOL    HW137165   5.372  12.108  12.787
78442SOL    HW237166   5.263  12.188  12.720
78443SOL     OW37167   3.180   7.165   2.488
78443SOL    HW137168   3.187   7.077   2.451
78443SOL    HW237169   3.094   7.196   2.459
78444SOL     OW37170   6.935   0.309   3.247
78444SOL    HW137171   6.989   0.358   3.309
78444SOL    HW237172   6.865   0.370   3.222
78445SOL     OW37173  13.470  11.583   7.918
78445SOL    HW137174  13.529  11.636   7.972
78445SOL    HW237175  13.404  11.552   7.980
78446SOL     OW37176   3.597   5.649  10.100
78446SOL    HW137177   3.588   5.575  10.160
78446SOL    HW237178   3.522   5.643  10.042
78447SOL     OW37179   0.447   1.719   4.454
78447SOL    HW137180   0.424   1.786   4.519
78447SOL    HW237181   0.384   1.732   4.383
78448SOL     OW37182   5.690   7.948  14.750
78448SOL    HW137183   5.611   7.895  14.763
78448SOL    HW237184   5.699   7.955  14.655
78449SOL     OW37185  12.111   5.880   5.849
78449SOL    HW137186  12.191   5.888   5.900
78449SOL    HW237187  12.041   5.894   5.913
78450SOL     OW37188   5.039   1.195   7.320
78450SOL    HW137189   5.132   1.209   7.334
78450SOL    HW237190   5.014   1.261   7.255
78451SOL     OW37191   2.879   0.727  11.692
78451SOL    HW137192   2.971   0.704  11.692
78451SOL    HW237193   2.840   0.677  11.764
78452SOL     OW37194   9.824   2.473   1.460
78452SOL    HW137195   9.811   2.512   1.374
78452SOL    HW237196   9.893   2.526   1.500
78453SOL     OW37197  10.907   9.899   8.249
78453SOL    HW137198  10.882   9.842   8.321
78453SOL    HW237199  10.865   9.861   8.172
78454SOL     OW37200   3.022   7.978   4.918
78454SOL    HW137201   3.024   8.073   4.908
78454SOL    HW237202   2.949   7.961   4.976
78455SOL     OW37203   6.631   9.250   4.356
78455SOL    HW137204   6.646   9.337   4.320
78455SOL    HW237205   6.550   9.257   4.407
78456SOL     OW37206   0.725  11.222  10.311
78456SOL    HW137207   0.819  11.206  10.319
78456SOL    HW237208   0.710  11.222  10.216
78457SOL     OW37209   3.709  11.175   0.818
78457SOL    HW137210   3.653  11.170   0.741
78457SOL    HW237211   3.663  11.234   0.878
78458SOL     OW37212   2.421   5.969   3.522
78458SOL    HW137213   2.396   5.985   3.613
78458SOL    HW237214   2.493   5.907   3.528
78459SOL     OW37215   7.465   6.316   8.290
78459SOL    HW137216   7.511   6.387   8.245
78459SOL    HW237217   7.421   6.267   8.221
78460SOL     OW37218   8.932   0.196  13.221
78460SOL    HW137219   8.990   0.272  13.223
78460SOL    HW237220   8.955   0.150  13.140
78461SOL     OW37221   9.693   8.322  12.152
78461SOL    HW137222   9.602   8.317  12.180
78461SOL    HW237223   9.698   8.402  12.100
78462SOL     OW37224   2.238   3.490  14.365
78462SOL    HW137225   2.204   3.556  14.425
78462SOL    HW237226   2.262   3.539  14.287
78463SOL     OW37227  12.438  12.518   8.868
78463SOL    HW137228  12.526  12.508   8.904
78463SOL    HW237229  12.450  12.507   8.774
78464SOL     OW37230   0.792  12.258  13.574
78464SOL    HW137231   0.777  12.352  13.584
78464SOL    HW237232   0.711  12.225  13.536
78465SOL     OW37233   9.347   0.363   3.597
78465SOL    HW137234   9.298   0.444   3.581
78465SOL    HW237235   9.361   0.363   3.692
78466SOL     OW37236   9.549  12.888   8.408
78466SOL    HW137237   9.500  12.912   8.487
78466SOL    HW237238   9.484  12.848   8.351
78467SOL     OW37239  12.307  11.378   3.344
78467SOL    HW137240  12.317  11.288   3.315
78467SOL    HW237241  12.305  11.429   3.263
78468SOL     OW37242   1.822   7.401   6.444
78468SOL    HW137243   1.828   7.488   6.406
78468SOL    HW237244   1.728   7.382   6.448
78469SOL     OW37245   0.197   1.325   3.389
78469SOL    HW137246   0.259   1.279   3.445
78469SOL    HW237247   0.126   1.352   3.448
78470SOL     OW37248   8.635   3.323   7.395
78470SOL    HW137249   8.577   3.249   7.413
78470SOL    HW237250   8.701   3.289   7.335
78471SOL     OW37251  13.400   9.817   3.786
78471SOL    HW137252  13.422   9.908   3.769
78471SOL    HW237253  13.392   9.811   3.881
78472SOL     OW37254   6.398  12.213   2.850
78472SOL    HW137255   6.451  12.244   2.924
78472SOL    HW237256   6.308  12.215   2.884
78473SOL     OW37257   3.563  10.002   0.598
78473SOL    HW137258   3.536   9.916   0.630
78473SOL    HW237259   3.598  10.047   0.675
78474SOL     OW37260   2.653   1.436   2.244
78474SOL    HW137261   2.710   1.507   2.272
78474SOL    HW237262   2.711   1.375   2.198
78475SOL     OW37263   3.177   7.601  10.021
78475SOL    HW137264   3.134   7.607  10.107
78475SOL    HW237265   3.219   7.515  10.022
78476SOL     OW37266   2.546   0.084   1.154
78476SOL    HW137267   2.482   0.107   1.221
78476SOL    HW237268   2.605   0.160   1.151
78477SOL     OW37269  13.854   6.994   5.934
78477SOL    HW137270  13.770   6.962   5.900
78477SOL    HW237271  13.830   7.070   5.988
78478SOL     OW37272  11.723  12.259  14.106
78478SOL    HW137273  11.755  12.171  14.122
78478SOL    HW237274  11.644  12.246  14.053
78479SOL     OW37275   6.794  12.581  12.688
78479SOL    HW137276   6.876  12.536  12.709
78479SOL    HW237277   6.815  12.674  12.696
78480SOL     OW37278   4.006   9.885  13.694
78480SOL    HW137279   3.980   9.800  13.659
78480SOL    HW237280   3.979   9.948  13.628
78481SOL     OW37281   5.155   3.742  11.364
78481SOL    HW137282   5.203   3.817  11.328
78481SOL    HW237283   5.064   3.772  11.368
78482SOL     OW37284   9.443  10.569  10.796
78482SOL    HW137285   9.493  10.621  10.732
78482SOL    HW237286   9.413  10.493  10.747
78483SOL     OW37287   6.083   6.644  13.732
78483SOL    HW137288   6.083   6.617  13.824
78483SOL    HW237289   5.992   6.637  13.705
78484SOL     OW37290   0.100  10.075  12.616
78484SOL    HW137291   0.157  10.102  12.544
78484SOL    HW237292   0.160  10.041  12.682
78485SOL     OW37293   4.369  11.347  12.528
78485SOL    HW137294   4.382  11.386  12.442
78485SOL    HW237295   4.432  11.275  12.532
78486SOL     OW37296  11.555  11.856   0.911
78486SOL    HW137297  11.511  11.836   0.994
78486SOL    HW237298  11.510  11.933   0.878
78487SOL     OW37299   6.014   6.100   4.160
78487SOL    HW137300   6.046   6.114   4.249
78487SOL    HW237301   5.925   6.067   4.171
78488SOL     OW37302   5.563   4.875   5.861
78488SOL    HW137303   5.611   4.889   5.942
78488SOL    HW237304   5.614   4.809   5.814
78489SOL     OW37305   2.769   1.710  12.484
78489SOL    HW137306   2.687   1.758  12.481
78489SOL    HW237307   2.809   1.725  12.398
78490SOL     OW37308  11.597   2.356   0.598
78490SOL    HW137309  11.536   2.410   0.648
78490SOL    HW237310  11.561   2.357   0.509
78491SOL     OW37311   1.262   8.841   0.789
78491SOL    HW137312   1.245   8.858   0.882
78491SOL    HW237313   1.213   8.909   0.743
78492SOL     OW37314  13.888  11.225   6.645
78492SOL    HW137315  13.847  11.139   6.653
78492SOL    HW237316  13.945  11.218   6.569
78493SOL     OW37317  13.834  12.272  12.313
78493SOL    HW137318  13.866  12.199  12.261
78493SOL    HW237319  13.743  12.283  12.286
78494SOL     OW37320  11.650  12.901   2.680
78494SOL    HW137321  11.576  12.947   2.719
78494SOL    HW237322  11.652  12.932   2.589
78495SOL     OW37323   7.474  13.040   2.863
78495SOL    HW137324   7.388  13.077   2.879
78495SOL    HW237325   7.469  13.005   2.774
78496SOL     OW37326   0.800  10.651  12.404
78496SOL    HW137327   0.874  10.600  12.439
78496SOL    HW237328   0.823  10.742  12.423
78497SOL     OW37329   9.052   4.613  14.513
78497SOL    HW137330   9.129   4.626  14.569
78497SOL    HW237331   9.054   4.686  14.451
78498SOL     OW37332   4.598   2.536   7.840
78498SOL    HW137333   4.666   2.471   7.857
78498SOL    HW237334   4.523   2.484   7.810
78499SOL     OW37335   3.006   3.489   7.788
78499SOL    HW137336   2.958   3.453   7.714
78499SOL    HW237337   3.095   3.456   7.778
78500SOL     OW37338  10.056   9.496   5.474
78500SOL    HW137339  10.053   9.400   5.475
78500SOL    HW237340  10.075   9.519   5.383
78501SOL     OW37341  13.606  10.984   7.488
78501SOL    HW137342  13.596  10.950   7.399
78501SOL    HW237343  13.692  11.026   7.487
78502SOL     OW37344  14.662  12.279  12.734
78502SOL    HW137345  14.685  12.371  12.749
78502SOL    HW237346  14.576  12.269  12.773
78503SOL     OW37347   6.612  12.837   1.583
78503SOL    HW137348   6.663  12.898   1.531
78503SOL    HW237349   6.632  12.860   1.674
78504SOL     OW37350   7.118   3.232  14.384
78504SOL    HW137351   7.086   3.311  14.428
78504SOL    HW237352   7.058   3.219  14.311
78505SOL     OW37353   8.915  13.241   9.973
78505SOL    HW137354   8.986  13.303   9.984
78505SOL    HW237355   8.863  13.276   9.900
78506SOL     OW37356   1.866  13.928   0.774
78506SOL    HW137357   1.959  13.937   0.754
78506SOL    HW237358   1.824  13.996   0.721
78507SOL     OW37359  12.359   6.856  11.011
78507SOL    HW137360  12.298   6.874  11.083
78507SOL    HW237361  12.316   6.789  10.958
78508SOL     OW37362   6.408   2.418   2.073
78508SOL    HW137363   6.422   2.327   2.049
78508SOL    HW237364   6.459   2.468   2.010
78509SOL     OW37365   5.767  13.209   0.733
78509SOL    HW137366   5.725  13.291   0.707
78509SOL    HW237367   5.743  13.199   0.825
78510SOL     OW37368  11.982   8.122  10.994
78510SOL    HW137369  11.916   8.187  10.972
78510SOL    HW237370  11.934   8.039  10.997
78511SOL     OW37371   5.219   0.368  14.114
78511SOL    HW137372   5.307   0.359  14.150
78511SOL    HW237373   5.180   0.439  14.165
78512SOL     OW37374   4.373   8.721   3.554
78512SOL    HW137375   4.459   8.678   3.555
78512SOL    HW237376   4.350   8.726   3.461
78513SOL     OW37377   1.071  13.528   4.392
78513SOL    HW137378   1.113  13.562   4.471
78513SOL    HW237379   1.077  13.432   4.401
78514SOL     OW37380   4.145   7.578   9.537
78514SOL    HW137381   4.204   7.652   9.520
78514SOL    HW237382   4.185   7.532   9.611
78515SOL     OW37383   1.208  14.205   9.261
78515SOL    HW137384   1.280  14.145   9.282
78515SOL    HW237385   1.203  14.263   9.337
78516SOL     OW37386   4.082   8.151   7.961
78516SOL    HW137387   4.141   8.076   7.951
78516SOL    HW237388   4.131   8.225   7.924
78517SOL     OW37389   2.213   3.423   5.037
78517SOL    HW137390   2.188   3.459   4.952
78517SOL    HW237391   2.308   3.409   5.030
78518SOL     OW37392  11.627  12.105   3.709
78518SOL    HW137393  11.696  12.048   3.675
78518SOL    HW237394  11.584  12.139   3.630
78519SOL     OW37395   5.184   5.841   9.179
78519SOL    HW137396   5.234   5.759   9.182
78519SOL    HW237397   5.127   5.837   9.256
78520SOL     OW37398   7.337  10.875   1.927
78520SOL    HW137399   7.328  10.961   1.968
78520SOL    HW237400   7.282  10.817   1.981
78521SOL     OW37401   9.787  10.974  13.488
78521SOL    HW137402   9.852  10.949  13.554
78521SOL    HW237403   9.762  10.891  13.447
78522SOL     OW37404   0.989   2.002   7.098
78522SOL    HW137405   1.079   2.032   7.092
78522SOL    HW237406   0.971   1.962   7.013
78523SOL     OW37407   2.930   0.379   8.713
78523SOL    HW137408   3.020   0.403   8.737
78523SOL    HW237409   2.940   0.323   8.636
78524SOL     OW37410   5.872   2.036   2.033
78524SOL    HW137411   5.912   2.102   2.091
78524SOL    HW237412   5.788   2.075   2.009
78525SOL     OW37413   2.656   8.392  14.194
78525SOL    HW137414   2.612   8.465  14.150
78525SOL    HW237415   2.683   8.428  14.278
78526SOL     OW37416   0.462   6.507  10.269
78526SOL    HW137417   0.429   6.593  10.294
78526SOL    HW237418   0.482   6.464  10.352
78527SOL     OW37419   1.098   7.229   1.745
78527SOL    HW137420   1.119   7.199   1.834
78527SOL    HW237421   1.170   7.196   1.691
78528SOL     OW37422   1.605  10.190   4.790
78528SOL    HW137423   1.584  10.122   4.854
78528SOL    HW237424   1.525  10.203   4.740
78529SOL     OW37425  14.513   6.275  13.731
78529SOL    HW137426  14.509   6.226  13.813
78529SOL    HW237427  14.443   6.340  13.739
78530SOL     OW37428   6.987   8.149   8.764
78530SOL    HW137429   7.035   8.074   8.729
78530SOL    HW237430   6.971   8.205   8.688
78531SOL     OW37431   3.656   4.151  10.197
78531SOL    HW137432   3.703   4.108  10.269
78531SOL    HW237433   3.614   4.079  10.150
78532SOL     OW37434  11.630   6.217   8.670
78532SOL    HW137435  11.657   6.148   8.609
78532SOL    HW237436  11.546   6.248   8.636
78533SOL     OW37437  14.353  11.028   9.732
78533SOL    HW137438  14.394  11.037   9.646
78533SOL    HW237439  14.352  10.933   9.748
78534SOL     OW37440  11.116   3.996   8.288
78534SOL    HW137441  11.075   3.977   8.204
78534SOL    HW237442  11.044   3.990   8.351
78535SOL     OW37443  14.592  12.455   8.695
78535SOL    HW137444  14.620  12.428   8.783
78535SOL    HW237445  14.633  12.541   8.684
78536SOL     OW37446  12.994  13.239   7.718
78536SOL    HW137447  13.081  13.241   7.678
78536SOL    HW237448  12.999  13.304   7.788
78537SOL     OW37449   5.232   5.309   7.094
78537SOL    HW137450   5.154   5.279   7.140
78537SOL    HW237451   5.212   5.296   7.002
78538SOL     OW37452   7.061  13.164  11.257
78538SOL    HW137453   7.129  13.229  11.239
78538SOL    HW237454   7.011  13.158  11.176
78539SOL     OW37455   2.046  11.761   8.988
78539SOL    HW137456   2.118  11.724   8.937
78539SOL    HW237457   1.978  11.694   8.986
78540SOL     OW37458  12.340  11.931   4.376
78540SOL    HW137459  12.302  11.844   4.363
78540SOL    HW237460  12.390  11.924   4.457
78541SOL     OW37461   0.785  14.105   6.075
78541SOL    HW137462   0.872  14.120   6.113
78541SOL    HW237463   0.803  14.065   5.989
78542SOL     OW37464   9.730  12.713   9.573
78542SOL    HW137465   9.700  12.753   9.655
78542SOL    HW237466   9.799  12.653   9.600
78543SOL     OW37467   9.422  12.643  12.269
78543SOL    HW137468   9.457  12.590  12.341
78543SOL    HW237469   9.328  12.626  12.270
78544SOL     OW37470  12.126  10.863   2.177
78544SOL    HW137471  12.100  10.837   2.265
78544SOL    HW237472  12.045  10.861   2.126
78545SOL     OW37473   6.168   4.602   1.625
78545SOL    HW137474   6.118   4.682   1.615
78545SOL    HW237475   6.104   4.531   1.619
78546SOL     OW37476  11.574  12.348   9.971
78546SOL    HW137477  11.630  12.424   9.987
78546SOL    HW237478  11.532  12.367   9.887
78547SOL     OW37479  12.825   8.611  12.406
78547SOL    HW137480  12.750   8.669  12.422
78547SOL    HW237481  12.827   8.553  12.482
78548SOL     OW37482  12.938   1.388   9.657
78548SOL    HW137483  12.912   1.459   9.598
78548SOL    HW237484  12.862   1.329   9.658
78549SOL     OW37485   5.479   7.091  10.076
78549SOL    HW137486   5.423   7.014  10.090
78549SOL    HW237487   5.524   7.073   9.994
78550SOL     OW37488   5.351   6.203   1.644
78550SOL    HW137489   5.393   6.265   1.584
78550SOL    HW237490   5.416   6.189   1.713
78551SOL     OW37491  13.702  13.346   1.081
78551SOL    HW137492  13.765  13.275   1.090
78551SOL    HW237493  13.686  13.352   0.987
78552SOL     OW37494   7.193   2.009   8.920
78552SOL    HW137495   7.144   2.050   8.991
78552SOL    HW237496   7.263   2.071   8.900
78553SOL     OW37497   2.821   6.956  11.741
78553SOL    HW137498   2.758   6.995  11.802
78553SOL    HW237499   2.768   6.926  11.667
78554SOL     OW37500   9.471   1.378  11.195
78554SOL    HW137501   9.485   1.319  11.121
78554SOL    HW237502   9.379   1.366  11.218
78555SOL     OW37503   1.775  14.281  11.511
78555SOL    HW137504   1.853  14.314  11.467
78555SOL    HW237505   1.765  14.337  11.588
78556SOL     OW37506   7.470   0.130   6.055
78556SOL    HW137507   7.449   0.075   6.131
78556SOL    HW237508   7.552   0.172   6.078
78557SOL     OW37509   3.221   9.953  10.659
78557SOL    HW137510   3.296   9.903  10.627
78557SOL    HW237511   3.174   9.980  10.580
78558SOL     OW37512  14.224  12.506   0.602
78558SOL    HW137513  14.242  12.456   0.682
78558SOL    HW237514  14.295  12.481   0.542
78559SOL     OW37515   4.543  12.214   6.192
78559SOL    HW137516   4.493  12.154   6.137
78559SOL    HW237517   4.603  12.158   6.241
78560SOL     OW37518   6.610   0.320  10.430
78560SOL    HW137519   6.530   0.281  10.466
78560SOL    HW237520   6.649   0.366  10.504
78561SOL     OW37521  10.040   9.493   4.606
78561SOL    HW137522  10.101   9.420   4.618
78561SOL    HW237523   9.960   9.452   4.572
78562SOL     OW37524   5.665   7.275   2.042
78562SOL    HW137525   5.704   7.202   2.091
78562SOL    HW237526   5.658   7.243   1.952
78563SOL     OW37527  10.760   5.275  11.891
78563SOL    HW137528  10.727   5.326  11.817
78563SOL    HW237529  10.703   5.199  11.895
78564SOL     OW37530  14.091  12.551   8.518
78564SOL    HW137531  13.996  12.548   8.511
78564SOL    HW237532  14.108  12.589   8.604
78565SOL     OW37533   6.860   1.043   1.625
78565SOL    HW137534   6.939   1.015   1.580
78565SOL    HW237535   6.829   0.964   1.671
78566SOL     OW37536  12.274   7.342  12.352
78566SOL    HW137537  12.332   7.398  12.300
78566SOL    HW237538  12.316   7.256  12.351
78567SOL     OW37539   9.261   9.419   0.205
78567SOL    HW137540   9.186   9.404   0.263
78567SOL    HW237541   9.282   9.332   0.170
78568SOL     OW37542   9.934  10.898  13.036
78568SOL    HW137543   9.964  10.944  13.115
78568SOL    HW237544  10.014  10.881  12.986
78569SOL     OW37545  14.422   8.233   6.589
78569SOL    HW137546  14.435   8.157   6.532
78569SOL    HW237547  14.510   8.267   6.605
78570SOL     OW37548   1.611   6.765  13.800
78570SOL    HW137549   1.653   6.769  13.713
78570SOL    HW237550   1.673   6.715  13.853
78571SOL     OW37551   3.887   8.667   4.355
78571SOL    HW137552   3.851   8.739   4.406
78571SOL    HW237553   3.816   8.641   4.296
78572SOL     OW37554   8.451   5.521   6.565
78572SOL    HW137555   8.530   5.527   6.511
78572SOL    HW237556   8.408   5.441   6.537
78573SOL     OW37557   1.054  14.223   8.508
78573SOL    HW137558   0.993  14.297   8.513
78573SOL    HW237559   1.122  14.252   8.448
78574SOL     OW37560  10.875   7.497   4.421
78574SOL    HW137561  10.867   7.516   4.328
78574SOL    HW237562  10.787   7.468   4.447
78575SOL     OW37563  12.328   7.527  14.314
78575SOL    HW137564  12.322   7.612  14.271
78575SOL    HW237565  12.257   7.476  14.276
78576SOL     OW37566  10.252   2.294  13.796
78576SOL    HW137567  10.209   2.278  13.712
78576SOL    HW237568  10.290   2.381  13.787
78577SOL     OW37569   6.019   8.537  14.614
78577SOL    HW137570   6.007   8.541  14.708
78577SOL    HW237571   6.100   8.487  14.602
78578SOL     OW37572  11.262  10.134   1.188
78578SOL    HW137573  11.197  10.071   1.220
78578SOL    HW237574  11.329  10.080   1.146
78579SOL     OW37575   1.274   2.411  13.911
78579SOL    HW137576   1.356   2.363  13.920
78579SOL    HW237577   1.255   2.444  13.999
78580SOL     OW37578   2.758   8.905   1.828
78580SOL    HW137579   2.666   8.880   1.836
78580SOL    HW237580   2.798   8.874   1.910
78581SOL     OW37581   1.551  12.028   2.230
78581SOL    HW137582   1.526  12.060   2.143
78581SOL    HW237583   1.622  12.086   2.258
78582SOL     OW37584   1.059   5.633   4.615
78582SOL    HW137585   1.012   5.550   4.606
78582SOL    HW237586   1.079   5.638   4.709
78583SOL     OW37587   0.288  10.113   3.946
78583SOL    HW137588   0.364  10.162   3.916
78583SOL    HW237589   0.218  10.178   3.952
78584SOL     OW37590   9.611  14.096   9.927
78584SOL    HW137591   9.633  14.084  10.019
78584SOL    HW237592   9.598  14.190   9.917
78585SOL     OW37593  11.934   2.178  11.569
78585SOL    HW137594  11.934   2.258  11.622
78585SOL    HW237595  11.903   2.110  11.628
78586SOL     OW37596   9.937   2.264  11.705
78586SOL    HW137597   9.926   2.209  11.627
78586SOL    HW237598   9.955   2.203  11.776
78587SOL     OW37599   7.289   8.134   1.921
78587SOL    HW137600   7.364   8.075   1.908
78587SOL    HW237601   7.218   8.095   1.871
78588SOL     OW37602   8.089   6.735  12.859
78588SOL    HW137603   8.056   6.774  12.941
78588SOL    HW237604   8.028   6.766  12.792
78589SOL     OW37605   7.696   0.307  13.000
78589SOL    HW137606   7.619   0.252  13.015
78589SOL    HW237607   7.748   0.258  12.936
78590SOL     OW37608   2.669  14.554   4.269
78590SOL    HW137609   2.701  14.564   4.179
78590SOL    HW237610   2.671  14.643   4.305
78591SOL     OW37611   4.265   4.200   2.313
78591SOL    HW137612   4.320   4.122   2.316
78591SOL    HW237613   4.206   4.191   2.388
78592SOL     OW37614  11.303  12.493   4.285
78592SOL    HW137615  11.316  12.504   4.379
78592SOL    HW237616  11.209  12.499   4.273
78593SOL     OW37617  13.882   1.360  11.283
78593SOL    HW137618  13.804   1.307  11.263
78593SOL    HW237619  13.860   1.404  11.365
78594SOL     OW37620   1.454   3.317   5.048
78594SOL    HW137621   1.424   3.381   4.983
78594SOL    HW237622   1.434   3.232   5.008
78595SOL     OW37623  14.409  12.569   2.256
78595SOL    HW137624  14.428  12.551   2.348
78595SOL    HW237625  14.466  12.510   2.207
78596SOL     OW37626   6.002  11.143   5.100
78596SOL    HW137627   6.071  11.081   5.077
78596SOL    HW237628   5.928  11.119   5.046
78597SOL     OW37629   0.842   7.064  13.737
78597SOL    HW137630   0.847   7.074  13.642
78597SOL    HW237631   0.849   6.970  13.752
78598SOL     OW37632   3.044  11.062   1.260
78598SOL    HW137633   3.080  11.095   1.343
78598SOL    HW237634   3.037  10.968   1.272
78599SOL     OW37635   5.301   5.304   6.667
78599SOL    HW137636   5.335   5.301   6.578
78599SOL    HW237637   5.362   5.251   6.718
78600SOL     OW37638   4.468   3.961  14.527
78600SOL    HW137639   4.466   3.919  14.441
78600SOL    HW237640   4.555   3.942  14.561
78601SOL     OW37641  14.702  10.267  11.705
78601SOL    HW137642  14.630  10.307  11.754
78601SOL    HW237643  14.663  10.246  11.620
78602SOL     OW37644   9.083   1.132   3.268
78602SOL    HW137645   9.066   1.152   3.176
78602SOL    HW237646   9.010   1.172   3.314
78603SOL     OW37647  14.285  14.303  13.485
78603SOL    HW137648  14.204  14.353  13.498
78603SOL    HW237649  14.350  14.350  13.537
78604SOL     OW37650  10.826   4.652  13.652
78604SOL    HW137651  10.921   4.637  13.654
78604SOL    HW237652  10.798   4.638  13.742
78605SOL     OW37653   7.365  11.082  14.596
78605SOL    HW137654   7.305  11.125  14.657
78605SOL    HW237655   7.317  11.004  14.567
78606SOL     OW37656   2.291   4.074  14.766
78606SOL    HW137657   2.299   3.983  14.794
78606SOL    HW237658   2.357   4.084  14.699
78607SOL     OW37659   5.799   9.722   6.344
78607SOL    HW137660   5.867   9.656   6.360
78607SOL    HW237661   5.835   9.777   6.274
78608SOL     OW37662   9.020   5.059  12.165
78608SOL    HW137663   8.995   5.021  12.249
78608SOL    HW237664   8.959   5.131  12.152
78609SOL     OW37665   4.002   5.338   4.808
78609SOL    HW137666   3.961   5.404   4.753
78609SOL    HW237667   4.014   5.262   4.750
78610SOL     OW37668  11.229   1.961   1.945
78610SOL    HW137669  11.202   1.951   1.854
78610SOL    HW237670  11.152   1.998   1.989
78611SOL     OW37671   4.885   7.934  10.886
78611SOL    HW137672   4.872   7.986  10.965
78611SOL    HW237673   4.837   7.852  10.903
78612SOL     OW37674   7.323  12.507  11.281
78612SOL    HW137675   7.394  12.546  11.333
78612SOL    HW237676   7.246  12.514  11.337
78613SOL     OW37677  14.370   2.547   0.028
78613SOL    HW137678  14.366   2.490   0.104
78613SOL    HW237679  14.299   2.517  14.851
78614SOL     OW37680   7.723   7.157   2.633
78614SOL    HW137681   7.735   7.248   2.661
78614SOL    HW237682   7.640   7.131   2.672
78615SOL     OW37683   8.381  14.325  14.251
78615SOL    HW137684   8.307  14.323  14.191
78615SOL    HW237685   8.444  14.383  14.209
78616SOL     OW37686  10.039   1.850  13.525
78616SOL    HW137687  10.133   1.866  13.519
78616SOL    HW237688  10.010   1.906  13.597
78617SOL     OW37689   3.174   2.811  14.697
78617SOL    HW137690   3.217   2.896  14.697
78617SOL    HW237691   3.195   2.773  14.611
78618SOL     OW37692  10.416   9.408  11.113
78618SOL    HW137693  10.411   9.498  11.081
78618SOL    HW237694  10.503   9.403  11.154
78619SOL     OW37695   4.889  13.481   8.917
78619SOL    HW137696   4.966  13.504   8.971
78619SOL    HW237697   4.905  13.525   8.834
78620SOL     OW37698   2.617   6.005   3.233
78620SOL    HW137699   2.705   6.009   3.270
78620SOL    HW237700   2.559   6.016   3.307
78621SOL     OW37701  10.090  13.874   3.099
78621SOL    HW137702  10.029  13.833   3.038
78621SOL    HW237703  10.115  13.957   3.058
78622SOL     OW37704   3.837  10.314  14.580
78622SOL    HW137705   3.853  10.380  14.512
78622SOL    HW237706   3.807  10.365  14.655
78623SOL     OW37707   5.769   0.797  14.256
78623SOL    HW137708   5.863   0.813  14.244
78623SOL    HW237709   5.753   0.715  14.209
78624SOL     OW37710   1.880   0.908  11.233
78624SOL    HW137711   1.875   0.814  11.216
78624SOL    HW237712   1.899   0.947  11.148
78625SOL     OW37713   3.968   8.774  11.166
78625SOL    HW137714   3.922   8.836  11.108
78625SOL    HW237715   3.931   8.791  11.253
78626SOL     OW37716   2.039   7.616   7.697
78626SOL    HW137717   1.948   7.597   7.721
78626SOL    HW237718   2.071   7.670   7.768
78627SOL     OW37719   3.356  13.885   5.605
78627SOL    HW137720   3.420  13.875   5.675
78627SOL    HW237721   3.398  13.845   5.528
78628SOL     OW37722   3.928  11.145   7.339
78628SOL    HW137723   3.834  11.131   7.340
78628SOL    HW237724   3.941  11.225   7.287
78629SOL     OW37725  14.284  11.089  13.618
78629SOL    HW137726  14.246  11.022  13.675
78629SOL    HW237727  14.343  11.039  13.560
78630SOL     OW37728  11.126   8.837   6.356
78630SOL    HW137729  11.088   8.836   6.268
78630SOL    HW237730  11.075   8.772   6.404
78631SOL     OW37731   3.642   9.240   6.842
78631SOL    HW137732   3.670   9.148   6.848
78631SOL    HW237733   3.718   9.290   6.871
78632SOL     OW37734   4.244   7.353  11.978
78632SOL    HW137735   4.299   7.293  11.928
78632SOL    HW237736   4.288   7.360  12.063
78633SOL     OW37737   1.825   0.957   8.685
78633SOL    HW137738   1.895   0.911   8.639
78633SOL    HW237739   1.866   1.037   8.717
78634SOL     OW37740   0.595  11.370   1.177
78634SOL    HW137741   0.579  11.275   1.174
78634SOL    HW237742   0.614  11.388   1.269
78635SOL     OW37743  11.277   2.408   8.127
78635SOL    HW137744  11.330   2.482   8.098
78635SOL    HW237745  11.322   2.331   8.092
78636SOL     OW37746  10.706   0.118   7.508
78636SOL    HW137747  10.631   0.175   7.524
78636SOL    HW237748  10.738   0.095   7.595
78637SOL     OW37749  10.270   2.198   1.591
78637SOL    HW137750  10.236   2.194   1.502
78637SOL    HW237751  10.230   2.276   1.629
78638SOL     OW37752   0.092  10.473   5.031
78638SOL    HW137753   0.039  10.501   4.957
78638SOL    HW237754   0.089  10.546   5.092
78639SOL     OW37755   2.830   7.553   4.090
78639SOL    HW137756   2.834   7.518   4.001
78639SOL    HW237757   2.746   7.522   4.124
78640SOL     OW37758   2.536   1.672   0.867
78640SOL    HW137759   2.621   1.708   0.843
78640SOL    HW237760   2.552   1.579   0.881
78641SOL     OW37761   3.476   5.821   6.011
78641SOL    HW137762   3.535   5.886   6.048
78641SOL    HW237763   3.393   5.868   5.999
78642SOL     OW37764   9.922   2.824   2.608
78642SOL    HW137765   9.976   2.882   2.662
78642SOL    HW237766   9.944   2.848   2.518
78643SOL     OW37767  10.658  11.002   1.449
78643SOL    HW137768  10.587  10.975   1.391
78643SOL    HW237769  10.704  11.070   1.401
78644SOL     OW37770   1.833  12.320  11.924
78644SOL    HW137771   1.751  12.312  11.972
78644SOL    HW237772   1.901  12.320  11.992
78645SOL     OW37773  10.589   3.133  11.895
78645SOL    HW137774  10.579   3.206  11.956
78645SOL    HW237775  10.542   3.160  11.816
78646SOL     OW37776   9.443   3.824   8.326
78646SOL    HW137777   9.440   3.872   8.410
78646SOL    HW237778   9.376   3.867   8.272
78647SOL     OW37779  12.676  14.381   9.217
78647SOL    HW137780  12.605  14.362   9.278
78647SOL    HW237781  12.669  14.312   9.151
78648SOL     OW37782   1.088   8.254   9.304
78648SOL    HW137783   1.061   8.169   9.268
78648SOL    HW237784   1.012   8.310   9.294
78649SOL     OW37785   9.114   6.776   9.922
78649SOL    HW137786   9.111   6.765   9.827
78649SOL    HW237787   9.206   6.792   9.941
78650SOL     OW37788   9.326   8.293   1.763
78650SOL    HW137789   9.251   8.238   1.785
78650SOL    HW237790   9.398   8.257   1.816
78651SOL     OW37791   9.642   5.696   2.657
78651SOL    HW137792   9.620   5.745   2.578
78651SOL    HW237793   9.720   5.645   2.632
78652SOL     OW37794   8.576   2.243   9.119
78652SOL    HW137795   8.510   2.264   9.054
78652SOL    HW237796   8.548   2.160   9.157
78653SOL     OW37797   2.787   5.632  14.641
78653SOL    HW137798   2.813   5.595  14.556
78653SOL    HW237799   2.828   5.718  14.643
78654SOL     OW37800   3.889  11.003  13.967
78654SOL    HW137801   3.917  10.925  13.919
78654SOL    HW237802   3.799  11.018  13.938
78655SOL     OW37803   3.277  12.828   8.961
78655SOL    HW137804   3.189  12.799   8.936
78655SOL    HW237805   3.305  12.883   8.888
78656SOL     OW37806  11.685   1.651   3.179
78656SOL    HW137807  11.721   1.740   3.176
78656SOL    HW237808  11.594   1.664   3.207
78657SOL     OW37809  10.642   5.479  13.418
78657SOL    HW137810  10.715   5.511  13.471
78657SOL    HW237811  10.583   5.438  13.480
78658SOL     OW37812  14.382   7.216  11.805
78658SOL    HW137813  14.335   7.218  11.888
78658SOL    HW237814  14.334   7.151  11.753
78659SOL     OW37815   5.205   6.926   6.057
78659SOL    HW137816   5.144   6.923   6.130
78659SOL    HW237817   5.283   6.881   6.089
78660SOL     OW37818   0.911   1.977   2.582
78660SOL    HW137819   0.945   1.957   2.495
78660SOL    HW237820   0.831   1.924   2.589
78661SOL     OW37821  11.361   5.908  13.073
78661SOL    HW137822  11.428   5.845  13.046
78661SOL    HW237823  11.401   5.954  13.147
78662SOL     OW37824  13.156   1.987   9.458
78662SOL    HW137825  13.214   1.996   9.383
78662SOL    HW237826  13.148   2.076   9.493
78663SOL     OW37827   4.478   1.500  11.218
78663SOL    HW137828   4.462   1.591  11.242
78663SOL    HW237829   4.574   1.492  11.216
78664SOL     OW37830  13.989   4.827  12.877
78664SOL    HW137831  14.008   4.918  12.854
78664SOL    HW237832  13.894   4.819  12.868
78665SOL     OW37833   1.264   6.133   1.995
78665SOL    HW137834   1.263   6.089   1.910
78665SOL    HW237835   1.345   6.103   2.036
78666SOL     OW37836   5.716   3.467  12.614
78666SOL    HW137837   5.716   3.381  12.656
78666SOL    HW237838   5.793   3.511  12.649
78667SOL     OW37839   0.713  13.822   7.912
78667SOL    HW137840   0.746  13.854   7.996
78667SOL    HW237841   0.709  13.899   7.856
78668SOL     OW37842   3.187  12.372   2.897
78668SOL    HW137843   3.201  12.357   2.991
78668SOL    HW237844   3.108  12.322   2.877
78669SOL     OW37845   2.666   2.025  14.800
78669SOL    HW137846   2.711   1.942  14.814
78669SOL    HW237847   2.719   2.090  14.847
78670SOL     OW37848   9.562   7.262   9.768
78670SOL    HW137849   9.516   7.293   9.846
78670SOL    HW237850   9.503   7.196   9.730
78671SOL     OW37851   1.667   9.469   3.140
78671SOL    HW137852   1.693   9.440   3.052
78671SOL    HW237853   1.576   9.495   3.130
78672SOL     OW37854   9.789  12.953   3.666
78672SOL    HW137855   9.777  12.863   3.694
78672SOL    HW237856   9.790  13.004   3.747
78673SOL     OW37857  14.475   8.508  11.920
78673SOL    HW137858  14.408   8.443  11.942
78673SOL    HW237859  14.463   8.523  11.826
78674SOL     OW37860   3.020  13.837   8.946
78674SOL    HW137861   2.997  13.792   9.027
78674SOL    HW237862   2.953  13.905   8.937
78675SOL     OW37863   7.498   8.763  10.012
78675SOL    HW137864   7.551   8.755   9.932
78675SOL    HW237865   7.552   8.815  10.071
78676SOL     OW37866  12.963   6.211   3.281
78676SOL    HW137867  12.986   6.274   3.214
78676SOL    HW237868  12.937   6.132   3.233
78677SOL     OW37869   8.026   4.783   3.840
78677SOL    HW137870   8.051   4.840   3.912
78677SOL    HW237871   8.041   4.694   3.873
78678SOL     OW37872   1.789   6.989   1.091
78678SOL    HW137873   1.757   6.902   1.114
78678SOL    HW237874   1.738   7.013   1.014
78679SOL     OW37875   8.709   7.260   3.632
78679SOL    HW137876   8.769   7.309   3.576
78679SOL    HW237877   8.697   7.176   3.586
78680SOL     OW37878  10.892   7.000  12.506
78680SOL    HW137879  10.830   6.932  12.480
78680SOL    HW237880  10.849   7.047  12.577
78681SOL     OW37881   8.138   9.373   0.499
78681SOL    HW137882   8.197   9.418   0.559
78681SOL    HW237883   8.074   9.441   0.474
78682SOL     OW37884   8.579  14.474   9.194
78682SOL    HW137885   8.638  14.412   9.152
78682SOL    HW237886   8.631  14.554   9.203
78683SOL     OW37887  13.080  11.767   7.937
78683SOL    HW137888  13.082  11.843   7.994
78683SOL    HW237889  12.994  11.772   7.893
78684SOL     OW37890   9.979   5.575   9.578
78684SOL    HW137891  10.053   5.560   9.636
78684SOL    HW237892   9.964   5.491   9.535
78685SOL     OW37893   1.310   1.245   3.623
78685SOL    HW137894   1.219   1.237   3.596
78685SOL    HW237895   1.333   1.159   3.659
78686SOL     OW37896   2.393   5.467   4.506
78686SOL    HW137897   2.413   5.475   4.599
78686SOL    HW237898   2.448   5.534   4.464
78687SOL     OW37899   8.658   0.991  10.058
78687SOL    HW137900   8.598   0.931  10.102
78687SOL    HW237901   8.604   1.039   9.995
78688SOL     OW37902   1.817  11.345   1.914
78688SOL    HW137903   1.762  11.302   1.980
78688SOL    HW237904   1.800  11.438   1.926
78689SOL     OW37905   9.759   7.455   4.932
78689SOL    HW137906   9.806   7.509   4.996
78689SOL    HW237907   9.715   7.388   4.983
78690SOL     OW37908   7.544  13.934   3.831
78690SOL    HW137909   7.454  13.923   3.801
78690SOL    HW237910   7.594  13.870   3.781
78691SOL     OW37911  12.445   2.585   2.282
78691SOL    HW137912  12.355   2.618   2.279
78691SOL    HW237913  12.499   2.661   2.261
78692SOL     OW37914  10.459   5.231  14.774
78692SOL    HW137915  10.404   5.153  14.773
78692SOL    HW237916  10.420   5.286  14.842
78693SOL     OW37917  10.597   9.356  14.633
78693SOL    HW137918  10.531   9.321  14.573
78693SOL    HW237919  10.674   9.370  14.579
78694SOL     OW37920   9.161   3.868   3.950
78694SOL    HW137921   9.073   3.887   3.981
78694SOL    HW237922   9.219   3.912   4.013
78695SOL     OW37923  10.997  11.447  12.867
78695SOL    HW137924  11.091  11.451  12.880
78695SOL    HW237925  10.982  11.497  12.786
78696SOL     OW37926  14.374   2.472   8.233
78696SOL    HW137927  14.383   2.507   8.144
78696SOL    HW237928  14.285   2.437   8.236
78697SOL     OW37929   9.368  14.080  12.243
78697SOL    HW137930   9.443  14.113  12.293
78697SOL    HW237931   9.346  13.997  12.285
78698SOL     OW37932  14.037   0.878   4.424
78698SOL    HW137933  14.074   0.934   4.356
78698SOL    HW237934  13.963   0.835   4.382
78699SOL     OW37935   3.988   4.960  12.764
78699SOL    HW137936   3.901   4.920  12.758
78699SOL    HW237937   3.993   4.992  12.854
78700SOL     OW37938   6.825  14.581   3.672
78700SOL    HW137939   6.863  14.510   3.725
78700SOL    HW237940   6.850  14.661   3.718
78701SOL     OW37941  14.498   1.368   8.037
78701SOL    HW137942  14.420   1.336   8.083
78701SOL    HW237943  14.510   1.457   8.071
78702SOL     OW37944  12.081   9.648  13.642
78702SOL    HW137945  12.044   9.606  13.720
78702SOL    HW237946  12.141   9.583  13.605
78703SOL     OW37947   1.735   4.846   4.438
78703SOL    HW137948   1.781   4.769   4.402
78703SOL    HW237949   1.790   4.875   4.511
78704SOL     OW37950  10.761  13.560   4.868
78704SOL    HW137951  10.780  13.477   4.823
78704SOL    HW237952  10.799  13.549   4.955
78705SOL     OW37953   5.182   0.716  12.463
78705SOL    HW137954   5.179   0.632  12.508
78705SOL    HW237955   5.113   0.768  12.504
78706SOL     OW37956   5.403   4.271   3.760
78706SOL    HW137957   5.333   4.209   3.741
78706SOL    HW237958   5.457   4.228   3.826
78707SOL     OW37959   2.376   3.908   9.401
78707SOL    HW137960   2.367   3.849   9.327
78707SOL    HW237961   2.386   3.851   9.477
78708SOL     OW37962   4.815   6.038   4.290
78708SOL    HW137963   4.796   5.945   4.300
78708SOL    HW237964   4.811   6.054   4.195
78709SOL     OW37965   5.763   1.453  14.592
78709SOL    HW137966   5.763   1.530  14.535
78709SOL    HW237967   5.761   1.378  14.532
78710SOL     OW37968   1.380  13.608   1.518
78710SOL    HW137969   1.408  13.516   1.530
78710SOL    HW237970   1.286  13.607   1.537
78711SOL     OW37971  10.243   0.796  12.505
78711SOL    HW137972  10.300   0.769  12.577
78711SOL    HW237973  10.295   0.859  12.455
78712SOL     OW37974   2.352   1.061   1.522
78712SOL    HW137975   2.443   1.070   1.496
78712SOL    HW237976   2.342   1.119   1.597
78713SOL     OW37977   5.918   9.767   9.264
78713SOL    HW137978   5.825   9.768   9.240
78713SOL    HW237979   5.924   9.699   9.332
78714SOL     OW37980  12.437   1.817  11.359
78714SOL    HW137981  12.525   1.853  11.351
78714SOL    HW237982  12.434   1.746  11.295
78715SOL     OW37983  13.316  10.362  11.401
78715SOL    HW137984  13.382  10.389  11.464
78715SOL    HW237985  13.358  10.291  11.351
78716SOL     OW37986   7.951  13.504   5.867
78716SOL    HW137987   7.963  13.598   5.858
78716SOL    HW237988   8.038  13.470   5.887
78717SOL     OW37989  14.217   1.144   8.517
78717SOL    HW137990  14.297   1.092   8.525
78717SOL    HW237991  14.147   1.084   8.543
78718SOL     OW37992   4.119   2.819  12.228
78718SOL    HW137993   4.061   2.743  12.231
78718SOL    HW237994   4.073   2.882  12.172
78719SOL     OW37995   1.048   3.203  10.703
78719SOL    HW137996   0.969   3.192  10.650
78719SOL    HW237997   1.034   3.284  10.751
78720SOL     OW37998  14.376   7.804   6.565
78720SOL    HW137999  14.427   7.854   6.502
78720SOL    HW238000  14.370   7.716   6.527
78721SOL     OW38001   7.511   1.998   5.491
78721SOL    HW138002   7.452   2.072   5.477
78721SOL    HW238003   7.494   1.940   5.416
78722SOL     OW38004   0.773   8.868   5.643
78722SOL    HW138005   0.847   8.822   5.682
78722SOL    HW238006   0.779   8.847   5.549
78723SOL     OW38007   9.356   2.762   6.569
78723SOL    HW138008   9.299   2.700   6.614
78723SOL    HW238009   9.297   2.829   6.534
78724SOL     OW38010   9.024  10.312   8.238
78724SOL    HW138011   8.966  10.274   8.173
78724SOL    HW238012   8.976  10.388   8.271
78725SOL     OW38013  13.752  13.130   5.505
78725SOL    HW138014  13.844  13.156   5.496
78725SOL    HW238015  13.713  13.153   5.421
78726SOL     OW38016  13.063   9.149  13.042
78726SOL    HW138017  13.055   9.088  13.115
78726SOL    HW238018  13.140   9.202  13.063
78727SOL     OW38019   6.041   6.936  13.099
78727SOL    HW138020   5.955   6.917  13.061
78727SOL    HW238021   6.049   7.031  13.094
78728SOL     OW38022   8.035   9.580   9.160
78728SOL    HW138023   8.031   9.484   9.159
78728SOL    HW238024   8.055   9.604   9.070
78729SOL     OW38025   8.944   4.959   8.638
78729SOL    HW138026   9.014   4.895   8.649
78729SOL    HW238027   8.931   4.964   8.543
78730SOL     OW38028   1.375   6.438   6.769
78730SOL    HW138029   1.421   6.503   6.715
78730SOL    HW238030   1.284   6.445   6.743
78731SOL     OW38031  14.144   6.045   6.571
78731SOL    HW138032  14.233   6.072   6.549
78731SOL    HW238033  14.119   6.103   6.644
78732SOL     OW38034   8.726   9.659  10.007
78732SOL    HW138035   8.765   9.595   9.948
78732SOL    HW238036   8.653   9.613  10.048
78733SOL     OW38037  14.570   1.661  10.934
78733SOL    HW138038  14.555   1.635  11.025
78733SOL    HW238039  14.660   1.692  10.932
78734SOL     OW38040   3.971   9.124   8.252
78734SOL    HW138041   3.943   9.034   8.270
78734SOL    HW238042   4.065   9.124   8.272
78735SOL     OW38043   2.718  12.801   9.117
78735SOL    HW138044   2.721  12.711   9.150
78735SOL    HW238045   2.714  12.791   9.022
78736SOL     OW38046   1.676   6.677  10.298
78736SOL    HW138047   1.621   6.605  10.266
78736SOL    HW238048   1.616   6.731  10.349
78737SOL     OW38049   0.347   6.505  12.182
78737SOL    HW138050   0.440   6.492  12.163
78737SOL    HW238051   0.326   6.435  12.244
78738SOL     OW38052  12.167  10.035   6.866
78738SOL    HW138053  12.083  10.002   6.833
78738SOL    HW238054  12.224  10.038   6.789
78739SOL     OW38055   5.218   3.243   3.758
78739SOL    HW138056   5.290   3.227   3.697
78739SOL    HW238057   5.149   3.183   3.731
78740SOL     OW38058   3.025  12.809  12.459
78740SOL    HW138059   2.990  12.855  12.383
78740SOL    HW238060   3.090  12.749  12.423
78741SOL     OW38061   6.345   5.790   8.494
78741SOL    HW138062   6.258   5.768   8.525
78741SOL    HW238063   6.405   5.751   8.558
78742SOL     OW38064   1.718   0.528   3.963
78742SOL    HW138065   1.730   0.584   3.886
78742SOL    HW238066   1.651   0.573   4.015
78743SOL     OW38067   6.099   7.486   6.822
78743SOL    HW138068   6.120   7.579   6.836
78743SOL    HW238069   6.032   7.486   6.754
78744SOL     OW38070   5.140   5.950   4.953
78744SOL    HW138071   5.177   6.021   5.006
78744SOL    HW238072   5.184   5.959   4.868
78745SOL     OW38073   9.576  14.738   8.166
78745SOL    HW138074   9.558  14.644   8.167
78745SOL    HW238075   9.529  14.773   8.241
78746SOL     OW38076  13.776   4.310   0.235
78746SOL    HW138077  13.745   4.383   0.289
78746SOL    HW238078  13.753   4.336   0.146
78747SOL     OW38079  13.403   2.670   5.391
78747SOL    HW138080  13.317   2.631   5.378
78747SOL    HW238081  13.461   2.619   5.334
78748SOL     OW38082  12.866   6.063   1.408
78748SOL    HW138083  12.958   6.060   1.384
78748SOL    HW238084  12.820   6.018   1.337
78749SOL     OW38085   3.669   6.939   8.257
78749SOL    HW138086   3.684   6.906   8.346
78749SOL    HW238087   3.577   6.963   8.256
78750SOL     OW38088   3.630  11.101   4.521
78750SOL    HW138089   3.574  11.095   4.598
78750SOL    HW238090   3.619  11.017   4.476
78751SOL     OW38091   8.582   2.256  10.797
78751SOL    HW138092   8.624   2.178  10.834
78751SOL    HW238093   8.611   2.328  10.852
78752SOL     OW38094   2.841  10.520  13.587
78752SOL    HW138095   2.751  10.543  13.608
78752SOL    HW238096   2.851  10.542  13.494
78753SOL     OW38097   0.971  12.717   4.870
78753SOL    HW138098   1.018  12.786   4.917
78753SOL    HW238099   0.911  12.765   4.813
78754SOL     OW38100   6.370   9.910   4.636
78754SOL    HW138101   6.348   9.951   4.720
78754SOL    HW238102   6.294   9.854   4.617
78755SOL     OW38103   0.571   1.363   6.669
78755SOL    HW138104   0.542   1.373   6.579
78755SOL    HW238105   0.663   1.339   6.663
78756SOL     OW38106   2.632  13.020   8.221
78756SOL    HW138107   2.595  12.980   8.143
78756SOL    HW238108   2.573  13.093   8.242
78757SOL     OW38109  11.698   2.576   9.245
78757SOL    HW138110  11.789   2.550   9.262
78757SOL    HW238111  11.662   2.505   9.193
78758SOL     OW38112   4.856   6.270   8.629
78758SOL    HW138113   4.878   6.355   8.590
78758SOL    HW238114   4.920   6.259   8.700
78759SOL     OW38115  12.326   2.632  10.098
78759SOL    HW138116  12.245   2.635  10.148
78759SOL    HW238117  12.364   2.546  10.118
78760SOL     OW38118   7.353  11.942  12.129
78760SOL    HW138119   7.389  11.853  12.124
78760SOL    HW238120   7.261  11.930  12.151
78761SOL     OW38121  13.638   2.885   0.492
78761SOL    HW138122  13.605   2.926   0.572
78761SOL    HW238123  13.610   2.793   0.499
78762SOL     OW38124  14.493  12.206   3.339
78762SOL    HW138125  14.569  12.154   3.315
78762SOL    HW238126  14.418  12.149   3.322
78763SOL     OW38127   0.929  10.843   9.497
78763SOL    HW138128   0.933  10.840   9.401
78763SOL    HW238129   1.012  10.883   9.523
78764SOL     OW38130  10.971  12.806   2.350
78764SOL    HW138131  10.944  12.890   2.314
78764SOL    HW238132  11.050  12.783   2.302
78765SOL     OW38133   4.259  13.553   0.293
78765SOL    HW138134   4.326  13.509   0.241
78765SOL    HW238135   4.307  13.590   0.367
78766SOL     OW38136  11.417   8.103   4.679
78766SOL    HW138137  11.389   8.170   4.741
78766SOL    HW238138  11.461   8.152   4.609
78767SOL     OW38139  12.202   8.828   8.662
78767SOL    HW138140  12.112   8.798   8.653
78767SOL    HW238141  12.251   8.749   8.684
78768SOL     OW38142  11.687   1.568  11.557
78768SOL    HW138143  11.644   1.521  11.629
78768SOL    HW238144  11.669   1.515  11.480
78769SOL     OW38145   6.032   9.148   3.825
78769SOL    HW138146   5.983   9.157   3.907
78769SOL    HW238147   6.120   9.177   3.846
78770SOL     OW38148  14.827   5.462  13.973
78770SOL    HW138149  14.773   5.540  13.959
78770SOL    HW238150  14.838   5.424  13.886
78771SOL     OW38151   3.318   7.219   0.414
78771SOL    HW138152   3.291   7.233   0.505
78771SOL    HW238153   3.406   7.255   0.410
78772SOL     OW38154   0.085   9.682   5.472
78772SOL    HW138155   0.112   9.773   5.484
78772SOL    HW238156   0.166   9.631   5.479
78773SOL     OW38157  13.812   1.116   0.892
78773SOL    HW138158  13.846   1.111   0.981
78773SOL    HW238159  13.777   1.028   0.874
78774SOL     OW38160   3.438   3.231   0.973
78774SOL    HW138161   3.434   3.305   1.033
78774SOL    HW238162   3.505   3.173   1.010
78775SOL     OW38163  13.641  11.226   6.186
78775SOL    HW138164  13.641  11.165   6.112
78775SOL    HW238165  13.687  11.179   6.256
78776SOL     OW38166   9.508   4.920  14.342
78776SOL    HW138167   9.426   4.898  14.387
78776SOL    HW238168   9.576   4.903  14.406
78777SOL     OW38169   4.101   4.971   6.084
78777SOL    HW138170   4.054   4.956   6.166
78777SOL    HW238171   4.182   5.014   6.110
78778SOL     OW38172   8.224  10.277   9.178
78778SOL    HW138173   8.135  10.310   9.165
78778SOL    HW238174   8.229  10.259   9.272
78779SOL     OW38175  14.033  12.638   0.954
78779SOL    HW138176  14.126  12.619   0.965
78779SOL    HW238177  14.025  12.730   0.978
78780SOL     OW38178   3.836   1.346   2.721
78780SOL    HW138179   3.846   1.407   2.794
78780SOL    HW238180   3.823   1.401   2.644
78781SOL     OW38181   6.127   6.950   3.447
78781SOL    HW138182   6.072   6.946   3.525
78781SOL    HW238183   6.175   7.032   3.456
78782SOL     OW38184   9.243   5.791  13.050
78782SOL    HW138185   9.258   5.816  12.959
78782SOL    HW238186   9.310   5.838  13.100
78783SOL     OW38187   8.183   3.961   9.821
78783SOL    HW138188   8.092   3.936   9.806
78783SOL    HW238189   8.192   4.046   9.778
78784SOL     OW38190  13.489   1.444   7.022
78784SOL    HW138191  13.481   1.359   7.066
78784SOL    HW238192  13.438   1.434   6.942
78785SOL     OW38193  10.137   3.851   2.770
78785SOL    HW138194  10.156   3.759   2.786
78785SOL    HW238195  10.223   3.891   2.757
78786SOL     OW38196   2.819   4.121   4.247
78786SOL    HW138197   2.794   4.043   4.197
78786SOL    HW238198   2.743   4.141   4.301
78787SOL     OW38199   9.142   7.635  12.923
78787SOL    HW138200   9.135   7.704  12.856
78787SOL    HW238201   9.055   7.597  12.927
78788SOL     OW38202   9.939   4.247   4.119
78788SOL    HW138203  10.028   4.226   4.089
78788SOL    HW238204   9.943   4.239   4.214
78789SOL     OW38205   1.433   3.596   8.813
78789SOL    HW138206   1.445   3.687   8.840
78789SOL    HW238207   1.351   3.570   8.856
78790SOL     OW38208   3.566   9.701   1.793
78790SOL    HW138209   3.487   9.654   1.818
78790SOL    HW238210   3.590   9.751   1.871
78791SOL     OW38211   9.167   7.705   2.441
78791SOL    HW138212   9.257   7.674   2.452
78791SOL    HW238213   9.168   7.755   2.359
78792SOL     OW38214  10.582   6.907  12.926
78792SOL    HW138215  10.578   6.815  12.951
78792SOL    HW238216  10.545   6.954  13.000
78793SOL     OW38217  14.778   7.975  11.298
78793SOL    HW138218  14.721   8.003  11.226
78793SOL    HW238219  14.731   8.002  11.377
78794SOL     OW38220   1.258   3.219  13.678
78794SOL    HW138221   1.238   3.152  13.612
78794SOL    HW238222   1.247   3.173  13.762
78795SOL     OW38223  12.866   3.175   1.546
78795SOL    HW138224  12.877   3.148   1.455
78795SOL    HW238225  12.955   3.184   1.579
78796SOL     OW38226  13.507   6.103  11.125
78796SOL    HW138227  13.580   6.101  11.188
78796SOL    HW238228  13.507   6.192  11.091
78797SOL     OW38229   7.183  12.221   6.877
78797SOL    HW138230   7.236  12.148   6.847
78797SOL    HW238231   7.141  12.255   6.798
78798SOL     OW38232   6.311   7.912   3.041
78798SOL    HW138233   6.400   7.882   3.057
78798SOL    HW238234   6.307   7.998   3.081
78799SOL     OW38235  12.412   7.681   4.615
78799SOL    HW138236  12.416   7.598   4.567
78799SOL    HW238237  12.442   7.747   4.552
78800SOL     OW38238   1.880   1.095   2.922
78800SOL    HW138239   1.892   1.126   2.833
78800SOL    HW238240   1.794   1.052   2.921
78801SOL     OW38241  13.749  13.628   5.392
78801SOL    HW138242  13.678  13.645   5.453
78801SOL    HW238243  13.714  13.564   5.331
78802SOL     OW38244  11.107   9.509   5.261
78802SOL    HW138245  11.043   9.536   5.327
78802SOL    HW238246  11.122   9.416   5.279
78803SOL     OW38247   2.799   4.177  11.009
78803SOL    HW138248   2.753   4.177  10.925
78803SOL    HW238249   2.763   4.102  11.056
78804SOL     OW38250   6.271  14.013  11.364
78804SOL    HW138251   6.324  14.072  11.312
78804SOL    HW238252   6.319  13.930  11.363
78805SOL     OW38253   3.477   4.625   8.362
78805SOL    HW138254   3.394   4.583   8.382
78805SOL    HW238255   3.481   4.700   8.421
78806SOL     OW38256  10.602   8.166   6.357
78806SOL    HW138257  10.590   8.081   6.316
78806SOL    HW238258  10.602   8.228   6.285
78807SOL     OW38259   4.455   1.257  11.051
78807SOL    HW138260   4.387   1.288  10.991
78807SOL    HW238261   4.467   1.329  11.113
78808SOL     OW38262  10.799   7.969  10.187
78808SOL    HW138263  10.824   7.996  10.275
78808SOL    HW238264  10.726   7.909  10.200
78809SOL     OW38265   2.141  13.591   8.985
78809SOL    HW138266   2.108  13.649   9.053
78809SOL    HW238267   2.067  13.581   8.924
78810SOL     OW38268  10.109   4.163   5.682
78810SOL    HW138269  10.163   4.198   5.753
78810SOL    HW238270  10.019   4.175   5.713
78811SOL     OW38271   8.915  12.849  10.536
78811SOL    HW138272   8.822  12.862  10.517
78811SOL    HW238273   8.959  12.922  10.491
78812SOL     OW38274  11.911   6.718   0.775
78812SOL    HW138275  11.887   6.652   0.840
78812SOL    HW238276  11.832   6.729   0.721
78813SOL     OW38277  10.827   8.729  14.636
78813SOL    HW138278  10.793   8.712  14.548
78813SOL    HW238279  10.753   8.710  14.694
78814SOL     OW38280   3.299   2.123   5.935
78814SOL    HW138281   3.235   2.188   5.908
78814SOL    HW238282   3.359   2.115   5.861
78815SOL     OW38283  10.544  13.300   9.566
78815SOL    HW138284  10.623  13.314   9.620
78815SOL    HW238285  10.548  13.369   9.500
78816SOL     OW38286  12.328   4.336   6.636
78816SOL    HW138287  12.315   4.403   6.703
78816SOL    HW238288  12.303   4.378   6.554
78817SOL     OW38289   9.570  11.767  14.746
78817SOL    HW138290   9.602  11.796  14.661
78817SOL    HW238291   9.564  11.846  14.799
78818SOL     OW38292  13.784   0.959   2.517
78818SOL    HW138293  13.879   0.945   2.510
78818SOL    HW238294  13.746   0.873   2.505
78819SOL     OW38295  14.603   9.558  14.081
78819SOL    HW138296  14.655   9.633  14.054
78819SOL    HW238297  14.522   9.595  14.115
78820SOL     OW38298   8.934   7.596   6.441
78820SOL    HW138299   9.023   7.626   6.462
78820SOL    HW238300   8.916   7.633   6.355
78821SOL     OW38301   9.351   1.928  12.189
78821SOL    HW138302   9.366   2.022  12.198
78821SOL    HW238303   9.431   1.888  12.222
78822SOL     OW38304  11.049  13.139   8.225
78822SOL    HW138305  11.049  13.184   8.140
78822SOL    HW238306  11.067  13.047   8.204
78823SOL     OW38307   3.842  13.887   5.415
78823SOL    HW138308   3.783  13.837   5.472
78823SOL    HW238309   3.904  13.928   5.474
78824SOL     OW38310   7.563   0.450  11.749
78824SOL    HW138311   7.627   0.393  11.708
78824SOL    HW238312   7.528   0.399  11.822
78825SOL     OW38313   7.847  14.289   7.775
78825SOL    HW138314   7.897  14.366   7.802
78825SOL    HW238315   7.766  14.324   7.738
78826SOL     OW38316   7.167   7.169   1.863
78826SOL    HW138317   7.212   7.181   1.779
78826SOL    HW238318   7.165   7.074   1.876
78827SOL     OW38319   5.051   5.762   4.730
78827SOL    HW138320   5.031   5.718   4.813
78827SOL    HW238321   4.997   5.718   4.665
78828SOL     OW38322   2.971  11.132   9.161
78828SOL    HW138323   2.980  11.062   9.226
78828SOL    HW238324   3.010  11.096   9.081
78829SOL     OW38325   8.609   4.953   8.536
78829SOL    HW138326   8.661   4.966   8.457
78829SOL    HW238327   8.621   4.860   8.557
78830SOL     OW38328  11.962   3.893  14.737
78830SOL    HW138329  11.989   3.952  14.808
78830SOL    HW238330  11.932   3.814  14.781
78831SOL     OW38331   8.871   2.420   8.841
78831SOL    HW138332   8.949   2.470   8.867
78831SOL    HW238333   8.874   2.341   8.896
78832SOL     OW38334   6.885   6.197  13.993
78832SOL    HW138335   6.885   6.108  14.030
78832SOL    HW238336   6.813   6.196  13.929
78833SOL     OW38337  11.406   2.247  10.300
78833SOL    HW138338  11.474   2.245  10.234
78833SOL    HW238339  11.406   2.159  10.338
78834SOL     OW38340   1.502   0.838   1.173
78834SOL    HW138341   1.543   0.753   1.162
78834SOL    HW238342   1.478   0.842   1.266
78835SOL     OW38343  10.254   9.566   0.534
78835SOL    HW138344  10.300   9.633   0.484
78835SOL    HW238345  10.305   9.557   0.615
78836SOL     OW38346   0.096   6.144  10.814
78836SOL    HW138347   0.076   6.067  10.867
78836SOL    HW238348   0.155   6.111  10.746
78837SOL     OW38349   7.665  13.160   7.690
78837SOL    HW138350   7.626  13.237   7.732
78837SOL    HW238351   7.593  13.119   7.643
78838SOL     OW38352   5.441   6.602  11.030
78838SOL    HW138353   5.394   6.625  11.110
78838SOL    HW238354   5.375   6.562  10.974
78839SOL     OW38355   1.950  11.011   2.338
78839SOL    HW138356   1.957  10.916   2.327
78839SOL    HW238357   1.857  11.029   2.326
78840SOL     OW38358   0.525   7.543  12.253
78840SOL    HW138359   0.543   7.457  12.291
78840SOL    HW238360   0.555   7.605  12.320
78841SOL     OW38361   3.418   3.262   6.193
78841SOL    HW138362   3.490   3.315   6.160
78841SOL    HW238363   3.340   3.296   6.148
78842SOL     OW38364   3.301   2.064  10.943
78842SOL    HW138365   3.391   2.073  10.910
78842SOL    HW238366   3.254   2.020  10.873
78843SOL     OW38367  14.806   4.576   4.303
78843SOL    HW138368  14.798   4.494   4.352
78843SOL    HW238369  14.874   4.625   4.349
78844SOL     OW38370   6.042   8.770  13.427
78844SOL    HW138371   6.075   8.850  13.387
78844SOL    HW238372   5.947   8.777  13.419
78845SOL     OW38373  14.444   5.949  10.516
78845SOL    HW138374  14.540   5.942  10.512
78845SOL    HW238375  14.415   5.859  10.530
78846SOL     OW38376   9.655   3.632   9.264
78846SOL    HW138377   9.567   3.623   9.228
78846SOL    HW238378   9.713   3.613   9.190
78847SOL     OW38379   4.033   9.595  13.129
78847SOL    HW138380   3.978   9.612  13.205
78847SOL    HW238381   3.992   9.644  13.058
78848SOL     OW38382  13.884  11.022  10.566
78848SOL    HW138383  13.805  10.993  10.610
78848SOL    HW238384  13.910  11.102  10.612
78849SOL     OW38385   6.609   7.663   8.926
78849SOL    HW138386   6.543   7.666   8.857
78849SOL    HW238387   6.605   7.751   8.966
78850SOL     OW38388   7.467   7.618   7.249
78850SOL    HW138389   7.500   7.568   7.324
78850SOL    HW238390   7.412   7.687   7.289
78851SOL     OW38391   9.964   8.733  10.289
78851SOL    HW138392  10.022   8.758  10.360
78851SOL    HW238393  10.021   8.688  10.226
78852SOL     OW38394   0.749  11.410   4.119
78852SOL    HW138395   0.767  11.463   4.196
78852SOL    HW238396   0.794  11.454   4.047
78853SOL     OW38397  12.139   9.620   5.566
78853SOL    HW138398  12.083   9.696   5.549
78853SOL    HW238399  12.119   9.596   5.657
78854SOL     OW38400   9.062  14.455   1.580
78854SOL    HW138401   8.970  14.431   1.572
78854SOL    HW238402   9.080  14.449   1.674
78855SOL     OW38403   6.838   3.853   6.338
78855SOL    HW138404   6.758   3.897   6.369
78855SOL    HW238405   6.881   3.823   6.418
78856SOL     OW38406   6.076   7.889   9.271
78856SOL    HW138407   6.119   7.957   9.218
78856SOL    HW238408   6.137   7.815   9.268
78857SOL     OW38409   6.158   9.783   1.063
78857SOL    HW138410   6.119   9.747   0.984
78857SOL    HW238411   6.148   9.715   1.129
78858SOL     OW38412   1.058  14.089  12.217
78858SOL    HW138413   1.047  14.172  12.170
78858SOL    HW238414   1.145  14.095  12.257
78859SOL     OW38415  11.229   2.939   7.493
78859SOL    HW138416  11.145   2.913   7.455
78859SOL    HW238417  11.253   3.019   7.446
78860SOL     OW38418   8.356   7.432  12.567
78860SOL    HW138419   8.279   7.384  12.597
78860SOL    HW238420   8.377   7.392  12.482
78861SOL     OW38421   8.408   9.142   2.742
78861SOL    HW138422   8.359   9.062   2.723
78861SOL    HW238423   8.451   9.164   2.659
78862SOL     OW38424   8.298   0.008   4.313
78862SOL    HW138425   8.238  14.843   4.253
78862SOL    HW238426   8.343  14.817   4.359
78863SOL     OW38427  12.904  12.711   4.747
78863SOL    HW138428  12.909  12.675   4.836
78863SOL    HW238429  12.832  12.774   4.751
78864SOL     OW38430   6.153  11.870   6.775
78864SOL    HW138431   6.178  11.810   6.845
78864SOL    HW238432   6.113  11.813   6.708
78865SOL     OW38433   9.641  14.723   9.588
78865SOL    HW138434   9.632  14.754   9.678
78865SOL    HW238435   9.557  14.746   9.547
78866SOL     OW38436   6.506  11.473   2.396
78866SOL    HW138437   6.467  11.523   2.468
78866SOL    HW238438   6.431  11.445   2.343
78867SOL     OW38439   8.131  12.847   3.254
78867SOL    HW138440   8.040  12.834   3.226
78867SOL    HW238441   8.130  12.930   3.301
78868SOL     OW38442   4.927   2.816   0.248
78868SOL    HW138443   4.923   2.908   0.220
78868SOL    HW238444   4.854   2.806   0.308
78869SOL     OW38445  14.258   5.472   8.531
78869SOL    HW138446  14.228   5.432   8.449
78869SOL    HW238447  14.342   5.511   8.509
78870SOL     OW38448  14.315   1.206   2.319
78870SOL    HW138449  14.243   1.251   2.275
78870SOL    HW238450  14.384   1.271   2.325
78871SOL     OW38451  13.555   3.030   9.737
78871SOL    HW138452  13.544   3.045   9.831
78871SOL    HW238453  13.646   3.004   9.727
78872SOL     OW38454   8.751  11.288   6.290
78872SOL    HW138455   8.834  11.323   6.256
78872SOL    HW238456   8.689  11.361   6.281
78873SOL     OW38457   7.296  13.675  11.356
78873SOL    HW138458   7.359  13.660  11.285
78873SOL    HW238459   7.258  13.588  11.373
78874SOL     OW38460   1.775  13.944   8.025
78874SOL    HW138461   1.854  13.924   8.076
78874SOL    HW238462   1.809  13.978   7.941
78875SOL     OW38463  14.860   6.607   7.787
78875SOL    HW138464  14.853   6.512   7.784
78875SOL    HW238465   0.064   6.623   7.831
78876SOL     OW38466   7.357   8.712  13.958
78876SOL    HW138467   7.278   8.719  14.012
78876SOL    HW238468   7.327   8.677  13.874
78877SOL     OW38469  11.256  10.844   1.485
78877SOL    HW138470  11.338  10.796   1.474
78877SOL    HW238471  11.206  10.825   1.406
78878SOL     OW38472   9.672   4.504   6.846
78878SOL    HW138473   9.630   4.482   6.929
78878SOL    HW238474   9.707   4.592   6.859
78879SOL     OW38475   1.500   7.334   7.080
78879SOL    HW138476   1.500   7.250   7.127
78879SOL    HW238477   1.566   7.323   7.012
78880SOL     OW38478  14.832   2.620  14.175
78880SOL    HW138479  14.767   2.672  14.221
78880SOL    HW238480  14.847   2.544  14.231
78881SOL     OW38481   9.714  12.355  13.164
78881SOL    HW138482   9.786  12.311  13.208
78881SOL    HW238483   9.733  12.448  13.176
78882SOL     OW38484   9.601   3.381   9.752
78882SOL    HW138485   9.509   3.357   9.762
78882SOL    HW238486   9.603   3.436   9.674
78883SOL     OW38487  11.991   3.064   4.149
78883SOL    HW138488  12.016   3.151   4.179
78883SOL    HW238489  11.977   3.074   4.055
78884SOL     OW38490  13.589   2.140  11.290
78884SOL    HW138491  13.604   2.086  11.368
78884SOL    HW238492  13.539   2.084  11.231
78885SOL     OW38493   2.551   4.971  11.350
78885SOL    HW138494   2.573   4.990  11.441
78885SOL    HW238495   2.610   5.026  11.299
78886SOL     OW38496   3.358   0.481   9.726
78886SOL    HW138497   3.322   0.461   9.639
78886SOL    HW238498   3.440   0.431   9.730
78887SOL     OW38499   2.300   9.688   9.829
78887SOL    HW138500   2.238   9.743   9.876
78887SOL    HW238501   2.334   9.627   9.895
78888SOL     OW38502   5.922   3.845  10.235
78888SOL    HW138503   5.909   3.766  10.287
78888SOL    HW238504   5.883   3.915  10.287
78889SOL     OW38505   3.880  14.345   6.788
78889SOL    HW138506   3.850  14.425   6.744
78889SOL    HW238507   3.830  14.275   6.748
78890SOL     OW38508  11.463   8.475  13.074
78890SOL    HW138509  11.492   8.461  13.164
78890SOL    HW238510  11.368   8.486  13.080
78891SOL     OW38511   4.762  10.054   4.305
78891SOL    HW138512   4.803  10.019   4.384
78891SOL    HW238513   4.828  10.041   4.236
78892SOL     OW38514  11.154  10.846   0.637
78892SOL    HW138515  11.240  10.804   0.641
78892SOL    HW238516  11.094  10.775   0.613
78893SOL     OW38517  14.189   8.318   3.256
78893SOL    HW138518  14.266   8.316   3.198
78893SOL    HW238519  14.208   8.387   3.319
78894SOL     OW38520  10.726   7.287   4.982
78894SOL    HW138521  10.796   7.351   4.989
78894SOL    HW238522  10.763   7.206   5.018
78895SOL     OW38523   4.510   5.479   9.535
78895SOL    HW138524   4.542   5.472   9.625
78895SOL    HW238525   4.418   5.505   9.545
78896SOL     OW38526   3.328  14.069   2.775
78896SOL    HW138527   3.393  14.027   2.720
78896SOL    HW238528   3.366  14.154   2.797
78897SOL     OW38529  12.812   5.398   4.491
78897SOL    HW138530  12.900   5.362   4.499
78897SOL    HW238531  12.757   5.323   4.469
78898SOL     OW38532   0.012  11.587   3.830
78898SOL    HW138533  14.854  11.532   3.761
78898SOL    HW238534   0.080  11.532   3.869
78899SOL     OW38535   6.989   8.938   0.557
78899SOL    HW138536   6.960   8.892   0.478
78899SOL    HW238537   6.921   9.004   0.573
78900SOL     OW38538   0.245  12.421   6.880
78900SOL    HW138539   0.337  12.402   6.863
78900SOL    HW238540   0.205  12.336   6.899
78901SOL     OW38541   2.965  13.509   1.132
78901SOL    HW138542   2.935  13.433   1.181
78901SOL    HW238543   2.989  13.474   1.046
78902SOL     OW38544  10.543   2.534  13.071
78902SOL    HW138545  10.615   2.471  13.082
78902SOL    HW238546  10.464   2.481  13.081
78903SOL     OW38547   3.260   5.893  11.127
78903SOL    HW138548   3.166   5.877  11.136
78903SOL    HW238549   3.279   5.871  11.036
78904SOL     OW38550   3.005  10.363   5.030
78904SOL    HW138551   3.080  10.318   5.069
78904SOL    HW238552   3.029  10.375   4.938
78905SOL     OW38553  10.763   3.513  13.017
78905SOL    HW138554  10.756   3.574  13.090
78905SOL    HW238555  10.712   3.553  12.946
78906SOL     OW38556  12.818  10.809  12.867
78906SOL    HW138557  12.782  10.879  12.921
78906SOL    HW238558  12.846  10.742  12.930
78907SOL     OW38559   1.513   5.338   2.267
78907SOL    HW138560   1.458   5.416   2.268
78907SOL    HW238561   1.460   5.270   2.309
78908SOL     OW38562  11.173   7.195  10.728
78908SOL    HW138563  11.117   7.132  10.682
78908SOL    HW238564  11.256   7.192  10.681
78909SOL     OW38565  13.500  12.014   3.118
78909SOL    HW138566  13.458  12.061   3.046
78909SOL    HW238567  13.447  12.035   3.194
78910SOL     OW38568   0.874   8.753   4.148
78910SOL    HW138569   0.788   8.711   4.141
78910SOL    HW238570   0.868   8.829   4.090
78911SOL     OW38571   5.956  10.063  14.283
78911SOL    HW138572   5.862  10.062  14.263
78911SOL    HW238573   5.991   9.986  14.238
78912SOL     OW38574   6.220   1.100   5.192
78912SOL    HW138575   6.251   1.157   5.263
78912SOL    HW238576   6.257   1.014   5.212
78913SOL     OW38577  10.907  13.226  14.265
78913SOL    HW138578  10.983  13.227  14.206
78913SOL    HW238579  10.918  13.305  14.319
78914SOL     OW38580   6.506  14.182   9.900
78914SOL    HW138581   6.523  14.223   9.816
78914SOL    HW238582   6.593  14.160   9.934
78915SOL     OW38583   3.199   8.845   6.017
78915SOL    HW138584   3.147   8.926   6.020
78915SOL    HW238585   3.160   8.789   6.083
78916SOL     OW38586   1.704   7.146   7.387
78916SOL    HW138587   1.638   7.128   7.321
78916SOL    HW238588   1.766   7.206   7.344
78917SOL     OW38589  13.604   7.878   6.469
78917SOL    HW138590  13.628   7.965   6.436
78917SOL    HW238591  13.666   7.819   6.425
78918SOL     OW38592   8.382  11.797  10.821
78918SOL    HW138593   8.394  11.797  10.916
78918SOL    HW238594   8.294  11.762  10.808
78919SOL     OW38595   6.411   8.233   8.113
78919SOL    HW138596   6.452   8.281   8.041
78919SOL    HW238597   6.378   8.302   8.172
78920SOL     OW38598   4.487   9.513   6.820
78920SOL    HW138599   4.407   9.545   6.778
78920SOL    HW238600   4.475   9.418   6.825
78921SOL     OW38601   3.055   7.740   0.370
78921SOL    HW138602   3.139   7.717   0.330
78921SOL    HW238603   2.991   7.685   0.324
78922SOL     OW38604   2.482   3.773   4.275
78922SOL    HW138605   2.464   3.712   4.204
78922SOL    HW238606   2.547   3.728   4.329
78923SOL     OW38607   3.539  13.087  13.693
78923SOL    HW138608   3.463  13.029  13.702
78923SOL    HW238609   3.521  13.159  13.753
78924SOL     OW38610   3.497  11.169   3.307
78924SOL    HW138611   3.560  11.219   3.256
78924SOL    HW238612   3.529  11.177   3.398
78925SOL     OW38613   8.860  13.225   1.731
78925SOL    HW138614   8.872  13.284   1.805
78925SOL    HW238615   8.824  13.145   1.769
78926SOL     OW38616   6.312   2.689  12.821
78926SOL    HW138617   6.302   2.718  12.912
78926SOL    HW238618   6.310   2.770  12.770
78927SOL     OW38619   8.923   3.307  12.100
78927SOL    HW138620   8.994   3.263  12.054
78927SOL    HW238621   8.924   3.396  12.066
78928SOL     OW38622   7.323  11.446   5.025
78928SOL    HW138623   7.415  11.423   5.020
78928SOL    HW238624   7.285  11.411   4.944
78929SOL     OW38625   0.611   0.229  11.625
78929SOL    HW138626   0.661   0.222  11.706
78929SOL    HW238627   0.669   0.194  11.558
78930SOL     OW38628   1.524  10.204  10.831
78930SOL    HW138629   1.559  10.268  10.769
78930SOL    HW238630   1.552  10.119  10.797
78931SOL     OW38631  10.154   3.068   3.919
78931SOL    HW138632  10.123   2.980   3.940
78931SOL    HW238633  10.076   3.115   3.891
78932SOL     OW38634  14.524   6.743   9.458
78932SOL    HW138635  14.613   6.775   9.473
78932SOL    HW238636  14.517   6.735   9.363
78933SOL     OW38637   6.918   4.956   7.625
78933SOL    HW138638   6.831   4.976   7.590
78933SOL    HW238639   6.978   4.993   7.561
78934SOL     OW38640   8.755  13.344   3.165
78934SOL    HW138641   8.793  13.424   3.130
78934SOL    HW238642   8.811  13.321   3.239
78935SOL     OW38643   3.476  13.936  13.267
78935SOL    HW138644   3.431  13.867  13.218
78935SOL    HW238645   3.419  14.012  13.259
78936SOL     OW38646  10.617  12.573  12.001
78936SOL    HW138647  10.676  12.554  11.929
78936SOL    HW238648  10.532  12.542  11.972
78937SOL     OW38649  11.830   4.908  10.042
78937SOL    HW138650  11.862   4.938   9.957
78937SOL    HW238651  11.789   4.824  10.023
78938SOL     OW38652  12.022  10.893   9.473
78938SOL    HW138653  11.978  10.937   9.546
78938SOL    HW238654  12.115  10.903   9.492
78939SOL     OW38655   7.210  10.077   3.680
78939SOL    HW138656   7.148  10.004   3.677
78939SOL    HW238657   7.293  10.039   3.651
78940SOL     OW38658   6.907   9.392   7.386
78940SOL    HW138659   6.875   9.391   7.477
78940SOL    HW238660   6.829   9.376   7.334
78941SOL     OW38661   1.043   1.859   3.998
78941SOL    HW138662   1.130   1.821   3.986
78941SOL    HW238663   0.992   1.790   4.040
78942SOL     OW38664   8.118  13.521  14.703
78942SOL    HW138665   8.170  13.576  14.762
78942SOL    HW238666   8.180  13.494  14.635
78943SOL     OW38667  14.505   4.100  10.977
78943SOL    HW138668  14.429   4.045  10.956
78943SOL    HW238669  14.557   4.100  10.897
78944SOL     OW38670   2.912   2.835   5.690
78944SOL    HW138671   2.858   2.802   5.763
78944SOL    HW238672   2.952   2.757   5.652
78945SOL     OW38673  13.279   3.546   4.129
78945SOL    HW138674  13.282   3.520   4.037
78945SOL    HW238675  13.284   3.463   4.177
78946SOL     OW38676   3.812  13.110  11.279
78946SOL    HW138677   3.786  13.199  11.303
78946SOL    HW238678   3.741  13.054  11.312
78947SOL     OW38679   7.392   1.152  11.131
78947SOL    HW138680   7.301   1.139  11.102
78947SOL    HW238681   7.442   1.086  11.083
78948SOL     OW38682   3.400   1.264   9.380
78948SOL    HW138683   3.383   1.196   9.445
78948SOL    HW238684   3.340   1.335   9.403
78949SOL     OW38685  12.283   9.020  13.426
78949SOL    HW138686  12.356   9.080  13.443
78949SOL    HW238687  12.248   9.000  13.513
78950SOL     OW38688   2.343   8.243  14.057
78950SOL    HW138689   2.425   8.193  14.064
78950SOL    HW238690   2.314   8.255  14.147
78951SOL     OW38691  12.811   3.739   4.862
78951SOL    HW138692  12.767   3.759   4.779
78951SOL    HW238693  12.768   3.795   4.926
78952SOL     OW38694   2.557   7.460   6.665
78952SOL    HW138695   2.541   7.409   6.744
78952SOL    HW238696   2.473   7.500   6.645
78953SOL     OW38697   1.132  12.311  10.852
78953SOL    HW138698   1.158  12.220  10.865
78953SOL    HW238699   1.188  12.360  10.912
78954SOL     OW38700  13.184   3.590   7.729
78954SOL    HW138701  13.198   3.648   7.804
78954SOL    HW238702  13.111   3.534   7.755
78955SOL     OW38703  11.211  10.491   9.170
78955SOL    HW138704  11.280  10.553   9.193
78955SOL    HW238705  11.222  10.419   9.232
78956SOL     OW38706   8.973   4.345   6.481
78956SOL    HW138707   8.942   4.359   6.392
78956SOL    HW238708   9.057   4.393   6.485
78957SOL     OW38709  11.442  10.547  14.700
78957SOL    HW138710  11.368  10.545  14.760
78957SOL    HW238711  11.519  10.554  14.757
78958SOL     OW38712   9.145  14.117  12.469
78958SOL    HW138713   9.108  14.040  12.426
78958SOL    HW238714   9.071  14.177  12.481
78959SOL     OW38715  10.937   0.856  12.909
78959SOL    HW138716  10.898   0.940  12.930
78959SOL    HW238717  11.032   0.870  12.917
78960SOL     OW38718  10.845   5.467   3.948
78960SOL    HW138719  10.888   5.382   3.952
78960SOL    HW238720  10.808   5.479   4.035
78961SOL     OW38721   9.904   0.249   5.170
78961SOL    HW138722   9.929   0.336   5.201
78961SOL    HW238723   9.943   0.189   5.233
78962SOL     OW38724   5.855  10.185   1.495
78962SOL    HW138725   5.824  10.144   1.415
78962SOL    HW238726   5.861  10.113   1.558
78963SOL     OW38727   5.188   9.309   8.491
78963SOL    HW138728   5.223   9.379   8.437
78963SOL    HW238729   5.220   9.328   8.579
78964SOL     OW38730   8.114   6.366  10.353
78964SOL    HW138731   8.105   6.413  10.436
78964SOL    HW238732   8.203   6.387  10.323
78965SOL     OW38733   4.166  10.641   0.248
78965SOL    HW138734   4.202  10.552   0.250
78965SOL    HW238735   4.073  10.629   0.233
78966SOL     OW38736  10.060   4.049  11.168
78966SOL    HW138737  10.093   4.132  11.204
78966SOL    HW238738   9.990   4.024  11.228
78967SOL     OW38739   5.659  14.633   9.663
78967SOL    HW138740   5.581  14.629   9.607
78967SOL    HW238741   5.672  14.543   9.692
78968SOL     OW38742   5.363   2.577   1.896
78968SOL    HW138743   5.347   2.640   1.826
78968SOL    HW238744   5.306   2.606   1.968
78969SOL     OW38745   9.881   3.403   6.210
78969SOL    HW138746   9.960   3.458   6.214
78969SOL    HW238747   9.915   3.314   6.211
78970SOL     OW38748  13.951  10.757   4.169
78970SOL    HW138749  13.939  10.751   4.074
78970SOL    HW238750  14.032  10.806   4.180
78971SOL     OW38751   2.395  14.589   0.929
78971SOL    HW138752   2.432  14.661   0.877
78971SOL    HW238753   2.434  14.599   1.016
78972SOL     OW38754   4.357  11.823   7.093
78972SOL    HW138755   4.346  11.728   7.095
78972SOL    HW238756   4.424  11.840   7.159
78973SOL     OW38757   0.967   3.411  11.625
78973SOL    HW138758   1.014   3.422  11.707
78973SOL    HW238759   1.005   3.332  11.585
78974SOL     OW38760  14.089   7.159  10.103
78974SOL    HW138761  14.054   7.102  10.034
78974SOL    HW238762  14.054   7.246  10.083
78975SOL     OW38763  10.407   1.464  12.053
78975SOL    HW138764  10.397   1.497  11.963
78975SOL    HW238765  10.371   1.376  12.049
78976SOL     OW38766  10.067   9.424  12.035
78976SOL    HW138767   9.997   9.461  12.088
78976SOL    HW238768  10.143   9.423  12.094
78977SOL     OW38769  14.072  13.113  14.824
78977SOL    HW138770  14.039  13.026  14.800
78977SOL    HW238771  14.059  13.166  14.745
78978SOL     OW38772   1.856   8.403   3.688
78978SOL    HW138773   1.814   8.326   3.724
78978SOL    HW238774   1.806   8.423   3.609
78979SOL     OW38775   1.900   6.381   1.273
78979SOL    HW138776   1.882   6.444   1.342
78979SOL    HW238777   1.961   6.318   1.314
78980SOL     OW38778   4.678   7.193   4.109
78980SOL    HW138779   4.600   7.153   4.148
78980SOL    HW238780   4.745   7.125   4.115
78981SOL     OW38781   0.999  10.562   1.825
78981SOL    HW138782   1.007  10.613   1.744
78981SOL    HW238783   0.922  10.598   1.869
78982SOL     OW38784  12.338   4.634   4.259
78982SOL    HW138785  12.341   4.693   4.334
78982SOL    HW238786  12.407   4.665   4.201
78983SOL     OW38787   6.573  12.266   3.047
78983SOL    HW138788   6.635  12.313   3.102
78983SOL    HW238789   6.503  12.239   3.107
78984SOL     OW38790   3.132   4.097   2.412
78984SOL    HW138791   3.068   4.164   2.438
78984SOL    HW238792   3.149   4.115   2.320
78985SOL     OW38793  11.558   1.838   0.940
78985SOL    HW138794  11.528   1.889   0.865
78985SOL    HW238795  11.538   1.892   1.016
78986SOL     OW38796   2.947   9.956   1.905
78986SOL    HW138797   2.926  10.018   1.834
78986SOL    HW238798   2.895   9.878   1.884
78987SOL     OW38799   5.626   5.299  14.744
78987SOL    HW138800   5.550   5.263  14.791
78987SOL    HW238801   5.634   5.245  14.666
78988SOL     OW38802   7.384   7.838  14.182
78988SOL    HW138803   7.408   7.746  14.181
78988SOL    HW238804   7.465   7.884  14.206
78989SOL     OW38805   1.206  11.388  12.956
78989SOL    HW138806   1.225  11.433  13.039
78989SOL    HW238807   1.290  11.353  12.928
78990SOL     OW38808   9.803  12.891  10.436
78990SOL    HW138809   9.752  12.938  10.502
78990SOL    HW238810   9.747  12.818  10.409
78991SOL     OW38811  11.396  10.212   1.526
78991SOL    HW138812  11.369  10.143   1.587
78991SOL    HW238813  11.490  10.220   1.540
78992SOL     OW38814   0.582   1.270   5.714
78992SOL    HW138815   0.507   1.212   5.732
78992SOL    HW238816   0.653   1.232   5.766
78993SOL     OW38817   3.045   4.299   9.682
78993SOL    HW138818   3.123   4.284   9.629
78993SOL    HW238819   2.987   4.350   9.626
78994SOL     OW38820  10.382   5.317   1.606
78994SOL    HW138821  10.460   5.262   1.609
78994SOL    HW238822  10.350   5.308   1.517
78995SOL     OW38823  13.757  12.871  14.343
78995SOL    HW138824  13.757  12.838  14.433
78995SOL    HW238825  13.844  12.849  14.310
78996SOL     OW38826  11.682   1.113  10.039
78996SOL    HW138827  11.760   1.098  10.093
78996SOL    HW238828  11.609   1.082  10.093
78997SOL     OW38829   5.001   2.932   6.712
78997SOL    HW138830   5.091   2.943   6.682
78997SOL    HW238831   4.951   2.912   6.633
78998SOL     OW38832   6.362   5.573  10.381
78998SOL    HW138833   6.412   5.548  10.458
78998SOL    HW238834   6.287   5.515  10.381
78999SOL     OW38835   9.340   6.337  10.960
78999SOL    HW138836   9.378   6.308  10.877
78999SOL    HW238837   9.371   6.427  10.971
79000SOL     OW38838   8.748   5.634   4.341
79000SOL    HW138839   8.722   5.679   4.421
79000SOL    HW238840   8.809   5.566   4.370
79001SOL     OW38841   0.681   0.649  10.969
79001SOL    HW138842   0.688   0.592  10.892
79001SOL    HW238843   0.592   0.635  11.001
79002SOL     OW38844   5.173   8.729   1.320
79002SOL    HW138845   5.259   8.769   1.318
79002SOL    HW238846   5.134   8.752   1.236
79003SOL     OW38847  14.196   4.442  14.519
79003SOL    HW138848  14.231   4.518  14.564
79003SOL    HW238849  14.108   4.431  14.555
79004SOL     OW38850   8.677   0.781  12.737
79004SOL    HW138851   8.585   0.760  12.721
79004SOL    HW238852   8.694   0.748  12.826
79005SOL     OW38853  11.914  11.014   9.691
79005SOL    HW138854  11.913  11.072   9.768
79005SOL    HW238855  11.840  11.044   9.638
79006SOL     OW38856   4.685   2.729   9.456
79006SOL    HW138857   4.678   2.801   9.394
79006SOL    HW238858   4.737   2.765   9.528
79007SOL     OW38859   0.979   4.613   7.091
79007SOL    HW138860   0.975   4.614   6.996
79007SOL    HW238861   0.891   4.586   7.119
79008SOL     OW38862  12.140   1.761  12.053
79008SOL    HW138863  12.122   1.793  12.141
79008SOL    HW238864  12.119   1.835  11.996
79009SOL     OW38865  12.457   6.356   3.657
79009SOL    HW138866  12.368   6.323   3.670
79009SOL    HW238867  12.478   6.333   3.567
79010SOL     OW38868   8.199   2.608  13.233
79010SOL    HW138869   8.213   2.582  13.143
79010SOL    HW238870   8.181   2.702  13.229
79011SOL     OW38871  11.749  13.361   9.265
79011SOL    HW138872  11.829  13.414   9.268
79011SOL    HW238873  11.683  13.420   9.230
79012SOL     OW38874   0.141   7.199   2.048
79012SOL    HW138875   0.162   7.202   2.141
79012SOL    HW238876   0.049   7.225   2.043
79013SOL     OW38877  14.717   3.426   6.634
79013SOL    HW138878  14.628   3.440   6.602
79013SOL    HW238879  14.714   3.450   6.726
79014SOL     OW38880   1.642   5.411  11.390
79014SOL    HW138881   1.725   5.412  11.342
79014SOL    HW238882   1.576   5.394  11.323
79015SOL     OW38883   8.114  12.724   8.246
79015SOL    HW138884   8.202  12.760   8.231
79015SOL    HW238885   8.055  12.786   8.204
79016SOL     OW38886  10.321   3.018   2.241
79016SOL    HW138887  10.245   3.046   2.189
79016SOL    HW238888  10.389   2.998   2.177
79017SOL     OW38889   7.979  13.235   7.265
79017SOL    HW138890   8.018  13.237   7.178
79017SOL    HW238891   7.887  13.258   7.250
79018SOL     OW38892   7.180   7.907   3.816
79018SOL    HW138893   7.206   7.844   3.883
79018SOL    HW238894   7.202   7.865   3.733
79019SOL     OW38895   7.754   1.718   8.743
79019SOL    HW138896   7.801   1.649   8.696
79019SOL    HW238897   7.748   1.686   8.833
79020SOL     OW38898  13.961  11.539  13.875
79020SOL    HW138899  13.932  11.539  13.784
79020SOL    HW238900  13.966  11.632  13.899
79021SOL     OW38901   4.234   5.243   5.224
79021SOL    HW138902   4.163   5.302   5.198
79021SOL    HW238903   4.244   5.259   5.318
79022SOL     OW38904  11.512   2.709  14.401
79022SOL    HW138905  11.444   2.661  14.353
79022SOL    HW238906  11.515   2.795  14.359
79023SOL     OW38907   2.131  12.115  14.765
79023SOL    HW138908   2.142  12.146  14.855
79023SOL    HW238909   2.081  12.034  14.774
79024SOL     OW38910   7.252   6.222  14.445
79024SOL    HW138911   7.318   6.266  14.393
79024SOL    HW238912   7.271   6.247  14.535
79025SOL     OW38913   1.923   3.507   4.201
79025SOL    HW138914   1.975   3.580   4.167
79025SOL    HW238915   1.850   3.499   4.140
79026SOL     OW38916  10.411  10.686   8.202
79026SOL    HW138917  10.483  10.622   8.207
79026SOL    HW238918  10.402  10.719   8.291
79027SOL     OW38919  10.830  11.172   1.311
79027SOL    HW138920  10.924  11.178   1.327
79027SOL    HW238921  10.821  11.187   1.217
79028SOL     OW38922  12.007  12.450   8.719
79028SOL    HW138923  12.066  12.403   8.660
79028SOL    HW238924  11.956  12.380   8.761
79029SOL     OW38925   7.514   3.824   0.457
79029SOL    HW138926   7.421   3.827   0.480
79029SOL    HW238927   7.522   3.882   0.381
79030SOL     OW38928   4.617   9.025   0.611
79030SOL    HW138929   4.595   9.070   0.693
79030SOL    HW238930   4.543   8.965   0.598
79031SOL     OW38931  12.988   6.767   7.733
79031SOL    HW138932  12.916   6.810   7.778
79031SOL    HW238933  12.971   6.782   7.640
79032SOL     OW38934  14.480   5.405   6.986
79032SOL    HW138935  14.473   5.443   6.898
79032SOL    HW238936  14.419   5.331   6.985
79033SOL     OW38937   5.400   1.484   8.367
79033SOL    HW138938   5.450   1.406   8.390
79033SOL    HW238939   5.347   1.458   8.292
79034SOL     OW38940   4.321   8.897  14.703
79034SOL    HW138941   4.295   8.950  14.778
79034SOL    HW238942   4.392   8.947  14.661
79035SOL     OW38943   8.115  14.373  12.812
79035SOL    HW138944   8.207  14.386  12.789
79035SOL    HW238945   8.113  14.381  12.907
79036SOL     OW38946   2.997  12.652  13.839
79036SOL    HW138947   2.952  12.681  13.760
79036SOL    HW238948   3.087  12.680  13.827
79037SOL     OW38949   9.338   7.174   4.768
79037SOL    HW138950   9.270   7.238   4.788
79037SOL    HW238951   9.375   7.150   4.853
79038SOL     OW38952  13.346  13.371   0.248
79038SOL    HW138953  13.329  13.466   0.250
79038SOL    HW238954  13.267  13.332   0.286
79039SOL     OW38955  11.942  11.074   9.091
79039SOL    HW138956  12.005  11.024   9.142
79039SOL    HW238957  11.896  11.009   9.038
79040SOL     OW38958  12.737  12.218   4.768
79040SOL    HW138959  12.722  12.284   4.701
79040SOL    HW238960  12.700  12.138   4.731
79041SOL     OW38961   6.479  11.316   3.285
79041SOL    HW138962   6.404  11.258   3.265
79041SOL    HW238963   6.511  11.343   3.199
79042SOL     OW38964   8.155  11.308  14.369
79042SOL    HW138965   8.137  11.256  14.448
79042SOL    HW238966   8.238  11.272  14.336
79043SOL     OW38967   7.093   2.169  14.437
79043SOL    HW138968   7.189   2.174  14.441
79043SOL    HW238969   7.073   2.079  14.463
79044SOL     OW38970  10.081   2.506  14.597
79044SOL    HW138971  10.146   2.537  14.534
79044SOL    HW238972  10.124   2.516  14.682
79045SOL     OW38973  11.016   1.490  13.711
79045SOL    HW138974  11.007   1.433  13.788
79045SOL    HW238975  11.101   1.532  13.722
79046SOL     OW38976  12.673  13.452   9.867
79046SOL    HW138977  12.734  13.386   9.833
79046SOL    HW238978  12.588  13.408   9.866
79047SOL     OW38979   8.436  13.419   0.385
79047SOL    HW138980   8.501  13.368   0.433
79047SOL    HW238981   8.476  13.506   0.376
79048SOL     OW38982   2.766   3.025   7.343
79048SOL    HW138983   2.703   2.992   7.279
79048SOL    HW238984   2.848   3.033   7.293
79049SOL     OW38985   0.288   2.856   6.572
79049SOL    HW138986   0.273   2.950   6.584
79049SOL    HW238987   0.263   2.817   6.656
79050SOL     OW38988   4.841   8.407  10.097
79050SOL    HW138989   4.806   8.350  10.029
79050SOL    HW238990   4.770   8.468  10.117
79051SOL     OW38991   4.636   3.080   9.663
79051SOL    HW138992   4.615   3.091   9.756
79051SOL    HW238993   4.551   3.061   9.622
79052SOL     OW38994   4.008   0.239   3.046
79052SOL    HW138995   4.061   0.250   2.967
79052SOL    HW238996   3.919   0.258   3.017
79053SOL     OW38997   5.950   7.358   6.609
79053SOL    HW138998   5.884   7.310   6.659
79053SOL    HW238999   5.900   7.420   6.556
79054SOL     OW39000   1.883   5.180   1.852
79054SOL    HW139001   1.957   5.199   1.910
79054SOL    HW239002   1.919   5.189   1.764
79055SOL     OW39003   7.704  11.818  10.694
79055SOL    HW139004   7.773  11.768  10.652
79055SOL    HW239005   7.626  11.802  10.641
79056SOL     OW39006   3.025  10.838   9.063
79056SOL    HW139007   2.966  10.853   9.137
79056SOL    HW239008   3.055  10.748   9.074
79057SOL     OW39009   4.167   6.508   8.860
79057SOL    HW139010   4.103   6.517   8.790
79057SOL    HW239011   4.249   6.487   8.815
79058SOL     OW39012   6.563   0.419  12.949
79058SOL    HW139013   6.568   0.493  12.888
79058SOL    HW239014   6.564   0.459  13.036
79059SOL     OW39015  11.021   6.583   5.741
79059SOL    HW139016  11.020   6.533   5.823
79059SOL    HW239017  10.995   6.520   5.674
79060SOL     OW39018  12.623   4.829   1.403
79060SOL    HW139019  12.669   4.899   1.357
79060SOL    HW239020  12.677   4.751   1.388
79061SOL     OW39021   2.811  11.587   7.788
79061SOL    HW139022   2.795  11.608   7.696
79061SOL    HW239023   2.803  11.492   7.792
79062SOL     OW39024   5.838  14.520  13.192
79062SOL    HW139025   5.914  14.573  13.169
79062SOL    HW239026   5.792  14.571  13.259
79063SOL     OW39027   0.557   2.601  11.016
79063SOL    HW139028   0.648   2.608  10.988
79063SOL    HW239029   0.551   2.658  11.093
79064SOL     OW39030  13.572  13.918   9.620
79064SOL    HW139031  13.580  13.971   9.699
79064SOL    HW239032  13.662  13.893   9.599
79065SOL     OW39033   3.471  12.796   5.776
79065SOL    HW139034   3.560  12.808   5.742
79065SOL    HW239035   3.414  12.819   5.703
79066SOL     OW39036   6.603   7.498  14.858
79066SOL    HW139037   6.661   7.462  14.791
79066SOL    HW239038   6.517   7.463  14.836
79067SOL     OW39039   0.595  10.789   6.968
79067SOL    HW139040   0.615  10.696   6.974
79067SOL    HW239041   0.517  10.801   7.023
79068SOL     OW39042  11.786   7.952  12.490
79068SOL    HW139043  11.876   7.922  12.502
79068SOL    HW239044  11.745   7.941  12.576
79069SOL     OW39045  14.399   4.139  10.599
79069SOL    HW139046  14.418   4.147  10.505
79069SOL    HW239047  14.478   4.101  10.637
79070SOL     OW39048  11.762   8.612   6.060
79070SOL    HW139049  11.804   8.694   6.034
79070SOL    HW239050  11.822   8.544   6.031
79071SOL     OW39051   2.440   0.795  10.555
79071SOL    HW139052   2.385   0.716  10.552
79071SOL    HW239053   2.453   0.811  10.649
79072SOL     OW39054   8.987  13.261  14.006
79072SOL    HW139055   9.049  13.196  14.038
79072SOL    HW239056   8.934  13.284  14.083
79073SOL     OW39057  13.442   7.378   7.391
79073SOL    HW139058  13.350   7.407   7.392
79073SOL    HW239059  13.492   7.459   7.388
79074SOL     OW39060   5.196   3.148   6.325
79074SOL    HW139061   5.233   3.064   6.297
79074SOL    HW239062   5.172   3.135   6.417
79075SOL     OW39063   8.656   5.188  11.586
79075SOL    HW139064   8.683   5.099  11.563
79075SOL    HW239065   8.582   5.207  11.529
79076SOL     OW39066  14.251   9.015   5.472
79076SOL    HW139067  14.330   8.999   5.419
79076SOL    HW239068  14.282   9.066   5.546
79077SOL     OW39069   6.083   0.727  13.958
79077SOL    HW139070   6.131   0.648  13.980
79077SOL    HW239071   5.996   0.696  13.932
79078SOL     OW39072   1.166   2.677   9.954
79078SOL    HW139073   1.188   2.699  10.044
79078SOL    HW239074   1.160   2.762   9.909
79079SOL     OW39075  12.549   4.357   3.599
79079SOL    HW139076  12.567   4.263   3.610
79079SOL    HW239077  12.457   4.366   3.625
79080SOL     OW39078  14.352  12.470  11.190
79080SOL    HW139079  14.278  12.482  11.130
79080SOL    HW239080  14.392  12.387  11.164
79081SOL     OW39081   6.128   3.860   9.205
79081SOL    HW139082   6.092   3.772   9.193
79081SOL    HW239083   6.184   3.851   9.283
79082SOL     OW39084   3.642   2.702  13.304
79082SOL    HW139085   3.592   2.769  13.352
79082SOL    HW239086   3.610   2.619  13.339
79083SOL     OW39087   3.702   9.286   9.617
79083SOL    HW139088   3.755   9.364   9.633
79083SOL    HW239089   3.622   9.319   9.576
79084SOL     OW39090   0.896   7.488   1.234
79084SOL    HW139091   0.822   7.548   1.226
79084SOL    HW239092   0.855   7.401   1.232
79085SOL     OW39093  13.048   1.488  13.412
79085SOL    HW139094  13.133   1.525  13.437
79085SOL    HW239095  13.022   1.435  13.488
79086SOL     OW39096   3.283   8.708  10.224
79086SOL    HW139097   3.274   8.617  10.251
79086SOL    HW239098   3.192   8.740  10.220
79087SOL     OW39099   2.029  11.827   5.155
79087SOL    HW139100   1.986  11.767   5.094
79087SOL    HW239101   1.988  11.912   5.139
79088SOL     OW39102   8.703  14.399   8.830
79088SOL    HW139103   8.650  14.368   8.757
79088SOL    HW239104   8.672  14.348   8.905
79089SOL     OW39105   7.984   0.433   3.377
79089SOL    HW139106   7.989   0.506   3.437
79089SOL    HW239107   7.952   0.360   3.430
79090SOL     OW39108   0.520   1.761  12.714
79090SOL    HW139109   0.457   1.829  12.735
79090SOL    HW239110   0.605   1.798  12.738
79091SOL     OW39111  11.308   7.018  14.506
79091SOL    HW139112  11.329   7.109  14.525
79091SOL    HW239113  11.342   7.003  14.418
79092SOL     OW39114   4.129   9.209   8.782
79092SOL    HW139115   4.057   9.268   8.802
79092SOL    HW239116   4.186   9.212   8.859
79093SOL     OW39117   1.826  13.018   3.561
79093SOL    HW139118   1.890  12.973   3.616
79093SOL    HW239119   1.812  12.959   3.487
79094SOL     OW39120  14.205   5.293  10.107
79094SOL    HW139121  14.219   5.350  10.032
79094SOL    HW239122  14.118   5.257  10.093
79095SOL     OW39123  14.082   9.344   3.461
79095SOL    HW139124  14.038   9.361   3.544
79095SOL    HW239125  14.011   9.341   3.397
79096SOL     OW39126   1.724   4.142  12.724
79096SOL    HW139127   1.643   4.179  12.757
79096SOL    HW239128   1.699   4.057  12.688
79097SOL     OW39129   8.961   2.244   3.366
79097SOL    HW139130   8.887   2.301   3.389
79097SOL    HW239131   9.026   2.259   3.434
79098SOL     OW39132  13.347   2.796   1.111
79098SOL    HW139133  13.371   2.844   1.032
79098SOL    HW239134  13.256   2.820   1.128
79099SOL     OW39135   8.535   2.072   8.627
79099SOL    HW139136   8.626   2.088   8.604
79099SOL    HW239137   8.539   2.023   8.710
79100SOL     OW39138   5.121   0.946   7.205
79100SOL    HW139139   5.096   1.033   7.235
79100SOL    HW239140   5.100   0.888   7.279
79101SOL     OW39141   2.001  14.759  14.635
79101SOL    HW139142   1.909  14.783  14.642
79101SOL    HW239143   2.002  14.686  14.573
79102SOL     OW39144  13.228  13.215  10.409
79102SOL    HW139145  13.248  13.123  10.424
79102SOL    HW239146  13.219  13.252  10.497
79103SOL     OW39147   6.631   9.276  10.840
79103SOL    HW139148   6.696   9.211  10.812
79103SOL    HW239149   6.664   9.309  10.923
79104SOL     OW39150   8.523   9.766  11.454
79104SOL    HW139151   8.513   9.861  11.454
79104SOL    HW239152   8.545   9.744  11.545
79105SOL     OW39153   9.532   6.316  10.421
79105SOL    HW139154   9.523   6.295  10.514
79105SOL    HW239155   9.613   6.272  10.394
79106SOL     OW39156   0.756  13.212   2.342
79106SOL    HW139157   0.672  13.209   2.297
79106SOL    HW239158   0.737  13.251   2.427
79107SOL     OW39159   4.507   1.744   8.301
79107SOL    HW139160   4.453   1.667   8.319
79107SOL    HW239161   4.540   1.730   8.212
79108SOL     OW39162  11.294   6.541   2.148
79108SOL    HW139163  11.243   6.619   2.127
79108SOL    HW239164  11.255   6.472   2.093
79109SOL     OW39165   4.209  12.423  13.297
79109SOL    HW139166   4.278  12.437  13.233
79109SOL    HW239167   4.137  12.478  13.266
79110SOL     OW39168   0.215  13.398  10.567
79110SOL    HW139169   0.218  13.462  10.496
79110SOL    HW239170   0.185  13.448  10.643
79111SOL     OW39171  12.093   3.074   3.213
79111SOL    HW139172  12.178   3.113   3.231
79111SOL    HW239173  12.044   3.144   3.169
79112SOL     OW39174   0.595  12.714   7.629
79112SOL    HW139175   0.685  12.713   7.598
79112SOL    HW239176   0.596  12.777   7.702
79113SOL     OW39177  11.220   9.025  10.789
79113SOL    HW139178  11.157   9.034  10.718
79113SOL    HW239179  11.274   9.104  10.783
79114SOL     OW39180   7.167  13.785   9.590
79114SOL    HW139181   7.204  13.833   9.516
79114SOL    HW239182   7.073  13.803   9.585
79115SOL     OW39183  11.919   5.501   6.078
79115SOL    HW139184  11.930   5.430   6.141
79115SOL    HW239185  11.981   5.480   6.008
79116SOL     OW39186   8.327   9.688  10.956
79116SOL    HW139187   8.403   9.739  10.985
79116SOL    HW239188   8.348   9.598  10.977
79117SOL     OW39189  13.767  10.535   0.757
79117SOL    HW139190  13.738  10.446   0.736
79117SOL    HW239191  13.822  10.525   0.834
79118SOL     OW39192   2.055  11.136   3.560
79118SOL    HW139193   2.049  11.134   3.464
79118SOL    HW239194   2.079  11.047   3.585
79119SOL     OW39195  11.320   2.850   9.819
79119SOL    HW139196  11.310   2.863   9.914
79119SOL    HW239197  11.243   2.893   9.781
79120SOL     OW39198   6.922  12.426   2.064
79120SOL    HW139199   7.003  12.388   2.030
79120SOL    HW239200   6.950  12.479   2.138
79121SOL     OW39201   7.462   7.578  14.136
79121SOL    HW139202   7.420   7.497  14.167
79121SOL    HW239203   7.547   7.579  14.179
79122SOL     OW39204   8.242   8.700  13.105
79122SOL    HW139205   8.331   8.712  13.137
79122SOL    HW239206   8.252   8.676  13.013
79123SOL     OW39207  12.038   8.048   2.434
79123SOL    HW139208  11.964   8.107   2.425
79123SOL    HW239209  12.020   7.977   2.373
79124SOL     OW39210  14.582   3.486   9.987
79124SOL    HW139211  14.486   3.488   9.991
79124SOL    HW239212  14.607   3.419  10.051
79125SOL     OW39213   7.776   1.100   2.409
79125SOL    HW139214   7.710   1.044   2.367
79125SOL    HW239215   7.726   1.176   2.439
79126SOL     OW39216   7.926   5.892   7.261
79126SOL    HW139217   7.911   5.951   7.187
79126SOL    HW239218   8.000   5.838   7.234
79127SOL     OW39219   1.737   0.074  10.375
79127SOL    HW139220   1.751   0.087  10.469
79127SOL    HW239221   1.746  14.859  10.362
79128SOL     OW39222   1.983   1.024   5.532
79128SOL    HW139223   1.909   1.004   5.475
79128SOL    HW239224   1.944   1.070   5.606
79129SOL     OW39225   4.640  13.018  12.471
79129SOL    HW139226   4.618  13.073  12.396
79129SOL    HW239227   4.688  13.076  12.530
79130SOL     OW39228  13.651   1.698   6.816
79130SOL    HW139229  13.585   1.740   6.760
79130SOL    HW239230  13.634   1.604   6.806
79131SOL     OW39231   7.904   1.125  13.421
79131SOL    HW139232   7.911   1.217  13.394
79131SOL    HW239233   7.956   1.077  13.357
79132SOL     OW39234  11.978  13.617  12.210
79132SOL    HW139235  12.064  13.577  12.216
79132SOL    HW239236  11.917  13.543  12.218
79133SOL     OW39237   1.363   3.292   4.161
79133SOL    HW139238   1.396   3.216   4.208
79133SOL    HW239239   1.438   3.321   4.108
79134SOL     OW39240   6.062  13.605  13.120
79134SOL    HW139241   6.089  13.649  13.201
79134SOL    HW239242   6.006  13.534  13.150
79135SOL     OW39243   2.507   3.224  12.999
79135SOL    HW139244   2.451   3.177  13.061
79135SOL    HW239245   2.449   3.287  12.956
79136SOL     OW39246  11.877   1.070   5.110
79136SOL    HW139247  11.968   1.042   5.121
79136SOL    HW239248  11.836   1.052   5.195
79137SOL     OW39249   0.097   1.412  10.998
79137SOL    HW139250   0.013   1.400  11.043
79137SOL    HW239251   0.074   1.443  10.911
79138SOL     OW39252   5.212   0.811   4.069
79138SOL    HW139253   5.263   0.811   3.988
79138SOL    HW239254   5.276   0.824   4.138
79139SOL     OW39255  11.064   8.232  12.284
79139SOL    HW139256  11.033   8.297  12.348
79139SOL    HW239257  11.158   8.227  12.299
79140SOL     OW39258   4.170   5.463   1.919
79140SOL    HW139259   4.159   5.408   1.841
79140SOL    HW239260   4.204   5.403   1.985
79141SOL     OW39261   5.506   6.276  14.870
79141SOL    HW139262   5.452   6.240   0.062
79141SOL    HW239263   5.446   6.331  14.821
79142SOL     OW39264   3.938   4.993   7.121
79142SOL    HW139265   4.015   5.035   7.083
79142SOL    HW239266   3.872   5.063   7.127
79143SOL     OW39267   3.806   4.314  12.806
79143SOL    HW139268   3.826   4.394  12.757
79143SOL    HW239269   3.855   4.323  12.888
79144SOL     OW39270   8.595  10.044   5.327
79144SOL    HW139271   8.554   9.976   5.273
79144SOL    HW239272   8.595  10.006   5.415
79145SOL     OW39273   3.196  12.343   4.530
79145SOL    HW139274   3.192  12.392   4.448
79145SOL    HW239275   3.122  12.377   4.581
79146SOL     OW39276   3.663   2.358  13.219
79146SOL    HW139277   3.658   2.435  13.161
79146SOL    HW239278   3.685   2.395  13.305
79147SOL     OW39279   1.232   7.075  11.762
79147SOL    HW139280   1.224   7.048  11.853
79147SOL    HW239281   1.320   7.045  11.737
79148SOL     OW39282  13.521  13.924   9.347
79148SOL    HW139283  13.516  13.906   9.441
79148SOL    HW239284  13.590  13.989   9.339
79149SOL     OW39285   4.253   2.128   3.709
79149SOL    HW139286   4.327   2.101   3.655
79149SOL    HW239287   4.219   2.047   3.747
79150SOL     OW39288   9.378   4.250   8.099
79150SOL    HW139289   9.323   4.301   8.040
79150SOL    HW239290   9.397   4.309   8.172
79151SOL     OW39291   7.753   9.602   9.160
79151SOL    HW139292   7.764   9.630   9.251
79151SOL    HW239293   7.839   9.571   9.134
79152SOL     OW39294   7.975  14.649   8.125
79152SOL    HW139295   7.947  14.739   8.113
79152SOL    HW239296   8.034  14.651   8.201
79153SOL     OW39297   7.425   9.628   3.573
79153SOL    HW139298   7.418   9.710   3.524
79153SOL    HW239299   7.429   9.560   3.505
79154SOL     OW39300  12.255  12.420  11.975
79154SOL    HW139301  12.325  12.485  11.979
79154SOL    HW239302  12.211  12.437  11.892
79155SOL     OW39303   7.264   6.241   3.332
79155SOL    HW139304   7.320   6.316   3.315
79155SOL    HW239305   7.190   6.277   3.381
79156SOL     OW39306   5.789  14.868  12.353
79156SOL    HW139307   5.863   0.042  12.323
79156SOL    HW239308   5.805  14.782  12.313
79157SOL     OW39309  12.184   5.138   9.222
79157SOL    HW139310  12.213   5.210   9.278
79157SOL    HW239311  12.089   5.137   9.231
79158SOL     OW39312  10.851   5.594   7.440
79158SOL    HW139313  10.899   5.518   7.409
79158SOL    HW239314  10.759   5.572   7.426
79159SOL     OW39315   8.915  14.847  10.963
79159SOL    HW139316   8.845   0.027  10.936
79159SOL    HW239317   8.894  14.765  10.920
79160SOL     OW39318   7.153   0.914  11.882
79160SOL    HW139319   7.222   0.976  11.905
79160SOL    HW239320   7.091   0.919  11.955
79161SOL     OW39321   7.557   2.740   5.604
79161SOL    HW139322   7.592   2.705   5.522
79161SOL    HW239323   7.521   2.825   5.581
79162SOL     OW39324  14.187  12.604  13.749
79162SOL    HW139325  14.228  12.668  13.806
79162SOL    HW239326  14.201  12.520  13.793
79163SOL     OW39327   7.438  10.999   2.758
79163SOL    HW139328   7.420  11.065   2.826
79163SOL    HW239329   7.363  10.939   2.763
79164SOL     OW39330  11.587  13.251   6.527
79164SOL    HW139331  11.515  13.252   6.464
79164SOL    HW239332  11.643  13.324   6.500
79165SOL     OW39333  10.187   4.846  13.509
79165SOL    HW139334  10.130   4.883  13.576
79165SOL    HW239335  10.275   4.879  13.532
79166SOL     OW39336   3.787   4.733   2.902
79166SOL    HW139337   3.705   4.711   2.858
79166SOL    HW239338   3.806   4.823   2.874
79167SOL     OW39339   5.705   6.098   5.035
79167SOL    HW139340   5.746   6.022   5.075
79167SOL    HW239341   5.763   6.171   5.055
79168SOL     OW39342  11.067   2.698  12.850
79168SOL    HW139343  11.037   2.761  12.916
79168SOL    HW239344  11.162   2.701  12.855
79169SOL     OW39345   9.393  11.344   5.869
79169SOL    HW139346   9.359  11.400   5.800
79169SOL    HW239347   9.335  11.267   5.868
79170SOL     OW39348   4.208   8.805  10.773
79170SOL    HW139349   4.257   8.880  10.806
79170SOL    HW239350   4.133   8.842  10.727
79171SOL     OW39351   8.747   1.686  14.505
79171SOL    HW139352   8.678   1.623  14.483
79171SOL    HW239353   8.818   1.665  14.444
79172SOL     OW39354  10.442   0.927   0.149
79172SOL    HW139355  10.427   0.834   0.165
79172SOL    HW239356  10.514   0.951   0.209
79173SOL     OW39357   6.033   0.815   0.534
79173SOL    HW139358   5.973   0.816   0.608
79173SOL    HW239359   6.005   0.889   0.480
79174SOL     OW39360   1.481   4.779  13.578
79174SOL    HW139361   1.433   4.821  13.507
79174SOL    HW239362   1.494   4.688  13.549
79175SOL     OW39363  12.034  13.094  10.019
79175SOL    HW139364  11.985  13.038   9.960
79175SOL    HW239365  12.015  13.183   9.989
79176SOL     OW39366   6.936   7.044  10.822
79176SOL    HW139367   6.934   6.974  10.757
79176SOL    HW239368   6.859   7.029  10.876
79177SOL     OW39369   1.368   5.569  14.109
79177SOL    HW139370   1.383   5.661  14.090
79177SOL    HW239371   1.299   5.569  14.176
79178SOL     OW39372  13.330  13.694   0.702
79178SOL    HW139373  13.351  13.651   0.619
79178SOL    HW239374  13.234  13.691   0.707
79179SOL     OW39375   3.189   8.333   1.372
79179SOL    HW139376   3.258   8.379   1.324
79179SOL    HW239377   3.206   8.353   1.464
79180SOL     OW39378  12.329   8.444  13.022
79180SOL    HW139379  12.340   8.517  12.960
79180SOL    HW239380  12.265   8.476  13.085
79181SOL     OW39381   6.894  12.262   5.331
79181SOL    HW139382   6.869  12.278   5.240
79181SOL    HW239383   6.823  12.299   5.383
79182SOL     OW39384  14.545   2.555  11.650
79182SOL    HW139385  14.586   2.475  11.684
79182SOL    HW239386  14.517   2.602  11.728
79183SOL     OW39387   0.677  12.531  11.036
79183SOL    HW139388   0.771  12.520  11.027
79183SOL    HW239389   0.639  12.460  10.984
79184SOL     OW39390  11.776  11.971   5.585
79184SOL    HW139391  11.687  11.962   5.552
79184SOL    HW239392  11.795  11.887   5.626
79185SOL     OW39393   9.593   6.530   0.840
79185SOL    HW139394   9.647   6.455   0.816
79185SOL    HW239395   9.608   6.541   0.934
79186SOL     OW39396   2.896   1.994  10.832
79186SOL    HW139397   2.873   2.072  10.782
79186SOL    HW239398   2.812   1.950  10.849
79187SOL     OW39399  13.379   1.731   3.502
79187SOL    HW139400  13.448   1.749   3.438
79187SOL    HW239401  13.323   1.666   3.460
79188SOL     OW39402   4.085  10.698   1.931
79188SOL    HW139403   4.176  10.686   1.955
79188SOL    HW239404   4.046  10.611   1.941
79189SOL     OW39405   6.826   6.321   9.748
79189SOL    HW139406   6.914   6.299   9.717
79189SOL    HW239407   6.816   6.270   9.829
79190SOL     OW39408  14.562  14.574  10.352
79190SOL    HW139409  14.590  14.665  10.361
79190SOL    HW239410  14.561  14.540  10.441
79191SOL     OW39411  13.208  14.609   8.718
79191SOL    HW139412  13.202  14.697   8.756
79191SOL    HW239413  13.157  14.554   8.777
79192SOL     OW39414  10.299  10.707   3.198
79192SOL    HW139415  10.318  10.659   3.279
79192SOL    HW239416  10.354  10.664   3.132
79193SOL     OW39417   5.632   7.387   1.556
79193SOL    HW139418   5.621   7.292   1.548
79193SOL    HW239419   5.696   7.398   1.626
79194SOL     OW39420  12.573  11.590   7.153
79194SOL    HW139421  12.544  11.680   7.167
79194SOL    HW239422  12.524  11.562   7.075
79195SOL     OW39423   1.764  11.496   6.949
79195SOL    HW139424   1.778  11.574   6.895
79195SOL    HW239425   1.849  11.479   6.989
79196SOL     OW39426   2.996   7.154   1.449
79196SOL    HW139427   2.977   7.077   1.503
79196SOL    HW239428   2.925   7.215   1.469
79197SOL     OW39429   6.504   4.745  14.347
79197SOL    HW139430   6.563   4.696  14.405
79197SOL    HW239431   6.425   4.757  14.400
79198SOL     OW39432  12.275   3.466   1.193
79198SOL    HW139433  12.328   3.454   1.272
79198SOL    HW239434  12.187   3.486   1.225
79199SOL     OW39435  10.546   4.578   1.525
79199SOL    HW139436  10.555   4.483   1.536
79199SOL    HW239437  10.522   4.610   1.612
79200SOL     OW39438   9.235   1.841   1.184
79200SOL    HW139439   9.167   1.899   1.150
79200SOL    HW239440   9.280   1.808   1.106
79201SOL     OW39441   7.121   0.361  12.245
79201SOL    HW139442   7.172   0.409  12.311
79201SOL    HW239443   7.030   0.384  12.263
79202SOL     OW39444  14.543   8.189   8.676
79202SOL    HW139445  14.602   8.229   8.741
79202SOL    HW239446  14.584   8.208   8.592
79203SOL     OW39447   8.306  12.408  11.909
79203SOL    HW139448   8.259  12.325  11.897
79203SOL    HW239449   8.397  12.382  11.922
79204SOL     OW39450  13.612   5.662  11.259
79204SOL    HW139451  13.524   5.692  11.281
79204SOL    HW239452  13.653   5.644  11.344
79205SOL     OW39453   8.892   7.138   8.246
79205SOL    HW139454   8.960   7.190   8.205
79205SOL    HW239455   8.927   7.117   8.333
79206SOL     OW39456  12.314  14.416   8.107
79206SOL    HW139457  12.391  14.399   8.161
79206SOL    HW239458  12.345  14.473   8.037
79207SOL     OW39459   2.547  12.392   1.388
79207SOL    HW139460   2.540  12.486   1.406
79207SOL    HW239461   2.626  12.365   1.434
79208SOL     OW39462   4.952   4.951   8.533
79208SOL    HW139463   4.875   4.936   8.478
79208SOL    HW239464   4.980   5.039   8.511
79209SOL     OW39465  11.809   0.853  13.500
79209SOL    HW139466  11.849   0.939  13.516
79209SOL    HW239467  11.791   0.818  13.587
79210SOL     OW39468   9.208   0.175  13.899
79210SOL    HW139469   9.119   0.192  13.931
79210SOL    HW239470   9.265   0.204  13.970
79211SOL     OW39471   0.253   8.281   0.343
79211SOL    HW139472   0.241   8.219   0.415
79211SOL    HW239473   0.324   8.245   0.291
79212SOL     OW39474   1.598   4.593   1.330
79212SOL    HW139475   1.538   4.623   1.398
79212SOL    HW239476   1.650   4.525   1.373
79213SOL     OW39477   8.931   3.193   2.353
79213SOL    HW139478   8.971   3.112   2.321
79213SOL    HW239479   8.890   3.232   2.276
79214SOL     OW39480   5.590  10.612  11.684
79214SOL    HW139481   5.502  10.639  11.711
79214SOL    HW239482   5.586  10.516  11.683
79215SOL     OW39483   4.004   0.098  11.808
79215SOL    HW139484   4.004   0.002  11.804
79215SOL    HW239485   4.090   0.119  11.845
79216SOL     OW39486  13.507   3.244  13.768
79216SOL    HW139487  13.501   3.162  13.816
79216SOL    HW239488  13.553   3.303  13.828
79217SOL     OW39489   1.028  11.973   0.774
79217SOL    HW139490   0.980  11.946   0.695
79217SOL    HW239491   0.969  12.035   0.817
79218SOL     OW39492   4.844   3.366  13.592
79218SOL    HW139493   4.851   3.461  13.581
79218SOL    HW239494   4.882   3.330  13.512
79219SOL     OW39495   7.604  13.878   2.820
79219SOL    HW139496   7.639  13.964   2.797
79219SOL    HW239497   7.622  13.824   2.743
79220SOL     OW39498   1.546   7.049   3.768
79220SOL    HW139499   1.585   6.969   3.804
79220SOL    HW239500   1.621   7.100   3.736
79221SOL     OW39501   4.956   7.088   9.935
79221SOL    HW139502   4.888   7.090   9.868
79221SOL    HW239503   5.035   7.062   9.888
79222SOL     OW39504  13.693  12.629   0.563
79222SOL    HW139505  13.716  12.651   0.653
79222SOL    HW239506  13.603  12.661   0.553
79223SOL     OW39507   5.393   4.768   8.618
79223SOL    HW139508   5.373   4.818   8.697
79223SOL    HW239509   5.461   4.706   8.645
79224SOL     OW39510   0.785  12.120   5.182
79224SOL    HW139511   0.803  12.028   5.201
79224SOL    HW239512   0.840  12.169   5.243
79225SOL     OW39513   8.117   0.523  14.818
79225SOL    HW139514   8.055   0.595  14.808
79225SOL    HW239515   8.183   0.538  14.750
79226SOL     OW39516   3.732   3.687   1.704
79226SOL    HW139517   3.717   3.592   1.711
79226SOL    HW239518   3.675   3.714   1.632
79227SOL     OW39519  12.396   2.242   4.831
79227SOL    HW139520  12.338   2.276   4.899
79227SOL    HW239521  12.365   2.281   4.750
79228SOL     OW39522   0.963  14.472   4.046
79228SOL    HW139523   0.993  14.456   4.135
79228SOL    HW239524   0.929  14.562   4.048
79229SOL     OW39525  12.438  13.815  12.785
79229SOL    HW139526  12.359  13.846  12.829
79229SOL    HW239527  12.463  13.736  12.833
79230SOL     OW39528  10.422  10.004  12.695
79230SOL    HW139529  10.480   9.929  12.709
79230SOL    HW239530  10.429  10.023  12.602
79231SOL     OW39531  10.530  11.180   1.842
79231SOL    HW139532  10.521  11.108   1.904
79231SOL    HW239533  10.479  11.252   1.880
79232SOL     OW39534   5.635   7.381   5.592
79232SOL    HW139535   5.596   7.294   5.596
79232SOL    HW239536   5.612   7.422   5.675
79233SOL     OW39537   6.356   9.067   2.355
79233SOL    HW139538   6.339   9.154   2.391
79233SOL    HW239539   6.428   9.032   2.408
79234SOL     OW39540   5.227   9.002   2.032
79234SOL    HW139541   5.185   8.953   1.962
79234SOL    HW239542   5.279   9.069   1.987
79235SOL     OW39543  10.687  12.369   3.261
79235SOL    HW139544  10.756  12.357   3.327
79235SOL    HW239545  10.623  12.300   3.280
79236SOL     OW39546  12.489   9.277   0.786
79236SOL    HW139547  12.540   9.335   0.729
79236SOL    HW239548  12.416   9.249   0.732
79237SOL     OW39549   8.462  12.770   1.562
79237SOL    HW139550   8.516  12.820   1.501
79237SOL    HW239551   8.419  12.837   1.617
79238SOL     OW39552   9.589   0.390   2.437
79238SOL    HW139553   9.498   0.416   2.451
79238SOL    HW239554   9.595   0.302   2.473
79239SOL     OW39555  14.598   0.241   7.391
79239SOL    HW139556  14.550   0.308   7.343
79239SOL    HW239557  14.564   0.248   7.481
79240SOL     OW39558   1.655   3.320  13.780
79240SOL    HW139559   1.631   3.395  13.726
79240SOL    HW239560   1.600   3.328  13.858
79241SOL     OW39561   6.371   9.967  13.020
79241SOL    HW139562   6.381   9.878  13.056
79241SOL    HW239563   6.345  10.020  13.096
79242SOL     OW39564   4.533   2.291   1.715
79242SOL    HW139565   4.475   2.360   1.682
79242SOL    HW239566   4.505   2.278   1.805
79243SOL     OW39567  10.391  13.754   7.888
79243SOL    HW139568  10.415  13.667   7.919
79243SOL    HW239569  10.350  13.796   7.964
79244SOL     OW39570   8.243   3.482   9.429
79244SOL    HW139571   8.172   3.443   9.378
79244SOL    HW239572   8.323   3.454   9.385
79245SOL     OW39573   0.055   0.466   4.602
79245SOL    HW139574   0.021   0.536   4.546
79245SOL    HW239575   0.148   0.485   4.610
79246SOL     OW39576   3.784   6.997  13.222
79246SOL    HW139577   3.843   7.059  13.179
79246SOL    HW239578   3.841   6.939  13.272
79247SOL     OW39579  10.710   0.051   5.933
79247SOL    HW139580  10.636   0.084   5.984
79247SOL    HW239581  10.760   0.130   5.911
79248SOL     OW39582  10.543  12.554  12.547
79248SOL    HW139583  10.571  12.547  12.638
79248SOL    HW239584  10.521  12.464  12.522
79249SOL     OW39585   0.868   6.726   6.942
79249SOL    HW139586   0.834   6.668   7.011
79249SOL    HW239587   0.952   6.687   6.918
79250SOL     OW39588   2.255   9.839   7.193
79250SOL    HW139589   2.324   9.891   7.233
79250SOL    HW239590   2.289   9.816   7.106
79251SOL     OW39591   1.037  12.651   2.683
79251SOL    HW139592   0.950  12.691   2.681
79251SOL    HW239593   1.091  12.707   2.628
79252SOL     OW39594   5.728  14.878   0.602
79252SOL    HW139595   5.664  14.833   0.658
79252SOL    HW239596   5.802   0.016   0.660
79253SOL     OW39597   1.604   6.648   7.678
79253SOL    HW139598   1.558   6.566   7.693
79253SOL    HW239599   1.641   6.671   7.763
79254SOL     OW39600  11.282   3.648   2.852
79254SOL    HW139601  11.282   3.736   2.814
79254SOL    HW239602  11.280   3.662   2.946
79255SOL     OW39603   3.230  10.998   7.231
79255SOL    HW139604   3.201  11.031   7.316
79255SOL    HW239605   3.168  10.928   7.210
79256SOL     OW39606   8.106  14.281   9.123
79256SOL    HW139607   8.075  14.247   9.040
79256SOL    HW239608   8.044  14.350   9.146
79257SOL     OW39609   2.457   2.987   0.028
79257SOL    HW139610   2.400   3.023  14.840
79257SOL    HW239611   2.533   2.953  14.860
79258SOL     OW39612  12.757   9.263  10.842
79258SOL    HW139613  12.696   9.309  10.900
79258SOL    HW239614  12.718   9.177  10.830
79259SOL     OW39615  11.042   6.764  12.064
79259SOL    HW139616  11.053   6.670  12.050
79259SOL    HW239617  10.948   6.779  12.054
79260SOL     OW39618   7.612  10.508   6.230
79260SOL    HW139619   7.631  10.593   6.190
79260SOL    HW239620   7.582  10.454   6.157
79261SOL     OW39621   6.172   0.180  13.820
79261SOL    HW139622   6.184   0.142  13.907
79261SOL    HW239623   6.078   0.170  13.803
79262SOL     OW39624  10.377  12.137  13.334
79262SOL    HW139625  10.435  12.093  13.396
79262SOL    HW239626  10.294  12.090  13.342
79263SOL     OW39627  14.615  12.221   8.953
79263SOL    HW139628  14.540  12.239   9.010
79263SOL    HW239629  14.690  12.219   9.012
79264SOL     OW39630  14.230  10.337   5.306
79264SOL    HW139631  14.275  10.265   5.351
79264SOL    HW239632  14.147  10.346   5.353
79265SOL     OW39633   1.184  13.198   0.224
79265SOL    HW139634   1.089  13.195   0.211
79265SOL    HW239635   1.220  13.194   0.135
79266SOL     OW39636  12.755   9.281  12.036
79266SOL    HW139637  12.720   9.369  12.050
79266SOL    HW239638  12.741   9.263  11.943
79267SOL     OW39639   3.977   1.207  13.190
79267SOL    HW139640   4.001   1.278  13.249
79267SOL    HW239641   3.883   1.193  13.206
79268SOL     OW39642  11.103   4.791   0.324
79268SOL    HW139643  11.059   4.806   0.241
79268SOL    HW239644  11.112   4.696   0.330
79269SOL     OW39645   1.246   0.233  14.462
79269SOL    HW139646   1.201   0.153  14.435
79269SOL    HW239647   1.228   0.241  14.555
79270SOL     OW39648  12.403  14.587   0.063
79270SOL    HW139649  12.375  14.525   0.131
79270SOL    HW239650  12.325  14.639   0.044
79271SOL     OW39651  10.216   3.456   5.616
79271SOL    HW139652  10.228   3.457   5.521
79271SOL    HW239653  10.152   3.525   5.633
79272SOL     OW39654   2.438   4.443   4.371
79272SOL    HW139655   2.395   4.361   4.394
79272SOL    HW239656   2.366   4.506   4.361
79273SOL     OW39657   1.434   9.398  11.694
79273SOL    HW139658   1.495   9.367  11.762
79273SOL    HW239659   1.348   9.367  11.724
79274SOL     OW39660  11.682   6.760   4.232
79274SOL    HW139661  11.593   6.725   4.223
79274SOL    HW239662  11.734   6.710   4.169
79275SOL     OW39663  13.545   3.270   5.532
79275SOL    HW139664  13.503   3.339   5.582
79275SOL    HW239665  13.476   3.206   5.516
79276SOL     OW39666  11.882   6.900  13.435
79276SOL    HW139667  11.879   6.912  13.530
79276SOL    HW239668  11.844   6.980  13.399
79277SOL     OW39669   2.307   2.436  13.621
79277SOL    HW139670   2.358   2.405  13.695
79277SOL    HW239671   2.325   2.372  13.551
79278SOL     OW39672  11.418  11.439   8.172
79278SOL    HW139673  11.469  11.442   8.253
79278SOL    HW239674  11.346  11.379   8.192
79279SOL     OW39675   4.060   2.255  13.408
79279SOL    HW139676   3.992   2.323  13.413
79279SOL    HW239677   4.013   2.173  13.426
79280SOL     OW39678  10.572  10.539   5.553
79280SOL    HW139679  10.564  10.550   5.458
79280SOL    HW239680  10.482  10.530   5.584
79281SOL     OW39681   5.426  14.517   3.696
79281SOL    HW139682   5.503  14.532   3.641
79281SOL    HW239683   5.402  14.603   3.728
79282SOL     OW39684  12.070   4.473  10.104
79282SOL    HW139685  12.105   4.397  10.152
79282SOL    HW239686  12.127   4.481  10.027
79283SOL     OW39687   3.851   4.109   1.380
79283SOL    HW139688   3.788   4.129   1.449
79283SOL    HW239689   3.912   4.184   1.380
79284SOL     OW39690   9.350   9.429  10.651
79284SOL    HW139691   9.416   9.486  10.612
79284SOL    HW239692   9.278   9.429  10.589
79285SOL     OW39693  13.873  14.555   3.730
79285SOL    HW139694  13.797  14.511   3.768
79285SOL    HW239695  13.889  14.629   3.788
79286SOL     OW39696   9.848  12.549   5.420
79286SOL    HW139697   9.873  12.537   5.329
79286SOL    HW239698   9.789  12.476   5.438
79287SOL     OW39699   4.246   1.208   1.176
79287SOL    HW139700   4.256   1.180   1.084
79287SOL    HW239701   4.332   1.195   1.214
79288SOL     OW39702   5.736   0.085  14.495
79288SOL    HW139703   5.670   0.029  14.537
79288SOL    HW239704   5.793   0.023  14.449
79289SOL     OW39705   7.313   8.088   0.546
79289SOL    HW139706   7.395   8.067   0.590
79289SOL    HW239707   7.247   8.084   0.616
79290SOL     OW39708   5.160   9.272   2.294
79290SOL    HW139709   5.067   9.281   2.317
79290SOL    HW239710   5.171   9.325   2.216
79291SOL     OW39711   1.360   8.461  14.632
79291SOL    HW139712   1.313   8.529  14.585
79291SOL    HW239713   1.452   8.486  14.625
79292SOL     OW39714  12.140  11.440  14.111
79292SOL    HW139715  12.208  11.463  14.174
79292SOL    HW239716  12.088  11.520  14.102
79293SOL     OW39717   6.648   6.879   6.794
79293SOL    HW139718   6.714   6.834   6.848
79293SOL    HW239719   6.644   6.967   6.831
79294SOL     OW39720   0.834   6.921   4.829
79294SOL    HW139721   0.742   6.896   4.837
79294SOL    HW239722   0.839   7.008   4.869
79295SOL     OW39723   1.103   8.051  10.696
79295SOL    HW139724   1.190   8.075  10.666
79295SOL    HW239725   1.099   7.956  10.685
79296SOL     OW39726   6.129   3.144   0.095
79296SOL    HW139727   6.160   3.059   0.127
79296SOL    HW239728   6.200   3.176   0.039
79297SOL     OW39729   6.452  12.456   8.403
79297SOL    HW139730   6.489  12.522   8.462
79297SOL    HW239731   6.442  12.502   8.320
79298SOL     OW39732   7.463   1.466   5.350
79298SOL    HW139733   7.522   1.501   5.283
79298SOL    HW239734   7.519   1.413   5.407
79299SOL     OW39735   0.997   1.363  11.046
79299SOL    HW139736   0.903   1.376  11.043
79299SOL    HW239737   1.008   1.282  11.096
79300SOL     OW39738   7.051   5.412   4.282
79300SOL    HW139739   7.061   5.436   4.190
79300SOL    HW239740   7.100   5.479   4.330
79301SOL     OW39741  13.288   5.309   5.696
79301SOL    HW139742  13.259   5.219   5.682
79301SOL    HW239743  13.381   5.301   5.719
79302SOL     OW39744  13.062   1.986   1.535
79302SOL    HW139745  13.122   1.946   1.472
79302SOL    HW239746  12.975   1.962   1.503
79303SOL     OW39747   5.968   2.171   8.709
79303SOL    HW139748   5.896   2.133   8.760
79303SOL    HW239749   5.924   2.227   8.645
79304SOL     OW39750   6.342   5.924   2.538
79304SOL    HW139751   6.428   5.889   2.514
79304SOL    HW239752   6.299   5.851   2.582
79305SOL     OW39753   6.193   4.407   0.211
79305SOL    HW139754   6.146   4.332   0.174
79305SOL    HW239755   6.144   4.483   0.181
79306SOL     OW39756  10.155   0.625   6.616
79306SOL    HW139757  10.219   0.690   6.589
79306SOL    HW239758  10.199   0.541   6.602
79307SOL     OW39759   4.239   2.366  14.259
79307SOL    HW139760   4.211   2.409  14.177
79307SOL    HW239761   4.249   2.274  14.236
79308SOL     OW39762   5.977  14.333  10.326
79308SOL    HW139763   6.047  14.274  10.298
79308SOL    HW239764   5.971  14.321  10.421
79309SOL     OW39765  13.786   0.757   3.624
79309SOL    HW139766  13.797   0.822   3.693
79309SOL    HW239767  13.712   0.789   3.572
79310SOL     OW39768   6.419   2.462   9.280
79310SOL    HW139769   6.352   2.485   9.216
79310SOL    HW239770   6.390   2.378   9.317
79311SOL     OW39771   8.400   9.210   5.039
79311SOL    HW139772   8.447   9.127   5.043
79311SOL    HW239773   8.435   9.253   4.960
79312SOL     OW39774   1.698  13.689   0.770
79312SOL    HW139775   1.754  13.767   0.767
79312SOL    HW239776   1.714  13.650   0.856
79313SOL     OW39777   9.721   4.039   1.985
79313SOL    HW139778   9.770   4.063   2.064
79313SOL    HW239779   9.630   4.036   2.014
79314SOL     OW39780   7.706   4.566   2.989
79314SOL    HW139781   7.667   4.533   3.070
79314SOL    HW239782   7.792   4.524   2.985
79315SOL     OW39783  10.412   8.918  11.779
79315SOL    HW139784  10.439   8.828  11.794
79315SOL    HW239785  10.446   8.939  11.692
79316SOL     OW39786   8.588   9.263   6.099
79316SOL    HW139787   8.623   9.177   6.076
79316SOL    HW239788   8.645   9.294   6.169
79317SOL     OW39789   1.917  10.153  14.791
79317SOL    HW139790   1.853  10.214  14.754
79317SOL    HW239791   1.866  10.076  14.817
79318SOL     OW39792  11.843   6.427   3.361
79318SOL    HW139793  11.771   6.368   3.337
79318SOL    HW239794  11.800   6.500   3.406
79319SOL     OW39795   1.706  13.120   6.366
79319SOL    HW139796   1.668  13.043   6.324
79319SOL    HW239797   1.645  13.142   6.437
79320SOL     OW39798   3.291   5.710   2.535
79320SOL    HW139799   3.298   5.655   2.613
79320SOL    HW239800   3.223   5.774   2.557
79321SOL     OW39801  10.876   1.701   3.888
79321SOL    HW139802  10.905   1.672   3.802
79321SOL    HW239803  10.945   1.671   3.948
79322SOL     OW39804   7.493   2.525  10.904
79322SOL    HW139805   7.588   2.516  10.893
79322SOL    HW239806   7.455   2.461  10.843
79323SOL     OW39807   1.301  10.252   6.105
79323SOL    HW139808   1.288  10.314   6.034
79323SOL    HW239809   1.376  10.200   6.079
79324SOL     OW39810   3.724  10.889  12.023
79324SOL    HW139811   3.706  10.976  12.059
79324SOL    HW239812   3.716  10.830  12.099
79325SOL     OW39813   8.736  10.372  13.267
79325SOL    HW139814   8.794  10.304  13.234
79325SOL    HW239815   8.751  10.374  13.361
79326SOL     OW39816   1.871   9.265   2.545
79326SOL    HW139817   1.830   9.346   2.516
79326SOL    HW239818   1.910   9.229   2.466
79327SOL     OW39819   9.336   8.557   4.515
79327SOL    HW139820   9.373   8.560   4.604
79327SOL    HW239821   9.252   8.513   4.527
79328SOL     OW39822   4.879  12.005   0.467
79328SOL    HW139823   4.831  12.006   0.550
79328SOL    HW239824   4.812  11.986   0.401
79329SOL     OW39825   9.530  10.037   7.778
79329SOL    HW139826   9.624  10.050   7.768
79329SOL    HW239827   9.517  10.029   7.873
79330SOL     OW39828   4.310  11.292  11.514
79330SOL    HW139829   4.386  11.235  11.511
79330SOL    HW239830   4.272  11.287  11.426
79331SOL     OW39831   6.536  10.751   4.044
79331SOL    HW139832   6.613  10.707   4.007
79331SOL    HW239833   6.473  10.753   3.972
79332SOL     OW39834  12.979   0.676   5.106
79332SOL    HW139835  12.991   0.584   5.130
79332SOL    HW239836  13.043   0.723   5.159
79333SOL     OW39837   1.081   6.089  13.467
79333SOL    HW139838   1.059   6.160  13.527
79333SOL    HW239839   0.997   6.059  13.433
79334SOL     OW39840  12.584  11.544  11.127
79334SOL    HW139841  12.543  11.482  11.067
79334SOL    HW239842  12.678  11.523  11.122
79335SOL     OW39843   9.946   6.538  10.797
79335SOL    HW139844   9.982   6.458  10.835
79335SOL    HW239845   9.915   6.512  10.711
79336SOL     OW39846   5.038   3.174   6.104
79336SOL    HW139847   5.073   3.183   6.192
79336SOL    HW239848   4.943   3.165   6.117
79337SOL     OW39849   3.847   1.387   0.808
79337SOL    HW139850   3.930   1.342   0.801
79337SOL    HW239851   3.832   1.397   0.902
79338SOL     OW39852   5.423   2.964   3.856
79338SOL    HW139853   5.449   2.980   3.765
79338SOL    HW239854   5.503   2.935   3.899
79339SOL     OW39855   0.988   5.145   6.116
79339SOL    HW139856   0.908   5.172   6.162
79339SOL    HW239857   1.036   5.092   6.180
79340SOL     OW39858   9.850   2.888   6.896
79340SOL    HW139859   9.791   2.840   6.838
79340SOL    HW239860   9.837   2.849   6.982
79341SOL     OW39861  10.875   8.884  13.444
79341SOL    HW139862  10.842   8.872  13.355
79341SOL    HW239863  10.799   8.915  13.494
79342SOL     OW39864  10.264  12.118   4.286
79342SOL    HW139865  10.308  12.041   4.251
79342SOL    HW239866  10.171  12.101   4.275
79343SOL     OW39867  12.200   5.590  14.607
79343SOL    HW139868  12.272   5.528  14.594
79343SOL    HW239869  12.237   5.659  14.662
79344SOL     OW39870  11.056   4.794  11.492
79344SOL    HW139871  11.005   4.869  11.522
79344SOL    HW239872  11.141   4.803  11.535
79345SOL     OW39873   0.813   2.230   1.787
79345SOL    HW139874   0.821   2.174   1.865
79345SOL    HW239875   0.770   2.309   1.819
79346SOL     OW39876   1.064   4.892   4.363
79346SOL    HW139877   1.064   4.953   4.437
79346SOL    HW239878   0.977   4.899   4.325
79347SOL     OW39879   4.134   1.969   2.694
79347SOL    HW139880   4.194   1.899   2.721
79347SOL    HW239881   4.066   1.970   2.761
79348SOL     OW39882  12.477   7.072   7.242
79348SOL    HW139883  12.408   7.080   7.176
79348SOL    HW239884  12.477   7.156   7.288
79349SOL     OW39885  10.298   3.330   3.226
79349SOL    HW139886  10.264   3.253   3.273
79349SOL    HW239887  10.231   3.397   3.240
79350SOL     OW39888   0.704   5.236   0.091
79350SOL    HW139889   0.729   5.230   0.183
79350SOL    HW239890   0.714   5.329   0.070
79351SOL     OW39891   8.453   9.207  14.870
79351SOL    HW139892   8.459   9.259   0.070
79351SOL    HW239893   8.365   9.170  14.872
79352SOL     OW39894   3.258   2.820   0.689
79352SOL    HW139895   3.173   2.831   0.647
79352SOL    HW239896   3.268   2.898   0.744
79353SOL     OW39897   8.423   6.301   1.922
79353SOL    HW139898   8.493   6.238   1.937
79353SOL    HW239899   8.371   6.262   1.851
79354SOL     OW39900  12.914   8.882   0.445
79354SOL    HW139901  12.921   8.932   0.363
79354SOL    HW239902  12.999   8.895   0.488
79355SOL     OW39903   8.052   3.487   8.854
79355SOL    HW139904   8.129   3.452   8.810
79355SOL    HW239905   8.072   3.478   8.947
79356SOL     OW39906   3.266   8.269  13.831
79356SOL    HW139907   3.210   8.232  13.762
79356SOL    HW239908   3.253   8.210  13.906
79357SOL     OW39909   3.781   4.484  10.717
79357SOL    HW139910   3.742   4.420  10.778
79357SOL    HW239911   3.712   4.549  10.705
79358SOL     OW39912  13.017  13.979  14.179
79358SOL    HW139913  12.944  14.010  14.125
79358SOL    HW239914  12.975  13.931  14.250
79359SOL     OW39915  14.553  13.279   6.461
79359SOL    HW139916  14.609  13.331   6.519
79359SOL    HW239917  14.484  13.245   6.519
79360SOL     OW39918  14.193   9.642   0.353
79360SOL    HW139919  14.172   9.555   0.320
79360SOL    HW239920  14.121   9.697   0.323
79361SOL     OW39921   9.981  12.835   8.299
79361SOL    HW139922   9.984  12.931   8.298
79361SOL    HW239923   9.955  12.812   8.388
79362SOL     OW39924   7.722  14.114   6.437
79362SOL    HW139925   7.801  14.094   6.386
79362SOL    HW239926   7.754  14.161   6.514
79363SOL     OW39927   6.009  11.633   9.404
79363SOL    HW139928   5.991  11.725   9.385
79363SOL    HW239929   6.011  11.628   9.499
79364SOL     OW39930  14.170   3.384   7.492
79364SOL    HW139931  14.130   3.341   7.568
79364SOL    HW239932  14.098   3.434   7.453
79365SOL     OW39933   0.436  11.731   3.849
79365SOL    HW139934   0.416  11.651   3.801
79365SOL    HW239935   0.407  11.713   3.938
79366SOL     OW39936   8.698  10.294   5.301
79366SOL    HW139937   8.755  10.283   5.377
79366SOL    HW239938   8.650  10.212   5.295
79367SOL     OW39939   8.169   7.819  11.548
79367SOL    HW139940   8.215   7.737  11.567
79367SOL    HW239941   8.236   7.877  11.514
79368SOL     OW39942   1.683   8.988   3.563
79368SOL    HW139943   1.693   9.077   3.529
79368SOL    HW239944   1.772   8.960   3.584
79369SOL     OW39945   3.037   1.105  10.381
79369SOL    HW139946   2.959   1.145  10.420
79369SOL    HW239947   3.006   1.063  10.301
79370SOL     OW39948   4.771  10.470   5.248
79370SOL    HW139949   4.753  10.409   5.177
79370SOL    HW239950   4.697  10.458   5.308
79371SOL     OW39951   8.891  13.449   7.890
79371SOL    HW139952   8.839  13.380   7.931
79371SOL    HW239953   8.966  13.462   7.949
79372SOL     OW39954   2.535   5.845  11.693
79372SOL    HW139955   2.548   5.763  11.644
79372SOL    HW239956   2.590   5.836  11.771
79373SOL     OW39957  14.464  11.207  10.548
79373SOL    HW139958  14.547  11.161  10.537
79373SOL    HW239959  14.420  11.160  10.619
79374SOL     OW39960   3.192   4.919   4.464
79374SOL    HW139961   3.186   5.015   4.463
79374SOL    HW239962   3.177   4.892   4.374
79375SOL     OW39963   1.222  10.558   9.993
79375SOL    HW139964   1.298  10.532  10.046
79375SOL    HW239965   1.182  10.629  10.043
79376SOL     OW39966   7.804  13.231   1.070
79376SOL    HW139967   7.725  13.256   1.117
79376SOL    HW239968   7.856  13.312   1.068
79377SOL     OW39969  12.663   2.805  10.130
79377SOL    HW139970  12.731   2.819  10.065
79377SOL    HW239971  12.658   2.710  10.140
79378SOL     OW39972   2.992  11.470   0.111
79378SOL    HW139973   3.053  11.415   0.160
79378SOL    HW239974   3.041  11.499   0.034
79379SOL     OW39975   4.908   6.405   4.205
79379SOL    HW139976   4.814   6.421   4.193
79379SOL    HW239977   4.915   6.370   4.294
79380SOL     OW39978   1.135   9.667  11.231
79380SOL    HW139979   1.093   9.753  11.227
79380SOL    HW239980   1.064   9.606  11.252
79381SOL     OW39981   6.678   1.131   3.986
79381SOL    HW139982   6.590   1.163   4.004
79381SOL    HW239983   6.691   1.059   4.047
79382SOL     OW39984   5.129  11.790   1.814
79382SOL    HW139985   5.097  11.792   1.904
79382SOL    HW239986   5.067  11.733   1.768
79383SOL     OW39987   0.177   8.676  10.647
79383SOL    HW139988   0.186   8.639  10.559
79383SOL    HW239989   0.152   8.767  10.633
79384SOL     OW39990  14.167   3.075   1.198
79384SOL    HW139991  14.115   3.061   1.119
79384SOL    HW239992  14.104   3.109   1.263
79385SOL     OW39993   2.129  11.370  14.318
79385SOL    HW139994   2.052  11.419  14.345
79385SOL    HW239995   2.170  11.341  14.399
79386SOL     OW39996   4.316  11.044   1.001
79386SOL    HW139997   4.311  11.134   0.968
79386SOL    HW239998   4.346  10.992   0.926
79387SOL     OW39999   2.249   9.446   1.580
79387SOL    HW140000   2.316   9.412   1.521
79387SOL    HW240001   2.206   9.367   1.614
79388SOL     OW40002   7.796   2.098   9.128
79388SOL    HW140003   7.711   2.140   9.142
79388SOL    HW240004   7.835   2.092   9.215
79389SOL     OW40005   2.641   0.522  14.794
79389SOL    HW140006   2.616   0.612  14.814
79389SOL    HW240007   2.637   0.516  14.699
79390SOL     OW40008   7.488   1.788   0.053
79390SOL    HW140009   7.486   1.803  14.838
79390SOL    HW240010   7.499   1.875   0.091
79391SOL     OW40011  10.170   8.404   7.435
79391SOL    HW140012  10.137   8.486   7.397
79391SOL    HW240013  10.264   8.407   7.419
79392SOL     OW40014   5.243  11.932   7.768
79392SOL    HW140015   5.163  11.882   7.782
79392SOL    HW240016   5.230  11.977   7.685
79393SOL     OW40017  10.668  10.451   0.786
79393SOL    HW140018  10.622  10.535   0.795
79393SOL    HW240019  10.679  10.439   0.692
79394SOL     OW40020   1.603   0.091   2.811
79394SOL    HW140021   1.536   0.034   2.773
79394SOL    HW240022   1.554   0.167   2.843
79395SOL     OW40023  11.078   6.695   9.099
79395SOL    HW140024  11.023   6.719   9.173
79395SOL    HW240025  11.018   6.688   9.025
79396SOL     OW40026  11.034   5.955   9.404
79396SOL    HW140027  11.028   5.941   9.499
79396SOL    HW240028  11.023   6.049   9.393
79397SOL     OW40029   0.077   4.518   3.801
79397SOL    HW140030   0.156   4.466   3.812
79397SOL    HW240031   0.081   4.551   3.711
79398SOL     OW40032   4.528  10.742   9.094
79398SOL    HW140033   4.524  10.655   9.055
79398SOL    HW240034   4.439  10.777   9.085
79399SOL     OW40035  12.222  10.229   3.868
79399SOL    HW140036  12.299  10.266   3.912
79399SOL    HW240037  12.161  10.210   3.940
79400SOL     OW40038  14.630   1.836   4.864
79400SOL    HW140039  14.599   1.830   4.773
79400SOL    HW240040  14.724   1.818   4.859
79401SOL     OW40041   2.354   6.861   3.952
79401SOL    HW140042   2.322   6.889   3.866
79401SOL    HW240043   2.317   6.923   4.014
79402SOL     OW40044   9.947   4.382   0.341
79402SOL    HW140045   9.930   4.315   0.407
79402SOL    HW240046  10.007   4.444   0.384
79403SOL     OW40047  11.835   6.777   8.020
79403SOL    HW140048  11.859   6.705   8.079
79403SOL    HW240049  11.918   6.820   8.001
79404SOL     OW40050   7.185  10.026  12.621
79404SOL    HW140051   7.146  10.082  12.688
79404SOL    HW240052   7.273  10.063  12.608
79405SOL     OW40053   9.384   2.122  10.921
79405SOL    HW140054   9.315   2.185  10.944
79405SOL    HW240055   9.459   2.177  10.898
79406SOL     OW40056   4.237   6.924   3.583
79406SOL    HW140057   4.176   6.850   3.574
79406SOL    HW240058   4.316   6.894   3.539
79407SOL     OW40059   6.688   4.585   2.241
79407SOL    HW140060   6.625   4.657   2.248
79407SOL    HW240061   6.733   4.583   2.325
79408SOL     OW40062  13.213   3.695   2.201
79408SOL    HW140063  13.187   3.787   2.211
79408SOL    HW240064  13.306   3.693   2.224
79409SOL     OW40065   1.396   3.501   7.607
79409SOL    HW140066   1.452   3.562   7.655
79409SOL    HW240067   1.392   3.423   7.663
79410SOL     OW40068   4.770   8.796   6.089
79410SOL    HW140069   4.802   8.739   6.159
79410SOL    HW240070   4.711   8.857   6.133
79411SOL     OW40071   0.357   8.905  13.673
79411SOL    HW140072   0.377   8.967  13.743
79411SOL    HW240073   0.348   8.821  13.717
79412SOL     OW40074   8.479   9.765   8.444
79412SOL    HW140075   8.472   9.710   8.365
79412SOL    HW240076   8.405   9.737   8.499
79413SOL     OW40077   2.792   5.617   0.378
79413SOL    HW140078   2.752   5.581   0.458
79413SOL    HW240079   2.730   5.594   0.309
79414SOL     OW40080   7.237   1.037   4.351
79414SOL    HW140081   7.165   1.099   4.363
79414SOL    HW240082   7.255   1.040   4.257
79415SOL     OW40083   4.707   4.960   1.828
79415SOL    HW140084   4.745   5.037   1.871
79415SOL    HW240085   4.617   4.986   1.809
79416SOL     OW40086   5.803   8.992   8.697
79416SOL    HW140087   5.879   8.961   8.648
79416SOL    HW240088   5.780   8.919   8.755
79417SOL     OW40089  10.913  13.945  10.697
79417SOL    HW140090  10.914  13.998  10.777
79417SOL    HW240091  10.990  13.889  10.704
79418SOL     OW40092  14.685   4.174   9.478
79418SOL    HW140093  14.600   4.216   9.463
79418SOL    HW240094  14.749   4.244   9.466
79419SOL     OW40095  10.406  13.752   6.457
79419SOL    HW140096  10.318  13.783   6.436
79419SOL    HW240097  10.410  13.754   6.553
79420SOL     OW40098   0.686   5.732  12.906
79420SOL    HW140099   0.688   5.649  12.955
79420SOL    HW240100   0.731   5.794  12.963
79421SOL     OW40101   4.291   2.690   5.229
79421SOL    HW140102   4.266   2.729   5.145
79421SOL    HW240103   4.332   2.761   5.277
79422SOL     OW40104   2.343   1.164   0.220
79422SOL    HW140105   2.308   1.077   0.200
79422SOL    HW240106   2.329   1.175   0.314
79423SOL     OW40107   6.741  12.548   2.333
79423SOL    HW140108   6.826  12.503   2.332
79423SOL    HW240109   6.756  12.628   2.283
79424SOL     OW40110   7.377  13.128  10.827
79424SOL    HW140111   7.316  13.066  10.867
79424SOL    HW240112   7.458  13.119  10.878
79425SOL     OW40113   5.021  13.845   9.796
79425SOL    HW140114   5.074  13.769   9.770
79425SOL    HW240115   4.974  13.815   9.873
79426SOL     OW40116   2.875   5.865   3.558
79426SOL    HW140117   2.785   5.833   3.544
79426SOL    HW240118   2.888   5.929   3.488
79427SOL     OW40119   0.929   4.286   4.901
79427SOL    HW140120   1.009   4.314   4.946
79427SOL    HW240121   0.940   4.317   4.811
79428SOL     OW40122   1.689  12.695  11.037
79428SOL    HW140123   1.600  12.663  11.054
79428SOL    HW240124   1.746  12.628  11.073
79429SOL     OW40125  12.345  10.966  13.613
79429SOL    HW140126  12.427  10.997  13.575
79429SOL    HW240127  12.306  11.043  13.653
79430SOL     OW40128   1.413  10.213   7.063
79430SOL    HW140129   1.325  10.248   7.055
79430SOL    HW240130   1.461  10.250   6.989
79431SOL     OW40131   6.037  13.568  11.616
79431SOL    HW140132   6.103  13.504  11.644
79431SOL    HW240133   6.087  13.647  11.596
79432SOL     OW40134   6.229  13.140   0.291
79432SOL    HW140135   6.163  13.195   0.334
79432SOL    HW240136   6.183  13.059   0.270
79433SOL     OW40137   3.868   0.644  12.416
79433SOL    HW140138   3.903   0.732  12.404
79433SOL    HW240139   3.773   0.656  12.418
79434SOL     OW40140  12.443   3.608  12.433
79434SOL    HW140141  12.410   3.641  12.349
79434SOL    HW240142  12.538   3.614  12.426
79435SOL     OW40143  14.775   8.455   2.203
79435SOL    HW140144  14.741   8.403   2.130
79435SOL    HW240145  14.868   8.464   2.184
79436SOL     OW40146   3.229   4.300   8.758
79436SOL    HW140147   3.163   4.239   8.726
79436SOL    HW240148   3.259   4.262   8.840
79437SOL     OW40149   7.539  13.269   0.501
79437SOL    HW140150   7.574  13.195   0.451
79437SOL    HW240151   7.533  13.236   0.591
79438SOL     OW40152   1.281  11.775  10.412
79438SOL    HW140153   1.299  11.706  10.348
79438SOL    HW240154   1.360  11.830  10.409
79439SOL     OW40155   8.487   1.883  13.330
79439SOL    HW140156   8.430   1.927  13.392
79439SOL    HW240157   8.496   1.794  13.364
79440SOL     OW40158   7.745   4.513   0.476
79440SOL    HW140159   7.828   4.559   0.460
79440SOL    HW240160   7.770   4.438   0.530
79441SOL     OW40161   1.766  10.977  10.722
79441SOL    HW140162   1.745  10.944  10.634
79441SOL    HW240163   1.692  10.948  10.776
79442SOL     OW40164   1.227   9.829   4.276
79442SOL    HW140165   1.192   9.864   4.358
79442SOL    HW240166   1.304   9.779   4.302
79443SOL     OW40167   4.329   9.976   9.231
79443SOL    HW140168   4.247   9.952   9.187
79443SOL    HW240169   4.360  10.054   9.185
79444SOL     OW40170  14.665   3.000   5.932
79444SOL    HW140171  14.644   2.926   5.989
79444SOL    HW240172  14.739   3.044   5.976
79445SOL     OW40173   1.060   3.754   9.683
79445SOL    HW140174   1.068   3.832   9.737
79445SOL    HW240175   1.143   3.747   9.638
79446SOL     OW40176  12.123  13.733   7.034
79446SOL    HW140177  12.044  13.692   6.998
79446SOL    HW240178  12.107  13.737   7.128
79447SOL     OW40179  11.927   3.845  10.870
79447SOL    HW140180  12.004   3.880  10.916
79447SOL    HW240181  11.853   3.869  10.926
79448SOL     OW40182   3.050   9.541   5.003
79448SOL    HW140183   3.142   9.564   5.008
79448SOL    HW240184   3.010   9.609   4.949
79449SOL     OW40185  13.496   8.927  10.215
79449SOL    HW140186  13.441   8.872  10.272
79449SOL    HW240187  13.451   8.926  10.130
79450SOL     OW40188   8.851   2.717   1.116
79450SOL    HW140189   8.853   2.773   1.038
79450SOL    HW240190   8.925   2.747   1.168
79451SOL     OW40191  12.985  12.062  12.579
79451SOL    HW140192  13.008  11.973  12.604
79451SOL    HW240193  13.059  12.091  12.524
79452SOL     OW40194   1.860   8.059   1.876
79452SOL    HW140195   1.815   8.106   1.946
79452SOL    HW240196   1.795   7.996   1.844
79453SOL     OW40197  10.175   5.671   5.731
79453SOL    HW140198  10.258   5.705   5.699
79453SOL    HW240199  10.144   5.614   5.660
79454SOL     OW40200   1.330   6.596   9.800
79454SOL    HW140201   1.409   6.596   9.854
79454SOL    HW240202   1.329   6.682   9.759
79455SOL     OW40203   7.672  12.505  10.574
79455SOL    HW140204   7.760  12.534  10.549
79455SOL    HW240205   7.681  12.476  10.665
79456SOL     OW40206   4.430   5.301   6.321
79456SOL    HW140207   4.499   5.241   6.293
79456SOL    HW240208   4.374   5.311   6.245
79457SOL     OW40209   9.897  14.392  13.995
79457SOL    HW140210   9.982  14.394  14.038
79457SOL    HW240211   9.856  14.475  14.020
79458SOL     OW40212  14.746  13.806  10.024
79458SOL    HW140213  14.704  13.724  10.049
79458SOL    HW240214  14.693  13.874  10.068
79459SOL     OW40215  11.141   2.473  11.878
79459SOL    HW140216  11.230   2.495  11.907
79459SOL    HW240217  11.150   2.384  11.842
79460SOL     OW40218  12.108   2.297   8.065
79460SOL    HW140219  12.127   2.390   8.055
79460SOL    HW240220  12.072   2.270   7.980
79461SOL     OW40221  14.601  13.942   3.257
79461SOL    HW140222  14.642  13.997   3.191
79461SOL    HW240223  14.586  14.000   3.331
79462SOL     OW40224   0.419   9.939  12.267
79462SOL    HW140225   0.326   9.918  12.263
79462SOL    HW240226   0.423  10.034  12.255
79463SOL     OW40227   4.404   5.274   3.528
79463SOL    HW140228   4.365   5.202   3.478
79463SOL    HW240229   4.498   5.257   3.524
79464SOL     OW40230   4.326   7.675  14.102
79464SOL    HW140231   4.302   7.605  14.162
79464SOL    HW240232   4.361   7.630  14.025
79465SOL     OW40233  11.288   6.912  14.207
79465SOL    HW140234  11.206   6.905  14.159
79465SOL    HW240235  11.336   6.983  14.163
79466SOL     OW40236  10.448   2.289   4.411
79466SOL    HW140237  10.486   2.214   4.456
79466SOL    HW240238  10.490   2.365   4.451
79467SOL     OW40239   4.888   4.836  12.986
79467SOL    HW140240   4.983   4.823  12.977
79467SOL    HW240241   4.849   4.778  12.921
79468SOL     OW40242  11.834  12.343   4.896
79468SOL    HW140243  11.837  12.357   4.991
79468SOL    HW240244  11.918  12.377   4.864
79469SOL     OW40245   6.894   6.372  12.408
79469SOL    HW140246   6.841   6.415  12.341
79469SOL    HW240247   6.858   6.284  12.415
79470SOL     OW40248   2.600   0.421  14.405
79470SOL    HW140249   2.590   0.332  14.438
79470SOL    HW240250   2.604   0.410  14.310
79471SOL     OW40251   8.990   5.076   1.094
79471SOL    HW140252   9.085   5.078   1.102
79471SOL    HW240253   8.958   5.111   1.177
79472SOL     OW40254   3.377   2.100   7.868
79472SOL    HW140255   3.404   2.190   7.886
79472SOL    HW240256   3.379   2.057   7.953
79473SOL     OW40257  14.376  13.688   0.823
79473SOL    HW140258  14.469  13.673   0.836
79473SOL    HW240259  14.339  13.602   0.803
79474SOL     OW40260  14.089   3.659   6.340
79474SOL    HW140261  14.098   3.567   6.316
79474SOL    HW240262  14.179   3.692   6.343
79475SOL     OW40263  12.744   2.124   6.956
79475SOL    HW140264  12.724   2.075   6.877
79475SOL    HW240265  12.668   2.181   6.970
79476SOL     OW40266  14.545   1.329   3.341
79476SOL    HW140267  14.490   1.340   3.263
79476SOL    HW240268  14.632   1.310   3.306
79477SOL     OW40269   7.032   7.640   8.668
79477SOL    HW140270   7.072   7.663   8.752
79477SOL    HW240271   7.075   7.697   8.604
79478SOL     OW40272  12.296   0.139   3.289
79478SOL    HW140273  12.337   0.159   3.205
79478SOL    HW240274  12.216   0.191   3.289
79479SOL     OW40275   9.910   7.882  11.734
79479SOL    HW140276   9.852   7.943  11.688
79479SOL    HW240277   9.998   7.917  11.719
79480SOL     OW40278   6.518  10.176   9.613
79480SOL    HW140279   6.541  10.084   9.625
79480SOL    HW240280   6.489  10.183   9.522
79481SOL     OW40281  14.051  10.703  13.441
79481SOL    HW140282  13.984  10.721  13.506
79481SOL    HW240283  14.134  10.726  13.484
79482SOL     OW40284   6.221   4.455  10.524
79482SOL    HW140285   6.244   4.380  10.469
79482SOL    HW240286   6.215   4.420  10.612
79483SOL     OW40287   3.864   3.857   9.841
79483SOL    HW140288   3.835   3.785   9.785
79483SOL    HW240289   3.935   3.899   9.792
79484SOL     OW40290   0.167  11.551   2.701
79484SOL    HW140291   0.221  11.592   2.769
79484SOL    HW240292   0.219  11.558   2.621
79485SOL     OW40293   6.135   4.025   7.323
79485SOL    HW140294   6.133   3.989   7.235
79485SOL    HW240295   6.117   3.950   7.380
79486SOL     OW40296  12.246  13.193   3.171
79486SOL    HW140297  12.199  13.262   3.218
79486SOL    HW240298  12.284  13.139   3.239
79487SOL     OW40299   6.488  10.555   8.359
79487SOL    HW140300   6.485  10.634   8.412
79487SOL    HW240301   6.548  10.577   8.287
79488SOL     OW40302   8.992   4.696   5.663
79488SOL    HW140303   9.046   4.751   5.607
79488SOL    HW240304   9.021   4.607   5.644
79489SOL     OW40305   0.617   2.947  13.895
79489SOL    HW140306   0.702   2.910  13.921
79489SOL    HW240307   0.636   3.038  13.874
79490SOL     OW40308   7.726   4.859   0.239
79490SOL    HW140309   7.716   4.951   0.215
79490SOL    HW240310   7.694   4.810   0.163
79491SOL     OW40311   5.657  12.989   0.368
79491SOL    HW140312   5.660  12.952   0.280
79491SOL    HW240313   5.627  12.918   0.424
79492SOL     OW40314   0.716   5.570   1.557
79492SOL    HW140315   0.796   5.585   1.505
79492SOL    HW240316   0.729   5.484   1.596
79493SOL     OW40317   7.410   0.350   4.636
79493SOL    HW140318   7.425   0.440   4.664
79493SOL    HW240319   7.391   0.302   4.717
79494SOL     OW40320   8.684   3.995  12.626
79494SOL    HW140321   8.746   3.932  12.662
79494SOL    HW240322   8.740   4.064  12.589
79495SOL     OW40323   9.611   1.585   3.339
79495SOL    HW140324   9.591   1.517   3.274
79495SOL    HW240325   9.531   1.637   3.345
79496SOL     OW40326   1.602  10.565   8.525
79496SOL    HW140327   1.616  10.471   8.523
79496SOL    HW240328   1.547  10.582   8.448
79497SOL     OW40329   6.008  11.908   6.172
79497SOL    HW140330   6.004  11.856   6.252
79497SOL    HW240331   6.081  11.871   6.122
79498SOL     OW40332   5.412   4.807   1.653
79498SOL    HW140333   5.327   4.841   1.679
79498SOL    HW240334   5.457   4.788   1.735
79499SOL     OW40335  12.204  14.755   4.020
79499SOL    HW140336  12.248  14.827   3.975
79499SOL    HW240337  12.170  14.793   4.101
79500SOL     OW40338   4.530   3.811   0.467
79500SOL    HW140339   4.517   3.870   0.393
79500SOL    HW240340   4.625   3.801   0.474
79501SOL     OW40341   4.418  13.850  11.916
79501SOL    HW140342   4.509  13.821  11.924
79501SOL    HW240343   4.376  13.822  11.997
79502SOL     OW40344   0.372   9.625   0.942
79502SOL    HW140345   0.401   9.692   0.881
79502SOL    HW240346   0.447   9.608   0.998
79503SOL     OW40347   4.231   3.186  10.592
79503SOL    HW140348   4.137   3.196  10.583
79503SOL    HW240349   4.242   3.114  10.654
79504SOL     OW40350   9.699  14.663   9.337
79504SOL    HW140351   9.794  14.658   9.340
79504SOL    HW240352   9.674  14.696   9.423
79505SOL     OW40353   4.465   5.114  10.613
79505SOL    HW140354   4.554   5.095  10.582
79505SOL    HW240355   4.477   5.187  10.674
79506SOL     OW40356  12.731   5.894   9.143
79506SOL    HW140357  12.812   5.855   9.111
79506SOL    HW240358  12.665   5.827   9.129
79507SOL     OW40359   9.538  10.667  12.764
79507SOL    HW140360   9.509  10.734  12.702
79507SOL    HW240361   9.623  10.699  12.796
79508SOL     OW40362   5.334   6.626   2.588
79508SOL    HW140363   5.273   6.639   2.661
79508SOL    HW240364   5.347   6.531   2.585
79509SOL     OW40365  13.261   3.878  10.042
79509SOL    HW140366  13.222   3.808  10.095
79509SOL    HW240367  13.186   3.929  10.011
79510SOL     OW40368   0.714   6.418  12.798
79510SOL    HW140369   0.785   6.415  12.733
79510SOL    HW240370   0.676   6.505  12.787
79511SOL     OW40371   2.519  13.101  11.293
79511SOL    HW140372   2.601  13.147  11.273
79511SOL    HW240373   2.548  13.018  11.331
79512SOL     OW40374   1.128   9.990  12.234
79512SOL    HW140375   1.065   9.948  12.292
79512SOL    HW240376   1.208   9.937  12.242
79513SOL     OW40377   8.576   8.377   1.042
79513SOL    HW140378   8.669   8.379   1.020
79513SOL    HW240379   8.531   8.393   0.959
79514SOL     OW40380   1.789  11.331   2.740
79514SOL    HW140381   1.699  11.362   2.754
79514SOL    HW240382   1.784  11.236   2.755
79515SOL     OW40383   1.795   5.969   8.255
79515SOL    HW140384   1.704   5.992   8.274
79515SOL    HW240385   1.827   6.040   8.199
79516SOL     OW40386   5.890   5.260  11.678
79516SOL    HW140387   5.931   5.344  11.698
79516SOL    HW240388   5.945   5.195  11.724
79517SOL     OW40389   1.175   0.083  13.916
79517SOL    HW140390   1.146   0.070  13.826
79517SOL    HW240391   1.232   0.159  13.912
79518SOL     OW40392   2.570  12.199   5.919
79518SOL    HW140393   2.650  12.250   5.933
79518SOL    HW240394   2.517  12.255   5.862
79519SOL     OW40395  11.463   3.906   6.364
79519SOL    HW140396  11.515   3.974   6.320
79519SOL    HW240397  11.429   3.852   6.292
79520SOL     OW40398   4.666   8.418   4.755
79520SOL    HW140399   4.732   8.397   4.690
79520SOL    HW240400   4.692   8.367   4.832
79521SOL     OW40401   2.687   3.410  13.205
79521SOL    HW140402   2.608   3.356  13.206
79521SOL    HW240403   2.665   3.485  13.260
79522SOL     OW40404   0.846   2.211   4.606
79522SOL    HW140405   0.773   2.272   4.613
79522SOL    HW240406   0.809   2.134   4.564
79523SOL     OW40407   8.967   4.222  11.298
79523SOL    HW140408   9.027   4.295  11.318
79523SOL    HW240409   8.991   4.195  11.209
79524SOL     OW40410  11.467   3.602   5.898
79524SOL    HW140411  11.524   3.643   5.962
79524SOL    HW240412  11.379   3.633   5.920
79525SOL     OW40413   4.926   3.144   1.183
79525SOL    HW140414   4.896   3.082   1.249
79525SOL    HW240415   4.845   3.182   1.147
79526SOL     OW40416   5.812   4.106   7.456
79526SOL    HW140417   5.823   4.079   7.365
79526SOL    HW240418   5.813   4.025   7.506
79527SOL     OW40419  12.618   7.907   7.448
79527SOL    HW140420  12.554   7.979   7.447
79527SOL    HW240421  12.700   7.949   7.477
79528SOL     OW40422   7.659   3.180   8.183
79528SOL    HW140423   7.649   3.220   8.269
79528SOL    HW240424   7.574   3.195   8.140
79529SOL     OW40425   9.342  14.549   5.119
79529SOL    HW140426   9.415  14.600   5.082
79529SOL    HW240427   9.279  14.615   5.148
79530SOL     OW40428  11.525   5.670   2.589
79530SOL    HW140429  11.600   5.695   2.644
79530SOL    HW240430  11.448   5.696   2.639
79531SOL     OW40431   4.853   4.783  10.187
79531SOL    HW140432   4.834   4.768  10.094
79531SOL    HW240433   4.811   4.867  10.207
79532SOL     OW40434  11.637   2.464   1.981
79532SOL    HW140435  11.564   2.406   1.960
79532SOL    HW240436  11.599   2.529   2.042
79533SOL     OW40437   6.372  10.766   1.564
79533SOL    HW140438   6.325  10.765   1.648
79533SOL    HW240439   6.422  10.684   1.563
79534SOL     OW40440  14.169   2.156   7.143
79534SOL    HW140441  14.215   2.117   7.069
79534SOL    HW240442  14.156   2.082   7.203
79535SOL     OW40443  11.405   9.886   6.316
79535SOL    HW140444  11.365   9.822   6.375
79535SOL    HW240445  11.431   9.835   6.239
79536SOL     OW40446  14.129   3.470   1.960
79536SOL    HW140447  14.218   3.505   1.962
79536SOL    HW240448  14.085   3.514   2.033
79537SOL     OW40449  14.206   1.686   5.443
79537SOL    HW140450  14.270   1.750   5.474
79537SOL    HW240451  14.135   1.690   5.507
79538SOL     OW40452   0.491  11.951   9.182
79538SOL    HW140453   0.566  12.008   9.164
79538SOL    HW240454   0.500  11.926   9.273
79539SOL     OW40455   5.375   8.965  10.059
79539SOL    HW140456   5.415   8.887  10.020
79539SOL    HW240457   5.306   8.990   9.998
79540SOL     OW40458   8.199  12.148  13.380
79540SOL    HW140459   8.164  12.070  13.423
79540SOL    HW240460   8.214  12.210  13.451
79541SOL     OW40461  12.778   2.474   3.646
79541SOL    HW140462  12.704   2.505   3.699
79541SOL    HW240463  12.740   2.456   3.560
79542SOL     OW40464   3.171  12.578   1.994
79542SOL    HW140465   3.248  12.633   1.980
79542SOL    HW240466   3.118  12.590   1.916
79543SOL     OW40467   6.195   7.185   3.827
79543SOL    HW140468   6.259   7.237   3.778
79543SOL    HW240469   6.118   7.183   3.771
79544SOL     OW40470   5.318   5.141   2.522
79544SOL    HW140471   5.350   5.080   2.456
79544SOL    HW240472   5.269   5.087   2.584
79545SOL     OW40473   2.175  10.648   4.270
79545SOL    HW140474   2.225  10.572   4.240
79545SOL    HW240475   2.153  10.627   4.361
79546SOL     OW40476  14.824  11.648  10.254
79546SOL    HW140477  14.786  11.560  10.256
79546SOL    HW240478  14.780  11.692  10.182
79547SOL     OW40479  14.036   8.505   0.793
79547SOL    HW140480  13.979   8.563   0.844
79547SOL    HW240481  14.124   8.542   0.803
79548SOL     OW40482   0.529   0.523  12.069
79548SOL    HW140483   0.590   0.593  12.044
79548SOL    HW240484   0.442   0.561  12.053
79549SOL     OW40485   9.072   2.241  10.758
79549SOL    HW140486   9.000   2.298  10.784
79549SOL    HW240487   9.140   2.257  10.823
79550SOL     OW40488  11.441  11.546   2.391
79550SOL    HW140489  11.512  11.495   2.431
79550SOL    HW240490  11.457  11.538   2.296
79551SOL     OW40491  14.095   1.228  13.069
79551SOL    HW140492  14.002   1.211  13.081
79551SOL    HW240493  14.103   1.254  12.977
79552SOL     OW40494   1.644   4.686   0.906
79552SOL    HW140495   1.687   4.654   0.827
79552SOL    HW240496   1.692   4.766   0.929
79553SOL     OW40497   0.121  11.922  14.192
79553SOL    HW140498   0.096  11.990  14.129
79553SOL    HW240499   0.164  11.970  14.263
79554SOL     OW40500   9.490   0.711   0.501
79554SOL    HW140501   9.512   0.802   0.483
79554SOL    HW240502   9.532   0.661   0.431
79555SOL     OW40503   6.067  13.512   3.074
79555SOL    HW140504   6.033  13.429   3.108
79555SOL    HW240505   6.044  13.511   2.981
79556SOL     OW40506   4.010  10.209   3.700
79556SOL    HW140507   3.919  10.196   3.672
79556SOL    HW240508   4.023  10.145   3.770
79557SOL     OW40509   5.019   2.853  11.457
79557SOL    HW140510   4.988   2.769  11.425
79557SOL    HW240511   5.110   2.837  11.482
79558SOL     OW40512  14.195   5.152   3.581
79558SOL    HW140513  14.290   5.139   3.582
79558SOL    HW240514  14.167   5.117   3.496
79559SOL     OW40515   8.230  13.119  14.337
79559SOL    HW140516   8.271  13.102  14.422
79559SOL    HW240517   8.141  13.145  14.358
79560SOL     OW40518   6.018   9.890  12.868
79560SOL    HW140519   5.923   9.886  12.882
79560SOL    HW240520   6.053   9.815  12.918
79561SOL     OW40521   0.307  13.666   1.604
79561SOL    HW140522   0.366  13.649   1.531
79561SOL    HW240523   0.280  13.757   1.593
79562SOL     OW40524  11.188   8.146   2.089
79562SOL    HW140525  11.215   8.154   2.181
79562SOL    HW240526  11.172   8.236   2.061
79563SOL     OW40527  10.409  14.165  10.544
79563SOL    HW140528  10.315  14.150  10.533
79563SOL    HW240529  10.450  14.097  10.491
79564SOL     OW40530  11.526   4.159  11.364
79564SOL    HW140531  11.550   4.143  11.455
79564SOL    HW240532  11.539   4.253  11.351
79565SOL     OW40533  14.096   6.054  13.978
79565SOL    HW140534  14.081   5.993  13.906
79565SOL    HW240535  14.087   6.000  14.057
79566SOL     OW40536  13.158   2.847   3.424
79566SOL    HW140537  13.080   2.812   3.466
79566SOL    HW240538  13.206   2.769   3.395
79567SOL     OW40539  11.278   1.358   7.601
79567SOL    HW140540  11.260   1.351   7.507
79567SOL    HW240541  11.302   1.270   7.628
79568SOL     OW40542   1.964   9.539  12.013
79568SOL    HW140543   1.970   9.590  11.933
79568SOL    HW240544   2.009   9.456  11.992
79569SOL     OW40545  11.872   0.184   3.741
79569SOL    HW140546  11.820   0.108   3.717
79569SOL    HW240547  11.963   0.158   3.725
79570SOL     OW40548  11.137   6.408  12.256
79570SOL    HW140549  11.203   6.458  12.304
79570SOL    HW240550  11.173   6.401  12.167
79571SOL     OW40551  12.202  12.551  14.741
79571SOL    HW140552  12.245  12.508  14.668
79571SOL    HW240553  12.267  12.615  14.773
79572SOL     OW40554   0.119   0.057   0.435
79572SOL    HW140555   0.082   0.014   0.512
79572SOL    HW240556   0.044   0.070   0.377
79573SOL     OW40557   6.700   2.916   1.808
79573SOL    HW140558   6.679   3.008   1.793
79573SOL    HW240559   6.642   2.868   1.749
79574SOL     OW40560   7.609  12.686  13.764
79574SOL    HW140561   7.694  12.722  13.738
79574SOL    HW240562   7.557  12.687  13.683
79575SOL     OW40563  13.506   7.737  14.501
79575SOL    HW140564  13.412   7.718  14.494
79575SOL    HW240565  13.537   7.735  14.410
79576SOL     OW40566  10.617  12.112   2.330
79576SOL    HW140567  10.614  12.068   2.415
79576SOL    HW240568  10.698  12.161   2.331
79577SOL     OW40569   5.786  12.143   3.084
79577SOL    HW140570   5.803  12.054   3.053
79577SOL    HW240571   5.713  12.134   3.145
79578SOL     OW40572   7.949  13.344   9.724
79578SOL    HW140573   7.951  13.430   9.682
79578SOL    HW240574   7.862  13.339   9.765
79579SOL     OW40575   5.183   6.126   2.395
79579SOL    HW140576   5.116   6.066   2.428
79579SOL    HW240577   5.265   6.078   2.405
79580SOL     OW40578   9.311  12.882  12.163
79580SOL    HW140579   9.349  12.794  12.156
79580SOL    HW240580   9.385  12.941  12.148
79581SOL     OW40581   1.000   3.057  14.353
79581SOL    HW140582   1.025   2.981  14.301
79581SOL    HW240583   1.014   3.131  14.295
79582SOL     OW40584   7.820   8.019   8.675
79582SOL    HW140585   7.764   7.970   8.614
79582SOL    HW240586   7.775   8.015   8.759
79583SOL     OW40587   2.187  11.705   7.461
79583SOL    HW140588   2.168  11.707   7.367
79583SOL    HW240589   2.103  11.719   7.503
79584SOL     OW40590   5.156   8.442   9.971
79584SOL    HW140591   5.188   8.518   9.922
79584SOL    HW240592   5.177   8.367   9.915
79585SOL     OW40593   9.065   3.904  13.733
79585SOL    HW140594   9.075   3.818  13.775
79585SOL    HW240595   8.987   3.941  13.774
79586SOL     OW40596   9.771  11.937  14.090
79586SOL    HW140597   9.763  12.016  14.036
79586SOL    HW240598   9.826  11.964  14.163
79587SOL     OW40599  14.785   9.674   5.760
79587SOL    HW140600  14.712   9.622   5.796
79587SOL    HW240601  14.855   9.610   5.748
79588SOL     OW40602   2.354   7.392  11.212
79588SOL    HW140603   2.312   7.432  11.137
79588SOL    HW240604   2.384   7.306  11.181
79589SOL     OW40605  12.958  14.134   4.397
79589SOL    HW140606  12.897  14.091   4.337
79589SOL    HW240607  12.904  14.158   4.473
79590SOL     OW40608   8.044  10.784   2.567
79590SOL    HW140609   7.951  10.802   2.579
79590SOL    HW240610   8.047  10.692   2.542
79591SOL     OW40611  14.731  12.970  12.634
79591SOL    HW140612  14.748  12.933  12.547
79591SOL    HW240613  14.644  13.009  12.627
79592SOL     OW40614   6.765   9.986  12.265
79592SOL    HW140615   6.801   9.908  12.308
79592SOL    HW240616   6.747  10.047  12.337
79593SOL     OW40617   2.426   0.022   5.101
79593SOL    HW140618   2.397   0.091   5.160
79593SOL    HW240619   2.472  14.839   5.158
79594SOL     OW40620   3.663   8.738   5.490
79594SOL    HW140621   3.590   8.748   5.429
79594SOL    HW240622   3.741   8.754   5.437
79595SOL     OW40623  13.760   6.911   3.596
79595SOL    HW140624  13.667   6.902   3.615
79595SOL    HW240625  13.773   7.005   3.580
79596SOL     OW40626   9.439  14.551   0.682
79596SOL    HW140627   9.387  14.482   0.639
79596SOL    HW240628   9.435  14.529   0.775
79597SOL     OW40629  13.333  11.710   7.295
79597SOL    HW140630  13.374  11.765   7.228
79597SOL    HW240631  13.239  11.722   7.281
79598SOL     OW40632  12.591   5.729   8.162
79598SOL    HW140633  12.618   5.650   8.208
79598SOL    HW240634  12.578   5.794   8.231
79599SOL     OW40635   9.789  14.682   4.197
79599SOL    HW140636   9.712  14.729   4.166
79599SOL    HW240637   9.778  14.593   4.162
79600SOL     OW40638  10.009   3.780   0.471
79600SOL    HW140639  10.098   3.743   0.467
79600SOL    HW240640   9.991   3.788   0.564
79601SOL     OW40641   5.547   5.179   9.168
79601SOL    HW140642   5.512   5.153   9.083
79601SOL    HW240643   5.631   5.219   9.148
79602SOL     OW40644   4.576   8.019   6.320
79602SOL    HW140645   4.573   8.026   6.225
79602SOL    HW240646   4.523   8.092   6.351
79603SOL     OW40647   0.178   3.942   9.817
79603SOL    HW140648   0.270   3.963   9.802
79603SOL    HW240649   0.139   4.025   9.844
79604SOL     OW40650  13.002   6.815   9.458
79604SOL    HW140651  12.982   6.774   9.374
79604SOL    HW240652  13.043   6.898   9.434
79605SOL     OW40653   7.169   3.330   8.011
79605SOL    HW140654   7.162   3.244   8.053
79605SOL    HW240655   7.180   3.310   7.918
79606SOL     OW40656  11.865   6.421   7.206
79606SOL    HW140657  11.943   6.383   7.247
79606SOL    HW240658  11.898   6.487   7.147
79607SOL     OW40659  10.053  14.653   1.806
79607SOL    HW140660   9.969  14.609   1.813
79607SOL    HW240661  10.107  14.593   1.755
79608SOL     OW40662   5.879   5.275  12.731
79608SOL    HW140663   5.802   5.271  12.675
79608SOL    HW240664   5.860   5.346  12.793
79609SOL     OW40665   8.446  12.982  12.319
79609SOL    HW140666   8.358  12.998  12.285
79609SOL    HW240667   8.434  12.977  12.414
79610SOL     OW40668   4.481  11.382   8.579
79610SOL    HW140669   4.511  11.446   8.514
79610SOL    HW240670   4.390  11.363   8.555
79611SOL     OW40671  10.479   7.058   4.796
79611SOL    HW140672  10.551   7.000   4.820
79611SOL    HW240673  10.497   7.081   4.705
79612SOL     OW40674   7.227   6.783   5.658
79612SOL    HW140675   7.146   6.788   5.708
79612SOL    HW240676   7.279   6.857   5.690
79613SOL     OW40677   8.498   0.164   9.876
79613SOL    HW140678   8.582   0.129   9.846
79613SOL    HW240679   8.437   0.091   9.868
79614SOL     OW40680  14.461   8.463   3.128
79614SOL    HW140681  14.526   8.444   3.060
79614SOL    HW240682  14.509   8.452   3.211
79615SOL     OW40683   6.944   8.524   6.299
79615SOL    HW140684   6.942   8.609   6.256
79615SOL    HW240685   6.921   8.543   6.390
79616SOL     OW40686   9.475  13.262  12.598
79616SOL    HW140687   9.419  13.269  12.521
79616SOL    HW240688   9.562  13.244  12.562
79617SOL     OW40689  14.054   9.229   2.238
79617SOL    HW140690  13.965   9.200   2.216
79617SOL    HW240691  14.041   9.302   2.298
79618SOL     OW40692   3.709  12.045   6.943
79618SOL    HW140693   3.696  11.963   6.990
79618SOL    HW240694   3.704  12.112   7.011
79619SOL     OW40695   3.056  13.951   2.365
79619SOL    HW140696   3.095  13.865   2.381
79619SOL    HW240697   3.088  14.006   2.436
79620SOL     OW40698   7.090   6.413   5.951
79620SOL    HW140699   7.083   6.322   5.922
79620SOL    HW240700   7.175   6.442   5.918
79621SOL     OW40701  13.632  13.776   1.189
79621SOL    HW140702  13.722  13.759   1.161
79621SOL    HW240703  13.599  13.690   1.216
79622SOL     OW40704   8.407  10.736   4.596
79622SOL    HW140705   8.331  10.744   4.539
79622SOL    HW240706   8.373  10.695   4.676
79623SOL     OW40707   4.806  13.582  11.314
79623SOL    HW140708   4.791  13.594  11.407
79623SOL    HW240709   4.847  13.664  11.285
79624SOL     OW40710  10.170   6.151  14.421
79624SOL    HW140711  10.218   6.074  14.390
79624SOL    HW240712  10.237   6.215  14.441
79625SOL     OW40713   7.243   3.155   2.372
79625SOL    HW140714   7.155   3.167   2.336
79625SOL    HW240715   7.256   3.061   2.374
79626SOL     OW40716  12.118   9.996  10.489
79626SOL    HW140717  12.209  10.009  10.518
79626SOL    HW240718  12.112  10.046  10.408
79627SOL     OW40719   4.228   4.066   7.556
79627SOL    HW140720   4.220   3.971   7.564
79627SOL    HW240721   4.157   4.101   7.609
79628SOL     OW40722   3.130   9.592  10.651
79628SOL    HW140723   3.083   9.515  10.682
79628SOL    HW240724   3.216   9.588  10.694
79629SOL     OW40725  14.384   3.058  11.751
79629SOL    HW140726  14.435   3.132  11.720
79629SOL    HW240727  14.336   3.028  11.673
79630SOL     OW40728   6.471   1.143  13.232
79630SOL    HW140729   6.424   1.159  13.151
79630SOL    HW240730   6.554   1.191  13.223
79631SOL     OW40731  10.188   8.779   4.398
79631SOL    HW140732  10.162   8.870   4.392
79631SOL    HW240733  10.247   8.775   4.473
79632SOL     OW40734   8.169   7.736   4.491
79632SOL    HW140735   8.215   7.716   4.572
79632SOL    HW240736   8.091   7.681   4.494
79633SOL     OW40737   3.247  10.550   4.452
79633SOL    HW140738   3.197  10.621   4.411
79633SOL    HW240739   3.266  10.489   4.381
79634SOL     OW40740   4.942   6.803  14.564
79634SOL    HW140741   4.895   6.882  14.536
79634SOL    HW240742   5.024   6.805  14.514
79635SOL     OW40743  11.580  10.817   4.670
79635SOL    HW140744  11.496  10.844   4.632
79635SOL    HW240745  11.572  10.722   4.681
79636SOL     OW40746   4.185   8.519   3.932
79636SOL    HW140747   4.137   8.601   3.924
79636SOL    HW240748   4.118   8.451   3.927
79637SOL     OW40749   7.900  12.443   9.512
79637SOL    HW140750   7.974  12.429   9.572
79637SOL    HW240751   7.940  12.454   9.426
79638SOL     OW40752   8.117   1.916  11.953
79638SOL    HW140753   8.091   1.999  11.913
79638SOL    HW240754   8.083   1.849  11.893
79639SOL     OW40755   5.766   7.594   9.966
79639SOL    HW140756   5.747   7.500   9.967
79639SOL    HW240757   5.807   7.611  10.051
79640SOL     OW40758  14.276   2.934  11.511
79640SOL    HW140759  14.282   2.928  11.416
79640SOL    HW240760  14.217   2.863  11.537
79641SOL     OW40761   1.873   8.075  13.033
79641SOL    HW140762   1.862   8.039  12.945
79641SOL    HW240763   1.893   8.000  13.088
79642SOL     OW40764  14.264  13.442   0.728
79642SOL    HW140765  14.169  13.428   0.726
79642SOL    HW240766  14.300  13.354   0.742
79643SOL     OW40767   3.489   6.022   7.309
79643SOL    HW140768   3.432   6.004   7.234
79643SOL    HW240769   3.465   5.956   7.374
79644SOL     OW40770  10.599   7.565   8.792
79644SOL    HW140771  10.569   7.644   8.837
79644SOL    HW240772  10.606   7.500   8.861
79645SOL     OW40773   5.263   1.363  12.737
79645SOL    HW140774   5.334   1.299  12.743
79645SOL    HW240775   5.203   1.338  12.807
79646SOL     OW40776   7.892   4.438   1.136
79646SOL    HW140777   7.836   4.375   1.181
79646SOL    HW240778   7.872   4.427   1.043
79647SOL     OW40779  11.491   4.776  11.422
79647SOL    HW140780  11.504   4.870  11.421
79647SOL    HW240781  11.550   4.745  11.492
79648SOL     OW40782   9.072   5.171  12.483
79648SOL    HW140783   9.019   5.097  12.454
79648SOL    HW240784   9.161   5.136  12.490
79649SOL     OW40785  10.724  13.940  13.769
79649SOL    HW140786  10.717  13.882  13.845
79649SOL    HW240787  10.804  13.913  13.725
79650SOL     OW40788   2.753  12.681  10.391
79650SOL    HW140789   2.800  12.598  10.402
79650SOL    HW240790   2.667  12.656  10.356
79651SOL     OW40791  14.406   8.540   5.367
79651SOL    HW140792  14.420   8.457   5.413
79651SOL    HW240793  14.318   8.566   5.391
79652SOL     OW40794   0.698  12.989   5.973
79652SOL    HW140795   0.718  13.065   5.919
79652SOL    HW240796   0.617  13.011   6.018
79653SOL     OW40797   2.586   2.135   6.884
79653SOL    HW140798   2.624   2.081   6.954
79653SOL    HW240799   2.656   2.144   6.820
79654SOL     OW40800   8.300   5.775   9.434
79654SOL    HW140801   8.381   5.794   9.480
79654SOL    HW240802   8.232   5.817   9.486
79655SOL     OW40803   9.845  11.286   5.268
79655SOL    HW140804   9.766  11.324   5.307
79655SOL    HW240805   9.917  11.333   5.310
79656SOL     OW40806  13.715  11.213   1.870
79656SOL    HW140807  13.670  11.135   1.838
79656SOL    HW240808  13.808  11.197   1.850
79657SOL     OW40809   5.371   8.904   5.215
79657SOL    HW140810   5.431   8.830   5.204
79657SOL    HW240811   5.390   8.938   5.302
79658SOL     OW40812   0.026   4.804  12.007
79658SOL    HW140813  14.879   4.766  12.091
79658SOL    HW240814  14.823   4.829  11.965
79659SOL     OW40815   1.480  14.735   4.303
79659SOL    HW140816   1.493  14.699   4.391
79659SOL    HW240817   1.412  14.800   4.313
79660SOL     OW40818   1.738   3.068   8.897
79660SOL    HW140819   1.695   3.033   8.819
79660SOL    HW240820   1.699   3.020   8.970
79661SOL     OW40821  12.043  13.252  13.084
79661SOL    HW140822  12.073  13.171  13.044
79661SOL    HW240823  12.024  13.310  13.011
79662SOL     OW40824   0.711   5.672   9.913
79662SOL    HW140825   0.676   5.652  10.000
79662SOL    HW240826   0.726   5.767   9.915
79663SOL     OW40827   0.167   3.540   1.688
79663SOL    HW140828   0.091   3.595   1.706
79663SOL    HW240829   0.140   3.486   1.614
79664SOL     OW40830   8.284   4.269   8.058
79664SOL    HW140831   8.280   4.192   8.114
79664SOL    HW240832   8.255   4.238   7.972
79665SOL     OW40833   3.246  11.463  14.081
79665SOL    HW140834   3.327  11.513  14.095
79665SOL    HW240835   3.250  11.437  13.989
79666SOL     OW40836   9.938   3.137  12.907
79666SOL    HW140837   9.851   3.100  12.889
79666SOL    HW240838   9.957   3.108  12.996
79667SOL     OW40839  12.933   0.475   8.029
79667SOL    HW140840  12.879   0.487   8.107
79667SOL    HW240841  12.909   0.388   7.996
79668SOL     OW40842   8.758   5.710   2.140
79668SOL    HW140843   8.740   5.745   2.227
79668SOL    HW240844   8.834   5.759   2.109
79669SOL     OW40845   9.383  11.314   8.195
79669SOL    HW140846   9.337  11.393   8.166
79669SOL    HW240847   9.476  11.334   8.179
79670SOL     OW40848  13.154   2.857   6.563
79670SOL    HW140849  13.212   2.836   6.636
79670SOL    HW240850  13.176   2.947   6.540
79671SOL     OW40851   2.370   5.729  12.746
79671SOL    HW140852   2.451   5.688  12.778
79671SOL    HW240853   2.393   5.821  12.733
79672SOL     OW40854  13.985   9.054   0.151
79672SOL    HW140855  13.930   9.119   0.195
79672SOL    HW240856  14.001   8.988   0.219
79673SOL     OW40857  13.820   9.578  14.004
79673SOL    HW140858  13.829   9.559  13.910
79673SOL    HW240859  13.726   9.595  14.015
79674SOL     OW40860  14.604  10.904   8.903
79674SOL    HW140861  14.515  10.918   8.869
79674SOL    HW240862  14.595  10.918   8.997
79675SOL     OW40863   4.475   2.203   5.715
79675SOL    HW140864   4.383   2.219   5.733
79675SOL    HW240865   4.482   2.207   5.620
79676SOL     OW40866   8.598   6.386   8.968
79676SOL    HW140867   8.513   6.407   8.929
79676SOL    HW240868   8.597   6.291   8.978
79677SOL     OW40869  13.526   9.842  12.067
79677SOL    HW140870  13.459   9.804  12.125
79677SOL    HW240871  13.609   9.815  12.106
79678SOL     OW40872   1.722   3.039  12.916
79678SOL    HW140873   1.734   3.124  12.958
79678SOL    HW240874   1.771   3.046  12.834
79679SOL     OW40875   1.551   2.845  13.098
79679SOL    HW140876   1.637   2.811  13.072
79679SOL    HW240877   1.571   2.918  13.157
79680SOL     OW40878   6.341   2.026  11.106
79680SOL    HW140879   6.391   1.945  11.107
79680SOL    HW240880   6.301   2.030  11.193
79681SOL     OW40881   5.174   4.247   1.619
79681SOL    HW140882   5.171   4.297   1.701
79681SOL    HW240883   5.203   4.310   1.553
79682SOL     OW40884   9.255   4.823   7.487
79682SOL    HW140885   9.199   4.770   7.544
79682SOL    HW240886   9.207   4.905   7.477
79683SOL     OW40887   5.854   4.875   0.726
79683SOL    HW140888   5.836   4.966   0.750
79683SOL    HW240889   5.921   4.846   0.788
79684SOL     OW40890   0.687   6.105   3.712
79684SOL    HW140891   0.697   6.191   3.751
79684SOL    HW240892   0.734   6.046   3.771
79685SOL     OW40893   9.932   9.833  11.069
79685SOL    HW140894   9.919   9.892  11.143
79685SOL    HW240895   9.906   9.747  11.102
79686SOL     OW40896   4.225   1.824   9.978
79686SOL    HW140897   4.144   1.826  10.028
79686SOL    HW240898   4.241   1.915   9.954
79687SOL     OW40899   7.502   5.901  14.258
79687SOL    HW140900   7.556   5.838  14.210
79687SOL    HW240901   7.467   5.959  14.191
79688SOL     OW40902   5.848   8.040   5.981
79688SOL    HW140903   5.925   8.013   6.031
79688SOL    HW240904   5.865   8.007   5.892
79689SOL     OW40905  10.781   2.794  12.233
79689SOL    HW140906  10.723   2.757  12.299
79689SOL    HW240907  10.868   2.791  12.273
79690SOL     OW40908   8.758   5.904  12.586
79690SOL    HW140909   8.751   5.971  12.653
79690SOL    HW240910   8.852   5.890  12.576
79691SOL     OW40911   1.312   0.312  13.823
79691SOL    HW140912   1.352   0.355  13.747
79691SOL    HW240913   1.229   0.359  13.836
79692SOL     OW40914   0.412   1.858   0.063
79692SOL    HW140915   0.419   1.953   0.075
79692SOL    HW240916   0.324   1.836   0.094
79693SOL     OW40917   4.055   5.780   7.522
79693SOL    HW140918   3.989   5.711   7.532
79693SOL    HW240919   4.005   5.861   7.526
79694SOL     OW40920   5.401   6.671   5.287
79694SOL    HW140921   5.382   6.606   5.220
79694SOL    HW240922   5.405   6.754   5.240
79695SOL     OW40923   2.406   8.053  14.421
79695SOL    HW140924   2.452   8.118  14.473
79695SOL    HW240925   2.464   7.978  14.419
79696SOL     OW40926   7.532  13.718  10.345
79696SOL    HW140927   7.563  13.805  10.320
79696SOL    HW240928   7.450  13.707  10.297
79697SOL     OW40929  11.237   9.680   9.739
79697SOL    HW140930  11.311   9.642   9.787
79697SOL    HW240931  11.200   9.607   9.690
79698SOL     OW40932  11.824  13.593  10.592
79698SOL    HW140933  11.750  13.620  10.538
79698SOL    HW240934  11.810  13.499  10.606
79699SOL     OW40935   3.008   1.388  12.996
79699SOL    HW140936   2.916   1.382  13.021
79699SOL    HW240937   3.056   1.376  13.078
79700SOL     OW40938  11.277   1.418   0.295
79700SOL    HW140939  11.202   1.470   0.323
79700SOL    HW240940  11.307   1.461   0.214
79701SOL     OW40941  13.982   2.141   5.406
79701SOL    HW140942  14.008   2.095   5.327
79701SOL    HW240943  13.886   2.147   5.400
79702SOL     OW40944   4.717  11.891  14.692
79702SOL    HW140945   4.709  11.918  14.784
79702SOL    HW240946   4.716  11.974  14.643
79703SOL     OW40947  14.122  14.405   0.055
79703SOL    HW140948  14.172  14.325   0.074
79703SOL    HW240949  14.122  14.454   0.137
79704SOL     OW40950  11.585   8.403   1.457
79704SOL    HW140951  11.543   8.318   1.451
79704SOL    HW240952  11.630   8.402   1.542
79705SOL     OW40953   0.478   3.404   3.043
79705SOL    HW140954   0.562   3.448   3.032
79705SOL    HW240955   0.476   3.379   3.136
79706SOL     OW40956  14.223   7.135  14.567
79706SOL    HW140957  14.128   7.129  14.556
79706SOL    HW240958  14.257   7.062  14.516
79707SOL     OW40959   4.652  12.312   7.284
79707SOL    HW140960   4.618  12.299   7.195
79707SOL    HW240961   4.732  12.362   7.273
79708SOL     OW40962   8.696   2.376   7.418
79708SOL    HW140963   8.625   2.315   7.398
79708SOL    HW240964   8.775   2.322   7.421
79709SOL     OW40965   6.211   6.631   6.675
79709SOL    HW140966   6.223   6.568   6.746
79709SOL    HW240967   6.255   6.710   6.705
79710SOL     OW40968  14.083   7.961  10.860
79710SOL    HW140969  13.998   7.956  10.817
79710SOL    HW240970  14.136   7.893  10.819
79711SOL     OW40971  14.568  12.670  14.603
79711SOL    HW140972  14.658  12.675  14.634
79711SOL    HW240973  14.557  12.578  14.577
79712SOL     OW40974   6.851   4.353   1.269
79712SOL    HW140975   6.805   4.295   1.207
79712SOL    HW240976   6.841   4.309   1.354
79713SOL     OW40977  11.447  13.906   2.161
79713SOL    HW140978  11.457  13.937   2.071
79713SOL    HW240979  11.529  13.930   2.205
79714SOL     OW40980   8.963   8.044   7.701
79714SOL    HW140981   8.873   8.064   7.727
79714SOL    HW240982   8.979   8.099   7.625
79715SOL     OW40983   7.682   1.989   4.390
79715SOL    HW140984   7.748   2.039   4.438
79715SOL    HW240985   7.637   2.054   4.336
79716SOL     OW40986   5.667   2.992   0.391
79716SOL    HW140987   5.739   2.930   0.400
79716SOL    HW240988   5.709   3.075   0.367
79717SOL     OW40989   1.597   1.895  14.572
79717SOL    HW140990   1.654   1.825  14.540
79717SOL    HW240991   1.623   1.972  14.521
79718SOL     OW40992  14.073  13.206  13.263
79718SOL    HW140993  14.069  13.298  13.237
79718SOL    HW240994  14.166  13.183  13.260
79719SOL     OW40995   0.872  10.698  12.945
79719SOL    HW140996   0.908  10.626  12.892
79719SOL    HW240997   0.820  10.749  12.883
79720SOL     OW40998   0.152   5.185   2.712
79720SOL    HW140999   0.245   5.204   2.700
79720SOL    HW241000   0.107   5.266   2.685
79721SOL     OW41001   3.407  10.176   6.010
79721SOL    HW141002   3.493  10.154   5.976
79721SOL    HW241003   3.353  10.100   5.990
79722SOL     OW41004  11.540  10.682   6.957
79722SOL    HW141005  11.470  10.626   6.993
79722SOL    HW241006  11.516  10.770   6.985
79723SOL     OW41007  12.624   7.593  14.207
79723SOL    HW141008  12.572   7.647  14.147
79723SOL    HW241009  12.568   7.517  14.225
79724SOL     OW41010   4.513   5.182   9.286
79724SOL    HW141011   4.437   5.137   9.325
79724SOL    HW241012   4.498   5.175   9.192
79725SOL     OW41013   8.141   1.423   2.476
79725SOL    HW141014   8.074   1.390   2.535
79725SOL    HW241015   8.100   1.496   2.430
79726SOL     OW41016   1.316  10.402   7.500
79726SOL    HW141017   1.234  10.360   7.474
79726SOL    HW241018   1.342  10.453   7.423
79727SOL     OW41019   4.808   5.858   7.203
79727SOL    HW141020   4.861   5.788   7.242
79727SOL    HW241021   4.790   5.827   7.115
79728SOL     OW41022  13.469  10.136  11.289
79728SOL    HW141023  13.460  10.140  11.194
79728SOL    HW241024  13.544  10.079  11.304
79729SOL     OW41025  13.637   4.420   4.132
79729SOL    HW141026  13.708   4.434   4.069
79729SOL    HW241027  13.624   4.505   4.174
79730SOL     OW41028   9.380   4.364  12.794
79730SOL    HW141029   9.432   4.294  12.754
79730SOL    HW241030   9.402   4.360  12.887
79731SOL     OW41031  14.764   9.889   9.372
79731SOL    HW141032  14.712   9.900   9.292
79731SOL    HW241033  14.805   9.803   9.363
79732SOL     OW41034  12.162   6.193  13.083
79732SOL    HW141035  12.191   6.181  12.993
79732SOL    HW241036  12.108   6.116  13.101
79733SOL     OW41037  11.959  12.984   3.767
79733SOL    HW141038  11.924  12.941   3.689
79733SOL    HW241039  12.039  12.936   3.787
79734SOL     OW41040   5.538  10.617   0.403
79734SOL    HW141041   5.585  10.632   0.321
79734SOL    HW241042   5.454  10.579   0.376
79735SOL     OW41043  14.064   1.033   4.835
79735SOL    HW141044  14.031   1.113   4.878
79735SOL    HW241045  14.151   1.056   4.804
79736SOL     OW41046   8.309  11.776   5.239
79736SOL    HW141047   8.375  11.829   5.284
79736SOL    HW241048   8.354  11.693   5.220
79737SOL     OW41049  10.422   4.033   6.213
79737SOL    HW141050  10.480   3.958   6.228
79737SOL    HW241051  10.341   4.010   6.258
79738SOL     OW41052   4.933   0.175  11.933
79738SOL    HW141053   5.009   0.210  11.886
79738SOL    HW241054   4.861   0.179  11.869
79739SOL     OW41055   4.728   1.758   1.440
79739SOL    HW141056   4.642   1.715   1.441
79739SOL    HW241057   4.741   1.781   1.348
79740SOL     OW41058   0.378  10.115   1.572
79740SOL    HW141059   0.322  10.192   1.585
79740SOL    HW241060   0.441  10.119   1.645
79741SOL     OW41061   7.890  14.692   2.922
79741SOL    HW141062   7.860  14.746   2.849
79741SOL    HW241063   7.969  14.735   2.953
79742SOL     OW41064   6.156  10.846   2.927
79742SOL    HW141065   6.233  10.865   2.874
79742SOL    HW241066   6.187  10.788   2.996
79743SOL     OW41067  12.804   4.839   9.390
79743SOL    HW141068  12.818   4.775   9.320
79743SOL    HW241069  12.710   4.855   9.389
79744SOL     OW41070   0.588   3.663  13.290
79744SOL    HW141071   0.595   3.758  13.299
79744SOL    HW241072   0.576   3.649  13.196
79745SOL     OW41073   7.329  14.835   0.747
79745SOL    HW141074   7.293  14.747   0.761
79745SOL    HW241075   7.344  14.868   0.836
79746SOL     OW41076   9.833   1.606   1.790
79746SOL    HW141077   9.901   1.572   1.732
79746SOL    HW241078   9.876   1.677   1.838
79747SOL     OW41079   1.852   8.570  13.528
79747SOL    HW141080   1.836   8.530  13.442
79747SOL    HW241081   1.765   8.575  13.568
79748SOL     OW41082  10.151  14.079   6.388
79748SOL    HW141083  10.133  13.985   6.398
79748SOL    HW241084  10.134  14.116   6.474
79749SOL     OW41085   4.756  14.538   0.093
79749SOL    HW141086   4.759  14.510   0.184
79749SOL    HW241087   4.794  14.626   0.093
79750SOL     OW41088  10.706   1.509   6.241
79750SOL    HW141089  10.732   1.601   6.232
79750SOL    HW241090  10.704   1.494   6.335
79751SOL     OW41091  12.884  13.571   7.493
79751SOL    HW141092  12.811  13.516   7.525
79751SOL    HW241093  12.923  13.607   7.573
79752SOL     OW41094   2.047   9.950   8.755
79752SOL    HW141095   2.038   9.855   8.756
79752SOL    HW241096   2.069   9.972   8.665
79753SOL     OW41097   5.086  11.667   5.879
79753SOL    HW141098   5.027  11.743   5.877
79753SOL    HW241099   5.046  11.607   5.942
79754SOL     OW41100   6.474   3.839   1.957
79754SOL    HW141101   6.467   3.928   1.923
79754SOL    HW241102   6.425   3.786   1.894
79755SOL     OW41103   8.653   0.627   6.740
79755SOL    HW141104   8.567   0.597   6.770
79755SOL    HW241105   8.641   0.643   6.647
79756SOL     OW41106   9.166   7.045   1.249
79756SOL    HW141107   9.166   7.077   1.159
79756SOL    HW241108   9.074   7.026   1.268
79757SOL     OW41109  13.476  12.681  14.453
79757SOL    HW141110  13.430  12.676  14.369
79757SOL    HW241111  13.470  12.774  14.477
79758SOL     OW41112   7.390  10.353  12.327
79758SOL    HW141113   7.477  10.313  12.317
79758SOL    HW241114   7.376  10.398  12.244
79759SOL     OW41115   6.487   9.716   6.987
79759SOL    HW141116   6.465   9.648   7.050
79759SOL    HW241117   6.572   9.690   6.953
79760SOL     OW41118   3.705  11.597   4.213
79760SOL    HW141119   3.729  11.596   4.305
79760SOL    HW241120   3.630  11.656   4.208
79761SOL     OW41121   0.429  11.352  11.114
79761SOL    HW141122   0.473  11.267  11.113
79761SOL    HW241123   0.500  11.416  11.105
79762SOL     OW41124  12.448  11.490  13.090
79762SOL    HW141125  12.413  11.456  13.173
79762SOL    HW241126  12.439  11.585  13.096
79763SOL     OW41127   2.925   6.492  11.811
79763SOL    HW141128   2.942   6.508  11.718
79763SOL    HW241129   2.933   6.578  11.852
79764SOL     OW41130   0.990  12.574  11.298
79764SOL    HW141131   0.963  12.491  11.259
79764SOL    HW241132   0.915  12.602  11.351
79765SOL     OW41133   0.712   1.340  12.397
79765SOL    HW141134   0.734   1.252  12.429
79765SOL    HW241135   0.618   1.349  12.416
79766SOL     OW41136  13.545  13.522   4.954
79766SOL    HW141137  13.469  13.544   4.900
79766SOL    HW241138  13.568  13.605   4.997
79767SOL     OW41139   6.720   4.459  13.835
79767SOL    HW141140   6.648   4.523  13.837
79767SOL    HW241141   6.789   4.502  13.785
79768SOL     OW41142   5.765  10.084   6.646
79768SOL    HW141143   5.678  10.068   6.682
79768SOL    HW241144   5.823  10.024   6.695
79769SOL     OW41145   8.513   3.918  11.439
79769SOL    HW141146   8.493   3.997  11.489
79769SOL    HW241147   8.427   3.879  11.420
79770SOL     OW41148   0.560   3.567   8.370
79770SOL    HW141149   0.634   3.613   8.330
79770SOL    HW241150   0.495   3.636   8.385
79771SOL     OW41151   7.973   9.304   9.201
79771SOL    HW141152   7.939   9.266   9.120
79771SOL    HW241153   8.041   9.244   9.230
79772SOL     OW41154  11.405  10.103   0.721
79772SOL    HW141155  11.310  10.100   0.734
79772SOL    HW241156  11.432  10.186   0.760
79773SOL     OW41157   9.614   1.007  12.190
79773SOL    HW141158   9.553   1.034  12.258
79773SOL    HW241159   9.694   0.985  12.237
79774SOL     OW41160   8.282   1.259  10.543
79774SOL    HW141161   8.361   1.207  10.528
79774SOL    HW241162   8.263   1.247  10.635
79775SOL     OW41163  10.019  11.458   5.391
79775SOL    HW141164  10.000  11.448   5.484
79775SOL    HW241165  10.018  11.553   5.377
79776SOL     OW41166  14.725  12.011   4.923
79776SOL    HW141167  14.722  12.088   4.979
79776SOL    HW241168  14.651  12.021   4.863
79777SOL     OW41169   2.017   4.120   4.401
79777SOL    HW141170   1.984   4.095   4.315
79777SOL    HW241171   1.988   4.050   4.459
79778SOL     OW41172   7.386   7.320  13.874
79778SOL    HW141173   7.368   7.312  13.780
79778SOL    HW241174   7.462   7.264  13.889
79779SOL     OW41175   4.802   0.492   5.178
79779SOL    HW141176   4.795   0.484   5.273
79779SOL    HW241177   4.715   0.522   5.151
79780SOL     OW41178  11.141   0.671   7.669
79780SOL    HW141179  11.104   0.584   7.682
79780SOL    HW241180  11.067   0.724   7.638
79781SOL     OW41181  13.550   8.463   3.442
79781SOL    HW141182  13.516   8.374   3.431
79781SOL    HW241183  13.579   8.489   3.354
79782SOL     OW41184  13.081   9.568   0.578
79782SOL    HW141185  13.165   9.608   0.601
79782SOL    HW241186  13.066   9.503   0.646
79783SOL     OW41187   0.930  14.387   8.029
79783SOL    HW141188   0.897  14.436   7.954
79783SOL    HW241189   0.859  14.388   8.093
79784SOL     OW41190   2.324   5.423   6.646
79784SOL    HW141191   2.267   5.477   6.590
79784SOL    HW241192   2.401   5.476   6.660
79785SOL     OW41193   4.905   5.255   4.728
79785SOL    HW141194   4.987   5.220   4.694
79785SOL    HW241195   4.837   5.195   4.697
79786SOL     OW41196  12.732   9.131   1.236
79786SOL    HW141197  12.646   9.134   1.278
79786SOL    HW241198  12.727   9.198   1.168
79787SOL     OW41199   6.430   9.767  10.182
79787SOL    HW141200   6.501   9.744  10.241
79787SOL    HW241201   6.375   9.828  10.232
79788SOL     OW41202   8.248  11.956   5.532
79788SOL    HW141203   8.240  11.868   5.497
79788SOL    HW241204   8.214  12.013   5.462
79789SOL     OW41205  12.461   9.012   0.946
79789SOL    HW141206  12.447   9.087   0.889
79789SOL    HW241207  12.402   9.027   1.020
79790SOL     OW41208  10.807   7.403   3.957
79790SOL    HW141209  10.839   7.456   3.884
79790SOL    HW241210  10.720   7.437   3.975
79791SOL     OW41211  12.810   3.597   3.754
79791SOL    HW141212  12.728   3.574   3.798
79791SOL    HW241213  12.858   3.650   3.817
79792SOL     OW41214  11.942  13.050   6.403
79792SOL    HW141215  12.012  13.107   6.370
79792SOL    HW241216  11.973  13.022   6.490
79793SOL     OW41217  10.436  11.531   0.457
79793SOL    HW141218  10.438  11.447   0.503
79793SOL    HW241219  10.343  11.553   0.449
79794SOL     OW41220   7.439  13.972   1.625
79794SOL    HW141221   7.359  13.978   1.677
79794SOL    HW241222   7.486  14.054   1.644
79795SOL     OW41223  12.266   0.581  14.333
79795SOL    HW141224  12.318   0.501  14.323
79795SOL    HW241225  12.177   0.551  14.351
79796SOL     OW41226   4.211  10.488   5.604
79796SOL    HW141227   4.183  10.432   5.531
79796SOL    HW241228   4.197  10.578   5.572
79797SOL     OW41229   8.459  14.432   7.961
79797SOL    HW141230   8.397  14.483   8.014
79797SOL    HW241231   8.477  14.355   8.014
79798SOL     OW41232   0.263   6.593   9.389
79798SOL    HW141233   0.287   6.546   9.310
79798SOL    HW241234   0.261   6.526   9.457
79799SOL     OW41235  11.016   1.708   9.215
79799SOL    HW141236  11.082   1.726   9.148
79799SOL    HW241237  11.067   1.692   9.295
79800SOL     OW41238  14.622   4.762   4.569
79800SOL    HW141239  14.717   4.751   4.582
79800SOL    HW241240  14.586   4.675   4.580
79801SOL     OW41241   9.909   3.499  12.103
79801SOL    HW141242   9.916   3.404  12.106
79801SOL    HW241243   9.831   3.516  12.050
79802SOL     OW41244   4.796  13.541   0.074
79802SOL    HW141245   4.766  13.512   0.160
79802SOL    HW241246   4.797  13.461   0.021
79803SOL     OW41247   9.269   0.663   0.625
79803SOL    HW141248   9.341   0.687   0.566
79803SOL    HW241249   9.297   0.581   0.666
79804SOL     OW41250   0.359   4.918   4.441
79804SOL    HW141251   0.280   4.968   4.462
79804SOL    HW241252   0.339   4.829   4.468
79805SOL     OW41253   8.845  11.667   0.000
79805SOL    HW141254   8.858  11.754  14.841
79805SOL    HW241255   8.921  11.655   0.058
79806SOL     OW41256   5.672   2.425   5.668
79806SOL    HW141257   5.645   2.344   5.711
79806SOL    HW241258   5.605   2.489   5.693
79807SOL     OW41259   3.493   7.575  13.778
79807SOL    HW141260   3.488   7.501  13.838
79807SOL    HW241261   3.529   7.538  13.697
79808SOL     OW41262   5.567   7.984  12.276
79808SOL    HW141263   5.575   8.078  12.289
79808SOL    HW241264   5.655   7.950  12.291
79809SOL     OW41265   5.994   7.913   7.903
79809SOL    HW141266   6.048   7.891   7.979
79809SOL    HW241267   6.056   7.949   7.839
79810SOL     OW41268   1.521   0.798   3.677
79810SOL    HW141269   1.584   0.785   3.748
79810SOL    HW241270   1.554   0.744   3.605
79811SOL     OW41271   1.556   5.844  14.543
79811SOL    HW141272   1.588   5.754  14.536
79811SOL    HW241273   1.461   5.835  14.551
79812SOL     OW41274   9.518   3.189  11.735
79812SOL    HW141275   9.612   3.201  11.746
79812SOL    HW241276   9.505   3.182  11.641
79813SOL     OW41277   3.835   6.327  10.926
79813SOL    HW141278   3.929   6.317  10.911
79813SOL    HW241279   3.825   6.328  11.021
79814SOL     OW41280  11.081   8.973   8.054
79814SOL    HW141281  11.000   8.953   8.007
79814SOL    HW241282  11.112   8.888   8.084
79815SOL     OW41283  10.201   1.467   4.727
79815SOL    HW141284  10.206   1.435   4.817
79815SOL    HW241285  10.108   1.462   4.704
79816SOL     OW41286   0.199  11.506  11.057
79816SOL    HW141287   0.240  11.590  11.037
79816SOL    HW241288   0.270  11.451  11.090
79817SOL     OW41289   9.273   1.440   1.804
79817SOL    HW141290   9.215   1.446   1.729
79817SOL    HW241291   9.357   1.473   1.773
79818SOL     OW41292   7.587   3.882   6.814
79818SOL    HW141293   7.569   3.858   6.723
79818SOL    HW241294   7.638   3.963   6.807
79819SOL     OW41295   0.896  12.872   0.555
79819SOL    HW141296   0.871  12.822   0.633
79819SOL    HW241297   0.944  12.810   0.500
79820SOL     OW41298   7.034   6.847  12.958
79820SOL    HW141299   7.030   6.796  12.877
79820SOL    HW241300   6.954   6.825  13.005
79821SOL     OW41301   0.024   0.538   7.081
79821SOL    HW141302   0.044   0.609   7.141
79821SOL    HW241303   0.048   0.571   6.995
79822SOL     OW41304   0.706   7.593   9.851
79822SOL    HW141305   0.775   7.615   9.789
79822SOL    HW241306   0.624   7.608   9.802
79823SOL     OW41307   7.201   8.731   0.572
79823SOL    HW141308   7.125   8.787   0.557
79823SOL    HW241309   7.196   8.708   0.664
79824SOL     OW41310   6.706   3.700   7.670
79824SOL    HW141311   6.707   3.796   7.668
79824SOL    HW241312   6.793   3.676   7.702
79825SOL     OW41313   8.302   1.024   6.001
79825SOL    HW141314   8.310   1.000   6.093
79825SOL    HW241315   8.346   0.953   5.953
79826SOL     OW41316   6.596   3.630   8.742
79826SOL    HW141317   6.673   3.616   8.687
79826SOL    HW241318   6.523   3.638   8.680
79827SOL     OW41319   7.302   9.445   0.437
79827SOL    HW141320   7.290   9.505   0.364
79827SOL    HW241321   7.397   9.444   0.453
79828SOL     OW41322   1.338   4.498  11.905
79828SOL    HW141323   1.246   4.513  11.929
79828SOL    HW241324   1.388   4.527  11.982
79829SOL     OW41325   5.028   8.247   0.382
79829SOL    HW141326   5.035   8.184   0.453
79829SOL    HW241327   5.045   8.195   0.303
79830SOL     OW41328   2.255  12.525   4.695
79830SOL    HW141329   2.243  12.580   4.618
79830SOL    HW241330   2.272  12.437   4.661
79831SOL     OW41331   9.931   0.938  11.894
79831SOL    HW141332   9.922   1.033  11.903
79831SOL    HW241333  10.021   0.925  11.864
79832SOL     OW41334   4.461   6.552  14.668
79832SOL    HW141335   4.487   6.550  14.760
79832SOL    HW241336   4.370   6.580  14.669
79833SOL     OW41337   4.591   0.090   7.205
79833SOL    HW141338   4.685   0.101   7.190
79833SOL    HW241339   4.580  14.876   7.221
79834SOL     OW41340  12.154  11.620   9.584
79834SOL    HW141341  12.209  11.551   9.620
79834SOL    HW241342  12.095  11.575   9.523
79835SOL     OW41343   8.451  11.303   4.214
79835SOL    HW141344   8.488  11.251   4.285
79835SOL    HW241345   8.390  11.243   4.169
79836SOL     OW41346   5.921   4.813  13.610
79836SOL    HW141347   5.895   4.904  13.599
79836SOL    HW241348   5.881   4.767  13.536
79837SOL     OW41349   0.570  13.543  11.293
79837SOL    HW141350   0.596  13.564  11.383
79837SOL    HW241351   0.649  13.560  11.241
79838SOL     OW41352   2.991  10.697  14.146
79838SOL    HW141353   2.962  10.765  14.084
79838SOL    HW241354   2.923  10.696  14.213
79839SOL     OW41355   9.181   0.792   8.762
79839SOL    HW141356   9.163   0.818   8.852
79839SOL    HW241357   9.179   0.696   8.763
79840SOL     OW41358  14.187   9.527  13.422
79840SOL    HW141359  14.233   9.609  13.444
79840SOL    HW241360  14.169   9.534  13.328
79841SOL     OW41361  12.956  11.377   8.520
79841SOL    HW141362  13.000  11.369   8.605
79841SOL    HW241363  13.018  11.341   8.457
79842SOL     OW41364   5.732   3.427   6.047
79842SOL    HW141365   5.671   3.354   6.040
79842SOL    HW241366   5.734   3.447   6.141
79843SOL     OW41367  13.258   0.866   6.777
79843SOL    HW141368  13.314   0.801   6.819
79843SOL    HW241369  13.170   0.844   6.808
79844SOL     OW41370  13.066   1.508   5.900
79844SOL    HW141371  13.051   1.602   5.907
79844SOL    HW241372  13.093   1.494   5.810
79845SOL     OW41373   6.863   7.940  11.198
79845SOL    HW141374   6.950   7.904  11.186
79845SOL    HW241375   6.869   7.991  11.279
79846SOL     OW41376   5.307  13.962  13.287
79846SOL    HW141377   5.377  13.909  13.326
79846SOL    HW241378   5.280  13.912  13.210
79847SOL     OW41379   6.700  11.256   6.438
79847SOL    HW141380   6.606  11.240   6.438
79847SOL    HW241381   6.710  11.344   6.400
79848SOL     OW41382  12.811   2.604   0.273
79848SOL    HW141383  12.795   2.683   0.324
79848SOL    HW241384  12.900   2.615   0.240
79849SOL     OW41385  13.400   8.785   1.090
79849SOL    HW141386  13.374   8.877   1.090
79849SOL    HW241387  13.331   8.741   1.040
79850SOL     OW41388   3.927   4.235   6.729
79850SOL    HW141389   3.955   4.307   6.784
79850SOL    HW241390   3.934   4.269   6.639
79851SOL     OW41391   3.894   3.697   0.712
79851SOL    HW141392   3.861   3.608   0.725
79851SOL    HW241393   3.983   3.695   0.746
79852SOL     OW41394   5.886  10.598   2.059
79852SOL    HW141395   5.800  10.583   2.022
79852SOL    HW241396   5.878  10.571   2.150
79853SOL     OW41397   0.794  14.753   0.973
79853SOL    HW141398   0.881  14.714   0.973
79853SOL    HW241399   0.741  14.694   0.920
79854SOL     OW41400   7.917   2.820   1.492
79854SOL    HW141401   7.943   2.855   1.577
79854SOL    HW241402   7.834   2.863   1.472
79855SOL     OW41403  12.395  12.417   4.861
79855SOL    HW141404  12.369  12.338   4.909
79855SOL    HW241405  12.364  12.402   4.772
79856SOL     OW41406   1.174  13.969   3.967
79856SOL    HW141407   1.118  14.033   4.010
79856SOL    HW241408   1.207  14.014   3.890
79857SOL     OW41409   7.987   6.483   7.125
79857SOL    HW141410   8.010   6.429   7.049
79857SOL    HW241411   8.062   6.542   7.137
79858SOL     OW41412   2.937   6.841   4.056
79858SOL    HW141413   2.921   6.752   4.023
79858SOL    HW241414   2.983   6.885   3.984
79859SOL     OW41415   8.545   7.100   7.724
79859SOL    HW141416   8.594   7.087   7.806
79859SOL    HW241417   8.553   7.016   7.678
79860SOL     OW41418  12.059  10.584   3.743
79860SOL    HW141419  11.972  10.557   3.769
79860SOL    HW241420  12.102  10.612   3.824
79861SOL     OW41421   0.183   2.045   0.759
79861SOL    HW141422   0.138   1.974   0.713
79861SOL    HW241423   0.270   2.010   0.778
79862SOL     OW41424   2.374  12.472   7.239
79862SOL    HW141425   2.300  12.500   7.186
79862SOL    HW241426   2.415  12.402   7.189
79863SOL     OW41427   9.034   1.916   7.395
79863SOL    HW141428   9.074   1.985   7.448
79863SOL    HW241429   9.100   1.846   7.393
79864SOL     OW41430  10.307   4.774  12.613
79864SOL    HW141431  10.357   4.785  12.532
79864SOL    HW241432  10.286   4.863  12.641
79865SOL     OW41433   3.599   6.809  11.560
79865SOL    HW141434   3.518   6.759  11.555
79865SOL    HW241435   3.624   6.806  11.652
79866SOL     OW41436   1.673  12.191   3.447
79866SOL    HW141437   1.588  12.164   3.482
79866SOL    HW241438   1.714  12.110   3.417
79867SOL     OW41439  12.072   9.933   8.807
79867SOL    HW141440  12.109  10.001   8.863
79867SOL    HW241441  12.148   9.881   8.779
79868SOL     OW41442   3.193  14.199   8.240
79868SOL    HW141443   3.257  14.178   8.172
79868SOL    HW241444   3.158  14.114   8.267
79869SOL     OW41445  14.701  11.614  14.462
79869SOL    HW141446  14.731  11.545  14.402
79869SOL    HW241447  14.607  11.599  14.470
79870SOL     OW41448   1.898   0.286   4.147
79870SOL    HW141449   1.839   0.235   4.092
79870SOL    HW241450   1.840   0.340   4.201
79871SOL     OW41451  14.287   9.299  11.083
79871SOL    HW141452  14.237   9.335  11.009
79871SOL    HW241453  14.266   9.357  11.156
79872SOL     OW41454   4.954   0.304  13.976
79872SOL    HW141455   5.031   0.272  14.023
79872SOL    HW241456   4.884   0.304  14.041
79873SOL     OW41457   9.158   0.527   8.763
79873SOL    HW141458   9.145   0.515   8.858
79873SOL    HW241459   9.188   0.443   8.731
79874SOL     OW41460   5.614   9.301   6.890
79874SOL    HW141461   5.702   9.275   6.918
79874SOL    HW241462   5.562   9.221   6.896
79875SOL     OW41463   5.775  14.470   2.506
79875SOL    HW141464   5.811  14.391   2.546
79875SOL    HW241465   5.702  14.494   2.563
79876SOL     OW41466   8.586   2.959  10.371
79876SOL    HW141467   8.649   3.021  10.333
79876SOL    HW241468   8.575   2.990  10.461
79877SOL     OW41469  11.782  10.950   7.607
79877SOL    HW141470  11.725  11.027   7.604
79877SOL    HW241471  11.764  10.903   7.526
79878SOL     OW41472   1.956   8.660   0.015
79878SOL    HW141473   2.029   8.718  14.872
79878SOL    HW241474   1.972   8.637   0.107
79879SOL     OW41475  14.592   7.323   2.294
79879SOL    HW141476  14.571   7.403   2.245
79879SOL    HW241477  14.521   7.263   2.273
79880SOL     OW41478  10.536  11.561   1.615
79880SOL    HW141479  10.601  11.517   1.560
79880SOL    HW241480  10.542  11.517   1.700
79881SOL     OW41481  12.186   1.950   9.338
79881SOL    HW141482  12.274   1.915   9.323
79881SOL    HW241483  12.130   1.899   9.280
79882SOL     OW41484   9.013   8.990   9.111
79882SOL    HW141485   9.073   9.061   9.090
79882SOL    HW241486   8.956   8.983   9.034
79883SOL     OW41487   0.683  11.580  10.697
79883SOL    HW141488   0.672  11.492  10.662
79883SOL    HW241489   0.764  11.611  10.656
79884SOL     OW41490  10.368   2.714   7.296
79884SOL    HW141491  10.440   2.777   7.289
79884SOL    HW241492  10.326   2.717   7.211
79885SOL     OW41493   9.408   9.202   4.888
79885SOL    HW141494   9.435   9.241   4.971
79885SOL    HW241495   9.327   9.156   4.908
79886SOL     OW41496   0.429  13.322  13.146
79886SOL    HW141497   0.431  13.334  13.052
79886SOL    HW241498   0.344  13.356  13.173
79887SOL     OW41499   1.554  14.200   1.536
79887SOL    HW141500   1.640  14.198   1.495
79887SOL    HW241501   1.541  14.112   1.571
79888SOL     OW41502   8.754   1.961  13.658
79888SOL    HW141503   8.737   1.912  13.738
79888SOL    HW241504   8.745   1.896  13.588
79889SOL     OW41505  12.164  14.873   0.601
79889SOL    HW141506  12.188   0.075   0.556
79889SOL    HW241507  12.118   0.023   0.680
79890SOL     OW41508  11.666   5.245   3.569
79890SOL    HW141509  11.708   5.244   3.483
79890SOL    HW241510  11.710   5.176   3.618
79891SOL     OW41511  10.388  12.158   9.674
79891SOL    HW141512  10.479  12.169   9.645
79891SOL    HW241513  10.336  12.174   9.595
79892SOL     OW41514   2.550   1.047   6.161
79892SOL    HW141515   2.596   0.966   6.139
79892SOL    HW241516   2.589   1.074   6.245
79893SOL     OW41517   1.402  14.329   4.435
79893SOL    HW141518   1.433  14.241   4.414
79893SOL    HW241519   1.441  14.385   4.367
79894SOL     OW41520   2.232   7.735  12.376
79894SOL    HW141521   2.217   7.824  12.345
79894SOL    HW241522   2.237   7.743  12.471
79895SOL     OW41523  12.810  11.993   8.797
79895SOL    HW141524  12.835  12.016   8.887
79895SOL    HW241525  12.890  11.960   8.758
79896SOL     OW41526  10.653   8.539  10.272
79896SOL    HW141527  10.617   8.488  10.344
79896SOL    HW241528  10.715   8.480  10.229
79897SOL     OW41529  14.367  10.459   0.732
79897SOL    HW141530  14.391  10.534   0.676
79897SOL    HW241531  14.301  10.412   0.680
79898SOL     OW41532   6.398   1.847   8.406
79898SOL    HW141533   6.342   1.845   8.329
79898SOL    HW241534   6.354   1.791   8.470
79899SOL     OW41535   2.195  10.498   7.660
79899SOL    HW141536   2.190  10.449   7.743
79899SOL    HW241537   2.222  10.586   7.686
79900SOL     OW41538   9.785  12.192   5.931
79900SOL    HW141539   9.725  12.133   5.977
79900SOL    HW241540   9.779  12.166   5.840
79901SOL     OW41541  12.592  10.948   0.156
79901SOL    HW141542  12.630  10.972   0.241
79901SOL    HW241543  12.603  10.853   0.151
79902SOL     OW41544  12.489   6.291  12.317
79902SOL    HW141545  12.412   6.251  12.358
79902SOL    HW241546  12.554   6.295  12.388
79903SOL     OW41547   6.200  14.493  11.480
79903SOL    HW141548   6.149  14.545  11.542
79903SOL    HW241549   6.183  14.402  11.505
79904SOL     OW41550   9.876  10.585  11.019
79904SOL    HW141551   9.912  10.563  10.933
79904SOL    HW241552   9.784  10.603  11.003
79905SOL     OW41553   9.860  13.781   7.291
79905SOL    HW141554   9.909  13.724   7.350
79905SOL    HW241555   9.777  13.797   7.336
79906SOL     OW41556   3.964  13.825   0.228
79906SOL    HW141557   3.962  13.895   0.162
79906SOL    HW241558   4.046  13.838   0.274
79907SOL     OW41559   5.812   1.633  11.676
79907SOL    HW141560   5.734   1.594  11.636
79907SOL    HW241561   5.853   1.561  11.723
79908SOL     OW41562   8.553   4.916   4.345
79908SOL    HW141563   8.512   5.002   4.340
79908SOL    HW241564   8.597   4.914   4.430
79909SOL     OW41565   0.787   0.253   4.816
79909SOL    HW141566   0.829   0.182   4.767
79909SOL    HW241567   0.858   0.294   4.865
79910SOL     OW41568   8.880  13.725   5.797
79910SOL    HW141569   8.825  13.776   5.856
79910SOL    HW241570   8.872  13.768   5.713
79911SOL     OW41571  10.889   1.912   0.270
79911SOL    HW141572  10.819   1.937   0.210
79911SOL    HW241573  10.953   1.866   0.216
79912SOL     OW41574   7.565   2.397   7.191
79912SOL    HW141575   7.482   2.358   7.166
79912SOL    HW241576   7.623   2.322   7.205
79913SOL     OW41577   7.885  10.843   2.872
79913SOL    HW141578   7.847  10.891   2.798
79913SOL    HW241579   7.947  10.904   2.911
79914SOL     OW41580   8.350   5.863   0.047
79914SOL    HW141581   8.414   5.792   0.038
79914SOL    HW241582   8.288   5.849  14.855
79915SOL     OW41583  13.821  13.980   2.944
79915SOL    HW141584  13.804  14.045   3.012
79915SOL    HW241585  13.738  13.971   2.897
79916SOL     OW41586   0.969   5.981   8.400
79916SOL    HW141587   1.021   5.909   8.367
79916SOL    HW241588   1.032   6.039   8.442
79917SOL     OW41589   1.550  10.971  12.845
79917SOL    HW141590   1.577  10.940  12.758
79917SOL    HW241591   1.575  10.901  12.905
79918SOL     OW41592   7.388  14.108   0.590
79918SOL    HW141593   7.332  14.061   0.528
79918SOL    HW241594   7.462  14.049   0.603
79919SOL     OW41595  12.750  12.981  11.550
79919SOL    HW141596  12.713  13.051  11.496
79919SOL    HW241597  12.696  12.905  11.531
79920SOL     OW41598   9.654  10.064  11.895
79920SOL    HW141599   9.716  10.114  11.948
79920SOL    HW241600   9.693   9.977  11.889
79921SOL     OW41601  10.101   0.303   4.946
79921SOL    HW141602  10.060   0.223   4.977
79921SOL    HW241603  10.064   0.372   5.001
79922SOL     OW41604   1.328   1.641  13.191
79922SOL    HW141605   1.361   1.687  13.268
79922SOL    HW241606   1.402   1.640  13.130
79923SOL     OW41607  11.027   9.819   7.506
79923SOL    HW141608  11.115   9.855   7.504
79923SOL    HW241609  10.988   9.847   7.423
79924SOL     OW41610  12.635  14.134   5.813
79924SOL    HW141611  12.721  14.093   5.810
79924SOL    HW241612  12.653  14.228   5.822
79925SOL     OW41613   0.217   2.381  11.705
79925SOL    HW141614   0.281   2.453  11.704
79925SOL    HW241615   0.143   2.413  11.654
79926SOL     OW41616   7.688   5.692   7.669
79926SOL    HW141617   7.753   5.743   7.620
79926SOL    HW241618   7.712   5.706   7.761
79927SOL     OW41619  14.358  11.107  13.311
79927SOL    HW141620  14.405  11.093  13.229
79927SOL    HW241621  14.279  11.155  13.285
79928SOL     OW41622   3.778   5.845   7.184
79928SOL    HW141623   3.785   5.751   7.202
79928SOL    HW241624   3.866   5.872   7.159
79929SOL     OW41625   6.501   4.494   5.686
79929SOL    HW141626   6.489   4.515   5.593
79929SOL    HW241627   6.413   4.488   5.721
79930SOL     OW41628   3.998  14.614   5.368
79930SOL    HW141629   3.936  14.687   5.366
79930SOL    HW241630   3.942  14.536   5.368
79931SOL     OW41631   6.425   7.891  12.535
79931SOL    HW141632   6.337   7.923  12.512
79931SOL    HW241633   6.419   7.872  12.629
79932SOL     OW41634  10.643   0.393   2.982
79932SOL    HW141635  10.666   0.317   2.927
79932SOL    HW241636  10.547   0.396   2.979
79933SOL     OW41637   9.818   2.084  11.073
79933SOL    HW141638   9.834   2.118  10.984
79933SOL    HW241639   9.754   2.144  11.111
79934SOL     OW41640  13.021  11.811   8.790
79934SOL    HW141641  13.064  11.738   8.834
79934SOL    HW241642  13.054  11.808   8.700
79935SOL     OW41643   7.693   1.247   8.180
79935SOL    HW141644   7.599   1.231   8.174
79935SOL    HW241645   7.702   1.307   8.254
79936SOL     OW41646  13.706   0.230   6.669
79936SOL    HW141647  13.744   0.176   6.600
79936SOL    HW241648  13.694   0.315   6.628
79937SOL     OW41649  12.735   0.814   4.751
79937SOL    HW141650  12.761   0.847   4.837
79937SOL    HW241651  12.816   0.812   4.701
79938SOL     OW41652   4.024   3.966   8.217
79938SOL    HW141653   4.108   3.931   8.188
79938SOL    HW241654   4.042   4.007   8.301
79939SOL     OW41655   9.845   5.896   4.487
79939SOL    HW141656   9.806   5.848   4.561
79939SOL    HW241657   9.891   5.829   4.437
79940SOL     OW41658   0.021  13.498  14.220
79940SOL    HW141659   0.001  13.544  14.302
79940SOL    HW241660  14.834  13.530  14.159
79941SOL     OW41661   5.778  10.007  13.861
79941SOL    HW141662   5.701   9.967  13.821
79941SOL    HW241663   5.809   9.941  13.923
79942SOL     OW41664   0.742  10.134  11.451
79942SOL    HW141665   0.712  10.127  11.542
79942SOL    HW241666   0.737  10.227  11.431
79943SOL     OW41667   6.465   0.760  13.860
79943SOL    HW141668   6.480   0.720  13.946
79943SOL    HW241669   6.530   0.830  13.854
79944SOL     OW41670  10.995  10.726  10.527
79944SOL    HW141671  11.039  10.652  10.484
79944SOL    HW241672  11.041  10.803  10.495
79945SOL     OW41673   2.091   5.940  11.118
79945SOL    HW141674   2.007   5.894  11.123
79945SOL    HW241675   2.123   5.922  11.030
79946SOL     OW41676   7.009   3.675   1.694
79946SOL    HW141677   7.102   3.652   1.704
79946SOL    HW241678   6.978   3.617   1.625
79947SOL     OW41679   2.848   7.433  11.555
79947SOL    HW141680   2.797   7.364  11.512
79947SOL    HW241681   2.832   7.511  11.502
79948SOL     OW41682   8.655  14.306  11.864
79948SOL    HW141683   8.608  14.241  11.917
79948SOL    HW241684   8.746  14.274  11.863
79949SOL     OW41685  12.499   0.062   9.875
79949SOL    HW141686  12.429   0.065   9.941
79949SOL    HW241687  12.571   0.019   9.919
79950SOL     OW41688  11.797   9.445   9.177
79950SOL    HW141689  11.723   9.495   9.144
79950SOL    HW241690  11.770   9.418   9.265
79951SOL     OW41691   4.286   7.726   6.289
79951SOL    HW141692   4.286   7.729   6.194
79951SOL    HW241693   4.377   7.741   6.315
79952SOL     OW41694  14.099  14.410  12.528
79952SOL    HW141695  14.109  14.315  12.538
79952SOL    HW241696  14.094  14.443  12.618
79953SOL     OW41697  13.612   9.904   4.805
79953SOL    HW141698  13.570   9.845   4.743
79953SOL    HW241699  13.692   9.932   4.761
79954SOL     OW41700   0.966   5.848  10.131
79954SOL    HW141701   0.928   5.845  10.043
79954SOL    HW241702   1.016   5.929  10.132
79955SOL     OW41703   3.342  14.552   6.943
79955SOL    HW141704   3.331  14.464   6.907
79955SOL    HW241705   3.255  14.591   6.940
79956SOL     OW41706   8.814  14.734   7.287
79956SOL    HW141707   8.777  14.653   7.254
79956SOL    HW241708   8.765  14.803   7.243
79957SOL     OW41709  12.605   2.985   1.173
79957SOL    HW141710  12.583   3.078   1.176
79957SOL    HW241711  12.530   2.944   1.130
79958SOL     OW41712   0.353  11.235  11.714
79958SOL    HW141713   0.353  11.241  11.618
79958SOL    HW241714   0.426  11.175  11.734
79959SOL     OW41715   3.925   5.794  12.642
79959SOL    HW141716   3.918   5.859  12.712
79959SOL    HW241717   3.869   5.827  12.572
79960SOL     OW41718   7.703  11.849   0.622
79960SOL    HW141719   7.663  11.818   0.541
79960SOL    HW241720   7.797  11.838   0.609
79961SOL     OW41721  10.845   0.599  10.292
79961SOL    HW141722  10.751   0.595  10.310
79961SOL    HW241723  10.858   0.545  10.214
79962SOL     OW41724   7.835  12.662   9.714
79962SOL    HW141725   7.808  12.738   9.662
79962SOL    HW241726   7.782  12.590   9.681
79963SOL     OW41727  13.072  12.616   7.071
79963SOL    HW141728  13.075  12.555   6.997
79963SOL    HW241729  13.015  12.573   7.135
79964SOL     OW41730  14.111  14.565   6.815
79964SOL    HW141731  14.062  14.520   6.884
79964SOL    HW241732  14.151  14.641   6.860
79965SOL     OW41733  11.306  14.705  14.746
79965SOL    HW141734  11.262  14.621  14.736
79965SOL    HW241735  11.263  14.746  14.821
79966SOL     OW41736   4.237   2.096   6.381
79966SOL    HW141737   4.241   2.034   6.308
79966SOL    HW241738   4.193   2.049   6.451
79967SOL     OW41739  11.621   5.777   5.164
79967SOL    HW141740  11.617   5.870   5.184
79967SOL    HW241741  11.540   5.741   5.199
79968SOL     OW41742  12.267  12.992   8.886
79968SOL    HW141743  12.247  12.903   8.916
79968SOL    HW241744  12.296  12.980   8.795
79969SOL     OW41745   6.526  10.018  12.620
79969SOL    HW141746   6.617   9.997  12.637
79969SOL    HW241747   6.513   9.997  12.527
79970SOL     OW41748   4.515  10.599   7.144
79970SOL    HW141749   4.544  10.560   7.225
79970SOL    HW241750   4.593  10.601   7.088
79971SOL     OW41751  11.440  11.210   3.631
79971SOL    HW141752  11.476  11.122   3.622
79971SOL    HW241753  11.516  11.267   3.645
79972SOL     OW41754   8.535  11.408   8.494
79972SOL    HW141755   8.541  11.449   8.580
79972SOL    HW241756   8.441  11.398   8.479
79973SOL     OW41757  11.459   7.737  12.635
79973SOL    HW141758  11.497   7.680  12.568
79973SOL    HW241759  11.373   7.762  12.600
79974SOL     OW41760   8.626   0.686  14.667
79974SOL    HW141761   8.639   0.759  14.607
79974SOL    HW241762   8.656   0.609  14.618
79975SOL     OW41763   0.081   6.125  10.287
79975SOL    HW141764   0.143   6.064  10.249
79975SOL    HW241765   0.099   6.208  10.243
79976SOL     OW41766  10.515   7.937  11.294
79976SOL    HW141767  10.493   7.953  11.203
79976SOL    HW241768  10.604   7.969  11.305
79977SOL     OW41769  13.702   7.838   5.851
79977SOL    HW141770  13.716   7.916   5.798
79977SOL    HW241771  13.761   7.849   5.925
79978SOL     OW41772  13.781   4.656   5.361
79978SOL    HW141773  13.804   4.748   5.345
79978SOL    HW241774  13.833   4.608   5.297
79979SOL     OW41775  11.275   7.006  13.172
79979SOL    HW141776  11.363   7.018  13.209
79979SOL    HW241777  11.244   7.095  13.156
79980SOL     OW41778   0.317   7.527   0.300
79980SOL    HW141779   0.315   7.458   0.234
79980SOL    HW241780   0.228   7.530   0.334
79981SOL     OW41781  11.752   1.072   1.031
79981SOL    HW141782  11.673   1.054   0.979
79981SOL    HW241783  11.802   1.134   0.978
79982SOL     OW41784   8.838   9.919   1.564
79982SOL    HW141785   8.911   9.863   1.590
79982SOL    HW241786   8.775   9.911   1.635
79983SOL     OW41787   1.685   2.024  10.579
79983SOL    HW141788   1.771   2.029  10.621
79983SOL    HW241789   1.623   2.048  10.648
79984SOL     OW41790  10.419   8.058  11.039
79984SOL    HW141791  10.329   8.080  11.064
79984SOL    HW241792  10.450   8.134  10.990
79985SOL     OW41793   1.081  13.061   3.179
79985SOL    HW141794   1.113  13.033   3.265
79985SOL    HW241795   1.129  13.005   3.117
79986SOL     OW41796  10.330   1.128  14.674
79986SOL    HW141797  10.277   1.170  14.742
79986SOL    HW241798  10.265   1.092  14.613
79987SOL     OW41799   4.547  14.453   1.583
79987SOL    HW141800   4.628  14.433   1.537
79987SOL    HW241801   4.482  14.466   1.514
79988SOL     OW41802   5.062   2.701  10.365
79988SOL    HW141803   5.025   2.613  10.376
79988SOL    HW241804   5.103   2.698  10.279
79989SOL     OW41805  11.043  14.742  11.555
79989SOL    HW141806  11.001  14.725  11.471
79989SOL    HW241807  11.060  14.836  11.555
79990SOL     OW41808   0.692   9.460   1.548
79990SOL    HW141809   0.682   9.377   1.595
79990SOL    HW241810   0.732   9.519   1.612
79991SOL     OW41811   7.662   6.669   5.699
79991SOL    HW141812   7.755   6.667   5.676
79991SOL    HW241813   7.656   6.733   5.771
79992SOL     OW41814   4.096   9.367  13.246
79992SOL    HW141815   4.010   9.331  13.266
79992SOL    HW241816   4.079   9.454  13.212
79993SOL     OW41817   6.653  10.184  12.998
79993SOL    HW141818   6.670  10.100  13.040
79993SOL    HW241819   6.592  10.228  13.057
79994SOL     OW41820  14.171   7.734  13.762
79994SOL    HW141821  14.252   7.760  13.806
79994SOL    HW241822  14.165   7.640  13.777
79995SOL     OW41823   0.171   7.361   1.340
79995SOL    HW141824   0.113   7.420   1.293
79995SOL    HW241825   0.243   7.416   1.371
79996SOL     OW41826  13.358   7.184   2.168
79996SOL    HW141827  13.352   7.256   2.230
79996SOL    HW241828  13.271   7.178   2.129
79997SOL     OW41829   4.491  10.540   6.772
79997SOL    HW141830   4.528  10.559   6.686
79997SOL    HW241831   4.425  10.608   6.785
79998SOL     OW41832   6.652   3.978  13.887
79998SOL    HW141833   6.743   4.000  13.910
79998SOL    HW241834   6.610   3.960  13.971
79999SOL     OW41835   0.295  12.187  13.094
79999SOL    HW141836   0.372  12.222  13.138
79999SOL    HW241837   0.255  12.262  13.051
80000SOL     OW41838   3.578   7.302  14.172
80000SOL    HW141839   3.664   7.266  14.150
80000SOL    HW241840   3.531   7.305  14.089
80001SOL     OW41841   6.767  12.239   2.842
80001SOL    HW141842   6.713  12.318   2.845
80001SOL    HW241843   6.708  12.168   2.867
80002SOL     OW41844  13.209   7.822   0.530
80002SOL    HW141845  13.284   7.762   0.536
80002SOL    HW241846  13.141   7.772   0.485
80003SOL     OW41847   4.563   3.911   5.343
80003SOL    HW141848   4.516   3.978   5.393
80003SOL    HW241849   4.651   3.909   5.381
80004SOL     OW41850   4.538   2.231  11.617
80004SOL    HW141851   4.544   2.326  11.605
80004SOL    HW241852   4.482   2.219  11.693
80005SOL     OW41853   9.727   5.683  12.951
80005SOL    HW141854   9.806   5.700  12.900
80005SOL    HW241855   9.698   5.770  12.980
80006SOL     OW41856   0.337  10.561   7.608
80006SOL    HW141857   0.381  10.629   7.660
80006SOL    HW241858   0.263  10.606   7.568
80007SOL     OW41859   7.824   1.039   3.071
80007SOL    HW141860   7.734   1.049   3.102
80007SOL    HW241861   7.815   1.011   2.980
80008SOL     OW41862   2.554  13.578  11.805
80008SOL    HW141863   2.596  13.493  11.821
80008SOL    HW241864   2.627  13.640  11.800
80009SOL     OW41865  10.435   8.940   1.227
80009SOL    HW141866  10.449   8.882   1.152
80009SOL    HW241867  10.498   8.911   1.292
80010SOL     OW41868   0.390   2.170   8.933
80010SOL    HW141869   0.455   2.218   8.883
80010SOL    HW241870   0.365   2.229   9.004
80011SOL     OW41871  13.804   9.425   0.696
80011SOL    HW141872  13.796   9.520   0.693
80011SOL    HW241873  13.859   9.402   0.621
80012SOL     OW41874   1.810  10.289  10.232
80012SOL    HW141875   1.808  10.327  10.144
80012SOL    HW241876   1.858  10.206  10.221
80013SOL     OW41877  14.820   2.463   0.354
80013SOL    HW141878  14.731   2.463   0.319
80013SOL    HW241879  14.809   2.484   0.447
80014SOL     OW41880  12.432   6.160  10.549
80014SOL    HW141881  12.516   6.190  10.583
80014SOL    HW241882  12.427   6.068  10.573
80015SOL     OW41883   8.679  10.141   4.948
80015SOL    HW141884   8.626  10.065   4.923
80015SOL    HW241885   8.619  10.197   4.996
80016SOL     OW41886  11.108   1.900   2.691
80016SOL    HW141887  11.144   1.947   2.616
80016SOL    HW241888  11.171   1.830   2.708
80017SOL     OW41889  10.269  11.500  10.426
80017SOL    HW141890  10.298  11.535  10.510
80017SOL    HW241891  10.185  11.543  10.409
80018SOL     OW41892  13.166   3.160   8.226
80018SOL    HW141893  13.124   3.161   8.312
80018SOL    HW241894  13.132   3.238   8.182
80019SOL     OW41895   2.369   1.031  10.927
80019SOL    HW141896   2.384   0.938  10.941
80019SOL    HW241897   2.305   1.056  10.994
80020SOL     OW41898   9.533   8.176   9.462
80020SOL    HW141899   9.521   8.086   9.431
80020SOL    HW241900   9.448   8.217   9.447
80021SOL     OW41901  10.034  10.863   5.024
80021SOL    HW141902   9.986  10.892   5.102
80021SOL    HW241903  10.047  10.769   5.038
80022SOL     OW41904   1.156  14.669   0.296
80022SOL    HW141905   1.166  14.582   0.256
80022SOL    HW241906   1.066  14.668   0.330
80023SOL     OW41907  13.346  13.509   5.223
80023SOL    HW141908  13.353  13.551   5.137
80023SOL    HW241909  13.270  13.551   5.264
80024SOL     OW41910   5.672   5.433   3.774
80024SOL    HW141911   5.610   5.435   3.847
80024SOL    HW241912   5.750   5.476   3.808
80025SOL     OW41913  12.167  10.456   8.946
80025SOL    HW141914  12.223  10.517   8.993
80025SOL    HW241915  12.083  10.501   8.939
80026SOL     OW41916  14.559  13.799   5.698
80026SOL    HW141917  14.632  13.743   5.723
80026SOL    HW241918  14.495  13.789   5.769
80027SOL     OW41919   7.049   4.043  10.227
80027SOL    HW141920   7.043   4.017  10.319
80027SOL    HW241921   6.985   4.114  10.219
80028SOL     OW41922   1.411   3.891   3.178
80028SOL    HW141923   1.405   3.852   3.090
80028SOL    HW241924   1.333   3.946   3.185
80029SOL     OW41925   0.762  14.534  14.487
80029SOL    HW141926   0.671  14.540  14.518
80029SOL    HW241927   0.754  14.496  14.399
80030SOL     OW41928   9.066   6.291   1.472
80030SOL    HW141929   9.065   6.262   1.381
80030SOL    HW241930   8.986   6.341   1.483
80031SOL     OW41931  12.973   0.671   1.910
80031SOL    HW141932  12.908   0.737   1.886
80031SOL    HW241933  13.057   0.710   1.886
80032SOL     OW41934   3.052   6.901   4.296
80032SOL    HW141935   3.040   6.814   4.335
80032SOL    HW241936   3.066   6.884   4.203
80033SOL     OW41937   3.380   1.723   7.518
80033SOL    HW141938   3.327   1.742   7.441
80033SOL    HW241939   3.397   1.808   7.557
80034SOL     OW41940  14.381   8.027   6.157
80034SOL    HW141941  14.402   8.050   6.067
80034SOL    HW241942  14.292   8.059   6.171
80035SOL     OW41943  12.877  10.595  13.070
80035SOL    HW141944  12.816  10.570  13.139
80035SOL    HW241945  12.890  10.516  13.019
80036SOL     OW41946   3.024   9.206   0.135
80036SOL    HW141947   3.097   9.242   0.085
80036SOL    HW241948   3.065   9.170   0.214
80037SOL     OW41949  12.165  13.801   3.098
80037SOL    HW141950  12.157  13.745   3.175
80037SOL    HW241951  12.244  13.852   3.113
80038SOL     OW41952   3.347  10.345  14.182
80038SOL    HW141953   3.378  10.256  14.164
80038SOL    HW241954   3.408  10.379  14.248
80039SOL     OW41955   9.453   8.857   2.726
80039SOL    HW141956   9.494   8.774   2.747
80039SOL    HW241957   9.456   8.863   2.630
80040SOL     OW41958  12.130   6.593   0.317
80040SOL    HW141959  12.053   6.595   0.260
80040SOL    HW241960  12.195   6.542   0.268
80041SOL     OW41961   4.870   0.574   2.121
80041SOL    HW141962   4.890   0.633   2.194
80041SOL    HW241963   4.942   0.587   2.059
80042SOL     OW41964  12.220   9.116   0.111
80042SOL    HW141965  12.312   9.100   0.089
80042SOL    HW241966  12.171   9.067   0.045
80043SOL     OW41967   2.617  12.059   5.138
80043SOL    HW141968   2.586  11.982   5.186
80043SOL    HW241969   2.619  12.030   5.046
80044SOL     OW41970  10.148   3.542   0.739
80044SOL    HW141971  10.081   3.525   0.805
80044SOL    HW241972  10.106   3.517   0.656
80045SOL     OW41973   1.016   6.444  13.948
80045SOL    HW141974   0.973   6.364  13.916
80045SOL    HW241975   0.946   6.509  13.950
80046SOL     OW41976   9.052   3.670   6.144
80046SOL    HW141977   9.123   3.621   6.186
80046SOL    HW241978   9.008   3.715   6.216
80047SOL     OW41979   1.502  10.222   2.490
80047SOL    HW141980   1.411  10.220   2.519
80047SOL    HW241981   1.553  10.212   2.571
80048SOL     OW41982   0.074   7.077   9.723
80048SOL    HW141983   0.007   7.092   9.790
80048SOL    HW241984   0.045   7.128   9.648
80049SOL     OW41985   7.040  11.753   9.807
80049SOL    HW141986   6.947  11.733   9.796
80049SOL    HW241987   7.045  11.848   9.797
80050SOL     OW41988  11.471   2.653   4.794
80050SOL    HW141989  11.377   2.662   4.814
80050SOL    HW241990  11.512   2.643   4.880
80051SOL     OW41991   4.030  11.505   7.654
80051SOL    HW141992   4.019  11.560   7.576
80051SOL    HW241993   4.071  11.425   7.621
80052SOL     OW41994   0.749  10.480   0.457
80052SOL    HW141995   0.724  10.546   0.393
80052SOL    HW241996   0.746  10.526   0.541
80053SOL     OW41997  13.048   2.509   3.828
80053SOL    HW141998  12.970   2.562   3.811
80053SOL    HW241999  13.054   2.450   3.753
80054SOL     OW42000  11.832   2.348   1.337
80054SOL    HW142001  11.797   2.409   1.402
80054SOL    HW242002  11.841   2.400   1.258
80055SOL     OW42003  10.284   4.289  10.737
80055SOL    HW142004  10.371   4.319  10.707
80055SOL    HW242005  10.244   4.366  10.776
80056SOL     OW42006   7.309   0.476   7.929
80056SOL    HW142007   7.349   0.397   7.966
80056SOL    HW242008   7.349   0.548   7.978
80057SOL     OW42009   9.598   2.457  14.217
80057SOL    HW142010   9.637   2.397  14.281
80057SOL    HW242011   9.647   2.538  14.228
80058SOL     OW42012  12.434   5.770  11.515
80058SOL    HW142013  12.466   5.736  11.431
80058SOL    HW242014  12.509   5.817  11.551
80059SOL     OW42015  10.398  11.317  12.374
80059SOL    HW142016  10.420  11.348  12.462
80059SOL    HW242017  10.458  11.244  12.359
80060SOL     OW42018   7.898   5.165  10.261
80060SOL    HW142019   7.978   5.203  10.226
80060SOL    HW242020   7.927   5.091  10.314
80061SOL     OW42021   1.534  11.585   7.070
80061SOL    HW142022   1.607  11.553   7.017
80061SOL    HW242023   1.563  11.670   7.102
80062SOL     OW42024  11.145   2.520   0.138
80062SOL    HW142025  11.211   2.530   0.070
80062SOL    HW242026  11.159   2.593   0.197
80063SOL     OW42027  12.112   4.990  14.163
80063SOL    HW142028  12.092   5.083  14.173
80063SOL    HW242029  12.096   4.953  14.250
80064SOL     OW42030   5.846   1.607  10.025
80064SOL    HW142031   5.852   1.701  10.010
80064SOL    HW242032   5.925   1.585  10.075
80065SOL     OW42033   2.267  14.506   8.834
80065SOL    HW142034   2.237  14.419   8.808
80065SOL    HW242035   2.193  14.544   8.882
80066SOL     OW42036   1.639   6.391   8.748
80066SOL    HW142037   1.706   6.372   8.815
80066SOL    HW242038   1.558   6.355   8.784
80067SOL     OW42039   1.008   4.585   4.172
80067SOL    HW142040   1.035   4.559   4.260
80067SOL    HW242041   1.091   4.600   4.125
80068SOL     OW42042   6.144  14.118   2.980
80068SOL    HW142043   6.227  14.097   3.023
80068SOL    HW242044   6.163  14.197   2.929
80069SOL     OW42045  11.636   6.893  11.604
80069SOL    HW142046  11.636   6.802  11.576
80069SOL    HW242047  11.627   6.890  11.699
80070SOL     OW42048   5.744   6.433   0.028
80070SOL    HW142049   5.667   6.384  14.878
80070SOL    HW242050   5.708   6.514   0.065
80071SOL     OW42051   5.944  12.738  11.993
80071SOL    HW142052   5.973  12.829  11.988
80071SOL    HW242053   5.849  12.742  11.984
80072SOL     OW42054  12.078   6.948  13.897
80072SOL    HW142055  12.128   6.922  13.975
80072SOL    HW242056  12.130   6.916  13.824
80073SOL     OW42057  10.169  12.240  11.454
80073SOL    HW142058  10.120  12.181  11.398
80073SOL    HW242059  10.103  12.291  11.501
80074SOL     OW42060  12.976   3.756  12.025
80074SOL    HW142061  13.032   3.822  12.066
80074SOL    HW242062  12.900   3.805  11.994
80075SOL     OW42063  12.601   9.662  11.343
80075SOL    HW142064  12.543   9.696  11.411
80075SOL    HW242065  12.547   9.661  11.264
80076SOL     OW42066   3.757   2.204  12.180
80076SOL    HW142067   3.691   2.240  12.120
80076SOL    HW242068   3.713   2.131  12.222
80077SOL     OW42069   0.128  10.151   3.682
80077SOL    HW142070   0.213  10.143   3.638
80077SOL    HW242071   0.106  10.061   3.709
80078SOL     OW42072  12.689   7.470  10.687
80078SOL    HW142073  12.706   7.403  10.620
80078SOL    HW242074  12.668   7.549  10.637
80079SOL     OW42075  13.140  11.447   3.535
80079SOL    HW142076  13.232  11.419   3.535
80079SOL    HW242077  13.131  11.500   3.456
80080SOL     OW42078  13.934   4.854   0.867
80080SOL    HW142079  13.854   4.846   0.815
80080SOL    HW242080  13.905   4.840   0.957
80081SOL     OW42081   8.238   4.881   8.749
80081SOL    HW142082   8.311   4.942   8.759
80081SOL    HW242083   8.243   4.854   8.657
80082SOL     OW42084   9.698   9.761   4.585
80082SOL    HW142085   9.608   9.768   4.554
80082SOL    HW242086   9.742   9.838   4.548
80083SOL     OW42087   4.710  14.701   4.849
80083SOL    HW142088   4.641  14.635   4.841
80083SOL    HW242089   4.774  14.676   4.781
80084SOL     OW42090   2.596  12.944   3.708
80084SOL    HW142091   2.590  12.854   3.677
80084SOL    HW242092   2.593  12.937   3.803
80085SOL     OW42093  12.032   6.042   5.599
80085SOL    HW142094  12.060   5.993   5.676
80085SOL    HW242095  11.959   5.991   5.564
80086SOL     OW42096   0.692   6.614  12.501
80086SOL    HW142097   0.776   6.580  12.470
80086SOL    HW242098   0.710   6.705  12.524
80087SOL     OW42099   1.406  10.660   8.337
80087SOL    HW142100   1.378  10.751   8.346
80087SOL    HW242101   1.326  10.613   8.316
80088SOL     OW42102   7.050  12.221   8.472
80088SOL    HW142103   7.079  12.148   8.527
80088SOL    HW242104   7.088  12.204   8.386
80089SOL     OW42105   0.171   1.017   2.213
80089SOL    HW142106   0.130   1.094   2.173
80089SOL    HW242107   0.141   1.018   2.304
80090SOL     OW42108   6.926  13.933  10.265
80090SOL    HW142109   6.905  13.839  10.263
80090SOL    HW242110   6.868  13.968  10.333
80091SOL     OW42111  10.111   1.183   4.714
80091SOL    HW142112  10.204   1.188   4.736
80091SOL    HW242113  10.074   1.127   4.783
80092SOL     OW42114  13.216   8.167   4.500
80092SOL    HW142115  13.198   8.252   4.460
80092SOL    HW242116  13.292   8.134   4.453
80093SOL     OW42117   7.011   1.608   6.316
80093SOL    HW142118   6.970   1.618   6.230
80093SOL    HW242119   7.088   1.553   6.301
80094SOL     OW42120   7.539   0.324   4.366
80094SOL    HW142121   7.514   0.351   4.455
80094SOL    HW242122   7.603   0.391   4.339
80095SOL     OW42123   7.106   6.697  14.100
80095SOL    HW142124   7.185   6.701  14.045
80095SOL    HW242125   7.125   6.627  14.162
80096SOL     OW42126   7.681   8.669   1.818
80096SOL    HW142127   7.774   8.679   1.797
80096SOL    HW242128   7.642   8.752   1.790
80097SOL     OW42129  10.410  10.703   2.225
80097SOL    HW142130  10.342  10.636   2.235
80097SOL    HW242131  10.418  10.716   2.131
80098SOL     OW42132   9.774   9.300   9.914
80098SOL    HW142133   9.809   9.215   9.941
80098SOL    HW242134   9.756   9.346   9.996
80099SOL     OW42135   5.375  12.690   8.246
80099SOL    HW142136   5.426  12.768   8.224
80099SOL    HW242137   5.286  12.722   8.257
80100SOL     OW42138   1.264   2.155   6.748
80100SOL    HW142139   1.246   2.201   6.667
80100SOL    HW242140   1.324   2.212   6.796
80101SOL     OW42141   9.779   2.132   0.707
80101SOL    HW142142   9.836   2.058   0.687
80101SOL    HW242143   9.757   2.170   0.622
80102SOL     OW42144   7.492  11.240   1.479
80102SOL    HW142145   7.472  11.162   1.427
80102SOL    HW242146   7.543  11.295   1.420
80103SOL     OW42147   3.164   8.112   7.343
80103SOL    HW142148   3.076   8.112   7.380
80103SOL    HW242149   3.163   8.181   7.277
80104SOL     OW42150   9.920  10.021   4.094
80104SOL    HW142151   9.912  10.015   3.998
80104SOL    HW242152   9.865   9.950   4.127
80105SOL     OW42153  10.387   7.883   7.099
80105SOL    HW142154  10.444   7.807   7.098
80105SOL    HW242155  10.347   7.885   7.012
80106SOL     OW42156  10.444   6.436   9.284
80106SOL    HW142157  10.520   6.406   9.235
80106SOL    HW242158  10.438   6.530   9.264
80107SOL     OW42159   6.108   5.190   4.229
80107SOL    HW142160   6.151   5.124   4.174
80107SOL    HW242161   6.172   5.211   4.296
80108SOL     OW42162  12.368   4.136  11.468
80108SOL    HW142163  12.284   4.180  11.483
80108SOL    HW242164  12.410   4.134  11.553
80109SOL     OW42165   7.692   2.259  14.743
80109SOL    HW142166   7.770   2.288  14.694
80109SOL    HW242167   7.705   2.292  14.831
80110SOL     OW42168  14.257   5.740   8.386
80110SOL    HW142169  14.189   5.741   8.454
80110SOL    HW242170  14.250   5.826   8.345
80111SOL     OW42171   9.623   6.608   1.819
80111SOL    HW142172   9.620   6.642   1.729
80111SOL    HW242173   9.636   6.514   1.808
80112SOL     OW42174   6.898   4.729   5.352
80112SOL    HW142175   6.974   4.686   5.391
80112SOL    HW242176   6.823   4.691   5.397
80113SOL     OW42177  13.868   3.371   9.517
80113SOL    HW142178  13.797   3.434   9.499
80113SOL    HW242179  13.823   3.288   9.529
80114SOL     OW42180  14.550  13.177  12.634
80114SOL    HW142181  14.487  13.226  12.688
80114SOL    HW242182  14.498  13.144  12.561
80115SOL     OW42183  13.398  14.582   6.598
80115SOL    HW142184  13.407  14.487   6.586
80115SOL    HW242185  13.333  14.608   6.533
80116SOL     OW42186   8.587   2.109   1.920
80116SOL    HW142187   8.506   2.081   1.962
80116SOL    HW242188   8.581   2.204   1.916
80117SOL     OW42189  11.965  14.626   3.177
80117SOL    HW142190  12.049  14.655   3.142
80117SOL    HW242191  11.983  14.603   3.268
80118SOL     OW42192   9.268   5.347   7.986
80118SOL    HW142193   9.250   5.382   7.899
80118SOL    HW242194   9.269   5.252   7.973
80119SOL     OW42195   4.196  11.657   5.456
80119SOL    HW142196   4.263  11.591   5.434
80119SOL    HW242197   4.209  11.672   5.550
80120SOL     OW42198   0.515   1.944   1.596
80120SOL    HW142199   0.508   1.873   1.531
80120SOL    HW242200   0.562   2.014   1.551
80121SOL     OW42201  12.529  10.758   4.075
80121SOL    HW142202  12.624  10.745   4.076
80121SOL    HW242203  12.498  10.701   4.005
80122SOL     OW42204   5.971  11.142   6.257
80122SOL    HW142205   5.917  11.064   6.272
80122SOL    HW242206   5.997  11.169   6.345
80123SOL     OW42207   4.857  12.093   3.497
80123SOL    HW142208   4.781  12.070   3.550
80123SOL    HW242209   4.839  12.055   3.411
80124SOL     OW42210  11.817   6.684  11.249
80124SOL    HW142211  11.893   6.719  11.296
80124SOL    HW242212  11.853   6.611  11.198
80125SOL     OW42213  12.619   5.273   3.594
80125SOL    HW142214  12.554   5.332   3.632
80125SOL    HW242215  12.702   5.299   3.635
80126SOL     OW42216   3.998  10.341   5.801
80126SOL    HW142217   4.053  10.400   5.751
80126SOL    HW242218   3.980  10.388   5.883
80127SOL     OW42219   7.766   7.080  11.907
80127SOL    HW142220   7.696   7.079  11.973
80127SOL    HW242221   7.721   7.065  11.824
80128SOL     OW42222   9.251   8.097   4.988
80128SOL    HW142223   9.273   8.028   5.050
80128SOL    HW242224   9.175   8.063   4.940
80129SOL     OW42225   0.125   0.304   3.357
80129SOL    HW142226   0.197   0.253   3.394
80129SOL    HW242227   0.048   0.275   3.404
80130SOL     OW42228  10.076   2.951   8.400
80130SOL    HW142229  10.051   2.862   8.375
80130SOL    HW242230  10.063   3.003   8.321
80131SOL     OW42231   4.717  11.881   5.575
80131SOL    HW142232   4.811  11.895   5.572
80131SOL    HW242233   4.700  11.812   5.511
80132SOL     OW42234   0.677  11.393   5.487
80132SOL    HW142235   0.657  11.344   5.567
80132SOL    HW242236   0.741  11.339   5.442
80133SOL     OW42237   3.250  13.648   4.199
80133SOL    HW142238   3.315  13.617   4.135
80133SOL    HW242239   3.167  13.613   4.167
80134SOL     OW42240  12.911  10.113  14.234
80134SOL    HW142241  12.873  10.158  14.160
80134SOL    HW242242  12.932  10.183  14.297
80135SOL     OW42243  13.488   9.493  12.349
80135SOL    HW142244  13.400   9.524  12.370
80135SOL    HW242245  13.479   9.451  12.264
80136SOL     OW42246   5.483   9.574   9.587
80136SOL    HW142247   5.556   9.564   9.527
80136SOL    HW242248   5.436   9.491   9.582
80137SOL     OW42249  13.960   6.560  12.765
80137SOL    HW142250  13.943   6.594  12.853
80137SOL    HW242251  14.053   6.576  12.750
80138SOL     OW42252  14.752   3.785   2.876
80138SOL    HW142253  14.814   3.837   2.825
80138SOL    HW242254  14.754   3.824   2.963
80139SOL     OW42255  11.093  10.426   5.499
80139SOL    HW142256  11.025  10.491   5.481
80139SOL    HW242257  11.046  10.354   5.541
80140SOL     OW42258   2.534  14.504  11.676
80140SOL    HW142259   2.441  14.521  11.692
80140SOL    HW242260   2.535  14.445  11.601
80141SOL     OW42261  10.040   2.274   1.109
80141SOL    HW142262  10.106   2.339   1.135
80141SOL    HW242263  10.022   2.293   1.017
80142SOL     OW42264  13.885  13.797   5.078
80142SOL    HW142265  13.973  13.772   5.104
80142SOL    HW242266  13.888  13.804   4.983
80143SOL     OW42267  12.074   2.608  14.754
80143SOL    HW142268  12.009   2.655  14.807
80143SOL    HW242269  12.158   2.638  14.788
80144SOL     OW42270   9.648   8.220  11.851
80144SOL    HW142271   9.604   8.173  11.780
80144SOL    HW242272   9.590   8.293  11.871
80145SOL     OW42273   4.638   2.049   1.872
80145SOL    HW142274   4.601   2.042   1.784
80145SOL    HW242275   4.730   2.072   1.857
80146SOL     OW42276   9.688   0.376   9.294
80146SOL    HW142277   9.680   0.449   9.355
80146SOL    HW242278   9.780   0.376   9.268
80147SOL     OW42279   0.585  11.130  13.649
80147SOL    HW142280   0.514  11.075  13.681
80147SOL    HW242281   0.609  11.093  13.564
80148SOL     OW42282   2.934   7.690   1.964
80148SOL    HW142283   3.002   7.631   1.931
80148SOL    HW242284   2.972   7.778   1.954
80149SOL     OW42285   2.562   4.386   5.670
80149SOL    HW142286   2.600   4.377   5.582
80149SOL    HW242287   2.636   4.376   5.729
80150SOL     OW42288   6.824   1.493  10.882
80150SOL    HW142289   6.873   1.474  10.962
80150SOL    HW242290   6.838   1.586  10.867
80151SOL     OW42291  11.632  14.503  13.995
80151SOL    HW142292  11.659  14.513  14.086
80151SOL    HW242293  11.710  14.471  13.949
80152SOL     OW42294   0.814  13.118  14.361
80152SOL    HW142295   0.855  13.032  14.358
80152SOL    HW242296   0.779  13.130  14.272
80153SOL     OW42297  13.894   0.007   4.549
80153SOL    HW142298  13.845   0.073   4.598
80153SOL    HW242299  13.834  14.858   4.480
80154SOL     OW42300   1.214  11.369   5.728
80154SOL    HW142301   1.232  11.419   5.807
80154SOL    HW242302   1.188  11.282   5.760
80155SOL     OW42303   1.744   6.199  11.668
80155SOL    HW142304   1.736   6.117  11.619
80155SOL    HW242305   1.738   6.268  11.602
80156SOL     OW42306   2.235   4.605  14.094
80156SOL    HW142307   2.173   4.536  14.071
80156SOL    HW242308   2.321   4.569  14.071
80157SOL     OW42309   2.800   3.816   3.018
80157SOL    HW142310   2.812   3.894   2.965
80157SOL    HW242311   2.705   3.801   3.018
80158SOL     OW42312   4.057  11.657   3.414
80158SOL    HW142313   3.969  11.680   3.384
80158SOL    HW242314   4.100  11.622   3.335
80159SOL     OW42315   5.795   6.059  10.406
80159SOL    HW142316   5.736   5.984  10.409
80159SOL    HW242317   5.850   6.044  10.329
80160SOL     OW42318  13.730  14.669   8.081
80160SOL    HW142319  13.654  14.621   8.113
80160SOL    HW242320  13.747  14.734   8.150
80161SOL     OW42321   2.491   3.118   5.800
80161SOL    HW142322   2.539   3.053   5.853
80161SOL    HW242323   2.507   3.201   5.844
80162SOL     OW42324   0.369   1.039   8.063
80162SOL    HW142325   0.441   1.100   8.083
80162SOL    HW242326   0.381   0.967   8.124
80163SOL     OW42327   2.983   7.338   7.828
80163SOL    HW142328   2.910   7.278   7.828
80163SOL    HW242329   3.045   7.301   7.765
80164SOL     OW42330   9.745   9.969   9.243
80164SOL    HW142331   9.741   9.936   9.154
80164SOL    HW242332   9.660   9.947   9.281
80165SOL     OW42333   7.480   3.389  10.385
80165SOL    HW142334   7.495   3.388  10.480
80165SOL    HW242335   7.386   3.405  10.376
80166SOL     OW42336   6.146   5.341   8.895
80166SOL    HW142337   6.201   5.355   8.818
80166SOL    HW242338   6.127   5.247   8.894
80167SOL     OW42339   8.068   4.019   7.264
80167SOL    HW142340   8.122   4.096   7.280
80167SOL    HW242341   8.087   3.960   7.337
80168SOL     OW42342   3.111   5.442  14.813
80168SOL    HW142343   3.019   5.436  14.839
80168SOL    HW242344   3.129   5.536  14.811
80169SOL     OW42345   8.820   0.240   1.536
80169SOL    HW142346   8.856   0.324   1.506
80169SOL    HW242347   8.738   0.231   1.488
80170SOL     OW42348   2.436  12.085  12.391
80170SOL    HW142349   2.415  12.099  12.483
80170SOL    HW242350   2.406  12.164  12.346
80171SOL     OW42351   4.092  14.410   4.933
80171SOL    HW142352   4.020  14.467   4.960
80171SOL    HW242353   4.167  14.439   4.985
80172SOL     OW42354   8.503   3.165   9.228
80172SOL    HW142355   8.469   3.182   9.140
80172SOL    HW242356   8.518   3.071   9.230
80173SOL     OW42357   2.431  13.946  10.350
80173SOL    HW142358   2.446  13.907  10.265
80173SOL    HW242359   2.461  14.037  10.341
80174SOL     OW42360   0.474   5.380  10.434
80174SOL    HW142361   0.414   5.400  10.362
80174SOL    HW242362   0.521   5.302  10.405
80175SOL     OW42363   7.169   0.091  14.822
80175SOL    HW142364   7.203   0.014  14.866
80175SOL    HW242365   7.237   0.114  14.759
80176SOL     OW42366   6.256   5.108   3.573
80176SOL    HW142367   6.278   5.080   3.484
80176SOL    HW242368   6.309   5.052   3.630
80177SOL     OW42369   4.551   3.574  12.220
80177SOL    HW142370   4.486   3.641  12.237
80177SOL    HW242371   4.502   3.492  12.219
80178SOL     OW42372   2.010   0.792  12.042
80178SOL    HW142373   1.993   0.819  12.133
80178SOL    HW242374   1.999   0.696  12.044
80179SOL     OW42375   5.394   7.515   1.328
80179SOL    HW142376   5.406   7.433   1.280
80179SOL    HW242377   5.451   7.577   1.284
80180SOL     OW42378   4.196  10.083  10.772
80180SOL    HW142379   4.238  10.040  10.846
80180SOL    HW242380   4.253  10.063  10.697
80181SOL     OW42381   0.797   0.040   5.739
80181SOL    HW142382   0.851   0.047   5.818
80181SOL    HW242383   0.716   0.087   5.761
80182SOL     OW42384  10.387   5.036   6.346
80182SOL    HW142385  10.333   4.966   6.383
80182SOL    HW242386  10.342   5.117   6.371
80183SOL     OW42387   1.039  13.925  10.521
80183SOL    HW142388   0.982  13.974  10.581
80183SOL    HW242389   1.032  13.835  10.550
80184SOL     OW42390   8.773   6.038   0.352
80184SOL    HW142391   8.693   6.016   0.305
80184SOL    HW242392   8.839   6.045   0.283
80185SOL     OW42393   2.802   7.886   9.347
80185SOL    HW142394   2.745   7.857   9.276
80185SOL    HW242395   2.888   7.897   9.307
80186SOL     OW42396  14.744  13.238   3.164
80186SOL    HW142397  14.766  13.158   3.118
80186SOL    HW242398  14.780  13.308   3.109
80187SOL     OW42399  10.923   0.276   3.982
80187SOL    HW142400  10.901   0.224   3.905
80187SOL    HW242401  11.017   0.293   3.973
80188SOL     OW42402   0.245   5.450   7.353
80188SOL    HW142403   0.209   5.401   7.279
80188SOL    HW242404   0.170   5.464   7.411
80189SOL     OW42405  14.188   9.242   6.680
80189SOL    HW142406  14.255   9.217   6.616
80189SOL    HW242407  14.139   9.312   6.637
80190SOL     OW42408   2.400  14.118   8.739
80190SOL    HW142409   2.343  14.191   8.714
80190SOL    HW242410   2.394  14.115   8.835
80191SOL     OW42411   4.649  14.277  12.882
80191SOL    HW142412   4.719  14.328  12.923
80191SOL    HW242413   4.686  14.189  12.873
80192SOL     OW42414  10.581  14.376   2.147
80192SOL    HW142415  10.522  14.401   2.076
80192SOL    HW242416  10.522  14.352   2.219
80193SOL     OW42417   0.557   3.757   5.145
80193SOL    HW142418   0.559   3.686   5.209
80193SOL    HW242419   0.627   3.816   5.173
80194SOL     OW42420   8.606   8.642  10.738
80194SOL    HW142421   8.551   8.593  10.677
80194SOL    HW242422   8.655   8.575  10.785
80195SOL     OW42423   1.973  11.409   1.707
80195SOL    HW142424   1.919  11.388   1.783
80195SOL    HW242425   1.923  11.476   1.660
80196SOL     OW42426  13.946   1.501  14.150
80196SOL    HW142427  13.922   1.593  14.154
80196SOL    HW242428  14.030   1.496  14.195
80197SOL     OW42429   2.458  14.756  11.962
80197SOL    HW142430   2.368  14.731  11.981
80197SOL    HW242431   2.459  14.776  11.869
80198SOL     OW42432  10.298   6.582  10.927
80198SOL    HW142433  10.315   6.496  10.890
80198SOL    HW242434  10.379   6.605  10.973
80199SOL     OW42435   6.417  10.090   0.734
80199SOL    HW142436   6.509  10.116   0.735
80199SOL    HW242437   6.369  10.169   0.757
80200SOL     OW42438   7.777   4.051  14.641
80200SOL    HW142439   7.813   4.059  14.552
80200SOL    HW242440   7.708   3.986  14.633
80201SOL     OW42441   4.584   0.848  14.526
80201SOL    HW142442   4.663   0.795  14.518
80201SOL    HW242443   4.584   0.880  14.616
80202SOL     OW42444   3.765   3.623   2.837
80202SOL    HW142445   3.744   3.688   2.903
80202SOL    HW242446   3.859   3.608   2.846
80203SOL     OW42447   7.876   4.250  14.807
80203SOL    HW142448   7.828   4.186  14.754
80203SOL    HW242449   7.955   4.270  14.756
80204SOL     OW42450   8.820  14.362   6.001
80204SOL    HW142451   8.883  14.425   5.966
80204SOL    HW242452   8.850  14.277   5.970
80205SOL     OW42453  14.639  11.527   7.476
80205SOL    HW142454  14.715  11.551   7.423
80205SOL    HW242455  14.633  11.432   7.468
80206SOL     OW42456   7.656   6.744   7.443
80206SOL    HW142457   7.734   6.785   7.481
80206SOL    HW242458   7.690   6.695   7.367
80207SOL     OW42459   4.968   9.050   0.286
80207SOL    HW142460   4.930   9.085   0.366
80207SOL    HW242461   4.972   8.956   0.299
80208SOL     OW42462  11.974   8.688   5.848
80208SOL    HW142463  12.065   8.680   5.819
80208SOL    HW242464  11.950   8.600   5.876
80209SOL     OW42465   2.258   4.424   1.610
80209SOL    HW142466   2.311   4.346   1.599
80209SOL    HW242467   2.254   4.464   1.523
80210SOL     OW42468   9.418  10.341   7.324
80210SOL    HW142469   9.429  10.311   7.415
80210SOL    HW242470   9.330  10.311   7.300
80211SOL     OW42471   1.473   8.004   7.796
80211SOL    HW142472   1.565   7.979   7.782
80211SOL    HW242473   1.448   7.960   7.877
80212SOL     OW42474  10.869   4.421   6.372
80212SOL    HW142475  10.776   4.399   6.361
80212SOL    HW242476  10.870   4.499   6.427
80213SOL     OW42477  13.313   1.722   7.819
80213SOL    HW142478  13.339   1.788   7.883
80213SOL    HW242479  13.238   1.678   7.859
80214SOL     OW42480  13.322  12.634   9.552
80214SOL    HW142481  13.260  12.565   9.576
80214SOL    HW242482  13.335  12.684   9.632
80215SOL     OW42483   6.169  11.165   3.158
80215SOL    HW142484   6.242  11.160   3.096
80215SOL    HW242485   6.177  11.086   3.211
80216SOL     OW42486   5.268   3.035  10.327
80216SOL    HW142487   5.180   3.072  10.319
80216SOL    HW242488   5.260   2.967  10.394
80217SOL     OW42489   7.364   8.843   3.475
80217SOL    HW142490   7.344   8.803   3.390
80217SOL    HW242491   7.280   8.849   3.519
80218SOL     OW42492   8.674  11.657   3.112
80218SOL    HW142493   8.690  11.597   3.185
80218SOL    HW242494   8.718  11.738   3.138
80219SOL     OW42495   6.105  11.854  11.871
80219SOL    HW142496   6.049  11.792  11.824
80219SOL    HW242497   6.095  11.831  11.963
80220SOL     OW42498   0.926   3.416   6.360
80220SOL    HW142499   0.981   3.394   6.285
80220SOL    HW242500   0.885   3.334   6.385
80221SOL     OW42501   9.951   7.182   3.817
80221SOL    HW142502   9.961   7.269   3.854
80221SOL    HW242503   9.955   7.123   3.893
80222SOL     OW42504   3.610   2.795  12.219
80222SOL    HW142505   3.563   2.746  12.153
80222SOL    HW242506   3.595   2.887  12.197
80223SOL     OW42507   7.154  10.442   4.073
80223SOL    HW142508   7.184  10.381   4.140
80223SOL    HW242509   7.220  10.437   4.004
80224SOL     OW42510   8.569  12.354   5.422
80224SOL    HW142511   8.482  12.381   5.453
80224SOL    HW242512   8.622  12.433   5.428
80225SOL     OW42513   1.310   0.827   0.185
80225SOL    HW142514   1.305   0.809   0.091
80225SOL    HW242515   1.317   0.740   0.226
80226SOL     OW42516   4.335   2.964   7.348
80226SOL    HW142517   4.359   3.041   7.297
80226SOL    HW242518   4.240   2.955   7.335
80227SOL     OW42519   8.168  10.415   2.044
80227SOL    HW142520   8.236  10.482   2.049
80227SOL    HW242521   8.165  10.377   2.132
80228SOL     OW42522   7.850   2.083   1.958
80228SOL    HW142523   7.912   2.139   2.004
80228SOL    HW242524   7.768   2.132   1.959
80229SOL     OW42525  13.016   4.309  10.741
80229SOL    HW142526  13.051   4.394  10.767
80229SOL    HW242527  13.046   4.249  10.808
80230SOL     OW42528   2.822   1.644   2.237
80230SOL    HW142529   2.796   1.696   2.312
80230SOL    HW242530   2.751   1.655   2.174
80231SOL     OW42531   3.018   0.772  12.090
80231SOL    HW142532   3.075   0.696  12.106
80231SOL    HW242533   3.072   0.832  12.039
80232SOL     OW42534   8.350   6.734  12.125
80232SOL    HW142535   8.424   6.745  12.064
80232SOL    HW242536   8.389   6.749  12.211
80233SOL     OW42537   9.957   8.931   3.116
80233SOL    HW142538  10.013   8.861   3.150
80233SOL    HW242539   9.900   8.955   3.189
80234SOL     OW42540   1.690   7.290  11.772
80234SOL    HW142541   1.625   7.254  11.832
80234SOL    HW242542   1.687   7.385  11.788
80235SOL     OW42543   5.162   5.370  12.157
80235SOL    HW142544   5.221   5.400  12.226
80235SOL    HW242545   5.177   5.431  12.084
80236SOL     OW42546   1.505   9.826   1.849
80236SOL    HW142547   1.517   9.866   1.763
80236SOL    HW242548   1.435   9.877   1.890
80237SOL     OW42549  12.338   9.808   7.974
80237SOL    HW142550  12.378   9.805   8.061
80237SOL    HW242551  12.400   9.858   7.921
80238SOL     OW42552  14.692  11.806   3.839
80238SOL    HW142553  14.767  11.746   3.838
80238SOL    HW242554  14.718  11.878   3.782
80239SOL     OW42555  13.289  12.196   7.519
80239SOL    HW142556  13.350  12.186   7.591
80239SOL    HW242557  13.300  12.286   7.490
80240SOL     OW42558   1.513   2.600   9.139
80240SOL    HW142559   1.436   2.627   9.189
80240SOL    HW242560   1.580   2.582   9.204
80241SOL     OW42561  12.620  11.487   6.514
80241SOL    HW142562  12.673  11.545   6.568
80241SOL    HW242563  12.679  11.418   6.486
80242SOL     OW42564   7.921   2.125   3.706
80242SOL    HW142565   7.986   2.057   3.723
80242SOL    HW242566   7.856   2.114   3.776
80243SOL     OW42567   1.654   0.753   2.535
80243SOL    HW142568   1.664   0.669   2.579
80243SOL    HW242569   1.568   0.784   2.562
80244SOL     OW42570   9.540  11.610   0.587
80244SOL    HW142571   9.515  11.565   0.668
80244SOL    HW242572   9.588  11.687   0.616
80245SOL     OW42573   7.167  10.159  14.032
80245SOL    HW142574   7.129  10.246  14.022
80245SOL    HW242575   7.262  10.174  14.036
80246SOL     OW42576   7.063   6.187   5.808
80246SOL    HW142577   7.132   6.121   5.801
80246SOL    HW242578   7.054   6.221   5.719
80247SOL     OW42579   8.145  12.293   2.208
80247SOL    HW142580   8.069  12.268   2.156
80247SOL    HW242581   8.127  12.384   2.234
80248SOL     OW42582   0.518   2.170   6.351
80248SOL    HW142583   0.555   2.137   6.433
80248SOL    HW242584   0.495   2.261   6.370
80249SOL     OW42585  13.746   6.656   8.740
80249SOL    HW142586  13.715   6.577   8.697
80249SOL    HW242587  13.791   6.625   8.819
80250SOL     OW42588   3.989   5.362   7.786
80250SOL    HW142589   3.983   5.277   7.829
80250SOL    HW242590   4.069   5.401   7.821
80251SOL     OW42591   0.357   7.477   7.734
80251SOL    HW142592   0.279   7.504   7.686
80251SOL    HW242593   0.324   7.445   7.818
80252SOL     OW42594   1.170   3.973   6.903
80252SOL    HW142595   1.181   3.921   6.983
80252SOL    HW242596   1.232   4.045   6.914
80253SOL     OW42597   4.038   8.886  13.425
80253SOL    HW142598   4.131   8.873  13.407
80253SOL    HW242599   4.022   8.836  13.505
80254SOL     OW42600  13.399   6.915   2.129
80254SOL    HW142601  13.430   6.884   2.214
80254SOL    HW242602  13.367   7.004   2.145
80255SOL     OW42603   2.710  12.545   6.694
80255SOL    HW142604   2.640  12.563   6.758
80255SOL    HW242605   2.736  12.631   6.662
80256SOL     OW42606   3.002   5.725   9.374
80256SOL    HW142607   3.003   5.740   9.279
80256SOL    HW242608   3.070   5.659   9.389
80257SOL     OW42609   5.312  11.450   5.886
80257SOL    HW142610   5.372  11.483   5.952
80257SOL    HW242611   5.226  11.481   5.914
80258SOL     OW42612  14.148   5.467  11.508
80258SOL    HW142613  14.108   5.382  11.525
80258SOL    HW242614  14.199   5.454  11.428
80259SOL     OW42615   3.239   1.173   8.802
80259SOL    HW142616   3.304   1.135   8.743
80259SOL    HW242617   3.286   1.185   8.885
80260SOL     OW42618   7.273   7.761   4.030
80260SOL    HW142619   7.255   7.667   4.034
80260SOL    HW242620   7.251   7.794   4.117
80261SOL     OW42621  14.322  14.500   6.161
80261SOL    HW142622  14.375  14.574   6.191
80261SOL    HW242623  14.381  14.450   6.104
80262SOL     OW42624   9.979   1.020   4.398
80262SOL    HW142625  10.039   0.979   4.459
80262SOL    HW242626  10.015   1.108   4.384
80263SOL     OW42627   0.922   2.827  11.994
80263SOL    HW142628   0.936   2.849  11.902
80263SOL    HW242629   1.010   2.823  12.031
80264SOL     OW42630   7.511   6.360  14.712
80264SOL    HW142631   7.418   6.377  14.697
80264SOL    HW242632   7.552   6.446  14.707
80265SOL     OW42633   6.690   2.880   1.053
80265SOL    HW142634   6.718   2.853   0.966
80265SOL    HW242635   6.742   2.959   1.072
80266SOL     OW42636   5.622  14.389   9.749
80266SOL    HW142637   5.540  14.352   9.781
80266SOL    HW242638   5.653  14.327   9.684
80267SOL     OW42639   9.416   9.176   6.542
80267SOL    HW142640   9.396   9.248   6.483
80267SOL    HW242641   9.470   9.215   6.611
80268SOL     OW42642  12.448   9.106   8.005
80268SOL    HW142643  12.403   9.180   8.046
80268SOL    HW242644  12.399   9.089   7.925
80269SOL     OW42645   8.364   6.910   3.237
80269SOL    HW142646   8.381   6.827   3.282
80269SOL    HW242647   8.378   6.977   3.304
80270SOL     OW42648  14.795   1.380  12.765
80270SOL    HW142649  14.707   1.367  12.800
80270SOL    HW242650  14.800   1.320  12.691
80271SOL     OW42651   9.510   9.265   3.075
80271SOL    HW142652   9.574   9.336   3.081
80271SOL    HW242653   9.555   9.196   3.027
80272SOL     OW42654   9.894   4.401   1.730
80272SOL    HW142655   9.867   4.316   1.765
80272SOL    HW242656   9.833   4.418   1.658
80273SOL     OW42657   0.780   9.879   2.337
80273SOL    HW142658   0.781   9.789   2.371
80273SOL    HW242659   0.728   9.873   2.257
80274SOL     OW42660   5.310   8.051   1.563
80274SOL    HW142661   5.405   8.040   1.556
80274SOL    HW242662   5.298   8.108   1.640
80275SOL     OW42663   8.634   3.554  14.657
80275SOL    HW142664   8.718   3.599  14.664
80275SOL    HW242665   8.597   3.584  14.574
80276SOL     OW42666  13.173   6.525   7.990
80276SOL    HW142667  13.109   6.509   7.921
80276SOL    HW242668  13.123   6.516   8.071
80277SOL     OW42669   5.689   7.057   9.475
80277SOL    HW142670   5.753   7.116   9.434
80277SOL    HW242671   5.725   7.039   9.561
80278SOL     OW42672   6.842   1.365   7.861
80278SOL    HW142673   6.850   1.394   7.952
80278SOL    HW242674   6.880   1.437   7.810
80279SOL     OW42675  12.329   2.472   3.998
80279SOL    HW142676  12.331   2.460   4.093
80279SOL    HW242677  12.242   2.443   3.972
80280SOL     OW42678  14.767   2.244   3.234
80280SOL    HW142679  14.724   2.326   3.259
80280SOL    HW242680  14.795   2.206   3.317
80281SOL     OW42681   8.345   6.484  11.272
80281SOL    HW142682   8.292   6.434  11.334
80281SOL    HW242683   8.285   6.510  11.203
80282SOL     OW42684  14.006  12.235  14.478
80282SOL    HW142685  13.911  12.229  14.494
80282SOL    HW242686  14.020  12.180  14.401
80283SOL     OW42687   8.679  11.379  13.298
80283SOL    HW142688   8.654  11.287  13.296
80283SOL    HW242689   8.700  11.400  13.206
80284SOL     OW42690   9.717  14.176  11.483
80284SOL    HW142691   9.754  14.090  11.464
80284SOL    HW242692   9.642  14.157  11.540
80285SOL     OW42693   4.896   8.273  11.265
80285SOL    HW142694   4.925   8.363  11.253
80285SOL    HW242695   4.882   8.265  11.359
80286SOL     OW42696   9.247   3.211   6.880
80286SOL    HW142697   9.180   3.143   6.891
80286SOL    HW242698   9.199   3.288   6.851
80287SOL     OW42699  10.803   3.113  14.629
80287SOL    HW142700  10.785   3.046  14.563
80287SOL    HW242701  10.730   3.174  14.622
80288SOL     OW42702   8.338   3.704   5.037
80288SOL    HW142703   8.390   3.688   4.959
80288SOL    HW242704   8.322   3.799   5.037
80289SOL     OW42705  11.189   1.374  13.408
80289SOL    HW142706  11.262   1.433  13.388
80289SOL    HW242707  11.113   1.415  13.366
80290SOL     OW42708  12.997   9.201   3.013
80290SOL    HW142709  12.981   9.162   2.928
80290SOL    HW242710  12.939   9.277   3.016
80291SOL     OW42711  11.015   0.932   1.536
80291SOL    HW142712  11.034   0.842   1.564
80291SOL    HW242713  10.946   0.961   1.596
80292SOL     OW42714   8.890  14.269  14.274
80292SOL    HW142715   8.955  14.339  14.278
80292SOL    HW242716   8.884  14.247  14.181
80293SOL     OW42717   8.067   4.927   1.318
80293SOL    HW142718   8.053   4.921   1.412
80293SOL    HW242719   7.987   4.891   1.279
80294SOL     OW42720   0.386  11.032   3.672
80294SOL    HW142721   0.302  11.013   3.715
80294SOL    HW242722   0.428  11.096   3.729
80295SOL     OW42723   6.809  10.793   6.323
80295SOL    HW142724   6.786  10.761   6.410
80295SOL    HW242725   6.826  10.713   6.272
80296SOL     OW42726   5.687  12.794   7.117
80296SOL    HW142727   5.610  12.810   7.062
80296SOL    HW242728   5.734  12.723   7.073
80297SOL     OW42729   9.750  13.297   3.904
80297SOL    HW142730   9.702  13.352   3.966
80297SOL    HW242731   9.769  13.354   3.830
80298SOL     OW42732   2.436   0.305  10.176
80298SOL    HW142733   2.524   0.323  10.210
80298SOL    HW242734   2.448   0.299  10.081
80299SOL     OW42735   4.605   1.924  13.140
80299SOL    HW142736   4.541   1.854  13.132
80299SOL    HW242737   4.678   1.896  13.085
80300SOL     OW42738   3.161   1.961   9.203
80300SOL    HW142739   3.080   1.962   9.255
80300SOL    HW242740   3.227   1.926   9.263
80301SOL     OW42741   4.474   1.889  12.269
80301SOL    HW142742   4.538   1.847  12.327
80301SOL    HW242743   4.443   1.818  12.212
80302SOL     OW42744   3.115   7.436   3.154
80302SOL    HW142745   3.032   7.388   3.154
80302SOL    HW242746   3.144   7.432   3.063
80303SOL     OW42747   8.140   6.560  11.111
80303SOL    HW142748   8.066   6.508  11.080
80303SOL    HW242749   8.117   6.650  11.088
80304SOL     OW42750   8.885   9.751  14.274
80304SOL    HW142751   8.825   9.703  14.331
80304SOL    HW242752   8.841   9.752  14.189
80305SOL     OW42753   2.355   0.526   8.539
80305SOL    HW142754   2.279   0.470   8.552
80305SOL    HW242755   2.424   0.467   8.508
80306SOL     OW42756  12.626   3.893  12.251
80306SOL    HW142757  12.719   3.908  12.267
80306SOL    HW242758  12.582   3.968  12.292
80307SOL     OW42759   6.698   8.506  10.332
80307SOL    HW142760   6.623   8.536  10.280
80307SOL    HW242761   6.766   8.486  10.267
80308SOL     OW42762   4.450   2.585  11.047
80308SOL    HW142763   4.492   2.666  11.016
80308SOL    HW242764   4.420   2.542  10.966
80309SOL     OW42765   1.820   2.644   6.096
80309SOL    HW142766   1.791   2.584   6.027
80309SOL    HW242767   1.871   2.590   6.156
80310SOL     OW42768  13.124   0.922   3.967
80310SOL    HW142769  13.153   0.840   3.927
80310SOL    HW242770  13.153   0.990   3.907
80311SOL     OW42771   7.757  10.960   4.008
80311SOL    HW142772   7.715  11.046   4.017
80311SOL    HW242773   7.704  10.914   3.943
80312SOL     OW42774   6.911   8.321   8.558
80312SOL    HW142775   6.825   8.352   8.585
80312SOL    HW242776   6.967   8.399   8.563
80313SOL     OW42777   0.570  14.691   3.376
80313SOL    HW142778   0.642  14.652   3.325
80313SOL    HW242779   0.602  14.689   3.466
80314SOL     OW42780   4.944   1.742  11.310
80314SOL    HW142781   4.898   1.826  11.315
80314SOL    HW242782   4.980   1.738  11.222
80315SOL     OW42783   5.127   2.147   8.550
80315SOL    HW142784   5.131   2.242   8.564
80315SOL    HW242785   5.050   2.134   8.495
80316SOL     OW42786   2.880   7.155  11.398
80316SOL    HW142787   2.870   7.216  11.325
80316SOL    HW242788   2.940   7.088  11.365
80317SOL     OW42789  12.513   7.293   0.546
80317SOL    HW142790  12.466   7.283   0.629
80317SOL    HW242791  12.587   7.350   0.567
80318SOL     OW42792   9.358  12.353   8.256
80318SOL    HW142793   9.290  12.378   8.318
80318SOL    HW242794   9.429  12.416   8.271
80319SOL     OW42795   9.956   4.405  12.952
80319SOL    HW142796   9.866   4.390  12.925
80319SOL    HW242797   9.966   4.501  12.949
80320SOL     OW42798   5.228  14.436  11.685
80320SOL    HW142799   5.281  14.421  11.606
80320SOL    HW242800   5.197  14.348  11.709
80321SOL     OW42801   3.224   5.381   5.183
80321SOL    HW142802   3.227   5.470   5.149
80321SOL    HW242803   3.164   5.385   5.257
80322SOL     OW42804   3.565   5.071  10.159
80322SOL    HW142805   3.629   5.000  10.171
80322SOL    HW242806   3.495   5.032  10.106
80323SOL     OW42807   0.015  13.274   2.005
80323SOL    HW142808   0.077  13.278   2.078
80323SOL    HW242809  14.823  13.331   2.033
80324SOL     OW42810   3.750   1.567  12.416
80324SOL    HW142811   3.683   1.620  12.371
80324SOL    HW242812   3.745   1.596  12.507
80325SOL     OW42813   2.231  12.893   3.643
80325SOL    HW142814   2.136  12.890   3.653
80325SOL    HW242815   2.263  12.928   3.726
80326SOL     OW42816  12.714   9.216  11.778
80326SOL    HW142817  12.625   9.250  11.764
80326SOL    HW242818  12.767   9.259  11.710
80327SOL     OW42819  12.686   2.117   7.482
80327SOL    HW142820  12.755   2.153   7.426
80327SOL    HW242821  12.654   2.041   7.434
80328SOL     OW42822   6.443   9.743   5.057
80328SOL    HW142823   6.474   9.802   5.125
80328SOL    HW242824   6.520   9.726   5.003
80329SOL     OW42825   5.244   1.150   9.300
80329SOL    HW142826   5.284   1.205   9.232
80329SOL    HW242827   5.283   1.180   9.382
80330SOL     OW42828   1.917   2.107   1.617
80330SOL    HW142829   1.946   2.166   1.686
80330SOL    HW242830   1.950   2.147   1.536
80331SOL     OW42831  14.710   5.058   9.047
80331SOL    HW142832  14.688   5.136   8.996
80331SOL    HW242833  14.626   5.024   9.077
80332SOL     OW42834  14.796   9.304   3.795
80332SOL    HW142835  14.725   9.334   3.740
80332SOL    HW242836  14.795   9.363   3.871
80333SOL     OW42837   0.518   7.987   9.133
80333SOL    HW142838   0.558   8.064   9.092
80333SOL    HW242839   0.469   7.945   9.062
80334SOL     OW42840  13.913  11.980  13.958
80334SOL    HW142841  13.898  11.895  14.000
80334SOL    HW242842  13.967  12.029  14.020
80335SOL     OW42843   8.004   5.545   9.739
80335SOL    HW142844   7.968   5.568   9.654
80335SOL    HW242845   7.970   5.457   9.757
80336SOL     OW42846  13.245  12.209   2.586
80336SOL    HW142847  13.317  12.270   2.570
80336SOL    HW242848  13.219  12.225   2.676
80337SOL     OW42849   8.029   8.402   9.003
80337SOL    HW142850   7.968   8.341   8.963
80337SOL    HW242851   7.977   8.448   9.070
80338SOL     OW42852   5.862   7.074   0.376
80338SOL    HW142853   5.953   7.045   0.374
80338SOL    HW242854   5.828   7.049   0.290
80339SOL     OW42855   9.777   6.096   3.322
80339SOL    HW142856   9.832   6.174   3.322
80339SOL    HW242857   9.689   6.128   3.305
80340SOL     OW42858   2.095  12.635   9.584
80340SOL    HW142859   2.073  12.601   9.670
80340SOL    HW242860   2.182  12.599   9.565
80341SOL     OW42861  12.392   4.284   2.104
80341SOL    HW142862  12.332   4.244   2.167
80341SOL    HW242863  12.398   4.375   2.130
80342SOL     OW42864  10.043   8.366   5.932
80342SOL    HW142865  10.078   8.345   5.846
80342SOL    HW242866   9.953   8.396   5.915
80343SOL     OW42867   8.685  13.619  10.248
80343SOL    HW142868   8.711  13.532  10.276
80343SOL    HW242869   8.663  13.609  10.156
80344SOL     OW42870   5.336   3.766   2.786
80344SOL    HW142871   5.323   3.672   2.793
80344SOL    HW242872   5.409   3.784   2.845
80345SOL     OW42873   4.246   7.828   0.357
80345SOL    HW142874   4.245   7.740   0.396
80345SOL    HW242875   4.334   7.861   0.376
80346SOL     OW42876   7.367   8.212   4.202
80346SOL    HW142877   7.300   8.222   4.269
80346SOL    HW242878   7.393   8.301   4.179
80347SOL     OW42879   8.372  12.500  13.596
80347SOL    HW142880   8.421  12.581  13.582
80347SOL    HW242881   8.434  12.431  13.576
80348SOL     OW42882   7.123   8.018   0.724
80348SOL    HW142883   7.071   8.013   0.804
80348SOL    HW242884   7.120   7.929   0.688
80349SOL     OW42885   4.435   5.015  14.509
80349SOL    HW142886   4.462   5.003  14.600
80349SOL    HW242887   4.496   5.080  14.474
80350SOL     OW42888   4.442   5.729  10.826
80350SOL    HW142889   4.436   5.642  10.787
80350SOL    HW242890   4.356   5.768  10.814
80351SOL     OW42891  11.974   5.968   0.860
80351SOL    HW142892  11.968   5.921   0.943
80351SOL    HW242893  12.053   6.022   0.868
80352SOL     OW42894   4.915   7.226   1.088
80352SOL    HW142895   4.993   7.262   1.045
80352SOL    HW242896   4.877   7.302   1.133
80353SOL     OW42897  13.776   8.984   2.949
80353SOL    HW142898  13.861   9.025   2.961
80353SOL    HW242899  13.794   8.890   2.954
80354SOL     OW42900   5.975   6.219   5.069
80354SOL    HW142901   5.935   6.283   5.129
80354SOL    HW242902   6.039   6.173   5.123
80355SOL     OW42903   5.033   3.003  12.936
80355SOL    HW142904   5.016   2.960  12.852
80355SOL    HW242905   5.122   2.974  12.959
80356SOL     OW42906   3.736  10.849   1.907
80356SOL    HW142907   3.721  10.940   1.880
80356SOL    HW242908   3.799  10.855   1.978
80357SOL     OW42909   8.431   3.812  13.744
80357SOL    HW142910   8.410   3.904  13.760
80357SOL    HW242911   8.408   3.768  13.825
80358SOL     OW42912  13.292  12.688  14.212
80358SOL    HW142913  13.306  12.783  14.210
80358SOL    HW242914  13.351  12.654  14.145
80359SOL     OW42915  13.483  11.658   6.721
80359SOL    HW142916  13.407  11.669   6.664
80359SOL    HW242917  13.520  11.573   6.696
80360SOL     OW42918  12.722   3.689   0.597
80360SOL    HW142919  12.815   3.667   0.598
80360SOL    HW242920  12.718   3.782   0.618
80361SOL     OW42921   3.520   0.056  10.126
80361SOL    HW142922   3.609   0.048  10.090
80361SOL    HW242923   3.530   0.108  10.205
80362SOL     OW42924  13.399   6.471  11.257
80362SOL    HW142925  13.311   6.461  11.294
80362SOL    HW242926  13.453   6.500  11.330
80363SOL     OW42927   2.826   3.750   5.615
80363SOL    HW142928   2.828   3.843   5.590
80363SOL    HW242929   2.918   3.728   5.630
80364SOL     OW42930   1.050   4.129   2.840
80364SOL    HW142931   1.085   4.169   2.760
80364SOL    HW242932   0.961   4.162   2.847
80365SOL     OW42933   2.192   7.970  11.954
80365SOL    HW142934   2.108   7.933  11.981
80365SOL    HW242935   2.222   7.911  11.884
80366SOL     OW42936   1.733   5.888   5.804
80366SOL    HW142937   1.809   5.864   5.858
80366SOL    HW242938   1.693   5.805   5.780
80367SOL     OW42939   2.914   4.336   5.000
80367SOL    HW142940   2.974   4.338   5.074
80367SOL    HW242941   2.959   4.385   4.931
80368SOL     OW42942  10.952  13.655   7.304
80368SOL    HW142943  11.011  13.583   7.281
80368SOL    HW242944  10.945  13.707   7.223
80369SOL     OW42945   0.310   2.455  12.174
80369SOL    HW142946   0.244   2.403  12.128
80369SOL    HW242947   0.291   2.440  12.267
80370SOL     OW42948   4.181   8.104   2.027
80370SOL    HW142949   4.124   8.176   1.999
80370SOL    HW242950   4.269   8.142   2.026
80371SOL     OW42951  11.546   9.832   6.948
80371SOL    HW142952  11.467   9.886   6.945
80371SOL    HW242953  11.584   9.850   7.034
80372SOL     OW42954  11.936   1.550  12.431
80372SOL    HW142955  11.950   1.548  12.526
80372SOL    HW242956  11.881   1.474  12.413
80373SOL     OW42957   7.028  12.188  12.229
80373SOL    HW142958   7.017  12.183  12.324
80373SOL    HW242959   7.062  12.276  12.214
80374SOL     OW42960   6.461  10.299   5.247
80374SOL    HW142961   6.463  10.204   5.251
80374SOL    HW242962   6.519  10.321   5.173
80375SOL     OW42963  11.973   2.448  14.289
80375SOL    HW142964  11.934   2.496  14.362
80375SOL    HW242965  11.936   2.360  14.294
80376SOL     OW42966   3.404   3.235   3.598
80376SOL    HW142967   3.377   3.268   3.684
80376SOL    HW242968   3.464   3.162   3.618
80377SOL     OW42969  12.133  14.001   6.865
80377SOL    HW142970  12.143  13.950   6.945
80377SOL    HW242971  12.217  13.992   6.820
80378SOL     OW42972   4.540  12.736   3.884
80378SOL    HW142973   4.580  12.771   3.964
80378SOL    HW242974   4.614  12.715   3.828
80379SOL     OW42975  14.762   9.754   4.556
80379SOL    HW142976  14.821   9.706   4.615
80379SOL    HW242977  14.759   9.700   4.477
80380SOL     OW42978  10.610   4.210  13.392
80380SOL    HW142979  10.581   4.271  13.460
80380SOL    HW242980  10.529   4.184  13.348
80381SOL     OW42981   3.344   3.253   5.295
80381SOL    HW142982   3.263   3.250   5.348
80381SOL    HW242983   3.410   3.211   5.350
80382SOL     OW42984  11.358  11.743   9.900
80382SOL    HW142985  11.378  11.771   9.810
80382SOL    HW242986  11.279  11.689   9.891
80383SOL     OW42987   9.355   1.485   3.530
80383SOL    HW142988   9.341   1.565   3.480
80383SOL    HW242989   9.440   1.498   3.572
80384SOL     OW42990   8.573   8.611   9.238
80384SOL    HW142991   8.643   8.567   9.190
80384SOL    HW242992   8.609   8.622   9.326
80385SOL     OW42993   6.497   4.777   7.438
80385SOL    HW142994   6.505   4.810   7.348
80385SOL    HW242995   6.586   4.753   7.463
80386SOL     OW42996   9.779   1.374   2.726
80386SOL    HW142997   9.823   1.293   2.700
80386SOL    HW242998   9.692   1.346   2.754
80387SOL     OW42999   2.846   3.580   0.849
80387SOL    HW143000   2.836   3.532   0.767
80387SOL    HW243001   2.934   3.558   0.879
80388SOL     OW43002   4.987   0.617   2.722
80388SOL    HW143003   5.056   0.552   2.730
80388SOL    HW243004   5.033   0.701   2.725
80389SOL     OW43005   1.316   9.093   5.264
80389SOL    HW143006   1.239   9.040   5.286
80389SOL    HW243007   1.373   9.034   5.215
80390SOL     OW43008   4.128   6.077  11.099
80390SOL    HW143009   4.065   6.124  11.154
80390SOL    HW243010   4.076   6.047  11.024
80391SOL     OW43011   2.394   8.504   5.317
80391SOL    HW143012   2.441   8.554   5.251
80391SOL    HW243013   2.302   8.508   5.289
80392SOL     OW43014   6.604   6.101   1.037
80392SOL    HW143015   6.698   6.115   1.035
80392SOL    HW243016   6.569   6.174   1.089
80393SOL     OW43017  10.325   0.379   6.618
80393SOL    HW143018  10.242   0.331   6.616
80393SOL    HW243019  10.392   0.312   6.608
80394SOL     OW43020   8.778   3.276  13.639
80394SOL    HW143021   8.828   3.255  13.560
80394SOL    HW243022   8.706   3.213  13.638
80395SOL     OW43023  12.374   9.527   5.816
80395SOL    HW143024  12.297   9.557   5.865
80395SOL    HW243025  12.448   9.556   5.869
80396SOL     OW43026   7.475   5.893   6.071
80396SOL    HW143027   7.406   5.866   6.131
80396SOL    HW243028   7.505   5.812   6.030
80397SOL     OW43029   5.811   0.280   4.623
80397SOL    HW143030   5.804   0.367   4.584
80397SOL    HW243031   5.815   0.296   4.718
80398SOL     OW43032  11.859  12.507  13.948
80398SOL    HW143033  11.837  12.586  13.899
80398SOL    HW243034  11.777  12.483  13.992
80399SOL     OW43035   3.058   5.869  14.474
80399SOL    HW143036   3.045   5.784  14.433
80399SOL    HW243037   3.033   5.932  14.407
80400SOL     OW43038  12.883   9.950   5.528
80400SOL    HW143039  12.817   9.916   5.588
80400SOL    HW243040  12.835  10.010   5.471
80401SOL     OW43041   4.272   6.116  10.840
80401SOL    HW143042   4.293   6.030  10.803
80401SOL    HW243043   4.243   6.097  10.929
80402SOL     OW43044   0.723   0.860   3.112
80402SOL    HW143045   0.689   0.922   3.048
80402SOL    HW243046   0.684   0.776   3.087
80403SOL     OW43047   2.320   2.313   1.284
80403SOL    HW143048   2.395   2.286   1.337
80403SOL    HW243049   2.311   2.245   1.217
80404SOL     OW43050   8.066   1.865   3.360
80404SOL    HW143051   8.129   1.825   3.420
80404SOL    HW243052   8.069   1.959   3.382
80405SOL     OW43053   9.941   8.283   0.535
80405SOL    HW143054   9.897   8.256   0.454
80405SOL    HW243055   9.917   8.375   0.546
80406SOL     OW43056   3.061   4.517  11.649
80406SOL    HW143057   3.084   4.427  11.672
80406SOL    HW243058   3.108   4.535  11.568
80407SOL     OW43059   4.085  12.760   6.086
80407SOL    HW143060   4.019  12.768   6.155
80407SOL    HW243061   4.135  12.842   6.091
80408SOL     OW43062   4.633  13.892   6.829
80408SOL    HW143063   4.638  13.979   6.788
80408SOL    HW243064   4.542  13.885   6.858
80409SOL     OW43065   3.407   8.362  12.788
80409SOL    HW143066   3.379   8.332  12.874
80409SOL    HW243067   3.459   8.441  12.806
80410SOL     OW43068   8.854   3.540   6.382
80410SOL    HW143069   8.823   3.504   6.298
80410SOL    HW243070   8.860   3.635   6.366
80411SOL     OW43071   1.016   5.580  12.327
80411SOL    HW143072   1.000   5.502  12.380
80411SOL    HW243073   1.110   5.595  12.335
80412SOL     OW43074  11.649  14.362   3.328
80412SOL    HW143075  11.590  14.384   3.400
80412SOL    HW243076  11.736  14.356   3.369
80413SOL     OW43077   8.296  10.105   4.322
80413SOL    HW143078   8.217  10.064   4.356
80413SOL    HW243079   8.285  10.105   4.227
80414SOL     OW43080   1.540   3.037  10.832
80414SOL    HW143081   1.525   3.014  10.923
80414SOL    HW243082   1.565   3.130  10.834
80415SOL     OW43083   8.964   0.559  12.568
80415SOL    HW143084   9.002   0.546  12.655
80415SOL    HW243085   9.005   0.492  12.513
80416SOL     OW43086  14.431   5.382   3.316
80416SOL    HW143087  14.459   5.434   3.391
80416SOL    HW243088  14.511   5.339   3.286
80417SOL     OW43089  12.892   4.304  14.325
80417SOL    HW143090  12.939   4.239  14.272
80417SOL    HW243091  12.945   4.383  14.319
80418SOL     OW43092  13.517   9.212   5.577
80418SOL    HW143093  13.600   9.235   5.535
80418SOL    HW243094  13.481   9.143   5.521
80419SOL     OW43095  14.771  10.516   8.026
80419SOL    HW143096  14.778  10.531   8.120
80419SOL    HW243097  14.850  10.556   7.989
80420SOL     OW43098   1.694   5.254   3.705
80420SOL    HW143099   1.679   5.266   3.612
80420SOL    HW243100   1.625   5.193   3.733
80421SOL     OW43101  13.664   1.999   0.208
80421SOL    HW143102  13.626   1.998   0.120
80421SOL    HW243103  13.608   1.940   0.258
80422SOL     OW43104   6.671  10.733  13.018
80422SOL    HW143105   6.721  10.671  13.071
80422SOL    HW243106   6.734  10.766  12.954
80423SOL     OW43107   3.090  14.854   1.289
80423SOL    HW143108   3.166  14.799   1.309
80423SOL    HW243109   3.015  14.797   1.302
80424SOL     OW43110   6.808   6.009  11.231
80424SOL    HW143111   6.779   6.035  11.143
80424SOL    HW243112   6.789   5.916  11.237
80425SOL     OW43113   2.874  12.848   5.153
80425SOL    HW143114   2.905  12.846   5.063
80425SOL    HW243115   2.858  12.941   5.171
80426SOL     OW43116   7.727   5.125  11.448
80426SOL    HW143117   7.749   5.217  11.464
80426SOL    HW243118   7.788   5.097  11.380
80427SOL     OW43119   7.170   7.975   8.951
80427SOL    HW143120   7.192   8.027   8.874
80427SOL    HW243121   7.086   8.009   8.980
80428SOL     OW43122   9.631   7.216   5.037
80428SOL    HW143123   9.539   7.193   5.046
80428SOL    HW243124   9.672   7.182   5.117
80429SOL     OW43125   5.329   1.745   8.024
80429SOL    HW143126   5.290   1.743   8.112
80429SOL    HW243127   5.420   1.771   8.039
80430SOL     OW43128   8.424   7.786   0.774
80430SOL    HW143129   8.356   7.732   0.813
80430SOL    HW243130   8.475   7.726   0.720
80431SOL     OW43131   7.331   7.696  12.517
80431SOL    HW143132   7.301   7.707  12.426
80431SOL    HW243133   7.354   7.785  12.545
80432SOL     OW43134   5.613   3.641  14.114
80432SOL    HW143135   5.594   3.685  14.031
80432SOL    HW243136   5.533   3.592  14.134
80433SOL     OW43137   9.785   2.472   6.341
80433SOL    HW143138   9.729   2.505   6.270
80433SOL    HW243139   9.850   2.418   6.296
80434SOL     OW43140   9.570  11.883  14.488
80434SOL    HW143141   9.492  11.913  14.441
80434SOL    HW243142   9.636  11.950  14.471
80435SOL     OW43143   7.836  10.602   6.897
80435SOL    HW143144   7.811  10.546   6.970
80435SOL    HW243145   7.866  10.683   6.938
80436SOL     OW43146   8.963  14.230   9.203
80436SOL    HW143147   8.875  14.212   9.236
80436SOL    HW243148   8.952  14.304   9.144
80437SOL     OW43149  11.803   9.724   8.556
80437SOL    HW143150  11.812   9.773   8.638
80437SOL    HW243151  11.875   9.661   8.558
80438SOL     OW43152   8.888   9.529   8.218
80438SOL    HW143153   8.906   9.558   8.129
80438SOL    HW243154   8.796   9.500   8.216
80439SOL     OW43155   8.515  11.919  10.101
80439SOL    HW143156   8.551  11.893  10.185
80439SOL    HW243157   8.587  11.964  10.056
80440SOL     OW43158   9.700  11.849  10.859
80440SOL    HW143159   9.727  11.757  10.862
80440SOL    HW243160   9.626  11.850  10.797
80441SOL     OW43161   5.569   3.317   7.455
80441SOL    HW143162   5.587   3.353   7.368
80441SOL    HW243163   5.646   3.342   7.507
80442SOL     OW43164   7.683   2.703  10.207
80442SOL    HW143165   7.742   2.675  10.277
80442SOL    HW243166   7.712   2.791  10.185
80443SOL     OW43167   3.123   6.368  13.199
80443SOL    HW143168   3.076   6.386  13.280
80443SOL    HW243169   3.171   6.449  13.180
80444SOL     OW43170  13.126   7.780   2.903
80444SOL    HW143171  13.170   7.767   2.987
80444SOL    HW243172  13.148   7.869   2.877
80445SOL     OW43173   5.063  12.586   9.448
80445SOL    HW143174   5.133  12.526   9.475
80445SOL    HW243175   4.993  12.528   9.417
80446SOL     OW43176  12.613   7.030   4.103
80446SOL    HW143177  12.571   6.997   4.023
80446SOL    HW243178  12.545   7.022   4.170
80447SOL     OW43179   3.077   0.596  10.740
80447SOL    HW143180   3.139   0.662  10.769
80447SOL    HW243181   3.030   0.637  10.668
80448SOL     OW43182   9.301  13.072  12.680
80448SOL    HW143183   9.354  13.004  12.640
80448SOL    HW243184   9.359  13.148  12.683
80449SOL     OW43185   2.757  11.345   7.582
80449SOL    HW143186   2.687  11.295   7.541
80449SOL    HW243187   2.838  11.301   7.555
80450SOL     OW43188   1.401   3.323   6.943
80450SOL    HW143189   1.321   3.345   6.991
80450SOL    HW243190   1.468   3.318   7.010
80451SOL     OW43191  10.987   1.129  14.541
80451SOL    HW143192  11.054   1.063  14.527
80451SOL    HW243193  11.029   1.196  14.594
80452SOL     OW43194  10.783   1.786   1.883
80452SOL    HW143195  10.715   1.729   1.919
80452SOL    HW243196  10.755   1.804   1.794
80453SOL     OW43197   2.032   8.958  13.923
80453SOL    HW143198   1.971   8.900  13.877
80453SOL    HW243199   2.065   9.017  13.855
80454SOL     OW43200   0.343   8.926   9.638
80454SOL    HW143201   0.417   8.876   9.671
80454SOL    HW243202   0.288   8.861   9.593
80455SOL     OW43203  10.655   2.117  10.698
80455SOL    HW143204  10.678   2.203  10.734
80455SOL    HW243205  10.700   2.055  10.754
80456SOL     OW43206  12.034   9.733   7.567
80456SOL    HW143207  11.945   9.734   7.532
80456SOL    HW243208  12.029   9.784   7.648
80457SOL     OW43209   8.984   9.739  14.622
80457SOL    HW143210   8.998   9.653  14.662
80457SOL    HW243211   9.072   9.774  14.609
80458SOL     OW43212   0.507   0.502  11.631
80458SOL    HW143213   0.450   0.488  11.707
80458SOL    HW243214   0.561   0.424  11.627
80459SOL     OW43215  14.542   3.808   4.302
80459SOL    HW143216  14.584   3.858   4.232
80459SOL    HW243217  14.598   3.731   4.314
80460SOL     OW43218   3.114   4.582   3.761
80460SOL    HW143219   3.115   4.677   3.760
80460SOL    HW243220   3.024   4.559   3.784
80461SOL     OW43221   4.868   4.674   1.106
80461SOL    HW143222   4.860   4.641   1.017
80461SOL    HW243223   4.812   4.617   1.158
80462SOL     OW43224   1.019   6.939   9.468
80462SOL    HW143225   1.005   7.005   9.400
80462SOL    HW243226   1.031   6.857   9.420
80463SOL     OW43227   3.425   2.633   9.967
80463SOL    HW143228   3.508   2.626  10.014
80463SOL    HW243229   3.359   2.602  10.030
80464SOL     OW43230   7.362  13.518   2.484
80464SOL    HW143231   7.277  13.546   2.452
80464SOL    HW243232   7.392  13.591   2.539
80465SOL     OW43233   4.161  12.810   8.477
80465SOL    HW143234   4.230  12.866   8.512
80465SOL    HW243235   4.112  12.866   8.417
80466SOL     OW43236   7.369   8.410   5.436
80466SOL    HW143237   7.410   8.481   5.485
80466SOL    HW243238   7.416   8.407   5.353
80467SOL     OW43239   3.526   5.702   0.694
80467SOL    HW143240   3.432   5.689   0.706
80467SOL    HW243241   3.552   5.636   0.630
80468SOL     OW43242  11.292   8.650  12.897
80468SOL    HW143243  11.338   8.575  12.858
80468SOL    HW243244  11.273   8.621  12.987
80469SOL     OW43245  11.124  10.965  13.722
80469SOL    HW143246  11.049  11.013  13.687
80469SOL    HW243247  11.181  10.952  13.646
80470SOL     OW43248   6.915   9.670  12.089
80470SOL    HW143249   6.914   9.762  12.063
80470SOL    HW243250   6.853   9.665  12.162
80471SOL     OW43251   2.932   7.819   5.182
80471SOL    HW143252   2.869   7.843   5.114
80471SOL    HW243253   2.886   7.756   5.237
80472SOL     OW43254  14.103  13.606   7.171
80472SOL    HW143255  14.042  13.650   7.230
80472SOL    HW243256  14.072  13.515   7.167
80473SOL     OW43257   5.500  10.721   9.440
80473SOL    HW143258   5.579  10.667   9.440
80473SOL    HW243259   5.430  10.660   9.418
80474SOL     OW43260  12.199   0.509   9.723
80474SOL    HW143261  12.146   0.469   9.654
80474SOL    HW243262  12.184   0.456   9.800
80475SOL     OW43263  10.564  13.881  10.998
80475SOL    HW143264  10.486  13.846  10.957
80475SOL    HW243265  10.597  13.946  10.936
80476SOL     OW43266   7.372   2.820   8.127
80476SOL    HW143267   7.435   2.824   8.054
80476SOL    HW243268   7.392   2.738   8.171
80477SOL     OW43269   8.884  11.464   3.219
80477SOL    HW143270   8.854  11.377   3.244
80477SOL    HW243271   8.959  11.448   3.161
80478SOL     OW43272   4.783  11.592   5.672
80478SOL    HW143273   4.739  11.585   5.757
80478SOL    HW243274   4.831  11.675   5.677
80479SOL     OW43275   6.031   5.800  10.627
80479SOL    HW143276   6.071   5.876  10.585
80479SOL    HW243277   6.042   5.816  10.721
80480SOL     OW43278   6.471   7.194  11.310
80480SOL    HW143279   6.461   7.259  11.380
80480SOL    HW243280   6.457   7.243  11.229
80481SOL     OW43281  13.628   0.083  12.534
80481SOL    HW143282  13.542   0.042  12.537
80481SOL    HW243283  13.619   0.162  12.588
80482SOL     OW43284   1.336   9.344  14.607
80482SOL    HW143285   1.278   9.343  14.684
80482SOL    HW243286   1.279   9.323  14.533
80483SOL     OW43287   4.956  12.688   2.439
80483SOL    HW143288   4.938  12.781   2.426
80483SOL    HW243289   4.881  12.643   2.400
80484SOL     OW43290  10.193   3.484  14.403
80484SOL    HW143291  10.179   3.543  14.478
80484SOL    HW243292  10.212   3.399  14.442
80485SOL     OW43293   2.736  14.382  11.801
80485SOL    HW143294   2.708  14.291  11.791
80485SOL    HW243295   2.657  14.433  11.788
80486SOL     OW43296   4.934   2.508   9.173
80486SOL    HW143297   4.849   2.475   9.204
80486SOL    HW243298   4.997   2.443   9.203
80487SOL     OW43299   7.159   8.919   4.193
80487SOL    HW143300   7.132   8.828   4.200
80487SOL    HW243301   7.255   8.915   4.190
80488SOL     OW43302   8.170   9.886  10.801
80488SOL    HW143303   8.242   9.830  10.829
80488SOL    HW243304   8.098   9.826  10.782
80489SOL     OW43305   8.752  11.487   4.712
80489SOL    HW143306   8.701  11.406   4.711
80489SOL    HW243307   8.688  11.557   4.703
80490SOL     OW43308   3.848   0.927   4.175
80490SOL    HW143309   3.848   0.832   4.178
80490SOL    HW243310   3.799   0.949   4.095
80491SOL     OW43311   2.749   4.792  13.099
80491SOL    HW143312   2.804   4.825  13.027
80491SOL    HW243313   2.668   4.843  13.092
80492SOL     OW43314  10.235   4.292  14.024
80492SOL    HW143315  10.322   4.333  14.017
80492SOL    HW243316  10.252   4.205  14.060
80493SOL     OW43317   6.276  14.368   5.804
80493SOL    HW143318   6.231  14.364   5.720
80493SOL    HW243319   6.298  14.460   5.815
80494SOL     OW43320   2.420  12.648  11.353
80494SOL    HW143321   2.327  12.669  11.342
80494SOL    HW243322   2.465  12.732  11.341
80495SOL     OW43323   2.776   9.424   4.214
80495SOL    HW143324   2.728   9.349   4.179
80495SOL    HW243325   2.715   9.465   4.275
80496SOL     OW43326  14.001   9.377   6.311
80496SOL    HW143327  14.086   9.338   6.293
80496SOL    HW243328  13.947   9.353   6.235
80497SOL     OW43329   2.907  12.027  10.204
80497SOL    HW143330   2.860  12.029  10.120
80497SOL    HW243331   2.853  11.970  10.259
80498SOL     OW43332  10.144   2.583   3.017
80498SOL    HW143333  10.142   2.679   3.019
80498SOL    HW243334  10.056   2.556   3.042
80499SOL     OW43335   3.644   2.651   5.468
80499SOL    HW143336   3.711   2.637   5.536
80499SOL    HW243337   3.622   2.744   5.476
80500SOL     OW43338  12.512  11.511   3.799
80500SOL    HW143339  12.453  11.463   3.741
80500SOL    HW243340  12.590  11.527   3.747
80501SOL     OW43341  12.785  13.126   7.854
80501SOL    HW143342  12.830  13.059   7.904
80501SOL    HW243343  12.844  13.147   7.782
80502SOL     OW43344   4.134   7.387   2.850
80502SOL    HW143345   4.160   7.400   2.941
80502SOL    HW243346   4.146   7.473   2.809
80503SOL     OW43347   6.769   4.227   4.894
80503SOL    HW143348   6.679   4.245   4.920
80503SOL    HW243349   6.765   4.216   4.799
80504SOL     OW43350  11.346   2.635   7.289
80504SOL    HW143351  11.267   2.644   7.343
80504SOL    HW243352  11.324   2.567   7.226
80505SOL     OW43353   7.083  13.918   5.902
80505SOL    HW143354   7.085  13.964   5.986
80505SOL    HW243355   7.042  13.834   5.922
80506SOL     OW43356  10.614  12.606  10.752
80506SOL    HW143357  10.552  12.677  10.766
80506SOL    HW243358  10.689  12.647  10.710
80507SOL     OW43359   1.349   9.786  10.451
80507SOL    HW143360   1.320   9.780  10.542
80507SOL    HW243361   1.313   9.869  10.420
80508SOL     OW43362   7.444  11.693  11.781
80508SOL    HW143363   7.469  11.784  11.768
80508SOL    HW243364   7.375  11.677  11.717
80509SOL     OW43365   8.598   3.703  10.531
80509SOL    HW143366   8.624   3.787  10.569
80509SOL    HW243367   8.502   3.704  10.534
80510SOL     OW43368   7.656   2.519   0.908
80510SOL    HW143369   7.611   2.589   0.860
80510SOL    HW243370   7.732   2.562   0.947
80511SOL     OW43371   8.929   0.304   5.882
80511SOL    HW143372   8.884   0.284   5.964
80511SOL    HW243373   8.975   0.386   5.899
80512SOL     OW43374  10.657  11.988  12.653
80512SOL    HW143375  10.680  11.917  12.593
80512SOL    HW243376  10.708  12.063  12.623
80513SOL     OW43377   7.211   8.244  13.274
80513SOL    HW143378   7.259   8.224  13.194
80513SOL    HW243379   7.277   8.244  13.343
80514SOL     OW43380   6.004  14.777   0.882
80514SOL    HW143381   6.086  14.783   0.932
80514SOL    HW243382   5.936  14.776   0.949
80515SOL     OW43383   0.971   0.720   6.148
80515SOL    HW143384   1.061   0.750   6.132
80515SOL    HW243385   0.941   0.773   6.221
80516SOL     OW43386  12.535   5.028  12.826
80516SOL    HW143387  12.601   5.042  12.759
80516SOL    HW243388  12.451   5.039  12.780
80517SOL     OW43389   4.831  12.609   8.315
80517SOL    HW143390   4.763  12.657   8.364
80517SOL    HW243391   4.782  12.563   8.247
80518SOL     OW43392   8.822   0.034   8.474
80518SOL    HW143393   8.750   0.085   8.437
80518SOL    HW243394   8.869  14.879   8.398
80519SOL     OW43395   0.778  11.558   4.331
80519SOL    HW143396   0.829  11.588   4.406
80519SOL    HW243397   0.718  11.631   4.313
80520SOL     OW43398  14.332  10.253   1.243
80520SOL    HW143399  14.267  10.311   1.282
80520SOL    HW243400  14.413  10.304   1.244
80521SOL     OW43401  12.163   3.938   8.623
80521SOL    HW143402  12.248   3.893   8.613
80521SOL    HW243403  12.121   3.891   8.696
80522SOL     OW43404   7.786   6.777   5.052
80522SOL    HW143405   7.870   6.816   5.074
80522SOL    HW243406   7.794   6.685   5.075
80523SOL     OW43407   7.489   5.350   5.001
80523SOL    HW143408   7.567   5.345   5.057
80523SOL    HW243409   7.481   5.262   4.963
80524SOL     OW43410   5.825  13.152   9.038
80524SOL    HW143411   5.915  13.133   9.062
80524SOL    HW243412   5.829  13.238   8.996
80525SOL     OW43413   8.531  13.569   4.264
80525SOL    HW143414   8.458  13.550   4.322
80525SOL    HW243415   8.501  13.542   4.177
80526SOL     OW43416   8.757   0.250  11.188
80526SOL    HW143417   8.688   0.316  11.190
80526SOL    HW243418   8.787   0.243  11.279
80527SOL     OW43419   9.301   2.806   3.260
80527SOL    HW143420   9.333   2.745   3.327
80527SOL    HW243421   9.377   2.859   3.237
80528SOL     OW43422   4.624  11.881  13.294
80528SOL    HW143423   4.593  11.800  13.335
80528SOL    HW243424   4.712  11.859  13.262
80529SOL     OW43425   4.560   5.759   8.331
80529SOL    HW143426   4.614   5.707   8.392
80529SOL    HW243427   4.592   5.734   8.244
80530SOL     OW43428   6.748   8.824   4.093
80530SOL    HW143429   6.669   8.871   4.064
80530SOL    HW243430   6.790   8.885   4.153
80531SOL     OW43431   3.448   6.543   1.305
80531SOL    HW143432   3.487   6.580   1.226
80531SOL    HW243433   3.380   6.605   1.330
80532SOL     OW43434   1.070   0.617   6.445
80532SOL    HW143435   1.023   0.563   6.508
80532SOL    HW243436   1.102   0.556   6.379
80533SOL     OW43437   1.432  14.812  13.146
80533SOL    HW143438   1.338  14.828  13.144
80533SOL    HW243439   1.443  14.727  13.104
80534SOL     OW43440  12.078  13.609   2.283
80534SOL    HW143441  12.047  13.699   2.282
80534SOL    HW243442  12.131  13.601   2.204
80535SOL     OW43443   7.273  13.582   1.540
80535SOL    HW143444   7.349  13.638   1.519
80535SOL    HW243445   7.198  13.629   1.502
80536SOL     OW43446  13.095   7.777   2.336
80536SOL    HW143447  13.030   7.729   2.287
80536SOL    HW243448  13.115   7.721   2.411
80537SOL     OW43449   2.892  12.939   8.217
80537SOL    HW143450   2.884  12.882   8.293
80537SOL    HW243451   2.810  12.989   8.215
80538SOL     OW43452   7.139  13.779   1.358
80538SOL    HW143453   7.215  13.788   1.300
80538SOL    HW243454   7.065  13.804   1.304
80539SOL     OW43455   9.332  12.098   7.817
80539SOL    HW143456   9.275  12.057   7.882
80539SOL    HW243457   9.281  12.171   7.783
80540SOL     OW43458   3.700  12.953   0.053
80540SOL    HW143459   3.769  12.890   0.069
80540SOL    HW243460   3.745  13.032   0.023
80541SOL     OW43461   4.329   9.284  11.492
80541SOL    HW143462   4.285   9.311  11.573
80541SOL    HW243463   4.298   9.195  11.477
80542SOL     OW43464   9.184   2.943  12.650
80542SOL    HW143465   9.165   2.924  12.558
80542SOL    HW243466   9.100   2.974  12.686
80543SOL     OW43467   3.894  13.860  11.957
80543SOL    HW143468   3.986  13.880  11.945
80543SOL    HW243469   3.871  13.807  11.880
80544SOL     OW43470  13.290   5.830  11.558
80544SOL    HW143471  13.275   5.890  11.631
80544SOL    HW243472  13.212   5.838  11.504
80545SOL     OW43473  14.279   8.330  11.989
80545SOL    HW143474  14.275   8.329  12.085
80545SOL    HW243475  14.317   8.246  11.966
80546SOL     OW43476   9.710   6.453  13.259
80546SOL    HW143477   9.657   6.507  13.317
80546SOL    HW243478   9.661   6.450  13.177
80547SOL     OW43479   7.841   1.272   5.168
80547SOL    HW143480   7.753   1.260   5.131
80547SOL    HW243481   7.868   1.185   5.195
80548SOL     OW43482  13.121   9.611  11.014
80548SOL    HW143483  13.183   9.626  10.943
80548SOL    HW243484  13.175   9.580  11.087
80549SOL     OW43485   1.310   2.715  11.946
80549SOL    HW143486   1.316   2.754  11.859
80549SOL    HW243487   1.292   2.623  11.930
80550SOL     OW43488   8.549   8.702   2.136
80550SOL    HW143489   8.608   8.747   2.196
80550SOL    HW243490   8.469   8.754   2.136
80551SOL     OW43491   0.657   0.155  10.135
80551SOL    HW143492   0.669   0.120  10.046
80551SOL    HW243493   0.663   0.250  10.124
80552SOL     OW43494  13.788   6.506   2.757
80552SOL    HW143495  13.825   6.529   2.842
80552SOL    HW243496  13.709   6.454   2.778
80553SOL     OW43497  10.436   9.947   2.882
80553SOL    HW143498  10.480   9.879   2.830
80553SOL    HW243499  10.347   9.951   2.845
80554SOL     OW43500   3.031  10.591   0.263
80554SOL    HW143501   2.948  10.623   0.298
80554SOL    HW243502   3.079  10.671   0.239
80555SOL     OW43503   3.797   1.429  14.461
80555SOL    HW143504   3.718   1.433  14.514
80555SOL    HW243505   3.869   1.426  14.525
80556SOL     OW43506  14.094  12.525   2.701
80556SOL    HW143507  14.140  12.581   2.765
80556SOL    HW243508  14.135  12.439   2.711
80557SOL     OW43509   8.019  12.699   6.624
80557SOL    HW143510   8.032  12.705   6.719
80557SOL    HW243511   7.965  12.621   6.612
80558SOL     OW43512  12.423   5.851   7.196
80558SOL    HW143513  12.507   5.872   7.156
80558SOL    HW243514  12.393   5.773   7.150
80559SOL     OW43515  14.849   1.542   8.375
80559SOL    HW143516  14.767   1.493   8.375
80559SOL    HW243517  14.842   1.600   8.450
80560SOL     OW43518   3.684   5.086   3.684
80560SOL    HW143519   3.646   5.169   3.654
80560SOL    HW243520   3.686   5.031   3.606
80561SOL     OW43521  11.732   6.143   7.209
80561SOL    HW143522  11.778   6.224   7.230
80561SOL    HW243523  11.653   6.171   7.163
80562SOL     OW43524  12.677   9.938  10.715
80562SOL    HW143525  12.639   9.970  10.632
80562SOL    HW243526  12.759   9.896  10.689
80563SOL     OW43527  13.227   5.048   5.745
80563SOL    HW143528  13.152   5.023   5.799
80563SOL    HW243529  13.243   4.973   5.689
80564SOL     OW43530   3.805   7.184  14.089
80564SOL    HW143531   3.876   7.236  14.126
80564SOL    HW243532   3.817   7.097  14.126
80565SOL     OW43533  14.524   7.468  10.403
80565SOL    HW143534  14.569   7.544  10.369
80565SOL    HW243535  14.545   7.397  10.342
80566SOL     OW43536   6.377  11.088  12.264
80566SOL    HW143537   6.373  11.065  12.171
80566SOL    HW243538   6.340  11.012  12.309
80567SOL     OW43539  14.136   1.929   7.725
80567SOL    HW143540  14.065   1.871   7.753
80567SOL    HW243541  14.167   1.892   7.643
80568SOL     OW43542   2.413  13.687   3.982
80568SOL    HW143543   2.481  13.620   3.989
80568SOL    HW243544   2.340  13.652   4.034
80569SOL     OW43545   5.380   0.882  12.940
80569SOL    HW143546   5.444   0.860  13.008
80569SOL    HW243547   5.409   0.834  12.863
80570SOL     OW43548  14.752   7.691  11.344
80570SOL    HW143549  14.794   7.673  11.428
80570SOL    HW243550  14.766   7.785  11.331
80571SOL     OW43551   0.777   3.241   1.064
80571SOL    HW143552   0.787   3.197   1.149
80571SOL    HW243553   0.861   3.285   1.050
80572SOL     OW43554  11.198   5.619   0.444
80572SOL    HW143555  11.132   5.611   0.374
80572SOL    HW243556  11.202   5.532   0.483
80573SOL     OW43557   2.391   1.296   5.744
80573SOL    HW143558   2.403   1.364   5.810
80573SOL    HW243559   2.406   1.214   5.790
80574SOL     OW43560  14.096   9.207   2.606
80574SOL    HW143561  14.031   9.140   2.625
80574SOL    HW243562  14.142   9.220   2.688
80575SOL     OW43563  10.746   0.994  13.786
80575SOL    HW143564  10.705   0.913  13.756
80575SOL    HW243565  10.673   1.049  13.814
80576SOL     OW43566   9.973   0.645  13.742
80576SOL    HW143567   9.914   0.718  13.762
80576SOL    HW243568   9.989   0.603  13.826
80577SOL     OW43569  11.685   8.021   9.072
80577SOL    HW143570  11.689   8.021   9.168
80577SOL    HW243571  11.616   8.084   9.051
80578SOL     OW43572  10.400   0.762   2.289
80578SOL    HW143573  10.327   0.798   2.339
80578SOL    HW243574  10.403   0.815   2.210
80579SOL     OW43575  13.905   0.398  13.916
80579SOL    HW143576  13.960   0.476  13.922
80579SOL    HW243577  13.841   0.419  13.848
80580SOL     OW43578   3.703   4.816   8.554
80580SOL    HW143579   3.767   4.820   8.624
80580SOL    HW243580   3.723   4.891   8.498
80581SOL     OW43581   6.563   9.104  11.636
80581SOL    HW143582   6.582   9.115  11.729
80581SOL    HW243583   6.631   9.155  11.592
80582SOL     OW43584  14.167   3.963   8.104
80582SOL    HW143585  14.143   4.055   8.115
80582SOL    HW243586  14.084   3.916   8.109
80583SOL     OW43587  13.571  13.099  12.086
80583SOL    HW143588  13.612  13.026  12.132
80583SOL    HW243589  13.645  13.148  12.049
80584SOL     OW43590   7.833  13.590   7.839
80584SOL    HW143591   7.851  13.518   7.779
80584SOL    HW243592   7.888  13.662   7.808
80585SOL     OW43593   1.246   4.597   0.076
80585SOL    HW143594   1.214   4.538   0.145
80585SOL    HW243595   1.178   4.594   0.008
80586SOL     OW43596   9.159   3.615   0.097
80586SOL    HW143597   9.196   3.528   0.108
80586SOL    HW243598   9.072   3.610   0.136
80587SOL     OW43599   1.228  10.336   3.384
80587SOL    HW143600   1.234  10.429   3.405
80587SOL    HW243601   1.183  10.334   3.299
80588SOL     OW43602   1.954   1.937  12.976
80588SOL    HW143603   1.918   1.983  13.052
80588SOL    HW243604   2.048   1.952  12.981
80589SOL     OW43605   0.284   2.255   5.162
80589SOL    HW143606   0.233   2.226   5.087
80589SOL    HW243607   0.371   2.274   5.126
80590SOL     OW43608   7.163   6.389   7.841
80590SOL    HW143609   7.142   6.354   7.927
80590SOL    HW243610   7.147   6.315   7.781
80591SOL     OW43611   5.539  14.738  12.799
80591SOL    HW143612   5.534  14.833  12.812
80591SOL    HW243613   5.529  14.726  12.705
80592SOL     OW43614   1.023   2.257  14.077
80592SOL    HW143615   1.102   2.280  14.126
80592SOL    HW243616   0.952   2.301  14.125
80593SOL     OW43617  14.547   6.307  11.311
80593SOL    HW143618  14.547   6.383  11.370
80593SOL    HW243619  14.464   6.311  11.266
80594SOL     OW43620   9.937  13.228  14.143
80594SOL    HW143621   9.992  13.204  14.217
80594SOL    HW243622   9.999  13.243  14.071
80595SOL     OW43623   8.977  10.100   2.161
80595SOL    HW143624   9.024  10.139   2.088
80595SOL    HW243625   9.009  10.146   2.239
80596SOL     OW43626   9.810   9.555   9.096
80596SOL    HW143627   9.788   9.633   9.046
80596SOL    HW243628   9.810   9.484   9.032
80597SOL     OW43629   0.832  13.646   5.901
80597SOL    HW143630   0.917  13.690   5.904
80597SOL    HW243631   0.791  13.677   5.820
80598SOL     OW43632   8.738   9.453  14.288
80598SOL    HW143633   8.806   9.402  14.333
80598SOL    HW243634   8.740   9.422  14.198
80599SOL     OW43635  14.505  14.552  12.577
80599SOL    HW143636  14.433  14.584  12.523
80599SOL    HW243637  14.583  14.563  12.523
80600SOL     OW43638  14.839  11.286   5.924
80600SOL    HW143639  14.798  11.279   6.009
80600SOL    HW243640  14.793  11.358   5.880
80601SOL     OW43641   1.304   1.286   7.430
80601SOL    HW143642   1.278   1.331   7.511
80601SOL    HW243643   1.400   1.282   7.435
80602SOL     OW43644   8.558  14.065   4.645
80602SOL    HW143645   8.571  14.158   4.661
80602SOL    HW243646   8.574  14.023   4.730
80603SOL     OW43647   0.700  11.737   3.940
80603SOL    HW143648   0.618  11.728   3.892
80603SOL    HW243649   0.743  11.813   3.900
80604SOL     OW43650  13.796   0.706  13.704
80604SOL    HW143651  13.841   0.789  13.687
80604SOL    HW243652  13.824   0.682  13.792
80605SOL     OW43653   8.863  10.142  11.475
80605SOL    HW143654   8.832  10.189  11.552
80605SOL    HW243655   8.923  10.202  11.432
80606SOL     OW43656  13.663   7.583  13.023
80606SOL    HW143657  13.609   7.624  13.091
80606SOL    HW243658  13.634   7.491  13.024
80607SOL     OW43659   6.508  13.809  12.010
80607SOL    HW143660   6.507  13.904  11.998
80607SOL    HW243661   6.541  13.796  12.099
80608SOL     OW43662  13.268  10.643  12.182
80608SOL    HW143663  13.354  10.605  12.163
80608SOL    HW243664  13.244  10.687  12.101
80609SOL     OW43665   3.240  10.300  12.752
80609SOL    HW143666   3.269  10.239  12.820
80609SOL    HW243667   3.148  10.316  12.773
80610SOL     OW43668  14.807   3.899   7.434
80610SOL    HW143669  14.736   3.959   7.414
80610SOL    HW243670  14.775   3.846   7.507
80611SOL     OW43671   3.339   8.666   2.887
80611SOL    HW143672   3.362   8.574   2.875
80611SOL    HW243673   3.243   8.668   2.877
80612SOL     OW43674   5.778   9.505  12.472
80612SOL    HW143675   5.733   9.515  12.556
80612SOL    HW243676   5.807   9.593  12.450
80613SOL     OW43677  11.797  14.385   8.323
80613SOL    HW143678  11.793  14.291   8.306
80613SOL    HW243679  11.865  14.417   8.263
80614SOL     OW43680   5.681  12.658  11.026
80614SOL    HW143681   5.722  12.652  10.940
80614SOL    HW243682   5.747  12.699  11.082
80615SOL     OW43683   1.955   5.967   2.758
80615SOL    HW143684   1.986   5.939   2.844
80615SOL    HW243685   2.011   5.921   2.695
80616SOL     OW43686  12.183   7.499   6.288
80616SOL    HW143687  12.142   7.514   6.373
80616SOL    HW243688  12.111   7.501   6.225
80617SOL     OW43689   4.915   9.326   1.416
80617SOL    HW143690   4.841   9.366   1.461
80617SOL    HW243691   4.878   9.247   1.375
80618SOL     OW43692   5.835   9.218   9.948
80618SOL    HW143693   5.920   9.233   9.909
80618SOL    HW243694   5.825   9.288  10.012
80619SOL     OW43695  14.822   1.850   2.228
80619SOL    HW143696  14.799   1.844   2.135
80619SOL    HW243697   0.016   1.911   2.230
80620SOL     OW43698   0.904   6.817   5.420
80620SOL    HW143699   0.965   6.749   5.393
80620SOL    HW243700   0.824   6.801   5.370
80621SOL     OW43701   7.297  11.216  11.868
80621SOL    HW143702   7.369  11.182  11.815
80621SOL    HW243703   7.218  11.183  11.825
80622SOL     OW43704  11.438  12.653   3.692
80622SOL    HW143705  11.361  12.684   3.739
80622SOL    HW243706  11.506  12.646   3.758
80623SOL     OW43707  13.999  11.179   1.828
80623SOL    HW143708  14.092  11.183   1.850
80623SOL    HW243709  13.996  11.145   1.739
80624SOL     OW43710   9.576   8.362   6.929
80624SOL    HW143711   9.587   8.456   6.945
80624SOL    HW243712   9.569   8.324   7.017
80625SOL     OW43713   4.636  10.747   9.347
80625SOL    HW143714   4.710  10.808   9.347
80625SOL    HW243715   4.610  10.740   9.255
80626SOL     OW43716   3.887  13.104   5.989
80626SOL    HW143717   3.822  13.041   6.021
80626SOL    HW243718   3.936  13.130   6.067
80627SOL     OW43719  14.420   5.386   9.636
80627SOL    HW143720  14.339   5.349   9.602
80627SOL    HW243721  14.423   5.357   9.727
80628SOL     OW43722   0.628   8.585  11.349
80628SOL    HW143723   0.634   8.601  11.443
80628SOL    HW243724   0.575   8.658  11.316
80629SOL     OW43725  11.344   2.490   2.960
80629SOL    HW143726  11.434   2.521   2.946
80629SOL    HW243727  11.351   2.395   2.957
80630SOL     OW43728   8.077   1.301   3.691
80630SOL    HW143729   8.160   1.319   3.736
80630SOL    HW243730   8.077   1.360   3.616
80631SOL     OW43731   0.912   0.860   9.260
80631SOL    HW143732   0.867   0.931   9.213
80631SOL    HW243733   1.004   0.870   9.236
80632SOL     OW43734   6.600   0.276   4.416
80632SOL    HW143735   6.594   0.325   4.334
80632SOL    HW243736   6.659   0.327   4.471
80633SOL     OW43737   9.536  14.056  11.723
80633SOL    HW143738   9.513  14.006  11.802
80633SOL    HW243739   9.623  14.090  11.741
80634SOL     OW43740   2.719   9.498   5.885
80634SOL    HW143741   2.725   9.411   5.844
80634SOL    HW243742   2.663   9.548   5.826
80635SOL     OW43743   0.283   0.693  13.921
80635SOL    HW143744   0.265   0.768  13.865
80635SOL    HW243745   0.253   0.617  13.871
80636SOL     OW43746   4.863   9.830   5.156
80636SOL    HW143747   4.893   9.861   5.241
80636SOL    HW243748   4.929   9.767   5.128
80637SOL     OW43749   3.342   0.034   8.771
80637SOL    HW143750   3.405   0.106   8.769
80637SOL    HW243751   3.395  14.836   8.788
80638SOL     OW43752  12.603   3.159  11.112
80638SOL    HW143753  12.641   3.204  11.036
80638SOL    HW243754  12.514   3.137  11.085
80639SOL     OW43755  14.146  13.097   1.458
80639SOL    HW143756  14.168  13.086   1.366
80639SOL    HW243757  14.163  13.190   1.476
80640SOL     OW43758   8.884   6.951   7.427
80640SOL    HW143759   8.927   6.866   7.412
80640SOL    HW243760   8.794   6.928   7.452
80641SOL     OW43761  13.296  11.575  13.950
80641SOL    HW143762  13.336  11.549  13.867
80641SOL    HW243763  13.300  11.670  13.949
80642SOL     OW43764   8.061  11.453   9.941
80642SOL    HW143765   8.038  11.361   9.955
80642SOL    HW243766   8.024  11.474   9.855
80643SOL     OW43767   9.871  12.046   9.260
80643SOL    HW143768   9.884  11.953   9.280
80643SOL    HW243769   9.856  12.047   9.165
80644SOL     OW43770  10.662  14.285  14.430
80644SOL    HW143771  10.573  14.257  14.407
80644SOL    HW243772  10.707  14.291  14.345
80645SOL     OW43773   0.472   3.511  14.307
80645SOL    HW143774   0.550   3.457  14.304
80645SOL    HW243775   0.493   3.581  14.369
80646SOL     OW43776   7.187  12.640   2.116
80646SOL    HW143777   7.198  12.545   2.127
80646SOL    HW243778   7.228  12.678   2.194
80647SOL     OW43779   1.020   0.767  14.401
80647SOL    HW143780   0.998   0.704  14.332
80647SOL    HW243781   1.063   0.839  14.355
80648SOL     OW43782   7.328   7.819   6.255
80648SOL    HW143783   7.306   7.906   6.288
80648SOL    HW243784   7.349   7.768   6.333
80649SOL     OW43785   3.158  12.061  10.263
80649SOL    HW143786   3.174  11.980  10.311
80649SOL    HW243787   3.069  12.052  10.230
80650SOL     OW43788   0.552   6.572   6.614
80650SOL    HW143789   0.628   6.628   6.634
80650SOL    HW243790   0.523   6.539   6.699
80651SOL     OW43791  12.462  12.009   8.411
80651SOL    HW143792  12.528  12.010   8.341
80651SOL    HW243793  12.419  11.924   8.402
80652SOL     OW43794   2.548  14.418  14.684
80652SOL    HW143795   2.528  14.374  14.602
80652SOL    HW243796   2.641  14.440  14.678
80653SOL     OW43797  13.155  14.789  10.964
80653SOL    HW143798  13.096  14.716  10.944
80653SOL    HW243799  13.114  14.865  10.922
80654SOL     OW43800   9.974   9.399   6.536
80654SOL    HW143801   9.908   9.391   6.468
80654SOL    HW243802  10.024   9.318   6.530
80655SOL     OW43803  10.030   8.767  12.008
80655SOL    HW143804  10.001   8.826  11.938
80655SOL    HW243805  10.051   8.826  12.081
80656SOL     OW43806  14.133   4.969   2.849
80656SOL    HW143807  14.122   4.960   2.754
80656SOL    HW243808  14.055   4.928   2.886
80657SOL     OW43809   9.558   4.183   0.507
80657SOL    HW143810   9.463   4.192   0.503
80657SOL    HW243811   9.580   4.204   0.597
80658SOL     OW43812   0.526   4.669   7.754
80658SOL    HW143813   0.442   4.629   7.731
80658SOL    HW243814   0.570   4.603   7.808
80659SOL     OW43815   8.521  13.526  13.959
80659SOL    HW143816   8.482  13.462  13.899
80659SOL    HW243817   8.609  13.541  13.924
80660SOL     OW43818  12.134   4.628  10.517
80660SOL    HW143819  12.086   4.545  10.515
80660SOL    HW243820  12.082   4.687  10.463
80661SOL     OW43821   9.538   1.921  11.671
80661SOL    HW143822   9.460   1.975  11.669
80661SOL    HW243823   9.606   1.975  11.630
80662SOL     OW43824   7.169   5.162   8.458
80662SOL    HW143825   7.128   5.248   8.456
80662SOL    HW243826   7.252   5.174   8.413
80663SOL     OW43827  10.686   0.169   3.530
80663SOL    HW143828  10.597   0.190   3.557
80663SOL    HW243829  10.681   0.078   3.500
80664SOL     OW43830  11.865   2.595   1.803
80664SOL    HW143831  11.923   2.661   1.842
80664SOL    HW243832  11.893   2.512   1.843
80665SOL     OW43833   1.216  13.462  13.119
80665SOL    HW143834   1.191  13.534  13.061
80665SOL    HW243835   1.133  13.430  13.156
80666SOL     OW43836   5.234   1.529   7.892
80666SOL    HW143837   5.140   1.546   7.886
80666SOL    HW243838   5.274   1.615   7.907
80667SOL     OW43839   1.314   5.957  14.616
80667SOL    HW143840   1.292   6.046  14.646
80667SOL    HW243841   1.279   5.953  14.527
80668SOL     OW43842  10.830   7.788  13.745
80668SOL    HW143843  10.813   7.848  13.673
80668SOL    HW243844  10.825   7.843  13.824
80669SOL     OW43845  11.768   2.333   4.973
80669SOL    HW143846  11.728   2.412   5.009
80669SOL    HW243847  11.703   2.301   4.909
80670SOL     OW43848   2.385   1.033   4.962
80670SOL    HW143849   2.426   1.078   4.889
80670SOL    HW243850   2.411   0.941   4.952
80671SOL     OW43851  12.796  14.082  12.156
80671SOL    HW143852  12.808  14.146  12.086
80671SOL    HW243853  12.732  14.123  12.215
80672SOL     OW43854   3.278   0.534   6.385
80672SOL    HW143855   3.286   0.439   6.384
80672SOL    HW243856   3.214   0.554   6.317
80673SOL     OW43857   6.050   7.964   2.236
80673SOL    HW143858   5.993   8.027   2.191
80673SOL    HW243859   6.136   7.977   2.197
80674SOL     OW43860  11.011   6.395   8.410
80674SOL    HW143861  11.014   6.406   8.505
80674SOL    HW243862  11.085   6.337   8.390
80675SOL     OW43863   2.132   5.513   0.108
80675SOL    HW143864   2.084   5.472   0.180
80675SOL    HW243865   2.114   5.458   0.032
80676SOL     OW43866  13.663   2.708   4.509
80676SOL    HW143867  13.637   2.628   4.463
80676SOL    HW243868  13.646   2.778   4.446
80677SOL     OW43869  13.735  13.973  10.928
80677SOL    HW143870  13.727  13.890  10.973
80677SOL    HW243871  13.828  13.980  10.905
80678SOL     OW43872   9.716  14.625   7.106
80678SOL    HW143873   9.784  14.655   7.045
80678SOL    HW243874   9.682  14.705   7.146
80679SOL     OW43875  12.424  11.635  10.455
80679SOL    HW143876  12.420  11.638  10.359
80679SOL    HW243877  12.380  11.715  10.483
80680SOL     OW43878   7.186   9.647   3.695
80680SOL    HW143879   7.204   9.690   3.779
80680SOL    HW243880   7.268   9.654   3.646
80681SOL     OW43881  12.380   0.887  13.848
80681SOL    HW143882  12.314   0.855  13.910
80681SOL    HW243883  12.344   0.970  13.816
80682SOL     OW43884  13.951   3.538  11.382
80682SOL    HW143885  13.877   3.546  11.442
80682SOL    HW243886  14.026   3.567  11.434
80683SOL     OW43887   7.116  11.831  12.691
80683SOL    HW143888   7.057  11.801  12.622
80683SOL    HW243889   7.079  11.794  12.771
80684SOL     OW43890  10.202   7.529  12.515
80684SOL    HW143891  10.213   7.621  12.539
80684SOL    HW243892  10.115   7.525  12.476
80685SOL     OW43893   1.807   0.138  10.105
80685SOL    HW143894   1.870   0.079  10.063
80685SOL    HW243895   1.778   0.091  10.183
80686SOL     OW43896  14.351  14.167   1.436
80686SOL    HW143897  14.259  14.165   1.409
80686SOL    HW243898  14.388  14.086   1.400
80687SOL     OW43899  14.455   1.320   3.077
80687SOL    HW143900  14.464   1.226   3.065
80687SOL    HW243901  14.527   1.358   3.026
80688SOL     OW43902  11.963  11.089   0.232
80688SOL    HW143903  12.053  11.057   0.229
80688SOL    HW243904  11.972  11.184   0.239
80689SOL     OW43905   6.766  13.946   5.294
80689SOL    HW143906   6.742  13.917   5.206
80689SOL    HW243907   6.860  13.926   5.300
80690SOL     OW43908  11.041   9.122  12.179
80690SOL    HW143909  11.115   9.138  12.120
80690SOL    HW243910  11.037   9.027  12.187
80691SOL     OW43911   9.687   6.699   0.649
80691SOL    HW143912   9.620   6.764   0.633
80691SOL    HW243913   9.654   6.647   0.723
80692SOL     OW43914   0.831   7.658   9.133
80692SOL    HW143915   0.796   7.591   9.073
80692SOL    HW243916   0.846   7.735   9.077
80693SOL     OW43917   8.988   3.287  14.311
80693SOL    HW143918   9.070   3.324  14.278
80693SOL    HW243919   8.931   3.281  14.234
80694SOL     OW43920   8.668   0.508   1.322
80694SOL    HW143921   8.598   0.494   1.259
80694SOL    HW243922   8.647   0.591   1.364
80695SOL     OW43923  14.136   6.561   7.958
80695SOL    HW143924  14.132   6.527   8.047
80695SOL    HW243925  14.050   6.542   7.921
80696SOL     OW43926   1.177   1.349  12.782
80696SOL    HW143927   1.242   1.311  12.841
80696SOL    HW243928   1.181   1.295  12.703
80697SOL     OW43929   8.750  12.842   2.345
80697SOL    HW143930   8.770  12.784   2.418
80697SOL    HW243931   8.689  12.791   2.291
80698SOL     OW43932  10.411   8.338   7.337
80698SOL    HW143933  10.425   8.299   7.424
80698SOL    HW243934  10.409   8.263   7.278
80699SOL     OW43935   4.809  10.007   7.034
80699SOL    HW143936   4.800  10.098   7.060
80699SOL    HW243937   4.720   9.973   7.033
80700SOL     OW43938  10.217   2.053   6.745
80700SOL    HW143939  10.248   2.034   6.834
80700SOL    HW243940  10.281   2.115   6.711
80701SOL     OW43941   1.796   3.152  12.201
80701SOL    HW143942   1.711   3.124  12.236
80701SOL    HW243943   1.816   3.087  12.133
80702SOL     OW43944   4.752  12.845   7.564
80702SOL    HW143945   4.720  12.886   7.644
80702SOL    HW243946   4.752  12.751   7.583
80703SOL     OW43947  13.826   8.715  14.186
80703SOL    HW143948  13.782   8.795  14.216
80703SOL    HW243949  13.873   8.683  14.263
80704SOL     OW43950   4.029  12.604   9.419
80704SOL    HW143951   4.006  12.535   9.356
80704SOL    HW243952   3.993  12.684   9.381
80705SOL     OW43953   3.677   9.409   9.320
80705SOL    HW143954   3.657   9.500   9.301
80705SOL    HW243955   3.731   9.413   9.399
80706SOL     OW43956  10.714   3.706  10.447
80706SOL    HW143957  10.797   3.664  10.471
80706SOL    HW243958  10.696   3.766  10.519
80707SOL     OW43959   9.001   2.569   3.914
80707SOL    HW143960   9.089   2.605   3.901
80707SOL    HW243961   8.989   2.508   3.842
80708SOL     OW43962  12.002   7.560   0.786
80708SOL    HW143963  11.990   7.495   0.716
80708SOL    HW243964  11.939   7.533   0.854
80709SOL     OW43965   9.736   4.623  12.376
80709SOL    HW143966   9.761   4.601  12.466
80709SOL    HW243967   9.650   4.584  12.364
80710SOL     OW43968   6.227  13.314   9.605
80710SOL    HW143969   6.207  13.230   9.645
80710SOL    HW243970   6.205  13.303   9.513
80711SOL     OW43971   0.443   5.121  12.140
80711SOL    HW143972   0.504   5.071  12.087
80711SOL    HW243973   0.375   5.150  12.078
80712SOL     OW43974   7.201  14.681  10.860
80712SOL    HW143975   7.293  14.654  10.852
80712SOL    HW243976   7.175  14.705  10.771
80713SOL     OW43977   9.033   1.739   5.193
80713SOL    HW143978   9.107   1.798   5.200
80713SOL    HW243979   8.959   1.787   5.229
80714SOL     OW43980   9.169   7.287  12.529
80714SOL    HW143981   9.210   7.291  12.615
80714SOL    HW243982   9.207   7.360  12.481
80715SOL     OW43983   7.988  14.499   9.794
80715SOL    HW143984   7.912  14.441   9.794
80715SOL    HW243985   8.062  14.442   9.773
80716SOL     OW43986   1.795  13.005   6.698
80716SOL    HW143987   1.793  12.910   6.709
80716SOL    HW243988   1.861  13.035   6.761
80717SOL     OW43989   6.560  10.135   2.858
80717SOL    HW143990   6.615  10.069   2.816
80717SOL    HW243991   6.490  10.151   2.796
80718SOL     OW43992  11.093   5.074  13.791
80718SOL    HW143993  11.008   5.086  13.750
80718SOL    HW243994  11.079   5.006  13.857
80719SOL     OW43995   2.477   3.844   8.863
80719SOL    HW143996   2.487   3.758   8.822
80719SOL    HW243997   2.543   3.845   8.932
80720SOL     OW43998   4.081   7.263  14.196
80720SOL    HW143999   4.149   7.325  14.220
80720SOL    HW244000   4.128   7.188  14.158
80721SOL     OW44001   0.106   3.965  13.216
80721SOL    HW144002   0.128   4.045  13.264
80721SOL    HW244003   0.187   3.914  13.216
80722SOL     OW44004  12.583  11.885   5.111
80722SOL    HW144005  12.503  11.911   5.064
80722SOL    HW244006  12.580  11.936   5.192
80723SOL     OW44007  13.299   1.565   7.500
80723SOL    HW144008  13.327   1.594   7.587
80723SOL    HW244009  13.210   1.532   7.513
80724SOL     OW44010  11.110   7.033   2.307
80724SOL    HW144011  11.186   7.014   2.361
80724SOL    HW244012  11.142   7.094   2.241
80725SOL     OW44013   0.161  14.823  14.765
80725SOL    HW144014   0.140  14.773  14.686
80725SOL    HW244015   0.141  14.763  14.837
80726SOL     OW44016   0.736   8.401   8.691
80726SOL    HW144017   0.727   8.315   8.649
80726SOL    HW244018   0.655   8.447   8.668
80727SOL     OW44019   0.008   6.821   4.859
80727SOL    HW144020   0.057   6.743   4.835
80727SOL    HW244021   0.074   6.885   4.886
80728SOL     OW44022  14.346   3.065   2.525
80728SOL    HW144023  14.408   3.067   2.453
80728SOL    HW244024  14.367   3.142   2.578
80729SOL     OW44025  11.894   9.379   6.699
80729SOL    HW144026  11.798   9.372   6.700
80729SOL    HW244027  11.920   9.353   6.788
80730SOL     OW44028   2.055  12.083   1.616
80730SOL    HW144029   2.085  11.997   1.589
80730SOL    HW244030   2.005  12.067   1.696
80731SOL     OW44031   2.700  12.705  11.625
80731SOL    HW144032   2.690  12.775  11.691
80731SOL    HW244033   2.621  12.652  11.634
80732SOL     OW44034  12.107   4.237  11.522
80732SOL    HW144035  12.154   4.313  11.556
80732SOL    HW244036  12.020   4.243  11.563
80733SOL     OW44037   7.436   0.979   9.016
80733SOL    HW144038   7.411   1.055   9.069
80733SOL    HW244039   7.434   0.906   9.078
80734SOL     OW44040   5.886   4.863  10.791
80734SOL    HW144041   5.828   4.789  10.775
80734SOL    HW244042   5.835   4.923  10.846
80735SOL     OW44043  14.270  14.663  12.954
80735SOL    HW144044  14.270  14.568  12.968
80735SOL    HW244045  14.360  14.683  12.927
80736SOL     OW44046   0.391  10.536  13.031
80736SOL    HW144047   0.322  10.560  13.093
80736SOL    HW244048   0.420  10.619  12.993
80737SOL     OW44049   2.231  11.826  10.203
80737SOL    HW144050   2.296  11.761  10.227
80737SOL    HW244051   2.244  11.898  10.264
80738SOL     OW44052   1.320   4.283   6.714
80738SOL    HW144053   1.309   4.202   6.664
80738SOL    HW244054   1.266   4.347   6.669
80739SOL     OW44055  13.619   3.531   0.139
80739SOL    HW144056  13.544   3.583   0.167
80739SOL    HW244057  13.637   3.473   0.213
80740SOL     OW44058  11.959   0.991  12.159
80740SOL    HW144059  11.937   0.898  12.164
80740SOL    HW244060  11.994   1.003  12.071
80741SOL     OW44061   7.388   4.673   0.985
80741SOL    HW144062   7.467   4.621   0.997
80741SOL    HW244063   7.372   4.670   0.890
80742SOL     OW44064  11.196   2.321   8.948
80742SOL    HW144065  11.146   2.239   8.950
80742SOL    HW244066  11.287   2.294   8.937
80743SOL     OW44067  13.761   1.997  14.146
80743SOL    HW144068  13.713   2.078  14.164
80743SOL    HW244069  13.792   1.969  14.232
80744SOL     OW44070   2.261   9.583   8.852
80744SOL    HW144071   2.301   9.599   8.937
80744SOL    HW244072   2.318   9.627   8.790
80745SOL     OW44073   6.436  10.423  12.896
80745SOL    HW144074   6.455  10.331  12.877
80745SOL    HW244075   6.471  10.437  12.984
80746SOL     OW44076  14.307  13.957  10.296
80746SOL    HW144077  14.377  13.960  10.230
80746SOL    HW244078  14.310  13.868  10.329
80747SOL     OW44079   4.707  10.145   8.458
80747SOL    HW144080   4.800  10.163   8.470
80747SOL    HW244081   4.698  10.125   8.365
80748SOL     OW44082  11.775   2.705   5.253
80748SOL    HW144083  11.732   2.690   5.337
80748SOL    HW244084  11.793   2.800   5.251
80749SOL     OW44085   2.373   3.696  10.871
80749SOL    HW144086   2.393   3.703  10.964
80749SOL    HW244087   2.448   3.650  10.833
80750SOL     OW44088  13.761   1.673   0.294
80750SOL    HW144089  13.782   1.616   0.220
80750SOL    HW244090  13.669   1.694   0.283
80751SOL     OW44091   5.477   2.839   7.445
80751SOL    HW144092   5.448   2.923   7.408
80751SOL    HW244093   5.506   2.861   7.534
80752SOL     OW44094   2.389  10.860  11.825
80752SOL    HW144095   2.430  10.924  11.767
80752SOL    HW244096   2.463  10.819  11.872
80753SOL     OW44097   1.157   4.122  10.666
80753SOL    HW144098   1.134   4.107  10.758
80753SOL    HW244099   1.090   4.182  10.634
80754SOL     OW44100  14.413   2.294  14.200
80754SOL    HW144101  14.340   2.298  14.262
80754SOL    HW244102  14.457   2.379  14.210
80755SOL     OW44103  13.726   4.295   8.463
80755SOL    HW144104  13.720   4.390   8.454
80755SOL    HW244105  13.820   4.276   8.457
80756SOL     OW44106  11.920  10.173   7.938
80756SOL    HW144107  11.952  10.258   7.909
80756SOL    HW244108  11.959  10.161   8.025
80757SOL     OW44109  13.404   7.522   3.153
80757SOL    HW144110  13.426   7.551   3.241
80757SOL    HW244111  13.486   7.491   3.116
80758SOL     OW44112   6.687   7.449  10.599
80758SOL    HW144113   6.669   7.420  10.688
80758SOL    HW244114   6.649   7.382  10.543
80759SOL     OW44115  11.375  10.580   0.959
80759SOL    HW144116  11.280  10.578   0.971
80759SOL    HW244117  11.393  10.666   0.921
80760SOL     OW44118   9.978   0.595  10.337
80760SOL    HW144119   9.945   0.505  10.337
80760SOL    HW244120  10.073   0.586  10.346
80761SOL     OW44121  13.749   5.952   5.544
80761SOL    HW144122  13.797   5.981   5.466
80761SOL    HW244123  13.816   5.912   5.599
80762SOL     OW44124  12.542   4.538   6.199
80762SOL    HW144125  12.597   4.553   6.275
80762SOL    HW244126  12.545   4.443   6.186
80763SOL     OW44127   4.986  12.492   2.968
80763SOL    HW144128   5.012  12.532   2.885
80763SOL    HW244129   4.952  12.565   3.021
80764SOL     OW44130  13.034   3.435   3.339
80764SOL    HW144131  13.080   3.411   3.258
80764SOL    HW244132  13.090   3.402   3.409
80765SOL     OW44133   6.991  14.106  14.012
80765SOL    HW144134   7.070  14.144  14.051
80765SOL    HW244135   6.983  14.149  13.927
80766SOL     OW44136   5.320   7.015   7.116
80766SOL    HW144137   5.251   6.989   7.177
80766SOL    HW244138   5.396   7.033   7.173
80767SOL     OW44139  10.191   5.375  12.087
80767SOL    HW144140  10.188   5.292  12.040
80767SOL    HW244141  10.267   5.368  12.144
80768SOL     OW44142   9.107   4.087   6.325
80768SOL    HW144143   9.193   4.128   6.314
80768SOL    HW244144   9.054   4.156   6.366
80769SOL     OW44145   0.847  11.175   9.497
80769SOL    HW144146   0.876  11.219   9.417
80769SOL    HW244147   0.793  11.102   9.465
80770SOL     OW44148  10.787   5.935   4.269
80770SOL    HW144149  10.789   5.844   4.239
80770SOL    HW244150  10.744   5.931   4.354
80771SOL     OW44151   9.994   1.927   5.924
80771SOL    HW144152   9.909   1.886   5.942
80771SOL    HW244153   9.996   1.940   5.829
80772SOL     OW44154   7.376  12.139  14.792
80772SOL    HW144155   7.333  12.092  14.864
80772SOL    HW244156   7.422  12.070  14.744
80773SOL     OW44157   5.562   1.526   7.418
80773SOL    HW144158   5.631   1.552   7.357
80773SOL    HW244159   5.600   1.452   7.466
80774SOL     OW44160  14.117   8.624  11.055
80774SOL    HW144161  14.152   8.713  11.059
80774SOL    HW244162  14.043   8.625  11.114
80775SOL     OW44163   5.511  14.313   5.831
80775SOL    HW144164   5.448  14.351   5.771
80775SOL    HW244165   5.585  14.374   5.831
80776SOL     OW44166   2.330  11.504   4.033
80776SOL    HW144167   2.328  11.409   4.034
80776SOL    HW244168   2.249  11.531   4.077
80777SOL     OW44169   0.627   1.614   5.407
80777SOL    HW144170   0.572   1.660   5.470
80777SOL    HW244171   0.714   1.653   5.418
80778SOL     OW44172   3.119  14.081   9.718
80778SOL    HW144173   3.052  14.046   9.660
80778SOL    HW244174   3.122  14.019   9.791
80779SOL     OW44175   8.875   8.234   2.772
80779SOL    HW144176   8.964   8.238   2.738
80779SOL    HW244177   8.854   8.140   2.773
80780SOL     OW44178  13.323  12.532  13.930
80780SOL    HW144179  13.290  12.443  13.935
80780SOL    HW244180  13.404  12.531  13.981
80781SOL     OW44181   3.618   8.257   6.159
80781SOL    HW144182   3.642   8.174   6.199
80781SOL    HW244183   3.565   8.302   6.225
80782SOL     OW44184  14.743   9.744   4.204
80782SOL    HW144185  14.711   9.832   4.225
80782SOL    HW244186  14.687   9.685   4.255
80783SOL     OW44187  13.589   4.427   0.638
80783SOL    HW144188  13.583   4.376   0.719
80783SOL    HW244189  13.573   4.518   0.666
80784SOL     OW44190  13.394  14.140  10.288
80784SOL    HW144191  13.314  14.182  10.257
80784SOL    HW244192  13.367  14.096  10.369
80785SOL     OW44193  14.063   8.932   9.456
80785SOL    HW144194  13.973   8.945   9.486
80785SOL    HW244195  14.117   8.950   9.533
80786SOL     OW44196   3.794   6.706  12.680
80786SOL    HW144197   3.890   6.702  12.671
80786SOL    HW244198   3.767   6.770  12.615
80787SOL     OW44199  10.851  12.484  14.079
80787SOL    HW144200  10.913  12.411  14.072
80787SOL    HW244201  10.861  12.515  14.169
80788SOL     OW44202  13.819   0.791  11.776
80788SOL    HW144203  13.823   0.833  11.690
80788SOL    HW244204  13.729   0.759  11.783
80789SOL     OW44205   6.664   0.638  11.419
80789SOL    HW144206   6.723   0.626  11.494
80789SOL    HW244207   6.600   0.567  11.427
80790SOL     OW44208   2.376   9.059   0.108
80790SOL    HW144209   2.397   9.006   0.185
80790SOL    HW244210   2.305   9.116   0.137
80791SOL     OW44211   8.840   7.770   4.198
80791SOL    HW144212   8.930   7.762   4.230
80791SOL    HW244213   8.788   7.721   4.262
80792SOL     OW44214  11.417   9.931  10.011
80792SOL    HW144215  11.419   9.899   9.921
80792SOL    HW244216  11.409  10.026  10.003
80793SOL     OW44217   2.442   2.586  10.277
80793SOL    HW144218   2.452   2.675  10.310
80793SOL    HW244219   2.404   2.538  10.351
80794SOL     OW44220   3.744  10.881  14.878
80794SOL    HW144221   3.729  10.794   0.035
80794SOL    HW244222   3.801  10.865  14.802
80795SOL     OW44223   7.497  11.281  14.829
80795SOL    HW144224   7.470  11.342  14.759
80795SOL    HW244225   7.549  11.335   0.008
80796SOL     OW44226  13.223   3.976   0.735
80796SOL    HW144227  13.128   3.973   0.723
80796SOL    HW244228  13.243   3.896   0.784
80797SOL     OW44229   5.493   8.509   2.642
80797SOL    HW144230   5.462   8.504   2.552
80797SOL    HW244231   5.414   8.500   2.695
80798SOL     OW44232   3.387   5.945   2.950
80798SOL    HW144233   3.459   5.971   2.892
80798SOL    HW244234   3.345   6.027   2.975
80799SOL     OW44235   5.945  14.467  13.703
80799SOL    HW144236   5.902  14.552  13.697
80799SOL    HW244237   5.884  14.412  13.751
80800SOL     OW44238   6.319   3.961  11.357
80800SOL    HW144239   6.333   3.933  11.448
80800SOL    HW244240   6.261   3.896  11.320
80801SOL     OW44241  10.702   9.649  11.524
80801SOL    HW144242  10.758   9.580  11.561
80801SOL    HW244243  10.763   9.720  11.504
80802SOL     OW44244  12.562   8.120  11.375
80802SOL    HW144245  12.614   8.178  11.430
80802SOL    HW244246  12.627   8.075  11.321
80803SOL     OW44247   1.264   2.502   0.549
80803SOL    HW144248   1.232   2.426   0.598
80803SOL    HW244249   1.360   2.491   0.548
80804SOL     OW44250  10.277   5.383  11.680
80804SOL    HW144251  10.290   5.359  11.588
80804SOL    HW244252  10.260   5.477  11.678
80805SOL     OW44253  11.993  10.831  11.729
80805SOL    HW144254  11.931  10.808  11.798
80805SOL    HW244255  12.059  10.762  11.732
80806SOL     OW44256   9.571  14.426   1.952
80806SOL    HW144257   9.541  14.508   1.991
80806SOL    HW244258   9.492  14.387   1.915
80807SOL     OW44259   2.967  14.113   9.102
80807SOL    HW144260   2.911  14.121   9.179
80807SOL    HW244261   2.918  14.157   9.033
80808SOL     OW44262   1.815   9.965   3.995
80808SOL    HW144263   1.746  10.031   3.986
80808SOL    HW244264   1.883  10.008   4.048
80809SOL     OW44265   8.106  12.629   2.246
80809SOL    HW144266   8.169  12.668   2.186
80809SOL    HW244267   8.050  12.575   2.190
80810SOL     OW44268   8.454   2.709  12.331
80810SOL    HW144269   8.368   2.750  12.345
80810SOL    HW244270   8.445   2.663  12.247
80811SOL     OW44271   7.806  13.278   3.113
80811SOL    HW144272   7.732  13.339   3.111
80811SOL    HW244273   7.853  13.294   3.031
80812SOL     OW44274  13.541  10.758   2.534
80812SOL    HW144275  13.560  10.678   2.483
80812SOL    HW244276  13.548  10.730   2.625
80813SOL     OW44277   1.597   0.840   9.510
80813SOL    HW144278   1.662   0.848   9.579
80813SOL    HW244279   1.577   0.931   9.486
80814SOL     OW44280   0.704   7.490   3.898
80814SOL    HW144281   0.694   7.494   3.803
80814SOL    HW244282   0.710   7.396   3.917
80815SOL     OW44283  13.439   7.080   4.722
80815SOL    HW144284  13.529   7.057   4.746
80815SOL    HW244285  13.428   7.044   4.634
80816SOL     OW44286   9.446   1.525  11.458
80816SOL    HW144287   9.390   1.596  11.425
80816SOL    HW244288   9.454   1.465  11.384
80817SOL     OW44289   5.833  14.601   4.577
80817SOL    HW144290   5.745  14.638   4.581
80817SOL    HW244291   5.819  14.508   4.559
80818SOL     OW44292  14.087  11.460   8.077
80818SOL    HW144293  14.030  11.397   8.032
80818SOL    HW244294  14.140  11.498   8.007
80819SOL     OW44295   4.347  12.522   7.079
80819SOL    HW144296   4.303  12.482   7.004
80819SOL    HW244297   4.331  12.461   7.152
80820SOL     OW44298   8.690  11.147   7.038
80820SOL    HW144299   8.605  11.183   7.064
80820SOL    HW244300   8.732  11.123   7.121
80821SOL     OW44301   8.062  14.641   8.405
80821SOL    HW144302   8.039  14.591   8.483
80821SOL    HW244303   8.090  14.726   8.438
80822SOL     OW44304   9.751   9.634   2.427
80822SOL    HW144305   9.779   9.658   2.515
80822SOL    HW244306   9.775   9.542   2.418
80823SOL     OW44307   5.413   4.903   5.633
80823SOL    HW144308   5.387   4.994   5.623
80823SOL    HW244309   5.449   4.897   5.721
80824SOL     OW44310   1.232  10.439  14.822
80824SOL    HW144311   1.278  10.433   0.026
80824SOL    HW244312   1.301  10.449  14.757
80825SOL     OW44313   2.433   6.336   6.935
80825SOL    HW144314   2.510   6.378   6.896
80825SOL    HW244315   2.468   6.287   7.009
80826SOL     OW44316  14.220   8.186  11.620
80826SOL    HW144317  14.254   8.112  11.670
80826SOL    HW244318  14.132   8.200  11.655
80827SOL     OW44319   8.536  14.595  11.864
80827SOL    HW144320   8.538  14.505  11.832
80827SOL    HW244321   8.449  14.627  11.840
80828SOL     OW44322  13.940  12.567  12.598
80828SOL    HW144323  13.905  12.478  12.604
80828SOL    HW244324  13.888  12.618  12.660
80829SOL     OW44325   8.083  10.783  10.865
80829SOL    HW144326   8.013  10.757  10.925
80829SOL    HW244327   8.038  10.834  10.797
80830SOL     OW44328   7.968   5.703  10.381
80830SOL    HW144329   7.909   5.758  10.330
80830SOL    HW244330   8.055   5.739  10.364
80831SOL     OW44331   8.106   4.391  13.524
80831SOL    HW144332   8.011   4.387  13.523
80831SOL    HW244333   8.134   4.319  13.468
80832SOL     OW44334   7.111   3.421   2.649
80832SOL    HW144335   7.068   3.503   2.671
80832SOL    HW244336   7.144   3.434   2.560
80833SOL     OW44337   2.775   8.228   0.196
80833SOL    HW144338   2.819   8.257   0.115
80833SOL    HW244339   2.794   8.134   0.201
80834SOL     OW44340  10.925   1.512   7.566
80834SOL    HW144341  10.835   1.526   7.536
80834SOL    HW244342  10.932   1.417   7.575
80835SOL     OW44343   6.278   2.525   0.306
80835SOL    HW144344   6.358   2.563   0.342
80835SOL    HW244345   6.304   2.438   0.277
80836SOL     OW44346  14.827   4.727   2.929
80836SOL    HW144347  14.736   4.737   2.958
80836SOL    HW244348  14.856   4.817   2.911
80837SOL     OW44349   7.884  14.115   2.826
80837SOL    HW144350   7.906  14.138   2.916
80837SOL    HW244351   7.795  14.146   2.814
80838SOL     OW44352   5.752   1.232   6.488
80838SOL    HW144353   5.730   1.183   6.409
80838SOL    HW244354   5.686   1.301   6.494
80839SOL     OW44355   4.040   7.010   8.191
80839SOL    HW144356   3.981   6.937   8.172
80839SOL    HW244357   4.055   7.052   8.106
80840SOL     OW44358   0.649   1.669  14.552
80840SOL    HW144359   0.650   1.573  14.560
80840SOL    HW244360   0.556   1.691  14.551
80841SOL     OW44361  13.152   2.877  13.697
80841SOL    HW144362  13.105   2.815  13.641
80841SOL    HW244363  13.175   2.950  13.639
80842SOL     OW44364  13.007   9.524   3.804
80842SOL    HW144365  13.071   9.566   3.747
80842SOL    HW244366  12.954   9.470   3.744
80843SOL     OW44367  13.207   6.305  14.736
80843SOL    HW144368  13.246   6.392  14.748
80843SOL    HW244369  13.266   6.262  14.674
80844SOL     OW44370  11.009   8.399  12.523
80844SOL    HW144371  11.036   8.399  12.615
80844SOL    HW244372  10.914   8.403  12.526
80845SOL     OW44373   0.303   8.273   2.860
80845SOL    HW144374   0.306   8.278   2.955
80845SOL    HW244375   0.211   8.288   2.838
80846SOL     OW44376   3.349   7.824   2.477
80846SOL    HW144377   3.285   7.895   2.471
80846SOL    HW244378   3.411   7.854   2.544
80847SOL     OW44379   2.597   2.668   0.765
80847SOL    HW144380   2.664   2.695   0.828
80847SOL    HW244381   2.525   2.636   0.819
80848SOL     OW44382   8.852  11.106   0.127
80848SOL    HW144383   8.782  11.108   0.192
80848SOL    HW244384   8.834  11.180   0.069
80849SOL     OW44385   2.392  11.667  12.794
80849SOL    HW144386   2.439  11.685  12.712
80849SOL    HW244387   2.321  11.608  12.768
80850SOL     OW44388   1.482  13.790   7.419
80850SOL    HW144389   1.492  13.698   7.444
80850SOL    HW244390   1.496  13.790   7.324
80851SOL     OW44391   8.161   0.431   2.943
80851SOL    HW144392   8.084   0.488   2.944
80851SOL    HW244393   8.229   0.482   2.986
80852SOL     OW44394  12.365   4.100  12.278
80852SOL    HW144395  12.426   4.083  12.350
80852SOL    HW244396  12.278   4.084  12.316
80853SOL     OW44397  12.865   4.482   0.666
80853SOL    HW144398  12.774   4.496   0.639
80853SOL    HW244399  12.892   4.402   0.622
80854SOL     OW44400  11.528   7.507   0.801
80854SOL    HW144401  11.440   7.503   0.837
80854SOL    HW244402  11.575   7.566   0.860
80855SOL     OW44403   1.892  12.342   1.502
80855SOL    HW144404   1.899  12.322   1.595
80855SOL    HW244405   1.958  12.287   1.460
80856SOL     OW44406  10.760  13.959   9.541
80856SOL    HW144407  10.806  13.908   9.474
80856SOL    HW244408  10.705  14.020   9.492
80857SOL     OW44409   6.994  10.156  10.681
80857SOL    HW144410   6.939  10.194  10.750
80857SOL    HW244411   7.009  10.066  10.710
80858SOL     OW44412  11.062   8.725   8.490
80858SOL    HW144413  10.996   8.744   8.556
80858SOL    HW244414  11.143   8.760   8.526
80859SOL     OW44415   4.289  12.149  11.066
80859SOL    HW144416   4.290  12.238  11.101
80859SOL    HW244417   4.355  12.150  10.996
80860SOL     OW44418  12.210  11.078  12.001
80860SOL    HW144419  12.145  11.099  11.934
80860SOL    HW244420  12.237  11.163  12.035
80861SOL     OW44421   3.104   9.631   8.482
80861SOL    HW144422   3.187   9.598   8.514
80861SOL    HW244423   3.120   9.724   8.465
80862SOL     OW44424   6.748   0.734   8.907
80862SOL    HW144425   6.653   0.735   8.924
80862SOL    HW244426   6.758   0.787   8.828
80863SOL     OW44427  11.511   8.660  13.463
80863SOL    HW144428  11.543   8.637  13.550
80863SOL    HW244429  11.439   8.722  13.480
80864SOL     OW44430   6.099   9.042   2.179
80864SOL    HW144431   6.190   9.071   2.172
80864SOL    HW244432   6.059   9.099   2.244
80865SOL     OW44433  11.511   5.686  13.034
80865SOL    HW144434  11.560   5.677  12.952
80865SOL    HW244435  11.561   5.634  13.097
80866SOL     OW44436   9.751   6.097  14.079
80866SOL    HW144437   9.742   6.003  14.060
80866SOL    HW244438   9.708   6.109  14.163
80867SOL     OW44439   5.464  10.623   5.953
80867SOL    HW144440   5.515  10.543   5.960
80867SOL    HW244441   5.523  10.686   5.912
80868SOL     OW44442   8.805   5.508   8.760
80868SOL    HW144443   8.752   5.564   8.817
80868SOL    HW244444   8.807   5.553   8.676
80869SOL     OW44445  13.999   0.306   4.769
80869SOL    HW144446  14.071   0.251   4.740
80869SOL    HW244447  14.009   0.387   4.719
80870SOL     OW44448   2.800   7.138  13.690
80870SOL    HW144449   2.795   7.233  13.692
80870SOL    HW244450   2.763   7.113  13.606
80871SOL     OW44451  11.220   1.173  10.859
80871SOL    HW144452  11.194   1.191  10.949
80871SOL    HW244453  11.305   1.215  10.849
80872SOL     OW44454  10.134   1.025   6.613
80872SOL    HW144455  10.230   1.016   6.618
80872SOL    HW244456  10.121   1.106   6.563
80873SOL     OW44457  13.421   8.210   9.234
80873SOL    HW144458  13.332   8.230   9.264
80873SOL    HW244459  13.449   8.289   9.188
80874SOL     OW44460  10.294   8.052   7.300
80874SOL    HW144461  10.336   7.999   7.232
80874SOL    HW244462  10.216   8.086   7.258
80875SOL     OW44463  13.552  12.185   7.224
80875SOL    HW144464  13.583  12.272   7.200
80875SOL    HW244465  13.607  12.125   7.174
80876SOL     OW44466   9.641   0.278   3.980
80876SOL    HW144467   9.724   0.309   4.016
80876SOL    HW244468   9.632   0.325   3.897
80877SOL     OW44469   6.675   4.903   0.973
80877SOL    HW144470   6.590   4.918   1.015
80877SOL    HW244471   6.695   4.986   0.930
80878SOL     OW44472   7.335   0.387   5.983
80878SOL    HW144473   7.240   0.380   5.994
80878SOL    HW244474   7.369   0.305   6.020
80879SOL     OW44475  12.679   9.991   5.979
80879SOL    HW144476  12.661  10.044   6.057
80879SOL    HW244477  12.761   9.945   6.000
80880SOL     OW44478   3.815   2.446   1.484
80880SOL    HW144479   3.780   2.421   1.570
80880SOL    HW244480   3.737   2.460   1.430
80881SOL     OW44481   2.859   0.830   9.969
80881SOL    HW144482   2.857   0.768  10.041
80881SOL    HW244483   2.868   0.775   9.891
80882SOL     OW44484   5.682  10.795  12.140
80882SOL    HW144485   5.743  10.857  12.181
80882SOL    HW244486   5.600  10.845  12.132
80883SOL     OW44487  12.009  10.764  13.634
80883SOL    HW144488  11.930  10.776  13.581
80883SOL    HW244489  12.072  10.827  13.598
80884SOL     OW44490  12.915  13.949  11.509
80884SOL    HW144491  12.967  13.989  11.440
80884SOL    HW244492  12.970  13.954  11.587
80885SOL     OW44493   7.071   8.752   1.562
80885SOL    HW144494   7.144   8.709   1.516
80885SOL    HW244495   7.071   8.841   1.529
80886SOL     OW44496   3.331   4.172   1.493
80886SOL    HW144497   3.326   4.266   1.475
80886SOL    HW244498   3.389   4.138   1.425
80887SOL     OW44499   8.962   7.893   8.449
80887SOL    HW144500   9.037   7.835   8.433
80887SOL    HW244501   8.944   7.933   8.364
80888SOL     OW44502  13.817   8.236  14.512
80888SOL    HW144503  13.897   8.219  14.562
80888SOL    HW244504  13.800   8.155  14.464
80889SOL     OW44505   7.769   0.178  11.215
80889SOL    HW144506   7.729   0.256  11.254
80889SOL    HW244507   7.731   0.174  11.128
80890SOL     OW44508   7.790  14.659   7.153
80890SOL    HW144509   7.826  14.639   7.239
80890SOL    HW244510   7.867  14.677   7.099
80891SOL     OW44511  12.741   0.230   1.708
80891SOL    HW144512  12.653   0.245   1.744
80891SOL    HW244513  12.798   0.287   1.760
80892SOL     OW44514   4.306   1.066   9.592
80892SOL    HW144515   4.337   1.056   9.682
80892SOL    HW244516   4.230   1.124   9.599
80893SOL     OW44517   7.793  10.662   4.669
80893SOL    HW144518   7.793  10.707   4.585
80893SOL    HW244519   7.774  10.730   4.734
80894SOL     OW44520  14.444   8.534   6.647
80894SOL    HW144521  14.384   8.460   6.643
80894SOL    HW244522  14.525   8.498   6.682
80895SOL     OW44523   8.779   2.169   9.355
80895SOL    HW144524   8.773   2.158   9.450
80895SOL    HW244525   8.694   2.140   9.323
80896SOL     OW44526  10.929  13.222   0.929
80896SOL    HW144527  11.013  13.185   0.954
80896SOL    HW244528  10.931  13.225   0.833
80897SOL     OW44529  13.969   3.054   6.230
80897SOL    HW144530  13.967   2.988   6.299
80897SOL    HW244531  13.924   3.130   6.268
80898SOL     OW44532   9.883   2.192   5.237
80898SOL    HW144533   9.825   2.116   5.227
80898SOL    HW244534   9.954   2.176   5.175
80899SOL     OW44535   4.098   0.607  11.502
80899SOL    HW144536   4.106   0.628  11.595
80899SOL    HW244537   4.004   0.599  11.488
80900SOL     OW44538  12.738   9.665   9.750
80900SOL    HW144539  12.715   9.577   9.781
80900SOL    HW244540  12.819   9.652   9.701
80901SOL     OW44541   2.057  10.726   7.469
80901SOL    HW144542   2.107  10.690   7.396
80901SOL    HW244543   2.047  10.819   7.448
80902SOL     OW44544   6.975  12.850   3.911
80902SOL    HW144545   6.969  12.757   3.887
80902SOL    HW244546   6.931  12.855   3.996
80903SOL     OW44547   8.375   5.470  10.098
80903SOL    HW144548   8.470   5.476  10.087
80903SOL    HW244549   8.340   5.548  10.054
80904SOL     OW44550  10.397   7.433   5.873
80904SOL    HW144551  10.406   7.384   5.791
80904SOL    HW244552  10.338   7.505   5.851
80905SOL     OW44553  10.616   7.592  12.517
80905SOL    HW144554  10.632   7.548  12.601
80905SOL    HW244555  10.566   7.527  12.467
80906SOL     OW44556   0.261   0.379  13.074
80906SOL    HW144557   0.247   0.386  13.168
80906SOL    HW244558   0.353   0.354  13.065
80907SOL     OW44559   2.315   7.292   1.290
80907SOL    HW144560   2.259   7.326   1.360
80907SOL    HW244561   2.348   7.209   1.325
80908SOL     OW44562  13.229   9.364   0.109
80908SOL    HW144563  13.256   9.276   0.083
80908SOL    HW244564  13.140   9.352   0.144
80909SOL     OW44565   8.820   5.850  11.329
80909SOL    HW144566   8.911   5.824  11.316
80909SOL    HW244567   8.785   5.863  11.241
80910SOL     OW44568  10.463   4.405  11.150
80910SOL    HW144569  10.519   4.357  11.089
80910SOL    HW244570  10.419   4.337  11.201
80911SOL     OW44571   2.718   5.625  13.617
80911SOL    HW144572   2.738   5.615  13.710
80911SOL    HW244573   2.679   5.713  13.610
80912SOL     OW44574   9.537   9.817  13.308
80912SOL    HW144575   9.556   9.897  13.356
80912SOL    HW244576   9.463   9.839  13.252
80913SOL     OW44577   1.335   0.154   5.491
80913SOL    HW144578   1.333   0.060   5.506
80913SOL    HW244579   1.281   0.167   5.413
80914SOL     OW44580   4.391  11.458   6.975
80914SOL    HW144581   4.306  11.503   6.978
80914SOL    HW244582   4.429  11.475   7.061
80915SOL     OW44583   0.765   3.306   2.606
80915SOL    HW144584   0.717   3.236   2.563
80915SOL    HW244585   0.840   3.322   2.549
80916SOL     OW44586  12.689  11.632  10.614
80916SOL    HW144587  12.609  11.651  10.566
80916SOL    HW244588  12.754  11.692  10.579
80917SOL     OW44589   3.466  14.799   6.124
80917SOL    HW144590   3.542  14.854   6.145
80917SOL    HW244591   3.419  14.790   6.207
80918SOL     OW44592  14.184   9.148   4.058
80918SOL    HW144593  14.112   9.205   4.032
80918SOL    HW244594  14.260   9.184   4.013
80919SOL     OW44595   1.082  12.022   4.660
80919SOL    HW144596   1.084  12.102   4.712
80919SOL    HW244597   1.161  11.975   4.684
80920SOL     OW44598   5.831   5.480   2.642
80920SOL    HW144599   5.769   5.410   2.664
80920SOL    HW244600   5.785   5.532   2.576
80921SOL     OW44601   2.052   6.640   2.032
80921SOL    HW144602   1.985   6.573   2.018
80921SOL    HW244603   2.107   6.635   1.954
80922SOL     OW44604   1.293  11.904  13.065
80922SOL    HW144605   1.337  11.819  13.067
80922SOL    HW244606   1.310  11.941  13.152
80923SOL     OW44607   6.897   6.665   8.155
80923SOL    HW144608   6.910   6.750   8.113
80923SOL    HW244609   6.965   6.609   8.118
80924SOL     OW44610   5.887   0.167   7.040
80924SOL    HW144611   5.812   0.208   6.997
80924SOL    HW244612   5.956   0.233   7.035
80925SOL     OW44613   2.320  14.415   8.223
80925SOL    HW144614   2.368  14.497   8.234
80925SOL    HW244615   2.233  14.442   8.193
80926SOL     OW44616   8.004   6.060   6.257
80926SOL    HW144617   7.953   6.137   6.282
80926SOL    HW244618   7.949   6.014   6.194
80927SOL     OW44619  13.956  11.703  12.210
80927SOL    HW144620  13.973  11.772  12.274
80927SOL    HW244621  13.977  11.744  12.126
80928SOL     OW44622   4.836   3.868  12.379
80928SOL    HW144623   4.790   3.894  12.299
80928SOL    HW244624   4.927   3.857  12.352
80929SOL     OW44625  11.717  11.073   4.725
80929SOL    HW144626  11.681  11.081   4.814
80929SOL    HW244627  11.693  10.984   4.698
80930SOL     OW44628  14.552   6.958   1.813
80930SOL    HW144629  14.460   6.963   1.784
80930SOL    HW244630  14.550   6.989   1.903
80931SOL     OW44631  10.056  14.105  10.025
80931SOL    HW144632   9.992  14.041   9.995
80931SOL    HW244633  10.140  14.060  10.018
80932SOL     OW44634   6.965  13.046  10.350
80932SOL    HW144635   6.935  13.137  10.346
80932SOL    HW244636   7.021  13.043  10.428
80933SOL     OW44637   0.916   6.824   4.588
80933SOL    HW144638   0.905   6.825   4.683
80933SOL    HW244639   0.872   6.904   4.558
80934SOL     OW44640   3.107  13.658   8.180
80934SOL    HW144641   3.098  13.590   8.114
80934SOL    HW244642   3.177  13.715   8.147
80935SOL     OW44643   4.027   4.637   8.225
80935SOL    HW144644   3.944   4.679   8.249
80935SOL    HW244645   4.010   4.596   8.141
80936SOL     OW44646  11.436   2.434  12.856
80936SOL    HW144647  11.429   2.378  12.934
80936SOL    HW244648  11.505   2.497  12.878
80937SOL     OW44649   9.018  11.578   8.033
80937SOL    HW144650   8.941  11.569   7.976
80937SOL    HW244651   8.983  11.612   8.115
80938SOL     OW44652   7.708   9.205  13.094
80938SOL    HW144653   7.702   9.236  13.185
80938SOL    HW244654   7.749   9.119  13.101
80939SOL     OW44655   4.287  13.255   8.347
80939SOL    HW144656   4.210  13.257   8.290
80939SOL    HW244657   4.252  13.275   8.434
80940SOL     OW44658   3.809   4.568   0.250
80940SOL    HW144659   3.891   4.533   0.286
80940SOL    HW244660   3.785   4.505   0.182
80941SOL     OW44661  10.049   0.391   2.880
80941SOL    HW144662   9.975   0.441   2.913
80941SOL    HW244663  10.052   0.312   2.935
80942SOL     OW44664   6.595   7.189   5.987
80942SOL    HW144665   6.641   7.107   5.967
80942SOL    HW244666   6.544   7.207   5.908
80943SOL     OW44667  10.974   1.108  12.413
80943SOL    HW144668  10.888   1.119  12.373
80943SOL    HW244669  10.958   1.116  12.507
80944SOL     OW44670   8.319   3.888   3.377
80944SOL    HW144671   8.398   3.840   3.403
80944SOL    HW244672   8.337   3.979   3.400
80945SOL     OW44673  13.577   3.750   4.675
80945SOL    HW144674  13.617   3.668   4.705
80945SOL    HW244675  13.518   3.776   4.746
80946SOL     OW44676   9.962  13.702   8.447
80946SOL    HW144677  10.035  13.642   8.461
80946SOL    HW244678   9.884  13.649   8.465
80947SOL     OW44679   0.829   9.016   9.747
80947SOL    HW144680   0.883   9.087   9.782
80947SOL    HW244681   0.872   8.936   9.777
80948SOL     OW44682  13.303   9.999   2.314
80948SOL    HW144683  13.290   9.918   2.364
80948SOL    HW244684  13.276   9.977   2.225
80949SOL     OW44685   7.332   3.966   4.136
80949SOL    HW144686   7.373   4.004   4.213
80949SOL    HW244687   7.360   4.023   4.064
80950SOL     OW44688   4.873  14.255   1.689
80950SOL    HW144689   4.915  14.189   1.744
80950SOL    HW244690   4.941  14.278   1.625
80951SOL     OW44691   2.005  12.728   1.084
80951SOL    HW144692   2.039  12.644   1.116
80951SOL    HW244693   2.069  12.755   1.018
80952SOL     OW44694   7.825  14.827   4.558
80952SOL    HW144695   7.866  14.798   4.476
80952SOL    HW244696   7.805   0.039   4.543
80953SOL     OW44697   3.786  14.750  14.674
80953SOL    HW144698   3.849  14.783  14.610
80953SOL    HW244699   3.787  14.815  14.744
80954SOL     OW44700   8.775  12.553   2.296
80954SOL    HW144701   8.777  12.593   2.383
80954SOL    HW244702   8.785  12.459   2.313
80955SOL     OW44703   3.541   1.567   8.456
80955SOL    HW144704   3.624   1.525   8.478
80955SOL    HW244705   3.517   1.531   8.371
80956SOL     OW44706   2.949   1.408   3.028
80956SOL    HW144707   2.966   1.503   3.024
80956SOL    HW244708   2.940   1.382   2.936
80957SOL     OW44709   7.077   2.550   5.296
80957SOL    HW144710   7.060   2.496   5.219
80957SOL    HW244711   7.141   2.615   5.267
80958SOL     OW44712   9.757   6.110  14.661
80958SOL    HW144713   9.805   6.121  14.743
80958SOL    HW244714   9.823   6.121  14.593
80959SOL     OW44715   6.934   1.188   0.285
80959SOL    HW144716   6.939   1.274   0.242
80959SOL    HW244717   6.943   1.208   0.378
80960SOL     OW44718  10.398  13.574  13.116
80960SOL    HW144719  10.410  13.532  13.201
80960SOL    HW244720  10.327  13.525  13.074
80961SOL     OW44721   7.399   9.135   2.263
80961SOL    HW144722   7.453   9.149   2.185
80961SOL    HW244723   7.417   9.210   2.319
80962SOL     OW44724   3.805   6.255   4.716
80962SOL    HW144725   3.803   6.347   4.687
80962SOL    HW244726   3.897   6.231   4.712
80963SOL     OW44727  11.351   0.437   3.603
80963SOL    HW144728  11.303   0.355   3.615
80963SOL    HW244729  11.442   0.409   3.589
80964SOL     OW44730   2.926   4.700   3.084
80964SOL    HW144731   2.931   4.619   3.033
80964SOL    HW244732   2.867   4.756   3.034
80965SOL     OW44733   6.495  11.087   5.752
80965SOL    HW144734   6.562  11.037   5.799
80965SOL    HW244735   6.540  11.169   5.729
80966SOL     OW44736   3.935  12.693   2.242
80966SOL    HW144737   3.892  12.623   2.193
80966SOL    HW244738   3.876  12.712   2.315
80967SOL     OW44739   5.491   2.944   2.437
80967SOL    HW144740   5.526   2.906   2.356
80967SOL    HW244741   5.450   2.870   2.482
80968SOL     OW44742  14.725   4.454   5.150
80968SOL    HW144743  14.766   4.379   5.106
80968SOL    HW244744  14.756   4.449   5.240
80969SOL     OW44745  11.887   7.277  10.247
80969SOL    HW144746  11.926   7.222  10.315
80969SOL    HW244747  11.875   7.362  10.290
80970SOL     OW44748   0.154   3.858  14.624
80970SOL    HW144749   0.213   3.911  14.570
80970SOL    HW244750   0.072   3.907  14.625
80971SOL     OW44751   3.374   6.594   2.646
80971SOL    HW144752   3.433   6.588   2.571
80971SOL    HW244753   3.370   6.687   2.666
80972SOL     OW44754  14.710  10.075  11.275
80972SOL    HW144755  14.762   9.994  11.268
80972SOL    HW244756  14.622  10.045  11.298
80973SOL     OW44757   5.439   0.515   0.793
80973SOL    HW144758   5.449   0.420   0.782
80973SOL    HW244759   5.382   0.524   0.870
80974SOL     OW44760   8.199   9.581  13.945
80974SOL    HW144761   8.159   9.646  14.002
80974SOL    HW244762   8.181   9.612  13.856
80975SOL     OW44763  11.828   1.283   9.277
80975SOL    HW144764  11.872   1.207   9.238
80975SOL    HW244765  11.891   1.317   9.341
80976SOL     OW44766   9.348   6.459   7.865
80976SOL    HW144767   9.293   6.386   7.837
80976SOL    HW244768   9.390   6.428   7.945
80977SOL     OW44769   1.120  10.658  14.644
80977SOL    HW144770   1.102  10.619  14.729
80977SOL    HW244771   1.034  10.664  14.602
80978SOL     OW44772  14.237  10.360  14.699
80978SOL    HW144773  14.329  10.381  14.683
80978SOL    HW244774  14.236  10.265  14.710
80979SOL     OW44775  11.381  10.464  13.110
80979SOL    HW144776  11.349  10.383  13.070
80979SOL    HW244777  11.421  10.436  13.193
80980SOL     OW44778   8.342  13.774   0.793
80980SOL    HW144779   8.385  13.842   0.742
80980SOL    HW244780   8.258  13.761   0.750
80981SOL     OW44781   9.283  14.720  10.436
80981SOL    HW144782   9.371  14.756  10.421
80981SOL    HW244783   9.289  14.676  10.520
80982SOL     OW44784  11.899   0.203   1.765
80982SOL    HW144785  11.921   0.290   1.733
80982SOL    HW244786  11.923   0.205   1.858
80983SOL     OW44787  12.284   7.951  14.168
80983SOL    HW144788  12.201   7.907  14.186
80983SOL    HW244789  12.331   7.948  14.251
80984SOL     OW44790   0.494   9.183   6.000
80984SOL    HW144791   0.399   9.193   6.006
80984SOL    HW244792   0.529   9.247   6.061
80985SOL     OW44793   1.393   1.830   0.843
80985SOL    HW144794   1.460   1.898   0.849
80985SOL    HW244795   1.341   1.840   0.922
80986SOL     OW44796  14.643   0.454  11.573
80986SOL    HW144797  14.695   0.374  11.585
80986SOL    HW244798  14.705   0.518  11.539
80987SOL     OW44799   0.844   0.856   2.155
80987SOL    HW144800   0.880   0.779   2.111
80987SOL    HW244801   0.913   0.882   2.217
80988SOL     OW44802  13.953  11.954   9.736
80988SOL    HW144803  13.858  11.947   9.746
80988SOL    HW244804  13.975  11.893   9.666
80989SOL     OW44805   1.406  10.396  10.163
80989SOL    HW144806   1.430  10.328  10.227
80989SOL    HW244807   1.400  10.350  10.080
80990SOL     OW44808   8.423   9.421   7.622
80990SOL    HW144809   8.333   9.450   7.640
80990SOL    HW244810   8.413   9.337   7.578
80991SOL     OW44811  11.012  12.933   9.804
80991SOL    HW144812  11.031  12.976   9.721
80991SOL    HW244813  10.917  12.940   9.814
80992SOL     OW44814  11.007   0.238  12.237
80992SOL    HW144815  10.935   0.191  12.278
80992SOL    HW244816  11.015   0.198  12.150
80993SOL     OW44817  13.445   4.464   9.378
80993SOL    HW144818  13.537   4.455   9.406
80993SOL    HW244819  13.445   4.542   9.322
80994SOL     OW44820   8.855  11.804  14.205
80994SOL    HW144821   8.859  11.878  14.144
80994SOL    HW244822   8.918  11.825  14.274
80995SOL     OW44823   3.538   2.411   2.654
80995SOL    HW144824   3.489   2.401   2.573
80995SOL    HW244825   3.551   2.321   2.685
80996SOL     OW44826   7.159   9.227  13.240
80996SOL    HW144827   7.202   9.302  13.198
80996SOL    HW244828   7.085   9.266  13.287
80997SOL     OW44829  14.730   6.876  14.097
80997SOL    HW144830  14.772   6.797  14.129
80997SOL    HW244831  14.714   6.929  14.175
80998SOL     OW44832  14.006   8.118  14.209
80998SOL    HW144833  13.913   8.102  14.196
80998SOL    HW244834  14.015   8.213  14.208
80999SOL     OW44835   9.464  11.428   7.371
80999SOL    HW144836   9.368  11.421   7.365
80999SOL    HW244837   9.493  11.436   7.280
81000SOL     OW44838   5.785   8.027  10.051
81000SOL    HW144839   5.713   7.986  10.002
81000SOL    HW244840   5.838   8.069   9.983
81001SOL     OW44841   6.969   5.653   0.874
81001SOL    HW144842   6.942   5.744   0.881
81001SOL    HW244843   6.914   5.617   0.804
81002SOL     OW44844   9.476  12.005  12.177
81002SOL    HW144845   9.520  12.088  12.196
81002SOL    HW244846   9.542  11.951  12.134
81003SOL     OW44847   3.970   6.359  10.223
81003SOL    HW144848   4.022   6.341  10.144
81003SOL    HW244849   3.880   6.341  10.197
81004SOL     OW44850   4.486  13.210   9.754
81004SOL    HW144851   4.510  13.118   9.750
81004SOL    HW244852   4.422  13.221   9.683
81005SOL     OW44853   8.644   3.147   6.816
81005SOL    HW144854   8.673   3.076   6.759
81005SOL    HW244855   8.549   3.143   6.812
81006SOL     OW44856   9.626   9.204  13.709
81006SOL    HW144857   9.657   9.223  13.621
81006SOL    HW244858   9.549   9.149  13.696
81007SOL     OW44859   5.711   2.740   8.299
81007SOL    HW144860   5.730   2.777   8.212
81007SOL    HW244861   5.685   2.816   8.351
81008SOL     OW44862   1.008  11.761   2.014
81008SOL    HW144863   0.991  11.692   1.950
81008SOL    HW244864   1.104  11.765   2.020
81009SOL     OW44865   6.420  13.651   8.397
81009SOL    HW144866   6.445  13.569   8.356
81009SOL    HW244867   6.502  13.698   8.411
81010SOL     OW44868   9.003   6.843   7.739
81010SOL    HW144869   8.909   6.852   7.723
81010SOL    HW244870   9.029   6.925   7.780
81011SOL     OW44871   4.811   1.470  13.857
81011SOL    HW144872   4.794   1.473  13.763
81011SOL    HW244873   4.871   1.543  13.873
81012SOL     OW44874   5.098   4.074   8.882
81012SOL    HW144875   5.190   4.090   8.899
81012SOL    HW244876   5.067   4.152   8.836
81013SOL     OW44877   8.743   3.575  10.328
81013SOL    HW144878   8.725   3.609  10.416
81013SOL    HW244879   8.734   3.480  10.337
81014SOL     OW44880   5.057   4.288   5.013
81014SOL    HW144881   4.965   4.276   4.991
81014SOL    HW244882   5.095   4.333   4.937
81015SOL     OW44883  12.333   3.080   5.705
81015SOL    HW144884  12.299   3.018   5.641
81015SOL    HW244885  12.267   3.149   5.710
81016SOL     OW44886   1.918   5.867  13.153
81016SOL    HW144887   1.910   5.883  13.059
81016SOL    HW244888   2.000   5.819  13.162
81017SOL     OW44889   1.013   6.626  10.902
81017SOL    HW144890   1.045   6.591  10.819
81017SOL    HW244891   0.941   6.568  10.926
81018SOL     OW44892   8.481   9.454  13.181
81018SOL    HW144893   8.418   9.440  13.110
81018SOL    HW244894   8.565   9.427  13.143
81019SOL     OW44895  10.655  13.797   9.236
81019SOL    HW144896  10.641  13.703   9.249
81019SOL    HW244897  10.569  13.836   9.256
81020SOL     OW44898   3.292   3.779   2.581
81020SOL    HW144899   3.362   3.731   2.624
81020SOL    HW244900   3.214   3.759   2.632
81021SOL     OW44901   8.466   8.307   3.437
81021SOL    HW144902   8.499   8.239   3.378
81021SOL    HW244903   8.406   8.358   3.382
81022SOL     OW44904   6.264   2.566   0.730
81022SOL    HW144905   6.212   2.646   0.731
81022SOL    HW244906   6.264   2.538   0.639
81023SOL     OW44907  12.215   7.546   4.760
81023SOL    HW144908  12.196   7.603   4.834
81023SOL    HW244909  12.287   7.589   4.714
81024SOL     OW44910   5.581  14.807  14.231
81024SOL    HW144911   5.541  14.753  14.163
81024SOL    HW244912   5.648  14.751  14.269
81025SOL     OW44913  13.496  13.730  11.291
81025SOL    HW144914  13.553  13.689  11.356
81025SOL    HW244915  13.455  13.656  11.245
81026SOL     OW44916   4.796   6.737  11.675
81026SOL    HW144917   4.732   6.798  11.636
81026SOL    HW244918   4.836   6.787  11.745
81027SOL     OW44919   5.401   9.538   6.121
81027SOL    HW144920   5.401   9.445   6.146
81027SOL    HW244921   5.476   9.575   6.168
81028SOL     OW44922   5.014  11.652  10.523
81028SOL    HW144923   5.038  11.740  10.493
81028SOL    HW244924   5.068  11.593  10.471
81029SOL     OW44925   3.322   1.260   6.768
81029SOL    HW144926   3.336   1.179   6.817
81029SOL    HW244927   3.407   1.280   6.729
81030SOL     OW44928   3.292   2.266   7.281
81030SOL    HW144929   3.252   2.196   7.229
81030SOL    HW244930   3.243   2.265   7.363
81031SOL     OW44931  11.373   8.333   4.974
81031SOL    HW144932  11.282   8.321   5.002
81031SOL    HW244933  11.377   8.423   4.942
81032SOL     OW44934   1.656   3.874   9.805
81032SOL    HW144935   1.605   3.940   9.758
81032SOL    HW244936   1.631   3.885   9.897
81033SOL     OW44937   1.277  13.731  14.628
81033SOL    HW144938   1.330  13.709  14.551
81033SOL    HW244939   1.329  13.797  14.674
81034SOL     OW44940   9.080  14.690   0.951
81034SOL    HW144941   8.998  14.739   0.942
81034SOL    HW244942   9.084  14.636   0.872
81035SOL     OW44943   1.595   9.943   8.306
81035SOL    HW144944   1.592   9.850   8.282
81035SOL    HW244945   1.622   9.988   8.226
81036SOL     OW44946  10.341   1.055  11.659
81036SOL    HW144947  10.268   1.007  11.699
81036SOL    HW244948  10.342   1.139  11.705
81037SOL     OW44949   1.754   3.235   4.144
81037SOL    HW144950   1.845   3.215   4.121
81037SOL    HW244951   1.705   3.223   4.063
81038SOL     OW44952   2.409   1.624  10.444
81038SOL    HW144953   2.410   1.560  10.516
81038SOL    HW244954   2.496   1.617  10.405
81039SOL     OW44955  13.958   2.156   6.293
81039SOL    HW144956  13.987   2.154   6.385
81039SOL    HW244957  14.039   2.151   6.242
81040SOL     OW44958  10.486  14.051   2.294
81040SOL    HW144959  10.470  13.956   2.298
81040SOL    HW244960  10.430  14.082   2.223
81041SOL     OW44961   9.015  14.506   8.465
81041SOL    HW144962   9.013  14.488   8.559
81041SOL    HW244963   8.928  14.541   8.446
81042SOL     OW44964   4.390  10.072   1.997
81042SOL    HW144965   4.357  10.162   1.999
81042SOL    HW244966   4.333  10.025   2.057
81043SOL     OW44967   1.450   5.806   3.942
81043SOL    HW144968   1.393   5.874   3.978
81043SOL    HW244969   1.534   5.819   3.987
81044SOL     OW44970   4.592   3.309   5.473
81044SOL    HW144971   4.624   3.398   5.492
81044SOL    HW244972   4.655   3.274   5.410
81045SOL     OW44973   2.590   3.311   9.598
81045SOL    HW144974   2.559   3.278   9.513
81045SOL    HW244975   2.543   3.259   9.663
81046SOL     OW44976   7.719  14.542   5.753
81046SOL    HW144977   7.814  14.542   5.758
81046SOL    HW244978   7.690  14.525   5.843
81047SOL     OW44979   0.267   8.779  14.279
81047SOL    HW144980   0.285   8.730  14.199
81047SOL    HW244981   0.173   8.801  14.273
81048SOL     OW44982   6.468   2.954   7.318
81048SOL    HW144983   6.527   2.920   7.251
81048SOL    HW244984   6.457   3.047   7.297
81049SOL     OW44985  11.673   3.175  13.209
81049SOL    HW144986  11.750   3.232  13.203
81049SOL    HW244987  11.662   3.160  13.303
81050SOL     OW44988   6.543   9.734   4.747
81050SOL    HW144989   6.488   9.780   4.684
81050SOL    HW244990   6.628   9.777   4.741
81051SOL     OW44991  11.896   7.513   5.227
81051SOL    HW144992  11.950   7.480   5.156
81051SOL    HW244993  11.837   7.441   5.248
81052SOL     OW44994  12.464   3.815   6.685
81052SOL    HW144995  12.496   3.884   6.628
81052SOL    HW244996  12.421   3.753   6.626
81053SOL     OW44997   5.629   2.934   6.515
81053SOL    HW144998   5.667   2.943   6.602
81053SOL    HW244999   5.552   2.879   6.528
81054SOL     OW45000   8.171   2.685   6.552
81054SOL    HW145001   8.170   2.726   6.466
81054SOL    HW245002   8.124   2.603   6.540
81055SOL     OW45003   0.964   1.112  14.834
81055SOL    HW145004   0.909   1.082  14.762
81055SOL    HW245005   1.049   1.129  14.794
81056SOL     OW45006   5.138   2.703   7.147
81056SOL    HW145007   5.175   2.618   7.122
81056SOL    HW245008   5.081   2.726   7.074
81057SOL     OW45009   7.552  12.029   7.272
81057SOL    HW145010   7.620  12.020   7.338
81057SOL    HW245011   7.579  12.105   7.220
81058SOL     OW45012  11.534   6.757   2.149
81058SOL    HW145013  11.458   6.699   2.144
81058SOL    HW245014  11.608   6.703   2.120
81059SOL     OW45015   2.631   7.857  14.169
81059SOL    HW145016   2.576   7.904  14.106
81059SOL    HW245017   2.571   7.830  14.238
81060SOL     OW45018  11.096   5.937   2.488
81060SOL    HW145019  11.144   6.019   2.499
81060SOL    HW245020  11.099   5.896   2.574
81061SOL     OW45021   1.188   9.101   2.155
81061SOL    HW145022   1.137   9.026   2.188
81061SOL    HW245023   1.203   9.156   2.231
81062SOL     OW45024  13.252   7.863  14.176
81062SOL    HW145025  13.257   7.787  14.118
81062SOL    HW245026  13.160   7.866  14.204
81063SOL     OW45027   6.401  10.907   2.097
81063SOL    HW145028   6.327  10.960   2.128
81063SOL    HW245029   6.468  10.918   2.165
81064SOL     OW45030   5.491   7.950   9.713
81064SOL    HW145031   5.541   7.933   9.793
81064SOL    HW245032   5.404   7.914   9.731
81065SOL     OW45033   6.036   4.195  10.565
81065SOL    HW145034   6.090   4.210  10.487
81065SOL    HW245035   5.983   4.274  10.573
81066SOL     OW45036   2.609   3.936  10.964
81066SOL    HW145037   2.696   3.905  10.941
81066SOL    HW245038   2.560   3.933  10.882
81067SOL     OW45039  12.172   9.615   1.277
81067SOL    HW145040  12.150   9.562   1.200
81067SOL    HW245041  12.095   9.608   1.333
81068SOL     OW45042   0.926   6.153   7.331
81068SOL    HW145043   0.874   6.108   7.396
81068SOL    HW245044   0.878   6.142   7.249
81069SOL     OW45045  13.782  13.525   4.351
81069SOL    HW145046  13.782  13.430   4.337
81069SOL    HW245047  13.698  13.554   4.314
81070SOL     OW45048  10.758   5.292   9.522
81070SOL    HW145049  10.821   5.222   9.541
81070SOL    HW245050  10.720   5.314   9.607
81071SOL     OW45051   8.737  12.853   7.909
81071SOL    HW145052   8.787  12.812   7.839
81071SOL    HW245053   8.686  12.922   7.865
81072SOL     OW45054   2.878   0.910  12.851
81072SOL    HW145055   2.892   1.000  12.822
81072SOL    HW245056   2.900   0.856  12.775
81073SOL     OW45057  10.398   7.237   6.557
81073SOL    HW145058  10.494   7.234   6.554
81073SOL    HW245059  10.374   7.300   6.488
81074SOL     OW45060  12.884   5.259   6.314
81074SOL    HW145061  12.937   5.302   6.247
81074SOL    HW245062  12.835   5.192   6.266
81075SOL     OW45063   8.539  13.653  13.702
81075SOL    HW145064   8.468  13.648  13.765
81075SOL    HW245065   8.612  13.692  13.751
81076SOL     OW45066   1.667   8.812   9.339
81076SOL    HW145067   1.713   8.848   9.415
81076SOL    HW245068   1.685   8.875   9.269
81077SOL     OW45069   6.368  11.738   4.734
81077SOL    HW145070   6.420  11.814   4.710
81077SOL    HW245071   6.355  11.690   4.652
81078SOL     OW45072   8.157  14.682  12.640
81078SOL    HW145073   8.084  14.623  12.654
81078SOL    HW245074   8.175  14.676  12.546
81079SOL     OW45075   7.543   7.012   7.538
81079SOL    HW145076   7.492   6.943   7.582
81079SOL    HW245077   7.544   6.985   7.446
81080SOL     OW45078   0.592   5.239  10.027
81080SOL    HW145079   0.655   5.256   9.956
81080SOL    HW245080   0.532   5.175   9.989
81081SOL     OW45081   9.959   9.676   8.270
81081SOL    HW145082   9.872   9.654   8.238
81081SOL    HW245083  10.013   9.683   8.191
81082SOL     OW45084   3.531   1.299  14.879
81082SOL    HW145085   3.620   1.331  14.862
81082SOL    HW245086   3.539   1.204  14.874
81083SOL     OW45087   5.457   4.830   3.635
81083SOL    HW145088   5.454   4.804   3.727
81083SOL    HW245089   5.545   4.866   3.623
81084SOL     OW45090  10.886  10.949   4.628
81084SOL    HW145091  10.933  11.007   4.568
81084SOL    HW245092  10.797  10.946   4.593
81085SOL     OW45093   5.626   2.868   5.360
81085SOL    HW145094   5.546   2.816   5.345
81085SOL    HW245095   5.598   2.936   5.421
81086SOL     OW45096   0.786   9.548   5.034
81086SOL    HW145097   0.854   9.574   4.972
81086SOL    HW245098   0.733   9.485   4.986
81087SOL     OW45099   0.028  10.970   0.527
81087SOL    HW145100  14.816  10.959   0.550
81087SOL    HW245101   0.048  11.061   0.549
81088SOL     OW45102  14.685  12.273   7.847
81088SOL    HW145103  14.610  12.330   7.864
81088SOL    HW245104  14.737  12.322   7.783
81089SOL     OW45105   8.750   6.860   8.921
81089SOL    HW145106   8.673   6.848   8.865
81089SOL    HW245107   8.743   6.789   8.985
81090SOL     OW45108  12.840  13.110   4.118
81090SOL    HW145109  12.839  13.019   4.090
81090SOL    HW245110  12.849  13.160   4.037
81091SOL     OW45111  11.482   3.830   2.112
81091SOL    HW145112  11.536   3.823   2.033
81091SOL    HW245113  11.422   3.756   2.106
81092SOL     OW45114  14.098   8.447   7.179
81092SOL    HW145115  14.146   8.527   7.160
81092SOL    HW245116  14.118   8.428   7.270
81093SOL     OW45117   6.002   0.911  12.462
81093SOL    HW145118   5.917   0.902  12.420
81093SOL    HW245119   6.024   1.004  12.452
81094SOL     OW45120   5.506  10.233   2.166
81094SOL    HW145121   5.480  10.297   2.232
81094SOL    HW245122   5.560  10.171   2.213
81095SOL     OW45123   5.119  10.408   9.508
81095SOL    HW145124   5.085  10.350   9.440
81095SOL    HW245125   5.170  10.474   9.462
81096SOL     OW45126   4.557   9.075   0.119
81096SOL    HW145127   4.523   9.123   0.044
81096SOL    HW245128   4.509   8.992   0.118
81097SOL     OW45129   2.431  12.012   6.000
81097SOL    HW145130   2.498  12.078   5.982
81097SOL    HW245131   2.377  12.011   5.921
81098SOL     OW45132  14.567   6.042   4.456
81098SOL    HW145133  14.558   5.961   4.406
81098SOL    HW245134  14.488   6.047   4.509
81099SOL     OW45135   0.628   3.961   7.028
81099SOL    HW145136   0.718   3.959   7.060
81099SOL    HW245137   0.635   3.997   6.939
81100SOL     OW45138   4.831   9.777   0.283
81100SOL    HW145139   4.839   9.754   0.375
81100SOL    HW245140   4.738   9.765   0.263
81101SOL     OW45141   9.328   2.817   9.819
81101SOL    HW145142   9.362   2.787   9.904
81101SOL    HW245143   9.332   2.739   9.764
81102SOL     OW45144   6.657  11.429  12.427
81102SOL    HW145145   6.749  11.444  12.450
81102SOL    HW245146   6.641  11.338  12.450
81103SOL     OW45147   0.390   3.681   2.408
81103SOL    HW145148   0.311   3.719   2.448
81103SOL    HW245149   0.376   3.587   2.413
81104SOL     OW45150   7.810  11.118   7.433
81104SOL    HW145151   7.817  11.101   7.339
81104SOL    HW245152   7.885  11.071   7.471
81105SOL     OW45153   1.267   2.166  10.412
81105SOL    HW145154   1.231   2.157  10.323
81105SOL    HW245155   1.357   2.197  10.398
81106SOL     OW45156  11.973   2.571  11.764
81106SOL    HW145157  11.986   2.502  11.829
81106SOL    HW245158  11.934   2.527  11.689
81107SOL     OW45159   1.244   0.252   3.935
81107SOL    HW145160   1.314   0.291   3.988
81107SOL    HW245161   1.277   0.256   3.845
81108SOL     OW45162   5.123   7.397  14.399
81108SOL    HW145163   5.131   7.302  14.403
81108SOL    HW245164   5.092   7.422  14.486
81109SOL     OW45165   7.133   0.761   9.354
81109SOL    HW145166   7.089   0.731   9.274
81109SOL    HW245167   7.113   0.854   9.360
81110SOL     OW45168   0.440  11.675   6.157
81110SOL    HW145169   0.410  11.604   6.101
81110SOL    HW245170   0.484  11.736   6.098
81111SOL     OW45171  14.505   7.301   2.682
81111SOL    HW145172  14.521   7.378   2.627
81111SOL    HW245173  14.417   7.272   2.658
81112SOL     OW45174   2.930  11.553   2.257
81112SOL    HW145175   2.959  11.464   2.239
81112SOL    HW245176   2.861  11.570   2.193
81113SOL     OW45177   5.113   0.868   2.712
81113SOL    HW145178   5.198   0.874   2.754
81113SOL    HW245179   5.050   0.861   2.784
81114SOL     OW45180   6.120   0.953   8.062
81114SOL    HW145181   6.051   0.950   7.995
81114SOL    HW245182   6.183   1.017   8.029
81115SOL     OW45183   6.825   7.511   1.108
81115SOL    HW145184   6.827   7.526   1.013
81115SOL    HW245185   6.917   7.519   1.135
81116SOL     OW45186  13.152  14.591  12.079
81116SOL    HW145187  13.137  14.589  11.985
81116SOL    HW245188  13.084  14.649  12.113
81117SOL     OW45189   2.067  10.986  10.781
81117SOL    HW145190   2.069  10.954  10.871
81117SOL    HW245191   1.974  10.990  10.759
81118SOL     OW45192   9.919   3.045  11.014
81118SOL    HW145193   9.913   3.085  10.927
81118SOL    HW245194   9.839   3.073  11.058
81119SOL     OW45195   1.423   9.035   6.437
81119SOL    HW145196   1.385   9.006   6.519
81119SOL    HW245197   1.512   9.062   6.459
81120SOL     OW45198   9.052   5.631   1.661
81120SOL    HW145199   8.970   5.641   1.711
81120SOL    HW245200   9.113   5.591   1.722
81121SOL     OW45201   1.048   5.185  13.927
81121SOL    HW145202   1.017   5.236  13.852
81121SOL    HW245203   1.138   5.214  13.941
81122SOL     OW45204   2.578   9.428   1.608
81122SOL    HW145205   2.556   9.419   1.516
81122SOL    HW245206   2.567   9.341   1.645
81123SOL     OW45207   0.158   3.331  10.193
81123SOL    HW145208   0.161   3.381  10.111
81123SOL    HW245209   0.119   3.392  10.257
81124SOL     OW45210   3.403   9.500   7.927
81124SOL    HW145211   3.350   9.474   8.003
81124SOL    HW245212   3.371   9.445   7.856
81125SOL     OW45213   0.963   4.427   2.999
81125SOL    HW145214   1.047   4.414   2.954
81125SOL    HW245215   0.941   4.519   2.981
81126SOL     OW45216  14.558   2.784   0.745
81126SOL    HW145217  14.568   2.870   0.784
81126SOL    HW245218  14.612   2.788   0.665
81127SOL     OW45219   1.997   1.429   9.927
81127SOL    HW145220   2.033   1.475   9.852
81127SOL    HW245221   2.001   1.336   9.903
81128SOL     OW45222  14.649   8.380   9.405
81128SOL    HW145223  14.646   8.284   9.402
81128SOL    HW245224  14.557   8.406   9.409
81129SOL     OW45225   9.862   5.130  13.767
81129SOL    HW145226   9.943   5.164  13.805
81129SOL    HW245227   9.794   5.186  13.804
81130SOL     OW45228   3.016   5.320   3.215
81130SOL    HW145229   2.972   5.270   3.284
81130SOL    HW245230   2.952   5.386   3.188
81131SOL     OW45231   2.714  10.243   1.972
81131SOL    HW145232   2.726  10.193   1.891
81131SOL    HW245233   2.717  10.177   2.042
81132SOL     OW45234   8.521   2.001   0.833
81132SOL    HW145235   8.473   2.070   0.788
81132SOL    HW245236   8.459   1.929   0.839
81133SOL     OW45237   4.478   2.093   8.821
81133SOL    HW145238   4.441   2.097   8.910
81133SOL    HW245239   4.418   2.145   8.768
81134SOL     OW45240   5.539  10.224   1.897
81134SOL    HW145241   5.594  10.288   1.853
81134SOL    HW245242   5.538  10.253   1.989
81135SOL     OW45243   0.235   4.005   6.151
81135SOL    HW145244   0.154   3.985   6.104
81135SOL    HW245245   0.208   4.066   6.220
81136SOL     OW45246   5.571  12.409  11.775
81136SOL    HW145247   5.645  12.470  11.773
81136SOL    HW245248   5.604  12.330  11.731
81137SOL     OW45249   1.448   5.428   2.702
81137SOL    HW145250   1.426   5.412   2.610
81137SOL    HW245251   1.543   5.417   2.707
81138SOL     OW45252  11.200  12.703   4.095
81138SOL    HW145253  11.215  12.730   4.186
81138SOL    HW245254  11.250  12.622   4.086
81139SOL     OW45255   6.707  14.258   7.946
81139SOL    HW145256   6.651  14.318   7.896
81139SOL    HW245257   6.761  14.315   8.000
81140SOL     OW45258   8.595   6.304   1.302
81140SOL    HW145259   8.667   6.294   1.364
81140SOL    HW245260   8.617   6.246   1.229
81141SOL     OW45261   0.651   3.822   3.996
81141SOL    HW145262   0.744   3.835   4.013
81141SOL    HW245263   0.612   3.806   4.082
81142SOL     OW45264  10.558  11.390  14.333
81142SOL    HW145265  10.507  11.319  14.295
81142SOL    HW245266  10.549  11.378  14.427
81143SOL     OW45267  14.013   1.098   6.850
81143SOL    HW145268  14.037   1.038   6.780
81143SOL    HW245269  13.917   1.090   6.856
81144SOL     OW45270   9.902  11.344   6.564
81144SOL    HW145271   9.963  11.275   6.589
81144SOL    HW245272   9.944  11.389   6.491
81145SOL     OW45273  11.302   3.302   2.838
81145SOL    HW145274  11.244   3.313   2.762
81145SOL    HW245275  11.377   3.359   2.818
81146SOL     OW45276   5.294  13.808  12.327
81146SOL    HW145277   5.305  13.777  12.237
81146SOL    HW245278   5.203  13.837  12.332
81147SOL     OW45279   1.753  12.707  13.897
81147SOL    HW145280   1.777  12.767  13.967
81147SOL    HW245281   1.714  12.632  13.942
81148SOL     OW45282   2.982  14.733   4.966
81148SOL    HW145283   3.022  14.727   4.879
81148SOL    HW245284   2.963  14.642   4.990
81149SOL     OW45285   0.706   8.121   8.955
81149SOL    HW145286   0.773   8.172   9.000
81149SOL    HW245287   0.646   8.188   8.920
81150SOL     OW45288   3.813  14.250   1.151
81150SOL    HW145289   3.825  14.188   1.222
81150SOL    HW245290   3.779  14.197   1.078
81151SOL     OW45291   2.258  12.356   4.377
81151SOL    HW145292   2.164  12.365   4.361
81151SOL    HW245293   2.264  12.298   4.454
81152SOL     OW45294   4.695   0.748   0.657
81152SOL    HW145295   4.714   0.665   0.614
81152SOL    HW245296   4.600   0.754   0.657
81153SOL     OW45297   5.161  12.427   4.002
81153SOL    HW145298   5.156  12.424   4.098
81153SOL    HW245299   5.250  12.399   3.982
81154SOL     OW45300   7.856  13.306   8.357
81154SOL    HW145301   7.892  13.251   8.427
81154SOL    HW245302   7.787  13.356   8.400
81155SOL     OW45303   7.402   4.594   8.310
81155SOL    HW145304   7.432   4.510   8.344
81155SOL    HW245305   7.482   4.646   8.302
81156SOL     OW45306   0.415   0.099   1.626
81156SOL    HW145307   0.338   0.130   1.578
81156SOL    HW245308   0.418   0.005   1.607
81157SOL     OW45309   3.720   6.758  10.415
81157SOL    HW145310   3.737   6.664  10.424
81157SOL    HW245311   3.629   6.769  10.443
81158SOL     OW45312  12.728  11.481   8.400
81158SOL    HW145313  12.803  11.432   8.434
81158SOL    HW245314  12.656  11.458   8.458
81159SOL     OW45315   3.291   1.889  10.172
81159SOL    HW145316   3.367   1.858  10.220
81159SOL    HW245317   3.326   1.952  10.108
81160SOL     OW45318   3.779  13.739   7.784
81160SOL    HW145319   3.838  13.669   7.811
81160SOL    HW245320   3.786  13.805   7.853
81161SOL     OW45321  10.320  11.512  11.023
81161SOL    HW145322  10.347  11.426  11.056
81161SOL    HW245323  10.359  11.517  10.936
81162SOL     OW45324   4.837   6.349   4.881
81162SOL    HW145325   4.916   6.402   4.898
81162SOL    HW245326   4.860   6.262   4.913
81163SOL     OW45327   6.765   9.980   3.266
81163SOL    HW145328   6.750   9.886   3.278
81163SOL    HW245329   6.698  10.008   3.205
81164SOL     OW45330  12.882   6.628   5.596
81164SOL    HW145331  12.832   6.547   5.586
81164SOL    HW245332  12.963   6.602   5.638
81165SOL     OW45333   3.951   7.887   4.100
81165SOL    HW145334   3.899   7.878   4.180
81165SOL    HW245335   4.041   7.881   4.129
81166SOL     OW45336   9.571   3.373  14.389
81166SOL    HW145337   9.588   3.446  14.329
81166SOL    HW245338   9.589   3.408  14.476
81167SOL     OW45339   7.069  12.509   6.182
81167SOL    HW145340   7.113  12.455   6.248
81167SOL    HW245341   7.001  12.452   6.146
81168SOL     OW45342  11.534   0.321  11.406
81168SOL    HW145343  11.538   0.240  11.356
81168SOL    HW245344  11.459   0.309  11.465
81169SOL     OW45345   4.656   1.697  12.430
81169SOL    HW145346   4.685   1.645  12.355
81169SOL    HW245347   4.566   1.668  12.446
81170SOL     OW45348   5.634  13.877   0.402
81170SOL    HW145349   5.619  13.954   0.456
81170SOL    HW245350   5.592  13.898   0.319
81171SOL     OW45351   5.429   1.560  10.826
81171SOL    HW145352   5.415   1.491  10.761
81171SOL    HW245353   5.367   1.629  10.802
81172SOL     OW45354   3.769   2.140  11.148
81172SOL    HW145355   3.750   2.173  11.236
81172SOL    HW245356   3.773   2.045  11.159
81173SOL     OW45357   8.213  14.166   0.102
81173SOL    HW145358   8.133  14.142   0.055
81173SOL    HW245359   8.243  14.245   0.058
81174SOL     OW45360   3.051   9.502   3.879
81174SOL    HW145361   3.076   9.410   3.888
81174SOL    HW245362   3.091   9.530   3.797
81175SOL     OW45363   5.893   2.022  12.514
81175SOL    HW145364   5.894   2.101  12.567
81175SOL    HW245365   5.803   1.991  12.518
81176SOL     OW45366   8.792   6.288   2.889
81176SOL    HW145367   8.788   6.326   2.977
81176SOL    HW245368   8.862   6.337   2.846
81177SOL     OW45369  10.900  11.802   7.197
81177SOL    HW145370  10.924  11.893   7.212
81177SOL    HW245371  10.983  11.754   7.203
81178SOL     OW45372   8.898   7.370   8.464
81178SOL    HW145373   8.827   7.311   8.438
81178SOL    HW245374   8.944   7.390   8.382
81179SOL     OW45375  10.613   2.154  13.855
81179SOL    HW145376  10.566   2.106  13.924
81179SOL    HW245377  10.661   2.222  13.902
81180SOL     OW45378   0.866   9.432  13.975
81180SOL    HW145379   0.789   9.385  14.006
81180SOL    HW245380   0.874   9.407  13.883
81181SOL     OW45381  14.750   9.041  13.005
81181SOL    HW145382  14.800   9.078  12.933
81181SOL    HW245383  14.791   9.077  13.084
81182SOL     OW45384   7.151   4.068   9.953
81182SOL    HW145385   7.148   4.045  10.046
81182SOL    HW245386   7.060   4.080   9.928
81183SOL     OW45387   9.448  12.443   1.217
81183SOL    HW145388   9.448  12.377   1.286
81183SOL    HW245389   9.540  12.451   1.192
81184SOL     OW45390   9.292   4.167  12.161
81184SOL    HW145391   9.273   4.191  12.251
81184SOL    HW245392   9.271   4.246  12.110
81185SOL     OW45393   0.423   7.624   8.833
81185SOL    HW145394   0.518   7.628   8.841
81185SOL    HW245395   0.407   7.554   8.770
81186SOL     OW45396  10.603  12.821   1.056
81186SOL    HW145397  10.642  12.906   1.077
81186SOL    HW245398  10.637  12.762   1.124
81187SOL     OW45399   4.804   1.917   7.995
81187SOL    HW145400   4.890   1.959   8.001
81187SOL    HW245401   4.742   1.989   8.010
81188SOL     OW45402  13.865   3.230   3.709
81188SOL    HW145403  13.907   3.247   3.625
81188SOL    HW245404  13.774   3.209   3.686
81189SOL     OW45405   9.877   1.823   3.567
81189SOL    HW145406   9.857   1.731   3.549
81189SOL    HW245407   9.973   1.828   3.567
81190SOL     OW45408  11.751   3.725   0.633
81190SOL    HW145409  11.794   3.733   0.718
81190SOL    HW245410  11.659   3.708   0.654
81191SOL     OW45411  11.964   5.247   6.163
81191SOL    HW145412  12.039   5.187   6.170
81191SOL    HW245413  11.893   5.192   6.130
81192SOL     OW45414   7.033   8.758  12.081
81192SOL    HW145415   7.002   8.833  12.030
81192SOL    HW245416   6.994   8.769  12.167
81193SOL     OW45417  11.203   0.919  14.805
81193SOL    HW145418  11.279   0.868  14.834
81193SOL    HW245419  11.154   0.859  14.749
81194SOL     OW45420   3.571  10.706  14.146
81194SOL    HW145421   3.586  10.643  14.076
81194SOL    HW245422   3.658  10.722  14.184
81195SOL     OW45423  10.295  11.152  10.096
81195SOL    HW145424  10.312  11.230  10.148
81195SOL    HW245425  10.334  11.080  10.146
81196SOL     OW45426   7.235   5.936   0.066
81196SOL    HW145427   7.218   5.902  14.858
81196SOL    HW245428   7.271   5.862   0.114
81197SOL     OW45429   1.063   9.772   1.418
81197SOL    HW145430   1.083   9.832   1.347
81197SOL    HW245431   0.969   9.756   1.410
81198SOL     OW45432  11.436   2.162   9.270
81198SOL    HW145433  11.451   2.159   9.365
81198SOL    HW245434  11.427   2.070   9.244
81199SOL     OW45435   4.135  11.732   2.925
81199SOL    HW145436   4.112  11.824   2.911
81199SOL    HW245437   4.185  11.732   3.007
81200SOL     OW45438   1.714  10.374   0.817
81200SOL    HW145439   1.678  10.289   0.790
81200SOL    HW245440   1.683  10.436   0.751
81201SOL     OW45441   0.401  11.495   3.105
81201SOL    HW145442   0.436  11.565   3.051
81201SOL    HW245443   0.451  11.500   3.187
81202SOL     OW45444  13.654  11.904   7.550
81202SOL    HW145445  13.615  11.847   7.616
81202SOL    HW245446  13.649  11.853   7.469
81203SOL     OW45447  14.463   7.157   1.005
81203SOL    HW145448  14.542   7.118   0.968
81203SOL    HW245449  14.421   7.202   0.932
81204SOL     OW45450  13.557   2.926  13.580
81204SOL    HW145451  13.515   2.844  13.605
81204SOL    HW245452  13.490   2.974  13.531
81205SOL     OW45453   3.900   1.687  11.094
81205SOL    HW145454   3.874   1.669  11.003
81205SOL    HW245455   3.993   1.663  11.097
81206SOL     OW45456  13.824  10.372  14.538
81206SOL    HW145457  13.912  10.385  14.504
81206SOL    HW245458  13.823  10.282  14.570
81207SOL     OW45459   8.979  14.860  12.330
81207SOL    HW145460   9.040   0.027  12.273
81207SOL    HW245461   9.035  14.815  12.394
81208SOL     OW45462   0.789   8.451   5.386
81208SOL    HW145463   0.751   8.410   5.308
81208SOL    HW245464   0.878   8.416   5.390
81209SOL     OW45465   8.385   8.177   1.896
81209SOL    HW145466   8.349   8.166   1.985
81209SOL    HW245467   8.455   8.112   1.890
81210SOL     OW45468   6.554  13.729   0.983
81210SOL    HW145469   6.556  13.823   1.002
81210SOL    HW245470   6.521  13.689   1.063
81211SOL     OW45471  10.052  12.389  13.023
81211SOL    HW145472  10.006  12.463  13.063
81211SOL    HW245473  10.067  12.328  13.095
81212SOL     OW45474   8.746   6.876   7.722
81212SOL    HW145475   8.679   6.854   7.787
81212SOL    HW245476   8.699   6.882   7.639
81213SOL     OW45477   4.567   1.041  10.800
81213SOL    HW145478   4.490   1.097  10.794
81213SOL    HW245479   4.601   1.055  10.888
81214SOL     OW45480  12.132   0.111   3.733
81214SOL    HW145481  12.177   0.032   3.705
81214SOL    HW245482  12.183   0.183   3.696
81215SOL     OW45483   5.748   6.068   2.128
81215SOL    HW145484   5.795   6.075   2.211
81215SOL    HW245485   5.814   6.090   2.061
81216SOL     OW45486   4.443   4.359   9.167
81216SOL    HW145487   4.520   4.414   9.184
81216SOL    HW245488   4.377   4.392   9.228
81217SOL     OW45489  14.716  11.088   8.239
81217SOL    HW145490  14.723  11.100   8.144
81217SOL    HW245491  14.698  11.176   8.273
81218SOL     OW45492   6.978   6.198   0.630
81218SOL    HW145493   7.057   6.239   0.594
81218SOL    HW245494   7.009   6.116   0.667
81219SOL     OW45495  13.352   0.438  11.574
81219SOL    HW145496  13.284   0.485  11.526
81219SOL    HW245497  13.434   0.465  11.531
81220SOL     OW45498   0.723   3.462   5.985
81220SOL    HW145499   0.718   3.394   6.053
81220SOL    HW245500   0.690   3.418   5.906
81221SOL     OW45501   9.803   8.826   2.382
81221SOL    HW145502   9.888   8.799   2.348
81221SOL    HW245503   9.741   8.800   2.315
81222SOL     OW45504   6.924   4.002   2.994
81222SOL    HW145505   6.956   4.067   3.057
81222SOL    HW245506   6.888   4.054   2.923
81223SOL     OW45507   9.915   9.536   1.290
81223SOL    HW145508   9.862   9.615   1.276
81223SOL    HW245509   9.939   9.507   1.203
81224SOL     OW45510   9.936   1.701  12.767
81224SOL    HW145511   9.972   1.617  12.797
81224SOL    HW245512  10.001   1.734  12.704
81225SOL     OW45513   1.005   5.006   3.317
81225SOL    HW145514   1.011   5.100   3.300
81225SOL    HW245515   1.058   4.966   3.248
81226SOL     OW45516   6.542  12.958   5.810
81226SOL    HW145517   6.551  13.043   5.765
81226SOL    HW245518   6.502  12.980   5.894
81227SOL     OW45519   3.331   3.585  13.220
81227SOL    HW145520   3.252   3.541  13.250
81227SOL    HW245521   3.401   3.520  13.234
81228SOL     OW45522   7.055  10.645  14.295
81228SOL    HW145523   6.973  10.609  14.261
81228SOL    HW245524   7.074  10.718  14.237
81229SOL     OW45525  14.081   3.635   3.775
81229SOL    HW145526  14.032   3.565   3.818
81229SOL    HW245527  14.066   3.621   3.681
81230SOL     OW45528   5.340   1.259  11.550
81230SOL    HW145529   5.295   1.322  11.607
81230SOL    HW245530   5.328   1.174  11.594
81231SOL     OW45531   2.650  12.550  14.279
81231SOL    HW145532   2.697  12.502  14.347
81231SOL    HW245533   2.673  12.642  14.295
81232SOL     OW45534   4.980  10.918  12.697
81232SOL    HW145535   4.919  10.859  12.652
81232SOL    HW245536   4.989  10.992  12.637
81233SOL     OW45537   1.566  13.129   6.605
81233SOL    HW145538   1.552  13.190   6.677
81233SOL    HW245539   1.637  13.072   6.635
81234SOL     OW45540   5.726   1.828   4.077
81234SOL    HW145541   5.762   1.864   4.159
81234SOL    HW245542   5.673   1.753   4.106
81235SOL     OW45543   1.800  11.215  13.437
81235SOL    HW145544   1.810  11.282  13.504
81235SOL    HW245545   1.810  11.132  13.484
81236SOL     OW45546  10.156   9.505   8.438
81236SOL    HW145547  10.167   9.413   8.461
81236SOL    HW245548  10.106   9.503   8.356
81237SOL     OW45549  10.856  13.183  11.443
81237SOL    HW145550  10.864  13.093  11.411
81237SOL    HW245551  10.785  13.220  11.391
81238SOL     OW45552   2.769   9.254   0.117
81238SOL    HW145553   2.710   9.181   0.136
81238SOL    HW245554   2.857   9.220   0.137
81239SOL     OW45555   4.607  14.858  10.831
81239SOL    HW145556   4.610  14.763  10.826
81239SOL    HW245557   4.562   0.005  10.750
81240SOL     OW45558   6.904  11.725  12.868
81240SOL    HW145559   6.918  11.816  12.894
81240SOL    HW245560   6.809  11.716  12.863
81241SOL     OW45561   3.431   9.346  12.975
81241SOL    HW145562   3.360   9.281  12.967
81241SOL    HW245563   3.505   9.307  12.929
81242SOL     OW45564   8.159  10.196   3.506
81242SOL    HW145565   8.212  10.174   3.583
81242SOL    HW245566   8.186  10.285   3.482
81243SOL     OW45567  11.843   5.580  11.937
81243SOL    HW145568  11.933   5.606  11.921
81243SOL    HW245569  11.818   5.627  12.016
81244SOL     OW45570   6.603   9.497  11.537
81244SOL    HW145571   6.606   9.433  11.466
81244SOL    HW245572   6.660   9.460  11.605
81245SOL     OW45573   7.673  14.598   6.596
81245SOL    HW145574   7.655  14.691   6.583
81245SOL    HW245575   7.632  14.578   6.681
81246SOL     OW45576   9.257   9.371   8.258
81246SOL    HW145577   9.233   9.336   8.172
81246SOL    HW245578   9.199   9.326   8.319
81247SOL     OW45579  10.166  11.747   4.484
81247SOL    HW145580  10.250  11.763   4.526
81247SOL    HW245581  10.106  11.726   4.556
81248SOL     OW45582   8.213  11.860  11.802
81248SOL    HW145583   8.307  11.880  11.795
81248SOL    HW245584   8.197  11.795  11.734
81249SOL     OW45585   7.336   1.265  13.319
81249SOL    HW145586   7.344   1.356  13.292
81249SOL    HW245587   7.355   1.266  13.413
81250SOL     OW45588   7.714  14.213   5.574
81250SOL    HW145589   7.699  14.273   5.502
81250SOL    HW245590   7.634  14.160   5.578
81251SOL     OW45591   0.235  12.916   5.000
81251SOL    HW145592   0.315  12.968   4.995
81251SOL    HW245593   0.262  12.828   4.974
81252SOL     OW45594  12.549  11.133  11.394
81252SOL    HW145595  12.596  11.073  11.336
81252SOL    HW245596  12.611  11.153  11.463
81253SOL     OW45597   0.262   8.641   9.617
81253SOL    HW145598   0.330   8.574   9.613
81253SOL    HW245599   0.223   8.630   9.704
81254SOL     OW45600   2.970  11.930  12.746
81254SOL    HW145601   3.048  11.885  12.778
81254SOL    HW245602   2.906  11.861  12.731
81255SOL     OW45603   6.454   0.931   3.767
81255SOL    HW145604   6.417   0.849   3.735
81255SOL    HW245605   6.426   0.935   3.859
81256SOL     OW45606  10.460  13.011  11.717
81256SOL    HW145607  10.432  13.055  11.636
81256SOL    HW245608  10.471  13.083  11.780
81257SOL     OW45609   2.768   2.578   4.869
81257SOL    HW145610   2.846   2.625   4.840
81257SOL    HW245611   2.787   2.554   4.960
81258SOL     OW45612  10.916  11.031   4.212
81258SOL    HW145613  10.858  10.961   4.183
81258SOL    HW245614  10.878  11.111   4.176
81259SOL     OW45615   4.893  11.184  12.836
81259SOL    HW145616   4.820  11.240  12.865
81259SOL    HW245617   4.934  11.233  12.765
81260SOL     OW45618   2.978   3.101  10.111
81260SOL    HW145619   2.949   3.149  10.033
81260SOL    HW245620   2.989   3.011  10.081
81261SOL     OW45621  12.069   9.678   9.919
81261SOL    HW145622  12.154   9.643   9.945
81261SOL    HW245623  12.059   9.652   9.827
81262SOL     OW45624  11.185  12.007   1.409
81262SOL    HW145625  11.107  12.048   1.372
81262SOL    HW245626  11.233  11.975   1.332
81263SOL     OW45627   2.275   9.736   6.569
81263SOL    HW145628   2.280   9.642   6.554
81263SOL    HW245629   2.347   9.754   6.630
81264SOL     OW45630   7.636  13.619   2.041
81264SOL    HW145631   7.623  13.567   2.121
81264SOL    HW245632   7.550  13.622   2.000
81265SOL     OW45633   0.890   0.416   8.480
81265SOL    HW145634   0.967   0.389   8.529
81265SOL    HW245635   0.869   0.503   8.514
81266SOL     OW45636  11.807  10.385  12.750
81266SOL    HW145637  11.841  10.355  12.834
81266SOL    HW245638  11.806  10.480  12.757
81267SOL     OW45639   4.104  12.519   7.472
81267SOL    HW145640   4.070  12.567   7.548
81267SOL    HW245641   4.066  12.565   7.397
81268SOL     OW45642   5.672   0.005   7.604
81268SOL    HW145643   5.589   0.049   7.586
81268SOL    HW245644   5.738   0.061   7.562
81269SOL     OW45645   5.492   5.364   3.984
81269SOL    HW145646   5.409   5.389   4.025
81269SOL    HW245647   5.495   5.268   3.992
81270SOL     OW45648   9.727   0.004   6.440
81270SOL    HW145649   9.822  14.872   6.448
81270SOL    HW245650   9.693  14.866   6.527
81271SOL     OW45651  13.480   9.155   3.957
81271SOL    HW145652  13.408   9.218   3.960
81271SOL    HW245653  13.525   9.165   4.040
81272SOL     OW45654   3.437  13.352  12.221
81272SOL    HW145655   3.379  13.380  12.151
81272SOL    HW245656   3.519  13.399  12.203
81273SOL     OW45657   2.880   7.618  13.614
81273SOL    HW145658   2.795   7.661  13.603
81273SOL    HW245659   2.867   7.560  13.689
81274SOL     OW45660   7.638   7.791   3.369
81274SOL    HW145661   7.578   7.719   3.352
81274SOL    HW245662   7.589   7.869   3.342
81275SOL     OW45663   3.760   6.672   2.158
81275SOL    HW145664   3.850   6.680   2.190
81275SOL    HW245665   3.722   6.759   2.170
81276SOL     OW45666   6.741   5.776  12.531
81276SOL    HW145667   6.779   5.730  12.457
81276SOL    HW245668   6.666   5.722  12.557
81277SOL     OW45669   1.995   8.105   1.471
81277SOL    HW145670   2.063   8.054   1.515
81277SOL    HW245671   1.956   8.158   1.540
81278SOL     OW45672  13.755   1.364   4.506
81278SOL    HW145673  13.742   1.277   4.470
81278SOL    HW245674  13.850   1.378   4.503
81279SOL     OW45675  10.952   3.665  11.410
81279SOL    HW145676  10.919   3.718  11.337
81279SOL    HW245677  11.028   3.619  11.373
81280SOL     OW45678   6.592   7.792   6.580
81280SOL    HW145679   6.600   7.699   6.560
81280SOL    HW245680   6.498   7.804   6.597
81281SOL     OW45681   3.450   4.076   7.648
81281SOL    HW145682   3.465   4.141   7.716
81281SOL    HW245683   3.375   4.110   7.599
81282SOL     OW45684   9.731   9.773   1.295
81282SOL    HW145685   9.652   9.755   1.243
81282SOL    HW245686   9.761   9.858   1.264
81283SOL     OW45687   2.010   2.963   8.511
81283SOL    HW145688   2.076   2.938   8.576
81283SOL    HW245689   2.061   2.993   8.436
81284SOL     OW45690  11.358   7.565   6.168
81284SOL    HW145691  11.284   7.509   6.147
81284SOL    HW245692  11.325   7.654   6.156
81285SOL     OW45693   8.893   4.261   4.803
81285SOL    HW145694   8.984   4.247   4.830
81285SOL    HW245695   8.844   4.265   4.885
81286SOL     OW45696   6.512  10.328  10.210
81286SOL    HW145697   6.536  10.319  10.118
81286SOL    HW245698   6.566  10.262  10.255
81287SOL     OW45699   1.252  14.451   9.385
81287SOL    HW145700   1.304  14.514   9.335
81287SOL    HW245701   1.317  14.389   9.420
81288SOL     OW45702  12.704  13.288   2.501
81288SOL    HW145703  12.783  13.234   2.492
81288SOL    HW245704  12.650  13.262   2.426
81289SOL     OW45705   6.101   6.444   7.915
81289SOL    HW145706   6.130   6.485   7.997
81289SOL    HW245707   6.133   6.502   7.846
81290SOL     OW45708  10.462  13.558  12.702
81290SOL    HW145709  10.375  13.546  12.741
81290SOL    HW245710  10.507  13.616  12.763
81291SOL     OW45711   6.323   8.974   7.027
81291SOL    HW145712   6.236   8.998   6.996
81291SOL    HW245713   6.360   9.056   7.061
81292SOL     OW45714  14.766   7.317   4.993
81292SOL    HW145715  14.845   7.322   4.939
81292SOL    HW245716  14.749   7.224   5.003
81293SOL     OW45717   4.226   1.498  13.088
81293SOL    HW145718   4.148   1.553  13.084
81293SOL    HW245719   4.282   1.532  13.019
81294SOL     OW45720   6.021  14.662   5.721
81294SOL    HW145721   6.010  14.647   5.815
81294SOL    HW245722   5.936  14.642   5.684
81295SOL     OW45723   2.069  10.407  12.669
81295SOL    HW145724   2.065  10.501  12.651
81295SOL    HW245725   2.163  10.387  12.669
81296SOL     OW45726   2.866   8.068  11.474
81296SOL    HW145727   2.860   7.976  11.450
81296SOL    HW245728   2.955   8.079  11.508
81297SOL     OW45729   9.025   5.933  11.763
81297SOL    HW145730   8.976   5.945  11.845
81297SOL    HW245731   9.109   5.977  11.779
81298SOL     OW45732   6.707   8.033   8.722
81298SOL    HW145733   6.718   7.992   8.808
81298SOL    HW245734   6.720   8.126   8.738
81299SOL     OW45735   3.151   9.996   5.557
81299SOL    HW145736   3.190  10.082   5.540
81299SOL    HW245737   3.175   9.944   5.481
81300SOL     OW45738   7.244  13.135  12.774
81300SOL    HW145739   7.151  13.148  12.759
81300SOL    HW245740   7.269  13.205  12.835
81301SOL     OW45741   3.566  12.983  12.303
81301SOL    HW145742   3.587  12.955  12.214
81301SOL    HW245743   3.651  13.001  12.343
81302SOL     OW45744  12.435   6.864   9.180
81302SOL    HW145745  12.373   6.818   9.238
81302SOL    HW245746  12.474   6.932   9.235
81303SOL     OW45747   5.644  10.012   6.294
81303SOL    HW145748   5.706  10.072   6.336
81303SOL    HW245749   5.683   9.994   6.208
81304SOL     OW45750   3.137   9.750   8.201
81304SOL    HW145751   3.165   9.825   8.255
81304SOL    HW245752   3.185   9.676   8.238
81305SOL     OW45753  10.181   6.625  14.466
81305SOL    HW145754  10.116   6.670  14.520
81305SOL    HW245755  10.193   6.681  14.390
81306SOL     OW45756  13.554  10.894   0.962
81306SOL    HW145757  13.641  10.895   0.922
81306SOL    HW245758  13.571  10.877   1.055
81307SOL     OW45759  12.209   9.343  14.085
81307SOL    HW145760  12.191   9.251  14.066
81307SOL    HW245761  12.237   9.343  14.177
81308SOL     OW45762   5.051  14.652   7.784
81308SOL    HW145763   5.105  14.672   7.708
81308SOL    HW245764   4.963  14.638   7.747
81309SOL     OW45765   6.383   3.113  11.477
81309SOL    HW145766   6.468   3.080  11.448
81309SOL    HW245767   6.322   3.041  11.461
81310SOL     OW45768   5.957   4.274   1.905
81310SOL    HW145769   6.044   4.311   1.921
81310SOL    HW245770   5.897   4.341   1.936
81311SOL     OW45771   6.158   9.367  10.005
81311SOL    HW145772   6.218   9.305  10.047
81311SOL    HW245773   6.192   9.453  10.029
81312SOL     OW45774   2.294   3.812   7.221
81312SOL    HW145775   2.308   3.844   7.132
81312SOL    HW245776   2.346   3.731   7.225
81313SOL     OW45777  13.733   9.127   6.133
81313SOL    HW145778  13.754   9.074   6.056
81313SOL    HW245779  13.645   9.097   6.158
81314SOL     OW45780   2.010   8.970  10.493
81314SOL    HW145781   2.084   8.939  10.545
81314SOL    HW245782   1.943   8.902  10.505
81315SOL     OW45783   7.139   0.753   3.040
81315SOL    HW145784   7.225   0.777   3.006
81315SOL    HW245785   7.125   0.664   3.008
81316SOL     OW45786  11.560  14.289   7.308
81316SOL    HW145787  11.548  14.198   7.282
81316SOL    HW245788  11.598  14.283   7.396
81317SOL     OW45789   1.842   6.560   2.309
81317SOL    HW145790   1.748   6.560   2.294
81317SOL    HW245791   1.851   6.555   2.404
81318SOL     OW45792  10.276   0.954   5.608
81318SOL    HW145793  10.286   0.910   5.692
81318SOL    HW245794  10.190   0.926   5.576
81319SOL     OW45795   9.381   8.029  14.476
81319SOL    HW145796   9.318   7.958  14.483
81319SOL    HW245797   9.348   8.097  14.534
81320SOL     OW45798   8.676   5.444  12.911
81320SOL    HW145799   8.592   5.436  12.865
81320SOL    HW245800   8.724   5.510  12.861
81321SOL     OW45801   2.903  12.914  14.269
81321SOL    HW145802   2.882  13.005  14.248
81321SOL    HW245803   2.983  12.919  14.320
81322SOL     OW45804  12.645   2.668  14.448
81322SOL    HW145805  12.714   2.620  14.401
81322SOL    HW245806  12.691   2.743  14.487
81323SOL     OW45807  12.850   6.883  10.578
81323SOL    HW145808  12.850   6.979  10.584
81323SOL    HW245809  12.938   6.858  10.607
81324SOL     OW45810   6.639   0.690   3.547
81324SOL    HW145811   6.647   0.701   3.452
81324SOL    HW245812   6.724   0.717   3.582
81325SOL     OW45813   1.965   0.367   7.128
81325SOL    HW145814   1.950   0.392   7.037
81325SOL    HW245815   1.964   0.449   7.177
81326SOL     OW45816   7.389   0.981  14.521
81326SOL    HW145817   7.387   0.887  14.502
81326SOL    HW245818   7.426   1.021  14.442
81327SOL     OW45819  11.624  11.980  14.684
81327SOL    HW145820  11.603  12.073  14.690
81327SOL    HW245821  11.561  11.945  14.621
81328SOL     OW45822  12.247  12.495   0.336
81328SOL    HW145823  12.301  12.560   0.382
81328SOL    HW245824  12.230  12.534   0.251
81329SOL     OW45825  14.181  11.662   1.624
81329SOL    HW145826  14.211  11.638   1.711
81329SOL    HW245827  14.087  11.676   1.634
81330SOL     OW45828   8.046  11.498  13.145
81330SOL    HW145829   8.131  11.534  13.170
81330SOL    HW245830   7.982  11.549  13.193
81331SOL     OW45831  13.049  11.306   7.474
81331SOL    HW145832  12.972  11.304   7.417
81331SOL    HW245833  13.069  11.214   7.490
81332SOL     OW45834  10.391  14.337   9.642
81332SOL    HW145835  10.413  14.430   9.643
81332SOL    HW245836  10.476  14.292   9.644
81333SOL     OW45837   0.045  10.266   5.858
81333SOL    HW145838   0.137  10.245   5.841
81333SOL    HW245839   0.038  10.359   5.840
81334SOL     OW45840   7.153   7.754  11.422
81334SOL    HW145841   7.218   7.710  11.367
81334SOL    HW245842   7.094   7.684  11.451
81335SOL     OW45843   3.566   8.069   4.190
81335SOL    HW145844   3.529   7.998   4.244
81335SOL    HW245845   3.615   8.024   4.121
81336SOL     OW45846   8.875  12.756  12.831
81336SOL    HW145847   8.966  12.732  12.848
81336SOL    HW245848   8.826  12.675  12.841
81337SOL     OW45849   5.850   3.419   4.430
81337SOL    HW145850   5.904   3.466   4.366
81337SOL    HW245851   5.760   3.443   4.408
81338SOL     OW45852   6.990  12.698  13.957
81338SOL    HW145853   7.054  12.760  13.921
81338SOL    HW245854   7.000  12.706  14.051
81339SOL     OW45855   7.448   4.241   6.949
81339SOL    HW145856   7.498   4.214   6.872
81339SOL    HW245857   7.447   4.337   6.944
81340SOL     OW45858  10.260  11.641   5.061
81340SOL    HW145859  10.252  11.709   5.127
81340SOL    HW245860  10.335  11.589   5.089
81341SOL     OW45861   3.952  14.396   8.146
81341SOL    HW145862   3.966  14.329   8.078
81341SOL    HW245863   4.025  14.385   8.206
81342SOL     OW45864  14.784  13.358  13.675
81342SOL    HW145865  14.733  13.282  13.646
81342SOL    HW245866  14.875  13.327  13.674
81343SOL     OW45867  10.307   9.675  11.413
81343SOL    HW145868  10.348   9.681  11.327
81343SOL    HW245869  10.329   9.587  11.444
81344SOL     OW45870  13.684   1.998   4.129
81344SOL    HW145871  13.774   2.024   4.148
81344SOL    HW245872  13.673   2.017   4.036
81345SOL     OW45873   9.684   4.098   2.697
81345SOL    HW145874   9.658   4.047   2.773
81345SOL    HW245875   9.765   4.056   2.667
81346SOL     OW45876   6.116   3.587   6.168
81346SOL    HW145877   6.194   3.569   6.220
81346SOL    HW245878   6.117   3.682   6.155
81347SOL     OW45879   9.865   1.514  10.518
81347SOL    HW145880   9.776   1.520  10.481
81347SOL    HW245881   9.922   1.514  10.441
81348SOL     OW45882   4.788  13.160  11.406
81348SOL    HW145883   4.832  13.082  11.374
81348SOL    HW245884   4.850  13.232  11.389
81349SOL     OW45885   3.097  14.453   2.662
81349SOL    HW145886   3.172  14.429   2.607
81349SOL    HW245887   3.136  14.493   2.740
81350SOL     OW45888  14.081   2.970   7.853
81350SOL    HW145889  14.017   2.902   7.831
81350SOL    HW245890  14.067   2.988   7.945
81351SOL     OW45891   6.634  10.415   2.759
81351SOL    HW145892   6.665  10.442   2.673
81351SOL    HW245893   6.610  10.323   2.749
81352SOL     OW45894   2.162  10.103  13.635
81352SOL    HW145895   2.244  10.054  13.634
81352SOL    HW245896   2.097  10.040  13.665
81353SOL     OW45897  14.714   0.754   8.212
81353SOL    HW145898  14.786   0.691   8.219
81353SOL    HW245899  14.685   0.748   8.121
81354SOL     OW45900   1.899   2.209   9.005
81354SOL    HW145901   1.912   2.300   8.978
81354SOL    HW245902   1.971   2.161   8.964
81355SOL     OW45903   9.392   3.807  12.354
81355SOL    HW145904   9.442   3.751  12.295
81355SOL    HW245905   9.355   3.746  12.418
81356SOL     OW45906  13.370   9.112   9.543
81356SOL    HW145907  13.298   9.106   9.480
81356SOL    HW245908  13.356   9.195   9.588
81357SOL     OW45909  12.098   9.990   4.341
81357SOL    HW145910  12.058  10.032   4.417
81357SOL    HW245911  12.033   9.925   4.312
81358SOL     OW45912   5.538   6.731   2.121
81358SOL    HW145913   5.534   6.665   2.190
81358SOL    HW245914   5.631   6.737   2.100
81359SOL     OW45915  13.890   7.802   7.152
81359SOL    HW145916  13.889   7.816   7.057
81359SOL    HW245917  13.982   7.816   7.177
81360SOL     OW45918   0.179   3.824   2.547
81360SOL    HW145919   0.135   3.910   2.544
81360SOL    HW245920   0.167   3.794   2.637
81361SOL     OW45921   5.192   6.964  13.145
81361SOL    HW145922   5.179   6.890  13.086
81361SOL    HW245923   5.125   6.952  13.213
81362SOL     OW45924  12.438   2.698  10.477
81362SOL    HW145925  12.390   2.763  10.528
81362SOL    HW245926  12.407   2.709  10.387
81363SOL     OW45927   3.466  10.061  12.132
81363SOL    HW145928   3.539  10.095  12.080
81363SOL    HW245929   3.390  10.114  12.104
81364SOL     OW45930  10.647   9.299   0.020
81364SOL    HW145931  10.581   9.365   0.041
81364SOL    HW245932  10.637   9.284  14.806
81365SOL     OW45933   3.610   0.218  13.939
81365SOL    HW145934   3.664   0.178  14.008
81365SOL    HW245935   3.539   0.261  13.987
81366SOL     OW45936  10.706   2.141   9.723
81366SOL    HW145937  10.613   2.115   9.723
81366SOL    HW245938  10.729   2.147   9.630
81367SOL     OW45939   8.071  13.827   6.325
81367SOL    HW145940   8.161  13.859   6.334
81367SOL    HW245941   8.079  13.753   6.264
81368SOL     OW45942   8.480  13.929   0.361
81368SOL    HW145943   8.426  14.007   0.352
81368SOL    HW245944   8.566  13.962   0.390
81369SOL     OW45945   8.852   4.638   7.349
81369SOL    HW145946   8.764   4.667   7.375
81369SOL    HW245947   8.878   4.701   7.282
81370SOL     OW45948   5.456  11.635   6.619
81370SOL    HW145949   5.421  11.560   6.668
81370SOL    HW245950   5.526  11.670   6.675
81371SOL     OW45951   1.326  13.896  11.103
81371SOL    HW145952   1.257  13.955  11.134
81371SOL    HW245953   1.397  13.905  11.167
81372SOL     OW45954   1.871   3.328  12.768
81372SOL    HW145955   1.897   3.236  12.760
81372SOL    HW245956   1.835   3.335  12.857
81373SOL     OW45957  13.893  11.977   2.445
81373SOL    HW145958  13.809  12.015   2.419
81373SOL    HW245959  13.870  11.894   2.488
81374SOL     OW45960   9.289   5.454   7.723
81374SOL    HW145961   9.366   5.509   7.706
81374SOL    HW245962   9.216   5.504   7.685
81375SOL     OW45963  10.721   0.516  12.628
81375SOL    HW145964  10.749   0.431  12.595
81375SOL    HW245965  10.801   0.569  12.628
81376SOL     OW45966   3.128   8.033   2.968
81376SOL    HW145967   3.160   8.123   2.963
81376SOL    HW245968   3.124   8.003   2.877
81377SOL     OW45969  14.575   0.996  10.439
81377SOL    HW145970  14.570   1.060  10.510
81377SOL    HW245971  14.559   1.048  10.360
81378SOL     OW45972   8.689  14.015   0.946
81378SOL    HW145973   8.767  14.019   1.001
81378SOL    HW245974   8.660  14.105   0.938
81379SOL     OW45975  12.121   8.600   7.149
81379SOL    HW145976  12.202   8.614   7.100
81379SOL    HW245977  12.101   8.507   7.136
81380SOL     OW45978  14.187   5.223   2.899
81380SOL    HW145979  14.175   5.129   2.887
81380SOL    HW245980  14.225   5.232   2.987
81381SOL     OW45981   4.600   9.047  12.495
81381SOL    HW145982   4.647   9.072  12.415
81381SOL    HW245983   4.667   9.004  12.549
81382SOL     OW45984  10.832   9.470   9.722
81382SOL    HW145985  10.779   9.403   9.766
81382SOL    HW245986  10.880   9.423   9.654
81383SOL     OW45987  11.395  12.945  12.015
81383SOL    HW145988  11.328  12.900  11.964
81383SOL    HW245989  11.351  12.971  12.096
81384SOL     OW45990   1.904  12.534   3.941
81384SOL    HW145991   1.958  12.455   3.936
81384SOL    HW245992   1.870  12.534   4.030
81385SOL     OW45993  13.899  12.499   7.606
81385SOL    HW145994  13.857  12.513   7.522
81385SOL    HW245995  13.829  12.509   7.670
81386SOL     OW45996  13.556  10.282  12.635
81386SOL    HW145997  13.467  10.318  12.625
81386SOL    HW245998  13.597  10.297  12.550
81387SOL     OW45999   1.000  10.406   8.534
81387SOL    HW146000   0.996  10.366   8.621
81387SOL    HW246001   1.094  10.415   8.516
81388SOL     OW46002   7.194  14.285  14.088
81388SOL    HW146003   7.272  14.337  14.069
81388SOL    HW246004   7.209  14.250  14.175
81389SOL     OW46005  12.317   6.666   2.401
81389SOL    HW146006  12.332   6.715   2.482
81389SOL    HW246007  12.378   6.592   2.407
81390SOL     OW46008  13.751   0.840   7.767
81390SOL    HW146009  13.752   0.824   7.861
81390SOL    HW246010  13.843   0.845   7.742
81391SOL     OW46011  11.837  10.394   0.659
81391SOL    HW146012  11.777  10.330   0.622
81391SOL    HW246013  11.901  10.342   0.708
81392SOL     OW46014  13.125   5.496   1.782
81392SOL    HW146015  13.129   5.559   1.854
81392SOL    HW246016  13.120   5.549   1.703
81393SOL     OW46017   7.543   6.536   1.426
81393SOL    HW146018   7.519   6.444   1.413
81393SOL    HW246019   7.522   6.553   1.518
81394SOL     OW46020   0.801  14.226  11.014
81394SOL    HW146021   0.821  14.134  10.995
81394SOL    HW246022   0.732  14.249  10.951
81395SOL     OW46023   9.004   6.767  12.660
81395SOL    HW146024   9.002   6.681  12.703
81395SOL    HW246025   9.007   6.746  12.567
81396SOL     OW46026  14.227   6.230   9.975
81396SOL    HW146027  14.166   6.183   9.918
81396SOL    HW246028  14.263   6.163  10.033
81397SOL     OW46029  14.356   3.948   5.537
81397SOL    HW146030  14.379   3.897   5.459
81397SOL    HW246031  14.296   4.016   5.505
81398SOL     OW46032   2.966   0.451   4.409
81398SOL    HW146033   3.047   0.491   4.377
81398SOL    HW246034   2.980   0.357   4.398
81399SOL     OW46035   9.533   5.978  10.353
81399SOL    HW146036   9.625   5.955  10.364
81399SOL    HW246037   9.499   5.985  10.442
81400SOL     OW46038   0.593   3.995  14.749
81400SOL    HW146039   0.511   3.946  14.744
81400SOL    HW246040   0.642   3.967  14.671
81401SOL     OW46041   6.150   9.381  10.916
81401SOL    HW146042   6.140   9.365  10.822
81401SOL    HW246043   6.121   9.471  10.929
81402SOL     OW46044   5.581   3.462   4.362
81402SOL    HW146045   5.538   3.538   4.324
81402SOL    HW246046   5.528   3.388   4.332
81403SOL     OW46047   1.465   5.661   7.113
81403SOL    HW146048   1.462   5.718   7.036
81403SOL    HW246049   1.413   5.707   7.179
81404SOL     OW46050   2.461   4.058   7.815
81404SOL    HW146051   2.523   4.031   7.883
81404SOL    HW246052   2.508   4.122   7.763
81405SOL     OW46053   9.817   5.503  13.521
81405SOL    HW146054   9.802   5.576  13.461
81405SOL    HW246055   9.779   5.427  13.477
81406SOL     OW46056  12.179   6.268   9.558
81406SOL    HW146057  12.116   6.273   9.630
81406SOL    HW246058  12.178   6.356   9.520
81407SOL     OW46059   2.072   1.539   5.890
81407SOL    HW146060   1.992   1.591   5.902
81407SOL    HW246061   2.141   1.590   5.933
81408SOL     OW46062   9.754  13.209  12.896
81408SOL    HW146063   9.677  13.244  12.941
81408SOL    HW246064   9.740  13.114  12.894
81409SOL     OW46065   2.534   3.866   3.255
81409SOL    HW146066   2.494   3.816   3.326
81409SOL    HW246067   2.626   3.873   3.280
81410SOL     OW46068   3.755  12.632   9.092
81410SOL    HW146069   3.822  12.594   9.036
81410SOL    HW246070   3.673  12.596   9.059
81411SOL     OW46071   2.709   7.788  11.730
81411SOL    HW146072   2.662   7.857  11.683
81411SOL    HW246073   2.786   7.770  11.675
81412SOL     OW46074   0.947   6.765  12.822
81412SOL    HW146075   0.906   6.742  12.905
81412SOL    HW246076   1.028   6.714  12.819
81413SOL     OW46077   1.800   6.885   9.100
81413SOL    HW146078   1.756   6.825   9.039
81413SOL    HW246079   1.753   6.968   9.090
81414SOL     OW46080   7.771   9.123  10.831
81414SOL    HW146081   7.860   9.114  10.796
81414SOL    HW246082   7.784   9.140  10.925
81415SOL     OW46083   6.402   2.805   3.634
81415SOL    HW146084   6.465   2.810   3.706
81415SOL    HW246085   6.438   2.860   3.566
81416SOL     OW46086  13.042  11.206   4.415
81416SOL    HW146087  13.027  11.280   4.355
81416SOL    HW246088  13.098  11.146   4.365
81417SOL     OW46089   8.464  10.159  12.952
81417SOL    HW146090   8.495  10.249  12.940
81417SOL    HW246091   8.370  10.168  12.969
81418SOL     OW46092  13.083   9.070   5.850
81418SOL    HW146093  13.046   8.984   5.870
81418SOL    HW246094  13.011   9.118   5.809
81419SOL     OW46095  11.176   4.984   0.746
81419SOL    HW146096  11.167   4.993   0.651
81419SOL    HW246097  11.246   4.919   0.757
81420SOL     OW46098   4.516   4.559   6.997
81420SOL    HW146099   4.514   4.507   6.917
81420SOL    HW246100   4.505   4.649   6.968
81421SOL     OW46101   0.211  12.927  14.385
81421SOL    HW146102   0.215  12.845  14.335
81421SOL    HW246103   0.250  12.992  14.327
81422SOL     OW46104   0.056   6.593   8.822
81422SOL    HW146105   0.043   6.507   8.863
81422SOL    HW246106  14.861   6.602   8.762
81423SOL     OW46107  13.781   0.075  13.186
81423SOL    HW146108  13.832  14.874  13.195
81423SOL    HW246109  13.829   0.140  13.239
81424SOL     OW46110  11.411  11.766  10.563
81424SOL    HW146111  11.405  11.728  10.476
81424SOL    HW246112  11.320  11.784  10.588
81425SOL     OW46113  10.248   1.265   9.092
81425SOL    HW146114  10.342   1.279   9.107
81425SOL    HW246115  10.223   1.202   9.160
81426SOL     OW46116   6.217   5.513   3.131
81426SOL    HW146117   6.143   5.497   3.190
81426SOL    HW246118   6.196   5.464   3.052
81427SOL     OW46119  12.966   7.207  14.186
81427SOL    HW146120  12.998   7.296  14.168
81427SOL    HW246121  12.979   7.160  14.104
81428SOL     OW46122  11.887  11.716   7.970
81428SOL    HW146123  11.926  11.791   7.925
81428SOL    HW246124  11.958  11.653   7.979
81429SOL     OW46125  13.568   3.713   2.048
81429SOL    HW146126  13.654   3.718   2.089
81429SOL    HW246127  13.576   3.645   1.981
81430SOL     OW46128  12.556   1.364  11.752
81430SOL    HW146129  12.563   1.383  11.846
81430SOL    HW246130  12.463   1.346  11.738
81431SOL     OW46131   9.391   6.256  12.674
81431SOL    HW146132   9.306   6.269  12.716
81431SOL    HW246133   9.441   6.335  12.696
81432SOL     OW46134   6.453  14.106   1.649
81432SOL    HW146135   6.427  14.099   1.741
81432SOL    HW246136   6.443  14.199   1.628
81433SOL     OW46137   6.169   6.248  12.885
81433SOL    HW146138   6.170   6.344  12.887
81433SOL    HW246139   6.257   6.222  12.911
81434SOL     OW46140  11.157   6.936  12.854
81434SOL    HW146141  11.173   6.845  12.880
81434SOL    HW246142  11.243   6.977  12.856
81435SOL     OW46143   4.453  10.963   9.457
81435SOL    HW146144   4.475  11.015   9.380
81435SOL    HW246145   4.488  10.876   9.439
81436SOL     OW46146   7.380  10.408   8.976
81436SOL    HW146147   7.340  10.402   9.062
81436SOL    HW246148   7.406  10.500   8.967
81437SOL     OW46149  10.158  12.010   1.834
81437SOL    HW146150  10.246  11.980   1.857
81437SOL    HW246151  10.115  12.026   1.918
81438SOL     OW46152   0.005   5.340  13.723
81438SOL    HW146153  14.812   5.363  13.665
81438SOL    HW246154   0.077   5.397  13.695
81439SOL     OW46155   3.611   6.230   9.513
81439SOL    HW146156   3.544   6.167   9.539
81439SOL    HW246157   3.656   6.189   9.439
81440SOL     OW46158   0.934   7.671  12.023
81440SOL    HW146159   0.864   7.725  11.985
81440SOL    HW246160   0.897   7.583  12.027
81441SOL     OW46161   1.940  14.370   3.441
81441SOL    HW146162   2.014  14.397   3.387
81441SOL    HW246163   1.871  14.348   3.379
81442SOL     OW46164   3.544   0.920  10.745
81442SOL    HW146165   3.634   0.909  10.774
81442SOL    HW246166   3.521   1.010  10.767
81443SOL     OW46167   7.635   9.071  10.058
81443SOL    HW146168   7.679   8.998  10.015
81443SOL    HW246169   7.598   9.123   9.986
81444SOL     OW46170   3.586  10.005   3.024
81444SOL    HW146171   3.633  10.087   3.007
81444SOL    HW246172   3.607   9.950   2.949
81445SOL     OW46173   6.112  11.612   2.849
81445SOL    HW146174   6.085  11.597   2.758
81445SOL    HW246175   6.032  11.601   2.900
81446SOL     OW46176   4.862  14.061   7.899
81446SOL    HW146177   4.846  14.156   7.896
81446SOL    HW246178   4.844  14.032   7.809
81447SOL     OW46179  12.447   3.855   0.032
81447SOL    HW146180  12.391   3.857  14.834
81447SOL    HW246181  12.498   3.935   0.027
81448SOL     OW46182   8.021   6.514   3.369
81448SOL    HW146183   7.952   6.472   3.318
81448SOL    HW246184   7.979   6.535   3.453
81449SOL     OW46185   8.129   3.617   0.644
81449SOL    HW146186   8.135   3.543   0.704
81449SOL    HW246187   8.190   3.682   0.679
81450SOL     OW46188  14.669  10.602   0.649
81450SOL    HW146189  14.603  10.551   0.603
81450SOL    HW246190  14.619  10.658   0.709
81451SOL     OW46191   9.092   3.340   4.382
81451SOL    HW146192   9.037   3.278   4.429
81451SOL    HW246193   9.110   3.409   4.446
81452SOL     OW46194   2.208  13.783  13.844
81452SOL    HW146195   2.292  13.788  13.890
81452SOL    HW246196   2.209  13.859  13.786
81453SOL     OW46197   0.753   7.596   6.223
81453SOL    HW146198   0.672   7.642   6.204
81453SOL    HW246199   0.786   7.637   6.303
81454SOL     OW46200  13.032   2.743   4.202
81454SOL    HW146201  12.987   2.791   4.272
81454SOL    HW246202  13.110   2.706   4.245
81455SOL     OW46203   4.386   3.602   6.173
81455SOL    HW146204   4.295   3.619   6.197
81455SOL    HW246205   4.415   3.682   6.131
81456SOL     OW46206   1.889   7.661   5.114
81456SOL    HW146207   1.899   7.693   5.203
81456SOL    HW246208   1.821   7.716   5.076
81457SOL     OW46209   4.730  12.523   1.797
81457SOL    HW146210   4.720  12.483   1.711
81457SOL    HW246211   4.795  12.592   1.784
81458SOL     OW46212  10.678   9.087   7.495
81458SOL    HW146213  10.634   9.166   7.526
81458SOL    HW246214  10.771   9.103   7.511
81459SOL     OW46215  14.497   0.276   2.154
81459SOL    HW146216  14.424   0.309   2.102
81459SOL    HW246217  14.570   0.334   2.133
81460SOL     OW46218   1.295   3.751   6.549
81460SOL    HW146219   1.244   3.675   6.519
81460SOL    HW246220   1.320   3.796   6.468
81461SOL     OW46221  14.782  12.702   9.278
81461SOL    HW146222  14.860  12.663   9.239
81461SOL    HW246223  14.709  12.649   9.245
81462SOL     OW46224   3.016   2.043   4.417
81462SOL    HW146225   3.089   2.003   4.371
81462SOL    HW246226   2.979   1.973   4.471
81463SOL     OW46227   5.258  11.041  14.561
81463SOL    HW146228   5.236  11.029  14.653
81463SOL    HW246229   5.277  10.953  14.529
81464SOL     OW46230  13.035  10.136   2.277
81464SOL    HW146231  13.067  10.190   2.350
81464SOL    HW246232  12.982  10.196   2.225
81465SOL     OW46233  14.548   2.998   7.521
81465SOL    HW146234  14.575   3.083   7.555
81465SOL    HW246235  14.501   2.957   7.594
81466SOL     OW46236   4.755   4.853  10.810
81466SOL    HW146237   4.763   4.922  10.876
81466SOL    HW246238   4.664   4.824  10.816
81467SOL     OW46239  13.729  13.058  10.547
81467SOL    HW146240  13.655  13.118  10.535
81467SOL    HW246241  13.779  13.065  10.466
81468SOL     OW46242  12.285   3.792  14.034
81468SOL    HW146243  12.337   3.781  13.955
81468SOL    HW246244  12.200   3.822  14.003
81469SOL     OW46245  12.297   5.936  10.829
81469SOL    HW146246  12.269   6.028  10.823
81469SOL    HW246247  12.287   5.902  10.740
81470SOL     OW46248  12.024   8.971   7.242
81470SOL    HW146249  12.058   8.921   7.168
81470SOL    HW246250  11.934   8.939   7.252
81471SOL     OW46251  14.549   9.638   5.899
81471SOL    HW146252  14.541   9.558   5.952
81471SOL    HW246253  14.459   9.660   5.875
81472SOL     OW46254   3.610  14.594   2.554
81472SOL    HW146255   3.698  14.626   2.574
81472SOL    HW246256   3.608  14.586   2.459
81473SOL     OW46257   2.783   8.048   1.079
81473SOL    HW146258   2.781   7.974   1.019
81473SOL    HW246259   2.789   8.009   1.166
81474SOL     OW46260  13.154   0.911   4.618
81474SOL    HW146261  13.130   0.890   4.709
81474SOL    HW246262  13.249   0.912   4.619
81475SOL     OW46263   1.968   6.917  12.229
81475SOL    HW146264   1.945   6.984  12.294
81475SOL    HW246265   1.914   6.938  12.153
81476SOL     OW46266  11.972   4.613   5.887
81476SOL    HW146267  11.992   4.705   5.905
81476SOL    HW246268  12.008   4.597   5.800
81477SOL     OW46269  12.686   0.720   9.645
81477SOL    HW146270  12.712   0.768   9.566
81477SOL    HW246271  12.610   0.670   9.617
81478SOL     OW46272  11.964   7.314   3.857
81478SOL    HW146273  11.937   7.222   3.865
81478SOL    HW246274  11.933   7.355   3.938
81479SOL     OW46275   3.156  14.383  10.930
81479SOL    HW146276   3.111  14.457  10.972
81479SOL    HW246277   3.248  14.408  10.929
81480SOL     OW46278  10.686   7.420   6.345
81480SOL    HW146279  10.725   7.507   6.346
81480SOL    HW246280  10.711   7.383   6.260
81481SOL     OW46281   0.172  10.772  12.901
81481SOL    HW146282   0.117  10.750  12.826
81481SOL    HW246283   0.112  10.807  12.966
81482SOL     OW46284  10.190  13.058   2.404
81482SOL    HW146285  10.141  13.023   2.478
81482SOL    HW246286  10.281  13.032   2.421
81483SOL     OW46287   3.267   6.916   0.734
81483SOL    HW146288   3.195   6.977   0.750
81483SOL    HW246289   3.226   6.844   0.685
81484SOL     OW46290   7.535  13.732   5.236
81484SOL    HW146291   7.525  13.817   5.279
81484SOL    HW246292   7.578  13.677   5.301
81485SOL     OW46293  14.281   0.630   3.803
81485SOL    HW146294  14.187   0.637   3.785
81485SOL    HW246295  14.301   0.708   3.855
81486SOL     OW46296   3.387  13.680   2.721
81486SOL    HW146297   3.302  13.655   2.757
81486SOL    HW246298   3.409  13.762   2.766
81487SOL     OW46299  13.110   4.100   3.318
81487SOL    HW146300  13.138   4.179   3.273
81487SOL    HW246301  13.150   4.029   3.269
81488SOL     OW46302   7.128   8.542   0.386
81488SOL    HW146303   7.081   8.612   0.342
81488SOL    HW246304   7.186   8.586   0.448
81489SOL     OW46305   5.633   5.389  13.785
81489SOL    HW146306   5.657   5.479  13.761
81489SOL    HW246307   5.557   5.369  13.732
81490SOL     OW46308   3.791   6.646   0.981
81490SOL    HW146309   3.872   6.653   0.931
81490SOL    HW246310   3.782   6.552   0.999
81491SOL     OW46311  11.285  11.673   8.291
81491SOL    HW146312  11.330  11.619   8.227
81491SOL    HW246313  11.192  11.659   8.273
81492SOL     OW46314   4.796  11.223  10.720
81492SOL    HW146315   4.715  11.199  10.674
81492SOL    HW246316   4.818  11.309  10.686
81493SOL     OW46317  12.624   5.244   9.602
81493SOL    HW146318  12.539   5.286   9.588
81493SOL    HW246319  12.622   5.167   9.544
81494SOL     OW46320   5.986   8.200  11.416
81494SOL    HW146321   6.018   8.175  11.329
81494SOL    HW246322   6.065   8.220  11.466
81495SOL     OW46323   9.478   6.703   2.032
81495SOL    HW146324   9.539   6.697   1.959
81495SOL    HW246325   9.514   6.644   2.098
81496SOL     OW46326   1.525  13.714   2.164
81496SOL    HW146327   1.464  13.787   2.160
81496SOL    HW246328   1.554  13.712   2.255
81497SOL     OW46329   4.650   0.923   6.008
81497SOL    HW146330   4.663   0.828   6.002
81497SOL    HW246331   4.620   0.938   6.098
81498SOL     OW46332  11.206  10.704  13.043
81498SOL    HW146333  11.193  10.684  13.135
81498SOL    HW246334  11.228  10.620  13.003
81499SOL     OW46335  14.730   0.774  13.775
81499SOL    HW146336  14.735   0.700  13.715
81499SOL    HW246337  14.691   0.845  13.724
81500SOL     OW46338   8.264  11.299  10.576
81500SOL    HW146339   8.215  11.296  10.493
81500SOL    HW246340   8.213  11.244  10.636
81501SOL     OW46341  13.761  11.862  11.788
81501SOL    HW146342  13.692  11.873  11.722
81501SOL    HW246343  13.825  11.930  11.767
81502SOL     OW46344   3.756   2.791  11.096
81502SOL    HW146345   3.745   2.696  11.089
81502SOL    HW246346   3.727   2.824  11.011
81503SOL     OW46347  14.401   0.738   0.411
81503SOL    HW146348  14.319   0.718   0.367
81503SOL    HW246349  14.440   0.652   0.428
81504SOL     OW46350   5.873   2.957   2.347
81504SOL    HW146351   5.830   2.986   2.266
81504SOL    HW246352   5.818   2.886   2.378
81505SOL     OW46353   8.708   6.833  10.820
81505SOL    HW146354   8.685   6.747  10.856
81505SOL    HW246355   8.631   6.860  10.770
81506SOL     OW46356  11.567   7.949   1.336
81506SOL    HW146357  11.484   7.901   1.339
81506SOL    HW246358  11.555   8.012   1.266
81507SOL     OW46359   1.975   1.970   2.487
81507SOL    HW146360   1.973   1.875   2.469
81507SOL    HW246361   1.887   2.000   2.465
81508SOL     OW46362   9.512   5.624  13.882
81508SOL    HW146363   9.566   5.562  13.932
81508SOL    HW246364   9.432   5.633  13.935
81509SOL     OW46365  14.847  11.601   1.030
81509SOL    HW146366  14.843  11.507   1.049
81509SOL    HW246367   0.024  11.608   0.953
81510SOL     OW46368   9.735   9.489   4.538
81510SOL    HW146369   9.726   9.583   4.547
81510SOL    HW246370   9.729   9.455   4.627
81511SOL     OW46371   3.013   8.812  10.264
81511SOL    HW146372   2.980   8.890  10.310
81511SOL    HW246373   2.958   8.741  10.295
81512SOL     OW46374   9.668   8.544   9.932
81512SOL    HW146375   9.679   8.639   9.934
81512SOL    HW246376   9.649   8.524   9.840
81513SOL     OW46377   8.011  13.226  10.484
81513SOL    HW146378   7.975  13.297  10.537
81513SOL    HW246379   8.085  13.193  10.535
81514SOL     OW46380   0.829  13.883   8.164
81514SOL    HW146381   0.844  13.812   8.226
81514SOL    HW246382   0.868  13.960   8.205
81515SOL     OW46383   8.771   1.153   7.103
81515SOL    HW146384   8.844   1.104   7.140
81515SOL    HW246385   8.713   1.170   7.178
81516SOL     OW46386   9.369   2.332   8.860
81516SOL    HW146387   9.441   2.279   8.892
81516SOL    HW246388   9.297   2.314   8.920
81517SOL     OW46389   1.271  14.295  12.527
81517SOL    HW146390   1.281  14.289  12.432
81517SOL    HW246391   1.180  14.323  12.540
81518SOL     OW46392   2.975   4.602   9.859
81518SOL    HW146393   2.995   4.681   9.909
81518SOL    HW246394   3.014   4.619   9.773
81519SOL     OW46395   2.069   9.053  10.857
81519SOL    HW146396   2.005   9.108  10.902
81519SOL    HW246397   2.071   9.086  10.768
81520SOL     OW46398  11.642  10.335   2.276
81520SOL    HW146399  11.619  10.395   2.205
81520SOL    HW246400  11.732  10.357   2.299
81521SOL     OW46401   1.304  13.957   1.800
81521SOL    HW146402   1.333  14.040   1.838
81521SOL    HW246403   1.382  13.902   1.799
81522SOL     OW46404  12.460   0.171  12.447
81522SOL    HW146405  12.507   0.092  12.419
81522SOL    HW246406  12.489   0.239  12.386
81523SOL     OW46407  11.719   0.201   0.458
81523SOL    HW146408  11.681   0.116   0.438
81523SOL    HW246409  11.763   0.227   0.377
81524SOL     OW46410   9.837   1.897   6.519
81524SOL    HW146411   9.778   1.918   6.446
81524SOL    HW246412   9.884   1.979   6.534
81525SOL     OW46413   9.775  11.113   7.486
81525SOL    HW146414   9.859  11.109   7.441
81525SOL    HW246415   9.769  11.030   7.534
81526SOL     OW46416   7.848   7.300   3.806
81526SOL    HW146417   7.904   7.305   3.883
81526SOL    HW246418   7.759   7.312   3.840
81527SOL     OW46419   1.075   5.867   7.363
81527SOL    HW146420   1.078   5.844   7.456
81527SOL    HW246421   1.061   5.962   7.362
81528SOL     OW46422   4.562   3.263  13.010
81528SOL    HW146423   4.486   3.319  12.992
81528SOL    HW246424   4.532   3.174  12.988
81529SOL     OW46425  11.168   8.039  14.584
81529SOL    HW146426  11.202   8.002  14.665
81529SOL    HW246427  11.138   8.127  14.607
81530SOL     OW46428  14.545   4.539  13.940
81530SOL    HW146429  14.508   4.467  13.889
81530SOL    HW246430  14.638   4.539  13.916
81531SOL     OW46431   6.337  11.636  10.033
81531SOL    HW146432   6.272  11.588  10.086
81531SOL    HW246433   6.396  11.568  10.001
81532SOL     OW46434  14.701   7.316   1.452
81532SOL    HW146435  14.678   7.234   1.497
81532SOL    HW246436  14.733   7.373   1.521
81533SOL     OW46437  10.865   5.044  12.611
81533SOL    HW146438  10.948   5.010  12.576
81533SOL    HW246439  10.871   5.030  12.705
81534SOL     OW46440  10.386   2.345   5.026
81534SOL    HW146441  10.466   2.301   4.998
81534SOL    HW246442  10.402   2.438   5.007
81535SOL     OW46443   4.849  10.792   9.991
81535SOL    HW146444   4.936  10.764   9.963
81535SOL    HW246445   4.789  10.739   9.939
81536SOL     OW46446   1.346   4.702   3.838
81536SOL    HW146447   1.310   4.790   3.823
81536SOL    HW246448   1.314   4.650   3.765
81537SOL     OW46449   4.374   4.406   6.422
81537SOL    HW146450   4.290   4.363   6.438
81537SOL    HW246451   4.438   4.335   6.424
81538SOL     OW46452   0.043   9.555  10.758
81538SOL    HW146453   0.055   9.472  10.806
81538SOL    HW246454  14.852   9.537  10.696
81539SOL     OW46455  11.640   8.047   9.343
81539SOL    HW146456  11.563   8.043   9.399
81539SOL    HW246457  11.652   8.140   9.324
81540SOL     OW46458   2.104   9.222  12.899
81540SOL    HW146459   2.192   9.196  12.925
81540SOL    HW246460   2.116   9.262  12.812
81541SOL     OW46461   8.762   2.209   2.258
81541SOL    HW146462   8.679   2.166   2.281
81541SOL    HW246463   8.829   2.153   2.297
81542SOL     OW46464   2.332   1.260   1.727
81542SOL    HW146465   2.335   1.331   1.792
81542SOL    HW246466   2.415   1.268   1.679
81543SOL     OW46467   3.088   4.419  14.373
81543SOL    HW146468   3.100   4.418  14.278
81543SOL    HW246469   3.050   4.333  14.393
81544SOL     OW46470   5.324   7.910   8.712
81544SOL    HW146471   5.399   7.853   8.733
81544SOL    HW246472   5.342   7.940   8.623
81545SOL     OW46473  14.483  13.517  12.468
81545SOL    HW146474  14.554  13.486  12.414
81545SOL    HW246475  14.524  13.539  12.552
81546SOL     OW46476   1.654   1.221   8.708
81546SOL    HW146477   1.574   1.244   8.660
81546SOL    HW246478   1.725   1.254   8.652
81547SOL     OW46479  10.848   4.293  10.525
81547SOL    HW146480  10.814   4.283  10.436
81547SOL    HW246481  10.834   4.386  10.545
81548SOL     OW46482  13.428   6.272  13.826
81548SOL    HW146483  13.358   6.213  13.854
81548SOL    HW246484  13.385   6.355  13.811
81549SOL     OW46485  12.536   4.904   9.449
81549SOL    HW146486  12.558   4.994   9.427
81549SOL    HW246487  12.446   4.893   9.419
81550SOL     OW46488  13.548   2.465   0.274
81550SOL    HW146489  13.480   2.410   0.314
81550SOL    HW246490  13.622   2.406   0.261
81551SOL     OW46491  12.158  11.185   7.654
81551SOL    HW146492  12.238  11.224   7.619
81551SOL    HW246493  12.089  11.213   7.593
81552SOL     OW46494   9.467  13.429   9.705
81552SOL    HW146495   9.487  13.405   9.614
81552SOL    HW246496   9.500  13.518   9.714
81553SOL     OW46497   1.553  10.473   5.354
81553SOL    HW146498   1.612  10.538   5.316
81553SOL    HW246499   1.597  10.444   5.434
81554SOL     OW46500   2.181   7.702   2.359
81554SOL    HW146501   2.169   7.612   2.330
81554SOL    HW246502   2.232   7.743   2.289
81555SOL     OW46503   4.318   1.542  13.340
81555SOL    HW146504   4.325   1.460  13.388
81555SOL    HW246505   4.269   1.520  13.261
81556SOL     OW46506   9.987   6.641   3.716
81556SOL    HW146507  10.069   6.594   3.704
81556SOL    HW246508   9.960   6.620   3.806
81557SOL     OW46509   7.869   0.562  14.220
81557SOL    HW146510   7.910   0.550  14.134
81557SOL    HW246511   7.806   0.491  14.226
81558SOL     OW46512   6.859  14.213   6.808
81558SOL    HW146513   6.871  14.141   6.870
81558SOL    HW246514   6.766  14.210   6.786
81559SOL     OW46515   1.449   5.706  11.929
81559SOL    HW146516   1.364   5.663  11.937
81559SOL    HW246517   1.447   5.777  11.992
81560SOL     OW46518  10.979   2.887  12.419
81560SOL    HW146519  10.944   2.976  12.433
81560SOL    HW246520  10.932   2.833  12.483
81561SOL     OW46521   0.242  13.837  13.906
81561SOL    HW146522   0.210  13.891  13.834
81561SOL    HW246523   0.169  13.777  13.924
81562SOL     OW46524   0.915   9.337  13.150
81562SOL    HW146525   0.850   9.300  13.209
81562SOL    HW246526   0.932   9.267  13.087
81563SOL     OW46527   6.787   2.580   6.907
81563SOL    HW146528   6.760   2.549   6.993
81563SOL    HW246529   6.868   2.532   6.888
81564SOL     OW46530  14.086  12.064   2.630
81564SOL    HW146531  14.106  12.006   2.703
81564SOL    HW246532  14.013  12.022   2.585
81565SOL     OW46533   0.860   6.076   6.391
81565SOL    HW146534   0.832   6.031   6.311
81565SOL    HW246535   0.779   6.090   6.440
81566SOL     OW46536   1.416  10.780   8.028
81566SOL    HW146537   1.357  10.705   8.028
81566SOL    HW246538   1.365  10.850   8.069
81567SOL     OW46539   1.678   3.088   6.457
81567SOL    HW146540   1.587   3.088   6.429
81567SOL    HW246541   1.723   3.141   6.392
81568SOL     OW46542   4.715   7.716   6.027
81568SOL    HW146543   4.774   7.770   5.975
81568SOL    HW246544   4.648   7.686   5.966
81569SOL     OW46545   0.492   1.658  12.462
81569SOL    HW146546   0.566   1.619  12.415
81569SOL    HW246547   0.528   1.681  12.548
81570SOL     OW46548   7.740  14.669   0.514
81570SOL    HW146549   7.728  14.760   0.486
81570SOL    HW246550   7.800  14.632   0.449
81571SOL     OW46551   4.119  14.538  11.056
81571SOL    HW146552   4.052  14.481  11.094
81571SOL    HW246553   4.069  14.610  11.016
81572SOL     OW46554   6.737  13.611   6.415
81572SOL    HW146555   6.646  13.585   6.422
81572SOL    HW246556   6.786  13.531   6.432
81573SOL     OW46557   9.515   4.655   9.938
81573SOL    HW146558   9.449   4.711   9.897
81573SOL    HW246559   9.576   4.634   9.868
81574SOL     OW46560   1.904   9.965   4.948
81574SOL    HW146561   1.902  10.051   4.905
81574SOL    HW246562   1.940   9.982   5.035
81575SOL     OW46563   6.356   2.344  12.770
81575SOL    HW146564   6.298   2.392  12.710
81575SOL    HW246565   6.317   2.357  12.856
81576SOL     OW46566  12.746   8.409   6.437
81576SOL    HW146567  12.761   8.494   6.479
81576SOL    HW246568  12.830   8.363   6.444
81577SOL     OW46569   0.226   1.582  11.657
81577SOL    HW146570   0.132   1.588  11.640
81577SOL    HW246571   0.261   1.666  11.626
81578SOL     OW46572  13.558  13.412  12.821
81578SOL    HW146573  13.611  13.349  12.772
81578SOL    HW246574  13.533  13.478  12.757
81579SOL     OW46575  12.356   3.741   5.545
81579SOL    HW146576  12.268   3.751   5.510
81579SOL    HW246577  12.365   3.811   5.610
81580SOL     OW46578   6.096   3.773   7.422
81580SOL    HW146579   6.053   3.701   7.376
81580SOL    HW246580   6.190   3.759   7.406
81581SOL     OW46581  10.119  10.952   0.977
81581SOL    HW146582  10.153  10.864   0.996
81581SOL    HW246583  10.192  11.011   0.995
81582SOL     OW46584  10.029   5.894  11.980
81582SOL    HW146585  10.004   5.934  12.064
81582SOL    HW246586   9.958   5.834  11.960
81583SOL     OW46587   0.763  11.299   0.357
81583SOL    HW146588   0.819  11.282   0.282
81583SOL    HW246589   0.819  11.280   0.433
81584SOL     OW46590   9.842  12.109   7.676
81584SOL    HW146591   9.873  12.019   7.684
81584SOL    HW246592   9.752  12.107   7.708
81585SOL     OW46593   1.207   5.692   4.937
81585SOL    HW146594   1.243   5.775   4.967
81585SOL    HW246595   1.261   5.667   4.863
81586SOL     OW46596   9.069  14.237   5.176
81586SOL    HW146597   9.035  14.324   5.194
81586SOL    HW246598   9.158  14.252   5.142
81587SOL     OW46599  13.794  14.878   3.274
81587SOL    HW146600  13.845  14.831   3.208
81587SOL    HW246601  13.789  14.817   3.348
81588SOL     OW46602  12.511  12.271  11.749
81588SOL    HW146603  12.542  12.239  11.834
81588SOL    HW246604  12.490  12.191  11.700
81589SOL     OW46605   1.769   3.318   6.859
81589SOL    HW146606   1.733   3.403   6.886
81589SOL    HW246607   1.846   3.307   6.914
81590SOL     OW46608  14.178   1.175   9.744
81590SOL    HW146609  14.136   1.131   9.817
81590SOL    HW246610  14.240   1.236   9.785
81591SOL     OW46611  10.613   5.163   2.806
81591SOL    HW146612  10.663   5.237   2.842
81591SOL    HW246613  10.544   5.148   2.870
81592SOL     OW46614   1.188  14.014   9.054
81592SOL    HW146615   1.189  14.081   8.985
81592SOL    HW246616   1.266  14.033   9.106
81593SOL     OW46617   0.826   5.645   6.825
81593SOL    HW146618   0.818   5.647   6.921
81593SOL    HW246619   0.769   5.574   6.798
81594SOL     OW46620   2.319   7.194   1.936
81594SOL    HW146621   2.394   7.248   1.962
81594SOL    HW246622   2.263   7.192   2.014
81595SOL     OW46623   1.529   0.247   6.229
81595SOL    HW146624   1.622   0.251   6.253
81595SOL    HW246625   1.527   0.275   6.137
81596SOL     OW46626   6.100   6.315   5.349
81596SOL    HW146627   6.196   6.312   5.350
81596SOL    HW246628   6.073   6.224   5.338
81597SOL     OW46629   8.141  12.386   5.640
81597SOL    HW146630   8.109  12.413   5.726
81597SOL    HW246631   8.077  12.422   5.578
81598SOL     OW46632   9.082   2.327  11.253
81598SOL    HW146633   9.127   2.375  11.323
81598SOL    HW246634   9.038   2.255  11.298
81599SOL     OW46635  12.518  13.404   5.074
81599SOL    HW146636  12.479  13.483   5.038
81599SOL    HW246637  12.611  13.422   5.078
81600SOL     OW46638   7.401  10.576  11.767
81600SOL    HW146639   7.456  10.654  11.776
81600SOL    HW246640   7.403  10.536  11.854
81601SOL     OW46641   6.607   8.956   5.338
81601SOL    HW146642   6.519   8.953   5.300
81601SOL    HW246643   6.638   8.866   5.333
81602SOL     OW46644   4.015   5.945   7.076
81602SOL    HW146645   4.009   6.039   7.062
81602SOL    HW246646   4.099   5.931   7.118
81603SOL     OW46647   4.901   7.780  11.738
81603SOL    HW146648   4.993   7.793  11.716
81603SOL    HW246649   4.901   7.761  11.832
81604SOL     OW46650   8.579   2.592   9.853
81604SOL    HW146651   8.614   2.672   9.893
81604SOL    HW246652   8.496   2.577   9.899
81605SOL     OW46653  12.966  14.533  13.272
81605SOL    HW146654  12.985  14.614  13.319
81605SOL    HW246655  12.942  14.470  13.341
81606SOL     OW46656  14.368  10.152   6.939
81606SOL    HW146657  14.396  10.142   7.030
81606SOL    HW246658  14.450  10.167   6.891
81607SOL     OW46659   1.073   0.742   1.754
81607SOL    HW146660   1.108   0.781   1.674
81607SOL    HW246661   0.979   0.734   1.737
81608SOL     OW46662   1.162  14.437   9.054
81608SOL    HW146663   1.162  14.372   8.984
81608SOL    HW246664   1.188  14.388   9.132
81609SOL     OW46665  14.867   7.027   8.313
81609SOL    HW146666   0.018   7.113   8.342
81609SOL    HW246667  14.782   7.045   8.273
81610SOL     OW46668   5.043   0.509  10.426
81610SOL    HW146669   4.975   0.511  10.358
81610SOL    HW246670   5.093   0.430  10.408
81611SOL     OW46671  11.782   3.079   0.335
81611SOL    HW146672  11.801   3.172   0.318
81611SOL    HW246673  11.867   3.040   0.353
81612SOL     OW46674  11.749   7.021   4.768
81612SOL    HW146675  11.804   7.008   4.692
81612SOL    HW246676  11.740   7.117   4.775
81613SOL     OW46677   3.347   4.979   7.160
81613SOL    HW146678   3.295   5.032   7.220
81613SOL    HW246679   3.374   4.903   7.212
81614SOL     OW46680   7.018   3.545  11.169
81614SOL    HW146681   7.065   3.519  11.090
81614SOL    HW246682   6.962   3.471  11.190
81615SOL     OW46683   0.853  10.605   3.012
81615SOL    HW146684   0.777  10.557   3.047
81615SOL    HW246685   0.828  10.697   3.016
81616SOL     OW46686   2.309   5.253   2.065
81616SOL    HW146687   2.382   5.296   2.110
81616SOL    HW246688   2.316   5.283   1.974
81617SOL     OW46689  13.029   8.089   2.374
81617SOL    HW146690  13.109   8.037   2.364
81617SOL    HW246691  12.993   8.060   2.458
81618SOL     OW46692  12.846   6.896   3.733
81618SOL    HW146693  12.905   6.970   3.747
81618SOL    HW246694  12.885   6.847   3.661
81619SOL     OW46695   4.905   9.861  14.381
81619SOL    HW146696   4.999   9.850  14.397
81619SOL    HW246697   4.869   9.772  14.387
81620SOL     OW46698   1.657   6.482   3.246
81620SOL    HW146699   1.686   6.451   3.332
81620SOL    HW246700   1.655   6.404   3.192
81621SOL     OW46701   9.739   6.694  10.875
81621SOL    HW146702   9.658   6.656  10.843
81621SOL    HW246703   9.807   6.634  10.845
81622SOL     OW46704  11.156   9.072  12.969
81622SOL    HW146705  11.223   9.139  12.956
81622SOL    HW246706  11.179   9.002  12.909
81623SOL     OW46707  13.162   8.414   6.995
81623SOL    HW146708  13.215   8.492   6.977
81623SOL    HW246709  13.200   8.346   6.939
81624SOL     OW46710  11.641  13.259  12.501
81624SOL    HW146711  11.661  13.295  12.588
81624SOL    HW246712  11.725  13.226  12.469
81625SOL     OW46713   6.418   3.661   5.940
81625SOL    HW146714   6.359   3.643   5.866
81625SOL    HW246715   6.361   3.669   6.016
81626SOL     OW46716  13.840  12.884   0.818
81626SOL    HW146717  13.792  12.925   0.890
81626SOL    HW246718  13.791  12.910   0.739
81627SOL     OW46719  14.658   9.529   8.279
81627SOL    HW146720  14.735   9.509   8.226
81627SOL    HW246721  14.614   9.444   8.289
81628SOL     OW46722  14.451  13.272   2.512
81628SOL    HW146723  14.520  13.323   2.470
81628SOL    HW246724  14.388  13.338   2.542
81629SOL     OW46725   5.162  14.848   1.942
81629SOL    HW146726   5.091  14.835   2.005
81629SOL    HW246727   5.168  14.765   1.894
81630SOL     OW46728   7.084   2.106  11.735
81630SOL    HW146729   7.078   2.178  11.673
81630SOL    HW246730   7.142   2.043  11.694
81631SOL     OW46731   4.131   5.889  11.577
81631SOL    HW146732   4.120   5.850  11.490
81631SOL    HW246733   4.101   5.821  11.637
81632SOL     OW46734  11.251   2.102   8.394
81632SOL    HW146735  11.173   2.077   8.444
81632SOL    HW246736  11.320   2.042   8.426
81633SOL     OW46737   8.644   6.963   4.731
81633SOL    HW146738   8.645   7.052   4.768
81633SOL    HW246739   8.564   6.924   4.766
81634SOL     OW46740   9.113   2.650  12.789
81634SOL    HW146741   9.168   2.599  12.848
81634SOL    HW246742   9.174   2.709  12.744
81635SOL     OW46743   1.161  12.551   7.115
81635SOL    HW146744   1.210  12.510   7.187
81635SOL    HW246745   1.213  12.628   7.092
81636SOL     OW46746   5.684   3.302   0.319
81636SOL    HW146747   5.679   3.294   0.414
81636SOL    HW246748   5.702   3.394   0.303
81637SOL     OW46749  14.207   6.032   9.324
81637SOL    HW146750  14.213   5.937   9.314
81637SOL    HW246751  14.287   6.065   9.284
81638SOL     OW46752   9.149  11.915  12.044
81638SOL    HW146753   9.229  11.899  12.095
81638SOL    HW246754   9.142  12.011  12.040
81639SOL     OW46755   2.580   7.014  12.874
81639SOL    HW146756   2.513   6.952  12.902
81639SOL    HW246757   2.649   7.008  12.940
81640SOL     OW46758   8.048  10.653   6.474
81640SOL    HW146759   8.080  10.586   6.413
81640SOL    HW246760   8.005  10.604   6.544
81641SOL     OW46761  12.534   7.722   9.596
81641SOL    HW146762  12.623   7.753   9.578
81641SOL    HW246763  12.518   7.655   9.529
81642SOL     OW46764   0.334  14.656  13.328
81642SOL    HW146765   0.288  14.573  13.314
81642SOL    HW246766   0.344  14.693  13.241
81643SOL     OW46767  12.284   9.739   4.722
81643SOL    HW146768  12.304   9.792   4.645
81643SOL    HW246769  12.229   9.669   4.688
81644SOL     OW46770   3.275  13.028  12.604
81644SOL    HW146771   3.264  13.105  12.548
81644SOL    HW246772   3.341  12.975  12.558
81645SOL     OW46773   2.775   6.714   6.115
81645SOL    HW146774   2.812   6.791   6.071
81645SOL    HW246775   2.756   6.652   6.044
81646SOL     OW46776  11.741   8.917   4.721
81646SOL    HW146777  11.663   8.961   4.686
81646SOL    HW246778  11.708   8.833   4.753
81647SOL     OW46779  14.419   3.589   7.989
81647SOL    HW146780  14.405   3.508   8.039
81647SOL    HW246781  14.514   3.599   7.987
81648SOL     OW46782   0.048  14.470   6.538
81648SOL    HW146783   0.019  14.562   6.543
81648SOL    HW246784   0.049  14.450   6.445
81649SOL     OW46785   0.481   6.595   0.812
81649SOL    HW146786   0.395   6.627   0.784
81649SOL    HW246787   0.536   6.603   0.735
81650SOL     OW46788  10.406  12.129  14.083
81650SOL    HW146789  10.408  12.202  14.021
81650SOL    HW246790  10.482  12.076  14.060
81651SOL     OW46791  10.926  11.709   3.538
81651SOL    HW146792  10.931  11.625   3.584
81651SOL    HW246793  10.971  11.694   3.455
81652SOL     OW46794   0.147   4.700   9.197
81652SOL    HW146795   0.179   4.695   9.107
81652SOL    HW246796   0.054   4.723   9.187
81653SOL     OW46797  13.245   6.484  12.904
81653SOL    HW146798  13.211   6.423  12.838
81653SOL    HW246799  13.180   6.554  12.906
81654SOL     OW46800  14.100   4.115  13.106
81654SOL    HW146801  14.171   4.092  13.046
81654SOL    HW246802  14.108   4.209  13.119
81655SOL     OW46803   9.018   3.674   7.421
81655SOL    HW146804   9.058   3.620   7.488
81655SOL    HW246805   9.091   3.713   7.374
81656SOL     OW46806  13.289   8.936  14.253
81656SOL    HW146807  13.219   8.876  14.230
81656SOL    HW246808  13.369   8.887  14.235
81657SOL     OW46809  13.542  12.598   3.135
81657SOL    HW146810  13.606  12.631   3.199
81657SOL    HW246811  13.487  12.539   3.186
81658SOL     OW46812   6.637  10.933   1.516
81658SOL    HW146813   6.579  10.865   1.550
81658SOL    HW246814   6.685  10.890   1.445
81659SOL     OW46815   9.688   4.888  13.892
81659SOL    HW146816   9.680   4.795  13.871
81659SOL    HW246817   9.779   4.899  13.918
81660SOL     OW46818   1.032   7.683  13.980
81660SOL    HW146819   0.961   7.746  13.991
81660SOL    HW246820   1.092   7.701  14.052
81661SOL     OW46821  12.696   7.183  12.246
81661SOL    HW146822  12.726   7.107  12.296
81661SOL    HW246823  12.645   7.146  12.174
81662SOL     OW46824   8.374  11.436   1.779
81662SOL    HW146825   8.394  11.472   1.865
81662SOL    HW246826   8.409  11.347   1.781
81663SOL     OW46827   8.451  10.295   2.468
81663SOL    HW146828   8.429  10.233   2.398
81663SOL    HW246829   8.529  10.340   2.435
81664SOL     OW46830   7.336   4.065  13.847
81664SOL    HW146831   7.370   4.019  13.924
81664SOL    HW246832   7.271   4.005  13.810
81665SOL     OW46833   0.747   7.981   7.719
81665SOL    HW146834   0.759   7.914   7.651
81665SOL    HW246835   0.772   7.938   7.800
81666SOL     OW46836   0.575   7.150   2.392
81666SOL    HW146837   0.664   7.165   2.422
81666SOL    HW246838   0.527   7.123   2.471
81667SOL     OW46839   7.238   7.531   8.096
81667SOL    HW146840   7.186   7.556   8.020
81667SOL    HW246841   7.258   7.613   8.140
81668SOL     OW46842  14.588  10.712   6.639
81668SOL    HW146843  14.554  10.626   6.615
81668SOL    HW246844  14.683  10.703   6.630
81669SOL     OW46845   0.049   6.713   6.102
81669SOL    HW146846   0.106   6.769   6.154
81669SOL    HW246847   0.056   6.627   6.143
81670SOL     OW46848   9.525   1.507  14.051
81670SOL    HW146849   9.511   1.572  14.119
81670SOL    HW246850   9.520   1.423  14.096
81671SOL     OW46851   4.202   3.447   1.399
81671SOL    HW146852   4.142   3.521   1.410
81671SOL    HW246853   4.189   3.419   1.309
81672SOL     OW46854   9.329   6.622   0.817
81672SOL    HW146855   9.292   6.589   0.899
81672SOL    HW246856   9.423   6.601   0.823
81673SOL     OW46857  10.649   1.849   3.160
81673SOL    HW146858  10.563   1.883   3.135
81673SOL    HW246859  10.710   1.891   3.099
81674SOL     OW46860   0.601   3.692   4.434
81674SOL    HW146861   0.611   3.766   4.495
81674SOL    HW246862   0.541   3.724   4.367
81675SOL     OW46863   8.278  10.189   5.565
81675SOL    HW146864   8.314  10.192   5.476
81675SOL    HW246865   8.244  10.277   5.580
81676SOL     OW46866   0.927   6.494   6.224
81676SOL    HW146867   0.879   6.448   6.155
81676SOL    HW246868   0.949   6.579   6.186
81677SOL     OW46869  14.053   3.370  14.002
81677SOL    HW146870  14.098   3.292  14.034
81677SOL    HW246871  14.121   3.437  14.001
81678SOL     OW46872  13.256  11.355  14.134
81678SOL    HW146873  13.219  11.288  14.076
81678SOL    HW246874  13.232  11.438  14.093
81679SOL     OW46875   4.425   5.641   3.286
81679SOL    HW146876   4.423   5.571   3.221
81679SOL    HW246877   4.357   5.618   3.349
81680SOL     OW46878  12.778   0.381  14.520
81680SOL    HW146879  12.849   0.400  14.459
81680SOL    HW246880  12.716   0.453  14.508
81681SOL     OW46881   2.266   2.496   2.750
81681SOL    HW146882   2.336   2.437   2.775
81681SOL    HW246883   2.301   2.584   2.768
81682SOL     OW46884   0.828   2.664  10.207
81682SOL    HW146885   0.909   2.695  10.248
81682SOL    HW246886   0.774   2.634  10.281
81683SOL     OW46887  13.701   2.737   1.763
81683SOL    HW146888  13.636   2.673   1.737
81683SOL    HW246889  13.709   2.727   1.858
81684SOL     OW46890   7.663   5.329  10.271
81684SOL    HW146891   7.754   5.302  10.258
81684SOL    HW246892   7.634   5.357  10.184
81685SOL     OW46893   9.015   8.307   3.657
81685SOL    HW146894   9.015   8.268   3.744
81685SOL    HW246895   9.107   8.328   3.640
81686SOL     OW46896   6.238   8.344  10.034
81686SOL    HW146897   6.284   8.327  10.116
81686SOL    HW246898   6.210   8.257  10.004
81687SOL     OW46899   8.878  14.243  12.531
81687SOL    HW146900   8.840  14.271  12.614
81687SOL    HW246901   8.819  14.279  12.465
81688SOL     OW46902   8.586   9.256   1.248
81688SOL    HW146903   8.532   9.247   1.326
81688SOL    HW246904   8.549   9.194   1.185
81689SOL     OW46905   0.659  13.815   6.089
81689SOL    HW146906   0.691  13.903   6.066
81689SOL    HW246907   0.681  13.761   6.014
81690SOL     OW46908   9.838   8.822  12.400
81690SOL    HW146909   9.896   8.827  12.475
81690SOL    HW246910   9.851   8.904  12.353
81691SOL     OW46911  14.796   4.184  11.455
81691SOL    HW146912  14.714   4.161  11.411
81691SOL    HW246913  14.788   4.147  11.542
81692SOL     OW46914   3.275   8.572   9.603
81692SOL    HW146915   3.313   8.613   9.526
81692SOL    HW246916   3.268   8.642   9.667
81693SOL     OW46917   4.941   1.403  11.855
81693SOL    HW146918   5.002   1.329  11.849
81693SOL    HW246919   4.900   1.407  11.769
81694SOL     OW46920  13.693   0.682   2.079
81694SOL    HW146921  13.704   0.653   1.988
81694SOL    HW246922  13.603   0.658   2.101
81695SOL     OW46923   8.846   8.756   5.835
81695SOL    HW146924   8.894   8.707   5.902
81695SOL    HW246925   8.803   8.826   5.883
81696SOL     OW46926  14.136   4.033  10.290
81696SOL    HW146927  14.056   4.080  10.266
81696SOL    HW246928  14.196   4.049  10.218
81697SOL     OW46929   0.003   9.340  13.813
81697SOL    HW146930   0.018   9.274  13.745
81697SOL    HW246931   0.078   9.399  13.806
81698SOL     OW46932   5.432  10.411   7.434
81698SOL    HW146933   5.422  10.473   7.507
81698SOL    HW246934   5.507  10.357   7.459
81699SOL     OW46935   9.222  11.084  11.953
81699SOL    HW146936   9.249  11.022  11.885
81699SOL    HW246937   9.220  11.032  12.033
81700SOL     OW46938   0.689  10.018  10.844
81700SOL    HW146939   0.646   9.934  10.858
81700SOL    HW246940   0.674  10.067  10.925
81701SOL     OW46941   2.996   5.864  11.167
81701SOL    HW146942   2.996   5.943  11.112
81701SOL    HW246943   2.919   5.875  11.223
81702SOL     OW46944   2.203   5.655   3.781
81702SOL    HW146945   2.193   5.741   3.822
81702SOL    HW246946   2.289   5.625   3.811
81703SOL     OW46947  13.754   2.555   3.712
81703SOL    HW146948  13.661   2.531   3.720
81703SOL    HW246949  13.752   2.645   3.677
81704SOL     OW46950   9.344   5.082  12.539
81704SOL    HW146951   9.390   5.009  12.496
81704SOL    HW246952   9.409   5.152  12.543
81705SOL     OW46953  13.724   5.956  10.121
81705SOL    HW146954  13.766   6.031  10.164
81705SOL    HW246955  13.632   5.980  10.115
81706SOL     OW46956  12.414   5.227   5.347
81706SOL    HW146957  12.338   5.219   5.405
81706SOL    HW246958  12.419   5.143   5.302
81707SOL     OW46959   4.875   0.227   2.665
81707SOL    HW146960   4.838   0.234   2.576
81707SOL    HW246961   4.963   0.192   2.651
81708SOL     OW46962   9.871   0.056   2.817
81708SOL    HW146963   9.887   0.111   2.741
81708SOL    HW246964   9.794   0.096   2.859
81709SOL     OW46965  13.432   9.409  11.654
81709SOL    HW146966  13.500   9.450  11.708
81709SOL    HW246967  13.450   9.315  11.661
81710SOL     OW46968  14.698   5.865  13.187
81710SOL    HW146969  14.706   5.778  13.147
81710SOL    HW246970  14.646   5.915  13.125
81711SOL     OW46971   7.628   8.705   0.696
81711SOL    HW146972   7.570   8.779   0.681
81711SOL    HW246973   7.676   8.728   0.775
81712SOL     OW46974  14.603  11.198   7.500
81712SOL    HW146975  14.524  11.193   7.446
81712SOL    HW246976  14.661  11.132   7.464
81713SOL     OW46977   3.761   7.506   2.380
81713SOL    HW146978   3.696   7.576   2.374
81713SOL    HW246979   3.747   7.453   2.302
81714SOL     OW46980   6.965   7.681   5.273
81714SOL    HW146981   6.931   7.745   5.210
81714SOL    HW246982   7.057   7.670   5.250
81715SOL     OW46983   9.503  11.753   2.844
81715SOL    HW146984   9.427  11.752   2.787
81715SOL    HW246985   9.521  11.661   2.863
81716SOL     OW46986   5.515   4.007   0.055
81716SOL    HW146987   5.448   4.049   0.108
81716SOL    HW246988   5.487   4.020  14.844
81717SOL     OW46989  10.362  11.407   1.913
81717SOL    HW146990  10.358  11.492   1.870
81717SOL    HW246991  10.271  11.376   1.912
81718SOL     OW46992   6.263   7.725   6.989
81718SOL    HW146993   6.278   7.758   7.078
81718SOL    HW246994   6.184   7.671   6.996
81719SOL     OW46995   0.950   3.306   9.963
81719SOL    HW146996   1.031   3.266   9.931
81719SOL    HW246997   0.968   3.399   9.968
81720SOL     OW46998  10.534  11.828   5.025
81720SOL    HW146999  10.485  11.803   5.104
81720SOL    HW247000  10.467  11.836   4.957
81721SOL     OW47001  13.589  12.157  12.189
81721SOL    HW147002  13.608  12.085  12.129
81721SOL    HW247003  13.547  12.116  12.264
81722SOL     OW47004   7.714   9.109   6.367
81722SOL    HW147005   7.747   9.187   6.410
81722SOL    HW247006   7.652   9.071   6.429
81723SOL     OW47007  12.335  14.408   1.794
81723SOL    HW147008  12.328  14.432   1.886
81723SOL    HW247009  12.350  14.491   1.749
81724SOL     OW47010  11.146   7.331   2.277
81724SOL    HW147011  11.222   7.291   2.319
81724SOL    HW247012  11.077   7.326   2.344
81725SOL     OW47013   2.360   9.673  11.441
81725SOL    HW147014   2.294   9.734  11.474
81725SOL    HW247015   2.440   9.725  11.432
81726SOL     OW47016   7.188  11.061   3.587
81726SOL    HW147017   7.098  11.080   3.561
81726SOL    HW247018   7.191  10.965   3.592
81727SOL     OW47019  12.315   0.372   5.098
81727SOL    HW147020  12.220   0.364   5.106
81727SOL    HW247021  12.342   0.417   5.178
81728SOL     OW47022  10.991  10.082   1.641
81728SOL    HW147023  10.955  10.011   1.694
81728SOL    HW247024  10.987  10.159   1.698
81729SOL     OW47025   6.488   9.505  13.632
81729SOL    HW147026   6.478   9.459  13.715
81729SOL    HW247027   6.401   9.541  13.614
81730SOL     OW47028  11.261   8.788   4.173
81730SOL    HW147029  11.291   8.855   4.235
81730SOL    HW247030  11.263   8.707   4.223
81731SOL     OW47031   0.869   9.026  14.097
81731SOL    HW147032   0.808   9.097  14.080
81731SOL    HW247033   0.895   8.996  14.010
81732SOL     OW47034   1.497   7.609   7.265
81732SOL    HW147035   1.455   7.594   7.180
81732SOL    HW247036   1.541   7.526   7.285
81733SOL     OW47037   2.652   6.415  10.785
81733SOL    HW147038   2.673   6.425  10.878
81733SOL    HW247039   2.630   6.503  10.755
81734SOL     OW47040   7.085   0.125  13.894
81734SOL    HW147041   7.106   0.083  13.811
81734SOL    HW247042   6.991   0.108  13.906
81735SOL     OW47043   6.608   7.957  13.015
81735SOL    HW147044   6.601   8.012  13.093
81735SOL    HW247045   6.700   7.929  13.014
81736SOL     OW47046   3.858   7.195   5.195
81736SOL    HW147047   3.848   7.252   5.272
81736SOL    HW247048   3.816   7.243   5.124
81737SOL     OW47049   1.325   4.168   3.677
81737SOL    HW147050   1.276   4.104   3.627
81737SOL    HW247051   1.296   4.156   3.767
81738SOL     OW47052   6.641   6.850   3.560
81738SOL    HW147053   6.687   6.926   3.524
81738SOL    HW247054   6.570   6.887   3.611
81739SOL     OW47055   3.577   5.594   7.281
81739SOL    HW147056   3.667   5.561   7.287
81739SOL    HW247057   3.536   5.567   7.363
81740SOL     OW47058  14.507   4.779   5.340
81740SOL    HW147059  14.517   4.692   5.303
81740SOL    HW247060  14.478   4.834   5.267
81741SOL     OW47061  10.186   8.317   8.332
81741SOL    HW147062  10.275   8.349   8.347
81741SOL    HW247063  10.184   8.294   8.239
81742SOL     OW47064   1.568   0.486   2.813
81742SOL    HW147065   1.609   0.530   2.887
81742SOL    HW247066   1.477   0.516   2.814
81743SOL     OW47067   9.177   1.282   3.571
81743SOL    HW147068   9.199   1.374   3.562
81743SOL    HW247069   9.188   1.246   3.482
81744SOL     OW47070  10.294   2.071  14.106
81744SOL    HW147071  10.371   2.021  14.078
81744SOL    HW247072  10.324   2.121  14.182
81745SOL     OW47073  13.071   9.293  13.764
81745SOL    HW147074  13.080   9.383  13.733
81745SOL    HW247075  13.023   9.248  13.695
81746SOL     OW47076   9.278   7.415   3.324
81746SOL    HW147077   9.353   7.377   3.280
81746SOL    HW247078   9.315   7.480   3.384
81747SOL     OW47079   8.021   3.786  11.040
81747SOL    HW147080   7.962   3.744  11.103
81747SOL    HW247081   8.013   3.880  11.059
81748SOL     OW47082   6.151   5.888   7.253
81748SOL    HW147083   6.210   5.961   7.270
81748SOL    HW247084   6.138   5.848   7.339
81749SOL     OW47085   8.999   8.837  13.842
81749SOL    HW147086   8.933   8.790  13.894
81749SOL    HW247087   8.974   8.929  13.849
81750SOL     OW47088   1.953   2.549   3.530
81750SOL    HW147089   1.992   2.529   3.616
81750SOL    HW247090   1.979   2.475   3.475
81751SOL     OW47091  13.962  14.780  12.295
81751SOL    HW147092  13.953  14.704  12.353
81751SOL    HW247093  13.942  14.745  12.208
81752SOL     OW47094  10.945   1.613   8.885
81752SOL    HW147095  10.936   1.607   8.980
81752SOL    HW247096  11.026   1.565   8.865
81753SOL     OW47097  12.207   8.148  11.989
81753SOL    HW147098  12.168   8.180  12.070
81753SOL    HW247099  12.148   8.181  11.920
81754SOL     OW47100   7.799  13.142   2.561
81754SOL    HW147101   7.859  13.114   2.492
81754SOL    HW247102   7.713  13.142   2.520
81755SOL     OW47103   4.675   1.486   7.393
81755SOL    HW147104   4.717   1.546   7.331
81755SOL    HW247105   4.747   1.431   7.424
81756SOL     OW47106   5.318  14.861   1.452
81756SOL    HW147107   5.255  14.843   1.522
81756SOL    HW247108   5.281  14.818   1.375
81757SOL     OW47109   0.069  14.081  12.748
81757SOL    HW147110   0.045  14.042  12.832
81757SOL    HW247111  14.870  14.127  12.719
81758SOL     OW47112   3.706   7.785  13.282
81758SOL    HW147113   3.651   7.791  13.360
81758SOL    HW247114   3.646   7.766  13.211
81759SOL     OW47115  14.480   8.929   5.041
81759SOL    HW147116  14.542   8.892   4.977
81759SOL    HW247117  14.431   8.994   4.991
81760SOL     OW47118   0.745   4.129   7.272
81760SOL    HW147119   0.694   4.060   7.313
81760SOL    HW247120   0.751   4.103   7.180
81761SOL     OW47121   0.451   1.617  11.822
81761SOL    HW147122   0.376   1.587  11.770
81761SOL    HW247123   0.500   1.674  11.763
81762SOL     OW47124  13.201   1.564  12.697
81762SOL    HW147125  13.289   1.553  12.731
81762SOL    HW247126  13.182   1.657  12.706
81763SOL     OW47127   8.752   6.977  12.206
81763SOL    HW147128   8.805   7.035  12.151
81763SOL    HW247129   8.666   7.017  12.208
81764SOL     OW47130   3.323   5.714   9.304
81764SOL    HW147131   3.297   5.649   9.369
81764SOL    HW247132   3.333   5.795   9.353
81765SOL     OW47133   6.745  14.861   7.580
81765SOL    HW147134   6.713  14.814   7.503
81765SOL    HW247135   6.719   0.072   7.566
81766SOL     OW47136   7.800  13.043   0.746
81766SOL    HW147137   7.854  13.003   0.814
81766SOL    HW247138   7.861  13.064   0.675
81767SOL     OW47139   1.842  11.181  13.126
81767SOL    HW147140   1.833  11.160  13.219
81767SOL    HW247141   1.924  11.138  13.099
81768SOL     OW47142   3.237   7.513  10.453
81768SOL    HW147143   3.221   7.453  10.525
81768SOL    HW247144   3.168   7.495  10.390
81769SOL     OW47145   3.152   3.101   4.089
81769SOL    HW147146   3.073   3.060   4.125
81769SOL    HW247147   3.120   3.174   4.037
81770SOL     OW47148  11.501   5.439   4.812
81770SOL    HW147149  11.436   5.385   4.856
81770SOL    HW247150  11.520   5.510   4.873
81771SOL     OW47151   9.496  10.389   3.744
81771SOL    HW147152   9.420  10.331   3.742
81771SOL    HW247153   9.568  10.334   3.713
81772SOL     OW47154  14.169   8.683   4.042
81772SOL    HW147155  14.081   8.646   4.045
81772SOL    HW247156  14.167   8.743   3.967
81773SOL     OW47157   7.812   6.433   8.035
81773SOL    HW147158   7.878   6.445   8.104
81773SOL    HW247159   7.863   6.416   7.956
81774SOL     OW47160   0.718   8.770  12.166
81774SOL    HW147161   0.733   8.677  12.146
81774SOL    HW247162   0.765   8.785  12.248
81775SOL     OW47163  10.948   6.269  11.134
81775SOL    HW147164  11.008   6.340  11.158
81775SOL    HW247165  10.990   6.227  11.059
81776SOL     OW47166   7.764  12.480  12.385
81776SOL    HW147167   7.684  12.428  12.379
81776SOL    HW247168   7.809  12.447  12.463
81777SOL     OW47169  10.707  10.312   6.671
81777SOL    HW147170  10.691  10.317   6.765
81777SOL    HW247171  10.619  10.315   6.632
81778SOL     OW47172  10.867   6.326  12.533
81778SOL    HW147173  10.879   6.232  12.518
81778SOL    HW247174  10.837   6.360  12.448
81779SOL     OW47175   6.379   6.665   4.399
81779SOL    HW147176   6.326   6.719   4.341
81779SOL    HW247177   6.447   6.628   4.343
81780SOL     OW47178  11.299  12.448   8.782
81780SOL    HW147179  11.370  12.430   8.721
81780SOL    HW247180  11.229  12.388   8.757
81781SOL     OW47181  10.670  14.307  12.725
81781SOL    HW147182  10.737  14.257  12.679
81781SOL    HW247183  10.592  14.298  12.670
81782SOL     OW47184   7.088  14.780   1.625
81782SOL    HW147185   7.134  14.802   1.706
81782SOL    HW247186   7.143  14.715   1.582
81783SOL     OW47187  13.617   0.263   5.937
81783SOL    HW147188  13.624   0.357   5.919
81783SOL    HW247189  13.699   0.226   5.905
81784SOL     OW47190   4.889   5.136   6.815
81784SOL    HW147191   4.850   5.190   6.747
81784SOL    HW247192   4.822   5.131   6.883
81785SOL     OW47193   9.895  10.315  11.146
81785SOL    HW147194   9.876  10.401  11.109
81785SOL    HW247195   9.902  10.257  11.069
81786SOL     OW47196   6.346   8.686  11.307
81786SOL    HW147197   6.332   8.773  11.269
81786SOL    HW247198   6.275   8.676  11.370
81787SOL     OW47199   4.977   9.981  11.024
81787SOL    HW147200   4.930  10.058  10.993
81787SOL    HW247201   4.925   9.907  10.993
81788SOL     OW47202  10.428   9.530   4.663
81788SOL    HW147203  10.361   9.567   4.721
81788SOL    HW247204  10.485   9.604   4.643
81789SOL     OW47205   3.978  13.882   3.631
81789SOL    HW147206   3.947  13.792   3.624
81789SOL    HW247207   4.046  13.879   3.698
81790SOL     OW47208   4.340   6.505   1.914
81790SOL    HW147209   4.420   6.494   1.967
81790SOL    HW247210   4.371   6.538   1.830
81791SOL     OW47211   4.693  11.820   3.428
81791SOL    HW147212   4.786  11.811   3.408
81791SOL    HW247213   4.659  11.878   3.360
81792SOL     OW47214   5.409  10.871   0.401
81792SOL    HW147215   5.317  10.893   0.413
81792SOL    HW247216   5.413  10.776   0.415
81793SOL     OW47217   8.895   9.009   1.475
81793SOL    HW147218   8.982   8.992   1.510
81793SOL    HW247219   8.836   8.981   1.545
81794SOL     OW47220   6.798   6.588   1.643
81794SOL    HW147221   6.874   6.590   1.585
81794SOL    HW247222   6.742   6.660   1.613
81795SOL     OW47223  10.223   6.947   7.144
81795SOL    HW147224  10.270   7.030   7.134
81795SOL    HW247225  10.132   6.968   7.125
81796SOL     OW47226   6.632   3.239  10.350
81796SOL    HW147227   6.691   3.193  10.290
81796SOL    HW247228   6.549   3.193  10.341
81797SOL     OW47229  14.574  14.194  11.700
81797SOL    HW147230  14.653  14.220  11.748
81797SOL    HW247231  14.607  14.137  11.630
81798SOL     OW47232   8.255   4.920  14.686
81798SOL    HW147233   8.208   5.000  14.710
81798SOL    HW247234   8.247   4.915  14.591
81799SOL     OW47235  12.549   9.436   3.816
81799SOL    HW147236  12.506   9.486   3.747
81799SOL    HW247237  12.580   9.356   3.773
81800SOL     OW47238   8.428   6.644   5.436
81800SOL    HW147239   8.508   6.660   5.487
81800SOL    HW247240   8.423   6.717   5.375
81801SOL     OW47241  11.820  12.796   7.573
81801SOL    HW147242  11.865  12.873   7.608
81801SOL    HW247243  11.731  12.802   7.607
81802SOL     OW47244   4.713   6.682  14.115
81802SOL    HW147245   4.642   6.618  14.107
81802SOL    HW247246   4.760   6.675  14.032
81803SOL     OW47247   2.199  12.587   0.870
81803SOL    HW147248   2.113  12.557   0.841
81803SOL    HW247249   2.252  12.591   0.790
81804SOL     OW47250   1.967  10.006  11.706
81804SOL    HW147251   2.007  10.063  11.772
81804SOL    HW247252   1.918   9.941  11.758
81805SOL     OW47253   9.755   2.390  12.794
81805SOL    HW147254   9.847   2.363  12.792
81805SOL    HW247255   9.752   2.471  12.744
81806SOL     OW47256  10.923   6.452   2.221
81806SOL    HW147257  10.900   6.408   2.303
81806SOL    HW247258  10.859   6.522   2.212
81807SOL     OW47259   4.278   9.784  13.280
81807SOL    HW147260   4.318   9.870  13.272
81807SOL    HW247261   4.203   9.787  13.220
81808SOL     OW47262   2.399   4.785   8.976
81808SOL    HW147263   2.364   4.770   9.064
81808SOL    HW247264   2.461   4.857   8.987
81809SOL     OW47265  13.943  10.922   0.478
81809SOL    HW147266  13.914  11.009   0.504
81809SOL    HW247267  13.864  10.868   0.480
81810SOL     OW47268   4.336   7.890   6.538
81810SOL    HW147269   4.259   7.900   6.594
81810SOL    HW247270   4.325   7.956   6.470
81811SOL     OW47271   6.348   7.824   2.644
81811SOL    HW147272   6.427   7.856   2.687
81811SOL    HW247273   6.336   7.736   2.679
81812SOL     OW47274   3.847  11.563  10.964
81812SOL    HW147275   3.909  11.605  10.904
81812SOL    HW247276   3.835  11.475  10.928
81813SOL     OW47277   1.461  14.077   6.388
81813SOL    HW147278   1.375  14.107   6.360
81813SOL    HW247279   1.501  14.154   6.430
81814SOL     OW47280   5.886   2.486  13.756
81814SOL    HW147281   5.974   2.482  13.717
81814SOL    HW247282   5.867   2.580  13.760
81815SOL     OW47283  13.609  12.612  12.275
81815SOL    HW147284  13.565  12.548  12.219
81815SOL    HW247285  13.699  12.581  12.283
81816SOL     OW47286  13.707   3.463  12.585
81816SOL    HW147287  13.684   3.534  12.646
81816SOL    HW247288  13.783   3.496  12.538
81817SOL     OW47289  13.416  11.208  11.230
81817SOL    HW147290  13.432  11.295  11.194
81817SOL    HW247291  13.396  11.224  11.322
81818SOL     OW47292   1.080  10.095  14.107
81818SOL    HW147293   1.055  10.176  14.062
81818SOL    HW247294   1.175  10.104  14.120
81819SOL     OW47295  14.067   2.660   2.139
81819SOL    HW147296  14.045   2.651   2.046
81819SOL    HW247297  14.096   2.751   2.148
81820SOL     OW47298   6.949   1.063   9.697
81820SOL    HW147299   6.854   1.065   9.707
81820SOL    HW247300   6.967   1.131   9.631
81821SOL     OW47301   7.933  11.795   8.601
81821SOL    HW147302   7.968  11.821   8.516
81821SOL    HW247303   7.847  11.837   8.606
81822SOL     OW47304  12.158   3.376  12.800
81822SOL    HW147305  12.088   3.420  12.848
81822SOL    HW247306  12.216   3.447  12.771
81823SOL     OW47307   9.221  10.271   3.200
81823SOL    HW147308   9.272  10.197   3.168
81823SOL    HW247309   9.215  10.257   3.295
81824SOL     OW47310   5.866   6.706   8.361
81824SOL    HW147311   5.886   6.614   8.340
81824SOL    HW247312   5.929   6.756   8.309
81825SOL     OW47313  13.360   6.287   2.146
81825SOL    HW147314  13.292   6.348   2.117
81825SOL    HW247315  13.440   6.318   2.104
81826SOL     OW47316   1.854  11.710  13.967
81826SOL    HW147317   1.797  11.644  13.927
81826SOL    HW247318   1.936  11.664  13.984
81827SOL     OW47319   0.153   4.143   8.651
81827SOL    HW147320   0.076   4.198   8.664
81827SOL    HW247321   0.163   4.138   8.556
81828SOL     OW47322   3.890   0.347   1.734
81828SOL    HW147323   3.833   0.398   1.676
81828SOL    HW247324   3.830   0.301   1.793
81829SOL     OW47325   0.461  12.511   0.428
81829SOL    HW147326   0.392  12.452   0.399
81829SOL    HW247327   0.456  12.585   0.367
81830SOL     OW47328  12.608   0.972  14.427
81830SOL    HW147329  12.663   1.029  14.481
81830SOL    HW247330  12.664   0.898  14.405
81831SOL     OW47331   1.832   3.965   9.384
81831SOL    HW147332   1.922   3.932   9.388
81831SOL    HW247333   1.793   3.920   9.309
81832SOL     OW47334  13.013   3.239   4.420
81832SOL    HW147335  12.996   3.180   4.346
81832SOL    HW247336  12.927   3.253   4.460
81833SOL     OW47337   3.996   8.038   4.450
81833SOL    HW147338   3.925   7.973   4.448
81833SOL    HW247339   3.970   8.099   4.519
81834SOL     OW47340   0.394  13.351   9.985
81834SOL    HW147341   0.364  13.365   9.895
81834SOL    HW247342   0.427  13.437  10.013
81835SOL     OW47343   7.182   7.786   3.346
81835SOL    HW147344   7.206   7.872   3.313
81835SOL    HW247345   7.087   7.784   3.343
81836SOL     OW47346   1.980   1.695   9.777
81836SOL    HW147347   1.985   1.654   9.864
81836SOL    HW247348   2.063   1.741   9.767
81837SOL     OW47349   6.612  10.704   1.872
81837SOL    HW147350   6.529  10.721   1.829
81837SOL    HW247351   6.613  10.610   1.886
81838SOL     OW47352  13.601  14.613  12.500
81838SOL    HW147353  13.626  14.649  12.415
81838SOL    HW247354  13.541  14.678  12.537
81839SOL     OW47355   3.801   8.590  12.036
81839SOL    HW147356   3.770   8.597  11.945
81839SOL    HW247357   3.825   8.680  12.060
81840SOL     OW47358   9.143   0.970   2.878
81840SOL    HW147359   9.132   0.914   2.954
81840SOL    HW247360   9.198   0.919   2.818
81841SOL     OW47361   7.350   6.902  13.458
81841SOL    HW147362   7.330   6.885  13.366
81841SOL    HW247363   7.274   6.870  13.506
81842SOL     OW47364   5.227  11.898   5.259
81842SOL    HW147365   5.192  11.809   5.266
81842SOL    HW247366   5.177  11.948   5.323
81843SOL     OW47367   8.544  14.345   3.964
81843SOL    HW147368   8.477  14.291   3.924
81843SOL    HW247369   8.622  14.330   3.911
81844SOL     OW47370   9.523   7.084   3.624
81844SOL    HW147371   9.582   7.115   3.692
81844SOL    HW247372   9.559   7.121   3.543
81845SOL     OW47373  14.840  11.348   9.605
81845SOL    HW147374  14.794  11.430   9.586
81845SOL    HW247375  14.811  11.324   9.693
81846SOL     OW47376  12.879   2.718   3.813
81846SOL    HW147377  12.810   2.654   3.798
81846SOL    HW247378  12.837   2.787   3.865
81847SOL     OW47379  14.366  11.744  10.460
81847SOL    HW147380  14.348  11.838  10.470
81847SOL    HW247381  14.331  11.723  10.373
81848SOL     OW47382  12.112   0.497  10.442
81848SOL    HW147383  12.028   0.451  10.440
81848SOL    HW247384  12.089   0.589  10.429
81849SOL     OW47385   9.467   3.092   7.024
81849SOL    HW147386   9.483   3.141   7.105
81849SOL    HW247387   9.392   3.136   6.984
81850SOL     OW47388  13.288   8.540  12.142
81850SOL    HW147389  13.336   8.622  12.134
81850SOL    HW247390  13.209   8.563  12.190
81851SOL     OW47391   6.419   5.666   3.798
81851SOL    HW147392   6.346   5.643   3.741
81851SOL    HW247393   6.457   5.745   3.759
81852SOL     OW47394  12.942   6.024  12.987
81852SOL    HW147395  12.883   6.019  13.062
81852SOL    HW247396  12.928   5.942  12.939
81853SOL     OW47397   7.820   7.532  10.297
81853SOL    HW147398   7.831   7.571  10.211
81853SOL    HW247399   7.854   7.598  10.358
81854SOL     OW47400  11.406   9.353   7.214
81854SOL    HW147401  11.391   9.270   7.169
81854SOL    HW247402  11.320   9.395   7.218
81855SOL     OW47403   2.275  11.968   3.610
81855SOL    HW147404   2.238  11.945   3.524
81855SOL    HW247405   2.343  12.032   3.589
81856SOL     OW47406   0.558   1.846   4.672
81856SOL    HW147407   0.551   1.917   4.737
81856SOL    HW247408   0.576   1.768   4.724
81857SOL     OW47409   2.796   1.875  12.961
81857SOL    HW147410   2.725   1.898  12.902
81857SOL    HW247411   2.754   1.867  13.047
81858SOL     OW47412   4.824  10.300   8.196
81858SOL    HW147413   4.895  10.354   8.162
81858SOL    HW247414   4.844  10.290   8.289
81859SOL     OW47415   7.547  11.705   7.786
81859SOL    HW147416   7.511  11.726   7.872
81859SOL    HW247417   7.517  11.616   7.769
81860SOL     OW47418   0.533   6.902  12.029
81860SOL    HW147419   0.533   6.846  11.951
81860SOL    HW247420   0.625   6.917  12.048
81861SOL     OW47421   5.165   7.975  11.670
81861SOL    HW147422   5.251   8.001  11.637
81861SOL    HW247423   5.178   7.964  11.765
81862SOL     OW47424   0.756  10.911   7.549
81862SOL    HW147425   0.794  10.827   7.576
81862SOL    HW247426   0.715  10.946   7.629
81863SOL     OW47427   3.582  14.396   1.809
81863SOL    HW147428   3.641  14.435   1.744
81863SOL    HW247429   3.549  14.317   1.767
81864SOL     OW47430  12.267  13.517  10.642
81864SOL    HW147431  12.228  13.586  10.589
81864SOL    HW247432  12.242  13.436  10.598
81865SOL     OW47433   2.822   5.283  14.336
81865SOL    HW147434   2.894   5.233  14.375
81865SOL    HW247435   2.835   5.372  14.368
81866SOL     OW47436  10.025  12.426   6.222
81866SOL    HW147437  10.120  12.427   6.212
81866SOL    HW247438  10.010  12.393   6.311
81867SOL     OW47439   3.228   3.131   4.867
81867SOL    HW147440   3.297   3.150   4.932
81867SOL    HW247441   3.146   3.151   4.912
81868SOL     OW47442   0.568   0.757   9.908
81868SOL    HW147443   0.568   0.692   9.978
81868SOL    HW247444   0.621   0.829   9.941
81869SOL     OW47445  12.838   3.927   2.335
81869SOL    HW147446  12.816   3.885   2.418
81869SOL    HW247447  12.888   3.860   2.288
81870SOL     OW47448   5.270   5.533   1.788
81870SOL    HW147449   5.185   5.565   1.759
81870SOL    HW247450   5.283   5.574   1.874
81871SOL     OW47451   3.050  10.491  12.919
81871SOL    HW147452   3.091  10.498  13.005
81871SOL    HW247453   2.994  10.569  12.912
81872SOL     OW47454   5.424   5.425   9.638
81872SOL    HW147455   5.482   5.387   9.704
81872SOL    HW247456   5.427   5.519   9.656
81873SOL     OW47457  11.352  13.332  11.255
81873SOL    HW147458  11.296  13.275  11.204
81873SOL    HW247459  11.383  13.278  11.328
81874SOL     OW47460   8.235   9.508   2.926
81874SOL    HW147461   8.205   9.459   3.003
81874SOL    HW247462   8.211   9.453   2.852
81875SOL     OW47463  14.240   8.032   1.184
81875SOL    HW147464  14.255   8.118   1.145
81875SOL    HW247465  14.175   8.047   1.252
81876SOL     OW47466   7.012  12.660  12.988
81876SOL    HW147467   6.920  12.684  12.982
81876SOL    HW247468   7.025  12.600  12.915
81877SOL     OW47469   5.878   5.596   9.939
81877SOL    HW147470   5.879   5.691   9.954
81877SOL    HW247471   5.818   5.584   9.866
81878SOL     OW47472   6.152   1.608   8.161
81878SOL    HW147473   6.145   1.618   8.255
81878SOL    HW247474   6.074   1.558   8.136
81879SOL     OW47475   2.688   3.088  12.590
81879SOL    HW147476   2.679   3.171  12.543
81879SOL    HW247477   2.782   3.078  12.604
81880SOL     OW47478   1.921   2.554   8.927
81880SOL    HW147479   1.967   2.638   8.917
81880SOL    HW247480   1.930   2.512   8.841
81881SOL     OW47481  10.331   8.566   5.677
81881SOL    HW147482  10.305   8.576   5.768
81881SOL    HW247483  10.407   8.508   5.681
81882SOL     OW47484   8.430  11.397  14.734
81882SOL    HW147485   8.356  11.442  14.694
81882SOL    HW247486   8.483  11.366  14.660
81883SOL     OW47487   5.316   3.166  12.563
81883SOL    HW147488   5.404   3.140  12.536
81883SOL    HW247489   5.269   3.084  12.576
81884SOL     OW47490   1.041   2.717  13.256
81884SOL    HW147491   1.057   2.720  13.161
81884SOL    HW247492   0.983   2.642  13.268
81885SOL     OW47493   0.018   6.862   0.799
81885SOL    HW147494   0.048   6.890   0.886
81885SOL    HW247495  14.847   6.782   0.816
81886SOL     OW47496   0.767  14.506   5.933
81886SOL    HW147497   0.735  14.595   5.947
81886SOL    HW247498   0.777  14.470   6.021
81887SOL     OW47499   3.478  12.749  13.469
81887SOL    HW147500   3.524  12.787  13.394
81887SOL    HW247501   3.385  12.754  13.445
81888SOL     OW47502   7.006   6.910   8.078
81888SOL    HW147503   7.050   6.906   7.993
81888SOL    HW247504   7.068   6.956   8.135
81889SOL     OW47505   4.961   8.355   4.191
81889SOL    HW147506   4.928   8.442   4.167
81889SOL    HW247507   5.042   8.346   4.142
81890SOL     OW47508  13.495   5.934   9.924
81890SOL    HW147509  13.416   5.881   9.912
81890SOL    HW247510  13.551   5.911   9.850
81891SOL     OW47511  12.629  14.315   8.655
81891SOL    HW147512  12.673  14.351   8.578
81891SOL    HW247513  12.544  14.360   8.657
81892SOL     OW47514  14.569  13.877   1.919
81892SOL    HW147515  14.609  13.964   1.928
81892SOL    HW247516  14.559  13.865   1.825
81893SOL     OW47517  12.198   4.103  14.629
81893SOL    HW147518  12.252   4.136  14.700
81893SOL    HW247519  12.150   4.180  14.597
81894SOL     OW47520   7.633  14.281   9.001
81894SOL    HW147521   7.554  14.297   8.950
81894SOL    HW247522   7.620  14.195   9.040
81895SOL     OW47523  13.356   6.603  14.790
81895SOL    HW147524  13.435   6.610  14.843
81895SOL    HW247525  13.302   6.677  14.819
81896SOL     OW47526   9.637   1.504   2.006
81896SOL    HW147527   9.686   1.522   1.925
81896SOL    HW247528   9.578   1.579   2.015
81897SOL     OW47529   1.877   4.524   5.535
81897SOL    HW147530   1.813   4.455   5.547
81897SOL    HW247531   1.948   4.503   5.595
81898SOL     OW47532   0.650   2.397   1.961
81898SOL    HW147533   0.737   2.433   1.978
81898SOL    HW247534   0.600   2.470   1.924
81899SOL     OW47535   3.416  14.178  12.877
81899SOL    HW147536   3.437  14.214  12.963
81899SOL    HW247537   3.417  14.083  12.889
81900SOL     OW47538   4.185   6.144   7.720
81900SOL    HW147539   4.235   6.066   7.695
81900SOL    HW247540   4.099   6.130   7.682
81901SOL     OW47541   7.806   9.796   2.626
81901SOL    HW147542   7.724   9.766   2.665
81901SOL    HW247543   7.872   9.735   2.659
81902SOL     OW47544   6.246   2.295   8.528
81902SOL    HW147545   6.311   2.353   8.568
81902SOL    HW247546   6.166   2.346   8.525
81903SOL     OW47547   6.422  13.291   5.405
81903SOL    HW147548   6.344  13.274   5.351
81903SOL    HW247549   6.477  13.215   5.391
81904SOL     OW47550  13.121  13.369   3.467
81904SOL    HW147551  13.106  13.390   3.375
81904SOL    HW247552  13.149  13.277   3.466
81905SOL     OW47553   5.857   6.563   4.104
81905SOL    HW147554   5.908   6.530   4.029
81905SOL    HW247555   5.809   6.637   4.069
81906SOL     OW47556  12.802   2.488  11.722
81906SOL    HW147557  12.716   2.529  11.720
81906SOL    HW247558  12.801   2.433  11.801
81907SOL     OW47559   7.187   3.045   5.425
81907SOL    HW147560   7.192   3.064   5.332
81907SOL    HW247561   7.118   3.102   5.458
81908SOL     OW47562  10.871   4.628   2.163
81908SOL    HW147563  10.902   4.609   2.251
81908SOL    HW247564  10.826   4.712   2.170
81909SOL     OW47565   3.226  14.627  10.696
81909SOL    HW147566   3.255  14.573  10.770
81909SOL    HW247567   3.208  14.565  10.626
81910SOL     OW47568   5.384   7.278  12.328
81910SOL    HW147569   5.444   7.330  12.274
81910SOL    HW247570   5.411   7.296  12.418
81911SOL     OW47571   8.758  13.151  12.043
81911SOL    HW147572   8.749  13.078  12.105
81911SOL    HW247573   8.668  13.178  12.024
81912SOL     OW47574   8.923   5.439   4.397
81912SOL    HW147575   8.924   5.403   4.308
81912SOL    HW247576   9.000   5.400   4.439
81913SOL     OW47577   8.219  14.612  10.597
81913SOL    HW147578   8.142  14.579  10.550
81913SOL    HW247579   8.273  14.652  10.529
81914SOL     OW47580  10.294   7.184   0.587
81914SOL    HW147581  10.281   7.269   0.630
81914SOL    HW247582  10.263   7.120   0.652
81915SOL     OW47583  14.062   1.364   7.841
81915SOL    HW147584  14.150   1.395   7.818
81915SOL    HW247585  14.003   1.424   7.795
81916SOL     OW47586   9.999  13.545   7.759
81916SOL    HW147587  10.033  13.620   7.807
81916SOL    HW247588  10.072  13.516   7.704
81917SOL     OW47589   8.285   4.541   0.788
81917SOL    HW147590   8.209   4.500   0.745
81917SOL    HW247591   8.356   4.532   0.724
81918SOL     OW47592   0.870   6.672   8.064
81918SOL    HW147593   0.922   6.709   8.135
81918SOL    HW247594   0.904   6.583   8.053
81919SOL     OW47595   2.818  11.185   8.891
81919SOL    HW147596   2.907  11.152   8.881
81919SOL    HW247597   2.829  11.269   8.936
81920SOL     OW47598  14.322   1.313  13.973
81920SOL    HW147599  14.342   1.245  14.038
81920SOL    HW247600  14.253   1.275  13.918
81921SOL     OW47601   6.356   3.826   4.798
81921SOL    HW147602   6.304   3.880   4.859
81921SOL    HW247603   6.444   3.826   4.836
81922SOL     OW47604   6.678  12.730   0.156
81922SOL    HW147605   6.657  12.786   0.231
81922SOL    HW247606   6.648  12.643   0.183
81923SOL     OW47607   4.335  11.003  12.214
81923SOL    HW147608   4.415  11.008  12.266
81923SOL    HW247609   4.295  10.920  12.238
81924SOL     OW47610   5.361  12.293   7.519
81924SOL    HW147611   5.299  12.297   7.446
81924SOL    HW247612   5.396  12.382   7.525
81925SOL     OW47613  14.730   7.922   1.276
81925SOL    HW147614  14.775   7.933   1.360
81925SOL    HW247615  14.763   7.993   1.221
81926SOL     OW47616   3.400   6.399   3.505
81926SOL    HW147617   3.376   6.467   3.568
81926SOL    HW247618   3.494   6.409   3.493
81927SOL     OW47619  13.193   4.683   2.362
81927SOL    HW147620  13.207   4.634   2.443
81927SOL    HW247621  13.100   4.670   2.342
81928SOL     OW47622   0.484   1.008   9.593
81928SOL    HW147623   0.422   0.937   9.606
81928SOL    HW247624   0.492   1.049   9.679
81929SOL     OW47625   9.184   9.908  12.009
81929SOL    HW147626   9.224   9.993  11.994
81929SOL    HW247627   9.097   9.928  12.045
81930SOL     OW47628   2.104  12.865  10.523
81930SOL    HW147629   2.023  12.816  10.506
81930SOL    HW247630   2.099  12.940  10.464
81931SOL     OW47631  14.039   2.344   4.966
81931SOL    HW147632  14.042   2.373   4.875
81931SOL    HW247633  14.004   2.255   4.962
81932SOL     OW47634  14.296   6.740  10.196
81932SOL    HW147635  14.205   6.769  10.198
81932SOL    HW247636  14.318   6.736  10.103
81933SOL     OW47637   0.265   4.071  13.981
81933SOL    HW147638   0.266   4.037  14.071
81933SOL    HW247639   0.197   4.138  13.981
81934SOL     OW47640   0.562   4.025  10.834
81934SOL    HW147641   0.648   4.058  10.858
81934SOL    HW247642   0.508   4.103  10.825
81935SOL     OW47643   9.128   7.257  14.374
81935SOL    HW147644   9.207   7.212  14.345
81935SOL    HW247645   9.093   7.203  14.445
81936SOL     OW47646  12.952  13.274  12.585
81936SOL    HW147647  12.982  13.334  12.654
81936SOL    HW247648  12.859  13.261  12.603
81937SOL     OW47649  11.434   7.234  11.242
81937SOL    HW147650  11.472   7.308  11.195
81937SOL    HW247651  11.352   7.267  11.278
81938SOL     OW47652   6.544   4.490   3.422
81938SOL    HW147653   6.532   4.517   3.513
81938SOL    HW247654   6.542   4.572   3.373
81939SOL     OW47655  10.940   6.435   1.935
81939SOL    HW147656  10.920   6.440   2.029
81939SOL    HW247657  10.996   6.357   1.927
81940SOL     OW47658  12.668   9.946   2.020
81940SOL    HW147659  12.713   9.865   2.043
81940SOL    HW247660  12.615   9.966   2.097
81941SOL     OW47661   0.417   9.402   2.882
81941SOL    HW147662   0.358   9.364   2.818
81941SOL    HW247663   0.381   9.489   2.899
81942SOL     OW47664  10.076  10.075   6.541
81942SOL    HW147665  10.119  10.031   6.468
81942SOL    HW247666  10.079  10.012   6.613
81943SOL     OW47667   0.851   8.763   4.483
81943SOL    HW147668   0.825   8.747   4.393
81943SOL    HW247669   0.771   8.752   4.534
81944SOL     OW47670   9.802  13.745   3.712
81944SOL    HW147671   9.832  13.735   3.803
81944SOL    HW247672   9.852  13.819   3.678
81945SOL     OW47673   2.505  10.634  13.933
81945SOL    HW147674   2.525  10.705  13.995
81945SOL    HW247675   2.534  10.555  13.978
81946SOL     OW47676  14.866   8.018   2.273
81946SOL    HW147677  14.793   7.988   2.328
81946SOL    HW247678  14.824   8.053   2.194
81947SOL     OW47679   2.349  14.835   5.490
81947SOL    HW147680   2.305   0.038   5.469
81947SOL    HW247681   2.402  14.854   5.567
81948SOL     OW47682  14.306  13.411   9.819
81948SOL    HW147683  14.389  13.363   9.817
81948SOL    HW247684  14.315  13.477   9.751
81949SOL     OW47685  13.454   6.331   7.031
81949SOL    HW147686  13.444   6.248   6.985
81949SOL    HW247687  13.472   6.395   6.963
81950SOL     OW47688   2.024   5.594   4.548
81950SOL    HW147689   2.033   5.687   4.527
81950SOL    HW247690   2.068   5.548   4.477
81951SOL     OW47691   3.573   3.769   5.834
81951SOL    HW147692   3.540   3.857   5.848
81951SOL    HW247693   3.646   3.761   5.896
81952SOL     OW47694   1.056   9.134   1.375
81952SOL    HW147695   1.031   9.094   1.458
81952SOL    HW247696   1.145   9.103   1.358
81953SOL     OW47697   7.959   7.414  11.086
81953SOL    HW147698   7.888   7.355  11.110
81953SOL    HW247699   7.916   7.484  11.038
81954SOL     OW47700  13.473   6.260   4.002
81954SOL    HW147701  13.462   6.211   3.921
81954SOL    HW247702  13.394   6.314   4.009
81955SOL     OW47703  12.547   1.574  11.978
81955SOL    HW147704  12.476   1.516  12.004
81955SOL    HW247705  12.503   1.652  11.944
81956SOL     OW47706  13.428   6.664   8.670
81956SOL    HW147707  13.435   6.589   8.729
81956SOL    HW247708  13.349   6.648   8.619
81957SOL     OW47709  10.632   9.329   4.659
81957SOL    HW147710  10.607   9.277   4.736
81957SOL    HW247711  10.566   9.399   4.655
81958SOL     OW47712   1.901   0.653  11.139
81958SOL    HW147713   1.987   0.678  11.106
81958SOL    HW247714   1.913   0.564  11.173
81959SOL     OW47715   2.139  14.498   4.653
81959SOL    HW147716   2.190  14.478   4.732
81959SOL    HW247717   2.049  14.508   4.684
81960SOL     OW47718   7.373  11.258  10.942
81960SOL    HW147719   7.346  11.325  11.005
81960SOL    HW247720   7.454  11.292  10.904
81961SOL     OW47721   3.239   7.186   7.864
81961SOL    HW147722   3.329   7.206   7.838
81961SOL    HW247723   3.244   7.173   7.959
81962SOL     OW47724   8.325  13.034   1.262
81962SOL    HW147725   8.404  12.985   1.286
81962SOL    HW247726   8.253  12.973   1.278
81963SOL     OW47727   4.833  10.541   8.457
81963SOL    HW147728   4.810  10.545   8.550
81963SOL    HW247729   4.928  10.530   8.456
81964SOL     OW47730   7.759   8.154   0.238
81964SOL    HW147731   7.768   8.059   0.251
81964SOL    HW247732   7.682   8.178   0.289
81965SOL     OW47733   0.512   1.308   1.973
81965SOL    HW147734   0.444   1.315   2.040
81965SOL    HW247735   0.583   1.262   2.016
81966SOL     OW47736   9.513  11.676   9.212
81966SOL    HW147737   9.480  11.598   9.257
81966SOL    HW247738   9.445  11.742   9.224
81967SOL     OW47739   7.650   3.792   9.582
81967SOL    HW147740   7.664   3.837   9.665
81967SOL    HW247741   7.736   3.758   9.558
81968SOL     OW47742   0.392   1.540  14.149
81968SOL    HW147743   0.356   1.458  14.116
81968SOL    HW247744   0.406   1.525  14.243
81969SOL     OW47745   5.628   2.450   0.101
81969SOL    HW147746   5.533   2.461   0.107
81969SOL    HW247747   5.664   2.533   0.132
81970SOL     OW47748  11.738   0.928   9.419
81970SOL    HW147749  11.643   0.926   9.408
81970SOL    HW247750  11.773   0.890   9.338
81971SOL     OW47751   6.566   8.194   1.557
81971SOL    HW147752   6.514   8.246   1.619
81971SOL    HW247753   6.532   8.218   1.471
81972SOL     OW47754   7.739   7.341   7.281
81972SOL    HW147755   7.834   7.348   7.286
81972SOL    HW247756   7.712   7.315   7.369
81973SOL     OW47757   8.719  11.936   2.273
81973SOL    HW147758   8.774  11.931   2.351
81973SOL    HW247759   8.778  11.966   2.204
81974SOL     OW47760   9.433   3.082  10.683
81974SOL    HW147761   9.357   3.024  10.685
81974SOL    HW247762   9.402   3.164  10.722
81975SOL     OW47763   2.701  12.765  13.123
81975SOL    HW147764   2.683  12.740  13.032
81975SOL    HW247765   2.633  12.829  13.144
81976SOL     OW47766  12.404   3.396   5.247
81976SOL    HW147767  12.359   3.331   5.194
81976SOL    HW247768  12.404   3.360   5.336
81977SOL     OW47769   2.472   9.974   8.639
81977SOL    HW147770   2.534  10.012   8.578
81977SOL    HW247771   2.398  10.035   8.640
81978SOL     OW47772   1.440  14.407   0.086
81978SOL    HW147773   1.407  14.449   0.165
81978SOL    HW247774   1.368  14.352   0.055
81979SOL     OW47775   6.106  10.080  11.991
81979SOL    HW147776   6.173  10.135  11.951
81979SOL    HW247777   6.153  10.002  12.020
81980SOL     OW47778   9.928   3.583   2.766
81980SOL    HW147779  10.022   3.582   2.745
81980SOL    HW247780   9.890   3.516   2.710
81981SOL     OW47781  14.467   3.991  12.621
81981SOL    HW147782  14.548   4.036  12.597
81981SOL    HW247783  14.399   4.059  12.615
81982SOL     OW47784   0.705   2.728  13.338
81982SOL    HW147785   0.668   2.694  13.419
81982SOL    HW247786   0.779   2.671  13.319
81983SOL     OW47787  12.982  11.392   8.792
81983SOL    HW147788  12.932  11.318   8.826
81983SOL    HW247789  13.063  11.391   8.845
81984SOL     OW47790  12.688   9.025   8.444
81984SOL    HW147791  12.637   8.977   8.509
81984SOL    HW247792  12.776   9.032   8.482
81985SOL     OW47793   2.086  13.209  12.098
81985SOL    HW147794   2.138  13.280  12.060
81985SOL    HW247795   1.996  13.233  12.080
81986SOL     OW47796  13.671   4.847   8.017
81986SOL    HW147797  13.658   4.753   8.014
81986SOL    HW247798  13.745   4.859   8.076
81987SOL     OW47799  10.320  14.204   0.870
81987SOL    HW147800  10.229  14.182   0.887
81987SOL    HW247801  10.316  14.278   0.810
81988SOL     OW47802   3.809   8.969   8.723
81988SOL    HW147803   3.784   9.053   8.763
81988SOL    HW247804   3.732   8.944   8.671
81989SOL     OW47805   7.469  14.604  10.855
81989SOL    HW147806   7.497  14.589  10.945
81989SOL    HW247807   7.551  14.608  10.805
81990SOL     OW47808   2.130  10.932   5.133
81990SOL    HW147809   2.170  10.903   5.215
81990SOL    HW247810   2.036  10.923   5.147
81991SOL     OW47811   8.820   4.195   9.945
81991SOL    HW147812   8.734   4.155   9.935
81991SOL    HW247813   8.870   4.132   9.997
81992SOL     OW47814   3.481   2.650   3.007
81992SOL    HW147815   3.527   2.566   3.009
81992SOL    HW247816   3.436   2.654   3.092
81993SOL     OW47817   4.809   9.286   2.682
81993SOL    HW147818   4.883   9.239   2.720
81993SOL    HW247819   4.750   9.217   2.650
81994SOL     OW47820  12.973  10.819   9.669
81994SOL    HW147821  12.937  10.863   9.745
81994SOL    HW247822  13.051  10.870   9.646
81995SOL     OW47823   0.209  11.447   7.457
81995SOL    HW147824   0.172  11.519   7.508
81995SOL    HW247825   0.303  11.456   7.468
81996SOL     OW47826   5.305  10.783   3.661
81996SOL    HW147827   5.244  10.854   3.639
81996SOL    HW247828   5.269  10.706   3.617
81997SOL     OW47829  11.897   6.713   6.705
81997SOL    HW147830  11.985   6.679   6.721
81997SOL    HW247831  11.911   6.795   6.659
81998SOL     OW47832   4.496   0.181   9.943
81998SOL    HW147833   4.544   0.118   9.889
81998SOL    HW247834   4.535   0.173  10.030
81999SOL     OW47835   2.338   7.654  10.292
81999SOL    HW147836   2.431   7.637  10.283
81999SOL    HW247837   2.299   7.570  10.315
82000SOL     OW47838   2.119   6.072   5.757
82000SOL    HW147839   2.079   6.157   5.736
82000SOL    HW247840   2.177   6.090   5.830
82001SOL     OW47841  13.718   2.832   6.620
82001SOL    HW147842  13.724   2.772   6.546
82001SOL    HW247843  13.805   2.872   6.625
82002SOL     OW47844   7.568   8.051  13.634
82002SOL    HW147845   7.657   8.061  13.667
82002SOL    HW247846   7.518   8.018  13.710
82003SOL     OW47847   8.183   6.264   4.454
82003SOL    HW147848   8.133   6.331   4.407
82003SOL    HW247849   8.190   6.191   4.393
82004SOL     OW47850   2.381   8.820   8.870
82004SOL    HW147851   2.408   8.763   8.798
82004SOL    HW247852   2.457   8.877   8.884
82005SOL     OW47853   2.718  13.767  12.395
82005SOL    HW147854   2.702  13.797  12.306
82005SOL    HW247855   2.665  13.824  12.451
82006SOL     OW47856   3.344  10.877  12.781
82006SOL    HW147857   3.288  10.864  12.858
82006SOL    HW247858   3.337  10.795  12.733
82007SOL     OW47859   0.196   2.351   3.799
82007SOL    HW147860   0.195   2.401   3.880
82007SOL    HW247861   0.279   2.303   3.800
82008SOL     OW47862   3.171   2.513  13.651
82008SOL    HW147863   3.213   2.427  13.641
82008SOL    HW247864   3.168   2.528  13.745
82009SOL     OW47865  12.113   6.897   7.556
82009SOL    HW147866  12.059   6.957   7.607
82009SOL    HW247867  12.128   6.942   7.473
82010SOL     OW47868   8.653   8.441   9.891
82010SOL    HW147869   8.608   8.439   9.807
82010SOL    HW247870   8.646   8.351   9.924
82011SOL     OW47871  10.473   6.253  13.875
82011SOL    HW147872  10.418   6.189  13.922
82011SOL    HW247873  10.562   6.222  13.889
82012SOL     OW47874  12.010  10.026  11.669
82012SOL    HW147875  12.042   9.978  11.593
82012SOL    HW247876  11.983  10.112  11.634
82013SOL     OW47877  14.526   9.653  10.425
82013SOL    HW147878  14.574   9.610  10.496
82013SOL    HW247879  14.594   9.696  10.373
82014SOL     OW47880   8.100   3.173   7.867
82014SOL    HW147881   8.040   3.200   7.937
82014SOL    HW247882   8.044   3.158   7.791
82015SOL     OW47883  11.225   4.312  12.817
82015SOL    HW147884  11.242   4.314  12.723
82015SOL    HW247885  11.210   4.219  12.835
82016SOL     OW47886   9.266   0.344   6.778
82016SOL    HW147887   9.252   0.304   6.692
82016SOL    HW247888   9.240   0.435   6.766
82017SOL     OW47889   4.705  13.423   4.723
82017SOL    HW147890   4.692  13.341   4.676
82017SOL    HW247891   4.663  13.489   4.668
82018SOL     OW47892   1.406  13.529  13.570
82018SOL    HW147893   1.400  13.440  13.537
82018SOL    HW247894   1.316  13.554  13.590
82019SOL     OW47895   4.333  11.801   6.451
82019SOL    HW147896   4.320  11.895   6.436
82019SOL    HW247897   4.247  11.768   6.476
82020SOL     OW47898   4.288   5.078   8.038
82020SOL    HW147899   4.322   5.125   8.115
82020SOL    HW247900   4.361   5.025   8.008
82021SOL     OW47901  14.116  14.064   3.969
82021SOL    HW147902  14.144  13.986   3.922
82021SOL    HW247903  14.177  14.133   3.941
82022SOL     OW47904   6.039  12.710   8.047
82022SOL    HW147905   5.971  12.651   8.016
82022SOL    HW247906   6.103  12.713   7.976
82023SOL     OW47907   7.206   8.718  10.477
82023SOL    HW147908   7.183   8.684  10.564
82023SOL    HW247909   7.187   8.811  10.482
82024SOL     OW47910   0.070  11.974  12.229
82024SOL    HW147911   0.083  11.936  12.142
82024SOL    HW247912  14.856  11.991  12.234
82025SOL     OW47913   8.763  10.271  11.744
82025SOL    HW147914   8.728  10.347  11.696
82025SOL    HW247915   8.685  10.225  11.774
82026SOL     OW47916  12.809   6.125   5.515
82026SOL    HW147917  12.805   6.163   5.603
82026SOL    HW247918  12.854   6.041   5.528
82027SOL     OW47919   9.326  12.772   1.684
82027SOL    HW147920   9.250  12.773   1.626
82027SOL    HW247921   9.394  12.819   1.635
82028SOL     OW47922   6.958   8.090  14.789
82028SOL    HW147923   6.864   8.105  14.801
82028SOL    HW247924   6.999   8.166  14.829
82029SOL     OW47925  14.245   9.992  13.303
82029SOL    HW147926  14.310   9.930  13.269
82029SOL    HW247927  14.165   9.972  13.253
82030SOL     OW47928   0.954   9.256   9.850
82030SOL    HW147929   1.011   9.317   9.804
82030SOL    HW247930   0.996   9.242   9.935
82031SOL     OW47931  11.917  10.691  14.158
82031SOL    HW147932  11.897  10.683  14.065
82031SOL    HW247933  11.835  10.670  14.203
82032SOL     OW47934  14.398   0.992  13.085
82032SOL    HW147935  14.483   0.978  13.126
82032SOL    HW247936  14.418   0.999  12.992
82033SOL     OW47937   2.767  12.323   4.850
82033SOL    HW147938   2.724  12.355   4.771
82033SOL    HW247939   2.813  12.400   4.884
82034SOL     OW47940   2.831   6.427   2.234
82034SOL    HW147941   2.824   6.501   2.174
82034SOL    HW247942   2.861   6.466   2.316
82035SOL     OW47943   3.047   4.621   6.005
82035SOL    HW147944   3.128   4.607   6.054
82035SOL    HW247945   3.038   4.543   5.950
82036SOL     OW47946  11.457   4.742   3.592
82036SOL    HW147947  11.384   4.693   3.554
82036SOL    HW247948  11.521   4.676   3.616
82037SOL     OW47949   8.989   3.183   9.861
82037SOL    HW147950   9.007   3.242   9.787
82037SOL    HW247951   9.024   3.099   9.834
82038SOL     OW47952   4.158  10.230   3.096
82038SOL    HW147953   4.087  10.262   3.153
82038SOL    HW247954   4.161  10.293   3.024
82039SOL     OW47955  13.097   5.698  10.648
82039SOL    HW147956  13.110   5.777  10.701
82039SOL    HW247957  13.185   5.668  10.628
82040SOL     OW47958   6.924   4.020  13.989
82040SOL    HW147959   6.968   4.013  14.073
82040SOL    HW247960   6.925   4.113  13.968
82041SOL     OW47961   9.310   4.282   2.210
82041SOL    HW147962   9.271   4.368   2.221
82041SOL    HW247963   9.243   4.221   2.240
82042SOL     OW47964  10.630   1.792  12.879
82042SOL    HW147965  10.625   1.823  12.788
82042SOL    HW247966  10.716   1.752  12.886
82043SOL     OW47967  14.254  13.208   0.532
82043SOL    HW147968  14.346  13.183   0.544
82043SOL    HW247969  14.258  13.285   0.476
82044SOL     OW47970   3.841   8.606  11.449
82044SOL    HW147971   3.746   8.602  11.437
82044SOL    HW247972   3.860   8.700  11.459
82045SOL     OW47973   5.554   0.760  11.433
82045SOL    HW147974   5.533   0.813  11.357
82045SOL    HW247975   5.649   0.767  11.442
82046SOL     OW47976  10.932   8.587  11.537
82046SOL    HW147977  10.915   8.499  11.503
82046SOL    HW247978  11.027   8.599  11.527
82047SOL     OW47979   0.494   0.298  11.286
82047SOL    HW147980   0.412   0.331  11.323
82047SOL    HW247981   0.541   0.262  11.361
82048SOL     OW47982   1.295   5.951   9.391
82048SOL    HW147983   1.257   5.891   9.455
82048SOL    HW247984   1.221   5.998   9.354
82049SOL     OW47985  13.018   3.565  12.572
82049SOL    HW147986  12.967   3.626  12.626
82049SOL    HW247987  13.109   3.592  12.586
82050SOL     OW47988   4.161   6.582  14.391
82050SOL    HW147989   4.084   6.577  14.335
82050SOL    HW247990   4.221   6.518  14.354
82051SOL     OW47991  13.136  10.542   5.191
82051SOL    HW147992  13.218  10.513   5.150
82051SOL    HW247993  13.101  10.463   5.232
82052SOL     OW47994   9.323  14.744  12.688
82052SOL    HW147995   9.403  14.748  12.740
82052SOL    HW247996   9.259  14.702  12.745
82053SOL     OW47997  13.776   4.392   1.192
82053SOL    HW147998  13.774   4.447   1.270
82053SOL    HW247999  13.704   4.424   1.137
82054SOL     OW48000  11.005   3.974  12.725
82054SOL    HW148001  10.938   3.923  12.678
82054SOL    HW248002  11.066   3.908  12.758
82055SOL     OW48003  10.454  10.627   0.623
82055SOL    HW148004  10.381  10.668   0.577
82055SOL    HW248005  10.438  10.533   0.616
82056SOL     OW48006   6.996   4.814   1.069
82056SOL    HW148007   6.939   4.753   1.115
82056SOL    HW248008   7.085   4.793   1.100
82057SOL     OW48009   2.284   4.502   8.335
82057SOL    HW148010   2.358   4.475   8.280
82057SOL    HW248011   2.207   4.471   8.288
82058SOL     OW48012  13.258   3.431   8.052
82058SOL    HW148013  13.256   3.527   8.048
82058SOL    HW248014  13.172   3.407   8.085
82059SOL     OW48015  14.849  11.326   5.270
82059SOL    HW148016  14.844  11.244   5.221
82059SOL    HW248017   0.001  11.390   5.206
82060SOL     OW48018   2.555   3.991   5.584
82060SOL    HW148019   2.465   3.979   5.616
82060SOL    HW248020   2.600   4.034   5.657
82061SOL     OW48021   0.138   3.805   6.630
82061SOL    HW148022   0.169   3.788   6.719
82061SOL    HW248023   0.167   3.730   6.579
82062SOL     OW48024  12.038   0.763  10.747
82062SOL    HW148025  12.069   0.767  10.657
82062SOL    HW248026  12.061   0.848  10.785
82063SOL     OW48027   1.631   1.675  10.797
82063SOL    HW148028   1.596   1.713  10.717
82063SOL    HW248029   1.661   1.587  10.771
82064SOL     OW48030   0.248   5.247   6.063
82064SOL    HW148031   0.308   5.181   6.098
82064SOL    HW248032   0.297   5.290   5.993
82065SOL     OW48033   7.419   3.072   0.455
82065SOL    HW148034   7.388   3.156   0.422
82065SOL    HW248035   7.383   3.065   0.543
82066SOL     OW48036   6.849  11.009   2.634
82066SOL    HW148037   6.938  11.042   2.621
82066SOL    HW248038   6.799  11.046   2.561
82067SOL     OW48039  13.173   5.107  12.328
82067SOL    HW148040  13.146   5.064  12.247
82067SOL    HW248041  13.188   5.036  12.390
82068SOL     OW48042   0.561  13.163   9.904
82068SOL    HW148043   0.473  13.146   9.871
82068SOL    HW248044   0.547  13.223   9.978
82069SOL     OW48045   8.587   3.238   4.933
82069SOL    HW148046   8.535   3.297   4.878
82069SOL    HW248047   8.537   3.231   5.014
82070SOL     OW48048  10.920   7.919  13.988
82070SOL    HW148049  10.983   7.873  14.043
82070SOL    HW248050  10.837   7.875  14.003
82071SOL     OW48051   2.466   8.716   8.647
82071SOL    HW148052   2.551   8.750   8.622
82071SOL    HW248053   2.457   8.634   8.599
82072SOL     OW48054   5.465  11.530   8.917
82072SOL    HW148055   5.383  11.483   8.934
82072SOL    HW248056   5.471  11.537   8.822
82073SOL     OW48057   2.695   2.536  12.080
82073SOL    HW148058   2.763   2.602  12.064
82073SOL    HW248059   2.669   2.549  12.171
82074SOL     OW48060   7.572  13.072   7.073
82074SOL    HW148061   7.665  13.080   7.050
82074SOL    HW248062   7.529  13.048   6.991
82075SOL     OW48063   8.458  10.012   8.787
82075SOL    HW148064   8.447  10.097   8.830
82075SOL    HW248065   8.535  10.024   8.731
82076SOL     OW48066  11.610   0.201   9.766
82076SOL    HW148067  11.568   0.150   9.835
82076SOL    HW248068  11.566   0.173   9.686
82077SOL     OW48069  11.248   7.782   7.686
82077SOL    HW148070  11.238   7.698   7.641
82077SOL    HW248071  11.292   7.839   7.623
82078SOL     OW48072   6.622   9.707   3.778
82078SOL    HW148073   6.533   9.697   3.812
82078SOL    HW248074   6.650   9.793   3.810
82079SOL     OW48075  13.924   1.530   7.670
82079SOL    HW148076  13.838   1.509   7.635
82079SOL    HW248077  13.985   1.497   7.605
82080SOL     OW48078   8.812   0.408   8.482
82080SOL    HW148079   8.881   0.376   8.423
82080SOL    HW248080   8.749   0.335   8.486
82081SOL     OW48081   5.522  13.209  12.665
82081SOL    HW148082   5.492  13.193  12.575
82081SOL    HW248083   5.463  13.156  12.719
82082SOL     OW48084   6.027   1.095   4.008
82082SOL    HW148085   6.086   1.139   3.946
82082SOL    HW248086   5.946   1.082   3.959
82083SOL     OW48087  12.968  10.513  10.288
82083SOL    HW148088  13.033  10.443  10.296
82083SOL    HW248089  12.903  10.494  10.356
82084SOL     OW48090   6.123  12.061   0.828
82084SOL    HW148091   6.147  11.978   0.870
82084SOL    HW248092   6.139  12.046   0.734
82085SOL     OW48093   7.100  13.680   8.740
82085SOL    HW148094   7.056  13.634   8.812
82085SOL    HW248095   7.153  13.613   8.697
82086SOL     OW48096   4.631   7.461   2.473
82086SOL    HW148097   4.623   7.458   2.568
82086SOL    HW248098   4.721   7.491   2.458
82087SOL     OW48099   9.220   6.114   2.570
82087SOL    HW148100   9.190   6.067   2.492
82087SOL    HW248101   9.190   6.204   2.557
82088SOL     OW48102  13.537   1.389   6.216
82088SOL    HW148103  13.519   1.441   6.138
82088SOL    HW248104  13.465   1.326   6.220
82089SOL     OW48105   4.843  14.435  14.050
82089SOL    HW148106   4.809  14.395  13.970
82089SOL    HW248107   4.837  14.529  14.035
82090SOL     OW48108   7.233  14.507  11.932
82090SOL    HW148109   7.311  14.541  11.976
82090SOL    HW248110   7.237  14.544  11.844
82091SOL     OW48111  11.837   2.265  13.246
82091SOL    HW148112  11.890   2.330  13.199
82091SOL    HW248113  11.747   2.286  13.222
82092SOL     OW48114  11.136   1.926   1.423
82092SOL    HW148115  11.198   1.856   1.402
82092SOL    HW248116  11.055   1.881   1.447
82093SOL     OW48117  14.648  14.517  10.088
82093SOL    HW148118  14.735  14.555  10.102
82093SOL    HW248119  14.593  14.556  10.155
82094SOL     OW48120   6.559   6.324   7.225
82094SOL    HW148121   6.634   6.295   7.276
82094SOL    HW248122   6.505   6.245   7.213
82095SOL     OW48123   4.179   1.613   6.198
82095SOL    HW148124   4.173   1.593   6.292
82095SOL    HW248125   4.251   1.558   6.167
82096SOL     OW48126  12.157   5.103  11.184
82096SOL    HW148127  12.239   5.070  11.148
82096SOL    HW248128  12.172   5.103  11.279
82097SOL     OW48129   3.913   5.976   3.767
82097SOL    HW148130   3.931   6.058   3.812
82097SOL    HW248131   3.930   5.908   3.833
82098SOL     OW48132   0.676   5.757   8.217
82098SOL    HW148133   0.725   5.775   8.297
82098SOL    HW248134   0.731   5.790   8.146
82099SOL     OW48135   8.136   1.989   7.927
82099SOL    HW148136   8.228   1.992   7.904
82099SOL    HW248137   8.091   1.975   7.843
82100SOL     OW48138   2.459   4.151  14.573
82100SOL    HW148139   2.435   4.244  14.574
82100SOL    HW248140   2.554   4.151  14.568
82101SOL     OW48141   3.804   2.566  11.910
82101SOL    HW148142   3.715   2.597  11.894
82101SOL    HW248143   3.795   2.472  11.924
82102SOL     OW48144  14.848   7.963   5.272
82102SOL    HW148145  14.810   7.962   5.360
82102SOL    HW248146  14.811   7.886   5.229
82103SOL     OW48147  10.483   3.775   5.037
82103SOL    HW148148  10.541   3.704   5.009
82103SOL    HW248149  10.543   3.846   5.062
82104SOL     OW48150   7.251  11.492   0.495
82104SOL    HW148151   7.308  11.557   0.536
82104SOL    HW248152   7.301  11.461   0.419
82105SOL     OW48153  12.479   1.361  13.263
82105SOL    HW148154  12.428   1.434  13.230
82105SOL    HW248155  12.525   1.396  13.339
82106SOL     OW48156  11.276   5.946  13.430
82106SOL    HW148157  11.210   6.005  13.393
82106SOL    HW248158  11.359   5.985  13.404
82107SOL     OW48159   0.864   9.041  10.785
82107SOL    HW148160   0.947   9.075  10.820
82107SOL    HW248161   0.877   9.043  10.690
82108SOL     OW48162   2.470   6.559  10.578
82108SOL    HW148163   2.542   6.612  10.545
82108SOL    HW248164   2.431   6.520  10.499
82109SOL     OW48165   8.052   1.707   5.529
82109SOL    HW148166   8.000   1.628   5.514
82109SOL    HW248167   8.050   1.753   5.445
82110SOL     OW48168  12.793  13.437   4.395
82110SOL    HW148169  12.784  13.530   4.417
82110SOL    HW248170  12.708  13.413   4.358
82111SOL     OW48171   8.933  12.490   1.561
82111SOL    HW148172   9.024  12.486   1.590
82111SOL    HW248173   8.938  12.500   1.466
82112SOL     OW48174  14.847   4.540   6.415
82112SOL    HW148175  14.860   4.463   6.471
82112SOL    HW248176   0.056   4.567   6.391
82113SOL     OW48177   9.366  13.947   2.448
82113SOL    HW148178   9.356  13.977   2.539
82113SOL    HW248179   9.276  13.938   2.416
82114SOL     OW48180  12.220   1.836   5.462
82114SOL    HW148181  12.235   1.827   5.556
82114SOL    HW248182  12.201   1.747   5.433
82115SOL     OW48183   8.160   5.225   5.495
82115SOL    HW148184   8.081   5.246   5.544
82115SOL    HW248185   8.213   5.305   5.498
82116SOL     OW48186  12.126   4.963   5.935
82116SOL    HW148187  12.112   4.923   5.850
82116SOL    HW248188  12.220   4.951   5.952
82117SOL     OW48189  13.561   7.064   1.034
82117SOL    HW148190  13.571   7.035   1.125
82117SOL    HW248191  13.629   7.016   0.986
82118SOL     OW48192   1.232   5.978  10.335
82118SOL    HW148193   1.190   5.950  10.417
82118SOL    HW248194   1.246   6.073  10.347
82119SOL     OW48195   4.750   2.056   8.846
82119SOL    HW148196   4.773   1.995   8.776
82119SOL    HW248197   4.661   2.084   8.825
82120SOL     OW48198   8.611   1.046   7.516
82120SOL    HW148199   8.624   1.101   7.438
82120SOL    HW248200   8.636   1.103   7.589
82121SOL     OW48201  13.661   0.741   2.416
82121SOL    HW148202  13.643   0.657   2.459
82121SOL    HW248203  13.628   0.729   2.327
82122SOL     OW48204  14.470   8.572   2.370
82122SOL    HW148205  14.414   8.636   2.413
82122SOL    HW248206  14.409   8.510   2.330
82123SOL     OW48207  12.681   7.072   6.983
82123SOL    HW148208  12.632   7.007   6.932
82123SOL    HW248209  12.763   7.084   6.936
82124SOL     OW48210   5.624   0.288  13.977
82124SOL    HW148211   5.570   0.282  14.056
82124SOL    HW248212   5.697   0.228  13.994
82125SOL     OW48213  11.229  11.498   1.709
82125SOL    HW148214  11.186  11.495   1.795
82125SOL    HW248215  11.298  11.432   1.715
82126SOL     OW48216  14.613   5.245   0.162
82126SOL    HW148217  14.654   5.331   0.173
82126SOL    HW248218  14.635   5.219   0.072
82127SOL     OW48219   8.009   4.828   2.766
82127SOL    HW148220   8.017   4.737   2.795
82127SOL    HW248221   8.026   4.826   2.672
82128SOL     OW48222   9.290  13.191   1.424
82128SOL    HW148223   9.265  13.273   1.381
82128SOL    HW248224   9.209  13.159   1.463
82129SOL     OW48225  13.592   7.974  13.181
82129SOL    HW148226  13.508   7.929  13.177
82129SOL    HW248227  13.655   7.905  13.202
82130SOL     OW48228   7.119   1.728  10.594
82130SOL    HW148229   7.174   1.694  10.523
82130SOL    HW248230   7.059   1.789  10.550
82131SOL     OW48231   9.186   6.267   7.753
82131SOL    HW148232   9.093   6.247   7.746
82131SOL    HW248233   9.225   6.188   7.792
82132SOL     OW48234  13.583   3.577   1.033
82132SOL    HW148235  13.618   3.608   0.950
82132SOL    HW248236  13.656   3.584   1.094
82133SOL     OW48237  13.786   6.852   4.476
82133SOL    HW148238  13.706   6.872   4.428
82133SOL    HW248239  13.794   6.757   4.471
82134SOL     OW48240   6.450  14.073   1.304
82134SOL    HW148241   6.501  14.064   1.385
82134SOL    HW248242   6.505  14.127   1.247
82135SOL     OW48243   6.135   6.785   4.328
82135SOL    HW148244   6.071   6.715   4.341
82135SOL    HW248245   6.119   6.846   4.400
82136SOL     OW48246   7.361  13.816   1.174
82136SOL    HW148247   7.326  13.744   1.121
82136SOL    HW248248   7.453  13.793   1.188
82137SOL     OW48249   7.607   0.719   4.636
82137SOL    HW148250   7.702   0.703   4.632
82137SOL    HW248251   7.595   0.771   4.716
82138SOL     OW48252  13.570  11.593   8.774
82138SOL    HW148253  13.630  11.565   8.705
82138SOL    HW248254  13.624  11.645   8.833
82139SOL     OW48255  12.744   4.346   5.940
82139SOL    HW148256  12.840   4.341   5.935
82139SOL    HW248257  12.724   4.322   6.031
82140SOL     OW48258   6.779   6.273   6.282
82140SOL    HW148259   6.734   6.311   6.357
82140SOL    HW248260   6.710   6.239   6.226
82141SOL     OW48261   4.331   9.535   9.408
82141SOL    HW148262   4.398   9.602   9.417
82141SOL    HW248263   4.341   9.503   9.318
82142SOL     OW48264  12.218   9.148  12.030
82142SOL    HW148265  12.123   9.142  12.044
82142SOL    HW248266  12.250   9.059  12.042
82143SOL     OW48267   0.801  12.021  10.739
82143SOL    HW148268   0.714  11.995  10.770
82143SOL    HW248269   0.858  11.948  10.764
82144SOL     OW48270   2.001   7.749   4.786
82144SOL    HW148271   2.084   7.783   4.820
82144SOL    HW248272   1.940   7.823   4.792
82145SOL     OW48273   8.279   4.987   9.149
82145SOL    HW148274   8.196   4.953   9.183
82145SOL    HW248275   8.258   5.013   9.059
82146SOL     OW48276   7.330  14.073  10.954
82146SOL    HW148277   7.342  14.164  10.980
82146SOL    HW248278   7.248  14.047  10.996
82147SOL     OW48279   3.832   4.181   3.085
82147SOL    HW148280   3.780   4.103   3.065
82147SOL    HW248281   3.920   4.149   3.100
82148SOL     OW48282   3.620  13.811   0.036
82148SOL    HW148283   3.647  13.902   0.047
82148SOL    HW248284   3.578  13.788   0.119
82149SOL     OW48285   3.606   1.170  13.341
82149SOL    HW148286   3.685   1.121  13.316
82149SOL    HW248287   3.639   1.256  13.369
82150SOL     OW48288   7.396  11.099  10.093
82150SOL    HW148289   7.471  11.143  10.135
82150SOL    HW248290   7.361  11.165  10.033
82151SOL     OW48291   4.051   6.649   1.540
82151SOL    HW148292   4.068   6.557   1.559
82151SOL    HW248293   4.031   6.650   1.446
82152SOL     OW48294   1.023   9.783   2.507
82152SOL    HW148295   0.990   9.855   2.453
82152SOL    HW248296   0.991   9.803   2.595
82153SOL     OW48297   7.481  13.779   5.946
82153SOL    HW148298   7.546  13.756   6.013
82153SOL    HW248299   7.397  13.777   5.992
82154SOL     OW48300   8.030  11.447   6.123
82154SOL    HW148301   7.977  11.484   6.194
82154SOL    HW248302   8.120  11.451   6.155
82155SOL     OW48303   7.625  11.868  14.849
82155SOL    HW148304   7.534  11.840  14.846
82155SOL    HW248305   7.645  11.892  14.758
82156SOL     OW48306  13.561   6.353  12.818
82156SOL    HW148307  13.512   6.283  12.775
82156SOL    HW248308  13.493   6.416  12.844
82157SOL     OW48309  14.409   3.745  14.431
82157SOL    HW148310  14.501   3.771  14.424
82157SOL    HW248311  14.378   3.788  14.511
82158SOL     OW48312  12.711   8.343   0.755
82158SOL    HW148313  12.751   8.376   0.835
82158SOL    HW248314  12.784   8.309   0.704
82159SOL     OW48315  10.378  14.231   8.605
82159SOL    HW148316  10.466  14.253   8.636
82159SOL    HW248317  10.392  14.183   8.523
82160SOL     OW48318   1.849  14.111  14.252
82160SOL    HW148319   1.941  14.088  14.240
82160SOL    HW248320   1.828  14.167  14.177
82161SOL     OW48321  13.381   5.094  11.256
82161SOL    HW148322  13.468   5.131  11.272
82161SOL    HW248323  13.372   5.095  11.161
82162SOL     OW48324  12.260   0.403  13.551
82162SOL    HW148325  12.286   0.315  13.579
82162SOL    HW248326  12.189   0.389  13.488
82163SOL     OW48327   5.664  10.407   7.226
82163SOL    HW148328   5.738  10.347   7.235
82163SOL    HW248329   5.628  10.414   7.314
82164SOL     OW48330   8.245   5.319  10.436
82164SOL    HW148331   8.174   5.293  10.495
82164SOL    HW248332   8.321   5.270  10.468
82165SOL     OW48333  13.266   4.948  14.080
82165SOL    HW148334  13.266   4.932  13.986
82165SOL    HW248335  13.275   4.861  14.119
82166SOL     OW48336  12.191   1.989  11.880
82166SOL    HW148337  12.277   1.952  11.860
82166SOL    HW248338  12.150   2.001  11.794
82167SOL     OW48339  12.676  10.503   1.229
82167SOL    HW148340  12.766  10.504   1.259
82167SOL    HW248341  12.681  10.531   1.137
82168SOL     OW48342  14.547   0.764   7.104
82168SOL    HW148343  14.585   0.730   7.186
82168SOL    HW248344  14.465   0.715   7.095
82169SOL     OW48345   3.665   3.692   3.831
82169SOL    HW148346   3.621   3.769   3.795
82169SOL    HW248347   3.719   3.726   3.902
82170SOL     OW48348   2.332   5.329   8.889
82170SOL    HW148349   2.280   5.409   8.882
82170SOL    HW248350   2.269   5.262   8.916
82171SOL     OW48351   3.687   2.821  13.057
82171SOL    HW148352   3.672   2.792  13.147
82171SOL    HW248353   3.776   2.854  13.057
82172SOL     OW48354   6.635   7.328   1.687
82172SOL    HW148355   6.575   7.358   1.755
82172SOL    HW248356   6.622   7.234   1.684
82173SOL     OW48357  13.823   3.849   9.280
82173SOL    HW148358  13.904   3.833   9.230
82173SOL    HW248359  13.764   3.780   9.250
82174SOL     OW48360   7.467   6.662  11.328
82174SOL    HW148361   7.400   6.720  11.292
82174SOL    HW248362   7.540   6.720  11.350
82175SOL     OW48363   9.462  13.550   7.544
82175SOL    HW148364   9.552  13.573   7.563
82175SOL    HW248365   9.428  13.624   7.493
82176SOL     OW48366   1.647   5.535  12.524
82176SOL    HW148367   1.568   5.515  12.574
82176SOL    HW248368   1.627   5.504  12.435
82177SOL     OW48369   4.534  14.055  13.390
82177SOL    HW148370   4.604  13.989  13.396
82177SOL    HW248371   4.573  14.126  13.339
82178SOL     OW48372  14.829   3.676   1.772
82178SOL    HW148373  14.810   3.753   1.826
82178SOL    HW248374  14.743   3.645   1.744
82179SOL     OW48375   1.760   6.021   6.530
82179SOL    HW148376   1.788   6.007   6.440
82179SOL    HW248377   1.827   6.078   6.567
82180SOL     OW48378   1.133   1.693  12.241
82180SOL    HW148379   1.095   1.780  12.237
82180SOL    HW248380   1.164   1.675  12.152
82181SOL     OW48381   9.221   7.023   4.469
82181SOL    HW148382   9.183   6.953   4.416
82181SOL    HW248383   9.178   7.015   4.554
82182SOL     OW48384   5.294  10.265   2.753
82182SOL    HW148385   5.381  10.271   2.795
82182SOL    HW248386   5.250  10.346   2.779
82183SOL     OW48387  12.977   5.754  12.266
82183SOL    HW148388  12.896   5.719  12.228
82183SOL    HW248389  12.954   5.841  12.297
82184SOL     OW48390   7.392  11.824   3.585
82184SOL    HW148391   7.333  11.880   3.535
82184SOL    HW248392   7.480  11.846   3.553
82185SOL     OW48393   6.999   4.363   2.365
82185SOL    HW148394   7.059   4.409   2.307
82185SOL    HW248395   6.958   4.432   2.417
82186SOL     OW48396   8.568   3.671   1.201
82186SOL    HW148397   8.588   3.751   1.250
82186SOL    HW248398   8.609   3.601   1.252
82187SOL     OW48399  14.437   6.101  10.133
82187SOL    HW148400  14.529   6.094  10.155
82187SOL    HW248401  14.398   6.150  10.205
82188SOL     OW48402  12.903  13.309  11.961
82188SOL    HW148403  12.986  13.331  11.918
82188SOL    HW248404  12.910  13.216  11.981
82189SOL     OW48405  10.566   7.948  11.816
82189SOL    HW148406  10.610   7.884  11.760
82189SOL    HW248407  10.533   7.895  11.890
82190SOL     OW48408  12.851  11.143   8.870
82190SOL    HW148409  12.873  11.092   8.793
82190SOL    HW248410  12.832  11.078   8.938
82191SOL     OW48411   0.773  13.768   3.883
82191SOL    HW148412   0.846  13.707   3.879
82191SOL    HW248413   0.809  13.846   3.924
82192SOL     OW48414   5.009   9.689   0.693
82192SOL    HW148415   5.041   9.666   0.780
82192SOL    HW248416   4.976   9.779   0.703
82193SOL     OW48417   7.209   2.053   6.178
82193SOL    HW148418   7.303   2.069   6.176
82193SOL    HW248419   7.195   1.988   6.109
82194SOL     OW48420   4.328   3.386  12.268
82194SOL    HW148421   4.365   3.348  12.348
82194SOL    HW248422   4.331   3.315  12.204
82195SOL     OW48423   1.646  10.299   8.837
82195SOL    HW148424   1.634  10.383   8.793
82195SOL    HW248425   1.592  10.238   8.786
82196SOL     OW48426   6.441   6.161   3.928
82196SOL    HW148427   6.354   6.129   3.906
82196SOL    HW248428   6.482   6.180   3.843
82197SOL     OW48429   5.305   6.708  11.536
82197SOL    HW148430   5.244   6.683  11.467
82197SOL    HW248431   5.284   6.799  11.555
82198SOL     OW48432   0.600   5.141   2.283
82198SOL    HW148433   0.656   5.198   2.231
82198SOL    HW248434   0.570   5.074   2.222
82199SOL     OW48435  11.787   0.094   6.888
82199SOL    HW148436  11.748   0.094   6.801
82199SOL    HW248437  11.852   0.164   6.885
82200SOL     OW48438  11.580   3.420   4.127
82200SOL    HW148439  11.592   3.460   4.213
82200SOL    HW248440  11.570   3.326   4.146
82201SOL     OW48441   6.080   8.672   8.524
82201SOL    HW148442   6.113   8.730   8.593
82201SOL    HW248443   5.987   8.661   8.545
82202SOL     OW48444   0.976   9.867   9.972
82202SOL    HW148445   0.914   9.810  10.019
82202SOL    HW248446   0.935   9.953   9.976
82203SOL     OW48447  12.333   3.595  13.061
82203SOL    HW148448  12.321   3.667  13.123
82203SOL    HW248449  12.419   3.612  13.022
82204SOL     OW48450   9.058  11.069   1.731
82204SOL    HW148451   9.073  11.038   1.642
82204SOL    HW248452   9.036  11.162   1.720
82205SOL     OW48453   8.431  13.982   1.603
82205SOL    HW148454   8.457  14.057   1.657
82205SOL    HW248455   8.389  13.921   1.663
82206SOL     OW48456   1.529   1.758   0.312
82206SOL    HW148457   1.540   1.851   0.296
82206SOL    HW248458   1.594   1.738   0.380
82207SOL     OW48459   2.710   9.846   4.006
82207SOL    HW148460   2.759   9.898   3.942
82207SOL    HW248461   2.735   9.755   3.988
82208SOL     OW48462   1.367   8.236   2.654
82208SOL    HW148463   1.323   8.168   2.705
82208SOL    HW248464   1.454   8.243   2.695
82209SOL     OW48465   3.034  12.664   0.812
82209SOL    HW148466   3.010  12.638   0.901
82209SOL    HW248467   3.005  12.755   0.805
82210SOL     OW48468   8.790   0.873   2.696
82210SOL    HW148469   8.877   0.909   2.680
82210SOL    HW248470   8.771   0.896   2.786
82211SOL     OW48471   0.087   2.073   0.200
82211SOL    HW148472   0.124   2.045   0.283
82211SOL    HW248473   0.110   2.166   0.193
82212SOL     OW48474  10.198   0.958   8.077
82212SOL    HW148475  10.178   0.904   8.001
82212SOL    HW248476  10.293   0.958   8.083
82213SOL     OW48477  10.763   5.948   2.589
82213SOL    HW148478  10.811   5.937   2.507
82213SOL    HW248479  10.771   5.864   2.633
82214SOL     OW48480  10.964   3.530   6.928
82214SOL    HW148481  10.894   3.554   6.867
82214SOL    HW248482  10.931   3.451   6.972
82215SOL     OW48483   7.112   4.093   6.266
82215SOL    HW148484   7.100   4.145   6.186
82215SOL    HW248485   7.068   4.010   6.247
82216SOL     OW48486   5.181   7.211  12.177
82216SOL    HW148487   5.223   7.179  12.097
82216SOL    HW248488   5.254   7.225  12.238
82217SOL     OW48489  10.306   9.265   6.003
82217SOL    HW148490  10.373   9.261   5.935
82217SOL    HW248491  10.341   9.329   6.066
82218SOL     OW48492   9.241   0.852   1.973
82218SOL    HW148493   9.315   0.840   2.032
82218SOL    HW248494   9.176   0.899   2.025
82219SOL     OW48495   0.085   9.615   1.257
82219SOL    HW148496   0.017   9.570   1.308
82219SOL    HW248497   0.049   9.618   1.168
82220SOL     OW48498   0.544  11.593   3.320
82220SOL    HW148499   0.455  11.629   3.322
82220SOL    HW248500   0.577  11.607   3.409
82221SOL     OW48501   9.283   4.102   7.718
82221SOL    HW148502   9.244   4.030   7.767
82221SOL    HW248503   9.367   4.117   7.760
82222SOL     OW48504  13.696   2.869   3.506
82222SOL    HW148505  13.685   2.936   3.438
82222SOL    HW248506  13.607   2.847   3.532
82223SOL     OW48507  11.746   4.400   4.784
82223SOL    HW148508  11.755   4.463   4.712
82223SOL    HW248509  11.747   4.314   4.741
82224SOL     OW48510   2.395   8.664   9.500
82224SOL    HW148511   2.436   8.578   9.498
82224SOL    HW248512   2.464   8.724   9.474
82225SOL     OW48513   8.727  13.636   6.311
82225SOL    HW148514   8.795  13.652   6.245
82225SOL    HW248515   8.691  13.722   6.331
82226SOL     OW48516   0.354  13.410   1.087
82226SOL    HW148517   0.275  13.389   1.137
82226SOL    HW248518   0.322  13.466   1.016
82227SOL     OW48519  11.388   7.579   4.600
82227SOL    HW148520  11.355   7.658   4.643
82227SOL    HW248521  11.309   7.530   4.577
82228SOL     OW48522   0.428   2.223   1.638
82228SOL    HW148523   0.394   2.302   1.681
82228SOL    HW248524   0.357   2.159   1.645
82229SOL     OW48525  12.953   4.493   0.304
82229SOL    HW148526  13.018   4.428   0.330
82229SOL    HW248527  13.003   4.562   0.261
82230SOL     OW48528  11.823   5.200  10.891
82230SOL    HW148529  11.880   5.179  10.965
82230SOL    HW248530  11.758   5.129  10.890
82231SOL     OW48531  14.007  10.673   5.865
82231SOL    HW148532  13.962  10.674   5.780
82231SOL    HW248533  13.939  10.693   5.929
82232SOL     OW48534   3.431   9.069   1.691
82232SOL    HW148535   3.376   9.138   1.655
82232SOL    HW248536   3.519   9.090   1.659
82233SOL     OW48537   3.726   5.815   8.609
82233SOL    HW148538   3.749   5.907   8.628
82233SOL    HW248539   3.809   5.774   8.587
82234SOL     OW48540  12.955  11.299   8.127
82234SOL    HW148541  12.945  11.205   8.115
82234SOL    HW248542  13.029  11.307   8.188
82235SOL     OW48543   3.901   0.686   2.461
82235SOL    HW148544   3.875   0.722   2.376
82235SOL    HW248545   3.821   0.645   2.494
82236SOL     OW48546   2.558   9.232   1.872
82236SOL    HW148547   2.542   9.239   1.778
82236SOL    HW248548   2.490   9.173   1.904
82237SOL     OW48549   2.148   2.647   3.134
82237SOL    HW148550   2.137   2.665   3.227
82237SOL    HW248551   2.242   2.662   3.118
82238SOL     OW48552  12.880   5.053   4.688
82238SOL    HW148553  12.913   4.965   4.707
82238SOL    HW248554  12.828   5.043   4.609
82239SOL     OW48555   6.352  11.993   9.739
82239SOL    HW148556   6.393  11.985   9.653
82239SOL    HW248557   6.419  12.032   9.795
82240SOL     OW48558   0.823  10.652   4.373
82240SOL    HW148559   0.796  10.642   4.464
82240SOL    HW248560   0.762  10.716   4.336
82241SOL     OW48561   3.105  13.093   8.276
82241SOL    HW148562   3.044  13.064   8.209
82241SOL    HW248563   3.066  13.174   8.311
82242SOL     OW48564   3.010  14.514   7.383
82242SOL    HW148565   2.943  14.475   7.440
82242SOL    HW248566   2.977  14.499   7.295
82243SOL     OW48567   6.190   0.468   9.169
82243SOL    HW148568   6.261   0.496   9.226
82243SOL    HW248569   6.233   0.432   9.091
82244SOL     OW48570   4.161  11.106   3.824
82244SOL    HW148571   4.080  11.075   3.784
82244SOL    HW248572   4.219  11.029   3.823
82245SOL     OW48573   2.291  11.021   7.561
82245SOL    HW148574   2.307  11.055   7.473
82245SOL    HW248575   2.216  11.072   7.593
82246SOL     OW48576   1.316   6.505  13.574
82246SOL    HW148577   1.289   6.580  13.521
82246SOL    HW248578   1.321   6.540  13.663
82247SOL     OW48579   3.356   9.582   8.331
82247SOL    HW148580   3.376   9.500   8.287
82247SOL    HW248581   3.441   9.619   8.354
82248SOL     OW48582   4.629   0.588   7.267
82248SOL    HW148583   4.539   0.619   7.259
82248SOL    HW248584   4.624   0.494   7.253
82249SOL     OW48585   7.677  12.118   5.365
82249SOL    HW148586   7.582  12.118   5.354
82249SOL    HW248587   7.692  12.093   5.456
82250SOL     OW48588   1.533   1.248   4.714
82250SOL    HW148589   1.469   1.241   4.643
82250SOL    HW248590   1.584   1.168   4.708
82251SOL     OW48591  11.762  11.458  14.388
82251SOL    HW148592  11.712  11.520  14.441
82251SOL    HW248593  11.837  11.509  14.356
82252SOL     OW48594   5.629  10.670  13.318
82252SOL    HW148595   5.611  10.762  13.339
82252SOL    HW248596   5.577  10.654  13.239
82253SOL     OW48597   2.930  10.973   6.695
82253SOL    HW148598   2.895  10.893   6.734
82253SOL    HW248599   2.942  11.033   6.769
82254SOL     OW48600   7.177   4.537   8.933
82254SOL    HW148601   7.202   4.518   8.842
82254SOL    HW248602   7.094   4.583   8.926
82255SOL     OW48603   0.928   6.090   3.600
82255SOL    HW148604   0.939   6.021   3.665
82255SOL    HW248605   0.835   6.113   3.604
82256SOL     OW48606  13.189   7.718  10.923
82256SOL    HW148607  13.255   7.787  10.938
82256SOL    HW248608  13.227   7.640  10.963
82257SOL     OW48609   4.012   5.153   6.667
82257SOL    HW148610   4.017   5.061   6.693
82257SOL    HW248611   4.071   5.160   6.592
82258SOL     OW48612  12.424   2.877   2.151
82258SOL    HW148613  12.409   2.845   2.062
82258SOL    HW248614  12.508   2.839   2.176
82259SOL     OW48615   9.694   9.173   8.314
82259SOL    HW148616   9.757   9.113   8.275
82259SOL    HW248617   9.743   9.254   8.327
82260SOL     OW48618  11.100   5.382   3.602
82260SOL    HW148619  11.126   5.312   3.662
82260SOL    HW248620  11.080   5.456   3.659
82261SOL     OW48621   8.800  10.460  14.254
82261SOL    HW148622   8.807  10.467  14.158
82261SOL    HW248623   8.836  10.373  14.273
82262SOL     OW48624   1.364   0.433  12.796
82262SOL    HW148625   1.303   0.429  12.722
82262SOL    HW248626   1.403   0.346  12.800
82263SOL     OW48627   0.218   8.687   4.852
82263SOL    HW148628   0.126   8.711   4.862
82263SOL    HW248629   0.221   8.594   4.872
82264SOL     OW48630   0.502   9.423   3.877
82264SOL    HW148631   0.546   9.341   3.857
82264SOL    HW248632   0.409   9.400   3.879
82265SOL     OW48633  13.817   8.393   0.490
82265SOL    HW148634  13.819   8.432   0.578
82265SOL    HW248635  13.725   8.396   0.464
82266SOL     OW48636   2.863  11.278   5.174
82266SOL    HW148637   2.817  11.335   5.236
82266SOL    HW248638   2.857  11.325   5.091
82267SOL     OW48639  14.427   9.364  11.793
82267SOL    HW148640  14.380   9.362  11.876
82267SOL    HW248641  14.480   9.284  11.793
82268SOL     OW48642   0.521   7.737  11.743
82268SOL    HW148643   0.501   7.828  11.723
82268SOL    HW248644   0.435   7.696  11.753
82269SOL     OW48645   1.912   0.433   8.179
82269SOL    HW148646   1.960   0.356   8.146
82269SOL    HW248647   1.869   0.402   8.259
82270SOL     OW48648   1.464   1.329  11.489
82270SOL    HW148649   1.540   1.283  11.525
82270SOL    HW248650   1.482   1.422  11.504
82271SOL     OW48651  12.569  14.321   4.429
82271SOL    HW148652  12.532  14.293   4.345
82271SOL    HW248653  12.539  14.255   4.491
82272SOL     OW48654   2.286   0.624   1.262
82272SOL    HW148655   2.195   0.599   1.242
82272SOL    HW248656   2.280   0.715   1.291
82273SOL     OW48657  12.486   6.223  13.023
82273SOL    HW148658  12.454   6.214  13.113
82273SOL    HW248659  12.424   6.170  12.971
82274SOL     OW48660  12.685   5.981  12.866
82274SOL    HW148661  12.686   5.972  12.962
82274SOL    HW248662  12.767   5.940  12.838
82275SOL     OW48663   0.425   9.880  13.565
82275SOL    HW148664   0.350   9.939  13.563
82275SOL    HW248665   0.473   9.899  13.485
82276SOL     OW48666   6.164   8.397  12.187
82276SOL    HW148667   6.224   8.334  12.226
82276SOL    HW248668   6.110   8.345  12.128
82277SOL     OW48669   0.112  13.084   0.257
82277SOL    HW148670   0.054  13.111   0.185
82277SOL    HW248671   0.148  13.000   0.229
82278SOL     OW48672  14.575   7.712   4.493
82278SOL    HW148673  14.623   7.632   4.513
82278SOL    HW248674  14.525   7.731   4.573
82279SOL     OW48675   3.747   2.773   2.918
82279SOL    HW148676   3.740   2.812   3.005
82279SOL    HW248677   3.663   2.729   2.904
82280SOL     OW48678  13.557  14.194   8.358
82280SOL    HW148679  13.645  14.230   8.353
82280SOL    HW248680  13.526  14.193   8.268
82281SOL     OW48681   2.992  11.284   3.548
82281SOL    HW148682   2.984  11.319   3.460
82281SOL    HW248683   2.944  11.346   3.603
82282SOL     OW48684  13.550   7.764   6.097
82282SOL    HW148685  13.551   7.843   6.151
82282SOL    HW248686  13.574   7.793   6.009
82283SOL     OW48687  13.654  14.445   3.869
82283SOL    HW148688  13.595  14.491   3.929
82283SOL    HW248689  13.595  14.405   3.805
82284SOL     OW48690   3.263   8.920   5.240
82284SOL    HW148691   3.196   8.987   5.250
82284SOL    HW248692   3.342   8.968   5.215
82285SOL     OW48693   5.837   8.634   8.261
82285SOL    HW148694   5.923   8.664   8.229
82285SOL    HW248695   5.785   8.713   8.267
82286SOL     OW48696  10.542   9.334   6.243
82286SOL    HW148697  10.538   9.415   6.295
82286SOL    HW248698  10.625   9.341   6.195
82287SOL     OW48699   6.798   5.317  11.277
82287SOL    HW148700   6.740   5.242  11.279
82287SOL    HW248701   6.846   5.309  11.195
82288SOL     OW48702  13.648   0.432   2.475
82288SOL    HW148703  13.658   0.340   2.499
82288SOL    HW248704  13.563   0.457   2.510
82289SOL     OW48705  10.556   4.300   9.974
82289SOL    HW148706  10.631   4.276   9.921
82289SOL    HW248707  10.558   4.396   9.976
82290SOL     OW48708   6.381   1.332   6.576
82290SOL    HW148709   6.297   1.376   6.587
82290SOL    HW248710   6.365   1.265   6.510
82291SOL     OW48711  13.867   8.614   5.899
82291SOL    HW148712  13.919   8.676   5.951
82291SOL    HW248713  13.932   8.561   5.853
82292SOL     OW48714   1.761  13.579  14.151
82292SOL    HW148715   1.675  13.540  14.166
82292SOL    HW248716   1.783  13.555  14.061
82293SOL     OW48717   4.249  12.387  12.154
82293SOL    HW148718   4.275  12.423  12.069
82293SOL    HW248719   4.162  12.424  12.171
82294SOL     OW48720   1.863  12.270  10.473
82294SOL    HW148721   1.904  12.355  10.483
82294SOL    HW248722   1.868  12.229  10.559
82295SOL     OW48723  12.277   5.329   3.726
82295SOL    HW148724  12.225   5.250   3.738
82295SOL    HW248725  12.352   5.318   3.786
82296SOL     OW48726  13.543  14.847   5.874
82296SOL    HW148727  13.500  14.862   5.790
82296SOL    HW248728  13.545   0.054   5.916
82297SOL     OW48729  10.836   5.595   3.711
82297SOL    HW148730  10.773   5.657   3.748
82297SOL    HW248731  10.856   5.536   3.783
82298SOL     OW48732   4.487   6.828  14.561
82298SOL    HW148733   4.473   6.745  14.607
82298SOL    HW248734   4.477   6.805  14.468
82299SOL     OW48735   7.691   5.724  13.182
82299SOL    HW148736   7.662   5.748  13.270
82299SOL    HW248737   7.661   5.634  13.170
82300SOL     OW48738  12.034  12.358  12.152
82300SOL    HW148739  12.057  12.379  12.242
82300SOL    HW248740  12.117  12.360  12.104
82301SOL     OW48741   6.079  12.412   2.302
82301SOL    HW148742   6.148  12.346   2.316
82301SOL    HW248743   6.114  12.492   2.341
82302SOL     OW48744   5.473  11.139   9.449
82302SOL    HW148745   5.466  11.055   9.495
82302SOL    HW248746   5.562  11.169   9.467
82303SOL     OW48747   3.032  12.156   8.241
82303SOL    HW148748   2.962  12.140   8.178
82303SOL    HW248749   3.107  12.183   8.188
82304SOL     OW48750   0.801   6.459   3.962
82304SOL    HW148751   0.766   6.526   4.021
82304SOL    HW248752   0.790   6.377   4.011
82305SOL     OW48753   9.073   8.078   0.395
82305SOL    HW148754   9.129   8.155   0.396
82305SOL    HW248755   9.007   8.095   0.462
82306SOL     OW48756  14.075   6.890   8.987
82306SOL    HW148757  14.074   6.968   8.931
82306SOL    HW248758  14.165   6.884   9.018
82307SOL     OW48759   5.287  14.140  11.815
82307SOL    HW148760   5.343  14.190  11.874
82307SOL    HW248761   5.344  14.071  11.780
82308SOL     OW48762  12.501  12.604   3.828
82308SOL    HW148763  12.480  12.639   3.914
82308SOL    HW248764  12.488  12.509   3.836
82309SOL     OW48765   4.363   8.895  13.003
82309SOL    HW148766   4.364   8.909  13.097
82309SOL    HW248767   4.360   8.984  12.966
82310SOL     OW48768   5.803   3.402   7.593
82310SOL    HW148769   5.870   3.336   7.575
82310SOL    HW248770   5.834   3.446   7.672
82311SOL     OW48771   2.100  13.987   1.291
82311SOL    HW148772   2.125  13.939   1.212
82311SOL    HW248773   2.026  13.938   1.326
82312SOL     OW48774  10.000  11.933   8.722
82312SOL    HW148775   9.917  11.886   8.718
82312SOL    HW248776  10.032  11.935   8.632
82313SOL     OW48777   7.936   0.248   0.978
82313SOL    HW148778   7.971   0.324   1.024
82313SOL    HW248779   7.985   0.244   0.896
82314SOL     OW48780   0.716  13.531   6.355
82314SOL    HW148781   0.791  13.518   6.296
82314SOL    HW248782   0.748  13.502   6.441
82315SOL     OW48783   7.251  14.595   1.447
82315SOL    HW148784   7.206  14.544   1.380
82315SOL    HW248785   7.337  14.552   1.456
82316SOL     OW48786  13.992   8.562  13.714
82316SOL    HW148787  13.968   8.542  13.804
82316SOL    HW248788  14.056   8.495  13.690
82317SOL     OW48789  14.211   3.383  11.719
82317SOL    HW148790  14.260   3.316  11.671
82317SOL    HW248791  14.128   3.341  11.743
82318SOL     OW48792   1.712  11.682  10.587
82318SOL    HW148793   1.677  11.698  10.499
82318SOL    HW248794   1.799  11.644  10.571
82319SOL     OW48795  10.458   2.124  10.257
82319SOL    HW148796  10.430   2.197  10.313
82319SOL    HW248797  10.550   2.112  10.278
82320SOL     OW48798  12.198   8.342   9.563
82320SOL    HW148799  12.269   8.407   9.562
82320SOL    HW248800  12.143   8.369   9.637
82321SOL     OW48801   0.478   2.026  12.988
82321SOL    HW148802   0.445   2.108  13.024
82321SOL    HW248803   0.552   2.004  13.043
82322SOL     OW48804   4.276  12.381  13.800
82322SOL    HW148805   4.309  12.359  13.713
82322SOL    HW248806   4.273  12.476  13.802
82323SOL     OW48807  13.620   5.347   7.798
82323SOL    HW148808  13.575   5.410   7.742
82323SOL    HW248809  13.568   5.346   7.879
82324SOL     OW48810   9.740  10.616   9.521
82324SOL    HW148811   9.742  10.579   9.609
82324SOL    HW248812   9.672  10.566   9.476
82325SOL     OW48813  11.487   9.185   8.270
82325SOL    HW148814  11.523   9.130   8.201
82325SOL    HW248815  11.409   9.139   8.299
82326SOL     OW48816   8.755   6.234   9.540
82326SOL    HW148817   8.739   6.176   9.465
82326SOL    HW248818   8.775   6.175   9.612
82327SOL     OW48819  10.359   6.522   8.315
82327SOL    HW148820  10.268   6.497   8.301
82327SOL    HW248821  10.360   6.617   8.300
82328SOL     OW48822  10.327  14.453  12.970
82328SOL    HW148823  10.385  14.522  12.938
82328SOL    HW248824  10.245  14.499  12.990
82329SOL     OW48825  11.275   3.648  12.372
82329SOL    HW148826  11.352   3.643  12.429
82329SOL    HW248827  11.294   3.719  12.311
82330SOL     OW48828  11.641   0.286   5.153
82330SOL    HW148829  11.708   0.320   5.095
82330SOL    HW248830  11.561   0.330   5.126
82331SOL     OW48831   4.610  12.811   5.364
82331SOL    HW148832   4.577  12.900   5.354
82331SOL    HW248833   4.607  12.774   5.276
82332SOL     OW48834   3.636   3.096   5.225
82332SOL    HW148835   3.617   3.114   5.132
82332SOL    HW248836   3.671   3.179   5.258
82333SOL     OW48837   8.628   3.204   3.698
82333SOL    HW148838   8.650   3.295   3.717
82333SOL    HW248839   8.542   3.191   3.738
82334SOL     OW48840   3.939  11.973   3.184
82334SOL    HW148841   3.879  11.992   3.112
82334SOL    HW248842   4.008  12.038   3.176
82335SOL     OW48843   0.676   0.631  14.820
82335SOL    HW148844   0.603   0.689  14.842
82335SOL    HW248845   0.750   0.667  14.868
82336SOL     OW48846   0.855  10.788   5.320
82336SOL    HW148847   0.865  10.729   5.395
82336SOL    HW248848   0.828  10.871   5.359
82337SOL     OW48849  10.603  12.822  13.984
82337SOL    HW148850  10.595  12.733  13.951
82337SOL    HW248851  10.522  12.865  13.955
82338SOL     OW48852  10.542   2.996   9.441
82338SOL    HW148853  10.593   2.992   9.522
82338SOL    HW248854  10.523   3.089   9.429
82339SOL     OW48855   5.612  10.544   2.672
82339SOL    HW148856   5.586  10.510   2.758
82339SOL    HW248857   5.693  10.591   2.689
82340SOL     OW48858  13.378   7.388   5.724
82340SOL    HW148859  13.312   7.319   5.714
82340SOL    HW248860  13.335   7.456   5.776
82341SOL     OW48861   6.753   1.086   0.527
82341SOL    HW148862   6.819   1.019   0.543
82341SOL    HW248863   6.801   1.169   0.533
82342SOL     OW48864  13.575   4.586  13.441
82342SOL    HW148865  13.585   4.497  13.410
82342SOL    HW248866  13.664   4.619  13.450
82343SOL     OW48867  10.237  10.880  11.009
82343SOL    HW148868  10.240  10.802  10.954
82343SOL    HW248869  10.244  10.954  10.949
82344SOL     OW48870  13.469   3.335  12.429
82344SOL    HW148871  13.376   3.315  12.431
82344SOL    HW248872  13.492   3.351  12.520
82345SOL     OW48873   9.906   1.736   8.398
82345SOL    HW148874   9.991   1.741   8.442
82345SOL    HW248875   9.869   1.824   8.409
82346SOL     OW48876  10.645  14.152   6.653
82346SOL    HW148877  10.627  14.200   6.572
82346SOL    HW248878  10.703  14.210   6.703
82347SOL     OW48879  11.117   8.203   0.139
82347SOL    HW148880  11.175   8.209   0.215
82347SOL    HW248881  11.060   8.280   0.146
82348SOL     OW48882  14.482   5.573   5.780
82348SOL    HW148883  14.397   5.536   5.805
82348SOL    HW248884  14.545   5.531   5.839
82349SOL     OW48885  12.517  12.107   3.695
82349SOL    HW148886  12.607  12.079   3.710
82349SOL    HW248887  12.525  12.196   3.662
82350SOL     OW48888   1.029  12.130  11.749
82350SOL    HW148889   0.976  12.092  11.680
82350SOL    HW248890   1.020  12.069  11.823
82351SOL     OW48891  14.690   6.523   5.124
82351SOL    HW148892  14.665   6.448   5.070
82351SOL    HW248893  14.656   6.501   5.211
82352SOL     OW48894   0.260  12.021   6.714
82352SOL    HW148895   0.319  12.016   6.789
82352SOL    HW248896   0.232  11.930   6.700
82353SOL     OW48897   7.285   3.818  12.706
82353SOL    HW148898   7.320   3.737  12.742
82353SOL    HW248899   7.361   3.862  12.668
82354SOL     OW48900  14.481   9.233   7.890
82354SOL    HW148901  14.523   9.316   7.867
82354SOL    HW248902  14.542   9.192   7.951
82355SOL     OW48903   5.451   4.965  11.386
82355SOL    HW148904   5.546   4.976  11.385
82355SOL    HW248905   5.421   5.012  11.308
82356SOL     OW48906   2.413   4.942  10.754
82356SOL    HW148907   2.437   4.850  10.763
82356SOL    HW248908   2.384   4.968  10.841
82357SOL     OW48909  14.292  11.690  13.841
82357SOL    HW148910  14.203  11.708  13.811
82357SOL    HW248911  14.292  11.719  13.932
82358SOL     OW48912   3.784  14.428   5.366
82358SOL    HW148913   3.699  14.392   5.390
82358SOL    HW248914   3.786  14.426   5.271
82359SOL     OW48915  10.936   8.558   8.962
82359SOL    HW148916  10.843   8.581   8.971
82359SOL    HW248917  10.947   8.482   9.020
82360SOL     OW48918  14.814   8.710   7.583
82360SOL    HW148919   0.026   8.700   7.556
82360SOL    HW248920  14.769   8.737   7.503
82361SOL     OW48921   2.877   3.990  13.054
82361SOL    HW148922   2.903   4.068  13.104
82361SOL    HW248923   2.944   3.982  12.987
82362SOL     OW48924   3.316  11.982  14.757
82362SOL    HW148925   3.350  12.049  14.817
82362SOL    HW248926   3.313  12.026  14.672
82363SOL     OW48927   0.994   6.349  11.384
82363SOL    HW148928   1.056   6.288  11.423
82363SOL    HW248929   0.956   6.395  11.459
82364SOL     OW48930   9.072   9.550   3.280
82364SOL    HW148931   9.112   9.463   3.274
82364SOL    HW248932   8.978   9.533   3.274
82365SOL     OW48933   5.229   1.894   9.940
82365SOL    HW148934   5.311   1.933   9.971
82365SOL    HW248935   5.237   1.896   9.844
82366SOL     OW48936   8.357   2.504  12.976
82366SOL    HW148937   8.400   2.434  13.026
82366SOL    HW248938   8.428   2.546  12.928
82367SOL     OW48939   7.240  10.312   4.284
82367SOL    HW148940   7.178  10.293   4.354
82367SOL    HW248941   7.322  10.273   4.314
82368SOL     OW48942   4.259   4.338   7.694
82368SOL    HW148943   4.196   4.266   7.698
82368SOL    HW248944   4.336   4.301   7.650
82369SOL     OW48945   5.054   1.648  11.560
82369SOL    HW148946   5.008   1.661  11.478
82369SOL    HW248947   5.146   1.665  11.539
82370SOL     OW48948   4.769   9.872   5.898
82370SOL    HW148949   4.730   9.959   5.897
82370SOL    HW248950   4.697   9.813   5.920
82371SOL     OW48951   9.683  12.957   1.169
82371SOL    HW148952   9.744  12.954   1.243
82371SOL    HW248953   9.633  12.876   1.176
82372SOL     OW48954   1.908  10.724   8.293
82372SOL    HW148955   1.976  10.769   8.242
82372SOL    HW248956   1.835  10.713   8.232
82373SOL     OW48957  10.840  10.773  14.361
82373SOL    HW148958  10.817  10.840  14.425
82373SOL    HW248959  10.882  10.820  14.290
82374SOL     OW48960   0.963   8.457   6.729
82374SOL    HW148961   1.053   8.466   6.699
82374SOL    HW248962   0.951   8.363   6.741
82375SOL     OW48963   1.886  12.246   9.789
82375SOL    HW148964   1.844  12.236   9.874
82375SOL    HW248965   1.918  12.158   9.767
82376SOL     OW48966   5.154   0.567  12.731
82376SOL    HW148967   5.126   0.656  12.711
82376SOL    HW248968   5.084   0.531  12.786
82377SOL     OW48969   5.357   4.625   0.548
82377SOL    HW148970   5.386   4.560   0.612
82377SOL    HW248971   5.402   4.706   0.573
82378SOL     OW48972  11.191  10.511   2.348
82378SOL    HW148973  11.232  10.530   2.432
82378SOL    HW248974  11.259  10.467   2.297
82379SOL     OW48975  11.584  10.588   0.367
82379SOL    HW148976  11.579  10.684   0.364
82379SOL    HW248977  11.574  10.567   0.460
82380SOL     OW48978   5.924  12.443  13.555
82380SOL    HW148979   6.015  12.437  13.528
82380SOL    HW248980   5.927  12.465  13.648
82381SOL     OW48981   4.051  11.495   9.807
82381SOL    HW148982   3.990  11.450   9.748
82381SOL    HW248983   3.996  11.523   9.880
82382SOL     OW48984   5.141   0.225   6.457
82382SOL    HW148985   5.097   0.210   6.540
82382SOL    HW248986   5.234   0.217   6.477
82383SOL     OW48987   2.357   4.823   9.363
82383SOL    HW148988   2.333   4.902   9.316
82383SOL    HW248989   2.285   4.809   9.425
82384SOL     OW48990  12.612  11.555  14.308
82384SOL    HW148991  12.652  11.506  14.380
82384SOL    HW248992  12.553  11.617  14.351
82385SOL     OW48993   7.848   5.240   8.537
82385SOL    HW148994   7.800   5.297   8.477
82385SOL    HW248995   7.938   5.269   8.531
82386SOL     OW48996   2.767   2.866   4.297
82386SOL    HW148997   2.687   2.814   4.295
82386SOL    HW248998   2.790   2.878   4.204
82387SOL     OW48999   1.907  13.614   8.122
82387SOL    HW149000   1.947  13.666   8.192
82387SOL    HW249001   1.975  13.553   8.095
82388SOL     OW49002   9.426   5.984  12.593
82388SOL    HW149003   9.389   5.981  12.505
82388SOL    HW249004   9.417   6.075  12.621
82389SOL     OW49005  12.182   9.254   2.732
82389SOL    HW149006  12.114   9.290   2.789
82389SOL    HW249007  12.134   9.220   2.656
82390SOL     OW49008   7.007  12.942  13.649
82390SOL    HW149009   7.085  12.892  13.672
82390SOL    HW249010   7.028  12.982  13.565
82391SOL     OW49011   9.291  13.137   3.992
82391SOL    HW149012   9.289  13.111   4.085
82391SOL    HW249013   9.371  13.189   3.984
82392SOL     OW49014   8.568   4.722   8.676
82392SOL    HW149015   8.480   4.750   8.649
82392SOL    HW249016   8.578   4.758   8.764
82393SOL     OW49017   3.749   5.853  11.732
82393SOL    HW149018   3.689   5.789  11.770
82393SOL    HW249019   3.767   5.820  11.644
82394SOL     OW49020   5.980  11.509  12.604
82394SOL    HW149021   6.045  11.447  12.635
82394SOL    HW249022   5.951  11.474  12.520
82395SOL     OW49023   5.306  14.370   4.566
82395SOL    HW149024   5.385  14.323   4.537
82395SOL    HW249025   5.293  14.340   4.656
82396SOL     OW49026  12.923   2.076  13.766
82396SOL    HW149027  12.914   2.152  13.824
82396SOL    HW249028  13.014   2.048  13.777
82397SOL     OW49029   2.220  14.609   9.576
82397SOL    HW149030   2.306  14.641   9.601
82397SOL    HW249031   2.230  14.580   9.486
82398SOL     OW49032   2.602   5.585  12.778
82398SOL    HW149033   2.654   5.522  12.828
82398SOL    HW249034   2.634   5.576  12.688
82399SOL     OW49035   6.135   8.554   6.027
82399SOL    HW149036   6.226   8.555   5.998
82399SOL    HW249037   6.108   8.463   6.016
82400SOL     OW49038   0.501  14.711   4.799
82400SOL    HW149039   0.465  14.757   4.723
82400SOL    HW249040   0.444  14.736   4.872
82401SOL     OW49041   5.991   4.792   9.908
82401SOL    HW149042   6.049   4.862   9.939
82401SOL    HW249043   6.047   4.714   9.906
82402SOL     OW49044   7.794   3.511   4.569
82402SOL    HW149045   7.870   3.542   4.619
82402SOL    HW249046   7.776   3.424   4.605
82403SOL     OW49047  14.006   1.814   5.652
82403SOL    HW149048  13.957   1.848   5.727
82403SOL    HW249049  14.053   1.890   5.618
82404SOL     OW49050   9.927   2.619   5.804
82404SOL    HW149051   9.836   2.641   5.782
82404SOL    HW249052   9.977   2.645   5.727
82405SOL     OW49053   8.533  10.070   7.286
82405SOL    HW149054   8.560   9.986   7.322
82405SOL    HW249055   8.611  10.125   7.292
82406SOL     OW49056  14.029  12.694  10.255
82406SOL    HW149057  14.113  12.727  10.223
82406SOL    HW249058  13.998  12.761  10.315
82407SOL     OW49059   7.133   3.552   3.458
82407SOL    HW149060   7.167   3.542   3.369
82407SOL    HW249061   7.168   3.636   3.488
82408SOL     OW49062  14.870  12.737   8.148
82408SOL    HW149063   0.002  12.788   8.068
82408SOL    HW249064  14.785  12.765   8.182
82409SOL     OW49065  10.712   0.270   9.215
82409SOL    HW149066  10.624   0.288   9.248
82409SOL    HW249067  10.698   0.221   9.134
82410SOL     OW49068   9.105   0.555  14.064
82410SOL    HW149069   9.160   0.537  13.987
82410SOL    HW249070   9.102   0.472  14.112
82411SOL     OW49071   4.489   7.585  10.836
82411SOL    HW149072   4.406   7.574  10.788
82411SOL    HW249073   4.462   7.616  10.923
82412SOL     OW49074   7.377   9.750   0.601
82412SOL    HW149075   7.428   9.770   0.680
82412SOL    HW249076   7.429   9.685   0.554
82413SOL     OW49077   6.162   8.970  11.666
82413SOL    HW149078   6.150   9.011  11.580
82413SOL    HW249079   6.206   9.037  11.718
82414SOL     OW49080   8.052   0.254  13.117
82414SOL    HW149081   8.018   0.210  13.040
82414SOL    HW249082   8.138   0.215  13.131
82415SOL     OW49083   7.078   1.101  12.739
82415SOL    HW149084   7.173   1.106  12.755
82415SOL    HW249085   7.039   1.099  12.826
82416SOL     OW49086   5.070  13.308  12.680
82416SOL    HW149087   4.999  13.358  12.720
82416SOL    HW249088   5.076  13.342  12.590
82417SOL     OW49089  13.472   2.985   6.660
82417SOL    HW149090  13.558   2.947   6.646
82417SOL    HW249091  13.471   3.063   6.605
82418SOL     OW49092   6.510  13.864   6.679
82418SOL    HW149093   6.572  13.852   6.607
82418SOL    HW249094   6.435  13.908   6.640
82419SOL     OW49095  11.307   1.393   4.468
82419SOL    HW149096  11.315   1.480   4.428
82419SOL    HW249097  11.394   1.373   4.502
82420SOL     OW49098   7.122   0.540  13.762
82420SOL    HW149099   7.151   0.470  13.703
82420SOL    HW249100   7.032   0.518  13.783
82421SOL     OW49101  13.531   2.243  13.068
82421SOL    HW149102  13.616   2.243  13.023
82421SOL    HW249103  13.466   2.248  12.999
82422SOL     OW49104  11.932  14.146   1.564
82422SOL    HW149105  11.973  14.060   1.579
82422SOL    HW249106  11.995  14.209   1.600
82423SOL     OW49107   6.968  12.056  10.924
82423SOL    HW149108   7.044  12.059  10.866
82423SOL    HW249109   6.903  12.004  10.877
82424SOL     OW49110   9.129  11.296   6.532
82424SOL    HW149111   9.092  11.222   6.483
82424SOL    HW249112   9.224  11.287   6.520
82425SOL     OW49113   3.040  14.108  10.061
82425SOL    HW149114   3.050  14.187  10.008
82425SOL    HW249115   3.113  14.052  10.034
82426SOL     OW49116   4.289   0.481  13.356
82426SOL    HW149117   4.328   0.457  13.271
82426SOL    HW249118   4.350   0.546  13.392
82427SOL     OW49119   6.156   3.455  10.816
82427SOL    HW149120   6.221   3.438  10.884
82427SOL    HW249121   6.159   3.550  10.803
82428SOL     OW49122  14.254   1.339  12.343
82428SOL    HW149123  14.178   1.300  12.385
82428SOL    HW249124  14.296   1.390  12.412
82429SOL     OW49125  12.834   2.978   8.334
82429SOL    HW149126  12.919   2.934   8.337
82429SOL    HW249127  12.810   2.989   8.426
82430SOL     OW49128   1.563   7.728   1.566
82430SOL    HW149129   1.511   7.653   1.597
82430SOL    HW249130   1.519   7.756   1.486
82431SOL     OW49131   9.841   4.475  11.754
82431SOL    HW149132   9.836   4.570  11.765
82431SOL    HW249133   9.867   4.442  11.840
82432SOL     OW49134   5.693  10.656   5.206
82432SOL    HW149135   5.714  10.565   5.188
82432SOL    HW249136   5.778  10.698   5.219
82433SOL     OW49137   1.679  10.682   5.235
82433SOL    HW149138   1.766  10.710   5.205
82433SOL    HW249139   1.629  10.763   5.245
82434SOL     OW49140  14.057  13.123   3.216
82434SOL    HW149141  13.972  13.107   3.175
82434SOL    HW249142  14.114  13.151   3.144
82435SOL     OW49143   8.766   4.620   0.617
82435SOL    HW149144   8.690   4.566   0.639
82435SOL    HW249145   8.729   4.696   0.573
82436SOL     OW49146   0.908  11.303   8.928
82436SOL    HW149147   0.835  11.279   8.986
82436SOL    HW249148   0.902  11.398   8.920
82437SOL     OW49149   4.606   1.846  14.144
82437SOL    HW149150   4.572   1.819  14.058
82437SOL    HW249151   4.559   1.791  14.207
82438SOL     OW49152   3.847   0.652   4.157
82438SOL    HW149153   3.820   0.580   4.100
82438SOL    HW249154   3.850   0.612   4.245
82439SOL     OW49155   0.467  13.177   7.996
82439SOL    HW149156   0.438  13.181   7.905
82439SOL    HW249157   0.388  13.192   8.048
82440SOL     OW49158  11.601  10.163   3.027
82440SOL    HW149159  11.578  10.172   2.934
82440SOL    HW249160  11.689  10.200   3.034
82441SOL     OW49161  13.280   1.927   2.738
82441SOL    HW149162  13.348   1.980   2.779
82441SOL    HW249163  13.295   1.937   2.644
82442SOL     OW49164  11.572   3.692  13.172
82442SOL    HW149165  11.605   3.622  13.229
82442SOL    HW249166  11.628   3.767  13.192
82443SOL     OW49167   5.570   5.505  12.708
82443SOL    HW149168   5.611   5.452  12.776
82443SOL    HW249169   5.622   5.585  12.705
82444SOL     OW49170  11.960   1.657   6.342
82444SOL    HW149171  11.903   1.634   6.415
82444SOL    HW249172  11.901   1.696   6.277
82445SOL     OW49173   1.251   4.298  14.343
82445SOL    HW149174   1.260   4.253  14.426
82445SOL    HW249175   1.184   4.365  14.358
82446SOL     OW49176   6.959   8.291   1.431
82446SOL    HW149177   6.929   8.321   1.517
82446SOL    HW249178   6.903   8.216   1.410
82447SOL     OW49179   2.201   0.785   0.401
82447SOL    HW149180   2.292   0.791   0.373
82447SOL    HW249181   2.192   0.696   0.435
82448SOL     OW49182  13.003   8.435   3.511
82448SOL    HW149183  12.923   8.383   3.497
82448SOL    HW249184  12.986   8.482   3.592
82449SOL     OW49185  10.030   9.264   7.833
82449SOL    HW149186  10.049   9.200   7.901
82449SOL    HW249187  10.031   9.349   7.878
82450SOL     OW49188  13.387   0.476  11.841
82450SOL    HW149189  13.304   0.493  11.886
82450SOL    HW249190  13.363   0.469  11.748
82451SOL     OW49191  14.415  13.423   8.333
82451SOL    HW149192  14.340  13.366   8.315
82451SOL    HW249193  14.379  13.494   8.387
82452SOL     OW49194   7.827   9.398  10.266
82452SOL    HW149195   7.888   9.463  10.231
82452SOL    HW249196   7.865   9.314  10.242
82453SOL     OW49197   6.953  11.863  12.367
82453SOL    HW149198   6.954  11.944  12.418
82453SOL    HW249199   7.018  11.878  12.298
82454SOL     OW49200  14.280   4.858  14.733
82454SOL    HW149201  14.205   4.900  14.692
82454SOL    HW249202  14.354   4.914  14.712
82455SOL     OW49203  11.282  11.094   9.808
82455SOL    HW149204  11.326  11.054   9.733
82455SOL    HW249205  11.308  11.040   9.883
82456SOL     OW49206  12.383   5.109   9.848
82456SOL    HW149207  12.373   5.037   9.911
82456SOL    HW249208  12.464   5.088   9.802
82457SOL     OW49209   7.084   1.796   2.283
82457SOL    HW149210   7.045   1.721   2.238
82457SOL    HW249211   7.043   1.872   2.241
82458SOL     OW49212  11.515  12.382   8.625
82458SOL    HW149213  11.606  12.365   8.651
82458SOL    HW249214  11.483  12.298   8.595
82459SOL     OW49215   7.613   5.178   9.653
82459SOL    HW149216   7.605   5.085   9.629
82459SOL    HW249217   7.524   5.212   9.649
82460SOL     OW49218   7.674   5.635  14.367
82460SOL    HW149219   7.630   5.655  14.284
82460SOL    HW249220   7.632   5.555  14.398
82461SOL     OW49221   0.542   7.401   0.654
82461SOL    HW149222   0.553   7.401   0.749
82461SOL    HW249223   0.549   7.308   0.629
82462SOL     OW49224   8.123   9.405   4.729
82462SOL    HW149225   8.081   9.445   4.805
82462SOL    HW249226   8.080   9.447   4.654
82463SOL     OW49227   6.190   6.463   5.117
82463SOL    HW149228   6.132   6.440   5.190
82463SOL    HW249229   6.142   6.531   5.069
82464SOL     OW49230   4.699   1.450   5.723
82464SOL    HW149231   4.708   1.540   5.754
82464SOL    HW249232   4.694   1.458   5.627
82465SOL     OW49233  14.110   9.283  10.658
82465SOL    HW149234  14.084   9.307  10.568
82465SOL    HW249235  14.043   9.220  10.685
82466SOL     OW49236   1.485   8.210  12.534
82466SOL    HW149237   1.484   8.254  12.619
82466SOL    HW249238   1.543   8.136  12.545
82467SOL     OW49239   7.473   2.673   7.367
82467SOL    HW149240   7.483   2.751   7.313
82467SOL    HW249241   7.554   2.623   7.352
82468SOL     OW49242  12.294   9.018   7.017
82468SOL    HW149243  12.254   9.080   6.956
82468SOL    HW249244  12.387   9.025   7.000
82469SOL     OW49245  13.752  13.344   9.442
82469SOL    HW149246  13.682  13.397   9.482
82469SOL    HW249247  13.831  13.397   9.454
82470SOL     OW49248   5.886   7.667   8.867
82470SOL    HW149249   5.839   7.684   8.948
82470SOL    HW249250   5.866   7.576   8.846
82471SOL     OW49251   6.256  12.631  12.555
82471SOL    HW149252   6.233  12.719  12.526
82471SOL    HW249253   6.172  12.584  12.556
82472SOL     OW49254  13.333   5.601  13.567
82472SOL    HW149255  13.341   5.549  13.648
82472SOL    HW249256  13.289   5.681  13.594
82473SOL     OW49257   0.779   2.098   7.298
82473SOL    HW149258   0.697   2.142   7.272
82473SOL    HW249259   0.798   2.039   7.225
82474SOL     OW49260   3.484   5.416   3.018
82474SOL    HW149261   3.392   5.406   3.042
82474SOL    HW249262   3.503   5.509   3.034
82475SOL     OW49263   2.661  14.516   5.396
82475SOL    HW149264   2.637  14.584   5.333
82475SOL    HW249265   2.669  14.437   5.343
82476SOL     OW49266   8.306  13.504   9.089
82476SOL    HW149267   8.331  13.593   9.110
82476SOL    HW249268   8.336  13.452   9.163
82477SOL     OW49269  12.507   3.332  13.117
82477SOL    HW149270  12.428   3.344  13.169
82477SOL    HW249271  12.566   3.281  13.173
82478SOL     OW49272   0.993   8.778   7.324
82478SOL    HW149273   0.905   8.814   7.313
82478SOL    HW249274   1.034   8.833   7.390
82479SOL     OW49275   4.268   2.385   3.756
82479SOL    HW149276   4.186   2.422   3.788
82479SOL    HW249277   4.247   2.293   3.737
82480SOL     OW49278  10.084   9.020   0.461
82480SOL    HW149279  10.074   9.042   0.554
82480SOL    HW249280  10.113   8.929   0.460
82481SOL     OW49281   0.706   0.101   8.829
82481SOL    HW149282   0.794   0.109   8.792
82481SOL    HW249283   0.648   0.138   8.762
82482SOL     OW49284   0.603   6.765   0.599
82482SOL    HW149285   0.520   6.811   0.614
82482SOL    HW249286   0.659   6.792   0.671
82483SOL     OW49287   6.953   9.269  12.443
82483SOL    HW149288   6.995   9.226  12.518
82483SOL    HW249289   7.022   9.278  12.379
82484SOL     OW49290  12.239   1.080   0.545
82484SOL    HW149291  12.306   1.067   0.613
82484SOL    HW249292  12.209   0.991   0.523
82485SOL     OW49293   2.866  10.268  10.153
82485SOL    HW149294   2.858  10.285  10.247
82485SOL    HW249295   2.874  10.355  10.113
82486SOL     OW49296   1.331   5.149   6.303
82486SOL    HW149297   1.279   5.214   6.349
82486SOL    HW249298   1.419   5.188   6.296
82487SOL     OW49299  11.811   4.635  14.029
82487SOL    HW149300  11.802   4.682  14.112
82487SOL    HW249301  11.751   4.680  13.969
82488SOL     OW49302  12.255  11.445   0.903
82488SOL    HW149303  12.174  11.409   0.938
82488SOL    HW249304  12.245  11.540   0.908
82489SOL     OW49305   0.066  13.896  10.247
82489SOL    HW149306  14.875  13.850  10.202
82489SOL    HW249307   0.144  13.875  10.196
82490SOL     OW49308   6.873  12.471  13.771
82490SOL    HW149309   6.813  12.466  13.846
82490SOL    HW249310   6.856  12.557  13.733
82491SOL     OW49311  11.313   9.833   0.300
82491SOL    HW149312  11.318   9.848   0.394
82491SOL    HW249313  11.369   9.757   0.284
82492SOL     OW49314  11.910   6.829   2.445
82492SOL    HW149315  11.820   6.855   2.463
82492SOL    HW249316  11.962   6.884   2.503
82493SOL     OW49317  13.078  12.425   6.328
82493SOL    HW149318  12.986  12.454   6.329
82493SOL    HW249319  13.073  12.335   6.298
82494SOL     OW49320  14.465  14.820   1.101
82494SOL    HW149321  14.503  14.732   1.106
82494SOL    HW249322  14.505  14.859   1.023
82495SOL     OW49323   4.674   2.618   5.921
82495SOL    HW149324   4.675   2.523   5.920
82495SOL    HW249325   4.601   2.642   5.865
82496SOL     OW49326  13.353   5.931  12.061
82496SOL    HW149327  13.285   5.990  12.028
82496SOL    HW249328  13.348   5.940  12.156
82497SOL     OW49329   7.230   5.232  14.500
82497SOL    HW149330   7.248   5.326  14.508
82497SOL    HW249331   7.295   5.191  14.558
82498SOL     OW49332  13.462   9.749   5.864
82498SOL    HW149333  13.434   9.824   5.813
82498SOL    HW249334  13.557   9.757   5.869
82499SOL     OW49335  10.283   6.413  12.644
82499SOL    HW149336  10.230   6.490  12.665
82499SOL    HW249337  10.263   6.394  12.552
82500SOL     OW49338   5.264  12.700   4.811
82500SOL    HW149339   5.267  12.711   4.906
82500SOL    HW249340   5.339  12.645   4.791
82501SOL     OW49341  12.752   5.708   5.577
82501SOL    HW149342  12.683   5.642   5.566
82501SOL    HW249343  12.834   5.658   5.574
82502SOL     OW49344  12.330   4.939  10.057
82502SOL    HW149345  12.261   4.905  10.114
82502SOL    HW249346  12.400   4.964  10.117
82503SOL     OW49347  13.954   4.411  11.294
82503SOL    HW149348  13.864   4.408  11.261
82503SOL    HW249349  14.007   4.434  11.218
82504SOL     OW49350   1.687   2.665   2.056
82504SOL    HW149351   1.687   2.611   2.136
82504SOL    HW249352   1.715   2.605   1.987
82505SOL     OW49353   2.286   7.145   5.743
82505SOL    HW149354   2.223   7.131   5.672
82505SOL    HW249355   2.358   7.194   5.702
82506SOL     OW49356   4.123   0.643  10.586
82506SOL    HW149357   4.055   0.602  10.533
82506SOL    HW249358   4.096   0.627  10.676
82507SOL     OW49359   6.967   6.225  10.410
82507SOL    HW149360   6.968   6.245  10.316
82507SOL    HW249361   6.874   6.219  10.433
82508SOL     OW49362  10.404  12.207  12.942
82508SOL    HW149363  10.375  12.150  13.013
82508SOL    HW249364  10.387  12.157  12.862
82509SOL     OW49365   0.859   5.836   0.271
82509SOL    HW149366   0.806   5.914   0.255
82509SOL    HW249367   0.811   5.765   0.229
82510SOL     OW49368   3.315   6.520   0.596
82510SOL    HW149369   3.295   6.592   0.535
82510SOL    HW249370   3.374   6.559   0.660
82511SOL     OW49371  11.720  14.210   4.382
82511SOL    HW149372  11.675  14.131   4.413
82511SOL    HW249373  11.669  14.239   4.307
82512SOL     OW49374   2.423  12.644   2.566
82512SOL    HW149375   2.387  12.727   2.598
82512SOL    HW249376   2.460  12.602   2.643
82513SOL     OW49377   0.458   6.105  14.778
82513SOL    HW149378   0.381   6.060  14.814
82513SOL    HW249379   0.476   6.175  14.840
82514SOL     OW49380   3.611   9.945   0.887
82514SOL    HW149381   3.588   9.897   0.967
82514SOL    HW249382   3.550  10.019   0.886
82515SOL     OW49383   1.756   2.222   2.214
82515SOL    HW149384   1.774   2.180   2.297
82515SOL    HW249385   1.760   2.316   2.233
82516SOL     OW49386   6.145   2.608   7.092
82516SOL    HW149387   6.054   2.628   7.070
82516SOL    HW249388   6.155   2.640   7.182
82517SOL     OW49389   9.424  13.177   2.152
82517SOL    HW149390   9.387  13.198   2.238
82517SOL    HW249391   9.518  13.190   2.162
82518SOL     OW49392  12.565   3.810   7.882
82518SOL    HW149393  12.604   3.885   7.837
82518SOL    HW249394  12.517   3.848   7.955
82519SOL     OW49395   9.859  13.080   5.119
82519SOL    HW149396   9.863  13.132   5.199
82519SOL    HW249397   9.885  12.992   5.146
82520SOL     OW49398  11.372  11.779   8.546
82520SOL    HW149399  11.280  11.806   8.541
82520SOL    HW249400  11.401  11.776   8.454
82521SOL     OW49401   7.163   9.398   8.916
82521SOL    HW149402   7.249   9.366   8.946
82521SOL    HW249403   7.117   9.423   8.996
82522SOL     OW49404  14.763   5.223  10.706
82522SOL    HW149405  14.793   5.306  10.744
82522SOL    HW249406  14.764   5.239  10.611
82523SOL     OW49407   1.933   4.271  13.175
82523SOL    HW149408   1.937   4.198  13.237
82523SOL    HW249409   1.934   4.229  13.089
82524SOL     OW49410  10.785   9.447   9.073
82524SOL    HW149411  10.863   9.461   9.125
82524SOL    HW249412  10.773   9.529   9.024
82525SOL     OW49413   0.056   4.114  12.047
82525SOL    HW149414   0.119   4.150  12.109
82525SOL    HW249415  14.879   4.058  12.101
82526SOL     OW49416   3.384   1.234   1.462
82526SOL    HW149417   3.478   1.254   1.459
82526SOL    HW249418   3.376   1.148   1.422
82527SOL     OW49419   9.542   2.990  10.933
82527SOL    HW149420   9.514   3.006  10.843
82527SOL    HW249421   9.598   3.065  10.954
82528SOL     OW49422  12.683   6.029   8.099
82528SOL    HW149423  12.773   6.045   8.070
82528SOL    HW249424  12.681   5.935   8.120
82529SOL     OW49425  10.333   4.904   1.120
82529SOL    HW149426  10.386   4.936   1.047
82529SOL    HW249427  10.397   4.878   1.187
82530SOL     OW49428   0.542  13.958  12.527
82530SOL    HW149429   0.503  13.918  12.604
82530SOL    HW249430   0.561  14.048  12.553
82531SOL     OW49431  10.318  11.702   1.902
82531SOL    HW149432  10.244  11.713   1.962
82531SOL    HW249433  10.367  11.784   1.908
82532SOL     OW49434   6.782   3.070  10.177
82532SOL    HW149435   6.869   3.087  10.214
82532SOL    HW249436   6.786   2.979  10.149
82533SOL     OW49437  14.094  10.420   9.109
82533SOL    HW149438  14.065  10.483   9.175
82533SOL    HW249439  14.019  10.411   9.050
82534SOL     OW49440  14.831   0.226   5.356
82534SOL    HW149441  14.849   0.256   5.267
82534SOL    HW249442   0.025   0.257   5.408
82535SOL     OW49443   6.814   0.682  13.632
82535SOL    HW149444   6.830   0.628  13.709
82535SOL    HW249445   6.815   0.772  13.665
82536SOL     OW49446   2.785   4.461   8.368
82536SOL    HW149447   2.783   4.392   8.435
82536SOL    HW249448   2.794   4.542   8.418
82537SOL     OW49449   8.264  10.825  14.790
82537SOL    HW149450   8.317  10.780  14.856
82537SOL    HW249451   8.186  10.771  14.782
82538SOL     OW49452  10.747   1.779   8.370
82538SOL    HW149453  10.725   1.869   8.346
82538SOL    HW249454  10.676   1.752   8.429
82539SOL     OW49455  13.240   3.706   0.802
82539SOL    HW149456  13.160   3.682   0.849
82539SOL    HW249457  13.280   3.622   0.779
82540SOL     OW49458   8.669   0.203  13.258
82540SOL    HW149459   8.764   0.193  13.261
82540SOL    HW249460   8.655   0.297  13.245
82541SOL     OW49461   8.166  11.592   8.934
82541SOL    HW149462   8.211  11.653   8.876
82541SOL    HW249463   8.198  11.505   8.907
82542SOL     OW49464  12.166   7.466   3.448
82542SOL    HW149465  12.165   7.526   3.523
82542SOL    HW249466  12.147   7.522   3.373
82543SOL     OW49467  14.529   9.500   5.648
82543SOL    HW149468  14.587   9.465   5.715
82543SOL    HW249469  14.581   9.495   5.567
82544SOL     OW49470   2.362   7.054   9.632
82544SOL    HW149471   2.278   7.082   9.596
82544SOL    HW249472   2.408   7.015   9.558
82545SOL     OW49473   5.928  10.619   5.454
82545SOL    HW149474   5.958  10.626   5.363
82545SOL    HW249475   5.990  10.672   5.504
82546SOL     OW49476   7.791  10.099  10.554
82546SOL    HW149477   7.699  10.111  10.576
82546SOL    HW249478   7.819  10.184  10.520
82547SOL     OW49479   3.447   4.153   4.493
82547SOL    HW149480   3.385   4.081   4.499
82547SOL    HW249481   3.415   4.219   4.554
82548SOL     OW49482   9.221   4.557   0.593
82548SOL    HW149483   9.129   4.535   0.583
82548SOL    HW249484   9.242   4.609   0.515
82549SOL     OW49485   4.078  13.488   4.072
82549SOL    HW149486   4.063  13.411   4.017
82549SOL    HW249487   4.165  13.519   4.048
82550SOL     OW49488  13.319   0.155   1.776
82550SOL    HW149489  13.227   0.131   1.784
82550SOL    HW249490  13.348   0.170   1.866
82551SOL     OW49491   6.004  12.517  12.531
82551SOL    HW149492   5.967  12.603  12.551
82551SOL    HW249493   6.016  12.519  12.436
82552SOL     OW49494  11.367   4.077   2.408
82552SOL    HW149495  11.344   4.164   2.378
82552SOL    HW249496  11.461   4.070   2.394
82553SOL     OW49497   9.716   2.607  14.840
82553SOL    HW149498   9.794   2.639   0.004
82553SOL    HW249499   9.671   2.554   0.026
82554SOL     OW49500   4.823  11.418   5.482
82554SOL    HW149501   4.760  11.347   5.494
82554SOL    HW249502   4.817  11.470   5.563
82555SOL     OW49503   9.232  11.753   6.479
82555SOL    HW149504   9.163  11.742   6.544
82555SOL    HW249505   9.187  11.789   6.403
82556SOL     OW49506  12.878   2.418   7.460
82556SOL    HW149507  12.931   2.338   7.460
82556SOL    HW249508  12.833   2.417   7.375
82557SOL     OW49509   9.200  12.193   0.358
82557SOL    HW149510   9.289  12.211   0.328
82557SOL    HW249511   9.145  12.255   0.309
82558SOL     OW49512   5.689   6.806   3.958
82558SOL    HW149513   5.738   6.872   4.007
82558SOL    HW249514   5.648   6.854   3.886
82559SOL     OW49515   4.871   1.456   9.469
82559SOL    HW149516   4.885   1.364   9.446
82559SOL    HW249517   4.946   1.479   9.524
82560SOL     OW49518  11.593   0.828   8.238
82560SOL    HW149519  11.673   0.826   8.186
82560SOL    HW249520  11.586   0.918   8.269
82561SOL     OW49521   9.864   1.534  13.140
82561SOL    HW149522   9.800   1.463  13.149
82561SOL    HW249523   9.811   1.610  13.115
82562SOL     OW49524   6.129   7.960   8.237
82562SOL    HW149525   6.217   7.941   8.205
82562SOL    HW249526   6.142   7.984   8.329
82563SOL     OW49527   8.863   8.269   2.266
82563SOL    HW149528   8.900   8.357   2.274
82563SOL    HW249529   8.864   8.235   2.355
82564SOL     OW49530  11.878  14.728   5.652
82564SOL    HW149531  11.851  14.800   5.595
82564SOL    HW249532  11.874  14.764   5.741
82565SOL     OW49533   0.568   4.542  11.668
82565SOL    HW149534   0.597   4.450  11.664
82565SOL    HW249535   0.567   4.563  11.761
82566SOL     OW49536   3.936   7.508  12.034
82566SOL    HW149537   3.860   7.555  12.069
82566SOL    HW249538   3.983   7.573  11.982
82567SOL     OW49539   1.330   8.116   1.426
82567SOL    HW149540   1.268   8.047   1.402
82567SOL    HW249541   1.386   8.127   1.349
82568SOL     OW49542   0.889  14.850   7.597
82568SOL    HW149543   0.938  14.774   7.630
82568SOL    HW249544   0.800  14.816   7.582
82569SOL     OW49545   6.618   7.614   8.516
82569SOL    HW149546   6.656   7.585   8.599
82569SOL    HW249547   6.646   7.705   8.508
82570SOL     OW49548   6.136   4.490  14.470
82570SOL    HW149549   6.065   4.554  14.471
82570SOL    HW249550   6.144   4.466  14.377
82571SOL     OW49551   4.163   2.721  11.489
82571SOL    HW149552   4.086   2.687  11.444
82571SOL    HW249553   4.235   2.710  11.427
82572SOL     OW49554   3.561  14.523   9.094
82572SOL    HW149555   3.656  14.524   9.104
82572SOL    HW249556   3.533  14.442   9.136
82573SOL     OW49557   9.947   8.068   9.776
82573SOL    HW149558   9.878   8.104   9.830
82573SOL    HW249559   9.903   8.042   9.694
82574SOL     OW49560   9.937   9.575   5.901
82574SOL    HW149561   9.856   9.525   5.899
82574SOL    HW249562   9.989   9.534   5.970
82575SOL     OW49563  12.586   2.329   9.544
82575SOL    HW149564  12.602   2.255   9.602
82575SOL    HW249565  12.491   2.331   9.532
82576SOL     OW49566   9.635  12.833  14.385
82576SOL    HW149567   9.618  12.761  14.324
82576SOL    HW249568   9.719  12.869  14.356
82577SOL     OW49569   7.444   8.800  11.919
82577SOL    HW149570   7.535   8.793  11.890
82577SOL    HW249571   7.440   8.886  11.963
82578SOL     OW49572   4.857   5.783  12.031
82578SOL    HW149573   4.834   5.761  12.121
82578SOL    HW249574   4.802   5.858  12.009
82579SOL     OW49575  14.753   8.003   4.612
82579SOL    HW149576  14.811   7.928   4.601
82579SOL    HW249577  14.742   8.012   4.707
82580SOL     OW49578   6.508  12.915   4.966
82580SOL    HW149579   6.434  12.866   5.003
82580SOL    HW249580   6.515  12.882   4.876
82581SOL     OW49581  10.245   2.849   0.234
82581SOL    HW149582  10.286   2.886   0.311
82581SOL    HW249583  10.246   2.920   0.170
82582SOL     OW49584   3.572  10.109  10.924
82582SOL    HW149585   3.632  10.055  10.872
82582SOL    HW249586   3.492  10.058  10.930
82583SOL     OW49587   2.992   8.042  10.392
82583SOL    HW149588   2.996   7.995  10.309
82583SOL    HW249589   2.918   8.004  10.438
82584SOL     OW49590   3.179   9.859   6.847
82584SOL    HW149591   3.092   9.821   6.860
82584SOL    HW249592   3.171   9.949   6.881
82585SOL     OW49593   6.951   2.343   1.270
82585SOL    HW149594   7.022   2.302   1.321
82585SOL    HW249595   6.978   2.434   1.260
82586SOL     OW49596   6.437   1.231  10.304
82586SOL    HW149597   6.468   1.141  10.295
82586SOL    HW249598   6.366   1.226  10.368
82587SOL     OW49599  11.997   9.587   6.075
82587SOL    HW149600  11.984   9.493   6.087
82587SOL    HW249601  12.091   9.600   6.086
82588SOL     OW49602   9.693   2.960   7.494
82588SOL    HW149603   9.704   3.047   7.533
82588SOL    HW249604   9.664   2.977   7.405
82589SOL     OW49605  12.399   8.889   7.509
82589SOL    HW149606  12.488   8.853   7.510
82589SOL    HW249607  12.402   8.958   7.442
82590SOL     OW49608   9.443  12.054   2.430
82590SOL    HW149609   9.519  12.079   2.377
82590SOL    HW249610   9.461  12.093   2.516
82591SOL     OW49611  12.310   6.151   2.886
82591SOL    HW149612  12.395   6.136   2.928
82591SOL    HW249613  12.329   6.149   2.793
82592SOL     OW49614   3.775  11.045   2.320
82592SOL    HW149615   3.757  11.131   2.357
82592SOL    HW249616   3.689  11.009   2.300
82593SOL     OW49617   1.225  12.621  14.398
82593SOL    HW149618   1.162  12.641  14.467
82593SOL    HW249619   1.191  12.665  14.320
82594SOL     OW49620   7.874   5.984   3.045
82594SOL    HW149621   7.937   6.032   3.099
82594SOL    HW249622   7.912   5.897   3.036
82595SOL     OW49623  12.872   3.740   3.960
82595SOL    HW149624  12.943   3.782   3.911
82595SOL    HW249625  12.911   3.718   4.044
82596SOL     OW49626   0.829   0.313   7.562
82596SOL    HW149627   0.822   0.407   7.545
82596SOL    HW249628   0.845   0.275   7.475
82597SOL     OW49629   1.475  12.725  14.412
82597SOL    HW149630   1.390  12.683  14.420
82597SOL    HW249631   1.455  12.815  14.385
82598SOL     OW49632   6.306   8.227   1.448
82598SOL    HW149633   6.298   8.322   1.440
82598SOL    HW249634   6.235   8.201   1.507
82599SOL     OW49635   7.612   3.537   6.789
82599SOL    HW149636   7.578   3.572   6.707
82599SOL    HW249637   7.542   3.481   6.823
82600SOL     OW49638   7.245   8.181   5.445
82600SOL    HW149639   7.204   8.177   5.531
82600SOL    HW249640   7.300   8.259   5.448
82601SOL     OW49641  12.927   0.225   4.834
82601SOL    HW149642  12.847   0.273   4.814
82601SOL    HW249643  12.935   0.229   4.929
82602SOL     OW49644   0.647   2.034   4.504
82602SOL    HW149645   0.588   1.967   4.538
82602SOL    HW249646   0.605   2.117   4.527
82603SOL     OW49647   5.933   8.979   5.180
82603SOL    HW149648   5.961   9.062   5.141
82603SOL    HW249649   5.991   8.967   5.255
82604SOL     OW49650  11.592   6.537   3.515
82604SOL    HW149651  11.513   6.483   3.508
82604SOL    HW249652  11.636   6.505   3.594
82605SOL     OW49653   1.560   9.367  13.715
82605SOL    HW149654   1.506   9.318  13.777
82605SOL    HW249655   1.598   9.438  13.767
82606SOL     OW49656   9.852   4.443   6.173
82606SOL    HW149657   9.886   4.431   6.084
82606SOL    HW249658   9.809   4.529   6.170
82607SOL     OW49659   2.710   2.089  14.470
82607SOL    HW149660   2.621   2.059  14.489
82607SOL    HW249661   2.742   2.028  14.404
82608SOL     OW49662  12.344  13.061  12.417
82608SOL    HW149663  12.295  12.986  12.383
82608SOL    HW249664  12.301  13.083  12.500
82609SOL     OW49665   9.239   5.735  10.820
82609SOL    HW149666   9.326   5.768  10.845
82609SOL    HW249667   9.248   5.640  10.822
82610SOL     OW49668  14.757   6.891   3.097
82610SOL    HW149669  14.706   6.917   3.173
82610SOL    HW249670  14.812   6.819   3.128
82611SOL     OW49671  10.217  12.827  11.775
82611SOL    HW149672  10.234  12.790  11.861
82611SOL    HW249673  10.286  12.892  11.763
82612SOL     OW49674   1.011  10.159  11.371
82612SOL    HW149675   1.049  10.073  11.354
82612SOL    HW249676   0.926  10.140  11.411
82613SOL     OW49677  11.403   1.680  10.630
82613SOL    HW149678  11.417   1.687  10.535
82613SOL    HW249679  11.331   1.616  10.638
82614SOL     OW49680   4.712   1.073   1.876
82614SOL    HW149681   4.773   1.079   1.950
82614SOL    HW249682   4.757   1.117   1.804
82615SOL     OW49683   6.451  12.024   9.485
82615SOL    HW149684   6.376  11.987   9.438
82615SOL    HW249685   6.520  11.959   9.475
82616SOL     OW49686  13.596   7.254   1.988
82616SOL    HW149687  13.622   7.215   1.905
82616SOL    HW249688  13.502   7.236   1.994
82617SOL     OW49689   2.756   5.969   7.680
82617SOL    HW149690   2.787   6.055   7.707
82617SOL    HW249691   2.687   5.947   7.743
82618SOL     OW49692   5.477   7.316   1.058
82618SOL    HW149693   5.464   7.276   1.143
82618SOL    HW249694   5.559   7.278   1.025
82619SOL     OW49695   4.994   1.894   0.330
82619SOL    HW149696   4.976   1.863   0.241
82619SOL    HW249697   4.948   1.978   0.335
82620SOL     OW49698   9.803   7.451   0.148
82620SOL    HW149699   9.844   7.393   0.213
82620SOL    HW249700   9.869   7.517   0.130
82621SOL     OW49701   1.080   7.701   0.835
82621SOL    HW149702   1.136   7.654   0.774
82621SOL    HW249703   1.132   7.707   0.915
82622SOL     OW49704   2.876  13.069   2.657
82622SOL    HW149705   2.924  13.084   2.738
82622SOL    HW249706   2.938  13.024   2.600
82623SOL     OW49707  13.224  10.597  10.004
82623SOL    HW149708  13.237  10.683  10.043
82623SOL    HW249709  13.167  10.613   9.929
82624SOL     OW49710   2.439   8.535  14.481
82624SOL    HW149711   2.373   8.467  14.472
82624SOL    HW249712   2.403   8.596  14.546
82625SOL     OW49713   6.741   9.209   2.451
82625SOL    HW149714   6.675   9.251   2.395
82625SOL    HW249715   6.750   9.269   2.526
82626SOL     OW49716   7.789  14.329   8.099
82626SOL    HW149717   7.732  14.312   8.024
82626SOL    HW249718   7.746  14.401   8.145
82627SOL     OW49719  10.237  11.815   9.286
82627SOL    HW149720  10.187  11.883   9.241
82627SOL    HW249721  10.200  11.733   9.254
82628SOL     OW49722  10.117   8.988  12.132
82628SOL    HW149723  10.129   9.035  12.049
82628SOL    HW249724  10.174   9.034  12.193
82629SOL     OW49725   9.043  11.464  13.679
82629SOL    HW149726   8.999  11.540  13.716
82629SOL    HW249727   8.974  11.412  13.639
82630SOL     OW49728   6.390   7.636   3.211
82630SOL    HW149729   6.413   7.627   3.304
82630SOL    HW249730   6.296   7.650   3.211
82631SOL     OW49731   5.569   8.084   4.626
82631SOL    HW149732   5.630   8.066   4.697
82631SOL    HW249733   5.624   8.102   4.550
82632SOL     OW49734   1.519   7.011  14.655
82632SOL    HW149735   1.475   7.062  14.586
82632SOL    HW249736   1.593   6.970  14.611
82633SOL     OW49737   6.759  11.428   6.022
82633SOL    HW149738   6.729  11.462   6.106
82633SOL    HW249739   6.742  11.334   6.026
82634SOL     OW49740   6.400  12.121   8.817
82634SOL    HW149741   6.407  12.138   8.910
82634SOL    HW249742   6.486  12.145   8.782
82635SOL     OW49743  10.888   2.464   6.377
82635SOL    HW149744  10.804   2.442   6.418
82635SOL    HW249745  10.864   2.496   6.290
82636SOL     OW49746   2.777   0.012  14.688
82636SOL    HW149747   2.840   0.082  14.670
82636SOL    HW249748   2.802  14.858  14.774
82637SOL     OW49749   0.546   8.249  12.058
82637SOL    HW149750   0.629   8.218  12.094
82637SOL    HW249751   0.569   8.284  11.972
82638SOL     OW49752   3.134   6.452   6.668
82638SOL    HW149753   3.079   6.406   6.732
82638SOL    HW249754   3.204   6.491   6.720
82639SOL     OW49755   9.891   8.941   4.938
82639SOL    HW149756   9.930   9.024   4.965
82639SOL    HW249757   9.881   8.892   5.019
82640SOL     OW49758   7.665   0.011  11.957
82640SOL    HW149759   7.575   0.040  11.943
82640SOL    HW249760   7.720   0.080  11.920
82641SOL     OW49761  14.470   8.135   5.003
82641SOL    HW149762  14.387   8.183   5.001
82641SOL    HW249763  14.522   8.180   5.069
82642SOL     OW49764   1.817   2.899   0.579
82642SOL    HW149765   1.732   2.934   0.605
82642SOL    HW249766   1.829   2.821   0.633
82643SOL     OW49767   3.268  14.075   6.768
82643SOL    HW149768   3.189  14.052   6.718
82643SOL    HW249769   3.340  14.045   6.713
82644SOL     OW49770   1.371   2.272   9.332
82644SOL    HW149771   1.421   2.215   9.391
82644SOL    HW249772   1.397   2.243   9.244
82645SOL     OW49773   6.847  13.267   5.556
82645SOL    HW149774   6.870  13.238   5.469
82645SOL    HW249775   6.776  13.330   5.542
82646SOL     OW49776   8.233   6.125   9.339
82646SOL    HW149777   8.154   6.179   9.344
82646SOL    HW249778   8.201   6.035   9.350
82647SOL     OW49779  12.091   1.909  14.737
82647SOL    HW149780  12.126   1.867  14.816
82647SOL    HW249781  12.119   2.001  14.746
82648SOL     OW49782   5.400   9.182   1.932
82648SOL    HW149783   5.495   9.189   1.924
82648SOL    HW249784   5.366   9.247   1.871
82649SOL     OW49785   1.564   1.399  12.447
82649SOL    HW149786   1.516   1.480  12.467
82649SOL    HW249787   1.566   1.351  12.529
82650SOL     OW49788   6.476  12.956  12.652
82650SOL    HW149789   6.556  12.988  12.695
82650SOL    HW249790   6.469  12.865  12.681
82651SOL     OW49791   4.900   3.893   9.712
82651SOL    HW149792   4.884   3.819   9.654
82651SOL    HW249793   4.949   3.956   9.659
82652SOL     OW49794   9.085   6.113   3.273
82652SOL    HW149795   9.146   6.108   3.347
82652SOL    HW249796   9.140   6.132   3.198
82653SOL     OW49797  13.157  11.222  12.061
82653SOL    HW149798  13.242  11.265  12.059
82653SOL    HW249799  13.115  11.254  12.141
82654SOL     OW49800  10.744   5.794   8.785
82654SOL    HW149801  10.810   5.726   8.775
82654SOL    HW249802  10.753   5.849   8.707
82655SOL     OW49803   2.169  14.133  11.643
82655SOL    HW149804   2.126  14.209  11.682
82655SOL    HW249805   2.201  14.164  11.558
82656SOL     OW49806   7.514   8.251  12.171
82656SOL    HW149807   7.552   8.164  12.183
82656SOL    HW249808   7.455   8.262  12.247
82657SOL     OW49809  13.799  12.746  12.783
82657SOL    HW149810  13.825  12.810  12.849
82657SOL    HW249811  13.774  12.669  12.833
82658SOL     OW49812   2.168  14.866   8.783
82658SOL    HW149813   2.227  14.826   8.848
82658SOL    HW249814   2.093  14.807   8.780
82659SOL     OW49815   5.073   0.268   7.164
82659SOL    HW149816   5.074   0.235   7.254
82659SOL    HW249817   4.998   0.329   7.162
82660SOL     OW49818  10.527   1.930   0.569
82660SOL    HW149819  10.534   1.987   0.493
82660SOL    HW249820  10.532   1.841   0.532
82661SOL     OW49821   6.326   5.501   6.714
82661SOL    HW149822   6.369   5.506   6.800
82661SOL    HW249823   6.361   5.422   6.674
82662SOL     OW49824  10.637   2.697  10.017
82662SOL    HW149825  10.580   2.622   9.997
82662SOL    HW249826  10.667   2.680  10.107
82663SOL     OW49827  13.258   7.220   3.449
82663SOL    HW149828  13.196   7.293   3.460
82663SOL    HW249829  13.204   7.149   3.414
82664SOL     OW49830   2.979   2.105  11.078
82664SOL    HW149831   2.987   2.055  11.160
82664SOL    HW249832   2.985   2.039  11.009
82665SOL     OW49833   9.903   3.631  10.205
82665SOL    HW149834   9.933   3.619  10.115
82665SOL    HW249835   9.809   3.644  10.198
82666SOL     OW49836   7.606   2.627   7.067
82666SOL    HW149837   7.674   2.604   7.003
82666SOL    HW249838   7.584   2.544   7.109
82667SOL     OW49839   8.964   5.826  10.345
82667SOL    HW149840   8.956   5.910  10.391
82667SOL    HW249841   9.047   5.790  10.377
82668SOL     OW49842  11.229  11.954   4.553
82668SOL    HW149843  11.261  11.900   4.481
82668SOL    HW249844  11.309  11.987   4.595
82669SOL     OW49845   4.674   6.335   0.479
82669SOL    HW149846   4.667   6.314   0.572
82669SOL    HW249847   4.767   6.329   0.459
82670SOL     OW49848  11.341  10.505   8.934
82670SOL    HW149849  11.416  10.561   8.955
82670SOL    HW249850  11.292  10.499   9.016
82671SOL     OW49851   5.363   8.577   2.898
82671SOL    HW149852   5.310   8.640   2.948
82671SOL    HW249853   5.418   8.535   2.964
82672SOL     OW49854  12.325   4.899   7.720
82672SOL    HW149855  12.315   4.886   7.625
82672SOL    HW249856  12.419   4.898   7.735
82673SOL     OW49857   4.599  11.027  10.274
82673SOL    HW149858   4.535  11.081  10.227
82673SOL    HW249859   4.617  10.954  10.215
82674SOL     OW49860   2.274  13.946   9.815
82674SOL    HW149861   2.364  13.976   9.815
82674SOL    HW249862   2.280  13.851   9.827
82675SOL     OW49863   4.621  10.280  13.642
82675SOL    HW149864   4.588  10.347  13.583
82675SOL    HW249865   4.667  10.218  13.585
82676SOL     OW49866  12.604  11.873  10.078
82676SOL    HW149867  12.620  11.902   9.988
82676SOL    HW249868  12.584  11.954  10.126
82677SOL     OW49869   4.485   8.473   0.708
82677SOL    HW149870   4.398   8.491   0.673
82677SOL    HW249871   4.470   8.419   0.785
82678SOL     OW49872   8.824  12.240  12.999
82678SOL    HW149873   8.747  12.288  12.967
82678SOL    HW249874   8.812  12.151  12.967
82679SOL     OW49875   1.757   3.615   7.009
82679SOL    HW149876   1.745   3.709   6.992
82679SOL    HW249877   1.852   3.601   7.002
82680SOL     OW49878   4.936   6.081   7.289
82680SOL    HW149879   4.991   6.078   7.211
82680SOL    HW249880   4.881   6.003   7.282
82681SOL     OW49881  14.644  13.230  12.190
82681SOL    HW149882  14.657  13.289  12.116
82681SOL    HW249883  14.686  13.149  12.164
82682SOL     OW49884  13.296   2.927  11.287
82682SOL    HW149885  13.304   2.993  11.355
82682SOL    HW249886  13.306   2.843  11.333
82683SOL     OW49887  12.497   0.797  10.995
82683SOL    HW149888  12.584   0.828  11.018
82683SOL    HW249889  12.477   0.840  10.912
82684SOL     OW49890   6.870   6.477  12.925
82684SOL    HW149891   6.865   6.399  12.980
82684SOL    HW249892   6.800   6.466  12.861
82685SOL     OW49893   6.522  10.614   4.292
82685SOL    HW149894   6.488  10.548   4.232
82685SOL    HW249895   6.537  10.691   4.236
82686SOL     OW49896  12.625   7.763   7.187
82686SOL    HW149897  12.535   7.792   7.170
82686SOL    HW249898  12.645   7.797   7.274
82687SOL     OW49899   0.024   5.573   0.583
82687SOL    HW149900   0.103   5.599   0.631
82687SOL    HW249901   0.057   5.523   0.508
82688SOL     OW49902   5.219   7.144   6.788
82688SOL    HW149903   5.143   7.086   6.781
82688SOL    HW249904   5.226   7.185   6.702
82689SOL     OW49905   0.823   8.093   8.032
82689SOL    HW149906   0.825   8.139   8.115
82689SOL    HW249907   0.818   8.162   7.966
82690SOL     OW49908   3.402  13.381  10.598
82690SOL    HW149909   3.413  13.471  10.630
82690SOL    HW249910   3.378  13.331  10.676
82691SOL     OW49911   1.148  14.275   2.858
82691SOL    HW149912   1.240  14.269   2.832
82691SOL    HW249913   1.149  14.324   2.940
82692SOL     OW49914  10.980   3.900   1.291
82692SOL    HW149915  11.073   3.901   1.314
82692SOL    HW249916  10.964   3.986   1.252
82693SOL     OW49917  11.588   0.736   3.826
82693SOL    HW149918  11.624   0.817   3.862
82693SOL    HW249919  11.498   0.732   3.858
82694SOL     OW49920  10.044   2.867   3.694
82694SOL    HW149921  10.044   2.850   3.789
82694SOL    HW249922  10.088   2.790   3.657
82695SOL     OW49923   3.984   2.780  10.123
82695SOL    HW149924   3.991   2.743  10.211
82695SOL    HW249925   3.991   2.875  10.136
82696SOL     OW49926   0.424   3.541   5.756
82696SOL    HW149927   0.456   3.630   5.744
82696SOL    HW249928   0.502   3.489   5.774
82697SOL     OW49929  11.332   9.835   0.572
82697SOL    HW149930  11.276   9.912   0.576
82697SOL    HW249931  11.389   9.843   0.648
82698SOL     OW49932   7.672   5.192  12.080
82698SOL    HW149933   7.762   5.211  12.054
82698SOL    HW249934   7.624   5.183  11.997
82699SOL     OW49935   6.680   8.077   9.017
82699SOL    HW149936   6.683   8.002   9.076
82699SOL    HW249937   6.768   8.115   9.022
82700SOL     OW49938  14.362   1.140  14.631
82700SOL    HW149939  14.317   1.183  14.559
82700SOL    HW249940  14.455   1.158  14.614
82701SOL     OW49941   9.360  11.729   4.312
82701SOL    HW149942   9.317  11.708   4.229
82701SOL    HW249943   9.439  11.775   4.287
82702SOL     OW49944  13.317  11.401   4.534
82702SOL    HW149945  13.241  11.458   4.524
82702SOL    HW249946  13.280  11.315   4.553
82703SOL     OW49947  11.433   2.363   9.977
82703SOL    HW149948  11.459   2.388  10.066
82703SOL    HW249949  11.498   2.298   9.951
82704SOL     OW49950   9.703  12.900   6.088
82704SOL    HW149951   9.621  12.913   6.135
82704SOL    HW249952   9.766  12.876   6.156
82705SOL     OW49953   1.188  11.661  13.266
82705SOL    HW149954   1.111  11.715  13.284
82705SOL    HW249955   1.180  11.588  13.327
82706SOL     OW49956   4.366   3.717   9.783
82706SOL    HW149957   4.286   3.724   9.731
82706SOL    HW249958   4.396   3.627   9.771
82707SOL     OW49959   3.256  10.259   8.480
82707SOL    HW149960   3.260  10.299   8.567
82707SOL    HW249961   3.338  10.210   8.472
82708SOL     OW49962   2.344   1.981  13.999
82708SOL    HW149963   2.339   1.890  13.971
82708SOL    HW249964   2.329   1.978  14.093
82709SOL     OW49965   9.172   0.327  13.361
82709SOL    HW149966   9.214   0.315  13.275
82709SOL    HW249967   9.233   0.382  13.409
82710SOL     OW49968  10.421  13.539   4.418
82710SOL    HW149969  10.347  13.481   4.439
82710SOL    HW249970  10.397  13.623   4.456
82711SOL     OW49971   4.985   4.061  13.691
82711SOL    HW149972   4.901   4.073  13.647
82711SOL    HW249973   5.047   4.047  13.620
82712SOL     OW49974  13.346   5.323  13.499
82712SOL    HW149975  13.403   5.302  13.573
82712SOL    HW249976  13.298   5.401  13.527
82713SOL     OW49977   2.180  12.305   2.723
82713SOL    HW149978   2.262  12.339   2.759
82713SOL    HW249979   2.183  12.327   2.630
82714SOL     OW49980  12.211  12.800  12.936
82714SOL    HW149981  12.303  12.788  12.958
82714SOL    HW249982  12.212  12.833  12.847
82715SOL     OW49983   5.595  14.484  11.868
82715SOL    HW149984   5.634  14.522  11.947
82715SOL    HW249985   5.507  14.520  11.865
82716SOL     OW49986  12.030   7.834   1.085
82716SOL    HW149987  11.935   7.835   1.098
82716SOL    HW249988  12.064   7.872   1.166
82717SOL     OW49989  13.982  11.048   1.580
82717SOL    HW149990  14.054  11.076   1.522
82717SOL    HW249991  13.961  10.960   1.551
82718SOL     OW49992   0.153   6.556   4.435
82718SOL    HW149993   0.161   6.487   4.501
82718SOL    HW249994   0.122   6.510   4.356
82719SOL     OW49995   7.886   9.190   3.698
82719SOL    HW149996   7.843   9.198   3.783
82719SOL    HW249997   7.815   9.199   3.634
82720SOL     OW49998  10.080  14.001   0.269
82720SOL    HW149999  10.140  14.031   0.201
82720SOL    HW250000  10.131  13.938   0.320
82721SOL     OW50001   8.791   5.888  13.804
82721SOL    HW150002   8.750   5.941  13.872
82721SOL    HW250003   8.734   5.812  13.794
82722SOL     OW50004   7.379   9.371  10.524
82722SOL    HW150005   7.409   9.347  10.612
82722SOL    HW250006   7.456   9.358  10.468
82723SOL     OW50007   3.658  14.742  13.822
82723SOL    HW150008   3.645  14.657  13.779
82723SOL    HW250009   3.747  14.739  13.856
82724SOL     OW50010   1.465  13.406   1.098
82724SOL    HW150011   1.539  13.366   1.052
82724SOL    HW250012   1.447  13.347   1.171
82725SOL     OW50013   7.108  11.725   0.982
82725SOL    HW150014   7.062  11.643   0.999
82725SOL    HW250015   7.197  11.699   0.960
82726SOL     OW50016  11.033   4.103  13.338
82726SOL    HW150017  10.971   4.123  13.409
82726SOL    HW250018  10.977   4.087  13.262
82727SOL     OW50019  11.097   5.077   6.041
82727SOL    HW150020  11.017   5.030   6.065
82727SOL    HW250021  11.083   5.101   5.950
82728SOL     OW50022   4.355   8.489  11.983
82728SOL    HW150023   4.373   8.581  11.962
82728SOL    HW250024   4.437   8.457  12.020
82729SOL     OW50025   1.851   8.178   6.494
82729SOL    HW150026   1.850   8.145   6.404
82729SOL    HW250027   1.764   8.157   6.528
82730SOL     OW50028   2.837   6.175  10.820
82730SOL    HW150029   2.864   6.227  10.744
82730SOL    HW250030   2.778   6.232  10.869
82731SOL     OW50031   7.857   5.383   9.998
82731SOL    HW150032   7.893   5.352   9.915
82731SOL    HW250033   7.930   5.427  10.041
82732SOL     OW50034   7.274   5.898  12.664
82732SOL    HW150035   7.301   5.974  12.716
82732SOL    HW250036   7.198   5.929  12.614
82733SOL     OW50037   1.959   7.028  14.270
82733SOL    HW150038   1.944   6.983  14.187
82733SOL    HW250039   1.996   6.961  14.327
82734SOL     OW50040   8.783   9.784   4.777
82734SOL    HW150041   8.771   9.711   4.717
82734SOL    HW250042   8.710   9.843   4.758
82735SOL     OW50043   7.707   7.649   3.820
82735SOL    HW150044   7.633   7.684   3.771
82735SOL    HW250045   7.672   7.635   3.908
82736SOL     OW50046   4.972   5.366   4.190
82736SOL    HW150047   5.066   5.384   4.201
82736SOL    HW250048   4.939   5.353   4.279
82737SOL     OW50049   4.043   0.650  11.789
82737SOL    HW150050   3.966   0.684  11.834
82737SOL    HW250051   4.103   0.725  11.785
82738SOL     OW50052   3.283   1.903  12.328
82738SOL    HW150053   3.275   1.963  12.402
82738SOL    HW250054   3.361   1.851  12.348
82739SOL     OW50055   5.307   7.820   7.828
82739SOL    HW150056   5.318   7.730   7.859
82739SOL    HW250057   5.270   7.811   7.740
82740SOL     OW50058  13.183   7.281  10.620
82740SOL    HW150059  13.241   7.292  10.694
82740SOL    HW250060  13.194   7.361  10.568
82741SOL     OW50061   6.650   4.861   4.432
82741SOL    HW150062   6.588   4.798   4.394
82741SOL    HW250063   6.635   4.941   4.382
82742SOL     OW50064   2.967  12.397   3.589
82742SOL    HW150065   2.882  12.388   3.631
82742SOL    HW250066   3.010  12.313   3.605
82743SOL     OW50067   7.280   8.798   9.349
82743SOL    HW150068   7.261   8.754   9.431
82743SOL    HW250069   7.229   8.879   9.352
82744SOL     OW50070   0.357   0.250   2.046
82744SOL    HW150071   0.447   0.260   2.078
82744SOL    HW250072   0.339   0.157   2.052
82745SOL     OW50073  10.656   1.475   2.904
82745SOL    HW150074  10.735   1.447   2.856
82745SOL    HW250075  10.690   1.510   2.986
82746SOL     OW50076   9.788   0.335   5.715
82746SOL    HW150077   9.711   0.370   5.671
82746SOL    HW250078   9.858   0.398   5.696
82747SOL     OW50079   1.241   8.941   3.059
82747SOL    HW150080   1.162   8.918   3.109
82747SOL    HW250081   1.209   8.958   2.970
82748SOL     OW50082  13.038   5.799   0.667
82748SOL    HW150083  13.007   5.869   0.725
82748SOL    HW250084  12.965   5.781   0.608
82749SOL     OW50085  13.541  10.291   4.866
82749SOL    HW150086  13.490  10.359   4.822
82749SOL    HW250087  13.595  10.253   4.797
82750SOL     OW50088   5.302   9.846  12.717
82750SOL    HW150089   5.272   9.803  12.637
82750SOL    HW250090   5.262   9.796  12.788
82751SOL     OW50091   5.956   4.224   9.540
82751SOL    HW150092   5.895   4.179   9.482
82751SOL    HW250093   5.915   4.219   9.626
82752SOL     OW50094   0.701  13.504  11.740
82752SOL    HW150095   0.659  13.497  11.826
82752SOL    HW250096   0.789  13.538  11.760
82753SOL     OW50097  10.533  14.094   4.666
82753SOL    HW150098  10.598  14.107   4.597
82753SOL    HW250099  10.476  14.171   4.659
82754SOL     OW50100   5.930   0.638  14.853
82754SOL    HW150101   5.953   0.595  14.771
82754SOL    HW250102   5.987   0.715  14.857
82755SOL     OW50103   2.696  10.123   8.018
82755SOL    HW150104   2.774  10.085   8.058
82755SOL    HW250105   2.639  10.143   8.093
82756SOL     OW50106   0.024   3.118   6.253
82756SOL    HW150107   0.060   3.123   6.164
82756SOL    HW250108  14.847   3.041   6.251
82757SOL     OW50109   0.161   9.834  13.348
82757SOL    HW150110   0.083   9.797  13.389
82757SOL    HW250111   0.167   9.923  13.384
82758SOL     OW50112  12.126  11.804  14.433
82758SOL    HW150113  12.153  11.888  14.394
82758SOL    HW250114  12.138  11.817  14.527
82759SOL     OW50115   6.782  11.612   9.418
82759SOL    HW150116   6.766  11.565   9.500
82759SOL    HW250117   6.771  11.545   9.350
82760SOL     OW50118   9.957  10.057   9.424
82760SOL    HW150119   9.888  10.052   9.359
82760SOL    HW250120   9.999   9.971   9.421
82761SOL     OW50121  10.632   0.214   7.955
82761SOL    HW150122  10.594   0.296   7.922
82761SOL    HW250123  10.557   0.165   7.989
82762SOL     OW50124   9.041  11.562   4.324
82762SOL    HW150125   9.101  11.593   4.257
82762SOL    HW250126   8.998  11.486   4.285
82763SOL     OW50127  10.467  14.644   0.358
82763SOL    HW150128  10.534  14.639   0.426
82763SOL    HW250129  10.504  14.595   0.284
82764SOL     OW50130  12.652   2.823  12.757
82764SOL    HW150131  12.579   2.780  12.712
82764SOL    HW250132  12.707   2.857  12.686
82765SOL     OW50133  11.069   0.272   5.388
82765SOL    HW150134  11.050   0.185   5.353
82765SOL    HW250135  11.026   0.332   5.328
82766SOL     OW50136   0.425   7.677  14.518
82766SOL    HW150137   0.510   7.663  14.561
82766SOL    HW250138   0.446   7.688  14.426
82767SOL     OW50139  13.597   8.432   9.848
82767SOL    HW150140  13.598   8.528   9.855
82767SOL    HW250141  13.530   8.414   9.782
82768SOL     OW50142   0.287   4.081   1.997
82768SOL    HW150143   0.248   4.167   1.981
82768SOL    HW250144   0.216   4.019   1.986
82769SOL     OW50145   9.847  10.901   4.063
82769SOL    HW150146   9.840  10.974   4.124
82769SOL    HW250147   9.827  10.824   4.115
82770SOL     OW50148   4.480   9.556  12.593
82770SOL    HW150149   4.573   9.563  12.616
82770SOL    HW250150   4.472   9.469  12.555
82771SOL     OW50151   9.288   8.962  14.058
82771SOL    HW150152   9.271   8.885  14.112
82771SOL    HW250153   9.203   9.005  14.049
82772SOL     OW50154  11.355  12.063  13.083
82772SOL    HW150155  11.295  12.017  13.142
82772SOL    HW250156  11.302  12.079  13.004
82773SOL     OW50157   0.585   9.547   9.667
82773SOL    HW150158   0.574   9.523   9.575
82773SOL    HW250159   0.641   9.478   9.703
82774SOL     OW50160  13.320   6.049   5.776
82774SOL    HW150161  13.389   6.113   5.759
82774SOL    HW250162  13.239   6.100   5.776
82775SOL     OW50163  12.975   8.609  14.726
82775SOL    HW150164  12.999   8.518  14.744
82775SOL    HW250165  12.891   8.621  14.770
82776SOL     OW50166  11.244   6.643   2.887
82776SOL    HW150167  11.250   6.630   2.793
82776SOL    HW250168  11.282   6.564   2.925
82777SOL     OW50169   8.131   6.490   8.651
82777SOL    HW150170   8.176   6.574   8.665
82777SOL    HW250171   8.038   6.512   8.657
82778SOL     OW50172   2.483  14.386   6.341
82778SOL    HW150173   2.515  14.310   6.293
82778SOL    HW250174   2.525  14.461   6.300
82779SOL     OW50175  13.000   2.702   9.138
82779SOL    HW150176  12.942   2.627   9.127
82779SOL    HW250177  12.949   2.765   9.189
82780SOL     OW50178   1.490   1.228  12.233
82780SOL    HW150179   1.506   1.291  12.303
82780SOL    HW250180   1.528   1.146  12.265
82781SOL     OW50181  10.521   4.201   7.489
82781SOL    HW150182  10.464   4.246   7.552
82781SOL    HW250183  10.602   4.186   7.537
82782SOL     OW50184   8.491  10.768   9.872
82782SOL    HW150185   8.580  10.800   9.855
82782SOL    HW250186   8.477  10.786   9.966
82783SOL     OW50187   9.149   6.392  12.570
82783SOL    HW150188   9.137   6.405  12.665
82783SOL    HW250189   9.075   6.337  12.544
82784SOL     OW50190  10.532  13.480  12.121
82784SOL    HW150191  10.597  13.549  12.128
82784SOL    HW250192  10.505  13.463  12.211
82785SOL     OW50193  10.620   3.863   5.597
82785SOL    HW150194  10.703   3.910   5.605
82785SOL    HW250195  10.603   3.830   5.685
82786SOL     OW50196   4.797   3.095   4.856
82786SOL    HW150197   4.791   3.186   4.827
82786SOL    HW250198   4.890   3.075   4.854
82787SOL     OW50199   9.030   8.972  12.011
82787SOL    HW150200   8.948   8.970  12.060
82787SOL    HW250201   9.003   8.985  11.920
82788SOL     OW50202   5.062  11.581   3.173
82788SOL    HW150203   5.015  11.507   3.210
82788SOL    HW250204   5.062  11.565   3.078
82789SOL     OW50205   2.251   4.660   1.412
82789SOL    HW150206   2.256   4.686   1.320
82789SOL    HW250207   2.335   4.685   1.449
82790SOL     OW50208   2.253   1.704  14.263
82790SOL    HW150209   2.277   1.791  14.296
82790SOL    HW250210   2.278   1.644  14.333
82791SOL     OW50211   2.073   3.097  10.990
82791SOL    HW150212   2.073   3.175  11.046
82791SOL    HW250213   2.072   3.024  11.051
82792SOL     OW50214   0.889   7.645   4.857
82792SOL    HW150215   0.926   7.729   4.884
82792SOL    HW250216   0.799   7.665   4.831
82793SOL     OW50217   1.461   0.504   8.744
82793SOL    HW150218   1.397   0.513   8.673
82793SOL    HW250219   1.450   0.584   8.795
82794SOL     OW50220   4.038   9.066  14.741
82794SOL    HW150221   4.072   9.045  14.654
82794SOL    HW250222   3.979   9.140  14.727
82795SOL     OW50223   2.894   8.672  13.273
82795SOL    HW150224   2.946   8.735  13.323
82795SOL    HW250225   2.836   8.633  13.338
82796SOL     OW50226   9.317   1.923  11.095
82796SOL    HW150227   9.373   1.944  11.170
82796SOL    HW250228   9.348   1.980  11.025
82797SOL     OW50229   7.842   4.269   7.139
82797SOL    HW150230   7.923   4.287   7.092
82797SOL    HW250231   7.868   4.215   7.214
82798SOL     OW50232   8.071  10.621   8.067
82798SOL    HW150233   8.108  10.661   8.146
82798SOL    HW250234   8.112  10.535   8.062
82799SOL     OW50235  14.475  10.420   1.766
82799SOL    HW150236  14.491  10.387   1.854
82799SOL    HW250237  14.390  10.382   1.741
82800SOL     OW50238   0.355  11.778  14.390
82800SOL    HW150239   0.332  11.851  14.447
82800SOL    HW250240   0.444  11.798  14.360
82801SOL     OW50241  11.881  14.617   4.964
82801SOL    HW150242  11.902  14.654   4.878
82801SOL    HW250243  11.830  14.538   4.944
82802SOL     OW50244   1.511   0.653  10.309
82802SOL    HW150245   1.469   0.600  10.377
82802SOL    HW250246   1.524   0.591  10.237
82803SOL     OW50247   7.917   6.698   5.607
82803SOL    HW150248   7.998   6.649   5.597
82803SOL    HW250249   7.917   6.760   5.534
82804SOL     OW50250   1.798   2.893   1.139
82804SOL    HW150251   1.737   2.851   1.079
82804SOL    HW250252   1.759   2.979   1.156
82805SOL     OW50253   8.331  13.297   1.718
82805SOL    HW150254   8.250  13.281   1.767
82805SOL    HW250255   8.334  13.226   1.654
82806SOL     OW50256   5.440   6.181  12.578
82806SOL    HW150257   5.460   6.268  12.544
82806SOL    HW250258   5.345   6.182  12.592
82807SOL     OW50259   4.594   6.742  10.820
82807SOL    HW150260   4.628   6.824  10.855
82807SOL    HW250261   4.505   6.736  10.856
82808SOL     OW50262   5.480   8.933  11.957
82808SOL    HW150263   5.539   8.880  12.010
82808SOL    HW250264   5.486   9.021  11.994
82809SOL     OW50265   8.098   3.372  11.590
82809SOL    HW150266   8.021   3.412  11.630
82809SOL    HW250267   8.172   3.402  11.643
82810SOL     OW50268   4.935   4.008   1.374
82810SOL    HW150269   4.916   3.974   1.461
82810SOL    HW250270   4.926   4.103   1.383
82811SOL     OW50271   0.368  10.383  14.078
82811SOL    HW150272   0.387  10.437  14.001
82811SOL    HW250273   0.303  10.320  14.047
82812SOL     OW50274  11.661   0.392   6.690
82812SOL    HW150275  11.713   0.435   6.621
82812SOL    HW250276  11.659   0.300   6.664
82813SOL     OW50277  14.523   0.137   3.928
82813SOL    HW150278  14.521   0.182   4.012
82813SOL    HW250279  14.534   0.045   3.950
82814SOL     OW50280   0.603   8.634   0.914
82814SOL    HW150281   0.527   8.659   0.862
82814SOL    HW250282   0.638   8.717   0.947
82815SOL     OW50283  12.884  11.358  12.258
82815SOL    HW150284  12.909  11.443  12.222
82815SOL    HW250285  12.854  11.308  12.182
82816SOL     OW50286   5.446   3.448   1.963
82816SOL    HW150287   5.537   3.476   1.976
82816SOL    HW250288   5.408   3.517   1.908
82817SOL     OW50289  11.235   3.090   2.216
82817SOL    HW150290  11.141   3.073   2.223
82817SOL    HW250291  11.266   3.091   2.306
82818SOL     OW50292   1.355   2.766  10.155
82818SOL    HW150293   1.376   2.855  10.125
82818SOL    HW250294   1.363   2.771  10.250
82819SOL     OW50295   2.940   1.850   4.591
82819SOL    HW150296   2.883   1.810   4.657
82819SOL    HW250297   3.018   1.793   4.590
82820SOL     OW50298   9.116  10.381   4.913
82820SOL    HW150299   9.088  10.473   4.906
82820SOL    HW250300   9.053  10.333   4.860
82821SOL     OW50301   7.731  12.150   6.102
82821SOL    HW150302   7.789  12.134   6.028
82821SOL    HW250303   7.791  12.161   6.177
82822SOL     OW50304   7.424  12.859   0.725
82822SOL    HW150305   7.494  12.835   0.665
82822SOL    HW250306   7.344  12.854   0.672
82823SOL     OW50307  12.682   4.062   0.895
82823SOL    HW150308  12.680   4.126   0.965
82823SOL    HW250309  12.774   4.059   0.867
82824SOL     OW50310   9.488  11.563   8.603
82824SOL    HW150311   9.524  11.610   8.678
82824SOL    HW250312   9.474  11.631   8.537
82825SOL     OW50313   1.118   0.395  11.584
82825SOL    HW150314   1.121   0.405  11.489
82825SOL    HW250315   1.203   0.357  11.607
82826SOL     OW50316   9.015   6.781  12.976
82826SOL    HW150317   8.997   6.747  12.888
82826SOL    HW250318   8.936   6.761  13.025
82827SOL     OW50319   2.490  12.611  10.326
82827SOL    HW150320   2.530  12.526  10.310
82827SOL    HW250321   2.436  12.627  10.249
82828SOL     OW50322  10.172   8.833   6.246
82828SOL    HW150323  10.113   8.876   6.307
82828SOL    HW250324  10.258   8.837   6.288
82829SOL     OW50325  11.935   7.854   2.258
82829SOL    HW150326  11.841   7.840   2.250
82829SOL    HW250327  11.965   7.869   2.168
82830SOL     OW50328   2.375   1.754   3.686
82830SOL    HW150329   2.441   1.791   3.744
82830SOL    HW250330   2.312   1.825   3.672
82831SOL     OW50331   5.146   5.441   1.313
82831SOL    HW150332   5.195   5.360   1.296
82831SOL    HW250333   5.174   5.468   1.400
82832SOL     OW50334   5.157   0.100   0.528
82832SOL    HW150335   5.166   0.194   0.543
82832SOL    HW250336   5.063   0.086   0.519
82833SOL     OW50337   1.255   2.487   2.874
82833SOL    HW150338   1.173   2.483   2.923
82833SOL    HW250339   1.314   2.429   2.922
82834SOL     OW50340   0.873   6.221  11.163
82834SOL    HW150341   0.871   6.134  11.203
82834SOL    HW250342   0.932   6.272  11.219
82835SOL     OW50343  11.655   6.494   2.255
82835SOL    HW150344  11.674   6.471   2.164
82835SOL    HW250345  11.712   6.568   2.274
82836SOL     OW50346   2.738   9.173  11.811
82836SOL    HW150347   2.654   9.196  11.850
82836SOL    HW250348   2.722   9.089  11.768
82837SOL     OW50349   3.978  12.505  10.883
82837SOL    HW150350   4.023  12.566  10.824
82837SOL    HW250351   4.020  12.421  10.867
82838SOL     OW50352   5.756   5.213   8.107
82838SOL    HW150353   5.771   5.122   8.083
82838SOL    HW250354   5.700   5.209   8.184
82839SOL     OW50355   6.452   0.379  12.509
82839SOL    HW150356   6.547   0.385  12.519
82839SOL    HW250357   6.440   0.329  12.428
82840SOL     OW50358   4.249   0.574   6.724
82840SOL    HW150359   4.284   0.652   6.767
82840SOL    HW250360   4.176   0.607   6.672
82841SOL     OW50361   1.810   2.384   4.787
82841SOL    HW150362   1.763   2.444   4.846
82841SOL    HW250363   1.741   2.340   4.738
82842SOL     OW50364  14.824   3.208   8.400
82842SOL    HW150365  14.816   3.143   8.330
82842SOL    HW250366  14.765   3.279   8.373
82843SOL     OW50367   3.183   1.521  11.033
82843SOL    HW150368   3.151   1.458  11.098
82843SOL    HW250369   3.104   1.550  10.987
82844SOL     OW50370   1.370   3.395   2.819
82844SOL    HW150371   1.395   3.401   2.912
82844SOL    HW250372   1.399   3.478   2.781
82845SOL     OW50373  13.092   7.522   1.172
82845SOL    HW150374  13.027   7.580   1.212
82845SOL    HW250375  13.169   7.530   1.228
82846SOL     OW50376  13.107  10.161  11.711
82846SOL    HW150377  13.080  10.224  11.644
82846SOL    HW250378  13.202  10.173  11.718
82847SOL     OW50379  14.693  14.151  12.434
82847SOL    HW150380  14.680  14.159  12.529
82847SOL    HW250381  14.770  14.205  12.416
82848SOL     OW50382  11.835  12.952   6.158
82848SOL    HW150383  11.917  12.908   6.137
82848SOL    HW250384  11.849  12.989   6.246
82849SOL     OW50385   2.868   5.404  12.871
82849SOL    HW150386   2.913   5.416  12.787
82849SOL    HW250387   2.933   5.428  12.937
82850SOL     OW50388  12.026   1.143   3.468
82850SOL    HW150389  12.030   1.225   3.419
82850SOL    HW250390  11.997   1.078   3.405
82851SOL     OW50391  13.330   8.027   0.951
82851SOL    HW150392  13.358   7.995   0.865
82851SOL    HW250393  13.392   7.989   1.013
82852SOL     OW50394   2.812   1.477  13.275
82852SOL    HW150395   2.901   1.445  13.290
82852SOL    HW250396   2.774   1.485  13.363
82853SOL     OW50397   0.820  12.238   7.255
82853SOL    HW150398   0.851  12.328   7.249
82853SOL    HW250399   0.899  12.184   7.246
82854SOL     OW50400   2.635   5.866   7.885
82854SOL    HW150401   2.626   5.772   7.894
82854SOL    HW250402   2.688   5.893   7.960
82855SOL     OW50403   7.181   0.817   0.607
82855SOL    HW150404   7.233   0.745   0.573
82855SOL    HW250405   7.209   0.825   0.699
82856SOL     OW50406   5.168  13.370   0.813
82856SOL    HW150407   5.147  13.357   0.721
82856SOL    HW250408   5.135  13.292   0.856
82857SOL     OW50409  13.132   8.012  12.037
82857SOL    HW150410  13.123   8.066  12.115
82857SOL    HW250411  13.215   8.039  11.998
82858SOL     OW50412  12.741   8.992   9.809
82858SOL    HW150413  12.660   9.012   9.856
82858SOL    HW250414  12.752   9.065   9.748
82859SOL     OW50415   9.303   3.589  11.745
82859SOL    HW150416   9.260   3.650  11.685
82859SOL    HW250417   9.265   3.504  11.724
82860SOL     OW50418  10.635   0.888  13.227
82860SOL    HW150419  10.697   0.855  13.292
82860SOL    HW250420  10.563   0.924  13.278
82861SOL     OW50421   5.560   0.017   5.393
82861SOL    HW150422   5.557   0.102   5.349
82861SOL    HW250423   5.621   0.030   5.466
82862SOL     OW50424   0.625  13.091   7.565
82862SOL    HW150425   0.685  13.069   7.637
82862SOL    HW250426   0.550  13.033   7.578
82863SOL     OW50427  13.703   1.878   1.186
82863SOL    HW150428  13.729   1.833   1.105
82863SOL    HW250429  13.607   1.872   1.187
82864SOL     OW50430   3.566   2.597   1.900
82864SOL    HW150431   3.590   2.601   1.992
82864SOL    HW250432   3.551   2.688   1.875
82865SOL     OW50433   2.545   9.323   8.998
82865SOL    HW150434   2.602   9.247   8.988
82865SOL    HW250435   2.540   9.360   8.910
82866SOL     OW50436   3.564   9.813   5.806
82866SOL    HW150437   3.559   9.785   5.714
82866SOL    HW250438   3.545   9.907   5.803
82867SOL     OW50439   8.874   7.331   9.889
82867SOL    HW150440   8.939   7.352   9.955
82867SOL    HW250441   8.810   7.277   9.934
82868SOL     OW50442   1.735  13.421   3.111
82868SOL    HW150443   1.799  13.408   3.181
82868SOL    HW250444   1.784  13.468   3.043
82869SOL     OW50445   9.887   5.988   9.216
82869SOL    HW150446   9.962   5.938   9.184
82869SOL    HW250447   9.810   5.942   9.183
82870SOL     OW50448   9.511  13.022  13.893
82870SOL    HW150449   9.456  13.097  13.872
82870SOL    HW250450   9.575  13.055  13.956
82871SOL     OW50451   4.221  13.530   2.234
82871SOL    HW150452   4.184  13.530   2.146
82871SOL    HW250453   4.277  13.452   2.236
82872SOL     OW50454   8.694   7.522   5.505
82872SOL    HW150455   8.702   7.472   5.586
82872SOL    HW250456   8.672   7.457   5.438
82873SOL     OW50457   2.382   2.636   6.168
82873SOL    HW150458   2.315   2.641   6.100
82873SOL    HW250459   2.334   2.625   6.250
82874SOL     OW50460   5.872   0.902   0.761
82874SOL    HW150461   5.863   0.997   0.757
82874SOL    HW250462   5.783   0.869   0.751
82875SOL     OW50463   1.590   2.149  13.746
82875SOL    HW150464   1.581   2.231  13.793
82875SOL    HW250465   1.658   2.165  13.681
82876SOL     OW50466  12.932  11.027   0.028
82876SOL    HW150467  12.919  10.937  14.878
82876SOL    HW250468  12.867  11.078  14.859
82877SOL     OW50469   4.370   2.204   4.918
82877SOL    HW150470   4.321   2.142   4.972
82877SOL    HW250471   4.353   2.290   4.957
82878SOL     OW50472   9.590  10.176  13.844
82878SOL    HW150473   9.685  10.183  13.853
82878SOL    HW250474   9.555  10.228  13.916
82879SOL     OW50475  14.839  13.941   0.246
82879SOL    HW150476  14.852  13.909   0.335
82879SOL    HW250477  14.822  14.034   0.256
82880SOL     OW50478   3.667  13.945   2.897
82880SOL    HW150479   3.662  13.994   2.815
82880SOL    HW250480   3.761  13.942   2.917
82881SOL     OW50481   5.107  14.041   8.969
82881SOL    HW150482   5.061  14.022   9.051
82881SOL    HW250483   5.168  14.110   8.991
82882SOL     OW50484  11.081   9.324   9.883
82882SOL    HW150485  10.995   9.312   9.841
82882SOL    HW250486  11.061   9.345   9.974
82883SOL     OW50487   6.608   6.486   2.351
82883SOL    HW150488   6.632   6.573   2.381
82883SOL    HW250489   6.555   6.450   2.423
82884SOL     OW50490   0.917  10.146   1.819
82884SOL    HW150491   0.986  10.198   1.859
82884SOL    HW250492   0.964  10.076   1.773
82885SOL     OW50493  11.293  14.844  10.442
82885SOL    HW150494  11.288   0.025  10.516
82885SOL    HW250495  11.215  14.788  10.452
82886SOL     OW50496   1.488  10.381   1.017
82886SOL    HW150497   1.401  10.398   0.980
82886SOL    HW250498   1.534  10.333   0.949
82887SOL     OW50499  10.916   4.419   0.779
82887SOL    HW150500  10.826   4.450   0.789
82887SOL    HW250501  10.941   4.448   0.691
82888SOL     OW50502   2.134   0.200   7.791
82888SOL    HW150503   2.205   0.136   7.804
82888SOL    HW250504   2.179   0.280   7.764
82889SOL     OW50505  11.142   6.264   2.301
82889SOL    HW150506  11.108   6.344   2.262
82889SOL    HW250507  11.137   6.199   2.231
82890SOL     OW50508  14.505  14.380   3.554
82890SOL    HW150509  14.532  14.470   3.539
82890SOL    HW250510  14.425  14.388   3.607
82891SOL     OW50511  14.839   1.081   4.556
82891SOL    HW150512   0.003   1.164   4.537
82891SOL    HW250513  14.871   1.022   4.488
82892SOL     OW50514   3.130   7.601   1.083
82892SOL    HW150515   3.149   7.575   0.993
82892SOL    HW250516   3.090   7.523   1.122
82893SOL     OW50517   5.170  12.600   1.826
82893SOL    HW150518   5.182  12.605   1.921
82893SOL    HW250519   5.093  12.653   1.809
82894SOL     OW50520  11.400   1.958   9.938
82894SOL    HW150521  11.305   1.951   9.935
82894SOL    HW250522  11.428   1.947   9.847
82895SOL     OW50523  10.636   2.742   9.745
82895SOL    HW150524  10.636   2.838   9.750
82895SOL    HW250525  10.621   2.714   9.836
82896SOL     OW50526   2.286   0.485   6.378
82896SOL    HW150527   2.274   0.567   6.426
82896SOL    HW250528   2.361   0.444   6.421
82897SOL     OW50529   7.022  12.965   9.811
82897SOL    HW150530   7.037  13.013   9.729
82897SOL    HW250531   7.109  12.942   9.842
82898SOL     OW50532   5.528   6.157   1.835
82898SOL    HW150533   5.595   6.223   1.851
82898SOL    HW250534   5.519   6.110   1.918
82899SOL     OW50535   7.894   3.667   6.865
82899SOL    HW150536   7.902   3.640   6.774
82899SOL    HW250537   7.802   3.648   6.887
82900SOL     OW50538  12.795   4.282  13.521
82900SOL    HW150539  12.888   4.289  13.545
82900SOL    HW250540  12.749   4.276  13.604
82901SOL     OW50541   7.188  14.739  10.589
82901SOL    HW150542   7.278  14.729  10.561
82901SOL    HW250543   7.137  14.688  10.527
82902SOL     OW50544   1.877  14.740   0.361
82902SOL    HW150545   1.805  14.731   0.423
82902SOL    HW250546   1.857  14.819   0.312
82903SOL     OW50547   6.073  10.213  11.723
82903SOL    HW150548   5.993  10.253  11.756
82903SOL    HW250549   6.081  10.131  11.772
82904SOL     OW50550   7.772  14.768   4.079
82904SOL    HW150551   7.704  14.812   4.030
82904SOL    HW250552   7.812  14.707   4.017
82905SOL     OW50553   9.366   0.346  14.055
82905SOL    HW150554   9.345   0.437  14.036
82905SOL    HW250555   9.457   0.348  14.085
82906SOL     OW50556  10.225   2.240   8.796
82906SOL    HW150557  10.164   2.212   8.863
82906SOL    HW250558  10.170   2.282   8.729
82907SOL     OW50559  12.740  11.672   8.208
82907SOL    HW150560  12.732  11.614   8.283
82907SOL    HW250561  12.783  11.619   8.141
82908SOL     OW50562   8.659   2.364   4.357
82908SOL    HW150563   8.634   2.322   4.275
82908SOL    HW250564   8.579   2.408   4.387
82909SOL     OW50565  13.704   2.658   2.331
82909SOL    HW150566  13.743   2.591   2.275
82909SOL    HW250567  13.614   2.665   2.302
82910SOL     OW50568   7.782  12.523   8.875
82910SOL    HW150569   7.830  12.550   8.953
82910SOL    HW250570   7.807  12.586   8.808
82911SOL     OW50571   5.640   0.731  14.625
82911SOL    HW150572   5.567   0.709  14.566
82911SOL    HW250573   5.675   0.647  14.653
82912SOL     OW50574   6.211   8.760   7.918
82912SOL    HW150575   6.128   8.713   7.916
82912SOL    HW250576   6.274   8.698   7.954
82913SOL     OW50577   1.465  13.818   9.924
82913SOL    HW150578   1.403  13.834   9.853
82913SOL    HW250579   1.551  13.817   9.881
82914SOL     OW50580  14.020   0.619   0.571
82914SOL    HW150581  13.970   0.580   0.499
82914SOL    HW250582  14.107   0.579   0.564
82915SOL     OW50583   6.169   8.348   2.694
82915SOL    HW150584   6.240   8.336   2.631
82915SOL    HW250585   6.108   8.277   2.674
82916SOL     OW50586   7.344   3.607   7.343
82916SOL    HW150587   7.315   3.564   7.424
82916SOL    HW250588   7.383   3.690   7.372
82917SOL     OW50589  13.278   7.167   7.017
82917SOL    HW150590  13.210   7.132   7.074
82917SOL    HW250591  13.275   7.262   7.032
82918SOL     OW50592  10.931  14.284   2.608
82918SOL    HW150593  10.849  14.238   2.624
82918SOL    HW250594  10.987  14.260   2.683
82919SOL     OW50595   5.578  10.239   4.355
82919SOL    HW150596   5.506  10.187   4.319
82919SOL    HW250597   5.545  10.328   4.356
82920SOL     OW50598   5.541   0.968   0.689
82920SOL    HW150599   5.472   1.027   0.719
82920SOL    HW250600   5.620   1.022   0.690
82921SOL     OW50601   0.881   3.498   4.944
82921SOL    HW150602   0.878   3.494   5.040
82921SOL    HW250603   0.914   3.586   4.925
82922SOL     OW50604   9.046   4.532  13.071
82922SOL    HW150605   9.033   4.487  12.988
82922SOL    HW250606   9.064   4.462  13.134
82923SOL     OW50607  12.107   2.401   9.265
82923SOL    HW150608  12.042   2.332   9.269
82923SOL    HW250609  12.083   2.452   9.187
82924SOL     OW50610  10.521   4.236   3.834
82924SOL    HW150611  10.588   4.297   3.866
82924SOL    HW250612  10.503   4.180   3.910
82925SOL     OW50613  13.358  13.794   3.690
82925SOL    HW150614  13.322  13.756   3.770
82925SOL    HW250615  13.327  13.737   3.620
82926SOL     OW50616  13.890  12.064  11.606
82926SOL    HW150617  13.984  12.049  11.618
82926SOL    HW250618  13.878  12.071  11.512
82927SOL     OW50619   5.660   1.503   2.325
82927SOL    HW150620   5.744   1.488   2.282
82927SOL    HW250621   5.676   1.481   2.417
82928SOL     OW50622  10.114   1.247   7.464
82928SOL    HW150623  10.032   1.216   7.502
82928SOL    HW250624  10.164   1.167   7.447
82929SOL     OW50625   6.372   5.582  14.562
82929SOL    HW150626   6.395   5.656  14.617
82929SOL    HW250627   6.408   5.506  14.607
82930SOL     OW50628   3.563   1.755  11.996
82930SOL    HW150629   3.648   1.758  12.039
82930SOL    HW250630   3.583   1.757  11.903
82931SOL     OW50631   9.065   5.140  11.316
82931SOL    HW150632   9.152   5.109  11.291
82931SOL    HW250633   9.057   5.226  11.275
82932SOL     OW50634  11.583  12.138   9.263
82932SOL    HW150635  11.656  12.094   9.220
82932SOL    HW250636  11.505  12.104   9.219
82933SOL     OW50637   6.050   1.575  12.392
82933SOL    HW150638   6.067   1.633  12.467
82933SOL    HW250639   6.004   1.500  12.430
82934SOL     OW50640   4.551   6.589   8.124
82934SOL    HW150641   4.569   6.595   8.030
82934SOL    HW250642   4.535   6.496   8.140
82935SOL     OW50643   9.171   0.614  11.488
82935SOL    HW150644   9.193   0.681  11.423
82935SOL    HW250645   9.080   0.591  11.470
82936SOL     OW50646  13.779   8.324   8.673
82936SOL    HW150647  13.751   8.330   8.582
82936SOL    HW250648  13.875   8.320   8.668
82937SOL     OW50649  13.311   1.489  13.538
82937SOL    HW150650  13.311   1.572  13.491
82937SOL    HW250651  13.375   1.435  13.491
82938SOL     OW50652   2.806  14.671   9.395
82938SOL    HW150653   2.767  14.686   9.309
82938SOL    HW250654   2.899  14.661   9.378
82939SOL     OW50655   9.165   5.643   8.615
82939SOL    HW150656   9.203   5.562   8.583
82939SOL    HW250657   9.133   5.621   8.703
82940SOL     OW50658  12.934  12.970   8.016
82940SOL    HW150659  13.014  13.005   8.055
82940SOL    HW250660  12.959  12.883   7.985
82941SOL     OW50661   4.386  13.084   4.987
82941SOL    HW150662   4.347  13.140   4.921
82941SOL    HW250663   4.380  12.996   4.951
82942SOL     OW50664   0.178   4.101   6.860
82942SOL    HW150665   0.218   4.026   6.906
82942SOL    HW250666   0.164   4.069   6.771
82943SOL     OW50667   6.672  12.541  11.478
82943SOL    HW150668   6.626  12.600  11.538
82943SOL    HW250669   6.646  12.571  11.391
82944SOL     OW50670   4.017  12.827   5.543
82944SOL    HW150671   4.044  12.872   5.622
82944SOL    HW250672   4.050  12.738   5.553
82945SOL     OW50673   0.689   1.486  13.204
82945SOL    HW150674   0.593   1.488  13.212
82945SOL    HW250675   0.720   1.504  13.292
82946SOL     OW50676   7.501   1.767   4.458
82946SOL    HW150677   7.504   1.862   4.446
82946SOL    HW250678   7.427   1.753   4.517
82947SOL     OW50679  11.221   9.984   4.411
82947SOL    HW150680  11.236   9.942   4.496
82947SOL    HW250681  11.127   9.970   4.395
82948SOL     OW50682  14.644  13.418   6.213
82948SOL    HW150683  14.562  13.371   6.228
82948SOL    HW250684  14.712  13.351   6.221
82949SOL     OW50685  13.152   2.044   6.197
82949SOL    HW150686  13.057   2.049   6.188
82949SOL    HW250687  13.167   2.009   6.285
82950SOL     OW50688   4.255   5.867   1.285
82950SOL    HW150689   4.204   5.936   1.243
82950SOL    HW250690   4.190   5.802   1.311
82951SOL     OW50691  14.488   1.165   0.042
82951SOL    HW150692  14.421   1.134  14.861
82951SOL    HW250693  14.440   1.212   0.110
82952SOL     OW50694   1.506   2.727   0.306
82952SOL    HW150695   1.423   2.771   0.288
82952SOL    HW250696   1.489   2.675   0.385
82953SOL     OW50697   5.038   9.566   5.859
82953SOL    HW150698   5.049   9.496   5.795
82953SOL    HW250699   5.050   9.647   5.810
82954SOL     OW50700  10.765   2.915  11.917
82954SOL    HW150701  10.812   2.940  11.996
82954SOL    HW250702  10.701   2.984  11.904
82955SOL     OW50703  12.699   3.788   1.533
82955SOL    HW150704  12.656   3.849   1.594
82955SOL    HW250705  12.717   3.711   1.586
82956SOL     OW50706   7.625   4.501   0.962
82956SOL    HW150707   7.581   4.439   0.904
82956SOL    HW250708   7.703   4.527   0.914
82957SOL     OW50709   2.490   1.551   9.275
82957SOL    HW150710   2.559   1.532   9.338
82957SOL    HW250711   2.409   1.548   9.327
82958SOL     OW50712   7.326   7.504  10.844
82958SOL    HW150713   7.281   7.582  10.877
82958SOL    HW250714   7.416   7.533  10.827
82959SOL     OW50715   2.311  14.487   4.872
82959SOL    HW150716   2.300  14.577   4.901
82959SOL    HW250717   2.406  14.477   4.859
82960SOL     OW50718   1.912   0.763   7.900
82960SOL    HW150719   1.951   0.742   7.815
82960SOL    HW250720   1.984   0.751   7.963
82961SOL     OW50721   9.304   0.459  11.657
82961SOL    HW150722   9.398   0.467  11.670
82961SOL    HW250723   9.284   0.521  11.587
82962SOL     OW50724   9.290   1.927   2.901
82962SOL    HW150725   9.229   1.920   2.827
82962SOL    HW250726   9.306   1.837   2.928
82963SOL     OW50727   8.782   2.112  11.879
82963SOL    HW150728   8.744   2.175  11.817
82963SOL    HW250729   8.766   2.151  11.965
82964SOL     OW50730   5.110   0.514   7.697
82964SOL    HW150731   5.168   0.523   7.621
82964SOL    HW250732   5.073   0.427   7.689
82965SOL     OW50733   8.412   1.442  12.847
82965SOL    HW150734   8.471   1.454  12.922
82965SOL    HW250735   8.470   1.432  12.772
82966SOL     OW50736   8.251   0.676   6.327
82966SOL    HW150737   8.300   0.594   6.322
82966SOL    HW250738   8.173   0.660   6.274
82967SOL     OW50739   4.680  14.660   3.128
82967SOL    HW150740   4.588  14.665   3.101
82967SOL    HW250741   4.677  14.636   3.220
82968SOL     OW50742   5.713   5.683   6.712
82968SOL    HW150743   5.763   5.628   6.773
82968SOL    HW250744   5.688   5.759   6.765
82969SOL     OW50745   6.593   7.774  10.776
82969SOL    HW150746   6.514   7.742  10.819
82969SOL    HW250747   6.662   7.764  10.842
82970SOL     OW50748   2.870   9.196  12.674
82970SOL    HW150749   2.855   9.290  12.684
82970SOL    HW250750   2.805   9.155  12.731
82971SOL     OW50751   7.244  11.543   4.513
82971SOL    HW150752   7.278  11.543   4.602
82971SOL    HW250753   7.274  11.460   4.476
82972SOL     OW50754   3.832   4.353   4.883
82972SOL    HW150755   3.740   4.374   4.900
82972SOL    HW250756   3.838   4.346   4.788
82973SOL     OW50757   8.139   6.568   5.540
82973SOL    HW150758   8.216   6.517   5.564
82973SOL    HW250759   8.164   6.613   5.459
82974SOL     OW50760   6.689  10.623  13.944
82974SOL    HW150761   6.668  10.694  13.884
82974SOL    HW250762   6.701  10.546  13.888
82975SOL     OW50763  10.944  14.078   3.511
82975SOL    HW150764  10.872  14.085   3.448
82975SOL    HW250765  10.994  14.002   3.483
82976SOL     OW50766   2.176   8.995   9.600
82976SOL    HW150767   2.093   9.020   9.561
82976SOL    HW250768   2.192   8.906   9.568
82977SOL     OW50769   6.465   6.492   1.824
82977SOL    HW150770   6.431   6.452   1.904
82977SOL    HW250771   6.560   6.490   1.834
82978SOL     OW50772  11.388   1.100   7.644
82978SOL    HW150773  11.423   1.051   7.719
82978SOL    HW250774  11.316   1.046   7.612
82979SOL     OW50775   7.630   5.543   0.341
82979SOL    HW150776   7.667   5.554   0.253
82979SOL    HW250777   7.696   5.493   0.388
82980SOL     OW50778  12.108  13.960   1.286
82980SOL    HW150779  12.025  13.946   1.240
82980SOL    HW250780  12.175  13.928   1.225
82981SOL     OW50781   4.612   5.044  12.079
82981SOL    HW150782   4.611   5.077  12.169
82981SOL    HW250783   4.657   5.112  12.029
82982SOL     OW50784   3.801   5.352   6.263
82982SOL    HW150785   3.804   5.435   6.310
82982SOL    HW250786   3.708   5.341   6.239
82983SOL     OW50787  10.371   4.265   3.085
82983SOL    HW150788  10.288   4.218   3.091
82983SOL    HW250789  10.369   4.326   3.158
82984SOL     OW50790   1.188  13.189   5.659
82984SOL    HW150791   1.255  13.251   5.690
82984SOL    HW250792   1.177  13.211   5.567
82985SOL     OW50793  10.234   9.893   5.561
82985SOL    HW150794  10.147   9.853   5.565
82985SOL    HW250795  10.232   9.946   5.481
82986SOL     OW50796  10.670   0.358   5.551
82986SOL    HW150797  10.646   0.370   5.643
82986SOL    HW250798  10.765   0.362   5.550
82987SOL     OW50799  12.542   0.175  10.267
82987SOL    HW150800  12.623   0.216  10.296
82987SOL    HW250801  12.476   0.243  10.277
82988SOL     OW50802   2.931   5.626  12.517
82988SOL    HW150803   2.838   5.607  12.525
82988SOL    HW250804   2.964   5.624  12.607
82989SOL     OW50805   3.887   7.526   9.319
82989SOL    HW150806   3.932   7.600   9.359
82989SOL    HW250807   3.811   7.565   9.275
82990SOL     OW50808  11.876   3.527   6.589
82990SOL    HW150809  11.854   3.611   6.548
82990SOL    HW250810  11.797   3.475   6.582
82991SOL     OW50811  14.538   3.469   5.723
82991SOL    HW150812  14.538   3.558   5.688
82991SOL    HW250813  14.518   3.480   5.816
82992SOL     OW50814   2.400  12.166  11.607
82992SOL    HW150815   2.431  12.120  11.529
82992SOL    HW250816   2.314  12.199  11.582
82993SOL     OW50817   7.011   8.322   5.060
82993SOL    HW150818   7.071   8.247   5.058
82993SOL    HW250819   6.937   8.295   5.005
82994SOL     OW50820   0.615   8.726   2.470
82994SOL    HW150821   0.539   8.769   2.434
82994SOL    HW250822   0.580   8.648   2.513
82995SOL     OW50823   3.031   2.477  11.508
82995SOL    HW150824   3.010   2.435  11.425
82995SOL    HW250825   3.008   2.412  11.575
82996SOL     OW50826   6.901   8.163  13.237
82996SOL    HW150827   6.942   8.091  13.285
82996SOL    HW250828   6.973   8.206  13.191
82997SOL     OW50829   0.626   6.950   4.407
82997SOL    HW150830   0.613   7.045   4.413
82997SOL    HW250831   0.689   6.939   4.335
82998SOL     OW50832   8.927   1.944   6.285
82998SOL    HW150833   8.928   2.001   6.209
82998SOL    HW250834   8.991   1.983   6.345
82999SOL     OW50835   7.348   9.586   7.663
82999SOL    HW150836   7.439   9.592   7.691
82999SOL    HW250837   7.331   9.669   7.618
83000SOL     OW50838  13.851   9.067  13.081
83000SOL    HW150839  13.833   8.994  13.141
83000SOL    HW250840  13.895   9.132  13.134
83001SOL     OW50841  11.948   8.789   4.262
83001SOL    HW150842  11.953   8.802   4.357
83001SOL    HW250843  12.008   8.717   4.244
83002SOL     OW50844   1.112   7.531   4.583
83002SOL    HW150845   1.080   7.520   4.493
83002SOL    HW250846   1.044   7.490   4.637
83003SOL     OW50847   0.237  12.827   7.109
83003SOL    HW150848   0.289  12.753   7.143
83003SOL    HW250849   0.147  12.797   7.113
83004SOL     OW50850   0.303   7.573  12.927
83004SOL    HW150851   0.289   7.493  12.978
83004SOL    HW250852   0.241   7.565  12.854
83005SOL     OW50853   1.125   7.140  13.104
83005SOL    HW150854   1.129   7.215  13.163
83005SOL    HW250855   1.206   7.092  13.121
83006SOL     OW50856   7.159  11.820  10.409
83006SOL    HW150857   7.097  11.817  10.335
83006SOL    HW250858   7.235  11.771  10.377
83007SOL     OW50859   0.758   9.654   7.966
83007SOL    HW150860   0.671   9.614   7.961
83007SOL    HW250861   0.744   9.745   7.942
83008SOL     OW50862   8.811   3.470   3.654
83008SOL    HW150863   8.840   3.552   3.615
83008SOL    HW250864   8.882   3.408   3.634
83009SOL     OW50865  13.061   0.186   4.590
83009SOL    HW150866  13.022   0.190   4.678
83009SOL    HW250867  12.995   0.141   4.538
83010SOL     OW50868   6.621   0.739   0.565
83010SOL    HW150869   6.532   0.760   0.535
83010SOL    HW250870   6.616   0.744   0.660
83011SOL     OW50871   6.069  14.757  13.904
83011SOL    HW150872   6.116  14.689  13.951
83011SOL    HW250873   6.077  14.734  13.812
83012SOL     OW50874   9.339   9.830   2.927
83012SOL    HW150875   9.429   9.808   2.902
83012SOL    HW250876   9.300   9.865   2.847
83013SOL     OW50877   3.793   9.491  14.866
83013SOL    HW150878   3.878   9.523   0.017
83013SOL    HW250879   3.737   9.569  14.866
83014SOL     OW50880   9.291   0.729   9.929
83014SOL    HW150881   9.209   0.687   9.954
83014SOL    HW250882   9.351   0.710  10.002
83015SOL     OW50883  12.261   5.050  12.743
83015SOL    HW150884  12.219   4.984  12.799
83015SOL    HW250885  12.189   5.083  12.689
83016SOL     OW50886   5.393  10.326   0.330
83016SOL    HW150887   5.362  10.351   0.242
83016SOL    HW250888   5.319  10.277   0.367
83017SOL     OW50889   3.705   1.881   2.196
83017SOL    HW150890   3.672   1.921   2.276
83017SOL    HW250891   3.774   1.940   2.166
83018SOL     OW50892  10.040   1.689  13.865
83018SOL    HW150893   9.945   1.691  13.876
83018SOL    HW250894  10.065   1.780  13.853
83019SOL     OW50895   1.790   8.042   4.337
83019SOL    HW150896   1.785   8.134   4.366
83019SOL    HW250897   1.704   8.026   4.297
83020SOL     OW50898  13.918   6.629  10.533
83020SOL    HW150899  13.926   6.550  10.481
83020SOL    HW250900  13.840   6.673  10.498
83021SOL     OW50901  10.963   9.814   1.708
83021SOL    HW150902  10.970   9.766   1.625
83021SOL    HW250903  11.031   9.775   1.763
83022SOL     OW50904   7.605   8.788   4.040
83022SOL    HW150905   7.690   8.755   4.012
83022SOL    HW250906   7.592   8.868   3.989
83023SOL     OW50907   9.286   4.177   4.159
83023SOL    HW150908   9.289   4.227   4.242
83023SOL    HW250909   9.347   4.223   4.102
83024SOL     OW50910  13.714   7.001   6.462
83024SOL    HW150911  13.675   6.999   6.550
83024SOL    HW250912  13.665   6.935   6.413
83025SOL     OW50913  14.392   9.174   2.505
83025SOL    HW150914  14.376   9.127   2.423
83025SOL    HW250915  14.313   9.227   2.518
83026SOL     OW50916   2.378  12.641   9.722
83026SOL    HW150917   2.306  12.693   9.756
83026SOL    HW250918   2.456  12.694   9.739
83027SOL     OW50919   1.201   2.245  12.804
83027SOL    HW150920   1.134   2.307  12.832
83027SOL    HW250921   1.152   2.174  12.761
83028SOL     OW50922   1.313  11.714  11.742
83028SOL    HW150923   1.359  11.635  11.713
83028SOL    HW250924   1.230  11.712  11.696
83029SOL     OW50925   2.414   0.418   9.423
83029SOL    HW150926   2.368   0.442   9.342
83029SOL    HW250927   2.351   0.367   9.473
83030SOL     OW50928  12.839  10.152   1.891
83030SOL    HW150929  12.823  10.226   1.950
83030SOL    HW250930  12.809  10.075   1.940
83031SOL     OW50931  14.335   9.933   3.818
83031SOL    HW150932  14.293  10.017   3.836
83031SOL    HW250933  14.263   9.876   3.791
83032SOL     OW50934   2.580  13.218  12.242
83032SOL    HW150935   2.611  13.128  12.253
83032SOL    HW250936   2.539  13.219  12.156
83033SOL     OW50937   8.491   8.090   0.765
83033SOL    HW150938   8.417   8.150   0.752
83033SOL    HW250939   8.484   8.062   0.856
83034SOL     OW50940   9.814  14.571   4.558
83034SOL    HW150941   9.788  14.528   4.477
83034SOL    HW250942   9.869  14.644   4.529
83035SOL     OW50943   7.280  12.320  11.918
83035SOL    HW150944   7.354  12.260  11.918
83035SOL    HW250945   7.321  12.407  11.914
83036SOL     OW50946   0.920   4.768   8.562
83036SOL    HW150947   0.853   4.748   8.628
83036SOL    HW250948   0.871   4.790   8.483
83037SOL     OW50949   2.742  13.197  14.560
83037SOL    HW150950   2.825  13.163  14.593
83037SOL    HW250951   2.729  13.152  14.476
83038SOL     OW50952   6.260   1.082  13.424
83038SOL    HW150953   6.341   1.096  13.375
83038SOL    HW250954   6.251   0.987  13.428
83039SOL     OW50955  12.009   0.689   4.731
83039SOL    HW150956  12.007   0.621   4.797
83039SOL    HW250957  12.038   0.645   4.651
83040SOL     OW50958   6.526  10.654   0.775
83040SOL    HW150959   6.435  10.676   0.799
83040SOL    HW250960   6.570  10.739   0.769
83041SOL     OW50961  11.693   7.491  11.138
83041SOL    HW150962  11.598   7.493  11.144
83041SOL    HW250963  11.717   7.580  11.110
83042SOL     OW50964   4.771   9.527   8.802
83042SOL    HW150965   4.688   9.534   8.850
83042SOL    HW250966   4.838   9.546   8.868
83043SOL     OW50967   0.702   1.254   3.004
83043SOL    HW150968   0.657   1.229   2.923
83043SOL    HW250969   0.631   1.267   3.067
83044SOL     OW50970  14.841   1.753   3.852
83044SOL    HW150971  14.779   1.682   3.869
83044SOL    HW250972  14.802   1.830   3.893
83045SOL     OW50973   5.085   4.794  11.136
83045SOL    HW150974   5.003   4.759  11.102
83045SOL    HW250975   5.120   4.847  11.065
83046SOL     OW50976  14.146  13.825   5.236
83046SOL    HW150977  14.180  13.890   5.298
83046SOL    HW250978  14.173  13.858   5.150
83047SOL     OW50979  10.701   8.704  11.720
83047SOL    HW150980  10.642   8.636  11.753
83047SOL    HW250981  10.776   8.656  11.686
83048SOL     OW50982   9.419  12.033   1.542
83048SOL    HW150983   9.440  11.984   1.622
83048SOL    HW250984   9.336  11.996   1.513
83049SOL     OW50985  12.021   8.556   3.295
83049SOL    HW150986  12.046   8.601   3.215
83049SOL    HW250987  12.097   8.502   3.316
83050SOL     OW50988   4.187   2.423  12.231
83050SOL    HW150989   4.209   2.465  12.148
83050SOL    HW250990   4.271   2.413  12.276
83051SOL     OW50991  11.451   9.336  12.624
83051SOL    HW150992  11.363   9.360  12.654
83051SOL    HW250993  11.469   9.253  12.668
83052SOL     OW50994   9.816  14.547   4.989
83052SOL    HW150995   9.886  14.486   4.967
83052SOL    HW250996   9.829  14.620   4.929
83053SOL     OW50997   0.517  13.735   7.055
83053SOL    HW150998   0.564  13.669   7.004
83053SOL    HW250999   0.504  13.695   7.141
83054SOL     OW51000  14.335   4.186  12.926
83054SOL    HW151001  14.380   4.109  12.960
83054SOL    HW251002  14.310   4.163  12.837
83055SOL     OW51003  12.578  13.042  13.374
83055SOL    HW151004  12.625  13.000  13.446
83055SOL    HW251005  12.593  13.136  13.387
83056SOL     OW51006   1.121   3.541   8.003
83056SOL    HW151007   1.189   3.515   7.940
83056SOL    HW251008   1.134   3.483   8.078
83057SOL     OW51009  10.680   6.276  11.331
83057SOL    HW151010  10.751   6.323  11.288
83057SOL    HW251011  10.618   6.344  11.357
83058SOL     OW51012   6.450  14.743   1.649
83058SOL    HW151013   6.380  14.702   1.598
83058SOL    HW251014   6.480  14.674   1.708
83059SOL     OW51015   4.616  10.453   4.165
83059SOL    HW151016   4.653  10.446   4.077
83059SOL    HW251017   4.596  10.545   4.176
83060SOL     OW51018   5.080   7.867   9.464
83060SOL    HW151019   5.009   7.823   9.511
83060SOL    HW251020   5.122   7.797   9.414
83061SOL     OW51021   1.244   3.218   3.667
83061SOL    HW151022   1.200   3.296   3.634
83061SOL    HW251023   1.181   3.177   3.726
83062SOL     OW51024  12.531  14.244   6.923
83062SOL    HW151025  12.436  14.238   6.916
83062SOL    HW251026  12.560  14.153   6.923
83063SOL     OW51027   5.485   3.098   8.371
83063SOL    HW151028   5.503   3.021   8.425
83063SOL    HW251029   5.389   3.101   8.366
83064SOL     OW51030   1.118   8.693   7.777
83064SOL    HW151031   1.141   8.733   7.860
83064SOL    HW251032   1.055   8.753   7.738
83065SOL     OW51033  10.021   3.166   1.585
83065SOL    HW151034   9.978   3.165   1.499
83065SOL    HW251035  10.030   3.073   1.608
83066SOL     OW51036   2.597  12.920   6.115
83066SOL    HW151037   2.571  12.834   6.149
83066SOL    HW251038   2.614  12.972   6.193
83067SOL     OW51039   2.824  13.360   9.851
83067SOL    HW151040   2.739  13.321   9.869
83067SOL    HW251041   2.815  13.452   9.874
83068SOL     OW51042  10.665   2.105   8.285
83068SOL    HW151043  10.722   2.182   8.282
83068SOL    HW251044  10.638   2.092   8.194
83069SOL     OW51045  14.755  12.520   1.716
83069SOL    HW151046  14.793  12.598   1.757
83069SOL    HW251047  14.811  12.448   1.744
83070SOL     OW51048   0.313  11.276  11.440
83070SOL    HW151049   0.254  11.231  11.380
83070SOL    HW251050   0.379  11.316  11.384
83071SOL     OW51051  11.140   0.861   6.917
83071SOL    HW151052  11.233   0.853   6.938
83071SOL    HW251053  11.101   0.781   6.953
83072SOL     OW51054  12.787  14.587   9.761
83072SOL    HW151055  12.810  14.494   9.758
83072SOL    HW251056  12.840  14.622   9.833
83073SOL     OW51057  10.269   2.994   6.250
83073SOL    HW151058  10.239   2.910   6.285
83073SOL    HW251059  10.212   3.012   6.176
83074SOL     OW51060   9.558   3.511  13.371
83074SOL    HW151061   9.587   3.567  13.443
83074SOL    HW251062   9.464   3.502  13.383
83075SOL     OW51063   5.453   4.856  11.751
83075SOL    HW151064   5.490   4.769  11.733
83075SOL    HW251065   5.510   4.917  11.704
83076SOL     OW51066   7.270  12.299   2.566
83076SOL    HW151067   7.223  12.246   2.502
83076SOL    HW251068   7.361  12.295   2.538
83077SOL     OW51069   1.921   8.310   5.609
83077SOL    HW151070   1.885   8.394   5.579
83077SOL    HW251071   1.991   8.334   5.669
83078SOL     OW51072   0.678  11.476   1.442
83078SOL    HW151073   0.651  11.535   1.513
83078SOL    HW251074   0.703  11.395   1.487
83079SOL     OW51075  13.997   3.630  14.696
83079SOL    HW151076  14.012   3.685  14.772
83079SOL    HW251077  14.076   3.577  14.688
83080SOL     OW51078   5.158   7.200  11.447
83080SOL    HW151079   5.130   7.208  11.538
83080SOL    HW251080   5.084   7.232  11.396
83081SOL     OW51081  13.852  11.741   9.492
83081SOL    HW151082  13.829  11.652   9.519
83081SOL    HW251083  13.768  11.785   9.478
83082SOL     OW51084   2.238   6.270  12.719
83082SOL    HW151085   2.248   6.176  12.735
83082SOL    HW251086   2.217   6.276  12.626
83083SOL     OW51087  10.417   1.534   4.917
83083SOL    HW151088  10.504   1.573   4.931
83083SOL    HW251089  10.365   1.605   4.879
83084SOL     OW51090   2.954   9.924   7.809
83084SOL    HW151091   2.905   9.842   7.821
83084SOL    HW251092   2.972   9.955   7.897
83085SOL     OW51093   3.313   3.294  12.763
83085SOL    HW151094   3.279   3.370  12.715
83085SOL    HW251095   3.253   3.223  12.741
83086SOL     OW51096   1.889   7.854  13.187
83086SOL    HW151097   1.863   7.764  13.205
83086SOL    HW251098   1.982   7.856  13.207
83087SOL     OW51099   3.883   6.910  12.071
83087SOL    HW151100   3.838   6.877  11.993
83087SOL    HW251101   3.976   6.904  12.050
83088SOL     OW51102   1.958  14.545   3.940
83088SOL    HW151103   1.962  14.554   3.845
83088SOL    HW251104   1.941  14.633   3.972
83089SOL     OW51105  11.756   7.186   3.505
83089SOL    HW151106  11.756   7.209   3.412
83089SOL    HW251107  11.824   7.120   3.514
83090SOL     OW51108   2.821   3.225   4.357
83090SOL    HW151109   2.894   3.184   4.404
83090SOL    HW251110   2.807   3.309   4.401
83091SOL     OW51111   8.214   1.741   2.344
83091SOL    HW151112   8.216   1.706   2.255
83091SOL    HW251113   8.138   1.799   2.346
83092SOL     OW51114  13.900  13.876   2.273
83092SOL    HW151115  13.850  13.946   2.231
83092SOL    HW251116  13.927  13.914   2.357
83093SOL     OW51117   9.430  13.115   7.423
83093SOL    HW151118   9.355  13.058   7.409
83093SOL    HW251119   9.397  13.203   7.401
83094SOL     OW51120   2.141  10.090   5.484
83094SOL    HW151121   2.131  10.012   5.430
83094SOL    HW251122   2.195  10.061   5.558
83095SOL     OW51123   3.711   0.017  11.676
83095SOL    HW151124   3.769   0.023  11.600
83095SOL    HW251125   3.653   0.092  11.667
83096SOL     OW51126  11.339   2.816   3.017
83096SOL    HW151127  11.265   2.801   2.957
83096SOL    HW251128  11.415   2.780   2.970
83097SOL     OW51129  12.055   1.962   0.692
83097SOL    HW151130  12.133   1.930   0.646
83097SOL    HW251131  11.993   1.983   0.622
83098SOL     OW51132   4.210  14.138   2.547
83098SOL    HW151133   4.260  14.073   2.595
83098SOL    HW251134   4.237  14.222   2.584
83099SOL     OW51135   0.237   7.480  13.822
83099SOL    HW151136   0.145   7.463  13.842
83099SOL    HW251137   0.253   7.430  13.741
83100SOL     OW51138   9.632   7.930  14.501
83100SOL    HW151139   9.633   7.866  14.430
83100SOL    HW251140   9.546   7.972  14.495
83101SOL     OW51141   4.981   0.232   1.994
83101SOL    HW151142   5.004   0.142   1.971
83101SOL    HW251143   4.887   0.238   1.977
83102SOL     OW51144   1.812   4.211   4.677
83102SOL    HW151145   1.791   4.264   4.600
83102SOL    HW251146   1.773   4.125   4.658
83103SOL     OW51147   5.019   3.674   5.315
83103SOL    HW151148   4.992   3.748   5.261
83103SOL    HW251149   4.937   3.632   5.342
83104SOL     OW51150   7.486  11.770  11.469
83104SOL    HW151151   7.402  11.803  11.438
83104SOL    HW251152   7.505  11.822  11.547
83105SOL     OW51153   9.430   6.993   2.030
83105SOL    HW151154   9.354   7.024   1.980
83105SOL    HW251155   9.419   6.898   2.033
83106SOL     OW51156   1.820   5.597   8.852
83106SOL    HW151157   1.889   5.608   8.787
83106SOL    HW251158   1.755   5.663   8.829
83107SOL     OW51159   7.205  11.605   8.179
83107SOL    HW151160   7.138  11.548   8.141
83107SOL    HW251161   7.190  11.600   8.274
83108SOL     OW51162  13.152   8.310   1.580
83108SOL    HW151163  13.104   8.392   1.581
83108SOL    HW251164  13.084   8.242   1.578
83109SOL     OW51165   5.716  10.503   6.626
83109SOL    HW151166   5.747  10.591   6.647
83109SOL    HW251167   5.654  10.483   6.696
83110SOL     OW51168   8.295  11.974  11.117
83110SOL    HW151169   8.242  11.958  11.039
83110SOL    HW251170   8.234  11.960  11.190
83111SOL     OW51171  10.264   5.587  10.873
83111SOL    HW151172  10.308   5.669  10.893
83111SOL    HW251173  10.182   5.612  10.832
83112SOL     OW51174   7.086  12.632   7.498
83112SOL    HW151175   7.116  12.626   7.589
83112SOL    HW251176   7.073  12.541   7.472
83113SOL     OW51177   8.027   9.969  11.854
83113SOL    HW151178   7.970  10.036  11.890
83113SOL    HW251179   8.090   9.951  11.924
83114SOL     OW51180   2.477   5.289   2.315
83114SOL    HW151181   2.473   5.355   2.383
83114SOL    HW251182   2.564   5.298   2.276
83115SOL     OW51183  14.055   7.093   4.108
83115SOL    HW151184  14.095   7.084   4.195
83115SOL    HW251185  14.005   7.175   4.113
83116SOL     OW51186  10.169  12.994   0.692
83116SOL    HW151187  10.214  12.948   0.621
83116SOL    HW251188  10.238  13.009   0.758
83117SOL     OW51189   4.390   0.644   1.833
83117SOL    HW151190   4.447   0.639   1.756
83117SOL    HW251191   4.325   0.710   1.810
83118SOL     OW51192   7.543   2.047   0.398
83118SOL    HW151193   7.615   2.039   0.460
83118SOL    HW251194   7.503   1.960   0.395
83119SOL     OW51195   5.291   3.890   5.348
83119SOL    HW151196   5.301   3.985   5.344
83119SOL    HW251197   5.358   3.856   5.288
83120SOL     OW51198   1.864   2.277   9.317
83120SOL    HW151199   1.893   2.195   9.357
83120SOL    HW251200   1.888   2.269   9.225
83121SOL     OW51201  13.683   0.226  11.960
83121SOL    HW151202  13.740   0.159  11.921
83121SOL    HW251203  13.710   0.230  12.052
83122SOL     OW51204  13.750  11.392   7.183
83122SOL    HW151205  13.656  11.413   7.181
83122SOL    HW251206  13.768  11.374   7.275
83123SOL     OW51207   2.350   8.918   2.677
83123SOL    HW151208   2.291   8.845   2.694
83123SOL    HW251209   2.292   8.994   2.668
83124SOL     OW51210   9.606  10.798  12.499
83124SOL    HW151211   9.621  10.713  12.459
83124SOL    HW251212   9.593  10.858  12.426
83125SOL     OW51213  11.586   2.367   9.124
83125SOL    HW151214  11.518   2.345   9.188
83125SOL    HW251215  11.556   2.326   9.042
83126SOL     OW51216   5.058   9.832   8.652
83126SOL    HW151217   5.045   9.850   8.559
83126SOL    HW251218   4.970   9.833   8.689
83127SOL     OW51219  13.735   1.087   1.799
83127SOL    HW151220  13.692   1.111   1.716
83127SOL    HW251221  13.729   0.992   1.803
83128SOL     OW51222   8.302  11.888   6.874
83128SOL    HW151223   8.298  11.800   6.836
83128SOL    HW251224   8.216  11.901   6.913
83129SOL     OW51225   9.309   4.907   4.847
83129SOL    HW151226   9.259   4.928   4.926
83129SOL    HW251227   9.276   4.967   4.781
83130SOL     OW51228   9.970   2.345   0.588
83130SOL    HW151229   9.961   2.441   0.594
83130SOL    HW251230   9.937   2.323   0.501
83131SOL     OW51231  12.980  14.345  14.178
83131SOL    HW151232  13.074  14.342  14.195
83131SOL    HW251233  12.971  14.409  14.107
83132SOL     OW51234   9.932   7.388  10.501
83132SOL    HW151235   9.971   7.306  10.528
83132SOL    HW251236   9.855   7.399  10.558
83133SOL     OW51237   4.885   5.940   6.519
83133SOL    HW151238   4.949   5.881   6.559
83133SOL    HW251239   4.807   5.931   6.573
83134SOL     OW51240  11.878   5.902   4.654
83134SOL    HW151241  11.866   5.938   4.566
83134SOL    HW251242  11.963   5.859   4.650
83135SOL     OW51243   3.862  12.708   2.650
83135SOL    HW151244   3.799  12.703   2.578
83135SOL    HW251245   3.927  12.772   2.622
83136SOL     OW51246   0.362   6.879   9.017
83136SOL    HW151247   0.308   6.852   9.091
83136SOL    HW251248   0.311   6.854   8.940
83137SOL     OW51249   6.279   2.904   3.173
83137SOL    HW151250   6.271   2.981   3.230
83137SOL    HW251251   6.250   2.935   3.087
83138SOL     OW51252  14.202   4.406   5.081
83138SOL    HW151253  14.283   4.355   5.077
83138SOL    HW251254  14.143   4.353   5.135
83139SOL     OW51255  14.158   5.149   1.822
83139SOL    HW151256  14.154   5.056   1.845
83139SOL    HW251257  14.242   5.159   1.776
83140SOL     OW51258  13.701  10.519   0.413
83140SOL    HW151259  13.614  10.481   0.426
83140SOL    HW251260  13.697  10.604   0.457
83141SOL     OW51261   9.981   3.077   3.083
83141SOL    HW151262   9.921   3.145   3.112
83141SOL    HW251263  10.067   3.107   3.111
83142SOL     OW51264  13.910   4.033   8.743
83142SOL    HW151265  13.986   3.997   8.788
83142SOL    HW251266  13.915   4.127   8.758
83143SOL     OW51267   5.967  12.577  13.848
83143SOL    HW151268   5.994  12.485  13.846
83143SOL    HW251269   5.903  12.581  13.920
83144SOL     OW51270  10.837  14.480  10.040
83144SOL    HW151271  10.768  14.508  10.100
83144SOL    HW251272  10.815  14.388  10.020
83145SOL     OW51273   4.044   5.890   4.312
83145SOL    HW151274   4.084   5.813   4.270
83145SOL    HW251275   4.050   5.872   4.406
83146SOL     OW51276   7.668  14.395   6.291
83146SOL    HW151277   7.676  14.302   6.268
83146SOL    HW251278   7.638  14.394   6.382
83147SOL     OW51279   6.225   8.678  12.681
83147SOL    HW151280   6.308   8.709  12.646
83147SOL    HW251281   6.193   8.751  12.734
83148SOL     OW51282  12.643  12.114   5.300
83148SOL    HW151283  12.727  12.136   5.259
83148SOL    HW251284  12.580  12.172   5.257
83149SOL     OW51285  14.548   3.897   2.035
83149SOL    HW151286  14.638   3.883   2.006
83149SOL    HW251287  14.556   3.955   2.111
83150SOL     OW51288   1.959   1.171   9.803
83150SOL    HW151289   1.873   1.152   9.841
83150SOL    HW251290   1.950   1.148   9.710
83151SOL     OW51291  14.344   0.300  14.404
83151SOL    HW151292  14.434   0.310  14.373
83151SOL    HW251293  14.303   0.239  14.342
83152SOL     OW51294  13.372   5.964   1.668
83152SOL    HW151295  13.371   6.051   1.709
83152SOL    HW251296  13.449   5.921   1.705
83153SOL     OW51297  12.759  12.283   8.782
83153SOL    HW151298  12.792  12.198   8.754
83153SOL    HW251299  12.822  12.346   8.747
83154SOL     OW51300  13.998  11.907  12.365
83154SOL    HW151301  13.963  11.947  12.285
83154SOL    HW251302  14.063  11.969  12.397
83155SOL     OW51303   3.515   7.182   7.590
83155SOL    HW151304   3.478   7.258   7.635
83155SOL    HW251305   3.574   7.219   7.524
83156SOL     OW51306  11.916   2.755   6.182
83156SOL    HW151307  12.002   2.793   6.167
83156SOL    HW251308  11.868   2.772   6.101
83157SOL     OW51309   8.989  13.909  12.693
83157SOL    HW151310   8.903  13.872  12.710
83157SOL    HW251311   9.001  13.902  12.599
83158SOL     OW51312   8.391  11.326  13.354
83158SOL    HW151313   8.486  11.323  13.346
83158SOL    HW251314   8.368  11.417  13.333
83159SOL     OW51315  12.478   0.620   3.475
83159SOL    HW151316  12.492   0.562   3.401
83159SOL    HW251317  12.539   0.589   3.542
83160SOL     OW51318   5.452   1.714   6.086
83160SOL    HW151319   5.494   1.697   6.171
83160SOL    HW251320   5.513   1.769   6.039
83161SOL     OW51321   9.336  11.749  11.351
83161SOL    HW151322   9.430  11.765  11.353
83161SOL    HW251323   9.313  11.757  11.258
83162SOL     OW51324   7.939   3.876   4.756
83162SOL    HW151325   7.959   3.964   4.789
83162SOL    HW251326   7.936   3.885   4.661
83163SOL     OW51327  13.743   1.802  10.898
83163SOL    HW151328  13.809   1.739  10.926
83163SOL    HW251329  13.665   1.780  10.950
83164SOL     OW51330   4.935   9.311   8.440
83164SOL    HW151331   4.919   9.394   8.485
83164SOL    HW251332   5.030   9.300   8.441
83165SOL     OW51333   9.524  14.823   0.376
83165SOL    HW151334   9.437  14.791   0.353
83165SOL    HW251335   9.583  14.778   0.316
83166SOL     OW51336   2.866   1.605   9.690
83166SOL    HW151337   2.879   1.668   9.761
83166SOL    HW251338   2.879   1.656   9.610
83167SOL     OW51339   7.454   9.192   0.207
83167SOL    HW151340   7.523   9.199   0.273
83167SOL    HW251341   7.481   9.120   0.151
83168SOL     OW51342   5.079  14.533   4.481
83168SOL    HW151343   5.097  14.626   4.473
83168SOL    HW251344   5.165  14.492   4.488
83169SOL     OW51345  12.292   6.417  12.739
83169SOL    HW151346  12.202   6.394  12.718
83169SOL    HW251347  12.289   6.445  12.831
83170SOL     OW51348   9.819   5.716   7.715
83170SOL    HW151349   9.896   5.737   7.663
83170SOL    HW251350   9.745   5.750   7.663
83171SOL     OW51351   2.462   0.215   3.418
83171SOL    HW151352   2.380   0.206   3.370
83171SOL    HW251353   2.526   0.239   3.351
83172SOL     OW51354  10.774   8.480   6.487
83172SOL    HW151355  10.720   8.502   6.411
83172SOL    HW251356  10.730   8.404   6.526
83173SOL     OW51357  11.304   7.734   7.955
83173SOL    HW151358  11.304   7.765   7.865
83173SOL    HW251359  11.225   7.772   7.994
83174SOL     OW51360  12.712   8.984   4.124
83174SOL    HW151361  12.673   8.948   4.204
83174SOL    HW251362  12.767   9.057   4.155
83175SOL     OW51363   6.049  11.235  13.952
83175SOL    HW151364   6.048  11.327  13.981
83175SOL    HW251365   5.997  11.234  13.872
83176SOL     OW51366   3.099   5.996   6.682
83176SOL    HW151367   3.167   5.990   6.750
83176SOL    HW251368   3.134   6.058   6.619
83177SOL     OW51369   3.617   4.785  14.474
83177SOL    HW151370   3.663   4.739  14.544
83177SOL    HW251371   3.603   4.873  14.507
83178SOL     OW51372   3.848  13.280  13.605
83178SOL    HW151373   3.792  13.278  13.683
83178SOL    HW251374   3.852  13.373  13.581
83179SOL     OW51375   0.445  12.016   6.495
83179SOL    HW151376   0.389  12.033   6.571
83179SOL    HW251377   0.393  11.960   6.438
83180SOL     OW51378  14.041   2.559   4.032
83180SOL    HW151379  14.119   2.514   3.999
83180SOL    HW251380  13.970   2.497   4.019
83181SOL     OW51381   2.204  10.355   5.438
83181SOL    HW151382   2.226  10.367   5.346
83181SOL    HW251383   2.198  10.261   5.450
83182SOL     OW51384  13.257  13.222  11.345
83182SOL    HW151385  13.219  13.253  11.262
83182SOL    HW251386  13.331  13.168  11.319
83183SOL     OW51387  11.601   3.718   6.115
83183SOL    HW151388  11.634   3.646   6.169
83183SOL    HW251389  11.519   3.744   6.157
83184SOL     OW51390  12.530   2.580  11.657
83184SOL    HW151391  12.508   2.673  11.659
83184SOL    HW251392  12.518   2.554  11.566
83185SOL     OW51393   4.785   6.661   9.962
83185SOL    HW151394   4.706   6.710   9.937
83185SOL    HW251395   4.856   6.709   9.920
83186SOL     OW51396  10.032   5.022   8.130
83186SOL    HW151397  10.086   4.980   8.197
83186SOL    HW251398   9.942   5.004   8.158
83187SOL     OW51399   2.030  14.781   9.609
83187SOL    HW151400   2.096  14.711   9.598
83187SOL    HW251401   2.082  14.862   9.609
83188SOL     OW51402   4.262   1.157   0.096
83188SOL    HW151403   4.319   1.207   0.038
83188SOL    HW251404   4.187   1.214   0.112
83189SOL     OW51405   0.913   2.665   1.626
83189SOL    HW151406   0.882   2.729   1.562
83189SOL    HW251407   0.834   2.627   1.663
83190SOL     OW51408   4.073   4.188   9.915
83190SOL    HW151409   4.056   4.142   9.833
83190SOL    HW251410   4.109   4.273   9.888
83191SOL     OW51411  14.446  11.101   3.128
83191SOL    HW151412  14.504  11.098   3.052
83191SOL    HW251413  14.420  11.010   3.141
83192SOL     OW51414   9.757   3.701   5.929
83192SOL    HW151415   9.787   3.771   5.987
83192SOL    HW251416   9.731   3.631   5.988
83193SOL     OW51417  12.994   0.688   2.364
83193SOL    HW151418  12.986   0.611   2.308
83193SOL    HW251419  12.929   0.749   2.331
83194SOL     OW51420   4.460   1.230   3.380
83194SOL    HW151421   4.428   1.313   3.416
83194SOL    HW251422   4.388   1.168   3.397
83195SOL     OW51423  11.040   6.911  11.737
83195SOL    HW151424  10.993   6.985  11.778
83195SOL    HW251425  10.972   6.845  11.724
83196SOL     OW51426   3.589  10.400  11.244
83196SOL    HW151427   3.516  10.393  11.183
83196SOL    HW251428   3.659  10.349  11.203
83197SOL     OW51429   3.485  13.776   2.040
83197SOL    HW151430   3.407  13.818   2.004
83197SOL    HW251431   3.460  13.684   2.051
83198SOL     OW51432  13.748  13.806  12.042
83198SOL    HW151433  13.801  13.726  12.035
83198SOL    HW251434  13.776  13.846  12.124
83199SOL     OW51435  10.095  13.313   9.613
83199SOL    HW151436  10.185  13.280   9.611
83199SOL    HW251437  10.041  13.235   9.629
83200SOL     OW51438   2.361   1.938  12.268
83200SOL    HW151439   2.331   1.974  12.351
83200SOL    HW251440   2.397   2.013  12.221
83201SOL     OW51441  10.087   4.649   7.676
83201SOL    HW151442   9.993   4.660   7.696
83201SOL    HW251443  10.111   4.727   7.627
83202SOL     OW51444  10.914  12.018   1.263
83202SOL    HW151445  10.853  12.090   1.249
83202SOL    HW251446  10.923  11.976   1.178
83203SOL     OW51447   8.364   5.167   9.979
83203SOL    HW151448   8.444   5.161  10.030
83203SOL    HW251449   8.361   5.257   9.949
83204SOL     OW51450   5.406   6.135   3.107
83204SOL    HW151451   5.414   6.054   3.156
83204SOL    HW251452   5.496   6.170   3.104
83205SOL     OW51453   8.740  13.644   0.589
83205SOL    HW151454   8.701  13.646   0.501
83205SOL    HW251455   8.762  13.736   0.607
83206SOL     OW51456   4.824  14.428   4.952
83206SOL    HW151457   4.837  14.496   4.886
83206SOL    HW251458   4.729  14.420   4.961
83207SOL     OW51459  14.174  14.350   3.298
83207SOL    HW151460  14.184  14.434   3.254
83207SOL    HW251461  14.263  14.324   3.322
83208SOL     OW51462   7.475  14.200   3.835
83208SOL    HW151463   7.413  14.204   3.762
83208SOL    HW251464   7.499  14.108   3.842
83209SOL     OW51465   2.394   2.450   4.246
83209SOL    HW151466   2.325   2.384   4.250
83209SOL    HW251467   2.441   2.430   4.165
83210SOL     OW51468  12.379   0.188   7.242
83210SOL    HW151469  12.361   0.097   7.219
83210SOL    HW251470  12.475   0.193   7.247
83211SOL     OW51471   8.060   3.737   7.066
83211SOL    HW151472   8.108   3.814   7.039
83211SOL    HW251473   7.999   3.719   6.994
83212SOL     OW51474   0.709   7.394  14.193
83212SOL    HW151475   0.730   7.353  14.109
83212SOL    HW251476   0.677   7.481  14.169
83213SOL     OW51477   3.655   8.637   6.729
83213SOL    HW151478   3.710   8.643   6.806
83213SOL    HW251479   3.566   8.646   6.762
83214SOL     OW51480   8.835  13.414  12.062
83214SOL    HW151481   8.930  13.425  12.058
83214SOL    HW251482   8.821  13.320  12.045
83215SOL     OW51483   0.476   8.920   8.950
83215SOL    HW151484   0.540   8.984   8.981
83215SOL    HW251485   0.500   8.838   8.994
83216SOL     OW51486  11.863  14.866   7.862
83216SOL    HW151487  11.857   0.061   7.921
83216SOL    HW251488  11.787  14.812   7.884
83217SOL     OW51489  13.447   7.268  11.133
83217SOL    HW151490  13.479   7.178  11.134
83217SOL    HW251491  13.422   7.286  11.223
83218SOL     OW51492  14.446   6.650  14.135
83218SOL    HW151493  14.422   6.743  14.133
83218SOL    HW251494  14.484   6.633  14.048
83219SOL     OW51495  10.133   0.431   3.725
83219SOL    HW151496  10.181   0.469   3.652
83219SOL    HW251497  10.073   0.501   3.753
83220SOL     OW51498  12.272   2.783   5.120
83220SOL    HW151499  12.270   2.711   5.183
83220SOL    HW251500  12.183   2.819   5.122
83221SOL     OW51501  11.777   0.571   0.071
83221SOL    HW151502  11.869   0.591   0.084
83221SOL    HW251503  11.733   0.613   0.145
83222SOL     OW51504   3.349  10.167   9.190
83222SOL    HW151505   3.312  10.254   9.201
83222SOL    HW251506   3.444  10.181   9.189
83223SOL     OW51507  11.943   8.385  10.561
83223SOL    HW151508  11.848   8.390  10.573
83223SOL    HW251509  11.960   8.291  10.548
83224SOL     OW51510   0.663  10.147   4.145
83224SOL    HW151511   0.621  10.064   4.169
83224SOL    HW251512   0.757  10.128   4.148
83225SOL     OW51513   1.636   3.633   6.570
83225SOL    HW151514   1.571   3.569   6.596
83225SOL    HW251515   1.606   3.666   6.486
83226SOL     OW51516   9.992   5.418   9.211
83226SOL    HW151517   9.975   5.410   9.117
83226SOL    HW251518   9.958   5.505   9.234
83227SOL     OW51519  13.166   3.039   7.191
83227SOL    HW151520  13.254   3.077   7.188
83227SOL    HW251521  13.127   3.077   7.270
83228SOL     OW51522  10.058   7.909   4.787
83228SOL    HW151523   9.996   7.981   4.780
83228SOL    HW251524  10.109   7.915   4.706
83229SOL     OW51525   1.836  10.764  12.758
83229SOL    HW151526   1.757  10.742  12.707
83229SOL    HW251527   1.846  10.691  12.819
83230SOL     OW51528   1.478   2.847  13.892
83230SOL    HW151529   1.467   2.756  13.863
83230SOL    HW251530   1.547   2.882  13.836
83231SOL     OW51531   0.572   0.770   5.852
83231SOL    HW151532   0.612   0.760   5.938
83231SOL    HW251533   0.492   0.718   5.856
83232SOL     OW51534   3.485  12.341   5.162
83232SOL    HW151535   3.397  12.370   5.187
83232SOL    HW251536   3.530  12.328   5.246
83233SOL     OW51537   0.728  10.703   4.622
83233SOL    HW151538   0.645  10.694   4.575
83233SOL    HW251539   0.724  10.792   4.658
83234SOL     OW51540  14.543   3.825  11.446
83234SOL    HW151541  14.504   3.909  11.469
83234SOL    HW251542  14.542   3.824  11.350
83235SOL     OW51543  13.646   0.489   7.789
83235SOL    HW151544  13.601   0.405   7.784
83235SOL    HW251545  13.723   0.472   7.844
83236SOL     OW51546   7.857  13.874   9.658
83236SOL    HW151547   7.803  13.910   9.728
83236SOL    HW251548   7.931  13.934   9.651
83237SOL     OW51549  11.721  11.573   0.683
83237SOL    HW151550  11.641  11.537   0.643
83237SOL    HW251551  11.724  11.663   0.653
83238SOL     OW51552   1.215   4.790   3.507
83238SOL    HW151553   1.173   4.707   3.481
83238SOL    HW251554   1.293   4.795   3.451
83239SOL     OW51555   7.583  13.691   7.816
83239SOL    HW151556   7.531  13.611   7.802
83239SOL    HW251557   7.673  13.660   7.824
83240SOL     OW51558   3.608   4.390   3.241
83240SOL    HW151559   3.610   4.419   3.149
83240SOL    HW251560   3.697   4.360   3.257
83241SOL     OW51561  13.417   0.277   4.869
83241SOL    HW151562  13.348   0.341   4.887
83241SOL    HW251563  13.370   0.198   4.842
83242SOL     OW51564   5.599  11.228   4.958
83242SOL    HW151565   5.531  11.193   5.015
83242SOL    HW251566   5.552  11.281   4.893
83243SOL     OW51567   3.447  11.740   0.496
83243SOL    HW151568   3.412  11.656   0.466
83243SOL    HW251569   3.427  11.742   0.590
83244SOL     OW51570  14.571   2.709   2.981
83244SOL    HW151571  14.594   2.767   2.908
83244SOL    HW251572  14.631   2.635   2.972
83245SOL     OW51573   9.425   5.072   8.371
83245SOL    HW151574   9.494   5.074   8.438
83245SOL    HW251575   9.419   5.163   8.341
83246SOL     OW51576  13.181   6.803   6.498
83246SOL    HW151577  13.160   6.798   6.405
83246SOL    HW251578  13.245   6.874   6.504
83247SOL     OW51579   6.615   1.284   1.482
83247SOL    HW151580   6.568   1.209   1.518
83247SOL    HW251581   6.689   1.297   1.541
83248SOL     OW51582   2.286   2.957   3.543
83248SOL    HW151583   2.326   2.974   3.458
83248SOL    HW251584   2.308   2.866   3.563
83249SOL     OW51585  12.146   0.575  10.923
83249SOL    HW151586  12.108   0.642  10.866
83249SOL    HW251587  12.163   0.501  10.865
83250SOL     OW51588  12.598   8.046  13.062
83250SOL    HW151589  12.668   8.084  13.010
83250SOL    HW251590  12.554   8.121  13.102
83251SOL     OW51591   6.584  10.403   0.670
83251SOL    HW151592   6.594  10.433   0.580
83251SOL    HW251593   6.558  10.481   0.719
83252SOL     OW51594  11.068  11.137   7.954
83252SOL    HW151595  11.105  11.050   7.965
83252SOL    HW251596  10.989  11.138   8.008
83253SOL     OW51597  11.130  12.478   2.316
83253SOL    HW151598  11.131  12.489   2.221
83253SOL    HW251599  11.161  12.562   2.351
83254SOL     OW51600   8.617  13.339   2.015
83254SOL    HW151601   8.638  13.371   2.103
83254SOL    HW251602   8.647  13.249   2.014
83255SOL     OW51603   7.131   9.236  12.688
83255SOL    HW151604   7.114   9.150  12.726
83255SOL    HW251605   7.105   9.299  12.756
83256SOL     OW51606  12.470  11.145   4.527
83256SOL    HW151607  12.443  11.234   4.506
83256SOL    HW251608  12.466  11.140   4.622
83257SOL     OW51609  10.699  11.232  14.811
83257SOL    HW151610  10.691  11.137  14.805
83257SOL    HW251611  10.700  11.250   0.026
83258SOL     OW51612   6.465  12.997   8.045
83258SOL    HW151613   6.383  12.997   7.995
83258SOL    HW251614   6.451  12.932   8.114
83259SOL     OW51615  13.667   4.735  13.907
83259SOL    HW151616  13.619   4.799  13.855
83259SOL    HW251617  13.749   4.722  13.859
83260SOL     OW51618  11.376  13.717  10.142
83260SOL    HW151619  11.356  13.664  10.218
83260SOL    HW251620  11.291  13.750  10.112
83261SOL     OW51621   4.563   6.557   0.067
83261SOL    HW151622   4.567   6.528   0.158
83261SOL    HW251623   4.624   6.498   0.021
83262SOL     OW51624   1.842  14.332   4.951
83262SOL    HW151625   1.862  14.278   5.027
83262SOL    HW251626   1.878  14.284   4.877
83263SOL     OW51627   2.912   1.572  12.668
83263SOL    HW151628   2.838   1.527  12.710
83263SOL    HW251629   2.873   1.647  12.624
83264SOL     OW51630   9.634   9.542   0.610
83264SOL    HW151631   9.549   9.544   0.654
83264SOL    HW251632   9.616   9.576   0.523
83265SOL     OW51633  14.727   5.457   3.587
83265SOL    HW151634  14.767   5.411   3.660
83265SOL    HW251635  14.756   5.548   3.597
83266SOL     OW51636   2.582   0.260   8.028
83266SOL    HW151637   2.540   0.346   8.031
83266SOL    HW251638   2.667   0.275   7.988
83267SOL     OW51639   6.466  12.059   2.333
83267SOL    HW151640   6.550  12.089   2.369
83267SOL    HW251641   6.454  11.972   2.371
83268SOL     OW51642   7.510  14.113  11.970
83268SOL    HW151643   7.591  14.063  11.978
83268SOL    HW251644   7.530  14.198  12.010
83269SOL     OW51645   2.693   4.584   5.214
83269SOL    HW151646   2.617   4.642   5.210
83269SOL    HW251647   2.738   4.597   5.130
83270SOL     OW51648   2.196   9.834   7.496
83270SOL    HW151649   2.231   9.780   7.567
83270SOL    HW251650   2.224   9.790   7.416
83271SOL     OW51651   3.252  11.091   6.482
83271SOL    HW151652   3.284  11.097   6.572
83271SOL    HW251653   3.286  11.170   6.439
83272SOL     OW51654  10.857  14.149  11.304
83272SOL    HW151655  10.931  14.091  11.283
83272SOL    HW251656  10.816  14.107  11.380
83273SOL     OW51657  10.720   9.223   4.416
83273SOL    HW151658  10.692   9.256   4.501
83273SOL    HW251659  10.747   9.133   4.433
83274SOL     OW51660  14.338   1.719  11.313
83274SOL    HW151661  14.248   1.737  11.287
83274SOL    HW251662  14.366   1.798  11.360
83275SOL     OW51663  12.342   9.253  10.735
83275SOL    HW151664  12.411   9.194  10.703
83275SOL    HW251665  12.372   9.341  10.709
83276SOL     OW51666   7.922   9.738  13.489
83276SOL    HW151667   7.897   9.725  13.580
83276SOL    HW251668   7.903   9.830  13.471
83277SOL     OW51669   4.753   2.224   2.784
83277SOL    HW151670   4.798   2.155   2.736
83277SOL    HW251671   4.660   2.208   2.770
83278SOL     OW51672   6.238   4.990  10.855
83278SOL    HW151673   6.220   5.017  10.765
83278SOL    HW251674   6.228   5.070  10.906
83279SOL     OW51675   7.221   0.483  14.573
83279SOL    HW151676   7.213   0.527  14.657
83279SOL    HW251677   7.170   0.403  14.583
83280SOL     OW51678  11.367   6.418   9.939
83280SOL    HW151679  11.435   6.439  10.004
83280SOL    HW251680  11.354   6.324   9.949
83281SOL     OW51681  14.158   1.235  14.200
83281SOL    HW151682  14.186   1.327  14.197
83281SOL    HW251683  14.239   1.185  14.187
83282SOL     OW51684   6.876  10.061   5.305
83282SOL    HW151685   6.802  10.001   5.311
83282SOL    HW251686   6.903  10.076   5.396
83283SOL     OW51687  10.794   7.587   7.187
83283SOL    HW151688  10.816   7.497   7.164
83283SOL    HW251689  10.698   7.589   7.189
83284SOL     OW51690   9.830   2.274   2.396
83284SOL    HW151691   9.766   2.318   2.452
83284SOL    HW251692   9.881   2.220   2.457
83285SOL     OW51693   2.144   8.266   9.678
83285SOL    HW151694   2.096   8.298   9.755
83285SOL    HW251695   2.100   8.307   9.604
83286SOL     OW51696   0.378   6.191   4.375
83286SOL    HW151697   0.422   6.113   4.409
83286SOL    HW251698   0.331   6.227   4.450
83287SOL     OW51699   6.173   4.859   1.065
83287SOL    HW151700   6.124   4.936   1.037
83287SOL    HW251701   6.171   4.863   1.161
83288SOL     OW51702  10.211  11.662  13.398
83288SOL    HW151703  10.287  11.606  13.377
83288SOL    HW251704  10.198  11.649  13.492
83289SOL     OW51705   4.234  13.378   3.731
83289SOL    HW151706   4.184  13.456   3.752
83289SOL    HW251707   4.211  13.358   3.641
83290SOL     OW51708   8.827   5.100   3.496
83290SOL    HW151709   8.833   5.130   3.405
83290SOL    HW251710   8.875   5.166   3.546
83291SOL     OW51711   7.589   5.018  13.004
83291SOL    HW151712   7.590   5.058  12.917
83291SOL    HW251713   7.628   5.084  13.061
83292SOL     OW51714  12.120   0.218   8.682
83292SOL    HW151715  12.051   0.168   8.726
83292SOL    HW251716  12.186   0.153   8.659
83293SOL     OW51717   9.329   4.240  11.328
83293SOL    HW151718   9.291   4.302  11.390
83293SOL    HW251719   9.423   4.251  11.338
83294SOL     OW51720  12.907   1.090  10.402
83294SOL    HW151721  12.876   1.110  10.314
83294SOL    HW251722  12.927   1.175  10.441
83295SOL     OW51723  10.775   1.252   3.628
83295SOL    HW151724  10.713   1.264   3.556
83295SOL    HW251725  10.755   1.323   3.689
83296SOL     OW51726   6.665  11.121   9.645
83296SOL    HW151727   6.678  11.177   9.569
83296SOL    HW251728   6.739  11.140   9.702
83297SOL     OW51729   7.365   5.495   8.057
83297SOL    HW151730   7.271   5.487   8.075
83297SOL    HW251731   7.387   5.415   8.009
83298SOL     OW51732   1.595   2.629   3.369
83298SOL    HW151733   1.580   2.721   3.389
83298SOL    HW251734   1.624   2.629   3.277
83299SOL     OW51735   1.447   9.462  10.953
83299SOL    HW151736   1.438   9.470  10.858
83299SOL    HW251737   1.425   9.549  10.986
83300SOL     OW51738   2.729   3.155   0.723
83300SOL    HW151739   2.682   3.182   0.802
83300SOL    HW251740   2.737   3.235   0.672
83301SOL     OW51741   2.767  14.262   8.680
83301SOL    HW151742   2.775  14.205   8.603
83301SOL    HW251743   2.683  14.305   8.669
83302SOL     OW51744   2.524  14.563   6.918
83302SOL    HW151745   2.462  14.552   6.846
83302SOL    HW251746   2.606  14.587   6.875
83303SOL     OW51747  13.661   5.527   3.149
83303SOL    HW151748  13.640   5.521   3.242
83303SOL    HW251749  13.583   5.495   3.104
83304SOL     OW51750   1.784   5.994   1.063
83304SOL    HW151751   1.778   5.977   1.157
83304SOL    HW251752   1.735   6.075   1.050
83305SOL     OW51753   2.132   5.881   0.346
83305SOL    HW151754   2.141   5.789   0.372
83305SOL    HW251755   2.219   5.919   0.361
83306SOL     OW51756   5.749  12.331   2.509
83306SOL    HW151757   5.656  12.335   2.531
83306SOL    HW251758   5.773  12.239   2.522
83307SOL     OW51759  11.005   9.765  12.189
83307SOL    HW151760  11.028   9.784  12.098
83307SOL    HW251761  10.968   9.847  12.222
83308SOL     OW51762   4.447   8.589  13.494
83308SOL    HW151763   4.490   8.602  13.409
83308SOL    HW251764   4.383   8.520  13.478
83309SOL     OW51765  14.730  11.311   4.002
83309SOL    HW151766  14.700  11.239   4.058
83309SOL    HW251767  14.662  11.320   3.935
83310SOL     OW51768   1.538   9.561   1.916
83310SOL    HW151769   1.630   9.540   1.931
83310SOL    HW251770   1.539   9.648   1.876
83311SOL     OW51771   9.512   6.513   8.624
83311SOL    HW151772   9.487   6.537   8.534
83311SOL    HW251773   9.442   6.549   8.679
83312SOL     OW51774   5.441   1.248   9.915
83312SOL    HW151775   5.446   1.258  10.011
83312SOL    HW251776   5.408   1.160   9.902
83313SOL     OW51777  12.550   2.133   7.197
83313SOL    HW151778  12.595   2.049   7.204
83313SOL    HW251779  12.479   2.127   7.261
83314SOL     OW51780  11.538   3.521  13.553
83314SOL    HW151781  11.452   3.552  13.524
83314SOL    HW251782  11.533   3.523  13.649
83315SOL     OW51783   4.129  10.152   4.151
83315SOL    HW151784   4.083  10.220   4.101
83315SOL    HW251785   4.215  10.145   4.108
83316SOL     OW51786   6.714  14.573   0.057
83316SOL    HW151787   6.625  14.608   0.054
83316SOL    HW251788   6.727  14.530  14.852
83317SOL     OW51789   6.725  13.331  14.488
83317SOL    HW151790   6.819  13.318  14.476
83317SOL    HW251791   6.686  13.247  14.464
83318SOL     OW51792   9.966   2.844  11.200
83318SOL    HW151793   9.922   2.914  11.150
83318SOL    HW251794   9.901   2.775  11.206
83319SOL     OW51795   8.058   9.561   8.377
83319SOL    HW151796   8.012   9.619   8.439
83319SOL    HW251797   8.075   9.617   8.301
83320SOL     OW51798   5.765   4.473  13.651
83320SOL    HW151799   5.780   4.499  13.742
83320SOL    HW251800   5.672   4.488  13.636
83321SOL     OW51801   1.151  10.678   2.097
83321SOL    HW151802   1.160  10.635   2.012
83321SOL    HW251803   1.058  10.696   2.106
83322SOL     OW51804  10.430  11.265  11.753
83322SOL    HW151805  10.510  11.220  11.726
83322SOL    HW251806  10.379  11.274  11.672
83323SOL     OW51807  14.155   4.981   0.944
83323SOL    HW151808  14.147   4.967   1.038
83323SOL    HW251809  14.089   4.924   0.905
83324SOL     OW51810   6.618   0.589  10.792
83324SOL    HW151811   6.630   0.516  10.853
83324SOL    HW251812   6.623   0.667  10.847
83325SOL     OW51813  10.879   8.016  11.567
83325SOL    HW151814  10.890   8.038  11.659
83325SOL    HW251815  10.817   7.943  11.567
83326SOL     OW51816  13.804   1.128  12.120
83326SOL    HW151817  13.735   1.073  12.157
83326SOL    HW251818  13.886   1.087  12.149
83327SOL     OW51819   7.157   5.334  11.927
83327SOL    HW151820   7.123   5.273  11.992
83327SOL    HW251821   7.089   5.338  11.860
83328SOL     OW51822  14.158  14.494   9.854
83328SOL    HW151823  14.163  14.474   9.948
83328SOL    HW251824  14.214  14.571   9.843
83329SOL     OW51825   5.980  11.633  11.722
83329SOL    HW151826   5.966  11.561  11.783
83329SOL    HW251827   6.055  11.606  11.669
83330SOL     OW51828  10.655   1.225  10.452
83330SOL    HW151829  10.624   1.235  10.362
83330SOL    HW251830  10.723   1.292  10.461
83331SOL     OW51831  14.668   0.297   3.776
83331SOL    HW151832  14.604   0.263   3.838
83331SOL    HW251833  14.737   0.232   3.774
83332SOL     OW51834   2.029   4.231  11.665
83332SOL    HW151835   2.063   4.143  11.676
83332SOL    HW251836   2.072   4.283  11.733
83333SOL     OW51837  10.323  11.217   6.300
83333SOL    HW151838  10.276  11.269   6.234
83333SOL    HW251839  10.373  11.154   6.249
83334SOL     OW51840   3.921  10.610   2.425
83334SOL    HW151841   3.932  10.705   2.435
83334SOL    HW251842   3.873  10.600   2.343
83335SOL     OW51843  13.969   6.176  10.730
83335SOL    HW151844  14.030   6.114  10.770
83335SOL    HW251845  14.020   6.256  10.718
83336SOL     OW51846   9.209   1.401   6.928
83336SOL    HW151847   9.221   1.448   7.010
83336SOL    HW251848   9.152   1.328   6.950
83337SOL     OW51849   7.296   5.781   4.039
83337SOL    HW151850   7.305   5.836   4.116
83337SOL    HW251851   7.340   5.699   4.062
83338SOL     OW51852  12.003  13.793   0.196
83338SOL    HW151853  12.000  13.867   0.135
83338SOL    HW251854  11.989  13.831   0.282
83339SOL     OW51855  14.138  13.592   7.668
83339SOL    HW151856  14.199  13.529   7.705
83339SOL    HW251857  14.080  13.540   7.612
83340SOL     OW51858   0.080   6.413   9.917
83340SOL    HW151859  14.872   6.447   9.933
83340SOL    HW251860   0.107   6.376  10.001
83341SOL     OW51861   2.944   5.345   0.611
83341SOL    HW151862   2.974   5.339   0.702
83341SOL    HW251863   3.024   5.361   0.561
83342SOL     OW51864  12.056   7.923  10.698
83342SOL    HW151865  11.979   7.902  10.644
83342SOL    HW251866  12.045   7.870  10.777
83343SOL     OW51867  12.906   1.398   2.121
83343SOL    HW151868  12.830   1.356   2.161
83343SOL    HW251869  12.879   1.489   2.109
83344SOL     OW51870  12.386  13.169   5.687
83344SOL    HW151871  12.329  13.095   5.709
83344SOL    HW251872  12.355  13.240   5.743
83345SOL     OW51873   4.590  12.941   2.154
83345SOL    HW151874   4.608  12.966   2.064
83345SOL    HW251875   4.572  13.024   2.199
83346SOL     OW51876   4.993  13.006   5.289
83346SOL    HW151877   4.940  12.943   5.339
83346SOL    HW251878   4.998  13.083   5.346
83347SOL     OW51879   6.065   9.656  13.889
83347SOL    HW151880   5.979   9.643  13.849
83347SOL    HW251881   6.112   9.712  13.827
83348SOL     OW51882   2.845   9.888   7.570
83348SOL    HW151883   2.855   9.968   7.519
83348SOL    HW251884   2.893   9.905   7.651
83349SOL     OW51885  12.892   0.202  14.324
83349SOL    HW151886  12.884   0.291  14.291
83349SOL    HW251887  12.804   0.166  14.319
83350SOL     OW51888  11.822   4.201  14.874
83350SOL    HW151889  11.897   4.152   0.027
83350SOL    HW251890  11.755   4.191   0.062
83351SOL     OW51891   4.471  10.483   4.636
83351SOL    HW151892   4.474  10.396   4.596
83351SOL    HW251893   4.515  10.540   4.573
83352SOL     OW51894   4.174  11.738   9.766
83352SOL    HW151895   4.140  11.648   9.767
83352SOL    HW251896   4.261  11.732   9.805
83353SOL     OW51897   6.328   9.516   3.406
83353SOL    HW151898   6.404   9.553   3.450
83353SOL    HW251899   6.365   9.453   3.343
83354SOL     OW51900  12.845   1.023   0.676
83354SOL    HW151901  12.766   1.006   0.624
83354SOL    HW251902  12.903   0.949   0.657
83355SOL     OW51903   4.057   1.107  10.374
83355SOL    HW151904   4.038   1.144  10.460
83355SOL    HW251905   4.079   1.015  10.391
83356SOL     OW51906   5.419   0.687   6.817
83356SOL    HW151907   5.461   0.751   6.760
83356SOL    HW251908   5.332   0.723   6.834
83357SOL     OW51909   1.215  14.229   5.084
83357SOL    HW151910   1.263  14.164   5.134
83357SOL    HW251911   1.209  14.305   5.142
83358SOL     OW51912  13.163  12.256  14.179
83358SOL    HW151913  13.253  12.244  14.148
83358SOL    HW251914  13.125  12.168  14.179
83359SOL     OW51915  12.109   0.388   4.509
83359SOL    HW151916  12.173   0.459   4.514
83359SOL    HW251917  12.139   0.324   4.573
83360SOL     OW51918   4.908   4.205  10.781
83360SOL    HW151919   4.957   4.286  10.764
83360SOL    HW251920   4.862   4.221  10.863
83361SOL     OW51921  11.683   9.942   6.476
83361SOL    HW151922  11.724   9.906   6.555
83361SOL    HW251923  11.627   9.872   6.444
83362SOL     OW51924   1.512  10.337   1.606
83362SOL    HW151925   1.447  10.303   1.668
83362SOL    HW251926   1.555  10.259   1.571
83363SOL     OW51927   6.905   8.473  10.158
83363SOL    HW151928   6.975   8.513  10.210
83363SOL    HW251929   6.950   8.409  10.103
83364SOL     OW51930   0.959   5.468   3.854
83364SOL    HW151931   0.871   5.435   3.842
83364SOL    HW251932   0.982   5.509   3.770
83365SOL     OW51933  12.164  12.889   8.112
83365SOL    HW151934  12.200  12.970   8.148
83365SOL    HW251935  12.237  12.848   8.066
83366SOL     OW51936   0.615   2.361   0.005
83366SOL    HW151937   0.554   2.414  14.832
83366SOL    HW251938   0.699   2.405  14.876
83367SOL     OW51939   8.160  12.894   2.118
83367SOL    HW151940   8.094  12.867   2.182
83367SOL    HW251941   8.114  12.891   2.034
83368SOL     OW51942  14.107   4.810   4.917
83368SOL    HW151943  14.115   4.759   4.998
83368SOL    HW251944  14.197   4.828   4.891
83369SOL     OW51945  10.085  11.678   3.411
83369SOL    HW151946  10.015  11.662   3.348
83369SOL    HW251947  10.064  11.623   3.486
83370SOL     OW51948   4.364   5.002   6.699
83370SOL    HW151949   4.444   5.048   6.669
83370SOL    HW251950   4.308   5.072   6.732
83371SOL     OW51951   7.377   8.568  12.393
83371SOL    HW151952   7.378   8.591  12.301
83371SOL    HW251953   7.293   8.601  12.426
83372SOL     OW51954   8.742  13.906   0.700
83372SOL    HW151955   8.650  13.914   0.676
83372SOL    HW251956   8.742  13.906   0.796
83373SOL     OW51957   9.225   9.301  14.516
83373SOL    HW151958   9.291   9.232  14.512
83373SOL    HW251959   9.157   9.266  14.573
83374SOL     OW51960   6.816  14.430   0.817
83374SOL    HW151961   6.786  14.373   0.887
83374SOL    HW251962   6.840  14.371   0.746
83375SOL     OW51963   5.061  14.293   2.988
83375SOL    HW151964   5.034  14.384   2.979
83375SOL    HW251965   5.137  14.296   3.046
83376SOL     OW51966   0.774   9.707   1.428
83376SOL    HW151967   0.692   9.740   1.464
83376SOL    HW251968   0.765   9.612   1.432
83377SOL     OW51969   3.226   3.789  11.005
83377SOL    HW151970   3.300   3.744  11.045
83377SOL    HW251971   3.209   3.864  11.063
83378SOL     OW51972   5.548  13.088   4.310
83378SOL    HW151973   5.643  13.084   4.299
83378SOL    HW251974   5.513  13.054   4.228
83379SOL     OW51975   1.020  10.267  12.371
83379SOL    HW151976   0.950  10.207  12.395
83379SOL    HW251977   1.100  10.227  12.404
83380SOL     OW51978   6.545  13.000  12.162
83380SOL    HW151979   6.538  13.076  12.104
83380SOL    HW251980   6.565  12.927  12.104
83381SOL     OW51981  13.231  12.561   0.391
83381SOL    HW151982  13.144  12.600   0.378
83381SOL    HW251983  13.216  12.491   0.455
83382SOL     OW51984  12.569  14.561  13.815
83382SOL    HW151985  12.599  14.490  13.759
83382SOL    HW251986  12.634  14.566  13.884
83383SOL     OW51987  13.668   3.963  14.577
83383SOL    HW151988  13.671   3.905  14.653
83383SOL    HW251989  13.730   3.926  14.515
83384SOL     OW51990   7.017  11.499  12.794
83384SOL    HW151991   6.939  11.456  12.831
83384SOL    HW251992   6.994  11.592  12.793
83385SOL     OW51993   3.981   1.109  10.845
83385SOL    HW151994   3.964   1.023  10.807
83385SOL    HW251995   3.915   1.119  10.913
83386SOL     OW51996  10.935  11.513   4.269
83386SOL    HW151997  10.986  11.452   4.215
83386SOL    HW251998  10.860  11.461   4.298
83387SOL     OW51999   6.514   8.587   3.956
83387SOL    HW152000   6.472   8.669   3.982
83387SOL    HW252001   6.563   8.560   4.034
83388SOL     OW52002   8.465   9.580   6.062
83388SOL    HW152003   8.544   9.585   6.117
83388SOL    HW252004   8.403   9.639   6.104
83389SOL     OW52005  13.319  11.422   8.958
83389SOL    HW152006  13.371  11.438   9.037
83389SOL    HW252007  13.251  11.361   8.986
83390SOL     OW52008   6.993   4.496   7.899
83390SOL    HW152009   7.009   4.407   7.867
83390SOL    HW252010   6.969   4.484   7.990
83391SOL     OW52011  11.631   5.052   5.105
83391SOL    HW152012  11.689   4.991   5.150
83391SOL    HW252013  11.572   5.083   5.173
83392SOL     OW52014  14.166  11.468   5.168
83392SOL    HW152015  14.218  11.427   5.237
83392SOL    HW252016  14.146  11.555   5.202
83393SOL     OW52017  11.206  12.299   2.889
83393SOL    HW152018  11.299  12.277   2.887
83393SOL    HW252019  11.170  12.263   2.808
83394SOL     OW52020   4.774   3.815   2.562
83394SOL    HW152021   4.838   3.749   2.588
83394SOL    HW252022   4.818   3.898   2.579
83395SOL     OW52023   5.504   8.067  12.851
83395SOL    HW152024   5.501   8.152  12.895
83395SOL    HW252025   5.435   8.016  12.893
83396SOL     OW52026   8.067  10.886  12.818
83396SOL    HW152027   8.026  10.803  12.791
83396SOL    HW252028   7.994  10.936  12.855
83397SOL     OW52029   1.963   5.567   3.725
83397SOL    HW152030   2.050   5.583   3.760
83397SOL    HW252031   1.930   5.493   3.776
83398SOL     OW52032  10.792   0.739   4.838
83398SOL    HW152033  10.881   0.744   4.802
83398SOL    HW252034  10.776   0.826   4.874
83399SOL     OW52035   6.095   6.780  11.213
83399SOL    HW152036   6.167   6.823  11.259
83399SOL    HW252037   6.060   6.848  11.155
83400SOL     OW52038   9.374   5.673   3.298
83400SOL    HW152039   9.346   5.738   3.233
83400SOL    HW252040   9.294   5.650   3.345
83401SOL     OW52041   1.283   8.951  10.023
83401SOL    HW152042   1.263   9.043  10.036
83401SOL    HW252043   1.202   8.914   9.987
83402SOL     OW52044   9.135   2.016  12.807
83402SOL    HW152045   9.152   1.934  12.761
83402SOL    HW252046   9.198   2.078  12.769
83403SOL     OW52047   2.215   6.827  14.832
83403SOL    HW152048   2.202   6.772  14.755
83403SOL    HW252049   2.145   6.803   0.012
83404SOL     OW52050   0.456   3.110   3.391
83404SOL    HW152051   0.368   3.148   3.389
83404SOL    HW252052   0.514   3.186   3.392
83405SOL     OW52053  10.599   2.803   4.353
83405SOL    HW152054  10.539   2.737   4.318
83405SOL    HW252055  10.547   2.883   4.356
83406SOL     OW52056  11.292   7.087  13.621
83406SOL    HW152057  11.274   7.003  13.664
83406SOL    HW252058  11.342   7.064  13.543
83407SOL     OW52059   9.473   0.341  14.536
83407SOL    HW152060   9.391   0.332  14.487
83407SOL    HW252061   9.535   0.377  14.473
83408SOL     OW52062  14.380   2.710  10.214
83408SOL    HW152063  14.355   2.789  10.262
83408SOL    HW252064  14.377   2.736  10.122
83409SOL     OW52065   0.349   9.415   6.317
83409SOL    HW152066   0.317   9.346   6.376
83409SOL    HW252067   0.284   9.485   6.324
83410SOL     OW52068   3.058   0.849   4.767
83410SOL    HW152069   3.054   0.916   4.835
83410SOL    HW252070   3.024   0.770   4.809
83411SOL     OW52071   7.350  10.367  13.845
83411SOL    HW152072   7.385  10.439  13.792
83411SOL    HW252073   7.304  10.410  13.917
83412SOL     OW52074   4.498   3.173   4.387
83412SOL    HW152075   4.463   3.180   4.476
83412SOL    HW252076   4.424   3.190   4.330
83413SOL     OW52077   7.502   9.499  12.738
83413SOL    HW152078   7.575   9.467  12.791
83413SOL    HW252079   7.438   9.428  12.737
83414SOL     OW52080  13.672   1.365   2.265
83414SOL    HW152081  13.686   1.314   2.345
83414SOL    HW252082  13.637   1.302   2.202
83415SOL     OW52083   1.215   1.960   0.182
83415SOL    HW152084   1.305   1.977   0.212
83415SOL    HW252085   1.163   1.961   0.262
83416SOL     OW52086  14.563   7.408   3.141
83416SOL    HW152087  14.504   7.333   3.129
83416SOL    HW252088  14.647   7.378   3.106
83417SOL     OW52089  11.076   8.719   8.173
83417SOL    HW152090  10.989   8.700   8.137
83417SOL    HW252091  11.062   8.726   8.267
83418SOL     OW52092  13.919   8.275   5.205
83418SOL    HW152093  13.834   8.295   5.166
83418SOL    HW252094  13.907   8.192   5.251
83419SOL     OW52095   9.553  12.848  11.565
83419SOL    HW152096   9.612  12.800  11.623
83419SOL    HW252097   9.559  12.802  11.481
83420SOL     OW52098   4.518  12.515  13.600
83420SOL    HW152099   4.455  12.454  13.564
83420SOL    HW252100   4.465  12.582  13.644
83421SOL     OW52101   2.407   4.951   5.815
83421SOL    HW152102   2.487   4.906   5.789
83421SOL    HW252103   2.368   4.979   5.732
83422SOL     OW52104   5.779  12.852   6.162
83422SOL    HW152105   5.804  12.939   6.193
83422SOL    HW252106   5.814  12.847   6.073
83423SOL     OW52107   6.668  12.623   6.762
83423SOL    HW152108   6.678  12.538   6.804
83423SOL    HW252109   6.577  12.648   6.780
83424SOL     OW52110   3.369  10.148   4.205
83424SOL    HW152111   3.353  10.079   4.141
83424SOL    HW252112   3.464  10.155   4.210
83425SOL     OW52113  10.587   5.577   1.880
83425SOL    HW152114  10.617   5.645   1.819
83425SOL    HW252115  10.607   5.613   1.967
83426SOL     OW52116   4.289  12.975  12.018
83426SOL    HW152117   4.207  12.981  11.969
83426SOL    HW252118   4.269  12.915  12.090
83427SOL     OW52119  14.699  13.084   6.689
83427SOL    HW152120  14.607  13.090   6.667
83427SOL    HW252121  14.740  13.043   6.613
83428SOL     OW52122  12.129  10.656  14.345
83428SOL    HW152123  12.176  10.588  14.296
83428SOL    HW252124  12.041  10.658  14.306
83429SOL     OW52125  10.261  11.175  13.791
83429SOL    HW152126  10.299  11.231  13.858
83429SOL    HW252127  10.258  11.230  13.712
83430SOL     OW52128   5.359   3.084   5.058
83430SOL    HW152129   5.382   3.072   5.150
83430SOL    HW252130   5.341   2.995   5.027
83431SOL     OW52131   0.266   0.407  12.438
83431SOL    HW152132   0.203   0.461  12.485
83431SOL    HW252133   0.299   0.346  12.504
83432SOL     OW52134   1.113  13.541   2.095
83432SOL    HW152135   1.126  13.605   2.165
83432SOL    HW252136   1.136  13.457   2.135
83433SOL     OW52137   6.038  12.836   4.340
83433SOL    HW152138   6.016  12.927   4.361
83433SOL    HW252139   5.989  12.785   4.404
83434SOL     OW52140   8.739  11.191   9.889
83434SOL    HW152141   8.758  11.143   9.808
83434SOL    HW252142   8.648  11.170   9.908
83435SOL     OW52143   7.218  12.129   9.002
83435SOL    HW152144   7.241  12.201   8.943
83435SOL    HW252145   7.161  12.073   8.949
83436SOL     OW52146   6.243  13.238   6.629
83436SOL    HW152147   6.184  13.311   6.642
83436SOL    HW252148   6.199  13.163   6.670
83437SOL     OW52149   8.777   3.174  10.958
83437SOL    HW152150   8.706   3.121  10.994
83437SOL    HW252151   8.734   3.236  10.899
83438SOL     OW52152   5.095  10.337  13.078
83438SOL    HW152153   5.019  10.380  13.040
83438SOL    HW252154   5.170  10.377  13.034
83439SOL     OW52155   7.482   6.624   3.894
83439SOL    HW152156   7.527   6.543   3.869
83439SOL    HW252157   7.391   6.610   3.869
83440SOL     OW52158   4.148  10.698  13.579
83440SOL    HW152159   4.241  10.704  13.557
83440SOL    HW252160   4.123  10.609  13.554
83441SOL     OW52161  11.424   9.155  12.368
83441SOL    HW152162  11.417   9.065  12.399
83441SOL    HW252163  11.349   9.199  12.407
83442SOL     OW52164   6.758  13.970   5.721
83442SOL    HW152165   6.666  13.980   5.743
83442SOL    HW252166   6.779  13.880   5.745
83443SOL     OW52167  13.034   7.813   8.186
83443SOL    HW152168  12.947   7.788   8.154
83443SOL    HW252169  13.032   7.909   8.187
83444SOL     OW52170   2.383   4.686  12.645
83444SOL    HW152171   2.417   4.751  12.584
83444SOL    HW252172   2.332   4.626  12.590
83445SOL     OW52173   5.073   7.228   3.982
83445SOL    HW152174   5.149   7.171   3.967
83445SOL    HW252175   4.997   7.172   3.963
83446SOL     OW52176   0.869   5.930   7.735
83446SOL    HW152177   0.811   6.006   7.724
83446SOL    HW252178   0.957   5.965   7.725
83447SOL     OW52179  11.291   9.573   8.631
83447SOL    HW152180  11.291   9.634   8.705
83447SOL    HW252181  11.362   9.604   8.575
83448SOL     OW52182   3.297   7.145  13.534
83448SOL    HW152183   3.225   7.179  13.481
83448SOL    HW252184   3.258   7.128  13.620
83449SOL     OW52185   4.015   4.882  12.334
83449SOL    HW152186   3.953   4.889  12.407
83449SOL    HW252187   4.092   4.839  12.373
83450SOL     OW52188  12.041  11.289   3.812
83450SOL    HW152189  12.071  11.295   3.903
83450SOL    HW252190  12.077  11.367   3.770
83451SOL     OW52191   5.546   7.299   2.311
83451SOL    HW152192   5.639   7.311   2.294
83451SOL    HW252193   5.509   7.274   2.227
83452SOL     OW52194  13.603  13.789   7.798
83452SOL    HW152195  13.567  13.775   7.711
83452SOL    HW252196  13.694  13.812   7.783
83453SOL     OW52197   9.363   0.656  12.975
83453SOL    HW152198   9.332   0.708  12.900
83453SOL    HW252199   9.410   0.719  13.030
83454SOL     OW52200   8.589   2.821  14.459
83454SOL    HW152201   8.535   2.762  14.406
83454SOL    HW252202   8.546   2.823  14.544
83455SOL     OW52203  14.621   2.945   9.968
83455SOL    HW152204  14.660   2.893  10.038
83455SOL    HW252205  14.693   2.962   9.908
83456SOL     OW52206  10.051   1.991   8.196
83456SOL    HW152207  10.118   2.050   8.161
83456SOL    HW252208  10.076   1.979   8.287
83457SOL     OW52209  14.345   7.995   9.940
83457SOL    HW152210  14.351   7.944   9.859
83457SOL    HW252211  14.412   8.063   9.931
83458SOL     OW52212   4.710  11.757   4.471
83458SOL    HW152213   4.736  11.824   4.408
83458SOL    HW252214   4.759  11.776   4.550
83459SOL     OW52215   8.684  10.593   4.953
83459SOL    HW152216   8.708  10.604   5.045
83459SOL    HW252217   8.656  10.680   4.925
83460SOL     OW52218  11.899   7.618  11.823
83460SOL    HW152219  11.880   7.537  11.777
83460SOL    HW252220  11.833   7.623  11.892
83461SOL     OW52221  11.863   0.303   9.759
83461SOL    HW152222  11.915   0.224   9.775
83461SOL    HW252223  11.773   0.271   9.757
83462SOL     OW52224   3.767  13.363   0.522
83462SOL    HW152225   3.680  13.344   0.486
83462SOL    HW252226   3.762  13.338   0.614
83463SOL     OW52227   7.990   4.584  13.166
83463SOL    HW152228   8.001   4.492  13.190
83463SOL    HW252229   8.079   4.620  13.169
83464SOL     OW52230   6.323   4.733   2.327
83464SOL    HW152231   6.395   4.775   2.279
83464SOL    HW252232   6.258   4.802   2.336
83465SOL     OW52233   4.321   8.833   3.065
83465SOL    HW152234   4.320   8.811   3.158
83465SOL    HW252235   4.353   8.923   3.062
83466SOL     OW52236   9.409   9.610  10.370
83466SOL    HW152237   9.405   9.624  10.275
83466SOL    HW252238   9.501   9.590  10.387
83467SOL     OW52239   0.188   3.014   1.206
83467SOL    HW152240   0.151   3.060   1.282
83467SOL    HW252241   0.240   2.943   1.244
83468SOL     OW52242   0.975   8.612  13.062
83468SOL    HW152243   1.037   8.548  13.098
83468SOL    HW252244   0.979   8.598  12.967
83469SOL     OW52245  11.107  11.631   9.894
83469SOL    HW152246  11.030  11.579   9.872
83469SOL    HW252247  11.086  11.719   9.865
83470SOL     OW52248   5.811   6.109  12.486
83470SOL    HW152249   5.904   6.101  12.507
83470SOL    HW252250   5.805   6.189  12.434
83471SOL     OW52251  14.631   3.040   3.798
83471SOL    HW152252  14.580   3.057   3.878
83471SOL    HW252253  14.574   2.986   3.744
83472SOL     OW52254  10.567   4.559  12.528
83472SOL    HW152255  10.503   4.565  12.458
83472SOL    HW252256  10.642   4.516  12.489
83473SOL     OW52257   7.713  12.392   2.224
83473SOL    HW152258   7.767  12.365   2.299
83473SOL    HW252259   7.764  12.366   2.147
83474SOL     OW52260   2.454   0.729   2.046
83474SOL    HW152261   2.488   0.736   2.135
83474SOL    HW252262   2.359   0.740   2.056
83475SOL     OW52263   5.298   1.047   8.680
83475SOL    HW152264   5.381   1.032   8.633
83475SOL    HW252265   5.287   0.970   8.735
83476SOL     OW52266   1.620   8.856   9.804
83476SOL    HW152267   1.646   8.781   9.751
83476SOL    HW252268   1.582   8.818   9.883
83477SOL     OW52269  13.577   9.904   7.432
83477SOL    HW152270  13.506   9.924   7.371
83477SOL    HW252271  13.637   9.849   7.382
83478SOL     OW52272   6.965   9.062   2.416
83478SOL    HW152273   6.884   9.114   2.421
83478SOL    HW252274   6.994   9.072   2.326
83479SOL     OW52275   5.867   4.132   6.099
83479SOL    HW152276   5.961   4.127   6.083
83479SOL    HW252277   5.836   4.041   6.093
83480SOL     OW52278   3.591   8.491   1.887
83480SOL    HW152279   3.659   8.557   1.902
83480SOL    HW252280   3.549   8.479   1.972
83481SOL     OW52281  11.370   3.731   0.315
83481SOL    HW152282  11.350   3.816   0.355
83481SOL    HW252283  11.394   3.675   0.389
83482SOL     OW52284   7.621  11.337   5.209
83482SOL    HW152285   7.642  11.397   5.281
83482SOL    HW252286   7.649  11.383   5.130
83483SOL     OW52287   2.734  13.893   0.867
83483SOL    HW152288   2.723  13.890   0.962
83483SOL    HW252289   2.828  13.908   0.854
83484SOL     OW52290   4.410   7.004   6.838
83484SOL    HW152291   4.324   7.047   6.847
83484SOL    HW252292   4.471   7.076   6.823
83485SOL     OW52293   0.174   5.291  10.943
83485SOL    HW152294   0.114   5.305  10.869
83485SOL    HW252295   0.244   5.237  10.907
83486SOL     OW52296  11.190   9.685   2.167
83486SOL    HW152297  11.272   9.734   2.158
83486SOL    HW252298  11.187   9.662   2.260
83487SOL     OW52299   9.183   3.458   6.750
83487SOL    HW152300   9.245   3.483   6.818
83487SOL    HW252301   9.116   3.527   6.753
83488SOL     OW52302   7.624  10.587   2.413
83488SOL    HW152303   7.529  10.576   2.417
83488SOL    HW252304   7.659  10.499   2.425
83489SOL     OW52305   6.669  13.073   6.934
83489SOL    HW152306   6.725  13.133   6.984
83489SOL    HW252307   6.720  12.992   6.929
83490SOL     OW52308   9.479   4.954  12.898
83490SOL    HW152309   9.503   4.951  12.991
83490SOL    HW252310   9.556   4.920  12.852
83491SOL     OW52311  10.465   3.719   5.436
83491SOL    HW152312  10.525   3.785   5.470
83491SOL    HW252313  10.396   3.714   5.502
83492SOL     OW52314   6.372   2.628   8.232
83492SOL    HW152315   6.310   2.681   8.282
83492SOL    HW252316   6.378   2.672   8.148
83493SOL     OW52317  10.680   8.168   4.367
83493SOL    HW152318  10.668   8.258   4.339
83493SOL    HW252319  10.635   8.162   4.451
83494SOL     OW52320  14.575   8.782   5.441
83494SOL    HW152321  14.542   8.697   5.472
83494SOL    HW252322  14.627   8.815   5.515
83495SOL     OW52323   4.790   4.715   1.509
83495SOL    HW152324   4.727   4.700   1.580
83495SOL    HW252325   4.766   4.800   1.474
83496SOL     OW52326   4.844  13.717   0.639
83496SOL    HW152327   4.861  13.782   0.571
83496SOL    HW252328   4.913  13.730   0.704
83497SOL     OW52329   4.474   3.699   4.163
83497SOL    HW152330   4.466   3.783   4.118
83497SOL    HW252331   4.421   3.709   4.243
83498SOL     OW52332   2.906   9.118   9.245
83498SOL    HW152333   2.963   9.190   9.219
83498SOL    HW252334   2.834   9.160   9.293
83499SOL     OW52335   7.715   3.554  13.580
83499SOL    HW152336   7.757   3.556  13.666
83499SOL    HW252337   7.788   3.561  13.518
83500SOL     OW52338   0.123  14.071   6.781
83500SOL    HW152339   0.086  13.984   6.792
83500SOL    HW252340   0.117  14.088   6.687
83501SOL     OW52341   3.207  14.003  10.853
83501SOL    HW152342   3.130  14.059  10.857
83501SOL    HW252343   3.271  14.047  10.908
83502SOL     OW52344  14.565   9.161   5.679
83502SOL    HW152345  14.621   9.221   5.728
83502SOL    HW252346  14.618   9.134   5.604
83503SOL     OW52347   6.313   5.483  12.479
83503SOL    HW152348   6.241   5.426  12.507
83503SOL    HW252349   6.270   5.565  12.455
83504SOL     OW52350   5.411  11.237   7.283
83504SOL    HW152351   5.432  11.191   7.202
83504SOL    HW252352   5.327  11.280   7.266
83505SOL     OW52353   6.102   0.762   3.752
83505SOL    HW152354   6.195   0.753   3.732
83505SOL    HW252355   6.097   0.755   3.847
83506SOL     OW52356  14.742  11.715  14.066
83506SOL    HW152357  14.749  11.751  13.978
83506SOL    HW252358  14.750  11.620  14.054
83507SOL     OW52359   7.655   4.726  14.871
83507SOL    HW152360   7.748   4.701  14.863
83507SOL    HW252361   7.608   4.651  14.836
83508SOL     OW52362  11.580   4.499   1.715
83508SOL    HW152363  11.655   4.550   1.745
83508SOL    HW252364  11.507   4.561   1.718
83509SOL     OW52365   6.664   7.006   5.319
83509SOL    HW152366   6.756   7.031   5.330
83509SOL    HW252367   6.659   6.917   5.353
83510SOL     OW52368   9.550  13.150   1.386
83510SOL    HW152369   9.472  13.176   1.433
83510SOL    HW252370   9.537  13.184   1.297
83511SOL     OW52371  12.486   2.849   9.225
83511SOL    HW152372  12.453   2.853   9.315
83511SOL    HW252373  12.468   2.759   9.197
83512SOL     OW52374  12.413   8.039   5.641
83512SOL    HW152375  12.368   8.025   5.558
83512SOL    HW252376  12.388   8.127   5.668
83513SOL     OW52377   4.734   6.955   4.329
83513SOL    HW152378   4.808   6.895   4.321
83513SOL    HW252379   4.662   6.912   4.283
83514SOL     OW52380   0.568   3.923   2.083
83514SOL    HW152381   0.484   3.961   2.110
83514SOL    HW252382   0.632   3.991   2.105
83515SOL     OW52383   3.080   4.303   4.580
83515SOL    HW152384   2.999   4.255   4.596
83515SOL    HW252385   3.096   4.294   4.486
83516SOL     OW52386   2.825   2.231   8.205
83516SOL    HW152387   2.919   2.242   8.220
83516SOL    HW252388   2.784   2.284   8.274
83517SOL     OW52389  12.771  14.658  13.547
83517SOL    HW152390  12.716  14.590  13.509
83517SOL    HW252391  12.714  14.705  13.608
83518SOL     OW52392   7.451  10.930  12.733
83518SOL    HW152393   7.494  10.984  12.800
83518SOL    HW252394   7.466  10.979  12.651
83519SOL     OW52395  14.474   4.982  11.940
83519SOL    HW152396  14.555   5.016  11.904
83519SOL    HW252397  14.500   4.935  12.018
83520SOL     OW52398  10.843   8.524   3.154
83520SOL    HW152399  10.757   8.561   3.174
83520SOL    HW252400  10.880   8.584   3.089
83521SOL     OW52401   0.295   6.809   7.363
83521SOL    HW152402   0.376   6.812   7.312
83521SOL    HW252403   0.320   6.841   7.450
83522SOL     OW52404   5.701   4.649   7.301
83522SOL    HW152405   5.678   4.683   7.388
83522SOL    HW252406   5.796   4.637   7.304
83523SOL     OW52407  12.217   4.889   2.045
83523SOL    HW152408  12.301   4.929   2.065
83523SOL    HW252409  12.180   4.867   2.130
83524SOL     OW52410   0.877   1.534   1.499
83524SOL    HW152411   0.933   1.598   1.542
83524SOL    HW252412   0.930   1.500   1.427
83525SOL     OW52413  11.348  13.666   3.458
83525SOL    HW152414  11.330  13.705   3.372
83525SOL    HW252415  11.271  13.612   3.476
83526SOL     OW52416   8.403   5.780   4.808
83526SOL    HW152417   8.452   5.860   4.790
83526SOL    HW252418   8.463   5.710   4.783
83527SOL     OW52419  12.124  14.165   7.540
83527SOL    HW152420  12.167  14.080   7.553
83527SOL    HW252421  12.033  14.142   7.521
83528SOL     OW52422   0.220   5.286   1.797
83528SOL    HW152423   0.158   5.358   1.795
83528SOL    HW252424   0.233   5.270   1.891
83529SOL     OW52425   9.872   5.409  11.829
83529SOL    HW152426   9.916   5.412  11.914
83529SOL    HW252427   9.895   5.324  11.792
83530SOL     OW52428  10.188   1.382   4.197
83530SOL    HW152429  10.225   1.304   4.155
83530SOL    HW252430  10.122   1.347   4.257
83531SOL     OW52431   0.383  12.388   4.928
83531SOL    HW152432   0.447  12.351   4.990
83531SOL    HW252433   0.425  12.378   4.842
83532SOL     OW52434   6.719  10.968   8.960
83532SOL    HW152435   6.813  10.975   8.947
83532SOL    HW252436   6.687  11.058   8.955
83533SOL     OW52437   3.149   4.242  11.243
83533SOL    HW152438   3.056   4.256  11.261
83533SOL    HW252439   3.155   4.248  11.147
83534SOL     OW52440   2.548   1.266   7.558
83534SOL    HW152441   2.535   1.360   7.545
83534SOL    HW252442   2.617   1.260   7.624
83535SOL     OW52443   1.713   8.372   2.379
83535SOL    HW152444   1.796   8.392   2.422
83535SOL    HW252445   1.736   8.314   2.306
83536SOL     OW52446  14.309   7.144  11.285
83536SOL    HW152447  14.334   7.060  11.323
83536SOL    HW252448  14.356   7.209  11.337
83537SOL     OW52449   3.160   6.630   7.302
83537SOL    HW152450   3.197   6.716   7.281
83537SOL    HW252451   3.184   6.575   7.228
83538SOL     OW52452   0.329   2.012  13.398
83538SOL    HW152453   0.276   2.077  13.352
83538SOL    HW252454   0.398   2.063  13.441
83539SOL     OW52455   5.368   2.383   2.942
83539SOL    HW152456   5.339   2.338   2.862
83539SOL    HW252457   5.460   2.406   2.924
83540SOL     OW52458  14.325  11.626   9.557
83540SOL    HW152459  14.360  11.564   9.493
83540SOL    HW252460  14.239  11.648   9.523
83541SOL     OW52461   3.814  13.054   6.636
83541SOL    HW152462   3.903  13.059   6.672
83541SOL    HW252463   3.767  13.124   6.680
83542SOL     OW52464   7.528   6.255   6.935
83542SOL    HW152465   7.612   6.274   6.894
83542SOL    HW252466   7.540   6.278   7.027
83543SOL     OW52467   4.758   3.342   8.272
83543SOL    HW152468   4.713   3.298   8.345
83543SOL    HW252469   4.791   3.423   8.311
83544SOL     OW52470   8.332   6.078   8.678
83544SOL    HW152471   8.321   6.166   8.712
83544SOL    HW252472   8.250   6.034   8.697
83545SOL     OW52473   2.594   2.975  13.789
83545SOL    HW152474   2.580   3.068  13.774
83545SOL    HW252475   2.531   2.952  13.857
83546SOL     OW52476  10.535  14.689   8.629
83546SOL    HW152477  10.491  14.686   8.544
83546SOL    HW252478  10.510  14.607   8.672
83547SOL     OW52479   3.268  14.133   7.969
83547SOL    HW152480   3.201  14.102   7.908
83547SOL    HW252481   3.348  14.135   7.917
83548SOL     OW52482   8.192  11.383   1.313
83548SOL    HW152483   8.150  11.392   1.398
83548SOL    HW252484   8.233  11.297   1.315
83549SOL     OW52485   7.897   5.631   3.024
83549SOL    HW152486   7.910   5.630   3.119
83549SOL    HW252487   7.983   5.653   2.988
83550SOL     OW52488  12.839  12.657   0.054
83550SOL    HW152489  12.823  12.566   0.030
83550SOL    HW252490  12.843  12.657   0.149
83551SOL     OW52491   1.660   0.906   6.957
83551SOL    HW152492   1.596   0.869   6.897
83551SOL    HW252493   1.738   0.921   6.904
83552SOL     OW52494  13.196  12.818   1.818
83552SOL    HW152495  13.146  12.736   1.815
83552SOL    HW252496  13.159  12.866   1.892
83553SOL     OW52497  11.897  13.002   0.933
83553SOL    HW152498  11.810  13.011   0.971
83553SOL    HW252499  11.930  12.919   0.969
83554SOL     OW52500   2.283  11.707   4.780
83554SOL    HW152501   2.336  11.736   4.706
83554SOL    HW252502   2.216  11.651   4.742
83555SOL     OW52503   2.331  12.941   8.497
83555SOL    HW152504   2.306  12.888   8.421
83555SOL    HW252505   2.307  13.030   8.473
83556SOL     OW52506   8.776   7.218   2.866
83556SOL    HW152507   8.771   7.126   2.893
83556SOL    HW252508   8.803   7.214   2.774
83557SOL     OW52509   6.794   2.464  13.920
83557SOL    HW152510   6.881   2.459  13.881
83557SOL    HW252511   6.807   2.444  14.012
83558SOL     OW52512   2.676   8.435  12.926
83558SOL    HW152513   2.701   8.344  12.938
83558SOL    HW252514   2.758   8.481  12.907
83559SOL     OW52515   4.428   6.339  11.382
83559SOL    HW152516   4.424   6.276  11.310
83559SOL    HW252517   4.358   6.312  11.442
83560SOL     OW52518  10.423   9.771  12.969
83560SOL    HW152519  10.439   9.746  12.878
83560SOL    HW252520  10.480   9.847  12.983
83561SOL     OW52521  12.199   8.268   6.953
83561SOL    HW152522  12.180   8.186   6.907
83561SOL    HW252523  12.113   8.307   6.970
83562SOL     OW52524   3.630  13.761   5.048
83562SOL    HW152525   3.617  13.823   5.119
83562SOL    HW252526   3.725  13.750   5.042
83563SOL     OW52527   8.282  13.065   4.608
83563SOL    HW152528   8.355  13.110   4.564
83563SOL    HW252529   8.324  13.002   4.666
83564SOL     OW52530  14.687  13.114   5.114
83564SOL    HW152531  14.652  13.160   5.038
83564SOL    HW252532  14.736  13.041   5.077
83565SOL     OW52533  11.024   6.150  12.270
83565SOL    HW152534  11.078   6.221  12.305
83565SOL    HW252535  11.038   6.153  12.175
83566SOL     OW52536   4.990   4.357   3.036
83566SOL    HW152537   4.980   4.356   3.131
83566SOL    HW252538   5.064   4.299   3.018
83567SOL     OW52539   3.835   8.025   3.474
83567SOL    HW152540   3.915   8.016   3.421
83567SOL    HW252541   3.804   8.114   3.456
83568SOL     OW52542   5.865   7.658  14.090
83568SOL    HW152543   5.950   7.671  14.131
83568SOL    HW252544   5.880   7.677  13.997
83569SOL     OW52545   9.838   2.054  14.063
83569SOL    HW152546   9.775   2.066  14.134
83569SOL    HW252547   9.911   2.110  14.085
83570SOL     OW52548   5.255   1.311   8.811
83570SOL    HW152549   5.237   1.386   8.754
83570SOL    HW252550   5.259   1.236   8.751
83571SOL     OW52551  12.202   4.711  11.839
83571SOL    HW152552  12.256   4.708  11.760
83571SOL    HW252553  12.237   4.640  11.894
83572SOL     OW52554   1.127  13.351   2.862
83572SOL    HW152555   1.117  13.392   2.948
83572SOL    HW252556   1.051  13.293   2.854
83573SOL     OW52557  14.398   5.522  10.768
83573SOL    HW152558  14.316   5.555  10.732
83573SOL    HW252559  14.464   5.549  10.704
83574SOL     OW52560  12.907   1.599  12.672
83574SOL    HW152561  12.902   1.694  12.680
83574SOL    HW252562  12.991   1.575  12.710
83575SOL     OW52563   6.769   1.912   5.906
83575SOL    HW152564   6.845   1.921   5.849
83575SOL    HW252565   6.751   2.000   5.937
83576SOL     OW52566  12.971   5.864   4.338
83576SOL    HW152567  12.889   5.889   4.380
83576SOL    HW252568  13.016   5.947   4.322
83577SOL     OW52569   0.949   6.648   1.435
83577SOL    HW152570   0.913   6.560   1.435
83577SOL    HW252571   0.884   6.701   1.482
83578SOL     OW52572  12.828   7.136  11.061
83578SOL    HW152573  12.892   7.139  10.990
83578SOL    HW252574  12.854   7.208  11.119
83579SOL     OW52575   1.145   7.442  11.110
83579SOL    HW152576   1.239   7.433  11.122
83579SOL    HW252577   1.113   7.473  11.195
83580SOL     OW52578   3.711  10.381  11.481
83580SOL    HW152579   3.658  10.387  11.401
83580SOL    HW252580   3.778  10.316  11.460
83581SOL     OW52581  12.128   3.531   7.805
83581SOL    HW152582  12.133   3.446   7.848
83581SOL    HW252583  12.065   3.580   7.858
83582SOL     OW52584   2.656   9.335   7.451
83582SOL    HW152585   2.675   9.378   7.368
83582SOL    HW252586   2.721   9.265   7.457
83583SOL     OW52587   3.401   3.458   1.692
83583SOL    HW152588   3.344   3.381   1.688
83583SOL    HW252589   3.361   3.521   1.633
83584SOL     OW52590  11.640   5.664  10.982
83584SOL    HW152591  11.682   5.591  11.029
83584SOL    HW252592  11.631   5.733  11.048
83585SOL     OW52593   7.800   4.381   3.826
83585SOL    HW152594   7.815   4.336   3.743
83585SOL    HW252595   7.863   4.453   3.825
83586SOL     OW52596   6.426   9.337   2.116
83586SOL    HW152597   6.407   9.251   2.078
83586SOL    HW252598   6.383   9.399   2.056
83587SOL     OW52599   7.030  13.510   1.880
83587SOL    HW152600   6.949  13.560   1.887
83587SOL    HW252601   7.099  13.575   1.888
83588SOL     OW52602   4.569   6.387   2.082
83588SOL    HW152603   4.502   6.332   2.042
83588SOL    HW252604   4.628   6.325   2.125
83589SOL     OW52605   7.098  14.215   5.129
83589SOL    HW152606   7.010  14.233   5.162
83589SOL    HW252607   7.095  14.123   5.102
83590SOL     OW52608   4.288   6.299   0.389
83590SOL    HW152609   4.374   6.257   0.385
83590SOL    HW252610   4.285   6.340   0.476
83591SOL     OW52611   0.148   4.333  13.945
83591SOL    HW152612   0.179   4.381  13.868
83591SOL    HW252613   0.056   4.358  13.953
83592SOL     OW52614   4.719  11.945  12.959
83592SOL    HW152615   4.806  11.957  12.998
83592SOL    HW252616   4.689  12.034  12.941
83593SOL     OW52617  10.691  13.378   3.948
83593SOL    HW152618  10.662  13.424   4.027
83593SOL    HW252619  10.611  13.367   3.896
83594SOL     OW52620  12.833  11.541   2.943
83594SOL    HW152621  12.810  11.612   3.003
83594SOL    HW252622  12.928  11.547   2.933
83595SOL     OW52623  12.666   5.353  12.203
83595SOL    HW152624  12.744   5.302  12.182
83595SOL    HW252625  12.612   5.347  12.124
83596SOL     OW52626   8.595   3.802  12.121
83596SOL    HW152627   8.507   3.841  12.124
83596SOL    HW252628   8.631   3.818  12.208
83597SOL     OW52629   2.799   9.226   8.837
83597SOL    HW152630   2.853   9.150   8.858
83597SOL    HW252631   2.749   9.199   8.760
83598SOL     OW52632  12.432   8.696   9.354
83598SOL    HW152633  12.510   8.723   9.306
83598SOL    HW252634  12.429   8.601   9.343
83599SOL     OW52635   3.367   7.833   1.839
83599SOL    HW152636   3.316   7.858   1.762
83599SOL    HW252637   3.403   7.916   1.872
83600SOL     OW52638  12.292   3.549   6.888
83600SOL    HW152639  12.371   3.506   6.921
83600SOL    HW252640  12.293   3.532   6.794
83601SOL     OW52641  13.157   3.216   1.610
83601SOL    HW152642  13.220   3.162   1.563
83601SOL    HW252643  13.174   3.305   1.578
83602SOL     OW52644  12.557   4.884  13.877
83602SOL    HW152645  12.616   4.809  13.876
83602SOL    HW252646  12.518   4.883  13.964
83603SOL     OW52647  10.747  11.554  11.810
83603SOL    HW152648  10.783  11.500  11.880
83603SOL    HW252649  10.784  11.518  11.730
83604SOL     OW52650   3.959   8.402   1.410
83604SOL    HW152651   3.884   8.362   1.366
83604SOL    HW252652   4.033   8.346   1.388
83605SOL     OW52653   7.751   4.165  12.142
83605SOL    HW152654   7.699   4.153  12.221
83605SOL    HW252655   7.842   4.158  12.172
83606SOL     OW52656   4.261   7.780   7.168
83606SOL    HW152657   4.311   7.698   7.176
83606SOL    HW252658   4.320   7.847   7.203
83607SOL     OW52659   3.799   1.663  11.736
83607SOL    HW152660   3.835   1.685  11.650
83607SOL    HW252661   3.817   1.739  11.790
83608SOL     OW52662  14.184   5.869   2.545
83608SOL    HW152663  14.262   5.899   2.497
83608SOL    HW252664  14.205   5.780   2.570
83609SOL     OW52665  12.039   5.895   6.317
83609SOL    HW152666  11.996   5.978   6.338
83609SOL    HW252667  12.117   5.893   6.373
83610SOL     OW52668   5.978   9.108   3.142
83610SOL    HW152669   6.025   9.061   3.073
83610SOL    HW252670   5.989   9.053   3.219
83611SOL     OW52671   9.924  11.098  12.408
83611SOL    HW152672   9.865  11.063  12.342
83611SOL    HW252673   9.872  11.162  12.457
83612SOL     OW52674   2.290  14.318  12.012
83612SOL    HW152675   2.378  14.283  12.001
83612SOL    HW252676   2.233  14.254  11.969
83613SOL     OW52677  11.140  12.491   3.275
83613SOL    HW152678  11.120  12.454   3.189
83613SOL    HW252679  11.212  12.552   3.258
83614SOL     OW52680  11.711   8.798   1.180
83614SOL    HW152681  11.787   8.812   1.236
83614SOL    HW252682  11.748   8.768   1.097
83615SOL     OW52683  13.219  13.301  12.043
83615SOL    HW152684  13.196  13.251  12.121
83615SOL    HW252685  13.258  13.382  12.077
83616SOL     OW52686   9.342  11.080  12.853
83616SOL    HW152687   9.309  11.036  12.932
83616SOL    HW252688   9.346  11.011  12.787
83617SOL     OW52689   2.804  14.359   7.495
83617SOL    HW152690   2.789  14.266   7.514
83617SOL    HW252691   2.750  14.405   7.559
83618SOL     OW52692  14.468   8.829   5.904
83618SOL    HW152693  14.410   8.866   5.970
83618SOL    HW252694  14.541   8.892   5.897
83619SOL     OW52695  13.206  12.016   9.645
83619SOL    HW152696  13.114  12.005   9.669
83619SOL    HW252697  13.210  11.982   9.555
83620SOL     OW52698  10.428  10.448   9.833
83620SOL    HW152699  10.351  10.454   9.777
83620SOL    HW252700  10.486  10.386   9.788
83621SOL     OW52701  12.977   8.323   8.872
83621SOL    HW152702  13.034   8.250   8.894
83621SOL    HW252703  12.972   8.321   8.776
83622SOL     OW52704   4.945   8.236  13.177
83622SOL    HW152705   4.880   8.305  13.191
83622SOL    HW252706   4.971   8.211  13.266
83623SOL     OW52707  12.987   4.449  11.155
83623SOL    HW152708  12.965   4.534  11.116
83623SOL    HW252709  13.005   4.469  11.247
83624SOL     OW52710   0.003  13.578   7.715
83624SOL    HW152711   0.005  13.672   7.699
83624SOL    HW252712   0.063  13.541   7.651
83625SOL     OW52713   2.418   1.410  13.480
83625SOL    HW152714   2.348   1.463  13.517
83625SOL    HW252715   2.498   1.459  13.497
83626SOL     OW52716   4.337  13.826   3.533
83626SOL    HW152717   4.366  13.750   3.584
83626SOL    HW252718   4.412  13.886   3.535
83627SOL     OW52719  12.284   5.093   3.040
83627SOL    HW152720  12.326   5.160   2.986
83627SOL    HW252721  12.257   5.025   2.978
83628SOL     OW52722   3.733   0.246   3.474
83628SOL    HW152723   3.766   0.191   3.545
83628SOL    HW252724   3.684   0.315   3.518
83629SOL     OW52725   7.304  13.852  12.511
83629SOL    HW152726   7.286  13.895  12.428
83629SOL    HW252727   7.221  13.856  12.558
83630SOL     OW52728  14.418  12.485  13.131
83630SOL    HW152729  14.404  12.441  13.046
83630SOL    HW252730  14.369  12.431  13.193
83631SOL     OW52731   5.767   7.496  11.670
83631SOL    HW152732   5.812   7.432  11.615
83631SOL    HW252733   5.691   7.523  11.618
83632SOL     OW52734  12.777  13.386   5.779
83632SOL    HW152735  12.810  13.372   5.690
83632SOL    HW252736  12.766  13.481   5.786
83633SOL     OW52737   7.076   6.489  14.310
83633SOL    HW152738   7.156   6.539  14.325
83633SOL    HW252739   7.039   6.477  14.397
83634SOL     OW52740   0.170   3.952   7.331
83634SOL    HW152741   0.232   3.882   7.350
83634SOL    HW252742   0.086   3.920   7.364
83635SOL     OW52743   7.608   4.701   8.834
83635SOL    HW152744   7.544   4.757   8.878
83635SOL    HW252745   7.693   4.739   8.855
83636SOL     OW52746   3.688  11.208   2.990
83636SOL    HW152747   3.610  11.184   2.940
83636SOL    HW252748   3.689  11.304   2.990
83637SOL     OW52749   0.076   9.320   4.811
83637SOL    HW152750   0.144   9.254   4.819
83637SOL    HW252751  14.876   9.271   4.794
83638SOL     OW52752  12.431   9.456   7.963
83638SOL    HW152753  12.386   9.541   7.970
83638SOL    HW252754  12.520   9.474   7.992
83639SOL     OW52755   1.882  14.579   5.000
83639SOL    HW152756   1.866  14.485   4.989
83639SOL    HW252757   1.803  14.621   4.967
83640SOL     OW52758   3.007  11.814   5.601
83640SOL    HW152759   2.951  11.891   5.606
83640SOL    HW252760   3.090  11.841   5.639
83641SOL     OW52761   5.681   2.520   3.347
83641SOL    HW152762   5.718   2.605   3.374
83641SOL    HW252763   5.691   2.464   3.424
83642SOL     OW52764  10.275   6.996   2.544
83642SOL    HW152765  10.296   6.911   2.504
83642SOL    HW252766  10.189   7.019   2.509
83643SOL     OW52767   3.014  14.016   5.287
83643SOL    HW152768   3.090  14.075   5.283
83643SOL    HW252769   3.041  13.946   5.346
83644SOL     OW52770  11.466   7.113   3.227
83644SOL    HW152771  11.453   7.108   3.133
83644SOL    HW252772  11.544   7.060   3.244
83645SOL     OW52773  12.608  11.764   7.578
83645SOL    HW152774  12.599  11.768   7.673
83645SOL    HW252775  12.689  11.717   7.563
83646SOL     OW52776  13.989  11.293  12.627
83646SOL    HW152777  14.000  11.198  12.636
83646SOL    HW252778  13.895  11.305  12.613
83647SOL     OW52779   5.305   0.020   4.010
83647SOL    HW152780   5.274   0.042   4.098
83647SOL    HW252781   5.331   0.104   3.972
83648SOL     OW52782   9.837  10.112   9.690
83648SOL    HW152783   9.884  10.121   9.607
83648SOL    HW252784   9.843  10.019   9.711
83649SOL     OW52785  10.108  14.266   0.339
83649SOL    HW152786  10.161  14.211   0.397
83649SOL    HW252787  10.085  14.209   0.266
83650SOL     OW52788  12.219   4.269   9.540
83650SOL    HW152789  12.250   4.219   9.464
83650SOL    HW252790  12.276   4.346   9.542
83651SOL     OW52791   4.650   8.832  10.118
83651SOL    HW152792   4.559   8.858  10.131
83651SOL    HW252793   4.652   8.739  10.141
83652SOL     OW52794   9.393   9.774  10.836
83652SOL    HW152795   9.337   9.778  10.759
83652SOL    HW252796   9.469   9.723  10.808
83653SOL     OW52797   7.949   6.387  11.031
83653SOL    HW152798   7.894   6.347  10.963
83653SOL    HW252799   7.906   6.363  11.113
83654SOL     OW52800  10.047   6.405   8.587
83654SOL    HW152801  10.064   6.495   8.613
83654SOL    HW252802  10.124   6.357   8.616
83655SOL     OW52803   9.270  11.541  13.557
83655SOL    HW152804   9.341  11.488  13.595
83655SOL    HW252805   9.191  11.506  13.598
83656SOL     OW52806   0.987  11.577  13.827
83656SOL    HW152807   0.999  11.483  13.824
83656SOL    HW252808   0.962  11.595  13.918
83657SOL     OW52809   5.119   4.158   0.990
83657SOL    HW152810   5.197   4.147   0.936
83657SOL    HW252811   5.150   4.201   1.070
83658SOL     OW52812   4.313  10.584  14.369
83658SOL    HW152813   4.399  10.627  14.372
83658SOL    HW252814   4.264  10.625  14.440
83659SOL     OW52815   6.241  14.873   9.863
83659SOL    HW152816   6.159  14.826   9.872
83659SOL    HW252817   6.218   0.074   9.817
83660SOL     OW52818   1.787  13.781  13.708
83660SOL    HW152819   1.879  13.757  13.710
83660SOL    HW252820   1.740  13.702  13.734
83661SOL     OW52821  11.101  12.095   6.851
83661SOL    HW152822  11.179  12.147   6.832
83661SOL    HW252823  11.088  12.105   6.945
83662SOL     OW52824   3.592  14.108  13.578
83662SOL    HW152825   3.525  14.122  13.511
83662SOL    HW252826   3.674  14.105  13.529
83663SOL     OW52827   6.045  14.212   4.829
83663SOL    HW152828   5.977  14.152   4.798
83663SOL    HW252829   6.103  14.223   4.753
83664SOL     OW52830  12.859   1.208  13.499
83664SOL    HW152831  12.821   1.129  13.461
83664SOL    HW252832  12.841   1.200  13.593
83665SOL     OW52833  13.666   1.053   6.603
83665SOL    HW152834  13.754   1.025   6.577
83665SOL    HW252835  13.670   1.057   6.699
83666SOL     OW52836  11.482   8.440   6.304
83666SOL    HW152837  11.398   8.453   6.347
83666SOL    HW252838  11.497   8.520   6.254
83667SOL     OW52839   2.407   8.214   9.635
83667SOL    HW152840   2.441   8.302   9.651
83667SOL    HW252841   2.312   8.224   9.642
83668SOL     OW52842   4.520  14.062   0.578
83668SOL    HW152843   4.486  13.973   0.584
83668SOL    HW252844   4.613  14.054   0.597
83669SOL     OW52845   9.440  13.148   6.669
83669SOL    HW152846   9.350  13.129   6.643
83669SOL    HW252847   9.483  13.175   6.588
83670SOL     OW52848  13.068   6.127   7.136
83670SOL    HW152849  13.135   6.133   7.068
83670SOL    HW252850  13.044   6.034   7.138
83671SOL     OW52851   7.800   9.431  11.248
83671SOL    HW152852   7.869   9.488  11.283
83671SOL    HW252853   7.737   9.424  11.320
83672SOL     OW52854   3.936   4.257   3.567
83672SOL    HW152855   3.888   4.200   3.507
83672SOL    HW252856   3.925   4.217   3.653
83673SOL     OW52857  14.028  10.525  12.563
83673SOL    HW152858  13.968  10.457  12.595
83673SOL    HW252859  14.051  10.497  12.474
83674SOL     OW52860   5.797   9.801   7.713
83674SOL    HW152861   5.839   9.732   7.764
83674SOL    HW252862   5.754   9.754   7.641
83675SOL     OW52863   0.509  12.534  12.997
83675SOL    HW152864   0.496  12.483  12.917
83675SOL    HW252865   0.590  12.583  12.981
83676SOL     OW52866   2.940  11.643   4.725
83676SOL    HW152867   3.014  11.583   4.728
83676SOL    HW252868   2.964  11.714   4.784
83677SOL     OW52869  12.212  13.137   2.832
83677SOL    HW152870  12.189  13.166   2.921
83677SOL    HW252871  12.287  13.192   2.808
83678SOL     OW52872  11.539  11.296   9.420
83678SOL    HW152873  11.577  11.366   9.368
83678SOL    HW252874  11.505  11.234   9.356
83679SOL     OW52875   6.914   3.922  11.491
83679SOL    HW152876   6.988   3.867  11.464
83679SOL    HW252877   6.841   3.891  11.436
83680SOL     OW52878   3.037  14.273   5.523
83680SOL    HW152879   3.081  14.226   5.595
83680SOL    HW252880   3.083  14.242   5.445
83681SOL     OW52881  11.356   6.224   1.470
83681SOL    HW152882  11.383   6.189   1.385
83681SOL    HW252883  11.368   6.319   1.463
83682SOL     OW52884  13.247  12.966  13.981
83682SOL    HW152885  13.235  13.027  13.908
83682SOL    HW252886  13.224  12.880  13.944
83683SOL     OW52887   8.257  12.698   1.863
83683SOL    HW152888   8.237  12.715   1.770
83683SOL    HW252889   8.246  12.603   1.872
83684SOL     OW52890  12.913  12.767   5.146
83684SOL    HW152891  12.933  12.800   5.234
83684SOL    HW252892  12.997  12.734   5.114
83685SOL     OW52893  12.899   8.298   5.248
83685SOL    HW152894  12.842   8.366   5.210
83685SOL    HW252895  12.970   8.289   5.185
83686SOL     OW52896   0.914  11.255  14.236
83686SOL    HW152897   0.901  11.284  14.146
83686SOL    HW252898   1.008  11.237  14.242
83687SOL     OW52899   5.975   2.829  14.834
83687SOL    HW152900   5.886   2.842  14.868
83687SOL    HW252901   5.968   2.846  14.741
83688SOL     OW52902   3.160  11.762   2.746
83688SOL    HW152903   3.250  11.746   2.721
83688SOL    HW252904   3.108  11.714   2.681
83689SOL     OW52905   1.234  13.125   8.019
83689SOL    HW152906   1.297  13.197   8.012
83689SOL    HW252907   1.217  13.116   8.113
83690SOL     OW52908   6.187  14.632  14.205
83690SOL    HW152909   6.198  14.561  14.268
83690SOL    HW252910   6.247  14.611  14.133
83691SOL     OW52911   3.534  11.373   2.245
83691SOL    HW152912   3.626  11.349   2.256
83691SOL    HW252913   3.534  11.469   2.243
83692SOL     OW52914   4.615   5.448   0.371
83692SOL    HW152915   4.538   5.410   0.413
83692SOL    HW252916   4.683   5.445   0.438
83693SOL     OW52917   4.588   0.282   4.463
83693SOL    HW152918   4.662   0.284   4.523
83693SOL    HW252919   4.513   0.259   4.518
83694SOL     OW52920   5.336   8.656   4.545
83694SOL    HW152921   5.301   8.600   4.476
83694SOL    HW252922   5.301   8.619   4.626
83695SOL     OW52923   7.002  14.874   8.114
83695SOL    HW152924   6.986   0.044   8.034
83695SOL    HW252925   7.084   0.030   8.148
83696SOL     OW52926   2.666   3.366   2.181
83696SOL    HW152927   2.736   3.377   2.116
83696SOL    HW252928   2.620   3.287   2.153
83697SOL     OW52929   8.962   3.396  13.077
83697SOL    HW152930   8.897   3.375  13.010
83697SOL    HW252931   9.025   3.323  13.074
83698SOL     OW52932   5.364  10.813  14.471
83698SOL    HW152933   5.434  10.794  14.408
83698SOL    HW252934   5.363  10.737  14.529
83699SOL     OW52935   2.609   0.873  10.815
83699SOL    HW152936   2.651   0.947  10.771
83699SOL    HW252937   2.682   0.823  10.853
83700SOL     OW52938   3.432   2.906   7.906
83700SOL    HW152939   3.482   2.955   7.972
83700SOL    HW252940   3.348   2.951   7.901
83701SOL     OW52941   5.418  10.302   8.374
83701SOL    HW152942   5.408  10.210   8.349
83701SOL    HW252943   5.364  10.350   8.312
83702SOL     OW52944   1.021   4.794   7.286
83702SOL    HW152945   1.084   4.754   7.346
83702SOL    HW252946   1.026   4.740   7.207
83703SOL     OW52947   9.287   8.765   8.339
83703SOL    HW152948   9.374   8.789   8.306
83703SOL    HW252949   9.244   8.722   8.265
83704SOL     OW52950   9.818   4.150   1.755
83704SOL    HW152951   9.777   4.122   1.836
83704SOL    HW252952   9.807   4.076   1.695
83705SOL     OW52953  11.058  14.706  10.596
83705SOL    HW152954  11.085  14.763  10.667
83705SOL    HW252955  10.998  14.759  10.543
83706SOL     OW52956   2.550   8.015   3.015
83706SOL    HW152957   2.557   8.089   2.954
83706SOL    HW252958   2.519   7.943   2.960
83707SOL     OW52959   4.792  10.906   2.649
83707SOL    HW152960   4.744  10.941   2.574
83707SOL    HW252961   4.786  10.975   2.715
83708SOL     OW52962  12.906   7.533   8.764
83708SOL    HW152963  12.836   7.476   8.733
83708SOL    HW252964  12.935   7.493   8.846
83709SOL     OW52965   9.603  11.578   8.098
83709SOL    HW152966   9.593  11.622   8.014
83709SOL    HW252967   9.689  11.536   8.092
83710SOL     OW52968   2.586  11.559  13.445
83710SOL    HW152969   2.571  11.650  13.420
83710SOL    HW252970   2.499  11.519  13.442
83711SOL     OW52971   5.877   8.012   9.094
83711SOL    HW152972   5.948   7.978   9.040
83711SOL    HW252973   5.912   8.092   9.133
83712SOL     OW52974   0.432   5.488   0.995
83712SOL    HW152975   0.392   5.573   0.977
83712SOL    HW252976   0.503   5.508   1.056
83713SOL     OW52977  13.738   3.363   6.650
83713SOL    HW152978  13.820   3.335   6.609
83713SOL    HW252979  13.763   3.435   6.707
83714SOL     OW52980  14.601   2.677  13.458
83714SOL    HW152981  14.672   2.641  13.511
83714SOL    HW252982  14.614   2.639  13.371
83715SOL     OW52983   2.170   1.415   0.986
83715SOL    HW152984   2.182   1.439   1.078
83715SOL    HW252985   2.183   1.497   0.938
83716SOL     OW52986  13.529   8.171   8.201
83716SOL    HW152987  13.518   8.076   8.199
83716SOL    HW252988  13.585   8.187   8.278
83717SOL     OW52989   5.787   0.335   2.285
83717SOL    HW152990   5.868   0.285   2.300
83717SOL    HW252991   5.799   0.416   2.334
83718SOL     OW52992  10.528  14.637   4.401
83718SOL    HW152993  10.474  14.582   4.345
83718SOL    HW252994  10.617  14.628   4.366
83719SOL     OW52995   5.847  14.417  11.341
83719SOL    HW152996   5.883  14.506  11.339
83719SOL    HW252997   5.841  14.391  11.250
83720SOL     OW52998  13.060  10.865  14.355
83720SOL    HW152999  12.995  10.864  14.285
83720SOL    HW253000  13.126  10.801  14.327
83721SOL     OW53001   4.034   5.547  11.271
83721SOL    HW153002   4.122   5.518  11.296
83721SOL    HW253003   3.995   5.471  11.228
83722SOL     OW53004   9.212  10.524   0.235
83722SOL    HW153005   9.300  10.528   0.273
83722SOL    HW253006   9.223  10.552   0.145
83723SOL     OW53007  12.830   6.837   1.959
83723SOL    HW153008  12.845   6.890   2.037
83723SOL    HW253009  12.853   6.748   1.986
83724SOL     OW53010   8.333  12.158   5.271
83724SOL    HW153011   8.376  12.136   5.188
83724SOL    HW253012   8.405  12.183   5.329
83725SOL     OW53013   0.167  14.395   7.903
83725SOL    HW153014   0.073  14.383   7.887
83725SOL    HW253015   0.177  14.382   7.997
83726SOL     OW53016   8.989  12.460   6.716
83726SOL    HW153017   8.925  12.427   6.653
83726SOL    HW253018   8.977  12.555   6.715
83727SOL     OW53019   3.605   8.996  13.147
83727SOL    HW153020   3.676   9.050  13.182
83727SOL    HW253021   3.560   8.963  13.225
83728SOL     OW53022   3.092   7.014   3.881
83728SOL    HW153023   3.078   6.993   3.789
83728SOL    HW253024   3.023   7.075   3.903
83729SOL     OW53025   2.749   1.181  11.478
83729SOL    HW153026   2.657   1.198  11.499
83729SOL    HW253027   2.785   1.141  11.558
83730SOL     OW53028  10.547   2.544  10.293
83730SOL    HW153029  10.461   2.538  10.336
83730SOL    HW253030  10.532   2.510  10.205
83731SOL     OW53031   2.386   4.215   6.157
83731SOL    HW153032   2.383   4.214   6.253
83731SOL    HW253033   2.412   4.126   6.133
83732SOL     OW53034   9.479   9.801   5.162
83732SOL    HW153035   9.485   9.712   5.129
83732SOL    HW253036   9.387   9.811   5.188
83733SOL     OW53037   3.244  10.494  11.246
83733SOL    HW153038   3.271  10.433  11.178
83733SOL    HW253039   3.295  10.573  11.230
83734SOL     OW53040   4.444   7.759  12.817
83734SOL    HW153041   4.467   7.741  12.726
83734SOL    HW253042   4.527   7.763  12.863
83735SOL     OW53043   4.931   3.679   6.468
83735SOL    HW153044   4.912   3.697   6.561
83735SOL    HW253045   4.998   3.743   6.445
83736SOL     OW53046  14.205   2.383   0.195
83736SOL    HW153047  14.112   2.364   0.197
83736SOL    HW253048  14.247   2.303   0.225
83737SOL     OW53049   8.409   2.543   6.510
83737SOL    HW153050   8.407   2.546   6.414
83737SOL    HW253051   8.335   2.597   6.537
83738SOL     OW53052  12.940  11.420  13.495
83738SOL    HW153053  12.850  11.416  13.463
83738SOL    HW253054  12.977  11.335  13.473
83739SOL     OW53055   4.109  14.247  12.695
83739SOL    HW153056   4.197  14.262  12.729
83739SOL    HW253057   4.120  14.245  12.600
83740SOL     OW53058   3.083   6.799   8.303
83740SOL    HW153059   3.174   6.826   8.291
83740SOL    HW253060   3.055   6.770   8.216
83741SOL     OW53061   0.091  10.617  11.150
83741SOL    HW153062   0.014  10.581  11.106
83741SOL    HW253063   0.145  10.652  11.078
83742SOL     OW53064  12.810   8.420  12.607
83742SOL    HW153065  12.737   8.466  12.650
83742SOL    HW253066  12.768   8.353  12.553
83743SOL     OW53067   5.595   9.851   2.746
83743SOL    HW153068   5.571   9.924   2.803
83743SOL    HW253069   5.539   9.861   2.669
83744SOL     OW53070  14.406  10.916  10.122
83744SOL    HW153071  14.362  10.957  10.047
83744SOL    HW253072  14.486  10.967  10.133
83745SOL     OW53073   7.913   6.268   1.487
83745SOL    HW153074   7.853   6.216   1.432
83745SOL    HW253075   7.920   6.352   1.441
83746SOL     OW53076   0.034  10.409  11.613
83746SOL    HW153077   0.045  10.359  11.532
83746SOL    HW253078  14.846  10.362  11.662
83747SOL     OW53079   6.152  12.502   1.411
83747SOL    HW153080   6.132  12.594   1.393
83747SOL    HW253081   6.191  12.503   1.499
83748SOL     OW53082  11.656  10.125   8.813
83748SOL    HW153083  11.722  10.142   8.746
83748SOL    HW253084  11.592  10.196   8.802
83749SOL     OW53085   6.232   5.815   1.643
83749SOL    HW153086   6.237   5.803   1.738
83749SOL    HW253087   6.173   5.890   1.631
83750SOL     OW53088   4.082  14.300  11.231
83750SOL    HW153089   4.052  14.331  11.317
83750SOL    HW253090   4.131  14.220  11.250
83751SOL     OW53091  11.698   9.363  11.374
83751SOL    HW153092  11.786   9.325  11.370
83751SOL    HW253093  11.656   9.320  11.449
83752SOL     OW53094  12.710   4.768   3.362
83752SOL    HW153095  12.773   4.796   3.295
83752SOL    HW253096  12.686   4.849   3.407
83753SOL     OW53097  12.592   1.739   4.833
83753SOL    HW153098  12.537   1.764   4.760
83753SOL    HW253099  12.545   1.768   4.911
83754SOL     OW53100   7.912   4.847   3.208
83754SOL    HW153101   7.930   4.865   3.115
83754SOL    HW253102   7.907   4.752   3.213
83755SOL     OW53103   7.919   6.560   5.049
83755SOL    HW153104   7.893   6.525   4.964
83755SOL    HW253105   8.004   6.520   5.067
83756SOL     OW53106   0.809  10.403  11.527
83756SOL    HW153107   0.736  10.464  11.524
83756SOL    HW253108   0.872  10.438  11.464
83757SOL     OW53109   3.082   3.811   1.438
83757SOL    HW153110   2.996   3.852   1.445
83757SOL    HW253111   3.118   3.844   1.356
83758SOL     OW53112   5.844  13.993  12.619
83758SOL    HW153113   5.928  14.031  12.646
83758SOL    HW253114   5.812  14.052  12.550
83759SOL     OW53115   9.703  10.309   8.798
83759SOL    HW153116   9.652  10.388   8.780
83759SOL    HW253117   9.637  10.242   8.815
83760SOL     OW53118   8.233  14.830   8.598
83760SOL    HW153119   8.257  14.782   8.677
83760SOL    HW253120   8.156   0.001   8.625
83761SOL     OW53121  12.706  14.625  12.471
83761SOL    HW153122  12.792  14.606  12.508
83761SOL    HW253123  12.644  14.588  12.534
83762SOL     OW53124  14.132  14.153   9.947
83762SOL    HW153125  14.057  14.098   9.925
83762SOL    HW253126  14.208  14.103   9.919
83763SOL     OW53127   5.667   4.756  13.905
83763SOL    HW153128   5.589   4.743  13.850
83763SOL    HW253129   5.686   4.849  13.896
83764SOL     OW53130   0.105   9.086  12.414
83764SOL    HW153131   0.057   9.080  12.331
83764SOL    HW253132   0.045   9.132  12.473
83765SOL     OW53133   9.231   7.884   0.796
83765SOL    HW153134   9.167   7.836   0.744
83765SOL    HW253135   9.315   7.847   0.772
83766SOL     OW53136   5.910   8.354   8.718
83766SOL    HW153137   5.831   8.301   8.712
83766SOL    HW253138   5.921   8.390   8.630
83767SOL     OW53139   2.592   7.699   0.086
83767SOL    HW153140   2.503   7.686   0.053
83767SOL    HW253141   2.607   7.625   0.144
83768SOL     OW53142  13.974   3.853   5.723
83768SOL    HW153143  13.976   3.795   5.647
83768SOL    HW253144  13.934   3.799   5.793
83769SOL     OW53145   3.248   4.857   6.930
83769SOL    HW153146   3.280   4.905   7.006
83769SOL    HW253147   3.174   4.909   6.898
83770SOL     OW53148  11.145  11.701   7.266
83770SOL    HW153149  11.238  11.712   7.244
83770SOL    HW253150  11.144  11.634   7.334
83771SOL     OW53151  14.812   5.338  12.025
83771SOL    HW153152  14.823   5.311  11.933
83771SOL    HW253153  14.836   5.260  12.076
83772SOL     OW53154  11.696   9.687   2.994
83772SOL    HW153155  11.619   9.630   2.984
83772SOL    HW253156  11.681   9.759   2.932
83773SOL     OW53157   1.352   2.903   4.080
83773SOL    HW153158   1.407   2.945   4.145
83773SOL    HW253159   1.361   2.809   4.098
83774SOL     OW53160  13.170   6.231   2.953
83774SOL    HW153161  13.146   6.142   2.927
83774SOL    HW253162  13.164   6.283   2.873
83775SOL     OW53163  14.599   2.868   7.841
83775SOL    HW153164  14.626   2.939   7.900
83775SOL    HW253165  14.510   2.846   7.869
83776SOL     OW53166   6.026  13.010   6.656
83776SOL    HW153167   5.943  13.048   6.627
83776SOL    HW253168   6.001  12.950   6.727
83777SOL     OW53169  12.318   7.208   1.231
83777SOL    HW153170  12.302   7.232   1.140
83777SOL    HW253171  12.253   7.258   1.280
83778SOL     OW53172   7.873   2.735  12.337
83778SOL    HW153173   7.914   2.694  12.413
83778SOL    HW253174   7.887   2.673  12.265
83779SOL     OW53175   0.225   9.626   1.622
83779SOL    HW153176   0.154   9.675   1.580
83779SOL    HW253177   0.180   9.557   1.672
83780SOL     OW53178   9.701  12.456  11.984
83780SOL    HW153179   9.690  12.537  12.034
83780SOL    HW253180   9.792  12.459  11.954
83781SOL     OW53181   7.025   3.990   7.898
83781SOL    HW153182   7.092   3.922   7.897
83781SOL    HW253183   7.016   4.014   7.990
83782SOL     OW53184   9.396   6.837  11.689
83782SOL    HW153185   9.401   6.927  11.720
83782SOL    HW253186   9.376   6.785  11.767
83783SOL     OW53187   3.811  14.230  11.231
83783SOL    HW153188   3.807  14.236  11.326
83783SOL    HW253189   3.884  14.288  11.207
83784SOL     OW53190  10.133   8.500   3.027
83784SOL    HW153191  10.094   8.453   3.100
83784SOL    HW253192  10.221   8.464   3.019
83785SOL     OW53193  12.360   0.075  14.560
83785SOL    HW153194  12.283   0.118  14.599
83785SOL    HW253195  12.363  14.869  14.603
83786SOL     OW53196  12.702   6.037   7.305
83786SOL    HW153197  12.756   5.969   7.346
83786SOL    HW253198  12.702   6.014   7.212
83787SOL     OW53199  13.435   6.647   3.400
83787SOL    HW153200  13.406   6.570   3.350
83787SOL    HW253201  13.530   6.637   3.406
83788SOL     OW53202  13.735  10.230   4.050
83788SOL    HW153203  13.829  10.209   4.048
83788SOL    HW253204  13.728  10.315   4.007
83789SOL     OW53205   5.873   6.434   3.006
83789SOL    HW153206   5.862   6.503   2.940
83789SOL    HW253207   5.968   6.428   3.019
83790SOL     OW53208  11.520   8.979   1.164
83790SOL    HW153209  11.599   8.925   1.156
83790SOL    HW253210  11.471   8.960   1.084
83791SOL     OW53211   7.060   7.518   1.417
83791SOL    HW153212   6.987   7.532   1.478
83791SOL    HW253213   7.080   7.424   1.425
83792SOL     OW53214   6.880   1.619   6.556
83792SOL    HW153215   6.944   1.621   6.485
83792SOL    HW253216   6.868   1.526   6.575
83793SOL     OW53217   1.337   1.886   7.712
83793SOL    HW153218   1.285   1.860   7.788
83793SOL    HW253219   1.350   1.981   7.723
83794SOL     OW53220   5.781   8.416   7.017
83794SOL    HW153221   5.719   8.397   7.088
83794SOL    HW253222   5.857   8.360   7.037
83795SOL     OW53223  12.903   6.829  11.065
83795SOL    HW153224  12.871   6.911  11.027
83795SOL    HW253225  12.954   6.788  10.996
83796SOL     OW53226   4.033   7.318   0.355
83796SOL    HW153227   3.981   7.265   0.293
83796SOL    HW253228   4.090   7.254   0.398
83797SOL     OW53229  11.266   0.437   8.316
83797SOL    HW153230  11.247   0.403   8.229
83797SOL    HW253231  11.352   0.477   8.308
83798SOL     OW53232  11.576  13.848  12.873
83798SOL    HW153233  11.504  13.803  12.918
83798SOL    HW253234  11.631  13.882  12.944
83799SOL     OW53235  11.767   8.280  11.301
83799SOL    HW153236  11.853   8.276  11.258
83799SOL    HW253237  11.763   8.368  11.337
83800SOL     OW53238   1.866   2.534  10.118
83800SOL    HW153239   1.872   2.599  10.187
83800SOL    HW253240   1.939   2.474  10.135
83801SOL     OW53241  11.228   5.739   0.010
83801SOL    HW153242  11.322   5.725  14.879
83801SOL    HW253243  11.193   5.653   0.032
83802SOL     OW53244  11.324  14.457  12.889
83802SOL    HW153245  11.386  14.442  12.961
83802SOL    HW253246  11.333  14.379  12.833
83803SOL     OW53247   5.143   6.902   3.109
83803SOL    HW153248   5.194   6.960   3.052
83803SOL    HW253249   5.112   6.832   3.050
83804SOL     OW53250  14.720   0.543   6.575
83804SOL    HW153251  14.741   0.450   6.575
83804SOL    HW253252  14.653   0.553   6.507
83805SOL     OW53253   0.995   7.256   9.401
83805SOL    HW153254   0.920   7.267   9.459
83805SOL    HW253255   0.975   7.311   9.325
83806SOL     OW53256   3.703   7.952   3.984
83806SOL    HW153257   3.644   7.894   3.935
83806SOL    HW253258   3.781   7.899   4.000
83807SOL     OW53259   9.484  14.722   1.461
83807SOL    HW153260   9.491  14.807   1.503
83807SOL    HW253261   9.440  14.667   1.526
83808SOL     OW53262  12.396   1.114   0.224
83808SOL    HW153263  12.414   1.124   0.318
83808SOL    HW253264  12.435   1.029   0.202
83809SOL     OW53265   4.507   6.851   6.392
83809SOL    HW153266   4.602   6.855   6.404
83809SOL    HW253267   4.487   6.758   6.389
83810SOL     OW53268   8.012   1.752  11.766
83810SOL    HW153269   7.969   1.667  11.772
83810SOL    HW253270   7.946   1.809  11.726
83811SOL     OW53271  11.500   4.035   5.173
83811SOL    HW153272  11.442   4.005   5.103
83811SOL    HW253273  11.588   4.009   5.145
83812SOL     OW53274   2.617   1.194  10.891
83812SOL    HW153275   2.588   1.271  10.939
83812SOL    HW253276   2.543   1.133  10.898
83813SOL     OW53277   0.736   0.339  14.874
83813SOL    HW153278   0.672   0.410  14.862
83813SOL    HW253279   0.801   0.376   0.054
83814SOL     OW53280  10.688  14.089   7.886
83814SOL    HW153281  10.694  13.993   7.883
83814SOL    HW253282  10.627  14.111   7.816
83815SOL     OW53283   4.459   5.038   8.391
83815SOL    HW153284   4.432   4.964   8.336
83815SOL    HW253285   4.397   5.038   8.463
83816SOL     OW53286   6.296   0.980  14.040
83816SOL    HW153287   6.311   0.926  14.118
83816SOL    HW253288   6.356   0.944  13.975
83817SOL     OW53289   6.207   8.996  13.597
83817SOL    HW153290   6.113   9.004  13.580
83817SOL    HW253291   6.243   8.958  13.517
83818SOL     OW53292  14.534  10.122   6.509
83818SOL    HW153293  14.566  10.138   6.598
83818SOL    HW253294  14.596  10.059   6.472
83819SOL     OW53295   1.888   7.273   8.859
83819SOL    HW153296   1.861   7.325   8.783
83819SOL    HW253297   1.961   7.221   8.827
83820SOL     OW53298  11.300   8.657   0.191
83820SOL    HW153299  11.244   8.686   0.262
83820SOL    HW253300  11.251   8.675   0.112
83821SOL     OW53301   3.483   6.076   0.881
83821SOL    HW153302   3.561   6.131   0.877
83821SOL    HW253303   3.410   6.139   0.889
83822SOL     OW53304  12.741   8.855   6.269
83822SOL    HW153305  12.714   8.765   6.248
83822SOL    HW253306  12.731   8.861   6.364
83823SOL     OW53307  14.360  10.268   4.824
83823SOL    HW153308  14.430  10.289   4.885
83823SOL    HW253309  14.384  10.181   4.790
83824SOL     OW53310   1.367  14.740   5.462
83824SOL    HW153311   1.410  14.724   5.546
83824SOL    HW253312   1.304  14.669   5.453
83825SOL     OW53313   6.860   1.468   2.961
83825SOL    HW153314   6.926   1.450   3.028
83825SOL    HW253315   6.891   1.548   2.918
83826SOL     OW53316   4.373   7.637  10.221
83826SOL    HW153317   4.318   7.689  10.279
83826SOL    HW253318   4.312   7.596  10.160
83827SOL     OW53319   6.410   4.664   7.750
83827SOL    HW153320   6.502   4.667   7.776
83827SOL    HW253321   6.372   4.596   7.805
83828SOL     OW53322   6.348   3.788  10.722
83828SOL    HW153323   6.297   3.744  10.654
83828SOL    HW253324   6.377   3.870  10.680
83829SOL     OW53325   5.449   0.779   3.040
83829SOL    HW153326   5.403   0.698   3.059
83829SOL    HW253327   5.398   0.819   2.969
83830SOL     OW53328   3.640  13.778   5.544
83830SOL    HW153329   3.634  13.686   5.571
83830SOL    HW253330   3.630  13.827   5.625
83831SOL     OW53331   4.935   7.795   2.574
83831SOL    HW153332   4.921   7.815   2.667
83831SOL    HW253333   4.898   7.870   2.527
83832SOL     OW53334   6.416  12.630  10.940
83832SOL    HW153335   6.383  12.719  10.926
83832SOL    HW253336   6.434  12.626  11.034
83833SOL     OW53337   7.754   0.305   7.184
83833SOL    HW153338   7.682   0.363   7.209
83833SOL    HW253339   7.732   0.276   7.095
83834SOL     OW53340   0.008  14.359   4.591
83834SOL    HW153341  14.820  14.347   4.657
83834SOL    HW253342   0.090  14.361   4.641
83835SOL     OW53343   7.840   0.093   7.021
83835SOL    HW153344   7.908   0.027   7.028
83835SOL    HW253345   7.886   0.176   7.028
83836SOL     OW53346   1.160   3.113   9.037
83836SOL    HW153347   1.152   3.029   8.992
83836SOL    HW253348   1.079   3.120   9.088
83837SOL     OW53349  10.776   2.036   5.664
83837SOL    HW153350  10.777   1.961   5.604
83837SOL    HW253351  10.862   2.076   5.652
83838SOL     OW53352  10.643  14.774   7.041
83838SOL    HW153353  10.596  14.690   7.044
83838SOL    HW253354  10.639  14.807   7.130
83839SOL     OW53355   9.925  10.948  10.960
83839SOL    HW153356  10.018  10.926  10.962
83839SOL    HW253357   9.889  10.900  10.886
83840SOL     OW53358  11.149  11.897   5.126
83840SOL    HW153359  11.193  11.840   5.062
83840SOL    HW253360  11.177  11.864   5.211
83841SOL     OW53361  11.863  11.086  12.898
83841SOL    HW153362  11.905  11.168  12.871
83841SOL    HW253363  11.936  11.030  12.925
83842SOL     OW53364  11.872  10.406   2.407
83842SOL    HW153365  11.875  10.316   2.442
83842SOL    HW253366  11.836  10.458   2.479
83843SOL     OW53367   5.379   9.372   9.290
83843SOL    HW153368   5.464   9.384   9.247
83843SOL    HW253369   5.400   9.326   9.372
83844SOL     OW53370   1.715   9.858   5.313
83844SOL    HW153371   1.713   9.890   5.222
83844SOL    HW253372   1.670   9.773   5.309
83845SOL     OW53373   0.351   2.629   5.831
83845SOL    HW153374   0.277   2.684   5.858
83845SOL    HW253375   0.386   2.672   5.753
83846SOL     OW53376   4.866   6.630   9.626
83846SOL    HW153377   4.884   6.695   9.693
83846SOL    HW253378   4.937   6.640   9.563
83847SOL     OW53379  14.540   7.793   5.908
83847SOL    HW153380  14.576   7.785   5.996
83847SOL    HW253381  14.503   7.707   5.889
83848SOL     OW53382   7.738   6.842  12.483
83848SOL    HW153383   7.686   6.846  12.403
83848SOL    HW253384   7.780   6.928  12.488
83849SOL     OW53385   1.505  10.359  11.085
83849SOL    HW153386   1.535  10.271  11.063
83849SOL    HW253387   1.480  10.397  11.000
83850SOL     OW53388  12.308   1.092  10.287
83850SOL    HW153389  12.272   1.075  10.199
83850SOL    HW253390  12.397   1.059  10.283
83851SOL     OW53391  12.611   8.547  13.273
83851SOL    HW153392  12.611   8.521  13.365
83851SOL    HW253393  12.547   8.617  13.268
83852SOL     OW53394   5.464   3.968  12.589
83852SOL    HW153395   5.475   3.932  12.677
83852SOL    HW253396   5.495   3.898  12.530
83853SOL     OW53397   4.007   0.171   3.603
83853SOL    HW153398   4.025   0.236   3.534
83853SOL    HW253399   4.004   0.088   3.556
83854SOL     OW53400   1.835   1.881   0.145
83854SOL    HW153401   1.777   1.911   0.075
83854SOL    HW253402   1.841   1.955   0.205
83855SOL     OW53403   3.444   8.232   3.021
83855SOL    HW153404   3.481   8.291   3.086
83855SOL    HW253405   3.485   8.147   3.039
83856SOL     OW53406   9.322  13.776  14.236
83856SOL    HW153407   9.407  13.818  14.246
83856SOL    HW253408   9.316  13.757  14.142
83857SOL     OW53409   8.244   4.024   8.317
83857SOL    HW153410   8.249   4.116   8.346
83857SOL    HW253411   8.335   3.999   8.303
83858SOL     OW53412  13.432  13.924   8.189
83858SOL    HW153413  13.423  13.829   8.194
83858SOL    HW253414  13.526  13.938   8.175
83859SOL     OW53415   6.507  11.868   1.292
83859SOL    HW153416   6.432  11.928   1.300
83859SOL    HW253417   6.503  11.836   1.202
83860SOL     OW53418   0.495  11.053  10.351
83860SOL    HW153419   0.577  11.082  10.391
83860SOL    HW253420   0.520  10.978  10.297
83861SOL     OW53421   0.869   7.008   6.961
83861SOL    HW153422   0.865   6.915   6.986
83861SOL    HW253423   0.957   7.019   6.926
83862SOL     OW53424   4.937  13.450   2.733
83862SOL    HW153425   4.912  13.358   2.727
83862SOL    HW253426   4.940  13.480   2.642
83863SOL     OW53427  14.457   7.051   8.413
83863SOL    HW153428  14.385   7.102   8.448
83863SOL    HW253429  14.424   7.018   8.329
83864SOL     OW53430   5.110   1.739   5.799
83864SOL    HW153431   5.175   1.763   5.733
83864SOL    HW253432   5.153   1.672   5.852
83865SOL     OW53433  11.365  13.494   8.714
83865SOL    HW153434  11.428  13.423   8.730
83865SOL    HW253435  11.279  13.452   8.725
83866SOL     OW53436  11.864   7.960   4.988
83866SOL    HW153437  11.769   7.961   4.998
83866SOL    HW253438  11.898   7.981   5.075
83867SOL     OW53439  12.862   0.918   4.228
83867SOL    HW153440  12.797   0.919   4.299
83867SOL    HW253441  12.938   0.962   4.265
83868SOL     OW53442  11.446  14.877   3.803
83868SOL    HW153443  11.458  14.784   3.824
83868SOL    HW253444  11.360   0.019   3.840
83869SOL     OW53445  10.053  13.977   7.264
83869SOL    HW153446   9.974  13.924   7.267
83869SOL    HW253447  10.124  13.913   7.273
83870SOL     OW53448   4.356  14.724   4.928
83870SOL    HW153449   4.404  14.653   4.883
83870SOL    HW253450   4.410  14.801   4.914
83871SOL     OW53451   9.054  12.738   5.585
83871SOL    HW153452   9.036  12.822   5.543
83871SOL    HW253453   9.014  12.673   5.528
83872SOL     OW53454  12.968   6.763   5.354
83872SOL    HW153455  12.950   6.707   5.430
83872SOL    HW253456  12.882   6.779   5.315
83873SOL     OW53457   3.094   8.966   8.197
83873SOL    HW153458   3.132   8.882   8.172
83873SOL    HW253459   2.999   8.950   8.197
83874SOL     OW53460  14.029   9.749   5.835
83874SOL    HW153461  13.988   9.781   5.916
83874SOL    HW253462  13.963   9.762   5.768
83875SOL     OW53463   4.752  11.864   9.713
83875SOL    HW153464   4.703  11.786   9.688
83875SOL    HW253465   4.828  11.864   9.654
83876SOL     OW53466   4.501   6.749   9.258
83876SOL    HW153467   4.545   6.788   9.333
83876SOL    HW253468   4.465   6.823   9.210
83877SOL     OW53469  13.922  11.744   2.573
83877SOL    HW153470  13.964  11.689   2.639
83877SOL    HW253471  13.838  11.701   2.556
83878SOL     OW53472   6.410  13.025   6.051
83878SOL    HW153473   6.395  12.956   6.115
83878SOL    HW253474   6.411  13.106   6.102
83879SOL     OW53475   3.776   2.657   7.122
83879SOL    HW153476   3.726   2.647   7.204
83879SOL    HW253477   3.710   2.683   7.057
83880SOL     OW53478   3.930   0.719   0.829
83880SOL    HW153479   3.888   0.638   0.800
83880SOL    HW253480   4.023   0.707   0.806
83881SOL     OW53481  11.376   6.121   3.952
83881SOL    HW153482  11.345   6.032   3.969
83881SOL    HW253483  11.349   6.139   3.862
83882SOL     OW53484   3.576   4.563   3.901
83882SOL    HW153485   3.662   4.582   3.864
83882SOL    HW253486   3.533   4.509   3.835
83883SOL     OW53487   4.760   2.627   1.160
83883SOL    HW153488   4.702   2.703   1.159
83883SOL    HW253489   4.847   2.663   1.171
83884SOL     OW53490  14.389   2.100   0.954
83884SOL    HW153491  14.407   2.111   1.047
83884SOL    HW253492  14.369   2.007   0.944
83885SOL     OW53493   4.952   1.229  12.795
83885SOL    HW153494   4.867   1.205  12.830
83885SOL    HW253495   4.994   1.279  12.865
83886SOL     OW53496   8.858   7.599   1.589
83886SOL    HW153497   8.825   7.656   1.519
83886SOL    HW253498   8.937   7.559   1.552
83887SOL     OW53499  10.604   7.036   6.223
83887SOL    HW153500  10.649   6.952   6.225
83887SOL    HW253501  10.525   7.023   6.276
83888SOL     OW53502  13.270   5.932   4.529
83888SOL    HW153503  13.359   5.898   4.539
83888SOL    HW253504  13.277   6.024   4.554
83889SOL     OW53505  13.314  10.257   7.273
83889SOL    HW153506  13.327  10.202   7.351
83889SOL    HW253507  13.225  10.289   7.281
83890SOL     OW53508   5.999  12.949   9.526
83890SOL    HW153509   6.059  12.991   9.464
83890SOL    HW253510   5.948  12.888   9.473
83891SOL     OW53511  14.228   2.333   5.455
83891SOL    HW153512  14.145   2.297   5.423
83891SOL    HW253513  14.257   2.270   5.521
83892SOL     OW53514   5.904   3.191   2.838
83892SOL    HW153515   5.973   3.256   2.835
83892SOL    HW253516   5.843   3.224   2.904
83893SOL     OW53517   1.484   4.722  10.366
83893SOL    HW153518   1.391   4.700  10.371
83893SOL    HW253519   1.515   4.715  10.456
83894SOL     OW53520  11.779  11.438   5.202
83894SOL    HW153521  11.850  11.451   5.265
83894SOL    HW253522  11.730  11.363   5.236
83895SOL     OW53523   0.989  11.910   3.460
83895SOL    HW153524   1.053  11.978   3.441
83895SOL    HW253525   1.008  11.883   3.550
83896SOL     OW53526   0.255   4.320  12.531
83896SOL    HW153527   0.338   4.366  12.515
83896SOL    HW253528   0.281   4.239  12.575
83897SOL     OW53529   2.153   0.330  10.532
83897SOL    HW153530   2.181   0.242  10.560
83897SOL    HW253531   2.060   0.319  10.511
83898SOL     OW53532  13.938   0.293   3.162
83898SOL    HW153533  13.863   0.233   3.165
83898SOL    HW253534  13.991   0.268   3.238
83899SOL     OW53535   5.828   3.468   8.406
83899SOL    HW153536   5.748   3.489   8.454
83899SOL    HW253537   5.805   3.392   8.353
83900SOL     OW53538  13.332  11.364   2.906
83900SOL    HW153539  13.405  11.398   2.958
83900SOL    HW253540  13.261  11.353   2.970
83901SOL     OW53541  14.526   7.054  12.837
83901SOL    HW153542  14.620   7.075  12.830
83901SOL    HW253543  14.489   7.083  12.754
83902SOL     OW53544  10.522  10.298  11.443
83902SOL    HW153545  10.437  10.255  11.435
83902SOL    HW253546  10.537  10.339  11.358
83903SOL     OW53547   0.862  12.162   8.258
83903SOL    HW153548   0.805  12.211   8.198
83903SOL    HW253549   0.938  12.218   8.270
83904SOL     OW53550   4.798   9.025   1.839
83904SOL    HW153551   4.841   9.091   1.785
83904SOL    HW253552   4.844   9.029   1.923
83905SOL     OW53553   5.942   8.930  14.730
83905SOL    HW153554   5.973   8.975  14.651
83905SOL    HW253555   5.997   8.963  14.800
83906SOL     OW53556   4.912   8.144   8.279
83906SOL    HW153557   4.939   8.149   8.371
83906SOL    HW253558   4.949   8.222   8.238
83907SOL     OW53559   0.449   0.277  11.973
83907SOL    HW153560   0.390   0.220  12.022
83907SOL    HW253561   0.482   0.340  12.038
83908SOL     OW53562   4.680  12.925  10.373
83908SOL    HW153563   4.730  12.929  10.292
83908SOL    HW253564   4.738  12.962  10.439
83909SOL     OW53565  10.325  13.713  11.316
83909SOL    HW153566  10.390  13.679  11.255
83909SOL    HW253567  10.372  13.724  11.398
83910SOL     OW53568  14.801  14.445   2.530
83910SOL    HW153569  14.862  14.495   2.476
83910SOL    HW253570  14.791  14.362   2.483
83911SOL     OW53571   7.425  14.441  14.052
83911SOL    HW153572   7.493  14.384  14.087
83911SOL    HW253573   7.452  14.459  13.962
83912SOL     OW53574   2.047   0.961   0.943
83912SOL    HW153575   1.995   0.912   1.006
83912SOL    HW253576   2.005   1.047   0.939
83913SOL     OW53577  13.108   6.040  14.335
83913SOL    HW153578  13.041   6.075  14.276
83913SOL    HW253579  13.137   6.116  14.386
83914SOL     OW53580   1.496   8.319  13.066
83914SOL    HW153581   1.492   8.327  13.162
83914SOL    HW253582   1.515   8.226  13.051
83915SOL     OW53583   9.724   3.879   1.086
83915SOL    HW153584   9.650   3.828   1.052
83915SOL    HW253585   9.754   3.831   1.162
83916SOL     OW53586  11.936   5.366   5.064
83916SOL    HW153587  11.924   5.296   5.000
83916SOL    HW253588  11.867   5.429   5.045
83917SOL     OW53589  11.243   3.306   9.433
83917SOL    HW153590  11.283   3.328   9.518
83917SOL    HW253591  11.239   3.390   9.388
83918SOL     OW53592   4.479   1.683   9.776
83918SOL    HW153593   4.506   1.770   9.746
83918SOL    HW253594   4.503   1.625   9.703
83919SOL     OW53595  13.299  12.418   9.836
83919SOL    HW153596  13.245  12.493   9.811
83919SOL    HW253597  13.378  12.428   9.784
83920SOL     OW53598  12.778   8.525   6.842
83920SOL    HW153599  12.720   8.519   6.766
83920SOL    HW253600  12.835   8.599   6.824
83921SOL     OW53601   9.878   7.753   9.461
83921SOL    HW153602   9.888   7.671   9.413
83921SOL    HW253603   9.807   7.799   9.415
83922SOL     OW53604   0.782   6.960  14.005
83922SOL    HW153605   0.728   7.034  13.976
83922SOL    HW253606   0.811   6.919  13.924
83923SOL     OW53607  12.488   4.863  11.819
83923SOL    HW153608  12.579   4.870  11.789
83923SOL    HW253609  12.440   4.834  11.741
83924SOL     OW53610  13.386   0.295  11.272
83924SOL    HW153611  13.371   0.387  11.249
83924SOL    HW253612  13.306   0.268  11.317
83925SOL     OW53613   0.193   1.752   7.309
83925SOL    HW153614   0.172   1.819   7.374
83925SOL    HW253615   0.289   1.747   7.310
83926SOL     OW53616  14.580  13.118  11.833
83926SOL    HW153617  14.511  13.139  11.770
83926SOL    HW253618  14.538  13.060  11.896
83927SOL     OW53619   4.491  11.648  13.416
83927SOL    HW153620   4.488  11.561  13.377
83927SOL    HW253621   4.420  11.648  13.480
83928SOL     OW53622   0.493   7.138  11.661
83928SOL    HW153623   0.415   7.107  11.706
83928SOL    HW253624   0.460   7.203  11.598
83929SOL     OW53625   7.248   9.878  11.920
83929SOL    HW153626   7.275   9.899  12.010
83929SOL    HW253627   7.289   9.794  11.902
83930SOL     OW53628  10.918   6.022   9.665
83930SOL    HW153629  10.907   5.959   9.737
83930SOL    HW253630  10.832   6.025   9.623
83931SOL     OW53631   3.536   8.005   3.126
83931SOL    HW153632   3.615   7.950   3.132
83931SOL    HW253633   3.466   7.948   3.157
83932SOL     OW53634   3.050   0.285  11.113
83932SOL    HW153635   2.992   0.358  11.093
83932SOL    HW253636   3.029   0.261  11.204
83933SOL     OW53637   9.774   3.231   1.393
83933SOL    HW153638   9.690   3.232   1.439
83933SOL    HW253639   9.821   3.306   1.430
83934SOL     OW53640  11.382  11.407   6.456
83934SOL    HW153641  11.378  11.496   6.490
83934SOL    HW253642  11.461  11.370   6.494
83935SOL     OW53643  13.647   8.025   7.820
83935SOL    HW153644  13.574   7.981   7.862
83935SOL    HW253645  13.722   7.967   7.833
83936SOL     OW53646   5.299  10.737  12.485
83936SOL    HW153647   5.334  10.820  12.519
83936SOL    HW253648   5.363  10.672  12.512
83937SOL     OW53649  10.679   9.131  12.297
83937SOL    HW153650  10.593   9.105  12.266
83937SOL    HW253651  10.704   9.205  12.241
83938SOL     OW53652   8.237   4.310  14.346
83938SOL    HW153653   8.174   4.294  14.275
83938SOL    HW253654   8.307   4.247  14.331
83939SOL     OW53655   8.680   8.132  13.080
83939SOL    HW153656   8.762   8.147  13.034
83939SOL    HW253657   8.623   8.205  13.054
83940SOL     OW53658  12.281   8.701   4.959
83940SOL    HW153659  12.203   8.646   4.962
83940SOL    HW253660  12.255   8.776   4.906
83941SOL     OW53661   2.222   4.210  11.340
83941SOL    HW153662   2.212   4.180  11.249
83941SOL    HW253663   2.174   4.146  11.392
83942SOL     OW53664   8.271   6.590  14.450
83942SOL    HW153665   8.244   6.605  14.541
83942SOL    HW253666   8.320   6.508  14.452
83943SOL     OW53667   6.297   7.087   1.066
83943SOL    HW153668   6.227   7.139   1.025
83943SOL    HW253669   6.371   7.147   1.071
83944SOL     OW53670   5.015   8.118   2.062
83944SOL    HW153671   5.110   8.105   2.057
83944SOL    HW253672   5.003   8.210   2.037
83945SOL     OW53673  11.968  14.652   3.941
83945SOL    HW153674  11.976  14.681   3.850
83945SOL    HW253675  12.057  14.659   3.976
83946SOL     OW53676   5.139   1.469   9.620
83946SOL    HW153677   5.169   1.541   9.564
83946SOL    HW253678   5.208   1.402   9.612
83947SOL     OW53679   1.377   3.034  10.149
83947SOL    HW153680   1.333   3.085  10.081
83947SOL    HW253681   1.338   3.065  10.231
83948SOL     OW53682  14.821   8.063   9.189
83948SOL    HW153683  14.865   8.148   9.189
83948SOL    HW253684  14.777   8.058   9.274
83949SOL     OW53685   3.774   6.551   7.745
83949SOL    HW153686   3.725   6.473   7.768
83949SOL    HW253687   3.722   6.624   7.780
83950SOL     OW53688   3.739  11.105   5.499
83950SOL    HW153689   3.829  11.098   5.466
83950SOL    HW253690   3.743  11.064   5.586
83951SOL     OW53691  12.455   7.011   0.709
83951SOL    HW153692  12.499   6.985   0.628
83951SOL    HW253693  12.363   6.990   0.695
83952SOL     OW53694  12.630   6.529   9.707
83952SOL    HW153695  12.572   6.494   9.774
83952SOL    HW253696  12.660   6.452   9.659
83953SOL     OW53697   4.314  13.620   8.224
83953SOL    HW153698   4.388  13.562   8.241
83953SOL    HW253699   4.270  13.582   8.148
83954SOL     OW53700  12.707   3.961   3.633
83954SOL    HW153701  12.668   4.017   3.565
83954SOL    HW253702  12.800   3.960   3.613
83955SOL     OW53703  12.381  11.384   1.842
83955SOL    HW153704  12.373  11.471   1.880
83955SOL    HW253705  12.299  11.340   1.865
83956SOL     OW53706  14.340   4.358   6.302
83956SOL    HW153707  14.329   4.379   6.209
83956SOL    HW253708  14.389   4.432   6.338
83957SOL     OW53709  13.376   5.450  10.879
83957SOL    HW153710  13.322   5.455  10.800
83957SOL    HW253711  13.432   5.374  10.865
83958SOL     OW53712  13.999   9.490   0.997
83958SOL    HW153713  14.086   9.521   0.973
83958SOL    HW253714  14.013   9.436   1.075
83959SOL     OW53715   1.927   7.010   7.034
83959SOL    HW153716   1.997   7.074   7.027
83959SOL    HW253717   1.929   6.983   7.126
83960SOL     OW53718  12.995   2.861   2.960
83960SOL    HW153719  13.032   2.945   2.934
83960SOL    HW253720  13.009   2.803   2.885
83961SOL     OW53721  12.298   5.087  13.440
83961SOL    HW153722  12.205   5.102  13.457
83961SOL    HW253723  12.330   5.042  13.518
83962SOL     OW53724   3.706  13.516   9.063
83962SOL    HW153725   3.764  13.592   9.064
83962SOL    HW253726   3.724  13.472   8.980
83963SOL     OW53727   6.094   5.396  10.577
83963SOL    HW153728   6.176   5.445  10.576
83963SOL    HW253729   6.079   5.372  10.486
83964SOL     OW53730  14.810  10.751   1.706
83964SOL    HW153731  14.725  10.791   1.723
83964SOL    HW253732  14.854  10.752   1.791
83965SOL     OW53733   7.524  10.399   6.821
83965SOL    HW153734   7.563  10.332   6.877
83965SOL    HW253735   7.596  10.429   6.766
83966SOL     OW53736   9.032  13.618  11.512
83966SOL    HW153737   9.054  13.686  11.576
83966SOL    HW253738   8.966  13.564  11.556
83967SOL     OW53739  13.757   8.174   8.029
83967SOL    HW153740  13.733   8.177   7.937
83967SOL    HW253741  13.696   8.233   8.072
83968SOL     OW53742   5.581  14.279   6.681
83968SOL    HW153743   5.632  14.249   6.606
83968SOL    HW253744   5.500  14.228   6.677
83969SOL     OW53745   6.864   5.226  14.228
83969SOL    HW153746   6.922   5.291  14.189
83969SOL    HW253747   6.846   5.164  14.157
83970SOL     OW53748   7.530  13.659   5.694
83970SOL    HW153749   7.507  13.706   5.774
83970SOL    HW253750   7.459  13.597   5.680
83971SOL     OW53751   0.647   3.397   2.272
83971SOL    HW153752   0.626   3.490   2.260
83971SOL    HW253753   0.690   3.371   2.191
83972SOL     OW53754   0.630   2.897   0.491
83972SOL    HW153755   0.645   2.863   0.402
83972SOL    HW253756   0.595   2.822   0.540
83973SOL     OW53757   7.426   7.944   9.645
83973SOL    HW153758   7.428   7.853   9.615
83973SOL    HW253759   7.392   7.939   9.735
83974SOL     OW53760   8.245   4.781   0.914
83974SOL    HW153761   8.272   4.696   0.880
83974SOL    HW253762   8.193   4.761   0.992
83975SOL     OW53763  10.974   7.775  10.165
83975SOL    HW153764  10.922   7.855  10.171
83975SOL    HW253765  11.051   7.801  10.114
83976SOL     OW53766   6.132  11.158   2.462
83976SOL    HW153767   6.138  11.098   2.388
83976SOL    HW253768   6.039  11.164   2.482
83977SOL     OW53769   8.067  11.743   7.965
83977SOL    HW153770   8.106  11.696   8.039
83977SOL    HW253771   7.973  11.746   7.985
83978SOL     OW53772  10.514  12.831   4.579
83978SOL    HW153773  10.584  12.896   4.581
83978SOL    HW253774  10.550  12.758   4.528
83979SOL     OW53775   8.997   3.212   0.425
83979SOL    HW153776   9.004   3.298   0.468
83979SOL    HW253777   9.045   3.152   0.481
83980SOL     OW53778   7.126  14.789   9.540
83980SOL    HW153779   7.121  14.694   9.529
83980SOL    HW253780   7.036  14.819   9.531
83981SOL     OW53781   8.715   5.747   9.168
83981SOL    HW153782   8.727   5.735   9.074
83981SOL    HW253783   8.630   5.709   9.187
83982SOL     OW53784   7.771   0.899   4.434
83982SOL    HW153785   7.684   0.936   4.422
83982SOL    HW253786   7.757   0.819   4.484
83983SOL     OW53787  12.559   1.511   5.664
83983SOL    HW153788  12.586   1.480   5.751
83983SOL    HW253789  12.640   1.537   5.622
83984SOL     OW53790   4.986   7.624  10.900
83984SOL    HW153791   5.052   7.635  10.832
83984SOL    HW253792   4.906   7.661  10.863
83985SOL     OW53793  10.962   7.546   5.213
83985SOL    HW153794  10.967   7.451   5.203
83985SOL    HW253795  11.048   7.571   5.246
83986SOL     OW53796  12.825  14.831   0.447
83986SOL    HW153797  12.733  14.833   0.422
83986SOL    HW253798  12.865   0.022   0.395
83987SOL     OW53799  12.941  13.236   2.189
83987SOL    HW153800  12.883  13.169   2.152
83987SOL    HW253801  12.920  13.315   2.140
83988SOL     OW53802   0.615   7.495  13.206
83988SOL    HW153803   0.547   7.549  13.247
83988SOL    HW253804   0.578   7.471  13.121
83989SOL     OW53805  11.207  14.041   8.600
83989SOL    HW153806  11.271  13.979   8.636
83989SOL    HW253807  11.210  14.116   8.660
83990SOL     OW53808   0.252   6.167  11.270
83990SOL    HW153809   0.239   6.116  11.189
83990SOL    HW253810   0.311   6.238  11.244
83991SOL     OW53811   3.422  13.623   6.508
83991SOL    HW153812   3.443  13.714   6.530
83991SOL    HW253813   3.391  13.627   6.418
83992SOL     OW53814   9.881  12.909  14.244
83992SOL    HW153815   9.920  12.880  14.161
83992SOL    HW253816   9.878  13.004  14.238
83993SOL     OW53817   8.771   6.615  14.165
83993SOL    HW153818   8.679   6.608  14.190
83993SOL    HW253819   8.777   6.698  14.118
83994SOL     OW53820   3.133   1.556   5.685
83994SOL    HW153821   3.115   1.619   5.615
83994SOL    HW253822   3.100   1.598   5.764
83995SOL     OW53823   0.938   8.232   3.669
83995SOL    HW153824   0.846   8.210   3.653
83995SOL    HW253825   0.977   8.232   3.582
83996SOL     OW53826   9.126  13.932   1.336
83996SOL    HW153827   9.040  13.937   1.379
83996SOL    HW253828   9.150  14.023   1.320
83997SOL     OW53829  14.373   3.219   7.749
83997SOL    HW153830  14.287   3.228   7.709
83997SOL    HW253831  14.361   3.251   7.839
83998SOL     OW53832  10.838   2.302   9.904
83998SOL    HW153833  10.838   2.287   9.810
83998SOL    HW253834  10.763   2.251   9.936
83999SOL     OW53835   6.097   5.427  13.161
83999SOL    HW153836   6.170   5.427  13.099
83999SOL    HW253837   6.131   5.469  13.240
84000SOL     OW53838  10.223   4.939   8.314
84000SOL    HW153839  10.269   4.881   8.253
84000SOL    HW253840  10.223   4.891   8.397
84001SOL     OW53841   5.341   1.847   0.751
84001SOL    HW153842   5.273   1.813   0.809
84001SOL    HW253843   5.320   1.809   0.665
84002SOL     OW53844   9.687   4.201   3.731
84002SOL    HW153845   9.644   4.284   3.752
84002SOL    HW253846   9.682   4.149   3.811
84003SOL     OW53847   6.120   5.129  12.891
84003SOL    HW153848   6.061   5.200  12.862
84003SOL    HW253849   6.192   5.131  12.828
84004SOL     OW53850  13.125  14.232   4.665
84004SOL    HW153851  13.105  14.311   4.614
84004SOL    HW253852  13.042  14.206   4.703
84005SOL     OW53853   7.676  11.411  11.618
84005SOL    HW153854   7.689  11.458  11.535
84005SOL    HW253855   7.588  11.437  11.646
84006SOL     OW53856   8.205   0.524  12.999
84006SOL    HW153857   8.158   0.442  13.019
84006SOL    HW253858   8.213   0.524  12.904
84007SOL     OW53859   0.033  10.420   3.254
84007SOL    HW153860   0.121  10.456   3.266
84007SOL    HW253861   0.036  10.335   3.298
84008SOL     OW53862  10.888   4.122   1.182
84008SOL    HW153863  10.902   4.216   1.188
84008SOL    HW253864  10.797   4.109   1.208
84009SOL     OW53865   7.058   4.419   3.887
84009SOL    HW153866   7.015   4.504   3.877
84009SOL    HW253867   7.099   4.423   3.973
84010SOL     OW53868  14.058  13.035  11.318
84010SOL    HW153869  14.046  13.061  11.227
84010SOL    HW253870  13.984  13.075  11.364
84011SOL     OW53871  12.668  10.288   4.564
84011SOL    HW153872  12.648  10.282   4.658
84011SOL    HW253873  12.582  10.283   4.521
84012SOL     OW53874  10.706   4.436   3.898
84012SOL    HW153875  10.775   4.415   3.835
84012SOL    HW253876  10.741   4.509   3.949
84013SOL     OW53877   2.499   2.013   4.448
84013SOL    HW153878   2.460   1.956   4.515
84013SOL    HW253879   2.461   2.099   4.466
84014SOL     OW53880   8.635   2.369   6.693
84014SOL    HW153881   8.712   2.331   6.652
84014SOL    HW253882   8.591   2.295   6.736
84015SOL     OW53883  14.005   8.173   0.735
84015SOL    HW153884  14.028   8.260   0.700
84015SOL    HW253885  14.090   8.131   0.751
84016SOL     OW53886   7.208   2.704   8.682
84016SOL    HW153887   7.287   2.683   8.633
84016SOL    HW253888   7.179   2.620   8.718
84017SOL     OW53889  13.148   8.476   6.202
84017SOL    HW153890  13.218   8.528   6.162
84017SOL    HW253891  13.191   8.394   6.228
84018SOL     OW53892  12.659  14.333   1.583
84018SOL    HW153893  12.623  14.291   1.504
84018SOL    HW253894  12.677  14.423   1.555
84019SOL     OW53895   6.653   2.910   6.762
84019SOL    HW153896   6.584   2.849   6.735
84019SOL    HW253897   6.699   2.933   6.682
84020SOL     OW53898  12.715  11.479   4.469
84020SOL    HW153899  12.627  11.517   4.468
84020SOL    HW253900  12.720  11.431   4.552
84021SOL     OW53901   7.788   2.998   2.117
84021SOL    HW153902   7.732   2.921   2.127
84021SOL    HW253903   7.849   2.994   2.190
84022SOL     OW53904   3.609   3.936   3.039
84022SOL    HW153905   3.676   3.970   2.980
84022SOL    HW253906   3.655   3.873   3.094
84023SOL     OW53907   8.280   0.704   1.257
84023SOL    HW153908   8.345   0.690   1.189
84023SOL    HW253909   8.288   0.627   1.314
84024SOL     OW53910   9.170  11.348   9.899
84024SOL    HW153911   9.089  11.371   9.853
84024SOL    HW253912   9.198  11.265   9.861
84025SOL     OW53913   2.147  13.335   9.566
84025SOL    HW153914   2.103  13.281   9.500
84025SOL    HW253915   2.124  13.425   9.542
84026SOL     OW53916   2.242   1.063   9.246
84026SOL    HW153917   2.311   1.123   9.273
84026SOL    HW253918   2.169   1.120   9.219
84027SOL     OW53919  13.077   4.985  12.070
84027SOL    HW153920  13.171   4.976  12.057
84027SOL    HW253921  13.038   4.916  12.017
84028SOL     OW53922  14.801  14.107   4.877
84028SOL    HW153923  14.800  14.034   4.938
84028SOL    HW253924  14.818  14.067   4.791
84029SOL     OW53925   1.652   2.626   6.423
84029SOL    HW153926   1.610   2.705   6.390
84029SOL    HW253927   1.737   2.624   6.380
84030SOL     OW53928   5.466   5.283   1.116
84030SOL    HW153929   5.375   5.254   1.114
84030SOL    HW253930   5.498   5.257   1.203
84031SOL     OW53931   8.123   5.681   7.210
84031SOL    HW153932   8.045   5.640   7.173
84031SOL    HW253933   8.135   5.640   7.295
84032SOL     OW53934   8.383  10.042   8.441
84032SOL    HW153935   8.420   9.961   8.478
84032SOL    HW253936   8.430  10.054   8.358
84033SOL     OW53937   8.468  13.395   8.881
84033SOL    HW153938   8.409  13.429   8.948
84033SOL    HW253939   8.428  13.419   8.798
84034SOL     OW53940  13.627  12.974   5.951
84034SOL    HW153941  13.701  12.983   5.892
84034SOL    HW253942  13.656  13.015   6.033
84035SOL     OW53943   3.200  12.334   4.105
84035SOL    HW153944   3.137  12.325   4.034
84035SOL    HW253945   3.236  12.246   4.116
84036SOL     OW53946   6.187   2.471  12.618
84036SOL    HW153947   6.220   2.557  12.646
84036SOL    HW253948   6.205   2.468  12.524
84037SOL     OW53949   7.452   7.324   9.955
84037SOL    HW153950   7.437   7.401   9.900
84037SOL    HW253951   7.481   7.361  10.039
84038SOL     OW53952   9.553   9.847  12.128
84038SOL    HW153953   9.486   9.836  12.196
84038SOL    HW253954   9.507   9.826  12.047
84039SOL     OW53955   4.525  14.595   3.952
84039SOL    HW153956   4.569  14.611   3.868
84039SOL    HW253957   4.564  14.659   4.012
84040SOL     OW53958  11.461  13.878  11.064
84040SOL    HW153959  11.549  13.852  11.093
84040SOL    HW253960  11.477  13.944  10.997
84041SOL     OW53961   3.559   6.616   9.408
84041SOL    HW153962   3.515   6.681   9.462
84041SOL    HW253963   3.586   6.663   9.329
84042SOL     OW53964   4.530   6.265   6.026
84042SOL    HW153965   4.578   6.334   6.071
84042SOL    HW253966   4.598   6.207   5.991
84043SOL     OW53967  12.750   4.805   5.331
84043SOL    HW153968  12.738   4.716   5.362
84043SOL    HW253969  12.842   4.810   5.305
84044SOL     OW53970  11.862   1.870   2.553
84044SOL    HW153971  11.926   1.865   2.624
84044SOL    HW253972  11.847   1.963   2.540
84045SOL     OW53973   4.961  11.856  14.447
84045SOL    HW153974   5.019  11.780  14.455
84045SOL    HW253975   4.891  11.827  14.388
84046SOL     OW53976   7.318  10.026   4.809
84046SOL    HW153977   7.314  10.014   4.903
84046SOL    HW253978   7.327  10.120   4.797
84047SOL     OW53979   9.290   4.424   9.104
84047SOL    HW153980   9.289   4.464   9.191
84047SOL    HW253981   9.199   4.427   9.075
84048SOL     OW53982   4.253   2.680  11.762
84048SOL    HW153983   4.337   2.722  11.777
84048SOL    HW253984   4.236   2.694  11.669
84049SOL     OW53985  10.598   3.273  11.296
84049SOL    HW153986  10.620   3.224  11.217
84049SOL    HW253987  10.557   3.353  11.264
84050SOL     OW53988  12.647   8.688   1.788
84050SOL    HW153989  12.741   8.703   1.799
84050SOL    HW253990  12.619   8.756   1.727
84051SOL     OW53991  13.715   2.262   0.313
84051SOL    HW153992  13.690   2.173   0.289
84051SOL    HW253993  13.809   2.266   0.296
84052SOL     OW53994   4.008  12.945  11.329
84052SOL    HW153995   3.939  13.008  11.349
84052SOL    HW253996   3.966  12.860  11.338
84053SOL     OW53997   5.208  14.251   5.991
84053SOL    HW153998   5.230  14.327   6.046
84053SOL    HW253999   5.264  14.181   6.024
84054SOL     OW54000   7.491   4.018   7.095
84054SOL    HW154001   7.475   4.094   7.039
84054SOL    HW254002   7.415   4.015   7.153
84055SOL     OW54003   2.614  12.136  12.162
84055SOL    HW154004   2.536  12.157  12.110
84055SOL    HW254005   2.579  12.120  12.250
84056SOL     OW54006   4.837   2.303   0.796
84056SOL    HW154007   4.797   2.362   0.732
84056SOL    HW254008   4.848   2.221   0.749
84057SOL     OW54009  14.709  10.552   4.129
84057SOL    HW154010  14.689  10.583   4.040
84057SOL    HW254011  14.791  10.503   4.119
84058SOL     OW54012   6.198  12.415  11.886
84058SOL    HW154013   6.110  12.432  11.918
84058SOL    HW254014   6.254  12.475  11.935
84059SOL     OW54015   1.216   3.092   2.056
84059SOL    HW154016   1.226   3.017   1.998
84059SOL    HW254017   1.305   3.118   2.078
84060SOL     OW54018   7.265   8.628   1.392
84060SOL    HW154019   7.216   8.618   1.310
84060SOL    HW254020   7.270   8.540   1.428
84061SOL     OW54021   7.578   0.813   3.124
84061SOL    HW154022   7.516   0.819   3.051
84061SOL    HW254023   7.564   0.893   3.174
84062SOL     OW54024   1.001   4.945  13.254
84062SOL    HW154025   1.009   4.932  13.160
84062SOL    HW254026   1.007   4.857  13.292
84063SOL     OW54027   0.300  11.716   8.654
84063SOL    HW154028   0.267  11.626   8.652
84063SOL    HW254029   0.236  11.767   8.603
84064SOL     OW54030   4.960  13.724  10.069
84064SOL    HW154031   4.894  13.705  10.135
84064SOL    HW254032   5.001  13.640  10.051
84065SOL     OW54033   4.588   0.397   1.362
84065SOL    HW154034   4.634   0.363   1.285
84065SOL    HW254035   4.581   0.491   1.346
84066SOL     OW54036   4.119  11.648   2.636
84066SOL    HW154037   4.096  11.700   2.712
84066SOL    HW254038   4.209  11.618   2.653
84067SOL     OW54039  14.854   2.666  13.615
84067SOL    HW154040  14.837   2.574  13.597
84067SOL    HW254041  14.830   2.677  13.707
84068SOL     OW54042  14.118   5.827   3.479
84068SOL    HW154043  14.085   5.784   3.558
84068SOL    HW254044  14.129   5.756   3.416
84069SOL     OW54045   3.630  14.615   5.807
84069SOL    HW154046   3.671  14.657   5.731
84069SOL    HW254047   3.669  14.658   5.882
84070SOL     OW54048   4.628  13.457   1.417
84070SOL    HW154049   4.568  13.527   1.390
84070SOL    HW254050   4.694  13.501   1.470
84071SOL     OW54051   5.350   6.529  14.527
84071SOL    HW154052   5.428   6.536  14.471
84071SOL    HW254053   5.294   6.601  14.500
84072SOL     OW54054   2.030   0.737  12.898
84072SOL    HW154055   1.958   0.791  12.866
84072SOL    HW254056   1.988   0.669  12.950
84073SOL     OW54057  14.043  11.167  12.118
84073SOL    HW154058  13.957  11.204  12.099
84073SOL    HW254059  14.047  11.161  12.213
84074SOL     OW54060   0.911  13.900   1.418
84074SOL    HW154061   0.959  13.871   1.495
84074SOL    HW254062   0.908  13.822   1.362
84075SOL     OW54063   2.897   7.196   3.943
84075SOL    HW154064   2.804   7.219   3.940
84075SOL    HW254065   2.916   7.183   4.036
84076SOL     OW54066   7.078  11.010  14.310
84076SOL    HW154067   6.998  11.031  14.261
84076SOL    HW254068   7.130  10.957  14.249
84077SOL     OW54069   6.316  10.413   4.505
84077SOL    HW154070   6.346  10.406   4.596
84077SOL    HW254071   6.329  10.505   4.483
84078SOL     OW54072   1.852  12.897   3.326
84078SOL    HW154073   1.856  12.981   3.281
84078SOL    HW254074   1.828  12.834   3.257
84079SOL     OW54075   6.459  14.512   5.379
84079SOL    HW154076   6.375  14.550   5.402
84079SOL    HW254077   6.496  14.572   5.314
84080SOL     OW54078   1.947  12.106   3.546
84080SOL    HW154079   1.933  12.149   3.462
84080SOL    HW254080   1.987  12.022   3.524
84081SOL     OW54081  12.333   1.053   2.048
84081SOL    HW154082  12.300   1.086   1.965
84081SOL    HW254083  12.303   0.962   2.051
84082SOL     OW54084  13.763  12.985   0.057
84082SOL    HW154085  13.733  12.949  14.853
84082SOL    HW254086  13.837  12.930   0.081
84083SOL     OW54087   0.776   5.820  13.999
84083SOL    HW154088   0.699   5.805  14.053
84083SOL    HW254089   0.748   5.881  13.931
84084SOL     OW54090   3.813   6.881   9.344
84084SOL    HW154091   3.864   6.959   9.363
84084SOL    HW254092   3.878   6.816   9.316
84085SOL     OW54093   1.289   0.745   8.129
84085SOL    HW154094   1.369   0.716   8.174
84085SOL    HW254095   1.309   0.732   8.036
84086SOL     OW54096   3.096   3.211  14.151
84086SOL    HW154097   3.181   3.244  14.122
84086SOL    HW254098   3.115   3.127  14.192
84087SOL     OW54099   7.888  11.448  13.946
84087SOL    HW154100   7.936  11.369  13.922
84087SOL    HW254101   7.947  11.520  13.925
84088SOL     OW54102  12.834  12.857   4.031
84088SOL    HW154103  12.782  12.779   4.048
84088SOL    HW254104  12.854  12.852   3.938
84089SOL     OW54105  14.781  11.523   0.624
84089SOL    HW154106  14.690  11.492   0.625
84089SOL    HW254107  14.773  11.617   0.644
84090SOL     OW54108  12.129  11.004   6.924
84090SOL    HW154109  12.160  11.088   6.892
84090SOL    HW254110  12.036  11.001   6.899
84091SOL     OW54111   8.066   8.189   1.665
84091SOL    HW154112   7.981   8.158   1.695
84091SOL    HW254113   8.080   8.271   1.711
84092SOL     OW54114   6.345  11.139   5.122
84092SOL    HW154115   6.301  11.220   5.148
84092SOL    HW254116   6.345  11.085   5.201
84093SOL     OW54117   8.697   8.074  13.938
84093SOL    HW154118   8.724   8.022  14.014
84093SOL    HW254119   8.602   8.080  13.946
84094SOL     OW54120  10.288   0.672   4.672
84094SOL    HW154121  10.243   0.752   4.699
84094SOL    HW254122  10.368   0.703   4.629
84095SOL     OW54123  10.608   6.436  10.571
84095SOL    HW154124  10.663   6.486  10.631
84095SOL    HW254125  10.667   6.372  10.532
84096SOL     OW54126  11.914   5.590   0.659
84096SOL    HW154127  11.892   5.677   0.625
84096SOL    HW254128  11.959   5.607   0.741
84097SOL     OW54129   5.651  12.684   8.442
84097SOL    HW154130   5.636  12.723   8.528
84097SOL    HW254131   5.715  12.742   8.400
84098SOL     OW54132   3.035  11.319   7.866
84098SOL    HW154133   3.110  11.266   7.839
84098SOL    HW254134   3.072  11.404   7.890
84099SOL     OW54135   1.201   3.805   2.491
84099SOL    HW154136   1.240   3.753   2.421
84099SOL    HW254137   1.135   3.747   2.530
84100SOL     OW54138   7.392   6.983   9.040
84100SOL    HW154139   7.374   6.892   9.017
84100SOL    HW254140   7.322   7.033   8.997
84101SOL     OW54141  11.881  12.206   1.161
84101SOL    HW154142  11.953  12.263   1.133
84101SOL    HW254143  11.925  12.128   1.197
84102SOL     OW54144   6.725   8.731   2.664
84102SOL    HW154145   6.679   8.716   2.747
84102SOL    HW254146   6.803   8.782   2.688
84103SOL     OW54147   6.287  14.143   5.231
84103SOL    HW154148   6.218  14.159   5.295
84103SOL    HW254149   6.257  14.188   5.152
84104SOL     OW54150   7.439  12.660   9.175
84104SOL    HW154151   7.489  12.699   9.104
84104SOL    HW254152   7.504  12.637   9.241
84105SOL     OW54153  14.134   8.577  12.786
84105SOL    HW154154  14.146   8.667  12.756
84105SOL    HW254155  14.041   8.570  12.806
84106SOL     OW54156   5.488   7.386   6.878
84106SOL    HW154157   5.472   7.376   6.784
84106SOL    HW254158   5.557   7.452   6.884
84107SOL     OW54159   5.109   1.994   4.908
84107SOL    HW154160   5.153   2.062   4.858
84107SOL    HW254161   5.173   1.922   4.912
84108SOL     OW54162   2.449   8.461   7.619
84108SOL    HW154163   2.455   8.397   7.548
84108SOL    HW254164   2.532   8.509   7.614
84109SOL     OW54165   6.735  13.783   7.081
84109SOL    HW154166   6.751  13.848   7.150
84109SOL    HW254167   6.725  13.835   7.001
84110SOL     OW54168   0.617   5.243   2.841
84110SOL    HW154169   0.703   5.235   2.798
84110SOL    HW254170   0.637   5.245   2.934
84111SOL     OW54171  14.411   3.038   5.741
84111SOL    HW154172  14.410   2.999   5.653
84111SOL    HW254173  14.485   2.995   5.785
84112SOL     OW54174  13.429   3.493   5.653
84112SOL    HW154175  13.350   3.440   5.662
84112SOL    HW254176  13.399   3.575   5.614
84113SOL     OW54177   3.406   6.096   4.148
84113SOL    HW154178   3.367   6.183   4.144
84113SOL    HW254179   3.364   6.048   4.077
84114SOL     OW54180   4.912   8.471   6.069
84114SOL    HW154181   4.906   8.511   6.156
84114SOL    HW254182   4.956   8.536   6.015
84115SOL     OW54183   6.888   0.255   2.034
84115SOL    HW154184   6.869   0.173   2.081
84115SOL    HW254185   6.884   0.323   2.101
84116SOL     OW54186  14.093  14.284   1.810
84116SOL    HW154187  14.072  14.285   1.903
84116SOL    HW254188  14.114  14.375   1.789
84117SOL     OW54189  11.428   9.535  14.515
84117SOL    HW154190  11.481   9.508  14.440
84117SOL    HW254191  11.460   9.623  14.536
84118SOL     OW54192   2.795   6.024   0.987
84118SOL    HW154193   2.780   6.014   0.892
84118SOL    HW254194   2.838   5.943   1.013
84119SOL     OW54195   6.686   5.656   8.895
84119SOL    HW154196   6.660   5.738   8.937
84119SOL    HW254197   6.626   5.591   8.932
84120SOL     OW54198   2.887  12.544   2.558
84120SOL    HW154199   2.823  12.608   2.526
84120SOL    HW254200   2.969  12.593   2.564
84121SOL     OW54201  11.072   0.101   4.861
84121SOL    HW154202  11.085   0.178   4.915
84121SOL    HW254203  10.977   0.093   4.851
84122SOL     OW54204  10.217   6.313   3.393
84122SOL    HW154205  10.309   6.333   3.409
84122SOL    HW254206  10.217   6.225   3.357
84123SOL     OW54207   4.634   1.579  13.125
84123SOL    HW154208   4.549   1.609  13.157
84123SOL    HW254209   4.617   1.546  13.037
84124SOL     OW54210   4.785   3.059   5.964
84124SOL    HW154211   4.775   2.964   5.968
84124SOL    HW254212   4.702   3.093   5.997
84125SOL     OW54213   4.522   8.683   7.916
84125SOL    HW154214   4.601   8.704   7.867
84125SOL    HW254215   4.552   8.664   8.005
84126SOL     OW54216   0.038   2.464  13.239
84126SOL    HW154217   0.046   2.479  13.144
84126SOL    HW254218   0.035   2.552  13.276
84127SOL     OW54219   8.628   5.437   0.552
84127SOL    HW154220   8.688   5.364   0.572
84127SOL    HW254221   8.605   5.425   0.460
84128SOL     OW54222  12.831   1.210  11.146
84128SOL    HW154223  12.855   1.265  11.071
84128SOL    HW254224  12.737   1.227  11.158
84129SOL     OW54225   8.218  11.309   7.486
84129SOL    HW154226   8.281  11.283   7.419
84129SOL    HW254227   8.249  11.394   7.517
84130SOL     OW54228   8.162   9.354   1.729
84130SOL    HW154229   8.183   9.261   1.739
84130SOL    HW254230   8.219   9.398   1.792
84131SOL     OW54231   7.326   2.658  14.364
84131SOL    HW154232   7.291   2.743  14.338
84131SOL    HW254233   7.307   2.652  14.458
84132SOL     OW54234  11.494   4.565  13.969
84132SOL    HW154235  11.541   4.637  13.928
84132SOL    HW254236  11.464   4.600  14.053
84133SOL     OW54237   0.440   1.609   3.426
84133SOL    HW154238   0.348   1.581   3.420
84133SOL    HW254239   0.474   1.601   3.337
84134SOL     OW54240   0.854   0.940   4.931
84134SOL    HW154241   0.934   0.899   4.901
84134SOL    HW254242   0.784   0.900   4.879
84135SOL     OW54243   1.088  13.905   2.148
84135SOL    HW154244   1.044  13.948   2.075
84135SOL    HW254245   1.144  13.973   2.186
84136SOL     OW54246   5.640  12.762  14.705
84136SOL    HW154247   5.583  12.837  14.724
84136SOL    HW254248   5.723  12.801  14.678
84137SOL     OW54249   3.990   8.805  10.467
84137SOL    HW154250   3.942   8.733  10.507
84137SOL    HW254251   4.055   8.763  10.411
84138SOL     OW54252  11.229  13.689   3.972
84138SOL    HW154253  11.165  13.682   4.043
84138SOL    HW254254  11.314  13.672   4.014
84139SOL     OW54255   8.064   5.686   4.155
84139SOL    HW154256   8.141   5.672   4.210
84139SOL    HW254257   7.996   5.630   4.192
84140SOL     OW54258   1.671   7.487   9.279
84140SOL    HW154259   1.722   7.470   9.358
84140SOL    HW254260   1.735   7.482   9.207
84141SOL     OW54261   9.608   8.589   2.789
84141SOL    HW154262   9.663   8.531   2.736
84141SOL    HW254263   9.630   8.568   2.880
84142SOL     OW54264   6.388  12.851  14.321
84142SOL    HW154265   6.424  12.939  14.336
84142SOL    HW254266   6.374  12.847  14.227
84143SOL     OW54267   2.402   2.742   2.710
84143SOL    HW154268   2.489   2.708   2.689
84143SOL    HW254269   2.418   2.814   2.771
84144SOL     OW54270  10.507  12.910   4.015
84144SOL    HW154271  10.443  12.853   3.974
84144SOL    HW254272  10.555  12.853   4.075
84145SOL     OW54273  11.799   9.890   1.697
84145SOL    HW154274  11.823   9.964   1.642
84145SOL    HW254275  11.825   9.916   1.786
84146SOL     OW54276  12.671   4.363   2.242
84146SOL    HW154277  12.692   4.355   2.149
84146SOL    HW254278  12.605   4.296   2.258
84147SOL     OW54279   3.934  12.197   8.760
84147SOL    HW154280   3.989  12.151   8.696
84147SOL    HW254281   3.892  12.128   8.810
84148SOL     OW54282   9.604  13.393  11.460
84148SOL    HW154283   9.608  13.298  11.448
84148SOL    HW254284   9.592  13.405  11.555
84149SOL     OW54285   7.349   2.373   1.792
84149SOL    HW154286   7.372   2.419   1.711
84149SOL    HW254287   7.273   2.321   1.769
84150SOL     OW54288   5.915  14.847  11.040
84150SOL    HW154289   5.993   0.017  11.063
84150SOL    HW254290   5.930  14.760  11.077
84151SOL     OW54291   3.704   1.902   7.888
84151SOL    HW154292   3.644   1.938   7.953
84151SOL    HW254293   3.748   1.830   7.933
84152SOL     OW54294  12.204  10.696  13.929
84152SOL    HW154295  12.236  10.637  13.998
84152SOL    HW254296  12.177  10.638  13.858
84153SOL     OW54297   1.149  12.079   7.594
84153SOL    HW154298   1.192  11.995   7.611
84153SOL    HW254299   1.063  12.056   7.560
84154SOL     OW54300   4.343   8.699   7.228
84154SOL    HW154301   4.334   8.758   7.154
84154SOL    HW254302   4.262   8.709   7.278
84155SOL     OW54303  12.215   7.807   5.252
84155SOL    HW154304  12.223   7.861   5.331
84155SOL    HW254305  12.281   7.738   5.263
84156SOL     OW54306  13.475   2.962   2.264
84156SOL    HW154307  13.415   2.890   2.282
84156SOL    HW254308  13.441   3.003   2.185
84157SOL     OW54309   4.173   4.464   5.099
84157SOL    HW154310   4.210   4.487   5.185
84157SOL    HW254311   4.245   4.480   5.037
84158SOL     OW54312  11.334  11.907   6.942
84158SOL    HW154313  11.342  11.897   7.036
84158SOL    HW254314  11.421  11.889   6.907
84159SOL     OW54315  12.446   2.083   0.018
84159SOL    HW154316  12.423   2.100  14.807
84159SOL    HW254317  12.425   2.164   0.064
84160SOL     OW54318   9.342   8.338  13.603
84160SOL    HW154319   9.302   8.401  13.543
84160SOL    HW254320   9.299   8.255  13.581
84161SOL     OW54321  10.804  11.566   7.653
84161SOL    HW154322  10.851  11.493   7.613
84161SOL    HW254323  10.817  11.639   7.592
84162SOL     OW54324   2.363  10.673  12.661
84162SOL    HW154325   2.392  10.730  12.733
84162SOL    HW254326   2.268  10.683  12.660
84163SOL     OW54327   7.361  12.325   0.996
84163SOL    HW154328   7.437  12.272   1.017
84163SOL    HW254329   7.386  12.414   1.020
84164SOL     OW54330   3.404   4.194  11.624
84164SOL    HW154331   3.471   4.221  11.686
84164SOL    HW254332   3.450   4.190  11.540
84165SOL     OW54333   9.407   1.756   7.655
84165SOL    HW154334   9.326   1.731   7.698
84165SOL    HW254335   9.459   1.797   7.724
84166SOL     OW54336   1.589  14.337   0.457
84166SOL    HW154337   1.672  14.378   0.432
84166SOL    HW254338   1.601  14.244   0.437
84167SOL     OW54339   3.652  13.873   1.059
84167SOL    HW154340   3.742  13.894   1.035
84167SOL    HW254341   3.598  13.929   1.003
84168SOL     OW54342   7.471  13.346   1.730
84168SOL    HW154343   7.405  13.337   1.799
84168SOL    HW254344   7.422  13.377   1.654
84169SOL     OW54345   4.454   8.311   2.631
84169SOL    HW154346   4.457   8.232   2.685
84169SOL    HW254347   4.474   8.280   2.543
84170SOL     OW54348   5.318  13.409  11.880
84170SOL    HW154349   5.233  13.416  11.836
84170SOL    HW254350   5.302  13.352  11.955
84171SOL     OW54351   8.775  11.135  10.909
84171SOL    HW154352   8.845  11.115  10.971
84171SOL    HW254353   8.717  11.194  10.958
84172SOL     OW54354   6.297  13.585   5.940
84172SOL    HW154355   6.215  13.575   5.892
84172SOL    HW254356   6.356  13.627   5.878
84173SOL     OW54357  13.235   5.603   0.113
84173SOL    HW154358  13.143   5.625   0.124
84173SOL    HW254359  13.268   5.668   0.051
84174SOL     OW54360   9.701   4.180   6.167
84174SOL    HW154361   9.756   4.256   6.146
84174SOL    HW254362   9.614   4.204   6.138
84175SOL     OW54363   9.554  11.643  12.583
84175SOL    HW154364   9.574  11.601  12.500
84175SOL    HW254365   9.479  11.594  12.618
84176SOL     OW54366   7.734   7.643   2.140
84176SOL    HW154367   7.660   7.683   2.095
84176SOL    HW254368   7.743   7.694   2.220
84177SOL     OW54369   6.671   8.707  12.907
84177SOL    HW154370   6.674   8.633  12.968
84177SOL    HW254371   6.743   8.763  12.935
84178SOL     OW54372   1.010   5.708  11.078
84178SOL    HW154373   0.995   5.640  11.144
84178SOL    HW254374   1.065   5.666  11.012
84179SOL     OW54375  12.445   7.775   9.843
84179SOL    HW154376  12.403   7.689   9.854
84179SOL    HW254377  12.485   7.770   9.756
84180SOL     OW54378  13.313   2.594   3.717
84180SOL    HW154379  13.231   2.550   3.738
84180SOL    HW254380  13.378   2.552   3.773
84181SOL     OW54381  11.409  11.229   7.434
84181SOL    HW154382  11.327  11.221   7.484
84181SOL    HW254383  11.430  11.322   7.438
84182SOL     OW54384   9.284   4.023  13.351
84182SOL    HW154385   9.306   3.930  13.339
84182SOL    HW254386   9.235   4.026  13.433
84183SOL     OW54387   6.692   5.888   3.468
84183SOL    HW154388   6.748   5.872   3.392
84183SOL    HW254389   6.741   5.951   3.520
84184SOL     OW54390   9.710   5.349  13.841
84184SOL    HW154391   9.648   5.342  13.914
84184SOL    HW254392   9.654   5.364  13.764
84185SOL     OW54393  11.455  13.614  11.857
84185SOL    HW154394  11.471  13.664  11.777
84185SOL    HW254395  11.405  13.538  11.829
84186SOL     OW54396  10.261   7.865   4.398
84186SOL    HW154397  10.240   7.958   4.392
84186SOL    HW254398  10.178   7.824   4.423
84187SOL     OW54399   2.315   3.705   6.373
84187SOL    HW154400   2.248   3.743   6.317
84187SOL    HW254401   2.266   3.661   6.443
84188SOL     OW54402  11.048   9.977   2.970
84188SOL    HW154403  11.053  10.071   2.985
84188SOL    HW254404  10.958   9.954   2.991
84189SOL     OW54405  11.009   3.857  14.366
84189SOL    HW154406  11.072   3.838  14.296
84189SOL    HW254407  10.996   3.772  14.410
84190SOL     OW54408   2.838  10.337  10.420
84190SOL    HW154409   2.850  10.432  10.429
84190SOL    HW254410   2.898  10.299  10.485
84191SOL     OW54411   1.885   8.184   7.481
84191SOL    HW154412   1.867   8.273   7.450
84191SOL    HW254413   1.883   8.130   7.402
84192SOL     OW54414   7.012   2.299  11.344
84192SOL    HW154415   7.042   2.210  11.361
84192SOL    HW254416   6.948   2.317  11.412
84193SOL     OW54417   1.251  11.860  10.120
84193SOL    HW154418   1.234  11.873  10.213
84193SOL    HW254419   1.222  11.942  10.079
84194SOL     OW54420  12.989   8.742  11.236
84194SOL    HW154421  13.020   8.753  11.147
84194SOL    HW254422  13.069   8.726  11.287
84195SOL     OW54423   8.085   4.772  13.518
84195SOL    HW154424   8.148   4.718  13.470
84195SOL    HW254425   8.134   4.809  13.590
84196SOL     OW54426   5.135   0.445  14.585
84196SOL    HW154427   5.169   0.458  14.674
84196SOL    HW254428   5.040   0.439  14.597
84197SOL     OW54429   3.694  11.090  14.207
84197SOL    HW154430   3.775  11.129  14.238
84197SOL    HW254431   3.691  11.003  14.247
84198SOL     OW54432   1.093  13.970   3.602
84198SOL    HW154433   1.124  14.034   3.537
84198SOL    HW254434   0.997  13.974   3.594
84199SOL     OW54435   4.559  10.845   3.210
84199SOL    HW154436   4.565  10.862   3.116
84199SOL    HW254437   4.578  10.929   3.251
84200SOL     OW54438   6.433  14.594   3.490
84200SOL    HW154439   6.423  14.580   3.585
84200SOL    HW254440   6.512  14.648   3.483
84201SOL     OW54441   4.073  11.774   9.198
84201SOL    HW154442   4.143  11.830   9.162
84201SOL    HW254443   4.039  11.727   9.121
84202SOL     OW54444   7.108  13.037  13.411
84202SOL    HW154445   7.149  12.966  13.362
84202SOL    HW254446   7.149  13.117  13.376
84203SOL     OW54447  12.548   1.472   4.872
84203SOL    HW154448  12.568   1.565   4.865
84203SOL    HW254449  12.633   1.430   4.887
84204SOL     OW54450  13.771  13.823   3.999
84204SOL    HW154451  13.779  13.918   3.997
84204SOL    HW254452  13.727  13.801   3.917
84205SOL     OW54453  12.596   9.836   9.145
84205SOL    HW154454  12.625   9.918   9.105
84205SOL    HW254455  12.507   9.823   9.112
84206SOL     OW54456   0.656   9.983  13.089
84206SOL    HW154457   0.741   9.944  13.069
84206SOL    HW254458   0.650  10.059  13.030
84207SOL     OW54459   2.102   1.526   2.646
84207SOL    HW154460   2.103   1.582   2.569
84207SOL    HW254461   2.086   1.438   2.612
84208SOL     OW54462   3.516  13.316   0.462
84208SOL    HW154463   3.509  13.281   0.373
84208SOL    HW254464   3.533  13.240   0.517
84209SOL     OW54465   8.994   1.978   1.060
84209SOL    HW154466   8.989   2.074   1.066
84209SOL    HW254467   8.916   1.953   1.011
84210SOL     OW54468  14.109   6.289  10.303
84210SOL    HW154469  14.138   6.380  10.305
84210SOL    HW254470  14.186   6.239  10.330
84211SOL     OW54471   4.464   3.498   0.572
84211SOL    HW154472   4.380   3.498   0.526
84211SOL    HW254473   4.528   3.517   0.504
84212SOL     OW54474   2.707   7.296   8.428
84212SOL    HW154475   2.632   7.254   8.470
84212SOL    HW254476   2.779   7.283   8.491
84213SOL     OW54477   9.163  12.255   4.178
84213SOL    HW154478   9.162  12.163   4.153
84213SOL    HW254479   9.160  12.303   4.095
84214SOL     OW54480  14.795  11.653   8.449
84214SOL    HW154481  14.783  11.732   8.502
84214SOL    HW254482  14.735  11.664   8.375
84215SOL     OW54483   1.029   8.643   2.890
84215SOL    HW154484   0.986   8.683   2.966
84215SOL    HW254485   0.996   8.553   2.889
84216SOL     OW54486   9.760  14.351   6.050
84216SOL    HW154487   9.796  14.329   5.964
84216SOL    HW254488   9.670  14.317   6.048
84217SOL     OW54489   7.792   7.566  10.958
84217SOL    HW154490   7.730   7.600  11.023
84217SOL    HW254491   7.789   7.629  10.886
84218SOL     OW54492   7.367  14.433   0.044
84218SOL    HW154493   7.367  14.347   0.000
84218SOL    HW254494   7.320  14.418   0.126
84219SOL     OW54495   9.922   1.382  13.847
84219SOL    HW154496   9.937   1.420  13.760
84219SOL    HW254497   9.878   1.452  13.896
84220SOL     OW54498  13.318   2.617  13.032
84220SOL    HW154499  13.391   2.580  12.982
84220SOL    HW254500  13.260   2.542  13.048
84221SOL     OW54501   6.991   4.288   5.646
84221SOL    HW154502   6.953   4.232   5.713
84221SOL    HW254503   7.018   4.228   5.576
84222SOL     OW54504  12.345   9.198   4.939
84222SOL    HW154505  12.406   9.265   4.907
84222SOL    HW254506  12.356   9.199   5.034
84223SOL     OW54507  11.459   8.415   4.648
84223SOL    HW154508  11.503   8.425   4.564
84223SOL    HW254509  11.530   8.405   4.712
84224SOL     OW54510   9.703   2.359  12.074
84224SOL    HW154511   9.648   2.335  12.000
84224SOL    HW254512   9.642   2.395  12.139
84225SOL     OW54513   0.546   6.112  13.104
84225SOL    HW154514   0.571   6.205  13.108
84225SOL    HW254515   0.630   6.065  13.110
84226SOL     OW54516   6.317   0.096   7.465
84226SOL    HW154517   6.393   0.152   7.446
84226SOL    HW254518   6.327   0.073   7.557
84227SOL     OW54519  13.513   7.827   0.240
84227SOL    HW154520  13.504   7.921   0.249
84227SOL    HW254521  13.602   7.808   0.271
84228SOL     OW54522   5.029   6.125  12.854
84228SOL    HW154523   5.109   6.074  12.863
84228SOL    HW254524   5.057   6.216  12.853
84229SOL     OW54525   0.089  12.448  10.167
84229SOL    HW154526   0.133  12.531  10.146
84229SOL    HW254527   0.106  12.392  10.091
84230SOL     OW54528  12.346   8.677   6.733
84230SOL    HW154529  12.273   8.618   6.715
84230SOL    HW254530  12.423   8.631   6.699
84231SOL     OW54531   5.508  14.234   7.817
84231SOL    HW154532   5.567  14.267   7.749
84231SOL    HW254533   5.567  14.203   7.887
84232SOL     OW54534   9.772  14.532  13.750
84232SOL    HW154535   9.834  14.469  13.787
84232SOL    HW254536   9.735  14.488  13.673
84233SOL     OW54537   9.324   1.655   2.960
84233SOL    HW154538   9.366   1.660   3.046
84233SOL    HW254539   9.237   1.620   2.978
84234SOL     OW54540   6.613  13.866   0.575
84234SOL    HW154541   6.543  13.874   0.640
84234SOL    HW254542   6.678  13.810   0.618
84235SOL     OW54543  12.668   4.198   0.624
84235SOL    HW154544  12.659   4.293   0.623
84235SOL    HW254545  12.626   4.172   0.706
84236SOL     OW54546   8.309  14.643  14.305
84236SOL    HW154547   8.397  14.609  14.317
84236SOL    HW254548   8.298  14.651  14.211
84237SOL     OW54549   6.868   1.367   3.612
84237SOL    HW154550   6.880   1.305   3.540
84237SOL    HW254551   6.956   1.379   3.648
84238SOL     OW54552   8.152  14.524  11.167
84238SOL    HW154553   8.148  14.523  11.072
84238SOL    HW254554   8.160  14.432  11.192
84239SOL     OW54555   6.926  10.565   6.934
84239SOL    HW154556   6.849  10.611   6.967
84239SOL    HW254557   6.890  10.489   6.887
84240SOL     OW54558  10.267   3.415   8.966
84240SOL    HW154559  10.211   3.366   8.907
84240SOL    HW254560  10.343   3.439   8.912
84241SOL     OW54561   5.013   5.038   0.920
84241SOL    HW154562   4.941   5.085   0.878
84241SOL    HW254563   5.073   5.107   0.949
84242SOL     OW54564   2.130   1.035   3.057
84242SOL    HW154565   2.072   1.092   3.007
84242SOL    HW254566   2.124   1.067   3.147
84243SOL     OW54567  11.969  11.729   4.487
84243SOL    HW154568  11.962  11.802   4.425
84243SOL    HW254569  11.996  11.770   4.569
84244SOL     OW54570  14.074   0.495   5.915
84244SOL    HW154571  14.085   0.498   6.010
84244SOL    HW254572  14.139   0.556   5.881
84245SOL     OW54573   2.031   3.898  10.554
84245SOL    HW154574   1.958   3.839  10.575
84245SOL    HW254575   2.007   3.981  10.595
84246SOL     OW54576   8.709  14.363   4.955
84246SOL    HW154577   8.644  14.338   4.890
84246SOL    HW254578   8.786  14.388   4.904
84247SOL     OW54579   6.750   7.003  11.711
84247SOL    HW154580   6.666   6.972  11.676
84247SOL    HW254581   6.772   7.078  11.656
84248SOL     OW54582  10.825  14.263   1.881
84248SOL    HW154583  10.743  14.311   1.887
84248SOL    HW254584  10.885  14.310   1.939
84249SOL     OW54585   2.841   7.945  13.797
84249SOL    HW154586   2.812   7.898  13.875
84249SOL    HW254587   2.760   7.976  13.756
84250SOL     OW54588   5.953   6.698  10.054
84250SOL    HW154589   5.988   6.711  10.142
84250SOL    HW254590   5.910   6.612  10.059
84251SOL     OW54591   5.123  13.561   8.998
84251SOL    HW154592   5.141  13.545   9.091
84251SOL    HW254593   5.189  13.511   8.951
84252SOL     OW54594   6.643   8.372  13.800
84252SOL    HW154595   6.650   8.276  13.801
84252SOL    HW254596   6.553   8.390  13.827
84253SOL     OW54597  10.577   9.564  14.159
84253SOL    HW154598  10.556   9.599  14.072
84253SOL    HW254599  10.528   9.482  14.164
84254SOL     OW54600  14.286   3.048   1.456
84254SOL    HW154601  14.251   3.038   1.545
84254SOL    HW254602  14.210   3.073   1.403
84255SOL     OW54603   6.426   2.010  13.189
84255SOL    HW154604   6.421   2.028  13.096
84255SOL    HW254605   6.462   1.921  13.194
84256SOL     OW54606  14.552   4.731   2.992
84256SOL    HW154607  14.536   4.774   3.077
84256SOL    HW254608  14.511   4.789   2.928
84257SOL     OW54609   8.802  12.244   4.563
84257SOL    HW154610   8.808  12.182   4.635
84257SOL    HW254611   8.884  12.233   4.515
84258SOL     OW54612  12.814   7.918  10.268
84258SOL    HW154613  12.802   7.929  10.362
84258SOL    HW254614  12.808   7.824  10.254
84259SOL     OW54615   7.012  11.612  11.994
84259SOL    HW154616   6.977  11.592  12.081
84259SOL    HW254617   7.018  11.528  11.950
84260SOL     OW54618   6.287   1.579  13.233
84260SOL    HW154619   6.281   1.617  13.321
84260SOL    HW254620   6.235   1.499  13.239
84261SOL     OW54621   5.624   3.219   3.687
84261SOL    HW154622   5.677   3.264   3.622
84261SOL    HW254623   5.538   3.209   3.646
84262SOL     OW54624  10.847   4.015   8.436
84262SOL    HW154625  10.870   4.029   8.528
84262SOL    HW254626  10.758   4.048   8.429
84263SOL     OW54627  14.449   6.185   2.680
84263SOL    HW154628  14.528   6.144   2.716
84263SOL    HW254629  14.469   6.200   2.588
84264SOL     OW54630  14.827   9.714  13.511
84264SOL    HW154631  14.737   9.698  13.480
84264SOL    HW254632  14.870   9.629  13.506
84265SOL     OW54633   7.087   4.890  14.128
84265SOL    HW154634   7.027   4.821  14.156
84265SOL    HW254635   7.030   4.963  14.106
84266SOL     OW54636   7.150   9.456   4.517
84266SOL    HW154637   7.190   9.395   4.579
84266SOL    HW254638   7.185   9.542   4.541
84267SOL     OW54639   2.542   0.818   1.200
84267SOL    HW154640   2.494   0.898   1.223
84267SOL    HW254641   2.634   0.839   1.217
84268SOL     OW54642   1.242  14.874   8.457
84268SOL    HW154643   1.279  14.788   8.439
84268SOL    HW254644   1.302   0.056   8.415
84269SOL     OW54645  11.171   5.320   8.786
84269SOL    HW154646  11.088   5.344   8.829
84269SOL    HW254647  11.166   5.224   8.778
84270SOL     OW54648  10.808   1.463  10.123
84270SOL    HW154649  10.838   1.484  10.035
84270SOL    HW254650  10.862   1.388  10.149
84271SOL     OW54651   9.791   3.153  10.086
84271SOL    HW154652   9.717   3.097  10.065
84271SOL    HW254653   9.867   3.096  10.080
84272SOL     OW54654  12.150   2.717   5.985
84272SOL    HW154655  12.154   2.801   6.031
84272SOL    HW254656  12.125   2.740   5.895
84273SOL     OW54657   5.674   6.127   1.568
84273SOL    HW154658   5.686   6.066   1.640
84273SOL    HW254659   5.736   6.098   1.501
84274SOL     OW54660  13.073  10.380   2.461
84274SOL    HW154661  13.094  10.473   2.453
84274SOL    HW254662  13.111  10.354   2.545
84275SOL     OW54663   9.143   7.529   2.659
84275SOL    HW154664   9.227   7.488   2.681
84275SOL    HW254665   9.167   7.609   2.612
84276SOL     OW54666   5.150   7.536   6.544
84276SOL    HW154667   5.067   7.579   6.560
84276SOL    HW254668   5.211   7.608   6.524
84277SOL     OW54669  14.435   0.165   5.549
84277SOL    HW154670  14.496   0.238   5.536
84277SOL    HW254671  14.482   0.088   5.517
84278SOL     OW54672   8.916   5.316   4.167
84278SOL    HW154673   8.924   5.343   4.076
84278SOL    HW254674   8.933   5.222   4.167
84279SOL     OW54675   3.353  11.460   9.141
84279SOL    HW154676   3.445  11.446   9.164
84279SOL    HW254677   3.346  11.434   9.049
84280SOL     OW54678   5.075   8.216   2.714
84280SOL    HW154679   4.994   8.254   2.748
84280SOL    HW254680   5.087   8.256   2.628
84281SOL     OW54681   5.504  10.524  10.861
84281SOL    HW154682   5.522  10.553  10.951
84281SOL    HW254683   5.587  10.492  10.828
84282SOL     OW54684  12.258  14.731   9.101
84282SOL    HW154685  12.232  14.731   9.009
84282SOL    HW254686  12.349  14.702   9.100
84283SOL     OW54687  12.095   5.454   1.260
84283SOL    HW154688  12.101   5.365   1.296
84283SOL    HW254689  12.051   5.443   1.176
84284SOL     OW54690  13.058   5.736   5.812
84284SOL    HW154691  13.152   5.724   5.803
84284SOL    HW254692  13.049   5.799   5.883
84285SOL     OW54693  11.213  12.068   9.462
84285SOL    HW154694  11.210  12.143   9.402
84285SOL    HW254695  11.157  12.002   9.421
84286SOL     OW54696   8.026   6.095   2.847
84286SOL    HW154697   7.969   6.025   2.878
84286SOL    HW254698   8.042   6.149   2.924
84287SOL     OW54699   3.511   8.240  13.712
84287SOL    HW154700   3.433   8.259  13.765
84287SOL    HW254701   3.479   8.180  13.644
84288SOL     OW54702  14.142   3.957   8.883
84288SOL    HW154703  14.219   3.963   8.827
84288SOL    HW254704  14.176   3.971   8.972
84289SOL     OW54705   9.471  11.084   5.474
84289SOL    HW154706   9.522  11.006   5.495
84289SOL    HW254707   9.399  11.083   5.538
84290SOL     OW54708   0.864   8.332   2.496
84290SOL    HW154709   0.935   8.337   2.432
84290SOL    HW254710   0.803   8.270   2.459
84291SOL     OW54711  14.569   4.216   1.888
84291SOL    HW154712  14.572   4.253   1.977
84291SOL    HW254713  14.478   4.188   1.878
84292SOL     OW54714   8.760   1.274   0.058
84292SOL    HW154715   8.688   1.338   0.053
84292SOL    HW254716   8.839   1.327   0.062
84293SOL     OW54717   9.003   9.118  12.372
84293SOL    HW154718   8.951   9.052  12.326
84293SOL    HW254719   8.941   9.162  12.429
84294SOL     OW54720   3.494   3.513  12.264
84294SOL    HW154721   3.504   3.433  12.212
84294SOL    HW254722   3.494   3.483  12.355
84295SOL     OW54723   1.098   3.532   3.969
84295SOL    HW154724   1.184   3.554   4.004
84295SOL    HW254725   1.098   3.436   3.964
84296SOL     OW54726  10.282   5.324   2.193
84296SOL    HW154727  10.295   5.233   2.221
84296SOL    HW254728  10.364   5.367   2.214
84297SOL     OW54729   3.269   8.405  14.797
84297SOL    HW154730   3.219   8.383  14.875
84297SOL    HW254731   3.360   8.409  14.827
84298SOL     OW54732  13.686   7.851   3.038
84298SOL    HW154733  13.612   7.812   2.991
84298SOL    HW254734  13.675   7.945   3.024
84299SOL     OW54735   4.040   3.376   5.593
84299SOL    HW154736   3.964   3.410   5.640
84299SOL    HW254737   4.004   3.312   5.532
84300SOL     OW54738   6.607  12.873  13.913
84300SOL    HW154739   6.568  12.951  13.875
84300SOL    HW254740   6.699  12.876  13.887
84301SOL     OW54741   7.574   6.204   0.767
84301SOL    HW154742   7.532   6.245   0.843
84301SOL    HW254743   7.540   6.252   0.692
84302SOL     OW54744  10.979   5.284  10.712
84302SOL    HW154745  11.065   5.283  10.754
84302SOL    HW254746  10.946   5.195  10.721
84303SOL     OW54747   4.928  13.730   4.030
84303SOL    HW154748   4.990  13.752   4.100
84303SOL    HW254749   4.981  13.733   3.950
84304SOL     OW54750   6.107   1.778   7.139
84304SOL    HW154751   6.194   1.752   7.109
84304SOL    HW254752   6.118   1.869   7.167
84305SOL     OW54753  13.586   1.687  11.901
84305SOL    HW154754  13.653   1.624  11.872
84305SOL    HW254755  13.620   1.720  11.984
84306SOL     OW54756   5.085  10.492   4.588
84306SOL    HW154757   5.106  10.419   4.531
84306SOL    HW254758   5.137  10.478   4.667
84307SOL     OW54759  10.962   7.410   8.133
84307SOL    HW154760  11.029   7.463   8.177
84307SOL    HW254761  10.891   7.471   8.113
84308SOL     OW54762   6.628   6.695  11.294
84308SOL    HW154763   6.580   6.778  11.291
84308SOL    HW254764   6.563   6.629  11.271
84309SOL     OW54765  13.444   4.908   8.375
84309SOL    HW154766  13.523   4.902   8.429
84309SOL    HW254767  13.419   5.000   8.380
84310SOL     OW54768  14.002   2.589   1.893
84310SOL    HW154769  13.918   2.634   1.900
84310SOL    HW254770  13.986   2.517   1.831
84311SOL     OW54771   3.656   3.100   9.638
84311SOL    HW154772   3.648   3.134   9.549
84311SOL    HW254773   3.652   3.178   9.694
84312SOL     OW54774  13.032   8.853  10.401
84312SOL    HW154775  12.959   8.792  10.399
84312SOL    HW254776  13.084   8.826  10.477
84313SOL     OW54777   1.991  13.425   4.867
84313SOL    HW154778   1.985  13.450   4.775
84313SOL    HW254779   1.921  13.362   4.880
84314SOL     OW54780   7.656   4.391  12.626
84314SOL    HW154781   7.596   4.422  12.693
84314SOL    HW254782   7.649   4.295  12.630
84315SOL     OW54783  11.088  11.109   5.874
84315SOL    HW154784  11.145  11.118   5.950
84315SOL    HW254785  11.063  11.198   5.852
84316SOL     OW54786   2.077   9.212   8.224
84316SOL    HW154787   2.023   9.205   8.303
84316SOL    HW254788   2.076   9.123   8.187
84317SOL     OW54789   8.542   0.572   7.431
84317SOL    HW154790   8.563   0.654   7.386
84317SOL    HW254791   8.447   0.563   7.422
84318SOL     OW54792  11.672   1.671  13.858
84318SOL    HW154793  11.641   1.639  13.943
84318SOL    HW254794  11.729   1.745  13.879
84319SOL     OW54795  11.084  11.230   1.909
84319SOL    HW154796  11.033  11.298   1.865
84319SOL    HW254797  11.153  11.278   1.954
84320SOL     OW54798   0.872  11.586   2.860
84320SOL    HW154799   0.916  11.516   2.909
84320SOL    HW254800   0.782  11.557   2.852
84321SOL     OW54801   9.179  14.303  10.769
84321SOL    HW154802   9.122  14.227  10.755
84321SOL    HW254803   9.122  14.379  10.753
84322SOL     OW54804  13.093   0.785   0.093
84322SOL    HW154805  13.122   0.860   0.041
84322SOL    HW254806  13.079   0.821   0.181
84323SOL     OW54807   8.367   1.195   3.738
84323SOL    HW154808   8.454   1.221   3.711
84323SOL    HW254809   8.372   1.188   3.833
84324SOL     OW54810   6.196   3.008   8.092
84324SOL    HW154811   6.142   3.073   8.048
84324SOL    HW254812   6.202   2.935   8.030
84325SOL     OW54813   0.205   4.199  12.261
84325SOL    HW154814   0.182   4.162  12.346
84325SOL    HW254815   0.300   4.189  12.255
84326SOL     OW54816   4.807   7.307   5.158
84326SOL    HW154817   4.861   7.230   5.176
84326SOL    HW254818   4.854   7.379   5.200
84327SOL     OW54819   9.012  13.332   3.506
84327SOL    HW154820   9.030  13.295   3.419
84327SOL    HW254821   9.096  13.330   3.551
84328SOL     OW54822  11.709   7.801  11.308
84328SOL    HW154823  11.688   7.816  11.400
84328SOL    HW254824  11.799   7.769  11.309
84329SOL     OW54825   1.577   7.633   4.936
84329SOL    HW154826   1.629   7.652   4.857
84329SOL    HW254827   1.488   7.622   4.904
84330SOL     OW54828   0.279   9.748   6.792
84330SOL    HW154829   0.371   9.772   6.777
84330SOL    HW254830   0.272   9.739   6.887
84331SOL     OW54831   8.541  13.202   7.443
84331SOL    HW154832   8.530  13.229   7.352
84331SOL    HW254833   8.636  13.199   7.456
84332SOL     OW54834   5.424  12.038  10.364
84332SOL    HW154835   5.442  11.946  10.382
84332SOL    HW254836   5.374  12.068  10.439
84333SOL     OW54837   6.534  12.865   8.412
84333SOL    HW154838   6.572  12.783   8.441
84333SOL    HW254839   6.587  12.892   8.337
84334SOL     OW54840   8.824  13.557   3.495
84334SOL    HW154841   8.770  13.530   3.570
84334SOL    HW254842   8.884  13.483   3.481
84335SOL     OW54843   8.970   1.687  14.359
84335SOL    HW154844   9.019   1.632  14.297
84335SOL    HW254845   9.029   1.759  14.378
84336SOL     OW54846   4.460   0.607  14.613
84336SOL    HW154847   4.467   0.531  14.672
84336SOL    HW254848   4.550   0.635  14.599
84337SOL     OW54849   1.113   6.434   0.901
84337SOL    HW154850   1.098   6.422   0.994
84337SOL    HW254851   1.098   6.347   0.863
84338SOL     OW54852  12.763   0.350  12.312
84338SOL    HW154853  12.671   0.325  12.303
84338SOL    HW254854  12.767   0.399  12.393
84339SOL     OW54855  12.194   9.540   1.978
84339SOL    HW154856  12.275   9.573   2.017
84339SOL    HW254857  12.214   9.528   1.886
84340SOL     OW54858   9.424   6.972   1.132
84340SOL    HW154859   9.483   7.025   1.185
84340SOL    HW254860   9.343   6.969   1.183
84341SOL     OW54861   5.231   0.670   9.482
84341SOL    HW154862   5.174   0.715   9.544
84341SOL    HW254863   5.305   0.640   9.534
84342SOL     OW54864   4.100  13.271  14.198
84342SOL    HW154865   4.069  13.332  14.131
84342SOL    HW254866   4.081  13.315  14.281
84343SOL     OW54867  12.913  12.107  11.751
84343SOL    HW154868  12.995  12.135  11.792
84343SOL    HW254869  12.851  12.099  11.824
84344SOL     OW54870   5.579   4.421   5.555
84344SOL    HW154871   5.630   4.502   5.549
84344SOL    HW254872   5.625   4.359   5.498
84345SOL     OW54873   5.308   5.740   4.202
84345SOL    HW154874   5.264   5.794   4.136
84345SOL    HW254875   5.341   5.803   4.266
84346SOL     OW54876  14.004  13.859  12.640
84346SOL    HW154877  13.960  13.890  12.720
84346SOL    HW254878  14.009  13.764  12.651
84347SOL     OW54879   7.751   1.452  12.881
84347SOL    HW154880   7.773   1.385  12.947
84347SOL    HW254881   7.835   1.483  12.850
84348SOL     OW54882  14.156   9.900  11.201
84348SOL    HW154883  14.138   9.950  11.121
84348SOL    HW254884  14.174   9.811  11.170
84349SOL     OW54885   8.456  11.542   5.267
84349SOL    HW154886   8.397  11.467   5.278
84349SOL    HW254887   8.506  11.545   5.349
84350SOL     OW54888   5.924   1.691   9.713
84350SOL    HW154889   5.883   1.630   9.652
84350SOL    HW254890   6.014   1.660   9.720
84351SOL     OW54891   5.738  14.001   9.638
84351SOL    HW154892   5.778  14.001   9.551
84351SOL    HW254893   5.776  13.925   9.682
84352SOL     OW54894   3.694   5.382   4.717
84352SOL    HW154895   3.726   5.292   4.719
84352SOL    HW254896   3.639   5.390   4.795
84353SOL     OW54897   0.167  10.396   0.993
84353SOL    HW154898   0.242  10.346   0.961
84353SOL    HW254899   0.097  10.378   0.930
84354SOL     OW54900   7.909   2.540   1.485
84354SOL    HW154901   7.897   2.634   1.471
84354SOL    HW254902   7.943   2.506   1.402
84355SOL     OW54903   7.991  13.418   1.155
84355SOL    HW154904   7.964  13.492   1.208
84355SOL    HW254905   8.008  13.348   1.218
84356SOL     OW54906   5.989  14.147   4.539
84356SOL    HW154907   6.055  14.216   4.553
84356SOL    HW254908   6.037  14.065   4.555
84357SOL     OW54909  11.996   5.491  14.742
84357SOL    HW154910  12.068   5.534  14.696
84357SOL    HW254911  11.917   5.525  14.700
84358SOL     OW54912   2.477  10.541   7.609
84358SOL    HW154913   2.482  10.629   7.646
84358SOL    HW254914   2.386  10.514   7.623
84359SOL     OW54915   1.663   8.011  13.936
84359SOL    HW154916   1.585   7.956  13.929
84359SOL    HW254917   1.631   8.100  13.924
84360SOL     OW54918  13.839   3.178   4.292
84360SOL    HW154919  13.778   3.109   4.267
84360SOL    HW254920  13.783   3.252   4.316
84361SOL     OW54921   3.205  14.057   4.126
84361SOL    HW154922   3.111  14.044   4.109
84361SOL    HW254923   3.248  14.019   4.049
84362SOL     OW54924   9.547   5.496   1.742
84362SOL    HW154925   9.577   5.406   1.758
84362SOL    HW254926   9.563   5.511   1.649
84363SOL     OW54927   9.587   2.474   4.513
84363SOL    HW154928   9.544   2.394   4.482
84363SOL    HW254929   9.528   2.509   4.579
84364SOL     OW54930   6.817   0.511   8.781
84364SOL    HW154931   6.749   0.444   8.786
84364SOL    HW254932   6.778   0.588   8.822
84365SOL     OW54933  12.761   9.144   7.982
84365SOL    HW154934  12.748   9.203   8.057
84365SOL    HW254935  12.676   9.102   7.970
84366SOL     OW54936   3.690   8.775   7.012
84366SOL    HW154937   3.735   8.727   7.082
84366SOL    HW254938   3.629   8.832   7.058
84367SOL     OW54939   5.996  13.097   2.962
84367SOL    HW154940   6.020  13.156   3.033
84367SOL    HW254941   6.074  13.095   2.905
84368SOL     OW54942  11.762   2.002   4.920
84368SOL    HW154943  11.808   2.001   5.004
84368SOL    HW254944  11.687   1.944   4.933
84369SOL     OW54945   4.347   1.468   1.182
84369SOL    HW154946   4.282   1.532   1.213
84369SOL    HW254947   4.295   1.401   1.139
84370SOL     OW54948   1.308   1.871  14.524
84370SOL    HW154949   1.365   1.911  14.590
84370SOL    HW254950   1.348   1.893  14.441
84371SOL     OW54951  11.598   9.523  14.250
84371SOL    HW154952  11.692   9.506  14.238
84371SOL    HW254953  11.561   9.437  14.271
84372SOL     OW54954   8.948   1.927   6.843
84372SOL    HW154955   8.892   1.885   6.778
84372SOL    HW254956   8.893   1.995   6.882
84373SOL     OW54957   8.371   5.979   3.518
84373SOL    HW154958   8.427   6.036   3.570
84373SOL    HW254959   8.408   5.892   3.529
84374SOL     OW54960  13.462  10.679   5.946
84374SOL    HW154961  13.512  10.758   5.927
84374SOL    HW254962  13.487  10.618   5.877
84375SOL     OW54963  11.745   8.532   5.223
84375SOL    HW154964  11.747   8.570   5.310
84375SOL    HW254965  11.653   8.510   5.209
84376SOL     OW54966  10.386  10.306  11.152
84376SOL    HW154967  10.322  10.375  11.169
84376SOL    HW254968  10.340  10.225  11.172
84377SOL     OW54969  10.725  10.942  14.542
84377SOL    HW154970  10.788  10.998  14.587
84377SOL    HW254971  10.642  10.960  14.585
84378SOL     OW54972   0.079   8.969  11.938
84378SOL    HW154973   0.170   8.963  11.908
84378SOL    HW254974   0.045   9.048  11.896
84379SOL     OW54975   6.226   1.601   0.316
84379SOL    HW154976   6.313   1.637   0.299
84379SOL    HW254977   6.167   1.675   0.303
84380SOL     OW54978   4.482   5.362   7.529
84380SOL    HW154979   4.573   5.367   7.559
84380SOL    HW254980   4.434   5.420   7.588
84381SOL     OW54981  10.680   7.073   7.290
84381SOL    HW154982  10.738   7.055   7.216
84381SOL    HW254983  10.686   7.168   7.302
84382SOL     OW54984   7.357   4.637  14.414
84382SOL    HW154985   7.332   4.545  14.423
84382SOL    HW254986   7.434   4.646  14.470
84383SOL     OW54987   4.719   1.475   1.987
84383SOL    HW154988   4.761   1.560   2.000
84383SOL    HW254989   4.777   1.428   1.927
84384SOL     OW54990  12.079   6.184   8.279
84384SOL    HW154991  11.990   6.193   8.246
84384SOL    HW254992  12.134   6.193   8.201
84385SOL     OW54993   0.617   7.433   5.033
84385SOL    HW154994   0.601   7.425   4.939
84385SOL    HW254995   0.539   7.395   5.074
84386SOL     OW54996  10.061   3.192   5.666
84386SOL    HW154997  10.132   3.203   5.603
84386SOL    HW254998  10.063   3.271   5.719
84387SOL     OW54999   1.244  14.229   6.697
84387SOL    HW155000   1.309  14.299   6.691
84387SOL    HW255001   1.247  14.201   6.788
84388SOL     OW55002   4.872  12.155  10.005
84388SOL    HW155003   4.887  12.218   9.934
84388SOL    HW255004   4.960  12.130  10.032
84389SOL     OW55005  13.985   3.116   1.391
84389SOL    HW155006  13.937   3.078   1.465
84389SOL    HW255007  13.952   3.205   1.384
84390SOL     OW55008   0.609  12.965   2.588
84390SOL    HW155009   0.537  12.972   2.651
84390SOL    HW255010   0.566  12.941   2.506
84391SOL     OW55011   4.165  11.630   1.300
84391SOL    HW155012   4.144  11.568   1.370
84391SOL    HW255013   4.244  11.674   1.330
84392SOL     OW55014   9.499  11.947   7.314
84392SOL    HW155015   9.501  11.854   7.291
84392SOL    HW255016   9.517  11.950   7.408
84393SOL     OW55017   4.618   9.743   4.421
84393SOL    HW155018   4.657   9.734   4.508
84393SOL    HW255019   4.614   9.837   4.406
84394SOL     OW55020  13.496   9.438   4.655
84394SOL    HW155021  13.426   9.398   4.707
84394SOL    HW255022  13.543   9.364   4.616
84395SOL     OW55023  11.991  12.212   0.701
84395SOL    HW155024  12.004  12.302   0.673
84395SOL    HW255025  11.896  12.199   0.699
84396SOL     OW55026   5.136  12.292   2.537
84396SOL    HW155027   5.143  12.381   2.570
84396SOL    HW255028   5.099  12.242   2.610
84397SOL     OW55029  12.058   5.177   3.659
84397SOL    HW155030  11.963   5.162   3.664
84397SOL    HW255031  12.066   5.271   3.644
84398SOL     OW55032   7.004  13.793   0.833
84398SOL    HW155033   7.049  13.709   0.843
84398SOL    HW255034   6.911  13.771   0.839
84399SOL     OW55035   8.263  12.503  10.223
84399SOL    HW155036   8.294  12.589  10.194
84399SOL    HW255037   8.288  12.498  10.315
84400SOL     OW55038   6.193   9.288  13.534
84400SOL    HW155039   6.206   9.195  13.516
84400SOL    HW255040   6.185   9.293  13.629
84401SOL     OW55041   6.701  10.640   8.992
84401SOL    HW155042   6.766  10.571   9.006
84401SOL    HW255043   6.721  10.674   8.905
84402SOL     OW55044  10.289   3.584   1.873
84402SOL    HW155045  10.383   3.581   1.889
84402SOL    HW255046  10.276   3.529   1.796
84403SOL     OW55047  11.125  13.162   6.084
84403SOL    HW155048  11.206  13.111   6.087
84403SOL    HW255049  11.135  13.218   6.008
84404SOL     OW55050   4.313  10.204   8.257
84404SOL    HW155051   4.265  10.124   8.276
84404SOL    HW255052   4.385  10.177   8.200
84405SOL     OW55053   7.488  10.210   5.113
84405SOL    HW155054   7.555  10.150   5.146
84405SOL    HW255055   7.425  10.217   5.185
84406SOL     OW55056   1.278  11.336   3.330
84406SOL    HW155057   1.312  11.403   3.389
84406SOL    HW255058   1.341  11.334   3.258
84407SOL     OW55059  12.552  10.593  14.645
84407SOL    HW155060  12.470  10.566  14.686
84407SOL    HW255061  12.532  10.678  14.605
84408SOL     OW55062   8.404  12.870   4.738
84408SOL    HW155063   8.495  12.848   4.715
84408SOL    HW255064   8.382  12.809   4.808
84409SOL     OW55065   7.921   4.101   2.542
84409SOL    HW155066   7.989   4.169   2.542
84409SOL    HW255067   7.840   4.150   2.526
84410SOL     OW55068   3.252   3.433  13.619
84410SOL    HW155069   3.296   3.496  13.675
84410SOL    HW255070   3.198   3.486  13.561
84411SOL     OW55071   4.600   8.552   3.570
84411SOL    HW155072   4.691   8.526   3.578
84411SOL    HW255073   4.555   8.504   3.639
84412SOL     OW55074   8.683   9.694   9.452
84412SOL    HW155075   8.681   9.600   9.467
84412SOL    HW255076   8.602   9.726   9.493
84413SOL     OW55077  12.336  13.809   5.942
84413SOL    HW155078  12.382  13.740   5.990
84413SOL    HW255079  12.345  13.887   5.998
84414SOL     OW55080   6.123   4.618  11.533
84414SOL    HW155081   6.110   4.587  11.623
84414SOL    HW255082   6.137   4.712  11.542
84415SOL     OW55083  13.680   4.326   8.774
84415SOL    HW155084  13.765   4.333   8.818
84415SOL    HW255085  13.696   4.272   8.698
84416SOL     OW55086   4.512   9.537  10.859
84416SOL    HW155087   4.467   9.496  10.933
84416SOL    HW255088   4.579   9.592  10.900
84417SOL     OW55089  14.781   9.447   1.371
84417SOL    HW155090  14.804   9.354   1.375
84417SOL    HW255091  14.724   9.454   1.294
84418SOL     OW55092  11.694   8.331   7.252
84418SOL    HW155093  11.602   8.358   7.260
84418SOL    HW255094  11.695   8.271   7.178
84419SOL     OW55095  12.136   1.199  14.788
84419SOL    HW155096  12.080   1.272  14.812
84419SOL    HW255097  12.117   1.184  14.695
84420SOL     OW55098  12.125   9.775   2.315
84420SOL    HW155099  12.179   9.818   2.248
84420SOL    HW255100  12.044   9.827   2.317
84421SOL     OW55101   1.598   9.724  14.582
84421SOL    HW155102   1.684   9.693  14.610
84421SOL    HW255103   1.542   9.714  14.659
84422SOL     OW55104   9.718   0.589   5.221
84422SOL    HW155105   9.747   0.619   5.308
84422SOL    HW255106   9.653   0.654   5.195
84423SOL     OW55107   5.872  13.902   0.120
84423SOL    HW155108   5.862  13.838   0.050
84423SOL    HW255109   5.789  13.949   0.122
84424SOL     OW55110   0.297   3.539   4.893
84424SOL    HW155111   0.261   3.457   4.928
84424SOL    HW255112   0.259   3.546   4.805
84425SOL     OW55113   0.022   6.852   5.220
84425SOL    HW155114   0.044   6.888   5.306
84425SOL    HW255115   0.019   6.757   5.233
84426SOL     OW55116   5.854   0.377  10.740
84426SOL    HW155117   5.913   0.419  10.677
84426SOL    HW255118   5.902   0.300  10.770
84427SOL     OW55119   1.625   6.103  14.645
84427SOL    HW155120   1.589   6.020  14.615
84427SOL    HW255121   1.550   6.163  14.647
84428SOL     OW55122   7.259  13.961  14.812
84428SOL    HW155123   7.307  13.943  14.732
84428SOL    HW255124   7.175  13.916  14.801
84429SOL     OW55125   1.816   7.142   9.683
84429SOL    HW155126   1.835   7.216   9.741
84429SOL    HW255127   1.759   7.085   9.734
84430SOL     OW55128   2.879  10.664   0.868
84430SOL    HW155129   2.808  10.635   0.925
84430SOL    HW255130   2.903  10.751   0.901
84431SOL     OW55131  13.097   1.762  14.190
84431SOL    HW155132  13.190   1.744  14.179
84431SOL    HW255133  13.089   1.783  14.284
84432SOL     OW55134   3.381   5.698   9.702
84432SOL    HW155135   3.371   5.683   9.796
84432SOL    HW255136   3.474   5.682   9.685
84433SOL     OW55137  14.642   6.772  14.652
84433SOL    HW155138  14.725   6.807  14.618
84433SOL    HW255139  14.619   6.829  14.725
84434SOL     OW55140   7.030  12.735  12.250
84434SOL    HW155141   7.074  12.769  12.172
84434SOL    HW255142   6.939  12.761  12.238
84435SOL     OW55143   3.438  14.057   8.860
84435SOL    HW155144   3.392  14.025   8.937
84435SOL    HW255145   3.529  14.029   8.872
84436SOL     OW55146   1.777   5.743   1.920
84436SOL    HW155147   1.759   5.650   1.903
84436SOL    HW255148   1.861   5.743   1.964
84437SOL     OW55149   6.188   4.344   1.085
84437SOL    HW155150   6.123   4.376   1.148
84437SOL    HW255151   6.148   4.359   1.000
84438SOL     OW55152   2.083   1.100   3.783
84438SOL    HW155153   2.128   1.074   3.863
84438SOL    HW255154   1.995   1.127   3.812
84439SOL     OW55155   1.847  12.953  14.053
84439SOL    HW155156   1.836  12.982  14.143
84439SOL    HW255157   1.938  12.924  14.048
84440SOL     OW55158   4.587   5.554  14.703
84440SOL    HW155159   4.676   5.523  14.711
84440SOL    HW255160   4.571   5.558  14.608
84441SOL     OW55161  12.233   0.623  11.779
84441SOL    HW155162  12.152   0.628  11.729
84441SOL    HW255163  12.229   0.539  11.824
84442SOL     OW55164  11.946   7.076   7.712
84442SOL    HW155165  11.927   7.166   7.736
84442SOL    HW255166  11.976   7.035   7.793
84443SOL     OW55167  11.868  14.069   9.585
84443SOL    HW155168  11.784  14.063   9.631
84443SOL    HW255169  11.896  13.979   9.574
84444SOL     OW55170  10.260   3.598   8.609
84444SOL    HW155171  10.318   3.537   8.654
84444SOL    HW255172  10.172   3.565   8.625
84445SOL     OW55173   6.787   6.607   9.077
84445SOL    HW155174   6.708   6.609   9.131
84445SOL    HW255175   6.754   6.622   8.988
84446SOL     OW55176   2.122  11.963   0.868
84446SOL    HW155177   2.190  12.007   0.919
84446SOL    HW255178   2.111  11.878   0.910
84447SOL     OW55179   8.832   4.545   2.956
84447SOL    HW155180   8.898   4.613   2.946
84447SOL    HW255181   8.881   4.463   2.951
84448SOL     OW55182   2.227  10.277  13.866
84448SOL    HW155183   2.261  10.222  13.936
84448SOL    HW255184   2.215  10.218  13.792
84449SOL     OW55185  11.829   1.923  14.626
84449SOL    HW155186  11.902   1.920  14.687
84449SOL    HW255187  11.757   1.963  14.676
84450SOL     OW55188   4.075   1.126   4.671
84450SOL    HW155189   4.046   1.079   4.592
84450SOL    HW255190   3.995   1.154   4.714
84451SOL     OW55191  10.978  14.745   7.173
84451SOL    HW155192  10.969  14.703   7.259
84451SOL    HW255193  10.994  14.837   7.193
84452SOL     OW55194   7.697  13.274   2.030
84452SOL    HW155195   7.651  13.352   2.000
84452SOL    HW255196   7.721  13.228   1.949
84453SOL     OW55197   4.873  14.145   0.302
84453SOL    HW155198   4.802  14.136   0.239
84453SOL    HW255199   4.891  14.239   0.305
84454SOL     OW55200   9.059   8.622  14.404
84454SOL    HW155201   8.999   8.628  14.479
84454SOL    HW255202   9.106   8.540  14.418
84455SOL     OW55203   7.437   1.196   7.784
84455SOL    HW155204   7.440   1.235   7.697
84455SOL    HW255205   7.408   1.106   7.769
84456SOL     OW55206  12.790   4.106   1.920
84456SOL    HW155207  12.696   4.100   1.937
84456SOL    HW255208  12.831   4.054   1.990
84457SOL     OW55209   8.547   5.855   5.603
84457SOL    HW155210   8.517   5.836   5.692
84457SOL    HW255211   8.642   5.861   5.611
84458SOL     OW55212  13.100   8.901   4.838
84458SOL    HW155213  13.130   8.976   4.786
84458SOL    HW255214  13.069   8.940   4.920
84459SOL     OW55215   3.671   2.608   0.243
84459SOL    HW155216   3.604   2.552   0.283
84459SOL    HW255217   3.736   2.546   0.209
84460SOL     OW55218   8.476   9.127  10.669
84460SOL    HW155219   8.453   9.190  10.601
84460SOL    HW255220   8.569   9.109  10.655
84461SOL     OW55221  10.088  13.082  10.128
84461SOL    HW155222  10.054  13.125  10.050
84461SOL    HW255223  10.166  13.132  10.152
84462SOL     OW55224  11.897  12.676   5.019
84462SOL    HW155225  11.930  12.752   4.970
84462SOL    HW255226  11.975  12.625   5.040
84463SOL     OW55227   1.212   3.585  14.619
84463SOL    HW155228   1.307   3.595  14.621
84463SOL    HW255229   1.179   3.658  14.672
84464SOL     OW55230   8.427  11.962  13.439
84464SOL    HW155231   8.445  12.002  13.524
84464SOL    HW255232   8.369  12.024  13.395
84465SOL     OW55233   9.981   3.870   2.003
84465SOL    HW155234   9.916   3.858   1.934
84465SOL    HW255235   9.932   3.911   2.075
84466SOL     OW55236  12.743   7.510   3.438
84466SOL    HW155237  12.679   7.452   3.397
84466SOL    HW255238  12.693   7.586   3.466
84467SOL     OW55239  13.666   1.840   7.758
84467SOL    HW155240  13.642   1.866   7.669
84467SOL    HW255241  13.657   1.921   7.809
84468SOL     OW55242  13.349   5.516  12.577
84468SOL    HW155243  13.267   5.467  12.573
84468SOL    HW255244  13.344   5.566  12.659
84469SOL     OW55245  10.197   5.502  13.333
84469SOL    HW155246  10.152   5.584  13.354
84469SOL    HW255247  10.281   5.530  13.296
84470SOL     OW55248  12.647  10.921   4.302
84470SOL    HW155249  12.585  10.862   4.258
84470SOL    HW255250  12.726  10.869   4.310
84471SOL     OW55251  10.717  10.337   7.739
84471SOL    HW155252  10.681  10.368   7.656
84471SOL    HW255253  10.812  10.335   7.724
84472SOL     OW55254   4.318   6.779   2.064
84472SOL    HW155255   4.251   6.713   2.046
84472SOL    HW255256   4.387   6.762   2.000
84473SOL     OW55257   5.920  12.810  11.703
84473SOL    HW155258   5.912  12.891  11.755
84473SOL    HW255259   5.962  12.838  11.622
84474SOL     OW55260  11.991   6.354   9.762
84474SOL    HW155261  11.980   6.280   9.821
84474SOL    HW255262  11.923   6.416   9.786
84475SOL     OW55263  14.155   5.649   4.477
84475SOL    HW155264  14.161   5.553   4.475
84475SOL    HW255265  14.063   5.668   4.460
84476SOL     OW55266  11.775   9.053  13.787
84476SOL    HW155267  11.847   9.050  13.724
84476SOL    HW255268  11.798   8.987  13.853
84477SOL     OW55269   8.425   4.676   9.358
84477SOL    HW155270   8.380   4.613   9.303
84477SOL    HW255271   8.393   4.658   9.447
84478SOL     OW55272  13.927   2.353   8.968
84478SOL    HW155273  13.982   2.380   8.895
84478SOL    HW255274  13.987   2.311   9.030
84479SOL     OW55275   2.681   4.731   1.329
84479SOL    HW155276   2.661   4.658   1.271
84479SOL    HW255277   2.666   4.809   1.276
84480SOL     OW55278   3.088  10.614  10.446
84480SOL    HW155279   3.146  10.584  10.516
84480SOL    HW255280   3.027  10.674  10.489
84481SOL     OW55281   5.315   0.947  14.401
84481SOL    HW155282   5.233   0.967  14.356
84481SOL    HW255283   5.364   1.029  14.402
84482SOL     OW55284   1.402  13.000  13.348
84482SOL    HW155285   1.437  12.952  13.423
84482SOL    HW255286   1.344  12.937  13.304
84483SOL     OW55287   1.012   7.813  10.150
84483SOL    HW155288   1.026   7.877  10.220
84483SOL    HW255289   1.097   7.770  10.140
84484SOL     OW55290   8.669   4.897   7.600
84484SOL    HW155291   8.735   4.832   7.623
84484SOL    HW255292   8.719   4.976   7.577
84485SOL     OW55293   8.239   4.613   2.909
84485SOL    HW155294   8.258   4.634   3.000
84485SOL    HW255295   8.303   4.545   2.887
84486SOL     OW55296   9.896  13.558   9.034
84486SOL    HW155297   9.809  13.518   9.038
84486SOL    HW255298   9.956  13.484   9.045
84487SOL     OW55299   5.793   7.176   8.774
84487SOL    HW155300   5.837   7.195   8.691
84487SOL    HW255301   5.863   7.142   8.830
84488SOL     OW55302   6.548   6.620  10.930
84488SOL    HW155303   6.492   6.695  10.950
84488SOL    HW255304   6.579   6.636  10.841
84489SOL     OW55305   7.779   8.143   3.370
84489SOL    HW155306   7.750   8.127   3.460
84489SOL    HW255307   7.833   8.066   3.349
84490SOL     OW55308  13.821  10.695   5.670
84490SOL    HW155309  13.748  10.746   5.704
84490SOL    HW255310  13.821  10.712   5.575
84491SOL     OW55311   4.310  12.949   5.644
84491SOL    HW155312   4.365  12.871   5.635
84491SOL    HW255313   4.327  13.001   5.566
84492SOL     OW55314   5.280  14.291   5.329
84492SOL    HW155315   5.230  14.211   5.313
84492SOL    HW255316   5.263  14.345   5.252
84493SOL     OW55317  11.191  12.525   0.546
84493SOL    HW155318  11.247  12.468   0.494
84493SOL    HW255319  11.161  12.591   0.484
84494SOL     OW55320   0.908  13.437   6.854
84494SOL    HW155321   0.884  13.528   6.837
84494SOL    HW255322   0.907  13.395   6.768
84495SOL     OW55323   3.364   2.040   8.566
84495SOL    HW155324   3.443   1.986   8.568
84495SOL    HW255325   3.308   1.999   8.501
84496SOL     OW55326   6.481  12.703  12.725
84496SOL    HW155327   6.467  12.683  12.818
84496SOL    HW255328   6.423  12.643  12.679
84497SOL     OW55329   7.416  12.692   6.547
84497SOL    HW155330   7.437  12.780   6.579
84497SOL    HW255331   7.359  12.708   6.471
84498SOL     OW55332  11.496   7.936   0.213
84498SOL    HW155333  11.410   7.910   0.247
84498SOL    HW255334  11.557   7.875   0.254
84499SOL     OW55335   4.250  11.890  10.234
84499SOL    HW155336   4.220  11.897  10.324
84499SOL    HW255337   4.266  11.796  10.222
84500SOL     OW55338   2.578   9.827  13.747
84500SOL    HW155339   2.575   9.873  13.831
84500SOL    HW255340   2.671   9.815  13.730
84501SOL     OW55341   0.301  12.585   2.053
84501SOL    HW155342   0.222  12.532   2.042
84501SOL    HW255343   0.310  12.631   1.970
84502SOL     OW55344   7.838   9.715   4.684
84502SOL    HW155345   7.819   9.792   4.632
84502SOL    HW255346   7.854   9.645   4.620
84503SOL     OW55347   2.593   3.640   8.717
84503SOL    HW155348   2.687   3.649   8.703
84503SOL    HW255349   2.581   3.550   8.748
84504SOL     OW55350   0.571  12.478   5.949
84504SOL    HW155351   0.599  12.560   5.990
84504SOL    HW255352   0.497  12.504   5.894
84505SOL     OW55353  12.605   2.022   3.047
84505SOL    HW155354  12.585   2.096   2.990
84505SOL    HW255355  12.572   1.946   3.001
84506SOL     OW55356   2.051   0.818  13.400
84506SOL    HW155357   1.984   0.881  13.431
84506SOL    HW255358   2.122   0.827  13.463
84507SOL     OW55359   3.959   2.369  12.565
84507SOL    HW155360   3.926   2.290  12.608
84507SOL    HW255361   3.899   2.385  12.492
84508SOL     OW55362   5.352   9.682  14.489
84508SOL    HW155363   5.419   9.730  14.440
84508SOL    HW255364   5.373   9.699  14.581
84509SOL     OW55365   6.720   3.954   0.701
84509SOL    HW155366   6.732   4.007   0.623
84509SOL    HW255367   6.650   3.998   0.750
84510SOL     OW55368  12.750   8.499   5.150
84510SOL    HW155369  12.665   8.526   5.115
84510SOL    HW255370  12.790   8.581   5.181
84511SOL     OW55371   5.800   6.546   9.102
84511SOL    HW155372   5.830   6.637   9.110
84511SOL    HW255373   5.705   6.551   9.112
84512SOL     OW55374   3.187   3.500   5.492
84512SOL    HW155375   3.188   3.567   5.423
84512SOL    HW255376   3.137   3.540   5.563
84513SOL     OW55377   4.625   6.245   6.498
84513SOL    HW155378   4.639   6.337   6.477
84513SOL    HW255379   4.637   6.199   6.415
84514SOL     OW55380   5.604   9.333   2.759
84514SOL    HW155381   5.572   9.418   2.789
84514SOL    HW255382   5.657   9.354   2.682
84515SOL     OW55383   3.662  14.035   0.573
84515SOL    HW155384   3.710  13.955   0.552
84515SOL    HW255385   3.676  14.091   0.497
84516SOL     OW55386  14.189   4.408   4.260
84516SOL    HW155387  14.213   4.391   4.351
84516SOL    HW255388  14.119   4.474   4.265
84517SOL     OW55389  11.563   0.590   9.289
84517SOL    HW155390  11.491   0.558   9.235
84517SOL    HW255391  11.553   0.545   9.373
84518SOL     OW55392   6.261   3.780   0.612
84518SOL    HW155393   6.170   3.807   0.607
84518SOL    HW255394   6.286   3.762   0.521
84519SOL     OW55395  10.086  12.426  13.610
84519SOL    HW155396  10.136  12.389  13.683
84519SOL    HW255397  10.122  12.514  13.598
84520SOL     OW55398   7.719   6.515   3.330
84520SOL    HW155399   7.662   6.551   3.398
84520SOL    HW255400   7.699   6.567   3.252
84521SOL     OW55401   3.306   3.555   6.323
84521SOL    HW155402   3.219   3.515   6.329
84521SOL    HW255403   3.358   3.509   6.389
84522SOL     OW55404   4.141  10.026  14.297
84522SOL    HW155405   4.121   9.989  14.211
84522SOL    HW255406   4.095  10.110  14.299
84523SOL     OW55407   5.903   3.014   6.650
84523SOL    HW155408   5.965   3.082   6.624
84523SOL    HW255409   5.890   2.962   6.571
84524SOL     OW55410   8.535  13.698   8.567
84524SOL    HW155411   8.449  13.731   8.539
84524SOL    HW255412   8.552  13.744   8.649
84525SOL     OW55413  14.690   0.549  13.650
84525SOL    HW155414  14.673   0.473  13.706
84525SOL    HW255415  14.658   0.524  13.564
84526SOL     OW55416  12.517   1.541   3.067
84526SOL    HW155417  12.593   1.599   3.057
84526SOL    HW255418  12.552   1.453   3.057
84527SOL     OW55419   6.116  14.036  14.191
84527SOL    HW155420   6.189  14.001  14.140
84527SOL    HW255421   6.143  14.024  14.282
84528SOL     OW55422  11.498   7.398  12.639
84528SOL    HW155423  11.482   7.307  12.615
84528SOL    HW255424  11.582   7.397  12.684
84529SOL     OW55425   6.623  12.516   9.367
84529SOL    HW155426   6.586  12.438   9.407
84529SOL    HW255427   6.717  12.500   9.365
84530SOL     OW55428   0.634   0.712   6.140
84530SOL    HW155429   0.548   0.745   6.165
84530SOL    HW255430   0.663   0.660   6.215
84531SOL     OW55431   2.381   2.106   8.944
84531SOL    HW155432   2.409   2.101   9.036
84531SOL    HW255433   2.444   2.051   8.897
84532SOL     OW55434   3.974   7.259   5.785
84532SOL    HW155435   3.942   7.178   5.747
84532SOL    HW255436   4.036   7.294   5.721
84533SOL     OW55437  13.390   0.085   4.034
84533SOL    HW155438  13.307   0.064   3.990
84533SOL    HW255439  13.367   0.087   4.127
84534SOL     OW55440   3.493   3.010  10.571
84534SOL    HW155441   3.417   3.063  10.548
84534SOL    HW255442   3.464   2.920  10.561
84535SOL     OW55443  13.045   7.420   7.282
84535SOL    HW155444  12.957   7.397   7.251
84535SOL    HW255445  13.085   7.337   7.305
84536SOL     OW55446   7.439   5.245   9.351
84536SOL    HW155447   7.511   5.194   9.314
84536SOL    HW255448   7.379   5.258   9.278
84537SOL     OW55449  11.959   9.916   6.714
84537SOL    HW155450  11.996   9.896   6.628
84537SOL    HW255451  11.964   9.833   6.761
84538SOL     OW55452  10.184   1.445   8.191
84538SOL    HW155453  10.218   1.425   8.278
84538SOL    HW255454  10.170   1.359   8.150
84539SOL     OW55455  14.584   0.276   6.390
84539SOL    HW155456  14.645   0.348   6.405
84539SOL    HW255457  14.506   0.317   6.354
84540SOL     OW55458  11.880   1.536  12.730
84540SOL    HW155459  11.791   1.568  12.738
84540SOL    HW255460  11.899   1.497  12.816
84541SOL     OW55461  10.414  11.296  13.998
84541SOL    HW155462  10.498  11.252  13.985
84541SOL    HW255463  10.390  11.276  14.089
84542SOL     OW55464   6.093  14.384   7.832
84542SOL    HW155465   6.167  14.418   7.782
84542SOL    HW255466   6.070  14.454   7.892
84543SOL     OW55467   6.994  13.170  10.069
84543SOL    HW155468   6.960  13.123  10.145
84543SOL    HW255469   6.934  13.148   9.998
84544SOL     OW55470   5.396   9.782  14.046
84544SOL    HW155471   5.330   9.808  13.982
84544SOL    HW255472   5.390   9.686  14.049
84545SOL     OW55473   4.271  11.673  14.099
84545SOL    HW155474   4.285  11.652  14.006
84545SOL    HW255475   4.287  11.590  14.144
84546SOL     OW55476  13.489  13.338  10.212
84546SOL    HW155477  13.405  13.380  10.231
84546SOL    HW255478  13.545  13.408  10.180
84547SOL     OW55479   9.427   2.674   2.834
84547SOL    HW155480   9.471   2.589   2.831
84547SOL    HW255481   9.401   2.684   2.925
84548SOL     OW55482   9.460   3.422  14.087
84548SOL    HW155483   9.545   3.461  14.108
84548SOL    HW255484   9.478   3.370  14.008
84549SOL     OW55485  13.519  14.275   2.773
84549SOL    HW155486  13.435  14.254   2.814
84549SOL    HW255487  13.572  14.197   2.787
84550SOL     OW55488  11.520   0.250   2.696
84550SOL    HW155489  11.589   0.202   2.650
84550SOL    HW255490  11.534   0.230   2.788
84551SOL     OW55491   7.769   1.952  13.868
84551SOL    HW155492   7.855   1.990  13.850
84551SOL    HW255493   7.757   1.887  13.799
84552SOL     OW55494  14.246   2.580  10.973
84552SOL    HW155495  14.214   2.590  10.883
84552SOL    HW255496  14.194   2.643  11.024
84553SOL     OW55497  10.770  14.611  12.947
84553SOL    HW155498  10.697  14.616  13.008
84553SOL    HW255499  10.729  14.611  12.861
84554SOL     OW55500   6.669  14.030   4.830
84554SOL    HW155501   6.640  13.977   4.755
84554SOL    HW255502   6.589  14.074   4.860
84555SOL     OW55503  13.691  14.015   7.966
84555SOL    HW155504  13.649  13.941   7.922
84555SOL    HW255505  13.781  13.986   7.979
84556SOL     OW55506   6.068  14.106   0.150
84556SOL    HW155507   6.033  14.031   0.102
84556SOL    HW255508   6.124  14.151   0.087
84557SOL     OW55509  14.323   3.790   9.389
84557SOL    HW155510  14.401   3.838   9.416
84557SOL    HW255511  14.255   3.820   9.449
84558SOL     OW55512   4.153  13.682   0.947
84558SOL    HW155513   4.237  13.680   0.992
84558SOL    HW255514   4.154  13.606   0.889
84559SOL     OW55515   6.291   3.012  10.074
84559SOL    HW155516   6.274   2.918  10.071
84559SOL    HW255517   6.322   3.028  10.163
84560SOL     OW55518  14.633  13.563   5.984
84560SOL    HW155519  14.645  13.508   6.062
84560SOL    HW255520  14.539  13.575   5.977
84561SOL     OW55521   1.914   5.224  11.523
84561SOL    HW155522   1.952   5.178  11.448
84561SOL    HW255523   1.820   5.217  11.512
84562SOL     OW55524   9.335  11.352   0.457
84562SOL    HW155525   9.420  11.345   0.500
84562SOL    HW255526   9.300  11.263   0.459
84563SOL     OW55527  13.979  13.396  14.239
84563SOL    HW155528  14.021  13.318  14.203
84563SOL    HW255529  13.917  13.361  14.304
84564SOL     OW55530   5.050   3.299   1.408
84564SOL    HW155531   5.010   3.328   1.326
84564SOL    HW255532   5.123   3.359   1.421
84565SOL     OW55533  12.873   1.388   7.152
84565SOL    HW155534  12.938   1.373   7.222
84565SOL    HW255535  12.926   1.410   7.075
84566SOL     OW55536   0.208  13.737  10.888
84566SOL    HW155537   0.266  13.744  10.963
84566SOL    HW255538   0.178  13.827  10.872
84567SOL     OW55539   9.742  11.325   8.654
84567SOL    HW155540   9.811  11.294   8.596
84567SOL    HW255541   9.780  11.401   8.698
84568SOL     OW55542   6.489   4.590  13.753
84568SOL    HW155543   6.416   4.593  13.815
84568SOL    HW255544   6.489   4.676  13.711
84569SOL     OW55545   3.606  13.277   7.282
84569SOL    HW155546   3.660  13.200   7.263
84569SOL    HW255547   3.621  13.336   7.208
84570SOL     OW55548  14.812   2.175   5.987
84570SOL    HW155549   0.015   2.207   6.025
84570SOL    HW255550  14.782   2.247   5.932
84571SOL     OW55551   0.603  13.159   3.282
84571SOL    HW155552   0.555  13.236   3.252
84571SOL    HW255553   0.675  13.195   3.334
84572SOL     OW55554  10.982   6.088   0.216
84572SOL    HW155555  11.018   5.999   0.219
84572SOL    HW255556  10.951   6.105   0.305
84573SOL     OW55557   5.437  10.085   7.224
84573SOL    HW155558   5.510  10.024   7.239
84573SOL    HW255559   5.419  10.079   7.130
84574SOL     OW55560  14.185   1.980   8.173
84574SOL    HW155561  14.107   1.975   8.118
84574SOL    HW255562  14.235   2.053   8.139
84575SOL     OW55563   3.096  14.279  14.512
84575SOL    HW155564   3.030  14.210  14.511
84575SOL    HW255565   3.074  14.332  14.588
84576SOL     OW55566  13.942   9.997   4.322
84576SOL    HW155567  13.980   9.930   4.378
84576SOL    HW255568  13.954  10.078   4.372
84577SOL     OW55569  14.224  11.610  10.221
84577SOL    HW155570  14.197  11.520  10.239
84577SOL    HW255571  14.319  11.604  10.205
84578SOL     OW55572   1.242   4.174  11.327
84578SOL    HW155573   1.331   4.177  11.292
84578SOL    HW255574   1.199   4.103  11.279
84579SOL     OW55575  10.677   2.549  11.075
84579SOL    HW155576  10.619   2.480  11.041
84579SOL    HW255577  10.647   2.564  11.165
84580SOL     OW55578  13.833   3.230   5.541
84580SOL    HW155579  13.745   3.242   5.575
84580SOL    HW255580  13.890   3.274   5.604
84581SOL     OW55581   4.155   6.928   8.742
84581SOL    HW155582   4.105   6.894   8.667
84581SOL    HW255583   4.137   7.022   8.742
84582SOL     OW55584   2.603   5.309   1.217
84582SOL    HW155585   2.528   5.273   1.265
84582SOL    HW255586   2.563   5.359   1.146
84583SOL     OW55587  13.067   1.819  10.714
84583SOL    HW155588  12.972   1.816  10.721
84583SOL    HW255589  13.089   1.751  10.650
84584SOL     OW55590   7.896  11.275   5.040
84584SOL    HW155591   7.845  11.203   5.078
84584SOL    HW255592   7.855  11.292   4.956
84585SOL     OW55593   8.592   8.447   2.036
84585SOL    HW155594   8.567   8.521   2.091
84585SOL    HW255595   8.561   8.370   2.084
84586SOL     OW55596   9.135   6.850  12.243
84586SOL    HW155597   9.104   6.895  12.165
84586SOL    HW255598   9.103   6.903  12.316
84587SOL     OW55599   5.413   2.958   8.773
84587SOL    HW155600   5.399   2.951   8.678
84587SOL    HW255601   5.442   2.870   8.799
84588SOL     OW55602   9.699   9.347  14.665
84588SOL    HW155603   9.748   9.269  14.639
84588SOL    HW255604   9.658   9.377  14.584
84589SOL     OW55605   9.916   8.865   4.017
84589SOL    HW155606  10.003   8.829   4.034
84589SOL    HW255607   9.891   8.907   4.099
84590SOL     OW55608   7.873   6.319  12.019
84590SOL    HW155609   7.807   6.258  12.052
84590SOL    HW255610   7.894   6.374  12.095
84591SOL     OW55611   4.396   7.258  12.622
84591SOL    HW155612   4.350   7.191  12.672
84591SOL    HW255613   4.343   7.267  12.542
84592SOL     OW55614   0.411  14.073   2.999
84592SOL    HW155615   0.330  14.066   3.050
84592SOL    HW255616   0.404  14.005   2.933
84593SOL     OW55617   4.024  10.932  13.565
84593SOL    HW155618   4.067  10.848  13.575
84593SOL    HW255619   4.095  10.996  13.563
84594SOL     OW55620   0.922  11.052  13.443
84594SOL    HW155621   0.998  11.107  13.424
84594SOL    HW255622   0.946  10.965  13.411
84595SOL     OW55623   2.261   3.001   6.014
84595SOL    HW155624   2.195   2.962   6.071
84595SOL    HW255625   2.315   3.054   6.072
84596SOL     OW55626  10.069  10.232   3.655
84596SOL    HW155627  10.042  10.312   3.700
84596SOL    HW255628  10.160  10.220   3.683
84597SOL     OW55629   0.332   9.457   2.392
84597SOL    HW155630   0.348   9.386   2.331
84597SOL    HW255631   0.409   9.514   2.385
84598SOL     OW55632   3.454   1.260   3.516
84598SOL    HW155633   3.361   1.255   3.540
84598SOL    HW255634   3.492   1.178   3.550
84599SOL     OW55635  10.514   7.725   1.877
84599SOL    HW155636  10.531   7.695   1.788
84599SOL    HW255637  10.459   7.802   1.866
84600SOL     OW55638   9.239   7.380   1.222
84600SOL    HW155639   9.165   7.324   1.199
84600SOL    HW255640   9.206   7.469   1.213
84601SOL     OW55641   3.348   5.280   8.704
84601SOL    HW155642   3.254   5.262   8.708
84601SOL    HW255643   3.366   5.294   8.611
84602SOL     OW55644   0.113   8.167   5.167
84602SOL    HW155645   0.116   8.249   5.216
84602SOL    HW255646   0.066   8.106   5.224
84603SOL     OW55647   7.545   5.238   5.381
84603SOL    HW155648   7.554   5.189   5.463
84603SOL    HW255649   7.584   5.323   5.399
84604SOL     OW55650  13.365   5.985   4.841
84604SOL    HW155651  13.340   6.016   4.928
84604SOL    HW255652  13.331   6.051   4.781
84605SOL     OW55653   7.526  14.218   2.227
84605SOL    HW155654   7.504  14.144   2.170
84605SOL    HW255655   7.571  14.279   2.169
84606SOL     OW55656   5.274  11.987  10.930
84606SOL    HW155657   5.341  12.016  10.992
84606SOL    HW255658   5.273  11.892  10.939
84607SOL     OW55659  10.493  11.614  12.064
84607SOL    HW155660  10.478  11.633  11.972
84607SOL    HW255661  10.407  11.591  12.098
84608SOL     OW55662  10.286   8.325   8.650
84608SOL    HW155663  10.279   8.418   8.632
84608SOL    HW255664  10.211   8.286   8.605
84609SOL     OW55665   0.904  10.737  11.131
84609SOL    HW155666   0.951  10.798  11.075
84609SOL    HW255667   0.883  10.663  11.073
84610SOL     OW55668  14.456   3.675  12.121
84610SOL    HW155669  14.440   3.584  12.146
84610SOL    HW255670  14.492   3.670  12.033
84611SOL     OW55671  12.568   0.564  12.128
84611SOL    HW155672  12.527   0.607  12.053
84611SOL    HW255673  12.660   0.552  12.103
84612SOL     OW55674   6.829   9.689   4.972
84612SOL    HW155675   6.773   9.612   4.968
84612SOL    HW255676   6.850   9.708   4.880
84613SOL     OW55677  10.622   5.857   3.013
84613SOL    HW155678  10.603   5.766   2.990
84613SOL    HW255679  10.718   5.862   3.008
84614SOL     OW55680  11.801   7.725   6.099
84614SOL    HW155681  11.739   7.729   6.172
84614SOL    HW255682  11.835   7.636   6.102
84615SOL     OW55683  14.093   8.326   4.145
84615SOL    HW155684  14.096   8.243   4.097
84615SOL    HW255685  14.001   8.352   4.143
84616SOL     OW55686  10.636   2.958   2.371
84616SOL    HW155687  10.711   2.939   2.427
84616SOL    HW255688  10.567   2.985   2.432
84617SOL     OW55689   4.051   4.155   7.734
84617SOL    HW155690   4.010   4.082   7.781
84617SOL    HW255691   3.977   4.210   7.708
84618SOL     OW55692   3.746   6.130   0.863
84618SOL    HW155693   3.749   6.049   0.913
84618SOL    HW255694   3.789   6.109   0.781
84619SOL     OW55695   0.486   4.693  10.203
84619SOL    HW155696   0.549   4.764  10.214
84619SOL    HW255697   0.530   4.616  10.238
84620SOL     OW55698   8.596  10.929   3.129
84620SOL    HW155699   8.610  11.023   3.136
84620SOL    HW255700   8.673  10.896   3.083
84621SOL     OW55701   5.507  10.355  13.150
84621SOL    HW155702   5.422  10.371  13.189
84621SOL    HW255703   5.541  10.442  13.130
84622SOL     OW55704   9.396   8.113  11.083
84622SOL    HW155705   9.339   8.069  11.019
84622SOL    HW255706   9.448   8.173  11.030
84623SOL     OW55707   8.590   1.282   9.645
84623SOL    HW155708   8.661   1.324   9.694
84623SOL    HW255709   8.513   1.337   9.663
84624SOL     OW55710  11.270   6.599   6.052
84624SOL    HW155711  11.221   6.681   6.058
84624SOL    HW255712  11.262   6.560   6.140
84625SOL     OW55713   1.086   0.214  12.761
84625SOL    HW155714   1.089   0.188  12.853
84625SOL    HW255715   1.161   0.171  12.721
84626SOL     OW55716   3.369  13.070  14.728
84626SOL    HW155717   3.333  13.156  14.706
84626SOL    HW255718   3.403  13.037  14.644
84627SOL     OW55719  12.225   6.560  12.971
84627SOL    HW155720  12.225   6.502  13.047
84627SOL    HW255721  12.235   6.648  13.007
84628SOL     OW55722  14.520   1.148   6.403
84628SOL    HW155723  14.498   1.105   6.485
84628SOL    HW255724  14.475   1.232   6.407
84629SOL     OW55725  13.328   5.816   7.163
84629SOL    HW155726  13.399   5.876   7.189
84629SOL    HW255727  13.372   5.733   7.145
84630SOL     OW55728   7.456   9.115   6.236
84630SOL    HW155729   7.403   9.050   6.282
84630SOL    HW255730   7.547   9.087   6.252
84631SOL     OW55731   1.210   9.494  10.057
84631SOL    HW155732   1.185   9.541  10.136
84631SOL    HW255733   1.192   9.555   9.986
84632SOL     OW55734  11.918  12.027   4.527
84632SOL    HW155735  11.916  11.986   4.614
84632SOL    HW255736  11.832  12.007   4.489
84633SOL     OW55737  11.401   1.339  10.326
84633SOL    HW155738  11.480   1.286  10.327
84633SOL    HW255739  11.431   1.429  10.333
84634SOL     OW55740   5.590  13.348  10.009
84634SOL    HW155741   5.615  13.312  10.094
84634SOL    HW255742   5.546  13.276   9.965
84635SOL     OW55743   3.116   3.760   3.693
84635SOL    HW155744   3.091   3.832   3.634
84635SOL    HW255745   3.208   3.777   3.713
84636SOL     OW55746   5.822   1.162   2.819
84636SOL    HW155747   5.833   1.071   2.794
84636SOL    HW255748   5.884   1.210   2.764
84637SOL     OW55749   7.192  12.094   0.749
84637SOL    HW155750   7.282  12.123   0.734
84637SOL    HW255751   7.190  12.067   0.840
84638SOL     OW55752   4.842   8.777   4.878
84638SOL    HW155753   4.890   8.860   4.880
84638SOL    HW255754   4.769   8.793   4.818
84639SOL     OW55755  12.421   2.339   6.563
84639SOL    HW155756  12.466   2.369   6.484
84639SOL    HW255757  12.478   2.269   6.597
84640SOL     OW55758   3.470  12.201   4.274
84640SOL    HW155759   3.500  12.263   4.208
84640SOL    HW255760   3.485  12.245   4.357
84641SOL     OW55761   2.557  10.903   5.507
84641SOL    HW155762   2.619  10.932   5.574
84641SOL    HW255763   2.606  10.908   5.425
84642SOL     OW55764   3.382  14.399   6.200
84642SOL    HW155765   3.309  14.361   6.249
84642SOL    HW255766   3.434  14.323   6.172
84643SOL     OW55767  11.966   2.247   4.845
84643SOL    HW155768  11.912   2.247   4.924
84643SOL    HW255769  12.046   2.201   4.870
84644SOL     OW55770  11.526  12.724  10.401
84644SOL    HW155771  11.440  12.713  10.361
84644SOL    HW255772  11.563  12.800  10.355
84645SOL     OW55773   4.024   8.038   9.125
84645SOL    HW155774   4.006   8.073   9.037
84645SOL    HW255775   4.062   8.112   9.173
84646SOL     OW55776  10.281  14.681  10.183
84646SOL    HW155777  10.283  14.640  10.270
84646SOL    HW255778  10.338  14.626  10.130
84647SOL     OW55779  14.817   1.271   3.288
84647SOL    HW155780   0.011   1.330   3.275
84647SOL    HW255781  14.833   1.231   3.373
84648SOL     OW55782   3.148  12.130  11.600
84648SOL    HW155783   3.160  12.201  11.536
84648SOL    HW255784   3.197  12.057  11.563
84649SOL     OW55785  14.003  14.629  12.042
84649SOL    HW155786  14.089  14.662  12.018
84649SOL    HW255787  14.020  14.549  12.090
84650SOL     OW55788  10.775   5.230   7.867
84650SOL    HW155789  10.812   5.265   7.786
84650SOL    HW255790  10.851   5.208   7.921
84651SOL     OW55791   0.595   0.748   8.672
84651SOL    HW155792   0.513   0.797   8.664
84651SOL    HW255793   0.571   0.667   8.716
84652SOL     OW55794   4.118   0.007  12.650
84652SOL    HW155795   4.070   0.089  12.663
84652SOL    HW255796   4.071  14.842  12.580
84653SOL     OW55797   3.303   1.666   0.994
84653SOL    HW155798   3.330   1.743   0.944
84653SOL    HW255799   3.378   1.608   0.990
84654SOL     OW55800  12.486  13.400   1.558
84654SOL    HW155801  12.418  13.393   1.491
84654SOL    HW255802  12.493  13.311   1.594
84655SOL     OW55803   3.776   9.606  10.414
84655SOL    HW155804   3.772   9.559  10.331
84655SOL    HW255805   3.753   9.696  10.392
84656SOL     OW55806  12.410   3.818   8.655
84656SOL    HW155807  12.412   3.784   8.745
84656SOL    HW255808  12.464   3.897   8.658
84657SOL     OW55809  12.408  13.925   1.660
84657SOL    HW155810  12.402  13.896   1.751
84657SOL    HW255811  12.483  13.984   1.658
84658SOL     OW55812   5.799  12.659   0.583
84658SOL    HW155813   5.844  12.647   0.500
84658SOL    HW255814   5.706  12.661   0.560
84659SOL     OW55815  12.174  12.368   0.570
84659SOL    HW155816  12.201  12.287   0.526
84659SOL    HW255817  12.171  12.433   0.499
84660SOL     OW55818  10.946   5.017   4.567
84660SOL    HW155819  11.013   4.951   4.549
84660SOL    HW255820  10.996   5.096   4.589
84661SOL     OW55821  10.715  12.740   1.315
84661SOL    HW155822  10.628  12.752   1.352
84661SOL    HW255823  10.766  12.814   1.348
84662SOL     OW55824   1.366   0.972   4.448
84662SOL    HW155825   1.353   1.067   4.446
84662SOL    HW255826   1.346   0.943   4.359
84663SOL     OW55827  10.606   7.394  14.355
84663SOL    HW155828  10.632   7.452  14.427
84663SOL    HW255829  10.660   7.421  14.281
84664SOL     OW55830  10.437   9.569   5.314
84664SOL    HW155831  10.438   9.662   5.293
84664SOL    HW255832  10.354   9.536   5.278
84665SOL     OW55833   3.622  10.436   8.437
84665SOL    HW155834   3.553  10.485   8.393
84665SOL    HW255835   3.703  10.473   8.404
84666SOL     OW55836   8.794  10.372  10.448
84666SOL    HW155837   8.848  10.352  10.525
84666SOL    HW255838   8.712  10.325  10.463
84667SOL     OW55839   6.118   2.313   9.649
84667SOL    HW155840   6.116   2.225   9.613
84667SOL    HW255841   6.182   2.308   9.721
84668SOL     OW55842  12.144   1.437   3.732
84668SOL    HW155843  12.051   1.439   3.709
84668SOL    HW255844  12.183   1.507   3.679
84669SOL     OW55845  14.867  12.471   7.389
84669SOL    HW155846  14.792  12.484   7.330
84669SOL    HW255847   0.002  12.557   7.428
84670SOL     OW55848   7.213  11.440   1.639
84670SOL    HW155849   7.306  11.437   1.614
84670SOL    HW255850   7.215  11.448   1.734
84671SOL     OW55851   8.122   2.258   7.610
84671SOL    HW155852   8.209   2.274   7.647
84671SOL    HW255853   8.084   2.190   7.665
84672SOL     OW55854   4.680   5.703   7.862
84672SOL    HW155855   4.714   5.711   7.951
84672SOL    HW255856   4.659   5.793   7.836
84673SOL     OW55857   1.612   2.424   1.374
84673SOL    HW155858   1.521   2.454   1.375
84673SOL    HW255859   1.663   2.503   1.357
84674SOL     OW55860   3.680   3.422   2.663
84674SOL    HW155861   3.714   3.505   2.697
84674SOL    HW255862   3.643   3.378   2.740
84675SOL     OW55863   3.395   7.089  13.223
84675SOL    HW155864   3.459   7.121  13.159
84675SOL    HW255865   3.440   7.097  13.307
84676SOL     OW55866  13.499   5.671   0.615
84676SOL    HW155867  13.495   5.635   0.527
84676SOL    HW255868  13.564   5.617   0.660
84677SOL     OW55869  14.763  12.425   5.107
84677SOL    HW155870  14.850  12.412   5.068
84677SOL    HW255871  14.709  12.357   5.067
84678SOL     OW55872  14.717   1.983   6.932
84678SOL    HW155873  14.690   1.892   6.944
84678SOL    HW255874  14.647   2.034   6.973
84679SOL     OW55875  11.682   8.912   3.273
84679SOL    HW155876  11.776   8.932   3.277
84679SOL    HW255877  11.673   8.861   3.192
84680SOL     OW55878   5.983  13.812   1.535
84680SOL    HW155879   6.013  13.751   1.602
84680SOL    HW255880   6.058  13.823   1.477
84681SOL     OW55881  14.709   3.183  14.663
84681SOL    HW155882  14.749   3.247  14.604
84681SOL    HW255883  14.782   3.152  14.717
84682SOL     OW55884   3.732   3.165   7.630
84682SOL    HW155885   3.752   3.072   7.639
84682SOL    HW255886   3.814   3.205   7.604
84683SOL     OW55887  12.143  14.704  13.288
84683SOL    HW155888  12.120  14.639  13.221
84683SOL    HW255889  12.230  14.735  13.262
84684SOL     OW55890   5.244  14.338   8.501
84684SOL    HW155891   5.243  14.406   8.569
84684SOL    HW255892   5.201  14.379   8.426
84685SOL     OW55893  10.354   5.292  11.446
84685SOL    HW155894  10.329   5.372  11.399
84685SOL    HW255895  10.310   5.222  11.398
84686SOL     OW55896   6.200  10.728  13.277
84686SOL    HW155897   6.293  10.751  13.280
84686SOL    HW255898   6.183  10.708  13.185
84687SOL     OW55899   5.542   2.941  14.136
84687SOL    HW155900   5.542   2.849  14.111
84687SOL    HW255901   5.579   2.942  14.225
84688SOL     OW55902   6.842   9.110   3.416
84688SOL    HW155903   6.774   9.173   3.439
84688SOL    HW255904   6.880   9.144   3.335
84689SOL     OW55905   6.628  10.453   6.038
84689SOL    HW155906   6.585  10.368   6.029
84689SOL    HW255907   6.677  10.464   5.957
84690SOL     OW55908   8.329   4.642  11.870
84690SOL    HW155909   8.234   4.631  11.865
84690SOL    HW255910   8.351   4.697  11.794
84691SOL     OW55911   8.742   5.822  11.011
84691SOL    HW155912   8.671   5.815  10.948
84691SOL    HW255913   8.812   5.766  10.976
84692SOL     OW55914  12.678   9.452  13.190
84692SOL    HW155915  12.718   9.520  13.244
84692SOL    HW255916  12.671   9.376  13.247
84693SOL     OW55917  11.583  10.296   3.618
84693SOL    HW155918  11.585  10.234   3.544
84693SOL    HW255919  11.582  10.382   3.576
84694SOL     OW55920  12.741   4.224   1.484
84694SOL    HW155921  12.755   4.315   1.512
84694SOL    HW255922  12.648   4.210   1.497
84695SOL     OW55923  10.678   1.421   6.953
84695SOL    HW155924  10.612   1.489   6.938
84695SOL    HW255925  10.692   1.422   7.048
84696SOL     OW55926   6.790   1.133   6.305
84696SOL    HW155927   6.765   1.089   6.224
84696SOL    HW255928   6.741   1.085   6.373
84697SOL     OW55929   0.000   3.584   3.734
84697SOL    HW155930   0.041   3.503   3.704
84697SOL    HW255931   0.072   3.633   3.774
84698SOL     OW55932  13.746  13.731   1.594
84698SOL    HW155933  13.840  13.749   1.591
84698SOL    HW255934  13.705  13.817   1.604
84699SOL     OW55935  13.575  10.768   2.805
84699SOL    HW155936  13.588  10.846   2.859
84699SOL    HW255937  13.497  10.726   2.842
84700SOL     OW55938   0.390   1.141  11.278
84700SOL    HW155939   0.319   1.182  11.229
84700SOL    HW255940   0.392   1.051  11.246
84701SOL     OW55941   7.300   9.072  13.455
84701SOL    HW155942   7.321   9.152  13.503
84701SOL    HW255943   7.214   9.088  13.418
84702SOL     OW55944   6.268   8.062   7.096
84702SOL    HW155945   6.317   8.091   7.019
84702SOL    HW255946   6.313   8.104   7.170
84703SOL     OW55947  10.907   2.780  11.710
84703SOL    HW155948  10.856   2.699  11.712
84703SOL    HW255949  10.879   2.829  11.787
84704SOL     OW55950   8.949   3.565   1.440
84704SOL    HW155951   8.901   3.633   1.486
84704SOL    HW255952   8.894   3.544   1.365
84705SOL     OW55953  14.260   0.481   2.562
84705SOL    HW155954  14.312   0.503   2.484
84705SOL    HW255955  14.250   0.564   2.608
84706SOL     OW55956  13.801  14.235   1.965
84706SOL    HW155957  13.754  14.179   2.027
84706SOL    HW255958  13.827  14.311   2.017
84707SOL     OW55959  11.930   5.431  13.212
84707SOL    HW155960  11.950   5.473  13.128
84707SOL    HW255961  11.998   5.462  13.272
84708SOL     OW55962   8.049   9.917   4.006
84708SOL    HW155963   8.104   9.976   4.057
84708SOL    HW255964   8.100   9.899   3.927
84709SOL     OW55965   9.492   3.338  11.970
84709SOL    HW155966   9.504   3.288  11.889
84709SOL    HW255967   9.422   3.292  12.016
84710SOL     OW55968   4.956   7.659   3.005
84710SOL    HW155969   5.031   7.603   3.024
84710SOL    HW255970   4.880   7.600   3.006
84711SOL     OW55971   9.388   7.401   2.786
84711SOL    HW155972   9.401   7.342   2.712
84711SOL    HW255973   9.372   7.343   2.860
84712SOL     OW55974   4.743   2.733   7.687
84712SOL    HW155975   4.713   2.643   7.705
84712SOL    HW255976   4.703   2.785   7.756
84713SOL     OW55977   3.847   0.860   8.933
84713SOL    HW155978   3.843   0.817   8.847
84713SOL    HW255979   3.759   0.850   8.969
84714SOL     OW55980   5.369   2.596  10.486
84714SOL    HW155981   5.277   2.572  10.496
84714SOL    HW255982   5.405   2.528  10.427
84715SOL     OW55983  14.468  12.164   9.863
84715SOL    HW155984  14.468  12.138   9.955
84715SOL    HW255985  14.503  12.088   9.816
84716SOL     OW55986   2.508  10.240   0.209
84716SOL    HW155987   2.442  10.302   0.176
84716SOL    HW255988   2.571  10.233   0.138
84717SOL     OW55989  12.899   5.379   9.965
84717SOL    HW155990  12.816   5.378   9.915
84717SOL    HW255991  12.966   5.363   9.899
84718SOL     OW55992  12.171   4.041   9.818
84718SOL    HW155993  12.261   4.007   9.820
84718SOL    HW255994  12.128   3.993   9.748
84719SOL     OW55995   6.643   1.807   1.000
84719SOL    HW155996   6.601   1.881   1.044
84719SOL    HW255997   6.624   1.732   1.056
84720SOL     OW55998  14.526   8.623   1.507
84720SOL    HW155999  14.507   8.704   1.555
84720SOL    HW256000  14.588   8.649   1.439
84721SOL     OW56001  11.492   6.062  13.250
84721SOL    HW156002  11.567   6.058  13.190
84721SOL    HW256003  11.466   6.154  13.249
84722SOL     OW56004  14.398  11.440  14.251
84722SOL    HW156005  14.446  11.357  14.257
84722SOL    HW256006  14.412  11.482  14.335
84723SOL     OW56007   0.748   0.806   2.565
84723SOL    HW156008   0.789   0.722   2.586
84723SOL    HW256009   0.809   0.848   2.504
84724SOL     OW56010   1.692  13.788  12.763
84724SOL    HW156011   1.687  13.752  12.851
84724SOL    HW256012   1.621  13.852  12.759
84725SOL     OW56013  11.310   4.590   4.527
84725SOL    HW156014  11.267   4.585   4.612
84725SOL    HW256015  11.290   4.506   4.485
84726SOL     OW56016  13.159   0.111  12.383
84726SOL    HW156017  13.206   0.029  12.363
84726SOL    HW256018  13.161   0.160  12.301
84727SOL     OW56019   5.914   0.285   8.935
84727SOL    HW156020   5.974   0.217   8.907
84727SOL    HW256021   5.880   0.254   9.019
84728SOL     OW56022  11.957  14.871  12.382
84728SOL    HW156023  11.951  14.776  12.392
84728SOL    HW256024  11.886   0.013  12.321
84729SOL     OW56025   7.768  11.099  13.877
84729SOL    HW156026   7.757  11.077  13.785
84729SOL    HW256027   7.855  11.139  13.882
84730SOL     OW56028   1.729  14.129  13.589
84730SOL    HW156029   1.652  14.184  13.583
84730SOL    HW256030   1.722  14.069  13.514
84731SOL     OW56031  10.522   5.689   1.104
84731SOL    HW156032  10.464   5.716   1.033
84731SOL    HW256033  10.590   5.756   1.107
84732SOL     OW56034   9.788  13.821  12.857
84732SOL    HW156035   9.782  13.915  12.873
84732SOL    HW256036   9.697  13.791  12.856
84733SOL     OW56037   4.398   3.864   8.548
84733SOL    HW156038   4.381   3.887   8.640
84733SOL    HW256039   4.405   3.948   8.503
84734SOL     OW56040   4.666   5.319   1.481
84734SOL    HW156041   4.668   5.254   1.411
84734SOL    HW256042   4.657   5.403   1.436
84735SOL     OW56043  13.401   7.837   3.507
84735SOL    HW156044  13.469   7.884   3.460
84735SOL    HW256045  13.412   7.746   3.481
84736SOL     OW56046   9.465   1.738  12.622
84736SOL    HW156047   9.519   1.724  12.700
84736SOL    HW256048   9.528   1.751  12.551
84737SOL     OW56049  11.158   6.526   3.965
84737SOL    HW156050  11.103   6.477   3.905
84737SOL    HW256051  11.200   6.460   4.020
84738SOL     OW56052  12.908   2.968   6.532
84738SOL    HW156053  12.875   2.957   6.621
84738SOL    HW256054  12.989   2.918   6.530
84739SOL     OW56055   0.102   5.801  11.619
84739SOL    HW156056   0.027   5.832  11.569
84739SOL    HW256057   0.128   5.720  11.575
84740SOL     OW56058   7.959   7.623  14.208
84740SOL    HW156059   7.958   7.719  14.206
84740SOL    HW256060   8.009   7.598  14.131
84741SOL     OW56061  13.301  14.577   0.684
84741SOL    HW156062  13.374  14.536   0.638
84741SOL    HW256063  13.229  14.514   0.675
84742SOL     OW56064  11.637  11.999   7.774
84742SOL    HW156065  11.622  11.925   7.832
84742SOL    HW256066  11.724  11.984   7.737
84743SOL     OW56067  11.855  12.157   7.470
84743SOL    HW156068  11.797  12.089   7.505
84743SOL    HW256069  11.929  12.108   7.433
84744SOL     OW56070  10.458   0.455   1.468
84744SOL    HW156071  10.398   0.449   1.543
84744SOL    HW256072  10.474   0.364   1.442
84745SOL     OW56073  13.560  13.576   8.673
84745SOL    HW156074  13.509  13.571   8.754
84745SOL    HW256075  13.512  13.638   8.618
84746SOL     OW56076   3.915   7.643   8.169
84746SOL    HW156077   3.982   7.649   8.101
84746SOL    HW256078   3.872   7.559   8.152
84747SOL     OW56079  12.454   5.762   5.571
84747SOL    HW156080  12.474   5.836   5.513
84747SOL    HW256081  12.361   5.745   5.557
84748SOL     OW56082   9.819  12.140  14.838
84748SOL    HW156083   9.843  12.227  14.807
84748SOL    HW256084   9.900  12.090  14.833
84749SOL     OW56085   5.309   6.172   7.267
84749SOL    HW156086   5.361   6.099   7.233
84749SOL    HW256087   5.365   6.249   7.255
84750SOL     OW56088   2.201  11.215   0.435
84750SOL    HW156089   2.224  11.201   0.527
84750SOL    HW256090   2.173  11.129   0.404
84751SOL     OW56091   3.912   3.049  13.075
84751SOL    HW156092   3.846   3.112  13.046
84751SOL    HW256093   3.951   3.016  12.994
84752SOL     OW56094   2.084  10.870   1.241
84752SOL    HW156095   1.996  10.904   1.226
84752SOL    HW256096   2.112  10.911   1.323
84753SOL     OW56097   2.612  12.980   0.827
84753SOL    HW156098   2.554  12.917   0.870
84753SOL    HW256099   2.586  12.978   0.735
84754SOL     OW56100   8.555   9.699   8.992
84754SOL    HW156101   8.541   9.678   9.084
84754SOL    HW256102   8.468   9.719   8.958
84755SOL     OW56103  14.708   1.042   2.618
84755SOL    HW156104  14.616   1.063   2.636
84755SOL    HW256105  14.732   0.980   2.687
84756SOL     OW56106   5.742   8.130   3.480
84756SOL    HW156107   5.672   8.118   3.543
84756SOL    HW256108   5.780   8.043   3.470
84757SOL     OW56109   5.588   3.643  14.560
84757SOL    HW156110   5.526   3.715  14.546
84757SOL    HW256111   5.536   3.564  14.546
84758SOL     OW56112   3.226   2.707   3.971
84758SOL    HW156113   3.234   2.780   3.910
84758SOL    HW256114   3.263   2.739   4.053
84759SOL     OW56115  11.581   7.759   3.508
84759SOL    HW156116  11.547   7.801   3.429
84759SOL    HW256117  11.641   7.691   3.476
84760SOL     OW56118  13.716   9.866  11.836
84760SOL    HW156119  13.744   9.950  11.872
84760SOL    HW256120  13.703   9.810  11.912
84761SOL     OW56121   8.129  14.821   2.993
84761SOL    HW156122   8.173  14.749   3.039
84761SOL    HW256123   8.129   0.014   3.055
84762SOL     OW56124   7.722   9.054  14.328
84762SOL    HW156125   7.642   9.029  14.374
84762SOL    HW256126   7.768   8.972  14.313
84763SOL     OW56127   5.129  13.937   2.216
84763SOL    HW156128   5.040  13.930   2.181
84763SOL    HW256129   5.126  13.889   2.299
84764SOL     OW56130   1.176   4.530   3.351
84764SOL    HW156131   1.093   4.500   3.314
84764SOL    HW256132   1.218   4.578   3.279
84765SOL     OW56133  13.339   3.166   0.258
84765SOL    HW156134  13.430   3.193   0.264
84765SOL    HW256135  13.317   3.178   0.165
84766SOL     OW56136   0.219  10.966   0.951
84766SOL    HW156137   0.193  10.874   0.949
84766SOL    HW256138   0.302  10.969   0.903
84767SOL     OW56139   6.412   2.216   7.219
84767SOL    HW156140   6.317   2.225   7.232
84767SOL    HW256141   6.450   2.273   7.286
84768SOL     OW56142   1.929  11.042  12.699
84768SOL    HW156143   1.864  10.972  12.708
84768SOL    HW256144   1.970  11.026  12.614
84769SOL     OW56145   6.631   7.292   7.359
84769SOL    HW156146   6.727   7.289   7.355
84769SOL    HW256147   6.606   7.337   7.278
84770SOL     OW56148   9.048   0.425   1.086
84770SOL    HW156149   8.969   0.449   1.134
84770SOL    HW256150   9.119   0.441   1.149
84771SOL     OW56151  12.685   4.515   5.409
84771SOL    HW156152  12.723   4.466   5.336
84771SOL    HW256153  12.620   4.456   5.446
84772SOL     OW56154  13.065   0.193  12.922
84772SOL    HW156155  13.095   0.272  12.967
84772SOL    HW256156  13.056   0.220  12.831
84773SOL     OW56157  10.142   4.782   8.871
84773SOL    HW156158  10.117   4.692   8.851
84773SOL    HW256159  10.071   4.814   8.927
84774SOL     OW56160   7.473   8.255   5.003
84774SOL    HW156161   7.380   8.240   5.022
84774SOL    HW256162   7.507   8.168   4.981
84775SOL     OW56163  12.256   5.809  14.773
84775SOL    HW156164  12.345   5.838  14.793
84775SOL    HW256165  12.206   5.828  14.853
84776SOL     OW56166  13.133  14.297   1.140
84776SOL    HW156167  13.212  14.260   1.099
84776SOL    HW256168  13.070  14.302   1.068
84777SOL     OW56169   7.250   3.525   3.202
84777SOL    HW156170   7.260   3.481   3.117
84777SOL    HW256171   7.329   3.499   3.251
84778SOL     OW56172  13.146  10.948   5.389
84778SOL    HW156173  13.147  11.025   5.333
84778SOL    HW256174  13.150  10.874   5.329
84779SOL     OW56175   4.323   2.622  12.068
84779SOL    HW156176   4.352   2.584  11.985
84779SOL    HW256177   4.239   2.663  12.048
84780SOL     OW56178  10.358   4.687  11.464
84780SOL    HW156179  10.423   4.618  11.452
84780SOL    HW256180  10.347   4.694  11.559
84781SOL     OW56181   0.366   9.391   6.607
84781SOL    HW156182   0.461   9.404   6.604
84781SOL    HW256183   0.336   9.449   6.676
84782SOL     OW56184   2.827   0.528   1.542
84782SOL    HW156185   2.779   0.591   1.487
84782SOL    HW256186   2.832   0.571   1.627
84783SOL     OW56187   3.598  10.377   5.459
84783SOL    HW156188   3.654  10.308   5.497
84783SOL    HW256189   3.593  10.354   5.366
84784SOL     OW56190  11.503   6.609  12.572
84784SOL    HW156191  11.515   6.697  12.606
84784SOL    HW256192  11.408   6.601  12.559
84785SOL     OW56193   4.579   0.094   1.422
84785SOL    HW156194   4.579   0.087   1.518
84785SOL    HW256195   4.614   0.182   1.405
84786SOL     OW56196   1.990   5.573   4.134
84786SOL    HW156197   2.050   5.627   4.184
84786SOL    HW256198   2.033   5.488   4.128
84787SOL     OW56199   5.070  13.339   0.570
84787SOL    HW156200   5.103  13.420   0.532
84787SOL    HW256201   4.977  13.355   0.585
84788SOL     OW56202   9.837   1.560  12.107
84788SOL    HW156203   9.910   1.541  12.047
84788SOL    HW256204   9.813   1.476  12.144
84789SOL     OW56205   1.328   4.011  10.262
84789SOL    HW156206   1.368   4.098  10.270
84789SOL    HW256207   1.333   3.975  10.351
84790SOL     OW56208   5.068   1.020  14.177
84790SOL    HW156209   5.063   0.995  14.085
84790SOL    HW256210   5.111   1.106  14.177
84791SOL     OW56211   7.529   7.148  10.578
84791SOL    HW156212   7.579   7.217  10.622
84791SOL    HW256213   7.442   7.153  10.618
84792SOL     OW56214  13.313   4.285   7.871
84792SOL    HW156215  13.407   4.272   7.865
84792SOL    HW256216  13.278   4.241   7.793
84793SOL     OW56217   0.021   0.816   6.480
84793SOL    HW156218   0.081   0.748   6.450
84793SOL    HW256219  14.826   0.768   6.515
84794SOL     OW56220  11.293  10.549   3.630
84794SOL    HW156221  11.297  10.642   3.609
84794SOL    HW256222  11.347  10.540   3.709
84795SOL     OW56223   4.555   2.259   6.855
84795SOL    HW156224   4.549   2.165   6.873
84795SOL    HW256225   4.641   2.270   6.812
84796SOL     OW56226   6.098  13.753  13.667
84796SOL    HW156227   6.103  13.837  13.622
84796SOL    HW256228   6.023  13.761  13.725
84797SOL     OW56229  11.486   2.779  12.321
84797SOL    HW156230  11.464   2.815  12.235
84797SOL    HW256231  11.580   2.796  12.332
84798SOL     OW56232   1.594   9.960   6.778
84798SOL    HW156233   1.612  10.053   6.787
84798SOL    HW256234   1.533   9.954   6.704
84799SOL     OW56235   1.747   8.589   1.682
84799SOL    HW156236   1.748   8.655   1.752
84799SOL    HW256237   1.830   8.602   1.636
84800SOL     OW56238  12.655  13.184   3.041
84800SOL    HW156239  12.691  13.273   3.034
84800SOL    HW256240  12.666  13.161   3.133
84801SOL     OW56241  11.688   1.194   4.441
84801SOL    HW156242  11.761   1.242   4.401
84801SOL    HW256243  11.643   1.153   4.368
84802SOL     OW56244   4.036  13.839   8.005
84802SOL    HW156245   3.999  13.849   8.093
84802SOL    HW256246   4.102  13.908   7.999
84803SOL     OW56247  10.007  12.002  11.981
84803SOL    HW156248   9.951  11.978  11.906
84803SOL    HW256249  10.033  11.918  12.019
84804SOL     OW56250   8.545  11.624  13.029
84804SOL    HW156251   8.520  11.675  13.106
84804SOL    HW256252   8.604  11.556  13.063
84805SOL     OW56253  10.132   7.286  12.337
84805SOL    HW156254  10.194   7.217  12.312
84805SOL    HW256255  10.184   7.347  12.389
84806SOL     OW56256   1.930   0.648   6.778
84806SOL    HW156257   1.877   0.658   6.698
84806SOL    HW256258   1.938   0.737   6.812
84807SOL     OW56259  12.790   3.860   6.484
84807SOL    HW156260  12.697   3.875   6.501
84807SOL    HW256261  12.834   3.886   6.565
84808SOL     OW56262   6.437  14.189   2.735
84808SOL    HW156263   6.509  14.147   2.781
84808SOL    HW256264   6.426  14.138   2.655
84809SOL     OW56265  11.321   7.229   0.348
84809SOL    HW156266  11.262   7.199   0.280
84809SOL    HW256267  11.296   7.178   0.426
84810SOL     OW56268  12.337  14.449   7.097
84810SOL    HW156269  12.289  14.388   7.041
84810SOL    HW256270  12.306  14.429   7.186
84811SOL     OW56271  12.565   9.855   0.254
84811SOL    HW156272  12.595   9.811   0.174
84811SOL    HW256273  12.472   9.872   0.237
84812SOL     OW56274   3.829   4.440   4.244
84812SOL    HW156275   3.904   4.402   4.197
84812SOL    HW256276   3.834   4.533   4.225
84813SOL     OW56277  11.422   3.685   7.206
84813SOL    HW156278  11.481   3.610   7.206
84813SOL    HW256279  11.463   3.749   7.147
84814SOL     OW56280   1.716   2.012   9.953
84814SOL    HW156281   1.763   2.008  10.036
84814SOL    HW256282   1.631   1.971   9.971
84815SOL     OW56283  10.772   9.097   5.892
84815SOL    HW156284  10.737   9.180   5.859
84815SOL    HW256285  10.849   9.080   5.838
84816SOL     OW56286   0.179  14.282   8.861
84816SOL    HW156287   0.223  14.328   8.933
84816SOL    HW256288   0.111  14.343   8.831
84817SOL     OW56289   3.061   0.129  14.228
84817SOL    HW156290   3.013   0.136  14.311
84817SOL    HW256291   3.028   0.201  14.175
84818SOL     OW56292  12.529   3.935   1.731
84818SOL    HW156293  12.506   3.842   1.736
84818SOL    HW256294  12.501   3.971   1.816
84819SOL     OW56295  12.016   8.072  11.416
84819SOL    HW156296  12.099   8.042  11.453
84819SOL    HW256297  12.018   8.041  11.325
84820SOL     OW56298  12.281  11.064   9.183
84820SOL    HW156299  12.349  11.027   9.240
84820SOL    HW256300  12.238  10.988   9.145
84821SOL     OW56301  14.525   0.846  11.510
84821SOL    HW156302  14.493   0.839  11.420
84821SOL    HW256303  14.582   0.770  11.522
84822SOL     OW56304   2.800   5.007  10.012
84822SOL    HW156305   2.751   5.089  10.001
84822SOL    HW256306   2.793   4.987  10.105
84823SOL     OW56307   2.527  12.408  13.330
84823SOL    HW156308   2.468  12.350  13.379
84823SOL    HW256309   2.557  12.355  13.256
84824SOL     OW56310  13.521   7.239   3.354
84824SOL    HW156311  13.564   7.289   3.424
84824SOL    HW256312  13.432   7.225   3.387
84825SOL     OW56313   7.823   2.315   3.198
84825SOL    HW156314   7.863   2.279   3.276
84825SOL    HW256315   7.790   2.401   3.225
84826SOL     OW56316  12.078   0.916   3.953
84826SOL    HW156317  12.115   0.992   3.998
84826SOL    HW256318  12.098   0.842   4.011
84827SOL     OW56319   6.246   5.566  12.120
84827SOL    HW156320   6.178   5.559  12.186
84827SOL    HW256321   6.199   5.558  12.036
84828SOL     OW56322  11.602  12.861  14.471
84828SOL    HW156323  11.662  12.824  14.536
84828SOL    HW256324  11.554  12.786  14.437
84829SOL     OW56325  12.079  11.534  11.696
84829SOL    HW156326  12.107  11.477  11.624
84829SOL    HW256327  11.989  11.557  11.675
84830SOL     OW56328  13.628  10.722   1.914
84830SOL    HW156329  13.598  10.638   1.877
84830SOL    HW256330  13.723  10.722   1.900
84831SOL     OW56331  11.785  12.750  14.625
84831SOL    HW156332  11.798  12.701  14.707
84831SOL    HW256333  11.853  12.818  14.627
84832SOL     OW56334   0.023   9.430   0.529
84832SOL    HW156335   0.118   9.434   0.536
84832SOL    HW256336   0.003   9.463   0.441
84833SOL     OW56337   5.857   8.185   9.809
84833SOL    HW156338   5.844   8.106   9.756
84833SOL    HW256339   5.830   8.257   9.752
84834SOL     OW56340   8.105   8.705   1.995
84834SOL    HW156341   8.177   8.710   1.932
84834SOL    HW256342   8.136   8.642   2.061
84835SOL     OW56343   0.158  12.228  11.120
84835SOL    HW156344   0.188  12.223  11.211
84835SOL    HW256345   0.063  12.237  11.127
84836SOL     OW56346   4.289   4.875   7.504
84836SOL    HW156347   4.378   4.895   7.474
84836SOL    HW256348   4.299   4.852   7.596
84837SOL     OW56349   5.162   1.014   5.898
84837SOL    HW156350   5.102   0.978   5.833
84837SOL    HW256351   5.121   0.993   5.982
84838SOL     OW56352  12.368  12.980  11.122
84838SOL    HW156353  12.360  13.068  11.161
84838SOL    HW256354  12.405  12.996  11.035
84839SOL     OW56355   5.846   5.862   9.553
84839SOL    HW156356   5.759   5.885   9.584
84839SOL    HW256357   5.844   5.766   9.545
84840SOL     OW56358   7.032   0.513   9.189
84840SOL    HW156359   7.089   0.441   9.216
84840SOL    HW256360   6.963   0.516   9.255
84841SOL     OW56361   7.682   9.994  13.045
84841SOL    HW156362   7.661   9.903  13.024
84841SOL    HW256363   7.764  10.012  13.000
84842SOL     OW56364   9.891   2.642   1.916
84842SOL    HW156365   9.974   2.689   1.929
84842SOL    HW256366   9.826   2.712   1.903
84843SOL     OW56367   8.084   3.614  14.794
84843SOL    HW156368   8.018   3.671  14.755
84843SOL    HW256369   8.167   3.646  14.759
84844SOL     OW56370   0.538   8.437  14.509
84844SOL    HW156371   0.469   8.372  14.521
84844SOL    HW256372   0.492   8.520  14.506
84845SOL     OW56373  11.678   6.933  12.446
84845SOL    HW156374  11.736   6.857  12.454
84845SOL    HW256375  11.617   6.909  12.376
84846SOL     OW56376  12.306  10.813  12.062
84846SOL    HW156377  12.352  10.771  11.989
84846SOL    HW256378  12.262  10.888  12.023
84847SOL     OW56379   6.148   7.149   7.861
84847SOL    HW156380   6.226   7.204   7.866
84847SOL    HW256381   6.110   7.152   7.949
84848SOL     OW56382  13.051   1.998   2.310
84848SOL    HW156383  13.107   1.934   2.267
84848SOL    HW256384  12.976   1.948   2.340
84849SOL     OW56385  12.704  12.487   7.013
84849SOL    HW156386  12.632  12.446   7.062
84849SOL    HW256387  12.774  12.422   7.014
84850SOL     OW56388  13.337   2.363   4.740
84850SOL    HW156389  13.291   2.288   4.702
84850SOL    HW256390  13.279   2.437   4.725
84851SOL     OW56391   0.327   1.818  11.162
84851SOL    HW156392   0.297   1.907  11.177
84851SOL    HW256393   0.273   1.764  11.221
84852SOL     OW56394   3.128   9.088   6.733
84852SOL    HW156395   3.108   9.175   6.701
84852SOL    HW256396   3.044   9.043   6.735
84853SOL     OW56397   9.677  11.183  13.610
84853SOL    HW156398   9.659  11.093  13.583
84853SOL    HW256399   9.673  11.181  13.706
84854SOL     OW56400  10.337   6.986  14.057
84854SOL    HW156401  10.394   7.028  13.993
84854SOL    HW256402  10.390   6.980  14.136
84855SOL     OW56403   2.411   7.817   2.887
84855SOL    HW156404   2.367   7.834   2.803
84855SOL    HW256405   2.460   7.736   2.872
84856SOL     OW56406   6.652   2.583  14.536
84856SOL    HW156407   6.622   2.660  14.487
84856SOL    HW256408   6.726   2.549  14.485
84857SOL     OW56409   0.787   7.556   0.583
84857SOL    HW156410   0.772   7.478   0.636
84857SOL    HW256411   0.780   7.525   0.492
84858SOL     OW56412  11.711   9.047   0.872
84858SOL    HW156413  11.706   8.971   0.814
84858SOL    HW256414  11.801   9.045   0.906
84859SOL     OW56415   8.954   0.410   9.270
84859SOL    HW156416   8.948   0.474   9.341
84859SOL    HW256417   8.931   0.460   9.191
84860SOL     OW56418  12.693   7.170   4.475
84860SOL    HW156419  12.613   7.122   4.496
84860SOL    HW256420  12.672   7.216   4.393
84861SOL     OW56421   5.745   5.440  10.406
84861SOL    HW156422   5.791   5.522  10.419
84861SOL    HW256423   5.673   5.443  10.468
84862SOL     OW56424  11.629   6.383   6.168
84862SOL    HW156425  11.566   6.314   6.148
84862SOL    HW256426  11.612   6.405   6.260
84863SOL     OW56427  14.386   4.514   6.569
84863SOL    HW156428  14.303   4.525   6.616
84863SOL    HW256429  14.429   4.599   6.577
84864SOL     OW56430  12.027   5.272  11.783
84864SOL    HW156431  12.031   5.177  11.772
84864SOL    HW256432  11.983   5.284  11.867
84865SOL     OW56433   0.855   5.628  14.525
84865SOL    HW156434   0.943   5.593  14.540
84865SOL    HW256435   0.852   5.643  14.430
84866SOL     OW56436   8.095   0.245   9.349
84866SOL    HW156437   8.069   0.294   9.427
84866SOL    HW256438   8.091   0.308   9.277
84867SOL     OW56439   6.720  11.570  11.361
84867SOL    HW156440   6.682  11.484  11.373
84867SOL    HW256441   6.682  11.624  11.431
84868SOL     OW56442  12.373  14.300  12.207
84868SOL    HW156443  12.294  14.306  12.261
84868SOL    HW256444  12.445  14.318  12.268
84869SOL     OW56445   3.757  14.518   0.842
84869SOL    HW156446   3.709  14.552   0.917
84869SOL    HW256447   3.696  14.526   0.769
84870SOL     OW56448   5.858   7.902   3.431
84870SOL    HW156449   5.935   7.948   3.396
84870SOL    HW256450   5.894   7.826   3.476
84871SOL     OW56451   0.011  10.599   8.253
84871SOL    HW156452   0.089  10.654   8.242
84871SOL    HW256453  14.825  10.659   8.289
84872SOL     OW56454  14.511   5.803   4.354
84872SOL    HW156455  14.500   5.777   4.445
84872SOL    HW256456  14.516   5.720   4.306
84873SOL     OW56457   2.864   6.708  10.556
84873SOL    HW156458   2.837   6.617  10.544
84873SOL    HW256459   2.938   6.719  10.497
84874SOL     OW56460   7.247   6.408  12.906
84874SOL    HW156461   7.301   6.343  12.951
84874SOL    HW256462   7.203   6.359  12.837
84875SOL     OW56463  10.134   3.674  11.765
84875SOL    HW156464  10.041   3.661  11.748
84875SOL    HW256465  10.154   3.758  11.725
84876SOL     OW56466   1.842   7.229  13.952
84876SOL    HW156467   1.849   7.150  13.898
84876SOL    HW256468   1.758   7.268  13.928
84877SOL     OW56469  13.257  14.822   1.249
84877SOL    HW156470  13.314  14.813   1.326
84877SOL    HW256471  13.312  14.864   1.183
84878SOL     OW56472   0.526   8.411   9.286
84878SOL    HW156473   0.445   8.444   9.324
84878SOL    HW256474   0.504   8.393   9.194
84879SOL     OW56475   6.299   3.468   7.633
84879SOL    HW156476   6.266   3.540   7.686
84879SOL    HW256477   6.389   3.492   7.612
84880SOL     OW56478   4.162   0.406  10.456
84880SOL    HW156479   4.153   0.487  10.506
84880SOL    HW256480   4.092   0.410  10.391
84881SOL     OW56481   5.871   7.785  12.595
84881SOL    HW156482   5.871   7.690  12.585
84881SOL    HW256483   5.869   7.818  12.505
84882SOL     OW56484   4.493   7.591  11.456
84882SOL    HW156485   4.585   7.618  11.451
84882SOL    HW256486   4.483   7.555  11.544
84883SOL     OW56487   8.951   4.192   9.217
84883SOL    HW156488   8.908   4.249   9.152
84883SOL    HW256489   8.997   4.253   9.275
84884SOL     OW56490  12.641  13.710   6.015
84884SOL    HW156491  12.711  13.664   6.061
84884SOL    HW256492  12.624  13.788   6.068
84885SOL     OW56493  12.454   6.648  11.836
84885SOL    HW156494  12.523   6.587  11.810
84885SOL    HW256495  12.390   6.644  11.765
84886SOL     OW56496   2.580   3.972   1.782
84886SOL    HW156497   2.612   3.924   1.705
84886SOL    HW256498   2.502   3.923   1.810
84887SOL     OW56499   2.261  12.065  10.815
84887SOL    HW156500   2.275  12.005  10.741
84887SOL    HW256501   2.349  12.096  10.837
84888SOL     OW56502   4.031   2.456   3.884
84888SOL    HW156503   3.941   2.480   3.861
84888SOL    HW256504   4.041   2.488   3.974
84889SOL     OW56505   7.070   0.258  13.319
84889SOL    HW156506   7.033   0.319  13.383
84889SOL    HW256507   7.015   0.268  13.241
84890SOL     OW56508   1.453   5.429  13.501
84890SOL    HW156509   1.391   5.439  13.429
84890SOL    HW256510   1.537   5.458  13.464
84891SOL     OW56511   9.101  10.105   8.430
84891SOL    HW156512   9.040  10.158   8.379
84891SOL    HW256513   9.128  10.035   8.371
84892SOL     OW56514  14.227   1.613  14.576
84892SOL    HW156515  14.255   1.703  14.590
84892SOL    HW256516  14.211   1.578  14.664
84893SOL     OW56517   5.970   5.737   3.055
84893SOL    HW156518   5.876   5.755   3.057
84893SOL    HW256519   5.976   5.646   3.024
84894SOL     OW56520  13.554   1.741   8.076
84894SOL    HW156521  13.528   1.804   8.009
84894SOL    HW256522  13.606   1.676   8.029
84895SOL     OW56523   1.985  10.365  11.783
84895SOL    HW156524   2.031  10.292  11.824
84895SOL    HW256525   2.037  10.385  11.705
84896SOL     OW56526  12.852   7.669  10.850
84896SOL    HW156527  12.857   7.669  10.946
84896SOL    HW256528  12.786   7.602  10.830
84897SOL     OW56529   9.519   8.491  11.593
84897SOL    HW156530   9.604   8.479  11.634
84897SOL    HW256531   9.537   8.491  11.499
84898SOL     OW56532   4.562   5.909  14.281
84898SOL    HW156533   4.496   5.902  14.350
84898SOL    HW256534   4.641   5.871  14.319
84899SOL     OW56535   5.981  12.014   8.755
84899SOL    HW156536   6.065  12.041   8.718
84899SOL    HW256537   5.921  12.013   8.681
84900SOL     OW56538  13.061   8.936  10.147
84900SOL    HW156539  12.966   8.946  10.136
84900SOL    HW256540  13.071   8.900  10.236
84901SOL     OW56541   2.953   4.180   7.581
84901SOL    HW156542   2.886   4.199   7.515
84901SOL    HW256543   3.013   4.255   7.577
84902SOL     OW56544  13.235  11.117  14.325
84902SOL    HW156545  13.223  11.042  14.383
84902SOL    HW256546  13.288  11.084  14.253
84903SOL     OW56547   0.328  11.387  12.169
84903SOL    HW156548   0.242  11.349  12.190
84903SOL    HW256549   0.314  11.433  12.087
84904SOL     OW56550   0.077  13.498  10.788
84904SOL    HW156551   0.128  13.578  10.802
84904SOL    HW256552  14.874  13.514  10.833
84905SOL     OW56553   3.855   2.553   1.107
84905SOL    HW156554   3.889   2.466   1.089
84905SOL    HW256555   3.767   2.538   1.141
84906SOL     OW56556  11.168  14.472  14.800
84906SOL    HW156557  11.111  14.395  14.805
84906SOL    HW256558  11.251  14.437  14.766
84907SOL     OW56559   1.292   2.264   1.552
84907SOL    HW156560   1.202   2.294   1.545
84907SOL    HW256561   1.285   2.173   1.581
84908SOL     OW56562   8.692   4.726   6.063
84908SOL    HW156563   8.625   4.658   6.072
84908SOL    HW256564   8.698   4.766   6.149
84909SOL     OW56565   0.359  12.758   6.860
84909SOL    HW156566   0.288  12.788   6.916
84909SOL    HW256567   0.426  12.826   6.866
84910SOL     OW56568   7.536  14.350   0.645
84910SOL    HW156569   7.453  14.395   0.629
84910SOL    HW256570   7.533  14.272   0.590
84911SOL     OW56571   5.559   3.320   6.582
84911SOL    HW156572   5.570   3.252   6.515
84911SOL    HW256573   5.647   3.354   6.596
84912SOL     OW56574  11.354   0.556  11.061
84912SOL    HW156575  11.393   0.478  11.021
84912SOL    HW256576  11.398   0.563  11.145
84913SOL     OW56577   2.549   2.345  10.786
84913SOL    HW156578   2.575   2.366  10.876
84913SOL    HW256579   2.491   2.269  10.794
84914SOL     OW56580   5.118   1.821   6.557
84914SOL    HW156581   5.109   1.915   6.541
84914SOL    HW256582   5.145   1.814   6.648
84915SOL     OW56583   2.885   6.210   3.093
84915SOL    HW156584   2.829   6.222   3.015
84915SOL    HW256585   2.961   6.266   3.076
84916SOL     OW56586   8.447   1.734  11.460
84916SOL    HW156587   8.514   1.704  11.521
84916SOL    HW256588   8.365   1.726  11.509
84917SOL     OW56589   7.620   4.950  14.706
84917SOL    HW156590   7.690   5.014  14.697
84917SOL    HW256591   7.651   4.890  14.774
84918SOL     OW56592   2.324  13.098  13.871
84918SOL    HW156593   2.296  13.039  13.941
84918SOL    HW256594   2.409  13.064  13.844
84919SOL     OW56595   2.000  10.787   2.064
84919SOL    HW156596   1.961  10.791   1.977
84919SOL    HW256597   2.016  10.879   2.087
84920SOL     OW56598   7.164   4.863   3.968
84920SOL    HW156599   7.127   4.903   3.890
84920SOL    HW256600   7.100   4.797   3.994
84921SOL     OW56601  13.594   2.619   4.105
84921SOL    HW156602  13.681   2.656   4.117
84921SOL    HW256603  13.541   2.661   4.173
84922SOL     OW56604   2.033   2.366  10.253
84922SOL    HW156605   2.000   2.393  10.338
84922SOL    HW256606   2.079   2.284  10.270
84923SOL     OW56607   8.102   6.512   4.689
84923SOL    HW156608   8.067   6.592   4.728
84923SOL    HW256609   8.027   6.452   4.685
84924SOL     OW56610   5.411  10.929   8.596
84924SOL    HW156611   5.498  10.956   8.566
84924SOL    HW256612   5.394  10.985   8.672
84925SOL     OW56613   7.745  10.324  13.853
84925SOL    HW156614   7.839  10.317  13.836
84925SOL    HW256615   7.720  10.408  13.815
84926SOL     OW56616   2.045   5.186   9.334
84926SOL    HW156617   1.998   5.157   9.256
84926SOL    HW256618   2.074   5.275   9.314
84927SOL     OW56619   7.270   7.606  12.798
84927SOL    HW156620   7.309   7.607  12.711
84927SOL    HW256621   7.341   7.633  12.856
84928SOL     OW56622  12.767   0.176  13.874
84928SOL    HW156623  12.732   0.214  13.793
84928SOL    HW256624  12.862   0.181  13.865
84929SOL     OW56625  11.400  12.049   5.231
84929SOL    HW156626  11.306  12.042   5.213
84929SOL    HW256627  11.439  11.976   5.184
84930SOL     OW56628   1.653  10.277   0.415
84930SOL    HW156629   1.580  10.233   0.459
84930SOL    HW256630   1.634  10.371   0.427
84931SOL     OW56631   8.715   4.511  13.303
84931SOL    HW156632   8.724   4.530  13.396
84931SOL    HW256633   8.744   4.591  13.259
84932SOL     OW56634  11.034  10.882   1.052
84932SOL    HW156635  11.040  10.885   1.148
84932SOL    HW256636  11.109  10.933   1.022
84933SOL     OW56637   9.159   0.382  11.279
84933SOL    HW156638   9.107   0.305  11.300
84933SOL    HW256639   9.107   0.456  11.311
84934SOL     OW56640  10.845   5.867   3.395
84934SOL    HW156641  10.803   5.792   3.438
84934SOL    HW256642  10.797   5.943   3.427
84935SOL     OW56643   9.932   7.742   2.995
84935SOL    HW156644   9.902   7.817   3.047
84935SOL    HW256645   9.924   7.772   2.904
84936SOL     OW56646  11.931   8.074   8.930
84936SOL    HW156647  11.933   8.168   8.914
84936SOL    HW256648  11.839   8.055   8.951
84937SOL     OW56649   4.013   2.223   6.402
84937SOL    HW156650   3.970   2.155   6.453
84937SOL    HW256651   4.097   2.185   6.377
84938SOL     OW56652  13.571   6.898   4.305
84938SOL    HW156653  13.590   6.985   4.270
84938SOL    HW256654  13.606   6.838   4.238
84939SOL     OW56655   6.513   8.202  12.873
84939SOL    HW156656   6.525   8.212  12.778
84939SOL    HW256657   6.517   8.107  12.887
84940SOL     OW56658   1.507   8.820   7.255
84940SOL    HW156659   1.412   8.808   7.257
84940SOL    HW256660   1.534   8.786   7.170
84941SOL     OW56661  14.626  10.860   6.394
84941SOL    HW156662  14.604  10.812   6.474
84941SOL    HW256663  14.593  10.949   6.410
84942SOL     OW56664   0.786   7.824  12.235
84942SOL    HW156665   0.783   7.827  12.139
84942SOL    HW256666   0.877   7.802  12.255
84943SOL     OW56667  11.783  12.919   9.252
84943SOL    HW156668  11.794  12.987   9.186
84943SOL    HW256669  11.747  12.965   9.328
84944SOL     OW56670   5.151  12.936   0.708
84944SOL    HW156671   5.213  12.965   0.775
84944SOL    HW256672   5.066  12.941   0.751
84945SOL     OW56673   2.655   0.279   3.222
84945SOL    HW156674   2.741   0.292   3.181
84945SOL    HW256675   2.619   0.368   3.230
84946SOL     OW56676   5.220   6.075   5.885
84946SOL    HW156677   5.124   6.078   5.887
84946SOL    HW256678   5.241   5.981   5.878
84947SOL     OW56679   7.228   7.216   2.748
84947SOL    HW156680   7.184   7.150   2.801
84947SOL    HW256681   7.320   7.188   2.746
84948SOL     OW56682  12.188   8.441  13.266
84948SOL    HW156683  12.147   8.524  13.292
84948SOL    HW256684  12.243   8.418  13.341
84949SOL     OW56685  10.653   0.471   4.345
84949SOL    HW156686  10.644   0.521   4.426
84949SOL    HW256687  10.656   0.380   4.373
84950SOL     OW56688  10.640   6.991  14.189
84950SOL    HW156689  10.733   6.971  14.202
84950SOL    HW256690  10.636   7.037  14.106
84951SOL     OW56691   1.232   2.817   8.601
84951SOL    HW156692   1.260   2.854   8.685
84951SOL    HW256693   1.309   2.770   8.569
84952SOL     OW56694   0.120   1.205  13.302
84952SOL    HW156695   0.154   1.271  13.242
84952SOL    HW256696   0.123   1.123  13.253
84953SOL     OW56697   8.173   0.177  13.831
84953SOL    HW156698   8.245   0.167  13.894
84953SOL    HW256699   8.139   0.089  13.819
84954SOL     OW56700   8.502  11.796   6.452
84954SOL    HW156701   8.472  11.881   6.485
84954SOL    HW256702   8.590  11.812   6.419
84955SOL     OW56703   2.512  13.442   7.653
84955SOL    HW156704   2.465  13.520   7.623
84955SOL    HW256705   2.482  13.428   7.742
84956SOL     OW56706   5.121   4.506   6.528
84956SOL    HW156707   5.046   4.535   6.475
84956SOL    HW256708   5.185   4.475   6.464
84957SOL     OW56709  12.259   4.114   2.361
84957SOL    HW156710  12.188   4.124   2.297
84957SOL    HW256711  12.274   4.020   2.366
84958SOL     OW56712   3.307   0.880   2.797
84958SOL    HW156713   3.257   0.861   2.877
84958SOL    HW256714   3.397   0.892   2.828
84959SOL     OW56715  10.981   0.602   4.123
84959SOL    HW156716  10.911   0.637   4.068
84959SOL    HW256717  11.051   0.579   4.061
84960SOL     OW56718  13.552  10.647   6.460
84960SOL    HW156719  13.560  10.729   6.412
84960SOL    HW256720  13.474  10.606   6.423
84961SOL     OW56721   6.981   0.741   6.358
84961SOL    HW156722   7.015   0.830   6.354
84961SOL    HW256723   6.889   0.749   6.331
84962SOL     OW56724   4.240   0.848   3.329
84962SOL    HW156725   4.223   0.835   3.236
84962SOL    HW256726   4.332   0.825   3.340
84963SOL     OW56727  14.656   0.403   4.395
84963SOL    HW156728  14.738   0.403   4.346
84963SOL    HW256729  14.681   0.382   4.485
84964SOL     OW56730   6.756   6.971   0.741
84964SOL    HW156731   6.759   6.884   0.781
84964SOL    HW256732   6.847   6.998   0.732
84965SOL     OW56733  12.875   7.171  10.037
84965SOL    HW156734  12.919   7.102  10.087
84965SOL    HW256735  12.946   7.224  10.001
84966SOL     OW56736   5.268   0.762   0.823
84966SOL    HW156737   5.259   0.857   0.822
84966SOL    HW256738   5.203   0.731   0.758
84967SOL     OW56739  11.187  10.958   1.846
84967SOL    HW156740  11.109  10.931   1.798
84967SOL    HW256741  11.186  11.053   1.843
84968SOL     OW56742   3.950  13.745   1.773
84968SOL    HW156743   4.001  13.693   1.835
84968SOL    HW256744   3.931  13.685   1.701
84969SOL     OW56745   3.661   6.155  13.140
84969SOL    HW156746   3.569   6.143  13.118
84969SOL    HW256747   3.661   6.220  13.210
84970SOL     OW56748  14.872   9.674   1.951
84970SOL    HW156749   0.077   9.631   1.949
84970SOL    HW256750  14.808   9.602   1.947
84971SOL     OW56751   6.138   1.358   8.642
84971SOL    HW156752   6.090   1.390   8.566
84971SOL    HW256753   6.086   1.386   8.717
84972SOL     OW56754  10.836   3.304   2.723
84972SOL    HW156755  10.909   3.367   2.725
84972SOL    HW256756  10.878   3.219   2.734
84973SOL     OW56757   9.981  12.707   2.721
84973SOL    HW156758   9.922  12.668   2.785
84973SOL    HW256759  10.021  12.632   2.676
84974SOL     OW56760   4.307   2.465   5.031
84974SOL    HW156761   4.241   2.422   5.085
84974SOL    HW256762   4.366   2.507   5.094
84975SOL     OW56763   1.471  12.517   2.507
84975SOL    HW156764   1.500  12.584   2.570
84975SOL    HW256765   1.533  12.523   2.435
84976SOL     OW56766  12.872   6.016  10.741
84976SOL    HW156767  12.928   6.005  10.664
84976SOL    HW256768  12.921   6.076  10.798
84977SOL     OW56769   5.608  14.502   4.842
84977SOL    HW156770   5.629  14.470   4.930
84977SOL    HW256771   5.646  14.436   4.783
84978SOL     OW56772   6.216  13.847   1.377
84978SOL    HW156773   6.253  13.914   1.318
84978SOL    HW256774   6.289  13.823   1.434
84979SOL     OW56775   5.597   8.708  12.568
84979SOL    HW156776   5.553   8.788  12.539
84979SOL    HW256777   5.607   8.720  12.663
84980SOL     OW56778   6.162   1.464   1.523
84980SOL    HW156779   6.099   1.395   1.542
84980SOL    HW256780   6.192   1.446   1.434
84981SOL     OW56781   7.247   6.912  13.782
84981SOL    HW156782   7.272   6.847  13.848
84981SOL    HW256783   7.314   6.904  13.714
84982SOL     OW56784   6.175   6.522   3.441
84982SOL    HW156785   6.221   6.590   3.393
84982SOL    HW256786   6.207   6.529   3.531
84983SOL     OW56787   2.977   8.057  14.157
84983SOL    HW156788   3.062   8.063  14.113
84983SOL    HW256789   2.934   8.140  14.138
84984SOL     OW56790   6.780   0.622   5.261
84984SOL    HW156791   6.825   0.682   5.320
84984SOL    HW256792   6.837   0.617   5.184
84985SOL     OW56793   9.173  14.662  12.122
84985SOL    HW156794   9.136  14.625  12.202
84985SOL    HW256795   9.171  14.591  12.058
84986SOL     OW56796   6.714   8.163   9.363
84986SOL    HW156797   6.792   8.216   9.349
84986SOL    HW256798   6.661   8.213   9.426
84987SOL     OW56799   4.766   3.212  14.423
84987SOL    HW156800   4.687   3.199  14.370
84987SOL    HW256801   4.785   3.306  14.414
84988SOL     OW56802   9.848  12.057   5.158
84988SOL    HW156803   9.892  12.105   5.088
84988SOL    HW256804   9.890  11.970   5.157
84989SOL     OW56805   2.909   2.207  14.634
84989SOL    HW156806   2.974   2.137  14.637
84989SOL    HW256807   2.836   2.170  14.585
84990SOL     OW56808   0.479   1.592   4.059
84990SOL    HW156809   0.514   1.677   4.082
84990SOL    HW256810   0.387   1.608   4.038
84991SOL     OW56811  10.973  10.148   8.580
84991SOL    HW156812  10.926  10.207   8.521
84991SOL    HW256813  11.061  10.142   8.541
84992SOL     OW56814   8.326  11.207   3.131
84992SOL    HW156815   8.317  11.270   3.059
84992SOL    HW256816   8.414  11.171   3.119
84993SOL     OW56817   4.808  13.224  10.099
84993SOL    HW156818   4.859  13.230  10.018
84993SOL    HW256819   4.718  13.245  10.073
84994SOL     OW56820   5.369   0.135   1.018
84994SOL    HW156821   5.395   0.170   1.103
84994SOL    HW256822   5.441   0.078   0.992
84995SOL     OW56823  12.756  10.876   3.105
84995SOL    HW156824  12.820  10.818   3.062
84995SOL    HW256825  12.685  10.818   3.130
84996SOL     OW56826   4.282   9.512   6.613
84996SOL    HW156827   4.189   9.535   6.609
84996SOL    HW256828   4.311   9.517   6.522
84997SOL     OW56829  13.312  12.898   3.629
84997SOL    HW156830  13.361  12.887   3.710
84997SOL    HW256831  13.354  12.971   3.584
84998SOL     OW56832   4.727   2.352   9.341
84998SOL    HW156833   4.756   2.376   9.429
84998SOL    HW256834   4.747   2.259   9.334
84999SOL     OW56835  12.490   7.579  13.427
84999SOL    HW156836  12.424   7.514  13.451
84999SOL    HW256837  12.440   7.654  13.395
85000SOL     OW56838  14.827   7.971   3.577
85000SOL    HW156839  14.802   8.053   3.620
85000SOL    HW256840  14.844   7.910   3.650
85001SOL     OW56841   0.176  12.980   5.909
85001SOL    HW156842   0.125  12.904   5.880
85001SOL    HW256843   0.162  13.046   5.840
85002SOL     OW56844   1.640   7.898   1.756
85002SOL    HW156845   1.642   7.832   1.687
85002SOL    HW256846   1.565   7.954   1.734
85003SOL     OW56847   0.774   3.154  12.653
85003SOL    HW156848   0.762   3.062  12.632
85003SOL    HW256849   0.862   3.159  12.690
85004SOL     OW56850   0.451  11.394   7.579
85004SOL    HW156851   0.433  11.403   7.673
85004SOL    HW256852   0.461  11.300   7.566
85005SOL     OW56853   6.564   6.881   9.099
85005SOL    HW156854   6.607   6.911   9.179
85005SOL    HW256855   6.628   6.895   9.030
85006SOL     OW56856   2.041  11.673   6.696
85006SOL    HW156857   2.014  11.581   6.694
85006SOL    HW256858   2.111  11.679   6.632
85007SOL     OW56859   8.775   6.670   4.871
85007SOL    HW156860   8.774   6.647   4.778
85007SOL    HW256861   8.737   6.757   4.876
85008SOL     OW56862   6.385  14.825   2.363
85008SOL    HW156863   6.444  14.872   2.305
85008SOL    HW256864   6.314  14.795   2.306
85009SOL     OW56865   6.972   6.607   6.313
85009SOL    HW156866   7.032   6.534   6.300
85009SOL    HW256867   7.024   6.672   6.361
85010SOL     OW56868   8.600   9.686  12.809
85010SOL    HW156869   8.532   9.689  12.876
85010SOL    HW256870   8.656   9.613  12.835
85011SOL     OW56871   6.184  13.313   9.311
85011SOL    HW156872   6.265  13.360   9.332
85011SOL    HW256873   6.119  13.382   9.298
85012SOL     OW56874  11.862   8.602   8.126
85012SOL    HW156875  11.882   8.511   8.149
85012SOL    HW256876  11.853   8.646   8.211
85013SOL     OW56877  13.559   7.380   6.649
85013SOL    HW156878  13.525   7.316   6.586
85013SOL    HW256879  13.537   7.464   6.610
85014SOL     OW56880   2.202  12.700  12.767
85014SOL    HW156881   2.288  12.686  12.727
85014SOL    HW256882   2.219  12.764  12.836
85015SOL     OW56883   4.451   1.715  10.061
85015SOL    HW156884   4.358   1.736  10.055
85015SOL    HW256885   4.480   1.710   9.970
85016SOL     OW56886  10.256   7.805  11.398
85016SOL    HW156887  10.300   7.815  11.313
85016SOL    HW256888  10.224   7.715  11.397
85017SOL     OW56889  12.137  13.065   4.737
85017SOL    HW156890  12.082  13.138   4.710
85017SOL    HW256891  12.205  13.105   4.790
85018SOL     OW56892   4.462   5.907   4.285
85018SOL    HW156893   4.537   5.958   4.314
85018SOL    HW256894   4.486   5.816   4.302
85019SOL     OW56895   3.322  11.911   3.453
85019SOL    HW156896   3.300  11.895   3.545
85019SOL    HW256897   3.245  11.882   3.404
85020SOL     OW56898   9.312   0.058  10.735
85020SOL    HW156899   9.273   0.145  10.737
85020SOL    HW256900   9.238  14.878  10.739
85021SOL     OW56901  12.352   5.993   1.390
85021SOL    HW156902  12.434   5.951   1.415
85021SOL    HW256903  12.335   5.963   1.301
85022SOL     OW56904   3.066   9.429   0.840
85022SOL    HW156905   3.086   9.427   0.747
85022SOL    HW256906   2.980   9.470   0.846
85023SOL     OW56907   1.822  12.692   9.355
85023SOL    HW156908   1.740  12.708   9.309
85023SOL    HW256909   1.801  12.706   9.447
85024SOL     OW56910   8.111   8.042  11.296
85024SOL    HW156911   8.138   8.050  11.204
85024SOL    HW256912   8.192   8.053  11.345
85025SOL     OW56913  13.540   6.757  10.797
85025SOL    HW156914  13.582   6.671  10.795
85025SOL    HW256915  13.593   6.811  10.738
85026SOL     OW56916   1.301   0.547   8.508
85026SOL    HW156917   1.363   0.487   8.466
85026SOL    HW256918   1.324   0.633   8.473
85027SOL     OW56919   4.268   1.867   1.197
85027SOL    HW156920   4.248   1.960   1.211
85027SOL    HW256921   4.276   1.860   1.102
85028SOL     OW56922   6.084  14.104   6.934
85028SOL    HW156923   6.025  14.086   7.008
85028SOL    HW256924   6.154  14.039   6.943
85029SOL     OW56925   9.280   0.019   8.584
85029SOL    HW156926   9.327  14.877   8.665
85029SOL    HW256927   9.341  14.877   8.514
85030SOL     OW56928  10.324   5.653  10.342
85030SOL    HW156929  10.372   5.571  10.325
85030SOL    HW256930  10.299   5.685  10.256
85031SOL     OW56931   3.304   9.468  14.572
85031SOL    HW156932   3.337   9.534  14.511
85031SOL    HW256933   3.218   9.500  14.598
85032SOL     OW56934  12.217  12.097  12.534
85032SOL    HW156935  12.309  12.120  12.533
85032SOL    HW256936  12.200  12.060  12.447
85033SOL     OW56937   3.416   7.855   9.664
85033SOL    HW156938   3.474   7.928   9.688
85033SOL    HW256939   3.421   7.796   9.739
85034SOL     OW56940   9.964   8.723  11.669
85034SOL    HW156941   9.886   8.702  11.618
85034SOL    HW256942   9.938   8.796  11.725
85035SOL     OW56943   0.346   0.328   3.717
85035SOL    HW156944   0.290   0.288   3.784
85035SOL    HW256945   0.299   0.407   3.690
85036SOL     OW56946  12.380   7.094   9.812
85036SOL    HW156947  12.393   7.003   9.837
85036SOL    HW256948  12.421   7.145   9.881
85037SOL     OW56949   8.282   8.122   3.170
85037SOL    HW156950   8.375   8.115   3.193
85037SOL    HW256951   8.237   8.130   3.254
85038SOL     OW56952   2.937   4.867   7.506
85038SOL    HW156953   2.914   4.884   7.597
85038SOL    HW256954   2.854   4.872   7.459
85039SOL     OW56955   5.350  11.047   5.538
85039SOL    HW156956   5.310  11.043   5.624
85039SOL    HW256957   5.332  10.962   5.498
85040SOL     OW56958   7.775   8.971   1.332
85040SOL    HW156959   7.841   9.029   1.369
85040SOL    HW256960   7.811   8.883   1.344
85041SOL     OW56961   8.681  13.027   4.890
85041SOL    HW156962   8.632  12.990   4.964
85041SOL    HW256963   8.747  12.961   4.870
85042SOL     OW56964   6.247   9.210   5.943
85042SOL    HW156965   6.210   9.295   5.918
85042SOL    HW256966   6.317   9.195   5.879
85043SOL     OW56967   0.850  13.151   9.924
85043SOL    HW156968   0.758  13.150   9.899
85043SOL    HW256969   0.892  13.207   9.859
85044SOL     OW56970   2.125   5.869   4.718
85044SOL    HW156971   2.029   5.872   4.714
85044SOL    HW256972   2.153   5.894   4.630
85045SOL     OW56973  10.541   7.310   5.607
85045SOL    HW156974  10.468   7.276   5.555
85045SOL    HW256975  10.586   7.232   5.639
85046SOL     OW56976   9.363   3.644   9.239
85046SOL    HW156977   9.338   3.575   9.299
85046SOL    HW256978   9.319   3.722   9.272
85047SOL     OW56979  11.784  14.540  11.208
85047SOL    HW156980  11.705  14.501  11.172
85047SOL    HW256981  11.849  14.532  11.138
85048SOL     OW56982   0.633   1.758   9.865
85048SOL    HW156983   0.708   1.793   9.816
85048SOL    HW256984   0.649   1.664   9.871
85049SOL     OW56985  12.373   3.533  12.703
85049SOL    HW156986  12.398   3.563  12.616
85049SOL    HW256987  12.456   3.520  12.749
85050SOL     OW56988   1.341   5.709   0.509
85050SOL    HW156989   1.249   5.732   0.495
85050SOL    HW256990   1.383   5.725   0.424
85051SOL     OW56991   6.879   3.265   2.830
85051SOL    HW156992   6.790   3.254   2.797
85051SOL    HW256993   6.930   3.294   2.754
85052SOL     OW56994  10.769   8.660   2.198
85052SOL    HW156995  10.762   8.603   2.275
85052SOL    HW256996  10.744   8.747   2.230
85053SOL     OW56997   9.797  14.215  10.903
85053SOL    HW156998   9.715  14.165  10.900
85053SOL    HW256999   9.816  14.223  10.997
85054SOL     OW57000  12.339   4.135   9.335
85054SOL    HW157001  12.359   4.054   9.383
85054SOL    HW257002  12.420   4.154   9.287
85055SOL     OW57003   9.708  12.711   6.693
85055SOL    HW157004   9.626  12.759   6.685
85055SOL    HW257005   9.708  12.652   6.617
85056SOL     OW57006  14.195   9.678   3.651
85056SOL    HW157007  14.215   9.694   3.559
85056SOL    HW257008  14.275   9.640   3.687
85057SOL     OW57009   4.134   4.661   9.151
85057SOL    HW157010   4.205   4.655   9.087
85057SOL    HW257011   4.064   4.707   9.105
85058SOL     OW57012   1.864  13.626  11.146
85058SOL    HW157013   1.904  13.571  11.078
85058SOL    HW257014   1.772  13.600  11.146
85059SOL     OW57015  10.404   4.681   7.716
85059SOL    HW157016  10.312   4.686   7.741
85059SOL    HW257017  10.448   4.642   7.791
85060SOL     OW57018   5.374   5.783   7.611
85060SOL    HW157019   5.434   5.708   7.616
85060SOL    HW257020   5.298   5.750   7.563
85061SOL     OW57021   6.359   3.836  12.734
85061SOL    HW157022   6.427   3.787  12.780
85061SOL    HW257023   6.279   3.820  12.784
85062SOL     OW57024   3.692   8.382   5.202
85062SOL    HW157025   3.604   8.407   5.232
85062SOL    HW257026   3.743   8.376   5.283
85063SOL     OW57027  12.943   3.029  13.482
85063SOL    HW157028  12.912   2.970  13.414
85063SOL    HW257029  12.875   3.026  13.549
85064SOL     OW57030   2.439  10.662   4.108
85064SOL    HW157031   2.441  10.758   4.116
85064SOL    HW257032   2.523  10.633   4.143
85065SOL     OW57033   5.668  14.733   5.806
85065SOL    HW157034   5.687  14.710   5.715
85065SOL    HW257035   5.745  14.782   5.836
85066SOL     OW57036   6.973   4.971   9.971
85066SOL    HW157037   6.919   4.970   9.892
85066SOL    HW257038   7.042   4.906   9.955
85067SOL     OW57039  14.835   6.008   4.387
85067SOL    HW157040  14.748   6.034   4.417
85067SOL    HW257041  14.852   6.062   4.310
85068SOL     OW57042   1.871   4.632   9.918
85068SOL    HW157043   1.883   4.727   9.922
85068SOL    HW257044   1.782   4.621   9.883
85069SOL     OW57045  12.705   5.975   6.247
85069SOL    HW157046  12.738   6.045   6.303
85069SOL    HW257047  12.631   5.938   6.295
85070SOL     OW57048  10.717   2.907   6.005
85070SOL    HW157049  10.789   2.970   6.003
85070SOL    HW257050  10.640   2.959   6.030
85071SOL     OW57051  11.128   9.003   4.016
85071SOL    HW157052  11.168   8.927   4.060
85071SOL    HW257053  11.168   9.003   3.929
85072SOL     OW57054  13.052   4.039   7.592
85072SOL    HW157055  13.035   3.975   7.522
85072SOL    HW257056  13.090   3.987   7.663
85073SOL     OW57057  12.689   5.623   2.086
85073SOL    HW157058  12.612   5.669   2.120
85073SOL    HW257059  12.763   5.675   2.117
85074SOL     OW57060   1.683   6.982   2.624
85074SOL    HW157061   1.596   6.971   2.662
85074SOL    HW257062   1.729   7.039   2.686
85075SOL     OW57063  14.203  11.687   9.034
85075SOL    HW157064  14.258  11.737   9.094
85075SOL    HW257065  14.265  11.639   8.979
85076SOL     OW57066   4.070   6.064   6.390
85076SOL    HW157067   4.032   6.124   6.454
85076SOL    HW257068   4.164   6.079   6.396
85077SOL     OW57069   8.363   6.178   1.687
85077SOL    HW157070   8.268   6.187   1.682
85077SOL    HW257071   8.395   6.217   1.606
85078SOL     OW57072  14.412   8.070   1.438
85078SOL    HW157073  14.362   8.150   1.425
85078SOL    HW257074  14.424   8.034   1.350
85079SOL     OW57075   2.867   4.180   6.170
85079SOL    HW157076   2.933   4.173   6.100
85079SOL    HW257077   2.917   4.209   6.247
85080SOL     OW57078   5.554   4.204   9.116
85080SOL    HW157079   5.643   4.223   9.088
85080SOL    HW257080   5.512   4.290   9.123
85081SOL     OW57081   6.965   9.056   7.722
85081SOL    HW157082   7.015   9.081   7.800
85081SOL    HW257083   7.024   9.075   7.649
85082SOL     OW57084  13.845   3.131  13.846
85082SOL    HW157085  13.855   3.106  13.754
85082SOL    HW257086  13.850   3.227  13.845
85083SOL     OW57087  14.130   0.134  10.360
85083SOL    HW157088  14.137   0.115  10.454
85083SOL    HW257089  14.139   0.229  10.354
85084SOL     OW57090   5.387   1.791  10.281
85084SOL    HW157091   5.382   1.765  10.189
85084SOL    HW257092   5.481   1.805  10.297
85085SOL     OW57093  13.784   6.557   0.942
85085SOL    HW157094  13.855   6.608   0.982
85085SOL    HW257095  13.828   6.485   0.899
85086SOL     OW57096  13.785  13.705   6.074
85086SOL    HW157097  13.827  13.785   6.106
85086SOL    HW257098  13.720  13.735   6.012
85087SOL     OW57099   6.384   0.827   5.679
85087SOL    HW157100   6.324   0.829   5.754
85087SOL    HW257101   6.454   0.767   5.705
85088SOL     OW57102  13.509   1.930  13.768
85088SOL    HW157103  13.485   2.022  13.779
85088SOL    HW257104  13.430   1.889  13.734
85089SOL     OW57105   7.742  13.768   2.466
85089SOL    HW157106   7.795  13.715   2.406
85089SOL    HW257107   7.718  13.845   2.415
85090SOL     OW57108   4.887   8.277   9.114
85090SOL    HW157109   4.932   8.210   9.063
85090SOL    HW257110   4.910   8.359   9.072
85091SOL     OW57111   2.926   4.221   3.849
85091SOL    HW157112   2.885   4.138   3.826
85091SOL    HW257113   2.853   4.281   3.865
85092SOL     OW57114   9.236   1.432   2.322
85092SOL    HW157115   9.153   1.459   2.282
85092SOL    HW257116   9.297   1.429   2.248
85093SOL     OW57117   8.842   8.458   3.496
85093SOL    HW157118   8.913   8.412   3.540
85093SOL    HW257119   8.812   8.523   3.559
85094SOL     OW57120  10.423  10.342   0.591
85094SOL    HW157121  10.341  10.304   0.625
85094SOL    HW257122  10.453  10.280   0.525
85095SOL     OW57123   3.167   2.349   5.850
85095SOL    HW157124   3.213   2.414   5.796
85095SOL    HW257125   3.077   2.348   5.815
85096SOL     OW57126   7.173   6.034   2.834
85096SOL    HW157127   7.238   6.037   2.764
85096SOL    HW257128   7.224   6.021   2.914
85097SOL     OW57129   3.067  12.641   6.792
85097SOL    HW157130   2.988  12.695   6.800
85097SOL    HW257131   3.090  12.619   6.883
85098SOL     OW57132   7.838   7.704   5.142
85098SOL    HW157133   7.881   7.732   5.223
85098SOL    HW257134   7.834   7.782   5.087
85099SOL     OW57135   4.257   2.441   2.009
85099SOL    HW157136   4.322   2.375   2.034
85099SOL    HW257137   4.250   2.497   2.086
85100SOL     OW57138   4.225   3.311   2.945
85100SOL    HW157139   4.318   3.305   2.927
85100SOL    HW257140   4.217   3.388   3.002
85101SOL     OW57141   4.439  12.484   3.209
85101SOL    HW157142   4.430  12.576   3.236
85101SOL    HW257143   4.513  12.451   3.261
85102SOL     OW57144   4.287   1.575  13.991
85102SOL    HW157145   4.262   1.575  13.899
85102SOL    HW257146   4.365   1.520  13.995
85103SOL     OW57147  12.190   8.682   2.741
85103SOL    HW157148  12.250   8.640   2.802
85103SOL    HW257149  12.220   8.653   2.655
85104SOL     OW57150   2.239  11.223  10.745
85104SOL    HW157151   2.177  11.153  10.724
85104SOL    HW257152   2.325  11.180  10.742
85105SOL     OW57153   2.454   1.228   9.202
85105SOL    HW157154   2.539   1.187   9.219
85105SOL    HW257155   2.460   1.259   9.112
85106SOL     OW57156   1.241   0.717   5.568
85106SOL    HW157157   1.150   0.744   5.565
85106SOL    HW257158   1.279   0.751   5.487
85107SOL     OW57159  14.853   5.721   1.218
85107SOL    HW157160   0.002   5.701   1.307
85107SOL    HW257161  14.790   5.792   1.228
85108SOL     OW57162  13.343   6.799   8.227
85108SOL    HW157163  13.327   6.878   8.278
85108SOL    HW257164  13.264   6.788   8.174
85109SOL     OW57165   3.625   8.280  12.024
85109SOL    HW157166   3.540   8.297  12.065
85109SOL    HW257167   3.604   8.267  11.931
85110SOL     OW57168   4.138   3.245  13.181
85110SOL    HW157169   4.128   3.238  13.086
85110SOL    HW257170   4.083   3.175  13.216
85111SOL     OW57171   7.190   9.676  12.198
85111SOL    HW157172   7.105   9.656  12.160
85111SOL    HW257173   7.170   9.720  12.281
85112SOL     OW57174  13.232  12.684   3.131
85112SOL    HW157175  13.231  12.590   3.116
85112SOL    HW257176  13.233  12.693   3.226
85113SOL     OW57177   8.418   0.146   8.594
85113SOL    HW157178   8.324   0.134   8.580
85113SOL    HW257179   8.439   0.090   8.668
85114SOL     OW57180   7.335   9.314   8.288
85114SOL    HW157181   7.369   9.234   8.329
85114SOL    HW257182   7.323   9.375   8.361
85115SOL     OW57183  12.119  13.520   0.802
85115SOL    HW157184  12.139  13.564   0.719
85115SOL    HW257185  12.116  13.427   0.779
85116SOL     OW57186   0.192   7.661   9.114
85116SOL    HW157187   0.109   7.666   9.162
85116SOL    HW257188   0.259   7.660   9.183
85117SOL     OW57189   6.468   2.912  12.367
85117SOL    HW157190   6.447   2.889  12.457
85117SOL    HW257191   6.559   2.885  12.357
85118SOL     OW57192   5.597   6.761   1.485
85118SOL    HW157193   5.609   6.705   1.409
85118SOL    HW257194   5.509   6.798   1.474
85119SOL     OW57195  14.653   8.905  11.676
85119SOL    HW157196  14.634   8.980  11.731
85119SOL    HW257197  14.579   8.901  11.614
85120SOL     OW57198  10.023   4.545   4.524
85120SOL    HW157199  10.036   4.450   4.518
85120SOL    HW257200  10.094   4.576   4.579
85121SOL     OW57201   7.930   2.635   5.610
85121SOL    HW157202   7.872   2.578   5.659
85121SOL    HW257203   7.917   2.611   5.518
85122SOL     OW57204   6.623  10.285  11.236
85122SOL    HW157205   6.615  10.325  11.322
85122SOL    HW257206   6.674  10.205  11.251
85123SOL     OW57207   5.290   4.771   2.630
85123SOL    HW157208   5.293   4.751   2.724
85123SOL    HW257209   5.363   4.832   2.617
85124SOL     OW57210   1.538   1.120   1.132
85124SOL    HW157211   1.633   1.122   1.133
85124SOL    HW257212   1.515   1.029   1.153
85125SOL     OW57213   0.314  12.367   3.349
85125SOL    HW157214   0.222  12.384   3.371
85125SOL    HW257215   0.362  12.388   3.429
85126SOL     OW57216   7.357   9.488   5.542
85126SOL    HW157217   7.297   9.414   5.548
85126SOL    HW257218   7.389   9.500   5.632
85127SOL     OW57219   2.896  10.434  12.066
85127SOL    HW157220   2.917  10.513  12.116
85127SOL    HW257221   2.968  10.425  12.004
85128SOL     OW57222  11.108   1.966   3.481
85128SOL    HW157223  11.014   1.976   3.494
85128SOL    HW257224  11.145   2.051   3.505
85129SOL     OW57225  11.528   9.080  14.508
85129SOL    HW157226  11.618   9.089  14.477
85129SOL    HW257227  11.505   8.989  14.488
85130SOL     OW57228  10.658  10.279  11.158
85130SOL    HW157229  10.704  10.227  11.092
85130SOL    HW257230  10.568  10.282  11.127
85131SOL     OW57231   5.009   1.638   8.729
85131SOL    HW157232   4.984   1.623   8.820
85131SOL    HW257233   5.103   1.617   8.726
85132SOL     OW57234   8.287  12.461  14.357
85132SOL    HW157235   8.307  12.480  14.449
85132SOL    HW257236   8.367  12.486  14.310
85133SOL     OW57237   5.516   5.058   3.961
85133SOL    HW157238   5.523   5.036   4.054
85133SOL    HW257239   5.572   4.994   3.917
85134SOL     OW57240  13.233   8.414   9.332
85134SOL    HW157241  13.200   8.496   9.296
85134SOL    HW257242  13.163   8.350   9.315
85135SOL     OW57243   2.019  14.748  11.196
85135SOL    HW157244   2.106  14.733  11.160
85135SOL    HW257245   1.977  14.662  11.195
85136SOL     OW57246   2.131   2.699  12.106
85136SOL    HW157247   2.074   2.671  12.179
85136SOL    HW257248   2.071   2.742  12.045
85137SOL     OW57249   1.718   0.923   2.020
85137SOL    HW157250   1.644   0.930   2.081
85137SOL    HW257251   1.740   1.013   1.998
85138SOL     OW57252   7.736   0.232   8.342
85138SOL    HW157253   7.736   0.303   8.406
85138SOL    HW257254   7.782   0.269   8.266
85139SOL     OW57255   2.885  14.501  14.349
85139SOL    HW157256   2.972  14.460  14.350
85139SOL    HW257257   2.824  14.428  14.360
85140SOL     OW57258  13.935  13.696   3.741
85140SOL    HW157259  13.842  13.711   3.726
85140SOL    HW257260  13.937  13.634   3.814
85141SOL     OW57261  12.697   6.125   1.003
85141SOL    HW157262  12.760   6.185   1.042
85141SOL    HW257263  12.686   6.155   0.913
85142SOL     OW57264  13.911   2.019   9.786
85142SOL    HW157265  13.989   2.015   9.731
85142SOL    HW257266  13.900   2.112   9.804
85143SOL     OW57267  13.872   8.526   8.379
85143SOL    HW157268  13.856   8.620   8.382
85143SOL    HW257269  13.945   8.512   8.439
85144SOL     OW57270  13.060  11.335   9.352
85144SOL    HW157271  13.132  11.351   9.414
85144SOL    HW257272  13.046  11.240   9.356
85145SOL     OW57273   9.152   3.716  11.517
85145SOL    HW157274   9.212   3.765  11.461
85145SOL    HW257275   9.096   3.668  11.457
85146SOL     OW57276   0.945   8.345   0.006
85146SOL    HW157277   0.874   8.402   0.034
85146SOL    HW257278   0.979   8.386  14.806
85147SOL     OW57279  13.016   8.151  13.230
85147SOL    HW157280  13.048   8.219  13.171
85147SOL    HW257281  12.989   8.080  13.171
85148SOL     OW57282   7.958  12.263  11.313
85148SOL    HW157283   7.980  12.170  11.314
85148SOL    HW257284   8.042  12.308  11.309
85149SOL     OW57285   6.204   7.020  13.974
85149SOL    HW157286   6.293   7.018  14.009
85149SOL    HW257287   6.154   6.962  14.031
85150SOL     OW57288   5.520  11.605   7.572
85150SOL    HW157289   5.476  11.664   7.632
85150SOL    HW257290   5.602  11.650   7.549
85151SOL     OW57291   5.554   0.846   6.650
85151SOL    HW157292   5.648   0.865   6.656
85151SOL    HW257293   5.513   0.932   6.637
85152SOL     OW57294   5.021   5.476   4.853
85152SOL    HW157295   4.989   5.466   4.943
85152SOL    HW257296   4.981   5.402   4.806
85153SOL     OW57297   1.868  10.776   3.739
85153SOL    HW157298   1.863  10.693   3.693
85153SOL    HW257299   1.867  10.753   3.832
85154SOL     OW57300   9.518  11.921  12.538
85154SOL    HW157301   9.577  11.944  12.465
85154SOL    HW257302   9.534  11.828  12.553
85155SOL     OW57303   7.526  14.481  13.348
85155SOL    HW157304   7.541  14.424  13.272
85155SOL    HW257305   7.504  14.566  13.310
85156SOL     OW57306   1.855   7.489   8.252
85156SOL    HW157307   1.928   7.433   8.278
85156SOL    HW257308   1.782   7.428   8.235
85157SOL     OW57309   8.372   7.715   1.721
85157SOL    HW157310   8.325   7.774   1.780
85157SOL    HW257311   8.463   7.719   1.750
85158SOL     OW57312  12.444   0.887   3.103
85158SOL    HW157313  12.401   0.893   3.017
85158SOL    HW257314  12.382   0.837   3.157
85159SOL     OW57315   2.375   5.888   4.152
85159SOL    HW157316   2.376   5.827   4.078
85159SOL    HW257317   2.438   5.957   4.127
85160SOL     OW57318   0.369   2.645   2.399
85160SOL    HW157319   0.415   2.571   2.438
85160SOL    HW257320   0.319   2.683   2.471
85161SOL     OW57321   7.738   2.374   6.403
85161SOL    HW157322   7.679   2.431   6.353
85161SOL    HW257323   7.719   2.394   6.495
85162SOL     OW57324   3.623  10.354  12.364
85162SOL    HW157325   3.566  10.279  12.378
85162SOL    HW257326   3.595  10.391  12.280
85163SOL     OW57327   1.511  12.674   2.050
85163SOL    HW157328   1.506  12.670   2.146
85163SOL    HW257329   1.561  12.597   2.025
85164SOL     OW57330  11.261  12.387  10.624
85164SOL    HW157331  11.332  12.344  10.674
85164SOL    HW257332  11.298  12.400  10.537
85165SOL     OW57333  11.687   4.117  14.179
85165SOL    HW157334  11.741   4.100  14.256
85165SOL    HW257335  11.716   4.202  14.147
85166SOL     OW57336  10.206   3.653   4.199
85166SOL    HW157337  10.212   3.749   4.205
85166SOL    HW257338  10.227   3.623   4.287
85167SOL     OW57339   7.308   0.198   1.256
85167SOL    HW157340   7.255   0.132   1.301
85167SOL    HW257341   7.391   0.199   1.304
85168SOL     OW57342   9.245   2.364   8.609
85168SOL    HW157343   9.256   2.359   8.704
85168SOL    HW257344   9.333   2.350   8.574
85169SOL     OW57345   3.216   1.406   1.312
85169SOL    HW157346   3.146   1.341   1.313
85169SOL    HW257347   3.291   1.362   1.351
85170SOL     OW57348   0.603  12.261   6.171
85170SOL    HW157349   0.659  12.300   6.238
85170SOL    HW257350   0.628  12.306   6.090
85171SOL     OW57351   5.706   8.785   5.470
85171SOL    HW157352   5.770   8.770   5.401
85171SOL    HW257353   5.631   8.731   5.446
85172SOL     OW57354   4.558   0.074   8.920
85172SOL    HW157355   4.634   0.130   8.904
85172SOL    HW257356   4.501   0.089   8.845
85173SOL     OW57357  11.541   5.399   9.119
85173SOL    HW157358  11.513   5.485   9.150
85173SOL    HW257359  11.636   5.402   9.121
85174SOL     OW57360   4.768   4.289   1.876
85174SOL    HW157361   4.771   4.243   1.960
85174SOL    HW257362   4.828   4.240   1.820
85175SOL     OW57363  14.390   6.083   5.416
85175SOL    HW157364  14.408   6.052   5.505
85175SOL    HW257365  14.303   6.122   5.421
85176SOL     OW57366   6.734   7.698  11.376
85176SOL    HW157367   6.773   7.752  11.446
85176SOL    HW257368   6.640   7.715  11.383
85177SOL     OW57369   8.669   3.202   6.468
85177SOL    HW157370   8.760   3.218   6.442
85177SOL    HW257371   8.666   3.108   6.486
85178SOL     OW57372   6.628   7.881   8.494
85178SOL    HW157373   6.678   7.933   8.558
85178SOL    HW257374   6.685   7.879   8.417
85179SOL     OW57375   0.309   3.735  10.207
85179SOL    HW157376   0.241   3.713  10.271
85179SOL    HW257377   0.263   3.780  10.137
85180SOL     OW57378   7.429   2.259   5.805
85180SOL    HW157379   7.452   2.281   5.895
85180SOL    HW257380   7.437   2.341   5.757
85181SOL     OW57381   7.586   7.995   3.013
85181SOL    HW157382   7.519   8.059   2.987
85181SOL    HW257383   7.589   8.001   3.109
85182SOL     OW57384  10.574  11.482   8.614
85182SOL    HW157385  10.548  11.405   8.665
85182SOL    HW257386  10.492  11.523   8.589
85183SOL     OW57387  13.315   0.873  14.452
85183SOL    HW157388  13.396   0.913  14.419
85183SOL    HW257389  13.246   0.910  14.397
85184SOL     OW57390   9.800   0.693   2.088
85184SOL    HW157391   9.896   0.702   2.085
85184SOL    HW257392   9.784   0.621   2.148
85185SOL     OW57393  10.280   7.996   2.935
85185SOL    HW157394  10.187   8.016   2.947
85185SOL    HW257395  10.280   7.915   2.883
85186SOL     OW57396  12.878   9.845   1.816
85186SOL    HW157397  12.885   9.778   1.883
85186SOL    HW257398  12.954   9.830   1.760
85187SOL     OW57399   3.433  14.709   9.465
85187SOL    HW157400   3.483  14.722   9.384
85187SOL    HW257401   3.456  14.621   9.493
85188SOL     OW57402  12.834   8.798   3.660
85188SOL    HW157403  12.739   8.799   3.647
85188SOL    HW257404  12.845   8.819   3.753
85189SOL     OW57405   4.916   8.012   2.429
85189SOL    HW157406   4.981   8.080   2.416
85189SOL    HW257407   4.874   8.002   2.343
85190SOL     OW57408   6.894   6.114  11.649
85190SOL    HW157409   6.863   6.029  11.618
85190SOL    HW257410   6.903   6.167  11.570
85191SOL     OW57411   4.128   7.439   0.979
85191SOL    HW157412   4.167   7.376   0.919
85191SOL    HW257413   4.056   7.392   1.021
85192SOL     OW57414   8.701   7.221   1.014
85192SOL    HW157415   8.686   7.144   1.070
85192SOL    HW257416   8.743   7.185   0.936
85193SOL     OW57417   8.073   2.889   3.514
85193SOL    HW157418   8.100   2.850   3.598
85193SOL    HW257419   8.135   2.853   3.450
85194SOL     OW57420  10.216   5.361   6.676
85194SOL    HW157421  10.277   5.353   6.603
85194SOL    HW257422  10.231   5.449   6.710
85195SOL     OW57423   5.053   8.434   8.413
85195SOL    HW157424   5.098   8.363   8.460
85195SOL    HW257425   5.004   8.480   8.482
85196SOL     OW57426   0.215   9.286  13.319
85196SOL    HW157427   0.249   9.225  13.385
85196SOL    HW257428   0.186   9.229  13.247
85197SOL     OW57429   4.237   8.990   0.224
85197SOL    HW157430   4.216   9.068   0.276
85197SOL    HW257431   4.153   8.951   0.203
85198SOL     OW57432   5.886  10.372   0.762
85198SOL    HW157433   5.888  10.338   0.673
85198SOL    HW257434   5.977  10.395   0.782
85199SOL     OW57435   1.821   0.073   1.251
85199SOL    HW157436   1.739   0.023   1.252
85199SOL    HW257437   1.887   0.012   1.284
85200SOL     OW57438   1.351   3.543  11.284
85200SOL    HW157439   1.426   3.562  11.341
85200SOL    HW257440   1.300   3.624  11.284
85201SOL     OW57441   0.931   3.710  12.904
85201SOL    HW157442   1.024   3.733  12.901
85201SOL    HW257443   0.922   3.638  12.841
85202SOL     OW57444   7.200  14.119   0.325
85202SOL    HW157445   7.115  14.079   0.305
85202SOL    HW257446   7.188  14.212   0.307
85203SOL     OW57447  13.179   2.242   8.520
85203SOL    HW157448  13.146   2.311   8.463
85203SOL    HW257449  13.244   2.286   8.575
85204SOL     OW57450   1.497   0.442   9.107
85204SOL    HW157451   1.584   0.472   9.081
85204SOL    HW257452   1.469   0.384   9.036
85205SOL     OW57453   8.941   5.278   8.724
85205SOL    HW157454   8.915   5.368   8.747
85205SOL    HW257455   8.878   5.252   8.657
85206SOL     OW57456   7.717   2.373   4.758
85206SOL    HW157457   7.812   2.378   4.770
85206SOL    HW257458   7.681   2.403   4.841
85207SOL     OW57459   9.952   9.126   2.337
85207SOL    HW157460  10.029   9.111   2.391
85207SOL    HW257461   9.880   9.082   2.383
85208SOL     OW57462  12.699   9.453   1.410
85208SOL    HW157463  12.691   9.417   1.322
85208SOL    HW257464  12.794   9.461   1.424
85209SOL     OW57465   7.894   3.941   5.907
85209SOL    HW157466   7.960   3.887   5.951
85209SOL    HW257467   7.812   3.894   5.919
85210SOL     OW57468  14.089   1.960  11.959
85210SOL    HW157469  14.169   1.947  11.907
85210SOL    HW257470  14.046   2.035  11.919
85211SOL     OW57471   3.808   1.554   7.260
85211SOL    HW157472   3.799   1.648   7.272
85211SOL    HW257473   3.754   1.533   7.184
85212SOL     OW57474   8.087  13.109   8.397
85212SOL    HW157475   8.168  13.145   8.433
85212SOL    HW257476   8.099  13.112   8.302
85213SOL     OW57477  12.934   5.258   4.863
85213SOL    HW157478  12.940   5.191   4.795
85213SOL    HW257479  12.996   5.326   4.835
85214SOL     OW57480   2.011   9.145   3.111
85214SOL    HW157481   2.089   9.093   3.129
85214SOL    HW257482   1.960   9.142   3.192
85215SOL     OW57483   6.675   7.800   5.200
85215SOL    HW157484   6.662   7.738   5.129
85215SOL    HW257485   6.595   7.852   5.202
85216SOL     OW57486   6.304   3.171   5.552
85216SOL    HW157487   6.284   3.175   5.645
85216SOL    HW257488   6.367   3.099   5.544
85217SOL     OW57489   2.120   5.062   5.023
85217SOL    HW157490   2.069   4.982   5.036
85217SOL    HW257491   2.087   5.098   4.941
85218SOL     OW57492  12.819   0.008  13.176
85218SOL    HW157493  12.849  14.808  13.131
85218SOL    HW257494  12.809   0.072  13.106
85219SOL     OW57495   5.025  11.325  14.712
85219SOL    HW157496   5.083  11.339  14.637
85219SOL    HW257497   4.938  11.314  14.674
85220SOL     OW57498   4.446   4.834  10.507
85220SOL    HW157499   4.486   4.902  10.562
85220SOL    HW257500   4.456   4.754  10.558
85221SOL     OW57501  12.893  10.961   9.885
85221SOL    HW157502  12.971  10.964   9.940
85221SOL    HW257503  12.862  11.051   9.883
85222SOL     OW57504  12.270  14.414  11.069
85222SOL    HW157505  12.258  14.326  11.033
85222SOL    HW257506  12.356  14.441  11.036
85223SOL     OW57507   4.619   2.496  14.193
85223SOL    HW157508   4.550   2.549  14.232
85223SOL    HW257509   4.605   2.504  14.098
85224SOL     OW57510   6.872   0.309   6.670
85224SOL    HW157511   6.905   0.324   6.582
85224SOL    HW257512   6.825   0.226   6.664
85225SOL     OW57513   8.800   8.634   3.704
85225SOL    HW157514   8.708   8.615   3.720
85225SOL    HW257515   8.834   8.661   3.789
85226SOL     OW57516   7.659   3.645  10.597
85226SOL    HW157517   7.573   3.679  10.575
85226SOL    HW257518   7.699   3.626  10.512
85227SOL     OW57519  13.971  13.316   2.931
85227SOL    HW157520  14.053  13.336   2.886
85227SOL    HW257521  13.987  13.338   3.023
85228SOL     OW57522   9.822  10.844   9.278
85228SOL    HW157523   9.734  10.806   9.289
85228SOL    HW257524   9.837  10.840   9.184
85229SOL     OW57525  14.595   9.794   7.728
85229SOL    HW157526  14.543   9.846   7.789
85229SOL    HW257527  14.651   9.858   7.684
85230SOL     OW57528   7.980   4.188   9.921
85230SOL    HW157529   8.006   4.258   9.862
85230SOL    HW257530   7.933   4.232   9.992
85231SOL     OW57531   7.371   5.688  12.450
85231SOL    HW157532   7.434   5.758  12.437
85231SOL    HW257533   7.423   5.613  12.477
85232SOL     OW57534   6.690   2.670   8.552
85232SOL    HW157535   6.633   2.708   8.486
85232SOL    HW257536   6.779   2.694   8.525
85233SOL     OW57537   4.979  10.999   4.927
85233SOL    HW157538   4.918  11.057   4.881
85233SOL    HW257539   4.924  10.930   4.963
85234SOL     OW57540   8.227  12.669  14.746
85234SOL    HW157541   8.237  12.728  14.821
85234SOL    HW257542   8.141  12.629  14.759
85235SOL     OW57543  14.662  11.773  12.651
85235SOL    HW157544  14.601  11.843  12.674
85235SOL    HW257545  14.716  11.810  12.581
85236SOL     OW57546   6.634   8.065  13.267
85236SOL    HW157547   6.722   8.050  13.301
85236SOL    HW257548   6.584   7.990  13.296
85237SOL     OW57549   8.443   0.427   0.309
85237SOL    HW157550   8.464   0.336   0.292
85237SOL    HW257551   8.488   0.475   0.240
85238SOL     OW57552   1.666   2.476   9.316
85238SOL    HW157553   1.682   2.384   9.338
85238SOL    HW257554   1.607   2.508   9.385
85239SOL     OW57555  11.001   8.465   7.470
85239SOL    HW157556  10.956   8.434   7.549
85239SOL    HW257557  10.944   8.534   7.435
85240SOL     OW57558  13.544   2.185  13.475
85240SOL    HW157559  13.450   2.193  13.488
85240SOL    HW257560  13.578   2.273  13.490
85241SOL     OW57561   2.067  14.366  13.065
85241SOL    HW157562   2.121  14.288  13.050
85241SOL    HW257563   2.005  14.339  13.132
85242SOL     OW57564   9.954  11.103  14.271
85242SOL    HW157565   9.988  11.055  14.195
85242SOL    HW257566  10.024  11.100  14.335
85243SOL     OW57567  11.974  10.248  10.542
85243SOL    HW157568  11.918  10.323  10.521
85243SOL    HW257569  11.939  10.177  10.489
85244SOL     OW57570  13.028   1.691  13.727
85244SOL    HW157571  12.949   1.637  13.725
85244SOL    HW257572  13.078   1.658  13.801
85245SOL     OW57573  12.306   2.266   9.045
85245SOL    HW157574  12.259   2.337   9.002
85245SOL    HW257575  12.274   2.267   9.135
85246SOL     OW57576   7.450   5.460   4.304
85246SOL    HW157577   7.475   5.536   4.357
85246SOL    HW257578   7.462   5.386   4.363
85247SOL     OW57579   3.804   5.596   5.065
85247SOL    HW157580   3.841   5.639   4.989
85247SOL    HW257581   3.804   5.663   5.133
85248SOL     OW57582   1.680   7.467  10.528
85248SOL    HW157583   1.663   7.381  10.567
85248SOL    HW257584   1.601   7.517  10.545
85249SOL     OW57585  12.822   6.990  13.701
85249SOL    HW157586  12.843   7.011  13.792
85249SOL    HW257587  12.894   6.934  13.671
85250SOL     OW57588   7.702   3.191  13.214
85250SOL    HW157589   7.737   3.137  13.285
85250SOL    HW257590   7.610   3.168  13.209
85251SOL     OW57591  12.696   6.456   8.933
85251SOL    HW157592  12.634   6.399   8.977
85251SOL    HW257593  12.765   6.472   8.998
85252SOL     OW57594   1.309  14.753   6.636
85252SOL    HW157595   1.298  14.806   6.714
85252SOL    HW257596   1.374  14.800   6.584
85253SOL     OW57597   3.771   5.117   4.666
85253SOL    HW157598   3.743   5.058   4.736
85253SOL    HW257599   3.866   5.118   4.673
85254SOL     OW57600  12.743   4.924   0.433
85254SOL    HW157601  12.798   4.922   0.355
85254SOL    HW257602  12.688   5.002   0.422
85255SOL     OW57603  14.373   5.374   1.008
85255SOL    HW157604  14.285   5.408   0.991
85255SOL    HW257605  14.377   5.361   1.102
85256SOL     OW57606   7.256   5.459   4.067
85256SOL    HW157607   7.298   5.438   4.150
85256SOL    HW257608   7.318   5.429   4.001
85257SOL     OW57609  10.878   0.031   0.572
85257SOL    HW157610  10.832   0.071   0.646
85257SOL    HW257611  10.810  14.866   0.522
85258SOL     OW57612  12.935   5.192   5.591
85258SOL    HW157613  12.925   5.099   5.570
85258SOL    HW257614  12.963   5.193   5.683
85259SOL     OW57615   9.323  10.111   9.435
85259SOL    HW157616   9.334  10.017   9.453
85259SOL    HW257617   9.394  10.132   9.374
85260SOL     OW57618   5.996  11.905  13.855
85260SOL    HW157619   5.980  11.979  13.914
85260SOL    HW257620   6.087  11.881  13.873
85261SOL     OW57621   2.500   8.565   8.175
85261SOL    HW157622   2.469   8.475   8.181
85261SOL    HW257623   2.422   8.619   8.190
85262SOL     OW57624   7.484   6.299   6.592
85262SOL    HW157625   7.446   6.303   6.504
85262SOL    HW257626   7.558   6.359   6.590
85263SOL     OW57627   0.538   2.867   2.986
85263SOL    HW157628   0.611   2.811   3.012
85263SOL    HW257629   0.486   2.879   3.065
85264SOL     OW57630   3.091   6.490   0.736
85264SOL    HW157631   3.166   6.491   0.676
85264SOL    HW257632   3.128   6.462   0.820
85265SOL     OW57633   6.778  10.649   5.313
85265SOL    HW157634   6.711  10.714   5.292
85265SOL    HW257635   6.809  10.619   5.228
85266SOL     OW57636  13.957   3.072   8.188
85266SOL    HW157637  13.957   3.107   8.277
85266SOL    HW257638  13.908   2.990   8.194
85267SOL     OW57639   1.978   4.976  12.515
85267SOL    HW157640   1.890   4.959  12.480
85267SOL    HW257641   1.968   5.055  12.568
85268SOL     OW57642  13.514  10.164   2.614
85268SOL    HW157643  13.548  10.156   2.704
85268SOL    HW257644  13.539  10.082   2.572
85269SOL     OW57645   2.607  11.891  12.365
85269SOL    HW157646   2.623  11.844  12.446
85269SOL    HW257647   2.540  11.956  12.388
85270SOL     OW57648  11.704   3.050   4.768
85270SOL    HW157649  11.797   3.073   4.765
85270SOL    HW257650  11.658   3.133   4.768
85271SOL     OW57651  13.774  11.958   1.097
85271SOL    HW157652  13.720  11.879   1.099
85271SOL    HW257653  13.765  11.991   1.008
85272SOL     OW57654   9.433  10.694   5.866
85272SOL    HW157655   9.408  10.655   5.950
85272SOL    HW257656   9.356  10.745   5.840
85273SOL     OW57657   1.246   7.651   3.968
85273SOL    HW157658   1.273   7.559   3.970
85273SOL    HW257659   1.175   7.657   4.031
85274SOL     OW57660   7.581   7.066   9.971
85274SOL    HW157661   7.637   7.049  10.046
85274SOL    HW257662   7.552   7.157   9.981
85275SOL     OW57663   7.273  11.692   9.561
85275SOL    HW157664   7.234  11.715   9.646
85275SOL    HW257665   7.210  11.725   9.496
85276SOL     OW57666   6.564   6.045  10.323
85276SOL    HW157667   6.478   6.020  10.358
85276SOL    HW257668   6.623   5.976  10.353
85277SOL     OW57669  14.112  13.756   4.850
85277SOL    HW157670  14.041  13.748   4.786
85277SOL    HW257671  14.192  13.743   4.799
85278SOL     OW57672   9.263   0.949   0.751
85278SOL    HW157673   9.267   1.028   0.697
85278SOL    HW257674   9.348   0.907   0.739
85279SOL     OW57675   0.315  14.049   7.987
85279SOL    HW157676   0.390  14.027   8.041
85279SOL    HW257677   0.290  14.137   8.016
85280SOL     OW57678  14.080   0.650   3.156
85280SOL    HW157679  14.005   0.629   3.211
85280SOL    HW257680  14.080   0.581   3.089
85281SOL     OW57681   9.299  10.739   2.675
85281SOL    HW157682   9.251  10.699   2.747
85281SOL    HW257683   9.317  10.828   2.705
85282SOL     OW57684   4.256   3.875   8.790
85282SOL    HW157685   4.175   3.825   8.799
85282SOL    HW257686   4.303   3.859   8.872
85283SOL     OW57687   7.195   6.724   6.001
85283SOL    HW157688   7.282   6.747   6.031
85283SOL    HW257689   7.201   6.630   5.980
85284SOL     OW57690   8.086   7.286  14.318
85284SOL    HW157691   8.125   7.211  14.364
85284SOL    HW257692   7.994   7.286  14.346
85285SOL     OW57693  12.369  13.754   8.105
85285SOL    HW157694  12.331  13.740   8.019
85285SOL    HW257695  12.295  13.752   8.165
85286SOL     OW57696   9.950   2.818  13.165
85286SOL    HW157697   9.984   2.729  13.175
85286SOL    HW257698   9.941   2.851  13.254
85287SOL     OW57699  12.387   9.126   3.912
85287SOL    HW157700  12.378   9.106   4.005
85287SOL    HW257701  12.389   9.041   3.869
85288SOL     OW57702   8.576  13.734   2.133
85288SOL    HW157703   8.668  13.759   2.127
85288SOL    HW257704   8.537  13.766   2.052
85289SOL     OW57705   9.973   3.465   8.666
85289SOL    HW157706   9.902   3.403   8.681
85289SOL    HW257707   9.956   3.502   8.580
85290SOL     OW57708   9.021   4.148  11.037
85290SOL    HW157709   8.960   4.083  11.002
85290SOL    HW257710   9.076   4.172  10.962
85291SOL     OW57711   1.514   3.925  10.070
85291SOL    HW157712   1.550   3.859  10.129
85291SOL    HW257713   1.437   3.959  10.117
85292SOL     OW57714   8.608  13.683   3.368
85292SOL    HW157715   8.538  13.622   3.390
85292SOL    HW257716   8.683  13.652   3.418
85293SOL     OW57717  14.477   0.668   5.957
85293SOL    HW157718  14.511   0.592   5.909
85293SOL    HW257719  14.540   0.682   6.028
85294SOL     OW57720   5.661  14.700   1.762
85294SOL    HW157721   5.721  14.753   1.814
85294SOL    HW257722   5.594  14.671   1.824
85295SOL     OW57723   9.736  10.698   5.896
85295SOL    HW157724   9.644  10.687   5.875
85295SOL    HW257725   9.779  10.621   5.859
85296SOL     OW57726  12.813  10.133   3.244
85296SOL    HW157727  12.898  10.096   3.221
85296SOL    HW257728  12.827  10.228   3.243
85297SOL     OW57729  10.736  14.052   0.273
85297SOL    HW157730  10.774  14.053   0.361
85297SOL    HW257731  10.680  14.130   0.270
85298SOL     OW57732   9.956   0.546   5.654
85298SOL    HW157733   9.982   0.609   5.722
85298SOL    HW257734   9.886   0.590   5.606
85299SOL     OW57735   7.313  12.457   7.050
85299SOL    HW157736   7.235  12.493   7.093
85299SOL    HW257737   7.296  12.466   6.957
85300SOL     OW57738  13.809   1.418   0.572
85300SOL    HW157739  13.763   1.467   0.640
85300SOL    HW257740  13.873   1.364   0.620
85301SOL     OW57741  11.861   7.523   9.989
85301SOL    HW157742  11.782   7.510  10.041
85301SOL    HW257743  11.830   7.534   9.899
85302SOL     OW57744   5.563   2.729   9.423
85302SOL    HW157745   5.617   2.801   9.390
85302SOL    HW257746   5.518   2.765   9.499
85303SOL     OW57747   4.916   3.574   9.097
85303SOL    HW157748   4.983   3.635   9.128
85303SOL    HW257749   4.947   3.488   9.125
85304SOL     OW57750   7.828   6.348   4.889
85304SOL    HW157751   7.860   6.262   4.913
85304SOL    HW257752   7.852   6.358   4.797
85305SOL     OW57753   9.490   9.379  14.823
85305SOL    HW157754   9.561   9.370  14.759
85305SOL    HW257755   9.431   9.307  14.803
85306SOL     OW57756  12.562  12.189  10.878
85306SOL    HW157757  12.635  12.130  10.861
85306SOL    HW257758  12.592  12.274  10.846
85307SOL     OW57759  10.964   8.631  13.759
85307SOL    HW157760  10.870   8.617  13.756
85307SOL    HW257761  10.977   8.722  13.732
85308SOL     OW57762   6.192  13.237   2.062
85308SOL    HW157763   6.101  13.220   2.039
85308SOL    HW257764   6.243  13.204   1.988
85309SOL     OW57765   5.232   5.908  10.610
85309SOL    HW157766   5.153   5.953  10.580
85309SOL    HW257767   5.237   5.829  10.556
85310SOL     OW57768  13.499   3.966  11.734
85310SOL    HW157769  13.569   3.914  11.694
85310SOL    HW257770  13.482   3.922  11.818
85311SOL     OW57771  14.571   0.370   5.807
85311SOL    HW157772  14.650   0.376   5.754
85311SOL    HW257773  14.502   0.407   5.751
85312SOL     OW57774   0.088   6.731   3.439
85312SOL    HW157775   0.021   6.797   3.454
85312SOL    HW257776   0.107   6.696   3.526
85313SOL     OW57777   6.679  13.693   3.826
85313SOL    HW157778   6.658  13.642   3.904
85313SOL    HW257779   6.770  13.672   3.807
85314SOL     OW57780  11.696   9.902  11.621
85314SOL    HW157781  11.631   9.935  11.559
85314SOL    HW257782  11.775   9.890  11.569
85315SOL     OW57783  13.461   2.551   3.192
85315SOL    HW157784  13.386   2.536   3.134
85315SOL    HW257785  13.427   2.538   3.280
85316SOL     OW57786  10.491  12.973   6.264
85316SOL    HW157787  10.449  13.043   6.214
85316SOL    HW257788  10.435  12.897   6.251
85317SOL     OW57789   0.408   7.360   5.224
85317SOL    HW157790   0.344   7.339   5.292
85317SOL    HW257791   0.490   7.372   5.272
85318SOL     OW57792   1.834  14.793   4.788
85318SOL    HW157793   1.880  14.715   4.755
85318SOL    HW257794   1.764  14.757   4.843
85319SOL     OW57795   4.482  14.439   5.888
85319SOL    HW157796   4.393  14.428   5.856
85319SOL    HW257797   4.474  14.449   5.982
85320SOL     OW57798  12.900   6.582   6.280
85320SOL    HW157799  12.841   6.518   6.239
85320SOL    HW257800  12.981   6.575   6.229
85321SOL     OW57801   8.876  10.856   3.671
85321SOL    HW157802   8.915  10.892   3.750
85321SOL    HW257803   8.948  10.810   3.627
85322SOL     OW57804   5.946   8.721  12.639
85322SOL    HW157805   5.950   8.790  12.704
85322SOL    HW257806   5.862   8.733  12.595
85323SOL     OW57807  13.708  10.210   5.486
85323SOL    HW157808  13.691  10.200   5.393
85323SOL    HW257809  13.627  10.181   5.529
85324SOL     OW57810   8.780   1.749   3.929
85324SOL    HW157811   8.764   1.673   3.874
85324SOL    HW257812   8.775   1.824   3.870
85325SOL     OW57813   2.088  12.714   4.408
85325SOL    HW157814   2.035  12.687   4.483
85325SOL    HW257815   2.023  12.737   4.341
85326SOL     OW57816   5.484   3.485  13.403
85326SOL    HW157817   5.489   3.474  13.498
85326SOL    HW257818   5.415   3.424  13.375
85327SOL     OW57819   7.375   5.296   7.347
85327SOL    HW157820   7.299   5.354   7.348
85327SOL    HW257821   7.438   5.340   7.289
85328SOL     OW57822   1.271   4.296  13.666
85328SOL    HW157823   1.217   4.235  13.615
85328SOL    HW257824   1.319   4.346  13.601
85329SOL     OW57825   9.274  13.887   6.699
85329SOL    HW157826   9.283  13.982   6.692
85329SOL    HW257827   9.335  13.853   6.633
85330SOL     OW57828  14.653   9.904  14.237
85330SOL    HW157829  14.618   9.868  14.156
85330SOL    HW257830  14.725   9.845  14.261
85331SOL     OW57831  14.510  11.036   2.443
85331SOL    HW157832  14.478  11.099   2.378
85331SOL    HW257833  14.604  11.033   2.430
85332SOL     OW57834   4.895   6.422   2.848
85332SOL    HW157835   4.813   6.452   2.887
85332SOL    HW257836   4.963   6.472   2.893
85333SOL     OW57837   8.029   0.042   6.752
85333SOL    HW157838   8.072  14.855   6.698
85333SOL    HW257839   7.938   0.014   6.760
85334SOL     OW57840   1.698   6.137  10.393
85334SOL    HW157841   1.726   6.068  10.333
85334SOL    HW257842   1.772   6.149  10.452
85335SOL     OW57843   3.264   7.177   8.859
85335SOL    HW157844   3.351   7.192   8.822
85335SOL    HW257845   3.253   7.245   8.924
85336SOL     OW57846   6.891   8.129   1.977
85336SOL    HW157847   6.947   8.083   2.039
85336SOL    HW257848   6.896   8.221   2.004
85337SOL     OW57849   3.049   9.831   0.588
85337SOL    HW157850   2.974   9.815   0.530
85337SOL    HW257851   3.101   9.750   0.582
85338SOL     OW57852  10.544   0.258   8.999
85338SOL    HW157853  10.541   0.166   8.974
85338SOL    HW257854  10.465   0.296   8.961
85339SOL     OW57855  12.413   1.443   4.359
85339SOL    HW157856  12.447   1.531   4.347
85339SOL    HW257857  12.436   1.420   4.449
85340SOL     OW57858   6.640  12.779   2.982
85340SOL    HW157859   6.589  12.826   2.916
85340SOL    HW257860   6.654  12.843   3.052
85341SOL     OW57861   4.043  10.420   2.582
85341SOL    HW157862   3.976  10.354   2.596
85341SOL    HW257863   3.997  10.493   2.540
85342SOL     OW57864  12.608   9.202   3.707
85342SOL    HW157865  12.545   9.188   3.778
85342SOL    HW257866  12.623   9.115   3.670
85343SOL     OW57867  10.375   9.789   0.314
85343SOL    HW157868  10.465   9.782   0.281
85343SOL    HW257869  10.383   9.847   0.390
85344SOL     OW57870  12.647  10.353   2.603
85344SOL    HW157871  12.685  10.330   2.519
85344SOL    HW257872  12.668  10.280   2.661
85345SOL     OW57873   1.525   0.008   2.081
85345SOL    HW157874   1.609  14.848   2.060
85345SOL    HW257875   1.524   0.090   2.032
85346SOL     OW57876  12.999   1.976   0.707
85346SOL    HW157877  12.912   1.990   0.669
85346SOL    HW257878  12.989   1.896   0.759
85347SOL     OW57879  14.875   2.289   3.004
85347SOL    HW157880  14.820   2.364   2.985
85347SOL    HW257881  14.845   2.258   3.090
85348SOL     OW57882   0.307  11.915   6.252
85348SOL    HW157883   0.304  11.821   6.236
85348SOL    HW257884   0.217  11.940   6.272
85349SOL     OW57885   0.118   7.800   0.606
85349SOL    HW157886   0.039   7.746   0.604
85349SOL    HW257887   0.143   7.804   0.698
85350SOL     OW57888   0.208   4.229   0.618
85350SOL    HW157889   0.223   4.319   0.646
85350SOL    HW257890   0.283   4.180   0.654
85351SOL     OW57891  12.989   8.118   6.162
85351SOL    HW157892  13.001   8.060   6.237
85351SOL    HW257893  12.898   8.103   6.134
85352SOL     OW57894   7.803  13.609   2.882
85352SOL    HW157895   7.735  13.607   2.949
85352SOL    HW257896   7.820  13.702   2.869
85353SOL     OW57897   3.145  11.344   8.234
85353SOL    HW157898   3.108  11.268   8.278
85353SOL    HW257899   3.183  11.309   8.153
85354SOL     OW57900   3.661   1.608   6.989
85354SOL    HW157901   3.725   1.572   6.927
85354SOL    HW257902   3.663   1.702   6.971
85355SOL     OW57903   3.898   6.189   2.965
85355SOL    HW157904   3.831   6.191   3.034
85355SOL    HW257905   3.977   6.221   3.008
85356SOL     OW57906  14.373   2.777   9.958
85356SOL    HW157907  14.451   2.830   9.943
85356SOL    HW257908  14.391   2.695   9.911
85357SOL     OW57909  10.974   7.592   9.667
85357SOL    HW157910  11.034   7.561   9.599
85357SOL    HW257911  10.975   7.522   9.733
85358SOL     OW57912  12.528   7.325  13.767
85358SOL    HW157913  12.461   7.369  13.819
85358SOL    HW257914  12.602   7.386  13.767
85359SOL     OW57915   2.565   5.547   9.085
85359SOL    HW157916   2.470   5.537   9.090
85359SOL    HW257917   2.596   5.463   9.052
85360SOL     OW57918   0.239   8.339  13.910
85360SOL    HW157919   0.238   8.246  13.932
85360SOL    HW257920   0.327   8.355  13.877
85361SOL     OW57921  10.975   7.748   2.866
85361SOL    HW157922  11.046   7.759   2.803
85361SOL    HW257923  10.913   7.690   2.822
85362SOL     OW57924   3.133   3.962   0.430
85362SOL    HW157925   3.183   3.999   0.503
85362SOL    HW257926   3.082   4.036   0.396
85363SOL     OW57927   5.858   6.670   2.869
85363SOL    HW157928   5.817   6.726   2.935
85363SOL    HW257929   5.946   6.705   2.859
85364SOL     OW57930  14.033  11.702  14.588
85364SOL    HW157931  13.946  11.711  14.626
85364SOL    HW257932  14.092  11.718  14.662
85365SOL     OW57933   2.459   3.582   0.306
85365SOL    HW157934   2.460   3.676   0.289
85365SOL    HW257935   2.366   3.559   0.310
85366SOL     OW57936   6.418   9.925  11.592
85366SOL    HW157937   6.466   9.970  11.661
85366SOL    HW257938   6.354   9.871  11.638
85367SOL     OW57939   6.198   9.482   1.582
85367SOL    HW157940   6.114   9.515   1.550
85367SOL    HW257941   6.175   9.405   1.633
85368SOL     OW57942   2.331  13.451   3.560
85368SOL    HW157943   2.279  13.447   3.641
85368SOL    HW257944   2.411  13.498   3.585
85369SOL     OW57945  14.224   3.805   2.650
85369SOL    HW157946  14.319   3.798   2.656
85369SOL    HW257947  14.191   3.742   2.714
85370SOL     OW57948   7.514   2.352  12.218
85370SOL    HW157949   7.488   2.395  12.299
85370SOL    HW257950   7.441   2.295  12.196
85371SOL     OW57951  13.786  14.118   1.008
85371SOL    HW157952  13.744  14.119   1.094
85371SOL    HW257953  13.719  14.086   0.948
85372SOL     OW57954  14.031  11.557   9.812
85372SOL    HW157955  14.079  11.499   9.753
85372SOL    HW257956  13.954  11.506   9.837
85373SOL     OW57957   0.125  10.021   7.465
85373SOL    HW157958   0.109  10.040   7.558
85373SOL    HW257959   0.153   9.929   7.464
85374SOL     OW57960   4.761   4.817   0.653
85374SOL    HW157961   4.813   4.871   0.594
85374SOL    HW257962   4.824   4.757   0.693
85375SOL     OW57963  10.965  12.432   8.628
85375SOL    HW157964  11.039  12.383   8.592
85375SOL    HW257965  10.901  12.434   8.557
85376SOL     OW57966   8.107   8.912   1.270
85376SOL    HW157967   8.202   8.904   1.264
85376SOL    HW257968   8.078   8.920   1.179
85377SOL     OW57969  12.239  10.613   3.359
85377SOL    HW157970  12.249  10.532   3.409
85377SOL    HW257971  12.203  10.585   3.274
85378SOL     OW57972   3.714   2.909   9.919
85378SOL    HW157973   3.774   2.853   9.969
85378SOL    HW257974   3.750   2.997   9.928
85379SOL     OW57975   9.413  10.465   0.604
85379SOL    HW157976   9.350  10.394   0.614
85379SOL    HW257977   9.406  10.490   0.512
85380SOL     OW57978  13.867   1.596   1.539
85380SOL    HW157979  13.839   1.653   1.611
85380SOL    HW257980  13.944   1.640   1.502
85381SOL     OW57981   0.231   3.263   3.419
85381SOL    HW157982   0.232   3.346   3.370
85381SOL    HW257983   0.144   3.226   3.403
85382SOL     OW57984  13.454   6.361   8.773
85382SOL    HW157985  13.370   6.315   8.767
85382SOL    HW257986  13.502   6.315   8.841
85383SOL     OW57987   8.303   2.147   0.748
85383SOL    HW157988   8.269   2.128   0.661
85383SOL    HW257989   8.295   2.241   0.757
85384SOL     OW57990   9.166  10.699   7.838
85384SOL    HW157991   9.082  10.717   7.796
85384SOL    HW257992   9.231  10.734   7.777
85385SOL     OW57993  14.251  12.683  14.192
85385SOL    HW157994  14.199  12.658  14.268
85385SOL    HW257995  14.328  12.727  14.228
85386SOL     OW57996   9.879   8.501   3.668
85386SOL    HW157997   9.851   8.426   3.721
85386SOL    HW257998   9.948   8.543   3.720
85387SOL     OW57999   1.715  14.695  11.065
85387SOL    HW158000   1.624  14.705  11.035
85387SOL    HW258001   1.754  14.781  11.049
85388SOL     OW58002   9.772   2.396   4.130
85388SOL    HW158003   9.775   2.364   4.039
85388SOL    HW258004   9.838   2.344   4.176
85389SOL     OW58005   3.824   2.424   8.203
85389SOL    HW158006   3.789   2.500   8.155
85389SOL    HW258007   3.865   2.370   8.135
85390SOL     OW58008  14.867  11.541  12.676
85390SOL    HW158009   0.042  11.581  12.744
85390SOL    HW258010  14.789  11.596  12.674
85391SOL     OW58011   4.230   0.118   7.305
85391SOL    HW158012   4.192   0.202   7.280
85391SOL    HW258013   4.269   0.084   7.224
85392SOL     OW58014  12.299  13.630  10.905
85392SOL    HW158015  12.315  13.720  10.875
85392SOL    HW258016  12.292  13.579  10.825
85393SOL     OW58017  14.615   9.546   9.784
85393SOL    HW158018  14.652   9.558   9.872
85393SOL    HW258019  14.630   9.454   9.764
85394SOL     OW58020   9.542  14.110   3.182
85394SOL    HW158021   9.564  14.024   3.147
85394SOL    HW258022   9.447  14.107   3.195
85395SOL     OW58023   8.849  13.599   4.061
85395SOL    HW158024   8.920  13.569   4.118
85395SOL    HW258025   8.821  13.682   4.100
85396SOL     OW58026   3.132  11.064  12.782
85396SOL    HW158027   3.135  11.081  12.876
85396SOL    HW258028   3.220  11.034  12.761
85397SOL     OW58029  10.291   6.804  10.287
85397SOL    HW158030  10.319   6.841  10.203
85397SOL    HW258031  10.200   6.780  10.274
85398SOL     OW58032   8.631   5.098  10.084
85398SOL    HW158033   8.663   5.141  10.004
85398SOL    HW258034   8.706   5.048  10.116
85399SOL     OW58035  11.208   5.858   9.180
85399SOL    HW158036  11.199   5.920   9.108
85399SOL    HW258037  11.138   5.882   9.241
85400SOL     OW58038  12.431  10.848  14.535
85400SOL    HW158039  12.345  10.856  14.492
85400SOL    HW258040  12.442  10.931  14.582
85401SOL     OW58041   2.494   7.152   4.923
85401SOL    HW158042   2.569   7.150   4.982
85401SOL    HW258043   2.522   7.206   4.850
85402SOL     OW58044   2.068   8.912  10.222
85402SOL    HW158045   2.054   8.938  10.313
85402SOL    HW258046   2.134   8.843  10.227
85403SOL     OW58047   9.531   9.349  14.385
85403SOL    HW158048   9.502   9.275  14.439
85403SOL    HW258049   9.487   9.336  14.301
85404SOL     OW58050  14.138   2.686   4.476
85404SOL    HW158051  14.177   2.693   4.563
85404SOL    HW258052  14.044   2.694   4.491
85405SOL     OW58053   7.063   9.633  13.450
85405SOL    HW158054   7.114   9.683  13.386
85405SOL    HW258055   6.972   9.655  13.430
85406SOL     OW58056   5.570   1.988   6.298
85406SOL    HW158057   5.583   2.082   6.311
85406SOL    HW258058   5.505   1.982   6.228
85407SOL     OW58059   9.193  13.760  13.754
85407SOL    HW158060   9.268  13.725  13.802
85407SOL    HW258061   9.152  13.682  13.715
85408SOL     OW58062   2.690   0.515  10.723
85408SOL    HW158063   2.711   0.596  10.770
85408SOL    HW258064   2.773   0.489  10.683
85409SOL     OW58065   0.443  10.747  14.648
85409SOL    HW158066   0.515  10.799  14.613
85409SOL    HW258067   0.365  10.799  14.632
85410SOL     OW58068   7.436  11.033  11.103
85410SOL    HW158069   7.489  11.059  11.178
85410SOL    HW258070   7.430  11.112  11.049
85411SOL     OW58071   5.807  12.365   1.352
85411SOL    HW158072   5.865  12.439   1.337
85411SOL    HW258073   5.863  12.288   1.340
85412SOL     OW58074  11.472   8.261  11.735
85412SOL    HW158075  11.486   8.177  11.778
85412SOL    HW258076  11.518   8.253  11.651
85413SOL     OW58077  10.073  13.944   5.929
85413SOL    HW158078  10.075  14.018   5.990
85413SOL    HW258079   9.985  13.945   5.892
85414SOL     OW58080   0.082  11.974   4.100
85414SOL    HW158081   0.089  11.926   4.018
85414SOL    HW258082   0.156  12.034   4.099
85415SOL     OW58083  11.790   3.789   5.924
85415SOL    HW158084  11.737   3.765   5.999
85415SOL    HW258085  11.731   3.782   5.849
85416SOL     OW58086  11.452   3.554   8.369
85416SOL    HW158087  11.544   3.572   8.350
85416SOL    HW258088  11.404   3.626   8.327
85417SOL     OW58089   6.418  14.145   8.001
85417SOL    HW158090   6.376  14.064   7.972
85417SOL    HW258091   6.489  14.158   7.937
85418SOL     OW58092   8.669  12.503   7.612
85418SOL    HW158093   8.578  12.504   7.643
85418SOL    HW258094   8.682  12.591   7.575
85419SOL     OW58095   7.474   4.641   4.775
85419SOL    HW158096   7.507   4.584   4.706
85419SOL    HW258097   7.395   4.682   4.737
85420SOL     OW58098   2.239  10.611   1.119
85420SOL    HW158099   2.167  10.663   1.156
85420SOL    HW258100   2.318  10.661   1.138
85421SOL     OW58101   6.362   3.412   0.534
85421SOL    HW158102   6.328   3.324   0.514
85421SOL    HW258103   6.299   3.472   0.493
85422SOL     OW58104   7.655  10.022   4.319
85422SOL    HW158105   7.727  10.055   4.264
85422SOL    HW258106   7.597   9.977   4.257
85423SOL     OW58107   8.509  10.401  14.354
85423SOL    HW158108   8.572  10.400  14.281
85423SOL    HW258109   8.505  10.493  14.380
85424SOL     OW58110   6.586   1.418   2.963
85424SOL    HW158111   6.678   1.403   2.944
85424SOL    HW258112   6.571   1.509   2.940
85425SOL     OW58113  13.144   2.584   3.068
85425SOL    HW158114  13.054   2.572   3.101
85425SOL    HW258115  13.147   2.675   3.039
85426SOL     OW58116   6.185  14.401   9.349
85426SOL    HW158117   6.260  14.458   9.332
85426SOL    HW258118   6.219  14.312   9.338
85427SOL     OW58119   4.590  13.544   8.829
85427SOL    HW158120   4.658  13.590   8.879
85427SOL    HW258121   4.599  13.452   8.856
85428SOL     OW58122   1.940   2.580  10.835
85428SOL    HW158123   2.003   2.634  10.882
85428SOL    HW258124   1.858   2.590  10.884
85429SOL     OW58125   3.522  11.103   7.723
85429SOL    HW158126   3.473  11.037   7.772
85429SOL    HW258127   3.606  11.108   7.768
85430SOL     OW58128   2.463   4.129   5.192
85430SOL    HW158129   2.447   4.041   5.224
85430SOL    HW258130   2.553   4.128   5.160
85431SOL     OW58131   8.022   2.410  10.476
85431SOL    HW158132   8.102   2.461  10.461
85431SOL    HW258133   8.033   2.374  10.564
85432SOL     OW58134  12.794   3.107   5.273
85432SOL    HW158135  12.727   3.044   5.246
85432SOL    HW258136  12.877   3.065   5.250
85433SOL     OW58137   0.580  14.361  13.583
85433SOL    HW158138   0.496  14.389  13.620
85433SOL    HW258139   0.556  14.299  13.514
85434SOL     OW58140  12.722  10.796   9.533
85434SOL    HW158141  12.742  10.887   9.514
85434SOL    HW258142  12.792  10.767   9.590
85435SOL     OW58143  10.770  11.929  10.802
85435SOL    HW158144  10.696  11.877  10.772
85435SOL    HW258145  10.766  12.009  10.750
85436SOL     OW58146   9.752   6.239  11.389
85436SOL    HW158147   9.707   6.183  11.325
85436SOL    HW258148   9.836   6.259  11.349
85437SOL     OW58149   6.402   7.403  13.382
85437SOL    HW158150   6.380   7.390  13.289
85437SOL    HW258151   6.379   7.321  13.424
85438SOL     OW58152   0.639   6.146   6.573
85438SOL    HW158153   0.592   6.064   6.588
85438SOL    HW258154   0.682   6.165   6.657
85439SOL     OW58155  14.504  13.919   3.687
85439SOL    HW158156  14.469  13.982   3.624
85439SOL    HW258157  14.584  13.887   3.646
85440SOL     OW58158  11.191   9.482   7.433
85440SOL    HW158159  11.113   9.486   7.489
85440SOL    HW258160  11.181   9.401   7.384
85441SOL     OW58161  12.671   1.818   5.903
85441SOL    HW158162  12.657   1.757   5.975
85441SOL    HW258163  12.701   1.898   5.945
85442SOL     OW58164   9.813   7.471   4.653
85442SOL    HW158165   9.848   7.554   4.621
85442SOL    HW258166   9.792   7.488   4.745
85443SOL     OW58167   3.498   9.933   9.571
85443SOL    HW158168   3.403   9.943   9.578
85443SOL    HW258169   3.527   9.909   9.659
85444SOL     OW58170   0.582   2.220  13.953
85444SOL    HW158171   0.675   2.216  13.932
85444SOL    HW258172   0.543   2.147  13.904
85445SOL     OW58173   8.039   4.105   5.469
85445SOL    HW158174   7.975   4.148   5.412
85445SOL    HW258175   8.120   4.154   5.453
85446SOL     OW58176   5.212  12.935   4.219
85446SOL    HW158177   5.287  12.966   4.168
85446SOL    HW258178   5.244  12.857   4.265
85447SOL     OW58179   9.628  10.679   2.733
85447SOL    HW158180   9.634  10.656   2.825
85447SOL    HW258181   9.540  10.717   2.723
85448SOL     OW58182  13.633   7.739   8.211
85448SOL    HW158183  13.727   7.723   8.199
85448SOL    HW258184  13.596   7.728   8.123
85449SOL     OW58185   1.573   3.200   3.390
85449SOL    HW158186   1.619   3.174   3.311
85449SOL    HW258187   1.628   3.269   3.428
85450SOL     OW58188   7.955  11.403  12.273
85450SOL    HW158189   7.906  11.398  12.356
85450SOL    HW258190   7.927  11.486  12.234
85451SOL     OW58191   9.707   7.258  12.113
85451SOL    HW158192   9.704   7.256  12.209
85451SOL    HW258193   9.745   7.343  12.092
85452SOL     OW58194  11.946  14.779   5.198
85452SOL    HW158195  12.036  14.787   5.227
85452SOL    HW258196  11.952  14.747   5.108
85453SOL     OW58197   4.449   2.047   3.545
85453SOL    HW158198   4.413   1.999   3.470
85453SOL    HW258199   4.467   2.135   3.511
85454SOL     OW58200  13.349   2.026  14.054
85454SOL    HW158201  13.363   1.941  14.095
85454SOL    HW258202  13.259   2.050  14.077
85455SOL     OW58203  13.485   1.017   0.682
85455SOL    HW158204  13.474   1.105   0.717
85455SOL    HW258205  13.571   1.017   0.641
85456SOL     OW58206  13.043   3.157  10.229
85456SOL    HW158207  13.041   3.195  10.317
85456SOL    HW258208  12.973   3.202  10.182
85457SOL     OW58209   3.766   7.825   2.896
85457SOL    HW158210   3.743   7.837   2.988
85457SOL    HW258211   3.839   7.884   2.881
85458SOL     OW58212  13.650  11.686   2.489
85458SOL    HW158213  13.622  11.647   2.407
85458SOL    HW258214  13.617  11.627   2.557
85459SOL     OW58215  14.835  13.438   9.039
85459SOL    HW158216  14.823  13.361   9.095
85459SOL    HW258217  14.781  13.422   8.962
85460SOL     OW58218   4.293   0.785  14.421
85460SOL    HW158219   4.319   0.809  14.332
85460SOL    HW258220   4.376   0.773  14.468
85461SOL     OW58221   1.610  12.028   2.840
85461SOL    HW158222   1.650  12.043   2.926
85461SOL    HW258223   1.556  12.106   2.825
85462SOL     OW58224   8.962   4.956   6.877
85462SOL    HW158225   9.030   4.893   6.904
85462SOL    HW258226   8.944   4.934   6.786
85463SOL     OW58227  13.503  13.103   1.825
85463SOL    HW158228  13.565  13.155   1.774
85463SOL    HW258229  13.417  13.132   1.794
85464SOL     OW58230   3.251  10.154   0.375
85464SOL    HW158231   3.185  10.092   0.344
85464SOL    HW258232   3.254  10.221   0.307
85465SOL     OW58233   0.071   3.486   5.286
85465SOL    HW158234   0.148   3.516   5.238
85465SOL    HW258235   0.066   3.544   5.363
85466SOL     OW58236   1.536   2.554   3.597
85466SOL    HW158237   1.619   2.540   3.643
85466SOL    HW258238   1.563   2.570   3.506
85467SOL     OW58239  14.269   3.586  11.899
85467SOL    HW158240  14.228   3.517  11.846
85467SOL    HW258241  14.217   3.589  11.979
85468SOL     OW58242   9.610   2.735   3.842
85468SOL    HW158243   9.611   2.764   3.933
85468SOL    HW258244   9.622   2.816   3.791
85469SOL     OW58245   0.658  10.797  12.804
85469SOL    HW158246   0.589  10.834  12.858
85469SOL    HW258247   0.652  10.703  12.819
85470SOL     OW58248  11.874  10.772  11.995
85470SOL    HW158249  11.929  10.825  12.053
85470SOL    HW258250  11.873  10.686  12.035
85471SOL     OW58251   8.445   0.578  10.369
85471SOL    HW158252   8.416   0.533  10.291
85471SOL    HW258253   8.502   0.516  10.414
85472SOL     OW58254   9.222   2.431  12.535
85472SOL    HW158255   9.172   2.488  12.593
85472SOL    HW258256   9.310   2.429  12.572
85473SOL     OW58257   6.352  11.604   1.874
85473SOL    HW158258   6.364  11.695   1.847
85473SOL    HW258259   6.261  11.598   1.903
85474SOL     OW58260  12.449   2.560  14.097
85474SOL    HW158261  12.475   2.595  14.012
85474SOL    HW258262  12.449   2.637  14.155
85475SOL     OW58263   9.270   3.945  10.042
85475SOL    HW158264   9.235   3.986   9.964
85475SOL    HW258265   9.332   3.880  10.009
85476SOL     OW58266   8.280   4.228   9.760
85476SOL    HW158267   8.365   4.185   9.773
85476SOL    HW258268   8.261   4.271   9.843
85477SOL     OW58269  12.321   1.705   2.670
85477SOL    HW158270  12.362   1.696   2.585
85477SOL    HW258271  12.250   1.641   2.670
85478SOL     OW58272   9.215   2.906  13.452
85478SOL    HW158273   9.168   2.824  13.464
85478SOL    HW258274   9.179   2.965  13.519
85479SOL     OW58275  14.478  11.045  10.970
85479SOL    HW158276  14.425  11.072  10.895
85479SOL    HW258277  14.424  11.065  11.046
85480SOL     OW58278   9.856   7.098   3.293
85480SOL    HW158279   9.877   7.183   3.254
85480SOL    HW258280   9.933   7.075   3.345
85481SOL     OW58281  11.497   9.595   5.631
85481SOL    HW158282  11.591   9.608   5.640
85481SOL    HW258283  11.458   9.670   5.675
85482SOL     OW58284  11.920   9.642   4.900
85482SOL    HW158285  11.844   9.620   4.845
85482SOL    HW258286  11.940   9.560   4.946
85483SOL     OW58287   9.556   2.657   0.300
85483SOL    HW158288   9.568   2.590   0.233
85483SOL    HW258289   9.635   2.712   0.293
85484SOL     OW58290   8.739   9.770   2.644
85484SOL    HW158291   8.678   9.841   2.663
85484SOL    HW258292   8.686   9.691   2.650
85485SOL     OW58293   1.572   6.512  10.901
85485SOL    HW158294   1.490   6.521  10.950
85485SOL    HW258295   1.591   6.419  10.904
85486SOL     OW58296  10.027  12.165  14.281
85486SOL    HW158297  10.100  12.138  14.338
85486SOL    HW258298  10.005  12.254  14.310
85487SOL     OW58299  13.640  10.414   3.422
85487SOL    HW158300  13.598  10.331   3.441
85487SOL    HW258301  13.625  10.428   3.328
85488SOL     OW58302  11.804   9.213   9.972
85488SOL    HW158303  11.765   9.211  10.059
85488SOL    HW258304  11.797   9.305   9.945
85489SOL     OW58305  13.240  12.072   3.282
85489SOL    HW158306  13.163  12.034   3.323
85489SOL    HW258307  13.235  12.165   3.303
85490SOL     OW58308   3.897  14.320   2.464
85490SOL    HW158309   3.832  14.331   2.533
85490SOL    HW258310   3.929  14.231   2.474
85491SOL     OW58311  12.531  11.387   4.066
85491SOL    HW158312  12.496  11.410   3.980
85491SOL    HW258313  12.615  11.433   4.071
85492SOL     OW58314   0.989   0.846   5.531
85492SOL    HW158315   0.932   0.849   5.608
85492SOL    HW258316   0.938   0.799   5.465
85493SOL     OW58317   5.600   7.237   4.260
85493SOL    HW158318   5.679   7.267   4.214
85493SOL    HW258319   5.610   7.142   4.265
85494SOL     OW58320  11.493   8.159   1.164
85494SOL    HW158321  11.546   8.235   1.140
85494SOL    HW258322  11.428   8.153   1.095
85495SOL     OW58323   9.179  10.093  10.283
85495SOL    HW158324   9.188  10.080  10.188
85495SOL    HW258325   9.103  10.042  10.307
85496SOL     OW58326   6.849   4.992   0.297
85496SOL    HW158327   6.930   4.946   0.320
85496SOL    HW258328   6.835   4.971   0.205
85497SOL     OW58329  10.804   3.667   4.706
85497SOL    HW158330  10.773   3.619   4.783
85497SOL    HW258331  10.874   3.723   4.738
85498SOL     OW58332   0.011   2.164   7.096
85498SOL    HW158333  14.869   2.085   7.046
85498SOL    HW258334   0.002   2.138   7.188
85499SOL     OW58335   3.196   8.404  10.041
85499SOL    HW158336   3.254   8.375  10.112
85499SOL    HW258337   3.163   8.322  10.002
85500SOL     OW58338  13.185  11.403  11.099
85500SOL    HW158339  13.234  11.368  11.173
85500SOL    HW258340  13.194  11.337  11.031
85501SOL     OW58341   3.602   0.543   5.003
85501SOL    HW158342   3.593   0.452   4.974
85501SOL    HW258343   3.591   0.538   5.098
85502SOL     OW58344   2.721   4.423  10.664
85502SOL    HW158345   2.662   4.372  10.720
85502SOL    HW258346   2.665   4.459  10.596
85503SOL     OW58347   2.435  11.783   5.005
85503SOL    HW158348   2.379  11.773   4.928
85503SOL    HW258349   2.498  11.851   4.979
85504SOL     OW58350   1.854   8.104  13.458
85504SOL    HW158351   1.846   8.010  13.476
85504SOL    HW258352   1.815   8.114  13.371
85505SOL     OW58353  11.565   6.404   6.444
85505SOL    HW158354  11.609   6.341   6.501
85505SOL    HW258355  11.535   6.473   6.503
85506SOL     OW58356  10.249   5.295   6.370
85506SOL    HW158357  10.163   5.308   6.409
85506SOL    HW258358  10.251   5.354   6.295
85507SOL     OW58359   0.752   2.479   5.836
85507SOL    HW158360   0.810   2.408   5.863
85507SOL    HW258361   0.810   2.551   5.813
85508SOL     OW58362   2.931   3.513  11.302
85508SOL    HW158363   2.915   3.493  11.394
85508SOL    HW258364   2.934   3.427  11.259
85509SOL     OW58365   7.946  13.100   6.669
85509SOL    HW158366   8.017  13.165   6.671
85509SOL    HW258367   7.918  13.099   6.577
85510SOL     OW58368  11.800   2.023  11.768
85510SOL    HW158369  11.817   1.932  11.743
85510SOL    HW258370  11.759   2.018  11.854
85511SOL     OW58371   4.924   8.352  14.219
85511SOL    HW158372   4.899   8.432  14.264
85511SOL    HW258373   4.855   8.337  14.155
85512SOL     OW58374  12.819   1.846   5.664
85512SOL    HW158375  12.761   1.827   5.738
85512SOL    HW258376  12.763   1.893   5.602
85513SOL     OW58377   1.418  13.518  11.438
85513SOL    HW158378   1.418  13.517  11.534
85513SOL    HW258379   1.335  13.559  11.414
85514SOL     OW58380   0.374   9.746   8.200
85514SOL    HW158381   0.462   9.783   8.197
85514SOL    HW258382   0.379   9.676   8.264
85515SOL     OW58383  10.512   3.011   0.974
85515SOL    HW158384  10.468   2.933   1.007
85515SOL    HW258385  10.508   3.003   0.879
85516SOL     OW58386   8.148   9.417   6.139
85516SOL    HW158387   8.072   9.380   6.184
85516SOL    HW258388   8.113   9.449   6.056
85517SOL     OW58389   7.605  14.057   4.112
85517SOL    HW158390   7.558  14.042   4.030
85517SOL    HW258391   7.589  13.979   4.164
85518SOL     OW58392   7.983   5.987  13.349
85518SOL    HW158393   8.020   6.003  13.261
85518SOL    HW258394   7.920   6.058  13.361
85519SOL     OW58395   9.103  13.877  13.076
85519SOL    HW158396   9.065  13.865  13.163
85519SOL    HW258397   9.110  13.788  13.040
85520SOL     OW58398  10.175   1.759   2.732
85520SOL    HW158399  10.142   1.686   2.679
85520SOL    HW258400  10.262   1.732   2.760
85521SOL     OW58401   0.475  14.435   8.643
85521SOL    HW158402   0.381  14.452   8.633
85521SOL    HW258403   0.509  14.512   8.688
85522SOL     OW58404  12.508   2.988   5.145
85522SOL    HW158405  12.446   2.915   5.142
85522SOL    HW258406  12.508   3.023   5.057
85523SOL     OW58407  14.259   6.816  14.605
85523SOL    HW158408  14.188   6.803  14.669
85523SOL    HW258409  14.338   6.790  14.652
85524SOL     OW58410   2.246  11.979  12.220
85524SOL    HW158411   2.338  11.987  12.243
85524SOL    HW258412   2.199  11.990  12.303
85525SOL     OW58413  14.605   2.097   5.624
85525SOL    HW158414  14.663   2.164   5.589
85525SOL    HW258415  14.662   2.039   5.673
85526SOL     OW58416   9.965  10.323  11.761
85526SOL    HW158417   9.906  10.293  11.830
85526SOL    HW258418   9.974  10.247  11.703
85527SOL     OW58419   5.295   3.195  10.633
85527SOL    HW158420   5.383   3.232  10.644
85527SOL    HW258421   5.311   3.107  10.598
85528SOL     OW58422  13.710  14.689   3.062
85528SOL    HW158423  13.702  14.594   3.068
85528SOL    HW258424  13.628  14.722   3.099
85529SOL     OW58425   4.756  11.045   9.224
85529SOL    HW158426   4.782  11.132   9.194
85529SOL    HW258427   4.660  11.048   9.226
85530SOL     OW58428   9.085   9.947  14.318
85530SOL    HW158429   9.022   9.875  14.305
85530SOL    HW258430   9.116   9.934  14.408
85531SOL     OW58431  14.023   7.478   4.249
85531SOL    HW158432  14.010   7.461   4.156
85531SOL    HW258433  14.101   7.429   4.273
85532SOL     OW58434  11.789   8.132   1.806
85532SOL    HW158435  11.810   8.182   1.885
85532SOL    HW258436  11.869   8.083   1.786
85533SOL     OW58437   0.419  14.303   0.579
85533SOL    HW158438   0.442  14.254   0.500
85533SOL    HW258439   0.448  14.393   0.561
85534SOL     OW58440  11.981   3.882  12.272
85534SOL    HW158441  11.930   3.828  12.212
85534SOL    HW258442  12.030   3.941  12.215
85535SOL     OW58443   1.425   7.066   5.343
85535SOL    HW158444   1.371   7.083   5.420
85535SOL    HW258445   1.463   6.979   5.360
85536SOL     OW58446  10.874   5.358  10.424
85536SOL    HW158447  10.869   5.416  10.501
85536SOL    HW258448  10.904   5.274  10.460
85537SOL     OW58449   4.479   9.575   8.813
85537SOL    HW158450   4.424   9.560   8.736
85537SOL    HW258451   4.436   9.645   8.861
85538SOL     OW58452  10.529   9.170   8.112
85538SOL    HW158453  10.477   9.249   8.100
85538SOL    HW258454  10.519   9.148   8.205
85539SOL     OW58455   3.346  14.372   3.728
85539SOL    HW158456   3.423  14.334   3.686
85539SOL    HW258457   3.372  14.386   3.819
85540SOL     OW58458  14.565   6.551   1.274
85540SOL    HW158459  14.656   6.523   1.266
85540SOL    HW258460  14.529   6.541   1.186
85541SOL     OW58461  14.182   8.749   4.314
85541SOL    HW158462  14.091   8.778   4.319
85541SOL    HW258463  14.192   8.715   4.225
85542SOL     OW58464   9.720   7.651   8.224
85542SOL    HW158465   9.765   7.606   8.295
85542SOL    HW258466   9.776   7.639   8.148
85543SOL     OW58467   6.378   3.576   5.456
85543SOL    HW158468   6.363   3.600   5.364
85543SOL    HW258469   6.443   3.506   5.452
85544SOL     OW58470  14.279   8.282   8.788
85544SOL    HW158471  14.329   8.208   8.753
85544SOL    HW258472  14.257   8.255   8.878
85545SOL     OW58473   8.049  14.080   9.721
85545SOL    HW158474   8.083  14.170   9.720
85545SOL    HW258475   8.125  14.026   9.742
85546SOL     OW58476  12.019   3.590  14.369
85546SOL    HW158477  12.058   3.507  14.395
85546SOL    HW258478  11.959   3.568  14.297
85547SOL     OW58479  14.739   0.745  14.528
85547SOL    HW158480  14.727   0.676  14.464
85547SOL    HW258481  14.834   0.748  14.543
85548SOL     OW58482   7.356  10.053   9.216
85548SOL    HW158483   7.439  10.097   9.198
85548SOL    HW258484   7.331  10.083   9.303
85549SOL     OW58485   5.648  11.629   2.931
85549SOL    HW158486   5.617  11.586   2.852
85549SOL    HW258487   5.569  11.643   2.983
85550SOL     OW58488   8.011   5.590  12.575
85550SOL    HW158489   8.055   5.565  12.493
85550SOL    HW258490   8.078   5.637  12.625
85551SOL     OW58491  14.834   4.575  12.909
85551SOL    HW158492  14.830   4.574  12.813
85551SOL    HW258493  14.743   4.590  12.936
85552SOL     OW58494   5.710   9.563   0.324
85552SOL    HW158495   5.655   9.509   0.267
85552SOL    HW258496   5.659   9.571   0.405
85553SOL     OW58497  11.248  14.681  10.138
85553SOL    HW158498  11.196  14.760  10.154
85553SOL    HW258499  11.330  14.696  10.186
85554SOL     OW58500   7.450   0.024  10.885
85554SOL    HW158501   7.437  14.813  10.859
85554SOL    HW258502   7.539   0.027  10.919
85555SOL     OW58503   0.599   7.944  13.348
85555SOL    HW158504   0.583   8.037  13.332
85555SOL    HW258505   0.651   7.916  13.273
85556SOL     OW58506   0.898   5.105  12.913
85556SOL    HW158507   0.954   5.032  12.939
85556SOL    HW258508   0.817   5.064  12.883
85557SOL     OW58509  14.616  13.597  10.105
85557SOL    HW158510  14.574  13.572  10.187
85557SOL    HW258511  14.547  13.592  10.039
85558SOL     OW58512   3.729   8.822   3.598
85558SOL    HW158513   3.822   8.842   3.604
85558SOL    HW258514   3.696   8.877   3.527
85559SOL     OW58515   5.651   0.978   9.624
85559SOL    HW158516   5.560   1.002   9.642
85559SOL    HW258517   5.698   1.001   9.704
85560SOL     OW58518   1.738  10.600   7.876
85560SOL    HW158519   1.740  10.539   7.803
85560SOL    HW258520   1.817  10.654   7.864
85561SOL     OW58521   3.601  10.847  10.133
85561SOL    HW158522   3.575  10.837  10.225
85561SOL    HW258523   3.530  10.898  10.094
85562SOL     OW58524   9.024   7.420  10.345
85562SOL    HW158525   9.120   7.426  10.341
85562SOL    HW258526   9.004   7.336  10.304
85563SOL     OW58527   3.663  12.662   5.497
85563SOL    HW158528   3.680  12.674   5.404
85563SOL    HW258529   3.568  12.652   5.504
85564SOL     OW58530   2.253   8.345   2.146
85564SOL    HW158531   2.166   8.306   2.152
85564SOL    HW258532   2.313   8.272   2.160
85565SOL     OW58533  14.113   0.954   6.138
85565SOL    HW158534  14.051   0.900   6.088
85565SOL    HW258535  14.181   0.977   6.076
85566SOL     OW58536   0.444   5.251   3.286
85566SOL    HW158537   0.361   5.237   3.333
85566SOL    HW258538   0.486   5.323   3.332
85567SOL     OW58539   8.039  12.037  10.044
85567SOL    HW158540   8.045  11.953   9.997
85567SOL    HW258541   8.070  12.017  10.133
85568SOL     OW58542   7.826  11.170   0.327
85568SOL    HW158543   7.827  11.206   0.239
85568SOL    HW258544   7.736  11.180   0.356
85569SOL     OW58545   4.858   6.275   3.668
85569SOL    HW158546   4.916   6.254   3.741
85569SOL    HW258547   4.901   6.348   3.623
85570SOL     OW58548  13.671  11.897   2.868
85570SOL    HW158549  13.577  11.911   2.859
85570SOL    HW258550  13.709  11.985   2.871
85571SOL     OW58551   0.576   3.337  11.549
85571SOL    HW158552   0.546   3.409  11.606
85571SOL    HW258553   0.547   3.363  11.462
85572SOL     OW58554   3.359   0.018   2.049
85572SOL    HW158555   3.439   0.055   2.012
85572SOL    HW258556   3.374  14.803   2.048
85573SOL     OW58557  10.276   5.134   4.191
85573SOL    HW158558  10.235   5.129   4.105
85573SOL    HW258559  10.315   5.221   4.195
85574SOL     OW58560  13.418   3.540   4.889
85574SOL    HW158561  13.510   3.531   4.862
85574SOL    HW258562  13.415   3.503   4.977
85575SOL     OW58563   8.516   5.653   8.505
85575SOL    HW158564   8.483   5.586   8.565
85575SOL    HW258565   8.591   5.613   8.462
85576SOL     OW58566   1.591  11.308   3.430
85576SOL    HW158567   1.671  11.280   3.473
85576SOL    HW258568   1.525  11.245   3.459
85577SOL     OW58569  13.936  12.863  10.448
85577SOL    HW158570  14.030  12.857  10.466
85577SOL    HW258571  13.896  12.798  10.506
85578SOL     OW58572   9.284   7.281  12.115
85578SOL    HW158573   9.373   7.300  12.147
85578SOL    HW258574   9.227   7.338  12.167
85579SOL     OW58575   8.774   2.390   8.310
85579SOL    HW158576   8.778   2.407   8.404
85579SOL    HW258577   8.705   2.448   8.278
85580SOL     OW58578   4.246  11.790   5.017
85580SOL    HW158579   4.338  11.771   4.998
85580SOL    HW258580   4.222  11.856   4.952
85581SOL     OW58581   8.010   3.635   8.327
85581SOL    HW158582   7.993   3.625   8.420
85581SOL    HW258583   8.018   3.729   8.314
85582SOL     OW58584   7.191   0.299   5.216
85582SOL    HW158585   7.235   0.345   5.289
85582SOL    HW258586   7.197   0.207   5.239
85583SOL     OW58587   9.480   4.962   0.587
85583SOL    HW158588   9.535   4.967   0.509
85583SOL    HW258589   9.542   4.967   0.660
85584SOL     OW58590  10.997  10.735  13.801
85584SOL    HW158591  11.053  10.809  13.778
85584SOL    HW258592  11.058  10.664  13.820
85585SOL     OW58593   6.079   0.123   6.270
85585SOL    HW158594   6.096   0.080   6.354
85585SOL    HW258595   6.108   0.060   6.204
85586SOL     OW58596   9.379  10.955   7.197
85586SOL    HW158597   9.358  10.862   7.199
85586SOL    HW258598   9.417  10.970   7.110
85587SOL     OW58599   3.636   2.831   2.398
85587SOL    HW158600   3.548   2.802   2.373
85587SOL    HW258601   3.671   2.757   2.449
85588SOL     OW58602   7.562   3.015  10.394
85588SOL    HW158603   7.567   2.959  10.316
85588SOL    HW258604   7.518   2.960  10.459
85589SOL     OW58605   1.723  11.059   2.738
85589SOL    HW158606   1.733  11.066   2.643
85589SOL    HW258607   1.649  11.000   2.751
85590SOL     OW58608  14.844  13.979   4.216
85590SOL    HW158609  14.852  14.015   4.128
85590SOL    HW258610  14.803  14.049   4.268
85591SOL     OW58611   9.202  10.152   7.250
85591SOL    HW158612   9.137  10.152   7.321
85591SOL    HW258613   9.263  10.082   7.273
85592SOL     OW58614  10.075   2.839   4.442
85592SOL    HW158615  10.116   2.824   4.528
85592SOL    HW258616  10.140   2.890   4.394
85593SOL     OW58617   4.998   1.033   6.889
85593SOL    HW158618   5.065   1.023   6.822
85593SOL    HW258619   5.040   1.004   6.970
85594SOL     OW58620   5.460   8.164   5.995
85594SOL    HW158621   5.366   8.180   5.987
85594SOL    HW258622   5.493   8.238   6.046
85595SOL     OW58623  11.167   9.245   8.099
85595SOL    HW158624  11.167   9.152   8.076
85595SOL    HW258625  11.164   9.246   8.194
85596SOL     OW58626   4.902  13.115   1.743
85596SOL    HW158627   4.832  13.177   1.721
85596SOL    HW258628   4.961  13.120   1.668
85597SOL     OW58629   9.053   7.801  14.719
85597SOL    HW158630   8.973   7.750  14.710
85597SOL    HW258631   9.112   7.765  14.652
85598SOL     OW58632   5.019   6.035   7.013
85598SOL    HW158633   4.934   6.012   6.976
85598SOL    HW258634   5.077   5.962   6.988
85599SOL     OW58635   1.857   5.269   5.400
85599SOL    HW158636   1.914   5.245   5.327
85599SOL    HW258637   1.904   5.239   5.478
85600SOL     OW58638  13.071   2.839   1.067
85600SOL    HW158639  12.980   2.867   1.058
85600SOL    HW258640  13.117   2.886   0.997
85601SOL     OW58641   4.224   1.106   3.427
85601SOL    HW158642   4.231   1.014   3.405
85601SOL    HW258643   4.131   1.120   3.444
85602SOL     OW58644   6.712  10.159   0.652
85602SOL    HW158645   6.697  10.137   0.560
85602SOL    HW258646   6.677  10.248   0.661
85603SOL     OW58647   9.863  10.638  12.031
85603SOL    HW158648   9.909  10.554  12.035
85603SOL    HW258649   9.917  10.697  12.082
85604SOL     OW58650  10.983   4.865   5.841
85604SOL    HW158651  11.050   4.845   5.906
85604SOL    HW258652  11.030   4.908   5.770
85605SOL     OW58653   5.266   4.011   9.537
85605SOL    HW158654   5.235   3.935   9.489
85605SOL    HW258655   5.361   4.010   9.525
85606SOL     OW58656  11.454   8.960   0.513
85606SOL    HW158657  11.440   9.046   0.552
85606SOL    HW258658  11.425   8.969   0.422
85607SOL     OW58659   0.794   2.537   0.597
85607SOL    HW158660   0.781   2.499   0.684
85607SOL    HW258661   0.715   2.588   0.581
85608SOL     OW58662   8.957   0.528   6.240
85608SOL    HW158663   8.968   0.527   6.336
85608SOL    HW258664   9.002   0.450   6.210
85609SOL     OW58665   3.671   8.098  10.751
85609SOL    HW158666   3.681   8.075  10.843
85609SOL    HW258667   3.663   8.014  10.706
85610SOL     OW58668  11.689   9.778   7.576
85610SOL    HW158669  11.680   9.864   7.535
85610SOL    HW258670  11.632   9.782   7.653
85611SOL     OW58671   1.076   6.771   4.119
85611SOL    HW158672   1.131   6.710   4.071
85611SOL    HW258673   1.045   6.833   4.053
85612SOL     OW58674   0.526   7.154   3.429
85612SOL    HW158675   0.541   7.075   3.481
85612SOL    HW258676   0.440   7.184   3.456
85613SOL     OW58677  11.020   8.739   5.791
85613SOL    HW158678  11.020   8.652   5.832
85613SOL    HW258679  10.930   8.770   5.799
85614SOL     OW58680   2.226  10.766   2.612
85614SOL    HW158681   2.259  10.837   2.666
85614SOL    HW258682   2.304  10.724   2.577
85615SOL     OW58683   1.319  11.413   6.536
85615SOL    HW158684   1.259  11.439   6.467
85615SOL    HW258685   1.279  11.335   6.574
85616SOL     OW58686   3.866  11.578   0.971
85616SOL    HW158687   3.846  11.558   0.879
85616SOL    HW258688   3.820  11.660   0.988
85617SOL     OW58689  14.059   7.731  10.532
85617SOL    HW158690  13.999   7.748  10.460
85617SOL    HW258691  14.094   7.644  10.514
85618SOL     OW58692   5.215   1.057   6.707
85618SOL    HW158693   5.308   1.067   6.684
85618SOL    HW258694   5.198   0.963   6.700
85619SOL     OW58695   7.507   7.033   3.147
85619SOL    HW158696   7.557   7.026   3.228
85619SOL    HW258697   7.572   7.048   3.079
85620SOL     OW58698   3.323   5.535   7.000
85620SOL    HW158699   3.319   5.439   6.999
85620SOL    HW258700   3.326   5.557   7.093
85621SOL     OW58701   2.726   9.052  11.045
85621SOL    HW158702   2.680   9.056  11.129
85621SOL    HW258703   2.677   9.112  10.988
85622SOL     OW58704   0.195   1.205  12.183
85622SOL    HW158705   0.261   1.234  12.246
85622SOL    HW258706   0.112   1.237  12.217
85623SOL     OW58707   6.435  10.559   0.478
85623SOL    HW158708   6.498  10.499   0.439
85623SOL    HW258709   6.386  10.504   0.540
85624SOL     OW58710   9.378   1.026   7.331
85624SOL    HW158711   9.374   1.113   7.371
85624SOL    HW258712   9.337   1.038   7.245
85625SOL     OW58713   3.738   1.884  14.649
85625SOL    HW158714   3.792   1.865  14.572
85625SOL    HW258715   3.796   1.932  14.708
85626SOL     OW58716  13.996   6.438   5.260
85626SOL    HW158717  13.989   6.344   5.271
85626SOL    HW258718  14.069   6.450   5.199
85627SOL     OW58719   8.017  10.578  12.476
85627SOL    HW158720   8.087  10.618  12.423
85627SOL    HW258721   7.967  10.652  12.510
85628SOL     OW58722  12.919  14.786  13.827
85628SOL    HW158723  12.832  14.797  13.789
85628SOL    HW258724  12.935  14.868  13.874
85629SOL     OW58725   6.322   9.784   9.658
85629SOL    HW158726   6.241   9.824   9.689
85629SOL    HW258727   6.294   9.723   9.590
85630SOL     OW58728  12.957   5.658   6.868
85630SOL    HW158729  12.981   5.747   6.892
85630SOL    HW258730  12.984   5.604   6.942
85631SOL     OW58731   1.011   7.233  14.584
85631SOL    HW158732   1.049   7.226  14.672
85631SOL    HW258733   1.015   7.144  14.549
85632SOL     OW58734  14.573   1.708  14.216
85632SOL    HW158735  14.508   1.664  14.161
85632SOL    HW258736  14.521   1.761  14.277
85633SOL     OW58737   8.802   2.563  14.437
85633SOL    HW158738   8.782   2.583  14.528
85633SOL    HW258739   8.730   2.507  14.409
85634SOL     OW58740  12.632   2.835   5.503
85634SOL    HW158741  12.632   2.802   5.413
85634SOL    HW258742  12.572   2.776   5.550
85635SOL     OW58743  11.333   3.703  13.053
85635SOL    HW158744  11.268   3.720  13.121
85635SOL    HW258745  11.417   3.699  13.100
85636SOL     OW58746  10.760   4.830   7.400
85636SOL    HW158747  10.843   4.782   7.409
85636SOL    HW258748  10.693   4.762   7.407
85637SOL     OW58749   5.294   8.182   9.254
85637SOL    HW158750   5.371   8.197   9.307
85637SOL    HW258751   5.222   8.178   9.317
85638SOL     OW58752  12.302  12.412  14.528
85638SOL    HW158753  12.390  12.374  14.534
85638SOL    HW258754  12.256  12.358  14.464
85639SOL     OW58755   9.392   1.233  13.056
85639SOL    HW158756   9.331   1.299  13.089
85639SOL    HW258757   9.336   1.163  13.023
85640SOL     OW58758   8.069  14.615   1.202
85640SOL    HW158759   8.014  14.683   1.241
85640SOL    HW258760   8.009  14.566   1.145
85641SOL     OW58761   4.269  11.288   2.885
85641SOL    HW158762   4.179  11.300   2.914
85641SOL    HW258763   4.320  11.283   2.966
85642SOL     OW58764   5.027   7.761   1.228
85642SOL    HW158765   4.965   7.723   1.290
85642SOL    HW258766   5.092   7.804   1.283
85643SOL     OW58767  11.047   2.086   1.209
85643SOL    HW158768  11.099   2.053   1.282
85643SOL    HW258769  11.065   2.025   1.137
85644SOL     OW58770  11.775   9.055   6.500
85644SOL    HW158771  11.833   9.005   6.557
85644SOL    HW258772  11.801   9.030   6.411
85645SOL     OW58773  10.555   4.224  11.857
85645SOL    HW158774  10.487   4.162  11.828
85645SOL    HW258775  10.634   4.197  11.810
85646SOL     OW58776   7.242   1.583   5.459
85646SOL    HW158777   7.302   1.515   5.428
85646SOL    HW258778   7.256   1.657   5.399
85647SOL     OW58779  13.700   1.666   2.200
85647SOL    HW158780  13.666   1.615   2.274
85647SOL    HW258781  13.630   1.727   2.179
85648SOL     OW58782  10.265  11.910   9.989
85648SOL    HW158783  10.272  11.837  10.051
85648SOL    HW258784  10.322  11.978  10.025
85649SOL     OW58785  11.160   1.435  10.430
85649SOL    HW158786  11.137   1.501  10.364
85649SOL    HW258787  11.237   1.391  10.394
85650SOL     OW58788  10.899   0.004  13.008
85650SOL    HW158789  10.977  14.833  12.987
85650SOL    HW258790  10.829  14.840  12.960
85651SOL     OW58791  12.965   0.388   0.097
85651SOL    HW158792  13.037   0.373   0.158
85651SOL    HW258793  12.939   0.300   0.069
85652SOL     OW58794   5.269  14.074   3.926
85652SOL    HW158795   5.191  14.124   3.947
85652SOL    HW258796   5.341  14.126   3.961
85653SOL     OW58797  13.719   9.599   2.479
85653SOL    HW158798  13.792   9.625   2.424
85653SOL    HW258799  13.651   9.571   2.418
85654SOL     OW58800   1.884   4.902   3.003
85654SOL    HW158801   1.961   4.860   2.966
85654SOL    HW258802   1.816   4.891   2.937
85655SOL     OW58803   7.069   1.542   6.958
85655SOL    HW158804   7.065   1.475   6.890
85655SOL    HW258805   6.999   1.520   7.019
85656SOL     OW58806   4.812   5.257   3.138
85656SOL    HW158807   4.722   5.223   3.143
85656SOL    HW258808   4.866   5.183   3.166
85657SOL     OW58809   0.643   0.810  10.266
85657SOL    HW158810   0.692   0.879  10.222
85657SOL    HW258811   0.552   0.827  10.241
85658SOL     OW58812   3.097   5.140  12.733
85658SOL    HW158813   3.050   5.076  12.680
85658SOL    HW258814   3.175   5.094  12.763
85659SOL     OW58815   2.686   6.337  12.061
85659SOL    HW158816   2.736   6.264  12.099
85659SOL    HW258817   2.724   6.415  12.102
85660SOL     OW58818   1.072   0.155   3.588
85660SOL    HW158819   1.055   0.102   3.510
85660SOL    HW258820   1.145   0.212   3.563
85661SOL     OW58821  14.041  11.430   3.454
85661SOL    HW158822  14.078  11.362   3.397
85661SOL    HW258823  14.001  11.492   3.393
85662SOL     OW58824   4.190   8.829  14.342
85662SOL    HW158825   4.278   8.842  14.377
85662SOL    HW258826   4.182   8.735  14.330
85663SOL     OW58827   1.939   2.224   6.458
85663SOL    HW158828   1.871   2.271   6.507
85663SOL    HW258829   1.924   2.132   6.478
85664SOL     OW58830   7.766   5.764   5.975
85664SOL    HW158831   7.856   5.774   5.944
85664SOL    HW258832   7.772   5.776   6.070
85665SOL     OW58833   2.652   3.243   1.248
85665SOL    HW158834   2.641   3.237   1.154
85665SOL    HW258835   2.602   3.170   1.284
85666SOL     OW58836   0.410  13.896   2.796
85666SOL    HW158837   0.368  13.974   2.758
85666SOL    HW258838   0.353  13.824   2.772
85667SOL     OW58839  11.244   4.630   2.697
85667SOL    HW158840  11.278   4.620   2.786
85667SOL    HW258841  11.172   4.693   2.706
85668SOL     OW58842   6.842   7.161   5.685
85668SOL    HW158843   6.858   7.142   5.593
85668SOL    HW258844   6.817   7.254   5.686
85669SOL     OW58845   0.154   4.611   0.126
85669SOL    HW158846   0.249   4.601   0.135
85669SOL    HW258847   0.119   4.529   0.161
85670SOL     OW58848  10.188   6.503   3.122
85670SOL    HW158849  10.187   6.409   3.137
85670SOL    HW258850  10.233   6.539   3.199
85671SOL     OW58851  13.768   3.825   7.014
85671SOL    HW158852  13.790   3.890   6.947
85671SOL    HW258853  13.679   3.797   6.992
85672SOL     OW58854   5.837   8.402   0.173
85672SOL    HW158855   5.812   8.318   0.210
85672SOL    HW258856   5.755   8.447   0.154
85673SOL     OW58857  14.709   5.700  11.219
85673SOL    HW158858  14.803   5.705  11.237
85673SOL    HW258859  14.688   5.607  11.227
85674SOL     OW58860   1.027   6.034   9.692
85674SOL    HW158861   1.091   5.986   9.745
85674SOL    HW258862   1.060   6.123   9.689
85675SOL     OW58863   6.746   8.733  11.164
85675SOL    HW158864   6.673   8.675  11.142
85675SOL    HW258865   6.809   8.676  11.210
85676SOL     OW58866   7.002   7.801   5.694
85676SOL    HW158867   6.975   7.860   5.623
85676SOL    HW258868   7.090   7.831   5.717
85677SOL     OW58869   9.121   4.889  13.499
85677SOL    HW158870   9.030   4.867  13.481
85677SOL    HW258871   9.117   4.968  13.552
85678SOL     OW58872   2.039  12.697  13.149
85678SOL    HW158873   2.076  12.744  13.075
85678SOL    HW258874   2.040  12.761  13.221
85679SOL     OW58875  14.188   3.860  12.650
85679SOL    HW158876  14.250   3.796  12.614
85679SOL    HW258877  14.171   3.920  12.577
85680SOL     OW58878   1.248  12.277   9.383
85680SOL    HW158879   1.309  12.315   9.447
85680SOL    HW258880   1.265  12.183   9.388
85681SOL     OW58881  14.436  14.513   4.240
85681SOL    HW158882  14.361  14.562   4.274
85681SOL    HW258883  14.489  14.577   4.194
85682SOL     OW58884   1.988  12.627   5.311
85682SOL    HW158885   2.007  12.711   5.269
85682SOL    HW258886   1.901  12.637   5.348
85683SOL     OW58887  13.654   0.522   6.966
85683SOL    HW158888  13.642   0.451   7.029
85683SOL    HW258889  13.709   0.484   6.897
85684SOL     OW58890   6.595   2.442   1.645
85684SOL    HW158891   6.609   2.426   1.552
85684SOL    HW258892   6.683   2.448   1.682
85685SOL     OW58893  10.308  11.853  13.093
85685SOL    HW158894  10.327  11.780  13.034
85685SOL    HW258895  10.391  11.869  13.139
85686SOL     OW58896   8.594   0.405   9.878
85686SOL    HW158897   8.671   0.385   9.932
85686SOL    HW258898   8.552   0.321   9.865
85687SOL     OW58899   8.503  13.465   4.997
85687SOL    HW158900   8.444  13.518   4.944
85687SOL    HW258901   8.462  13.378   4.998
85688SOL     OW58902  11.069  14.865   1.749
85688SOL    HW158903  11.025   0.013   1.668
85688SOL    HW258904  11.031  14.779   1.769
85689SOL     OW58905  13.510   2.641  13.572
85689SOL    HW158906  13.427   2.610  13.536
85689SOL    HW258907  13.573   2.628  13.501
85690SOL     OW58908  13.428   0.381   6.395
85690SOL    HW158909  13.467   0.306   6.350
85690SOL    HW258910  13.353   0.346   6.441
85691SOL     OW58911   5.711  11.773   7.453
85691SOL    HW158912   5.621  11.804   7.446
85691SOL    HW258913   5.763  11.852   7.467
85692SOL     OW58914  14.321   4.712   1.302
85692SOL    HW158915  14.266   4.639   1.276
85692SOL    HW258916  14.333   4.701   1.396
85693SOL     OW58917   6.229  13.865  12.791
85693SOL    HW158918   6.241  13.796  12.726
85693SOL    HW258919   6.217  13.945  12.740
85694SOL     OW58920   4.526   7.617   5.861
85694SOL    HW158921   4.500   7.695   5.810
85694SOL    HW258922   4.454   7.555   5.847
85695SOL     OW58923   2.415  11.345   7.582
85695SOL    HW158924   2.483  11.310   7.524
85695SOL    HW258925   2.336  11.345   7.528
85696SOL     OW58926   8.404  13.942  12.364
85696SOL    HW158927   8.450  13.888  12.428
85696SOL    HW258928   8.319  13.961  12.404
85697SOL     OW58929   8.487  10.883   6.352
85697SOL    HW158930   8.501  10.847   6.264
85697SOL    HW258931   8.491  10.978   6.340
85698SOL     OW58932   9.124  11.909  11.438
85698SOL    HW158933   9.180  11.841  11.401
85698SOL    HW258934   9.036  11.888  11.407
85699SOL     OW58935   1.942   4.172   9.058
85699SOL    HW158936   1.920   4.081   9.075
85699SOL    HW258937   1.931   4.216   9.142
85700SOL     OW58938   1.702  10.711   5.643
85700SOL    HW158939   1.646  10.737   5.570
85700SOL    HW258940   1.733  10.794   5.679
85701SOL     OW58941  12.602   2.848   0.387
85701SOL    HW158942  12.673   2.885   0.439
85701SOL    HW258943  12.608   2.891   0.302
85702SOL     OW58944   1.993  10.185   9.974
85702SOL    HW158945   2.060  10.149   9.916
85702SOL    HW258946   2.008  10.143  10.058
85703SOL     OW58947   1.584  14.822   5.302
85703SOL    HW158948   1.671  14.828   5.343
85703SOL    HW258949   1.523  14.815   5.375
85704SOL     OW58950   4.314  14.515  12.970
85704SOL    HW158951   4.277  14.552  12.890
85704SOL    HW258952   4.366  14.440  12.941
85705SOL     OW58953  13.960   2.040   3.634
85705SOL    HW158954  14.048   2.055   3.599
85705SOL    HW258955  13.902   2.079   3.570
85706SOL     OW58956  13.886  12.414   1.403
85706SOL    HW158957  13.889  12.400   1.308
85706SOL    HW258958  13.954  12.479   1.419
85707SOL     OW58959   7.244  13.432   8.168
85707SOL    HW158960   7.173  13.390   8.119
85707SOL    HW258961   7.318  13.435   8.107
85708SOL     OW58962   1.710   9.394   9.182
85708SOL    HW158963   1.673   9.359   9.263
85708SOL    HW258964   1.798   9.356   9.177
85709SOL     OW58965   0.502   1.004   3.959
85709SOL    HW158966   0.560   1.073   3.927
85709SOL    HW258967   0.557   0.926   3.966
85710SOL     OW58968  13.940   7.644   3.572
85710SOL    HW158969  14.014   7.700   3.550
85710SOL    HW258970  13.974   7.583   3.637
85711SOL     OW58971   2.267   9.771   0.011
85711SOL    HW158972   2.264   9.816  14.806
85711SOL    HW258973   2.273   9.679  14.868
85712SOL     OW58974   8.611   7.351   1.265
85712SOL    HW158975   8.641   7.296   1.192
85712SOL    HW258976   8.653   7.314   1.342
85713SOL     OW58977   4.001   2.363   5.435
85713SOL    HW158978   3.925   2.349   5.492
85713SOL    HW258979   4.053   2.429   5.480
85714SOL     OW58980   4.914  14.828   4.177
85714SOL    HW158981   4.918   0.034   4.220
85714SOL    HW258982   4.885  14.848   4.088
85715SOL     OW58983   9.877  14.768   3.851
85715SOL    HW158984   9.920  14.710   3.914
85715SOL    HW258985   9.843  14.840   3.904
85716SOL     OW58986   6.751   5.105   8.949
85716SOL    HW158987   6.719   5.159   9.022
85716SOL    HW258988   6.844   5.124   8.944
85717SOL     OW58989  10.805   0.304   1.427
85717SOL    HW158990  10.861   0.237   1.387
85717SOL    HW258991  10.716   0.275   1.407
85718SOL     OW58992   4.379   0.103   9.388
85718SOL    HW158993   4.303   0.160   9.390
85718SOL    HW258994   4.377   0.057   9.472
85719SOL     OW58995  11.232  12.065   7.275
85719SOL    HW158996  11.190  12.060   7.190
85719SOL    HW258997  11.285  12.145   7.270
85720SOL     OW58998  12.568   4.505   3.866
85720SOL    HW158999  12.654   4.545   3.850
85720SOL    HW259000  12.583   4.411   3.855
85721SOL     OW59001  11.175   3.936   9.077
85721SOL    HW159002  11.123   3.856   9.067
85721SOL    HW259003  11.266   3.905   9.079
85722SOL     OW59004   6.986   5.058  14.844
85722SOL    HW159005   6.899   5.087  14.815
85722SOL    HW259006   7.020   5.132   0.015
85723SOL     OW59007   6.598   8.376   7.943
85723SOL    HW159008   6.545   8.392   7.865
85723SOL    HW259009   6.631   8.462   7.968
85724SOL     OW59010   1.474  14.503  12.247
85724SOL    HW159011   1.443  14.537  12.163
85724SOL    HW259012   1.570  14.507  12.240
85725SOL     OW59013  12.433   5.112  12.504
85725SOL    HW159014  12.478   5.196  12.516
85725SOL    HW259015  12.373   5.107  12.579
85726SOL     OW59016  14.199   1.262   1.195
85726SOL    HW159017  14.109   1.231   1.185
85726SOL    HW259018  14.249   1.215   1.129
85727SOL     OW59019  10.901   7.526  12.930
85727SOL    HW159020  10.988   7.489  12.916
85727SOL    HW259021  10.860   7.528  12.844
85728SOL     OW59022   8.433  11.093   3.602
85728SOL    HW159023   8.411  11.115   3.511
85728SOL    HW259024   8.525  11.068   3.599
85729SOL     OW59025  12.314   0.325  10.325
85729SOL    HW159026  12.255   0.378  10.378
85729SOL    HW259027  12.263   0.247  10.302
85730SOL     OW59028   2.076   1.671  11.909
85730SOL    HW159029   2.019   1.670  11.833
85730SOL    HW259030   2.133   1.595  11.898
85731SOL     OW59031   9.062   5.016   7.392
85731SOL    HW159032   8.994   4.957   7.360
85731SOL    HW259033   9.063   5.088   7.329
85732SOL     OW59034   6.964   3.553  14.139
85732SOL    HW159035   6.888   3.544  14.197
85732SOL    HW259036   6.976   3.465  14.102
85733SOL     OW59037   2.383   6.985   3.724
85733SOL    HW159038   2.436   6.934   3.663
85733SOL    HW259039   2.366   7.067   3.679
85734SOL     OW59040  14.834   8.908   9.724
85734SOL    HW159041   0.015   8.979   9.747
85734SOL    HW259042   0.001   8.858   9.657
85735SOL     OW59043  10.196  10.472   2.531
85735SOL    HW159044  10.143  10.480   2.610
85735SOL    HW259045  10.278  10.516   2.552
85736SOL     OW59046  10.442  14.690   8.383
85736SOL    HW159047  10.350  14.663   8.377
85736SOL    HW259048  10.480  14.668   8.298
85737SOL     OW59049   0.603  12.895  13.467
85737SOL    HW159050   0.546  12.971  13.457
85737SOL    HW259051   0.650  12.910  13.548
85738SOL     OW59052   4.273   7.465  14.265
85738SOL    HW159053   4.361   7.471  14.303
85738SOL    HW259054   4.214   7.480  14.340
85739SOL     OW59055   0.584   7.873   3.341
85739SOL    HW159056   0.585   7.950   3.398
85739SOL    HW259057   0.614   7.906   3.257
85740SOL     OW59058  14.825  14.678   7.353
85740SOL    HW159059   0.018  14.616   7.354
85740SOL    HW259060  14.816  14.703   7.261
85741SOL     OW59061   0.167   1.432  11.396
85741SOL    HW159062   0.136   1.523  11.390
85741SOL    HW259063   0.137   1.391  11.315
85742SOL     OW59064  11.101   4.593   8.476
85742SOL    HW159065  11.012   4.592   8.439
85742SOL    HW259066  11.151   4.648   8.416
85743SOL     OW59067   7.840  10.304   1.374
85743SOL    HW159068   7.819  10.389   1.334
85743SOL    HW259069   7.773  10.245   1.339
85744SOL     OW59070   2.805   1.405  11.854
85744SOL    HW159071   2.817   1.500  11.858
85744SOL    HW259072   2.805   1.378  11.946
85745SOL     OW59073   3.099   0.468   6.092
85745SOL    HW159074   3.070   0.377   6.084
85745SOL    HW259075   3.102   0.501   6.002
85746SOL     OW59076   8.303   4.149   3.006
85746SOL    HW159077   8.354   4.145   3.087
85746SOL    HW259078   8.339   4.079   2.951
85747SOL     OW59079   3.024   4.558   0.443
85747SOL    HW159080   2.984   4.595   0.522
85747SOL    HW259081   2.955   4.560   0.377
85748SOL     OW59082   9.791  14.606  12.115
85748SOL    HW159083   9.764  14.685  12.067
85748SOL    HW259084   9.717  14.587  12.172
85749SOL     OW59085   7.674   2.898  13.052
85749SOL    HW159086   7.691   2.902  13.146
85749SOL    HW259087   7.744   2.950  13.012
85750SOL     OW59088   0.997   0.140  11.463
85750SOL    HW159089   1.017   0.047  11.447
85750SOL    HW259090   1.058   0.187  11.406
85751SOL     OW59091   9.528   8.576   0.628
85751SOL    HW159092   9.517   8.668   0.652
85751SOL    HW259093   9.566   8.578   0.540
85752SOL     OW59094  10.120  11.006   5.993
85752SOL    HW159095  10.028  10.989   5.971
85752SOL    HW259096  10.144  10.933   6.050
85753SOL     OW59097   6.848   6.001  12.817
85753SOL    HW159098   6.777   5.938  12.805
85753SOL    HW259099   6.914   5.976  12.752
85754SOL     OW59100   3.808  12.080  10.119
85754SOL    HW159101   3.903  12.082  10.127
85754SOL    HW259102   3.791  12.076  10.025
85755SOL     OW59103   3.096   0.138   9.234
85755SOL    HW159104   3.029   0.070   9.242
85755SOL    HW259105   3.052   0.219   9.261
85756SOL     OW59106   2.926   6.005  14.729
85756SOL    HW159107   2.899   5.986  14.639
85756SOL    HW259108   3.005   6.058  14.720
85757SOL     OW59109   5.515   9.085   2.816
85757SOL    HW159110   5.528   9.034   2.736
85757SOL    HW259111   5.522   9.176   2.787
85758SOL     OW59112   5.457   6.036  14.264
85758SOL    HW159113   5.538   5.990  14.240
85758SOL    HW259114   5.443   6.014  14.356
85759SOL     OW59115  11.496   8.654   7.494
85759SOL    HW159116  11.431   8.589   7.522
85759SOL    HW259117  11.576   8.603   7.482
85760SOL     OW59118   0.217   2.802   5.560
85760SOL    HW159119   0.125   2.805   5.533
85760SOL    HW259120   0.258   2.874   5.511
85761SOL     OW59121   1.369  13.769   4.409
85761SOL    HW159122   1.319  13.721   4.343
85761SOL    HW259123   1.461  13.756   4.384
85762SOL     OW59124   1.274   5.841   3.600
85762SOL    HW159125   1.273   5.761   3.651
85762SOL    HW259126   1.200   5.832   3.539
85763SOL     OW59127   0.690   4.553  10.736
85763SOL    HW159128   0.652   4.498  10.668
85763SOL    HW259129   0.734   4.624  10.688
85764SOL     OW59130   1.496  12.493  10.299
85764SOL    HW159131   1.582  12.534  10.297
85764SOL    HW259132   1.460  12.518  10.384
85765SOL     OW59133   5.419   3.607   7.457
85765SOL    HW159134   5.366   3.531   7.433
85765SOL    HW259135   5.454   3.639   7.374
85766SOL     OW59136   6.996   6.935  14.210
85766SOL    HW159137   7.037   6.868  14.155
85766SOL    HW259138   6.956   6.996  14.148
85767SOL     OW59139   6.977   5.949  12.129
85767SOL    HW159140   6.968   5.900  12.047
85767SOL    HW259141   6.891   5.988  12.143
85768SOL     OW59142   0.308  13.251  12.679
85768SOL    HW159143   0.331  13.166  12.642
85768SOL    HW259144   0.213  13.246  12.693
85769SOL     OW59145   0.389   5.886  11.642
85769SOL    HW159146   0.299   5.870  11.673
85769SOL    HW259147   0.385   5.870  11.548
85770SOL     OW59148  14.816  13.049   6.080
85770SOL    HW159149  14.801  13.100   6.159
85770SOL    HW259150   0.007  13.095   6.035
85771SOL     OW59151   3.691   7.682   2.663
85771SOL    HW159152   3.629   7.616   2.692
85771SOL    HW259153   3.723   7.722   2.744
85772SOL     OW59154   0.028   3.301   2.875
85772SOL    HW159155   0.115   3.305   2.837
85772SOL    HW259156   0.038   3.249   2.955
85773SOL     OW59157   5.976  14.856   9.960
85773SOL    HW159158   5.887  14.823   9.947
85773SOL    HW259159   5.983   0.052   9.901
85774SOL     OW59160  12.484  11.948   9.536
85774SOL    HW159161  12.484  11.883   9.465
85774SOL    HW259162  12.429  12.019   9.504
85775SOL     OW59163  10.938  10.045  12.800
85775SOL    HW159164  10.892  10.089  12.729
85775SOL    HW259165  11.024  10.023  12.764
85776SOL     OW59166   8.037   3.157  13.289
85776SOL    HW159167   7.985   3.192  13.361
85776SOL    HW259168   8.001   3.200  13.211
85777SOL     OW59169   6.767   7.153  12.520
85777SOL    HW159170   6.706   7.209  12.568
85777SOL    HW259171   6.765   7.185  12.431
85778SOL     OW59172   1.040  11.612   7.548
85778SOL    HW159173   1.023  11.521   7.573
85778SOL    HW259174   0.956  11.656   7.560
85779SOL     OW59175   8.506   3.692   2.360
85779SOL    HW159176   8.529   3.735   2.277
85779SOL    HW259177   8.411   3.691   2.361
85780SOL     OW59178   6.551   3.915   1.543
85780SOL    HW159179   6.482   3.900   1.478
85780SOL    HW259180   6.553   4.010   1.554
85781SOL     OW59181   0.912   1.790   2.056
85781SOL    HW159182   0.998   1.773   2.018
85781SOL    HW259183   0.854   1.728   2.013
85782SOL     OW59184  11.853   1.477  13.466
85782SOL    HW159185  11.823   1.386  13.470
85782SOL    HW259186  11.780   1.524  13.425
85783SOL     OW59187   3.279   4.385   6.382
85783SOL    HW159188   3.267   4.469   6.427
85783SOL    HW259189   3.296   4.409   6.291
85784SOL     OW59190  13.579   0.566   8.065
85784SOL    HW159191  13.604   0.533   7.979
85784SOL    HW259192  13.489   0.599   8.053
85785SOL     OW59193  10.824   1.242  14.375
85785SOL    HW159194  10.906   1.219  14.419
85785SOL    HW259195  10.782   1.158  14.358
85786SOL     OW59196   6.834   3.512   4.949
85786SOL    HW159197   6.910   3.520   5.007
85786SOL    HW259198   6.865   3.546   4.865
85787SOL     OW59199  13.033  14.373   1.387
85787SOL    HW159200  13.046  14.345   1.297
85787SOL    HW259201  13.013  14.466   1.381
85788SOL     OW59202   8.148   2.741   1.762
85788SOL    HW159203   8.185   2.745   1.850
85788SOL    HW259204   8.057   2.770   1.773
85789SOL     OW59205   7.103   0.348   3.965
85789SOL    HW159206   7.166   0.291   3.921
85789SOL    HW259207   7.056   0.392   3.894
85790SOL     OW59208   8.523   6.394   2.275
85790SOL    HW159209   8.558   6.406   2.187
85790SOL    HW259210   8.491   6.480   2.301
85791SOL     OW59211  14.450   5.886   0.280
85791SOL    HW159212  14.436   5.932   0.197
85791SOL    HW259213  14.479   5.799   0.254
85792SOL     OW59214   8.996  10.748   5.337
85792SOL    HW159215   9.044  10.679   5.291
85792SOL    HW259216   9.041  10.756   5.421
85793SOL     OW59217   1.243  11.314  10.389
85793SOL    HW159218   1.195  11.352  10.463
85793SOL    HW259219   1.194  11.235  10.366
85794SOL     OW59220  12.181   8.587   4.225
85794SOL    HW159221  12.093   8.550   4.218
85794SOL    HW259222  12.190   8.612   4.317
85795SOL     OW59223   3.797   9.802  12.498
85795SOL    HW159224   3.857   9.728  12.511
85795SOL    HW259225   3.841   9.858  12.434
85796SOL     OW59226   0.937   4.139   6.133
85796SOL    HW159227   0.850   4.138   6.173
85796SOL    HW259228   0.923   4.179   6.047
85797SOL     OW59229   1.548  12.890   0.903
85797SOL    HW159230   1.588  12.901   0.989
85797SOL    HW259231   1.458  12.919   0.915
85798SOL     OW59232   4.485  11.311   5.874
85798SOL    HW159233   4.416  11.333   5.811
85798SOL    HW259234   4.484  11.216   5.880
85799SOL     OW59235  12.939   5.157   3.366
85799SOL    HW159236  12.872   5.094   3.392
85799SOL    HW259237  12.935   5.157   3.270
85800SOL     OW59238  12.227   5.822   0.890
85800SOL    HW159239  12.225   5.898   0.833
85800SOL    HW259240  12.316   5.787   0.881
85801SOL     OW59241   7.932   2.080  12.245
85801SOL    HW159242   7.975   2.161  12.220
85801SOL    HW259243   7.947   2.072  12.339
85802SOL     OW59244   6.792   2.589   9.087
85802SOL    HW159245   6.784   2.631   9.001
85802SOL    HW259246   6.769   2.658   9.149
85803SOL     OW59247  13.826  14.753  12.641
85803SOL    HW159248  13.775  14.825  12.603
85803SOL    HW259249  13.878  14.794  12.710
85804SOL     OW59250  13.396   0.709   4.150
85804SOL    HW159251  13.313   0.734   4.191
85804SOL    HW259252  13.429   0.637   4.204
85805SOL     OW59253   4.007   0.279   6.347
85805SOL    HW159254   3.916   0.287   6.377
85805SOL    HW259255   4.032   0.190   6.371
85806SOL     OW59256   3.041   3.265   8.004
85806SOL    HW159257   3.030   3.329   7.934
85806SOL    HW259258   2.989   3.300   8.077
85807SOL     OW59259   7.792  10.028  13.324
85807SOL    HW159260   7.777  10.120  13.344
85807SOL    HW259261   7.803  10.026  13.228
85808SOL     OW59262   1.469   6.592   5.305
85808SOL    HW159263   1.543   6.542   5.339
85808SOL    HW259264   1.481   6.591   5.210
85809SOL     OW59265  11.307  11.691   0.200
85809SOL    HW159266  11.254  11.771   0.200
85809SOL    HW259267  11.323  11.671   0.292
85810SOL     OW59268   3.924   8.690   5.369
85810SOL    HW159269   3.890   8.604   5.348
85810SOL    HW259270   4.008   8.695   5.323
85811SOL     OW59271   9.495  12.406   4.777
85811SOL    HW159272   9.471  12.388   4.868
85811SOL    HW259273   9.421  12.375   4.725
85812SOL     OW59274   2.930   5.294   1.720
85812SOL    HW159275   3.003   5.244   1.683
85812SOL    HW259276   2.927   5.374   1.667
85813SOL     OW59277   3.045   6.178   1.049
85813SOL    HW159278   2.984   6.104   1.047
85813SOL    HW259279   3.090   6.170   1.133
85814SOL     OW59280   6.200  12.084  13.528
85814SOL    HW159281   6.115  12.080  13.572
85814SOL    HW259282   6.185  12.041  13.444
85815SOL     OW59283   2.373   9.977   4.552
85815SOL    HW159284   2.397   9.908   4.614
85815SOL    HW259285   2.437  10.047   4.570
85816SOL     OW59286   7.223   6.787  12.548
85816SOL    HW159287   7.172   6.785  12.467
85816SOL    HW259288   7.235   6.881  12.567
85817SOL     OW59289  11.875  12.822  10.135
85817SOL    HW159290  11.901  12.836  10.043
85817SOL    HW259291  11.840  12.733  10.136
85818SOL     OW59292   9.354  12.314  11.578
85818SOL    HW159293   9.383  12.234  11.534
85818SOL    HW259294   9.402  12.314  11.661
85819SOL     OW59295  11.454   8.751   5.669
85819SOL    HW159296  11.464   8.844   5.685
85819SOL    HW259297  11.542   8.715   5.676
85820SOL     OW59298  13.397  13.180   0.603
85820SOL    HW159299  13.424  13.172   0.694
85820SOL    HW259300  13.421  13.269   0.578
85821SOL     OW59301  13.926   4.013  11.595
85821SOL    HW159302  13.850   3.960  11.569
85821SOL    HW259303  13.890   4.082  11.650
85822SOL     OW59304  11.967  13.481   6.996
85822SOL    HW159305  11.984  13.448   6.908
85822SOL    HW259306  12.008  13.416   7.054
85823SOL     OW59307   5.764   3.914  13.912
85823SOL    HW159308   5.710   3.984  13.876
85823SOL    HW259309   5.833   3.959  13.961
85824SOL     OW59310   3.731  11.426   6.349
85824SOL    HW159311   3.820  11.404   6.376
85824SOL    HW259312   3.674  11.381   6.412
85825SOL     OW59313   9.752   5.697   4.646
85825SOL    HW159314   9.756   5.623   4.586
85825SOL    HW259315   9.824   5.682   4.708
85826SOL     OW59316   0.748  12.848  13.964
85826SOL    HW159317   0.839  12.877  13.962
85826SOL    HW259318   0.752  12.757  13.991
85827SOL     OW59319   4.066   6.732   9.287
85827SOL    HW159320   4.136   6.668   9.299
85827SOL    HW259321   4.081   6.797   9.356
85828SOL     OW59322   7.121  12.861  11.575
85828SOL    HW159323   7.142  12.812  11.654
85828SOL    HW259324   7.041  12.820  11.541
85829SOL     OW59325  11.682   4.757   7.321
85829SOL    HW159326  11.748   4.824   7.304
85829SOL    HW259327  11.711   4.715   7.402
85830SOL     OW59328  12.010   6.103   4.436
85830SOL    HW159329  11.962   6.131   4.514
85830SOL    HW259330  12.009   6.180   4.379
85831SOL     OW59331   5.572  14.619   0.302
85831SOL    HW159332   5.550  14.710   0.282
85831SOL    HW259333   5.622  14.589   0.227
85832SOL     OW59334   6.810  13.428   5.225
85832SOL    HW159335   6.745  13.452   5.291
85832SOL    HW259336   6.786  13.480   5.149
85833SOL     OW59337   8.349   6.313   5.602
85833SOL    HW159338   8.437   6.308   5.640
85833SOL    HW259339   8.291   6.322   5.677
85834SOL     OW59340   7.678   9.874  12.020
85834SOL    HW159341   7.734   9.797  12.010
85834SOL    HW259342   7.667   9.907  11.931
85835SOL     OW59343  12.163   9.706   2.986
85835SOL    HW159344  12.238   9.721   3.044
85835SOL    HW259345  12.086   9.724   3.040
85836SOL     OW59346   8.805   9.763   2.363
85836SOL    HW159347   8.728   9.789   2.312
85836SOL    HW259348   8.780   9.780   2.454
85837SOL     OW59349  13.798   7.214   9.463
85837SOL    HW159350  13.797   7.122   9.435
85837SOL    HW259351  13.708   7.244   9.447
85838SOL     OW59352   8.241   6.089  13.442
85838SOL    HW159353   8.257   6.180  13.415
85838SOL    HW259354   8.147   6.076  13.428
85839SOL     OW59355   2.841  14.099  13.939
85839SOL    HW159356   2.859  14.010  13.971
85839SOL    HW259357   2.752  14.095  13.905
85840SOL     OW59358  11.325   8.125  12.355
85840SOL    HW159359  11.368   8.097  12.435
85840SOL    HW259360  11.350   8.058  12.290
85841SOL     OW59361   4.722   3.740   0.156
85841SOL    HW159362   4.634   3.713   0.131
85841SOL    HW259363   4.711   3.826   0.196
85842SOL     OW59364   5.149   3.730  13.093
85842SOL    HW159365   5.090   3.699  13.024
85842SOL    HW259366   5.115   3.816  13.117
85843SOL     OW59367   3.818   3.647   7.505
85843SOL    HW159368   3.766   3.709   7.453
85843SOL    HW259369   3.793   3.665   7.596
85844SOL     OW59370  12.301   3.391   6.184
85844SOL    HW159371  12.367   3.321   6.177
85844SOL    HW259372  12.325   3.439   6.263
85845SOL     OW59373   0.541  13.141   2.191
85845SOL    HW159374   0.553  13.054   2.152
85845SOL    HW259375   0.473  13.182   2.139
85846SOL     OW59376   8.986   8.817   9.314
85846SOL    HW159377   8.900   8.826   9.355
85846SOL    HW259378   8.994   8.894   9.258
85847SOL     OW59379   3.210   3.162  11.930
85847SOL    HW159380   3.237   3.243  11.887
85847SOL    HW259381   3.290   3.110  11.935
85848SOL     OW59382  10.077   5.687  12.245
85848SOL    HW159383  10.023   5.753  12.289
85848SOL    HW259384  10.163   5.728  12.237
85849SOL     OW59385   4.075   4.325  11.456
85849SOL    HW159386   4.167   4.335  11.480
85849SOL    HW259387   4.049   4.241  11.495
85850SOL     OW59388  11.802   5.827   3.223
85850SOL    HW159389  11.879   5.787   3.262
85850SOL    HW259390  11.730   5.769   3.248
85851SOL     OW59391   2.395   9.255   7.186
85851SOL    HW159392   2.465   9.190   7.180
85851SOL    HW259393   2.372   9.257   7.279
85852SOL     OW59394  13.823   9.351   4.405
85852SOL    HW159395  13.765   9.309   4.468
85852SOL    HW259396  13.806   9.445   4.416
85853SOL     OW59397   6.598   1.889   4.726
85853SOL    HW159398   6.515   1.841   4.729
85853SOL    HW259399   6.664   1.823   4.745
85854SOL     OW59400  13.232   9.722   8.003
85854SOL    HW159401  13.316   9.719   7.956
85854SOL    HW259402  13.188   9.799   7.969
85855SOL     OW59403  13.481  11.442  12.376
85855SOL    HW159404  13.398  11.409  12.344
85855SOL    HW259405  13.541  11.435  12.301
85856SOL     OW59406   4.090  14.861  13.933
85856SOL    HW159407   4.106   0.070  13.963
85856SOL    HW259408   4.033  14.823  14.000
85857SOL     OW59409  13.223   2.912  10.383
85857SOL    HW159410  13.135   2.947  10.370
85857SOL    HW259411  13.229   2.896  10.477
85858SOL     OW59412  10.087  14.155  13.502
85858SOL    HW159413  10.056  14.082  13.557
85858SOL    HW259414  10.010  14.210  13.490
85859SOL     OW59415   3.887   4.958   9.607
85859SOL    HW159416   3.896   5.009   9.688
85859SOL    HW259417   3.800   4.982   9.573
85860SOL     OW59418  14.501   3.250   1.479
85860SOL    HW159419  14.426   3.208   1.438
85860SOL    HW259420  14.557   3.275   1.406
85861SOL     OW59421  12.611  14.093   1.706
85861SOL    HW159422  12.616  14.185   1.681
85861SOL    HW259423  12.698  14.073   1.740
85862SOL     OW59424  13.090   6.194  10.895
85862SOL    HW159425  13.064   6.256  10.826
85862SOL    HW259426  13.180   6.218  10.915
85863SOL     OW59427  10.602   8.399   0.132
85863SOL    HW159428  10.625   8.389   0.040
85863SOL    HW259429  10.624   8.315   0.172
85864SOL     OW59430   6.495   8.610  11.099
85864SOL    HW159431   6.464   8.632  11.187
85864SOL    HW259432   6.418   8.622  11.043
85865SOL     OW59433   6.902   3.675   1.073
85865SOL    HW159434   6.988   3.716   1.066
85865SOL    HW259435   6.863   3.688   0.987
85866SOL     OW59436  13.066  11.265   6.514
85866SOL    HW159437  13.135  11.202   6.534
85866SOL    HW259438  13.094  11.346   6.558
85867SOL     OW59439   0.621   3.243   8.619
85867SOL    HW159440   0.613   3.242   8.714
85867SOL    HW259441   0.711   3.270   8.603
85868SOL     OW59442   7.005  11.987  12.923
85868SOL    HW159443   7.054  12.067  12.903
85868SOL    HW259444   6.948  12.011  12.996
85869SOL     OW59445   2.248  12.821  14.503
85869SOL    HW159446   2.299  12.896  14.475
85869SOL    HW259447   2.165  12.830  14.456
85870SOL     OW59448  13.157   2.341   0.698
85870SOL    HW159449  13.163   2.272   0.632
85870SOL    HW259450  13.214   2.411   0.664
85871SOL     OW59451   0.561  10.991   0.871
85871SOL    HW159452   0.529  10.921   0.814
85871SOL    HW259453   0.530  11.071   0.829
85872SOL     OW59454  10.312  12.464  12.893
85872SOL    HW159455  10.320  12.370  12.911
85872SOL    HW259456  10.238  12.493  12.946
85873SOL     OW59457  13.577   0.517   7.282
85873SOL    HW159458  13.537   0.475   7.206
85873SOL    HW259459  13.545   0.467   7.357
85874SOL     OW59460   4.859  13.470   1.809
85874SOL    HW159461   4.900  13.424   1.882
85874SOL    HW259462   4.791  13.410   1.778
85875SOL     OW59463   3.046  13.986   1.050
85875SOL    HW159464   3.141  13.978   1.047
85875SOL    HW259465   3.025  13.990   1.144
85876SOL     OW59466  12.589  13.665   4.227
85876SOL    HW159467  12.575  13.667   4.133
85876SOL    HW259468  12.514  13.616   4.262
85877SOL     OW59469   4.695   5.758   2.206
85877SOL    HW159470   4.648   5.752   2.289
85877SOL    HW259471   4.674   5.677   2.160
85878SOL     OW59472   5.292  14.117  12.941
85878SOL    HW159473   5.322  14.046  12.884
85878SOL    HW259474   5.338  14.102  13.024
85879SOL     OW59475   0.637   1.051  14.318
85879SOL    HW159476   0.549   1.077  14.291
85879SOL    HW259477   0.639   0.957  14.306
85880SOL     OW59478   8.565   0.016  12.776
85880SOL    HW159479   8.507  14.821  12.795
85880SOL    HW259480   8.642   0.001  12.830
85881SOL     OW59481  13.219  11.540   3.834
85881SOL    HW159482  13.189  11.455   3.804
85881SOL    HW259483  13.282  11.568   3.768
85882SOL     OW59484   3.902   4.505   6.061
85882SOL    HW159485   3.984   4.489   6.107
85882SOL    HW259486   3.895   4.600   6.058
85883SOL     OW59487   2.634   4.510   1.168
85883SOL    HW159488   2.566   4.503   1.102
85883SOL    HW259489   2.714   4.526   1.119
85884SOL     OW59490   0.296   7.240  10.362
85884SOL    HW159491   0.355   7.211  10.431
85884SOL    HW259492   0.340   7.217  10.281
85885SOL     OW59493  11.369   9.935  10.321
85885SOL    HW159494  11.348   9.890  10.239
85885SOL    HW259495  11.409   9.868  10.376
85886SOL     OW59496   4.253   6.470  13.885
85886SOL    HW159497   4.177   6.443  13.937
85886SOL    HW259498   4.293   6.388  13.857
85887SOL     OW59499  14.716   0.276   9.065
85887SOL    HW159500  14.691   0.367   9.084
85887SOL    HW259501  14.674   0.258   8.980
85888SOL     OW59502   2.300   1.992   2.339
85888SOL    HW159503   2.206   1.978   2.350
85888SOL    HW259504   2.326   1.926   2.275
85889SOL     OW59505   9.508  13.130   1.719
85889SOL    HW159506   9.413  13.114   1.723
85889SOL    HW259507   9.546  13.042   1.711
85890SOL     OW59508  13.785   3.703  13.365
85890SOL    HW159509  13.862   3.745  13.328
85890SOL    HW259510  13.769   3.750  13.447
85891SOL     OW59511  11.098   9.874  13.339
85891SOL    HW159512  11.169   9.813  13.358
85891SOL    HW259513  11.027   9.818  13.306
85892SOL     OW59514  14.312   9.390  14.015
85892SOL    HW159515  14.301   9.466  14.072
85892SOL    HW259516  14.353   9.324  14.070
85893SOL     OW59517   0.810  12.599   7.513
85893SOL    HW159518   0.857  12.627   7.592
85893SOL    HW259519   0.870  12.539   7.470
85894SOL     OW59520   5.569   3.180   2.031
85894SOL    HW159521   5.516   3.109   1.997
85894SOL    HW259522   5.518   3.259   2.013
85895SOL     OW59523   3.003   5.446  13.689
85895SOL    HW159524   2.919   5.441  13.735
85895SOL    HW259525   3.011   5.537  13.663
85896SOL     OW59526   1.421  11.977   9.874
85896SOL    HW159527   1.386  11.901   9.918
85896SOL    HW259528   1.352  12.043   9.881
85897SOL     OW59529  10.059   9.208   1.987
85897SOL    HW159530   9.984   9.266   1.986
85897SOL    HW259531  10.086   9.201   1.896
85898SOL     OW59532  14.288   7.972  12.119
85898SOL    HW159533  14.258   7.978  12.028
85898SOL    HW259534  14.217   8.011  12.170
85899SOL     OW59535   2.396  13.512   5.276
85899SOL    HW159536   2.471  13.522   5.217
85899SOL    HW259537   2.359  13.426   5.253
85900SOL     OW59538   3.279   6.125  12.209
85900SOL    HW159539   3.222   6.048  12.199
85900SOL    HW259540   3.321   6.135  12.124
85901SOL     OW59541  10.695   6.483   8.907
85901SOL    HW159542  10.678   6.449   8.995
85901SOL    HW259543  10.611   6.519   8.878
85902SOL     OW59544   7.957   0.665  12.527
85902SOL    HW159545   8.031   0.725  12.543
85902SOL    HW259546   7.913   0.659  12.611
85903SOL     OW59547   7.576   7.373   4.429
85903SOL    HW159548   7.607   7.437   4.365
85903SOL    HW259549   7.649   7.362   4.490
85904SOL     OW59550   5.123   0.752   8.522
85904SOL    HW159551   5.147   0.672   8.568
85904SOL    HW259552   5.080   0.806   8.589
85905SOL     OW59553   8.736  14.534   9.843
85905SOL    HW159554   8.672  14.524   9.914
85905SOL    HW259555   8.809  14.478   9.869
85906SOL     OW59556  13.110  11.172   2.044
85906SOL    HW159557  13.189  11.204   2.087
85906SOL    HW259558  13.108  11.078   2.064
85907SOL     OW59559  13.500   4.787   3.134
85907SOL    HW159560  13.527   4.820   3.220
85907SOL    HW259561  13.477   4.866   3.085
85908SOL     OW59562   4.587   9.736   6.951
85908SOL    HW159563   4.567   9.654   6.906
85908SOL    HW259564   4.682   9.745   6.941
85909SOL     OW59565   4.382   4.063  11.496
85909SOL    HW159566   4.349   4.027  11.414
85909SOL    HW259567   4.440   3.996  11.530
85910SOL     OW59568   4.207   7.247   0.801
85910SOL    HW159569   4.297   7.216   0.794
85910SOL    HW259570   4.153   7.169   0.782
85911SOL     OW59571  12.292  12.498  12.747
85911SOL    HW159572  12.250  12.522  12.664
85911SOL    HW259573  12.362  12.438  12.723
85912SOL     OW59574   6.285   9.339  14.715
85912SOL    HW159575   6.293   9.298  14.801
85912SOL    HW259576   6.225   9.412  14.728
85913SOL     OW59577  14.274   9.166  12.672
85913SOL    HW159578  14.225   9.135  12.596
85913SOL    HW259579  14.356   9.117  12.669
85914SOL     OW59580  10.099   2.188   2.148
85914SOL    HW159581  10.005   2.197   2.129
85914SOL    HW259582  10.130   2.278   2.157
85915SOL     OW59583   6.821  13.538   4.415
85915SOL    HW159584   6.783  13.472   4.472
85915SOL    HW259585   6.754  13.552   4.348
85916SOL     OW59586   9.846  11.979  11.770
85916SOL    HW159587   9.892  11.962  11.688
85916SOL    HW259588   9.766  11.927  11.764
85917SOL     OW59589  10.551  12.895   3.578
85917SOL    HW159590  10.630  12.905   3.630
85917SOL    HW259591  10.483  12.873   3.641
85918SOL     OW59592  12.862   9.751   2.779
85918SOL    HW159593  12.911   9.830   2.756
85918SOL    HW259594  12.772   9.780   2.789
85919SOL     OW59595  10.835   7.086  10.009
85919SOL    HW159596  10.758   7.134   9.980
85919SOL    HW259597  10.906   7.120   9.954
85920SOL     OW59598  14.701  13.210   7.049
85920SOL    HW159599  14.618  13.225   7.005
85920SOL    HW259600  14.688  13.128   7.097
85921SOL     OW59601  11.486   5.598  11.797
85921SOL    HW159602  11.490   5.635  11.885
85921SOL    HW259603  11.503   5.672  11.739
85922SOL     OW59604  14.002   3.702   0.883
85922SOL    HW159605  13.995   3.784   0.932
85922SOL    HW259606  13.962   3.722   0.798
85923SOL     OW59607   4.600   2.916   7.819
85923SOL    HW159608   4.647   2.986   7.774
85923SOL    HW259609   4.575   2.953   7.903
85924SOL     OW59610  12.064  10.676  10.154
85924SOL    HW159611  12.126  10.697  10.225
85924SOL    HW259612  12.115  10.621  10.094
85925SOL     OW59613   4.236   6.076   4.242
85925SOL    HW159614   4.180   6.007   4.278
85925SOL    HW259615   4.324   6.039   4.244
85926SOL     OW59616   5.753   7.155   1.812
85926SOL    HW159617   5.725   7.133   1.723
85926SOL    HW259618   5.836   7.109   1.822
85927SOL     OW59619   0.852  12.120  12.723
85927SOL    HW159620   0.937  12.083  12.696
85927SOL    HW259621   0.874  12.200  12.770
85928SOL     OW59622   4.263   3.914   8.098
85928SOL    HW159623   4.309   3.830   8.106
85928SOL    HW259624   4.322   3.969   8.046
85929SOL     OW59625  10.635   6.105   5.968
85929SOL    HW159626  10.652   6.195   5.996
85929SOL    HW259627  10.595   6.063   6.044
85930SOL     OW59628   3.851   1.926   0.656
85930SOL    HW159629   3.819   1.843   0.620
85930SOL    HW259630   3.775   1.984   0.654
85931SOL     OW59631   1.316   5.464   5.354
85931SOL    HW159632   1.337   5.557   5.348
85931SOL    HW259633   1.398   5.422   5.381
85932SOL     OW59634  13.674   1.777   7.483
85932SOL    HW159635  13.734   1.796   7.411
85932SOL    HW259636  13.674   1.681   7.491
85933SOL     OW59637  13.181  10.111   6.537
85933SOL    HW159638  13.146  10.192   6.501
85933SOL    HW259639  13.266  10.135   6.575
85934SOL     OW59640  12.530   4.070   1.994
85934SOL    HW159641  12.519   4.010   2.067
85934SOL    HW259642  12.480   4.147   2.018
85935SOL     OW59643  12.116   3.459   6.661
85935SOL    HW159644  12.113   3.447   6.756
85935SOL    HW259645  12.024   3.470   6.635
85936SOL     OW59646   6.666   8.605   5.051
85936SOL    HW159647   6.684   8.679   5.110
85936SOL    HW259648   6.573   8.587   5.064
85937SOL     OW59649   7.577   9.302   9.485
85937SOL    HW159650   7.560   9.235   9.419
85937SOL    HW259651   7.647   9.355   9.448
85938SOL     OW59652   0.372   1.322  11.582
85938SOL    HW159653   0.395   1.317  11.675
85938SOL    HW259654   0.303   1.388  11.579
85939SOL     OW59655   8.521   7.287  13.994
85939SOL    HW159656   8.528   7.383  13.994
85939SOL    HW259657   8.428   7.269  13.981
85940SOL     OW59658  11.365   9.687   2.441
85940SOL    HW159659  11.391   9.597   2.462
85940SOL    HW259660  11.323   9.719   2.520
85941SOL     OW59661   7.127  13.928   5.023
85941SOL    HW159662   7.213  13.893   5.047
85941SOL    HW259663   7.078  13.851   4.994
85942SOL     OW59664   9.454  12.484  10.467
85942SOL    HW159665   9.399  12.428  10.412
85942SOL    HW259666   9.542  12.447  10.461
85943SOL     OW59667   3.949   3.136  11.694
85943SOL    HW159668   3.872   3.098  11.652
85943SOL    HW259669   3.923   3.224  11.719
85944SOL     OW59670   5.115  10.814   0.777
85944SOL    HW159671   5.028  10.820   0.736
85944SOL    HW259672   5.170  10.774   0.710
85945SOL     OW59673  12.392   8.017   5.328
85945SOL    HW159674  12.357   8.024   5.239
85945SOL    HW259675  12.455   7.945   5.324
85946SOL     OW59676  12.299   0.069  11.153
85946SOL    HW159677  12.238   0.136  11.120
85946SOL    HW259678  12.376   0.118  11.180
85947SOL     OW59679   7.565  12.407   1.240
85947SOL    HW159680   7.606  12.423   1.156
85947SOL    HW259681   7.598  12.321   1.267
85948SOL     OW59682   8.644  10.088   2.135
85948SOL    HW159683   8.676  10.178   2.128
85948SOL    HW259684   8.663  10.063   2.225
85949SOL     OW59685   5.506   1.431   6.281
85949SOL    HW159686   5.531   1.409   6.192
85949SOL    HW259687   5.523   1.524   6.289
85950SOL     OW59688  14.832   7.970   8.544
85950SOL    HW159689  14.791   7.934   8.622
85950SOL    HW259690   0.040   7.930   8.542
85951SOL     OW59691   6.625  13.597  14.478
85951SOL    HW159692   6.646  13.506  14.457
85951SOL    HW259693   6.685  13.648  14.424
85952SOL     OW59694   3.584  12.746  13.717
85952SOL    HW159695   3.660  12.798  13.691
85952SOL    HW259696   3.523  12.753  13.644
85953SOL     OW59697   5.832   2.516  11.520
85953SOL    HW159698   5.797   2.577  11.585
85953SOL    HW259699   5.761   2.455  11.503
85954SOL     OW59700   6.332  12.282   7.770
85954SOL    HW159701   6.403  12.258   7.830
85954SOL    HW259702   6.322  12.207   7.712
85955SOL     OW59703   0.475   3.817   5.731
85955SOL    HW159704   0.486   3.856   5.818
85955SOL    HW259705   0.402   3.866   5.692
85956SOL     OW59706   5.116   1.794   9.181
85956SOL    HW159707   5.155   1.739   9.113
85956SOL    HW259708   5.067   1.734   9.236
85957SOL     OW59709  14.401   5.284   1.768
85957SOL    HW159710  14.445   5.368   1.754
85957SOL    HW259711  14.358   5.293   1.853
85958SOL     OW59712   3.727  14.484   7.238
85958SOL    HW159713   3.787  14.476   7.164
85958SOL    HW259714   3.665  14.552   7.210
85959SOL     OW59715   9.190   1.040  14.662
85959SOL    HW159716   9.163   1.132  14.665
85959SOL    HW259717   9.108   0.991  14.674
85960SOL     OW59718   5.218   8.335   6.242
85960SOL    HW159719   5.257   8.419   6.266
85960SOL    HW259720   5.226   8.331   6.147
85961SOL     OW59721  10.313  13.430   6.100
85961SOL    HW159722  10.234  13.429   6.154
85961SOL    HW259723  10.380  13.469   6.157
85962SOL     OW59724  11.285  11.050   8.155
85962SOL    HW159725  11.243  11.133   8.181
85962SOL    HW259726  11.212  10.991   8.138
85963SOL     OW59727   4.960   3.237  13.351
85963SOL    HW159728   4.926   3.166  13.297
85963SOL    HW259729   5.044   3.204  13.384
85964SOL     OW59730   8.946   5.657  13.469
85964SOL    HW159731   8.966   5.728  13.531
85964SOL    HW259732   8.990   5.682  13.388
85965SOL     OW59733   8.687   1.316  10.697
85965SOL    HW159734   8.671   1.394  10.645
85965SOL    HW259735   8.782   1.311  10.706
85966SOL     OW59736   3.768  10.999   6.914
85966SOL    HW159737   3.828  10.974   6.984
85966SOL    HW259738   3.739  10.916   6.877
85967SOL     OW59739   4.663  13.007   0.231
85967SOL    HW159740   4.720  12.985   0.158
85967SOL    HW259741   4.642  13.100   0.218
85968SOL     OW59742   6.711   6.634   8.820
85968SOL    HW159743   6.759   6.551   8.816
85968SOL    HW259744   6.669   6.641   8.734
85969SOL     OW59745   1.174   7.372   6.130
85969SOL    HW159746   1.116   7.431   6.082
85969SOL    HW259747   1.115   7.307   6.169
85970SOL     OW59748   2.272   4.046  13.095
85970SOL    HW159749   2.239   4.066  13.183
85970SOL    HW259750   2.282   4.131  13.053
85971SOL     OW59751   3.649   3.304   3.437
85971SOL    HW159752   3.717   3.278   3.499
85971SOL    HW259753   3.570   3.259   3.467
85972SOL     OW59754   4.071   0.359  10.193
85972SOL    HW159755   4.108   0.275  10.163
85972SOL    HW259756   4.102   0.423  10.129
85973SOL     OW59757   7.512   4.361   1.166
85973SOL    HW159758   7.503   4.408   1.249
85973SOL    HW259759   7.544   4.427   1.105
85974SOL     OW59760   0.724   8.000  10.924
85974SOL    HW159761   0.653   7.970  10.981
85974SOL    HW259762   0.682   8.014  10.839
85975SOL     OW59763   8.063  10.455   1.658
85975SOL    HW159764   8.105  10.536   1.629
85975SOL    HW259765   8.019  10.479   1.739
85976SOL     OW59766   0.983   2.223   0.226
85976SOL    HW159767   0.928   2.282   0.175
85976SOL    HW259768   0.964   2.246   0.317
85977SOL     OW59769   5.006  11.082  12.480
85977SOL    HW159770   5.002  11.162  12.427
85977SOL    HW259771   5.045  11.017  12.422
85978SOL     OW59772   6.358   6.953   2.192
85978SOL    HW159773   6.422   6.984   2.256
85978SOL    HW259774   6.389   6.867   2.166
85979SOL     OW59775  10.339   0.437  13.417
85979SOL    HW159776  10.290   0.455  13.337
85979SOL    HW259777  10.280   0.462  13.488
85980SOL     OW59778  13.461   1.665  10.758
85980SOL    HW159779  13.377   1.671  10.804
85980SOL    HW259780  13.521   1.625  10.821
85981SOL     OW59781  13.116  11.547  12.212
85981SOL    HW159782  13.181  11.606  12.248
85981SOL    HW259783  13.074  11.597  12.143
85982SOL     OW59784  11.580   0.380  13.802
85982SOL    HW159785  11.512   0.387  13.868
85982SOL    HW259786  11.563   0.453  13.742
85983SOL     OW59787   0.397   5.568   6.084
85983SOL    HW159788   0.462   5.627   6.047
85983SOL    HW259789   0.319   5.579   6.030
85984SOL     OW59790   1.193   3.780   1.564
85984SOL    HW159791   1.262   3.845   1.579
85984SOL    HW259792   1.153   3.808   1.481
85985SOL     OW59793   9.037   0.505   6.520
85985SOL    HW159794   8.987   0.487   6.600
85985SOL    HW259795   9.007   0.592   6.493
85986SOL     OW59796   1.955   8.601   9.282
85986SOL    HW159797   1.988   8.631   9.197
85986SOL    HW259798   2.000   8.657   9.346
85987SOL     OW59799   6.469   4.952   7.754
85987SOL    HW159800   6.502   4.866   7.729
85987SOL    HW259801   6.492   5.009   7.680
85988SOL     OW59802   3.513   2.528  13.505
85988SOL    HW159803   3.450   2.594  13.535
85988SOL    HW259804   3.499   2.454  13.564
85989SOL     OW59805  10.942   2.397   4.215
85989SOL    HW159806  11.027   2.431   4.187
85989SOL    HW259807  10.936   2.422   4.308
85990SOL     OW59808   0.635  11.555   5.260
85990SOL    HW159809   0.640  11.493   5.333
85990SOL    HW259810   0.661  11.505   5.183
85991SOL     OW59811   5.680   0.956   9.355
85991SOL    HW159812   5.668   0.977   9.447
85991SOL    HW259813   5.594   0.927   9.325
85992SOL     OW59814  12.233   5.305  13.974
85992SOL    HW159815  12.232   5.394  13.938
85992SOL    HW259816  12.325   5.280  13.975
85993SOL     OW59817   6.269   7.992   4.354
85993SOL    HW159818   6.201   7.972   4.291
85993SOL    HW259819   6.309   7.908   4.374
85994SOL     OW59820   2.581   8.971   0.825
85994SOL    HW159821   2.563   9.001   0.736
85994SOL    HW259822   2.673   8.942   0.823
85995SOL     OW59823  13.873   0.314  13.345
85995SOL    HW159824  13.885   0.386  13.284
85995SOL    HW259825  13.798   0.340  13.399
85996SOL     OW59826   3.636   1.488   3.554
85996SOL    HW159827   3.644   1.472   3.648
85996SOL    HW259828   3.607   1.405   3.517
85997SOL     OW59829   7.283  14.243  11.869
85997SOL    HW159830   7.375  14.217  11.868
85997SOL    HW259831   7.283  14.332  11.903
85998SOL     OW59832  10.639   1.561  11.630
85998SOL    HW159833  10.642   1.557  11.534
85998SOL    HW259834  10.723   1.599  11.655
85999SOL     OW59835   0.403   6.292   1.473
85999SOL    HW159836   0.462   6.219   1.459
85999SOL    HW259837   0.323   6.253   1.508
86000SOL     OW59838   2.170  10.887   9.886
86000SOL    HW159839   2.107  10.838   9.834
86000SOL    HW259840   2.160  10.978   9.858
86001SOL     OW59841   9.999   6.713   2.925
86001SOL    HW159842  10.010   6.618   2.934
86001SOL    HW259843  10.018   6.748   3.012
86002SOL     OW59844   7.065   1.226  11.657
86002SOL    HW159845   7.116   1.230  11.739
86002SOL    HW259846   7.025   1.312  11.650
86003SOL     OW59847  14.188   2.043  12.374
86003SOL    HW159848  14.106   1.998  12.395
86003SOL    HW259849  14.181   2.126  12.421
86004SOL     OW59850   7.689   4.252   2.502
86004SOL    HW159851   7.625   4.250   2.431
86004SOL    HW259852   7.696   4.345   2.526
86005SOL     OW59853   8.808  12.739   4.829
86005SOL    HW159854   8.865  12.747   4.906
86005SOL    HW259855   8.773  12.650   4.835
86006SOL     OW59856  11.137   2.207   5.019
86006SOL    HW159857  11.169   2.151   4.947
86006SOL    HW259858  11.071   2.263   4.977
86007SOL     OW59859  13.411   5.573   1.956
86007SOL    HW159860  13.322   5.606   1.950
86007SOL    HW259861  13.432   5.577   2.049
86008SOL     OW59862   3.305   5.364   7.963
86008SOL    HW159863   3.389   5.380   7.920
86008SOL    HW259864   3.326   5.357   8.056
86009SOL     OW59865  13.799  14.664  11.337
86009SOL    HW159866  13.726  14.710  11.296
86009SOL    HW259867  13.866  14.732  11.348
86010SOL     OW59868   0.022   9.775   8.255
86010SOL    HW159869   0.061   9.821   8.180
86010SOL    HW259870  14.811   9.805   8.257
86011SOL     OW59871   6.394  10.129  12.817
86011SOL    HW159872   6.458  10.085  12.762
86011SOL    HW259873   6.393  10.079  12.898
86012SOL     OW59874   2.015  10.955  11.491
86012SOL    HW159875   1.939  10.916  11.534
86012SOL    HW259876   1.979  11.021  11.433
86013SOL     OW59877   3.856  11.788   8.768
86013SOL    HW159878   3.798  11.790   8.692
86013SOL    HW259879   3.820  11.853   8.827
86014SOL     OW59880   8.147   0.964  12.251
86014SOL    HW159881   8.239   0.945  12.269
86014SOL    HW259882   8.138   1.058  12.270
86015SOL     OW59883   7.239  11.002   1.393
86015SOL    HW159884   7.305  11.001   1.462
86015SOL    HW259885   7.162  10.960   1.433
86016SOL     OW59886   3.164  13.941  12.737
86016SOL    HW159887   3.129  13.879  12.673
86016SOL    HW259888   3.259  13.941  12.722
86017SOL     OW59889   5.385  10.464   4.459
86017SOL    HW159890   5.326  10.390   4.470
86017SOL    HW259891   5.395  10.500   4.547
86018SOL     OW59892   3.072   3.418   2.725
86018SOL    HW159893   3.094   3.450   2.813
86018SOL    HW259894   3.155   3.384   2.690
86019SOL     OW59895   0.606   3.384   1.696
86019SOL    HW159896   0.685   3.431   1.669
86019SOL    HW259897   0.639   3.300   1.727
86020SOL     OW59898   5.842  13.666  10.688
86020SOL    HW159899   5.907  13.663  10.759
86020SOL    HW259900   5.770  13.718  10.725
86021SOL     OW59901  13.540   1.914   1.423
86021SOL    HW159902  13.480   1.985   1.445
86021SOL    HW259903  13.527   1.899   1.330
86022SOL     OW59904   4.003  12.672   4.984
86022SOL    HW159905   3.986  12.728   5.059
86022SOL    HW259906   3.930  12.690   4.924
86023SOL     OW59907   9.495   9.508   5.194
86023SOL    HW159908   9.516   9.472   5.281
86023SOL    HW259909   9.416   9.461   5.167
86024SOL     OW59910   9.387  11.327  11.860
86024SOL    HW159911   9.478  11.296  11.851
86024SOL    HW259912   9.337  11.247  11.877
86025SOL     OW59913   5.665   9.417   5.780
86025SOL    HW159914   5.664   9.323   5.796
86025SOL    HW259915   5.584   9.449   5.820
86026SOL     OW59916  14.346   4.257  14.662
86026SOL    HW159917  14.290   4.238  14.737
86026SOL    HW259918  14.302   4.328  14.616
86027SOL     OW59919  10.045   0.941  12.642
86027SOL    HW159920   9.986   0.885  12.691
86027SOL    HW259921  10.105   0.881  12.598
86028SOL     OW59922   6.736  13.168  13.029
86028SOL    HW159923   6.728  13.260  13.003
86028SOL    HW259924   6.829  13.158  13.049
86029SOL     OW59925  13.363   6.932   2.666
86029SOL    HW159926  13.305   6.862   2.696
86029SOL    HW259927  13.424   6.945   2.738
86030SOL     OW59928   6.936  10.546   1.387
86030SOL    HW159929   7.002  10.544   1.456
86030SOL    HW259930   6.985  10.529   1.307
86031SOL     OW59931  11.374   3.289  12.471
86031SOL    HW159932  11.429   3.211  12.469
86031SOL    HW259933  11.410   3.342  12.542
86032SOL     OW59934   6.508   8.112  12.200
86032SOL    HW159935   6.413   8.116  12.214
86032SOL    HW259936   6.531   8.020  12.216
86033SOL     OW59937   2.020  11.146   0.976
86033SOL    HW159938   1.933  11.110   0.955
86033SOL    HW259939   2.003  11.235   1.004
86034SOL     OW59940   6.904   7.577  14.449
86034SOL    HW159941   6.830   7.561  14.508
86034SOL    HW259942   6.922   7.492  14.410
86035SOL     OW59943   3.630  12.624  14.725
86035SOL    HW159944   3.708  12.658  14.682
86035SOL    HW259945   3.570  12.698  14.729
86036SOL     OW59946  12.677  13.835  11.645
86036SOL    HW159947  12.692  13.886  11.725
86036SOL    HW259948  12.750  13.859  11.588
86037SOL     OW59949   6.493  12.515  11.200
86037SOL    HW159950   6.441  12.435  11.186
86037SOL    HW259951   6.583  12.484  11.202
86038SOL     OW59952   9.912  11.387   9.842
86038SOL    HW159953   9.995  11.375   9.794
86038SOL    HW259954   9.883  11.298   9.862
86039SOL     OW59955  14.843  11.389   3.633
86039SOL    HW159956   0.009  11.399   3.550
86039SOL    HW259957   0.008  11.317   3.677
86040SOL     OW59958   8.385   4.576   0.351
86040SOL    HW159959   8.426   4.613   0.429
86040SOL    HW259960   8.443   4.505   0.324
86041SOL     OW59961  13.686   2.526   3.337
86041SOL    HW159962  13.593   2.535   3.317
86041SOL    HW259963  13.719   2.468   3.268
86042SOL     OW59964  10.438  14.514  10.044
86042SOL    HW159965  10.440  14.427  10.004
86042SOL    HW259966  10.460  14.573   9.972
86043SOL     OW59967   1.270   5.304  14.754
86043SOL    HW159968   1.191   5.358  14.755
86043SOL    HW259969   1.242   5.221  14.794
86044SOL     OW59970   6.309  10.182  13.519
86044SOL    HW159971   6.326  10.227  13.602
86044SOL    HW259972   6.216  10.161  13.521
86045SOL     OW59973   8.123   7.306   2.997
86045SOL    HW159974   8.131   7.240   3.066
86045SOL    HW259975   8.036   7.291   2.960
86046SOL     OW59976   9.146   6.441   1.692
86046SOL    HW159977   9.133   6.356   1.650
86046SOL    HW259978   9.180   6.420   1.779
86047SOL     OW59979   3.783  13.439   4.240
86047SOL    HW159980   3.781  13.349   4.207
86047SOL    HW259981   3.712  13.442   4.304
86048SOL     OW59982  12.153  11.618   3.138
86048SOL    HW159983  12.224  11.556   3.120
86048SOL    HW259984  12.150  11.675   3.061
86049SOL     OW59985   6.355   4.886   9.719
86049SOL    HW159986   6.266   4.919   9.731
86049SOL    HW259987   6.382   4.859   9.807
86050SOL     OW59988  13.837   6.505   3.045
86050SOL    HW159989  13.899   6.548   3.103
86050SOL    HW259990  13.794   6.439   3.099
86051SOL     OW59991  10.772   2.246   8.952
86051SOL    HW159992  10.830   2.322   8.951
86051SOL    HW259993  10.684   2.283   8.941
86052SOL     OW59994  10.751  14.817  14.192
86052SOL    HW159995  10.688  14.837  14.261
86052SOL    HW259996  10.814   0.009  14.195
86053SOL     OW59997   1.249   4.563   0.592
86053SOL    HW159998   1.157   4.566   0.620
86053SOL    HW259999   1.291   4.634   0.641
86054SOL     OW60000   5.970   5.337  12.261
86054SOL    HW160001   5.958   5.432  12.266
86054SOL    HW260002   6.028   5.324  12.185
86055SOL     OW60003  14.112   8.396  14.285
86055SOL    HW160004  14.126   8.487  14.310
86055SOL    HW260005  14.164   8.346  14.349
86056SOL     OW60006  13.298   3.815   1.777
86056SOL    HW160007  13.350   3.753   1.725
86056SOL    HW260008  13.234   3.850   1.716
86057SOL     OW60009  14.849   4.336   3.506
86057SOL    HW160010  14.786   4.359   3.437
86057SOL    HW260011  14.870   4.420   3.547
86058SOL     OW60012  13.724   0.534   4.942
86058SOL    HW160013  13.700   0.445   4.968
86058SOL    HW260014  13.817   0.541   4.962
86059SOL     OW60015   3.248   6.275   4.467
86059SOL    HW160016   3.338   6.308   4.470
86059SOL    HW260017   3.198   6.337   4.520
86060SOL     OW60018   7.133   1.424   8.586
86060SOL    HW160019   7.207   1.387   8.634
86060SOL    HW260020   7.122   1.512   8.621
86061SOL     OW60021   3.944  14.606   0.672
86061SOL    HW160022   3.935  14.547   0.597
86061SOL    HW260023   3.887  14.568   0.739
86062SOL     OW60024   4.893   6.759   4.223
86062SOL    HW160025   4.906   6.687   4.162
86062SOL    HW260026   4.926   6.726   4.307
86063SOL     OW60027   9.648   7.385  13.947
86063SOL    HW160028   9.625   7.428  14.030
86063SOL    HW260029   9.571   7.332  13.926
86064SOL     OW60030   3.408  10.685   8.619
86064SOL    HW160031   3.318  10.685   8.651
86064SOL    HW260032   3.454  10.624   8.677
86065SOL     OW60033   3.046  10.677  13.401
86065SOL    HW160034   2.960  10.716  13.383
86065SOL    HW260035   3.069  10.709  13.488
86066SOL     OW60036   2.174   2.539   5.661
86066SOL    HW160037   2.097   2.501   5.703
86066SOL    HW260038   2.246   2.520   5.722
86067SOL     OW60039  14.592   2.391  11.242
86067SOL    HW160040  14.658   2.340  11.196
86067SOL    HW260041  14.513   2.383  11.188
86068SOL     OW60042   0.479   2.508   8.575
86068SOL    HW160043   0.471   2.498   8.481
86068SOL    HW260044   0.513   2.597   8.587
86069SOL     OW60045   6.140   0.044   6.527
86069SOL    HW160046   6.198   0.099   6.580
86069SOL    HW260047   6.066   0.025   6.586
86070SOL     OW60048   0.398   9.994   1.113
86070SOL    HW160049   0.362   9.910   1.139
86070SOL    HW260050   0.386   9.997   1.018
86071SOL     OW60051  14.022   3.592   3.494
86071SOL    HW160052  13.964   3.654   3.451
86071SOL    HW260053  13.979   3.507   3.483
86072SOL     OW60054  13.098  12.343   5.115
86072SOL    HW160055  13.193  12.327   5.114
86072SOL    HW260056  13.089  12.437   5.125
86073SOL     OW60057  13.576   8.629  14.553
86073SOL    HW160058  13.524   8.552  14.530
86073SOL    HW260059  13.511   8.697  14.570
86074SOL     OW60060   0.571   2.714   2.065
86074SOL    HW160061   0.526   2.780   2.117
86074SOL    HW260062   0.643   2.684   2.120
86075SOL     OW60063   7.646   2.642   6.305
86075SOL    HW160064   7.601   2.700   6.244
86075SOL    HW260065   7.739   2.651   6.282
86076SOL     OW60066   7.369   1.813   1.478
86076SOL    HW160067   7.281   1.810   1.441
86076SOL    HW260068   7.360   1.774   1.564
86077SOL     OW60069   2.673   5.888  11.948
86077SOL    HW160070   2.623   5.970  11.949
86077SOL    HW260071   2.735   5.897  12.020
86078SOL     OW60072   6.382   2.395   4.365
86078SOL    HW160073   6.402   2.408   4.458
86078SOL    HW260074   6.441   2.454   4.319
86079SOL     OW60075   1.543  13.176   0.733
86079SOL    HW160076   1.502  13.260   0.715
86079SOL    HW260077   1.476  13.111   0.712
86080SOL     OW60078   1.863   1.075   9.572
86080SOL    HW160079   1.890   1.036   9.489
86080SOL    HW260080   1.831   1.001   9.624
86081SOL     OW60081   3.972  10.944   7.126
86081SOL    HW160082   3.948  10.990   7.206
86081SOL    HW260083   4.067  10.956   7.119
86082SOL     OW60084   6.019  10.450   6.432
86082SOL    HW160085   6.101  10.456   6.384
86082SOL    HW260086   6.036  10.386   6.501
86083SOL     OW60087   3.558   7.620   1.640
86083SOL    HW160088   3.562   7.531   1.677
86083SOL    HW260089   3.490   7.614   1.573
86084SOL     OW60090   9.366   4.603   4.226
86084SOL    HW160091   9.298   4.538   4.212
86084SOL    HW260092   9.389   4.595   4.319
86085SOL     OW60093   3.720   4.180  13.146
86085SOL    HW160094   3.808   4.169  13.181
86085SOL    HW260095   3.724   4.141  13.058
86086SOL     OW60096  12.217  11.786   3.781
86086SOL    HW160097  12.136  11.780   3.731
86086SOL    HW260098  12.284  11.810   3.717
86087SOL     OW60099   6.120   5.705   3.970
86087SOL    HW160100   6.154   5.630   4.019
86087SOL    HW260101   6.146   5.781   4.022
86088SOL     OW60102  11.224   5.089   6.687
86088SOL    HW160103  11.155   5.023   6.677
86088SOL    HW260104  11.177   5.171   6.702
86089SOL     OW60105  10.770  11.159   6.407
86089SOL    HW160106  10.799  11.230   6.350
86089SOL    HW260107  10.815  11.081   6.374
86090SOL     OW60108  11.208  13.907   1.125
86090SOL    HW160109  11.182  13.815   1.122
86090SOL    HW260110  11.174  13.939   1.208
86091SOL     OW60111  10.759   2.311  13.051
86091SOL    HW160112  10.691   2.304  12.984
86091SOL    HW260113  10.772   2.222  13.082
86092SOL     OW60114   0.469  12.055   6.056
86092SOL    HW160115   0.412  12.007   6.117
86092SOL    HW260116   0.492  12.135   6.103
86093SOL     OW60117   7.724   4.538   7.768
86093SOL    HW160118   7.772   4.565   7.690
86093SOL    HW260119   7.666   4.611   7.788
86094SOL     OW60120   5.126   6.438   8.002
86094SOL    HW160121   5.186   6.371   7.969
86094SOL    HW260122   5.180   6.516   8.012
86095SOL     OW60123   0.889   4.978   2.324
86095SOL    HW160124   0.953   5.044   2.297
86095SOL    HW260125   0.852   5.012   2.405
86096SOL     OW60126  11.880   9.914   9.219
86096SOL    HW160127  11.786   9.912   9.203
86096SOL    HW260128  11.889   9.896   9.313
86097SOL     OW60129   3.374   2.997   8.610
86097SOL    HW160130   3.382   3.050   8.531
86097SOL    HW260131   3.396   3.057   8.682
86098SOL     OW60132   9.240   9.186   7.787
86098SOL    HW160133   9.167   9.129   7.764
86098SOL    HW260134   9.318   9.134   7.771
86099SOL     OW60135  11.730  13.304   5.195
86099SOL    HW160136  11.787  13.380   5.206
86099SOL    HW260137  11.647  13.340   5.164
86100SOL     OW60138  10.245  13.370  12.150
86100SOL    HW160139  10.265  13.416  12.231
86100SOL    HW260140  10.177  13.423  12.109
86101SOL     OW60141   9.085  13.788   5.073
86101SOL    HW160142   9.115  13.872   5.041
86101SOL    HW260143   9.140  13.724   5.029
86102SOL     OW60144   3.792   8.143   9.853
86102SOL    HW160145   3.873   8.101   9.881
86102SOL    HW260146   3.816   8.194   9.776
86103SOL     OW60147   0.637   5.713   8.711
86103SOL    HW160148   0.587   5.732   8.632
86103SOL    HW260149   0.713   5.663   8.680
86104SOL     OW60150  10.779  13.344   2.789
86104SOL    HW160151  10.776  13.436   2.814
86104SOL    HW260152  10.696  13.329   2.743
86105SOL     OW60153   3.659  14.724   4.542
86105SOL    HW160154   3.713  14.651   4.512
86105SOL    HW260155   3.698  14.802   4.502
86106SOL     OW60156  12.647  12.363   4.535
86106SOL    HW160157  12.640  12.285   4.480
86106SOL    HW260158  12.622  12.435   4.478
86107SOL     OW60159   9.393   3.014   6.735
86107SOL    HW160160   9.381   3.061   6.818
86107SOL    HW260161   9.305   2.991   6.708
86108SOL     OW60162   0.347  11.840   1.496
86108SOL    HW160163   0.424  11.802   1.538
86108SOL    HW260164   0.278  11.774   1.508
86109SOL     OW60165   8.405   7.077   5.047
86109SOL    HW160166   8.462   7.153   5.057
86109SOL    HW260167   8.357   7.093   4.966
86110SOL     OW60168   0.578  12.276  11.458
86110SOL    HW160169   0.600  12.299  11.368
86110SOL    HW260170   0.515  12.342  11.486
86111SOL     OW60171   1.843  12.757   0.222
86111SOL    HW160172   1.883  12.758   0.309
86111SOL    HW260173   1.886  12.829   0.174
86112SOL     OW60174   1.140   2.302   9.462
86112SOL    HW160175   1.218   2.297   9.407
86112SOL    HW260176   1.124   2.395   9.473
86113SOL     OW60177  13.244   1.154   5.754
86113SOL    HW160178  13.259   1.212   5.829
86113SOL    HW260179  13.320   1.168   5.697
86114SOL     OW60180   2.439   6.289   0.303
86114SOL    HW160181   2.532   6.303   0.320
86114SOL    HW260182   2.428   6.194   0.304
86115SOL     OW60183   4.107   7.263   2.489
86115SOL    HW160184   4.149   7.200   2.430
86115SOL    HW260185   4.018   7.229   2.499
86116SOL     OW60186  12.663   8.049  12.232
86116SOL    HW160187  12.628   8.083  12.150
86116SOL    HW260188  12.698   7.963  12.209
86117SOL     OW60189   1.630   2.673   4.750
86117SOL    HW160190   1.573   2.687   4.675
86117SOL    HW260191   1.704   2.732   4.736
86118SOL     OW60192   9.346   8.127   6.188
86118SOL    HW160193   9.261   8.084   6.177
86118SOL    HW260194   9.388   8.120   6.103
86119SOL     OW60195   3.023   5.947   8.582
86119SOL    HW160196   3.019   5.858   8.617
86119SOL    HW260197   3.056   5.936   8.493
86120SOL     OW60198   5.681   0.459   1.482
86120SOL    HW160199   5.722   0.531   1.433
86120SOL    HW260200   5.592   0.490   1.499
86121SOL     OW60201   4.827   7.544   4.922
86121SOL    HW160202   4.852   7.461   4.881
86121SOL    HW260203   4.810   7.521   5.014
86122SOL     OW60204   5.275   4.235  10.174
86122SOL    HW160205   5.199   4.233  10.232
86122SOL    HW260206   5.289   4.328  10.157
86123SOL     OW60207   7.201   4.250   2.876
86123SOL    HW160208   7.284   4.247   2.827
86123SOL    HW260209   7.134   4.260   2.809
86124SOL     OW60210   5.070   7.353   2.162
86124SOL    HW160211   5.062   7.273   2.214
86124SOL    HW260212   5.070   7.323   2.071
86125SOL     OW60213   2.776   7.023   0.239
86125SOL    HW160214   2.741   7.058   0.321
86125SOL    HW260215   2.715   6.953   0.216
86126SOL     OW60216   3.088   8.016  13.276
86126SOL    HW160217   3.080   8.106  13.241
86126SOL    HW260218   2.998   7.990  13.293
86127SOL     OW60219   2.557  12.466   1.812
86127SOL    HW160220   2.489  12.492   1.749
86127SOL    HW260221   2.524  12.496   1.896
86128SOL     OW60222   2.642   7.331  11.902
86128SOL    HW160223   2.575   7.317  11.835
86128SOL    HW260224   2.592   7.354  11.980
86129SOL     OW60225  12.591   0.329   9.880
86129SOL    HW160226  12.565   0.240   9.904
86129SOL    HW260227  12.562   0.340   9.790
86130SOL     OW60228   8.108  10.376   8.190
86130SOL    HW160229   8.084  10.302   8.247
86130SOL    HW260230   8.194  10.352   8.155
86131SOL     OW60231   0.188   9.184   5.689
86131SOL    HW160232   0.239   9.264   5.704
86131SOL    HW260233   0.162   9.189   5.597
86132SOL     OW60234   0.752   4.874   3.926
86132SOL    HW160235   0.817   4.870   3.857
86132SOL    HW260236   0.695   4.948   3.902
86133SOL     OW60237   7.845   1.723   9.939
86133SOL    HW160238   7.790   1.646   9.928
86133SOL    HW260239   7.860   1.729  10.033
86134SOL     OW60240  10.258  10.799  11.839
86134SOL    HW160241  10.209  10.854  11.778
86134SOL    HW260242  10.228  10.710  11.819
86135SOL     OW60243   1.006   3.594  14.211
86135SOL    HW160244   1.037   3.682  14.232
86135SOL    HW260245   0.926   3.584  14.262
86136SOL     OW60246   7.551   2.097  13.733
86136SOL    HW160247   7.580   2.010  13.762
86136SOL    HW260248   7.612   2.158  13.775
86137SOL     OW60249  13.980   9.134   6.964
86137SOL    HW160250  13.962   9.047   6.998
86137SOL    HW260251  14.061   9.161   7.008
86138SOL     OW60252  11.004   1.552   1.645
86138SOL    HW160253  10.967   1.504   1.720
86138SOL    HW260254  10.960   1.514   1.569
86139SOL     OW60255   0.500   8.472   1.961
86139SOL    HW160256   0.434   8.440   1.899
86139SOL    HW260257   0.470   8.560   1.984
86140SOL     OW60258   6.453   1.596  10.318
86140SOL    HW160259   6.519   1.527  10.320
86140SOL    HW260260   6.415   1.595  10.406
86141SOL     OW60261  13.285  10.629   7.100
86141SOL    HW160262  13.299  10.661   7.011
86141SOL    HW260263  13.204  10.579   7.096
86142SOL     OW60264  13.206  11.564   7.769
86142SOL    HW160265  13.274  11.529   7.827
86142SOL    HW260266  13.172  11.640   7.815
86143SOL     OW60267  13.612   7.722   0.023
86143SOL    HW160268  13.609   7.783  14.829
86143SOL    HW260269  13.554   7.761   0.088
86144SOL     OW60270   2.473   7.342  13.939
86144SOL    HW160271   2.385   7.363  13.970
86144SOL    HW260272   2.504   7.423  13.898
86145SOL     OW60273   0.436   2.829   9.872
86145SOL    HW160274   0.364   2.791   9.923
86145SOL    HW260275   0.454   2.912   9.915
86146SOL     OW60276   5.468   8.180  10.400
86146SOL    HW160277   5.521   8.259  10.389
86146SOL    HW260278   5.438   8.159  10.312
86147SOL     OW60279   7.261   9.702  11.357
86147SOL    HW160280   7.339   9.696  11.413
86147SOL    HW260281   7.291   9.670  11.272
86148SOL     OW60282  10.163   1.507   2.588
86148SOL    HW160283  10.079   1.497   2.541
86148SOL    HW260284  10.223   1.450   2.541
86149SOL     OW60285   2.400   5.601   0.671
86149SOL    HW160286   2.323   5.603   0.728
86149SOL    HW260287   2.461   5.663   0.710
86150SOL     OW60288   9.048  10.184   6.166
86150SOL    HW160289   8.954  10.199   6.176
86150SOL    HW260290   9.089  10.241   6.231
86151SOL     OW60291   7.187   6.754  12.053
86151SOL    HW160292   7.273   6.771  12.089
86151SOL    HW260293   7.185   6.659  12.038
86152SOL     OW60294  11.314  11.714   2.108
86152SOL    HW160295  11.387  11.757   2.065
86152SOL    HW260296  11.284  11.777   2.174
86153SOL     OW60297   7.793  10.394  10.512
86153SOL    HW160298   7.830  10.388  10.600
86153SOL    HW260299   7.698  10.395  10.526
86154SOL     OW60300   0.775  13.788   9.324
86154SOL    HW160301   0.827  13.850   9.273
86154SOL    HW260302   0.685  13.801   9.294
86155SOL     OW60303   7.179   4.991   3.106
86155SOL    HW160304   7.224   5.063   3.061
86155SOL    HW260305   7.250   4.936   3.139
86156SOL     OW60306   1.782  12.166   2.271
86156SOL    HW160307   1.861  12.173   2.217
86156SOL    HW260308   1.809  12.114   2.347
86157SOL     OW60309   8.103   8.819   8.622
86157SOL    HW160310   8.196   8.804   8.639
86157SOL    HW260311   8.102   8.864   8.537
86158SOL     OW60312  10.026   9.158   4.620
86158SOL    HW160313  10.036   9.101   4.544
86158SOL    HW260314  10.104   9.214   4.619
86159SOL     OW60315  11.018   1.758   4.717
86159SOL    HW160316  11.087   1.692   4.709
86159SOL    HW260317  10.946   1.725   4.663
86160SOL     OW60318   2.056   5.948   6.893
86160SOL    HW160319   2.056   5.853   6.886
86160SOL    HW260320   2.130   5.976   6.838
86161SOL     OW60321   8.274   1.610   1.667
86161SOL    HW160322   8.295   1.701   1.686
86161SOL    HW260323   8.356   1.563   1.681
86162SOL     OW60324   2.343   0.546  14.860
86162SOL    HW160325   2.422   0.541  14.807
86162SOL    HW260326   2.274   0.568  14.798
86163SOL     OW60327  12.585  14.245  13.886
86163SOL    HW160328  12.523  14.205  13.825
86163SOL    HW260329  12.647  14.291  13.830
86164SOL     OW60330  10.978   2.718   1.555
86164SOL    HW160331  11.068   2.688   1.568
86164SOL    HW260332  10.932   2.641   1.522
86165SOL     OW60333   8.447  14.443   3.708
86165SOL    HW160334   8.482  14.398   3.785
86165SOL    HW260335   8.461  14.382   3.636
86166SOL     OW60336   4.851   3.112   7.321
86166SOL    HW160337   4.944   3.118   7.344
86166SOL    HW260338   4.821   3.033   7.365
86167SOL     OW60339   6.125  12.234  10.568
86167SOL    HW160340   6.122  12.139  10.560
86167SOL    HW260341   6.034  12.261  10.583
86168SOL     OW60342  11.822   0.603   5.342
86168SOL    HW160343  11.912   0.633   5.332
86168SOL    HW260344  11.800   0.622   5.433
86169SOL     OW60345   4.594   0.370  11.016
86169SOL    HW160346   4.621   0.377  10.924
86169SOL    HW260347   4.535   0.294  11.018
86170SOL     OW60348   8.270  10.832   6.983
86170SOL    HW160349   8.309  10.854   6.899
86170SOL    HW260350   8.181  10.866   6.978
86171SOL     OW60351  13.512  11.522   5.505
86171SOL    HW160352  13.575  11.463   5.462
86171SOL    HW260353  13.452  11.548   5.435
86172SOL     OW60354   7.597   8.807  13.371
86172SOL    HW160355   7.648   8.740  13.326
86172SOL    HW260356   7.654   8.838  13.441
86173SOL     OW60357   7.221  14.064  11.687
86173SOL    HW160358   7.255  13.991  11.737
86173SOL    HW260359   7.250  14.142  11.734
86174SOL     OW60360   2.322   1.343   0.018
86174SOL    HW160361   2.361   1.313  14.816
86174SOL    HW260362   2.341   1.273   0.081
86175SOL     OW60363  11.194  12.614   9.173
86175SOL    HW160364  11.271  12.575   9.131
86175SOL    HW260365  11.121  12.561   9.143
86176SOL     OW60366   6.244   4.219   5.990
86176SOL    HW160367   6.200   4.202   5.906
86176SOL    HW260368   6.336   4.229   5.967
86177SOL     OW60369   2.920   2.785  13.306
86177SOL    HW160370   2.975   2.862  13.319
86177SOL    HW260371   2.953   2.720  13.368
86178SOL     OW60372   4.809   9.343   4.016
86178SOL    HW160373   4.769   9.356   4.102
86178SOL    HW260374   4.870   9.270   4.028
86179SOL     OW60375  12.821   0.799  14.361
86179SOL    HW160376  12.913   0.826  14.355
86179SOL    HW260377  12.824   0.717  14.410
86180SOL     OW60378   1.754   5.707   1.271
86180SOL    HW160379   1.835   5.661   1.290
86180SOL    HW260380   1.690   5.637   1.255
86181SOL     OW60381  13.634  10.871  13.688
86181SOL    HW160382  13.618  10.955  13.644
86181SOL    HW260383  13.548  10.829  13.690
86182SOL     OW60384  13.493   4.441   6.901
86182SOL    HW160385  13.541   4.360   6.887
86182SOL    HW260386  13.495   4.455   6.996
86183SOL     OW60387   2.085   5.777   1.992
86183SOL    HW160388   2.169   5.774   2.037
86183SOL    HW260389   2.106   5.809   1.904
86184SOL     OW60390  12.842  10.492   3.644
86184SOL    HW160391  12.758  10.529   3.616
86184SOL    HW260392  12.862  10.538   3.726
86185SOL     OW60393   8.343  12.409  12.777
86185SOL    HW160394   8.419  12.410  12.718
86185SOL    HW260395   8.289  12.337  12.746
86186SOL     OW60396  12.106   1.047  10.696
86186SOL    HW160397  12.192   1.069  10.733
86186SOL    HW260398  12.045   1.064  10.767
86187SOL     OW60399   0.265  11.796  10.546
86187SOL    HW160400   0.205  11.838  10.608
86187SOL    HW260401   0.232  11.823  10.460
86188SOL     OW60402   1.218   0.321   7.632
86188SOL    HW160403   1.145   0.313   7.693
86188SOL    HW260404   1.213   0.411   7.601
86189SOL     OW60405   7.094   2.719  11.706
86189SOL    HW160406   7.171   2.690  11.657
86189SOL    HW260407   7.124   2.796  11.754
86190SOL     OW60408  11.302   7.537  11.567
86190SOL    HW160409  11.308   7.591  11.488
86190SOL    HW260410  11.381   7.483  11.565
86191SOL     OW60411   9.738   8.179   6.766
86191SOL    HW160412   9.712   8.196   6.675
86191SOL    HW260413   9.679   8.234   6.817
86192SOL     OW60414   6.913   9.631  11.180
86192SOL    HW160415   6.942   9.675  11.101
86192SOL    HW260416   6.817   9.635  11.176
86193SOL     OW60417   8.046   2.693  13.784
86193SOL    HW160418   8.057   2.675  13.877
86193SOL    HW260419   8.076   2.613  13.741
86194SOL     OW60420   4.485   6.616   7.863
86194SOL    HW160421   4.479   6.710   7.882
86194SOL    HW260422   4.399   6.582   7.887
86195SOL     OW60423  13.784   4.570   6.784
86195SOL    HW160424  13.791   4.481   6.818
86195SOL    HW260425  13.694   4.596   6.802
86196SOL     OW60426   1.292   6.813  10.688
86196SOL    HW160427   1.283   6.725  10.653
86196SOL    HW260428   1.263   6.806  10.779
86197SOL     OW60429   3.242   9.004   4.098
86197SOL    HW160430   3.282   8.965   4.175
86197SOL    HW260431   3.253   8.937   4.029
86198SOL     OW60432   6.022  14.244   0.476
86198SOL    HW160433   6.074  14.324   0.464
86198SOL    HW260434   6.077  14.189   0.532
86199SOL     OW60435   5.947   7.510   2.793
86199SOL    HW160436   6.014   7.516   2.725
86199SOL    HW260437   5.916   7.599   2.805
86200SOL     OW60438   8.740   7.104  13.964
86200SOL    HW160439   8.814   7.112  14.024
86200SOL    HW260440   8.685   7.179  13.984
86201SOL     OW60441   2.154   1.690   9.503
86201SOL    HW160442   2.176   1.619   9.563
86201SOL    HW260443   2.078   1.658   9.455
86202SOL     OW60444  12.720  10.237   3.694
86202SOL    HW160445  12.782  10.310   3.696
86202SOL    HW260446  12.657  10.262   3.626
86203SOL     OW60447  11.629   7.893   5.290
86203SOL    HW160448  11.639   7.873   5.197
86203SOL    HW260449  11.639   7.988   5.295
86204SOL     OW60450  12.576   6.430  12.106
86204SOL    HW160451  12.537   6.372  12.171
86204SOL    HW260452  12.530   6.409  12.025
86205SOL     OW60453   3.438  14.517  12.147
86205SOL    HW160454   3.515  14.551  12.192
86205SOL    HW260455   3.468  14.498  12.058
86206SOL     OW60456   2.863  13.921   5.603
86206SOL    HW160457   2.821  13.851   5.553
86206SOL    HW260458   2.956  13.902   5.596
86207SOL     OW60459   7.477  13.543   0.425
86207SOL    HW160460   7.472  13.451   0.449
86207SOL    HW260461   7.450  13.546   0.333
86208SOL     OW60462   5.691   6.536   3.768
86208SOL    HW160463   5.713   6.603   3.832
86208SOL    HW260464   5.595   6.539   3.763
86209SOL     OW60465   6.751  10.145  10.220
86209SOL    HW160466   6.812  10.087  10.267
86209SOL    HW260467   6.745  10.108  10.133
86210SOL     OW60468   6.128  10.126  14.009
86210SOL    HW160469   6.084  10.050  14.047
86210SOL    HW260470   6.057  10.186  13.985
86211SOL     OW60471   8.735   9.582   0.422
86211SOL    HW160472   8.679   9.623   0.356
86211SOL    HW260473   8.676   9.529   0.475
86212SOL     OW60474  14.385  11.497   9.275
86212SOL    HW160475  14.450  11.426   9.284
86212SOL    HW260476  14.438  11.575   9.260
86213SOL     OW60477   2.907   4.299   2.031
86213SOL    HW160478   2.840   4.368   2.039
86213SOL    HW260479   2.857   4.220   2.010
86214SOL     OW60480   7.217   0.050   0.270
86214SOL    HW160481   7.131   0.009   0.268
86214SOL    HW260482   7.202   0.139   0.237
86215SOL     OW60483  12.021   6.578   5.895
86215SOL    HW160484  11.955   6.549   5.832
86215SOL    HW260485  11.970   6.603   5.973
86216SOL     OW60486   0.663   7.479  11.665
86216SOL    HW160487   0.735   7.492  11.604
86216SOL    HW260488   0.647   7.565  11.703
86217SOL     OW60489   1.441  11.186  10.739
86217SOL    HW160490   1.471  11.123  10.672
86217SOL    HW260491   1.485  11.268  10.716
86218SOL     OW60492   0.250   6.311   2.062
86218SOL    HW160493   0.165   6.280   2.032
86218SOL    HW260494   0.313   6.246   2.030
86219SOL     OW60495   9.736  10.294   2.003
86219SOL    HW160496   9.720  10.256   1.916
86219SOL    HW260497   9.684  10.374   2.004
86220SOL     OW60498   3.031   0.197   6.074
86220SOL    HW160499   3.026   0.116   6.125
86220SOL    HW260500   3.009   0.170   5.984
86221SOL     OW60501   4.763   6.136   9.093
86221SOL    HW160502   4.713   6.214   9.068
86221SOL    HW260503   4.696   6.068   9.104
86222SOL     OW60504   1.942  13.606   9.942
86222SOL    HW160505   1.967  13.665  10.013
86222SOL    HW260506   2.018  13.548   9.931
86223SOL     OW60507   1.032  12.759  10.566
86223SOL    HW160508   1.060  12.672  10.596
86223SOL    HW260509   0.968  12.788  10.631
86224SOL     OW60510  12.736   5.434  11.137
86224SOL    HW160511  12.792   5.361  11.112
86224SOL    HW260512  12.661   5.428  11.077
86225SOL     OW60513   2.931   8.437   9.192
86225SOL    HW160514   2.976   8.418   9.110
86225SOL    HW260515   2.845   8.396   9.183
86226SOL     OW60516   8.337  13.992   7.770
86226SOL    HW160517   8.403  13.963   7.832
86226SOL    HW260518   8.276  14.043   7.823
86227SOL     OW60519  11.415   5.682  12.120
86227SOL    HW160520  11.387   5.773  12.108
86227SOL    HW260521  11.384   5.659  12.208
86228SOL     OW60522   7.683  13.322  13.771
86228SOL    HW160523   7.599  13.279  13.757
86228SOL    HW260524   7.661  13.407  13.808
86229SOL     OW60525   6.629   0.354   2.574
86229SOL    HW160526   6.561   0.408   2.532
86229SOL    HW260527   6.625   0.380   2.666
86230SOL     OW60528   2.112   7.711  13.939
86230SOL    HW160529   2.033   7.755  13.973
86230SOL    HW260530   2.181   7.777  13.946
86231SOL     OW60531   6.394  13.719   6.153
86231SOL    HW160532   6.484  13.687   6.157
86231SOL    HW260533   6.353  13.666   6.085
86232SOL     OW60534   5.150   5.187   0.225
86232SOL    HW160535   5.183   5.264   0.180
86232SOL    HW260536   5.143   5.215   0.317
86233SOL     OW60537   2.457   9.637   2.917
86233SOL    HW160538   2.404   9.612   2.841
86233SOL    HW260539   2.497   9.556   2.946
86234SOL     OW60540   1.436  13.039   0.052
86234SOL    HW160541   1.440  13.120   0.002
86234SOL    HW260542   1.461  12.971  14.870
86235SOL     OW60543  10.175   5.175  13.794
86235SOL    HW160544  10.193   5.212  13.708
86235SOL    HW260545  10.220   5.233  13.855
86236SOL     OW60546   3.177  12.368   4.959
86236SOL    HW160547   3.239  12.306   4.920
86236SOL    HW260548   3.217  12.394   5.042
86237SOL     OW60549   1.153   5.778   4.409
86237SOL    HW160550   1.107   5.754   4.329
86237SOL    HW260551   1.111   5.726   4.477
86238SOL     OW60552   4.692   9.309   2.989
86238SOL    HW160553   4.683   9.394   3.031
86238SOL    HW260554   4.617   9.303   2.930
86239SOL     OW60555  11.886  13.998  11.873
86239SOL    HW160556  11.892  13.914  11.918
86239SOL    HW260557  11.931  14.060  11.931
86240SOL     OW60558   4.681  11.862   3.822
86240SOL    HW160559   4.747  11.808   3.777
86240SOL    HW260560   4.729  11.940   3.849
86241SOL     OW60561   2.706  11.797   6.917
86241SOL    HW160562   2.711  11.869   6.855
86241SOL    HW260563   2.618  11.801   6.953
86242SOL     OW60564   3.871  13.700   9.355
86242SOL    HW160565   3.867  13.795   9.344
86242SOL    HW260566   3.934  13.671   9.290
86243SOL     OW60567   8.179  13.811   9.251
86243SOL    HW160568   8.255  13.776   9.205
86243SOL    HW260569   8.216  13.857   9.327
86244SOL     OW60570   5.134   8.906   4.047
86244SOL    HW160571   5.218   8.860   4.052
86244SOL    HW260572   5.113   8.925   4.138
86245SOL     OW60573  13.804  12.445   7.056
86245SOL    HW160574  13.709  12.449   7.065
86245SOL    HW260575  13.821  12.483   6.970
86246SOL     OW60576   3.970  10.787   9.508
86246SOL    HW160577   4.050  10.839   9.494
86246SOL    HW260578   3.947  10.754   9.421
86247SOL     OW60579   0.654   0.863   6.545
86247SOL    HW160580   0.740   0.894   6.573
86247SOL    HW260581   0.597   0.877   6.622
86248SOL     OW60582  14.510   4.736   6.596
86248SOL    HW160583  14.463   4.812   6.631
86248SOL    HW260584  14.580   4.774   6.543
86249SOL     OW60585   4.142  14.703   8.204
86249SOL    HW160586   4.219  14.696   8.261
86249SOL    HW260587   4.177  14.706   8.116
86250SOL     OW60588   6.808   6.601   9.801
86250SOL    HW160589   6.820   6.508   9.783
86250SOL    HW260590   6.718   6.620   9.774
86251SOL     OW60591  10.453   4.598   3.841
86251SOL    HW160592  10.359   4.581   3.829
86251SOL    HW260593  10.489   4.514   3.870
86252SOL     OW60594  11.641   4.902   2.264
86252SOL    HW160595  11.649   4.978   2.207
86252SOL    HW260596  11.704   4.839   2.229
86253SOL     OW60597   1.281   7.317   1.080
86253SOL    HW160598   1.303   7.379   1.149
86253SOL    HW260599   1.187   7.306   1.087
86254SOL     OW60600   8.365   2.800   6.954
86254SOL    HW160601   8.423   2.786   6.880
86254SOL    HW260602   8.371   2.720   7.006
86255SOL     OW60603  12.853  13.972  12.818
86255SOL    HW160604  12.762  13.999  12.831
86255SOL    HW260605  12.903  14.051  12.837
86256SOL     OW60606   4.969   8.583  11.432
86256SOL    HW160607   4.974   8.522  11.506
86256SOL    HW260608   5.026   8.655  11.458
86257SOL     OW60609   3.983   6.815   2.267
86257SOL    HW160610   4.020   6.788   2.351
86257SOL    HW260611   4.018   6.903   2.252
86258SOL     OW60612   5.946   4.605   8.268
86258SOL    HW160613   5.854   4.628   8.255
86258SOL    HW260614   5.954   4.587   8.361
86259SOL     OW60615   7.290   4.574   1.924
86259SOL    HW160616   7.366   4.522   1.898
86259SOL    HW260617   7.324   4.663   1.932
86260SOL     OW60618   1.943   5.034  10.687
86260SOL    HW160619   2.022   5.078  10.717
86260SOL    HW260620   1.975   4.957  10.639
86261SOL     OW60621   3.720   5.614   6.571
86261SOL    HW160622   3.705   5.688   6.631
86261SOL    HW260623   3.760   5.547   6.626
86262SOL     OW60624  11.816   0.772  12.123
86262SOL    HW160625  11.763   0.744  12.049
86262SOL    HW260626  11.900   0.729  12.110
86263SOL     OW60627   2.576   8.245   7.174
86263SOL    HW160628   2.636   8.177   7.144
86263SOL    HW260629   2.613   8.326   7.140
86264SOL     OW60630  11.694  13.962   0.178
86264SOL    HW160631  11.693  13.920   0.263
86264SOL    HW260632  11.774  14.015   0.178
86265SOL     OW60633   8.370  13.398   7.908
86265SOL    HW160634   8.307  13.425   7.841
86265SOL    HW260635   8.435  13.468   7.909
86266SOL     OW60636   7.084   5.326   9.293
86266SOL    HW160637   7.137   5.280   9.227
86266SOL    HW260638   7.123   5.413   9.299
86267SOL     OW60639  11.872  13.700   3.851
86267SOL    HW160640  11.847  13.677   3.762
86267SOL    HW260641  11.860  13.620   3.901
86268SOL     OW60642  13.163   1.110   2.938
86268SOL    HW160643  13.203   1.188   2.900
86268SOL    HW260644  13.119   1.141   3.017
86269SOL     OW60645   3.319   0.251   6.622
86269SOL    HW160646   3.348   0.338   6.649
86269SOL    HW260647   3.224   0.254   6.627
86270SOL     OW60648   1.603  14.077  10.689
86270SOL    HW160649   1.565  14.063  10.602
86270SOL    HW260650   1.564  14.009  10.743
86271SOL     OW60651   9.702   1.269   6.528
86271SOL    HW160652   9.675   1.357   6.500
86271SOL    HW260653   9.676   1.264   6.620
86272SOL     OW60654  13.774  13.680   8.891
86272SOL    HW160655  13.690  13.649   8.926
86272SOL    HW260656  13.767  13.666   8.796
86273SOL     OW60657  13.100   0.636  10.756
86273SOL    HW160658  13.098   0.541  10.772
86273SOL    HW260659  13.188   0.663  10.782
86274SOL     OW60660   2.045   5.856  11.462
86274SOL    HW160661   2.016   5.917  11.530
86274SOL    HW260662   2.042   5.908  11.382
86275SOL     OW60663   1.408   3.406   0.461
86275SOL    HW160664   1.403   3.465   0.386
86275SOL    HW260665   1.438   3.323   0.423
86276SOL     OW60666   4.683  14.121  10.014
86276SOL    HW160667   4.715  14.068   9.941
86276SOL    HW260668   4.724  14.082  10.092
86277SOL     OW60669   4.245   7.241  13.551
86277SOL    HW160670   4.220   7.275  13.638
86277SOL    HW260671   4.287   7.315  13.508
86278SOL     OW60672  12.421   3.514   4.813
86278SOL    HW160673  12.357   3.544   4.878
86278SOL    HW260674  12.506   3.531   4.854
86279SOL     OW60675   6.576  10.039   6.538
86279SOL    HW160676   6.618   9.966   6.584
86279SOL    HW260677   6.530  10.087   6.606
86280SOL     OW60678   3.081   1.045   5.292
86280SOL    HW160679   3.037   0.969   5.254
86280SOL    HW260680   3.023   1.119   5.274
86281SOL     OW60681  10.097  14.867   1.402
86281SOL    HW160682  10.122   0.013   1.491
86281SOL    HW260683  10.063  14.777   1.412
86282SOL     OW60684  12.199   7.069  14.172
86282SOL    HW160685  12.146   7.067  14.251
86282SOL    HW260686  12.285   7.100  14.201
86283SOL     OW60687  13.022   7.287  11.198
86283SOL    HW160688  13.007   7.276  11.292
86283SOL    HW260689  13.105   7.333  11.192
86284SOL     OW60690  10.493  12.116   0.395
86284SOL    HW160691  10.423  12.074   0.346
86284SOL    HW260692  10.469  12.105   0.487
86285SOL     OW60693  11.385   1.530   9.981
86285SOL    HW160694  11.402   1.598  10.046
86285SOL    HW260695  11.468   1.485   9.971
86286SOL     OW60696   2.334   4.705   6.163
86286SOL    HW160697   2.358   4.737   6.250
86286SOL    HW260698   2.349   4.610   6.168
86287SOL     OW60699   6.116   0.552   6.704
86287SOL    HW160700   6.056   0.477   6.699
86287SOL    HW260701   6.120   0.585   6.615
86288SOL     OW60702  13.206   3.424  14.421
86288SOL    HW160703  13.191   3.343  14.372
86288SOL    HW260704  13.238   3.486  14.355
86289SOL     OW60705  14.774   7.230   4.646
86289SOL    HW160706  14.743   7.142   4.625
86289SOL    HW260707  14.840   7.217   4.714
86290SOL     OW60708   6.812   8.352   0.463
86290SOL    HW160709   6.850   8.352   0.375
86290SOL    HW260710   6.884   8.377   0.520
86291SOL     OW60711   0.605  10.105  12.832
86291SOL    HW160712   0.591  10.134  12.742
86291SOL    HW260713   0.566  10.174  12.886
86292SOL     OW60714  13.579   1.399   8.310
86292SOL    HW160715  13.659   1.375   8.263
86292SOL    HW260716  13.610   1.441   8.390
86293SOL     OW60717  11.407   2.239  13.482
86293SOL    HW160718  11.481   2.218  13.540
86293SOL    HW260719  11.332   2.242  13.541
86294SOL     OW60720  11.992   2.478   6.439
86294SOL    HW160721  11.901   2.471   6.412
86294SOL    HW260722  12.007   2.572   6.450
86295SOL     OW60723   8.132   6.065  14.782
86295SOL    HW160724   8.218   6.098  14.756
86295SOL    HW260725   8.071   6.103  14.719
86296SOL     OW60726   8.885   4.293  14.727
86296SOL    HW160727   8.806   4.244  14.706
86296SOL    HW260728   8.952   4.226  14.741
86297SOL     OW60729   2.125   5.875   1.742
86297SOL    HW160730   2.052   5.881   1.680
86297SOL    HW260731   2.138   5.965   1.771
86298SOL     OW60732   6.518   2.770  13.485
86298SOL    HW160733   6.532   2.747  13.393
86298SOL    HW260734   6.533   2.688  13.533
86299SOL     OW60735   0.384   5.596  11.851
86299SOL    HW160736   0.451   5.562  11.911
86299SOL    HW260737   0.302   5.563  11.886
86300SOL     OW60738   6.973  10.013   1.526
86300SOL    HW160739   6.897  10.051   1.482
86300SOL    HW260740   7.038  10.083   1.526
86301SOL     OW60741  14.362   8.883   8.408
86301SOL    HW160742  14.386   8.801   8.452
86301SOL    HW260743  14.323   8.936   8.477
86302SOL     OW60744   8.805   8.117   4.410
86302SOL    HW160745   8.727   8.155   4.370
86302SOL    HW260746   8.775   8.081   4.493
86303SOL     OW60747  12.881   4.326  13.212
86303SOL    HW160748  12.918   4.257  13.267
86303SOL    HW260749  12.787   4.320  13.225
86304SOL     OW60750   5.833  13.263   8.689
86304SOL    HW160751   5.909  13.220   8.648
86304SOL    HW260752   5.864  13.350   8.711
86305SOL     OW60753  10.005   6.672   0.291
86305SOL    HW160754   9.915   6.688   0.321
86305SOL    HW260755   9.996   6.658   0.197
86306SOL     OW60756   7.601  10.023   4.700
86306SOL    HW160757   7.578   9.932   4.714
86306SOL    HW260758   7.521  10.072   4.716
86307SOL     OW60759   4.164  10.891   5.043
86307SOL    HW160760   4.258  10.905   5.055
86307SOL    HW260761   4.124  10.974   5.070
86308SOL     OW60762   6.398   6.798  10.538
86308SOL    HW160763   6.344   6.877  10.545
86308SOL    HW260764   6.470   6.812  10.599
86309SOL     OW60765  14.139  11.501  12.239
86309SOL    HW160766  14.063  11.559  12.228
86309SOL    HW260767  14.210  11.547  12.194
86310SOL     OW60768   8.490   7.744   9.477
86310SOL    HW160769   8.524   7.727   9.565
86310SOL    HW260770   8.542   7.816   9.444
86311SOL     OW60771  11.087  12.079  14.825
86311SOL    HW160772  11.133  12.049   0.024
86311SOL    HW260773  11.142  12.051  14.752
86312SOL     OW60774   0.349   6.506   0.333
86312SOL    HW160775   0.407   6.448   0.283
86312SOL    HW260776   0.353   6.589   0.287
86313SOL     OW60777  13.542   5.889   6.094
86313SOL    HW160778  13.449   5.889   6.071
86313SOL    HW260779  13.579   5.960   6.042
86314SOL     OW60780  12.381   8.667  13.913
86314SOL    HW160781  12.456   8.643  13.858
86314SOL    HW260782  12.406   8.640  14.001
86315SOL     OW60783   3.841   4.846   0.155
86315SOL    HW160784   3.847   4.881   0.066
86315SOL    HW260785   3.837   4.751   0.143
86316SOL     OW60786   6.034  11.550   1.831
86316SOL    HW160787   5.989  11.563   1.747
86316SOL    HW260788   6.000  11.619   1.888
86317SOL     OW60789   7.648  13.294  13.447
86317SOL    HW160790   7.665  13.225  13.512
86317SOL    HW260791   7.666  13.253  13.363
86318SOL     OW60792   4.045   5.082   4.681
86318SOL    HW160793   4.135   5.074   4.711
86318SOL    HW260794   4.025   4.998   4.640
86319SOL     OW60795  13.957  11.446   4.283
86319SOL    HW160796  13.933  11.426   4.374
86319SOL    HW260797  14.022  11.516   4.290
86320SOL     OW60798   2.338   9.055   8.378
86320SOL    HW160799   2.381   8.979   8.339
86320SOL    HW260800   2.383   9.130   8.339
86321SOL     OW60801   7.820   8.669  12.447
86321SOL    HW160802   7.739   8.641  12.490
86321SOL    HW260803   7.799   8.756  12.411
86322SOL     OW60804   9.098  10.020   5.873
86322SOL    HW160805   9.132   9.967   5.945
86322SOL    HW260806   9.166  10.015   5.805
86323SOL     OW60807   8.635  11.552   5.471
86323SOL    HW160808   8.588  11.556   5.554
86323SOL    HW260809   8.695  11.478   5.481
86324SOL     OW60810  13.236  13.891   3.978
86324SOL    HW160811  13.297  13.866   4.046
86324SOL    HW260812  13.167  13.825   3.982
86325SOL     OW60813   3.693   8.306   7.531
86325SOL    HW160814   3.764   8.361   7.499
86325SOL    HW260815   3.707   8.221   7.489
86326SOL     OW60816   9.851   5.528  13.150
86326SOL    HW160817   9.831   5.589  13.079
86326SOL    HW260818   9.857   5.584  13.228
86327SOL     OW60819   2.732  12.644  13.355
86327SOL    HW160820   2.648  12.598  13.362
86327SOL    HW260821   2.723  12.699  13.277
86328SOL     OW60822  14.468  14.574  11.826
86328SOL    HW160823  14.516  14.648  11.864
86328SOL    HW260824  14.526  14.541  11.757
86329SOL     OW60825   9.417   5.886   6.101
86329SOL    HW160826   9.494   5.830   6.105
86329SOL    HW260827   9.395   5.891   6.008
86330SOL     OW60828   2.398   0.235   5.259
86330SOL    HW160829   2.421   0.327   5.248
86330SOL    HW260830   2.337   0.234   5.333
86331SOL     OW60831   6.568  13.421   2.555
86331SOL    HW160832   6.589  13.394   2.645
86331SOL    HW260833   6.636  13.380   2.501
86332SOL     OW60834   5.895   8.931   0.886
86332SOL    HW160835   5.878   9.017   0.848
86332SOL    HW260836   5.811   8.885   0.879
86333SOL     OW60837   2.803   6.640   6.523
86333SOL    HW160838   2.800   6.544   6.515
86333SOL    HW260839   2.722   6.663   6.567
86334SOL     OW60840   7.885   8.034   4.741
86334SOL    HW160841   7.850   8.109   4.693
86334SOL    HW260842   7.844   7.958   4.700
86335SOL     OW60843   1.907  10.933  14.224
86335SOL    HW160844   1.946  11.008  14.179
86335SOL    HW260845   1.891  10.963  14.313
86336SOL     OW60846  13.982   0.272  12.646
86336SOL    HW160847  13.914   0.232  12.702
86336SOL    HW260848  13.967   0.234  12.560
86337SOL     OW60849   3.944   4.892   7.380
86337SOL    HW160850   3.849   4.882   7.376
86337SOL    HW260851   3.968   4.927   7.294
86338SOL     OW60852   7.177   3.014   1.170
86338SOL    HW160853   7.205   2.969   1.091
86338SOL    HW260854   7.253   3.066   1.196
86339SOL     OW60855  13.526   0.922  10.863
86339SOL    HW160856  13.584   0.981  10.815
86339SOL    HW260857  13.505   0.853  10.801
86340SOL     OW60858   9.587  10.039  10.773
86340SOL    HW160859   9.551   9.967  10.721
86340SOL    HW260860   9.676  10.010  10.795
86341SOL     OW60861   3.036   9.569  14.556
86341SOL    HW160862   2.946   9.596  14.537
86341SOL    HW260863   3.086   9.650  14.552
86342SOL     OW60864   5.245  13.074   1.267
86342SOL    HW160865   5.215  12.998   1.217
86342SOL    HW260866   5.300  13.038   1.336
86343SOL     OW60867   6.688  13.990   7.871
86343SOL    HW160868   6.709  14.006   7.779
86343SOL    HW260869   6.714  14.071   7.916
86344SOL     OW60870   7.111  10.979   4.362
86344SOL    HW160871   7.069  10.974   4.448
86344SOL    HW260872   7.094  11.069   4.332
86345SOL     OW60873  14.679  14.652   8.560
86345SOL    HW160874  14.640  14.739   8.555
86345SOL    HW260875  14.640  14.612   8.638
86346SOL     OW60876   8.702   7.708   4.645
86346SOL    HW160877   8.668   7.752   4.723
86346SOL    HW260878   8.784   7.668   4.674
86347SOL     OW60879   8.520  12.201   8.969
86347SOL    HW160880   8.491  12.175   9.057
86347SOL    HW260881   8.570  12.282   8.984
86348SOL     OW60882   4.810  13.667   1.483
86348SOL    HW160883   4.875  13.602   1.509
86348SOL    HW260884   4.860  13.735   1.437
86349SOL     OW60885   5.633   9.854   0.505
86349SOL    HW160886   5.609   9.913   0.434
86349SOL    HW260887   5.698   9.903   0.556
86350SOL     OW60888   1.543  13.280   5.547
86350SOL    HW160889   1.602  13.204   5.542
86350SOL    HW260890   1.601  13.354   5.562
86351SOL     OW60891   5.364   8.841  13.226
86351SOL    HW160892   5.342   8.749  13.244
86351SOL    HW260893   5.403   8.872  13.308
86352SOL     OW60894  13.150  13.701   1.890
86352SOL    HW160895  13.244  13.695   1.872
86352SOL    HW260896  13.110  13.701   1.803
86353SOL     OW60897   5.604   4.817   5.441
86353SOL    HW160898   5.556   4.833   5.522
86353SOL    HW260899   5.657   4.740   5.460
86354SOL     OW60900  10.888   7.524   2.176
86354SOL    HW160901  10.962   7.552   2.122
86354SOL    HW260902  10.876   7.596   2.239
86355SOL     OW60903   7.312   6.281  10.236
86355SOL    HW160904   7.283   6.332  10.160
86355SOL    HW260905   7.297   6.190  10.210
86356SOL     OW60906   7.720   2.110   3.033
86356SOL    HW160907   7.765   2.159   3.102
86356SOL    HW260908   7.673   2.177   2.983
86357SOL     OW60909   1.780   7.217   0.791
86357SOL    HW160910   1.838   7.288   0.764
86357SOL    HW260911   1.696   7.260   0.807
86358SOL     OW60912   6.158   7.740   6.108
86358SOL    HW160913   6.131   7.822   6.150
86358SOL    HW260914   6.253   7.738   6.120
86359SOL     OW60915   8.877   6.867  11.192
86359SOL    HW160916   8.810   6.895  11.254
86359SOL    HW260917   8.837   6.797  11.142
86360SOL     OW60918   4.398   7.909   1.910
86360SOL    HW160919   4.353   7.967   1.848
86360SOL    HW260920   4.452   7.968   1.963
86361SOL     OW60921   1.316   1.339   5.266
86361SOL    HW160922   1.249   1.289   5.220
86361SOL    HW260923   1.281   1.352   5.354
86362SOL     OW60924  11.575   8.085  13.321
86362SOL    HW160925  11.591   8.164  13.269
86362SOL    HW260926  11.483   8.063  13.303
86363SOL     OW60927   3.888   8.285   8.130
86363SOL    HW160928   3.942   8.249   8.060
86363SOL    HW260929   3.905   8.229   8.205
86364SOL     OW60930   9.937   8.098   5.194
86364SOL    HW160931   9.870   8.119   5.129
86364SOL    HW260932   9.982   8.180   5.210
86365SOL     OW60933   5.165   9.740   1.285
86365SOL    HW160934   5.139   9.655   1.321
86365SOL    HW260935   5.259   9.746   1.303
86366SOL     OW60936  12.723   4.377   1.941
86366SOL    HW160937  12.725   4.410   1.851
86366SOL    HW260938  12.768   4.293   1.938
86367SOL     OW60939  13.394   7.140  13.706
86367SOL    HW160940  13.357   7.157  13.619
86367SOL    HW260941  13.455   7.068  13.692
86368SOL     OW60942   5.433  11.885   3.260
86368SOL    HW160943   5.484  11.804   3.253
86368SOL    HW260944   5.431  11.920   3.171
86369SOL     OW60945  11.200   1.026   2.513
86369SOL    HW160946  11.225   0.952   2.568
86369SOL    HW260947  11.171   0.987   2.431
86370SOL     OW60948   9.827   9.886  10.826
86370SOL    HW160949   9.848   9.853  10.914
86370SOL    HW260950   9.908   9.877  10.777
86371SOL     OW60951   9.530   3.817   1.533
86371SOL    HW160952   9.462   3.802   1.598
86371SOL    HW260953   9.520   3.909   1.507
86372SOL     OW60954   1.189  13.755   5.103
86372SOL    HW160955   1.170  13.770   5.010
86372SOL    HW260956   1.279  13.786   5.114
86373SOL     OW60957   2.351  13.958   8.478
86373SOL    HW160958   2.381  13.992   8.394
86373SOL    HW260959   2.379  14.023   8.542
86374SOL     OW60960   1.219  12.616  12.378
86374SOL    HW160961   1.270  12.543  12.412
86374SOL    HW260962   1.238  12.688  12.438
86375SOL     OW60963   2.698   3.516   1.184
86375SOL    HW160964   2.698   3.420   1.191
86375SOL    HW260965   2.607   3.540   1.200
86376SOL     OW60966   5.800  12.243   5.093
86376SOL    HW160967   5.763  12.317   5.142
86376SOL    HW260968   5.758  12.166   5.131
86377SOL     OW60969   5.184   0.476   3.673
86377SOL    HW160970   5.235   0.542   3.626
86377SOL    HW260971   5.093   0.496   3.650
86378SOL     OW60972   6.151   0.137   5.703
86378SOL    HW160973   6.090   0.086   5.651
86378SOL    HW260974   6.143   0.226   5.669
86379SOL     OW60975   7.057  12.010   1.994
86379SOL    HW160976   7.020  12.056   2.069
86379SOL    HW260977   7.070  12.078   1.927
86380SOL     OW60978   4.596  14.698  11.642
86380SOL    HW160979   4.570  14.788  11.657
86380SOL    HW260980   4.635  14.697  11.554
86381SOL     OW60981   0.266  12.646   1.079
86381SOL    HW160982   0.232  12.728   1.043
86381SOL    HW260983   0.194  12.584   1.067
86382SOL     OW60984  11.661   6.639  11.506
86382SOL    HW160985  11.703   6.658  11.423
86382SOL    HW260986  11.733   6.630  11.569
86383SOL     OW60987   5.233   3.015   2.477
86383SOL    HW160988   5.319   2.977   2.458
86383SOL    HW260989   5.247   3.109   2.476
86384SOL     OW60990   4.749   3.577   8.620
86384SOL    HW160991   4.662   3.557   8.585
86384SOL    HW260992   4.734   3.593   8.713
86385SOL     OW60993   2.451   3.396   2.678
86385SOL    HW160994   2.519   3.375   2.614
86385SOL    HW260995   2.433   3.489   2.664
86386SOL     OW60996  11.035  10.658  10.962
86386SOL    HW160997  10.943  10.660  10.989
86386SOL    HW260998  11.066  10.747  10.977
86387SOL     OW60999   2.441   7.952   5.863
86387SOL    HW161000   2.405   7.900   5.792
86387SOL    HW261001   2.534   7.960   5.842
86388SOL     OW61002   2.640   6.656   3.740
86388SOL    HW161003   2.606   6.636   3.653
86388SOL    HW261004   2.587   6.602   3.799
86389SOL     OW61005   8.059   1.605   1.315
86389SOL    HW161006   8.048   1.605   1.410
86389SOL    HW261007   8.028   1.519   1.287
86390SOL     OW61008  14.486  12.696   0.116
86390SOL    HW161009  14.394  12.679   0.137
86390SOL    HW261010  14.509  12.627   0.053
86391SOL     OW61011   8.146   7.559   2.088
86391SOL    HW161012   8.172   7.579   1.998
86391SOL    HW261013   8.056   7.591   2.095
86392SOL     OW61014   1.927   1.667  13.221
86392SOL    HW161015   2.019   1.689  13.208
86392SOL    HW261016   1.896   1.730  13.286
86393SOL     OW61017   2.254   7.122   5.112
86393SOL    HW161018   2.327   7.138   5.052
86393SOL    HW261019   2.193   7.194   5.094
86394SOL     OW61020   4.897  10.050   1.016
86394SOL    HW161021   4.894  10.145   1.009
86394SOL    HW261022   4.913  10.033   1.109
86395SOL     OW61023   3.548  11.939   9.114
86395SOL    HW161024   3.523  11.928   9.206
86395SOL    HW261025   3.467  11.927   9.065
86396SOL     OW61026  12.382  10.133  13.080
86396SOL    HW161027  12.450  10.085  13.034
86396SOL    HW261028  12.308  10.133  13.019
86397SOL     OW61029  14.824  13.090   0.029
86397SOL    HW161030  14.739  13.045   0.025
86397SOL    HW261031  14.803  13.183   0.033
86398SOL     OW61032   6.598   2.107   4.902
86398SOL    HW161033   6.589   2.039   4.836
86398SOL    HW261034   6.508   2.128   4.928
86399SOL     OW61035   0.688   5.689   0.145
86399SOL    HW161036   0.640   5.732   0.074
86399SOL    HW261037   0.621   5.642   0.194
86400SOL     OW61038  11.695   4.587   5.782
86400SOL    HW161039  11.778   4.615   5.823
86400SOL    HW261040  11.642   4.557   5.855
86401SOL     OW61041  12.376   2.672   5.602
86401SOL    HW161042  12.343   2.609   5.666
86401SOL    HW261043  12.410   2.744   5.655
86402SOL     OW61044   6.041   0.018   8.506
86402SOL    HW161045   6.048  14.805   8.483
86402SOL    HW261046   5.963   0.024   8.560
86403SOL     OW61047   6.525   1.678   2.930
86403SOL    HW161048   6.479   1.739   2.987
86403SOL    HW261049   6.606   1.724   2.906
86404SOL     OW61050   7.953  10.466   4.316
86404SOL    HW161051   8.046  10.442   4.320
86404SOL    HW261052   7.944  10.510   4.231
86405SOL     OW61053   3.950   3.744   3.469
86405SOL    HW161054   3.937   3.750   3.564
86405SOL    HW261055   4.036   3.702   3.459
86406SOL     OW61056   8.604  12.231  14.138
86406SOL    HW161057   8.598  12.325  14.159
86406SOL    HW261058   8.554  12.222  14.056
86407SOL     OW61059  10.340   4.106   1.658
86407SOL    HW161060  10.321   4.015   1.679
86407SOL    HW261061  10.257   4.152   1.674
86408SOL     OW61062   4.772  14.334   7.900
86408SOL    HW161063   4.817  14.394   7.840
86408SOL    HW261064   4.679  14.346   7.880
86409SOL     OW61065   6.834   2.420  11.507
86409SOL    HW161066   6.841   2.457  11.595
86409SOL    HW261067   6.904   2.462  11.458
86410SOL     OW61068   2.628  12.233  13.136
86410SOL    HW161069   2.638  12.153  13.188
86410SOL    HW261070   2.547  12.220  13.087
86411SOL     OW61071   3.643  12.389  12.993
86411SOL    HW161072   3.680  12.321  13.051
86411SOL    HW261073   3.654  12.470  13.042
86412SOL     OW61074  12.996   2.267   4.535
86412SOL    HW161075  12.980   2.289   4.444
86412SOL    HW261076  12.931   2.318   4.584
86413SOL     OW61077  11.572  11.547  10.651
86413SOL    HW161078  11.523  11.608  10.597
86413SOL    HW261079  11.634  11.505  10.591
86414SOL     OW61080  12.345   1.739  11.877
86414SOL    HW161081  12.319   1.670  11.816
86414SOL    HW261082  12.270   1.748  11.937
86415SOL     OW61083  10.809   9.675   8.405
86415SOL    HW161084  10.892   9.635   8.433
86415SOL    HW261085  10.759   9.602   8.369
86416SOL     OW61086   8.566  10.957   7.848
86416SOL    HW161087   8.537  11.047   7.830
86416SOL    HW261088   8.486  10.907   7.858
86417SOL     OW61089   0.061   1.453   2.966
86417SOL    HW161090   0.126   1.405   3.018
86417SOL    HW261091  14.879   1.386   2.938
86418SOL     OW61092   8.515  14.662   1.105
86418SOL    HW161093   8.458  14.731   1.073
86418SOL    HW261094   8.457  14.586   1.116
86419SOL     OW61095  13.468   7.134   1.482
86419SOL    HW161096  13.391   7.190   1.484
86419SOL    HW261097  13.518   7.166   1.406
86420SOL     OW61098  13.692  14.464  10.679
86420SOL    HW161099  13.629  14.537  10.674
86420SOL    HW261100  13.702  14.448  10.773
86421SOL     OW61101   4.735   3.492   0.350
86421SOL    HW161102   4.692   3.409   0.332
86421SOL    HW261103   4.684   3.557   0.302
86422SOL     OW61104   5.095   0.600   1.918
86422SOL    HW161105   5.086   0.695   1.920
86422SOL    HW261106   5.030   0.571   1.854
86423SOL     OW61107   7.945  11.126   8.293
86423SOL    HW161108   7.877  11.059   8.290
86423SOL    HW261109   8.011  11.095   8.231
86424SOL     OW61110   4.426   0.752   9.143
86424SOL    HW161111   4.407   0.661   9.167
86424SOL    HW261112   4.340   0.795   9.142
86425SOL     OW61113  13.107  10.073  10.440
86425SOL    HW161114  13.130  10.021  10.517
86425SOL    HW261115  13.190  10.088  10.396
86426SOL     OW61116   8.434   7.259  14.437
86426SOL    HW161117   8.407   7.299  14.520
86426SOL    HW261118   8.416   7.166  14.447
86427SOL     OW61119  10.516  14.109   1.972
86427SOL    HW161120  10.592  14.148   2.016
86427SOL    HW261121  10.445  14.118   2.035
86428SOL     OW61122   5.042   0.454   3.186
86428SOL    HW161123   5.010   0.521   3.246
86428SOL    HW261124   5.026   0.489   3.099
86429SOL     OW61125   9.656  10.666   3.335
86429SOL    HW161126   9.730  10.643   3.279
86429SOL    HW261127   9.689  10.656   3.424
86430SOL     OW61128   2.978   7.044   5.191
86430SOL    HW161129   3.019   7.070   5.273
86430SOL    HW261130   2.968   6.949   5.198
86431SOL     OW61131   2.275  10.098  11.592
86431SOL    HW161132   2.222  10.018  11.588
86431SOL    HW261133   2.221  10.159  11.641
86432SOL     OW61134  10.090   7.850   9.792
86432SOL    HW161135  10.019   7.789   9.774
86432SOL    HW261136  10.047   7.934   9.806
86433SOL     OW61137  13.378   0.155   7.367
86433SOL    HW161138  13.404   0.246   7.352
86433SOL    HW261139  13.443   0.103   7.320
86434SOL     OW61140   3.681   2.242   7.967
86434SOL    HW161141   3.603   2.285   7.931
86434SOL    HW261142   3.667   2.241   8.061
86435SOL     OW61143  11.271   5.303   7.240
86435SOL    HW161144  11.328   5.227   7.249
86435SOL    HW261145  11.257   5.313   7.146
86436SOL     OW61146  14.814   4.600   5.779
86436SOL    HW161147  14.852   4.680   5.814
86436SOL    HW261148  14.880   4.532   5.797
86437SOL     OW61149  11.472   6.868   5.483
86437SOL    HW161150  11.397   6.818   5.514
86437SOL    HW261151  11.438   6.919   5.409
86438SOL     OW61152   2.144   5.800   5.828
86438SOL    HW161153   2.123   5.884   5.788
86438SOL    HW261154   2.122   5.735   5.762
86439SOL     OW61155   4.443   2.277   0.093
86439SOL    HW161156   4.459   2.253   0.002
86439SOL    HW261157   4.348   2.272   0.103
86440SOL     OW61158   7.643   8.010  12.167
86440SOL    HW161159   7.732   8.044  12.169
86440SOL    HW261160   7.632   7.966  12.252
86441SOL     OW61161   0.687  10.898   0.146
86441SOL    HW161162   0.641  10.974   0.110
86441SOL    HW261163   0.659  10.824   0.092
86442SOL     OW61164   9.118   3.909   7.820
86442SOL    HW161165   9.079   3.835   7.866
86442SOL    HW261166   9.046   3.946   7.769
86443SOL     OW61167   0.917   1.267   2.603
86443SOL    HW161168   0.920   1.286   2.509
86443SOL    HW261169   0.826   1.243   2.619
86444SOL     OW61170   9.558  10.891   4.871
86444SOL    HW161171   9.504  10.960   4.910
86444SOL    HW261172   9.572  10.829   4.943
86445SOL     OW61173   7.734   6.191   0.501
86445SOL    HW161174   7.766   6.108   0.466
86445SOL    HW261175   7.784   6.204   0.581
86446SOL     OW61176   7.182   4.332  11.762
86446SOL    HW161177   7.212   4.242  11.747
86446SOL    HW261178   7.095   4.335  11.722
86447SOL     OW61179   9.073   1.110  10.272
86447SOL    HW161180   9.162   1.076  10.282
86447SOL    HW261181   9.066   1.179  10.337
86448SOL     OW61182  11.182   6.296   3.461
86448SOL    HW161183  11.144   6.276   3.375
86448SOL    HW261184  11.256   6.353   3.442
86449SOL     OW61185   8.089  13.176   7.002
86449SOL    HW161186   8.136  13.249   6.962
86449SOL    HW261187   8.147  13.100   6.988
86450SOL     OW61188   3.428  14.321   2.791
86450SOL    HW161189   3.450  14.336   2.699
86450SOL    HW261190   3.387  14.403   2.819
86451SOL     OW61191   7.263  12.145   7.828
86451SOL    HW161192   7.242  12.235   7.802
86451SOL    HW261193   7.332  12.155   7.894
86452SOL     OW61194  13.910   9.872  12.694
86452SOL    HW161195  13.834   9.923  12.723
86452SOL    HW261196  13.877   9.783  12.682
86453SOL     OW61197   6.100   8.150   3.583
86453SOL    HW161198   6.174   8.199   3.548
86453SOL    HW261199   6.033   8.155   3.515
86454SOL     OW61200   3.724   5.699   0.883
86454SOL    HW161201   3.652   5.717   0.824
86454SOL    HW261202   3.709   5.609   0.914
86455SOL     OW61203   2.252   3.312  12.936
86455SOL    HW161204   2.225   3.321  12.845
86455SOL    HW261205   2.194   3.371  12.984
86456SOL     OW61206   7.990  14.116   1.479
86456SOL    HW161207   7.989  14.069   1.562
86456SOL    HW261208   8.082  14.137   1.464
86457SOL     OW61209  11.249   5.911  11.783
86457SOL    HW161210  11.209   5.944  11.702
86457SOL    HW261211  11.210   5.965  11.852
86458SOL     OW61212   1.295   9.392   9.099
86458SOL    HW161213   1.228   9.457   9.079
86458SOL    HW261214   1.354   9.394   9.023
86459SOL     OW61215  13.068   8.360  14.823
86459SOL    HW161216  13.007   8.296  14.861
86459SOL    HW261217  13.150   8.311  14.812
86460SOL     OW61218   4.410   6.152   8.576
86460SOL    HW161219   4.485   6.197   8.615
86460SOL    HW261220   4.447   6.102   8.504
86461SOL     OW61221   5.069  13.382   7.578
86461SOL    HW161222   5.057  13.474   7.554
86461SOL    HW261223   5.093  13.339   7.496
86462SOL     OW61224  11.738  10.468   5.955
86462SOL    HW161225  11.644  10.476   5.940
86462SOL    HW261226  11.745  10.429   6.042
86463SOL     OW61227   7.532  12.564   6.088
86463SOL    HW161228   7.484  12.481   6.092
86463SOL    HW261229   7.466  12.630   6.068
86464SOL     OW61230   6.097   6.803  12.008
86464SOL    HW161231   6.025   6.853  11.970
86464SOL    HW261232   6.058   6.718  12.030
86465SOL     OW61233   7.341  10.197   9.449
86465SOL    HW161234   7.407  10.265   9.457
86465SOL    HW261235   7.359  10.138   9.523
86466SOL     OW61236   2.578   4.544   6.607
86466SOL    HW161237   2.673   4.550   6.620
86466SOL    HW261238   2.567   4.544   6.512
86467SOL     OW61239  12.386  12.945   1.321
86467SOL    HW161240  12.383  13.035   1.288
86467SOL    HW261241  12.296  12.925   1.346
86468SOL     OW61242   8.297  10.025   1.713
86468SOL    HW161243   8.284  10.090   1.645
86468SOL    HW261244   8.288  10.074   1.795
86469SOL     OW61245  14.297   8.909  11.813
86469SOL    HW161246  14.239   8.966  11.762
86469SOL    HW261247  14.383   8.949  11.804
86470SOL     OW61248   4.767   1.107  13.626
86470SOL    HW161249   4.806   1.029  13.587
86470SOL    HW261250   4.825   1.179  13.601
86471SOL     OW61251  13.899   0.601  13.214
86471SOL    HW161252  13.900   0.688  13.173
86471SOL    HW261253  13.962   0.607  13.285
86472SOL     OW61254   0.644   6.850  14.804
86472SOL    HW161255   0.650   6.872  14.711
86472SOL    HW261256   0.610   6.928  14.846
86473SOL     OW61257   2.588   1.928   7.943
86473SOL    HW161258   2.632   2.011   7.959
86473SOL    HW261259   2.654   1.861   7.962
86474SOL     OW61260   1.489  10.611  13.720
86474SOL    HW161261   1.548  10.542  13.753
86474SOL    HW261262   1.500  10.608  13.625
86475SOL     OW61263  13.685   9.984   2.214
86475SOL    HW161264  13.612   9.988   2.151
86475SOL    HW261265  13.658  10.043   2.284
86476SOL     OW61266   9.018   3.871  14.186
86476SOL    HW161267   9.057   3.935  14.245
86476SOL    HW261268   8.984   3.802  14.243
86477SOL     OW61269   0.331  12.875  11.753
86477SOL    HW161270   0.321  12.962  11.794
86477SOL    HW261271   0.257  12.868  11.693
86478SOL     OW61272   8.883   7.056   1.369
86478SOL    HW161273   8.873   7.060   1.464
86478SOL    HW261274   8.841   6.974   1.343
86479SOL     OW61275   5.804   2.009  10.135
86479SOL    HW161276   5.765   2.096  10.131
86479SOL    HW261277   5.849   2.000  10.051
86480SOL     OW61278   9.376  14.866   5.515
86480SOL    HW161279   9.366   0.080   5.499
86480SOL    HW261280   9.298  14.842   5.565
86481SOL     OW61281  11.590   3.266   4.552
86481SOL    HW161282  11.605   3.296   4.642
86481SOL    HW261283  11.495   3.265   4.543
86482SOL     OW61284  11.917  11.250   0.803
86482SOL    HW161285  11.994  11.204   0.769
86482SOL    HW261286  11.844  11.191   0.784
86483SOL     OW61287   9.529   1.925   8.067
86483SOL    HW161288   9.514   1.834   8.092
86483SOL    HW261289   9.463   1.974   8.118
86484SOL     OW61290   6.370   5.800  14.184
86484SOL    HW161291   6.453   5.775  14.226
86484SOL    HW261292   6.341   5.721  14.139
86485SOL     OW61293   8.619  11.751   7.910
86485SOL    HW161294   8.579  11.826   7.952
86485SOL    HW261295   8.597  11.760   7.817
86486SOL     OW61296   9.036   6.706  10.166
86486SOL    HW161297   9.057   6.613  10.174
86486SOL    HW261298   9.073   6.731  10.081
86487SOL     OW61299   6.486   6.390   4.605
86487SOL    HW161300   6.494   6.306   4.560
86487SOL    HW261301   6.527   6.453   4.546
86488SOL     OW61302  13.068   0.475  12.894
86488SOL    HW161303  13.073   0.491  12.800
86488SOL    HW261304  12.978   0.498  12.918
86489SOL     OW61305   8.075   9.163  11.088
86489SOL    HW161306   8.073   9.100  11.016
86489SOL    HW261307   7.986   9.200  11.090
86490SOL     OW61308   7.593   9.789  11.308
86490SOL    HW161309   7.541   9.868  11.321
86490SOL    HW261310   7.537   9.732  11.256
86491SOL     OW61311   5.762   5.234   9.646
86491SOL    HW161312   5.853   5.210   9.629
86491SOL    HW261313   5.727   5.259   9.560
86492SOL     OW61314   8.967   3.533  13.417
86492SOL    HW161315   8.926   3.514  13.501
86492SOL    HW261316   8.995   3.447  13.384
86493SOL     OW61317  10.594   1.644  12.155
86493SOL    HW161318  10.647   1.655  12.076
86493SOL    HW261319  10.563   1.554  12.151
86494SOL     OW61320  13.987  14.296   9.190
86494SOL    HW161321  13.944  14.339   9.263
86494SOL    HW261322  14.030  14.219   9.229
86495SOL     OW61323  10.361  14.182   5.028
86495SOL    HW161324  10.433  14.218   5.080
86495SOL    HW261325  10.392  14.095   5.002
86496SOL     OW61326   4.590   9.742  14.427
86496SOL    HW161327   4.666   9.704  14.383
86496SOL    HW261328   4.525   9.673  14.427
86497SOL     OW61329   8.917  14.703  13.424
86497SOL    HW161330   8.928  14.644  13.350
86497SOL    HW261331   8.916  14.791  13.385
86498SOL     OW61332  11.809   2.419   2.749
86498SOL    HW161333  11.812   2.454   2.660
86498SOL    HW261334  11.896   2.383   2.764
86499SOL     OW61335  12.867   2.189   6.502
86499SOL    HW161336  12.833   2.100   6.504
86499SOL    HW261337  12.892   2.208   6.592
86500SOL     OW61338  10.364   9.600  12.022
86500SOL    HW161339  10.334   9.568  11.937
86500SOL    HW261340  10.459   9.602  12.015
86501SOL     OW61341   6.125   4.050  11.934
86501SOL    HW161342   6.105   3.999  12.012
86501SOL    HW261343   6.056   4.027  11.872
86502SOL     OW61344   5.590  12.106  11.403
86502SOL    HW161345   5.677  12.146  11.407
86502SOL    HW261346   5.576  12.069  11.490
86503SOL     OW61347   9.962  10.775   7.375
86503SOL    HW161348  10.006  10.739   7.453
86503SOL    HW261349  10.023  10.841   7.342
86504SOL     OW61350   8.381   5.500   3.286
86504SOL    HW161351   8.325   5.466   3.216
86504SOL    HW261352   8.337   5.475   3.367
86505SOL     OW61353  14.033   8.330  11.845
86505SOL    HW161354  14.016   8.403  11.786
86505SOL    HW261355  14.118   8.350  11.885
86506SOL     OW61356   5.067  13.535   6.761
86506SOL    HW161357   4.977  13.522   6.731
86506SOL    HW261358   5.059  13.578   6.846
86507SOL     OW61359   7.608   8.676   4.978
86507SOL    HW161360   7.590   8.651   5.069
86507SOL    HW261361   7.563   8.759   4.966
86508SOL     OW61362   6.311   2.288   0.153
86508SOL    HW161363   6.365   2.258   0.080
86508SOL    HW261364   6.315   2.218   0.217
86509SOL     OW61365  10.082   8.207   7.230
86509SOL    HW161366  10.049   8.224   7.142
86509SOL    HW261367  10.137   8.283   7.250
86510SOL     OW61368   9.124  10.543   9.132
86510SOL    HW161369   9.084  10.514   9.214
86510SOL    HW261370   9.054  10.588   9.085
86511SOL     OW61371  12.079  13.056   6.883
86511SOL    HW161372  11.997  13.098   6.908
86511SOL    HW261373  12.140  13.129   6.871
86512SOL     OW61374   8.446   5.145  10.515
86512SOL    HW161375   8.388   5.114  10.584
86512SOL    HW261376   8.524   5.177  10.561
86513SOL     OW61377   9.998   2.749  12.253
86513SOL    HW161378  10.046   2.670  12.228
86513SOL    HW261379   9.996   2.802  12.173
86514SOL     OW61380   7.358  14.068   7.968
86514SOL    HW161381   7.264  14.069   7.952
86514SOL    HW261382   7.388  13.984   7.931
86515SOL     OW61383   0.324   5.827  10.536
86515SOL    HW161384   0.380   5.787  10.604
86515SOL    HW261385   0.385   5.846  10.464
86516SOL     OW61386   9.540   8.794   1.895
86516SOL    HW161387   9.552   8.700   1.883
86516SOL    HW261388   9.527   8.828   1.806
86517SOL     OW61389  14.258  13.439   2.707
86517SOL    HW161390  14.242  13.510   2.769
86517SOL    HW261391  14.314  13.377   2.755
86518SOL     OW61392   1.286   4.743  11.405
86518SOL    HW161393   1.304   4.745  11.499
86518SOL    HW261394   1.262   4.652  11.388
86519SOL     OW61395  14.568   1.118   3.537
86519SOL    HW161396  14.587   1.173   3.613
86519SOL    HW261397  14.551   1.180   3.466
86520SOL     OW61398   0.541  11.761  14.803
86520SOL    HW161399   0.585  11.789  14.722
86520SOL    HW261400   0.513  11.843  14.843
86521SOL     OW61401   7.396   8.852  14.713
86521SOL    HW161402   7.448   8.876  14.636
86521SOL    HW261403   7.305   8.866  14.686
86522SOL     OW61404   5.979   0.859  11.290
86522SOL    HW161405   5.918   0.926  11.321
86522SOL    HW261406   5.955   0.780  11.339
86523SOL     OW61407   0.670   2.788  14.697
86523SOL    HW161408   0.637   2.698  14.687
86523SOL    HW261409   0.632   2.836  14.624
86524SOL     OW61410   9.873  12.871   0.031
86524SOL    HW161411   9.930  12.832  14.844
86524SOL    HW261412   9.878  12.965   0.015
86525SOL     OW61413   1.372  12.497   1.589
86525SOL    HW161414   1.368  12.513   1.495
86525SOL    HW261415   1.400  12.581   1.626
86526SOL     OW61416  11.536   6.440  14.000
86526SOL    HW161417  11.618   6.482  13.973
86526SOL    HW261418  11.546   6.349  13.973
86527SOL     OW61419  14.578   2.698   7.169
86527SOL    HW161420  14.508   2.753   7.202
86527SOL    HW261421  14.611   2.651   7.246
86528SOL     OW61422   9.710   6.763  14.598
86528SOL    HW161423   9.759   6.827  14.651
86528SOL    HW261424   9.725   6.791  14.508
86529SOL     OW61425   1.815   4.892  14.845
86529SOL    HW161426   1.815   4.887  14.750
86529SOL    HW261427   1.754   4.963  14.866
86530SOL     OW61428   2.662  10.564   4.223
86530SOL    HW161429   2.752  10.582   4.251
86530SOL    HW261430   2.658  10.469   4.217
86531SOL     OW61431  11.622   4.764  12.490
86531SOL    HW161432  11.655   4.844  12.530
86531SOL    HW261433  11.636   4.697  12.557
86532SOL     OW61434  11.966   0.515   0.308
86532SOL    HW161435  11.889   0.549   0.352
86532SOL    HW261436  12.022   0.592   0.296
86533SOL     OW61437   7.796   3.044   8.874
86533SOL    HW161438   7.806   3.137   8.850
86533SOL    HW261439   7.751   3.005   8.799
86534SOL     OW61440   4.705   2.200  11.944
86534SOL    HW161441   4.766   2.270  11.920
86534SOL    HW261442   4.738   2.167  12.027
86535SOL     OW61443  10.530  14.760   1.074
86535SOL    HW161444  10.574  14.684   1.111
86535SOL    HW261445  10.584  14.785   0.999
86536SOL     OW61446   9.433   0.983  14.575
86536SOL    HW161447   9.485   0.988  14.655
86536SOL    HW261448   9.343   0.997  14.604
86537SOL     OW61449  11.353   4.565   8.073
86537SOL    HW161450  11.413   4.497   8.104
86537SOL    HW261451  11.386   4.645   8.114
86538SOL     OW61452   4.349   8.356  12.732
86538SOL    HW161453   4.328   8.301  12.657
86538SOL    HW261454   4.377   8.439  12.694
86539SOL     OW61455  10.282   5.111   6.769
86539SOL    HW161456  10.275   5.205   6.753
86539SOL    HW261457  10.225   5.071   6.704
86540SOL     OW61458  10.759   4.619   0.274
86540SOL    HW161459  10.750   4.705   0.234
86540SOL    HW261460  10.669   4.588   0.285
86541SOL     OW61461   8.780  11.181   9.423
86541SOL    HW161462   8.796  11.275   9.423
86541SOL    HW261463   8.695  11.171   9.380
86542SOL     OW61464   7.308   8.371  11.940
86542SOL    HW161465   7.343   8.412  12.019
86542SOL    HW261466   7.335   8.279  11.947
86543SOL     OW61467  14.317   4.598   7.415
86543SOL    HW161468  14.256   4.572   7.346
86543SOL    HW261469  14.402   4.563   7.386
86544SOL     OW61470  13.797   1.410  13.465
86544SOL    HW161471  13.779   1.500  13.492
86544SOL    HW261472  13.888   1.395  13.488
86545SOL     OW61473   9.184   5.623   9.548
86545SOL    HW161474   9.257   5.670   9.506
86545SOL    HW261475   9.163   5.552   9.487
86546SOL     OW61476   4.531  12.136  12.386
86546SOL    HW161477   4.611  12.167  12.344
86546SOL    HW261478   4.543  12.041  12.394
86547SOL     OW61479   6.706   1.878   2.742
86547SOL    HW161480   6.672   1.844   2.660
86547SOL    HW261481   6.691   1.973   2.736
86548SOL     OW61482   7.993   4.553   2.781
86548SOL    HW161483   8.080   4.556   2.820
86548SOL    HW261484   7.997   4.481   2.718
86549SOL     OW61485   0.638  10.523  10.224
86549SOL    HW161486   0.575  10.472  10.275
86549SOL    HW261487   0.615  10.504  10.133
86550SOL     OW61488   8.405  10.936  11.901
86550SOL    HW161489   8.494  10.952  11.930
86550SOL    HW261490   8.373  11.022  11.874
86551SOL     OW61491  13.614  13.601  12.602
86551SOL    HW161492  13.709  13.612  12.598
86551SOL    HW261493  13.585  13.611  12.512
86552SOL     OW61494   7.113   8.318  13.006
86552SOL    HW161495   7.065   8.238  12.986
86552SOL    HW261496   7.205   8.292  13.006
86553SOL     OW61497   9.556  10.544  12.359
86553SOL    HW161498   9.613  10.487  12.308
86553SOL    HW261499   9.511  10.598  12.294
86554SOL     OW61500   1.462   2.561  14.679
86554SOL    HW161501   1.470   2.577  14.773
86554SOL    HW261502   1.530   2.496  14.659
86555SOL     OW61503   2.061  11.414   9.082
86555SOL    HW161504   2.107  11.399   9.000
86555SOL    HW261505   2.124  11.391   9.150
86556SOL     OW61506   0.771  12.307   9.459
86556SOL    HW161507   0.854  12.260   9.448
86556SOL    HW261508   0.791  12.375   9.523
86557SOL     OW61509  10.539  13.811   0.892
86557SOL    HW161510  10.461  13.804   0.947
86557SOL    HW261511  10.594  13.737   0.919
86558SOL     OW61512  12.116   6.407   2.685
86558SOL    HW161513  12.111   6.502   2.674
86558SOL    HW261514  12.205   6.384   2.655
86559SOL     OW61515  10.901   9.291   0.426
86559SOL    HW161516  10.833   9.273   0.492
86559SOL    HW261517  10.955   9.359   0.465
86560SOL     OW61518   7.079   6.054  13.871
86560SOL    HW161519   7.126   6.002  13.935
86560SOL    HW261520   7.031   6.119  13.923
86561SOL     OW61521   3.035  12.195   0.843
86561SOL    HW161522   3.096  12.177   0.772
86561SOL    HW261523   3.091  12.205   0.920
86562SOL     OW61524   5.771  10.961  13.993
86562SOL    HW161525   5.751  10.893  14.058
86562SOL    HW261526   5.720  10.936  13.916
86563SOL     OW61527   2.961   0.011  11.005
86563SOL    HW161528   2.996   0.100  10.995
86563SOL    HW261529   2.873   0.024  11.042
86564SOL     OW61530   4.678   9.531   4.672
86564SOL    HW161531   4.620   9.466   4.631
86564SOL    HW261532   4.671   9.512   4.766
86565SOL     OW61533   7.690  11.729  11.092
86565SOL    HW161534   7.616  11.718  11.033
86565SOL    HW261535   7.697  11.645  11.137
86566SOL     OW61536   5.682   3.495  13.217
86566SOL    HW161537   5.633   3.504  13.298
86566SOL    HW261538   5.619   3.457  13.155
86567SOL     OW61539   9.825   2.746   4.919
86567SOL    HW161540   9.757   2.777   4.858
86567SOL    HW261541   9.906   2.783   4.884
86568SOL     OW61542   8.490   6.620   6.138
86568SOL    HW161543   8.567   6.563   6.140
86568SOL    HW261544   8.515   6.691   6.079
86569SOL     OW61545  10.753   0.184   7.252
86569SOL    HW161546  10.734   0.194   7.346
86569SOL    HW261547  10.837   0.138   7.250
86570SOL     OW61548   6.336  13.143  14.259
86570SOL    HW161549   6.308  13.179  14.175
86570SOL    HW261550   6.261  13.091  14.289
86571SOL     OW61551   0.522   3.532   7.932
86571SOL    HW161552   0.611   3.563   7.945
86571SOL    HW261553   0.473   3.611   7.908
86572SOL     OW61554   5.896   5.607   6.153
86572SOL    HW161555   5.941   5.573   6.076
86572SOL    HW261556   5.876   5.698   6.131
86573SOL     OW61557   7.974   5.135   1.584
86573SOL    HW161558   8.054   5.145   1.532
86573SOL    HW261559   7.955   5.223   1.617
86574SOL     OW61560   3.797   4.489   5.808
86574SOL    HW161561   3.826   4.505   5.898
86574SOL    HW261562   3.774   4.576   5.775
86575SOL     OW61563   2.230   6.250  10.520
86575SOL    HW161564   2.220   6.198  10.440
86575SOL    HW261565   2.322   6.238  10.545
86576SOL     OW61566   8.687  14.454  13.158
86576SOL    HW161567   8.672  14.361  13.140
86576SOL    HW261568   8.773  14.472  13.118
86577SOL     OW61569   3.295   6.250   0.929
86577SOL    HW161570   3.283   6.343   0.949
86577SOL    HW261571   3.222   6.207   0.972
86578SOL     OW61572   2.250   3.358   9.481
86578SOL    HW161573   2.257   3.329   9.572
86578SOL    HW261574   2.337   3.345   9.444
86579SOL     OW61575   3.289  12.460  10.770
86579SOL    HW161576   3.348  12.408  10.826
86579SOL    HW261577   3.259  12.399  10.703
86580SOL     OW61578   6.796   4.955   8.293
86580SOL    HW161579   6.819   4.865   8.316
86580SOL    HW261580   6.747   4.947   8.210
86581SOL     OW61581  11.268   3.600  14.640
86581SOL    HW161582  11.259   3.665  14.571
86581SOL    HW261583  11.191   3.612  14.695
86582SOL     OW61584   3.598   5.817   5.658
86582SOL    HW161585   3.679   5.774   5.688
86582SOL    HW261586   3.528   5.759   5.687
86583SOL     OW61587  11.054   4.965  13.418
86583SOL    HW161588  11.041   4.919  13.335
86583SOL    HW261589  10.991   5.037  13.417
86584SOL     OW61590   2.099   5.447  10.717
86584SOL    HW161591   2.109   5.355  10.692
86584SOL    HW261592   2.025   5.478  10.666
86585SOL     OW61593  14.641   9.088   6.415
86585SOL    HW161594  14.595   9.038   6.347
86585SOL    HW261595  14.733   9.064   6.404
86586SOL     OW61596  12.904  14.685   5.046
86586SOL    HW161597  12.887  14.665   5.138
86586SOL    HW261598  12.925  14.600   5.007
86587SOL     OW61599   3.449  13.569   7.198
86587SOL    HW161600   3.455  13.516   7.119
86587SOL    HW261601   3.478  13.510   7.268
86588SOL     OW61602   5.381   1.729   3.796
86588SOL    HW161603   5.415   1.655   3.847
86588SOL    HW261604   5.459   1.778   3.771
86589SOL     OW61605   6.287   7.704   9.074
86589SOL    HW161606   6.198   7.733   9.056
86589SOL    HW261607   6.342   7.768   9.030
86590SOL     OW61608   0.915  12.858  14.328
86590SOL    HW161609   0.917  12.801  14.251
86590SOL    HW261610   0.960  12.808  14.396
86591SOL     OW61611  13.356   7.671  10.099
86591SOL    HW161612  13.306   7.746  10.134
86591SOL    HW261613  13.309   7.647  10.020
86592SOL     OW61614   5.313  13.504   6.645
86592SOL    HW161615   5.374  13.521   6.718
86592SOL    HW261616   5.226  13.508   6.685
86593SOL     OW61617   7.483   5.530   9.181
86593SOL    HW161618   7.492   5.580   9.100
86593SOL    HW261619   7.509   5.441   9.157
86594SOL     OW61620  11.151  14.562   1.426
86594SOL    HW161621  11.172  14.544   1.334
86594SOL    HW261622  11.087  14.495   1.450
86595SOL     OW61623  11.689   1.512   2.195
86595SOL    HW161624  11.764   1.482   2.246
86595SOL    HW261625  11.632   1.555   2.260
86596SOL     OW61626  14.284  10.698   6.734
86596SOL    HW161627  14.378  10.712   6.721
86596SOL    HW261628  14.274  10.693   6.829
86597SOL     OW61629   6.530   3.383  13.192
86597SOL    HW161630   6.484   3.361  13.273
86597SOL    HW261631   6.564   3.471  13.207
86598SOL     OW61632   3.217   9.247   8.519
86598SOL    HW161633   3.126   9.218   8.512
86598SOL    HW261634   3.262   9.176   8.564
86599SOL     OW61635   4.783  11.575   8.633
86599SOL    HW161636   4.714  11.528   8.586
86599SOL    HW261637   4.740  11.605   8.714
86600SOL     OW61638  14.509  10.639   8.794
86600SOL    HW161639  14.562  10.700   8.845
86600SOL    HW261640  14.445  10.605   8.856
86601SOL     OW61641  12.370   6.598   3.514
86601SOL    HW161642  12.301   6.539   3.483
86601SOL    HW261643  12.408   6.553   3.589
86602SOL     OW61644  10.543   7.896   8.822
86602SOL    HW161645  10.455   7.923   8.847
86602SOL    HW261646  10.593   7.977   8.818
86603SOL     OW61647   1.248   5.015   5.528
86603SOL    HW161648   1.188   4.976   5.465
86603SOL    HW261649   1.196   5.082   5.572
86604SOL     OW61650   5.409   0.459  12.669
86604SOL    HW161651   5.323   0.477  12.631
86604SOL    HW261652   5.394   0.459  12.763
86605SOL     OW61653  13.529   3.212   6.501
86605SOL    HW161654  13.607   3.248   6.545
86605SOL    HW261655  13.491   3.286   6.455
86606SOL     OW61656   6.854  12.054   1.574
86606SOL    HW161657   6.843  11.985   1.509
86606SOL    HW261658   6.805  12.023   1.651
86607SOL     OW61659   9.738  13.360  14.384
86607SOL    HW161660   9.735  13.312  14.467
86607SOL    HW261661   9.777  13.298  14.322
86608SOL     OW61662   6.759  12.762  13.007
86608SOL    HW161663   6.734  12.794  13.094
86608SOL    HW261664   6.693  12.697  12.985
86609SOL     OW61665   4.346  11.465   5.317
86609SOL    HW161666   4.363  11.374   5.341
86609SOL    HW261667   4.282  11.460   5.246
86610SOL     OW61668  12.472   5.123  11.597
86610SOL    HW161669  12.557   5.089  11.570
86610SOL    HW261670  12.476   5.217  11.578
86611SOL     OW61671  10.828   2.366  13.555
86611SOL    HW161672  10.758   2.328  13.502
86611SOL    HW261673  10.898   2.385  13.493
86612SOL     OW61674   7.121   9.780  12.452
86612SOL    HW161675   7.141   9.845  12.520
86612SOL    HW261676   7.172   9.703  12.476
86613SOL     OW61677   8.082  12.666   7.642
86613SOL    HW161678   8.043  12.668   7.730
86613SOL    HW261679   8.020  12.615   7.590
86614SOL     OW61680  12.323   3.604   8.261
86614SOL    HW161681  12.402   3.645   8.296
86614SOL    HW261682  12.265   3.593   8.336
86615SOL     OW61683   4.515   8.116   2.031
86615SOL    HW161684   4.576   8.167   2.084
86615SOL    HW261685   4.510   8.164   1.948
86616SOL     OW61686  14.767   2.709   2.349
86616SOL    HW161687  14.824   2.778   2.315
86616SOL    HW261688  14.725   2.672   2.271
86617SOL     OW61689   2.213   4.105   9.497
86617SOL    HW161690   2.170   4.040   9.553
86617SOL    HW261691   2.301   4.068   9.482
86618SOL     OW61692   1.589  10.732  13.005
86618SOL    HW161693   1.669  10.692  13.039
86618SOL    HW261694   1.543  10.763  13.083
86619SOL     OW61695   0.167  12.849  10.422
86619SOL    HW161696   0.217  12.903  10.361
86619SOL    HW261697   0.219  12.769  10.432
86620SOL     OW61698   0.680   2.608  10.430
86620SOL    HW161699   0.648   2.519  10.442
86620SOL    HW261700   0.614   2.664  10.470
86621SOL     OW61701   4.176  12.525   1.603
86621SOL    HW161702   4.231  12.478   1.667
86621SOL    HW261703   4.207  12.495   1.518
86622SOL     OW61704   5.871   1.793   0.843
86622SOL    HW161705   5.882   1.822   0.933
86622SOL    HW261706   5.785   1.825   0.817
86623SOL     OW61707  10.671  11.896   6.050
86623SOL    HW161708  10.596  11.916   5.993
86623SOL    HW261709  10.660  11.804   6.073
86624SOL     OW61710   9.360   0.269  13.631
86624SOL    HW161711   9.290   0.250  13.694
86624SOL    HW261712   9.424   0.320  13.681
86625SOL     OW61713  12.275   0.278   1.322
86625SOL    HW161714  12.305   0.334   1.251
86625SOL    HW261715  12.287   0.189   1.289
86626SOL     OW61716   1.473  14.444   4.706
86626SOL    HW161717   1.382  14.457   4.733
86626SOL    HW261718   1.467  14.426   4.612
86627SOL     OW61719   3.380   9.730  13.549
86627SOL    HW161720   3.334   9.809  13.520
86627SOL    HW261721   3.320   9.659  13.526
86628SOL     OW61722   6.579   7.822  13.915
86628SOL    HW161723   6.584   7.917  13.924
86628SOL    HW261724   6.593   7.789  14.003
86629SOL     OW61725   9.499   7.595  13.574
86629SOL    HW161726   9.409   7.580  13.602
86629SOL    HW261727   9.534   7.507  13.558
86630SOL     OW61728   5.207   6.808  12.704
86630SOL    HW161729   5.223   6.871  12.634
86630SOL    HW261730   5.255   6.730  12.677
86631SOL     OW61731   1.226   1.756   0.643
86631SOL    HW161732   1.266   1.679   0.602
86631SOL    HW261733   1.285   1.779   0.715
86632SOL     OW61734   7.515   6.149  13.835
86632SOL    HW161735   7.549   6.210  13.770
86632SOL    HW261736   7.440   6.107  13.792
86633SOL     OW61737  12.444  10.637   5.324
86633SOL    HW161738  12.468  10.549   5.293
86633SOL    HW261739  12.351  10.630   5.345
86634SOL     OW61740   9.845   8.581   0.584
86634SOL    HW161741   9.760   8.571   0.540
86634SOL    HW261742   9.836   8.658   0.639
86635SOL     OW61743  12.533  13.162   7.989
86635SOL    HW161744  12.616  13.156   7.940
86635SOL    HW261745  12.523  13.256   8.006
86636SOL     OW61746   3.751   8.993   6.797
86636SOL    HW161747   3.797   8.993   6.713
86636SOL    HW261748   3.695   8.916   6.794
86637SOL     OW61749  14.179  11.335   9.718
86637SOL    HW161750  14.267  11.339   9.681
86637SOL    HW261751  14.129  11.282   9.656
86638SOL     OW61752  14.876   1.156  10.872
86638SOL    HW161753  14.875   1.060  10.871
86638SOL    HW261754   0.081   1.180  10.836
86639SOL     OW61755   2.685   8.707   0.987
86639SOL    HW161756   2.611   8.689   0.929
86639SOL    HW261757   2.660   8.668   1.071
86640SOL     OW61758   9.936   0.179   2.534
86640SOL    HW161759   9.958   0.253   2.478
86640SOL    HW261760  10.014   0.124   2.535
86641SOL     OW61761   4.352  14.802  12.247
86641SOL    HW161762   4.366  14.789  12.341
86641SOL    HW261763   4.437  14.780  12.208
86642SOL     OW61764  12.675  12.817  12.000
86642SOL    HW161765  12.724  12.767  12.066
86642SOL    HW261766  12.716  12.795  11.917
86643SOL     OW61767   3.419   5.543   3.784
86643SOL    HW161768   3.502   5.517   3.745
86643SOL    HW261769   3.386   5.464   3.825
86644SOL     OW61770   2.042   7.806   3.531
86644SOL    HW161771   2.049   7.741   3.601
86644SOL    HW261772   2.040   7.890   3.576
86645SOL     OW61773  13.149   9.553   4.760
86645SOL    HW161774  13.083   9.485   4.749
86645SOL    HW261775  13.102   9.625   4.803
86646SOL     OW61776   7.989   1.346   1.248
86646SOL    HW161777   7.999   1.301   1.332
86646SOL    HW261778   7.973   1.275   1.185
86647SOL     OW61779   9.712   0.279   0.033
86647SOL    HW161780   9.728   0.222   0.108
86647SOL    HW261781   9.752   0.363   0.057
86648SOL     OW61782   2.602   5.001   1.247
86648SOL    HW161783   2.629   5.035   1.332
86648SOL    HW261784   2.591   5.078   1.192
86649SOL     OW61785   0.286  12.874   7.776
86649SOL    HW161786   0.313  12.895   7.686
86649SOL    HW261787   0.357  12.909   7.830
86650SOL     OW61788   2.304   2.858  10.132
86650SOL    HW161789   2.382   2.847  10.077
86650SOL    HW261790   2.251   2.781  10.115
86651SOL     OW61791  12.586   4.416   7.520
86651SOL    HW161792  12.530   4.342   7.496
86651SOL    HW261793  12.667   4.403   7.471
86652SOL     OW61794  12.919  10.710   0.108
86652SOL    HW161795  12.827  10.731   0.092
86652SOL    HW261796  12.939  10.754   0.190
86653SOL     OW61797   7.751   9.090   4.227
86653SOL    HW161798   7.790   9.141   4.298
86653SOL    HW261799   7.811   9.016   4.216
86654SOL     OW61800   3.892   3.004   7.919
86654SOL    HW161801   3.961   3.011   7.853
86654SOL    HW261802   3.812   2.988   7.869
86655SOL     OW61803   7.877   1.058  12.098
86655SOL    HW161804   7.955   1.004  12.110
86655SOL    HW261805   7.821   1.035  12.172
86656SOL     OW61806  13.542   1.777   0.815
86656SOL    HW161807  13.470   1.771   0.877
86656SOL    HW261808  13.501   1.765   0.729
86657SOL     OW61809  11.179  14.876  10.796
86657SOL    HW161810  11.129   0.062  10.843
86657SOL    HW261811  11.264   0.037  10.781
86658SOL     OW61812  12.881   7.877  11.940
86658SOL    HW161813  12.931   7.956  11.959
86658SOL    HW261814  12.945   7.806  11.944
86659SOL     OW61815   9.407  13.131   8.538
86659SOL    HW161816   9.339  13.138   8.605
86659SOL    HW261817   9.484  13.170   8.578
86660SOL     OW61818   0.231  14.043   7.112
86660SOL    HW161819   0.227  14.086   7.026
86660SOL    HW261820   0.207  13.953   7.094
86661SOL     OW61821   9.510   4.493   4.540
86661SOL    HW161822   9.503   4.464   4.631
86661SOL    HW261823   9.598   4.467   4.513
86662SOL     OW61824  14.737   6.611   8.644
86662SOL    HW161825  14.684   6.672   8.593
86662SOL    HW261826  14.734   6.529   8.595
86663SOL     OW61827  13.945   3.808  10.693
86663SOL    HW161828  14.004   3.779  10.622
86663SOL    HW261829  13.986   3.888  10.726
86664SOL     OW61830   2.469   9.886   1.303
86664SOL    HW161831   2.429   9.816   1.355
86664SOL    HW261832   2.502   9.843   1.225
86665SOL     OW61833  11.178   9.700  10.189
86665SOL    HW161834  11.244   9.656  10.136
86665SOL    HW261835  11.107   9.719  10.128
86666SOL     OW61836  11.390  10.953   4.960
86666SOL    HW161837  11.449  10.943   5.035
86666SOL    HW261838  11.361  10.864   4.941
86667SOL     OW61839  14.657   4.175  10.761
86667SOL    HW161840  14.748   4.193  10.783
86667SOL    HW261841  14.650   4.079  10.761
86668SOL     OW61842   8.221   3.960   0.215
86668SOL    HW161843   8.193   3.870   0.234
86668SOL    HW261844   8.140   4.010   0.211
86669SOL     OW61845  13.406   8.348   4.707
86669SOL    HW161846  13.374   8.297   4.633
86669SOL    HW261847  13.345   8.421   4.714
86670SOL     OW61848   5.664   4.499  12.505
86670SOL    HW161849   5.718   4.516  12.582
86670SOL    HW261850   5.680   4.574  12.448
86671SOL     OW61851   3.636   0.255   5.685
86671SOL    HW161852   3.656   0.161   5.682
86671SOL    HW261853   3.656   0.281   5.775
86672SOL     OW61854  12.022   7.032  12.309
86672SOL    HW161855  11.947   6.976  12.287
86672SOL    HW261856  12.098   6.977  12.296
86673SOL     OW61857  11.570   3.837   7.010
86673SOL    HW161858  11.571   3.832   6.914
86673SOL    HW261859  11.659   3.811   7.037
86674SOL     OW61860   0.522   5.163   6.154
86674SOL    HW161861   0.509   5.255   6.131
86674SOL    HW261862   0.587   5.131   6.092
86675SOL     OW61863   8.571   7.860   9.033
86675SOL    HW161864   8.556   7.768   9.058
86675SOL    HW261865   8.494   7.884   8.982
86676SOL     OW61866   4.465   4.080   7.965
86676SOL    HW161867   4.493   4.071   7.874
86676SOL    HW261868   4.534   4.038   8.016
86677SOL     OW61869   3.465   9.147  10.968
86677SOL    HW161870   3.415   9.150  11.049
86677SOL    HW261871   3.429   9.073  10.920
86678SOL     OW61872  13.602   7.508  14.619
86678SOL    HW161873  13.592   7.601  14.595
86678SOL    HW261874  13.621   7.510  14.713
86679SOL     OW61875   5.465   6.864  13.790
86679SOL    HW161876   5.472   6.867  13.694
86679SOL    HW261877   5.398   6.930  13.811
86680SOL     OW61878   7.826  13.078  13.718
86680SOL    HW161879   7.777  13.153  13.751
86680SOL    HW261880   7.914  13.112  13.700
86681SOL     OW61881  13.714  11.829   0.020
86681SOL    HW161882  13.767  11.845   0.098
86681SOL    HW261883  13.712  11.913  14.853
86682SOL     OW61884   9.506   4.978   1.754
86682SOL    HW161885   9.506   4.939   1.842
86682SOL    HW261886   9.580   5.039   1.755
86683SOL     OW61887   2.384  13.882   6.000
86683SOL    HW161888   2.330  13.854   6.074
86683SOL    HW261889   2.378  13.978   6.000
86684SOL     OW61890   7.248   8.926   6.916
86684SOL    HW161891   7.175   8.920   6.978
86684SOL    HW261892   7.298   9.002   6.946
86685SOL     OW61893  10.907  12.769  11.003
86685SOL    HW161894  10.818  12.781  10.971
86685SOL    HW261895  10.911  12.676  11.027
86686SOL     OW61896   2.061   4.042  12.439
86686SOL    HW161897   2.155   4.058  12.451
86686SOL    HW261898   2.021   4.129  12.441
86687SOL     OW61899  10.097  11.133   6.490
86687SOL    HW161900  10.147  11.056   6.464
86687SOL    HW261901  10.148  11.207   6.456
86688SOL     OW61902   6.386  12.674   6.566
86688SOL    HW161903   6.391  12.689   6.660
86688SOL    HW261904   6.321  12.736   6.535
86689SOL     OW61905   7.225   6.568   0.986
86689SOL    HW161906   7.227   6.614   1.070
86689SOL    HW261907   7.212   6.638   0.922
86690SOL     OW61908   8.558  14.660   7.667
86690SOL    HW161909   8.483  14.691   7.617
86690SOL    HW261910   8.625  14.728   7.655
86691SOL     OW61911  11.637  13.246   2.006
86691SOL    HW161912  11.568  13.311   2.020
86691SOL    HW261913  11.683  13.277   1.928
86692SOL     OW61914   0.764   0.968  11.482
86692SOL    HW161915   0.842   0.952  11.535
86692SOL    HW261916   0.722   0.882  11.474
86693SOL     OW61917   4.069  12.836   0.652
86693SOL    HW161918   4.089  12.820   0.559
86693SOL    HW261919   4.011  12.763   0.676
86694SOL     OW61920  12.856  12.527  10.548
86694SOL    HW161921  12.787  12.567  10.495
86694SOL    HW261922  12.819  12.443  10.576
86695SOL     OW61923   1.182   8.794  11.316
86695SOL    HW161924   1.258   8.850  11.330
86695SOL    HW261925   1.211   8.731  11.249
86696SOL     OW61926   8.838   4.143   1.650
86696SOL    HW161927   8.752   4.149   1.607
86696SOL    HW261928   8.899   4.176   1.584
86697SOL     OW61929  11.054   0.940  10.828
86697SOL    HW161930  11.107   1.017  10.808
86697SOL    HW261931  11.117   0.873  10.855
86698SOL     OW61932  12.607  12.879  10.363
86698SOL    HW161933  12.520  12.915  10.384
86698SOL    HW261934  12.657  12.955  10.333
86699SOL     OW61935   4.627   6.380   9.021
86699SOL    HW161936   4.605   6.453   9.080
86699SOL    HW261937   4.674   6.421   8.948
86700SOL     OW61938   0.655   8.631  14.685
86700SOL    HW161939   0.729   8.616  14.744
86700SOL    HW261940   0.640   8.546  14.643
86701SOL     OW61941  13.974   8.685   6.174
86701SOL    HW161942  13.965   8.590   6.172
86701SOL    HW261943  14.003   8.704   6.263
86702SOL     OW61944  14.377  10.649   5.066
86702SOL    HW161945  14.453  10.608   5.025
86702SOL    HW261946  14.373  10.736   5.027
86703SOL     OW61947  11.070  11.995   6.578
86703SOL    HW161948  11.042  12.047   6.653
86703SOL    HW261949  11.148  12.041   6.545
86704SOL     OW61950  13.333  14.820   4.526
86704SOL    HW161951  13.329   0.035   4.519
86704SOL    HW261952  13.242  14.792   4.540
86705SOL     OW61953   5.529  14.442   8.226
86705SOL    HW161954   5.472  14.366   8.236
86705SOL    HW261955   5.537  14.454   8.131
86706SOL     OW61956   5.357  12.047   8.710
86706SOL    HW161957   5.325  11.962   8.740
86706SOL    HW261958   5.451  12.044   8.726
86707SOL     OW61959   0.256   0.401   8.896
86707SOL    HW161960   0.267   0.314   8.859
86707SOL    HW261961   0.163   0.404   8.922
86708SOL     OW61962   5.948  13.882   7.358
86708SOL    HW161963   6.032  13.851   7.392
86708SOL    HW261964   5.894  13.803   7.352
86709SOL     OW61965   4.585   0.278  10.219
86709SOL    HW161966   4.611   0.187  10.232
86709SOL    HW261967   4.665   0.321  10.189
86710SOL     OW61968  13.989   6.444   0.417
86710SOL    HW161969  14.083   6.462   0.417
86710SOL    HW261970  13.982   6.349   0.413
86711SOL     OW61971   6.341   4.622   4.053
86711SOL    HW161972   6.301   4.638   3.968
86711SOL    HW261973   6.366   4.529   4.051
86712SOL     OW61974   0.276   5.203   5.578
86712SOL    HW161975   0.193   5.156   5.577
86712SOL    HW261976   0.252   5.295   5.588
86713SOL     OW61977   6.883   5.871  14.747
86713SOL    HW161978   6.788   5.860  14.756
86713SOL    HW261979   6.917   5.860  14.836
86714SOL     OW61980  10.675   2.019   6.290
86714SOL    HW161981  10.763   2.009   6.255
86714SOL    HW261982  10.666   1.949   6.354
86715SOL     OW61983  14.182  12.129  11.339
86715SOL    HW161984  14.179  12.145  11.245
86715SOL    HW261985  14.159  12.213  11.379
86716SOL     OW61986   5.207  10.777  13.214
86716SOL    HW161987   5.189  10.719  13.287
86716SOL    HW261988   5.182  10.864  13.245
86717SOL     OW61989  11.337   0.327   1.637
86717SOL    HW161990  11.250   0.354   1.666
86717SOL    HW261991  11.326   0.305   1.545
86718SOL     OW61992   3.239   4.725   8.129
86718SOL    HW161993   3.189   4.704   8.207
86718SOL    HW261994   3.247   4.642   8.082
86719SOL     OW61995   6.352  13.656   0.796
86719SOL    HW161996   6.429  13.676   0.850
86719SOL    HW261997   6.348  13.561   0.794
86720SOL     OW61998   0.145   6.226   7.800
86720SOL    HW161999   0.050   6.228   7.810
86720SOL    HW262000   0.160   6.267   7.715
86721SOL     OW62001   6.624   8.704   4.684
86721SOL    HW162002   6.683   8.630   4.699
86721SOL    HW262003   6.681   8.775   4.653
86722SOL     OW62004   5.990   2.913   6.936
86722SOL    HW162005   6.047   2.987   6.959
86722SOL    HW262006   6.015   2.891   6.846
86723SOL     OW62007   8.937   5.901   3.741
86723SOL    HW162008   8.845   5.898   3.714
86723SOL    HW262009   8.960   5.810   3.759
86724SOL     OW62010   3.833   6.504   9.826
86724SOL    HW162011   3.925   6.497   9.798
86724SOL    HW262012   3.837   6.502   9.921
86725SOL     OW62013  10.440  13.881   8.962
86725SOL    HW162014  10.510  13.923   9.012
86725SOL    HW262015  10.485  13.825   8.899
86726SOL     OW62016   2.399   4.408   9.793
86726SOL    HW162017   2.493   4.425   9.788
86726SOL    HW262018   2.391   4.328   9.844
86727SOL     OW62019   4.723   9.252  10.406
86727SOL    HW162020   4.779   9.182  10.371
86727SOL    HW262021   4.747   9.258  10.498
86728SOL     OW62022   5.513   5.687   7.111
86728SOL    HW162023   5.430   5.642   7.128
86728SOL    HW262024   5.577   5.616   7.102
86729SOL     OW62025   3.856  12.575  12.151
86729SOL    HW162026   3.925  12.640  12.153
86729SOL    HW262027   3.892  12.502  12.100
86730SOL     OW62028  11.887   8.028  14.507
86730SOL    HW162029  11.931   8.001  14.588
86730SOL    HW262030  11.854   7.946  14.470
86731SOL     OW62031   2.254  14.200   9.023
86731SOL    HW162032   2.349  14.197   9.021
86731SOL    HW262033   2.231  14.176   9.113
86732SOL     OW62034  12.050   2.009  12.314
86732SOL    HW162035  12.069   1.916  12.324
86732SOL    HW262036  12.102   2.036  12.238
86733SOL     OW62037   1.157   8.268   8.659
86733SOL    HW162038   1.186   8.356   8.683
86733SOL    HW262039   1.117   8.278   8.573
86734SOL     OW62040   8.375  10.338  11.225
86734SOL    HW162041   8.301  10.361  11.169
86734SOL    HW262042   8.347  10.257  11.269
86735SOL     OW62043  10.104   9.692  13.961
86735SOL    HW162044  10.089   9.667  14.053
86735SOL    HW262045  10.188   9.738  13.963
86736SOL     OW62046  13.408  10.325  10.525
86736SOL    HW162047  13.345  10.323  10.597
86736SOL    HW262048  13.492  10.302  10.565
86737SOL     OW62049   1.005   0.841   4.321
86737SOL    HW162050   0.960   0.923   4.343
86737SOL    HW262051   0.950   0.773   4.361
86738SOL     OW62052   8.433  10.865   5.816
86738SOL    HW162053   8.341  10.888   5.803
86738SOL    HW262054   8.471  10.868   5.729
86739SOL     OW62055   5.587   6.468   4.893
86739SOL    HW162056   5.547   6.456   4.979
86739SOL    HW262057   5.555   6.394   4.841
86740SOL     OW62058   3.651   8.223  10.087
86740SOL    HW162059   3.684   8.194  10.002
86740SOL    HW262060   3.662   8.318  10.086
86741SOL     OW62061   7.874  14.528   7.390
86741SOL    HW162062   7.867  14.570   7.475
86741SOL    HW262063   7.890  14.436   7.410
86742SOL     OW62064  12.899   1.411   9.981
86742SOL    HW162065  12.951   1.412   9.901
86742SOL    HW262066  12.960   1.378  10.048
86743SOL     OW62067  14.052   2.786  14.585
86743SOL    HW162068  14.144   2.764  14.600
86743SOL    HW262069  14.047   2.880  14.600
86744SOL     OW62070  13.956   4.524   3.464
86744SOL    HW162071  14.024   4.550   3.526
86744SOL    HW262072  13.927   4.606   3.425
86745SOL     OW62073   2.845   4.648  10.717
86745SOL    HW162074   2.918   4.590  10.735
86745SOL    HW262075   2.767   4.593  10.730
86746SOL     OW62076   1.935   6.650  12.251
86746SOL    HW162077   1.935   6.744  12.233
86746SOL    HW262078   1.967   6.643  12.341
86747SOL     OW62079   1.589  11.901   8.506
86747SOL    HW162080   1.606  11.863   8.420
86747SOL    HW262081   1.496  11.923   8.504
86748SOL     OW62082   6.760   2.800   4.284
86748SOL    HW162083   6.735   2.890   4.265
86748SOL    HW262084   6.853   2.805   4.308
86749SOL     OW62085   0.233   2.354   9.084
86749SOL    HW162086   0.193   2.436   9.114
86749SOL    HW262087   0.165   2.288   9.101
86750SOL     OW62088  14.875  10.472   1.643
86750SOL    HW162089  14.789  10.436   1.622
86750SOL    HW262090  14.857  10.553   1.691
86751SOL     OW62091  11.935  14.075   8.042
86751SOL    HW162092  11.864  14.107   8.098
86751SOL    HW262093  11.991  14.025   8.101
86752SOL     OW62094   1.819   6.095  12.179
86752SOL    HW162095   1.793   6.187  12.173
86752SOL    HW262096   1.888   6.086  12.113
86753SOL     OW62097   3.171   0.111   3.855
86753SOL    HW162098   3.210   0.038   3.807
86753SOL    HW262099   3.238   0.178   3.856
86754SOL     OW62100  12.620   0.222  11.041
86754SOL    HW162101  12.675   0.257  11.112
86754SOL    HW262102  12.553   0.289  11.028
86755SOL     OW62103  11.882  12.927   8.053
86755SOL    HW162104  11.977  12.933   8.059
86755SOL    HW262105  11.857  12.997   7.993
86756SOL     OW62106   6.528   3.592   9.011
86756SOL    HW162107   6.575   3.624   8.934
86756SOL    HW262108   6.540   3.497   9.009
86757SOL     OW62109   9.169  11.660   9.120
86757SOL    HW162110   9.098  11.660   9.057
86757SOL    HW262111   9.188  11.753   9.136
86758SOL     OW62112  12.589   8.953   6.066
86758SOL    HW162113  12.576   9.048   6.066
86758SOL    HW262114  12.651   8.937   6.137
86759SOL     OW62115   8.146   0.593   2.471
86759SOL    HW162116   8.094   0.524   2.513
86759SOL    HW262117   8.119   0.591   2.379
86760SOL     OW62118  10.495   3.908  11.224
86760SOL    HW162119  10.514   4.002  11.217
86760SOL    HW262120  10.403   3.901  11.200
86761SOL     OW62121  13.642   7.571   5.715
86761SOL    HW162122  13.572   7.510   5.692
86761SOL    HW262123  13.598   7.639   5.766
86762SOL     OW62124   9.888   0.164   4.727
86762SOL    HW162125   9.813   0.118   4.688
86762SOL    HW262126   9.962   0.143   4.671
86763SOL     OW62127   8.446   7.897   0.423
86763SOL    HW162128   8.513   7.845   0.467
86763SOL    HW262129   8.474   7.897   0.331
86764SOL     OW62130  14.020  13.185   5.439
86764SOL    HW162131  14.068  13.194   5.521
86764SOL    HW262132  14.080  13.216   5.371
86765SOL     OW62133   1.861  11.760   0.811
86765SOL    HW162134   1.794  11.704   0.850
86765SOL    HW262135   1.852  11.745   0.717
86766SOL     OW62136  14.292   3.096   4.904
86766SOL    HW162137  14.293   3.152   4.981
86766SOL    HW262138  14.275   3.008   4.938
86767SOL     OW62139  11.060   7.117   3.044
86767SOL    HW162140  11.058   7.022   3.044
86767SOL    HW262141  10.976   7.143   3.006
86768SOL     OW62142   5.033  10.693  11.493
86768SOL    HW162143   5.085  10.727  11.565
86768SOL    HW262144   4.961  10.646  11.534
86769SOL     OW62145  13.001  12.861   5.379
86769SOL    HW162146  13.086  12.888   5.414
86769SOL    HW262147  12.941  12.929   5.409
86770SOL     OW62148   4.098   1.376  11.169
86770SOL    HW162149   4.018   1.323  11.158
86770SOL    HW262150   4.094   1.405  11.261
86771SOL     OW62151  11.457   9.046   4.609
86771SOL    HW162152  11.367   9.065   4.634
86771SOL    HW262153  11.483   9.121   4.554
86772SOL     OW62154   9.346   5.346   3.264
86772SOL    HW162155   9.382   5.260   3.240
86772SOL    HW262156   9.422   5.402   3.274
86773SOL     OW62157   5.459   2.202   7.087
86773SOL    HW162158   5.439   2.122   7.135
86773SOL    HW262159   5.542   2.184   7.043
86774SOL     OW62160   7.712  14.206  11.619
86774SOL    HW162161   7.629  14.228  11.661
86774SOL    HW262162   7.710  14.111  11.609
86775SOL     OW62163  10.464   9.937   0.828
86775SOL    HW162164  10.513  10.009   0.868
86775SOL    HW262165  10.497   9.858   0.871
86776SOL     OW62166   4.380   2.213   1.042
86776SOL    HW162167   4.376   2.241   1.133
86776SOL    HW262168   4.473   2.212   1.021
86777SOL     OW62169   6.686   3.920  10.036
86777SOL    HW162170   6.665   3.829  10.015
86777SOL    HW262171   6.778   3.929  10.011
86778SOL     OW62172  11.299   7.682  13.706
86778SOL    HW162173  11.256   7.640  13.631
86778SOL    HW262174  11.379   7.630  13.719
86779SOL     OW62175   7.178   7.279   2.111
86779SOL    HW162176   7.163   7.242   2.024
86779SOL    HW262177   7.188   7.373   2.095
86780SOL     OW62178   3.707   1.170   8.469
86780SOL    HW162179   3.619   1.188   8.435
86780SOL    HW262180   3.757   1.141   8.393
86781SOL     OW62181  12.190  10.348   0.167
86781SOL    HW162182  12.136  10.270   0.162
86781SOL    HW262183  12.195  10.379   0.076
86782SOL     OW62184   9.051  10.362   2.966
86782SOL    HW162185   9.085  10.325   3.048
86782SOL    HW262186   9.014  10.287   2.919
86783SOL     OW62187   3.439   9.596  11.149
86783SOL    HW162188   3.354   9.609  11.107
86783SOL    HW262189   3.502   9.636  11.089
86784SOL     OW62190   6.575   6.084   2.057
86784SOL    HW162191   6.520   6.072   2.134
86784SOL    HW262192   6.513   6.096   1.985
86785SOL     OW62193   8.938  14.024   1.643
86785SOL    HW162194   8.880  14.090   1.683
86785SOL    HW262195   8.934  14.043   1.550
86786SOL     OW62196   7.004  14.291  13.776
86786SOL    HW162197   6.929  14.256  13.729
86786SOL    HW262198   7.075  14.291  13.712
86787SOL     OW62199   2.360   7.562   5.462
86787SOL    HW162200   2.295   7.594   5.400
86787SOL    HW262201   2.444   7.580   5.420
86788SOL     OW62202  14.870  12.946   9.710
86788SOL    HW162203  14.778  12.928   9.694
86788SOL    HW262204   0.006  12.915   9.799
86789SOL     OW62205   9.485  14.764   2.243
86789SOL    HW162206   9.428  14.731   2.312
86789SOL    HW262207   9.450  14.725   2.163
86790SOL     OW62208  10.192   5.227  13.019
86790SOL    HW162209  10.166   5.300  12.963
86790SOL    HW262210  10.140   5.239  13.099
86791SOL     OW62211  12.085   5.547   5.228
86791SOL    HW162212  12.033   5.628   5.233
86791SOL    HW262213  12.030   5.487   5.177
86792SOL     OW62214  14.688   0.424  11.964
86792SOL    HW162215  14.635   0.428  12.044
86792SOL    HW262216  14.629   0.391  11.897
86793SOL     OW62217  14.068   4.424   9.389
86793SOL    HW162218  14.070   4.390   9.478
86793SOL    HW262219  14.158   4.450   9.371
86794SOL     OW62220  10.595   4.828   8.376
86794SOL    HW162221  10.582   4.836   8.281
86794SOL    HW262222  10.576   4.737   8.396
86795SOL     OW62223   5.734  13.240  10.282
86795SOL    HW162224   5.825  13.263  10.300
86795SOL    HW262225   5.738  13.154  10.242
86796SOL     OW62226   7.293  11.604  13.604
86796SOL    HW162227   7.204  11.637  13.594
86796SOL    HW262228   7.291  11.549  13.682
86797SOL     OW62229  10.188   9.388   3.714
86797SOL    HW162230  10.233   9.373   3.798
86797SOL    HW262231  10.104   9.344   3.724
86798SOL     OW62232   1.816   5.532  13.527
86798SOL    HW162233   1.847   5.442  13.537
86798SOL    HW262234   1.889   5.578  13.486
86799SOL     OW62235   0.434   9.386  11.297
86799SOL    HW162236   0.511   9.353  11.251
86799SOL    HW262237   0.470   9.450  11.359
86800SOL     OW62238   8.394   0.064   0.188
86800SOL    HW162239   8.330   0.119   0.141
86800SOL    HW262240   8.473   0.118   0.192
86801SOL     OW62241   4.339   6.378  12.114
86801SOL    HW162242   4.306   6.376  12.024
86801SOL    HW262243   4.424   6.422  12.107
86802SOL     OW62244  12.811   5.787   7.365
86802SOL    HW162245  12.907   5.784   7.364
86802SOL    HW262246  12.784   5.696   7.369
86803SOL     OW62247   0.400   9.880  12.609
86803SOL    HW162248   0.443   9.936  12.545
86803SOL    HW262249   0.465   9.866  12.677
86804SOL     OW62250  10.512   8.151   1.703
86804SOL    HW162251  10.419   8.174   1.711
86804SOL    HW262252  10.538   8.126   1.792
86805SOL     OW62253   5.599   8.503   9.933
86805SOL    HW162254   5.558   8.418   9.919
86805SOL    HW262255   5.667   8.486   9.999
86806SOL     OW62256  12.395   7.562   7.254
86806SOL    HW162257  12.339   7.633   7.286
86806SOL    HW262258  12.456   7.545   7.326
86807SOL     OW62259   3.463   0.481   6.945
86807SOL    HW162260   3.559   0.486   6.940
86807SOL    HW262261   3.436   0.458   6.856
86808SOL     OW62262   9.926   6.302  13.405
86808SOL    HW162263   9.900   6.225  13.456
86808SOL    HW262264   9.845   6.352  13.395
86809SOL     OW62265  11.445  10.683   2.645
86809SOL    HW162266  11.481  10.616   2.704
86809SOL    HW262267  11.511  10.694   2.577
86810SOL     OW62268   9.173  13.903   5.656
86810SOL    HW162269   9.190  13.948   5.573
86810SOL    HW262270   9.102  13.953   5.696
86811SOL     OW62271   2.403   4.612   3.540
86811SOL    HW162272   2.474   4.548   3.534
86811SOL    HW262273   2.385   4.637   3.449
86812SOL     OW62274   0.517  14.734   7.274
86812SOL    HW162275   0.518  14.684   7.192
86812SOL    HW262276   0.471  14.815   7.252
86813SOL     OW62277   7.836   6.801  11.698
86813SOL    HW162278   7.745   6.807  11.725
86813SOL    HW262279   7.842   6.720  11.648
86814SOL     OW62280  11.250   3.568  10.482
86814SOL    HW162281  11.170   3.556  10.431
86814SOL    HW262282  11.247   3.660  10.510
86815SOL     OW62283  14.836  14.414   0.902
86815SOL    HW162284   0.006  14.417   0.821
86815SOL    HW262285  14.761  14.357   0.883
86816SOL     OW62286   0.787  11.945  10.458
86816SOL    HW162287   0.814  11.989  10.539
86816SOL    HW262288   0.711  11.893  10.483
86817SOL     OW62289   3.120   9.073  14.379
86817SOL    HW162290   3.115   9.160  14.418
86817SOL    HW262291   3.099   9.013  14.450
86818SOL     OW62292  11.227  14.512  10.698
86818SOL    HW162293  11.172  14.566  10.641
86818SOL    HW262294  11.219  14.423  10.662
86819SOL     OW62295   2.145   5.748  14.293
86819SOL    HW162296   2.092   5.670  14.306
86819SOL    HW262297   2.193   5.732  14.212
86820SOL     OW62298  14.509   5.805   2.581
86820SOL    HW162299  14.586   5.766   2.539
86820SOL    HW262300  14.462   5.730   2.619
86821SOL     OW62301   5.989   1.601   9.234
86821SOL    HW162302   5.952   1.690   9.235
86821SOL    HW262303   5.948   1.559   9.158
86822SOL     OW62304   0.230  11.908   2.238
86822SOL    HW162305   0.318  11.942   2.257
86822SOL    HW262306   0.238  11.813   2.248
86823SOL     OW62307  14.259   1.718   4.024
86823SOL    HW162308  14.281   1.810   4.038
86823SOL    HW262309  14.314   1.692   3.950
86824SOL     OW62310   3.742   9.672  14.533
86824SOL    HW162311   3.765   9.732  14.462
86824SOL    HW262312   3.823   9.660  14.581
86825SOL     OW62313   1.608  10.644   1.124
86825SOL    HW162314   1.556  10.677   1.197
86825SOL    HW262315   1.560  10.567   1.093
86826SOL     OW62316   3.996  14.463   1.402
86826SOL    HW162317   4.033  14.377   1.379
86826SOL    HW262318   4.070  14.511   1.439
86827SOL     OW62319  14.126   3.248   3.058
86827SOL    HW162320  14.102   3.200   2.978
86827SOL    HW262321  14.042   3.277   3.094
86828SOL     OW62322   5.365   8.482  11.772
86828SOL    HW162323   5.346   8.575  11.764
86828SOL    HW262324   5.380   8.468  11.866
86829SOL     OW62325   8.094   2.583  13.484
86829SOL    HW162326   8.001   2.588  13.464
86829SOL    HW262327   8.134   2.551  13.403
86830SOL     OW62328   1.172   2.334  11.692
86830SOL    HW162329   1.207   2.409  11.644
86830SOL    HW262330   1.122   2.285  11.627
86831SOL     OW62331  13.710   3.703   5.232
86831SOL    HW162332  13.774   3.725   5.164
86831SOL    HW262333  13.625   3.720   5.190
86832SOL     OW62334   7.337  13.233  11.384
86832SOL    HW162335   7.303  13.228  11.294
86832SOL    HW262336   7.384  13.150  11.396
86833SOL     OW62337   2.715   7.537   5.005
86833SOL    HW162338   2.634   7.489   5.022
86833SOL    HW262339   2.771   7.517   5.080
86834SOL     OW62340   9.841   4.731   0.822
86834SOL    HW162341   9.824   4.648   0.776
86834SOL    HW262342   9.867   4.705   0.910
86835SOL     OW62343   4.046  11.050   2.228
86835SOL    HW162344   3.964  11.071   2.271
86835SOL    HW262345   4.103  11.018   2.298
86836SOL     OW62346   9.208  12.896   3.454
86836SOL    HW162347   9.294  12.855   3.451
86836SOL    HW262348   9.194  12.916   3.547
86837SOL     OW62349   7.787   0.393  10.833
86837SOL    HW162350   7.708   0.355  10.873
86837SOL    HW262351   7.854   0.387  10.901
86838SOL     OW62352   6.277   1.070   4.807
86838SOL    HW162353   6.369   1.047   4.791
86838SOL    HW262354   6.246   1.103   4.723
86839SOL     OW62355  10.351   6.211   0.681
86839SOL    HW162356  10.274   6.161   0.655
86839SOL    HW262357  10.348   6.290   0.628
86840SOL     OW62358  11.529  11.474   4.154
86840SOL    HW162359  11.535  11.391   4.200
86840SOL    HW262360  11.438  11.500   4.162
86841SOL     OW62361  13.059   7.080   9.650
86841SOL    HW162362  13.082   7.072   9.743
86841SOL    HW262363  12.966   7.102   9.650
86842SOL     OW62364  13.348   5.642  10.593
86842SOL    HW162365  13.354   5.550  10.618
86842SOL    HW262366  13.437   5.675  10.604
86843SOL     OW62367   9.970   7.839   5.435
86843SOL    HW162368   9.892   7.892   5.453
86843SOL    HW262369   9.947   7.751   5.465
86844SOL     OW62370   2.344   7.496  12.364
86844SOL    HW162371   2.423   7.526  12.408
86844SOL    HW262372   2.288   7.574  12.359
86845SOL     OW62373   9.089   9.029   9.592
86845SOL    HW162374   9.074   9.101   9.653
86845SOL    HW262375   9.050   8.953   9.635
86846SOL     OW62376   7.562  10.988   3.818
86846SOL    HW162377   7.576  10.964   3.726
86846SOL    HW262378   7.536  10.907   3.861
86847SOL     OW62379   7.060   1.593   1.018
86847SOL    HW162380   7.042   1.585   0.924
86847SOL    HW262381   6.984   1.638   1.054
86848SOL     OW62382   7.071   8.052   8.247
86848SOL    HW162383   7.159   8.089   8.244
86848SOL    HW262384   7.065   7.997   8.169
86849SOL     OW62385   5.184   5.315   7.697
86849SOL    HW162386   5.144   5.230   7.714
86849SOL    HW262387   5.189   5.357   7.783
86850SOL     OW62388  10.420  11.966   1.905
86850SOL    HW162389  10.456  11.931   1.824
86850SOL    HW262390  10.497  11.978   1.961
86851SOL     OW62391  14.001   8.142   7.886
86851SOL    HW162392  13.976   8.200   7.958
86851SOL    HW262393  13.988   8.054   7.921
86852SOL     OW62394   3.977   3.357   0.124
86852SOL    HW162395   3.906   3.420   0.143
86852SOL    HW262396   3.986   3.307   0.205
86853SOL     OW62397  10.128   9.388   0.378
86853SOL    HW162398  10.177   9.454   0.426
86853SOL    HW262399  10.043   9.428   0.361
86854SOL     OW62400   0.825   9.982   9.458
86854SOL    HW162401   0.853   9.933   9.536
86854SOL    HW262402   0.872  10.065   9.464
86855SOL     OW62403  10.812   0.946   7.523
86855SOL    HW162404  10.786   0.936   7.432
86855SOL    HW262405  10.758   1.018   7.555
86856SOL     OW62406  13.552   5.567   3.883
86856SOL    HW162407  13.480   5.625   3.907
86856SOL    HW262408  13.556   5.503   3.954
86857SOL     OW62409   8.767  10.440   3.089
86857SOL    HW162410   8.761  10.345   3.075
86857SOL    HW262411   8.858  10.461   3.065
86858SOL     OW62412  12.656   8.726  14.030
86858SOL    HW162413  12.696   8.794  14.083
86858SOL    HW262414  12.658   8.761  13.940
86859SOL     OW62415   1.508   0.632   8.243
86859SOL    HW162416   1.565   0.558   8.221
86859SOL    HW262417   1.557   0.680   8.311
86860SOL     OW62418  14.386  11.851  13.217
86860SOL    HW162419  14.430  11.776  13.178
86860SOL    HW262420  14.390  11.919  13.150
86861SOL     OW62421   5.672  13.227   3.285
86861SOL    HW162422   5.639  13.198   3.199
86861SOL    HW262423   5.739  13.292   3.264
86862SOL     OW62424   2.386   9.604   7.370
86862SOL    HW162425   2.415   9.671   7.433
86862SOL    HW262426   2.466   9.568   7.334
86863SOL     OW62427   9.065  14.389   4.109
86863SOL    HW162428   9.063  14.482   4.085
86863SOL    HW262429   9.078  14.344   4.025
86864SOL     OW62430  10.500  11.820  12.265
86864SOL    HW162431  10.504  11.766  12.186
86864SOL    HW262432  10.503  11.910  12.232
86865SOL     OW62433   3.479  10.877   0.129
86865SOL    HW162434   3.463  10.787   0.101
86865SOL    HW262435   3.561  10.901   0.084
86866SOL     OW62436  13.935   9.475   8.797
86866SOL    HW162437  13.972   9.510   8.715
86866SOL    HW262438  14.007   9.429   8.838
86867SOL     OW62439   2.705   9.829  10.133
86867SOL    HW162440   2.681   9.749  10.180
86867SOL    HW262441   2.622   9.865  10.102
86868SOL     OW62442   2.024   2.325   8.331
86868SOL    HW162443   1.958   2.392   8.312
86868SOL    HW262444   1.977   2.260   8.383
86869SOL     OW62445  12.918   9.045   1.392
86869SOL    HW162446  12.842   9.081   1.346
86869SOL    HW262447  12.887   8.961   1.426
86870SOL     OW62448   8.124  14.573   3.806
86870SOL    HW162449   8.206  14.577   3.757
86870SOL    HW262450   8.145  14.517   3.882
86871SOL     OW62451   9.329   3.116  12.949
86871SOL    HW162452   9.387   3.148  13.018
86871SOL    HW262453   9.387   3.071  12.888
86872SOL     OW62454   5.363  13.038   8.857
86872SOL    HW162455   5.338  13.097   8.928
86872SOL    HW262456   5.297  12.969   8.860
86873SOL     OW62457  10.691   7.783   4.932
86873SOL    HW162458  10.622   7.736   4.980
86873SOL    HW262459  10.674   7.763   4.840
86874SOL     OW62460  13.012   0.861   9.524
86874SOL    HW162461  12.917   0.866   9.535
86874SOL    HW262462  13.045   0.943   9.560
86875SOL     OW62463   2.303   6.209  13.587
86875SOL    HW162464   2.292   6.122  13.624
86875SOL    HW262465   2.398   6.221  13.582
86876SOL     OW62466  12.824  10.334   4.987
86876SOL    HW162467  12.859  10.248   5.012
86876SOL    HW262468  12.849  10.392   5.058
86877SOL     OW62469  11.337   0.235   5.568
86877SOL    HW162470  11.349   0.325   5.537
86877SOL    HW262471  11.425   0.206   5.592
86878SOL     OW62472  12.639   6.640   4.261
86878SOL    HW162473  12.670   6.654   4.172
86878SOL    HW262474  12.545   6.622   4.251
86879SOL     OW62475   6.942   8.698  11.733
86879SOL    HW162476   6.969   8.789  11.743
86879SOL    HW262477   6.869   8.688  11.794
86880SOL     OW62478   2.459   9.982   5.013
86880SOL    HW162479   2.406   9.934   5.076
86880SOL    HW262480   2.467   9.922   4.938
86881SOL     OW62481   7.779  10.658   9.414
86881SOL    HW162482   7.744  10.619   9.334
86881SOL    HW262483   7.711  10.720   9.441
86882SOL     OW62484   4.553   8.365  13.223
86882SOL    HW162485   4.515   8.396  13.141
86882SOL    HW262486   4.480   8.324  13.269
86883SOL     OW62487  10.603  13.774   4.805
86883SOL    HW162488  10.660  13.701   4.829
86883SOL    HW262489  10.657  13.852   4.817
86884SOL     OW62490   0.261   1.475   8.969
86884SOL    HW162491   0.178   1.474   8.920
86884SOL    HW262492   0.287   1.383   8.974
86885SOL     OW62493   5.463   1.382   5.689
86885SOL    HW162494   5.489   1.465   5.730
86885SOL    HW262495   5.388   1.352   5.741
86886SOL     OW62496  13.906  14.602  10.332
86886SOL    HW162497  14.000  14.615  10.321
86886SOL    HW262498  13.897  14.554  10.414
86887SOL     OW62499  10.408  11.034   2.911
86887SOL    HW162500  10.317  11.037   2.938
86887SOL    HW262501  10.415  10.953   2.860
86888SOL     OW62502   7.880   3.662  11.227
86888SOL    HW162503   7.815   3.696  11.289
86888SOL    HW262504   7.937   3.606  11.280
86889SOL     OW62505  14.492   0.993   8.471
86889SOL    HW162506  14.548   1.008   8.395
86889SOL    HW262507  14.427   0.928   8.441
86890SOL     OW62508   3.166   6.517  14.635
86890SOL    HW162509   3.228   6.476  14.696
86890SOL    HW262510   3.207   6.505  14.549
86891SOL     OW62511   0.316   4.851   0.748
86891SOL    HW162512   0.241   4.838   0.807
86891SOL    HW262513   0.285   4.915   0.683
86892SOL     OW62514   3.115   3.165  13.522
86892SOL    HW162515   3.032   3.156  13.570
86892SOL    HW262516   3.143   3.255  13.540
86893SOL     OW62517   3.727   5.450   4.451
86893SOL    HW162518   3.821   5.451   4.470
86893SOL    HW262519   3.687   5.421   4.532
86894SOL     OW62520  11.465  14.071   6.225
86894SOL    HW162521  11.419  14.038   6.302
86894SOL    HW262522  11.462  14.166   6.234
86895SOL     OW62523   6.619   4.270   4.613
86895SOL    HW162524   6.656   4.183   4.624
86895SOL    HW262525   6.626   4.288   4.519
86896SOL     OW62526  14.842  14.052   4.623
86896SOL    HW162527  14.852  14.134   4.574
86896SOL    HW262528  14.769  14.007   4.579
86897SOL     OW62529   7.188  11.142  10.751
86897SOL    HW162530   7.248  11.175  10.818
86897SOL    HW262531   7.227  11.170  10.668
86898SOL     OW62532   8.462   2.291   4.140
86898SOL    HW162533   8.388   2.311   4.084
86898SOL    HW262534   8.448   2.201   4.167
86899SOL     OW62535   2.847   0.690  10.867
86899SOL    HW162536   2.922   0.637  10.840
86899SOL    HW262537   2.881   0.779  10.872
86900SOL     OW62538   4.232   8.120  10.804
86900SOL    HW162539   4.215   8.056  10.873
86900SOL    HW262540   4.312   8.165  10.832
86901SOL     OW62541   3.755   3.223  10.358
86901SOL    HW162542   3.715   3.170  10.288
86901SOL    HW262543   3.680   3.253  10.410
86902SOL     OW62544   3.255  10.320   9.444
86902SOL    HW162545   3.347  10.346   9.448
86902SOL    HW262546   3.247  10.249   9.508
86903SOL     OW62547   7.855   2.498  11.176
86903SOL    HW162548   7.876   2.591  11.185
86903SOL    HW262549   7.828   2.487  11.085
86904SOL     OW62550   2.900  14.216   3.002
86904SOL    HW162551   2.958  14.291   3.018
86904SOL    HW262552   2.956  14.152   2.958
86905SOL     OW62553   3.211   9.233   4.423
86905SOL    HW162554   3.190   9.288   4.348
86905SOL    HW262555   3.133   9.179   4.436
86906SOL     OW62556   2.107  10.073   9.242
86906SOL    HW162557   2.140  10.021   9.169
86906SOL    HW262558   2.118  10.164   9.214
86907SOL     OW62559  10.084   4.995   6.542
86907SOL    HW162560  10.040   4.919   6.580
86907SOL    HW262561  10.092   4.975   6.449
86908SOL     OW62562  10.680  14.859   0.265
86908SOL    HW162563  10.657  14.776   0.307
86908SOL    HW262564  10.676  14.841   0.171
86909SOL     OW62565   0.936  11.011   7.318
86909SOL    HW162566   0.899  10.988   7.233
86909SOL    HW262567   0.862  11.007   7.378
86910SOL     OW62568   3.533  11.019   6.591
86910SOL    HW162569   3.521  10.937   6.544
86910SOL    HW262570   3.598  10.999   6.658
86911SOL     OW62571  10.729  10.430   1.503
86911SOL    HW162572  10.683  10.348   1.519
86911SOL    HW262573  10.688  10.493   1.562
86912SOL     OW62574   8.308   4.081   2.431
86912SOL    HW162575   8.291   4.172   2.455
86912SOL    HW262576   8.281   4.030   2.508
86913SOL     OW62577   9.395  13.144  12.315
86913SOL    HW162578   9.329  13.182  12.256
86913SOL    HW262579   9.478  13.154  12.268
86914SOL     OW62580   8.855  12.809   9.327
86914SOL    HW162581   8.819  12.854   9.403
86914SOL    HW262582   8.889  12.727   9.361
86915SOL     OW62583  12.658  10.613  12.142
86915SOL    HW162584  12.585  10.554  12.125
86915SOL    HW262585  12.718  10.599  12.068
86916SOL     OW62586   3.061  10.237  13.116
86916SOL    HW162587   2.993  10.291  13.155
86916SOL    HW262588   3.142  10.283  13.136
86917SOL     OW62589   0.376   8.297   3.999
86917SOL    HW162590   0.320   8.352   4.053
86917SOL    HW262591   0.465   8.323   4.023
86918SOL     OW62592   1.006   9.496  12.139
86918SOL    HW162593   1.034   9.509  12.229
86918SOL    HW262594   0.976   9.582  12.110
86919SOL     OW62595  13.599  12.136   4.490
86919SOL    HW162596  13.547  12.057   4.479
86919SOL    HW262597  13.685  12.104   4.516
86920SOL     OW62598   5.576   7.593   7.675
86920SOL    HW162599   5.565   7.674   7.725
86920SOL    HW262600   5.651   7.550   7.717
86921SOL     OW62601  11.309  10.123  13.400
86921SOL    HW162602  11.228  10.170  13.421
86921SOL    HW262603  11.294  10.088  13.312
86922SOL     OW62604   5.208   4.594   4.607
86922SOL    HW162605   5.191   4.616   4.698
86922SOL    HW262606   5.271   4.523   4.610
86923SOL     OW62607   0.187  14.538   5.698
86923SOL    HW162608   0.212  14.497   5.615
86923SOL    HW262609   0.269  14.573   5.734
86924SOL     OW62610   9.645   7.264   4.499
86924SOL    HW162611   9.637   7.357   4.519
86924SOL    HW262612   9.713   7.259   4.432
86925SOL     OW62613  13.773   1.173   8.890
86925SOL    HW162614  13.680   1.153   8.903
86925SOL    HW262615  13.800   1.214   8.973
86926SOL     OW62616   5.686   9.329  13.341
86926SOL    HW162617   5.758   9.392  13.344
86926SOL    HW262618   5.610   9.378  13.371
86927SOL     OW62619   3.873  11.657   2.449
86927SOL    HW162620   3.792  11.652   2.499
86927SOL    HW262621   3.941  11.668   2.515
86928SOL     OW62622   1.784  12.966   4.720
86928SOL    HW162623   1.700  12.926   4.697
86928SOL    HW262624   1.824  12.988   4.636
86929SOL     OW62625   6.783  14.262   2.578
86929SOL    HW162626   6.716  14.251   2.511
86929SOL    HW262627   6.736  14.253   2.661
86930SOL     OW62628  10.642  12.862  10.988
86930SOL    HW162629  10.581  12.822  10.926
86930SOL    HW262630  10.614  12.830  11.073
86931SOL     OW62631  13.404   7.635   0.560
86931SOL    HW162632  13.470   7.569   0.538
86931SOL    HW262633  13.372   7.608   0.646
86932SOL     OW62634   4.720   9.933   9.901
86932SOL    HW162635   4.811   9.945   9.928
86932SOL    HW262636   4.716   9.970   9.813
86933SOL     OW62637   3.761   1.398  13.216
86933SOL    HW162638   3.704   1.429  13.286
86933SOL    HW262639   3.843   1.444  13.230
86934SOL     OW62640  11.356  11.646  14.451
86934SOL    HW162641  11.351  11.643  14.547
86934SOL    HW262642  11.324  11.560  14.422
86935SOL     OW62643  13.259  10.500   1.157
86935SOL    HW162644  13.292  10.584   1.189
86935SOL    HW262645  13.306  10.485   1.076
86936SOL     OW62646  12.026   5.892  11.797
86936SOL    HW162647  12.091   5.959  11.774
86936SOL    HW262648  12.078   5.813  11.812
86937SOL     OW62649   7.898   3.393   5.010
86937SOL    HW162650   7.835   3.440   5.063
86937SOL    HW262651   7.973   3.453   5.003
86938SOL     OW62652   1.093   5.265  13.599
86938SOL    HW162653   1.066   5.244  13.510
86938SOL    HW262654   1.025   5.324  13.631
86939SOL     OW62655   5.373   4.817  12.288
86939SOL    HW162656   5.286   4.852  12.267
86939SOL    HW262657   5.416   4.808  12.203
86940SOL     OW62658  14.056   4.029  10.750
86940SOL    HW162659  14.039   4.113  10.707
86940SOL    HW262660  14.145   4.037  10.784
86941SOL     OW62661   7.641  12.505  11.965
86941SOL    HW162662   7.731  12.485  11.940
86941SOL    HW262663   7.618  12.437  12.028
86942SOL     OW62664  12.323  11.852  12.972
86942SOL    HW162665  12.353  11.942  12.976
86942SOL    HW262666  12.330  11.820  13.063
86943SOL     OW62667   2.747  11.678   0.785
86943SOL    HW162668   2.802  11.606   0.816
86943SOL    HW262669   2.805  11.754   0.786
86944SOL     OW62670   8.059   9.499  10.110
86944SOL    HW162671   8.039   9.527  10.020
86944SOL    HW262672   8.124   9.430  10.100
86945SOL     OW62673  11.064   3.681  13.413
86945SOL    HW162674  11.040   3.589  13.407
86945SOL    HW262675  11.077   3.708  13.322
86946SOL     OW62676   0.564   4.933   5.306
86946SOL    HW162677   0.513   5.000   5.353
86946SOL    HW262678   0.504   4.900   5.239
86947SOL     OW62679  11.678   6.596   0.059
86947SOL    HW162680  11.672   6.522  14.878
86947SOL    HW262681  11.652   6.560   0.144
86948SOL     OW62682   3.761   6.697   5.604
86948SOL    HW162683   3.789   6.759   5.537
86948SOL    HW262684   3.714   6.750   5.667
86949SOL     OW62685  14.711  10.851  13.729
86949SOL    HW162686  14.623  10.831  13.759
86949SOL    HW262687  14.735  10.931  13.776
86950SOL     OW62688  11.505   6.525   0.492
86950SOL    HW162689  11.558   6.600   0.468
86950SOL    HW262690  11.465   6.549   0.575
86951SOL     OW62691   8.323   3.491  10.027
86951SOL    HW162692   8.409   3.469   9.991
86951SOL    HW262693   8.341   3.558  10.094
86952SOL     OW62694  10.296   6.316  10.772
86952SOL    HW162695  10.327   6.227  10.754
86952SOL    HW262696  10.222   6.304  10.831
86953SOL     OW62697   6.993   4.988  10.858
86953SOL    HW162698   6.943   4.991  10.777
86953SOL    HW262699   6.978   5.073  10.899
86954SOL     OW62700   7.979   8.611  13.189
86954SOL    HW162701   8.007   8.534  13.239
86954SOL    HW262702   8.056   8.635  13.138
86955SOL     OW62703  10.750   4.204   9.779
86955SOL    HW162704  10.793   4.120   9.797
86955SOL    HW262705  10.711   4.193   9.692
86956SOL     OW62706   7.965  12.839   6.865
86956SOL    HW162707   8.058  12.848   6.886
86956SOL    HW262708   7.949  12.908   6.801
86957SOL     OW62709   5.594   3.460   1.386
86957SOL    HW162710   5.659   3.501   1.443
86957SOL    HW262711   5.631   3.375   1.365
86958SOL     OW62712   4.013  13.984   6.225
86958SOL    HW162713   3.985  13.899   6.190
86958SOL    HW262714   4.107  13.973   6.240
86959SOL     OW62715  10.329   8.575  13.070
86959SOL    HW162716  10.388   8.521  13.123
86959SOL    HW262717  10.316   8.524  12.990
86960SOL     OW62718   4.388  14.824  12.517
86960SOL    HW162719   4.454  14.786  12.574
86960SOL    HW262720   4.334  14.878  12.575
86961SOL     OW62721   7.414   4.208   8.916
86961SOL    HW162722   7.418   4.289   8.967
86961SOL    HW262723   7.328   4.172   8.935
86962SOL     OW62724   1.617   2.043   6.905
86962SOL    HW162725   1.538   2.095   6.918
86962SOL    HW262726   1.653   2.074   6.822
86963SOL     OW62727   5.571   6.074  11.150
86963SOL    HW162728   5.483   6.087  11.187
86963SOL    HW262729   5.590   6.157  11.106
86964SOL     OW62730   5.096  13.162   0.982
86964SOL    HW162731   5.143  13.082   1.005
86964SOL    HW262732   5.004  13.135   0.975
86965SOL     OW62733   1.058   4.812   5.786
86965SOL    HW162734   1.137   4.762   5.809
86965SOL    HW262735   1.090   4.886   5.735
86966SOL     OW62736   5.002   3.027  10.266
86966SOL    HW162737   5.011   2.970  10.189
86966SOL    HW262738   4.908   3.037  10.277
86967SOL     OW62739   4.839   0.987  13.275
86967SOL    HW162740   4.833   0.991  13.180
86967SOL    HW262741   4.793   0.906  13.299
86968SOL     OW62742  12.596   3.898  11.547
86968SOL    HW162743  12.561   3.846  11.475
86968SOL    HW262744  12.562   3.986  11.531
86969SOL     OW62745   8.920   3.254   8.038
86969SOL    HW162746   9.013   3.260   8.016
86969SOL    HW262747   8.918   3.231   8.130
86970SOL     OW62748  14.572   3.779  13.900
86970SOL    HW162749  14.522   3.805  13.824
86970SOL    HW262750  14.636   3.716  13.867
86971SOL     OW62751  10.724   8.790   6.301
86971SOL    HW162752  10.768   8.822   6.379
86971SOL    HW262753  10.680   8.867   6.264
86972SOL     OW62754   0.323  10.289  14.322
86972SOL    HW162755   0.408  10.259  14.353
86972SOL    HW262756   0.340  10.323  14.234
86973SOL     OW62757   8.988   7.586  10.667
86973SOL    HW162758   8.949   7.591  10.580
86973SOL    HW262759   8.937   7.519  10.712
86974SOL     OW62760   4.714  10.312   9.950
86974SOL    HW162761   4.758  10.287   9.868
86974SOL    HW262762   4.644  10.248   9.960
86975SOL     OW62763   8.500   1.972   9.674
86975SOL    HW162764   8.450   2.047   9.643
86975SOL    HW262765   8.590   1.991   9.650
86976SOL     OW62766   3.801  14.831   5.421
86976SOL    HW162767   3.858   0.015   5.462
86976SOL    HW262768   3.739  14.805   5.489
86977SOL     OW62769   2.979   1.853   6.987
86977SOL    HW162770   3.016   1.931   6.945
86977SOL    HW262771   2.886   1.856   6.966
86978SOL     OW62772   6.901   7.216   0.229
86978SOL    HW162773   6.820   7.221   0.279
86978SOL    HW262774   6.930   7.307   0.220
86979SOL     OW62775  10.738   4.901   0.432
86979SOL    HW162776  10.775   4.988   0.422
86979SOL    HW262777  10.813   4.845   0.453
86980SOL     OW62778   1.817  14.671   7.103
86980SOL    HW162779   1.857  14.598   7.151
86980SOL    HW262780   1.869  14.747   7.129
86981SOL     OW62781   4.895   8.699   5.882
86981SOL    HW162782   4.980   8.726   5.915
86981SOL    HW262783   4.831   8.744   5.937
86982SOL     OW62784   8.818  14.374  13.566
86982SOL    HW162785   8.781  14.456  13.534
86982SOL    HW262786   8.913  14.387  13.562
86983SOL     OW62787   4.380   4.844   5.203
86983SOL    HW162788   4.452   4.781   5.211
86983SOL    HW262789   4.338   4.845   5.289
86984SOL     OW62790  13.867   9.969   8.974
86984SOL    HW162791  13.921   9.978   8.895
86984SOL    HW262792  13.859  10.058   9.008
86985SOL     OW62793   9.088   3.219   3.180
86985SOL    HW162794   9.174   3.208   3.220
86985SOL    HW262795   9.038   3.271   3.243
86986SOL     OW62796  11.664   3.415   0.037
86986SOL    HW162797  11.592   3.463   0.078
86986SOL    HW262798  11.625   3.378  14.838
86987SOL     OW62799   7.358  14.616   4.828
86987SOL    HW162800   7.435  14.647   4.780
86987SOL    HW262801   7.394  14.583   4.911
86988SOL     OW62802   1.833  12.578   0.013
86988SOL    HW162803   1.927  12.580  14.877
86988SOL    HW262804   1.816  12.655   0.067
86989SOL     OW62805  11.130   9.277   7.251
86989SOL    HW162806  11.041   9.268   7.218
86989SOL    HW262807  11.175   9.198   7.220
86990SOL     OW62808   1.273   3.323   0.943
86990SOL    HW162809   1.220   3.248   0.919
86990SOL    HW262810   1.218   3.399   0.924
86991SOL     OW62811  10.669   0.503  14.621
86991SOL    HW162812  10.592   0.557  14.601
86991SOL    HW262813  10.675   0.505  14.717
86992SOL     OW62814  14.638   5.987   1.564
86992SOL    HW162815  14.601   5.901   1.583
86992SOL    HW262816  14.622   6.038   1.643
86993SOL     OW62817   6.503   6.132  13.680
86993SOL    HW162818   6.552   6.064  13.726
86993SOL    HW262819   6.544   6.214  13.707
86994SOL     OW62820   6.170   9.766   6.212
86994SOL    HW162821   6.228   9.826   6.258
86994SOL    HW262822   6.177   9.684   6.261
86995SOL     OW62823   3.719   7.327  13.480
86995SOL    HW162824   3.649   7.383  13.447
86995SOL    HW262825   3.791   7.341  13.419
86996SOL     OW62826  10.740   3.919  14.283
86996SOL    HW162827  10.826   3.887  14.313
86996SOL    HW262828  10.686   3.841  14.277
86997SOL     OW62829   9.976  14.350   5.301
86997SOL    HW162830   9.988  14.318   5.391
86997SOL    HW262831   9.951  14.272   5.251
86998SOL     OW62832   6.229   6.266   7.581
86998SOL    HW162833   6.139   6.233   7.584
86998SOL    HW262834   6.229   6.340   7.642
86999SOL     OW62835   5.941  12.712   4.089
86999SOL    HW162836   5.985  12.772   4.028
86999SOL    HW262837   6.002  12.703   4.162
87000SOL     OW62838   4.421   8.059   4.661
87000SOL    HW162839   4.461   8.092   4.581
87000SOL    HW262840   4.337   8.104   4.666
87001SOL     OW62841   6.489   8.376   4.275
87001SOL    HW162842   6.529   8.441   4.217
87001SOL    HW262843   6.535   8.387   4.358
87002SOL     OW62844   5.961   6.237   2.011
87002SOL    HW162845   5.919   6.319   2.037
87002SOL    HW262846   6.030   6.223   2.076
87003SOL     OW62847  11.295   4.527  11.408
87003SOL    HW162848  11.377   4.554  11.449
87003SOL    HW262849  11.322   4.471  11.335
87004SOL     OW62850   2.008  11.943   7.040
87004SOL    HW162851   2.051  12.020   7.077
87004SOL    HW262852   2.046  11.935   6.952
87005SOL     OW62853  11.053   8.421   9.342
87005SOL    HW162854  11.142   8.448   9.321
87005SOL    HW262855  11.023   8.376   9.263
87006SOL     OW62856  13.379   1.406   1.049
87006SOL    HW162857  13.412   1.432   1.135
87006SOL    HW262858  13.454   1.368   1.004
87007SOL     OW62859   9.334  11.795  13.733
87007SOL    HW162860   9.264  11.858  13.748
87007SOL    HW262861   9.290  11.716  13.702
87008SOL     OW62862   7.425   2.408   0.797
87008SOL    HW162863   7.408   2.323   0.838
87008SOL    HW262864   7.508   2.437   0.836
87009SOL     OW62865   1.282   5.556   1.814
87009SOL    HW162866   1.341   5.587   1.745
87009SOL    HW262867   1.323   5.585   1.896
87010SOL     OW62868   9.612   9.299  13.967
87010SOL    HW162869   9.610   9.394  13.966
87010SOL    HW262870   9.624   9.275  13.875
87011SOL     OW62871   5.574   8.259  11.621
87011SOL    HW162872   5.582   8.354  11.628
87011SOL    HW262873   5.645   8.232  11.563
87012SOL     OW62874   2.463  13.113  12.005
87012SOL    HW162875   2.406  13.043  12.038
87012SOL    HW262876   2.455  13.106  11.910
87013SOL     OW62877   3.272  12.535  11.213
87013SOL    HW162878   3.277  12.626  11.181
87013SOL    HW262879   3.363  12.504  11.209
87014SOL     OW62880   3.376   3.277   0.523
87014SOL    HW162881   3.338   3.211   0.580
87014SOL    HW262882   3.306   3.341   0.509
87015SOL     OW62883  10.696   0.435  13.933
87015SOL    HW162884  10.760   0.394  13.875
87015SOL    HW262885  10.745   0.501  13.982
87016SOL     OW62886   2.377   7.072  10.483
87016SOL    HW162887   2.334   6.990  10.460
87016SOL    HW262888   2.350   7.134  10.416
87017SOL     OW62889   1.807  12.048   6.014
87017SOL    HW162890   1.827  12.022   6.104
87017SOL    HW262891   1.726  12.098   6.020
87018SOL     OW62892   9.701   3.802  12.301
87018SOL    HW162893   9.638   3.874  12.306
87018SOL    HW262894   9.783   3.840  12.330
87019SOL     OW62895  12.947  10.275  10.641
87019SOL    HW162896  13.003  10.220  10.587
87019SOL    HW262897  12.946  10.231  10.726
87020SOL     OW62898  13.079   3.106   9.485
87020SOL    HW162899  13.126   3.049   9.424
87020SOL    HW262900  13.120   3.090   9.570
87021SOL     OW62901   9.632   3.756  11.871
87021SOL    HW162902   9.663   3.829  11.925
87021SOL    HW262903   9.540   3.778  11.852
87022SOL     OW62904   5.961   7.308   3.278
87022SOL    HW162905   5.912   7.226   3.281
87022SOL    HW262906   6.053   7.282   3.282
87023SOL     OW62907   3.086   6.408   3.043
87023SOL    HW162908   3.060   6.440   2.956
87023SOL    HW262909   3.120   6.485   3.088
87024SOL     OW62910   6.685  10.819  12.741
87024SOL    HW162911   6.725  10.838  12.656
87024SOL    HW262912   6.621  10.751  12.723
87025SOL     OW62913   0.836   1.925  11.230
87025SOL    HW162914   0.749   1.896  11.256
87025SOL    HW262915   0.886   1.844  11.217
87026SOL     OW62916   3.301  13.128  10.306
87026SOL    HW162917   3.236  13.137  10.376
87026SOL    HW262918   3.382  13.104  10.352
87027SOL     OW62919   9.326  12.470  13.042
87027SOL    HW162920   9.400  12.412  13.061
87027SOL    HW262921   9.363  12.558  13.045
87028SOL     OW62922   8.219   3.563   9.802
87028SOL    HW162923   8.261   3.641   9.765
87028SOL    HW262924   8.261   3.552   9.888
87029SOL     OW62925   6.700   3.944   1.179
87029SOL    HW162926   6.752   3.872   1.213
87029SOL    HW262927   6.614   3.906   1.163
87030SOL     OW62928   2.796   3.937   4.947
87030SOL    HW162929   2.787   4.012   4.888
87030SOL    HW262930   2.713   3.890   4.939
87031SOL     OW62931   3.953   5.334   3.967
87031SOL    HW162932   4.039   5.293   3.978
87031SOL    HW262933   3.895   5.283   4.024
87032SOL     OW62934   1.643   7.558  12.546
87032SOL    HW162935   1.637   7.508  12.465
87032SOL    HW262936   1.661   7.648  12.518
87033SOL     OW62937   4.977   1.857   5.989
87033SOL    HW162938   5.027   1.815   6.059
87033SOL    HW262939   5.012   1.820   5.908
87034SOL     OW62940   5.785  11.638   2.326
87034SOL    HW162941   5.785  11.734   2.321
87034SOL    HW262942   5.698  11.615   2.359
87035SOL     OW62943   1.838   2.541   8.301
87035SOL    HW162944   1.840   2.603   8.374
87035SOL    HW262945   1.747   2.544   8.270
87036SOL     OW62946   6.977   8.857  14.142
87036SOL    HW162947   7.014   8.941  14.116
87036SOL    HW262948   6.913   8.837  14.073
87037SOL     OW62949   1.918   7.466  11.385
87037SOL    HW162950   1.991   7.405  11.398
87037SOL    HW262951   1.852   7.415  11.338
87038SOL     OW62952   4.506  11.485   2.167
87038SOL    HW162953   4.539  11.395   2.172
87038SOL    HW262954   4.412  11.477   2.181
87039SOL     OW62955   4.093   4.555   3.137
87039SOL    HW162956   4.179   4.562   3.178
87039SOL    HW262957   4.070   4.645   3.114
87040SOL     OW62958  10.497  11.823   7.503
87040SOL    HW162959  10.547  11.879   7.443
87040SOL    HW262960  10.519  11.856   7.590
87041SOL     OW62961   9.890   9.798   7.712
87041SOL    HW162962   9.869   9.869   7.773
87041SOL    HW262963   9.854   9.720   7.753
87042SOL     OW62964   2.155   9.672  13.794
87042SOL    HW162965   2.137   9.735  13.724
87042SOL    HW262966   2.079   9.614  13.794
87043SOL     OW62967   7.414   3.632  14.611
87043SOL    HW162968   7.475   3.561  14.627
87043SOL    HW262969   7.340   3.613  14.669
87044SOL     OW62970  10.152  14.340   8.527
87044SOL    HW162971  10.223  14.277   8.543
87044SOL    HW262972  10.147  14.391   8.607
87045SOL     OW62973   4.073  12.418  10.199
87045SOL    HW162974   4.082  12.326  10.175
87045SOL    HW262975   4.063  12.464  10.116
87046SOL     OW62976   1.460  13.362   3.109
87046SOL    HW162977   1.546  13.404   3.106
87046SOL    HW262978   1.421  13.382   3.023
87047SOL     OW62979   3.416  12.251   4.887
87047SOL    HW162980   3.415  12.333   4.839
87047SOL    HW262981   3.456  12.273   4.972
87048SOL     OW62982   8.922   4.802  14.324
87048SOL    HW162983   8.956   4.818  14.236
87048SOL    HW262984   8.924   4.887  14.367
87049SOL     OW62985  10.686  11.278   9.138
87049SOL    HW162986  10.704  11.332   9.061
87049SOL    HW262987  10.617  11.218   9.111
87050SOL     OW62988   9.436  10.119   0.515
87050SOL    HW162989   9.517  10.165   0.489
87050SOL    HW262990   9.370  10.153   0.455
87051SOL     OW62991   6.599   2.640   0.170
87051SOL    HW162992   6.687   2.659   0.201
87051SOL    HW262993   6.598   2.545   0.155
87052SOL     OW62994   8.912  11.562   0.844
87052SOL    HW162995   8.840  11.514   0.804
87052SOL    HW262996   8.983  11.497   0.849
87053SOL     OW62997   4.712   0.042  10.316
87053SOL    HW162998   4.681  14.833  10.298
87053SOL    HW262999   4.804   0.031  10.342
87054SOL     OW63000   4.979   0.104   6.103
87054SOL    HW163001   5.026   0.187   6.094
87054SOL    HW263002   4.961   0.096   6.196
87055SOL     OW63003  14.610   1.233   4.484
87055SOL    HW163004  14.644   1.307   4.433
87055SOL    HW263005  14.688   1.185   4.512
87056SOL     OW63006   4.315   2.827   3.834
87056SOL    HW163007   4.333   2.789   3.749
87056SOL    HW263008   4.220   2.838   3.836
87057SOL     OW63009   5.138   6.081  11.972
87057SOL    HW163010   5.069   6.147  11.959
87057SOL    HW263011   5.175   6.069  11.884
87058SOL     OW63012  10.812   2.915   2.568
87058SOL    HW163013  10.763   2.894   2.648
87058SOL    HW263014  10.886   2.968   2.599
87059SOL     OW63015   4.363   5.258   8.237
87059SOL    HW163016   4.410   5.191   8.286
87059SOL    HW263017   4.277   5.263   8.279
87060SOL     OW63018  12.967  12.187   9.864
87060SOL    HW163019  12.949  12.159   9.954
87060SOL    HW263020  12.952  12.109   9.811
87061SOL     OW63021   8.355   2.934   7.326
87061SOL    HW163022   8.260   2.931   7.328
87061SOL    HW263023   8.376   2.964   7.238
87062SOL     OW63024  10.742  12.836  10.096
87062SOL    HW163025  10.724  12.895  10.023
87062SOL    HW263026  10.837  12.822  10.093
87063SOL     OW63027  14.824  11.209  10.328
87063SOL    HW163028   0.037  11.184  10.328
87063SOL    HW263029  14.789  11.172  10.409
87064SOL     OW63030  11.204   3.138   9.203
87064SOL    HW163031  11.278   3.184   9.163
87064SOL    HW263032  11.207   3.164   9.295
87065SOL     OW63033   7.032   7.283  13.123
87065SOL    HW163034   6.974   7.211  13.148
87065SOL    HW263035   7.016   7.295  13.030
87066SOL     OW63036   5.823   8.900  10.971
87066SOL    HW163037   5.752   8.877  10.911
87066SOL    HW263038   5.900   8.856  10.936
87067SOL     OW63039   8.494  14.771  11.534
87067SOL    HW163040   8.513  14.864  11.546
87067SOL    HW263041   8.470  14.763  11.441
87068SOL     OW63042   7.005  11.148   2.188
87068SOL    HW163043   7.005  11.132   2.093
87068SOL    HW263044   7.080  11.099   2.220
87069SOL     OW63045   4.568  10.434   8.038
87069SOL    HW163046   4.547  10.499   8.105
87069SOL    HW263047   4.651  10.396   8.067
87070SOL     OW63048  11.515   3.455   1.385
87070SOL    HW163049  11.511   3.373   1.336
87070SOL    HW263050  11.427   3.493   1.375
87071SOL     OW63051   9.302  10.090   3.475
87071SOL    HW163052   9.379  10.137   3.445
87071SOL    HW263053   9.254  10.154   3.528
87072SOL     OW63054  12.736   2.541   2.895
87072SOL    HW163055  12.683   2.556   2.974
87072SOL    HW263056  12.715   2.615   2.838
87073SOL     OW63057  10.644   8.423   4.246
87073SOL    HW163058  10.695   8.494   4.208
87073SOL    HW263059  10.554   8.442   4.221
87074SOL     OW63060  12.447  14.661   2.996
87074SOL    HW163061  12.479  14.643   3.084
87074SOL    HW263062  12.501  14.606   2.939
87075SOL     OW63063   1.991   8.686  11.559
87075SOL    HW163064   2.006   8.697  11.465
87075SOL    HW263065   1.997   8.775  11.595
87076SOL     OW63066   5.119   6.352   1.670
87076SOL    HW163067   5.186   6.287   1.651
87076SOL    HW263068   5.162   6.416   1.727
87077SOL     OW63069   6.657   0.455   2.825
87077SOL    HW163070   6.612   0.437   2.907
87077SOL    HW263071   6.646   0.549   2.812
87078SOL     OW63072   0.434   8.913   1.919
87078SOL    HW163073   0.482   8.989   1.952
87078SOL    HW263074   0.485   8.838   1.949
87079SOL     OW63075  13.490   7.867   1.413
87079SOL    HW163076  13.554   7.938   1.409
87079SOL    HW263077  13.482   7.848   1.507
87080SOL     OW63078   7.565   6.160   5.440
87080SOL    HW163079   7.582   6.177   5.533
87080SOL    HW263080   7.475   6.126   5.439
87081SOL     OW63081   9.743   6.589   0.402
87081SOL    HW163082   9.704   6.619   0.484
87081SOL    HW263083   9.675   6.605   0.336
87082SOL     OW63084   0.274   9.563   5.047
87082SOL    HW163085   0.303   9.615   4.972
87082SOL    HW263086   0.228   9.626   5.103
87083SOL     OW63087   4.260  12.735  14.251
87083SOL    HW163088   4.295  12.806  14.197
87083SOL    HW263089   4.165  12.747  14.247
87084SOL     OW63090  14.816   8.607  10.854
87084SOL    HW163091  14.780   8.560  10.778
87084SOL    HW263092   0.030   8.589  10.851
87085SOL     OW63093   2.589   2.866   8.078
87085SOL    HW163094   2.562   2.777   8.056
87085SOL    HW263095   2.671   2.856   8.127
87086SOL     OW63096   5.192  12.547   0.327
87086SOL    HW163097   5.269  12.537   0.383
87086SOL    HW263098   5.223  12.524   0.240
87087SOL     OW63099   6.427   7.826  13.616
87087SOL    HW163100   6.455   7.808  13.705
87087SOL    HW263101   6.500   7.799  13.561
87088SOL     OW63102   8.154  10.458   6.307
87088SOL    HW163103   8.146  10.410   6.224
87088SOL    HW263104   8.158  10.389   6.373
87089SOL     OW63105   9.975  10.810  11.216
87089SOL    HW163106   9.942  10.740  11.160
87089SOL    HW263107   9.947  10.891  11.174
87090SOL     OW63108   0.833   9.787  11.314
87090SOL    HW163109   0.891   9.863  11.316
87090SOL    HW263110   0.873   9.725  11.375
87091SOL     OW63111  14.505   9.763  14.544
87091SOL    HW163112  14.464   9.824  14.482
87091SOL    HW263113  14.466   9.679  14.524
87092SOL     OW63114   4.163   2.445   4.591
87092SOL    HW163115   4.203   2.419   4.509
87092SOL    HW263116   4.129   2.363   4.628
87093SOL     OW63117  11.212   0.459   9.660
87093SOL    HW163118  11.178   0.370   9.654
87093SOL    HW263119  11.159   0.500   9.728
87094SOL     OW63120   2.538   0.632   0.548
87094SOL    HW163121   2.579   0.557   0.592
87094SOL    HW263122   2.561   0.707   0.603
87095SOL     OW63123   2.400  13.518   4.436
87095SOL    HW163124   2.449  13.444   4.472
87095SOL    HW263125   2.335  13.478   4.378
87096SOL     OW63126   5.329   0.767  12.220
87096SOL    HW163127   5.255   0.740  12.167
87096SOL    HW263128   5.295   0.773  12.309
87097SOL     OW63129   0.944   7.134   6.652
87097SOL    HW163130   1.006   7.119   6.724
87097SOL    HW263131   0.860   7.147   6.695
87098SOL     OW63132  13.097  14.033   1.596
87098SOL    HW163133  13.143  13.951   1.614
87098SOL    HW263134  13.145  14.072   1.523
87099SOL     OW63135   9.224   0.943   9.798
87099SOL    HW163136   9.238   0.850   9.817
87099SOL    HW263137   9.303   0.986   9.832
87100SOL     OW63138   2.614   5.388   6.588
87100SOL    HW163139   2.575   5.394   6.501
87100SOL    HW263140   2.699   5.432   6.579
87101SOL     OW63141  13.299   9.945  11.932
87101SOL    HW163142  13.334   9.993  11.857
87101SOL    HW263143  13.377   9.918  11.981
87102SOL     OW63144   2.677  10.364   7.673
87102SOL    HW163145   2.608  10.429   7.658
87102SOL    HW263146   2.641  10.283   7.638
87103SOL     OW63147   8.840   1.254  13.628
87103SOL    HW163148   8.852   1.325  13.565
87103SOL    HW263149   8.746   1.233  13.623
87104SOL     OW63150   7.710  13.126  11.654
87104SOL    HW163151   7.663  13.209  11.650
87104SOL    HW263152   7.727  13.102  11.563
87105SOL     OW63153  10.535   2.675  11.584
87105SOL    HW163154  10.567   2.764  11.570
87105SOL    HW263155  10.443   2.678  11.559
87106SOL     OW63156  10.109   1.026   1.213
87106SOL    HW163157  10.154   1.106   1.183
87106SOL    HW263158  10.061   1.054   1.291
87107SOL     OW63159   2.395   5.582   0.256
87107SOL    HW163160   2.411   5.517   0.325
87107SOL    HW263161   2.301   5.577   0.239
87108SOL     OW63162   3.186  10.512   1.206
87108SOL    HW163163   3.274  10.546   1.217
87108SOL    HW263164   3.139  10.537   1.285
87109SOL     OW63165   1.340   5.268  13.952
87109SOL    HW163166   1.367   5.335  13.889
87109SOL    HW263167   1.415   5.209  13.958
87110SOL     OW63168  14.532   4.956  10.604
87110SOL    HW163169  14.544   5.029  10.544
87110SOL    HW263170  14.584   4.980  10.681
87111SOL     OW63171   8.249   7.399   9.348
87111SOL    HW163172   8.234   7.489   9.378
87111SOL    HW263173   8.179   7.383   9.286
87112SOL     OW63174   7.981   3.602   2.926
87112SOL    HW163175   7.954   3.625   3.015
87112SOL    HW263176   7.902   3.566   2.886
87113SOL     OW63177   2.428   0.876  10.304
87113SOL    HW163178   2.351   0.825  10.278
87113SOL    HW263179   2.444   0.851  10.395
87114SOL     OW63180  10.154   1.039   3.928
87114SOL    HW163181  10.198   0.997   3.855
87114SOL    HW263182  10.073   0.988   3.940
87115SOL     OW63183   5.087  10.468  11.694
87115SOL    HW163184   5.069  10.426  11.778
87115SOL    HW263185   5.009  10.520  11.676
87116SOL     OW63186  11.750  14.196   9.895
87116SOL    HW163187  11.758  14.115   9.945
87116SOL    HW263188  11.710  14.170   9.812
87117SOL     OW63189   3.197  12.912   0.892
87117SOL    HW163190   3.132  12.924   0.823
87117SOL    HW263191   3.164  12.964   0.966
87118SOL     OW63192  14.138  12.868   2.354
87118SOL    HW163193  14.182  12.792   2.316
87118SOL    HW263194  14.046  12.857   2.328
87119SOL     OW63195   6.366   3.777  13.313
87119SOL    HW163196   6.366   3.873  13.313
87119SOL    HW263197   6.301   3.753  13.378
87120SOL     OW63198   2.374  11.474   4.589
87120SOL    HW163199   2.389  11.560   4.550
87120SOL    HW263200   2.393  11.486   4.682
87121SOL     OW63201   5.167   6.557   3.701
87121SOL    HW163202   5.141   6.506   3.624
87121SOL    HW263203   5.131   6.644   3.684
87122SOL     OW63204   4.833   6.816   3.908
87122SOL    HW163205   4.799   6.756   3.842
87122SOL    HW263206   4.912   6.773   3.942
87123SOL     OW63207  10.381   4.017   2.127
87123SOL    HW163208  10.342   3.930   2.138
87123SOL    HW263209  10.417   4.037   2.214
87124SOL     OW63210   7.146   3.759  11.667
87124SOL    HW163211   7.236   3.743  11.697
87124SOL    HW263212   7.109   3.818  11.732
87125SOL     OW63213   3.668   6.459   3.379
87125SOL    HW163214   3.707   6.385   3.426
87125SOL    HW263215   3.664   6.431   3.288
87126SOL     OW63216   1.589   8.251   2.822
87126SOL    HW163217   1.558   8.339   2.841
87126SOL    HW263218   1.633   8.223   2.903
87127SOL     OW63219   0.839   7.084  12.370
87127SOL    HW163220   0.850   6.994  12.342
87127SOL    HW263221   0.928   7.116  12.386
87128SOL     OW63222   7.269   2.651   9.480
87128SOL    HW163223   7.318   2.616   9.406
87128SOL    HW263224   7.318   2.623   9.557
87129SOL     OW63225   4.050  10.506   1.453
87129SOL    HW163226   4.002  10.583   1.483
87129SOL    HW263227   4.032  10.439   1.520
87130SOL     OW63228   6.979   6.876   0.159
87130SOL    HW163229   6.949   6.873   0.250
87130SOL    HW263230   6.916   6.932   0.115
87131SOL     OW63231   9.732   9.536   2.122
87131SOL    HW163232   9.672   9.611   2.127
87131SOL    HW263233   9.720   9.491   2.205
87132SOL     OW63234   5.273   8.504   0.749
87132SOL    HW163235   5.180   8.490   0.730
87132SOL    HW263236   5.317   8.479   0.667
87133SOL     OW63237   2.470  10.590   1.537
87133SOL    HW163238   2.468  10.500   1.504
87133SOL    HW263239   2.406  10.591   1.608
87134SOL     OW63240   1.094  10.172   9.850
87134SOL    HW163241   1.021  10.215   9.805
87134SOL    HW263242   1.119  10.100   9.793
87135SOL     OW63243   0.854   1.978   3.006
87135SOL    HW163244   0.934   1.975   2.953
87135SOL    HW263245   0.854   2.066   3.043
87136SOL     OW63246  14.067   4.045   9.884
87136SOL    HW163247  13.999   3.979   9.899
87136SOL    HW263248  14.120   4.009   9.813
87137SOL     OW63249  12.263  10.685   2.766
87137SOL    HW163250  12.225  10.771   2.750
87137SOL    HW263251  12.329  10.675   2.698
87138SOL     OW63252  14.398  10.446   4.288
87138SOL    HW163253  14.477  10.405   4.321
87138SOL    HW263254  14.375  10.511   4.354
87139SOL     OW63255  10.841  13.746   1.596
87139SOL    HW163256  10.855  13.817   1.533
87139SOL    HW263257  10.752  13.759   1.627
87140SOL     OW63258   7.234   9.102  11.119
87140SOL    HW163259   7.211   9.095  11.212
87140SOL    HW263260   7.192   9.026  11.078
87141SOL     OW63261   6.869  12.756   7.592
87141SOL    HW163262   6.809  12.685   7.617
87141SOL    HW263263   6.954  12.713   7.580
87142SOL     OW63264   7.524   4.679   6.611
87142SOL    HW163265   7.618   4.691   6.619
87142SOL    HW263266   7.489   4.769   6.609
87143SOL     OW63267   9.459  12.763   8.144
87143SOL    HW163268   9.429  12.711   8.070
87143SOL    HW263269   9.553  12.774   8.128
87144SOL     OW63270  10.666  10.661   1.642
87144SOL    HW163271  10.720  10.681   1.719
87144SOL    HW263272  10.584  10.706   1.657
87145SOL     OW63273   9.499  10.452   8.310
87145SOL    HW163274   9.424  10.413   8.266
87145SOL    HW263275   9.522  10.388   8.378
87146SOL     OW63276   8.865   1.582  10.031
87146SOL    HW163277   8.903   1.499  10.060
87146SOL    HW263278   8.933   1.622   9.976
87147SOL     OW63279  11.350   7.286  13.838
87147SOL    HW163280  11.312   7.216  13.785
87147SOL    HW263281  11.274   7.332  13.874
87148SOL     OW63282   4.921   9.076  13.955
87148SOL    HW163283   4.906   9.141  13.887
87148SOL    HW263284   4.834   9.050  13.984
87149SOL     OW63285   3.134   7.125   9.941
87149SOL    HW163286   3.186   7.068   9.997
87149SOL    HW263287   3.055   7.074   9.921
87150SOL     OW63288  10.830   5.060  13.722
87150SOL    HW163289  10.839   5.155  13.724
87150SOL    HW263290  10.785   5.038  13.804
87151SOL     OW63291   3.284   1.860  13.228
87151SOL    HW163292   3.309   1.893  13.315
87151SOL    HW263293   3.188   1.857  13.231
87152SOL     OW63294   0.055   8.200  11.393
87152SOL    HW163295  14.872   8.252  11.444
87152SOL    HW263296   0.003   8.128  11.357
87153SOL     OW63297   9.985   8.183  14.648
87153SOL    HW163298  10.048   8.140  14.705
87153SOL    HW263299   9.923   8.114  14.623
87154SOL     OW63300  10.550   2.177   5.705
87154SOL    HW163301  10.619   2.111   5.699
87154SOL    HW263302  10.594   2.260   5.687
87155SOL     OW63303   6.558   5.829  13.230
87155SOL    HW163304   6.560   5.759  13.296
87155SOL    HW263305   6.473   5.819  13.187
87156SOL     OW63306   1.989  13.538   4.045
87156SOL    HW163307   1.931  13.576   3.979
87156SOL    HW263308   1.977  13.443   4.035
87157SOL     OW63309   0.485   9.879   3.699
87157SOL    HW163310   0.567   9.905   3.742
87157SOL    HW263311   0.490   9.784   3.691
87158SOL     OW63312   8.616  11.530   6.613
87158SOL    HW163313   8.598  11.570   6.528
87158SOL    HW263314   8.710  11.538   6.625
87159SOL     OW63315   1.116   2.272   4.973
87159SOL    HW163316   1.128   2.193   4.919
87159SOL    HW263317   1.203   2.288   5.010
87160SOL     OW63318   4.624   2.000   5.875
87160SOL    HW163319   4.652   2.064   5.940
87160SOL    HW263320   4.564   2.048   5.818
87161SOL     OW63321  11.511  11.254   4.591
87161SOL    HW163322  11.559  11.172   4.587
87161SOL    HW263323  11.437  11.236   4.650
87162SOL     OW63324   5.752  12.332   0.471
87162SOL    HW163325   5.709  12.350   0.554
87162SOL    HW263326   5.682  12.302   0.414
87163SOL     OW63327   7.524   7.036  14.632
87163SOL    HW163328   7.538   7.031  14.538
87163SOL    HW263329   7.431   7.056  14.642
87164SOL     OW63330  10.011  10.026  10.660
87164SOL    HW163331  10.031   9.996  10.571
87164SOL    HW263332   9.968  10.111  10.647
87165SOL     OW63333  14.717   3.579  13.762
87165SOL    HW163334  14.773   3.593  13.686
87165SOL    HW263335  14.777   3.557  13.833
87166SOL     OW63336  10.032   9.206   4.154
87166SOL    HW163337   9.974   9.243   4.221
87166SOL    HW263338  10.099   9.272   4.141
87167SOL     OW63339   5.490  10.366  14.481
87167SOL    HW163340   5.565  10.388  14.425
87167SOL    HW263341   5.512  10.281  14.519
87168SOL     OW63342   3.136  11.654   8.269
87168SOL    HW163343   3.146  11.560   8.255
87168SOL    HW263344   3.132  11.664   8.364
87169SOL     OW63345  12.799  14.072   7.999
87169SOL    HW163346  12.771  14.164   7.995
87169SOL    HW263347  12.718  14.022   7.996
87170SOL     OW63348   4.641   5.058  13.352
87170SOL    HW163349   4.723   5.077  13.397
87170SOL    HW263350   4.616   5.141  13.311
87171SOL     OW63351  11.122   2.886   8.134
87171SOL    HW163352  11.093   2.850   8.050
87171SOL    HW263353  11.180   2.958   8.111
87172SOL     OW63354   6.699   8.802   6.560
87172SOL    HW163355   6.755   8.872   6.593
87172SOL    HW263356   6.761   8.731   6.540
87173SOL     OW63357   6.046   2.241  12.622
87173SOL    HW163358   6.090   2.325  12.633
87173SOL    HW263359   6.116   2.176  12.624
87174SOL     OW63360  11.268  11.464   3.055
87174SOL    HW163361  11.309  11.550   3.061
87174SOL    HW263362  11.179  11.478   3.087
87175SOL     OW63363   0.918   0.226  10.290
87175SOL    HW163364   0.997   0.205  10.239
87175SOL    HW263365   0.855   0.159  10.263
87176SOL     OW63366   5.559   1.860  11.090
87176SOL    HW163367   5.605   1.781  11.062
87176SOL    HW263368   5.595   1.879  11.177
87177SOL     OW63369  12.844   6.881   5.666
87177SOL    HW163370  12.849   6.883   5.761
87177SOL    HW263371  12.860   6.790   5.642
87178SOL     OW63372  14.459   3.845  11.187
87178SOL    HW163373  14.380   3.793  11.202
87178SOL    HW263374  14.429   3.923  11.140
87179SOL     OW63375  13.278  10.288  10.781
87179SOL    HW163376  13.280  10.374  10.821
87179SOL    HW263377  13.197  10.248  10.813
87180SOL     OW63378   2.951  13.999   4.033
87180SOL    HW163379   2.889  14.071   4.038
87180SOL    HW263380   2.907  13.927   4.078
87181SOL     OW63381   4.103   9.561  14.230
87181SOL    HW163382   4.170   9.495  14.248
87181SOL    HW263383   4.148   9.645  14.243
87182SOL     OW63384   6.945   3.119   5.090
87182SOL    HW163385   6.904   3.133   5.175
87182SOL    HW263386   6.882   3.155   5.027
87183SOL     OW63387   7.137   1.175   2.934
87183SOL    HW163388   7.193   1.231   2.987
87183SOL    HW263389   7.068   1.146   2.993
87184SOL     OW63390   6.925   7.535   0.256
87184SOL    HW163391   6.956   7.578   0.176
87184SOL    HW263392   7.005   7.503   0.299
87185SOL     OW63393  11.907   6.969   6.652
87185SOL    HW163394  11.975   7.020   6.696
87185SOL    HW263395  11.825   7.002   6.688
87186SOL     OW63396   4.790   8.908   9.066
87186SOL    HW163397   4.873   8.888   9.023
87186SOL    HW263398   4.810   8.982   9.123
87187SOL     OW63399   9.650   4.735   9.493
87187SOL    HW163400   9.675   4.712   9.403
87187SOL    HW263401   9.569   4.687   9.509
87188SOL     OW63402  13.465   3.484   8.525
87188SOL    HW163403  13.420   3.406   8.557
87188SOL    HW263404  13.513   3.454   8.448
87189SOL     OW63405  13.606  13.592   9.549
87189SOL    HW163406  13.535  13.652   9.529
87189SOL    HW263407  13.681  13.626   9.500
87190SOL     OW63408   2.148  10.703  13.445
87190SOL    HW163409   2.160  10.794  13.473
87190SOL    HW263410   2.053  10.692  13.439
87191SOL     OW63411   7.869   5.505   9.087
87191SOL    HW163412   7.836   5.532   9.173
87191SOL    HW263413   7.936   5.569   9.065
87192SOL     OW63414   6.988   7.929   6.906
87192SOL    HW163415   7.030   8.015   6.907
87192SOL    HW263416   6.973   7.910   6.814
87193SOL     OW63417   6.285  12.002  12.150
87193SOL    HW163418   6.248  12.064  12.213
87193SOL    HW263419   6.322  12.058  12.081
87194SOL     OW63420  11.388   5.724   6.080
87194SOL    HW163421  11.375   5.639   6.038
87194SOL    HW263422  11.320   5.780   6.042
87195SOL     OW63423   3.422   9.120   5.227
87195SOL    HW163424   3.463   9.148   5.145
87195SOL    HW263425   3.421   9.199   5.281
87196SOL     OW63426   1.498  14.471  14.705
87196SOL    HW163427   1.512  14.438  14.793
87196SOL    HW263428   1.419  14.427  14.675
87197SOL     OW63429  10.568   3.708  12.335
87197SOL    HW163430  10.496   3.745  12.386
87197SOL    HW263431  10.635   3.777  12.334
87198SOL     OW63432   2.937  12.903   7.932
87198SOL    HW163433   2.934  12.998   7.924
87198SOL    HW263434   2.935  12.888   8.027
87199SOL     OW63435   2.250   0.104  11.485
87199SOL    HW163436   2.154   0.102  11.488
87199SOL    HW263437   2.277   0.061  11.566
87200SOL     OW63438   3.105   3.233   5.453
87200SOL    HW163439   3.137   3.322   5.463
87200SOL    HW263440   3.011   3.242   5.439
87201SOL     OW63441   0.258  13.777   7.564
87201SOL    HW163442   0.344  13.745   7.536
87201SOL    HW263443   0.270  13.804   7.655
87202SOL     OW63444   3.469   6.397  12.226
87202SOL    HW163445   3.440   6.362  12.310
87202SOL    HW263446   3.390   6.436  12.188
87203SOL     OW63447  14.534   3.490  11.210
87203SOL    HW163448  14.513   3.564  11.268
87203SOL    HW263449  14.456   3.480  11.155
87204SOL     OW63450   1.669  10.168   5.732
87204SOL    HW163451   1.655  10.259   5.703
87204SOL    HW263452   1.738  10.135   5.675
87205SOL     OW63453   1.469   7.095   7.183
87205SOL    HW163454   1.390   7.062   7.140
87205SOL    HW263455   1.448   7.092   7.276
87206SOL     OW63456   0.461   9.680   9.886
87206SOL    HW163457   0.476   9.772   9.861
87206SOL    HW263458   0.507   9.629   9.820
87207SOL     OW63459  12.218   5.859  13.853
87207SOL    HW163460  12.294   5.804  13.833
87207SOL    HW263461  12.170   5.865  13.770
87208SOL     OW63462  12.679  13.868   3.406
87208SOL    HW163463  12.595  13.862   3.451
87208SOL    HW263464  12.667  13.818   3.325
87209SOL     OW63465   9.948   3.399   7.447
87209SOL    HW163466   9.966   3.316   7.492
87209SOL    HW263467   9.884   3.442   7.503
87210SOL     OW63468  14.533   8.106   3.885
87210SOL    HW163469  14.476   8.078   3.957
87210SOL    HW263470  14.488   8.076   3.806
87211SOL     OW63471   0.689   4.514  11.015
87211SOL    HW163472   0.699   4.524  10.920
87211SOL    HW263473   0.653   4.426  11.026
87212SOL     OW63474   9.853   4.738   1.253
87212SOL    HW163475   9.943   4.766   1.238
87212SOL    HW263476   9.813   4.811   1.301
87213SOL     OW63477   2.348  14.240   3.150
87213SOL    HW163478   2.300  14.207   3.074
87213SOL    HW263479   2.439  14.213   3.136
87214SOL     OW63480   4.762   5.516   8.816
87214SOL    HW163481   4.712   5.495   8.737
87214SOL    HW263482   4.710   5.479   8.888
87215SOL     OW63483   8.412   2.467   7.762
87215SOL    HW163484   8.348   2.405   7.795
87215SOL    HW263485   8.376   2.553   7.784
87216SOL     OW63486   3.437   3.752  13.593
87216SOL    HW163487   3.376   3.774  13.662
87216SOL    HW263488   3.389   3.768  13.512
87217SOL     OW63489  14.643   8.256   6.174
87217SOL    HW163490  14.562   8.299   6.200
87217SOL    HW263491  14.708   8.326   6.173
87218SOL     OW63492   0.535   5.837   7.503
87218SOL    HW163493   0.516   5.929   7.485
87218SOL    HW263494   0.449   5.794   7.503
87219SOL     OW63495   1.059   7.699  12.575
87219SOL    HW163496   0.997   7.635  12.541
87219SOL    HW263497   1.077   7.757  12.501
87220SOL     OW63498  12.211  13.113   4.018
87220SOL    HW163499  12.284  13.100   4.078
87220SOL    HW263500  12.231  13.058   3.943
87221SOL     OW63501   6.362   1.992   3.752
87221SOL    HW163502   6.386   1.979   3.660
87221SOL    HW263503   6.446   2.011   3.795
87222SOL     OW63504  10.050   5.451  12.410
87222SOL    HW163505   9.966   5.489  12.435
87222SOL    HW263506  10.085   5.511  12.344
87223SOL     OW63507   0.511   0.157   5.804
87223SOL    HW163508   0.487   0.249   5.795
87223SOL    HW263509   0.472   0.114   5.728
87224SOL     OW63510   4.172  14.810   2.133
87224SOL    HW163511   4.188  14.716   2.132
87224SOL    HW263512   4.159  14.831   2.226
87225SOL     OW63513   9.393   6.314  13.023
87225SOL    HW163514   9.417   6.267  13.103
87225SOL    HW263515   9.460   6.383  13.016
87226SOL     OW63516  13.014  14.377   0.908
87226SOL    HW163517  12.973  14.317   0.845
87226SOL    HW263518  12.983  14.464   0.881
87227SOL     OW63519  12.894  12.657   3.012
87227SOL    HW163520  12.881  12.749   2.990
87227SOL    HW263521  12.818  12.612   2.975
87228SOL     OW63522  10.198   2.065  11.354
87228SOL    HW163523  10.190   2.001  11.283
87228SOL    HW263524  10.191   2.150  11.310
87229SOL     OW63525   5.766   5.616   0.349
87229SOL    HW163526   5.742   5.600   0.440
87229SOL    HW263527   5.770   5.529   0.310
87230SOL     OW63528  13.813  10.244   8.234
87230SOL    HW163529  13.718  10.253   8.225
87230SOL    HW263530  13.848  10.266   8.148
87231SOL     OW63531   3.842   7.090  14.694
87231SOL    HW163532   3.793   7.169  14.672
87231SOL    HW263533   3.780   7.036  14.743
87232SOL     OW63534   1.311   6.600  12.419
87232SOL    HW163535   1.380   6.645  12.469
87232SOL    HW263536   1.253   6.564  12.486
87233SOL     OW63537  12.527   1.215   0.769
87233SOL    HW163538  12.536   1.218   0.674
87233SOL    HW263539  12.451   1.159   0.784
87234SOL     OW63540   6.483   2.183   3.040
87234SOL    HW163541   6.522   2.270   3.047
87234SOL    HW263542   6.482   2.163   2.947
87235SOL     OW63543  11.662  13.986   2.294
87235SOL    HW163544  11.718  14.039   2.238
87235SOL    HW263545  11.663  14.031   2.378
87236SOL     OW63546   9.394   4.623   2.100
87236SOL    HW163547   9.466   4.593   2.156
87236SOL    HW263548   9.433   4.692   2.046
87237SOL     OW63549  12.284  12.819   0.193
87237SOL    HW163550  12.195  12.852   0.187
87237SOL    HW263551  12.321  12.864   0.270
87238SOL     OW63552   1.818  12.661   2.148
87238SOL    HW163553   1.803  12.746   2.107
87238SOL    HW263554   1.893  12.674   2.205
87239SOL     OW63555  13.139   2.975   5.583
87239SOL    HW163556  13.047   2.994   5.564
87239SOL    HW263557  13.137   2.934   5.669
87240SOL     OW63558   6.839   7.923  10.069
87240SOL    HW163559   6.823   7.915  10.163
87240SOL    HW263560   6.752   7.925  10.030
87241SOL     OW63561  10.255   1.470   1.505
87241SOL    HW163562  10.268   1.466   1.600
87241SOL    HW263563  10.272   1.381   1.476
87242SOL     OW63564  10.221   1.680   8.062
87242SOL    HW163565  10.193   1.603   8.110
87242SOL    HW263566  10.141   1.730   8.047
87243SOL     OW63567   3.191  11.914  11.031
87243SOL    HW163568   3.279  11.937  11.002
87243SOL    HW263569   3.198  11.904  11.126
87244SOL     OW63570  11.828   3.702  14.576
87244SOL    HW163571  11.849   3.754  14.653
87244SOL    HW263572  11.909   3.654  14.557
87245SOL     OW63573   1.491   7.304   0.381
87245SOL    HW163574   1.575   7.268   0.352
87245SOL    HW263575   1.444   7.228   0.415
87246SOL     OW63576  10.105   5.829   8.400
87246SOL    HW163577  10.036   5.779   8.356
87246SOL    HW263578  10.064   5.860   8.481
87247SOL     OW63579  13.406   6.338   8.167
87247SOL    HW163580  13.378   6.321   8.077
87247SOL    HW263581  13.347   6.407   8.198
87248SOL     OW63582  14.716   5.267  14.151
87248SOL    HW163583  14.783   5.268  14.220
87248SOL    HW263584  14.753   5.321  14.082
87249SOL     OW63585  14.554  12.507  13.916
87249SOL    HW163586  14.517  12.519  14.003
87249SOL    HW263587  14.555  12.595  13.879
87250SOL     OW63588   8.883   4.002   9.541
87250SOL    HW163589   8.907   4.059   9.614
87250SOL    HW263590   8.873   3.916   9.581
87251SOL     OW63591  14.038   0.616   5.067
87251SOL    HW163592  14.133   0.619   5.061
87251SOL    HW263593  14.012   0.704   5.094
87252SOL     OW63594   3.617   1.150   1.807
87252SOL    HW163595   3.688   1.134   1.870
87252SOL    HW263596   3.544   1.181   1.860
87253SOL     OW63597   7.333  10.775   0.715
87253SOL    HW163598   7.239  10.755   0.713
87253SOL    HW263599   7.349  10.827   0.636
87254SOL     OW63600  10.889  11.937  14.676
87254SOL    HW163601  10.893  11.954  14.581
87254SOL    HW263602  10.929  12.014  14.715
87255SOL     OW63603   2.802   5.562   0.727
87255SOL    HW163604   2.767   5.526   0.809
87255SOL    HW263605   2.862   5.495   0.694
87256SOL     OW63606   1.828   7.270  14.344
87256SOL    HW163607   1.842   7.296  14.435
87256SOL    HW263608   1.872   7.185  14.336
87257SOL     OW63609   7.050   8.586   8.517
87257SOL    HW163610   7.022   8.644   8.587
87257SOL    HW263611   7.032   8.635   8.436
87258SOL     OW63612  13.504   1.303  13.087
87258SOL    HW163613  13.499   1.346  13.002
87258SOL    HW263614  13.549   1.365  13.143
87259SOL     OW63615   8.790   2.174  11.065
87259SOL    HW163616   8.878   2.150  11.091
87259SOL    HW263617   8.749   2.091  11.039
87260SOL     OW63618  14.767   7.703   3.440
87260SOL    HW163619  14.862   7.695   3.441
87260SOL    HW263620  14.750   7.791   3.475
87261SOL     OW63621  10.484   0.337  12.060
87261SOL    HW163622  10.410   0.321  12.119
87261SOL    HW263623  10.513   0.250  12.033
87262SOL     OW63624   6.550   0.899  13.096
87262SOL    HW163625   6.536   0.983  13.141
87262SOL    HW263626   6.602   0.922  13.019
87263SOL     OW63627   8.160  10.978   0.574
87263SOL    HW163628   8.237  10.962   0.520
87263SOL    HW263629   8.160  10.908   0.638
87264SOL     OW63630   4.826   1.679   7.536
87264SOL    HW163631   4.910   1.634   7.527
87264SOL    HW263632   4.777   1.628   7.600
87265SOL     OW63633   1.102   5.039  10.985
87265SOL    HW163634   1.118   5.100  11.057
87265SOL    HW263635   1.014   5.060  10.954
87266SOL     OW63636   5.537   4.779   7.125
87266SOL    HW163637   5.573   4.727   7.196
87266SOL    HW263638   5.613   4.803   7.072
87267SOL     OW63639   9.748  12.024   9.623
87267SOL    HW163640   9.839  12.039   9.599
87267SOL    HW263641   9.745  12.037   9.718
87268SOL     OW63642   1.603  12.136   4.854
87268SOL    HW163643   1.597  12.228   4.877
87268SOL    HW263644   1.639  12.094   4.932
87269SOL     OW63645   9.845  10.197  12.022
87269SOL    HW163646   9.835  10.211  12.116
87269SOL    HW263647   9.916  10.134  12.014
87270SOL     OW63648   6.315  11.975   2.634
87270SOL    HW163649   6.249  12.006   2.696
87270SOL    HW263650   6.397  11.974   2.684
87271SOL     OW63651   2.169   4.478   4.646
87271SOL    HW163652   2.196   4.519   4.564
87271SOL    HW263653   2.078   4.503   4.657
87272SOL     OW63654   1.937   6.592   2.626
87272SOL    HW163655   1.998   6.522   2.648
87272SOL    HW263656   1.851   6.558   2.650
87273SOL     OW63657  14.807   8.359   2.493
87273SOL    HW163658  14.730   8.302   2.484
87273SOL    HW263659  14.810   8.409   2.411
87274SOL     OW63660   0.391   9.575   5.868
87274SOL    HW163661   0.332   9.596   5.940
87274SOL    HW263662   0.353   9.498   5.827
87275SOL     OW63663   5.583   8.029  11.036
87275SOL    HW163664   5.587   7.977  11.116
87275SOL    HW263665   5.527   8.104  11.059
87276SOL     OW63666  12.410  14.307   6.493
87276SOL    HW163667  12.408  14.325   6.399
87276SOL    HW263668  12.460  14.381   6.530
87277SOL     OW63669  10.085   9.434   2.420
87277SOL    HW163670  10.075   9.347   2.379
87277SOL    HW263671  10.092   9.416   2.513
87278SOL     OW63672  14.355   3.145   9.318
87278SOL    HW163673  14.319   3.187   9.239
87278SOL    HW263674  14.278   3.131   9.373
87279SOL     OW63675  14.396   0.388   3.736
87279SOL    HW163676  14.457   0.377   3.809
87279SOL    HW263677  14.358   0.475   3.750
87280SOL     OW63678   5.214  11.339   1.731
87280SOL    HW163679   5.173  11.415   1.691
87280SOL    HW263680   5.228  11.278   1.658
87281SOL     OW63681  12.148  14.644   0.782
87281SOL    HW163682  12.060  14.622   0.750
87281SOL    HW263683  12.190  14.688   0.709
87282SOL     OW63684   3.362  10.751  11.193
87282SOL    HW163685   3.392  10.804  11.267
87282SOL    HW263686   3.437  10.746  11.135
87283SOL     OW63687   9.845   4.189   5.755
87283SOL    HW163688   9.795   4.157   5.680
87283SOL    HW263689   9.829   4.126   5.825
87284SOL     OW63690   4.710   1.177  12.914
87284SOL    HW163691   4.742   1.096  12.954
87284SOL    HW263692   4.633   1.202  12.966
87285SOL     OW63693  14.214  14.624   3.275
87285SOL    HW163694  14.306  14.619   3.301
87285SOL    HW263695  14.173  14.675   3.345
87286SOL     OW63696   1.537  11.208   8.879
87286SOL    HW163697   1.523  11.168   8.793
87286SOL    HW263698   1.600  11.278   8.864
87287SOL     OW63699   8.121   0.736   1.028
87287SOL    HW163700   8.138   0.817   0.979
87287SOL    HW263701   8.175   0.744   1.107
87288SOL     OW63702   0.104  11.256   2.740
87288SOL    HW163703   0.112  11.350   2.725
87288SOL    HW263704   0.011  11.238   2.726
87289SOL     OW63705   4.313   3.686   1.950
87289SOL    HW163706   4.267   3.650   1.875
87289SOL    HW263707   4.323   3.613   2.010
87290SOL     OW63708  13.321   4.835   2.874
87290SOL    HW163709  13.361   4.834   2.787
87290SOL    HW263710  13.327   4.745   2.904
87291SOL     OW63711  13.343   5.565   9.130
87291SOL    HW163712  13.250   5.580   9.115
87291SOL    HW263713  13.378   5.542   9.043
87292SOL     OW63714   7.211  14.848   6.131
87292SOL    HW163715   7.176   0.016   6.055
87292SOL    HW263716   7.252  14.770   6.094
87293SOL     OW63717   3.131   6.996  13.773
87293SOL    HW163718   3.036   7.004  13.761
87293SOL    HW263719   3.143   6.908  13.807
87294SOL     OW63720   4.045   3.552   7.333
87294SOL    HW163721   3.973   3.605   7.367
87294SOL    HW263722   4.105   3.616   7.295
87295SOL     OW63723  11.028   3.547  10.317
87295SOL    HW163724  10.942   3.505  10.324
87295SOL    HW263725  11.052   3.539  10.225
87296SOL     OW63726   2.260   1.798   1.368
87296SOL    HW163727   2.339   1.755   1.400
87296SOL    HW263728   2.248   1.873   1.426
87297SOL     OW63729  10.975   1.380   6.426
87297SOL    HW163730  11.006   1.355   6.512
87297SOL    HW263731  11.027   1.456   6.402
87298SOL     OW63732   3.779   7.344   4.446
87298SOL    HW163733   3.828   7.274   4.403
87298SOL    HW263734   3.831   7.423   4.429
87299SOL     OW63735  11.884   6.303   5.650
87299SOL    HW163736  11.974   6.268   5.646
87299SOL    HW263737  11.838   6.257   5.580
87300SOL     OW63738  10.565   8.036   9.224
87300SOL    HW163739  10.638   8.029   9.162
87300SOL    HW263740  10.499   7.976   9.190
87301SOL     OW63741  10.724   6.139   6.930
87301SOL    HW163742  10.716   6.231   6.954
87301SOL    HW263743  10.675   6.092   6.998
87302SOL     OW63744   1.426   1.450   6.797
87302SOL    HW163745   1.494   1.458   6.864
87302SOL    HW263746   1.416   1.538   6.761
87303SOL     OW63747   0.507   5.516   8.931
87303SOL    HW163748   0.457   5.570   8.992
87303SOL    HW263749   0.539   5.577   8.865
87304SOL     OW63750  10.736   2.117  12.769
87304SOL    HW163751  10.786   2.190  12.732
87304SOL    HW263752  10.723   2.058  12.695
87305SOL     OW63753   0.643   5.575  11.055
87305SOL    HW163754   0.706   5.556  11.124
87305SOL    HW263755   0.695   5.616  10.985
87306SOL     OW63756   3.546   3.636   0.989
87306SOL    HW163757   3.503   3.605   0.910
87306SOL    HW263758   3.554   3.558   1.045
87307SOL     OW63759  10.210   9.587  14.429
87307SOL    HW163760  10.282   9.523  14.426
87307SOL    HW263761  10.241   9.654  14.490
87308SOL     OW63762   4.361   7.835   1.090
87308SOL    HW163763   4.401   7.898   1.030
87308SOL    HW263764   4.391   7.749   1.059
87309SOL     OW63765  11.275  12.181   6.467
87309SOL    HW163766  11.339  12.235   6.422
87309SOL    HW263767  11.327  12.116   6.514
87310SOL     OW63768   6.145  14.650  10.578
87310SOL    HW163769   6.148  14.558  10.553
87310SOL    HW263770   6.052  14.671  10.582
87311SOL     OW63771   6.298   8.665   0.063
87311SOL    HW163772   6.317   8.748   0.021
87311SOL    HW263773   6.301   8.601  14.871
87312SOL     OW63774  14.507   1.502  10.732
87312SOL    HW163775  14.538   1.549  10.654
87312SOL    HW263776  14.525   1.561  10.805
87313SOL     OW63777   3.050   2.106  12.578
87313SOL    HW163778   3.092   2.050  12.644
87313SOL    HW263779   3.015   2.045  12.513
87314SOL     OW63780  13.431   3.922  12.608
87314SOL    HW163781  13.455   4.014  12.605
87314SOL    HW263782  13.495   3.879  12.551
87315SOL     OW63783   6.915   3.848   2.074
87315SOL    HW163784   6.962   3.881   1.998
87315SOL    HW263785   6.937   3.910   2.144
87316SOL     OW63786  14.123   2.743   2.956
87316SOL    HW163787  14.057   2.785   2.901
87316SOL    HW263788  14.088   2.751   3.045
87317SOL     OW63789  13.709   7.025   4.735
87317SOL    HW163790  13.768   6.984   4.672
87317SOL    HW263791  13.699   7.115   4.703
87318SOL     OW63792  14.249  13.004   8.138
87318SOL    HW163793  14.326  13.060   8.135
87318SOL    HW263794  14.258  12.947   8.061
87319SOL     OW63795  14.875   9.740  12.909
87319SOL    HW163796   0.011   9.673  12.975
87319SOL    HW263797  14.807   9.796  12.947
87320SOL     OW63798   9.792  13.419  10.373
87320SOL    HW163799   9.764  13.360  10.443
87320SOL    HW263800   9.733  13.399  10.300
87321SOL     OW63801   7.435   7.165  13.212
87321SOL    HW163802   7.404   7.229  13.276
87321SOL    HW263803   7.475   7.218  13.142
87322SOL     OW63804   1.351  11.915  14.720
87322SOL    HW163805   1.344  11.922  14.624
87322SOL    HW263806   1.263  11.933  14.752
87323SOL     OW63807   9.095  11.009   1.462
87323SOL    HW163808   9.014  10.971   1.428
87323SOL    HW263809   9.139  11.046   1.385
87324SOL     OW63810   4.460   4.421   6.738
87324SOL    HW163811   4.368   4.446   6.747
87324SOL    HW263812   4.498   4.488   6.681
87325SOL     OW63813   6.680  12.477  14.007
87325SOL    HW163814   6.664  12.390  14.045
87325SOL    HW263815   6.687  12.535  14.083
87326SOL     OW63816  10.602   7.388   6.924
87326SOL    HW163817  10.554   7.312   6.890
87326SOL    HW263818  10.653   7.419   6.849
87327SOL     OW63819   1.855  12.940   5.672
87327SOL    HW163820   1.894  12.852   5.673
87327SOL    HW263821   1.929  12.999   5.687
87328SOL     OW63822   9.689  14.768  11.111
87328SOL    HW163823   9.660  14.677  11.106
87328SOL    HW263824   9.670  14.804  11.024
87329SOL     OW63825   0.773   0.250  13.548
87329SOL    HW163826   0.736   0.167  13.576
87329SOL    HW263827   0.719   0.276  13.473
87330SOL     OW63828   2.028   7.309   7.938
87330SOL    HW163829   2.020   7.273   7.849
87330SOL    HW263830   1.942   7.345   7.956
87331SOL     OW63831   6.364  11.267  13.747
87331SOL    HW163832   6.444  11.279  13.696
87331SOL    HW263833   6.301  11.232  13.684
87332SOL     OW63834   7.241  13.745   1.851
87332SOL    HW163835   7.187  13.734   1.772
87332SOL    HW263836   7.238  13.839   1.868
87333SOL     OW63837   3.798   6.052   5.667
87333SOL    HW163838   3.707   6.031   5.687
87333SOL    HW263839   3.825   5.984   5.605
87334SOL     OW63840   5.422   8.928   6.261
87334SOL    HW163841   5.464   8.991   6.319
87334SOL    HW263842   5.404   8.979   6.181
87335SOL     OW63843   3.361  11.111  14.698
87335SOL    HW163844   3.360  11.137  14.606
87335SOL    HW263845   3.432  11.163  14.737
87336SOL     OW63846  13.393   6.936   9.838
87336SOL    HW163847  13.427   6.851   9.867
87336SOL    HW263848  13.470   6.992   9.830
87337SOL     OW63849  10.964   5.813  12.215
87337SOL    HW163850  10.963   5.900  12.175
87337SOL    HW263851  11.044   5.772  12.181
87338SOL     OW63852   2.758  11.229   7.157
87338SOL    HW163853   2.841  11.276   7.168
87338SOL    HW263854   2.753  11.213   7.063
87339SOL     OW63855  12.735   3.179   8.875
87339SOL    HW163856  12.744   3.134   8.960
87339SOL    HW263857  12.656   3.141   8.836
87340SOL     OW63858   7.620   7.991   8.066
87340SOL    HW163859   7.627   8.086   8.072
87340SOL    HW263860   7.708   7.959   8.087
87341SOL     OW63861   4.211  13.541   5.763
87341SOL    HW163862   4.152  13.470   5.791
87341SOL    HW263863   4.157  13.598   5.709
87342SOL     OW63864   2.486   4.281   0.237
87342SOL    HW163865   2.418   4.233   0.189
87342SOL    HW263866   2.464   4.373   0.227
87343SOL     OW63867   8.351  13.783   5.517
87343SOL    HW163868   8.269  13.745   5.485
87343SOL    HW263869   8.383  13.720   5.582
87344SOL     OW63870  11.066   1.808   2.255
87344SOL    HW163871  10.974   1.782   2.258
87344SOL    HW263872  11.078   1.863   2.332
87345SOL     OW63873  12.404   3.031   7.386
87345SOL    HW163874  12.467   2.975   7.430
87345SOL    HW263875  12.356   2.972   7.327
87346SOL     OW63876   5.132   7.308  11.742
87346SOL    HW163877   5.225   7.320  11.760
87346SOL    HW263878   5.088   7.353  11.814
87347SOL     OW63879   3.593  10.541   8.815
87347SOL    HW163880   3.582  10.601   8.888
87347SOL    HW263881   3.555  10.458   8.846
87348SOL     OW63882   3.655  14.269  14.601
87348SOL    HW163883   3.720  14.334  14.630
87348SOL    HW263884   3.706  14.206  14.550
87349SOL     OW63885   5.208  11.953  13.817
87349SOL    HW163886   5.247  11.991  13.896
87349SOL    HW263887   5.133  11.902  13.850
87350SOL     OW63888   8.947   1.485   4.801
87350SOL    HW163889   8.955   1.486   4.897
87350SOL    HW263890   8.955   1.576   4.775
87351SOL     OW63891   3.918  13.457   6.663
87351SOL    HW163892   3.873  13.404   6.598
87351SOL    HW263893   4.011  13.433   6.653
87352SOL     OW63894   1.898   2.225   9.681
87352SOL    HW163895   1.812   2.240   9.720
87352SOL    HW263896   1.899   2.132   9.661
87353SOL     OW63897  11.968   4.796   6.454
87353SOL    HW163898  12.054   4.754   6.465
87353SOL    HW263899  11.926   4.746   6.384
87354SOL     OW63900   5.858   5.723  11.089
87354SOL    HW163901   5.867   5.780  11.166
87354SOL    HW263902   5.918   5.650  11.107
87355SOL     OW63903  14.780   3.689   9.857
87355SOL    HW163904  14.738   3.758   9.909
87355SOL    HW263905  14.775   3.611   9.913
87356SOL     OW63906   4.510  13.272   2.856
87356SOL    HW163907   4.604  13.264   2.873
87356SOL    HW263908   4.470  13.208   2.916
87357SOL     OW63909   3.845   9.940   8.720
87357SOL    HW163910   3.825   9.973   8.808
87357SOL    HW263911   3.930   9.977   8.699
87358SOL     OW63912   4.169   0.617   1.642
87358SOL    HW163913   4.091   0.605   1.697
87358SOL    HW263914   4.142   0.586   1.555
87359SOL     OW63915   3.189   7.900   1.636
87359SOL    HW163916   3.255   7.917   1.569
87359SOL    HW263917   3.128   7.974   1.628
87360SOL     OW63918   4.258   1.514   0.134
87360SOL    HW163919   4.305   1.596   0.150
87360SOL    HW263920   4.273   1.495   0.041
87361SOL     OW63921   4.875  14.321  13.745
87361SOL    HW163922   4.847  14.286  13.661
87361SOL    HW263923   4.958  14.277  13.763
87362SOL     OW63924  12.929   2.295  11.579
87362SOL    HW163925  12.877   2.375  11.590
87362SOL    HW263926  12.899   2.258  11.496
87363SOL     OW63927   1.823   4.047   1.438
87363SOL    HW163928   1.732   4.057   1.465
87363SOL    HW263929   1.849   3.961   1.471
87364SOL     OW63930   7.562  12.201  10.036
87364SOL    HW163931   7.614  12.262   9.985
87364SOL    HW263932   7.486  12.252  10.064
87365SOL     OW63933  11.945   0.010  13.339
87365SOL    HW163934  12.008  14.830  13.297
87365SOL    HW263935  11.988   0.037  13.420
87366SOL     OW63936   5.414   7.313   3.613
87366SOL    HW163937   5.421   7.328   3.707
87366SOL    HW263938   5.321   7.296   3.598
87367SOL     OW63939   2.452   1.467   5.934
87367SOL    HW163940   2.457   1.542   5.875
87367SOL    HW263941   2.542   1.434   5.937
87368SOL     OW63942   0.523  11.370  14.361
87368SOL    HW163943   0.588  11.436  14.339
87368SOL    HW263944   0.526  11.365  14.457
87369SOL     OW63945   1.870   1.767   5.958
87369SOL    HW163946   1.807   1.711   6.003
87369SOL    HW263947   1.900   1.828   6.025
87370SOL     OW63948   6.467   9.147   3.415
87370SOL    HW163949   6.374   9.160   3.396
87370SOL    HW263950   6.476   9.052   3.423
87371SOL     OW63951   1.673   1.198  11.576
87371SOL    HW163952   1.655   1.181  11.669
87371SOL    HW263953   1.687   1.111  11.538
87372SOL     OW63954   2.492   0.434   1.268
87372SOL    HW163955   2.489   0.405   1.359
87372SOL    HW263956   2.418   0.495   1.260
87373SOL     OW63957   9.761   5.726   6.681
87373SOL    HW163958   9.809   5.746   6.601
87373SOL    HW263959   9.692   5.792   6.685
87374SOL     OW63960  11.343  14.040  12.992
87374SOL    HW163961  11.309  14.102  12.928
87374SOL    HW263962  11.285  13.965  12.987
87375SOL     OW63963   7.193   5.721   5.237
87375SOL    HW163964   7.288   5.712   5.247
87375SOL    HW263965   7.179   5.814   5.225
87376SOL     OW63966   8.979  10.903   9.009
87376SOL    HW163967   8.898  10.926   8.964
87376SOL    HW263968   8.983  10.808   9.007
87377SOL     OW63969  14.719   0.284   8.306
87377SOL    HW163970  14.631   0.321   8.296
87377SOL    HW263971  14.753   0.279   8.216
87378SOL     OW63972   0.400   0.862   1.653
87378SOL    HW163973   0.376   0.945   1.611
87378SOL    HW263974   0.320   0.810   1.649
87379SOL     OW63975   0.544   7.007   8.161
87379SOL    HW163976   0.491   6.972   8.089
87379SOL    HW263977   0.490   6.994   8.239
87380SOL     OW63978  13.207   2.151   5.477
87380SOL    HW163979  13.122   2.111   5.463
87380SOL    HW263980  13.227   2.194   5.393
87381SOL     OW63981   9.564   3.599   3.087
87381SOL    HW163982   9.655   3.621   3.063
87381SOL    HW263983   9.517   3.598   3.003
87382SOL     OW63984   8.574   0.958  12.183
87382SOL    HW163985   8.561   0.879  12.236
87382SOL    HW263986   8.664   0.985  12.202
87383SOL     OW63987   9.377   5.429  11.312
87383SOL    HW163988   9.320   5.386  11.249
87383SOL    HW263989   9.356   5.522  11.305
87384SOL     OW63990   5.985   3.904   5.916
87384SOL    HW163991   5.895   3.902   5.950
87384SOL    HW263992   5.993   3.823   5.867
87385SOL     OW63993   3.052   3.086   1.276
87385SOL    HW163994   2.972   3.093   1.329
87385SOL    HW263995   3.121   3.122   1.330
87386SOL     OW63996   1.015   9.794  12.844
87386SOL    HW163997   0.977   9.766  12.761
87386SOL    HW263998   1.099   9.749  12.848
87387SOL     OW63999  14.670  12.934   7.124
87387SOL    HW164000  14.608  12.877   7.077
87387SOL    HW264001  14.739  12.875   7.154
87388SOL     OW64002   4.136  14.808   4.779
87388SOL    HW164003   4.104  14.879   4.836
87388SOL    HW264004   4.210  14.771   4.826
87389SOL     OW64005   4.574   4.571   1.213
87389SOL    HW164006   4.565   4.496   1.273
87389SOL    HW264007   4.571   4.532   1.125
87390SOL     OW64008  12.213  12.227   4.981
87390SOL    HW164009  12.127  12.207   5.019
87390SOL    HW264010  12.206  12.198   4.890
87391SOL     OW64011   1.343   8.695   4.455
87391SOL    HW164012   1.277   8.762   4.435
87391SOL    HW264013   1.292   8.619   4.485
87392SOL     OW64014  10.886  11.276   2.356
87392SOL    HW164015  10.821  11.295   2.288
87392SOL    HW264016  10.969  11.305   2.319
87393SOL     OW64017   7.686   5.275   1.551
87393SOL    HW164018   7.739   5.275   1.630
87393SOL    HW264019   7.710   5.195   1.505
87394SOL     OW64020   8.330  11.541   7.573
87394SOL    HW164021   8.353  11.589   7.493
87394SOL    HW264022   8.291  11.608   7.630
87395SOL     OW64023   5.664  12.438  12.943
87395SOL    HW164024   5.737  12.499  12.944
87395SOL    HW264025   5.650  12.418  12.850
87396SOL     OW64026   9.357   9.888   1.036
87396SOL    HW164027   9.321   9.867   0.950
87396SOL    HW264028   9.411   9.813   1.059
87397SOL     OW64029  11.706  12.143   8.030
87397SOL    HW164030  11.718  12.233   7.999
87397SOL    HW264031  11.698  12.091   7.950
87398SOL     OW64032   1.676  11.013   7.304
87398SOL    HW164033   1.644  11.072   7.372
87398SOL    HW264034   1.601  10.959   7.280
87399SOL     OW64035  13.081   7.415   5.726
87399SOL    HW164036  12.988   7.430   5.744
87399SOL    HW264037  13.110   7.495   5.682
87400SOL     OW64038   0.231  10.069   9.280
87400SOL    HW164039   0.170  10.070   9.354
87400SOL    HW264040   0.253   9.977   9.269
87401SOL     OW64041   4.693   1.718   9.580
87401SOL    HW164042   4.704   1.623   9.583
87401SOL    HW264043   4.780   1.752   9.602
87402SOL     OW64044   8.678   1.000  11.259
87402SOL    HW164045   8.632   1.000  11.176
87402SOL    HW264046   8.681   1.092  11.285
87403SOL     OW64047  10.791   2.055  13.053
87403SOL    HW164048  10.781   2.047  12.958
87403SOL    HW264049  10.885   2.051  13.068
87404SOL     OW64050  14.523  13.315   9.940
87404SOL    HW164051  14.589  13.321   9.871
87404SOL    HW264052  14.573  13.317  10.022
87405SOL     OW64053  12.403  11.357  14.739
87405SOL    HW164054  12.344  11.418  14.695
87405SOL    HW264055  12.405  11.388  14.830
87406SOL     OW64056   1.750   9.395  12.082
87406SOL    HW164057   1.828   9.450  12.078
87406SOL    HW264058   1.775   9.320  12.136
87407SOL     OW64059  14.023  13.539   3.961
87407SOL    HW164060  13.933  13.521   3.985
87407SOL    HW264061  14.061  13.580   4.038
87408SOL     OW64062   2.936   3.995   4.511
87408SOL    HW164063   2.883   3.920   4.536
87408SOL    HW264064   2.898   4.026   4.429
87409SOL     OW64065   1.540   1.395   8.893
87409SOL    HW164066   1.464   1.337   8.888
87409SOL    HW264067   1.609   1.349   8.846
87410SOL     OW64068  12.912   5.241  12.174
87410SOL    HW164069  12.927   5.304  12.104
87410SOL    HW264070  12.979   5.175  12.162
87411SOL     OW64071  13.146  14.144   3.333
87411SOL    HW164072  13.195  14.110   3.408
87411SOL    HW264073  13.057  14.110   3.345
87412SOL     OW64074   0.216   9.396  10.144
87412SOL    HW164075   0.284   9.398  10.212
87412SOL    HW264076   0.264   9.380  10.063
87413SOL     OW64077   9.275   9.817   8.666
87413SOL    HW164078   9.188   9.805   8.704
87413SOL    HW264079   9.291   9.911   8.673
87414SOL     OW64080  12.949   9.648   6.837
87414SOL    HW164081  12.989   9.728   6.803
87414SOL    HW264082  13.019   9.583   6.833
87415SOL     OW64083   4.766  13.365   9.253
87415SOL    HW164084   4.819  13.377   9.332
87415SOL    HW264085   4.764  13.452   9.212
87416SOL     OW64086   1.581  12.782  13.160
87416SOL    HW164087   1.594  12.857  13.102
87416SOL    HW264088   1.637  12.713  13.123
87417SOL     OW64089   2.497  14.819  12.369
87417SOL    HW164090   2.583  14.855  12.392
87417SOL    HW264091   2.500  14.728  12.397
87418SOL     OW64092   0.001   1.578   6.128
87418SOL    HW164093  14.811   1.514   6.144
87418SOL    HW264094   0.016   1.574   6.034
87419SOL     OW64095  12.036   1.498   9.415
87419SOL    HW164096  12.120   1.529   9.446
87419SOL    HW264097  12.035   1.517   9.321
87420SOL     OW64098  11.838   9.353   1.808
87420SOL    HW164099  11.817   9.443   1.783
87420SOL    HW264100  11.865   9.311   1.727
87421SOL     OW64101   4.210  13.678  12.960
87421SOL    HW164102   4.248  13.709  13.042
87421SOL    HW264103   4.128  13.725  12.952
87422SOL     OW64104  13.861   6.256   2.111
87422SOL    HW164105  13.795   6.322   2.131
87422SOL    HW264106  13.894   6.227   2.196
87423SOL     OW64107  12.262   8.628  14.168
87423SOL    HW164108  12.230   8.578  14.093
87423SOL    HW264109  12.210   8.596  14.242
87424SOL     OW64110   3.002  11.930  13.973
87424SOL    HW164111   2.989  11.967  13.885
87424SOL    HW264112   2.988  12.003  14.032
87425SOL     OW64113   6.053   0.108   2.102
87425SOL    HW164114   6.099   0.039   2.149
87425SOL    HW264115   6.087   0.102   2.013
87426SOL     OW64116  11.652   5.647   4.928
87426SOL    HW164117  11.742   5.680   4.923
87426SOL    HW264118  11.618   5.683   5.010
87427SOL     OW64119   0.306   0.145   8.839
87427SOL    HW164120   0.240   0.118   8.903
87427SOL    HW264121   0.340   0.064   8.802
87428SOL     OW64122   3.898   4.178   4.305
87428SOL    HW164123   3.887   4.085   4.323
87428SOL    HW264124   3.835   4.221   4.363
87429SOL     OW64125  13.477   3.625   2.329
87429SOL    HW164126  13.559   3.670   2.350
87429SOL    HW264127  13.450   3.586   2.413
87430SOL     OW64128   5.784   4.678   2.668
87430SOL    HW164129   5.788   4.695   2.762
87430SOL    HW264130   5.736   4.752   2.631
87431SOL     OW64131  13.716   5.677   1.128
87431SOL    HW164132  13.644   5.709   1.074
87431SOL    HW264133  13.748   5.755   1.174
87432SOL     OW64134  14.559   3.460   2.804
87432SOL    HW164135  14.473   3.422   2.785
87432SOL    HW264136  14.619   3.386   2.795
87433SOL     OW64137   5.315   4.283  14.073
87433SOL    HW164138   5.345   4.209  14.127
87433SOL    HW264139   5.242   4.247  14.023
87434SOL     OW64140   0.369  11.001   6.585
87434SOL    HW164141   0.323  10.965   6.510
87434SOL    HW264142   0.361  11.096   6.575
87435SOL     OW64143   0.218   7.529  10.342
87435SOL    HW164144   0.163   7.571  10.408
87435SOL    HW264145   0.243   7.445  10.380
87436SOL     OW64146   3.979   8.268   5.207
87436SOL    HW164147   3.983   8.362   5.188
87436SOL    HW264148   3.951   8.229   5.124
87437SOL     OW64149  10.958  12.679   3.142
87437SOL    HW164150  10.987  12.635   3.222
87437SOL    HW264151  11.013  12.757   3.135
87438SOL     OW64152   7.725   1.213   1.802
87438SOL    HW164153   7.770   1.129   1.791
87438SOL    HW264154   7.632   1.191   1.794
87439SOL     OW64155   2.589   1.632   1.818
87439SOL    HW164156   2.553   1.549   1.850
87439SOL    HW264157   2.633   1.670   1.893
87440SOL     OW64158   7.023   7.820   1.351
87440SOL    HW164159   6.938   7.817   1.306
87440SOL    HW264160   7.048   7.729   1.360
87441SOL     OW64161   7.982   6.652  13.175
87441SOL    HW164162   7.943   6.719  13.119
87441SOL    HW264163   8.039   6.701  13.235
87442SOL     OW64164   7.275   5.850   6.823
87442SOL    HW164165   7.249   5.894   6.903
87442SOL    HW264166   7.229   5.898   6.753
87443SOL     OW64167   9.278  10.326  12.119
87443SOL    HW164168   9.287  10.409  12.167
87443SOL    HW264169   9.210  10.279  12.166
87444SOL     OW64170   0.570   2.369  10.524
87444SOL    HW164171   0.608   2.291  10.564
87444SOL    HW264172   0.542   2.423  10.597
87445SOL     OW64173  13.624   4.227   9.180
87445SOL    HW164174  13.685   4.180   9.124
87445SOL    HW264175  13.669   4.308   9.203
87446SOL     OW64176  14.503   4.772   7.127
87446SOL    HW164177  14.476   4.857   7.163
87446SOL    HW264178  14.437   4.752   7.060
87447SOL     OW64179   3.201   7.843   7.462
87447SOL    HW164180   3.184   7.906   7.532
87447SOL    HW264181   3.214   7.897   7.384
87448SOL     OW64182   9.414   0.565   8.206
87448SOL    HW164183   9.423   0.476   8.172
87448SOL    HW264184   9.434   0.621   8.131
87449SOL     OW64185  12.160   6.199  13.432
87449SOL    HW164186  12.090   6.135  13.420
87449SOL    HW264187  12.145   6.235  13.520
87450SOL     OW64188   4.896   9.557  14.038
87450SOL    HW164189   4.851   9.640  14.052
87450SOL    HW264190   4.924   9.530  14.125
87451SOL     OW64191  13.112  12.133   8.042
87451SOL    HW164192  13.077  12.046   8.020
87451SOL    HW264193  13.106  12.138   8.137
87452SOL     OW64194  10.470  12.064   6.567
87452SOL    HW164195  10.480  12.015   6.649
87452SOL    HW264196  10.433  12.001   6.505
87453SOL     OW64197   9.271   3.457   8.147
87453SOL    HW164198   9.290   3.501   8.230
87453SOL    HW264199   9.302   3.518   8.080
87454SOL     OW64200   3.890  12.101   5.906
87454SOL    HW164201   3.847  12.133   5.985
87454SOL    HW264202   3.909  12.009   5.924
87455SOL     OW64203   7.659  13.700   4.857
87455SOL    HW164204   7.596  13.750   4.909
87455SOL    HW264205   7.650  13.610   4.888
87456SOL     OW64206   7.816  13.999  14.643
87456SOL    HW164207   7.866  13.995  14.561
87456SOL    HW264208   7.883  14.000  14.712
87457SOL     OW64209   3.382   3.018   6.305
87457SOL    HW164210   3.392   3.105   6.267
87457SOL    HW264211   3.293   2.992   6.282
87458SOL     OW64212   5.036  12.267  13.687
87458SOL    HW164213   4.946  12.296  13.668
87458SOL    HW264214   5.052  12.296  13.776
87459SOL     OW64215  11.859  14.499   0.053
87459SOL    HW164216  11.799  14.425   0.038
87459SOL    HW264217  11.940  14.458   0.085
87460SOL     OW64218   4.756   4.516  10.241
87460SOL    HW164219   4.814   4.592  10.242
87460SOL    HW264220   4.670   4.552  10.264
87461SOL     OW64221   6.672  10.317  14.620
87461SOL    HW164222   6.622  10.236  14.631
87461SOL    HW264223   6.755  10.300  14.665
87462SOL     OW64224   1.652   5.623   4.859
87462SOL    HW164225   1.572   5.596   4.813
87462SOL    HW264226   1.718   5.558   4.831
87463SOL     OW64227   0.050   1.455   0.584
87463SOL    HW164228   0.067   1.486   0.674
87463SOL    HW264229   0.098   1.373   0.577
87464SOL     OW64230   6.949   1.485  11.605
87464SOL    HW164231   6.937   1.539  11.527
87464SOL    HW264232   6.860   1.461  11.631
87465SOL     OW64233   9.684   5.193   3.045
87465SOL    HW164234   9.726   5.265   3.093
87465SOL    HW264235   9.626   5.236   2.983
87466SOL     OW64236   6.237   9.504   8.795
87466SOL    HW164237   6.285   9.421   8.793
87466SOL    HW264238   6.301   9.569   8.766
87467SOL     OW64239   8.886  13.811   3.581
87467SOL    HW164240   8.878  13.731   3.530
87467SOL    HW264241   8.922  13.782   3.665
87468SOL     OW64242   7.285  11.026  12.326
87468SOL    HW164243   7.246  10.939  12.323
87468SOL    HW264244   7.224  11.080  12.275
87469SOL     OW64245   7.881   5.199   6.111
87469SOL    HW164246   7.962   5.151   6.129
87469SOL    HW264247   7.885   5.274   6.170
87470SOL     OW64248  12.918   6.215  14.250
87470SOL    HW164249  12.968   6.273  14.307
87470SOL    HW264250  12.827   6.241  14.263
87471SOL     OW64251   3.472  10.977  14.400
87471SOL    HW164252   3.471  11.030  14.320
87471SOL    HW264253   3.421  10.899  14.377
87472SOL     OW64254   4.496   8.648  11.243
87472SOL    HW164255   4.488   8.558  11.212
87472SOL    HW264256   4.422   8.659  11.303
87473SOL     OW64257  12.711  10.780   1.701
87473SOL    HW164258  12.655  10.746   1.771
87473SOL    HW264259  12.797  10.744   1.719
87474SOL     OW64260   4.010  12.936   9.007
87474SOL    HW164261   3.940  12.918   9.069
87474SOL    HW264262   4.034  12.851   8.971
87475SOL     OW64263  12.880   6.792   4.620
87475SOL    HW164264  12.812   6.822   4.681
87475SOL    HW264265  12.834   6.778   4.537
87476SOL     OW64266   6.068   9.085   0.410
87476SOL    HW164267   6.129   9.158   0.424
87476SOL    HW264268   6.031   9.068   0.497
87477SOL     OW64269   2.001  13.453  12.607
87477SOL    HW164270   1.947  13.482  12.534
87477SOL    HW264271   1.965  13.497  12.683
87478SOL     OW64272   0.982  10.064  10.305
87478SOL    HW164273   1.026  10.098  10.227
87478SOL    HW264274   0.930  10.138  10.337
87479SOL     OW64275   4.609   6.122  10.724
87479SOL    HW164276   4.649   6.186  10.665
87479SOL    HW264277   4.565   6.174  10.790
87480SOL     OW64278  10.975   9.671   3.739
87480SOL    HW164279  10.892   9.700   3.777
87480SOL    HW264280  10.951   9.637   3.653
87481SOL     OW64281   3.066  12.654   9.680
87481SOL    HW164282   2.974  12.634   9.663
87481SOL    HW264283   3.099  12.687   9.596
87482SOL     OW64284   5.011  10.531  14.290
87482SOL    HW164285   5.090  10.483  14.316
87482SOL    HW264286   4.992  10.500  14.201
87483SOL     OW64287  14.458  12.520   9.288
87483SOL    HW164288  14.458  12.591   9.352
87483SOL    HW264289  14.525  12.545   9.225
87484SOL     OW64290   5.517   3.370  13.046
87484SOL    HW164291   5.438   3.333  13.084
87484SOL    HW264292   5.580   3.297  13.045
87485SOL     OW64293  12.200   9.849   8.381
87485SOL    HW164294  12.276   9.896   8.347
87485SOL    HW264295  12.163   9.805   8.304
87486SOL     OW64296  11.104   1.507   6.055
87486SOL    HW164297  11.157   1.582   6.027
87486SOL    HW264298  11.165   1.433   6.053
87487SOL     OW64299   8.798  10.606   8.019
87487SOL    HW164300   8.797  10.516   8.051
87487SOL    HW264301   8.755  10.601   7.933
87488SOL     OW64302   9.597  14.380   0.084
87488SOL    HW164303   9.692  14.390   0.084
87488SOL    HW264304   9.568  14.421   0.166
87489SOL     OW64305   0.459   1.893   9.006
87489SOL    HW164306   0.455   1.909   9.100
87489SOL    HW264307   0.459   1.981   8.967
87490SOL     OW64308   1.790  11.385  10.376
87490SOL    HW164309   1.832  11.421  10.298
87490SOL    HW264310   1.697  11.387  10.356
87491SOL     OW64311   1.360   9.850  12.314
87491SOL    HW164312   1.363   9.814  12.402
87491SOL    HW264313   1.445   9.892  12.301
87492SOL     OW64314  12.321   0.650   0.000
87492SOL    HW164315  12.328   0.746   0.007
87492SOL    HW264316  12.376   0.628  14.805
87493SOL     OW64317   2.027   9.380   6.784
87493SOL    HW164318   2.013   9.473   6.768
87493SOL    HW264319   1.940   9.346   6.804
87494SOL     OW64320   9.180   2.315   3.514
87494SOL    HW164321   9.199   2.409   3.508
87494SOL    HW264322   9.266   2.274   3.522
87495SOL     OW64323   7.716  11.879   2.375
87495SOL    HW164324   7.798  11.841   2.342
87495SOL    HW264325   7.742  11.963   2.412
87496SOL     OW64326  10.849   7.346   6.768
87496SOL    HW164327  10.934   7.343   6.724
87496SOL    HW264328  10.867   7.319   6.858
87497SOL     OW64329   6.156   4.363   5.003
87497SOL    HW164330   6.158   4.296   4.935
87497SOL    HW264331   6.232   4.343   5.058
87498SOL     OW64332   6.416  11.490  12.265
87498SOL    HW164333   6.412  11.584  12.244
87498SOL    HW264334   6.507  11.475  12.291
87499SOL     OW64335  14.112   5.112   4.303
87499SOL    HW164336  14.118   5.025   4.342
87499SOL    HW264337  14.022   5.118   4.271
87500SOL     OW64338  11.037   6.532   9.901
87500SOL    HW164339  11.124   6.539   9.862
87500SOL    HW264340  10.998   6.456   9.858
87501SOL     OW64341  10.522  12.780   3.056
87501SOL    HW164342  10.587  12.717   3.086
87501SOL    HW264343  10.514  12.843   3.128
87502SOL     OW64344   3.479  11.144  12.998
87502SOL    HW164345   3.543  11.129  13.067
87502SOL    HW264346   3.511  11.092  12.924
87503SOL     OW64347  10.828  13.168   2.989
87503SOL    HW164348  10.819  13.233   2.920
87503SOL    HW264349  10.898  13.111   2.958
87504SOL     OW64350   1.667   6.267  10.778
87504SOL    HW164351   1.755   6.294  10.803
87504SOL    HW264352   1.678   6.220  10.696
87505SOL     OW64353   7.828   3.519   8.142
87505SOL    HW164354   7.891   3.557   8.203
87505SOL    HW264355   7.743   3.539   8.181
87506SOL     OW64356   3.975   6.301   7.334
87506SOL    HW164357   3.880   6.292   7.345
87506SOL    HW264358   3.993   6.393   7.353
87507SOL     OW64359   9.293   4.750  12.840
87507SOL    HW164360   9.305   4.701  12.921
87507SOL    HW264361   9.353   4.825  12.847
87508SOL     OW64362   8.215  14.027  13.120
87508SOL    HW164363   8.295  14.074  13.099
87508SOL    HW264364   8.160  14.093  13.163
87509SOL     OW64365   8.869   0.223  10.577
87509SOL    HW164366   8.854   0.189  10.489
87509SOL    HW264367   8.943   0.172  10.611
87510SOL     OW64368  12.917  14.682   9.430
87510SOL    HW164369  13.000  14.672   9.384
87510SOL    HW264370  12.941  14.681   9.523
87511SOL     OW64371  14.696  13.760   9.085
87511SOL    HW164372  14.761  13.691   9.072
87511SOL    HW264373  14.747  13.839   9.100
87512SOL     OW64374  14.276   4.002   1.417
87512SOL    HW164375  14.358   3.967   1.383
87512SOL    HW264376  14.261   3.954   1.498
87513SOL     OW64377  14.869   3.695  10.806
87513SOL    HW164378   0.079   3.727  10.802
87513SOL    HW264379  14.863   3.653  10.892
87514SOL     OW64380   3.787   8.891  14.153
87514SOL    HW164381   3.697   8.872  14.180
87514SOL    HW264382   3.841   8.839  14.212
87515SOL     OW64383   9.264   9.524   3.638
87515SOL    HW164384   9.252   9.563   3.551
87515SOL    HW264385   9.176   9.514   3.672
87516SOL     OW64386  14.391   1.034   0.429
87516SOL    HW164387  14.417   0.944   0.405
87516SOL    HW264388  14.312   1.023   0.481
87517SOL     OW64389  12.310   9.348   9.393
87517SOL    HW164390  12.286   9.262   9.426
87517SOL    HW264391  12.271   9.352   9.305
87518SOL     OW64392   2.050   7.595   1.143
87518SOL    HW164393   1.979   7.543   1.104
87518SOL    HW264394   2.034   7.684   1.112
87519SOL     OW64395   6.136  10.116   3.682
87519SOL    HW164396   6.128  10.025   3.713
87519SOL    HW264397   6.088  10.117   3.599
87520SOL     OW64398   1.074   0.412   6.284
87520SOL    HW164399   0.988   0.442   6.252
87520SOL    HW264400   1.126   0.400   6.204
87521SOL     OW64401   1.377   2.924   8.840
87521SOL    HW164402   1.440   2.920   8.913
87521SOL    HW264403   1.404   3.000   8.789
87522SOL     OW64404   6.021  13.372   4.676
87522SOL    HW164405   5.971  13.357   4.595
87522SOL    HW264406   5.956  13.369   4.745
87523SOL     OW64407  10.239  11.459   1.596
87523SOL    HW164408  10.256  11.373   1.635
87523SOL    HW264409  10.321  11.506   1.606
87524SOL     OW64410   5.050   8.688   0.864
87524SOL    HW164411   5.030   8.770   0.819
87524SOL    HW264412   5.033   8.620   0.800
87525SOL     OW64413   9.353  13.150   0.934
87525SOL    HW164414   9.272  13.192   0.904
87525SOL    HW264415   9.422  13.212   0.913
87526SOL     OW64416  12.452  14.586  10.655
87526SOL    HW164417  12.409  14.502  10.669
87526SOL    HW264418  12.396  14.632  10.592
87527SOL     OW64419  11.000   3.561   1.790
87527SOL    HW164420  10.986   3.620   1.864
87527SOL    HW264421  11.013   3.475   1.830
87528SOL     OW64422   3.949   5.386   9.588
87528SOL    HW164423   3.863   5.346   9.574
87528SOL    HW264424   3.979   5.409   9.500
87529SOL     OW64425   9.288   3.188  11.428
87529SOL    HW164426   9.363   3.158  11.377
87529SOL    HW264427   9.226   3.116  11.425
87530SOL     OW64428   6.814   6.053   7.945
87530SOL    HW164429   6.831   6.147   7.953
87530SOL    HW264430   6.760   6.032   8.022
87531SOL     OW64431   1.594   1.551   0.139
87531SOL    HW164432   1.571   1.622   0.199
87531SOL    HW264433   1.571   1.584   0.053
87532SOL     OW64434   3.877   2.593  14.660
87532SOL    HW164435   3.835   2.674  14.629
87532SOL    HW264436   3.908   2.614  14.748
87533SOL     OW64437   2.746   2.028   3.770
87533SOL    HW164438   2.809   2.097   3.793
87533SOL    HW264439   2.715   2.052   3.683
87534SOL     OW64440   2.598  13.351  14.050
87534SOL    HW164441   2.554  13.271  14.081
87534SOL    HW264442   2.528  13.416  14.046
87535SOL     OW64443   8.918  11.869   3.908
87535SOL    HW164444   8.878  11.795   3.954
87535SOL    HW264445   8.984  11.829   3.852
87536SOL     OW64446   9.351  14.438  11.939
87536SOL    HW164447   9.327  14.455  11.848
87536SOL    HW264448   9.447  14.448  11.941
87537SOL     OW64449  12.328   0.847   9.188
87537SOL    HW164450  12.246   0.838   9.236
87537SOL    HW264451  12.303   0.887   9.104
87538SOL     OW64452  14.017   9.299  11.898
87538SOL    HW164453  14.044   9.331  11.985
87538SOL    HW264454  13.961   9.224  11.917
87539SOL     OW64455   8.784   1.918   7.488
87539SOL    HW164456   8.878   1.926   7.470
87539SOL    HW264457   8.773   1.956   7.576
87540SOL     OW64458  10.914   4.949   3.848
87540SOL    HW164459  10.894   4.870   3.797
87540SOL    HW264460  10.832   4.971   3.891
87541SOL     OW64461   1.903   8.914   4.254
87541SOL    HW164462   1.958   8.840   4.279
87541SOL    HW264463   1.893   8.965   4.334
87542SOL     OW64464   4.856   9.061   0.939
87542SOL    HW164465   4.884   8.982   0.894
87542SOL    HW264466   4.770   9.080   0.902
87543SOL     OW64467  11.989  14.187   4.100
87543SOL    HW164468  11.993  14.158   4.191
87543SOL    HW264469  12.010  14.109   4.048
87544SOL     OW64470  12.713   6.004   6.630
87544SOL    HW164471  12.661   5.926   6.649
87544SOL    HW264472  12.798   5.970   6.604
87545SOL     OW64473   3.010  11.088  13.930
87545SOL    HW164474   3.104  11.091  13.912
87545SOL    HW264475   2.976  11.169  13.893
87546SOL     OW64476   7.353   5.426   6.382
87546SOL    HW164477   7.425   5.443   6.322
87546SOL    HW264478   7.350   5.331   6.391
87547SOL     OW64479  11.130   6.332   5.218
87547SOL    HW164480  11.179   6.413   5.230
87547SOL    HW264481  11.165   6.294   5.138
87548SOL     OW64482   2.361   6.287  12.131
87548SOL    HW164483   2.282   6.337  12.148
87548SOL    HW264484   2.423   6.317  12.198
87549SOL     OW64485   8.427  13.281  13.556
87549SOL    HW164486   8.495  13.319  13.500
87549SOL    HW264487   8.345  13.299  13.510
87550SOL     OW64488   9.765   1.974  12.223
87550SOL    HW164489   9.705   1.974  12.148
87550SOL    HW264490   9.841   1.924  12.194
87551SOL     OW64491   2.381  12.455  14.226
87551SOL    HW164492   2.472  12.478  14.243
87551SOL    HW264493   2.383  12.361  14.207
87552SOL     OW64494  10.319  10.792   2.772
87552SOL    HW164495  10.236  10.819   2.734
87552SOL    HW264496  10.297  10.720   2.832
87553SOL     OW64497  14.826  14.804   3.504
87553SOL    HW164498  14.758  14.865   3.535
87553SOL    HW264499  14.852  14.840   3.419
87554SOL     OW64500   6.957   5.123   1.567
87554SOL    HW164501   6.942   5.215   1.592
87554SOL    HW264502   6.898   5.109   1.493
87555SOL     OW64503   1.884   2.071   1.020
87555SOL    HW164504   1.950   2.018   1.065
87555SOL    HW264505   1.930   2.152   0.995
87556SOL     OW64506  11.121   3.107   3.433
87556SOL    HW164507  11.094   3.153   3.512
87556SOL    HW264508  11.062   3.032   3.428
87557SOL     OW64509   8.019  14.206   0.679
87557SOL    HW164510   8.101  14.240   0.644
87557SOL    HW264511   7.973  14.169   0.604
87558SOL     OW64512  10.129   1.501  11.124
87558SOL    HW164513  10.054   1.445  11.145
87558SOL    HW264514  10.204   1.441  11.124
87559SOL     OW64515   9.526   4.308   9.781
87559SOL    HW164516   9.538   4.373   9.850
87559SOL    HW264517   9.613   4.298   9.741
87560SOL     OW64518  14.081   1.514  13.839
87560SOL    HW164519  14.028   1.475  13.908
87560SOL    HW264520  14.169   1.480  13.854
87561SOL     OW64521   1.790  14.549   1.804
87561SOL    HW164522   1.820  14.592   1.884
87561SOL    HW264523   1.866  14.550   1.746
87562SOL     OW64524   4.670   0.964  11.344
87562SOL    HW164525   4.731   1.038  11.353
87562SOL    HW264526   4.626   0.979  11.260
87563SOL     OW64527   9.511  12.655   5.827
87563SOL    HW164528   9.545  12.584   5.772
87563SOL    HW264529   9.580  12.670   5.891
87564SOL     OW64530   3.683   1.233   2.374
87564SOL    HW164531   3.649   1.214   2.461
87564SOL    HW264532   3.739   1.310   2.386
87565SOL     OW64533   7.965   2.067  14.774
87565SOL    HW164534   7.928   2.010  14.842
87565SOL    HW264535   7.984   2.008  14.701
87566SOL     OW64536   0.545  10.730  13.295
87566SOL    HW164537   0.628  10.756  13.255
87566SOL    HW264538   0.480  10.740  13.225
87567SOL     OW64539   9.877  12.147   3.567
87567SOL    HW164540   9.879  12.105   3.653
87567SOL    HW264541   9.919  12.084   3.508
87568SOL     OW64542   1.140  10.932   9.611
87568SOL    HW164543   1.202  11.006   9.612
87568SOL    HW264544   1.192  10.858   9.580
87569SOL     OW64545  14.500  13.118   8.050
87569SOL    HW164546  14.517  13.211   8.032
87569SOL    HW264547  14.568  13.093   8.112
87570SOL     OW64548   5.298   2.644  12.082
87570SOL    HW164549   5.279   2.685  11.998
87570SOL    HW264550   5.283   2.713  12.147
87571SOL     OW64551  10.110  10.527   3.436
87571SOL    HW164552  10.083  10.596   3.375
87571SOL    HW264553  10.062  10.545   3.516
87572SOL     OW64554   8.729   7.175   7.936
87572SOL    HW164555   8.728   7.253   7.992
87572SOL    HW264556   8.748   7.103   7.996
87573SOL     OW64557   8.109   0.852  11.445
87573SOL    HW164558   8.167   0.923  11.418
87573SOL    HW264559   8.070   0.883  11.527
87574SOL     OW64560   3.145  12.874  10.945
87574SOL    HW164561   3.071  12.832  10.901
87574SOL    HW264562   3.115  12.964  10.961
87575SOL     OW64563  10.729   8.892   2.321
87575SOL    HW164564  10.705   8.983   2.305
87575SOL    HW264565  10.712   8.878   2.414
87576SOL     OW64566   8.467  13.769   1.854
87576SOL    HW164567   8.555  13.773   1.816
87576SOL    HW264568   8.435  13.681   1.831
87577SOL     OW64569   6.121  13.579  14.745
87577SOL    HW164570   6.138  13.510  14.681
87577SOL    HW264571   6.164  13.548  14.825
87578SOL     OW64572   6.689   3.334  13.974
87578SOL    HW164573   6.669   3.401  14.040
87578SOL    HW264574   6.609   3.282  13.968
87579SOL     OW64575   7.301   0.834   8.089
87579SOL    HW164576   7.232   0.773   8.117
87579SOL    HW264577   7.367   0.778   8.047
87580SOL     OW64578   1.165  14.656   4.060
87580SOL    HW164579   1.122  14.575   4.086
87580SOL    HW264580   1.259  14.636   4.064
87581SOL     OW64581   9.406  13.942  13.312
87581SOL    HW164582   9.431  13.922  13.222
87581SOL    HW264583   9.486  13.925  13.363
87582SOL     OW64584   8.263  11.881   4.781
87582SOL    HW164585   8.213  11.960   4.761
87582SOL    HW264586   8.229  11.851   4.866
87583SOL     OW64587  12.879  12.051   6.690
87583SOL    HW164588  12.928  12.008   6.760
87583SOL    HW264589  12.947  12.090   6.635
87584SOL     OW64590  14.271   0.176  13.800
87584SOL    HW164591  14.320   0.119  13.741
87584SOL    HW264592  14.260   0.258  13.751
87585SOL     OW64593   9.753  11.650   3.186
87585SOL    HW164594   9.840  11.691   3.190
87585SOL    HW264595   9.747  11.600   3.267
87586SOL     OW64596  11.647  13.564   0.200
87586SOL    HW164597  11.618  13.635   0.144
87586SOL    HW264598  11.728  13.533   0.159
87587SOL     OW64599  13.320  12.716  12.034
87587SOL    HW164600  13.281  12.803  12.017
87587SOL    HW264601  13.341  12.717  12.127
87588SOL     OW64602  11.203   7.546  13.498
87588SOL    HW164603  11.171   7.466  13.540
87588SOL    HW264604  11.132   7.573  13.440
87589SOL     OW64605   2.072  14.184   8.119
87589SOL    HW164606   2.086  14.214   8.029
87589SOL    HW264607   2.156  14.201   8.163
87590SOL     OW64608  10.730   9.527   7.950
87590SOL    HW164609  10.741   9.501   7.858
87590SOL    HW264610  10.748   9.447   8.000
87591SOL     OW64611   4.931   8.421   7.829
87591SOL    HW164612   4.845   8.404   7.869
87591SOL    HW264613   4.982   8.342   7.848
87592SOL     OW64614   0.800   2.389  12.373
87592SOL    HW164615   0.807   2.342  12.456
87592SOL    HW264616   0.706   2.390  12.354
87593SOL     OW64617   1.303   2.842  14.109
87593SOL    HW164618   1.375   2.834  14.046
87593SOL    HW264619   1.336   2.903  14.175
87594SOL     OW64620  13.457   0.137   3.006
87594SOL    HW164621  13.400   0.064   3.028
87594SOL    HW264622  13.406   0.189   2.944
87595SOL     OW64623   7.951   2.977   2.944
87595SOL    HW164624   7.993   3.058   2.916
87595SOL    HW264625   8.010   2.942   3.012
87596SOL     OW64626   7.710   0.833   9.347
87596SOL    HW164627   7.719   0.815   9.254
87596SOL    HW264628   7.770   0.772   9.390
87597SOL     OW64629   1.031   6.444   0.134
87597SOL    HW164630   1.109   6.465   0.185
87597SOL    HW264631   0.964   6.423   0.199
87598SOL     OW64632   0.075  14.193  13.187
87598SOL    HW164633   0.093  14.122  13.125
87598SOL    HW264634  14.878  14.163  13.236
87599SOL     OW64635  14.763   4.943  10.244
87599SOL    HW164636  14.771   4.986  10.159
87599SOL    HW264637  14.704   5.000  10.294
87600SOL     OW64638  14.615   0.289  14.828
87600SOL    HW164639  14.696   0.321  14.788
87600SOL    HW264640  14.625   0.194  14.830
87601SOL     OW64641   1.202  13.940   6.804
87601SOL    HW164642   1.192  13.845   6.811
87601SOL    HW264643   1.270  13.952   6.738
87602SOL     OW64644   0.829  14.097   7.124
87602SOL    HW164645   0.783  14.167   7.077
87602SOL    HW264646   0.793  14.101   7.213
87603SOL     OW64647   9.508  10.738   4.159
87603SOL    HW164648   9.567  10.738   4.234
87603SOL    HW264649   9.552  10.684   4.093
87604SOL     OW64650  13.470   0.356   0.636
87604SOL    HW164651  13.436   0.335   0.723
87604SOL    HW264652  13.521   0.279   0.611
87605SOL     OW64653   2.250   2.496  11.614
87605SOL    HW164654   2.173   2.500  11.672
87605SOL    HW264655   2.320   2.537  11.665
87606SOL     OW64656  11.207  10.093   3.363
87606SOL    HW164657  11.254  10.140   3.294
87606SOL    HW264658  11.117  10.087   3.332
87607SOL     OW64659   6.259   2.828   1.728
87607SOL    HW164660   6.350   2.803   1.714
87607SOL    HW264661   6.208   2.753   1.697
87608SOL     OW64662   3.359   0.549   0.823
87608SOL    HW164663   3.397   0.629   0.788
87608SOL    HW264664   3.434   0.496   0.850
87609SOL     OW64665  10.392   8.433   3.004
87609SOL    HW164666  10.439   8.463   3.082
87609SOL    HW264667  10.405   8.503   2.940
87610SOL     OW64668   9.480   0.055  13.991
87610SOL    HW164669   9.545   0.014  14.048
87610SOL    HW264670   9.461  14.869  13.925
87611SOL     OW64671   6.902  12.141   2.200
87611SOL    HW164672   6.875  12.141   2.292
87611SOL    HW264673   6.888  12.231   2.170
87612SOL     OW64674   3.683   8.188  14.729
87612SOL    HW164675   3.603   8.138  14.712
87612SOL    HW264676   3.653   8.279  14.732
87613SOL     OW64677  13.735   5.043  13.998
87613SOL    HW164678  13.789   4.999  14.063
87613SOL    HW264679  13.779   5.127  13.982
87614SOL     OW64680   3.527   3.303  10.498
87614SOL    HW164681   3.530   3.372  10.565
87614SOL    HW264682   3.434   3.297  10.474
87615SOL     OW64683   7.944   1.027   6.881
87615SOL    HW164684   7.934   0.941   6.841
87615SOL    HW264685   7.920   1.014   6.973
87616SOL     OW64686   4.756   4.086   3.007
87616SOL    HW164687   4.837   4.071   3.056
87616SOL    HW264688   4.782   4.144   2.935
87617SOL     OW64689   8.520  11.725   1.032
87617SOL    HW164690   8.603  11.682   1.053
87617SOL    HW264691   8.468  11.718   1.113
87618SOL     OW64692  12.356   9.493   2.677
87618SOL    HW164693  12.378   9.509   2.585
87618SOL    HW264694  12.350   9.398   2.684
87619SOL     OW64695  13.513   0.459   5.471
87619SOL    HW164696  13.588   0.428   5.521
87619SOL    HW264697  13.470   0.522   5.529
87620SOL     OW64698   4.837  13.958  11.856
87620SOL    HW164699   4.875  14.021  11.918
87620SOL    HW264700   4.767  14.006  11.813
87621SOL     OW64701  13.380   0.644  10.343
87621SOL    HW164702  13.365   0.688  10.259
87621SOL    HW264703  13.332   0.562  10.336
87622SOL     OW64704   5.305   6.547  12.577
87622SOL    HW164705   5.359   6.475  12.546
87622SOL    HW264706   5.279   6.594  12.498
87623SOL     OW64707   3.996   9.995   2.173
87623SOL    HW164708   3.937  10.048   2.226
87623SOL    HW264709   3.983   9.906   2.205
87624SOL     OW64710   4.107   1.734   4.297
87624SOL    HW164711   4.127   1.651   4.340
87624SOL    HW264712   4.144   1.801   4.354
87625SOL     OW64713   4.369  14.431  10.174
87625SOL    HW164714   4.422  14.400  10.100
87625SOL    HW264715   4.298  14.367  10.181
87626SOL     OW64716   9.161  13.482  12.252
87626SOL    HW164717   9.079  13.453  12.292
87626SOL    HW264718   9.147  13.472  12.158
87627SOL     OW64719   0.643  13.802   9.678
87627SOL    HW164720   0.617  13.891   9.705
87627SOL    HW264721   0.725  13.786   9.726
87628SOL     OW64722   6.097   1.149   2.233
87628SOL    HW164723   6.135   1.151   2.321
87628SOL    HW264724   6.168   1.114   2.178
87629SOL     OW64725   9.981   2.399   3.733
87629SOL    HW164726   9.906   2.446   3.770
87629SOL    HW264727  10.012   2.456   3.663
87630SOL     OW64728   7.320   4.102  12.489
87630SOL    HW164729   7.239   4.118  12.439
87630SOL    HW264730   7.390   4.125  12.428
87631SOL     OW64731   8.850   7.518  13.390
87631SOL    HW164732   8.887   7.469  13.463
87631SOL    HW264733   8.923   7.530  13.330
87632SOL     OW64734   1.493   6.333   1.771
87632SOL    HW164735   1.412   6.384   1.763
87632SOL    HW264736   1.477   6.255   1.719
87633SOL     OW64737   6.352  12.930  11.502
87633SOL    HW164738   6.337  12.973  11.586
87633SOL    HW264739   6.317  12.841  11.514
87634SOL     OW64740   0.631  14.163   1.572
87634SOL    HW164741   0.725  14.152   1.589
87634SOL    HW264742   0.624  14.162   1.477
87635SOL     OW64743  10.017   1.601   9.116
87635SOL    HW164744   9.974   1.536   9.060
87635SOL    HW264745  10.007   1.567   9.205
87636SOL     OW64746   8.824   5.644   8.494
87636SOL    HW164747   8.853   5.697   8.419
87636SOL    HW264748   8.877   5.565   8.489
87637SOL     OW64749   1.085  11.125   3.724
87637SOL    HW164750   1.155  11.060   3.722
87637SOL    HW264751   1.130  11.210   3.725
87638SOL     OW64752   4.711   4.517   5.446
87638SOL    HW164753   4.805   4.530   5.432
87638SOL    HW264754   4.691   4.434   5.403
87639SOL     OW64755   1.509   5.625  10.955
87639SOL    HW164756   1.529   5.714  10.925
87639SOL    HW264757   1.582   5.572  10.923
87640SOL     OW64758  10.861   1.764   6.197
87640SOL    HW164759  10.917   1.800   6.265
87640SOL    HW264760  10.844   1.838   6.138
87641SOL     OW64761  12.980   7.923   5.751
87641SOL    HW164762  13.022   7.909   5.836
87641SOL    HW264763  12.980   8.017   5.739
87642SOL     OW64764   2.296   7.422   0.807
87642SOL    HW164765   2.270   7.337   0.842
87642SOL    HW264766   2.297   7.480   0.883
87643SOL     OW64767   0.820  12.002   4.836
87643SOL    HW164768   0.899  11.972   4.789
87643SOL    HW264769   0.847  12.084   4.878
87644SOL     OW64770   5.244   5.101  10.738
87644SOL    HW164771   5.280   5.157  10.807
87644SOL    HW264772   5.308   5.106  10.667
87645SOL     OW64773   0.861   5.052   9.231
87645SOL    HW164774   0.858   5.047   9.326
87645SOL    HW264775   0.947   5.089   9.211
87646SOL     OW64776  14.235   2.698   4.714
87646SOL    HW164777  14.225   2.729   4.804
87646SOL    HW264778  14.328   2.676   4.706
87647SOL     OW64779   1.962   9.826   7.810
87647SOL    HW164780   1.953   9.732   7.825
87647SOL    HW264781   1.994   9.833   7.719
87648SOL     OW64782  14.515   8.625   7.544
87648SOL    HW164783  14.605   8.655   7.533
87648SOL    HW264784  14.464   8.680   7.484
87649SOL     OW64785   6.601  12.087  10.990
87649SOL    HW164786   6.577  11.995  11.000
87649SOL    HW264787   6.586  12.107  10.898
87650SOL     OW64788  13.277   4.854   7.979
87650SOL    HW164789  13.184   4.874   7.975
87650SOL    HW264790  13.318   4.919   7.922
87651SOL     OW64791   0.640   5.072   4.645
87651SOL    HW164792   0.558   5.059   4.694
87651SOL    HW264793   0.612   5.088   4.555
87652SOL     OW64794   2.090   3.255  10.405
87652SOL    HW164795   2.069   3.281  10.495
87652SOL    HW264796   2.006   3.229  10.367
87653SOL     OW64797   8.583   6.687   1.575
87653SOL    HW164798   8.503   6.711   1.623
87653SOL    HW264799   8.576   6.592   1.565
87654SOL     OW64800  11.005   7.436   3.337
87654SOL    HW164801  11.040   7.347   3.334
87654SOL    HW264802  11.027   7.473   3.251
87655SOL     OW64803   5.493  12.947   8.623
87655SOL    HW164804   5.452  12.972   8.705
87655SOL    HW264805   5.419  12.932   8.563
87656SOL     OW64806  11.395  11.811  12.562
87656SOL    HW164807  11.370  11.737  12.618
87656SOL    HW264808  11.490  11.818  12.572
87657SOL     OW64809   3.874  12.687  14.631
87657SOL    HW164810   3.946  12.738  14.668
87657SOL    HW264811   3.914  12.639  14.559
87658SOL     OW64812   7.048   7.773   2.536
87658SOL    HW164813   7.101   7.708   2.583
87658SOL    HW264814   7.032   7.842   2.601
87659SOL     OW64815   6.312  14.407   8.088
87659SOL    HW164816   6.324  14.329   8.034
87659SOL    HW264817   6.322  14.376   8.178
87660SOL     OW64818   1.543   7.040  10.350
87660SOL    HW164819   1.566   6.953  10.383
87660SOL    HW264820   1.483   7.075  10.416
87661SOL     OW64821   4.374   5.613   4.810
87661SOL    HW164822   4.371   5.556   4.887
87661SOL    HW264823   4.369   5.702   4.846
87662SOL     OW64824   0.283   1.892   8.229
87662SOL    HW164825   0.203   1.940   8.249
87662SOL    HW264826   0.281   1.880   8.134
87663SOL     OW64827  14.336   9.482   1.591
87663SOL    HW164828  14.291   9.493   1.508
87663SOL    HW264829  14.316   9.562   1.641
87664SOL     OW64830  13.390   4.338   0.122
87664SOL    HW164831  13.485   4.343   0.119
87664SOL    HW264832  13.360   4.427   0.105
87665SOL     OW64833  14.113  10.671  12.958
87665SOL    HW164834  14.125  10.725  13.036
87665SOL    HW264835  14.048  10.606  12.984
87666SOL     OW64836  14.675   0.778   2.079
87666SOL    HW164837  14.720   0.796   2.161
87666SOL    HW264838  14.583   0.770   2.104
87667SOL     OW64839   8.051   0.189   7.637
87667SOL    HW164840   7.975   0.225   7.592
87667SOL    HW264841   8.064   0.103   7.597
87668SOL     OW64842   6.493  11.475   6.867
87668SOL    HW164843   6.411  11.457   6.914
87668SOL    HW264844   6.522  11.389   6.837
87669SOL     OW64845   9.563  12.529   1.535
87669SOL    HW164846   9.532  12.514   1.624
87669SOL    HW264847   9.539  12.450   1.487
87670SOL     OW64848  13.426   3.796   5.980
87670SOL    HW164849  13.477   3.851   6.039
87670SOL    HW264850  13.384   3.731   6.037
87671SOL     OW64851   3.354   5.202   5.478
87671SOL    HW164852   3.258   5.196   5.475
87671SOL    HW264853   3.377   5.173   5.566
87672SOL     OW64854  12.772  14.508  10.472
87672SOL    HW164855  12.686  14.521  10.513
87672SOL    HW264856  12.775  14.571  10.401
87673SOL     OW64857   5.232   9.890   4.769
87673SOL    HW164858   5.315   9.938   4.778
87673SOL    HW264859   5.254   9.815   4.715
87674SOL     OW64860  11.798   0.902  14.788
87674SOL    HW164861  11.837   0.826  14.746
87674SOL    HW264862  11.731   0.932  14.727
87675SOL     OW64863  10.789  13.820  14.635
87675SOL    HW164864  10.770  13.911  14.657
87675SOL    HW264865  10.714  13.792  14.583
87676SOL     OW64866   9.843   6.145   8.004
87676SOL    HW164867   9.887   6.106   7.929
87676SOL    HW264868   9.908   6.143   8.074
87677SOL     OW64869   8.802  13.016   8.776
87677SOL    HW164870   8.717  13.051   8.805
87677SOL    HW264871   8.780  12.933   8.733
87678SOL     OW64872   7.537   1.974   6.941
87678SOL    HW164873   7.593   1.905   6.978
87678SOL    HW264874   7.466   1.983   7.004
87679SOL     OW64875   4.429   7.104  12.302
87679SOL    HW164876   4.393   7.073  12.219
87679SOL    HW264877   4.353   7.139  12.350
87680SOL     OW64878  11.299   0.083   2.733
87680SOL    HW164879  11.314   0.078   2.828
87680SOL    HW264880  11.368   0.140   2.701
87681SOL     OW64881   6.289  13.989   8.333
87681SOL    HW164882   6.334  13.934   8.268
87681SOL    HW264883   6.203  14.005   8.294
87682SOL     OW64884   6.106   3.047   1.635
87682SOL    HW164885   6.146   2.966   1.668
87682SOL    HW264886   6.180   3.107   1.623
87683SOL     OW64887   1.432   5.510   3.290
87683SOL    HW164888   1.502   5.482   3.230
87683SOL    HW264889   1.374   5.563   3.235
87684SOL     OW64890  11.742   8.264   5.826
87684SOL    HW164891  11.681   8.205   5.870
87684SOL    HW264892  11.690   8.342   5.807
87685SOL     OW64893   8.812   3.358   0.603
87685SOL    HW164894   8.782   3.333   0.691
87685SOL    HW264895   8.792   3.281   0.549
87686SOL     OW64896  12.105  14.566   5.685
87686SOL    HW164897  12.162  14.641   5.704
87686SOL    HW264898  12.018  14.605   5.671
87687SOL     OW64899   6.837   8.894  11.462
87687SOL    HW164900   6.782   8.836  11.410
87687SOL    HW264901   6.846   8.850  11.547
87688SOL     OW64902   5.084   2.546   4.653
87688SOL    HW164903   4.990   2.532   4.660
87688SOL    HW264904   5.107   2.513   4.567
87689SOL     OW64905  13.840   5.811   8.495
87689SOL    HW164906  13.812   5.781   8.582
87689SOL    HW264907  13.880   5.733   8.455
87690SOL     OW64908   1.937  12.015   1.865
87690SOL    HW164909   2.012  12.013   1.925
87690SOL    HW264910   1.910  12.107   1.864
87691SOL     OW64911   6.561   2.236   8.829
87691SOL    HW164912   6.639   2.191   8.797
87691SOL    HW264913   6.489   2.178   8.804
87692SOL     OW64914   7.449   6.919  11.991
87692SOL    HW164915   7.433   6.902  12.084
87692SOL    HW264916   7.387   6.988  11.968
87693SOL     OW64917   7.924   6.639  10.300
87693SOL    HW164918   8.013   6.674  10.303
87693SOL    HW264919   7.897   6.634  10.391
87694SOL     OW64920   1.032   1.956  14.563
87694SOL    HW164921   1.124   1.928  14.560
87694SOL    HW264922   1.036   2.051  14.550
87695SOL     OW64923  11.967   3.623   2.695
87695SOL    HW164924  11.957   3.597   2.787
87695SOL    HW264925  12.062   3.620   2.680
87696SOL     OW64926   5.512   9.245   3.871
87696SOL    HW164927   5.601   9.212   3.861
87696SOL    HW264928   5.472   9.189   3.937
87697SOL     OW64929   5.273  12.668  11.901
87697SOL    HW164930   5.241  12.734  11.840
87697SOL    HW264931   5.193  12.630  11.939
87698SOL     OW64932   8.428   8.906  12.928
87698SOL    HW164933   8.390   8.985  12.889
87698SOL    HW264934   8.436   8.927  13.021
87699SOL     OW64935  11.018   2.249   8.024
87699SOL    HW164936  11.085   2.316   8.041
87699SOL    HW264937  10.975   2.235   8.108
87700SOL     OW64938   1.290   2.508   4.358
87700SOL    HW164939   1.249   2.460   4.429
87700SOL    HW264940   1.218   2.551   4.312
87701SOL     OW64941   3.208   8.650  10.569
87701SOL    HW164942   3.252   8.632  10.486
87701SOL    HW264943   3.276   8.638  10.635
87702SOL     OW64944   4.150   2.600   1.030
87702SOL    HW164945   4.090   2.675   1.031
87702SOL    HW264946   4.099   2.529   0.992
87703SOL     OW64947  10.182  10.180  13.050
87703SOL    HW164948  10.254  10.213  12.997
87703SOL    HW264949  10.162  10.094  13.011
87704SOL     OW64950   3.660  11.100   1.843
87704SOL    HW164951   3.565  11.100   1.829
87704SOL    HW264952   3.684  11.192   1.849
87705SOL     OW64953  13.560   4.667   3.674
87705SOL    HW164954  13.600   4.585   3.703
87705SOL    HW264955  13.604   4.735   3.723
87706SOL     OW64956  11.230   9.042   2.392
87706SOL    HW164957  11.163   9.036   2.324
87706SOL    HW264958  11.310   9.067   2.346
87707SOL     OW64959  11.230   8.621  10.457
87707SOL    HW164960  11.235   8.551  10.522
87707SOL    HW264961  11.216   8.576  10.374
87708SOL     OW64962   7.810   8.726  10.174
87708SOL    HW164963   7.797   8.707  10.267
87708SOL    HW264964   7.802   8.642  10.130
87709SOL     OW64965   9.531   8.652   8.763
87709SOL    HW164966   9.460   8.599   8.729
87709SOL    HW264967   9.560   8.705   8.689
87710SOL     OW64968   9.313  14.200  13.239
87710SOL    HW164969   9.361  14.119  13.255
87710SOL    HW264970   9.371  14.251  13.183
87711SOL     OW64971   1.054   2.940  13.463
87711SOL    HW164972   1.047   2.871  13.396
87711SOL    HW264973   1.004   3.013  13.427
87712SOL     OW64974  10.335  10.776   4.299
87712SOL    HW164975  10.385  10.811   4.225
87712SOL    HW264976  10.375  10.692   4.318
87713SOL     OW64977   5.472   6.443  13.927
87713SOL    HW164978   5.475   6.354  13.961
87713SOL    HW264979   5.538   6.490  13.977
87714SOL     OW64980   0.789   2.344   5.225
87714SOL    HW164981   0.766   2.313   5.313
87714SOL    HW264982   0.847   2.418   5.241
87715SOL     OW64983  10.715   0.246   1.157
87715SOL    HW164984  10.734   0.340   1.154
87715SOL    HW264985  10.621   0.240   1.142
87716SOL     OW64986   8.555   2.411   5.953
87716SOL    HW164987   8.462   2.413   5.933
87716SOL    HW264988   8.597   2.388   5.870
87717SOL     OW64989   7.785  10.734   2.574
87717SOL    HW164990   7.727  10.770   2.642
87717SOL    HW264991   7.726  10.687   2.515
87718SOL     OW64992   4.518   1.100   7.208
87718SOL    HW164993   4.594   1.131   7.159
87718SOL    HW264994   4.513   1.158   7.284
87719SOL     OW64995  10.755   1.258   8.271
87719SOL    HW164996  10.736   1.235   8.362
87719SOL    HW264997  10.728   1.349   8.263
87720SOL     OW64998  11.244  14.279  11.279
87720SOL    HW164999  11.239  14.188  11.307
87720SOL    HW265000  11.164  14.294  11.229
87721SOL     OW65001   9.797   9.321   3.470
87721SOL    HW165002   9.762   9.247   3.519
87721SOL    HW265003   9.767   9.398   3.519
87722SOL     OW65004  11.899   1.717   3.645
87722SOL    HW165005  11.842   1.752   3.577
87722SOL    HW265006  11.948   1.646   3.603
87723SOL     OW65007   0.934   7.005   9.718
87723SOL    HW165008   0.861   7.045   9.670
87723SOL    HW265009   0.996   6.979   9.650
87724SOL     OW65010   1.042   0.817   1.181
87724SOL    HW165011   0.960   0.815   1.230
87724SOL    HW265012   1.015   0.830   1.090
87725SOL     OW65013  12.938  14.207  13.162
87725SOL    HW165014  13.000  14.214  13.234
87725SOL    HW265015  12.992  14.213  13.083
87726SOL     OW65016   3.076   8.639   6.489
87726SOL    HW165017   3.149   8.589   6.452
87726SOL    HW265018   3.118   8.712   6.535
87727SOL     OW65019  10.568   4.170   8.574
87727SOL    HW165020  10.554   4.142   8.664
87727SOL    HW265021  10.628   4.244   8.581
87728SOL     OW65022  12.071  10.835   1.390
87728SOL    HW165023  12.105  10.751   1.360
87728SOL    HW265024  12.087  10.895   1.317
87729SOL     OW65025  10.530   8.705   6.653
87729SOL    HW165026  10.510   8.789   6.613
87729SOL    HW265027  10.471   8.643   6.611
87730SOL     OW65028  11.081   1.457  12.960
87730SOL    HW165029  11.043   1.454  13.048
87730SOL    HW265030  11.013   1.420  12.903
87731SOL     OW65031   0.518  10.245   7.238
87731SOL    HW165032   0.470  10.174   7.282
87731SOL    HW265033   0.567  10.289   7.308
87732SOL     OW65034  13.339   3.791  14.569
87732SOL    HW165035  13.381   3.730  14.507
87732SOL    HW265036  13.264   3.742  14.602
87733SOL     OW65037   9.877   0.159  14.210
87733SOL    HW165038   9.966   0.133  14.185
87733SOL    HW265039   9.836   0.078  14.240
87734SOL     OW65040  13.001   8.893   0.845
87734SOL    HW165041  12.909   8.921   0.850
87734SOL    HW265042  13.051   8.969   0.876
87735SOL     OW65043  12.355   5.557   7.746
87735SOL    HW165044  12.266   5.524   7.754
87735SOL    HW265045  12.369   5.568   7.652
87736SOL     OW65046   7.708   5.036   1.384
87736SOL    HW165047   7.713   5.087   1.304
87736SOL    HW265048   7.741   4.950   1.360
87737SOL     OW65049   1.717   5.357   8.310
87737SOL    HW165050   1.622   5.354   8.299
87737SOL    HW265051   1.732   5.336   8.402
87738SOL     OW65052   7.564  11.327   3.656
87738SOL    HW165053   7.518  11.379   3.722
87738SOL    HW265054   7.494  11.296   3.598
87739SOL     OW65055  11.126  12.869  11.332
87739SOL    HW165056  11.037  12.901  11.326
87739SOL    HW265057  11.174  12.937  11.380
87740SOL     OW65058   6.056  14.863   3.831
87740SOL    HW165059   6.046  14.799   3.901
87740SOL    HW265060   6.090  14.813   3.757
87741SOL     OW65061   1.369   0.331  14.194
87741SOL    HW165062   1.301   0.364  14.135
87741SOL    HW265063   1.323   0.315  14.276
87742SOL     OW65064   5.253  13.529  14.727
87742SOL    HW165065   5.245  13.438  14.700
87742SOL    HW265066   5.337  13.533  14.774
87743SOL     OW65067   5.623   9.093   4.602
87743SOL    HW165068   5.627   9.091   4.506
87743SOL    HW265069   5.532   9.114   4.622
87744SOL     OW65070   3.710   2.505   5.750
87744SOL    HW165071   3.765   2.483   5.826
87744SOL    HW265072   3.714   2.427   5.695
87745SOL     OW65073   9.889   1.119  13.227
87745SOL    HW165074   9.924   1.131  13.139
87745SOL    HW265075   9.894   1.025  13.243
87746SOL     OW65076  11.175   1.683   2.026
87746SOL    HW165077  11.207   1.757   1.973
87746SOL    HW265078  11.138   1.725   2.104
87747SOL     OW65079   3.529   3.772  14.039
87747SOL    HW165080   3.474   3.817  13.976
87747SOL    HW265081   3.471   3.755  14.114
87748SOL     OW65082  14.479   5.644   5.306
87748SOL    HW165083  14.438   5.657   5.392
87748SOL    HW265084  14.416   5.681   5.244
87749SOL     OW65085   1.540   6.693   6.514
87749SOL    HW165086   1.569   6.610   6.553
87749SOL    HW265087   1.579   6.693   6.427
87750SOL     OW65088   9.669   4.807   4.141
87750SOL    HW165089   9.725   4.817   4.218
87750SOL    HW265090   9.623   4.891   4.134
87751SOL     OW65091  13.137   4.031  10.843
87751SOL    HW165092  13.105   3.945  10.872
87751SOL    HW265093  13.135   4.086  10.921
87752SOL     OW65094  12.108  12.054  11.121
87752SOL    HW165095  12.019  12.069  11.153
87752SOL    HW265096  12.144  11.989  11.180
87753SOL     OW65097   3.116   4.910   0.136
87753SOL    HW165098   3.128   4.818   0.113
87753SOL    HW265099   3.022   4.925   0.127
87754SOL     OW65100   7.505   7.942   4.036
87754SOL    HW165101   7.425   7.891   4.029
87754SOL    HW265102   7.575   7.877   4.036
87755SOL     OW65103   4.654   5.738   6.034
87755SOL    HW165104   4.598   5.661   6.047
87755SOL    HW265105   4.689   5.757   6.121
87756SOL     OW65106   8.947   5.650   3.413
87756SOL    HW165107   8.981   5.739   3.399
87756SOL    HW265108   9.001   5.595   3.355
87757SOL     OW65109   2.326  11.266   2.331
87757SOL    HW165110   2.365  11.352   2.312
87757SOL    HW265111   2.374  11.235   2.408
87758SOL     OW65112   3.416   2.087   1.348
87758SOL    HW165113   3.510   2.103   1.344
87758SOL    HW265114   3.400   2.053   1.435
87759SOL     OW65115  12.510  14.239   1.386
87759SOL    HW165116  12.439  14.178   1.408
87759SOL    HW265117  12.470  14.301   1.325
87760SOL     OW65118  12.456   2.488   9.855
87760SOL    HW165119  12.389   2.547   9.889
87760SOL    HW265120  12.414   2.402   9.853
87761SOL     OW65121   7.917   0.720  13.970
87761SOL    HW165122   7.828   0.684  13.969
87761SOL    HW265123   7.947   0.710  13.879
87762SOL     OW65124   8.859   5.473   9.326
87762SOL    HW165125   8.869   5.563   9.357
87762SOL    HW265126   8.948   5.439   9.323
87763SOL     OW65127   9.811  12.071   4.692
87763SOL    HW165128   9.759  12.072   4.612
87763SOL    HW265129   9.750  12.048   4.761
87764SOL     OW65130   1.366  12.413   3.089
87764SOL    HW165131   1.396  12.504   3.081
87764SOL    HW265132   1.446  12.363   3.105
87765SOL     OW65133  14.757   5.160  10.041
87765SOL    HW165134  14.782   5.221  10.110
87765SOL    HW265135  14.664   5.142  10.058
87766SOL     OW65136  12.468   0.612   0.604
87766SOL    HW165137  12.413   0.581   0.676
87766SOL    HW265138  12.439   0.562   0.528
87767SOL     OW65139  14.793   0.816   2.762
87767SOL    HW165140  14.877   0.796   2.719
87767SOL    HW265141  14.734   0.747   2.732
87768SOL     OW65142   5.653   0.601  11.923
87768SOL    HW165143   5.648   0.506  11.913
87768SOL    HW265144   5.698   0.614  12.006
87769SOL     OW65145   1.075   8.508   5.658
87769SOL    HW165146   0.991   8.462   5.659
87769SOL    HW265147   1.134   8.450   5.707
87770SOL     OW65148  14.195   0.036   2.882
87770SOL    HW165149  14.268   0.003   2.829
87770SOL    HW265150  14.158   0.107   2.830
87771SOL     OW65151  11.517  10.146   1.872
87771SOL    HW165152  11.452  10.135   1.942
87771SOL    HW265153  11.535  10.056   1.842
87772SOL     OW65154  12.104   2.199   7.778
87772SOL    HW165155  12.198   2.214   7.778
87772SOL    HW265156  12.085   2.163   7.691
87773SOL     OW65157  12.787   4.478  12.982
87773SOL    HW165158  12.871   4.441  13.008
87773SOL    HW265159  12.724   4.408  12.999
87774SOL     OW65160   0.873   4.699  11.406
87774SOL    HW165161   0.800   4.638  11.419
87774SOL    HW265162   0.881   4.706  11.311
87775SOL     OW65163   1.016   2.538  12.018
87775SOL    HW165164   1.004   2.475  12.089
87775SOL    HW265165   0.969   2.616  12.048
87776SOL     OW65166   8.875   1.623  11.987
87776SOL    HW165167   8.824   1.691  11.943
87776SOL    HW265168   8.963   1.660  11.996
87777SOL     OW65169  13.509   9.165  13.524
87777SOL    HW165170  13.583   9.134  13.471
87777SOL    HW265171  13.432   9.144  13.471
87778SOL     OW65172  14.039   1.693   6.230
87778SOL    HW165173  14.115   1.750   6.244
87778SOL    HW265174  14.009   1.717   6.142
87779SOL     OW65175   4.303   1.257   6.966
87779SOL    HW165176   4.342   1.169   6.963
87779SOL    HW265177   4.371   1.312   7.004
87780SOL     OW65178   4.795   6.114  10.330
87780SOL    HW165179   4.796   6.200  10.289
87780SOL    HW265180   4.704   6.085  10.325
87781SOL     OW65181   6.103  10.954   6.659
87781SOL    HW165182   6.187  10.913   6.677
87781SOL    HW265183   6.063  10.967   6.745
87782SOL     OW65184  10.291   9.439  12.267
87782SOL    HW165185  10.375   9.473  12.237
87782SOL    HW265186  10.253   9.511  12.318
87783SOL     OW65187   9.751   9.446   6.368
87783SOL    HW165188   9.719   9.411   6.285
87783SOL    HW265189   9.682   9.423   6.432
87784SOL     OW65190   3.830  13.481   2.463
87784SOL    HW165191   3.783  13.564   2.466
87784SOL    HW265192   3.909  13.496   2.516
87785SOL     OW65193   2.964   3.006   3.715
87785SOL    HW165194   2.973   3.098   3.689
87785SOL    HW265195   2.885   2.975   3.670
87786SOL     OW65196   3.577   5.781   9.050
87786SOL    HW165197   3.664   5.797   9.014
87786SOL    HW265198   3.545   5.868   9.076
87787SOL     OW65199   6.884   7.732   7.070
87787SOL    HW165200   6.909   7.779   6.990
87787SOL    HW265201   6.859   7.645   7.040
87788SOL     OW65202   5.942   8.003   1.055
87788SOL    HW165203   5.862   8.032   1.013
87788SOL    HW265204   5.916   7.981   1.144
87789SOL     OW65205  10.395  10.214   5.944
87789SOL    HW165206  10.370  10.189   6.033
87789SOL    HW265207  10.354  10.149   5.888
87790SOL     OW65208   7.102   0.798  10.689
87790SOL    HW165209   7.184   0.837  10.720
87790SOL    HW265210   7.122   0.705  10.681
87791SOL     OW65211  10.054   0.394   8.072
87791SOL    HW165212  10.089   0.330   8.010
87791SOL    HW265213  10.042   0.345   8.153
87792SOL     OW65214  13.250  13.650   0.039
87792SOL    HW165215  13.162  13.614   0.054
87792SOL    HW265216  13.265  13.708   0.113
87793SOL     OW65217   2.630   3.125  11.650
87793SOL    HW165218   2.540   3.155  11.637
87793SOL    HW265219   2.678   3.163  11.576
87794SOL     OW65220  13.778  14.848   7.088
87794SOL    HW165221  13.735  14.848   7.002
87794SOL    HW265222  13.759  14.761   7.124
87795SOL     OW65223  13.111  14.588  11.792
87795SOL    HW165224  13.028  14.542  11.782
87795SOL    HW265225  13.177  14.525  11.762
87796SOL     OW65226   8.993   8.997   3.712
87796SOL    HW165227   8.921   8.975   3.771
87796SOL    HW265228   9.019   8.914   3.672
87797SOL     OW65229  11.788  14.245   2.792
87797SOL    HW165230  11.697  14.272   2.806
87797SOL    HW265231  11.839  14.305   2.845
87798SOL     OW65232   2.008  11.028   7.172
87798SOL    HW165233   2.000  10.990   7.260
87798SOL    HW265234   1.938  10.988   7.121
87799SOL     OW65235   9.460  12.388   2.511
87799SOL    HW165236   9.520  12.365   2.582
87799SOL    HW265237   9.374  12.358   2.541
87800SOL     OW65238   0.140  11.204   5.448
87800SOL    HW165239   0.190  11.282   5.474
87800SOL    HW265240   0.063  11.239   5.403
87801SOL     OW65241   0.690  10.427   7.389
87801SOL    HW165242   0.777  10.432   7.429
87801SOL    HW265243   0.689  10.498   7.326
87802SOL     OW65244   7.587   2.826  11.637
87802SOL    HW165245   7.511   2.865  11.681
87802SOL    HW265246   7.613   2.753  11.693
87803SOL     OW65247   4.092  12.001   2.747
87803SOL    HW165248   4.120  12.093   2.744
87803SOL    HW265249   4.002  12.002   2.714
87804SOL     OW65250   5.903   5.029  12.629
87804SOL    HW165251   5.912   5.119  12.660
87804SOL    HW265252   5.814   5.004  12.654
87805SOL     OW65253  11.180  14.069   9.160
87805SOL    HW165254  11.213  14.107   9.079
87805SOL    HW265255  11.088  14.095   9.164
87806SOL     OW65256  10.320  13.309   4.000
87806SOL    HW165257  10.376  13.263   4.063
87806SOL    HW265258  10.233  13.269   4.012
87807SOL     OW65259   8.134   4.464   6.535
87807SOL    HW165260   8.064   4.515   6.495
87807SOL    HW265261   8.146   4.503   6.622
87808SOL     OW65262   1.326   7.026   8.506
87808SOL    HW165263   1.408   7.073   8.518
87808SOL    HW265264   1.352   6.936   8.488
87809SOL     OW65265   2.705   7.539   1.192
87809SOL    HW165266   2.776   7.588   1.232
87809SOL    HW265267   2.722   7.545   1.098
87810SOL     OW65268  14.033   4.632   4.239
87810SOL    HW165269  13.947   4.602   4.268
87810SOL    HW265270  14.059   4.697   4.304
87811SOL     OW65271   8.240   1.934  14.610
87811SOL    HW165272   8.275   2.014  14.649
87811SOL    HW265273   8.314   1.894  14.564
87812SOL     OW65274   7.531   2.832   6.142
87812SOL    HW165275   7.531   2.787   6.057
87812SOL    HW265276   7.541   2.924   6.120
87813SOL     OW65277   2.183   2.557   9.638
87813SOL    HW165278   2.108   2.527   9.586
87813SOL    HW265279   2.145   2.586   9.720
87814SOL     OW65280   0.914   8.786   0.396
87814SOL    HW165281   0.926   8.832   0.313
87814SOL    HW265282   0.962   8.703   0.385
87815SOL     OW65283   3.437   4.504   1.198
87815SOL    HW165284   3.432   4.464   1.112
87815SOL    HW265285   3.501   4.574   1.188
87816SOL     OW65286   2.109  11.047   9.567
87816SOL    HW165287   2.135  11.090   9.648
87816SOL    HW265288   2.025  11.087   9.545
87817SOL     OW65289  12.306   6.837   2.606
87817SOL    HW165290  12.247   6.798   2.672
87817SOL    HW265291  12.253   6.903   2.563
87818SOL     OW65292   1.302  11.551  10.240
87818SOL    HW165293   1.273  11.479  10.296
87818SOL    HW265294   1.247  11.546  10.163
87819SOL     OW65295   1.212   9.280  13.686
87819SOL    HW165296   1.193   9.350  13.750
87819SOL    HW265297   1.136   9.222  13.692
87820SOL     OW65298   9.808  13.290  14.818
87820SOL    HW165299   9.832  13.331  14.735
87820SOL    HW265300   9.864  13.212  14.822
87821SOL     OW65301   6.725   8.649  11.886
87821SOL    HW165302   6.640   8.674  11.848
87821SOL    HW265303   6.729   8.554  11.872
87822SOL     OW65304   0.968   9.624   3.853
87822SOL    HW165305   0.974   9.698   3.793
87822SOL    HW265306   1.021   9.649   3.929
87823SOL     OW65307   6.824   0.939  11.209
87823SOL    HW165308   6.735   0.904  11.211
87823SOL    HW265309   6.832   0.977  11.122
87824SOL     OW65310   1.696   9.946  13.410
87824SOL    HW165311   1.712  10.010  13.479
87824SOL    HW265312   1.641   9.879  13.452
87825SOL     OW65313   0.086   6.285   9.471
87825SOL    HW165314   0.147   6.293   9.544
87825SOL    HW265315   0.072   6.375   9.441
87826SOL     OW65316   3.885   0.778   3.904
87826SOL    HW165317   3.885   0.730   3.987
87826SOL    HW265318   3.977   0.780   3.877
87827SOL     OW65319   3.824   7.631   1.131
87827SOL    HW165320   3.906   7.665   1.094
87827SOL    HW265321   3.761   7.702   1.119
87828SOL     OW65322   6.173   0.847   6.570
87828SOL    HW165323   6.264   0.827   6.548
87828SOL    HW265324   6.123   0.778   6.526
87829SOL     OW65325  14.701   8.000   6.134
87829SOL    HW165326  14.785   8.006   6.179
87829SOL    HW265327  14.662   8.087   6.143
87830SOL     OW65328  11.487  12.598  14.577
87830SOL    HW165329  11.401  12.639  14.584
87830SOL    HW265330  11.506  12.565  14.665
87831SOL     OW65331   1.242   9.303   2.393
87831SOL    HW165332   1.326   9.295   2.348
87831SOL    HW265333   1.250   9.248   2.470
87832SOL     OW65334   2.189   1.052   9.916
87832SOL    HW165335   2.192   0.972   9.862
87832SOL    HW265336   2.099   1.084   9.905
87833SOL     OW65337   3.920  12.743   3.713
87833SOL    HW165338   3.993  12.803   3.724
87833SOL    HW265339   3.953  12.659   3.745
87834SOL     OW65340   7.127   8.611  12.520
87834SOL    HW165341   7.070   8.635  12.593
87834SOL    HW265342   7.084   8.535  12.480
87835SOL     OW65343  14.425   6.516   1.662
87835SOL    HW165344  14.418   6.538   1.755
87835SOL    HW265345  14.517   6.492   1.650
87836SOL     OW65346   4.374   5.000   6.255
87836SOL    HW165347   4.388   4.913   6.293
87836SOL    HW265348   4.432   5.003   6.179
87837SOL     OW65349   6.772   7.291   0.830
87837SOL    HW165350   6.688   7.335   0.814
87837SOL    HW265351   6.822   7.306   0.750
87838SOL     OW65352  10.689   5.550  13.741
87838SOL    HW165353  10.612   5.505  13.706
87838SOL    HW265354  10.683   5.639  13.704
87839SOL     OW65355   2.762  13.448  10.302
87839SOL    HW165356   2.714  13.382  10.351
87839SOL    HW265357   2.848  13.452  10.344
87840SOL     OW65358  14.589   0.586   7.487
87840SOL    HW165359  14.513   0.643   7.497
87840SOL    HW265360  14.658   0.644   7.455
87841SOL     OW65361  10.505   2.446   6.887
87841SOL    HW165362  10.506   2.540   6.906
87841SOL    HW265363  10.510   2.405   6.974
87842SOL     OW65364   3.151   1.316  13.215
87842SOL    HW165365   3.215   1.359  13.273
87842SOL    HW265366   3.167   1.223  13.227
87843SOL     OW65367   3.692   3.227   9.372
87843SOL    HW165368   3.718   3.199   9.284
87843SOL    HW265369   3.643   3.308   9.358
87844SOL     OW65370   1.925  10.248   5.499
87844SOL    HW165371   2.002  10.197   5.525
87844SOL    HW265372   1.853  10.185   5.501
87845SOL     OW65373   4.429   0.131   1.923
87845SOL    HW165374   4.390   0.104   2.007
87845SOL    HW265375   4.425   0.227   1.924
87846SOL     OW65376   6.425   5.194   5.506
87846SOL    HW165377   6.378   5.262   5.554
87846SOL    HW265378   6.360   5.125   5.491
87847SOL     OW65379   9.613   1.096   8.325
87847SOL    HW165380   9.701   1.131   8.309
87847SOL    HW265381   9.554   1.168   8.305
87848SOL     OW65382   7.521   2.502   4.181
87848SOL    HW165383   7.431   2.533   4.173
87848SOL    HW265384   7.518   2.433   4.246
87849SOL     OW65385  11.302   5.020  13.295
87849SOL    HW165386  11.306   5.003  13.201
87849SOL    HW265387  11.218   4.983  13.322
87850SOL     OW65388  11.329   9.700   6.835
87850SOL    HW165389  11.306   9.784   6.794
87850SOL    HW265390  11.411   9.718   6.881
87851SOL     OW65391   3.120   8.424  14.390
87851SOL    HW165392   3.046   8.477  14.360
87851SOL    HW265393   3.106   8.415  14.485
87852SOL     OW65394  10.781   9.320   3.242
87852SOL    HW165395  10.850   9.317   3.176
87852SOL    HW265396  10.820   9.367   3.315
87853SOL     OW65397  14.004   8.026  13.592
87853SOL    HW165398  14.086   7.980  13.576
87853SOL    HW265399  13.943   7.958  13.621
87854SOL     OW65400   9.558   3.406   7.047
87854SOL    HW165401   9.470   3.369   7.059
87854SOL    HW265402   9.592   3.416   7.136
87855SOL     OW65403   8.221   7.704   5.717
87855SOL    HW165404   8.311   7.673   5.708
87855SOL    HW265405   8.209   7.714   5.812
87856SOL     OW65406   5.364  10.670   8.389
87856SOL    HW165407   5.442  10.651   8.440
87856SOL    HW265408   5.349  10.764   8.402
87857SOL     OW65409   3.120  11.025   3.372
87857SOL    HW165410   3.171  11.059   3.446
87857SOL    HW265411   3.038  10.995   3.412
87858SOL     OW65412   7.733  10.424   7.090
87858SOL    HW165413   7.677  10.349   7.072
87858SOL    HW265414   7.714  10.446   7.182
87859SOL     OW65415   0.635   8.393   4.035
87859SOL    HW165416   0.694   8.397   3.960
87859SOL    HW265417   0.655   8.472   4.086
87860SOL     OW65418  11.250   5.698   5.622
87860SOL    HW165419  11.219   5.777   5.577
87860SOL    HW265420  11.188   5.685   5.694
87861SOL     OW65421  14.216   2.173   0.754
87861SOL    HW165422  14.286   2.156   0.817
87861SOL    HW265423  14.160   2.095   0.759
87862SOL     OW65424  14.107   2.199   8.461
87862SOL    HW165425  14.173   2.268   8.465
87862SOL    HW265426  14.084   2.184   8.553
87863SOL     OW65427   8.737   8.722   3.112
87863SOL    HW165428   8.731   8.718   3.016
87863SOL    HW265429   8.648   8.744   3.140
87864SOL     OW65430   4.327   1.918   0.466
87864SOL    HW165431   4.312   1.824   0.465
87864SOL    HW265432   4.241   1.956   0.486
87865SOL     OW65433  13.547  13.097  11.329
87865SOL    HW165434  13.527  13.006  11.307
87865SOL    HW265435  13.615  13.122  11.267
87866SOL     OW65436  14.147   7.896   9.426
87866SOL    HW165437  14.140   7.869   9.517
87866SOL    HW265438  14.080   7.963   9.415
87867SOL     OW65439  14.147  14.396  14.059
87867SOL    HW165440  14.086  14.469  14.049
87867SOL    HW265441  14.105  14.323  14.012
87868SOL     OW65442  13.629   2.969   1.645
87868SOL    HW165443  13.653   2.890   1.695
87868SOL    HW265444  13.542   2.950   1.611
87869SOL     OW65445   0.779   4.971   6.777
87869SOL    HW165446   0.840   4.921   6.832
87869SOL    HW265447   0.722   5.016   6.838
87870SOL     OW65448  10.378   6.042   4.589
87870SOL    HW165449  10.309   6.108   4.582
87870SOL    HW265450  10.398   6.018   4.498
87871SOL     OW65451   1.938   2.067   4.489
87871SOL    HW165452   1.856   2.048   4.535
87871SOL    HW265453   1.964   1.984   4.450
87872SOL     OW65454  11.686   3.514   8.269
87872SOL    HW165455  11.683   3.419   8.256
87872SOL    HW265456  11.775   3.530   8.302
87873SOL     OW65457  13.773   6.833  11.542
87873SOL    HW165458  13.789   6.897  11.473
87873SOL    HW265459  13.850   6.840  11.599
87874SOL     OW65460   8.251   4.716   4.255
87874SOL    HW165461   8.341   4.685   4.243
87874SOL    HW265462   8.255   4.810   4.235
87875SOL     OW65463  11.600   0.416   9.017
87875SOL    HW165464  11.526   0.460   9.059
87875SOL    HW265465  11.674   0.432   9.075
87876SOL     OW65466   4.417  12.763  12.981
87876SOL    HW165467   4.484  12.818  12.941
87876SOL    HW265468   4.345  12.823  13.001
87877SOL     OW65469   6.076   7.741   3.134
87877SOL    HW165470   6.005   7.803   3.148
87877SOL    HW265471   6.146   7.793   3.094
87878SOL     OW65472   2.574   9.970  12.764
87878SOL    HW165473   2.601  10.061  12.777
87878SOL    HW265474   2.625   9.940  12.689
87879SOL     OW65475   9.479  10.615  14.533
87879SOL    HW165476   9.400  10.562  14.525
87879SOL    HW265477   9.476  10.649  14.622
87880SOL     OW65478   5.244   2.954   5.797
87880SOL    HW165479   5.231   2.933   5.705
87880SOL    HW265480   5.336   2.932   5.813
87881SOL     OW65481   8.785  13.674   7.796
87881SOL    HW165482   8.816  13.600   7.848
87881SOL    HW265483   8.691  13.660   7.787
87882SOL     OW65484   6.007   8.223   9.212
87882SOL    HW165485   6.060   8.224   9.292
87882SOL    HW265486   6.069   8.245   9.142
87883SOL     OW65487   4.393   2.826  13.371
87883SOL    HW165488   4.348   2.890  13.427
87883SOL    HW265489   4.484   2.855  13.369
87884SOL     OW65490  11.862  14.856   4.105
87884SOL    HW165491  11.904  14.783   4.059
87884SOL    HW265492  11.929   0.010   4.164
87885SOL     OW65493   3.884   2.111  13.563
87885SOL    HW165494   3.855   2.194  13.601
87885SOL    HW265495   3.831   2.045  13.608
87886SOL     OW65496   0.125   3.538   1.974
87886SOL    HW165497   0.210   3.528   1.931
87886SOL    HW265498   0.066   3.569   1.905
87887SOL     OW65499   2.121   4.543   5.710
87887SOL    HW165500   2.144   4.621   5.761
87887SOL    HW265501   2.167   4.555   5.627
87888SOL     OW65502   6.732   7.553  11.732
87888SOL    HW165503   6.667   7.583  11.668
87888SOL    HW265504   6.681   7.506  11.798
87889SOL     OW65505  12.870   5.127  12.416
87889SOL    HW165506  12.879   5.182  12.338
87889SOL    HW265507  12.828   5.047  12.384
87890SOL     OW65508  10.260   0.157  12.791
87890SOL    HW165509  10.287   0.244  12.821
87890SOL    HW265510  10.334   0.125  12.740
87891SOL     OW65511  11.892   7.132   0.825
87891SOL    HW165512  11.937   7.141   0.909
87891SOL    HW265513  11.866   7.221   0.801
87892SOL     OW65514   6.872   6.457  10.669
87892SOL    HW165515   6.905   6.428  10.754
87892SOL    HW265516   6.778   6.440  10.672
87893SOL     OW65517  13.715   4.750  11.833
87893SOL    HW165518  13.693   4.683  11.899
87893SOL    HW265519  13.808   4.767  11.846
87894SOL     OW65520  12.624   8.580  13.782
87894SOL    HW165521  12.655   8.495  13.752
87894SOL    HW265522  12.704   8.630  13.800
87895SOL     OW65523  14.206   1.811   6.761
87895SOL    HW165524  14.247   1.751   6.698
87895SOL    HW265525  14.113   1.789   6.758
87896SOL     OW65526   8.794   6.569   7.687
87896SOL    HW165527   8.806   6.661   7.711
87896SOL    HW265528   8.874   6.545   7.642
87897SOL     OW65529   6.778  14.300   0.510
87897SOL    HW165530   6.863  14.270   0.543
87897SOL    HW265531   6.737  14.221   0.474
87898SOL     OW65532   3.221   5.579   9.509
87898SOL    HW165533   3.177   5.505   9.552
87898SOL    HW265534   3.266   5.624   9.580
87899SOL     OW65535  13.506   8.073   7.496
87899SOL    HW165536  13.508   8.144   7.561
87899SOL    HW265537  13.450   8.107   7.426
87900SOL     OW65538   5.559   1.557   9.905
87900SOL    HW165539   5.563   1.462   9.897
87900SOL    HW265540   5.637   1.580   9.956
87901SOL     OW65541   6.373  10.666   5.065
87901SOL    HW165542   6.361  10.680   4.971
87901SOL    HW265543   6.312  10.595   5.086
87902SOL     OW65544   0.988  13.711  11.531
87902SOL    HW165545   0.893  13.714  11.515
87902SOL    HW265546   0.997  13.709  11.626
87903SOL     OW65547  11.933  10.891   4.528
87903SOL    HW165548  11.910  10.872   4.437
87903SOL    HW265549  11.976  10.977   4.525
87904SOL     OW65550   5.032  10.115   4.215
87904SOL    HW165551   4.976  10.179   4.171
87904SOL    HW265552   5.040  10.043   4.152
87905SOL     OW65553   6.920   9.248   3.888
87905SOL    HW165554   6.889   9.316   3.827
87905SOL    HW265555   6.898   9.166   3.845
87906SOL     OW65556  14.785   8.202  10.171
87906SOL    HW165557  14.743   8.188  10.256
87906SOL    HW265558  14.784   8.297  10.159
87907SOL     OW65559  11.313   3.934  12.503
87907SOL    HW165560  11.323   3.843  12.529
87907SOL    HW265561  11.269   3.976  12.577
87908SOL     OW65562  11.197   3.679  11.713
87908SOL    HW165563  11.197   3.716  11.801
87908SOL    HW265564  11.110   3.640  11.703
87909SOL     OW65565  12.723   7.323   5.487
87909SOL    HW165566  12.794   7.259   5.485
87909SOL    HW265567  12.728   7.362   5.574
87910SOL     OW65568   5.643   5.019   1.937
87910SOL    HW165569   5.588   5.042   2.012
87910SOL    HW265570   5.671   4.929   1.955
87911SOL     OW65571   4.546  13.630   4.573
87911SOL    HW165572   4.510  13.594   4.492
87911SOL    HW265573   4.481  13.606   4.640
87912SOL     OW65574   0.925   4.192   8.158
87912SOL    HW165575   0.976   4.204   8.238
87912SOL    HW265576   0.988   4.161   8.094
87913SOL     OW65577   0.313   6.716  11.577
87913SOL    HW165578   0.288   6.635  11.621
87913SOL    HW265579   0.251   6.724  11.504
87914SOL     OW65580   3.250   7.723   6.878
87914SOL    HW165581   3.265   7.637   6.917
87914SOL    HW265582   3.272   7.785   6.948
87915SOL     OW65583   3.198   3.630  11.344
87915SOL    HW165584   3.216   3.724  11.335
87915SOL    HW265585   3.110   3.619  11.308
87916SOL     OW65586   6.343   2.314   1.042
87916SOL    HW165587   6.397   2.259   1.099
87916SOL    HW265588   6.393   2.320   0.960
87917SOL     OW65589   2.200  13.337  13.917
87917SOL    HW165590   2.191  13.340  14.012
87917SOL    HW265591   2.250  13.257  13.900
87918SOL     OW65592  13.997   1.016   7.121
87918SOL    HW165593  13.978   1.054   7.036
87918SOL    HW265594  14.092   1.022   7.130
87919SOL     OW65595   9.584  12.181   8.321
87919SOL    HW165596   9.503  12.186   8.270
87919SOL    HW265597   9.620  12.269   8.318
87920SOL     OW65598  10.575   1.845   7.548
87920SOL    HW165599  10.486   1.879   7.558
87920SOL    HW265600  10.623   1.878   7.624
87921SOL     OW65601   0.781   6.219  14.859
87921SOL    HW165602   0.707   6.280  14.849
87921SOL    HW265603   0.754   6.160   0.049
87922SOL     OW65604  11.948   6.378  10.199
87922SOL    HW165605  11.867   6.343  10.236
87922SOL    HW265606  11.961   6.462  10.244
87923SOL     OW65607   9.780  13.824   7.789
87923SOL    HW165608   9.833  13.904   7.785
87923SOL    HW265609   9.776  13.803   7.882
87924SOL     OW65610  11.331   7.902   9.188
87924SOL    HW165611  11.422   7.930   9.202
87924SOL    HW265612  11.330   7.810   9.213
87925SOL     OW65613   8.559   5.877   1.426
87925SOL    HW165614   8.622   5.833   1.368
87925SOL    HW265615   8.474   5.846   1.397
87926SOL     OW65616   0.963   8.064   9.954
87926SOL    HW165617   0.993   8.009  10.026
87926SOL    HW265618   1.038   8.071   9.895
87927SOL     OW65619   1.558  11.122  14.283
87927SOL    HW165620   1.639  11.165  14.255
87927SOL    HW265621   1.557  11.039  14.234
87928SOL     OW65622   6.314   7.657   8.070
87928SOL    HW165623   6.334   7.747   8.042
87928SOL    HW265624   6.361   7.647   8.152
87929SOL     OW65625   5.773  11.112  13.505
87929SOL    HW165626   5.730  11.071  13.430
87929SOL    HW265627   5.752  11.205  13.498
87930SOL     OW65628   6.223   1.895   0.883
87930SOL    HW165629   6.301   1.842   0.867
87930SOL    HW265630   6.172   1.887   0.802
87931SOL     OW65631   9.980   6.497   2.324
87931SOL    HW165632  10.026   6.492   2.408
87931SOL    HW265633  10.044   6.467   2.260
87932SOL     OW65634   1.962   0.619  13.144
87932SOL    HW165635   1.980   0.618  13.238
87932SOL    HW265636   1.886   0.677  13.135
87933SOL     OW65637  11.655   7.578  12.469
87933SOL    HW165638  11.611   7.499  12.500
87933SOL    HW265639  11.711   7.605  12.541
87934SOL     OW65640   9.154   7.848   9.381
87934SOL    HW165641   9.163   7.943   9.383
87934SOL    HW265642   9.206   7.817   9.455
87935SOL     OW65643  13.036  12.131   2.089
87935SOL    HW165644  13.043  12.134   2.184
87935SOL    HW265645  12.967  12.067   2.072
87936SOL     OW65646  12.744  11.835   2.638
87936SOL    HW165647  12.755  11.918   2.592
87936SOL    HW265648  12.775  11.769   2.576
87937SOL     OW65649   6.823   6.056   5.892
87937SOL    HW165650   6.888   6.107   5.842
87937SOL    HW265651   6.816   5.973   5.844
87938SOL     OW65652   9.679   7.186  13.359
87938SOL    HW165653   9.728   7.128  13.301
87938SOL    HW265654   9.609   7.221  13.305
87939SOL     OW65655   7.825  13.855   0.789
87939SOL    HW165656   7.782  13.813   0.715
87939SOL    HW265657   7.764  13.845   0.862
87940SOL     OW65658   0.871   6.092  14.165
87940SOL    HW165659   0.847   6.148  14.239
87940SOL    HW265660   0.893   6.008  14.205
87941SOL     OW65661  13.349  14.674   5.241
87941SOL    HW165662  13.320  14.609   5.176
87941SOL    HW265663  13.425  14.716   5.201
87942SOL     OW65664   0.746   9.124   9.284
87942SOL    HW165665   0.691   9.060   9.328
87942SOL    HW265666   0.821   9.135   9.343
87943SOL     OW65667   3.748  12.837   5.735
87943SOL    HW165668   3.838  12.860   5.758
87943SOL    HW265669   3.756  12.768   5.669
87944SOL     OW65670   3.596   3.161  12.240
87944SOL    HW165671   3.651   3.124  12.309
87944SOL    HW265672   3.654   3.217  12.190
87945SOL     OW65673  11.033  11.406   3.505
87945SOL    HW165674  11.027  11.320   3.463
87945SOL    HW265675  11.122  11.407   3.542
87946SOL     OW65676   9.899  10.124   4.929
87946SOL    HW165677   9.904  10.041   4.977
87946SOL    HW265678   9.962  10.115   4.858
87947SOL     OW65679   2.030   8.675   6.490
87947SOL    HW165680   2.012   8.717   6.574
87947SOL    HW265681   2.063   8.588   6.513
87948SOL     OW65682   5.299   0.081  12.295
87948SOL    HW165683   5.385   0.101  12.259
87948SOL    HW265684   5.287  14.867  12.278
87949SOL     OW65685  13.013   8.633   2.176
87949SOL    HW165686  12.939   8.656   2.232
87949SOL    HW265687  12.989   8.666   2.090
87950SOL     OW65688   1.272   7.994   7.559
87950SOL    HW165689   1.229   7.931   7.618
87950SOL    HW265690   1.359   7.957   7.544
87951SOL     OW65691   8.387  12.354  11.172
87951SOL    HW165692   8.415  12.265  11.193
87951SOL    HW265693   8.410  12.406  11.249
87952SOL     OW65694  13.602   9.515   5.394
87952SOL    HW165695  13.627   9.594   5.346
87952SOL    HW265696  13.540   9.546   5.460
87953SOL     OW65697   9.508   9.235   9.541
87953SOL    HW165698   9.478   9.223   9.451
87953SOL    HW265699   9.565   9.311   9.538
87954SOL     OW65700  11.362   1.824  12.107
87954SOL    HW165701  11.310   1.895  12.145
87954SOL    HW265702  11.362   1.843  12.013
87955SOL     OW65703   7.463   1.612   2.589
87955SOL    HW165704   7.464   1.681   2.656
87955SOL    HW265705   7.418   1.653   2.515
87956SOL     OW65706  14.802  14.877  12.900
87956SOL    HW165707  14.790  14.805  12.838
87956SOL    HW265708  14.739   0.064  12.873
87957SOL     OW65709  10.885  10.442   4.533
87957SOL    HW165710  10.948  10.440   4.606
87957SOL    HW265711  10.901  10.362   4.485
87958SOL     OW65712  14.657   0.047   5.152
87958SOL    HW165713  14.691   0.079   5.236
87958SOL    HW265714  14.660  14.831   5.160
87959SOL     OW65715  13.635   6.972  14.679
87959SOL    HW165716  13.560   6.922  14.647
87959SOL    HW265717  13.621   6.976  14.774
87960SOL     OW65718   5.606   5.636   4.110
87960SOL    HW165719   5.568   5.550   4.124
87960SOL    HW265720   5.701   5.622   4.116
87961SOL     OW65721  10.882   9.023  12.456
87961SOL    HW165722  10.912   8.957  12.393
87961SOL    HW265723  10.801   9.057  12.418
87962SOL     OW65724   6.643   0.391  14.169
87962SOL    HW165725   6.716   0.414  14.227
87962SOL    HW265726   6.591   0.327  14.220
87963SOL     OW65727  14.555   1.879   4.588
87963SOL    HW165728  14.544   1.822   4.512
87963SOL    HW265729  14.521   1.964   4.560
87964SOL     OW65730  12.582   2.763   7.779
87964SOL    HW165731  12.543   2.816   7.849
87964SOL    HW265732  12.676   2.780   7.785
87965SOL     OW65733   9.661  14.053   3.609
87965SOL    HW165734   9.664  14.061   3.514
87965SOL    HW265735   9.729  14.112   3.641
87966SOL     OW65736  10.466   8.246  12.113
87966SOL    HW165737  10.392   8.192  12.087
87966SOL    HW265738  10.518   8.255  12.033
87967SOL     OW65739   8.262   8.250   0.773
87967SOL    HW165740   8.233   8.186   0.837
87967SOL    HW265741   8.211   8.329   0.792
87968SOL     OW65742  12.632   3.321  14.237
87968SOL    HW165743  12.576   3.389  14.202
87968SOL    HW265744  12.687   3.366  14.301
87969SOL     OW65745   6.354   9.181   8.104
87969SOL    HW165746   6.362   9.232   8.185
87969SOL    HW265747   6.276   9.216   8.061
87970SOL     OW65748   8.774   0.938   1.411
87970SOL    HW165749   8.796   0.893   1.329
87970SOL    HW265750   8.707   0.883   1.451
87971SOL     OW65751   5.355   5.219  14.815
87971SOL    HW165752   5.289   5.272  14.769
87971SOL    HW265753   5.366   5.262   0.020
87972SOL     OW65754   2.614  11.581   2.555
87972SOL    HW165755   2.632  11.528   2.633
87972SOL    HW265756   2.686  11.643   2.551
87973SOL     OW65757   3.978  11.801   1.536
87973SOL    HW165758   3.935  11.740   1.476
87973SOL    HW265759   4.012  11.871   1.480
87974SOL     OW65760   9.148  10.456   5.696
87974SOL    HW165761   9.116  10.473   5.784
87974SOL    HW265762   9.073  10.416   5.651
87975SOL     OW65763   2.532  10.990   1.718
87975SOL    HW165764   2.607  10.973   1.775
87975SOL    HW265765   2.463  10.934   1.753
87976SOL     OW65766  14.668   2.594   3.979
87976SOL    HW165767  14.696   2.680   4.011
87976SOL    HW265768  14.614   2.614   3.902
87977SOL     OW65769  14.593   6.552  12.930
87977SOL    HW165770  14.596   6.594  12.845
87977SOL    HW265771  14.583   6.624  12.993
87978SOL     OW65772   9.873  12.797  13.739
87978SOL    HW165773   9.852  12.884  13.706
87978SOL    HW265774   9.834  12.737  13.675
87979SOL     OW65775   6.375   2.984   7.769
87979SOL    HW165776   6.441   2.945   7.711
87979SOL    HW265777   6.420   3.056   7.812
87980SOL     OW65778   2.485   7.273   7.305
87980SOL    HW165779   2.444   7.246   7.388
87980SOL    HW265780   2.575   7.294   7.328
87981SOL     OW65781   9.922   8.455   0.093
87981SOL    HW165782   9.897   8.437   0.002
87981SOL    HW265783   9.845   8.431   0.144
87982SOL     OW65784   4.805   3.329  12.100
87982SOL    HW165785   4.890   3.357  12.132
87982SOL    HW265786   4.745   3.346  12.173
87983SOL     OW65787   9.114   5.917  10.048
87983SOL    HW165788   9.125   5.898  10.141
87983SOL    HW265789   9.157   5.844  10.004
87984SOL     OW65790   2.699  10.084   9.566
87984SOL    HW165791   2.710   9.989   9.571
87984SOL    HW265792   2.626  10.096   9.505
87985SOL     OW65793   6.442   4.265   0.208
87985SOL    HW165794   6.371   4.329   0.205
87985SOL    HW265795   6.512   4.309   0.256
87986SOL     OW65796   4.545  10.338   6.328
87986SOL    HW165797   4.596  10.317   6.251
87986SOL    HW265798   4.524  10.431   6.319
87987SOL     OW65799  11.046   8.896  10.220
87987SOL    HW165800  11.038   8.901  10.125
87987SOL    HW265801  11.072   8.985  10.247
87988SOL     OW65802   5.062  13.993  14.237
87988SOL    HW165803   5.098  14.070  14.281
87988SOL    HW265804   5.136  13.932  14.231
87989SOL     OW65805  12.354  10.765   6.287
87989SOL    HW165806  12.387  10.852   6.310
87989SOL    HW265807  12.381  10.752   6.197
87990SOL     OW65808   8.010  11.234   3.774
87990SOL    HW165809   8.000  11.304   3.839
87990SOL    HW265810   8.012  11.281   3.690
87991SOL     OW65811   3.856  11.396   7.262
87991SOL    HW165812   3.846  11.439   7.177
87991SOL    HW265813   3.767  11.391   7.297
87992SOL     OW65814  12.989   3.571   0.134
87992SOL    HW165815  12.922   3.565   0.066
87992SOL    HW265816  13.010   3.665   0.138
87993SOL     OW65817  14.667   9.192  13.618
87993SOL    HW165818  14.602   9.256  13.648
87993SOL    HW265819  14.615   9.113  13.600
87994SOL     OW65820   9.672  11.703   5.829
87994SOL    HW165821   9.651  11.711   5.922
87994SOL    HW265822   9.741  11.767   5.814
87995SOL     OW65823   4.465  10.377   1.396
87995SOL    HW165824   4.431  10.301   1.442
87995SOL    HW265825   4.469  10.350   1.304
87996SOL     OW65826   8.965   5.413   8.040
87996SOL    HW165827   8.920   5.386   7.960
87996SOL    HW265828   9.051   5.371   8.033
87997SOL     OW65829   9.707   8.648   5.850
87997SOL    HW165830   9.798   8.641   5.822
87997SOL    HW265831   9.659   8.668   5.769
87998SOL     OW65832   5.115   5.382   4.486
87998SOL    HW165833   5.143   5.291   4.493
87998SOL    HW265834   5.197   5.431   4.474
87999SOL     OW65835   5.397   9.889   8.548
87999SOL    HW165836   5.448   9.944   8.607
87999SOL    HW265837   5.349   9.951   8.493
88000SOL     OW65838   7.273   4.207   2.382
88000SOL    HW165839   7.255   4.255   2.463
88000SOL    HW265840   7.347   4.150   2.403
88001SOL     OW65841  11.314  12.987   8.546
88001SOL    HW165842  11.308  12.892   8.551
88001SOL    HW265843  11.382  13.003   8.481
88002SOL     OW65844   9.809   2.824   1.081
88002SOL    HW165845   9.875   2.814   1.012
88002SOL    HW265846   9.850   2.882   1.145
88003SOL     OW65847  14.065   0.540   5.349
88003SOL    HW165848  14.022   0.542   5.263
88003SOL    HW265849  14.157   0.520   5.330
88004SOL     OW65850   9.908   5.060   0.201
88004SOL    HW165851   9.994   5.048   0.241
88004SOL    HW265852   9.848   5.066   0.275
88005SOL     OW65853   5.234  13.302   0.261
88005SOL    HW165854   5.165  13.354   0.220
88005SOL    HW265855   5.189  13.251   0.328
88006SOL     OW65856   3.394   2.415   9.508
88006SOL    HW165857   3.417   2.336   9.460
88006SOL    HW265858   3.418   2.396   9.599
88007SOL     OW65859   5.951  14.808   6.767
88007SOL    HW165860   5.947  14.784   6.860
88007SOL    HW265861   5.890   0.002   6.759
88008SOL     OW65862   0.842   8.812   5.978
88008SOL    HW165863   0.903   8.774   5.914
88008SOL    HW265864   0.780   8.742   5.995
88009SOL     OW65865   0.864  13.553  12.928
88009SOL    HW165866   0.818  13.472  12.907
88009SOL    HW265867   0.901  13.538  13.015
88010SOL     OW65868   4.152   2.213  14.681
88010SOL    HW165869   4.123   2.265  14.606
88010SOL    HW265870   4.234   2.172  14.653
88011SOL     OW65871  14.028   0.684   5.593
88011SOL    HW165872  14.036   0.664   5.499
88011SOL    HW265873  14.008   0.599   5.633
88012SOL     OW65874  13.017  12.880   3.527
88012SOL    HW165875  13.036  12.904   3.617
88012SOL    HW265876  12.931  12.837   3.531
88013SOL     OW65877   3.878  10.074   4.757
88013SOL    HW165878   3.840  10.157   4.727
88013SOL    HW265879   3.871  10.015   4.682
88014SOL     OW65880   1.674  14.082   7.035
88014SOL    HW165881   1.708  13.995   7.014
88014SOL    HW265882   1.689  14.133   6.955
88015SOL     OW65883  11.634   7.176   5.707
88015SOL    HW165884  11.728   7.162   5.718
88015SOL    HW265885  11.627   7.242   5.638
88016SOL     OW65886   1.981   0.375   6.786
88016SOL    HW165887   1.927   0.356   6.710
88016SOL    HW265888   1.957   0.465   6.810
88017SOL     OW65889   4.066   2.702   4.630
88017SOL    HW165890   4.082   2.625   4.575
88017SOL    HW265891   4.065   2.776   4.568
88018SOL     OW65892   9.256   9.917  12.590
88018SOL    HW165893   9.289   9.955  12.671
88018SOL    HW265894   9.177   9.870  12.616
88019SOL     OW65895   7.581   8.403   1.733
88019SOL    HW165896   7.494   8.370   1.756
88019SOL    HW265897   7.578   8.496   1.756
88020SOL     OW65898  13.080  10.162   1.507
88020SOL    HW165899  13.007  10.219   1.482
88020SOL    HW265900  13.083  10.096   1.438
88021SOL     OW65901   4.542   7.137  10.717
88021SOL    HW165902   4.560   7.191  10.793
88021SOL    HW265903   4.610   7.069  10.719
88022SOL     OW65904   3.196   4.983   9.762
88022SOL    HW165905   3.236   5.069   9.755
88022SOL    HW265906   3.268   4.921   9.750
88023SOL     OW65907  10.005   6.740   3.232
88023SOL    HW165908   9.911   6.749   3.217
88023SOL    HW265909  10.018   6.646   3.248
88024SOL     OW65910  11.147   7.262   7.090
88024SOL    HW165911  11.060   7.299   7.079
88024SOL    HW265912  11.205   7.325   7.047
88025SOL     OW65913  10.934   1.959  12.506
88025SOL    HW165914  10.944   2.034  12.447
88025SOL    HW265915  10.876   1.899  12.459
88026SOL     OW65916   6.948   9.985  13.990
88026SOL    HW165917   6.909   9.950  14.071
88026SOL    HW265918   7.022  10.038  14.020
88027SOL     OW65919   8.654  10.620  11.926
88027SOL    HW165920   8.668  10.651  12.015
88027SOL    HW265921   8.573  10.569  11.931
88028SOL     OW65922   1.555  12.078   1.921
88028SOL    HW165923   1.549  12.130   1.840
88028SOL    HW265924   1.538  11.988   1.893
88029SOL     OW65925  10.577  10.202   4.188
88029SOL    HW165926  10.642  10.134   4.171
88029SOL    HW265927  10.584  10.261   4.113
88030SOL     OW65928   5.322  10.302   4.005
88030SOL    HW165929   5.270  10.299   3.925
88030SOL    HW265930   5.412  10.310   3.975
88031SOL     OW65931   9.384   5.789   8.260
88031SOL    HW165932   9.404   5.871   8.214
88031SOL    HW265933   9.289   5.791   8.272
88032SOL     OW65934   8.684   0.834   7.361
88032SOL    HW165935   8.666   0.886   7.439
88032SOL    HW265936   8.774   0.803   7.372
88033SOL     OW65937   4.702   0.224   8.102
88033SOL    HW165938   4.682   0.292   8.038
88033SOL    HW265939   4.742   0.154   8.051
88034SOL     OW65940   8.941  13.714   9.172
88034SOL    HW165941   8.944  13.651   9.100
88034SOL    HW265942   8.965  13.663   9.249
88035SOL     OW65943   7.571   1.083   9.726
88035SOL    HW165944   7.484   1.042   9.717
88035SOL    HW265945   7.608   1.077   9.638
88036SOL     OW65946   2.825   6.640  11.252
88036SOL    HW165947   2.834   6.576  11.181
88036SOL    HW265948   2.803   6.722  11.208
88037SOL     OW65949   3.995   2.710   9.885
88037SOL    HW165950   4.042   2.767   9.824
88037SOL    HW265951   3.992   2.759   9.967
88038SOL     OW65952   6.762  10.563   7.742
88038SOL    HW165953   6.815  10.642   7.757
88038SOL    HW265954   6.824  10.498   7.709
88039SOL     OW65955   1.828   2.394   7.145
88039SOL    HW165956   1.811   2.376   7.238
88039SOL    HW265957   1.922   2.380   7.135
88040SOL     OW65958   0.857   2.360   7.024
88040SOL    HW165959   0.868   2.333   7.115
88040SOL    HW265960   0.894   2.448   7.021
88041SOL     OW65961   5.332  10.061  11.662
88041SOL    HW165962   5.314  10.116  11.585
88041SOL    HW265963   5.412  10.014  11.639
88042SOL     OW65964   3.367  14.092  10.199
88042SOL    HW165965   3.459  14.089  10.223
88042SOL    HW265966   3.363  14.051  10.113
88043SOL     OW65967   5.145   7.411  12.505
88043SOL    HW165968   5.144   7.316  12.521
88043SOL    HW265969   5.112   7.449  12.587
88044SOL     OW65970   9.522   1.746   5.605
88044SOL    HW165971   9.599   1.693   5.622
88044SOL    HW265972   9.532   1.775   5.514
88045SOL     OW65973   7.801   6.011   1.869
88045SOL    HW165974   7.854   6.051   1.799
88045SOL    HW265975   7.714   6.004   1.832
88046SOL     OW65976   8.923  13.193   6.939
88046SOL    HW165977   9.007  13.147   6.939
88046SOL    HW265978   8.908  13.216   6.848
88047SOL     OW65979   5.515  12.774   0.485
88047SOL    HW165980   5.481  12.685   0.476
88047SOL    HW265981   5.493  12.800   0.574
88048SOL     OW65982   2.545   1.557   7.972
88048SOL    HW165983   2.601   1.577   7.897
88048SOL    HW265984   2.575   1.617   8.040
88049SOL     OW65985  11.171  13.957  11.075
88049SOL    HW165986  11.233  13.890  11.045
88049SOL    HW265987  11.204  13.981  11.162
88050SOL     OW65988   0.716   4.301  14.049
88050SOL    HW165989   0.784   4.314  13.983
88050SOL    HW265990   0.653   4.243  14.007
88051SOL     OW65991   9.423   1.671   0.703
88051SOL    HW165992   9.362   1.597   0.706
88051SOL    HW265993   9.371   1.744   0.671
88052SOL     OW65994   5.986   0.062   1.519
88052SOL    HW165995   6.037   0.059   1.600
88052SOL    HW265996   5.913   0.120   1.539
88053SOL     OW65997   0.922  14.739   7.262
88053SOL    HW165998   0.920  14.670   7.196
88053SOL    HW265999   0.859  14.710   7.328
88054SOL     OW66000   2.387  11.460   8.597
88054SOL    HW166001   2.458  11.413   8.641
88054SOL    HW266002   2.308  11.411   8.621
88055SOL     OW66003   1.309   2.745   1.211
88055SOL    HW166004   1.321   2.664   1.261
88055SOL    HW266005   1.342   2.813   1.269
88056SOL     OW66006   5.526   2.923   5.864
88056SOL    HW166007   5.608   2.951   5.823
88056SOL    HW266008   5.534   2.950   5.955
88057SOL     OW66009  11.169  13.315   8.404
88057SOL    HW166010  11.198  13.248   8.465
88057SOL    HW266011  11.127  13.266   8.333
88058SOL     OW66012   8.419   8.210   5.039
88058SOL    HW166013   8.328   8.218   5.068
88058SOL    HW266014   8.433   8.288   4.985
88059SOL     OW66015   1.022  13.566  13.776
88059SOL    HW166016   1.084  13.628  13.815
88059SOL    HW266017   0.942  13.578  13.828
88060SOL     OW66018   6.741  11.900  13.144
88060SOL    HW166019   6.772  11.900  13.234
88060SOL    HW266020   6.700  11.814  13.133
88061SOL     OW66021   0.939  14.421   4.809
88061SOL    HW166022   0.889  14.503   4.807
88061SOL    HW266023   1.030  14.448   4.801
88062SOL     OW66024   6.802   5.941  14.036
88062SOL    HW166025   6.732   5.948  13.972
88062SOL    HW266026   6.787   5.857  14.079
88063SOL     OW66027   3.799   9.903   3.468
88063SOL    HW166028   3.784   9.964   3.540
88063SOL    HW266029   3.712   9.870   3.446
88064SOL     OW66030   7.576  14.071  12.371
88064SOL    HW166031   7.618  13.995  12.330
88064SOL    HW266032   7.612  14.074  12.459
88065SOL     OW66033   6.581   9.618   3.532
88065SOL    HW166034   6.625   9.533   3.533
88065SOL    HW266035   6.600   9.657   3.617
88066SOL     OW66036   7.425  12.093  13.978
88066SOL    HW166037   7.431  12.001  13.954
88066SOL    HW266038   7.483  12.102  14.054
88067SOL     OW66039   9.518   3.174   1.545
88067SOL    HW166040   9.525   3.081   1.566
88067SOL    HW266041   9.442   3.204   1.596
88068SOL     OW66042  11.862   3.869   7.747
88068SOL    HW166043  11.768   3.872   7.729
88068SOL    HW266044  11.901   3.834   7.667
88069SOL     OW66045   3.694   4.178   8.230
88069SOL    HW166046   3.688   4.272   8.213
88069SOL    HW266047   3.747   4.173   8.310
88070SOL     OW66048  11.136   7.169  12.446
88070SOL    HW166049  11.198   7.122  12.502
88070SOL    HW266050  11.185   7.244  12.414
88071SOL     OW66051   6.497   7.022  14.007
88071SOL    HW166052   6.561   7.093  14.009
88071SOL    HW266053   6.526   6.962  14.076
88072SOL     OW66054   0.512   8.454   6.979
88072SOL    HW166055   0.590   8.505   6.958
88072SOL    HW266056   0.546   8.374   7.020
88073SOL     OW66057   0.954   6.723  11.597
88073SOL    HW166058   1.004   6.764  11.667
88073SOL    HW266059   0.863   6.729  11.626
88074SOL     OW66060  12.841  12.913   6.189
88074SOL    HW166061  12.907  12.865   6.239
88074SOL    HW266062  12.886  12.992   6.158
88075SOL     OW66063   6.287  12.569   4.158
88075SOL    HW166064   6.231  12.529   4.225
88075SOL    HW266065   6.270  12.663   4.165
88076SOL     OW66066   5.892   0.257  11.847
88076SOL    HW166067   5.956   0.319  11.814
88076SOL    HW266068   5.836   0.308  11.905
88077SOL     OW66069  10.667  14.648  13.998
88077SOL    HW166070  10.653  14.722  14.057
88077SOL    HW266071  10.666  14.686  13.911
88078SOL     OW66072   6.072   3.503  10.206
88078SOL    HW166073   6.006   3.513  10.137
88078SOL    HW266074   6.150   3.546  10.171
88079SOL     OW66075   2.942  10.697   9.851
88079SOL    HW166076   2.905  10.748   9.924
88079SOL    HW266077   2.930  10.753   9.775
88080SOL     OW66078  12.073   1.216   0.363
88080SOL    HW166079  12.019   1.242   0.437
88080SOL    HW266080  12.142   1.162   0.401
88081SOL     OW66081   2.150  14.736   6.438
88081SOL    HW166082   2.120  14.736   6.347
88081SOL    HW266083   2.109  14.813   6.477
88082SOL     OW66084  13.264   3.726  10.671
88082SOL    HW166085  13.322   3.752  10.598
88082SOL    HW266086  13.183   3.773  10.654
88083SOL     OW66087   1.908  12.017   5.331
88083SOL    HW166088   1.847  11.977   5.393
88083SOL    HW266089   1.992  12.016   5.376
88084SOL     OW66090   9.706   8.567   4.341
88084SOL    HW166091   9.737   8.647   4.382
88084SOL    HW266092   9.630   8.594   4.289
88085SOL     OW66093   4.724   1.847  10.555
88085SOL    HW166094   4.687   1.898  10.482
88085SOL    HW266095   4.685   1.760  10.545
88086SOL     OW66096   4.737   9.386  11.985
88086SOL    HW166097   4.805   9.324  12.010
88086SOL    HW266098   4.665   9.370  12.046
88087SOL     OW66099  13.977  10.543   0.505
88087SOL    HW166100  13.947  10.505   0.423
88087SOL    HW266101  13.897  10.568   0.551
88088SOL     OW66102   6.016   9.853  13.164
88088SOL    HW166103   5.999   9.926  13.104
88088SOL    HW266104   5.940   9.796  13.154
88089SOL     OW66105   0.219   3.607   6.466
88089SOL    HW166106   0.287   3.636   6.406
88089SOL    HW266107   0.193   3.520   6.435
88090SOL     OW66108  10.229  11.372   7.342
88090SOL    HW166109  10.257  11.453   7.385
88090SOL    HW266110  10.309  11.338   7.300
88091SOL     OW66111   4.396  14.498   6.540
88091SOL    HW166112   4.473  14.442   6.532
88091SOL    HW266113   4.329  14.442   6.578
88092SOL     OW66114   5.733   1.894  14.092
88092SOL    HW166115   5.699   1.972  14.050
88092SOL    HW266116   5.797   1.926  14.156
88093SOL     OW66117   6.608   9.243   0.822
88093SOL    HW166118   6.515   9.239   0.846
88093SOL    HW266119   6.653   9.197   0.893
88094SOL     OW66120  10.958   0.448   9.090
88094SOL    HW166121  10.873   0.416   9.120
88094SOL    HW266122  11.018   0.376   9.107
88095SOL     OW66123  12.958   7.876  14.623
88095SOL    HW166124  12.939   7.789  14.589
88095SOL    HW266125  13.039   7.902  14.580
88096SOL     OW66126   0.664   9.257   1.053
88096SOL    HW166127   0.617   9.311   1.116
88096SOL    HW266128   0.597   9.197   1.020
88097SOL     OW66129   5.861  14.795  12.630
88097SOL    HW166130   5.893  14.876  12.670
88097SOL    HW266131   5.823  14.821  12.547
88098SOL     OW66132  12.802   2.479   7.023
88098SOL    HW166133  12.872   2.437   7.074
88098SOL    HW266134  12.836   2.566   7.002
88099SOL     OW66135   6.330   9.523  10.486
88099SOL    HW166136   6.359   9.432  10.477
88099SOL    HW266137   6.398   9.565  10.538
88100SOL     OW66138   1.261   5.534   7.588
88100SOL    HW166139   1.188   5.515   7.529
88100SOL    HW266140   1.334   5.482   7.553
88101SOL     OW66141   0.522  13.965  10.006
88101SOL    HW166142   0.614  13.938  10.008
88101SOL    HW266143   0.508  13.998   9.918
88102SOL     OW66144  12.025   5.006   1.656
88102SOL    HW166145  12.097   4.956   1.694
88102SOL    HW266146  11.995   4.954   1.582
88103SOL     OW66147  14.607   0.269   9.837
88103SOL    HW166148  14.637   0.185   9.802
88103SOL    HW266149  14.659   0.334   9.790
88104SOL     OW66150  13.528   0.847   9.191
88104SOL    HW166151  13.562   0.877   9.275
88104SOL    HW266152  13.580   0.895   9.126
88105SOL     OW66153  11.543   2.398   7.202
88105SOL    HW166154  11.450   2.382   7.186
88105SOL    HW266155  11.560   2.360   7.288
88106SOL     OW66156  11.178   3.567  11.273
88106SOL    HW166157  11.234   3.499  11.310
88106SOL    HW266158  11.095   3.523  11.256
88107SOL     OW66159   8.251   5.973   3.861
88107SOL    HW166160   8.188   5.902   3.853
88107SOL    HW266161   8.198   6.051   3.873
88108SOL     OW66162   5.045   8.684  14.578
88108SOL    HW166163   5.013   8.636  14.654
88108SOL    HW266164   5.126   8.726  14.608
88109SOL     OW66165   4.053  11.098  14.162
88109SOL    HW166166   3.992  11.036  14.122
88109SOL    HW266167   4.102  11.134  14.088
88110SOL     OW66168   8.630  11.702   9.457
88110SOL    HW166169   8.636  11.722   9.550
88110SOL    HW266170   8.576  11.623   9.452
88111SOL     OW66171  13.331   4.367   7.597
88111SOL    HW166172  13.350   4.353   7.690
88111SOL    HW266173  13.409   4.334   7.551
88112SOL     OW66174  13.624  14.144   5.364
88112SOL    HW166175  13.582  14.177   5.285
88112SOL    HW266176  13.662  14.060   5.339
88113SOL     OW66177  13.816   5.425  14.537
88113SOL    HW166178  13.833   5.374  14.458
88113SOL    HW266179  13.896   5.475  14.552
88114SOL     OW66180   8.940   2.511  14.862
88114SOL    HW166181   8.970   2.589   0.029
88114SOL    HW266182   9.011   2.491  14.801
88115SOL     OW66183   5.772   5.727  10.726
88115SOL    HW166184   5.848   5.710  10.670
88115SOL    HW266185   5.807   5.728  10.815
88116SOL     OW66186   6.508   2.492   8.851
88116SOL    HW166187   6.588   2.541   8.835
88116SOL    HW266188   6.536   2.400   8.856
88117SOL     OW66189  10.750   6.610   2.730
88117SOL    HW166190  10.788   6.548   2.792
88117SOL    HW266191  10.681   6.561   2.686
88118SOL     OW66192   9.399   6.127   4.978
88118SOL    HW166193   9.327   6.150   5.038
88118SOL    HW266194   9.399   6.031   4.978
88119SOL     OW66195   0.661  12.570  10.302
88119SOL    HW166196   0.580  12.562  10.251
88119SOL    HW266197   0.654  12.504  10.370
88120SOL     OW66198   8.479   0.645   6.056
88120SOL    HW166199   8.451   0.608   6.140
88120SOL    HW266200   8.534   0.578   6.018
88121SOL     OW66201  13.781   9.387   3.036
88121SOL    HW166202  13.692   9.359   3.055
88121SOL    HW266203  13.801   9.349   2.951
88122SOL     OW66204   6.872   2.949   2.241
88122SOL    HW166205   6.960   2.922   2.267
88122SOL    HW266206   6.814   2.888   2.286
88123SOL     OW66207   9.104   0.628  10.815
88123SOL    HW166208   9.141   0.553  10.769
88123SOL    HW266209   9.160   0.640  10.892
88124SOL     OW66210   5.338   8.285   8.776
88124SOL    HW166211   5.371   8.255   8.860
88124SOL    HW266212   5.404   8.257   8.712
88125SOL     OW66213   6.551   2.578   4.216
88125SOL    HW166214   6.583   2.669   4.214
88125SOL    HW266215   6.624   2.528   4.251
88126SOL     OW66216   7.733   7.747   6.002
88126SOL    HW166217   7.811   7.753   6.057
88126SOL    HW266218   7.690   7.666   6.030
88127SOL     OW66219   1.225   3.285   8.142
88127SOL    HW166220   1.308   3.250   8.175
88127SOL    HW266221   1.186   3.213   8.094
88128SOL     OW66222   1.153   2.935  10.648
88128SOL    HW166223   1.185   2.958  10.560
88128SOL    HW266224   1.119   3.018  10.683
88129SOL     OW66225   1.498  14.251  11.408
88129SOL    HW166226   1.475  14.164  11.376
88129SOL    HW266227   1.593  14.250  11.416
88130SOL     OW66228   2.186   1.126   3.353
88130SOL    HW166229   2.259   1.187   3.349
88130SOL    HW266230   2.111   1.179   3.379
88131SOL     OW66231  10.481   7.031  13.160
88131SOL    HW166232  10.549   7.081  13.204
88131SOL    HW266233  10.400   7.056  13.204
88132SOL     OW66234   8.435  11.786  13.994
88132SOL    HW166235   8.391  11.870  14.006
88132SOL    HW266236   8.511  11.806  13.939
88133SOL     OW66237   8.939   1.103   7.554
88133SOL    HW166238   8.885   1.182   7.547
88133SOL    HW266239   9.024   1.135   7.582
88134SOL     OW66240   0.295   6.351   5.571
88134SOL    HW166241   0.315   6.387   5.658
88134SOL    HW266242   0.216   6.396   5.544
88135SOL     OW66243  10.233  13.398   4.601
88135SOL    HW166244  10.251  13.390   4.694
88135SOL    HW266245  10.201  13.312   4.575
88136SOL     OW66246   2.134   9.751   9.152
88136SOL    HW166247   2.175   9.671   9.119
88136SOL    HW266248   2.162   9.820   9.092
88137SOL     OW66249   7.618   7.864   0.128
88137SOL    HW166250   7.565   7.864   0.208
88137SOL    HW266251   7.553   7.859   0.057
88138SOL     OW66252   6.907   7.969   6.079
88138SOL    HW166253   6.924   7.882   6.041
88138SOL    HW266254   6.944   7.964   6.167
88139SOL     OW66255  10.042  10.267   5.115
88139SOL    HW166256   9.980  10.216   5.063
88139SOL    HW266257   9.994  10.290   5.195
88140SOL     OW66258   4.543   7.633   6.575
88140SOL    HW166259   4.550   7.614   6.481
88140SOL    HW266260   4.569   7.725   6.583
88141SOL     OW66261  12.676   9.093  11.074
88141SOL    HW166262  12.622   9.056  11.144
88141SOL    HW266263  12.740   9.148  11.119
88142SOL     OW66264   0.338  10.149   6.132
88142SOL    HW166265   0.371  10.059   6.130
88142SOL    HW266266   0.338  10.173   6.225
88143SOL     OW66267  13.633  13.063   2.679
88143SOL    HW166268  13.589  13.044   2.596
88143SOL    HW266269  13.708  13.116   2.655
88144SOL     OW66270  13.230   8.618   8.022
88144SOL    HW166271  13.271   8.557   7.961
88144SOL    HW266272  13.150   8.646   7.978
88145SOL     OW66273   3.326  12.118  13.578
88145SOL    HW166274   3.324  12.107  13.673
88145SOL    HW266275   3.292  12.206  13.563
88146SOL     OW66276   7.788  14.734  12.238
88146SOL    HW166277   7.845  14.671  12.281
88146SOL    HW266278   7.847  14.803  12.207
88147SOL     OW66279  11.204   0.298  12.690
88147SOL    HW166280  11.145   0.331  12.757
88147SOL    HW266281  11.272   0.365  12.683
88148SOL     OW66282   8.465   9.415   1.475
88148SOL    HW166283   8.466   9.440   1.567
88148SOL    HW266284   8.530   9.472   1.434
88149SOL     OW66285  10.796   5.603   1.485
88149SOL    HW166286  10.736   5.541   1.443
88149SOL    HW266287  10.783   5.589   1.579
88150SOL     OW66288  12.052  13.890   7.865
88150SOL    HW166289  12.119  13.938   7.817
88150SOL    HW266290  12.021  13.951   7.932
88151SOL     OW66291   8.614   3.520  12.749
88151SOL    HW166292   8.558   3.554  12.819
88151SOL    HW266293   8.599   3.580  12.676
88152SOL     OW66294   0.151   2.209   5.384
88152SOL    HW166295   0.229   2.186   5.434
88152SOL    HW266296   0.184   2.229   5.296
88153SOL     OW66297   3.784   6.328   6.891
88153SOL    HW166298   3.853   6.274   6.929
88153SOL    HW266299   3.776   6.403   6.950
88154SOL     OW66300   8.825   2.028   8.875
88154SOL    HW166301   8.859   1.969   8.809
88154SOL    HW266302   8.736   1.996   8.891
88155SOL     OW66303  13.536   4.366   1.471
88155SOL    HW166304  13.539   4.387   1.564
88155SOL    HW266305  13.538   4.452   1.427
88156SOL     OW66306   0.925   3.993  11.655
88156SOL    HW166307   0.962   3.921  11.603
88156SOL    HW266308   1.002   4.038  11.691
88157SOL     OW66309   3.145   6.645   7.587
88157SOL    HW166310   3.240   6.648   7.582
88157SOL    HW266311   3.115   6.652   7.497
88158SOL     OW66312   0.702  13.716   2.172
88158SOL    HW166313   0.707  13.800   2.126
88158SOL    HW266314   0.794  13.691   2.184
88159SOL     OW66315   2.289   4.649  14.426
88159SOL    HW166316   2.230   4.696  14.485
88159SOL    HW266317   2.269   4.684  14.339
88160SOL     OW66318  13.214   7.513   6.238
88160SOL    HW166319  13.247   7.461   6.311
88160SOL    HW266320  13.181   7.448   6.176
88161SOL     OW66321  14.453   9.288   0.522
88161SOL    HW166322  14.490   9.351   0.459
88161SOL    HW266323  14.478   9.322   0.607
88162SOL     OW66324   8.058  13.801   8.884
88162SOL    HW166325   8.138  13.840   8.849
88162SOL    HW266326   8.052  13.836   8.973
88163SOL     OW66327   6.664   9.154   7.196
88163SOL    HW166328   6.730   9.119   7.255
88163SOL    HW266329   6.603   9.201   7.253
88164SOL     OW66330   5.265   6.499   1.918
88164SOL    HW166331   5.347   6.542   1.896
88164SOL    HW266332   5.285   6.449   1.997
88165SOL     OW66333  10.303   2.360  12.695
88165SOL    HW166334  10.276   2.331  12.782
88165SOL    HW266335  10.222   2.390  12.654
88166SOL     OW66336   1.696   4.311   9.139
88166SOL    HW166337   1.645   4.268   9.207
88166SOL    HW266338   1.660   4.277   9.057
88167SOL     OW66339   0.967   6.205   5.108
88167SOL    HW166340   1.009   6.126   5.140
88167SOL    HW266341   0.996   6.213   5.017
88168SOL     OW66342   8.537   9.081   0.321
88168SOL    HW166343   8.594   9.017   0.278
88168SOL    HW266344   8.461   9.030   0.350
88169SOL     OW66345   6.361   1.377   5.625
88169SOL    HW166346   6.315   1.408   5.704
88169SOL    HW266347   6.435   1.326   5.659
88170SOL     OW66348   6.918   4.522   3.573
88170SOL    HW166349   6.902   4.443   3.522
88170SOL    HW266350   7.004   4.507   3.613
88171SOL     OW66351  13.993  14.778   6.622
88171SOL    HW166352  14.037  14.817   6.546
88171SOL    HW266353  14.059  14.721   6.661
88172SOL     OW66354   1.878   9.592   0.235
88172SOL    HW166355   1.894   9.637   0.152
88172SOL    HW266356   1.794   9.627   0.266
88173SOL     OW66357  12.929   1.402   0.399
88173SOL    HW166358  12.990   1.444   0.338
88173SOL    HW266359  12.875   1.346   0.343
88174SOL     OW66360  13.144   3.679  14.701
88174SOL    HW166361  13.048   3.680  14.705
88174SOL    HW266362  13.172   3.715  14.785
88175SOL     OW66363   0.065   5.667   1.464
88175SOL    HW166364   0.136   5.714   1.507
88175SOL    HW266365   0.083   5.575   1.484
88176SOL     OW66366   4.259   3.450   0.012
88176SOL    HW166367   4.230   3.507  14.821
88176SOL    HW266368   4.184   3.445   0.071
88177SOL     OW66369   4.301   9.479   2.350
88177SOL    HW166370   4.320   9.557   2.298
88177SOL    HW266371   4.387   9.447   2.377
88178SOL     OW66372   8.209   5.366  12.063
88178SOL    HW166373   8.150   5.411  12.003
88178SOL    HW266374   8.297   5.392  12.035
88179SOL     OW66375   5.082   4.215  13.924
88179SOL    HW166376   5.060   4.191  13.835
88179SOL    HW266377   5.008   4.184  13.977
88180SOL     OW66378   8.281   8.888  11.683
88180SOL    HW166379   8.377   8.884  11.687
88180SOL    HW266380   8.258   8.840  11.603
88181SOL     OW66381   4.835   7.447  10.503
88181SOL    HW166382   4.811   7.355  10.492
88181SOL    HW266383   4.775   7.480  10.570
88182SOL     OW66384  10.697   1.051   3.325
88182SOL    HW166385  10.713   0.959   3.306
88182SOL    HW266386  10.782   1.093   3.313
88183SOL     OW66387   2.573   8.164  10.484
88183SOL    HW166388   2.574   8.186  10.390
88183SOL    HW266389   2.510   8.093  10.492
88184SOL     OW66390   1.725  12.797  11.311
88184SOL    HW166391   1.707  12.739  11.236
88184SOL    HW266392   1.759  12.877  11.271
88185SOL     OW66393   7.650   3.987  11.955
88185SOL    HW166394   7.704   4.048  12.006
88185SOL    HW266395   7.660   3.903  12.000
88186SOL     OW66396   2.611   4.786   4.544
88186SOL    HW166397   2.523   4.804   4.511
88186SOL    HW266398   2.662   4.863   4.519
88187SOL     OW66399  13.041  10.831   1.579
88187SOL    HW166400  12.986  10.910   1.581
88187SOL    HW266401  13.016  10.787   1.497
88188SOL     OW66402   6.349   4.781   6.901
88188SOL    HW166403   6.419   4.754   6.842
88188SOL    HW266404   6.275   4.801   6.843
88189SOL     OW66405   5.643   4.664   3.418
88189SOL    HW166406   5.653   4.749   3.460
88189SOL    HW266407   5.697   4.605   3.471
88190SOL     OW66408   4.212   9.717   2.979
88190SOL    HW166409   4.228   9.811   2.970
88190SOL    HW266410   4.292   9.682   3.017
88191SOL     OW66411   0.311   5.987   3.136
88191SOL    HW166412   0.290   6.029   3.219
88191SOL    HW266413   0.226   5.973   3.094
88192SOL     OW66414   9.653   5.001  13.651
88192SOL    HW166415   9.735   5.052  13.646
88192SOL    HW266416   9.658   4.958  13.736
88193SOL     OW66417   6.203  11.823  10.309
88193SOL    HW166418   6.166  11.802  10.224
88193SOL    HW266419   6.257  11.900  10.294
88194SOL     OW66420   8.457   9.453  13.760
88194SOL    HW166421   8.531   9.500  13.722
88194SOL    HW266422   8.380   9.490  13.717
88195SOL     OW66423   5.286  14.427   4.272
88195SOL    HW166424   5.262  14.518   4.253
88195SOL    HW266425   5.304  14.427   4.366
88196SOL     OW66426   7.354   2.860   9.718
88196SOL    HW166427   7.331   2.944   9.678
88196SOL    HW266428   7.393   2.884   9.802
88197SOL     OW66429   4.813   3.769   7.111
88197SOL    HW166430   4.749   3.718   7.061
88197SOL    HW266431   4.867   3.704   7.156
88198SOL     OW66432   8.929   1.124  12.979
88198SOL    HW166433   8.987   1.172  12.920
88198SOL    HW266434   8.968   1.037  12.987
88199SOL     OW66435   5.989   5.476   2.865
88199SOL    HW166436   5.938   5.503   2.788
88199SOL    HW266437   6.080   5.480   2.836
88200SOL     OW66438   0.570   1.889   6.351
88200SOL    HW166439   0.544   1.870   6.442
88200SOL    HW266440   0.607   1.977   6.355
88201SOL     OW66441   1.364  11.046   8.702
88201SOL    HW166442   1.384  10.961   8.663
88201SOL    HW266443   1.302  11.026   8.773
88202SOL     OW66444  12.009  12.462   4.171
88202SOL    HW166445  11.999  12.366   4.177
88202SOL    HW266446  12.090  12.480   4.219
88203SOL     OW66447   6.839   1.065  13.369
88203SOL    HW166448   6.847   1.156  13.340
88203SOL    HW266449   6.758   1.063  13.421
88204SOL     OW66450  13.506  12.819   6.758
88204SOL    HW166451  13.498  12.804   6.852
88204SOL    HW266452  13.576  12.884   6.749
88205SOL     OW66453   1.061   7.908  14.209
88205SOL    HW166454   1.038   7.944  14.295
88205SOL    HW266455   1.035   7.816  14.214
88206SOL     OW66456   3.471   2.258  13.626
88206SOL    HW166457   3.438   2.248  13.536
88206SOL    HW266458   3.481   2.169  13.658
88207SOL     OW66459   4.560   9.042   5.801
88207SOL    HW166460   4.537   8.951   5.782
88207SOL    HW266461   4.547   9.088   5.718
88208SOL     OW66462   2.396   9.255  14.780
88208SOL    HW166463   2.469   9.305  14.817
88208SOL    HW266464   2.377   9.187  14.845
88209SOL     OW66465   0.954   3.725  13.637
88209SOL    HW166466   0.926   3.722  13.546
88209SOL    HW266467   1.020   3.656  13.644
88210SOL     OW66468   4.065   2.178   8.914
88210SOL    HW166469   3.998   2.232   8.956
88210SOL    HW266470   4.028   2.089   8.914
88211SOL     OW66471  11.188  14.861   9.783
88211SOL    HW166472  11.132  14.796   9.825
88211SOL    HW266473  11.264  14.811   9.753
88212SOL     OW66474   6.582   3.367   1.843
88212SOL    HW166475   6.505   3.414   1.875
88212SOL    HW266476   6.614   3.319   1.919
88213SOL     OW66477   6.094   4.852   9.174
88213SOL    HW166478   6.163   4.786   9.181
88213SOL    HW266479   6.078   4.880   9.264
88214SOL     OW66480   8.422   5.721   3.561
88214SOL    HW166481   8.474   5.641   3.557
88214SOL    HW266482   8.349   5.699   3.618
88215SOL     OW66483   9.810   3.505   1.154
88215SOL    HW166484   9.838   3.422   1.116
88215SOL    HW266485   9.750   3.481   1.224
88216SOL     OW66486   8.893  10.328  12.904
88216SOL    HW166487   8.947  10.337  12.982
88216SOL    HW266488   8.954  10.300  12.836
88217SOL     OW66489  14.835   7.998  12.209
88217SOL    HW166490  14.783   7.972  12.285
88217SOL    HW266491   0.021   7.929  12.200
88218SOL     OW66492  10.815   2.349  12.338
88218SOL    HW166493  10.834   2.437  12.370
88218SOL    HW266494  10.754   2.361  12.266
88219SOL     OW66495  14.292  14.770  14.097
88219SOL    HW166496  14.359  14.769  14.029
88219SOL    HW266497  14.213  14.738  14.054
88220SOL     OW66498   6.168   0.850   4.361
88220SOL    HW166499   6.182   0.938   4.394
88220SOL    HW266500   6.248   0.802   4.384
88221SOL     OW66501   4.979   7.960   7.942
88221SOL    HW166502   4.963   8.005   7.859
88221SOL    HW266503   5.062   7.997   7.973
88222SOL     OW66504   7.309   8.383  10.205
88222SOL    HW166505   7.238   8.443  10.228
88222SOL    HW266506   7.376   8.439  10.164
88223SOL     OW66507   3.707   1.701  13.268
88223SOL    HW166508   3.703   1.649  13.187
88223SOL    HW266509   3.617   1.700  13.302
88224SOL     OW66510   6.704   2.165  12.124
88224SOL    HW166511   6.794   2.195  12.109
88224SOL    HW266512   6.676   2.215  12.202
88225SOL     OW66513  11.255  13.567   3.196
88225SOL    HW166514  11.271  13.648   3.148
88225SOL    HW266515  11.166  13.542   3.172
88226SOL     OW66516  13.793  10.249  11.716
88226SOL    HW166517  13.726  10.193  11.677
88226SOL    HW266518  13.876  10.210  11.687
88227SOL     OW66519  12.628   6.247   7.057
88227SOL    HW166520  12.702   6.298   7.091
88227SOL    HW266521  12.661   6.158   7.052
88228SOL     OW66522  13.209   1.450   3.250
88228SOL    HW166523  13.172   1.472   3.165
88228SOL    HW266524  13.157   1.499   3.313
88229SOL     OW66525   1.281   4.899  13.330
88229SOL    HW166526   1.312   4.972  13.277
88229SOL    HW266527   1.186   4.909  13.333
88230SOL     OW66528   4.226   6.808   5.372
88230SOL    HW166529   4.243   6.823   5.465
88230SOL    HW266530   4.146   6.858   5.354
88231SOL     OW66531  11.646   5.028  14.811
88231SOL    HW166532  11.737   5.020  14.782
88231SOL    HW266533  11.619   4.938  14.830
88232SOL     OW66534   1.110   1.117  13.684
88232SOL    HW166535   1.116   1.074  13.599
88232SOL    HW266536   1.111   1.046  13.747
88233SOL     OW66537   6.551   3.852   6.941
88233SOL    HW166538   6.491   3.898   7.001
88233SOL    HW266539   6.624   3.912   6.930
88234SOL     OW66540  12.533   4.102  10.401
88234SOL    HW166541  12.548   4.195  10.388
88234SOL    HW266542  12.517   4.093  10.495
88235SOL     OW66543   9.607   7.790  10.266
88235SOL    HW166544   9.632   7.882  10.269
88235SOL    HW266545   9.678   7.747  10.221
88236SOL     OW66546  10.417   8.308   6.182
88236SOL    HW166547  10.362   8.379   6.217
88236SOL    HW266548  10.388   8.230   6.230
88237SOL     OW66549   0.659   4.483   9.913
88237SOL    HW166550   0.716   4.433   9.971
88237SOL    HW266551   0.638   4.422   9.842
88238SOL     OW66552   4.972   6.298   3.183
88238SOL    HW166553   4.908   6.256   3.125
88238SOL    HW266554   4.998   6.229   3.244
88239SOL     OW66555  14.031   3.536   0.456
88239SOL    HW166556  14.115   3.551   0.499
88239SOL    HW266557  14.046   3.561   0.364
88240SOL     OW66558   6.130  12.374  11.620
88240SOL    HW166559   6.144  12.410  11.708
88240SOL    HW266560   6.196  12.417  11.566
88241SOL     OW66561   4.279   4.225   6.841
88241SOL    HW166562   4.343   4.228   6.770
88241SOL    HW266563   4.314   4.285   6.907
88242SOL     OW66564  13.842  14.798   4.129
88242SOL    HW166565  13.777  14.732   4.155
88242SOL    HW266566  13.803   0.002   4.155
88243SOL     OW66567   0.709   7.265   6.405
88243SOL    HW166568   0.680   7.176   6.423
88243SOL    HW266569   0.767   7.287   6.477
88244SOL     OW66570   3.630  10.117   6.566
88244SOL    HW166571   3.695  10.143   6.501
88244SOL    HW266572   3.545  10.142   6.527
88245SOL     OW66573  11.947   4.202   9.512
88245SOL    HW166574  12.034   4.221   9.548
88245SOL    HW266575  11.897   4.169   9.586
88246SOL     OW66576   8.116   0.913   0.828
88246SOL    HW166577   8.023   0.930   0.839
88246SOL    HW266578   8.120   0.835   0.773
88247SOL     OW66579   2.389  11.522   8.332
88247SOL    HW166580   2.325  11.593   8.332
88247SOL    HW266581   2.387  11.488   8.422
88248SOL     OW66582  12.173   8.291  10.373
88248SOL    HW166583  12.208   8.345  10.443
88248SOL    HW266584  12.214   8.325  10.293
88249SOL     OW66585   2.634  12.444  10.929
88249SOL    HW166586   2.698  12.410  10.991
88249SOL    HW266587   2.686  12.499  10.869
88250SOL     OW66588   3.689   9.917   7.745
88250SOL    HW166589   3.668   9.834   7.789
88250SOL    HW266590   3.777   9.902   7.709
88251SOL     OW66591  14.177  14.524   2.974
88251SOL    HW166592  14.272  14.513   2.963
88251SOL    HW266593  14.148  14.568   2.894
88252SOL     OW66594  11.845   8.282  12.995
88252SOL    HW166595  11.941   8.287  12.997
88252SOL    HW266596  11.821   8.327  12.914
88253SOL     OW66597   7.150   4.277   5.415
88253SOL    HW166598   7.188   4.198   5.377
88253SOL    HW266599   7.201   4.349   5.378
88254SOL     OW66600   3.245   3.981   6.445
88254SOL    HW166601   3.272   3.900   6.488
88254SOL    HW266602   3.164   4.006   6.489
88255SOL     OW66603  11.915   4.505   9.360
88255SOL    HW166604  11.888   4.570   9.424
88255SOL    HW266605  12.009   4.522   9.346
88256SOL     OW66606   2.733   4.192  11.342
88256SOL    HW166607   2.675   4.118  11.322
88256SOL    HW266608   2.815   4.151  11.369
88257SOL     OW66609   7.524   0.549   3.478
88257SOL    HW166610   7.437   0.528   3.511
88257SOL    HW266611   7.509   0.576   3.387
88258SOL     OW66612   6.669  11.443   5.141
88258SOL    HW166613   6.726  11.390   5.086
88258SOL    HW266614   6.711  11.529   5.142
88259SOL     OW66615  12.297   1.574   7.656
88259SOL    HW166616  12.219   1.553   7.604
88259SOL    HW266617  12.305   1.500   7.717
88260SOL     OW66618  13.930   3.771   8.992
88260SOL    HW166619  14.018   3.797   8.965
88260SOL    HW266620  13.896   3.721   8.918
88261SOL     OW66621   5.398  13.232   0.741
88261SOL    HW166622   5.479  13.284   0.744
88261SOL    HW266623   5.329  13.293   0.767
88262SOL     OW66624   0.009   6.543   2.355
88262SOL    HW166625   0.095   6.502   2.365
88262SOL    HW266626   0.025   6.620   2.301
88263SOL     OW66627  11.876   7.426   8.663
88263SOL    HW166628  11.945   7.378   8.709
88263SOL    HW266629  11.826   7.469   8.732
88264SOL     OW66630   5.381   3.604  11.628
88264SOL    HW166631   5.420   3.522  11.599
88264SOL    HW266632   5.397   3.606  11.723
88265SOL     OW66633   5.512   3.687   9.792
88265SOL    HW166634   5.509   3.671   9.887
88265SOL    HW266635   5.501   3.781   9.783
88266SOL     OW66636  12.469   2.656   8.880
88266SOL    HW166637  12.541   2.719   8.876
88266SOL    HW266638  12.399   2.702   8.925
88267SOL     OW66639   5.234   2.706   2.087
88267SOL    HW166640   5.166   2.752   2.037
88267SOL    HW266641   5.241   2.757   2.169
88268SOL     OW66642   2.491   8.012   3.991
88268SOL    HW166643   2.397   8.011   3.972
88268SOL    HW266644   2.498   8.059   4.074
88269SOL     OW66645   6.577   4.253  13.914
88269SOL    HW166646   6.640   4.324  13.898
88269SOL    HW266647   6.606   4.182  13.857
88270SOL     OW66648   0.144   2.327   0.223
88270SOL    HW166649   0.203   2.321   0.298
88270SOL    HW266650   0.078   2.390   0.250
88271SOL     OW66651  14.115   0.806  11.418
88271SOL    HW166652  14.080   0.775  11.334
88271SOL    HW266653  14.161   0.731  11.454
88272SOL     OW66654   3.049   6.867  12.217
88272SOL    HW166655   2.960   6.882  12.249
88272SOL    HW266656   3.044   6.784  12.170
88273SOL     OW66657  12.064   2.679   8.293
88273SOL    HW166658  12.083   2.633   8.211
88273SOL    HW266659  12.117   2.633   8.359
88274SOL     OW66660  12.397   5.329   1.099
88274SOL    HW166661  12.357   5.243   1.106
88274SOL    HW266662  12.489   5.315   1.121
88275SOL     OW66663   3.255   8.408  12.006
88275SOL    HW166664   3.281   8.355  12.081
88275SOL    HW266665   3.232   8.344  11.938
88276SOL     OW66666   3.214   1.283   1.703
88276SOL    HW166667   3.198   1.193   1.676
88276SOL    HW266668   3.237   1.329   1.623
88277SOL     OW66669  12.013  12.893   9.391
88277SOL    HW166670  12.070  12.820   9.366
88277SOL    HW266671  11.955  12.905   9.316
88278SOL     OW66672   7.257   8.770  11.422
88278SOL    HW166673   7.227   8.860  11.409
88278SOL    HW266674   7.274   8.764  11.515
88279SOL     OW66675  13.432   6.314   1.507
88279SOL    HW166676  13.383   6.238   1.478
88279SOL    HW266677  13.365   6.382   1.521
88280SOL     OW66678   7.960  14.418   0.215
88280SOL    HW166679   8.002  14.399   0.298
88280SOL    HW266680   7.906  14.495   0.232
88281SOL     OW66681   0.929  11.546   9.555
88281SOL    HW166682   0.972  11.518   9.474
88281SOL    HW266683   0.920  11.466   9.606
88282SOL     OW66684   9.835   6.117  13.605
88282SOL    HW166685   9.798   6.140  13.690
88282SOL    HW266686   9.928   6.103  13.622
88283SOL     OW66687   8.278   2.920  11.253
88283SOL    HW166688   8.353   2.964  11.294
88283SOL    HW266689   8.201   2.965  11.289
88284SOL     OW66690   1.556   1.718   5.365
88284SOL    HW166691   1.607   1.688   5.440
88284SOL    HW266692   1.532   1.808   5.386
88285SOL     OW66693  10.247  10.683   1.032
88285SOL    HW166694  10.279  10.654   1.117
88285SOL    HW266695  10.309  10.646   0.969
88286SOL     OW66696   5.207  12.303   3.188
88286SOL    HW166697   5.143  12.287   3.119
88286SOL    HW266698   5.242  12.216   3.208
88287SOL     OW66699   0.609  10.801   1.285
88287SOL    HW166700   0.542  10.734   1.271
88287SOL    HW266701   0.580  10.847   1.364
88288SOL     OW66702  11.181   5.130  12.186
88288SOL    HW166703  11.166   5.225  12.188
88288SOL    HW266704  11.095   5.091  12.201
88289SOL     OW66705   7.898   4.976   2.970
88289SOL    HW166706   7.923   5.067   2.984
88289SOL    HW266707   7.957   4.945   2.901
88290SOL     OW66708   3.613  10.359   8.036
88290SOL    HW166709   3.682  10.302   8.071
88290SOL    HW266710   3.532  10.325   8.074
88291SOL     OW66711   7.331   4.868  11.112
88291SOL    HW166712   7.293   4.792  11.069
88291SOL    HW266713   7.424   4.865  11.088
88292SOL     OW66714   1.358   0.124   8.697
88292SOL    HW166715   1.299   0.133   8.622
88292SOL    HW266716   1.428   0.068   8.665
88293SOL     OW66717   0.078   5.619   2.971
88293SOL    HW166718   0.104   5.633   3.062
88293SOL    HW266719   0.008   5.553   2.975
88294SOL     OW66720   5.143  12.484   1.326
88294SOL    HW166721   5.216  12.487   1.389
88294SOL    HW266722   5.155  12.402   1.279
88295SOL     OW66723  12.000   8.535   0.808
88295SOL    HW166724  12.077   8.490   0.771
88295SOL    HW266725  11.927   8.475   0.791
88296SOL     OW66726  12.423  10.960   5.451
88296SOL    HW166727  12.330  10.972   5.469
88296SOL    HW266728  12.427  10.949   5.356
88297SOL     OW66729   6.301  12.858  10.868
88297SOL    HW166730   6.221  12.843  10.818
88297SOL    HW266731   6.270  12.898  10.949
88298SOL     OW66732   6.323   2.792  11.634
88298SOL    HW166733   6.323   2.716  11.576
88298SOL    HW266734   6.248   2.843  11.606
88299SOL     OW66735  11.505   4.144   0.499
88299SOL    HW166736  11.573   4.081   0.472
88299SOL    HW266737  11.534   4.174   0.585
88300SOL     OW66738   3.339   4.348  10.785
88300SOL    HW166739   3.306   4.276  10.731
88300SOL    HW266740   3.372   4.412  10.723
88301SOL     OW66741   7.460   4.209  12.013
88301SOL    HW166742   7.384   4.206  11.955
88301SOL    HW266743   7.524   4.152  11.972
88302SOL     OW66744  13.487  11.404   4.328
88302SOL    HW166745  13.402  11.404   4.284
88302SOL    HW266746  13.469  11.440   4.415
88303SOL     OW66747   1.988   8.900   8.719
88303SOL    HW166748   2.060   8.935   8.771
88303SOL    HW266749   2.026   8.825   8.673
88304SOL     OW66750  12.092  12.980  11.780
88304SOL    HW166751  12.052  12.894  11.790
88304SOL    HW266752  12.078  13.003  11.688
88305SOL     OW66753   7.829  14.219   4.091
88305SOL    HW166754   7.740  14.183   4.094
88305SOL    HW266755   7.872  14.171   4.020
88306SOL     OW66756   8.509   4.649   4.308
88306SOL    HW166757   8.538   4.739   4.327
88306SOL    HW266758   8.558   4.624   4.229
88307SOL     OW66759   7.104   2.147  14.754
88307SOL    HW166760   7.148   2.103  14.826
88307SOL    HW266761   7.102   2.239  14.780
88308SOL     OW66762   6.160  13.227  14.816
88308SOL    HW166763   6.098  13.188  14.754
88308SOL    HW266764   6.104  13.267   0.004
88309SOL     OW66765   4.483   8.119   6.846
88309SOL    HW166766   4.535   8.126   6.765
88309SOL    HW266767   4.528   8.177   6.908
88310SOL     OW66768   1.066   8.955   5.358
88310SOL    HW166769   1.071   8.865   5.388
88310SOL    HW266770   1.020   9.002   5.427
88311SOL     OW66771   8.102   4.672   9.868
88311SOL    HW166772   8.030   4.692   9.807
88311SOL    HW266773   8.100   4.743   9.932
88312SOL     OW66774   2.870   5.640   3.277
88312SOL    HW166775   2.949   5.648   3.223
88312SOL    HW266776   2.903   5.635   3.367
88313SOL     OW66777   8.167  10.871  13.663
88313SOL    HW166778   8.226  10.939  13.694
88313SOL    HW266779   8.110  10.915  13.600
88314SOL     OW66780   7.973   5.274   2.677
88314SOL    HW166781   7.996   5.202   2.619
88314SOL    HW266782   8.057   5.318   2.695
88315SOL     OW66783  12.106   0.075  10.561
88315SOL    HW166784  12.164   0.042  10.493
88315SOL    HW266785  12.023   0.030  10.545
88316SOL     OW66786   4.984   6.506   2.036
88316SOL    HW166787   4.956   6.415   2.048
88316SOL    HW266788   5.078   6.500   2.021
88317SOL     OW66789   0.900  10.768   1.611
88317SOL    HW166790   0.814  10.755   1.651
88317SOL    HW266791   0.883  10.818   1.531
88318SOL     OW66792   2.268   8.498   7.371
88318SOL    HW166793   2.228   8.412   7.380
88318SOL    HW266794   2.286   8.526   7.461
88319SOL     OW66795  11.756   9.001  10.517
88319SOL    HW166796  11.699   8.995  10.594
88319SOL    HW266797  11.845   8.997  10.552
88320SOL     OW66798  12.453   7.686   5.867
88320SOL    HW166799  12.434   7.650   5.781
88320SOL    HW266800  12.518   7.754   5.851
88321SOL     OW66801  12.404   7.721  14.081
88321SOL    HW166802  12.407   7.724  13.985
88321SOL    HW266803  12.379   7.810  14.107
88322SOL     OW66804   2.885  14.660  11.994
88322SOL    HW166805   2.920  14.747  11.974
88322SOL    HW266806   2.816  14.675  12.058
88323SOL     OW66807   0.718   9.014   5.300
88323SOL    HW166808   0.762   8.934   5.327
88323SOL    HW266809   0.627   9.002   5.328
88324SOL     OW66810   2.789   1.171   8.608
88324SOL    HW166811   2.752   1.136   8.689
88324SOL    HW266812   2.718   1.223   8.570
88325SOL     OW66813   4.014  11.908  14.531
88325SOL    HW166814   4.110  11.906  14.528
88325SOL    HW266815   3.990  11.977  14.470
88326SOL     OW66816   7.978  10.502   6.681
88326SOL    HW166817   8.006  10.556   6.755
88326SOL    HW266818   7.931  10.429   6.721
88327SOL     OW66819  13.551  11.975   0.808
88327SOL    HW166820  13.559  12.051   0.751
88327SOL    HW266821  13.463  11.982   0.845
88328SOL     OW66822   9.338   2.077   4.243
88328SOL    HW166823   9.396   2.150   4.263
88328SOL    HW266824   9.325   2.032   4.326
88329SOL     OW66825   3.121  10.378   3.588
88329SOL    HW166826   3.100  10.449   3.528
88329SOL    HW266827   3.042  10.366   3.640
88330SOL     OW66828  14.092  11.297   8.668
88330SOL    HW166829  14.145  11.362   8.715
88330SOL    HW266830  14.125  11.299   8.578
88331SOL     OW66831   2.644   0.924   0.284
88331SOL    HW166832   2.627   0.963   0.370
88331SOL    HW266833   2.730   0.956   0.259
88332SOL     OW66834   6.136   8.768   9.245
88332SOL    HW166835   6.187   8.695   9.210
88332SOL    HW266836   6.120   8.743   9.337
88333SOL     OW66837  11.684  11.500   9.345
88333SOL    HW166838  11.686  11.593   9.367
88333SOL    HW266839  11.775  11.477   9.326
88334SOL     OW66840   3.544   3.420  13.186
88334SOL    HW166841   3.616   3.419  13.249
88334SOL    HW266842   3.586   3.403  13.101
88335SOL     OW66843   8.925   3.811   5.928
88335SOL    HW166844   8.956   3.753   5.997
88335SOL    HW266845   8.984   3.886   5.931
88336SOL     OW66846   8.368   7.994  11.412
88336SOL    HW166847   8.389   7.934  11.341
88336SOL    HW266848   8.449   8.042  11.428
88337SOL     OW66849  13.393  13.794  14.191
88337SOL    HW166850  13.473  13.844  14.212
88337SOL    HW266851  13.342  13.854  14.137
88338SOL     OW66852   2.323  11.642   1.288
88338SOL    HW166853   2.338  11.711   1.223
88338SOL    HW266854   2.234  11.613   1.272
88339SOL     OW66855  11.437  11.645   5.946
88339SOL    HW166856  11.465  11.723   5.898
88339SOL    HW266857  11.484  11.573   5.904
88340SOL     OW66858  13.720  12.309  10.178
88340SOL    HW166859  13.719  12.306  10.273
88340SOL    HW266860  13.653  12.247  10.151
88341SOL     OW66861   1.289   9.474   4.601
88341SOL    HW166862   1.243   9.399   4.640
88341SOL    HW266863   1.310   9.530   4.676
88342SOL     OW66864   4.728   8.542   2.656
88342SOL    HW166865   4.689   8.594   2.726
88342SOL    HW266866   4.811   8.586   2.637
88343SOL     OW66867  11.871   1.322   9.774
88343SOL    HW166868  11.938   1.290   9.835
88343SOL    HW266869  11.822   1.244   9.749
88344SOL     OW66870   3.698  11.953  14.310
88344SOL    HW166871   3.699  11.861  14.284
88344SOL    HW266872   3.780  11.989  14.277
88345SOL     OW66873   6.820   7.656   2.421
88345SOL    HW166874   6.872   7.577   2.408
88345SOL    HW266875   6.878   7.714   2.470
88346SOL     OW66876   4.470   8.869  13.976
88346SOL    HW166877   4.474   8.792  13.920
88346SOL    HW266878   4.383   8.864  14.017
88347SOL     OW66879   8.486   9.855   3.523
88347SOL    HW166880   8.576   9.849   3.492
88347SOL    HW266881   8.438   9.792   3.469
88348SOL     OW66882  11.850  12.413   5.802
88348SOL    HW166883  11.843  12.361   5.722
88348SOL    HW266884  11.891  12.495   5.774
88349SOL     OW66885   8.775   8.234   8.260
88349SOL    HW166886   8.852   8.194   8.220
88349SOL    HW266887   8.702   8.208   8.203
88350SOL     OW66888  14.524  13.953   6.953
88350SOL    HW166889  14.470  13.926   7.028
88350SOL    HW266890  14.603  13.990   6.992
88351SOL     OW66891   1.966   1.764   8.475
88351SOL    HW166892   2.001   1.812   8.550
88351SOL    HW266893   1.887   1.721   8.508
88352SOL     OW66894   4.253   3.984   6.075
88352SOL    HW166895   4.219   3.895   6.064
88352SOL    HW266896   4.197   4.024   6.142
88353SOL     OW66897   0.421   6.400   1.141
88353SOL    HW166898   0.412   6.388   1.047
88353SOL    HW266899   0.378   6.323   1.179
88354SOL     OW66900   8.631   3.155   8.922
88354SOL    HW166901   8.678   3.208   8.987
88354SOL    HW266902   8.572   3.217   8.879
88355SOL     OW66903   1.704   1.577   2.962
88355SOL    HW166904   1.725   1.522   2.886
88355SOL    HW266905   1.679   1.661   2.924
88356SOL     OW66906   2.645  12.345   9.612
88356SOL    HW166907   2.551  12.358   9.612
88356SOL    HW266908   2.659  12.269   9.668
88357SOL     OW66909   7.227  10.358   5.697
88357SOL    HW166910   7.257  10.405   5.775
88357SOL    HW266911   7.251  10.267   5.714
88358SOL     OW66912   0.128   9.447  11.846
88358SOL    HW166913   0.090   9.494  11.920
88358SOL    HW266914   0.199   9.504  11.815
88359SOL     OW66915   8.251   3.567   5.529
88359SOL    HW166916   8.177   3.535   5.581
88359SOL    HW266917   8.267   3.655   5.562
88360SOL     OW66918   8.356  12.866  10.409
88360SOL    HW166919   8.351  12.829  10.321
88360SOL    HW266920   8.378  12.958  10.395
88361SOL     OW66921   5.278  11.364   7.620
88361SOL    HW166922   5.313  11.356   7.709
88361SOL    HW266923   5.188  11.333   7.627
88362SOL     OW66924   6.166   5.252   7.709
88362SOL    HW166925   6.130   5.171   7.745
88362SOL    HW266926   6.240   5.224   7.656
88363SOL     OW66927   8.017   3.707   1.416
88363SOL    HW166928   7.996   3.613   1.417
88363SOL    HW266929   8.112   3.710   1.425
88364SOL     OW66930  14.813  11.105   3.083
88364SOL    HW166931  14.741  11.114   3.020
88364SOL    HW266932  14.771  11.079   3.164
88365SOL     OW66933  13.760  10.258   0.634
88365SOL    HW166934  13.825  10.279   0.567
88365SOL    HW266935  13.808  10.211   0.702
88366SOL     OW66936   4.538   1.324   0.805
88366SOL    HW166937   4.601   1.365   0.864
88366SOL    HW266938   4.539   1.232   0.829
88367SOL     OW66939   3.452   1.548  13.310
88367SOL    HW166940   3.437   1.604  13.386
88367SOL    HW266941   3.408   1.466  13.331
88368SOL     OW66942   3.060   8.254   6.947
88368SOL    HW166943   3.085   8.234   6.857
88368SOL    HW266944   2.965   8.242   6.949
88369SOL     OW66945   4.953   1.323   5.818
88369SOL    HW166946   4.933   1.273   5.897
88369SOL    HW266947   4.868   1.358   5.789
88370SOL     OW66948   2.099   7.768   1.418
88370SOL    HW166949   2.107   7.732   1.330
88370SOL    HW266950   2.005   7.774   1.434
88371SOL     OW66951   3.012   3.663  11.914
88371SOL    HW166952   2.987   3.750  11.945
88371SOL    HW266953   2.934   3.609  11.930
88372SOL     OW66954   7.097   1.828   7.638
88372SOL    HW166955   7.073   1.735   7.630
88372SOL    HW266956   7.184   1.833   7.600
88373SOL     OW66957  11.936   3.815   6.322
88373SOL    HW166958  11.950   3.763   6.243
88373SOL    HW266959  11.847   3.792   6.350
88374SOL     OW66960   0.804   9.549   7.449
88374SOL    HW166961   0.872   9.598   7.404
88374SOL    HW266962   0.821   9.565   7.542
88375SOL     OW66963  12.836   7.065  14.597
88375SOL    HW166964  12.744   7.067  14.621
88375SOL    HW266965  12.883   7.087  14.678
88376SOL     OW66966  10.212   4.203   4.087
88376SOL    HW166967  10.251   4.290   4.094
88376SOL    HW266968  10.286   4.143   4.082
88377SOL     OW66969   2.818   1.404   5.827
88377SOL    HW166970   2.827   1.465   5.754
88377SOL    HW266971   2.903   1.407   5.872
88378SOL     OW66972  10.954   5.215   8.294
88378SOL    HW166973  11.039   5.198   8.334
88378SOL    HW266974  10.902   5.137   8.314
88379SOL     OW66975   2.665   9.991   0.559
88379SOL    HW166976   2.714  10.073   0.550
88379SOL    HW266977   2.586  10.015   0.606
88380SOL     OW66978   8.719   5.473   9.716
88380SOL    HW166979   8.694   5.500   9.804
88380SOL    HW266980   8.790   5.532   9.692
88381SOL     OW66981  12.316   4.195   7.789
88381SOL    HW166982  12.328   4.129   7.858
88381SOL    HW266983  12.374   4.266   7.813
88382SOL     OW66984   6.702  11.285   2.485
88382SOL    HW166985   6.652  11.332   2.419
88382SOL    HW266986   6.639  11.266   2.554
88383SOL     OW66987   8.901   2.139  11.363
88383SOL    HW166988   8.842   2.106  11.430
88383SOL    HW266989   8.846   2.152  11.286
88384SOL     OW66990   3.382  11.458   6.867
88384SOL    HW166991   3.310  11.519   6.882
88384SOL    HW266992   3.454  11.493   6.920
88385SOL     OW66993   9.298   8.679  10.445
88385SOL    HW166994   9.286   8.670  10.350
88385SOL    HW266995   9.327   8.593  10.474
88386SOL     OW66996   5.664  13.933   8.469
88386SOL    HW166997   5.705  14.017   8.489
88386SOL    HW266998   5.632  13.901   8.554
88387SOL     OW66999   7.260   4.461   7.959
88387SOL    HW167000   7.219   4.394   8.013
88387SOL    HW267001   7.186   4.508   7.919
88388SOL     OW67002   0.364   8.020  14.179
88388SOL    HW167003   0.282   7.972  14.187
88388SOL    HW267004   0.409   7.979  14.105
88389SOL     OW67005  13.203   2.369  10.409
88389SOL    HW167006  13.179   2.461  10.422
88389SOL    HW267007  13.169   2.347  10.322
88390SOL     OW67008   1.143  13.935   6.070
88390SOL    HW167009   1.110  14.008   6.122
88390SOL    HW267010   1.224  13.968   6.031
88391SOL     OW67011   9.622   0.920   1.748
88391SOL    HW167012   9.636   1.003   1.702
88391SOL    HW267013   9.706   0.900   1.789
88392SOL     OW67014   2.502  13.659   5.941
88392SOL    HW167015   2.450  13.739   5.955
88392SOL    HW267016   2.438  13.594   5.913
88393SOL     OW67017  11.579   5.279  13.455
88393SOL    HW167018  11.640   5.277  13.380
88393SOL    HW267019  11.563   5.186  13.474
88394SOL     OW67020   2.230   2.933   0.183
88394SOL    HW167021   2.249   2.839   0.187
88394SOL    HW267022   2.315   2.973   0.166
88395SOL     OW67023   9.186   4.735  11.603
88395SOL    HW167024   9.268   4.783  11.593
88395SOL    HW267025   9.196   4.686  11.685
88396SOL     OW67026  11.546  12.693   7.037
88396SOL    HW167027  11.581  12.782   7.031
88396SOL    HW267028  11.476  12.699   7.101
88397SOL     OW67029   5.804  10.234  11.782
88397SOL    HW167030   5.822  10.158  11.728
88397SOL    HW267031   5.711  10.251  11.770
88398SOL     OW67032   7.376  12.055   0.467
88398SOL    HW167033   7.358  12.135   0.516
88398SOL    HW267034   7.290  12.019   0.446
88399SOL     OW67035   0.803   2.040   9.916
88399SOL    HW167036   0.735   2.097   9.880
88399SOL    HW267037   0.845   2.001   9.840
88400SOL     OW67038   0.424   7.054   2.601
88400SOL    HW167039   0.339   7.080   2.636
88400SOL    HW267040   0.482   7.056   2.677
88401SOL     OW67041   7.317   4.718  13.234
88401SOL    HW167042   7.327   4.630  13.197
88401SOL    HW267043   7.337   4.776  13.161
88402SOL     OW67044   5.921   0.783  13.490
88402SOL    HW167045   5.864   0.762  13.416
88402SOL    HW267046   5.890   0.869  13.519
88403SOL     OW67047   6.281   8.593  14.120
88403SOL    HW167048   6.202   8.606  14.067
88403SOL    HW267049   6.347   8.648  14.078
88404SOL     OW67050   6.547  10.499   7.901
88404SOL    HW167051   6.614  10.534   7.842
88404SOL    HW267052   6.594  10.480   7.982
88405SOL     OW67053  13.281   7.214  11.662
88405SOL    HW167054  13.255   7.142  11.720
88405SOL    HW267055  13.359   7.251  11.703
88406SOL     OW67056   6.504   6.517  13.335
88406SOL    HW167057   6.460   6.444  13.291
88406SOL    HW267058   6.594   6.515  13.301
88407SOL     OW67059   7.304   8.426   1.151
88407SOL    HW167060   7.221   8.460   1.185
88407SOL    HW267061   7.278   8.361   1.085
88408SOL     OW67062  12.400   5.333  10.836
88408SOL    HW167063  12.410   5.350  10.929
88408SOL    HW267064  12.403   5.419  10.795
88409SOL     OW67065   7.205   4.721  12.459
88409SOL    HW167066   7.265   4.762  12.397
88409SOL    HW267067   7.211   4.627  12.439
88410SOL     OW67068  13.176   5.565  12.212
88410SOL    HW167069  13.131   5.589  12.131
88410SOL    HW267070  13.167   5.642  12.268
88411SOL     OW67071   2.776  12.717   0.223
88411SOL    HW167072   2.735  12.675   0.147
88411SOL    HW267073   2.735  12.803   0.228
88412SOL     OW67074   0.312   2.228  10.822
88412SOL    HW167075   0.362   2.150  10.798
88412SOL    HW267076   0.378   2.290  10.853
88413SOL     OW67077   7.627   7.324  11.862
88413SOL    HW167078   7.596   7.259  11.925
88413SOL    HW267079   7.631   7.276  11.779
88414SOL     OW67080   9.838  13.500   8.068
88414SOL    HW167081   9.768  13.446   8.106
88414SOL    HW267082   9.872  13.447   7.996
88415SOL     OW67083  14.154   7.313   2.990
88415SOL    HW167084  14.221   7.271   3.044
88415SOL    HW267085  14.130   7.247   2.925
88416SOL     OW67086  10.862   4.649  12.385
88416SOL    HW167087  10.813   4.569  12.366
88416SOL    HW267088  10.809   4.720  12.348
88417SOL     OW67089  13.091  10.481  12.695
88417SOL    HW167090  13.112  10.525  12.613
88417SOL    HW267091  13.101  10.388  12.675
88418SOL     OW67092  11.700  13.703   4.868
88418SOL    HW167093  11.740  13.788   4.849
88418SOL    HW267094  11.755  13.666   4.938
88419SOL     OW67095   0.206  14.494  10.967
88419SOL    HW167096   0.221  14.578  10.925
88419SOL    HW267097   0.145  14.514  11.038
88420SOL     OW67098   4.118   4.210   4.450
88420SOL    HW167099   4.080   4.167   4.526
88420SOL    HW267100   4.057   4.191   4.378
88421SOL     OW67101   9.888   7.819   0.521
88421SOL    HW167102   9.794   7.832   0.523
88421SOL    HW267103   9.924   7.903   0.494
88422SOL     OW67104   5.263   7.516   4.669
88422SOL    HW167105   5.278   7.424   4.648
88422SOL    HW267106   5.222   7.552   4.591
88423SOL     OW67107   1.424   4.108   9.827
88423SOL    HW167108   1.389   4.193   9.800
88423SOL    HW267109   1.508   4.130   9.868
88424SOL     OW67110  10.854  14.372   7.366
88424SOL    HW167111  10.948  14.386   7.356
88424SOL    HW267112  10.820  14.366   7.277
88425SOL     OW67113  11.453   2.563   4.467
88425SOL    HW167114  11.466   2.585   4.375
88425SOL    HW267115  11.376   2.614   4.493
88426SOL     OW67116   3.828  10.710   4.772
88426SOL    HW167117   3.815  10.802   4.747
88426SOL    HW267118   3.813  10.709   4.866
88427SOL     OW67119   2.336   6.743  11.956
88427SOL    HW167120   2.361   6.828  11.993
88427SOL    HW267121   2.342   6.682  12.030
88428SOL     OW67122   9.591   7.680   6.590
88428SOL    HW167123   9.632   7.715   6.511
88428SOL    HW267124   9.554   7.596   6.563
88429SOL     OW67125   2.101  13.942  10.586
88429SOL    HW167126   2.136  13.860  10.622
88429SOL    HW267127   2.176  14.001  10.584
88430SOL     OW67128  12.246  13.743   4.530
88430SOL    HW167129  12.332  13.782   4.516
88430SOL    HW267130  12.190  13.817   4.554
88431SOL     OW67131   0.312   4.432   2.195
88431SOL    HW167132   0.270   4.432   2.109
88431SOL    HW267133   0.352   4.518   2.202
88432SOL     OW67134   1.423   3.370  10.590
88432SOL    HW167135   1.338   3.390  10.549
88432SOL    HW267136   1.400   3.327  10.672
88433SOL     OW67137   6.135  10.241   2.684
88433SOL    HW167138   6.077  10.304   2.640
88433SOL    HW267139   6.079  10.165   2.701
88434SOL     OW67140   5.064   8.303   8.712
88434SOL    HW167141   5.132   8.297   8.779
88434SOL    HW267142   5.109   8.281   8.631
88435SOL     OW67143  13.464   7.500   9.030
88435SOL    HW167144  13.431   7.529   8.945
88435SOL    HW267145  13.558   7.491   9.017
88436SOL     OW67146   3.638  10.587   1.132
88436SOL    HW167147   3.689  10.507   1.144
88436SOL    HW267148   3.582  10.569   1.057
88437SOL     OW67149   9.946   3.259  14.267
88437SOL    HW167150   9.923   3.347  14.296
88437SOL    HW267151   9.975   3.270  14.176
88438SOL     OW67152   1.171   4.438   7.757
88438SOL    HW167153   1.079   4.443   7.729
88438SOL    HW267154   1.210   4.373   7.700
88439SOL     OW67155  10.807   2.278   0.010
88439SOL    HW167156  10.895   2.252   0.035
88439SOL    HW267157  10.817   2.366  14.854
88440SOL     OW67158   7.399   2.703  12.271
88440SOL    HW167159   7.417   2.625  12.323
88440SOL    HW267160   7.477   2.758  12.282
88441SOL     OW67161   5.263  13.369   4.840
88441SOL    HW167162   5.205  13.444   4.851
88441SOL    HW267163   5.238  13.332   4.755
88442SOL     OW67164  10.037  11.656  10.385
88442SOL    HW167165   9.968  11.694  10.331
88442SOL    HW267166  10.022  11.693  10.473
88443SOL     OW67167   5.674  10.530   0.814
88443SOL    HW167168   5.704  10.578   0.892
88443SOL    HW267169   5.754  10.502   0.771
88444SOL     OW67170   4.561   0.868   1.879
88444SOL    HW167171   4.469   0.891   1.868
88444SOL    HW267172   4.608   0.952   1.875
88445SOL     OW67173   0.510  14.052  13.638
88445SOL    HW167174   0.551  14.047  13.551
88445SOL    HW267175   0.453  13.975  13.642
88446SOL     OW67176   5.104   1.799  14.753
88446SOL    HW167177   5.193   1.798  14.716
88446SOL    HW267178   5.091   1.891  14.779
88447SOL     OW67179   9.173   7.628  13.305
88447SOL    HW167180   9.178   7.682  13.383
88447SOL    HW267181   9.175   7.691  13.232
88448SOL     OW67182  13.200   4.972   2.137
88448SOL    HW167183  13.106   4.956   2.143
88448SOL    HW267184  13.216   4.987   2.043
88449SOL     OW67185   3.063   1.236  13.497
88449SOL    HW167186   3.153   1.243  13.465
88449SOL    HW267187   3.034   1.326  13.508
88450SOL     OW67188   5.690   6.334   4.415
88450SOL    HW167189   5.682   6.428   4.428
88450SOL    HW267190   5.715   6.300   4.501
88451SOL     OW67191   8.729   5.665   0.688
88451SOL    HW167192   8.778   5.675   0.606
88451SOL    HW267193   8.672   5.589   0.673
88452SOL     OW67194  14.023   0.201   7.154
88452SOL    HW167195  14.117   0.185   7.143
88452SOL    HW267196  13.999   0.150   7.232
88453SOL     OW67197  11.491  12.228  12.035
88453SOL    HW167198  11.551  12.174  12.086
88453SOL    HW267199  11.504  12.317  12.069
88454SOL     OW67200  12.024  11.044  10.127
88454SOL    HW167201  11.961  10.972  10.127
88454SOL    HW267202  12.001  11.095  10.049
88455SOL     OW67203   7.330   4.757   2.822
88455SOL    HW167204   7.314   4.675   2.776
88455SOL    HW267205   7.422   4.754   2.846
88456SOL     OW67206   6.010   8.513   8.933
88456SOL    HW167207   5.951   8.474   8.868
88456SOL    HW267208   5.955   8.529   9.009
88457SOL     OW67209   5.395   3.677   2.308
88457SOL    HW167210   5.340   3.615   2.356
88457SOL    HW267211   5.386   3.760   2.355
88458SOL     OW67212   2.973   1.821  12.106
88458SOL    HW167213   3.048   1.819  12.047
88458SOL    HW267214   2.896   1.818  12.048
88459SOL     OW67215   3.174   1.863   0.648
88459SOL    HW167216   3.149   1.954   0.663
88459SOL    HW267217   3.094   1.813   0.668
88460SOL     OW67218   7.485   3.122   9.857
88460SOL    HW167219   7.580   3.135   9.852
88460SOL    HW267220   7.451   3.208   9.882
88461SOL     OW67221  10.689   1.901  12.177
88461SOL    HW167222  10.662   1.853  12.099
88461SOL    HW267223  10.659   1.846  12.250
88462SOL     OW67224  13.495   8.947   7.264
88462SOL    HW167225  13.575   8.911   7.227
88462SOL    HW267226  13.491   9.037   7.229
88463SOL     OW67227   5.448   5.365  13.092
88463SOL    HW167228   5.377   5.422  13.063
88463SOL    HW267229   5.503   5.355  13.015
88464SOL     OW67230   3.930   8.654   0.175
88464SOL    HW167231   3.918   8.737   0.128
88464SOL    HW267232   3.960   8.681   0.262
88465SOL     OW67233   4.344   3.925   0.262
88465SOL    HW167234   4.370   3.953   0.174
88465SOL    HW267235   4.326   4.006   0.309
88466SOL     OW67236   9.624   9.803  10.232
88466SOL    HW167237   9.688   9.744  10.191
88466SOL    HW267238   9.651   9.809  10.323
88467SOL     OW67239   4.661   7.437  11.936
88467SOL    HW167240   4.633   7.374  12.001
88467SOL    HW267241   4.640   7.522  11.974
88468SOL     OW67242   0.544   6.752  13.202
88468SOL    HW167243   0.516   6.783  13.288
88468SOL    HW267244   0.499   6.668  13.190
88469SOL     OW67245  12.332   3.476   2.149
88469SOL    HW167246  12.306   3.495   2.059
88469SOL    HW267247  12.363   3.385   2.145
88470SOL     OW67248   3.782  10.168   5.474
88470SOL    HW167249   3.864  10.168   5.424
88470SOL    HW267250   3.799  10.109   5.547
88471SOL     OW67251  14.615   7.031   3.863
88471SOL    HW167252  14.606   6.936   3.876
88471SOL    HW267253  14.707   7.043   3.839
88472SOL     OW67254  14.405   9.692   2.963
88472SOL    HW167255  14.314   9.713   2.981
88472SOL    HW267256  14.411   9.687   2.868
88473SOL     OW67257   0.393   0.411  10.629
88473SOL    HW167258   0.424   0.323  10.606
88473SOL    HW267259   0.386   0.410  10.724
88474SOL     OW67260   4.545  12.987   5.824
88474SOL    HW167261   4.595  13.068   5.825
88474SOL    HW267262   4.454  13.014   5.808
88475SOL     OW67263   8.401  12.159   1.743
88475SOL    HW167264   8.367  12.133   1.657
88475SOL    HW267265   8.496  12.161   1.731
88476SOL     OW67266   3.836  11.343  13.592
88476SOL    HW167267   3.927  11.319  13.612
88476SOL    HW267268   3.839  11.374  13.502
88477SOL     OW67269  13.486   6.558   5.662
88477SOL    HW167270  13.446   6.624   5.606
88477SOL    HW267271  13.471   6.475   5.616
88478SOL     OW67272  10.692   3.946   8.113
88478SOL    HW167273  10.613   3.904   8.082
88478SOL    HW267274  10.665   3.990   8.194
88479SOL     OW67275  10.669  10.204   5.803
88479SOL    HW167276  10.723  10.259   5.859
88479SOL    HW267277  10.606  10.164   5.863
88480SOL     OW67278   1.992  10.311  12.399
88480SOL    HW167279   1.985  10.339  12.490
88480SOL    HW267280   2.010  10.217  12.404
88481SOL     OW67281  10.424   7.059   4.100
88481SOL    HW167282  10.457   7.036   4.186
88481SOL    HW267283  10.490   7.025   4.039
88482SOL     OW67284  13.350   5.570   3.221
88482SOL    HW167285  13.271   5.599   3.266
88482SOL    HW267286  13.318   5.519   3.147
88483SOL     OW67287  10.859   7.499  11.514
88483SOL    HW167288  10.861   7.484  11.420
88483SOL    HW267289  10.811   7.425  11.550
88484SOL     OW67290  13.839   8.815   3.588
88484SOL    HW167291  13.817   8.723   3.580
88484SOL    HW267292  13.913   8.827   3.527
88485SOL     OW67293  13.657   9.951   3.896
88485SOL    HW167294  13.676  10.020   3.959
88485SOL    HW267295  13.578   9.908   3.931
88486SOL     OW67296   3.824   5.556   1.218
88486SOL    HW167297   3.766   5.490   1.181
88486SOL    HW267298   3.823   5.627   1.153
88487SOL     OW67299  12.628   6.961  11.397
88487SOL    HW167300  12.537   6.958  11.425
88487SOL    HW267301  12.625   6.943  11.303
88488SOL     OW67302   6.391   6.024   6.672
88488SOL    HW167303   6.335   5.948   6.660
88488SOL    HW267304   6.388   6.042   6.766
88489SOL     OW67305   7.335  14.811  12.274
88489SOL    HW167306   7.364  14.793  12.364
88489SOL    HW267307   7.396  14.761  12.219
88490SOL     OW67308  11.190  10.139   6.414
88490SOL    HW167309  11.257  10.073   6.396
88490SOL    HW267310  11.239  10.221   6.420
88491SOL     OW67311   4.336   4.048   5.155
88491SOL    HW167312   4.320   3.955   5.165
88491SOL    HW267313   4.367   4.077   5.241
88492SOL     OW67314  12.277  12.796   1.973
88492SOL    HW167315  12.206  12.765   1.916
88492SOL    HW267316  12.232  12.843   2.043
88493SOL     OW67317   6.149  14.061  14.469
88493SOL    HW167318   6.120  13.985  14.519
88493SOL    HW267319   6.087  14.130  14.492
88494SOL     OW67320   4.137   5.145   7.035
88494SOL    HW167321   4.128   5.207   7.107
88494SOL    HW267322   4.214   5.175   6.987
88495SOL     OW67323   7.031   2.471  13.537
88495SOL    HW167324   7.065   2.499  13.622
88495SOL    HW267325   6.990   2.549  13.500
88496SOL     OW67326   9.468  10.149   0.903
88496SOL    HW167327   9.374  10.163   0.905
88496SOL    HW267328   9.479  10.054   0.911
88497SOL     OW67329   0.218   5.185  12.013
88497SOL    HW167330   0.177   5.129  12.079
88497SOL    HW267331   0.148   5.241  11.982
88498SOL     OW67332   2.401   5.795  13.787
88498SOL    HW167333   2.488   5.758  13.804
88498SOL    HW267334   2.359   5.733  13.728
88499SOL     OW67335   6.508  11.124   9.250
88499SOL    HW167336   6.595  11.109   9.213
88499SOL    HW267337   6.512  11.213   9.286
88500SOL     OW67338   6.751  13.461   3.444
88500SOL    HW167339   6.715  13.547   3.465
88500SOL    HW267340   6.676  13.410   3.413
88501SOL     OW67341   7.934   4.100   1.629
88501SOL    HW167342   7.892   4.041   1.566
88501SOL    HW267343   8.009   4.136   1.582
88502SOL     OW67344   2.227   2.031   5.608
88502SOL    HW167345   2.285   2.026   5.683
88502SOL    HW267346   2.229   1.943   5.570
88503SOL     OW67347  11.176   6.298   8.687
88503SOL    HW167348  11.261   6.305   8.643
88503SOL    HW267349  11.153   6.205   8.681
88504SOL     OW67350   4.559   4.654  11.141
88504SOL    HW167351   4.574   4.559  11.135
88504SOL    HW267352   4.541   4.669  11.234
88505SOL     OW67353  12.870   9.919  12.895
88505SOL    HW167354  12.955   9.956  12.919
88505SOL    HW267355  12.808   9.990  12.912
88506SOL     OW67356   8.463  10.431   1.218
88506SOL    HW167357   8.393  10.376   1.183
88506SOL    HW267358   8.486  10.390   1.301
88507SOL     OW67359   0.858   1.565   6.850
88507SOL    HW167360   0.810   1.642   6.820
88507SOL    HW267361   0.937   1.601   6.892
88508SOL     OW67362   9.871  11.114   4.254
88508SOL    HW167363   9.878  11.195   4.305
88508SOL    HW267364   9.959  11.077   4.256
88509SOL     OW67365  10.424  14.398   1.579
88509SOL    HW167366  10.438  14.375   1.487
88509SOL    HW267367  10.495  14.356   1.626
88510SOL     OW67368   2.891   8.265   5.773
88510SOL    HW167369   2.816   8.225   5.816
88510SOL    HW267370   2.962   8.259   5.837
88511SOL     OW67371   7.709   9.953   9.232
88511SOL    HW167372   7.753   9.941   9.147
88511SOL    HW267373   7.712  10.047   9.247
88512SOL     OW67374  14.134  12.007   6.209
88512SOL    HW167375  14.082  11.989   6.287
88512SOL    HW267376  14.085  11.968   6.137
88513SOL     OW67377   7.827   8.449  10.097
88513SOL    HW167378   7.798   8.404  10.017
88513SOL    HW267379   7.785   8.402  10.168
88514SOL     OW67380   1.953  11.773  10.295
88514SOL    HW167381   2.040  11.811  10.282
88514SOL    HW267382   1.967  11.699  10.353
88515SOL     OW67383  10.719   9.058   1.014
88515SOL    HW167384  10.804   9.017   0.997
88515SOL    HW267385  10.722   9.084   1.106
88516SOL     OW67386   1.161   9.401   1.671
88516SOL    HW167387   1.121   9.487   1.655
88516SOL    HW267388   1.255   9.414   1.656
88517SOL     OW67389   0.549  10.709  11.923
88517SOL    HW167390   0.596  10.728  12.005
88517SOL    HW267391   0.595  10.761  11.857
88518SOL     OW67392  11.714  10.659   3.792
88518SOL    HW167393  11.749  10.676   3.704
88518SOL    HW267394  11.707  10.746   3.832
88519SOL     OW67395  10.171   9.513  12.670
88519SOL    HW167396  10.118   9.521  12.749
88519SOL    HW267397  10.185   9.419  12.660
88520SOL     OW67398   8.711   8.832  14.427
88520SOL    HW167399   8.745   8.890  14.358
88520SOL    HW267400   8.789   8.795  14.467
88521SOL     OW67401   6.403   8.474   5.007
88521SOL    HW167402   6.311   8.470   5.034
88521SOL    HW267403   6.407   8.548   4.946
88522SOL     OW67404  11.232   0.672  11.459
88522SOL    HW167405  11.194   0.584  11.458
88522SOL    HW267406  11.265   0.682  11.548
88523SOL     OW67407   4.739   6.528   9.324
88523SOL    HW167408   4.720   6.619   9.346
88523SOL    HW267409   4.820   6.531   9.274
88524SOL     OW67410  13.967   0.935  11.156
88524SOL    HW167411  13.989   1.002  11.091
88524SOL    HW267412  13.998   0.853  11.118
88525SOL     OW67413   3.896   2.264   9.096
88525SOL    HW167414   3.807   2.264   9.129
88525SOL    HW267415   3.924   2.355   9.102
88526SOL     OW67416   4.037   8.470  13.497
88526SOL    HW167417   4.069   8.486  13.408
88526SOL    HW267418   3.949   8.507  13.498
88527SOL     OW67419  13.199   3.273  13.151
88527SOL    HW167420  13.251   3.305  13.077
88527SOL    HW267421  13.231   3.185  13.167
88528SOL     OW67422  10.318  10.173   9.933
88528SOL    HW167423  10.392  10.147   9.988
88528SOL    HW267424  10.353  10.176   9.844
88529SOL     OW67425   9.335   7.502  12.459
88529SOL    HW167426   9.370   7.498  12.370
88529SOL    HW267427   9.409   7.527  12.513
88530SOL     OW67428  12.028   8.947  10.596
88530SOL    HW167429  12.065   9.011  10.535
88530SOL    HW267430  12.098   8.931  10.660
88531SOL     OW67431   7.746   1.935   1.505
88531SOL    HW167432   7.774   1.883   1.429
88531SOL    HW267433   7.767   1.880   1.580
88532SOL     OW67434   1.662   4.040  13.254
88532SOL    HW167435   1.658   3.973  13.186
88532SOL    HW267436   1.732   4.012  13.313
88533SOL     OW67437   3.266   6.884   2.662
88533SOL    HW167438   3.262   6.878   2.757
88533SOL    HW267439   3.177   6.904   2.635
88534SOL     OW67440   5.955   0.679   5.080
88534SOL    HW167441   6.036   0.714   5.043
88534SOL    HW267442   5.974   0.587   5.099
88535SOL     OW67443  12.872  13.929   2.982
88535SOL    HW167444  12.958  13.898   2.955
88535SOL    HW267445  12.845  13.989   2.913
88536SOL     OW67446   9.481   2.190   5.974
88536SOL    HW167447   9.570   2.171   6.004
88536SOL    HW267448   9.485   2.183   5.879
88537SOL     OW67449  13.587   4.499   1.038
88537SOL    HW167450  13.530   4.570   1.067
88537SOL    HW267451  13.532   4.447   0.978
88538SOL     OW67452   4.106   5.478  11.994
88538SOL    HW167453   4.049   5.494  11.919
88538SOL    HW267454   4.079   5.542  12.059
88539SOL     OW67455  14.038  13.999  13.678
88539SOL    HW167456  13.953  13.962  13.704
88539SOL    HW267457  14.071  13.939  13.611
88540SOL     OW67458  12.151   6.338   2.141
88540SOL    HW167459  12.095   6.406   2.103
88540SOL    HW267460  12.110   6.318   2.225
88541SOL     OW67461   1.580   7.197  12.997
88541SOL    HW167462   1.516   7.249  13.047
88541SOL    HW267463   1.638   7.262  12.959
88542SOL     OW67464  14.526   7.403   1.944
88542SOL    HW167465  14.494   7.450   2.021
88542SOL    HW267466  14.470   7.435   1.872
88543SOL     OW67467   1.437  12.127   9.207
88543SOL    HW167468   1.523  12.155   9.238
88543SOL    HW267469   1.403  12.203   9.160
88544SOL     OW67470   1.879  10.350  13.565
88544SOL    HW167471   1.950  10.384  13.619
88544SOL    HW267472   1.908  10.364  13.475
88545SOL     OW67473   7.170   8.692   0.017
88545SOL    HW167474   7.154   8.681  14.803
88545SOL    HW267475   7.180   8.603   0.050
88546SOL     OW67476   1.088  11.152   6.948
88546SOL    HW167477   1.099  11.085   7.015
88546SOL    HW267478   1.160  11.213   6.963
88547SOL     OW67479   2.944   1.584   1.568
88547SOL    HW167480   2.938   1.583   1.472
88547SOL    HW267481   3.035   1.609   1.586
88548SOL     OW67482   6.846   0.308  12.199
88548SOL    HW167483   6.855   0.233  12.141
88548SOL    HW267484   6.828   0.382  12.141
88549SOL     OW67485   7.306   9.093  13.058
88549SOL    HW167486   7.256   9.147  13.119
88549SOL    HW267487   7.340   9.022  13.111
88550SOL     OW67488  13.769   7.444  10.218
88550SOL    HW167489  13.836   7.422  10.153
88550SOL    HW267490  13.711   7.505  10.173
88551SOL     OW67491  11.917  12.898   9.874
88551SOL    HW167492  11.930  12.838   9.801
88551SOL    HW267493  11.836  12.944   9.853
88552SOL     OW67494  12.360   8.538  12.643
88552SOL    HW167495  12.394   8.450  12.628
88552SOL    HW267496  12.419   8.595  12.593
88553SOL     OW67497   4.458   6.918   0.452
88553SOL    HW167498   4.535   6.862   0.443
88553SOL    HW267499   4.433   6.911   0.544
88554SOL     OW67500   3.829   2.799   6.329
88554SOL    HW167501   3.853   2.763   6.415
88554SOL    HW267502   3.754   2.747   6.301
88555SOL     OW67503  12.829   1.626   8.354
88555SOL    HW167504  12.747   1.673   8.371
88555SOL    HW267505  12.878   1.634   8.436
88556SOL     OW67506  14.197  12.613  14.794
88556SOL    HW167507  14.237  12.607   0.002
88556SOL    HW267508  14.253  12.674  14.747
88557SOL     OW67509  11.225   3.335  11.496
88557SOL    HW167510  11.218   3.243  11.523
88557SOL    HW267511  11.145   3.376  11.530
88558SOL     OW67512   8.949   5.961  12.933
88558SOL    HW167513   8.902   6.029  12.886
88558SOL    HW267514   8.963   5.997  13.020
88559SOL     OW67515   4.534   9.801   7.571
88559SOL    HW167516   4.628   9.810   7.555
88559SOL    HW267517   4.512   9.715   7.536
88560SOL     OW67518   3.835   2.860  11.906
88560SOL    HW167519   3.797   2.773  11.915
88560SOL    HW267520   3.899   2.851  11.835
88561SOL     OW67521   3.895   7.332   1.067
88561SOL    HW167522   3.824   7.314   1.004
88561SOL    HW267523   3.878   7.421   1.097
88562SOL     OW67524  10.567   3.617   4.072
88562SOL    HW167525  10.546   3.591   3.982
88562SOL    HW267526  10.548   3.539   4.124
88563SOL     OW67527  12.989   8.234   5.744
88563SOL    HW167528  12.971   8.283   5.664
88563SOL    HW267529  12.904   8.205   5.774
88564SOL     OW67530   7.008   9.289  10.961
88564SOL    HW167531   7.093   9.247  10.960
88564SOL    HW267532   6.954   9.236  10.902
88565SOL     OW67533   5.789  10.944   4.179
88565SOL    HW167534   5.725  10.900   4.124
88565SOL    HW267535   5.746  10.953   4.264
88566SOL     OW67536   8.844  11.928   2.873
88566SOL    HW167537   8.759  11.961   2.843
88566SOL    HW267538   8.888  12.005   2.909
88567SOL     OW67539   6.413  13.373   8.448
88567SOL    HW167540   6.453  13.297   8.407
88567SOL    HW267541   6.484  13.416   8.496
88568SOL     OW67542   4.474  12.270   5.547
88568SOL    HW167543   4.533  12.198   5.524
88568SOL    HW267544   4.483  12.278   5.642
88569SOL     OW67545  10.940   5.641   1.246
88569SOL    HW167546  10.994   5.720   1.256
88569SOL    HW267547  10.900   5.627   1.331
88570SOL     OW67548  12.017  14.041  13.049
88570SOL    HW167549  12.005  14.135  13.030
88570SOL    HW267550  11.982  14.031  13.138
88571SOL     OW67551  10.330   3.665  10.103
88571SOL    HW167552  10.288   3.751  10.106
88571SOL    HW267553  10.317   3.635  10.013
88572SOL     OW67554   8.577  10.075   8.246
88572SOL    HW167555   8.586  10.097   8.153
88572SOL    HW267556   8.666  10.055   8.275
88573SOL     OW67557   9.321   8.528   4.976
88573SOL    HW167558   9.251   8.485   4.928
88573SOL    HW267559   9.277   8.576   5.046
88574SOL     OW67560   9.702  12.171   2.344
88574SOL    HW167561   9.783  12.175   2.395
88574SOL    HW267562   9.703  12.253   2.293
88575SOL     OW67563   7.031  14.391   5.499
88575SOL    HW167564   6.992  14.305   5.484
88575SOL    HW267565   7.124  14.378   5.484
88576SOL     OW67566   2.331  10.933   2.985
88576SOL    HW167567   2.305  10.848   2.949
88576SOL    HW267568   2.249  10.973   3.014
88577SOL     OW67569   5.665   3.257   8.969
88577SOL    HW167570   5.631   3.345   8.955
88577SOL    HW267571   5.754   3.260   8.934
88578SOL     OW67572  14.379   7.402   9.159
88578SOL    HW167573  14.360   7.495   9.143
88578SOL    HW267574  14.474   7.397   9.158
88579SOL     OW67575   3.237   9.237   6.323
88579SOL    HW167576   3.200   9.325   6.322
88579SOL    HW267577   3.164   9.181   6.349
88580SOL     OW67578   7.607   9.521   0.556
88580SOL    HW167579   7.677   9.519   0.491
88580SOL    HW267580   7.645   9.567   0.631
88581SOL     OW67581   4.858   9.518   3.560
88581SOL    HW167582   4.846   9.535   3.654
88581SOL    HW267583   4.851   9.423   3.552
88582SOL     OW67584   1.457   9.878  13.244
88582SOL    HW167585   1.551   9.883  13.229
88582SOL    HW267586   1.439   9.949  13.306
88583SOL     OW67587  12.042   4.299  10.774
88583SOL    HW167588  12.124   4.290  10.822
88583SOL    HW267589  12.032   4.216  10.728
88584SOL     OW67590   7.849   3.689  12.350
88584SOL    HW167591   7.892   3.614  12.392
88584SOL    HW267592   7.882   3.765  12.397
88585SOL     OW67593  14.489  10.177   0.899
88585SOL    HW167594  14.544  10.100   0.909
88585SOL    HW267595  14.499  10.202   0.807
88586SOL     OW67596  14.585   4.001   8.850
88586SOL    HW167597  14.502   3.981   8.808
88586SOL    HW267598  14.642   4.029   8.779
88587SOL     OW67599   3.313  11.227   2.079
88587SOL    HW167600   3.405  11.251   2.091
88587SOL    HW267601   3.286  11.275   2.000
88588SOL     OW67602   6.769   4.635  11.500
88588SOL    HW167603   6.827   4.575  11.452
88588SOL    HW267604   6.780   4.719  11.455
88589SOL     OW67605  13.914  13.964   9.338
88589SOL    HW167606  13.917  14.006   9.424
88589SOL    HW267607  14.005  13.947   9.317
88590SOL     OW67608  10.890   4.805  10.737
88590SOL    HW167609  10.892   4.900  10.726
88590SOL    HW267610  10.958   4.787  10.801
88591SOL     OW67611   3.569   3.911   3.667
88591SOL    HW167612   3.593   3.889   3.577
88591SOL    HW267613   3.519   3.992   3.659
88592SOL     OW67614   9.788   6.911   1.610
88592SOL    HW167615   9.826   6.949   1.689
88592SOL    HW267616   9.697   6.893   1.634
88593SOL     OW67617   9.967   6.379  12.825
88593SOL    HW167618  10.055   6.414  12.815
88593SOL    HW267619   9.952   6.379  12.920
88594SOL     OW67620   3.560   0.450   3.563
88594SOL    HW167621   3.567   0.481   3.472
88594SOL    HW267622   3.601   0.518   3.615
88595SOL     OW67623   1.091   7.227  12.615
88595SOL    HW167624   1.104   7.132  12.623
88595SOL    HW267625   1.169   7.265  12.656
88596SOL     OW67626   8.195  13.236   3.035
88596SOL    HW167627   8.177  13.226   3.129
88596SOL    HW267628   8.274  13.290   3.031
88597SOL     OW67629   2.796  13.732   9.357
88597SOL    HW167630   2.783  13.645   9.394
88597SOL    HW267631   2.860  13.719   9.287
88598SOL     OW67632   7.219   2.765   7.178
88598SOL    HW167633   7.196   2.835   7.239
88598SOL    HW267634   7.282   2.711   7.226
88599SOL     OW67635  14.224   9.875  13.682
88599SOL    HW167636  14.214   9.968  13.662
88599SOL    HW267637  14.134   9.842  13.690
88600SOL     OW67638   3.352   6.129  10.672
88600SOL    HW167639   3.285   6.154  10.608
88600SOL    HW267640   3.368   6.209  10.722
88601SOL     OW67641  12.415  14.588  14.276
88601SOL    HW167642  12.502  14.607  14.242
88601SOL    HW267643  12.364  14.667  14.258
88602SOL     OW67644  11.101   2.740   5.989
88602SOL    HW167645  11.084   2.728   6.082
88602SOL    HW267646  11.025   2.702   5.945
88603SOL     OW67647   3.190   9.497   6.313
88603SOL    HW167648   3.282   9.517   6.295
88603SOL    HW267649   3.143   9.579   6.297
88604SOL     OW67650   6.908  10.387   4.564
88604SOL    HW167651   6.819  10.394   4.530
88604SOL    HW267652   6.924  10.470   4.607
88605SOL     OW67653  11.863   7.992  13.014
88605SOL    HW167654  11.845   7.958  13.101
88605SOL    HW267655  11.855   8.087  13.024
88606SOL     OW67656  11.087  13.274   7.639
88606SOL    HW167657  11.020  13.323   7.687
88606SOL    HW267658  11.168  13.324   7.653
88607SOL     OW67659   9.029   0.187  11.066
88607SOL    HW167660   8.983   0.205  11.148
88607SOL    HW267661   8.977   0.117  11.025
88608SOL     OW67662   7.527   9.510  13.848
88608SOL    HW167663   7.574   9.439  13.805
88608SOL    HW267664   7.592   9.550  13.906
88609SOL     OW67665   8.498   6.778   3.888
88609SOL    HW167666   8.476   6.847   3.951
88609SOL    HW267667   8.517   6.701   3.941
88610SOL     OW67668   7.947  11.028  12.477
88610SOL    HW167669   7.879  11.075  12.429
88610SOL    HW267670   8.025  11.036  12.422
88611SOL     OW67671  13.510  14.810  11.206
88611SOL    HW167672  13.551  14.808  11.120
88611SOL    HW267673  13.427  14.762  11.194
88612SOL     OW67674   2.075   7.500  14.345
88612SOL    HW167675   2.156   7.457  14.374
88612SOL    HW267676   2.046   7.447  14.270
88613SOL     OW67677   8.567   0.358   4.124
88613SOL    HW167678   8.514   0.279   4.116
88613SOL    HW267679   8.652   0.327   4.156
88614SOL     OW67680   6.271   7.580  11.809
88614SOL    HW167681   6.285   7.645  11.879
88614SOL    HW267682   6.260   7.632  11.730
88615SOL     OW67683   7.546   4.220   6.636
88615SOL    HW167684   7.493   4.150   6.598
88615SOL    HW267685   7.507   4.301   6.601
88616SOL     OW67686   9.936  14.393   7.993
88616SOL    HW167687   9.840  14.393   7.994
88616SOL    HW267688   9.959  14.300   8.002
88617SOL     OW67689  13.600   0.000   1.839
88617SOL    HW167690  13.564  14.833   1.764
88617SOL    HW267691  13.557   0.085   1.838
88618SOL     OW67692   6.014  12.795   9.780
88618SOL    HW167693   5.985  12.704   9.785
88618SOL    HW267694   5.981  12.826   9.696
88619SOL     OW67695  12.021   4.355   2.221
88619SOL    HW167696  12.075   4.432   2.199
88619SOL    HW267697  11.936   4.392   2.244
88620SOL     OW67698   8.678   2.020   6.583
88620SOL    HW167699   8.662   2.059   6.497
88620SOL    HW267700   8.748   2.074   6.621
88621SOL     OW67701  11.362   4.988   3.677
88621SOL    HW167702  11.419   5.025   3.744
88621SOL    HW267703  11.411   4.913   3.642
88622SOL     OW67704  10.332   7.561   6.504
88622SOL    HW167705  10.321   7.497   6.574
88622SOL    HW267706  10.263   7.626   6.520
88623SOL     OW67707   4.014   3.348   4.676
88623SOL    HW167708   4.066   3.275   4.710
88623SOL    HW267709   3.984   3.319   4.590
88624SOL     OW67710   0.570   8.119   3.439
88624SOL    HW167711   0.628   8.191   3.412
88624SOL    HW267712   0.503   8.161   3.493
88625SOL     OW67713  12.121   2.037   1.690
88625SOL    HW167714  12.043   2.092   1.689
88625SOL    HW267715  12.194   2.099   1.679
88626SOL     OW67716   3.527   3.134   2.053
88626SOL    HW167717   3.584   3.201   2.015
88626SOL    HW267718   3.506   3.166   2.140
88627SOL     OW67719  11.540   3.119   6.117
88627SOL    HW167720  11.497   3.101   6.201
88627SOL    HW267721  11.470   3.107   6.052
88628SOL     OW67722  10.618  10.271  14.555
88628SOL    HW167723  10.530  10.280  14.591
88628SOL    HW267724  10.629  10.346  14.497
88629SOL     OW67725   4.373   1.310   7.763
88629SOL    HW167726   4.369   1.384   7.702
88629SOL    HW267727   4.315   1.244   7.725
88630SOL     OW67728   9.030   4.358  14.227
88630SOL    HW167729   9.045   4.408  14.307
88630SOL    HW267730   9.095   4.392  14.165
88631SOL     OW67731  12.609   5.492   6.629
88631SOL    HW167732  12.580   5.434   6.559
88631SOL    HW267733  12.703   5.502   6.615
88632SOL     OW67734   6.235   5.418   2.764
88632SOL    HW167735   6.328   5.407   2.782
88632SOL    HW267736   6.210   5.341   2.713
88633SOL     OW67737   4.215  14.050   0.239
88633SOL    HW167738   4.238  14.109   0.311
88633SOL    HW267739   4.295  14.045   0.186
88634SOL     OW67740   6.809   3.576   5.761
88634SOL    HW167741   6.755   3.626   5.700
88634SOL    HW267742   6.748   3.544   5.827
88635SOL     OW67743  14.185  11.770   1.380
88635SOL    HW167744  14.104  11.821   1.368
88635SOL    HW267745  14.177  11.733   1.468
88636SOL     OW67746  14.597  11.897   9.809
88636SOL    HW167747  14.651  11.873   9.884
88636SOL    HW267748  14.569  11.813   9.771
88637SOL     OW67749   8.809   1.482   0.548
88637SOL    HW167750   8.773   1.397   0.524
88637SOL    HW267751   8.768   1.503   0.632
88638SOL     OW67752  11.258   3.152   5.676
88638SOL    HW167753  11.181   3.117   5.632
88638SOL    HW267754  11.254   3.246   5.660
88639SOL     OW67755  12.990   3.167   8.759
88639SOL    HW167756  12.901   3.172   8.794
88639SOL    HW267757  13.037   3.239   8.802
88640SOL     OW67758   9.639   0.670   6.921
88640SOL    HW167759   9.558   0.658   6.971
88640SOL    HW267760   9.616   0.642   6.832
88641SOL     OW67761   3.530   9.966   1.573
88641SOL    HW167762   3.455   9.976   1.514
88641SOL    HW267763   3.556   9.875   1.564
88642SOL     OW67764   3.958   2.846   7.170
88642SOL    HW167765   4.029   2.801   7.217
88642SOL    HW267766   3.899   2.776   7.144
88643SOL     OW67767  11.325   7.651  12.178
88643SOL    HW167768  11.340   7.645  12.084
88643SOL    HW267769  11.334   7.744  12.198
88644SOL     OW67770   4.200  14.044   8.042
88644SOL    HW167771   4.291  14.036   8.015
88644SOL    HW267772   4.204  14.062   8.136
88645SOL     OW67773  12.836   5.846  14.141
88645SOL    HW167774  12.841   5.940  14.124
88645SOL    HW267775  12.773   5.838  14.212
88646SOL     OW67776   7.166   0.141   3.790
88646SOL    HW167777   7.093   0.189   3.750
88646SOL    HW267778   7.231   0.135   3.721
88647SOL     OW67779   4.795  14.661  12.538
88647SOL    HW167780   4.816  14.568  12.527
88647SOL    HW267781   4.850  14.689  12.612
88648SOL     OW67782   0.884  11.273   0.601
88648SOL    HW167783   0.941  11.204   0.634
88648SOL    HW267784   0.848  11.314   0.679
88649SOL     OW67785   4.577   5.259  10.836
88649SOL    HW167786   4.573   5.259  10.931
88649SOL    HW267787   4.650   5.317  10.814
88650SOL     OW67788   4.679   9.445  14.683
88650SOL    HW167789   4.716   9.533  14.684
88650SOL    HW267790   4.713   9.403  14.762
88651SOL     OW67791  12.536  13.333  14.280
88651SOL    HW167792  12.497  13.249  14.304
88651SOL    HW267793  12.488  13.398  14.332
88652SOL     OW67794   8.937  12.765   2.701
88652SOL    HW167795   8.975  12.685   2.739
88652SOL    HW267796   9.011  12.808   2.658
88653SOL     OW67797  11.740  11.132   1.307
88653SOL    HW167798  11.718  11.098   1.220
88653SOL    HW267799  11.755  11.054   1.361
88654SOL     OW67800   2.833   8.037  13.425
88654SOL    HW167801   2.740   8.058  13.432
88654SOL    HW267802   2.874   8.120  13.400
88655SOL     OW67803  10.121   4.983   7.202
88655SOL    HW167804  10.202   5.030   7.185
88655SOL    HW267805  10.134   4.941   7.288
88656SOL     OW67806  14.309   3.481   5.247
88656SOL    HW167807  14.300   3.474   5.342
88656SOL    HW267808  14.400   3.455   5.229
88657SOL     OW67809   4.413   4.934   4.037
88657SOL    HW167810   4.372   4.864   3.986
88657SOL    HW267811   4.444   4.996   3.972
88658SOL     OW67812   2.636   9.248  10.854
88658SOL    HW167813   2.607   9.274  10.767
88658SOL    HW267814   2.644   9.331  10.902
88659SOL     OW67815   3.529   8.759  10.784
88659SOL    HW167816   3.472   8.836  10.788
88659SOL    HW267817   3.471   8.687  10.761
88660SOL     OW67818   0.740   6.827   0.827
88660SOL    HW167819   0.768   6.873   0.906
88660SOL    HW267820   0.802   6.754   0.819
88661SOL     OW67821   0.362   3.216   8.844
88661SOL    HW167822   0.282   3.264   8.824
88661SOL    HW267823   0.358   3.138   8.789
88662SOL     OW67824   0.554   6.340   2.761
88662SOL    HW167825   0.572   6.273   2.694
88662SOL    HW267826   0.578   6.298   2.844
88663SOL     OW67827   5.488   0.757   5.289
88663SOL    HW167828   5.420   0.729   5.227
88663SOL    HW267829   5.568   0.762   5.236
88664SOL     OW67830   2.161   4.979   7.787
88664SOL    HW167831   2.242   4.928   7.779
88664SOL    HW267832   2.104   4.925   7.841
88665SOL     OW67833   3.629   8.300   6.844
88665SOL    HW167834   3.627   8.302   6.940
88665SOL    HW267835   3.544   8.333   6.817
88666SOL     OW67836   7.887  11.608   6.297
88666SOL    HW167837   7.843  11.692   6.297
88666SOL    HW267838   7.857  11.565   6.377
88667SOL     OW67839  14.873  12.979   1.914
88667SOL    HW167840  14.835  13.038   1.980
88667SOL    HW267841  14.873  13.030   1.834
88668SOL     OW67842   0.512   9.878   0.430
88668SOL    HW167843   0.573   9.805   0.445
88668SOL    HW267844   0.430   9.849   0.470
88669SOL     OW67845   0.098  13.055   0.526
88669SOL    HW167846   0.032  12.986   0.522
88669SOL    HW267847   0.113  13.079   0.434
88670SOL     OW67848   8.644   4.584  10.252
88670SOL    HW167849   8.630   4.649  10.183
88670SOL    HW267850   8.728   4.544  10.230
88671SOL     OW67851   8.473  12.722   6.125
88671SOL    HW167852   8.425  12.752   6.048
88671SOL    HW267853   8.418  12.654   6.163
88672SOL     OW67854   7.367   8.587   9.214
88672SOL    HW167855   7.327   8.671   9.237
88672SOL    HW267856   7.339   8.527   9.283
88673SOL     OW67857   6.803   8.000   2.624
88673SOL    HW167858   6.716   7.998   2.664
88673SOL    HW267859   6.863   8.000   2.698
88674SOL     OW67860  14.307   0.931   2.330
88674SOL    HW167861  14.277   1.019   2.307
88674SOL    HW267862  14.392   0.945   2.372
88675SOL     OW67863  14.592  11.471  13.247
88675SOL    HW167864  14.516  11.500  13.297
88675SOL    HW267865  14.666  11.516  13.287
88676SOL     OW67866   2.309   8.428  13.119
88676SOL    HW167867   2.321   8.516  13.156
88676SOL    HW267868   2.215   8.419  13.108
88677SOL     OW67869   7.906   8.163  13.414
88677SOL    HW167870   7.882   8.246  13.455
88677SOL    HW267871   7.918   8.185  13.321
88678SOL     OW67872  10.576   6.674   1.137
88678SOL    HW167873  10.491   6.696   1.174
88678SOL    HW267874  10.630   6.752   1.150
88679SOL     OW67875   1.666  11.924  12.612
88679SOL    HW167876   1.754  11.888  12.623
88679SOL    HW267877   1.666  12.003  12.665
88680SOL     OW67878   8.551   4.491   3.276
88680SOL    HW167879   8.509   4.528   3.354
88680SOL    HW267880   8.479   4.448   3.229
88681SOL     OW67881   8.073   2.512   7.722
88681SOL    HW167882   8.059   2.497   7.816
88681SOL    HW267883   8.053   2.428   7.681
88682SOL     OW67884  14.655   9.385   1.146
88682SOL    HW167885  14.591   9.441   1.103
88682SOL    HW267886  14.607   9.304   1.166
88683SOL     OW67887   0.561  12.280   5.130
88683SOL    HW167888   0.607  12.339   5.189
88683SOL    HW267889   0.622  12.206   5.119
88684SOL     OW67890  10.478  11.784  11.073
88684SOL    HW167891  10.417  11.734  11.019
88684SOL    HW267892  10.444  11.873  11.071
88685SOL     OW67893   0.722  10.839  11.474
88685SOL    HW167894   0.811  10.809  11.456
88685SOL    HW267895   0.719  10.851  11.568
88686SOL     OW67896   6.647  12.349   6.926
88686SOL    HW167897   6.723  12.389   6.969
88686SOL    HW267898   6.683  12.272   6.881
88687SOL     OW67899   0.812  12.942   9.209
88687SOL    HW167900   0.880  12.919   9.145
88687SOL    HW267901   0.730  12.932   9.161
88688SOL     OW67902   6.357   5.793   6.510
88688SOL    HW167903   6.357   5.709   6.465
88688SOL    HW267904   6.434   5.790   6.566
88689SOL     OW67905   0.639   9.985   2.570
88689SOL    HW167906   0.715  10.014   2.621
88689SOL    HW267907   0.676   9.945   2.492
88690SOL     OW67908  12.221  13.194   9.346
88690SOL    HW167909  12.145  13.172   9.399
88690SOL    HW267910  12.188  13.197   9.256
88691SOL     OW67911  10.775   8.483   7.972
88691SOL    HW167912  10.686   8.451   7.978
88691SOL    HW267913  10.823   8.433   8.038
88692SOL     OW67914  14.193   0.096  10.680
88692SOL    HW167915  14.259   0.127  10.742
88692SOL    HW267916  14.149   0.024  10.726
88693SOL     OW67917   2.868   8.046   6.534
88693SOL    HW167918   2.911   8.009   6.611
88693SOL    HW267919   2.887   7.983   6.464
88694SOL     OW67920   4.801  12.797  14.453
88694SOL    HW167921   4.712  12.790  14.488
88694SOL    HW267922   4.848  12.849  14.518
88695SOL     OW67923   7.925   3.023  12.649
88695SOL    HW167924   7.914   2.929  12.635
88695SOL    HW267925   7.847   3.062  12.611
88696SOL     OW67926   4.431  11.838   8.877
88696SOL    HW167927   4.370  11.799   8.939
88696SOL    HW267928   4.438  11.929   8.903
88697SOL     OW67929   9.003  11.015   9.419
88697SOL    HW167930   8.933  11.069   9.382
88697SOL    HW267931   9.078  11.030   9.361
88698SOL     OW67932  10.774   8.492   2.412
88698SOL    HW167933  10.806   8.447   2.490
88698SOL    HW267934  10.685   8.519   2.435
88699SOL     OW67935  12.612   4.900   5.125
88699SOL    HW167936  12.643   4.877   5.037
88699SOL    HW267937  12.672   4.856   5.185
88700SOL     OW67938   3.299   4.995   8.221
88700SOL    HW167939   3.301   4.904   8.191
88700SOL    HW267940   3.221   5.000   8.277
88701SOL     OW67941   8.213   9.402  12.066
88701SOL    HW167942   8.210   9.311  12.038
88701SOL    HW267943   8.223   9.452  11.985
88702SOL     OW67944   1.824  11.848   9.593
88702SOL    HW167945   1.832  11.841   9.498
88702SOL    HW267946   1.886  11.783   9.627
88703SOL     OW67947   3.135   2.509   7.706
88703SOL    HW167948   3.167   2.587   7.751
88703SOL    HW267949   3.179   2.510   7.621
88704SOL     OW67950  11.279  12.823  11.710
88704SOL    HW167951  11.232  12.779  11.639
88704SOL    HW267952  11.224  12.811  11.787
88705SOL     OW67953   0.101   9.874   6.349
88705SOL    HW167954   0.047   9.946   6.382
88705SOL    HW267955   0.161   9.853   6.420
88706SOL     OW67956   9.673  10.236   5.821
88706SOL    HW167957   9.594  10.182   5.822
88706SOL    HW267958   9.671  10.284   5.904
88707SOL     OW67959   1.263  10.994   2.698
88707SOL    HW167960   1.262  11.076   2.648
88707SOL    HW267961   1.208  10.934   2.648
88708SOL     OW67962   3.469   4.015   2.502
88708SOL    HW167963   3.422   3.936   2.531
88708SOL    HW267964   3.432   4.086   2.555
88709SOL     OW67965   0.229   6.157   8.969
88709SOL    HW167966   0.282   6.156   9.049
88709SOL    HW267967   0.273   6.219   8.912
88710SOL     OW67968  13.868   5.536   5.197
88710SOL    HW167969  13.888   5.575   5.112
88710SOL    HW267970  13.792   5.585   5.229
88711SOL     OW67971  10.678   2.183  11.141
88711SOL    HW167972  10.679   2.096  11.101
88711SOL    HW267973  10.747   2.231  11.094
88712SOL     OW67974  10.015   8.358   5.179
88712SOL    HW167975   9.948   8.413   5.140
88712SOL    HW267976  10.060   8.415   5.241
88713SOL     OW67977   7.153   2.992  13.452
88713SOL    HW167978   7.124   3.012  13.541
88713SOL    HW267979   7.244   3.020  13.449
88714SOL     OW67980   7.077   4.089   7.492
88714SOL    HW167981   7.117   4.003   7.508
88714SOL    HW267982   7.150   4.150   7.499
88715SOL     OW67983   7.715  11.817   6.241
88715SOL    HW167984   7.662  11.894   6.219
88715SOL    HW267985   7.654  11.758   6.286
88716SOL     OW67986   5.446  13.166  11.785
88716SOL    HW167987   5.511  13.175  11.715
88716SOL    HW267988   5.439  13.253  11.824
88717SOL     OW67989  10.596  13.147   5.285
88717SOL    HW167990  10.543  13.072   5.312
88717SOL    HW267991  10.549  13.182   5.209
88718SOL     OW67992   8.140   7.340   4.706
88718SOL    HW167993   8.068   7.284   4.737
88718SOL    HW267994   8.110   7.429   4.726
88719SOL     OW67995   4.132   0.119  10.109
88719SOL    HW167996   4.207   0.060  10.121
88719SOL    HW267997   4.056   0.062  10.117
88720SOL     OW67998   5.956   4.220   3.088
88720SOL    HW167999   5.894   4.275   3.136
88720SOL    HW268000   6.037   4.271   3.087
88721SOL     OW68001   5.202  10.590   5.275
88721SOL    HW168002   5.154  10.658   5.228
88721SOL    HW268003   5.286  10.583   5.229
88722SOL     OW68004   2.040   5.895  10.118
88722SOL    HW168005   2.048   5.801  10.102
88722SOL    HW268006   2.122   5.932  10.085
88723SOL     OW68007   5.060  12.671   8.526
88723SOL    HW168008   5.095  12.600   8.579
88723SOL    HW268009   5.033  12.629   8.445
88724SOL     OW68010   3.741  11.619  11.830
88724SOL    HW168011   3.702  11.688  11.885
88724SOL    HW268012   3.778  11.666  11.755
88725SOL     OW68013  10.011   6.012   9.719
88725SOL    HW168014  10.015   5.933   9.774
88725SOL    HW268015  10.058   6.078   9.770
88726SOL     OW68016   7.959   1.835   2.006
88726SOL    HW168017   7.893   1.902   1.987
88726SOL    HW268018   7.942   1.809   2.096
88727SOL     OW68019   9.102   1.527   7.527
88727SOL    HW168020   9.138   1.566   7.607
88727SOL    HW268021   9.142   1.576   7.456
88728SOL     OW68022   6.278   9.037   5.101
88728SOL    HW168023   6.229   8.955   5.098
88728SOL    HW268024   6.290   9.054   5.195
88729SOL     OW68025   8.073   0.726   9.970
88729SOL    HW168026   8.073   0.752  10.062
88729SOL    HW268027   8.098   0.634   9.971
88730SOL     OW68028  12.361   5.059   7.209
88730SOL    HW168029  12.345   4.975   7.168
88730SOL    HW268030  12.323   5.123   7.149
88731SOL     OW68031   4.167  14.676   8.887
88731SOL    HW168032   4.188  14.711   8.800
88731SOL    HW268033   4.092  14.728   8.916
88732SOL     OW68034   9.593   3.540  13.831
88732SOL    HW168035   9.685   3.553  13.857
88732SOL    HW268036   9.543   3.586  13.899
88733SOL     OW68037   5.845   4.399  14.815
88733SOL    HW168038   5.764   4.408  14.765
88733SOL    HW268039   5.911   4.374  14.750
88734SOL     OW68040   6.073   8.300   6.957
88734SOL    HW168041   6.117   8.384   6.942
88734SOL    HW268042   6.131   8.235   6.916
88735SOL     OW68043  14.304   9.154   9.529
88735SOL    HW168044  14.279   9.094   9.599
88735SOL    HW268045  14.380   9.114   9.488
88736SOL     OW68046   9.358   3.868  12.700
88736SOL    HW168047   9.453   3.866  12.711
88736SOL    HW268048   9.326   3.795  12.753
88737SOL     OW68049   6.172   5.591   3.710
88737SOL    HW168050   6.141   5.664   3.763
88737SOL    HW268051   6.169   5.515   3.768
88738SOL     OW68052   5.565   0.517   5.457
88738SOL    HW168053   5.636   0.574   5.486
88738SOL    HW268054   5.523   0.565   5.385
88739SOL     OW68055   9.968  14.573   0.776
88739SOL    HW168056   9.946  14.525   0.696
88739SOL    HW268057   9.886  14.573   0.826
88740SOL     OW68058   1.120   1.673   2.919
88740SOL    HW168059   1.035   1.684   2.877
88740SOL    HW268060   1.099   1.638   3.006
88741SOL     OW68061   4.336   7.896  12.457
88741SOL    HW168062   4.386   7.952  12.515
88741SOL    HW268063   4.391   7.886  12.379
88742SOL     OW68064   3.695   8.646   6.080
88742SOL    HW168065   3.610   8.679   6.109
88742SOL    HW268066   3.723   8.708   6.013
88743SOL     OW68067  13.313  12.254   7.888
88743SOL    HW168068  13.229  12.213   7.906
88743SOL    HW268069  13.376  12.182   7.887
88744SOL     OW68070   7.984   7.127   1.854
88744SOL    HW168071   7.924   7.201   1.859
88744SOL    HW268072   7.966   7.087   1.769
88745SOL     OW68073   1.486   9.861   4.691
88745SOL    HW168074   1.428   9.863   4.768
88745SOL    HW268075   1.568   9.826   4.724
88746SOL     OW68076  13.475   2.234   9.363
88746SOL    HW168077  13.474   2.285   9.283
88746SOL    HW268078  13.547   2.172   9.351
88747SOL     OW68079   5.481   1.669   3.112
88747SOL    HW168080   5.565   1.711   3.132
88747SOL    HW268081   5.424   1.741   3.085
88748SOL     OW68082   2.409  10.755   8.699
88748SOL    HW168083   2.377  10.669   8.671
88748SOL    HW268084   2.498  10.739   8.729
88749SOL     OW68085   3.124  11.349  13.225
88749SOL    HW168086   3.059  11.339  13.295
88749SOL    HW268087   3.126  11.443  13.206
88750SOL     OW68088  12.787  10.977   9.084
88750SOL    HW168089  12.881  10.975   9.104
88750SOL    HW268090  12.749  10.908   9.138
88751SOL     OW68091   4.198   5.860   5.492
88751SOL    HW168092   4.185   5.910   5.411
88751SOL    HW268093   4.191   5.924   5.562
88752SOL     OW68094   6.405   6.169  12.961
88752SOL    HW168095   6.388   6.082  12.997
88752SOL    HW268096   6.472   6.154  12.894
88753SOL     OW68097   8.687   4.319  13.122
88753SOL    HW168098   8.686   4.344  13.029
88753SOL    HW268099   8.736   4.389  13.165
88754SOL     OW68100  10.636  11.948  10.057
88754SOL    HW168101  10.636  12.036  10.019
88754SOL    HW268102  10.637  11.889   9.981
88755SOL     OW68103  10.886   0.690  12.353
88755SOL    HW168104  10.904   0.679  12.447
88755SOL    HW268105  10.955   0.748  12.322
88756SOL     OW68106   1.107  14.252   0.529
88756SOL    HW168107   1.064  14.279   0.448
88756SOL    HW268108   1.058  14.175   0.557
88757SOL     OW68109   0.459  12.152  13.478
88757SOL    HW168110   0.489  12.170  13.389
88757SOL    HW268111   0.410  12.070  13.471
88758SOL     OW68112   9.436   5.157  10.127
88758SOL    HW168113   9.518   5.157  10.077
88758SOL    HW268114   9.424   5.065  10.153
88759SOL     OW68115   6.030   7.238  10.543
88759SOL    HW168116   5.936   7.223  10.551
88759SOL    HW268117   6.040   7.333  10.538
88760SOL     OW68118  12.447   5.300   7.809
88760SOL    HW168119  12.452   5.286   7.714
88760SOL    HW268120  12.429   5.393   7.818
88761SOL     OW68121   0.542   0.616  14.009
88761SOL    HW168122   0.447   0.628  14.009
88761SOL    HW268123   0.574   0.676  13.941
88762SOL     OW68124  12.652   1.444  14.707
88762SOL    HW168125  12.564   1.480  14.723
88762SOL    HW268126  12.653   1.425  14.613
88763SOL     OW68127   0.564  12.883   1.455
88763SOL    HW168128   0.510  12.812   1.491
88763SOL    HW268129   0.653  12.849   1.456
88764SOL     OW68130   8.931  14.276   8.069
88764SOL    HW168131   8.937  14.270   8.164
88764SOL    HW268132   8.880  14.356   8.053
88765SOL     OW68133   4.673  12.180  11.572
88765SOL    HW168134   4.633  12.253  11.618
88765SOL    HW268135   4.643  12.188  11.482
88766SOL     OW68136   5.836   3.733  14.857
88766SOL    HW168137   5.776   3.695  14.793
88766SOL    HW268138   5.887   3.797  14.806
88767SOL     OW68139  11.256   5.213   0.908
88767SOL    HW168140  11.239   5.172   0.993
88767SOL    HW268141  11.327   5.161   0.871
88768SOL     OW68142  13.273  10.824   2.611
88768SOL    HW168143  13.325  10.745   2.628
88768SOL    HW268144  13.326  10.874   2.548
88769SOL     OW68145   3.007  13.943  12.127
88769SOL    HW168146   2.978  13.983  12.045
88769SOL    HW268147   3.026  14.017  12.184
88770SOL     OW68148   7.111  13.907  12.295
88770SOL    HW168149   7.029  13.946  12.326
88770SOL    HW268150   7.131  13.954  12.215
88771SOL     OW68151   8.387  12.372   6.016
88771SOL    HW168152   8.307  12.402   6.059
88771SOL    HW268153   8.372  12.279   6.000
88772SOL     OW68154   1.886   2.905   6.096
88772SOL    HW168155   1.872   2.924   6.004
88772SOL    HW268156   1.864   2.812   6.105
88773SOL     OW68157   6.701  14.052   3.645
88773SOL    HW168158   6.731  14.047   3.736
88773SOL    HW268159   6.746  14.128   3.609
88774SOL     OW68160  14.191  11.124   6.720
88774SOL    HW168161  14.097  11.134   6.736
88774SOL    HW268162  14.220  11.212   6.695
88775SOL     OW68163   3.355   4.475  13.205
88775SOL    HW168164   3.341   4.564  13.173
88775SOL    HW268165   3.287   4.423  13.161
88776SOL     OW68166   2.918  12.368  14.873
88776SOL    HW168167   2.977  12.366   0.068
88776SOL    HW268168   2.830  12.370   0.032
88777SOL     OW68169  14.875   9.804  10.896
88777SOL    HW168170  14.815   9.874  10.868
88777SOL    HW268171  14.840   9.725  10.856
88778SOL     OW68172   9.782  14.787   7.990
88778SOL    HW168173   9.725  14.777   8.066
88778SOL    HW268174   9.857  14.837   8.021
88779SOL     OW68175   7.714   6.131  12.994
88779SOL    HW168176   7.675   6.045  13.005
88779SOL    HW268177   7.704   6.151  12.901
88780SOL     OW68178   6.212   2.550  14.715
88780SOL    HW168179   6.236   2.632  14.672
88780SOL    HW268180   6.296   2.509  14.735
88781SOL     OW68181  13.026  12.450   5.733
88781SOL    HW168182  13.089  12.521   5.742
88781SOL    HW268183  12.944  12.494   5.710
88782SOL     OW68184   4.916   9.890   5.437
88782SOL    HW168185   4.881   9.844   5.514
88782SOL    HW268186   5.003   9.850   5.423
88783SOL     OW68187   4.432   3.336  12.516
88783SOL    HW168188   4.378   3.267  12.554
88783SOL    HW268189   4.426   3.408  12.578
88784SOL     OW68190   1.660   3.353  11.024
88784SOL    HW168191   1.603   3.383  10.953
88784SOL    HW268192   1.731   3.307  10.980
88785SOL     OW68193  13.224   8.530   3.839
88785SOL    HW168194  13.177   8.608   3.866
88785SOL    HW268195  13.287   8.561   3.774
88786SOL     OW68196   4.445  12.082   4.570
88786SOL    HW168197   4.530  12.078   4.525
88786SOL    HW268198   4.398  12.153   4.525
88787SOL     OW68199   5.126   8.634   8.736
88787SOL    HW168200   5.038   8.627   8.700
88787SOL    HW268201   5.183   8.596   8.669
88788SOL     OW68202   3.167   4.798   5.599
88788SOL    HW168203   3.147   4.857   5.671
88788SOL    HW268204   3.241   4.745   5.631
88789SOL     OW68205   9.371  10.783   9.997
88789SOL    HW168206   9.365  10.713  10.062
88789SOL    HW268207   9.305  10.761   9.931
88790SOL     OW68208  10.202  14.468  10.696
88790SOL    HW168209  10.163  14.381  10.686
88790SOL    HW268210  10.232  14.471  10.787
88791SOL     OW68211   0.947  14.485  14.825
88791SOL    HW168212   0.978  14.486   0.036
88791SOL    HW268213   0.852  14.493  14.832
88792SOL     OW68214   3.616  12.470  12.611
88792SOL    HW168215   3.692  12.467  12.554
88792SOL    HW268216   3.542  12.483  12.552
88793SOL     OW68217   8.845   4.075   0.856
88793SOL    HW168218   8.793   4.024   0.918
88793SOL    HW268219   8.787   4.146   0.829
88794SOL     OW68220   8.645   2.625  10.627
88794SOL    HW168221   8.571   2.565  10.617
88794SOL    HW268222   8.712   2.572  10.671
88795SOL     OW68223   7.986   7.144   3.622
88795SOL    HW168224   7.927   7.188   3.682
88795SOL    HW268225   8.056   7.208   3.607
88796SOL     OW68226   8.604   0.585   8.510
88796SOL    HW168227   8.533   0.526   8.533
88796SOL    HW268228   8.678   0.527   8.492
88797SOL     OW68229   2.741   9.972  14.870
88797SOL    HW168230   2.661   9.948  14.822
88797SOL    HW268231   2.723  10.061   0.022
88798SOL     OW68232   2.166   2.507   7.892
88798SOL    HW168233   2.143   2.557   7.970
88798SOL    HW268234   2.192   2.421   7.924
88799SOL     OW68235   7.526   2.165   4.196
88799SOL    HW168236   7.491   2.114   4.123
88799SOL    HW268237   7.614   2.190   4.167
88800SOL     OW68238   8.788  14.682  14.736
88800SOL    HW168239   8.882  14.667  14.739
88800SOL    HW268240   8.765  14.678  14.643
88801SOL     OW68241   3.259  14.765   9.132
88801SOL    HW168242   3.165  14.771   9.113
88801SOL    HW268243   3.265  14.709   9.209
88802SOL     OW68244  14.261  11.609   7.144
88802SOL    HW168245  14.352  11.589   7.123
88802SOL    HW268246  14.219  11.619   7.059
88803SOL     OW68247   6.553   8.131   2.206
88803SOL    HW168248   6.546   8.151   2.299
88803SOL    HW268249   6.539   8.037   2.200
88804SOL     OW68250   2.565   5.607   3.295
88804SOL    HW168251   2.660   5.595   3.294
88804SOL    HW268252   2.529   5.522   3.269
88805SOL     OW68253   0.427  10.256  13.519
88805SOL    HW168254   0.360  10.318  13.550
88805SOL    HW268255   0.377  10.180  13.489
88806SOL     OW68256  13.578   4.833  14.716
88806SOL    HW168257  13.483   4.841  14.716
88806SOL    HW268258  13.608   4.903  14.658
88807SOL     OW68259  14.331  11.159   5.017
88807SOL    HW168260  14.289  11.145   4.932
88807SOL    HW268261  14.366  11.248   5.012
88808SOL     OW68262  14.487   4.962   6.330
88808SOL    HW168263  14.459   5.039   6.281
88808SOL    HW268264  14.508   4.995   6.417
88809SOL     OW68265   1.306   9.206  11.891
88809SOL    HW168266   1.270   9.214  11.980
88809SOL    HW268267   1.390   9.161  11.903
88810SOL     OW68268  10.967   6.417   9.108
88810SOL    HW168269  10.973   6.513   9.108
88810SOL    HW268270  11.030   6.389   9.042
88811SOL     OW68271  10.199   4.514   3.750
88811SOL    HW168272  10.235   4.425   3.752
88811SOL    HW268273  10.124   4.510   3.810
88812SOL     OW68274   0.734   1.693   3.451
88812SOL    HW168275   0.707   1.612   3.493
88812SOL    HW268276   0.732   1.674   3.358
88813SOL     OW68277   5.193  11.586  10.348
88813SOL    HW168278   5.207  11.491  10.354
88813SOL    HW268279   5.206  11.606  10.255
88814SOL     OW68280  11.330   0.012   4.383
88814SOL    HW168281  11.414  14.850   4.404
88814SOL    HW268282  11.277  14.821   4.347
88815SOL     OW68283   8.999  11.628  11.271
88815SOL    HW168284   8.920  11.604  11.224
88815SOL    HW268285   9.062  11.653  11.203
88816SOL     OW68286   6.034  13.089  12.414
88816SOL    HW168287   6.090  13.044  12.478
88816SOL    HW268288   5.945  13.078  12.448
88817SOL     OW68289  12.683  10.329  10.238
88817SOL    HW168290  12.602  10.361  10.276
88817SOL    HW268291  12.731  10.290  10.311
88818SOL     OW68292  14.563   7.968   7.859
88818SOL    HW168293  14.573   7.979   7.953
88818SOL    HW268294  14.555   8.057   7.824
88819SOL     OW68295  11.120   4.377   4.037
88819SOL    HW168296  11.111   4.351   3.945
88819SOL    HW268297  11.090   4.301   4.086
88820SOL     OW68298   3.020   1.720   2.069
88820SOL    HW168299   2.956   1.700   2.138
88820SOL    HW268300   2.989   1.670   1.993
88821SOL     OW68301   1.959  13.570   4.521
88821SOL    HW168302   1.874  13.611   4.536
88821SOL    HW268303   2.022  13.631   4.558
88822SOL     OW68304   6.003  10.317   8.927
88822SOL    HW168305   6.001  10.345   9.019
88822SOL    HW268306   6.087  10.347   8.894
88823SOL     OW68307  10.927   0.611   0.297
88823SOL    HW168308  11.018   0.637   0.280
88823SOL    HW268309  10.932   0.517   0.315
88824SOL     OW68310   1.715  13.486   7.664
88824SOL    HW168311   1.725  13.580   7.680
88824SOL    HW268312   1.645  13.480   7.599
88825SOL     OW68313  13.367   0.742   3.745
88825SOL    HW168314  13.314   0.771   3.671
88825SOL    HW268315  13.304   0.706   3.807
88826SOL     OW68316   2.089   0.397   3.986
88826SOL    HW168317   2.077   0.490   4.006
88826SOL    HW268318   2.025   0.352   4.041
88827SOL     OW68319  13.378  13.757   2.956
88827SOL    HW168320  13.465  13.725   2.930
88827SOL    HW268321  13.349  13.695   3.022
88828SOL     OW68322   6.389   5.329   4.990
88828SOL    HW168323   6.420   5.289   5.071
88828SOL    HW268324   6.333   5.401   5.019
88829SOL     OW68325  10.336  13.764   7.635
88829SOL    HW168326  10.338  13.746   7.729
88829SOL    HW268327  10.377  13.687   7.595
88830SOL     OW68328   7.576   9.002   3.104
88830SOL    HW168329   7.665   8.981   3.077
88830SOL    HW268330   7.583   9.023   3.197
88831SOL     OW68331  14.233   7.716   0.211
88831SOL    HW168332  14.213   7.675   0.295
88831SOL    HW268333  14.233   7.644   0.148
88832SOL     OW68334   3.522   5.253   0.654
88832SOL    HW168335   3.559   5.333   0.616
88832SOL    HW268336   3.525   5.190   0.583
88833SOL     OW68337   2.594   7.990   6.527
88833SOL    HW168338   2.601   7.904   6.567
88833SOL    HW268339   2.672   8.037   6.556
88834SOL     OW68340   9.426  13.544   3.711
88834SOL    HW168341   9.435  13.590   3.795
88834SOL    HW268342   9.367  13.599   3.660
88835SOL     OW68343  10.693   7.826   0.617
88835SOL    HW168344  10.649   7.781   0.545
88835SOL    HW268345  10.664   7.780   0.696
88836SOL     OW68346   7.417  14.466  13.793
88836SOL    HW168347   7.415  14.414  13.712
88836SOL    HW268348   7.342  14.525  13.784
88837SOL     OW68349   2.567   8.205   8.443
88837SOL    HW168350   2.552   8.153   8.522
88837SOL    HW268351   2.662   8.207   8.433
88838SOL     OW68352  11.970   7.909   7.611
88838SOL    HW168353  11.945   7.828   7.566
88838SOL    HW268354  12.065   7.901   7.623
88839SOL     OW68355   3.766   7.601   5.352
88839SOL    HW168356   3.711   7.589   5.274
88839SOL    HW268357   3.808   7.516   5.366
88840SOL     OW68358   2.482   8.968  10.273
88840SOL    HW168359   2.479   8.900  10.205
88840SOL    HW268360   2.531   8.927  10.344
88841SOL     OW68361   5.068   3.804   8.933
88841SOL    HW168362   5.081   3.890   8.894
88841SOL    HW268363   5.051   3.746   8.858
88842SOL     OW68364   9.724   1.760   1.019
88842SOL    HW168365   9.727   1.853   0.996
88842SOL    HW268366   9.635   1.733   0.995
88843SOL     OW68367   4.678   4.934  14.252
88843SOL    HW168368   4.766   4.901  14.270
88843SOL    HW268369   4.692   5.012  14.199
88844SOL     OW68370   6.596   0.247  13.241
88844SOL    HW168371   6.537   0.235  13.167
88844SOL    HW268372   6.631   0.336  13.230
88845SOL     OW68373  14.273   0.295   7.401
88845SOL    HW168374  14.230   0.349   7.467
88845SOL    HW268375  14.341   0.351   7.365
88846SOL     OW68376  12.096  12.048  10.595
88846SOL    HW168377  12.083  12.035  10.689
88846SOL    HW268378  12.009  12.037  10.557
88847SOL     OW68379  11.550   5.288  11.027
88847SOL    HW168380  11.609   5.235  10.973
88847SOL    HW268381  11.487   5.225  11.062
88848SOL     OW68382   7.449   2.498  12.441
88848SOL    HW168383   7.435   2.407  12.467
88848SOL    HW268384   7.426   2.549  12.519
88849SOL     OW68385   7.051   3.267  14.131
88849SOL    HW168386   7.145   3.254  14.116
88849SOL    HW268387   7.008   3.225  14.056
88850SOL     OW68388   1.445   9.983   4.455
88850SOL    HW168389   1.490  10.067   4.448
88850SOL    HW268390   1.455   9.957   4.546
88851SOL     OW68391   0.640  10.206  12.144
88851SOL    HW168392   0.665  10.181  12.055
88851SOL    HW268393   0.704  10.272  12.170
88852SOL     OW68394  14.427  10.755   4.137
88852SOL    HW168395  14.480  10.743   4.058
88852SOL    HW268396  14.480  10.717   4.207
88853SOL     OW68397   6.033   6.674   2.038
88853SOL    HW168398   6.061   6.696   2.127
88853SOL    HW268399   6.086   6.731   1.982
88854SOL     OW68400   7.104   4.224  12.379
88854SOL    HW168401   7.055   4.201  12.300
88854SOL    HW268402   7.037   4.239  12.445
88855SOL     OW68403   5.507   7.560  13.931
88855SOL    HW168404   5.471   7.638  13.889
88855SOL    HW268405   5.597   7.556  13.901
88856SOL     OW68406  14.089   5.571  10.008
88856SOL    HW168407  14.179   5.593   9.982
88856SOL    HW268408  14.049   5.655  10.029
88857SOL     OW68409  13.868   8.786   8.187
88857SOL    HW168410  13.787   8.795   8.137
88857SOL    HW268411  13.896   8.876   8.203
88858SOL     OW68412   0.023  10.566   0.201
88858SOL    HW168413   0.017  10.596   0.291
88858SOL    HW268414   0.012  10.645   0.148
88859SOL     OW68415   0.318   4.815   0.047
88859SOL    HW168416   0.290   4.906   0.048
88859SOL    HW268417   0.340   4.796   0.138
88860SOL     OW68418   2.843   7.659   5.409
88860SOL    HW168419   2.898   7.600   5.461
88860SOL    HW268420   2.808   7.721   5.473
88861SOL     OW68421   6.161   8.422   7.603
88861SOL    HW168422   6.210   8.499   7.633
88861SOL    HW268423   6.144   8.372   7.683
88862SOL     OW68424   8.212   7.640   9.483
88862SOL    HW168425   8.172   7.720   9.449
88862SOL    HW268426   8.305   7.660   9.489
88863SOL     OW68427   3.584  10.691   3.961
88863SOL    HW168428   3.649  10.728   3.901
88863SOL    HW268429   3.535  10.629   3.908
88864SOL     OW68430   8.231   2.093   1.073
88864SOL    HW168431   8.236   2.072   1.166
88864SOL    HW268432   8.304   2.153   1.058
88865SOL     OW68433  12.935   8.786   5.591
88865SOL    HW168434  12.887   8.707   5.570
88865SOL    HW268435  12.874   8.857   5.573
88866SOL     OW68436  10.026   6.424   4.596
88866SOL    HW168437  10.085   6.471   4.654
88866SOL    HW268438  10.035   6.332   4.621
88867SOL     OW68439   1.081   1.314   1.036
88867SOL    HW168440   1.127   1.360   0.966
88867SOL    HW268441   1.037   1.241   0.992
88868SOL     OW68442  12.213   9.968  12.898
88868SOL    HW168443  12.205  10.038  12.832
88868SOL    HW268444  12.300   9.933  12.885
88869SOL     OW68445  13.907   4.714   0.382
88869SOL    HW168446  13.926   4.713   0.288
88869SOL    HW268447  13.860   4.632   0.397
88870SOL     OW68448   5.874   6.937   1.337
88870SOL    HW168449   5.940   6.959   1.403
88870SOL    HW268450   5.843   6.850   1.362
88871SOL     OW68451  11.954  14.441   2.014
88871SOL    HW168452  11.877  14.385   2.018
88871SOL    HW268453  11.966  14.473   2.103
88872SOL     OW68454   9.902   2.426   8.695
88872SOL    HW168455   9.955   2.466   8.764
88872SOL    HW268456   9.857   2.500   8.654
88873SOL     OW68457   3.918  12.823   0.100
88873SOL    HW168458   4.010  12.834   0.077
88873SOL    HW268459   3.907  12.728   0.105
88874SOL     OW68460  12.587   6.515  14.771
88874SOL    HW168461  12.613   6.535  14.681
88874SOL    HW268462  12.495   6.491  14.765
88875SOL     OW68463  11.486   6.596   3.087
88875SOL    HW168464  11.568   6.549   3.068
88875SOL    HW268465  11.483   6.666   3.022
88876SOL     OW68466   6.957   3.407  10.544
88876SOL    HW168467   6.964   3.401  10.449
88876SOL    HW268468   6.911   3.490  10.559
88877SOL     OW68469   8.164   3.958   2.232
88877SOL    HW168470   8.204   4.030   2.282
88877SOL    HW268471   8.223   3.884   2.245
88878SOL     OW68472   1.971   3.575   3.363
88878SOL    HW168473   1.985   3.515   3.436
88878SOL    HW268474   1.983   3.662   3.401
88879SOL     OW68475   3.674   5.435  10.562
88879SOL    HW168476   3.671   5.357  10.507
88879SOL    HW268477   3.711   5.503  10.506
88880SOL     OW68478   7.203   6.910   3.106
88880SOL    HW168479   7.284   6.894   3.155
88880SOL    HW268480   7.192   7.005   3.109
88881SOL     OW68481   7.077   6.760   2.245
88881SOL    HW168482   6.998   6.707   2.250
88881SOL    HW268483   7.064   6.815   2.167
88882SOL     OW68484   2.919  10.722   5.239
88882SOL    HW168485   2.855  10.792   5.252
88882SOL    HW268486   2.925  10.679   5.325
88883SOL     OW68487   9.614   6.031   6.498
88883SOL    HW168488   9.706   6.006   6.495
88883SOL    HW268489   9.591   6.050   6.407
88884SOL     OW68490   7.140   0.654  12.759
88884SOL    HW168491   7.183   0.680  12.678
88884SOL    HW268492   7.208   0.608  12.809
88885SOL     OW68493   7.986  14.588   5.750
88885SOL    HW168494   8.061  14.548   5.706
88885SOL    HW268495   7.998  14.566   5.842
88886SOL     OW68496   5.508   4.258  12.059
88886SOL    HW168497   5.417   4.289  12.060
88886SOL    HW268498   5.548   4.304  11.986
88887SOL     OW68499   3.422   0.923   4.917
88887SOL    HW168500   3.375   0.844   4.945
88887SOL    HW268501   3.506   0.891   4.886
88888SOL     OW68502   1.243   6.529   0.327
88888SOL    HW168503   1.270   6.545   0.418
88888SOL    HW268504   1.322   6.541   0.276
88889SOL     OW68505   0.457   5.486  13.713
88889SOL    HW168506   0.421   5.405  13.750
88889SOL    HW268507   0.527   5.456  13.655
88890SOL     OW68508   4.665   6.963   7.489
88890SOL    HW168509   4.633   6.900   7.424
88890SOL    HW268510   4.757   6.977   7.466
88891SOL     OW68511   6.188   7.473   1.836
88891SOL    HW168512   6.175   7.567   1.827
88891SOL    HW268513   6.188   7.458   1.931
88892SOL     OW68514   1.190  10.986   0.017
88892SOL    HW168515   1.213  11.019   0.103
88892SOL    HW268516   1.238  10.903   0.010
88893SOL     OW68517  10.018   4.326   7.559
88893SOL    HW168518  10.002   4.238   7.523
88893SOL    HW268519  10.095   4.357   7.512
88894SOL     OW68520   7.729   2.342  10.042
88894SOL    HW168521   7.732   2.281  10.115
88894SOL    HW268522   7.640   2.375  10.041
88895SOL     OW68523  14.352   3.590   6.229
88895SOL    HW168524  14.317   3.537   6.157
88895SOL    HW268525  14.346   3.681   6.197
88896SOL     OW68526  10.986   6.665   3.671
88896SOL    HW168527  11.062   6.718   3.693
88896SOL    HW268528  11.016   6.575   3.684
88897SOL     OW68529  12.043   4.953   8.394
88897SOL    HW168530  12.066   4.869   8.354
88897SOL    HW268531  12.116   5.011   8.370
88898SOL     OW68532   9.473   4.807  12.110
88898SOL    HW168533   9.536   4.871  12.143
88898SOL    HW268534   9.411   4.859  12.059
88899SOL     OW68535   9.721   6.041   2.640
88899SOL    HW168536   9.791   5.989   2.678
88899SOL    HW268537   9.677   5.982   2.579
88900SOL     OW68538  14.772  12.236   5.966
88900SOL    HW168539  14.763  12.318   5.919
88900SOL    HW268540  14.829  12.182   5.910
88901SOL     OW68541   1.389   8.106   5.189
88901SOL    HW168542   1.434   8.022   5.184
88901SOL    HW268543   1.450   8.164   5.235
88902SOL     OW68544   2.103   8.520   8.138
88902SOL    HW168545   2.145   8.588   8.085
88902SOL    HW268546   2.012   8.547   8.144
88903SOL     OW68547   5.622   1.088   2.453
88903SOL    HW168548   5.589   1.083   2.363
88903SOL    HW268549   5.638   0.997   2.477
88904SOL     OW68550   4.168   1.664   8.350
88904SOL    HW168551   4.226   1.597   8.314
88904SOL    HW268552   4.172   1.650   8.445
88905SOL     OW68553   6.413   7.776   9.445
88905SOL    HW168554   6.395   7.870   9.442
88905SOL    HW268555   6.341   7.739   9.496
88906SOL     OW68556   9.020   3.500   5.928
88906SOL    HW168557   9.015   3.564   5.998
88906SOL    HW268558   8.930   3.483   5.903
88907SOL     OW68559   9.673  12.685   8.854
88907SOL    HW168560   9.650  12.778   8.854
88907SOL    HW268561   9.747  12.679   8.914
88908SOL     OW68562   7.064  11.220  11.424
88908SOL    HW168563   7.144  11.168  11.436
88908SOL    HW268564   7.034  11.197  11.336
88909SOL     OW68565   0.380   2.980  13.989
88909SOL    HW168566   0.460   2.944  13.950
88909SOL    HW268567   0.343   2.908  14.040
88910SOL     OW68568   0.314   9.175  14.458
88910SOL    HW168569   0.268   9.099  14.494
88910SOL    HW268570   0.370   9.206  14.529
88911SOL     OW68571   8.134   0.453  10.009
88911SOL    HW168572   8.079   0.465  10.086
88911SOL    HW268573   8.086   0.391   9.954
88912SOL     OW68574   2.110   3.599   0.706
88912SOL    HW168575   2.031   3.551   0.681
88912SOL    HW268576   2.175   3.530   0.723
88913SOL     OW68577   6.637   9.166   9.049
88913SOL    HW168578   6.637   9.252   9.006
88913SOL    HW268579   6.609   9.184   9.139
88914SOL     OW68580   1.674   0.152   4.766
88914SOL    HW168581   1.705   0.064   4.744
88914SOL    HW268582   1.617   0.139   4.842
88915SOL     OW68583  10.906  14.161   7.577
88915SOL    HW168584  10.902  14.216   7.656
88915SOL    HW268585  10.858  14.211   7.511
88916SOL     OW68586  10.652   1.950   2.280
88916SOL    HW168587  10.715   1.885   2.312
88916SOL    HW268588  10.570   1.902   2.272
88917SOL     OW68589   5.060   6.125   7.687
88917SOL    HW168590   5.109   6.203   7.716
88917SOL    HW268591   5.114   6.089   7.616
88918SOL     OW68592  13.433  14.000   0.035
88918SOL    HW168593  13.356  14.039  14.872
88918SOL    HW268594  13.501  14.065   0.025
88919SOL     OW68595  14.230  12.950   0.343
88919SOL    HW168596  14.199  12.892   0.412
88919SOL    HW268597  14.222  13.038   0.380
88920SOL     OW68598  11.936  12.161  11.903
88920SOL    HW168599  11.910  12.077  11.940
88920SOL    HW268600  11.922  12.223  11.975
88921SOL     OW68601   8.604  10.813   3.996
88921SOL    HW168602   8.626  10.905   3.983
88921SOL    HW268603   8.623  10.797   4.089
88922SOL     OW68604   3.949  11.365   4.649
88922SOL    HW168605   3.858  11.351   4.674
88922SOL    HW268606   3.985  11.419   4.720
88923SOL     OW68607   5.651   4.450   7.655
88923SOL    HW168608   5.728   4.410   7.613
88923SOL    HW268609   5.658   4.426   7.747
88924SOL     OW68610  11.575  12.217  13.150
88924SOL    HW168611  11.502  12.160  13.124
88924SOL    HW268612  11.648  12.190  13.095
88925SOL     OW68613   2.178   9.407   0.933
88925SOL    HW168614   2.189   9.312   0.923
88925SOL    HW268615   2.220   9.444   0.855
88926SOL     OW68616   8.036  12.824  13.327
88926SOL    HW168617   8.076  12.738  13.319
88926SOL    HW268618   8.087  12.868  13.396
88927SOL     OW68619   8.449  13.280   3.606
88927SOL    HW168620   8.483  13.228   3.533
88927SOL    HW268621   8.363  13.311   3.575
88928SOL     OW68622   0.584   5.529   5.345
88928SOL    HW168623   0.521   5.457   5.341
88928SOL    HW268624   0.551   5.593   5.283
88929SOL     OW68625  13.399   8.222  11.451
88929SOL    HW168626  13.376   8.311  11.426
88929SOL    HW268627  13.379   8.217  11.545
88930SOL     OW68628   2.878   9.514   8.602
88930SOL    HW168629   2.946   9.559   8.551
88930SOL    HW268630   2.907   9.521   8.693
88931SOL     OW68631   1.431   5.094   2.684
88931SOL    HW168632   1.429   5.167   2.623
88931SOL    HW268633   1.373   5.120   2.756
88932SOL     OW68634  12.883   4.336   5.012
88932SOL    HW168635  12.844   4.252   4.986
88932SOL    HW268636  12.886   4.332   5.107
88933SOL     OW68637   3.674   1.433   0.581
88933SOL    HW168638   3.586   1.419   0.614
88933SOL    HW268639   3.732   1.411   0.654
88934SOL     OW68640  12.040   1.199   7.792
88934SOL    HW168641  11.946   1.198   7.772
88934SOL    HW268642  12.066   1.107   7.785
88935SOL     OW68643   3.203   3.299   6.038
88935SOL    HW168644   3.178   3.326   5.950
88935SOL    HW268645   3.121   3.272   6.079
88936SOL     OW68646   8.706  10.068   3.363
88936SOL    HW168647   8.719   9.973   3.366
88936SOL    HW268648   8.721  10.091   3.271
88937SOL     OW68649   9.917   4.033   0.432
88937SOL    HW168650   9.931   3.944   0.464
88937SOL    HW268651   9.991   4.049   0.373
88938SOL     OW68652   4.721   3.993   0.321
88938SOL    HW168653   4.814   3.993   0.342
88938SOL    HW268654   4.715   4.044   0.239
88939SOL     OW68655  12.690  12.275   1.280
88939SOL    HW168656  12.676  12.370   1.282
88939SOL    HW268657  12.779  12.263   1.312
88940SOL     OW68658   1.542  10.814   3.335
88940SOL    HW168659   1.459  10.862   3.333
88940SOL    HW268660   1.608  10.879   3.315
88941SOL     OW68661   9.968   6.939   0.067
88941SOL    HW168662  10.002   6.905  14.864
88941SOL    HW268663   9.912   7.012   0.042
88942SOL     OW68664   8.195   6.820   8.634
88942SOL    HW168665   8.121   6.805   8.574
88942SOL    HW268666   8.243   6.893   8.595
88943SOL     OW68667  12.398   7.802  12.183
88943SOL    HW168668  12.349   7.884  12.194
88943SOL    HW268669  12.330   7.736  12.174
88944SOL     OW68670  11.654   2.758   8.356
88944SOL    HW168671  11.587   2.699   8.320
88944SOL    HW268672  11.697   2.795   8.279
88945SOL     OW68673  14.019  11.214   3.925
88945SOL    HW168674  13.959  11.277   3.966
88945SOL    HW268675  14.071  11.181   3.998
88946SOL     OW68676   2.454   9.938   5.449
88946SOL    HW168677   2.509  10.011   5.423
88946SOL    HW268678   2.511   9.882   5.502
88947SOL     OW68679   0.335   8.943   5.665
88947SOL    HW168680   0.304   9.019   5.714
88947SOL    HW268681   0.389   8.894   5.727
88948SOL     OW68682   9.114  13.593   6.683
88948SOL    HW168683   9.061  13.571   6.759
88948SOL    HW268684   9.201  13.557   6.703
88949SOL     OW68685   4.592   9.552   7.733
88949SOL    HW168686   4.650   9.622   7.705
88949SOL    HW268687   4.554   9.518   7.651
88950SOL     OW68688  13.337  11.869   1.014
88950SOL    HW168689  13.292  11.810   0.954
88950SOL    HW268690  13.332  11.955   0.972
88951SOL     OW68691   6.924   2.029  10.868
88951SOL    HW168692   6.958   2.055  10.783
88951SOL    HW268693   6.966   2.089  10.930
88952SOL     OW68694   8.804  10.033   8.362
88952SOL    HW168695   8.790   9.939   8.378
88952SOL    HW268696   8.796  10.073   8.449
88953SOL     OW68697  10.937   9.736   5.771
88953SOL    HW168698  10.920   9.824   5.806
88953SOL    HW268699  10.887   9.677   5.828
88954SOL     OW68700   7.620  14.098  13.432
88954SOL    HW168701   7.601  14.028  13.496
88954SOL    HW268702   7.553  14.087  13.365
88955SOL     OW68703  13.304  13.042   9.284
88955SOL    HW168704  13.351  13.055   9.366
88955SOL    HW268705  13.242  12.971   9.303
88956SOL     OW68706   8.911   0.527   3.500
88956SOL    HW168707   8.918   0.470   3.423
88956SOL    HW268708   8.823   0.510   3.535
88957SOL     OW68709   5.388   5.182   5.234
88957SOL    HW168710   5.311   5.134   5.266
88957SOL    HW268711   5.361   5.274   5.237
88958SOL     OW68712  13.447   1.735   2.513
88958SOL    HW168713  13.443   1.651   2.467
88958SOL    HW268714  13.527   1.729   2.566
88959SOL     OW68715   0.909   4.779   9.554
88959SOL    HW168716   0.950   4.757   9.470
88959SOL    HW268717   0.870   4.865   9.539
88960SOL     OW68718   7.576  13.325   8.440
88960SOL    HW168719   7.487  13.355   8.420
88960SOL    HW268720   7.570  13.288   8.528
88961SOL     OW68721   7.286   6.210   0.054
88961SOL    HW168722   7.265   6.117   0.048
88961SOL    HW268723   7.245   6.239   0.136
88962SOL     OW68724  13.022   5.040   8.251
88962SOL    HW168725  12.962   4.986   8.302
88962SOL    HW268726  12.965   5.088   8.190
88963SOL     OW68727   6.185  14.416  14.375
88963SOL    HW168728   6.212  14.347  14.315
88963SOL    HW268729   6.217  14.389  14.460
88964SOL     OW68730   2.714  10.249   6.306
88964SOL    HW168731   2.685  10.339   6.323
88964SOL    HW268732   2.788  10.259   6.245
88965SOL     OW68733   6.894  11.885   5.387
88965SOL    HW168734   6.956  11.870   5.316
88965SOL    HW268735   6.923  11.967   5.427
88966SOL     OW68736  13.189   2.510   8.838
88966SOL    HW168737  13.263   2.497   8.779
88966SOL    HW268738  13.124   2.446   8.810
88967SOL     OW68739  10.210   7.656  13.755
88967SOL    HW168740  10.150   7.587  13.781
88967SOL    HW268741  10.264   7.671  13.833
88968SOL     OW68742   1.400   7.313  13.464
88968SOL    HW168743   1.492   7.299  13.445
88968SOL    HW268744   1.395   7.404  13.496
88969SOL     OW68745   1.459  14.170   3.127
88969SOL    HW168746   1.430  14.108   3.193
88969SOL    HW268747   1.531  14.126   3.082
88970SOL     OW68748  13.926   6.997  11.339
88970SOL    HW168749  13.969   7.070  11.295
88970SOL    HW268750  13.991   6.927  11.337
88971SOL     OW68751  13.872   8.695   2.300
88971SOL    HW168752  13.841   8.605   2.291
88971SOL    HW268753  13.881   8.727   2.211
88972SOL     OW68754  12.682   3.580   7.756
88972SOL    HW168755  12.586   3.583   7.754
88972SOL    HW268756  12.707   3.648   7.819
88973SOL     OW68757  11.913   3.302  11.263
88973SOL    HW168758  11.877   3.224  11.223
88973SOL    HW268759  11.838   3.359  11.279
88974SOL     OW68760   8.518  10.435   5.120
88974SOL    HW168761   8.578  10.392   5.181
88974SOL    HW268762   8.571  10.458   5.044
88975SOL     OW68763   6.920   3.483   3.766
88975SOL    HW168764   6.838   3.450   3.728
88975SOL    HW268765   6.892   3.546   3.832
88976SOL     OW68766   2.062   0.004   2.448
88976SOL    HW168767   2.150   0.042   2.445
88976SOL    HW268768   2.046  14.854   2.359
88977SOL     OW68769   7.187  10.087   8.968
88977SOL    HW168770   7.105  10.098   9.016
88977SOL    HW268771   7.251  10.062   9.035
88978SOL     OW68772   2.865   5.282   6.933
88978SOL    HW168773   2.908   5.366   6.922
88978SOL    HW268774   2.862   5.268   7.028
88979SOL     OW68775   8.599   3.070   4.204
88979SOL    HW168776   8.618   3.136   4.270
88979SOL    HW268777   8.684   3.050   4.165
88980SOL     OW68778  13.482  12.929  14.284
88980SOL    HW168779  13.574  12.936  14.310
88980SOL    HW268780  13.434  12.972  14.355
88981SOL     OW68781  13.885   8.217  10.121
88981SOL    HW168782  13.858   8.236  10.211
88981SOL    HW268783  13.948   8.145  10.129
88982SOL     OW68784  14.121  14.227   8.076
88982SOL    HW168785  14.167  14.298   8.120
88982SOL    HW268786  14.159  14.147   8.113
88983SOL     OW68787  11.392   8.632  13.784
88983SOL    HW168788  11.440   8.572  13.726
88983SOL    HW268789  11.310   8.649  13.739
88984SOL     OW68790   9.298   4.773   3.032
88984SOL    HW168791   9.245   4.706   3.076
88984SOL    HW268792   9.256   4.856   3.057
88985SOL     OW68793   1.123   8.714   5.442
88985SOL    HW168794   1.214   8.709   5.413
88985SOL    HW268795   1.111   8.635   5.496
88986SOL     OW68796   1.898   2.972   7.388
88986SOL    HW168797   1.821   2.972   7.443
88986SOL    HW268798   1.971   2.954   7.448
88987SOL     OW68799  14.371   4.999   7.673
88987SOL    HW168800  14.462   4.968   7.677
88987SOL    HW268801  14.339   4.967   7.588
88988SOL     OW68802   3.823   3.370   3.000
88988SOL    HW168803   3.812   3.362   2.906
88988SOL    HW268804   3.775   3.296   3.036
88989SOL     OW68805   8.390   1.184  12.229
88989SOL    HW168806   8.455   1.118  12.205
88989SOL    HW268807   8.323   1.177  12.161
88990SOL     OW68808   5.334   8.726   4.109
88990SOL    HW168809   5.360   8.735   4.201
88990SOL    HW268810   5.364   8.638   4.085
88991SOL     OW68811   4.418   2.543   6.514
88991SOL    HW168812   4.421   2.463   6.460
88991SOL    HW268813   4.486   2.599   6.477
88992SOL     OW68814   5.017   1.454   2.408
88992SOL    HW168815   4.941   1.511   2.398
88992SOL    HW268816   5.090   1.504   2.372
88993SOL     OW68817   1.437   8.978   6.026
88993SOL    HW168818   1.420   9.070   6.047
88993SOL    HW268819   1.508   8.982   5.961
88994SOL     OW68820   4.667  11.345  12.850
88994SOL    HW168821   4.576  11.374  12.842
88994SOL    HW268822   4.719  11.421  12.823
88995SOL     OW68823   5.082   1.173   1.559
88995SOL    HW168824   5.093   1.258   1.603
88995SOL    HW268825   5.161   1.164   1.505
88996SOL     OW68826   7.334  14.635  14.261
88996SOL    HW168827   7.372  14.574  14.198
88996SOL    HW268828   7.255  14.667  14.218
88997SOL     OW68829  12.227   8.729   6.447
88997SOL    HW168830  12.198   8.662   6.509
88997SOL    HW268831  12.195   8.699   6.362
88998SOL     OW68832  11.521   4.986   0.210
88998SOL    HW168833  11.477   5.052   0.156
88998SOL    HW268834  11.613   4.990   0.182
88999SOL     OW68835   9.983   6.506   1.247
88999SOL    HW168836  10.008   6.434   1.190
88999SOL    HW268837   9.899   6.479   1.285
89000SOL     OW68838   8.332   9.335   4.138
89000SOL    HW168839   8.381   9.289   4.069
89000SOL    HW268840   8.261   9.379   4.092
89001SOL     OW68841   5.982  13.743  11.906
89001SOL    HW168842   5.923  13.807  11.866
89001SOL    HW268843   5.987  13.769  11.998
89002SOL     OW68844  14.610   4.274   3.939
89002SOL    HW168845  14.682   4.338   3.941
89002SOL    HW268846  14.532   4.326   3.957
89003SOL     OW68847   0.538   2.988   5.552
89003SOL    HW168848   0.574   3.012   5.638
89003SOL    HW268849   0.457   3.039   5.545
89004SOL     OW68850  12.517  11.610   1.493
89004SOL    HW168851  12.441  11.646   1.449
89004SOL    HW268852  12.553  11.546   1.431
89005SOL     OW68853   3.301   0.539  12.882
89005SOL    HW168854   3.281   0.632  12.889
89005SOL    HW268855   3.220   0.500  12.847
89006SOL     OW68856  14.079   6.847  13.500
89006SOL    HW168857  14.165   6.843  13.457
89006SOL    HW268858  14.088   6.791  13.577
89007SOL     OW68859   4.186   5.820   1.837
89007SOL    HW168860   4.140   5.778   1.910
89007SOL    HW268861   4.279   5.812   1.860
89008SOL     OW68862   3.432  14.300  11.925
89008SOL    HW168863   3.418  14.371  11.862
89008SOL    HW268864   3.356  14.305  11.984
89009SOL     OW68865   2.491  13.318   1.216
89009SOL    HW168866   2.490  13.370   1.135
89009SOL    HW268867   2.550  13.365   1.274
89010SOL     OW68868  12.279   7.575   2.410
89010SOL    HW168869  12.351   7.574   2.472
89010SOL    HW268870  12.233   7.657   2.427
89011SOL     OW68871   6.562   5.324   4.465
89011SOL    HW168872   6.612   5.406   4.467
89011SOL    HW268873   6.543   5.305   4.557
89012SOL     OW68874   2.079   3.848   9.413
89012SOL    HW168875   2.160   3.817   9.453
89012SOL    HW268876   2.034   3.769   9.383
89013SOL     OW68877   0.641   7.875  12.640
89013SOL    HW168878   0.645   7.853  12.734
89013SOL    HW268879   0.595   7.959  12.637
89014SOL     OW68880  12.873   6.356   5.153
89014SOL    HW168881  12.938   6.370   5.084
89014SOL    HW268882  12.832   6.272   5.130
89015SOL     OW68883   8.893   8.189  11.726
89015SOL    HW168884   8.898   8.279  11.760
89015SOL    HW268885   8.804   8.160  11.748
89016SOL     OW68886   9.758  12.423   2.229
89016SOL    HW168887   9.771  12.481   2.305
89016SOL    HW268888   9.781  12.477   2.154
89017SOL     OW68889   6.494  10.415   8.924
89017SOL    HW168890   6.570  10.399   8.981
89017SOL    HW268891   6.498  10.509   8.905
89018SOL     OW68892  10.962   9.514   9.272
89018SOL    HW168893  10.953   9.609   9.281
89018SOL    HW268894  11.024   9.489   9.340
89019SOL     OW68895  11.072   2.720   6.256
89019SOL    HW168896  11.146   2.780   6.248
89019SOL    HW268897  10.997   2.776   6.279
89020SOL     OW68898   7.396   2.183  10.245
89020SOL    HW168899   7.417   2.101  10.202
89020SOL    HW268900   7.303   2.177  10.267
89021SOL     OW68901  10.230   7.069   1.709
89021SOL    HW168902  10.320   7.054   1.738
89021SOL    HW268903  10.225   7.163   1.693
89022SOL     OW68904   6.976  10.087  11.000
89022SOL    HW168905   6.902  10.140  11.029
89022SOL    HW268906   6.971  10.008  11.053
89023SOL     OW68907   8.576  12.736  14.063
89023SOL    HW168908   8.574  12.744  13.967
89023SOL    HW268909   8.488  12.760  14.091
89024SOL     OW68910   0.166   3.366   3.692
89024SOL    HW168911   0.175   3.298   3.626
89024SOL    HW268912   0.204   3.327   3.771
89025SOL     OW68913   3.358   0.448  13.562
89025SOL    HW168914   3.324   0.474  13.647
89025SOL    HW268915   3.431   0.507  13.545
89026SOL     OW68916   1.973   8.290   7.146
89026SOL    HW168917   1.952   8.199   7.163
89026SOL    HW268918   2.055   8.287   7.096
89027SOL     OW68919   0.369  12.805   3.550
89027SOL    HW168920   0.449  12.753   3.549
89027SOL    HW268921   0.352  12.822   3.642
89028SOL     OW68922   3.575   7.071   9.659
89028SOL    HW168923   3.480   7.084   9.654
89028SOL    HW268924   3.589   7.032   9.746
89029SOL     OW68925   5.532   7.109  10.542
89029SOL    HW168926   5.444   7.105  10.505
89029SOL    HW268927   5.555   7.018  10.559
89030SOL     OW68928   0.781   0.031  14.453
89030SOL    HW168929   0.767   0.097  14.520
89030SOL    HW268930   0.793  14.829  14.501
89031SOL     OW68931   3.612   8.705  13.218
89031SOL    HW168932   3.659   8.770  13.165
89031SOL    HW268933   3.645   8.620  13.187
89032SOL     OW68934   6.539   9.268   6.962
89032SOL    HW168935   6.565   9.223   7.042
89032SOL    HW268936   6.613   9.258   6.903
89033SOL     OW68937   2.977   8.426  11.644
89033SOL    HW168938   2.983   8.486  11.718
89033SOL    HW268939   3.021   8.473  11.573
89034SOL     OW68940  10.270   6.987   8.646
89034SOL    HW168941  10.337   6.928   8.611
89034SOL    HW268942  10.243   6.946   8.728
89035SOL     OW68943   7.048   5.523   3.714
89035SOL    HW168944   7.063   5.616   3.698
89035SOL    HW268945   7.102   5.479   3.648
89036SOL     OW68946   7.032  12.517  10.792
89036SOL    HW168947   7.022  12.459  10.717
89036SOL    HW268948   7.069  12.597  10.755
89037SOL     OW68949   3.850  12.699   1.788
89037SOL    HW168950   3.915  12.652   1.735
89037SOL    HW268951   3.895  12.720   1.870
89038SOL     OW68952   4.061   4.929  14.836
89038SOL    HW168953   4.061   4.999   0.022
89038SOL    HW268954   4.072   4.976  14.753
89039SOL     OW68955  10.267  12.480   6.325
89039SOL    HW168956  10.329  12.545   6.293
89039SOL    HW268957  10.279  12.480   6.420
89040SOL     OW68958   4.485  13.196   7.247
89040SOL    HW168959   4.519  13.107   7.258
89040SOL    HW268960   4.561  13.253   7.259
89041SOL     OW68961   9.987  12.120  12.698
89041SOL    HW168962  10.035  12.061  12.757
89041SOL    HW268963  10.023  12.102  12.612
89042SOL     OW68964   1.638  13.041   3.827
89042SOL    HW168965   1.606  12.955   3.855
89042SOL    HW268966   1.616  13.046   3.734
89043SOL     OW68967   8.856  12.654  10.971
89043SOL    HW168968   8.904  12.707  10.908
89043SOL    HW268969   8.858  12.565  10.934
89044SOL     OW68970   2.797   0.188  13.971
89044SOL    HW168971   2.748   0.235  13.904
89044SOL    HW268972   2.786   0.096  13.950
89045SOL     OW68973  13.687   8.177   5.962
89045SOL    HW168974  13.616   8.235   5.936
89045SOL    HW268975  13.738   8.163   5.882
89046SOL     OW68976   9.413   4.226   0.761
89046SOL    HW168977   9.331   4.236   0.808
89046SOL    HW268978   9.481   4.254   0.823
89047SOL     OW68979  12.718   2.361   1.968
89047SOL    HW168980  12.740   2.279   2.012
89047SOL    HW268981  12.646   2.338   1.909
89048SOL     OW68982   8.202  14.129   7.991
89048SOL    HW168983   8.281  14.182   8.001
89048SOL    HW268984   8.193  14.084   8.075
89049SOL     OW68985   8.609   7.980   0.171
89049SOL    HW168986   8.684   7.934   0.134
89049SOL    HW268987   8.589   8.048   0.107
89050SOL     OW68988   0.842   3.191  11.297
89050SOL    HW168989   0.786   3.163  11.370
89050SOL    HW268990   0.884   3.111  11.266
89051SOL     OW68991   4.706  11.558  12.608
89051SOL    HW168992   4.779  11.548  12.669
89051SOL    HW268993   4.653  11.629  12.644
89052SOL     OW68994  11.940  12.808   2.696
89052SOL    HW168995  11.853  12.835   2.726
89052SOL    HW268996  11.994  12.886   2.706
89053SOL     OW68997  13.042   3.306   2.679
89053SOL    HW168998  13.075   3.224   2.643
89053SOL    HW268999  13.100   3.325   2.752
89054SOL     OW69000  11.843   8.780   6.863
89054SOL    HW169001  11.769   8.748   6.914
89054SOL    HW269002  11.897   8.828   6.925
89055SOL     OW69003  11.244  10.347  13.754
89055SOL    HW169004  11.185  10.320  13.825
89055SOL    HW269005  11.264  10.439  13.772
89056SOL     OW69006   2.337   7.594  10.715
89056SOL    HW169007   2.300   7.550  10.638
89056SOL    HW269008   2.368   7.679  10.682
89057SOL     OW69009   5.067  13.586  11.521
89057SOL    HW169010   5.136  13.607  11.458
89057SOL    HW269011   5.066  13.661  11.581
89058SOL     OW69012   0.558   1.794   8.726
89058SOL    HW169013   0.486   1.733   8.734
89058SOL    HW269014   0.517   1.877   8.700
89059SOL     OW69015   2.453   8.384  14.770
89059SOL    HW169016   2.488   8.297  14.788
89059SOL    HW269017   2.484   8.438  14.843
89060SOL     OW69018  12.863  12.593   1.248
89060SOL    HW169019  12.903  12.678   1.272
89060SOL    HW269020  12.937  12.541   1.217
89061SOL     OW69021  11.326   1.335   3.056
89061SOL    HW169022  11.307   1.379   2.974
89061SOL    HW269023  11.265   1.374   3.119
89062SOL     OW69024  11.586  12.922   7.859
89062SOL    HW169025  11.600  12.886   7.947
89062SOL    HW269026  11.504  12.970   7.865
89063SOL     OW69027  13.499   6.660   1.759
89063SOL    HW169028  13.493   6.756   1.763
89063SOL    HW269029  13.582   6.643   1.716
89064SOL     OW69030   0.633  14.389  14.266
89064SOL    HW169031   0.560  14.447  14.288
89064SOL    HW269032   0.602  14.337  14.192
89065SOL     OW69033  10.354   4.790   0.043
89065SOL    HW169034  10.280   4.734   0.066
89065SOL    HW269035  10.316   4.873   0.016
89066SOL     OW69036   0.075   8.299   1.316
89066SOL    HW169037   0.078   8.272   1.408
89066SOL    HW269038   0.063   8.394   1.320
89067SOL     OW69039   8.898   8.017  12.731
89067SOL    HW169040   8.885   8.040  12.638
89067SOL    HW269041   8.938   7.930  12.729
89068SOL     OW69042   3.499   6.777  10.607
89068SOL    HW169043   3.500   6.735  10.694
89068SOL    HW269044   3.439   6.724  10.556
89069SOL     OW69045  13.550   4.496   3.432
89069SOL    HW169046  13.596   4.523   3.353
89069SOL    HW269047  13.547   4.575   3.486
89070SOL     OW69048   2.910  10.371   6.908
89070SOL    HW169049   2.879  10.381   6.998
89070SOL    HW269050   3.006  10.369   6.916
89071SOL     OW69051  11.852  12.678   5.952
89071SOL    HW169052  11.846  12.689   5.857
89071SOL    HW269053  11.783  12.734   5.987
89072SOL     OW69054   3.129  12.659  13.526
89072SOL    HW169055   3.035  12.673  13.540
89072SOL    HW269056   3.161  12.744  13.495
89073SOL     OW69057  13.191   7.278   6.465
89073SOL    HW169058  13.203   7.330   6.544
89073SOL    HW269059  13.129   7.210   6.490
89074SOL     OW69060   9.107  10.106   9.599
89074SOL    HW169061   9.088  10.199   9.615
89074SOL    HW269062   9.174  10.107   9.531
89075SOL     OW69063  12.527   1.696   8.206
89075SOL    HW169064  12.439   1.710   8.242
89075SOL    HW269065  12.533   1.758   8.133
89076SOL     OW69066  12.167  13.605   2.897
89076SOL    HW169067  12.159  13.679   2.957
89076SOL    HW269068  12.079  13.568   2.892
89077SOL     OW69069   7.233   5.527   8.967
89077SOL    HW169070   7.142   5.504   8.989
89077SOL    HW269071   7.277   5.442   8.959
89078SOL     OW69072   3.364   9.533  10.788
89078SOL    HW169073   3.416   9.563  10.713
89078SOL    HW269074   3.416   9.559  10.864
89079SOL     OW69075   4.765  11.006   7.140
89079SOL    HW169076   4.721  11.086   7.171
89079SOL    HW269077   4.858  11.021   7.159
89080SOL     OW69078  14.698  12.121   7.158
89080SOL    HW169079  14.673  12.134   7.250
89080SOL    HW269080  14.652  12.191   7.111
89081SOL     OW69081   9.105  11.412   1.197
89081SOL    HW169082   9.106  11.317   1.191
89081SOL    HW269083   9.167  11.441   1.130
89082SOL     OW69084  12.002   0.064   8.988
89082SOL    HW169085  11.962   0.006   9.053
89082SOL    HW269086  12.089   0.027   8.973
89083SOL     OW69087   3.148   1.230   3.083
89083SOL    HW169088   3.083   1.300   3.089
89083SOL    HW269089   3.229   1.274   3.057
89084SOL     OW69090  14.375   6.360   7.678
89084SOL    HW169091  14.287   6.372   7.711
89084SOL    HW269092  14.363   6.318   7.592
89085SOL     OW69093   2.832   9.450   7.032
89085SOL    HW169094   2.924   9.475   7.028
89085SOL    HW269095   2.786   9.517   6.982
89086SOL     OW69096  10.984  13.828   1.837
89086SOL    HW169097  10.992  13.787   1.750
89086SOL    HW269098  10.938  13.762   1.889
89087SOL     OW69099   0.221   6.921  10.140
89087SOL    HW169100   0.305   6.887  10.171
89087SOL    HW269101   0.209   6.883  10.053
89088SOL     OW69102   3.885   9.909   4.523
89088SOL    HW169103   3.856   9.997   4.500
89088SOL    HW269104   3.843   9.852   4.459
89089SOL     OW69105   5.891   9.118   1.887
89089SOL    HW169106   5.881   9.073   1.803
89089SOL    HW269107   5.985   9.128   1.899
89090SOL     OW69108  10.602   8.227   2.655
89090SOL    HW169109  10.599   8.134   2.679
89090SOL    HW269110  10.567   8.229   2.566
89091SOL     OW69111  12.044   6.330  12.691
89091SOL    HW169112  11.987   6.344  12.767
89091SOL    HW269113  11.990   6.354  12.616
89092SOL     OW69114   0.152   8.721  14.606
89092SOL    HW169115   0.153   8.719  14.701
89092SOL    HW269116   0.239   8.751  14.581
89093SOL     OW69117   5.515   4.483   8.684
89093SOL    HW169118   5.540   4.557   8.739
89093SOL    HW269119   5.434   4.451   8.724
89094SOL     OW69120   7.378  10.450  14.744
89094SOL    HW169121   7.400  10.509  14.816
89094SOL    HW269122   7.458  10.398  14.731
89095SOL     OW69123   7.549  12.571   0.137
89095SOL    HW169124   7.507  12.518   0.070
89095SOL    HW269125   7.511  12.658   0.126
89096SOL     OW69126  14.489   1.371   6.932
89096SOL    HW169127  14.397   1.356   6.912
89096SOL    HW269128  14.489   1.449   6.988
89097SOL     OW69129   0.259  11.138   7.328
89097SOL    HW169130   0.181  11.113   7.280
89097SOL    HW269131   0.232  11.214   7.380
89098SOL     OW69132   8.745   1.945   4.701
89098SOL    HW169133   8.760   2.016   4.638
89098SOL    HW269134   8.787   1.975   4.781
89099SOL     OW69135   0.734   1.080   3.321
89099SOL    HW169136   0.720   1.027   3.243
89099SOL    HW269137   0.777   1.020   3.383
89100SOL     OW69138  11.157  13.477   2.124
89100SOL    HW169139  11.171  13.431   2.206
89100SOL    HW269140  11.222  13.547   2.124
89101SOL     OW69141   7.041   9.172   6.864
89101SOL    HW169142   7.070   9.179   6.774
89101SOL    HW269143   7.111   9.211   6.916
89102SOL     OW69144  14.459  14.284  12.646
89102SOL    HW169145  14.442  14.269  12.553
89102SOL    HW269146  14.468  14.379  12.653
89103SOL     OW69147   5.184   7.603   3.552
89103SOL    HW169148   5.179   7.512   3.522
89103SOL    HW269149   5.276   7.627   3.541
89104SOL     OW69150  11.305   8.179  10.924
89104SOL    HW169151  11.293   8.264  10.882
89104SOL    HW269152  11.366   8.133  10.866
89105SOL     OW69153   5.181  10.034   7.727
89105SOL    HW169154   5.124   9.990   7.664
89105SOL    HW269155   5.266  10.040   7.683
89106SOL     OW69156   2.769   9.467   9.562
89106SOL    HW169157   2.830   9.404   9.525
89106SOL    HW269158   2.702   9.414   9.605
89107SOL     OW69159  13.960   4.204   5.948
89107SOL    HW169160  13.977   4.298   5.946
89107SOL    HW269161  13.985   4.177   6.037
89108SOL     OW69162   4.723  13.327   9.661
89108SOL    HW169163   4.629  13.342   9.645
89108SOL    HW269164   4.729  13.235   9.684
89109SOL     OW69165  12.041   3.342  12.556
89109SOL    HW169166  12.073   3.421  12.513
89109SOL    HW269167  12.094   3.333  12.635
89110SOL     OW69168  13.713   9.770   5.908
89110SOL    HW169169  13.759   9.788   5.826
89110SOL    HW269170  13.704   9.856   5.949
89111SOL     OW69171   6.969   7.088  14.489
89111SOL    HW169172   6.919   7.034  14.550
89111SOL    HW269173   6.996   7.027  14.420
89112SOL     OW69174   6.785   3.246   4.820
89112SOL    HW169175   6.762   3.233   4.728
89112SOL    HW269176   6.753   3.334   4.841
89113SOL     OW69177  10.384   7.548   4.582
89113SOL    HW169178  10.290   7.533   4.571
89113SOL    HW269179  10.390   7.640   4.608
89114SOL     OW69180   7.212   4.078   8.354
89114SOL    HW169181   7.158   3.999   8.363
89114SOL    HW269182   7.296   4.046   8.321
89115SOL     OW69183   4.968  12.140  12.218
89115SOL    HW169184   4.896  12.165  12.161
89115SOL    HW269185   5.042  12.127  12.159
89116SOL     OW69186  12.686   1.991   3.314
89116SOL    HW169187  12.646   2.027   3.235
89116SOL    HW269188  12.636   2.028   3.386
89117SOL     OW69189   7.156   7.940  12.782
89117SOL    HW169190   7.194   7.853  12.771
89117SOL    HW269191   7.088   7.946  12.715
89118SOL     OW69192   4.312   3.836  13.014
89118SOL    HW169193   4.234   3.828  13.068
89118SOL    HW269194   4.279   3.854  12.926
89119SOL     OW69195   9.253  10.550   3.607
89119SOL    HW169196   9.280  10.554   3.515
89119SOL    HW269197   9.331  10.518   3.653
89120SOL     OW69198  13.147  14.007   5.677
89120SOL    HW169199  13.198  14.076   5.719
89120SOL    HW269200  13.181  13.926   5.717
89121SOL     OW69201   1.564   7.217   8.511
89121SOL    HW169202   1.618   7.192   8.436
89121SOL    HW269203   1.487   7.258   8.472
89122SOL     OW69204   2.015   4.441   3.994
89122SOL    HW169205   1.974   4.528   3.993
89122SOL    HW269206   2.005   4.409   3.905
89123SOL     OW69207   5.389   6.280   3.673
89123SOL    HW169208   5.415   6.198   3.716
89123SOL    HW269209   5.360   6.337   3.744
89124SOL     OW69210  13.443  13.885  14.523
89124SOL    HW169211  13.444  13.824  14.596
89124SOL    HW269212  13.478  13.835  14.449
89125SOL     OW69213   7.708   8.172   5.488
89125SOL    HW169214   7.634   8.193   5.544
89125SOL    HW269215   7.725   8.079   5.503
89126SOL     OW69216   1.486   2.887  12.837
89126SOL    HW169217   1.502   2.879  12.931
89126SOL    HW269218   1.574   2.890  12.798
89127SOL     OW69219   8.501   4.509   6.077
89127SOL    HW169220   8.424   4.528   6.024
89127SOL    HW269221   8.480   4.427   6.122
89128SOL     OW69222  14.774  14.312  11.871
89128SOL    HW169223  14.835  14.248  11.906
89128SOL    HW269224  14.717  14.333  11.945
89129SOL     OW69225   7.603   5.895  13.987
89129SOL    HW169226   7.578   5.986  14.000
89129SOL    HW269227   7.532   5.858  13.935
89130SOL     OW69228   3.032   1.449  12.300
89130SOL    HW169229   3.047   1.538  12.331
89130SOL    HW269230   2.945   1.426  12.334
89131SOL     OW69231  13.016   9.309   4.649
89131SOL    HW169232  12.977   9.244   4.708
89131SOL    HW269233  12.993   9.279   4.561
89132SOL     OW69234   6.533   8.097   4.406
89132SOL    HW169235   6.580   8.018   4.380
89132SOL    HW269236   6.442   8.079   4.384
89133SOL     OW69237   9.121  11.018   6.414
89133SOL    HW169238   9.215  11.037   6.407
89133SOL    HW269239   9.115  10.952   6.483
89134SOL     OW69240  10.364   8.433   6.621
89134SOL    HW169241  10.317   8.419   6.704
89134SOL    HW269242  10.304   8.484   6.567
89135SOL     OW69243  11.835   9.532   6.465
89135SOL    HW169244  11.877   9.483   6.536
89135SOL    HW269245  11.742   9.509   6.472
89136SOL     OW69246   6.401   9.369   9.160
89136SOL    HW169247   6.419   9.413   9.243
89136SOL    HW269248   6.341   9.298   9.183
89137SOL     OW69249   3.885   5.108  12.977
89137SOL    HW169250   3.957   5.061  13.018
89137SOL    HW269251   3.812   5.098  13.039
89138SOL     OW69252   4.525   9.465   5.175
89138SOL    HW169253   4.530   9.426   5.263
89138SOL    HW269254   4.437   9.443   5.144
89139SOL     OW69255   6.617   5.983   5.571
89139SOL    HW169256   6.684   5.930   5.616
89139SOL    HW269257   6.658   6.069   5.560
89140SOL     OW69258  10.115   7.892   0.815
89140SOL    HW169259  10.042   7.945   0.847
89140SOL    HW269260  10.098   7.881   0.722
89141SOL     OW69261  10.075   3.084  11.701
89141SOL    HW169262  10.109   3.116  11.785
89141SOL    HW269263  10.091   2.989  11.705
89142SOL     OW69264   6.933  14.845   3.549
89142SOL    HW169265   6.900  14.860   3.638
89142SOL    HW269266   7.025  14.820   3.562
89143SOL     OW69267   7.232   2.075   7.934
89143SOL    HW169268   7.232   2.007   7.867
89143SOL    HW269269   7.260   2.031   8.014
89144SOL     OW69270   3.493   4.260   9.822
89144SOL    HW169271   3.509   4.321   9.750
89144SOL    HW269272   3.580   4.240   9.856
89145SOL     OW69273   6.068  12.321   2.793
89145SOL    HW169274   6.001  12.253   2.800
89145SOL    HW269275   6.108  12.306   2.707
89146SOL     OW69276   4.119   7.016  11.883
89146SOL    HW169277   4.077   7.102  11.887
89146SOL    HW269278   4.154   7.011  11.794
89147SOL     OW69279   4.793  13.607  10.260
89147SOL    HW169280   4.741  13.537  10.301
89147SOL    HW269281   4.741  13.686  10.274
89148SOL     OW69282   7.494  13.171  12.026
89148SOL    HW169283   7.536  13.224  12.094
89148SOL    HW269284   7.557  13.101  12.009
89149SOL     OW69285  13.129   9.979   7.617
89149SOL    HW169286  13.100   9.925   7.543
89149SOL    HW269287  13.127   9.919   7.692
89150SOL     OW69288   2.438  14.533   3.726
89150SOL    HW169289   2.381  14.490   3.791
89150SOL    HW269290   2.396  14.515   3.642
89151SOL     OW69291   5.225  13.217   6.407
89151SOL    HW169292   5.238  13.199   6.313
89151SOL    HW269293   5.307  13.259   6.434
89152SOL     OW69294   6.834   1.855   3.982
89152SOL    HW169295   6.789   1.939   3.981
89152SOL    HW269296   6.771   1.794   4.019
89153SOL     OW69297   1.616   8.566   4.018
89153SOL    HW169298   1.531   8.585   3.980
89153SOL    HW269299   1.610   8.600   4.108
89154SOL     OW69300   1.722   6.151   2.420
89154SOL    HW169301   1.775   6.170   2.497
89154SOL    HW269302   1.672   6.072   2.444
89155SOL     OW69303   8.207   1.093   0.008
89155SOL    HW169304   8.220   1.165   0.069
89155SOL    HW269305   8.170   1.022   0.061
89156SOL     OW69306   6.127  14.322   8.771
89156SOL    HW169307   6.140  14.237   8.812
89156SOL    HW269308   6.215  14.352   8.749
89157SOL     OW69309  11.531   1.442   8.816
89157SOL    HW169310  11.456   1.386   8.839
89157SOL    HW269311  11.528   1.447   8.720
89158SOL     OW69312   6.339  14.252  14.141
89158SOL    HW169313   6.332  14.157  14.147
89158SOL    HW269314   6.293  14.275  14.060
89159SOL     OW69315   0.040  13.530   1.375
89159SOL    HW169316   0.078  13.591   1.439
89159SOL    HW269317   0.028  13.449   1.424
89160SOL     OW69318   5.042   3.463   3.755
89160SOL    HW169319   4.956   3.429   3.731
89160SOL    HW269320   5.091   3.387   3.786
89161SOL     OW69321  12.368   6.426   7.974
89161SOL    HW169322  12.372   6.511   7.931
89161SOL    HW269323  12.345   6.364   7.904
89162SOL     OW69324   4.687  10.828   1.394
89162SOL    HW169325   4.732  10.878   1.325
89162SOL    HW269326   4.625  10.890   1.432
89163SOL     OW69327  14.679   6.854  13.840
89163SOL    HW169328  14.585   6.870  13.839
89163SOL    HW269329  14.705   6.870  13.931
89164SOL     OW69330   6.502   6.898   7.383
89164SOL    HW169331   6.464   6.965   7.439
89164SOL    HW269332   6.475   6.922   7.294
89165SOL     OW69333  14.008   6.988   8.284
89165SOL    HW169334  14.034   7.080   8.279
89165SOL    HW269335  13.998   6.961   8.193
89166SOL     OW69336  14.138   8.115   3.951
89166SOL    HW169337  14.097   8.166   3.881
89166SOL    HW269338  14.071   8.051   3.977
89167SOL     OW69339   5.073  11.786   2.073
89167SOL    HW169340   4.994  11.774   2.126
89167SOL    HW269341   5.144  11.790   2.137
89168SOL     OW69342  11.958   8.950   3.226
89168SOL    HW169343  12.037   8.915   3.185
89168SOL    HW269344  11.942   9.033   3.182
89169SOL     OW69345   0.826   0.595  13.399
89169SOL    HW169346   0.796   0.621  13.312
89169SOL    HW269347   0.764   0.636  13.459
89170SOL     OW69348  14.265   6.740  11.917
89170SOL    HW169349  14.352   6.776  11.933
89170SOL    HW269350  14.206   6.815  11.928
89171SOL     OW69351  13.651   7.400   5.388
89171SOL    HW169352  13.608   7.429   5.307
89171SOL    HW269353  13.738   7.440   5.385
89172SOL     OW69354  13.414   8.380  13.005
89172SOL    HW169355  13.492   8.325  12.999
89172SOL    HW269356  13.398   8.409  12.916
89173SOL     OW69357   5.940  13.994   2.483
89173SOL    HW169358   5.878  13.976   2.554
89173SOL    HW269359   5.885  14.026   2.411
89174SOL     OW69360  14.160   6.510   7.677
89174SOL    HW169361  14.209   6.571   7.622
89174SOL    HW269362  14.137   6.561   7.755
89175SOL     OW69363  10.219   4.283   8.265
89175SOL    HW169364  10.128   4.278   8.234
89175SOL    HW269365  10.226   4.214   8.330
89176SOL     OW69366  10.502   6.077   0.269
89176SOL    HW169367  10.420   6.041   0.301
89176SOL    HW269368  10.477   6.158   0.224
89177SOL     OW69369   5.151   0.081  11.300
89177SOL    HW169370   5.232   0.051  11.342
89177SOL    HW269371   5.177   0.157  11.249
89178SOL     OW69372  11.746   7.034   8.189
89178SOL    HW169373  11.691   7.011   8.115
89178SOL    HW269374  11.758   7.128   8.182
89179SOL     OW69375  13.538   0.403  13.320
89179SOL    HW169376  13.543   0.496  13.296
89179SOL    HW269377  13.567   0.356  13.241
89180SOL     OW69378   4.748   5.487   5.476
89180SOL    HW169379   4.703   5.505   5.559
89180SOL    HW269380   4.807   5.415   5.496
89181SOL     OW69381   8.308   4.815   2.737
89181SOL    HW169382   8.248   4.775   2.800
89181SOL    HW269383   8.255   4.829   2.659
89182SOL     OW69384   9.486  13.804  14.582
89182SOL    HW169385   9.539  13.807  14.661
89182SOL    HW269386   9.543  13.761  14.517
89183SOL     OW69387   7.570   4.448   8.719
89183SOL    HW169388   7.605   4.526   8.763
89183SOL    HW269389   7.479   4.469   8.700
89184SOL     OW69390   7.167   8.102   5.013
89184SOL    HW169391   7.155   8.012   5.041
89184SOL    HW269392   7.211   8.096   4.928
89185SOL     OW69393  14.370  11.002   3.439
89185SOL    HW169394  14.375  10.915   3.399
89185SOL    HW269395  14.277  11.015   3.458
89186SOL     OW69396   6.278   8.121   0.646
89186SOL    HW169397   6.320   8.183   0.587
89186SOL    HW269398   6.233   8.059   0.588
89187SOL     OW69399   8.779  13.575   0.996
89187SOL    HW169400   8.749  13.549   0.909
89187SOL    HW269401   8.714  13.638   1.026
89188SOL     OW69402  12.593  11.249   1.084
89188SOL    HW169403  12.635  11.168   1.113
89188SOL    HW269404  12.624  11.260   0.994
89189SOL     OW69405   0.458  10.974  12.309
89189SOL    HW169406   0.409  10.987  12.227
89189SOL    HW269407   0.489  11.062  12.332
89190SOL     OW69408   5.760   6.036   0.421
89190SOL    HW169409   5.793   6.079   0.342
89190SOL    HW269410   5.815   6.069   0.492
89191SOL     OW69411   2.920   6.300   3.712
89191SOL    HW169412   2.962   6.385   3.723
89191SOL    HW269413   2.856   6.295   3.783
89192SOL     OW69414   6.852   6.365   0.094
89192SOL    HW169415   6.839   6.332   0.005
89192SOL    HW269416   6.946   6.371   0.105
89193SOL     OW69417  12.254  13.560   6.847
89193SOL    HW169418  12.214  13.476   6.872
89193SOL    HW269419  12.216  13.623   6.908
89194SOL     OW69420   8.345   5.111   5.802
89194SOL    HW169421   8.405   5.184   5.790
89194SOL    HW269422   8.393   5.050   5.858
89195SOL     OW69423   0.183   9.016   4.025
89195SOL    HW169424   0.117   9.075   4.063
89195SOL    HW269425   0.180   8.938   4.080
89196SOL     OW69426   0.227   3.775  12.792
89196SOL    HW169427   0.261   3.763  12.880
89196SOL    HW269428   0.150   3.830  12.802
89197SOL     OW69429   2.744   9.967   5.029
89197SOL    HW169430   2.650   9.954   5.014
89197SOL    HW269431   2.748  10.042   5.088
89198SOL     OW69432   0.875  11.022   3.893
89198SOL    HW169433   0.955  11.023   3.840
89198SOL    HW269434   0.804  11.011   3.829
89199SOL     OW69435   6.937  10.858   0.046
89199SOL    HW169436   6.907  10.822   0.130
89199SOL    HW269437   6.893  10.942   0.039
89200SOL     OW69438   0.584  11.695   2.991
89200SOL    HW169439   0.655  11.647   3.034
89200SOL    HW269440   0.621  11.782   2.973
89201SOL     OW69441   7.575  12.331  11.669
89201SOL    HW169442   7.541  12.261  11.613
89201SOL    HW269443   7.647  12.290  11.716
89202SOL     OW69444   8.854  11.215  10.437
89202SOL    HW169445   8.861  11.121  10.419
89202SOL    HW269446   8.824  11.253  10.355
89203SOL     OW69447   5.650  11.987  10.966
89203SOL    HW169448   5.641  12.078  10.996
89203SOL    HW269449   5.616  11.935  11.039
89204SOL     OW69450   9.384   1.726   2.337
89204SOL    HW169451   9.336   1.646   2.316
89204SOL    HW269452   9.317   1.788   2.364
89205SOL     OW69453   0.199   3.679   2.806
89205SOL    HW169454   0.285   3.643   2.785
89205SOL    HW269455   0.176   3.639   2.890
89206SOL     OW69456  10.089   3.435   7.793
89206SOL    HW169457  10.118   3.511   7.743
89206SOL    HW269458  10.121   3.360   7.743
89207SOL     OW69459   6.562   4.681   6.515
89207SOL    HW169460   6.618   4.745   6.471
89207SOL    HW269461   6.560   4.606   6.456
89208SOL     OW69462   8.000   9.412  14.343
89208SOL    HW169463   8.062   9.472  14.386
89208SOL    HW269464   8.043   9.327  14.347
89209SOL     OW69465   5.330   3.333  12.327
89209SOL    HW169466   5.332   3.288  12.412
89209SOL    HW269467   5.328   3.263  12.263
89210SOL     OW69468   4.374   3.383   5.986
89210SOL    HW169469   4.348   3.456   6.042
89210SOL    HW269470   4.297   3.363   5.934
89211SOL     OW69471  10.788   4.121   4.084
89211SOL    HW169472  10.732   4.197   4.097
89211SOL    HW269473  10.774   4.096   3.992
89212SOL     OW69474   5.637  10.978  10.769
89212SOL    HW169475   5.711  10.942  10.819
89212SOL    HW269476   5.638  10.929  10.687
89213SOL     OW69477   4.428   8.329   0.920
89213SOL    HW169478   4.363   8.269   0.956
89213SOL    HW269479   4.445   8.391   0.992
89214SOL     OW69480   4.756  14.412   8.694
89214SOL    HW169481   4.790  14.461   8.768
89214SOL    HW269482   4.662  14.431   8.694
89215SOL     OW69483   3.267  12.473   5.186
89215SOL    HW169484   3.288  12.557   5.146
89215SOL    HW269485   3.223  12.495   5.268
89216SOL     OW69486   6.804   7.034   3.386
89216SOL    HW169487   6.878   7.081   3.349
89216SOL    HW269488   6.728   7.085   3.360
89217SOL     OW69489  10.891   3.385   8.282
89217SOL    HW169490  10.924   3.391   8.372
89217SOL    HW269491  10.866   3.475   8.260
89218SOL     OW69492   4.160  13.160   8.050
89218SOL    HW169493   4.173  13.082   8.103
89218SOL    HW269494   4.112  13.129   7.973
89219SOL     OW69495  10.573   9.613   1.278
89219SOL    HW169496  10.646   9.551   1.280
89219SOL    HW269497  10.503   9.565   1.235
89220SOL     OW69498   8.130  12.043   9.703
89220SOL    HW169499   8.214  11.998   9.717
89220SOL    HW269500   8.100  12.012   9.617
89221SOL     OW69501   8.482   7.691  14.518
89221SOL    HW169502   8.532   7.715  14.440
89221SOL    HW269503   8.437   7.610  14.495
89222SOL     OW69504   2.220   8.564   1.967
89222SOL    HW169505   2.300   8.613   1.986
89222SOL    HW269506   2.228   8.485   2.022
89223SOL     OW69507  11.551   3.734   6.705
89223SOL    HW169508  11.520   3.820   6.678
89223SOL    HW269509  11.513   3.674   6.640
89224SOL     OW69510  12.558   8.696  11.131
89224SOL    HW169511  12.638   8.680  11.182
89224SOL    HW269512  12.489   8.701  11.197
89225SOL     OW69513   8.212  13.349  11.077
89225SOL    HW169514   8.281  13.415  11.071
89225SOL    HW269515   8.251  13.277  11.126
89226SOL     OW69516   7.331   9.951  11.639
89226SOL    HW169517   7.287   9.906  11.711
89226SOL    HW269518   7.269   9.946  11.566
89227SOL     OW69519   5.808   3.761   6.384
89227SOL    HW169520   5.859   3.690   6.424
89227SOL    HW269521   5.720   3.749   6.419
89228SOL     OW69522  10.730  14.091  14.629
89228SOL    HW169523  10.677  14.141  14.567
89228SOL    HW269524  10.736  14.149  14.706
89229SOL     OW69525  12.943   9.468   1.574
89229SOL    HW169526  12.918   9.388   1.620
89229SOL    HW269527  13.023   9.444   1.527
89230SOL     OW69528  11.695   1.725   9.760
89230SOL    HW169529  11.729   1.648   9.714
89230SOL    HW269530  11.773   1.778   9.778
89231SOL     OW69531   5.678  11.287  13.838
89231SOL    HW169532   5.762  11.308  13.798
89231SOL    HW269533   5.700  11.237  13.916
89232SOL     OW69534  10.530  13.770  14.524
89232SOL    HW169535  10.481  13.714  14.463
89232SOL    HW269536  10.474  13.847  14.535
89233SOL     OW69537  13.127   7.709   6.054
89233SOL    HW169538  13.155   7.635   6.108
89233SOL    HW269539  13.031   7.707   6.058
89234SOL     OW69540  13.829  10.888  11.474
89234SOL    HW169541  13.807  10.827  11.404
89234SOL    HW269542  13.852  10.969  11.429
89235SOL     OW69543   7.505   8.508  10.098
89235SOL    HW169544   7.490   8.596  10.063
89235SOL    HW269545   7.563   8.466  10.035
89236SOL     OW69546   6.203   8.358   1.187
89236SOL    HW169547   6.166   8.311   1.261
89236SOL    HW269548   6.249   8.291   1.136
89237SOL     OW69549  11.519  12.270  12.768
89237SOL    HW169550  11.510  12.176  12.780
89237SOL    HW269551  11.608  12.282  12.736
89238SOL     OW69552   3.226  13.818  11.855
89238SOL    HW169553   3.258  13.886  11.913
89238SOL    HW269554   3.298  13.800  11.796
89239SOL     OW69555   2.194   1.914   3.027
89239SOL    HW169556   2.281   1.948   3.046
89239SOL    HW269557   2.207   1.858   2.950
89240SOL     OW69558   1.010   9.829  11.625
89240SOL    HW169559   1.067   9.892  11.668
89240SOL    HW269560   1.066   9.754  11.605
89241SOL     OW69561  12.131   2.156   8.446
89241SOL    HW169562  12.206   2.109   8.408
89241SOL    HW269563  12.066   2.157   8.376
89242SOL     OW69564   8.947   0.555  11.340
89242SOL    HW169565   8.873   0.502  11.310
89242SOL    HW269566   8.947   0.632  11.282
89243SOL     OW69567   5.224   5.064  10.050
89243SOL    HW169568   5.229   5.015  10.132
89243SOL    HW269569   5.265   5.007   9.985
89244SOL     OW69570   3.292   6.232   4.869
89244SOL    HW169571   3.376   6.257   4.908
89244SOL    HW269572   3.268   6.307   4.815
89245SOL     OW69573  13.127   7.930  12.809
89245SOL    HW169574  13.189   8.000  12.830
89245SOL    HW269575  13.151   7.904  12.720
89246SOL     OW69576   9.824  14.732   6.865
89246SOL    HW169577   9.912  14.714   6.831
89246SOL    HW269578   9.781  14.781   6.796
89247SOL     OW69579   2.192  14.185   4.997
89247SOL    HW169580   2.237  14.259   5.038
89247SOL    HW269581   2.255  14.153   4.931
89248SOL     OW69582  11.396   6.469  12.056
89248SOL    HW169583  11.465   6.415  12.019
89248SOL    HW269584  11.404   6.458  12.151
89249SOL     OW69585   8.205   9.803  12.965
89249SOL    HW169586   8.173   9.713  12.961
89249SOL    HW269587   8.283   9.798  13.020
89250SOL     OW69588   9.773  10.672   7.170
89250SOL    HW169589   9.824  10.676   7.251
89250SOL    HW269590   9.734  10.585   7.171
89251SOL     OW69591   5.101  13.759   0.763
89251SOL    HW169592   5.169  13.696   0.785
89251SOL    HW269593   5.145  13.821   0.703
89252SOL     OW69594  14.701   5.026   4.391
89252SOL    HW169595  14.795   5.014   4.381
89252SOL    HW269596  14.684   5.012   4.484
89253SOL     OW69597   3.959   3.043  13.369
89253SOL    HW169598   3.875   3.049  13.324
89253SOL    HW269599   3.993   2.956  13.345
89254SOL     OW69600   2.743   3.618  10.097
89254SOL    HW169601   2.668   3.560  10.085
89254SOL    HW269602   2.726   3.663  10.180
89255SOL     OW69603  11.161   3.644   7.153
89255SOL    HW169604  11.250   3.676   7.166
89255SOL    HW269605  11.155   3.627   7.059
89256SOL     OW69606  10.318  12.443   4.183
89256SOL    HW169607  10.253  12.408   4.123
89256SOL    HW269608  10.269  12.503   4.240
89257SOL     OW69609   3.827  10.238   8.401
89257SOL    HW169610   3.823  10.232   8.306
89257SOL    HW269611   3.738  10.265   8.427
89258SOL     OW69612  10.116   2.509   2.669
89258SOL    HW169613  10.024   2.536   2.678
89258SOL    HW269614  10.163   2.566   2.730
89259SOL     OW69615   1.087  11.105   0.694
89259SOL    HW169616   1.053  11.035   0.749
89259SOL    HW269617   1.164  11.067   0.652
89260SOL     OW69618   3.810   4.101  12.131
89260SOL    HW169619   3.882   4.163  12.138
89260SOL    HW269620   3.826   4.038  12.200
89261SOL     OW69621   1.688  14.662   8.146
89261SOL    HW169622   1.603  14.688   8.180
89261SOL    HW269623   1.676  14.571   8.119
89262SOL     OW69624   5.524   3.735   6.454
89262SOL    HW169625   5.507   3.823   6.489
89262SOL    HW269626   5.458   3.723   6.386
89263SOL     OW69627   5.996   4.614   2.184
89263SOL    HW169628   5.933   4.550   2.218
89263SOL    HW269629   6.057   4.561   2.132
89264SOL     OW69630  10.472   1.946  11.962
89264SOL    HW169631  10.488   1.886  11.889
89264SOL    HW269632  10.475   2.033  11.924
89265SOL     OW69633   2.566   6.974  10.242
89265SOL    HW169634   2.651   6.959  10.199
89265SOL    HW269635   2.536   7.058  10.206
89266SOL     OW69636   2.183  12.899   8.727
89266SOL    HW169637   2.241  12.896   8.651
89266SOL    HW269638   2.095  12.897   8.689
89267SOL     OW69639  11.914   6.654  14.477
89267SOL    HW169640  11.983   6.702  14.433
89267SOL    HW269641  11.934   6.562  14.460
89268SOL     OW69642   6.735  13.277   8.102
89268SOL    HW169643   6.758  13.226   8.024
89268SOL    HW269644   6.795  13.351   8.101
89269SOL     OW69645   5.559   1.773   4.344
89269SOL    HW169646   5.552   1.693   4.290
89269SOL    HW269647   5.557   1.741   4.434
89270SOL     OW69648  10.777  10.666   6.838
89270SOL    HW169649  10.725  10.679   6.759
89270SOL    HW269650  10.831  10.746   6.844
89271SOL     OW69651  11.820   3.576  10.094
89271SOL    HW169652  11.875   3.620  10.158
89271SOL    HW269653  11.764   3.645  10.059
89272SOL     OW69654   8.051  10.459   5.582
89272SOL    HW169655   8.079  10.454   5.673
89272SOL    HW269656   8.026  10.551   5.570
89273SOL     OW69657  11.249   1.147  12.269
89273SOL    HW169658  11.167   1.126  12.315
89273SOL    HW269659  11.220   1.178  12.183
89274SOL     OW69660   1.357  11.766   3.453
89274SOL    HW169661   1.273  11.811   3.461
89274SOL    HW269662   1.375  11.765   3.359
89275SOL     OW69663   7.675   3.430  13.048
89275SOL    HW169664   7.665   3.353  13.105
89275SOL    HW269665   7.659   3.505  13.106
89276SOL     OW69666   2.086   9.138   6.373
89276SOL    HW169667   2.014   9.091   6.414
89276SOL    HW269668   2.162   9.081   6.386
89277SOL     OW69669   0.044   1.455   5.114
89277SOL    HW169670   0.075   1.473   5.203
89277SOL    HW269671  14.864   1.528   5.095
89278SOL     OW69672   5.832   5.380   7.359
89278SOL    HW169673   5.849   5.286   7.368
89278SOL    HW269674   5.875   5.420   7.435
89279SOL     OW69675   5.160   5.593   3.497
89279SOL    HW169676   5.086   5.654   3.488
89279SOL    HW269677   5.232   5.646   3.529
89280SOL     OW69678   1.409   5.850  14.045
89280SOL    HW169679   1.399   5.849  13.949
89280SOL    HW269680   1.478   5.913  14.061
89281SOL     OW69681  12.845  14.203   1.461
89281SOL    HW169682  12.793  14.254   1.524
89281SOL    HW269683  12.919  14.260   1.440
89282SOL     OW69684   5.833  12.986   4.710
89282SOL    HW169685   5.813  13.052   4.776
89282SOL    HW269686   5.784  13.013   4.633
89283SOL     OW69687   7.972  13.363   2.114
89283SOL    HW169688   7.913  13.332   2.044
89283SOL    HW269689   8.055  13.321   2.095
89284SOL     OW69690  14.747  14.001   0.650
89284SOL    HW169691  14.652  14.005   0.644
89284SOL    HW269692  14.777  14.087   0.618
89285SOL     OW69693   1.740  10.541   4.250
89285SOL    HW169694   1.797  10.465   4.235
89285SOL    HW269695   1.652  10.509   4.232
89286SOL     OW69696   4.299  13.412  13.524
89286SOL    HW169697   4.347  13.440  13.446
89286SOL    HW269698   4.261  13.493  13.559
89287SOL     OW69699   6.658  12.124   8.255
89287SOL    HW169700   6.580  12.122   8.311
89287SOL    HW269701   6.639  12.063   8.184
89288SOL     OW69702   6.894   3.612  12.142
89288SOL    HW169703   6.930   3.618  12.054
89288SOL    HW269704   6.955   3.661  12.197
89289SOL     OW69705   7.970   2.881   4.918
89289SOL    HW169706   7.874   2.875   4.924
89289SOL    HW269707   7.989   2.975   4.918
89290SOL     OW69708  13.650   6.672  14.186
89290SOL    HW169709  13.662   6.578  14.180
89290SOL    HW269710  13.626   6.688  14.278
89291SOL     OW69711   5.576   6.215   8.701
89291SOL    HW169712   5.654   6.269   8.700
89291SOL    HW269713   5.609   6.125   8.707
89292SOL     OW69714   8.792   9.339   6.283
89292SOL    HW169715   8.871   9.286   6.272
89292SOL    HW269716   8.773   9.334   6.377
89293SOL     OW69717  11.438   6.765   7.822
89293SOL    HW169718  11.521   6.720   7.834
89293SOL    HW269719  11.374   6.709   7.865
89294SOL     OW69720   0.358  11.809   3.104
89294SOL    HW169721   0.354  11.728   3.155
89294SOL    HW269722   0.439  11.851   3.132
89295SOL     OW69723  12.916   4.046   5.331
89295SOL    HW169724  13.006   4.046   5.362
89295SOL    HW269725  12.875   3.970   5.374
89296SOL     OW69726   2.012   1.435   1.889
89296SOL    HW169727   2.028   1.345   1.920
89296SOL    HW269728   1.917   1.440   1.879
89297SOL     OW69729  12.303   9.761  10.174
89297SOL    HW169730  12.315   9.706  10.097
89297SOL    HW269731  12.215   9.739  10.205
89298SOL     OW69732   1.242   8.556   1.614
89298SOL    HW169733   1.246   8.545   1.709
89298SOL    HW269734   1.330   8.582   1.589
89299SOL     OW69735   8.148   6.893  14.066
89299SOL    HW169736   8.182   6.823  14.010
89299SOL    HW269737   8.115   6.847  14.144
89300SOL     OW69738   4.655   1.496   3.006
89300SOL    HW169739   4.713   1.554   3.055
89300SOL    HW269740   4.676   1.408   3.039
89301SOL     OW69741  13.182   4.156   5.491
89301SOL    HW169742  13.253   4.124   5.434
89301SOL    HW269743  13.169   4.086   5.554
89302SOL     OW69744   2.241   9.765   3.595
89302SOL    HW169745   2.273   9.722   3.675
89302SOL    HW269746   2.318   9.807   3.557
89303SOL     OW69747   2.646   2.925   5.936
89303SOL    HW169748   2.640   2.891   6.025
89303SOL    HW269749   2.591   2.867   5.884
89304SOL     OW69750  13.455  14.586   4.049
89304SOL    HW169751  13.423  14.642   3.978
89304SOL    HW269752  13.382  14.581   4.111
89305SOL     OW69753  11.814   0.229   7.702
89305SOL    HW169754  11.838   0.216   7.611
89305SOL    HW269755  11.813   0.141   7.740
89306SOL     OW69756   0.032  12.874  10.898
89306SOL    HW169757   0.106  12.934  10.906
89306SOL    HW269758   0.053  12.801  10.956
89307SOL     OW69759   7.310  12.060   2.993
89307SOL    HW169760   7.255  12.053   3.071
89307SOL    HW269761   7.257  12.110   2.931
89308SOL     OW69762  13.498   1.659   5.409
89308SOL    HW169763  13.434   1.588   5.419
89308SOL    HW269764  13.570   1.618   5.361
89309SOL     OW69765   3.058   3.784  10.330
89309SOL    HW169766   3.066   3.838  10.252
89309SOL    HW269767   3.127   3.815  10.389
89310SOL     OW69768   7.637   0.780  14.442
89310SOL    HW169769   7.620   0.798  14.350
89310SOL    HW269770   7.559   0.735  14.474
89311SOL     OW69771   8.832   2.757   9.160
89311SOL    HW169772   8.744   2.769   9.197
89311SOL    HW269773   8.827   2.798   9.074
89312SOL     OW69774   8.795   7.161   0.208
89312SOL    HW169775   8.746   7.160   0.290
89312SOL    HW269776   8.793   7.071   0.177
89313SOL     OW69777   8.929  11.226   8.556
89313SOL    HW169778   8.883  11.172   8.492
89313SOL    HW269779   8.984  11.165   8.605
89314SOL     OW69780   8.301  14.342  14.530
89314SOL    HW169781   8.317  14.346  14.436
89314SOL    HW269782   8.388  14.347  14.569
89315SOL     OW69783   2.351   7.520   5.801
89315SOL    HW169784   2.353   7.506   5.896
89315SOL    HW269785   2.443   7.536   5.777
89316SOL     OW69786   2.568   5.236   5.001
89316SOL    HW169787   2.491   5.182   5.017
89316SOL    HW269788   2.572   5.295   5.076
89317SOL     OW69789   6.252  13.839   8.841
89317SOL    HW169790   6.235  13.825   8.748
89317SOL    HW269791   6.178  13.799   8.886
89318SOL     OW69792  10.769   3.902   3.546
89318SOL    HW169793  10.769   3.809   3.572
89318SOL    HW269794  10.705   3.908   3.476
89319SOL     OW69795   2.096  12.947   7.985
89319SOL    HW169796   2.093  12.875   7.923
89319SOL    HW269797   2.025  13.006   7.959
89320SOL     OW69798  11.909   2.748  13.229
89320SOL    HW169799  11.987   2.694  13.226
89320SOL    HW269800  11.865   2.724  13.311
89321SOL     OW69801   7.034   8.343  14.491
89321SOL    HW169802   7.067   8.255  14.469
89321SOL    HW269803   6.956   8.326  14.544
89322SOL     OW69804   1.438   3.803   0.662
89322SOL    HW169805   1.351   3.843   0.657
89322SOL    HW269806   1.421   3.712   0.683
89323SOL     OW69807  11.484   5.124   5.817
89323SOL    HW169808  11.550   5.186   5.845
89323SOL    HW269809  11.516   5.039   5.847
89324SOL     OW69810  14.090   8.152   5.826
89324SOL    HW169811  14.028   8.118   5.761
89324SOL    HW269812  14.139   8.220   5.780
89325SOL     OW69813  11.993   9.492   5.798
89325SOL    HW169814  11.973   9.542   5.876
89325SOL    HW269815  11.908   9.464   5.764
89326SOL     OW69816   1.391   0.615  11.658
89326SOL    HW169817   1.380   0.600  11.752
89326SOL    HW269818   1.303   0.633  11.626
89327SOL     OW69819   9.360  12.028  14.375
89327SOL    HW169820   9.345  12.089  14.447
89327SOL    HW269821   9.395  12.082  14.305
89328SOL     OW69822  11.058   1.805   1.789
89328SOL    HW169823  10.977   1.803   1.840
89328SOL    HW269824  11.040   1.750   1.713
89329SOL     OW69825   6.876  13.408   8.952
89329SOL    HW169826   6.870  13.418   8.857
89329SOL    HW269827   6.935  13.479   8.979
89330SOL     OW69828   7.449   1.199  11.390
89330SOL    HW169829   7.433   1.190  11.296
89330SOL    HW269830   7.429   1.113  11.426
89331SOL     OW69831   7.303  11.490  11.938
89331SOL    HW169832   7.284  11.403  11.904
89331SOL    HW269833   7.366  11.526  11.875
89332SOL     OW69834  12.329   9.470  11.415
89332SOL    HW169835  12.403   9.416  11.387
89332SOL    HW269836  12.278   9.486  11.335
89333SOL     OW69837  12.692   9.292   0.973
89333SOL    HW169838  12.646   9.251   0.900
89333SOL    HW269839  12.674   9.385   0.964
89334SOL     OW69840   5.775   7.595   4.871
89334SOL    HW169841   5.722   7.515   4.871
89334SOL    HW269842   5.728   7.655   4.930
89335SOL     OW69843   0.168  11.389   9.263
89335SOL    HW169844   0.086  11.360   9.224
89335SOL    HW269845   0.169  11.348   9.350
89336SOL     OW69846   0.466  10.544  13.864
89336SOL    HW169847   0.524  10.601  13.915
89336SOL    HW269848   0.414  10.605  13.811
89337SOL     OW69849   9.173  11.736   0.375
89337SOL    HW169850   9.118  11.662   0.397
89337SOL    HW269851   9.257  11.717   0.416
89338SOL     OW69852  11.570  11.766   0.202
89338SOL    HW169853  11.582  11.861   0.212
89338SOL    HW269854  11.478  11.756   0.180
89339SOL     OW69855   6.332   6.518   0.547
89339SOL    HW169856   6.280   6.473   0.481
89339SOL    HW269857   6.337   6.608   0.517
89340SOL     OW69858  10.905   3.329  13.148
89340SOL    HW169859  10.968   3.289  13.088
89340SOL    HW269860  10.870   3.404  13.099
89341SOL     OW69861  13.448   5.119  10.553
89341SOL    HW169862  13.392   5.090  10.625
89341SOL    HW269863  13.400   5.192  10.513
89342SOL     OW69864   8.061   3.344   4.246
89342SOL    HW169865   8.000   3.275   4.272
89342SOL    HW269866   8.078   3.393   4.326
89343SOL     OW69867  10.441   4.114   8.803
89343SOL    HW169868  10.416   4.125   8.894
89343SOL    HW269869  10.396   4.035   8.774
89344SOL     OW69870   3.569   9.754  13.283
89344SOL    HW169871   3.477   9.779  13.289
89344SOL    HW269872   3.603   9.765  13.372
89345SOL     OW69873   6.467  12.959  10.244
89345SOL    HW169874   6.380  12.959  10.204
89345SOL    HW269875   6.528  12.957  10.169
89346SOL     OW69876   7.864   9.759  13.735
89346SOL    HW169877   7.786   9.812  13.754
89346SOL    HW269878   7.937   9.812  13.766
89347SOL     OW69879   8.308   8.300   2.691
89347SOL    HW169880   8.276   8.279   2.779
89347SOL    HW269881   8.398   8.332   2.705
89348SOL     OW69882   0.212   5.434   8.739
89348SOL    HW169883   0.206   5.530   8.742
89348SOL    HW269884   0.303   5.416   8.761
89349SOL     OW69885  10.270   8.869  12.571
89349SOL    HW169886  10.220   8.950  12.563
89349SOL    HW269887  10.361   8.896  12.554
89350SOL     OW69888  14.131   7.410   4.919
89350SOL    HW169889  14.058   7.414   4.857
89350SOL    HW269890  14.102   7.350   4.987
89351SOL     OW69891  14.222   3.017   8.912
89351SOL    HW169892  14.301   3.040   8.863
89351SOL    HW269893  14.185   2.943   8.864
89352SOL     OW69894   7.083   9.123   6.294
89352SOL    HW169895   7.099   9.126   6.199
89352SOL    HW269896   7.113   9.037   6.321
89353SOL     OW69897   0.507   4.900   3.063
89353SOL    HW169898   0.492   4.992   3.085
89353SOL    HW269899   0.596   4.898   3.029
89354SOL     OW69900   3.582   1.344   6.741
89354SOL    HW169901   3.566   1.428   6.696
89354SOL    HW269902   3.646   1.300   6.686
89355SOL     OW69903  13.524   7.130   7.307
89355SOL    HW169904  13.517   7.218   7.343
89355SOL    HW269905  13.459   7.078   7.355
89356SOL     OW69906   5.198   0.601  13.653
89356SOL    HW169907   5.193   0.563  13.741
89356SOL    HW269908   5.107   0.622  13.631
89357SOL     OW69909   1.621   7.798   2.690
89357SOL    HW169910   1.554   7.736   2.662
89357SOL    HW269911   1.689   7.745   2.731
89358SOL     OW69912   1.254  13.046  14.037
89358SOL    HW169913   1.309  13.075  14.110
89358SOL    HW269914   1.313  13.045  13.962
89359SOL     OW69915   3.946   5.349   3.477
89359SOL    HW169916   4.003   5.355   3.400
89359SOL    HW269917   3.871   5.404   3.456
89360SOL     OW69918   3.687   3.007   0.142
89360SOL    HW169919   3.639   3.078   0.100
89360SOL    HW269920   3.668   2.930   0.089
89361SOL     OW69921  11.914  12.236  14.426
89361SOL    HW169922  11.916  12.303  14.494
89361SOL    HW269923  11.922  12.284  14.344
89362SOL     OW69924   0.227   3.122   9.782
89362SOL    HW169925   0.216   3.198   9.839
89362SOL    HW269926   0.316   3.131   9.748
89363SOL     OW69927   3.450  12.651   2.359
89363SOL    HW169928   3.366  12.604   2.360
89363SOL    HW269929   3.443  12.710   2.284
89364SOL     OW69930  13.609   5.967  13.039
89364SOL    HW169931  13.689   6.017  13.056
89364SOL    HW269932  13.634   5.876  13.053
89365SOL     OW69933  11.904  10.053   0.853
89365SOL    HW169934  11.935  10.141   0.876
89365SOL    HW269935  11.860  10.065   0.769
89366SOL     OW69936   2.747   4.095   5.184
89366SOL    HW169937   2.751   4.064   5.094
89366SOL    HW269938   2.824   4.057   5.226
89367SOL     OW69939   6.330   9.446   9.690
89367SOL    HW169940   6.246   9.492   9.693
89367SOL    HW269941   6.384   9.491   9.754
89368SOL     OW69942   8.670   7.127   0.446
89368SOL    HW169943   8.723   7.064   0.494
89368SOL    HW269944   8.659   7.201   0.507
89369SOL     OW69945  10.616   5.594   2.912
89369SOL    HW169946  10.668   5.514   2.920
89369SOL    HW269947  10.548   5.573   2.848
89370SOL     OW69948  10.704   3.038   9.699
89370SOL    HW169949  10.754   3.013   9.777
89370SOL    HW269950  10.761   3.100   9.653
89371SOL     OW69951  13.698  13.507   3.499
89371SOL    HW169952  13.708  13.437   3.434
89371SOL    HW269953  13.624  13.559   3.468
89372SOL     OW69954   4.520   7.216  10.194
89372SOL    HW169955   4.495   7.192  10.283
89372SOL    HW269956   4.540   7.310  10.199
89373SOL     OW69957  11.922  13.780   9.616
89373SOL    HW169958  11.980  13.770   9.692
89373SOL    HW269959  11.849  13.721   9.633
89374SOL     OW69960   7.231   0.830   6.727
89374SOL    HW169961   7.172   0.772   6.681
89374SOL    HW269962   7.242   0.791   6.813
89375SOL     OW69963  12.887  11.775   5.613
89375SOL    HW169964  12.958  11.839   5.616
89375SOL    HW269965  12.906  11.722   5.536
89376SOL     OW69966   5.038   9.116   2.788
89376SOL    HW169967   5.113   9.174   2.772
89376SOL    HW269968   5.045   9.048   2.720
89377SOL     OW69969  13.234   2.588   4.415
89377SOL    HW169970  13.219   2.680   4.392
89377SOL    HW269971  13.219   2.584   4.509
89378SOL     OW69972  11.346  14.466  14.269
89378SOL    HW169973  11.276  14.525  14.244
89378SOL    HW269974  11.303  14.381  14.280
89379SOL     OW69975   7.477   5.484   8.315
89379SOL    HW169976   7.527   5.499   8.396
89379SOL    HW269977   7.450   5.571   8.287
89380SOL     OW69978  13.850   4.731   7.403
89380SOL    HW169979  13.759   4.756   7.418
89380SOL    HW269980  13.900   4.807   7.433
89381SOL     OW69981  13.624  13.646   2.870
89381SOL    HW169982  13.634  13.562   2.825
89381SOL    HW269983  13.701  13.653   2.926
89382SOL     OW69984   4.611  11.630  10.808
89382SOL    HW169985   4.635  11.721  10.789
89382SOL    HW269986   4.571  11.634  10.895
89383SOL     OW69987   4.625  10.380  11.394
89383SOL    HW169988   4.664  10.302  11.355
89383SOL    HW269989   4.535  10.380  11.362
89384SOL     OW69990   2.192   1.046   7.853
89384SOL    HW169991   2.109   1.063   7.896
89384SOL    HW269992   2.252   1.022   7.923
89385SOL     OW69993   9.076  10.554   5.946
89385SOL    HW169994   9.009  10.604   5.993
89385SOL    HW269995   9.136  10.524   6.014
89386SOL     OW69996   3.550   6.193   6.933
89386SOL    HW169997   3.522   6.233   7.015
89386SOL    HW269998   3.635   6.234   6.915
89387SOL     OW69999  11.690   9.498   4.794
89387SOL    HW170000  11.702   9.405   4.814
89387SOL    HW270001  11.608   9.521   4.839
89388SOL     OW70002   9.465   3.424   4.788
89388SOL    HW170003   9.484   3.514   4.814
89388SOL    HW270004   9.486   3.422   4.694
89389SOL     OW70005   7.723  10.589  14.815
89389SOL    HW170006   7.639  10.608  14.856
89389SOL    HW270007   7.758  10.674  14.788
89390SOL     OW70008  12.178   6.943  10.341
89390SOL    HW170009  12.254   6.922  10.395
89390SOL    HW270010  12.198   6.905  10.256
89391SOL     OW70011   4.107   5.334  13.209
89391SOL    HW170012   4.075   5.338  13.299
89391SOL    HW270013   4.202   5.342  13.216
89392SOL     OW70014  10.994   7.233   8.571
89392SOL    HW170015  10.911   7.246   8.525
89392SOL    HW270016  10.983   7.282   8.652
89393SOL     OW70017   9.445  12.691   6.471
89393SOL    HW170018   9.409  12.620   6.525
89393SOL    HW270019   9.448  12.767   6.531
89394SOL     OW70020   6.820  13.118  14.072
89394SOL    HW170021   6.744  13.175  14.076
89394SOL    HW270022   6.808  13.056  14.145
89395SOL     OW70023   3.319   0.695   3.523
89395SOL    HW170024   3.286   0.645   3.447
89395SOL    HW270025   3.326   0.630   3.592
89396SOL     OW70026   0.066   5.022   6.422
89396SOL    HW170027   0.017   5.022   6.504
89396SOL    HW270028   0.157   5.007   6.449
89397SOL     OW70029  14.146   2.167   9.015
89397SOL    HW170030  14.084   2.115   9.065
89397SOL    HW270031  14.209   2.200   9.080
89398SOL     OW70032   4.900   8.542  10.466
89398SOL    HW170033   4.912   8.585  10.550
89398SOL    HW270034   4.846   8.465  10.485
89399SOL     OW70035  10.609   1.629   2.254
89399SOL    HW170036  10.698   1.646   2.287
89399SOL    HW270037  10.560   1.599   2.330
89400SOL     OW70038  11.534   8.550  11.753
89400SOL    HW170039  11.537   8.462  11.715
89400SOL    HW270040  11.506   8.536  11.843
89401SOL     OW70041   0.957   2.835   4.092
89401SOL    HW170042   0.902   2.761   4.065
89401SOL    HW270043   0.902   2.885   4.152
89402SOL     OW70044  13.128  13.658  11.776
89402SOL    HW170045  13.145  13.691  11.688
89402SOL    HW270046  13.079  13.577  11.762
89403SOL     OW70047  11.476   8.980  10.456
89403SOL    HW170048  11.402   8.986  10.517
89403SOL    HW270049  11.547   9.029  10.499
89404SOL     OW70050   9.799   4.825  11.472
89404SOL    HW170051   9.852   4.850  11.396
89404SOL    HW270052   9.861   4.781  11.530
89405SOL     OW70053   2.020   6.920   5.001
89405SOL    HW170054   2.040   6.949   4.912
89405SOL    HW270055   1.969   6.992   5.039
89406SOL     OW70056   6.265   0.698   5.426
89406SOL    HW170057   6.283   0.640   5.500
89406SOL    HW270058   6.253   0.785   5.466
89407SOL     OW70059   8.427   5.803   4.458
89407SOL    HW170060   8.482   5.776   4.532
89407SOL    HW270061   8.381   5.881   4.490
89408SOL     OW70062   0.220  13.482   2.394
89408SOL    HW170063   0.133  13.516   2.414
89408SOL    HW270064   0.227  13.487   2.299
89409SOL     OW70065   9.714   9.232   6.898
89409SOL    HW170066   9.758   9.305   6.856
89409SOL    HW270067   9.628   9.228   6.856
89410SOL     OW70068   9.951   6.247  11.195
89410SOL    HW170069   9.907   6.314  11.143
89410SOL    HW270070  10.044   6.269  11.189
89411SOL     OW70071   5.459  11.464  12.983
89411SOL    HW170072   5.447  11.534  13.047
89411SOL    HW270073   5.517  11.402  13.027
89412SOL     OW70074   3.387  12.079   2.922
89412SOL    HW170075   3.373  12.130   3.002
89412SOL    HW270076   3.461  12.121   2.879
89413SOL     OW70077   8.870   6.623   1.311
89413SOL    HW170078   8.862   6.554   1.377
89413SOL    HW270079   8.836   6.583   1.231
89414SOL     OW70080  12.822   4.938   4.410
89414SOL    HW170081  12.850   4.847   4.418
89414SOL    HW270082  12.817   4.953   4.315
89415SOL     OW70083  10.990   7.041   7.139
89415SOL    HW170084  11.064   7.091   7.104
89415SOL    HW270085  11.028   6.991   7.211
89416SOL     OW70086   0.275   1.766   1.492
89416SOL    HW170087   0.275   1.764   1.587
89416SOL    HW270088   0.363   1.735   1.468
89417SOL     OW70089   6.030   7.076   5.895
89417SOL    HW170090   5.969   7.039   5.959
89417SOL    HW270091   6.101   7.012   5.890
89418SOL     OW70092   7.022  14.351  11.896
89418SOL    HW170093   7.061  14.416  11.955
89418SOL    HW270094   7.097  14.303  11.861
89419SOL     OW70095   4.804   7.649   1.676
89419SOL    HW170096   4.782   7.738   1.647
89419SOL    HW270097   4.721   7.612   1.703
89420SOL     OW70098   0.345   3.500  14.593
89420SOL    HW170099   0.354   3.477  14.500
89420SOL    HW270100   0.310   3.421  14.634
89421SOL     OW70101   8.070   1.581   2.831
89421SOL    HW170102   8.046   1.489   2.819
89421SOL    HW270103   8.117   1.582   2.915
89422SOL     OW70104   2.949   9.237   1.961
89422SOL    HW170105   2.980   9.157   1.919
89422SOL    HW270106   3.028   9.276   2.000
89423SOL     OW70107  13.239  11.939   1.480
89423SOL    HW170108  13.272  11.879   1.546
89423SOL    HW270109  13.310  11.949   1.418
89424SOL     OW70110   1.759   4.584   0.707
89424SOL    HW170111   1.742   4.513   0.645
89424SOL    HW270112   1.852   4.605   0.693
89425SOL     OW70113   6.512   9.907   0.132
89425SOL    HW170114   6.553   9.850   0.067
89425SOL    HW270115   6.581   9.966   0.160
89426SOL     OW70116   7.616   8.278  12.567
89426SOL    HW170117   7.558   8.249  12.637
89426SOL    HW270118   7.643   8.366  12.593
89427SOL     OW70119  11.981  13.848   1.648
89427SOL    HW170120  11.918  13.793   1.601
89427SOL    HW270121  12.045  13.787   1.684
89428SOL     OW70122   5.704   0.231   9.130
89428SOL    HW170123   5.627   0.197   9.086
89428SOL    HW270124   5.671   0.295   9.193
89429SOL     OW70125  14.113  13.552   3.564
89429SOL    HW170126  14.059  13.575   3.640
89429SOL    HW270127  14.127  13.636   3.520
89430SOL     OW70128   5.327   3.501   2.803
89430SOL    HW170129   5.249   3.452   2.778
89430SOL    HW270130   5.384   3.496   2.726
89431SOL     OW70131   7.486  11.888   3.246
89431SOL    HW170132   7.504  11.941   3.324
89431SOL    HW270133   7.391  11.892   3.237
89432SOL     OW70134   6.624  11.701   8.614
89432SOL    HW170135   6.715  11.690   8.644
89432SOL    HW270136   6.606  11.622   8.564
89433SOL     OW70137   6.600   8.575   9.494
89433SOL    HW170138   6.616   8.621   9.412
89433SOL    HW270139   6.514   8.607   9.523
89434SOL     OW70140   6.921  10.239   1.815
89434SOL    HW170141   6.985  10.310   1.825
89434SOL    HW270142   6.967  10.160   1.843
89435SOL     OW70143   7.060   5.018   3.762
89435SOL    HW170144   7.136   5.069   3.733
89435SOL    HW270145   6.985   5.075   3.746
89436SOL     OW70146   5.541   8.419   4.427
89436SOL    HW170147   5.572   8.508   4.440
89436SOL    HW270148   5.459   8.428   4.378
89437SOL     OW70149   0.527  11.720   8.906
89437SOL    HW170150   0.447  11.771   8.893
89437SOL    HW270151   0.547  11.685   8.819
89438SOL     OW70152   7.792   5.437  13.225
89438SOL    HW170153   7.832   5.442  13.312
89438SOL    HW270154   7.865   5.413  13.167
89439SOL     OW70155  13.640  12.730   1.577
89439SOL    HW170156  13.659  12.650   1.528
89439SOL    HW270157  13.560  12.765   1.536
89440SOL     OW70158  10.912   5.542   4.592
89440SOL    HW170159  11.000   5.567   4.620
89440SOL    HW270160  10.854   5.602   4.639
89441SOL     OW70161   5.326   8.154  13.871
89441SOL    HW170162   5.405   8.191  13.912
89441SOL    HW270163   5.258   8.218  13.890
89442SOL     OW70164  10.854   0.866   2.125
89442SOL    HW170165  10.835   0.805   2.196
89442SOL    HW270166  10.790   0.846   2.057
89443SOL     OW70167   4.082   1.546   7.195
89443SOL    HW170168   3.999   1.532   7.241
89443SOL    HW270169   4.086   1.476   7.129
89444SOL     OW70170   9.182   0.643   8.063
89444SOL    HW170171   9.236   0.635   8.142
89444SOL    HW270172   9.092   0.645   8.096
89445SOL     OW70173   1.269  10.614  10.897
89445SOL    HW170174   1.280  10.708  10.881
89445SOL    HW270175   1.349  10.575  10.861
89446SOL     OW70176   0.691   8.234  10.408
89446SOL    HW170177   0.756   8.172  10.440
89446SOL    HW270178   0.655   8.193  10.330
89447SOL     OW70179   0.452   4.030   1.781
89447SOL    HW170180   0.406   4.071   1.855
89447SOL    HW270181   0.490   3.950   1.817
89448SOL     OW70182   5.399   3.458   1.016
89448SOL    HW170183   5.425   3.460   0.924
89448SOL    HW270184   5.421   3.369   1.045
89449SOL     OW70185   7.320  14.445   5.464
89449SOL    HW170186   7.364  14.395   5.532
89449SOL    HW270187   7.346  14.536   5.480
89450SOL     OW70188  12.749   5.945  14.409
89450SOL    HW170189  12.735   5.969  14.500
89450SOL    HW270190  12.823   5.885  14.411
89451SOL     OW70191   6.558   2.329   2.463
89451SOL    HW170192   6.481   2.384   2.447
89451SOL    HW270193   6.626   2.366   2.407
89452SOL     OW70194  11.729   6.979   5.427
89452SOL    HW170195  11.644   6.969   5.468
89452SOL    HW270196  11.725   6.923   5.349
89453SOL     OW70197   5.912   2.637   6.464
89453SOL    HW170198   5.853   2.565   6.484
89453SOL    HW270199   5.983   2.630   6.528
89454SOL     OW70200   2.178   6.176  10.790
89454SOL    HW170201   2.206   6.085  10.784
89454SOL    HW270202   2.179   6.208  10.700
89455SOL     OW70203   2.536  12.143  11.848
89455SOL    HW170204   2.486  12.159  11.769
89455SOL    HW270205   2.543  12.047  11.853
89456SOL     OW70206   6.156   8.819  12.403
89456SOL    HW170207   6.162   8.750  12.469
89456SOL    HW270208   6.066   8.852  12.411
89457SOL     OW70209  12.342   1.045  14.492
89457SOL    HW170210  12.436   1.035  14.473
89457SOL    HW270211  12.316   1.121  14.439
89458SOL     OW70212   5.582   4.741  14.163
89458SOL    HW170213   5.669   4.776  14.178
89458SOL    HW270214   5.594   4.674  14.095
89459SOL     OW70215  10.695  11.477  12.938
89459SOL    HW170216  10.711  11.513  13.026
89459SOL    HW270217  10.718  11.548  12.878
89460SOL     OW70218   3.406   7.760   0.570
89460SOL    HW170219   3.433   7.817   0.499
89460SOL    HW270220   3.478   7.697   0.580
89461SOL     OW70221   3.773  12.463   6.275
89461SOL    HW170222   3.765  12.516   6.355
89461SOL    HW270223   3.854  12.494   6.234
89462SOL     OW70224   6.863   3.404   5.545
89462SOL    HW170225   6.874   3.461   5.621
89462SOL    HW270226   6.769   3.390   5.540
89463SOL     OW70227  10.826   9.085   1.265
89463SOL    HW170228  10.886   9.010   1.266
89463SOL    HW270229  10.854   9.139   1.339
89464SOL     OW70230   7.759  12.004  13.568
89464SOL    HW170231   7.731  11.913  13.557
89464SOL    HW270232   7.742  12.022  13.660
89465SOL     OW70233   5.710   0.283  13.371
89465SOL    HW170234   5.775   0.293  13.440
89465SOL    HW270235   5.688   0.190  13.372
89466SOL     OW70236   0.935   5.210   6.798
89466SOL    HW170237   0.972   5.255   6.874
89466SOL    HW270238   0.927   5.118   6.825
89467SOL     OW70239   2.813   0.491   6.090
89467SOL    HW170240   2.879   0.558   6.077
89467SOL    HW270241   2.731   0.539   6.102
89468SOL     OW70242   9.436  10.466   5.725
89468SOL    HW170243   9.346  10.439   5.711
89468SOL    HW270244   9.430  10.558   5.751
89469SOL     OW70245   6.998  13.481   5.600
89469SOL    HW170246   7.043  13.444   5.675
89469SOL    HW270247   6.942  13.410   5.568
89470SOL     OW70248  13.557  10.758  11.997
89470SOL    HW170249  13.588  10.812  12.069
89470SOL    HW270250  13.510  10.818  11.940
89471SOL     OW70251  13.258   2.432   7.418
89471SOL    HW170252  13.280   2.356   7.363
89471SOL    HW270253  13.240   2.394   7.504
89472SOL     OW70254   9.805   7.465  10.752
89472SOL    HW170255   9.712   7.443  10.745
89472SOL    HW270256   9.826   7.454  10.844
89473SOL     OW70257  10.069   3.804   8.906
89473SOL    HW170258   9.999   3.867   8.923
89473SOL    HW270259  10.133   3.822   8.974
89474SOL     OW70260  12.268  12.016  14.322
89474SOL    HW170261  12.245  12.056  14.238
89474SOL    HW270262  12.356  12.049  14.340
89475SOL     OW70263  10.125   0.551   0.306
89475SOL    HW170264  10.184   0.477   0.291
89475SOL    HW270265  10.118   0.593   0.221
89476SOL     OW70266   8.810   9.074   3.144
89476SOL    HW170267   8.854   9.085   3.228
89476SOL    HW270268   8.851   9.140   3.087
89477SOL     OW70269   2.906   5.542  14.390
89477SOL    HW170270   2.889   5.607  14.322
89477SOL    HW270271   3.000   5.526  14.386
89478SOL     OW70272   0.024   1.086   1.846
89478SOL    HW170273  14.831   1.025   1.856
89478SOL    HW270274   0.048   1.081   1.753
89479SOL     OW70275   2.297   3.786  10.558
89479SOL    HW170276   2.301   3.691  10.570
89479SOL    HW270277   2.212   3.812  10.594
89480SOL     OW70278   0.633  14.083   4.740
89480SOL    HW170279   0.646  13.988   4.741
89480SOL    HW270280   0.721  14.119   4.739
89481SOL     OW70281  13.047   6.759   0.689
89481SOL    HW170282  13.087   6.839   0.656
89481SOL    HW270283  12.970   6.789   0.738
89482SOL     OW70284   8.138   2.943   7.656
89482SOL    HW170285   8.083   2.973   7.728
89482SOL    HW270286   8.084   2.955   7.578
89483SOL     OW70287   5.561   4.126  10.278
89483SOL    HW170288   5.582   4.208  10.232
89483SOL    HW270289   5.478   4.144  10.321
89484SOL     OW70290   3.653   5.320  10.173
89484SOL    HW170291   3.628   5.228  10.163
89484SOL    HW270292   3.576   5.361  10.213
89485SOL     OW70293  10.667   0.402   4.975
89485SOL    HW170294  10.638   0.418   4.885
89485SOL    HW270295  10.587   0.398   5.026
89486SOL     OW70296   9.570  11.862   3.089
89486SOL    HW170297   9.579  11.836   2.997
89486SOL    HW270298   9.641  11.815   3.134
89487SOL     OW70299  14.835  14.117   8.173
89487SOL    HW170300  14.851  14.100   8.266
89487SOL    HW270301  14.741  14.103   8.162
89488SOL     OW70302   5.013   0.544   0.255
89488SOL    HW170303   5.079   0.545   0.324
89488SOL    HW270304   5.012   0.633   0.222
89489SOL     OW70305  13.850   5.800  11.202
89489SOL    HW170306  13.886   5.844  11.279
89489SOL    HW270307  13.764   5.770  11.229
89490SOL     OW70308   5.821   6.090   1.336
89490SOL    HW170309   5.814   6.049   1.250
89490SOL    HW270310   5.903   6.140   1.332
89491SOL     OW70311   5.842   3.281  14.219
89491SOL    HW170312   5.826   3.313  14.308
89491SOL    HW270313   5.755   3.272  14.181
89492SOL     OW70314   9.137  10.292   1.972
89492SOL    HW170315   9.192  10.363   1.939
89492SOL    HW270316   9.053  10.334   1.991
89493SOL     OW70317   6.494  10.435   7.618
89493SOL    HW170318   6.572  10.436   7.674
89493SOL    HW270319   6.528  10.450   7.529
89494SOL     OW70320   5.712   2.310  14.725
89494SOL    HW170321   5.721   2.374  14.796
89494SOL    HW270322   5.640   2.253  14.754
89495SOL     OW70323   5.472   2.197   9.507
89495SOL    HW170324   5.559   2.231   9.527
89495SOL    HW270325   5.447   2.239   9.425
89496SOL     OW70326  13.369  11.357  11.973
89496SOL    HW170327  13.377  11.317  11.886
89496SOL    HW270328  13.459  11.364  12.004
89497SOL     OW70329   0.931   7.038   0.347
89497SOL    HW170330   0.891   7.104   0.290
89497SOL    HW270331   1.020   7.071   0.362
89498SOL     OW70332   1.290   7.730   0.259
89498SOL    HW170333   1.286   7.770   0.172
89498SOL    HW270334   1.258   7.797   0.318
89499SOL     OW70335  13.666   7.971   4.098
89499SOL    HW170336  13.644   7.885   4.136
89499SOL    HW270337  13.583   8.019   4.099
89500SOL     OW70338  13.582   6.980   6.725
89500SOL    HW170339  13.626   6.895   6.733
89500SOL    HW270340  13.562   7.004   6.816
89501SOL     OW70341  14.401   5.874   9.972
89501SOL    HW170342  14.353   5.900   9.893
89501SOL    HW270343  14.419   5.956  10.018
89502SOL     OW70344   7.032  13.309   0.745
89502SOL    HW170345   6.954  13.293   0.693
89502SOL    HW270346   7.046  13.228   0.793
89503SOL     OW70347   4.702  11.552   7.813
89503SOL    HW170348   4.617  11.530   7.850
89503SOL    HW270349   4.760  11.558   7.890
89504SOL     OW70350  14.091   8.587  13.228
89504SOL    HW170351  14.127   8.503  13.254
89504SOL    HW270352  14.037   8.568  13.151
89505SOL     OW70353  10.335   3.067   7.946
89505SOL    HW170354  10.304   3.084   8.034
89505SOL    HW270355  10.263   3.095   7.889
89506SOL     OW70356   8.162  12.863   4.143
89506SOL    HW170357   8.180  12.865   4.237
89506SOL    HW270358   8.164  12.770   4.120
89507SOL     OW70359   3.296   1.365  11.352
89507SOL    HW170360   3.293   1.299  11.421
89507SOL    HW270361   3.224   1.341  11.293
89508SOL     OW70362  11.196  13.510  10.621
89508SOL    HW170363  11.125  13.450  10.597
89508SOL    HW270364  11.212  13.493  10.714
89509SOL     OW70365  13.194  14.021  13.767
89509SOL    HW170366  13.121  14.071  13.803
89509SOL    HW270367  13.190  14.038  13.673
89510SOL     OW70368  11.327  13.683   6.768
89510SOL    HW170369  11.385  13.653   6.698
89510SOL    HW270370  11.239  13.658   6.740
89511SOL     OW70371  13.208   2.060  10.732
89511SOL    HW170372  13.255   2.047  10.814
89511SOL    HW270373  13.154   1.982  10.722
89512SOL     OW70374   3.731  12.273   5.288
89512SOL    HW170375   3.823  12.286   5.310
89512SOL    HW270376   3.703  12.200   5.342
89513SOL     OW70377  14.760  10.138   4.846
89513SOL    HW170378  14.758  10.063   4.787
89513SOL    HW270379  14.818  10.201   4.802
89514SOL     OW70380   1.339  10.641   1.270
89514SOL    HW170381   1.337  10.672   1.360
89514SOL    HW270382   1.346  10.546   1.278
89515SOL     OW70383   7.285   3.123   4.858
89515SOL    HW170384   7.201   3.135   4.814
89515SOL    HW270385   7.351   3.135   4.790
89516SOL     OW70386   5.849  13.944   4.250
89516SOL    HW170387   5.828  13.852   4.268
89516SOL    HW270388   5.883  13.977   4.333
89517SOL     OW70389   2.115  10.776   3.173
89517SOL    HW170390   2.166  10.729   3.107
89517SOL    HW270391   2.108  10.865   3.139
89518SOL     OW70392  11.899  12.410   4.641
89518SOL    HW170393  11.900  12.499   4.677
89518SOL    HW270394  11.817  12.372   4.673
89519SOL     OW70395   8.362   6.414   0.316
89519SOL    HW170396   8.376   6.488   0.375
89519SOL    HW270397   8.400   6.339   0.361
89520SOL     OW70398  13.228   5.607   0.653
89520SOL    HW170399  13.316   5.642   0.667
89520SOL    HW270400  13.170   5.680   0.673
89521SOL     OW70401   4.626  13.754   0.224
89521SOL    HW170402   4.546  13.701   0.234
89521SOL    HW270403   4.673  13.713   0.152
89522SOL     OW70404   6.416   3.974   3.520
89522SOL    HW170405   6.397   3.912   3.449
89522SOL    HW270406   6.330   3.997   3.555
89523SOL     OW70407   8.120   9.781  11.135
89523SOL    HW170408   8.186   9.754  11.071
89523SOL    HW270409   8.042   9.798  11.083
89524SOL     OW70410  14.027   8.860   4.907
89524SOL    HW170411  14.008   8.771   4.877
89524SOL    HW270412  13.945   8.908   4.893
89525SOL     OW70413  10.501   8.631  10.052
89525SOL    HW170414  10.577   8.642   9.994
89525SOL    HW270415  10.536   8.583  10.127
89526SOL     OW70416  10.634   8.381   1.653
89526SOL    HW170417  10.583   8.304   1.676
89526SOL    HW270418  10.706   8.382   1.716
89527SOL     OW70419   3.658  12.151   7.215
89527SOL    HW170420   3.656  12.071   7.267
89527SOL    HW270421   3.711  12.212   7.266
89528SOL     OW70422  11.008  14.345  11.462
89528SOL    HW170423  10.956  14.269  11.435
89528SOL    HW270424  11.045  14.379  11.380
89529SOL     OW70425   1.943  14.603  11.577
89529SOL    HW170426   1.862  14.572  11.616
89529SOL    HW270427   1.917  14.673  11.518
89530SOL     OW70428   4.463   2.613   9.950
89530SOL    HW170429   4.489   2.521   9.951
89530SOL    HW270430   4.527   2.656  10.007
89531SOL     OW70431  12.790  12.591   5.665
89531SOL    HW170432  12.789  12.647   5.742
89531SOL    HW270433  12.702  12.554   5.660
89532SOL     OW70434  14.232  10.202   5.968
89532SOL    HW170435  14.184  10.213   5.886
89532SOL    HW270436  14.235  10.290   6.006
89533SOL     OW70437   3.822   3.981  11.201
89533SOL    HW170438   3.853   3.897  11.234
89533SOL    HW270439   3.899   4.020  11.160
89534SOL     OW70440   0.111  11.923   5.334
89534SOL    HW170441   0.026  11.967   5.339
89534SOL    HW270442   0.125  11.908   5.240
89535SOL     OW70443   3.104  13.120   2.811
89535SOL    HW170444   3.134  13.033   2.838
89535SOL    HW270445   3.074  13.162   2.891
89536SOL     OW70446   4.772   7.051  13.796
89536SOL    HW170447   4.712   7.014  13.860
89536SOL    HW270448   4.849   7.075  13.848
89537SOL     OW70449   1.823   0.223  12.644
89537SOL    HW170450   1.802   0.201  12.554
89537SOL    HW270451   1.915   0.249  12.642
89538SOL     OW70452   6.319   1.172   8.754
89538SOL    HW170453   6.265   1.245   8.723
89538SOL    HW270454   6.264   1.095   8.741
89539SOL     OW70455   5.462   5.367   8.876
89539SOL    HW170456   5.380   5.353   8.923
89539SOL    HW270457   5.447   5.331   8.789
89540SOL     OW70458   3.251   0.287   9.075
89540SOL    HW170459   3.202   0.219   9.121
89540SOL    HW270460   3.184   0.338   9.029
89541SOL     OW70461   3.282   3.354  12.199
89541SOL    HW170462   3.190   3.380  12.207
89541SOL    HW270463   3.318   3.410  12.130
89542SOL     OW70464  14.093  13.546  14.700
89542SOL    HW170465  14.116  13.632  14.736
89542SOL    HW270466  14.090  13.488  14.776
89543SOL     OW70467   1.815   6.495   0.279
89543SOL    HW170468   1.827   6.573   0.225
89543SOL    HW270469   1.798   6.425   0.217
89544SOL     OW70470  13.915  12.612   2.919
89544SOL    HW170471  13.896  12.696   2.876
89544SOL    HW270472  13.957  12.637   3.001
89545SOL     OW70473   5.115   6.950   4.332
89545SOL    HW170474   5.194   6.912   4.369
89545SOL    HW270475   5.045   6.889   4.354
89546SOL     OW70476   8.762   7.048   3.842
89546SOL    HW170477   8.749   7.126   3.788
89546SOL    HW270478   8.800   7.082   3.923
89547SOL     OW70479   5.898   2.931   2.937
89547SOL    HW170480   5.921   2.933   3.029
89547SOL    HW270481   5.897   3.023   2.910
89548SOL     OW70482   4.595   5.516   0.938
89548SOL    HW170483   4.611   5.452   1.008
89548SOL    HW270484   4.500   5.513   0.924
89549SOL     OW70485   5.265   6.543  10.800
89549SOL    HW170486   5.171   6.549  10.814
89549SOL    HW270487   5.276   6.466  10.743
89550SOL     OW70488   0.992  12.492   2.364
89550SOL    HW170489   0.982  12.526   2.275
89550SOL    HW270490   1.082  12.460   2.367
89551SOL     OW70491   0.473  12.708  10.009
89551SOL    HW170492   0.491  12.773   9.941
89551SOL    HW270493   0.558  12.694  10.052
89552SOL     OW70494  12.589  12.925   7.786
89552SOL    HW170495  12.585  12.936   7.691
89552SOL    HW270496  12.663  12.979   7.813
89553SOL     OW70497   8.333   6.863   5.232
89553SOL    HW170498   8.257   6.904   5.275
89553SOL    HW270499   8.364   6.930   5.171
89554SOL     OW70500   4.332  11.713   3.476
89554SOL    HW170501   4.322  11.636   3.532
89554SOL    HW270502   4.360  11.782   3.536
89555SOL     OW70503   4.469  14.870   1.672
89555SOL    HW170504   4.445  14.786   1.711
89555SOL    HW270505   4.468   0.052   1.746
89556SOL     OW70506   2.249   6.027  12.803
89556SOL    HW170507   2.222   5.986  12.721
89556SOL    HW270508   2.219   5.966  12.871
89557SOL     OW70509   5.046  11.190   7.648
89557SOL    HW170510   4.987  11.133   7.696
89557SOL    HW270511   5.106  11.131   7.603
89558SOL     OW70512   8.284   4.358   6.764
89558SOL    HW170513   8.358   4.303   6.790
89558SOL    HW270514   8.297   4.440   6.812
89559SOL     OW70515   1.742  13.390  11.592
89559SOL    HW170516   1.728  13.395  11.498
89559SOL    HW270517   1.833  13.360  11.601
89560SOL     OW70518  10.057  12.158  13.229
89560SOL    HW170519   9.967  12.133  13.250
89560SOL    HW270520  10.105  12.075  13.232
89561SOL     OW70521   9.942  13.483  13.814
89561SOL    HW170522   9.980  13.409  13.768
89561SOL    HW270523  10.007  13.552  13.807
89562SOL     OW70524  13.405  10.674   2.993
89562SOL    HW170525  13.321  10.714   2.972
89562SOL    HW270526  13.394  10.641   3.082
89563SOL     OW70527  12.206   1.999  12.589
89563SOL    HW170528  12.285   1.995  12.643
89563SOL    HW270529  12.235   1.974  12.502
89564SOL     OW70530   9.342   4.393  10.519
89564SOL    HW170531   9.366   4.313  10.472
89564SOL    HW270532   9.250   4.381  10.542
89565SOL     OW70533   0.451  13.714  13.141
89565SOL    HW170534   0.536  13.741  13.106
89565SOL    HW270535   0.472  13.672  13.225
89566SOL     OW70536  10.968   8.813   4.758
89566SOL    HW170537  10.952   8.723   4.786
89566SOL    HW270538  11.044   8.840   4.809
89567SOL     OW70539  10.339  14.003  14.563
89567SOL    HW170540  10.356  14.078  14.506
89567SOL    HW270541  10.246  14.009  14.585
89568SOL     OW70542   6.644   9.344   3.403
89568SOL    HW170543   6.567   9.289   3.394
89568SOL    HW270544   6.664   9.373   3.314
89569SOL     OW70545   2.752  10.774   0.012
89569SOL    HW170546   2.691  10.844   0.036
89569SOL    HW270547   2.836  10.818   0.002
89570SOL     OW70548   6.681   4.062  12.026
89570SOL    HW170549   6.673   4.091  12.117
89570SOL    HW270550   6.761   4.010  12.024
89571SOL     OW70551   1.545   0.935   3.326
89571SOL    HW170552   1.507   1.022   3.340
89571SOL    HW270553   1.500   0.878   3.388
89572SOL     OW70554   3.242   0.152   1.148
89572SOL    HW170555   3.181   0.106   1.206
89572SOL    HW270556   3.319   0.168   1.201
89573SOL     OW70557  10.028   0.673   3.765
89573SOL    HW170558   9.997   0.703   3.680
89573SOL    HW270559  10.108   0.724   3.780
89574SOL     OW70560   5.989  12.789   5.962
89574SOL    HW170561   6.044  12.717   5.995
89574SOL    HW270562   6.036  12.868   5.988
89575SOL     OW70563   8.954  12.165  10.453
89575SOL    HW170564   8.960  12.222  10.530
89575SOL    HW270565   8.865  12.180  10.420
89576SOL     OW70566  10.334  11.904   2.934
89576SOL    HW170567  10.273  11.837   2.902
89576SOL    HW270568  10.406  11.902   2.871
89577SOL     OW70569   0.511  14.356   3.499
89577SOL    HW170570   0.454  14.356   3.422
89577SOL    HW270571   0.451  14.343   3.573
89578SOL     OW70572   3.394   2.163  10.531
89578SOL    HW170573   3.467   2.216  10.564
89578SOL    HW270574   3.403   2.080  10.578
89579SOL     OW70575   3.203  10.536  10.700
89579SOL    HW170576   3.275  10.486  10.739
89579SOL    HW270577   3.173  10.593  10.771
89580SOL     OW70578  11.483  12.791   0.999
89580SOL    HW170579  11.575  12.764   1.003
89580SOL    HW270580  11.449  12.776   1.087
89581SOL     OW70581   4.648  10.308   4.413
89581SOL    HW170582   4.700  10.242   4.366
89581SOL    HW270583   4.612  10.364   4.344
89582SOL     OW70584   8.798   6.546   0.085
89582SOL    HW170585   8.802   6.500   0.169
89582SOL    HW270586   8.824   6.480   0.021
89583SOL     OW70587   0.862  14.265   7.623
89583SOL    HW170588   0.855  14.310   7.539
89583SOL    HW270589   0.792  14.303   7.676
89584SOL     OW70590   3.357   6.413   8.781
89584SOL    HW170591   3.342   6.329   8.824
89584SOL    HW270592   3.395   6.468   8.849
89585SOL     OW70593  14.822   8.621   7.828
89585SOL    HW170594  14.807   8.653   7.740
89585SOL    HW270595  14.752   8.660   7.880
89586SOL     OW70596  12.573   7.511   7.844
89586SOL    HW170597  12.564   7.429   7.893
89586SOL    HW270598  12.653   7.500   7.793
89587SOL     OW70599   4.235   7.679   2.173
89587SOL    HW170600   4.189   7.616   2.228
89587SOL    HW270601   4.182   7.758   2.177
89588SOL     OW70602  10.578  14.399   4.742
89588SOL    HW170603  10.486  14.378   4.727
89588SOL    HW270604  10.579  14.492   4.762
89589SOL     OW70605   5.538   2.917   9.630
89589SOL    HW170606   5.447   2.944   9.648
89589SOL    HW270607   5.581   2.998   9.603
89590SOL     OW70608  10.732  11.289  10.951
89590SOL    HW170609  10.761  11.206  10.989
89590SOL    HW270610  10.637  11.285  10.956
89591SOL     OW70611   9.808   7.352  10.251
89591SOL    HW170612   9.877   7.292  10.223
89591SOL    HW270613   9.839   7.387  10.335
89592SOL     OW70614   1.804   8.928   6.893
89592SOL    HW170615   1.824   8.915   6.985
89592SOL    HW270616   1.780   9.020   6.887
89593SOL     OW70617   4.110   6.364  13.410
89593SOL    HW170618   4.199   6.398  13.408
89593SOL    HW270619   4.063   6.422  13.470
89594SOL     OW70620  14.592   3.903  11.923
89594SOL    HW170621  14.552   3.837  11.867
89594SOL    HW270622  14.677   3.866  11.946
89595SOL     OW70623  11.996   1.506   1.510
89595SOL    HW170624  12.083   1.500   1.549
89595SOL    HW270625  11.955   1.579   1.556
89596SOL     OW70626  12.583   9.522   7.191
89596SOL    HW170627  12.589   9.516   7.287
89596SOL    HW270628  12.514   9.461   7.168
89597SOL     OW70629   3.656   3.576   1.267
89597SOL    HW170630   3.731   3.584   1.209
89597SOL    HW270631   3.675   3.500   1.321
89598SOL     OW70632   9.012   0.210   4.194
89598SOL    HW170633   9.050   0.129   4.161
89598SOL    HW270634   8.939   0.181   4.249
89599SOL     OW70635   0.986  13.358  13.193
89599SOL    HW170636   0.895  13.357  13.221
89599SOL    HW270637   1.032  13.303  13.257
89600SOL     OW70638   2.105   2.517  11.854
89600SOL    HW170639   2.091   2.601  11.898
89600SOL    HW270640   2.082   2.452  11.920
89601SOL     OW70641   5.194  13.763   2.914
89601SOL    HW170642   5.145  13.845   2.904
89601SOL    HW270643   5.200  13.729   2.825
89602SOL     OW70644   8.177   5.419   3.073
89602SOL    HW170645   8.184   5.327   3.095
89602SOL    HW270646   8.108   5.453   3.130
89603SOL     OW70647  13.469   8.698  14.263
89603SOL    HW170648  13.532   8.731  14.327
89603SOL    HW270649  13.495   8.608  14.247
89604SOL     OW70650   5.178   1.446  13.949
89604SOL    HW170651   5.232   1.486  13.881
89604SOL    HW270652   5.158   1.359  13.916
89605SOL     OW70653   7.085  10.822  12.310
89605SOL    HW170654   7.075  10.786  12.399
89605SOL    HW270655   7.018  10.777  12.259
89606SOL     OW70656   2.020   9.674   8.742
89606SOL    HW170657   2.103   9.629   8.759
89606SOL    HW270658   1.977   9.677   8.827
89607SOL     OW70659   3.785   0.921   0.763
89607SOL    HW170660   3.826   0.992   0.813
89607SOL    HW270661   3.845   0.847   0.773
89608SOL     OW70662   3.317  14.761   0.783
89608SOL    HW170663   3.288  14.757   0.874
89608SOL    HW270664   3.305  14.853   0.758
89609SOL     OW70665   1.920  14.131   9.779
89609SOL    HW170666   1.970  14.203   9.741
89609SOL    HW270667   1.980  14.090   9.841
89610SOL     OW70668   3.879  13.675  10.075
89610SOL    HW170669   3.896  13.764  10.045
89610SOL    HW270670   3.967  13.637  10.087
89611SOL     OW70671   7.611   1.847  11.572
89611SOL    HW170672   7.574   1.896  11.645
89611SOL    HW270673   7.550   1.774  11.559
89612SOL     OW70674   2.166   1.306   7.762
89612SOL    HW170675   2.218   1.229   7.739
89612SOL    HW270676   2.079   1.270   7.783
89613SOL     OW70677   2.634  12.941  14.766
89613SOL    HW170678   2.714  12.994  14.760
89613SOL    HW270679   2.651  12.881  14.838
89614SOL     OW70680   3.510   1.003  14.063
89614SOL    HW170681   3.511   0.925  14.119
89614SOL    HW270682   3.480   0.970  13.978
89615SOL     OW70683  13.331   3.223  14.851
89615SOL    HW170684  13.297   3.293  14.796
89615SOL    HW270685  13.403   3.185  14.800
89616SOL     OW70686   3.381  11.123  14.140
89616SOL    HW170687   3.339  11.119  14.054
89616SOL    HW270688   3.329  11.188  14.188
89617SOL     OW70689   3.087   3.802  12.904
89617SOL    HW170690   3.116   3.888  12.875
89617SOL    HW270691   3.168   3.754  12.923
89618SOL     OW70692   3.076   4.490  10.783
89618SOL    HW170693   3.140   4.420  10.775
89618SOL    HW270694   3.018   4.462  10.853
89619SOL     OW70695   3.476  13.925   0.800
89619SOL    HW170696   3.402  13.978   0.769
89619SOL    HW270697   3.537  13.924   0.726
89620SOL     OW70698   4.207   7.754   7.726
89620SOL    HW170699   4.175   7.760   7.636
89620SOL    HW270700   4.296   7.720   7.718
89621SOL     OW70701   9.556   7.829   1.579
89621SOL    HW170702   9.511   7.749   1.550
89621SOL    HW270703   9.487   7.883   1.617
89622SOL     OW70704  12.378  11.041   1.495
89622SOL    HW170705  12.472  11.059   1.497
89622SOL    HW270706  12.366  10.970   1.559
89623SOL     OW70707   5.069   4.895  12.331
89623SOL    HW170708   4.979   4.924  12.311
89623SOL    HW270709   5.059   4.803  12.357
89624SOL     OW70710   6.926  14.594  14.557
89624SOL    HW170711   7.004  14.643  14.586
89624SOL    HW270712   6.855  14.659  14.560
89625SOL     OW70713   9.883   1.196   8.319
89625SOL    HW170714   9.955   1.136   8.305
89625SOL    HW270715   9.904   1.240   8.401
89626SOL     OW70716   9.852   8.066  11.010
89626SOL    HW170717   9.921   8.131  10.994
89626SOL    HW270718   9.864   8.042  11.102
89627SOL     OW70719  11.236   3.375   8.052
89627SOL    HW170720  11.155   3.387   8.004
89627SOL    HW270721  11.301   3.426   8.003
89628SOL     OW70722  10.122  13.895   2.436
89628SOL    HW170723  10.077  13.909   2.519
89628SOL    HW270724  10.132  13.982   2.399
89629SOL     OW70725  13.107  13.593   9.995
89629SOL    HW170726  13.191  13.627   9.964
89629SOL    HW270727  13.129  13.539  10.071
89630SOL     OW70728  12.517   5.347   6.382
89630SOL    HW170729  12.471   5.303   6.310
89630SOL    HW270730  12.583   5.283   6.411
89631SOL     OW70731   1.796  14.578  11.952
89631SOL    HW170732   1.856  14.635  12.001
89631SOL    HW270733   1.803  14.493  11.996
89632SOL     OW70734   6.799   3.680   3.396
89632SOL    HW170735   6.846   3.734   3.459
89632SOL    HW270736   6.809   3.591   3.428
89633SOL     OW70737   1.389   4.750   0.785
89633SOL    HW170738   1.389   4.822   0.847
89633SOL    HW270739   1.469   4.700   0.805
89634SOL     OW70740  10.789  12.119   8.163
89634SOL    HW170741  10.841  12.117   8.083
89634SOL    HW270742  10.849  12.155   8.229
89635SOL     OW70743   7.167   8.264  12.272
89635SOL    HW170744   7.249   8.301  12.304
89635SOL    HW270745   7.193   8.201  12.205
89636SOL     OW70746  10.006   4.872  11.298
89636SOL    HW170747  10.057   4.800  11.337
89636SOL    HW270748   9.979   4.838  11.212
89637SOL     OW70749  13.150   0.575   0.911
89637SOL    HW170750  13.234   0.614   0.935
89637SOL    HW270751  13.104   0.565   0.995
89638SOL     OW70752   0.782   1.022   1.794
89638SOL    HW170753   0.703   0.976   1.823
89638SOL    HW270754   0.849   0.996   1.857
89639SOL     OW70755   7.161  12.180  13.835
89639SOL    HW170756   7.204  12.153  13.917
89639SOL    HW270757   7.180  12.274  13.828
89640SOL     OW70758   4.886   6.086   4.952
89640SOL    HW170759   4.814   6.066   5.013
89640SOL    HW270760   4.949   6.015   4.965
89641SOL     OW70761   4.432   8.143   4.095
89641SOL    HW170762   4.416   8.052   4.072
89641SOL    HW270763   4.440   8.143   4.190
89642SOL     OW70764   3.833   9.484  10.984
89642SOL    HW170765   3.783   9.535  10.920
89642SOL    HW270766   3.781   9.405  10.997
89643SOL     OW70767   9.552   0.568   2.891
89643SOL    HW170768   9.589   0.486   2.925
89643SOL    HW270769   9.469   0.542   2.851
89644SOL     OW70770  12.877  11.797  14.859
89644SOL    HW170771  12.903  11.842  14.778
89644SOL    HW270772  12.884  11.704  14.837
89645SOL     OW70773   5.027   1.127   4.362
89645SOL    HW170774   5.037   1.117   4.457
89645SOL    HW270775   5.105   1.175   4.334
89646SOL     OW70776   1.466   5.012  11.865
89646SOL    HW170777   1.451   5.106  11.868
89646SOL    HW270778   1.561   5.002  11.877
89647SOL     OW70779   1.494  14.464   9.155
89647SOL    HW170780   1.517  14.386   9.104
89647SOL    HW270781   1.552  14.462   9.231
89648SOL     OW70782  10.279   9.808  11.643
89648SOL    HW170783  10.350   9.772  11.697
89648SOL    HW270784  10.296   9.774  11.555
89649SOL     OW70785   1.578   3.435   7.958
89649SOL    HW170786   1.656   3.482   7.987
89649SOL    HW270787   1.570   3.362   8.020
89650SOL     OW70788  11.545  13.316   4.701
89650SOL    HW170789  11.601  13.347   4.630
89650SOL    HW270790  11.584  13.234   4.728
89651SOL     OW70791  14.471  11.065   7.020
89651SOL    HW170792  14.420  11.018   7.085
89651SOL    HW270793  14.496  10.999   6.956
89652SOL     OW70794  12.039   5.392  11.082
89652SOL    HW170795  11.962   5.343  11.051
89652SOL    HW270796  12.058   5.355  11.168
89653SOL     OW70797  13.853   0.259   2.643
89653SOL    HW170798  13.769   0.220   2.617
89653SOL    HW270799  13.839   0.291   2.732
89654SOL     OW70800   3.838   1.580  10.854
89654SOL    HW170801   3.847   1.514  10.786
89654SOL    HW270802   3.745   1.603  10.853
89655SOL     OW70803  11.613   6.334  12.553
89655SOL    HW170804  11.573   6.275  12.618
89655SOL    HW270805  11.582   6.421  12.579
89656SOL     OW70806   7.224   1.756   9.009
89656SOL    HW170807   7.318   1.769   9.025
89656SOL    HW270808   7.194   1.840   8.975
89657SOL     OW70809   7.250  11.660   7.147
89657SOL    HW170810   7.228  11.567   7.137
89657SOL    HW270811   7.339  11.660   7.184
89658SOL     OW70812   6.483   0.493   3.349
89658SOL    HW170813   6.557   0.548   3.326
89658SOL    HW270814   6.522   0.413   3.386
89659SOL     OW70815   3.968   3.142  10.530
89659SOL    HW170816   3.895   3.149  10.591
89659SOL    HW270817   3.931   3.167  10.445
89660SOL     OW70818   3.315   6.029   8.630
89660SOL    HW170819   3.321   6.063   8.719
89660SOL    HW270820   3.221   6.016   8.615
89661SOL     OW70821   9.853   2.939   0.590
89661SOL    HW170822   9.912   2.891   0.532
89661SOL    HW270823   9.773   2.886   0.590
89662SOL     OW70824   7.689  11.483   9.957
89662SOL    HW170825   7.718  11.394   9.978
89662SOL    HW270826   7.678  11.526  10.041
89663SOL     OW70827  14.099  11.242   4.574
89663SOL    HW170828  14.015  11.287   4.564
89663SOL    HW270829  14.105  11.184   4.499
89664SOL     OW70830   3.151  10.194   1.183
89664SOL    HW170831   3.092  10.245   1.127
89664SOL    HW270832   3.116  10.105   1.179
89665SOL     OW70833   0.557  10.814  10.249
89665SOL    HW170834   0.511  10.730  10.252
89665SOL    HW270835   0.595  10.817  10.162
89666SOL     OW70836  13.561   0.516  14.459
89666SOL    HW170837  13.652   0.487  14.471
89666SOL    HW270838  13.509   0.445  14.496
89667SOL     OW70839  13.132   0.047   3.943
89667SOL    HW170840  13.095   0.134   3.956
89667SOL    HW270841  13.129   0.034   3.848
89668SOL     OW70842   0.290  12.410   1.370
89668SOL    HW170843   0.324  12.325   1.395
89668SOL    HW270844   0.306  12.416   1.275
89669SOL     OW70845  14.819  10.526   9.661
89669SOL    HW170846  14.724  10.534   9.652
89669SOL    HW270847  14.848  10.614   9.687
89670SOL     OW70848   4.363  11.657   8.477
89670SOL    HW170849   4.387  11.672   8.386
89670SOL    HW270850   4.277  11.615   8.472
89671SOL     OW70851   5.476   7.701   1.152
89671SOL    HW170852   5.571   7.703   1.163
89671SOL    HW270853   5.462   7.649   1.073
89672SOL     OW70854   1.713   3.613   4.937
89672SOL    HW170855   1.736   3.705   4.929
89672SOL    HW270856   1.752   3.572   4.859
89673SOL     OW70857  14.447   0.314  13.613
89673SOL    HW170858  14.519   0.307  13.550
89673SOL    HW270859  14.490   0.313  13.698
89674SOL     OW70860   8.378   7.579  10.153
89674SOL    HW170861   8.437   7.504  10.162
89674SOL    HW270862   8.426   7.652  10.190
89675SOL     OW70863   2.627   4.991   7.811
89675SOL    HW170864   2.653   4.899   7.806
89675SOL    HW270865   2.606   5.005   7.903
89676SOL     OW70866  14.068   3.478   5.929
89676SOL    HW170867  14.035   3.403   5.980
89676SOL    HW270868  14.163   3.474   5.939
89677SOL     OW70869  14.038   5.591  14.183
89677SOL    HW170870  14.042   5.500  14.214
89677SOL    HW270871  14.011   5.583  14.091
89678SOL     OW70872   7.989  12.863   8.488
89678SOL    HW170873   7.977  12.810   8.410
89678SOL    HW270874   8.002  12.952   8.456
89679SOL     OW70875  10.686  14.551  13.463
89679SOL    HW170876  10.753  14.600  13.416
89679SOL    HW270877  10.733  14.507  13.533
89680SOL     OW70878  11.497   1.531   5.627
89680SOL    HW170879  11.586   1.561   5.613
89680SOL    HW270880  11.506   1.439   5.650
89681SOL     OW70881  11.010   0.986  11.815
89681SOL    HW170882  11.054   0.908  11.849
89681SOL    HW270883  10.937   1.001  11.876
89682SOL     OW70884   5.655   4.183   0.552
89682SOL    HW170885   5.588   4.190   0.621
89682SOL    HW270886   5.615   4.222   0.475
89683SOL     OW70887   4.103   8.103   8.608
89683SOL    HW170888   4.175   8.047   8.577
89683SOL    HW270889   4.040   8.042   8.646
89684SOL     OW70890   4.265   1.736   6.857
89684SOL    HW170891   4.263   1.825   6.892
89684SOL    HW270892   4.273   1.680   6.935
89685SOL     OW70893   0.545  10.670   3.693
89685SOL    HW170894   0.583  10.598   3.643
89685SOL    HW270895   0.451  10.660   3.681
89686SOL     OW70896   4.076   7.900   2.167
89686SOL    HW170897   4.028   7.870   2.089
89686SOL    HW270898   4.130   7.972   2.136
89687SOL     OW70899  14.663   6.176  11.683
89687SOL    HW170900  14.661   6.091  11.727
89687SOL    HW270901  14.572   6.205  11.684
89688SOL     OW70902   1.856  10.875   0.365
89688SOL    HW170903   1.823  10.954   0.322
89688SOL    HW270904   1.843  10.806   0.300
89689SOL     OW70905  10.288   7.258  12.969
89689SOL    HW170906  10.289   7.354  12.971
89689SOL    HW270907  10.358   7.235  12.907
89690SOL     OW70908   2.633   9.468  12.316
89690SOL    HW170909   2.643   9.540  12.378
89690SOL    HW270910   2.620   9.390  12.370
89691SOL     OW70911   6.995  11.490  10.530
89691SOL    HW170912   6.946  11.480  10.612
89691SOL    HW270913   6.928  11.493  10.462
89692SOL     OW70914   0.568   3.196   6.510
89692SOL    HW170915   0.533   3.251   6.579
89692SOL    HW270916   0.541   3.239   6.429
89693SOL     OW70917   6.322  12.039  11.820
89693SOL    HW170918   6.379  11.991  11.760
89693SOL    HW270919   6.253  11.977  11.841
89694SOL     OW70920  10.353  14.608   9.787
89694SOL    HW170921  10.307  14.663   9.724
89694SOL    HW270922  10.288  14.544   9.815
89695SOL     OW70923  11.904   0.969  14.437
89695SOL    HW170924  11.889   0.879  14.410
89695SOL    HW270925  11.820   0.998  14.472
89696SOL     OW70926   7.339   2.149   8.308
89696SOL    HW170927   7.287   2.069   8.295
89696SOL    HW270928   7.429   2.121   8.297
89697SOL     OW70929  12.598  13.307   0.121
89697SOL    HW170930  12.554  13.250   0.057
89697SOL    HW270931  12.526  13.350   0.167
89698SOL     OW70932   0.175  14.781   3.750
89698SOL    HW170933   0.170  14.693   3.787
89698SOL    HW270934   0.222  14.768   3.667
89699SOL     OW70935  12.468  14.699   2.692
89699SOL    HW170936  12.490  14.658   2.609
89699SOL    HW270937  12.426  14.630   2.743
89700SOL     OW70938   1.955   9.953  13.751
89700SOL    HW170939   1.895   9.908  13.692
89700SOL    HW270940   1.899   9.998  13.814
89701SOL     OW70941  14.045  11.702   4.641
89701SOL    HW170942  14.109  11.716   4.711
89701SOL    HW270943  14.094  11.660   4.571
89702SOL     OW70944   7.314   3.330   0.959
89702SOL    HW170945   7.289   3.279   1.036
89702SOL    HW270946   7.300   3.421   0.986
89703SOL     OW70947  10.050   0.141  10.926
89703SOL    HW170948   9.996   0.090  10.985
89703SOL    HW270949  10.115   0.184  10.983
89704SOL     OW70950   7.005  14.712   6.584
89704SOL    HW170951   6.964  14.628   6.604
89704SOL    HW270952   7.034  14.703   6.493
89705SOL     OW70953   9.344   0.726   1.401
89705SOL    HW170954   9.353   0.673   1.480
89705SOL    HW270955   9.348   0.816   1.432
89706SOL     OW70956   1.820  12.393   8.403
89706SOL    HW170957   1.832  12.420   8.494
89706SOL    HW270958   1.842  12.300   8.402
89707SOL     OW70959  13.498  12.676   6.117
89707SOL    HW170960  13.587  12.641   6.107
89707SOL    HW270961  13.442  12.598   6.113
89708SOL     OW70962   3.882   2.357  10.387
89708SOL    HW170963   3.935   2.287  10.348
89708SOL    HW270964   3.900   2.434  10.333
89709SOL     OW70965   0.922  13.668   0.199
89709SOL    HW170966   0.920  13.650   0.293
89709SOL    HW270967   0.831  13.657   0.171
89710SOL     OW70968   1.150   2.624  10.583
89710SOL    HW170969   1.177   2.592  10.669
89710SOL    HW270970   1.149   2.720  10.592
89711SOL     OW70971  11.290   3.035   0.958
89711SOL    HW170972  11.269   3.125   0.984
89711SOL    HW270973  11.367   3.013   1.010
89712SOL     OW70974  13.252   7.881   1.676
89712SOL    HW170975  13.234   7.911   1.765
89712SOL    HW270976  13.345   7.857   1.677
89713SOL     OW70977   5.564   5.842   8.100
89713SOL    HW170978   5.557   5.898   8.023
89713SOL    HW270979   5.519   5.891   8.169
89714SOL     OW70980   2.914  10.510   3.215
89714SOL    HW170981   2.966  10.579   3.175
89714SOL    HW270982   2.892  10.544   3.302
89715SOL     OW70983  11.224   8.294   9.788
89715SOL    HW170984  11.289   8.223   9.790
89715SOL    HW270985  11.167   8.273   9.715
89716SOL     OW70986   9.672   0.183   8.283
89716SOL    HW170987   9.683   0.138   8.199
89716SOL    HW270988   9.722   0.130   8.345
89717SOL     OW70989   8.574   2.668   5.275
89717SOL    HW170990   8.506   2.641   5.336
89717SOL    HW270991   8.612   2.747   5.314
89718SOL     OW70992   7.874  12.868   7.883
89718SOL    HW170993   7.823  12.820   7.817
89718SOL    HW270994   7.903  12.947   7.838
89719SOL     OW70995   4.466  13.660   2.604
89719SOL    HW170996   4.393  13.689   2.550
89719SOL    HW270997   4.528  13.733   2.602
89720SOL     OW70998  13.450   5.357   8.002
89720SOL    HW170999  13.488   5.280   8.043
89720SOL    HW271000  13.376   5.380   8.058
89721SOL     OW71001   0.541   4.427   2.465
89721SOL    HW171002   0.543   4.375   2.385
89721SOL    HW271003   0.513   4.366   2.533
89722SOL     OW71004  11.135  14.300   4.226
89722SOL    HW171005  11.169  14.360   4.293
89722SOL    HW271006  11.045  14.328   4.212
89723SOL     OW71007  10.301   1.665   4.577
89723SOL    HW171008  10.225   1.606   4.578
89723SOL    HW271009  10.305   1.700   4.666
89724SOL     OW71010  10.587   6.134   3.442
89724SOL    HW171011  10.543   6.191   3.379
89724SOL    HW271012  10.645   6.192   3.491
89725SOL     OW71013   2.276  11.835   2.784
89725SOL    HW171014   2.210  11.904   2.774
89725SOL    HW271015   2.288  11.800   2.695
89726SOL     OW71016   1.589   1.244   5.247
89726SOL    HW171017   1.499   1.267   5.269
89726SOL    HW271018   1.587   1.228   5.152
89727SOL     OW71019   7.988   0.912   9.777
89727SOL    HW171020   8.036   0.863   9.844
89727SOL    HW271021   7.920   0.959   9.825
89728SOL     OW71022   6.175   1.125   4.520
89728SOL    HW171023   6.079   1.132   4.514
89728SOL    HW271024   6.206   1.151   4.433
89729SOL     OW71025  11.902   0.688  14.423
89729SOL    HW171026  11.926   0.599  14.401
89729SOL    HW271027  11.862   0.681  14.510
89730SOL     OW71028  11.983   8.470  12.551
89730SOL    HW171029  11.976   8.487  12.457
89730SOL    HW271030  12.050   8.403  12.559
89731SOL     OW71031   7.738   6.273   8.395
89731SOL    HW171032   7.683   6.221   8.337
89731SOL    HW271033   7.819   6.223   8.402
89732SOL     OW71034  10.791  12.312   9.449
89732SOL    HW171035  10.783  12.405   9.473
89732SOL    HW271036  10.885  12.297   9.442
89733SOL     OW71037   9.942   5.707  13.995
89733SOL    HW171038   9.959   5.673  14.082
89733SOL    HW271039   9.926   5.630  13.941
89734SOL     OW71040   1.111  11.431   6.343
89734SOL    HW171041   1.035  11.482   6.372
89734SOL    HW271042   1.085  11.340   6.356
89735SOL     OW71043   6.740   5.128   4.803
89735SOL    HW171044   6.760   5.071   4.878
89735SOL    HW271045   6.800   5.100   4.734
89736SOL     OW71046  13.315   2.300  10.836
89736SOL    HW171047  13.292   2.229  10.775
89736SOL    HW271048  13.248   2.367  10.821
89737SOL     OW71049   5.705   0.497   8.461
89737SOL    HW171050   5.694   0.449   8.543
89737SOL    HW271051   5.768   0.445   8.411
89738SOL     OW71052   7.629   9.278   0.794
89738SOL    HW171053   7.560   9.334   0.759
89738SOL    HW271054   7.708   9.306   0.746
89739SOL     OW71055  13.873   5.672   4.447
89739SOL    HW171056  13.804   5.654   4.383
89739SOL    HW271057  13.850   5.757   4.484
89740SOL     OW71058   1.022  12.023  13.868
89740SOL    HW171059   1.107  12.031  13.824
89740SOL    HW271060   0.988  12.113  13.870
89741SOL     OW71061   8.713  10.983   1.448
89741SOL    HW171062   8.781  10.930   1.489
89741SOL    HW271063   8.643  10.985   1.513
89742SOL     OW71064  10.057   8.757   2.318
89742SOL    HW171065  10.125   8.762   2.386
89742SOL    HW271066  10.088   8.816   2.250
89743SOL     OW71067   6.755   7.437   4.887
89743SOL    HW171068   6.749   7.398   4.974
89743SOL    HW271069   6.665   7.434   4.853
89744SOL     OW71070   4.037  13.516   9.683
89744SOL    HW171071   3.951  13.517   9.640
89744SOL    HW271072   4.016  13.506   9.776
89745SOL     OW71073   1.506   5.165   5.182
89745SOL    HW171074   1.439   5.179   5.115
89745SOL    HW271075   1.493   5.235   5.245
89746SOL     OW71076  13.584   3.404   2.192
89746SOL    HW171077  13.654   3.418   2.128
89746SOL    HW271078  13.524   3.477   2.176
89747SOL     OW71079  12.076  12.592  11.310
89747SOL    HW171080  12.095  12.500  11.289
89747SOL    HW271081  12.163  12.632  11.320
89748SOL     OW71082   5.306   4.662   8.028
89748SOL    HW171083   5.320   4.574   7.994
89748SOL    HW271084   5.306   4.651   8.124
89749SOL     OW71085   6.674   2.098   9.252
89749SOL    HW171086   6.745   2.093   9.316
89749SOL    HW271087   6.700   2.169   9.194
89750SOL     OW71088   7.913   6.497   1.972
89750SOL    HW171089   7.943   6.406   1.969
89750SOL    HW271090   7.935   6.527   2.060
89751SOL     OW71091   7.813   8.872   5.987
89751SOL    HW171092   7.880   8.920   5.938
89751SOL    HW271093   7.742   8.859   5.924
89752SOL     OW71094   7.281  12.358   6.337
89752SOL    HW171095   7.324  12.350   6.422
89752SOL    HW271096   7.217  12.286   6.336
89753SOL     OW71097   5.349   5.672   9.770
89753SOL    HW171098   5.376   5.754   9.814
89753SOL    HW271099   5.256   5.665   9.789
89754SOL     OW71100   0.362  11.216   8.432
89754SOL    HW171101   0.394  11.204   8.522
89754SOL    HW271102   0.365  11.311   8.419
89755SOL     OW71103  13.035  11.649  10.168
89755SOL    HW171104  13.022  11.704  10.090
89755SOL    HW271105  12.947  11.635  10.203
89756SOL     OW71106  11.294   8.191  11.532
89756SOL    HW171107  11.251   8.112  11.566
89756SOL    HW271108  11.306   8.247  11.609
89757SOL     OW71109  13.597   5.598   6.639
89757SOL    HW171110  13.544   5.575   6.715
89757SOL    HW271111  13.568   5.538   6.570
89758SOL     OW71112   0.124   3.728   7.656
89758SOL    HW171113   0.119   3.633   7.654
89758SOL    HW271114   0.058   3.755   7.720
89759SOL     OW71115   1.697  11.311   1.316
89759SOL    HW171116   1.711  11.405   1.326
89759SOL    HW271117   1.602  11.300   1.318
89760SOL     OW71118   6.835   4.998  14.081
89760SOL    HW171119   6.811   4.980  14.172
89760SOL    HW271120   6.802   4.923  14.032
89761SOL     OW71121   6.488   6.311  11.604
89761SOL    HW171122   6.577   6.345  11.608
89761SOL    HW271123   6.498   6.221  11.573
89762SOL     OW71124   1.108   2.274   3.828
89762SOL    HW171125   1.045   2.335   3.789
89762SOL    HW271126   1.167   2.251   3.755
89763SOL     OW71127   7.399   2.927   1.433
89763SOL    HW171128   7.437   2.980   1.502
89763SOL    HW271129   7.401   2.983   1.356
89764SOL     OW71130   7.018   2.961   0.083
89764SOL    HW171131   7.023   2.868   0.063
89764SOL    HW271132   7.011   2.965   0.178
89765SOL     OW71133  13.339  12.828  10.362
89765SOL    HW171134  13.293  12.895  10.311
89765SOL    HW271135  13.366  12.874  10.442
89766SOL     OW71136   1.970   1.207   0.910
89766SOL    HW171137   1.928   1.242   0.832
89766SOL    HW271138   2.038   1.271   0.932
89767SOL     OW71139   8.227  11.800   7.425
89767SOL    HW171140   8.179  11.724   7.392
89767SOL    HW271141   8.159  11.867   7.436
89768SOL     OW71142   3.253  14.873   5.068
89768SOL    HW171143   3.294  14.842   4.986
89768SOL    HW271144   3.162  14.846   5.060
89769SOL     OW71145   5.144   7.224   5.037
89769SOL    HW171146   5.206   7.162   4.999
89769SOL    HW271147   5.176   7.239   5.126
89770SOL     OW71148  10.418  12.553  13.568
89770SOL    HW171149  10.457  12.506  13.494
89770SOL    HW271150  10.388  12.484  13.627
89771SOL     OW71151  10.498   3.998  13.752
89771SOL    HW171152  10.420   3.994  13.698
89771SOL    HW271153  10.570   4.008  13.689
89772SOL     OW71154   6.602  10.668  12.183
89772SOL    HW171155   6.528  10.617  12.149
89772SOL    HW271156   6.625  10.624  12.265
89773SOL     OW71157  14.602  10.342   1.987
89773SOL    HW171158  14.679  10.389   1.955
89773SOL    HW271159  14.621  10.324   2.079
89774SOL     OW71160   3.556  14.513  10.565
89774SOL    HW171161   3.464  14.538  10.556
89774SOL    HW271162   3.575  14.463  10.486
89775SOL     OW71163  14.199   2.054  10.693
89775SOL    HW171164  14.163   2.057  10.781
89775SOL    HW271165  14.247   2.137  10.684
89776SOL     OW71166   6.649  14.352   4.428
89776SOL    HW171167   6.699  14.419   4.474
89776SOL    HW271168   6.683  14.269   4.463
89777SOL     OW71169   9.162   1.688   5.501
89777SOL    HW171170   9.171   1.775   5.464
89777SOL    HW271171   9.135   1.702   5.592
89778SOL     OW71172   4.871  10.762   0.054
89778SOL    HW171173   4.878  10.668   0.039
89778SOL    HW271174   4.790  10.773   0.104
89779SOL     OW71175   2.564   6.711   6.640
89779SOL    HW171176   2.559   6.799   6.603
89779SOL    HW271177   2.595   6.725   6.730
89780SOL     OW71178   4.440   8.734   9.499
89780SOL    HW171179   4.347   8.742   9.520
89780SOL    HW271180   4.478   8.817   9.527
89781SOL     OW71181   9.023   7.876   2.598
89781SOL    HW171182   9.053   7.794   2.559
89781SOL    HW271183   9.104   7.921   2.624
89782SOL     OW71184   6.550  11.041  11.788
89782SOL    HW171185   6.564  10.947  11.791
89782SOL    HW271186   6.476  11.057  11.846
89783SOL     OW71187  14.028   1.110   7.512
89783SOL    HW171188  14.120   1.104   7.536
89783SOL    HW271189  13.982   1.062   7.580
89784SOL     OW71190   3.194   3.403  10.401
89784SOL    HW171191   3.275   3.426  10.355
89784SOL    HW271192   3.192   3.461  10.477
89785SOL     OW71193   9.215   4.713   0.809
89785SOL    HW171194   9.136   4.764   0.791
89785SOL    HW271195   9.230   4.662   0.729
89786SOL     OW71196   5.423  13.785   0.642
89786SOL    HW171197   5.354  13.845   0.614
89786SOL    HW271198   5.397  13.757   0.729
89787SOL     OW71199   4.519  10.962  12.408
89787SOL    HW171200   4.587  10.922  12.462
89787SOL    HW271201   4.436  10.937  12.451
89788SOL     OW71202   2.224  11.476  10.372
89788SOL    HW171203   2.195  11.448  10.285
89788SOL    HW271204   2.304  11.526  10.356
89789SOL     OW71205   4.476  13.451  12.541
89789SOL    HW171206   4.427  13.418  12.465
89789SOL    HW271207   4.410  13.494  12.595
89790SOL     OW71208  13.247  14.871  10.504
89790SOL    HW171209  13.319  14.820  10.467
89790SOL    HW271210  13.185  14.807  10.536
89791SOL     OW71211   7.716   8.729   0.941
89791SOL    HW171212   7.800   8.705   0.980
89791SOL    HW271213   7.651   8.687   0.997
89792SOL     OW71214   1.258   3.574   5.963
89792SOL    HW171215   1.342   3.615   5.945
89792SOL    HW271216   1.201   3.646   5.989
89793SOL     OW71217   9.977   0.258   8.618
89793SOL    HW171218   9.930   0.199   8.678
89793SOL    HW271219   9.996   0.336   8.670
89794SOL     OW71220   1.754   4.214   1.214
89794SOL    HW171221   1.659   4.219   1.214
89794SOL    HW271222   1.776   4.169   1.295
89795SOL     OW71223   5.652  14.157   0.516
89795SOL    HW171224   5.691  14.154   0.603
89795SOL    HW271225   5.671  14.246   0.485
89796SOL     OW71226   4.472   2.319  10.322
89796SOL    HW171227   4.486   2.413  10.327
89796SOL    HW271228   4.477   2.299  10.229
89797SOL     OW71229  11.311  12.908  13.967
89797SOL    HW171230  11.253  12.924  13.892
89797SOL    HW271231  11.394  12.881  13.927
89798SOL     OW71232  11.284   0.601  12.171
89798SOL    HW171233  11.373   0.635  12.168
89798SOL    HW271234  11.275   0.549  12.091
89799SOL     OW71235   4.489   9.987  14.580
89799SOL    HW171236   4.558  10.053  14.586
89799SOL    HW271237   4.526   9.919  14.524
89800SOL     OW71238   2.744   6.862   4.606
89800SOL    HW171239   2.821   6.805   4.603
89800SOL    HW271240   2.730   6.879   4.699
89801SOL     OW71241  12.596  10.836  14.320
89801SOL    HW171242  12.614  10.929  14.310
89801SOL    HW271243  12.527  10.832  14.387
89802SOL     OW71244  12.388   9.354   7.021
89802SOL    HW171245  12.330   9.352   7.097
89802SOL    HW271246  12.345   9.298   6.956
89803SOL     OW71247   2.117   4.141   1.377
89803SOL    HW171248   2.158   4.173   1.457
89803SOL    HW271249   2.029   4.116   1.404
89804SOL     OW71250  14.345  12.795  13.160
89804SOL    HW171251  14.336  12.715  13.107
89804SOL    HW271252  14.258  12.810  13.197
89805SOL     OW71253   5.466  12.645  14.533
89805SOL    HW171254   5.524  12.575  14.505
89805SOL    HW271255   5.505  12.676  14.615
89806SOL     OW71256   2.375   4.010   7.421
89806SOL    HW171257   2.301   4.046   7.470
89806SOL    HW271258   2.335   3.948   7.360
89807SOL     OW71259  11.094   6.094  11.578
89807SOL    HW171260  11.107   6.050  11.495
89807SOL    HW271261  11.013   6.058  11.613
89808SOL     OW71262   3.757   3.207  10.667
89808SOL    HW171263   3.681   3.185  10.614
89808SOL    HW271264   3.732   3.287  10.713
89809SOL     OW71265   1.898  11.414   2.211
89809SOL    HW171266   1.950  11.457   2.143
89809SOL    HW271267   1.962  11.383   2.274
89810SOL     OW71268   1.850   9.686  10.663
89810SOL    HW171269   1.858   9.708  10.756
89810SOL    HW271270   1.916   9.618  10.649
89811SOL     OW71271   2.922   0.651   7.926
89811SOL    HW171272   2.883   0.733   7.897
89811SOL    HW271273   2.861   0.584   7.898
89812SOL     OW71274   5.690   0.864   7.099
89812SOL    HW171275   5.731   0.828   7.178
89812SOL    HW271276   5.695   0.959   7.110
89813SOL     OW71277  14.521  13.451   7.097
89813SOL    HW171278  14.471  13.450   7.016
89813SOL    HW271279  14.478  13.386   7.153
89814SOL     OW71280   6.272   1.654   1.276
89814SOL    HW171281   6.205   1.587   1.267
89814SOL    HW271282   6.337   1.633   1.209
89815SOL     OW71283   3.553   2.555   7.681
89815SOL    HW171284   3.531   2.574   7.590
89815SOL    HW271285   3.578   2.463   7.681
89816SOL     OW71286   4.751   6.570   7.356
89816SOL    HW171287   4.753   6.665   7.367
89816SOL    HW271288   4.789   6.536   7.437
89817SOL     OW71289   4.659   7.309  11.261
89817SOL    HW171290   4.695   7.387  11.218
89817SOL    HW271291   4.708   7.302  11.343
89818SOL     OW71292   4.480   1.439   7.037
89818SOL    HW171293   4.502   1.529   7.062
89818SOL    HW271294   4.520   1.428   6.951
89819SOL     OW71295  12.402  11.599   6.405
89819SOL    HW171296  12.424  11.692   6.415
89819SOL    HW271297  12.462  11.554   6.464
89820SOL     OW71298  13.134   5.603   7.929
89820SOL    HW171299  13.211   5.556   7.896
89820SOL    HW271300  13.159   5.695   7.928
89821SOL     OW71301  14.344   8.856  12.425
89821SOL    HW171302  14.380   8.917  12.489
89821SOL    HW271303  14.413   8.846  12.359
89822SOL     OW71304   9.135   4.525   0.175
89822SOL    HW171305   9.040   4.535   0.180
89822SOL    HW271306   9.168   4.615   0.168
89823SOL     OW71307   0.951   4.012   4.900
89823SOL    HW171308   0.928   4.104   4.886
89823SOL    HW271309   1.041   4.015   4.934
89824SOL     OW71310   7.850   4.349  10.109
89824SOL    HW171311   7.908   4.320  10.179
89824SOL    HW271312   7.843   4.444  10.121
89825SOL     OW71313   6.425  10.195   3.337
89825SOL    HW171314   6.504  10.190   3.390
89825SOL    HW271315   6.447  10.146   3.257
89826SOL     OW71316   3.022  11.719  11.491
89826SOL    HW171317   3.068  11.721  11.575
89826SOL    HW271318   3.057  11.795  11.444
89827SOL     OW71319  13.838   7.994   3.372
89827SOL    HW171320  13.895   8.066   3.399
89827SOL    HW271321  13.880   7.959   3.293
89828SOL     OW71322   1.111   5.625   7.972
89828SOL    HW171323   1.154   5.710   7.966
89828SOL    HW271324   1.059   5.619   7.891
89829SOL     OW71325  10.100  13.959  14.717
89829SOL    HW171326  10.033  14.027  14.703
89829SOL    HW271327  10.050  13.880  14.738
89830SOL     OW71328   5.889  10.246   4.102
89830SOL    HW171329   5.913  10.338   4.112
89830SOL    HW271330   5.969  10.204   4.070
89831SOL     OW71331  12.077  10.410  14.745
89831SOL    HW171332  12.018  10.335  14.748
89831SOL    HW271333  12.030  10.477  14.696
89832SOL     OW71334   0.628  13.051   1.227
89832SOL    HW171335   0.628  13.146   1.216
89832SOL    HW271336   0.591  13.038   1.315
89833SOL     OW71337  13.578  12.429   8.800
89833SOL    HW171338  13.539  12.466   8.721
89833SOL    HW271339  13.576  12.501   8.864
89834SOL     OW71340   3.095   1.232   0.981
89834SOL    HW171341   3.004   1.259   0.995
89834SOL    HW271342   3.101   1.145   1.020
89835SOL     OW71343   6.363   6.136   5.563
89835SOL    HW171344   6.454   6.108   5.557
89835SOL    HW271345   6.349   6.190   5.485
89836SOL     OW71346   9.932  12.648   9.030
89836SOL    HW171347   9.986  12.719   8.995
89836SOL    HW271348   9.991  12.599   9.087
89837SOL     OW71349   3.330   2.989   7.216
89837SOL    HW171350   3.413   3.002   7.263
89837SOL    HW271351   3.300   3.078   7.196
89838SOL     OW71352   0.140   4.267   2.326
89838SOL    HW171353   0.183   4.347   2.296
89838SOL    HW271354   0.181   4.197   2.275
89839SOL     OW71355   3.616   6.934   9.876
89839SOL    HW171356   3.604   6.857   9.821
89839SOL    HW271357   3.652   6.899   9.958
89840SOL     OW71358   2.613   5.874  13.556
89840SOL    HW171359   2.694   5.925  13.562
89840SOL    HW271360   2.575   5.899  13.472
89841SOL     OW71361  11.696   6.693   9.187
89841SOL    HW171362  11.693   6.780   9.148
89841SOL    HW271363  11.784   6.686   9.224
89842SOL     OW71364   2.741   6.707   6.891
89842SOL    HW171365   2.716   6.627   6.846
89842SOL    HW271366   2.836   6.702   6.900
89843SOL     OW71367  10.957   9.283  12.767
89843SOL    HW171368  11.051   9.265  12.768
89843SOL    HW271369  10.917   9.201  12.738
89844SOL     OW71370   4.334  11.324  13.044
89844SOL    HW171371   4.338  11.323  12.948
89844SOL    HW271372   4.274  11.396  13.064
89845SOL     OW71373   4.364  11.830   4.637
89845SOL    HW171374   4.392  11.920   4.623
89845SOL    HW271375   4.444  11.782   4.657
89846SOL     OW71376   7.101  13.581   9.040
89846SOL    HW171377   7.123  13.670   9.068
89846SOL    HW271378   7.142  13.524   9.106
89847SOL     OW71379   4.666   3.465  14.637
89847SOL    HW171380   4.671   3.372  14.661
89847SOL    HW271381   4.675   3.511  14.720
89848SOL     OW71382  10.102   2.925  14.766
89848SOL    HW171383  10.015   2.906  14.731
89848SOL    HW271384  10.147   2.971  14.695
89849SOL     OW71385   8.818  14.802  14.057
89849SOL    HW171386   8.910  14.787  14.033
89849SOL    HW271387   8.821  14.878  14.115
89850SOL     OW71388   4.767   8.529  13.223
89850SOL    HW171389   4.723   8.606  13.187
89850SOL    HW271390   4.700   8.460  13.219
89851SOL     OW71391  13.251   0.939  11.456
89851SOL    HW171392  13.159   0.931  11.432
89851SOL    HW271393  13.258   1.024  11.499
89852SOL     OW71394  12.075   7.782   8.760
89852SOL    HW171395  12.088   7.687   8.769
89852SOL    HW271396  12.120   7.820   8.835
89853SOL     OW71397   7.165  13.086  10.573
89853SOL    HW171398   7.221  13.051  10.504
89853SOL    HW271399   7.215  13.158  10.611
89854SOL     OW71400   9.230  11.099   0.435
89854SOL    HW171401   9.158  11.125   0.492
89854SOL    HW271402   9.187  11.061   0.358
89855SOL     OW71403  11.885   7.045   0.573
89855SOL    HW171404  11.910   7.077   0.660
89855SOL    HW271405  11.797   7.009   0.586
89856SOL     OW71406  13.324  11.971  11.350
89856SOL    HW171407  13.349  11.879  11.343
89856SOL    HW271408  13.228  11.970  11.355
89857SOL     OW71409  14.684  13.559   5.688
89857SOL    HW171410  14.594  13.534   5.667
89857SOL    HW271411  14.714  13.492   5.750
89858SOL     OW71412   8.834  11.329  10.124
89858SOL    HW171413   8.911  11.273  10.113
89858SOL    HW271414   8.788  11.323  10.040
89859SOL     OW71415   5.482  13.692   7.945
89859SOL    HW171416   5.527  13.670   7.864
89859SOL    HW271417   5.464  13.608   7.986
89860SOL     OW71418   1.967   2.712  10.350
89860SOL    HW171419   2.054   2.704  10.389
89860SOL    HW271420   1.908   2.670  10.413
89861SOL     OW71421  14.311   5.007   0.649
89861SOL    HW171422  14.387   5.056   0.678
89861SOL    HW271423  14.347   4.925   0.615
89862SOL     OW71424  10.892  13.489  13.805
89862SOL    HW171425  10.831  13.415  13.814
89862SOL    HW271426  10.840  13.556  13.760
89863SOL     OW71427   3.777   8.110   3.775
89863SOL    HW171428   3.766   8.053   3.851
89863SOL    HW271429   3.801   8.051   3.704
89864SOL     OW71430   9.732   6.307   1.213
89864SOL    HW171431   9.703   6.326   1.303
89864SOL    HW271432   9.680   6.366   1.159
89865SOL     OW71433   3.019  10.182   0.011
89865SOL    HW171434   2.962  10.195  14.815
89865SOL    HW271435   3.105  10.212  14.861
89866SOL     OW71436  14.678  14.388   8.303
89866SOL    HW171437  14.671  14.482   8.286
89866SOL    HW271438  14.753  14.359   8.252
89867SOL     OW71439   3.598  11.605   2.657
89867SOL    HW171440   3.546  11.571   2.586
89867SOL    HW271441   3.538  11.660   2.708
89868SOL     OW71442   1.308   8.113   6.725
89868SOL    HW171443   1.352   8.155   6.651
89868SOL    HW271444   1.215   8.118   6.704
89869SOL     OW71445  14.031   8.450  10.528
89869SOL    HW171446  13.942   8.475  10.553
89869SOL    HW271447  14.032   8.355  10.533
89870SOL     OW71448  13.549   1.690  11.081
89870SOL    HW171449  13.560   1.697  11.176
89870SOL    HW271450  13.549   1.596  11.063
89871SOL     OW71451   2.017   3.095  12.420
89871SOL    HW171452   1.989   3.150  12.347
89871SOL    HW271453   2.106   3.068  12.397
89872SOL     OW71454   4.270   8.168   3.855
89872SOL    HW171455   4.256   8.209   3.940
89872SOL    HW271456   4.216   8.088   3.857
89873SOL     OW71457   6.402  14.143   3.719
89873SOL    HW171458   6.428  14.056   3.749
89873SOL    HW271459   6.482  14.195   3.721
89874SOL     OW71460   7.743   4.244   1.758
89874SOL    HW171461   7.795   4.178   1.712
89874SOL    HW271462   7.653   4.227   1.730
89875SOL     OW71463  12.038   2.624   8.694
89875SOL    HW171464  11.998   2.691   8.751
89875SOL    HW271465  11.966   2.596   8.637
89876SOL     OW71466  12.723   3.660  13.486
89876SOL    HW171467  12.691   3.642  13.574
89876SOL    HW271468  12.810   3.699  13.499
89877SOL     OW71469   1.018   7.164   2.108
89877SOL    HW171470   1.051   7.096   2.050
89877SOL    HW271471   1.011   7.122   2.193
89878SOL     OW71472   1.584   4.023  14.865
89878SOL    HW171473   1.603   4.091   0.051
89878SOL    HW271474   1.581   4.071  14.782
89879SOL     OW71475   2.452  14.200   7.584
89879SOL    HW171476   2.512  14.258   7.632
89879SOL    HW271477   2.503  14.169   7.509
89880SOL     OW71478  11.286   5.739   2.743
89880SOL    HW171479  11.256   5.680   2.811
89880SOL    HW271480  11.206   5.773   2.702
89881SOL     OW71481   3.195  11.624  11.700
89881SOL    HW171482   3.290  11.628  11.709
89881SOL    HW271483   3.173  11.534  11.725
89882SOL     OW71484   0.608  13.135   5.571
89882SOL    HW171485   0.637  13.169   5.486
89882SOL    HW271486   0.519  13.105   5.555
89883SOL     OW71487   1.923   3.990  14.658
89883SOL    HW171488   1.926   4.081  14.688
89883SOL    HW271489   1.994   3.984  14.594
89884SOL     OW71490   1.526   8.177   3.919
89884SOL    HW171491   1.449   8.234   3.915
89884SOL    HW271492   1.499   8.098   3.871
89885SOL     OW71493  11.090   6.844   3.071
89885SOL    HW171494  11.102   6.833   3.166
89885SOL    HW271495  11.129   6.766   3.033
89886SOL     OW71496  14.768   6.211   7.075
89886SOL    HW171497  14.734   6.178   6.992
89886SOL    HW271498  14.863   6.209   7.065
89887SOL     OW71499  13.808   4.713   8.839
89887SOL    HW171500  13.730   4.673   8.801
89887SOL    HW271501  13.816   4.797   8.794
89888SOL     OW71502  10.417  13.471  12.399
89888SOL    HW171503  10.365  13.551  12.392
89888SOL    HW271504  10.377  13.423  12.472
89889SOL     OW71505   7.367   7.838   0.908
89889SOL    HW171506   7.371   7.913   0.967
89889SOL    HW271507   7.276   7.810   0.910
89890SOL     OW71508   5.134  11.618  14.150
89890SOL    HW171509   5.063  11.680  14.164
89890SOL    HW271510   5.214  11.667  14.169
89891SOL     OW71511  12.593   3.856   3.991
89891SOL    HW171512  12.674   3.804   3.988
89891SOL    HW271513  12.524   3.795   3.968
89892SOL     OW71514  10.082   1.678   5.562
89892SOL    HW171515  10.177   1.684   5.550
89892SOL    HW271516  10.056   1.599   5.513
89893SOL     OW71517  13.817   5.382   7.090
89893SOL    HW171518  13.736   5.336   7.068
89893SOL    HW271519  13.791   5.450   7.151
89894SOL     OW71520  10.005   1.004   5.678
89894SOL    HW171521   9.948   0.978   5.750
89894SOL    HW271522  10.067   1.066   5.717
89895SOL     OW71523  14.628   2.284   2.058
89895SOL    HW171524  14.559   2.237   2.011
89895SOL    HW271525  14.608   2.272   2.150
89896SOL     OW71526  12.381   4.943   5.906
89896SOL    HW171527  12.372   5.008   5.836
89896SOL    HW271528  12.470   4.956   5.939
89897SOL     OW71529  13.129   1.651   8.314
89897SOL    HW171530  13.124   1.595   8.391
89897SOL    HW271531  13.220   1.644   8.284
89898SOL     OW71532   8.346  10.596   6.171
89898SOL    HW171533   8.334  10.686   6.143
89898SOL    HW271534   8.263  10.572   6.212
89899SOL     OW71535   1.109   3.792   6.033
89899SOL    HW171536   1.039   3.731   6.058
89899SOL    HW271537   1.106   3.861   6.099
89900SOL     OW71538  10.489   7.680  14.198
89900SOL    HW171539  10.459   7.601  14.242
89900SOL    HW271540  10.413   7.712  14.149
89901SOL     OW71541   6.613   5.992  10.681
89901SOL    HW171542   6.535   6.046  10.672
89901SOL    HW271543   6.580   5.902  10.683
89902SOL     OW71544   6.476   7.004   8.505
89902SOL    HW171545   6.408   7.015   8.571
89902SOL    HW271546   6.532   6.934   8.539
89903SOL     OW71547  11.320   1.880  14.642
89903SOL    HW171548  11.293   1.790  14.622
89903SOL    HW271549  11.244   1.917  14.687
89904SOL     OW71550   5.646  11.912   1.589
89904SOL    HW171551   5.673  11.992   1.634
89904SOL    HW271552   5.691  11.915   1.505
89905SOL     OW71553  10.013  14.238  11.801
89905SOL    HW171554  10.094  14.208  11.842
89905SOL    HW271555   9.986  14.313  11.854
89906SOL     OW71556  12.449  14.284   5.102
89906SOL    HW171557  12.462  14.286   5.197
89906SOL    HW271558  12.363  14.324   5.088
89907SOL     OW71559  12.867  14.111  13.578
89907SOL    HW171560  12.814  14.078  13.505
89907SOL    HW271561  12.930  14.041  13.596
89908SOL     OW71562   5.634   3.757   6.748
89908SOL    HW171563   5.602   3.742   6.659
89908SOL    HW271564   5.693   3.832   6.740
89909SOL     OW71565   6.434   9.308   1.240
89909SOL    HW171566   6.511   9.262   1.274
89909SOL    HW271567   6.426   9.386   1.295
89910SOL     OW71568   6.515   0.273  12.113
89910SOL    HW171569   6.487   0.360  12.083
89910SOL    HW271570   6.524   0.222  12.033
89911SOL     OW71571  14.561   9.262   9.727
89911SOL    HW171572  14.483   9.316   9.737
89911SOL    HW271573  14.566   9.212   9.809
89912SOL     OW71574   3.049   6.170   4.309
89912SOL    HW171575   3.095   6.212   4.382
89912SOL    HW271576   3.070   6.223   4.233
89913SOL     OW71577   6.995   3.273   9.697
89913SOL    HW171578   7.066   3.309   9.750
89913SOL    HW271579   6.972   3.344   9.637
89914SOL     OW71580   9.605   8.530   9.645
89914SOL    HW171581   9.690   8.486   9.641
89914SOL    HW271582   9.620   8.615   9.605
89915SOL     OW71583   1.501   6.148  12.042
89915SOL    HW171584   1.568   6.196  11.993
89915SOL    HW271585   1.425   6.206  12.042
89916SOL     OW71586  14.873   7.377  11.948
89916SOL    HW171587  14.869   7.469  11.973
89916SOL    HW271588  14.788   7.360  11.906
89917SOL     OW71589   7.666   8.201   4.261
89917SOL    HW171590   7.703   8.286   4.236
89917SOL    HW271591   7.576   8.205   4.230
89918SOL     OW71592   1.725   9.770   4.152
89918SOL    HW171593   1.770   9.692   4.121
89918SOL    HW271594   1.749   9.838   4.090
89919SOL     OW71595   9.427  13.421   8.778
89919SOL    HW171596   9.344  13.386   8.746
89919SOL    HW271597   9.491  13.354   8.758
89920SOL     OW71598  13.091   7.818   3.837
89920SOL    HW171599  13.049   7.884   3.893
89920SOL    HW271600  13.112   7.746   3.897
89921SOL     OW71601   3.545   5.269  13.196
89921SOL    HW171602   3.457   5.289  13.229
89921SOL    HW271603   3.603   5.295  13.267
89922SOL     OW71604   2.647   9.541   7.642
89922SOL    HW171605   2.669   9.506   7.728
89922SOL    HW271606   2.653   9.466   7.583
89923SOL     OW71607   7.931  14.039  11.193
89923SOL    HW171608   7.840  14.052  11.168
89923SOL    HW271609   7.980  14.101  11.139
89924SOL     OW71610   6.679   4.798  12.783
89924SOL    HW171611   6.753   4.748  12.819
89924SOL    HW271612   6.603   4.746  12.807
89925SOL     OW71613  13.095  14.802   8.875
89925SOL    HW171614  13.131  14.878   8.922
89925SOL    HW271615  13.067  14.742   8.944
89926SOL     OW71616   1.043   4.591  14.762
89926SOL    HW171617   1.042   4.676  14.718
89926SOL    HW271618   0.953   4.559  14.754
89927SOL     OW71619   4.107   8.233  11.244
89927SOL    HW171620   4.116   8.326  11.260
89927SOL    HW271621   4.086   8.195  11.329
89928SOL     OW71622   2.118  11.706   2.579
89928SOL    HW171623   2.051  11.666   2.523
89928SOL    HW271624   2.175  11.634   2.604
89929SOL     OW71625  13.969  14.313   9.638
89929SOL    HW171626  14.055  14.327   9.678
89929SOL    HW271627  13.936  14.401   9.621
89930SOL     OW71628   4.057   9.370   7.435
89930SOL    HW171629   4.113   9.373   7.513
89930SOL    HW271630   3.972   9.402   7.465
89931SOL     OW71631  12.370   8.703   1.306
89931SOL    HW171632  12.342   8.753   1.382
89931SOL    HW271633  12.414   8.626   1.342
89932SOL     OW71634  13.965   8.801   5.206
89932SOL    HW171635  14.032   8.812   5.139
89932SOL    HW271636  13.985   8.868   5.271
89933SOL     OW71637   0.279   5.113  10.305
89933SOL    HW171638   0.254   5.021  10.293
89933SOL    HW271639   0.227   5.160  10.240
89934SOL     OW71640  12.418   6.674   7.863
89934SOL    HW171641  12.460   6.744   7.913
89934SOL    HW271642  12.478   6.656   7.791
89935SOL     OW71643   3.422  13.362   7.713
89935SOL    HW171644   3.465  13.320   7.786
89935SOL    HW271645   3.405  13.452   7.742
89936SOL     OW71646   3.292   3.603  14.850
89936SOL    HW171647   3.219   3.662  14.828
89936SOL    HW271648   3.272   3.572   0.058
89937SOL     OW71649   8.720   2.850  11.045
89937SOL    HW171650   8.659   2.777  11.055
89937SOL    HW271651   8.727   2.863  10.951
89938SOL     OW71652   3.902   0.306   1.307
89938SOL    HW171653   3.823   0.354   1.285
89938SOL    HW271654   3.874   0.241   1.371
89939SOL     OW71655   3.496  10.426   1.570
89939SOL    HW171656   3.404  10.435   1.545
89939SOL    HW271657   3.536  10.509   1.544
89940SOL     OW71658   8.453  11.861   8.599
89940SOL    HW171659   8.547  11.861   8.584
89940SOL    HW271660   8.432  11.770   8.620
89941SOL     OW71661  13.749  11.956   6.685
89941SOL    HW171662  13.837  11.919   6.684
89941SOL    HW271663  13.750  12.024   6.618
89942SOL     OW71664   2.406   3.524  10.515
89942SOL    HW171665   2.419   3.472  10.435
89942SOL    HW271666   2.409   3.461  10.586
89943SOL     OW71667  12.007  10.150   0.109
89943SOL    HW171668  11.960  10.157   0.026
89943SOL    HW271669  12.051  10.065   0.105
89944SOL     OW71670   8.129   2.830   6.305
89944SOL    HW171671   8.166   2.908   6.264
89944SOL    HW271672   8.069   2.864   6.372
89945SOL     OW71673   6.774   4.389  10.002
89945SOL    HW171674   6.765   4.484   9.991
89945SOL    HW271675   6.755   4.373  10.094
89946SOL     OW71676   7.095   6.692  13.311
89946SOL    HW171677   7.071   6.630  13.379
89946SOL    HW271678   7.089   6.642  13.229
89947SOL     OW71679   9.343   1.458   5.862
89947SOL    HW171680   9.314   1.497   5.944
89947SOL    HW271681   9.363   1.367   5.884
89948SOL     OW71682   5.264   8.994  14.696
89948SOL    HW171683   5.224   8.952  14.772
89948SOL    HW271684   5.313   8.924  14.653
89949SOL     OW71685  12.921  14.271   9.013
89949SOL    HW171686  12.840  14.239   8.974
89949SOL    HW271687  12.945  14.204   9.077
89950SOL     OW71688   9.104   3.347   8.418
89950SOL    HW171689   9.107   3.331   8.513
89950SOL    HW271690   9.061   3.270   8.382
89951SOL     OW71691   6.522   5.322   2.769
89951SOL    HW171692   6.565   5.243   2.801
89951SOL    HW271693   6.587   5.392   2.783
89952SOL     OW71694  13.249   3.546  11.367
89952SOL    HW171695  13.327   3.573  11.416
89952SOL    HW271696  13.201   3.628  11.352
89953SOL     OW71697   8.360   2.599   1.003
89953SOL    HW171698   8.367   2.525   1.064
89953SOL    HW271699   8.451   2.624   0.986
89954SOL     OW71700   6.976  12.633  13.250
89954SOL    HW171701   6.890  12.670  13.272
89954SOL    HW271702   6.982  12.641  13.155
89955SOL     OW71703  12.723  10.318  13.544
89955SOL    HW171704  12.781  10.245  13.567
89955SOL    HW271705  12.657  10.319  13.613
89956SOL     OW71706   4.924   1.961   1.734
89956SOL    HW171707   4.908   2.016   1.658
89956SOL    HW271708   5.005   1.914   1.713
89957SOL     OW71709   3.746   9.754   9.570
89957SOL    HW171710   3.825   9.794   9.534
89957SOL    HW271711   3.679   9.769   9.503
89958SOL     OW71712   3.834   9.522  14.183
89958SOL    HW171713   3.928   9.531  14.204
89958SOL    HW271714   3.832   9.489  14.093
89959SOL     OW71715   2.277   3.886  11.329
89959SOL    HW171716   2.305   3.843  11.248
89959SOL    HW271717   2.186   3.912  11.313
89960SOL     OW71718   1.102   1.723   6.877
89960SOL    HW171719   1.164   1.795   6.886
89960SOL    HW271720   1.112   1.692   6.787
89961SOL     OW71721  13.660  11.148  12.385
89961SOL    HW171722  13.667  11.060  12.421
89961SOL    HW271723  13.567  11.157  12.361
89962SOL     OW71724   5.514  13.138   5.497
89962SOL    HW171725   5.441  13.076   5.499
89962SOL    HW271726   5.562  13.121   5.578
89963SOL     OW71727   1.345   5.294   8.635
89963SOL    HW171728   1.345   5.387   8.659
89963SOL    HW271729   1.252   5.273   8.622
89964SOL     OW71730   6.934   4.945  14.374
89964SOL    HW171731   7.029   4.931  14.371
89964SOL    HW271732   6.923   5.028  14.421
89965SOL     OW71733   3.486  13.255  14.306
89965SOL    HW171734   3.576  13.279  14.284
89965SOL    HW271735   3.434  13.331  14.282
89966SOL     OW71736   4.800   1.527  11.253
89966SOL    HW171737   4.821   1.620  11.251
89966SOL    HW271738   4.885   1.483  11.249
89967SOL     OW71739   2.798   4.435   8.819
89967SOL    HW171740   2.768   4.392   8.739
89967SOL    HW271741   2.813   4.526   8.794
89968SOL     OW71742   6.762  14.758  10.517
89968SOL    HW171743   6.698  14.763  10.445
89968SOL    HW271744   6.717  14.711  10.587
89969SOL     OW71745  11.904  14.417  10.810
89969SOL    HW171746  11.811  14.396  10.813
89969SOL    HW271747  11.948  14.332  10.816
89970SOL     OW71748   9.893   9.314   4.376
89970SOL    HW171749   9.855   9.395   4.410
89970SOL    HW271750   9.875   9.249   4.444
89971SOL     OW71751   8.724   0.749   3.838
89971SOL    HW171752   8.812   0.719   3.860
89971SOL    HW271753   8.668   0.674   3.856
89972SOL     OW71754   1.419   3.753  11.854
89972SOL    HW171755   1.481   3.817  11.821
89972SOL    HW271756   1.469   3.701  11.918
89973SOL     OW71757  11.183  14.149   7.398
89973SOL    HW171758  11.161  14.119   7.310
89973SOL    HW271759  11.099  14.151   7.444
89974SOL     OW71760   7.240   8.076  14.114
89974SOL    HW171761   7.283   7.994  14.140
89974SOL    HW271762   7.260   8.137  14.185
89975SOL     OW71763  12.110  10.426  13.895
89975SOL    HW171764  12.139  10.409  13.805
89975SOL    HW271765  12.017  10.401  13.895
89976SOL     OW71766   8.483   3.526  13.585
89976SOL    HW171767   8.514   3.603  13.633
89976SOL    HW271768   8.506   3.544  13.494
89977SOL     OW71769   5.724   8.200  14.858
89977SOL    HW171770   5.705   8.114  14.819
89977SOL    HW271771   5.712   8.187   0.072
89978SOL     OW71772   4.476   4.569   8.755
89978SOL    HW171773   4.559   4.578   8.802
89978SOL    HW271774   4.489   4.614   8.672
89979SOL     OW71775   5.631   3.433   7.217
89979SOL    HW171776   5.646   3.524   7.191
89979SOL    HW271777   5.718   3.397   7.229
89980SOL     OW71778   2.832   8.983  13.591
89980SOL    HW171779   2.776   8.925  13.641
89980SOL    HW271780   2.868   9.044  13.655
89981SOL     OW71781   6.001  11.179   4.699
89981SOL    HW171782   6.044  11.260   4.725
89981SOL    HW271783   5.933  11.164   4.765
89982SOL     OW71784   1.102   9.037   9.311
89982SOL    HW171785   1.038   9.082   9.366
89982SOL    HW271786   1.184   9.084   9.325
89983SOL     OW71787   7.225   8.082  10.252
89983SOL    HW171788   7.224   8.084  10.156
89983SOL    HW271789   7.252   7.993  10.274
89984SOL     OW71790   1.871   3.194   9.276
89984SOL    HW171791   1.790   3.194   9.226
89984SOL    HW271792   1.892   3.286   9.288
89985SOL     OW71793   7.889   4.814  11.473
89985SOL    HW171794   7.802   4.817  11.512
89985SOL    HW271795   7.935   4.746  11.523
89986SOL     OW71796  11.964   8.183   9.892
89986SOL    HW171797  11.955   8.123   9.818
89986SOL    HW271798  12.057   8.181   9.914
89987SOL     OW71799  11.079  10.606   9.825
89987SOL    HW171800  10.990  10.595   9.858
89987SOL    HW271801  11.113  10.681   9.874
89988SOL     OW71802  14.714   7.372   6.967
89988SOL    HW171803  14.621   7.361   6.948
89988SOL    HW271804  14.754   7.390   6.882
89989SOL     OW71805  10.645  10.182   7.988
89989SOL    HW171806  10.718  10.168   8.048
89989SOL    HW271807  10.681  10.236   7.918
89990SOL     OW71808  13.163  12.481   2.071
89990SOL    HW171809  13.084  12.472   2.124
89990SOL    HW271810  13.132  12.485   1.981
89991SOL     OW71811  14.814  12.070   5.656
89991SOL    HW171812   0.006  12.117   5.612
89991SOL    HW271813  14.846  12.055   5.745
89992SOL     OW71814  13.177   2.128   0.892
89992SOL    HW171815  13.129   2.078   0.826
89992SOL    HW271816  13.204   2.208   0.847
89993SOL     OW71817  14.535   8.154   3.127
89993SOL    HW171818  14.517   8.060   3.122
89993SOL    HW271819  14.572   8.166   3.215
89994SOL     OW71820   9.491   5.960   7.077
89994SOL    HW171821   9.397   5.968   7.065
89994SOL    HW271822   9.529   5.999   6.998
89995SOL     OW71823   7.811   2.559  14.761
89995SOL    HW171824   7.869   2.497  14.806
89995SOL    HW271825   7.836   2.644  14.796
89996SOL     OW71826   5.790   6.857   8.613
89996SOL    HW171827   5.824   6.778   8.572
89996SOL    HW271828   5.830   6.929   8.563
89997SOL     OW71829   3.932  10.675   9.757
89997SOL    HW171830   3.928  10.716   9.671
89997SOL    HW271831   3.906  10.744   9.818
89998SOL     OW71832  12.072   3.632  11.912
89998SOL    HW171833  12.006   3.571  11.879
89998SOL    HW271834  12.155   3.585  11.902
89999SOL     OW71835  10.668   3.833   7.074
89999SOL    HW171836  10.763   3.833   7.082
89999SOL    HW271837  10.645   3.924   7.056
90000SOL     OW71838   8.330  13.249   4.280
90000SOL    HW171839   8.295  13.309   4.345
90000SOL    HW271840   8.402  13.204   4.325
90001SOL     OW71841   8.752   8.361   3.794
90001SOL    HW171842   8.803   8.425   3.845
90001SOL    HW271843   8.807   8.342   3.718
90002SOL     OW71844   2.068   9.113  10.029
90002SOL    HW171845   1.989   9.110   9.975
90002SOL    HW271846   2.056   9.045  10.095
90003SOL     OW71847   2.961   6.855  10.960
90003SOL    HW171848   2.904   6.932  10.969
90003SOL    HW271849   3.011   6.853  11.041
90004SOL     OW71850  11.750  10.162   3.782
90004SOL    HW171851  11.707  10.231   3.732
90004SOL    HW271852  11.841  10.192   3.790
90005SOL     OW71853  12.798   6.220   0.338
90005SOL    HW171854  12.808   6.266   0.254
90005SOL    HW271855  12.883   6.230   0.380
90006SOL     OW71856   8.318   5.916   9.166
90006SOL    HW171857   8.306   5.835   9.214
90006SOL    HW271858   8.256   5.977   9.206
90007SOL     OW71859   4.772   7.020  14.567
90007SOL    HW171860   4.722   7.082  14.620
90007SOL    HW271861   4.706   6.968  14.521
90008SOL     OW71862  10.270  13.765   3.552
90008SOL    HW171863  10.361  13.734   3.547
90008SOL    HW271864  10.277  13.859   3.533
90009SOL     OW71865   1.010  11.830  12.364
90009SOL    HW171866   0.991  11.736  12.372
90009SOL    HW271867   1.092  11.841  12.412
90010SOL     OW71868   5.614  11.159   6.498
90010SOL    HW171869   5.523  11.185   6.512
90010SOL    HW271870   5.616  11.066   6.522
90011SOL     OW71871  11.849  10.083   4.739
90011SOL    HW171872  11.941  10.055   4.732
90011SOL    HW271873  11.804  10.007   4.776
90012SOL     OW71874   0.682   1.072  11.051
90012SOL    HW171875   0.592   1.044  11.063
90012SOL    HW271876   0.731   0.990  11.039
90013SOL     OW71877   2.354  13.216  13.618
90013SOL    HW171878   2.434  13.267  13.631
90013SOL    HW271879   2.347  13.163  13.697
90014SOL     OW71880  12.902   7.201   5.120
90014SOL    HW171881  12.928   7.188   5.029
90014SOL    HW271882  12.868   7.290   5.123
90015SOL     OW71883   3.552  14.619  13.454
90015SOL    HW171884   3.458  14.632  13.439
90015SOL    HW271885   3.594  14.661  13.379
90016SOL     OW71886   8.489   8.693  13.176
90016SOL    HW171887   8.555   8.753  13.208
90016SOL    HW271888   8.537   8.610  13.163
90017SOL     OW71889  10.700   5.874   5.742
90017SOL    HW171890  10.627   5.813   5.754
90017SOL    HW271891  10.778   5.819   5.743
90018SOL     OW71892   9.893  13.346   4.748
90018SOL    HW171893   9.935  13.283   4.807
90018SOL    HW271894   9.928  13.431   4.774
90019SOL     OW71895   0.006   2.205   9.048
90019SOL    HW171896  14.862   2.186   9.138
90019SOL    HW271897  14.828   2.149   8.996
90020SOL     OW71898   1.588   5.700   0.677
90020SOL    HW171899   1.507   5.730   0.637
90020SOL    HW271900   1.657   5.749   0.631
90021SOL     OW71901   0.537   1.009   2.443
90021SOL    HW171902   0.558   0.924   2.480
90021SOL    HW271903   0.451   1.031   2.479
90022SOL     OW71904  10.094   6.080   5.505
90022SOL    HW171905  10.008   6.108   5.472
90022SOL    HW271906  10.107   6.132   5.584
90023SOL     OW71907  14.174   5.590   2.532
90023SOL    HW171908  14.244   5.538   2.571
90023SOL    HW271909  14.199   5.598   2.440
90024SOL     OW71910  10.140   5.106   1.068
90024SOL    HW171911  10.179   5.024   1.098
90024SOL    HW271912  10.119   5.090   0.976
90025SOL     OW71913  13.134   9.743  14.131
90025SOL    HW171914  13.122   9.723  14.224
90025SOL    HW271915  13.135   9.838  14.127
90026SOL     OW71916   5.642   5.626  12.289
90026SOL    HW171917   5.554   5.659  12.272
90026SOL    HW271918   5.661   5.568  12.215
90027SOL     OW71919  12.033   6.477  11.028
90027SOL    HW171920  11.981   6.540  10.978
90027SOL    HW271921  11.986   6.394  11.020
90028SOL     OW71922   8.831  13.193   8.084
90028SOL    HW171923   8.871  13.218   8.167
90028SOL    HW271924   8.904  13.178   8.025
90029SOL     OW71925   1.581   7.493   3.466
90029SOL    HW171926   1.620   7.508   3.380
90029SOL    HW271927   1.492   7.464   3.448
90030SOL     OW71928   2.215  11.916  10.580
90030SOL    HW171929   2.300  11.892  10.541
90030SOL    HW271930   2.172  11.970  10.513
90031SOL     OW71931   3.291   2.713  13.502
90031SOL    HW171932   3.240   2.648  13.550
90031SOL    HW271933   3.272   2.796  13.546
90032SOL     OW71934   3.887   1.193   0.279
90032SOL    HW171935   3.929   1.279   0.289
90032SOL    HW271936   3.898   1.151   0.364
90033SOL     OW71937   0.054   3.503   4.199
90033SOL    HW171938   0.126   3.564   4.185
90033SOL    HW271939   0.095   3.416   4.198
90034SOL     OW71940   9.410  12.569   3.239
90034SOL    HW171941   9.361  12.528   3.311
90034SOL    HW271942   9.458  12.641   3.280
90035SOL     OW71943  12.911   6.749  14.484
90035SOL    HW171944  12.870   6.716  14.564
90035SOL    HW271945  12.890   6.842  14.483
90036SOL     OW71946   7.614   1.614   4.004
90036SOL    HW171947   7.541   1.611   4.066
90036SOL    HW271948   7.687   1.572   4.050
90037SOL     OW71949   0.920   4.334   7.357
90037SOL    HW171950   0.896   4.248   7.322
90037SOL    HW271951   0.836   4.379   7.369
90038SOL     OW71952  11.183   4.540   8.736
90038SOL    HW171953  11.178   4.562   8.643
90038SOL    HW271954  11.245   4.604   8.772
90039SOL     OW71955   7.848   5.346   0.644
90039SOL    HW171956   7.799   5.264   0.650
90039SOL    HW271957   7.838   5.387   0.730
90040SOL     OW71958  11.890  13.094   3.447
90040SOL    HW171959  11.888  13.005   3.482
90040SOL    HW271960  11.903  13.083   3.353
90041SOL     OW71961   9.243   0.309  13.102
90041SOL    HW171962   9.332   0.341  13.085
90041SOL    HW271963   9.233   0.234  13.043
90042SOL     OW71964  13.195   7.626  13.676
90042SOL    HW171965  13.251   7.697  13.646
90042SOL    HW271966  13.251   7.571  13.730
90043SOL     OW71967   1.889  12.253   8.719
90043SOL    HW171968   1.905  12.245   8.813
90043SOL    HW271969   1.824  12.323   8.711
90044SOL     OW71970   9.289   4.234   5.975
90044SOL    HW171971   9.351   4.172   6.014
90044SOL    HW271972   9.289   4.211   5.881
90045SOL     OW71973   4.263   2.234   9.331
90045SOL    HW171974   4.205   2.161   9.310
90045SOL    HW271975   4.254   2.294   9.258
90046SOL     OW71976  11.297  14.444   5.472
90046SOL    HW171977  11.235  14.378   5.503
90046SOL    HW271978  11.363  14.449   5.541
90047SOL     OW71979   1.313   1.607   9.883
90047SOL    HW171980   1.338   1.674   9.820
90047SOL    HW271981   1.220   1.594   9.869
90048SOL     OW71982  12.498   0.036   2.965
90048SOL    HW171983  12.552   0.051   2.888
90048SOL    HW271984  12.457  14.830   2.950
90049SOL     OW71985   5.598   9.478   1.577
90049SOL    HW171986   5.631   9.443   1.660
90049SOL    HW271987   5.522   9.530   1.602
90050SOL     OW71988  14.009  13.463  12.814
90050SOL    HW171989  14.030  13.461  12.908
90050SOL    HW271990  13.945  13.392  12.803
90051SOL     OW71991   3.360   4.876  13.264
90051SOL    HW171992   3.351   4.887  13.358
90051SOL    HW271993   3.274   4.898  13.229
90052SOL     OW71994   9.529   3.843   0.583
90052SOL    HW171995   9.611   3.864   0.539
90052SOL    HW271996   9.469   3.817   0.512
90053SOL     OW71997  12.226   3.318  14.111
90053SOL    HW171998  12.229   3.375  14.034
90053SOL    HW271999  12.134   3.293  14.118
90054SOL     OW72000   3.040  12.742  10.521
90054SOL    HW172001   3.046  12.664  10.465
90054SOL    HW272002   2.963  12.789  10.487
90055SOL     OW72003   2.549   1.583   2.616
90055SOL    HW172004   2.480   1.543   2.563
90055SOL    HW272005   2.502   1.620   2.692
90056SOL     OW72006   1.058  13.018   4.054
90056SOL    HW172007   1.113  13.083   4.099
90056SOL    HW272008   0.989  13.069   4.012
90057SOL     OW72009   8.283   4.759  14.190
90057SOL    HW172010   8.311   4.784  14.102
90057SOL    HW272011   8.222   4.687  14.176
90058SOL     OW72012   8.259   6.233  13.843
90058SOL    HW172013   8.344   6.192  13.827
90058SOL    HW272014   8.249   6.297  13.772
90059SOL     OW72015   7.904   0.782   8.355
90059SOL    HW172016   7.989   0.747   8.382
90059SOL    HW272017   7.921   0.821   8.269
90060SOL     OW72018   2.114   2.954   4.792
90060SOL    HW172019   2.122   3.013   4.867
90060SOL    HW272020   2.155   3.000   4.720
90061SOL     OW72021   1.932   4.049  13.330
90061SOL    HW172022   1.950   3.967  13.283
90061SOL    HW272023   1.964   4.033  13.419
90062SOL     OW72024   4.908   6.373  12.123
90062SOL    HW172025   4.913   6.425  12.042
90062SOL    HW272026   4.988   6.395  12.170
90063SOL     OW72027   1.267   4.748  13.806
90063SOL    HW172028   1.297   4.663  13.837
90063SOL    HW272029   1.312   4.761  13.722
90064SOL     OW72030   7.655   9.266   9.173
90064SOL    HW172031   7.723   9.247   9.108
90064SOL    HW272032   7.671   9.357   9.199
90065SOL     OW72033  14.407   4.930   5.650
90065SOL    HW172034  14.499   4.908   5.657
90065SOL    HW272035  14.393   4.995   5.720
90066SOL     OW72036   2.760  13.956  10.001
90066SOL    HW172037   2.692  14.024  10.006
90066SOL    HW272038   2.840  14.000  10.028
90067SOL     OW72039   0.564   1.853   1.840
90067SOL    HW172040   0.544   1.877   1.749
90067SOL    HW272041   0.590   1.761   1.835
90068SOL     OW72042   4.184   3.634  12.347
90068SOL    HW172043   4.124   3.636  12.273
90068SOL    HW272044   4.212   3.542  12.353
90069SOL     OW72045   0.315   6.670   5.029
90069SOL    HW172046   0.345   6.741   5.086
90069SOL    HW272047   0.224   6.656   5.054
90070SOL     OW72048   4.135   9.675   6.992
90070SOL    HW172049   4.171   9.752   6.950
90070SOL    HW272050   4.193   9.604   6.967
90071SOL     OW72051  14.649  12.806  12.016
90071SOL    HW172052  14.573  12.772  12.063
90071SOL    HW272053  14.698  12.728  11.990
90072SOL     OW72054   9.274  14.820   0.064
90072SOL    HW172055   9.306  14.749   0.120
90072SOL    HW272056   9.179  14.815   0.071
90073SOL     OW72057  10.514   7.518  13.721
90073SOL    HW172058  10.536   7.475  13.638
90073SOL    HW272059  10.449   7.460  13.761
90074SOL     OW72060  14.830   3.685   4.781
90074SOL    HW172061  14.873   3.767   4.754
90074SOL    HW272062  14.825   3.633   4.701
90075SOL     OW72063   2.025  13.874  12.011
90075SOL    HW172064   1.963  13.935  11.970
90075SOL    HW272065   2.097  13.867  11.949
90076SOL     OW72066   1.864   6.290   8.884
90076SOL    HW172067   1.899   6.226   8.822
90076SOL    HW272068   1.857   6.243   8.966
90077SOL     OW72069   2.399   9.604   9.092
90077SOL    HW172070   2.392   9.518   9.131
90077SOL    HW272071   2.488   9.607   9.056
90078SOL     OW72072  10.523  12.204   1.436
90078SOL    HW172073  10.616  12.216   1.453
90078SOL    HW272074  10.501  12.272   1.372
90079SOL     OW72075   4.878  12.708  14.861
90079SOL    HW172076   4.861  12.761  14.783
90079SOL    HW272077   4.972  12.721  14.879
90080SOL     OW72078   8.409   8.743   0.601
90080SOL    HW172079   8.393   8.662   0.552
90080SOL    HW272080   8.488   8.780   0.561
90081SOL     OW72081  11.977  14.164  12.048
90081SOL    HW172082  12.066  14.139  12.074
90081SOL    HW272083  11.930  14.176  12.130
90082SOL     OW72084   6.387  12.405   2.049
90082SOL    HW172085   6.460  12.392   1.988
90082SOL    HW272086   6.372  12.320   2.088
90083SOL     OW72087   7.278   5.791   1.274
90083SOL    HW172088   7.310   5.725   1.213
90083SOL    HW272089   7.305   5.874   1.236
90084SOL     OW72090   1.336   2.491   1.322
90084SOL    HW172091   1.318   2.459   1.410
90084SOL    HW272092   1.272   2.446   1.266
90085SOL     OW72093   3.950   7.057  13.534
90085SOL    HW172094   3.956   7.134  13.478
90085SOL    HW272095   3.941   7.092  13.623
90086SOL     OW72096   8.009  12.809   3.549
90086SOL    HW172097   8.003  12.770   3.636
90086SOL    HW272098   7.925  12.854   3.538
90087SOL     OW72099   4.068   5.120   7.871
90087SOL    HW172100   4.157   5.096   7.896
90087SOL    HW272101   4.056   5.080   7.785
90088SOL     OW72102   3.221   7.409   8.664
90088SOL    HW172103   3.180   7.399   8.750
90088SOL    HW272104   3.199   7.499   8.638
90089SOL     OW72105   1.540   7.177   6.056
90089SOL    HW172106   1.480   7.186   5.982
90089SOL    HW272107   1.517   7.092   6.095
90090SOL     OW72108   4.099   1.267   4.012
90090SOL    HW172109   4.118   1.179   4.044
90090SOL    HW272110   4.032   1.254   3.944
90091SOL     OW72111   3.174   3.277   4.325
90091SOL    HW172112   3.268   3.272   4.306
90091SOL    HW272113   3.132   3.233   4.251
90092SOL     OW72114   7.307   7.458   1.000
90092SOL    HW172115   7.381   7.441   1.058
90092SOL    HW272116   7.342   7.446   0.912
90093SOL     OW72117  12.755  11.862   3.695
90093SOL    HW172118  12.850  11.872   3.704
90093SOL    HW272119  12.721  11.870   3.784
90094SOL     OW72120   1.145   0.426   9.086
90094SOL    HW172121   1.230   0.387   9.065
90094SOL    HW272122   1.166   0.517   9.106
90095SOL     OW72123   8.808  13.258   4.798
90095SOL    HW172124   8.783  13.169   4.820
90095SOL    HW272125   8.733  13.293   4.749
90096SOL     OW72126  12.665   1.594   4.511
90096SOL    HW172127  12.737   1.632   4.561
90096SOL    HW272128  12.611   1.550   4.577
90097SOL     OW72129   2.657   8.827  13.712
90097SOL    HW172130   2.562   8.838  13.710
90097SOL    HW272131   2.674   8.771  13.788
90098SOL     OW72132  14.031   7.201   9.265
90098SOL    HW172133  14.093   7.158   9.325
90098SOL    HW272134  13.957   7.224   9.320
90099SOL     OW72135   9.156   9.988   0.439
90099SOL    HW172136   9.208  10.057   0.398
90099SOL    HW272137   9.066  10.006   0.412
90100SOL     OW72138   6.989   3.228   2.288
90100SOL    HW172139   6.943   3.200   2.209
90100SOL    HW272140   6.939   3.191   2.360
90101SOL     OW72141  10.652   1.892   3.443
90101SOL    HW172142  10.664   1.850   3.529
90101SOL    HW272143  10.682   1.827   3.380
90102SOL     OW72144  12.555   3.817  14.607
90102SOL    HW172145  12.572   3.723  14.606
90102SOL    HW272146  12.460   3.825  14.609
90103SOL     OW72147   2.741   1.452  13.530
90103SOL    HW172148   2.789   1.505  13.593
90103SOL    HW272149   2.706   1.379  13.581
90104SOL     OW72150  12.809   1.062  12.804
90104SOL    HW172151  12.831   1.155  12.809
90104SOL    HW272152  12.795   1.046  12.710
90105SOL     OW72153   5.682   4.771   1.008
90105SOL    HW172154   5.633   4.704   1.056
90105SOL    HW272155   5.666   4.751   0.916
90106SOL     OW72156   5.917   0.153   1.187
90106SOL    HW172157   5.999   0.194   1.215
90106SOL    HW272158   5.851   0.188   1.247
90107SOL     OW72159   4.345  13.278   4.804
90107SOL    HW172160   4.289  13.228   4.746
90107SOL    HW272161   4.368  13.357   4.754
90108SOL     OW72162  11.095   3.206   1.535
90108SOL    HW172163  11.059   3.181   1.450
90108SOL    HW272164  11.071   3.134   1.594
90109SOL     OW72165   7.646   1.828   9.278
90109SOL    HW172166   7.602   1.811   9.361
90109SOL    HW272167   7.700   1.906   9.295
90110SOL     OW72168   3.689  13.359  13.877
90110SOL    HW172169   3.614  13.318  13.920
90110SOL    HW272170   3.765  13.312  13.911
90111SOL     OW72171   4.937   7.109   0.739
90111SOL    HW172172   4.884   7.029   0.735
90111SOL    HW272173   5.025   7.079   0.764
90112SOL     OW72174   4.684  10.341  10.339
90112SOL    HW172175   4.691  10.339  10.435
90112SOL    HW272176   4.669  10.433  10.318
90113SOL     OW72177   8.172   8.439  11.894
90113SOL    HW172178   8.243   8.466  11.836
90113SOL    HW272179   8.093   8.464  11.847
90114SOL     OW72180   8.911   4.330   4.362
90114SOL    HW172181   8.862   4.264   4.314
90114SOL    HW272182   8.957   4.380   4.295
90115SOL     OW72183   1.735   4.176   7.074
90115SOL    HW172184   1.646   4.193   7.105
90115SOL    HW272185   1.780   4.261   7.082
90116SOL     OW72186  14.605   9.619  10.918
90116SOL    HW172187  14.669   9.552  10.893
90116SOL    HW272188  14.551   9.578  10.985
90117SOL     OW72189   2.205  13.315   7.824
90117SOL    HW172190   2.249  13.370   7.759
90117SOL    HW272191   2.253  13.233   7.822
90118SOL     OW72192   0.250   9.666   6.198
90118SOL    HW172193   0.317   9.732   6.180
90118SOL    HW272194   0.194   9.707   6.264
90119SOL     OW72195   1.541  12.281   1.733
90119SOL    HW172196   1.485  12.354   1.706
90119SOL    HW272197   1.576  12.246   1.651
90120SOL     OW72198   6.975   9.163   4.703
90120SOL    HW172199   6.996   9.256   4.711
90120SOL    HW272200   6.946   9.153   4.613
90121SOL     OW72201   8.005  14.169   8.883
90121SOL    HW172202   7.944  14.167   8.809
90121SOL    HW272203   7.951  14.144   8.958
90122SOL     OW72204  14.274   3.854  14.669
90122SOL    HW172205  14.301   3.889  14.754
90122SOL    HW272206  14.261   3.761  14.684
90123SOL     OW72207   7.474  11.733  13.446
90123SOL    HW172208   7.410  11.714  13.514
90123SOL    HW272209   7.457  11.823  13.420
90124SOL     OW72210   4.772   7.456   4.391
90124SOL    HW172211   4.839   7.518   4.421
90124SOL    HW272212   4.689   7.502   4.405
90125SOL     OW72213   5.194  12.627   0.993
90125SOL    HW172214   5.114  12.575   0.995
90125SOL    HW272215   5.240  12.597   0.914
90126SOL     OW72216   4.916  13.978  12.957
90126SOL    HW172217   4.958  14.017  12.881
90126SOL    HW272218   4.886  13.892  12.928
90127SOL     OW72219   7.079   5.987   9.143
90127SOL    HW172220   7.101   6.031   9.061
90127SOL    HW272221   7.135   6.028   9.208
90128SOL     OW72222   0.589   6.693   3.077
90128SOL    HW172223   0.574   6.783   3.105
90128SOL    HW272224   0.543   6.640   3.143
90129SOL     OW72225   4.350   9.184  14.547
90129SOL    HW172226   4.265   9.142  14.539
90129SOL    HW272227   4.378   9.201  14.457
90130SOL     OW72228   1.163   3.417   5.083
90130SOL    HW172229   1.144   3.342   5.139
90130SOL    HW272230   1.233   3.465   5.129
90131SOL     OW72231   8.883  14.670   0.241
90131SOL    HW172232   8.859  14.587   0.198
90131SOL    HW272233   8.805  14.693   0.292
90132SOL     OW72234   9.260   8.398   7.082
90132SOL    HW172235   9.208   8.390   7.163
90132SOL    HW272236   9.350   8.387   7.110
90133SOL     OW72237   4.794   6.095  11.374
90133SOL    HW172238   4.738   6.030  11.418
90133SOL    HW272239   4.829   6.149  11.445
90134SOL     OW72240  12.304  12.312   4.334
90134SOL    HW172241  12.264  12.399   4.344
90134SOL    HW272242  12.243  12.253   4.377
90135SOL     OW72243  14.382   2.041   5.197
90135SOL    HW172244  14.290   2.057   5.216
90135SOL    HW272245  14.416   2.126   5.168
90136SOL     OW72246   0.153  14.651   8.154
90136SOL    HW172247   0.200  14.690   8.080
90136SOL    HW272248   0.221  14.628   8.216
90137SOL     OW72249  13.581   4.664   0.730
90137SOL    HW172250  13.639   4.739   0.728
90137SOL    HW272251  13.526   4.678   0.808
90138SOL     OW72252  11.911  14.083  13.312
90138SOL    HW172253  11.822  14.114  13.295
90138SOL    HW272254  11.954  14.157  13.354
90139SOL     OW72255  10.197  11.815   8.352
90139SOL    HW172256  10.219  11.726   8.325
90139SOL    HW272257  10.185  11.863   8.270
90140SOL     OW72258   7.410   7.623   3.347
90140SOL    HW172259   7.335   7.682   3.335
90140SOL    HW272260   7.377   7.554   3.405
90141SOL     OW72261   0.100  11.186   2.322
90141SOL    HW172262   0.080  11.262   2.376
90141SOL    HW272263   0.182  11.208   2.279
90142SOL     OW72264  14.167   4.724   2.286
90142SOL    HW172265  14.240   4.683   2.331
90142SOL    HW272266  14.134   4.656   2.226
90143SOL     OW72267  11.049   2.622   2.753
90143SOL    HW172268  11.071   2.572   2.831
90143SOL    HW272269  10.977   2.573   2.713
90144SOL     OW72270   1.965   3.940   0.815
90144SOL    HW172271   1.939   3.921   0.725
90144SOL    HW272272   2.060   3.939   0.813
90145SOL     OW72273   0.437   6.198  11.560
90145SOL    HW172274   0.392   6.147  11.628
90145SOL    HW272275   0.419   6.150  11.479
90146SOL     OW72276   3.749   8.985   9.222
90146SOL    HW172277   3.837   9.022   9.207
90146SOL    HW272278   3.732   9.001   9.314
90147SOL     OW72279   6.415   8.580  11.748
90147SOL    HW172280   6.442   8.573  11.657
90147SOL    HW272281   6.431   8.672  11.771
90148SOL     OW72282   9.051  11.843   7.673
90148SOL    HW172283   9.026  11.934   7.654
90148SOL    HW272284   8.991  11.790   7.620
90149SOL     OW72285   4.237  11.591  12.434
90149SOL    HW172286   4.185  11.511  12.437
90149SOL    HW272287   4.311  11.570  12.376
90150SOL     OW72288  11.360   8.438  12.683
90150SOL    HW172289  11.372   8.399  12.596
90150SOL    HW272290  11.423   8.391  12.738
90151SOL     OW72291   9.896   1.206  11.836
90151SOL    HW172292   9.838   1.276  11.808
90151SOL    HW272293   9.984   1.237  11.814
90152SOL     OW72294   5.774   9.120   9.455
90152SOL    HW172295   5.866   9.099   9.469
90152SOL    HW272296   5.735   9.039   9.423
90153SOL     OW72297   0.560   8.503  12.305
90153SOL    HW172298   0.498   8.473  12.239
90153SOL    HW272299   0.533   8.592  12.325
90154SOL     OW72300  13.362   5.745   2.294
90154SOL    HW172301  13.282   5.755   2.243
90154SOL    HW272302  13.376   5.651   2.298
90155SOL     OW72303   6.538   5.232   1.842
90155SOL    HW172304   6.538   5.281   1.760
90155SOL    HW272305   6.585   5.151   1.821
90156SOL     OW72306   3.554   8.888   4.741
90156SOL    HW172307   3.480   8.831   4.720
90156SOL    HW272308   3.631   8.839   4.711
90157SOL     OW72309   6.278  10.430   5.512
90157SOL    HW172310   6.360  10.463   5.476
90157SOL    HW272311   6.256  10.354   5.457
90158SOL     OW72312  13.019   3.665   4.179
90158SOL    HW172313  13.097   3.634   4.134
90158SOL    HW272314  13.015   3.613   4.259
90159SOL     OW72315   0.983   2.712   2.999
90159SOL    HW172316   0.982   2.697   3.094
90159SOL    HW272317   1.070   2.746   2.980
90160SOL     OW72318   7.386   2.307  12.858
90160SOL    HW172319   7.393   2.333  12.766
90160SOL    HW272320   7.372   2.389  12.905
90161SOL     OW72321   7.769   8.890   4.638
90161SOL    HW172322   7.687   8.845   4.660
90161SOL    HW272323   7.836   8.822   4.643
90162SOL     OW72324   3.162   2.596   0.820
90162SOL    HW172325   3.077   2.576   0.781
90162SOL    HW272326   3.176   2.689   0.800
90163SOL     OW72327   8.753   2.467   6.917
90163SOL    HW172328   8.804   2.392   6.946
90163SOL    HW272329   8.763   2.468   6.822
90164SOL     OW72330   5.289   3.230  12.836
90164SOL    HW172331   5.307   3.206  12.745
90164SOL    HW272332   5.356   3.184  12.886
90165SOL     OW72333   1.701   1.142   8.091
90165SOL    HW172334   1.792   1.166   8.107
90165SOL    HW272335   1.706   1.068   8.031
90166SOL     OW72336   8.132   0.013  14.535
90166SOL    HW172337   8.066  14.824  14.523
90166SOL    HW272338   8.097   0.067  14.606
90167SOL     OW72339   2.700  11.882   9.337
90167SOL    HW172340   2.729  11.793   9.355
90167SOL    HW272341   2.763  11.938   9.382
90168SOL     OW72342  12.842   7.476   5.096
90168SOL    HW172343  12.925   7.520   5.082
90168SOL    HW272344  12.803   7.522   5.171
90169SOL     OW72345   3.247   7.915  10.238
90169SOL    HW172346   3.282   7.955  10.159
90169SOL    HW272347   3.287   7.964  10.310
90170SOL     OW72348  13.778   0.384  12.891
90170SOL    HW172349  13.795   0.477  12.873
90170SOL    HW272350  13.741   0.350  12.809
90171SOL     OW72351   6.769   8.515   4.816
90171SOL    HW172352   6.772   8.421   4.829
90171SOL    HW272353   6.781   8.552   4.904
90172SOL     OW72354  11.936  11.358  12.401
90172SOL    HW172355  11.892  11.356  12.486
90172SOL    HW272356  11.908  11.277  12.358
90173SOL     OW72357   1.562  12.223   0.629
90173SOL    HW172358   1.519  12.281   0.567
90173SOL    HW272359   1.656  12.232   0.611
90174SOL     OW72360   7.843  13.975   5.976
90174SOL    HW172361   7.859  14.055   5.926
90174SOL    HW272362   7.841  14.003   6.067
90175SOL     OW72363   4.826   7.702   8.583
90175SOL    HW172364   4.773   7.739   8.513
90175SOL    HW272365   4.765   7.649   8.634
90176SOL     OW72366   3.783   4.576  14.620
90176SOL    HW172367   3.797   4.527  14.540
90176SOL    HW272368   3.870   4.597  14.652
90177SOL     OW72369   9.190  11.039   6.877
90177SOL    HW172370   9.215  10.997   6.795
90177SOL    HW272371   9.139  10.973   6.924
90178SOL     OW72372   7.845   4.686  12.071
90178SOL    HW172373   7.803   4.706  11.987
90178SOL    HW272374   7.900   4.763  12.089
90179SOL     OW72375   9.799  11.734   8.680
90179SOL    HW172376   9.768  11.756   8.768
90179SOL    HW272377   9.845  11.651   8.691
90180SOL     OW72378  10.812  13.308   3.698
90180SOL    HW172379  10.745  13.317   3.766
90180SOL    HW272380  10.891  13.344   3.739
90181SOL     OW72381  14.316   2.306   2.133
90181SOL    HW172382  14.339   2.382   2.079
90181SOL    HW272383  14.322   2.338   2.223
90182SOL     OW72384   4.255   1.064   0.951
90182SOL    HW172385   4.241   1.017   0.868
90182SOL    HW272386   4.297   0.999   1.007
90183SOL     OW72387  14.080   8.804  14.737
90183SOL    HW172388  14.121   8.832  14.819
90183SOL    HW272389  14.091   8.709  14.736
90184SOL     OW72390  13.297   9.260  13.114
90184SOL    HW172391  13.362   9.319  13.153
90184SOL    HW272392  13.276   9.199  13.184
90185SOL     OW72393   3.220  11.855  12.961
90185SOL    HW172394   3.142  11.809  12.989
90185SOL    HW272395   3.281  11.786  12.935
90186SOL     OW72396   8.987   4.666   4.924
90186SOL    HW172397   9.018   4.734   4.984
90186SOL    HW272398   9.025   4.585   4.957
90187SOL     OW72399   9.793   3.377   9.946
90187SOL    HW172400   9.778   3.302  10.004
90187SOL    HW272401   9.723   3.370   9.880
90188SOL     OW72402  13.962  10.866   8.393
90188SOL    HW172403  14.014  10.944   8.373
90188SOL    HW272404  13.896  10.897   8.456
90189SOL     OW72405   4.451  13.577  13.350
90189SOL    HW172406   4.398  13.634  13.295
90189SOL    HW272407   4.494  13.517  13.288
90190SOL     OW72408   0.499   9.281   0.126
90190SOL    HW172409   0.520   9.371   0.149
90190SOL    HW272410   0.501   9.234   0.209
90191SOL     OW72411   3.642   2.832  14.665
90191SOL    HW172412   3.622   2.777  14.740
90191SOL    HW272413   3.714   2.889  14.694
90192SOL     OW72414   4.651   6.567  11.964
90192SOL    HW172415   4.703   6.646  11.981
90192SOL    HW272416   4.641   6.526  12.050
90193SOL     OW72417  13.276  10.070   9.177
90193SOL    HW172418  13.257  10.017   9.099
90193SOL    HW272419  13.256  10.012   9.250
90194SOL     OW72420  11.680  14.129  11.359
90194SOL    HW172421  11.625  14.067  11.407
90194SOL    HW272422  11.733  14.171  11.426
90195SOL     OW72423  11.450   9.528   0.086
90195SOL    HW172424  11.451   9.557   0.177
90195SOL    HW272425  11.358   9.514   0.066
90196SOL     OW72426  11.113  10.601  14.172
90196SOL    HW172427  11.090  10.694  14.181
90196SOL    HW272428  11.209  10.600  14.174
90197SOL     OW72429  10.461   2.372   3.980
90197SOL    HW172430  10.479   2.466   3.982
90197SOL    HW272431  10.370   2.365   3.950
90198SOL     OW72432   0.865   6.779   8.545
90198SOL    HW172433   0.937   6.744   8.599
90198SOL    HW272434   0.901   6.859   8.507
90199SOL     OW72435   7.511   3.232  14.320
90199SOL    HW172436   7.490   3.177  14.244
90199SOL    HW272437   7.503   3.172  14.394
90200SOL     OW72438   8.811   2.038  14.267
90200SOL    HW172439   8.824   1.991  14.185
90200SOL    HW272440   8.796   2.129  14.241
90201SOL     OW72441   5.085  12.105   5.020
90201SOL    HW172442   5.043  12.181   4.979
90201SOL    HW272443   5.144  12.071   4.953
90202SOL     OW72444   5.961   4.972  12.062
90202SOL    HW172445   5.869   4.949  12.046
90202SOL    HW272446   5.967   4.982  12.157
90203SOL     OW72447   9.964   3.654  13.094
90203SOL    HW172448   9.944   3.746  13.114
90203SOL    HW272449  10.032   3.630  13.157
90204SOL     OW72450  11.991   1.489   5.564
90204SOL    HW172451  12.078   1.529   5.551
90204SOL    HW272452  11.996   1.451   5.652
90205SOL     OW72453   3.764   9.482   4.498
90205SOL    HW172454   3.708   9.443   4.431
90205SOL    HW272455   3.845   9.431   4.496
90206SOL     OW72456  12.534  12.470   1.807
90206SOL    HW172457  12.441  12.450   1.804
90206SOL    HW272458  12.570  12.431   1.727
90207SOL     OW72459   1.122  10.400  11.298
90207SOL    HW172460   1.100  10.316  11.338
90207SOL    HW272461   1.047  10.456  11.318
90208SOL     OW72462   3.027   3.370  14.499
90208SOL    HW172463   3.041   3.314  14.576
90208SOL    HW272464   2.934   3.361  14.479
90209SOL     OW72465  10.501   5.586   3.844
90209SOL    HW172466  10.524   5.495   3.862
90209SOL    HW272467  10.585   5.633   3.848
90210SOL     OW72468  12.406  14.733   2.035
90210SOL    HW172469  12.399  14.823   2.068
90210SOL    HW272470  12.318  14.713   2.002
90211SOL     OW72471   1.753   9.323   0.984
90211SOL    HW172472   1.831   9.278   1.016
90211SOL    HW272473   1.762   9.413   1.017
90212SOL     OW72474   8.619   0.198   0.177
90212SOL    HW172475   8.688   0.190   0.242
90212SOL    HW272476   8.656   0.254   0.109
90213SOL     OW72477   7.930   3.263  13.074
90213SOL    HW172478   7.839   3.252  13.102
90213SOL    HW272479   7.937   3.214  12.993
90214SOL     OW72480   4.525   0.210  12.310
90214SOL    HW172481   4.601   0.172  12.356
90214SOL    HW272482   4.493   0.278  12.369
90215SOL     OW72483   4.683   7.011   1.309
90215SOL    HW172484   4.615   6.984   1.371
90215SOL    HW272485   4.700   7.102   1.330
90216SOL     OW72486   9.292  12.147   4.794
90216SOL    HW172487   9.308  12.174   4.885
90216SOL    HW272488   9.311  12.053   4.794
90217SOL     OW72489   7.326   5.371   1.201
90217SOL    HW172490   7.311   5.306   1.269
90217SOL    HW272491   7.242   5.416   1.193
90218SOL     OW72492  14.521  11.278   1.688
90218SOL    HW172493  14.602  11.231   1.671
90218SOL    HW272494  14.549  11.366   1.712
90219SOL     OW72495   0.887  10.902   6.776
90219SOL    HW172496   0.900  10.983   6.825
90219SOL    HW272497   0.800  10.910   6.738
90220SOL     OW72498  13.121   8.181   9.899
90220SOL    HW172499  13.207   8.154   9.932
90220SOL    HW272500  13.058   8.136   9.955
90221SOL     OW72501   4.933   1.644   4.734
90221SOL    HW172502   5.007   1.653   4.794
90221SOL    HW272503   4.858   1.627   4.791
90222SOL     OW72504   9.987   9.166   2.963
90222SOL    HW172505  10.051   9.222   3.006
90222SOL    HW272506   9.981   9.088   3.019
90223SOL     OW72507  11.487  13.437  10.122
90223SOL    HW172508  11.466  13.445  10.215
90223SOL    HW272509  11.443  13.511  10.081
90224SOL     OW72510  13.994   0.202   8.770
90224SOL    HW172511  13.915   0.194   8.823
90224SOL    HW272512  14.059   0.147   8.815
90225SOL     OW72513   6.493   4.827  11.313
90225SOL    HW172514   6.497   4.803  11.405
90225SOL    HW272515   6.415   4.882  11.306
90226SOL     OW72516  14.423   4.078   4.575
90226SOL    HW172517  14.368   4.114   4.645
90226SOL    HW272518  14.369   4.012   4.533
90227SOL     OW72519  11.052   1.342   5.432
90227SOL    HW172520  11.053   1.437   5.422
90227SOL    HW272521  11.022   1.309   5.348
90228SOL     OW72522   0.627   4.099   3.447
90228SOL    HW172523   0.626   4.054   3.532
90228SOL    HW272524   0.693   4.167   3.457
90229SOL     OW72525   1.029  12.958  12.276
90229SOL    HW172526   0.986  12.967  12.362
90229SOL    HW272527   0.957  12.968  12.213
90230SOL     OW72528   5.120  13.393   2.936
90230SOL    HW172529   5.049  13.427   2.883
90230SOL    HW272530   5.116  13.298   2.925
90231SOL     OW72531  11.219   5.739  10.829
90231SOL    HW172532  11.304   5.765  10.794
90231SOL    HW272533  11.233   5.729  10.923
90232SOL     OW72534   3.703   2.980   4.891
90232SOL    HW172535   3.639   2.968   4.961
90232SOL    HW272536   3.657   3.032   4.825
90233SOL     OW72537  13.519  12.035  11.796
90233SOL    HW172538  13.449  12.098  11.776
90233SOL    HW272539  13.524  11.980  11.717
90234SOL     OW72540   8.998   8.531   9.422
90234SOL    HW172541   9.062   8.602   9.430
90234SOL    HW272542   8.983   8.502   9.512
90235SOL     OW72543   1.304   6.073   0.613
90235SOL    HW172544   1.263   6.029   0.538
90235SOL    HW272545   1.355   6.144   0.574
90236SOL     OW72546   2.132   8.082   5.663
90236SOL    HW172547   2.153   8.130   5.743
90236SOL    HW272548   2.134   7.990   5.689
90237SOL     OW72549  11.999   6.406  10.699
90237SOL    HW172550  11.939   6.410  10.774
90237SOL    HW272551  11.942   6.391  10.624
90238SOL     OW72552   0.771   3.894   2.780
90238SOL    HW172553   0.788   3.918   2.689
90238SOL    HW272554   0.681   3.922   2.796
90239SOL     OW72555   2.484   9.727   8.761
90239SOL    HW172556   2.498   9.811   8.718
90239SOL    HW272557   2.509   9.743   8.852
90240SOL     OW72558   2.674  12.538   9.170
90240SOL    HW172559   2.594  12.521   9.221
90240SOL    HW272560   2.720  12.454   9.169
90241SOL     OW72561  10.029  14.142   3.808
90241SOL    HW172562  10.006  14.096   3.889
90241SOL    HW272563  10.023  14.075   3.740
90242SOL     OW72564  12.742   1.597   2.067
90242SOL    HW172565  12.795   1.626   1.992
90242SOL    HW272566  12.652   1.598   2.035
90243SOL     OW72567   9.997  11.105   1.778
90243SOL    HW172568  10.026  11.193   1.754
90243SOL    HW272569   9.931  11.083   1.712
90244SOL     OW72570   4.900   0.815   1.800
90244SOL    HW172571   4.815   0.836   1.839
90244SOL    HW272572   4.909   0.876   1.726
90245SOL     OW72573  12.366   9.805  11.584
90245SOL    HW172574  12.294   9.781  11.525
90245SOL    HW272575  12.342   9.767  11.669
90246SOL     OW72576  14.865   4.190   0.995
90246SOL    HW172577   0.033   4.120   1.039
90246SOL    HW272578  14.872   4.265   1.054
90247SOL     OW72579   0.343   7.978   1.795
90247SOL    HW172580   0.268   8.002   1.740
90247SOL    HW272581   0.303   7.946   1.876
90248SOL     OW72582   0.510   3.250   1.044
90248SOL    HW172583   0.493   3.175   1.101
90248SOL    HW272584   0.604   3.264   1.050
90249SOL     OW72585   5.987   6.870   8.159
90249SOL    HW172586   6.069   6.916   8.174
90249SOL    HW272587   6.013   6.780   8.139
90250SOL     OW72588  14.067   8.869  12.184
90250SOL    HW172589  14.066   8.848  12.091
90250SOL    HW272590  14.073   8.784  12.228
90251SOL     OW72591   9.953  12.498  11.887
90251SOL    HW172592   9.955  12.421  11.943
90251SOL    HW272593  10.032  12.491  11.834
90252SOL     OW72594   7.824  11.039   2.704
90252SOL    HW172595   7.780  11.121   2.727
90252SOL    HW272596   7.877  11.061   2.628
90253SOL     OW72597   7.476   4.044   2.404
90253SOL    HW172598   7.569   4.029   2.387
90253SOL    HW272599   7.436   3.957   2.400
90254SOL     OW72600  12.325   4.315   4.030
90254SOL    HW172601  12.367   4.357   4.105
90254SOL    HW272602  12.386   4.247   4.003
90255SOL     OW72603   0.827   8.404  11.951
90255SOL    HW172604   0.819   8.440  12.039
90255SOL    HW272605   0.739   8.411  11.913
90256SOL     OW72606   5.800   2.368   7.257
90256SOL    HW172607   5.725   2.393   7.310
90256SOL    HW272608   5.766   2.362   7.168
90257SOL     OW72609  11.506  12.574   4.143
90257SOL    HW172610  11.443  12.554   4.211
90257SOL    HW272611  11.570  12.503   4.146
90258SOL     OW72612   6.813   3.591   6.268
90258SOL    HW172613   6.884   3.541   6.308
90258SOL    HW272614   6.832   3.682   6.292
90259SOL     OW72615   3.041  11.620   7.242
90259SOL    HW172616   3.124  11.666   7.252
90259SOL    HW272617   2.988  11.679   7.188
90260SOL     OW72618  14.567   2.115   7.549
90260SOL    HW172619  14.564   2.030   7.505
90260SOL    HW272620  14.553   2.094   7.642
90261SOL     OW72621  13.824   4.439   9.242
90261SOL    HW172622  13.910   4.437   9.284
90261SOL    HW272623  13.832   4.508   9.175
90262SOL     OW72624  14.642   6.720   4.947
90262SOL    HW172625  14.633   6.675   5.031
90262SOL    HW272626  14.736   6.737   4.938
90263SOL     OW72627   8.982  12.612  14.529
90263SOL    HW172628   9.038  12.554  14.582
90263SOL    HW272629   8.894  12.600  14.564
90264SOL     OW72630  11.408   4.907   2.488
90264SOL    HW172631  11.341   4.930   2.551
90264SOL    HW272632  11.475   4.974   2.498
90265SOL     OW72633  13.142   6.085  12.732
90265SOL    HW172634  13.109   6.026  12.799
90265SOL    HW272635  13.100   6.056  12.651
90266SOL     OW72636   7.936   7.614  10.044
90266SOL    HW172637   7.995   7.540  10.028
90266SOL    HW272638   7.876   7.612   9.970
90267SOL     OW72639   1.418  10.289   6.672
90267SOL    HW172640   1.402  10.198   6.696
90267SOL    HW272641   1.398  10.293   6.578
90268SOL     OW72642  13.785  13.939  13.747
90268SOL    HW172643  13.711  13.945  13.808
90268SOL    HW272644  13.755  13.984  13.668
90269SOL     OW72645   5.176   5.950  12.350
90269SOL    HW172646   5.130   5.884  12.297
90269SOL    HW272647   5.174   5.915  12.439
90270SOL     OW72648  12.033  10.347   6.575
90270SOL    HW172649  11.970  10.295   6.525
90270SOL    HW272650  11.990  10.363   6.659
90271SOL     OW72651   4.431   0.916   8.787
90271SOL    HW172652   4.441   0.821   8.790
90271SOL    HW272653   4.411   0.941   8.877
90272SOL     OW72654   3.050  11.400  13.837
90272SOL    HW172655   3.048  11.324  13.779
90272SOL    HW272656   3.074  11.473  13.780
90273SOL     OW72657  11.939   3.019  13.930
90273SOL    HW172658  11.992   3.036  13.852
90273SOL    HW272659  11.953   3.096  13.985
90274SOL     OW72660   2.026  11.551  13.660
90274SOL    HW172661   2.086  11.478  13.674
90274SOL    HW272662   2.069  11.627  13.699
90275SOL     OW72663  13.504   9.529   8.125
90275SOL    HW172664  13.414   9.514   8.154
90275SOL    HW272665  13.499   9.609   8.073
90276SOL     OW72666   4.808   4.787   7.371
90276SOL    HW172667   4.835   4.811   7.283
90276SOL    HW272668   4.878   4.730   7.403
90277SOL     OW72669   6.266   3.125  12.494
90277SOL    HW172670   6.317   3.140  12.414
90277SOL    HW272671   6.327   3.080  12.553
90278SOL     OW72672   5.537  14.468   2.631
90278SOL    HW172673   5.536  14.404   2.702
90278SOL    HW272674   5.447  14.470   2.599
90279SOL     OW72675   8.583   8.902   2.618
90279SOL    HW172676   8.488   8.914   2.606
90279SOL    HW272677   8.621   8.984   2.585
90280SOL     OW72678   7.933   7.680   6.896
90280SOL    HW172679   7.983   7.618   6.949
90280SOL    HW272680   7.869   7.626   6.850
90281SOL     OW72681  14.263  12.804   5.921
90281SOL    HW172682  14.304  12.876   5.874
90281SOL    HW272683  14.332  12.738   5.927
90282SOL     OW72684   3.161   5.065  10.189
90282SOL    HW172685   3.190   5.029  10.273
90282SOL    HW272686   3.239   5.064  10.134
90283SOL     OW72687   3.242   5.911   9.485
90283SOL    HW172688   3.208   5.994   9.452
90283SOL    HW272689   3.164   5.860   9.507
90284SOL     OW72690  11.312   4.856   1.382
90284SOL    HW172691  11.334   4.878   1.473
90284SOL    HW272692  11.341   4.765   1.372
90285SOL     OW72693   1.956   2.047   6.762
90285SOL    HW172694   1.916   2.127   6.797
90285SOL    HW272695   1.888   2.007   6.708
90286SOL     OW72696  14.434  13.926   7.717
90286SOL    HW172697  14.516  13.971   7.740
90286SOL    HW272698  14.391  13.987   7.657
90287SOL     OW72699  14.359   5.013  13.837
90287SOL    HW172700  14.436   5.067  13.858
90287SOL    HW272701  14.385   4.924  13.861
90288SOL     OW72702   0.993   5.719  13.583
90288SOL    HW172703   1.035   5.694  13.500
90288SOL    HW272704   1.025   5.807  13.601
90289SOL     OW72705   7.160   7.939   7.466
90289SOL    HW172706   7.192   7.849   7.471
90289SOL    HW272707   7.217   7.982   7.402
90290SOL     OW72708  10.754   1.764   6.575
90290SOL    HW172709  10.774   1.733   6.664
90290SOL    HW272710  10.708   1.691   6.534
90291SOL     OW72711   4.304  14.056  13.097
90291SOL    HW172712   4.365  14.130  13.107
90291SOL    HW272713   4.219  14.094  13.118
90292SOL     OW72714  14.803   4.245   5.392
90292SOL    HW172715  14.788   4.319   5.450
90292SOL    HW272716  14.770   4.169   5.441
90293SOL     OW72717   7.255  13.252   6.020
90293SOL    HW172718   7.278  13.192   5.949
90293SOL    HW272719   7.335  13.302   6.036
90294SOL     OW72720   1.980   6.744  12.708
90294SOL    HW172721   2.051   6.809  12.704
90294SOL    HW272722   2.021   6.662  12.680
90295SOL     OW72723   2.108  11.843  11.636
90295SOL    HW172724   2.043  11.786  11.677
90295SOL    HW272725   2.067  11.929  11.633
90296SOL     OW72726   6.170   1.301   9.408
90296SOL    HW172727   6.107   1.303   9.336
90296SOL    HW272728   6.122   1.263   9.481
90297SOL     OW72729   6.241  12.569   7.033
90297SOL    HW172730   6.189  12.517   7.094
90297SOL    HW272731   6.328  12.530   7.036
90298SOL     OW72732   8.183   4.493   6.020
90298SOL    HW172733   8.163   4.440   5.943
90298SOL    HW272734   8.201   4.429   6.089
90299SOL     OW72735   7.294   5.799  14.427
90299SOL    HW172736   7.236   5.875  14.428
90299SOL    HW272737   7.362   5.821  14.364
90300SOL     OW72738  11.662   9.404   2.502
90300SOL    HW172739  11.711   9.455   2.567
90300SOL    HW272740  11.573   9.399   2.536
90301SOL     OW72741  14.548  14.715   2.884
90301SOL    HW172742  14.491  14.638   2.882
90301SOL    HW272743  14.568  14.728   2.976
90302SOL     OW72744   2.526   2.206   1.425
90302SOL    HW172745   2.609   2.251   1.437
90302SOL    HW272746   2.550   2.117   1.401
90303SOL     OW72747  10.130   2.932   1.638
90303SOL    HW172748  10.204   2.949   1.579
90303SOL    HW272749  10.167   2.942   1.726
90304SOL     OW72750   1.787   6.394  11.212
90304SOL    HW172751   1.738   6.314  11.229
90304SOL    HW272752   1.874   6.363  11.185
90305SOL     OW72753   0.407   6.095   1.984
90305SOL    HW172754   0.468   6.063   2.050
90305SOL    HW272755   0.338   6.030   1.981
90306SOL     OW72756   7.690  14.807   5.691
90306SOL    HW172757   7.644  14.813   5.607
90306SOL    HW272758   7.692  14.714   5.710
90307SOL     OW72759  14.840   1.975  13.303
90307SOL    HW172760  14.806   1.928  13.227
90307SOL    HW272761  14.763   2.015  13.343
90308SOL     OW72762  11.869   1.643   2.861
90308SOL    HW172763  11.891   1.586   2.936
90308SOL    HW272764  11.777   1.665   2.875
90309SOL     OW72765   5.028  11.774  10.773
90309SOL    HW172766   5.081  11.748  10.698
90309SOL    HW272767   5.039  11.702  10.836
90310SOL     OW72768  14.214   4.750  13.739
90310SOL    HW172769  14.303   4.772  13.767
90310SOL    HW272770  14.224   4.666  13.694
90311SOL     OW72771   8.877  12.722   6.733
90311SOL    HW172772   8.838  12.707   6.819
90311SOL    HW272773   8.815  12.779   6.688
90312SOL     OW72774   7.431   9.795  12.869
90312SOL    HW172775   7.429   9.715  12.815
90312SOL    HW272776   7.474   9.860  12.813
90313SOL     OW72777   3.197   7.039   1.254
90313SOL    HW172778   3.154   7.070   1.334
90313SOL    HW272779   3.233   7.118   1.215
90314SOL     OW72780   0.068   4.989  12.406
90314SOL    HW172781   0.127   5.035  12.466
90314SOL    HW272782   0.072   4.897  12.434
90315SOL     OW72783   3.859  13.254  10.041
90315SOL    HW172784   3.822  13.265  10.129
90315SOL    HW272785   3.913  13.332  10.028
90316SOL     OW72786   5.678  11.810  12.235
90316SOL    HW172787   5.628  11.889  12.213
90316SOL    HW272788   5.685  11.811  12.330
90317SOL     OW72789   9.007  10.003  10.531
90317SOL    HW172790   9.090  10.010  10.578
90317SOL    HW272791   8.947   9.964  10.594
90318SOL     OW72792   8.327  12.656  11.732
90318SOL    HW172793   8.422  12.655  11.723
90318SOL    HW272794   8.310  12.609  11.813
90319SOL     OW72795   9.808   6.895  12.241
90319SOL    HW172796   9.819   6.863  12.331
90319SOL    HW272797   9.836   6.821  12.187
90320SOL     OW72798  14.855  13.017  14.507
90320SOL    HW172799  14.865  12.973  14.591
90320SOL    HW272800   0.059  13.004  14.463
90321SOL     OW72801   5.943   1.047   6.262
90321SOL    HW172802   5.974   1.103   6.333
90321SOL    HW272803   5.853   1.078   6.245
90322SOL     OW72804   3.936  14.647   0.231
90322SOL    HW172805   3.945  14.576   0.295
90322SOL    HW272806   3.843  14.649   0.211
90323SOL     OW72807   7.457   2.820   5.183
90323SOL    HW172808   7.489   2.765   5.111
90323SOL    HW272809   7.470   2.909   5.152
90324SOL     OW72810   4.463   2.476  11.880
90324SOL    HW172811   4.507   2.489  11.797
90324SOL    HW272812   4.406   2.401  11.866
90325SOL     OW72813  14.011   0.702  13.457
90325SOL    HW172814  13.983   0.688  13.548
90325SOL    HW272815  13.991   0.794  13.440
90326SOL     OW72816   6.947   8.290  11.667
90326SOL    HW172817   7.012   8.223  11.687
90326SOL    HW272818   6.990   8.373  11.690
90327SOL     OW72819   3.825   1.672   3.898
90327SOL    HW172820   3.911   1.674   3.941
90327SOL    HW272821   3.771   1.730   3.951
90328SOL     OW72822  13.607   9.195  11.955
90328SOL    HW172823  13.549   9.124  11.981
90328SOL    HW272824  13.684   9.185  12.011
90329SOL     OW72825  11.673   5.308   0.215
90329SOL    HW172826  11.736   5.242   0.186
90329SOL    HW272827  11.591   5.283   0.172
90330SOL     OW72828  10.239  13.660  12.383
90330SOL    HW172829  10.166  13.600  12.400
90330SOL    HW272830  10.207  13.716  12.311
90331SOL     OW72831   2.106   1.087   4.376
90331SOL    HW172832   2.160   1.011   4.357
90331SOL    HW272833   2.016   1.053   4.379
90332SOL     OW72834   8.312  11.221   3.403
90332SOL    HW172835   8.314  11.315   3.423
90332SOL    HW272836   8.298  11.218   3.309
90333SOL     OW72837  13.805   1.818  12.899
90333SOL    HW172838  13.838   1.890  12.953
90333SOL    HW272839  13.826   1.844  12.809
90334SOL     OW72840   3.157   4.570  11.397
90334SOL    HW172841   3.091   4.636  11.377
90334SOL    HW272842   3.200   4.553  11.313
90335SOL     OW72843  12.332   3.766  10.317
90335SOL    HW172844  12.297   3.689  10.271
90335SOL    HW272845  12.259   3.797  10.370
90336SOL     OW72846  10.919  11.104  14.636
90336SOL    HW172847  10.888  11.192  14.659
90336SOL    HW272848  10.964  11.073  14.715
90337SOL     OW72849   2.580   8.750   1.453
90337SOL    HW172850   2.538   8.780   1.373
90337SOL    HW272851   2.519   8.688   1.491
90338SOL     OW72852  13.009   7.706  14.311
90338SOL    HW172853  13.004   7.693  14.217
90338SOL    HW272854  12.922   7.739  14.335
90339SOL     OW72855  12.488   1.343   1.324
90339SOL    HW172856  12.534   1.427   1.313
90339SOL    HW272857  12.412   1.350   1.267
90340SOL     OW72858  11.938   0.819   9.785
90340SOL    HW172859  11.893   0.735   9.788
90340SOL    HW272860  11.981   0.827   9.870
90341SOL     OW72861   2.393   1.942  11.317
90341SOL    HW172862   2.331   1.979  11.381
90341SOL    HW272863   2.368   1.850  11.309
90342SOL     OW72864   4.195  13.960   3.831
90342SOL    HW172865   4.213  14.053   3.841
90342SOL    HW272866   4.260  13.917   3.887
90343SOL     OW72867  12.606   0.607  14.481
90343SOL    HW172868  12.520   0.606  14.524
90343SOL    HW272869  12.663   0.654  14.541
90344SOL     OW72870   6.044   3.618   9.710
90344SOL    HW172871   6.089   3.536   9.692
90344SOL    HW272872   6.080   3.680   9.646
90345SOL     OW72873   0.400   6.000  13.725
90345SOL    HW172874   0.393   6.077  13.669
90345SOL    HW272875   0.325   5.945  13.700
90346SOL     OW72876   3.615  10.771   7.357
90346SOL    HW172877   3.677  10.772   7.430
90346SOL    HW272878   3.639  10.693   7.306
90347SOL     OW72879   9.266   8.878  14.631
90347SOL    HW172880   9.203   8.873  14.702
90347SOL    HW272881   9.268   8.790  14.594
90348SOL     OW72882  14.623   2.312   7.356
90348SOL    HW172883  14.629   2.223   7.390
90348SOL    HW272884  14.529   2.329   7.349
90349SOL     OW72885   7.879   2.357  13.446
90349SOL    HW172886   7.802   2.399  13.408
90349SOL    HW272887   7.936   2.340  13.371
90350SOL     OW72888   7.672   8.548   6.007
90350SOL    HW172889   7.636   8.622   5.958
90350SOL    HW272890   7.622   8.473   5.975
90351SOL     OW72891  10.916   3.973   6.085
90351SOL    HW172892  10.867   3.929   6.154
90351SOL    HW272893  11.000   3.926   6.081
90352SOL     OW72894   6.292  11.746   9.781
90352SOL    HW172895   6.325  11.834   9.768
90352SOL    HW272896   6.309  11.726   9.873
90353SOL     OW72897   6.641   8.399   8.541
90353SOL    HW172898   6.623   8.493   8.542
90353SOL    HW272899   6.640   8.373   8.633
90354SOL     OW72900   7.146  14.085  10.262
90354SOL    HW172901   7.056  14.054  10.261
90354SOL    HW272902   7.194  14.025  10.206
90355SOL     OW72903  11.801   3.624  13.934
90355SOL    HW172904  11.799   3.614  14.029
90355SOL    HW272905  11.756   3.707  13.918
90356SOL     OW72906   7.072   6.004   4.954
90356SOL    HW172907   7.085   6.096   4.930
90356SOL    HW272908   6.987   5.982   4.917
90357SOL     OW72909   7.725   4.005   8.475
90357SOL    HW172910   7.816   3.978   8.489
90357SOL    HW272911   7.730   4.071   8.406
90358SOL     OW72912   9.125   9.537  14.862
90358SOL    HW172913   9.190   9.550  14.793
90358SOL    HW272914   9.175   9.499   0.055
90359SOL     OW72915   3.033  14.003   4.378
90359SOL    HW172916   3.070  14.085   4.347
90359SOL    HW272917   3.108  13.944   4.387
90360SOL     OW72918  11.999   9.915  12.697
90360SOL    HW172919  12.071   9.893  12.756
90360SOL    HW272920  12.015  10.007  12.674
90361SOL     OW72921   3.126   3.555   0.904
90361SOL    HW172922   3.141   3.620   0.836
90361SOL    HW272923   3.213   3.526   0.931
90362SOL     OW72924  10.961   6.693  10.328
90362SOL    HW172925  11.029   6.702  10.261
90362SOL    HW272926  10.973   6.769  10.385
90363SOL     OW72927   3.794   5.128  13.662
90363SOL    HW172928   3.751   5.046  13.685
90363SOL    HW272929   3.739   5.196  13.702
90364SOL     OW72930   4.398   2.067  12.740
90364SOL    HW172931   4.386   2.070  12.645
90364SOL    HW272932   4.456   1.992  12.754
90365SOL     OW72933  13.107  13.389  11.815
90365SOL    HW172934  13.173  13.344  11.867
90365SOL    HW272935  13.113  13.348  11.728
90366SOL     OW72936   0.545  12.950  13.044
90366SOL    HW172937   0.616  12.913  13.096
90366SOL    HW272938   0.589  13.010  12.983
90367SOL     OW72939   1.399  14.571   0.668
90367SOL    HW172940   1.347  14.651   0.681
90367SOL    HW272941   1.381  14.546   0.577
90368SOL     OW72942  12.928   5.171   9.158
90368SOL    HW172943  12.890   5.086   9.140
90368SOL    HW272944  13.022   5.154   9.167
90369SOL     OW72945   1.471   6.555   4.694
90369SOL    HW172946   1.397   6.500   4.670
90369SOL    HW272947   1.540   6.493   4.720
90370SOL     OW72948   3.506   8.402   4.941
90370SOL    HW172949   3.564   8.450   4.882
90370SOL    HW272950   3.503   8.313   4.906
90371SOL     OW72951  14.837   7.580  12.550
90371SOL    HW172952  14.746   7.591  12.580
90371SOL    HW272953   0.010   7.620  12.619
90372SOL     OW72954   3.102   1.333   5.893
90372SOL    HW172955   3.125   1.393   5.823
90372SOL    HW272956   3.151   1.365   5.969
90373SOL     OW72957  14.179   4.467  13.977
90373SOL    HW172958  14.192   4.562  13.976
90373SOL    HW272959  14.247   4.434  14.035
90374SOL     OW72960   4.469   2.435   3.093
90374SOL    HW172961   4.390   2.423   3.039
90374SOL    HW272962   4.436   2.452   3.181
90375SOL     OW72963   0.720  13.770  13.063
90375SOL    HW172964   0.793  13.775  13.124
90375SOL    HW272965   0.753  13.720  12.989
90376SOL     OW72966  12.967   7.479  12.191
90376SOL    HW172967  13.024   7.556  12.193
90376SOL    HW272968  12.886   7.509  12.231
90377SOL     OW72969   9.582   7.660   2.102
90377SOL    HW172970   9.563   7.642   2.010
90377SOL    HW272971   9.663   7.612   2.119
90378SOL     OW72972   0.546   9.915  13.327
90378SOL    HW172973   0.529   9.828  13.290
90378SOL    HW272974   0.615   9.951  13.272
90379SOL     OW72975  14.206   2.259   9.531
90379SOL    HW172976  14.123   2.301   9.511
90379SOL    HW272977  14.221   2.278   9.624
90380SOL     OW72978   0.766   3.936   5.146
90380SOL    HW172979   0.762   4.032   5.152
90380SOL    HW272980   0.825   3.920   5.072
90381SOL     OW72981   1.529  14.390   6.902
90381SOL    HW172982   1.603  14.429   6.949
90381SOL    HW272983   1.454  14.444   6.926
90382SOL     OW72984   5.424  10.093   6.639
90382SOL    HW172985   5.350  10.082   6.698
90382SOL    HW272986   5.399  10.166   6.582
90383SOL     OW72987   3.671   9.833  10.307
90383SOL    HW172988   3.599   9.829  10.244
90383SOL    HW272989   3.687   9.926  10.320
90384SOL     OW72990  14.337   2.471  13.679
90384SOL    HW172991  14.418   2.433  13.715
90384SOL    HW272992  14.304   2.527  13.749
90385SOL     OW72993  11.013   8.597   6.772
90385SOL    HW172994  10.994   8.691   6.783
90385SOL    HW272995  11.023   8.564   6.861
90386SOL     OW72996  14.239  12.896  10.524
90386SOL    HW172997  14.206  12.933  10.607
90386SOL    HW272998  14.248  12.803  10.542
90387SOL     OW72999  14.665   2.626  10.318
90387SOL    HW173000  14.573   2.621  10.291
90387SOL    HW273001  14.703   2.692  10.260
90388SOL     OW73002   1.245   1.669   2.333
90388SOL    HW173003   1.206   1.722   2.264
90388SOL    HW273004   1.308   1.727   2.376
90389SOL     OW73005   1.397   3.378   9.765
90389SOL    HW173006   1.445   3.446   9.717
90389SOL    HW273007   1.460   3.343   9.828
90390SOL     OW73008  12.108  10.026  12.361
90390SOL    HW173009  12.180  10.087  12.377
90390SOL    HW273010  12.039  10.079  12.323
90391SOL     OW73011   8.086   7.130   4.890
90391SOL    HW173012   8.096   7.071   4.966
90391SOL    HW273013   8.029   7.081   4.830
90392SOL     OW73014   3.712   9.030   1.622
90392SOL    HW173015   3.798   9.002   1.591
90392SOL    HW273016   3.651   8.967   1.585
90393SOL     OW73017  10.929   4.973  12.208
90393SOL    HW173018  10.912   4.935  12.122
90393SOL    HW273019  10.845   5.011  12.234
90394SOL     OW73020   1.038   6.798  11.245
90394SOL    HW173021   1.081   6.723  11.285
90394SOL    HW273022   1.022   6.858  11.318
90395SOL     OW73023   0.631  10.618   6.026
90395SOL    HW173024   0.590  10.672   6.093
90395SOL    HW273025   0.606  10.528   6.048
90396SOL     OW73026  14.825   9.526   6.555
90396SOL    HW173027  14.834   9.462   6.625
90396SOL    HW273028  14.731   9.531   6.539
90397SOL     OW73029   9.502   1.956   0.173
90397SOL    HW173030   9.460   1.896   0.112
90397SOL    HW273031   9.441   1.962   0.247
90398SOL     OW73032  12.755   0.595  10.527
90398SOL    HW173033  12.843   0.624  10.502
90398SOL    HW273034  12.697   0.637  10.463
90399SOL     OW73035  14.536   6.093   1.804
90399SOL    HW173036  14.555   6.021   1.863
90399SOL    HW273037  14.569   6.171   1.850
90400SOL     OW73038  14.559   2.242  13.980
90400SOL    HW173039  14.537   2.168  13.923
90400SOL    HW273040  14.510   2.224  14.060
90401SOL     OW73041   2.682  12.750   6.470
90401SOL    HW173042   2.648  12.697   6.398
90401SOL    HW273043   2.660  12.840   6.445
90402SOL     OW73044  10.973  11.375   3.003
90402SOL    HW173045  11.016  11.289   3.008
90402SOL    HW273046  10.924  11.381   3.085
90403SOL     OW73047  11.729   5.553   8.496
90403SOL    HW173048  11.772   5.589   8.419
90403SOL    HW273049  11.636   5.571   8.483
90404SOL     OW73050   6.164   9.366   0.160
90404SOL    HW173051   6.206   9.448   0.135
90404SOL    HW273052   6.180   9.359   0.255
90405SOL     OW73053   9.485   7.508   4.694
90405SOL    HW173054   9.414   7.496   4.758
90405SOL    HW273055   9.555   7.551   4.743
90406SOL     OW73056  10.768   6.435   6.812
90406SOL    HW173057  10.680   6.470   6.804
90406SOL    HW273058  10.806   6.482   6.886
90407SOL     OW73059  12.608  10.855   7.092
90407SOL    HW173060  12.516  10.848   7.067
90407SOL    HW273061  12.655  10.803   7.027
90408SOL     OW73062   4.028  11.074   6.786
90408SOL    HW173063   3.946  11.079   6.834
90408SOL    HW273064   4.070  10.994   6.818
90409SOL     OW73065   8.485  14.138  11.605
90409SOL    HW173066   8.479  14.078  11.679
90409SOL    HW273067   8.577  14.136  11.580
90410SOL     OW73068   5.119  10.545   8.478
90410SOL    HW173069   5.129  10.575   8.569
90410SOL    HW273070   5.197  10.576   8.434
90411SOL     OW73071   2.009   7.009   5.333
90411SOL    HW173072   2.050   7.061   5.402
90411SOL    HW273073   2.034   7.053   5.252
90412SOL     OW73074  12.447   1.421   3.613
90412SOL    HW173075  12.427   1.427   3.520
90412SOL    HW273076  12.445   1.328   3.632
90413SOL     OW73077   1.933  12.023   4.252
90413SOL    HW173078   1.840  12.031   4.229
90413SOL    HW273079   1.971  11.974   4.179
90414SOL     OW73080   5.630   3.736   0.796
90414SOL    HW173081   5.572   3.680   0.744
90414SOL    HW273082   5.573   3.770   0.865
90415SOL     OW73083  10.838  13.263   9.771
90415SOL    HW173084  10.821  13.295   9.859
90415SOL    HW273085  10.933  13.252   9.767
90416SOL     OW73086   2.222  13.300   8.248
90416SOL    HW173087   2.274  13.252   8.182
90416SOL    HW273088   2.179  13.231   8.298
90417SOL     OW73089   8.628  11.358  14.518
90417SOL    HW173090   8.661  11.444  14.490
90417SOL    HW273091   8.703  11.316  14.560
90418SOL     OW73092   0.886   4.473   6.185
90418SOL    HW173093   0.835   4.436   6.257
90418SOL    HW273094   0.883   4.567   6.199
90419SOL     OW73095  10.487  13.533  11.179
90419SOL    HW173096  10.504  13.506  11.089
90419SOL    HW273097  10.419  13.472  11.210
90420SOL     OW73098   8.705   4.074  10.294
90420SOL    HW173099   8.713   4.166  10.269
90420SOL    HW273100   8.614   4.052  10.275
90421SOL     OW73101   8.288   8.832   3.719
90421SOL    HW173102   8.343   8.764   3.679
90421SOL    HW273103   8.203   8.791   3.732
90422SOL     OW73104   1.247  11.707   8.188
90422SOL    HW173105   1.230  11.614   8.200
90422SOL    HW273106   1.217  11.747   8.270
90423SOL     OW73107   8.167   4.439   1.710
90423SOL    HW173108   8.138   4.529   1.724
90423SOL    HW273109   8.107   4.385   1.762
90424SOL     OW73110   0.574   2.721   5.663
90424SOL    HW173111   0.606   2.809   5.641
90424SOL    HW273112   0.589   2.670   5.584
90425SOL     OW73113   1.905   2.900   5.569
90425SOL    HW173114   1.971   2.834   5.546
90425SOL    HW273115   1.900   2.956   5.491
90426SOL     OW73116   5.381   5.128   8.001
90426SOL    HW173117   5.453   5.126   8.063
90426SOL    HW273118   5.309   5.170   8.049
90427SOL     OW73119   4.368  13.029   1.984
90427SOL    HW173120   4.416  12.962   2.033
90427SOL    HW273121   4.319  13.077   2.051
90428SOL     OW73122   9.735   4.409   4.153
90428SOL    HW173123   9.794   4.338   4.127
90428SOL    HW273124   9.668   4.412   4.085
90429SOL     OW73125   0.271   2.554   1.238
90429SOL    HW173126   0.227   2.538   1.155
90429SOL    HW273127   0.296   2.467   1.269
90430SOL     OW73128   0.855   2.544   1.307
90430SOL    HW173129   0.762   2.533   1.291
90430SOL    HW273130   0.882   2.463   1.351
90431SOL     OW73131   4.498   2.709   7.401
90431SOL    HW173132   4.450   2.644   7.350
90431SOL    HW273133   4.460   2.793   7.375
90432SOL     OW73134  10.177   0.719   6.226
90432SOL    HW173135  10.112   0.763   6.171
90432SOL    HW273136  10.227   0.790   6.266
90433SOL     OW73137   6.766   5.144   0.789
90433SOL    HW173138   6.715   5.217   0.824
90433SOL    HW273139   6.832   5.186   0.734
90434SOL     OW73140   5.414   1.594  11.834
90434SOL    HW173141   5.336   1.647  11.819
90434SOL    HW273142   5.380   1.505  11.848
90435SOL     OW73143   3.768   8.262   4.539
90435SOL    HW173144   3.743   8.352   4.520
90435SOL    HW273145   3.687   8.212   4.525
90436SOL     OW73146  13.664   0.916   0.164
90436SOL    HW173147  13.601   0.885   0.099
90436SOL    HW273148  13.644   1.009   0.174
90437SOL     OW73149   0.633   3.364   9.523
90437SOL    HW173150   0.727   3.348   9.510
90437SOL    HW273151   0.629   3.428   9.594
90438SOL     OW73152   6.277   6.015  14.589
90438SOL    HW173153   6.281   5.926  14.623
90438SOL    HW273154   6.352   6.060  14.628
90439SOL     OW73155   9.519  11.930   1.303
90439SOL    HW173156   9.481  11.981   1.375
90439SOL    HW273157   9.573  11.993   1.255
90440SOL     OW73158  11.375   2.872   0.254
90440SOL    HW173159  11.383   2.948   0.197
90440SOL    HW273160  11.441   2.886   0.322
90441SOL     OW73161   9.327   7.771  12.207
90441SOL    HW173162   9.340   7.681  12.237
90441SOL    HW273163   9.334   7.824  12.287
90442SOL     OW73164   2.840   4.959   8.564
90442SOL    HW173165   2.819   4.866   8.553
90442SOL    HW273166   2.789   5.003   8.495
90443SOL     OW73167   7.882   6.773  10.744
90443SOL    HW173168   7.859   6.762  10.837
90443SOL    HW273169   7.797   6.771  10.699
90444SOL     OW73170  14.472  11.604   4.486
90444SOL    HW173171  14.420  11.603   4.567
90444SOL    HW273172  14.462  11.516   4.450
90445SOL     OW73173  10.557   0.496   3.486
90445SOL    HW173174  10.608   0.467   3.411
90445SOL    HW273175  10.511   0.418   3.515
90446SOL     OW73176  11.998   2.126   2.500
90446SOL    HW173177  12.066   2.069   2.536
90446SOL    HW273178  12.025   2.215   2.523
90447SOL     OW73179   1.369  10.856   6.205
90447SOL    HW173180   1.375  10.925   6.140
90447SOL    HW273181   1.459  10.827   6.219
90448SOL     OW73182   7.963  12.811  11.836
90448SOL    HW173183   7.901  12.884  11.834
90448SOL    HW273184   8.017  12.823  11.758
90449SOL     OW73185   1.395  11.761   6.791
90449SOL    HW173186   1.386  11.856   6.782
90449SOL    HW273187   1.468  11.738   6.734
90450SOL     OW73188  12.923   0.159   9.890
90450SOL    HW173189  12.961   0.083   9.933
90450SOL    HW273190  12.958   0.157   9.801
90451SOL     OW73191   3.514  10.042  14.433
90451SOL    HW173192   3.482   9.998  14.354
90451SOL    HW273193   3.515   9.973  14.500
90452SOL     OW73194  13.480  14.315  12.025
90452SOL    HW173195  13.574  14.302  12.017
90452SOL    HW273196  13.466  14.342  12.116
90453SOL     OW73197   6.252   2.936   5.762
90453SOL    HW173198   6.291   3.018   5.792
90453SOL    HW273199   6.325   2.874   5.762
90454SOL     OW73200  12.522  13.607  13.002
90454SOL    HW173201  12.606  13.611  12.956
90454SOL    HW273202  12.524  13.680  13.063
90455SOL     OW73203   9.333  13.717   1.835
90455SOL    HW173204   9.347  13.671   1.752
90455SOL    HW273205   9.239  13.731   1.839
90456SOL     OW73206  14.858   4.060   3.448
90456SOL    HW173207  14.860   4.154   3.468
90456SOL    HW273208  14.868   4.017   3.532
90457SOL     OW73209   4.912  14.462  12.030
90457SOL    HW173210   4.902  14.528  12.099
90457SOL    HW273211   4.867  14.500  11.954
90458SOL     OW73212  11.553   6.815  12.235
90458SOL    HW173213  11.594   6.863  12.163
90458SOL    HW273214  11.459   6.827  12.221
90459SOL     OW73215   0.124   0.407   5.496
90459SOL    HW173216   0.150   0.497   5.514
90459SOL    HW273217   0.124   0.365   5.582
90460SOL     OW73218  12.589  13.061  13.079
90460SOL    HW173219  12.588  13.048  13.174
90460SOL    HW273220  12.573  13.155  13.067
90461SOL     OW73221   0.118   0.847   8.949
90461SOL    HW173222   0.146   0.784   8.883
90461SOL    HW273223   0.199   0.874   8.992
90462SOL     OW73224  10.090  12.327  13.872
90462SOL    HW173225  10.052  12.392  13.931
90462SOL    HW273226  10.119  12.256  13.930
90463SOL     OW73227   1.732   2.220   8.151
90463SOL    HW173228   1.717   2.300   8.201
90463SOL    HW273229   1.702   2.150   8.209
90464SOL     OW73230   4.604  11.050  12.764
90464SOL    HW173231   4.520  11.033  12.807
90464SOL    HW273232   4.643  11.120  12.815
90465SOL     OW73233  13.614  10.363  11.355
90465SOL    HW173234  13.614  10.386  11.448
90465SOL    HW273235  13.573  10.277  11.352
90466SOL     OW73236   2.418  13.061   9.036
90466SOL    HW173237   2.376  12.978   9.060
90466SOL    HW273238   2.352  13.108   8.984
90467SOL     OW73239   8.328  12.208   2.753
90467SOL    HW173240   8.250  12.253   2.720
90467SOL    HW273241   8.293  12.141   2.811
90468SOL     OW73242   0.391   6.363  13.641
90468SOL    HW173243   0.345   6.296  13.591
90468SOL    HW273244   0.326   6.433  13.653
90469SOL     OW73245   2.308   9.374  10.268
90469SOL    HW173246   2.335   9.381  10.360
90469SOL    HW273247   2.355   9.298  10.235
90470SOL     OW73248   2.043   2.322   5.841
90470SOL    HW173249   1.960   2.340   5.797
90470SOL    HW273250   2.059   2.400   5.895
90471SOL     OW73251   7.284   3.283   8.325
90471SOL    HW173252   7.320   3.208   8.372
90471SOL    HW273253   7.192   3.261   8.312
90472SOL     OW73254   2.588   6.867  13.708
90472SOL    HW173255   2.645   6.872  13.632
90472SOL    HW273256   2.587   6.956  13.743
90473SOL     OW73257   4.710  10.273  13.136
90473SOL    HW173258   4.780  10.208  13.128
90473SOL    HW273259   4.751  10.346  13.182
90474SOL     OW73260   1.845   0.518   6.193
90474SOL    HW173261   1.766   0.499   6.245
90474SOL    HW273262   1.855   0.441   6.138
90475SOL     OW73263  11.327  13.471   3.798
90475SOL    HW173264  11.406  13.450   3.849
90475SOL    HW273265  11.293  13.551   3.838
90476SOL     OW73266   4.884  13.799   7.899
90476SOL    HW173267   4.893  13.894   7.908
90476SOL    HW273268   4.973  13.766   7.897
90477SOL     OW73269   8.527   8.563   5.715
90477SOL    HW173270   8.535   8.568   5.620
90477SOL    HW273271   8.439   8.530   5.730
90478SOL     OW73272  11.639   6.953  10.376
90478SOL    HW173273  11.595   6.868  10.369
90478SOL    HW273274  11.595   7.008  10.311
90479SOL     OW73275   7.250   8.193   9.128
90479SOL    HW173276   7.170   8.168   9.175
90479SOL    HW273277   7.303   8.114   9.127
90480SOL     OW73278   4.042   1.287   1.758
90480SOL    HW173279   4.042   1.356   1.825
90480SOL    HW273280   4.021   1.207   1.806
90481SOL     OW73281  12.840  14.645   4.381
90481SOL    HW173282  12.856  14.601   4.298
90481SOL    HW273283  12.860  14.580   4.448
90482SOL     OW73284   3.861   3.737   2.514
90482SOL    HW173285   3.917   3.659   2.504
90482SOL    HW273286   3.789   3.708   2.570
90483SOL     OW73287  10.950   9.863  11.274
90483SOL    HW173288  10.918   9.842  11.362
90483SOL    HW273289  11.020   9.800  11.258
90484SOL     OW73290  10.865  12.636   0.684
90484SOL    HW173291  10.850  12.705   0.749
90484SOL    HW273292  10.806  12.565   0.710
90485SOL     OW73293   2.533   4.237   1.687
90485SOL    HW173294   2.595   4.309   1.672
90485SOL    HW273295   2.587   4.165   1.719
90486SOL     OW73296  10.492   1.818   7.264
90486SOL    HW173297  10.525   1.800   7.352
90486SOL    HW273298  10.553   1.773   7.205
90487SOL     OW73299  14.775   6.637  11.865
90487SOL    HW173300  14.771   6.596  11.779
90487SOL    HW273301  14.848   6.593  11.909
90488SOL     OW73302   6.239   3.903   0.184
90488SOL    HW173303   6.293   3.845   0.237
90488SOL    HW273304   6.149   3.882   0.210
90489SOL     OW73305   0.326  14.641   0.843
90489SOL    HW173306   0.372  14.639   0.927
90489SOL    HW273307   0.339  14.553   0.807
90490SOL     OW73308   5.617   6.411   4.103
90490SOL    HW173309   5.702   6.426   4.145
90490SOL    HW273310   5.637   6.355   4.028
90491SOL     OW73311   2.013   6.213  11.165
90491SOL    HW173312   2.077   6.281  11.185
90491SOL    HW273313   2.064   6.132  11.165
90492SOL     OW73314   9.439   0.091   7.454
90492SOL    HW173315   9.435   0.142   7.535
90492SOL    HW273316   9.442   0.157   7.385
90493SOL     OW73317   7.806   2.595   9.982
90493SOL    HW173318   7.761   2.633  10.058
90493SOL    HW273319   7.800   2.500   9.997
90494SOL     OW73320   4.050   9.163   4.768
90494SOL    HW173321   4.042   9.233   4.832
90494SOL    HW273322   4.063   9.208   4.685
90495SOL     OW73323   3.779   1.746   3.125
90495SOL    HW173324   3.830   1.770   3.203
90495SOL    HW273325   3.710   1.812   3.120
90496SOL     OW73326   5.665  13.540  11.691
90496SOL    HW173327   5.606  13.614  11.677
90496SOL    HW273328   5.700  13.520  11.604
90497SOL     OW73329  13.786   4.742   1.914
90497SOL    HW173330  13.810   4.688   1.989
90497SOL    HW273331  13.838   4.707   1.841
90498SOL     OW73332   8.549  10.927   1.005
90498SOL    HW173333   8.556  10.835   1.031
90498SOL    HW273334   8.525  10.973   1.085
90499SOL     OW73335   3.887   4.934   6.447
90499SOL    HW173336   3.862   4.884   6.524
90499SOL    HW273337   3.978   4.959   6.463
90500SOL     OW73338  14.072   1.636  12.795
90500SOL    HW173339  14.021   1.697  12.741
90500SOL    HW273340  14.010   1.603  12.860
90501SOL     OW73341   8.653  13.780  10.524
90501SOL    HW173342   8.645  13.699  10.573
90501SOL    HW273343   8.725  13.765  10.463
90502SOL     OW73344   1.638  10.686  11.436
90502SOL    HW173345   1.595  10.772  11.441
90502SOL    HW273346   1.691  10.681  11.515
90503SOL     OW73347  10.735   7.254  11.558
90503SOL    HW173348  10.717   7.235  11.651
90503SOL    HW273349  10.649   7.255  11.517
90504SOL     OW73350   6.749  11.180   3.891
90504SOL    HW173351   6.823  11.161   3.949
90504SOL    HW273352   6.681  11.213   3.950
90505SOL     OW73353   7.820  13.906  14.051
90505SOL    HW173354   7.746  13.921  14.111
90505SOL    HW273355   7.799  13.823  14.008
90506SOL     OW73356   0.259   1.841   7.652
90506SOL    HW173357   0.338   1.817   7.603
90506SOL    HW273358   0.259   1.782   7.727
90507SOL     OW73359   5.760  12.005   6.157
90507SOL    HW173360   5.706  12.007   6.078
90507SOL    HW273361   5.849  11.994   6.125
90508SOL     OW73362   3.975   9.669   8.289
90508SOL    HW173363   4.043   9.723   8.248
90508SOL    HW273364   3.893   9.710   8.262
90509SOL     OW73365   2.628   7.782   7.261
90509SOL    HW173366   2.565   7.804   7.192
90509SOL    HW273367   2.668   7.700   7.233
90510SOL     OW73368   1.814   9.604   6.668
90510SOL    HW173369   1.873   9.646   6.605
90510SOL    HW273370   1.729   9.606   6.626
90511SOL     OW73371   2.783   1.588  11.628
90511SOL    HW173372   2.849   1.634  11.680
90511SOL    HW273373   2.753   1.654  11.566
90512SOL     OW73374  13.085  12.596  10.650
90512SOL    HW173375  13.057  12.611  10.740
90512SOL    HW273376  13.005  12.570  10.604
90513SOL     OW73377   1.783  12.643  13.055
90513SOL    HW173378   1.788  12.554  13.019
90513SOL    HW273379   1.875  12.667  13.071
90514SOL     OW73380   1.074   5.785  12.722
90514SOL    HW173381   1.136   5.851  12.753
90514SOL    HW273382   1.129   5.711  12.695
90515SOL     OW73383   4.853   9.828   2.196
90515SOL    HW173384   4.784   9.812   2.260
90515SOL    HW273385   4.864   9.744   2.152
90516SOL     OW73386  12.592   4.155   8.899
90516SOL    HW173387  12.657   4.085   8.898
90516SOL    HW273388  12.640   4.233   8.926
90517SOL     OW73389   0.118   2.537   5.607
90517SOL    HW173390   0.051   2.536   5.538
90517SOL    HW273391   0.166   2.619   5.592
90518SOL     OW73392   6.021  13.851  12.200
90518SOL    HW173393   6.098  13.808  12.236
90518SOL    HW273394   5.948  13.793  12.224
90519SOL     OW73395  10.713   0.076   5.239
90519SOL    HW173396  10.775   0.004   5.226
90519SOL    HW273397  10.768   0.154   5.246
90520SOL     OW73398  10.489  11.822  13.924
90520SOL    HW173399  10.529  11.748  13.879
90520SOL    HW273400  10.423  11.854  13.862
90521SOL     OW73401   9.705   6.712   1.387
90521SOL    HW173402   9.697   6.744   1.476
90521SOL    HW273403   9.748   6.783   1.339
90522SOL     OW73404   0.900   7.529   5.182
90522SOL    HW173405   0.932   7.612   5.148
90522SOL    HW273406   0.900   7.470   5.106
90523SOL     OW73407   5.694  14.180  12.815
90523SOL    HW173408   5.681  14.123  12.739
90523SOL    HW273409   5.631  14.148  12.880
90524SOL     OW73410  14.316   2.718  14.632
90524SOL    HW173411  14.313   2.664  14.711
90524SOL    HW273412  14.395   2.690  14.586
90525SOL     OW73413   7.439  11.688  10.915
90525SOL    HW173414   7.355  11.642  10.916
90525SOL    HW273415   7.417  11.778  10.891
90526SOL     OW73416   9.973   6.677   9.569
90526SOL    HW173417  10.034   6.721   9.628
90526SOL    HW273418   9.887   6.686   9.611
90527SOL     OW73419   7.398   0.875   1.129
90527SOL    HW173420   7.325   0.831   1.172
90527SOL    HW273421   7.474   0.854   1.183
90528SOL     OW73422  11.192   8.875  11.522
90528SOL    HW173423  11.216   8.821  11.447
90528SOL    HW273424  11.229   8.830  11.597
90529SOL     OW73425   1.768   4.627   5.849
90529SOL    HW173426   1.771   4.532   5.851
90529SOL    HW273427   1.847   4.654   5.896
90530SOL     OW73428   2.200  10.006   3.072
90530SOL    HW173429   2.247   9.925   3.094
90530SOL    HW273430   2.237  10.033   2.988
90531SOL     OW73431   8.261   0.292  10.911
90531SOL    HW173432   8.262   0.301  10.816
90531SOL    HW273433   8.297   0.375  10.943
90532SOL     OW73434   9.982   2.384   9.855
90532SOL    HW173435  10.007   2.296   9.883
90532SOL    HW273436  10.065   2.431   9.847
90533SOL     OW73437   8.659   3.130   3.018
90533SOL    HW173438   8.728   3.197   3.013
90533SOL    HW273439   8.672   3.090   3.104
90534SOL     OW73440  14.035  14.603   2.681
90534SOL    HW173441  14.014  14.694   2.658
90534SOL    HW273442  14.110  14.581   2.626
90535SOL     OW73443   0.084  10.609  10.040
90535SOL    HW173444   0.110  10.683   9.986
90535SOL    HW273445  14.869  10.620  10.051
90536SOL     OW73446   8.180  12.252  12.636
90536SOL    HW173447   8.112  12.283  12.575
90536SOL    HW273448   8.213  12.172  12.596
90537SOL     OW73449  12.886  14.834   3.760
90537SOL    HW173450  12.915   0.045   3.756
90537SOL    HW273451  12.967  14.784   3.773
90538SOL     OW73452  13.428   7.590   9.554
90538SOL    HW173453  13.425   7.567   9.461
90538SOL    HW273454  13.372   7.667   9.561
90539SOL     OW73455   9.077   8.859  10.229
90539SOL    HW173456   9.156   8.861  10.174
90539SOL    HW273457   9.005   8.850  10.167
90540SOL     OW73458   1.351   2.874   4.705
90540SOL    HW173459   1.376   2.808   4.639
90540SOL    HW273460   1.256   2.869   4.709
90541SOL     OW73461   5.081   8.761  10.454
90541SOL    HW173462   5.170   8.760  10.418
90541SOL    HW273463   5.030   8.709  10.393
90542SOL     OW73464   0.015   3.684   1.097
90542SOL    HW173465   0.052   3.704   1.183
90542SOL    HW273466  14.802   3.707   1.105
90543SOL     OW73467  11.848  10.675  10.985
90543SOL    HW173468  11.937  10.685  10.952
90543SOL    HW273469  11.810  10.605  10.932
90544SOL     OW73470   1.112   2.190  11.061
90544SOL    HW173471   1.078   2.149  11.140
90544SOL    HW273472   1.104   2.123  10.994
90545SOL     OW73473   5.171   4.738  13.954
90545SOL    HW173474   5.154   4.644  13.950
90545SOL    HW273475   5.085   4.778  13.962
90546SOL     OW73476   2.392  14.024   8.223
90546SOL    HW173477   2.358  14.051   8.137
90546SOL    HW273478   2.481  13.996   8.206
90547SOL     OW73479   0.102   3.287   0.770
90547SOL    HW173480   0.036   3.219   0.756
90547SOL    HW273481   0.149   3.259   0.849
90548SOL     OW73482  10.199   3.199   9.490
90548SOL    HW173483  10.129   3.134   9.493
90548SOL    HW273484  10.218   3.209   9.396
90549SOL     OW73485   1.931   5.749   3.013
90549SOL    HW173486   1.955   5.723   3.102
90549SOL    HW273487   1.970   5.836   3.002
90550SOL     OW73488   7.374  10.895   3.418
90550SOL    HW173489   7.326  10.964   3.373
90550SOL    HW273490   7.305  10.837   3.453
90551SOL     OW73491   1.491   1.557   3.906
90551SOL    HW173492   1.485   1.486   3.842
90551SOL    HW273493   1.562   1.612   3.876
90552SOL     OW73494   2.018   7.626   9.964
90552SOL    HW173495   2.047   7.587   9.881
90552SOL    HW273496   1.958   7.695   9.937
90553SOL     OW73497   5.904   5.143   1.957
90553SOL    HW173498   5.813   5.128   1.932
90553SOL    HW273499   5.943   5.055   1.960
90554SOL     OW73500   2.525   8.223   5.154
90554SOL    HW173501   2.524   8.283   5.079
90554SOL    HW273502   2.572   8.270   5.223
90555SOL     OW73503   4.387   2.622  14.310
90555SOL    HW173504   4.342   2.544  14.278
90555SOL    HW273505   4.388   2.613  14.405
90556SOL     OW73506   9.775   1.443  11.452
90556SOL    HW173507   9.817   1.418  11.369
90556SOL    HW273508   9.763   1.538  11.445
90557SOL     OW73509   3.351   7.801  12.180
90557SOL    HW173510   3.409   7.846  12.242
90557SOL    HW273511   3.373   7.708  12.190
90558SOL     OW73512   8.995   5.799   1.177
90558SOL    HW173513   9.045   5.836   1.104
90558SOL    HW273514   8.987   5.871   1.239
90559SOL     OW73515   3.347   2.986   2.524
90559SOL    HW173516   3.427   3.032   2.496
90559SOL    HW273517   3.346   2.996   2.619
90560SOL     OW73518  12.005   1.247   7.470
90560SOL    HW173519  12.016   1.269   7.563
90560SOL    HW273520  11.933   1.184   7.469
90561SOL     OW73521   9.226   5.850  13.518
90561SOL    HW173522   9.242   5.923  13.458
90561SOL    HW273523   9.142   5.869  13.558
90562SOL     OW73524   5.496  12.046   7.566
90562SOL    HW173525   5.458  11.986   7.501
90562SOL    HW273526   5.453  12.129   7.549
90563SOL     OW73527   3.553  13.122  13.409
90563SOL    HW173528   3.536  13.203  13.360
90563SOL    HW273529   3.547  13.148  13.501
90564SOL     OW73530   1.242  10.527   6.196
90564SOL    HW173531   1.191  10.518   6.277
90564SOL    HW273532   1.305  10.455   6.199
90565SOL     OW73533   1.739  13.042  14.689
90565SOL    HW173534   1.682  13.118  14.704
90565SOL    HW273535   1.679  12.975  14.654
90566SOL     OW73536   9.776  12.621  10.628
90566SOL    HW173537   9.739  12.661  10.550
90566SOL    HW273538   9.843  12.561  10.596
90567SOL     OW73539  13.760  10.586  10.582
90567SOL    HW173540  13.770  10.661  10.524
90567SOL    HW273541  13.670  10.593  10.614
90568SOL     OW73542  11.449   1.849   5.763
90568SOL    HW173543  11.442   1.944   5.775
90568SOL    HW273544  11.484   1.839   5.674
90569SOL     OW73545   1.781  11.237  12.861
90569SOL    HW173546   1.857  11.182  12.841
90569SOL    HW273547   1.779  11.241  12.957
90570SOL     OW73548  10.404   5.420   4.243
90570SOL    HW173549  10.458   5.435   4.321
90570SOL    HW273550  10.381   5.508   4.213
90571SOL     OW73551  13.361  10.730  13.929
90571SOL    HW173552  13.445  10.688  13.910
90571SOL    HW273553  13.301  10.656  13.942
90572SOL     OW73554   7.283  14.653   0.333
90572SOL    HW173555   7.336  14.645   0.412
90572SOL    HW273556   7.239  14.738   0.343
90573SOL     OW73557   2.019  13.907   0.052
90573SOL    HW173558   2.045  13.982   0.105
90573SOL    HW273559   1.977  13.847   0.113
90574SOL     OW73560  12.998   4.070  14.829
90574SOL    HW173561  12.949   4.150  14.846
90574SOL    HW273562  13.089   4.092  14.850
90575SOL     OW73563   2.502   7.358   9.631
90575SOL    HW173564   2.450   7.366   9.711
90575SOL    HW273565   2.592   7.356   9.661
90576SOL     OW73566   5.238   4.303   7.510
90576SOL    HW173567   5.270   4.219   7.541
90576SOL    HW273568   5.145   4.289   7.494
90577SOL     OW73569  13.067   4.444   8.991
90577SOL    HW173570  13.150   4.463   9.034
90577SOL    HW273571  13.011   4.518   9.012
90578SOL     OW73572  14.277  12.315   7.086
90578SOL    HW173573  14.280  12.303   6.991
90578SOL    HW273574  14.195  12.274   7.113
90579SOL     OW73575  14.091   4.571  11.113
90579SOL    HW173576  14.071   4.562  11.019
90579SOL    HW273577  14.044   4.650  11.139
90580SOL     OW73578   6.613  14.003   1.001
90580SOL    HW173579   6.660  14.018   0.919
90580SOL    HW273580   6.623  14.085   1.050
90581SOL     OW73581  10.022   6.817  11.094
90581SOL    HW173582  10.091   6.879  11.072
90581SOL    HW273583  10.067   6.733  11.103
90582SOL     OW73584   4.415   0.718  11.140
90582SOL    HW173585   4.444   0.805  11.112
90582SOL    HW273586   4.358   0.734  11.215
90583SOL     OW73587  13.421  10.933  11.835
90583SOL    HW173588  13.426  10.882  11.754
90583SOL    HW273589  13.397  11.021  11.805
90584SOL     OW73590  14.370  10.009   0.218
90584SOL    HW173591  14.313  10.085   0.209
90584SOL    HW273592  14.437  10.021   0.151
90585SOL     OW73593   8.963  12.483   5.506
90585SOL    HW173594   8.883  12.508   5.461
90585SOL    HW273595   8.936  12.414   5.567
90586SOL     OW73596   1.166  14.737   7.921
90586SOL    HW173597   1.250  14.782   7.928
90586SOL    HW273598   1.136  14.728   8.012
90587SOL     OW73599  10.345  10.657  11.555
90587SOL    HW173600  10.284  10.643  11.483
90587SOL    HW273601  10.309  10.604  11.627
90588SOL     OW73602   8.705   6.506   3.532
90588SOL    HW173603   8.637   6.550   3.583
90588SOL    HW273604   8.748   6.576   3.484
90589SOL     OW73605   4.879   3.700  10.697
90589SOL    HW173606   4.913   3.764  10.760
90589SOL    HW273607   4.847   3.752  10.624
90590SOL     OW73608   2.986   0.745  10.526
90590SOL    HW173609   2.909   0.746  10.469
90590SOL    HW273610   3.007   0.837  10.540
90591SOL     OW73611  10.482   9.430  12.893
90591SOL    HW173612  10.449   9.498  12.835
90591SOL    HW273613  10.476   9.467  12.981
90592SOL     OW73614   5.897   7.423   5.216
90592SOL    HW173615   5.803   7.424   5.201
90592SOL    HW273616   5.908   7.378   5.300
90593SOL     OW73617  12.625   1.028   5.485
90593SOL    HW173618  12.606   1.079   5.405
90593SOL    HW273619  12.596   1.085   5.556
90594SOL     OW73620  10.924   2.728  13.464
90594SOL    HW173621  10.998   2.775  13.427
90594SOL    HW273622  10.919   2.648  13.412
90595SOL     OW73623   2.742   0.619  14.488
90595SOL    HW173624   2.675   0.560  14.453
90595SOL    HW273625   2.736   0.697  14.433
90596SOL     OW73626  12.663   6.909   5.304
90596SOL    HW173627  12.671   6.814   5.311
90596SOL    HW273628  12.695   6.929   5.216
90597SOL     OW73629  14.596   9.250  12.879
90597SOL    HW173630  14.647   9.170  12.889
90597SOL    HW273631  14.562   9.246  12.790
90598SOL     OW73632   2.638   5.606   0.135
90598SOL    HW173633   2.559   5.597   0.188
90598SOL    HW273634   2.623   5.685   0.083
90599SOL     OW73635   4.063   0.266   4.082
90599SOL    HW173636   4.087   0.179   4.050
90599SOL    HW273637   4.117   0.326   4.031
90600SOL     OW73638   8.310   9.756   1.021
90600SOL    HW173639   8.311   9.803   1.104
90600SOL    HW273640   8.225   9.777   0.982
90601SOL     OW73641   8.091   1.040  12.518
90601SOL    HW173642   8.078   0.998  12.433
90601SOL    HW273643   8.185   1.052  12.525
90602SOL     OW73644   2.747   6.345   8.307
90602SOL    HW173645   2.726   6.277   8.243
90602SOL    HW273646   2.761   6.298   8.389
90603SOL     OW73647   0.096  11.838   2.853
90603SOL    HW173648   0.181  11.798   2.836
90603SOL    HW273649   0.103  11.869   2.944
90604SOL     OW73650   8.805   7.195   9.538
90604SOL    HW173651   8.777   7.162   9.453
90604SOL    HW273652   8.725   7.201   9.589
90605SOL     OW73653  11.408  13.957   9.269
90605SOL    HW173654  11.438  14.040   9.230
90605SOL    HW273655  11.316  13.951   9.243
90606SOL     OW73656  10.421   6.648  11.666
90606SOL    HW173657  10.477   6.724  11.685
90606SOL    HW273658  10.356   6.681  11.604
90607SOL     OW73659   8.162   2.240   5.277
90607SOL    HW173660   8.108   2.244   5.356
90607SOL    HW273661   8.174   2.332   5.252
90608SOL     OW73662   8.850   7.932   2.849
90608SOL    HW173663   8.879   7.915   2.938
90608SOL    HW273664   8.926   7.911   2.794
90609SOL     OW73665  14.742   3.723   6.353
90609SOL    HW173666  14.746   3.705   6.259
90609SOL    HW273667  14.777   3.644   6.394
90610SOL     OW73668   9.386   6.037   8.101
90610SOL    HW173669   9.444   6.108   8.074
90610SOL    HW273670   9.379   6.047   8.196
90611SOL     OW73671  14.321  11.913  10.237
90611SOL    HW173672  14.231  11.880  10.245
90611SOL    HW273673  14.362  11.857  10.171
90612SOL     OW73674   7.466   3.405   6.587
90612SOL    HW173675   7.397   3.363   6.534
90612SOL    HW273676   7.444   3.381   6.677
90613SOL     OW73677  11.843   2.273  11.844
90613SOL    HW173678  11.822   2.183  11.819
90613SOL    HW273679  11.920   2.264  11.901
90614SOL     OW73680  13.383   5.777   7.967
90614SOL    HW173681  13.319   5.847   7.960
90614SOL    HW273682  13.425   5.791   8.052
90615SOL     OW73683   5.852  10.245  14.854
90615SOL    HW173684   5.852  10.339  14.872
90615SOL    HW273685   5.936  10.229  14.812
90616SOL     OW73686   5.942  12.472  11.945
90616SOL    HW173687   5.859  12.436  11.978
90616SOL    HW273688   5.941  12.563  11.973
90617SOL     OW73689   0.950  10.411   3.570
90617SOL    HW173690   0.967  10.396   3.477
90617SOL    HW273691   0.987  10.498   3.587
90618SOL     OW73692  10.312   2.856   8.891
90618SOL    HW173693  10.331   2.766   8.920
90618SOL    HW273694  10.301   2.848   8.797
90619SOL     OW73695  10.463   0.992   8.158
90619SOL    HW173696  10.465   1.075   8.206
90619SOL    HW273697  10.535   0.941   8.196
90620SOL     OW73698   1.827   3.797   5.914
90620SOL    HW173699   1.919   3.809   5.894
90620SOL    HW273700   1.790   3.758   5.835
90621SOL     OW73701   1.888  10.281   3.762
90621SOL    HW173702   1.910  10.293   3.670
90621SOL    HW273703   1.970  10.297   3.809
90622SOL     OW73704   4.072   9.428   6.232
90622SOL    HW173705   4.046   9.502   6.178
90622SOL    HW273706   4.168   9.434   6.236
90623SOL     OW73707   3.166  11.663  13.245
90623SOL    HW173708   3.150  11.703  13.330
90623SOL    HW273709   3.257  11.634  13.249
90624SOL     OW73710   0.965  12.505   1.491
90624SOL    HW173711   0.894  12.448   1.458
90624SOL    HW273712   1.026  12.511   1.418
90625SOL     OW73713  10.019   4.708  12.906
90625SOL    HW173714  10.110   4.707  12.878
90625SOL    HW273715  10.002   4.800  12.927
90626SOL     OW73716   0.835   4.314   1.091
90626SOL    HW173717   0.871   4.401   1.108
90626SOL    HW273718   0.747   4.316   1.130
90627SOL     OW73719   0.715  12.449   1.805
90627SOL    HW173720   0.732  12.355   1.809
90627SOL    HW273721   0.624  12.457   1.775
90628SOL     OW73722  12.958   5.748   3.965
90628SOL    HW173723  12.999   5.702   4.039
90628SOL    HW273724  12.931   5.832   4.001
90629SOL     OW73725   7.716   4.764   4.846
90629SOL    HW173726   7.739   4.740   4.936
90629SOL    HW273727   7.631   4.723   4.832
90630SOL     OW73728   5.904   0.583   3.632
90630SOL    HW173729   5.948   0.498   3.632
90630SOL    HW273730   5.973   0.646   3.654
90631SOL     OW73731  10.191   1.940   9.398
90631SOL    HW173732  10.215   1.856   9.360
90631SOL    HW273733  10.251   2.003   9.357
90632SOL     OW73734   1.391   9.171   9.219
90632SOL    HW173735   1.423   9.203   9.303
90632SOL    HW273736   1.351   9.248   9.178
90633SOL     OW73737  14.869   2.894   5.044
90633SOL    HW173738  14.849   2.801   5.052
90633SOL    HW273739  14.791   2.938   5.077
90634SOL     OW73740   2.857   1.138  11.870
90634SOL    HW173741   2.785   1.089  11.908
90634SOL    HW273742   2.822   1.226  11.855
90635SOL     OW73743   7.013  11.571   3.301
90635SOL    HW173744   6.945  11.612   3.354
90635SOL    HW273745   7.069  11.526   3.365
90636SOL     OW73746   9.312   6.622  12.823
90636SOL    HW173747   9.379   6.591  12.762
90636SOL    HW273748   9.286   6.708  12.789
90637SOL     OW73749   5.152  10.411  14.668
90637SOL    HW173750   5.123  10.415  14.577
90637SOL    HW273751   5.176  10.319  14.682
90638SOL     OW73752  13.727   5.618   7.570
90638SOL    HW173753  13.800   5.678   7.579
90638SOL    HW273754  13.651   5.665   7.605
90639SOL     OW73755   0.313  13.167  10.904
90639SOL    HW173756   0.222  13.187  10.922
90639SOL    HW273757   0.311  13.086  10.852
90640SOL     OW73758   2.493   6.859   2.507
90640SOL    HW173759   2.487   6.777   2.457
90640SOL    HW273760   2.442   6.922   2.456
90641SOL     OW73761  12.227   1.641   6.776
90641SOL    HW173762  12.181   1.572   6.824
90641SOL    HW273763  12.176   1.720   6.792
90642SOL     OW73764   7.499   3.527   6.133
90642SOL    HW173765   7.544   3.567   6.207
90642SOL    HW273766   7.493   3.597   6.068
90643SOL     OW73767   9.996   3.833   8.614
90643SOL    HW173768  10.021   3.805   8.702
90643SOL    HW273769   9.963   3.922   8.626
90644SOL     OW73770   5.688   5.831   6.119
90644SOL    HW173771   5.750   5.901   6.099
90644SOL    HW273772   5.705   5.808   6.210
90645SOL     OW73773  13.232   6.368   4.074
90645SOL    HW173774  13.295   6.439   4.084
90645SOL    HW273775  13.151   6.412   4.045
90646SOL     OW73776   1.620   5.862   3.743
90646SOL    HW173777   1.634   5.769   3.724
90646SOL    HW273778   1.540   5.864   3.796
90647SOL     OW73779  14.373   8.424   9.419
90647SOL    HW173780  14.361   8.353   9.357
90647SOL    HW273781  14.315   8.494   9.388
90648SOL     OW73782   2.684   2.687   3.624
90648SOL    HW173783   2.691   2.718   3.714
90648SOL    HW273784   2.721   2.759   3.572
90649SOL     OW73785  11.654   7.766   6.329
90649SOL    HW173786  11.731   7.798   6.375
90649SOL    HW273787  11.598   7.843   6.320
90650SOL     OW73788  12.159  10.489   9.988
90650SOL    HW173789  12.110  10.419  10.031
90650SOL    HW273790  12.211  10.443   9.922
90651SOL     OW73791  11.123  12.612  12.995
90651SOL    HW173792  11.054  12.572  13.047
90651SOL    HW273793  11.154  12.542  12.938
90652SOL     OW73794   0.474  11.399  13.071
90652SOL    HW173795   0.489  11.459  12.998
90652SOL    HW273796   0.423  11.328  13.034
90653SOL     OW73797   9.426  12.881  14.541
90653SOL    HW173798   9.502  12.860  14.485
90653SOL    HW273799   9.392  12.963  14.504
90654SOL     OW73800   8.585  12.873   6.313
90654SOL    HW173801   8.595  12.964   6.286
90654SOL    HW273802   8.549  12.829   6.236
90655SOL     OW73803   1.702  10.300   3.408
90655SOL    HW173804   1.657  10.361   3.467
90655SOL    HW273805   1.792  10.298   3.441
90656SOL     OW73806   6.649   2.031   2.112
90656SOL    HW173807   6.595   2.054   2.037
90656SOL    HW273808   6.587   2.015   2.183
90657SOL     OW73809  11.399   5.808   0.480
90657SOL    HW173810  11.455   5.731   0.492
90657SOL    HW273811  11.312   5.773   0.465
90658SOL     OW73812   2.315   4.945  11.034
90658SOL    HW173813   2.384   4.931  11.100
90658SOL    HW273814   2.249   4.997  11.080
90659SOL     OW73815  12.541  10.880   4.701
90659SOL    HW173816  12.602  10.953   4.710
90659SOL    HW273817  12.564  10.840   4.617
90660SOL     OW73818  12.838  10.421   9.581
90660SOL    HW173819  12.802  10.389   9.498
90660SOL    HW273820  12.891  10.348   9.613
90661SOL     OW73821   6.667  11.760   5.770
90661SOL    HW173822   6.735  11.826   5.777
90661SOL    HW273823   6.671  11.730   5.679
90662SOL     OW73824  11.644  12.891   9.722
90662SOL    HW173825  11.689  12.975   9.714
90662SOL    HW273826  11.707  12.827   9.689
90663SOL     OW73827  11.575   5.014  11.548
90663SOL    HW173828  11.649   5.075  11.554
90663SOL    HW273829  11.498   5.070  11.537
90664SOL     OW73830  13.981   4.467   5.893
90664SOL    HW173831  14.027   4.464   5.809
90664SOL    HW273832  13.894   4.433   5.874
90665SOL     OW73833  13.106  10.183   1.810
90665SOL    HW173834  13.017  10.170   1.841
90665SOL    HW273835  13.099  10.192   1.716
90666SOL     OW73836   3.817   4.429  11.080
90666SOL    HW173837   3.739   4.421  11.024
90666SOL    HW273838   3.803   4.363  11.148
90667SOL     OW73839  13.885   9.079  13.600
90667SOL    HW173840  13.876   9.156  13.656
90667SOL    HW273841  13.979   9.069  13.587
90668SOL     OW73842   4.783  14.134  10.568
90668SOL    HW173843   4.831  14.163  10.645
90668SOL    HW273844   4.816  14.188  10.496
90669SOL     OW73845   1.364   7.791   9.479
90669SOL    HW173846   1.323   7.710   9.448
90669SOL    HW273847   1.456   7.783   9.453
90670SOL     OW73848   2.989   6.425   4.523
90670SOL    HW173849   2.912   6.372   4.541
90670SOL    HW273850   2.954   6.505   4.484
90671SOL     OW73851   6.411  14.364   8.753
90671SOL    HW173852   6.491  14.386   8.705
90671SOL    HW273853   6.410  14.268   8.757
90672SOL     OW73854  10.075   9.962   4.809
90672SOL    HW173855  10.010   9.904   4.770
90672SOL    HW273856  10.159   9.917   4.794
90673SOL     OW73857   3.917   1.486   9.360
90673SOL    HW173858   3.911   1.573   9.320
90673SOL    HW273859   3.829   1.466   9.389
90674SOL     OW73860   9.787   6.102   1.553
90674SOL    HW173861   9.786   6.192   1.585
90674SOL    HW273862   9.863   6.062   1.595
90675SOL     OW73863   0.468  11.908  13.988
90675SOL    HW173864   0.448  11.939  14.076
90675SOL    HW273865   0.465  11.812  13.995
90676SOL     OW73866  13.526  11.672   9.370
90676SOL    HW173867  13.494  11.747   9.421
90676SOL    HW273868  13.581  11.623   9.432
90677SOL     OW73869   7.348   4.548  10.105
90677SOL    HW173870   7.256   4.526  10.093
90677SOL    HW273871   7.374   4.500  10.184
90678SOL     OW73872  11.487   0.979   9.695
90678SOL    HW173873  11.579   0.993   9.715
90678SOL    HW273874  11.446   1.065   9.707
90679SOL     OW73875   1.988   5.096   0.583
90679SOL    HW173876   1.935   5.033   0.534
90679SOL    HW273877   2.078   5.072   0.562
90680SOL     OW73878  10.926  10.264   3.912
90680SOL    HW173879  10.989  10.288   3.844
90680SOL    HW273880  10.906  10.172   3.893
90681SOL     OW73881   4.138   0.769   1.315
90681SOL    HW173882   4.143   0.673   1.315
90681SOL    HW273883   4.053   0.788   1.355
90682SOL     OW73884  10.554  12.671   6.891
90682SOL    HW173885  10.635  12.696   6.848
90682SOL    HW273886  10.574  12.588   6.934
90683SOL     OW73887   6.611   3.570   7.138
90683SOL    HW173888   6.665   3.647   7.119
90683SOL    HW273889   6.650   3.532   7.217
90684SOL     OW73890   8.062   7.810   4.887
90684SOL    HW173891   7.992   7.819   4.823
90684SOL    HW273892   8.116   7.888   4.874
90685SOL     OW73893  13.230   6.058  10.256
90685SOL    HW173894  13.303   5.997  10.264
90685SOL    HW273895  13.152   6.003  10.262
90686SOL     OW73896   2.003  10.607   2.747
90686SOL    HW173897   1.954  10.669   2.802
90686SOL    HW273898   2.061  10.662   2.695
90687SOL     OW73899   2.844   2.577   8.645
90687SOL    HW173900   2.750   2.598   8.640
90687SOL    HW273901   2.885   2.634   8.581
90688SOL     OW73902  11.061   3.684  14.817
90688SOL    HW173903  10.987   3.645  14.771
90688SOL    HW273904  11.073   3.769  14.776
90689SOL     OW73905   8.778   3.028   1.794
90689SOL    HW173906   8.777   3.113   1.750
90689SOL    HW273907   8.749   2.966   1.727
90690SOL     OW73908  12.379  10.791  13.056
90690SOL    HW173909  12.326  10.854  13.105
90690SOL    HW273910  12.317  10.732  13.015
90691SOL     OW73911   1.811   4.958   6.761
90691SOL    HW173912   1.747   4.887   6.750
90691SOL    HW273913   1.894   4.921   6.732
90692SOL     OW73914   7.488  10.578  13.361
90692SOL    HW173915   7.423  10.518  13.396
90692SOL    HW273916   7.525  10.622  13.437
90693SOL     OW73917  13.260  14.326   5.290
90693SOL    HW173918  13.267  14.403   5.233
90693SOL    HW273919  13.268  14.362   5.378
90694SOL     OW73920   2.553   1.715   5.566
90694SOL    HW173921   2.545   1.631   5.520
90694SOL    HW273922   2.562   1.780   5.495
90695SOL     OW73923   3.139  12.058   1.583
90695SOL    HW173924   3.111  12.053   1.675
90695SOL    HW273925   3.117  11.972   1.547
90696SOL     OW73926  12.849   1.299   6.819
90696SOL    HW173927  12.928   1.347   6.845
90696SOL    HW273928  12.806   1.277   6.901
90697SOL     OW73929  11.887   1.396   7.907
90697SOL    HW173930  11.969   1.347   7.910
90697SOL    HW273931  11.882   1.430   7.817
90698SOL     OW73932  13.344   6.747  12.625
90698SOL    HW173933  13.407   6.675  12.630
90698SOL    HW273934  13.366   6.803  12.699
90699SOL     OW73935  12.793   1.613   6.808
90699SOL    HW173936  12.698   1.616   6.821
90699SOL    HW273937  12.809   1.530   6.764
90700SOL     OW73938  12.219  11.130   2.642
90700SOL    HW173939  12.210  11.143   2.548
90700SOL    HW273940  12.313  11.139   2.658
90701SOL     OW73941  10.481   1.142   5.987
90701SOL    HW173942  10.510   1.205   6.054
90701SOL    HW273943  10.486   1.057   6.031
90702SOL     OW73944   6.541   7.627   2.415
90702SOL    HW173945   6.515   7.687   2.485
90702SOL    HW273946   6.637   7.631   2.414
90703SOL     OW73947  14.386   6.611  11.686
90703SOL    HW173948  14.439   6.569  11.754
90703SOL    HW273949  14.363   6.697  11.723
90704SOL     OW73950   4.471   1.773  11.604
90704SOL    HW173951   4.520   1.711  11.658
90704SOL    HW273952   4.492   1.859  11.641
90705SOL     OW73953  10.719  14.186   8.992
90705SOL    HW173954  10.775  14.224   8.924
90705SOL    HW273955  10.746  14.094   8.997
90706SOL     OW73956   6.652   6.161   8.628
90706SOL    HW173957   6.717   6.104   8.588
90706SOL    HW273958   6.670   6.157   8.722
90707SOL     OW73959   1.581   6.040   0.071
90707SOL    HW173960   1.501   6.072   0.028
90707SOL    HW273961   1.598   5.955   0.029
90708SOL     OW73962   5.587   3.575  11.157
90708SOL    HW173963   5.665   3.596  11.208
90708SOL    HW273964   5.614   3.506  11.098
90709SOL     OW73965  11.268   9.490   6.658
90709SOL    HW173966  11.327   9.477   6.732
90709SOL    HW273967  11.200   9.549   6.692
90710SOL     OW73968   2.467  11.408   3.032
90710SOL    HW173969   2.524  11.391   3.108
90710SOL    HW273970   2.493  11.495   3.001
90711SOL     OW73971   7.159   1.526   3.990
90711SOL    HW173972   7.118   1.466   4.053
90711SOL    HW273973   7.173   1.607   4.039
90712SOL     OW73974   5.922  10.096   1.912
90712SOL    HW173975   6.011  10.082   1.944
90712SOL    HW273976   5.883  10.156   1.976
90713SOL     OW73977   7.470   6.614  10.893
90713SOL    HW173978   7.399   6.552  10.910
90713SOL    HW273979   7.543   6.558  10.866
90714SOL     OW73980   4.856   9.785  13.289
90714SOL    HW173981   4.855   9.725  13.214
90714SOL    HW273982   4.867   9.727  13.365
90715SOL     OW73983  14.099  13.931   7.679
90715SOL    HW173984  14.151  13.863   7.722
90715SOL    HW273985  14.162  14.001   7.661
90716SOL     OW73986  13.833   4.459   4.855
90716SOL    HW173987  13.754   4.417   4.821
90716SOL    HW273988  13.841   4.540   4.804
90717SOL     OW73989   3.612  13.491   0.794
90717SOL    HW173990   3.642  13.400   0.787
90717SOL    HW273991   3.693  13.542   0.802
90718SOL     OW73992  12.813   0.656   1.205
90718SOL    HW173993  12.778   0.678   1.291
90718SOL    HW273994  12.867   0.731   1.181
90719SOL     OW73995   2.559  13.063   1.167
90719SOL    HW173996   2.598  13.019   1.091
90719SOL    HW273997   2.545  13.153   1.138
90720SOL     OW73998  12.912  12.998   1.001
90720SOL    HW173999  12.900  13.081   0.956
90720SOL    HW274000  12.831  12.986   1.051
90721SOL     OW74001  11.566  14.671  14.747
90721SOL    HW174002  11.473  14.650  14.760
90721SOL    HW274003  11.584  14.740  14.810
90722SOL     OW74004  10.599   1.253  10.156
90722SOL    HW174005  10.632   1.338  10.128
90722SOL    HW274006  10.579   1.207  10.074
90723SOL     OW74007   1.235   1.642   3.537
90723SOL    HW174008   1.279   1.714   3.492
90723SOL    HW274009   1.145   1.671   3.546
90724SOL     OW74010   7.856   0.575   7.303
90724SOL    HW174011   7.914   0.540   7.235
90724SOL    HW274012   7.771   0.534   7.285
90725SOL     OW74013   2.552   3.688   2.053
90725SOL    HW174014   2.591   3.619   1.999
90725SOL    HW274015   2.534   3.645   2.137
90726SOL     OW74016   7.363   4.624   7.520
90726SOL    HW174017   7.384   4.568   7.594
90726SOL    HW274018   7.439   4.617   7.462
90727SOL     OW74019  14.312   2.235   1.812
90727SOL    HW174020  14.281   2.149   1.785
90727SOL    HW274021  14.323   2.228   1.907
90728SOL     OW74022   4.991  12.601   4.886
90728SOL    HW174023   4.938  12.671   4.847
90728SOL    HW274024   5.077  12.612   4.846
90729SOL     OW74025   0.420  13.673   2.505
90729SOL    HW174026   0.374  13.616   2.444
90729SOL    HW274027   0.359  13.684   2.578
90730SOL     OW74028   4.876   6.303  12.411
90730SOL    HW174029   4.885   6.385  12.459
90730SOL    HW274030   4.944   6.307  12.345
90731SOL     OW74031  10.651   7.146   2.461
90731SOL    HW174032  10.622   7.078   2.400
90731SOL    HW274033  10.671   7.221   2.405
90732SOL     OW74034  10.581   2.980   5.246
90732SOL    HW174035  10.519   3.042   5.285
90732SOL    HW274036  10.577   2.903   5.302
90733SOL     OW74037   4.307   8.046  14.542
90733SOL    HW174038   4.351   8.003  14.469
90733SOL    HW274039   4.215   8.046  14.518
90734SOL     OW74040   4.642   3.260   7.335
90734SOL    HW174041   4.597   3.206   7.400
90734SOL    HW274042   4.727   3.216   7.322
90735SOL     OW74043  10.533   8.462  14.174
90735SOL    HW174044  10.610   8.518  14.162
90735SOL    HW274045  10.466   8.521  14.206
90736SOL     OW74046  14.329   3.534   4.499
90736SOL    HW174047  14.247   3.532   4.549
90736SOL    HW274048  14.397   3.513   4.563
90737SOL     OW74049  10.549  13.224  11.058
90737SOL    HW174050  10.540  13.225  11.153
90737SOL    HW274051  10.519  13.310  11.030
90738SOL     OW74052  12.856  11.537  11.230
90738SOL    HW174053  12.865  11.505  11.320
90738SOL    HW274054  12.898  11.470  11.176
90739SOL     OW74055  14.355   1.847  14.665
90739SOL    HW174056  14.430   1.814  14.714
90739SOL    HW274057  14.304   1.897  14.729
90740SOL     OW74058   1.459   4.456  13.522
90740SOL    HW174059   1.549   4.485  13.508
90740SOL    HW274060   1.409   4.498  13.452
90741SOL     OW74061  11.335   7.111   9.028
90741SOL    HW174062  11.403   7.124   8.963
90741SOL    HW274063  11.294   7.197   9.037
90742SOL     OW74064   3.821   8.089  13.527
90742SOL    HW174065   3.834   8.018  13.590
90742SOL    HW274066   3.907   8.099  13.485
90743SOL     OW74067  11.540  13.359   3.902
90743SOL    HW174068  11.632  13.330   3.900
90743SOL    HW274069  11.532  13.406   3.985
90744SOL     OW74070   3.621   6.831   0.395
90744SOL    HW174071   3.528   6.843   0.416
90744SOL    HW274072   3.639   6.740   0.417
90745SOL     OW74073   2.022  13.881  12.992
90745SOL    HW174074   2.053  13.829  13.067
90745SOL    HW274075   1.936  13.914  13.021
90746SOL     OW74076   9.552   7.331  13.090
90746SOL    HW174077   9.571   7.239  13.111
90746SOL    HW274078   9.456   7.337  13.097
90747SOL     OW74079   9.621  10.263   4.577
90747SOL    HW174080   9.620  10.216   4.661
90747SOL    HW274081   9.535  10.303   4.571
90748SOL     OW74082   9.393   0.671  14.252
90748SOL    HW174083   9.477   0.708  14.278
90748SOL    HW274084   9.352   0.642  14.333
90749SOL     OW74085  13.812   3.828   5.450
90749SOL    HW174086  13.735   3.865   5.493
90749SOL    HW274087  13.779   3.799   5.365
90750SOL     OW74088   1.770  10.040   0.955
90750SOL    HW174089   1.707   9.996   0.897
90750SOL    HW274090   1.854   9.999   0.933
90751SOL     OW74091   6.107   6.044  10.500
90751SOL    HW174092   6.064   6.034  10.416
90751SOL    HW274093   6.036   6.058  10.562
90752SOL     OW74094   5.830  10.618   1.047
90752SOL    HW174095   5.893  10.687   1.070
90752SOL    HW274096   5.838  10.554   1.117
90753SOL     OW74097  14.340   6.900  14.223
90753SOL    HW174098  14.268   6.939  14.272
90753SOL    HW274099  14.410   6.891  14.287
90754SOL     OW74100   9.072  11.176   5.255
90754SOL    HW174101   9.118  11.258   5.273
90754SOL    HW274102   9.138  11.108   5.265
90755SOL     OW74103  10.317   2.636   7.554
90755SOL    HW174104  10.226   2.664   7.548
90755SOL    HW274105  10.358   2.669   7.475
90756SOL     OW74106   6.114   7.708   4.566
90756SOL    HW174107   6.090   7.770   4.634
90756SOL    HW274108   6.051   7.637   4.574
90757SOL     OW74109   1.205   4.225   0.439
90757SOL    HW174110   1.188   4.162   0.510
90757SOL    HW274111   1.174   4.181   0.360
90758SOL     OW74112  10.312  12.423   0.890
90758SOL    HW174113  10.385  12.439   0.949
90758SOL    HW274114  10.246  12.380   0.945
90759SOL     OW74115   5.011  10.485   7.814
90759SOL    HW174116   5.038  10.459   7.726
90759SOL    HW274117   4.917  10.499   7.808
90760SOL     OW74118   2.875  13.879   3.198
90760SOL    HW174119   2.806  13.852   3.258
90760SOL    HW274120   2.915  13.955   3.240
90761SOL     OW74121   1.475  11.285   2.138
90761SOL    HW174122   1.568  11.259   2.139
90761SOL    HW274123   1.429  11.204   2.117
90762SOL     OW74124   3.817  12.314   8.529
90762SOL    HW174125   3.886  12.380   8.526
90762SOL    HW274126   3.822  12.279   8.618
90763SOL     OW74127   1.904  12.124   8.372
90763SOL    HW174128   1.897  12.046   8.426
90763SOL    HW274129   1.998  12.134   8.354
90764SOL     OW74130  11.671  11.562  12.378
90764SOL    HW174131  11.723  11.593  12.304
90764SOL    HW274132  11.733  11.553  12.450
90765SOL     OW74133   0.590   3.862  10.076
90765SOL    HW174134   0.547   3.811  10.008
90765SOL    HW274135   0.649   3.799  10.118
90766SOL     OW74136   5.307  12.260   8.269
90766SOL    HW174137   5.384  12.205   8.256
90766SOL    HW274138   5.342  12.341   8.305
90767SOL     OW74139  10.650   1.738   3.673
90767SOL    HW174140  10.728   1.761   3.723
90767SOL    HW274141  10.628   1.649   3.701
90768SOL     OW74142  12.996   8.547  13.302
90768SOL    HW174143  13.018   8.533  13.210
90768SOL    HW274144  12.969   8.638  13.307
90769SOL     OW74145   7.446  13.233   1.238
90769SOL    HW174146   7.494  13.304   1.280
90769SOL    HW274147   7.497  13.154   1.260
90770SOL     OW74148  14.303  10.742  13.584
90770SOL    HW174149  14.287  10.791  13.665
90770SOL    HW274150  14.350  10.803  13.528
90771SOL     OW74151   6.874  10.080   9.670
90771SOL    HW174152   6.955  10.030   9.673
90771SOL    HW274153   6.880  10.130   9.588
90772SOL     OW74154   8.788   0.924   5.116
90772SOL    HW174155   8.882   0.935   5.101
90772SOL    HW274156   8.776   0.829   5.119
90773SOL     OW74157   7.345  10.262   3.004
90773SOL    HW174158   7.316  10.266   2.913
90773SOL    HW274159   7.356  10.353   3.030
90774SOL     OW74160   6.351  14.623  12.830
90774SOL    HW174161   6.373  14.617  12.923
90774SOL    HW274162   6.396  14.548  12.790
90775SOL     OW74163   9.795   2.670   8.625
90775SOL    HW174164   9.708   2.708   8.623
90775SOL    HW274165   9.843   2.723   8.689
90776SOL     OW74166   4.804  12.071  13.956
90776SOL    HW174167   4.789  12.158  13.921
90776SOL    HW274168   4.825  12.017  13.880
90777SOL     OW74169   8.449   5.366  12.479
90777SOL    HW174170   8.474   5.287  12.431
90777SOL    HW274171   8.530   5.416  12.487
90778SOL     OW74172   4.464   3.080   3.737
90778SOL    HW174173   4.551   3.063   3.701
90778SOL    HW274174   4.431   2.994   3.763
90779SOL     OW74175   7.604   1.311  12.611
90779SOL    HW174176   7.683   1.261  12.631
90779SOL    HW274177   7.568   1.334  12.697
90780SOL     OW74178   1.528   8.706   5.685
90780SOL    HW174179   1.543   8.685   5.778
90780SOL    HW274180   1.610   8.683   5.642
90781SOL     OW74181   1.251  11.538   1.698
90781SOL    HW174182   1.182  11.472   1.704
90781SOL    HW274183   1.222  11.608   1.757
90782SOL     OW74184   3.452   1.603   9.285
90782SOL    HW174185   3.468   1.522   9.334
90782SOL    HW274186   3.479   1.673   9.345
90783SOL     OW74187   5.278   8.641   4.961
90783SOL    HW174188   5.211   8.691   5.007
90783SOL    HW274189   5.358   8.655   5.011
90784SOL     OW74190   8.673  12.987  11.661
90784SOL    HW174191   8.596  13.021  11.708
90784SOL    HW274192   8.636  12.945  11.583
90785SOL     OW74193  11.144  13.273   6.680
90785SOL    HW174194  11.147  13.198   6.621
90785SOL    HW274195  11.170  13.239   6.765
90786SOL     OW74196   3.716  14.165   0.342
90786SOL    HW174197   3.657  14.204   0.279
90786SOL    HW274198   3.803  14.176   0.304
90787SOL     OW74199  10.758   2.703   6.205
90787SOL    HW174200  10.774   2.764   6.133
90787SOL    HW274201  10.752   2.617   6.162
90788SOL     OW74202   3.173   1.734   9.641
90788SOL    HW174203   3.088   1.757   9.602
90788SOL    HW274204   3.152   1.711   9.732
90789SOL     OW74205  11.831   2.921   3.623
90789SOL    HW174206  11.913   2.911   3.671
90789SOL    HW274207  11.764   2.890   3.683
90790SOL     OW74208  14.841   3.796   8.396
90790SOL    HW174209  14.865   3.710   8.361
90790SOL    HW274210   0.002   3.799   8.483
90791SOL     OW74211   8.025   9.092   9.857
90791SOL    HW174212   7.995   9.115   9.945
90791SOL    HW274213   8.015   8.997   9.852
90792SOL     OW74214   6.583   3.477  10.224
90792SOL    HW174215   6.588   3.388  10.258
90792SOL    HW274216   6.660   3.485  10.167
90793SOL     OW74217   2.021   8.227   3.101
90793SOL    HW174218   2.043   8.207   3.192
90793SOL    HW274219   2.073   8.165   3.050
90794SOL     OW74220   5.213   7.657  11.789
90794SOL    HW174221   5.192   7.618  11.704
90794SOL    HW274222   5.180   7.595  11.853
90795SOL     OW74223   8.838   9.553   8.983
90795SOL    HW174224   8.820   9.460   8.965
90795SOL    HW274225   8.751   9.593   8.989
90796SOL     OW74226   6.588   6.117  14.872
90796SOL    HW174227   6.501   6.146  14.843
90796SOL    HW274228   6.577   6.099   0.085
90797SOL     OW74229  13.622   5.714   5.798
90797SOL    HW174230  13.534   5.750   5.808
90797SOL    HW274231  13.610   5.619   5.799
90798SOL     OW74232   7.397   2.708   9.060
90798SOL    HW174233   7.470   2.767   9.040
90798SOL    HW274234   7.432   2.648   9.126
90799SOL     OW74235   6.568   4.634   0.303
90799SOL    HW174236   6.538   4.717   0.266
90799SOL    HW274237   6.515   4.623   0.382
90800SOL     OW74238  10.375   7.610  10.952
90800SOL    HW174239  10.358   7.650  10.867
90800SOL    HW274240  10.459   7.564  10.940
90801SOL     OW74241   8.274   4.396   3.724
90801SOL    HW174242   8.325   4.364   3.650
90801SOL    HW274243   8.337   4.409   3.794
90802SOL     OW74244   0.412   2.609   1.869
90802SOL    HW174245   0.362   2.572   1.942
90802SOL    HW274246   0.470   2.672   1.909
90803SOL     OW74247   6.601   1.239   0.852
90803SOL    HW174248   6.529   1.230   0.914
90803SOL    HW274249   6.677   1.259   0.906
90804SOL     OW74250   4.128  11.290   7.511
90804SOL    HW174251   4.082  11.217   7.469
90804SOL    HW274252   4.155  11.256   7.596
90805SOL     OW74253  13.015  14.355   5.730
90805SOL    HW174254  13.002  14.273   5.779
90805SOL    HW274255  13.088  14.398   5.775
90806SOL     OW74256   0.752   1.058   0.677
90806SOL    HW174257   0.684   1.125   0.691
90806SOL    HW274258   0.817   1.101   0.621
90807SOL     OW74259   1.016   3.086   1.422
90807SOL    HW174260   1.085   3.054   1.480
90807SOL    HW274261   0.969   3.008   1.394
90808SOL     OW74262   8.360  10.231  13.259
90808SOL    HW174263   8.303  10.296  13.218
90808SOL    HW274264   8.402  10.278  13.331
90809SOL     OW74265   5.181  14.700   4.213
90809SOL    HW174266   5.144  14.665   4.133
90809SOL    HW274267   5.122  14.770   4.239
90810SOL     OW74268   4.822  10.597  13.546
90810SOL    HW174269   4.770  10.667  13.509
90810SOL    HW274270   4.794  10.590  13.637
90811SOL     OW74271   0.053  14.515  12.767
90811SOL    HW174272   0.138  14.525  12.810
90811SOL    HW274273   0.066  14.554  12.680
90812SOL     OW74274   2.463   6.860  14.799
90812SOL    HW174275   2.372   6.838  14.814
90812SOL    HW274276   2.512   6.802  14.857
90813SOL     OW74277   3.002   8.039   5.606
90813SOL    HW174278   2.930   8.099   5.620
90813SOL    HW274279   2.976   7.959   5.652
90814SOL     OW74280  10.968  11.460  13.161
90814SOL    HW174281  10.986  11.374  13.123
90814SOL    HW274282  10.951  11.517  13.086
90815SOL     OW74283   8.883   5.929  12.019
90815SOL    HW174284   8.903   5.944  12.111
90815SOL    HW274285   8.788   5.933  12.014
90816SOL     OW74286  10.497   0.057  10.329
90816SOL    HW174287  10.419   0.056  10.385
90816SOL    HW274288  10.463   0.057  10.240
90817SOL     OW74289   0.130   3.073  10.310
90817SOL    HW174290   0.155   3.117  10.392
90817SOL    HW274291   0.144   3.139  10.242
90818SOL     OW74292  14.561   0.455   3.502
90818SOL    HW174293  14.497   0.422   3.439
90818SOL    HW274294  14.527   0.429   3.587
90819SOL     OW74295  13.834  11.493   5.578
90819SOL    HW174296  13.920  11.472   5.542
90819SOL    HW274297  13.776  11.425   5.544
90820SOL     OW74298   3.299  14.768  12.411
90820SOL    HW174299   3.354  14.846  12.414
90820SOL    HW274300   3.350  14.701  12.456
90821SOL     OW74301  10.659   8.272   0.714
90821SOL    HW174302  10.698   8.224   0.640
90821SOL    HW274303  10.680   8.219   0.791
90822SOL     OW74304   4.058   6.700   2.509
90822SOL    HW174305   4.131   6.709   2.570
90822SOL    HW274306   4.063   6.609   2.478
90823SOL     OW74307  12.394  13.485   2.875
90823SOL    HW174308  12.308  13.526   2.879
90823SOL    HW274309  12.403  13.454   2.785
90824SOL     OW74310  12.347   7.044  14.496
90824SOL    HW174311  12.355   7.053  14.591
90824SOL    HW274312  12.254   7.061  14.479
90825SOL     OW74313   8.106  13.130  13.820
90825SOL    HW174314   8.166  13.120  13.894
90825SOL    HW274315   8.070  13.218  13.831
90826SOL     OW74316  10.584   9.122  10.721
90826SOL    HW174317  10.617   9.182  10.788
90826SOL    HW274318  10.654   9.058  10.709
90827SOL     OW74319  14.357   4.832  13.089
90827SOL    HW174320  14.311   4.883  13.023
90827SOL    HW274321  14.380   4.895  13.157
90828SOL     OW74322   5.739   0.671   5.640
90828SOL    HW174323   5.787   0.734   5.693
90828SOL    HW274324   5.652   0.666   5.681
90829SOL     OW74325   2.094   0.812   1.789
90829SOL    HW174326   2.040   0.807   1.711
90829SOL    HW274327   2.177   0.849   1.759
90830SOL     OW74328   4.211  14.552   2.155
90830SOL    HW174329   4.167  14.536   2.238
90830SOL    HW274330   4.175  14.487   2.095
90831SOL     OW74331   5.669  11.959   7.216
90831SOL    HW174332   5.593  12.009   7.245
90831SOL    HW274333   5.665  11.876   7.264
90832SOL     OW74334   6.246   1.537  14.058
90832SOL    HW174335   6.192   1.568  13.985
90832SOL    HW274336   6.240   1.441  14.053
90833SOL     OW74337   0.278   7.456   6.719
90833SOL    HW174338   0.199   7.403   6.730
90833SOL    HW274339   0.337   7.426   6.788
90834SOL     OW74340  11.754   0.358   6.335
90834SOL    HW174341  11.678   0.414   6.350
90834SOL    HW274342  11.828   0.417   6.334
90835SOL     OW74343   6.486  11.385   5.384
90835SOL    HW174344   6.462  11.473   5.412
90835SOL    HW274345   6.537  11.398   5.304
90836SOL     OW74346  11.319   6.627   8.702
90836SOL    HW174347  11.382   6.659   8.637
90836SOL    HW274348  11.244   6.686   8.694
90837SOL     OW74349   1.491   0.123  14.420
90837SOL    HW174350   1.420   0.187  14.412
90837SOL    HW274351   1.455   0.043  14.382
90838SOL     OW74352  10.033  14.321   1.467
90838SOL    HW174353  10.088  14.281   1.399
90838SOL    HW274354  10.012  14.249   1.526
90839SOL     OW74355   0.796   3.545   7.924
90839SOL    HW174356   0.820   3.603   7.852
90839SOL    HW274357   0.874   3.540   7.979
90840SOL     OW74358   5.890  13.488   7.786
90840SOL    HW174359   5.941  13.543   7.845
90840SOL    HW274360   5.843  13.428   7.844
90841SOL     OW74361   9.213  14.829   7.385
90841SOL    HW174362   9.301  14.865   7.399
90841SOL    HW274363   9.186  14.799   7.471
90842SOL     OW74364   5.974  13.336   5.961
90842SOL    HW174365   6.032  13.406   5.991
90842SOL    HW274366   6.020  13.256   5.986
90843SOL     OW74367  12.368  11.027   6.393
90843SOL    HW174368  12.375  11.025   6.488
90843SOL    HW274369  12.280  11.061   6.376
90844SOL     OW74370   7.142   7.863  13.730
90844SOL    HW174371   7.195   7.841  13.806
90844SOL    HW274372   7.076   7.794  13.725
90845SOL     OW74373   6.941   1.826  14.252
90845SOL    HW174374   7.035   1.837  14.237
90845SOL    HW274375   6.934   1.748  14.307
90846SOL     OW74376   0.044   8.300   2.802
90846SOL    HW174377   0.012   8.212   2.786
90846SOL    HW274378  14.878   8.354   2.737
90847SOL     OW74379  14.245  12.377  14.475
90847SOL    HW174380  14.182  12.317  14.515
90847SOL    HW274381  14.330  12.349  14.509
90848SOL     OW74382   2.431  14.061  14.870
90848SOL    HW174383   2.374  14.135   0.010
90848SOL    HW274384   2.417  14.044  14.777
90849SOL     OW74385   8.468  13.043   1.694
90849SOL    HW174386   8.525  13.101   1.642
90849SOL    HW274387   8.489  13.065   1.785
90850SOL     OW74388   3.221   1.861   7.807
90850SOL    HW174389   3.274   1.940   7.801
90850SOL    HW274390   3.261   1.801   7.744
90851SOL     OW74391  14.654  12.861   7.503
90851SOL    HW174392  14.603  12.805   7.443
90851SOL    HW274393  14.681  12.802   7.573
90852SOL     OW74394   2.558   9.475  13.166
90852SOL    HW174395   2.472   9.517  13.173
90852SOL    HW274396   2.583   9.487  13.074
90853SOL     OW74397   8.362   5.074   6.856
90853SOL    HW174398   8.334   5.007   6.794
90853SOL    HW274399   8.319   5.154   6.826
90854SOL     OW74400   7.351  11.153  10.537
90854SOL    HW174401   7.348  11.225  10.473
90854SOL    HW274402   7.445  11.142  10.556
90855SOL     OW74403   8.357   2.291   0.449
90855SOL    HW174404   8.314   2.356   0.505
90855SOL    HW274405   8.409   2.343   0.388
90856SOL     OW74406   9.169  12.089  13.485
90856SOL    HW174407   9.125  12.004  13.478
90856SOL    HW274408   9.212  12.100  13.400
90857SOL     OW74409   8.364   4.355   8.861
90857SOL    HW174410   8.450   4.396   8.872
90857SOL    HW274411   8.304   4.429   8.851
90858SOL     OW74412   2.151  14.761   5.691
90858SOL    HW174413   2.207  14.728   5.621
90858SOL    HW274414   2.205  14.823   5.739
90859SOL     OW74415   1.864   5.626   9.454
90859SOL    HW174416   1.900   5.707   9.417
90859SOL    HW274417   1.830   5.579   9.378
90860SOL     OW74418   1.556   9.413   6.450
90860SOL    HW174419   1.480   9.410   6.392
90860SOL    HW274420   1.561   9.504   6.479
90861SOL     OW74421  10.898  13.381   8.522
90861SOL    HW174422  10.988  13.374   8.491
90861SOL    HW274423  10.850  13.316   8.471
90862SOL     OW74424  14.763  12.075  13.653
90862SOL    HW174425  14.726  12.048  13.737
90862SOL    HW274426  14.772  12.170  13.659
90863SOL     OW74427   0.709   8.190   2.317
90863SOL    HW174428   0.615   8.180   2.305
90863SOL    HW274429   0.745   8.191   2.229
90864SOL     OW74430  12.147   1.604   8.796
90864SOL    HW174431  12.182   1.663   8.863
90864SOL    HW274432  12.083   1.550   8.842
90865SOL     OW74433   1.216   2.508   6.563
90865SOL    HW174434   1.210   2.412   6.563
90865SOL    HW274435   1.159   2.535   6.491
90866SOL     OW74436  14.190   4.488   5.704
90866SOL    HW174437  14.276   4.489   5.660
90866SOL    HW274438  14.137   4.549   5.653
90867SOL     OW74439  12.424   6.959   9.499
90867SOL    HW174440  12.436   6.866   9.521
90867SOL    HW274441  12.471   7.006   9.567
90868SOL     OW74442  11.237   3.682   7.848
90868SOL    HW174443  11.247   3.766   7.803
90868SOL    HW274444  11.160   3.694   7.903
90869SOL     OW74445   2.159   5.296   9.689
90869SOL    HW174446   2.198   5.383   9.695
90869SOL    HW274447   2.066   5.310   9.707
90870SOL     OW74448  14.260  12.975  11.013
90870SOL    HW174449  14.329  12.909  11.025
90870SOL    HW274450  14.276  13.010  10.926
90871SOL     OW74451   5.715   9.711   4.041
90871SOL    HW174452   5.650   9.739   4.105
90871SOL    HW274453   5.751   9.630   4.078
90872SOL     OW74454  13.027  11.015   1.231
90872SOL    HW174455  13.093  11.054   1.288
90872SOL    HW274456  12.959  11.082   1.224
90873SOL     OW74457  13.158   7.280   1.641
90873SOL    HW174458  13.078   7.333   1.635
90873SOL    HW274459  13.184   7.265   1.550
90874SOL     OW74460  12.961   1.825   0.146
90874SOL    HW174461  12.898   1.860   0.084
90874SOL    HW274462  12.978   1.898   0.207
90875SOL     OW74463   4.486   6.924   3.925
90875SOL    HW174464   4.575   6.930   3.890
90875SOL    HW274465   4.452   7.013   3.921
90876SOL     OW74466   0.128  10.978   8.497
90876SOL    HW174467   0.120  11.068   8.528
90876SOL    HW274468   0.153  10.986   8.405
90877SOL     OW74469   8.617  12.837  10.520
90877SOL    HW174470   8.606  12.917  10.573
90877SOL    HW274471   8.552  12.845  10.450
90878SOL     OW74472   5.893  11.318   0.903
90878SOL    HW174473   5.803  11.307   0.872
90878SOL    HW274474   5.884  11.351   0.992
90879SOL     OW74475   5.584   6.123   9.259
90879SOL    HW174476   5.554   6.165   9.341
90879SOL    HW274477   5.504   6.109   9.209
90880SOL     OW74478  13.764   0.018   7.604
90880SOL    HW174479  13.763   0.038   7.697
90880SOL    HW274480  13.828  14.827   7.595
90881SOL     OW74481  12.575   1.419  12.407
90881SOL    HW174482  12.634   1.344  12.398
90881SOL    HW274483  12.609   1.484  12.346
90882SOL     OW74484   6.494  13.017  14.613
90882SOL    HW174485   6.484  13.102  14.655
90882SOL    HW274486   6.510  12.956  14.685
90883SOL     OW74487  11.581  13.567  12.665
90883SOL    HW174488  11.631  13.485  12.672
90883SOL    HW274489  11.505  13.554  12.721
90884SOL     OW74490   5.873   9.097  10.709
90884SOL    HW174491   5.963   9.106  10.677
90884SOL    HW274492   5.824   9.060  10.635
90885SOL     OW74493  11.379  14.283  11.019
90885SOL    HW174494  11.384  14.264  11.112
90885SOL    HW274495  11.380  14.379  11.013
90886SOL     OW74496   2.500  12.799   2.209
90886SOL    HW174497   2.534  12.816   2.296
90886SOL    HW274498   2.569  12.826   2.150
90887SOL     OW74499   6.634   0.518   1.639
90887SOL    HW174500   6.712   0.477   1.603
90887SOL    HW274501   6.636   0.496   1.732
90888SOL     OW74502   2.699  13.816  11.757
90888SOL    HW174503   2.755  13.888  11.788
90888SOL    HW274504   2.754  13.769  11.694
90889SOL     OW74505   6.759   6.505   7.889
90889SOL    HW174506   6.790   6.439   7.951
90889SOL    HW274507   6.839   6.538   7.848
90890SOL     OW74508  11.521   4.147  10.072
90890SOL    HW174509  11.573   4.227  10.084
90890SOL    HW274510  11.434   4.171  10.102
90891SOL     OW74511  12.173  10.696   7.495
90891SOL    HW174512  12.166  10.691   7.400
90891SOL    HW274513  12.133  10.780   7.518
90892SOL     OW74514   9.301   9.460   7.163
90892SOL    HW174515   9.308   9.532   7.226
90892SOL    HW274516   9.210   9.465   7.132
90893SOL     OW74517   5.946  13.700   8.403
90893SOL    HW174518   5.877  13.636   8.422
90893SOL    HW274519   5.898  13.779   8.376
90894SOL     OW74520   4.556   4.337   7.506
90894SOL    HW174521   4.621   4.344   7.436
90894SOL    HW274522   4.509   4.420   7.503
90895SOL     OW74523   9.103   2.663   6.068
90895SOL    HW174524   9.010   2.641   6.071
90895SOL    HW274525   9.117   2.694   5.978
90896SOL     OW74526   5.068   2.704   3.430
90896SOL    HW174527   5.131   2.668   3.493
90896SOL    HW274528   5.045   2.631   3.373
90897SOL     OW74529  12.775   2.159   2.152
90897SOL    HW174530  12.804   2.083   2.203
90897SOL    HW274531  12.733   2.216   2.216
90898SOL     OW74532   0.307  12.988  13.189
90898SOL    HW174533   0.366  12.982  13.264
90898SOL    HW274534   0.364  12.974  13.113
90899SOL     OW74535  13.618  10.868  10.057
90899SOL    HW174536  13.578  10.789  10.020
90899SOL    HW274537  13.612  10.856  10.152
90900SOL     OW74538  10.812   3.066   3.790
90900SOL    HW174539  10.790   3.083   3.882
90900SOL    HW274540  10.904   3.092   3.783
90901SOL     OW74541   4.821  12.980   7.289
90901SOL    HW174542   4.764  12.929   7.346
90901SOL    HW274543   4.828  13.065   7.331
90902SOL     OW74544   7.125   2.476   2.768
90902SOL    HW174545   7.153   2.401   2.717
90902SOL    HW274546   7.096   2.439   2.852
90903SOL     OW74547  13.258  10.829   5.695
90903SOL    HW174548  13.184  10.782   5.658
90903SOL    HW274549  13.227  10.860   5.780
90904SOL     OW74550   9.816   1.166  12.783
90904SOL    HW174551   9.773   1.222  12.848
90904SOL    HW274552   9.895   1.135  12.827
90905SOL     OW74553  12.624   1.280   3.064
90905SOL    HW174554  12.603   1.225   3.139
90905SOL    HW274555  12.595   1.230   2.988
90906SOL     OW74556  11.328   4.952   6.241
90906SOL    HW174557  11.272   4.980   6.169
90906SOL    HW274558  11.397   4.901   6.199
90907SOL     OW74559  12.115   3.326   0.658
90907SOL    HW174560  12.205   3.299   0.676
90907SOL    HW274561  12.115   3.421   0.671
90908SOL     OW74562   7.556  11.045   4.891
90908SOL    HW174563   7.620  11.040   4.961
90908SOL    HW274564   7.554  10.956   4.853
90909SOL     OW74565  11.624  11.160   0.841
90909SOL    HW174566  11.627  11.198   0.929
90909SOL    HW274567  11.566  11.219   0.791
90910SOL     OW74568   4.488  10.233   0.094
90910SOL    HW174569   4.473  10.155   0.147
90910SOL    HW274570   4.569  10.215   0.046
90911SOL     OW74571   6.332   2.324  12.108
90911SOL    HW174572   6.381   2.366  12.038
90911SOL    HW274573   6.252   2.377  12.117
90912SOL     OW74574  14.142   0.193   2.309
90912SOL    HW174575  14.097   0.256   2.365
90912SOL    HW274576  14.189   0.137   2.370
90913SOL     OW74577   7.207  12.659   2.418
90913SOL    HW174578   7.173  12.616   2.497
90913SOL    HW274579   7.298  12.629   2.412
90914SOL     OW74580   9.336  11.819   7.711
90914SOL    HW174581   9.257  11.802   7.659
90914SOL    HW274582   9.308  11.883   7.777
90915SOL     OW74583   1.130   5.261   9.774
90915SOL    HW174584   1.204   5.300   9.821
90915SOL    HW274585   1.170   5.197   9.715
90916SOL     OW74586  11.245  12.495   5.037
90916SOL    HW174587  11.231  12.426   5.103
90916SOL    HW274588  11.171  12.554   5.049
90917SOL     OW74589   0.111   9.732   5.193
90917SOL    HW174590   0.174   9.802   5.173
90917SOL    HW274591   0.087   9.747   5.284
90918SOL     OW74592   2.323  13.039   7.746
90918SOL    HW174593   2.275  12.956   7.749
90918SOL    HW274594   2.320  13.065   7.654
90919SOL     OW74595  10.423  12.709   0.474
90919SOL    HW174596  10.334  12.739   0.494
90919SOL    HW274597  10.431  12.626   0.521
90920SOL     OW74598   0.470   1.385   8.668
90920SOL    HW174599   0.397   1.400   8.728
90920SOL    HW274600   0.447   1.305   8.621
90921SOL     OW74601   4.682   2.379   8.136
90921SOL    HW174602   4.735   2.417   8.206
90921SOL    HW274603   4.602   2.432   8.135
90922SOL     OW74604   1.897   6.145   7.461
90922SOL    HW174605   1.921   6.077   7.524
90922SOL    HW274606   1.979   6.191   7.444
90923SOL     OW74607   9.155   9.493  10.454
90923SOL    HW174608   9.204   9.552  10.396
90923SOL    HW274609   9.063   9.510  10.433
90924SOL     OW74610   3.523   5.783   4.086
90924SOL    HW174611   3.555   5.841   4.155
90924SOL    HW274612   3.583   5.708   4.089
90925SOL     OW74613   9.971  14.180  12.451
90925SOL    HW174614   9.898  14.168  12.512
90925SOL    HW274615   9.978  14.097  12.405
90926SOL     OW74616   3.564  10.436  12.623
90926SOL    HW174617   3.470  10.439  12.606
90926SOL    HW274618   3.604  10.415  12.539
90927SOL     OW74619   5.261  12.994  11.215
90927SOL    HW174620   5.314  12.916  11.230
90927SOL    HW274621   5.319  13.067  11.236
90928SOL     OW74622   6.276   1.677   2.504
90928SOL    HW174623   6.255   1.756   2.455
90928SOL    HW274624   6.300   1.708   2.592
90929SOL     OW74625  11.315   2.587  14.285
90929SOL    HW174626  11.338   2.525  14.354
90929SOL    HW274627  11.298   2.533  14.209
90930SOL     OW74628   8.857   9.997   5.243
90930SOL    HW174629   8.881  10.037   5.159
90930SOL    HW274630   8.762  10.005   5.246
90931SOL     OW74631   5.095  11.686   0.982
90931SOL    HW174632   5.117  11.753   1.048
90931SOL    HW274633   5.000  11.693   0.972
90932SOL     OW74634  11.355   0.834   1.743
90932SOL    HW174635  11.326   0.925   1.737
90932SOL    HW274636  11.450   0.840   1.753
90933SOL     OW74637  13.955  14.118  11.107
90933SOL    HW174638  14.014  14.125  11.032
90933SOL    HW274639  13.939  14.208  11.135
90934SOL     OW74640   1.105   7.226   6.458
90934SOL    HW174641   1.066   7.237   6.371
90934SOL    HW274642   1.040   7.178   6.508
90935SOL     OW74643   8.974   5.061   4.234
90935SOL    HW174644   8.925   4.981   4.217
90935SOL    HW274645   8.986   5.062   4.329
90936SOL     OW74646  14.792  10.078   1.050
90936SOL    HW174647  14.858  10.061   1.116
90936SOL    HW274648  14.841  10.105   0.972
90937SOL     OW74649  10.677   9.056  12.800
90937SOL    HW174650  10.735   8.986  12.830
90937SOL    HW274651  10.697   9.130  12.856
90938SOL     OW74652   9.929  12.815   1.006
90938SOL    HW174653   9.940  12.886   1.070
90938SOL    HW274654   9.958  12.853   0.923
90939SOL     OW74655   5.182   9.130   6.426
90939SOL    HW174656   5.129   9.151   6.349
90939SOL    HW274657   5.122   9.085   6.485
90940SOL     OW74658  12.458  12.926   5.919
90940SOL    HW174659  12.390  12.951   5.856
90940SOL    HW274660  12.442  12.982   5.995
90941SOL     OW74661   1.551   8.165   2.451
90941SOL    HW174662   1.610   8.236   2.426
90941SOL    HW274663   1.492   8.204   2.515
90942SOL     OW74664  11.515   1.724  13.644
90942SOL    HW174665  11.573   1.714  13.719
90942SOL    HW274666  11.571   1.758  13.574
90943SOL     OW74667  14.411   8.025  13.525
90943SOL    HW174668  14.390   8.108  13.569
90943SOL    HW274669  14.422   7.962  13.596
90944SOL     OW74670   1.223   3.518   8.333
90944SOL    HW174671   1.304   3.488   8.291
90944SOL    HW274672   1.239   3.508   8.427
90945SOL     OW74673   8.242   4.557   2.381
90945SOL    HW174674   8.192   4.630   2.346
90945SOL    HW274675   8.328   4.564   2.339
90946SOL     OW74676  11.926   5.022  11.817
90946SOL    HW174677  11.860   4.957  11.841
90946SOL    HW274678  12.009   4.982  11.840
90947SOL     OW74679   2.386  12.475   1.045
90947SOL    HW174680   2.354  12.510   0.963
90947SOL    HW274681   2.309  12.472   1.102
90948SOL     OW74682   5.149   6.751  12.998
90948SOL    HW174683   5.063   6.710  12.983
90948SOL    HW274684   5.178   6.778  12.911
90949SOL     OW74685  11.617   1.123   3.621
90949SOL    HW174686  11.581   1.036   3.606
90949SOL    HW274687  11.543   1.177   3.647
90950SOL     OW74688   7.605  10.777   8.047
90950SOL    HW174689   7.516  10.760   8.076
90950SOL    HW274690   7.612  10.732   7.963
90951SOL     OW74691   5.598  11.959   5.927
90951SOL    HW174692   5.624  12.000   5.845
90951SOL    HW274693   5.610  11.865   5.911
90952SOL     OW74694   8.324  14.432  11.695
90952SOL    HW174695   8.241  14.455  11.653
90952SOL    HW274696   8.303  14.356  11.749
90953SOL     OW74697  12.140   6.958   1.269
90953SOL    HW174698  12.232   6.981   1.266
90953SOL    HW274699  12.138   6.866   1.243
90954SOL     OW74700   3.469  14.264   0.628
90954SOL    HW174701   3.545  14.208   0.645
90954SOL    HW274702   3.492  14.348   0.668
90955SOL     OW74703   6.017   9.584  11.590
90955SOL    HW174704   6.069   9.601  11.512
90955SOL    HW274705   6.047   9.499  11.621
90956SOL     OW74706  14.797   2.658  11.160
90956SOL    HW174707  14.721   2.659  11.103
90956SOL    HW274708  14.761   2.643  11.248
90957SOL     OW74709   4.388   2.481   0.912
90957SOL    HW174710   4.316   2.526   0.957
90957SOL    HW274711   4.373   2.388   0.929
90958SOL     OW74712  13.695  12.651   0.843
90958SOL    HW174713  13.615  12.688   0.880
90958SOL    HW274714  13.759  12.721   0.850
90959SOL     OW74715   5.587   0.924   4.805
90959SOL    HW174716   5.653   0.937   4.873
90959SOL    HW274717   5.635   0.888   4.731
90960SOL     OW74718   3.248   8.817   3.877
90960SOL    HW174719   3.204   8.794   3.795
90960SOL    HW274720   3.251   8.735   3.926
90961SOL     OW74721   0.675   9.915   0.738
90961SOL    HW174722   0.589   9.874   0.724
90961SOL    HW274723   0.689   9.908   0.832
90962SOL     OW74724   6.856   1.167   4.709
90962SOL    HW174725   6.945   1.137   4.728
90962SOL    HW274726   6.822   1.102   4.648
90963SOL     OW74727   3.829   1.011   8.270
90963SOL    HW174728   3.896   0.978   8.211
90963SOL    HW274729   3.789   0.933   8.309
90964SOL     OW74730  12.345   2.327   0.074
90964SOL    HW174731  12.332   2.404   0.130
90964SOL    HW274732  12.389   2.362  14.876
90965SOL     OW74733  10.957   5.621   8.669
90965SOL    HW174734  10.934   5.544   8.722
90965SOL    HW274735  10.964   5.588   8.580
90966SOL     OW74736  12.397  11.717  10.768
90966SOL    HW174737  12.484  11.747  10.794
90966SOL    HW274738  12.344  11.725  10.848
90967SOL     OW74739   2.405   5.714   5.898
90967SOL    HW174740   2.377   5.636   5.945
90967SOL    HW274741   2.332   5.775   5.906
90968SOL     OW74742   1.967   6.497  10.776
90968SOL    HW174743   1.966   6.421  10.834
90968SOL    HW274744   2.050   6.490  10.730
90969SOL     OW74745   0.970  10.725   6.240
90969SOL    HW174746   0.936  10.639   6.266
90969SOL    HW274747   1.010  10.709   6.155
90970SOL     OW74748   7.133  11.478   9.859
90970SOL    HW174749   7.110  11.571   9.858
90970SOL    HW274750   7.173  11.462   9.774
90971SOL     OW74751   4.943   5.819  10.230
90971SOL    HW174752   4.966   5.826  10.323
90971SOL    HW274753   4.915   5.729  10.219
90972SOL     OW74754   4.381   8.948   8.175
90972SOL    HW174755   4.345   9.025   8.219
90972SOL    HW274756   4.337   8.873   8.216
90973SOL     OW74757   7.425   3.051   6.926
90973SOL    HW174758   7.333   3.025   6.925
90973SOL    HW274759   7.455   3.035   6.836
90974SOL     OW74760   9.472  14.489   6.153
90974SOL    HW174761   9.492  14.557   6.089
90974SOL    HW274762   9.473  14.408   6.103
90975SOL     OW74763   5.214   7.954   3.525
90975SOL    HW174764   5.244   7.996   3.605
90975SOL    HW274765   5.212   7.861   3.546
90976SOL     OW74766   4.933   9.148   3.024
90976SOL    HW174767   4.975   9.143   2.938
90976SOL    HW274768   4.855   9.202   3.009
90977SOL     OW74769   9.743   8.247   4.067
90977SOL    HW174770   9.829   8.216   4.096
90977SOL    HW274771   9.690   8.249   4.147
90978SOL     OW74772   6.782  13.020   2.888
90978SOL    HW174773   6.853  13.041   2.828
90978SOL    HW274774   6.719  13.091   2.876
90979SOL     OW74775   8.854   9.773  13.783
90979SOL    HW174776   8.814   9.858  13.764
90979SOL    HW274777   8.933   9.794  13.832
90980SOL     OW74778   4.961   9.120  12.047
90980SOL    HW174779   5.056   9.121  12.062
90980SOL    HW274780   4.925   9.170  12.119
90981SOL     OW74781   5.926   4.222  13.175
90981SOL    HW174782   5.944   4.250  13.265
90981SOL    HW274783   5.843   4.174  13.181
90982SOL     OW74784   9.223   6.350   0.272
90982SOL    HW174785   9.274   6.340   0.352
90982SOL    HW274786   9.203   6.261   0.244
90983SOL     OW74787   7.925   9.272   9.692
90983SOL    HW174788   7.969   9.209   9.749
90983SOL    HW274789   7.846   9.297   9.740
90984SOL     OW74790  13.631  11.600   5.806
90984SOL    HW174791  13.717  11.572   5.837
90984SOL    HW274792  13.624  11.564   5.717
90985SOL     OW74793  14.204   5.431   1.267
90985SOL    HW174794  14.260   5.368   1.311
90985SOL    HW274795  14.155   5.474   1.337
90986SOL     OW74796   6.644  11.731   3.178
90986SOL    HW174797   6.569  11.779   3.145
90986SOL    HW274798   6.680  11.687   3.101
90987SOL     OW74799  14.789   7.896   4.261
90987SOL    HW174800  14.863   7.951   4.287
90987SOL    HW274801  14.712   7.949   4.278
90988SOL     OW74802   3.522   1.742   5.879
90988SOL    HW174803   3.505   1.648   5.879
90988SOL    HW274804   3.504   1.770   5.789
90989SOL     OW74805   0.334   5.995   4.895
90989SOL    HW174806   0.386   6.031   4.823
90989SOL    HW274807   0.266   5.943   4.853
90990SOL     OW74808   7.194  11.668  11.658
90990SOL    HW174809   7.109  11.632  11.634
90990SOL    HW274810   7.211  11.736  11.592
90991SOL     OW74811   8.799   0.565   0.445
90991SOL    HW174812   8.794   0.535   0.354
90991SOL    HW274813   8.708   0.577   0.472
90992SOL     OW74814  13.391   9.239   8.487
90992SOL    HW174815  13.361   9.306   8.549
90992SOL    HW274816  13.384   9.157   8.534
90993SOL     OW74817   4.917   7.142  14.770
90993SOL    HW174818   5.012   7.134  14.765
90993SOL    HW274819   4.887   7.123  14.681
90994SOL     OW74820   7.905   8.370   8.269
90994SOL    HW174821   7.961   8.428   8.320
90994SOL    HW274822   7.965   8.331   8.205
90995SOL     OW74823   0.731   0.145  11.413
90995SOL    HW174824   0.752   0.082  11.344
90995SOL    HW274825   0.815   0.161  11.456
90996SOL     OW74826   5.906   8.303   3.323
90996SOL    HW174827   5.836   8.281   3.386
90996SOL    HW274828   5.861   8.311   3.239
90997SOL     OW74829   4.205   2.455   7.468
90997SOL    HW174830   4.214   2.392   7.397
90997SOL    HW274831   4.267   2.425   7.534
90998SOL     OW74832  14.581   8.197   2.462
90998SOL    HW174833  14.503   8.165   2.507
90998SOL    HW274834  14.557   8.199   2.369
90999SOL     OW74835   5.330   0.727   1.800
90999SOL    HW174836   5.258   0.753   1.858
90999SOL    HW274837   5.398   0.694   1.859
91000SOL     OW74838   6.406   9.825  11.199
91000SOL    HW174839   6.451   9.902  11.231
91000SOL    HW274840   6.316   9.834  11.230
91001SOL     OW74841   6.248   6.422  11.277
91001SOL    HW174842   6.257   6.332  11.247
91001SOL    HW274843   6.338   6.452  11.292
91002SOL     OW74844   1.547  13.647   1.211
91002SOL    HW174845   1.493  13.723   1.188
91002SOL    HW274846   1.499  13.573   1.173
91003SOL     OW74847  14.716   7.477   5.204
91003SOL    HW174848  14.754   7.421   5.136
91003SOL    HW274849  14.745   7.565   5.182
91004SOL     OW74850  10.259  12.825   7.171
91004SOL    HW174851  10.182  12.802   7.224
91004SOL    HW274852  10.223  12.871   7.095
91005SOL     OW74853   5.803  14.605   7.503
91005SOL    HW174854   5.745  14.584   7.430
91005SOL    HW274855   5.772  14.690   7.535
91006SOL     OW74856  10.969   6.382  14.710
91006SOL    HW174857  10.911   6.314  14.744
91006SOL    HW274858  10.915   6.432  14.649
91007SOL     OW74859   7.009  12.739  10.606
91007SOL    HW174860   6.942  12.805  10.618
91007SOL    HW274861   6.971  12.677  10.543
91008SOL     OW74862   6.284   0.261  12.324
91008SOL    HW174863   6.331   0.211  12.257
91008SOL    HW274864   6.195   0.227  12.321
91009SOL     OW74865   8.497  13.542   5.954
91009SOL    HW174866   8.486  13.559   5.860
91009SOL    HW274867   8.526  13.625   5.990
91010SOL     OW74868   1.478  14.696   0.026
91010SOL    HW174869   1.563  14.736   0.008
91010SOL    HW274870   1.463  14.637  14.832
91011SOL     OW74871   2.634   1.469   4.811
91011SOL    HW174872   2.626   1.545   4.753
91011SOL    HW274873   2.571   1.486   4.881
91012SOL     OW74874  11.778   7.603   9.730
91012SOL    HW174875  11.699   7.640   9.769
91012SOL    HW274876  11.773   7.627   9.638
91013SOL     OW74877  10.975  10.885   5.441
91013SOL    HW174878  10.955  10.874   5.348
91013SOL    HW274879  11.069  10.867   5.448
91014SOL     OW74880   8.103  14.745   6.542
91014SOL    HW174881   8.021  14.697   6.537
91014SOL    HW274882   8.170  14.676   6.546
91015SOL     OW74883  12.191   5.149  10.772
91015SOL    HW174884  12.260   5.082  10.769
91015SOL    HW274885  12.226   5.215  10.832
91016SOL     OW74886   5.220   3.421  10.976
91016SOL    HW174887   5.309   3.414  10.942
91016SOL    HW274888   5.167   3.373  10.912
91017SOL     OW74889  12.424   8.408   6.929
91017SOL    HW174890  12.391   8.484   6.977
91017SOL    HW274891  12.357   8.341   6.940
91018SOL     OW74892  12.783   8.806   2.196
91018SOL    HW174893  12.788   8.888   2.245
91018SOL    HW274894  12.699   8.768   2.222
91019SOL     OW74895   1.425  12.624   7.078
91019SOL    HW174896   1.454  12.611   7.168
91019SOL    HW274897   1.470  12.704   7.050
91020SOL     OW74898   6.633  14.220  12.406
91020SOL    HW174899   6.574  14.290  12.432
91020SOL    HW274900   6.721  14.258  12.412
91021SOL     OW74901   9.211  10.198  13.068
91021SOL    HW174902   9.252  10.254  13.004
91021SOL    HW274903   9.155  10.256  13.119
91022SOL     OW74904  10.452   2.666   2.101
91022SOL    HW174905  10.467   2.572   2.106
91022SOL    HW274906  10.388   2.677   2.031
91023SOL     OW74907   6.236   8.816   1.875
91023SOL    HW174908   6.210   8.727   1.898
91023SOL    HW274909   6.305   8.838   1.937
91024SOL     OW74910   8.746  11.921   0.198
91024SOL    HW174911   8.818  11.933   0.258
91024SOL    HW274912   8.670  11.956   0.243
91025SOL     OW74913   3.585  10.557   6.741
91025SOL    HW174914   3.502  10.512   6.724
91025SOL    HW274915   3.636  10.495   6.793
91026SOL     OW74916   4.470  11.931   5.305
91026SOL    HW174917   4.535  11.973   5.360
91026SOL    HW274918   4.472  11.839   5.331
91027SOL     OW74919  11.925   2.388   7.524
91027SOL    HW174920  12.011   2.420   7.551
91027SOL    HW274921  11.901   2.444   7.450
91028SOL     OW74922   6.241   9.159   7.554
91028SOL    HW174923   6.251   9.250   7.527
91028SOL    HW274924   6.268   9.158   7.646
91029SOL     OW74925  11.550   3.262   5.576
91029SOL    HW174926  11.612   3.259   5.649
91029SOL    HW274927  11.506   3.347   5.585
91030SOL     OW74928   2.753  14.618   1.615
91030SOL    HW174929   2.764  14.540   1.561
91030SOL    HW274930   2.670  14.604   1.661
91031SOL     OW74931   4.481   3.519   7.251
91031SOL    HW174932   4.530   3.535   7.171
91031SOL    HW274933   4.538   3.548   7.321
91032SOL     OW74934   0.784   4.064  11.408
91032SOL    HW174935   0.794   4.020  11.492
91032SOL    HW274936   0.690   4.078  11.400
91033SOL     OW74937   0.441   2.663  13.240
91033SOL    HW174938   0.534   2.674  13.260
91033SOL    HW274939   0.396   2.707  13.311
91034SOL     OW74940  10.563  14.674  11.252
91034SOL    HW174941  10.607  14.652  11.170
91034SOL    HW274942  10.610  14.625  11.319
91035SOL     OW74943   6.164   9.869   8.542
91035SOL    HW174944   6.136   9.920   8.618
91035SOL    HW274945   6.172   9.779   8.575
91036SOL     OW74946   6.066   7.869   8.957
91036SOL    HW174947   6.090   7.921   8.881
91036SOL    HW274948   5.999   7.809   8.926
91037SOL     OW74949  11.462  11.914  14.497
91037SOL    HW174950  11.426  11.836  14.454
91037SOL    HW274951  11.414  11.987  14.459
91038SOL     OW74952   6.830  13.068   0.269
91038SOL    HW174953   6.771  13.141   0.251
91038SOL    HW274954   6.773  12.997   0.298
91039SOL     OW74955  13.877   6.621  14.453
91039SOL    HW174956  13.969   6.621  14.480
91039SOL    HW274957  13.877   6.575  14.369
91040SOL     OW74958   3.559  10.857  11.685
91040SOL    HW174959   3.583  10.948  11.702
91040SOL    HW274960   3.624  10.805  11.732
91041SOL     OW74961   4.679  14.665   8.890
91041SOL    HW174962   4.646  14.749   8.923
91041SOL    HW274963   4.764  14.655   8.933
91042SOL     OW74964   3.440  12.345   6.351
91042SOL    HW174965   3.374  12.411   6.372
91042SOL    HW274966   3.502  12.348   6.423
91043SOL     OW74967  12.104   8.604   7.921
91043SOL    HW174968  12.100   8.587   7.826
91043SOL    HW274969  12.024   8.565   7.955
91044SOL     OW74970   5.059   9.822   8.335
91044SOL    HW174971   4.985   9.797   8.280
91044SOL    HW274972   5.129   9.844   8.273
91045SOL     OW74973   9.630  14.724   2.741
91045SOL    HW174974   9.642  14.655   2.677
91045SOL    HW274975   9.627  14.805   2.689
91046SOL     OW74976   2.352   4.806   8.010
91046SOL    HW174977   2.356   4.710   8.018
91046SOL    HW274978   2.361   4.822   7.916
91047SOL     OW74979   3.131   6.647   5.047
91047SOL    HW174980   3.053   6.663   5.099
91047SOL    HW274981   3.152   6.731   5.007
91048SOL     OW74982  13.268   3.420   0.763
91048SOL    HW174983  13.288   3.378   0.680
91048SOL    HW274984  13.187   3.377   0.792
91049SOL     OW74985   9.072   4.279   8.899
91049SOL    HW174986   9.092   4.191   8.931
91049SOL    HW274987   9.117   4.285   8.814
91050SOL     OW74988   0.722   9.229  13.311
91050SOL    HW174989   0.660   9.261  13.245
91050SOL    HW274990   0.698   9.275  13.391
91051SOL     OW74991   8.060   0.385   9.580
91051SOL    HW174992   8.040   0.475   9.608
91051SOL    HW274993   8.136   0.360   9.633
91052SOL     OW74994  10.940  11.845   2.613
91052SOL    HW174995  10.945  11.888   2.699
91052SOL    HW274996  10.959  11.753   2.632
91053SOL     OW74997   7.958   7.155   7.426
91053SOL    HW174998   7.875   7.186   7.461
91053SOL    HW274999   7.992   7.229   7.376
91054SOL     OW75000  11.389   3.618  11.020
91054SOL    HW175001  11.369   3.706  11.050
91054SOL    HW275002  11.353   3.561  11.088
91055SOL     OW75003   2.866   4.804  14.601
91055SOL    HW175004   2.777   4.838  14.587
91055SOL    HW275005   2.884   4.751  14.524
91056SOL     OW75006   1.573   3.048  10.555
91056SOL    HW175007   1.540   3.052  10.645
91056SOL    HW275008   1.662   3.015  10.563
91057SOL     OW75009   4.668   6.685   1.285
91057SOL    HW175010   4.582   6.712   1.255
91057SOL    HW275011   4.703   6.761   1.331
91058SOL     OW75012   9.665   0.340   0.662
91058SOL    HW175013   9.623   0.406   0.718
91058SOL    HW275014   9.680   0.266   0.720
91059SOL     OW75015   9.953  12.837   4.834
91059SOL    HW175016   9.878  12.822   4.891
91059SOL    HW275017   9.940  12.925   4.800
91060SOL     OW75018   7.356  11.057   4.700
91060SOL    HW175019   7.413  11.052   4.777
91060SOL    HW275020   7.292  11.125   4.722
91061SOL     OW75021  10.950   7.539   7.807
91061SOL    HW175022  10.889   7.515   7.877
91061SOL    HW275023  11.034   7.503   7.835
91062SOL     OW75024   2.549   8.328   0.325
91062SOL    HW175025   2.530   8.278   0.405
91062SOL    HW275026   2.625   8.285   0.287
91063SOL     OW75027  10.799  14.711  11.710
91063SOL    HW175028  10.874  14.712  11.651
91063SOL    HW275029  10.789  14.620  11.736
91064SOL     OW75030   9.472   6.112   6.242
91064SOL    HW175031   9.457   6.195   6.198
91064SOL    HW275032   9.458   6.046   6.175
91065SOL     OW75033   4.873   9.390   0.369
91065SOL    HW175034   4.941   9.383   0.302
91065SOL    HW275035   4.814   9.316   0.352
91066SOL     OW75036   4.213   8.219   8.299
91066SOL    HW175037   4.251   8.166   8.229
91066SOL    HW275038   4.274   8.208   8.372
91067SOL     OW75039   1.458  12.323   8.476
91067SOL    HW175040   1.493  12.247   8.523
91067SOL    HW275041   1.479  12.306   8.384
91068SOL     OW75042   0.879   9.712  11.977
91068SOL    HW175043   0.857   9.751  11.892
91068SOL    HW275044   0.808   9.739  12.035
91069SOL     OW75045  13.592   9.024   0.306
91069SOL    HW175046  13.500   8.996   0.309
91069SOL    HW275047  13.641   8.951   0.343
91070SOL     OW75048   6.182   1.532   4.570
91070SOL    HW175049   6.256   1.486   4.609
91070SOL    HW275050   6.105   1.498   4.616
91071SOL     OW75051   9.164   3.483  12.237
91071SOL    HW175052   9.195   3.514  12.152
91071SOL    HW275053   9.080   3.527  12.250
91072SOL     OW75054   8.026  14.620   3.249
91072SOL    HW175055   8.091  14.612   3.178
91072SOL    HW275056   8.064  14.684   3.309
91073SOL     OW75057  14.320   9.786   8.734
91073SOL    HW175058  14.320   9.709   8.791
91073SOL    HW275059  14.264   9.849   8.779
91074SOL     OW75060   1.135  14.057  14.791
91074SOL    HW175061   1.132  13.973  14.836
91074SOL    HW275062   1.079  14.045  14.714
91075SOL     OW75063   1.554  14.543   1.615
91075SOL    HW175064   1.624  14.537   1.679
91075SOL    HW275065   1.477  14.508   1.659
91076SOL     OW75066  10.501  13.137  12.491
91076SOL    HW175067  10.503  13.041  12.499
91076SOL    HW275068  10.425  13.164  12.543
91077SOL     OW75069   9.970   6.013   0.400
91077SOL    HW175070   9.935   6.085   0.348
91077SOL    HW275071   9.964   5.937   0.342
91078SOL     OW75072   8.051   0.201   0.383
91078SOL    HW175073   8.063   0.133   0.317
91078SOL    HW275074   7.991   0.263   0.342
91079SOL     OW75075  13.155  12.005   4.437
91079SOL    HW175076  13.115  12.039   4.518
91079SOL    HW275077  13.243  11.978   4.464
91080SOL     OW75078  14.554   1.829   5.268
91080SOL    HW175079  14.641   1.828   5.227
91080SOL    HW275080  14.500   1.880   5.208
91081SOL     OW75081  10.497   3.636   9.353
91081SOL    HW175082  10.413   3.602   9.321
91081SOL    HW275083  10.561   3.603   9.290
91082SOL     OW75084  12.850  13.707   7.223
91082SOL    HW175085  12.791  13.781   7.230
91082SOL    HW275086  12.863  13.678   7.313
91083SOL     OW75087  14.238   3.904   3.195
91083SOL    HW175088  14.327   3.877   3.173
91083SOL    HW275089  14.247   3.993   3.229
91084SOL     OW75090   6.243  12.468   2.638
91084SOL    HW175091   6.326  12.446   2.596
91084SOL    HW275092   6.266  12.483   2.730
91085SOL     OW75093   9.119  14.287  10.205
91085SOL    HW175094   9.200  14.338  10.200
91085SOL    HW275095   9.128  14.234  10.284
91086SOL     OW75096  11.362  10.739  11.921
91086SOL    HW175097  11.448  10.698  11.918
91086SOL    HW275098  11.348  10.760  12.013
91087SOL     OW75099   4.233   9.943  11.807
91087SOL    HW175100   4.211   9.860  11.764
91087SOL    HW275101   4.151   9.994  11.804
91088SOL     OW75102   3.320   6.156  12.724
91088SOL    HW175103   3.294   6.198  12.806
91088SOL    HW275104   3.238   6.136  12.680
91089SOL     OW75105   8.505   4.419   3.909
91089SOL    HW175106   8.596   4.396   3.893
91089SOL    HW275107   8.494   4.409   4.004
91090SOL     OW75108   6.318   3.937   8.737
91090SOL    HW175109   6.343   3.892   8.818
91090SOL    HW275110   6.312   3.867   8.672
91091SOL     OW75111   2.099  14.805   1.242
91091SOL    HW175112   2.037  14.814   1.169
91091SOL    HW275113   2.185  14.822   1.204
91092SOL     OW75114   3.574  13.597  11.339
91092SOL    HW175115   3.659  13.628  11.368
91092SOL    HW275116   3.515  13.672  11.353
91093SOL     OW75117   1.083   1.512  14.641
91093SOL    HW175118   1.055   1.570  14.712
91093SOL    HW275119   1.108   1.571  14.570
91094SOL     OW75120   5.707   7.967   7.345
91094SOL    HW175121   5.682   8.059   7.339
91094SOL    HW275122   5.626   7.922   7.370
91095SOL     OW75123   1.637  10.828   0.927
91095SOL    HW175124   1.627  10.771   1.003
91095SOL    HW275125   1.552  10.824   0.882
91096SOL     OW75126   2.457   2.774  14.616
91096SOL    HW175127   2.489   2.848  14.564
91096SOL    HW275128   2.530   2.753  14.674
91097SOL     OW75129  13.478   5.380   2.556
91097SOL    HW175130  13.493   5.361   2.649
91097SOL    HW275131  13.565   5.400   2.521
91098SOL     OW75132  12.553   4.410   8.228
91098SOL    HW175133  12.468   4.386   8.192
91098SOL    HW275134  12.546   4.395   8.322
91099SOL     OW75135  10.437   7.063   8.921
91099SOL    HW175136  10.406   7.004   8.990
91099SOL    HW275137  10.529   7.079   8.942
91100SOL     OW75138  13.894   9.295   3.276
91100SOL    HW175139  13.855   9.333   3.196
91100SOL    HW275140  13.846   9.214   3.289
91101SOL     OW75141  11.785   5.419   9.325
91101SOL    HW175142  11.714   5.454   9.378
91101SOL    HW275143  11.780   5.466   9.242
91102SOL     OW75144   5.324   1.138  12.295
91102SOL    HW175145   5.258   1.100  12.238
91102SOL    HW275146   5.274   1.191  12.358
91103SOL     OW75147  10.437   5.523  13.231
91103SOL    HW175148  10.436   5.434  13.196
91103SOL    HW275149  10.520   5.529  13.278
91104SOL     OW75150  11.020   1.261   1.746
91104SOL    HW175151  11.089   1.278   1.683
91104SOL    HW275152  11.052   1.188   1.798
91105SOL     OW75153  10.132   2.512   4.412
91105SOL    HW175154  10.191   2.505   4.487
91105SOL    HW275155  10.112   2.605   4.405
91106SOL     OW75156   9.432   2.947   2.779
91106SOL    HW175157   9.417   2.855   2.802
91106SOL    HW275158   9.445   2.946   2.684
91107SOL     OW75159  11.232   4.154   1.326
91107SOL    HW175160  11.282   4.113   1.396
91107SOL    HW275161  11.209   4.082   1.267
91108SOL     OW75162   3.712  13.598   9.826
91108SOL    HW175163   3.691  13.509   9.798
91108SOL    HW275164   3.760  13.586   9.908
91109SOL     OW75165  10.246  13.223   5.658
91109SOL    HW175166  10.224  13.132   5.638
91109SOL    HW275167  10.296  13.220   5.739
91110SOL     OW75168  12.521   1.058   8.833
91110SOL    HW175169  12.578   1.010   8.892
91110SOL    HW275170  12.567   1.140   8.816
91111SOL     OW75171   4.245   7.060  14.109
91111SOL    HW175172   4.316   7.112  14.146
91111SOL    HW275173   4.258   6.973  14.146
91112SOL     OW75174   9.221   2.035   7.806
91112SOL    HW175175   9.285   2.030   7.878
91112SOL    HW275176   9.148   1.981   7.835
91113SOL     OW75177  10.736  11.172   1.656
91113SOL    HW175178  10.659  11.175   1.713
91113SOL    HW275179  10.710  11.114   1.584
91114SOL     OW75180  11.210  11.644   9.461
91114SOL    HW175181  11.225  11.565   9.514
91114SOL    HW275182  11.189  11.611   9.374
91115SOL     OW75183  14.048   2.153   5.666
91115SOL    HW175184  14.143   2.139   5.673
91115SOL    HW275185  14.030   2.149   5.573
91116SOL     OW75186   9.338  10.122  11.931
91116SOL    HW175187   9.428  10.123  11.898
91116SOL    HW275188   9.331  10.200  11.985
91117SOL     OW75189  14.572  11.342   8.334
91117SOL    HW175190  14.562  11.419   8.279
91117SOL    HW275191  14.632  11.370   8.404
91118SOL     OW75192   7.042   3.141   4.741
91118SOL    HW175193   6.955   3.152   4.780
91118SOL    HW275194   7.041   3.054   4.703
91119SOL     OW75195   0.943   7.037   7.837
91119SOL    HW175196   0.927   6.947   7.808
91119SOL    HW275197   0.907   7.041   7.925
91120SOL     OW75198   6.458   4.990  12.581
91120SOL    HW175199   6.452   4.940  12.662
91120SOL    HW275200   6.543   4.966  12.544
91121SOL     OW75201   8.985   6.947   3.390
91121SOL    HW175202   8.989   6.960   3.295
91121SOL    HW275203   8.920   7.011   3.420
91122SOL     OW75204   4.189  14.722   0.760
91122SOL    HW175205   4.104  14.680   0.745
91122SOL    HW275206   4.172  14.790   0.825
91123SOL     OW75207   8.389  13.206  13.004
91123SOL    HW175208   8.313  13.247  13.044
91123SOL    HW275209   8.463  13.258  13.034
91124SOL     OW75210  10.212   7.299   6.061
91124SOL    HW175211  10.234   7.297   6.154
91124SOL    HW275212  10.292   7.329   6.018
91125SOL     OW75213  10.638  13.233  12.252
91125SOL    HW175214  10.593  13.198  12.329
91125SOL    HW275215  10.568  13.248  12.188
91126SOL     OW75216   2.639   6.902   8.526
91126SOL    HW175217   2.731   6.877   8.512
91126SOL    HW275218   2.614   6.857   8.607
91127SOL     OW75219   8.187  11.085  10.375
91127SOL    HW175220   8.099  11.047  10.369
91127SOL    HW275221   8.202  11.095  10.469
91128SOL     OW75222   5.912   0.563  10.150
91128SOL    HW175223   5.998   0.604  10.152
91128SOL    HW275224   5.888   0.553  10.242
91129SOL     OW75225   3.641   5.928   6.938
91129SOL    HW175226   3.670   5.887   7.020
91129SOL    HW275227   3.620   6.018   6.963
91130SOL     OW75228   2.589   6.311   1.798
91130SOL    HW175229   2.511   6.290   1.746
91130SOL    HW275230   2.661   6.306   1.735
91131SOL     OW75231  14.616   4.072   6.119
91131SOL    HW175232  14.605   4.056   6.213
91131SOL    HW275233  14.549   4.018   6.077
91132SOL     OW75234   8.597   8.111   1.028
91132SOL    HW175235   8.583   8.206   1.028
91132SOL    HW275236   8.513   8.075   1.057
91133SOL     OW75237   4.890  10.735  11.104
91133SOL    HW175238   4.955  10.781  11.157
91133SOL    HW275239   4.878  10.651  11.148
91134SOL     OW75240  13.557  13.474   6.949
91134SOL    HW175241  13.643  13.459   6.911
91134SOL    HW275242  13.571  13.471   7.044
91135SOL     OW75243   7.504   7.986   1.906
91135SOL    HW175244   7.562   7.999   1.831
91135SOL    HW275245   7.559   8.002   1.982
91136SOL     OW75246  10.102  10.413  10.867
91136SOL    HW175247  10.040  10.356  10.821
91136SOL    HW275248  10.186  10.368  10.858
91137SOL     OW75249   1.785  14.770   2.838
91137SOL    HW175250   1.732  14.847   2.856
91137SOL    HW275251   1.849  14.799   2.773
91138SOL     OW75252  12.597   1.604   7.512
91138SOL    HW175253  12.675   1.659   7.501
91138SOL    HW275254  12.552   1.640   7.588
91139SOL     OW75255  10.256   4.068   9.614
91139SOL    HW175256  10.292   4.087   9.701
91139SOL    HW275257  10.300   4.130   9.556
91140SOL     OW75258  11.932   1.010  10.162
91140SOL    HW175259  11.931   0.919  10.135
91140SOL    HW275260  11.980   1.011  10.244
91141SOL     OW75261   2.366  12.193  13.412
91141SOL    HW175262   2.393  12.127  13.477
91141SOL    HW275263   2.298  12.149  13.361
91142SOL     OW75264   9.474   0.991   2.836
91142SOL    HW175265   9.399   1.048   2.818
91142SOL    HW275266   9.547   1.052   2.848
91143SOL     OW75267   0.775  13.320  10.933
91143SOL    HW175268   0.775  13.258  10.860
91143SOL    HW275269   0.683  13.333  10.955
91144SOL     OW75270  11.319  10.260  12.752
91144SOL    HW175271  11.389  10.256  12.818
91144SOL    HW275272  11.329  10.347  12.712
91145SOL     OW75273   4.067  11.200   9.235
91145SOL    HW175274   4.068  11.189   9.140
91145SOL    HW275275   4.159  11.192   9.261
91146SOL     OW75276   6.212   9.237   3.066
91146SOL    HW175277   6.270   9.193   3.005
91146SOL    HW275278   6.124   9.212   3.039
91147SOL     OW75279   0.101  10.336   4.414
91147SOL    HW175280   0.103  10.387   4.333
91147SOL    HW275281   0.192  10.307   4.426
91148SOL     OW75282  14.496  14.360  14.845
91148SOL    HW175283  14.463  14.317   0.044
91148SOL    HW275284  14.447  14.319  14.773
91149SOL     OW75285   3.807   7.739   6.391
91149SOL    HW175286   3.897   7.763   6.372
91149SOL    HW275287   3.798   7.650   6.356
91150SOL     OW75288   9.332   3.449   7.633
91150SOL    HW175289   9.331   3.456   7.538
91150SOL    HW275290   9.247   3.411   7.656
91151SOL     OW75291   6.469   1.922   7.940
91151SOL    HW175292   6.407   1.853   7.965
91151SOL    HW275293   6.413   1.996   7.914
91152SOL     OW75294  14.134  12.479   1.615
91152SOL    HW175295  14.206  12.439   1.665
91152SOL    HW275296  14.095  12.541   1.676
91153SOL     OW75297  10.557   2.246   3.357
91153SOL    HW175298  10.514   2.286   3.281
91153SOL    HW275299  10.495   2.179   3.387
91154SOL     OW75300   6.560   1.161  13.654
91154SOL    HW175301   6.549   1.201  13.740
91154SOL    HW275302   6.475   1.124  13.633
91155SOL     OW75303  13.964   0.467   6.251
91155SOL    HW175304  14.002   0.423   6.327
91155SOL    HW275305  13.885   0.416   6.231
91156SOL     OW75306  13.289   4.567   8.727
91156SOL    HW175307  13.279   4.477   8.760
91156SOL    HW275308  13.253   4.564   8.639
91157SOL     OW75309   5.839   1.895  11.763
91157SOL    HW175310   5.909   1.887  11.828
91157SOL    HW275311   5.822   1.806  11.735
91158SOL     OW75312   8.264   8.294   2.201
91158SOL    HW175313   8.355   8.274   2.225
91158SOL    HW275314   8.213   8.221   2.236
91159SOL     OW75315   1.721   1.822   2.865
91159SOL    HW175316   1.797   1.879   2.867
91159SOL    HW275317   1.654   1.869   2.916
91160SOL     OW75318   6.441   6.304   1.204
91160SOL    HW175319   6.448   6.391   1.243
91160SOL    HW275320   6.392   6.253   1.268
91161SOL     OW75321   4.553  10.841   0.423
91161SOL    HW175322   4.606  10.908   0.465
91161SOL    HW275323   4.466  10.879   0.417
91162SOL     OW75324   2.829   5.582   4.213
91162SOL    HW175325   2.883   5.599   4.136
91162SOL    HW275326   2.838   5.661   4.266
91163SOL     OW75327   6.830   6.294   1.476
91163SOL    HW175328   6.804   6.351   1.548
91163SOL    HW275329   6.818   6.347   1.397
91164SOL     OW75330  12.633  11.864  11.432
91164SOL    HW175331  12.694  11.925  11.392
91164SOL    HW275332  12.584  11.828  11.358
91165SOL     OW75333  13.188   8.814   5.212
91165SOL    HW175334  13.187   8.864   5.294
91165SOL    HW275335  13.227   8.730   5.237
91166SOL     OW75336   0.308   3.609   4.090
91166SOL    HW175337   0.374   3.558   4.043
91166SOL    HW275338   0.256   3.650   4.021
91167SOL     OW75339   5.071  11.224   9.856
91167SOL    HW175340   5.121  11.201   9.934
91167SOL    HW275341   5.128  11.200   9.783
91168SOL     OW75342  10.547   8.928  12.589
91168SOL    HW175343  10.595   8.891  12.515
91168SOL    HW275344  10.615   8.956  12.651
91169SOL     OW75345   4.589  12.169  14.806
91169SOL    HW175346   4.528  12.235  14.840
91169SOL    HW275347   4.675  12.206  14.823
91170SOL     OW75348  13.657   2.315  14.769
91170SOL    HW175349  13.663   2.238  14.713
91170SOL    HW275350  13.589   2.294  14.833
91171SOL     OW75351   1.467  13.471   6.235
91171SOL    HW175352   1.458  13.561   6.206
91171SOL    HW275353   1.431  13.418   6.164
91172SOL     OW75354  14.013   7.864   9.004
91172SOL    HW175355  13.917   7.866   9.011
91172SOL    HW275356  14.031   7.805   8.931
91173SOL     OW75357  13.357   0.122   0.350
91173SOL    HW175358  13.451   0.128   0.330
91173SOL    HW275359  13.354   0.094   0.441
91174SOL     OW75360   0.350  10.318   5.135
91174SOL    HW175361   0.334  10.370   5.213
91174SOL    HW275362   0.267  10.273   5.119
91175SOL     OW75363   0.774   8.115   9.769
91175SOL    HW175364   0.784   8.202   9.730
91175SOL    HW275365   0.839   8.113   9.839
91176SOL     OW75366  13.365  12.192   9.351
91176SOL    HW175367  13.378  12.137   9.273
91176SOL    HW275368  13.390  12.280   9.322
91177SOL     OW75369  11.809   0.931   1.667
91177SOL    HW175370  11.883   0.913   1.609
91177SOL    HW275371  11.791   1.024   1.656
91178SOL     OW75372   9.607  14.415   9.177
91178SOL    HW175373   9.686  14.402   9.229
91178SOL    HW275374   9.594  14.510   9.176
91179SOL     OW75375   3.737  14.643  11.056
91179SOL    HW175376   3.814  14.682  11.014
91179SOL    HW275377   3.682  14.614  10.984
91180SOL     OW75378  12.175   8.008   7.201
91180SOL    HW175379  12.121   8.081   7.231
91180SOL    HW275380  12.131   7.930   7.237
91181SOL     OW75381  12.253  11.774  11.014
91181SOL    HW175382  12.306  11.854  11.016
91181SOL    HW275383  12.268  11.734  11.100
91182SOL     OW75384  14.290  11.494   4.037
91182SOL    HW175385  14.331  11.551   4.102
91182SOL    HW275386  14.204  11.533   4.021
91183SOL     OW75387   5.088   1.152  11.841
91183SOL    HW175388   5.041   1.083  11.794
91183SOL    HW275389   5.180   1.136  11.821
91184SOL     OW75390   3.842   5.122   1.778
91184SOL    HW175391   3.843   5.213   1.748
91184SOL    HW275392   3.750   5.105   1.800
91185SOL     OW75393   5.311  13.003   5.200
91185SOL    HW175394   5.254  13.077   5.178
91185SOL    HW275395   5.397  13.043   5.213
91186SOL     OW75396   4.967   8.805   3.109
91186SOL    HW175397   4.873   8.822   3.108
91186SOL    HW275398   5.004   8.877   3.158
91187SOL     OW75399   2.855   7.812  12.211
91187SOL    HW175400   2.930   7.758  12.185
91187SOL    HW275401   2.781   7.773  12.164
91188SOL     OW75402   9.999  14.149  12.128
91188SOL    HW175403  10.074  14.207  12.115
91188SOL    HW275404  10.035  14.061  12.122
91189SOL     OW75405   8.278   1.955  11.366
91189SOL    HW175406   8.308   1.979  11.277
91189SOL    HW275407   8.352   1.907  11.403
91190SOL     OW75408   3.796  10.746   7.567
91190SOL    HW175409   3.742  10.752   7.645
91190SOL    HW275410   3.801  10.652   7.548
91191SOL     OW75411  11.340   3.837  13.823
91191SOL    HW175412  11.320   3.861  13.913
91191SOL    HW275413  11.318   3.744  13.817
91192SOL     OW75414  12.879   7.089   7.584
91192SOL    HW175415  12.786   7.109   7.594
91192SOL    HW275416  12.886   7.044   7.500
91193SOL     OW75417   5.949  12.982   7.830
91193SOL    HW175418   5.967  13.006   7.739
91193SOL    HW275419   5.861  12.945   7.829
91194SOL     OW75420  10.863   8.542   5.474
91194SOL    HW175421  10.958   8.537   5.463
91194SOL    HW275422  10.842   8.469   5.532
91195SOL     OW75423  12.326  10.249   1.493
91195SOL    HW175424  12.380  10.325   1.474
91195SOL    HW275425  12.239  10.272   1.461
91196SOL     OW75426   1.316   8.512   0.043
91196SOL    HW175427   1.399   8.486   0.003
91196SOL    HW275428   1.315   8.466   0.127
91197SOL     OW75429   6.999   4.250   7.780
91197SOL    HW175430   6.934   4.198   7.732
91197SOL    HW275431   7.042   4.186   7.836
91198SOL     OW75432  11.660   0.991   6.951
91198SOL    HW175433  11.684   1.083   6.964
91198SOL    HW275434  11.709   0.943   7.018
91199SOL     OW75435  10.591   1.381   1.499
91199SOL    HW175436  10.545   1.463   1.519
91199SOL    HW275437  10.643   1.364   1.577
91200SOL     OW75438   2.905   2.114   9.003
91200SOL    HW175439   2.972   2.178   9.026
91200SOL    HW275440   2.839   2.165   8.956
91201SOL     OW75441   2.369   8.887  13.831
91201SOL    HW175442   2.373   8.795  13.855
91201SOL    HW275443   2.339   8.887  13.740
91202SOL     OW75444   9.059   5.242   1.871
91202SOL    HW175445   9.071   5.183   1.797
91202SOL    HW275446   8.976   5.287   1.853
91203SOL     OW75447   4.039   8.351  13.869
91203SOL    HW175448   4.046   8.257  13.851
91203SOL    HW275449   3.986   8.385  13.797
91204SOL     OW75450  11.416   3.107   3.635
91204SOL    HW175451  11.387   3.124   3.725
91204SOL    HW275452  11.407   3.192   3.591
91205SOL     OW75453   1.151  14.639  11.974
91205SOL    HW175454   1.086  14.687  12.026
91205SOL    HW275455   1.151  14.551  12.012
91206SOL     OW75456   7.672   1.443   4.227
91206SOL    HW175457   7.764   1.432   4.254
91206SOL    HW275458   7.622   1.429   4.308
91207SOL     OW75459   0.512   4.959  10.457
91207SOL    HW175460   0.605   4.938  10.450
91207SOL    HW275461   0.492   5.007  10.377
91208SOL     OW75462  11.753   4.582   9.138
91208SOL    HW175463  11.814   4.539   9.199
91208SOL    HW275464  11.667   4.548   9.162
91209SOL     OW75465  10.567   5.208  11.649
91209SOL    HW175466  10.473   5.188  11.654
91209SOL    HW275467  10.574   5.274  11.580
91210SOL     OW75468  10.597  14.268  11.287
91210SOL    HW175469  10.641  14.195  11.332
91210SOL    HW275470  10.644  14.276  11.204
91211SOL     OW75471  12.818  10.929   5.145
91211SOL    HW175472  12.774  10.988   5.206
91211SOL    HW275473  12.746  10.889   5.096
91212SOL     OW75474   1.363   9.358   5.162
91212SOL    HW175475   1.322   9.280   5.198
91212SOL    HW275476   1.323   9.431   5.210
91213SOL     OW75477   0.210  10.603   1.802
91213SOL    HW175478   0.229  10.534   1.739
91213SOL    HW275479   0.139  10.567   1.856
91214SOL     OW75480   4.397  13.895   4.033
91214SOL    HW175481   4.492  13.881   4.036
91214SOL    HW275482   4.378  13.945   4.113
91215SOL     OW75483  13.098   3.301  12.112
91215SOL    HW175484  13.084   3.393  12.088
91215SOL    HW275485  13.123   3.259  12.029
91216SOL     OW75486  14.665   8.643   6.932
91216SOL    HW175487  14.587   8.668   6.883
91216SOL    HW275488  14.671   8.548   6.921
91217SOL     OW75489   4.423  12.527  13.155
91217SOL    HW175490   4.415  12.598  13.091
91217SOL    HW275491   4.490  12.557  13.216
91218SOL     OW75492   1.333  12.958   8.655
91218SOL    HW175493   1.323  13.051   8.633
91218SOL    HW275494   1.256  12.938   8.707
91219SOL     OW75495   5.871   8.616   4.399
91219SOL    HW175496   5.856   8.585   4.310
91219SOL    HW275497   5.818   8.696   4.405
91220SOL     OW75498  13.648   6.145   3.416
91220SOL    HW175499  13.601   6.067   3.389
91220SOL    HW275500  13.734   6.113   3.444
91221SOL     OW75501  11.106  11.311  10.250
91221SOL    HW175502  11.140  11.400  10.242
91221SOL    HW275503  11.049  11.314  10.327
91222SOL     OW75504   3.077  12.141   2.541
91222SOL    HW175505   3.144  12.209   2.551
91222SOL    HW275506   3.053  12.118   2.631
91223SOL     OW75507   2.408  14.624   9.064
91223SOL    HW175508   2.357  14.705   9.070
91223SOL    HW275509   2.354  14.565   9.011
91224SOL     OW75510  12.381   4.852   8.698
91224SOL    HW175511  12.343   4.779   8.648
91224SOL    HW275512  12.321   4.925   8.684
91225SOL     OW75513   2.023   9.552  14.301
91225SOL    HW175514   2.056   9.507  14.223
91225SOL    HW275515   1.979   9.483  14.351
91226SOL     OW75516   8.643   6.794  10.019
91226SOL    HW175517   8.667   6.718   9.967
91226SOL    HW275518   8.704   6.794  10.093
91227SOL     OW75519   6.760  14.327  10.462
91227SOL    HW175520   6.810  14.284  10.531
91227SOL    HW275521   6.825  14.366  10.404
91228SOL     OW75522  12.271   0.384  11.394
91228SOL    HW175523  12.341   0.320  11.385
91228SOL    HW275524  12.316   0.468  11.404
91229SOL     OW75525   4.639   2.351  10.698
91229SOL    HW175526   4.593   2.286  10.645
91229SOL    HW275527   4.610   2.436  10.664
91230SOL     OW75528   6.487   5.247   4.743
91230SOL    HW175529   6.574   5.208   4.752
91230SOL    HW275530   6.457   5.261   4.832
91231SOL     OW75531   0.956   9.547   9.507
91231SOL    HW175532   0.869   9.528   9.472
91231SOL    HW275533   1.010   9.564   9.430
91232SOL     OW75534   9.575   7.285   4.175
91232SOL    HW175535   9.541   7.369   4.207
91232SOL    HW275536   9.498   7.235   4.150
91233SOL     OW75537   2.546   3.603   2.327
91233SOL    HW175538   2.638   3.621   2.308
91233SOL    HW275539   2.546   3.511   2.356
91234SOL     OW75540  12.370   6.352   5.007
91234SOL    HW175541  12.455   6.382   4.973
91234SOL    HW275542  12.339   6.424   5.061
91235SOL     OW75543   1.111   6.051   7.717
91235SOL    HW175544   1.178   6.051   7.648
91235SOL    HW275545   1.115   6.139   7.754
91236SOL     OW75546  11.663   1.716  10.720
91236SOL    HW175547  11.723   1.706  10.646
91236SOL    HW275548  11.581   1.677  10.688
91237SOL     OW75549   5.061   3.843  10.855
91237SOL    HW175550   5.026   3.919  10.902
91237SOL    HW275551   5.110   3.795  10.922
91238SOL     OW75552  14.128   5.239   0.850
91238SOL    HW175553  14.163   5.154   0.878
91238SOL    HW275554  14.108   5.228   0.758
91239SOL     OW75555   2.743   3.965   0.263
91239SOL    HW175556   2.744   4.059   0.246
91239SOL    HW275557   2.758   3.957   0.357
91240SOL     OW75558  10.992  10.642   9.085
91240SOL    HW175559  11.085  10.632   9.103
91240SOL    HW275560  10.959  10.552   9.079
91241SOL     OW75561  12.652   1.203   9.638
91241SOL    HW175562  12.616   1.136   9.579
91241SOL    HW275563  12.602   1.282   9.617
91242SOL     OW75564   6.567   0.011   4.425
91242SOL    HW175565   6.585   0.105   4.420
91242SOL    HW275566   6.591  14.857   4.338
91243SOL     OW75567  10.082   7.523   2.973
91243SOL    HW175568  10.006   7.477   3.008
91243SOL    HW275569  10.065   7.616   2.990
91244SOL     OW75570   3.949  11.602   7.417
91244SOL    HW175571   3.931  11.527   7.359
91244SOL    HW275572   4.005  11.659   7.366
91245SOL     OW75573  12.590  14.707   0.697
91245SOL    HW175574  12.558  14.625   0.736
91245SOL    HW275575  12.537  14.718   0.618
91246SOL     OW75576  10.188   7.581   9.663
91246SOL    HW175577  10.264   7.638   9.671
91246SOL    HW275578  10.125   7.614   9.727
91247SOL     OW75579   8.902   5.435   6.563
91247SOL    HW175580   8.962   5.454   6.491
91247SOL    HW275581   8.850   5.515   6.574
91248SOL     OW75582   6.759   9.536   0.957
91248SOL    HW175583   6.789   9.490   0.879
91248SOL    HW275584   6.819   9.507   1.026
91249SOL     OW75585   9.644   1.797   8.780
91249SOL    HW175586   9.554   1.824   8.764
91249SOL    HW275587   9.636   1.717   8.832
91250SOL     OW75588  11.205  10.421   9.671
91250SOL    HW175589  11.176  10.494   9.725
91250SOL    HW275590  11.150  10.347   9.698
91251SOL     OW75591   8.639   3.321  13.309
91251SOL    HW175592   8.573   3.276  13.361
91251SOL    HW275593   8.626   3.414  13.328
91252SOL     OW75594   7.533   1.423   3.201
91252SOL    HW175595   7.607   1.482   3.183
91252SOL    HW275596   7.487   1.463   3.274
91253SOL     OW75597   3.475  12.827  14.024
91253SOL    HW175598   3.569  12.838  14.007
91253SOL    HW275599   3.443  12.774  13.952
91254SOL     OW75600   9.949   7.588   8.801
91254SOL    HW175601   9.889   7.521   8.769
91254SOL    HW275602  10.006   7.543   8.863
91255SOL     OW75603   4.964   7.045  11.626
91255SOL    HW175604   4.913   7.054  11.707
91255SOL    HW275605   4.900   7.025  11.558
91256SOL     OW75606  14.428  10.463  10.848
91256SOL    HW175607  14.434  10.483  10.941
91256SOL    HW275608  14.408  10.547  10.807
91257SOL     OW75609  11.701   3.571  12.170
91257SOL    HW175610  11.654   3.608  12.244
91257SOL    HW275611  11.740   3.646  12.126
91258SOL     OW75612   7.763  10.366  12.715
91258SOL    HW175613   7.682  10.417  12.706
91258SOL    HW275614   7.789  10.346  12.625
91259SOL     OW75615  11.445  13.940   4.026
91259SOL    HW175616  11.402  13.934   3.940
91259SOL    HW275617  11.419  14.026   4.060
91260SOL     OW75618   4.284  14.873  11.617
91260SOL    HW175619   4.197  14.866  11.577
91260SOL    HW275620   4.331   0.056  11.562
91261SOL     OW75621  13.433   2.665   2.241
91261SOL    HW175622  13.349   2.706   2.226
91261SOL    HW275623  13.420   2.573   2.217
91262SOL     OW75624  10.348   1.338   1.992
91262SOL    HW175625  10.430   1.320   2.039
91262SOL    HW275626  10.302   1.401   2.047
91263SOL     OW75627   8.693   3.930   4.901
91263SOL    HW175628   8.786   3.906   4.905
91263SOL    HW275629   8.675   3.967   4.988
91264SOL     OW75630  11.637  11.386  12.863
91264SOL    HW175631  11.609  11.409  12.775
91264SOL    HW275632  11.641  11.290  12.862
91265SOL     OW75633   9.817   6.822  12.759
91265SOL    HW175634   9.785   6.906  12.792
91265SOL    HW275635   9.897   6.805  12.809
91266SOL     OW75636   5.630   8.116  13.523
91266SOL    HW175637   5.602   8.099  13.433
91266SOL    HW275638   5.607   8.035  13.571
91267SOL     OW75639   6.781   1.659   4.720
91267SOL    HW175640   6.867   1.656   4.679
91267SOL    HW275641   6.797   1.636   4.811
91268SOL     OW75642  11.774   5.243   2.957
91268SOL    HW175643  11.795   5.200   2.875
91268SOL    HW275644  11.778   5.337   2.937
91269SOL     OW75645   1.192  11.709   8.819
91269SOL    HW175646   1.280  11.719   8.783
91269SOL    HW275647   1.144  11.784   8.785
91270SOL     OW75648  11.008   6.271   9.770
91270SOL    HW175649  10.930   6.249   9.720
91270SOL    HW275650  10.997   6.224   9.853
91271SOL     OW75651   7.412   7.948   9.117
91271SOL    HW175652   7.342   7.946   9.051
91271SOL    HW275653   7.383   7.888   9.185
91272SOL     OW75654  13.188   7.097  14.349
91272SOL    HW175655  13.099   7.094  14.314
91272SOL    HW275656  13.208   7.190  14.357
91273SOL     OW75657   7.909   3.829  14.114
91273SOL    HW175658   7.902   3.872  14.028
91273SOL    HW275659   7.841   3.762  14.112
91274SOL     OW75660   7.175   6.405   1.227
91274SOL    HW175661   7.208   6.380   1.140
91274SOL    HW275662   7.247   6.383   1.286
91275SOL     OW75663   3.503  10.788  10.394
91275SOL    HW175664   3.512  10.702  10.436
91275SOL    HW275665   3.578  10.838  10.426
91276SOL     OW75666  14.876  13.516   9.594
91276SOL    HW175667   0.023  13.605   9.620
91276SOL    HW275668   0.072  13.482   9.546
91277SOL     OW75669   3.035   6.253   7.132
91277SOL    HW175670   3.030   6.212   7.218
91277SOL    HW275671   2.944   6.260   7.103
91278SOL     OW75672   9.105  10.760  14.500
91278SOL    HW175673   9.159  10.764  14.421
91278SOL    HW275674   9.135  10.833  14.553
91279SOL     OW75675   9.621  14.641   8.545
91279SOL    HW175676   9.601  14.590   8.624
91279SOL    HW275677   9.691  14.592   8.503
91280SOL     OW75678   2.505   0.674   6.662
91280SOL    HW175679   2.554   0.746   6.623
91280SOL    HW275680   2.423   0.715   6.692
91281SOL     OW75681  11.529  12.810   7.612
91281SOL    HW175682  11.545  12.819   7.706
91281SOL    HW275683  11.434  12.811   7.603
91282SOL     OW75684   7.538  12.425   1.987
91282SOL    HW175685   7.470  12.375   1.941
91282SOL    HW275686   7.603  12.360   2.012
91283SOL     OW75687   2.904  10.854  13.034
91283SOL    HW175688   2.883  10.885  13.122
91283SOL    HW275689   2.842  10.782  13.019
91284SOL     OW75690  10.048   8.369  13.256
91284SOL    HW175691  10.038   8.459  13.224
91284SOL    HW275692  10.075   8.318  13.180
91285SOL     OW75693   5.888   5.707   0.079
91285SOL    HW175694   5.891   5.774   0.012
91285SOL    HW275695   5.799   5.711   0.114
91286SOL     OW75696  14.101   7.349   2.652
91286SOL    HW175697  14.155   7.271   2.637
91286SOL    HW275698  14.118   7.404   2.575
91287SOL     OW75699   3.889  12.786   7.696
91287SOL    HW175700   3.842  12.709   7.728
91287SOL    HW275701   3.978  12.755   7.680
91288SOL     OW75702  10.725   3.439   4.438
91288SOL    HW175703  10.690   3.373   4.497
91288SOL    HW275704  10.665   3.440   4.363
91289SOL     OW75705   6.669  12.708  10.096
91289SOL    HW175706   6.723  12.723  10.174
91289SOL    HW275707   6.733  12.695  10.026
91290SOL     OW75708   2.522  14.589   2.507
91290SOL    HW175709   2.578  14.518   2.475
91290SOL    HW275710   2.566  14.620   2.586
91291SOL     OW75711   4.148  10.083   4.828
91291SOL    HW175712   4.150   9.997   4.871
91291SOL    HW275713   4.061  10.088   4.789
91292SOL     OW75714   1.873   7.758  12.101
91292SOL    HW175715   1.890   7.717  12.016
91292SOL    HW275716   1.918   7.703  12.164
91293SOL     OW75717  12.373  13.041   3.356
91293SOL    HW175718  12.424  13.096   3.416
91293SOL    HW275719  12.439  12.986   3.312
91294SOL     OW75720   6.132   7.305   2.063
91294SOL    HW175721   6.049   7.338   2.028
91294SOL    HW275722   6.135   7.339   2.153
91295SOL     OW75723   9.998   8.954  13.484
91295SOL    HW175724  10.056   8.888  13.447
91295SOL    HW275725  10.022   9.035  13.439
91296SOL     OW75726  13.245   4.339   4.506
91296SOL    HW175727  13.230   4.314   4.597
91296SOL    HW275728  13.157   4.338   4.467
91297SOL     OW75729  12.018   4.653   8.431
91297SOL    HW175730  12.002   4.561   8.409
91297SOL    HW275731  11.948   4.701   8.387
91298SOL     OW75732   7.321   3.874   7.841
91298SOL    HW175733   7.335   3.941   7.908
91298SOL    HW275734   7.393   3.812   7.854
91299SOL     OW75735  14.483  11.000   9.317
91299SOL    HW175736  14.470  10.925   9.258
91299SOL    HW275737  14.511  10.961   9.399
91300SOL     OW75738   2.562   5.691   8.464
91300SOL    HW175739   2.480   5.673   8.510
91300SOL    HW275740   2.545   5.666   8.373
91301SOL     OW75741   5.287   5.738   0.505
91301SOL    HW175742   5.365   5.771   0.550
91301SOL    HW275743   5.292   5.777   0.418
91302SOL     OW75744   6.375  14.776  10.488
91302SOL    HW175745   6.295  14.743  10.528
91302SOL    HW275746   6.388  14.720  10.411
91303SOL     OW75747   0.678   5.696  11.406
91303SOL    HW175748   0.689   5.681  11.500
91303SOL    HW275749   0.583   5.695  11.393
91304SOL     OW75750   8.329   4.614   5.577
91304SOL    HW175751   8.374   4.627   5.661
91304SOL    HW275752   8.268   4.687   5.570
91305SOL     OW75753   6.088   0.964  12.016
91305SOL    HW175754   6.108   1.006  11.932
91305SOL    HW275755   6.107   1.031  12.081
91306SOL     OW75756   4.542   9.040  12.122
91306SOL    HW175757   4.630   9.039  12.160
91306SOL    HW275758   4.526   9.133  12.103
91307SOL     OW75759  11.155   8.247   5.494
91307SOL    HW175760  11.099   8.208   5.427
91307SOL    HW275761  11.127   8.206   5.576
91308SOL     OW75762  13.315   1.746   5.973
91308SOL    HW175763  13.350   1.822   6.019
91308SOL    HW275764  13.224   1.770   5.953
91309SOL     OW75765   5.808   4.209  13.711
91309SOL    HW175766   5.808   4.303  13.695
91309SOL    HW275767   5.894   4.191  13.750
91310SOL     OW75768   9.475  10.059   5.828
91310SOL    HW175769   9.488   9.995   5.758
91310SOL    HW275770   9.499  10.012   5.908
91311SOL     OW75771   5.527   0.404   7.212
91311SOL    HW175772   5.604   0.408   7.268
91311SOL    HW275773   5.531   0.483   7.158
91312SOL     OW75774   4.824   0.101  10.023
91312SOL    HW175775   4.823   0.057   9.938
91312SOL    HW275776   4.857   0.034  10.083
91313SOL     OW75777   6.177  13.405   8.811
91313SOL    HW175778   6.238  13.334   8.789
91313SOL    HW275779   6.133  13.424   8.728
91314SOL     OW75780  13.790   5.570   9.336
91314SOL    HW175781  13.770   5.657   9.372
91314SOL    HW275782  13.818   5.519   9.412
91315SOL     OW75783   3.544  13.988   3.925
91315SOL    HW175784   3.508  14.071   3.894
91315SOL    HW275785   3.553  13.999   4.020
91316SOL     OW75786  10.215   7.238   8.908
91316SOL    HW175787  10.305   7.207   8.915
91316SOL    HW275788  10.216   7.296   8.831
91317SOL     OW75789   7.046   5.754   0.513
91317SOL    HW175790   7.013   5.694   0.580
91317SOL    HW275791   7.096   5.698   0.453
91318SOL     OW75792   8.149   6.823  10.794
91318SOL    HW175793   8.055   6.820  10.782
91318SOL    HW275794   8.172   6.915  10.788
91319SOL     OW75795   2.475  13.764   2.006
91319SOL    HW175796   2.493  13.670   2.004
91319SOL    HW275797   2.383  13.771   2.030
91320SOL     OW75798  14.535   5.152   8.433
91320SOL    HW175799  14.626   5.152   8.464
91320SOL    HW275800  14.530   5.077   8.373
91321SOL     OW75801  12.521   3.180   0.506
91321SOL    HW175802  12.439   3.178   0.555
91321SOL    HW275803  12.585   3.138   0.564
91322SOL     OW75804   4.125   9.252   2.399
91322SOL    HW175805   4.193   9.317   2.379
91322SOL    HW275806   4.137   9.233   2.492
91323SOL     OW75807  12.534   2.812   0.886
91323SOL    HW175808  12.626   2.786   0.891
91323SOL    HW275809  12.488   2.733   0.861
91324SOL     OW75810   8.087  11.979  13.535
91324SOL    HW175811   8.128  11.968  13.621
91324SOL    HW275812   7.998  12.006  13.554
91325SOL     OW75813  12.834   0.673  10.816
91325SOL    HW175814  12.804   0.692  10.727
91325SOL    HW275815  12.929   0.663  10.807
91326SOL     OW75816   2.659   1.829  12.246
91326SOL    HW175817   2.653   1.873  12.161
91326SOL    HW275818   2.579   1.854  12.292
91327SOL     OW75819   9.814   3.462   4.585
91327SOL    HW175820   9.805   3.418   4.670
91327SOL    HW275821   9.905   3.490   4.582
91328SOL     OW75822   8.379   2.680   4.148
91328SOL    HW175823   8.341   2.764   4.119
91328SOL    HW275824   8.473   2.694   4.145
91329SOL     OW75825   0.269   2.896   8.449
91329SOL    HW175826   0.209   2.966   8.474
91329SOL    HW275827   0.327   2.937   8.384
91330SOL     OW75828   5.764   4.078   0.870
91330SOL    HW175829   5.671   4.101   0.873
91330SOL    HW275830   5.786   4.055   0.960
91331SOL     OW75831   4.708   9.464   9.335
91331SOL    HW175832   4.697   9.407   9.411
91331SOL    HW275833   4.794   9.504   9.348
91332SOL     OW75834   1.094   6.413   1.966
91332SOL    HW175835   1.153   6.371   2.029
91332SOL    HW275836   1.076   6.345   1.901
91333SOL     OW75837   0.933  10.238  13.098
91333SOL    HW175838   0.953  10.254  13.005
91333SOL    HW275839   0.871  10.307  13.121
91334SOL     OW75840   9.988   6.286  10.854
91334SOL    HW175841   9.993   6.217  10.920
91334SOL    HW275842   9.996   6.240  10.770
91335SOL     OW75843   1.327  10.071  13.423
91335SOL    HW175844   1.279   9.998  13.462
91335SOL    HW275845   1.266  10.108  13.359
91336SOL     OW75846   7.925  10.965   2.232
91336SOL    HW175847   7.840  10.921   2.231
91336SOL    HW275848   7.906  11.054   2.200
91337SOL     OW75849   9.418   7.268   0.165
91337SOL    HW175850   9.452   7.198   0.222
91337SOL    HW275851   9.324   7.268   0.181
91338SOL     OW75852   6.837   0.349   5.447
91338SOL    HW175853   6.760   0.297   5.470
91338SOL    HW275854   6.865   0.314   5.363
91339SOL     OW75855  14.019   1.089   5.812
91339SOL    HW175856  13.982   1.029   5.748
91339SOL    HW275857  13.945   1.112   5.870
91340SOL     OW75858   5.511   7.890   3.605
91340SOL    HW175859   5.476   7.857   3.687
91340SOL    HW275860   5.527   7.812   3.552
91341SOL     OW75861   8.471   5.934  13.329
91341SOL    HW175862   8.387   5.973  13.355
91341SOL    HW275863   8.496   5.982  13.250
91342SOL     OW75864   5.788   2.576  12.922
91342SOL    HW175865   5.834   2.635  12.981
91342SOL    HW275866   5.844   2.499  12.916
91343SOL     OW75867   1.453   2.991   1.242
91343SOL    HW175868   1.415   3.077   1.258
91343SOL    HW275869   1.537   2.992   1.287
91344SOL     OW75870   3.151   2.928   2.201
91344SOL    HW175871   3.176   2.930   2.108
91344SOL    HW275872   3.186   3.009   2.237
91345SOL     OW75873   3.851  13.978   1.669
91345SOL    HW175874   3.886  13.903   1.717
91345SOL    HW275875   3.763  13.951   1.642
91346SOL     OW75876   4.349  13.000   7.891
91346SOL    HW175877   4.331  13.089   7.923
91346SOL    HW275878   4.322  13.003   7.799
91347SOL     OW75879   5.916   9.374   1.694
91347SOL    HW175880   5.898   9.295   1.642
91347SOL    HW275881   5.890   9.350   1.784
91348SOL     OW75882  13.750   0.818  10.170
91348SOL    HW175883  13.791   0.883  10.228
91348SOL    HW275884  13.714   0.869  10.098
91349SOL     OW75885   8.740   6.710   4.596
91349SOL    HW175886   8.714   6.714   4.504
91349SOL    HW275887   8.765   6.800   4.617
91350SOL     OW75888   1.736   0.147   7.104
91350SOL    HW175889   1.825   0.178   7.089
91350SOL    HW275890   1.680   0.214   7.064
91351SOL     OW75891  14.240  11.496   4.623
91351SOL    HW175892  14.204  11.410   4.603
91351SOL    HW275893  14.270  11.490   4.714
91352SOL     OW75894   9.497   5.473  13.671
91352SOL    HW175895   9.480   5.546  13.731
91352SOL    HW275896   9.416   5.422  13.673
91353SOL     OW75897   9.481  10.361   4.242
91353SOL    HW175898   9.416  10.329   4.180
91353SOL    HW275899   9.540  10.287   4.255
91354SOL     OW75900   9.196   2.892   4.226
91354SOL    HW175901   9.221   2.984   4.236
91354SOL    HW275902   9.175   2.883   4.133
91355SOL     OW75903   2.074   4.935   5.523
91355SOL    HW175904   1.983   4.905   5.512
91355SOL    HW275905   2.127   4.860   5.494
91356SOL     OW75906  12.492   3.875  12.879
91356SOL    HW175907  12.573   3.832  12.906
91356SOL    HW275908  12.465   3.828  12.799
91357SOL     OW75909   7.071   1.457  12.955
91357SOL    HW175910   7.011   1.501  13.016
91357SOL    HW275911   7.019   1.385  12.919
91358SOL     OW75912   0.579   3.140   1.512
91358SOL    HW175913   0.630   3.167   1.588
91358SOL    HW275914   0.495   3.184   1.523
91359SOL     OW75915   9.356  11.545  13.914
91359SOL    HW175916   9.269  11.542  13.953
91359SOL    HW275917   9.368  11.637  13.890
91360SOL     OW75918   0.920   5.911  12.096
91360SOL    HW175919   1.011   5.886  12.083
91360SOL    HW275920   0.893   5.865  12.175
91361SOL     OW75921   2.911   0.338   9.260
91361SOL    HW175922   2.862   0.262   9.228
91361SOL    HW275923   2.879   0.411   9.206
91362SOL     OW75924   1.652   5.099   5.657
91362SOL    HW175925   1.717   5.039   5.620
91362SOL    HW275926   1.597   5.044   5.712
91363SOL     OW75927   1.983   5.725   0.713
91363SOL    HW175928   1.993   5.657   0.646
91363SOL    HW275929   2.027   5.801   0.676
91364SOL     OW75930   1.079   6.137   0.921
91364SOL    HW175931   1.158   6.131   0.973
91364SOL    HW275932   1.109   6.122   0.831
91365SOL     OW75933   8.114  11.952  10.911
91365SOL    HW175934   8.045  12.018  10.901
91365SOL    HW275935   8.076  11.871  10.876
91366SOL     OW75936   0.493   6.781  13.465
91366SOL    HW175937   0.553   6.707  13.470
91366SOL    HW275938   0.489   6.815  13.555
91367SOL     OW75939   6.829   6.423   5.133
91367SOL    HW175940   6.763   6.440   5.200
91367SOL    HW275941   6.778   6.402   5.055
91368SOL     OW75942   6.106   4.962  14.590
91368SOL    HW175943   6.103   5.058  14.589
91368SOL    HW275944   6.128   4.940  14.680
91369SOL     OW75945   4.407  11.522   8.963
91369SOL    HW175946   4.482  11.462   8.960
91369SOL    HW275947   4.339  11.473   9.010
91370SOL     OW75948   4.665   8.087   9.024
91370SOL    HW175949   4.596   8.134   8.977
91370SOL    HW275950   4.745   8.137   9.004
91371SOL     OW75951   5.855   9.233  10.343
91371SOL    HW175952   5.883   9.161  10.286
91371SOL    HW275953   5.761   9.241  10.327
91372SOL     OW75954   1.847   0.212   2.818
91372SOL    HW175955   1.762   0.169   2.816
91372SOL    HW275956   1.908   0.145   2.787
91373SOL     OW75957  10.733   6.394   9.422
91373SOL    HW175958  10.780   6.310   9.426
91373SOL    HW275959  10.643   6.369   9.400
91374SOL     OW75960   0.220   7.176   7.978
91374SOL    HW175961   0.150   7.242   7.985
91374SOL    HW275962   0.301   7.228   7.975
91375SOL     OW75963   6.316   3.528   4.889
91375SOL    HW175964   6.305   3.597   4.823
91375SOL    HW275965   6.411   3.518   4.899
91376SOL     OW75966   3.038  14.246  12.202
91376SOL    HW175967   2.971  14.312  12.184
91376SOL    HW275968   3.113  14.296  12.236
91377SOL     OW75969   5.745   4.147   8.343
91377SOL    HW175970   5.815   4.167   8.405
91377SOL    HW275971   5.739   4.051   8.345
91378SOL     OW75972  13.167   6.042   0.574
91378SOL    HW175973  13.099   5.993   0.621
91378SOL    HW275974  13.182   5.991   0.495
91379SOL     OW75975  13.979  10.884  10.139
91379SOL    HW175976  13.968  10.958  10.079
91379SOL    HW275977  14.067  10.852  10.121
91380SOL     OW75978   0.940  10.887   0.851
91380SOL    HW175979   1.019  10.890   0.905
91380SOL    HW275980   0.876  10.940   0.898
91381SOL     OW75981   7.544   4.065   5.642
91381SOL    HW175982   7.554   4.005   5.716
91381SOL    HW275983   7.631   4.101   5.627
91382SOL     OW75984   9.224   9.091  10.638
91382SOL    HW175985   9.152   9.130  10.688
91382SOL    HW275986   9.183   9.021  10.587
91383SOL     OW75987  13.498  11.407   1.460
91383SOL    HW175988  13.482  11.379   1.370
91383SOL    HW275989  13.442  11.350   1.514
91384SOL     OW75990   5.185   4.937  11.660
91384SOL    HW175991   5.271   4.910  11.692
91384SOL    HW275992   5.173   4.889  11.579
91385SOL     OW75993   8.075   7.878   1.584
91385SOL    HW175994   8.134   7.949   1.610
91385SOL    HW275995   8.002   7.884   1.647
91386SOL     OW75996  13.650   8.050  11.755
91386SOL    HW175997  13.635   8.143  11.736
91386SOL    HW275998  13.569   8.006  11.728
91387SOL     OW75999   3.760  11.578   3.514
91387SOL    HW176000   3.797  11.497   3.480
91387SOL    HW276001   3.761  11.638   3.439
91388SOL     OW76002   6.656   4.761   6.793
91388SOL    HW176003   6.723   4.693   6.794
91388SOL    HW276004   6.625   4.764   6.703
91389SOL     OW76005   5.515  12.299  14.649
91389SOL    HW176006   5.460  12.246  14.708
91389SOL    HW276007   5.456  12.323  14.578
91390SOL     OW76008  14.478  14.533  10.949
91390SOL    HW176009  14.428  14.585  11.012
91390SOL    HW276010  14.528  14.597  10.899
91391SOL     OW76011   6.400   3.725   0.343
91391SOL    HW176012   6.358   3.640   0.330
91391SOL    HW276013   6.493   3.709   0.326
91392SOL     OW76014  10.719   7.779   4.631
91392SOL    HW176015  10.704   7.775   4.536
91392SOL    HW276016  10.739   7.689   4.656
91393SOL     OW76017   3.259   8.133   5.564
91393SOL    HW176018   3.314   8.056   5.576
91393SOL    HW276019   3.171   8.102   5.583
91394SOL     OW76020  11.797   0.194  13.207
91394SOL    HW176021  11.817   0.149  13.289
91394SOL    HW276022  11.883   0.217  13.171
91395SOL     OW76023   4.936  13.691  13.070
91395SOL    HW176024   4.940  13.672  13.164
91395SOL    HW276025   4.916  13.607  13.029
91396SOL     OW76026   6.237   6.249   6.558
91396SOL    HW176027   6.172   6.183   6.532
91396SOL    HW276028   6.320   6.202   6.557
91397SOL     OW76029   7.239   5.026   7.376
91397SOL    HW176030   7.275   5.114   7.371
91397SOL    HW276031   7.215   5.004   7.286
91398SOL     OW76032   3.820   5.482   7.991
91398SOL    HW176033   3.895   5.451   8.042
91398SOL    HW276034   3.849   5.478   7.900
91399SOL     OW76035   0.416  13.015  11.228
91399SOL    HW176036   0.489  12.989  11.285
91399SOL    HW276037   0.399  13.106  11.252
91400SOL     OW76038   5.321   5.464   5.196
91400SOL    HW176039   5.324   5.452   5.101
91400SOL    HW276040   5.279   5.549   5.209
91401SOL     OW76041   0.468   7.841   0.886
91401SOL    HW176042   0.500   7.897   0.815
91401SOL    HW276043   0.529   7.858   0.958
91402SOL     OW76044   0.629   4.126   8.290
91402SOL    HW176045   0.679   4.158   8.366
91402SOL    HW276046   0.678   4.158   8.214
91403SOL     OW76047   9.786   8.755   0.904
91403SOL    HW176048   9.812   8.824   0.843
91403SOL    HW276049   9.694   8.774   0.924
91404SOL     OW76050   7.637  13.476   3.093
91404SOL    HW176051   7.594  13.436   3.018
91404SOL    HW276052   7.565  13.495   3.154
91405SOL     OW76053   4.843   8.710  13.962
91405SOL    HW176054   4.774   8.767  13.998
91405SOL    HW276055   4.796   8.632  13.933
91406SOL     OW76056  13.533  14.229   8.095
91406SOL    HW176057  13.483  14.252   8.017
91406SOL    HW276058  13.567  14.142   8.076
91407SOL     OW76059   8.370   4.131   5.952
91407SOL    HW176060   8.443   4.070   5.937
91407SOL    HW276061   8.384   4.201   5.888
91408SOL     OW76062  10.863   4.372  13.357
91408SOL    HW176063  10.918   4.328  13.421
91408SOL    HW276064  10.774   4.344  13.378
91409SOL     OW76065   8.230   5.901   6.796
91409SOL    HW176066   8.146   5.919   6.754
91409SOL    HW276067   8.292   5.962   6.755
91410SOL     OW76068  11.318   8.071  10.571
91410SOL    HW176069  11.362   8.146  10.531
91410SOL    HW276070  11.276   8.026  10.498
91411SOL     OW76071  12.183   2.741   4.235
91411SOL    HW176072  12.089   2.745   4.213
91411SOL    HW276073  12.193   2.657   4.279
91412SOL     OW76074   3.373   9.257   6.914
91412SOL    HW176075   3.378   9.292   7.003
91412SOL    HW276076   3.461   9.266   6.879
91413SOL     OW76077  11.566  10.272  13.965
91413SOL    HW176078  11.654  10.301  13.941
91413SOL    HW276079  11.532  10.342  14.020
91414SOL     OW76080   2.924   7.796   8.990
91414SOL    HW176081   2.838   7.777   9.028
91414SOL    HW276082   2.980   7.815   9.065
91415SOL     OW76083   6.976   2.438   8.369
91415SOL    HW176084   6.978   2.401   8.457
91415SOL    HW276085   6.958   2.531   8.382
91416SOL     OW76086   9.298   6.152   2.222
91416SOL    HW176087   9.294   6.074   2.276
91416SOL    HW276088   9.221   6.146   2.166
91417SOL     OW76089   9.782   1.931  14.732
91417SOL    HW176090   9.859   1.879  14.709
91417SOL    HW276091   9.732   1.937  14.650
91418SOL     OW76092   5.357   6.606   0.246
91418SOL    HW176093   5.302   6.537   0.283
91418SOL    HW276094   5.437   6.604   0.298
91419SOL     OW76095  10.528   1.439   0.509
91419SOL    HW176096  10.615   1.413   0.478
91419SOL    HW276097  10.536   1.533   0.526
91420SOL     OW76098   3.041   1.208   7.093
91420SOL    HW176099   3.126   1.253   7.091
91420SOL    HW276100   3.039   1.164   7.178
91421SOL     OW76101   8.874  10.450   4.517
91421SOL    HW176102   8.797  10.495   4.552
91421SOL    HW276103   8.949  10.498   4.553
91422SOL     OW76104   5.007   2.981  10.668
91422SOL    HW176105   5.037   2.994  10.758
91422SOL    HW276106   5.087   2.984  10.616
91423SOL     OW76107   8.418   5.960  10.763
91423SOL    HW176108   8.463   6.018  10.825
91423SOL    HW276109   8.481   5.891  10.744
91424SOL     OW76110  11.410   1.314   2.253
91424SOL    HW176111  11.378   1.315   2.343
91424SOL    HW276112  11.487   1.258   2.255
91425SOL     OW76113   6.609   3.800  13.688
91425SOL    HW176114   6.651   3.852  13.756
91425SOL    HW276115   6.648   3.831  13.606
91426SOL     OW76116   7.364  10.746   2.346
91426SOL    HW176117   7.292  10.804   2.323
91426SOL    HW276118   7.371  10.685   2.272
91427SOL     OW76119   0.360  11.938  12.287
91427SOL    HW176120   0.272  11.951  12.253
91427SOL    HW276121   0.372  11.843  12.288
91428SOL     OW76122  13.949   9.259  14.569
91428SOL    HW176123  13.905   9.231  14.650
91428SOL    HW276124  14.032   9.212  14.569
91429SOL     OW76125  11.152  11.242  12.624
91429SOL    HW176126  11.106  11.164  12.655
91429SOL    HW276127  11.244  11.216  12.620
91430SOL     OW76128   1.557   8.560  13.354
91430SOL    HW176129   1.504   8.557  13.434
91430SOL    HW276130   1.500   8.602  13.289
91431SOL     OW76131   0.990   2.149   1.527
91431SOL    HW176132   0.986   2.242   1.507
91431SOL    HW276133   0.978   2.144   1.622
91432SOL     OW76134   0.893  14.716   6.236
91432SOL    HW176135   0.828  14.721   6.167
91432SOL    HW276136   0.924  14.806   6.247
91433SOL     OW76137  13.620  13.061  13.507
91433SOL    HW176138  13.591  13.078  13.596
91433SOL    HW276139  13.540  13.054  13.456
91434SOL     OW76140  13.914   8.929   6.320
91434SOL    HW176141  13.913   8.879   6.238
91434SOL    HW276142  13.832   8.978   6.320
91435SOL     OW76143   0.861   8.314   5.730
91435SOL    HW176144   0.781   8.297   5.680
91435SOL    HW276145   0.871   8.237   5.785
91436SOL     OW76146  12.718   8.903  12.164
91436SOL    HW176147  12.782   8.857  12.109
91436SOL    HW276148  12.666   8.832  12.202
91437SOL     OW76149   8.001   5.906   4.912
91437SOL    HW176150   8.018   5.909   4.818
91437SOL    HW276151   8.067   5.847   4.946
91438SOL     OW76152  14.398   9.779   5.577
91438SOL    HW176153  14.485   9.774   5.537
91438SOL    HW276154  14.337   9.775   5.503
91439SOL     OW76155  14.119  11.350   2.642
91439SOL    HW176156  14.135  11.324   2.551
91439SOL    HW276157  14.048  11.292   2.671
91440SOL     OW76158  10.631  11.958   7.281
91440SOL    HW176159  10.687  11.978   7.356
91440SOL    HW276160  10.653  12.025   7.216
91441SOL     OW76161  13.416  12.566   8.244
91441SOL    HW176162  13.410  12.479   8.205
91441SOL    HW276163  13.344  12.569   8.307
91442SOL     OW76164  10.574  14.345   8.794
91442SOL    HW176165  10.574  14.422   8.850
91442SOL    HW276166  10.540  14.275   8.850
91443SOL     OW76167   3.600   3.138   8.006
91443SOL    HW176168   3.658   3.204   7.969
91443SOL    HW276169   3.559   3.180   8.081
91444SOL     OW76170   8.211   5.625   9.915
91444SOL    HW176171   8.160   5.622   9.834
91444SOL    HW276172   8.155   5.669   9.978
91445SOL     OW76173   9.572  13.915   2.866
91445SOL    HW176174   9.665  13.928   2.883
91445SOL    HW276175   9.568  13.892   2.773
91446SOL     OW76176   2.098   0.933   4.636
91446SOL    HW176177   2.136   1.019   4.653
91446SOL    HW276178   2.025   0.950   4.576
91447SOL     OW76179   9.514   9.822   4.240
91447SOL    HW176180   9.463   9.750   4.276
91447SOL    HW276181   9.491   9.897   4.295
91448SOL     OW76182   5.204   4.461  11.437
91448SOL    HW176183   5.274   4.522  11.415
91448SOL    HW276184   5.177   4.487  11.525
91449SOL     OW76185  13.874   6.928  13.049
91449SOL    HW176186  13.938   6.928  12.978
91449SOL    HW276187  13.916   6.978  13.119
91450SOL     OW76188  11.343   6.492   3.352
91450SOL    HW176189  11.386   6.493   3.266
91450SOL    HW276190  11.330   6.585   3.373
91451SOL     OW76191   6.752   7.794   3.606
91451SOL    HW176192   6.766   7.874   3.657
91451SOL    HW276193   6.800   7.727   3.654
91452SOL     OW76194   4.651  14.761  13.732
91452SOL    HW176195   4.635  14.696  13.800
91452SOL    HW276196   4.677  14.840  13.780
91453SOL     OW76197   5.501  12.979  14.769
91453SOL    HW176198   5.450  13.020  14.838
91453SOL    HW276199   5.456  13.003  14.688
91454SOL     OW76200   0.234   5.462   8.097
91454SOL    HW176201   0.212   5.512   8.176
91454SOL    HW276202   0.240   5.528   8.028
91455SOL     OW76203   3.076   6.688   7.999
91455SOL    HW176204   3.038   6.623   7.939
91455SOL    HW276205   3.089   6.766   7.945
91456SOL     OW76206  10.350   4.145  13.408
91456SOL    HW176207  10.308   4.181  13.329
91456SOL    HW276208  10.339   4.213  13.474
91457SOL     OW76209   9.881   3.294   9.017
91457SOL    HW176210   9.920   3.266   8.935
91457SOL    HW276211   9.948   3.348   9.059
91458SOL     OW76212  11.969  10.283   2.730
91458SOL    HW176213  11.953  10.243   2.815
91458SOL    HW276214  11.906  10.355   2.725
91459SOL     OW76215  13.321   2.790   6.762
91459SOL    HW176216  13.308   2.811   6.854
91459SOL    HW276217  13.378   2.861   6.730
91460SOL     OW76218   5.591  10.619   7.049
91460SOL    HW176219   5.579  10.537   7.095
91460SOL    HW276220   5.533  10.613   6.973
91461SOL     OW76221  14.181  14.686   0.604
91461SOL    HW176222  14.112  14.621   0.589
91461SOL    HW276223  14.134  14.770   0.608
91462SOL     OW76224   4.444   9.557   2.777
91462SOL    HW176225   4.489   9.631   2.817
91462SOL    HW276226   4.424   9.499   2.851
91463SOL     OW76227  12.470   9.692   9.590
91463SOL    HW176228  12.515   9.623   9.541
91463SOL    HW276229  12.537   9.758   9.606
91464SOL     OW76230   1.017   8.862   3.217
91464SOL    HW176231   0.986   8.938   3.266
91464SOL    HW276232   1.040   8.797   3.284
91465SOL     OW76233   0.866   6.594   7.550
91465SOL    HW176234   0.953   6.633   7.550
91465SOL    HW276235   0.835   6.605   7.460
91466SOL     OW76236   6.687   9.270   1.905
91466SOL    HW176237   6.736   9.190   1.885
91466SOL    HW276238   6.751   9.326   1.950
91467SOL     OW76239  10.727   2.586   7.724
91467SOL    HW176240  10.642   2.546   7.710
91467SOL    HW276241  10.729   2.606   7.818
91468SOL     OW76242  11.593   0.995   0.817
91468SOL    HW176243  11.582   0.902   0.798
91468SOL    HW276244  11.508   1.022   0.854
91469SOL     OW76245   5.596   9.173   8.696
91469SOL    HW176246   5.659   9.102   8.685
91469SOL    HW276247   5.511   9.130   8.701
91470SOL     OW76248   0.387  11.704   4.098
91470SOL    HW176249   0.435  11.625   4.123
91470SOL    HW276250   0.339  11.729   4.178
91471SOL     OW76251   3.450  13.944  12.695
91471SOL    HW176252   3.489  13.859  12.672
91471SOL    HW276253   3.525  14.000  12.713
91472SOL     OW76254  11.853  14.015   6.521
91472SOL    HW176255  11.944  13.988   6.507
91472SOL    HW276256  11.801  13.947   6.479
91473SOL     OW76257  13.548   9.771  11.538
91473SOL    HW176258  13.548   9.724  11.622
91473SOL    HW276259  13.463   9.814  11.535
91474SOL     OW76260   4.158   6.295   2.290
91474SOL    HW176261   4.233   6.281   2.232
91474SOL    HW276262   4.091   6.234   2.258
91475SOL     OW76263   2.904   1.686   6.667
91475SOL    HW176264   2.914   1.768   6.619
91475SOL    HW276265   2.906   1.618   6.600
91476SOL     OW76266   0.670   0.951  11.793
91476SOL    HW176267   0.699   0.898  11.718
91476SOL    HW276268   0.628   1.027  11.753
91477SOL     OW76269  13.083   8.740   3.196
91477SOL    HW176270  13.070   8.734   3.291
91477SOL    HW276271  13.068   8.833   3.176
91478SOL     OW76272   7.338   6.409   4.658
91478SOL    HW176273   7.363   6.316   4.654
91478SOL    HW276274   7.268   6.412   4.723
91479SOL     OW76275   6.365   1.137   5.844
91479SOL    HW176276   6.387   1.192   5.920
91479SOL    HW276277   6.277   1.165   5.819
91480SOL     OW76278   1.365   4.400   9.727
91480SOL    HW176279   1.299   4.403   9.796
91480SOL    HW276280   1.325   4.444   9.652
91481SOL     OW76281  13.309   5.724   4.370
91481SOL    HW176282  13.241   5.696   4.309
91481SOL    HW276283  13.271   5.799   4.416
91482SOL     OW76284  12.067   7.030   1.544
91482SOL    HW176285  12.089   7.043   1.452
91482SOL    HW276286  11.975   7.007   1.544
91483SOL     OW76287   7.168  13.344  13.663
91483SOL    HW176288   7.098  13.291  13.700
91483SOL    HW276289   7.244  13.286  13.664
91484SOL     OW76290  12.386  13.405   6.524
91484SOL    HW176291  12.470  13.388   6.482
91484SOL    HW276292  12.405  13.395   6.618
91485SOL     OW76293   2.000   8.964   5.137
91485SOL    HW176294   2.044   9.049   5.130
91485SOL    HW276295   2.070   8.900   5.134
91486SOL     OW76296   4.838   2.426   3.713
91486SOL    HW176297   4.744   2.414   3.725
91486SOL    HW276298   4.845   2.482   3.636
91487SOL     OW76299  12.598   8.252   7.898
91487SOL    HW176300  12.646   8.331   7.922
91487SOL    HW276301  12.570   8.268   7.808
91488SOL     OW76302   3.865   1.919   0.954
91488SOL    HW176303   3.895   1.948   0.868
91488SOL    HW276304   3.943   1.923   1.009
91489SOL     OW76305   4.436   3.900  13.628
91489SOL    HW176306   4.347   3.884  13.659
91489SOL    HW276307   4.453   3.828  13.567
91490SOL     OW76308   1.327  10.023   5.291
91490SOL    HW176309   1.360   9.962   5.356
91490SOL    HW276310   1.342  10.110   5.329
91491SOL     OW76311   8.147   1.606   0.988
91491SOL    HW176312   8.191   1.667   1.047
91491SOL    HW276313   8.172   1.635   0.900
91492SOL     OW76314  13.557   9.706   4.625
91492SOL    HW176315  13.547   9.744   4.537
91492SOL    HW276316  13.514   9.621   4.619
91493SOL     OW76317  14.753  13.378  11.976
91493SOL    HW176318  14.830  13.427  12.002
91493SOL    HW276319  14.691  13.444  11.945
91494SOL     OW76320  11.143  11.893   3.590
91494SOL    HW176321  11.083  11.903   3.516
91494SOL    HW276322  11.212  11.835   3.557
91495SOL     OW76323  11.979  13.912   5.384
91495SOL    HW176324  11.930  13.966   5.446
91495SOL    HW276325  12.007  13.974   5.316
91496SOL     OW76326  10.612  10.660   1.096
91496SOL    HW176327  10.672  10.653   1.171
91496SOL    HW276328  10.571  10.574   1.090
91497SOL     OW76329  13.174   7.209   7.908
91497SOL    HW176330  13.133   7.239   7.828
91497SOL    HW276331  13.247   7.154   7.879
91498SOL     OW76332   4.821  11.408   2.105
91498SOL    HW176333   4.829  11.342   2.173
91498SOL    HW276334   4.899  11.396   2.051
91499SOL     OW76335  10.736   8.154   5.902
91499SOL    HW176336  10.642   8.167   5.886
91499SOL    HW276337  10.756   8.213   5.974
91500SOL     OW76338   4.286  13.111   2.223
91500SOL    HW176339   4.213  13.051   2.237
91500SOL    HW276340   4.289  13.164   2.302
91501SOL     OW76341  10.931   7.873   4.419
91501SOL    HW176342  10.847   7.865   4.374
91501SOL    HW276343  10.921   7.948   4.477
91502SOL     OW76344   6.984   5.868   2.682
91502SOL    HW176345   7.068   5.908   2.705
91502SOL    HW276346   6.919   5.917   2.732
91503SOL     OW76347   5.614  13.708   1.234
91503SOL    HW176348   5.548  13.773   1.210
91503SOL    HW276349   5.681  13.758   1.280
91504SOL     OW76350   7.528  14.046   8.476
91504SOL    HW176351   7.581  14.011   8.404
91504SOL    HW276352   7.480  14.119   8.436
91505SOL     OW76353   4.823   2.938   8.632
91505SOL    HW176354   4.778   2.873   8.686
91505SOL    HW276355   4.910   2.946   8.672
91506SOL     OW76356   8.157  11.182   0.117
91506SOL    HW176357   8.179  11.187   0.210
91506SOL    HW276358   8.061  11.177   0.115
91507SOL     OW76359  13.729   9.643   8.809
91507SOL    HW176360  13.803   9.584   8.826
91507SOL    HW276361  13.652   9.587   8.817
91508SOL     OW76362  11.808   2.711   2.670
91508SOL    HW176363  11.813   2.705   2.765
91508SOL    HW276364  11.755   2.789   2.654
91509SOL     OW76365   8.856   9.276   8.874
91509SOL    HW176366   8.907   9.203   8.839
91509SOL    HW276367   8.826   9.245   8.959
91510SOL     OW76368   8.546   8.443   1.769
91510SOL    HW176369   8.461   8.402   1.757
91510SOL    HW276370   8.563   8.435   1.863
91511SOL     OW76371   1.904   0.168  11.860
91511SOL    HW176372   1.897   0.223  11.782
91511SOL    HW276373   1.920   0.080  11.825
91512SOL     OW76374  13.391  14.671  11.491
91512SOL    HW176375  13.331  14.715  11.430
91512SOL    HW276376  13.405  14.735  11.560
91513SOL     OW76377  13.084   1.378   5.105
91513SOL    HW176378  13.081   1.378   5.010
91513SOL    HW276379  13.156   1.438   5.127
91514SOL     OW76380   6.834   5.996   8.339
91514SOL    HW176381   6.805   5.948   8.417
91514SOL    HW276382   6.783   5.959   8.267
91515SOL     OW76383  11.900   9.419   7.498
91515SOL    HW176384  11.868   9.345   7.550
91515SOL    HW276385  11.961   9.379   7.435
91516SOL     OW76386   2.648  12.951   0.217
91516SOL    HW176387   2.556  12.926   0.210
91516SOL    HW276388   2.651  13.040   0.181
91517SOL     OW76389   4.396  14.467  12.337
91517SOL    HW176390   4.346  14.487  12.258
91517SOL    HW276391   4.488  14.479  12.311
91518SOL     OW76392   9.626   1.575   7.118
91518SOL    HW176393   9.685   1.558   7.191
91518SOL    HW276394   9.680   1.563   7.040
91519SOL     OW76395  10.638   9.598   7.377
91519SOL    HW176396  10.609   9.509   7.401
91519SOL    HW276397  10.563   9.636   7.331
91520SOL     OW76398   2.890  10.477   0.683
91520SOL    HW176399   2.802  10.487   0.647
91520SOL    HW276400   2.893  10.540   0.755
91521SOL     OW76401   1.232  14.806  10.757
91521SOL    HW176402   1.217   0.005  10.704
91521SOL    HW276403   1.320  14.776  10.732
91522SOL     OW76404   1.067   2.045  12.679
91522SOL    HW176405   1.041   1.976  12.739
91522SOL    HW276406   1.137   2.007  12.627
91523SOL     OW76407  10.304   4.752   8.018
91523SOL    HW176408  10.216   4.728   7.992
91523SOL    HW276409  10.343   4.671   8.051
91524SOL     OW76410  14.549   3.593   1.147
91524SOL    HW176411  14.463   3.628   1.124
91524SOL    HW276412  14.603   3.607   1.069
91525SOL     OW76413   9.250   2.637   2.638
91525SOL    HW176414   9.201   2.670   2.714
91525SOL    HW276415   9.342   2.646   2.663
91526SOL     OW76416   7.679   7.745   2.899
91526SOL    HW176417   7.658   7.820   2.954
91526SOL    HW276418   7.771   7.725   2.920
91527SOL     OW76419   6.846  10.224   4.264
91527SOL    HW176420   6.875  10.141   4.301
91527SOL    HW276421   6.809  10.272   4.338
91528SOL     OW76422  11.750   7.173   9.524
91528SOL    HW176423  11.682   7.166   9.457
91528SOL    HW276424  11.719   7.244   9.581
91529SOL     OW76425   5.792   5.338   4.275
91529SOL    HW176426   5.767   5.401   4.342
91529SOL    HW276427   5.826   5.392   4.203
91530SOL     OW76428   7.174  14.480   8.588
91530SOL    HW176429   7.261  14.509   8.613
91530SOL    HW276430   7.182  14.385   8.577
91531SOL     OW76431   1.724   0.735  14.810
91531SOL    HW176432   1.747   0.653  14.854
91531SOL    HW276433   1.804   0.760  14.764
91532SOL     OW76434   1.536  14.647  12.669
91532SOL    HW176435   1.588  14.632  12.590
91532SOL    HW276436   1.581  14.718  12.715
91533SOL     OW76437  14.052   7.232  11.222
91533SOL    HW176438  14.039   7.325  11.240
91533SOL    HW276439  14.144   7.216  11.240
91534SOL     OW76440  13.684   3.002   4.130
91534SOL    HW176441  13.647   2.916   4.110
91534SOL    HW276442  13.609   3.057   4.151
91535SOL     OW76443   4.586  10.705   7.706
91535SOL    HW176444   4.591  10.699   7.801
91535SOL    HW276445   4.634  10.784   7.683
91536SOL     OW76446  10.035   4.870   7.902
91536SOL    HW176447  10.128   4.889   7.895
91536SOL    HW276448  10.011   4.899   7.990
91537SOL     OW76449   2.657  14.488  12.748
91537SOL    HW176450   2.647  14.472  12.842
91537SOL    HW276451   2.574  14.528  12.722
91538SOL     OW76452   3.041   2.970  11.891
91538SOL    HW176453   3.014   2.944  11.979
91538SOL    HW276454   3.085   3.054  11.903
91539SOL     OW76455  14.205  12.916  10.265
91539SOL    HW176456  14.232  12.932  10.355
91539SOL    HW276457  14.241  12.989  10.215
91540SOL     OW76458   7.202  12.216   2.813
91540SOL    HW176459   7.250  12.249   2.737
91540SOL    HW276460   7.158  12.293   2.848
91541SOL     OW76461   8.090   0.914  10.883
91541SOL    HW176462   8.081   0.819  10.884
91541SOL    HW276463   8.075   0.939  10.792
91542SOL     OW76464  13.287   8.698  11.299
91542SOL    HW176465  13.370   8.719  11.257
91542SOL    HW276466  13.297   8.608  11.330
91543SOL     OW76467   6.580  10.806   0.053
91543SOL    HW176468   6.531  10.805   0.135
91543SOL    HW276469   6.534  10.744  14.876
91544SOL     OW76470  11.078  14.797  11.145
91544SOL    HW176471  11.012  14.765  11.207
91544SOL    HW276472  11.055   0.009  11.130
91545SOL     OW76473   0.726  11.221   9.142
91545SOL    HW176474   0.775  11.271   9.208
91545SOL    HW276475   0.658  11.281   9.112
91546SOL     OW76476  12.066  10.358   7.658
91546SOL    HW176477  12.105  10.303   7.725
91546SOL    HW276478  12.078  10.447   7.690
91547SOL     OW76479  11.982  13.439   9.177
91547SOL    HW176480  11.970  13.483   9.092
91547SOL    HW276481  12.077  13.426   9.183
91548SOL     OW76482   3.010   1.825  13.160
91548SOL    HW176483   3.018   1.779  13.077
91548SOL    HW276484   2.922   1.805  13.192
91549SOL     OW76485  13.365   7.920  11.395
91549SOL    HW176486  13.279   7.916  11.353
91549SOL    HW276487  13.401   8.005  11.368
91550SOL     OW76488   7.831   8.943   5.160
91550SOL    HW176489   7.896   9.012   5.164
91550SOL    HW276490   7.804   8.929   5.251
91551SOL     OW76491   5.209   5.576   2.282
91551SOL    HW176492   5.116   5.559   2.266
91551SOL    HW276493   5.230   5.523   2.359
91552SOL     OW76494   7.133   5.270   7.624
91552SOL    HW176495   7.111   5.272   7.530
91552SOL    HW276496   7.067   5.326   7.664
91553SOL     OW76497  13.496   7.016   2.889
91553SOL    HW176498  13.539   6.956   2.950
91553SOL    HW276499  13.482   7.096   2.940
91554SOL     OW76500   8.000   9.348  13.862
91554SOL    HW176501   7.960   9.283  13.919
91554SOL    HW276502   8.083   9.310  13.836
91555SOL     OW76503  12.263  14.786   3.618
91555SOL    HW176504  12.288  14.697   3.645
91555SOL    HW276505  12.277  14.786   3.523
91556SOL     OW76506   5.180  10.304   1.094
91556SOL    HW176507   5.133  10.284   1.175
91556SOL    HW276508   5.217  10.391   1.109
91557SOL     OW76509  12.568  11.277  10.946
91557SOL    HW176510  12.500  11.325  10.899
91557SOL    HW276511  12.544  11.184  10.935
91558SOL     OW76512  11.989   3.640   7.316
91558SOL    HW176513  11.929   3.566   7.317
91558SOL    HW276514  12.041   3.631   7.395
91559SOL     OW76515   4.779   8.535   1.838
91559SOL    HW176516   4.799   8.624   1.808
91559SOL    HW276517   4.698   8.512   1.791
91560SOL     OW76518   4.923   3.881   0.553
91560SOL    HW176519   4.950   3.941   0.622
91560SOL    HW276520   4.870   3.815   0.598
91561SOL     OW76521   9.711  11.553  11.671
91561SOL    HW176522   9.648  11.620  11.699
91561SOL    HW276523   9.794  11.599  11.664
91562SOL     OW76524   9.991  12.453  13.334
91562SOL    HW176525  10.083  12.430  13.325
91562SOL    HW276526   9.974  12.448  13.428
91563SOL     OW76527  12.447   8.855  12.776
91563SOL    HW176528  12.508   8.784  12.754
91563SOL    HW276529  12.448   8.912  12.699
91564SOL     OW76530  11.370   7.999  11.887
91564SOL    HW176531  11.327   7.962  11.811
91564SOL    HW276532  11.457   8.024  11.856
91565SOL     OW76533  13.702   9.001   7.564
91565SOL    HW176534  13.723   8.950   7.486
91565SOL    HW276535  13.739   9.088   7.548
91566SOL     OW76536  12.749   9.916   1.565
91566SOL    HW176537  12.653   9.913   1.559
91566SOL    HW276538  12.769   9.873   1.648
91567SOL     OW76539   5.479   6.074   7.975
91567SOL    HW176540   5.445   6.162   7.988
91567SOL    HW276541   5.408   6.028   7.930
91568SOL     OW76542   4.550  12.362   2.939
91568SOL    HW176543   4.536  12.448   2.899
91568SOL    HW276544   4.522  12.373   3.030
91569SOL     OW76545   2.354   2.523   3.373
91569SOL    HW176546   2.299   2.601   3.373
91569SOL    HW276547   2.434   2.549   3.328
91570SOL     OW76548   4.019  12.357   9.203
91570SOL    HW176549   3.984  12.269   9.188
91570SOL    HW276550   3.994  12.406   9.124
91571SOL     OW76551   3.694  12.671   1.074
91571SOL    HW176552   3.735  12.746   1.118
91571SOL    HW276553   3.653  12.709   0.996
91572SOL     OW76554   6.229  11.471   1.661
91572SOL    HW176555   6.147  11.486   1.708
91572SOL    HW276556   6.293  11.527   1.706
91573SOL     OW76557  14.046  11.297   7.532
91573SOL    HW176558  13.974  11.349   7.569
91573SOL    HW276559  14.070  11.345   7.452
91574SOL     OW76560   4.830   0.397   6.534
91574SOL    HW176561   4.898   0.418   6.598
91574SOL    HW276562   4.823   0.301   6.537
91575SOL     OW76563   0.751   2.493   9.036
91575SOL    HW176564   0.691   2.524   9.104
91575SOL    HW276565   0.751   2.398   9.044
91576SOL     OW76566   4.237   6.606   5.198
91576SOL    HW176567   4.142   6.606   5.213
91576SOL    HW276568   4.271   6.669   5.262
91577SOL     OW76569   6.372   3.404  14.556
91577SOL    HW176570   6.411   3.317  14.544
91577SOL    HW276571   6.439   3.454  14.602
91578SOL     OW76572  11.455  10.869   8.284
91578SOL    HW176573  11.387  10.810   8.317
91578SOL    HW276574  11.406  10.938   8.238
91579SOL     OW76575   2.314   3.126   8.561
91579SOL    HW176576   2.282   3.109   8.473
91579SOL    HW276577   2.292   3.218   8.577
91580SOL     OW76578   2.740   2.888  14.156
91580SOL    HW176579   2.768   2.838  14.080
91580SOL    HW276580   2.711   2.972  14.121
91581SOL     OW76581  12.559  11.026  10.893
91581SOL    HW176582  12.642  10.982  10.910
91581SOL    HW276583  12.493  10.958  10.910
91582SOL     OW76584   0.644   4.736  13.344
91582SOL    HW176585   0.610   4.746  13.433
91582SOL    HW276586   0.589   4.793  13.290
91583SOL     OW76587   7.467   4.767  11.714
91583SOL    HW176588   7.455   4.679  11.751
91583SOL    HW276589   7.500   4.820  11.786
91584SOL     OW76590  12.066   3.924   0.429
91584SOL    HW176591  12.149   3.969   0.443
91584SOL    HW276592  12.000   3.992   0.442
91585SOL     OW76593   7.229   3.852  13.757
91585SOL    HW176594   7.252   3.759  13.751
91585SOL    HW276595   7.133   3.852  13.756
91586SOL     OW76596   9.670   5.288   0.414
91586SOL    HW176597   9.708   5.200   0.418
91586SOL    HW276598   9.587   5.280   0.462
91587SOL     OW76599   4.259   2.350  13.827
91587SOL    HW176600   4.333   2.403  13.856
91587SOL    HW276601   4.273   2.338  13.733
91588SOL     OW76602   7.620   9.554   6.608
91588SOL    HW176603   7.552   9.525   6.669
91588SOL    HW276604   7.572   9.596   6.537
91589SOL     OW76605   9.912   9.899  13.129
91589SOL    HW176606   9.929   9.824  13.186
91589SOL    HW276607   9.994   9.912  13.081
91590SOL     OW76608  10.466  14.781  12.418
91590SOL    HW176609  10.380  14.820  12.402
91590SOL    HW276610  10.472  14.710  12.354
91591SOL     OW76611  10.482  10.225   3.463
91591SOL    HW176612  10.438  10.211   3.380
91591SOL    HW276613  10.412  10.224   3.528
91592SOL     OW76614   2.884   2.865  14.398
91592SOL    HW176615   2.849   2.856  14.309
91592SOL    HW276616   2.881   2.959  14.416
91593SOL     OW76617  13.493   8.237   1.970
91593SOL    HW176618  13.560   8.232   1.902
91593SOL    HW276619  13.410   8.224   1.923
91594SOL     OW76620   5.070   2.564  14.612
91594SOL    HW176621   4.978   2.536  14.611
91594SOL    HW276622   5.114   2.507  14.550
91595SOL     OW76623   6.117  10.305  13.690
91595SOL    HW176624   6.155  10.362  13.757
91595SOL    HW276625   6.049  10.257  13.737
91596SOL     OW76626   5.927   5.480   8.995
91596SOL    HW176627   5.927   5.554   8.935
91596SOL    HW276628   5.989   5.418   8.957
91597SOL     OW76629  11.318   1.729   2.340
91597SOL    HW176630  11.227   1.705   2.321
91597SOL    HW276631  11.333   1.810   2.292
91598SOL     OW76632   1.298   9.643   8.352
91598SOL    HW176633   1.260   9.626   8.266
91598SOL    HW276634   1.356   9.568   8.368
91599SOL     OW76635   7.872  14.854  11.072
91599SOL    HW176636   7.924  14.795  11.127
91599SOL    HW276637   7.842   0.042  11.133
91600SOL     OW76638  11.828   0.428  11.761
91600SOL    HW176639  11.827   0.335  11.783
91600SOL    HW276640  11.818   0.430  11.666
91601SOL     OW76641  10.351   3.321  14.244
91601SOL    HW176642  10.301   3.390  14.287
91601SOL    HW276643  10.327   3.327  14.152
91602SOL     OW76644   0.774   1.900   9.241
91602SOL    HW176645   0.770   1.852   9.323
91602SOL    HW276646   0.683   1.921   9.221
91603SOL     OW76647  13.846   7.411   3.112
91603SOL    HW176648  13.863   7.463   3.191
91603SOL    HW276649  13.887   7.461   3.042
91604SOL     OW76650   0.906   4.100   2.527
91604SOL    HW176651   0.996   4.075   2.550
91604SOL    HW276652   0.873   4.147   2.603
91605SOL     OW76653   3.101   2.483   3.323
91605SOL    HW176654   3.078   2.547   3.256
91605SOL    HW276655   3.087   2.398   3.282
91606SOL     OW76656   5.736   4.246   5.773
91606SOL    HW176657   5.776   4.269   5.690
91606SOL    HW276658   5.722   4.151   5.768
91607SOL     OW76659   2.328   1.694   3.161
91607SOL    HW176660   2.249   1.702   3.107
91607SOL    HW276661   2.295   1.690   3.251
91608SOL     OW76662   5.480   2.254  11.442
91608SOL    HW176663   5.471   2.280  11.533
91608SOL    HW276664   5.423   2.177  11.433
91609SOL     OW76665  14.058   6.546   0.116
91609SOL    HW176666  13.974   6.583   0.144
91609SOL    HW276667  14.042   6.513   0.028
91610SOL     OW76668   9.412   6.364  12.413
91610SOL    HW176669   9.444   6.283  12.452
91610SOL    HW276670   9.319   6.366  12.433
91611SOL     OW76671   6.557   0.249   8.274
91611SOL    HW176672   6.579   0.331   8.230
91611SOL    HW276673   6.639   0.199   8.272
91612SOL     OW76674   3.180  14.045  13.454
91612SOL    HW176675   3.100  14.003  13.485
91612SOL    HW276676   3.175  14.135  13.485
91613SOL     OW76677   6.188   9.835   7.335
91613SOL    HW176678   6.233   9.756   7.364
91613SOL    HW276679   6.258   9.899   7.323
91614SOL     OW76680   3.799   3.422   8.450
91614SOL    HW176681   3.743   3.447   8.376
91614SOL    HW276682   3.874   3.480   8.444
91615SOL     OW76683   7.699   3.982   6.445
91615SOL    HW176684   7.658   4.066   6.422
91615SOL    HW276685   7.793   3.998   6.434
91616SOL     OW76686  10.296   3.221   9.238
91616SOL    HW176687  10.278   3.159   9.168
91616SOL    HW276688  10.316   3.303   9.194
91617SOL     OW76689   7.588   4.951   3.492
91617SOL    HW176690   7.633   4.995   3.420
91617SOL    HW276691   7.495   4.971   3.478
91618SOL     OW76692  11.985  12.077  10.848
91618SOL    HW176693  12.045  12.042  10.914
91618SOL    HW276694  11.902  12.033  10.866
91619SOL     OW76695   2.774   8.550   4.144
91619SOL    HW176696   2.696   8.560   4.091
91619SOL    HW276697   2.747   8.578   4.232
91620SOL     OW76698   9.440  14.530   6.441
91620SOL    HW176699   9.440  14.512   6.347
91620SOL    HW276700   9.349  14.514   6.468
91621SOL     OW76701  11.979  14.149  14.006
91621SOL    HW176702  11.957  14.197  14.085
91621SOL    HW276703  12.074  14.141  14.008
91622SOL     OW76704  11.043  10.891   2.950
91622SOL    HW176705  11.029  10.930   2.864
91622SOL    HW276706  11.120  10.835   2.938
91623SOL     OW76707   0.644   0.162  12.397
91623SOL    HW176708   0.581   0.151  12.326
91623SOL    HW276709   0.718   0.107  12.372
91624SOL     OW76710   8.535   3.843   2.578
91624SOL    HW176711   8.447   3.840   2.614
91624SOL    HW276712   8.535   3.776   2.509
91625SOL     OW76713   9.925  11.211   2.825
91625SOL    HW176714   9.910  11.128   2.870
91625SOL    HW276715   9.877  11.202   2.742
91626SOL     OW76716   4.628   4.064   4.337
91626SOL    HW176717   4.610   4.051   4.244
91626SOL    HW276718   4.548   4.106   4.371
91627SOL     OW76719   9.550   5.154  14.568
91627SOL    HW176720   9.594   5.212  14.505
91627SOL    HW276721   9.603   5.074  14.568
91628SOL     OW76722   4.268  10.189   6.591
91628SOL    HW176723   4.273  10.260   6.526
91628SOL    HW276724   4.182  10.200   6.632
91629SOL     OW76725   1.238  11.882   1.099
91629SOL    HW176726   1.197  11.876   1.185
91629SOL    HW276727   1.326  11.846   1.111
91630SOL     OW76728   0.727   5.428  10.526
91630SOL    HW176729   0.751   5.337  10.544
91630SOL    HW276730   0.635   5.424  10.498
91631SOL     OW76731   6.662   0.543   4.579
91631SOL    HW176732   6.728   0.602   4.542
91631SOL    HW276733   6.696   0.518   4.664
91632SOL     OW76734   3.207   5.090  11.937
91632SOL    HW176735   3.284   5.135  11.902
91632SOL    HW276736   3.241   5.008  11.973
91633SOL     OW76737   5.136   5.339   2.084
91633SOL    HW176738   5.137   5.303   2.173
91633SOL    HW276739   5.064   5.403   2.085
91634SOL     OW76740   2.164   0.585  14.665
91634SOL    HW176741   2.137   0.494  14.678
91634SOL    HW276742   2.216   0.584  14.585
91635SOL     OW76743  10.722   6.164   8.041
91635SOL    HW176744  10.671   6.084   8.030
91635SOL    HW276745  10.699   6.194   8.129
91636SOL     OW76746   9.941  11.163   0.283
91636SOL    HW176747   9.900  11.188   0.365
91636SOL    HW276748   9.868  11.150   0.222
91637SOL     OW76749  13.800   3.189  12.574
91637SOL    HW176750  13.755   3.161  12.654
91637SOL    HW276751  13.778   3.282  12.566
91638SOL     OW76752   8.251   5.702   2.320
91638SOL    HW176753   8.321   5.649   2.282
91638SOL    HW276754   8.219   5.650   2.393
91639SOL     OW76755   5.782   3.509  11.566
91639SOL    HW176756   5.876   3.514  11.546
91639SOL    HW276757   5.739   3.538  11.486
91640SOL     OW76758  14.839   1.191  12.381
91640SOL    HW176759  14.800   1.112  12.419
91640SOL    HW276760  14.767   1.254  12.376
91641SOL     OW76761   3.467  11.050   5.241
91641SOL    HW176762   3.477  10.993   5.317
91641SOL    HW276763   3.460  11.139   5.278
91642SOL     OW76764   8.279   3.422   6.236
91642SOL    HW176765   8.195   3.433   6.282
91642SOL    HW276766   8.332   3.370   6.297
91643SOL     OW76767   0.080   9.458   1.775
91643SOL    HW176768   0.126   9.397   1.834
91643SOL    HW276769  14.868   9.429   1.778
91644SOL     OW76770   2.358   1.703   0.323
91644SOL    HW176771   2.321   1.694   0.411
91644SOL    HW276772   2.437   1.757   0.336
91645SOL     OW76773  11.770   5.272   4.562
91645SOL    HW176774  11.779   5.337   4.632
91645SOL    HW276775  11.738   5.193   4.607
91646SOL     OW76776   6.763   6.221   7.428
91646SOL    HW176777   6.677   6.213   7.469
91646SOL    HW276778   6.813   6.278   7.486
91647SOL     OW76779  11.206   3.998   6.994
91647SOL    HW176780  11.133   4.022   6.937
91647SOL    HW276781  11.241   3.918   6.955
91648SOL     OW76782  12.527   2.447  10.580
91648SOL    HW176783  12.524   2.369  10.524
91648SOL    HW276784  12.478   2.513  10.533
91649SOL     OW76785   8.581   4.493   8.950
91649SOL    HW176786   8.548   4.581   8.968
91649SOL    HW276787   8.652   4.481   9.013
91650SOL     OW76788   3.237   5.455  12.838
91650SOL    HW176789   3.193   5.435  12.755
91650SOL    HW276790   3.172   5.504  12.888
91651SOL     OW76791   8.490   9.579  14.281
91651SOL    HW176792   8.572   9.530  14.284
91651SOL    HW276793   8.486   9.624  14.365
91652SOL     OW76794  11.413   6.344   7.635
91652SOL    HW176795  11.416   6.439   7.622
91652SOL    HW276796  11.464   6.308   7.562
91653SOL     OW76797   6.120   0.823   4.066
91653SOL    HW176798   6.115   0.815   4.161
91653SOL    HW276799   6.105   0.916   4.048
91654SOL     OW76800  12.854   5.289   2.453
91654SOL    HW176801  12.835   5.286   2.547
91654SOL    HW276802  12.867   5.197   2.429
91655SOL     OW76803   9.872   5.149   8.427
91655SOL    HW176804   9.809   5.172   8.359
91655SOL    HW276805   9.948   5.205   8.409
91656SOL     OW76806   3.501  11.337  11.715
91656SOL    HW176807   3.552  11.256  11.711
91656SOL    HW276808   3.524  11.376  11.799
91657SOL     OW76809   8.282   9.119   6.157
91657SOL    HW176810   8.301   9.059   6.085
91657SOL    HW276811   8.197   9.090   6.191
91658SOL     OW76812   7.766   3.047   9.573
91658SOL    HW176813   7.787   2.953   9.572
91658SOL    HW276814   7.773   3.072   9.665
91659SOL     OW76815   1.288   5.239   2.433
91659SOL    HW176816   1.246   5.259   2.517
91659SOL    HW276817   1.228   5.180   2.389
91660SOL     OW76818   4.311   4.337   2.843
91660SOL    HW176819   4.331   4.249   2.812
91660SOL    HW276820   4.336   4.394   2.770
91661SOL     OW76821   7.739  12.099   0.775
91661SOL    HW176822   7.757  12.181   0.730
91661SOL    HW276823   7.735  12.033   0.706
91662SOL     OW76824   3.544   4.754   0.728
91662SOL    HW176825   3.623   4.732   0.777
91662SOL    HW276826   3.482   4.684   0.749
91663SOL     OW76827   3.519   3.651   8.589
91663SOL    HW176828   3.504   3.691   8.504
91663SOL    HW276829   3.603   3.686   8.617
91664SOL     OW76830   5.366   6.913   5.697
91664SOL    HW176831   5.423   6.919   5.774
91664SOL    HW276832   5.409   6.848   5.641
91665SOL     OW76833  11.831   3.491  14.185
91665SOL    HW176834  11.749   3.461  14.226
91665SOL    HW276835  11.871   3.412  14.149
91666SOL     OW76836  13.784   9.392  10.571
91666SOL    HW176837  13.820   9.303  10.568
91666SOL    HW276838  13.850   9.443  10.619
91667SOL     OW76839   3.346  10.750  14.312
91667SOL    HW176840   3.285  10.677  14.315
91667SOL    HW276841   3.419  10.720  14.258
91668SOL     OW76842  13.780   5.310  10.401
91668SOL    HW176843  13.744   5.258  10.329
91668SOL    HW276844  13.846   5.253  10.441
91669SOL     OW76845   2.676  13.748   6.346
91669SOL    HW176846   2.683  13.792   6.262
91669SOL    HW276847   2.588  13.710   6.347
91670SOL     OW76848  10.276   7.945   7.571
91670SOL    HW176849  10.209   8.013   7.572
91670SOL    HW276850  10.341   7.976   7.509
91671SOL     OW76851   1.748   1.054  12.343
91671SOL    HW176852   1.790   1.140  12.352
91671SOL    HW276853   1.711   1.036  12.429
91672SOL     OW76854   5.107  11.065   3.985
91672SOL    HW176855   5.195  11.047   4.017
91672SOL    HW276856   5.049  11.033   4.054
91673SOL     OW76857  10.913   9.344   9.517
91673SOL    HW176858  10.917   9.253   9.545
91673SOL    HW276859  10.857   9.342   9.439
91674SOL     OW76860   7.480   7.834   0.376
91674SOL    HW176861   7.491   7.813   0.468
91674SOL    HW276862   7.447   7.924   0.375
91675SOL     OW76863   1.105   9.318  11.712
91675SOL    HW176864   1.170   9.262  11.754
91675SOL    HW276865   1.069   9.370  11.784
91676SOL     OW76866   5.109   8.839   3.776
91676SOL    HW176867   5.065   8.912   3.733
91676SOL    HW276868   5.131   8.871   3.863
91677SOL     OW76869  11.198  11.475   8.504
91677SOL    HW176870  11.244  11.542   8.454
91677SOL    HW276871  11.262  11.444   8.568
91678SOL     OW76872   5.521   5.002  14.291
91678SOL    HW176873   5.539   5.069  14.226
91678SOL    HW276874   5.558   4.922  14.254
91679SOL     OW76875  14.795   6.874   1.717
91679SOL    HW176876  14.867   6.892   1.778
91679SOL    HW276877  14.716   6.894   1.767
91680SOL     OW76878   6.275   9.313  13.017
91680SOL    HW176879   6.257   9.353  13.103
91680SOL    HW276880   6.353   9.260  13.032
91681SOL     OW76881  11.140  14.738  12.939
91681SOL    HW176882  11.156  14.644  12.950
91681SOL    HW276883  11.146  14.752  12.845
91682SOL     OW76884   2.079  12.241  12.067
91682SOL    HW176885   2.146  12.299  12.030
91682SOL    HW276886   2.124  12.157  12.079
91683SOL     OW76887   3.700  10.885   0.861
91683SOL    HW176888   3.770  10.947   0.842
91683SOL    HW276889   3.666  10.860   0.775
91684SOL     OW76890   3.705   3.396  12.098
91684SOL    HW176891   3.650   3.400  12.020
91684SOL    HW276892   3.781   3.450  12.077
91685SOL     OW76893   3.253   9.013  12.283
91685SOL    HW176894   3.268   9.096  12.328
91685SOL    HW276895   3.233   8.950  12.353
91686SOL     OW76896  13.638   6.739   8.428
91686SOL    HW176897  13.659   6.810   8.367
91686SOL    HW276898  13.582   6.780   8.493
91687SOL     OW76899   3.032  11.434   3.296
91687SOL    HW176900   2.960  11.374   3.275
91687SOL    HW276901   2.993  11.522   3.289
91688SOL     OW76902  11.203   8.365  10.572
91688SOL    HW176903  11.289   8.328  10.555
91688SOL    HW276904  11.148   8.334  10.500
91689SOL     OW76905   2.592   9.707   5.226
91689SOL    HW176906   2.501   9.734   5.238
91689SOL    HW276907   2.610   9.725   5.134
91690SOL     OW76908  10.691   1.498  14.869
91690SOL    HW176909  10.636   1.541   0.056
91690SOL    HW276910  10.636   1.428  14.834
91691SOL     OW76911  10.358  14.229  14.386
91691SOL    HW176912  10.327  14.319  14.371
91691SOL    HW276913  10.342  14.185  14.303
91692SOL     OW76914  12.827   7.476   0.014
91692SOL    HW176915  12.736   7.478  14.862
91692SOL    HW276916  12.834   7.392   0.060
91693SOL     OW76917   8.547   2.121   1.134
91693SOL    HW176918   8.582   2.088   1.217
91693SOL    HW276919   8.510   2.043   1.092
91694SOL     OW76920   1.794  14.549   7.474
91694SOL    HW176921   1.741  14.497   7.534
91694SOL    HW276922   1.733  14.575   7.405
91695SOL     OW76923   0.071  13.107  12.423
91695SOL    HW176924   0.082  13.150  12.339
91695SOL    HW276925   0.060  13.179  12.486
91696SOL     OW76926   1.972   4.713  12.670
91696SOL    HW176927   2.046   4.715  12.730
91696SOL    HW276928   1.944   4.804  12.663
91697SOL     OW76929   2.732   1.097   8.877
91697SOL    HW176930   2.727   1.151   8.956
91697SOL    HW276931   2.750   1.008   8.909
91698SOL     OW76932   3.762   5.252  14.295
91698SOL    HW176933   3.852   5.232  14.272
91698SOL    HW276934   3.759   5.348  14.297
91699SOL     OW76935  11.786   9.567  14.524
91699SOL    HW176936  11.810   9.525  14.441
91699SOL    HW276937  11.778   9.660  14.502
91700SOL     OW76938  14.383   5.624  14.239
91700SOL    HW176939  14.342   5.645  14.155
91700SOL    HW276940  14.469   5.665  14.234
91701SOL     OW76941   3.411  10.698   1.908
91701SOL    HW176942   3.423  10.766   1.841
91701SOL    HW276943   3.407  10.746   1.990
91702SOL     OW76944   6.070  11.542  12.879
91702SOL    HW176945   6.129  11.617  12.871
91702SOL    HW276946   6.034  11.531  12.791
91703SOL     OW76947  11.147   8.692   2.291
91703SOL    HW176948  11.213   8.627   2.269
91703SOL    HW276949  11.133   8.681   2.385
91704SOL     OW76950  12.068   1.282   8.579
91704SOL    HW176951  11.983   1.237   8.568
91704SOL    HW276952  12.130   1.211   8.596
91705SOL     OW76953   4.154  11.054  10.748
91705SOL    HW176954   4.216  11.054  10.674
91705SOL    HW276955   4.167  10.969  10.790
91706SOL     OW76956  10.530   1.373   7.887
91706SOL    HW176957  10.615   1.369   7.843
91706SOL    HW276958  10.494   1.285   7.876
91707SOL     OW76959   7.283   9.903   0.317
91707SOL    HW176960   7.313   9.994   0.316
91707SOL    HW276961   7.250   9.888   0.228
91708SOL     OW76962   8.646   3.456  12.129
91708SOL    HW176963   8.720   3.512  12.153
91708SOL    HW276964   8.680   3.367  12.138
91709SOL     OW76965  11.547  10.778  10.277
91709SOL    HW176966  11.489  10.718  10.324
91709SOL    HW276967  11.564  10.735  10.193
91710SOL     OW76968   5.231   4.859   3.481
91710SOL    HW176969   5.316   4.874   3.523
91710SOL    HW276970   5.205   4.945   3.448
91711SOL     OW76971  11.464   3.335   9.589
91711SOL    HW176972  11.500   3.386   9.516
91711SOL    HW276973  11.512   3.365   9.666
91712SOL     OW76974   7.068   1.428   3.136
91712SOL    HW176975   7.075   1.522   3.152
91712SOL    HW276976   7.158   1.395   3.145
91713SOL     OW76977   8.838  11.390   0.042
91713SOL    HW176978   8.753  11.359   0.010
91713SOL    HW276979   8.831  11.486   0.039
91714SOL     OW76980   5.241   4.132   3.234
91714SOL    HW176981   5.296   4.153   3.310
91714SOL    HW276982   5.155   4.167   3.257
91715SOL     OW76983  13.114  12.224   2.889
91715SOL    HW176984  13.069  12.301   2.923
91715SOL    HW276985  13.059  12.150   2.913
91716SOL     OW76986   2.933   7.680   4.564
91716SOL    HW176987   2.944   7.775   4.559
91716SOL    HW276988   2.914   7.663   4.657
91717SOL     OW76989  13.680   3.782   6.365
91717SOL    HW176990  13.760   3.795   6.416
91717SOL    HW276991  13.620   3.738   6.425
91718SOL     OW76992   3.851   2.517   5.195
91718SOL    HW176993   3.904   2.474   5.262
91718SOL    HW276994   3.905   2.591   5.166
91719SOL     OW76995   4.970  13.545   8.068
91719SOL    HW176996   5.013  13.595   8.137
91719SOL    HW276997   5.018  13.566   7.988
91720SOL     OW76998   6.059  14.020   8.206
91720SOL    HW176999   6.046  13.949   8.143
91720SOL    HW277000   6.025  14.098   8.161
91721SOL     OW77001  10.503  12.144   3.343
91721SOL    HW177002  10.418  12.153   3.386
91721SOL    HW277003  10.511  12.050   3.326
91722SOL     OW77004   5.236   2.925  11.089
91722SOL    HW177005   5.259   2.985  11.160
91722SOL    HW277006   5.163   2.968  11.045
91723SOL     OW77007   1.931   2.058  10.685
91723SOL    HW177008   1.906   2.074  10.776
91723SOL    HW277009   2.024   2.034  10.689
91724SOL     OW77010   5.908  11.338  11.644
91724SOL    HW177011   5.832  11.280  11.639
91724SOL    HW277012   5.893  11.392  11.721
91725SOL     OW77013  12.069   8.533   2.193
91725SOL    HW177014  12.019   8.612   2.214
91725SOL    HW277015  12.158   8.564   2.178
91726SOL     OW77016  10.817   8.239   5.596
91726SOL    HW177017  10.869   8.249   5.675
91726SOL    HW277018  10.820   8.145   5.577
91727SOL     OW77019  14.362  14.307  10.285
91727SOL    HW177020  14.372  14.341  10.374
91727SOL    HW277021  14.450  14.306  10.249
91728SOL     OW77022  13.059   6.321   1.290
91728SOL    HW177023  12.997   6.334   1.361
91728SOL    HW277024  13.111   6.401   1.287
91729SOL     OW77025   1.428   9.292  13.052
91729SOL    HW177026   1.480   9.371  13.067
91729SOL    HW277027   1.483   9.237  12.996
91730SOL     OW77028   5.392  14.584  13.251
91730SOL    HW177029   5.334  14.560  13.179
91730SOL    HW277030   5.477  14.550  13.225
91731SOL     OW77031   0.209   0.657   1.585
91731SOL    HW177032   0.261   0.638   1.506
91731SOL    HW277033   0.141   0.717   1.554
91732SOL     OW77034   6.690   0.444   3.759
91732SOL    HW177035   6.699   0.531   3.796
91732SOL    HW277036   6.661   0.458   3.669
91733SOL     OW77037  11.482  11.105  13.691
91733SOL    HW177038  11.543  11.176  13.711
91733SOL    HW277039  11.488  11.047  13.767
91734SOL     OW77040   4.032   8.441   4.487
91734SOL    HW177041   3.971   8.457   4.558
91734SOL    HW277042   4.023   8.518   4.430
91735SOL     OW77043   5.078  11.570   6.843
91735SOL    HW177044   5.021  11.512   6.893
91735SOL    HW277045   5.020  11.638   6.809
91736SOL     OW77046  13.476  11.486   7.190
91736SOL    HW177047  13.414  11.553   7.218
91736SOL    HW277048  13.434  11.403   7.214
91737SOL     OW77049  14.261   7.407   1.279
91737SOL    HW177050  14.330   7.349   1.245
91737SOL    HW277051  14.191   7.402   1.213
91738SOL     OW77052   5.840   9.688  13.775
91738SOL    HW177053   5.769   9.673  13.713
91738SOL    HW277054   5.799   9.682  13.861
91739SOL     OW77055  12.447  12.982  12.859
91739SOL    HW177056  12.506  13.030  12.917
91739SOL    HW277057  12.504  12.919  12.813
91740SOL     OW77058   1.117   7.070  13.902
91740SOL    HW177059   1.109   6.996  13.842
91740SOL    HW277060   1.058   7.136  13.867
91741SOL     OW77061   8.096   0.690   9.211
91741SOL    HW177062   8.120   0.705   9.303
91741SOL    HW277063   8.159   0.625   9.180
91742SOL     OW77064   1.201  11.918   7.368
91742SOL    HW177065   1.176  11.965   7.288
91742SOL    HW277066   1.171  11.974   7.439
91743SOL     OW77067  11.783  12.175   2.270
91743SOL    HW177068  11.831  12.094   2.256
91743SOL    HW277069  11.850  12.238   2.297
91744SOL     OW77070   8.028   4.610   5.722
91744SOL    HW177071   8.091   4.671   5.761
91744SOL    HW277072   8.058   4.523   5.751
91745SOL     OW77073  13.057  13.671   8.586
91745SOL    HW177074  13.106  13.642   8.663
91745SOL    HW277075  12.966  13.679   8.617
91746SOL     OW77076   3.659   6.229  14.393
91746SOL    HW177077   3.751   6.203  14.397
91746SOL    HW277078   3.636   6.222  14.300
91747SOL     OW77079   4.104  10.670   3.099
91747SOL    HW177080   4.021  10.629   3.123
91747SOL    HW277081   4.080  10.752   3.057
91748SOL     OW77082  10.059   6.023   8.211
91748SOL    HW177083  10.070   5.963   8.285
91748SOL    HW277084  10.071   6.110   8.248
91749SOL     OW77085  13.168  12.019   2.376
91749SOL    HW177086  13.187  12.080   2.447
91749SOL    HW277087  13.208  12.058   2.299
91750SOL     OW77088   7.869   4.619   7.538
91750SOL    HW177089   7.890   4.537   7.492
91750SOL    HW277090   7.927   4.683   7.498
91751SOL     OW77091   0.733   1.593  12.280
91751SOL    HW177092   0.736   1.500  12.305
91751SOL    HW277093   0.779   1.638  12.350
91752SOL     OW77094   1.229   3.114  11.976
91752SOL    HW177095   1.276   3.089  12.056
91752SOL    HW277096   1.137   3.119  12.002
91753SOL     OW77097  14.425   7.530   2.172
91753SOL    HW177098  14.427   7.581   2.253
91753SOL    HW277099  14.332   7.512   2.158
91754SOL     OW77100  11.798   4.913   8.024
91754SOL    HW177101  11.736   4.847   7.993
91754SOL    HW277102  11.884   4.878   8.003
91755SOL     OW77103   5.479   3.880   1.273
91755SOL    HW177104   5.508   3.793   1.245
91755SOL    HW277105   5.519   3.891   1.360
91756SOL     OW77106   1.648  13.762   9.533
91756SOL    HW177107   1.619  13.677   9.498
91756SOL    HW277108   1.616  13.826   9.470
91757SOL     OW77109  10.533   8.547   3.183
91757SOL    HW177110  10.542   8.641   3.166
91757SOL    HW277111  10.507   8.541   3.275
91758SOL     OW77112  14.066  10.414  14.133
91758SOL    HW177113  14.088  10.339  14.189
91758SOL    HW277114  14.149  10.441  14.095
91759SOL     OW77115  14.395   2.220   4.302
91759SOL    HW177116  14.322   2.263   4.347
91759SOL    HW277117  14.424   2.284   4.236
91760SOL     OW77118  14.208  13.721   1.066
91760SOL    HW177119  14.267  13.728   0.991
91760SOL    HW277120  14.120  13.732   1.029
91761SOL     OW77121  13.143   3.328  13.800
91761SOL    HW177122  13.220   3.383  13.811
91761SOL    HW277123  13.115   3.307  13.890
91762SOL     OW77124   1.006   8.370   7.588
91762SOL    HW177125   0.957   8.307   7.534
91762SOL    HW277126   1.097   8.361   7.559
91763SOL     OW77127  11.060   0.085   0.278
91763SOL    HW177128  10.982   0.141   0.272
91763SOL    HW277129  11.026  14.878   0.298
91764SOL     OW77130  12.773   0.374  13.287
91764SOL    HW177131  12.836   0.383  13.215
91764SOL    HW277132  12.699   0.328  13.248
91765SOL     OW77133   5.579   5.645   1.450
91765SOL    HW177134   5.553   5.737   1.443
91765SOL    HW277135   5.654   5.637   1.391
91766SOL     OW77136   4.562   6.118   4.605
91766SOL    HW177137   4.510   6.169   4.543
91766SOL    HW277138   4.558   6.169   4.686
91767SOL     OW77139   3.346   3.089  12.227
91767SOL    HW177140   3.440   3.099  12.241
91767SOL    HW277141   3.310   3.177  12.239
91768SOL     OW77142  11.649  11.851  10.863
91768SOL    HW177143  11.624  11.759  10.866
91768SOL    HW277144  11.634  11.877  10.772
91769SOL     OW77145   5.309   5.074   0.512
91769SOL    HW177146   5.273   5.159   0.484
91769SOL    HW277147   5.335   5.088   0.603
91770SOL     OW77148  10.129  12.864   3.507
91770SOL    HW177149  10.155  12.822   3.426
91770SOL    HW277150  10.038  12.837   3.520
91771SOL     OW77151   3.432   8.403   2.112
91771SOL    HW177152   3.443   8.310   2.134
91771SOL    HW277153   3.395   8.442   2.192
91772SOL     OW77154   7.009  11.284   1.016
91772SOL    HW177155   6.966  11.268   1.100
91772SOL    HW277156   7.103  11.279   1.036
91773SOL     OW77157  10.121   4.336   9.266
91773SOL    HW177158  10.169   4.379   9.196
91773SOL    HW277159  10.075   4.407   9.311
91774SOL     OW77160   0.051  13.126   8.804
91774SOL    HW177161   0.139  13.164   8.808
91774SOL    HW277162   0.043  13.076   8.886
91775SOL     OW77163   6.166   6.947   8.731
91775SOL    HW177164   6.192   7.034   8.701
91775SOL    HW277165   6.115   6.963   8.810
91776SOL     OW77166  12.113   8.601   5.241
91776SOL    HW177167  12.095   8.689   5.209
91776SOL    HW277168  12.092   8.544   5.168
91777SOL     OW77169   9.955  13.558   0.821
91777SOL    HW177170   9.913  13.519   0.745
91777SOL    HW277171   9.927  13.649   0.820
91778SOL     OW77172   7.877   6.884  12.083
91778SOL    HW177173   7.888   6.789  12.081
91778SOL    HW277174   7.854   6.908  11.993
91779SOL     OW77175  13.151   6.871   6.776
91779SOL    HW177176  13.172   6.856   6.683
91779SOL    HW277177  13.176   6.790   6.820
91780SOL     OW77178   7.179   7.343   9.628
91780SOL    HW177179   7.202   7.286   9.701
91780SOL    HW277180   7.110   7.400   9.662
91781SOL     OW77181   2.251   9.263   9.903
91781SOL    HW177182   2.292   9.186   9.862
91781SOL    HW277183   2.175   9.228   9.949
91782SOL     OW77184  14.172  11.451   4.910
91782SOL    HW177185  14.161  11.449   5.005
91782SOL    HW277186  14.085  11.429   4.876
91783SOL     OW77187   2.617   3.675   6.564
91783SOL    HW177188   2.573   3.756   6.537
91783SOL    HW277189   2.618   3.679   6.660
91784SOL     OW77190   5.817  12.425   9.555
91784SOL    HW177191   5.865  12.344   9.538
91784SOL    HW277192   5.796  12.459   9.468
91785SOL     OW77193   3.268   6.742  12.401
91785SOL    HW177194   3.259   6.669  12.462
91785SOL    HW277195   3.178   6.762  12.375
91786SOL     OW77196  12.310   6.328   4.124
91786SOL    HW177197  12.274   6.308   4.038
91786SOL    HW277198  12.403   6.307   4.117
91787SOL     OW77199   1.385  10.076   1.305
91787SOL    HW177200   1.323  10.003   1.308
91787SOL    HW277201   1.461  10.040   1.259
91788SOL     OW77202  12.500  12.053   5.996
91788SOL    HW177203  12.560  12.029   5.925
91788SOL    HW277204  12.557  12.068   6.072
91789SOL     OW77205   4.327   3.010   0.605
91789SOL    HW177206   4.321   3.084   0.545
91789SOL    HW277207   4.421   3.000   0.621
91790SOL     OW77208   0.743  11.603  13.570
91790SOL    HW177209   0.832  11.615  13.601
91790SOL    HW277210   0.690  11.602  13.649
91791SOL     OW77211   3.514  14.460   4.151
91791SOL    HW177212   3.475  14.410   4.222
91791SOL    HW277213   3.557  14.534   4.194
91792SOL     OW77214   8.090  14.212  10.933
91792SOL    HW177215   8.022  14.157  10.893
91792SOL    HW277216   8.086  14.294  10.883
91793SOL     OW77217   6.450   6.058  11.095
91793SOL    HW177218   6.469   5.966  11.115
91793SOL    HW277219   6.480   6.106  11.172
91794SOL     OW77220  13.058   5.173   0.176
91794SOL    HW177221  13.042   5.224   0.255
91794SOL    HW277222  13.114   5.229   0.122
91795SOL     OW77223  11.314   8.117   6.627
91795SOL    HW177224  11.297   8.032   6.666
91795SOL    HW277225  11.228   8.152   6.604
91796SOL     OW77226   5.631  10.946  11.219
91796SOL    HW177227   5.679  10.889  11.277
91796SOL    HW277228   5.669  11.033  11.233
91797SOL     OW77229   4.882   7.303  11.570
91797SOL    HW177230   4.866   7.256  11.488
91797SOL    HW277231   4.922   7.239  11.628
91798SOL     OW77232   9.503   0.771   8.035
91798SOL    HW177233   9.544   0.724   7.964
91798SOL    HW277234   9.575   0.813   8.081
91799SOL     OW77235   4.594   1.014   8.047
91799SOL    HW177236   4.518   1.037   8.101
91799SOL    HW277237   4.664   1.072   8.078
91800SOL     OW77238  12.822  14.048  11.813
91800SOL    HW177239  12.789  14.114  11.874
91800SOL    HW277240  12.908  14.081  11.787
91801SOL     OW77241   6.195  12.626   2.420
91801SOL    HW177242   6.282  12.628   2.380
91801SOL    HW277243   6.208  12.576   2.501
91802SOL     OW77244  13.713  11.110   4.581
91802SOL    HW177245  13.735  11.029   4.536
91802SOL    HW277246  13.735  11.094   4.672
91803SOL     OW77247  10.530  14.340   3.962
91803SOL    HW177248  10.452  14.296   3.930
91803SOL    HW277249  10.597  14.271   3.968
91804SOL     OW77250   5.761   0.554   6.855
91804SOL    HW177251   5.684   0.607   6.833
91804SOL    HW277252   5.823   0.616   6.892
91805SOL     OW77253   6.831  14.683   0.705
91805SOL    HW177254   6.848  14.603   0.755
91805SOL    HW277255   6.880  14.672   0.624
91806SOL     OW77256  13.267   5.227   4.622
91806SOL    HW177257  13.329   5.157   4.643
91806SOL    HW277258  13.323   5.301   4.596
91807SOL     OW77259   2.755   5.061  11.180
91807SOL    HW177260   2.770   5.128  11.114
91807SOL    HW277261   2.776   4.979  11.136
91808SOL     OW77262  13.808   5.988  11.835
91808SOL    HW177263  13.746   6.060  11.842
91808SOL    HW277264  13.893   6.028  11.853
91809SOL     OW77265   5.700   3.464  12.114
91809SOL    HW177266   5.614   3.505  12.102
91809SOL    HW277267   5.716   3.470  12.208
91810SOL     OW77268   9.024   3.112  11.329
91810SOL    HW177269   8.997   3.172  11.259
91810SOL    HW277270   8.972   3.033  11.314
91811SOL     OW77271  10.165  10.498   8.303
91811SOL    HW177272  10.117  10.523   8.224
91811SOL    HW277273  10.100  10.499   8.372
91812SOL     OW77274  10.432  12.861  14.636
91812SOL    HW177275  10.379  12.812  14.699
91812SOL    HW277276  10.423  12.811  14.554
91813SOL     OW77277  12.471   7.393  10.316
91813SOL    HW177278  12.529   7.388  10.391
91813SOL    HW277279  12.527   7.373  10.240
91814SOL     OW77280   0.629   5.172  10.283
91814SOL    HW177281   0.617   5.199  10.192
91814SOL    HW277282   0.724   5.174  10.296
91815SOL     OW77283   2.139  10.404   3.099
91815SOL    HW177284   2.205  10.339   3.073
91815SOL    HW277285   2.175  10.443   3.179
91816SOL     OW77286  10.788  10.234  13.190
91816SOL    HW177287  10.850  10.210  13.121
91816SOL    HW277288  10.719  10.168  13.184
91817SOL     OW77289   0.637   8.603   6.312
91817SOL    HW177290   0.558   8.550   6.322
91817SOL    HW277291   0.604   8.693   6.303
91818SOL     OW77292   2.968  13.928  13.672
91818SOL    HW177293   3.016  13.979  13.738
91818SOL    HW277294   2.885  13.975  13.662
91819SOL     OW77295   3.232   7.546  11.628
91819SOL    HW177296   3.307   7.606  11.628
91819SOL    HW277297   3.202   7.545  11.718
91820SOL     OW77298  10.800  13.595   2.961
91820SOL    HW177299  10.770  13.672   2.913
91820SOL    HW277300  10.765  13.607   3.049
91821SOL     OW77301  11.543  14.750  10.759
91821SOL    HW177302  11.507  14.662  10.772
91821SOL    HW277303  11.625  14.749  10.808
91822SOL     OW77304   5.251  10.875  14.834
91822SOL    HW177305   5.258  10.793  14.785
91822SOL    HW277306   5.326  10.873   0.013
91823SOL     OW77307  10.963  12.772  13.537
91823SOL    HW177308  10.889  12.729  13.579
91823SOL    HW277309  11.038  12.752  13.593
91824SOL     OW77310   8.293   5.329  14.203
91824SOL    HW177311   8.268   5.409  14.156
91824SOL    HW277312   8.327   5.271  14.135
91825SOL     OW77313   8.510  11.452   9.450
91825SOL    HW177314   8.416  11.461   9.463
91825SOL    HW277315   8.520  11.409   9.365
91826SOL     OW77316   3.050   1.636   2.627
91826SOL    HW177317   3.092   1.672   2.549
91826SOL    HW277318   3.117   1.582   2.668
91827SOL     OW77319  13.796   3.815   4.373
91827SOL    HW177320  13.874   3.869   4.389
91827SOL    HW277321  13.722   3.872   4.394
91828SOL     OW77322   1.473   2.922   3.109
91828SOL    HW177323   1.495   2.850   3.050
91828SOL    HW277324   1.453   2.995   3.051
91829SOL     OW77325   9.055   7.720   0.645
91829SOL    HW177326   9.117   7.760   0.584
91829SOL    HW277327   9.029   7.638   0.602
91830SOL     OW77328   4.113   7.732   4.411
91830SOL    HW177329   4.150   7.817   4.387
91830SOL    HW277330   4.078   7.746   4.499
91831SOL     OW77331  14.395   6.577  14.715
91831SOL    HW177332  14.482   6.606  14.742
91831SOL    HW277333  14.376   6.503  14.772
91832SOL     OW77334  12.137  14.819   4.281
91832SOL    HW177335  12.202  14.867   4.334
91832SOL    HW277336  12.132  14.733   4.322
91833SOL     OW77337   1.466   6.504   2.470
91833SOL    HW177338   1.521   6.583   2.463
91833SOL    HW277339   1.426   6.511   2.557
91834SOL     OW77340  12.698  13.755   6.626
91834SOL    HW177341  12.723  13.719   6.711
91834SOL    HW277342  12.604  13.740   6.620
91835SOL     OW77343   6.336   2.275   4.038
91835SOL    HW177344   6.396   2.204   4.017
91835SOL    HW277345   6.313   2.261   4.130
91836SOL     OW77346   3.421  11.317   7.997
91836SOL    HW177347   3.474  11.270   8.061
91836SOL    HW277348   3.361  11.250   7.962
91837SOL     OW77349  10.467   2.440  12.327
91837SOL    HW177350  10.542   2.451  12.268
91837SOL    HW277351  10.503   2.448  12.415
91838SOL     OW77352   4.402  14.649   0.942
91838SOL    HW177353   4.315  14.681   0.966
91838SOL    HW277354   4.403  14.652   0.846
91839SOL     OW77355   5.885   3.300   7.217
91839SOL    HW177356   5.901   3.234   7.285
91839SOL    HW277357   5.961   3.295   7.160
91840SOL     OW77358   4.568   5.793  13.146
91840SOL    HW177359   4.527   5.841  13.075
91840SOL    HW277360   4.576   5.703  13.113
91841SOL     OW77361   3.229   8.750   8.095
91841SOL    HW177362   3.155   8.689   8.092
91841SOL    HW277363   3.304   8.698   8.066
91842SOL     OW77364  14.580   7.419  14.540
91842SOL    HW177365  14.581   7.501  14.588
91842SOL    HW277366  14.488   7.404  14.519
91843SOL     OW77367  13.675   4.337  10.176
91843SOL    HW177368  13.661   4.292  10.093
91843SOL    HW277369  13.591   4.329  10.222
91844SOL     OW77370   3.904   3.248   1.277
91844SOL    HW177371   3.834   3.249   1.343
91844SOL    HW277372   3.979   3.210   1.323
91845SOL     OW77373  13.840   0.267   1.651
91845SOL    HW177374  13.769   0.302   1.705
91845SOL    HW277375  13.802   0.260   1.564
91846SOL     OW77376   9.560   5.689   7.445
91846SOL    HW177377   9.567   5.670   7.539
91846SOL    HW277378   9.466   5.697   7.429
91847SOL     OW77379  10.311   1.730  14.378
91847SOL    HW177380  10.324   1.821  14.405
91847SOL    HW277381  10.399   1.698  14.358
91848SOL     OW77382   5.382   5.796   5.198
91848SOL    HW177383   5.295   5.800   5.237
91848SOL    HW277384   5.409   5.887   5.189
91849SOL     OW77385   9.616   0.733   4.018
91849SOL    HW177386   9.672   0.681   4.076
91849SOL    HW277387   9.551   0.671   3.986
91850SOL     OW77388   6.123  10.646   5.930
91850SOL    HW177389   6.047  10.705   5.923
91850SOL    HW277390   6.177  10.685   5.998
91851SOL     OW77391   8.964   1.530  10.537
91851SOL    HW177392   8.916   1.608  10.567
91851SOL    HW277393   8.898   1.477  10.492
91852SOL     OW77394   6.453  13.156   4.640
91852SOL    HW177395   6.433  13.128   4.551
91852SOL    HW277396   6.371  13.143   4.688
91853SOL     OW77397   8.439  13.680   8.015
91853SOL    HW177398   8.481  13.660   7.931
91853SOL    HW277399   8.466  13.770   8.034
91854SOL     OW77400   4.355   0.927   3.964
91854SOL    HW177401   4.426   0.985   3.937
91854SOL    HW277402   4.397   0.864   4.023
91855SOL     OW77403   7.684   6.149  12.304
91855SOL    HW177404   7.632   6.188  12.234
91855SOL    HW277405   7.731   6.077  12.262
91856SOL     OW77406  10.563   4.957   9.348
91856SOL    HW177407  10.624   4.890   9.319
91856SOL    HW277408  10.528   4.994   9.266
91857SOL     OW77409  12.263   1.902  14.411
91857SOL    HW177410  12.267   1.855  14.494
91857SOL    HW277411  12.353   1.902  14.379
91858SOL     OW77412   9.917  13.818   1.627
91858SOL    HW177413   9.874  13.742   1.589
91858SOL    HW277414   9.890  13.819   1.718
91859SOL     OW77415   0.185   1.169   4.352
91859SOL    HW177416   0.199   1.251   4.306
91859SOL    HW277417   0.269   1.149   4.393
91860SOL     OW77418  11.707  12.437   2.790
91860SOL    HW177419  11.641  12.504   2.770
91860SOL    HW277420  11.775  12.485   2.837
91861SOL     OW77421   9.774   8.984  11.380
91861SOL    HW177422   9.755   8.930  11.456
91861SOL    HW277423   9.809   8.923  11.315
91862SOL     OW77424   1.000   4.143  14.514
91862SOL    HW177425   1.000   4.144  14.418
91862SOL    HW277426   0.987   4.234  14.539
91863SOL     OW77427   6.400  12.810   1.846
91863SOL    HW177428   6.348  12.744   1.891
91863SOL    HW277429   6.482  12.766   1.825
91864SOL     OW77430  14.540   4.611   5.867
91864SOL    HW177431  14.630   4.644   5.866
91864SOL    HW277432  14.490   4.680   5.910
91865SOL     OW77433  11.014   7.534   7.366
91865SOL    HW177434  10.954   7.594   7.321
91865SOL    HW277435  10.959   7.465   7.401
91866SOL     OW77436   7.681   2.106   3.872
91866SOL    HW177437   7.690   2.035   3.935
91866SOL    HW277438   7.598   2.147   3.894
91867SOL     OW77439   6.187  14.705   0.014
91867SOL    HW177440   6.119  14.769  14.871
91867SOL    HW277441   6.193  14.709   0.109
91868SOL     OW77442  11.501   2.973  13.867
91868SOL    HW177443  11.521   3.056  13.823
91868SOL    HW277444  11.586   2.941  13.898
91869SOL     OW77445   8.465  12.985   3.447
91869SOL    HW177446   8.426  12.897   3.453
91869SOL    HW277447   8.391  13.044   3.460
91870SOL     OW77448  10.879   9.471  11.612
91870SOL    HW177449  10.904   9.421  11.689
91870SOL    HW277450  10.892   9.410  11.539
91871SOL     OW77451   5.837   3.100  10.103
91871SOL    HW177452   5.818   3.192  10.123
91871SOL    HW277453   5.771   3.051  10.152
91872SOL     OW77454   4.878   9.152   9.162
91872SOL    HW177455   4.917   9.231   9.199
91872SOL    HW277456   4.803   9.134   9.218
91873SOL     OW77457  12.840   6.462   1.419
91873SOL    HW177458  12.828   6.519   1.344
91873SOL    HW277459  12.863   6.521   1.491
91874SOL     OW77460  14.748  12.598   9.856
91874SOL    HW177461  14.739  12.507   9.883
91874SOL    HW277462  14.810  12.597   9.783
91875SOL     OW77463   1.680   0.718   5.665
91875SOL    HW177464   1.595   0.749   5.696
91875SOL    HW277465   1.736   0.721   5.742
91876SOL     OW77466   1.532  11.784  11.061
91876SOL    HW177467   1.535  11.875  11.029
91876SOL    HW277468   1.585  11.785  11.140
91877SOL     OW77469   3.169   4.380   1.140
91877SOL    HW177470   3.168   4.402   1.234
91877SOL    HW277471   3.108   4.443   1.101
91878SOL     OW77472   6.839   3.637   6.886
91878SOL    HW177473   6.837   3.733   6.881
91878SOL    HW277474   6.769   3.609   6.827
91879SOL     OW77475   4.527   8.270  12.012
91879SOL    HW177476   4.609   8.225  12.034
91879SOL    HW277477   4.521   8.264  11.917
91880SOL     OW77478   1.978   4.255   5.998
91880SOL    HW177479   1.921   4.236   5.923
91880SOL    HW277480   2.067   4.248   5.964
91881SOL     OW77481   4.545   6.629   1.567
91881SOL    HW177482   4.539   6.563   1.636
91881SOL    HW277483   4.637   6.653   1.564
91882SOL     OW77484   1.092  10.483  14.342
91882SOL    HW177485   1.118  10.432  14.418
91882SOL    HW277486   0.997  10.468  14.334
91883SOL     OW77487   9.831   5.157  14.129
91883SOL    HW177488   9.901   5.098  14.100
91883SOL    HW277489   9.751   5.119  14.092
91884SOL     OW77490  14.798   5.180  13.010
91884SOL    HW177491  14.756   5.103  13.048
91884SOL    HW277492  14.792   5.166  12.915
91885SOL     OW77493   4.523   6.750  11.201
91885SOL    HW177494   4.468   6.822  11.231
91885SOL    HW277495   4.469   6.671  11.213
91886SOL     OW77496  10.726  11.089   7.758
91886SOL    HW177497  10.674  11.014   7.786
91886SOL    HW277498  10.816  11.055   7.754
91887SOL     OW77499   0.931   0.433   3.723
91887SOL    HW177500   0.930   0.453   3.629
91887SOL    HW277501   0.866   0.363   3.732
91888SOL     OW77502  13.710   9.690   3.455
91888SOL    HW177503  13.769   9.721   3.386
91888SOL    HW277504  13.717   9.756   3.524
91889SOL     OW77505  13.864   7.598   1.690
91889SOL    HW177506  13.862   7.594   1.594
91889SOL    HW277507  13.781   7.557   1.717
91890SOL     OW77508  14.630  14.865   9.259
91890SOL    HW177509  14.718   0.021   9.252
91890SOL    HW277510  14.595   0.023   9.340
91891SOL     OW77511  10.809  11.229   8.816
91891SOL    HW177512  10.882  11.254   8.760
91891SOL    HW277513  10.762  11.310   8.833
91892SOL     OW77514   2.079  10.491   2.358
91892SOL    HW177515   2.020  10.432   2.405
91892SOL    HW277516   2.027  10.523   2.284
91893SOL     OW77517   0.734  10.007   4.741
91893SOL    HW177518   0.787   9.945   4.791
91893SOL    HW277519   0.766  10.000   4.651
91894SOL     OW77520   7.958  13.655   9.349
91894SOL    HW177521   7.988  13.583   9.404
91894SOL    HW277522   8.031  13.673   9.290
91895SOL     OW77523   1.142   5.091   5.868
91895SOL    HW177524   1.099   5.122   5.948
91895SOL    HW277525   1.085   5.122   5.797
91896SOL     OW77526   4.014   5.284  12.506
91896SOL    HW177527   3.959   5.269  12.429
91896SOL    HW277528   3.978   5.362  12.548
91897SOL     OW77529   0.253   2.622  14.762
91897SOL    HW177530   0.203   2.558  14.813
91897SOL    HW277531   0.208   2.705  14.778
91898SOL     OW77532   2.876  14.650  14.128
91898SOL    HW177533   2.898  14.598  14.206
91898SOL    HW277534   2.961  14.677  14.094
91899SOL     OW77535  11.538   1.394   6.572
91899SOL    HW177536  11.443   1.406   6.565
91899SOL    HW277537  11.549   1.345   6.654
91900SOL     OW77538   6.192  13.427  14.483
91900SOL    HW177539   6.271  13.373  14.489
91900SOL    HW277540   6.194  13.464  14.395
91901SOL     OW77541   5.652   9.740  13.973
91901SOL    HW177542   5.572   9.788  13.993
91901SOL    HW277543   5.656   9.672  14.041
91902SOL     OW77544   6.153  13.680   1.748
91902SOL    HW177545   6.176  13.606   1.691
91902SOL    HW277546   6.123  13.639   1.829
91903SOL     OW77547   8.636   6.570   6.698
91903SOL    HW177548   8.624   6.539   6.608
91903SOL    HW277549   8.549   6.599   6.726
91904SOL     OW77550  13.044   9.508   8.727
91904SOL    HW177551  12.953   9.497   8.754
91904SOL    HW277552  13.077   9.579   8.782
91905SOL     OW77553   0.394   1.453   9.894
91905SOL    HW177554   0.332   1.380   9.902
91905SOL    HW277555   0.388   1.480   9.802
91906SOL     OW77556  14.514   7.072   6.480
91906SOL    HW177557  14.423   7.089   6.456
91906SOL    HW277558  14.531   7.131   6.554
91907SOL     OW77559  14.499   8.940   2.222
91907SOL    HW177560  14.471   8.897   2.141
91907SOL    HW277561  14.504   9.033   2.199
91908SOL     OW77562   1.152   8.291  12.682
91908SOL    HW177563   1.210   8.364  12.663
91908SOL    HW277564   1.165   8.273  12.775
91909SOL     OW77565  11.231  10.430   1.440
91909SOL    HW177566  11.275  10.346   1.456
91909SOL    HW277567  11.201  10.425   1.350
91910SOL     OW77568  11.113  10.798  12.360
91910SOL    HW177569  11.140  10.778  12.271
91910SOL    HW277570  11.098  10.892  12.361
91911SOL     OW77571   4.790   7.904   8.269
91911SOL    HW177572   4.828   7.992   8.278
91911SOL    HW277573   4.845   7.861   8.204
91912SOL     OW77574   7.195  11.918  13.392
91912SOL    HW177575   7.123  11.860  13.417
91912SOL    HW277576   7.210  11.972  13.470
91913SOL     OW77577  14.848  12.670   1.507
91913SOL    HW177578  14.797  12.641   1.431
91913SOL    HW277579  14.814  12.618   1.580
91914SOL     OW77580   1.844   7.052   3.439
91914SOL    HW177581   1.846   6.958   3.420
91914SOL    HW277582   1.857   7.094   3.355
91915SOL     OW77583   3.098  12.143   3.889
91915SOL    HW177584   3.047  12.124   3.810
91915SOL    HW277585   3.189  12.131   3.862
91916SOL     OW77586   6.683   1.478   3.767
91916SOL    HW177587   6.657   1.411   3.830
91916SOL    HW277588   6.741   1.433   3.707
91917SOL     OW77589   0.606   8.605   5.944
91917SOL    HW177590   0.612   8.604   6.040
91917SOL    HW277591   0.598   8.513   5.920
91918SOL     OW77592  13.816  14.285  10.193
91918SOL    HW177593  13.907  14.266  10.213
91918SOL    HW277594  13.817  14.370  10.150
91919SOL     OW77595   4.195   4.328  11.200
91919SOL    HW177596   4.170   4.375  11.280
91919SOL    HW277597   4.123   4.267  11.186
91920SOL     OW77598  12.771   2.972   4.607
91920SOL    HW177599  12.779   3.064   4.632
91920SOL    HW277600  12.709   2.935   4.670
91921SOL     OW77601   7.148   9.354  11.966
91921SOL    HW177602   7.206   9.416  11.922
91921SOL    HW277603   7.167   9.365  12.059
91922SOL     OW77604  14.648  10.260   3.520
91922SOL    HW177605  14.585  10.295   3.456
91922SOL    HW277606  14.612  10.174   3.543
91923SOL     OW77607  12.455  13.685  11.705
91923SOL    HW177608  12.390  13.754  11.719
91923SOL    HW277609  12.539  13.731  11.709
91924SOL     OW77610   7.139  11.203   6.142
91924SOL    HW177611   7.176  11.127   6.097
91924SOL    HW277612   7.155  11.276   6.081
91925SOL     OW77613  10.159   1.378  14.801
91925SOL    HW177614  10.198   1.445  14.745
91925SOL    HW277615  10.103   1.425  14.862
91926SOL     OW77616   9.191  13.067  14.728
91926SOL    HW177617   9.129  13.139  14.743
91926SOL    HW277618   9.152  13.017  14.656
91927SOL     OW77619   0.730   5.755  13.620
91927SOL    HW177620   0.823   5.735  13.629
91927SOL    HW277621   0.713   5.820  13.689
91928SOL     OW77622   9.269  14.343   3.290
91928SOL    HW177623   9.309  14.305   3.368
91928SOL    HW277624   9.176  14.325   3.300
91929SOL     OW77625   0.531   6.645   1.728
91929SOL    HW177626   0.551   6.604   1.813
91929SOL    HW277627   0.486   6.726   1.751
91930SOL     OW77628  11.441   4.315  13.569
91930SOL    HW177629  11.449   4.318  13.664
91930SOL    HW277630  11.382   4.242  13.552
91931SOL     OW77631   6.915   8.060   9.728
91931SOL    HW177632   6.871   8.009   9.660
91931SOL    HW277633   6.854   8.132   9.747
91932SOL     OW77634   8.455   2.513   3.678
91932SOL    HW177635   8.404   2.456   3.621
91932SOL    HW277636   8.403   2.519   3.759
91933SOL     OW77637   8.578   1.551  13.040
91933SOL    HW177638   8.641   1.532  13.109
91933SOL    HW277639   8.519   1.616  13.078
91934SOL     OW77640   8.256   6.309   2.352
91934SOL    HW177641   8.336   6.360   2.334
91934SOL    HW277642   8.280   6.251   2.424
91935SOL     OW77643  10.255   3.970   5.082
91935SOL    HW177644  10.324   3.905   5.076
91935SOL    HW277645  10.287   4.044   5.030
91936SOL     OW77646   4.644   4.859  14.820
91936SOL    HW177647   4.726   4.819  14.850
91936SOL    HW277648   4.635   4.830  14.729
91937SOL     OW77649  10.344  10.445   0.905
91937SOL    HW177650  10.402  10.399   0.844
91937SOL    HW277651  10.258  10.438   0.866
91938SOL     OW77652  13.921   2.834   3.739
91938SOL    HW177653  13.856   2.879   3.686
91938SOL    HW277654  13.880   2.822   3.824
91939SOL     OW77655   8.822  14.273   9.597
91939SOL    HW177656   8.913  14.301   9.602
91939SOL    HW277657   8.805  14.260   9.504
91940SOL     OW77658   9.238   0.580   1.880
91940SOL    HW177659   9.234   0.671   1.911
91940SOL    HW277660   9.330   0.556   1.890
91941SOL     OW77661   7.478  12.988   9.150
91941SOL    HW177662   7.419  12.969   9.077
91941SOL    HW277663   7.433  12.955   9.227
91942SOL     OW77664   5.723   6.044   6.703
91942SOL    HW177665   5.814   6.058   6.728
91942SOL    HW277666   5.683   6.003   6.779
91943SOL     OW77667   5.942   9.723  12.448
91943SOL    HW177668   5.963   9.807  12.489
91943SOL    HW277669   6.012   9.664  12.476
91944SOL     OW77670   1.817   1.337  12.357
91944SOL    HW177671   1.729   1.367  12.380
91944SOL    HW277672   1.843   1.394  12.285
91945SOL     OW77673   9.869   8.948  11.001
91945SOL    HW177674   9.787   8.980  11.039
91945SOL    HW277675   9.865   8.975  10.909
91946SOL     OW77676  11.805  12.408  11.994
91946SOL    HW177677  11.841  12.437  12.078
91946SOL    HW277678  11.711  12.404  12.008
91947SOL     OW77679  12.703   5.040  11.491
91947SOL    HW177680  12.783   5.089  11.508
91947SOL    HW277681  12.734   4.954  11.462
91948SOL     OW77682   8.629   8.564   6.595
91948SOL    HW177683   8.564   8.568   6.525
91948SOL    HW277684   8.643   8.470   6.609
91949SOL     OW77685  12.238   4.090   7.079
91949SOL    HW177686  12.238   3.995   7.081
91949SOL    HW277687  12.255   4.112   6.987
91950SOL     OW77688   6.529   2.581  12.483
91950SOL    HW177689   6.590   2.511  12.504
91950SOL    HW277690   6.447   2.536  12.462
91951SOL     OW77691   3.043   8.729   0.189
91951SOL    HW177692   3.089   8.652   0.222
91951SOL    HW277693   3.044   8.790   0.262
91952SOL     OW77694   8.557  14.668  12.134
91952SOL    HW177695   8.649  14.686  12.151
91952SOL    HW277696   8.554  14.649  12.040
91953SOL     OW77697  10.119  13.762  13.136
91953SOL    HW177698  10.175  13.695  13.174
91953SOL    HW277699  10.178  13.836  13.120
91954SOL     OW77700   8.784   3.787  14.012
91954SOL    HW177701   8.865   3.838  14.017
91954SOL    HW277702   8.715   3.853  14.003
91955SOL     OW77703   5.338   3.809   2.003
91955SOL    HW177704   5.330   3.733   2.060
91955SOL    HW277705   5.432   3.823   1.994
91956SOL     OW77706  10.916  10.586   0.014
91956SOL    HW177707  10.893  10.626  14.810
91956SOL    HW277708  10.933  10.661   0.071
91957SOL     OW77709  13.435   3.106   2.031
91957SOL    HW177710  13.425   3.044   1.960
91957SOL    HW277711  13.519   3.150   2.014
91958SOL     OW77712   4.926   9.011   7.118
91958SOL    HW177713   4.940   8.930   7.168
91958SOL    HW277714   4.873   8.983   7.043
91959SOL     OW77715  10.243   1.550  13.795
91959SOL    HW177716  10.232   1.474  13.738
91959SOL    HW277717  10.154   1.573  13.821
91960SOL     OW77718  14.417  12.737   4.350
91960SOL    HW177719  14.397  12.815   4.298
91960SOL    HW277720  14.338  12.684   4.346
91961SOL     OW77721   9.232   2.564   3.437
91961SOL    HW177722   9.283   2.517   3.370
91961SOL    HW277723   9.149   2.584   3.394
91962SOL     OW77724  10.797   3.486  10.005
91962SOL    HW177725  10.886   3.523  10.007
91962SOL    HW277726  10.750   3.533  10.073
91963SOL     OW77727  13.350   2.993  14.526
91963SOL    HW177728  13.399   3.019  14.604
91963SOL    HW277729  13.406   3.020  14.453
91964SOL     OW77730  11.156   6.386  13.295
91964SOL    HW177731  11.168   6.454  13.362
91964SOL    HW277732  11.118   6.432  13.220
91965SOL     OW77733   5.038   8.025   0.617
91965SOL    HW177734   5.074   8.006   0.704
91965SOL    HW277735   4.949   7.991   0.619
91966SOL     OW77736  11.905   5.147   9.283
91966SOL    HW177737  11.829   5.191   9.245
91966SOL    HW277738  11.906   5.176   9.374
91967SOL     OW77739   5.736   1.324  12.961
91967SOL    HW177740   5.792   1.267  13.013
91967SOL    HW277741   5.676   1.265  12.916
91968SOL     OW77742   5.324  12.959   0.276
91968SOL    HW177743   5.376  12.901   0.331
91968SOL    HW277744   5.288  13.024   0.336
91969SOL     OW77745  12.028   7.785   1.551
91969SOL    HW177746  12.058   7.788   1.460
91969SOL    HW277747  12.043   7.694   1.577
91970SOL     OW77748  12.694   6.329  14.387
91970SOL    HW177749  12.744   6.396  14.340
91970SOL    HW277750  12.635   6.380  14.444
91971SOL     OW77751   9.175   3.839   8.784
91971SOL    HW177752   9.093   3.857   8.831
91971SOL    HW277753   9.200   3.923   8.746
91972SOL     OW77754   0.066   5.981   6.803
91972SOL    HW177755   0.127   6.034   6.854
91972SOL    HW277756   0.105   5.977   6.716
91973SOL     OW77757  13.674  12.895  12.269
91973SOL    HW177758  13.669  12.907  12.364
91973SOL    HW277759  13.659  12.801  12.256
91974SOL     OW77760   0.610   1.103   7.105
91974SOL    HW177761   0.530   1.129   7.150
91974SOL    HW277762   0.681   1.143   7.156
91975SOL     OW77763   9.050   8.131   5.267
91975SOL    HW177764   8.983   8.062   5.267
91975SOL    HW277765   9.078   8.137   5.359
91976SOL     OW77766   9.620  10.546   2.232
91976SOL    HW177767   9.541  10.599   2.240
91976SOL    HW277768   9.637  10.542   2.138
91977SOL     OW77769   2.434  12.640  13.295
91977SOL    HW177770   2.482  12.558  13.305
91977SOL    HW277771   2.406  12.663  13.384
91978SOL     OW77772   5.970   3.674  12.628
91978SOL    HW177773   5.951   3.765  12.649
91978SOL    HW277774   5.996   3.676  12.535
91979SOL     OW77775   1.826   1.431   0.075
91979SOL    HW177776   1.759   1.475   0.128
91979SOL    HW277777   1.777   1.387   0.006
91980SOL     OW77778   9.274   9.274  10.322
91980SOL    HW177779   9.254   9.364  10.347
91980SOL    HW277780   9.207   9.251  10.258
91981SOL     OW77781  13.489   9.850  10.974
91981SOL    HW177782  13.541   9.803  11.039
91981SOL    HW277783  13.475   9.787  10.904
91982SOL     OW77784  13.931   5.801   7.651
91982SOL    HW177785  13.994   5.857   7.607
91982SOL    HW277786  13.848   5.847   7.644
91983SOL     OW77787  12.837   1.681   9.155
91983SOL    HW177788  12.906   1.745   9.171
91983SOL    HW277789  12.850   1.613   9.222
91984SOL     OW77790  13.039   4.194   6.632
91984SOL    HW177791  13.101   4.156   6.569
91984SOL    HW277792  13.024   4.123   6.695
91985SOL     OW77793   9.445   0.360   4.373
91985SOL    HW177794   9.456   0.283   4.316
91985SOL    HW277795   9.350   0.370   4.381
91986SOL     OW77796   6.785   0.554   7.905
91986SOL    HW177797   6.756   0.529   7.817
91986SOL    HW277798   6.863   0.501   7.921
91987SOL     OW77799   4.202   2.233   6.808
91987SOL    HW177800   4.261   2.178   6.756
91987SOL    HW277801   4.227   2.323   6.787
91988SOL     OW77802   2.750   8.834  13.107
91988SOL    HW177803   2.793   8.753  13.135
91988SOL    HW277804   2.717   8.873  13.188
91989SOL     OW77805   3.722  12.431   1.483
91989SOL    HW177806   3.630  12.434   1.508
91989SOL    HW277807   3.763  12.376   1.549
91990SOL     OW77808   2.470   1.209  14.511
91990SOL    HW177809   2.561   1.238  14.521
91990SOL    HW277810   2.456   1.205  14.416
91991SOL     OW77811   8.505   4.063  11.110
91991SOL    HW177812   8.476   4.151  11.132
91991SOL    HW277813   8.559   4.036  11.185
91992SOL     OW77814  11.833  11.305  13.275
91992SOL    HW177815  11.897  11.240  13.303
91992SOL    HW277816  11.788  11.330  13.356
91993SOL     OW77817   7.819   4.511   6.779
91993SOL    HW177818   7.817   4.568   6.702
91993SOL    HW277819   7.903   4.530   6.820
91994SOL     OW77820   5.339  12.585  11.580
91994SOL    HW177821   5.373  12.638  11.652
91994SOL    HW277822   5.416  12.549  11.538
91995SOL     OW77823   5.200  12.601  11.321
91995SOL    HW177824   5.242  12.570  11.401
91995SOL    HW277825   5.258  12.669  11.287
91996SOL     OW77826  11.483  14.348  11.735
91996SOL    HW177827  11.391  14.367  11.753
91996SOL    HW277828  11.500  14.267  11.782
91997SOL     OW77829   7.727   6.537  14.233
91997SOL    HW177830   7.677   6.526  14.152
91997SOL    HW277831   7.807   6.485  14.219
91998SOL     OW77832   6.024  11.034   2.798
91998SOL    HW177833   5.993  10.987   2.721
91998SOL    HW277834   6.061  10.966   2.855
91999SOL     OW77835   8.274   7.850   1.923
91999SOL    HW177836   8.345   7.850   1.988
91999SOL    HW277837   8.200   7.891   1.968
92000SOL     OW77838   9.049   9.397   4.086
92000SOL    HW177839   9.005   9.479   4.065
92000SOL    HW277840   9.002   9.364   4.162
92001SOL     OW77841   7.496   4.296   9.331
92001SOL    HW177842   7.495   4.357   9.256
92001SOL    HW277843   7.450   4.343   9.400
92002SOL     OW77844   6.318   3.570   1.253
92002SOL    HW177845   6.407   3.563   1.288
92002SOL    HW277846   6.262   3.531   1.320
92003SOL     OW77847   4.550  10.794  13.103
92003SOL    HW177848   4.495  10.781  13.025
92003SOL    HW277849   4.560  10.889  13.110
92004SOL     OW77850   7.511   7.708   1.596
92004SOL    HW177851   7.526   7.714   1.501
92004SOL    HW277852   7.416   7.700   1.605
92005SOL     OW77853  13.886   2.467  12.045
92005SOL    HW177854  13.978   2.489  12.029
92005SOL    HW277855  13.854   2.434  11.961
92006SOL     OW77856  12.262   7.903   5.848
92006SOL    HW177857  12.347   7.883   5.888
92006SOL    HW277858  12.277   7.892   5.754
92007SOL     OW77859  10.609  10.037  13.150
92007SOL    HW177860  10.522  10.071  13.169
92007SOL    HW277861  10.614   9.957  13.202
92008SOL     OW77862   6.122  10.283   6.129
92008SOL    HW177863   6.156  10.362   6.172
92008SOL    HW277864   6.106  10.222   6.201
92009SOL     OW77865  11.925  10.733   4.920
92009SOL    HW177866  12.004  10.776   4.954
92009SOL    HW277867  11.918  10.653   4.971
92010SOL     OW77868   5.334  13.668   1.518
92010SOL    HW177869   5.354  13.629   1.603
92010SOL    HW277870   5.401  13.735   1.505
92011SOL     OW77871   7.272   8.626  12.081
92011SOL    HW177872   7.194   8.679  12.099
92011SOL    HW277873   7.312   8.668  12.005
92012SOL     OW77874  11.132   5.503  13.421
92012SOL    HW177875  11.174   5.577  13.377
92012SOL    HW277876  11.203   5.454  13.461
92013SOL     OW77877   6.151  12.430  14.789
92013SOL    HW177878   6.153  12.341  14.752
92013SOL    HW277879   6.116  12.417  14.877
92014SOL     OW77880   8.451   2.944  12.543
92014SOL    HW177881   8.455   3.000  12.621
92014SOL    HW277882   8.433   3.005  12.471
92015SOL     OW77883   0.260  10.768   1.241
92015SOL    HW177884   0.179  10.725   1.268
92015SOL    HW277885   0.271  10.743   1.149
92016SOL     OW77886  14.709   5.875   7.659
92016SOL    HW177887  14.755   5.805   7.707
92016SOL    HW277888  14.720   5.853   7.567
92017SOL     OW77889   3.669   8.015   1.439
92017SOL    HW177890   3.734   7.945   1.440
92017SOL    HW277891   3.630   8.012   1.526
92018SOL     OW77892   4.843   3.639  13.541
92018SOL    HW177893   4.894   3.689  13.605
92018SOL    HW277894   4.843   3.695  13.463
92019SOL     OW77895   0.774   2.721   2.784
92019SOL    HW177896   0.780   2.816   2.793
92019SOL    HW277897   0.805   2.687   2.868
92020SOL     OW77898   1.811   6.681   4.137
92020SOL    HW177899   1.753   6.610   4.163
92020SOL    HW277900   1.884   6.677   4.199
92021SOL     OW77901  13.090  13.513  11.141
92021SOL    HW177902  13.051  13.586  11.093
92021SOL    HW277903  13.021  13.446  11.142
92022SOL     OW77904  12.409  11.001  10.461
92022SOL    HW177905  12.376  11.067  10.522
92022SOL    HW277906  12.431  11.049  10.382
92023SOL     OW77907   8.859   9.141   0.474
92023SOL    HW177908   8.862   9.202   0.400
92023SOL    HW277909   8.810   9.189   0.542
92024SOL     OW77910   6.797   8.208   7.469
92024SOL    HW177911   6.847   8.278   7.510
92024SOL    HW277912   6.738   8.254   7.408
92025SOL     OW77913   2.653   0.254   6.048
92025SOL    HW177914   2.583   0.282   5.990
92025SOL    HW277915   2.707   0.332   6.061
92026SOL     OW77916  10.781  12.540   0.229
92026SOL    HW177917  10.789  12.525   0.323
92026SOL    HW277918  10.834  12.472   0.189
92027SOL     OW77919  13.518  13.193   8.108
92027SOL    HW177920  13.469  13.160   8.184
92027SOL    HW277921  13.592  13.239   8.146
92028SOL     OW77922   9.980  12.955   9.203
92028SOL    HW177923  10.046  12.926   9.141
92028SOL    HW277924   9.912  12.995   9.149
92029SOL     OW77925   3.569   8.319  11.741
92029SOL    HW177926   3.492   8.264  11.757
92029SOL    HW277927   3.607   8.284  11.660
92030SOL     OW77928   3.171   7.512  11.900
92030SOL    HW177929   3.216   7.430  11.922
92030SOL    HW277930   3.083   7.485  11.873
92031SOL     OW77931  13.933   4.370   3.987
92031SOL    HW177932  14.015   4.376   3.939
92031SOL    HW277933  13.893   4.289   3.957
92032SOL     OW77934  13.708   8.107  12.064
92032SOL    HW177935  13.655   8.069  11.993
92032SOL    HW277936  13.707   8.201  12.047
92033SOL     OW77937   2.979   4.856  12.950
92033SOL    HW177938   2.999   4.807  13.030
92033SOL    HW277939   3.062   4.858  12.901
92034SOL     OW77940   5.760   8.252  13.815
92034SOL    HW177941   5.709   8.251  13.734
92034SOL    HW277942   5.775   8.160  13.836
92035SOL     OW77943   5.714   2.724  14.290
92035SOL    HW177944   5.795   2.684  14.322
92035SOL    HW277945   5.702   2.802  14.344
92036SOL     OW77946   2.628  12.945  10.946
92036SOL    HW177947   2.555  12.989  10.988
92036SOL    HW277948   2.660  12.884  11.012
92037SOL     OW77949   8.253  13.404  10.337
92037SOL    HW177950   8.299  13.471  10.287
92037SOL    HW277951   8.160  13.421  10.321
92038SOL     OW77952   1.354   2.189   3.629
92038SOL    HW177953   1.330   2.281   3.616
92038SOL    HW277954   1.405   2.189   3.710
92039SOL     OW77955  14.651   3.145  14.338
92039SOL    HW177956  14.733   3.102  14.362
92039SOL    HW277957  14.662   3.236  14.368
92040SOL     OW77958   1.413  14.007  11.365
92040SOL    HW177959   1.487  13.948  11.378
92040SOL    HW277960   1.350  13.982  11.433
92041SOL     OW77961  10.051  11.682  10.849
92041SOL    HW177962  10.102  11.630  10.911
92041SOL    HW277963   9.971  11.631  10.834
92042SOL     OW77964   7.058   6.537   6.817
92042SOL    HW177965   7.106   6.463   6.779
92042SOL    HW277966   7.049   6.515   6.910
92043SOL     OW77967   8.731   5.410   2.828
92043SOL    HW177968   8.663   5.478   2.828
92043SOL    HW277969   8.725   5.371   2.741
92044SOL     OW77970   0.016  14.465  14.397
92044SOL    HW177971  14.876  14.442  14.306
92044SOL    HW277972  14.870  14.388  14.447
92045SOL     OW77973   0.354  13.900   1.340
92045SOL    HW177974   0.412  13.824   1.340
92045SOL    HW277975   0.360  13.935   1.429
92046SOL     OW77976   3.255   9.898   5.041
92046SOL    HW177977   3.255   9.986   5.005
92046SOL    HW277978   3.305   9.905   5.123
92047SOL     OW77979  12.294   2.606   4.774
92047SOL    HW177980  12.254   2.655   4.701
92047SOL    HW277981  12.220   2.583   4.830
92048SOL     OW77982  14.457   4.189  10.340
92048SOL    HW177983  14.384   4.163  10.285
92048SOL    HW277984  14.473   4.281  10.317
92049SOL     OW77985  14.167  10.000   6.797
92049SOL    HW177986  14.216  10.009   6.715
92049SOL    HW277987  14.203  10.069   6.854
92050SOL     OW77988  11.007  10.704   7.576
92050SOL    HW177989  11.019  10.609   7.570
92050SOL    HW277990  10.913  10.715   7.591
92051SOL     OW77991   5.575   1.092  12.912
92051SOL    HW177992   5.501   1.139  12.949
92051SOL    HW277993   5.602   1.031  12.981
92052SOL     OW77994   6.946   0.840  12.553
92052SOL    HW177995   7.030   0.858  12.510
92052SOL    HW277996   6.954   0.881  12.639
92053SOL     OW77997  10.167   4.201  12.890
92053SOL    HW177998  10.145   4.175  12.979
92053SOL    HW277999  10.130   4.289  12.881
92054SOL     OW78000   9.685  10.072   3.837
92054SOL    HW178001   9.658  10.000   3.893
92054SOL    HW278002   9.696  10.033   3.750
92055SOL     OW78003   2.272  10.042  10.815
92055SOL    HW178004   2.355  10.018  10.774
92055SOL    HW278005   2.206  10.028  10.748
92056SOL     OW78006   4.864   4.560   0.235
92056SOL    HW178007   4.774   4.587   0.255
92056SOL    HW278008   4.915   4.588   0.310
92057SOL     OW78009   8.308   9.823  14.319
92057SOL    HW178010   8.371   9.872  14.373
92057SOL    HW278011   8.272   9.757  14.378
92058SOL     OW78012   6.559   7.945   1.647
92058SOL    HW178013   6.594   7.963   1.735
92058SOL    HW278014   6.549   8.031   1.607
92059SOL     OW78015   5.814   8.590   7.232
92059SOL    HW178016   5.894   8.538   7.231
92059SOL    HW278017   5.773   8.572   7.147
92060SOL     OW78018   6.251   0.182   8.571
92060SOL    HW178019   6.176   0.127   8.549
92060SOL    HW278020   6.302   0.130   8.634
92061SOL     OW78021   4.285   6.324   0.119
92061SOL    HW178022   4.301   6.418   0.122
92061SOL    HW278023   4.280   6.297   0.211
92062SOL     OW78024   6.443   3.513   8.528
92062SOL    HW178025   6.486   3.496   8.444
92062SOL    HW278026   6.425   3.425   8.563
92063SOL     OW78027   3.514   5.918   3.484
92063SOL    HW178028   3.472   5.836   3.456
92063SOL    HW278029   3.540   5.902   3.574
92064SOL     OW78030   3.071  11.568   0.936
92064SOL    HW178031   3.002  11.578   1.001
92064SOL    HW278032   3.092  11.474   0.938
92065SOL     OW78033  11.591   9.226  10.478
92065SOL    HW178034  11.665   9.166  10.484
92065SOL    HW278035  11.594   9.278  10.559
92066SOL     OW78036  13.616   3.580   4.432
92066SOL    HW178037  13.658   3.647   4.487
92066SOL    HW278038  13.528   3.615   4.415
92067SOL     OW78039   2.407  13.031  13.006
92067SOL    HW178040   2.396  13.124  12.988
92067SOL    HW278041   2.456  13.028  13.088
92068SOL     OW78042   8.767   0.173   0.849
92068SOL    HW178043   8.741   0.265   0.847
92068SOL    HW278044   8.863   0.175   0.844
92069SOL     OW78045   3.931   8.048   9.491
92069SOL    HW178046   3.872   7.998   9.547
92069SOL    HW278047   3.875   8.087   9.425
92070SOL     OW78048   9.718   0.870   4.923
92070SOL    HW178049   9.713   0.964   4.905
92070SOL    HW278050   9.628   0.845   4.944
92071SOL     OW78051   8.610  10.846   4.883
92071SOL    HW178052   8.670  10.920   4.867
92071SOL    HW278053   8.529  10.887   4.914
92072SOL     OW78054  10.606  12.830   8.256
92072SOL    HW178055  10.529  12.776   8.237
92072SOL    HW278056  10.614  12.828   8.351
92073SOL     OW78057   9.959   3.738   0.183
92073SOL    HW178058   9.947   3.748   0.278
92073SOL    HW278059   9.985   3.825   0.153
92074SOL     OW78060   8.658   9.099   4.590
92074SOL    HW178061   8.694   9.187   4.598
92074SOL    HW278062   8.733   9.043   4.570
92075SOL     OW78063   4.159   1.754  11.343
92075SOL    HW178064   4.156   1.715  11.256
92075SOL    HW278065   4.140   1.847  11.328
92076SOL     OW78066  10.382  11.203  14.277
92076SOL    HW178067  10.425  11.121  14.302
92076SOL    HW278068  10.291  11.193  14.304
92077SOL     OW78069  10.032  11.196   2.415
92077SOL    HW178070  10.063  11.110   2.442
92077SOL    HW278071  10.099  11.257   2.447
92078SOL     OW78072   7.786   7.429  14.733
92078SOL    HW178073   7.871   7.424  14.777
92078SOL    HW278074   7.763   7.522  14.736
92079SOL     OW78075  11.330   3.183   4.163
92079SOL    HW178076  11.351   3.234   4.241
92079SOL    HW278077  11.275   3.241   4.110
92080SOL     OW78078   7.788   2.393   7.841
92080SOL    HW178079   7.843   2.423   7.913
92080SOL    HW278080   7.835   2.318   7.805
92081SOL     OW78081   8.502   3.151   7.964
92081SOL    HW178082   8.466   3.113   8.044
92081SOL    HW278083   8.586   3.106   7.952
92082SOL     OW78084   5.845  11.573   9.774
92082SOL    HW178085   5.780  11.562   9.704
92082SOL    HW278086   5.929  11.570   9.729
92083SOL     OW78087   3.700   6.992   5.052
92083SOL    HW178088   3.725   7.082   5.071
92083SOL    HW278089   3.781   6.942   5.064
92084SOL     OW78090  12.758   2.116  10.576
92084SOL    HW178091  12.750   2.184  10.643
92084SOL    HW278092  12.808   2.157  10.506
92085SOL     OW78093   3.835   6.430   5.456
92085SOL    HW178094   3.848   6.355   5.514
92085SOL    HW278095   3.793   6.496   5.512
92086SOL     OW78096   6.831  11.545   4.839
92086SOL    HW178097   6.741  11.537   4.872
92086SOL    HW278098   6.841  11.638   4.818
92087SOL     OW78099  10.130   1.337   8.869
92087SOL    HW178100  10.163   1.306   8.953
92087SOL    HW278101  10.111   1.430   8.883
92088SOL     OW78102  13.360   8.907   2.352
92088SOL    HW178103  13.361   8.813   2.335
92088SOL    HW278104  13.372   8.915   2.446
92089SOL     OW78105  10.544   9.439   0.607
92089SOL    HW178106  10.619   9.498   0.620
92089SOL    HW278107  10.520   9.451   0.515
92090SOL     OW78108  10.839  12.883   0.845
92090SOL    HW178109  10.834  12.857   0.937
92090SOL    HW278110  10.752  12.916   0.824
92091SOL     OW78111   1.309  14.873   7.667
92091SOL    HW178112   1.370   0.056   7.629
92091SOL    HW278113   1.243  14.859   7.600
92092SOL     OW78114   7.655   9.351   9.747
92092SOL    HW178115   7.627   9.310   9.665
92092SOL    HW278116   7.577   9.345   9.803
92093SOL     OW78117  11.602   2.390  14.340
92093SOL    HW178118  11.672   2.336  14.376
92093SOL    HW278119  11.528   2.376  14.400
92094SOL     OW78120   5.757   1.980   5.679
92094SOL    HW178121   5.770   2.031   5.599
92094SOL    HW278122   5.662   1.981   5.693
92095SOL     OW78123   7.550   1.575   1.818
92095SOL    HW178124   7.564   1.524   1.897
92095SOL    HW278125   7.638   1.596   1.787
92096SOL     OW78126   4.806   8.323  14.776
92096SOL    HW178127   4.715   8.351  14.769
92096SOL    HW278128   4.856   8.404  14.780
92097SOL     OW78129   3.871   0.724   1.484
92097SOL    HW178130   3.781   0.730   1.452
92097SOL    HW278131   3.878   0.635   1.518
92098SOL     OW78132   6.651   9.114   5.583
92098SOL    HW178133   6.632   9.056   5.509
92098SOL    HW278134   6.738   9.087   5.613
92099SOL     OW78135  12.893  13.350  10.424
92099SOL    HW178136  12.937  13.435  10.418
92099SOL    HW278137  12.946  13.292  10.369
92100SOL     OW78138   8.410  12.508   8.839
92100SOL    HW178139   8.501  12.497   8.867
92100SOL    HW278140   8.406  12.464   8.754
92101SOL     OW78141   8.062  13.935  11.767
92101SOL    HW178142   8.057  13.929  11.672
92101SOL    HW278143   8.139  13.884  11.790
92102SOL     OW78144   0.095   0.466  14.113
92102SOL    HW178145   0.121   0.552  14.079
92102SOL    HW278146   0.116   0.471  14.206
92103SOL     OW78147   4.928   9.328   0.914
92103SOL    HW178148   4.909   9.235   0.907
92103SOL    HW278149   4.916   9.363   0.826
92104SOL     OW78150   0.372   4.634   9.345
92104SOL    HW178151   0.280   4.638   9.318
92104SOL    HW278152   0.393   4.723   9.373
92105SOL     OW78153   3.754   4.695   3.526
92105SOL    HW178154   3.764   4.788   3.506
92105SOL    HW278155   3.731   4.655   3.442
92106SOL     OW78156  12.178  10.453   6.336
92106SOL    HW178157  12.136  10.441   6.251
92106SOL    HW278158  12.118  10.412   6.398
92107SOL     OW78159  12.888   6.428   8.437
92107SOL    HW178160  12.816   6.407   8.496
92107SOL    HW278161  12.961   6.374   8.467
92108SOL     OW78162   8.151   5.245   4.998
92108SOL    HW178163   8.159   5.174   5.061
92108SOL    HW278164   8.084   5.215   4.937
92109SOL     OW78165   2.146  13.126   0.046
92109SOL    HW178166   2.142  13.165   0.134
92109SOL    HW278167   2.063  13.079   0.037
92110SOL     OW78168   3.544   0.584   4.747
92110SOL    HW178169   3.565   0.585   4.840
92110SOL    HW278170   3.453   0.613   4.743
92111SOL     OW78171   7.437   7.253   7.305
92111SOL    HW178172   7.517   7.306   7.310
92111SOL    HW278173   7.468   7.162   7.308
92112SOL     OW78174   2.671   5.291  14.110
92112SOL    HW178175   2.722   5.227  14.061
92112SOL    HW278176   2.705   5.285  14.200
92113SOL     OW78177   7.362   4.118   3.451
92113SOL    HW178178   7.353   4.157   3.538
92113SOL    HW278179   7.272   4.094   3.426
92114SOL     OW78180  12.364  12.042  11.020
92114SOL    HW178181  12.431  12.091  10.973
92114SOL    HW278182  12.282  12.084  10.996
92115SOL     OW78183   3.333  13.859  10.672
92115SOL    HW178184   3.299  13.884  10.758
92115SOL    HW278185   3.311  13.932  10.615
92116SOL     OW78186  14.727   5.899  13.458
92116SOL    HW178187  14.659   5.966  13.467
92116SOL    HW278188  14.728   5.878  13.365
92117SOL     OW78189  14.546   9.150   8.893
92117SOL    HW178190  14.623   9.112   8.850
92117SOL    HW278191  14.552   9.119   8.983
92118SOL     OW78192  11.836  14.305   8.574
92118SOL    HW178193  11.803  14.337   8.490
92118SOL    HW278194  11.918  14.260   8.553
92119SOL     OW78195  13.000   1.678   7.744
92119SOL    HW178196  12.959   1.758   7.776
92119SOL    HW278197  12.957   1.608   7.793
92120SOL     OW78198   6.530  13.270  14.750
92120SOL    HW178199   6.512  13.238  14.838
92120SOL    HW278200   6.493  13.358  14.748
92121SOL     OW78201  13.696   3.359   8.404
92121SOL    HW178202  13.738   3.442   8.425
92121SOL    HW278203  13.661   3.328   8.487
92122SOL     OW78204   7.894  13.704  10.012
92122SOL    HW178205   7.912  13.790  10.051
92122SOL    HW278206   7.803  13.686  10.037
92123SOL     OW78207  12.159  10.715   0.125
92123SOL    HW178208  12.227  10.652   0.151
92123SOL    HW278209  12.100  10.719   0.201
92124SOL     OW78210  13.143  10.099  12.116
92124SOL    HW178211  13.169  10.048  12.039
92124SOL    HW278212  13.084  10.041  12.164
92125SOL     OW78213  14.172  13.685   8.187
92125SOL    HW178214  14.103  13.711   8.247
92125SOL    HW278215  14.152  13.594   8.165
92126SOL     OW78216  14.373  13.625   4.804
92126SOL    HW178217  14.403  13.714   4.823
92126SOL    HW278218  14.424  13.570   4.863
92127SOL     OW78219  10.831  13.898   1.000
92127SOL    HW178220  10.796  13.978   0.961
92127SOL    HW278221  10.890  13.862   0.933
92128SOL     OW78222  12.158   1.779   0.076
92128SOL    HW178223  12.087   1.717   0.088
92128SOL    HW278224  12.237   1.725   0.079
92129SOL     OW78225   2.703   2.082   1.079
92129SOL    HW178226   2.638   2.027   1.035
92129SOL    HW278227   2.689   2.065   1.172
92130SOL     OW78228   9.508   9.228  10.182
92130SOL    HW178229   9.477   9.163  10.119
92130SOL    HW278230   9.429   9.271  10.213
92131SOL     OW78231   5.850   5.086   2.763
92131SOL    HW178232   5.917   5.020   2.781
92131SOL    HW278233   5.835   5.128   2.848
92132SOL     OW78234   4.544  11.870  11.190
92132SOL    HW178235   4.555  11.960  11.161
92132SOL    HW278236   4.462  11.870  11.240
92133SOL     OW78237   9.543   4.898   4.983
92133SOL    HW178238   9.477   4.872   4.919
92133SOL    HW278239   9.521   4.988   5.006
92134SOL     OW78240   4.489   3.607  11.062
92134SOL    HW178241   4.584   3.619  11.072
92134SOL    HW278242   4.464   3.552  11.136
92135SOL     OW78243  10.082   9.234  11.452
92135SOL    HW178244  10.071   9.145  11.488
92135SOL    HW278245  10.052   9.226  11.361
92136SOL     OW78246   3.413   2.242   6.753
92136SOL    HW178247   3.373   2.304   6.814
92136SOL    HW278248   3.359   2.248   6.674
92137SOL     OW78249   6.046   0.538  11.707
92137SOL    HW178250   6.046   0.513  11.615
92137SOL    HW278251   5.970   0.594  11.717
92138SOL     OW78252   0.398  14.565  14.241
92138SOL    HW178253   0.420  14.618  14.164
92138SOL    HW278254   0.315  14.524  14.219
92139SOL     OW78255   7.242   6.506  12.093
92139SOL    HW178256   7.229   6.514  12.187
92139SOL    HW278257   7.245   6.412  12.077
92140SOL     OW78258  12.626   1.176  13.101
92140SOL    HW178259  12.601   1.194  13.010
92140SOL    HW278260  12.548   1.192  13.152
92141SOL     OW78261  13.757   5.972   3.706
92141SOL    HW178262  13.747   5.941   3.616
92141SOL    HW278263  13.813   6.049   3.699
92142SOL     OW78264   4.654  11.227   5.519
92142SOL    HW178265   4.676  11.166   5.589
92142SOL    HW278266   4.582  11.279   5.554
92143SOL     OW78267  13.250   2.023   4.314
92143SOL    HW178268  13.183   1.973   4.360
92143SOL    HW278269  13.200   2.086   4.261
92144SOL     OW78270  11.535  13.986  12.226
92144SOL    HW178271  11.563  13.935  12.150
92144SOL    HW278272  11.608  13.980  12.287
92145SOL     OW78273  12.441  12.011   7.768
92145SOL    HW178274  12.364  12.067   7.779
92145SOL    HW278275  12.405  11.925   7.746
92146SOL     OW78276   6.776   9.566   9.858
92146SOL    HW178277   6.724   9.632   9.814
92146SOL    HW278278   6.858   9.563   9.810
92147SOL     OW78279  10.470   7.661   6.271
92147SOL    HW178280  10.441   7.728   6.333
92147SOL    HW278281  10.467   7.580   6.321
92148SOL     OW78282  13.222  10.280   8.630
92148SOL    HW178283  13.263  10.212   8.576
92148SOL    HW278284  13.293  10.339   8.653
92149SOL     OW78285   9.589   8.102   7.742
92149SOL    HW178286   9.533   8.176   7.762
92149SOL    HW278287   9.573   8.083   7.650
92150SOL     OW78288   0.573  14.568   4.115
92150SOL    HW178289   0.563  14.473   4.102
92150SOL    HW278290   0.666  14.579   4.135
92151SOL     OW78291  10.034   4.687  12.420
92151SOL    HW178292   9.955   4.655  12.464
92151SOL    HW278293  10.046   4.775  12.455
92152SOL     OW78294   5.615   3.591   1.661
92152SOL    HW178295   5.639   3.505   1.626
92152SOL    HW278296   5.523   3.583   1.685
92153SOL     OW78297   9.735   3.226   0.181
92153SOL    HW178298   9.803   3.279   0.222
92153SOL    HW278299   9.781   3.174   0.115
92154SOL     OW78300   5.649   4.524   3.996
92154SOL    HW178301   5.733   4.496   4.031
92154SOL    HW278302   5.591   4.525   4.073
92155SOL     OW78303  11.621   4.978  12.983
92155SOL    HW178304  11.561   5.035  12.935
92155SOL    HW278305  11.605   4.891  12.947
92156SOL     OW78306   7.528   8.146   9.314
92156SOL    HW178307   7.505   8.080   9.249
92156SOL    HW278308   7.565   8.218   9.264
92157SOL     OW78309   5.877   2.949   4.390
92157SOL    HW178310   5.822   2.986   4.458
92157SOL    HW278311   5.827   2.959   4.309
92158SOL     OW78312  12.330   0.605   4.939
92158SOL    HW178313  12.326   0.517   4.975
92158SOL    HW278314  12.414   0.608   4.894
92159SOL     OW78315  11.368   1.708   6.676
92159SOL    HW178316  11.350   1.714   6.769
92159SOL    HW278317  11.443   1.765   6.661
92160SOL     OW78318   4.740  14.254  13.257
92160SOL    HW178319   4.795  14.230  13.332
92160SOL    HW278320   4.777  14.336  13.225
92161SOL     OW78321   4.586  13.483   7.038
92161SOL    HW178322   4.667  13.458   7.082
92161SOL    HW278323   4.546  13.548   7.096
92162SOL     OW78324   0.410   3.009  14.799
92162SOL    HW178325   0.376   2.955  14.870
92162SOL    HW278326   0.443   2.946  14.735
92163SOL     OW78327   1.812   8.429  12.408
92163SOL    HW178328   1.846   8.417  12.319
92163SOL    HW278329   1.870   8.379  12.464
92164SOL     OW78330   1.296   9.034  10.734
92164SOL    HW178331   1.261   9.104  10.789
92164SOL    HW278332   1.243   9.036  10.655
92165SOL     OW78333  13.078   7.432  14.006
92165SOL    HW178334  13.156   7.487  14.019
92165SOL    HW278335  13.005   7.494  14.004
92166SOL     OW78336   6.626   8.986   1.518
92166SOL    HW178337   6.615   8.899   1.479
92166SOL    HW278338   6.639   8.968   1.611
92167SOL     OW78339   2.645  13.847   2.192
92167SOL    HW178340   2.610  13.814   2.110
92167SOL    HW278341   2.569  13.882   2.238
92168SOL     OW78342   1.114   6.372   5.411
92168SOL    HW178343   1.031   6.341   5.447
92168SOL    HW278344   1.172   6.378   5.487
92169SOL     OW78345   7.707  10.796  12.794
92169SOL    HW178346   7.729  10.831  12.880
92169SOL    HW278347   7.614  10.818  12.781
92170SOL     OW78348   9.989   5.922  14.467
92170SOL    HW178349  10.032   6.007  14.478
92170SOL    HW278350  10.003   5.877  14.550
92171SOL     OW78351   3.170   1.119   2.348
92171SOL    HW178352   3.127   1.181   2.407
92171SOL    HW278353   3.263   1.143   2.350
92172SOL     OW78354   9.783  13.308   9.433
92172SOL    HW178355   9.813  13.224   9.465
92172SOL    HW278356   9.725  13.287   9.360
92173SOL     OW78357   4.761   8.904   0.126
92173SOL    HW178358   4.700   8.969   0.092
92173SOL    HW278359   4.722   8.875   0.208
92174SOL     OW78360   7.620   2.990  12.616
92174SOL    HW178361   7.543   2.953  12.661
92174SOL    HW278362   7.592   3.077  12.588
92175SOL     OW78363   2.932   3.446   8.505
92175SOL    HW178364   2.862   3.457   8.570
92175SOL    HW278365   2.963   3.535   8.488
92176SOL     OW78366   2.189   5.052   6.830
92176SOL    HW178367   2.136   5.123   6.794
92176SOL    HW278368   2.269   5.051   6.777
92177SOL     OW78369   9.612  12.027  12.794
92177SOL    HW178370   9.525  11.987  12.796
92177SOL    HW278371   9.671  11.954  12.775
92178SOL     OW78372   8.286  13.616   6.837
92178SOL    HW178373   8.331  13.699   6.855
92178SOL    HW278374   8.279  13.613   6.742
92179SOL     OW78375   6.405   6.400  10.444
92179SOL    HW178376   6.496   6.427  10.448
92179SOL    HW278377   6.358   6.477  10.413
92180SOL     OW78378  12.529   8.489  14.119
92180SOL    HW178379  12.600   8.433  14.149
92180SOL    HW278380  12.572   8.569  14.089
92181SOL     OW78381  13.792  10.487   5.356
92181SOL    HW178382  13.875  10.507   5.312
92181SOL    HW278383  13.756  10.413   5.307
92182SOL     OW78384   3.774   4.417   0.015
92182SOL    HW178385   3.800   4.487  14.835
92182SOL    HW278386   3.839   4.348   0.000
92183SOL     OW78387   3.053  14.073  12.968
92183SOL    HW178388   3.118  14.054  13.036
92183SOL    HW278389   3.079  14.018  12.894
92184SOL     OW78390   9.394  11.105  13.556
92184SOL    HW178391   9.411  11.069  13.469
92184SOL    HW278392   9.468  11.164  13.572
92185SOL     OW78393  11.974   7.692  11.311
92185SOL    HW178394  12.013   7.622  11.259
92185SOL    HW278395  12.003   7.773  11.268
92186SOL     OW78396   0.224   9.977   4.832
92186SOL    HW178397   0.238   9.978   4.738
92186SOL    HW278398   0.195  10.066   4.853
92187SOL     OW78399   5.859   2.762  10.167
92187SOL    HW178400   5.793   2.830  10.152
92187SOL    HW278401   5.901   2.787  10.249
92188SOL     OW78402  12.486   0.824   6.668
92188SOL    HW178403  12.501   0.910   6.706
92188SOL    HW278404  12.570   0.801   6.628
92189SOL     OW78405   9.540   7.500  12.641
92189SOL    HW178406   9.504   7.518  12.728
92189SOL    HW278407   9.576   7.412  12.648
92190SOL     OW78408  14.292   1.488   1.389
92190SOL    HW178409  14.285   1.405   1.342
92190SOL    HW278410  14.352   1.470   1.461
92191SOL     OW78411   9.266   8.228  14.647
92191SOL    HW178412   9.213   8.218  14.726
92191SOL    HW278413   9.328   8.297  14.668
92192SOL     OW78414  11.258   6.606   2.613
92192SOL    HW178415  11.312   6.585   2.537
92192SOL    HW278416  11.168   6.605   2.580
92193SOL     OW78417   4.487   7.024   0.957
92193SOL    HW178418   4.567   7.036   1.007
92193SOL    HW278419   4.419   7.011   1.024
92194SOL     OW78420   2.957   8.602  11.883
92194SOL    HW178421   3.049   8.621  11.903
92194SOL    HW278422   2.916   8.590  11.969
92195SOL     OW78423  12.806   2.870   9.238
92195SOL    HW178424  12.716   2.836   9.237
92195SOL    HW278425  12.835   2.856   9.328
92196SOL     OW78426  14.514   5.433   6.239
92196SOL    HW178427  14.470   5.502   6.289
92196SOL    HW278428  14.461   5.355   6.253
92197SOL     OW78429  13.210   2.415  14.840
92197SOL    HW178430  13.149   2.419  14.766
92197SOL    HW278431  13.195   2.497   0.008
92198SOL     OW78432  14.058   7.388  14.723
92198SOL    HW178433  14.143   7.377  14.681
92198SOL    HW278434  14.022   7.467  14.683
92199SOL     OW78435  12.511   7.933   8.317
92199SOL    HW178436  12.572   7.860   8.309
92199SOL    HW278437  12.525   7.966   8.405
92200SOL     OW78438   1.303   2.311   5.501
92200SOL    HW178439   1.314   2.232   5.555
92200SOL    HW278440   1.257   2.279   5.423
92201SOL     OW78441   2.519   9.417   1.090
92201SOL    HW178442   2.526   9.427   0.995
92201SOL    HW278443   2.586   9.353   1.112
92202SOL     OW78444   6.465   2.028  14.316
92202SOL    HW178445   6.461   1.954  14.256
92202SOL    HW278446   6.507   1.993  14.394
92203SOL     OW78447  12.615  12.439  12.045
92203SOL    HW178448  12.704  12.472  12.032
92203SOL    HW278449  12.559  12.515  12.028
92204SOL     OW78450  12.319   5.994  12.920
92204SOL    HW178451  12.229   5.974  12.895
92204SOL    HW278452  12.365   6.004  12.837
92205SOL     OW78453   7.487   7.391   2.749
92205SOL    HW178454   7.467   7.328   2.818
92205SOL    HW278455   7.404   7.407   2.706
92206SOL     OW78456   4.364   0.412   1.099
92206SOL    HW178457   4.269   0.405   1.092
92206SOL    HW278458   4.386   0.490   1.048
92207SOL     OW78459   0.058   0.395   9.970
92207SOL    HW178460   0.097   0.309   9.983
92207SOL    HW278461   0.038   0.398   9.877
92208SOL     OW78462   4.752  13.523   7.507
92208SOL    HW178463   4.716  13.611   7.502
92208SOL    HW278464   4.764  13.508   7.601
92209SOL     OW78465   9.303  13.677  13.191
92209SOL    HW178466   9.239  13.614  13.159
92209SOL    HW278467   9.252  13.757  13.207
92210SOL     OW78468   6.779   7.569   8.721
92210SOL    HW178469   6.772   7.563   8.817
92210SOL    HW278470   6.872   7.584   8.705
92211SOL     OW78471   3.472  12.502   4.750
92211SOL    HW178472   3.550  12.508   4.696
92211SOL    HW278473   3.400  12.524   4.691
92212SOL     OW78474  13.394   9.630   1.236
92212SOL    HW178475  13.417   9.699   1.298
92212SOL    HW278476  13.437   9.656   1.154
92213SOL     OW78477   3.281   7.737   4.530
92213SOL    HW178478   3.339   7.689   4.590
92213SOL    HW278479   3.201   7.752   4.582
92214SOL     OW78480   8.100  13.614   2.855
92214SOL    HW178481   8.026  13.672   2.837
92214SOL    HW278482   8.143  13.654   2.931
92215SOL     OW78483  13.817   9.263   4.959
92215SOL    HW178484  13.822   9.184   4.904
92215SOL    HW278485  13.725   9.271   4.981
92216SOL     OW78486   0.799   0.863   0.076
92216SOL    HW178487   0.813   0.861   0.171
92216SOL    HW278488   0.850   0.937   0.045
92217SOL     OW78489   3.936  13.680   4.848
92217SOL    HW178490   4.007  13.618   4.860
92217SOL    HW278491   3.939  13.737   4.925
92218SOL     OW78492  11.698   0.795   1.881
92218SOL    HW178493  11.730   0.837   1.802
92218SOL    HW278494  11.723   0.703   1.871
92219SOL     OW78495   2.788   0.056   9.459
92219SOL    HW178496   2.728  14.868   9.430
92219SOL    HW278497   2.765   0.133   9.407
92220SOL     OW78498   1.473  11.091   1.738
92220SOL    HW178499   1.519  11.019   1.696
92220SOL    HW278500   1.500  11.088   1.829
92221SOL     OW78501  14.101   4.862   6.697
92221SOL    HW178502  14.165   4.928   6.723
92221SOL    HW278503  14.022   4.911   6.676
92222SOL     OW78504   3.682  13.924   4.498
92222SOL    HW178505   3.612  13.942   4.561
92222SOL    HW278506   3.672  13.831   4.477
92223SOL     OW78507   0.169   9.973  10.693
92223SOL    HW178508   0.141   9.923  10.770
92223SOL    HW278509   0.235   9.918  10.651
92224SOL     OW78510   8.762  11.737   3.627
92224SOL    HW178511   8.723  11.786   3.700
92224SOL    HW278512   8.717  11.652   3.628
92225SOL     OW78513   1.560   9.747  10.772
92225SOL    HW178514   1.588   9.838  10.784
92225SOL    HW278515   1.641   9.699  10.757
92226SOL     OW78516   9.129  12.468  10.387
92226SOL    HW178517   9.185  12.392  10.367
92226SOL    HW278518   9.067  12.471  10.314
92227SOL     OW78519  12.107  11.349   8.676
92227SOL    HW178520  12.134  11.257   8.670
92227SOL    HW278521  12.048  11.353   8.750
92228SOL     OW78522   0.103   7.847  10.154
92228SOL    HW178523   0.116   7.752  10.149
92228SOL    HW278524   0.028   7.865  10.098
92229SOL     OW78525   7.053   0.689   7.862
92229SOL    HW178526   7.127   0.745   7.842
92229SOL    HW278527   7.062   0.670   7.956
92230SOL     OW78528  10.743  13.518  14.240
92230SOL    HW178529  10.747  13.456  14.313
92230SOL    HW278530  10.655  13.505  14.203
92231SOL     OW78531  11.004  12.049   2.438
92231SOL    HW178532  10.989  11.989   2.511
92231SOL    HW278533  11.062  12.116   2.473
92232SOL     OW78534   8.572   3.963   7.681
92232SOL    HW178535   8.611   4.001   7.602
92232SOL    HW278536   8.529   3.883   7.650
92233SOL     OW78537  14.487   0.296   4.159
92233SOL    HW178538  14.543   0.372   4.179
92233SOL    HW278539  14.448   0.273   4.243
92234SOL     OW78540  14.593   2.298   8.837
92234SOL    HW178541  14.600   2.223   8.779
92234SOL    HW278542  14.652   2.363   8.799
92235SOL     OW78543   3.357   5.276   9.291
92235SOL    HW178544   3.316   5.270   9.377
92235SOL    HW278545   3.285   5.291   9.231
92236SOL     OW78546   6.208   7.938   0.451
92236SOL    HW178547   6.252   7.927   0.366
92236SOL    HW278548   6.244   7.868   0.505
92237SOL     OW78549   4.610   0.468   3.573
92237SOL    HW178550   4.563   0.538   3.618
92237SOL    HW278551   4.588   0.481   3.480
92238SOL     OW78552  13.451   6.880   9.371
92238SOL    HW178553  13.395   6.808   9.342
92238SOL    HW278554  13.415   6.907   9.455
92239SOL     OW78555   5.323   6.298  10.667
92239SOL    HW178556   5.348   6.264  10.753
92239SOL    HW278557   5.317   6.221  10.611
92240SOL     OW78558   9.303  12.865  11.769
92240SOL    HW178559   9.276  12.840  11.681
92240SOL    HW278560   9.223  12.857  11.822
92241SOL     OW78561  12.830   1.170   7.816
92241SOL    HW178562  12.769   1.167   7.889
92241SOL    HW278563  12.867   1.259   7.820
92242SOL     OW78564   5.059   4.566   5.874
92242SOL    HW178565   5.004   4.595   5.947
92242SOL    HW278566   5.009   4.494   5.835
92243SOL     OW78567  13.636   8.610   5.439
92243SOL    HW178568  13.663   8.701   5.451
92243SOL    HW278569  13.672   8.585   5.354
92244SOL     OW78570   8.502  14.385   3.245
92244SOL    HW178571   8.499  14.400   3.151
92244SOL    HW278572   8.522  14.292   3.255
92245SOL     OW78573  12.139   0.852   6.037
92245SOL    HW178574  12.071   0.814   5.981
92245SOL    HW278575  12.121   0.817   6.124
92246SOL     OW78576  12.716   4.231  13.774
92246SOL    HW178577  12.786   4.285  13.809
92246SOL    HW278578  12.652   4.225  13.846
92247SOL     OW78579   1.778  13.378   9.601
92247SOL    HW178580   1.757  13.318   9.529
92247SOL    HW278581   1.859  13.421   9.573
92248SOL     OW78582  12.686   7.334  13.286
92248SOL    HW178583  12.658   7.360  13.198
92248SOL    HW278584  12.782   7.334  13.281
92249SOL     OW78585   9.286   7.046   1.506
92249SOL    HW178586   9.241   7.060   1.423
92249SOL    HW278587   9.255   7.117   1.563
92250SOL     OW78588   3.938  14.865  14.430
92250SOL    HW178589   4.013  14.819  14.467
92250SOL    HW278590   3.875  14.796  14.409
92251SOL     OW78591  12.903   0.787  11.512
92251SOL    HW178592  12.829   0.801  11.453
92251SOL    HW278593  12.941   0.874  11.524
92252SOL     OW78594   4.075   1.278  14.118
92252SOL    HW178595   4.072   1.215  14.190
92252SOL    HW278596   4.160   1.263  14.077
92253SOL     OW78597   0.237  12.590   1.571
92253SOL    HW178598   0.248  12.539   1.490
92253SOL    HW278599   0.142  12.604   1.577
92254SOL     OW78600  11.903   2.160   9.833
92254SOL    HW178601  11.857   2.211   9.899
92254SOL    HW278602  11.990   2.143   9.871
92255SOL     OW78603  10.420   8.151   3.109
92255SOL    HW178604  10.388   8.089   3.044
92255SOL    HW278605  10.383   8.235   3.082
92256SOL     OW78606  12.752   5.922  11.273
92256SOL    HW178607  12.679   5.954  11.220
92256SOL    HW278608  12.759   5.829  11.251
92257SOL     OW78609   6.488   1.776   7.628
92257SOL    HW178610   6.555   1.728   7.578
92257SOL    HW278611   6.525   1.783   7.716
92258SOL     OW78612   6.245   8.683   3.840
92258SOL    HW178613   6.285   8.770   3.841
92258SOL    HW278614   6.261   8.650   3.752
92259SOL     OW78615   1.181  12.580  11.717
92259SOL    HW178616   1.093  12.542  11.717
92259SOL    HW278617   1.167  12.672  11.740
92260SOL     OW78618  13.918  13.244   0.286
92260SOL    HW178619  13.934  13.150   0.279
92260SOL    HW278620  13.825  13.254   0.262
92261SOL     OW78621   5.732   2.638   0.533
92261SOL    HW178622   5.796   2.612   0.600
92261SOL    HW278623   5.648   2.613   0.571
92262SOL     OW78624   4.156   3.120   4.788
92262SOL    HW178625   4.097   3.046   4.772
92262SOL    HW278626   4.159   3.127   4.884
92263SOL     OW78627   4.228  12.871   4.773
92263SOL    HW178628   4.253  12.794   4.825
92263SOL    HW278629   4.249  12.847   4.683
92264SOL     OW78630   6.966   0.755   8.566
92264SOL    HW178631   7.007   0.813   8.502
92264SOL    HW278632   6.898   0.809   8.607
92265SOL     OW78633  13.597   5.242   3.762
92265SOL    HW178634  13.684   5.250   3.801
92265SOL    HW278635  13.574   5.331   3.737
92266SOL     OW78636   2.869  14.700   0.411
92266SOL    HW178637   2.893  14.693   0.503
92266SOL    HW278638   2.774  14.690   0.410
92267SOL     OW78639   6.427   2.711   5.842
92267SOL    HW178640   6.414   2.685   5.933
92267SOL    HW278641   6.405   2.634   5.791
92268SOL     OW78642   3.030   9.361  10.886
92268SOL    HW178643   3.007   9.297  10.953
92268SOL    HW278644   3.103   9.320  10.838
92269SOL     OW78645   5.034   5.131  14.771
92269SOL    HW178646   5.122   5.094  14.781
92269SOL    HW278647   4.976   5.065  14.807
92270SOL     OW78648   1.149   9.364   7.324
92270SOL    HW178649   1.061   9.390   7.349
92270SOL    HW278650   1.149   9.367   7.228
92271SOL     OW78651   1.419   0.281   8.083
92271SOL    HW178652   1.490   0.343   8.071
92271SOL    HW278653   1.339   0.333   8.069
92272SOL     OW78654   2.328   0.710   0.752
92272SOL    HW178655   2.422   0.717   0.769
92272SOL    HW278656   2.304   0.794   0.714
92273SOL     OW78657   0.582  14.148   5.706
92273SOL    HW178658   0.643  14.097   5.759
92273SOL    HW278659   0.606  14.128   5.615
92274SOL     OW78660   9.723  14.225   9.447
92274SOL    HW178661   9.762  14.188   9.526
92274SOL    HW278662   9.661  14.159   9.418
92275SOL     OW78663   4.477  13.799  10.676
92275SOL    HW178664   4.393  13.758  10.656
92275SOL    HW278665   4.476  13.881  10.627
92276SOL     OW78666  10.726  11.533   7.244
92276SOL    HW178667  10.810  11.574   7.223
92276SOL    HW278668  10.742  11.487   7.326
92277SOL     OW78669   7.944   3.763   3.159
92277SOL    HW178670   8.038   3.777   3.150
92277SOL    HW278671   7.918   3.822   3.229
92278SOL     OW78672  13.042   2.234   1.449
92278SOL    HW178673  13.090   2.151   1.443
92278SOL    HW278674  13.105   2.294   1.490
92279SOL     OW78675   0.801  13.952   3.525
92279SOL    HW178676   0.712  13.935   3.495
92279SOL    HW278677   0.844  13.866   3.520
92280SOL     OW78678  14.007   6.288  14.121
92280SOL    HW178679  14.093   6.329  14.123
92280SOL    HW278680  14.015   6.219  14.055
92281SOL     OW78681  10.677  14.407   0.933
92281SOL    HW178682  10.680  14.314   0.954
92281SOL    HW278683  10.683  14.451   1.018
92282SOL     OW78684  14.085  11.975   5.220
92282SOL    HW178685  14.144  12.023   5.163
92282SOL    HW278686  14.017  12.038   5.244
92283SOL     OW78687  12.642   5.976   2.524
92283SOL    HW178688  12.588   5.997   2.599
92283SOL    HW278689  12.649   5.881   2.525
92284SOL     OW78690   0.917   9.528   8.136
92284SOL    HW178691   0.879   9.594   8.078
92284SOL    HW278692   1.011   9.535   8.122
92285SOL     OW78693   3.414   0.095   7.869
92285SOL    HW178694   3.421   0.172   7.812
92285SOL    HW278695   3.386   0.024   7.810
92286SOL     OW78696  13.128   0.325   5.374
92286SOL    HW178697  13.083   0.355   5.453
92286SOL    HW278698  13.142   0.405   5.322
92287SOL     OW78699   1.000   8.630  11.890
92287SOL    HW178700   0.930   8.568  11.913
92287SOL    HW278701   1.080   8.577  11.893
92288SOL     OW78702   0.465  10.343  10.357
92288SOL    HW178703   0.370  10.331  10.364
92288SOL    HW278704   0.499  10.254  10.346
92289SOL     OW78705   7.246   7.175   9.847
92289SOL    HW178706   7.195   7.187   9.927
92289SOL    HW278707   7.336   7.192   9.873
92290SOL     OW78708  11.445  12.195   7.719
92290SOL    HW178709  11.513  12.257   7.741
92290SOL    HW278710  11.488  12.109   7.721
92291SOL     OW78711   9.654  11.727   6.096
92291SOL    HW178712   9.593  11.789   6.136
92291SOL    HW278713   9.697  11.685   6.171
92292SOL     OW78714  10.227   2.729   4.660
92292SOL    HW178715  10.235   2.637   4.635
92292SOL    HW278716  10.314   2.751   4.694
92293SOL     OW78717  12.222   3.006   4.320
92293SOL    HW178718  12.198   2.913   4.325
92293SOL    HW278719  12.144   3.049   4.284
92294SOL     OW78720   0.385  13.414  14.624
92294SOL    HW178721   0.321  13.427  14.694
92294SOL    HW278722   0.459  13.371  14.666
92295SOL     OW78723   2.925   3.214   1.078
92295SOL    HW178724   2.980   3.156   1.131
92295SOL    HW278725   2.893   3.280   1.139
92296SOL     OW78726   2.452  13.591   7.260
92296SOL    HW178727   2.463  13.686   7.256
92296SOL    HW278728   2.402  13.569   7.181
92297SOL     OW78729   6.800   1.043  10.486
92297SOL    HW178730   6.879   1.062  10.536
92297SOL    HW278731   6.771   1.128  10.452
92298SOL     OW78732   2.216  13.610  10.867
92298SOL    HW178733   2.247  13.656  10.789
92298SOL    HW278734   2.256  13.657  10.940
92299SOL     OW78735   7.388  10.200  11.514
92299SOL    HW178736   7.451  10.171  11.447
92299SOL    HW278737   7.364  10.120  11.560
92300SOL     OW78738  12.043  12.255   6.721
92300SOL    HW178739  11.967  12.254   6.663
92300SOL    HW278740  12.114  12.289   6.666
92301SOL     OW78741  12.086   0.074  13.570
92301SOL    HW178742  12.064   0.113  13.654
92301SOL    HW278743  12.180   0.089  13.560
92302SOL     OW78744   5.853  13.268   5.221
92302SOL    HW178745   5.892  13.205   5.161
92302SOL    HW278746   5.770  13.292   5.179
92303SOL     OW78747  10.745   0.663   5.343
92303SOL    HW178748  10.838   0.656   5.363
92303SOL    HW278749  10.702   0.648   5.427
92304SOL     OW78750   8.466  14.770   7.202
92304SOL    HW178751   8.453  14.816   7.119
92304SOL    HW278752   8.498  14.838   7.262
92305SOL     OW78753  12.754   1.219   1.293
92305SOL    HW178754  12.821   1.273   1.250
92305SOL    HW278755  12.681   1.279   1.309
92306SOL     OW78756   4.938   1.107   2.008
92306SOL    HW178757   4.951   1.097   2.102
92306SOL    HW278758   4.933   1.201   1.994
92307SOL     OW78759  11.430   4.582  10.557
92307SOL    HW178760  11.463   4.603  10.644
92307SOL    HW278761  11.508   4.563  10.505
92308SOL     OW78762   2.742   4.696   8.548
92308SOL    HW178763   2.649   4.720   8.556
92308SOL    HW278764   2.774   4.700   8.638
92309SOL     OW78765  14.342  11.182  13.860
92309SOL    HW178766  14.310  11.169  13.770
92309SOL    HW278767  14.308  11.268  13.886
92310SOL     OW78768  13.191  14.277  10.137
92310SOL    HW178769  13.166  14.346  10.198
92310SOL    HW278770  13.120  14.213  10.143
92311SOL     OW78771   0.115   4.890  11.258
92311SOL    HW178772   0.123   4.844  11.174
92311SOL    HW278773   0.030   4.863  11.292
92312SOL     OW78774   1.302   9.698   9.549
92312SOL    HW178775   1.248   9.754   9.493
92312SOL    HW278776   1.389   9.702   9.511
92313SOL     OW78777   2.283  14.619  12.907
92313SOL    HW178778   2.286  14.531  12.944
92313SOL    HW278779   2.249  14.674  12.978
92314SOL     OW78780  13.696   4.461   0.035
92314SOL    HW178781  13.748   4.477  14.836
92314SOL    HW278782  13.668   4.548   0.063
92315SOL     OW78783   2.171   1.750   9.089
92315SOL    HW178784   2.264   1.731   9.098
92315SOL    HW278785   2.146   1.708   9.007
92316SOL     OW78786   0.992   3.488   3.046
92316SOL    HW178787   0.986   3.441   2.963
92316SOL    HW278788   0.934   3.439   3.105
92317SOL     OW78789  14.587  12.555   9.606
92317SOL    HW178790  14.656  12.621   9.600
92317SOL    HW278791  14.580  12.536   9.700
92318SOL     OW78792   5.661   3.915   0.519
92318SOL    HW178793   5.667   4.010   0.521
92318SOL    HW278794   5.661   3.892   0.427
92319SOL     OW78795   8.491  14.536   2.530
92319SOL    HW178796   8.502  14.589   2.452
92319SOL    HW278797   8.512  14.447   2.502
92320SOL     OW78798   6.982   0.460   1.086
92320SOL    HW178799   7.005   0.431   1.174
92320SOL    HW278800   7.064   0.493   1.049
92321SOL     OW78801   0.186   5.831   9.280
92321SOL    HW178802   0.126   5.813   9.208
92321SOL    HW278803   0.150   5.911   9.321
92322SOL     OW78804   0.369   5.339   4.590
92322SOL    HW178805   0.432   5.378   4.529
92322SOL    HW278806   0.400   5.364   4.677
92323SOL     OW78807   8.192  10.197   9.948
92323SOL    HW178808   8.247  10.206  10.026
92323SOL    HW278809   8.186  10.286   9.913
92324SOL     OW78810   7.143  14.653  12.726
92324SOL    HW178811   7.126  14.709  12.801
92324SOL    HW278812   7.058  14.647  12.681
92325SOL     OW78813   7.454   6.402   2.025
92325SOL    HW178814   7.503   6.384   1.945
92325SOL    HW278815   7.486   6.487   2.054
92326SOL     OW78816  10.620   0.819   1.917
92326SOL    HW178817  10.685   0.848   1.853
92326SOL    HW278818  10.572   0.898   1.939
92327SOL     OW78819   1.737   5.053   6.983
92327SOL    HW178820   1.766   5.020   6.898
92327SOL    HW278821   1.808   5.030   7.043
92328SOL     OW78822  10.136   7.172   1.259
92328SOL    HW178823  10.229   7.181   1.277
92328SOL    HW278824  10.094   7.238   1.314
92329SOL     OW78825   3.971   5.365   6.054
92329SOL    HW178826   3.934   5.447   6.021
92329SOL    HW278827   3.928   5.352   6.139
92330SOL     OW78828  13.476   8.959  11.017
92330SOL    HW178829  13.550   9.007  10.982
92330SOL    HW278830  13.401   9.017  11.002
92331SOL     OW78831  12.693   5.165  11.009
92331SOL    HW178832  12.661   5.189  10.923
92331SOL    HW278833  12.787   5.152  10.997
92332SOL     OW78834  10.764  13.566   8.336
92332SOL    HW178835  10.811  13.521   8.406
92332SOL    HW278836  10.831  13.595   8.275
92333SOL     OW78837  14.739   0.184  11.602
92333SOL    HW178838  14.826   0.154  11.627
92333SOL    HW278839  14.708   0.118  11.540
92334SOL     OW78840   7.778  14.485  12.871
92334SOL    HW178841   7.842  14.427  12.913
92334SOL    HW278842   7.831  14.539  12.811
92335SOL     OW78843   6.038   4.375  11.976
92335SOL    HW178844   6.116   4.385  12.031
92335SOL    HW278845   6.049   4.291  11.933
92336SOL     OW78846   8.285   3.197  10.993
92336SOL    HW178847   8.363   3.144  11.004
92336SOL    HW278848   8.279   3.249  11.073
92337SOL     OW78849   0.991  11.918   4.129
92337SOL    HW178850   1.077  11.878   4.118
92337SOL    HW278851   0.983  11.932   4.224
92338SOL     OW78852  10.748   7.158  10.956
92338SOL    HW178853  10.662   7.126  10.980
92338SOL    HW278854  10.763   7.124  10.868
92339SOL     OW78855  13.444  12.006   5.385
92339SOL    HW178856  13.407  12.075   5.330
92339SOL    HW278857  13.491  11.949   5.325
92340SOL     OW78858   6.791  12.017   7.052
92340SOL    HW178859   6.861  12.017   6.987
92340SOL    HW278860   6.717  12.057   7.008
92341SOL     OW78861   5.709   9.287  12.339
92341SOL    HW178862   5.743   9.366  12.380
92341SOL    HW278863   5.786   9.241  12.307
92342SOL     OW78864   2.535  14.616   0.021
92342SOL    HW178865   2.541  14.538  14.847
92342SOL    HW278866   2.492  14.681  14.845
92343SOL     OW78867  14.483   5.585   0.546
92343SOL    HW178868  14.395   5.588   0.583
92343SOL    HW278869  14.520   5.671   0.563
92344SOL     OW78870   2.908  13.675   1.648
92344SOL    HW178871   2.954  13.634   1.575
92344SOL    HW278872   2.897  13.766   1.623
92345SOL     OW78873  12.502   4.032  11.199
92345SOL    HW178874  12.475   3.956  11.146
92345SOL    HW278875  12.443   4.030  11.274
92346SOL     OW78876   1.371  11.361  13.640
92346SOL    HW178877   1.279  11.347  13.617
92346SOL    HW278878   1.406  11.272  13.651
92347SOL     OW78879   9.887   5.577   3.079
92347SOL    HW178880   9.902   5.492   3.121
92347SOL    HW278881   9.792   5.591   3.087
92348SOL     OW78882   6.290   4.409   6.886
92348SOL    HW178883   6.362   4.461   6.850
92348SOL    HW278884   6.213   4.465   6.877
92349SOL     OW78885  14.418   8.016   5.760
92349SOL    HW178886  14.452   8.088   5.813
92349SOL    HW278887  14.459   7.938   5.797
92350SOL     OW78888  10.367  14.418  11.279
92350SOL    HW178889  10.305  14.349  11.302
92350SOL    HW278890  10.452  14.374  11.279
92351SOL     OW78891   2.934   3.322   3.035
92351SOL    HW178892   2.926   3.405   2.988
92351SOL    HW278893   2.883   3.335   3.115
92352SOL     OW78894   4.015  11.684   2.087
92352SOL    HW178895   4.008  11.700   1.993
92352SOL    HW278896   4.103  11.647   2.098
92353SOL     OW78897   2.515   6.350  12.359
92353SOL    HW178898   2.530   6.435  12.400
92353SOL    HW278899   2.596   6.302  12.373
92354SOL     OW78900   4.049   7.031  12.717
92354SOL    HW178901   3.955   7.033  12.735
92354SOL    HW278902   4.079   7.120  12.737
92355SOL     OW78903  11.123   9.927  10.442
92355SOL    HW178904  11.087   9.865  10.378
92355SOL    HW278905  11.217   9.908  10.442
92356SOL     OW78906  12.205   5.139   2.724
92356SOL    HW178907  12.132   5.200   2.716
92356SOL    HW278908  12.165   5.052   2.716
92357SOL     OW78909   8.285  13.039  11.186
92357SOL    HW178910   8.377  13.018  11.169
92357SOL    HW278911   8.289  13.118  11.240
92358SOL     OW78912  13.589   0.135   0.267
92358SOL    HW178913  13.632   0.217   0.243
92358SOL    HW278914  13.626   0.070   0.208
92359SOL     OW78915   0.297   3.256   3.910
92359SOL    HW178916   0.369   3.317   3.923
92359SOL    HW278917   0.337   3.169   3.915
92360SOL     OW78918  11.764  11.429   7.067
92360SOL    HW178919  11.838  11.383   7.029
92360SOL    HW278920  11.704  11.443   6.994
92361SOL     OW78921   6.407   4.790  11.603
92361SOL    HW178922   6.317   4.801  11.634
92361SOL    HW278923   6.456   4.863  11.642
92362SOL     OW78924  13.368   1.337   2.546
92362SOL    HW178925  13.360   1.253   2.500
92362SOL    HW278926  13.427   1.319   2.618
92363SOL     OW78927   6.576   7.063   5.041
92363SOL    HW178928   6.664   7.088   5.069
92363SOL    HW278929   6.527   7.051   5.122
92364SOL     OW78930   3.804   0.024  11.378
92364SOL    HW178931   3.853   0.087  11.431
92364SOL    HW278932   3.721   0.067  11.360
92365SOL     OW78933  12.380  14.625   1.623
92365SOL    HW178934  12.321  14.697   1.602
92365SOL    HW278935  12.436  14.617   1.546
92366SOL     OW78936   5.818  10.081   3.754
92366SOL    HW178937   5.800   9.989   3.772
92366SOL    HW278938   5.855  10.081   3.665
92367SOL     OW78939   9.490  14.221   8.776
92367SOL    HW178940   9.469  14.219   8.869
92367SOL    HW278941   9.422  14.168   8.735
92368SOL     OW78942   5.651  11.616  13.700
92368SOL    HW178943   5.577  11.567  13.665
92368SOL    HW278944   5.616  11.703  13.717
92369SOL     OW78945   0.894   1.509   8.104
92369SOL    HW178946   0.840   1.466   8.170
92369SOL    HW278947   0.953   1.566   8.153
92370SOL     OW78948   4.200  14.590   5.120
92370SOL    HW178949   4.261  14.647   5.074
92370SOL    HW278950   4.149  14.650   5.176
92371SOL     OW78951   3.314  14.830   8.138
92371SOL    HW178952   3.294  14.839   8.045
92371SOL    HW278953   3.410  14.831   8.142
92372SOL     OW78954   4.805   0.371   9.994
92372SOL    HW178955   4.836   0.391   9.906
92372SOL    HW278956   4.829   0.279  10.007
92373SOL     OW78957  13.838   4.700   3.952
92373SOL    HW178958  13.860   4.608   3.944
92373SOL    HW278959  13.746   4.701   3.976
92374SOL     OW78960   1.580   7.711   4.241
92374SOL    HW178961   1.549   7.706   4.151
92374SOL    HW278962   1.675   7.705   4.234
92375SOL     OW78963   9.059  14.050  10.713
92375SOL    HW178964   8.983  14.004  10.749
92375SOL    HW278965   9.121  13.982  10.690
92376SOL     OW78966   5.911   2.593   0.962
92376SOL    HW178967   5.863   2.590   0.880
92376SOL    HW278968   5.975   2.521   0.955
92377SOL     OW78969   8.966   2.086   0.136
92377SOL    HW178970   8.953   2.114   0.046
92377SOL    HW278971   8.998   2.164   0.181
92378SOL     OW78972   1.112  14.471  11.396
92378SOL    HW178973   1.022  14.504  11.399
92378SOL    HW278974   1.137  14.478  11.304
92379SOL     OW78975  12.134   1.768   1.709
92379SOL    HW178976  12.142   1.863   1.712
92379SOL    HW278977  12.052   1.752   1.662
92380SOL     OW78978  10.496   7.165   1.105
92380SOL    HW178979  10.516   7.102   1.173
92380SOL    HW278980  10.464   7.112   1.032
92381SOL     OW78981  10.089  13.432   3.664
92381SOL    HW178982  10.169  13.477   3.636
92381SOL    HW278983  10.118  13.343   3.686
92382SOL     OW78984   9.003   1.453   5.898
92382SOL    HW178985   9.009   1.362   5.869
92382SOL    HW278986   9.004   1.448   5.993
92383SOL     OW78987   9.083  13.471   4.702
92383SOL    HW178988   9.148  13.538   4.679
92383SOL    HW278989   9.026  13.514   4.767
92384SOL     OW78990   6.419   8.920   8.147
92384SOL    HW178991   6.398   9.012   8.136
92384SOL    HW278992   6.344   8.873   8.109
92385SOL     OW78993  13.282   1.365   9.620
92385SOL    HW178994  13.247   1.372   9.709
92385SOL    HW278995  13.213   1.403   9.564
92386SOL     OW78996  13.472  11.293   7.544
92386SOL    HW178997  13.457  11.246   7.626
92386SOL    HW278998  13.463  11.385   7.568
92387SOL     OW78999   1.536   5.012   6.635
92387SOL    HW179000   1.505   4.951   6.568
92387SOL    HW279001   1.470   5.081   6.636
92388SOL     OW79002   4.170   8.003  10.543
92388SOL    HW179003   4.242   8.034  10.598
92388SOL    HW279004   4.167   8.065  10.470
92389SOL     OW79005   2.628   6.383  13.820
92389SOL    HW179006   2.588   6.469  13.810
92389SOL    HW279007   2.721   6.397  13.801
92390SOL     OW79008   5.484   8.266   6.749
92390SOL    HW179009   5.465   8.245   6.840
92390SOL    HW279010   5.401   8.296   6.713
92391SOL     OW79011   6.572   1.037  14.543
92391SOL    HW179012   6.588   0.948  14.573
92391SOL    HW279013   6.658   1.079  14.547
92392SOL     OW79014  11.348   3.540   1.684
92392SOL    HW179015  11.284   3.608   1.664
92392SOL    HW279016  11.325   3.467   1.627
92393SOL     OW79017   5.618  10.632   8.514
92393SOL    HW179018   5.692  10.644   8.574
92393SOL    HW279019   5.658  10.619   8.428
92394SOL     OW79020  11.569   7.318  10.317
92394SOL    HW179021  11.643   7.378  10.329
92394SOL    HW279022  11.544   7.292  10.406
92395SOL     OW79023  13.789   7.940  10.008
92395SOL    HW179024  13.704   7.910   9.977
92395SOL    HW279025  13.836   7.968   9.929
92396SOL     OW79026   8.388   7.532  14.800
92396SOL    HW179027   8.471   7.510  14.756
92396SOL    HW279028   8.320   7.509  14.736
92397SOL     OW79029   3.848   6.015  14.293
92397SOL    HW179030   3.926   5.963  14.308
92397SOL    HW279031   3.780   5.951  14.271
92398SOL     OW79032  10.783  13.417   7.492
92398SOL    HW179033  10.840  13.446   7.564
92398SOL    HW279034  10.716  13.365   7.535
92399SOL     OW79035  10.162   0.918  12.968
92399SOL    HW179036  10.221   0.922  13.044
92399SOL    HW279037  10.139   0.825  12.961
92400SOL     OW79038   2.944  13.990   1.324
92400SOL    HW179039   2.868  13.967   1.271
92400SOL    HW279040   2.923  13.959   1.412
92401SOL     OW79041  13.435   9.410   1.384
92401SOL    HW179042  13.465   9.345   1.322
92401SOL    HW279043  13.418   9.488   1.331
92402SOL     OW79044   4.118   7.774   8.837
92402SOL    HW179045   4.064   7.852   8.850
92402SOL    HW279046   4.120   7.762   8.742
92403SOL     OW79047  13.649   5.112   2.197
92403SOL    HW179048  13.667   5.028   2.154
92403SOL    HW279049  13.554   5.114   2.207
92404SOL     OW79050   9.280   0.153   3.446
92404SOL    HW179051   9.247   0.210   3.376
92404SOL    HW279052   9.317   0.214   3.510
92405SOL     OW79053   6.554  12.182   2.611
92405SOL    HW179054   6.479  12.189   2.671
92405SOL    HW279055   6.576  12.089   2.611
92406SOL     OW79056   0.704   0.682   6.815
92406SOL    HW179057   0.764   0.740   6.770
92406SOL    HW279058   0.659   0.634   6.745
92407SOL     OW79059  10.896   7.762   8.904
92407SOL    HW179060  10.979   7.730   8.870
92407SOL    HW279061  10.830   7.704   8.867
92408SOL     OW79062   7.689  12.758  12.034
92408SOL    HW179063   7.660  12.806  11.956
92408SOL    HW279064   7.672  12.666  12.012
92409SOL     OW79065   7.235   7.912  10.585
92409SOL    HW179066   7.209   7.881  10.498
92409SOL    HW279067   7.165   7.883  10.643
92410SOL     OW79068  11.594   6.385  13.695
92410SOL    HW179069  11.640   6.456  13.740
92410SOL    HW279070  11.527   6.429  13.642
92411SOL     OW79071   4.043   0.058  11.108
92411SOL    HW179072   4.043   0.153  11.095
92411SOL    HW279073   4.031   0.047  11.203
92412SOL     OW79074   7.260   7.314   7.558
92412SOL    HW179075   7.188   7.253   7.543
92412SOL    HW279076   7.326   7.290   7.493
92413SOL     OW79077   3.935   2.315  14.155
92413SOL    HW179078   4.008   2.359  14.111
92413SOL    HW279079   3.882   2.386  14.190
92414SOL     OW79080  13.225   9.686  13.866
92414SOL    HW179081  13.237   9.780  13.856
92414SOL    HW279082  13.201   9.674  13.958
92415SOL     OW79083   7.270   0.543  12.414
92415SOL    HW179084   7.241   0.627  12.380
92415SOL    HW279085   7.338   0.565  12.478
92416SOL     OW79086   1.919   3.370   0.667
92416SOL    HW179087   1.836   3.325   0.684
92416SOL    HW279088   1.984   3.321   0.717
92417SOL     OW79089  11.509   4.303   2.624
92417SOL    HW179090  11.546   4.224   2.584
92417SOL    HW279091  11.430   4.320   2.573
92418SOL     OW79092  11.011   3.116   0.181
92418SOL    HW179093  10.982   3.065   0.257
92418SOL    HW279094  11.058   3.052   0.126
92419SOL     OW79095   5.582   8.357   7.964
92419SOL    HW179096   5.678   8.352   7.962
92419SOL    HW279097   5.563   8.436   8.015
92420SOL     OW79098  13.816  12.269   8.720
92420SOL    HW179099  13.887  12.322   8.756
92420SOL    HW279100  13.736  12.315   8.746
92421SOL     OW79101  14.788   2.444  12.360
92421SOL    HW179102  14.822   2.529  12.331
92421SOL    HW279103  14.702   2.438  12.319
92422SOL     OW79104   0.004   8.656   5.921
92422SOL    HW179105  14.849   8.678   5.834
92422SOL    HW279106   0.098   8.671   5.914
92423SOL     OW79107   2.950   7.354  11.824
92423SOL    HW179108   2.875   7.316  11.869
92423SOL    HW279109   2.913   7.394  11.745
92424SOL     OW79110   2.654   1.037  14.311
92424SOL    HW179111   2.649   1.026  14.406
92424SOL    HW279112   2.741   1.073  14.296
92425SOL     OW79113   6.345  13.673  11.850
92425SOL    HW179114   6.413  13.728  11.889
92425SOL    HW279115   6.268  13.689  11.904
92426SOL     OW79116   7.344  14.277   6.484
92426SOL    HW179117   7.259  14.293   6.524
92426SOL    HW279118   7.383  14.208   6.539
92427SOL     OW79119  14.144  11.323  10.213
92427SOL    HW179120  14.223  11.272  10.234
92427SOL    HW279121  14.072  11.273  10.251
92428SOL     OW79122  13.478   6.268  14.414
92428SOL    HW179123  13.442   6.275  14.325
92428SOL    HW279124  13.456   6.351  14.456
92429SOL     OW79125   3.186   9.605   9.799
92429SOL    HW179126   3.195   9.682   9.856
92429SOL    HW279127   3.094   9.580   9.808
92430SOL     OW79128   3.215  12.882   2.852
92430SOL    HW179129   3.201  12.793   2.822
92430SOL    HW279130   3.303  12.881   2.890
92431SOL     OW79131   3.870  14.321   4.692
92431SOL    HW179132   3.895  14.401   4.738
92431SOL    HW279133   3.775  14.316   4.701
92432SOL     OW79134   2.823   1.465   4.269
92432SOL    HW179135   2.866   1.547   4.243
92432SOL    HW279136   2.875   1.397   4.226
92433SOL     OW79137  13.711   1.838   9.775
92433SOL    HW179138  13.750   1.921   9.801
92433SOL    HW279139  13.747   1.821   9.688
92434SOL     OW79140   6.045   3.577   4.273
92434SOL    HW179141   6.070   3.582   4.181
92434SOL    HW279142   6.099   3.644   4.316
92435SOL     OW79143  14.668   8.877  12.448
92435SOL    HW179144  14.706   8.955  12.408
92435SOL    HW279145  14.650   8.819  12.375
92436SOL     OW79146   2.262   3.374  10.897
92436SOL    HW179147   2.236   3.450  10.845
92436SOL    HW279148   2.246   3.400  10.988
92437SOL     OW79149   3.149  13.308  12.658
92437SOL    HW179150   3.142  13.276  12.748
92437SOL    HW279151   3.065  13.284  12.617
92438SOL     OW79152  11.160   8.422   1.498
92438SOL    HW179153  11.216   8.430   1.575
92438SOL    HW279154  11.194   8.345   1.451
92439SOL     OW79155   0.343  11.924   8.894
92439SOL    HW179156   0.393  11.906   8.974
92439SOL    HW279157   0.252  11.905   8.917
92440SOL     OW79158   7.381  11.646   2.336
92440SOL    HW179159   7.438  11.683   2.403
92440SOL    HW279160   7.299  11.627   2.381
92441SOL     OW79161  13.335  12.322  13.640
92441SOL    HW179162  13.411  12.365  13.601
92441SOL    HW279163  13.369  12.239  13.673
92442SOL     OW79164   3.627   4.313  11.811
92442SOL    HW179165   3.720   4.325  11.833
92442SOL    HW279166   3.588   4.276  11.890
92443SOL     OW79167  12.299  10.848   9.791
92443SOL    HW179168  12.249  10.846   9.872
92443SOL    HW279169  12.388  10.872   9.817
92444SOL     OW79170   6.574  13.522   4.757
92444SOL    HW179171   6.549  13.541   4.848
92444SOL    HW279172   6.547  13.600   4.708
92445SOL     OW79173   4.935   5.647  13.097
92445SOL    HW179174   4.886   5.622  13.019
92445SOL    HW279175   4.929   5.743  13.099
92446SOL     OW79176   3.977  12.278   3.783
92446SOL    HW179177   4.050  12.222   3.754
92446SOL    HW279178   4.015  12.331   3.854
92447SOL     OW79179   7.411   4.263   6.078
92447SOL    HW179180   7.320   4.269   6.049
92447SOL    HW279181   7.462   4.285   6.000
92448SOL     OW79182   7.762  11.363  12.514
92448SOL    HW179183   7.681  11.373  12.564
92448SOL    HW279184   7.743  11.295  12.451
92449SOL     OW79185   2.069   4.714   3.694
92449SOL    HW179186   1.985   4.758   3.680
92449SOL    HW279187   2.053   4.653   3.767
92450SOL     OW79188   2.565   1.252   1.099
92450SOL    HW179189   2.657   1.249   1.126
92450SOL    HW279190   2.523   1.181   1.148
92451SOL     OW79191   0.538  13.083  11.590
92451SOL    HW179192   0.579  13.049  11.511
92451SOL    HW279193   0.507  13.006  11.637
92452SOL     OW79194   9.393   0.542   6.306
92452SOL    HW179195   9.410   0.542   6.400
92452SOL    HW279196   9.474   0.572   6.266
92453SOL     OW79197   2.811  12.250  12.936
92453SOL    HW179198   2.747  12.233  13.005
92453SOL    HW279199   2.758  12.275  12.860
92454SOL     OW79200  13.634  10.280  14.787
92454SOL    HW179201  13.657  10.373  14.786
92454SOL    HW279202  13.715  10.235  14.764
92455SOL     OW79203  13.916   1.479  10.862
92455SOL    HW179204  13.949   1.490  10.773
92455SOL    HW279205  13.993   1.490  10.918
92456SOL     OW79206   3.567   1.700  13.837
92456SOL    HW179207   3.602   1.747  13.914
92456SOL    HW279208   3.526   1.622  13.874
92457SOL     OW79209  14.599   7.052  11.384
92457SOL    HW179210  14.546   7.129  11.405
92457SOL    HW279211  14.535   6.981  11.374
92458SOL     OW79212   9.409   2.716   9.479
92458SOL    HW179213   9.420   2.633   9.433
92458SOL    HW279214   9.494   2.733   9.519
92459SOL     OW79215   3.579   0.225   8.341
92459SOL    HW179216   3.597   0.190   8.254
92459SOL    HW279217   3.614   0.159   8.401
92460SOL     OW79218  12.790   4.612   2.097
92460SOL    HW179219  12.750   4.535   2.057
92460SOL    HW279220  12.716   4.671   2.113
92461SOL     OW79221  12.504   8.099  14.076
92461SOL    HW179222  12.560   8.055  14.140
92461SOL    HW279223  12.415   8.069  14.098
92462SOL     OW79224   2.896   8.047   8.880
92462SOL    HW179225   2.885   8.036   8.785
92462SOL    HW279226   2.903   7.957   8.913
92463SOL     OW79227  10.526   1.306   2.570
92463SOL    HW179228  10.573   1.268   2.644
92463SOL    HW279229  10.517   1.233   2.508
92464SOL     OW79230   2.033   5.095  11.309
92464SOL    HW179231   1.981   5.132  11.238
92464SOL    HW279232   2.118   5.138  11.302
92465SOL     OW79233   3.027   9.521  10.142
92465SOL    HW179234   2.942   9.479  10.128
92465SOL    HW279235   3.018   9.607  10.102
92466SOL     OW79236   3.848   2.986  14.103
92466SOL    HW179237   3.803   3.011  14.184
92466SOL    HW279238   3.817   3.049  14.038
92467SOL     OW79239   5.823   5.172  14.268
92467SOL    HW179240   5.802   5.205  14.181
92467SOL    HW279241   5.814   5.077  14.259
92468SOL     OW79242   7.041   4.412  14.596
92468SOL    HW179243   6.947   4.409  14.583
92468SOL    HW279244   7.052   4.436  14.689
92469SOL     OW79245  13.409  14.379   2.116
92469SOL    HW179246  13.375  14.368   2.027
92469SOL    HW279247  13.498  14.413   2.103
92470SOL     OW79248   1.351   6.601   2.699
92470SOL    HW179249   1.308   6.522   2.732
92470SOL    HW279250   1.281   6.649   2.654
92471SOL     OW79251  11.057  10.911  11.602
92471SOL    HW179252  11.091  11.000  11.595
92471SOL    HW279253  11.026  10.891  11.513
92472SOL     OW79254  11.008   9.093  10.589
92472SOL    HW179255  10.943   9.049  10.644
92472SOL    HW279256  11.036   9.026  10.526
92473SOL     OW79257   6.232   5.369   3.498
92473SOL    HW179258   6.319   5.384   3.462
92473SOL    HW279259   6.226   5.273   3.506
92474SOL     OW79260   4.139  11.925   4.814
92474SOL    HW179261   4.194  11.867   4.761
92474SOL    HW279262   4.139  12.008   4.765
92475SOL     OW79263   6.578  14.187   9.337
92475SOL    HW179264   6.488  14.191   9.303
92475SOL    HW279265   6.600  14.278   9.358
92476SOL     OW79266   8.360   1.394   9.013
92476SOL    HW179267   8.440   1.387   9.064
92476SOL    HW279268   8.388   1.382   8.922
92477SOL     OW79269  11.069   4.670   9.134
92477SOL    HW179270  11.129   4.617   9.083
92477SOL    HW279271  11.112   4.756   9.139
92478SOL     OW79272   7.944   6.944  14.332
92478SOL    HW179273   7.941   7.026  14.282
92478SOL    HW279274   7.904   6.879  14.274
92479SOL     OW79275  13.832  12.354   3.496
92479SOL    HW179276  13.859  12.414   3.426
92479SOL    HW279277  13.789  12.282   3.451
92480SOL     OW79278   5.488  11.007   1.220
92480SOL    HW179279   5.447  11.039   1.139
92480SOL    HW279280   5.504  10.914   1.203
92481SOL     OW79281   5.719   8.411  14.675
92481SOL    HW179282   5.705   8.496  14.718
92481SOL    HW279283   5.742   8.352  14.747
92482SOL     OW79284  13.348   2.000   7.613
92482SOL    HW179285  13.312   1.965   7.695
92482SOL    HW279286  13.357   2.094   7.630
92483SOL     OW79287  13.238   0.125  11.879
92483SOL    HW179288  13.301   0.148  11.811
92483SOL    HW279289  13.172   0.071  11.833
92484SOL     OW79290  13.396  12.356  10.881
92484SOL    HW179291  13.315  12.378  10.835
92484SOL    HW279292  13.404  12.422  10.950
92485SOL     OW79293   7.834   1.591  14.058
92485SOL    HW179294   7.764   1.642  14.099
92485SOL    HW279295   7.831   1.615  13.966
92486SOL     OW79296   3.163   7.714   3.667
92486SOL    HW179297   3.173   7.807   3.645
92486SOL    HW279298   3.099   7.713   3.738
92487SOL     OW79299   7.630  13.822   5.497
92487SOL    HW179300   7.714  13.833   5.542
92487SOL    HW279301   7.572  13.785   5.563
92488SOL     OW79302   3.202  11.509   0.466
92488SOL    HW179303   3.213  11.417   0.444
92488SOL    HW279304   3.125  11.512   0.522
92489SOL     OW79305   6.523   8.549  12.542
92489SOL    HW179306   6.602   8.509  12.579
92489SOL    HW279307   6.526   8.525  12.450
92490SOL     OW79308  13.984  14.390   6.649
92490SOL    HW179309  13.965  14.326   6.717
92490SOL    HW279310  14.032  14.460   6.694
92491SOL     OW79311   0.896   5.119   4.682
92491SOL    HW179312   0.918   5.062   4.756
92491SOL    HW279313   0.801   5.128   4.686
92492SOL     OW79314  11.826   0.555   8.463
92492SOL    HW179315  11.910   0.530   8.503
92492SOL    HW279316  11.846   0.565   8.370
92493SOL     OW79317  14.530   7.049  10.940
92493SOL    HW179318  14.445   7.006  10.927
92493SOL    HW279319  14.565   7.008  11.019
92494SOL     OW79320  11.485   1.737   3.386
92494SOL    HW179321  11.419   1.690   3.438
92494SOL    HW279322  11.556   1.755   3.448
92495SOL     OW79323  11.691  12.230   6.318
92495SOL    HW179324  11.622  12.295   6.332
92495SOL    HW279325  11.645  12.147   6.307
92496SOL     OW79326  10.456   1.817   7.908
92496SOL    HW179327  10.362   1.803   7.915
92496SOL    HW279328  10.464   1.896   7.854
92497SOL     OW79329   0.873  14.534   8.923
92497SOL    HW179330   0.941  14.596   8.896
92497SOL    HW279331   0.860  14.551   9.016
92498SOL     OW79332   3.828  10.962   0.608
92498SOL    HW179333   3.841  10.950   0.514
92498SOL    HW279334   3.917  10.967   0.644
92499SOL     OW79335   6.215   3.296   8.783
92499SOL    HW179336   6.298   3.279   8.827
92499SOL    HW279337   6.225   3.384   8.746
92500SOL     OW79338   4.561   5.932   3.623
92500SOL    HW179339   4.495   5.883   3.573
92500SOL    HW279340   4.511   5.977   3.691
92501SOL     OW79341  13.949  11.751   7.695
92501SOL    HW179342  14.009  11.677   7.684
92501SOL    HW279343  13.993  11.824   7.653
92502SOL     OW79344  10.013   1.357   6.723
92502SOL    HW179345  10.059   1.310   6.792
92502SOL    HW279346   9.938   1.301   6.702
92503SOL     OW79347   6.100  10.161  12.847
92503SOL    HW179348   6.057  10.076  12.857
92503SOL    HW279349   6.191  10.141  12.826
92504SOL     OW79350   9.006   8.089   4.817
92504SOL    HW179351   8.942   8.053   4.756
92504SOL    HW279352   8.965   8.080   4.903
92505SOL     OW79353   6.475  13.268   6.866
92505SOL    HW179354   6.544  13.232   6.922
92505SOL    HW279355   6.395  13.224   6.895
92506SOL     OW79356   2.804  10.888   4.517
92506SOL    HW179357   2.784  10.850   4.431
92506SOL    HW279358   2.854  10.967   4.498
92507SOL     OW79359   8.551  13.271  11.476
92507SOL    HW179360   8.564  13.176  11.478
92507SOL    HW279361   8.534  13.295  11.567
92508SOL     OW79362   1.461  13.984   8.188
92508SOL    HW179363   1.406  14.022   8.119
92508SOL    HW279364   1.471  13.893   8.162
92509SOL     OW79365   3.165  11.722   1.971
92509SOL    HW179366   3.172  11.678   2.056
92509SOL    HW279367   3.162  11.815   1.993
92510SOL     OW79368   1.553   7.027   3.195
92510SOL    HW179369   1.576   7.102   3.249
92510SOL    HW279370   1.568   6.951   3.252
92511SOL     OW79371  13.801   1.362   8.118
92511SOL    HW179372  13.729   1.407   8.075
92511SOL    HW279373  13.802   1.275   8.080
92512SOL     OW79374   9.094   5.071   1.656
92512SOL    HW179375   9.142   5.075   1.573
92512SOL    HW279376   9.100   4.979   1.683
92513SOL     OW79377   0.673  13.081   7.029
92513SOL    HW179378   0.684  13.040   7.115
92513SOL    HW279379   0.609  13.151   7.044
92514SOL     OW79380  12.070   0.688   4.469
92514SOL    HW179381  12.152   0.640   4.455
92514SOL    HW279382  12.089   0.776   4.438
92515SOL     OW79383  12.364   2.637   4.451
92515SOL    HW179384  12.301   2.674   4.512
92515SOL    HW279385  12.320   2.561   4.413
92516SOL     OW79386  13.452   7.328   0.705
92516SOL    HW179387  13.413   7.398   0.758
92516SOL    HW279388  13.545   7.350   0.700
92517SOL     OW79389   6.178  12.964  12.622
92517SOL    HW179390   6.171  13.047  12.668
92517SOL    HW279391   6.270  12.939  12.633
92518SOL     OW79392   8.088  13.191   8.690
92518SOL    HW179393   8.036  13.268   8.667
92518SOL    HW279394   8.110  13.150   8.606
92519SOL     OW79395  11.249   4.953  13.598
92519SOL    HW179396  11.212   4.998  13.673
92519SOL    HW279397  11.179   4.953  13.533
92520SOL     OW79398   2.027   5.046   0.975
92520SOL    HW179399   1.942   5.017   0.942
92520SOL    HW279400   2.086   5.038   0.900
92521SOL     OW79401   2.602   3.316  12.163
92521SOL    HW179402   2.586   3.402  12.201
92521SOL    HW279403   2.529   3.262  12.194
92522SOL     OW79404   1.693  14.157  10.101
92522SOL    HW179405   1.675  14.144  10.008
92522SOL    HW279406   1.627  14.104  10.145
92523SOL     OW79407   9.862   5.035  10.023
92523SOL    HW179408   9.779   5.021  10.067
92523SOL    HW279409   9.862   4.974   9.949
92524SOL     OW79410   7.273   0.839   5.415
92524SOL    HW179411   7.197   0.873   5.463
92524SOL    HW279412   7.256   0.863   5.324
92525SOL     OW79413   9.370   4.790  14.785
92525SOL    HW179414   9.452   4.795  14.833
92525SOL    HW279415   9.316   4.859  14.822
92526SOL     OW79416  14.736   4.140   8.015
92526SOL    HW179417  14.755   4.139   7.921
92526SOL    HW279418  14.821   4.144   8.057
92527SOL     OW79419  14.876   1.208   2.100
92527SOL    HW179420  14.781   1.204   2.103
92527SOL    HW279421   0.019   1.172   2.014
92528SOL     OW79422   6.416   4.854   6.256
92528SOL    HW179423   6.400   4.892   6.170
92528SOL    HW279424   6.512   4.856   6.265
92529SOL     OW79425   4.293   3.235   0.411
92529SOL    HW179426   4.278   3.329   0.395
92529SOL    HW279427   4.207   3.195   0.395
92530SOL     OW79428  12.718  13.465   3.207
92530SOL    HW179429  12.775  13.528   3.163
92530SOL    HW279430  12.630  13.489   3.181
92531SOL     OW79431   6.224   1.878   0.253
92531SOL    HW179432   6.301   1.851   0.303
92531SOL    HW279433   6.202   1.965   0.287
92532SOL     OW79434   5.286   4.283  10.649
92532SOL    HW179435   5.345   4.241  10.712
92532SOL    HW279436   5.229   4.212  10.619
92533SOL     OW79437  14.638  13.721  13.798
92533SOL    HW179438  14.641  13.677  13.712
92533SOL    HW279439  14.578  13.667  13.850
92534SOL     OW79440   8.872   3.180  10.302
92534SOL    HW179441   8.918   3.193  10.219
92534SOL    HW279442   8.785   3.217  10.287
92535SOL     OW79443   7.051   7.850   6.661
92535SOL    HW179444   7.146   7.846   6.648
92535SOL    HW279445   7.020   7.761   6.644
92536SOL     OW79446   3.839   1.746   5.081
92536SOL    HW179447   3.823   1.660   5.044
92536SOL    HW279448   3.768   1.801   5.047
92537SOL     OW79449   5.706  11.895   2.224
92537SOL    HW179450   5.646  11.954   2.270
92537SOL    HW279451   5.664  11.879   2.140
92538SOL     OW79452   5.215  13.193  12.032
92538SOL    HW179453   5.295  13.144  12.055
92538SOL    HW279454   5.153  13.125  12.006
92539SOL     OW79455   2.370  14.567   2.150
92539SOL    HW179456   2.283  14.579   2.111
92539SOL    HW279457   2.394  14.478   2.127
92540SOL     OW79458  10.011   3.804   5.089
92540SOL    HW179459   9.919   3.829   5.081
92540SOL    HW279460  10.054   3.880   5.128
92541SOL     OW79461   9.773   7.016   9.564
92541SOL    HW179462   9.765   7.108   9.539
92541SOL    HW279463   9.770   6.968   9.481
92542SOL     OW79464   3.502   0.197  11.635
92542SOL    HW179465   3.456   0.141  11.572
92542SOL    HW279466   3.452   0.279  11.635
92543SOL     OW79467   0.796   6.763   2.679
92543SOL    HW179468   0.725   6.756   2.742
92543SOL    HW279469   0.860   6.697   2.707
92544SOL     OW79470  12.632   2.287   6.143
92544SOL    HW179471  12.584   2.325   6.217
92544SOL    HW279472  12.567   2.281   6.073
92545SOL     OW79473   8.993   9.260  13.731
92545SOL    HW179474   8.933   9.194  13.764
92545SOL    HW279475   8.951   9.343  13.752
92546SOL     OW79476   4.207   5.509   3.459
92546SOL    HW179477   4.196   5.448   3.386
92546SOL    HW279478   4.274   5.469   3.515
92547SOL     OW79479   5.301  12.521   9.589
92547SOL    HW179480   5.272  12.590   9.649
92547SOL    HW279481   5.391  12.502   9.617
92548SOL     OW79482   8.132   2.680   4.442
92548SOL    HW179483   8.165   2.619   4.377
92548SOL    HW279484   8.210   2.712   4.488
92549SOL     OW79485   4.707   8.395  11.609
92549SOL    HW179486   4.653   8.468  11.579
92549SOL    HW279487   4.649   8.319  11.608
92550SOL     OW79488   9.195  11.109  10.370
92550SOL    HW179489   9.180  11.018  10.395
92550SOL    HW279490   9.185  11.158  10.451
92551SOL     OW79491  11.887   9.112   5.025
92551SOL    HW179492  11.829   9.172   5.072
92551SOL    HW279493  11.948   9.169   4.978
92552SOL     OW79494   2.673  13.501   4.658
92552SOL    HW179495   2.593  13.540   4.692
92552SOL    HW279496   2.729  13.491   4.735
92553SOL     OW79497  11.023   5.877   0.561
92553SOL    HW179498  10.961   5.951   0.564
92553SOL    HW279499  11.041   5.866   0.467
92554SOL     OW79500   4.040  12.667   2.861
92554SOL    HW179501   3.985  12.681   2.784
92554SOL    HW279502   3.984  12.617   2.921
92555SOL     OW79503   3.577  10.707   7.750
92555SOL    HW179504   3.579  10.612   7.752
92555SOL    HW279505   3.551  10.733   7.839
92556SOL     OW79506   2.360  12.683   5.826
92556SOL    HW179507   2.435  12.737   5.853
92556SOL    HW279508   2.307  12.740   5.771
92557SOL     OW79509  12.227   5.677  12.757
92557SOL    HW179510  12.309   5.725  12.766
92557SOL    HW279511  12.246   5.606  12.696
92558SOL     OW79512   5.845  12.252   6.342
92558SOL    HW179513   5.900  12.181   6.376
92558SOL    HW279514   5.774  12.207   6.295
92559SOL     OW79515   8.259   5.242   8.893
92559SOL    HW179516   8.353   5.235   8.881
92559SOL    HW279517   8.240   5.335   8.881
92560SOL     OW79518   8.246  10.076   7.331
92560SOL    HW179519   8.280   9.987   7.323
92560SOL    HW279520   8.192  10.074   7.410
92561SOL     OW79521   1.629   4.156  14.632
92561SOL    HW179522   1.670   4.230  14.677
92561SOL    HW279523   1.696   4.126  14.570
92562SOL     OW79524  11.094  11.427   4.530
92562SOL    HW179525  11.181  11.397   4.503
92562SOL    HW279526  11.055  11.463   4.451
92563SOL     OW79527   7.578   6.451  11.665
92563SOL    HW179528   7.657   6.405  11.692
92563SOL    HW279529   7.542   6.487  11.747
92564SOL     OW79530   2.844   4.006  14.248
92564SOL    HW179531   2.887   4.083  14.209
92564SOL    HW279532   2.770   3.988  14.191
92565SOL     OW79533   0.459   9.694  14.768
92565SOL    HW179534   0.423   9.775  14.732
92565SOL    HW279535   0.429   9.626  14.708
92566SOL     OW79536  13.917  14.861   3.698
92566SOL    HW179537  13.913   0.038   3.621
92566SOL    HW279538  13.988  14.801   3.680
92567SOL     OW79539  11.363   4.858   2.204
92567SOL    HW179540  11.453   4.851   2.237
92567SOL    HW279541  11.320   4.916   2.267
92568SOL     OW79542   7.087   4.002  13.001
92568SOL    HW179543   7.085   3.915  12.961
92568SOL    HW279544   7.150   3.994  13.074
92569SOL     OW79545   9.758  14.854   6.135
92569SOL    HW179546   9.720   0.004   6.218
92569SOL    HW279547   9.754   0.052   6.078
92570SOL     OW79548   5.434   4.965  10.262
92570SOL    HW179549   5.459   4.955  10.354
92570SOL    HW279550   5.511   5.005  10.221
92571SOL     OW79551   1.857   2.744  13.420
92571SOL    HW179552   1.785   2.731  13.482
92571SOL    HW279553   1.868   2.659  13.377
92572SOL     OW79554   4.120  13.297   1.427
92572SOL    HW179555   4.072  13.260   1.353
92572SOL    HW279556   4.163  13.375   1.392
92573SOL     OW79557  12.430   1.411   3.307
92573SOL    HW179558  12.479   1.479   3.261
92573SOL    HW279559  12.475   1.329   3.286
92574SOL     OW79560   5.608   4.929   2.695
92574SOL    HW179561   5.672   4.986   2.738
92574SOL    HW279562   5.543   4.911   2.763
92575SOL     OW79563   8.419   3.289   5.153
92575SOL    HW179564   8.483   3.360   5.144
92575SOL    HW279565   8.402   3.284   5.247
92576SOL     OW79566   9.374  13.850   0.835
92576SOL    HW179567   9.321  13.817   0.908
92576SOL    HW279568   9.461  13.863   0.873
92577SOL     OW79569   1.336   4.904   1.074
92577SOL    HW179570   1.416   4.955   1.086
92577SOL    HW279571   1.361   4.814   1.092
92578SOL     OW79572   3.636  14.641   1.052
92578SOL    HW179573   3.542  14.626   1.066
92578SOL    HW279574   3.677  14.612   1.133
92579SOL     OW79575   1.854  10.987   1.294
92579SOL    HW179576   1.804  10.916   1.336
92579SOL    HW279577   1.796  11.063   1.297
92580SOL     OW79578   4.705   3.327   9.465
92580SOL    HW179579   4.720   3.261   9.397
92580SOL    HW279580   4.758   3.297   9.539
92581SOL     OW79581   0.909  11.771   3.213
92581SOL    HW179582   0.889  11.852   3.166
92581SOL    HW279583   0.931  11.799   3.302
92582SOL     OW79584   7.184   4.506   2.172
92582SOL    HW179585   7.107   4.550   2.135
92582SOL    HW279586   7.252   4.518   2.106
92583SOL     OW79587   6.359  13.205   8.778
92583SOL    HW179588   6.380  13.138   8.843
92583SOL    HW279589   6.442  13.247   8.758
92584SOL     OW79590   0.038   1.551  10.420
92584SOL    HW179591   0.130   1.575  10.409
92584SOL    HW279592   0.011   1.599  10.498
92585SOL     OW79593  14.680   4.573   8.252
92585SOL    HW179594  14.688   4.529   8.167
92585SOL    HW279595  14.654   4.504   8.313
92586SOL     OW79596   3.666   9.053   9.466
92586SOL    HW179597   3.699   9.122   9.522
92586SOL    HW279598   3.672   8.973   9.519
92587SOL     OW79599   1.521   7.544   6.575
92587SOL    HW179600   1.429   7.562   6.555
92587SOL    HW279601   1.568   7.578   6.499
92588SOL     OW79602   9.661  14.000   0.563
92588SOL    HW179603   9.578  14.046   0.558
92588SOL    HW279604   9.718  14.060   0.611
92589SOL     OW79605  14.857   7.807  14.769
92589SOL    HW179606   0.065   7.833  14.739
92589SOL    HW279607  14.800   7.880  14.745
92590SOL     OW79608   0.847   0.943  14.069
92590SOL    HW179609   0.811   0.908  14.150
92590SOL    HW279610   0.942   0.943  14.082
92591SOL     OW79611   5.125   7.764  12.513
92591SOL    HW179612   5.098   7.762  12.604
92591SOL    HW279613   5.199   7.825  12.511
92592SOL     OW79614  12.021   5.456   3.869
92592SOL    HW179615  12.053   5.541   3.900
92592SOL    HW279616  12.067   5.441   3.787
92593SOL     OW79617   8.019  11.017   9.394
92593SOL    HW179618   7.961  10.999   9.320
92593SOL    HW279619   7.978  11.091   9.439
92594SOL     OW79620  13.647   0.414  11.755
92594SOL    HW179621  13.666   0.351  11.825
92594SOL    HW279622  13.552   0.422  11.755
92595SOL     OW79623   5.091   2.728   5.911
92595SOL    HW179624   5.126   2.723   6.000
92595SOL    HW279625   5.131   2.807   5.874
92596SOL     OW79626   9.777  14.646  13.248
92596SOL    HW179627   9.774  14.699  13.168
92596SOL    HW279628   9.754  14.558  13.220
92597SOL     OW79629   2.914   8.943   7.540
92597SOL    HW179630   2.865   8.891   7.476
92597SOL    HW279631   2.962   8.879   7.592
92598SOL     OW79632  14.174   6.218  14.472
92598SOL    HW179633  14.169   6.164  14.552
92598SOL    HW279634  14.265   6.250  14.471
92599SOL     OW79635  14.420   6.248   3.382
92599SOL    HW179636  14.345   6.193   3.405
92599SOL    HW279637  14.413   6.259   3.287
92600SOL     OW79638   1.644  11.602   5.909
92600SOL    HW179639   1.677  11.546   5.980
92600SOL    HW279640   1.602  11.675   5.954
92601SOL     OW79641  10.925   4.206  13.616
92601SOL    HW179642  10.939   4.224  13.709
92601SOL    HW279643  10.869   4.130  13.614
92602SOL     OW79644  13.507  10.955  14.591
92602SOL    HW179645  13.513  10.894  14.517
92602SOL    HW279646  13.425  10.931  14.635
92603SOL     OW79647   5.091   4.389   2.365
92603SOL    HW179648   5.156   4.338   2.317
92603SOL    HW279649   5.007   4.355   2.334
92604SOL     OW79650   0.508   2.710  11.537
92604SOL    HW179651   0.562   2.667  11.603
92604SOL    HW279652   0.480   2.791  11.579
92605SOL     OW79653  11.604   9.068   1.773
92605SOL    HW179654  11.600   9.125   1.850
92605SOL    HW279655  11.578   9.125   1.700
92606SOL     OW79656   1.224   2.006  14.789
92606SOL    HW179657   1.240   2.002   0.003
92606SOL    HW279658   1.130   1.991  14.780
92607SOL     OW79659   4.492   4.963   7.912
92607SOL    HW179660   4.552   4.998   7.847
92607SOL    HW279661   4.548   4.918   7.975
92608SOL     OW79662  12.708   6.645   3.528
92608SOL    HW179663  12.624   6.602   3.510
92608SOL    HW279664  12.762   6.624   3.452
92609SOL     OW79665   9.791   7.018  14.159
92609SOL    HW179666   9.845   7.079  14.111
92609SOL    HW279667   9.823   6.931  14.133
92610SOL     OW79668  11.977  12.270   3.800
92610SOL    HW179669  12.041  12.254   3.869
92610SOL    HW279670  11.893  12.246   3.839
92611SOL     OW79671   4.801   0.574   5.727
92611SOL    HW179672   4.748   0.495   5.738
92611SOL    HW279673   4.803   0.590   5.633
92612SOL     OW79674  14.073  14.660  11.044
92612SOL    HW179675  14.002  14.722  11.058
92612SOL    HW279676  14.100  14.673  10.954
92613SOL     OW79677   0.738   4.401   6.395
92613SOL    HW179678   0.708   4.316   6.362
92613SOL    HW279679   0.713   4.401   6.487
92614SOL     OW79680   1.107   6.176  11.711
92614SOL    HW179681   1.057   6.257  11.710
92614SOL    HW279682   1.198   6.204  11.696
92615SOL     OW79683  13.070  10.260   6.287
92615SOL    HW179684  13.107  10.178   6.255
92615SOL    HW279685  12.975  10.249   6.276
92616SOL     OW79686   3.914   0.554  10.464
92616SOL    HW179687   3.879   0.633  10.423
92616SOL    HW279688   3.838   0.496  10.472
92617SOL     OW79689   0.612  11.657   1.662
92617SOL    HW179690   0.678  11.720   1.692
92617SOL    HW279691   0.529  11.693   1.693
92618SOL     OW79692  14.464   5.062   3.528
92618SOL    HW179693  14.534   5.101   3.475
92618SOL    HW279694  14.500   5.061   3.617
92619SOL     OW79695   3.924   4.619   9.781
92619SOL    HW179696   3.889   4.570   9.856
92619SOL    HW279697   3.910   4.563   9.706
92620SOL     OW79698   2.318  10.823   7.210
92620SOL    HW179699   2.310  10.744   7.156
92620SOL    HW279700   2.367  10.794   7.287
92621SOL     OW79701  10.968   7.818   7.028
92621SOL    HW179702  10.949   7.738   7.077
92621SOL    HW279703  11.012   7.875   7.091
92622SOL     OW79704   7.038   5.598   9.641
92622SOL    HW179705   7.048   5.611   9.547
92622SOL    HW279706   7.120   5.630   9.679
92623SOL     OW79707  10.199  14.438   6.447
92623SOL    HW179708  10.215  14.362   6.391
92623SOL    HW279709  10.113  14.469   6.421
92624SOL     OW79710   9.654  13.911   5.011
92624SOL    HW179711   9.743  13.878   4.999
92624SOL    HW279712   9.636  13.900   5.104
92625SOL     OW79713   8.804  11.558  10.449
92625SOL    HW179714   8.788  11.593  10.537
92625SOL    HW279715   8.720  11.522  10.422
92626SOL     OW79716   7.217   0.626  11.786
92626SOL    HW179717   7.166   0.693  11.740
92626SOL    HW279718   7.279   0.676  11.839
92627SOL     OW79719  11.340   1.892   6.952
92627SOL    HW179720  11.313   1.947   7.025
92627SOL    HW279721  11.418   1.936   6.917
92628SOL     OW79722   2.485   9.835   0.394
92628SOL    HW179723   2.545   9.887   0.448
92628SOL    HW279724   2.429   9.901   0.352
92629SOL     OW79725  14.311   3.515  14.041
92629SOL    HW179726  14.382   3.463  14.078
92629SOL    HW279727  14.340   3.535  13.952
92630SOL     OW79728   8.759   1.238  14.592
92630SOL    HW179729   8.774   1.309  14.655
92630SOL    HW279730   8.696   1.180  14.634
92631SOL     OW79731   2.984   0.354  10.235
92631SOL    HW179732   2.936   0.304  10.169
92631SOL    HW279733   3.070   0.370  10.196
92632SOL     OW79734   1.640   3.632   7.437
92632SOL    HW179735   1.731   3.605   7.421
92632SOL    HW279736   1.630   3.626   7.532
92633SOL     OW79737   5.558   0.640  11.037
92633SOL    HW179738   5.540   0.725  10.996
92633SOL    HW279739   5.640   0.611  10.996
92634SOL     OW79740   2.870  13.790   9.801
92634SOL    HW179741   2.842  13.835   9.880
92634SOL    HW279742   2.870  13.858   9.733
92635SOL     OW79743   2.747   0.089  11.852
92635SOL    HW179744   2.825   0.060  11.898
92635SOL    HW279745   2.730   0.019  11.788
92636SOL     OW79746   2.315   4.332   0.803
92636SOL    HW179747   2.344   4.422   0.787
92636SOL    HW279748   2.395   4.279   0.796
92637SOL     OW79749  12.044   7.686   3.308
92637SOL    HW179750  12.117   7.732   3.266
92637SOL    HW279751  12.005   7.751   3.367
92638SOL     OW79752  14.491  13.510  14.687
92638SOL    HW179753  14.415  13.482  14.636
92638SOL    HW279754  14.524  13.587  14.641
92639SOL     OW79755   7.931  12.494   2.870
92639SOL    HW179756   7.957  12.584   2.851
92639SOL    HW279757   7.841  12.488   2.838
92640SOL     OW79758   0.426  13.950   1.956
92640SOL    HW179759   0.481  13.901   1.895
92640SOL    HW279760   0.391  14.023   1.903
92641SOL     OW79761  12.065   4.005   5.538
92641SOL    HW179762  12.087   3.992   5.630
92641SOL    HW279763  12.086   3.922   5.496
92642SOL     OW79764   2.894  11.049   3.612
92642SOL    HW179765   2.842  11.052   3.692
92642SOL    HW279766   2.938  11.133   3.608
92643SOL     OW79767   4.227   1.472   7.549
92643SOL    HW179768   4.203   1.563   7.532
92643SOL    HW279769   4.270   1.443   7.469
92644SOL     OW79770   6.744   0.320  14.591
92644SOL    HW179771   6.700   0.237  14.572
92644SOL    HW279772   6.782   0.347  14.508
92645SOL     OW79773   9.743  13.782  14.380
92645SOL    HW179774   9.751  13.746  14.469
92645SOL    HW279775   9.812  13.737  14.331
92646SOL     OW79776  13.783   4.048   6.554
92646SOL    HW179777  13.779   4.094   6.470
92646SOL    HW279778  13.857   3.988   6.544
92647SOL     OW79779   6.003  13.228   3.967
92647SOL    HW179780   5.994  13.213   3.872
92647SOL    HW279781   6.050  13.151   3.999
92648SOL     OW79782   5.149  11.527   0.192
92648SOL    HW179783   5.203  11.516   0.271
92648SOL    HW279784   5.118  11.439   0.171
92649SOL     OW79785   2.065  11.638   4.639
92649SOL    HW179786   2.043  11.545   4.653
92649SOL    HW279787   2.017  11.663   4.561
92650SOL     OW79788   5.541  12.509   2.281
92650SOL    HW179789   5.551  12.473   2.369
92650SOL    HW279790   5.523  12.602   2.295
92651SOL     OW79791   8.510   9.500   5.101
92651SOL    HW179792   8.419   9.510   5.130
92651SOL    HW279793   8.508   9.422   5.045
92652SOL     OW79794   3.880  14.861   0.605
92652SOL    HW179795   3.904  14.770   0.623
92652SOL    HW279796   3.822  14.857   0.529
92653SOL     OW79797   1.451   7.248  10.188
92653SOL    HW179798   1.474   7.171  10.240
92653SOL    HW279799   1.394   7.300  10.245
92654SOL     OW79800   1.854   4.221  12.485
92654SOL    HW179801   1.874   4.315  12.480
92654SOL    HW279802   1.838   4.204  12.578
92655SOL     OW79803   3.204   9.247   7.942
92655SOL    HW179804   3.274   9.202   7.895
92655SOL    HW279805   3.139   9.267   7.876
92656SOL     OW79806  11.169  11.817   5.830
92656SOL    HW179807  11.102  11.866   5.877
92656SOL    HW279808  11.245  11.875   5.828
92657SOL     OW79809   5.719   9.131  14.668
92657SOL    HW179810   5.763   9.105  14.749
92657SOL    HW279811   5.636   9.169  14.698
92658SOL     OW79812   7.423   3.319   4.618
92658SOL    HW179813   7.419   3.351   4.528
92658SOL    HW279814   7.515   3.330   4.644
92659SOL     OW79815   1.844   4.395   8.867
92659SOL    HW179816   1.832   4.326   8.932
92659SOL    HW279817   1.939   4.400   8.855
92660SOL     OW79818   6.434   3.747  11.144
92660SOL    HW179819   6.454   3.657  11.172
92660SOL    HW279820   6.490   3.762  11.068
92661SOL     OW79821  14.638   2.976   2.125
92661SOL    HW179822  14.726   2.939   2.124
92661SOL    HW279823  14.580   2.901   2.118
92662SOL     OW79824   9.599   5.225  11.658
92662SOL    HW179825   9.569   5.306  11.618
92662SOL    HW279826   9.536   5.209  11.729
92663SOL     OW79827  13.748   9.188  13.902
92663SOL    HW179828  13.699   9.252  13.851
92663SOL    HW279829  13.686   9.157  13.969
92664SOL     OW79830  14.442   6.967   5.132
92664SOL    HW179831  14.537   6.954   5.131
92664SOL    HW279832  14.406   6.880   5.146
92665SOL     OW79833   6.828  13.493   8.667
92665SOL    HW179834   6.890  13.454   8.605
92665SOL    HW279835   6.832  13.587   8.648
92666SOL     OW79836  14.034   7.168  11.625
92666SOL    HW179837  14.064   7.258  11.641
92666SOL    HW279838  13.975   7.176  11.549
92667SOL     OW79839   7.897   0.851   7.218
92667SOL    HW179840   7.895   0.764   7.258
92667SOL    HW279841   7.948   0.840   7.138
92668SOL     OW79842  13.724   2.341   6.986
92668SOL    HW179843  13.773   2.262   7.010
92668SOL    HW279844  13.722   2.393   7.066
92669SOL     OW79845  10.563   6.791   2.865
92669SOL    HW179846  10.595   6.732   2.795
92669SOL    HW279847  10.586   6.878   2.834
92670SOL     OW79848  12.820   0.083   3.446
92670SOL    HW179849  12.857   0.111   3.530
92670SOL    HW279850  12.749   0.024   3.469
92671SOL     OW79851   6.249   9.836   7.037
92671SOL    HW179852   6.209   9.811   7.120
92671SOL    HW279853   6.340   9.807   7.044
92672SOL     OW79854  12.492  13.766   9.300
92672SOL    HW179855  12.569  13.736   9.347
92672SOL    HW279856  12.477  13.854   9.333
92673SOL     OW79857   0.235  12.852   8.843
92673SOL    HW179858   0.159  12.805   8.810
92673SOL    HW279859   0.207  12.886   8.928
92674SOL     OW79860   8.424  10.494   9.859
92674SOL    HW179861   8.446  10.586   9.866
92674SOL    HW279862   8.418  10.464   9.950
92675SOL     OW79863  13.884   7.263  12.959
92675SOL    HW179864  13.946   7.250  12.886
92675SOL    HW279865  13.799   7.237  12.922
92676SOL     OW79866   2.297   4.342   5.080
92676SOL    HW179867   2.337   4.345   4.993
92676SOL    HW279868   2.354   4.284   5.130
92677SOL     OW79869   1.563   7.392   4.530
92677SOL    HW179870   1.648   7.436   4.540
92677SOL    HW279871   1.563   7.360   4.440
92678SOL     OW79872   4.278   0.675   2.127
92678SOL    HW179873   4.360   0.649   2.085
92678SOL    HW279874   4.210   0.626   2.079
92679SOL     OW79875   2.137   3.539   1.049
92679SOL    HW179876   2.079   3.563   1.121
92679SOL    HW279877   2.101   3.585   0.973
92680SOL     OW79878  13.757   8.398   2.559
92680SOL    HW179879  13.724   8.434   2.477
92680SOL    HW279880  13.710   8.315   2.568
92681SOL     OW79881  12.660  14.800  13.735
92681SOL    HW179882  12.618  14.719  13.763
92681SOL    HW279883  12.638  14.863  13.804
92682SOL     OW79884   9.961   7.336   1.378
92682SOL    HW179885   9.883   7.283   1.398
92682SOL    HW279886   9.968   7.397   1.451
92683SOL     OW79887   1.168   4.312   5.046
92683SOL    HW179888   1.208   4.234   5.009
92683SOL    HW279889   1.238   4.378   5.048
92684SOL     OW79890   2.113   1.154   6.596
92684SOL    HW179891   2.180   1.136   6.530
92684SOL    HW279892   2.098   1.249   6.589
92685SOL     OW79893   6.939   5.246  11.020
92685SOL    HW179894   6.893   5.293  10.950
92685SOL    HW279895   7.024   5.289  11.025
92686SOL     OW79896   4.292  14.318   5.713
92686SOL    HW179897   4.272  14.295   5.622
92686SOL    HW279898   4.369  14.265   5.735
92687SOL     OW79899  10.658  10.058   8.757
92687SOL    HW179900  10.592  10.006   8.803
92687SOL    HW279901  10.734  10.000   8.752
92688SOL     OW79902  10.418  11.277   8.747
92688SOL    HW179903  10.426  11.189   8.710
92688SOL    HW279904  10.399  11.262   8.840
92689SOL     OW79905   5.442  14.203   4.113
92689SOL    HW179906   5.376  14.174   4.176
92689SOL    HW279907   5.417  14.292   4.090
92690SOL     OW79908  12.738   9.689   8.482
92690SOL    HW179909  12.647   9.705   8.509
92690SOL    HW279910  12.791   9.723   8.554
92691SOL     OW79911   7.706   3.224  10.345
92691SOL    HW179912   7.665   3.306  10.373
92691SOL    HW279913   7.639   3.157  10.358
92692SOL     OW79914   6.276   7.313  11.776
92692SOL    HW179915   6.184   7.286  11.786
92692SOL    HW279916   6.280   7.398  11.820
92693SOL     OW79917   0.667   9.818   5.639
92693SOL    HW179918   0.632   9.896   5.597
92693SOL    HW279919   0.675   9.842   5.732
92694SOL     OW79920   3.039  10.245   9.187
92694SOL    HW179921   3.058  10.225   9.279
92694SOL    HW279922   3.040  10.161   9.143
92695SOL     OW79923  11.706  13.246  13.767
92695SOL    HW179924  11.662  13.176  13.815
92695SOL    HW279925  11.660  13.250  13.683
92696SOL     OW79926   3.135   1.110  12.635
92696SOL    HW179927   3.118   1.197  12.670
92696SOL    HW279928   3.224   1.116  12.600
92697SOL     OW79929   7.806   9.506  10.993
92697SOL    HW179930   7.803   9.601  11.002
92697SOL    HW279931   7.810   9.474  11.083
92698SOL     OW79932   1.174   5.952  14.055
92698SOL    HW179933   1.254   5.899  14.051
92698SOL    HW279934   1.201   6.033  14.098
92699SOL     OW79935   1.429   9.277   6.059
92699SOL    HW179936   1.511   9.325   6.056
92699SOL    HW279937   1.379   9.310   5.985
92700SOL     OW79938  14.860  11.706  11.362
92700SOL    HW179939  14.879  11.622  11.405
92700SOL    HW279940   0.062  11.755  11.370
92701SOL     OW79941   1.555   6.588  14.781
92701SOL    HW179942   1.549   6.540  14.699
92701SOL    HW279943   1.487   6.655  14.774
92702SOL     OW79944  11.720   5.543  12.899
92702SOL    HW179945  11.700   5.452  12.881
92702SOL    HW279946  11.726   5.585  12.813
92703SOL     OW79947   1.866  13.096   0.256
92703SOL    HW179948   1.868  13.049   0.173
92703SOL    HW279949   1.917  13.175   0.241
92704SOL     OW79950  10.591   6.147   4.211
92704SOL    HW179951  10.657   6.095   4.257
92704SOL    HW279952  10.508   6.111   4.240
92705SOL     OW79953   3.666  10.265   2.960
92705SOL    HW179954   3.601  10.279   2.891
92705SOL    HW279955   3.746  10.304   2.926
92706SOL     OW79956  12.766  10.463  11.685
92706SOL    HW179957  12.745  10.556  11.691
92706SOL    HW279958  12.834  10.458  11.618
92707SOL     OW79959  11.215  12.125  11.327
92707SOL    HW179960  11.144  12.176  11.365
92707SOL    HW279961  11.251  12.182  11.258
92708SOL     OW79962   7.573   8.368   2.448
92708SOL    HW179963   7.542   8.295   2.502
92708SOL    HW279964   7.502   8.432   2.452
92709SOL     OW79965   1.710  12.457  10.046
92709SOL    HW179966   1.626  12.453  10.002
92709SOL    HW279967   1.746  12.368  10.038
92710SOL     OW79968   2.681   3.774  10.310
92710SOL    HW179969   2.706   3.862  10.283
92710SOL    HW279970   2.586   3.772  10.300
92711SOL     OW79971   0.576   3.651   2.242
92711SOL    HW179972   0.556   3.726   2.186
92711SOL    HW279973   0.510   3.654   2.311
92712SOL     OW79974  12.814   3.995  11.103
92712SOL    HW179975  12.722   3.969  11.116
92712SOL    HW279976  12.812   4.090  11.106
92713SOL     OW79977   5.866   7.945   9.666
92713SOL    HW179978   5.793   7.969   9.609
92713SOL    HW279979   5.845   7.857   9.697
92714SOL     OW79980   8.821   1.877  13.029
92714SOL    HW179981   8.820   1.819  12.953
92714SOL    HW279982   8.909   1.916  13.028
92715SOL     OW79983   6.176  12.652   1.061
92715SOL    HW179984   6.097  12.657   1.115
92715SOL    HW279985   6.161  12.579   1.002
92716SOL     OW79986   8.176   3.974   6.975
92716SOL    HW179987   8.162   4.025   6.895
92716SOL    HW279988   8.137   4.028   7.045
92717SOL     OW79989   7.638   7.209  13.626
92717SOL    HW179990   7.660   7.236  13.537
92717SOL    HW279991   7.704   7.251  13.682
92718SOL     OW79992   0.699   2.574  14.041
92718SOL    HW179993   0.611   2.587  14.075
92718SOL    HW279994   0.740   2.660  14.048
92719SOL     OW79995   9.584  13.334  10.713
92719SOL    HW179996   9.542  13.418  10.695
92719SOL    HW279997   9.573  13.284  10.632
92720SOL     OW79998   5.907   4.333  12.326
92720SOL    HW179999   5.893   4.290  12.242
92720SOL    HW280000   5.867   4.419  12.315
92721SOL     OW80001   2.353  14.375  10.247
92721SOL    HW180002   2.397  14.295  10.275
92721SOL    HW280003   2.421  14.442  10.249
92722SOL     OW80004  11.585  10.260  13.202
92722SOL    HW180005  11.542  10.266  13.117
92722SOL    HW280006  11.535  10.193  13.250
92723SOL     OW80007  11.521   8.821   0.231
92723SOL    HW180008  11.496   8.842   0.321
92723SOL    HW280009  11.459   8.754   0.204
92724SOL     OW80010   4.192  10.698   7.922
92724SOL    HW180011   4.109  10.705   7.969
92724SOL    HW280012   4.218  10.606   7.931
92725SOL     OW80013  12.652  11.840  13.835
92725SOL    HW180014  12.641  11.790  13.754
92725SOL    HW280015  12.611  11.924  13.818
92726SOL     OW80016   0.709   3.588   0.005
92726SOL    HW180017   0.679   3.678   0.018
92726SOL    HW280018   0.628   3.536   0.002
92727SOL     OW80019   4.103   1.240   9.607
92727SOL    HW180020   4.124   1.327   9.572
92727SOL    HW280021   4.007   1.234   9.599
92728SOL     OW80022   0.818  12.654   6.853
92728SOL    HW180023   0.882  12.639   6.783
92728SOL    HW280024   0.736  12.618   6.818
92729SOL     OW80025   1.516   2.238   3.850
92729SOL    HW180026   1.516   2.176   3.923
92729SOL    HW280027   1.557   2.317   3.886
92730SOL     OW80028   9.371   5.318   1.401
92730SOL    HW180029   9.319   5.383   1.449
92730SOL    HW280030   9.368   5.346   1.310
92731SOL     OW80031   5.181  10.757   1.963
92731SOL    HW180032   5.125  10.681   1.975
92731SOL    HW280033   5.228  10.739   1.882
92732SOL     OW80034   1.671  12.099   4.304
92732SOL    HW180035   1.611  12.030   4.331
92732SOL    HW280036   1.724  12.116   4.382
92733SOL     OW80037   0.149   6.779   9.898
92733SOL    HW180038   0.057   6.754   9.905
92733SOL    HW280039   0.164   6.790   9.805
92734SOL     OW80040  12.039   8.429  14.306
92734SOL    HW180041  11.998   8.353  14.347
92734SOL    HW280042  11.967   8.492  14.296
92735SOL     OW80043   8.239   9.067   4.322
92735SOL    HW180044   8.293   9.140   4.292
92735SOL    HW280045   8.164   9.108   4.365
92736SOL     OW80046   2.075  11.377  12.289
92736SOL    HW180047   2.003  11.314  12.277
92736SOL    HW280048   2.154  11.323  12.287
92737SOL     OW80049   8.764   8.450  12.171
92737SOL    HW180050   8.698   8.519  12.177
92737SOL    HW280051   8.715   8.368  12.179
92738SOL     OW80052   8.383   1.655   9.909
92738SOL    HW180053   8.287   1.656   9.899
92738SOL    HW280054   8.416   1.661   9.819
92739SOL     OW80055   1.204  12.102   9.974
92739SOL    HW180056   1.171  12.159  10.044
92739SOL    HW280057   1.154  12.127   9.897
92740SOL     OW80058   6.126   2.722   2.970
92740SOL    HW180059   6.191   2.747   2.904
92740SOL    HW280060   6.089   2.805   3.000
92741SOL     OW80061  13.021   5.546   8.175
92741SOL    HW180062  13.057   5.563   8.088
92741SOL    HW280063  13.090   5.571   8.236
92742SOL     OW80064  10.318   6.293  12.098
92742SOL    HW180065  10.328   6.307  12.003
92742SOL    HW280066  10.237   6.340  12.120
92743SOL     OW80067   8.313  12.588   6.684
92743SOL    HW180068   8.334  12.672   6.644
92743SOL    HW280069   8.223  12.571   6.658
92744SOL     OW80070   6.343  10.958   3.701
92744SOL    HW180071   6.252  10.981   3.682
92744SOL    HW280072   6.394  11.033   3.671
92745SOL     OW80073   6.822  13.699  11.195
92745SOL    HW180074   6.827  13.718  11.289
92745SOL    HW280075   6.793  13.781  11.155
92746SOL     OW80076   2.038   8.848  12.774
92746SOL    HW180077   2.093   8.884  12.705
92746SOL    HW280078   2.034   8.754  12.755
92747SOL     OW80079   1.433   7.617   0.914
92747SOL    HW180080   1.478   7.592   0.995
92747SOL    HW280081   1.425   7.536   0.865
92748SOL     OW80082   9.520   9.294   1.941
92748SOL    HW180083   9.436   9.338   1.930
92748SOL    HW280084   9.577   9.336   1.876
92749SOL     OW80085   4.988  12.167  11.449
92749SOL    HW180086   5.071  12.213  11.440
92749SOL    HW280087   4.928  12.233  11.483
92750SOL     OW80088  13.408   4.497   6.132
92750SOL    HW180089  13.402   4.542   6.216
92750SOL    HW280090  13.495   4.458   6.131
92751SOL     OW80091   9.219  11.243  14.508
92751SOL    HW180092   9.302  11.289  14.494
92751SOL    HW280093   9.162  11.309  14.549
92752SOL     OW80094  13.555  11.061   8.245
92752SOL    HW180095  13.559  11.119   8.322
92752SOL    HW280096  13.505  11.110   8.181
92753SOL     OW80097   9.973  11.146   9.513
92753SOL    HW180098   9.992  11.134   9.606
92753SOL    HW280099  10.048  11.106   9.468
92754SOL     OW80100   5.790   8.561  12.401
92754SOL    HW180101   5.852   8.632  12.385
92754SOL    HW280102   5.729   8.597  12.465
92755SOL     OW80103   6.195   5.874   9.812
92755SOL    HW180104   6.279   5.912   9.836
92755SOL    HW280105   6.189   5.794   9.865
92756SOL     OW80106   2.110   6.867   4.591
92756SOL    HW180107   2.181   6.896   4.648
92756SOL    HW280108   2.077   6.947   4.551
92757SOL     OW80109   5.250   8.179  14.365
92757SOL    HW180110   5.268   8.262  14.409
92757SOL    HW280111   5.335   8.150  14.331
92758SOL     OW80112   5.632  13.424   1.435
92758SOL    HW180113   5.630  13.491   1.367
92758SOL    HW280114   5.585  13.349   1.398
92759SOL     OW80115   5.059  11.878   3.081
92759SOL    HW180116   5.074  11.790   3.048
92759SOL    HW280117   4.983  11.871   3.138
92760SOL     OW80118   4.110   9.829  10.452
92760SOL    HW180119   4.090   9.749  10.502
92760SOL    HW280120   4.171   9.800  10.384
92761SOL     OW80121   3.151  11.282  14.243
92761SOL    HW180122   3.060  11.299  14.217
92761SOL    HW280123   3.203  11.338  14.186
92762SOL     OW80124   0.340  10.989   6.993
92762SOL    HW180125   0.315  11.055   6.928
92762SOL    HW280126   0.399  11.036   7.052
92763SOL     OW80127   1.617   6.347  14.201
92763SOL    HW180128   1.637   6.434  14.165
92763SOL    HW280129   1.692   6.293  14.176
92764SOL     OW80130   7.762   1.831   2.202
92764SOL    HW180131   7.687   1.877   2.240
92764SOL    HW280132   7.733   1.739   2.196
92765SOL     OW80133   3.998   6.712   0.845
92765SOL    HW180134   4.031   6.802   0.854
92765SOL    HW280135   4.020   6.687   0.755
92766SOL     OW80136   9.607   1.688  11.231
92766SOL    HW180137   9.560   1.630  11.172
92766SOL    HW280138   9.676   1.726  11.178
92767SOL     OW80139  10.351   4.511   8.160
92767SOL    HW180140  10.420   4.479   8.102
92767SOL    HW280141  10.331   4.436   8.217
92768SOL     OW80142   2.281  13.858   3.250
92768SOL    HW180143   2.357  13.828   3.201
92768SOL    HW280144   2.209  13.805   3.217
92769SOL     OW80145   3.644   2.117   0.596
92769SOL    HW180146   3.695   2.197   0.600
92769SOL    HW280147   3.559   2.141   0.634
92770SOL     OW80148   8.857   8.026  14.791
92770SOL    HW180149   8.813   8.094  14.740
92770SOL    HW280150   8.789   7.960  14.806
92771SOL     OW80151   6.918   0.052   8.795
92771SOL    HW180152   6.936   0.111   8.721
92771SOL    HW280153   6.902  14.847   8.754
92772SOL     OW80154   7.807   0.486   0.636
92772SOL    HW180155   7.844   0.497   0.548
92772SOL    HW280156   7.872   0.525   0.694
92773SOL     OW80157   0.698   2.947  11.770
92773SOL    HW180158   0.628   2.967  11.832
92773SOL    HW280159   0.709   2.852  11.776
92774SOL     OW80160   7.727  11.860   3.796
92774SOL    HW180161   7.689  11.924   3.856
92774SOL    HW280162   7.775  11.912   3.732
92775SOL     OW80163   5.535   5.426   8.005
92775SOL    HW180164   5.499   5.371   8.076
92775SOL    HW280165   5.609   5.376   7.971
92776SOL     OW80166   9.407   2.211  11.464
92776SOL    HW180167   9.345   2.185  11.532
92776SOL    HW280168   9.490   2.221  11.509
92777SOL     OW80169   8.749   9.763  14.048
92777SOL    HW180170   8.792   9.779  13.964
92777SOL    HW280171   8.661   9.733  14.025
92778SOL     OW80172   3.227   4.808  13.770
92778SOL    HW180173   3.151   4.762  13.733
92778SOL    HW280174   3.191   4.870  13.832
92779SOL     OW80175  13.740   3.944  12.190
92779SOL    HW180176  13.719   3.852  12.170
92779SOL    HW280177  13.833   3.942  12.215
92780SOL     OW80178   8.932  11.301  14.578
92780SOL    HW180179   8.924  11.258  14.663
92780SOL    HW280180   8.960  11.391  14.600
92781SOL     OW80181   7.255   9.115   7.280
92781SOL    HW180182   7.288   9.174   7.212
92781SOL    HW280183   7.325   9.051   7.291
92782SOL     OW80184  10.814   2.543  13.248
92782SOL    HW180185  10.738   2.580  13.203
92782SOL    HW280186  10.874   2.518  13.178
92783SOL     OW80187   8.205   0.523  12.427
92783SOL    HW180188   8.172   0.601  12.382
92783SOL    HW280189   8.161   0.450  12.385
92784SOL     OW80190  10.794  10.076   2.966
92784SOL    HW180191  10.760  10.054   2.879
92784SOL    HW280192  10.716  10.096   3.018
92785SOL     OW80193   6.829   1.105   8.378
92785SOL    HW180194   6.774   1.178   8.405
92785SOL    HW280195   6.773   1.028   8.391
92786SOL     OW80196   9.416   3.905   2.670
92786SOL    HW180197   9.389   3.813   2.673
92786SOL    HW280198   9.501   3.906   2.714
92787SOL     OW80199  10.135   1.665   4.209
92787SOL    HW180200  10.155   1.593   4.269
92787SOL    HW280201  10.126   1.623   4.123
92788SOL     OW80202   4.935  11.090   3.424
92788SOL    HW180203   4.926  11.118   3.515
92788SOL    HW280204   4.863  11.028   3.411
92789SOL     OW80205   0.826   3.616   0.742
92789SOL    HW180206   0.849   3.524   0.756
92789SOL    HW280207   0.794   3.619   0.652
92790SOL     OW80208   1.599   1.950   3.066
92790SOL    HW180209   1.505   1.969   3.070
92790SOL    HW280210   1.641   2.034   3.081
92791SOL     OW80211  13.539  14.236  13.812
92791SOL    HW180212  13.506  14.303  13.752
92791SOL    HW280213  13.491  14.252  13.894
92792SOL     OW80214  14.866   8.553   3.216
92792SOL    HW180215   0.012   8.569   3.125
92792SOL    HW280216   0.055   8.495   3.251
92793SOL     OW80217  11.148   7.944   4.964
92793SOL    HW180218  11.090   7.878   5.002
92793SOL    HW280219  11.184   7.992   5.039
92794SOL     OW80220   6.104   9.250   7.829
92794SOL    HW180221   6.099   9.160   7.861
92794SOL    HW280222   6.020   9.289   7.856
92795SOL     OW80223   9.545   6.542   2.230
92795SOL    HW180224   9.557   6.538   2.325
92795SOL    HW280225   9.614   6.487   2.194
92796SOL     OW80226   3.451   5.886   6.602
92796SOL    HW180227   3.390   5.832   6.552
92796SOL    HW280228   3.500   5.935   6.536
92797SOL     OW80229  10.587   2.265  13.449
92797SOL    HW180230  10.558   2.191  13.503
92797SOL    HW280231  10.553   2.246  13.361
92798SOL     OW80232  13.208   1.516   6.287
92798SOL    HW180233  13.204   1.422   6.267
92798SOL    HW280234  13.122   1.549   6.261
92799SOL     OW80235   2.564  11.320   8.403
92799SOL    HW180236   2.507  11.388   8.367
92799SOL    HW280237   2.509  11.243   8.408
92800SOL     OW80238   0.236   3.178   1.004
92800SOL    HW180239   0.313   3.229   1.028
92800SOL    HW280240   0.228   3.112   1.074
92801SOL     OW80241  13.711  13.531  11.873
92801SOL    HW180242  13.685  13.622  11.859
92801SOL    HW280243  13.785  13.536  11.933
92802SOL     OW80244  11.218  11.285   8.295
92802SOL    HW180245  11.166  11.351   8.341
92802SOL    HW280246  11.251  11.228   8.364
92803SOL     OW80247   0.830   2.555  10.682
92803SOL    HW180248   0.880   2.503  10.619
92803SOL    HW280249   0.759   2.593  10.631
92804SOL     OW80250  12.419  11.242   0.187
92804SOL    HW180251  12.338  11.280   0.153
92804SOL    HW280252  12.410  11.148   0.172
92805SOL     OW80253  12.447   5.385  11.121
92805SOL    HW180254  12.368   5.421  11.162
92805SOL    HW280255  12.472   5.312  11.178
92806SOL     OW80256   5.250  11.508   8.467
92806SOL    HW180257   5.273  11.417   8.488
92806SOL    HW280258   5.176  11.501   8.407
92807SOL     OW80259  11.236   3.197   6.775
92807SOL    HW180260  11.273   3.245   6.849
92807SOL    HW280261  11.142   3.215   6.779
92808SOL     OW80262   5.356   3.176   5.357
92808SOL    HW180263   5.350   3.185   5.452
92808SOL    HW280264   5.431   3.231   5.333
92809SOL     OW80265   2.074   9.466  10.693
92809SOL    HW180266   2.076   9.453  10.787
92809SOL    HW280267   2.055   9.379  10.657
92810SOL     OW80268  14.209   6.717  12.668
92810SOL    HW180269  14.156   6.698  12.591
92810SOL    HW280270  14.280   6.653  12.664
92811SOL     OW80271   7.804   8.901   2.800
92811SOL    HW180272   7.759   8.817   2.816
92811SOL    HW280273   7.889   8.890   2.842
92812SOL     OW80274   9.063  11.338   0.886
92812SOL    HW180275   9.102  11.256   0.855
92812SOL    HW280276   8.996  11.310   0.948
92813SOL     OW80277   9.120   4.987  14.670
92813SOL    HW180278   9.156   5.035  14.745
92813SOL    HW280279   9.048   5.042  14.639
92814SOL     OW80280  10.857   8.766   0.704
92814SOL    HW180281  10.797   8.697   0.734
92814SOL    HW280282  10.850   8.764   0.609
92815SOL     OW80283   7.551   9.617   9.883
92815SOL    HW180284   7.520   9.527   9.875
92815SOL    HW280285   7.574   9.626   9.976
92816SOL     OW80286   4.978   2.001  11.830
92816SOL    HW180287   4.916   2.071  11.809
92816SOL    HW280288   4.938   1.954  11.903
92817SOL     OW80289  12.317   9.796  13.388
92817SOL    HW180290  12.329   9.756  13.302
92817SOL    HW280291  12.296   9.888  13.369
92818SOL     OW80292   4.664  13.664   9.996
92818SOL    HW180293   4.742  13.610  10.007
92818SOL    HW280294   4.600  13.606   9.955
92819SOL     OW80295   9.896  13.067   6.513
92819SOL    HW180296   9.842  12.999   6.474
92819SOL    HW280297   9.862  13.077   6.602
92820SOL     OW80298   9.379  13.975   3.984
92820SOL    HW180299   9.358  13.981   3.891
92820SOL    HW280300   9.417  13.888   3.996
92821SOL     OW80301  13.591   2.256   0.574
92821SOL    HW180302  13.570   2.278   0.484
92821SOL    HW280303  13.651   2.325   0.603
92822SOL     OW80304  14.721   7.017   6.825
92822SOL    HW180305  14.744   7.087   6.763
92822SOL    HW280306  14.638   7.045   6.863
92823SOL     OW80307  11.372   2.803   4.161
92823SOL    HW180308  11.292   2.827   4.114
92823SOL    HW280309  11.372   2.860   4.238
92824SOL     OW80310  10.774   2.269   0.634
92824SOL    HW180311  10.747   2.222   0.713
92824SOL    HW280312  10.700   2.327   0.615
92825SOL     OW80313   9.051   7.427  11.639
92825SOL    HW180314   8.998   7.501  11.610
92825SOL    HW280315   9.003   7.349  11.609
92826SOL     OW80316   6.807   4.832   0.015
92826SOL    HW180317   6.863   4.888  14.840
92826SOL    HW280318   6.865   4.800   0.084
92827SOL     OW80319  10.728  11.474   8.908
92827SOL    HW180320  10.802  11.531   8.886
92827SOL    HW280321  10.651  11.531   8.900
92828SOL     OW80322   2.180   5.608   6.520
92828SOL    HW180323   2.150   5.619   6.429
92828SOL    HW280324   2.100   5.590   6.569
92829SOL     OW80325   6.708  11.953  14.750
92829SOL    HW180326   6.739  11.995  14.830
92829SOL    HW280327   6.632  11.901  14.778
92830SOL     OW80328   8.087  13.964   6.860
92830SOL    HW180329   8.150  13.937   6.793
92830SOL    HW280330   8.054  13.882   6.896
92831SOL     OW80331  13.431   8.990   5.358
92831SOL    HW180332  13.496   8.929   5.322
92831SOL    HW280333  13.375   8.935   5.413
92832SOL     OW80334  14.308   0.117   5.769
92832SOL    HW180335  14.305   0.024   5.788
92832SOL    HW280336  14.352   0.124   5.685
92833SOL     OW80337   4.436   8.164   2.384
92833SOL    HW180338   4.373   8.189   2.315
92833SOL    HW280339   4.451   8.071   2.369
92834SOL     OW80340   5.815   9.718   2.690
92834SOL    HW180341   5.738   9.768   2.718
92834SOL    HW280342   5.885   9.745   2.749
92835SOL     OW80343  14.635  12.386   6.142
92835SOL    HW180344  14.694  12.325   6.098
92835SOL    HW280345  14.568  12.406   6.077
92836SOL     OW80346   9.060   2.886   6.209
92836SOL    HW180347   8.973   2.916   6.183
92836SOL    HW280348   9.081   2.816   6.146
92837SOL     OW80349   2.827   6.849  14.074
92837SOL    HW180350   2.774   6.795  14.015
92837SOL    HW280351   2.860   6.919  14.019
92838SOL     OW80352  14.214   1.052  11.421
92838SOL    HW180353  14.146   1.099  11.372
92838SOL    HW280354  14.193   0.960  11.408
92839SOL     OW80355   2.464  10.326   1.458
92839SOL    HW180356   2.516  10.246   1.460
92839SOL    HW280357   2.381  10.299   1.418
92840SOL     OW80358  12.246   2.616  12.117
92840SOL    HW180359  12.226   2.673  12.042
92840SOL    HW280360  12.201   2.656  12.191
92841SOL     OW80361   5.854   8.290   3.031
92841SOL    HW180362   5.869   8.382   3.051
92841SOL    HW280363   5.775   8.267   3.080
92842SOL     OW80364  13.145  10.704   0.851
92842SOL    HW180365  13.108  10.624   0.889
92842SOL    HW280366  13.069  10.749   0.812
92843SOL     OW80367  11.606  12.568   7.515
92843SOL    HW180368  11.582  12.657   7.538
92843SOL    HW280369  11.691  12.576   7.471
92844SOL     OW80370   2.806   8.309   2.982
92844SOL    HW180371   2.786   8.267   3.066
92844SOL    HW280372   2.827   8.236   2.923
92845SOL     OW80373  10.552   8.619  11.025
92845SOL    HW180374  10.539   8.708  11.059
92845SOL    HW280375  10.602   8.632  10.944
92846SOL     OW80376   7.177   9.833   9.959
92846SOL    HW180377   7.225   9.753   9.978
92846SOL    HW280378   7.111   9.840  10.028
92847SOL     OW80379   0.084   1.048  13.552
92847SOL    HW180380   0.148   1.100  13.503
92847SOL    HW280381   0.011   1.036  13.491
92848SOL     OW80382  12.752  13.128   8.324
92848SOL    HW180383  12.707  13.198   8.372
92848SOL    HW280384  12.793  13.173   8.250
92849SOL     OW80385   6.752   9.479   3.757
92849SOL    HW180386   6.830   9.500   3.705
92849SOL    HW280387   6.713   9.563   3.778
92850SOL     OW80388  10.792   0.187   3.278
92850SOL    HW180389  10.748   0.184   3.363
92850SOL    HW280390  10.885   0.196   3.299
92851SOL     OW80391   4.932   5.411  12.698
92851SOL    HW180392   5.022   5.405  12.731
92851SOL    HW280393   4.907   5.321  12.679
92852SOL     OW80394  14.856  12.885   3.806
92852SOL    HW180395  14.820  12.875   3.894
92852SOL    HW280396  14.794  12.943   3.761
92853SOL     OW80397   9.285  14.101   8.651
92853SOL    HW180398   9.319  14.012   8.655
92853SOL    HW280399   9.218  14.105   8.719
92854SOL     OW80400  14.042  10.560   6.973
92854SOL    HW180401  14.014  10.603   7.053
92854SOL    HW280402  13.965  10.560   6.917
92855SOL     OW80403   7.994  14.722   7.003
92855SOL    HW180404   8.039  14.754   7.081
92855SOL    HW280405   8.062  14.719   6.935
92856SOL     OW80406   7.280   1.802   3.492
92856SOL    HW180407   7.262   1.767   3.580
92856SOL    HW280408   7.201   1.850   3.469
92857SOL     OW80409   3.125   4.862   9.503
92857SOL    HW180410   3.039   4.902   9.488
92857SOL    HW280411   3.171   4.925   9.558
92858SOL     OW80412  10.809   6.522   8.292
92858SOL    HW180413  10.877   6.471   8.335
92858SOL    HW280414  10.768   6.571   8.363
92859SOL     OW80415   7.255  13.675   3.587
92859SOL    HW180416   7.266  13.642   3.498
92859SOL    HW280417   7.268  13.598   3.643
92860SOL     OW80418   3.121   4.156   3.995
92860SOL    HW180419   3.181   4.229   3.977
92860SOL    HW280420   3.034   4.192   3.976
92861SOL     OW80421   5.426   3.890   5.647
92861SOL    HW180422   5.482   3.834   5.594
92861SOL    HW280423   5.349   3.906   5.592
92862SOL     OW80424   5.193   4.019   6.645
92862SOL    HW180425   5.203   3.939   6.594
92862SOL    HW280426   5.212   4.090   6.584
92863SOL     OW80427   8.447   4.107   7.401
92863SOL    HW180428   8.457   4.016   7.373
92863SOL    HW280429   8.534   4.145   7.392
92864SOL     OW80430   0.555   0.514   3.278
92864SOL    HW180431   0.478   0.543   3.327
92864SOL    HW280432   0.536   0.423   3.256
92865SOL     OW80433   8.265   5.366  13.047
92865SOL    HW180434   8.312   5.302  13.098
92865SOL    HW280435   8.173   5.341  13.056
92866SOL     OW80436  14.377  10.665  12.278
92866SOL    HW180437  14.396  10.757  12.297
92866SOL    HW280438  14.291  10.667  12.236
92867SOL     OW80439   9.630   7.260   2.384
92867SOL    HW180440   9.656   7.350   2.365
92867SOL    HW280441   9.612   7.221   2.299
92868SOL     OW80442  14.690   4.764   6.414
92868SOL    HW180443  14.727   4.801   6.334
92868SOL    HW280444  14.738   4.682   6.428
92869SOL     OW80445   8.509   9.313   8.390
92869SOL    HW180446   8.474   9.224   8.398
92869SOL    HW280447   8.454   9.366   8.448
92870SOL     OW80448  11.809   2.693  12.125
92870SOL    HW180449  11.856   2.751  12.065
92870SOL    HW280450  11.764   2.631  12.067
92871SOL     OW80451   8.462  11.549   4.960
92871SOL    HW180452   8.372  11.545   4.928
92871SOL    HW280453   8.472  11.470   5.012
92872SOL     OW80454   2.637   3.036   4.001
92872SOL    HW180455   2.545   3.060   4.006
92872SOL    HW280456   2.683   3.118   4.019
92873SOL     OW80457   2.085   4.384  10.159
92873SOL    HW180458   2.099   4.462  10.105
92873SOL    HW280459   2.019   4.411  10.223
92874SOL     OW80460   0.361  10.912   4.246
92874SOL    HW180461   0.421  10.975   4.206
92874SOL    HW280462   0.398  10.827   4.224
92875SOL     OW80463   7.199  10.800  11.486
92875SOL    HW180464   7.163  10.789  11.398
92875SOL    HW280465   7.122  10.808  11.542
92876SOL     OW80466  11.408  11.756   2.688
92876SOL    HW180467  11.434  11.752   2.596
92876SOL    HW280468  11.451  11.681   2.729
92877SOL     OW80469   4.841   0.289   0.725
92877SOL    HW180470   4.907   0.277   0.794
92877SOL    HW280471   4.797   0.204   0.720
92878SOL     OW80472   1.428   1.313   7.868
92878SOL    HW180473   1.457   1.224   7.848
92878SOL    HW280474   1.408   1.311   7.961
92879SOL     OW80475   1.903   1.082   4.882
92879SOL    HW180476   1.978   1.093   4.941
92879SOL    HW280477   1.861   1.001   4.913
92880SOL     OW80478  13.538  12.446  11.714
92880SOL    HW180479  13.620  12.398  11.721
92880SOL    HW280480  13.548  12.520  11.773
92881SOL     OW80481   2.557   1.921  12.799
92881SOL    HW180482   2.490   1.967  12.849
92881SOL    HW280483   2.520   1.911  12.711
92882SOL     OW80484  12.945   7.921   7.138
92882SOL    HW180485  12.896   7.924   7.056
92882SOL    HW280486  12.901   7.984   7.195
92883SOL     OW80487   5.792   0.461  13.638
92883SOL    HW180488   5.862   0.496  13.583
92883SOL    HW280489   5.821   0.479  13.727
92884SOL     OW80490  11.110   8.883   1.677
92884SOL    HW180491  11.075   8.851   1.760
92884SOL    HW280492  11.199   8.910   1.698
92885SOL     OW80493   0.554  13.214   4.135
92885SOL    HW180494   0.523  13.262   4.058
92885SOL    HW280495   0.476  13.206   4.191
92886SOL     OW80496   0.005   7.049   7.584
92886SOL    HW180497   0.022   7.051   7.490
92886SOL    HW280498  14.856   7.138   7.605
92887SOL     OW80499   3.290  14.485   3.997
92887SOL    HW180500   3.254  14.559   4.046
92887SOL    HW280501   3.375  14.468   4.038
92888SOL     OW80502   6.386   2.461   1.342
92888SOL    HW180503   6.452   2.520   1.378
92888SOL    HW280504   6.357   2.503   1.261
92889SOL     OW80505   2.440   4.872   7.444
92889SOL    HW180506   2.422   4.781   7.421
92889SOL    HW280507   2.376   4.922   7.393
92890SOL     OW80508   0.052   9.362   6.344
92890SOL    HW180509   0.012   9.415   6.413
92890SOL    HW280510   0.118   9.310   6.390
92891SOL     OW80511  12.152   3.274   6.474
92891SOL    HW180512  12.061   3.245   6.483
92891SOL    HW280513  12.162   3.342   6.540
92892SOL     OW80514   7.796   6.262   6.219
92892SOL    HW180515   7.724   6.241   6.159
92892SOL    HW280516   7.763   6.334   6.271
92893SOL     OW80517   9.539   9.032   5.871
92893SOL    HW180518   9.500   9.083   5.800
92893SOL    HW280519   9.616   8.992   5.832
92894SOL     OW80520   4.781  12.118   9.518
92894SOL    HW180521   4.730  12.119   9.598
92894SOL    HW280522   4.750  12.040   9.471
92895SOL     OW80523   3.767   0.920  11.677
92895SOL    HW180524   3.834   0.987  11.679
92895SOL    HW280525   3.789   0.860  11.748
92896SOL     OW80526   3.095   6.080   4.652
92896SOL    HW180527   3.134   6.029   4.723
92896SOL    HW280528   3.140   6.165   4.655
92897SOL     OW80529   3.958  11.209   1.334
92897SOL    HW180530   4.006  11.201   1.417
92897SOL    HW280531   4.025  11.196   1.267
92898SOL     OW80532  10.674  14.625   6.400
92898SOL    HW180533  10.602  14.673   6.441
92898SOL    HW280534  10.752  14.680   6.416
92899SOL     OW80535  14.846  11.239   1.268
92899SOL    HW180536   0.006  11.153   1.252
92899SOL    HW280537  14.834  11.276   1.181
92900SOL     OW80538  14.875   3.521   1.446
92900SOL    HW180539   0.047   3.458   1.396
92900SOL    HW280540  14.800   3.470   1.478
92901SOL     OW80541  12.144   4.436  11.128
92901SOL    HW180542  12.077   4.389  11.177
92901SOL    HW280543  12.153   4.386  11.047
92902SOL     OW80544   7.669   1.551   5.210
92902SOL    HW180545   7.639   1.526   5.122
92902SOL    HW280546   7.763   1.533   5.208
92903SOL     OW80547   9.088   6.997   4.863
92903SOL    HW180548   9.120   7.086   4.846
92903SOL    HW280549   9.146   6.963   4.930
92904SOL     OW80550  13.514  11.312   2.616
92904SOL    HW180551  13.459  11.268   2.552
92904SOL    HW280552  13.503  11.405   2.597
92905SOL     OW80553   5.460   1.862   5.094
92905SOL    HW180554   5.426   1.845   5.182
92905SOL    HW280555   5.395   1.825   5.035
92906SOL     OW80556   6.904   4.501  12.683
92906SOL    HW180557   6.922   4.540  12.769
92906SOL    HW280558   6.982   4.521  12.631
92907SOL     OW80559   5.646  11.440   0.658
92907SOL    HW180560   5.645  11.363   0.715
92907SOL    HW280561   5.661  11.405   0.570
92908SOL     OW80562  10.553   9.942   0.556
92908SOL    HW180563  10.544  10.033   0.528
92908SOL    HW280564  10.523   9.941   0.646
92909SOL     OW80565   4.032   3.411   3.473
92909SOL    HW180566   4.079   3.424   3.391
92909SOL    HW280567   3.940   3.430   3.452
92910SOL     OW80568  12.306   6.140   5.650
92910SOL    HW180569  12.299   6.208   5.718
92910SOL    HW280570  12.225   6.089   5.659
92911SOL     OW80571   6.057   1.533   3.917
92911SOL    HW180572   6.150   1.555   3.909
92911SOL    HW280573   6.016   1.613   3.950
92912SOL     OW80574   7.126   1.051   9.351
92912SOL    HW180575   7.083   1.112   9.411
92912SOL    HW280576   7.072   1.054   9.272
92913SOL     OW80577  10.563  10.864   8.963
92913SOL    HW180578  10.513  10.818   8.895
92913SOL    HW280579  10.561  10.806   9.038
92914SOL     OW80580  13.074   5.212   5.337
92914SOL    HW180581  13.032   5.229   5.421
92914SOL    HW280582  13.019   5.259   5.273
92915SOL     OW80583   0.065   0.351  12.873
92915SOL    HW180584  14.868   0.408  12.868
92915SOL    HW280585   0.126   0.398  12.930
92916SOL     OW80586   4.052   6.214   6.660
92916SOL    HW180587   4.144   6.188   6.658
92916SOL    HW280588   4.054   6.307   6.683
92917SOL     OW80589  10.833   3.671   1.269
92917SOL    HW180590  10.867   3.760   1.281
92917SOL    HW280591  10.903   3.614   1.300
92918SOL     OW80592   3.476  14.670   8.861
92918SOL    HW180593   3.502  14.607   8.928
92918SOL    HW280594   3.456  14.617   8.785
92919SOL     OW80595   2.179   6.408  11.250
92919SOL    HW180596   2.262   6.425  11.296
92919SOL    HW280597   2.189   6.453  11.166
92920SOL     OW80598  12.346   8.213  12.859
92920SOL    HW180599  12.439   8.213  12.837
92920SOL    HW280600  12.337   8.281  12.926
92921SOL     OW80601   0.256   9.907   1.959
92921SOL    HW180602   0.221   9.943   2.040
92921SOL    HW280603   0.184   9.914   1.896
92922SOL     OW80604  13.299   2.967   1.833
92922SOL    HW180605  13.340   2.910   1.897
92922SOL    HW280606  13.325   2.931   1.748
92923SOL     OW80607   1.415   7.143   2.277
92923SOL    HW180608   1.432   7.075   2.341
92923SOL    HW280609   1.408   7.097   2.193
92924SOL     OW80610   8.665   4.935   6.621
92924SOL    HW180611   8.754   4.900   6.619
92924SOL    HW280612   8.677   5.029   6.637
92925SOL     OW80613   3.981   1.255   6.324
92925SOL    HW180614   4.065   1.268   6.281
92925SOL    HW280615   3.972   1.160   6.331
92926SOL     OW80616   8.873   7.318  14.872
92926SOL    HW180617   8.861   7.273  14.788
92926SOL    HW280618   8.845   7.255   0.058
92927SOL     OW80619   6.169  14.336   8.464
92927SOL    HW180620   6.125  14.274   8.523
92927SOL    HW280621   6.254  14.295   8.445
92928SOL     OW80622   9.885  11.765  13.908
92928SOL    HW180623   9.952  11.827  13.880
92928SOL    HW280624   9.845  11.806  13.985
92929SOL     OW80625  11.920   9.822  12.398
92929SOL    HW180626  11.957   9.800  12.484
92929SOL    HW280627  11.963   9.903  12.374
92930SOL     OW80628   8.815  13.052  11.412
92930SOL    HW180629   8.880  12.984  11.425
92930SOL    HW280630   8.786  13.075  11.500
92931SOL     OW80631   2.838   9.815   0.430
92931SOL    HW180632   2.778   9.874   0.476
92931SOL    HW280633   2.810   9.820   0.338
92932SOL     OW80634   8.458  10.361   7.227
92932SOL    HW180635   8.493  10.422   7.162
92932SOL    HW280636   8.439  10.414   7.304
92933SOL     OW80637   9.391   5.872   5.066
92933SOL    HW180638   9.339   5.815   5.010
92933SOL    HW280639   9.339   5.881   5.146
92934SOL     OW80640  13.274   2.530   6.655
92934SOL    HW180641  13.220   2.483   6.719
92934SOL    HW280642  13.272   2.621   6.684
92935SOL     OW80643   7.559  14.133   8.731
92935SOL    HW180644   7.489  14.100   8.788
92935SOL    HW280645   7.547  14.086   8.649
92936SOL     OW80646   3.454   6.964   7.449
92936SOL    HW180647   3.490   7.034   7.503
92936SOL    HW280648   3.428   7.008   7.368
92937SOL     OW80649   7.738   6.720  10.096
92937SOL    HW180650   7.651   6.734  10.132
92937SOL    HW280651   7.795   6.713  10.172
92938SOL     OW80652   8.223   2.312   1.389
92938SOL    HW180653   8.156   2.276   1.447
92938SOL    HW280654   8.271   2.374   1.443
92939SOL     OW80655   7.853   3.538   1.154
92939SOL    HW180656   7.819   3.521   1.067
92939SOL    HW280657   7.851   3.633   1.164
92940SOL     OW80658  12.958   4.951   6.133
92940SOL    HW180659  12.961   4.882   6.200
92940SOL    HW280660  12.874   4.995   6.147
92941SOL     OW80661  14.623   5.890  10.865
92941SOL    HW180662  14.536   5.907  10.900
92941SOL    HW280663  14.655   5.815  10.914
92942SOL     OW80664   3.784   4.035  14.812
92942SOL    HW180665   3.802   4.126  14.836
92942SOL    HW280666   3.703   4.039  14.761
92943SOL     OW80667  13.181   0.394   6.117
92943SOL    HW180668  13.158   0.462   6.180
92943SOL    HW280669  13.237   0.439   6.054
92944SOL     OW80670   3.894  10.516  13.648
92944SOL    HW180671   3.827  10.465  13.601
92944SOL    HW280672   3.977  10.480  13.617
92945SOL     OW80673  12.111  13.528   4.634
92945SOL    HW180674  12.057  13.562   4.705
92945SOL    HW280675  12.156  13.605   4.600
92946SOL     OW80676   5.137  11.088   3.260
92946SOL    HW180677   5.211  11.134   3.299
92946SOL    HW280678   5.063  11.108   3.317
92947SOL     OW80679   7.869   5.074  14.721
92947SOL    HW180680   7.918   5.051  14.800
92947SOL    HW280681   7.899   5.162  14.699
92948SOL     OW80682  10.310   6.114   2.209
92948SOL    HW180683  10.346   6.096   2.296
92948SOL    HW280684  10.217   6.093   2.217
92949SOL     OW80685   0.286   0.705   9.923
92949SOL    HW180686   0.377   0.734   9.912
92949SOL    HW280687   0.276   0.690  10.017
92950SOL     OW80688   5.843   8.590   9.142
92950SOL    HW180689   5.859   8.675   9.184
92950SOL    HW280690   5.850   8.527   9.213
92951SOL     OW80691  12.084   4.041  12.078
92951SOL    HW180692  12.093   4.136  12.080
92951SOL    HW280693  12.150   4.012  12.015
92952SOL     OW80694   4.524   9.789   4.113
92952SOL    HW180695   4.566   9.844   4.180
92952SOL    HW280696   4.581   9.797   4.037
92953SOL     OW80697  10.301   4.676   4.192
92953SOL    HW180698  10.284   4.730   4.114
92953SOL    HW280699  10.227   4.616   4.197
92954SOL     OW80700  11.582  10.095   6.255
92954SOL    HW180701  11.617  10.099   6.344
92954SOL    HW280702  11.515  10.027   6.258
92955SOL     OW80703  12.925   5.515  12.605
92955SOL    HW180704  12.972   5.477  12.531
92955SOL    HW280705  12.990   5.522  12.675
92956SOL     OW80706  10.842  11.224  12.851
92956SOL    HW180707  10.764  11.267  12.885
92956SOL    HW280708  10.910  11.291  12.857
92957SOL     OW80709  13.518   8.556  10.160
92957SOL    HW180710  13.542   8.617  10.091
92957SOL    HW280711  13.599   8.512  10.183
92958SOL     OW80712   2.110   0.532   1.523
92958SOL    HW180713   2.070   0.447   1.544
92958SOL    HW280714   2.108   0.536   1.428
92959SOL     OW80715   0.607   1.107   4.310
92959SOL    HW180716   0.611   1.199   4.283
92959SOL    HW280717   0.532   1.071   4.262
92960SOL     OW80718   0.288   0.216   6.111
92960SOL    HW180719   0.311   0.286   6.050
92960SOL    HW280720   0.220   0.255   6.167
92961SOL     OW80721   4.944   8.773   8.261
92961SOL    HW180722   5.034   8.755   8.289
92961SOL    HW280723   4.892   8.758   8.340
92962SOL     OW80724   4.184   5.629  10.387
92962SOL    HW180725   4.119   5.565  10.414
92962SOL    HW280726   4.254   5.622  10.452
92963SOL     OW80727   8.816  11.516   9.124
92963SOL    HW180728   8.826  11.574   9.199
92963SOL    HW280729   8.861  11.435   9.148
92964SOL     OW80730  10.975   2.398   0.817
92964SOL    HW180731  10.929   2.354   0.746
92964SOL    HW280732  11.003   2.481   0.779
92965SOL     OW80733   1.622   4.325   6.667
92965SOL    HW180734   1.604   4.306   6.759
92965SOL    HW280735   1.576   4.407   6.651
92966SOL     OW80736  11.731   7.275   4.788
92966SOL    HW180737  11.796   7.340   4.814
92966SOL    HW280738  11.705   7.300   4.699
92967SOL     OW80739  12.534   2.233   0.401
92967SOL    HW180740  12.456   2.236   0.345
92967SOL    HW280741  12.600   2.190   0.348
92968SOL     OW80742  11.498   9.184   4.059
92968SOL    HW180743  11.441   9.197   4.135
92968SOL    HW280744  11.469   9.100   4.022
92969SOL     OW80745   0.259   4.856  10.171
92969SOL    HW180746   0.337   4.799  10.165
92969SOL    HW280747   0.191   4.799  10.208
92970SOL     OW80748  12.452   5.861  14.506
92970SOL    HW180749  12.367   5.827  14.533
92970SOL    HW280750  12.435   5.952  14.482
92971SOL     OW80751  12.229   1.146   4.837
92971SOL    HW180752  12.167   1.108   4.774
92971SOL    HW280753  12.253   1.073   4.894
92972SOL     OW80754   4.022  10.054  10.537
92972SOL    HW180755   4.048   9.978  10.485
92972SOL    HW280756   4.093  10.117  10.524
92973SOL     OW80757   2.340   9.681   5.924
92973SOL    HW180758   2.419   9.694   5.871
92973SOL    HW280759   2.366   9.708   6.012
92974SOL     OW80760   1.924  10.088   2.998
92974SOL    HW180761   2.013  10.091   3.034
92974SOL    HW280762   1.873  10.041   3.063
92975SOL     OW80763   1.294  12.392   4.839
92975SOL    HW180764   1.278  12.482   4.810
92975SOL    HW280765   1.367  12.362   4.785
92976SOL     OW80766   4.303  13.077   6.348
92976SOL    HW180767   4.275  13.020   6.419
92976SOL    HW280768   4.247  13.155   6.355
92977SOL     OW80769   4.511   5.766   1.253
92977SOL    HW180770   4.449   5.838   1.266
92977SOL    HW280771   4.530   5.767   1.159
92978SOL     OW80772  13.416   8.748  12.779
92978SOL    HW180773  13.444   8.663  12.814
92978SOL    HW280774  13.400   8.802  12.856
92979SOL     OW80775   7.176  11.222   7.337
92979SOL    HW180776   7.176  11.292   7.272
92979SOL    HW280777   7.145  11.145   7.289
92980SOL     OW80778   9.643  14.878   5.601
92980SOL    HW180779   9.672  14.805   5.655
92980SOL    HW280780   9.547  14.879   5.611
92981SOL     OW80781   2.782   9.584   3.992
92981SOL    HW180782   2.845   9.562   3.922
92981SOL    HW280783   2.812   9.534   4.068
92982SOL     OW80784   6.047   4.769  12.664
92982SOL    HW180785   5.994   4.843  12.636
92982SOL    HW280786   6.099   4.804  12.737
92983SOL     OW80787   1.150   7.800   7.729
92983SOL    HW180788   1.222   7.761   7.778
92983SOL    HW280789   1.117   7.870   7.785
92984SOL     OW80790   6.201   8.451  12.504
92984SOL    HW180791   6.202   8.528  12.562
92984SOL    HW280792   6.161   8.484  12.423
92985SOL     OW80793   5.955   2.736   1.199
92985SOL    HW180794   5.943   2.665   1.136
92985SOL    HW280795   5.889   2.719   1.267
92986SOL     OW80796  14.315   2.126  12.744
92986SOL    HW180797  14.347   2.125  12.834
92986SOL    HW280798  14.241   2.186  12.744
92987SOL     OW80799  12.343   6.462   9.920
92987SOL    HW180800  12.273   6.498   9.865
92987SOL    HW280801  12.296   6.413   9.988
92988SOL     OW80802   8.361   5.021   5.516
92988SOL    HW180803   8.412   5.048   5.592
92988SOL    HW280804   8.288   5.083   5.512
92989SOL     OW80805  11.596  14.059   3.441
92989SOL    HW180806  11.620  14.002   3.367
92989SOL    HW280807  11.563  13.998   3.507
92990SOL     OW80808   0.304   8.836   5.230
92990SOL    HW180809   0.213   8.852   5.206
92990SOL    HW280810   0.341   8.922   5.248
92991SOL     OW80811  13.669   8.469   6.177
92991SOL    HW180812  13.659   8.520   6.258
92991SOL    HW280813  13.628   8.385   6.197
92992SOL     OW80814  11.982   3.196   8.504
92992SOL    HW180815  12.005   3.163   8.591
92992SOL    HW280816  11.892   3.228   8.514
92993SOL     OW80817   5.146   6.286   7.055
92993SOL    HW180818   5.166   6.251   7.142
92993SOL    HW280819   5.090   6.219   7.015
92994SOL     OW80820  12.145   5.583   6.267
92994SOL    HW180821  12.236   5.588   6.238
92994SOL    HW280822  12.146   5.522   6.341
92995SOL     OW80823   2.172   7.182   3.801
92995SOL    HW180824   2.083   7.212   3.823
92995SOL    HW280825   2.159   7.096   3.762
92996SOL     OW80826   9.761  14.391   4.128
92996SOL    HW180827   9.698  14.342   4.077
92996SOL    HW280828   9.847  14.356   4.102
92997SOL     OW80829  12.345  14.798   7.186
92997SOL    HW180830  12.417  14.776   7.245
92997SOL    HW280831  12.274  14.738   7.212
92998SOL     OW80832  14.652   0.168   7.741
92998SOL    HW180833  14.665   0.088   7.690
92998SOL    HW280834  14.665   0.141   7.832
92999SOL     OW80835   3.477   8.970   3.730
92999SOL    HW180836   3.488   8.881   3.696
92999SOL    HW280837   3.412   8.960   3.800
93000SOL     OW80838   7.630  12.942   8.742
93000SOL    HW180839   7.686  12.950   8.819
93000SOL    HW280840   7.666  12.867   8.694
93001SOL     OW80841   8.143   5.954   0.973
93001SOL    HW180842   8.061   5.915   0.942
93001SOL    HW280843   8.197   5.963   0.895
93002SOL     OW80844  12.477   9.085   7.311
93002SOL    HW180845  12.422   9.158   7.280
93002SOL    HW280846  12.550   9.128   7.356
93003SOL     OW80847   2.720   5.008  10.297
93003SOL    HW180848   2.699   5.101  10.300
93003SOL    HW280849   2.681   4.972  10.377
93004SOL     OW80850   8.135   2.266   6.364
93004SOL    HW180851   8.144   2.309   6.279
93004SOL    HW280852   8.095   2.182   6.345
93005SOL     OW80853   4.280   6.096   1.765
93005SOL    HW180854   4.207   6.036   1.780
93005SOL    HW280855   4.239   6.176   1.731
93006SOL     OW80856  11.869   9.475   0.592
93006SOL    HW180857  11.837   9.422   0.519
93006SOL    HW280858  11.854   9.565   0.564
93007SOL     OW80859   1.061  10.322  11.040
93007SOL    HW180860   1.143  10.293  10.999
93007SOL    HW280861   1.087  10.346  11.129
93008SOL     OW80862   5.776   9.343   2.042
93008SOL    HW180863   5.761   9.359   2.135
93008SOL    HW280864   5.807   9.253   2.037
93009SOL     OW80865   9.570  14.630  12.295
93009SOL    HW180866   9.518  14.578  12.357
93009SOL    HW280867   9.510  14.649  12.223
93010SOL     OW80868   1.469  10.771   3.634
93010SOL    HW180869   1.377  10.797   3.637
93010SOL    HW280870   1.476  10.718   3.555
93011SOL     OW80871   9.588   5.747   1.894
93011SOL    HW180872   9.562   5.673   1.840
93011SOL    HW280873   9.651   5.711   1.956
93012SOL     OW80874   9.895  12.014   8.978
93012SOL    HW180875   9.851  12.097   8.962
93012SOL    HW280876   9.828  11.947   8.966
93013SOL     OW80877   0.199   8.693   8.428
93013SOL    HW180878   0.171   8.727   8.513
93013SOL    HW280879   0.282   8.737   8.410
93014SOL     OW80880   9.898   6.796   0.773
93014SOL    HW180881   9.837   6.750   0.716
93014SOL    HW280882   9.846   6.864   0.814
93015SOL     OW80883   1.462  10.746   5.471
93015SOL    HW180884   1.426  10.715   5.387
93015SOL    HW280885   1.405  10.707   5.537
93016SOL     OW80886   3.021  11.857   6.545
93016SOL    HW180887   3.073  11.912   6.603
93016SOL    HW280888   2.936  11.901   6.539
93017SOL     OW80889   6.057  11.756   2.071
93017SOL    HW180890   5.989  11.824   2.068
93017SOL    HW280891   6.138  11.804   2.090
93018SOL     OW80892  10.641  13.372  11.717
93018SOL    HW180893  10.665  13.455  11.758
93018SOL    HW280894  10.714  13.313  11.737
93019SOL     OW80895  10.013   8.364   8.989
93019SOL    HW180896  10.090   8.370   8.932
93019SOL    HW280897  10.032   8.290   9.047
93020SOL     OW80898   5.148  14.243   7.420
93020SOL    HW180899   5.187  14.324   7.454
93020SOL    HW280900   5.220  14.179   7.422
93021SOL     OW80901  11.900   6.456   0.436
93021SOL    HW180902  11.928   6.378   0.389
93021SOL    HW280903  11.980   6.507   0.449
93022SOL     OW80904   5.654   5.103  10.139
93022SOL    HW180905   5.697   5.024  10.107
93022SOL    HW280906   5.726   5.162  10.160
93023SOL     OW80907   8.064   5.756  13.478
93023SOL    HW180908   8.018   5.832  13.443
93023SOL    HW280909   8.027   5.744  13.566
93024SOL     OW80910  12.492   8.452  14.875
93024SOL    HW180911  12.548   8.432   0.070
93024SOL    HW280912  12.504   8.378  14.816
93025SOL     OW80913   2.506  13.857   3.112
93025SOL    HW180914   2.578  13.862   3.049
93025SOL    HW280915   2.518  13.773   3.155
93026SOL     OW80916   2.657   4.300  12.299
93026SOL    HW180917   2.648   4.266  12.211
93026SOL    HW280918   2.704   4.232  12.347
93027SOL     OW80919   6.045   5.224   1.741
93027SOL    HW180920   5.992   5.226   1.820
93027SOL    HW280921   5.993   5.271   1.676
93028SOL     OW80922   7.117   6.362   1.647
93028SOL    HW180923   7.073   6.325   1.571
93028SOL    HW280924   7.190   6.303   1.664
93029SOL     OW80925   1.211  11.268  13.988
93029SOL    HW180926   1.231  11.175  13.974
93029SOL    HW280927   1.149  11.289  13.918
93030SOL     OW80928   4.287  11.908  11.226
93030SOL    HW180929   4.308  11.998  11.200
93030SOL    HW280930   4.245  11.870  11.148
93031SOL     OW80931   7.149  14.540   0.739
93031SOL    HW180932   7.130  14.610   0.677
93031SOL    HW280933   7.138  14.459   0.688
93032SOL     OW80934   8.967  10.374   8.518
93032SOL    HW180935   9.031  10.430   8.475
93032SOL    HW280936   9.015  10.335   8.591
93033SOL     OW80937  11.171   1.600   0.844
93033SOL    HW180938  11.197   1.508   0.848
93033SOL    HW280939  11.253   1.649   0.854
93034SOL     OW80940   8.655   2.515  12.231
93034SOL    HW180941   8.666   2.547  12.141
93034SOL    HW280942   8.710   2.573  12.284
93035SOL     OW80943   3.286  11.483   4.138
93035SOL    HW180944   3.202  11.528   4.128
93035SOL    HW280945   3.267  11.392   4.116
93036SOL     OW80946   9.573   4.449   3.768
93036SOL    HW180947   9.482   4.452   3.739
93036SOL    HW280948   9.588   4.536   3.805
93037SOL     OW80949   9.259   0.750   7.396
93037SOL    HW180950   9.296   0.838   7.403
93037SOL    HW280951   9.209   0.739   7.477
93038SOL     OW80952   5.160   4.374   7.028
93038SOL    HW180953   5.080   4.321   7.027
93038SOL    HW280954   5.150   4.434   6.955
93039SOL     OW80955   4.473   8.515   3.832
93039SOL    HW180956   4.533   8.589   3.835
93039SOL    HW280957   4.387   8.552   3.848
93040SOL     OW80958  10.213  11.220  10.515
93040SOL    HW180959  10.252  11.304  10.489
93040SOL    HW280960  10.288  11.163  10.531
93041SOL     OW80961  12.328  14.449   2.072
93041SOL    HW180962  12.411  14.454   2.120
93041SOL    HW280963  12.287  14.534   2.086
93042SOL     OW80964  10.127   0.939  10.090
93042SOL    HW180965  10.187   0.935  10.165
93042SOL    HW280966  10.051   0.887  10.118
93043SOL     OW80967  14.428   5.006  13.297
93043SOL    HW180968  14.467   5.055  13.369
93043SOL    HW280969  14.358   4.955  13.339
93044SOL     OW80970  10.683  13.547   0.420
93044SOL    HW180971  10.776  13.562   0.440
93044SOL    HW280972  10.654  13.486   0.488
93045SOL     OW80973  14.161   4.671   0.481
93045SOL    HW180974  14.073   4.694   0.450
93045SOL    HW280975  14.164   4.703   0.571
93046SOL     OW80976   1.491  12.172   5.293
93046SOL    HW180977   1.421  12.119   5.256
93046SOL    HW280978   1.511  12.131   5.377
93047SOL     OW80979   9.165   4.075  11.822
93047SOL    HW180980   9.216   4.155  11.832
93047SOL    HW280981   9.148   4.070  11.728
93048SOL     OW80982  10.742  10.413   7.227
93048SOL    HW180983  10.699  10.383   7.307
93048SOL    HW280984  10.830  10.376   7.231
93049SOL     OW80985  13.058   1.868   4.151
93049SOL    HW180986  13.105   1.842   4.072
93049SOL    HW280987  13.048   1.962   4.143
93050SOL     OW80988   4.766   4.338  13.890
93050SOL    HW180989   4.786   4.283  13.966
93050SOL    HW280990   4.704   4.403  13.924
93051SOL     OW80991  10.794   0.678   3.949
93051SOL    HW180992  10.736   0.741   3.906
93051SOL    HW280993  10.736   0.609   3.980
93052SOL     OW80994  12.906   4.541   9.644
93052SOL    HW180995  12.863   4.459   9.619
93052SOL    HW280996  12.924   4.531   9.737
93053SOL     OW80997   3.823   8.644   4.010
93053SOL    HW180998   3.788   8.644   3.921
93053SOL    HW280999   3.911   8.681   4.001
93054SOL     OW81000  13.658  10.051   8.510
93054SOL    HW181001  13.720  10.015   8.446
93054SOL    HW281002  13.651   9.983   8.578
93055SOL     OW81003  10.590   6.959   4.296
93055SOL    HW181004  10.612   6.868   4.274
93055SOL    HW281005  10.644   6.979   4.372
93056SOL     OW81006  10.517   1.496   4.197
93056SOL    HW181007  10.510   1.521   4.289
93056SOL    HW281008  10.533   1.402   4.199
93057SOL     OW81009  10.556  10.694  13.240
93057SOL    HW181010  10.505  10.634  13.295
93057SOL    HW281011  10.614  10.636  13.189
93058SOL     OW81012   9.702   2.087  10.526
93058SOL    HW181013   9.731   2.119  10.440
93058SOL    HW281014   9.607   2.099  10.525
93059SOL     OW81015   4.104  13.265  13.738
93059SOL    HW181016   4.060  13.276  13.653
93059SOL    HW281017   4.184  13.216  13.717
93060SOL     OW81018   4.935   3.751   3.565
93060SOL    HW181019   4.840   3.738   3.561
93060SOL    HW281020   4.966   3.730   3.477
93061SOL     OW81021   1.515   0.934   5.052
93061SOL    HW181022   1.549   1.023   5.052
93061SOL    HW281023   1.569   0.887   5.115
93062SOL     OW81024  14.379   2.170  13.752
93062SOL    HW181025  14.383   2.203  13.663
93062SOL    HW281026  14.288   2.141  13.764
93063SOL     OW81027   8.392  13.462   8.609
93063SOL    HW181028   8.450  13.536   8.596
93063SOL    HW281029   8.317  13.480   8.553
93064SOL     OW81030   9.580  12.546   0.163
93064SOL    HW181031   9.525  12.569   0.087
93064SOL    HW281032   9.645  12.616   0.168
93065SOL     OW81033   6.508   3.563   9.873
93065SOL    HW181034   6.564   3.499   9.830
93065SOL    HW281035   6.546   3.648   9.850
93066SOL     OW81036   0.650  14.207  12.553
93066SOL    HW181037   0.730  14.234  12.508
93066SOL    HW281038   0.656  14.249  12.639
93067SOL     OW81039   1.458   7.799   7.479
93067SOL    HW181040   1.465   7.727   7.416
93067SOL    HW281041   1.395   7.768   7.544
93068SOL     OW81042   0.129   1.537  10.087
93068SOL    HW181043   0.133   1.497  10.000
93068SOL    HW281044   0.051   1.501  10.127
93069SOL     OW81045  13.441   7.822  12.596
93069SOL    HW181046  13.466   7.737  12.631
93069SOL    HW281047  13.466   7.885  12.663
93070SOL     OW81048  10.306   8.836  10.234
93070SOL    HW181049  10.258   8.833  10.317
93070SOL    HW281050  10.365   8.760  10.239
93071SOL     OW81051   8.046  12.707  12.666
93071SOL    HW181052   8.023  12.768  12.736
93071SOL    HW281053   8.090  12.634  12.711
93072SOL     OW81054   0.893   1.006   7.369
93072SOL    HW181055   0.846   0.983   7.449
93072SOL    HW281056   0.980   1.033   7.399
93073SOL     OW81057  10.300   7.924   2.590
93073SOL    HW181058  10.278   7.890   2.676
93073SOL    HW281059  10.393   7.947   2.597
93074SOL     OW81060   5.414   3.983  10.561
93074SOL    HW181061   5.404   4.039  10.638
93074SOL    HW281062   5.405   3.894  10.595
93075SOL     OW81063  14.232  12.704   2.104
93075SOL    HW181064  14.210  12.622   2.060
93075SOL    HW281065  14.294  12.679   2.172
93076SOL     OW81066   0.883  14.696  12.825
93076SOL    HW181067   0.892  14.780  12.869
93076SOL    HW281068   0.813  14.710  12.761
93077SOL     OW81069   3.213  10.238   5.434
93077SOL    HW181070   3.271  10.193   5.373
93077SOL    HW281071   3.270  10.303   5.477
93078SOL     OW81072   5.657   9.280   3.035
93078SOL    HW181073   5.623   9.213   2.976
93078SOL    HW281074   5.695   9.230   3.107
93079SOL     OW81075  13.234  11.811  14.394
93079SOL    HW181076  13.244  11.904  14.414
93079SOL    HW281077  13.320  11.783  14.364
93080SOL     OW81078  10.796   3.641   8.207
93080SOL    HW181079  10.818   3.686   8.288
93080SOL    HW281080  10.763   3.710   8.149
93081SOL     OW81081   5.678   2.225  14.471
93081SOL    HW181082   5.706   2.283  14.400
93081SOL    HW281083   5.705   2.271  14.551
93082SOL     OW81084   1.500   3.692   5.896
93082SOL    HW181085   1.581   3.685   5.846
93082SOL    HW281086   1.513   3.767   5.954
93083SOL     OW81087   2.897  11.352   4.535
93083SOL    HW181088   2.958  11.405   4.483
93083SOL    HW281089   2.835  11.415   4.571
93084SOL     OW81090   3.903   0.245   4.318
93084SOL    HW181091   3.884   0.333   4.351
93084SOL    HW281092   3.942   0.260   4.232
93085SOL     OW81093   6.403  14.643  14.569
93085SOL    HW181094   6.443  14.657  14.483
93085SOL    HW281095   6.384  14.550  14.573
93086SOL     OW81096   4.608   0.523  12.224
93086SOL    HW181097   4.690   0.499  12.267
93086SOL    HW281098   4.590   0.451  12.163
93087SOL     OW81099   5.985   6.930   3.157
93087SOL    HW181100   6.022   6.977   3.083
93087SOL    HW281101   5.983   6.995   3.228
93088SOL     OW81102  11.644  14.513   1.151
93088SOL    HW181103  11.633  14.418   1.158
93088SOL    HW281104  11.737  14.527   1.168
93089SOL     OW81105  13.860  13.105   3.444
93089SOL    HW181106  13.847  13.165   3.517
93089SOL    HW281107  13.946  13.129   3.409
93090SOL     OW81108   3.282   0.541   4.371
93090SOL    HW181109   3.322   0.627   4.381
93090SOL    HW281110   3.314   0.491   4.446
93091SOL     OW81111  14.801   1.297   8.698
93091SOL    HW181112  14.866   1.252   8.752
93091SOL    HW281113  14.768   1.228   8.639
93092SOL     OW81114  12.269   6.427   6.875
93092SOL    HW181115  12.282   6.452   6.966
93092SOL    HW281116  12.316   6.344   6.866
93093SOL     OW81117   0.951   8.277  12.937
93093SOL    HW181118   0.908   8.192  12.942
93093SOL    HW281119   0.925   8.311  12.851
93094SOL     OW81120   2.873   1.954   8.159
93094SOL    HW181121   2.913   1.994   8.082
93094SOL    HW281122   2.843   2.028   8.212
93095SOL     OW81123   5.283   2.417  12.740
93095SOL    HW181124   5.265   2.471  12.663
93095SOL    HW281125   5.211   2.355  12.743
93096SOL     OW81126   4.196   9.668  10.996
93096SOL    HW181127   4.151   9.592  10.961
93096SOL    HW281128   4.217   9.721  10.919
93097SOL     OW81129  14.634   6.545   7.425
93097SOL    HW181130  14.721   6.585   7.415
93097SOL    HW281131  14.578   6.617   7.453
93098SOL     OW81132  10.382   6.266   7.511
93098SOL    HW181133  10.455   6.273   7.572
93098SOL    HW281134  10.411   6.315   7.433
93099SOL     OW81135   1.850   9.751  10.932
93099SOL    HW181136   1.830   9.689  11.002
93099SOL    HW281137   1.930   9.795  10.961
93100SOL     OW81138   4.091   2.122  10.503
93100SOL    HW181139   4.073   2.208  10.540
93100SOL    HW281140   4.059   2.127  10.413
93101SOL     OW81141   5.937  10.156   5.679
93101SOL    HW181142   5.888  10.094   5.733
93101SOL    HW281143   6.029  10.132   5.692
93102SOL     OW81144   7.094   1.580   5.867
93102SOL    HW181145   7.098   1.671   5.838
93102SOL    HW281146   7.007   1.571   5.906
93103SOL     OW81147  13.718  14.463   9.070
93103SOL    HW181148  13.776  14.400   9.027
93103SOL    HW281149  13.775  14.511   9.130
93104SOL     OW81150  14.019  12.915  14.286
93104SOL    HW181151  14.074  12.937  14.361
93104SOL    HW281152  14.078  12.920  14.210
93105SOL     OW81153  11.156   0.266   5.840
93105SOL    HW181154  11.229   0.251   5.779
93105SOL    HW281155  11.114   0.180   5.848
93106SOL     OW81156   3.185   9.536   1.078
93106SOL    HW181157   3.148   9.529   0.989
93106SOL    HW281158   3.110   9.527   1.136
93107SOL     OW81159   2.064  10.275   9.086
93107SOL    HW181160   2.013  10.256   9.007
93107SOL    HW281161   2.075  10.370   9.085
93108SOL     OW81162   9.478   5.776   7.963
93108SOL    HW181163   9.470   5.871   7.977
93108SOL    HW281164   9.565   5.754   7.997
93109SOL     OW81165  14.057   7.308  10.579
93109SOL    HW181166  14.122   7.243  10.552
93109SOL    HW281167  14.085   7.337  10.666
93110SOL     OW81168   9.923   7.809  14.149
93110SOL    HW181169   9.999   7.854  14.186
93110SOL    HW281170   9.871   7.879  14.108
93111SOL     OW81171  10.382   3.294   0.456
93111SOL    HW181172  10.302   3.332   0.493
93111SOL    HW281173  10.357   3.206   0.428
93112SOL     OW81174   9.793   3.269   8.401
93112SOL    HW181175   9.772   3.340   8.341
93112SOL    HW281176   9.881   3.240   8.375
93113SOL     OW81177  11.032   2.527   7.646
93113SOL    HW181178  10.969   2.558   7.712
93113SOL    HW281179  11.097   2.479   7.697
93114SOL     OW81180  14.369  13.171   1.739
93114SOL    HW181181  14.281  13.157   1.775
93114SOL    HW281182  14.428  13.130   1.802
93115SOL     OW81183  13.076   1.721  14.812
93115SOL    HW181184  13.064   1.776   0.010
93115SOL    HW281185  12.988   1.704  14.780
93116SOL     OW81186   5.647   6.512   6.553
93116SOL    HW181187   5.739   6.523   6.578
93116SOL    HW281188   5.631   6.418   6.563
93117SOL     OW81189  12.747   6.931   0.262
93117SOL    HW181190  12.842   6.932   0.273
93117SOL    HW281191  12.715   6.997   0.323
93118SOL     OW81192   0.768   0.767   7.288
93118SOL    HW181193   0.713   0.806   7.220
93118SOL    HW281194   0.794   0.840   7.344
93119SOL     OW81195  14.332  10.884  12.844
93119SOL    HW181196  14.275  10.816  12.880
93119SOL    HW281197  14.372  10.843  12.767
93120SOL     OW81198   9.661   8.428   0.835
93120SOL    HW181199   9.737   8.433   0.893
93120SOL    HW281200   9.672   8.501   0.774
93121SOL     OW81201   8.071   1.689   7.500
93121SOL    HW181202   8.104   1.680   7.411
93121SOL    HW281203   8.058   1.599   7.530
93122SOL     OW81204  13.431  12.770   9.776
93122SOL    HW181205  13.502  12.716   9.812
93122SOL    HW281206  13.392  12.812   9.852
93123SOL     OW81207   1.715  11.131   9.699
93123SOL    HW181208   1.790  11.182   9.728
93123SOL    HW281209   1.640  11.175   9.739
93124SOL     OW81210  14.345  12.797  14.666
93124SOL    HW181211  14.360  12.876  14.718
93124SOL    HW281212  14.432  12.768  14.640
93125SOL     OW81213   8.034   3.430  12.007
93125SOL    HW181214   8.025   3.375  12.085
93125SOL    HW281215   8.003   3.516  12.034
93126SOL     OW81216   3.045   7.495   4.967
93126SOL    HW181217   3.123   7.547   4.985
93126SOL    HW281218   2.995   7.497   5.048
93127SOL     OW81219   7.931  10.725  11.079
93127SOL    HW181220   7.839  10.698  11.076
93127SOL    HW281221   7.953  10.724  11.173
93128SOL     OW81222  11.652  10.567   4.995
93128SOL    HW181223  11.640  10.649   4.945
93128SOL    HW281224  11.621  10.499   4.935
93129SOL     OW81225   4.939   4.137  14.415
93129SOL    HW181226   5.026   4.108  14.442
93129SOL    HW281227   4.920   4.213  14.471
93130SOL     OW81228  12.324  11.508   9.046
93130SOL    HW181229  12.234  11.538   9.060
93130SOL    HW281230  12.354  11.559   8.971
93131SOL     OW81231  14.279   9.668  10.877
93131SOL    HW181232  14.289   9.704  10.789
93131SOL    HW281233  14.351   9.705  10.927
93132SOL     OW81234   8.364   3.184   9.490
93132SOL    HW181235   8.294   3.245   9.512
93132SOL    HW281236   8.338   3.149   9.404
93133SOL     OW81237  11.987   9.042   0.777
93133SOL    HW181238  11.976   9.066   0.685
93133SOL    HW281239  12.005   8.948   0.775
93134SOL     OW81240   3.512  14.616   5.201
93134SOL    HW181241   3.486  14.617   5.108
93134SOL    HW281242   3.506  14.523   5.225
93135SOL     OW81243   1.030   9.014  14.333
93135SOL    HW181244   0.965   9.043  14.268
93135SOL    HW281245   1.114   9.025  14.289
93136SOL     OW81246  13.484   4.936   0.433
93136SOL    HW181247  13.405   4.988   0.445
93136SOL    HW281248  13.453   4.845   0.433
93137SOL     OW81249   8.528   3.310   0.273
93137SOL    HW181250   8.574   3.365   0.337
93137SOL    HW281251   8.580   3.319   0.193
93138SOL     OW81252  11.860  13.550  14.588
93138SOL    HW181253  11.831  13.523  14.500
93138SOL    HW281254  11.945  13.590  14.573
93139SOL     OW81255   6.366   1.359   0.598
93139SOL    HW181256   6.415   1.292   0.550
93139SOL    HW281257   6.433   1.407   0.647
93140SOL     OW81258   0.005  10.835   7.059
93140SOL    HW181259  14.868  10.883   6.978
93140SOL    HW281260   0.046  10.753   7.030
93141SOL     OW81261  14.715  11.850   2.779
93141SOL    HW181262  14.670  11.787   2.834
93141SOL    HW281263  14.808  11.834   2.795
93142SOL     OW81264   4.310  11.757   0.987
93142SOL    HW181265   4.401  11.747   1.013
93142SOL    HW281266   4.283  11.840   1.026
93143SOL     OW81267  11.621   4.918   7.584
93143SOL    HW181268  11.533   4.940   7.616
93143SOL    HW281269  11.628   4.824   7.595
93144SOL     OW81270   2.944   0.537   5.195
93144SOL    HW181271   3.038   0.519   5.191
93144SOL    HW281272   2.916   0.504   5.280
93145SOL     OW81273   4.816  11.160  14.880
93145SOL    HW181274   4.742  11.188   0.054
93145SOL    HW281275   4.802  11.205  14.796
93146SOL     OW81276  14.581   0.010   7.115
93146SOL    HW181277  14.656   0.070   7.111
93146SOL    HW281278  14.588  14.837   7.035
93147SOL     OW81279   7.241   6.472  10.893
93147SOL    HW181280   7.154   6.506  10.915
93147SOL    HW281281   7.225   6.412  10.820
93148SOL     OW81282   4.679   5.729   3.373
93148SOL    HW181283   4.738   5.662   3.408
93148SOL    HW281284   4.599   5.681   3.354
93149SOL     OW81285   3.072  10.270   2.665
93149SOL    HW181286   3.054  10.212   2.591
93149SOL    HW281287   2.994  10.262   2.721
93150SOL     OW81288   9.477  11.429   6.535
93150SOL    HW181289   9.460  11.343   6.574
93150SOL    HW281290   9.529  11.410   6.457
93151SOL     OW81291   8.229   4.758  13.199
93151SOL    HW181292   8.306   4.813  13.185
93151SOL    HW281293   8.261   4.683  13.250
93152SOL     OW81294  12.070   4.643   1.707
93152SOL    HW181295  12.114   4.725   1.732
93152SOL    HW281296  12.108   4.621   1.622
93153SOL     OW81297   7.499   4.556  10.417
93153SOL    HW181298   7.435   4.620  10.385
93153SOL    HW281299   7.472   4.538  10.507
93154SOL     OW81300   1.401   3.428   3.092
93154SOL    HW181301   1.463   3.458   3.158
93154SOL    HW281302   1.324   3.484   3.103
93155SOL     OW81303  13.706   0.637   0.671
93155SOL    HW181304  13.736   0.655   0.582
93155SOL    HW281305  13.749   0.554   0.695
93156SOL     OW81306   0.179   3.278   5.810
93156SOL    HW181307   0.158   3.369   5.790
93156SOL    HW281308   0.254   3.283   5.870
93157SOL     OW81309   6.476   9.783  10.761
93157SOL    HW181310   6.399   9.784  10.817
93157SOL    HW281311   6.535   9.847  10.801
93158SOL     OW81312   5.317   3.442   1.387
93158SOL    HW181313   5.286   3.502   1.455
93158SOL    HW281314   5.411   3.434   1.402
93159SOL     OW81315   7.054   9.169   5.192
93159SOL    HW181316   6.961   9.153   5.205
93159SOL    HW281317   7.060   9.209   5.106
93160SOL     OW81318   0.721  11.319   4.724
93160SOL    HW181319   0.709  11.246   4.663
93160SOL    HW281320   0.691  11.396   4.675
93161SOL     OW81321   0.913  14.687   0.417
93161SOL    HW181322   0.928  14.672   0.511
93161SOL    HW281323   0.823  14.718   0.412
93162SOL     OW81324  11.916  13.181   7.951
93162SOL    HW181325  11.884  13.194   8.041
93162SOL    HW281326  12.003  13.220   7.952
93163SOL     OW81327   6.800  12.453   5.949
93163SOL    HW181328   6.784  12.429   6.040
93163SOL    HW281329   6.715  12.478   5.915
93164SOL     OW81330  12.131  14.507   6.472
93164SOL    HW181331  12.123  14.569   6.544
93164SOL    HW281332  12.204  14.450   6.496
93165SOL     OW81333  12.789   1.092   1.691
93165SOL    HW181334  12.866   1.119   1.641
93165SOL    HW281335  12.801   1.130   1.778
93166SOL     OW81336   3.046   5.760   4.049
93166SOL    HW181337   3.022   5.852   4.055
93166SOL    HW281338   3.013   5.732   3.964
93167SOL     OW81339   1.282   9.051   9.003
93167SOL    HW181340   1.339   9.087   9.071
93167SOL    HW281341   1.194   9.078   9.028
93168SOL     OW81342   4.823   5.068  10.240
93168SOL    HW181343   4.845   5.065  10.147
93168SOL    HW281344   4.732   5.037  10.244
93169SOL     OW81345  12.110  14.113   6.220
93169SOL    HW181346  12.065  14.191   6.251
93169SOL    HW281347  12.100  14.049   6.291
93170SOL     OW81348   0.593   2.319   5.013
93170SOL    HW181349   0.633   2.323   5.100
93170SOL    HW281350   0.526   2.387   5.014
93171SOL     OW81351  14.296  13.572  14.466
93171SOL    HW181352  14.292  13.494  14.411
93171SOL    HW281353  14.214  13.570  14.516
93172SOL     OW81354   9.079   8.174  14.846
93172SOL    HW181355   9.124   8.133   0.041
93172SOL    HW281356   8.996   8.127  14.840
93173SOL     OW81357   6.691   2.933   9.072
93173SOL    HW181358   6.757   2.993   9.038
93173SOL    HW281359   6.651   2.981   9.145
93174SOL     OW81360  12.462   6.428   9.266
93174SOL    HW181361  12.450   6.514   9.226
93174SOL    HW281362  12.392   6.422   9.332
93175SOL     OW81363   0.457   6.190   2.330
93175SOL    HW181364   0.518   6.245   2.281
93175SOL    HW281365   0.498   6.181   2.416
93176SOL     OW81366   5.586  14.310   3.079
93176SOL    HW181367   5.671  14.330   3.039
93176SOL    HW281368   5.533  14.278   3.006
93177SOL     OW81369   8.432  12.254   2.235
93177SOL    HW181370   8.337  12.244   2.232
93177SOL    HW281371   8.465  12.171   2.201
93178SOL     OW81372  14.021   1.092   8.248
93178SOL    HW181373  13.933   1.078   8.211
93178SOL    HW281374  14.036   1.015   8.302
93179SOL     OW81375   8.665   5.167  10.654
93179SOL    HW181376   8.669   5.248  10.704
93179SOL    HW281377   8.705   5.101  10.711
93180SOL     OW81378  10.014   5.237  11.645
93180SOL    HW181379  10.102   5.270  11.665
93180SOL    HW281380  10.022   5.199  11.558
93181SOL     OW81381   3.757  14.373  11.972
93181SOL    HW181382   3.676  14.325  11.988
93181SOL    HW281383   3.786  14.402  12.058
93182SOL     OW81384   7.574  11.387   6.770
93182SOL    HW181385   7.509  11.385   6.700
93182SOL    HW281386   7.527  11.360   6.848
93183SOL     OW81387  10.765   0.245   8.299
93183SOL    HW181388  10.814   0.214   8.375
93183SOL    HW281389  10.698   0.178   8.285
93184SOL     OW81390   9.692   1.996   9.764
93184SOL    HW181391   9.685   2.035   9.677
93184SOL    HW281392   9.608   2.016   9.806
93185SOL     OW81393   8.178  14.055   2.097
93185SOL    HW181394   8.168  14.136   2.147
93185SOL    HW281395   8.173  13.985   2.162
93186SOL     OW81396  11.466   1.990   3.242
93186SOL    HW181397  11.557   2.006   3.265
93186SOL    HW281398  11.443   1.909   3.287
93187SOL     OW81399   6.747  12.441   4.213
93187SOL    HW181400   6.731  12.348   4.193
93187SOL    HW281401   6.830  12.460   4.169
93188SOL     OW81402   4.925   0.031   6.380
93188SOL    HW181403   4.909  14.816   6.381
93188SOL    HW281404   5.010   0.042   6.422
93189SOL     OW81405  14.818   6.145   2.850
93189SOL    HW181406  14.803   6.236   2.827
93189SOL    HW281407  14.756   6.096   2.796
93190SOL     OW81408   3.910   2.712   4.224
93190SOL    HW181409   3.853   2.637   4.240
93190SOL    HW281410   3.853   2.777   4.182
93191SOL     OW81411  10.899   4.663   9.795
93191SOL    HW181412  10.906   4.571   9.820
93191SOL    HW281413  10.988   4.697   9.803
93192SOL     OW81414   1.903   0.608   7.279
93192SOL    HW181415   1.908   0.703   7.268
93192SOL    HW281416   1.920   0.595   7.373
93193SOL     OW81417   0.972   3.467  11.178
93193SOL    HW181418   0.957   3.377  11.207
93193SOL    HW281419   0.961   3.520  11.257
93194SOL     OW81420   5.114   8.347  13.872
93194SOL    HW181421   5.021   8.358  13.887
93194SOL    HW281422   5.122   8.333  13.778
93195SOL     OW81423   0.145   2.966  11.800
93195SOL    HW181424   0.117   2.910  11.872
93195SOL    HW281425   0.089   3.044  11.807
93196SOL     OW81426   9.999  12.256   2.239
93196SOL    HW181427   9.912  12.293   2.226
93196SOL    HW281428  10.058  12.315   2.192
93197SOL     OW81429   7.096  12.851   2.280
93197SOL    HW181430   7.029  12.796   2.239
93197SOL    HW281431   7.146  12.792   2.336
93198SOL     OW81432  11.882   7.802   5.632
93198SOL    HW181433  11.933   7.878   5.660
93198SOL    HW281434  11.918   7.778   5.547
93199SOL     OW81435  14.842   7.923   8.946
93199SOL    HW181436   0.018   7.958   8.876
93199SOL    HW281437  14.865   7.974   9.023
93200SOL     OW81438  14.162   2.497   1.048
93200SOL    HW181439  14.162   2.487   0.952
93200SOL    HW281440  14.120   2.418   1.080
93201SOL     OW81441   0.000   9.337   8.950
93201SOL    HW181442   0.045   9.293   8.878
93201SOL    HW281443  14.834   9.410   8.908
93202SOL     OW81444  11.493  11.155   5.977
93202SOL    HW181445  11.496  11.239   5.930
93202SOL    HW281446  11.401  11.146   6.004
93203SOL     OW81447   6.326  13.450  10.824
93203SOL    HW181448   6.310  13.360  10.794
93203SOL    HW281449   6.416  13.448  10.857
93204SOL     OW81450  10.331   1.418  12.912
93204SOL    HW181451  10.257   1.405  12.972
93204SOL    HW281452  10.369   1.331  12.901
93205SOL     OW81453   6.756   0.356  12.476
93205SOL    HW181454   6.750   0.274  12.526
93205SOL    HW281455   6.783   0.329  12.388
93206SOL     OW81456  14.207  13.524   1.773
93206SOL    HW181457  14.121  13.560   1.798
93206SOL    HW281458  14.238  13.583   1.704
93207SOL     OW81459  11.753   3.136   0.622
93207SOL    HW181460  11.788   3.082   0.550
93207SOL    HW281461  11.682   3.083   0.659
93208SOL     OW81462  11.093  13.056  13.558
93208SOL    HW181463  11.003  13.044  13.527
93208SOL    HW281464  11.091  13.025  13.649
93209SOL     OW81465  14.277  11.591   1.873
93209SOL    HW181466  14.264  11.527   1.943
93209SOL    HW281467  14.372  11.595   1.862
93210SOL     OW81468  10.869   9.538   4.839
93210SOL    HW181469  10.866   9.580   4.925
93210SOL    HW281470  10.961   9.516   4.826
93211SOL     OW81471   0.753   3.367  14.219
93211SOL    HW181472   0.694   3.297  14.190
93211SOL    HW281473   0.797   3.395  14.139
93212SOL     OW81474  10.145  11.310   5.810
93212SOL    HW181475  10.078  11.275   5.751
93212SOL    HW281476  10.139  11.255   5.888
93213SOL     OW81477  14.699   8.205   8.174
93213SOL    HW181478  14.792   8.203   8.154
93213SOL    HW281479  14.668   8.285   8.131
93214SOL     OW81480   9.189   1.085   2.432
93214SOL    HW181481   9.222   1.115   2.517
93214SOL    HW281482   9.264   1.093   2.373
93215SOL     OW81483  14.198   0.286   8.184
93215SOL    HW181484  14.267   0.332   8.137
93215SOL    HW281485  14.241   0.210   8.221
93216SOL     OW81486  10.416  14.680   6.052
93216SOL    HW181487  10.415  14.585   6.046
93216SOL    HW281488  10.508  14.704   6.044
93217SOL     OW81489   0.148   5.668  10.369
93217SOL    HW181490   0.099   5.601  10.416
93217SOL    HW281491   0.205   5.707  10.434
93218SOL     OW81492  13.025   8.999   5.079
93218SOL    HW181493  13.087   8.927   5.091
93218SOL    HW281494  12.966   8.992   5.154
93219SOL     OW81495   1.924   1.184   7.867
93219SOL    HW181496   1.968   1.168   7.951
93219SOL    HW281497   1.867   1.258   7.883
93220SOL     OW81498   0.955   5.375   5.958
93220SOL    HW181499   1.015   5.316   6.004
93220SOL    HW281500   0.881   5.386   6.018
93221SOL     OW81501   8.374   5.142  13.219
93221SOL    HW181502   8.466   5.169  13.210
93221SOL    HW281503   8.375   5.049  13.194
93222SOL     OW81504   8.378  14.077  12.703
93222SOL    HW181505   8.386  14.020  12.780
93222SOL    HW281506   8.460  14.064  12.656
93223SOL     OW81507  10.154   5.977   0.010
93223SOL    HW181508  10.157   5.985   0.105
93223SOL    HW281509  10.233   6.021  14.859
93224SOL     OW81510   4.371   0.232   8.743
93224SOL    HW181511   4.356   0.304   8.804
93224SOL    HW281512   4.283   0.202   8.719
93225SOL     OW81513  10.815   8.260   7.739
93225SOL    HW181514  10.864   8.234   7.661
93225SOL    HW281515  10.759   8.332   7.709
93226SOL     OW81516  12.337   6.449  11.392
93226SOL    HW181517  12.260   6.391  11.393
93226SOL    HW281518  12.380   6.429  11.309
93227SOL     OW81519   9.203   2.568   1.229
93227SOL    HW181520   9.278   2.582   1.287
93227SOL    HW281521   9.166   2.485   1.258
93228SOL     OW81522   2.775  12.300  14.470
93228SOL    HW181523   2.841  12.359  14.506
93228SOL    HW281524   2.798  12.213  14.504
93229SOL     OW81525   0.038  10.784   8.664
93229SOL    HW181526   0.127  10.757   8.689
93229SOL    HW281527   0.052  10.844   8.591
93230SOL     OW81528  11.131   0.783   9.658
93230SOL    HW181529  11.129   0.765   9.565
93230SOL    HW281530  11.061   0.847   9.672
93231SOL     OW81531  10.085  11.323   3.219
93231SOL    HW181532   9.989  11.327   3.217
93231SOL    HW281533  10.110  11.293   3.132
93232SOL     OW81534   9.580   7.728   5.902
93232SOL    HW181535   9.489   7.758   5.891
93232SOL    HW281536   9.582   7.642   5.861
93233SOL     OW81537   7.715   5.256   2.021
93233SOL    HW181538   7.807   5.231   2.008
93233SOL    HW281539   7.671   5.224   1.943
93234SOL     OW81540  14.127  11.058   8.314
93234SOL    HW181541  14.111  11.045   8.220
93234SOL    HW281542  14.213  11.099   8.318
93235SOL     OW81543   1.832  13.358   2.413
93235SOL    HW181544   1.757  13.300   2.422
93235SOL    HW281545   1.908  13.301   2.418
93236SOL     OW81546   7.298  11.388   1.178
93236SOL    HW181547   7.386  11.418   1.152
93236SOL    HW281548   7.301  11.294   1.165
93237SOL     OW81549   7.476  10.503  10.976
93237SOL    HW181550   7.441  10.523  10.889
93237SOL    HW281551   7.404  10.521  11.036
93238SOL     OW81552  10.353   5.939   4.839
93238SOL    HW181553  10.358   5.962   4.746
93238SOL    HW281554  10.298   6.007   4.878
93239SOL     OW81555   6.720   6.343   8.263
93239SOL    HW181556   6.703   6.423   8.311
93239SOL    HW281557   6.638   6.293   8.271
93240SOL     OW81558   6.538   7.570  10.170
93240SOL    HW181559   6.480   7.584  10.245
93240SOL    HW281560   6.542   7.654  10.125
93241SOL     OW81561   4.599   5.262   8.425
93241SOL    HW181562   4.637   5.279   8.339
93241SOL    HW281563   4.565   5.173   8.420
93242SOL     OW81564   0.437   0.154  14.144
93242SOL    HW181565   0.461   0.158  14.052
93242SOL    HW281566   0.520   0.161  14.191
93243SOL     OW81567   6.141   2.876  12.253
93243SOL    HW181568   6.230   2.899  12.226
93243SOL    HW281569   6.106   2.958  12.289
93244SOL     OW81570   1.799   3.861   4.884
93244SOL    HW181571   1.884   3.853   4.840
93244SOL    HW281572   1.747   3.917   4.827
93245SOL     OW81573   7.041  11.444   0.212
93245SOL    HW181574   6.959  11.397   0.228
93245SOL    HW281575   7.109  11.376   0.216
93246SOL     OW81576   4.961  11.062   8.709
93246SOL    HW181577   5.038  11.118   8.703
93246SOL    HW281578   4.962  11.010   8.629
93247SOL     OW81579  10.430   5.586   5.460
93247SOL    HW181580  10.362   5.523   5.439
93247SOL    HW281581  10.484   5.590   5.381
93248SOL     OW81582   6.533  11.074   2.644
93248SOL    HW181583   6.549  10.984   2.674
93248SOL    HW281584   6.450  11.098   2.686
93249SOL     OW81585   3.303  12.656  13.083
93249SOL    HW181586   3.386  12.632  13.124
93249SOL    HW281587   3.262  12.572  13.061
93250SOL     OW81588   9.411  11.377   9.001
93250SOL    HW181589   9.374  11.382   9.089
93250SOL    HW281590   9.400  11.465   8.965
93251SOL     OW81591   2.424  12.199  14.139
93251SOL    HW181592   2.453  12.176  14.050
93251SOL    HW281593   2.396  12.116  14.177
93252SOL     OW81594   7.358  13.346   0.795
93252SOL    HW181595   7.302  13.334   0.871
93252SOL    HW281596   7.394  13.259   0.778
93253SOL     OW81597  12.596   3.562  14.577
93253SOL    HW181598  12.534   3.499  14.613
93253SOL    HW281599  12.641   3.514  14.507
93254SOL     OW81600  11.890  12.822   3.543
93254SOL    HW181601  11.970  12.782   3.510
93254SOL    HW281602  11.827  12.750   3.547
93255SOL     OW81603   6.205   4.012   2.969
93255SOL    HW181604   6.122   4.048   2.940
93255SOL    HW281605   6.207   4.027   3.063
93256SOL     OW81606   5.808   5.717   8.134
93256SOL    HW181607   5.715   5.722   8.111
93256SOL    HW281608   5.835   5.630   8.105
93257SOL     OW81609  12.298   0.732   5.713
93257SOL    HW181610  12.328   0.766   5.629
93257SOL    HW281611  12.254   0.650   5.691
93258SOL     OW81612  13.534   9.661   2.675
93258SOL    HW181613  13.515   9.591   2.737
93258SOL    HW281614  13.620   9.638   2.639
93259SOL     OW81615   2.145  10.251   8.332
93259SOL    HW181616   2.073  10.260   8.270
93259SOL    HW281617   2.214  10.307   8.297
93260SOL     OW81618   8.309   3.504   6.872
93260SOL    HW181619   8.344   3.593   6.872
93260SOL    HW281620   8.220   3.513   6.907
93261SOL     OW81621  10.632   3.501   8.417
93261SOL    HW181622  10.660   3.504   8.509
93261SOL    HW281623  10.681   3.571   8.375
93262SOL     OW81624   3.935   1.906  14.420
93262SOL    HW181625   4.019   1.900  14.375
93262SOL    HW281626   3.926   1.999  14.443
93263SOL     OW81627  11.645   1.897  13.426
93263SOL    HW181628  11.729   1.934  13.396
93263SOL    HW281629  11.585   1.913  13.353
93264SOL     OW81630  10.199   7.007  10.537
93264SOL    HW181631  10.106   7.007  10.559
93264SOL    HW281632  10.215   6.920  10.502
93265SOL     OW81633  14.508   2.812  14.044
93265SOL    HW181634  14.448   2.800  13.970
93265SOL    HW281635  14.521   2.907  14.049
93266SOL     OW81636   9.446   6.149   0.108
93266SOL    HW181637   9.504   6.208   0.156
93266SOL    HW281638   9.481   6.148   0.019
93267SOL     OW81639   5.825   7.252   4.855
93267SOL    HW181640   5.920   7.253   4.868
93267SOL    HW281641   5.790   7.226   4.940
93268SOL     OW81642   3.026   8.867   0.433
93268SOL    HW181643   2.931   8.881   0.434
93268SOL    HW281644   3.049   8.851   0.524
93269SOL     OW81645   3.837  10.748   3.370
93269SOL    HW181646   3.839  10.681   3.300
93269SOL    HW281647   3.745  10.756   3.393
93270SOL     OW81648   7.236  13.276  10.127
93270SOL    HW181649   7.236  13.320  10.212
93270SOL    HW281650   7.145  13.281  10.098
93271SOL     OW81651   1.248   4.282   8.505
93271SOL    HW181652   1.319   4.332   8.546
93271SOL    HW281653   1.274   4.274   8.414
93272SOL     OW81654   6.684   1.715   6.966
93272SOL    HW181655   6.734   1.796   6.967
93272SOL    HW281656   6.622   1.726   6.894
93273SOL     OW81657   0.178   7.711   1.247
93273SOL    HW181658   0.263   7.667   1.249
93273SOL    HW281659   0.116   7.641   1.227
93274SOL     OW81660   2.735   0.768   7.423
93274SOL    HW181661   2.702   0.848   7.381
93274SOL    HW281662   2.754   0.708   7.351
93275SOL     OW81663  11.808   9.365   0.854
93275SOL    HW181664  11.810   9.271   0.834
93275SOL    HW281665  11.847   9.406   0.777
93276SOL     OW81666   1.929  13.861   0.473
93276SOL    HW181667   1.846  13.854   0.427
93276SOL    HW281668   1.952  13.771   0.497
93277SOL     OW81669   8.750   5.788   4.893
93277SOL    HW181670   8.716   5.835   4.970
93277SOL    HW281671   8.700   5.706   4.892
93278SOL     OW81672  13.912   9.772   0.290
93278SOL    HW181673  13.903   9.775   0.195
93278SOL    HW281674  13.822   9.760   0.322
93279SOL     OW81675   3.596   5.724  12.696
93279SOL    HW181676   3.596   5.797  12.758
93279SOL    HW281677   3.569   5.648  12.748
93280SOL     OW81678  11.644  12.818  12.843
93280SOL    HW181679  11.561  12.783  12.877
93280SOL    HW281680  11.707  12.748  12.859
93281SOL     OW81681  14.263   9.355  12.850
93281SOL    HW181682  14.263   9.297  12.774
93281SOL    HW281683  14.309   9.434  12.820
93282SOL     OW81684   5.426   6.395   4.410
93282SOL    HW181685   5.357   6.335   4.380
93282SOL    HW281686   5.508   6.351   4.388
93283SOL     OW81687   8.147  11.814   5.009
93283SOL    HW181688   8.184  11.806   5.097
93283SOL    HW281689   8.102  11.730   4.994
93284SOL     OW81690   7.755   5.444   8.825
93284SOL    HW181691   7.827   5.385   8.802
93284SOL    HW281692   7.780   5.481   8.910
93285SOL     OW81693   6.720  10.020   4.036
93285SOL    HW181694   6.709  10.110   4.066
93285SOL    HW281695   6.639  10.001   3.988
93286SOL     OW81696   3.240   0.413   0.591
93286SOL    HW181697   3.172   0.349   0.614
93286SOL    HW281698   3.272   0.445   0.675
93287SOL     OW81699  11.469  13.242   0.419
93287SOL    HW181700  11.524  13.166   0.437
93287SOL    HW281701  11.381  13.215   0.448
93288SOL     OW81702   3.307   2.208   9.261
93288SOL    HW181703   3.256   2.128   9.265
93288SOL    HW281704   3.280   2.250   9.180
93289SOL     OW81705   6.831   7.423   9.019
93289SOL    HW181706   6.870   7.357   9.077
93289SOL    HW281707   6.868   7.404   8.933
93290SOL     OW81708   9.731   7.969   6.316
93290SOL    HW181709   9.745   7.986   6.223
93290SOL    HW281710   9.733   7.874   6.324
93291SOL     OW81711  10.638  14.604   5.193
93291SOL    HW181712  10.715  14.602   5.136
93291SOL    HW281713  10.670  14.644   5.275
93292SOL     OW81714   3.932   7.184  13.090
93292SOL    HW181715   3.905   7.225  13.008
93292SOL    HW281716   4.012   7.135  13.067
93293SOL     OW81717   5.718   5.783   5.458
93293SOL    HW181718   5.647   5.845   5.438
93293SOL    HW281719   5.757   5.817   5.538
93294SOL     OW81720   6.462   2.922  14.060
93294SOL    HW181721   6.436   2.978  13.987
93294SOL    HW281722   6.380   2.890  14.097
93295SOL     OW81723  10.840   6.361   0.172
93295SOL    HW181724  10.796   6.281   0.202
93295SOL    HW281725  10.929   6.353   0.204
93296SOL     OW81726   6.630   0.286   6.424
93296SOL    HW181727   6.539   0.308   6.446
93296SOL    HW281728   6.657   0.227   6.494
93297SOL     OW81729   8.964  11.197   3.621
93297SOL    HW181730   9.050  11.163   3.595
93297SOL    HW281731   8.972  11.292   3.609
93298SOL     OW81732   5.349  13.464   8.053
93298SOL    HW181733   5.276  13.413   8.091
93298SOL    HW281734   5.423  13.447   8.112
93299SOL     OW81735   2.371   2.490   5.866
93299SOL    HW181736   2.443   2.546   5.839
93299SOL    HW281737   2.310   2.548   5.911
93300SOL     OW81738  11.042   6.511  11.273
93300SOL    HW181739  10.999   6.580  11.322
93300SOL    HW281740  11.055   6.441  11.337
93301SOL     OW81741   2.604  14.510  10.285
93301SOL    HW181742   2.577  14.602  10.287
93301SOL    HW281743   2.620  14.488  10.377
93302SOL     OW81744   5.000  12.590  14.347
93302SOL    HW181745   5.080  12.642  14.361
93302SOL    HW281746   4.934  12.635  14.400
93303SOL     OW81747  13.191  11.161   4.649
93303SOL    HW181748  13.185  11.077   4.694
93303SOL    HW281749  13.143  11.149   4.568
93304SOL     OW81750   4.086   8.971   6.451
93304SOL    HW181751   3.997   8.976   6.416
93304SOL    HW281752   4.121   9.059   6.442
93305SOL     OW81753  11.936   3.466  13.490
93305SOL    HW181754  11.969   3.480  13.402
93305SOL    HW281755  11.965   3.542  13.539
93306SOL     OW81756   7.756   4.679  10.814
93306SOL    HW181757   7.720   4.591  10.806
93306SOL    HW281758   7.838   4.667  10.863
93307SOL     OW81759   9.268   5.915   9.337
93307SOL    HW181760   9.253   6.001   9.375
93307SOL    HW281761   9.344   5.880   9.385
93308SOL     OW81762   3.974   0.927   9.319
93308SOL    HW181763   3.914   0.987   9.273
93308SOL    HW281764   4.053   0.979   9.333
93309SOL     OW81765   6.373  14.783   7.293
93309SOL    HW181766   6.468  14.794   7.282
93309SOL    HW281767   6.348  14.856   7.350
93310SOL     OW81768   6.647   8.065   1.893
93310SOL    HW181769   6.604   8.080   1.977
93310SOL    HW281770   6.740   8.076   1.911
93311SOL     OW81771  14.185   7.048  13.795
93311SOL    HW181772  14.270   7.002  13.798
93311SOL    HW281773  14.208   7.138  13.772
93312SOL     OW81774   4.135   1.311   0.829
93312SOL    HW181775   4.200   1.241   0.832
93312SOL    HW281776   4.186   1.392   0.834
93313SOL     OW81777  14.829   0.439  14.702
93313SOL    HW181778   0.024   0.379  14.699
93313SOL    HW281779  14.867   0.525  14.685
93314SOL     OW81780  11.584  10.598  12.969
93314SOL    HW181781  11.520  10.540  13.010
93314SOL    HW281782  11.577  10.680  13.017
93315SOL     OW81783   1.018   0.464   6.921
93315SOL    HW181784   0.983   0.482   7.008
93315SOL    HW281785   0.990   0.375   6.900
93316SOL     OW81786   3.528   2.335   3.956
93316SOL    HW181787   3.439   2.366   3.937
93316SOL    HW281788   3.547   2.271   3.887
93317SOL     OW81789   6.811   1.739   0.375
93317SOL    HW181790   6.732   1.790   0.386
93317SOL    HW281791   6.869   1.768   0.446
93318SOL     OW81792  11.084   6.184   5.473
93318SOL    HW181793  11.096   6.184   5.378
93318SOL    HW281794  11.173   6.185   5.509
93319SOL     OW81795   8.864   2.060  13.290
93319SOL    HW181796   8.864   1.964  13.293
93319SOL    HW281797   8.776   2.083  13.260
93320SOL     OW81798   5.259  14.872   6.273
93320SOL    HW181799   5.240  14.828   6.190
93320SOL    HW281800   5.224  14.812   6.339
93321SOL     OW81801  14.070  14.843   3.148
93321SOL    HW181802  14.116  14.762   3.170
93321SOL    HW281803  14.095  14.860   3.057
93322SOL     OW81804   5.453   8.077   2.623
93322SOL    HW181805   5.429   7.985   2.635
93322SOL    HW281806   5.471   8.108   2.712
93323SOL     OW81807   7.383  14.686   3.859
93323SOL    HW181808   7.435  14.747   3.913
93323SOL    HW281809   7.445  14.618   3.833
93324SOL     OW81810   5.453  13.086  12.136
93324SOL    HW181811   5.487  13.016  12.079
93324SOL    HW281812   5.498  13.165  12.106
93325SOL     OW81813   4.485  11.741  10.565
93325SOL    HW181814   4.475  11.819  10.510
93325SOL    HW281815   4.580  11.733  10.577
93326SOL     OW81816  11.399  10.923   8.910
93326SOL    HW181817  11.383  10.951   8.820
93326SOL    HW281818  11.312  10.921   8.950
93327SOL     OW81819   5.115   2.008  10.187
93327SOL    HW181820   5.068   1.934  10.225
93327SOL    HW281821   5.169   1.969  10.118
93328SOL     OW81822   2.707  13.547   3.201
93328SOL    HW181823   2.763  13.563   3.125
93328SOL    HW281824   2.768  13.535   3.274
93329SOL     OW81825  13.383   3.469   6.742
93329SOL    HW181826  13.399   3.374   6.735
93329SOL    HW281827  13.339   3.479   6.826
93330SOL     OW81828   6.861  12.689   0.741
93330SOL    HW181829   6.765  12.691   0.742
93330SOL    HW281830   6.886  12.713   0.652
93331SOL     OW81831   3.132   2.276  12.329
93331SOL    HW181832   3.105   2.185  12.330
93331SOL    HW281833   3.190   2.286  12.404
93332SOL     OW81834   8.613  12.992  13.016
93332SOL    HW181835   8.588  12.967  13.105
93332SOL    HW281836   8.591  13.086  13.011
93333SOL     OW81837  13.301   4.727   0.506
93333SOL    HW181838  13.277   4.675   0.583
93333SOL    HW281839  13.217   4.754   0.469
93334SOL     OW81840   2.664   3.648  13.378
93334SOL    HW181841   2.704   3.676  13.460
93334SOL    HW281842   2.670   3.724  13.321
93335SOL     OW81843   6.301   1.977   9.672
93335SOL    HW181844   6.342   1.933   9.598
93335SOL    HW281845   6.212   1.997   9.643
93336SOL     OW81846   5.869   0.421  10.392
93336SOL    HW181847   5.792   0.478  10.390
93336SOL    HW281848   5.844   0.344  10.341
93337SOL     OW81849   0.979   9.178  12.930
93337SOL    HW181850   1.002   9.086  12.942
93337SOL    HW281851   0.935   9.181  12.845
93338SOL     OW81852   4.230   1.024  12.314
93338SOL    HW181853   4.321   1.041  12.292
93338SOL    HW281854   4.180   1.076  12.251
93339SOL     OW81855  11.646   6.234   7.872
93339SOL    HW181856  11.587   6.175   7.825
93339SOL    HW281857  11.590   6.304   7.904
93340SOL     OW81858   1.430   6.186  10.898
93340SOL    HW181859   1.518   6.193  10.861
93340SOL    HW281860   1.445   6.163  10.990
93341SOL     OW81861   7.776   2.582   1.781
93341SOL    HW181862   7.785   2.635   1.702
93341SOL    HW281863   7.851   2.522   1.778
93342SOL     OW81864   1.695   8.183   0.833
93342SOL    HW181865   1.652   8.102   0.862
93342SOL    HW281866   1.787   8.172   0.859
93343SOL     OW81867   8.776   3.571  14.214
93343SOL    HW181868   8.800   3.623  14.138
93343SOL    HW281869   8.856   3.564  14.265
93344SOL     OW81870   2.509   4.832  10.064
93344SOL    HW181871   2.575   4.887  10.020
93344SOL    HW281872   2.450   4.805   9.994
93345SOL     OW81873   1.177   8.548  11.638
93345SOL    HW181874   1.191   8.593  11.555
93345SOL    HW281875   1.091   8.506  11.628
93346SOL     OW81876   4.585   8.331   3.999
93346SOL    HW181877   4.524   8.268   4.037
93346SOL    HW281878   4.544   8.359   3.917
93347SOL     OW81879   5.152  10.928  12.299
93347SOL    HW181880   5.144  10.852  12.357
93347SOL    HW281881   5.185  10.894  12.217
93348SOL     OW81882   5.398   5.036  13.313
93348SOL    HW181883   5.357   4.954  13.338
93348SOL    HW281884   5.480   5.010  13.271
93349SOL     OW81885   2.638   8.308   4.247
93349SOL    HW181886   2.694   8.373   4.207
93349SOL    HW281887   2.563   8.300   4.187
93350SOL     OW81888  13.571   8.898   1.282
93350SOL    HW181889  13.520   8.865   1.207
93350SOL    HW281890  13.527   8.863   1.359
93351SOL     OW81891  12.635   9.823  11.636
93351SOL    HW181892  12.664   9.731  11.643
93351SOL    HW281893  12.544   9.817  11.606
93352SOL     OW81894   6.683   6.821   4.123
93352SOL    HW181895   6.658   6.897   4.175
93352SOL    HW281896   6.740   6.857   4.054
93353SOL     OW81897   3.342   5.612   9.043
93353SOL    HW181898   3.313   5.601   9.134
93353SOL    HW281899   3.402   5.686   9.046
93354SOL     OW81900   6.749   6.468   3.782
93354SOL    HW181901   6.798   6.518   3.716
93354SOL    HW281902   6.734   6.383   3.741
93355SOL     OW81903   8.948  12.005  14.066
93355SOL    HW181904   9.043  12.017  14.075
93355SOL    HW281905   8.911  12.086  14.100
93356SOL     OW81906   5.161   0.605   5.919
93356SOL    HW181907   5.229   0.654   5.872
93356SOL    HW281908   5.197   0.591   6.007
93357SOL     OW81909   9.966  11.093   2.129
93357SOL    HW181910   9.932  11.081   2.040
93357SOL    HW281911   9.927  11.175   2.159
93358SOL     OW81912  10.416  12.371  10.806
93358SOL    HW181913  10.357  12.296  10.815
93358SOL    HW281914  10.491  12.349  10.861
93359SOL     OW81915  13.261  11.507  10.845
93359SOL    HW181916  13.262  11.451  10.922
93359SOL    HW281917  13.354  11.526  10.828
93360SOL     OW81918  13.871   0.750   1.124
93360SOL    HW181919  13.818   0.765   1.202
93360SOL    HW281920  13.925   0.829   1.116
93361SOL     OW81921   1.671  10.964   3.630
93361SOL    HW181922   1.743  10.913   3.667
93361SOL    HW281923   1.595  10.905   3.635
93362SOL     OW81924   0.866  14.735   3.088
93362SOL    HW181925   0.962  14.742   3.080
93362SOL    HW281926   0.853  14.670   3.157
93363SOL     OW81927   5.938   1.713  12.796
93363SOL    HW181928   5.852   1.701  12.756
93363SOL    HW281929   5.918   1.744  12.885
93364SOL     OW81930   7.984   7.443   0.894
93364SOL    HW181931   7.899   7.409   0.866
93364SOL    HW281932   8.034   7.454   0.812
93365SOL     OW81933  10.314   0.881   1.032
93365SOL    HW181934  10.279   0.815   0.972
93365SOL    HW281935  10.244   0.895   1.095
93366SOL     OW81936   7.692   6.110  14.296
93366SOL    HW181937   7.629   6.038  14.304
93366SOL    HW281938   7.724   6.123  14.385
93367SOL     OW81939  13.281   5.068   6.738
93367SOL    HW181940  13.284   5.020   6.820
93367SOL    HW281941  13.372   5.086   6.716
93368SOL     OW81942   4.472   1.497  14.571
93368SOL    HW181943   4.496   1.577  14.524
93368SOL    HW281944   4.500   1.426  14.513
93369SOL     OW81945   0.515   6.505   5.752
93369SOL    HW181946   0.491   6.592   5.721
93369SOL    HW281947   0.496   6.507   5.846
93370SOL     OW81948  10.905   2.069   1.669
93370SOL    HW181949  10.866   2.040   1.587
93370SOL    HW281950  10.909   1.990   1.723
93371SOL     OW81951   7.886  10.490   3.416
93371SOL    HW181952   7.839  10.572   3.430
93371SOL    HW281953   7.911  10.461   3.503
93372SOL     OW81954  13.566   1.733   4.728
93372SOL    HW181955  13.506   1.675   4.681
93372SOL    HW281956  13.640   1.677   4.751
93373SOL     OW81957   2.889  11.310   6.609
93373SOL    HW181958   2.923  11.221   6.599
93373SOL    HW281959   2.810  11.312   6.556
93374SOL     OW81960   8.536   0.629   0.134
93374SOL    HW181961   8.629   0.606   0.131
93374SOL    HW281962   8.531   0.712   0.087
93375SOL     OW81963   8.181  12.076   3.283
93375SOL    HW181964   8.139  12.162   3.290
93375SOL    HW281965   8.273  12.093   3.303
93376SOL     OW81966   6.573  11.119   0.332
93376SOL    HW181967   6.489  11.075   0.347
93376SOL    HW281968   6.596  11.155   0.418
93377SOL     OW81969  12.508   8.590   4.397
93377SOL    HW181970  12.460   8.511   4.372
93377SOL    HW281971  12.535   8.574   4.487
93378SOL     OW81972  12.332   4.533   0.772
93378SOL    HW181973  12.242   4.533   0.806
93378SOL    HW281974  12.354   4.626   0.764
93379SOL     OW81975  13.660   0.238   7.105
93379SOL    HW181976  13.657   0.242   7.200
93379SOL    HW281977  13.689   0.149   7.085
93380SOL     OW81978   7.962   4.181   0.177
93380SOL    HW181979   8.030   4.242   0.208
93380SOL    HW281980   7.916   4.230   0.109
93381SOL     OW81981   0.641   7.268   1.071
93381SOL    HW181982   0.669   7.349   1.028
93381SOL    HW281983   0.693   7.265   1.152
93382SOL     OW81984  14.140   1.349  11.887
93382SOL    HW181985  14.232   1.373  11.873
93382SOL    HW281986  14.141   1.253  11.895
93383SOL     OW81987   2.879   2.307   1.020
93383SOL    HW181988   2.825   2.368   1.070
93383SOL    HW281989   2.820   2.236   0.996
93384SOL     OW81990   4.683   2.395   8.468
93384SOL    HW181991   4.725   2.413   8.552
93384SOL    HW281992   4.596   2.434   8.475
93385SOL     OW81993  11.865   7.541   1.019
93385SOL    HW181994  11.862   7.527   1.114
93385SOL    HW281995  11.783   7.586   0.999
93386SOL     OW81996  12.985   1.373  11.313
93386SOL    HW181997  12.936   1.332  11.242
93386SOL    HW281998  12.947   1.337  11.393
93387SOL     OW81999   5.179   7.075   5.818
93387SOL    HW182000   5.261   7.043   5.780
93387SOL    HW282001   5.169   7.024   5.899
93388SOL     OW82002   4.278   0.530   4.552
93388SOL    HW182003   4.198   0.484   4.576
93388SOL    HW282004   4.282   0.605   4.612
93389SOL     OW82005  11.088   7.109   8.182
93389SOL    HW182006  11.055   7.050   8.114
93389SOL    HW282007  11.148   7.167   8.136
93390SOL     OW82008   0.327   8.616  13.033
93390SOL    HW182009   0.364   8.696  13.070
93390SOL    HW282010   0.232   8.627  13.040
93391SOL     OW82011   1.515   4.406   8.905
93391SOL    HW182012   1.454   4.398   8.832
93391SOL    HW282013   1.550   4.318   8.917
93392SOL     OW82014   3.818   4.763   6.008
93392SOL    HW182015   3.821   4.782   5.914
93392SOL    HW282016   3.769   4.835   6.046
93393SOL     OW82017   1.604   8.014   7.402
93393SOL    HW182018   1.541   8.050   7.339
93393SOL    HW282019   1.566   7.931   7.429
93394SOL     OW82020  10.533   9.365   7.438
93394SOL    HW182021  10.541   9.334   7.528
93394SOL    HW282022  10.486   9.295   7.393
93395SOL     OW82023   1.059   3.839  10.844
93395SOL    HW182024   1.050   3.858  10.751
93395SOL    HW282025   1.151   3.854  10.863
93396SOL     OW82026  10.216   1.980   1.787
93396SOL    HW182027  10.235   1.998   1.878
93396SOL    HW282028  10.262   2.048   1.738
93397SOL     OW82029   7.808  11.500   5.404
93397SOL    HW182030   7.849  11.467   5.484
93397SOL    HW282031   7.733  11.551   5.435
93398SOL     OW82032  13.529   0.572   9.197
93398SOL    HW182033  13.560   0.661   9.178
93398SOL    HW282034  13.532   0.527   9.113
93399SOL     OW82035  13.195  13.458   2.469
93399SOL    HW182036  13.251  13.524   2.509
93399SOL    HW282037  13.106  13.482   2.496
93400SOL     OW82038   0.092   7.488   8.929
93400SOL    HW182039   0.005   7.482   8.970
93400SOL    HW282040   0.143   7.541   8.990
93401SOL     OW82041   7.905   2.519  11.496
93401SOL    HW182042   7.938   2.609  11.493
93401SOL    HW282043   7.812   2.527  11.477
93402SOL     OW82044  11.520  14.600  13.725
93402SOL    HW182045  11.569  14.571  13.802
93402SOL    HW282046  11.441  14.546  13.726
93403SOL     OW82047   9.238  11.084   9.848
93403SOL    HW182048   9.175  11.023   9.810
93403SOL    HW282049   9.321  11.062   9.805
93404SOL     OW82050   7.326  10.437   7.009
93404SOL    HW182051   7.419  10.433   6.987
93404SOL    HW282052   7.317  10.380   7.086
93405SOL     OW82053   9.023   0.049   9.582
93405SOL    HW182054   8.986  14.846   9.613
93405SOL    HW282055   9.104   0.059   9.632
93406SOL     OW82056   6.061   8.761  10.387
93406SOL    HW182057   6.085   8.730  10.300
93406SOL    HW282058   6.108   8.704  10.447
93407SOL     OW82059  14.602  14.243  10.170
93407SOL    HW182060  14.671  14.213  10.230
93407SOL    HW282061  14.639  14.321  10.128
93408SOL     OW82062   5.746  12.570  12.250
93408SOL    HW182063   5.772  12.481  12.272
93408SOL    HW282064   5.718  12.566  12.159
93409SOL     OW82065  13.950   7.348   1.311
93409SOL    HW182066  13.997   7.285   1.256
93409SOL    HW282067  13.878   7.380   1.257
93410SOL     OW82068   1.277  11.731   1.941
93410SOL    HW182069   1.321  11.647   1.956
93410SOL    HW282070   1.333  11.776   1.877
93411SOL     OW82071  10.144   6.368  13.783
93411SOL    HW182072  10.192   6.300  13.737
93411SOL    HW282073  10.060   6.328  13.805
93412SOL     OW82074  10.640   0.504  11.087
93412SOL    HW182075  10.572   0.565  11.116
93412SOL    HW282076  10.701   0.558  11.037
93413SOL     OW82077  14.288   9.987   8.031
93413SOL    HW182078  14.294   9.981   8.126
93413SOL    HW282079  14.342  10.062   8.008
93414SOL     OW82080   1.069   0.424  13.865
93414SOL    HW182081   1.044   0.511  13.895
93414SOL    HW282082   1.023   0.413  13.782
93415SOL     OW82083   4.764   5.691   8.133
93415SOL    HW182084   4.828   5.758   8.157
93415SOL    HW282085   4.801   5.609   8.167
93416SOL     OW82086   7.446   2.640   8.560
93416SOL    HW182087   7.447   2.544   8.561
93416SOL    HW282088   7.466   2.665   8.650
93417SOL     OW82089   2.323  10.920  14.693
93417SOL    HW182090   2.412  10.931  14.660
93417SOL    HW282091   2.320  10.975  14.771
93418SOL     OW82092  14.438   4.890   3.335
93418SOL    HW182093  14.349   4.861   3.356
93418SOL    HW282094  14.455   4.960   3.398
93419SOL     OW82095  11.104   9.952  14.495
93419SOL    HW182096  11.139  10.019  14.553
93419SOL    HW282097  11.009   9.966  14.496
93420SOL     OW82098   6.801   1.616   8.704
93420SOL    HW182099   6.790   1.608   8.610
93420SOL    HW282100   6.896   1.619   8.717
93421SOL     OW82101   5.831  12.629   7.780
93421SOL    HW182102   5.808  12.720   7.796
93421SOL    HW282103   5.871  12.628   7.694
93422SOL     OW82104   8.235  14.228  14.030
93422SOL    HW182105   8.212  14.282  13.954
93422SOL    HW282106   8.156  14.177  14.047
93423SOL     OW82107   0.213  13.424  13.276
93423SOL    HW182108   0.262  13.487  13.328
93423SOL    HW282109   0.176  13.364  13.341
93424SOL     OW82110   8.313   1.504   6.202
93424SOL    HW182111   8.354   1.457   6.275
93424SOL    HW282112   8.383   1.557   6.164
93425SOL     OW82113   4.608  12.673  11.035
93425SOL    HW182114   4.650  12.717  10.961
93425SOL    HW282115   4.520  12.712  11.039
93426SOL     OW82116  10.871   8.080   4.025
93426SOL    HW182117  10.930   8.095   4.099
93426SOL    HW282118  10.856   8.168   3.988
93427SOL     OW82119   6.012   3.705   5.656
93427SOL    HW182120   5.968   3.624   5.681
93427SOL    HW282121   5.944   3.757   5.615
93428SOL     OW82122   0.337   6.522  12.790
93428SOL    HW182123   0.417   6.553  12.832
93428SOL    HW282124   0.315   6.442  12.838
93429SOL     OW82125   5.830  14.741   6.261
93429SOL    HW182126   5.923  14.725   6.246
93429SOL    HW282127   5.827  14.804   6.333
93430SOL     OW82128   7.714   7.680  13.596
93430SOL    HW182129   7.641   7.619  13.592
93430SOL    HW282130   7.683   7.751  13.652
93431SOL     OW82131   4.908   2.681   4.999
93431SOL    HW182132   4.847   2.660   5.070
93431SOL    HW282133   4.853   2.679   4.920
93432SOL     OW82134   7.089  13.655   4.400
93432SOL    HW182135   7.003  13.655   4.442
93432SOL    HW282136   7.099  13.744   4.366
93433SOL     OW82137  13.643  12.353   7.480
93433SOL    HW182138  13.693  12.417   7.429
93433SOL    HW282139  13.552  12.384   7.474
93434SOL     OW82140  14.772  12.514   3.728
93434SOL    HW182141  14.849  12.570   3.716
93434SOL    HW282142  14.699  12.574   3.735
93435SOL     OW82143  14.281   8.170   7.065
93435SOL    HW182144  14.312   8.258   7.045
93435SOL    HW282145  14.256   8.133   6.980
93436SOL     OW82146   5.803  14.860  10.471
93436SOL    HW182147   5.841  14.836  10.386
93436SOL    HW282148   5.722  14.811  10.476
93437SOL     OW82149  11.286   2.115   6.638
93437SOL    HW182150  11.284   2.135   6.544
93437SOL    HW282151  11.212   2.056   6.651
93438SOL     OW82152   8.586   4.679   7.452
93438SOL    HW182153   8.582   4.763   7.498
93438SOL    HW282154   8.604   4.615   7.521
93439SOL     OW82155   8.925   9.210   4.845
93439SOL    HW182156   8.861   9.249   4.905
93439SOL    HW282157   8.898   9.118   4.839
93440SOL     OW82158   2.019  10.664  11.544
93440SOL    HW182159   1.997  10.730  11.478
93440SOL    HW282160   2.111  10.645  11.529
93441SOL     OW82161   2.745   0.790   2.649
93441SOL    HW182162   2.665   0.827   2.612
93441SOL    HW282163   2.807   0.864   2.652
93442SOL     OW82164   9.999   2.063  12.397
93442SOL    HW182165  10.038   2.066  12.309
93442SOL    HW282166   9.913   2.025  12.383
93443SOL     OW82167   7.121   7.312   9.375
93443SOL    HW182168   7.152   7.298   9.465
93443SOL    HW282169   7.145   7.232   9.329
93444SOL     OW82170   1.873  12.936   2.172
93444SOL    HW182171   1.875  12.941   2.268
93444SOL    HW282172   1.801  12.994   2.147
93445SOL     OW82173   4.455  14.449   5.487
93445SOL    HW182174   4.399  14.374   5.470
93445SOL    HW282175   4.399  14.525   5.470
93446SOL     OW82176  11.717   4.540   3.557
93446SOL    HW182177  11.718   4.473   3.625
93446SOL    HW282178  11.791   4.518   3.501
93447SOL     OW82179   1.789   6.741   1.798
93447SOL    HW182180   1.816   6.787   1.718
93447SOL    HW282181   1.719   6.683   1.769
93448SOL     OW82182   2.423   8.376  10.554
93448SOL    HW182183   2.471   8.294  10.543
93448SOL    HW282184   2.351   8.371  10.491
93449SOL     OW82185  10.330  12.506  14.494
93449SOL    HW182186  10.280  12.587  14.484
93449SOL    HW282187  10.420  12.530  14.472
93450SOL     OW82188  10.197  14.170  10.909
93450SOL    HW182189  10.290  14.148  10.902
93450SOL    HW282190  10.196  14.253  10.956
93451SOL     OW82191  11.584  12.911   6.385
93451SOL    HW182192  11.624  12.955   6.460
93451SOL    HW282193  11.659  12.880   6.334
93452SOL     OW82194   9.751   1.353  13.574
93452SOL    HW182195   9.811   1.426  13.586
93452SOL    HW282196   9.666   1.387  13.602
93453SOL     OW82197   3.864   1.282   8.224
93453SOL    HW182198   3.871   1.187   8.231
93453SOL    HW282199   3.774   1.298   8.194
93454SOL     OW82200   0.423   2.955   0.187
93454SOL    HW182201   0.506   2.999   0.173
93454SOL    HW282202   0.360   3.026   0.199
93455SOL     OW82203   7.601   1.747   3.760
93455SOL    HW182204   7.539   1.820   3.758
93455SOL    HW282205   7.595   1.713   3.849
93456SOL     OW82206   2.906  10.300   4.015
93456SOL    HW182207   2.964  10.365   3.974
93456SOL    HW282208   2.942  10.288   4.103
93457SOL     OW82209  12.090   3.301   4.447
93457SOL    HW182210  12.011   3.247   4.453
93457SOL    HW282211  12.162   3.238   4.440
93458SOL     OW82212   6.550   1.992  10.805
93458SOL    HW182213   6.474   2.018  10.753
93458SOL    HW282214   6.593   2.074  10.828
93459SOL     OW82215  12.636   4.607  12.775
93459SOL    HW182216  12.630   4.668  12.848
93459SOL    HW282217  12.719   4.562  12.788
93460SOL     OW82218   2.069  12.405   7.271
93460SOL    HW182219   2.021  12.359   7.202
93460SOL    HW282220   2.116  12.475   7.224
93461SOL     OW82221  14.437   9.829   8.478
93461SOL    HW182222  14.366   9.805   8.539
93461SOL    HW282223  14.485   9.898   8.523
93462SOL     OW82224   4.168   5.164   5.631
93462SOL    HW182225   4.084   5.168   5.586
93462SOL    HW282226   4.213   5.244   5.604
93463SOL     OW82227   1.232  12.610   5.162
93463SOL    HW182228   1.233  12.706   5.162
93463SOL    HW282229   1.306  12.585   5.217
93464SOL     OW82230   7.359   1.363  10.189
93464SOL    HW182231   7.391   1.451  10.209
93464SOL    HW282232   7.352   1.320  10.275
93465SOL     OW82233   5.532   7.064   6.931
93465SOL    HW182234   5.526   6.981   6.883
93465SOL    HW282235   5.622   7.067   6.963
93466SOL     OW82236  14.185   1.254   8.097
93466SOL    HW182237  14.125   1.198   8.147
93466SOL    HW282238  14.145   1.260   8.011
93467SOL     OW82239  14.790   5.609   9.230
93467SOL    HW182240  14.849   5.647   9.165
93467SOL    HW282241  14.847   5.581   9.301
93468SOL     OW82242   1.554  11.903   2.513
93468SOL    HW182243   1.568  11.908   2.419
93468SOL    HW282244   1.459  11.892   2.523
93469SOL     OW82245   9.470   1.399  11.704
93469SOL    HW182246   9.451   1.466  11.639
93469SOL    HW282247   9.563   1.408  11.723
93470SOL     OW82248   2.611  13.480  12.449
93470SOL    HW182249   2.624  13.575  12.449
93470SOL    HW282250   2.697  13.444  12.427
93471SOL     OW82251   1.096  12.303  11.424
93471SOL    HW182252   1.053  12.359  11.488
93471SOL    HW282253   1.185  12.293  11.458
93472SOL     OW82254   6.168   7.269   8.356
93472SOL    HW182255   6.122   7.270   8.440
93472SOL    HW282256   6.245   7.324   8.370
93473SOL     OW82257   7.490   6.249   0.498
93473SOL    HW182258   7.584   6.235   0.487
93473SOL    HW282259   7.458   6.259   0.408
93474SOL     OW82260   8.397   5.637  13.066
93474SOL    HW182261   8.313   5.653  13.108
93474SOL    HW282262   8.404   5.541  13.063
93475SOL     OW82263   2.610   3.799  14.483
93475SOL    HW182264   2.657   3.735  14.537
93475SOL    HW282265   2.646   3.884  14.510
93476SOL     OW82266  11.842   7.286  11.041
93476SOL    HW182267  11.784   7.362  11.048
93476SOL    HW282268  11.795   7.216  11.086
93477SOL     OW82269   2.521   5.221   5.604
93477SOL    HW182270   2.450   5.174   5.560
93477SOL    HW282271   2.562   5.272   5.534
93478SOL     OW82272  13.375   0.514   1.942
93478SOL    HW182273  13.379   0.420   1.956
93478SOL    HW282274  13.369   0.524   1.847
93479SOL     OW82275  10.938   1.634   5.680
93479SOL    HW182276  11.030   1.613   5.697
93479SOL    HW282277  10.901   1.652   5.767
93480SOL     OW82278   8.539   3.264  14.425
93480SOL    HW182279   8.580   3.253  14.339
93480SOL    HW282280   8.478   3.337  14.412
93481SOL     OW82281  11.835  14.770  10.782
93481SOL    HW182282  11.808  14.839  10.722
93481SOL    HW282283  11.841  14.813  10.867
93482SOL     OW82284   5.543   8.123  13.182
93482SOL    HW182285   5.607   8.098  13.115
93482SOL    HW282286   5.520   8.041  13.225
93483SOL     OW82287   3.180   0.881   6.445
93483SOL    HW182288   3.102   0.911   6.397
93483SOL    HW282289   3.146   0.856   6.531
93484SOL     OW82290   8.897   8.894  13.424
93484SOL    HW182291   8.920   8.853  13.508
93484SOL    HW282292   8.917   8.987  13.437
93485SOL     OW82293  12.462  14.257   3.856
93485SOL    HW182294  12.435  14.343   3.886
93485SOL    HW282295  12.379  14.210   3.842
93486SOL     OW82296  11.713  11.773  11.104
93486SOL    HW182297  11.808  11.766  11.105
93486SOL    HW282298  11.693  11.817  11.021
93487SOL     OW82299   7.210   1.899  11.598
93487SOL    HW182300   7.133   1.844  11.612
93487SOL    HW282301   7.284   1.840  11.613
93488SOL     OW82302   5.748  11.218  11.261
93488SOL    HW182303   5.817  11.179  11.315
93488SOL    HW282304   5.767  11.312  11.262
93489SOL     OW82305   3.789   6.703   2.488
93489SOL    HW182306   3.848   6.735   2.556
93489SOL    HW282307   3.847   6.675   2.417
93490SOL     OW82308   4.137   2.704  13.054
93490SOL    HW182309   4.060   2.651  13.034
93490SOL    HW282310   4.210   2.643  13.050
93491SOL     OW82311  10.731  12.212  13.365
93491SOL    HW182312  10.771  12.125  13.363
93491SOL    HW282313  10.690  12.221  13.280
93492SOL     OW82314  13.473   9.636  12.672
93492SOL    HW182315  13.558   9.594  12.681
93492SOL    HW282316  13.421   9.602  12.745
93493SOL     OW82317   2.097  12.081  14.053
93493SOL    HW182318   2.106  12.164  14.007
93493SOL    HW282319   2.063  12.021  13.987
93494SOL     OW82320   3.378   8.839   4.292
93494SOL    HW182321   3.330   8.827   4.374
93494SOL    HW282322   3.399   8.750   4.263
93495SOL     OW82323   8.314  13.016   8.761
93495SOL    HW182324   8.246  13.083   8.750
93495SOL    HW282325   8.297  12.952   8.693
93496SOL     OW82326   5.597  11.261   0.873
93496SOL    HW182327   5.568  11.322   0.940
93496SOL    HW282328   5.516  11.226   0.835
93497SOL     OW82329   3.974  11.070   3.419
93497SOL    HW182330   4.060  11.057   3.378
93497SOL    HW282331   3.919  11.000   3.383
93498SOL     OW82332   5.852   0.099   4.014
93498SOL    HW182333   5.916   0.079   3.946
93498SOL    HW282334   5.878   0.185   4.047
93499SOL     OW82335   7.147   8.963   0.020
93499SOL    HW182336   7.145   8.999   0.109
93499SOL    HW282337   7.154   8.868   0.033
93500SOL     OW82338   9.117  12.934   4.719
93500SOL    HW182339   9.085  12.907   4.805
93500SOL    HW282340   9.096  13.027   4.714
93501SOL     OW82341   6.965   5.400  12.178
93501SOL    HW182342   7.048   5.375  12.217
93501SOL    HW282343   6.920   5.317  12.162
93502SOL     OW82344   1.065  10.919  10.304
93502SOL    HW182345   0.979  10.894  10.338
93502SOL    HW282346   1.095  10.843  10.254
93503SOL     OW82347   2.147   3.369   6.273
93503SOL    HW182348   2.174   3.373   6.365
93503SOL    HW282349   2.111   3.456   6.255
93504SOL     OW82350   7.950  14.206   5.698
93504SOL    HW182351   7.929  14.219   5.790
93504SOL    HW282352   7.868  14.222   5.651
93505SOL     OW82353   6.975   2.195   3.191
93505SOL    HW182354   6.917   2.135   3.238
93505SOL    HW282355   7.028   2.235   3.259
93506SOL     OW82356   1.428   2.442  10.151
93506SOL    HW182357   1.447   2.451  10.245
93506SOL    HW282358   1.389   2.526  10.127
93507SOL     OW82359   8.953   5.652   3.813
93507SOL    HW182360   9.023   5.592   3.787
93507SOL    HW282361   8.888   5.595   3.856
93508SOL     OW82362   3.423   9.299  13.606
93508SOL    HW182363   3.358   9.349  13.656
93508SOL    HW282364   3.419   9.211  13.643
93509SOL     OW82365  10.615  11.967   1.329
93509SOL    HW182366  10.564  12.036   1.373
93509SOL    HW282367  10.678  11.938   1.394
93510SOL     OW82368   9.133   9.699  12.216
93510SOL    HW182369   9.169   9.747  12.141
93510SOL    HW282370   9.202   9.705  12.283
93511SOL     OW82371   4.871  12.252   1.496
93511SOL    HW182372   4.857  12.233   1.589
93511SOL    HW282373   4.966  12.240   1.483
93512SOL     OW82374  13.876   0.961  13.688
93512SOL    HW182375  13.849   1.029  13.750
93512SOL    HW282376  13.904   1.009  13.610
93513SOL     OW82377  11.234  10.329   7.994
93513SOL    HW182378  11.259  10.271   8.066
93513SOL    HW282379  11.317  10.363   7.961
93514SOL     OW82380   8.611   0.608  10.921
93514SOL    HW182381   8.695   0.653  10.922
93514SOL    HW282382   8.633   0.515  10.930
93515SOL     OW82383   1.815   1.323  11.850
93515SOL    HW182384   1.869   1.250  11.819
93515SOL    HW282385   1.734   1.282  11.880
93516SOL     OW82386   6.517  13.134   2.939
93516SOL    HW182387   6.526  13.206   3.002
93516SOL    HW282388   6.425  13.137   2.913
93517SOL     OW82389   0.027   3.163   5.555
93517SOL    HW182390  14.860   3.245   5.534
93517SOL    HW282391  14.859   3.128   5.631
93518SOL     OW82392  11.171   4.807  12.778
93518SOL    HW182393  11.125   4.727  12.752
93518SOL    HW282394  11.203   4.844  12.696
93519SOL     OW82395  12.936  13.266   5.259
93519SOL    HW182396  12.975  13.293   5.342
93519SOL    HW282397  13.007  13.222   5.213
93520SOL     OW82398  14.337   8.066   1.738
93520SOL    HW182399  14.285   8.011   1.679
93520SOL    HW282400  14.375   8.006   1.801
93521SOL     OW82401   4.758   0.115   5.132
93521SOL    HW182402   4.795   0.031   5.107
93521SOL    HW282403   4.787   0.175   5.064
93522SOL     OW82404  11.416  10.108  14.272
93522SOL    HW182405  11.426  10.045  14.344
93522SOL    HW282406  11.502  10.109  14.229
93523SOL     OW82407   4.176  14.597   9.673
93523SOL    HW182408   4.153  14.537   9.602
93523SOL    HW282409   4.206  14.540   9.744
93524SOL     OW82410   8.169   8.354  12.179
93524SOL    HW182411   8.136   8.429  12.229
93524SOL    HW282412   8.150   8.377  12.087
93525SOL     OW82413   6.323  10.818   6.790
93525SOL    HW182414   6.320  10.745   6.727
93525SOL    HW282415   6.352  10.778   6.872
93526SOL     OW82416  12.895   1.869   3.207
93526SOL    HW182417  12.819   1.927   3.213
93526SOL    HW282418  12.964   1.915   3.255
93527SOL     OW82419   2.185   9.299  14.552
93527SOL    HW182420   2.250   9.234  14.579
93527SOL    HW282421   2.207   9.320  14.462
93528SOL     OW82422   2.435   8.463  13.714
93528SOL    HW182423   2.414   8.370  13.714
93528SOL    HW282424   2.519   8.468  13.668
93529SOL     OW82425   2.606   9.430  14.867
93529SOL    HW182426   2.671   9.375   0.030
93529SOL    HW282427   2.579   9.492   0.055
93530SOL     OW82428  13.515  10.935   9.171
93530SOL    HW182429  13.480  10.925   9.083
93530SOL    HW282430  13.449  10.897   9.228
93531SOL     OW82431   9.226   8.598   7.385
93531SOL    HW182432   9.174   8.525   7.350
93531SOL    HW282433   9.178   8.677   7.359
93532SOL     OW82434   5.155   4.257   5.603
93532SOL    HW182435   5.078   4.299   5.642
93532SOL    HW282436   5.191   4.203   5.674
93533SOL     OW82437   2.989  11.504   6.011
93533SOL    HW182438   2.921  11.561   6.046
93533SOL    HW282439   3.059  11.565   5.984
93534SOL     OW82440   4.363   2.243   1.321
93534SOL    HW182441   4.295   2.288   1.371
93534SOL    HW282442   4.369   2.156   1.362
93535SOL     OW82443  13.238   0.871   0.758
93535SOL    HW182444  13.304   0.931   0.724
93535SOL    HW282445  13.288   0.797   0.791
93536SOL     OW82446   7.554   4.197  13.442
93536SOL    HW182447   7.525   4.207  13.533
93536SOL    HW282448   7.559   4.286  13.408
93537SOL     OW82449   7.509  10.591  14.399
93537SOL    HW182450   7.588  10.541  14.379
93537SOL    HW282451   7.518  10.615  14.492
93538SOL     OW82452   4.088  14.796   3.737
93538SOL    HW182453   4.159  14.770   3.680
93538SOL    HW282454   4.012  14.806   3.679
93539SOL     OW82455   9.501   8.186  14.283
93539SOL    HW182456   9.563   8.226  14.345
93539SOL    HW282457   9.443   8.134  14.338
93540SOL     OW82458   3.597   2.033  12.326
93540SOL    HW182459   3.510   2.057  12.356
93540SOL    HW282460   3.619   1.954  12.376
93541SOL     OW82461   7.582   7.396   7.054
93541SOL    HW182462   7.566   7.316   7.005
93541SOL    HW282463   7.633   7.368   7.130
93542SOL     OW82464   9.700   2.508   3.568
93542SOL    HW182465   9.716   2.487   3.660
93542SOL    HW282466   9.689   2.423   3.525
93543SOL     OW82467   9.780   6.296   2.563
93543SOL    HW182468   9.774   6.201   2.566
93543SOL    HW282469   9.871   6.314   2.539
93544SOL     OW82470   6.835   7.117  11.322
93544SOL    HW182471   6.818   7.185  11.258
93544SOL    HW282472   6.794   7.149  11.403
93545SOL     OW82473   8.840   4.196   1.924
93545SOL    HW182474   8.864   4.108   1.955
93545SOL    HW282475   8.817   4.184   1.832
93546SOL     OW82476   1.447   2.400   6.670
93546SOL    HW182477   1.486   2.461   6.733
93546SOL    HW282478   1.369   2.446   6.637
93547SOL     OW82479   9.782  13.813   6.293
93547SOL    HW182480   9.731  13.879   6.245
93547SOL    HW282481   9.845  13.780   6.229
93548SOL     OW82482   3.124   3.175   2.361
93548SOL    HW182483   3.047   3.230   2.350
93548SOL    HW282484   3.098   3.107   2.423
93549SOL     OW82485   3.028   0.794   8.161
93549SOL    HW182486   2.982   0.873   8.132
93549SOL    HW282487   3.006   0.728   8.096
93550SOL     OW82488  12.565   7.037  11.140
93550SOL    HW182489  12.532   7.002  11.057
93550SOL    HW282490  12.651   7.071  11.119
93551SOL     OW82491   6.257  14.501   9.042
93551SOL    HW182492   6.175  14.548   9.029
93551SOL    HW282493   6.245  14.453   9.124
93552SOL     OW82494   0.744   5.047  13.423
93552SOL    HW182495   0.815   5.026  13.362
93552SOL    HW282496   0.788   5.058  13.507
93553SOL     OW82497   3.782   9.366   4.118
93553SOL    HW182498   3.759   9.287   4.167
93553SOL    HW282499   3.708   9.425   4.130
93554SOL     OW82500  14.768  10.706   3.278
93554SOL    HW182501  14.854  10.743   3.294
93554SOL    HW282502  14.778  10.656   3.197
93555SOL     OW82503   4.074   9.315   4.539
93555SOL    HW182504   4.045   9.332   4.449
93555SOL    HW282505   4.134   9.386   4.559
93556SOL     OW82506  10.239  10.470   9.646
93556SOL    HW182507  10.224  10.493   9.555
93556SOL    HW282508  10.158  10.426   9.674
93557SOL     OW82509  11.094   2.146  13.847
93557SOL    HW182510  11.069   2.233  13.815
93557SOL    HW282511  11.188   2.152  13.862
93558SOL     OW82512  10.220  14.170  12.675
93558SOL    HW182513  10.138  14.171  12.624
93558SOL    HW282514  10.224  14.082  12.711
93559SOL     OW82515  14.616   4.852  14.173
93559SOL    HW182516  14.634   4.897  14.256
93559SOL    HW282517  14.694   4.869  14.120
93560SOL     OW82518   9.039  14.246   2.058
93560SOL    HW182519   8.947  14.269   2.046
93560SOL    HW282520   9.055  14.262   2.151
93561SOL     OW82521  13.138   3.467   1.803
93561SOL    HW182522  13.101   3.554   1.788
93561SOL    HW282523  13.168   3.438   1.717
93562SOL     OW82524  14.478   6.228   3.858
93562SOL    HW182525  14.542   6.250   3.925
93562SOL    HW282526  14.516   6.261   3.777
93563SOL     OW82527  10.154  11.265   2.958
93563SOL    HW182528  10.077  11.237   2.909
93563SOL    HW282529  10.226  11.259   2.895
93564SOL     OW82530   3.103   5.502   7.856
93564SOL    HW182531   3.116   5.486   7.762
93564SOL    HW282532   3.169   5.448   7.899
93565SOL     OW82533  11.578  12.738   2.045
93565SOL    HW182534  11.560  12.800   1.973
93565SOL    HW282535  11.524  12.662   2.024
93566SOL     OW82536   1.775   9.432   8.539
93566SOL    HW182537   1.838   9.486   8.492
93566SOL    HW282538   1.742   9.370   8.474
93567SOL     OW82539   2.803  13.741   7.683
93567SOL    HW182540   2.749  13.809   7.723
93567SOL    HW282541   2.798  13.667   7.744
93568SOL     OW82542   5.875   3.395  11.925
93568SOL    HW182543   5.947   3.348  11.966
93568SOL    HW282544   5.810   3.405  11.995
93569SOL     OW82545   6.764   1.260   1.741
93569SOL    HW182546   6.708   1.217   1.805
93569SOL    HW282547   6.806   1.188   1.694
93570SOL     OW82548   6.069   5.102   3.149
93570SOL    HW182549   6.101   5.058   3.228
93570SOL    HW282550   5.977   5.078   3.143
93571SOL     OW82551   7.611  11.466   7.402
93571SOL    HW182552   7.551  11.393   7.384
93571SOL    HW282553   7.574  11.539   7.352
93572SOL     OW82554   1.324  12.011  11.077
93572SOL    HW182555   1.412  12.035  11.049
93572SOL    HW282556   1.284  12.092  11.106
93573SOL     OW82557   8.356   3.462   3.135
93573SOL    HW182558   8.406   3.426   3.209
93573SOL    HW282559   8.405   3.540   3.109
93574SOL     OW82560   7.527  10.004  14.732
93574SOL    HW182561   7.450   9.950  14.750
93574SOL    HW282562   7.593   9.941  14.701
93575SOL     OW82563  14.668   7.116  11.795
93575SOL    HW182564  14.587   7.156  11.826
93575SOL    HW282565  14.714   7.089  11.875
93576SOL     OW82566  14.837   5.515   7.000
93576SOL    HW182567  14.819   5.474   6.916
93576SOL    HW282568  14.803   5.604   6.991
93577SOL     OW82569   6.797   2.857  13.717
93577SOL    HW182570   6.808   2.797  13.643
93577SOL    HW282571   6.760   2.802  13.787
93578SOL     OW82572   7.143   4.736  11.947
93578SOL    HW182573   7.142   4.686  11.866
93578SOL    HW282574   7.050   4.752  11.967
93579SOL     OW82575   8.488   5.453   1.415
93579SOL    HW182576   8.513   5.527   1.358
93579SOL    HW282577   8.396   5.468   1.435
93580SOL     OW82578   6.957   8.292   9.344
93580SOL    HW182579   7.016   8.224   9.312
93580SOL    HW282580   7.003   8.330   9.419
93581SOL     OW82581  13.929   7.717  11.023
93581SOL    HW182582  14.016   7.676  11.013
93581SOL    HW282583  13.915   7.764  10.941
93582SOL     OW82584  13.344   4.227   9.077
93582SOL    HW182585  13.407   4.285   9.118
93582SOL    HW282586  13.346   4.250   8.984
93583SOL     OW82587   8.176  13.776   4.404
93583SOL    HW182588   8.263  13.790   4.442
93583SOL    HW282589   8.193  13.751   4.314
93584SOL     OW82590  10.575   9.509   9.358
93584SOL    HW182591  10.545   9.434   9.306
93584SOL    HW282592  10.587   9.579   9.293
93585SOL     OW82593   9.880   0.880   2.690
93585SOL    HW182594   9.796   0.845   2.661
93585SOL    HW282595   9.918   0.811   2.745
93586SOL     OW82596   7.531   5.764  13.400
93586SOL    HW182597   7.471   5.834  13.427
93586SOL    HW282598   7.477   5.708  13.343
93587SOL     OW82599  14.758   2.520   4.848
93587SOL    HW182600  14.842   2.484   4.819
93587SOL    HW282601  14.731   2.579   4.778
93588SOL     OW82602   8.121  10.746   3.213
93588SOL    HW182603   8.122  10.842   3.215
93588SOL    HW282604   8.209  10.720   3.238
93589SOL     OW82605  10.242   8.038  10.473
93589SOL    HW182606  10.291   7.957  10.481
93589SOL    HW282607  10.277   8.095  10.542
93590SOL     OW82608  14.817  10.731   1.423
93590SOL    HW182609  14.805  10.636   1.417
93590SOL    HW282610  14.844  10.745   1.514
93591SOL     OW82611   1.391   6.686   8.896
93591SOL    HW182612   1.320   6.629   8.926
93591SOL    HW282613   1.349   6.768   8.872
93592SOL     OW82614   5.323  13.886  11.464
93592SOL    HW182615   5.288  13.972  11.442
93592SOL    HW282616   5.268  13.824  11.415
93593SOL     OW82617   1.657  13.810   6.784
93593SOL    HW182618   1.577  13.807   6.836
93593SOL    HW282619   1.671  13.720   6.755
93594SOL     OW82620   5.729  11.775  10.800
93594SOL    HW182621   5.706  11.852  10.851
93594SOL    HW282622   5.740  11.705  10.865
93595SOL     OW82623   2.662   4.952   0.387
93595SOL    HW182624   2.738   4.963   0.328
93595SOL    HW282625   2.651   4.858   0.394
93596SOL     OW82626   7.610  10.755   1.899
93596SOL    HW182627   7.517  10.768   1.880
93596SOL    HW282628   7.611  10.682   1.962
93597SOL     OW82629   8.524   2.745  11.601
93597SOL    HW182630   8.471   2.740  11.521
93597SOL    HW282631   8.610   2.775  11.570
93598SOL     OW82632  13.976   4.960  10.433
93598SOL    HW182633  13.999   5.053  10.438
93598SOL    HW282634  14.040   4.922  10.373
93599SOL     OW82635  10.080   8.334   3.912
93599SOL    HW182636  10.085   8.276   3.987
93599SOL    HW282637  10.030   8.410   3.943
93600SOL     OW82638   7.612   6.172  11.508
93600SOL    HW182639   7.706   6.164  11.489
93600SOL    HW282640   7.570   6.112  11.446
93601SOL     OW82641   5.390  13.182   8.296
93601SOL    HW182642   5.363  13.166   8.206
93601SOL    HW282643   5.330  13.130   8.349
93602SOL     OW82644  13.848   1.454   1.311
93602SOL    HW182645  13.863   1.518   1.380
93602SOL    HW282646  13.876   1.499   1.231
93603SOL     OW82647   5.896  12.554  11.239
93603SOL    HW182648   5.900  12.464  11.272
93603SOL    HW282649   5.956  12.556  11.165
93604SOL     OW82650   3.848   1.445  12.928
93604SOL    HW182651   3.917   1.500  12.965
93604SOL    HW282652   3.792   1.424  13.003
93605SOL     OW82653   5.455   9.427   3.132
93605SOL    HW182654   5.492   9.400   3.216
93605SOL    HW282655   5.520   9.400   3.067
93606SOL     OW82656  14.329  12.671   3.565
93606SOL    HW182657  14.251  12.708   3.523
93606SOL    HW282658  14.318  12.576   3.555
93607SOL     OW82659   1.701  10.443  13.756
93607SOL    HW182660   1.673  10.370  13.810
93607SOL    HW282661   1.772  10.408  13.702
93608SOL     OW82662   5.387   6.363   2.558
93608SOL    HW182663   5.426   6.291   2.508
93608SOL    HW282664   5.389   6.334   2.649
93609SOL     OW82665   2.873   7.712   8.596
93609SOL    HW182666   2.902   7.678   8.512
93609SOL    HW282667   2.779   7.695   8.598
93610SOL     OW82668   9.874  13.815   9.961
93610SOL    HW182669   9.846  13.782  10.046
93610SOL    HW282670   9.812  13.777   9.899
93611SOL     OW82671   1.267  12.991  10.004
93611SOL    HW182672   1.177  12.967  10.025
93611SOL    HW282673   1.318  12.962  10.080
93612SOL     OW82674  14.368   2.326   2.613
93612SOL    HW182675  14.278   2.357   2.602
93612SOL    HW282676  14.422   2.395   2.575
93613SOL     OW82677   1.130   9.007   1.088
93613SOL    HW182678   1.127   8.912   1.075
93613SOL    HW282679   1.161   9.018   1.178
93614SOL     OW82680  14.495   1.053   3.024
93614SOL    HW182681  14.585   1.035   3.048
93614SOL    HW282682  14.462   0.970   2.989
93615SOL     OW82683   1.077   2.338  13.258
93615SOL    HW182684   1.157   2.374  13.298
93615SOL    HW282685   1.066   2.252  13.300
93616SOL     OW82686   2.922   2.745  14.680
93616SOL    HW182687   2.935   2.791  14.597
93616SOL    HW282688   3.007   2.751  14.724
93617SOL     OW82689   0.779  13.418  10.098
93617SOL    HW182690   0.862  13.404  10.143
93617SOL    HW282691   0.715  13.429  10.169
93618SOL     OW82692  11.634   4.073   6.250
93618SOL    HW182693  11.715   4.051   6.204
93618SOL    HW282694  11.652   4.158   6.291
93619SOL     OW82695   0.694   1.827   2.579
93619SOL    HW182696   0.599   1.836   2.577
93619SOL    HW282697   0.712   1.748   2.528
93620SOL     OW82698   3.649   7.430   9.015
93620SOL    HW182699   3.724   7.483   9.042
93620SOL    HW282700   3.577   7.493   9.007
93621SOL     OW82701  10.291   1.834   7.610
93621SOL    HW182702  10.306   1.754   7.661
93621SOL    HW282703  10.249   1.804   7.530
93622SOL     OW82704   6.273   1.681   4.336
93622SOL    HW182705   6.232   1.646   4.416
93622SOL    HW282706   6.318   1.760   4.365
93623SOL     OW82707  14.665   7.665   0.080
93623SOL    HW182708  14.719   7.718   0.022
93623SOL    HW282709  14.626   7.728   0.141
93624SOL     OW82710  10.577   8.160   9.706
93624SOL    HW182711  10.546   8.105   9.634
93624SOL    HW282712  10.672   8.161   9.696
93625SOL     OW82713  10.961   4.060  13.079
93625SOL    HW182714  10.911   3.994  13.030
93625SOL    HW282715  10.925   4.144  13.050
93626SOL     OW82716   3.573   8.982   7.196
93626SOL    HW182717   3.560   9.071   7.165
93626SOL    HW282718   3.646   8.989   7.258
93627SOL     OW82719   7.031  13.900   0.597
93627SOL    HW182720   7.027  13.856   0.682
93627SOL    HW282721   7.123  13.894   0.571
93628SOL     OW82722   3.316   7.301   1.254
93628SOL    HW182723   3.307   7.397   1.251
93628SOL    HW282724   3.395   7.283   1.203
93629SOL     OW82725  12.280   1.627   3.589
93629SOL    HW182726  12.313   1.714   3.609
93629SOL    HW282727  12.358   1.572   3.583
93630SOL     OW82728   2.481   2.488   7.691
93630SOL    HW182729   2.567   2.481   7.651
93630SOL    HW282730   2.454   2.579   7.675
93631SOL     OW82731  12.731  12.021  12.680
93631SOL    HW182732  12.810  12.024  12.627
93631SOL    HW282733  12.731  11.934  12.719
93632SOL     OW82734   0.257   5.974   0.070
93632SOL    HW182735   0.231   5.885   0.047
93632SOL    HW282736   0.299   5.966   0.155
93633SOL     OW82737   3.800   4.919  10.828
93633SOL    HW182738   3.754   4.999  10.803
93633SOL    HW282739   3.732   4.864  10.867
93634SOL     OW82740   7.270   0.274   0.128
93634SOL    HW182741   7.225   0.358   0.123
93634SOL    HW282742   7.234   0.223   0.056
93635SOL     OW82743   7.320   2.388   8.471
93635SOL    HW182744   7.246   2.385   8.531
93635SOL    HW282745   7.312   2.308   8.418
93636SOL     OW82746   1.396  12.999  10.756
93636SOL    HW182747   1.317  13.028  10.801
93636SOL    HW282748   1.365  12.932  10.695
93637SOL     OW82749   4.591   1.276   5.936
93637SOL    HW182750   4.674   1.230   5.947
93637SOL    HW282751   4.610   1.345   5.873
93638SOL     OW82752   1.469   2.046  11.428
93638SOL    HW182753   1.435   2.128  11.393
93638SOL    HW282754   1.393   2.006  11.472
93639SOL     OW82755   8.249  10.249   1.552
93639SOL    HW182756   8.195  10.302   1.611
93639SOL    HW282757   8.228  10.282   1.465
93640SOL     OW82758  10.554   1.929  14.691
93640SOL    HW182759  10.516   2.017  14.689
93640SOL    HW282760  10.484   1.874  14.726
93641SOL     OW82761  14.423  10.080  12.060
93641SOL    HW182762  14.373  10.140  12.116
93641SOL    HW282763  14.515  10.098  12.084
93642SOL     OW82764   3.492   4.187   1.025
93642SOL    HW182765   3.397   4.180   1.021
93642SOL    HW282766   3.519   4.115   1.082
93643SOL     OW82767  13.094   4.282   1.541
93643SOL    HW182768  13.121   4.373   1.553
93643SOL    HW282769  13.136   4.235   1.613
93644SOL     OW82770   7.817   9.596   7.933
93644SOL    HW182771   7.877   9.602   7.858
93644SOL    HW282772   7.870   9.624   8.008
93645SOL     OW82773   3.150   6.185  14.665
93645SOL    HW182774   3.181   6.258  14.719
93645SOL    HW282775   3.167   6.214  14.575
93646SOL     OW82776  13.042   3.402   6.548
93646SOL    HW182777  13.104   3.333   6.526
93646SOL    HW282778  12.966   3.386   6.492
93647SOL     OW82779   4.600  14.310   0.455
93647SOL    HW182780   4.522  14.363   0.472
93647SOL    HW282781   4.575  14.221   0.481
93648SOL     OW82782  11.630  14.175  12.426
93648SOL    HW182783  11.546  14.134  12.446
93648SOL    HW282784  11.630  14.256  12.478
93649SOL     OW82785   3.665  12.114   5.748
93649SOL    HW182786   3.747  12.101   5.794
93649SOL    HW282787   3.685  12.098   5.656
93650SOL     OW82788   1.063   1.188   7.919
93650SOL    HW182789   1.019   1.273   7.921
93650SOL    HW282790   1.128   1.196   7.848
93651SOL     OW82791   9.496   9.220  11.809
93651SOL    HW182792   9.433   9.194  11.876
93651SOL    HW282793   9.498   9.315  11.813
93652SOL     OW82794   9.776   6.344   2.200
93652SOL    HW182795   9.824   6.383   2.274
93652SOL    HW282796   9.827   6.367   2.123
93653SOL     OW82797   6.846  12.034   3.885
93653SOL    HW182798   6.929  12.074   3.858
93653SOL    HW282799   6.872  11.958   3.937
93654SOL     OW82800  14.141  10.928   1.264
93654SOL    HW182801  14.107  11.016   1.282
93654SOL    HW282802  14.146  10.924   1.168
93655SOL     OW82803  11.793   3.761   2.199
93655SOL    HW182804  11.821   3.729   2.114
93655SOL    HW282805  11.698   3.768   2.191
93656SOL     OW82806  12.409   9.157   6.622
93656SOL    HW182807  12.355   9.099   6.569
93656SOL    HW282808  12.499   9.138   6.595
93657SOL     OW82809   9.704   2.111   7.048
93657SOL    HW182810   9.704   2.120   7.143
93657SOL    HW282811   9.791   2.143   7.021
93658SOL     OW82812  14.410   6.867  11.390
93658SOL    HW182813  14.323   6.873  11.429
93658SOL    HW282814  14.408   6.784  11.342
93659SOL     OW82815   7.471   7.181   2.046
93659SOL    HW182816   7.384   7.207   2.076
93659SOL    HW282817   7.524   7.259   2.057
93660SOL     OW82818   9.979   5.924   7.900
93660SOL    HW182819   9.969   5.941   7.806
93660SOL    HW282820  10.057   5.973   7.925
93661SOL     OW82821   8.372   8.803   8.607
93661SOL    HW182822   8.356   8.794   8.513
93661SOL    HW282823   8.451   8.857   8.612
93662SOL     OW82824   1.611  13.594   4.857
93662SOL    HW182825   1.677  13.664   4.853
93662SOL    HW282826   1.530  13.637   4.826
93663SOL     OW82827   9.014   7.234   9.185
93663SOL    HW182828   8.961   7.155   9.191
93663SOL    HW282829   8.954   7.301   9.151
93664SOL     OW82830  12.322   9.054   5.714
93664SOL    HW182831  12.379   9.124   5.683
93664SOL    HW282832  12.236   9.094   5.722
93665SOL     OW82833   0.910   0.331  13.147
93665SOL    HW182834   0.839   0.361  13.203
93665SOL    HW282835   0.989   0.365  13.189
93666SOL     OW82836  10.311   2.355   3.507
93666SOL    HW182837  10.404   2.377   3.511
93666SOL    HW282838  10.296   2.297   3.581
93667SOL     OW82839  14.077   4.378   6.437
93667SOL    HW182840  14.172   4.366   6.437
93667SOL    HW282841  14.055   4.400   6.346
93668SOL     OW82842  11.083   1.212  13.132
93668SOL    HW182843  11.094   1.307  13.128
93668SOL    HW282844  10.999   1.200  13.176
93669SOL     OW82845   5.795   7.090  10.820
93669SOL    HW182846   5.844   7.077  10.902
93669SOL    HW282847   5.756   7.177  10.830
93670SOL     OW82848   2.300   4.519  12.379
93670SOL    HW182849   2.225   4.558  12.334
93670SOL    HW282850   2.261   4.453  12.436
93671SOL     OW82851   5.140   4.603   1.187
93671SOL    HW182852   5.088   4.682   1.172
93671SOL    HW282853   5.176   4.614   1.275
93672SOL     OW82854   5.176   4.134   3.734
93672SOL    HW182855   5.131   4.108   3.815
93672SOL    HW282856   5.126   4.209   3.703
93673SOL     OW82857  12.936   5.122   1.035
93673SOL    HW182858  12.964   5.148   0.947
93673SOL    HW282859  12.843   5.102   1.024
93674SOL     OW82860  13.987   8.683   6.785
93674SOL    HW182861  13.924   8.742   6.744
93674SOL    HW282862  13.945   8.655   6.866
93675SOL     OW82863   1.198  14.004   2.910
93675SOL    HW182864   1.109  13.971   2.906
93675SOL    HW282865   1.193  14.092   2.873
93676SOL     OW82866  14.662   6.376   9.614
93676SOL    HW182867  14.644   6.329   9.533
93676SOL    HW282868  14.723   6.445   9.589
93677SOL     OW82869   6.060   0.881   1.660
93677SOL    HW182870   5.965   0.878   1.670
93677SOL    HW282871   6.094   0.864   1.748
93678SOL     OW82872   0.809  10.740   0.356
93678SOL    HW182873   0.877  10.696   0.304
93678SOL    HW282874   0.768  10.801   0.294
93679SOL     OW82875  12.086   8.105   6.207
93679SOL    HW182876  12.078   8.015   6.175
93679SOL    HW282877  11.998   8.141   6.199
93680SOL     OW82878   6.474   0.641   2.028
93680SOL    HW182879   6.551   0.604   2.072
93680SOL    HW282880   6.444   0.711   2.086
93681SOL     OW82881  10.888   2.552   4.449
93681SOL    HW182882  10.905   2.531   4.540
93681SOL    HW282883  10.836   2.633   4.452
93682SOL     OW82884  12.510   1.972  12.006
93682SOL    HW182885  12.448   1.900  12.020
93682SOL    HW282886  12.495   2.000  11.916
93683SOL     OW82887  11.445   6.732  10.187
93683SOL    HW182888  11.527   6.685  10.171
93683SOL    HW282889  11.447   6.805  10.125
93684SOL     OW82890   1.141  11.992   2.711
93684SOL    HW182891   1.147  12.040   2.793
93684SOL    HW282892   1.088  11.915   2.731
93685SOL     OW82893   6.358  11.356  10.725
93685SOL    HW182894   6.303  11.279  10.737
93685SOL    HW282895   6.306  11.415  10.670
93686SOL     OW82896   1.819   4.343   4.943
93686SOL    HW182897   1.833   4.259   4.898
93686SOL    HW282898   1.832   4.322   5.036
93687SOL     OW82899   8.024   7.290   4.433
93687SOL    HW182900   8.077   7.302   4.512
93687SOL    HW282901   8.059   7.353   4.370
93688SOL     OW82902   6.940   9.595   3.613
93688SOL    HW182903   6.938   9.551   3.529
93688SOL    HW282904   7.031   9.621   3.624
93689SOL     OW82905   3.449   3.103  11.584
93689SOL    HW182906   3.537   3.127  11.557
93689SOL    HW282907   3.440   3.011  11.560
93690SOL     OW82908   3.664   3.135   8.416
93690SOL    HW182909   3.732   3.202   8.421
93690SOL    HW282910   3.584   3.179   8.446
93691SOL     OW82911   8.267   1.362   2.778
93691SOL    HW182912   8.249   1.303   2.704
93691SOL    HW282913   8.204   1.337   2.845
93692SOL     OW82914   1.252  12.193   0.398
93692SOL    HW182915   1.157  12.183   0.402
93692SOL    HW282916   1.269  12.215   0.306
93693SOL     OW82917  10.667  14.581   3.635
93693SOL    HW182918  10.647  14.499   3.590
93693SOL    HW282919  10.637  14.568   3.725
93694SOL     OW82920  14.329   8.169   4.465
93694SOL    HW182921  14.400   8.124   4.420
93694SOL    HW282922  14.270   8.099   4.493
93695SOL     OW82923  14.716  10.966   7.406
93695SOL    HW182924  14.698  10.882   7.447
93695SOL    HW282925  14.675  10.961   7.320
93696SOL     OW82926  13.791  11.877   5.042
93696SOL    HW182927  13.859  11.923   5.092
93696SOL    HW282928  13.816  11.889   4.951
93697SOL     OW82929   8.745   7.496   0.190
93697SOL    HW182930   8.771   7.416   0.237
93697SOL    HW282931   8.788   7.489   0.105
93698SOL     OW82932   9.918   1.206   3.670
93698SOL    HW182933   9.856   1.265   3.714
93698SOL    HW282934   9.973   1.265   3.618
93699SOL     OW82935   4.561  11.721   2.650
93699SOL    HW182936   4.607  11.655   2.598
93699SOL    HW282937   4.476  11.681   2.670
93700SOL     OW82938   3.875  12.913   6.907
93700SOL    HW182939   3.950  12.970   6.922
93700SOL    HW282940   3.799  12.971   6.910
93701SOL     OW82941   1.838  10.856   0.635
93701SOL    HW182942   1.766  10.916   0.654
93701SOL    HW282943   1.857  10.871   0.542
93702SOL     OW82944   4.983  11.756   8.791
93702SOL    HW182945   4.964  11.839   8.747
93702SOL    HW282946   4.933  11.691   8.742
93703SOL     OW82947   0.740  10.787   5.822
93703SOL    HW182948   0.833  10.792   5.844
93703SOL    HW282949   0.703  10.730   5.889
93704SOL     OW82950   4.249   7.480   7.194
93704SOL    HW182951   4.286   7.432   7.120
93704SOL    HW282952   4.158   7.450   7.200
93705SOL     OW82953   1.508  11.017  10.540
93705SOL    HW182954   1.457  10.941  10.568
93705SOL    HW282955   1.466  11.046  10.459
93706SOL     OW82956   4.626  10.412   0.230
93706SOL    HW182957   4.648  10.342   0.291
93706SOL    HW282958   4.553  10.378   0.180
93707SOL     OW82959  11.832   6.416  14.172
93707SOL    HW182960  11.781   6.492  14.202
93707SOL    HW282961  11.783   6.341  14.204
93708SOL     OW82962   2.971   0.596  14.011
93708SOL    HW182963   2.953   0.677  13.963
93708SOL    HW282964   3.058   0.569  13.980
93709SOL     OW82965   4.271   3.293   3.359
93709SOL    HW182966   4.214   3.226   3.397
93709SOL    HW282967   4.342   3.302   3.422
93710SOL     OW82968  10.750  14.767  13.730
93710SOL    HW182969  10.763  14.807  13.644
93710SOL    HW282970  10.831  14.785  13.777
93711SOL     OW82971   6.118  13.017   5.552
93711SOL    HW182972   6.095  12.926   5.570
93711SOL    HW282973   6.121  13.059   5.638
93712SOL     OW82974   9.559  11.499   2.925
93712SOL    HW182975   9.537  11.476   3.016
93712SOL    HW282976   9.650  11.471   2.915
93713SOL     OW82977  13.017  14.427   3.479
93713SOL    HW182978  12.992  14.520   3.485
93713SOL    HW282979  13.048  14.416   3.389
93714SOL     OW82980   8.284   9.245   1.402
93714SOL    HW182981   8.326   9.165   1.433
93714SOL    HW282982   8.337   9.316   1.439
93715SOL     OW82983   0.035   7.145  13.083
93715SOL    HW182984   0.116   7.095  13.078
93715SOL    HW282985   0.022   7.179  12.994
93716SOL     OW82986   7.800  12.192  11.841
93716SOL    HW182987   7.812  12.111  11.890
93716SOL    HW282988   7.836  12.260  11.898
93717SOL     OW82989   4.350   9.848   7.220
93717SOL    HW182990   4.332   9.917   7.284
93717SOL    HW282991   4.338   9.892   7.135
93718SOL     OW82992  10.946   8.837  12.223
93718SOL    HW182993  10.856   8.837  12.191
93718SOL    HW282994  10.993   8.777  12.166
93719SOL     OW82995   5.828  14.438   0.600
93719SOL    HW182996   5.811  14.503   0.532
93719SOL    HW282997   5.882  14.372   0.557
93720SOL     OW82998   1.822  10.628  10.570
93720SOL    HW182999   1.806  10.708  10.520
93720SOL    HW283000   1.861  10.567  10.507
93721SOL     OW83001   0.261  11.418   3.954
93721SOL    HW183002   0.282  11.387   3.866
93721SOL    HW283003   0.337  11.469   3.981
93722SOL     OW83004   2.956   4.089   9.397
93722SOL    HW183005   2.931   4.140   9.475
93722SOL    HW283006   2.982   4.155   9.333
93723SOL     OW83007  10.911  13.667  11.344
93723SOL    HW183008  10.945  13.647  11.257
93723SOL    HW283009  10.831  13.717  11.328
93724SOL     OW83010  11.611  10.085   7.078
93724SOL    HW183011  11.524  10.093   7.040
93724SOL    HW283012  11.668  10.060   7.005
93725SOL     OW83013   1.370   4.597  11.658
93725SOL    HW183014   1.340   4.589  11.749
93725SOL    HW283015   1.372   4.691  11.642
93726SOL     OW83016   2.445  10.510  12.119
93726SOL    HW183017   2.427  10.452  12.193
93726SOL    HW283018   2.376  10.490  12.056
93727SOL     OW83019   8.508   1.104   9.853
93727SOL    HW183020   8.448   1.038   9.819
93727SOL    HW283021   8.556   1.134   9.776
93728SOL     OW83022   1.765   8.581   9.936
93728SOL    HW183023   1.704   8.634   9.987
93728SOL    HW283024   1.851   8.621   9.954
93729SOL     OW83025  10.337  11.603  12.666
93729SOL    HW183026  10.405  11.550  12.625
93729SOL    HW283027  10.259  11.548  12.664
93730SOL     OW83028   3.546  10.787   9.741
93730SOL    HW183029   3.521  10.850   9.809
93730SOL    HW283030   3.573  10.709   9.790
93731SOL     OW83031  13.303   6.493   0.462
93731SOL    HW183032  13.251   6.528   0.390
93731SOL    HW283033  13.258   6.413   0.488
93732SOL     OW83034   0.213  11.601   5.706
93732SOL    HW183035   0.198  11.686   5.665
93732SOL    HW283036   0.202  11.537   5.636
93733SOL     OW83037   7.497  14.808   9.044
93733SOL    HW183038   7.404  14.828   9.036
93733SOL    HW283039   7.512  14.738   8.981
93734SOL     OW83040   5.342  11.705  10.903
93734SOL    HW183041   5.261  11.663  10.931
93734SOL    HW283042   5.411  11.651  10.943
93735SOL     OW83043   5.838  14.540   2.956
93735SOL    HW183044   5.830  14.470   2.891
93735SOL    HW283045   5.877  14.497   3.032
93736SOL     OW83046   2.357   8.116   1.277
93736SOL    HW183047   2.401   8.031   1.285
93736SOL    HW283048   2.275   8.096   1.233
93737SOL     OW83049   2.991   4.984  10.440
93737SOL    HW183050   2.951   4.925  10.376
93737SOL    HW283051   3.082   4.954  10.446
93738SOL     OW83052  12.169  12.370   9.920
93738SOL    HW183053  12.127  12.452   9.892
93738SOL    HW283054  12.188  12.383  10.013
93739SOL     OW83055  13.445  10.242   9.041
93739SOL    HW183056  13.380  10.211   9.104
93739SOL    HW283057  13.420  10.333   9.025
93740SOL     OW83058   2.803   4.837  11.032
93740SOL    HW183059   2.794   4.858  10.939
93740SOL    HW283060   2.888   4.793  11.039
93741SOL     OW83061   7.544   1.079   3.160
93741SOL    HW183062   7.496   1.153   3.121
93741SOL    HW283063   7.520   1.081   3.253
93742SOL     OW83064  10.198   8.140   5.024
93742SOL    HW183065  10.117   8.142   5.074
93742SOL    HW283066  10.267   8.127   5.089
93743SOL     OW83067   9.616  10.643   7.627
93743SOL    HW183068   9.653  10.571   7.575
93743SOL    HW283069   9.581  10.600   7.705
93744SOL     OW83070   5.831   1.057  14.088
93744SOL    HW183071   5.870   1.143  14.107
93744SOL    HW283072   5.888   0.995  14.134
93745SOL     OW83073  12.630   3.745  12.020
93745SOL    HW183074  12.608   3.771  12.110
93745SOL    HW283075  12.663   3.655  12.028
93746SOL     OW83076   6.493  11.889   7.180
93746SOL    HW183077   6.487  11.814   7.120
93746SOL    HW283078   6.586  11.910   7.183
93747SOL     OW83079  13.745   9.685  10.203
93747SOL    HW183080  13.718   9.776  10.219
93747SOL    HW283081  13.741   9.675  10.108
93748SOL     OW83082   6.424  12.964  11.792
93748SOL    HW183083   6.329  12.956  11.794
93748SOL    HW283084   6.455  12.898  11.853
93749SOL     OW83085  12.044   6.473   8.860
93749SOL    HW183086  11.950   6.458   8.863
93749SOL    HW283087  12.069   6.449   8.771
93750SOL     OW83088   7.871   8.844   4.297
93750SOL    HW183089   7.791   8.794   4.313
93750SOL    HW283090   7.911   8.851   4.384
93751SOL     OW83091  10.568  12.750   9.365
93751SOL    HW183092  10.510  12.801   9.309
93751SOL    HW283093  10.621  12.699   9.304
93752SOL     OW83094  11.701  14.537   7.538
93752SOL    HW183095  11.618  14.496   7.564
93752SOL    HW283096  11.767  14.490   7.589
93753SOL     OW83097   9.421   7.685   2.805
93753SOL    HW183098   9.402   7.594   2.783
93753SOL    HW283099   9.514   7.686   2.826
93754SOL     OW83100  10.665  11.449   8.186
93754SOL    HW183101  10.587  11.499   8.210
93754SOL    HW283102  10.671  11.456   8.091
93755SOL     OW83103   8.699  10.030  14.222
93755SOL    HW183104   8.607  10.027  14.197
93755SOL    HW283105   8.746  10.004  14.143
93756SOL     OW83106  12.855  12.215   0.625
93756SOL    HW183107  12.771  12.213   0.672
93756SOL    HW283108  12.839  12.166   0.544
93757SOL     OW83109  12.332  10.870   8.284
93757SOL    HW183110  12.316  10.789   8.236
93757SOL    HW283111  12.425  10.867   8.306
93758SOL     OW83112   2.629   8.668   3.931
93758SOL    HW183113   2.673   8.750   3.907
93758SOL    HW283114   2.538   8.681   3.904
93759SOL     OW83115   6.913   8.763   0.357
93759SOL    HW183116   6.901   8.790   0.266
93759SOL    HW283117   6.832   8.717   0.378
93760SOL     OW83118   8.358  11.985   8.272
93760SOL    HW183119   8.438  11.983   8.220
93760SOL    HW283120   8.344  11.895   8.299
93761SOL     OW83121   0.774  12.190  13.056
93761SOL    HW183122   0.800  12.277  13.025
93761SOL    HW283123   0.855  12.139  13.058
93762SOL     OW83124   1.460   7.434  11.384
93762SOL    HW183125   1.452   7.502  11.452
93762SOL    HW283126   1.472   7.353  11.433
93763SOL     OW83127   9.409   0.431   4.833
93763SOL    HW183128   9.427   0.373   4.759
93763SOL    HW283129   9.408   0.373   4.909
93764SOL     OW83130  11.215   5.182   5.780
93764SOL    HW183131  11.157   5.113   5.748
93764SOL    HW283132  11.299   5.138   5.792
93765SOL     OW83133  11.647   8.657   4.664
93765SOL    HW183134  11.667   8.624   4.577
93765SOL    HW283135  11.703   8.607   4.723
93766SOL     OW83136  10.864   1.407   8.033
93766SOL    HW183137  10.933   1.470   8.052
93766SOL    HW283138  10.785   1.444   8.072
93767SOL     OW83139  13.311  12.674  13.460
93767SOL    HW183140  13.333  12.744  13.399
93767SOL    HW283141  13.277  12.604  13.405
93768SOL     OW83142   4.729  10.976   0.843
93768SOL    HW183143   4.677  11.030   0.902
93768SOL    HW283144   4.805  11.030   0.823
93769SOL     OW83145   2.011   4.246   3.323
93769SOL    HW183146   1.980   4.326   3.365
93769SOL    HW283147   1.976   4.175   3.377
93770SOL     OW83148   3.075  14.772   3.145
93770SOL    HW183149   3.077  14.867   3.135
93770SOL    HW283150   3.001  14.744   3.091
93771SOL     OW83151   6.990   0.285   0.278
93771SOL    HW183152   6.905   0.285   0.233
93771SOL    HW283153   6.975   0.337   0.357
93772SOL     OW83154   4.050  10.765  11.847
93772SOL    HW183155   4.057  10.743  11.940
93772SOL    HW283156   4.062  10.682  11.802
93773SOL     OW83157   9.428   5.706  10.285
93773SOL    HW183158   9.478   5.784  10.263
93773SOL    HW283159   9.379   5.685  10.206
93774SOL     OW83160   5.760   5.997   2.992
93774SOL    HW183161   5.809   6.071   2.956
93774SOL    HW283162   5.711   5.962   2.917
93775SOL     OW83163  11.717   4.561   0.631
93775SOL    HW183164  11.664   4.538   0.707
93775SOL    HW283165  11.764   4.640   0.658
93776SOL     OW83166  11.854  11.545   3.420
93776SOL    HW183167  11.876  11.501   3.338
93776SOL    HW283168  11.819  11.476   3.476
93777SOL     OW83169   6.738  14.605   4.489
93777SOL    HW183170   6.833  14.594   4.488
93777SOL    HW283171   6.718  14.654   4.409
93778SOL     OW83172   7.156   5.983   5.223
93778SOL    HW183173   7.151   6.002   5.129
93778SOL    HW283174   7.065   5.971   5.250
93779SOL     OW83175   2.783   7.863  10.275
93779SOL    HW183176   2.772   7.889  10.367
93779SOL    HW283177   2.694   7.857  10.241
93780SOL     OW83178   3.013   1.402   4.088
93780SOL    HW183179   2.985   1.452   4.011
93780SOL    HW283180   3.065   1.465   4.139
93781SOL     OW83181   3.016  10.343  10.656
93781SOL    HW183182   3.077  10.408  10.691
93781SOL    HW283183   2.945  10.340  10.719
93782SOL     OW83184   5.906  13.113   2.576
93782SOL    HW183185   5.862  13.152   2.501
93782SOL    HW283186   5.971  13.055   2.539
93783SOL     OW83187   3.002   4.489   8.203
93783SOL    HW183188   2.936   4.476   8.272
93783SOL    HW283189   2.951   4.491   8.122
93784SOL     OW83190   0.819  11.186  14.492
93784SOL    HW183191   0.830  11.209  14.399
93784SOL    HW283192   0.887  11.236  14.537
93785SOL     OW83193   3.923  11.599  14.031
93785SOL    HW183194   3.975  11.677  14.050
93785SOL    HW283195   3.986  11.526  14.036
93786SOL     OW83196   1.341   8.472   9.147
93786SOL    HW183197   1.287   8.403   9.107
93786SOL    HW283198   1.361   8.531   9.074
93787SOL     OW83199  13.427   8.203   3.443
93787SOL    HW183200  13.466   8.185   3.357
93787SOL    HW283201  13.335   8.218   3.425
93788SOL     OW83202   4.050   6.090   1.503
93788SOL    HW183203   4.004   6.123   1.580
93788SOL    HW283204   4.136   6.131   1.507
93789SOL     OW83205   5.084   3.982  12.645
93789SOL    HW183206   5.073   3.887  12.642
93789SOL    HW283207   5.069   4.005  12.737
93790SOL     OW83208  12.269   5.459  12.267
93790SOL    HW183209  12.239   5.400  12.198
93790SOL    HW283210  12.347   5.417  12.303
93791SOL     OW83211  11.259   1.478   6.562
93791SOL    HW183212  11.212   1.491   6.479
93791SOL    HW283213  11.289   1.566   6.585
93792SOL     OW83214  11.709  14.704  10.108
93792SOL    HW183215  11.668  14.620  10.127
93792SOL    HW283216  11.790  14.681  10.062
93793SOL     OW83217   2.123   2.855   6.951
93793SOL    HW183218   2.062   2.887   7.018
93793SOL    HW283219   2.076   2.866   6.868
93794SOL     OW83220   0.801  13.662   1.324
93794SOL    HW183221   0.718  13.649   1.277
93794SOL    HW283222   0.865  13.610   1.274
93795SOL     OW83223  10.206   2.770   9.229
93795SOL    HW183224  10.292   2.772   9.271
93795SOL    HW283225  10.164   2.852   9.256
93796SOL     OW83226   3.183   0.993   9.407
93796SOL    HW183227   3.169   0.959   9.319
93796SOL    HW283228   3.128   0.938   9.463
93797SOL     OW83229  10.712   2.385  10.778
93797SOL    HW183230  10.712   2.420  10.867
93797SOL    HW283231  10.744   2.458  10.724
93798SOL     OW83232  12.579   2.052   3.746
93798SOL    HW183233  12.523   2.125   3.718
93798SOL    HW283234  12.565   2.047   3.841
93799SOL     OW83235   7.044   0.113  12.567
93799SOL    HW183236   7.052   0.027  12.525
93799SOL    HW283237   6.957   0.144  12.541
93800SOL     OW83238   9.231   2.206   9.956
93800SOL    HW183239   9.190   2.196  10.042
93800SOL    HW283240   9.316   2.245   9.974
93801SOL     OW83241   6.495  13.267   7.624
93801SOL    HW183242   6.467  13.354   7.653
93801SOL    HW283243   6.419  13.232   7.576
93802SOL     OW83244  12.621   9.365   5.349
93802SOL    HW183245  12.571   9.414   5.413
93802SOL    HW283246  12.623   9.421   5.271
93803SOL     OW83247  10.442   2.875   3.642
93803SOL    HW183248  10.487   2.794   3.617
93803SOL    HW283249  10.374   2.887   3.575
93804SOL     OW83250  12.135   6.990  10.700
93804SOL    HW183251  12.169   6.952  10.619
93804SOL    HW283252  12.164   6.931  10.769
93805SOL     OW83253   5.616  12.917  13.823
93805SOL    HW183254   5.651  12.959  13.743
93805SOL    HW283255   5.544  12.973  13.849
93806SOL     OW83256   5.951   4.549   7.383
93806SOL    HW183257   5.885   4.532   7.451
93806SOL    HW283258   5.964   4.465   7.340
93807SOL     OW83259   3.251   0.859   0.229
93807SOL    HW183260   3.224   0.907   0.308
93807SOL    HW283261   3.339   0.829   0.248
93808SOL     OW83262   8.158   6.757  10.287
93808SOL    HW183263   8.247   6.734  10.314
93808SOL    HW283264   8.150   6.851  10.305
93809SOL     OW83265   9.606   1.307   1.501
93809SOL    HW183266   9.553   1.274   1.428
93809SOL    HW283267   9.674   1.360   1.459
93810SOL     OW83268   8.046  11.947   7.687
93810SOL    HW183269   8.067  11.982   7.774
93810SOL    HW283270   8.061  11.853   7.694
93811SOL     OW83271   7.356   4.301   8.385
93811SOL    HW183272   7.294   4.228   8.382
93811SOL    HW283273   7.414   4.282   8.458
93812SOL     OW83274   3.455  11.319   9.736
93812SOL    HW183275   3.444  11.263   9.659
93812SOL    HW283276   3.461  11.408   9.700
93813SOL     OW83277   3.364   4.521   7.955
93813SOL    HW183278   3.383   4.569   7.874
93813SOL    HW283279   3.435   4.546   8.014
93814SOL     OW83280  12.963  14.601  12.966
93814SOL    HW183281  12.994  14.593  13.057
93814SOL    HW283282  12.930  14.514  12.944
93815SOL     OW83283  13.956   7.665   9.634
93815SOL    HW183284  14.033   7.664   9.692
93815SOL    HW283285  13.965   7.585   9.582
93816SOL     OW83286   9.647  10.093   7.312
93816SOL    HW183287   9.559  10.103   7.348
93816SOL    HW283288   9.662  10.175   7.265
93817SOL     OW83289   2.221   1.448   9.079
93817SOL    HW183290   2.315   1.435   9.079
93817SOL    HW283291   2.195   1.440   9.171
93818SOL     OW83292   1.940   9.682   1.415
93818SOL    HW183293   1.881   9.641   1.478
93818SOL    HW283294   1.935   9.775   1.435
93819SOL     OW83295   4.245  14.809  14.193
93819SOL    HW183296   4.306  14.857  14.136
93819SOL    HW283297   4.179  14.874  14.216
93820SOL     OW83298  14.318   2.192   5.690
93820SOL    HW183299  14.300   2.257   5.759
93820SOL    HW283300  14.413   2.188   5.686
93821SOL     OW83301   3.494  14.350   7.347
93821SOL    HW183302   3.585  14.369   7.324
93821SOL    HW283303   3.485  14.380   7.437
93822SOL     OW83304   0.379   0.927  10.151
93822SOL    HW183305   0.405   0.992  10.215
93822SOL    HW283306   0.287   0.910  10.170
93823SOL     OW83307   8.898   3.992   0.581
93823SOL    HW183308   8.908   4.014   0.673
93823SOL    HW283309   8.987   3.986   0.547
93824SOL     OW83310  12.747   4.649  10.972
93824SOL    HW183311  12.826   4.693  11.005
93824SOL    HW283312  12.754   4.655  10.877
93825SOL     OW83313   4.363   7.225   2.767
93825SOL    HW183314   4.337   7.158   2.704
93825SOL    HW283315   4.281   7.253   2.807
93826SOL     OW83316   8.031   9.189  11.562
93826SOL    HW183317   8.058   9.163  11.473
93826SOL    HW283318   8.112   9.186  11.613
93827SOL     OW83319  10.989  14.232  13.906
93827SOL    HW183320  10.901  14.196  13.898
93827SOL    HW283321  10.976  14.327  13.913
93828SOL     OW83322  12.563  11.246   8.793
93828SOL    HW183323  12.521  11.173   8.840
93828SOL    HW283324  12.656  11.225   8.795
93829SOL     OW83325   7.833   4.234   6.730
93829SOL    HW183326   7.823   4.326   6.756
93829SOL    HW283327   7.751   4.213   6.684
93830SOL     OW83328   9.380   5.519  11.942
93830SOL    HW183329   9.373   5.613  11.924
93830SOL    HW283330   9.471   5.498  11.920
93831SOL     OW83331   1.641   5.542   3.657
93831SOL    HW183332   1.587   5.469   3.687
93831SOL    HW283333   1.722   5.533   3.706
93832SOL     OW83334   7.696  14.163   3.630
93832SOL    HW183335   7.665  14.129   3.714
93832SOL    HW283336   7.618  14.197   3.587
93833SOL     OW83337   5.499  12.748   4.511
93833SOL    HW183338   5.555  12.724   4.437
93833SOL    HW283339   5.410  12.738   4.477
93834SOL     OW83340  11.398   3.981   4.299
93834SOL    HW183341  11.353   4.066   4.292
93834SOL    HW283342  11.327   3.917   4.309
93835SOL     OW83343   2.196   7.000   4.200
93835SOL    HW183344   2.160   7.029   4.284
93835SOL    HW283345   2.217   7.081   4.154
93836SOL     OW83346  12.597   6.690   8.583
93836SOL    HW183347  12.679   6.642   8.571
93836SOL    HW283348  12.554   6.687   8.498
93837SOL     OW83349  12.307   5.353  13.239
93837SOL    HW183350  12.267   5.324  13.157
93837SOL    HW283351  12.373   5.286  13.257
93838SOL     OW83352   9.150  10.337  13.448
93838SOL    HW183353   9.227  10.359  13.395
93838SOL    HW283354   9.169  10.375  13.534
93839SOL     OW83355  11.843   2.859  13.666
93839SOL    HW183356  11.838   2.795  13.736
93839SOL    HW283357  11.922   2.910  13.685
93840SOL     OW83358   8.105   0.912   5.276
93840SOL    HW183359   8.041   0.950   5.337
93840SOL    HW283360   8.183   0.968   5.285
93841SOL     OW83361  11.014   5.285   6.717
93841SOL    HW183362  10.923   5.265   6.698
93841SOL    HW283363  11.032   5.365   6.668
93842SOL     OW83364   1.625   7.274  10.730
93842SOL    HW183365   1.602   7.182  10.721
93842SOL    HW283366   1.556   7.310  10.786
93843SOL     OW83367  11.077   1.579   7.991
93843SOL    HW183368  11.057   1.671   8.012
93843SOL    HW283369  11.095   1.580   7.897
93844SOL     OW83370   7.021  13.091  11.938
93844SOL    HW183371   6.966  13.158  11.896
93844SOL    HW283372   7.085  13.141  11.988
93845SOL     OW83373  13.149   7.032   9.908
93845SOL    HW183374  13.221   6.974   9.883
93845SOL    HW283375  13.114   6.994   9.989
93846SOL     OW83376   4.856   0.122  13.778
93846SOL    HW183377   4.927   0.106  13.716
93846SOL    HW283378   4.894   0.183  13.842
93847SOL     OW83379  12.495   5.283  14.070
93847SOL    HW183380  12.528   5.351  14.011
93847SOL    HW283381  12.560   5.214  14.066
93848SOL     OW83382   6.024  11.694   4.414
93848SOL    HW183383   6.064  11.756   4.475
93848SOL    HW283384   6.054  11.608   4.444
93849SOL     OW83385   5.209   6.752   2.143
93849SOL    HW183386   5.210   6.719   2.233
93849SOL    HW283387   5.297   6.787   2.129
93850SOL     OW83388   7.678   7.736   9.592
93850SOL    HW183389   7.675   7.831   9.580
93850SOL    HW283390   7.605   7.703   9.539
93851SOL     OW83391   3.657   7.772  13.875
93851SOL    HW183392   3.586   7.794  13.935
93851SOL    HW283393   3.619   7.709  13.813
93852SOL     OW83394   0.197   9.712  11.771
93852SOL    HW183395   0.143   9.755  11.704
93852SOL    HW283396   0.286   9.717  11.737
93853SOL     OW83397   4.581  13.306   0.541
93853SOL    HW183398   4.533  13.300   0.623
93853SOL    HW283399   4.656  13.249   0.553
93854SOL     OW83400   6.896  13.943   7.446
93854SOL    HW183401   6.961  13.875   7.430
93854SOL    HW283402   6.812  13.898   7.444
93855SOL     OW83403   2.923   0.201   1.377
93855SOL    HW183404   2.961   0.121   1.342
93855SOL    HW283405   2.994   0.265   1.374
93856SOL     OW83406  14.436   1.907  14.390
93856SOL    HW183407  14.418   1.884  14.481
93856SOL    HW283408  14.483   1.990  14.395
93857SOL     OW83409   4.239   1.592  11.677
93857SOL    HW183410   4.301   1.580  11.749
93857SOL    HW283411   4.249   1.684  11.652
93858SOL     OW83412   5.515  13.699  12.703
93858SOL    HW183413   5.566  13.629  12.742
93858SOL    HW283414   5.484  13.664  12.620
93859SOL     OW83415   6.758  13.122   4.440
93859SOL    HW183416   6.668  13.098   4.418
93859SOL    HW283417   6.749  13.195   4.502
93860SOL     OW83418   0.588   4.379  13.774
93860SOL    HW183419   0.550   4.299  13.809
93860SOL    HW283420   0.555   4.449  13.830
93861SOL     OW83421   5.343   2.107   4.530
93861SOL    HW183422   5.330   2.071   4.443
93861SOL    HW283423   5.398   2.184   4.516
93862SOL     OW83424   7.479  11.047  13.727
93862SOL    HW183425   7.475  11.090  13.813
93862SOL    HW283426   7.438  11.109  13.667
93863SOL     OW83427   3.252   0.853   8.564
93863SOL    HW183428   3.298   0.937   8.559
93863SOL    HW283429   3.164   0.871   8.530
93864SOL     OW83430   5.855   4.325  10.408
93864SOL    HW183431   5.884   4.388  10.474
93864SOL    HW283432   5.773   4.361  10.374
93865SOL     OW83433   5.918  13.370  12.102
93865SOL    HW183434   5.925  13.415  12.017
93865SOL    HW283435   5.958  13.284  12.086
93866SOL     OW83436   3.598   7.627   8.394
93866SOL    HW183437   3.613   7.623   8.488
93866SOL    HW283438   3.638   7.547   8.360
93867SOL     OW83439   5.152   7.670   5.892
93867SOL    HW183440   5.199   7.744   5.929
93867SOL    HW283441   5.066   7.705   5.868
93868SOL     OW83442  13.989   3.563   9.156
93868SOL    HW183443  13.900   3.540   9.182
93868SOL    HW283444  13.980   3.649   9.114
93869SOL     OW83445   9.426  10.197   2.874
93869SOL    HW183446   9.400  10.129   2.937
93869SOL    HW283447   9.418  10.155   2.789
93870SOL     OW83448  14.793  12.010   3.681
93870SOL    HW183449  14.795  12.098   3.720
93870SOL    HW283450  14.853  12.015   3.608
93871SOL     OW83451   0.206   4.138   4.813
93871SOL    HW183452   0.256   4.177   4.742
93871SOL    HW283453   0.125   4.106   4.771
93872SOL     OW83454  12.210   6.703   4.354
93872SOL    HW183455  12.178   6.615   4.371
93872SOL    HW283456  12.186   6.753   4.433
93873SOL     OW83457   1.014  10.962   8.426
93873SOL    HW183458   1.033  11.019   8.501
93873SOL    HW283459   0.972  11.020   8.362
93874SOL     OW83460   5.567   5.030   8.475
93874SOL    HW183461   5.650   4.987   8.499
93874SOL    HW283462   5.507   4.957   8.458
93875SOL     OW83463  11.116   5.979   0.942
93875SOL    HW183464  11.191   5.964   0.885
93875SOL    HW283465  11.062   5.900   0.932
93876SOL     OW83466   0.715   1.488  10.920
93876SOL    HW183467   0.725   1.512  11.012
93876SOL    HW283468   0.632   1.440  10.917
93877SOL     OW83469  13.396  13.656   1.813
93877SOL    HW183470  13.452  13.618   1.745
93877SOL    HW283471  13.387  13.586   1.878
93878SOL     OW83472   8.162  10.846   7.859
93878SOL    HW183473   8.191  10.759   7.887
93878SOL    HW283474   8.152  10.838   7.764
93879SOL     OW83475   7.346   7.101   9.293
93879SOL    HW183476   7.359   7.023   9.346
93879SOL    HW283477   7.358   7.072   9.203
93880SOL     OW83478  12.070   4.612   2.925
93880SOL    HW183479  12.119   4.572   2.854
93880SOL    HW283480  12.127   4.682   2.957
93881SOL     OW83481  13.127  11.600   9.181
93881SOL    HW183482  13.033  11.588   9.171
93881SOL    HW283483  13.162  11.512   9.192
93882SOL     OW83484   8.167   4.003   6.164
93882SOL    HW183485   8.225   3.962   6.228
93882SOL    HW283486   8.206   3.982   6.079
93883SOL     OW83487  10.368   3.485   2.235
93883SOL    HW183488  10.447   3.465   2.285
93883SOL    HW283489  10.296   3.470   2.297
93884SOL     OW83490   1.338   6.926   8.794
93884SOL    HW183491   1.314   6.977   8.717
93884SOL    HW283492   1.425   6.957   8.818
93885SOL     OW83493   0.093   6.522  12.023
93885SOL    HW183494   0.184   6.511  12.053
93885SOL    HW283495   0.041   6.517  12.104
93886SOL     OW83496   1.058   8.286  10.264
93886SOL    HW183497   1.046   8.329  10.349
93886SOL    HW283498   1.087   8.356  10.206
93887SOL     OW83499  10.845   4.624   6.531
93887SOL    HW183500  10.777   4.624   6.599
93887SOL    HW283501  10.841   4.711   6.493
93888SOL     OW83502  10.750   5.459   5.602
93888SOL    HW183503  10.814   5.519   5.563
93888SOL    HW283504  10.791   5.373   5.595
93889SOL     OW83505   6.657   1.128   5.331
93889SOL    HW183506   6.611   1.130   5.248
93889SOL    HW283507   6.706   1.046   5.331
93890SOL     OW83508  12.034  13.122  14.429
93890SOL    HW183509  12.096  13.154  14.363
93890SOL    HW283510  11.951  13.114  14.383
93891SOL     OW83511   5.343  11.736  10.125
93891SOL    HW183512   5.398  11.766  10.053
93891SOL    HW283513   5.402  11.731  10.200
93892SOL     OW83514   4.368   6.717  10.215
93892SOL    HW183515   4.406   6.630  10.205
93892SOL    HW283516   4.436   6.776  10.182
93893SOL     OW83517   4.473   2.160   7.287
93893SOL    HW183518   4.476   2.158   7.383
93893SOL    HW283519   4.564   2.144   7.260
93894SOL     OW83520   5.250   6.971   2.820
93894SOL    HW183521   5.329   7.007   2.860
93894SOL    HW283522   5.278   6.946   2.732
93895SOL     OW83523   2.358  13.685   4.670
93895SOL    HW183524   2.416  13.634   4.613
93895SOL    HW283525   2.357  13.636   4.752
93896SOL     OW83526   4.862  10.364   5.609
93896SOL    HW183527   4.897  10.438   5.561
93896SOL    HW283528   4.847  10.297   5.542
93897SOL     OW83529  13.034   2.907   5.852
93897SOL    HW183530  13.002   2.995   5.871
93897SOL    HW283531  13.095   2.889   5.923
93898SOL     OW83532   3.989  11.746  13.231
93898SOL    HW183533   4.083  11.757  13.243
93898SOL    HW283534   3.949  11.782  13.310
93899SOL     OW83535   1.172  13.536  10.030
93899SOL    HW183536   1.267  13.544  10.039
93899SOL    HW283537   1.138  13.622  10.054
93900SOL     OW83538   7.452  13.026   5.363
93900SOL    HW183539   7.378  12.966   5.353
93900SOL    HW283540   7.529  12.969   5.370
93901SOL     OW83541   6.626   7.590  14.515
93901SOL    HW183542   6.590   7.647  14.584
93901SOL    HW283543   6.550   7.569  14.460
93902SOL     OW83544   1.594   8.404  14.838
93902SOL    HW183545   1.669   8.365   0.003
93902SOL    HW283546   1.526   8.336  14.843
93903SOL     OW83547  13.923   8.470   9.452
93903SOL    HW183548  13.963   8.401   9.399
93903SOL    HW283549  13.846   8.496   9.403
93904SOL     OW83550  12.391   2.896   6.410
93904SOL    HW183551  12.425   2.976   6.449
93904SOL    HW283552  12.394   2.832   6.481
93905SOL     OW83553   0.226   0.045  10.589
93905SOL    HW183554   0.164   0.115  10.608
93905SOL    HW283555   0.312   0.088  10.591
93906SOL     OW83556   9.195   2.946  10.691
93906SOL    HW183557   9.123   2.965  10.751
93906SOL    HW283558   9.161   2.969  10.605
93907SOL     OW83559   1.088   2.134   4.743
93907SOL    HW183560   1.022   2.182   4.692
93907SOL    HW283561   1.057   2.043   4.742
93908SOL     OW83562   1.153  11.473   1.114
93908SOL    HW183563   1.200  11.472   1.030
93908SOL    HW283564   1.222  11.476   1.180
93909SOL     OW83565   8.380   2.265   6.516
93909SOL    HW183566   8.302   2.259   6.461
93909SOL    HW283567   8.391   2.359   6.531
93910SOL     OW83568   3.826   3.050   2.829
93910SOL    HW183569   3.751   3.096   2.867
93910SOL    HW283570   3.808   2.958   2.843
93911SOL     OW83571   9.314   2.908   9.207
93911SOL    HW183572   9.303   2.938   9.297
93911SOL    HW283573   9.394   2.951   9.177
93912SOL     OW83574   2.687   8.992  11.599
93912SOL    HW183575   2.664   8.936  11.525
93912SOL    HW283576   2.778   9.017  11.584
93913SOL     OW83577   1.460   4.237  10.319
93913SOL    HW183578   1.450   4.260  10.412
93913SOL    HW283579   1.503   4.313  10.280
93914SOL     OW83580   7.311   0.942   3.279
93914SOL    HW183581   7.287   0.951   3.186
93914SOL    HW283582   7.347   1.028   3.302
93915SOL     OW83583   3.062  11.060   8.884
93915SOL    HW183584   3.092  10.987   8.940
93915SOL    HW283585   3.085  11.033   8.795
93916SOL     OW83586   2.771  11.647   6.152
93916SOL    HW183587   2.792  11.662   6.245
93916SOL    HW283588   2.714  11.570   6.153
93917SOL     OW83589  13.374   6.106   6.299
93917SOL    HW183590  13.375   6.104   6.395
93917SOL    HW283591  13.287   6.141   6.277
93918SOL     OW83592   0.622   7.113   7.014
93918SOL    HW183593   0.699   7.061   6.993
93918SOL    HW283594   0.608   7.099   7.108
93919SOL     OW83595  13.732   9.511   0.010
93919SOL    HW183596  13.677   9.469  14.823
93919SOL    HW283597  13.669   9.546   0.074
93920SOL     OW83598  10.343   4.308   2.803
93920SOL    HW183599  10.341   4.310   2.898
93920SOL    HW283600  10.413   4.368   2.778
93921SOL     OW83601   0.460   5.490   1.448
93921SOL    HW183602   0.552   5.504   1.472
93921SOL    HW283603   0.417   5.573   1.472
93922SOL     OW83604   5.107  11.013  13.308
93922SOL    HW183605   5.059  11.038  13.229
93922SOL    HW283606   5.163  11.088  13.327
93923SOL     OW83607   1.817  14.273  14.046
93923SOL    HW183608   1.860  14.354  14.019
93923SOL    HW283609   1.735  14.271  13.996
93924SOL     OW83610  11.849   6.219   8.136
93924SOL    HW183611  11.843   6.286   8.068
93924SOL    HW283612  11.762   6.218   8.176
93925SOL     OW83613   3.482  11.445   5.060
93925SOL    HW183614   3.521  11.475   4.978
93925SOL    HW283615   3.393  11.422   5.037
93926SOL     OW83616  12.979   6.053   0.795
93926SOL    HW183617  12.994   6.028   0.886
93926SOL    HW283618  12.891   6.090   0.795
93927SOL     OW83619  13.368  11.242   9.259
93927SOL    HW183620  13.415  11.204   9.333
93927SOL    HW283621  13.348  11.331   9.286
93928SOL     OW83622   2.592   2.485  14.769
93928SOL    HW183623   2.664   2.454  14.824
93928SOL    HW283624   2.609   2.446  14.683
93929SOL     OW83625   1.520  11.853   9.645
93929SOL    HW183626   1.502  11.900   9.727
93929SOL    HW283627   1.616  11.847   9.642
93930SOL     OW83628   0.345  11.992   2.567
93930SOL    HW183629   0.381  12.037   2.491
93930SOL    HW283630   0.260  12.034   2.583
93931SOL     OW83631  14.216   9.826   7.028
93931SOL    HW183632  14.154   9.851   7.096
93931SOL    HW283633  14.227   9.905   6.975
93932SOL     OW83634   0.540   0.665   3.754
93932SOL    HW183635   0.570   0.734   3.696
93932SOL    HW283636   0.572   0.689   3.841
93933SOL     OW83637   3.796   9.982   7.168
93933SOL    HW183638   3.794   9.925   7.091
93933SOL    HW283639   3.704   9.996   7.191
93934SOL     OW83640  11.443  10.616   3.850
93934SOL    HW183641  11.405  10.668   3.922
93934SOL    HW283642  11.536  10.639   3.851
93935SOL     OW83643  13.868  13.975   6.150
93935SOL    HW183644  13.887  14.047   6.090
93935SOL    HW283645  13.800  14.011   6.208
93936SOL     OW83646   4.770   0.129   9.631
93936SOL    HW183647   4.804   0.079   9.557
93936SOL    HW283648   4.718   0.066   9.681
93937SOL     OW83649   1.571   6.826  13.239
93937SOL    HW183650   1.554   6.876  13.318
93937SOL    HW283651   1.485   6.815  13.198
93938SOL     OW83652   9.615   0.587   4.308
93938SOL    HW183653   9.535   0.538   4.327
93938SOL    HW283654   9.684   0.521   4.304
93939SOL     OW83655   9.551   4.243   3.123
93939SOL    HW183656   9.472   4.237   3.177
93939SOL    HW283657   9.573   4.153   3.102
93940SOL     OW83658  12.911  14.345  12.413
93940SOL    HW183659  12.821  14.320  12.392
93940SOL    HW283660  12.910  14.364  12.507
93941SOL     OW83661   6.983  12.111   9.440
93941SOL    HW183662   7.034  12.145   9.367
93941SOL    HW283663   6.955  12.024   9.412
93942SOL     OW83664   6.085   4.168   5.766
93942SOL    HW183665   6.057   4.085   5.806
93942SOL    HW283666   6.027   4.179   5.690
93943SOL     OW83667   4.310  12.624   5.972
93943SOL    HW183668   4.362  12.572   6.033
93943SOL    HW283669   4.281  12.699   6.023
93944SOL     OW83670   7.853   5.628   3.787
93944SOL    HW183671   7.828   5.556   3.730
93944SOL    HW283672   7.770   5.664   3.818
93945SOL     OW83673  14.333  12.368  12.484
93945SOL    HW183674  14.337  12.362  12.580
93945SOL    HW283675  14.300  12.456  12.467
93946SOL     OW83676   2.864   5.296   0.361
93946SOL    HW183677   2.863   5.346   0.443
93946SOL    HW283678   2.946   5.247   0.364
93947SOL     OW83679  14.424   9.181   3.902
93947SOL    HW183680  14.484   9.184   3.976
93947SOL    HW283681  14.443   9.097   3.859
93948SOL     OW83682   0.039   8.762   6.384
93948SOL    HW183683   0.038   8.852   6.350
93948SOL    HW283684   0.099   8.715   6.327
93949SOL     OW83685   7.279  11.806   4.346
93949SOL    HW183686   7.367  11.778   4.321
93949SOL    HW283687   7.252  11.742   4.412
93950SOL     OW83688   4.552   6.613  12.776
93950SOL    HW183689   4.515   6.560  12.847
93950SOL    HW283690   4.638   6.639  12.808
93951SOL     OW83691   6.067   5.595   5.905
93951SOL    HW183692   6.137   5.532   5.888
93951SOL    HW283693   6.111   5.680   5.905
93952SOL     OW83694  13.907  11.637  11.818
93952SOL    HW183695  13.965  11.669  11.887
93952SOL    HW283696  13.864  11.716  11.785
93953SOL     OW83697   2.839  14.247   2.190
93953SOL    HW183698   2.775  14.315   2.169
93953SOL    HW283699   2.798  14.196   2.260
93954SOL     OW83700   2.981   7.638   7.522
93954SOL    HW183701   2.905   7.683   7.558
93954SOL    HW283702   3.040   7.708   7.494
93955SOL     OW83703  14.451  12.719   5.304
93955SOL    HW183704  14.538  12.760   5.307
93955SOL    HW283705  14.391  12.792   5.288
93956SOL     OW83706  10.445   3.184   5.628
93956SOL    HW183707  10.461   3.108   5.685
93956SOL    HW283708  10.485   3.257   5.674
93957SOL     OW83709   1.866   6.994  11.512
93957SOL    HW183710   1.823   7.044  11.443
93957SOL    HW283711   1.924   6.933  11.465
93958SOL     OW83712  14.754   7.750   9.143
93958SOL    HW183713  14.799   7.802   9.209
93958SOL    HW283714  14.787   7.784   9.059
93959SOL     OW83715   1.609  13.397   5.231
93959SOL    HW183716   1.695  13.390   5.271
93959SOL    HW283717   1.623  13.377   5.139
93960SOL     OW83718  13.656   7.690  10.679
93960SOL    HW183719  13.639   7.715  10.770
93960SOL    HW283720  13.580   7.638  10.654
93961SOL     OW83721   7.987  12.124   9.323
93961SOL    HW183722   8.004  12.122   9.229
93961SOL    HW283723   8.047  12.190   9.357
93962SOL     OW83724  13.375  12.685  11.447
93962SOL    HW183725  13.443  12.742  11.412
93962SOL    HW283726  13.410  12.597  11.437
93963SOL     OW83727   4.839   8.032  12.284
93963SOL    HW183728   4.880   8.045  12.199
93963SOL    HW283729   4.770   8.099  12.287
93964SOL     OW83730  11.542   3.945  12.033
93964SOL    HW183731  11.555   3.870  11.975
93964SOL    HW283732  11.513   3.906  12.116
93965SOL     OW83733  14.540  12.567  13.419
93965SOL    HW183734  14.608  12.501  13.412
93965SOL    HW283735  14.458  12.518  13.418
93966SOL     OW83736  14.077   5.857  14.616
93966SOL    HW183737  14.035   5.837  14.533
93966SOL    HW283738  14.049   5.787  14.675
93967SOL     OW83739   7.082  10.527   3.225
93967SOL    HW183740   7.135  10.544   3.304
93967SOL    HW283741   7.054  10.613   3.196
93968SOL     OW83742   4.178  14.314   4.257
93968SOL    HW183743   4.271  14.292   4.259
93968SOL    HW283744   4.158  14.342   4.346
93969SOL     OW83745   3.141   3.395   9.520
93969SOL    HW183746   3.046   3.392   9.528
93969SOL    HW283747   3.167   3.305   9.500
93970SOL     OW83748   8.557  14.104   9.502
93970SOL    HW183749   8.518  14.187   9.475
93970SOL    HW283750   8.534  14.095   9.595
93971SOL     OW83751  12.596  12.329   2.048
93971SOL    HW183752  12.634  12.403   2.096
93971SOL    HW283753  12.574  12.366   1.962
93972SOL     OW83754   5.816  12.069   9.727
93972SOL    HW183755   5.824  12.135   9.795
93972SOL    HW283756   5.897  12.018   9.733
93973SOL     OW83757   4.841  10.709   6.292
93973SOL    HW183758   4.886  10.647   6.233
93973SOL    HW283759   4.832  10.661   6.374
93974SOL     OW83760   5.240  12.833   5.398
93974SOL    HW183761   5.216  12.755   5.346
93974SOL    HW283762   5.261  12.899   5.333
93975SOL     OW83763   1.079   6.551   9.937
93975SOL    HW183764   1.054   6.643   9.936
93975SOL    HW283765   1.169   6.550   9.905
93976SOL     OW83766   3.607   0.937  13.072
93976SOL    HW183767   3.599   0.963  12.980
93976SOL    HW283768   3.676   0.994  13.107
93977SOL     OW83769   0.135  12.526   5.897
93977SOL    HW183770   0.131  12.439   5.856
93977SOL    HW283771   0.193  12.515   5.973
93978SOL     OW83772   4.839   3.641   9.595
93978SOL    HW183773   4.884   3.581   9.655
93978SOL    HW283774   4.748   3.611   9.597
93979SOL     OW83775  13.534  13.919  11.952
93979SOL    HW183776  13.604  13.886  12.007
93979SOL    HW283777  13.542  14.014  11.957
93980SOL     OW83778  12.686   0.509  13.770
93980SOL    HW183779  12.699   0.536  13.679
93980SOL    HW283780  12.771   0.475  13.797
93981SOL     OW83781   2.277   3.770   9.638
93981SOL    HW183782   2.370   3.745   9.644
93981SOL    HW283783   2.233   3.714   9.701
93982SOL     OW83784   5.839  13.002   4.162
93982SOL    HW183785   5.891  13.044   4.231
93982SOL    HW283786   5.892  12.927   4.135
93983SOL     OW83787   8.196  11.340   9.192
93983SOL    HW183788   8.290  11.352   9.200
93983SOL    HW283789   8.157  11.412   9.242
93984SOL     OW83790  13.386   8.108  13.931
93984SOL    HW183791  13.299   8.083  13.902
93984SOL    HW283792  13.379   8.201  13.951
93985SOL     OW83793   9.940   6.578   0.943
93985SOL    HW183794   9.987   6.605   1.022
93985SOL    HW283795   9.952   6.652   0.882
93986SOL     OW83796   1.627   9.093   0.856
93986SOL    HW183797   1.674   9.129   0.931
93986SOL    HW283798   1.691   9.038   0.811
93987SOL     OW83799  14.093  12.906   1.652
93987SOL    HW183800  14.003  12.909   1.682
93987SOL    HW283801  14.097  12.972   1.583
93988SOL     OW83802   3.699   0.818   4.891
93988SOL    HW183803   3.698   0.736   4.941
93988SOL    HW283804   3.781   0.860   4.917
93989SOL     OW83805  12.693   7.907  14.821
93989SOL    HW183806  12.718   7.851   0.014
93989SOL    HW283807  12.764   7.897  14.758
93990SOL     OW83808   8.104   7.477   0.646
93990SOL    HW183809   8.196   7.496   0.665
93990SOL    HW283810   8.099   7.472   0.550
93991SOL     OW83811  10.100   6.028   3.566
93991SOL    HW183812  10.145   6.004   3.647
93991SOL    HW283813  10.057   5.947   3.538
93992SOL     OW83814   0.041  12.974   1.379
93992SOL    HW183815  14.865  12.934   1.446
93992SOL    HW283816   0.086  12.900   1.338
93993SOL     OW83817   6.407   6.009  12.511
93993SOL    HW183818   6.336   5.948  12.533
93993SOL    HW283819   6.381   6.048  12.428
93994SOL     OW83820  14.318  11.700   6.116
93994SOL    HW183821  14.339  11.622   6.065
93994SOL    HW283822  14.222  11.699   6.123
93995SOL     OW83823   2.685  11.041   4.175
93995SOL    HW183824   2.635  10.988   4.237
93995SOL    HW283825   2.716  11.115   4.226
93996SOL     OW83826   5.805  11.817  10.218
93996SOL    HW183827   5.799  11.725  10.242
93996SOL    HW283828   5.841  11.816  10.130
93997SOL     OW83829   0.182   6.866   6.301
93997SOL    HW183830   0.180   6.849   6.395
93997SOL    HW283831   0.128   6.945   6.290
93998SOL     OW83832  10.690   1.309  10.767
93998SOL    HW183833  10.661   1.220  10.749
93998SOL    HW283834  10.785   1.303  10.773
93999SOL     OW83835  13.502   1.223  11.983
93999SOL    HW183836  13.592   1.255  11.985
93999SOL    HW283837  13.462   1.270  11.910
94000SOL     OW83838   9.182  12.551   0.263
94000SOL    HW183839   9.252  12.495   0.296
94000SOL    HW283840   9.197  12.636   0.304
94001SOL     OW83841   8.861   1.988  13.985
94001SOL    HW183842   8.854   2.069  13.934
94001SOL    HW283843   8.772   1.952  13.985
94002SOL     OW83844  12.814   9.003   7.054
94002SOL    HW183845  12.903   8.978   7.029
94002SOL    HW283846  12.811   9.098   7.041
94003SOL     OW83847  12.768   4.832  11.793
94003SOL    HW183848  12.804   4.827  11.882
94003SOL    HW283849  12.807   4.758  11.747
94004SOL     OW83850   7.073   4.701   7.737
94004SOL    HW183851   7.055   4.634   7.802
94004SOL    HW283852   6.987   4.720   7.699
94005SOL     OW83853  12.017   0.743  10.427
94005SOL    HW183854  11.926   0.730  10.455
94005SOL    HW283855  12.023   0.837  10.408
94006SOL     OW83856   3.129   7.068  12.852
94006SOL    HW183857   3.184   6.996  12.885
94006SOL    HW283858   3.142   7.139  12.915
94007SOL     OW83859   9.908   6.517  11.084
94007SOL    HW183860   9.858   6.580  11.136
94007SOL    HW283861   9.934   6.566  11.006
94008SOL     OW83862  14.399   6.261  11.701
94008SOL    HW183863  14.344   6.305  11.637
94008SOL    HW283864  14.440   6.332  11.751
94009SOL     OW83865   3.832  13.688   0.843
94009SOL    HW183866   3.920  13.709   0.873
94009SOL    HW283867   3.827  13.726   0.755
94010SOL     OW83868   0.502  13.664   3.493
94010SOL    HW183869   0.533  13.574   3.482
94010SOL    HW283870   0.516  13.684   3.585
94011SOL     OW83871   1.255  13.672   9.201
94011SOL    HW183872   1.181  13.614   9.220
94011SOL    HW283873   1.234  13.710   9.116
94012SOL     OW83874   5.966   6.242   0.902
94012SOL    HW183875   5.943   6.180   0.972
94012SOL    HW283876   6.039   6.199   0.857
94013SOL     OW83877   7.262  12.393   4.704
94013SOL    HW183878   7.280  12.410   4.796
94013SOL    HW283879   7.176  12.351   4.704
94014SOL     OW83880   1.715  13.877   8.827
94014SOL    HW183881   1.664  13.907   8.751
94014SOL    HW283882   1.740  13.958   8.872
94015SOL     OW83883   2.379   9.886  11.187
94015SOL    HW183884   2.298   9.934  11.203
94015SOL    HW283885   2.352   9.794  11.188
94016SOL     OW83886   7.971   5.600   9.459
94016SOL    HW183887   7.885   5.629   9.429
94016SOL    HW283888   7.994   5.527   9.401
94017SOL     OW83889  13.352   1.979   9.272
94017SOL    HW183890  13.354   1.958   9.178
94017SOL    HW283891  13.343   2.075   9.275
94018SOL     OW83892   5.556   1.738   2.401
94018SOL    HW183893   5.588   1.653   2.371
94018SOL    HW283894   5.561   1.734   2.496
94019SOL     OW83895  13.013  13.811  11.040
94019SOL    HW183896  12.918  13.816  11.053
94019SOL    HW283897  13.024  13.822  10.945
94020SOL     OW83898   4.032   3.662  12.089
94020SOL    HW183899   4.045   3.749  12.052
94020SOL    HW283900   4.042   3.603  12.014
94021SOL     OW83901   4.433  12.885  13.304
94021SOL    HW183902   4.493  12.813  13.287
94021SOL    HW283903   4.447  12.908  13.396
94022SOL     OW83904   5.147  10.047   2.730
94022SOL    HW183905   5.099  10.081   2.654
94022SOL    HW283906   5.205  10.118   2.757
94023SOL     OW83907   0.184  11.624   6.386
94023SOL    HW183908   0.127  11.549   6.401
94023SOL    HW283909   0.269  11.585   6.363
94024SOL     OW83910  14.445   1.177   9.021
94024SOL    HW183911  14.513   1.117   8.991
94024SOL    HW283912  14.448   1.249   8.959
94025SOL     OW83913   6.997  10.224  11.883
94025SOL    HW183914   7.052  10.285  11.835
94025SOL    HW283915   7.019  10.239  11.975
94026SOL     OW83916  13.259   8.588  10.300
94026SOL    HW183917  13.254   8.534  10.379
94026SOL    HW283918  13.349   8.577  10.269
94027SOL     OW83919   3.996   4.438   7.573
94027SOL    HW183920   4.043   4.460   7.493
94027SOL    HW283921   4.039   4.490   7.641
94028SOL     OW83922  13.137   4.489  12.984
94028SOL    HW183923  13.114   4.497  13.076
94028SOL    HW283924  13.182   4.571  12.963
94029SOL     OW83925   9.094  14.273   2.357
94029SOL    HW183926   9.108  14.216   2.432
94029SOL    HW283927   9.144  14.353   2.379
94030SOL     OW83928   4.458  14.243   1.413
94030SOL    HW183929   4.525  14.208   1.355
94030SOL    HW283930   4.456  14.182   1.487
94031SOL     OW83931  12.381   8.306  13.984
94031SOL    HW183932  12.422   8.369  14.043
94031SOL    HW283933  12.441   8.232  13.981
94032SOL     OW83934  11.524   0.803   7.310
94032SOL    HW183935  11.567   0.753   7.240
94032SOL    HW283936  11.591   0.810   7.378
94033SOL     OW83937  14.780   2.326   5.505
94033SOL    HW183938  14.864   2.289   5.481
94033SOL    HW283939  14.784   2.417   5.475
94034SOL     OW83940   6.746   6.953  13.505
94034SOL    HW183941   6.838   6.970  13.484
94034SOL    HW283942   6.748   6.873  13.558
94035SOL     OW83943  10.190  11.335  10.767
94035SOL    HW183944  10.104  11.329  10.808
94035SOL    HW283945  10.177  11.302  10.678
94036SOL     OW83946   6.933   2.496   7.709
94036SOL    HW183947   6.953   2.498   7.803
94036SOL    HW283948   7.015   2.469   7.668
94037SOL     OW83949   2.211   5.930  12.106
94037SOL    HW183950   2.187   5.839  12.090
94037SOL    HW283951   2.136   5.980  12.071
94038SOL     OW83952  13.461   2.517  11.582
94038SOL    HW183953  13.503   2.532  11.666
94038SOL    HW283954  13.529   2.476  11.528
94039SOL     OW83955  12.941   3.456   7.839
94039SOL    HW183956  12.947   3.443   7.934
94039SOL    HW283957  12.848   3.472   7.823
94040SOL     OW83958  12.969   9.411   1.064
94040SOL    HW183959  12.878   9.387   1.084
94040SOL    HW283960  13.007   9.433   1.149
94041SOL     OW83961   2.213  13.977   7.362
94041SOL    HW183962   2.254  14.063   7.351
94041SOL    HW283963   2.147  13.973   7.294
94042SOL     OW83964  13.734  11.335  12.568
94042SOL    HW183965  13.725  11.273  12.496
94042SOL    HW283966  13.727  11.422  12.527
94043SOL     OW83967   1.976   1.378  12.065
94043SOL    HW183968   2.062   1.406  12.034
94043SOL    HW283969   1.920   1.381  11.987
94044SOL     OW83970  10.037   8.189   4.150
94044SOL    HW183971  10.000   8.190   4.239
94044SOL    HW283972  10.131   8.198   4.163
94045SOL     OW83973   0.807   8.618  10.005
94045SOL    HW183974   0.718   8.586   9.989
94045SOL    HW283975   0.795   8.690  10.067
94046SOL     OW83976   5.010   7.455   5.273
94046SOL    HW183977   5.031   7.544   5.245
94046SOL    HW283978   5.095   7.411   5.275
94047SOL     OW83979  12.631   5.254   5.907
94047SOL    HW183980  12.591   5.212   5.830
94047SOL    HW283981  12.709   5.297   5.873
94048SOL     OW83982   6.549   0.993  11.514
94048SOL    HW183983   6.601   1.068  11.487
94048SOL    HW283984   6.594   0.959  11.591
94049SOL     OW83985   3.574   3.279  12.607
94049SOL    HW183986   3.616   3.195  12.623
94049SOL    HW283987   3.481   3.259  12.597
94050SOL     OW83988  12.299  13.049   1.683
94050SOL    HW183989  12.333  12.975   1.733
94050SOL    HW283990  12.262  13.107   1.749
94051SOL     OW83991   7.007   6.485  13.525
94051SOL    HW183992   6.947   6.418  13.493
94051SOL    HW283993   6.975   6.506  13.613
94052SOL     OW83994   1.743   2.505   2.915
94052SOL    HW183995   1.781   2.418   2.927
94052SOL    HW283996   1.778   2.535   2.831
94053SOL     OW83997  12.101   5.844   3.525
94053SOL    HW183998  12.083   5.928   3.481
94053SOL    HW283999  12.071   5.857   3.615
94054SOL     OW84000   1.054   3.612   2.602
94054SOL    HW184001   1.014   3.609   2.689
94054SOL    HW284002   1.064   3.520   2.578
94055SOL     OW84003   3.076  12.855   4.013
94055SOL    HW184004   3.132  12.871   3.938
94055SOL    HW284005   3.109  12.773   4.051
94056SOL     OW84006   5.824   6.797   8.874
94056SOL    HW184007   5.826   6.817   8.781
94056SOL    HW284008   5.749   6.847   8.908
94057SOL     OW84009   2.518   0.585   1.023
94057SOL    HW184010   2.463   0.639   1.079
94057SOL    HW284011   2.494   0.495   1.044
94058SOL     OW84012  10.208   3.039  13.864
94058SOL    HW184013  10.191   2.988  13.944
94058SOL    HW284014  10.126   3.083  13.846
94059SOL     OW84015  13.674  12.393   4.309
94059SOL    HW184016  13.606  12.438   4.360
94059SOL    HW284017  13.665  12.301   4.333
94060SOL     OW84018   9.190   8.327  13.096
94060SOL    HW184019   9.254   8.351  13.029
94060SOL    HW284020   9.108   8.364  13.065
94061SOL     OW84021  14.158   4.299   0.624
94061SOL    HW184022  14.187   4.373   0.678
94061SOL    HW284023  14.063   4.297   0.637
94062SOL     OW84024   6.549  10.316  13.411
94062SOL    HW184025   6.487  10.273  13.471
94062SOL    HW284026   6.552  10.407  13.440
94063SOL     OW84027   1.039   9.916   8.269
94063SOL    HW184028   0.978   9.914   8.196
94063SOL    HW284029   1.125   9.922   8.228
94064SOL     OW84030   3.545  11.902   2.419
94064SOL    HW184031   3.579  11.942   2.499
94064SOL    HW284032   3.484  11.968   2.384
94065SOL     OW84033   3.853   0.399  10.713
94065SOL    HW184034   3.948   0.390  10.721
94065SOL    HW284035   3.819   0.363  10.794
94066SOL     OW84036   4.829  13.745   2.771
94066SOL    HW184037   4.845  13.667   2.825
94066SOL    HW284038   4.907  13.799   2.784
94067SOL     OW84039   2.418   2.895   9.682
94067SOL    HW184040   2.322   2.898   9.689
94067SOL    HW284041   2.446   2.983   9.708
94068SOL     OW84042  12.515   2.287  14.291
94068SOL    HW184043  12.528   2.363  14.348
94068SOL    HW284044  12.468   2.322  14.215
94069SOL     OW84045   1.950  10.297   2.499
94069SOL    HW184046   1.961  10.288   2.593
94069SOL    HW284047   2.016  10.238   2.461
94070SOL     OW84048   6.339  13.319  12.971
94070SOL    HW184049   6.320  13.300  12.879
94070SOL    HW284050   6.318  13.238  13.017
94071SOL     OW84051   0.353  14.646   3.956
94071SOL    HW184052   0.354  14.575   3.891
94071SOL    HW284053   0.421  14.621   4.019
94072SOL     OW84054  12.946   8.355   7.920
94072SOL    HW184055  12.864   8.398   7.943
94072SOL    HW284056  12.920   8.265   7.899
94073SOL     OW84057  13.694   6.679   3.933
94073SOL    HW184058  13.695   6.636   3.848
94073SOL    HW284059  13.683   6.772   3.913
94074SOL     OW84060  13.233   6.466   8.578
94074SOL    HW184061  13.317   6.440   8.541
94074SOL    HW284062  13.179   6.387   8.574
94075SOL     OW84063   3.984   4.929  13.304
94075SOL    HW184064   4.033   4.905  13.383
94075SOL    HW284065   3.906   4.873  13.307
94076SOL     OW84066   1.490  11.365   9.769
94076SOL    HW184067   1.411  11.412   9.744
94076SOL    HW284068   1.549  11.375   9.694
94077SOL     OW84069  12.313  12.758  11.306
94077SOL    HW184070  12.315  12.807  11.388
94077SOL    HW284071  12.305  12.825  11.238
94078SOL     OW84072   3.227  10.675   2.518
94078SOL    HW184073   3.235  10.596   2.572
94078SOL    HW284074   3.302  10.671   2.459
94079SOL     OW84075   6.113   4.290  11.234
94079SOL    HW184076   6.175   4.328  11.295
94079SOL    HW284077   6.077   4.215  11.281
94080SOL     OW84078   4.033   1.542   5.656
94080SOL    HW184079   4.061   1.589   5.577
94080SOL    HW284080   3.947   1.507   5.633
94081SOL     OW84081   7.950   3.067   2.333
94081SOL    HW184082   7.945   3.160   2.314
94081SOL    HW284083   7.992   3.062   2.419
94082SOL     OW84084   4.636  10.580   8.265
94082SOL    HW184085   4.719  10.615   8.235
94082SOL    HW284086   4.656  10.536   8.348
94083SOL     OW84087   0.257  12.797   2.199
94083SOL    HW184088   0.264  12.869   2.137
94083SOL    HW284089   0.268  12.718   2.145
94084SOL     OW84090   6.853   5.550   0.662
94084SOL    HW184091   6.762   5.532   0.688
94084SOL    HW284092   6.872   5.485   0.594
94085SOL     OW84093   8.979   1.200   7.841
94085SOL    HW184094   9.006   1.109   7.854
94085SOL    HW284095   9.042   1.234   7.777
94086SOL     OW84096   0.751   7.165   9.071
94086SOL    HW184097   0.716   7.218   9.142
94086SOL    HW284098   0.703   7.082   9.077
94087SOL     OW84099   4.077   0.507   1.381
94087SOL    HW184100   4.022   0.430   1.369
94087SOL    HW284101   4.165   0.472   1.395
94088SOL     OW84102   7.547  14.845  12.716
94088SOL    HW184103   7.592  14.856  12.800
94088SOL    HW284104   7.506   0.050  12.699
94089SOL     OW84105   1.191   9.832   8.009
94089SOL    HW184106   1.164   9.818   7.918
94089SOL    HW284107   1.286   9.847   8.004
94090SOL     OW84108   2.600   0.011   3.205
94090SOL    HW184109   2.608   0.105   3.223
94090SOL    HW284110   2.624  14.849   3.287
94091SOL     OW84111  12.828   4.439   1.629
94091SOL    HW184112  12.853   4.531   1.635
94091SOL    HW284113  12.911   4.392   1.616
94092SOL     OW84114   2.228   3.143   1.273
94092SOL    HW184115   2.178   3.198   1.213
94092SOL    HW284116   2.178   3.061   1.277
94093SOL     OW84117   9.659   1.574   8.964
94093SOL    HW184118   9.647   1.571   9.059
94093SOL    HW284119   9.734   1.516   8.947
94094SOL     OW84120   3.535  12.325   5.826
94094SOL    HW184121   3.578  12.245   5.797
94094SOL    HW284122   3.565  12.337   5.916
94095SOL     OW84123   3.299   0.489  12.001
94095SOL    HW184124   3.337   0.482  12.089
94095SOL    HW284125   3.307   0.400  11.965
94096SOL     OW84126  12.503  12.674   9.788
94096SOL    HW184127  12.537  12.587   9.770
94096SOL    HW284128  12.428  12.684   9.730
94097SOL     OW84129   4.872   0.364   6.007
94097SOL    HW184130   4.906   0.364   6.096
94097SOL    HW284131   4.789   0.317   6.013
94098SOL     OW84132   9.421   3.867   7.022
94098SOL    HW184133   9.504   3.824   7.044
94098SOL    HW284134   9.398   3.831   6.937
94099SOL     OW84135  12.280   6.310  14.060
94099SOL    HW184136  12.288   6.234  14.118
94099SOL    HW284137  12.202   6.356  14.091
94100SOL     OW84138  12.750   5.516   6.271
94100SOL    HW184139  12.793   5.431   6.284
94100SOL    HW284140  12.690   5.501   6.198
94101SOL     OW84141   3.146   0.531   5.823
94101SOL    HW184142   3.215   0.464   5.828
94101SOL    HW284143   3.183   0.600   5.769
94102SOL     OW84144   1.648   7.622   9.680
94102SOL    HW184145   1.609   7.707   9.701
94102SOL    HW284146   1.705   7.603   9.755
94103SOL     OW84147   9.756   1.851  13.674
94103SOL    HW184148   9.702   1.819  13.601
94103SOL    HW284149   9.692   1.890  13.734
94104SOL     OW84150  10.618   5.332   3.859
94104SOL    HW184151  10.621   5.261   3.794
94104SOL    HW284152  10.710   5.348   3.880
94105SOL     OW84153   0.679   2.393   8.096
94105SOL    HW184154   0.734   2.461   8.055
94105SOL    HW284155   0.593   2.433   8.102
94106SOL     OW84156  11.022   3.457  11.633
94106SOL    HW184157  10.949   3.516  11.618
94106SOL    HW284158  10.982   3.378  11.671
94107SOL     OW84159   4.317  12.985   0.555
94107SOL    HW184160   4.257  12.945   0.618
94107SOL    HW284161   4.384  12.919   0.540
94108SOL     OW84162   2.618  14.167  10.374
94108SOL    HW184163   2.633  14.208  10.459
94108SOL    HW284164   2.698  14.184  10.324
94109SOL     OW84165   6.960  10.545  11.866
94109SOL    HW184166   7.037  10.601  11.853
94109SOL    HW284167   6.960  10.487  11.790
94110SOL     OW84168   0.890   1.144  14.322
94110SOL    HW184169   0.802   1.124  14.291
94110SOL    HW284170   0.883   1.231  14.362
94111SOL     OW84171   6.645  10.191   4.726
94111SOL    HW184172   6.734  10.163   4.750
94111SOL    HW284173   6.593  10.175   4.805
94112SOL     OW84174  13.312   2.279   5.701
94112SOL    HW184175  13.336   2.209   5.761
94112SOL    HW284176  13.269   2.235   5.628
94113SOL     OW84177   9.545   1.739   8.383
94113SOL    HW184178   9.505   1.826   8.382
94113SOL    HW284179   9.592   1.733   8.300
94114SOL     OW84180  14.005  13.140  14.047
94114SOL    HW184181  13.917  13.178  14.047
94114SOL    HW284182  13.995  13.057  14.000
94115SOL     OW84183   4.973   2.665   8.951
94115SOL    HW184184   4.971   2.609   9.030
94115SOL    HW284185   5.037   2.733   8.972
94116SOL     OW84186   3.677   4.727  13.825
94116SOL    HW184187   3.758   4.737  13.776
94116SOL    HW284188   3.653   4.635  13.813
94117SOL     OW84189   0.806  14.802   9.117
94117SOL    HW184190   0.882  14.756   9.154
94117SOL    HW284191   0.835  14.831   9.031
94118SOL     OW84192   7.049   4.814   2.514
94118SOL    HW184193   7.117   4.778   2.458
94118SOL    HW284194   7.067   4.908   2.517
94119SOL     OW84195   8.967   0.834   9.355
94119SOL    HW184196   9.006   0.836   9.267
94119SOL    HW284197   8.890   0.890   9.349
94120SOL     OW84198  14.786   1.345   1.706
94120SOL    HW184199  14.721   1.285   1.742
94120SOL    HW284200  14.760   1.354   1.614
94121SOL     OW84201   1.242  14.622  12.984
94121SOL    HW184202   1.326  14.604  13.026
94121SOL    HW284203   1.187  14.656  13.055
94122SOL     OW84204   1.543   0.913  12.176
94122SOL    HW184205   1.611   0.915  12.243
94122SOL    HW284206   1.590   0.923  12.094
94123SOL     OW84207  13.389   2.200  12.305
94123SOL    HW184208  13.391   2.278  12.360
94123SOL    HW284209  13.465   2.210  12.247
94124SOL     OW84210   1.014   2.414   1.514
94124SOL    HW184211   0.976   2.493   1.476
94124SOL    HW284212   1.047   2.441   1.599
94125SOL     OW84213   5.430   3.539   0.722
94125SOL    HW184214   5.397   3.592   0.649
94125SOL    HW284215   5.470   3.463   0.679
94126SOL     OW84216  14.327  11.934  12.083
94126SOL    HW184217  14.352  11.956  11.993
94126SOL    HW284218  14.329  12.017  12.129
94127SOL     OW84219   9.965   5.867   2.690
94127SOL    HW184220   9.954   5.823   2.606
94127SOL    HW284221   9.975   5.797   2.754
94128SOL     OW84222  11.586   6.888  13.863
94128SOL    HW184223  11.623   6.852  13.783
94128SOL    HW284224  11.622   6.977  13.868
94129SOL     OW84225   2.947   0.994   2.658
94129SOL    HW184226   2.919   1.055   2.725
94129SOL    HW284227   2.928   1.039   2.575
94130SOL     OW84228  10.309   1.184  11.916
94130SOL    HW184229  10.373   1.113  11.927
94130SOL    HW284230  10.236   1.160  11.973
94131SOL     OW84231   7.445   3.325   5.211
94131SOL    HW184232   7.357   3.335   5.175
94131SOL    HW284233   7.447   3.383   5.287
94132SOL     OW84234  11.246  10.650   4.561
94132SOL    HW184235  11.192  10.646   4.482
94132SOL    HW284236  11.247  10.743   4.585
94133SOL     OW84237   6.471   0.994   8.593
94133SOL    HW184238   6.411   1.050   8.543
94133SOL    HW284239   6.413   0.932   8.638
94134SOL     OW84240   5.182   4.363   0.700
94134SOL    HW184241   5.174   4.420   0.776
94134SOL    HW284242   5.092   4.348   0.671
94135SOL     OW84243  14.634  13.728   9.387
94135SOL    HW184244  14.612  13.690   9.472
94135SOL    HW284245  14.553  13.720   9.336
94136SOL     OW84246  14.090   4.633  11.480
94136SOL    HW184247  14.086   4.601  11.570
94136SOL    HW284248  14.060   4.558  11.427
94137SOL     OW84249  10.849   3.331   6.601
94137SOL    HW184250  10.879   3.251   6.644
94137SOL    HW284251  10.766   3.306   6.560
94138SOL     OW84252   1.330   3.551   1.472
94138SOL    HW184253   1.287   3.624   1.517
94138SOL    HW284254   1.266   3.480   1.475
94139SOL     OW84255  11.468  14.115   8.376
94139SOL    HW184256  11.380  14.087   8.402
94139SOL    HW284257  11.518  14.111   8.457
94140SOL     OW84258  12.678  11.843   4.421
94140SOL    HW184259  12.648  11.797   4.342
94140SOL    HW284260  12.773  11.829   4.422
94141SOL     OW84261   6.246   3.979   1.018
94141SOL    HW184262   6.328   4.027   1.008
94141SOL    HW284263   6.247   3.947   1.108
94142SOL     OW84264   3.906   7.812   1.626
94142SOL    HW184265   3.833   7.854   1.671
94142SOL    HW284266   3.955   7.884   1.587
94143SOL     OW84267  11.336   6.204  13.744
94143SOL    HW184268  11.386   6.123  13.733
94143SOL    HW284269  11.397   6.274  13.719
94144SOL     OW84270  12.884  10.800   6.841
94144SOL    HW184271  12.918  10.890   6.837
94144SOL    HW284272  12.789  10.811   6.838
94145SOL     OW84273   6.685   4.656   7.789
94145SOL    HW184274   6.711   4.569   7.761
94145SOL    HW284275   6.756   4.686   7.846
94146SOL     OW84276  13.223   9.533   3.592
94146SOL    HW184277  13.233   9.490   3.507
94146SOL    HW284278  13.291   9.496   3.647
94147SOL     OW84279  11.470  11.562  13.514
94147SOL    HW184280  11.424  11.595  13.437
94147SOL    HW284281  11.407  11.571  13.585
94148SOL     OW84282   9.539   0.302   1.046
94148SOL    HW184283   9.537   0.318   1.141
94148SOL    HW284284   9.605   0.363   1.013
94149SOL     OW84285   8.698   0.460  12.650
94149SOL    HW184286   8.668   0.432  12.564
94149SOL    HW284287   8.754   0.535  12.633
94150SOL     OW84288  12.199   9.214   6.823
94150SOL    HW184289  12.140   9.252   6.758
94150SOL    HW284290  12.274   9.183   6.773
94151SOL     OW84291  13.075   8.790   8.700
94151SOL    HW184292  13.056   8.725   8.768
94151SOL    HW284293  13.164   8.820   8.719
94152SOL     OW84294  11.006   9.570   7.607
94152SOL    HW184295  11.006   9.659   7.572
94152SOL    HW284296  11.057   9.576   7.688
94153SOL     OW84297  12.235   1.236   6.817
94153SOL    HW184298  12.161   1.297   6.816
94153SOL    HW284299  12.302   1.280   6.869
94154SOL     OW84300  13.585   0.312   2.204
94154SOL    HW184301  13.670   0.269   2.211
94154SOL    HW284302  13.588   0.382   2.269
94155SOL     OW84303   0.771   2.044   8.871
94155SOL    HW184304   0.768   1.953   8.900
94155SOL    HW284305   0.755   2.040   8.777
94156SOL     OW84306  11.763   4.602   5.267
94156SOL    HW184307  11.757   4.536   5.335
94156SOL    HW284308  11.820   4.563   5.200
94157SOL     OW84309   7.859   6.037   5.940
94157SOL    HW184310   7.779   5.988   5.961
94157SOL    HW284311   7.859   6.042   5.845
94158SOL     OW84312   2.597  12.841   5.136
94158SOL    HW184313   2.534  12.847   5.065
94158SOL    HW284314   2.677  12.809   5.095
94159SOL     OW84315   9.865  13.229  10.672
94159SOL    HW184316   9.796  13.276  10.720
94159SOL    HW284317   9.913  13.298  10.625
94160SOL     OW84318   0.053   2.087   8.295
94160SOL    HW184319  14.873   2.082   8.220
94160SOL    HW284320   0.104   2.167   8.281
94161SOL     OW84321   4.426   5.854  14.522
94161SOL    HW184322   4.402   5.780  14.578
94161SOL    HW284323   4.509   5.886  14.559
94162SOL     OW84324   0.253  10.144  13.997
94162SOL    HW184325   0.314  10.073  14.018
94162SOL    HW284326   0.175  10.124  14.048
94163SOL     OW84327   2.621  13.791  14.340
94163SOL    HW184328   2.655  13.849  14.271
94163SOL    HW284329   2.626  13.704  14.302
94164SOL     OW84330   2.180   8.405   8.671
94164SOL    HW184331   2.135   8.475   8.719
94164SOL    HW284332   2.205   8.446   8.588
94165SOL     OW84333   2.226  10.755   3.425
94165SOL    HW184334   2.168  10.787   3.494
94165SOL    HW284335   2.181  10.777   3.344
94166SOL     OW84336  10.102   2.116   4.094
94166SOL    HW184337  10.072   2.183   4.156
94166SOL    HW284338  10.186   2.086   4.129
94167SOL     OW84339   3.520   8.101   0.800
94167SOL    HW184340   3.553   8.177   0.849
94167SOL    HW284341   3.576   8.095   0.723
94168SOL     OW84342   8.584   6.683  11.979
94168SOL    HW184343   8.555   6.609  11.926
94168SOL    HW284344   8.669   6.656  12.013
94169SOL     OW84345  14.235   4.054   3.956
94169SOL    HW184346  14.286   3.983   3.918
94169SOL    HW284347  14.199   4.017   4.037
94170SOL     OW84348  12.355  10.860   3.314
94170SOL    HW184349  12.385  10.835   3.227
94170SOL    HW284350  12.295  10.790   3.340
94171SOL     OW84351   4.572   2.141   8.407
94171SOL    HW184352   4.601   2.214   8.462
94171SOL    HW284353   4.478   2.156   8.395
94172SOL     OW84354   9.201   1.185   2.684
94172SOL    HW184355   9.193   1.118   2.752
94172SOL    HW284356   9.189   1.268   2.731
94173SOL     OW84357   0.927  12.203  11.224
94173SOL    HW184358   0.968  12.230  11.142
94173SOL    HW284359   0.988  12.231  11.292
94174SOL     OW84360   9.798   3.129  11.733
94174SOL    HW184361   9.797   3.087  11.819
94174SOL    HW284362   9.890   3.138  11.711
94175SOL     OW84363   9.378   3.137   7.573
94175SOL    HW184364   9.406   3.112   7.661
94175SOL    HW284365   9.390   3.232   7.571
94176SOL     OW84366   6.712   7.447  12.232
94176SOL    HW184367   6.654   7.440  12.307
94176SOL    HW284368   6.777   7.378  12.245
94177SOL     OW84369  14.789  12.457  12.940
94177SOL    HW184370  14.761  12.513  12.868
94177SOL    HW284371  14.768  12.506  13.019
94178SOL     OW84372  14.191   4.328   1.632
94178SOL    HW184373  14.182   4.261   1.563
94178SOL    HW284374  14.221   4.279   1.708
94179SOL     OW84375   0.306   8.088   6.969
94179SOL    HW184376   0.291   8.006   7.015
94179SOL    HW284377   0.225   8.137   6.979
94180SOL     OW84378   0.604  10.266  14.430
94180SOL    HW184379   0.641  10.179  14.415
94180SOL    HW284380   0.680  10.324  14.433
94181SOL     OW84381  12.911   4.089   4.636
94181SOL    HW184382  12.839   4.036   4.602
94181SOL    HW284383  12.984   4.027   4.646
94182SOL     OW84384  12.309   8.403   3.090
94182SOL    HW184385  12.301   8.436   3.179
94182SOL    HW284386  12.372   8.461   3.048
94183SOL     OW84387   8.155   8.548   4.337
94183SOL    HW184388   8.099   8.496   4.394
94183SOL    HW284389   8.171   8.628   4.387
94184SOL     OW84390   9.306   5.268   0.745
94184SOL    HW184391   9.323   5.257   0.652
94184SOL    HW284392   9.393   5.270   0.785
94185SOL     OW84393   6.326   7.198   2.615
94185SOL    HW184394   6.319   7.179   2.709
94185SOL    HW284395   6.344   7.292   2.611
94186SOL     OW84396  12.950   5.555   2.420
94186SOL    HW184397  12.939   5.460   2.422
94186SOL    HW284398  13.000   5.575   2.499
94187SOL     OW84399   6.749  10.632   2.911
94187SOL    HW184400   6.699  10.558   2.876
94187SOL    HW284401   6.768  10.687   2.835
94188SOL     OW84402   1.056  14.606   1.018
94188SOL    HW184403   1.141  14.614   1.062
94188SOL    HW284404   0.996  14.579   1.088
94189SOL     OW84405   6.180   8.526   6.849
94189SOL    HW184406   6.190   8.612   6.808
94189SOL    HW284407   6.185   8.464   6.776
94190SOL     OW84408  12.217   1.738   4.967
94190SOL    HW184409  12.126   1.748   4.996
94190SOL    HW284410  12.210   1.715   4.874
94191SOL     OW84411   0.432  12.971   9.685
94191SOL    HW184412   0.511  12.932   9.647
94191SOL    HW284413   0.361  12.937   9.631
94192SOL     OW84414   0.552  13.910   3.323
94192SOL    HW184415   0.529  13.883   3.234
94192SOL    HW284416   0.523  13.838   3.379
94193SOL     OW84417   0.872   8.903  13.139
94193SOL    HW184418   0.930   8.828  13.150
94193SOL    HW284419   0.822   8.907  13.220
94194SOL     OW84420  11.130  13.291   2.915
94194SOL    HW184421  11.198  13.287   2.982
94194SOL    HW284422  11.090  13.204   2.916
94195SOL     OW84423   1.266   6.127   2.837
94195SOL    HW184424   1.206   6.177   2.782
94195SOL    HW284425   1.232   6.138   2.925
94196SOL     OW84426   6.907   9.014   1.829
94196SOL    HW184427   6.898   8.987   1.921
94196SOL    HW284428   6.983   9.072   1.829
94197SOL     OW84429   9.420   1.884   1.624
94197SOL    HW184430   9.347   1.909   1.567
94197SOL    HW284431   9.378   1.862   1.708
94198SOL     OW84432   1.262  14.380   3.134
94198SOL    HW184433   1.302  14.436   3.201
94198SOL    HW284434   1.328  14.312   3.118
94199SOL     OW84435  10.059   3.703   7.466
94199SOL    HW184436   9.970   3.670   7.456
94199SOL    HW284437  10.052   3.796   7.446
94200SOL     OW84438   4.900  10.582  10.844
94200SOL    HW184439   4.831  10.607  10.905
94200SOL    HW284440   4.978  10.572  10.899
94201SOL     OW84441  11.558   3.489   9.400
94201SOL    HW184442  11.512   3.551   9.344
94201SOL    HW284443  11.651   3.506   9.383
94202SOL     OW84444  13.962   9.206  11.630
94202SOL    HW184445  13.927   9.137  11.687
94202SOL    HW284446  13.987   9.276  11.690
94203SOL     OW84447   5.152   2.716  11.820
94203SOL    HW184448   5.211   2.768  11.766
94203SOL    HW284449   5.190   2.628  11.820
94204SOL     OW84450   5.115   9.191  13.652
94204SOL    HW184451   5.144   9.250  13.721
94204SOL    HW284452   5.020   9.192  13.657
94205SOL     OW84453   2.448   6.262   5.001
94205SOL    HW184454   2.414   6.187   5.050
94205SOL    HW284455   2.449   6.232   4.910
94206SOL     OW84456   4.500   6.598   7.569
94206SOL    HW184457   4.459   6.583   7.654
94206SOL    HW284458   4.583   6.550   7.574
94207SOL     OW84459  11.151   2.183   4.247
94207SOL    HW184460  11.242   2.181   4.275
94207SOL    HW284461  11.130   2.276   4.239
94208SOL     OW84462   3.152  14.292  13.555
94208SOL    HW184463   3.101  14.287  13.636
94208SOL    HW284464   3.155  14.385  13.534
94209SOL     OW84465   4.798   1.330  12.207
94209SOL    HW184466   4.764   1.420  12.211
94209SOL    HW284467   4.886   1.339  12.171
94210SOL     OW84468   9.728   3.475  14.129
94210SOL    HW184469   9.792   3.534  14.169
94210SOL    HW284470   9.781   3.422  14.068
94211SOL     OW84471   3.539   2.891   5.398
94211SOL    HW184472   3.572   2.928   5.316
94211SOL    HW284473   3.502   2.966   5.445
94212SOL     OW84474   1.142   4.389   8.271
94212SOL    HW184475   1.222   4.440   8.259
94212SOL    HW284476   1.077   4.434   8.217
94213SOL     OW84477   2.672  14.163  10.646
94213SOL    HW184478   2.758  14.185  10.680
94213SOL    HW284479   2.611  14.207  10.705
94214SOL     OW84480   2.417  13.174   5.235
94214SOL    HW184481   2.488  13.120   5.269
94214SOL    HW284482   2.338  13.123   5.253
94215SOL     OW84483  11.419   6.493  10.647
94215SOL    HW184484  11.399   6.510  10.555
94215SOL    HW284485  11.334   6.489  10.690
94216SOL     OW84486  12.093   6.835   4.613
94216SOL    HW184487  12.112   6.904   4.677
94216SOL    HW284488  12.015   6.792   4.646
94217SOL     OW84489   9.012   6.505   9.173
94217SOL    HW184490   8.929   6.551   9.164
94217SOL    HW284491   9.070   6.569   9.214
94218SOL     OW84492   1.222  11.349   3.698
94218SOL    HW184493   1.241  11.416   3.763
94218SOL    HW284494   1.294  11.356   3.635
94219SOL     OW84495   0.762  10.121   9.895
94219SOL    HW184496   0.811  10.187   9.845
94219SOL    HW284497   0.674  10.157   9.902
94220SOL     OW84498   8.085   7.213   0.650
94220SOL    HW184499   8.004   7.231   0.603
94220SOL    HW284500   8.103   7.293   0.699
94221SOL     OW84501   8.405   4.542  12.950
94221SOL    HW184502   8.421   4.487  13.027
94221SOL    HW284503   8.310   4.546  12.943
94222SOL     OW84504   7.614   1.338   1.250
94222SOL    HW184505   7.555   1.321   1.176
94222SOL    HW284506   7.660   1.418   1.226
94223SOL     OW84507  14.786   1.486   7.988
94223SOL    HW184508  14.710   1.535   8.018
94223SOL    HW284509  14.758   1.394   7.992
94224SOL     OW84510   9.009   4.229   7.962
94224SOL    HW184511   9.044   4.156   8.013
94224SOL    HW284512   8.975   4.188   7.882
94225SOL     OW84513   1.759   8.627   6.097
94225SOL    HW184514   1.758   8.532   6.089
94225SOL    HW284515   1.763   8.643   6.192
94226SOL     OW84516   9.025   4.856   0.504
94226SOL    HW184517   8.991   4.867   0.593
94226SOL    HW284518   9.119   4.839   0.516
94227SOL     OW84519   4.467   3.782   9.421
94227SOL    HW184520   4.530   3.713   9.440
94227SOL    HW284521   4.519   3.863   9.425
94228SOL     OW84522   3.040   0.060   1.945
94228SOL    HW184523   3.001  14.876   1.884
94228SOL    HW284524   3.065   0.008   2.021
94229SOL     OW84525  10.049   9.447   6.110
94229SOL    HW184526  10.032   9.386   6.181
94229SOL    HW284527  10.144   9.449   6.102
94230SOL     OW84528  10.349  10.449  10.362
94230SOL    HW184529  10.340  10.544  10.361
94230SOL    HW284530  10.351  10.423  10.270
94231SOL     OW84531   1.428   1.796  10.220
94231SOL    HW184532   1.429   1.868  10.157
94231SOL    HW284533   1.510   1.807  10.269
94232SOL     OW84534   3.937   4.328   1.706
94232SOL    HW184535   3.854   4.354   1.747
94232SOL    HW284536   3.969   4.255   1.760
94233SOL     OW84537  10.822  11.468  13.607
94233SOL    HW184538  10.787  11.441  13.692
94233SOL    HW284539  10.840  11.386  13.561
94234SOL     OW84540   2.054  13.962   8.468
94234SOL    HW184541   2.037  14.055   8.479
94234SOL    HW284542   2.148  13.952   8.487
94235SOL     OW84543   7.262   2.644   7.790
94235SOL    HW184544   7.354   2.617   7.797
94235SOL    HW284545   7.227   2.633   7.878
94236SOL     OW84546   1.373   0.250   0.946
94236SOL    HW184547   1.395   0.305   0.870
94236SOL    HW284548   1.443   0.268   1.009
94237SOL     OW84549   6.083   9.597  10.636
94237SOL    HW184550   6.160   9.615  10.582
94237SOL    HW284551   6.048   9.515  10.602
94238SOL     OW84552   9.724  10.869   5.469
94238SOL    HW184553   9.655  10.806   5.450
94238SOL    HW284554   9.795  10.817   5.507
94239SOL     OW84555   5.934   5.142   8.504
94239SOL    HW184556   5.954   5.112   8.593
94239SOL    HW284557   5.913   5.062   8.456
94240SOL     OW84558   8.080  10.141  10.814
94240SOL    HW184559   8.125  10.056  10.808
94240SOL    HW284560   8.142  10.198  10.859
94241SOL     OW84561   7.740  14.539  13.507
94241SOL    HW184562   7.786  14.612  13.466
94241SOL    HW284563   7.659  14.530  13.456
94242SOL     OW84564   8.954   7.795   3.059
94242SOL    HW184565   9.033   7.744   3.041
94242SOL    HW284566   8.909   7.745   3.127
94243SOL     OW84567   4.333   6.055   3.787
94243SOL    HW184568   4.326   6.137   3.835
94243SOL    HW284569   4.376   5.995   3.848
94244SOL     OW84570   8.100  13.186   9.566
94244SOL    HW184571   8.046  13.122   9.519
94244SOL    HW284572   8.042  13.221   9.633
94245SOL     OW84573   2.513   9.679   1.727
94245SOL    HW184574   2.546   9.598   1.690
94245SOL    HW284575   2.507   9.662   1.821
94246SOL     OW84576   5.507  14.085   2.205
94246SOL    HW184577   5.448  14.040   2.145
94246SOL    HW284578   5.460  14.165   2.229
94247SOL     OW84579  12.068  13.952  11.494
94247SOL    HW184580  12.085  13.963  11.401
94247SOL    HW284581  12.061  14.041  11.528
94248SOL     OW84582   7.788   5.477   0.896
94248SOL    HW184583   7.694   5.483   0.909
94248SOL    HW284584   7.819   5.420   0.967
94249SOL     OW84585  12.732   7.943   2.152
94249SOL    HW184586  12.732   7.936   2.056
94249SOL    HW284587  12.647   7.982   2.173
94250SOL     OW84588   1.617   6.541   6.000
94250SOL    HW184589   1.694   6.599   5.996
94250SOL    HW284590   1.640   6.467   5.943
94251SOL     OW84591   2.557  14.012  13.863
94251SOL    HW184592   2.545  13.921  13.891
94251SOL    HW284593   2.608  14.005  13.782
94252SOL     OW84594   1.980  13.622   7.834
94252SOL    HW184595   1.918  13.675   7.783
94252SOL    HW284596   1.938  13.611   7.919
94253SOL     OW84597   4.502   4.557   3.238
94253SOL    HW184598   4.581   4.511   3.208
94253SOL    HW284599   4.430   4.510   3.197
94254SOL     OW84600   3.764   9.370  11.415
94254SOL    HW184601   3.738   9.450  11.369
94254SOL    HW284602   3.712   9.370  11.495
94255SOL     OW84603   4.681  14.577   3.728
94255SOL    HW184604   4.763  14.554   3.772
94255SOL    HW284605   4.643  14.493   3.702
94256SOL     OW84606   0.434  11.227   3.013
94256SOL    HW184607   0.354  11.199   3.057
94256SOL    HW284608   0.439  11.321   3.030
94257SOL     OW84609  14.851  13.081  10.595
94257SOL    HW184610   0.003  13.112  10.511
94257SOL    HW284611  14.781  13.020  10.573
94258SOL     OW84612  10.955   8.145   7.947
94258SOL    HW184613  10.915   8.189   7.873
94258SOL    HW284614  10.942   8.205   8.021
94259SOL     OW84615   4.492  12.737  10.370
94259SOL    HW184616   4.544  12.657  10.373
94259SOL    HW284617   4.556  12.806  10.354
94260SOL     OW84618   5.248   5.922  11.750
94260SOL    HW184619   5.187   5.855  11.718
94260SOL    HW284620   5.328   5.874  11.771
94261SOL     OW84621   2.964   3.962  14.645
94261SOL    HW184622   3.013   3.884  14.670
94261SOL    HW284623   2.983   4.025  14.715
94262SOL     OW84624   0.979  13.559  12.413
94262SOL    HW184625   0.959  13.648  12.443
94262SOL    HW284626   0.893  13.521  12.394
94263SOL     OW84627  12.117   1.123   1.598
94263SOL    HW184628  12.094   1.121   1.505
94263SOL    HW284629  12.175   1.048   1.609
94264SOL     OW84630   2.869   0.757   2.906
94264SOL    HW184631   2.836   0.844   2.928
94264SOL    HW284632   2.832   0.739   2.819
94265SOL     OW84633   8.697   6.618  11.691
94265SOL    HW184634   8.715   6.682  11.622
94265SOL    HW284635   8.632   6.559  11.653
94266SOL     OW84636   6.439  10.135   9.366
94266SOL    HW184637   6.509  10.137   9.300
94266SOL    HW284638   6.359  10.116   9.315
94267SOL     OW84639   5.033   3.859   1.971
94267SOL    HW184640   5.118   3.850   1.929
94267SOL    HW284641   5.044   3.818   2.057
94268SOL     OW84642   6.427   2.496   8.574
94268SOL    HW184643   6.497   2.454   8.525
94268SOL    HW284644   6.464   2.510   8.661
94269SOL     OW84645   3.514   1.990  13.193
94269SOL    HW184646   3.441   1.932  13.171
94269SOL    HW284647   3.488   2.076  13.159
94270SOL     OW84648  12.175   3.111   5.046
94270SOL    HW184649  12.248   3.124   4.986
94270SOL    HW284650  12.216   3.107   5.133
94271SOL     OW84651   7.796   9.168  11.746
94271SOL    HW184652   7.879   9.145  11.703
94271SOL    HW284653   7.780   9.259  11.719
94272SOL     OW84654  13.201   3.308   2.912
94272SOL    HW184655  13.263   3.361   2.863
94272SOL    HW284656  13.220   3.326   3.004
94273SOL     OW84657   6.258   4.457   2.328
94273SOL    HW184658   6.281   4.549   2.320
94273SOL    HW284659   6.331   4.418   2.377
94274SOL     OW84660  13.317  13.895   8.833
94274SOL    HW184661  13.299  13.899   8.738
94274SOL    HW284662  13.407  13.924   8.841
94275SOL     OW84663   4.993   1.994  11.022
94275SOL    HW184664   4.926   2.001  11.090
94275SOL    HW284665   4.949   1.950  10.949
94276SOL     OW84666   6.665  12.372  13.297
94276SOL    HW184667   6.623  12.442  13.347
94276SOL    HW284668   6.680  12.302  13.362
94277SOL     OW84669   9.682  10.803   4.426
94277SOL    HW184670   9.693  10.708   4.424
94277SOL    HW284671   9.757  10.836   4.474
94278SOL     OW84672  14.312   7.503  12.478
94278SOL    HW184673  14.222   7.509  12.512
94278SOL    HW284674  14.339   7.594  12.467
94279SOL     OW84675  10.978  11.173   5.349
94279SOL    HW184676  11.072  11.160   5.337
94279SOL    HW284677  10.940  11.086   5.334
94280SOL     OW84678  11.801   4.662   3.026
94280SOL    HW184679  11.878   4.647   2.971
94280SOL    HW284680  11.830   4.640   3.115
94281SOL     OW84681  11.067   8.032  10.860
94281SOL    HW184682  10.985   8.037  10.909
94281SOL    HW284683  11.131   8.074  10.917
94282SOL     OW84684   2.128   2.627   4.335
94282SOL    HW184685   2.171   2.684   4.399
94282SOL    HW284686   2.096   2.553   4.386
94283SOL     OW84687   2.735   2.543   9.095
94283SOL    HW184688   2.710   2.473   9.035
94283SOL    HW284689   2.788   2.602   9.042
94284SOL     OW84690   3.120  10.967   9.487
94284SOL    HW184691   3.169  10.888   9.506
94284SOL    HW284692   3.124  11.018   9.568
94285SOL     OW84693  12.202   1.183   2.866
94285SOL    HW184694  12.129   1.231   2.827
94285SOL    HW284695  12.261   1.251   2.898
94286SOL     OW84696   1.340  10.289   5.428
94286SOL    HW184697   1.299  10.370   5.457
94286SOL    HW284698   1.352  10.238   5.508
94287SOL     OW84699   5.200  10.941   9.533
94287SOL    HW184700   5.137  10.950   9.462
94287SOL    HW284701   5.167  10.867   9.585
94288SOL     OW84702  14.727   4.434  11.646
94288SOL    HW184703  14.713   4.487  11.724
94288SOL    HW284704  14.751   4.347  11.680
94289SOL     OW84705   6.280  13.746  13.037
94289SOL    HW184706   6.245  13.806  12.970
94289SOL    HW284707   6.208  13.685  13.053
94290SOL     OW84708   7.640   0.376  11.337
94290SOL    HW184709   7.698   0.440  11.297
94290SOL    HW284710   7.553   0.399  11.305
94291SOL     OW84711   2.030   5.534   2.144
94291SOL    HW184712   2.062   5.566   2.060
94291SOL    HW284713   1.954   5.590   2.163
94292SOL     OW84714   2.219  10.400   5.163
94292SOL    HW184715   2.276  10.330   5.130
94292SOL    HW284716   2.137  10.389   5.114
94293SOL     OW84717   0.713   4.194   0.643
94293SOL    HW184718   0.727   4.266   0.580
94293SOL    HW284719   0.690   4.119   0.588
94294SOL     OW84720   7.246   3.754   6.414
94294SOL    HW184721   7.327   3.764   6.464
94294SOL    HW284722   7.200   3.837   6.426
94295SOL     OW84723   8.867   1.457  13.924
94295SOL    HW184724   8.840   1.514  13.852
94295SOL    HW284725   8.961   1.471  13.933
94296SOL     OW84726   0.189   3.261   4.157
94296SOL    HW184727   0.247   3.275   4.082
94296SOL    HW284728   0.245   3.221   4.223
94297SOL     OW84729  12.969   2.711   3.557
94297SOL    HW184730  12.925   2.638   3.514
94297SOL    HW284731  12.929   2.714   3.645
94298SOL     OW84732   8.969   2.278   2.754
94298SOL    HW184733   8.894   2.236   2.797
94298SOL    HW284734   8.930   2.347   2.700
94299SOL     OW84735   1.947  14.476   9.247
94299SOL    HW184736   1.942  14.555   9.194
94299SOL    HW284737   2.035  14.477   9.284
94300SOL     OW84738  14.847  10.223   8.309
94300SOL    HW184739  14.824  10.311   8.281
94300SOL    HW284740  14.840  10.169   8.230
94301SOL     OW84741   1.741   2.457   0.951
94301SOL    HW184742   1.658   2.438   0.995
94301SOL    HW284743   1.808   2.432   1.015
94302SOL     OW84744   2.884  10.014  14.189
94302SOL    HW184745   2.977  10.026  14.168
94302SOL    HW284746   2.855   9.942  14.133
94303SOL     OW84747   6.523   6.527   0.143
94303SOL    HW184748   6.544   6.521   0.050
94303SOL    HW284749   6.485   6.614   0.154
94304SOL     OW84750   4.258   3.617   3.773
94304SOL    HW184751   4.233   3.539   3.725
94304SOL    HW284752   4.349   3.600   3.801
94305SOL     OW84753  10.057   3.461   9.991
94305SOL    HW184754  10.108   3.420   9.922
94305SOL    HW284755   9.968   3.426   9.980
94306SOL     OW84756  14.169   8.649   9.394
94306SOL    HW184757  14.111   8.581   9.429
94306SOL    HW284758  14.116   8.729   9.398
94307SOL     OW84759   6.246  14.187  12.881
94307SOL    HW184760   6.339  14.172  12.897
94307SOL    HW284761   6.204  14.172  12.966
94308SOL     OW84762   0.606  10.376  13.014
94308SOL    HW184763   0.521  10.420  13.011
94308SOL    HW284764   0.648  10.412  13.092
94309SOL     OW84765   7.435  12.430  12.703
94309SOL    HW184766   7.506  12.371  12.677
94309SOL    HW284767   7.368  12.419  12.636
94310SOL     OW84768   3.994   4.296  13.503
94310SOL    HW184769   3.906   4.316  13.535
94310SOL    HW284770   4.052   4.326  13.573
94311SOL     OW84771   5.503   1.409  12.149
94311SOL    HW184772   5.473   1.457  12.225
94311SOL    HW284773   5.546   1.474  12.094
94312SOL     OW84774   8.288  14.705  13.610
94312SOL    HW184775   8.200  14.706  13.648
94312SOL    HW284776   8.286  14.774  13.543
94313SOL     OW84777   2.891  10.773  11.526
94313SOL    HW184778   2.871  10.859  11.491
94313SOL    HW284779   2.820  10.754  11.587
94314SOL     OW84780   5.023   8.037   0.172
94314SOL    HW184781   5.078   7.982   0.229
94314SOL    HW284782   5.033   7.999   0.085
94315SOL     OW84783   3.244  10.851  13.215
94315SOL    HW184784   3.218  10.942  13.203
94315SOL    HW284785   3.172  10.812  13.266
94316SOL     OW84786  12.076  11.485  13.160
94316SOL    HW184787  12.067  11.560  13.101
94316SOL    HW284788  11.988  11.449  13.167
94317SOL     OW84789  10.289   3.573   9.166
94317SOL    HW184790  10.277   3.509   9.095
94317SOL    HW284791  10.285   3.658   9.123
94318SOL     OW84792   8.954  12.576   3.497
94318SOL    HW184793   8.896  12.501   3.485
94318SOL    HW284794   8.905  12.650   3.461
94319SOL     OW84795   6.660  10.097  10.771
94319SOL    HW184796   6.604  10.134  10.839
94319SOL    HW284797   6.722  10.042  10.819
94320SOL     OW84798  11.727  13.289   9.941
94320SOL    HW184799  11.665  13.313  10.011
94320SOL    HW284800  11.806  13.338   9.962
94321SOL     OW84801  14.857   8.450   5.144
94321SOL    HW184802  14.785   8.406   5.098
94321SOL    HW284803  14.816   8.527   5.185
94322SOL     OW84804   8.218  10.074   0.236
94322SOL    HW184805   8.168  10.150   0.268
94322SOL    HW284806   8.225  10.017   0.312
94323SOL     OW84807   3.654  11.700  12.446
94323SOL    HW184808   3.740  11.702  12.405
94323SOL    HW284809   3.662  11.637  12.518
94324SOL     OW84810   7.604   9.871   0.255
94324SOL    HW184811   7.513   9.901   0.253
94324SOL    HW284812   7.652   9.943   0.296
94325SOL     OW84813   2.168   3.044  10.758
94325SOL    HW184814   2.129   3.055  10.844
94325SOL    HW284815   2.260   3.068  10.770
94326SOL     OW84816   8.990   0.591   9.487
94326SOL    HW184817   8.983   0.607   9.581
94326SOL    HW284818   8.980   0.677   9.447
94327SOL     OW84819  14.861   2.511   7.874
94327SOL    HW184820  14.808   2.456   7.817
94327SOL    HW284821   0.026   2.450   7.932
94328SOL     OW84822   7.947   4.780   4.482
94328SOL    HW184823   7.865   4.760   4.437
94328SOL    HW284824   7.939   4.873   4.506
94329SOL     OW84825   7.059   2.752  10.595
94329SOL    HW184826   7.126   2.742  10.662
94329SOL    HW284827   7.104   2.796  10.523
94330SOL     OW84828   7.374   2.336   7.885
94330SOL    HW184829   7.322   2.257   7.876
94330SOL    HW284830   7.311   2.407   7.885
94331SOL     OW84831  13.995   7.634  14.624
94331SOL    HW184832  13.970   7.629  14.532
94331SOL    HW284833  13.951   7.713  14.656
94332SOL     OW84834  14.734   6.945   1.127
94332SOL    HW184835  14.727   7.038   1.107
94332SOL    HW284836  14.739   6.941   1.222
94333SOL     OW84837   8.189   5.839  10.307
94333SOL    HW184838   8.280   5.818  10.286
94333SOL    HW284839   8.174   5.925  10.267
94334SOL     OW84840   8.957  11.923   2.415
94334SOL    HW184841   9.003  12.006   2.429
94334SOL    HW284842   8.987  11.867   2.486
94335SOL     OW84843   3.925   0.141   5.634
94335SOL    HW184844   3.942   0.123   5.727
94335SOL    HW284845   3.933   0.236   5.626
94336SOL     OW84846  11.166   4.022  11.612
94336SOL    HW184847  11.192   3.966  11.539
94336SOL    HW284848  11.070   4.016  11.613
94337SOL     OW84849  11.510   9.843   9.775
94337SOL    HW184850  11.485   9.753   9.754
94337SOL    HW284851  11.605   9.844   9.768
94338SOL     OW84852  13.394   7.349  10.065
94338SOL    HW184853  13.420   7.331  10.155
94338SOL    HW284854  13.467   7.399  10.028
94339SOL     OW84855  11.239   5.445   5.476
94339SOL    HW184856  11.241   5.505   5.551
94339SOL    HW284857  11.295   5.372   5.501
94340SOL     OW84858  12.455   6.770  14.550
94340SOL    HW184859  12.509   6.830  14.601
94340SOL    HW284860  12.388   6.739  14.611
94341SOL     OW84861   4.903   8.953   2.369
94341SOL    HW184862   4.970   8.965   2.436
94341SOL    HW284863   4.901   8.858   2.355
94342SOL     OW84864   3.562  11.333  14.247
94342SOL    HW184865   3.654  11.331  14.272
94342SOL    HW284866   3.546  11.248  14.207
94343SOL     OW84867  14.035   8.204  13.809
94343SOL    HW184868  13.944   8.229  13.824
94343SOL    HW284869  14.036   8.169  13.720
94344SOL     OW84870   5.730   1.793   4.867
94344SOL    HW184871   5.796   1.813   4.801
94344SOL    HW284872   5.684   1.876   4.880
94345SOL     OW84873   7.834   3.697   6.407
94345SOL    HW184874   7.876   3.708   6.321
94345SOL    HW284875   7.852   3.780   6.452
94346SOL     OW84876   1.247   2.524   0.285
94346SOL    HW184877   1.249   2.618   0.267
94346SOL    HW284878   1.237   2.518   0.380
94347SOL     OW84879   6.519  10.709   5.642
94347SOL    HW184880   6.434  10.742   5.613
94347SOL    HW284881   6.524  10.621   5.606
94348SOL     OW84882  12.064   7.405  12.537
94348SOL    HW184883  12.066   7.500  12.521
94348SOL    HW284884  12.136   7.370  12.484
94349SOL     OW84885   6.869  13.436   6.022
94349SOL    HW184886   6.782  13.398   6.031
94349SOL    HW284887   6.920  13.398   6.093
94350SOL     OW84888   4.682   1.001   8.667
94350SOL    HW184889   4.590   0.982   8.684
94350SOL    HW284890   4.726   0.917   8.680
94351SOL     OW84891   4.763   0.281  11.749
94351SOL    HW184892   4.693   0.222  11.721
94351SOL    HW284893   4.770   0.346  11.679
94352SOL     OW84894  13.163   3.761  11.041
94352SOL    HW184895  13.247   3.765  10.994
94352SOL    HW284896  13.187   3.768  11.133
94353SOL     OW84897   0.309  14.317   9.155
94353SOL    HW184898   0.368  14.392   9.157
94353SOL    HW284899   0.365  14.242   9.176
94354SOL     OW84900   6.310   1.627   3.937
94354SOL    HW184901   6.286   1.705   3.987
94354SOL    HW284902   6.365   1.659   3.867
94355SOL     OW84903   2.460  12.204   0.110
94355SOL    HW184904   2.475  12.286   0.063
94355SOL    HW284905   2.548  12.167   0.122
94356SOL     OW84906   6.774   0.912   6.993
94356SOL    HW184907   6.712   0.935   7.062
94356SOL    HW284908   6.762   0.818   6.979
94357SOL     OW84909   0.275   6.382  13.353
94357SOL    HW184910   0.334   6.379  13.277
94357SOL    HW284911   0.284   6.296  13.393
94358SOL     OW84912  12.911   4.640   2.721
94358SOL    HW184913  12.999   4.632   2.686
94358SOL    HW284914  12.898   4.560   2.772
94359SOL     OW84915  12.538   8.362   0.316
94359SOL    HW184916  12.564   8.285   0.366
94359SOL    HW284917  12.443   8.354   0.307
94360SOL     OW84918   9.479   2.454   6.579
94360SOL    HW184919   9.542   2.523   6.557
94360SOL    HW284920   9.421   2.495   6.645
94361SOL     OW84921   2.220   7.750  14.270
94361SOL    HW184922   2.146   7.732  14.212
94361SOL    HW284923   2.188   7.730  14.357
94362SOL     OW84924  10.880   7.300   9.531
94362SOL    HW184925  10.890   7.206   9.548
94362SOL    HW284926  10.785   7.312   9.520
94363SOL     OW84927  14.210   8.586   7.531
94363SOL    HW184928  14.136   8.626   7.576
94363SOL    HW284929  14.280   8.650   7.537
94364SOL     OW84930   4.146   0.196  10.619
94364SOL    HW184931   4.142   0.253  10.696
94364SOL    HW284932   4.169   0.254  10.547
94365SOL     OW84933   0.928  11.706   0.927
94365SOL    HW184934   0.994  11.767   0.896
94365SOL    HW284935   0.974  11.651   0.990
94366SOL     OW84936  12.822   4.525  12.186
94366SOL    HW184937  12.760   4.542  12.257
94366SOL    HW284938  12.898   4.488  12.230
94367SOL     OW84939   4.351   2.445   6.785
94367SOL    HW184940   4.360   2.468   6.693
94367SOL    HW284941   4.412   2.372   6.798
94368SOL     OW84942  13.087  10.835   8.710
94368SOL    HW184943  13.039  10.879   8.640
94368SOL    HW284944  13.080  10.742   8.690
94369SOL     OW84945   1.139  11.680  12.798
94369SOL    HW184946   1.213  11.671  12.857
94369SOL    HW284947   1.171  11.648  12.713
94370SOL     OW84948   4.008   9.638   0.473
94370SOL    HW184949   4.082   9.584   0.444
94370SOL    HW284950   3.972   9.590   0.548
94371SOL     OW84951  10.742   8.915   5.360
94371SOL    HW184952  10.831   8.950   5.368
94371SOL    HW284953  10.749   8.825   5.391
94372SOL     OW84954  14.160   2.136  14.697
94372SOL    HW184955  14.093   2.115  14.762
94372SOL    HW284956  14.128   2.096  14.616
94373SOL     OW84957  12.311  11.426   6.194
94373SOL    HW184958  12.344  11.474   6.271
94373SOL    HW284959  12.350  11.471   6.119
94374SOL     OW84960  12.462  14.308   6.171
94374SOL    HW184961  12.541  14.343   6.212
94374SOL    HW284962  12.456  14.354   6.087
94375SOL     OW84963   9.818   4.970   8.861
94375SOL    HW184964   9.820   5.050   8.808
94375SOL    HW284965   9.778   4.905   8.803
94376SOL     OW84966   1.623   9.260   0.262
94376SOL    HW184967   1.621   9.166   0.282
94376SOL    HW284968   1.534   9.280   0.234
94377SOL     OW84969  11.185  10.055   7.139
94377SOL    HW184970  11.192   9.968   7.178
94377SOL    HW284971  11.100  10.054   7.095
94378SOL     OW84972   0.175   7.528   6.308
94378SOL    HW184973   0.252   7.523   6.365
94378SOL    HW284974   0.190   7.604   6.252
94379SOL     OW84975  12.593   6.021   4.285
94379SOL    HW184976  12.549   5.937   4.300
94379SOL    HW284977  12.672   6.016   4.338
94380SOL     OW84978   4.579   0.948   3.693
94380SOL    HW184979   4.542   0.946   3.604
94380SOL    HW284980   4.650   0.883   3.690
94381SOL     OW84981   8.381   5.525   5.887
94381SOL    HW184982   8.431   5.446   5.869
94381SOL    HW284983   8.330   5.540   5.807
94382SOL     OW84984   6.497  14.330  10.416
94382SOL    HW184985   6.497  14.340  10.320
94382SOL    HW284986   6.590  14.320  10.438
94383SOL     OW84987   7.224   3.045   5.107
94383SOL    HW184988   7.142   3.092   5.092
94383SOL    HW284989   7.263   3.034   5.020
94384SOL     OW84990   0.850  13.420   7.995
94384SOL    HW184991   0.768  13.470   7.996
94384SOL    HW284992   0.914  13.479   7.955
94385SOL     OW84993   4.263   6.232   7.132
94385SOL    HW184994   4.332   6.274   7.185
94385SOL    HW284995   4.213   6.180   7.195
94386SOL     OW84996  11.910   9.957   3.521
94386SOL    HW184997  11.924   9.946   3.615
94386SOL    HW284998  11.941   9.875   3.482
94387SOL     OW84999  10.222   6.357   2.767
94387SOL    HW185000  10.281   6.300   2.816
94387SOL    HW285001  10.237   6.444   2.803
94388SOL     OW85002  12.124   0.598   6.921
94388SOL    HW185003  12.172   0.519   6.945
94388SOL    HW285004  12.106   0.588   6.827
94389SOL     OW85005  10.228   3.846   7.146
94389SOL    HW185006  10.296   3.824   7.210
94389SOL    HW285007  10.192   3.761   7.119
94390SOL     OW85008  12.448   7.666   2.824
94390SOL    HW185009  12.479   7.658   2.914
94390SOL    HW285010  12.499   7.738   2.787
94391SOL     OW85011   8.319   1.824  12.360
94391SOL    HW185012   8.414   1.826  12.370
94391SOL    HW285013   8.299   1.902  12.309
94392SOL     OW85014  10.576   5.222   1.193
94392SOL    HW185015  10.628   5.271   1.130
94392SOL    HW285016  10.580   5.131   1.163
94393SOL     OW85017   1.898  14.749   8.291
94393SOL    HW185018   1.931  14.807   8.223
94393SOL    HW285019   1.813  14.720   8.259
94394SOL     OW85020   6.555   5.372   6.609
94394SOL    HW185021   6.572   5.465   6.628
94394SOL    HW285022   6.591   5.326   6.685
94395SOL     OW85023   3.807   2.862   4.016
94395SOL    HW185024   3.863   2.940   4.011
94395SOL    HW285025   3.736   2.888   4.075
94396SOL     OW85026   2.804  14.560   8.470
94396SOL    HW185027   2.857  14.626   8.515
94396SOL    HW285028   2.747  14.524   8.539
94397SOL     OW85029   7.276   1.885   7.367
94397SOL    HW185030   7.257   1.978   7.383
94397SOL    HW285031   7.363   1.871   7.403
94398SOL     OW85032  10.967   1.132   9.577
94398SOL    HW185033  10.892   1.166   9.529
94398SOL    HW285034  10.929   1.073   9.643
94399SOL     OW85035  14.826   5.359  13.280
94399SOL    HW185036  14.813   5.333  13.189
94399SOL    HW285037   0.030   5.319  13.305
94400SOL     OW85038  13.800   5.346   7.449
94400SOL    HW185039  13.748   5.292   7.389
94400SOL    HW285040  13.743   5.420   7.470
94401SOL     OW85041  10.850   6.702  11.785
94401SOL    HW185042  10.902   6.630  11.749
94401SOL    HW285043  10.827   6.673  11.874
94402SOL     OW85044  13.720  10.262  10.963
94402SOL    HW185045  13.626  10.257  10.980
94402SOL    HW285046  13.740  10.180  10.919
94403SOL     OW85047  11.660   5.862   8.591
94403SOL    HW185048  11.703   5.883   8.509
94403SOL    HW285049  11.571   5.835   8.566
94404SOL     OW85050   0.372  11.544   2.524
94404SOL    HW185051   0.446  11.558   2.582
94404SOL    HW285052   0.386  11.457   2.485
94405SOL     OW85053  10.037   7.676   6.750
94405SOL    HW185054  10.071   7.726   6.824
94405SOL    HW285055   9.947   7.655   6.774
94406SOL     OW85056  11.432   4.392   0.412
94406SOL    HW185057  11.453   4.303   0.441
94406SOL    HW285058  11.508   4.419   0.360
94407SOL     OW85059   7.874  10.802  14.213
94407SOL    HW185060   7.890  10.896  14.211
94407SOL    HW285061   7.900  10.771  14.127
94408SOL     OW85062  12.445   3.896  13.599
94408SOL    HW185063  12.477   3.892  13.509
94408SOL    HW285064  12.412   3.985  13.609
94409SOL     OW85065   5.569   0.020   1.531
94409SOL    HW185066   5.476   0.003   1.512
94409SOL    HW285067   5.593  14.830   1.592
94410SOL     OW85068  11.917   9.270  10.542
94410SOL    HW185069  11.986   9.223  10.495
94410SOL    HW285070  11.925   9.239  10.632
94411SOL     OW85071   1.209   4.345  10.244
94411SOL    HW185072   1.191   4.414  10.307
94411SOL    HW285073   1.276   4.291  10.287
94412SOL     OW85074   8.898   3.732  10.695
94412SOL    HW185075   8.993   3.741  10.690
94412SOL    HW285076   8.864   3.805  10.642
94413SOL     OW85077   1.834   5.379   7.631
94413SOL    HW185078   1.761   5.377   7.694
94413SOL    HW285079   1.792   5.365   7.546
94414SOL     OW85080   1.602  12.295   3.868
94414SOL    HW185081   1.690  12.277   3.901
94414SOL    HW285082   1.562  12.209   3.859
94415SOL     OW85083   6.434  10.408   4.105
94415SOL    HW185084   6.349  10.395   4.063
94415SOL    HW285085   6.498  10.383   4.039
94416SOL     OW85086   0.294   6.156   9.277
94416SOL    HW185087   0.220   6.191   9.327
94416SOL    HW285088   0.364   6.144   9.342
94417SOL     OW85089   7.693   8.936   9.202
94417SOL    HW185090   7.694   9.026   9.234
94417SOL    HW285091   7.617   8.933   9.143
94418SOL     OW85092   9.177  13.480  13.674
94418SOL    HW185093   9.172  13.473  13.770
94418SOL    HW285094   9.266  13.452  13.653
94419SOL     OW85095  14.219   3.037   7.161
94419SOL    HW185096  14.133   3.074   7.140
94419SOL    HW285097  14.269   3.111   7.196
94420SOL     OW85098   2.986  14.329   9.754
94420SOL    HW185099   3.036  14.248   9.745
94420SOL    HW285100   2.998  14.355   9.845
94421SOL     OW85101  11.696   9.775   3.260
94421SOL    HW185102  11.661   9.864   3.259
94421SOL    HW285103  11.697   9.748   3.168
94422SOL     OW85104   2.464   1.339   8.958
94422SOL    HW185105   2.543   1.371   9.002
94422SOL    HW285106   2.490   1.328   8.866
94423SOL     OW85107   9.315   3.864  11.355
94423SOL    HW185108   9.310   3.915  11.274
94423SOL    HW285109   9.408   3.866  11.379
94424SOL     OW85110  10.617   0.351   0.109
94424SOL    HW185111  10.552   0.308   0.165
94424SOL    HW285112  10.598   0.444   0.116
94425SOL     OW85113   5.421   2.792   6.604
94425SOL    HW185114   5.409   2.762   6.694
94425SOL    HW285115   5.403   2.715   6.550
94426SOL     OW85116   6.901   2.204   2.382
94426SOL    HW185117   6.982   2.254   2.372
94426SOL    HW285118   6.834   2.258   2.340
94427SOL     OW85119   9.888   3.368   2.596
94427SOL    HW185120   9.817   3.303   2.595
94427SOL    HW285121   9.967   3.316   2.608
94428SOL     OW85122  12.740   8.165   5.572
94428SOL    HW185123  12.752   8.116   5.653
94428SOL    HW285124  12.648   8.192   5.573
94429SOL     OW85125   2.040  12.449   3.375
94429SOL    HW185126   2.056  12.491   3.290
94429SOL    HW285127   2.090  12.502   3.437
94430SOL     OW85128  14.194  10.539  11.634
94430SOL    HW185129  14.200  10.501  11.546
94430SOL    HW285130  14.193  10.634  11.618
94431SOL     OW85131   7.826   2.810  13.644
94431SOL    HW185132   7.821   2.902  13.671
94431SOL    HW285133   7.898   2.774  13.696
94432SOL     OW85134   3.507   0.309   8.856
94432SOL    HW185135   3.424   0.296   8.902
94432SOL    HW285136   3.487   0.290   8.764
94433SOL     OW85137   0.319   5.545   6.775
94433SOL    HW185138   0.399   5.528   6.826
94433SOL    HW285139   0.260   5.473   6.797
94434SOL     OW85140  13.699   1.984   8.447
94434SOL    HW185141  13.761   2.047   8.412
94434SOL    HW285142  13.636   2.038   8.495
94435SOL     OW85143  12.053   3.935   3.509
94435SOL    HW185144  12.149   3.936   3.507
94435SOL    HW285145  12.030   3.843   3.521
94436SOL     OW85146   0.545  14.293   4.118
94436SOL    HW185147   0.597  14.247   4.183
94436SOL    HW285148   0.464  14.317   4.164
94437SOL     OW85149  11.446   5.391   9.468
94437SOL    HW185150  11.502   5.453   9.514
94437SOL    HW285151  11.369   5.442   9.443
94438SOL     OW85152  10.715  12.321  13.640
94438SOL    HW185153  10.703  12.298  13.548
94438SOL    HW285154  10.807  12.304  13.657
94439SOL     OW85155   3.982   9.340  12.236
94439SOL    HW185156   4.039   9.311  12.307
94439SOL    HW285157   4.041   9.381  12.173
94440SOL     OW85158   7.003   7.221   9.109
94440SOL    HW185159   7.070   7.221   9.040
94440SOL    HW285160   7.012   7.136   9.151
94441SOL     OW85161  11.588   5.116   2.602
94441SOL    HW185162  11.505   5.163   2.610
94441SOL    HW285163  11.651   5.182   2.574
94442SOL     OW85164   6.020   7.268   8.587
94442SOL    HW185165   6.106   7.237   8.616
94442SOL    HW285166   6.014   7.357   8.621
94443SOL     OW85167  14.710   8.090   2.068
94443SOL    HW185168  14.682   7.999   2.058
94443SOL    HW285169  14.652   8.126   2.135
94444SOL     OW85170   3.071   8.940  11.321
94444SOL    HW185171   3.078   8.845  11.332
94444SOL    HW285172   3.029   8.952  11.236
94445SOL     OW85173   1.920   5.512   1.329
94445SOL    HW185174   1.961   5.474   1.406
94445SOL    HW285175   1.986   5.504   1.260
94446SOL     OW85176   3.905  11.939  12.379
94446SOL    HW185177   3.881  11.904  12.465
94446SOL    HW285178   3.864  12.026  12.377
94447SOL     OW85179  11.396  12.552   1.723
94447SOL    HW185180  11.314  12.526   1.766
94447SOL    HW285181  11.461  12.489   1.756
94448SOL     OW85182  14.145   0.442   6.798
94448SOL    HW185183  14.087   0.503   6.753
94448SOL    HW285184  14.089   0.369   6.822
94449SOL     OW85185  13.131  14.261  13.326
94449SOL    HW185186  13.182  14.309  13.261
94449SOL    HW285187  13.102  14.328  13.388
94450SOL     OW85188  14.819  13.232  12.971
94450SOL    HW185189  14.831  13.323  12.999
94450SOL    HW285190  14.869  13.181  13.035
94451SOL     OW85191   7.789   8.209   7.847
94451SOL    HW185192   7.884   8.201   7.837
94451SOL    HW285193   7.772   8.303   7.837
94452SOL     OW85194   0.807   2.982   2.763
94452SOL    HW185195   0.860   3.020   2.693
94452SOL    HW285196   0.745   3.051   2.786
94453SOL     OW85197   2.694   0.896  13.459
94453SOL    HW185198   2.762   0.947  13.416
94453SOL    HW285199   2.623   0.958  13.475
94454SOL     OW85200  11.552   9.767   7.804
94454SOL    HW185201  11.562   9.693   7.864
94454SOL    HW285202  11.461   9.762   7.775
94455SOL     OW85203  14.486   4.093   2.969
94455SOL    HW185204  14.480   4.018   3.028
94455SOL    HW285205  14.574   4.128   2.983
94456SOL     OW85206  13.640  10.746   3.708
94456SOL    HW185207  13.675  10.704   3.630
94456SOL    HW285208  13.551  10.771   3.683
94457SOL     OW85209  11.074   9.442   3.384
94457SOL    HW185210  11.157   9.488   3.368
94457SOL    HW285211  11.101   9.353   3.409
94458SOL     OW85212   5.979   1.542   1.870
94458SOL    HW185213   6.055   1.591   1.838
94458SOL    HW285214   5.949   1.592   1.946
94459SOL     OW85215   9.090   6.445  10.183
94459SOL    HW185216   9.031   6.410  10.117
94459SOL    HW285217   9.157   6.377  10.194
94460SOL     OW85218   1.598   6.878  11.291
94460SOL    HW185219   1.525   6.855  11.234
94460SOL    HW285220   1.605   6.806  11.353
94461SOL     OW85221  14.523   9.978  12.468
94461SOL    HW185222  14.584   9.943  12.533
94461SOL    HW285223  14.445   9.923  12.476
94462SOL     OW85224   9.393   9.579   3.022
94462SOL    HW185225   9.347   9.652   2.982
94462SOL    HW285226   9.353   9.501   2.982
94463SOL     OW85227   9.830  10.869   4.790
94463SOL    HW185228   9.882  10.872   4.870
94463SOL    HW285229   9.745  10.904   4.816
94464SOL     OW85230   4.000   6.496   9.078
94464SOL    HW185231   4.059   6.495   9.002
94464SOL    HW285232   4.055   6.526   9.150
94465SOL     OW85233   5.893   4.581  11.096
94465SOL    HW185234   5.958   4.630  11.045
94465SOL    HW285235   5.912   4.489  11.078
94466SOL     OW85236   4.188   4.039  12.312
94466SOL    HW185237   4.149   4.101  12.249
94466SOL    HW285238   4.127   3.966  12.314
94467SOL     OW85239   5.553   1.537  10.304
94467SOL    HW185240   5.624   1.563  10.245
94467SOL    HW285241   5.592   1.541  10.391
94468SOL     OW85242   4.118   2.471  14.033
94468SOL    HW185243   4.151   2.437  13.950
94468SOL    HW285244   4.108   2.566  14.018
94469SOL     OW85245   7.621   6.861  12.237
94469SOL    HW185246   7.640   6.783  12.185
94469SOL    HW285247   7.667   6.932  12.192
94470SOL     OW85248   0.807   1.608   7.744
94470SOL    HW185249   0.807   1.634   7.652
94470SOL    HW285250   0.730   1.552   7.753
94471SOL     OW85251  14.370   0.537  14.056
94471SOL    HW185252  14.366   0.569  14.145
94471SOL    HW285253  14.454   0.568  14.023
94472SOL     OW85254  12.430  12.572   0.906
94472SOL    HW185255  12.416  12.644   0.967
94472SOL    HW285256  12.472  12.504   0.957
94473SOL     OW85257   4.770   8.148  14.014
94473SOL    HW185258   4.865   8.137  14.021
94473SOL    HW285259   4.757   8.189  13.929
94474SOL     OW85260   3.081   6.429  10.619
94474SOL    HW185261   3.086   6.440  10.714
94474SOL    HW285262   3.155   6.479  10.585
94475SOL     OW85263   7.442   7.027   4.837
94475SOL    HW185264   7.502   7.097   4.863
94475SOL    HW285265   7.437   6.970   4.913
94476SOL     OW85266   5.304  11.292  13.962
94476SOL    HW185267   5.271  11.235  14.030
94476SOL    HW285268   5.318  11.377  14.005
94477SOL     OW85269   4.583  11.665   5.038
94477SOL    HW185270   4.575  11.732   5.105
94477SOL    HW285271   4.675  11.637   5.043
94478SOL     OW85272   6.083   3.328   7.771
94478SOL    HW185273   6.140   3.390   7.725
94478SOL    HW285274   6.102   3.243   7.732
94479SOL     OW85275   2.729  12.076   3.707
94479SOL    HW185276   2.721  12.171   3.716
94479SOL    HW285277   2.665  12.041   3.768
94480SOL     OW85278   0.022   9.830   0.250
94480SOL    HW185279  14.844   9.819   0.175
94480SOL    HW285280  14.860   9.899   0.302
94481SOL     OW85281   2.859  10.403   8.600
94481SOL    HW185282   2.834  10.455   8.677
94481SOL    HW285283   2.910  10.464   8.546
94482SOL     OW85284   4.134   9.320  11.987
94482SOL    HW185285   4.142   9.414  12.002
94482SOL    HW285286   4.182   9.304  11.906
94483SOL     OW85287   5.414   3.908   8.170
94483SOL    HW185288   5.417   3.968   8.244
94483SOL    HW285289   5.481   3.942   8.110
94484SOL     OW85290   0.954  13.289   6.602
94484SOL    HW185291   0.925  13.211   6.555
94484SOL    HW285292   1.050  13.281   6.607
94485SOL     OW85293  12.942  12.831   6.664
94485SOL    HW185294  12.899  12.774   6.728
94485SOL    HW285295  13.034  12.832   6.690
94486SOL     OW85296   9.887   4.861   4.822
94486SOL    HW185297   9.809   4.865   4.877
94486SOL    HW285298   9.951   4.916   4.867
94487SOL     OW85299   8.279  11.022   9.671
94487SOL    HW185300   8.284  11.034   9.766
94487SOL    HW285301   8.259  11.109   9.637
94488SOL     OW85302  11.797   8.628  13.132
94488SOL    HW185303  11.879   8.646  13.086
94488SOL    HW285304  11.772   8.540  13.104
94489SOL     OW85305   4.851  11.966  12.615
94489SOL    HW185306   4.822  11.891  12.666
94489SOL    HW285307   4.806  12.041  12.654
94490SOL     OW85308  12.280  13.196  10.066
94490SOL    HW185309  12.346  13.163  10.128
94490SOL    HW285310  12.198  13.156  10.094
94491SOL     OW85311   5.619  10.969   5.494
94491SOL    HW185312   5.534  10.999   5.527
94491SOL    HW285313   5.616  10.874   5.503
94492SOL     OW85314   5.842   1.410   6.051
94492SOL    HW185315   5.885   1.324   6.053
94492SOL    HW285316   5.750   1.390   6.031
94493SOL     OW85317  12.487   7.501   8.746
94493SOL    HW185318  12.525   7.575   8.698
94493SOL    HW285319  12.496   7.427   8.686
94494SOL     OW85320   2.358   6.913   7.320
94494SOL    HW185321   2.429   6.955   7.370
94494SOL    HW285322   2.326   6.982   7.261
94495SOL     OW85323   7.751   6.547   9.588
94495SOL    HW185324   7.773   6.602   9.512
94495SOL    HW285325   7.665   6.578   9.616
94496SOL     OW85326   7.431   6.726  13.123
94496SOL    HW185327   7.363   6.780  13.164
94496SOL    HW285328   7.422   6.744  13.029
94497SOL     OW85329   7.625  12.324   3.811
94497SOL    HW185330   7.679  12.343   3.888
94497SOL    HW285331   7.535  12.340   3.840
94498SOL     OW85332   9.628   9.627   9.859
94498SOL    HW185333   9.572   9.562   9.902
94498SOL    HW285334   9.697   9.645   9.922
94499SOL     OW85335  14.754   5.303   8.650
94499SOL    HW185336  14.730   5.321   8.559
94499SOL    HW285337  14.849   5.296   8.649
94500SOL     OW85338   3.873   2.328   2.910
94500SOL    HW185339   3.914   2.414   2.911
94500SOL    HW285340   3.870   2.303   2.818
94501SOL     OW85341   2.057  13.522   2.711
94501SOL    HW185342   2.095  13.607   2.736
94501SOL    HW285343   2.122  13.484   2.652
94502SOL     OW85344  12.149   5.473   4.589
94502SOL    HW185345  12.241   5.462   4.567
94502SOL    HW285346  12.148   5.476   4.685
94503SOL     OW85347   5.635   7.511   7.076
94503SOL    HW185348   5.562   7.460   7.111
94503SOL    HW285349   5.600   7.599   7.064
94504SOL     OW85350   1.826   8.295   0.547
94504SOL    HW185351   1.884   8.294   0.623
94504SOL    HW285352   1.858   8.224   0.491
94505SOL     OW85353  12.491   8.785   3.182
94505SOL    HW185354  12.569   8.828   3.217
94505SOL    HW285355  12.426   8.792   3.251
94506SOL     OW85356   3.450   8.348  14.560
94506SOL    HW185357   3.395   8.376  14.633
94506SOL    HW285358   3.390   8.344  14.485
94507SOL     OW85359  10.236  10.077   8.084
94507SOL    HW185360  10.176  10.034   8.145
94507SOL    HW285361  10.197  10.064   7.998
94508SOL     OW85362   0.303  14.302   4.278
94508SOL    HW185363   0.308  14.252   4.360
94508SOL    HW285364   0.239  14.371   4.296
94509SOL     OW85365  13.113   9.937   7.892
94509SOL    HW185366  13.030   9.981   7.876
94509SOL    HW285367  13.157   9.991   7.958
94510SOL     OW85368   4.996   2.051  13.313
94510SOL    HW185369   5.058   2.115  13.347
94510SOL    HW285370   5.014   2.046  13.220
94511SOL     OW85371   1.783   0.500  14.590
94511SOL    HW185372   1.869   0.522  14.553
94511SOL    HW285373   1.802   0.475  14.681
94512SOL     OW85374   0.252   6.209   5.153
94512SOL    HW185375   0.210   6.235   5.072
94512SOL    HW285376   0.250   6.113   5.152
94513SOL     OW85377  14.430  14.541   7.079
94513SOL    HW185378  14.385  14.614   7.036
94513SOL    HW285379  14.360  14.487   7.115
94514SOL     OW85380   5.030  11.678   0.446
94514SOL    HW185381   5.043  11.597   0.397
94514SOL    HW285382   5.054  11.747   0.384
94515SOL     OW85383  12.296   3.602   0.448
94515SOL    HW185384  12.390   3.618   0.454
94515SOL    HW285385  12.281   3.575   0.357
94516SOL     OW85386   0.489   0.215  13.877
94516SOL    HW185387   0.473   0.293  13.824
94516SOL    HW285388   0.575   0.184  13.848
94517SOL     OW85389  14.495   2.107   7.098
94517SOL    HW185390  14.425   2.080   7.038
94517SOL    HW285391  14.482   2.200   7.111
94518SOL     OW85392  12.226   8.216   9.258
94518SOL    HW185393  12.298   8.182   9.311
94518SOL    HW285394  12.174   8.139   9.235
94519SOL     OW85395   4.712   4.274   4.823
94519SOL    HW185396   4.635   4.224   4.852
94519SOL    HW285397   4.678   4.331   4.753
94520SOL     OW85398   6.557   7.842   3.852
94520SOL    HW185399   6.485   7.889   3.893
94520SOL    HW285400   6.636   7.874   3.896
94521SOL     OW85401   6.778   3.929   5.576
94521SOL    HW185402   6.746   3.840   5.563
94521SOL    HW285403   6.738   3.957   5.659
94522SOL     OW85404   0.441   7.142   8.651
94522SOL    HW185405   0.528   7.183   8.654
94522SOL    HW285406   0.390   7.192   8.715
94523SOL     OW85407   9.230   1.314  11.290
94523SOL    HW185408   9.183   1.385  11.245
94523SOL    HW285409   9.188   1.308  11.376
94524SOL     OW85410  13.913   5.447  11.335
94524SOL    HW185411  13.973   5.372  11.332
94524SOL    HW285412  13.952   5.511  11.276
94525SOL     OW85413   8.502   5.792   0.317
94525SOL    HW185414   8.467   5.734   0.385
94525SOL    HW285415   8.592   5.760   0.303
94526SOL     OW85416  12.291   0.457   0.198
94526SOL    HW185417  12.311   0.515   0.124
94526SOL    HW285418  12.236   0.388   0.160
94527SOL     OW85419   8.979   4.532  11.064
94527SOL    HW185420   8.960   4.500  10.975
94527SOL    HW285421   9.060   4.489  11.089
94528SOL     OW85422  10.349   6.815   8.347
94528SOL    HW185423  10.264   6.840   8.311
94528SOL    HW285424  10.413   6.848   8.285
94529SOL     OW85425  10.240  14.632   8.921
94529SOL    HW185426  10.207  14.721   8.935
94529SOL    HW285427  10.195  14.603   8.841
94530SOL     OW85428  13.966   7.987   5.552
94530SOL    HW185429  13.961   7.971   5.458
94530SOL    HW285430  14.060   7.986   5.571
94531SOL     OW85431   1.092   8.355   8.394
94531SOL    HW185432   1.095   8.448   8.419
94531SOL    HW285433   1.094   8.356   8.298
94532SOL     OW85434  13.935  13.473   1.508
94532SOL    HW185435  13.964  13.524   1.433
94532SOL    HW285436  13.841  13.487   1.512
94533SOL     OW85437   6.912   3.412   9.428
94533SOL    HW185438   6.911   3.491   9.374
94533SOL    HW285439   6.995   3.417   9.475
94534SOL     OW85440   9.212   9.167  11.077
94534SOL    HW185441   9.267   9.217  11.017
94534SOL    HW285442   9.226   9.207  11.162
94535SOL     OW85443  14.555   7.529   3.861
94535SOL    HW185444  14.537   7.609   3.910
94535SOL    HW285445  14.468   7.493   3.842
94536SOL     OW85446  13.454   0.550  12.224
94536SOL    HW185447  13.454   0.454  12.231
94536SOL    HW285448  13.526   0.569  12.164
94537SOL     OW85449  12.369   4.816   0.294
94537SOL    HW185450  12.291   4.773   0.258
94537SOL    HW285451  12.402   4.754   0.360
94538SOL     OW85452   5.834   1.539   3.359
94538SOL    HW185453   5.749   1.546   3.404
94538SOL    HW285454   5.852   1.445   3.358
94539SOL     OW85455  12.869  13.820   1.452
94539SOL    HW185456  12.797  13.869   1.491
94539SOL    HW285457  12.883  13.746   1.512
94540SOL     OW85458   1.806   5.832   6.992
94540SOL    HW185459   1.869   5.892   6.953
94540SOL    HW285460   1.751   5.887   7.048
94541SOL     OW85461  13.601   3.735   0.442
94541SOL    HW185462  13.571   3.730   0.351
94541SOL    HW285463  13.521   3.737   0.494
94542SOL     OW85464  14.102   7.443  13.808
94542SOL    HW185465  14.168   7.395  13.758
94542SOL    HW285466  14.019   7.404  13.781
94543SOL     OW85467  13.713   5.480   2.094
94543SOL    HW185468  13.659   5.460   2.017
94543SOL    HW285469  13.755   5.563   2.073
94544SOL     OW85470   6.492   5.284   2.490
94544SOL    HW185471   6.407   5.240   2.498
94544SOL    HW285472   6.536   5.267   2.573
94545SOL     OW85473   6.182   5.574  13.364
94545SOL    HW185474   6.114   5.639  13.385
94545SOL    HW285475   6.262   5.610  13.401
94546SOL     OW85476   5.406   9.772  14.726
94546SOL    HW185477   5.368   9.818  14.800
94546SOL    HW285478   5.460   9.703  14.766
94547SOL     OW85479  10.830   8.769  10.395
94547SOL    HW185480  10.913   8.814  10.409
94547SOL    HW285481  10.846   8.709  10.323
94548SOL     OW85482   1.613   6.540   9.976
94548SOL    HW185483   1.570   6.567  10.057
94548SOL    HW285484   1.573   6.457   9.953
94549SOL     OW85485   5.754   7.116   2.896
94549SOL    HW185486   5.737   7.209   2.911
94549SOL    HW285487   5.822   7.114   2.828
94550SOL     OW85488   3.720   9.016   4.198
94550SOL    HW185489   3.814   8.997   4.190
94550SOL    HW285490   3.677   8.936   4.170
94551SOL     OW85491   4.246   6.232   1.156
94551SOL    HW185492   4.169   6.175   1.155
94551SOL    HW285493   4.214   6.317   1.126
94552SOL     OW85494   0.469   9.556   6.934
94552SOL    HW185495   0.387   9.512   6.953
94552SOL    HW285496   0.530   9.522   7.000
94553SOL     OW85497   0.241  10.704   2.822
94553SOL    HW185498   0.196  10.685   2.904
94553SOL    HW285499   0.306  10.770   2.845
94554SOL     OW85500   3.285   8.129   1.006
94554SOL    HW185501   3.284   8.225   1.002
94554SOL    HW285502   3.340   8.102   0.933
94555SOL     OW85503   1.171  12.767  12.150
94555SOL    HW185504   1.144  12.851  12.189
94555SOL    HW285505   1.172  12.706  12.223
94556SOL     OW85506   7.148   2.133  14.125
94556SOL    HW185507   7.198   2.095  14.197
94556SOL    HW285508   7.062   2.151  14.162
94557SOL     OW85509  14.331  11.614   0.105
94557SOL    HW185510  14.339  11.520   0.119
94557SOL    HW285511  14.248  11.637   0.148
94558SOL     OW85512   4.772   4.483   4.507
94558SOL    HW185513   4.779   4.569   4.549
94558SOL    HW285514   4.697   4.442   4.550
94559SOL     OW85515   2.272  13.740   8.193
94559SOL    HW185516   2.304  13.827   8.214
94559SOL    HW285517   2.217  13.753   8.116
94560SOL     OW85518  12.797   3.267  10.091
94560SOL    HW185519  12.844   3.207  10.034
94560SOL    HW285520  12.712   3.224  10.105
94561SOL     OW85521   0.637  14.511  13.011
94561SOL    HW185522   0.622  14.464  13.093
94561SOL    HW285523   0.613  14.602  13.031
94562SOL     OW85524   2.754   7.884   4.990
94562SOL    HW185525   2.779   7.834   4.912
94562SOL    HW285526   2.739   7.973   4.958
94563SOL     OW85527   8.478  11.112  10.523
94563SOL    HW185528   8.545  11.177  10.544
94563SOL    HW285529   8.395  11.157  10.536
94564SOL     OW85530   3.069   3.103  12.367
94564SOL    HW185531   3.041   3.188  12.333
94564SOL    HW285532   3.150   3.084  12.319
94565SOL     OW85533   2.153   1.535   5.616
94565SOL    HW185534   2.121   1.519   5.705
94565SOL    HW285535   2.196   1.620   5.621
94566SOL     OW85536   1.294   6.211  14.722
94566SOL    HW185537   1.203   6.237  14.738
94566SOL    HW285538   1.343   6.251  14.794
94567SOL     OW85539   2.948  11.856   1.480
94567SOL    HW185540   2.977  11.765   1.488
94567SOL    HW285541   2.858  11.855   1.513
94568SOL     OW85542  12.681   1.224   7.256
94568SOL    HW185543  12.760   1.257   7.213
94568SOL    HW285544  12.713   1.170   7.328
94569SOL     OW85545   4.634   0.079  13.240
94569SOL    HW185546   4.557   0.105  13.190
94569SOL    HW285547   4.603   0.010  13.299
94570SOL     OW85548   7.003  10.168  13.188
94570SOL    HW185549   6.959  10.210  13.113
94570SOL    HW285550   6.938  10.171  13.258
94571SOL     OW85551   4.654  12.418   3.379
94571SOL    HW185552   4.707  12.375   3.312
94571SOL    HW285553   4.635  12.349   3.442
94572SOL     OW85554   8.329   9.389  14.085
94572SOL    HW185555   8.273   9.438  14.024
94572SOL    HW285556   8.380   9.456  14.130
94573SOL     OW85557  12.123  10.767   6.717
94573SOL    HW185558  12.152  10.787   6.628
94573SOL    HW285559  12.035  10.804   6.722
94574SOL     OW85560   1.105  11.121  14.481
94574SOL    HW185561   1.140  11.152  14.565
94574SOL    HW285562   1.153  11.171  14.415
94575SOL     OW85563   9.326   0.944   4.256
94575SOL    HW185564   9.353   1.034   4.235
94575SOL    HW285565   9.401   0.890   4.229
94576SOL     OW85566   1.032   9.837  13.225
94576SOL    HW185567   1.075   9.922  13.214
94576SOL    HW285568   1.016   9.831  13.319
94577SOL     OW85569  13.757   7.550  13.810
94577SOL    HW185570  13.703   7.491  13.862
94577SOL    HW285571  13.826   7.494  13.773
94578SOL     OW85572   0.654  14.310   6.628
94578SOL    HW185573   0.737  14.270   6.600
94578SOL    HW285574   0.630  14.260   6.706
94579SOL     OW85575  13.712   2.370   1.009
94579SOL    HW185576  13.637   2.324   1.047
94579SOL    HW285577  13.750   2.308   0.946
94580SOL     OW85578   2.532   2.397   6.953
94580SOL    HW185579   2.521   2.389   7.048
94580SOL    HW285580   2.489   2.320   6.917
94581SOL     OW85581   8.077   6.479   0.801
94581SOL    HW185582   8.013   6.465   0.871
94581SOL    HW285583   8.155   6.511   0.847
94582SOL     OW85584   2.762   8.361   3.782
94582SOL    HW185585   2.810   8.348   3.700
94582SOL    HW285586   2.729   8.274   3.805
94583SOL     OW85587   2.236  12.273   4.645
94583SOL    HW185588   2.281  12.190   4.661
94583SOL    HW285589   2.149  12.261   4.683
94584SOL     OW85590  10.369  11.602  11.390
94584SOL    HW185591  10.427  11.587  11.316
94584SOL    HW285592  10.427  11.606  11.466
94585SOL     OW85593  10.458   1.131   3.708
94585SOL    HW185594  10.485   1.060   3.650
94585SOL    HW285595  10.418   1.196   3.649
94586SOL     OW85596   6.027  14.020   6.678
94586SOL    HW185597   6.121  14.006   6.674
94586SOL    HW285598   6.014  14.076   6.755
94587SOL     OW85599   2.982  11.991   6.259
94587SOL    HW185600   3.015  11.911   6.300
94587SOL    HW285601   2.927  12.032   6.325
94588SOL     OW85602  11.494   5.674   0.010
94588SOL    HW185603  11.580   5.685   0.050
94588SOL    HW285604  11.486   5.580  14.878
94589SOL     OW85605  13.840   9.786   5.646
94589SOL    HW185606  13.763   9.814   5.595
94589SOL    HW285607  13.896   9.743   5.582
94590SOL     OW85608   0.186   0.455  13.814
94590SOL    HW185609   0.156   0.472  13.725
94590SOL    HW285610   0.105   0.446  13.865
94591SOL     OW85611   3.802   7.726   4.953
94591SOL    HW185612   3.870   7.779   4.995
94591SOL    HW285613   3.745   7.699   5.025
94592SOL     OW85614  14.689  12.453  14.463
94592SOL    HW185615  14.634  12.384  14.424
94592SOL    HW285616  14.761  12.464  14.400
94593SOL     OW85617   9.560   6.469   9.248
94593SOL    HW185618   9.512   6.386   9.249
94593SOL    HW285619   9.636   6.451   9.193
94594SOL     OW85620   3.619   1.173   6.954
94594SOL    HW185621   3.591   1.241   6.892
94594SOL    HW285622   3.591   1.206   7.039
94595SOL     OW85623   0.635   3.259  11.127
94595SOL    HW185624   0.719   3.247  11.171
94595SOL    HW285625   0.613   3.351  11.143
94596SOL     OW85626  14.640   0.109   5.764
94596SOL    HW185627  14.619   0.071   5.678
94596SOL    HW285628  14.586   0.188   5.769
94597SOL     OW85629   7.945   0.666  11.707
94597SOL    HW185630   7.852   0.676  11.725
94597SOL    HW285631   7.972   0.751  11.672
94598SOL     OW85632   9.037   7.687   7.286
94598SOL    HW185633   9.111   7.635   7.315
94598SOL    HW285634   9.027   7.666   7.193
94599SOL     OW85635  14.542   5.835   8.477
94599SOL    HW185636  14.581   5.750   8.459
94599SOL    HW285637  14.448   5.821   8.462
94600SOL     OW85638   2.718   3.408  12.764
94600SOL    HW185639   2.762   3.380  12.684
94600SOL    HW285640   2.730   3.335  12.826
94601SOL     OW85641   7.545  13.204   6.436
94601SOL    HW185642   7.573  13.114   6.450
94601SOL    HW285643   7.517  13.234   6.523
94602SOL     OW85644  14.140   2.437   7.069
94602SOL    HW185645  14.129   2.343   7.083
94602SOL    HW285646  14.105   2.477   7.148
94603SOL     OW85647   3.208   3.354  11.319
94603SOL    HW185648   3.227   3.304  11.398
94603SOL    HW285649   3.254   3.437  11.332
94604SOL     OW85650   0.023   1.046   4.799
94604SOL    HW185651   0.111   1.007   4.794
94604SOL    HW285652   0.002   1.067   4.708
94605SOL     OW85653   1.200  11.434   9.747
94605SOL    HW185654   1.161  11.513   9.710
94605SOL    HW285655   1.202  11.372   9.674
94606SOL     OW85656  10.427   6.053   1.698
94606SOL    HW185657  10.370   6.060   1.774
94606SOL    HW285658  10.391   5.979   1.648
94607SOL     OW85659   7.375   1.650   8.597
94607SOL    HW185660   7.404   1.718   8.658
94607SOL    HW285661   7.327   1.698   8.529
94608SOL     OW85662  11.224   4.452  13.978
94608SOL    HW185663  11.241   4.360  13.957
94608SOL    HW285664  11.304   4.498  13.953
94609SOL     OW85665   4.933   6.031  11.789
94609SOL    HW185666   4.897   6.015  11.876
94609SOL    HW285667   4.949   5.944  11.753
94610SOL     OW85668   0.518  12.643   4.443
94610SOL    HW185669   0.510  12.701   4.367
94610SOL    HW285670   0.452  12.676   4.505
94611SOL     OW85671   1.826   9.535   2.456
94611SOL    HW185672   1.894   9.590   2.419
94611SOL    HW285673   1.743   9.575   2.428
94612SOL     OW85674   2.402  12.499   5.488
94612SOL    HW185675   2.313  12.499   5.523
94612SOL    HW285676   2.395  12.545   5.404
94613SOL     OW85677  13.468  11.212   2.019
94613SOL    HW185678  13.451  11.294   1.974
94613SOL    HW285679  13.554  11.184   1.987
94614SOL     OW85680  11.961  10.145   9.885
94614SOL    HW185681  11.993  10.063   9.847
94614SOL    HW285682  11.874  10.122   9.920
94615SOL     OW85683   4.098   3.168  13.563
94615SOL    HW185684   4.026   3.231  13.563
94615SOL    HW285685   4.078   3.110  13.490
94616SOL     OW85686   0.160   5.872  10.152
94616SOL    HW185687   0.166   5.797  10.211
94616SOL    HW285688   0.242   5.871  10.103
94617SOL     OW85689   5.920   1.073  13.830
94617SOL    HW185690   5.893   1.046  13.917
94617SOL    HW285691   5.987   1.010  13.804
94618SOL     OW85692   2.814   8.689   9.198
94618SOL    HW185693   2.853   8.614   9.244
94618SOL    HW285694   2.730   8.702   9.243
94619SOL     OW85695  14.816   8.620   0.014
94619SOL    HW185696  14.812   8.528  14.868
94619SOL    HW285697   0.029   8.643   0.010
94620SOL     OW85698  10.316  10.725  10.365
94620SOL    HW185699  10.351  10.760  10.283
94620SOL    HW285700  10.226  10.755  10.367
94621SOL     OW85701   2.542  10.805  11.237
94621SOL    HW185702   2.494  10.737  11.285
94621SOL    HW285703   2.618  10.760  11.200
94622SOL     OW85704  14.034  12.351   6.372
94622SOL    HW185705  14.092  12.325   6.443
94622SOL    HW285706  14.003  12.268   6.335
94623SOL     OW85707   4.717   4.304  10.989
94623SOL    HW185708   4.658   4.323  11.062
94623SOL    HW285709   4.794   4.358  11.006
94624SOL     OW85710   9.865   5.228  12.933
94624SOL    HW185711   9.863   5.277  13.015
94624SOL    HW285712   9.870   5.294  12.865
94625SOL     OW85713   9.539  13.452   7.050
94625SOL    HW185714   9.578  13.433   7.136
94625SOL    HW285715   9.478  13.523   7.067
94626SOL     OW85716   8.623   2.355   0.833
94626SOL    HW185717   8.571   2.394   0.762
94626SOL    HW285718   8.573   2.279   0.862
94627SOL     OW85719  11.432   7.559  13.353
94627SOL    HW185720  11.426   7.470  13.388
94627SOL    HW285721  11.347   7.598  13.371
94628SOL     OW85722   8.582   2.866  11.305
94628SOL    HW185723   8.622   2.906  11.382
94628SOL    HW285724   8.654   2.856  11.243
94629SOL     OW85725   5.100   7.401  13.149
94629SOL    HW185726   5.009   7.425  13.130
94629SOL    HW285727   5.126   7.347  13.074
94630SOL     OW85728   1.953   4.025  13.614
94630SOL    HW185729   1.988   3.962  13.678
94630SOL    HW285730   1.859   4.029  13.635
94631SOL     OW85731  13.848  12.089  10.504
94631SOL    HW185732  13.910  12.078  10.432
94631SOL    HW285733  13.902  12.087  10.583
94632SOL     OW85734  14.205  10.115   4.354
94632SOL    HW185735  14.162  10.200   4.365
94632SOL    HW285736  14.276  10.132   4.292
94633SOL     OW85737   5.512   6.650  14.307
94633SOL    HW185738   5.455   6.676  14.235
94633SOL    HW285739   5.588   6.610  14.264
94634SOL     OW85740   3.335   2.872   4.159
94634SOL    HW185741   3.283   2.942   4.121
94634SOL    HW285742   3.296   2.858   4.246
94635SOL     OW85743  13.210   5.503   5.497
94635SOL    HW185744  13.229   5.432   5.558
94635SOL    HW285745  13.295   5.526   5.460
94636SOL     OW85746  12.957   3.966   1.209
94636SOL    HW185747  12.974   3.945   1.117
94636SOL    HW285748  13.044   3.969   1.250
94637SOL     OW85749   1.333   5.849   7.241
94637SOL    HW185750   1.260   5.826   7.299
94637SOL    HW285751   1.321   5.942   7.223
94638SOL     OW85752  14.563   2.767   5.290
94638SOL    HW185753  14.497   2.720   5.239
94638SOL    HW285754  14.597   2.833   5.229
94639SOL     OW85755   6.990   8.671   8.244
94639SOL    HW185756   7.008   8.618   8.166
94639SOL    HW285757   7.026   8.757   8.222
94640SOL     OW85758   0.542   9.798   4.745
94640SOL    HW185759   0.555   9.704   4.730
94640SOL    HW285760   0.602   9.840   4.684
94641SOL     OW85761   8.057   8.832   5.675
94641SOL    HW185762   8.137   8.783   5.655
94641SOL    HW285763   8.030   8.869   5.591
94642SOL     OW85764  12.537  14.051   2.509
94642SOL    HW185765  12.609  14.016   2.455
94642SOL    HW285766  12.524  13.985   2.577
94643SOL     OW85767   9.462   4.397   1.514
94643SOL    HW185768   9.404   4.440   1.577
94643SOL    HW285769   9.409   4.385   1.436
94644SOL     OW85770  12.593   6.997  14.724
94644SOL    HW185771  12.603   6.917  14.775
94644SOL    HW285772  12.519   7.042  14.763
94645SOL     OW85773   8.162   5.372   1.669
94645SOL    HW185774   8.209   5.426   1.733
94645SOL    HW285775   8.158   5.426   1.590
94646SOL     OW85776  13.261   9.142   5.658
94646SOL    HW185777  13.214   9.132   5.741
94646SOL    HW285778  13.304   9.227   5.665
94647SOL     OW85779   8.145   1.204   2.212
94647SOL    HW185780   8.052   1.223   2.222
94647SOL    HW285781   8.187   1.244   2.287
94648SOL     OW85782   0.571   4.783   4.255
94648SOL    HW185783   0.478   4.767   4.270
94648SOL    HW285784   0.601   4.707   4.205
94649SOL     OW85785   3.931   5.293   1.509
94649SOL    HW185786   3.897   5.350   1.578
94649SOL    HW285787   3.903   5.335   1.428
94650SOL     OW85788  12.655  13.679   9.702
94650SOL    HW185789  12.669  13.585   9.713
94650SOL    HW285790  12.564  13.686   9.671
94651SOL     OW85791  10.919   5.056  14.614
94651SOL    HW185792  10.837   5.060  14.564
94651SOL    HW285793  10.934   4.963  14.628
94652SOL     OW85794   2.864   7.653   4.825
94652SOL    HW185795   2.792   7.600   4.859
94652SOL    HW285796   2.943   7.612   4.860
94653SOL     OW85797   9.666   8.683  10.663
94653SOL    HW185798   9.665   8.775  10.635
94653SOL    HW285799   9.751   8.650  10.632
94654SOL     OW85800   7.078  10.519  13.027
94654SOL    HW185801   7.170  10.507  13.054
94654SOL    HW285802   7.051  10.599  13.072
94655SOL     OW85803   0.417   2.833   4.396
94655SOL    HW185804   0.447   2.837   4.305
94655SOL    HW285805   0.380   2.745   4.405
94656SOL     OW85806   3.618  13.767   6.919
94656SOL    HW185807   3.625  13.674   6.897
94656SOL    HW285808   3.526  13.788   6.904
94657SOL     OW85809   8.659  14.585   2.904
94657SOL    HW185810   8.676  14.653   2.839
94657SOL    HW285811   8.618  14.632   2.977
94658SOL     OW85812  10.036   6.722   9.301
94658SOL    HW185813  10.062   6.634   9.272
94658SOL    HW285814  10.012   6.710   9.393
94659SOL     OW85815   7.434   2.834  11.930
94659SOL    HW185816   7.529   2.845  11.937
94659SOL    HW285817   7.402   2.844  12.020
94660SOL     OW85818   4.373   1.567   4.232
94660SOL    HW185819   4.394   1.659   4.216
94660SOL    HW285820   4.455   1.527   4.258
94661SOL     OW85821   1.588   4.327  13.724
94661SOL    HW185822   1.534   4.378  13.663
94661SOL    HW285823   1.550   4.239  13.723
94662SOL     OW85824  14.841  11.849  12.453
94662SOL    HW185825  14.877  11.898  12.379
94662SOL    HW285826  14.850  11.757  12.427
94663SOL     OW85827   4.130   4.826   0.681
94663SOL    HW185828   4.088   4.845   0.766
94663SOL    HW285829   4.110   4.903   0.627
94664SOL     OW85830  11.395   4.837   0.704
94664SOL    HW185831  11.406   4.754   0.657
94664SOL    HW285832  11.469   4.890   0.674
94665SOL     OW85833   7.802   5.587  13.965
94665SOL    HW185834   7.821   5.680  13.950
94665SOL    HW285835   7.730   5.567  13.905
94666SOL     OW85836   2.999  10.313  13.480
94666SOL    HW185837   2.976  10.368  13.555
94666SOL    HW285838   3.090  10.289  13.496
94667SOL     OW85839   8.542  10.213   8.581
94667SOL    HW185840   8.518  10.298   8.543
94667SOL    HW285841   8.489  10.150   8.533
94668SOL     OW85842  12.196   1.507  12.898
94668SOL    HW185843  12.258   1.499  12.826
94668SOL    HW285844  12.155   1.421  12.906
94669SOL     OW85845   4.103   9.456   8.450
94669SOL    HW185846   4.083   9.526   8.388
94669SOL    HW285847   4.018   9.421   8.476
94670SOL     OW85848   4.584   7.871  13.009
94670SOL    HW185849   4.663   7.915  12.977
94670SOL    HW285850   4.521   7.941  13.024
94671SOL     OW85851   2.855  10.285  10.875
94671SOL    HW185852   2.871  10.349  10.945
94671SOL    HW285853   2.767  10.252  10.893
94672SOL     OW85854   3.435  13.111  12.015
94672SOL    HW185855   3.423  13.202  11.986
94672SOL    HW285856   3.375  13.102  12.089
94673SOL     OW85857   9.283   5.475  10.824
94673SOL    HW185858   9.251   5.468  10.734
94673SOL    HW285859   9.377   5.459  10.818
94674SOL     OW85860   8.953  10.044  12.104
94674SOL    HW185861   8.968   9.999  12.187
94674SOL    HW285862   8.862  10.025  12.082
94675SOL     OW85863   9.422  10.431   8.725
94675SOL    HW185864   9.397  10.522   8.706
94675SOL    HW285865   9.384  10.414   8.812
94676SOL     OW85866   9.264  11.533  11.502
94676SOL    HW185867   9.251  11.600  11.435
94676SOL    HW285868   9.341  11.484  11.472
94677SOL     OW85869   6.437   3.922  11.994
94677SOL    HW185870   6.520   3.970  11.993
94677SOL    HW285871   6.377   3.978  12.043
94678SOL     OW85872   0.192   8.565   1.214
94678SOL    HW185873   0.250   8.637   1.191
94678SOL    HW285874   0.169   8.580   1.306
94679SOL     OW85875   9.364   0.249   3.870
94679SOL    HW185876   9.318   0.166   3.869
94679SOL    HW285877   9.455   0.227   3.851
94680SOL     OW85878  10.785  10.063   6.098
94680SOL    HW185879  10.735  10.137   6.134
94680SOL    HW285880  10.838  10.033   6.172
94681SOL     OW85881   7.582   9.002   7.886
94681SOL    HW185882   7.565   8.910   7.908
94681SOL    HW285883   7.627   9.037   7.963
94682SOL     OW85884   0.266   1.422   9.365
94682SOL    HW185885   0.253   1.330   9.343
94682SOL    HW285886   0.204   1.438   9.437
94683SOL     OW85887   5.446  14.624  10.785
94683SOL    HW185888   5.377  14.690  10.771
94683SOL    HW285889   5.527  14.675  10.787
94684SOL     OW85890   1.484   3.834  12.547
94684SOL    HW185891   1.427   3.910  12.536
94684SOL    HW285892   1.435   3.761  12.510
94685SOL     OW85893  12.574   8.705   8.366
94685SOL    HW185894  12.585   8.788   8.320
94685SOL    HW285895  12.560   8.729   8.458
94686SOL     OW85896   4.055   7.333   8.790
94686SOL    HW185897   4.102   7.394   8.847
94686SOL    HW285898   3.998   7.284   8.849
94687SOL     OW85899   6.531  14.566  12.004
94687SOL    HW185900   6.450  14.530  11.966
94687SOL    HW285901   6.592  14.492  12.005
94688SOL     OW85902   5.611   0.431   0.143
94688SOL    HW185903   5.698   0.422   0.104
94688SOL    HW285904   5.620   0.393   0.230
94689SOL     OW85905   0.570   2.689   5.283
94689SOL    HW185906   0.512   2.688   5.207
94689SOL    HW285907   0.613   2.603   5.282
94690SOL     OW85908  13.603   3.617  12.787
94690SOL    HW185909  13.573   3.693  12.837
94690SOL    HW285910  13.650   3.563  12.850
94691SOL     OW85911   0.705   3.297  12.432
94691SOL    HW185912   0.686   3.387  12.457
94691SOL    HW285913   0.735   3.256  12.513
94692SOL     OW85914  13.876  11.486   5.880
94692SOL    HW185915  13.847  11.395   5.875
94692SOL    HW285916  13.910  11.505   5.793
94693SOL     OW85917   5.885   0.445   2.031
94693SOL    HW185918   5.818   0.398   2.080
94693SOL    HW285919   5.914   0.515   2.089
94694SOL     OW85920   0.824   5.932  12.745
94694SOL    HW185921   0.900   5.881  12.718
94694SOL    HW285922   0.768   5.869  12.791
94695SOL     OW85923  12.769   8.295   3.498
94695SOL    HW185924  12.681   8.325   3.519
94695SOL    HW285925  12.760   8.247   3.415
94696SOL     OW85926  13.392  12.827  13.252
94696SOL    HW185927  13.473  12.779  13.235
94696SOL    HW285928  13.336  12.807  13.178
94697SOL     OW85929  11.428  11.907  13.945
94697SOL    HW185930  11.350  11.909  13.889
94697SOL    HW285931  11.392  11.897  14.034
94698SOL     OW85932  13.498  10.427  10.054
94698SOL    HW185933  13.463  10.442  10.142
94698SOL    HW285934  13.591  10.411  10.067
94699SOL     OW85935   8.386   4.274   0.533
94699SOL    HW185936   8.322   4.313   0.474
94699SOL    HW285937   8.394   4.183   0.503
94700SOL     OW85938   9.655   2.412   7.512
94700SOL    HW185939   9.682   2.501   7.534
94700SOL    HW285940   9.653   2.410   7.416
94701SOL     OW85941   9.600  12.026   0.020
94701SOL    HW185942   9.680  12.075   0.001
94701SOL    HW285943   9.529  12.082  14.866
94702SOL     OW85944  11.687   4.729   2.460
94702SOL    HW185945  11.640   4.755   2.539
94702SOL    HW285946  11.663   4.796   2.395
94703SOL     OW85947   0.667   5.406   0.719
94703SOL    HW185948   0.571   5.407   0.712
94703SOL    HW285949   0.684   5.393   0.812
94704SOL     OW85950  14.202   7.997  10.535
94704SOL    HW185951  14.152   7.915  10.523
94704SOL    HW285952  14.256   7.981  10.612
94705SOL     OW85953   4.453   1.078   0.517
94705SOL    HW185954   4.530   1.055   0.465
94705SOL    HW285955   4.409   1.146   0.466
94706SOL     OW85956   8.737   3.755   0.449
94706SOL    HW185957   8.707   3.823   0.389
94706SOL    HW285958   8.816   3.791   0.489
94707SOL     OW85959   7.835  14.383   3.654
94707SOL    HW185960   7.786  14.434   3.589
94707SOL    HW285961   7.788  14.299   3.658
94708SOL     OW85962   2.566  14.171   1.101
94708SOL    HW185963   2.608  14.085   1.098
94708SOL    HW285964   2.478  14.154   1.134
94709SOL     OW85965   2.269   6.683   9.754
94709SOL    HW185966   2.352   6.648   9.722
94709SOL    HW285967   2.294   6.749   9.819
94710SOL     OW85968  11.085  10.257   3.010
94710SOL    HW185969  11.033  10.275   3.089
94710SOL    HW285970  11.173  10.239   3.043
94711SOL     OW85971   1.729   5.542   6.301
94711SOL    HW185972   1.694   5.607   6.362
94711SOL    HW285973   1.824   5.550   6.309
94712SOL     OW85974   0.299   4.445   5.530
94712SOL    HW185975   0.260   4.362   5.556
94712SOL    HW285976   0.231   4.510   5.547
94713SOL     OW85977   0.854  11.339   2.993
94713SOL    HW185978   0.826  11.366   3.080
94713SOL    HW285979   0.947  11.361   2.990
94714SOL     OW85980  13.808   2.813   2.823
94714SOL    HW185981  13.765   2.740   2.868
94714SOL    HW285982  13.800   2.791   2.730
94715SOL     OW85983  14.426   9.904  11.679
94715SOL    HW185984  14.423   9.860  11.763
94715SOL    HW285985  14.494   9.857  11.630
94716SOL     OW85986   7.540  13.343   6.132
94716SOL    HW185987   7.602  13.303   6.192
94716SOL    HW285988   7.593  13.368   6.056
94717SOL     OW85989   6.320  10.645  12.197
94717SOL    HW185990   6.312  10.700  12.118
94717SOL    HW285991   6.260  10.684  12.260
94718SOL     OW85992   6.551   6.660  12.400
94718SOL    HW185993   6.591   6.746  12.391
94718SOL    HW285994   6.467   6.667  12.354
94719SOL     OW85995   6.253   4.436   6.565
94719SOL    HW185996   6.237   4.349   6.527
94719SOL    HW285997   6.281   4.490   6.491
94720SOL     OW85998   2.812   4.211   4.639
94720SOL    HW185999   2.841   4.138   4.584
94720SOL    HW286000   2.776   4.274   4.576
94721SOL     OW86001   9.763  11.311  10.642
94721SOL    HW186002   9.769  11.242  10.576
94721SOL    HW286003   9.669  11.317  10.662
94722SOL     OW86004   8.363  12.225   0.731
94722SOL    HW186005   8.454  12.206   0.707
94722SOL    HW286006   8.335  12.150   0.782
94723SOL     OW86007   5.944  14.238  13.155
94723SOL    HW186008   5.940  14.292  13.076
94723SOL    HW286009   5.894  14.287  13.220
94724SOL     OW86010   2.755   7.997   2.538
94724SOL    HW186011   2.781   8.056   2.467
94724SOL    HW286012   2.745   8.055   2.614
94725SOL     OW86013   7.004  13.800   1.695
94725SOL    HW186014   6.951  13.767   1.623
94725SOL    HW286015   6.940  13.833   1.758
94726SOL     OW86016   9.147   5.330  12.276
94726SOL    HW186017   9.218   5.301  12.218
94726SOL    HW286018   9.151   5.270  12.351
94727SOL     OW86019   0.067   6.897  11.082
94727SOL    HW186020  14.855   6.919  11.093
94727SOL    HW286021   0.071   6.802  11.095
94728SOL     OW86022   4.872   3.042   0.114
94728SOL    HW186023   4.880   3.133   0.087
94728SOL    HW286024   4.786   3.015   0.083
94729SOL     OW86025   8.803   4.295   3.849
94729SOL    HW186026   8.873   4.274   3.911
94729SOL    HW286027   8.847   4.344   3.779
94730SOL     OW86028  10.630   2.826  10.465
94730SOL    HW186029  10.695   2.781  10.411
94730SOL    HW286030  10.613   2.908  10.418
94731SOL     OW86031   6.336   7.079  10.085
94731SOL    HW186032   6.389   7.144  10.131
94731SOL    HW286033   6.264   7.061  10.145
94732SOL     OW86034   2.704   9.553   8.208
94732SOL    HW186035   2.722   9.484   8.272
94732SOL    HW286036   2.778   9.613   8.215
94733SOL     OW86037   8.896  11.775  10.264
94733SOL    HW186038   8.933  11.690  10.241
94733SOL    HW286039   8.911  11.783  10.358
94734SOL     OW86040   7.787  12.057  11.485
94734SOL    HW186041   7.802  12.017  11.399
94734SOL    HW286042   7.829  12.143  11.479
94735SOL     OW86043   9.084   9.313  14.249
94735SOL    HW186044   9.072   9.401  14.212
94735SOL    HW286045   9.167   9.318  14.296
94736SOL     OW86046   0.140  10.103  11.992
94736SOL    HW186047   0.157  10.197  11.999
94736SOL    HW286048   0.126  10.088  11.898
94737SOL     OW86049   4.695   3.368  10.783
94737SOL    HW186050   4.617   3.359  10.729
94737SOL    HW286051   4.766   3.329  10.730
94738SOL     OW86052   0.771   3.928  14.538
94738SOL    HW186053   0.850   3.982  14.550
94738SOL    HW286054   0.805   3.841  14.515
94739SOL     OW86055   6.397  14.002  13.298
94739SOL    HW186056   6.307  14.031  13.311
94739SOL    HW286057   6.420  13.957  13.379
94740SOL     OW86058  11.643   4.688  13.582
94740SOL    HW186059  11.735   4.710  13.591
94740SOL    HW286060  11.638   4.636  13.501
94741SOL     OW86061   4.954   4.511  14.311
94741SOL    HW186062   4.940   4.555  14.227
94741SOL    HW286063   5.047   4.491  14.312
94742SOL     OW86064   2.125   4.264  14.650
94742SOL    HW186065   2.176   4.185  14.667
94742SOL    HW286066   2.176   4.313  14.586
94743SOL     OW86067  10.243   0.216   5.859
94743SOL    HW186068  10.204   0.241   5.775
94743SOL    HW286069  10.329   0.179   5.835
94744SOL     OW86070  11.618   0.442   3.909
94744SOL    HW186071  11.687   0.378   3.929
94744SOL    HW286072  11.661   0.527   3.915
94745SOL     OW86073   3.485  13.467   2.047
94745SOL    HW186074   3.580  13.459   2.045
94745SOL    HW286075   3.456  13.399   2.108
94746SOL     OW86076   0.737   6.135   0.234
94746SOL    HW186077   0.758   6.220   0.272
94746SOL    HW286078   0.642   6.128   0.244
94747SOL     OW86079   5.385   1.564   9.232
94747SOL    HW186080   5.321   1.575   9.302
94747SOL    HW286081   5.435   1.486   9.256
94748SOL     OW86082  14.822   0.644  12.940
94748SOL    HW186083   0.036   0.663  12.927
94748SOL    HW286084  14.790   0.718  12.991
94749SOL     OW86085   7.843   3.573  13.847
94749SOL    HW186086   7.885   3.523  13.917
94749SOL    HW286087   7.909   3.637  13.820
94750SOL     OW86088   4.092  13.710  14.838
94750SOL    HW186089   4.083  13.737   0.050
94750SOL    HW286090   4.122  13.790  14.793
94751SOL     OW86091   0.294   8.936   0.666
94751SOL    HW186092   0.214   8.987   0.678
94751SOL    HW286093   0.292   8.871   0.737
94752SOL     OW86094  11.661   5.999  14.868
94752SOL    HW186095  11.595   6.022   0.054
94752SOL    HW286096  11.687   6.083  14.830
94753SOL     OW86097  13.402  11.194  13.049
94753SOL    HW186098  13.449  11.269  13.087
94753SOL    HW286099  13.333  11.234  12.996
94754SOL     OW86100   9.107   4.218  13.720
94754SOL    HW186101   9.029   4.211  13.775
94754SOL    HW286102   9.138   4.129  13.711
94755SOL     OW86103   3.411   5.771   0.091
94755SOL    HW186104   3.387   5.825   0.167
94755SOL    HW286105   3.354   5.802   0.021
94756SOL     OW86106   5.472   8.220   9.848
94756SOL    HW186107   5.535   8.161   9.807
94756SOL    HW286108   5.455   8.287   9.781
94757SOL     OW86109   1.495   7.219   9.360
94757SOL    HW186110   1.502   7.243   9.267
94757SOL    HW286111   1.532   7.294   9.407
94758SOL     OW86112   8.421  14.239   0.749
94758SOL    HW186113   8.499  14.294   0.736
94758SOL    HW286114   8.407  14.239   0.843
94759SOL     OW86115   2.011  13.715  14.063
94759SOL    HW186116   1.929  13.667  14.055
94759SOL    HW286117   2.018  13.764  13.981
94760SOL     OW86118   7.157  14.653  13.188
94760SOL    HW186119   7.095  14.587  13.157
94760SOL    HW286120   7.106  14.709  13.246
94761SOL     OW86121   8.172   7.225   2.742
94761SOL    HW186122   8.228   7.147   2.746
94761SOL    HW286123   8.179   7.264   2.829
94762SOL     OW86124  14.192  10.665   6.253
94762SOL    HW186125  14.285  10.667   6.274
94762SOL    HW286126  14.176  10.575   6.222
94763SOL     OW86127   9.530  12.689   3.701
94763SOL    HW186128   9.481  12.689   3.783
94763SOL    HW286129   9.620  12.708   3.727
94764SOL     OW86130   3.542  13.410  12.946
94764SOL    HW186131   3.594  13.489  12.931
94764SOL    HW286132   3.560  13.354  12.871
94765SOL     OW86133  14.780   1.950   5.801
94765SOL    HW186134  14.825   1.868   5.782
94765SOL    HW286135  14.812   1.976   5.887
94766SOL     OW86136  12.514   1.175   7.069
94766SOL    HW186137  12.444   1.127   7.113
94766SOL    HW286138  12.582   1.185   7.135
94767SOL     OW86139   1.781   7.434   0.567
94767SOL    HW186140   1.791   7.496   0.495
94767SOL    HW286141   1.746   7.355   0.525
94768SOL     OW86142   3.396   0.121   3.360
94768SOL    HW186143   3.333   0.072   3.414
94768SOL    HW286144   3.448   0.053   3.317
94769SOL     OW86145   5.737  10.438  13.882
94769SOL    HW186146   5.708  10.507  13.822
94769SOL    HW286147   5.662  10.422  13.939
94770SOL     OW86148   3.351   4.957  12.429
94770SOL    HW186149   3.303   4.877  12.409
94770SOL    HW286150   3.395   4.981  12.348
94771SOL     OW86151   3.785   5.160  12.734
94771SOL    HW186152   3.846   5.141  12.663
94771SOL    HW286153   3.817   5.106  12.807
94772SOL     OW86154   7.167   1.807  14.004
94772SOL    HW186155   7.159   1.896  13.968
94772SOL    HW286156   7.077   1.785  14.030
94773SOL     OW86157   3.216   3.669  12.434
94773SOL    HW186158   3.306   3.639  12.423
94773SOL    HW286159   3.187   3.689  12.345
94774SOL     OW86160  10.364  10.243  12.828
94774SOL    HW186161  10.382  10.166  12.773
94774SOL    HW286162  10.318  10.304  12.770
94775SOL     OW86163   9.843   1.269   6.254
94775SOL    HW186164   9.873   1.360   6.254
94775SOL    HW286165   9.816   1.253   6.344
94776SOL     OW86166   0.130  14.305   0.125
94776SOL    HW186167   0.054  14.341   0.079
94776SOL    HW286168   0.143  14.219   0.085
94777SOL     OW86169  12.326  11.032  10.204
94777SOL    HW186170  12.373  11.092  10.146
94777SOL    HW286171  12.233  11.048  10.185
94778SOL     OW86172  14.068   6.670   7.357
94778SOL    HW186173  14.050   6.734   7.425
94778SOL    HW286174  13.985   6.662   7.309
94779SOL     OW86175   5.167   3.587   8.050
94779SOL    HW186176   5.146   3.674   8.083
94779SOL    HW286177   5.263   3.587   8.042
94780SOL     OW86178   5.802   5.134  13.170
94780SOL    HW186179   5.824   5.226  13.184
94780SOL    HW286180   5.886   5.089  13.172
94781SOL     OW86181  11.224   3.730  14.210
94781SOL    HW186182  11.259   3.743  14.298
94781SOL    HW286183  11.214   3.635  14.201
94782SOL     OW86184  12.092   6.019   5.278
94782SOL    HW186185  12.078   6.091   5.339
94782SOL    HW286186  12.148   6.055   5.209
94783SOL     OW86187   2.962   2.285  13.440
94783SOL    HW186188   3.005   2.258  13.359
94783SOL    HW286189   3.014   2.244  13.509
94784SOL     OW86190   8.904   2.819  12.659
94784SOL    HW186191   8.863   2.830  12.744
94784SOL    HW286192   8.831   2.812  12.597
94785SOL     OW86193   1.144  13.048  14.413
94785SOL    HW186194   1.226  13.012  14.378
94785SOL    HW286195   1.076  13.017  14.352
94786SOL     OW86196   9.080   6.326  13.401
94786SOL    HW186197   9.063   6.412  13.438
94786SOL    HW286198   8.994   6.283  13.401
94787SOL     OW86199   8.153   4.197  10.542
94787SOL    HW186200   8.122   4.112  10.510
94787SOL    HW286201   8.234   4.177  10.589
94788SOL     OW86202   7.350   8.716   8.043
94788SOL    HW186203   7.408   8.679   7.975
94788SOL    HW286204   7.262   8.710   8.005
94789SOL     OW86205   9.716   6.780   9.038
94789SOL    HW186206   9.763   6.842   8.982
94789SOL    HW286207   9.646   6.832   9.077
94790SOL     OW86208   0.434   0.127   9.499
94790SOL    HW186209   0.437   0.209   9.450
94790SOL    HW286210   0.526   0.100   9.506
94791SOL     OW86211   3.944   6.852  10.302
94791SOL    HW186212   4.017   6.803  10.339
94791SOL    HW286213   3.867   6.825  10.353
94792SOL     OW86214   4.484   4.798   0.145
94792SOL    HW186215   4.399   4.776   0.108
94792SOL    HW286216   4.536   4.828   0.071
94793SOL     OW86217   0.960  13.456   7.115
94793SOL    HW186218   0.919  13.541   7.134
94793SOL    HW286219   0.943  13.442   7.022
94794SOL     OW86220  11.318   7.551  10.230
94794SOL    HW186221  11.237   7.513  10.263
94794SOL    HW286222  11.297   7.643  10.214
94795SOL     OW86223   7.529   9.820   1.962
94795SOL    HW186224   7.612   9.796   1.921
94795SOL    HW286225   7.462   9.793   1.900
94796SOL     OW86226   6.002   8.047   0.810
94796SOL    HW186227   6.066   8.118   0.817
94796SOL    HW286228   5.998   8.010   0.899
94797SOL     OW86229   5.844   3.157  14.855
94797SOL    HW186230   5.932   3.161  14.818
94797SOL    HW286231   5.848   3.082   0.035
94798SOL     OW86232   9.007   6.212   3.673
94798SOL    HW186233   9.072   6.174   3.615
94798SOL    HW286234   9.043   6.298   3.697
94799SOL     OW86235   1.027   2.538   4.915
94799SOL    HW186236   0.936   2.545   4.944
94799SOL    HW286237   1.055   2.452   4.945
94800SOL     OW86238  12.756   8.076   5.307
94800SOL    HW186239  12.733   8.093   5.398
94800SOL    HW286240  12.819   8.145   5.285
94801SOL     OW86241   9.179   3.241   7.971
94801SOL    HW186242   9.232   3.299   8.025
94801SOL    HW286243   9.205   3.153   7.998
94802SOL     OW86244   8.710  13.610   2.991
94802SOL    HW186245   8.682  13.701   3.004
94802SOL    HW286246   8.788  13.602   3.046
94803SOL     OW86247  13.038   4.545  13.250
94803SOL    HW186248  12.979   4.470  13.245
94803SOL    HW286249  13.063   4.550  13.342
94804SOL     OW86250   7.011   4.950  12.751
94804SOL    HW186251   7.097   4.958  12.711
94804SOL    HW286252   6.952   4.931  12.677
94805SOL     OW86253   8.961  13.354  11.566
94805SOL    HW186254   8.882  13.372  11.515
94805SOL    HW286255   8.929  13.320  11.650
94806SOL     OW86256   1.952   5.024  12.838
94806SOL    HW186257   2.033   4.993  12.797
94806SOL    HW286258   1.889   4.953  12.824
94807SOL     OW86259   1.182   0.324   5.765
94807SOL    HW186260   1.253   0.376   5.802
94807SOL    HW286261   1.190   0.238   5.806
94808SOL     OW86262   9.613   6.912   3.987
94808SOL    HW186263   9.543   6.857   3.952
94808SOL    HW286264   9.612   6.894   4.081
94809SOL     OW86265   1.288  12.922   2.812
94809SOL    HW186266   1.299  13.012   2.842
94809SOL    HW286267   1.259  12.930   2.721
94810SOL     OW86268  14.021  14.689  11.735
94810SOL    HW186269  13.958  14.623  11.764
94810SOL    HW286270  14.086  14.693  11.805
94811SOL     OW86271  14.868   3.171   3.120
94811SOL    HW186272  14.777   3.152   3.098
94811SOL    HW286273  14.865   3.253   3.169
94812SOL     OW86274   9.423   5.115   9.010
94812SOL    HW186275   9.459   5.090   9.095
94812SOL    HW286276   9.334   5.079   9.011
94813SOL     OW86277  10.816   2.174  14.614
94813SOL    HW186278  10.799   2.215  14.699
94813SOL    HW286279  10.759   2.098  14.611
94814SOL     OW86280   3.396  11.117   9.523
94814SOL    HW186281   3.342  11.042   9.547
94814SOL    HW286282   3.353  11.153   9.445
94815SOL     OW86283  14.759   9.823   5.089
94815SOL    HW186284  14.744   9.887   5.158
94815SOL    HW286285  14.841   9.780   5.113
94816SOL     OW86286   1.575  13.096   9.526
94816SOL    HW186287   1.503  13.149   9.490
94816SOL    HW286288   1.574  13.114   9.620
94817SOL     OW86289   1.783  11.738   6.816
94817SOL    HW186290   1.777  11.834   6.821
94817SOL    HW286291   1.859  11.723   6.759
94818SOL     OW86292  14.070   0.455  12.442
94818SOL    HW186293  14.149   0.427  12.396
94818SOL    HW286294  14.075   0.414  12.528
94819SOL     OW86295  13.072   6.879   1.326
94819SOL    HW186296  13.051   6.842   1.241
94819SOL    HW286297  12.988   6.912   1.359
94820SOL     OW86298   5.729  12.413   5.399
94820SOL    HW186299   5.667  12.342   5.415
94820SOL    HW286300   5.815  12.373   5.418
94821SOL     OW86301  11.730   3.131   8.879
94821SOL    HW186302  11.765   3.195   8.941
94821SOL    HW286303  11.680   3.183   8.817
94822SOL     OW86304  10.693   4.651  13.089
94822SOL    HW186305  10.676   4.560  13.064
94822SOL    HW286306  10.752   4.684  13.022
94823SOL     OW86307   0.066   3.044   7.174
94823SOL    HW186308  14.863   3.080   7.142
94823SOL    HW286309   0.045   3.009   7.260
94824SOL     OW86310   2.638   2.747   2.114
94824SOL    HW186311   2.575   2.817   2.132
94824SOL    HW286312   2.629   2.687   2.188
94825SOL     OW86313  14.769   2.276  10.156
94825SOL    HW186314  14.832   2.213  10.190
94825SOL    HW286315  14.770   2.348  10.220
94826SOL     OW86316  11.326   7.320   8.128
94826SOL    HW186317  11.373   7.333   8.046
94826SOL    HW286318  11.364   7.240   8.165
94827SOL     OW86319  13.989   4.398   2.502
94827SOL    HW186320  13.976   4.477   2.554
94827SOL    HW286321  14.084   4.391   2.493
94828SOL     OW86322   8.411  14.505   6.956
94828SOL    HW186323   8.376  14.587   6.920
94828SOL    HW286324   8.414  14.521   7.051
94829SOL     OW86325  11.405   3.457   0.969
94829SOL    HW186326  11.359   3.397   0.910
94829SOL    HW286327  11.491   3.416   0.982
94830SOL     OW86328  13.900   5.011   6.603
94830SOL    HW186329  13.857   5.083   6.648
94830SOL    HW286330  13.835   4.941   6.602
94831SOL     OW86331  10.117  10.168   4.199
94831SOL    HW186332  10.044  10.122   4.157
94831SOL    HW286333  10.183  10.100   4.214
94832SOL     OW86334   1.489  12.034  10.659
94832SOL    HW186335   1.427  11.963  10.674
94832SOL    HW286336   1.437  12.104  10.620
94833SOL     OW86337   1.958   7.489  14.684
94833SOL    HW186338   1.912   7.555  14.632
94833SOL    HW286339   1.950   7.520  14.774
94834SOL     OW86340  12.390   2.116   3.983
94834SOL    HW186341  12.435   2.032   3.978
94834SOL    HW286342  12.428   2.160   4.060
94835SOL     OW86343   5.434   7.699  11.221
94835SOL    HW186344   5.428   7.674  11.129
94835SOL    HW286345   5.363   7.652  11.263
94836SOL     OW86346   9.911  12.308   8.588
94836SOL    HW186347   9.913  12.289   8.494
94836SOL    HW286348   9.883  12.400   8.593
94837SOL     OW86349   6.201   6.708  13.076
94837SOL    HW186350   6.156   6.792  13.091
94837SOL    HW286351   6.294   6.730  13.080
94838SOL     OW86352   3.094   5.879   2.691
94838SOL    HW186353   3.018   5.860   2.745
94838SOL    HW286354   3.060   5.935   2.621
94839SOL     OW86355   9.653  10.792  14.435
94839SOL    HW186356   9.588  10.722  14.438
94839SOL    HW286357   9.688  10.787  14.346
94840SOL     OW86358   8.179   0.800  12.780
94840SOL    HW186359   8.104   0.806  12.839
94840SOL    HW286360   8.214   0.889  12.775
94841SOL     OW86361  10.603  11.342   3.381
94841SOL    HW186362  10.549  11.269   3.350
94841SOL    HW286363  10.656  11.304   3.452
94842SOL     OW86364   8.028   8.985  11.832
94842SOL    HW186365   8.109   8.947  11.797
94842SOL    HW286366   8.054   9.024  11.915
94843SOL     OW86367  14.551   3.779   4.808
94843SOL    HW186368  14.616   3.758   4.875
94843SOL    HW286369  14.475   3.811   4.858
94844SOL     OW86370   6.933  10.126  11.648
94844SOL    HW186371   6.931  10.153  11.740
94844SOL    HW286372   6.971  10.201  11.602
94845SOL     OW86373   6.756  11.602   9.079
94845SOL    HW186374   6.850  11.619   9.084
94845SOL    HW286375   6.716  11.689   9.088
94846SOL     OW86376   7.350   5.824   2.140
94846SOL    HW186377   7.434   5.866   2.155
94846SOL    HW286378   7.286   5.884   2.179
94847SOL     OW86379   1.315   4.887   1.378
94847SOL    HW186380   1.354   4.801   1.393
94847SOL    HW286381   1.381   4.949   1.409
94848SOL     OW86382  14.398   0.056   5.019
94848SOL    HW186383  14.416   0.149   5.027
94848SOL    HW286384  14.462   0.014   5.076
94849SOL     OW86385   7.207  12.044  11.763
94849SOL    HW186386   7.187  12.115  11.823
94849SOL    HW286387   7.183  11.964  11.810
94850SOL     OW86388  14.031  10.589   8.006
94850SOL    HW186389  13.949  10.549   7.977
94850SOL    HW286390  14.093  10.569   7.936
94851SOL     OW86391   7.871   0.062  11.458
94851SOL    HW186392   7.857   0.084  11.366
94851SOL    HW286393   7.943   0.118  11.487
94852SOL     OW86394  13.309   3.807  12.242
94852SOL    HW186395  13.316   3.752  12.164
94852SOL    HW286396  13.357   3.760  12.309
94853SOL     OW86397   7.943   9.926   1.643
94853SOL    HW186398   7.948   9.965   1.731
94853SOL    HW286399   8.033   9.901   1.623
94854SOL     OW86400  10.444   3.780  14.674
94854SOL    HW186401  10.453   3.760  14.767
94854SOL    HW286402  10.496   3.713  14.629
94855SOL     OW86403  10.712  11.669   0.340
94855SOL    HW186404  10.786  11.610   0.344
94855SOL    HW286405  10.671  11.652   0.255
94856SOL     OW86406  13.797  14.281   7.479
94856SOL    HW186407  13.886  14.246   7.475
94856SOL    HW286408  13.757  14.236   7.554
94857SOL     OW86409   8.706   6.957   5.094
94857SOL    HW186410   8.753   7.023   5.145
94857SOL    HW286411   8.672   7.005   5.019
94858SOL     OW86412   2.992  13.270   5.644
94858SOL    HW186413   3.004  13.361   5.671
94858SOL    HW286414   2.966  13.224   5.723
94859SOL     OW86415  10.797   0.670   9.347
94859SOL    HW186416  10.844   0.593   9.313
94859SOL    HW286417  10.705   0.651   9.327
94860SOL     OW86418   9.148   1.999  14.843
94860SOL    HW186419   9.195   1.922  14.876
94860SOL    HW286420   9.106   2.037   0.040
94861SOL     OW86421   5.846   9.256   7.046
94861SOL    HW186422   5.912   9.191   7.021
94861SOL    HW286423   5.896   9.331   7.078
94862SOL     OW86424   3.326   3.548   8.757
94862SOL    HW186425   3.395   3.580   8.699
94862SOL    HW286426   3.261   3.618   8.760
94863SOL     OW86427   3.834   2.253   2.317
94863SOL    HW186428   3.879   2.170   2.334
94863SOL    HW286429   3.905   2.316   2.306
94864SOL     OW86430   8.645   1.209   8.300
94864SOL    HW186431   8.559   1.182   8.334
94864SOL    HW286432   8.702   1.208   8.377
94865SOL     OW86433  14.034   3.445  13.419
94865SOL    HW186434  14.060   3.397  13.497
94865SOL    HW286435  14.107   3.504  13.401
94866SOL     OW86436  13.078  10.979   5.925
94866SOL    HW186437  13.066  10.915   5.995
94866SOL    HW286438  13.109  11.058   5.970
94867SOL     OW86439   9.895  13.307   1.377
94867SOL    HW186440   9.858  13.351   1.301
94867SOL    HW286441   9.945  13.375   1.423
94868SOL     OW86442   5.831   3.206   4.606
94868SOL    HW186443   5.841   3.282   4.548
94868SOL    HW286444   5.819   3.245   4.693
94869SOL     OW86445  12.392   0.219   5.511
94869SOL    HW186446  12.313   0.174   5.481
94869SOL    HW286447  12.455   0.148   5.526
94870SOL     OW86448   8.543   7.883  14.241
94870SOL    HW186449   8.581   7.970  14.252
94870SOL    HW286450   8.618   7.824  14.245
94871SOL     OW86451   6.833   5.963   4.480
94871SOL    HW186452   6.747   5.993   4.510
94871SOL    HW286453   6.819   5.935   4.390
94872SOL     OW86454   8.258   7.741  13.478
94872SOL    HW186455   8.227   7.797  13.407
94872SOL    HW286456   8.236   7.652  13.450
94873SOL     OW86457   0.547  14.404   7.708
94873SOL    HW186458   0.453  14.403   7.691
94873SOL    HW286459   0.557  14.360   7.792
94874SOL     OW86460   7.641  10.344   6.551
94874SOL    HW186461   7.717  10.393   6.519
94874SOL    HW286462   7.663  10.252   6.537
94875SOL     OW86463  11.315   4.350   2.389
94875SOL    HW186464  11.366   4.429   2.409
94875SOL    HW286465  11.265   4.374   2.310
94876SOL     OW86466  10.341  14.633   2.663
94876SOL    HW186467  10.413  14.670   2.713
94876SOL    HW286468  10.341  14.681   2.580
94877SOL     OW86469  12.570  11.480   1.266
94877SOL    HW186470  12.528  11.533   1.198
94877SOL    HW286471  12.539  11.391   1.250
94878SOL     OW86472  10.068   1.444   0.463
94878SOL    HW186473  10.101   1.356   0.477
94878SOL    HW286474  10.021   1.465   0.544
94879SOL     OW86475  11.368  12.108   0.253
94879SOL    HW186476  11.426  12.182   0.273
94879SOL    HW286477  11.420  12.051   0.197
94880SOL     OW86478   8.016  11.650   7.017
94880SOL    HW186479   8.000  11.593   6.941
94880SOL    HW286480   8.110  11.646   7.031
94881SOL     OW86481   1.237   7.086   0.395
94881SOL    HW186482   1.211   6.999   0.367
94881SOL    HW286483   1.282   7.124   0.319
94882SOL     OW86484  14.080   8.207  12.544
94882SOL    HW186485  14.159   8.207  12.598
94882SOL    HW286486  14.014   8.161  12.597
94883SOL     OW86487   9.363  11.686   1.162
94883SOL    HW186488   9.346  11.612   1.103
94883SOL    HW286489   9.324  11.761   1.118
94884SOL     OW86490   1.787   5.258   4.987
94884SOL    HW186491   1.716   5.318   5.011
94884SOL    HW286492   1.863   5.291   5.033
94885SOL     OW86493  14.445   7.833   4.784
94885SOL    HW186494  14.361   7.874   4.765
94885SOL    HW286495  14.502   7.906   4.808
94886SOL     OW86496   5.943   9.630   9.517
94886SOL    HW186497   5.899   9.700   9.565
94886SOL    HW286498   5.895   9.550   9.540
94887SOL     OW86499  13.459   4.691   4.590
94887SOL    HW186500  13.392   4.650   4.645
94887SOL    HW286501  13.415   4.707   4.507
94888SOL     OW86502   7.361   5.911  10.378
94888SOL    HW186503   7.295   5.883  10.441
94888SOL    HW286504   7.427   5.842  10.379
94889SOL     OW86505   8.344   1.086   5.419
94889SOL    HW186506   8.399   1.109   5.344
94889SOL    HW286507   8.405   1.081   5.493
94890SOL     OW86508   2.579   1.298   8.447
94890SOL    HW186509   2.486   1.306   8.428
94890SOL    HW286510   2.618   1.270   8.364
94891SOL     OW86511  11.920   5.557  10.196
94891SOL    HW186512  11.865   5.614  10.250
94891SOL    HW286513  11.948   5.488  10.256
94892SOL     OW86514   7.918   2.221   0.511
94892SOL    HW186515   7.888   2.283   0.577
94892SOL    HW286516   7.847   2.156   0.505
94893SOL     OW86517   2.602   3.952   2.667
94893SOL    HW186518   2.560   3.911   2.592
94893SOL    HW286519   2.627   4.039   2.637
94894SOL     OW86520  13.244  12.326   3.391
94894SOL    HW186521  13.328  12.303   3.431
94894SOL    HW286522  13.198  12.375   3.458
94895SOL     OW86523   6.534  12.764  11.949
94895SOL    HW186524   6.495  12.684  11.985
94895SOL    HW286525   6.627  12.757  11.970
94896SOL     OW86526   0.166   0.343   9.650
94896SOL    HW186527   0.237   0.378   9.596
94896SOL    HW286528   0.208   0.314   9.730
94897SOL     OW86529  10.839   7.747   1.622
94897SOL    HW186530  10.753   7.712   1.647
94897SOL    HW286531  10.829   7.771   1.530
94898SOL     OW86532  11.097  11.067   6.659
94898SOL    HW186533  11.128  11.026   6.578
94898SOL    HW286534  11.174  11.070   6.715
94899SOL     OW86535  13.071  12.412  11.691
94899SOL    HW186536  13.125  12.480  11.652
94899SOL    HW286537  13.074  12.340  11.628
94900SOL     OW86538   5.678   4.870   3.070
94900SOL    HW186539   5.598   4.831   3.105
94900SOL    HW286540   5.647   4.944   3.017
94901SOL     OW86541  11.477   8.301   0.236
94901SOL    HW186542  11.470   8.285   0.142
94901SOL    HW286543  11.427   8.230   0.276
94902SOL     OW86544   5.716   4.739  12.397
94902SOL    HW186545   5.714   4.793  12.476
94902SOL    HW286546   5.670   4.791  12.331
94903SOL     OW86547   1.389   2.626  13.113
94903SOL    HW186548   1.465   2.568  13.119
94903SOL    HW286549   1.425   2.712  13.091
94904SOL     OW86550   6.901   7.267   2.148
94904SOL    HW186551   6.897   7.334   2.217
94904SOL    HW286552   6.980   7.217   2.168
94905SOL     OW86553  11.184  12.029   6.014
94905SOL    HW186554  11.172  12.122   6.031
94905SOL    HW286555  11.230  12.026   5.930
94906SOL     OW86556  14.299  14.349   1.124
94906SOL    HW186557  14.270  14.392   1.044
94906SOL    HW286558  14.222  14.350   1.181
94907SOL     OW86559   6.518   5.764  11.919
94907SOL    HW186560   6.613   5.781  11.912
94907SOL    HW286561   6.512   5.679  11.961
94908SOL     OW86562   2.269  11.668   8.861
94908SOL    HW186563   2.354  11.708   8.841
94908SOL    HW286564   2.290  11.576   8.878
94909SOL     OW86565   6.547   7.791   4.602
94909SOL    HW186566   6.498   7.758   4.678
94909SOL    HW286567   6.488   7.777   4.528
94910SOL     OW86568   2.342   7.815   8.947
94910SOL    HW186569   2.260   7.845   8.908
94910SOL    HW286570   2.357   7.729   8.909
94911SOL     OW86571  12.736  13.228   3.363
94911SOL    HW186572  12.697  13.307   3.326
94911SOL    HW286573  12.681  13.207   3.438
94912SOL     OW86574   0.276  11.417   8.109
94912SOL    HW186575   0.234  11.331   8.105
94912SOL    HW286576   0.222  11.467   8.171
94913SOL     OW86577   8.243  11.653  13.238
94913SOL    HW186578   8.224  11.714  13.167
94913SOL    HW286579   8.332  11.674  13.265
94914SOL     OW86580   0.872  14.296   0.366
94914SOL    HW186581   0.800  14.276   0.427
94914SOL    HW286582   0.828  14.324   0.286
94915SOL     OW86583   2.771   3.071  13.312
94915SOL    HW186584   2.759   3.124  13.390
94915SOL    HW286585   2.682   3.050  13.283
94916SOL     OW86586   2.293   4.432  10.508
94916SOL    HW186587   2.378   4.476  10.516
94916SOL    HW286588   2.310   4.355  10.454
94917SOL     OW86589   8.243   6.939   7.205
94917SOL    HW186590   8.294   6.859   7.196
94917SOL    HW286591   8.280   6.982   7.283
94918SOL     OW86592   1.287  12.505   2.726
94918SOL    HW186593   1.354  12.525   2.660
94918SOL    HW286594   1.207  12.544   2.691
94919SOL     OW86595  12.759   8.502   0.242
94919SOL    HW186596  12.765   8.536   0.331
94919SOL    HW286597  12.690   8.436   0.246
94920SOL     OW86598   5.339   0.457   4.674
94920SOL    HW186599   5.339   0.378   4.620
94920SOL    HW286600   5.351   0.529   4.612
94921SOL     OW86601   1.914  13.506   1.275
94921SOL    HW186602   1.845  13.560   1.313
94921SOL    HW286603   1.981  13.570   1.247
94922SOL     OW86604  12.212   5.113   8.222
94922SOL    HW186605  12.278   5.132   8.155
94922SOL    HW286606  12.144   5.179   8.209
94923SOL     OW86607  13.800   4.265  13.031
94923SOL    HW186608  13.754   4.313  13.101
94923SOL    HW286609  13.889   4.301  13.034
94924SOL     OW86610   7.376  13.592  12.643
94924SOL    HW186611   7.360  13.658  12.575
94924SOL    HW286612   7.289  13.563  12.669
94925SOL     OW86613   8.578  13.733   9.819
94925SOL    HW186614   8.567  13.676   9.742
94925SOL    HW286615   8.641  13.799   9.790
94926SOL     OW86616  11.394   0.830  13.701
94926SOL    HW186617  11.468   0.863  13.752
94926SOL    HW286618  11.316   0.862  13.747
94927SOL     OW86619  11.741  14.740   3.082
94927SOL    HW186620  11.688  14.665   3.108
94927SOL    HW286621  11.831  14.714   3.103
94928SOL     OW86622   6.755  14.744   6.326
94928SOL    HW186623   6.706  14.727   6.406
94928SOL    HW286624   6.698  14.712   6.256
94929SOL     OW86625  12.949  10.510   7.826
94929SOL    HW186626  12.859  10.539   7.841
94929SOL    HW286627  12.989  10.582   7.777
94930SOL     OW86628   9.923   2.796  11.485
94930SOL    HW186629   9.888   2.859  11.422
94930SOL    HW286630   9.984   2.743  11.434
94931SOL     OW86631   2.456   3.918   0.801
94931SOL    HW186632   2.363   3.903   0.785
94931SOL    HW286633   2.497   3.833   0.784
94932SOL     OW86634   0.557  11.609   0.757
94932SOL    HW186635   0.587  11.584   0.844
94932SOL    HW286636   0.491  11.543   0.734
94933SOL     OW86637   9.016   6.284   2.496
94933SOL    HW186638   8.931   6.243   2.483
94933SOL    HW286639   9.035   6.328   2.413
94934SOL     OW86640   9.463   7.959   6.392
94934SOL    HW186641   9.557   7.941   6.395
94934SOL    HW286642   9.450   8.008   6.310
94935SOL     OW86643   5.481   1.196   5.085
94935SOL    HW186644   5.451   1.134   5.018
94935SOL    HW286645   5.403   1.246   5.109
94936SOL     OW86646   4.304   7.229   1.621
94936SOL    HW186647   4.347   7.177   1.688
94936SOL    HW286648   4.320   7.320   1.646
94937SOL     OW86649   4.913   1.015   4.012
94937SOL    HW186650   4.911   0.926   3.977
94937SOL    HW286651   4.963   1.065   3.948
94938SOL     OW86652   6.119   3.085   4.634
94938SOL    HW186653   6.068   3.127   4.564
94938SOL    HW286654   6.090   3.127   4.714
94939SOL     OW86655  14.108   9.022   8.334
94939SOL    HW186656  14.169   9.001   8.263
94939SOL    HW286657  14.030   9.054   8.290
94940SOL     OW86658   9.108  14.144   8.879
94940SOL    HW186659   9.094  14.189   8.962
94940SOL    HW286660   9.155  14.064   8.903
94941SOL     OW86661   6.570   3.465  11.740
94941SOL    HW186662   6.519   3.402  11.792
94941SOL    HW286663   6.579   3.541  11.798
94942SOL     OW86664  14.664  12.648   4.255
94942SOL    HW186665  14.631  12.570   4.210
94942SOL    HW286666  14.586  12.689   4.293
94943SOL     OW86667   4.345   1.251  14.077
94943SOL    HW186668   4.411   1.182  14.087
94943SOL    HW286669   4.389   1.319  14.028
94944SOL     OW86670  13.848   9.482  14.435
94944SOL    HW186671  13.889   9.413  14.487
94944SOL    HW286672  13.876   9.564  14.478
94945SOL     OW86673  14.727  12.109  14.760
94945SOL    HW186674  14.670  12.085  14.687
94945SOL    HW286675  14.722  12.035  14.820
94946SOL     OW86676   1.036   5.704   0.539
94946SOL    HW186677   0.951   5.714   0.580
94946SOL    HW286678   1.049   5.609   0.532
94947SOL     OW86679   4.009   3.890   5.434
94947SOL    HW186680   3.961   3.949   5.376
94947SOL    HW286681   4.086   3.940   5.459
94948SOL     OW86682   5.928   3.510  13.323
94948SOL    HW186683   5.950   3.603  13.313
94948SOL    HW286684   5.850   3.498  13.269
94949SOL     OW86685   8.884   4.699   8.169
94949SOL    HW186686   8.852   4.724   8.083
94949SOL    HW286687   8.895   4.782   8.216
94950SOL     OW86688  14.556   9.203   1.490
94950SOL    HW186689  14.469   9.241   1.478
94950SOL    HW286690  14.554   9.163   1.576
94951SOL     OW86691  12.763   0.472   8.257
94951SOL    HW186692  12.710   0.407   8.211
94951SOL    HW286693  12.700   0.521   8.311
94952SOL     OW86694   0.904   1.794  10.696
94952SOL    HW186695   0.831   1.798  10.757
94952SOL    HW286696   0.863   1.782  10.610
94953SOL     OW86697   5.880   2.675   7.089
94953SOL    HW186698   5.799   2.683   7.139
94953SOL    HW286699   5.900   2.764   7.060
94954SOL     OW86700   4.671  11.764   9.450
94954SOL    HW186701   4.585  11.731   9.425
94954SOL    HW286702   4.695  11.824   9.380
94955SOL     OW86703  10.954   0.966   6.753
94955SOL    HW186704  10.925   1.050   6.789
94955SOL    HW286705  10.986   0.917   6.829
94956SOL     OW86706   0.638   3.170  13.365
94956SOL    HW186707   0.639   3.112  13.441
94956SOL    HW286708   0.677   3.119  13.295
94957SOL     OW86709  14.115   0.408  10.348
94957SOL    HW186710  14.135   0.487  10.298
94957SOL    HW286711  14.032   0.427  10.391
94958SOL     OW86712  12.028   9.326   3.420
94958SOL    HW186713  12.059   9.288   3.338
94958SOL    HW286714  12.040   9.257   3.485
94959SOL     OW86715   3.047   6.566  12.303
94959SOL    HW186716   2.972   6.580  12.246
94959SOL    HW286717   3.036   6.477  12.335
94960SOL     OW86718   5.945   3.873  11.551
94960SOL    HW186719   5.960   3.829  11.635
94960SOL    HW286720   5.850   3.878  11.543
94961SOL     OW86721   4.567  11.874   1.081
94961SOL    HW186722   4.595  11.927   1.006
94961SOL    HW286723   4.515  11.934   1.135
94962SOL     OW86724   0.080   5.950   8.120
94962SOL    HW186725   0.110   6.007   8.050
94962SOL    HW286726   0.115   5.989   8.200
94963SOL     OW86727  12.643  10.587  10.647
94963SOL    HW186728  12.558  10.543  10.649
94963SOL    HW286729  12.623  10.678  10.625
94964SOL     OW86730   2.542  14.745  11.089
94964SOL    HW186731   2.530  14.755  10.994
94964SOL    HW286732   2.533  14.651  11.104
94965SOL     OW86733  13.548  12.209   9.565
94965SOL    HW186734  13.514  12.283   9.616
94965SOL    HW286735  13.482  12.194   9.498
94966SOL     OW86736   3.343  10.506  11.779
94966SOL    HW186737   3.332  10.478  11.688
94966SOL    HW286738   3.321  10.599  11.778
94967SOL     OW86739   9.847  12.990  11.547
94967SOL    HW186740   9.862  13.017  11.638
94967SOL    HW286741   9.823  12.897  11.554
94968SOL     OW86742   1.467   8.008   0.414
94968SOL    HW186743   1.483   8.094   0.452
94968SOL    HW286744   1.469   8.022   0.320
94969SOL     OW86745  11.982  10.175  12.585
94969SOL    HW186746  11.921  10.216  12.646
94969SOL    HW286747  11.927  10.129  12.522
94970SOL     OW86748  11.213   2.910   8.598
94970SOL    HW186749  11.254   2.880   8.516
94970SOL    HW286750  11.122   2.928   8.574
94971SOL     OW86751   5.596  13.426   0.762
94971SOL    HW186752   5.583  13.512   0.722
94971SOL    HW286753   5.613  13.446   0.854
94972SOL     OW86754   4.853   9.061   5.490
94972SOL    HW186755   4.822   8.971   5.482
94972SOL    HW286756   4.828   9.103   5.408
94973SOL     OW86757  11.775   5.535   2.935
94973SOL    HW186758  11.734   5.613   2.898
94973SOL    HW286759  11.839   5.570   2.997
94974SOL     OW86760  12.031   9.192  11.391
94974SOL    HW186761  12.110   9.215  11.342
94974SOL    HW286762  12.011   9.269  11.443
94975SOL     OW86763   6.373   6.123   6.176
94975SOL    HW186764   6.428   6.047   6.197
94975SOL    HW286765   6.419   6.166   6.104
94976SOL     OW86766  13.236   8.452  11.021
94976SOL    HW186767  13.196   8.381  11.071
94976SOL    HW286768  13.163   8.494  10.975
94977SOL     OW86769   7.740   6.563  12.762
94977SOL    HW186770   7.732   6.611  12.845
94977SOL    HW286771   7.675   6.493  12.768
94978SOL     OW86772  12.995   1.956   9.932
94978SOL    HW186773  12.985   2.039   9.887
94978SOL    HW286774  12.937   1.962  10.008
94979SOL     OW86775  11.780   3.270   5.729
94979SOL    HW186776  11.737   3.294   5.811
94979SOL    HW286777  11.842   3.341   5.712
94980SOL     OW86778   0.228   5.091   4.228
94980SOL    HW186779   0.218   5.095   4.324
94980SOL    HW286780   0.196   5.004   4.205
94981SOL     OW86781  14.706   5.617   9.627
94981SOL    HW186782  14.739   5.527   9.637
94981SOL    HW286783  14.775   5.662   9.578
94982SOL     OW86784  13.330   1.279   8.870
94982SOL    HW186785  13.377   1.210   8.916
94982SOL    HW286786  13.251   1.294   8.923
94983SOL     OW86787   3.969  14.069   9.632
94983SOL    HW186788   3.894  14.020   9.667
94983SOL    HW286789   3.965  14.055   9.538
94984SOL     OW86790   8.332   5.088   7.492
94984SOL    HW186791   8.352   5.011   7.545
94984SOL    HW286792   8.297   5.052   7.410
94985SOL     OW86793   1.501  11.365  11.989
94985SOL    HW186794   1.536  11.450  11.962
94985SOL    HW286795   1.438  11.342  11.921
94986SOL     OW86796   8.770  13.019  14.172
94986SOL    HW186797   8.761  12.966  14.093
94986SOL    HW286798   8.684  13.060  14.183
94987SOL     OW86799  10.969  11.395  10.502
94987SOL    HW186800  11.062  11.387  10.522
94987SOL    HW286801  10.925  11.341  10.568
94988SOL     OW86802   3.438   1.607   7.271
94988SOL    HW186803   3.474   1.689   7.237
94988SOL    HW286804   3.445   1.615   7.366
94989SOL     OW86805   1.252   8.586   1.894
94989SOL    HW186806   1.339   8.623   1.912
94989SOL    HW286807   1.199   8.662   1.871
94990SOL     OW86808   9.190   7.637   1.092
94990SOL    HW186809   9.198   7.601   1.003
94990SOL    HW286810   9.134   7.713   1.082
94991SOL     OW86811  12.334   0.225   3.050
94991SOL    HW186812  12.406   0.169   3.019
94991SOL    HW286813  12.350   0.309   3.007
94992SOL     OW86814  12.656   5.318   9.870
94992SOL    HW186815  12.615   5.401   9.895
94992SOL    HW286816  12.645   5.313   9.775
94993SOL     OW86817   1.952   8.881   3.850
94993SOL    HW186818   1.933   8.798   3.894
94993SOL    HW286819   1.921   8.948   3.911
94994SOL     OW86820  10.851   2.292  10.450
94994SOL    HW186821  10.824   2.349  10.522
94994SOL    HW286822  10.939   2.263  10.473
94995SOL     OW86823   8.950  11.871   4.321
94995SOL    HW186824   9.027  11.899   4.371
94995SOL    HW286825   8.930  11.783   4.354
94996SOL     OW86826   9.185  14.185   7.951
94996SOL    HW186827   9.164  14.245   7.880
94996SOL    HW286828   9.117  14.200   8.017
94997SOL     OW86829   4.387   0.266  11.545
94997SOL    HW186830   4.346   0.352  11.561
94997SOL    HW286831   4.373   0.251  11.451
94998SOL     OW86832   7.163  13.735  14.100
94998SOL    HW186833   7.258  13.734  14.090
94998SOL    HW286834   7.129  13.747  14.011
94999SOL     OW86835  14.621   4.446   3.362
94999SOL    HW186836  14.603   4.367   3.311
94999SOL    HW286837  14.544   4.502   3.346
95000SOL     OW86838   4.780   3.227   3.418
95000SOL    HW186839   4.742   3.143   3.443
95000SOL    HW286840   4.854   3.204   3.362
95001SOL     OW86841   3.134   1.658   3.036
95001SOL    HW186842   3.127   1.733   2.978
95001SOL    HW286843   3.192   1.597   2.991
95002SOL     OW86844  11.767  12.953  13.639
95002SOL    HW186845  11.862  12.959  13.637
95002SOL    HW286846  11.742  12.927  13.551
95003SOL     OW86847   2.683   1.768   2.454
95003SOL    HW186848   2.651   1.710   2.523
95003SOL    HW286849   2.617   1.838   2.448
95004SOL     OW86850   4.260  14.104   3.561
95004SOL    HW186851   4.248  14.009   3.556
95004SOL    HW286852   4.264  14.122   3.655
95005SOL     OW86853  12.401   7.522   9.044
95005SOL    HW186854  12.490   7.546   9.070
95005SOL    HW286855  12.405   7.517   8.949
95006SOL     OW86856   7.583  13.149   3.220
95006SOL    HW186857   7.669  13.191   3.213
95006SOL    HW286858   7.604  13.056   3.235
95007SOL     OW86859   3.054  13.574   4.556
95007SOL    HW186860   3.068  13.581   4.651
95007SOL    HW286861   3.003  13.494   4.545
95008SOL     OW86862  10.543   1.168   3.076
95008SOL    HW186863  10.605   1.168   3.003
95008SOL    HW286864  10.591   1.128   3.149
95009SOL     OW86865   9.811  12.359  13.714
95009SOL    HW186866   9.905  12.359  13.733
95009SOL    HW286867   9.805  12.317  13.628
95010SOL     OW86868  13.818   7.061   0.620
95010SOL    HW186869  13.895   7.098   0.578
95010SOL    HW286870  13.756   7.134   0.626
95011SOL     OW86871   1.352  12.630   7.697
95011SOL    HW186872   1.340  12.724   7.689
95011SOL    HW286873   1.276  12.600   7.747
95012SOL     OW86874  11.575   9.425  13.230
95012SOL    HW186875  11.488   9.398  13.200
95012SOL    HW286876  11.584   9.515  13.200
95013SOL     OW86877   5.576  11.309   2.182
95013SOL    HW186878   5.632  11.249   2.232
95013SOL    HW286879   5.626  11.327   2.102
95014SOL     OW86880  13.579  13.116  11.628
95014SOL    HW186881  13.514  13.099  11.560
95014SOL    HW286882  13.528  13.152  11.701
95015SOL     OW86883   3.192   9.203   7.337
95015SOL    HW186884   3.163   9.123   7.381
95015SOL    HW286885   3.135   9.272   7.372
95016SOL     OW86886  14.861   6.765   7.567
95016SOL    HW186887  14.840   6.856   7.588
95016SOL    HW286888  14.846   6.718   7.650
95017SOL     OW86889   5.925  12.112  14.041
95017SOL    HW186890   5.854  12.118  14.105
95017SOL    HW286891   6.004  12.135  14.089
95018SOL     OW86892   3.533   9.929   7.222
95018SOL    HW186893   3.486   9.942   7.304
95018SOL    HW286894   3.517   9.837   7.200
95019SOL     OW86895   0.631  11.524  11.067
95019SOL    HW186896   0.599  11.583  10.999
95019SOL    HW286897   0.718  11.556  11.088
95020SOL     OW86898   6.753   7.334   4.148
95020SOL    HW186899   6.815   7.382   4.094
95020SOL    HW286900   6.807   7.288   4.212
95021SOL     OW86901  10.325  11.254  14.799
95021SOL    HW186902  10.242  11.248  14.846
95021SOL    HW286903  10.348  11.347  14.802
95022SOL     OW86904   5.752   4.973   6.066
95022SOL    HW186905   5.819   4.911   6.038
95022SOL    HW286906   5.799   5.037   6.120
95023SOL     OW86907   7.300   4.098   6.472
95023SOL    HW186908   7.240   4.088   6.398
95023SOL    HW286909   7.247   4.138   6.541
95024SOL     OW86910  13.087   6.199   3.938
95024SOL    HW186911  13.138   6.231   4.013
95024SOL    HW286912  13.086   6.273   3.877
95025SOL     OW86913   9.342  13.256   2.409
95025SOL    HW186914   9.283  13.290   2.476
95025SOL    HW286915   9.299  13.176   2.378
95026SOL     OW86916   8.511   9.197   3.184
95026SOL    HW186917   8.578   9.131   3.168
95026SOL    HW286918   8.490   9.231   3.097
95027SOL     OW86919   2.046  11.766   5.427
95027SOL    HW186920   2.109  11.809   5.485
95027SOL    HW286921   2.072  11.793   5.339
95028SOL     OW86922   8.643  14.235  12.994
95028SOL    HW186923   8.645  14.260  12.902
95028SOL    HW286924   8.727  14.192  13.009
95029SOL     OW86925   8.642   3.429   7.041
95029SOL    HW186926   8.683   3.435   6.955
95029SOL    HW286927   8.623   3.336   7.052
95030SOL     OW86928   7.676  13.275   5.182
95030SOL    HW186929   7.717  13.282   5.269
95030SOL    HW286930   7.741  13.228   5.129
95031SOL     OW86931   0.299  14.844   8.004
95031SOL    HW186932   0.353  14.791   7.945
95031SOL    HW286933   0.354  14.858   8.081
95032SOL     OW86934   2.019  13.831   5.244
95032SOL    HW186935   2.087  13.796   5.187
95032SOL    HW286936   2.065  13.858   5.323
95033SOL     OW86937   4.109  11.532  11.845
95033SOL    HW186938   4.155  11.615  11.831
95033SOL    HW286939   4.084  11.503  11.758
95034SOL     OW86940  14.242   9.081  12.053
95034SOL    HW186941  14.192   9.048  12.127
95034SOL    HW286942  14.246   9.008  11.992
95035SOL     OW86943   3.226   8.707   5.085
95035SOL    HW186944   3.253   8.793   5.116
95035SOL    HW286945   3.232   8.651   5.162
95036SOL     OW86946   2.002   8.733   9.680
95036SOL    HW186947   1.912   8.707   9.662
95036SOL    HW286948   2.022   8.692   9.764
95037SOL     OW86949  11.500  10.416   1.848
95037SOL    HW186950  11.496  10.321   1.846
95037SOL    HW286951  11.449  10.444   1.772
95038SOL     OW86952   7.699   6.167  14.553
95038SOL    HW186953   7.627   6.214  14.594
95038SOL    HW286954   7.756   6.141  14.626
95039SOL     OW86955  14.310   0.921   9.695
95039SOL    HW186956  14.389   0.931   9.642
95039SOL    HW286957  14.255   0.995   9.672
95040SOL     OW86958  13.741  12.534   0.298
95040SOL    HW186959  13.717  12.564   0.386
95040SOL    HW286960  13.660  12.497   0.263
95041SOL     OW86961  10.069  14.778  11.652
95041SOL    HW186962  10.000  14.825  11.699
95041SOL    HW286963  10.137  14.844  11.638
95042SOL     OW86964  12.536   5.743   8.755
95042SOL    HW186965  12.494   5.736   8.841
95042SOL    HW286966  12.473   5.792   8.702
95043SOL     OW86967   3.895   9.536   9.947
95043SOL    HW186968   3.874   9.626   9.973
95043SOL    HW286969   3.919   9.493  10.029
95044SOL     OW86970   3.861  11.646   8.066
95044SOL    HW186971   3.863  11.656   7.971
95044SOL    HW286972   3.789  11.703   8.094
95045SOL     OW86973   6.770   2.329  13.065
95045SOL    HW186974   6.862   2.328  13.092
95045SOL    HW286975   6.749   2.236  13.050
95046SOL     OW86976   9.978   8.883  12.613
95046SOL    HW186977  10.058   8.868  12.663
95046SOL    HW286978   9.938   8.961  12.653
95047SOL     OW86979  11.746   6.498   3.066
95047SOL    HW186980  11.770   6.415   3.026
95047SOL    HW286981  11.782   6.494   3.154
95048SOL     OW86982  11.219   1.992   2.455
95048SOL    HW186983  11.307   1.997   2.493
95048SOL    HW286984  11.208   2.076   2.411
95049SOL     OW86985   8.514   9.221   9.450
95049SOL    HW186986   8.485   9.222   9.359
95049SOL    HW286987   8.448   9.273   9.496
95050SOL     OW86988  12.554   3.306   7.479
95050SOL    HW186989  12.549   3.245   7.405
95050SOL    HW286990  12.642   3.342   7.475
95051SOL     OW86991   7.668   5.479   5.970
95051SOL    HW186992   7.714   5.559   5.944
95051SOL    HW286993   7.630   5.445   5.888
95052SOL     OW86994   2.702   4.414   4.450
95052SOL    HW186995   2.759   4.491   4.455
95052SOL    HW286996   2.619   4.448   4.417
95053SOL     OW86997   9.556   9.190   2.576
95053SOL    HW186998   9.628   9.252   2.589
95053SOL    HW286999   9.600   9.108   2.553
95054SOL     OW87000  11.054   3.313  13.616
95054SOL    HW187001  11.059   3.217  13.607
95054SOL    HW287002  11.127   3.336  13.673
95055SOL     OW87003   0.159   7.448   2.883
95055SOL    HW187004   0.158   7.541   2.862
95055SOL    HW287005   0.081   7.413   2.840
95056SOL     OW87006  11.603   6.838  11.218
95056SOL    HW187007  11.672   6.772  11.222
95056SOL    HW287008  11.550   6.813  11.142
95057SOL     OW87009   9.275   0.238   5.456
95057SOL    HW187010   9.300   0.238   5.364
95057SOL    HW287011   9.181   0.257   5.456
95058SOL     OW87012   2.996  10.570   8.398
95058SOL    HW187013   2.983  10.665   8.395
95058SOL    HW287014   3.089  10.558   8.380
95059SOL     OW87015   9.355   6.318   4.799
95059SOL    HW187016   9.356   6.234   4.845
95059SOL    HW287017   9.292   6.372   4.848
95060SOL     OW87018   2.484   6.586  12.160
95060SOL    HW187019   2.402   6.537  12.166
95060SOL    HW287020   2.525   6.554  12.080
95061SOL     OW87021  10.048   0.062   0.812
95061SOL    HW187022  10.067   0.156   0.805
95061SOL    HW287023  10.030   0.034   0.722
95062SOL     OW87024  12.111  14.169   2.704
95062SOL    HW187025  12.132  14.112   2.778
95062SOL    HW287026  12.049  14.233   2.739
95063SOL     OW87027   6.889   4.185   1.889
95063SOL    HW187028   6.960   4.209   1.948
95063SOL    HW287029   6.846   4.268   1.868
95064SOL     OW87030   0.125   5.543   2.007
95064SOL    HW187031   0.127   5.631   2.045
95064SOL    HW287032   0.078   5.490   2.072
95065SOL     OW87033   3.943   1.069   0.967
95065SOL    HW187034   4.037   1.063   0.985
95065SOL    HW287035   3.920   1.159   0.988
95066SOL     OW87036   2.334   3.601   9.949
95066SOL    HW187037   2.253   3.552   9.939
95066SOL    HW287038   2.305   3.692   9.963
95067SOL     OW87039  10.865   1.691  10.249
95067SOL    HW187040  10.863   1.596  10.240
95067SOL    HW287041  10.791   1.721  10.197
95068SOL     OW87042  11.706   8.482   8.484
95068SOL    HW187043  11.685   8.479   8.391
95068SOL    HW287044  11.643   8.423   8.525
95069SOL     OW87045   5.702  11.547   4.659
95069SOL    HW187046   5.612  11.542   4.689
95069SOL    HW287047   5.745  11.607   4.721
95070SOL     OW87048  10.736  12.327   5.341
95070SOL    HW187049  10.795  12.325   5.265
95070SOL    HW287050  10.741  12.239   5.378
95071SOL     OW87051   6.490  14.374   0.167
95071SOL    HW187052   6.512  14.306   0.103
95071SOL    HW287053   6.410  14.413   0.134
95072SOL     OW87054  14.555   0.865   5.764
95072SOL    HW187055  14.485   0.918   5.726
95072SOL    HW287056  14.518   0.829   5.845
95073SOL     OW87057   2.588   3.844   7.435
95073SOL    HW187058   2.591   3.912   7.367
95073SOL    HW287059   2.496   3.839   7.460
95074SOL     OW87060   9.185  14.183   1.816
95074SOL    HW187061   9.189  14.088   1.814
95074SOL    HW287062   9.124  14.202   1.888
95075SOL     OW87063  11.059  14.866   2.915
95075SOL    HW187064  11.132   0.043   2.936
95075SOL    HW287065  10.986   0.021   2.966
95076SOL     OW87066   2.262   8.475   7.821
95076SOL    HW187067   2.336   8.474   7.760
95076SOL    HW287068   2.244   8.382   7.838
95077SOL     OW87069   0.881  11.773   1.489
95077SOL    HW187070   0.798  11.736   1.459
95077SOL    HW287071   0.859  11.863   1.514
95078SOL     OW87072  12.956   0.213   0.430
95078SOL    HW187073  12.989   0.180   0.347
95078SOL    HW287074  13.003   0.295   0.444
95079SOL     OW87075   6.539   2.179   6.238
95079SOL    HW187076   6.618   2.125   6.245
95079SOL    HW287077   6.468   2.120   6.263
95080SOL     OW87078   4.315   4.637   0.844
95080SOL    HW187079   4.314   4.637   0.748
95080SOL    HW287080   4.314   4.729   0.868
95081SOL     OW87081  13.105  13.749  12.385
95081SOL    HW187082  13.058  13.666  12.380
95081SOL    HW287083  13.061  13.805  12.322
95082SOL     OW87084  11.708   0.873   1.283
95082SOL    HW187085  11.677   0.825   1.360
95082SOL    HW287086  11.648   0.846   1.213
95083SOL     OW87087   0.465  12.883   3.800
95083SOL    HW187088   0.532  12.932   3.752
95083SOL    HW287089   0.505  12.868   3.886
95084SOL     OW87090   6.018   5.070   0.999
95084SOL    HW187091   5.922   5.069   1.002
95084SOL    HW287092   6.038   5.085   0.906
95085SOL     OW87093  13.893  12.376   9.292
95085SOL    HW187094  13.834  12.361   9.218
95085SOL    HW287095  13.869  12.308   9.355
95086SOL     OW87096  12.784   7.066   8.899
95086SOL    HW187097  12.703   7.116   8.901
95086SOL    HW287098  12.757   6.975   8.911
95087SOL     OW87099  11.434  14.591   6.696
95087SOL    HW187100  11.408  14.673   6.739
95087SOL    HW287101  11.447  14.616   6.604
95088SOL     OW87102   3.755   8.868   5.896
95088SOL    HW187103   3.664   8.896   5.892
95088SOL    HW287104   3.802   8.931   5.841
95089SOL     OW87105   4.643   4.002   9.720
95089SOL    HW187106   4.617   4.015   9.629
95089SOL    HW287107   4.725   3.952   9.715
95090SOL     OW87108   2.556   2.278   9.941
95090SOL    HW187109   2.587   2.244   9.856
95090SOL    HW287110   2.493   2.346   9.917
95091SOL     OW87111   1.299   2.580   5.472
95091SOL    HW187112   1.310   2.488   5.498
95091SOL    HW287113   1.360   2.592   5.399
95092SOL     OW87114   4.659   9.872   7.959
95092SOL    HW187115   4.644   9.957   7.919
95092SOL    HW287116   4.736   9.837   7.914
95093SOL     OW87117  10.876   0.579  14.871
95093SOL    HW187118  10.789   0.590   0.029
95093SOL    HW287119  10.903   0.667  14.845
95094SOL     OW87120   9.237   8.221  14.208
95094SOL    HW187121   9.202   8.281  14.274
95094SOL    HW287122   9.330   8.214  14.228
95095SOL     OW87123  13.268  10.545   6.815
95095SOL    HW187124  13.220  10.489   6.876
95095SOL    HW287125  13.353  10.502   6.804
95096SOL     OW87126  14.410   4.286   5.322
95096SOL    HW187127  14.411   4.268   5.416
95096SOL    HW287128  14.460   4.214   5.283
95097SOL     OW87129  12.820   5.780   8.720
95097SOL    HW187130  12.736   5.754   8.759
95097SOL    HW287131  12.821   5.736   8.635
95098SOL     OW87132   5.611   8.073   9.273
95098SOL    HW187133   5.541   8.018   9.309
95098SOL    HW287134   5.672   8.012   9.233
95099SOL     OW87135  12.560  12.128   8.986
95099SOL    HW187136  12.632  12.115   8.924
95099SOL    HW287137  12.482  12.099   8.939
95100SOL     OW87138   3.574  13.013   7.774
95100SOL    HW187139   3.570  13.081   7.841
95100SOL    HW287140   3.575  12.930   7.823
95101SOL     OW87141   1.560   7.328  14.255
95101SOL    HW187142   1.542   7.412  14.214
95101SOL    HW287143   1.653   7.334  14.280
95102SOL     OW87144  13.256   5.343   4.212
95102SOL    HW187145  13.187   5.352   4.278
95102SOL    HW287146  13.337   5.336   4.262
95103SOL     OW87147   3.422   0.610  10.565
95103SOL    HW187148   3.386   0.670  10.630
95103SOL    HW287149   3.386   0.525  10.589
95104SOL     OW87150   6.805   7.405   4.572
95104SOL    HW187151   6.867   7.477   4.556
95104SOL    HW287152   6.782   7.413   4.664
95105SOL     OW87153   0.583   9.554   1.100
95105SOL    HW187154   0.573   9.483   1.163
95105SOL    HW287155   0.677   9.572   1.099
95106SOL     OW87156  12.653   9.494  13.917
95106SOL    HW187157  12.714   9.547  13.967
95106SOL    HW287158  12.584   9.554  13.890
95107SOL     OW87159  12.479   7.927   8.037
95107SOL    HW187160  12.406   7.983   8.011
95107SOL    HW287161  12.482   7.934   8.132
95108SOL     OW87162   8.570  13.822   1.421
95108SOL    HW187163   8.514  13.753   1.387
95108SOL    HW287164   8.511  13.878   1.472
95109SOL     OW87165  12.788   8.156   9.207
95109SOL    HW187166  12.771   8.075   9.255
95109SOL    HW287167  12.741   8.145   9.124
95110SOL     OW87168  12.396  14.511   4.559
95110SOL    HW187169  12.460  14.457   4.514
95110SOL    HW287170  12.446  14.558   4.625
95111SOL     OW87171   7.615  13.899   8.257
95111SOL    HW187172   7.698  13.922   8.215
95111SOL    HW287173   7.557  13.876   8.185
95112SOL     OW87174   6.460  12.205   4.842
95112SOL    HW187175   6.400  12.177   4.773
95112SOL    HW287176   6.496  12.123   4.876
95113SOL     OW87177   8.828   9.715  13.045
95113SOL    HW187178   8.915   9.753  13.032
95113SOL    HW287179   8.767   9.787  13.027
95114SOL     OW87180   2.437   1.656   2.849
95114SOL    HW187181   2.349   1.693   2.851
95114SOL    HW287182   2.424   1.562   2.866
95115SOL     OW87183   9.697   5.088   6.587
95115SOL    HW187184   9.770   5.120   6.640
95115SOL    HW287185   9.679   5.158   6.525
95116SOL     OW87186   2.117  10.564  13.082
95116SOL    HW187187   2.167  10.642  13.059
95116SOL    HW287188   2.128  10.555  13.177
95117SOL     OW87189   4.420  11.454   4.952
95117SOL    HW187190   4.468  11.405   4.885
95117SOL    HW287191   4.463  11.539   4.955
95118SOL     OW87192  12.649   4.383   2.600
95118SOL    HW187193  12.620   4.450   2.661
95118SOL    HW287194  12.740   4.367   2.624
95119SOL     OW87195   8.967   2.114   6.059
95119SOL    HW187196   8.904   2.136   5.990
95119SOL    HW287197   9.002   2.029   6.034
95120SOL     OW87198   9.177  12.024   3.709
95120SOL    HW187199   9.138  11.971   3.639
95120SOL    HW287200   9.226  11.962   3.762
95121SOL     OW87201   8.791   5.001   8.863
95121SOL    HW187202   8.842   5.005   8.782
95121SOL    HW287203   8.738   5.081   8.862
95122SOL     OW87204   8.151   7.409   1.753
95122SOL    HW187205   8.179   7.317   1.750
95122SOL    HW287206   8.231   7.457   1.775
95123SOL     OW87207   8.738   1.896   3.193
95123SOL    HW187208   8.752   1.845   3.114
95123SOL    HW287209   8.820   1.944   3.206
95124SOL     OW87210   8.387  13.364  14.165
95124SOL    HW187211   8.392  13.446  14.116
95124SOL    HW287212   8.296  13.357  14.192
95125SOL     OW87213   4.013   4.140   1.873
95125SOL    HW187214   3.966   4.062   1.903
95125SOL    HW287215   4.070   4.163   1.947
95126SOL     OW87216   7.294   3.431   5.006
95126SOL    HW187217   7.361   3.498   4.993
95126SOL    HW287218   7.330   3.352   4.967
95127SOL     OW87219   5.829   5.617   2.006
95127SOL    HW187220   5.903   5.586   1.953
95127SOL    HW287221   5.753   5.574   1.967
95128SOL     OW87222   8.596   6.539  13.549
95128SOL    HW187223   8.597   6.514  13.456
95128SOL    HW287224   8.672   6.596  13.559
95129SOL     OW87225   8.645  14.304  11.098
95129SOL    HW187226   8.668  14.316  11.190
95129SOL    HW287227   8.555  14.336  11.092
95130SOL     OW87228  11.934   6.058   4.086
95130SOL    HW187229  11.898   6.104   4.163
95130SOL    HW287230  12.014   6.017   4.118
95131SOL     OW87231  14.865   9.606   3.772
95131SOL    HW187232  14.817   9.649   3.843
95131SOL    HW287233   0.072   9.588   3.809
95132SOL     OW87234   0.976   1.179   9.318
95132SOL    HW187235   0.917   1.134   9.258
95132SOL    HW287236   0.936   1.168   9.404
95133SOL     OW87237   6.326   5.363   1.416
95133SOL    HW187238   6.263   5.402   1.477
95133SOL    HW287239   6.288   5.278   1.394
95134SOL     OW87240  12.243   1.007   7.589
95134SOL    HW187241  12.242   1.098   7.561
95134SOL    HW287242  12.257   1.010   7.683
95135SOL     OW87243  10.882   3.711  12.032
95135SOL    HW187244  10.826   3.740  11.960
95135SOL    HW287245  10.959   3.675  11.989
95136SOL     OW87246   8.482   3.152  12.381
95136SOL    HW187247   8.563   3.177  12.338
95136SOL    HW287248   8.475   3.212  12.456
95137SOL     OW87249   9.310  12.760  11.257
95137SOL    HW187250   9.405  12.745  11.258
95137SOL    HW287251   9.301  12.853  11.235
95138SOL     OW87252   5.444  12.911  13.174
95138SOL    HW187253   5.410  12.834  13.219
95138SOL    HW287254   5.485  12.963  13.243
95139SOL     OW87255  14.413  12.146   1.189
95139SOL    HW187256  14.507  12.140   1.175
95139SOL    HW287257  14.382  12.204   1.119
95140SOL     OW87258  10.333   6.766   5.534
95140SOL    HW187259  10.346   6.674   5.557
95140SOL    HW287260  10.343   6.813   5.617
95141SOL     OW87261   1.125  14.608  13.839
95141SOL    HW187262   1.127  14.516  13.815
95141SOL    HW287263   1.079  14.651  13.768
95142SOL     OW87264  11.331   1.386   0.946
95142SOL    HW187265  11.288   1.332   1.012
95142SOL    HW287266  11.385   1.447   0.996
95143SOL     OW87267   0.616   6.239  13.499
95143SOL    HW187268   0.536   6.263  13.546
95143SOL    HW287269   0.620   6.300  13.425
95144SOL     OW87270   7.356   9.705   0.920
95144SOL    HW187271   7.407   9.669   0.993
95144SOL    HW287272   7.287   9.641   0.905
95145SOL     OW87273  10.470  10.464  11.996
95145SOL    HW187274  10.508  10.529  11.938
95145SOL    HW287275  10.423  10.404  11.938
95146SOL     OW87276  13.777   5.458   1.616
95146SOL    HW187277  13.698   5.481   1.666
95146SOL    HW287278  13.838   5.425   1.682
95147SOL     OW87279  14.877   6.135   2.036
95147SOL    HW187280  14.820   6.206   2.006
95147SOL    HW287281  14.877   6.072   1.963
95148SOL     OW87282   2.554   1.698   5.845
95148SOL    HW187283   2.632   1.752   5.849
95148SOL    HW287284   2.527   1.700   5.753
95149SOL     OW87285   0.860  12.774   1.381
95149SOL    HW187286   0.932  12.776   1.319
95149SOL    HW287287   0.875  12.695   1.433
95150SOL     OW87288   0.657   8.820   0.472
95150SOL    HW187289   0.655   8.890   0.538
95150SOL    HW287290   0.746   8.821   0.439
95151SOL     OW87291   1.579   7.165  11.515
95151SOL    HW187292   1.607   7.207  11.596
95151SOL    HW287293   1.507   7.108  11.541
95152SOL     OW87294  13.728  13.148  11.121
95152SOL    HW187295  13.752  13.171  11.032
95152SOL    HW287296  13.808  13.164  11.172
95153SOL     OW87297   6.307   8.873   1.540
95153SOL    HW187298   6.227   8.820   1.532
95153SOL    HW287299   6.324   8.903   1.451
95154SOL     OW87300   6.162   9.088   1.892
95154SOL    HW187301   6.159   8.993   1.898
95154SOL    HW287302   6.255   9.110   1.906
95155SOL     OW87303   4.912  14.007   3.209
95155SOL    HW187304   4.867  14.059   3.143
95155SOL    HW287305   4.917  13.919   3.173
95156SOL     OW87306  10.409   6.659   8.557
95156SOL    HW187307  10.375   6.580   8.515
95156SOL    HW287308  10.388   6.729   8.496
95157SOL     OW87309   7.541  13.840   9.504
95157SOL    HW187310   7.593  13.795   9.438
95157SOL    HW287311   7.604  13.863   9.572
95158SOL     OW87312   4.349   1.076   5.520
95158SOL    HW187313   4.321   1.167   5.510
95158SOL    HW287314   4.378   1.069   5.611
95159SOL     OW87315   5.696  14.266  11.741
95159SOL    HW187316   5.620  14.247  11.686
95159SOL    HW287317   5.667  14.338  11.797
95160SOL     OW87318   7.634   8.286   2.206
95160SOL    HW187319   7.644   8.368   2.157
95160SOL    HW287320   7.592   8.313   2.288
95161SOL     OW87321   5.331   2.770   0.637
95161SOL    HW187322   5.298   2.859   0.631
95161SOL    HW287323   5.266   2.717   0.591
95162SOL     OW87324   3.850   2.932   8.510
95162SOL    HW187325   3.803   3.005   8.470
95162SOL    HW287326   3.798   2.908   8.586
95163SOL     OW87327  12.299   9.324   5.426
95163SOL    HW187328  12.275   9.405   5.382
95163SOL    HW287329  12.262   9.332   5.514
95164SOL     OW87330   2.594   8.311   2.058
95164SOL    HW187331   2.610   8.316   1.964
95164SOL    HW287332   2.635   8.390   2.094
95165SOL     OW87333   8.357  12.800  14.190
95165SOL    HW187334   8.318  12.820  14.275
95165SOL    HW287335   8.289  12.824  14.126
95166SOL     OW87336  11.306   8.215   3.260
95166SOL    HW187337  11.290   8.215   3.166
95166SOL    HW287338  11.244   8.151   3.296
95167SOL     OW87339  12.391  14.073  13.690
95167SOL    HW187340  12.358  13.998  13.741
95167SOL    HW287341  12.389  14.043  13.599
95168SOL     OW87342   1.089  11.296  12.142
95168SOL    HW187343   1.072  11.382  12.104
95168SOL    HW287344   1.020  11.284  12.208
95169SOL     OW87345  12.806   6.234   5.755
95169SOL    HW187346  12.748   6.310   5.746
95169SOL    HW287347  12.807   6.215   5.848
95170SOL     OW87348   2.066  14.177  12.757
95170SOL    HW187349   2.055  14.123  12.679
95170SOL    HW287350   2.012  14.134  12.824
95171SOL     OW87351   5.682   2.267  10.683
95171SOL    HW187352   5.728   2.305  10.608
95171SOL    HW287353   5.618   2.208  10.644
95172SOL     OW87354   3.313   4.385  11.817
95172SOL    HW187355   3.374   4.329  11.769
95172SOL    HW287356   3.364   4.464  11.836
95173SOL     OW87357  14.471  12.750  11.033
95173SOL    HW187358  14.454  12.669  10.985
95173SOL    HW287359  14.510  12.721  11.115
95174SOL     OW87360   9.033  13.531   9.817
95174SOL    HW187361   9.075  13.445   9.823
95174SOL    HW287362   9.085  13.578   9.752
95175SOL     OW87363  12.904   8.768  10.700
95175SOL    HW187364  12.979   8.728  10.655
95175SOL    HW287365  12.828   8.727  10.660
95176SOL     OW87366   9.157   3.078   1.158
95176SOL    HW187367   9.231   3.055   1.213
95176SOL    HW287368   9.131   3.165   1.187
95177SOL     OW87369   5.317   6.306   6.437
95177SOL    HW187370   5.405   6.280   6.462
95177SOL    HW287371   5.265   6.225   6.444
95178SOL     OW87372  12.303   9.750   5.122
95178SOL    HW187373  12.363   9.780   5.054
95178SOL    HW287374  12.287   9.828   5.176
95179SOL     OW87375  13.191  13.101   3.419
95179SOL    HW187376  13.155  13.024   3.463
95179SOL    HW287377  13.247  13.066   3.350
95180SOL     OW87378   9.607  13.307   6.824
95180SOL    HW187379   9.578  13.351   6.905
95180SOL    HW287380   9.527  13.282   6.780
95181SOL     OW87381  11.317   5.296  13.446
95181SOL    HW187382  11.411   5.305  13.463
95181SOL    HW287383  11.308   5.207  13.411
95182SOL     OW87384   0.494  13.576  13.970
95182SOL    HW187385   0.421  13.638  13.971
95182SOL    HW287386   0.484  13.528  14.052
95183SOL     OW87387  11.471   2.008   0.004
95183SOL    HW187388  11.424   1.962  14.814
95183SOL    HW287389  11.535   2.063  14.837
95184SOL     OW87390   6.350   8.846  10.197
95184SOL    HW187391   6.301   8.764  10.202
95184SOL    HW287392   6.335   8.877  10.108
95185SOL     OW87393  13.357   6.689  13.202
95185SOL    HW187394  13.342   6.618  13.264
95185SOL    HW287395  13.273   6.734  13.196
95186SOL     OW87396   8.345   4.848  12.877
95186SOL    HW187397   8.301   4.763  12.884
95186SOL    HW287398   8.320   4.881  12.791
95187SOL     OW87399   3.197  13.272   8.778
95187SOL    HW187400   3.245  13.209   8.831
95187SOL    HW287401   3.135  13.218   8.728
95188SOL     OW87402  11.144   2.938  10.367
95188SOL    HW187403  11.108   2.942  10.279
95188SOL    HW287404  11.239   2.932  10.354
95189SOL     OW87405   0.498  14.169   6.838
95189SOL    HW187406   0.425  14.143   6.782
95189SOL    HW287407   0.521  14.090   6.887
95190SOL     OW87408   5.801  12.618   2.466
95190SOL    HW187409   5.769  12.528   2.470
95190SOL    HW287410   5.876  12.620   2.526
95191SOL     OW87411   8.132   2.777   1.326
95191SOL    HW187412   8.054   2.769   1.380
95191SOL    HW287413   8.103   2.751   1.238
95192SOL     OW87414   5.333   7.490   9.130
95192SOL    HW187415   5.275   7.527   9.197
95192SOL    HW287416   5.412   7.465   9.178
95193SOL     OW87417   4.468  13.026   5.247
95193SOL    HW187418   4.435  13.043   5.159
95193SOL    HW287419   4.484  13.113   5.284
95194SOL     OW87420  13.134   9.208  12.051
95194SOL    HW187421  13.076   9.276  12.015
95194SOL    HW287422  13.120   9.213  12.146
95195SOL     OW87423  14.808   9.177   1.355
95195SOL    HW187424  14.770   9.141   1.275
95195SOL    HW287425  14.737   9.175   1.419
95196SOL     OW87426   6.163  12.999  11.721
95196SOL    HW187427   6.106  12.997  11.644
95196SOL    HW287428   6.111  12.959  11.791
95197SOL     OW87429  10.029   6.528   7.219
95197SOL    HW187430  10.018   6.550   7.312
95197SOL    HW287431  10.022   6.613   7.174
95198SOL     OW87432   0.168  12.940   4.364
95198SOL    HW187433   0.079  12.975   4.374
95198SOL    HW287434   0.165  12.854   4.404
95199SOL     OW87435   8.130  11.174   7.139
95199SOL    HW187436   8.119  11.201   7.048
95199SOL    HW287437   8.055  11.116   7.157
95200SOL     OW87438  14.243  14.416  13.008
95200SOL    HW187439  14.294  14.342  12.976
95200SOL    HW287440  14.154  14.382  13.017
95201SOL     OW87441   0.173   9.141   7.883
95201SOL    HW187442   0.158   9.046   7.883
95201SOL    HW287443   0.108   9.175   7.822
95202SOL     OW87444  11.456   8.712   1.566
95202SOL    HW187445  11.431   8.668   1.484
95202SOL    HW287446  11.540   8.753   1.546
95203SOL     OW87447  14.609   3.907   1.601
95203SOL    HW187448  14.586   3.854   1.524
95203SOL    HW287449  14.547   3.880   1.668
95204SOL     OW87450  13.372   4.743  13.519
95204SOL    HW187451  13.440   4.676  13.525
95204SOL    HW287452  13.412   4.815  13.470
95205SOL     OW87453   5.324  13.958   2.037
95205SOL    HW187454   5.258  13.942   2.104
95205SOL    HW287455   5.295  13.907   1.962
95206SOL     OW87456   7.453   6.706   8.728
95206SOL    HW187457   7.501   6.777   8.686
95206SOL    HW287458   7.418   6.655   8.655
95207SOL     OW87459   4.441   8.293   3.513
95207SOL    HW187460   4.531   8.306   3.544
95207SOL    HW287461   4.390   8.279   3.593
95208SOL     OW87462  14.760  12.320  10.335
95208SOL    HW187463  14.831  12.366  10.290
95208SOL    HW287464  14.682  12.372  10.317
95209SOL     OW87465   2.155   0.122   1.974
95209SOL    HW187466   2.217   0.192   1.996
95209SOL    HW287467   2.197   0.077   1.900
95210SOL     OW87468   0.728   9.411   9.872
95210SOL    HW187469   0.720   9.373   9.960
95210SOL    HW287470   0.791   9.355   9.827
95211SOL     OW87471  10.792  10.349   9.998
95211SOL    HW187472  10.777  10.257   9.974
95211SOL    HW287473  10.755  10.357  10.086
95212SOL     OW87474  12.542   0.833   1.806
95212SOL    HW187475  12.569   0.860   1.894
95212SOL    HW287476  12.547   0.913   1.754
95213SOL     OW87477   7.032  11.185   5.791
95213SOL    HW187478   7.077  11.151   5.713
95213SOL    HW287479   7.019  11.278   5.772
95214SOL     OW87480   2.702   8.617   1.679
95214SOL    HW187481   2.729   8.591   1.591
95214SOL    HW287482   2.693   8.712   1.674
95215SOL     OW87483   0.726   3.254   4.088
95215SOL    HW187484   0.771   3.337   4.071
95215SOL    HW287485   0.753   3.197   4.015
95216SOL     OW87486  13.922   7.298   4.773
95216SOL    HW187487  13.855   7.267   4.711
95216SOL    HW287488  13.999   7.244   4.755
95217SOL     OW87489   2.212  14.500   5.946
95217SOL    HW187490   2.249  14.458   5.868
95217SOL    HW287491   2.205  14.429   6.011
95218SOL     OW87492   6.257  13.873   2.111
95218SOL    HW187493   6.167  13.899   2.093
95218SOL    HW287494   6.303  13.884   2.028
95219SOL     OW87495   1.617  10.814  13.900
95219SOL    HW187496   1.611  10.741  13.839
95219SOL    HW287497   1.526  10.831  13.926
95220SOL     OW87498   2.446   4.292  11.005
95220SOL    HW187499   2.439   4.385  11.029
95220SOL    HW287500   2.481   4.250  11.083
95221SOL     OW87501   1.766   5.904  12.711
95221SOL    HW187502   1.765   5.809  12.716
95221SOL    HW287503   1.830   5.923  12.642
95222SOL     OW87504   0.075   6.491   0.403
95222SOL    HW187505   0.043   6.401   0.412
95222SOL    HW287506   0.161   6.482   0.361
95223SOL     OW87507   0.013   8.829   8.041
95223SOL    HW187508   0.009   8.908   8.096
95223SOL    HW287509  14.832   8.768   8.082
95224SOL     OW87510   0.643  12.605   8.059
95224SOL    HW187511   0.599  12.528   8.096
95224SOL    HW287512   0.615  12.606   7.967
95225SOL     OW87513   7.520   9.481  14.311
95225SOL    HW187514   7.543   9.409  14.370
95225SOL    HW287515   7.602   9.502  14.266
95226SOL     OW87516   8.035   8.357  10.814
95226SOL    HW187517   8.000   8.444  10.835
95226SOL    HW287518   8.129   8.365  10.827
95227SOL     OW87519   6.243  10.347   1.527
95227SOL    HW187520   6.307  10.311   1.589
95227SOL    HW287521   6.264  10.304   1.444
95228SOL     OW87522   3.370   7.156  14.724
95228SOL    HW187523   3.302   7.092  14.701
95228SOL    HW287524   3.336   7.201  14.801
95229SOL     OW87525   1.515  13.048  13.079
95229SOL    HW187526   1.497  13.047  13.173
95229SOL    HW287527   1.466  13.124  13.047
95230SOL     OW87528   9.385   7.628   7.281
95230SOL    HW187529   9.348   7.581   7.207
95230SOL    HW287530   9.463   7.577   7.305
95231SOL     OW87531   3.561   5.093   1.876
95231SOL    HW187532   3.569   5.075   1.970
95231SOL    HW287533   3.534   5.010   1.837
95232SOL     OW87534  14.443  11.407   4.969
95232SOL    HW187535  14.363  11.459   4.978
95232SOL    HW287536  14.501  11.440   5.038
95233SOL     OW87537  14.538  13.924   9.718
95233SOL    HW187538  14.618  13.873   9.733
95233SOL    HW287539  14.528  13.927   9.623
95234SOL     OW87540  12.710  11.751  12.292
95234SOL    HW187541  12.773  11.743  12.364
95234SOL    HW287542  12.708  11.844  12.272
95235SOL     OW87543   4.591   0.019   2.823
95235SOL    HW187544   4.579   0.102   2.777
95235SOL    HW287545   4.631   0.043   2.907
95236SOL     OW87546  10.987   8.846   6.770
95236SOL    HW187547  10.949   8.846   6.682
95236SOL    HW287548  10.920   8.887   6.825
95237SOL     OW87549  10.769   0.179   6.300
95237SOL    HW187550  10.847   0.234   6.296
95237SOL    HW287551  10.780   0.127   6.379
95238SOL     OW87552  13.663  10.781   3.110
95238SOL    HW187553  13.728  10.718   3.079
95238SOL    HW287554  13.584  10.760   3.061
95239SOL     OW87555  11.080  10.488   4.701
95239SOL    HW187556  11.139  10.550   4.659
95239SOL    HW287557  11.110  10.484   4.792
95240SOL     OW87558  14.757  13.851  13.143
95240SOL    HW187559  14.737  13.757  13.142
95240SOL    HW287560  14.740  13.878  13.234
95241SOL     OW87561   5.259   1.376   6.730
95241SOL    HW187562   5.165   1.384   6.715
95241SOL    HW287563   5.273   1.282   6.741
95242SOL     OW87564   5.203   0.253  11.092
95242SOL    HW187565   5.201   0.349  11.088
95242SOL    HW287566   5.144   0.225  11.023
95243SOL     OW87567  14.616   5.133  10.348
95243SOL    HW187568  14.527   5.164  10.368
95243SOL    HW287569  14.673   5.192  10.396
95244SOL     OW87570   9.510   7.998   8.532
95244SOL    HW187571   9.549   8.079   8.500
95244SOL    HW287572   9.491   7.948   8.453
95245SOL     OW87573   8.270   8.724   0.059
95245SOL    HW187574   8.225   8.756  14.860
95245SOL    HW287575   8.363   8.734   0.040
95246SOL     OW87576  11.641  11.946   5.977
95246SOL    HW187577  11.659  11.890   5.902
95246SOL    HW287578  11.642  12.035   5.941
95247SOL     OW87579   6.814   5.715   3.202
95247SOL    HW187580   6.771   5.643   3.155
95247SOL    HW287581   6.880   5.672   3.255
95248SOL     OW87582  13.557   4.860  12.498
95248SOL    HW187583  13.579   4.943  12.455
95248SOL    HW287584  13.461   4.862  12.506
95249SOL     OW87585  11.145   0.003   0.617
95249SOL    HW187586  11.052   0.012   0.596
95249SOL    HW287587  11.189   0.029   0.536
95250SOL     OW87588  13.298  10.177   5.343
95250SOL    HW187589  13.261  10.251   5.296
95250SOL    HW287590  13.237  10.105   5.327
95251SOL     OW87591   9.597  10.626   6.302
95251SOL    HW187592   9.678  10.626   6.250
95251SOL    HW287593   9.611  10.558   6.368
95252SOL     OW87594   9.390  14.153  14.015
95252SOL    HW187595   9.452  14.081  14.011
95252SOL    HW287596   9.317  14.126  13.959
95253SOL     OW87597   3.100   0.213   7.550
95253SOL    HW187598   3.100   0.117   7.545
95253SOL    HW287599   3.124   0.241   7.461
95254SOL     OW87600   1.156   7.486   0.131
95254SOL    HW187601   1.241   7.517   0.102
95254SOL    HW287602   1.110   7.564   0.163
95255SOL     OW87603  10.971  10.770   2.043
95255SOL    HW187604  10.879  10.794   2.050
95255SOL    HW287605  10.981  10.743   1.952
95256SOL     OW87606  12.739   6.477  11.487
95256SOL    HW187607  12.784   6.417  11.428
95256SOL    HW287608  12.741   6.561  11.441
95257SOL     OW87609   2.168   6.097   4.171
95257SOL    HW187610   2.116   6.105   4.091
95257SOL    HW287611   2.237   6.035   4.149
95258SOL     OW87612   5.855   4.665   9.528
95258SOL    HW187613   5.875   4.619   9.610
95258SOL    HW287614   5.938   4.663   9.479
95259SOL     OW87615  10.404  14.350   2.395
95259SOL    HW187616  10.309  14.367   2.392
95259SOL    HW287617  10.443  14.437   2.385
95260SOL     OW87618  13.072   0.243   1.036
95260SOL    HW187619  13.132   0.215   1.106
95260SOL    HW287620  13.030   0.322   1.070
95261SOL     OW87621   9.147   6.137   1.680
95261SOL    HW187622   9.076   6.075   1.701
95261SOL    HW287623   9.123   6.171   1.593
95262SOL     OW87624  10.257  12.384  13.321
95262SOL    HW187625  10.272  12.289  13.319
95262SOL    HW287626  10.344  12.423  13.314
95263SOL     OW87627  11.689   1.262   8.934
95263SOL    HW187628  11.613   1.317   8.918
95263SOL    HW287629  11.682   1.237   9.026
95264SOL     OW87630   2.926  13.138  12.535
95264SOL    HW187631   2.845  13.137  12.586
95264SOL    HW287632   2.955  13.047  12.532
95265SOL     OW87633  13.053  14.334   4.237
95265SOL    HW187634  13.065  14.261   4.176
95265SOL    HW287635  13.011  14.295   4.314
95266SOL     OW87636   2.841   2.610  11.227
95266SOL    HW187637   2.898   2.653  11.164
95266SOL    HW287638   2.832   2.521  11.194
95267SOL     OW87639  14.530   9.350   3.710
95267SOL    HW187640  14.486   9.290   3.770
95267SOL    HW287641  14.484   9.340   3.627
95268SOL     OW87642   8.111   2.262  14.358
95268SOL    HW187643   8.116   2.294  14.448
95268SOL    HW287644   8.116   2.167  14.367
95269SOL     OW87645  11.959   5.678  12.685
95269SOL    HW187646  12.050   5.671  12.713
95269SOL    HW287647  11.946   5.603  12.627
95270SOL     OW87648   5.705   9.930  14.505
95270SOL    HW187649   5.642  10.000  14.522
95270SOL    HW287650   5.655   9.864  14.457
95271SOL     OW87651  12.950  11.151   3.006
95271SOL    HW187652  12.971  11.064   2.972
95271SOL    HW287653  12.869  11.175   2.962
95272SOL     OW87654   0.543   0.354   5.147
95272SOL    HW187655   0.637   0.357   5.162
95272SOL    HW287656   0.530   0.274   5.095
95273SOL     OW87657   7.276   2.667   3.111
95273SOL    HW187658   7.198   2.721   3.123
95273SOL    HW287659   7.349   2.727   3.127
95274SOL     OW87660   1.674   8.544  11.241
95274SOL    HW187661   1.625   8.462  11.237
95274SOL    HW287662   1.761   8.522  11.207
95275SOL     OW87663   7.836   9.405  12.460
95275SOL    HW187664   7.818   9.472  12.526
95275SOL    HW287665   7.877   9.453  12.388
95276SOL     OW87666  11.519  10.466  14.140
95276SOL    HW187667  11.511  10.561  14.134
95276SOL    HW287668  11.528  10.449  14.234
95277SOL     OW87669   0.884   2.081   9.494
95277SOL    HW187670   0.912   2.167   9.526
95277SOL    HW287671   0.824   2.100   9.423
95278SOL     OW87672   4.528   6.782   5.893
95278SOL    HW187673   4.589   6.773   5.966
95278SOL    HW287674   4.447   6.741   5.924
95279SOL     OW87675   0.088   3.701  10.385
95279SOL    HW187676  14.873   3.684  10.389
95279SOL    HW287677   0.128   3.615  10.397
95280SOL     OW87678  11.931   0.610   5.895
95280SOL    HW187679  12.013   0.563   5.914
95280SOL    HW287680  11.956   0.674   5.828
95281SOL     OW87681   3.683   1.589   8.788
95281SOL    HW187682   3.643   1.653   8.728
95281SOL    HW287683   3.672   1.629   8.875
95282SOL     OW87684  10.540   4.391  13.592
95282SOL    HW187685  10.556   4.481  13.564
95282SOL    HW287686  10.446   4.389  13.612
95283SOL     OW87687  11.588   8.390   8.004
95283SOL    HW187688  11.562   8.303   8.035
95283SOL    HW287689  11.514   8.418   7.950
95284SOL     OW87690  10.396   5.766  12.578
95284SOL    HW187691  10.402   5.849  12.531
95284SOL    HW287692  10.398   5.699  12.509
95285SOL     OW87693   1.518  12.482  12.922
95285SOL    HW187694   1.575  12.432  12.864
95285SOL    HW287695   1.496  12.561  12.873
95286SOL     OW87696   5.621  14.586   3.532
95286SOL    HW187697   5.710  14.554   3.525
95286SOL    HW287698   5.630  14.681   3.539
95287SOL     OW87699  12.723   4.653  14.011
95287SOL    HW187700  12.816   4.668  14.028
95287SOL    HW287701  12.690   4.614  14.092
95288SOL     OW87702   8.896  10.093   8.088
95288SOL    HW187703   8.907  10.010   8.042
95288SOL    HW287704   8.919  10.074   8.179
95289SOL     OW87705  11.309  14.471   5.189
95289SOL    HW187706  11.391  14.435   5.157
95289SOL    HW287707  11.312  14.459   5.284
95290SOL     OW87708   2.217   2.891   8.690
95290SOL    HW187709   2.230   2.882   8.785
95290SOL    HW287710   2.253   2.978   8.670
95291SOL     OW87711   5.118   7.443  10.540
95291SOL    HW187712   5.022   7.442  10.548
95291SOL    HW287713   5.139   7.363  10.492
95292SOL     OW87714   9.733   0.418   4.716
95292SOL    HW187715   9.806   0.361   4.740
95292SOL    HW287716   9.717   0.472   4.794
95293SOL     OW87717  11.802   8.106   4.476
95293SOL    HW187718  11.776   8.042   4.543
95293SOL    HW287719  11.839   8.053   4.406
95294SOL     OW87720   4.210   8.228   4.612
95294SOL    HW187721   4.143   8.263   4.670
95294SOL    HW287722   4.199   8.278   4.531
95295SOL     OW87723   4.093   4.905   6.732
95295SOL    HW187724   4.114   4.857   6.812
95295SOL    HW287725   4.159   4.877   6.669
95296SOL     OW87726   3.978  13.402  11.591
95296SOL    HW187727   4.041  13.362  11.531
95296SOL    HW287728   4.032  13.444  11.658
95297SOL     OW87729   5.458  14.821   9.956
95297SOL    HW187730   5.415  14.873  10.023
95297SOL    HW287731   5.429  14.860   9.873
95298SOL     OW87732   8.740   6.243   3.593
95298SOL    HW187733   8.831   6.236   3.620
95298SOL    HW287734   8.731   6.332   3.559
95299SOL     OW87735   6.669  14.499   0.347
95299SOL    HW187736   6.635  14.451   0.272
95299SOL    HW287737   6.723  14.435   0.393
95300SOL     OW87738   9.699   9.064  10.738
95300SOL    HW187739   9.668   9.143  10.694
95300SOL    HW287740   9.620   9.011  10.749
95301SOL     OW87741   8.922  13.645  10.026
95301SOL    HW187742   8.962  13.604   9.949
95301SOL    HW287743   8.830  13.623  10.019
95302SOL     OW87744  10.598   2.711   3.034
95302SOL    HW187745  10.667   2.650   3.060
95302SOL    HW287746  10.541   2.660   2.976
95303SOL     OW87747   4.645  11.861  12.409
95303SOL    HW187748   4.723  11.856  12.465
95303SOL    HW287749   4.673  11.824  12.326
95304SOL     OW87750   3.020   5.703   6.529
95304SOL    HW187751   3.089   5.761   6.497
95304SOL    HW287752   3.056   5.665   6.609
95305SOL     OW87753  10.569   1.474   9.458
95305SOL    HW187754  10.605   1.535   9.522
95305SOL    HW287755  10.570   1.522   9.375
95306SOL     OW87756   9.986   6.362   5.037
95306SOL    HW187757   9.974   6.378   5.130
95306SOL    HW287758   9.912   6.407   4.995
95307SOL     OW87759   2.507   1.887   8.735
95307SOL    HW187760   2.543   1.799   8.737
95307SOL    HW287761   2.426   1.879   8.685
95308SOL     OW87762   4.603   8.532  10.072
95308SOL    HW187763   4.526   8.485  10.103
95308SOL    HW287764   4.606   8.514   9.978
95309SOL     OW87765   1.695  12.200   6.605
95309SOL    HW187766   1.683  12.133   6.671
95309SOL    HW287767   1.754  12.264   6.645
95310SOL     OW87768   1.011   2.537   6.369
95310SOL    HW187769   0.973   2.490   6.443
95310SOL    HW287770   0.937   2.584   6.329
95311SOL     OW87771   2.601   2.918   8.432
95311SOL    HW187772   2.578   2.967   8.511
95311SOL    HW287773   2.672   2.968   8.392
95312SOL     OW87774   3.997   6.654  11.970
95312SOL    HW187775   4.061   6.653  12.041
95312SOL    HW287776   3.933   6.587  11.995
95313SOL     OW87777  12.631   9.184  13.326
95313SOL    HW187778  12.603   9.155  13.413
95313SOL    HW287779  12.610   9.111  13.268
95314SOL     OW87780   4.622   5.406  11.599
95314SOL    HW187781   4.666   5.322  11.610
95314SOL    HW287782   4.531   5.390  11.623
95315SOL     OW87783  12.239   4.827   4.803
95315SOL    HW187784  12.304   4.897   4.801
95315SOL    HW287785  12.281   4.756   4.851
95316SOL     OW87786  13.300  13.139   4.017
95316SOL    HW187787  13.249  13.187   3.952
95316SOL    HW287788  13.344  13.070   3.966
95317SOL     OW87789  13.863   2.783   6.206
95317SOL    HW187790  13.778   2.755   6.170
95317SOL    HW287791  13.850   2.782   6.300
95318SOL     OW87792  13.190  10.398   5.501
95318SOL    HW187793  13.199  10.488   5.533
95318SOL    HW287794  13.278  10.362   5.505
95319SOL     OW87795   3.556   0.730  14.835
95319SOL    HW187796   3.527   0.646  14.870
95319SOL    HW287797   3.648   0.717  14.813
95320SOL     OW87798  11.609   9.008   6.891
95320SOL    HW187799  11.552   9.031   6.818
95320SOL    HW287800  11.692   8.982   6.850
95321SOL     OW87801   3.213  14.174   5.363
95321SOL    HW187802   3.256  14.154   5.446
95321SOL    HW287803   3.273  14.142   5.296
95322SOL     OW87804   8.698  14.616   4.148
95322SOL    HW187805   8.621  14.654   4.107
95322SOL    HW287806   8.671  14.527   4.172
95323SOL     OW87807  10.992   4.122  13.895
95323SOL    HW187808  11.081   4.102  13.866
95323SOL    HW287809  10.980   4.069  13.974
95324SOL     OW87810   9.840  12.209   3.017
95324SOL    HW187811   9.756  12.188   3.058
95324SOL    HW287812   9.818  12.239   2.929
95325SOL     OW87813  11.011   6.856  11.175
95325SOL    HW187814  11.086   6.858  11.235
95325SOL    HW287815  10.940   6.896  11.224
95326SOL     OW87816   1.040   5.609   8.229
95326SOL    HW187817   1.097   5.673   8.272
95326SOL    HW287818   1.060   5.618   8.136
95327SOL     OW87819   2.885   7.794  14.107
95327SOL    HW187820   2.922   7.881  14.093
95327SOL    HW287821   2.803   7.810  14.154
95328SOL     OW87822   4.088   3.072   2.924
95328SOL    HW187823   4.105   3.166   2.928
95328SOL    HW287824   3.996   3.065   2.899
95329SOL     OW87825   2.591   0.544   9.046
95329SOL    HW187826   2.574   0.635   9.068
95329SOL    HW287827   2.517   0.518   8.992
95330SOL     OW87828  10.673   3.010   3.560
95330SOL    HW187829  10.728   3.021   3.637
95330SOL    HW287830  10.606   2.948   3.587
95331SOL     OW87831  12.835   5.594  13.800
95331SOL    HW187832  12.869   5.504  13.804
95331SOL    HW287833  12.884   5.641  13.867
95332SOL     OW87834  13.393   8.523  11.839
95332SOL    HW187835  13.373   8.551  11.928
95332SOL    HW287836  13.336   8.576  11.783
95333SOL     OW87837  11.093  14.531  13.788
95333SOL    HW187838  11.055  14.578  13.714
95333SOL    HW287839  11.158  14.591  13.824
95334SOL     OW87840   3.035  13.391  12.104
95334SOL    HW187841   2.994  13.474  12.129
95334SOL    HW287842   3.117  13.418  12.060
95335SOL     OW87843  14.874  11.719   2.212
95335SOL    HW187844   0.037  11.770   2.280
95335SOL    HW287845  14.780  11.735   2.226
95336SOL     OW87846  10.963   5.015  10.909
95336SOL    HW187847  11.031   4.952  10.886
95336SOL    HW287848  11.011   5.088  10.949
95337SOL     OW87849   8.139   8.482   0.806
95337SOL    HW187850   8.088   8.503   0.728
95337SOL    HW287851   8.192   8.561   0.822
95338SOL     OW87852  11.167   7.573  14.380
95338SOL    HW187853  11.133   7.523  14.306
95338SOL    HW287854  11.253   7.537  14.397
95339SOL     OW87855   9.673   2.407   0.145
95339SOL    HW187856   9.637   2.321   0.124
95339SOL    HW287857   9.768   2.393   0.148
95340SOL     OW87858   8.844   6.588   0.705
95340SOL    HW187859   8.846   6.634   0.789
95340SOL    HW287860   8.766   6.621   0.662
95341SOL     OW87861   7.808   0.026   9.414
95341SOL    HW187862   7.799   0.063   9.327
95341SOL    HW287863   7.753  14.827   9.414
95342SOL     OW87864  10.613   7.525  10.221
95342SOL    HW187865  10.651   7.562  10.142
95342SOL    HW287866  10.560   7.452  10.190
95343SOL     OW87867   4.193   3.367   6.637
95343SOL    HW187868   4.138   3.308   6.585
95343SOL    HW287869   4.149   3.451   6.632
95344SOL     OW87870  13.154   9.855   2.606
95344SOL    HW187871  13.191   9.863   2.694
95344SOL    HW287872  13.226   9.821   2.553
95345SOL     OW87873   3.618   6.543   5.950
95345SOL    HW187874   3.600   6.610   5.884
95345SOL    HW287875   3.536   6.534   5.998
95346SOL     OW87876   1.890  10.880   4.592
95346SOL    HW187877   1.844  10.799   4.570
95346SOL    HW287878   1.923  10.866   4.681
95347SOL     OW87879  10.541  10.719  10.949
95347SOL    HW187880  10.495  10.645  10.909
95347SOL    HW287881  10.484  10.747  11.020
95348SOL     OW87882  13.102  14.390   3.203
95348SOL    HW187883  13.073  14.393   3.112
95348SOL    HW287884  13.108  14.297   3.224
95349SOL     OW87885  13.723   2.373   8.460
95349SOL    HW187886  13.731   2.313   8.535
95349SOL    HW287887  13.751   2.322   8.385
95350SOL     OW87888   2.076   8.117   3.358
95350SOL    HW187889   2.154   8.152   3.315
95350SOL    HW287890   2.094   8.126   3.452
95351SOL     OW87891   6.155   1.447   4.223
95351SOL    HW187892   6.218   1.517   4.242
95351SOL    HW287893   6.079   1.493   4.186
95352SOL     OW87894  12.364  12.812   7.949
95352SOL    HW187895  12.416  12.756   8.007
95352SOL    HW287896  12.428  12.866   7.904
95353SOL     OW87897  14.125   6.418   7.177
95353SOL    HW187898  14.218   6.434   7.160
95353SOL    HW287899  14.100   6.484   7.241
95354SOL     OW87900  14.526   3.868  14.145
95354SOL    HW187901  14.432   3.884  14.137
95354SOL    HW287902  14.552   3.838  14.058
95355SOL     OW87903   3.521   0.238   0.166
95355SOL    HW187904   3.442   0.183   0.169
95355SOL    HW287905   3.570   0.213   0.245
95356SOL     OW87906  13.315  10.074   3.797
95356SOL    HW187907  13.333  10.164   3.769
95356SOL    HW287908  13.222  10.073   3.819
95357SOL     OW87909   7.883  13.772   5.075
95357SOL    HW187910   7.829  13.825   5.016
95357SOL    HW287911   7.870  13.811   5.161
95358SOL     OW87912  14.172   2.579  11.779
95358SOL    HW187913  14.184   2.491  11.745
95358SOL    HW287914  14.136   2.567  11.866
95359SOL     OW87915   1.631   6.296  13.157
95359SOL    HW187916   1.574   6.342  13.218
95359SOL    HW287917   1.629   6.205  13.186
95360SOL     OW87918   0.948   9.822   3.460
95360SOL    HW187919   1.006   9.866   3.398
95360SOL    HW287920   1.006   9.794   3.531
95361SOL     OW87921   3.895   1.337   1.537
95361SOL    HW187922   3.950   1.357   1.462
95361SOL    HW287923   3.952   1.291   1.598
95362SOL     OW87924   7.978  10.253  13.087
95362SOL    HW187925   7.996  10.323  13.150
95362SOL    HW287926   7.892  10.275  13.050
95363SOL     OW87927   4.845  14.547   3.946
95363SOL    HW187928   4.918  14.570   4.004
95363SOL    HW287929   4.768  14.547   4.004
95364SOL     OW87930  14.376  12.838  12.581
95364SOL    HW187931  14.427  12.815  12.659
95364SOL    HW287932  14.386  12.763  12.522
95365SOL     OW87933   3.935   1.474  12.111
95365SOL    HW187934   3.951   1.426  12.029
95365SOL    HW287935   3.888   1.411  12.166
95366SOL     OW87936   7.285   7.477   7.023
95366SOL    HW187937   7.226   7.431   6.964
95366SOL    HW287938   7.325   7.407   7.076
95367SOL     OW87939  10.652   5.280   2.215
95367SOL    HW187940  10.663   5.284   2.120
95367SOL    HW287941  10.576   5.224   2.229
95368SOL     OW87942  10.635   4.578   6.134
95368SOL    HW187943  10.707   4.520   6.159
95368SOL    HW287944  10.670   4.631   6.063
95369SOL     OW87945  12.301   9.548  12.256
95369SOL    HW187946  12.297   9.643  12.252
95369SOL    HW287947  12.366   9.530  12.324
95370SOL     OW87948   2.428   5.362   3.284
95370SOL    HW187949   2.409   5.306   3.359
95370SOL    HW287950   2.429   5.304   3.209
95371SOL     OW87951   1.775   6.875   4.817
95371SOL    HW187952   1.679   6.870   4.813
95371SOL    HW287953   1.796   6.961   4.781
95372SOL     OW87954   0.487   2.152   6.937
95372SOL    HW187955   0.442   2.156   6.853
95372SOL    HW287956   0.479   2.061   6.965
95373SOL     OW87957  11.333  13.143   0.179
95373SOL    HW187958  11.379  13.195   0.246
95373SOL    HW287959  11.242  13.169   0.188
95374SOL     OW87960   9.333  10.800   3.954
95374SOL    HW187961   9.381  10.793   4.037
95374SOL    HW287962   9.315  10.710   3.929
95375SOL     OW87963  14.496   8.934   6.972
95375SOL    HW187964  14.497   8.840   6.953
95375SOL    HW287965  14.406   8.961   6.951
95376SOL     OW87966   1.018  10.537  12.472
95376SOL    HW187967   1.096  10.588  12.450
95376SOL    HW287968   1.042  10.447  12.452
95377SOL     OW87969  14.341  13.594   3.193
95377SOL    HW187970  14.428  13.631   3.208
95377SOL    HW287971  14.298  13.597   3.278
95378SOL     OW87972   4.608  11.282   7.691
95378SOL    HW187973   4.600  11.187   7.695
95378SOL    HW287974   4.665  11.304   7.765
95379SOL     OW87975   2.285  14.708   6.781
95379SOL    HW187976   2.193  14.688   6.764
95379SOL    HW287977   2.330  14.686   6.699
95380SOL     OW87978  12.197   0.503   1.811
95380SOL    HW187979  12.204   0.412   1.785
95380SOL    HW287980  12.286   0.538   1.802
95381SOL     OW87981   8.063  12.912  11.090
95381SOL    HW187982   8.141  12.967  11.098
95381SOL    HW287983   8.097  12.825  11.071
95382SOL     OW87984   3.655  12.278   0.358
95382SOL    HW187985   3.631  12.332   0.283
95382SOL    HW287986   3.712  12.333   0.411
95383SOL     OW87987  13.576  13.894   3.297
95383SOL    HW187988  13.662  13.864   3.327
95383SOL    HW287989  13.514  13.830   3.333
95384SOL     OW87990  14.022   2.464   7.456
95384SOL    HW187991  14.023   2.369   7.447
95384SOL    HW287992  14.099   2.493   7.407
95385SOL     OW87993   0.570   1.671   1.435
95385SOL    HW187994   0.540   1.586   1.402
95385SOL    HW287995   0.663   1.657   1.455
95386SOL     OW87996   3.886  10.353   2.089
95386SOL    HW187997   3.813  10.332   2.148
95386SOL    HW287998   3.866  10.305   2.009
95387SOL     OW87999   0.504   1.049   5.889
95387SOL    HW188000   0.478   0.967   5.846
95387SOL    HW288001   0.583   1.025   5.937
95388SOL     OW88002  13.020  14.520   8.411
95388SOL    HW188003  13.015  14.614   8.397
95388SOL    HW288004  13.094  14.491   8.358
95389SOL     OW88005   6.319   1.252   6.993
95389SOL    HW188006   6.413   1.269   7.004
95389SOL    HW288007   6.313   1.205   6.910
95390SOL     OW88008  12.866   4.846   9.706
95390SOL    HW188009  12.839   4.884   9.622
95390SOL    HW288010  12.838   4.755   9.701
95391SOL     OW88011   5.083  14.095   7.644
95391SOL    HW188012   5.094  14.138   7.559
95391SOL    HW288013   4.994  14.060   7.642
95392SOL     OW88014   3.760   8.160   8.903
95392SOL    HW188015   3.790   8.190   8.989
95392SOL    HW288016   3.714   8.235   8.866
95393SOL     OW88017   3.557   8.858   1.791
95393SOL    HW188018   3.620   8.920   1.826
95393SOL    HW288019   3.497   8.911   1.739
95394SOL     OW88020  11.729  12.387   0.881
95394SOL    HW188021  11.737  12.435   0.964
95394SOL    HW288022  11.717  12.295   0.908
95395SOL     OW88023  10.684   7.782  14.046
95395SOL    HW188024  10.629   7.791  13.968
95395SOL    HW288025  10.628   7.738  14.110
95396SOL     OW88026   0.233   6.314  12.955
95396SOL    HW188027   0.237   6.237  13.012
95396SOL    HW288028   0.168   6.290  12.889
95397SOL     OW88029  14.090   2.351  10.126
95397SOL    HW188030  14.057   2.371  10.214
95397SOL    HW288031  14.059   2.422  10.072
95398SOL     OW88032  14.324   6.646  11.241
95398SOL    HW188033  14.295   6.677  11.156
95398SOL    HW288034  14.246   6.611  11.283
95399SOL     OW88035  12.471   9.612   2.060
95399SOL    HW188036  12.559   9.630   2.025
95399SOL    HW288037  12.483   9.535   2.116
95400SOL     OW88038  10.876   5.930  11.620
95400SOL    HW188039  10.826   5.937  11.701
95400SOL    HW288040  10.934   5.855  11.633
95401SOL     OW88041   9.693  14.762   3.000
95401SOL    HW188042   9.670  14.768   2.907
95401SOL    HW288043   9.677  14.671   3.023
95402SOL     OW88044  10.973   0.139  11.985
95402SOL    HW188045  11.005   0.049  11.990
95402SOL    HW288046  10.948   0.149  11.893
95403SOL     OW88047  14.364   8.045   4.097
95403SOL    HW188048  14.356   7.959   4.138
95403SOL    HW288049  14.280   8.059   4.054
95404SOL     OW88050  10.200  11.730   2.759
95404SOL    HW188051  10.199  11.700   2.668
95404SOL    HW288052  10.174  11.653   2.809
95405SOL     OW88053   7.223   2.705  13.405
95405SOL    HW188054   7.272   2.653  13.469
95405SOL    HW288055   7.157   2.750  13.456
95406SOL     OW88056  12.491   2.798   7.528
95406SOL    HW188057  12.511   2.730   7.464
95406SOL    HW288058  12.537   2.771   7.608
95407SOL     OW88059  12.629   8.133   6.322
95407SOL    HW188060  12.653   8.219   6.354
95407SOL    HW288061  12.655   8.073   6.392
95408SOL     OW88062   3.495  14.423   6.673
95408SOL    HW188063   3.495  14.422   6.577
95408SOL    HW288064   3.434  14.493   6.696
95409SOL     OW88065  11.130   9.905   2.483
95409SOL    HW188066  11.152   9.944   2.567
95409SOL    HW288067  11.039   9.928   2.468
95410SOL     OW88068   0.110   1.314   4.888
95410SOL    HW188069   0.074   1.226   4.878
95410SOL    HW288070   0.052   1.356   4.952
95411SOL     OW88071   4.077   3.134   5.830
95411SOL    HW188072   4.081   3.079   5.908
95411SOL    HW288073   3.983   3.151   5.817
95412SOL     OW88074   7.985   3.398   2.030
95412SOL    HW188075   7.922   3.444   1.974
95412SOL    HW288076   7.937   3.381   2.111
95413SOL     OW88077   2.276   4.801   0.577
95413SOL    HW188078   2.344   4.867   0.564
95413SOL    HW288079   2.232   4.796   0.492
95414SOL     OW88080   3.451   1.515  12.725
95414SOL    HW188081   3.400   1.520  12.805
95414SOL    HW288082   3.392   1.547  12.657
95415SOL     OW88083  14.427   8.717   6.828
95415SOL    HW188084  14.415   8.653   6.758
95415SOL    HW288085  14.368   8.789   6.806
95416SOL     OW88086   6.688  13.275   4.103
95416SOL    HW188087   6.675  13.363   4.140
95416SOL    HW288088   6.781  13.257   4.117
95417SOL     OW88089   3.558  14.752   9.229
95417SOL    HW188090   3.539  14.833   9.182
95417SOL    HW288091   3.527  14.682   9.172
95418SOL     OW88092  11.733  13.649   9.922
95418SOL    HW188093  11.688  13.733   9.914
95418SOL    HW288094  11.804  13.665   9.984
95419SOL     OW88095  12.775  13.981  14.043
95419SOL    HW188096  12.809  13.922  13.976
95419SOL    HW288097  12.729  14.049  13.995
95420SOL     OW88098   3.287  14.330   2.498
95420SOL    HW188099   3.378  14.310   2.476
95420SOL    HW288100   3.250  14.363   2.416
95421SOL     OW88101   0.163   7.219  10.105
95421SOL    HW188102   0.169   7.126  10.126
95421SOL    HW288103   0.145   7.262  10.189
95422SOL     OW88104  11.854   3.305   9.062
95422SOL    HW188105  11.943   3.339   9.050
95422SOL    HW288106  11.821   3.349   9.140
95423SOL     OW88107   9.388   5.272  11.819
95423SOL    HW188108   9.374   5.345  11.880
95423SOL    HW288109   9.339   5.199  11.857
95424SOL     OW88110   8.688  12.696   0.871
95424SOL    HW188111   8.727  12.609   0.860
95424SOL    HW288112   8.737  12.735   0.943
95425SOL     OW88113   9.420  10.544  13.441
95425SOL    HW188114   9.334  10.587  13.437
95425SOL    HW288115   9.460  10.578  13.521
95426SOL     OW88116   0.369   4.454   3.862
95426SOL    HW188117   0.410   4.540   3.856
95426SOL    HW288118   0.364   4.437   3.956
95427SOL     OW88119   3.455   6.913  12.540
95427SOL    HW188120   3.416   6.837  12.498
95427SOL    HW288121   3.547   6.889  12.554
95428SOL     OW88122  14.495   9.951  11.328
95428SOL    HW188123  14.444   9.910  11.258
95428SOL    HW288124  14.531   9.878  11.378
95429SOL     OW88125  10.877  11.454   9.934
95429SOL    HW188126  10.891  11.535   9.983
95429SOL    HW288127  10.787  11.463   9.900
95430SOL     OW88128  10.606   7.794   3.267
95430SOL    HW188129  10.657   7.795   3.186
95430SOL    HW288130  10.569   7.706   3.271
95431SOL     OW88131   5.537  14.424   0.487
95431SOL    HW188132   5.553  14.492   0.421
95431SOL    HW288133   5.539  14.470   0.570
95432SOL     OW88134  11.196   0.956  12.993
95432SOL    HW188135  11.256   0.907  13.049
95432SOL    HW288136  11.170   1.031  13.046
95433SOL     OW88137   0.073   6.291  14.781
95433SOL    HW188138   0.142   6.334  14.832
95433SOL    HW288139  14.874   6.342  14.799
95434SOL     OW88140  12.840   4.615   1.374
95434SOL    HW188141  12.920   4.589   1.328
95434SOL    HW288142  12.864   4.694   1.422
95435SOL     OW88143   7.899   6.869  13.039
95435SOL    HW188144   7.927   6.958  13.019
95435SOL    HW288145   7.809   6.864  13.007
95436SOL     OW88146  13.605   8.240  14.702
95436SOL    HW188147  13.662   8.229  14.778
95436SOL    HW288148  13.664   8.246  14.627
95437SOL     OW88149   0.709   7.628  14.546
95437SOL    HW188150   0.791   7.578  14.536
95437SOL    HW288151   0.730   7.696  14.609
95438SOL     OW88152   5.026   5.999   8.750
95438SOL    HW188153   4.970   6.067   8.786
95438SOL    HW288154   5.049   5.944   8.825
95439SOL     OW88155  10.534   2.860  11.264
95439SOL    HW188156  10.614   2.902  11.232
95439SOL    HW288157  10.529   2.886  11.356
95440SOL     OW88158   9.049   2.841  12.436
95440SOL    HW188159   8.976   2.809  12.383
95440SOL    HW288160   9.027   2.814  12.525
95441SOL     OW88161  14.495   6.914   4.242
95441SOL    HW188162  14.422   6.941   4.187
95441SOL    HW288163  14.464   6.835   4.287
95442SOL     OW88164   0.442   7.396  11.512
95442SOL    HW188165   0.524   7.409  11.560
95442SOL    HW288166   0.374   7.422  11.574
95443SOL     OW88167   0.682  13.951  14.567
95443SOL    HW188168   0.741  13.966  14.493
95443SOL    HW288169   0.739  13.913  14.634
95444SOL     OW88170  10.244   2.567  12.307
95444SOL    HW188171  10.252   2.564  12.212
95444SOL    HW288172  10.325   2.529  12.340
95445SOL     OW88173  11.541   2.181   6.441
95445SOL    HW188174  11.601   2.155   6.371
95445SOL    HW288175  11.535   2.276   6.432
95446SOL     OW88176   1.005   0.044  13.701
95446SOL    HW188177   0.930   0.082  13.747
95446SOL    HW288178   1.032   0.112  13.639
95447SOL     OW88179  10.926  11.740  13.052
95447SOL    HW188180  10.830  11.743  13.058
95447SOL    HW288181  10.947  11.809  12.989
95448SOL     OW88182   1.688   7.273   1.410
95448SOL    HW188183   1.622   7.236   1.351
95448SOL    HW288184   1.772   7.251   1.371
95449SOL     OW88185   6.142   9.591  11.348
95449SOL    HW188186   6.226   9.546  11.356
95449SOL    HW288187   6.100   9.550  11.272
95450SOL     OW88188   6.301   6.470   9.715
95450SOL    HW188189   6.392   6.455   9.740
95450SOL    HW288190   6.271   6.538   9.775
95451SOL     OW88191   2.547   5.005   8.083
95451SOL    HW188192   2.454   5.018   8.104
95451SOL    HW288193   2.555   4.911   8.070
95452SOL     OW88194   9.988   9.736   0.644
95452SOL    HW188195  10.065   9.734   0.700
95452SOL    HW288196   9.957   9.646   0.642
95453SOL     OW88197   2.261   8.310  10.344
95453SOL    HW188198   2.193   8.366  10.306
95453SOL    HW288199   2.247   8.224  10.304
95454SOL     OW88200   1.524   9.176   1.177
95454SOL    HW188201   1.459   9.240   1.207
95454SOL    HW288202   1.582   9.164   1.253
95455SOL     OW88203   4.662  14.726   0.373
95455SOL    HW188204   4.615  14.773   0.442
95455SOL    HW288205   4.702  14.796   0.320
95456SOL     OW88206   2.750   8.337   6.849
95456SOL    HW188207   2.762   8.413   6.905
95456SOL    HW288208   2.777   8.367   6.762
95457SOL     OW88209  14.203   8.390   4.812
95457SOL    HW188210  14.185   8.321   4.877
95457SOL    HW288211  14.205   8.470   4.864
95458SOL     OW88212   0.543  13.945   5.236
95458SOL    HW188213   0.534  13.952   5.141
95458SOL    HW288214   0.476  14.004   5.270
95459SOL     OW88215   1.743   8.160  11.121
95459SOL    HW188216   1.707   8.163  11.209
95459SOL    HW288217   1.694   8.091  11.076
95460SOL     OW88218  12.091   5.217   9.896
95460SOL    HW188219  12.174   5.184   9.931
95460SOL    HW288220  12.037   5.232   9.974
95461SOL     OW88221   4.422   1.230  11.929
95461SOL    HW188222   4.412   1.196  11.840
95461SOL    HW288223   4.517   1.238  11.941
95462SOL     OW88224  12.894   4.536   8.211
95462SOL    HW188225  12.952   4.553   8.137
95462SOL    HW288226  12.807   4.561   8.179
95463SOL     OW88227   5.037  11.172  11.993
95463SOL    HW188228   5.054  11.087  11.954
95463SOL    HW288229   5.123  11.207  12.016
95464SOL     OW88230   5.855   1.680  10.357
95464SOL    HW188231   5.852   1.603  10.413
95464SOL    HW288232   5.926   1.661  10.295
95465SOL     OW88233   5.017  12.035  10.868
95465SOL    HW188234   5.016  11.953  10.818
95465SOL    HW288235   5.105  12.037  10.908
95466SOL     OW88236   1.442   0.649  12.169
95466SOL    HW188237   1.528   0.607  12.177
95466SOL    HW288238   1.458   0.742  12.183
95467SOL     OW88239   8.176   6.066  12.367
95467SOL    HW188240   8.119   6.015  12.309
95467SOL    HW288241   8.115   6.108  12.429
95468SOL     OW88242   0.444   5.428   7.542
95468SOL    HW188243   0.428   5.522   7.549
95468SOL    HW288244   0.385   5.399   7.472
95469SOL     OW88245   6.182   3.576   3.680
95469SOL    HW188246   6.156   3.582   3.587
95469SOL    HW288247   6.116   3.629   3.725
95470SOL     OW88248  14.290   6.025  13.450
95470SOL    HW188249  14.235   6.073  13.511
95470SOL    HW288250  14.376   6.066  13.458
95471SOL     OW88251  13.708   5.719   8.735
95471SOL    HW188252  13.706   5.657   8.808
95471SOL    HW288253  13.677   5.801   8.772
95472SOL     OW88254  14.607   6.955   7.748
95472SOL    HW188255  14.568   6.868   7.739
95472SOL    HW288256  14.633   6.979   7.659
95473SOL     OW88257   6.569  11.188   8.939
95473SOL    HW188258   6.505  11.238   8.990
95473SOL    HW288259   6.551  11.212   8.848
95474SOL     OW88260   1.952  14.765   8.619
95474SOL    HW188261   1.871  14.798   8.659
95474SOL    HW288262   1.979  14.835   8.559
95475SOL     OW88263  10.546  12.856   7.102
95475SOL    HW188264  10.469  12.894   7.144
95475SOL    HW288265  10.511  12.805   7.029
95476SOL     OW88266   3.248   2.294  13.847
95476SOL    HW188267   3.327   2.247  13.823
95476SOL    HW288268   3.256   2.307  13.942
95477SOL     OW88269   5.040   3.564   6.980
95477SOL    HW188270   5.064   3.625   6.911
95477SOL    HW288271   5.067   3.478   6.947
95478SOL     OW88272   2.213  13.477   8.641
95478SOL    HW188273   2.300  13.445   8.664
95478SOL    HW288274   2.213  13.481   8.545
95479SOL     OW88275   1.076   5.716   5.430
95479SOL    HW188276   1.065   5.759   5.515
95479SOL    HW288277   0.987   5.699   5.399
95480SOL     OW88278   2.659  10.909  13.746
95480SOL    HW188279   2.578  10.899  13.795
95480SOL    HW288280   2.669  11.004  13.735
95481SOL     OW88281   1.580   7.992   4.167
95481SOL    HW188282   1.570   8.049   4.092
95481SOL    HW288283   1.545   7.907   4.138
95482SOL     OW88284   0.383   2.407   7.507
95482SOL    HW188285   0.423   2.477   7.457
95482SOL    HW288286   0.432   2.404   7.589
95483SOL     OW88287   4.423   2.471   8.141
95483SOL    HW188288   4.382   2.398   8.095
95483SOL    HW288289   4.359   2.542   8.134
95484SOL     OW88290  11.638  10.880  11.216
95484SOL    HW188291  11.618  10.890  11.123
95484SOL    HW288292  11.728  10.850  11.218
95485SOL     OW88293   3.878   3.543  14.215
95485SOL    HW188294   3.937   3.617  14.206
95485SOL    HW288295   3.821   3.566  14.288
95486SOL     OW88296   2.215   5.019   7.452
95486SOL    HW188297   2.241   5.110   7.437
95486SOL    HW288298   2.127   5.024   7.488
95487SOL     OW88299  12.669   6.374  13.770
95487SOL    HW188300  12.580   6.395  13.739
95487SOL    HW288301  12.656   6.335  13.856
95488SOL     OW88302   0.541  10.815   4.803
95488SOL    HW188303   0.455  10.781   4.780
95488SOL    HW288304   0.535  10.836   4.896
95489SOL     OW88305   2.736  14.520   6.539
95489SOL    HW188306   2.657  14.466   6.545
95489SOL    HW288307   2.707  14.608   6.561
95490SOL     OW88308   9.816  12.521   2.886
95490SOL    HW188309   9.744  12.502   2.946
95490SOL    HW288310   9.828  12.441   2.836
95491SOL     OW88311   5.872   6.039   3.820
95491SOL    HW188312   5.915   5.994   3.747
95491SOL    HW288313   5.844   6.123   3.783
95492SOL     OW88314   5.580   7.664   4.030
95492SOL    HW188315   5.621   7.611   3.961
95492SOL    HW288316   5.646   7.730   4.050
95493SOL     OW88317   0.865  11.657   6.016
95493SOL    HW188318   0.854  11.636   6.109
95493SOL    HW288319   0.790  11.712   5.995
95494SOL     OW88320   0.227   0.921  12.323
95494SOL    HW188321   0.172   0.999  12.312
95494SOL    HW288322   0.284   0.920  12.246
95495SOL     OW88323   1.012   3.074   8.228
95495SOL    HW188324   1.008   3.081   8.133
95495SOL    HW288325   1.103   3.053   8.248
95496SOL     OW88326   3.333   8.523   4.649
95496SOL    HW188327   3.347   8.555   4.738
95496SOL    HW288328   3.421   8.503   4.617
95497SOL     OW88329  10.025   8.125   3.043
95497SOL    HW188330   9.975   8.052   3.081
95497SOL    HW288331   9.960   8.174   2.993
95498SOL     OW88332   2.242   5.940   3.239
95498SOL    HW188333   2.293   5.981   3.308
95498SOL    HW288334   2.298   5.869   3.207
95499SOL     OW88335   6.467   4.808   8.379
95499SOL    HW188336   6.431   4.719   8.371
95499SOL    HW288337   6.562   4.795   8.381
95500SOL     OW88338   0.017  12.936   7.917
95500SOL    HW188339   0.030  12.980   7.833
95500SOL    HW288340   0.106  12.914   7.946
95501SOL     OW88341  14.308  11.188  11.126
95501SOL    HW188342  14.238  11.247  11.101
95501SOL    HW288343  14.305  11.186  11.222
95502SOL     OW88344  12.777   7.818   3.325
95502SOL    HW188345  12.692   7.811   3.282
95502SOL    HW288346  12.767   7.768   3.406
95503SOL     OW88347  11.341   1.370   7.078
95503SOL    HW188348  11.338   1.464   7.063
95503SOL    HW288349  11.346   1.332   6.990
95504SOL     OW88350  13.748   8.764   9.408
95504SOL    HW188351  13.687   8.692   9.421
95504SOL    HW288352  13.741   8.784   9.315
95505SOL     OW88353  14.763  13.944   7.135
95505SOL    HW188354  14.694  13.880   7.157
95505SOL    HW288355  14.825  13.939   7.207
95506SOL     OW88356   8.395   7.379   8.736
95506SOL    HW188357   8.327   7.436   8.700
95506SOL    HW288358   8.352   7.332   8.808
95507SOL     OW88359  14.775   3.908  11.594
95507SOL    HW188360  14.809   3.986  11.638
95507SOL    HW288361  14.682   3.926  11.581
95508SOL     OW88362  11.479  10.296   0.271
95508SOL    HW188363  11.387  10.276   0.289
95508SOL    HW288364  11.484  10.391   0.276
95509SOL     OW88365   3.786  14.128   4.995
95509SOL    HW188366   3.745  14.071   4.930
95509SOL    HW288367   3.875  14.140   4.964
95510SOL     OW88368   1.678  14.808   6.905
95510SOL    HW188369   1.706  14.731   6.954
95510SOL    HW288370   1.696   0.002   6.964
95511SOL     OW88371  11.947   3.227  14.151
95511SOL    HW188372  11.962   3.161  14.219
95511SOL    HW288373  11.866   3.201  14.108
95512SOL     OW88374   1.941  13.948  14.679
95512SOL    HW188375   1.987  13.959  14.763
95512SOL    HW288376   1.849  13.964  14.700
95513SOL     OW88377  11.944   9.514  14.039
95513SOL    HW188378  11.896   9.535  13.959
95513SOL    HW288379  12.036   9.513  14.011
95514SOL     OW88380   2.793   4.342   0.834
95514SOL    HW188381   2.888   4.328   0.832
95514SOL    HW288382   2.779   4.402   0.908
95515SOL     OW88383   0.619   8.698   6.657
95515SOL    HW188384   0.644   8.605   6.651
95515SOL    HW288385   0.526   8.696   6.677
95516SOL     OW88386   7.981   8.371   9.657
95516SOL    HW188387   8.014   8.312   9.724
95516SOL    HW288388   8.025   8.345   9.576
95517SOL     OW88389  11.611   3.887   7.660
95517SOL    HW188390  11.612   3.836   7.579
95517SOL    HW288391  11.579   3.973   7.633
95518SOL     OW88392  13.832   9.055   8.259
95518SOL    HW188393  13.849   9.143   8.225
95518SOL    HW288394  13.742   9.060   8.292
95519SOL     OW88395  11.670   8.776  11.637
95519SOL    HW188396  11.633   8.704  11.687
95519SOL    HW288397  11.594   8.820  11.599
95520SOL     OW88398   7.558  14.297  13.151
95520SOL    HW188399   7.506  14.222  13.180
95520SOL    HW288400   7.521  14.319  13.065
95521SOL     OW88401   7.562   8.918   6.581
95521SOL    HW188402   7.641   8.871   6.608
95521SOL    HW288403   7.511   8.852   6.533
95522SOL     OW88404   3.361   3.783   3.811
95522SOL    HW188405   3.340   3.874   3.832
95522SOL    HW288406   3.432   3.789   3.747
95523SOL     OW88407  12.302   4.603   1.528
95523SOL    HW188408  12.377   4.545   1.533
95523SOL    HW288409  12.337   4.690   1.546
95524SOL     OW88410   9.586  10.806   7.011
95524SOL    HW188411   9.510  10.777   7.061
95524SOL    HW288412   9.661  10.773   7.061
95525SOL     OW88413   4.514   0.510   0.168
95525SOL    HW188414   4.526   0.603   0.187
95525SOL    HW288415   4.431   0.487   0.211
95526SOL     OW88416  11.517  10.393  11.773
95526SOL    HW188417  11.536  10.478  11.735
95526SOL    HW288418  11.574  10.332  11.727
95527SOL     OW88419   3.175  11.354  12.176
95527SOL    HW188420   3.195  11.444  12.148
95527SOL    HW288421   3.232  11.299  12.124
95528SOL     OW88422   6.981  12.842   0.155
95528SOL    HW188423   6.952  12.768   0.101
95528SOL    HW288424   6.940  12.919   0.115
95529SOL     OW88425   1.912   3.946  14.262
95529SOL    HW188426   1.818   3.962  14.265
95529SOL    HW288427   1.925   3.891  14.186
95530SOL     OW88428   3.749  13.573  12.847
95530SOL    HW188429   3.843  13.590  12.846
95530SOL    HW288430   3.723  13.580  12.755
95531SOL     OW88431   3.990   3.661  12.578
95531SOL    HW188432   3.948   3.575  12.582
95531SOL    HW288433   4.054   3.653  12.508
95532SOL     OW88434   5.476  13.809   8.313
95532SOL    HW188435   5.419  13.752   8.365
95532SOL    HW288436   5.549  13.831   8.372
95533SOL     OW88437   8.245   2.515   1.649
95533SOL    HW188438   8.217   2.591   1.701
95533SOL    HW288439   8.261   2.550   1.562
95534SOL     OW88440   2.088   3.352   2.118
95534SOL    HW188441   2.016   3.415   2.120
95534SOL    HW288442   2.158   3.394   2.166
95535SOL     OW88443   5.305   1.773   4.888
95535SOL    HW188444   5.227   1.718   4.892
95535SOL    HW288445   5.332   1.769   4.796
95536SOL     OW88446  11.769  11.210   8.863
95536SOL    HW188447  11.682  11.249   8.861
95536SOL    HW288448  11.806  11.237   8.946
95537SOL     OW88449  11.382   7.071   9.550
95537SOL    HW188450  11.458   7.014   9.541
95537SOL    HW288451  11.383   7.098   9.642
95538SOL     OW88452   6.788   4.247  13.120
95538SOL    HW188453   6.873   4.290  13.106
95538SOL    HW288454   6.752   4.291  13.197
95539SOL     OW88455  14.251   0.675   4.606
95539SOL    HW188456  14.196   0.631   4.542
95539SOL    HW288457  14.259   0.765   4.574
95540SOL     OW88458   6.562   1.106   2.279
95540SOL    HW188459   6.569   1.170   2.350
95540SOL    HW288460   6.549   1.160   2.201
95541SOL     OW88461   9.202   7.120   9.384
95541SOL    HW188462   9.127   7.140   9.328
95541SOL    HW288463   9.204   7.192   9.447
95542SOL     OW88464   7.357   4.370   5.667
95542SOL    HW188465   7.306   4.414   5.735
95542SOL    HW288466   7.326   4.408   5.585
95543SOL     OW88467   6.949   4.394  13.342
95543SOL    HW188468   6.868   4.435  13.309
95543SOL    HW288469   7.001   4.467  13.374
95544SOL     OW88470   0.760   9.597   0.229
95544SOL    HW188471   0.803   9.680   0.210
95544SOL    HW288472   0.829   9.531   0.221
95545SOL     OW88473  13.038   4.748  10.449
95545SOL    HW188474  12.997   4.783  10.371
95545SOL    HW288475  13.015   4.655  10.450
95546SOL     OW88476  10.391   3.080  12.145
95546SOL    HW188477  10.418   3.042  12.228
95546SOL    HW288478  10.300   3.104  12.158
95547SOL     OW88479   2.921   6.006   4.096
95547SOL    HW188480   2.919   6.096   4.063
95547SOL    HW288481   2.905   6.014   4.190
95548SOL     OW88482  13.769   5.943   4.387
95548SOL    HW188483  13.710   6.016   4.369
95548SOL    HW288484  13.854   5.985   4.403
95549SOL     OW88485   9.470   8.210   3.882
95549SOL    HW188486   9.485   8.302   3.906
95549SOL    HW288487   9.532   8.161   3.935
95550SOL     OW88488  13.214  10.511   4.544
95550SOL    HW188489  13.214  10.473   4.456
95550SOL    HW288490  13.170  10.446   4.598
95551SOL     OW88491  12.918  14.706  14.140
95551SOL    HW188492  12.961  14.646  14.079
95551SOL    HW288493  12.975  14.704  14.218
95552SOL     OW88494  11.160   5.876   5.992
95552SOL    HW188495  11.172   5.971   5.985
95552SOL    HW288496  11.066   5.866   6.008
95553SOL     OW88497   3.937   1.486  13.967
95553SOL    HW188498   3.977   1.433  14.036
95553SOL    HW288499   3.957   1.576  13.991
95554SOL     OW88500   5.185   3.312   9.593
95554SOL    HW188501   5.253   3.379   9.586
95554SOL    HW288502   5.121   3.349   9.653
95555SOL     OW88503   0.462   7.636   3.417
95555SOL    HW188504   0.507   7.707   3.372
95555SOL    HW288505   0.490   7.557   3.371
95556SOL     OW88506  12.812  10.583   6.997
95556SOL    HW188507  12.871  10.643   6.953
95556SOL    HW288508  12.734  10.579   6.941
95557SOL     OW88509   6.928   8.654   6.540
95557SOL    HW188510   7.012   8.690   6.569
95557SOL    HW288511   6.901   8.595   6.610
95558SOL     OW88512  13.523   5.411  12.883
95558SOL    HW188513  13.481   5.493  12.855
95558SOL    HW288514  13.573   5.435  12.961
95559SOL     OW88515   3.426   0.767   6.426
95559SOL    HW188516   3.400   0.677   6.405
95559SOL    HW288517   3.348   0.819   6.406
95560SOL     OW88518   4.439   8.187   1.312
95560SOL    HW188519   4.442   8.164   1.405
95560SOL    HW288520   4.531   8.189   1.285
95561SOL     OW88521   5.978   6.664   7.386
95561SOL    HW188522   5.933   6.580   7.386
95561SOL    HW288523   5.958   6.702   7.471
95562SOL     OW88524   2.924   5.047  14.719
95562SOL    HW188525   2.889   4.958  14.734
95562SOL    HW288526   2.850   5.095  14.682
95563SOL     OW88527   2.617   6.572   4.509
95563SOL    HW188528   2.545   6.630   4.482
95563SOL    HW288529   2.580   6.484   4.504
95564SOL     OW88530   5.945  12.932  13.620
95564SOL    HW188531   6.007  12.964  13.686
95564SOL    HW288532   5.996  12.871  13.567
95565SOL     OW88533   4.185   6.075  12.187
95565SOL    HW188534   4.250   6.082  12.257
95565SOL    HW288535   4.190   5.984  12.158
95566SOL     OW88536   7.967   8.651   3.446
95566SOL    HW188537   8.049   8.620   3.484
95566SOL    HW288538   7.929   8.574   3.404
95567SOL     OW88539  13.190   8.961   8.255
95567SOL    HW188540  13.120   8.963   8.190
95567SOL    HW288541  13.206   9.053   8.277
95568SOL     OW88542   2.427   9.419  11.240
95568SOL    HW188543   2.403   9.511  11.235
95568SOL    HW288544   2.520   9.419  11.263
95569SOL     OW88545   3.062  12.546   9.925
95569SOL    HW188546   3.147  12.577   9.958
95569SOL    HW288547   3.074  12.540   9.830
95570SOL     OW88548  10.756   1.608   0.623
95570SOL    HW188549  10.848   1.635   0.619
95570SOL    HW288550  10.748   1.565   0.708
95571SOL     OW88551  14.589  13.678   3.238
95571SOL    HW188552  14.679  13.659   3.215
95571SOL    HW288553  14.589  13.771   3.261
95572SOL     OW88554   5.232   3.667   9.676
95572SOL    HW188555   5.309   3.676   9.732
95572SOL    HW288556   5.260   3.696   9.590
95573SOL     OW88557  12.510   6.458  10.786
95573SOL    HW188558  12.432   6.402  10.784
95573SOL    HW288559  12.576   6.405  10.831
95574SOL     OW88560  12.353  14.700  10.300
95574SOL    HW188561  12.259  14.714  10.291
95574SOL    HW288562  12.382  14.767  10.362
95575SOL     OW88563   0.010  11.591   8.818
95575SOL    HW188564  14.846  11.645   8.752
95575SOL    HW288565   0.066  11.532   8.769
95576SOL     OW88566   0.658   9.953   2.914
95576SOL    HW188567   0.699  10.039   2.904
95576SOL    HW288568   0.716   9.893   2.866
95577SOL     OW88569   4.471   9.027   1.370
95577SOL    HW188570   4.527   9.092   1.413
95577SOL    HW288571   4.533   8.960   1.340
95578SOL     OW88572   5.692   5.141   3.654
95578SOL    HW188573   5.752   5.151   3.728
95578SOL    HW288574   5.615   5.192   3.679
95579SOL     OW88575   5.677  12.975  10.571
95579SOL    HW188576   5.638  13.000  10.654
95579SOL    HW288577   5.648  12.884  10.558
95580SOL     OW88578   8.916   3.099  12.764
95580SOL    HW188579   8.893   3.064  12.678
95580SOL    HW288580   8.832   3.129  12.801
95581SOL     OW88581   7.468   4.653   2.299
95581SOL    HW188582   7.501   4.563   2.307
95581SOL    HW288583   7.494   4.680   2.211
95582SOL     OW88584  12.886   0.897   3.792
95582SOL    HW188585  12.860   0.832   3.858
95582SOL    HW288586  12.819   0.965   3.797
95583SOL     OW88587  10.765   4.318   2.233
95583SOL    HW188588  10.691   4.366   2.195
95583SOL    HW288589  10.753   4.228   2.203
95584SOL     OW88590   7.530   6.270   2.254
95584SOL    HW188591   7.447   6.238   2.290
95584SOL    HW288592   7.510   6.293   2.163
95585SOL     OW88593  10.658   5.916  14.301
95585SOL    HW188594  10.626   5.979  14.366
95585SOL    HW288595  10.753   5.926  14.303
95586SOL     OW88596   5.621   1.383   9.405
95586SOL    HW188597   5.635   1.329   9.482
95586SOL    HW288598   5.691   1.448   9.408
95587SOL     OW88599   4.590   6.801   7.272
95587SOL    HW188600   4.573   6.713   7.237
95587SOL    HW288601   4.599   6.856   7.194
95588SOL     OW88602   3.200  11.236   7.034
95588SOL    HW188603   3.270  11.271   6.979
95588SOL    HW288604   3.231  11.150   7.061
95589SOL     OW88605  13.932  13.867  14.265
95589SOL    HW188606  13.940  13.940  14.204
95589SOL    HW288607  14.008  13.812  14.248
95590SOL     OW88608  12.258   9.209   9.760
95590SOL    HW188609  12.178   9.187   9.807
95590SOL    HW288610  12.276   9.133   9.705
95591SOL     OW88611  14.493   7.165   5.753
95591SOL    HW188612  14.418   7.149   5.696
95591SOL    HW288613  14.550   7.222   5.702
95592SOL     OW88614   5.572  10.369   7.713
95592SOL    HW188615   5.508  10.357   7.784
95592SOL    HW288616   5.619  10.449   7.737
95593SOL     OW88617   7.743   8.187   4.528
95593SOL    HW188618   7.688   8.240   4.585
95593SOL    HW288619   7.706   8.198   4.440
95594SOL     OW88620   4.410  14.049  12.832
95594SOL    HW188621   4.409  14.144  12.820
95594SOL    HW288622   4.357  14.033  12.910
95595SOL     OW88623  13.339   9.974   5.723
95595SOL    HW188624  13.248   9.988   5.696
95595SOL    HW288625  13.360  10.051   5.776
95596SOL     OW88626   7.846   4.659   3.616
95596SOL    HW188627   7.900   4.732   3.646
95596SOL    HW288628   7.759   4.677   3.652
95597SOL     OW88629   7.048   7.767   0.501
95597SOL    HW188630   6.997   7.802   0.574
95597SOL    HW288631   6.986   7.711   0.453
95598SOL     OW88632  14.382   7.807  10.140
95598SOL    HW188633  14.399   7.874  10.074
95598SOL    HW288634  14.290   7.817  10.162
95599SOL     OW88635   8.446   9.816   9.531
95599SOL    HW188636   8.387   9.797   9.604
95599SOL    HW288637   8.453   9.911   9.530
95600SOL     OW88638  10.191   0.119   9.933
95600SOL    HW188639  10.123   0.069   9.887
95600SOL    HW288640  10.173   0.105  10.026
95601SOL     OW88641   8.174   1.601   7.274
95601SOL    HW188642   8.203   1.679   7.227
95601SOL    HW288643   8.233   1.532   7.244
95602SOL     OW88644   1.364   0.482   3.092
95602SOL    HW188645   1.270   0.480   3.111
95602SOL    HW288646   1.389   0.574   3.103
95603SOL     OW88647  12.600   3.371   9.361
95603SOL    HW188648  12.540   3.302   9.389
95603SOL    HW288649  12.651   3.391   9.439
95604SOL     OW88650   4.020   4.104   8.453
95604SOL    HW188651   4.087   4.133   8.515
95604SOL    HW288652   3.937   4.121   8.498
95605SOL     OW88653   5.338   3.190   3.996
95605SOL    HW188654   5.349   3.100   3.966
95605SOL    HW288655   5.288   3.232   3.925
95606SOL     OW88656   5.647   7.802   2.682
95606SOL    HW188657   5.735   7.817   2.717
95606SOL    HW288658   5.636   7.870   2.615
95607SOL     OW88659   3.611   4.696  10.648
95607SOL    HW188660   3.538   4.657  10.600
95607SOL    HW288661   3.573   4.727  10.730
95608SOL     OW88662   1.900   2.572   0.674
95608SOL    HW188663   1.922   2.630   0.747
95608SOL    HW288664   1.948   2.491   0.693
95609SOL     OW88665  13.402   3.229   9.016
95609SOL    HW188666  13.318   3.232   9.061
95609SOL    HW288667  13.379   3.212   8.925
95610SOL     OW88668  11.005   8.760  12.716
95610SOL    HW188669  11.061   8.720  12.649
95610SOL    HW288670  11.018   8.854  12.705
95611SOL     OW88671   5.647   7.230   7.429
95611SOL    HW188672   5.700   7.163   7.473
95611SOL    HW288673   5.557   7.204   7.447
95612SOL     OW88674  13.880  12.795   5.257
95612SOL    HW188675  13.929  12.731   5.308
95612SOL    HW288676  13.808  12.822   5.315
95613SOL     OW88677  13.542   6.185   0.799
95613SOL    HW188678  13.561   6.254   0.863
95613SOL    HW288679  13.447   6.173   0.804
95614SOL     OW88680   3.657  10.591   7.144
95614SOL    HW188681   3.664  10.498   7.125
95614SOL    HW288682   3.568  10.615   7.115
95615SOL     OW88683  14.377  10.887   3.696
95615SOL    HW188684  14.339  10.946   3.761
95615SOL    HW288685  14.396  10.943   3.621
95616SOL     OW88686   8.299   5.673  11.711
95616SOL    HW188687   8.204   5.682  11.705
95616SOL    HW288688   8.323   5.729  11.785
95617SOL     OW88689  13.473  10.067  13.092
95617SOL    HW188690  13.421  10.065  13.011
95617SOL    HW288691  13.545  10.006  13.075
95618SOL     OW88692   8.215   1.340   0.633
95618SOL    HW188693   8.188   1.255   0.600
95618SOL    HW288694   8.161   1.355   0.710
95619SOL     OW88695   7.799   1.383  12.167
95619SOL    HW188696   7.719   1.336  12.190
95619SOL    HW288697   7.769   1.457  12.114
95620SOL     OW88698   4.144   6.268   8.571
95620SOL    HW188699   4.225   6.248   8.524
95620SOL    HW288700   4.168   6.258   8.664
95621SOL     OW88701   3.330   5.267   7.080
95621SOL    HW188702   3.300   5.179   7.056
95621SOL    HW288703   3.370   5.256   7.166
95622SOL     OW88704   4.663  13.115  14.341
95622SOL    HW188705   4.717  13.089  14.267
95622SOL    HW288706   4.724  13.158  14.401
95623SOL     OW88707   3.568   9.586   6.728
95623SOL    HW188708   3.555   9.680   6.742
95623SOL    HW288709   3.597   9.580   6.637
95624SOL     OW88710   1.621   0.810   9.233
95624SOL    HW188711   1.584   0.807   9.321
95624SOL    HW288712   1.615   0.902   9.207
95625SOL     OW88713  12.479  13.250   5.289
95625SOL    HW188714  12.476  13.311   5.215
95625SOL    HW288715  12.518  13.170   5.252
95626SOL     OW88716   9.916   0.570   8.624
95626SOL    HW188717   9.836   0.594   8.671
95626SOL    HW288718   9.887   0.549   8.535
95627SOL     OW88719  10.010   5.102  14.833
95627SOL    HW188720   9.952   5.097   0.029
95627SOL    HW288721   9.962   5.154  14.769
95628SOL     OW88722   1.639   9.573  13.895
95628SOL    HW188723   1.544   9.585  13.895
95628SOL    HW288724   1.674   9.654  13.934
95629SOL     OW88725  10.981   7.501   3.012
95629SOL    HW188726  10.904   7.465   2.966
95629SOL    HW288727  10.970   7.596   3.005
95630SOL     OW88728   3.398   4.744  10.304
95630SOL    HW188729   3.359   4.658  10.321
95630SOL    HW288730   3.487   4.725  10.275
95631SOL     OW88731   7.918  14.466  12.263
95631SOL    HW188732   7.842  14.419  12.298
95631SOL    HW288733   7.994  14.414  12.292
95632SOL     OW88734   9.413  14.510   0.961
95632SOL    HW188735   9.418  14.559   1.044
95632SOL    HW288736   9.366  14.430   0.984
95633SOL     OW88737  11.949   6.556  12.098
95633SOL    HW188738  12.013   6.530  12.165
95633SOL    HW288739  11.995   6.543  12.015
95634SOL     OW88740   1.828   3.905   2.321
95634SOL    HW188741   1.907   3.946   2.286
95634SOL    HW288742   1.785   3.865   2.245
95635SOL     OW88743   5.693   4.698  11.240
95635SOL    HW188744   5.766   4.642  11.211
95635SOL    HW288745   5.727   4.743  11.317
95636SOL     OW88746   2.626   2.461   4.676
95636SOL    HW188747   2.668   2.509   4.748
95636SOL    HW288748   2.690   2.394   4.652
95637SOL     OW88749   1.794   4.117   6.292
95637SOL    HW188750   1.876   4.071   6.274
95637SOL    HW288751   1.790   4.123   6.388
95638SOL     OW88752   3.529  12.114  10.146
95638SOL    HW188753   3.624  12.104  10.144
95638SOL    HW288754   3.496  12.048  10.086
95639SOL     OW88755  11.114   3.114   0.446
95639SOL    HW188756  11.196   3.152   0.478
95639SOL    HW288757  11.065   3.189   0.410
95640SOL     OW88758  11.975   0.160  13.816
95640SOL    HW188759  11.923   0.213  13.756
95640SOL    HW288760  11.911   0.125  13.879
95641SOL     OW88761   1.493   4.845   1.973
95641SOL    HW188762   1.562   4.814   2.031
95641SOL    HW288763   1.536   4.907   1.915
95642SOL     OW88764   7.544   4.479  13.399
95642SOL    HW188765   7.599   4.556  13.383
95642SOL    HW288766   7.485   4.476  13.323
95643SOL     OW88767   5.421   2.231  13.358
95643SOL    HW188768   5.464   2.175  13.294
95643SOL    HW288769   5.457   2.203  13.442
95644SOL     OW88770   2.256   8.350  14.591
95644SOL    HW188771   2.323   8.366  14.658
95644SOL    HW288772   2.191   8.419  14.607
95645SOL     OW88773   3.597   4.743  14.212
95645SOL    HW188774   3.554   4.813  14.163
95645SOL    HW288775   3.579   4.764  14.304
95646SOL     OW88776   2.668   6.354   3.293
95646SOL    HW188777   2.626   6.310   3.219
95646SOL    HW288778   2.757   6.317   3.295
95647SOL     OW88779   6.981   2.243   7.938
95647SOL    HW188780   6.972   2.304   8.011
95647SOL    HW288781   7.055   2.188   7.962
95648SOL     OW88782  13.896   3.257  14.384
95648SOL    HW188783  13.835   3.316  14.428
95648SOL    HW288784  13.981   3.303  14.388
95649SOL     OW88785   2.796   1.091   4.939
95649SOL    HW188786   2.771   1.181   4.963
95649SOL    HW288787   2.849   1.102   4.860
95650SOL     OW88788   1.853   7.864  10.289
95650SOL    HW188789   1.932   7.912  10.316
95650SOL    HW288790   1.872   7.773  10.311
95651SOL     OW88791   4.858   9.234   3.517
95651SOL    HW188792   4.805   9.216   3.439
95651SOL    HW288793   4.949   9.221   3.488
95652SOL     OW88794   8.079   2.969  10.955
95652SOL    HW188795   8.151   3.031  10.940
95652SOL    HW288796   8.022   3.013  11.018
95653SOL     OW88797   9.594  10.682  11.008
95653SOL    HW188798   9.585  10.672  11.103
95653SOL    HW288799   9.536  10.615  10.971
95654SOL     OW88800   8.709   2.248   5.041
95654SOL    HW188801   8.747   2.278   5.123
95654SOL    HW288802   8.639   2.188   5.066
95655SOL     OW88803   9.886   6.965  10.908
95655SOL    HW188804   9.839   6.892  10.868
95655SOL    HW288805   9.953   6.923  10.962
95656SOL     OW88806   2.007  11.497   5.432
95656SOL    HW188807   2.045  11.585   5.426
95656SOL    HW288808   1.992  11.483   5.525
95657SOL     OW88809   8.703   6.049   4.584
95657SOL    HW188810   8.620   6.086   4.554
95657SOL    HW288811   8.730   6.107   4.656
95658SOL     OW88812  12.888   8.043  14.034
95658SOL    HW188813  12.832   7.966  14.020
95658SOL    HW288814  12.832   8.117  14.010
95659SOL     OW88815   8.707  11.270   0.297
95659SOL    HW188816   8.656  11.287   0.376
95659SOL    HW288817   8.673  11.333   0.233
95660SOL     OW88818   1.055   0.046   2.055
95660SOL    HW188819   1.018   0.021   2.139
95660SOL    HW288820   1.111  14.852   2.030
95661SOL     OW88821  11.926   5.896   2.321
95661SOL    HW188822  11.841   5.938   2.310
95661SOL    HW288823  11.907   5.802   2.314
95662SOL     OW88824   7.931  10.542  12.173
95662SOL    HW188825   7.922  10.603  12.247
95662SOL    HW288826   7.931  10.599  12.096
95663SOL     OW88827   4.237  14.783   2.894
95663SOL    HW188828   4.232  14.792   2.989
95663SOL    HW288829   4.202  14.865   2.860
95664SOL     OW88830  12.910   0.434   9.367
95664SOL    HW188831  12.852   0.415   9.440
95664SOL    HW288832  12.853   0.432   9.290
95665SOL     OW88833  11.139   9.020   4.332
95665SOL    HW188834  11.075   8.961   4.291
95665SOL    HW288835  11.107   9.108   4.311
95666SOL     OW88836   5.682   1.466   2.829
95666SOL    HW188837   5.764   1.427   2.858
95666SOL    HW288838   5.708   1.536   2.769
95667SOL     OW88839   6.847  14.527   5.107
95667SOL    HW188840   6.815  14.441   5.135
95667SOL    HW288841   6.932  14.536   5.151
95668SOL     OW88842   2.161   0.702  11.011
95668SOL    HW188843   2.152   0.796  11.030
95668SOL    HW288844   2.253   0.691  10.988
95669SOL     OW88845  11.401   2.429   9.353
95669SOL    HW188846  11.397   2.334   9.353
95669SOL    HW288847  11.463   2.450   9.423
95670SOL     OW88848  14.129   1.985   7.324
95670SOL    HW188849  14.075   1.907   7.311
95670SOL    HW288850  14.219   1.954   7.313
95671SOL     OW88851  11.776  10.376   5.707
95671SOL    HW188852  11.771  10.405   5.798
95671SOL    HW288853  11.866  10.395   5.681
95672SOL     OW88854  11.949   8.081   5.783
95672SOL    HW188855  11.886   8.148   5.810
95672SOL    HW288856  12.027   8.099   5.835
95673SOL     OW88857   7.224   0.769  12.273
95673SOL    HW188858   7.257   0.783  12.184
95673SOL    HW288859   7.228   0.856  12.314
95674SOL     OW88860   8.298  14.672  14.001
95674SOL    HW188861   8.305  14.762  14.034
95674SOL    HW288862   8.389  14.645  13.987
95675SOL     OW88863  14.181   7.883   1.601
95675SOL    HW188864  14.167   7.797   1.561
95675SOL    HW288865  14.126   7.943   1.551
95676SOL     OW88866   0.340  11.652   2.278
95676SOL    HW188867   0.411  11.591   2.258
95676SOL    HW288868   0.333  11.651   2.373
95677SOL     OW88869   8.693   7.608   4.379
95677SOL    HW188870   8.664   7.658   4.456
95677SOL    HW288871   8.712   7.521   4.412
95678SOL     OW88872   9.340   1.407   6.679
95678SOL    HW188873   9.289   1.423   6.759
95678SOL    HW288874   9.282   1.430   6.608
95679SOL     OW88875  10.797   1.091  12.979
95679SOL    HW188876  10.702   1.092  12.991
95679SOL    HW288877  10.833   1.090  13.068
95680SOL     OW88878  13.446   5.819   6.327
95680SOL    HW188879  13.429   5.908   6.356
95680SOL    HW288880  13.472   5.828   6.235
95681SOL     OW88881   7.579  10.857   3.582
95681SOL    HW188882   7.500  10.874   3.530
95681SOL    HW288883   7.566  10.768   3.616
95682SOL     OW88884  14.203  11.320   6.935
95682SOL    HW188885  14.114  11.351   6.951
95682SOL    HW288886  14.232  11.284   7.019
95683SOL     OW88887  14.655   5.453   9.941
95683SOL    HW188888  14.667   5.548   9.937
95683SOL    HW288889  14.698   5.420   9.862
95684SOL     OW88890   5.188  13.121  11.732
95684SOL    HW188891   5.162  13.061  11.801
95684SOL    HW288892   5.281  13.136  11.746
95685SOL     OW88893  11.105   0.922   8.502
95685SOL    HW188894  11.087   0.845   8.555
95685SOL    HW288895  11.118   0.888   8.413
95686SOL     OW88896   0.407   3.087  13.732
95686SOL    HW188897   0.393   3.082  13.827
95686SOL    HW288898   0.343   3.026  13.695
95687SOL     OW88899   1.593   9.304   9.456
95687SOL    HW188900   1.513   9.357   9.465
95687SOL    HW288901   1.582   9.234   9.520
95688SOL     OW88902   7.503  14.427  11.996
95688SOL    HW188903   7.586  14.407  11.954
95688SOL    HW288904   7.523  14.501  12.054
95689SOL     OW88905  10.874   0.061   2.387
95689SOL    HW188906  10.923  14.868   2.426
95689SOL    HW288907  10.906   0.139   2.433
95690SOL     OW88908  10.212   6.131   5.753
95690SOL    HW188909  10.178   6.100   5.836
95690SOL    HW288910  10.167   6.215   5.738
95691SOL     OW88911   7.764  12.395   5.617
95691SOL    HW188912   7.672  12.417   5.601
95691SOL    HW288913   7.778  12.414   5.709
95692SOL     OW88914   6.893   5.943   5.305
95692SOL    HW188915   6.825   5.898   5.354
95692SOL    HW288916   6.911   5.885   5.231
95693SOL     OW88917   9.771   8.728   0.037
95693SOL    HW188918   9.712   8.799   0.063
95693SOL    HW288919   9.851   8.772   0.009
95694SOL     OW88920   3.937   7.674   8.430
95694SOL    HW188921   3.925   7.648   8.339
95694SOL    HW288922   3.887   7.610   8.480
95695SOL     OW88923   8.395  14.601   3.369
95695SOL    HW188924   8.339  14.563   3.437
95695SOL    HW288925   8.442  14.526   3.333
95696SOL     OW88926   7.752  10.930  11.385
95696SOL    HW188927   7.765  10.858  11.446
95696SOL    HW288928   7.709  10.890  11.310
95697SOL     OW88929   2.594  13.546   1.402
95697SOL    HW188930   2.655  13.508   1.466
95697SOL    HW288931   2.508  13.534   1.442
95698SOL     OW88932   2.324  14.125   4.198
95698SOL    HW188933   2.346  14.218   4.205
95698SOL    HW288934   2.394  14.087   4.146
95699SOL     OW88935   9.013   4.369   1.756
95699SOL    HW188936   9.073   4.364   1.831
95699SOL    HW288937   8.940   4.311   1.780
95700SOL     OW88938   7.205   3.025   4.047
95700SOL    HW188939   7.229   3.116   4.065
95700SOL    HW288940   7.269   2.997   3.981
95701SOL     OW88941   8.735  12.006   7.026
95701SOL    HW188942   8.679  12.042   6.958
95701SOL    HW288943   8.680  11.943   7.073
95702SOL     OW88944   0.794   9.819   9.238
95702SOL    HW188945   0.802   9.871   9.318
95702SOL    HW288946   0.710   9.846   9.201
95703SOL     OW88947   3.625  13.934  12.095
95703SOL    HW188948   3.706  13.921  12.044
95703SOL    HW288949   3.656  13.962  12.181
95704SOL     OW88950  10.683  11.752  12.476
95704SOL    HW188951  10.719  11.676  12.430
95704SOL    HW288952  10.617  11.787  12.416
95705SOL     OW88953  13.348  13.832   6.482
95705SOL    HW188954  13.315  13.743   6.475
95705SOL    HW288955  13.438  13.823   6.512
95706SOL     OW88956   6.445  10.874   8.978
95706SOL    HW188957   6.532  10.836   8.962
95706SOL    HW288958   6.397  10.806   9.026
95707SOL     OW88959  10.555  10.953  13.431
95707SOL    HW188960  10.598  10.981  13.512
95707SOL    HW288961  10.598  10.870  13.408
95708SOL     OW88962  10.089   6.466   9.417
95708SOL    HW188963  10.132   6.394   9.462
95708SOL    HW288964  10.034   6.507   9.484
95709SOL     OW88965   1.107   3.739   8.166
95709SOL    HW188966   1.141   3.704   8.249
95709SOL    HW288967   1.128   3.673   8.101
95710SOL     OW88968  11.339   7.075   2.997
95710SOL    HW188969  11.256   7.038   3.026
95710SOL    HW288970  11.319   7.118   2.914
95711SOL     OW88971   9.493   1.167   5.463
95711SOL    HW188972   9.494   1.231   5.533
95711SOL    HW288973   9.418   1.191   5.409
95712SOL     OW88974  11.198  10.755   2.700
95712SOL    HW188975  11.200  10.851   2.707
95712SOL    HW288976  11.286  10.732   2.670
95713SOL     OW88977   7.577   1.827   2.757
95713SOL    HW188978   7.635   1.798   2.828
95713SOL    HW288979   7.529   1.901   2.794
95714SOL     OW88980  14.225   5.672  13.122
95714SOL    HW188981  14.202   5.759  13.157
95714SOL    HW288982  14.240   5.687  13.029
95715SOL     OW88983   0.563   2.499  13.799
95715SOL    HW188984   0.638   2.557  13.811
95715SOL    HW288985   0.578   2.428  13.861
95716SOL     OW88986   8.175   1.268   5.064
95716SOL    HW188987   8.260   1.305   5.088
95716SOL    HW288988   8.116   1.291   5.136
95717SOL     OW88989   8.865  14.729  13.684
95717SOL    HW188990   8.894  14.731  13.592
95717SOL    HW288991   8.863  14.821  13.710
95718SOL     OW88992   7.046   3.488   8.224
95718SOL    HW188993   6.967   3.522   8.182
95718SOL    HW288994   7.090   3.439   8.154
95719SOL     OW88995   1.884  10.197   8.888
95719SOL    HW188996   1.889  10.122   8.829
95719SOL    HW288997   1.800  10.238   8.868
95720SOL     OW88998   3.621   2.878   2.011
95720SOL    HW188999   3.619   2.867   2.106
95720SOL    HW289000   3.588   2.967   1.996
95721SOL     OW89001   8.748   0.080   5.428
95721SOL    HW189002   8.687   0.019   5.470
95721SOL    HW289003   8.798   0.117   5.501
95722SOL     OW89004  13.155  12.589   3.774
95722SOL    HW189005  13.249  12.572   3.780
95722SOL    HW289006  13.122  12.522   3.715
95723SOL     OW89007   7.457  11.701  12.214
95723SOL    HW189008   7.517  11.706  12.288
95723SOL    HW289009   7.416  11.615  12.222
95724SOL     OW89010   9.140   4.088  14.285
95724SOL    HW189011   9.104   4.177  14.282
95724SOL    HW289012   9.234   4.102  14.299
95725SOL     OW89013   4.251   7.781  10.409
95725SOL    HW189014   4.339   7.779  10.447
95725SOL    HW289015   4.206   7.852  10.455
95726SOL     OW89016   3.737   6.104   7.358
95726SOL    HW189017   3.649   6.073   7.337
95726SOL    HW289018   3.795   6.050   7.304
95727SOL     OW89019   3.249   1.275  11.729
95727SOL    HW189020   3.208   1.230  11.803
95727SOL    HW289021   3.272   1.361  11.764
95728SOL     OW89022   1.286   7.002  12.021
95728SOL    HW189023   1.279   6.907  12.031
95728SOL    HW289024   1.222   7.037  12.083
95729SOL     OW89025   8.235   4.293   4.518
95729SOL    HW189026   8.327   4.278   4.538
95729SOL    HW289027   8.228   4.388   4.505
95730SOL     OW89028   9.926  10.053   1.437
95730SOL    HW189029   9.908  10.025   1.347
95730SOL    HW289030   9.839  10.065   1.476
95731SOL     OW89031  12.669   4.987   9.104
95731SOL    HW189032  12.762   4.965   9.103
95731SOL    HW289033  12.633   4.946   9.025
95732SOL     OW89034   2.221  11.754   9.229
95732SOL    HW189035   2.306  11.789   9.201
95732SOL    HW289036   2.177  11.731   9.147
95733SOL     OW89037   7.372   9.019   2.608
95733SOL    HW189038   7.421   8.937   2.600
95733SOL    HW289039   7.281   8.994   2.597
95734SOL     OW89040   2.591   0.130  10.496
95734SOL    HW189041   2.550   0.212  10.524
95734SOL    HW289042   2.662   0.117  10.559
95735SOL     OW89043  12.373  11.200  11.617
95735SOL    HW189044  12.417  11.174  11.536
95735SOL    HW289045  12.300  11.255  11.589
95736SOL     OW89046  10.766   1.353  11.960
95736SOL    HW189047  10.843   1.358  11.903
95736SOL    HW289048  10.693   1.337  11.901
95737SOL     OW89049   1.864  14.248   2.403
95737SOL    HW189050   1.876  14.341   2.387
95737SOL    HW289051   1.935  14.225   2.463
95738SOL     OW89052  10.501   0.973  10.109
95738SOL    HW189053  10.469   1.038  10.047
95738SOL    HW289054  10.424   0.950  10.161
95739SOL     OW89055  11.977  10.073  13.849
95739SOL    HW189056  11.890  10.060  13.811
95739SOL    HW289057  11.995   9.992  13.897
95740SOL     OW89058   4.881  12.810   5.449
95740SOL    HW189059   4.918  12.815   5.537
95740SOL    HW289060   4.787  12.823   5.461
95741SOL     OW89061  14.675   4.456  13.672
95741SOL    HW189062  14.704   4.421  13.757
95741SOL    HW289063  14.586   4.423  13.663
95742SOL     OW89064   5.567   0.728   0.160
95742SOL    HW189065   5.600   0.726   0.250
95742SOL    HW289066   5.593   0.644   0.123
95743SOL     OW89067   4.988   1.316  14.324
95743SOL    HW189068   5.019   1.366  14.400
95743SOL    HW289069   5.068   1.297  14.274
95744SOL     OW89070   5.837   6.935  10.619
95744SOL    HW189071   5.808   7.000  10.683
95744SOL    HW289072   5.924   6.910  10.649
95745SOL     OW89073  10.057  11.421  12.325
95745SOL    HW189074   9.993  11.389  12.261
95745SOL    HW289075  10.132  11.449  12.272
95746SOL     OW89076  13.108   6.774  12.503
95746SOL    HW189077  13.108   6.869  12.496
95746SOL    HW289078  13.193   6.752  12.540
95747SOL     OW89079  12.439   5.399  11.517
95747SOL    HW189080  12.344   5.409  11.517
95747SOL    HW289081  12.470   5.463  11.454
95748SOL     OW89082   0.411   8.842   2.343
95748SOL    HW189083   0.358   8.918   2.318
95748SOL    HW289084   0.348   8.770   2.351
95749SOL     OW89085   5.090  11.926   4.802
95749SOL    HW189086   5.133  11.949   4.720
95749SOL    HW289087   5.039  12.003   4.825
95750SOL     OW89088  12.388  14.128   1.954
95750SOL    HW189089  12.327  14.189   1.913
95750SOL    HW289090  12.461  14.121   1.893
95751SOL     OW89091   2.075   0.479  10.838
95751SOL    HW189092   2.003   0.532  10.802
95751SOL    HW289093   2.117   0.537  10.902
95752SOL     OW89094  13.416  14.826   7.039
95752SOL    HW189095  13.367  14.795   6.963
95752SOL    HW289096  13.482   0.005   7.003
95753SOL     OW89097   3.889  12.843   6.245
95753SOL    HW189098   3.852  12.867   6.331
95753SOL    HW289099   3.814  12.811   6.195
95754SOL     OW89100   7.479  11.174  12.145
95754SOL    HW189101   7.407  11.189  12.084
95754SOL    HW289102   7.437  11.168  12.231
95755SOL     OW89103   8.113   1.852  10.234
95755SOL    HW189104   8.168   1.912  10.184
95755SOL    HW289105   8.050   1.819  10.170
95756SOL     OW89106   5.277   7.729   6.759
95756SOL    HW189107   5.301   7.726   6.666
95756SOL    HW289108   5.359   7.750   6.804
95757SOL     OW89109  10.022  14.654   6.676
95757SOL    HW189110   9.992  14.743   6.659
95757SOL    HW289111  10.009  14.607   6.594
95758SOL     OW89112   9.565   0.540  11.297
95758SOL    HW189113   9.599   0.584  11.374
95758SOL    HW289114   9.616   0.576  11.224
95759SOL     OW89115   6.938  10.473   0.716
95759SOL    HW189116   6.951  10.406   0.783
95759SOL    HW289117   6.848  10.502   0.728
95760SOL     OW89118  14.007   8.356   8.106
95760SOL    HW189119  14.017   8.371   8.200
95760SOL    HW289120  13.915   8.375   8.088
95761SOL     OW89121  10.119   0.009   2.906
95761SOL    HW189122  10.036   0.038   2.870
95761SOL    HW289123  10.181   0.020   2.833
95762SOL     OW89124   9.493  12.756  11.921
95762SOL    HW189125   9.447  12.806  11.853
95762SOL    HW289126   9.433  12.685  11.943
95763SOL     OW89127   9.922   0.322   4.351
95763SOL    HW189128   9.973   0.382   4.406
95763SOL    HW289129   9.845   0.300   4.404
95764SOL     OW89130   2.763   7.064   8.973
95764SOL    HW189131   2.693   7.112   9.016
95764SOL    HW289132   2.721   7.025   8.896
95765SOL     OW89133  11.419   3.513   5.636
95765SOL    HW189134  11.386   3.601   5.615
95765SOL    HW289135  11.453   3.521   5.725
95766SOL     OW89136   6.857   0.343  11.667
95766SOL    HW189137   6.821   0.255  11.681
95766SOL    HW289138   6.927   0.331  11.603
95767SOL     OW89139   8.643   7.592   8.793
95767SOL    HW189140   8.699   7.536   8.740
95767SOL    HW289141   8.564   7.540   8.808
95768SOL     OW89142   6.102  13.498   2.484
95768SOL    HW189143   6.152  13.568   2.442
95768SOL    HW289144   6.116  13.422   2.427
95769SOL     OW89145  14.329  11.439   1.198
95769SOL    HW189146  14.417  11.435   1.236
95769SOL    HW289147  14.322  11.530   1.167
95770SOL     OW89148   8.997  12.115  10.183
95770SOL    HW189149   8.997  12.106  10.279
95770SOL    HW289150   8.925  12.174  10.165
95771SOL     OW89151  10.759  10.982   7.298
95771SOL    HW189152  10.818  11.008   7.227
95771SOL    HW289153  10.798  10.903   7.335
95772SOL     OW89154   0.846   3.131   3.847
95772SOL    HW189155   0.893   3.200   3.798
95772SOL    HW289156   0.912   3.094   3.905
95773SOL     OW89157  14.401   3.312   1.770
95773SOL    HW189158  14.462   3.241   1.753
95773SOL    HW289159  14.329   3.271   1.819
95774SOL     OW89160   7.984   2.039  13.252
95774SOL    HW189161   7.939   2.096  13.189
95774SOL    HW289162   8.072   2.031  13.216
95775SOL     OW89163   5.502   5.863   0.571
95775SOL    HW189164   5.524   5.923   0.500
95775SOL    HW289165   5.574   5.873   0.634
95776SOL     OW89166   6.089   6.765   2.771
95776SOL    HW189167   6.119   6.702   2.705
95776SOL    HW289168   6.038   6.829   2.721
95777SOL     OW89169  11.083   9.774   9.253
95777SOL    HW189170  10.997   9.813   9.240
95777SOL    HW289171  11.118   9.817   9.331
95778SOL     OW89172   1.297   3.537  10.886
95778SOL    HW189173   1.216   3.496  10.857
95778SOL    HW289174   1.282   3.557  10.979
95779SOL     OW89175   5.389   2.514   4.134
95779SOL    HW189176   5.366   2.421   4.139
95779SOL    HW289177   5.365   2.549   4.220
95780SOL     OW89178   4.270   2.711  12.440
95780SOL    HW189179   4.226   2.767  12.376
95780SOL    HW289180   4.200   2.678  12.496
95781SOL     OW89181   9.965   4.682  10.665
95781SOL    HW189182  10.029   4.695  10.595
95781SOL    HW289183   9.914   4.763  10.666
95782SOL     OW89184   5.197  10.070  13.625
95782SOL    HW189185   5.127  10.135  13.625
95782SOL    HW289186   5.246  10.087  13.544
95783SOL     OW89187   2.010   0.206   5.246
95783SOL    HW189188   1.961   0.135   5.204
95783SOL    HW289189   2.005   0.279   5.184
95784SOL     OW89190   5.965  11.627   4.860
95784SOL    HW189191   5.890  11.684   4.876
95784SOL    HW289192   5.957  11.557   4.925
95785SOL     OW89193   0.807   0.810   1.335
95785SOL    HW189194   0.829   0.858   1.414
95785SOL    HW289195   0.727   0.762   1.356
95786SOL     OW89196   6.953  12.356  10.595
95786SOL    HW189197   7.031  12.315  10.558
95786SOL    HW289198   6.882  12.294  10.578
95787SOL     OW89199   9.734   4.963  11.713
95787SOL    HW189200   9.670   5.029  11.739
95787SOL    HW289201   9.701   4.928  11.630
95788SOL     OW89202   8.768   0.281   6.090
95788SOL    HW189203   8.694   0.223   6.072
95788SOL    HW289204   8.746   0.325   6.172
95789SOL     OW89205   2.905   3.500   0.380
95789SOL    HW189206   2.841   3.513   0.310
95789SOL    HW289207   2.984   3.472   0.334
95790SOL     OW89208   9.511   4.899   1.241
95790SOL    HW189209   9.499   4.863   1.329
95790SOL    HW289210   9.503   4.824   1.183
95791SOL     OW89211   0.001   1.616  13.112
95791SOL    HW189212  14.823   1.638  13.038
95791SOL    HW289213  14.822   1.610  13.187
95792SOL     OW89214   0.934  13.051   1.199
95792SOL    HW189215   0.949  12.991   1.126
95792SOL    HW289216   0.842  13.038   1.221
95793SOL     OW89217   4.124  13.034   0.821
95793SOL    HW189218   4.208  12.996   0.849
95793SOL    HW289219   4.081  12.964   0.772
95794SOL     OW89220   0.195  12.064   2.023
95794SOL    HW189221   0.223  11.999   2.087
95794SOL    HW289222   0.181  12.014   1.942
95795SOL     OW89223   1.375   3.282   8.992
95795SOL    HW189224   1.305   3.226   9.026
95795SOL    HW289225   1.405   3.237   8.913
95796SOL     OW89226  11.932   3.445  11.797
95796SOL    HW189227  11.958   3.356  11.774
95796SOL    HW289228  11.865   3.433  11.865
95797SOL     OW89229  11.143   2.127   9.239
95797SOL    HW189230  11.225   2.080   9.230
95797SOL    HW289231  11.095   2.107   9.158
95798SOL     OW89232  10.868   1.475   3.345
95798SOL    HW189233  10.913   1.391   3.346
95798SOL    HW289234  10.901   1.519   3.267
95799SOL     OW89235   4.502  11.565   7.181
95799SOL    HW189236   4.495  11.561   7.277
95799SOL    HW289237   4.583  11.614   7.165
95800SOL     OW89238   6.907   1.276   5.032
95800SOL    HW189239   6.975   1.216   5.001
95800SOL    HW289240   6.831   1.256   4.978
95801SOL     OW89241   2.956   5.092  11.556
95801SOL    HW189242   2.971   5.162  11.493
95801SOL    HW289243   2.929   5.136  11.636
95802SOL     OW89244   2.326  10.912   0.870
95802SOL    HW189245   2.291  10.949   0.952
95802SOL    HW289246   2.275  10.832   0.856
95803SOL     OW89247  13.658   5.566   4.827
95803SOL    HW189248  13.738   5.608   4.859
95803SOL    HW289249  13.598   5.639   4.810
95804SOL     OW89250   4.766  10.779   5.700
95804SOL    HW189251   4.745  10.871   5.710
95804SOL    HW289252   4.682  10.736   5.685
95805SOL     OW89253  13.150  12.300  11.253
95805SOL    HW189254  13.056  12.288  11.244
95805SOL    HW289255  13.167  12.389  11.220
95806SOL     OW89256  14.088   5.018  13.226
95806SOL    HW189257  14.036   5.098  13.225
95806SOL    HW289258  14.129   5.014  13.140
95807SOL     OW89259   8.629   0.746   5.628
95807SOL    HW189260   8.706   0.702   5.663
95807SOL    HW289261   8.603   0.693   5.553
95808SOL     OW89262   4.348   9.928   9.793
95808SOL    HW189263   4.360   9.872   9.870
95808SOL    HW289264   4.428   9.917   9.742
95809SOL     OW89265  14.727  14.876  12.349
95809SOL    HW189266  14.813  14.853  12.383
95809SOL    HW289267  14.743   0.074  12.295
95810SOL     OW89268   4.605   9.283   7.487
95810SOL    HW189269   4.539   9.222   7.521
95810SOL    HW289270   4.642   9.238   7.411
95811SOL     OW89271   2.749   4.258   0.277
95811SOL    HW189272   2.656   4.269   0.256
95811SOL    HW289273   2.755   4.277   0.371
95812SOL     OW89274  11.908  12.800   6.989
95812SOL    HW189275  11.956  12.767   7.064
95812SOL    HW289276  11.956  12.878   6.961
95813SOL     OW89277   1.661   8.495   5.833
95813SOL    HW189278   1.711   8.441   5.894
95813SOL    HW289279   1.569   8.481   5.859
95814SOL     OW89280  11.083   1.300   8.960
95814SOL    HW189281  11.104   1.281   9.052
95814SOL    HW289282  11.140   1.375   8.938
95815SOL     OW89283   2.358  14.063   4.803
95815SOL    HW189284   2.341  14.099   4.716
95815SOL    HW289285   2.305  13.982   4.806
95816SOL     OW89286   3.599   3.855   3.396
95816SOL    HW189287   3.570   3.765   3.407
95816SOL    HW289288   3.534   3.895   3.339
95817SOL     OW89289   7.829  11.624  13.275
95817SOL    HW189290   7.768  11.599  13.344
95817SOL    HW289291   7.884  11.692  13.314
95818SOL     OW89292   0.811   0.299   5.891
95818SOL    HW189293   0.867   0.225   5.912
95818SOL    HW289294   0.789   0.338   5.976
95819SOL     OW89295   5.853  12.650   7.496
95819SOL    HW189296   5.864  12.632   7.403
95819SOL    HW289297   5.760  12.672   7.504
95820SOL     OW89298   0.195   7.584  12.419
95820SOL    HW189299   0.101   7.597  12.433
95820SOL    HW289300   0.226   7.540  12.499
95821SOL     OW89301   9.329  10.301   8.155
95821SOL    HW189302   9.308  10.317   8.062
95821SOL    HW289303   9.244  10.298   8.198
95822SOL     OW89304   5.525   9.629   2.468
95822SOL    HW189305   5.537   9.607   2.376
95822SOL    HW289306   5.571   9.560   2.515
95823SOL     OW89307  14.382   6.922  12.598
95823SOL    HW189308  14.313   6.868  12.636
95823SOL    HW289309  14.452   6.860  12.575
95824SOL     OW89310  14.196   0.589  14.645
95824SOL    HW189311  14.252   0.511  14.647
95824SOL    HW289312  14.107   0.555  14.657
95825SOL     OW89313   0.997  14.444  12.864
95825SOL    HW189314   1.041  14.434  12.948
95825SOL    HW289315   1.003  14.538  12.845
95826SOL     OW89316   6.471   5.270   9.000
95826SOL    HW189317   6.560   5.294   9.023
95826SOL    HW289318   6.421   5.284   9.080
95827SOL     OW89319   5.556   8.619   6.641
95827SOL    HW189320   5.540   8.672   6.563
95827SOL    HW289321   5.588   8.535   6.607
95828SOL     OW89322   4.029   3.532   2.842
95828SOL    HW189323   4.029   3.483   2.924
95828SOL    HW289324   4.120   3.529   2.813
95829SOL     OW89325  12.738   4.273   3.321
95829SOL    HW189326  12.738   4.357   3.275
95829SOL    HW289327  12.773   4.293   3.408
95830SOL     OW89328  12.590   4.798   8.465
95830SOL    HW189329  12.623   4.855   8.535
95830SOL    HW289330  12.590   4.710   8.504
95831SOL     OW89331   6.646   0.300   5.206
95831SOL    HW189332   6.741   0.314   5.201
95831SOL    HW289333   6.614   0.376   5.256
95832SOL     OW89334   1.487  14.236   4.876
95832SOL    HW189335   1.444  14.288   4.944
95832SOL    HW289336   1.554  14.294   4.840
95833SOL     OW89337   8.488   5.526   7.704
95833SOL    HW189338   8.541   5.592   7.659
95833SOL    HW289339   8.455   5.470   7.634
95834SOL     OW89340   0.278   5.376   0.780
95834SOL    HW189341   0.191   5.367   0.820
95834SOL    HW289342   0.335   5.403   0.853
95835SOL     OW89343  14.366  13.624   4.520
95835SOL    HW189344  14.312  13.691   4.479
95835SOL    HW289345  14.352  13.637   4.614
95836SOL     OW89346   8.993   9.882   6.867
95836SOL    HW189347   9.069   9.937   6.848
95836SOL    HW289348   8.996   9.868   6.962
95837SOL     OW89349   3.061   8.629   2.851
95837SOL    HW189350   3.022   8.598   2.769
95837SOL    HW289351   3.069   8.723   2.840
95838SOL     OW89352  13.557  12.624  14.052
95838SOL    HW189353  13.618  12.651  14.121
95838SOL    HW289354  13.557  12.697  13.990
95839SOL     OW89355  14.134   8.676  11.619
95839SOL    HW189356  14.199   8.616  11.655
95839SOL    HW289357  14.163   8.693  11.529
95840SOL     OW89358   4.763   3.012   6.894
95840SOL    HW189359   4.795   3.023   6.804
95840SOL    HW289360   4.827   3.059   6.948
95841SOL     OW89361  13.443   8.362   6.396
95841SOL    HW189362  13.425   8.290   6.456
95841SOL    HW289363  13.387   8.345   6.320
95842SOL     OW89364   0.196  14.356   0.751
95842SOL    HW189365   0.251  14.302   0.693
95842SOL    HW289366   0.188  14.304   0.830
95843SOL     OW89367   8.369  11.105   2.512
95843SOL    HW189368   8.445  11.113   2.570
95843SOL    HW289369   8.297  11.140   2.563
95844SOL     OW89370  11.255  11.250  10.919
95844SOL    HW189371  11.176  11.197  10.929
95844SOL    HW289372  11.240  11.302  10.840
95845SOL     OW89373   0.575   9.622   2.334
95845SOL    HW189374   0.604   9.638   2.244
95845SOL    HW289375   0.656   9.610   2.383
95846SOL     OW89376  12.518   7.706   3.282
95846SOL    HW189377  12.513   7.704   3.377
95846SOL    HW289378  12.462   7.779   3.256
95847SOL     OW89379   0.281  10.575  14.302
95847SOL    HW189380   0.254  10.589  14.211
95847SOL    HW289381   0.258  10.484  14.320
95848SOL     OW89382   0.578   3.930   1.383
95848SOL    HW189383   0.549   3.922   1.292
95848SOL    HW289384   0.634   4.007   1.383
95849SOL     OW89385   7.871   2.868   4.068
95849SOL    HW189386   7.908   2.955   4.054
95849SOL    HW289387   7.866   2.859   4.163
95850SOL     OW89388  11.322  12.100  14.382
95850SOL    HW189389  11.255  12.160  14.349
95850SOL    HW289390  11.376  12.154  14.440
95851SOL     OW89391   7.588  10.298  12.027
95851SOL    HW189392   7.611  10.280  12.119
95851SOL    HW289393   7.494  10.285  12.023
95852SOL     OW89394  10.949   9.029   7.227
95852SOL    HW189395  10.862   8.992   7.236
95852SOL    HW289396  10.985   8.987   7.148
95853SOL     OW89397   4.943   1.476   4.226
95853SOL    HW189398   4.893   1.395   4.228
95853SOL    HW289399   4.928   1.516   4.312
95854SOL     OW89400  13.719   3.198   7.707
95854SOL    HW189401  13.768   3.277   7.683
95854SOL    HW289402  13.706   3.205   7.801
95855SOL     OW89403   9.775   0.141   0.833
95855SOL    HW189404   9.832   0.066   0.813
95855SOL    HW289405   9.724   0.112   0.908
95856SOL     OW89406  13.225   9.075  10.476
95856SOL    HW189407  13.293   9.010  10.462
95856SOL    HW289408  13.146   9.037  10.438
95857SOL     OW89409   3.204  13.298  14.033
95857SOL    HW189410   3.119  13.341  14.025
95857SOL    HW289411   3.257  13.359  14.084
95858SOL     OW89412   6.418  14.073   2.250
95858SOL    HW189413   6.375  14.153   2.282
95858SOL    HW289414   6.346  14.014   2.227
95859SOL     OW89415  14.335   6.596   3.770
95859SOL    HW189416  14.302   6.683   3.745
95859SOL    HW289417  14.323   6.593   3.865
95860SOL     OW89418  13.540   1.235   7.965
95860SOL    HW189419  13.535   1.185   8.046
95860SOL    HW289420  13.573   1.173   7.900
95861SOL     OW89421  12.218   9.458   8.433
95861SOL    HW189422  12.285   9.510   8.388
95861SOL    HW289423  12.252   9.369   8.432
95862SOL     OW89424   2.469   5.012   0.554
95862SOL    HW189425   2.534   4.991   0.486
95862SOL    HW289426   2.491   4.954   0.627
95863SOL     OW89427   5.711   4.671   7.997
95863SOL    HW189428   5.717   4.690   8.091
95863SOL    HW289429   5.663   4.745   7.961
95864SOL     OW89430   4.706  11.315   9.061
95864SOL    HW189431   4.795  11.281   9.057
95864SOL    HW289432   4.684  11.335   8.970
95865SOL     OW89433   8.163   7.403  10.314
95865SOL    HW189434   8.198   7.492  10.310
95865SOL    HW289435   8.215   7.360  10.381
95866SOL     OW89436   0.153  10.704  14.501
95866SOL    HW189437   0.139  10.644  14.575
95866SOL    HW289438   0.211  10.656  14.442
95867SOL     OW89439  11.606   7.186  13.882
95867SOL    HW189440  11.643   7.266  13.919
95867SOL    HW289441  11.521   7.214  13.846
95868SOL     OW89442   0.769   7.192   3.228
95868SOL    HW189443   0.694   7.164   3.280
95868SOL    HW289444   0.731   7.225   3.146
95869SOL     OW89445   1.284   5.588   2.844
95869SOL    HW189446   1.281   5.663   2.785
95869SOL    HW289447   1.344   5.527   2.802
95870SOL     OW89448  11.952  14.046   6.023
95870SOL    HW189449  11.877  14.076   6.075
95870SOL    HW289450  12.028  14.062   6.079
95871SOL     OW89451  13.321   2.729  14.590
95871SOL    HW189452  13.402   2.733  14.642
95871SOL    HW289453  13.312   2.817  14.554
95872SOL     OW89454   8.895   3.027   1.072
95872SOL    HW189455   8.943   3.042   0.990
95872SOL    HW289456   8.964   3.020   1.138
95873SOL     OW89457  12.238  10.071  13.726
95873SOL    HW189458  12.241  10.162  13.697
95873SOL    HW289459  12.145  10.050  13.733
95874SOL     OW89460  10.242   3.921   4.583
95874SOL    HW189461  10.326   3.951   4.547
95874SOL    HW289462  10.176   3.971   4.535
95875SOL     OW89463  11.621   0.236   1.573
95875SOL    HW189464  11.531   0.269   1.566
95875SOL    HW289465  11.640   0.235   1.667
95876SOL     OW89466   8.260  13.300   1.351
95876SOL    HW189467   8.316  13.377   1.356
95876SOL    HW289468   8.321  13.229   1.327
95877SOL     OW89469   8.062   5.928   0.134
95877SOL    HW189470   8.101   5.978   0.062
95877SOL    HW289471   8.128   5.862   0.155
95878SOL     OW89472  14.079   9.678   2.709
95878SOL    HW189473  14.060   9.694   2.617
95878SOL    HW289474  13.996   9.646   2.746
95879SOL     OW89475   1.406   8.087   9.113
95879SOL    HW189476   1.482   8.092   9.055
95879SOL    HW289477   1.334   8.059   9.056
95880SOL     OW89478  14.723   4.119  10.322
95880SOL    HW189479  14.628   4.126  10.310
95880SOL    HW289480  14.748   4.201  10.364
95881SOL     OW89481  12.193   2.433   8.862
95881SOL    HW189482  12.156   2.506   8.812
95881SOL    HW289483  12.238   2.380   8.797
95882SOL     OW89484   5.483  12.945   3.063
95882SOL    HW189485   5.572  12.966   3.036
95882SOL    HW289486   5.428  13.009   3.018
95883SOL     OW89487   3.995  10.101  11.852
95883SOL    HW189488   4.022  10.190  11.831
95883SOL    HW289489   3.934  10.078  11.782
95884SOL     OW89490   1.679   0.943   1.555
95884SOL    HW189491   1.750   1.005   1.572
95884SOL    HW289492   1.685   0.880   1.627
95885SOL     OW89493   8.282  10.072   2.787
95885SOL    HW189494   8.284  10.162   2.755
95885SOL    HW289495   8.191  10.044   2.778
95886SOL     OW89496   6.193   0.025  14.300
95886SOL    HW189497   6.194  14.812  14.274
95886SOL    HW289498   6.187   0.022  14.396
95887SOL     OW89499   6.246   4.894   0.343
95887SOL    HW189500   6.231   4.834   0.415
95887SOL    HW289501   6.169   4.885   0.288
95888SOL     OW89502  10.825   8.296   2.933
95888SOL    HW189503  10.751   8.351   2.904
95888SOL    HW289504  10.888   8.358   2.969
95889SOL     OW89505  11.093   6.253   6.668
95889SOL    HW189506  11.071   6.161   6.685
95889SOL    HW289507  11.175   6.268   6.716
95890SOL     OW89508   5.269  12.518   2.694
95890SOL    HW189509   5.278  12.455   2.765
95890SOL    HW289510   5.226  12.593   2.734
95891SOL     OW89511   2.230   5.834   1.144
95891SOL    HW189512   2.181   5.863   1.067
95891SOL    HW289513   2.309   5.888   1.144
95892SOL     OW89514   7.991  11.464  13.486
95892SOL    HW189515   7.907  11.427  13.514
95892SOL    HW289516   8.006  11.427  13.399
95893SOL     OW89517   9.841   2.122   4.265
95893SOL    HW189518   9.803   2.125   4.353
95893SOL    HW289519   9.883   2.036   4.261
95894SOL     OW89520   2.046   5.278   8.216
95894SOL    HW189521   2.024   5.252   8.306
95894SOL    HW289522   1.965   5.264   8.167
95895SOL     OW89523   7.317   8.449   0.079
95895SOL    HW189524   7.335   8.541   0.101
95895SOL    HW289525   7.394   8.402   0.109
95896SOL     OW89526  11.362   5.702  12.422
95896SOL    HW189527  11.344   5.794  12.438
95896SOL    HW289528  11.293   5.655  12.469
95897SOL     OW89529   1.792   0.476  12.903
95897SOL    HW189530   1.806   0.464  12.997
95897SOL    HW289531   1.851   0.413  12.862
95898SOL     OW89532  14.059   9.593   3.144
95898SOL    HW189533  13.964   9.583   3.148
95898SOL    HW289534  14.092   9.504   3.129
95899SOL     OW89535   3.584  10.660  13.730
95899SOL    HW189536   3.535  10.695  13.655
95899SOL    HW289537   3.654  10.724  13.745
95900SOL     OW89538  14.481   8.646   5.692
95900SOL    HW189539  14.491   8.726   5.744
95900SOL    HW289540  14.394   8.654   5.652
95901SOL     OW89541   7.695   1.564  10.567
95901SOL    HW189542   7.641   1.627  10.615
95901SOL    HW289543   7.784   1.578  10.601
95902SOL     OW89544   5.024   5.682   1.794
95902SOL    HW189545   5.021   5.714   1.704
95902SOL    HW289546   5.008   5.759   1.848
95903SOL     OW89547   0.257  10.851  11.720
95903SOL    HW189548   0.344  10.830  11.752
95903SOL    HW289549   0.249  10.801  11.638
95904SOL     OW89550   6.428  14.649   0.257
95904SOL    HW189551   6.434  14.695   0.340
95904SOL    HW289552   6.509  14.600   0.250
95905SOL     OW89553  10.539   1.771   4.989
95905SOL    HW189554  10.613   1.818   5.026
95905SOL    HW289555  10.484   1.839   4.950
95906SOL     OW89556   7.655   9.853   3.729
95906SOL    HW189557   7.701   9.808   3.800
95906SOL    HW289558   7.718   9.853   3.657
95907SOL     OW89559   3.356   4.640  14.476
95907SOL    HW189560   3.425   4.691  14.520
95907SOL    HW289561   3.277   4.657  14.527
95908SOL     OW89562  11.538   9.101   2.936
95908SOL    HW189563  11.550   9.136   3.024
95908SOL    HW289564  11.602   9.031   2.929
95909SOL     OW89565   7.975  14.482  11.991
95909SOL    HW189566   7.971  14.488  12.086
95909SOL    HW289567   7.976  14.574  11.962
95910SOL     OW89568   6.755   8.211   7.777
95910SOL    HW189569   6.680   8.235   7.832
95910SOL    HW289570   6.798   8.295   7.759
95911SOL     OW89571  12.680   5.802  10.702
95911SOL    HW189572  12.745   5.867  10.729
95911SOL    HW289573  12.730   5.722  10.688
95912SOL     OW89574  13.418  14.091   5.170
95912SOL    HW189575  13.363  14.161   5.205
95912SOL    HW289576  13.462  14.131   5.095
95913SOL     OW89577   5.009  14.853   9.086
95913SOL    HW189578   4.968   0.053   9.119
95913SOL    HW289579   5.038  14.875   8.997
95914SOL     OW89580  10.760  12.303   3.790
95914SOL    HW189581  10.702  12.263   3.725
95914SOL    HW289582  10.731  12.268   3.874
95915SOL     OW89583  11.456   9.416   6.861
95915SOL    HW189584  11.522   9.448   6.799
95915SOL    HW289585  11.483   9.450   6.946
95916SOL     OW89586   5.365   4.768   5.303
95916SOL    HW189587   5.371   4.834   5.234
95916SOL    HW289588   5.436   4.791   5.364
95917SOL     OW89589   1.031   5.934  13.793
95917SOL    HW189590   1.114   5.979  13.808
95917SOL    HW289591   1.027   5.867  13.861
95918SOL     OW89592   3.261   8.994  13.983
95918SOL    HW189593   3.188   9.056  13.984
95918SOL    HW289594   3.298   8.999  14.071
95919SOL     OW89595  11.403   7.132   3.892
95919SOL    HW189596  11.322   7.182   3.885
95919SOL    HW289597  11.447   7.145   3.808
95920SOL     OW89598  14.521   9.444   2.994
95920SOL    HW189599  14.553   9.434   2.905
95920SOL    HW289600  14.478   9.530   2.995
95921SOL     OW89601   6.663   0.944  11.792
95921SOL    HW189602   6.702   1.030  11.809
95921SOL    HW289603   6.579   0.947  11.838
95922SOL     OW89604   1.180   5.312  12.176
95922SOL    HW189605   1.138   5.380  12.229
95922SOL    HW289606   1.109   5.255  12.149
95923SOL     OW89607   6.483   4.084  13.628
95923SOL    HW189608   6.519   3.998  13.650
95923SOL    HW289609   6.388   4.072  13.635
95924SOL     OW89610   6.595   4.401   6.483
95924SOL    HW189611   6.651   4.327   6.503
95924SOL    HW289612   6.518   4.363   6.440
95925SOL     OW89613   1.852   1.970   3.517
95925SOL    HW189614   1.918   1.904   3.540
95925SOL    HW289615   1.770   1.921   3.517
95926SOL     OW89616   6.091   6.229  12.124
95926SOL    HW189617   6.158   6.213  12.057
95926SOL    HW289618   6.082   6.144  12.168
95927SOL     OW89619   6.760  11.103  11.242
95927SOL    HW189620   6.799  11.074  11.159
95927SOL    HW289621   6.805  11.184  11.262
95928SOL     OW89622   4.209   2.258   0.646
95928SOL    HW189623   4.142   2.195   0.618
95928SOL    HW289624   4.275   2.205   0.690
95929SOL     OW89625   8.771   1.949   0.897
95929SOL    HW189626   8.793   1.899   0.818
95929SOL    HW289627   8.687   1.990   0.877
95930SOL     OW89628  14.468  11.853  12.358
95930SOL    HW189629  14.429  11.875  12.443
95930SOL    HW289630  14.395  11.818  12.307
95931SOL     OW89631  10.465  12.339   6.628
95931SOL    HW189632  10.543  12.393   6.635
95931SOL    HW289633  10.497  12.256   6.592
95932SOL     OW89634  14.858  14.374  12.332
95932SOL    HW189635  14.849  14.456  12.381
95932SOL    HW289636  14.838  14.398  12.241
95933SOL     OW89637   6.630   2.118   7.133
95933SOL    HW189638   6.545   2.158   7.151
95933SOL    HW289639   6.642   2.054   7.203
95934SOL     OW89640   5.919   2.944   7.837
95934SOL    HW189641   5.862   2.879   7.796
95934SOL    HW289642   5.990   2.959   7.774
95935SOL     OW89643   9.626   5.299  12.024
95935SOL    HW189644   9.639   5.330  11.935
95935SOL    HW289645   9.657   5.370  12.079
95936SOL     OW89646   9.678   3.001   8.412
95936SOL    HW189647   9.697   3.094   8.407
95936SOL    HW289648   9.754   2.959   8.373
95937SOL     OW89649   4.678   2.364   5.328
95937SOL    HW189650   4.699   2.406   5.412
95937SOL    HW289651   4.696   2.432   5.263
95938SOL     OW89652  10.735   3.025   1.128
95938SOL    HW189653  10.768   3.071   1.051
95938SOL    HW289654  10.668   2.966   1.094
95939SOL     OW89655   1.611   8.525   1.032
95939SOL    HW189656   1.565   8.446   1.060
95939SOL    HW289657   1.669   8.494   0.962
95940SOL     OW89658   6.918   0.799   2.838
95940SOL    HW189659   6.888   0.817   2.927
95940SOL    HW289660   6.971   0.876   2.815
95941SOL     OW89661   5.508  10.108   9.268
95941SOL    HW189662   5.447  10.157   9.323
95941SOL    HW289663   5.507  10.019   9.303
95942SOL     OW89664   6.755   8.330   4.074
95942SOL    HW189665   6.718   8.394   4.136
95942SOL    HW289666   6.849   8.347   4.076
95943SOL     OW89667   6.420   7.026   6.346
95943SOL    HW189668   6.468   7.024   6.428
95943SOL    HW289669   6.356   6.955   6.354
95944SOL     OW89670   9.591   7.540  14.623
95944SOL    HW189671   9.579   7.475  14.692
95944SOL    HW289672   9.678   7.521  14.588
95945SOL     OW89673  10.721  11.740  14.166
95945SOL    HW189674  10.757  11.768  14.250
95945SOL    HW289675  10.639  11.696  14.188
95946SOL     OW89676  10.662   0.719  13.755
95946SOL    HW189677  10.743   0.677  13.725
95946SOL    HW289678  10.631   0.663  13.826
95947SOL     OW89679  11.200   4.153   1.836
95947SOL    HW189680  11.268   4.204   1.791
95947SOL    HW289681  11.245   4.115   1.912
95948SOL     OW89682  11.219   8.579  14.444
95948SOL    HW189683  11.169   8.509  14.403
95948SOL    HW289684  11.259   8.538  14.521
95949SOL     OW89685   7.652   0.395  14.259
95949SOL    HW189686   7.580   0.389  14.323
95949SOL    HW289687   7.679   0.304  14.246
95950SOL     OW89688   4.745   8.835  14.273
95950SOL    HW189689   4.723   8.894  14.346
95950SOL    HW289690   4.720   8.883  14.195
95951SOL     OW89691   2.457   1.378  10.134
95951SOL    HW189692   2.542   1.334  10.137
95951SOL    HW289693   2.479   1.471  10.134
95952SOL     OW89694   4.304  14.751  11.061
95952SOL    HW189695   4.219  14.748  11.017
95952SOL    HW289696   4.292  14.699  11.140
95953SOL     OW89697   3.515   7.789  11.171
95953SOL    HW189698   3.572   7.712  11.169
95953SOL    HW289699   3.427   7.753  11.159
95954SOL     OW89700   4.413   7.992  14.288
95954SOL    HW189701   4.453   7.905  14.293
95954SOL    HW289702   4.435   8.023  14.200
95955SOL     OW89703   7.087   4.771   0.115
95955SOL    HW189704   7.112   4.852   0.161
95955SOL    HW289705   7.018   4.733   0.169
95956SOL     OW89706  14.000   2.071  12.822
95956SOL    HW189707  14.025   2.050  12.912
95956SOL    HW289708  14.021   2.164  12.812
95957SOL     OW89709   4.507   3.968  10.820
95957SOL    HW189710   4.502   3.959  10.915
95957SOL    HW289711   4.497   4.062  10.804
95958SOL     OW89712  12.206  12.592   5.075
95958SOL    HW189713  12.223  12.625   5.164
95958SOL    HW289714  12.282  12.619   5.025
95959SOL     OW89715  11.465  11.982   8.304
95959SOL    HW189716  11.457  11.986   8.209
95959SOL    HW289717  11.528  11.911   8.320
95960SOL     OW89718  10.974   7.176   1.820
95960SOL    HW189719  10.966   7.235   1.745
95960SOL    HW289720  11.008   7.232   1.890
95961SOL     OW89721   5.525  14.331  13.823
95961SOL    HW189722   5.472  14.252  13.807
95961SOL    HW289723   5.465  14.391  13.868
95962SOL     OW89724   5.151   1.782   3.093
95962SOL    HW189725   5.233   1.826   3.071
95962SOL    HW289726   5.149   1.705   3.037
95963SOL     OW89727   5.319  10.300  12.931
95963SOL    HW189728   5.294  10.341  12.848
95963SOL    HW289729   5.404  10.338  12.952
95964SOL     OW89730   4.166   8.958   7.757
95964SOL    HW189731   4.222   8.887   7.726
95964SOL    HW289732   4.223   9.013   7.810
95965SOL     OW89733   2.826   4.103   9.827
95965SOL    HW189734   2.769   4.029   9.846
95965SOL    HW289735   2.815   4.118   9.733
95966SOL     OW89736   8.889  13.694   6.106
95966SOL    HW189737   8.831  13.735   6.041
95966SOL    HW289738   8.946  13.765   6.135
95967SOL     OW89739   7.477  12.283   4.186
95967SOL    HW189740   7.420  12.331   4.247
95967SOL    HW289741   7.446  12.309   4.099
95968SOL     OW89742   0.629  12.193   2.672
95968SOL    HW189743   0.669  12.232   2.750
95968SOL    HW289744   0.685  12.221   2.600
95969SOL     OW89745   2.730   0.408   7.418
95969SOL    HW189746   2.768   0.358   7.346
95969SOL    HW289747   2.636   0.399   7.407
95970SOL     OW89748   8.131  10.890   6.344
95970SOL    HW189749   8.085  10.812   6.376
95970SOL    HW289750   8.077  10.963   6.374
95971SOL     OW89751   6.616   2.204  11.765
95971SOL    HW189752   6.631   2.189  11.672
95971SOL    HW289753   6.694   2.251  11.795
95972SOL     OW89754   8.837   3.740  10.123
95972SOL    HW189755   8.877   3.690  10.051
95972SOL    HW289756   8.852   3.686  10.201
95973SOL     OW89757   5.578   8.418  10.363
95973SOL    HW189758   5.500   8.432  10.310
95973SOL    HW289759   5.594   8.503  10.405
95974SOL     OW89760  13.601   4.621  14.145
95974SOL    HW189761  13.639   4.654  14.064
95974SOL    HW289762  13.589   4.527  14.130
95975SOL     OW89763   6.763   6.384  11.137
95975SOL    HW189764   6.753   6.304  11.086
95975SOL    HW289765   6.852   6.379  11.172
95976SOL     OW89766   6.368   6.788   0.128
95976SOL    HW189767   6.387   6.810   0.037
95976SOL    HW289768   6.422   6.849   0.179
95977SOL     OW89769   2.172  10.970  13.527
95977SOL    HW189770   2.092  11.014  13.555
95977SOL    HW289771   2.224  10.960  13.606
95978SOL     OW89772  11.925   8.510   4.193
95978SOL    HW189773  11.891   8.452   4.260
95978SOL    HW289774  11.854   8.518   4.129
95979SOL     OW89775   4.619  14.731   2.031
95979SOL    HW189776   4.568  14.698   2.105
95979SOL    HW289777   4.610  14.826   2.036
95980SOL     OW89778  12.666   5.124   1.007
95980SOL    HW189779  12.595   5.079   0.962
95980SOL    HW289780  12.676   5.207   0.960
95981SOL     OW89781   9.510  10.903   6.750
95981SOL    HW189782   9.593  10.950   6.752
95981SOL    HW289783   9.504  10.861   6.835
95982SOL     OW89784   4.556   6.881   8.140
95982SOL    HW189785   4.518   6.808   8.189
95982SOL    HW289786   4.489   6.903   8.075
95983SOL     OW89787   5.508  11.791   5.117
95983SOL    HW189788   5.431  11.801   5.062
95983SOL    HW289789   5.473  11.788   5.206
95984SOL     OW89790   3.921   2.575   2.348
95984SOL    HW189791   4.015   2.576   2.329
95984SOL    HW289792   3.916   2.558   2.442
95985SOL     OW89793  11.934  11.373   2.718
95985SOL    HW189794  11.971  11.292   2.682
95985SOL    HW289795  11.924  11.430   2.642
95986SOL     OW89796  12.782   7.477  14.439
95986SOL    HW189797  12.761   7.389  14.470
95986SOL    HW289798  12.811   7.465  14.349
95987SOL     OW89799   9.268   5.305  14.787
95987SOL    HW189800   9.308   5.392  14.785
95987SOL    HW289801   9.246   5.287  14.696
95988SOL     OW89802   8.721   9.252  10.007
95988SOL    HW189803   8.766   9.316   9.952
95988SOL    HW289804   8.783   9.179  10.014
95989SOL     OW89805   1.596  11.540  10.151
95989SOL    HW189806   1.629  11.461  10.109
95989SOL    HW289807   1.513  11.513  10.191
95990SOL     OW89808   9.822  12.669   2.462
95990SOL    HW189809   9.728  12.651   2.458
95990SOL    HW289810   9.843  12.661   2.556
95991SOL     OW89811  10.344   2.092   4.208
95991SOL    HW189812  10.339   2.182   4.241
95991SOL    HW289813  10.352   2.038   4.286
95992SOL     OW89814   7.600   6.054   8.296
95992SOL    HW189815   7.579   5.981   8.354
95992SOL    HW289816   7.538   6.123   8.320
95993SOL     OW89817   3.269   7.136   1.612
95993SOL    HW189818   3.316   7.115   1.531
95993SOL    HW289819   3.294   7.226   1.632
95994SOL     OW89820   3.167   9.691   2.729
95994SOL    HW189821   3.085   9.641   2.737
95994SOL    HW289822   3.184   9.693   2.635
95995SOL     OW89823  10.403   1.018   6.580
95995SOL    HW189824  10.407   0.923   6.568
95995SOL    HW289825  10.495   1.045   6.586
95996SOL     OW89826  11.543   2.612  13.306
95996SOL    HW189827  11.635   2.618  13.332
95996SOL    HW289828  11.525   2.695  13.261
95997SOL     OW89829  10.182  14.184   9.536
95997SOL    HW189830  10.121  14.210   9.605
95997SOL    HW289831  10.263  14.231   9.556
95998SOL     OW89832   4.390   5.520  10.554
95998SOL    HW189833   4.439   5.455  10.504
95998SOL    HW289834   4.380   5.481  10.641
95999SOL     OW89835   6.158   3.476   9.023
95999SOL    HW189836   6.202   3.479   8.938
95999SOL    HW289837   6.204   3.407   9.072
96000SOL     OW89838   8.158   5.627  13.237
96000SOL    HW189839   8.169   5.545  13.285
96000SOL    HW289840   8.094   5.676  13.288
96001SOL     OW89841  10.784   5.997   8.997
96001SOL    HW189842  10.719   6.052   8.953
96001SOL    HW289843  10.787   5.917   8.945
96002SOL     OW89844   8.574  14.482   0.742
96002SOL    HW189845   8.569  14.493   0.647
96002SOL    HW289846   8.529  14.559   0.777
96003SOL     OW89847  10.018   6.160   2.517
96003SOL    HW189848  10.101   6.127   2.484
96003SOL    HW289849  10.022   6.147   2.612
96004SOL     OW89850  12.154   8.135   8.755
96004SOL    HW189851  12.091   8.075   8.794
96004SOL    HW289852  12.227   8.137   8.817
96005SOL     OW89853   6.152   8.575   3.345
96005SOL    HW189854   6.139   8.626   3.425
96005SOL    HW289855   6.066   8.536   3.327
96006SOL     OW89856   4.852  13.782   6.706
96006SOL    HW189857   4.770  13.790   6.754
96006SOL    HW289858   4.852  13.693   6.673
96007SOL     OW89859   8.422   5.683   8.950
96007SOL    HW189860   8.469   5.690   9.034
96007SOL    HW289861   8.428   5.590   8.927
96008SOL     OW89862  13.289   9.638   7.654
96008SOL    HW189863  13.259   9.598   7.573
96008SOL    HW289864  13.369   9.685   7.630
96009SOL     OW89865   8.523   7.881   2.093
96009SOL    HW189866   8.501   7.898   2.185
96009SOL    HW289867   8.577   7.802   2.096
96010SOL     OW89868   1.078   4.081  13.109
96010SOL    HW189869   1.159   4.046  13.072
96010SOL    HW289870   1.041   4.008  13.158
96011SOL     OW89871   8.032   4.108   9.072
96011SOL    HW189872   7.957   4.116   9.131
96011SOL    HW289873   8.087   4.183   9.093
96012SOL     OW89874   6.939   1.991   2.145
96012SOL    HW189875   6.971   2.081   2.144
96012SOL    HW289876   6.845   1.999   2.126
96013SOL     OW89877   2.363   8.797  10.074
96013SOL    HW189878   2.407   8.742  10.008
96013SOL    HW289879   2.341   8.877  10.028
96014SOL     OW89880   7.759   4.923   2.053
96014SOL    HW189881   7.669   4.937   2.083
96014SOL    HW289882   7.750   4.885   1.966
96015SOL     OW89883  13.443  14.766   3.168
96015SOL    HW189884  13.477  14.835   3.224
96015SOL    HW289885  13.421  14.695   3.228
96016SOL     OW89886   3.906   7.947   1.307
96016SOL    HW189887   3.998   7.928   1.291
96016SOL    HW289888   3.866   7.948   1.220
96017SOL     OW89889   5.680   2.138   1.560
96017SOL    HW189890   5.705   2.055   1.519
96017SOL    HW289891   5.750   2.157   1.622
96018SOL     OW89892   1.168  12.345   6.196
96018SOL    HW189893   1.109  12.420   6.201
96018SOL    HW289894   1.255  12.381   6.213
96019SOL     OW89895   4.291   2.107  11.958
96019SOL    HW189896   4.214   2.066  11.997
96019SOL    HW289897   4.334   2.152  12.031
96020SOL     OW89898  14.072   0.340   5.030
96020SOL    HW189899  14.044   0.320   4.941
96020SOL    HW289900  14.058   0.434   5.040
96021SOL     OW89901  13.958  12.072  13.638
96021SOL    HW189902  14.050  12.076  13.665
96021SOL    HW289903  13.910  12.110  13.711
96022SOL     OW89904   3.837   5.299   0.438
96022SOL    HW189905   3.846   5.204   0.448
96022SOL    HW289906   3.860   5.316   0.346
96023SOL     OW89907   3.057   2.910   7.227
96023SOL    HW189908   3.147   2.939   7.213
96023SOL    HW289909   3.064   2.817   7.249
96024SOL     OW89910   2.330   4.095  12.544
96024SOL    HW189911   2.273   4.065  12.615
96024SOL    HW289912   2.417   4.067  12.569
96025SOL     OW89913   0.758   5.124  10.594
96025SOL    HW189914   0.671   5.093  10.618
96025SOL    HW289915   0.785   5.068  10.522
96026SOL     OW89916  13.664  11.554   4.512
96026SOL    HW189917  13.670  11.617   4.583
96026SOL    HW289918  13.694  11.602   4.435
96027SOL     OW89919   6.096   4.105   3.827
96027SOL    HW189920   6.013   4.131   3.867
96027SOL    HW289921   6.152   4.083   3.901
96028SOL     OW89922   3.531   2.567   1.103
96028SOL    HW189923   3.444   2.592   1.136
96028SOL    HW289924   3.513   2.519   1.022
96029SOL     OW89925  10.704  12.742   0.042
96029SOL    HW189926  10.649  12.674   0.002
96029SOL    HW289927  10.750  12.697   0.113
96030SOL     OW89928   5.769   4.701   5.770
96030SOL    HW189929   5.766   4.614   5.811
96030SOL    HW289930   5.833   4.750   5.822
96031SOL     OW89931   1.679   1.786  11.482
96031SOL    HW189932   1.621   1.853  11.446
96031SOL    HW289933   1.651   1.705  11.438
96032SOL     OW89934   1.770   3.138   4.665
96032SOL    HW189935   1.764   3.056   4.616
96032SOL    HW289936   1.681   3.174   4.664
96033SOL     OW89937  13.770   2.104   7.324
96033SOL    HW189938  13.767   2.013   7.297
96033SOL    HW289939  13.761   2.154   7.243
96034SOL     OW89940   4.625   1.864   3.636
96034SOL    HW189941   4.560   1.926   3.603
96034SOL    HW289942   4.637   1.888   3.728
96035SOL     OW89943  12.061  12.660   7.752
96035SOL    HW189944  11.967  12.649   7.741
96035SOL    HW289945  12.085  12.597   7.819
96036SOL     OW89946   8.923  12.697   0.687
96036SOL    HW189947   8.871  12.623   0.715
96036SOL    HW289948   8.906  12.765   0.752
96037SOL     OW89949  10.569   1.592  13.968
96037SOL    HW189950  10.484   1.633  13.986
96037SOL    HW289951  10.632   1.663  13.978
96038SOL     OW89952   6.421   0.372  14.434
96038SOL    HW189953   6.457   0.303  14.378
96038SOL    HW289954   6.442   0.344  14.524
96039SOL     OW89955  11.057  12.142  12.235
96039SOL    HW189956  11.011  12.059  12.248
96039SOL    HW289957  11.094  12.135  12.147
96040SOL     OW89958   0.021   7.272   2.292
96040SOL    HW189959  14.806   7.258   2.294
96040SOL    HW289960   0.054   7.226   2.369
96041SOL     OW89961   4.894   0.178   3.449
96041SOL    HW189962   4.853   0.092   3.450
96041SOL    HW289963   4.947   0.180   3.529
96042SOL     OW89964  12.057   3.730   1.714
96042SOL    HW189965  11.988   3.690   1.662
96042SOL    HW289966  12.112   3.776   1.650
96043SOL     OW89967  13.189   6.448  11.850
96043SOL    HW189968  13.102   6.488  11.851
96043SOL    HW289969  13.249   6.522  11.861
96044SOL     OW89970  11.020   7.346   4.129
96044SOL    HW189971  10.929   7.373   4.118
96044SOL    HW289972  11.038   7.358   4.222
96045SOL     OW89973   7.317   5.293   8.879
96045SOL    HW189974   7.407   5.318   8.899
96045SOL    HW289975   7.323   5.247   8.795
96046SOL     OW89976   6.602  11.831   9.083
96046SOL    HW189977   6.644  11.912   9.053
96046SOL    HW289978   6.546  11.805   9.010
96047SOL     OW89979   0.727   1.051   5.137
96047SOL    HW189980   0.786   1.062   5.212
96047SOL    HW289981   0.780   1.005   5.072
96048SOL     OW89982   2.227   8.378   1.374
96048SOL    HW189983   2.291   8.337   1.315
96048SOL    HW289984   2.211   8.311   1.441
96049SOL     OW89985   2.001  12.066   6.572
96049SOL    HW189986   2.085  12.109   6.557
96049SOL    HW289987   1.961  12.062   6.485
96050SOL     OW89988  12.057   9.342   1.542
96050SOL    HW189989  12.146   9.320   1.514
96050SOL    HW289990  12.051   9.437   1.530
96051SOL     OW89991   5.032   1.233   8.429
96051SOL    HW189992   4.978   1.306   8.400
96051SOL    HW289993   4.990   1.202   8.509
96052SOL     OW89994   5.349   8.719  13.648
96052SOL    HW189995   5.305   8.709  13.732
96052SOL    HW289996   5.314   8.801  13.612
96053SOL     OW89997   5.935   6.551   3.337
96053SOL    HW189998   5.917   6.465   3.301
96053SOL    HW289999   6.015   6.541   3.387
96054SOL     OW90000   1.235   9.221   4.036
96054SOL    HW190001   1.223   9.299   4.091
96054SOL    HW290002   1.240   9.148   4.098
96055SOL     OW90003   6.195  14.512   3.912
96055SOL    HW190004   6.106  14.502   3.947
96055SOL    HW290005   6.245  14.443   3.957
96056SOL     OW90006   5.703   0.404   0.632
96056SOL    HW190007   5.776   0.429   0.688
96056SOL    HW290008   5.709   0.463   0.557
96057SOL     OW90009   6.597   9.889   5.836
96057SOL    HW190010   6.509   9.928   5.839
96057SOL    HW290011   6.649   9.942   5.896
96058SOL     OW90012   6.395   3.888   2.793
96058SOL    HW190013   6.463   3.955   2.792
96058SOL    HW290014   6.320   3.931   2.835
96059SOL     OW90015   8.731   8.997   9.027
96059SOL    HW190016   8.693   8.953   9.103
96059SOL    HW290017   8.759   9.082   9.060
96060SOL     OW90018   2.386   1.733   9.789
96060SOL    HW190019   2.328   1.807   9.800
96060SOL    HW290020   2.334   1.668   9.742
96061SOL     OW90021  11.473   3.321   9.143
96061SOL    HW190022  11.518   3.241   9.169
96061SOL    HW290023  11.442   3.360   9.226
96062SOL     OW90024   2.874   8.001   3.067
96062SOL    HW190025   2.826   7.940   3.010
96062SOL    HW290026   2.966   7.989   3.043
96063SOL     OW90027  13.378   3.449  13.993
96063SOL    HW190028  13.357   3.504  13.917
96063SOL    HW290029  13.471   3.465  14.009
96064SOL     OW90030  10.621  10.352   7.473
96064SOL    HW190031  10.593  10.263   7.451
96064SOL    HW290032  10.547  10.408   7.448
96065SOL     OW90033   5.174   5.775   2.527
96065SOL    HW190034   5.253   5.784   2.473
96065SOL    HW290035   5.178   5.685   2.560
96066SOL     OW90036  13.392  11.982   9.141
96066SOL    HW190037  13.317  11.928   9.115
96066SOL    HW290038  13.409  12.038   9.066
96067SOL     OW90039  10.684   6.854   9.595
96067SOL    HW190040  10.764   6.906   9.589
96067SOL    HW290041  10.686   6.798   9.517
96068SOL     OW90042  13.500   4.008   0.782
96068SOL    HW190043  13.414   4.015   0.740
96068SOL    HW290044  13.520   3.914   0.780
96069SOL     OW90045  13.932   5.944   5.333
96069SOL    HW190046  13.856   5.921   5.281
96069SOL    HW290047  14.003   5.954   5.269
96070SOL     OW90048   2.243   3.084   9.141
96070SOL    HW190049   2.226   3.173   9.169
96070SOL    HW290050   2.234   3.031   9.220
96071SOL     OW90051   8.011   5.918  11.007
96071SOL    HW190052   7.967   5.966  10.937
96071SOL    HW290053   7.963   5.835  11.013
96072SOL     OW90054   3.109   9.661   4.121
96072SOL    HW190055   3.082   9.570   4.130
96072SOL    HW290056   3.145   9.667   4.033
96073SOL     OW90057  10.978   5.035   9.863
96073SOL    HW190058  10.998   4.994   9.779
96073SOL    HW290059  11.057   5.022   9.915
96074SOL     OW90060   3.885  14.701   5.731
96074SOL    HW190061   3.937  14.622   5.745
96074SOL    HW290062   3.936  14.753   5.669
96075SOL     OW90063  11.540   1.764   4.826
96075SOL    HW190064  11.540   1.668   4.835
96075SOL    HW290065  11.549   1.796   4.916
96076SOL     OW90066  12.405   4.167   0.232
96076SOL    HW190067  12.422   4.085   0.277
96076SOL    HW290068  12.424   4.235   0.297
96077SOL     OW90069   9.939   2.010  12.826
96077SOL    HW190070   9.950   1.950  12.899
96077SOL    HW290071   9.869   1.972  12.773
96078SOL     OW90072   1.175   7.390   6.764
96078SOL    HW190073   1.089   7.431   6.758
96078SOL    HW290074   1.220   7.440   6.832
96079SOL     OW90075   1.651   4.610   6.996
96079SOL    HW190076   1.708   4.677   7.035
96079SOL    HW290077   1.645   4.634   6.904
96080SOL     OW90078  11.398   1.379   5.423
96080SOL    HW190079  11.353   1.417   5.348
96080SOL    HW290080  11.425   1.454   5.475
96081SOL     OW90081   9.672   1.082  11.763
96081SOL    HW190082   9.685   0.993  11.730
96081SOL    HW290083   9.757   1.108  11.798
96082SOL     OW90084   1.884   2.306  14.506
96082SOL    HW190085   1.972   2.270  14.517
96082SOL    HW290086   1.889   2.360  14.428
96083SOL     OW90087   4.010   3.741   3.727
96083SOL    HW190088   4.091   3.702   3.758
96083SOL    HW290089   3.971   3.781   3.805
96084SOL     OW90090   0.603   3.620  14.535
96084SOL    HW190091   0.683   3.673  14.530
96084SOL    HW290092   0.547   3.666  14.597
96085SOL     OW90093  12.336  12.783   4.344
96085SOL    HW190094  12.261  12.830   4.380
96085SOL    HW290095  12.403  12.789   4.411
96086SOL     OW90096  11.716  14.400   9.432
96086SOL    HW190097  11.665  14.451   9.369
96086SOL    HW290098  11.677  14.313   9.430
96087SOL     OW90099  10.045   5.634   5.076
96087SOL    HW190100  10.131   5.592   5.086
96087SOL    HW290101  10.053   5.716   5.124
96088SOL     OW90102  12.967  12.407   6.664
96088SOL    HW190103  12.883  12.397   6.619
96088SOL    HW290104  13.030  12.360   6.608
96089SOL     OW90105   5.169   3.365   8.498
96089SOL    HW190106   5.100   3.395   8.557
96089SOL    HW290107   5.138   3.390   8.410
96090SOL     OW90108   4.584   9.721  12.212
96090SOL    HW190109   4.493   9.711  12.184
96090SOL    HW290110   4.603   9.813  12.198
96091SOL     OW90111   0.213   1.202  11.916
96091SOL    HW190112   0.300   1.237  11.897
96091SOL    HW290113   0.198   1.223  12.007
96092SOL     OW90114  13.859  11.097   8.197
96092SOL    HW190115  13.786  11.053   8.241
96092SOL    HW290116  13.869  11.179   8.246
96093SOL     OW90117   1.404   2.465   8.474
96093SOL    HW190118   1.427   2.490   8.563
96093SOL    HW290119   1.308   2.471   8.472
96094SOL     OW90120   9.294  14.274  12.974
96094SOL    HW190121   9.249  14.197  12.938
96094SOL    HW290122   9.228  14.315  13.030
96095SOL     OW90123  11.170  10.811   3.612
96095SOL    HW190124  11.170  10.907   3.602
96095SOL    HW290125  11.144  10.797   3.703
96096SOL     OW90126   8.204   4.088  11.517
96096SOL    HW190127   8.175   4.027  11.585
96096SOL    HW290128   8.191   4.041  11.435
96097SOL     OW90129  14.245  12.036   4.785
96097SOL    HW190130  14.338  12.017   4.796
96097SOL    HW290131  14.230  12.025   4.691
96098SOL     OW90132   5.239   8.720   5.516
96098SOL    HW190133   5.266   8.806   5.547
96098SOL    HW290134   5.147   8.713   5.544
96099SOL     OW90135   6.647   0.160   9.420
96099SOL    HW190136   6.610   0.242   9.453
96099SOL    HW290137   6.711   0.188   9.355
96100SOL     OW90138   1.123  10.849   1.034
96100SOL    HW190139   1.116  10.769   1.087
96100SOL    HW290140   1.156  10.915   1.095
96101SOL     OW90141   9.750  11.467   8.404
96101SOL    HW190142   9.695  11.425   8.338
96101SOL    HW290143   9.703  11.454   8.487
96102SOL     OW90144  13.052   7.334   2.942
96102SOL    HW190145  12.970   7.384   2.944
96102SOL    HW290146  13.118   7.398   2.917
96103SOL     OW90147  13.417  12.451   9.278
96103SOL    HW190148  13.402  12.529   9.224
96103SOL    HW290149  13.468  12.482   9.352
96104SOL     OW90150   8.906   6.206   4.774
96104SOL    HW190151   8.926   6.286   4.725
96104SOL    HW290152   8.863   6.237   4.854
96105SOL     OW90153  12.549   7.429  12.473
96105SOL    HW190154  12.549   7.352  12.530
96105SOL    HW290155  12.565   7.393  12.385
96106SOL     OW90156   1.978   4.213   7.782
96106SOL    HW190157   1.995   4.306   7.768
96106SOL    HW290158   1.898   4.211   7.834
96107SOL     OW90159   0.034   1.988  12.354
96107SOL    HW190160   0.012   1.908  12.402
96107SOL    HW290161  14.871   2.058  12.404
96108SOL     OW90162   0.249   5.060   0.098
96108SOL    HW190163   0.329   5.107   0.072
96108SOL    HW290164   0.204   5.121   0.156
96109SOL     OW90165   8.956  10.514  12.526
96109SOL    HW190166   8.937  10.438  12.471
96109SOL    HW290167   8.881  10.520  12.586
96110SOL     OW90168  14.389   1.258  12.112
96110SOL    HW190169  14.424   1.174  12.142
96110SOL    HW290170  14.332   1.286  12.184
96111SOL     OW90171   2.626   5.880  12.561
96111SOL    HW190172   2.664   5.935  12.630
96111SOL    HW290173   2.549   5.929  12.532
96112SOL     OW90174  14.191   3.668  13.341
96112SOL    HW190175  14.281   3.672  13.307
96112SOL    HW290176  14.144   3.736  13.293
96113SOL     OW90177  13.347  10.794   6.700
96113SOL    HW190178  13.260  10.804   6.662
96113SOL    HW290179  13.342  10.712   6.751
96114SOL     OW90180   0.933   8.675   6.907
96114SOL    HW190181   0.968   8.649   6.992
96114SOL    HW290182   0.970   8.612   6.845
96115SOL     OW90183  11.562  11.485   8.624
96115SOL    HW190184  11.569  11.579   8.641
96115SOL    HW290185  11.573  11.444   8.710
96116SOL     OW90186   1.058  14.542   6.748
96116SOL    HW190187   1.026  14.543   6.658
96116SOL    HW290188   1.056  14.450   6.774
96117SOL     OW90189  11.672  14.546  13.477
96117SOL    HW190190  11.619  14.577  13.550
96117SOL    HW290191  11.612  14.490  13.426
96118SOL     OW90192  11.895   0.072   3.349
96118SOL    HW190193  11.949   0.149   3.368
96118SOL    HW290194  11.950  14.878   3.377
96119SOL     OW90195   4.940   4.010   3.378
96119SOL    HW190196   4.878   4.081   3.393
96119SOL    HW290197   4.912   3.941   3.438
96120SOL     OW90198  10.267   3.391   1.662
96120SOL    HW190199  10.352   3.347   1.659
96120SOL    HW290200  10.211   3.339   1.605
96121SOL     OW90201  14.843   5.874   4.904
96121SOL    HW190202  14.776   5.941   4.895
96121SOL    HW290203  14.870   5.854   4.814
96122SOL     OW90204  14.174   5.914   4.451
96122SOL    HW190205  14.152   5.943   4.362
96122SOL    HW290206  14.200   5.823   4.440
96123SOL     OW90207  12.815   9.637   0.422
96123SOL    HW190208  12.889   9.604   0.473
96123SOL    HW290209  12.765   9.690   0.483
96124SOL     OW90210  11.211   7.269   7.347
96124SOL    HW190211  11.191   7.274   7.254
96124SOL    HW290212  11.126   7.279   7.391
96125SOL     OW90213  12.338   4.555   6.819
96125SOL    HW190214  12.416   4.587   6.864
96125SOL    HW290215  12.301   4.633   6.777
96126SOL     OW90216  11.094   8.419  12.785
96126SOL    HW190217  11.071   8.505  12.821
96126SOL    HW290218  11.187   8.427  12.762
96127SOL     OW90219  11.965  13.858  10.189
96127SOL    HW190220  11.945  13.877  10.281
96127SOL    HW290221  11.940  13.938  10.142
96128SOL     OW90222   4.076   7.726   7.980
96128SOL    HW190223   4.115   7.644   7.950
96128SOL    HW290224   4.108   7.792   7.919
96129SOL     OW90225   0.692   8.818   1.085
96129SOL    HW190226   0.683   8.912   1.071
96129SOL    HW290227   0.748   8.811   1.162
96130SOL     OW90228   3.766  11.798   3.976
96130SOL    HW190229   3.726  11.800   3.889
96130SOL    HW290230   3.797  11.708   3.986
96131SOL     OW90231   9.465   0.280   7.259
96131SOL    HW190232   9.475   0.219   7.186
96131SOL    HW290233   9.512   0.358   7.230
96132SOL     OW90234   1.598   5.694  10.035
96132SOL    HW190235   1.525   5.739  10.078
96132SOL    HW290236   1.567   5.605  10.022
96133SOL     OW90237   9.203   6.772   4.681
96133SOL    HW190238   9.143   6.835   4.721
96133SOL    HW290239   9.172   6.687   4.710
96134SOL     OW90240   9.420   5.544  14.603
96134SOL    HW190241   9.332   5.540  14.639
96134SOL    HW290242   9.463   5.614  14.653
96135SOL     OW90243   1.436   2.478   1.986
96135SOL    HW190244   1.382   2.553   1.966
96135SOL    HW290245   1.450   2.434   1.902
96136SOL     OW90246   5.091   0.119   8.503
96136SOL    HW190247   5.001   0.100   8.530
96136SOL    HW290248   5.097   0.081   8.416
96137SOL     OW90249   1.471  14.713   6.229
96137SOL    HW190250   1.415  14.682   6.299
96137SOL    HW290251   1.546  14.753   6.274
96138SOL     OW90252   9.710   9.153   7.237
96138SOL    HW190253   9.616   9.174   7.238
96138SOL    HW290254   9.717   9.073   7.185
96139SOL     OW90255  12.494   1.446  11.398
96139SOL    HW190256  12.436   1.405  11.463
96139SOL    HW290257  12.556   1.497  11.450
96140SOL     OW90258   9.097   4.954   3.096
96140SOL    HW190259   9.113   4.906   3.178
96140SOL    HW290260   9.021   5.009   3.115
96141SOL     OW90261   0.128   9.048   0.969
96141SOL    HW190262   0.077   9.123   0.998
96141SOL    HW290263   0.186   9.084   0.902
96142SOL     OW90264   3.037   6.310   4.035
96142SOL    HW190265   3.069   6.390   3.992
96142SOL    HW290266   2.943   6.309   4.017
96143SOL     OW90267   5.588   0.492   9.184
96143SOL    HW190268   5.585   0.556   9.114
96143SOL    HW290269   5.634   0.536   9.255
96144SOL     OW90270  10.521   1.536   4.473
96144SOL    HW190271  10.589   1.594   4.508
96144SOL    HW290272  10.441   1.563   4.517
96145SOL     OW90273   9.498   2.719   7.835
96145SOL    HW190274   9.495   2.815   7.839
96145SOL    HW290275   9.415   2.691   7.873
96146SOL     OW90276   6.511  13.404   6.576
96146SOL    HW190277   6.518  13.498   6.593
96146SOL    HW290278   6.465  13.369   6.653
96147SOL     OW90279   2.463  14.826   1.870
96147SOL    HW190280   2.507  14.850   1.952
96147SOL    HW290281   2.445   0.031   1.828
96148SOL     OW90282  10.757   5.374   2.940
96148SOL    HW190283  10.764   5.339   3.029
96148SOL    HW290284  10.848   5.384   2.912
96149SOL     OW90285  12.303   6.065  14.204
96149SOL    HW190286  12.300   5.978  14.165
96149SOL    HW290287  12.390   6.072  14.243
96150SOL     OW90288   6.217   0.547   3.385
96150SOL    HW190289   6.184   0.465   3.421
96150SOL    HW290290   6.307   0.528   3.359
96151SOL     OW90291   6.659   0.289   8.567
96151SOL    HW190292   6.582   0.345   8.562
96151SOL    HW290293   6.731   0.345   8.537
96152SOL     OW90294   0.875   3.343   3.243
96152SOL    HW190295   0.927   3.362   3.321
96152SOL    HW290296   0.877   3.248   3.235
96153SOL     OW90297   7.902   8.527  11.798
96153SOL    HW190298   7.819   8.559  11.765
96153SOL    HW290299   7.963   8.536  11.724
96154SOL     OW90300  14.772  13.774   9.755
96154SOL    HW190301  14.762  13.776   9.850
96154SOL    HW290302  14.847  13.831   9.737
96155SOL     OW90303   3.958   6.183  12.506
96155SOL    HW190304   3.985   6.275  12.511
96155SOL    HW290305   4.030   6.136  12.548
96156SOL     OW90306  13.902   1.008   6.521
96156SOL    HW190307  13.954   1.069   6.469
96156SOL    HW290308  13.967   0.955   6.568
96157SOL     OW90309  14.530   4.095  14.831
96157SOL    HW190310  14.529   4.159  14.759
96157SOL    HW290311  14.593   4.130   0.013
96158SOL     OW90312   7.880  13.831   1.957
96158SOL    HW190313   7.888  13.920   1.992
96158SOL    HW290314   7.948  13.782   2.005
96159SOL     OW90315   1.717   3.277   5.181
96159SOL    HW190316   1.760   3.252   5.099
96159SOL    HW290317   1.626   3.292   5.156
96160SOL     OW90318  12.267   2.090   4.554
96160SOL    HW190319  12.306   2.140   4.483
96160SOL    HW290320  12.221   2.156   4.607
96161SOL     OW90321  13.042  13.801  13.191
96161SOL    HW190322  12.946  13.808  13.193
96161SOL    HW290323  13.062  13.737  13.260
96162SOL     OW90324   9.716   5.472  12.200
96162SOL    HW190325   9.673   5.556  12.186
96162SOL    HW290326   9.810   5.492  12.196
96163SOL     OW90327   0.014   3.443  10.717
96163SOL    HW190328   0.032   3.426  10.809
96163SOL    HW290329  14.866   3.534  10.713
96164SOL     OW90330   0.916  13.249   0.213
96164SOL    HW190331   0.852  13.316   0.238
96164SOL    HW290332   0.864  13.170   0.201
96165SOL     OW90333   1.527   2.469  14.380
96165SOL    HW190334   1.572   2.451  14.462
96165SOL    HW290335   1.437   2.440  14.395
96166SOL     OW90336  10.499   3.823   9.720
96166SOL    HW190337  10.581   3.780   9.743
96166SOL    HW290338  10.461   3.849   9.804
96167SOL     OW90339  13.885   3.645  11.642
96167SOL    HW190340  13.955   3.695  11.684
96167SOL    HW290341  13.877   3.566  11.696
96168SOL     OW90342   2.888  12.463   7.645
96168SOL    HW190343   2.813  12.503   7.600
96168SOL    HW290344   2.945  12.536   7.666
96169SOL     OW90345   0.626  12.666   3.329
96169SOL    HW190346   0.660  12.599   3.388
96169SOL    HW290347   0.687  12.739   3.338
96170SOL     OW90348   6.314   1.002   3.061
96170SOL    HW190349   6.219   0.995   3.057
96170SOL    HW290350   6.333   1.023   3.152
96171SOL     OW90351   1.408   6.909   1.307
96171SOL    HW190352   1.455   6.835   1.347
96171SOL    HW290353   1.323   6.872   1.281
96172SOL     OW90354   2.360  10.047   1.652
96172SOL    HW190355   2.303  10.011   1.585
96172SOL    HW290356   2.301  10.084   1.718
96173SOL     OW90357   7.007   1.017   6.881
96173SOL    HW190358   6.935   0.959   6.904
96173SOL    HW290359   6.995   1.035   6.787
96174SOL     OW90360   8.684   7.257   2.253
96174SOL    HW190361   8.688   7.161   2.249
96174SOL    HW290362   8.637   7.276   2.334
96175SOL     OW90363   2.384  10.887  13.347
96175SOL    HW190364   2.437  10.811  13.370
96175SOL    HW290365   2.324  10.898  13.421
96176SOL     OW90366   3.132   6.268   2.105
96176SOL    HW190367   3.124   6.351   2.152
96176SOL    HW290368   3.137   6.294   2.013
96177SOL     OW90369   9.630  11.622  14.480
96177SOL    HW190370   9.668  11.617  14.392
96177SOL    HW290371   9.584  11.706  14.482
96178SOL     OW90372   8.235  13.840   4.826
96178SOL    HW190373   8.239  13.877   4.738
96178SOL    HW290374   8.164  13.887   4.869
96179SOL     OW90375   6.133  11.469   6.281
96179SOL    HW190376   6.096  11.446   6.196
96179SOL    HW290377   6.203  11.405   6.295
96180SOL     OW90378  10.797   7.766   5.819
96180SOL    HW190379  10.806   7.675   5.846
96180SOL    HW290380  10.709   7.772   5.781
96181SOL     OW90381   7.227  10.333  11.766
96181SOL    HW190382   7.275  10.416  11.767
96181SOL    HW290383   7.237  10.300  11.677
96182SOL     OW90384   1.375  11.865  12.641
96182SOL    HW190385   1.411  11.933  12.584
96182SOL    HW290386   1.442  11.852  12.708
96183SOL     OW90387  12.529   5.326  12.924
96183SOL    HW190388  12.499   5.359  12.839
96183SOL    HW290389  12.509   5.232  12.922
96184SOL     OW90390   0.155  12.066   8.559
96184SOL    HW190391   0.100  12.054   8.637
96184SOL    HW290392   0.151  11.982   8.514
96185SOL     OW90393   1.433  11.970   4.426
96185SOL    HW190394   1.407  11.994   4.515
96185SOL    HW290395   1.455  11.877   4.432
96186SOL     OW90396  10.950  12.528  13.192
96186SOL    HW190397  10.994  12.612  13.210
96186SOL    HW290398  10.980  12.470  13.262
96187SOL     OW90399  10.373  13.258   0.531
96187SOL    HW190400  10.381  13.169   0.496
96187SOL    HW290401  10.329  13.307   0.462
96188SOL     OW90402  10.869  12.575   9.524
96188SOL    HW190403  10.940  12.543   9.579
96188SOL    HW290404  10.861  12.668   9.545
96189SOL     OW90405  12.410   6.409   1.035
96189SOL    HW190406  12.427   6.318   1.013
96189SOL    HW290407  12.454   6.460   0.967
96190SOL     OW90408   6.213   3.065   2.946
96190SOL    HW190409   6.160   3.131   2.990
96190SOL    HW290410   6.187   3.069   2.854
96191SOL     OW90411   8.763   6.875  14.477
96191SOL    HW190412   8.856   6.893  14.460
96191SOL    HW290413   8.719   6.895  14.395
96192SOL     OW90414  12.412   6.656   8.372
96192SOL    HW190415  12.461   6.647   8.291
96192SOL    HW290416  12.344   6.721   8.352
96193SOL     OW90417  13.411   8.696   4.499
96193SOL    HW190418  13.461   8.778   4.499
96193SOL    HW290419  13.363   8.697   4.581
96194SOL     OW90420   4.729  11.747  12.149
96194SOL    HW190421   4.743  11.690  12.225
96194SOL    HW290422   4.754  11.693  12.074
96195SOL     OW90423  14.188   0.975   7.920
96195SOL    HW190424  14.280   0.978   7.895
96195SOL    HW290425  14.184   1.028   8.000
96196SOL     OW90426   0.511   5.275   6.825
96196SOL    HW190427   0.504   5.196   6.879
96196SOL    HW290428   0.474   5.251   6.741
96197SOL     OW90429   6.639  13.419  13.551
96197SOL    HW190430   6.720  13.372  13.532
96197SOL    HW290431   6.573  13.376  13.497
96198SOL     OW90432   2.615  10.259   8.938
96198SOL    HW190433   2.562  10.336   8.918
96198SOL    HW290434   2.670  10.247   8.861
96199SOL     OW90435  10.775  13.029   1.091
96199SOL    HW190436  10.799  13.062   1.178
96199SOL    HW290437  10.845  13.062   1.034
96200SOL     OW90438   7.604   7.906   8.860
96200SOL    HW190439   7.532   7.846   8.841
96200SOL    HW290440   7.641   7.873   8.942
96201SOL     OW90441   2.676   9.753   5.499
96201SOL    HW190442   2.769   9.768   5.480
96201SOL    HW290443   2.640   9.717   5.418
96202SOL     OW90444   9.837   2.174   3.681
96202SOL    HW190445   9.858   2.115   3.753
96202SOL    HW290446   9.891   2.251   3.697
96203SOL     OW90447  10.916   3.910   0.406
96203SOL    HW190448  10.892   3.999   0.431
96203SOL    HW290449  10.948   3.918   0.317
96204SOL     OW90450   2.038   6.164  11.993
96204SOL    HW190451   2.028   6.238  12.053
96204SOL    HW290452   2.041   6.205  11.906
96205SOL     OW90453  10.120   2.368  10.808
96205SOL    HW190454  10.094   2.384  10.899
96205SOL    HW290455  10.037   2.372  10.760
96206SOL     OW90456  11.891   2.427   0.539
96206SOL    HW190457  11.905   2.332   0.546
96206SOL    HW290458  11.796   2.437   0.539
96207SOL     OW90459   8.492   3.343   8.377
96207SOL    HW190460   8.576   3.383   8.356
96207SOL    HW290461   8.430   3.416   8.379
96208SOL     OW90462   0.507   9.478  14.137
96208SOL    HW190463   0.465   9.409  14.188
96208SOL    HW290464   0.460   9.558  14.161
96209SOL     OW90465   4.419   4.467   3.902
96209SOL    HW190466   4.511   4.455   3.927
96209SOL    HW290467   4.369   4.428   3.975
96210SOL     OW90468   0.506  12.373   4.690
96210SOL    HW190469   0.563  12.303   4.659
96210SOL    HW290470   0.470  12.412   4.610
96211SOL     OW90471   4.556   0.272   3.929
96211SOL    HW190472   4.517   0.259   3.842
96211SOL    HW290473   4.586   0.363   3.928
96212SOL     OW90474   5.141   4.609  11.699
96212SOL    HW190475   5.091   4.548  11.752
96212SOL    HW290476   5.131   4.694  11.744
96213SOL     OW90477   6.163  10.754  14.277
96213SOL    HW190478   6.137  10.814  14.208
96213SOL    HW290479   6.184  10.810  14.352
96214SOL     OW90480  11.444   1.942  10.385
96214SOL    HW190481  11.530   1.985  10.380
96214SOL    HW290482  11.422   1.921  10.294
96215SOL     OW90483   5.926   9.704   5.610
96215SOL    HW190484   5.849   9.669   5.655
96215SOL    HW290485   5.991   9.634   5.617
96216SOL     OW90486   2.093   4.051   9.770
96216SOL    HW190487   2.015   4.105   9.753
96216SOL    HW290488   2.154   4.110   9.815
96217SOL     OW90489   7.305  11.458  12.214
96217SOL    HW190490   7.309  11.488  12.123
96217SOL    HW290491   7.219  11.485  12.245
96218SOL     OW90492  11.097   9.241   5.276
96218SOL    HW190493  11.065   9.233   5.366
96218SOL    HW290494  11.019   9.258   5.224
96219SOL     OW90495   7.021  11.680  13.120
96219SOL    HW190496   7.095  11.739  13.105
96219SOL    HW290497   6.994  11.653  13.032
96220SOL     OW90498  14.707  10.142   7.411
96220SOL    HW190499  14.757  10.145   7.330
96220SOL    HW290500  14.755  10.080   7.467
96221SOL     OW90501  10.255   2.910   5.430
96221SOL    HW190502  10.269   2.971   5.502
96221SOL    HW290503  10.247   2.966   5.352
96222SOL     OW90504   5.697   5.312  10.805
96222SOL    HW190505   5.771   5.370  10.788
96222SOL    HW290506   5.708   5.285  10.896
96223SOL     OW90507  13.560   5.771   3.336
96223SOL    HW190508  13.510   5.692   3.316
96223SOL    HW290509  13.498   5.843   3.324
96224SOL     OW90510   2.092   7.294   3.102
96224SOL    HW190511   2.122   7.281   3.011
96224SOL    HW290512   2.168   7.331   3.147
96225SOL     OW90513   7.913  12.389   2.407
96225SOL    HW190514   7.960  12.451   2.462
96225SOL    HW290515   7.924  12.305   2.450
96226SOL     OW90516   1.399   2.283  11.324
96226SOL    HW190517   1.418   2.288  11.230
96226SOL    HW290518   1.470   2.333  11.365
96227SOL     OW90519  12.791  11.048   4.508
96227SOL    HW190520  12.874  11.077   4.471
96227SOL    HW290521  12.750  10.996   4.438
96228SOL     OW90522  11.639  13.484  13.137
96228SOL    HW190523  11.644  13.399  13.178
96228SOL    HW290524  11.723  13.525  13.153
96229SOL     OW90525  13.406  13.376   2.302
96229SOL    HW190526  13.344  13.339   2.239
96229SOL    HW290527  13.350  13.411   2.372
96230SOL     OW90528   7.322   6.981   5.442
96230SOL    HW190529   7.259   6.911   5.461
96230SOL    HW290530   7.371   6.948   5.367
96231SOL     OW90531   5.739  13.035   3.744
96231SOL    HW190532   5.798  13.059   3.672
96231SOL    HW290533   5.692  12.958   3.711
96232SOL     OW90534   3.596   5.195   1.460
96232SOL    HW190535   3.536   5.266   1.483
96232SOL    HW290536   3.683   5.230   1.483
96233SOL     OW90537   7.852  12.828   2.894
96233SOL    HW190538   7.939  12.807   2.861
96233SOL    HW290539   7.839  12.920   2.871
96234SOL     OW90540   7.497   6.600   0.004
96234SOL    HW190541   7.497   6.676   0.063
96234SOL    HW290542   7.496   6.525   0.063
96235SOL     OW90543   9.171  14.038   3.099
96235SOL    HW190544   9.231  13.966   3.082
96235SOL    HW290545   9.117  14.008   3.173
96236SOL     OW90546   4.584   8.895   5.396
96236SOL    HW190547   4.624   8.935   5.318
96236SOL    HW290548   4.602   8.801   5.386
96237SOL     OW90549  13.688   1.441  13.768
96237SOL    HW190550  13.696   1.529  13.805
96237SOL    HW290551  13.678   1.456  13.674
96238SOL     OW90552   8.866  13.100  10.198
96238SOL    HW190553   8.840  13.012  10.171
96238SOL    HW290554   8.872  13.149  10.116
96239SOL     OW90555   3.354   7.337   7.279
96239SOL    HW190556   3.307   7.420   7.271
96239SOL    HW290557   3.441   7.355   7.245
96240SOL     OW90558   4.581   4.649   5.241
96240SOL    HW190559   4.631   4.599   5.177
96240SOL    HW290560   4.611   4.615   5.326
96241SOL     OW90561   0.872   9.665   1.159
96241SOL    HW190562   0.842   9.704   1.242
96241SOL    HW290563   0.911   9.581   1.185
96242SOL     OW90564  11.207   7.305   5.034
96242SOL    HW190565  11.230   7.377   4.974
96242SOL    HW290566  11.289   7.281   5.076
96243SOL     OW90567   7.966  11.895   0.192
96243SOL    HW190568   8.056  11.878   0.162
96243SOL    HW290569   7.946  11.820   0.248
96244SOL     OW90570   7.240   7.027   1.492
96244SOL    HW190571   7.257   7.050   1.401
96244SOL    HW290572   7.219   6.933   1.489
96245SOL     OW90573  13.793  10.461   7.983
96245SOL    HW190574  13.738  10.399   7.935
96245SOL    HW290575  13.737  10.492   8.054
96246SOL     OW90576   6.722   9.968   0.392
96246SOL    HW190577   6.629   9.965   0.416
96246SOL    HW290578   6.743   9.880   0.362
96247SOL     OW90579  14.237   2.857   2.640
96247SOL    HW190580  14.248   2.937   2.588
96247SOL    HW290581  14.317   2.807   2.626
96248SOL     OW90582  13.500  11.974  13.333
96248SOL    HW190583  13.574  11.919  13.305
96248SOL    HW290584  13.443  11.977  13.256
96249SOL     OW90585   7.392   9.519   6.738
96249SOL    HW190586   7.324   9.570   6.693
96249SOL    HW290587   7.365   9.517   6.829
96250SOL     OW90588  10.457   6.327   4.857
96250SOL    HW190589  10.442   6.249   4.911
96250SOL    HW290590  10.390   6.389   4.885
96251SOL     OW90591   2.306  13.617   7.676
96251SOL    HW190592   2.326  13.711   7.670
96251SOL    HW290593   2.214  13.611   7.652
96252SOL     OW90594  10.187   0.955  13.377
96252SOL    HW190595  10.132   0.881  13.353
96252SOL    HW290596  10.191   0.952  13.473
96253SOL     OW90597   2.858   1.069  14.598
96253SOL    HW190598   2.769   1.034  14.608
96253SOL    HW290599   2.915   0.995  14.614
96254SOL     OW90600   9.569   0.018   9.007
96254SOL    HW190601   9.563   0.110   9.033
96254SOL    HW290602   9.569  14.849   9.089
96255SOL     OW90603   9.057  14.481   3.527
96255SOL    HW190604   9.142  14.521   3.508
96255SOL    HW290605   9.047  14.412   3.462
96256SOL     OW90606   7.824   0.537   3.716
96256SOL    HW190607   7.907   0.551   3.671
96256SOL    HW290608   7.799   0.623   3.748
96257SOL     OW90609  11.481  13.662   0.994
96257SOL    HW190610  11.547  13.639   1.060
96257SOL    HW290611  11.523  13.730   0.941
96258SOL     OW90612   6.658   2.897  12.784
96258SOL    HW190613   6.638   2.803  12.778
96258SOL    HW290614   6.754   2.900  12.794
96259SOL     OW90615   1.023   9.817  10.405
96259SOL    HW190616   0.938   9.773  10.408
96259SOL    HW290617   1.002   9.910  10.395
96260SOL     OW90618  10.160   1.148   5.860
96260SOL    HW190619  10.181   1.211   5.791
96260SOL    HW290620  10.178   1.196   5.941
96261SOL     OW90621  14.083   4.776   9.357
96261SOL    HW190622  14.131   4.710   9.308
96261SOL    HW290623  14.054   4.731   9.437
96262SOL     OW90624   7.326  10.052  14.375
96262SOL    HW190625   7.264   9.990  14.338
96262SOL    HW290626   7.411  10.007  14.369
96263SOL     OW90627  12.471   9.004  10.654
96263SOL    HW190628  12.495   8.973  10.741
96263SOL    HW290629  12.551   8.994  10.602
96264SOL     OW90630   5.637   7.390  11.885
96264SOL    HW190631   5.678   7.437  11.812
96264SOL    HW290632   5.711   7.363  11.939
96265SOL     OW90633  10.626   2.256   2.259
96265SOL    HW190634  10.639   2.164   2.282
96265SOL    HW290635  10.595   2.297   2.339
96266SOL     OW90636  11.241  14.689   5.774
96266SOL    HW190637  11.295  14.659   5.848
96266SOL    HW290638  11.151  14.685   5.807
96267SOL     OW90639  10.228  10.214   7.383
96267SOL    HW190640  10.157  10.158   7.350
96267SOL    HW290641  10.204  10.302   7.357
96268SOL     OW90642   0.529  13.678   5.108
96268SOL    HW190643   0.562  13.739   5.173
96268SOL    HW290644   0.570  13.594   5.131
96269SOL     OW90645  11.957   3.143  11.745
96269SOL    HW190646  11.979   3.142  11.652
96269SOL    HW290647  11.867   3.110  11.749
96270SOL     OW90648   5.099   9.340   9.723
96270SOL    HW190649   5.103   9.392   9.803
96270SOL    HW290650   5.138   9.396   9.655
96271SOL     OW90651  10.539   0.115  12.584
96271SOL    HW190652  10.521   0.193  12.532
96271SOL    HW290653  10.526   0.042  12.523
96272SOL     OW90654   1.421   8.735  13.173
96272SOL    HW190655   1.372   8.800  13.222
96272SOL    HW290656   1.483   8.786  13.120
96273SOL     OW90657   0.137  10.335   3.938
96273SOL    HW190658   0.066  10.304   3.882
96273SOL    HW290659   0.209  10.353   3.876
96274SOL     OW90660   6.974  14.396  10.053
96274SOL    HW190661   6.911  14.448  10.104
96274SOL    HW290662   6.977  14.439   9.968
96275SOL     OW90663  11.136   1.964   0.393
96275SOL    HW190664  11.135   1.958   0.489
96275SOL    HW290665  11.044   1.975   0.369
96276SOL     OW90666  14.416   5.407   4.315
96276SOL    HW190667  14.368   5.461   4.252
96276SOL    HW290668  14.508   5.417   4.289
96277SOL     OW90669  11.840   1.526   9.617
96277SOL    HW190670  11.861   1.453   9.675
96277SOL    HW290671  11.901   1.516   9.543
96278SOL     OW90672   8.197   2.627   9.756
96278SOL    HW190673   8.199   2.704   9.813
96278SOL    HW290674   8.287   2.618   9.726
96279SOL     OW90675   0.469   2.954   7.108
96279SOL    HW190676   0.554   2.978   7.071
96279SOL    HW290677   0.479   2.864   7.138
96280SOL     OW90678   6.665   2.802   9.457
96280SOL    HW190679   6.588   2.855   9.476
96280SOL    HW290680   6.734   2.866   9.440
96281SOL     OW90681  10.207   0.865   2.002
96281SOL    HW190682  10.154   0.905   1.932
96281SOL    HW290683  10.282   0.923   2.012
96282SOL     OW90684   5.894   8.454   4.624
96282SOL    HW190685   5.879   8.513   4.698
96282SOL    HW290686   5.893   8.511   4.547
96283SOL     OW90687   0.837  14.872   3.379
96283SOL    HW190688   0.774   0.030   3.441
96283SOL    HW290689   0.800   0.010   3.293
96284SOL     OW90690   3.366   9.568   0.756
96284SOL    HW190691   3.275   9.542   0.756
96284SOL    HW290692   3.364   9.662   0.777
96285SOL     OW90693   6.495  10.125  14.681
96285SOL    HW190694   6.412  10.079  14.680
96285SOL    HW290695   6.561  10.056  14.671
96286SOL     OW90696   3.924   0.234  11.512
96286SOL    HW190697   4.010   0.262  11.481
96286SOL    HW290698   3.935   0.222  11.606
96287SOL     OW90699   9.657  12.898   2.731
96287SOL    HW190700   9.724  12.959   2.700
96287SOL    HW290701   9.657  12.827   2.667
96288SOL     OW90702   2.482   5.348   9.772
96288SOL    HW190703   2.427   5.424   9.791
96288SOL    HW290704   2.533   5.374   9.695
96289SOL     OW90705  12.313   1.230   3.789
96289SOL    HW190706  12.254   1.180   3.845
96289SOL    HW290707  12.270   1.315   3.777
96290SOL     OW90708  10.429   9.397   9.559
96290SOL    HW190709  10.497   9.414   9.494
96290SOL    HW290710  10.410   9.304   9.549
96291SOL     OW90711   2.782   5.202  11.764
96291SOL    HW190712   2.760   5.285  11.807
96291SOL    HW290713   2.810   5.145  11.836
96292SOL     OW90714   7.813  11.707  13.606
96292SOL    HW190715   7.790  11.619  13.577
96292SOL    HW290716   7.906  11.702  13.628
96293SOL     OW90717   1.471   4.196   1.248
96293SOL    HW190718   1.401   4.151   1.201
96293SOL    HW290719   1.430   4.228   1.328
96294SOL     OW90720   5.275  14.447  13.511
96294SOL    HW190721   5.194  14.402  13.486
96294SOL    HW290722   5.292  14.509  13.441
96295SOL     OW90723  12.044   9.266  12.699
96295SOL    HW190724  12.127   9.220  12.691
96295SOL    HW290725  12.008   9.237  12.783
96296SOL     OW90726   8.759   8.045   9.083
96296SOL    HW190727   8.797   8.086   9.005
96296SOL    HW290728   8.712   7.969   9.050
96297SOL     OW90729  13.312   5.969   2.491
96297SOL    HW190730  13.350   5.909   2.427
96297SOL    HW290731  13.356   5.948   2.573
96298SOL     OW90732   1.218  11.580   0.104
96298SOL    HW190733   1.182  11.590   0.192
96298SOL    HW290734   1.146  11.607   0.046
96299SOL     OW90735   7.836   2.549   5.117
96299SOL    HW190736   7.868   2.638   5.134
96299SOL    HW290737   7.882   2.522   5.038
96300SOL     OW90738  10.334  14.721   3.968
96300SOL    HW190739  10.379  14.769   4.038
96300SOL    HW290740  10.290  14.789   3.917
96301SOL     OW90741   8.318   8.785  14.099
96301SOL    HW190742   8.342   8.693  14.104
96301SOL    HW290743   8.338   8.820  14.186
96302SOL     OW90744   1.507   5.990   2.017
96302SOL    HW190745   1.597   5.981   2.048
96302SOL    HW290746   1.512   5.971   1.923
96303SOL     OW90747   5.494   2.853  10.653
96303SOL    HW190748   5.479   2.821  10.742
96303SOL    HW290749   5.583   2.890  10.655
96304SOL     OW90750  12.038   3.191   1.150
96304SOL    HW190751  11.953   3.227   1.175
96304SOL    HW290752  12.072   3.253   1.085
96305SOL     OW90753   9.509   2.937   1.062
96305SOL    HW190754   9.455   2.979   1.128
96305SOL    HW290755   9.482   2.845   1.063
96306SOL     OW90756  11.228   8.631   7.852
96306SOL    HW190757  11.134   8.636   7.833
96306SOL    HW290758  11.235   8.567   7.923
96307SOL     OW90759   1.587  12.867   0.513
96307SOL    HW190760   1.672  12.908   0.527
96307SOL    HW290761   1.573  12.874   0.419
96308SOL     OW90762   7.198   6.331   9.266
96308SOL    HW190763   7.131   6.388   9.229
96308SOL    HW290764   7.155   6.246   9.275
96309SOL     OW90765  12.127   4.951  12.411
96309SOL    HW190766  12.152   5.027  12.359
96309SOL    HW290767  12.210   4.905  12.429
96310SOL     OW90768   2.358  10.263   9.542
96310SOL    HW190769   2.356  10.296   9.452
96310SOL    HW290770   2.280  10.208   9.549
96311SOL     OW90771   9.945   5.225   2.290
96311SOL    HW190772   9.990   5.147   2.323
96311SOL    HW290773   9.922   5.204   2.200
96312SOL     OW90774   9.146  13.473   6.440
96312SOL    HW190775   9.226  13.496   6.394
96312SOL    HW290776   9.140  13.536   6.511
96313SOL     OW90777   6.802   6.364   8.806
96313SOL    HW190778   6.721   6.322   8.835
96313SOL    HW290779   6.872   6.310   8.843
96314SOL     OW90780   8.339   3.128   3.209
96314SOL    HW190781   8.280   3.128   3.284
96314SOL    HW290782   8.394   3.206   3.222
96315SOL     OW90783   9.500   9.921   6.994
96315SOL    HW190784   9.557   9.880   7.060
96315SOL    HW290785   9.414   9.885   7.012
96316SOL     OW90786   5.055  13.834  13.805
96316SOL    HW190787   5.113  13.768  13.843
96316SOL    HW290788   5.046  13.900  13.874
96317SOL     OW90789   0.849   3.828   1.597
96317SOL    HW190790   0.891   3.836   1.511
96317SOL    HW290791   0.791   3.904   1.603
96318SOL     OW90792   4.446   3.978   6.940
96318SOL    HW190793   4.485   4.043   6.998
96318SOL    HW290794   4.445   4.020   6.854
96319SOL     OW90795   6.317   9.297   2.475
96319SOL    HW190796   6.253   9.361   2.444
96319SOL    HW290797   6.396   9.348   2.494
96320SOL     OW90798   6.649  10.419   0.400
96320SOL    HW190799   6.730  10.378   0.371
96320SOL    HW290800   6.589  10.409   0.327
96321SOL     OW90801  13.159   8.329   7.684
96321SOL    HW190802  13.162   8.244   7.728
96321SOL    HW290803  13.074   8.366   7.709
96322SOL     OW90804  13.502  10.044   5.013
96322SOL    HW190805  13.545   9.981   4.955
96322SOL    HW290806  13.501  10.126   4.964
96323SOL     OW90807   7.167  11.775   3.724
96323SOL    HW190808   7.154  11.687   3.758
96323SOL    HW290809   7.252  11.771   3.679
96324SOL     OW90810   9.891   1.577  13.623
96324SOL    HW190811   9.876   1.663  13.660
96324SOL    HW290812   9.969   1.588  13.568
96325SOL     OW90813  11.344   6.148   6.380
96325SOL    HW190814  11.383   6.191   6.456
96325SOL    HW290815  11.317   6.062   6.413
96326SOL     OW90816  13.222   5.225  10.433
96326SOL    HW190817  13.134   5.187  10.437
96326SOL    HW290818  13.246   5.218  10.341
96327SOL     OW90819   4.435   5.895   2.843
96327SOL    HW190820   4.504   5.960   2.847
96327SOL    HW290821   4.424   5.865   2.933
96328SOL     OW90822  13.482   5.138  14.019
96328SOL    HW190823  13.427   5.077  14.068
96328SOL    HW290824  13.572   5.110  14.037
96329SOL     OW90825  10.205  12.904   9.326
96329SOL    HW190826  10.111  12.920   9.316
96329SOL    HW290827  10.210  12.826   9.382
96330SOL     OW90828  12.434  14.665  10.914
96330SOL    HW190829  12.381  14.738  10.884
96330SOL    HW290830  12.452  14.614  10.835
96331SOL     OW90831   3.018   3.205   7.322
96331SOL    HW190832   3.062   3.285   7.349
96331SOL    HW290833   3.027   3.146   7.397
96332SOL     OW90834   9.516   5.318  14.030
96332SOL    HW190835   9.513   5.223  14.045
96332SOL    HW290836   9.425   5.346  14.036
96333SOL     OW90837   0.518  14.774  11.201
96333SOL    HW190838   0.604  14.788  11.241
96333SOL    HW290839   0.527  14.809  11.112
96334SOL     OW90840   2.420   9.935  12.083
96334SOL    HW190841   2.469   9.983  12.015
96334SOL    HW290842   2.336   9.914  12.042
96335SOL     OW90843   6.868   3.960   6.893
96335SOL    HW190844   6.797   4.024   6.888
96335SOL    HW290845   6.942   4.003   6.852
96336SOL     OW90846   7.832   0.276   5.556
96336SOL    HW190847   7.908   0.315   5.513
96336SOL    HW290848   7.849   0.286   5.650
96337SOL     OW90849   4.384   1.145   2.849
96337SOL    HW190850   4.317   1.090   2.810
96337SOL    HW290851   4.421   1.093   2.920
96338SOL     OW90852  10.115  14.185   5.773
96338SOL    HW190853  10.106  14.090   5.769
96338SOL    HW290854  10.209  14.201   5.779
96339SOL     OW90855  10.201   6.021  12.547
96339SOL    HW190856  10.111   6.020  12.579
96339SOL    HW290857  10.255   6.040  12.624
96340SOL     OW90858  10.075   4.440   0.786
96340SOL    HW190859   9.982   4.425   0.807
96340SOL    HW290860  10.112   4.476   0.867
96341SOL     OW90861  14.260   5.223  13.605
96341SOL    HW190862  14.249   5.178  13.688
96341SOL    HW290863  14.238   5.314  13.623
96342SOL     OW90864   5.893  14.219  11.516
96342SOL    HW190865   5.865  14.295  11.465
96342SOL    HW290866   5.858  14.235  11.604
96343SOL     OW90867   2.764   5.329   4.344
96343SOL    HW190868   2.774   5.419   4.313
96343SOL    HW290869   2.743   5.337   4.437
96344SOL     OW90870  11.198  14.185   5.034
96344SOL    HW190871  11.184  14.263   4.979
96344SOL    HW290872  11.162  14.209   5.119
96345SOL     OW90873   9.555  11.915  13.296
96345SOL    HW190874   9.521  11.893  13.210
96345SOL    HW290875   9.537  11.838  13.350
96346SOL     OW90876   5.189   0.326  12.243
96346SOL    HW190877   5.185   0.362  12.331
96346SOL    HW290878   5.230   0.240  12.253
96347SOL     OW90879   5.217   3.603   9.082
96347SOL    HW190880   5.188   3.692   9.063
96347SOL    HW290881   5.206   3.556   9.000
96348SOL     OW90882   2.907  12.064   6.009
96348SOL    HW190883   2.846  11.992   5.994
96348SOL    HW290884   2.938  12.051   6.098
96349SOL     OW90885  14.051  11.085   0.762
96349SOL    HW190886  14.109  11.153   0.796
96349SOL    HW290887  14.065  11.086   0.667
96350SOL     OW90888  10.376   6.646   9.059
96350SOL    HW190889  10.396   6.587   8.987
96350SOL    HW290890  10.291   6.617   9.092
96351SOL     OW90891   0.693   8.164  13.909
96351SOL    HW190892   0.619   8.102  13.912
96351SOL    HW290893   0.760   8.124  13.965
96352SOL     OW90894   7.035   3.184   1.564
96352SOL    HW190895   7.024   3.146   1.477
96352SOL    HW290896   7.003   3.117   1.624
96353SOL     OW90897  10.471   1.500   7.320
96353SOL    HW190898  10.383   1.520   7.352
96353SOL    HW290899  10.467   1.521   7.227
96354SOL     OW90900   3.963   9.847  10.778
96354SOL    HW190901   3.994   9.768  10.734
96354SOL    HW290902   4.008   9.918  10.734
96355SOL     OW90903   0.999  11.691  10.307
96355SOL    HW190904   0.962  11.609  10.275
96355SOL    HW290905   1.085  11.667  10.341
96356SOL     OW90906  10.744   9.780   7.677
96356SOL    HW190907  10.789   9.710   7.629
96356SOL    HW290908  10.744   9.854   7.615
96357SOL     OW90909   4.063   8.178   8.885
96357SOL    HW190910   4.113   8.183   8.804
96357SOL    HW290911   4.000   8.250   8.880
96358SOL     OW90912   4.261  14.256  11.871
96358SOL    HW190913   4.330  14.192  11.856
96358SOL    HW290914   4.223  14.272  11.785
96359SOL     OW90915   7.970   3.940   8.551
96359SOL    HW190916   8.051   3.947   8.602
96359SOL    HW290917   7.922   3.868   8.592
96360SOL     OW90918   1.994   8.463  14.611
96360SOL    HW190919   2.027   8.550  14.632
96360SOL    HW290920   1.924   8.478  14.547
96361SOL     OW90921   0.551  11.787  10.513
96361SOL    HW190922   0.464  11.768  10.547
96361SOL    HW290923   0.593  11.701  10.505
96362SOL     OW90924   6.781  11.052   2.339
96362SOL    HW190925   6.839  11.117   2.300
96362SOL    HW290926   6.709  11.103   2.375
96363SOL     OW90927  13.130   6.347   4.372
96363SOL    HW190928  13.084   6.400   4.306
96363SOL    HW290929  13.106   6.387   4.455
96364SOL     OW90930   2.429   3.536   1.093
96364SOL    HW190931   2.338   3.528   1.064
96364SOL    HW290932   2.481   3.538   1.013
96365SOL     OW90933   8.783  10.213   0.928
96365SOL    HW190934   8.732  10.273   0.872
96365SOL    HW290935   8.870  10.254   0.931
96366SOL     OW90936   5.538  11.853   3.514
96366SOL    HW190937   5.465  11.846   3.576
96366SOL    HW290938   5.496  11.865   3.429
96367SOL     OW90939  14.783   6.197   4.166
96367SOL    HW190940  14.745   6.232   4.246
96367SOL    HW290941  14.749   6.254   4.097
96368SOL     OW90942   9.029   7.181   4.298
96368SOL    HW190943   9.103   7.143   4.346
96368SOL    HW290944   9.016   7.122   4.224
96369SOL     OW90945   6.224   9.762  14.717
96369SOL    HW190946   6.167   9.708  14.663
96369SOL    HW290947   6.301   9.777  14.662
96370SOL     OW90948   8.864   5.808   8.293
96370SOL    HW190949   8.880   5.774   8.205
96370SOL    HW290950   8.782   5.857   8.285
96371SOL     OW90951   2.073   3.524   9.808
96371SOL    HW190952   2.025   3.551   9.886
96371SOL    HW290953   2.025   3.564   9.735
96372SOL     OW90954  13.110   3.899   1.599
96372SOL    HW190955  13.123   3.955   1.523
96372SOL    HW290956  13.024   3.923   1.633
96373SOL     OW90957  12.839  14.281   0.693
96373SOL    HW190958  12.801  14.337   0.625
96373SOL    HW290959  12.766  14.263   0.753
96374SOL     OW90960  12.351   4.478   7.841
96374SOL    HW190961  12.280   4.494   7.779
96374SOL    HW290962  12.383   4.566   7.864
96375SOL     OW90963  13.974   9.362  10.112
96375SOL    HW190964  13.988   9.452  10.083
96375SOL    HW290965  13.934   9.319  10.037
96376SOL     OW90966  10.393   8.687  10.633
96376SOL    HW190967  10.458   8.625  10.663
96376SOL    HW290968  10.405   8.764  10.690
96377SOL     OW90969   2.614   7.514   0.708
96377SOL    HW190970   2.557   7.500   0.633
96377SOL    HW290971   2.615   7.430   0.754
96378SOL     OW90972   9.366   6.019  12.328
96378SOL    HW190973   9.310   5.942  12.328
96378SOL    HW290974   9.336   6.070  12.253
96379SOL     OW90975   7.913   4.724  14.844
96379SOL    HW190976   7.987   4.741  14.785
96379SOL    HW290977   7.929   4.780   0.040
96380SOL     OW90978   4.232   8.086   7.656
96380SOL    HW190979   4.209   8.046   7.572
96380SOL    HW290980   4.256   8.176   7.634
96381SOL     OW90981   1.699  11.821   9.894
96381SOL    HW190982   1.613  11.781   9.911
96381SOL    HW290983   1.680  11.914   9.882
96382SOL     OW90984   2.403   3.647   2.753
96382SOL    HW190985   2.317   3.649   2.796
96382SOL    HW290986   2.461   3.691   2.815
96383SOL     OW90987  14.676  14.535   0.407
96383SOL    HW190988  14.663  14.551   0.313
96383SOL    HW290989  14.613  14.593   0.450
96384SOL     OW90990  12.272   3.029  14.844
96384SOL    HW190991  12.197   3.067  14.799
96384SOL    HW290992  12.239   3.008   0.052
96385SOL     OW90993   1.034   5.733  14.024
96385SOL    HW190994   0.943   5.762  14.020
96385SOL    HW290995   1.084   5.813  14.039
96386SOL     OW90996  12.501  13.710  14.809
96386SOL    HW190997  12.459  13.751  14.734
96386SOL    HW290998  12.451  13.740   0.005
96387SOL     OW90999   5.903  13.359   8.311
96387SOL    HW191000   5.891  13.269   8.280
96387SOL    HW291001   5.824  13.378   8.362
96388SOL     OW91002  10.321   1.309   3.538
96388SOL    HW191003  10.330   1.403   3.552
96388SOL    HW291004  10.231   1.299   3.507
96389SOL     OW91005  10.284  11.141   3.960
96389SOL    HW191006  10.264  11.193   4.038
96389SOL    HW291007  10.378  11.155   3.946
96390SOL     OW91008   4.574   2.150   3.089
96390SOL    HW191009   4.556   2.244   3.083
96390SOL    HW291010   4.546   2.115   3.005
96391SOL     OW91011   8.948   3.353  10.081
96391SOL    HW191012   8.954   3.290  10.009
96391SOL    HW291013   8.924   3.435  10.040
96392SOL     OW91014  13.067  13.433   3.187
96392SOL    HW191015  13.018  13.452   3.108
96392SOL    HW291016  13.038  13.345   3.213
96393SOL     OW91017   9.786   7.720  13.860
96393SOL    HW191018   9.817   7.727  13.950
96393SOL    HW291019   9.728   7.643  13.860
96394SOL     OW91020   8.334   9.388   8.805
96394SOL    HW191021   8.327   9.443   8.727
96394SOL    HW291022   8.425   9.361   8.807
96395SOL     OW91023   1.909   6.640   7.490
96395SOL    HW191024   1.844   6.592   7.439
96395SOL    HW291025   1.860   6.712   7.529
96396SOL     OW91026   6.008   3.914   6.397
96396SOL    HW191027   6.087   3.880   6.355
96396SOL    HW291028   5.940   3.851   6.375
96397SOL     OW91029   0.971  14.391   3.160
96397SOL    HW191030   1.066  14.378   3.167
96397SOL    HW291031   0.948  14.355   3.074
96398SOL     OW91032   4.399  11.278   3.118
96398SOL    HW191033   4.376  11.360   3.162
96398SOL    HW291034   4.485  11.295   3.080
96399SOL     OW91035  14.807  10.032   5.769
96399SOL    HW191036  14.848   9.967   5.826
96399SOL    HW291037  14.847  10.115   5.795
96400SOL     OW91038   7.230   1.980  12.231
96400SOL    HW191039   7.166   2.017  12.170
96400SOL    HW291040   7.314   1.991  12.187
96401SOL     OW91041   6.397   8.320  11.772
96401SOL    HW191042   6.342   8.305  11.695
96401SOL    HW291043   6.408   8.415  11.775
96402SOL     OW91044  11.679   2.329   7.616
96402SOL    HW191045  11.762   2.321   7.570
96402SOL    HW291046  11.679   2.256   7.678
96403SOL     OW91047  11.840   8.310  11.987
96403SOL    HW191048  11.749   8.287  11.965
96403SOL    HW291049  11.853   8.274  12.075
96404SOL     OW91050   4.063   3.166   6.477
96404SOL    HW191051   4.118   3.088   6.468
96404SOL    HW291052   4.054   3.200   6.388
96405SOL     OW91053  11.166  11.999   8.188
96405SOL    HW191054  11.177  11.981   8.281
96405SOL    HW291055  11.081  11.961   8.166
96406SOL     OW91056   4.289   6.903   3.199
96406SOL    HW191057   4.363   6.928   3.254
96406SOL    HW291058   4.250   6.828   3.244
96407SOL     OW91059  11.256  13.637   0.431
96407SOL    HW191060  11.265  13.728   0.461
96407SOL    HW291061  11.343  13.600   0.441
96408SOL     OW91062   8.872  12.052   0.002
96408SOL    HW191063   8.810  12.014   0.064
96408SOL    HW291064   8.958  12.036   0.042
96409SOL     OW91065   5.014   9.597   0.965
96409SOL    HW191066   4.982   9.507   0.957
96409SOL    HW291067   4.953   9.638   1.027
96410SOL     OW91068  10.782   2.212   2.649
96410SOL    HW191069  10.798   2.260   2.730
96410SOL    HW291070  10.712   2.260   2.605
96411SOL     OW91071   4.819  12.748   9.440
96411SOL    HW191072   4.892  12.705   9.485
96411SOL    HW291073   4.855  12.776   9.356
96412SOL     OW91074   6.482  10.729  10.657
96412SOL    HW191075   6.490  10.661  10.591
96412SOL    HW291076   6.571  10.766  10.665
96413SOL     OW91077   4.709  10.591  12.769
96413SOL    HW191078   4.791  10.631  12.739
96413SOL    HW291079   4.705  10.507  12.724
96414SOL     OW91080   4.471   4.125   4.766
96414SOL    HW191081   4.532   4.076   4.711
96414SOL    HW291082   4.421   4.058   4.813
96415SOL     OW91083  13.886   8.715   2.018
96415SOL    HW191084  13.828   8.788   1.996
96415SOL    HW291085  13.844   8.638   1.978
96416SOL     OW91086   7.330  13.184   2.316
96416SOL    HW191087   7.323  13.148   2.405
96416SOL    HW291088   7.423  13.201   2.304
96417SOL     OW91089   5.479   3.015  12.919
96417SOL    HW191090   5.553   3.067  12.950
96417SOL    HW291091   5.520   2.939  12.876
96418SOL     OW91092   3.135  12.302  11.155
96418SOL    HW191093   3.048  12.309  11.195
96418SOL    HW291094   3.168  12.392  11.155
96419SOL     OW91095   4.836  14.412   0.355
96419SOL    HW191096   4.754  14.379   0.393
96419SOL    HW291097   4.854  14.493   0.402
96420SOL     OW91098   1.604   6.664   7.121
96420SOL    HW191099   1.600   6.665   7.217
96420SOL    HW291100   1.632   6.752   7.097
96421SOL     OW91101  11.974   2.094   6.412
96421SOL    HW191102  11.916   2.084   6.488
96421SOL    HW291103  12.016   2.008   6.403
96422SOL     OW91104   4.015   2.568  12.739
96422SOL    HW191105   4.018   2.486  12.690
96422SOL    HW291106   4.000   2.542  12.829
96423SOL     OW91107   4.865   7.721   0.435
96423SOL    HW191108   4.875   7.783   0.363
96423SOL    HW291109   4.950   7.679   0.443
96424SOL     OW91110   9.776  13.486   0.251
96424SOL    HW191111   9.844  13.423   0.273
96424SOL    HW291112   9.694  13.439   0.267
96425SOL     OW91113   5.856   1.246   2.117
96425SOL    HW191114   5.859   1.325   2.171
96425SOL    HW291115   5.934   1.197   2.142
96426SOL     OW91116  10.813   7.882   8.608
96426SOL    HW191117  10.900   7.911   8.584
96426SOL    HW291118  10.823   7.789   8.628
96427SOL     OW91119   1.995  14.655   5.875
96427SOL    HW191120   2.043  14.584   5.918
96427SOL    HW291121   2.051  14.680   5.801
96428SOL     OW91122   2.706   4.264  12.675
96428SOL    HW191123   2.650   4.189  12.655
96428SOL    HW291124   2.645   4.329  12.710
96429SOL     OW91125   4.732  12.490   0.656
96429SOL    HW191126   4.826  12.487   0.636
96429SOL    HW291127   4.713  12.404   0.693
96430SOL     OW91128  10.521   5.073   2.574
96430SOL    HW191129  10.497   4.990   2.615
96430SOL    HW291130  10.556   5.126   2.646
96431SOL     OW91131   5.639   4.753   3.833
96431SOL    HW191132   5.594   4.676   3.867
96431SOL    HW291133   5.686   4.789   3.909
96432SOL     OW91134   2.339   0.696   2.875
96432SOL    HW191135   2.376   0.637   2.809
96432SOL    HW291136   2.324   0.639   2.951
96433SOL     OW91137   5.351   7.607  12.593
96433SOL    HW191138   5.359   7.512  12.606
96433SOL    HW291139   5.277   7.617  12.534
96434SOL     OW91140   7.407   1.944   2.553
96434SOL    HW191141   7.437   1.967   2.641
96434SOL    HW291142   7.484   1.957   2.498
96435SOL     OW91143   9.153   7.458   9.278
96435SOL    HW191144   9.178   7.421   9.363
96435SOL    HW291145   9.096   7.392   9.239
96436SOL     OW91146  10.112  14.604  14.772
96436SOL    HW191147  10.142  14.589  14.861
96436SOL    HW291148  10.191  14.599  14.718
96437SOL     OW91149  13.130   4.977   9.790
96437SOL    HW191150  13.038   4.955   9.779
96437SOL    HW291151  13.176   4.920   9.728
96438SOL     OW91152   5.422   3.901  13.884
96438SOL    HW191153   5.490   3.963  13.910
96438SOL    HW291154   5.373   3.945  13.815
96439SOL     OW91155  10.722   3.277   3.581
96439SOL    HW191156  10.670   3.208   3.540
96439SOL    HW291157  10.711   3.263   3.675
96440SOL     OW91158   1.728  13.365  10.671
96440SOL    HW191159   1.738  13.405  10.757
96440SOL    HW291160   1.787  13.289  10.673
96441SOL     OW91161   7.440   4.787   4.489
96441SOL    HW191162   7.371   4.827   4.540
96441SOL    HW291163   7.433   4.829   4.403
96442SOL     OW91164  14.772  10.326  14.437
96442SOL    HW191165  14.844  10.320  14.375
96442SOL    HW291166  14.807  10.289  14.518
96443SOL     OW91167   9.599   5.370   3.371
96443SOL    HW191168   9.642   5.456   3.376
96443SOL    HW291169   9.633   5.322   3.447
96444SOL     OW91170   0.739  10.934   2.762
96444SOL    HW191171   0.729  11.028   2.747
96444SOL    HW291172   0.825  10.926   2.805
96445SOL     OW91173  11.388   5.207   0.505
96445SOL    HW191174  11.351   5.121   0.486
96445SOL    HW291175  11.313   5.260   0.533
96446SOL     OW91176  10.747  12.069   9.651
96446SOL    HW191177  10.764  11.983   9.613
96446SOL    HW291178  10.763  12.131   9.579
96447SOL     OW91179  13.588  12.437  12.741
96447SOL    HW191180  13.632  12.476  12.817
96447SOL    HW291181  13.660  12.414  12.681
96448SOL     OW91182  14.586   6.559   4.259
96448SOL    HW191183  14.590   6.468   4.286
96448SOL    HW291184  14.611   6.609   4.337
96449SOL     OW91185   7.979   0.326   5.789
96449SOL    HW191186   7.985   0.421   5.776
96449SOL    HW291187   7.971   0.315   5.884
96450SOL     OW91188  12.700   9.334   4.590
96450SOL    HW191189  12.699   9.340   4.686
96450SOL    HW291190  12.628   9.391   4.562
96451SOL     OW91191   8.622   9.526   2.631
96451SOL    HW191192   8.699   9.470   2.640
96451SOL    HW291193   8.574   9.514   2.713
96452SOL     OW91194   1.957  14.743  12.084
96452SOL    HW191195   2.024  14.811  12.072
96452SOL    HW291196   1.936  14.748  12.178
96453SOL     OW91197   7.201   5.300  11.058
96453SOL    HW191198   7.296   5.313  11.054
96453SOL    HW291199   7.187   5.263  11.146
96454SOL     OW91200   5.527   3.524   5.040
96454SOL    HW191201   5.556   3.447   4.991
96454SOL    HW291202   5.579   3.596   5.006
96455SOL     OW91203  10.626   6.820  10.098
96455SOL    HW191204  10.595   6.893  10.044
96455SOL    HW291205  10.674   6.862  10.170
96456SOL     OW91206  13.704  12.636  13.491
96456SOL    HW191207  13.637  12.623  13.558
96456SOL    HW291208  13.764  12.563  13.503
96457SOL     OW91209  11.408   6.003   4.975
96457SOL    HW191210  11.489   6.005   4.923
96457SOL    HW291211  11.437   6.014   5.065
96458SOL     OW91212   8.639  11.904  10.366
96458SOL    HW191213   8.729  11.872  10.358
96458SOL    HW291214   8.606  11.866  10.447
96459SOL     OW91215   4.560  12.455   4.952
96459SOL    HW191216   4.652  12.431   4.959
96459SOL    HW291217   4.515  12.374   4.929
96460SOL     OW91218   9.323  14.783   0.583
96460SOL    HW191219   9.367  14.713   0.632
96460SOL    HW291220   9.394  14.832   0.542
96461SOL     OW91221  12.665  12.587   4.863
96461SOL    HW191222  12.690  12.508   4.911
96461SOL    HW291223  12.605  12.556   4.795
96462SOL     OW91224   9.870   0.245  14.542
96462SOL    HW191225   9.899   0.220  14.454
96462SOL    HW291226   9.827   0.330  14.529
96463SOL     OW91227  14.095   6.615   6.533
96463SOL    HW191228  14.046   6.541   6.498
96463SOL    HW291229  14.125   6.663   6.456
96464SOL     OW91230   8.827   4.811   7.928
96464SOL    HW191231   8.790   4.898   7.913
96464SOL    HW291232   8.831   4.772   7.840
96465SOL     OW91233   3.058   4.410   5.850
96465SOL    HW191234   3.031   4.321   5.872
96465SOL    HW291235   3.139   4.399   5.800
96466SOL     OW91236   1.057   5.350   9.048
96466SOL    HW191237   1.104   5.272   9.020
96466SOL    HW291238   1.105   5.422   9.008
96467SOL     OW91239  13.835   3.978  10.938
96467SOL    HW191240  13.914   3.948  10.892
96467SOL    HW291241  13.869   4.023  11.015
96468SOL     OW91242  11.834   7.713   4.520
96468SOL    HW191243  11.771   7.670   4.462
96468SOL    HW291244  11.920   7.685   4.489
96469SOL     OW91245   2.804   1.509   2.710
96469SOL    HW191246   2.726   1.564   2.716
96469SOL    HW291247   2.871   1.566   2.672
96470SOL     OW91248   3.588   4.491  13.431
96470SOL    HW191249   3.619   4.417  13.484
96470SOL    HW291250   3.497   4.469  13.410
96471SOL     OW91251  12.621  11.193   4.312
96471SOL    HW191252  12.624  11.098   4.300
96471SOL    HW291253  12.583  11.206   4.399
96472SOL     OW91254   5.146   7.352  14.010
96472SOL    HW191255   5.195   7.303  14.075
96472SOL    HW291256   5.154   7.443  14.037
96473SOL     OW91257   6.455   1.030  10.024
96473SOL    HW191258   6.418   0.961   9.968
96473SOL    HW291259   6.512   1.080   9.965
96474SOL     OW91260   4.911   3.107  12.471
96474SOL    HW191261   4.961   3.186  12.490
96474SOL    HW291262   4.821   3.136  12.464
96475SOL     OW91263   7.506   0.271   9.093
96475SOL    HW191264   7.574   0.206   9.071
96475SOL    HW291265   7.447   0.270   9.018
96476SOL     OW91266   6.337   2.378  13.280
96476SOL    HW191267   6.411   2.319  13.296
96476SOL    HW291268   6.377   2.464  13.271
96477SOL     OW91269   1.916   3.492   8.942
96477SOL    HW191270   1.957   3.546   8.874
96477SOL    HW291271   1.828   3.475   8.909
96478SOL     OW91272   3.258   9.280   1.612
96478SOL    HW191273   3.209   9.353   1.650
96478SOL    HW291274   3.230   9.277   1.520
96479SOL     OW91275   0.741  13.585   9.905
96479SOL    HW191276   0.760  13.515   9.967
96479SOL    HW291277   0.823  13.598   9.858
96480SOL     OW91278   6.199  10.653   9.541
96480SOL    HW191279   6.196  10.738   9.586
96480SOL    HW291280   6.292  10.636   9.528
96481SOL     OW91281   7.911   3.268   5.443
96481SOL    HW191282   7.862   3.349   5.427
96481SOL    HW291283   7.997   3.297   5.474
96482SOL     OW91284   3.554  13.373   8.409
96482SOL    HW191285   3.625  13.397   8.348
96482SOL    HW291286   3.518  13.457   8.437
96483SOL     OW91287   3.500  11.529   8.512
96483SOL    HW191288   3.592  11.504   8.514
96483SOL    HW291289   3.457  11.460   8.463
96484SOL     OW91290  12.401   2.901   4.032
96484SOL    HW191291  12.422   2.849   4.110
96484SOL    HW291292  12.307   2.885   4.018
96485SOL     OW91293  10.637   1.732   0.886
96485SOL    HW191294  10.699   1.784   0.937
96485SOL    HW291295  10.623   1.653   0.939
96486SOL     OW91296   7.969   0.178  10.154
96486SOL    HW191297   8.060   0.184  10.183
96486SOL    HW291298   7.958   0.252  10.094
96487SOL     OW91299  12.715  11.198   1.574
96487SOL    HW191300  12.708  11.291   1.598
96487SOL    HW291301  12.651  11.154   1.630
96488SOL     OW91302   9.556   5.964   6.775
96488SOL    HW191303   9.462   5.965   6.794
96488SOL    HW291304   9.563   6.001   6.687
96489SOL     OW91305   7.574  11.698   3.046
96489SOL    HW191306   7.543  11.758   3.113
96489SOL    HW291307   7.635  11.641   3.091
96490SOL     OW91308   3.690   3.938  10.825
96490SOL    HW191309   3.774   3.983  10.826
96490SOL    HW291310   3.644   3.971  10.903
96491SOL     OW91311  14.058   2.850  10.245
96491SOL    HW191312  14.038   2.921  10.305
96491SOL    HW291313  14.109   2.891  10.175
96492SOL     OW91314  14.031   2.125   3.092
96492SOL    HW191315  14.011   2.037   3.060
96492SOL    HW291316  14.111   2.150   3.045
96493SOL     OW91317   7.469   8.816   4.599
96493SOL    HW191318   7.438   8.905   4.585
96493SOL    HW291319   7.422   8.787   4.677
96494SOL     OW91320  14.092  12.678  13.218
96494SOL    HW191321  14.014  12.733  13.218
96494SOL    HW291322  14.065  12.599  13.170
96495SOL     OW91323  12.596   4.299  13.213
96495SOL    HW191324  12.532   4.353  13.258
96495SOL    HW291325  12.551   4.269  13.134
96496SOL     OW91326   1.831  11.277   5.344
96496SOL    HW191327   1.809  11.293   5.252
96496SOL    HW291328   1.883  11.353   5.370
96497SOL     OW91329  13.711   0.119   3.021
96497SOL    HW191330  13.726   0.083   3.108
96497SOL    HW291331  13.616   0.116   3.010
96498SOL     OW91332  10.561   6.822   7.929
96498SOL    HW191333  10.630   6.757   7.937
96498SOL    HW291334  10.563   6.869   8.013
96499SOL     OW91335   2.260   2.832   8.951
96499SOL    HW191336   2.277   2.741   8.978
96499SOL    HW291337   2.325   2.883   9.000
96500SOL     OW91338  14.445  12.125   4.211
96500SOL    HW191339  14.384  12.198   4.216
96500SOL    HW291340  14.435  12.091   4.122
96501SOL     OW91341  10.146   7.630   5.802
96501SOL    HW191342  10.097   7.706   5.769
96501SOL    HW291343  10.139   7.565   5.732
96502SOL     OW91344   0.443  12.737   6.185
96502SOL    HW191345   0.478  12.755   6.097
96502SOL    HW291346   0.420  12.823   6.220
96503SOL     OW91347   0.810   2.960   9.337
96503SOL    HW191348   0.771   2.901   9.273
96503SOL    HW291349   0.738   3.014   9.368
96504SOL     OW91350   1.918   7.240  10.714
96504SOL    HW191351   1.825   7.259  10.722
96504SOL    HW291352   1.922   7.146  10.696
96505SOL     OW91353  13.971  10.801  12.743
96505SOL    HW191354  13.902  10.742  12.713
96505SOL    HW291355  14.018  10.751  12.810
96506SOL     OW91356   7.582  13.905   6.963
96506SOL    HW191357   7.595  13.980   6.906
96506SOL    HW291358   7.535  13.940   7.039
96507SOL     OW91359   6.258   0.371  11.816
96507SOL    HW191360   6.302   0.422  11.884
96507SOL    HW291361   6.192   0.431  11.780
96508SOL     OW91362  11.214   5.816   4.954
96508SOL    HW191363  11.250   5.774   4.876
96508SOL    HW291364  11.266   5.896   4.964
96509SOL     OW91365   4.347   1.039   9.007
96509SOL    HW191366   4.333   1.133   9.018
96509SOL    HW291367   4.259   1.000   9.011
96510SOL     OW91368   4.553   9.171  11.176
96510SOL    HW191369   4.559   9.098  11.238
96510SOL    HW291370   4.619   9.151  11.109
96511SOL     OW91371  11.932  10.436  11.207
96511SOL    HW191372  11.945  10.405  11.118
96511SOL    HW291373  11.838  10.432  11.221
96512SOL     OW91374   2.634   6.705   0.512
96512SOL    HW191375   2.653   6.647   0.586
96512SOL    HW291376   2.591   6.648   0.448
96513SOL     OW91377  13.860   8.089   7.093
96513SOL    HW191378  13.777   8.117   7.133
96513SOL    HW291379  13.923   8.095   7.164
96514SOL     OW91380   0.424   8.473   6.456
96514SOL    HW191381   0.361   8.448   6.524
96514SOL    HW291382   0.506   8.431   6.484
96515SOL     OW91383   9.995   9.650   2.291
96515SOL    HW191384   9.901   9.633   2.288
96515SOL    HW291385  10.033   9.570   2.327
96516SOL     OW91386   4.573   1.205   3.782
96516SOL    HW191387   4.504   1.240   3.726
96516SOL    HW291388   4.582   1.114   3.755
96517SOL     OW91389  11.463  14.340   2.077
96517SOL    HW191390  11.437  14.299   1.995
96517SOL    HW291391  11.409  14.298   2.144
96518SOL     OW91392   6.614  10.165   1.968
96518SOL    HW191393   6.699  10.126   1.989
96518SOL    HW291394   6.558  10.144   2.043
96519SOL     OW91395   2.842   4.697   0.236
96519SOL    HW191396   2.833   4.639   0.161
96519SOL    HW291397   2.830   4.785   0.201
96520SOL     OW91398   4.226   5.774   5.904
96520SOL    HW191399   4.205   5.785   5.997
96520SOL    HW291400   4.155   5.820   5.858
96521SOL     OW91401   8.518   6.558   8.110
96521SOL    HW191402   8.499   6.541   8.203
96521SOL    HW291403   8.609   6.528   8.099
96522SOL     OW91404   7.957   3.986  12.281
96522SOL    HW191405   7.963   4.072  12.323
96522SOL    HW291406   7.956   3.924  12.353
96523SOL     OW91407  12.274   2.261  11.175
96523SOL    HW191408  12.195   2.300  11.136
96523SOL    HW291409  12.310   2.331  11.229
96524SOL     OW91410  12.512  10.916   1.933
96524SOL    HW191411  12.479  10.844   1.987
96524SOL    HW291412  12.604  10.925   1.958
96525SOL     OW91413  13.145  13.269   9.496
96525SOL    HW191414  13.081  13.242   9.430
96525SOL    HW291415  13.096  13.267   9.578
96526SOL     OW91416   6.384   3.196  10.270
96526SOL    HW191417   6.306   3.198  10.325
96526SOL    HW291418   6.369   3.264  10.205
96527SOL     OW91419   1.152   0.183  10.716
96527SOL    HW191420   1.236   0.207  10.755
96527SOL    HW291421   1.146   0.236  10.637
96528SOL     OW91422   4.858   1.006   5.019
96528SOL    HW191423   4.824   0.967   5.099
96528SOL    HW291424   4.910   0.937   4.978
96529SOL     OW91425  14.790   2.390  13.573
96529SOL    HW191426  14.754   2.382  13.661
96529SOL    HW291427  14.858   2.323  13.569
96530SOL     OW91428   1.334   2.899   6.010
96530SOL    HW191429   1.421   2.919   6.046
96530SOL    HW291430   1.331   2.803   6.009
96531SOL     OW91431   5.830  10.842  10.963
96531SOL    HW191432   5.811  10.929  10.999
96531SOL    HW291433   5.776  10.782  11.015
96532SOL     OW91434   3.058  12.486   4.719
96532SOL    HW191435   3.112  12.442   4.785
96532SOL    HW291436   3.110  12.562   4.692
96533SOL     OW91437   6.282   4.302  13.243
96533SOL    HW191438   6.268   4.356  13.320
96533SOL    HW291439   6.375   4.313  13.222
96534SOL     OW91440   0.167  11.476  12.484
96534SOL    HW191441   0.109  11.511  12.552
96534SOL    HW291442   0.154  11.381  12.488
96535SOL     OW91443   5.679   7.576   2.477
96535SOL    HW191444   5.631   7.494   2.465
96535SOL    HW291445   5.675   7.592   2.572
96536SOL     OW91446   7.446   8.798   1.499
96536SOL    HW191447   7.371   8.739   1.487
96536SOL    HW291448   7.507   8.773   1.430
96537SOL     OW91449  12.951   2.761   9.507
96537SOL    HW191450  12.958   2.802   9.592
96537SOL    HW291451  12.928   2.670   9.526
96538SOL     OW91452  10.838  14.098   5.609
96538SOL    HW191453  10.774  14.030   5.586
96538SOL    HW291454  10.796  14.180   5.586
96539SOL     OW91455   8.122  11.620   9.209
96539SOL    HW191456   8.127  11.715   9.214
96539SOL    HW291457   8.127  11.600   9.116
96540SOL     OW91458   5.561   9.159   5.787
96540SOL    HW191459   5.638   9.110   5.758
96540SOL    HW291460   5.509   9.096   5.837
96541SOL     OW91461   8.433   3.718   8.397
96541SOL    HW191462   8.351   3.765   8.386
96541SOL    HW291463   8.469   3.710   8.308
96542SOL     OW91464   9.940   4.891  13.649
96542SOL    HW191465   9.948   4.815  13.707
96542SOL    HW291466   9.894   4.957  13.702
96543SOL     OW91467   6.819   5.541   3.880
96543SOL    HW191468   6.888   5.597   3.915
96543SOL    HW291469   6.858   5.498   3.804
96544SOL     OW91470  12.494   6.658   3.265
96544SOL    HW191471  12.444   6.626   3.340
96544SOL    HW291472  12.507   6.751   3.282
96545SOL     OW91473   4.896  10.412  10.147
96545SOL    HW191474   4.823  10.475  10.144
96545SOL    HW291475   4.854  10.326  10.143
96546SOL     OW91476   3.617  10.321   3.226
96546SOL    HW191477   3.565  10.402   3.234
96546SOL    HW291478   3.627  10.309   3.131
96547SOL     OW91479   3.100   1.840   8.774
96547SOL    HW191480   3.053   1.814   8.694
96547SOL    HW291481   3.096   1.764   8.831
96548SOL     OW91482   0.309  11.644   6.925
96548SOL    HW191483   0.298  11.738   6.938
96548SOL    HW291484   0.402  11.634   6.905
96549SOL     OW91485  11.576   2.990   9.658
96549SOL    HW191486  11.500   3.037   9.693
96549SOL    HW291487  11.539   2.934   9.590
96550SOL     OW91488   8.035   0.561   0.784
96550SOL    HW191489   8.096   0.497   0.820
96550SOL    HW291490   8.089   0.618   0.730
96551SOL     OW91491   1.569   4.669  12.652
96551SOL    HW191492   1.617   4.613  12.713
96551SOL    HW291493   1.480   4.633  12.653
96552SOL     OW91494   1.786   3.566  12.422
96552SOL    HW191495   1.871   3.524  12.428
96552SOL    HW291496   1.802   3.657  12.447
96553SOL     OW91497  12.038  12.002   0.161
96553SOL    HW191498  11.983  11.924   0.168
96553SOL    HW291499  12.119  11.978   0.207
96554SOL     OW91500   0.273   7.229  14.671
96554SOL    HW191501   0.278   7.276  14.588
96554SOL    HW291502   0.180   7.213  14.684
96555SOL     OW91503   6.124  13.808   2.517
96555SOL    HW191504   6.148  13.846   2.602
96555SOL    HW291505   6.064  13.872   2.478
96556SOL     OW91506   4.516   9.454  11.779
96556SOL    HW191507   4.534   9.429  11.689
96556SOL    HW291508   4.600   9.443  11.824
96557SOL     OW91509  10.012   7.291   8.168
96557SOL    HW191510  10.089   7.260   8.119
96557SOL    HW291511   9.948   7.314   8.100
96558SOL     OW91512   6.247   1.105   6.418
96558SOL    HW191513   6.188   1.171   6.381
96558SOL    HW291514   6.189   1.044   6.463
96559SOL     OW91515  14.175   2.559  13.871
96559SOL    HW191516  14.172   2.505  13.950
96559SOL    HW291517  14.083   2.573  13.849
96560SOL     OW91518   1.320   3.676   4.847
96560SOL    HW191519   1.274   3.692   4.929
96560SOL    HW291520   1.349   3.585   4.852
96561SOL     OW91521  14.076   9.111   5.086
96561SOL    HW191522  13.982   9.113   5.101
96561SOL    HW291523  14.095   9.020   5.063
96562SOL     OW91524   9.609   2.073  12.633
96562SOL    HW191525   9.609   2.127  12.554
96562SOL    HW291526   9.669   2.001  12.614
96563SOL     OW91527   0.668  11.317  13.231
96563SOL    HW191528   0.750  11.358  13.204
96563SOL    HW291529   0.602  11.358  13.175
96564SOL     OW91530   2.495   0.561  13.542
96564SOL    HW191531   2.543   0.507  13.478
96564SOL    HW291532   2.444   0.497  13.592
96565SOL     OW91533   4.542   6.546   5.201
96565SOL    HW191534   4.449   6.563   5.208
96565SOL    HW291535   4.559   6.540   5.107
96566SOL     OW91536   8.568   1.948   5.196
96566SOL    HW191537   8.527   2.035   5.189
96566SOL    HW291538   8.541   1.902   5.117
96567SOL     OW91539   6.683   1.813  10.157
96567SOL    HW191540   6.711   1.780  10.071
96567SOL    HW291541   6.701   1.740  10.217
96568SOL     OW91542  12.081  10.651  10.500
96568SOL    HW191543  12.008  10.711  10.488
96568SOL    HW291544  12.157  10.699  10.468
96569SOL     OW91545  11.531  12.045   7.401
96569SOL    HW191546  11.582  12.118   7.365
96569SOL    HW291547  11.442  12.059   7.368
96570SOL     OW91548  14.493   5.299  11.679
96570SOL    HW191549  14.570   5.285  11.625
96570SOL    HW291550  14.447   5.215  11.678
96571SOL     OW91551   7.136  14.633   8.860
96571SOL    HW191552   7.105  14.673   8.779
96571SOL    HW291553   7.090  14.681   8.929
96572SOL     OW91554  10.392   1.860   6.107
96572SOL    HW191555  10.300   1.855   6.084
96572SOL    HW291556  10.427   1.929   6.050
96573SOL     OW91557  14.486   1.579  10.266
96573SOL    HW191558  14.395   1.579  10.296
96573SOL    HW291559  14.480   1.590  10.171
96574SOL     OW91560   1.440  10.308   2.229
96574SOL    HW191561   1.463  10.297   2.321
96574SOL    HW291562   1.403  10.396   2.224
96575SOL     OW91563   4.676   8.415  12.938
96575SOL    HW191564   4.594   8.463  12.952
96575SOL    HW291565   4.736   8.480  12.902
96576SOL     OW91566   5.190   0.995  13.620
96576SOL    HW191567   5.282   1.004  13.594
96576SOL    HW291568   5.142   1.046  13.555
96577SOL     OW91569   9.486  11.161   9.329
96577SOL    HW191570   9.429  11.133   9.257
96577SOL    HW291571   9.447  11.119   9.407
96578SOL     OW91572  12.692   3.768   1.066
96578SOL    HW191573  12.651   3.685   1.044
96578SOL    HW291574  12.632   3.835   1.034
96579SOL     OW91575   2.874   7.758   6.585
96579SOL    HW191576   2.779   7.752   6.588
96579SOL    HW291577   2.900   7.796   6.669
96580SOL     OW91578   6.840   8.817   8.657
96580SOL    HW191579   6.876   8.899   8.623
96580SOL    HW291580   6.888   8.801   8.738
96581SOL     OW91581   7.958   9.533   4.502
96581SOL    HW191582   7.899   9.529   4.426
96581SOL    HW291583   8.024   9.597   4.477
96582SOL     OW91584  12.481   7.283   3.615
96582SOL    HW191585  12.385   7.284   3.615
96582SOL    HW291586  12.506   7.308   3.526
96583SOL     OW91587   6.013   9.474   8.973
96583SOL    HW191588   6.078   9.490   8.905
96583SOL    HW291589   5.966   9.396   8.944
96584SOL     OW91590   6.328  11.751   2.802
96584SOL    HW191591   6.257  11.688   2.818
96584SOL    HW291592   6.288  11.836   2.817
96585SOL     OW91593  11.462   9.803   2.096
96585SOL    HW191594  11.432   9.765   2.013
96585SOL    HW291595  11.498   9.728   2.144
96586SOL     OW91596  13.563   6.707   1.061
96586SOL    HW191597  13.625   6.643   1.026
96586SOL    HW291598  13.529   6.752   0.983
96587SOL     OW91599   0.348   6.873  13.734
96587SOL    HW191600   0.415   6.826  13.785
96587SOL    HW291601   0.312   6.937  13.796
96588SOL     OW91602  13.748   7.466   5.946
96588SOL    HW191603  13.727   7.458   5.853
96588SOL    HW291604  13.791   7.551   5.953
96589SOL     OW91605  13.942  10.849  12.204
96589SOL    HW191606  13.881  10.775  12.195
96589SOL    HW291607  13.979  10.838  12.291
96590SOL     OW91608   2.161   0.105  14.830
96590SOL    HW191609   2.134   0.024  14.873
96590SOL    HW291610   2.256   0.109  14.844
96591SOL     OW91611   6.749   3.755   5.267
96591SOL    HW191612   6.837   3.744   5.302
96591SOL    HW291613   6.734   3.850   5.269
96592SOL     OW91614  11.130   2.096  11.867
96592SOL    HW191615  11.206   2.152  11.855
96592SOL    HW291616  11.132   2.070  11.959
96593SOL     OW91617  11.289   3.105  10.937
96593SOL    HW191618  11.200   3.108  10.972
96593SOL    HW291619  11.332   3.183  10.973
96594SOL     OW91620  12.343   2.934   4.631
96594SOL    HW191621  12.354   2.923   4.536
96594SOL    HW291622  12.248   2.940   4.643
96595SOL     OW91623   0.866  14.357  12.075
96595SOL    HW191624   0.961  14.354  12.063
96595SOL    HW291625   0.835  14.412  12.003
96596SOL     OW91626   9.559   8.202   3.091
96596SOL    HW191627   9.573   8.111   3.065
96596SOL    HW291628   9.587   8.205   3.182
96597SOL     OW91629  13.365   6.969  10.861
96597SOL    HW191630  13.313   6.957  10.782
96597SOL    HW291631  13.442   6.914  10.849
96598SOL     OW91632   0.224  11.417  11.911
96598SOL    HW191633   0.293  11.365  11.870
96598SOL    HW291634   0.173  11.452  11.837
96599SOL     OW91635   4.765  12.679  12.977
96599SOL    HW191636   4.717  12.611  12.930
96599SOL    HW291637   4.725  12.761  12.946
96600SOL     OW91638  11.475  10.034  12.077
96600SOL    HW191639  11.388  10.066  12.099
96600SOL    HW291640  11.476  10.034  11.981
96601SOL     OW91641   6.885   1.762   4.397
96601SOL    HW191642   6.813   1.821   4.418
96601SOL    HW291643   6.850   1.704   4.329
96602SOL     OW91644   0.344  10.367  12.797
96602SOL    HW191645   0.322  10.410  12.879
96602SOL    HW291646   0.330  10.434  12.730
96603SOL     OW91647  13.201   8.049   2.835
96603SOL    HW191648  13.163   8.117   2.779
96603SOL    HW291649  13.202   8.089   2.922
96604SOL     OW91650   0.855  12.292   4.945
96604SOL    HW191651   0.908  12.359   4.989
96604SOL    HW291652   0.807  12.249   5.016
96605SOL     OW91653   8.663  10.488   3.439
96605SOL    HW191654   8.617  10.511   3.358
96605SOL    HW291655   8.651  10.564   3.496
96606SOL     OW91656   6.006  11.638   3.620
96606SOL    HW191657   5.912  11.657   3.610
96606SOL    HW291658   6.010  11.542   3.624
96607SOL     OW91659   0.665   0.887  10.647
96607SOL    HW191660   0.672   0.807  10.595
96607SOL    HW291661   0.573   0.913  10.637
96608SOL     OW91662  10.257   4.287   5.915
96608SOL    HW191663  10.279   4.372   5.878
96608SOL    HW291664  10.341   4.242   5.924
96609SOL     OW91665   5.648   2.527   4.531
96609SOL    HW191666   5.651   2.582   4.452
96609SOL    HW291667   5.575   2.563   4.582
96610SOL     OW91668  11.480  10.618   6.692
96610SOL    HW191669  11.559  10.667   6.667
96610SOL    HW291670  11.470  10.634   6.786
96611SOL     OW91671   7.378  10.650   2.683
96611SOL    HW191672   7.372  10.656   2.588
96611SOL    HW291673   7.440  10.579   2.699
96612SOL     OW91674  11.122   5.097   3.053
96612SOL    HW191675  11.197   5.052   3.093
96612SOL    HW291676  11.048   5.073   3.108
96613SOL     OW91677  11.198  13.774   2.721
96613SOL    HW191678  11.255  13.798   2.648
96613SOL    HW291679  11.244  13.701   2.764
96614SOL     OW91680   7.638  14.277   9.337
96614SOL    HW191681   7.625  14.197   9.287
96614SOL    HW291682   7.583  14.342   9.293
96615SOL     OW91683   0.069   2.748  11.944
96615SOL    HW191684   0.149   2.749  11.996
96615SOL    HW291685   0.023   2.668  11.970
96616SOL     OW91686   1.060  12.821  11.827
96616SOL    HW191687   1.023  12.902  11.862
96616SOL    HW291688   1.019  12.751  11.878
96617SOL     OW91689   3.290   0.063   9.968
96617SOL    HW191690   3.334  14.875  10.021
96617SOL    HW291691   3.347   0.139   9.974
96618SOL     OW91692   7.858   0.259  11.865
96618SOL    HW191693   7.788   0.301  11.916
96618SOL    HW291694   7.844   0.290  11.776
96619SOL     OW91695  11.057   3.267   1.864
96619SOL    HW191696  11.020   3.224   1.787
96619SOL    HW291697  11.015   3.224   1.938
96620SOL     OW91698   8.234   0.175   4.985
96620SOL    HW191699   8.161   0.207   5.038
96620SOL    HW291700   8.282   0.254   4.961
96621SOL     OW91701   7.593   3.635   8.229
96621SOL    HW191702   7.565   3.721   8.196
96621SOL    HW291703   7.515   3.580   8.219
96622SOL     OW91704  13.909  13.646   2.729
96622SOL    HW191705  13.822  13.604   2.729
96622SOL    HW291706  13.947  13.621   2.645
96623SOL     OW91707   3.076   4.212   4.300
96623SOL    HW191708   3.102   4.197   4.209
96623SOL    HW291709   2.985   4.181   4.304
96624SOL     OW91710  11.222   5.267  11.695
96624SOL    HW191711  11.159   5.231  11.758
96624SOL    HW291712  11.305   5.268  11.743
96625SOL     OW91713  10.391   0.029  10.076
96625SOL    HW191714  10.358  14.824  10.106
96625SOL    HW291715  10.325   0.060  10.014
96626SOL     OW91716   2.436   2.444  10.518
96626SOL    HW191717   2.373   2.373  10.508
96626SOL    HW291718   2.496   2.413  10.586
96627SOL     OW91719   5.682   6.797  12.161
96627SOL    HW191720   5.627   6.873  12.140
96627SOL    HW291721   5.754   6.834  12.212
96628SOL     OW91722   5.800   5.909   4.634
96628SOL    HW191723   5.749   5.913   4.715
96628SOL    HW291724   5.887   5.939   4.660
96629SOL     OW91725   1.675  10.793   5.953
96629SOL    HW191726   1.766  10.790   5.926
96629SOL    HW291727   1.645  10.702   5.947
96630SOL     OW91728   4.531  14.504   4.784
96630SOL    HW191729   4.557  14.453   4.860
96630SOL    HW291730   4.448  14.465   4.756
96631SOL     OW91731   2.334   7.732   7.929
96631SOL    HW191732   2.243   7.754   7.910
96631SOL    HW291733   2.383   7.812   7.908
96632SOL     OW91734   8.738   8.997   9.861
96632SOL    HW191735   8.827   8.969   9.885
96632SOL    HW291736   8.695   8.917   9.831
96633SOL     OW91737   5.746  13.850  12.814
96633SOL    HW191738   5.791  13.884  12.737
96633SOL    HW291739   5.667  13.808  12.779
96634SOL     OW91740   2.432   2.371  11.468
96634SOL    HW191741   2.423   2.357  11.374
96634SOL    HW291742   2.355   2.423  11.492
96635SOL     OW91743  10.656   0.988   2.745
96635SOL    HW191744  10.703   0.988   2.829
96635SOL    HW291745  10.696   1.060   2.696
96636SOL     OW91746   2.454  14.478  11.138
96636SOL    HW191747   2.389  14.409  11.122
96636SOL    HW291748   2.538  14.431  11.141
96637SOL     OW91749   9.346   5.498   0.137
96637SOL    HW191750   9.283   5.428   0.154
96637SOL    HW291751   9.376   5.525   0.223
96638SOL     OW91752  10.038   2.792  11.750
96638SOL    HW191753  10.054   2.698  11.759
96638SOL    HW291754   9.978   2.800  11.676
96639SOL     OW91755  14.468  13.222  10.881
96639SOL    HW191756  14.532  13.283  10.919
96639SOL    HW291757  14.521  13.145  10.858
96640SOL     OW91758   2.827   9.584   6.397
96640SOL    HW191759   2.806   9.514   6.458
96640SOL    HW291760   2.808   9.547   6.311
96641SOL     OW91761   1.302   7.217   5.907
96641SOL    HW191762   1.239   7.152   5.877
96641SOL    HW291763   1.263   7.253   5.987
96642SOL     OW91764   8.828  11.238  14.269
96642SOL    HW191765   8.741  11.276  14.284
96642SOL    HW291766   8.825  11.154  14.313
96643SOL     OW91767   6.191   6.283   4.562
96643SOL    HW191768   6.128   6.334   4.613
96643SOL    HW291769   6.245   6.348   4.517
96644SOL     OW91770   4.693   9.725  14.690
96644SOL    HW191771   4.705   9.804  14.743
96644SOL    HW291772   4.634   9.752  14.620
96645SOL     OW91773   1.366  12.437  13.153
96645SOL    HW191774   1.421  12.461  13.078
96645SOL    HW291775   1.427  12.430  13.226
96646SOL     OW91776   6.998   3.147   6.261
96646SOL    HW191777   7.059   3.078   6.287
96646SOL    HW291778   7.012   3.156   6.166
96647SOL     OW91779   2.483  14.140   1.891
96647SOL    HW191780   2.465  14.060   1.843
96647SOL    HW291781   2.429  14.207   1.849
96648SOL     OW91782   8.510   7.103  12.996
96648SOL    HW191783   8.455   7.116  12.918
96648SOL    HW291784   8.448   7.076  13.064
96649SOL     OW91785  14.815   5.860   8.778
96649SOL    HW191786  14.826   5.821   8.691
96649SOL    HW291787  14.753   5.801   8.821
96650SOL     OW91788  12.597   6.464   6.465
96650SOL    HW191789  12.614   6.558   6.479
96650SOL    HW291790  12.522   6.462   6.405
96651SOL     OW91791   5.205  10.627   5.953
96651SOL    HW191792   5.300  10.631   5.959
96651SOL    HW291793   5.186  10.642   5.861
96652SOL     OW91794   9.751   8.179   0.728
96652SOL    HW191795   9.811   8.187   0.654
96652SOL    HW291796   9.738   8.269   0.759
96653SOL     OW91797   4.329   4.798   8.262
96653SOL    HW191798   4.325   4.712   8.303
96653SOL    HW291799   4.369   4.782   8.176
96654SOL     OW91800   6.975  14.617   2.139
96654SOL    HW191801   7.067  14.643   2.148
96654SOL    HW291802   6.964  14.548   2.204
96655SOL     OW91803   2.395   6.202   0.834
96655SOL    HW191804   2.368   6.110   0.842
96655SOL    HW291805   2.313   6.251   0.838
96656SOL     OW91806   4.970   1.605  12.884
96656SOL    HW191807   4.967   1.675  12.819
96656SOL    HW291808   4.916   1.535  12.847
96657SOL     OW91809  14.117  11.718   9.432
96657SOL    HW191810  14.144  11.754   9.348
96657SOL    HW291811  14.024  11.741   9.438
96658SOL     OW91812   7.289   7.273  12.713
96658SOL    HW191813   7.216   7.305  12.660
96658SOL    HW291814   7.364   7.326  12.686
96659SOL     OW91815   0.536   9.295   0.442
96659SOL    HW191816   0.627   9.274   0.466
96659SOL    HW291817   0.509   9.362   0.505
96660SOL     OW91818   6.936   8.831  13.730
96660SOL    HW191819   7.023   8.836  13.770
96660SOL    HW291820   6.941   8.756  13.671
96661SOL     OW91821   0.522   5.746   3.740
96661SOL    HW191822   0.583   5.736   3.667
96661SOL    HW291823   0.486   5.658   3.753
96662SOL     OW91824   5.155   6.265   1.038
96662SOL    HW191825   5.165   6.319   1.117
96662SOL    HW291826   5.199   6.314   0.969
96663SOL     OW91827   3.933   6.684   7.250
96663SOL    HW191828   4.004   6.641   7.298
96663SOL    HW291829   3.961   6.775   7.244
96664SOL     OW91830   7.102  14.055   7.920
96664SOL    HW191831   7.038  14.012   7.976
96664SOL    HW291832   7.065  14.048   7.832
96665SOL     OW91833   6.726  13.323   4.605
96665SOL    HW191834   6.787  13.327   4.679
96665SOL    HW291835   6.642  13.349   4.641
96666SOL     OW91836  10.605   5.203  10.669
96666SOL    HW191837  10.666   5.130  10.660
96666SOL    HW291838  10.639   5.254  10.743
96667SOL     OW91839   6.203  12.647  13.940
96667SOL    HW191840   6.167  12.618  14.024
96667SOL    HW291841   6.142  12.613  13.875
96668SOL     OW91842  12.256  12.539   1.246
96668SOL    HW191843  12.196  12.518   1.174
96668SOL    HW291844  12.267  12.457   1.293
96669SOL     OW91845   4.843   7.560   3.841
96669SOL    HW191846   4.754   7.576   3.808
96669SOL    HW291847   4.830   7.536   3.933
96670SOL     OW91848   4.394   3.309   3.598
96670SOL    HW191849   4.428   3.233   3.644
96670SOL    HW291850   4.318   3.336   3.649
96671SOL     OW91851  14.225   6.396  14.223
96671SOL    HW191852  14.218   6.490  14.239
96671SOL    HW291853  14.229   6.357  14.311
96672SOL     OW91854  11.291  13.184   1.564
96672SOL    HW191855  11.212  13.150   1.605
96672SOL    HW291856  11.266  13.199   1.473
96673SOL     OW91857   8.818   2.007   4.321
96673SOL    HW191858   8.749   1.986   4.259
96673SOL    HW291859   8.893   1.954   4.293
96674SOL     OW91860   7.910  10.360   0.524
96674SOL    HW191861   7.840  10.394   0.580
96674SOL    HW291862   7.970  10.433   0.513
96675SOL     OW91863   4.727  14.149   5.420
96675SOL    HW191864   4.771  14.109   5.495
96675SOL    HW291865   4.645  14.099   5.411
96676SOL     OW91866   0.533  14.245   7.986
96676SOL    HW191867   0.528  14.331   8.027
96676SOL    HW291868   0.526  14.183   8.058
96677SOL     OW91869   8.612  13.823  14.743
96677SOL    HW191870   8.564  13.774  14.677
96677SOL    HW291871   8.559  13.901  14.760
96678SOL     OW91872   5.782   5.699  13.689
96678SOL    HW191873   5.825   5.784  13.681
96678SOL    HW291874   5.734   5.689  13.606
96679SOL     OW91875  13.517   7.563  12.757
96679SOL    HW191876  13.592   7.583  12.813
96679SOL    HW291877  13.443   7.554  12.818
96680SOL     OW91878   3.088   0.849   1.280
96680SOL    HW191879   3.109   0.899   1.200
96680SOL    HW291880   3.064   0.762   1.248
96681SOL     OW91881   2.450   4.606   6.834
96681SOL    HW191882   2.471   4.699   6.825
96681SOL    HW291883   2.465   4.569   6.747
96682SOL     OW91884   2.787   6.001   4.819
96682SOL    HW191885   2.790   5.908   4.840
96682SOL    HW291886   2.839   6.043   4.888
96683SOL     OW91887   4.220  14.430   9.002
96683SOL    HW191888   4.175  14.497   8.951
96683SOL    HW291889   4.311  14.459   9.004
96684SOL     OW91890   6.251  14.644   5.557
96684SOL    HW191891   6.262  14.730   5.517
96684SOL    HW291892   6.183  14.657   5.623
96685SOL     OW91893   9.733   9.959   3.602
96685SOL    HW191894   9.731   9.997   3.514
96685SOL    HW291895   9.720   9.865   3.588
96686SOL     OW91896   8.760   1.050  14.092
96686SOL    HW191897   8.769   1.085  14.181
96686SOL    HW291898   8.759   1.128  14.036
96687SOL     OW91899   3.311   5.275  13.335
96687SOL    HW191900   3.359   5.196  13.359
96687SOL    HW291901   3.263   5.300  13.414
96688SOL     OW91902   0.028   6.221  14.329
96688SOL    HW191903   0.079   6.194  14.405
96688SOL    HW291904  14.820   6.235  14.364
96689SOL     OW91905  12.387  14.309   3.514
96689SOL    HW191906  12.367  14.221   3.483
96689SOL    HW291907  12.482  14.309   3.529
96690SOL     OW91908   6.227  13.688  12.308
96690SOL    HW191909   6.307  13.637  12.295
96690SOL    HW291910   6.181  13.643  12.379
96691SOL     OW91911  11.818   3.008   8.210
96691SOL    HW191912  11.897   2.996   8.157
96691SOL    HW291913  11.842   2.972   8.296
96692SOL     OW91914   2.081   4.193  11.004
96692SOL    HW191915   2.142   4.119  10.999
96692SOL    HW291916   2.001   4.155  11.041
96693SOL     OW91917   8.352   9.935   1.239
96693SOL    HW191918   8.407  10.000   1.195
96693SOL    HW291919   8.277   9.984   1.272
96694SOL     OW91920  10.357  13.246  13.738
96694SOL    HW191921  10.449  13.254  13.763
96694SOL    HW291922  10.354  13.166  13.686
96695SOL     OW91923   7.073   8.158   3.721
96695SOL    HW191924   7.120   8.105   3.785
96695SOL    HW291925   7.124   8.150   3.640
96696SOL     OW91926  10.115  10.499  13.129
96696SOL    HW191927  10.162  10.439  13.072
96696SOL    HW291928  10.153  10.585  13.111
96697SOL     OW91929   8.023  11.522  11.711
96697SOL    HW191930   7.959  11.579  11.754
96697SOL    HW291931   7.995  11.433  11.732
96698SOL     OW91932   8.797   2.148   8.568
96698SOL    HW191933   8.891   2.146   8.555
96698SOL    HW291934   8.766   2.064   8.532
96699SOL     OW91935   6.240  13.103   7.689
96699SOL    HW191936   6.252  13.067   7.776
96699SOL    HW291937   6.295  13.050   7.632
96700SOL     OW91938   7.548   1.818  10.960
96700SOL    HW191939   7.467   1.850  11.001
96700SOL    HW291940   7.518   1.771  10.882
96701SOL     OW91941   9.221   4.602   9.686
96701SOL    HW191942   9.213   4.516   9.728
96701SOL    HW291943   9.136   4.615   9.644
96702SOL     OW91944   4.616   7.389  12.997
96702SOL    HW191945   4.588   7.468  13.043
96702SOL    HW291946   4.599   7.408  12.905
96703SOL     OW91947   0.266   7.018  11.780
96703SOL    HW191948   0.237   6.932  11.810
96703SOL    HW291949   0.208   7.039  11.707
96704SOL     OW91950  11.580   9.859   4.395
96704SOL    HW191951  11.648   9.866   4.329
96704SOL    HW291952  11.589   9.770   4.429
96705SOL     OW91953   3.368  11.718   8.141
96705SOL    HW191954   3.350  11.669   8.061
96705SOL    HW291955   3.287  11.714   8.191
96706SOL     OW91956   0.246  14.781  10.962
96706SOL    HW191957   0.166  14.804  10.914
96706SOL    HW291958   0.227  14.804  11.052
96707SOL     OW91959   4.977   1.348   7.115
96707SOL    HW191960   5.016   1.434   7.129
96707SOL    HW291961   5.050   1.294   7.084
96708SOL     OW91962   6.733   8.857   3.362
96708SOL    HW191963   6.737   8.830   3.270
96708SOL    HW291964   6.775   8.943   3.364
96709SOL     OW91965   6.312   7.738  10.899
96709SOL    HW191966   6.263   7.782  10.969
96709SOL    HW291967   6.362   7.670  10.944
96710SOL     OW91968  14.349   2.907   8.382
96710SOL    HW191969  14.422   2.854   8.350
96710SOL    HW291970  14.312   2.855   8.453
96711SOL     OW91971   6.245   8.049   8.483
96711SOL    HW191972   6.274   8.139   8.468
96711SOL    HW291973   6.305   8.015   8.550
96712SOL     OW91974   6.856   2.677   0.232
96712SOL    HW191975   6.892   2.687   0.320
96712SOL    HW291976   6.926   2.705   0.174
96713SOL     OW91977   1.425   7.399   6.275
96713SOL    HW191978   1.336   7.389   6.240
96713SOL    HW291979   1.481   7.366   6.205
96714SOL     OW91980  12.144  14.255   4.959
96714SOL    HW191981  12.172  14.310   4.886
96714SOL    HW291982  12.154  14.312   5.036
96715SOL     OW91983   6.607   9.529   7.556
96715SOL    HW191984   6.689   9.574   7.578
96715SOL    HW291985   6.539   9.597   7.566
96716SOL     OW91986   5.776   8.525   2.249
96716SOL    HW191987   5.724   8.457   2.207
96716SOL    HW291988   5.843   8.547   2.184
96717SOL     OW91989   8.135   8.529   7.753
96717SOL    HW191990   8.078   8.599   7.784
96717SOL    HW291991   8.162   8.556   7.665
96718SOL     OW91992  12.535  10.412  13.951
96718SOL    HW191993  12.457  10.394  14.003
96718SOL    HW291994  12.571  10.493  13.988
96719SOL     OW91995  10.170  11.039   9.713
96719SOL    HW191996  10.189  10.945   9.719
96719SOL    HW291997  10.147  11.065   9.802
96720SOL     OW91998   8.405  12.570   4.685
96720SOL    HW191999   8.331  12.593   4.629
96720SOL    HW292000   8.367  12.559   4.772
96721SOL     OW92001   2.593   8.794   7.565
96721SOL    HW192002   2.599   8.835   7.479
96721SOL    HW292003   2.541   8.856   7.617
96722SOL     OW92004   0.135  11.913   9.422
96722SOL    HW192005   0.137  11.935   9.515
96722SOL    HW292006   0.153  11.820   9.418
96723SOL     OW92007   7.593   3.744  12.696
96723SOL    HW192008   7.657   3.752  12.767
96723SOL    HW292009   7.562   3.654  12.702
96724SOL     OW92010   5.026   1.348   1.169
96724SOL    HW192011   4.936   1.323   1.187
96724SOL    HW292012   5.076   1.266   1.175
96725SOL     OW92013  12.230   2.680  14.341
96725SOL    HW192014  12.226   2.587  14.318
96725SOL    HW292015  12.294   2.717  14.280
96726SOL     OW92016  14.734   0.025  13.294
96726SOL    HW192017  14.775  14.823  13.323
96726SOL    HW292018  14.663  14.877  13.236
96727SOL     OW92019  11.231  10.753   0.311
96727SOL    HW192020  11.241  10.702   0.392
96727SOL    HW292021  11.149  10.721   0.273
96728SOL     OW92022   1.931   4.958   3.920
96728SOL    HW192023   1.950   4.962   3.826
96728SOL    HW292024   1.837   4.977   3.926
96729SOL     OW92025   5.733   8.359   6.765
96729SOL    HW192026   5.643   8.339   6.792
96729SOL    HW292027   5.785   8.348   6.845
96730SOL     OW92028   0.792  13.627   4.170
96730SOL    HW192029   0.879  13.651   4.201
96730SOL    HW292030   0.792  13.531   4.168
96731SOL     OW92031   3.769  12.817   0.801
96731SOL    HW192032   3.785  12.887   0.738
96731SOL    HW292033   3.703  12.762   0.760
96732SOL     OW92034   5.724   9.930  11.366
96732SOL    HW192035   5.746   9.870  11.295
96732SOL    HW292036   5.637   9.902  11.395
96733SOL     OW92037   7.744   1.091  14.059
96733SOL    HW192038   7.685   1.166  14.068
96733SOL    HW292039   7.830   1.126  14.081
96734SOL     OW92040  14.451   7.854  13.733
96734SOL    HW192041  14.545   7.871  13.723
96734SOL    HW292042  14.430   7.886  13.821
96735SOL     OW92043   2.393  12.892   5.477
96735SOL    HW192044   2.347  12.857   5.554
96735SOL    HW292045   2.401  12.818   5.418
96736SOL     OW92046   6.632  14.828  14.367
96736SOL    HW192047   6.723  14.811  14.344
96736SOL    HW292048   6.583  14.755  14.329
96737SOL     OW92049   6.721   3.102  14.863
96737SOL    HW192050   6.626   3.095  14.855
96737SOL    HW292051   6.755   3.033  14.807
96738SOL     OW92052  13.560  12.262   0.328
96738SOL    HW192053  13.522  12.334   0.277
96738SOL    HW292054  13.497  12.190   0.317
96739SOL     OW92055   5.640   4.222   5.351
96739SOL    HW192056   5.623   4.139   5.306
96739SOL    HW292057   5.583   4.285   5.308
96740SOL     OW92058   6.442   1.535   8.186
96740SOL    HW192059   6.474   1.524   8.096
96740SOL    HW292060   6.347   1.525   8.179
96741SOL     OW92061   9.726  11.327   3.820
96741SOL    HW192062   9.722  11.423   3.819
96741SOL    HW292063   9.662  11.300   3.885
96742SOL     OW92064   5.115   0.153   2.549
96742SOL    HW192065   5.176   0.131   2.619
96742SOL    HW292066   5.155   0.118   2.469
96743SOL     OW92067   8.342  10.615   2.382
96743SOL    HW192068   8.334  10.706   2.411
96743SOL    HW292069   8.278  10.567   2.434
96744SOL     OW92070   2.329   7.812  11.056
96744SOL    HW192071   2.263   7.800  10.988
96744SOL    HW292072   2.291   7.876  11.116
96745SOL     OW92073  10.579   2.650  10.635
96745SOL    HW192074  10.576   2.708  10.559
96745SOL    HW292075  10.646   2.689  10.692
96746SOL     OW92076   1.006   5.875   8.813
96746SOL    HW192077   0.976   5.852   8.901
96746SOL    HW292078   0.950   5.948   8.787
96747SOL     OW92079  10.977  13.017  14.528
96747SOL    HW192080  11.064  13.053  14.510
96747SOL    HW292081  10.923  13.093  14.548
96748SOL     OW92082   7.844  14.744   9.793
96748SOL    HW192083   7.894  14.662   9.796
96748SOL    HW292084   7.904  14.806   9.750
96749SOL     OW92085  12.574  10.515   6.688
96749SOL    HW192086  12.506  10.497   6.623
96749SOL    HW292087  12.656  10.513   6.638
96750SOL     OW92088   7.878   3.130   5.185
96750SOL    HW192089   7.888   3.171   5.270
96750SOL    HW292090   7.878   3.203   5.123
96751SOL     OW92091   5.176   8.191   0.876
96751SOL    HW192092   5.185   8.275   0.921
96751SOL    HW292093   5.123   8.138   0.934
96752SOL     OW92094   9.421   7.493   4.271
96752SOL    HW192095   9.362   7.511   4.198
96752SOL    HW292096   9.467   7.576   4.286
96753SOL     OW92097   6.337   5.358  13.018
96753SOL    HW192098   6.317   5.266  13.031
96753SOL    HW292099   6.376   5.387  13.101
96754SOL     OW92100  12.757  10.952   6.547
96754SOL    HW192101  12.715  10.880   6.500
96754SOL    HW292102  12.850  10.942   6.526
96755SOL     OW92103   5.563   4.207  13.432
96755SOL    HW192104   5.594   4.174  13.348
96755SOL    HW292105   5.473   4.175  13.440
96756SOL     OW92106   7.729   3.722   2.769
96756SOL    HW192107   7.716   3.740   2.863
96756SOL    HW292108   7.646   3.748   2.729
96757SOL     OW92109   5.245   2.821   1.451
96757SOL    HW192110   5.285   2.837   1.366
96757SOL    HW292111   5.238   2.726   1.458
96758SOL     OW92112  12.635  12.258   0.845
96758SOL    HW192113  12.583  12.266   0.925
96758SOL    HW292114  12.571  12.260   0.774
96759SOL     OW92115   2.966   9.916   9.628
96759SOL    HW192116   2.886   9.866   9.642
96759SOL    HW292117   2.947  10.003   9.661
96760SOL     OW92118   9.038   6.913  10.360
96760SOL    HW192119   9.046   6.860  10.281
96760SOL    HW292120   9.125   6.908  10.401
96761SOL     OW92121   7.969   7.132  13.785
96761SOL    HW192122   8.064   7.145  13.794
96761SOL    HW292123   7.937   7.217  13.755
96762SOL     OW92124  13.913   9.519   1.499
96762SOL    HW192125  13.993   9.563   1.529
96762SOL    HW292126  13.877   9.578   1.432
96763SOL     OW92127  14.579   6.792   9.152
96763SOL    HW192128  14.587   6.735   9.075
96763SOL    HW292129  14.625   6.872   9.127
96764SOL     OW92130   2.176  13.129   8.892
96764SOL    HW192131   2.184  13.036   8.869
96764SOL    HW292132   2.103  13.160   8.837
96765SOL     OW92133   9.900  10.922   5.868
96765SOL    HW192134   9.869  10.990   5.809
96765SOL    HW292135   9.825  10.864   5.880
96766SOL     OW92136  11.274  11.183   3.272
96766SOL    HW192137  11.181  11.169   3.290
96766SOL    HW292138  11.286  11.278   3.279
96767SOL     OW92139   2.438   2.902  13.991
96767SOL    HW192140   2.391   2.820  13.978
96767SOL    HW292141   2.521   2.877  14.030
96768SOL     OW92142   2.972  14.689   5.700
96768SOL    HW192143   2.910  14.626   5.664
96768SOL    HW292144   3.058  14.655   5.674
96769SOL     OW92145   7.401   8.209  13.452
96769SOL    HW192146   7.454   8.288  13.441
96769SOL    HW292147   7.431   8.172  13.535
96770SOL     OW92148  10.607   8.402  14.738
96770SOL    HW192149  10.645   8.316  14.724
96770SOL    HW292150  10.549   8.415  14.663
96771SOL     OW92151   0.845   9.387   5.912
96771SOL    HW192152   0.787   9.462   5.922
96771SOL    HW292153   0.880   9.371   6.000
96772SOL     OW92154   3.678  13.326   1.228
96772SOL    HW192155   3.652  13.318   1.136
96772SOL    HW292156   3.698  13.419   1.239
96773SOL     OW92157  11.476   4.583   2.912
96773SOL    HW192158  11.523   4.581   2.996
96773SOL    HW292159  11.505   4.504   2.866
96774SOL     OW92160   5.134   5.230   5.037
96774SOL    HW192161   5.172   5.147   5.067
96774SOL    HW292162   5.200   5.268   4.980
96775SOL     OW92163   5.241   9.162  11.828
96775SOL    HW192164   5.283   9.187  11.745
96775SOL    HW292165   5.311   9.169  11.893
96776SOL     OW92166   3.225  14.326   0.194
96776SOL    HW192167   3.144  14.372   0.218
96776SOL    HW292168   3.194  14.247   0.149
96777SOL     OW92169  13.827  10.123  12.991
96777SOL    HW192170  13.778  10.156  13.066
96777SOL    HW292171  13.806  10.030  12.988
96778SOL     OW92172  12.566   6.469  12.906
96778SOL    HW192173  12.574   6.517  12.988
96778SOL    HW292174  12.527   6.386  12.930
96779SOL     OW92175  12.442   0.019   6.840
96779SOL    HW192176  12.446  14.845   6.761
96779SOL    HW292177  12.533   0.029   6.867
96780SOL     OW92178   0.484  12.897   0.511
96780SOL    HW192179   0.406  12.913   0.564
96780SOL    HW292180   0.557  12.898   0.573
96781SOL     OW92181  12.411   7.905   7.080
96781SOL    HW192182  12.347   7.943   7.140
96781SOL    HW292183  12.363   7.894   6.997
96782SOL     OW92184   1.188   5.814   8.326
96782SOL    HW192185   1.226   5.875   8.262
96782SOL    HW292186   1.263   5.774   8.369
96783SOL     OW92187   9.524   8.935  13.942
96783SOL    HW192188   9.500   8.875  13.872
96783SOL    HW292189   9.441   8.956  13.984
96784SOL     OW92190  12.671   5.184   0.375
96784SOL    HW192191  12.725   5.248   0.329
96784SOL    HW292192  12.590   5.179   0.323
96785SOL     OW92193  12.204  10.750   4.682
96785SOL    HW192194  12.262  10.802   4.625
96785SOL    HW292195  12.121  10.746   4.635
96786SOL     OW92196   7.493   1.729  13.423
96786SOL    HW192197   7.468   1.660  13.362
96786SOL    HW292198   7.455   1.809  13.386
96787SOL     OW92199   6.342   3.629   5.198
96787SOL    HW192200   6.353   3.723   5.181
96787SOL    HW292201   6.422   3.589   5.165
96788SOL     OW92202  11.820   3.319   0.247
96788SOL    HW192203  11.852   3.389   0.304
96788SOL    HW292204  11.780   3.365   0.173
96789SOL     OW92205   8.999   4.808  12.071
96789SOL    HW192206   8.919   4.779  12.116
96789SOL    HW292207   9.002   4.903  12.086
96790SOL     OW92208  14.095   8.250   8.367
96790SOL    HW192209  14.189   8.232   8.358
96790SOL    HW292210  14.089   8.308   8.443
96791SOL     OW92211   2.896   5.880   2.984
96791SOL    HW192212   2.815   5.852   3.028
96791SOL    HW292213   2.885   5.974   2.970
96792SOL     OW92214   6.558   3.805   9.773
96792SOL    HW192215   6.643   3.831   9.738
96792SOL    HW292216   6.517   3.887   9.800
96793SOL     OW92217  12.482   0.427  10.620
96793SOL    HW192218  12.519   0.400  10.536
96793SOL    HW292219  12.550   0.483  10.659
96794SOL     OW92220   4.372   2.040   6.705
96794SOL    HW192221   4.421   2.005   6.780
96794SOL    HW292222   4.440   2.070   6.644
96795SOL     OW92223  12.581   9.218   1.634
96795SOL    HW192224  12.658   9.275   1.644
96795SOL    HW292225  12.538   9.251   1.555
96796SOL     OW92226   0.303   0.770   5.861
96796SOL    HW192227   0.218   0.741   5.828
96796SOL    HW292228   0.283   0.823   5.938
96797SOL     OW92229   8.905  13.354   8.618
96797SOL    HW192230   8.854  13.417   8.567
96797SOL    HW292231   8.904  13.274   8.566
96798SOL     OW92232   2.677   5.931   5.261
96798SOL    HW192233   2.624   5.853   5.249
96798SOL    HW292234   2.651   5.967   5.345
96799SOL     OW92235  10.161   4.971   0.817
96799SOL    HW192236  10.243   4.983   0.770
96799SOL    HW292237  10.163   4.880   0.847
96800SOL     OW92238   5.740   0.357   3.894
96800SOL    HW192239   5.784   0.417   3.953
96800SOL    HW292240   5.735   0.274   3.942
96801SOL     OW92241  11.122   7.953  11.325
96801SOL    HW192242  11.165   7.896  11.390
96801SOL    HW292243  11.031   7.922  11.323
96802SOL     OW92244   2.478   1.011   8.722
96802SOL    HW192245   2.489   0.917   8.709
96802SOL    HW292246   2.446   1.019   8.812
96803SOL     OW92247   7.663  10.971   6.418
96803SOL    HW192248   7.756  10.987   6.437
96803SOL    HW292249   7.646  10.884   6.453
96804SOL     OW92250  10.329  10.825   5.628
96804SOL    HW192251  10.408  10.772   5.633
96804SOL    HW292252  10.335  10.885   5.702
96805SOL     OW92253  14.456  13.478  11.618
96805SOL    HW192254  14.374  13.507  11.659
96805SOL    HW292255  14.459  13.384  11.635
96806SOL     OW92256   0.475  14.824   0.711
96806SOL    HW192257   0.411  14.760   0.743
96806SOL    HW292258   0.509  14.865   0.790
96807SOL     OW92259  10.748  10.661   6.391
96807SOL    HW192260  10.794  10.588   6.433
96807SOL    HW292261  10.690  10.620   6.327
96808SOL     OW92262  13.542   9.423   1.656
96808SOL    HW192263  13.474   9.357   1.669
96808SOL    HW292264  13.530   9.454   1.567
96809SOL     OW92265   2.511   2.471   0.999
96809SOL    HW192266   2.592   2.479   1.049
96809SOL    HW292267   2.527   2.396   0.941
96810SOL     OW92268  10.399   2.786   8.128
96810SOL    HW192269  10.410   2.854   8.061
96810SOL    HW292270  10.311   2.752   8.114
96811SOL     OW92271   8.308  11.404   6.211
96811SOL    HW192272   8.310  11.402   6.307
96811SOL    HW292273   8.355  11.326   6.184
96812SOL     OW92274   8.448   0.019   4.632
96812SOL    HW192275   8.356   0.042   4.620
96812SOL    HW292276   8.489   0.099   4.666
96813SOL     OW92277  14.862   1.248   9.664
96813SOL    HW192278  14.854   1.323   9.605
96813SOL    HW292279   0.032   1.183   9.614
96814SOL     OW92280   2.295   4.399   2.909
96814SOL    HW192281   2.211   4.407   2.864
96814SOL    HW292282   2.272   4.391   3.001
96815SOL     OW92283   7.950   5.075  11.294
96815SOL    HW192284   7.986   4.989  11.316
96815SOL    HW292285   8.024   5.135  11.304
96816SOL     OW92286  11.280   7.545   7.537
96816SOL    HW192287  11.311   7.462   7.573
96816SOL    HW292288  11.217   7.520   7.469
96817SOL     OW92289   3.530   6.054   0.055
96817SOL    HW192290   3.463   6.011   0.003
96817SOL    HW292291   3.508   6.147   0.051
96818SOL     OW92292   0.048  10.938   8.209
96818SOL    HW192293  14.848  10.985   8.231
96818SOL    HW292294   0.027  10.890   8.129
96819SOL     OW92295   8.123  11.704   0.831
96819SOL    HW192296   8.215  11.706   0.855
96819SOL    HW292297   8.104  11.794   0.804
96820SOL     OW92298  10.734  10.573   7.908
96820SOL    HW192299  10.667  10.517   7.869
96820SOL    HW292300  10.732  10.552   8.001
96821SOL     OW92301   0.358   6.912   3.005
96821SOL    HW192302   0.333   6.820   3.012
96821SOL    HW292303   0.294   6.950   2.945
96822SOL     OW92304  14.223   7.599   7.780
96822SOL    HW192305  14.278   7.630   7.708
96822SOL    HW292306  14.242   7.659   7.852
96823SOL     OW92307   0.179   4.221   6.323
96823SOL    HW192308   0.130   4.257   6.397
96823SOL    HW292309   0.271   4.239   6.343
96824SOL     OW92310  12.905   6.632   9.740
96824SOL    HW192311  12.893   6.712   9.791
96824SOL    HW292312  12.822   6.620   9.693
96825SOL     OW92313   5.067   6.631   3.946
96825SOL    HW192314   5.136   6.668   4.002
96825SOL    HW292315   5.115   6.592   3.873
96826SOL     OW92316   6.222   0.318  11.195
96826SOL    HW192317   6.158   0.288  11.259
96826SOL    HW292318   6.180   0.394  11.154
96827SOL     OW92319   9.544  11.708   9.565
96827SOL    HW192320   9.482  11.637   9.581
96827SOL    HW292321   9.588  11.721   9.649
96828SOL     OW92322   7.363   0.134   9.304
96828SOL    HW192323   7.325   0.221   9.295
96828SOL    HW292324   7.455   0.145   9.278
96829SOL     OW92325   6.596   1.640   1.559
96829SOL    HW192326   6.606   1.702   1.487
96829SOL    HW292327   6.651   1.565   1.535
96830SOL     OW92328   3.908   6.792  13.433
96830SOL    HW192329   3.983   6.805  13.375
96830SOL    HW292330   3.902   6.873  13.484
96831SOL     OW92331   9.613   3.858   3.887
96831SOL    HW192332   9.682   3.803   3.922
96831SOL    HW292333   9.609   3.933   3.946
96832SOL     OW92334   0.652  10.513   5.457
96832SOL    HW192335   0.628  10.456   5.384
96832SOL    HW292336   0.625  10.600   5.429
96833SOL     OW92337   4.805   9.068   9.968
96833SOL    HW192338   4.777   8.978   9.980
96833SOL    HW292339   4.744   9.120  10.021
96834SOL     OW92340  10.001   7.437  11.875
96834SOL    HW192341   9.965   7.481  11.798
96834SOL    HW292342   9.968   7.488  11.949
96835SOL     OW92343  12.191  11.237   9.853
96835SOL    HW192344  12.226  11.324   9.833
96835SOL    HW292345  12.263  11.178   9.833
96836SOL     OW92346   7.779  12.598   7.977
96836SOL    HW192347   7.757  12.678   8.024
96836SOL    HW292348   7.722  12.598   7.900
96837SOL     OW92349   7.719   0.504   4.282
96837SOL    HW192350   7.801   0.470   4.319
96837SOL    HW292351   7.746   0.546   4.200
96838SOL     OW92352   1.586  11.265   4.689
96838SOL    HW192353   1.573  11.199   4.622
96838SOL    HW292354   1.635  11.335   4.645
96839SOL     OW92355  11.543  13.921   5.440
96839SOL    HW192356  11.470  13.860   5.430
96839SOL    HW292357  11.617  13.866   5.463
96840SOL     OW92358  12.026   9.908   9.777
96840SOL    HW192359  12.097   9.934   9.719
96840SOL    HW292360  12.066   9.844   9.837
96841SOL     OW92361   9.447   9.709   4.556
96841SOL    HW192362   9.485   9.634   4.602
96841SOL    HW292363   9.383   9.670   4.496
96842SOL     OW92364   6.597  11.393   7.750
96842SOL    HW192365   6.681  11.438   7.743
96842SOL    HW292366   6.586  11.349   7.665
96843SOL     OW92367   6.651   6.748   3.243
96843SOL    HW192368   6.739   6.737   3.207
96843SOL    HW292369   6.643   6.842   3.259
96844SOL     OW92370  11.788   4.118   2.101
96844SOL    HW192371  11.807   4.046   2.162
96844SOL    HW292372  11.831   4.194   2.139
96845SOL     OW92373   4.169   6.678  10.402
96845SOL    HW192374   4.203   6.686  10.491
96845SOL    HW292375   4.239   6.710  10.346
96846SOL     OW92376  11.653  10.938   3.973
96846SOL    HW192377  11.563  10.937   3.941
96846SOL    HW292378  11.680  11.030   3.966
96847SOL     OW92379   6.849   3.447   7.340
96847SOL    HW192380   6.899   3.428   7.419
96847SOL    HW292381   6.862   3.541   7.326
96848SOL     OW92382   6.789  10.203   2.671
96848SOL    HW192383   6.804  10.297   2.668
96848SOL    HW292384   6.874  10.166   2.697
96849SOL     OW92385   0.584   8.419   5.534
96849SOL    HW192386   0.555   8.330   5.511
96849SOL    HW292387   0.667   8.429   5.488
96850SOL     OW92388   4.709  12.034   3.244
96850SOL    HW192389   4.622  12.060   3.215
96850SOL    HW292390   4.766  12.050   3.169
96851SOL     OW92391   2.822   4.959   0.123
96851SOL    HW192392   2.737   4.943   0.082
96851SOL    HW292393   2.856   5.036   0.077
96852SOL     OW92394  12.797   6.743  13.049
96852SOL    HW192395  12.722   6.755  13.106
96852SOL    HW292396  12.773   6.788  12.967
96853SOL     OW92397   2.684  13.468   4.205
96853SOL    HW192398   2.775  13.487   4.181
96853SOL    HW292399   2.653  13.549   4.245
96854SOL     OW92400  12.653   2.938  14.503
96854SOL    HW192401  12.690   3.026  14.508
96854SOL    HW292402  12.597   2.932  14.581
96855SOL     OW92403  10.786   2.508   8.518
96855SOL    HW192404  10.707   2.456   8.533
96855SOL    HW292405  10.851   2.469   8.576
96856SOL     OW92406   5.310   8.124   4.086
96856SOL    HW192407   5.358   8.131   4.169
96856SOL    HW292408   5.241   8.060   4.104
96857SOL     OW92409  10.538   5.192  14.166
96857SOL    HW192410  10.513   5.285  14.164
96857SOL    HW292411  10.632   5.193  14.186
96858SOL     OW92412   4.142  12.776  10.172
96858SOL    HW192413   4.095  12.828  10.237
96858SOL    HW292414   4.118  12.686  10.192
96859SOL     OW92415   8.795  12.827  11.873
96859SOL    HW192416   8.774  12.889  11.803
96859SOL    HW292417   8.771  12.872  11.953
96860SOL     OW92418  10.504  14.530   7.046
96860SOL    HW192419  10.439  14.474   7.002
96860SOL    HW292420  10.509  14.496   7.135
96861SOL     OW92421   9.641   8.436   6.188
96861SOL    HW192422   9.559   8.427   6.236
96861SOL    HW292423   9.622   8.399   6.101
96862SOL     OW92424  10.671   3.564   6.027
96862SOL    HW192425  10.683   3.473   6.001
96862SOL    HW292426  10.757   3.592   6.059
96863SOL     OW92427  10.127  12.108   1.586
96863SOL    HW192428  10.146  12.097   1.679
96863SOL    HW292429  10.034  12.131   1.582
96864SOL     OW92430  10.971   4.376   9.812
96864SOL    HW192431  10.964   4.398   9.905
96864SOL    HW292432  10.911   4.304   9.799
96865SOL     OW92433   2.099   9.855   2.515
96865SOL    HW192434   2.026   9.799   2.491
96865SOL    HW292435   2.062   9.918   2.577
96866SOL     OW92436   6.038   2.428   4.541
96866SOL    HW192437   6.097   2.502   4.558
96866SOL    HW292438   5.993   2.452   4.460
96867SOL     OW92439   2.905   2.844   4.935
96867SOL    HW192440   2.935   2.777   4.874
96867SOL    HW292441   2.974   2.848   5.001
96868SOL     OW92442   0.376  12.998  12.610
96868SOL    HW192443   0.308  12.979  12.544
96868SOL    HW292444   0.361  12.933  12.679
96869SOL     OW92445  12.633   3.870   3.235
96869SOL    HW192446  12.618   3.933   3.305
96869SOL    HW292447  12.556   3.814   3.235
96870SOL     OW92448   4.798  10.803  12.344
96870SOL    HW192449   4.771  10.834  12.430
96870SOL    HW292450   4.892  10.789  12.351
96871SOL     OW92451   3.514   3.835   8.376
96871SOL    HW192452   3.606   3.851   8.352
96871SOL    HW292453   3.484   3.919   8.411
96872SOL     OW92454  11.876   0.872   4.278
96872SOL    HW192455  11.823   0.906   4.349
96872SOL    HW292456  11.951   0.831   4.322
96873SOL     OW92457   5.853  12.788   3.229
96873SOL    HW192458   5.757  12.781   3.235
96873SOL    HW292459   5.885  12.743   3.307
96874SOL     OW92460   4.438   6.456   3.584
96874SOL    HW192461   4.364   6.448   3.524
96874SOL    HW292462   4.512   6.478   3.527
96875SOL     OW92463   2.209   7.948   9.729
96875SOL    HW192464   2.120   7.979   9.743
96875SOL    HW292465   2.213   7.928   9.635
96876SOL     OW92466  10.753   0.352   2.479
96876SOL    HW192467  10.671   0.303   2.472
96876SOL    HW292468  10.731   0.429   2.532
96877SOL     OW92469   3.644   6.314   6.321
96877SOL    HW192470   3.576   6.308   6.388
96877SOL    HW292471   3.703   6.382   6.352
96878SOL     OW92472  13.285   7.495  12.313
96878SOL    HW192473  13.305   7.537  12.229
96878SOL    HW292474  13.211   7.546  12.347
96879SOL     OW92475   1.045  11.404  11.791
96879SOL    HW192476   1.052  11.484  11.844
96879SOL    HW292477   0.982  11.427  11.722
96880SOL     OW92478   2.260   6.008   4.901
96880SOL    HW192479   2.350   5.983   4.881
96880SOL    HW292480   2.209   5.973   4.828
96881SOL     OW92481   0.752  10.832   9.689
96881SOL    HW192482   0.673  10.806   9.641
96881SOL    HW292483   0.821  10.836   9.622
96882SOL     OW92484   6.733  12.165   1.268
96882SOL    HW192485   6.827  12.147   1.270
96882SOL    HW292486   6.697  12.112   1.340
96883SOL     OW92487   0.470   9.684   8.982
96883SOL    HW192488   0.377   9.671   8.960
96883SOL    HW292489   0.512   9.603   8.953
96884SOL     OW92490  13.488  11.451  11.117
96884SOL    HW192491  13.478  11.488  11.029
96884SOL    HW292492  13.576  11.474  11.144
96885SOL     OW92493  13.244   2.611   2.549
96885SOL    HW192494  13.332   2.582   2.573
96885SOL    HW292495  13.258   2.668   2.473
96886SOL     OW92496   4.526   2.285   3.472
96886SOL    HW192497   4.613   2.279   3.433
96886SOL    HW292498   4.473   2.331   3.406
96887SOL     OW92499   4.639  11.315   9.516
96887SOL    HW192500   4.642  11.399   9.561
96887SOL    HW292501   4.728  11.280   9.526
96888SOL     OW92502   6.124   7.591   3.557
96888SOL    HW192503   6.072   7.572   3.479
96888SOL    HW292504   6.064   7.636   3.616
96889SOL     OW92505   0.076   1.229   6.164
96889SOL    HW192506   0.154   1.265   6.120
96889SOL    HW292507   0.074   1.274   6.248
96890SOL     OW92508  10.525   2.819   0.052
96890SOL    HW192509  10.612   2.857   0.058
96890SOL    HW292510  10.465   2.894   0.052
96891SOL     OW92511   7.489  12.732  13.526
96891SOL    HW192512   7.554  12.759  13.462
96891SOL    HW292513   7.426  12.679  13.477
96892SOL     OW92514   8.189   9.376   3.176
96892SOL    HW192515   8.138   9.375   3.257
96892SOL    HW292516   8.278   9.397   3.203
96893SOL     OW92517  13.803  13.114  14.238
96893SOL    HW192518  13.888  13.074  14.218
96893SOL    HW292519  13.748  13.041  14.266
96894SOL     OW92520  11.127   6.310   1.296
96894SOL    HW192521  11.038   6.298   1.328
96894SOL    HW292522  11.171   6.228   1.316
96895SOL     OW92523   3.258   0.265  11.811
96895SOL    HW192524   3.211   0.299  11.735
96895SOL    HW292525   3.290   0.179  11.783
96896SOL     OW92526   3.970   1.747   7.598
96896SOL    HW192527   4.009   1.742   7.511
96896SOL    HW292528   3.878   1.770   7.582
96897SOL     OW92529   0.633   0.394   0.352
96897SOL    HW192530   0.714   0.413   0.305
96897SOL    HW292531   0.564   0.417   0.290
96898SOL     OW92532  11.019   6.661  13.602
96898SOL    HW192533  10.931   6.629  13.585
96898SOL    HW292534  11.042   6.627  13.688
96899SOL     OW92535  12.379  13.449  14.772
96899SOL    HW192536  12.428  13.374  14.739
96899SOL    HW292537  12.438  13.523  14.759
96900SOL     OW92538   9.786   0.374   6.560
96900SOL    HW192539   9.781   0.470   6.561
96900SOL    HW292540   9.696   0.345   6.548
96901SOL     OW92541  13.775   1.319   4.860
96901SOL    HW192542  13.753   1.341   4.770
96901SOL    HW292543  13.866   1.347   4.870
96902SOL     OW92544  13.889   5.213  12.014
96902SOL    HW192545  13.796   5.222  12.034
96902SOL    HW292546  13.896   5.126  11.974
96903SOL     OW92547   1.742  14.382   0.925
96903SOL    HW192548   1.733  14.445   0.854
96903SOL    HW292549   1.828  14.342   0.910
96904SOL     OW92550   0.189  14.360   2.822
96904SOL    HW192551   0.145  14.400   2.898
96904SOL    HW292552   0.147  14.400   2.746
96905SOL     OW92553   0.426  12.096  12.722
96905SOL    HW192554   0.448  12.063  12.636
96905SOL    HW292555   0.470  12.037  12.783
96906SOL     OW92556  14.288   1.133   7.510
96906SOL    HW192557  14.316   1.205   7.453
96906SOL    HW292558  14.311   1.163   7.598
96907SOL     OW92559   5.185   4.846  11.380
96907SOL    HW192560   5.155   4.819  11.293
96907SOL    HW292561   5.271   4.884  11.365
96908SOL     OW92562   1.011   1.553   3.253
96908SOL    HW192563   0.925   1.510   3.249
96908SOL    HW292564   0.992   1.645   3.235
96909SOL     OW92565   3.260   9.673   7.619
96909SOL    HW192566   3.188   9.611   7.634
96909SOL    HW292567   3.256   9.733   7.693
96910SOL     OW92568   0.779  13.286  11.964
96910SOL    HW192569   0.792  13.248  12.051
96910SOL    HW292570   0.709  13.350  11.976
96911SOL     OW92571  10.475   3.687   8.229
96911SOL    HW192572  10.495   3.596   8.254
96911SOL    HW292573  10.457   3.730   8.312
96912SOL     OW92574   6.407   8.220   8.804
96912SOL    HW192575   6.418   8.308   8.769
96912SOL    HW292576   6.350   8.231   8.879
96913SOL     OW92577   6.858   1.924   8.526
96913SOL    HW192578   6.856   1.847   8.468
96913SOL    HW292579   6.937   1.913   8.578
96914SOL     OW92580   2.856  13.712   2.613
96914SOL    HW192581   2.876  13.805   2.623
96914SOL    HW292582   2.790  13.695   2.680
96915SOL     OW92583   5.902   6.193   2.877
96915SOL    HW192584   5.960   6.206   2.803
96915SOL    HW292585   5.922   6.266   2.937
96916SOL     OW92586   0.835   6.104   2.316
96916SOL    HW192587   0.921   6.094   2.275
96916SOL    HW292588   0.825   6.199   2.326
96917SOL     OW92589   5.872  14.366  11.076
96917SOL    HW192590   5.788  14.338  11.039
96917SOL    HW292591   5.925  14.390  11.001
96918SOL     OW92592  14.110   0.283   2.700
96918SOL    HW192593  14.017   0.294   2.681
96918SOL    HW292594  14.154   0.341   2.637
96919SOL     OW92595   8.893   1.367  11.892
96919SOL    HW192596   8.988   1.374  11.898
96919SOL    HW292597   8.860   1.451  11.923
96920SOL     OW92598   6.629   8.368   4.552
96920SOL    HW192599   6.656   8.413   4.632
96920SOL    HW292600   6.573   8.297   4.582
96921SOL     OW92601  14.547   6.589   2.872
96921SOL    HW192602  14.530   6.544   2.955
96921SOL    HW292603  14.463   6.629   2.849
96922SOL     OW92604   5.720   4.304   3.538
96922SOL    HW192605   5.693   4.290   3.628
96922SOL    HW292606   5.780   4.379   3.542
96923SOL     OW92607   6.191   7.210   3.502
96923SOL    HW192608   6.116   7.241   3.553
96923SOL    HW292609   6.248   7.287   3.494
96924SOL     OW92610   6.754   2.383   2.211
96924SOL    HW192611   6.724   2.331   2.136
96924SOL    HW292612   6.817   2.445   2.174
96925SOL     OW92613  14.246   2.891   6.706
96925SOL    HW192614  14.328   2.927   6.674
96925SOL    HW292615  14.271   2.809   6.750
96926SOL     OW92616   1.135   3.520  13.696
96926SOL    HW192617   1.147   3.439  13.645
96926SOL    HW292618   1.130   3.490  13.787
96927SOL     OW92619  12.758   2.604   8.195
96927SOL    HW192620  12.852   2.595   8.185
96927SOL    HW292621  12.738   2.691   8.159
96928SOL     OW92622  13.020   5.274   9.446
96928SOL    HW192623  12.956   5.286   9.377
96928SOL    HW292624  13.093   5.229   9.404
96929SOL     OW92625   3.577   0.259   5.407
96929SOL    HW192626   3.524   0.180   5.401
96929SOL    HW292627   3.631   0.247   5.485
96930SOL     OW92628   4.158  14.347   7.594
96930SOL    HW192629   4.086  14.370   7.653
96930SOL    HW292630   4.117  14.342   7.507
96931SOL     OW92631   8.921   7.434   3.961
96931SOL    HW192632   8.942   7.447   4.053
96931SOL    HW292633   9.005   7.420   3.918
96932SOL     OW92634   7.676   2.409  12.665
96932SOL    HW192635   7.718   2.411  12.579
96932SOL    HW292636   7.687   2.319  12.696
96933SOL     OW92637  11.368   8.761  12.419
96933SOL    HW192638  11.296   8.701  12.440
96933SOL    HW292639  11.447   8.714  12.448
96934SOL     OW92640  12.227  10.682  12.853
96934SOL    HW192641  12.270  10.600  12.829
96934SOL    HW292642  12.226  10.733  12.772
96935SOL     OW92643   4.458   3.390  10.577
96935SOL    HW192644   4.417   3.402  10.663
96935SOL    HW292645   4.429   3.304  10.549
96936SOL     OW92646  12.858   4.322  14.676
96936SOL    HW192647  12.791   4.390  14.668
96936SOL    HW292648  12.812   4.241  14.654
96937SOL     OW92649   4.389   2.312   6.352
96937SOL    HW192650   4.356   2.345   6.269
96937SOL    HW292651   4.355   2.222   6.357
96938SOL     OW92652   3.582   6.226   7.875
96938SOL    HW192653   3.585   6.146   7.822
96938SOL    HW292654   3.572   6.296   7.811
96939SOL     OW92655   5.427   1.543   1.951
96939SOL    HW192656   5.382   1.508   1.874
96939SOL    HW292657   5.487   1.609   1.916
96940SOL     OW92658  14.553  11.165   0.938
96940SOL    HW192659  14.522  11.150   0.849
96940SOL    HW292660  14.474  11.162   0.992
96941SOL     OW92661   0.938   2.766   0.128
96941SOL    HW192662   1.019   2.735   0.086
96941SOL    HW292663   0.920   2.849   0.085
96942SOL     OW92664  13.956   4.661   7.143
96942SOL    HW192665  13.932   4.691   7.231
96942SOL    HW292666  13.937   4.737   7.087
96943SOL     OW92667  11.817  11.943  12.781
96943SOL    HW192668  11.786  11.878  12.845
96943SOL    HW292669  11.909  11.921  12.767
96944SOL     OW92670   9.175   9.673   7.386
96944SOL    HW192671   9.117   9.743   7.416
96944SOL    HW292672   9.115   9.607   7.350
96945SOL     OW92673  13.574  13.683   0.813
96945SOL    HW192674  13.607  13.740   0.743
96945SOL    HW292675  13.480  13.679   0.798
96946SOL     OW92676  12.229  12.371  13.606
96946SOL    HW192677  12.199  12.311  13.538
96946SOL    HW292678  12.313  12.404  13.574
96947SOL     OW92679  11.887  11.679   2.220
96947SOL    HW192680  11.825  11.607   2.234
96947SOL    HW292681  11.871  11.738   2.294
96948SOL     OW92682  10.071  12.598   1.158
96948SOL    HW192683  10.024  12.651   1.094
96948SOL    HW292684  10.083  12.657   1.233
96949SOL     OW92685   3.822  14.201   3.916
96949SOL    HW192686   3.885  14.191   3.845
96949SOL    HW292687   3.874  14.226   3.992
96950SOL     OW92688   6.313   7.539   0.686
96950SOL    HW192689   6.256   7.472   0.647
96950SOL    HW292690   6.257   7.616   0.694
96951SOL     OW92691  11.074   3.371   8.825
96951SOL    HW192692  11.014   3.330   8.887
96951SOL    HW292693  11.156   3.379   8.873
96952SOL     OW92694   4.346   0.462   8.506
96952SOL    HW192695   4.424   0.430   8.551
96952SOL    HW292696   4.364   0.449   8.413
96953SOL     OW92697   0.970   3.145   0.161
96953SOL    HW192698   0.998   3.108   0.245
96953SOL    HW292699   0.907   3.082   0.126
96954SOL     OW92700   0.003   7.122   3.804
96954SOL    HW192701   0.011   7.214   3.780
96954SOL    HW292702  14.879   7.122   3.900
96955SOL     OW92703   5.937   0.610   3.997
96955SOL    HW192704   5.987   0.535   4.027
96955SOL    HW292705   5.997   0.684   4.004
96956SOL     OW92706  10.196   6.309  13.417
96956SOL    HW192707  10.192   6.404  13.431
96956SOL    HW292708  10.105   6.280  13.421
96957SOL     OW92709   1.057   0.705   5.842
96957SOL    HW192710   1.127   0.683   5.903
96957SOL    HW292711   0.984   0.733   5.898
96958SOL     OW92712   9.750   6.343  12.677
96958SOL    HW192713   9.834   6.361  12.720
96958SOL    HW292714   9.760   6.256  12.638
96959SOL     OW92715  10.543   2.487   9.654
96959SOL    HW192716  10.573   2.578   9.659
96959SOL    HW292717  10.447   2.494   9.650
96960SOL     OW92718   9.231   8.643   9.888
96960SOL    HW192719   9.240   8.731   9.853
96960SOL    HW292720   9.305   8.632   9.947
96961SOL     OW92721   6.367   2.719   6.373
96961SOL    HW192722   6.342   2.806   6.340
96961SOL    HW292723   6.462   2.719   6.368
96962SOL     OW92724  14.793  13.238   7.331
96962SOL    HW192725  14.795  13.333   7.342
96962SOL    HW292726  14.761  13.225   7.242
96963SOL     OW92727   6.725  11.292  13.351
96963SOL    HW192728   6.748  11.376  13.310
96963SOL    HW292729   6.667  11.250  13.288
96964SOL     OW92730   7.454   1.145  13.836
96964SOL    HW192731   7.488   1.172  13.922
96964SOL    HW292732   7.363   1.121  13.852
96965SOL     OW92733  10.947   8.101   8.466
96965SOL    HW192734  10.852   8.094   8.474
96965SOL    HW292735  10.967   8.054   8.385
96966SOL     OW92736   0.118  12.510   4.607
96966SOL    HW192737   0.088  12.521   4.517
96966SOL    HW292738   0.038  12.495   4.658
96967SOL     OW92739  11.372   6.115   1.235
96967SOL    HW192740  11.338   6.143   1.149
96967SOL    HW292741  11.399   6.024   1.221
96968SOL     OW92742   4.815  13.053   9.509
96968SOL    HW192743   4.807  13.090   9.421
96968SOL    HW292744   4.764  12.971   9.505
96969SOL     OW92745  11.759  13.960  10.025
96969SOL    HW192746  11.673  13.920  10.012
96969SOL    HW292747  11.765  13.971  10.120
96970SOL     OW92748  10.652   0.395  14.269
96970SOL    HW192749  10.693   0.442  14.196
96970SOL    HW292750  10.717   0.330  14.295
96971SOL     OW92751   3.197   6.356   2.373
96971SOL    HW192752   3.178   6.380   2.463
96971SOL    HW292753   3.222   6.263   2.377
96972SOL     OW92754  12.326  13.209  11.250
96972SOL    HW192755  12.239  13.229  11.286
96972SOL    HW292756  12.353  13.290  11.208
96973SOL     OW92757   8.101   2.685   5.828
96973SOL    HW192758   8.022   2.704   5.778
96973SOL    HW292759   8.146   2.769   5.836
96974SOL     OW92760   6.103   5.172   0.724
96974SOL    HW192761   6.158   5.176   0.645
96974SOL    HW292762   6.105   5.261   0.759
96975SOL     OW92763  13.379  12.797   7.715
96975SOL    HW192764  13.327  12.725   7.750
96975SOL    HW292765  13.368  12.868   7.778
96976SOL     OW92766   7.265   9.035   5.093
96976SOL    HW192767   7.340   8.993   5.135
96976SOL    HW292768   7.218   9.077   5.165
96977SOL     OW92769  12.806  10.213   1.189
96977SOL    HW192770  12.879  10.275   1.189
96977SOL    HW292771  12.731  10.264   1.161
96978SOL     OW92772   7.137  14.253   2.039
96978SOL    HW192773   7.055  14.229   2.083
96978SOL    HW292774   7.178  14.315   2.099
96979SOL     OW92775  13.042  11.946  11.335
96979SOL    HW192776  12.987  11.915  11.263
96979SOL    HW292777  12.983  11.995  11.392
96980SOL     OW92778   0.736   4.854  11.777
96980SOL    HW192779   0.794   4.903  11.717
96980SOL    HW292780   0.685   4.798  11.719
96981SOL     OW92781   8.418   0.195  12.960
96981SOL    HW192782   8.459   0.278  12.937
96981SOL    HW292783   8.482   0.129  12.933
96982SOL     OW92784   1.150  12.318  13.008
96982SOL    HW192785   1.172  12.327  12.916
96982SOL    HW292786   1.230  12.342  13.055
96983SOL     OW92787  12.317   5.507   9.023
96983SOL    HW192788  12.226   5.520   8.995
96983SOL    HW292789  12.359   5.463   8.949
96984SOL     OW92790   6.835   7.965   7.872
96984SOL    HW192791   6.854   7.899   7.804
96984SOL    HW292792   6.809   8.043   7.822
96985SOL     OW92793   5.452   3.194   1.039
96985SOL    HW192794   5.409   3.149   0.967
96985SOL    HW292795   5.390   3.189   1.111
96986SOL     OW92796   3.328   6.159   8.921
96986SOL    HW192797   3.402   6.134   8.976
96986SOL    HW292798   3.261   6.190   8.982
96987SOL     OW92799   0.165  12.624   6.722
96987SOL    HW192800   0.250  12.663   6.742
96987SOL    HW292801   0.154  12.554   6.786
96988SOL     OW92802  10.407   9.459   0.090
96988SOL    HW192803  10.321   9.483   0.056
96988SOL    HW292804  10.468   9.517   0.045
96989SOL     OW92805   6.662   0.700   3.279
96989SOL    HW192806   6.751   0.727   3.255
96989SOL    HW292807   6.605   0.746   3.218
96990SOL     OW92808  13.515   3.504  11.439
96990SOL    HW192809  13.512   3.446  11.515
96990SOL    HW292810  13.570   3.458  11.375
96991SOL     OW92811  12.146   9.593   7.953
96991SOL    HW192812  12.196   9.669   7.985
96991SOL    HW292813  12.158   9.594   7.858
96992SOL     OW92814   3.791   0.016   3.228
96992SOL    HW192815   3.714  14.841   3.246
96992SOL    HW292816   3.848   0.002   3.304
96993SOL     OW92817   4.639   8.356   5.359
96993SOL    HW192818   4.666   8.357   5.451
96993SOL    HW292819   4.668   8.440   5.325
96994SOL     OW92820  13.400   6.407   3.285
96994SOL    HW192821  13.420   6.428   3.193
96994SOL    HW292822  13.360   6.320   3.281
96995SOL     OW92823   6.177   2.948   7.303
96995SOL    HW192824   6.266   2.912   7.302
96995SOL    HW292825   6.181   3.021   7.242
96996SOL     OW92826   6.801  12.634   8.771
96996SOL    HW192827   6.860  12.584   8.715
96996SOL    HW292828   6.832  12.724   8.765
96997SOL     OW92829   3.228  10.533   5.775
96997SOL    HW192830   3.134  10.534   5.761
96997SOL    HW292831   3.265  10.506   5.691
96998SOL     OW92832  10.818   5.262  14.217
96998SOL    HW192833  10.832   5.347  14.174
96998SOL    HW292834  10.904   5.237  14.249
96999SOL     OW92835  11.524   7.329   6.410
96999SOL    HW192836  11.591   7.383   6.452
96999SOL    HW292837  11.549   7.325   6.318
97000SOL     OW92838   3.411  13.914  13.707
97000SOL    HW192839   3.498  13.950  13.689
97000SOL    HW292840   3.388  13.866  13.627
97001SOL     OW92841   5.516  11.285   3.962
97001SOL    HW192842   5.552  11.263   4.047
97001SOL    HW292843   5.576  11.245   3.899
97002SOL     OW92844   4.725   8.217   9.930
97002SOL    HW192845   4.718   8.250   9.841
97002SOL    HW292846   4.685   8.130   9.926
97003SOL     OW92847  14.203  12.118   9.297
97003SOL    HW192848  14.134  12.072   9.347
97003SOL    HW292849  14.158  12.192   9.257
97004SOL     OW92850   6.828  12.387   9.887
97004SOL    HW192851   6.752  12.387   9.829
97004SOL    HW292852   6.826  12.473   9.929
97005SOL     OW92853  11.225  13.831   3.062
97005SOL    HW192854  11.202  13.888   2.989
97005SOL    HW292855  11.309  13.793   3.037
97006SOL     OW92856  11.381   0.458   2.257
97006SOL    HW192857  11.427   0.504   2.187
97006SOL    HW292858  11.297   0.503   2.264
97007SOL     OW92859   3.121  13.700   7.238
97007SOL    HW192860   3.206  13.657   7.246
97007SOL    HW292861   3.060  13.629   7.218
97008SOL     OW92862   6.365   0.177   6.992
97008SOL    HW192863   6.340   0.219   7.074
97008SOL    HW292864   6.459   0.162   7.000
97009SOL     OW92865   8.006   8.035   4.015
97009SOL    HW192866   7.977   8.118   3.977
97009SOL    HW292867   7.955   8.026   4.096
97010SOL     OW92868   3.987  13.959  10.050
97010SOL    HW192869   3.955  14.048  10.035
97010SOL    HW292870   3.958  13.938  10.139
97011SOL     OW92871  13.275   6.364   5.290
97011SOL    HW192872  13.304   6.452   5.316
97011SOL    HW292873  13.292   6.360   5.196
97012SOL     OW92874   0.227   2.360   2.894
97012SOL    HW192875   0.149   2.316   2.928
97012SOL    HW292876   0.236   2.327   2.804
97013SOL     OW92877  11.226   4.072  12.991
97013SOL    HW192878  11.141   4.080  13.036
97013SOL    HW292879  11.271   4.002  13.038
97014SOL     OW92880  14.002  13.298  11.189
97014SOL    HW192881  14.085  13.340  11.165
97014SOL    HW292882  14.004  13.296  11.285
97015SOL     OW92883   0.737   1.556  11.641
97015SOL    HW192884   0.762   1.561  11.734
97015SOL    HW292885   0.693   1.639  11.624
97016SOL     OW92886   3.510   6.902   4.841
97016SOL    HW192887   3.510   6.993   4.812
97016SOL    HW292888   3.556   6.904   4.925
97017SOL     OW92889   6.493   6.682   6.698
97017SOL    HW192890   6.527   6.649   6.615
97017SOL    HW292891   6.552   6.753   6.722
97018SOL     OW92892   0.628   0.795  14.243
97018SOL    HW192893   0.624   0.717  14.187
97018SOL    HW292894   0.673   0.764  14.322
97019SOL     OW92895   0.366   5.351   4.214
97019SOL    HW192896   0.299   5.401   4.166
97019SOL    HW292897   0.332   5.262   4.216
97020SOL     OW92898   6.331  13.202   3.848
97020SOL    HW192899   6.321  13.150   3.928
97020SOL    HW292900   6.425  13.217   3.840
97021SOL     OW92901   3.324  13.480  13.811
97021SOL    HW192902   3.347  13.523  13.893
97021SOL    HW292903   3.383  13.518  13.746
97022SOL     OW92904   6.153   5.811   7.733
97022SOL    HW192905   6.107   5.774   7.658
97022SOL    HW292906   6.198   5.888   7.699
97023SOL     OW92907   4.093  10.498   2.227
97023SOL    HW192908   4.032  10.452   2.169
97023SOL    HW292909   4.050  10.498   2.312
97024SOL     OW92910   7.311  13.954   9.397
97024SOL    HW192911   7.400  13.928   9.422
97024SOL    HW292912   7.314  14.050   9.392
97025SOL     OW92913   1.417   4.832  12.978
97025SOL    HW192914   1.445   4.841  12.887
97025SOL    HW292915   1.499   4.827  13.028
97026SOL     OW92916  10.814   9.234   6.673
97026SOL    HW192917  10.907   9.218   6.689
97026SOL    HW292918  10.793   9.310   6.727
97027SOL     OW92919   5.461  14.276   2.826
97027SOL    HW192920   5.503  14.195   2.799
97027SOL    HW292921   5.373  14.271   2.788
97028SOL     OW92922  14.526   7.991   6.407
97028SOL    HW192923  14.481   7.997   6.323
97028SOL    HW292924  14.612   8.031   6.390
97029SOL     OW92925   9.875   5.730   8.272
97029SOL    HW192926   9.914   5.642   8.276
97029SOL    HW292927   9.819   5.735   8.349
97030SOL     OW92928   0.422  13.001   6.023
97030SOL    HW192929   0.342  12.955   5.997
97030SOL    HW292930   0.405  13.093   6.001
97031SOL     OW92931   0.693  12.962   9.447
97031SOL    HW192932   0.746  12.943   9.524
97031SOL    HW292933   0.752  12.948   9.373
97032SOL     OW92934   8.507  13.834   9.387
97032SOL    HW192935   8.526  13.766   9.453
97032SOL    HW292936   8.538  13.915   9.427
97033SOL     OW92937   1.257  13.830   9.750
97033SOL    HW192938   1.230  13.845   9.660
97033SOL    HW292939   1.259  13.734   9.758
97034SOL     OW92940   7.748   6.435   9.024
97034SOL    HW192941   7.687   6.455   8.953
97034SOL    HW292942   7.722   6.493   9.096
97035SOL     OW92943   3.862   8.674   6.363
97035SOL    HW192944   3.797   8.670   6.293
97035SOL    HW292945   3.852   8.762   6.399
97036SOL     OW92946   5.784   7.581   0.353
97036SOL    HW192947   5.847   7.514   0.379
97036SOL    HW292948   5.820   7.617   0.271
97037SOL     OW92949   1.676  14.345  10.425
97037SOL    HW192950   1.603  14.286  10.406
97037SOL    HW292951   1.748  14.314  10.370
97038SOL     OW92952  13.031   7.502   0.902
97038SOL    HW192953  13.065   7.533   0.986
97038SOL    HW292954  12.939   7.484   0.917
97039SOL     OW92955  11.867   5.826   5.540
97039SOL    HW192956  11.890   5.750   5.594
97039SOL    HW292957  11.894   5.802   5.452
97040SOL     OW92958  12.741   3.527  10.768
97040SOL    HW192959  12.726   3.562  10.680
97040SOL    HW292960  12.813   3.581  10.803
97041SOL     OW92961   4.265  12.093  13.818
97041SOL    HW192962   4.349  12.061  13.785
97041SOL    HW292963   4.289  12.159  13.883
97042SOL     OW92964  14.228   9.221   6.281
97042SOL    HW192965  14.311   9.266   6.295
97042SOL    HW292966  14.234   9.142   6.334
97043SOL     OW92967   4.375   5.368  14.157
97043SOL    HW192968   4.450   5.352  14.214
97043SOL    HW292969   4.362   5.285  14.111
97044SOL     OW92970   6.684  14.481   7.074
97044SOL    HW192971   6.711  14.484   6.982
97044SOL    HW292972   6.622  14.408   7.078
97045SOL     OW92973   9.420  11.023   7.456
97045SOL    HW192974   9.409  11.025   7.361
97045SOL    HW292975   9.491  11.085   7.473
97046SOL     OW92976   0.823   1.544  14.181
97046SOL    HW192977   0.862   1.464  14.214
97046SOL    HW292978   0.853   1.612  14.241
97047SOL     OW92979   8.914  12.336   9.861
97047SOL    HW192980   8.942  12.257   9.816
97047SOL    HW292981   8.983  12.400   9.844
97048SOL     OW92982   9.026   7.184   9.702
97048SOL    HW192983   8.955   7.192   9.638
97048SOL    HW292984   8.985   7.208   9.786
97049SOL     OW92985   2.423   0.669  11.804
97049SOL    HW192986   2.368   0.591  11.800
97049SOL    HW292987   2.478   0.656  11.881
97050SOL     OW92988   5.474   2.302   1.469
97050SOL    HW192989   5.544   2.245   1.502
97050SOL    HW292990   5.519   2.364   1.411
97051SOL     OW92991  14.119   6.360   2.017
97051SOL    HW192992  14.121   6.453   2.041
97051SOL    HW292993  14.029   6.333   2.032
97052SOL     OW92994  11.359   3.241  13.464
97052SOL    HW192995  11.266   3.223  13.481
97052SOL    HW292996  11.402   3.228  13.549
97053SOL     OW92997   5.283  14.593   0.291
97053SOL    HW192998   5.378  14.592   0.299
97053SOL    HW292999   5.262  14.683   0.266
97054SOL     OW93000   2.595  11.642   1.703
97054SOL    HW193001   2.605  11.546   1.701
97054SOL    HW293002   2.567  11.664   1.614
97055SOL     OW93003   6.457   1.006   1.145
97055SOL    HW193004   6.464   0.911   1.157
97055SOL    HW293005   6.538   1.041   1.182
97056SOL     OW93006  11.833   7.324   4.305
97056SOL    HW193007  11.761   7.261   4.302
97056SOL    HW293008  11.861   7.324   4.397
97057SOL     OW93009   1.833   9.242  10.522
97057SOL    HW193010   1.770   9.247  10.450
97057SOL    HW293011   1.858   9.150  10.526
97058SOL     OW93012   2.848   4.142  11.875
97058SOL    HW193013   2.935   4.175  11.850
97058SOL    HW293014   2.792   4.162  11.800
97059SOL     OW93015  13.059   4.147   8.063
97059SOL    HW193016  13.135   4.194   8.097
97059SOL    HW293017  13.015   4.210   8.006
97060SOL     OW93018   5.549   3.596   0.303
97060SOL    HW193019   5.475   3.592   0.362
97060SOL    HW293020   5.556   3.689   0.279
97061SOL     OW93021   0.485   3.982  12.045
97061SOL    HW193022   0.516   3.892  12.033
97061SOL    HW293023   0.496   4.023  11.959
97062SOL     OW93024   9.427  14.738   8.388
97062SOL    HW193025   9.363  14.673   8.358
97062SOL    HW293026   9.473  14.695   8.460
97063SOL     OW93027   4.248   5.379   9.748
97063SOL    HW193028   4.174   5.319   9.735
97063SOL    HW293029   4.318   5.323   9.782
97064SOL     OW93030   0.867  12.508   7.093
97064SOL    HW193031   0.956  12.538   7.072
97064SOL    HW293032   0.810  12.565   7.040
97065SOL     OW93033   2.459   2.899   2.321
97065SOL    HW193034   2.396   2.833   2.351
97065SOL    HW293035   2.433   2.917   2.230
97066SOL     OW93036  14.043   2.783  11.625
97066SOL    HW193037  13.997   2.822  11.698
97066SOL    HW293038  14.087   2.706  11.662
97067SOL     OW93039  10.632   1.715   9.344
97067SOL    HW193040  10.619   1.768   9.423
97067SOL    HW293041  10.602   1.771   9.273
97068SOL     OW93042   4.557   0.686   1.090
97068SOL    HW193043   4.642   0.678   1.048
97068SOL    HW293044   4.575   0.674   1.183
97069SOL     OW93045  10.532  10.984   8.343
97069SOL    HW193046  10.532  10.996   8.248
97069SOL    HW293047  10.511  10.891   8.356
97070SOL     OW93048  12.101   0.645  13.143
97070SOL    HW193049  12.072   0.681  13.059
97070SOL    HW293050  12.120   0.722  13.197
97071SOL     OW93051   0.999  10.988   4.647
97071SOL    HW193052   0.994  11.073   4.692
97071SOL    HW293053   0.932  10.993   4.579
97072SOL     OW93054  12.632   1.379   7.697
97072SOL    HW193055  12.637   1.449   7.633
97072SOL    HW293056  12.695   1.404   7.765
97073SOL     OW93057   4.289  10.688   9.907
97073SOL    HW193058   4.240  10.743   9.845
97073SOL    HW293059   4.359  10.746   9.939
97074SOL     OW93060   1.740   5.022   4.866
97074SOL    HW193061   1.756   5.116   4.873
97074SOL    HW293062   1.646   5.016   4.846
97075SOL     OW93063   0.734  13.895   8.696
97075SOL    HW193064   0.779  13.838   8.634
97075SOL    HW293065   0.644  13.900   8.663
97076SOL     OW93066   7.242  11.955   2.201
97076SOL    HW193067   7.191  11.969   2.122
97076SOL    HW293068   7.181  11.914   2.262
97077SOL     OW93069  14.172   5.408   6.622
97077SOL    HW193070  14.088   5.433   6.584
97077SOL    HW293071  14.179   5.314   6.604
97078SOL     OW93072  12.447  12.452   5.366
97078SOL    HW193073  12.446  12.421   5.457
97078SOL    HW293074  12.391  12.530   5.367
97079SOL     OW93075   6.255  10.831  11.042
97079SOL    HW193076   6.191  10.901  11.041
97079SOL    HW293077   6.264  10.804  10.951
97080SOL     OW93078   2.088   6.320   5.399
97080SOL    HW193079   2.155   6.389   5.399
97080SOL    HW293080   2.118   6.259   5.332
97081SOL     OW93081  12.366  10.068  11.472
97081SOL    HW193082  12.444  10.063  11.418
97081SOL    HW293083  12.348   9.978  11.498
97082SOL     OW93084   4.838   2.483  10.904
97082SOL    HW193085   4.783   2.407  10.884
97082SOL    HW293086   4.826   2.541  10.829
97083SOL     OW93087  13.697   3.849  12.546
97083SOL    HW193088  13.756   3.802  12.487
97083SOL    HW293089  13.733   3.832  12.633
97084SOL     OW93090  12.263   0.285  12.045
97084SOL    HW193091  12.235   0.310  11.956
97084SOL    HW293092  12.192   0.229  12.077
97085SOL     OW93093   5.973   9.545   0.420
97085SOL    HW193094   5.881   9.538   0.442
97085SOL    HW293095   5.977   9.531   0.326
97086SOL     OW93096  13.331   6.008   1.006
97086SOL    HW193097  13.331   6.084   0.947
97086SOL    HW293098  13.265   5.950   0.969
97087SOL     OW93099   0.889   5.290   9.534
97087SOL    HW193100   0.981   5.301   9.558
97087SOL    HW293101   0.861   5.378   9.506
97088SOL     OW93102  10.222   4.316   9.827
97088SOL    HW193103  10.229   4.405   9.863
97088SOL    HW293104  10.164   4.326   9.752
97089SOL     OW93105  13.910   5.383   2.825
97089SOL    HW193106  13.979   5.392   2.891
97089SOL    HW293107  13.930   5.300   2.782
97090SOL     OW93108  11.532   5.863   6.428
97090SOL    HW193109  11.441   5.859   6.456
97090SOL    HW293110  11.549   5.956   6.413
97091SOL     OW93111  14.205   8.416   4.405
97091SOL    HW193112  14.240   8.332   4.435
97091SOL    HW293113  14.162   8.396   4.322
97092SOL     OW93114  13.692  10.887   1.190
97092SOL    HW193115  13.677  10.934   1.272
97092SOL    HW293116  13.750  10.815   1.214
97093SOL     OW93117  14.261  12.322  13.937
97093SOL    HW193118  14.321  12.362  14.000
97093SOL    HW293119  14.182  12.302  13.988
97094SOL     OW93120  14.257   0.229   5.221
97094SOL    HW193121  14.289   0.147   5.183
97094SOL    HW293122  14.206   0.270   5.150
97095SOL     OW93123   6.239   4.040   2.070
97095SOL    HW193124   6.299   4.107   2.038
97095SOL    HW293125   6.208   3.995   1.992
97096SOL     OW93126   6.770   2.471  13.366
97096SOL    HW193127   6.704   2.406  13.390
97096SOL    HW293128   6.725   2.530  13.306
97097SOL     OW93129   3.160   0.868   1.881
97097SOL    HW193130   3.219   0.912   1.942
97097SOL    HW293131   3.097   0.823   1.937
97098SOL     OW93132   5.101  13.159   1.568
97098SOL    HW193133   5.159  13.168   1.644
97098SOL    HW293134   5.113  13.069   1.539
97099SOL     OW93135   8.139   1.124   0.456
97099SOL    HW193136   8.072   1.152   0.393
97099SOL    HW293137   8.192   1.061   0.407
97100SOL     OW93138   7.791   3.231   2.772
97100SOL    HW193139   7.877   3.189   2.777
97100SOL    HW293140   7.737   3.169   2.722
97101SOL     OW93141   4.600   5.183   9.643
97101SOL    HW193142   4.575   5.217   9.557
97101SOL    HW293143   4.691   5.209   9.654
97102SOL     OW93144  11.130   6.472  10.827
97102SOL    HW193145  11.154   6.544  10.885
97102SOL    HW293146  11.113   6.513  10.742
97103SOL     OW93147   2.328   5.015  14.147
97103SOL    HW193148   2.421   5.011  14.125
97103SOL    HW293149   2.289   5.068  14.078
97104SOL     OW93150   3.607  14.318   4.638
97104SOL    HW193151   3.615  14.263   4.560
97104SOL    HW293152   3.558  14.395   4.608
97105SOL     OW93153   9.964   4.939   4.069
97105SOL    HW193154   9.900   5.008   4.084
97105SOL    HW293155   9.935   4.867   4.126
97106SOL     OW93156   4.225   0.016   1.555
97106SOL    HW193157   4.318   0.022   1.578
97106SOL    HW293158   4.182   0.082   1.609
97107SOL     OW93159  13.826   5.197   5.546
97107SOL    HW193160  13.784   5.266   5.495
97107SOL    HW293161  13.916   5.228   5.559
97108SOL     OW93162   8.253   8.186  14.370
97108SOL    HW193163   8.244   8.097  14.403
97108SOL    HW293164   8.221   8.241  14.442
97109SOL     OW93165   1.946   6.621   3.823
97109SOL    HW193166   1.979   6.680   3.891
97109SOL    HW293167   1.852   6.613   3.843
97110SOL     OW93168  13.252  10.430   5.822
97110SOL    HW193169  13.333  10.480   5.811
97110SOL    HW293170  13.281  10.342   5.848
97111SOL     OW93171   1.441   9.135  12.495
97111SOL    HW193172   1.383   9.124  12.570
97111SOL    HW293173   1.382   9.131  12.419
97112SOL     OW93174   0.447   4.828   7.025
97112SOL    HW193175   0.458   4.745   7.071
97112SOL    HW293176   0.400   4.884   7.088
97113SOL     OW93177  11.638  10.058   7.501
97113SOL    HW193178  11.683  10.066   7.586
97113SOL    HW293179  11.708  10.067   7.437
97114SOL     OW93180   3.093  13.557  14.244
97114SOL    HW193181   3.003  13.590  14.238
97114SOL    HW293182   3.084  13.464  14.264
97115SOL     OW93183  13.384  12.982   4.549
97115SOL    HW193184  13.435  13.061   4.532
97115SOL    HW293185  13.298  13.001   4.513
97116SOL     OW93186   0.321   4.659   4.246
97116SOL    HW193187   0.276   4.729   4.199
97116SOL    HW293188   0.314   4.583   4.188
97117SOL     OW93189  10.432  14.077   1.559
97117SOL    HW193190  10.396  14.004   1.508
97117SOL    HW293191  10.432  14.150   1.498
97118SOL     OW93192  10.932  14.680   9.035
97118SOL    HW193193  10.904  14.708   8.947
97118SOL    HW293194  10.852  14.683   9.087
97119SOL     OW93195   2.169   9.625   1.097
97119SOL    HW193196   2.187   9.591   1.185
97119SOL    HW293197   2.166   9.547   1.041
97120SOL     OW93198   6.480  14.682  14.854
97120SOL    HW193199   6.431  14.712  14.778
97120SOL    HW293200   6.413  14.659   0.039
97121SOL     OW93201   5.470   4.478   0.855
97121SOL    HW193202   5.375   4.487   0.841
97121SOL    HW293203   5.484   4.510   0.944
97122SOL     OW93204  10.006   3.493  11.377
97122SOL    HW193205   9.973   3.414  11.420
97122SOL    HW293206   9.952   3.502  11.299
97123SOL     OW93207   7.440   4.296   7.248
97123SOL    HW193208   7.355   4.331   7.223
97123SOL    HW293209   7.423   4.242   7.325
97124SOL     OW93210   7.955   5.605   1.862
97124SOL    HW193211   7.993   5.686   1.897
97124SOL    HW293212   7.920   5.630   1.777
97125SOL     OW93213   4.917   0.127   5.845
97125SOL    HW193214   4.983   0.064   5.815
97125SOL    HW293215   4.935   0.139   5.938
97126SOL     OW93216  13.317   5.059   1.900
97126SOL    HW193217  13.313   5.134   1.841
97126SOL    HW293218  13.407   5.028   1.892
97127SOL     OW93219  12.974   0.772   6.075
97127SOL    HW193220  13.024   0.848   6.045
97127SOL    HW293221  12.941   0.732   5.995
97128SOL     OW93222  10.447   8.451   2.172
97128SOL    HW193223  10.512   8.399   2.125
97128SOL    HW293224  10.462   8.541   2.142
97129SOL     OW93225   6.118   8.676   8.218
97129SOL    HW193226   6.148   8.718   8.298
97129SOL    HW293227   6.182   8.703   8.151
97130SOL     OW93228   5.328  11.162   4.134
97130SOL    HW193229   5.398  11.152   4.068
97130SOL    HW293230   5.352  11.100   4.203
97131SOL     OW93231   1.682   5.685   9.224
97131SOL    HW193232   1.688   5.767   9.274
97131SOL    HW293233   1.615   5.634   9.269
97132SOL     OW93234  13.362   8.507   3.129
97132SOL    HW193235  13.272   8.536   3.141
97132SOL    HW293236  13.414   8.588   3.127
97133SOL     OW93237   4.007   6.198   4.437
97133SOL    HW193238   4.032   6.290   4.450
97133SOL    HW293239   3.914   6.195   4.458
97134SOL     OW93240  11.723   7.265   7.809
97134SOL    HW193241  11.672   7.197   7.765
97134SOL    HW293242  11.713   7.342   7.753
97135SOL     OW93243   8.236   1.829   7.116
97135SOL    HW193244   8.323   1.861   7.138
97135SOL    HW293245   8.192   1.904   7.077
97136SOL     OW93246   4.437   1.994  11.200
97136SOL    HW193247   4.457   1.913  11.246
97136SOL    HW293248   4.402   1.966  11.115
97137SOL     OW93249  14.263   5.570   8.139
97137SOL    HW193250  14.305   5.609   8.216
97137SOL    HW293251  14.282   5.631   8.068
97138SOL     OW93252   6.599   6.537   5.693
97138SOL    HW193253   6.596   6.445   5.667
97138SOL    HW293254   6.674   6.573   5.645
97139SOL     OW93255   8.583   4.711  12.716
97139SOL    HW193256   8.502   4.660  12.705
97139SOL    HW293257   8.579   4.744  12.806
97140SOL     OW93258   9.282   3.882   5.074
97140SOL    HW193259   9.358   3.901   5.019
97140SOL    HW293260   9.303   3.919   5.159
97141SOL     OW93261   2.657  10.970   0.649
97141SOL    HW193262   2.603  11.029   0.702
97141SOL    HW293263   2.652  10.886   0.693
97142SOL     OW93264  12.619   1.396  10.030
97142SOL    HW193265  12.595   1.423   9.941
97142SOL    HW293266  12.714   1.386  10.028
97143SOL     OW93267   4.972   6.532  10.462
97143SOL    HW193268   5.012   6.551  10.547
97143SOL    HW293269   4.881   6.510  10.483
97144SOL     OW93270  10.907   9.083   2.780
97144SOL    HW193271  10.925   9.176   2.764
97144SOL    HW293272  10.811   9.077   2.779
97145SOL     OW93273  10.312  12.238   7.434
97145SOL    HW193274  10.262  12.220   7.513
97145SOL    HW293275  10.259  12.202   7.363
97146SOL     OW93276   9.881  13.814   0.756
97146SOL    HW193277   9.886  13.847   0.667
97146SOL    HW293278   9.965  13.838   0.796
97147SOL     OW93279   1.338   6.885   9.996
97147SOL    HW193280   1.416   6.940   9.991
97147SOL    HW293281   1.324   6.856   9.906
97148SOL     OW93282   5.533   6.301  11.418
97148SOL    HW193283   5.577   6.233  11.469
97148SOL    HW293284   5.481   6.252  11.354
97149SOL     OW93285   3.304   8.777   4.572
97149SOL    HW193286   3.312   8.683   4.583
97149SOL    HW293287   3.253   8.805   4.648
97150SOL     OW93288  14.760  11.632  10.550
97150SOL    HW193289  14.714  11.548  10.556
97150SOL    HW293290  14.803  11.630  10.465
97151SOL     OW93291  12.406   6.563   6.292
97151SOL    HW193292  12.346   6.636   6.275
97151SOL    HW293293  12.493   6.601   6.283
97152SOL     OW93294  10.894  13.555   1.367
97152SOL    HW193295  10.882  13.462   1.387
97152SOL    HW293296  10.843  13.601   1.435
97153SOL     OW93297   4.154   2.073   1.014
97153SOL    HW193298   4.232   2.127   1.014
97153SOL    HW293299   4.161   2.021   0.934
97154SOL     OW93300  11.465  12.566   9.067
97154SOL    HW193301  11.513  12.512   9.129
97154SOL    HW293302  11.463  12.653   9.107
97155SOL     OW93303  13.444   9.974   7.667
97155SOL    HW193304  13.350   9.985   7.658
97155SOL    HW293305  13.473   9.941   7.582
97156SOL     OW93306   2.274   3.806   8.466
97156SOL    HW193307   2.233   3.866   8.528
97156SOL    HW293308   2.367   3.828   8.468
97157SOL     OW93309   1.796   6.600   9.277
97157SOL    HW193310   1.831   6.686   9.299
97157SOL    HW293311   1.708   6.617   9.244
97158SOL     OW93312   3.083  13.545  11.346
97158SOL    HW193313   3.065  13.635  11.322
97158SOL    HW293314   3.170  13.527  11.310
97159SOL     OW93315  12.426   2.407  11.843
97159SOL    HW193316  12.451   2.465  11.771
97159SOL    HW293317  12.445   2.458  11.922
97160SOL     OW93318  11.329   0.331   4.803
97160SOL    HW193319  11.317   0.391   4.729
97160SOL    HW293320  11.341   0.245   4.763
97161SOL     OW93321   9.092   2.403   4.880
97161SOL    HW193322   9.160   2.356   4.832
97161SOL    HW293323   9.015   2.347   4.872
97162SOL     OW93324  10.402   1.034   0.555
97162SOL    HW193325  10.395   0.956   0.609
97162SOL    HW293326  10.440   1.100   0.613
97163SOL     OW93327   9.162   2.700  10.155
97163SOL    HW193328   9.243   2.686  10.106
97163SOL    HW293329   9.096   2.717  10.087
97164SOL     OW93330  14.553  13.420   1.669
97164SOL    HW193331  14.470  13.427   1.623
97164SOL    HW293332  14.528  13.401   1.760
97165SOL     OW93333   3.290   8.929   2.242
97165SOL    HW193334   3.347   8.909   2.167
97165SOL    HW293335   3.221   8.985   2.205
97166SOL     OW93336  11.351  14.230   3.693
97166SOL    HW193337  11.413  14.303   3.686
97166SOL    HW293338  11.393  14.159   3.644
97167SOL     OW93339   2.655   8.421  11.868
97167SOL    HW193340   2.683   8.369  11.793
97167SOL    HW293341   2.701   8.504  11.858
97168SOL     OW93342   3.842  13.151  13.382
97168SOL    HW193343   3.750  13.148  13.408
97168SOL    HW293344   3.878  13.226  13.430
97169SOL     OW93345   8.932   9.061   6.030
97169SOL    HW193346   8.874   9.095   5.962
97169SOL    HW293347   8.981   9.138   6.060
97170SOL     OW93348  12.072  10.022  14.338
97170SOL    HW193349  12.049   9.954  14.274
97170SOL    HW293350  12.046  10.104  14.297
97171SOL     OW93351   4.041   5.420   2.655
97171SOL    HW193352   4.114   5.426   2.717
97171SOL    HW293353   4.071   5.469   2.578
97172SOL     OW93354   0.309   3.722   8.424
97172SOL    HW193355   0.310   3.817   8.431
97172SOL    HW293356   0.287   3.704   8.333
97173SOL     OW93357  12.730   7.256  10.459
97173SOL    HW193358  12.697   7.170  10.432
97173SOL    HW293359  12.811   7.267  10.409
97174SOL     OW93360   3.092   3.476   2.351
97174SOL    HW193361   3.168   3.473   2.409
97174SOL    HW293362   3.128   3.490   2.264
97175SOL     OW93363  11.174   5.642   4.120
97175SOL    HW193364  11.184   5.571   4.057
97175SOL    HW293365  11.129   5.601   4.194
97176SOL     OW93366   9.431   6.026  11.136
97176SOL    HW193367   9.496   6.096  11.129
97176SOL    HW293368   9.450   5.984  11.219
97177SOL     OW93369   6.450  11.380   7.246
97177SOL    HW193370   6.514  11.309   7.249
97177SOL    HW293371   6.368  11.340   7.274
97178SOL     OW93372   1.498  14.800  10.617
97178SOL    HW193373   1.448  14.823  10.538
97178SOL    HW293374   1.551  14.724  10.590
97179SOL     OW93375   6.132  13.749   0.657
97179SOL    HW193376   6.208  13.709   0.700
97179SOL    HW293377   6.152  13.842   0.655
97180SOL     OW93378   7.550   1.201   0.492
97180SOL    HW193379   7.470   1.151   0.510
97180SOL    HW293380   7.614   1.167   0.554
97181SOL     OW93381   2.236  12.755   2.303
97181SOL    HW193382   2.326  12.779   2.279
97181SOL    HW293383   2.240  12.741   2.398
97182SOL     OW93384  10.031   7.221   6.427
97182SOL    HW193385  10.025   7.206   6.333
97182SOL    HW293386   9.961   7.283   6.447
97183SOL     OW93387   6.258  14.023   4.955
97183SOL    HW193388   6.193  14.089   4.934
97183SOL    HW293389   6.340  14.071   4.966
97184SOL     OW93390  12.669   4.638   9.197
97184SOL    HW193391  12.578   4.668   9.190
97184SOL    HW293392  12.663   4.550   9.233
97185SOL     OW93393   0.261   8.674   5.812
97185SOL    HW193394   0.231   8.671   5.721
97185SOL    HW293395   0.354   8.695   5.806
97186SOL     OW93396   5.954   3.825  11.188
97186SOL    HW193397   6.023   3.801  11.126
97186SOL    HW293398   5.986   3.904  11.231
97187SOL     OW93399   6.664  10.341  12.682
97187SOL    HW193400   6.644  10.251  12.707
97187SOL    HW293401   6.748  10.359  12.724
97188SOL     OW93402   3.965   5.577   4.190
97188SOL    HW193403   3.963   5.483   4.209
97188SOL    HW293404   4.057   5.600   4.191
97189SOL     OW93405   7.941   4.831   5.388
97189SOL    HW193406   7.870   4.838   5.452
97189SOL    HW293407   7.905   4.872   5.309
97190SOL     OW93408   5.258   8.709   0.446
97190SOL    HW193409   5.352   8.700   0.435
97190SOL    HW293410   5.226   8.620   0.456
97191SOL     OW93411  13.875   5.323   4.850
97191SOL    HW193412  13.856   5.408   4.810
97191SOL    HW293413  13.792   5.275   4.844
97192SOL     OW93414   3.432  10.132   1.250
97192SOL    HW193415   3.353  10.138   1.195
97192SOL    HW293416   3.418  10.055   1.304
97193SOL     OW93417   8.168  11.694   4.218
97193SOL    HW193418   8.181  11.681   4.124
97193SOL    HW293419   8.086  11.744   4.224
97194SOL     OW93420   8.171   3.474   7.338
97194SOL    HW193421   8.219   3.471   7.421
97194SOL    HW293422   8.235   3.447   7.272
97195SOL     OW93423  13.017  11.875   6.235
97195SOL    HW193424  12.995  11.783   6.249
97195SOL    HW293425  13.052  11.877   6.145
97196SOL     OW93426   3.491  13.939   6.570
97196SOL    HW193427   3.536  13.991   6.637
97196SOL    HW293428   3.552  13.936   6.497
97197SOL     OW93429   1.271   1.972   2.512
97197SOL    HW193430   1.191   1.947   2.559
97197SOL    HW293431   1.265   2.067   2.503
97198SOL     OW93432  13.757  12.895  10.780
97198SOL    HW193433  13.744  12.926  10.690
97198SOL    HW293434  13.677  12.922  10.826
97199SOL     OW93435   9.591   2.525  13.727
97199SOL    HW193436   9.567   2.452  13.671
97199SOL    HW293437   9.574   2.494  13.816
97200SOL     OW93438  14.508   4.522   0.635
97200SOL    HW193439  14.597   4.546   0.661
97200SOL    HW293440  14.520   4.474   0.553
97201SOL     OW93441   2.729   9.359  14.529
97201SOL    HW193442   2.734   9.407  14.447
97201SOL    HW293443   2.722   9.426  14.597
97202SOL     OW93444  13.413  11.993   1.247
97202SOL    HW193445  13.349  12.065   1.246
97202SOL    HW293446  13.385  11.936   1.176
97203SOL     OW93447   1.434   1.782  12.749
97203SOL    HW193448   1.443   1.722  12.675
97203SOL    HW293449   1.452   1.729  12.826
97204SOL     OW93450  10.249  11.077  10.809
97204SOL    HW193451  10.333  11.082  10.855
97204SOL    HW293452  10.214  11.166  10.813
97205SOL     OW93453   6.178   0.527  10.813
97205SOL    HW193454   6.107   0.504  10.753
97205SOL    HW293455   6.185   0.451  10.871
97206SOL     OW93456   4.153  14.544   7.348
97206SOL    HW193457   4.087  14.591   7.297
97206SOL    HW293458   4.236  14.562   7.304
97207SOL     OW93459  10.600  11.885  10.345
97207SOL    HW193460  10.622  11.906  10.255
97207SOL    HW293461  10.548  11.805  10.340
97208SOL     OW93462   6.870   6.675  11.873
97208SOL    HW193463   6.919   6.622  11.936
97208SOL    HW293464   6.832   6.746  11.925
97209SOL     OW93465   0.692  11.605   0.119
97209SOL    HW193466   0.645  11.605   0.202
97209SOL    HW293467   0.626  11.624   0.053
97210SOL     OW93468   2.581  10.657   5.771
97210SOL    HW193469   2.616  10.599   5.838
97210SOL    HW293470   2.537  10.599   5.709
97211SOL     OW93471  12.738  14.102   8.787
97211SOL    HW193472  12.719  14.195   8.775
97211SOL    HW293473  12.692  14.059   8.715
97212SOL     OW93474   0.166   8.227   9.542
97212SOL    HW193475   0.107   8.263   9.476
97212SOL    HW293476   0.252   8.227   9.499
97213SOL     OW93477   5.931  12.454  10.324
97213SOL    HW193478   5.933  12.469  10.419
97213SOL    HW293479   5.884  12.371  10.314
97214SOL     OW93480   8.665   7.980   4.165
97214SOL    HW193481   8.718   7.925   4.222
97214SOL    HW293482   8.727   8.043   4.129
97215SOL     OW93483   8.175  12.584   0.166
97215SOL    HW193484   8.248  12.618   0.218
97215SOL    HW293485   8.199  12.493   0.149
97216SOL     OW93486   8.161  10.205   8.515
97216SOL    HW193487   8.232  10.150   8.480
97216SOL    HW293488   8.082  10.169   8.475
97217SOL     OW93489   4.092   5.099  10.433
97217SOL    HW193490   4.109   5.184  10.474
97217SOL    HW293491   4.030   5.119  10.363
97218SOL     OW93492   7.235  12.768   9.807
97218SOL    HW193493   7.331  12.765   9.804
97218SOL    HW293494   7.213  12.743   9.896
97219SOL     OW93495   8.768   9.012   0.804
97219SOL    HW193496   8.735   8.954   0.872
97219SOL    HW293497   8.698   9.014   0.738
97220SOL     OW93498   0.872   0.381   9.534
97220SOL    HW193499   0.892   0.362   9.443
97220SOL    HW293500   0.778   0.399   9.534
97221SOL     OW93501   3.895  11.382  13.325
97221SOL    HW193502   3.988  11.362  13.334
97221SOL    HW293503   3.883  11.399  13.232
97222SOL     OW93504  12.430   6.496  10.477
97222SOL    HW193505  12.489   6.524  10.547
97222SOL    HW293506  12.466   6.411  10.449
97223SOL     OW93507   9.999  12.976   5.858
97223SOL    HW193508  10.070  12.990   5.796
97223SOL    HW293509  10.041  12.984   5.944
97224SOL     OW93510   8.089  12.955   6.192
97224SOL    HW193511   8.016  12.895   6.179
97224SOL    HW293512   8.115  12.942   6.283
97225SOL     OW93513   5.641   6.287   3.075
97225SOL    HW193514   5.721   6.314   3.030
97225SOL    HW293515   5.586   6.365   3.076
97226SOL     OW93516   0.477   8.685   7.158
97226SOL    HW193517   0.541   8.709   7.091
97226SOL    HW293518   0.472   8.590   7.154
97227SOL     OW93519   6.553   2.989   2.317
97227SOL    HW193520   6.468   3.010   2.355
97227SOL    HW293521   6.606   3.067   2.332
97228SOL     OW93522   1.361  11.743  14.416
97228SOL    HW193523   1.347  11.757  14.323
97228SOL    HW293524   1.404  11.823  14.447
97229SOL     OW93525   0.168   7.025   2.728
97229SOL    HW193526   0.102   7.021   2.797
97229SOL    HW293527   0.176   7.117   2.706
97230SOL     OW93528   2.848   3.762   8.710
97230SOL    HW193529   2.833   3.853   8.737
97230SOL    HW293530   2.943   3.753   8.707
97231SOL     OW93531  14.683  13.825   2.312
97231SOL    HW193532  14.687  13.916   2.283
97231SOL    HW293533  14.731  13.776   2.245
97232SOL     OW93534  12.093  12.095  13.644
97232SOL    HW193535  12.070  12.107  13.552
97232SOL    HW293536  12.075  12.181  13.684
97233SOL     OW93537   9.098  14.722   6.893
97233SOL    HW193538   9.042  14.710   6.969
97233SOL    HW293539   9.168  14.780   6.924
97234SOL     OW93540   0.788   1.696   0.371
97234SOL    HW193541   0.727   1.689   0.298
97234SOL    HW293542   0.871   1.662   0.336
97235SOL     OW93543   2.922   8.313   3.587
97235SOL    HW193544   2.963   8.397   3.610
97235SOL    HW293545   2.933   8.307   3.492
97236SOL     OW93546   7.124   1.908   4.627
97236SOL    HW193547   7.214   1.922   4.597
97236SOL    HW293548   7.090   1.995   4.644
97237SOL     OW93549  11.613   1.167  13.194
97237SOL    HW193550  11.608   1.072  13.184
97237SOL    HW293551  11.524   1.193  13.218
97238SOL     OW93552   5.019   8.399   0.730
97238SOL    HW193553   5.076   8.336   0.775
97238SOL    HW293554   4.933   8.384   0.768
97239SOL     OW93555  11.258   0.229  13.129
97239SOL    HW193556  11.182   0.242  13.186
97239SOL    HW293557  11.324   0.289  13.163
97240SOL     OW93558   4.392   0.440  10.295
97240SOL    HW193559   4.471   0.389  10.278
97240SOL    HW293560   4.325   0.375  10.314
97241SOL     OW93561   1.970   3.919   5.638
97241SOL    HW193562   2.011   3.879   5.561
97241SOL    HW293563   2.041   3.922   5.703
97242SOL     OW93564  14.654   5.922  11.846
97242SOL    HW193565  14.749   5.923  11.860
97242SOL    HW293566  14.632   5.829  11.840
97243SOL     OW93567   4.931   3.703  11.548
97243SOL    HW193568   5.012   3.655  11.566
97243SOL    HW293569   4.881   3.645  11.491
97244SOL     OW93570  14.298   4.886  10.294
97244SOL    HW193571  14.377   4.918  10.250
97244SOL    HW293572  14.324   4.875  10.386
97245SOL     OW93573   3.902   7.247   9.316
97245SOL    HW193574   3.897   7.343   9.316
97245SOL    HW293575   3.828   7.219   9.368
97246SOL     OW93576   9.799  11.181   4.552
97246SOL    HW193577   9.778  11.271   4.528
97246SOL    HW293578   9.717  11.146   4.589
97247SOL     OW93579  10.862   5.153   4.290
97247SOL    HW193580  10.916   5.230   4.273
97247SOL    HW293581  10.894   5.119   4.373
97248SOL     OW93582   0.471   8.884   4.286
97248SOL    HW193583   0.385   8.846   4.270
97248SOL    HW293584   0.454   8.977   4.300
97249SOL     OW93585   1.678  12.373   4.959
97249SOL    HW193586   1.764  12.333   4.954
97249SOL    HW293587   1.669  12.399   5.051
97250SOL     OW93588   4.287   6.728   2.658
97250SOL    HW193589   4.330   6.689   2.581
97250SOL    HW293590   4.293   6.661   2.726
97251SOL     OW93591  14.112   5.096   7.938
97251SOL    HW193592  14.022   5.107   7.910
97251SOL    HW293593  14.155   5.051   7.865
97252SOL     OW93594   3.008   2.669   4.784
97252SOL    HW193595   3.050   2.678   4.699
97252SOL    HW293596   3.071   2.621   4.837
97253SOL     OW93597   2.632  14.183   3.121
97253SOL    HW193598   2.722  14.208   3.100
97253SOL    HW293599   2.619  14.099   3.078
97254SOL     OW93600   7.073   6.296   9.629
97254SOL    HW193601   7.110   6.233   9.691
97254SOL    HW293602   7.147   6.349   9.600
97255SOL     OW93603  11.865   1.161   3.700
97255SOL    HW193604  11.926   1.136   3.631
97255SOL    HW293605  11.780   1.128   3.671
97256SOL     OW93606  14.466  10.778   0.941
97256SOL    HW193607  14.408  10.854   0.942
97256SOL    HW293608  14.473  10.754   0.849
97257SOL     OW93609   6.045  10.221   5.004
97257SOL    HW193610   6.130  10.256   4.977
97257SOL    HW293611   6.065  10.137   5.044
97258SOL     OW93612   7.558  12.250   7.038
97258SOL    HW193613   7.542  12.175   6.980
97258SOL    HW293614   7.486  12.310   7.020
97259SOL     OW93615   7.123  11.909   5.216
97259SOL    HW193616   7.172  11.986   5.188
97259SOL    HW293617   7.171  11.876   5.292
97260SOL     OW93618   9.063   1.501   9.320
97260SOL    HW193619   9.125   1.502   9.247
97260SOL    HW293620   8.981   1.473   9.282
97261SOL     OW93621   2.722   2.109   4.172
97261SOL    HW193622   2.723   2.065   4.256
97261SOL    HW293623   2.813   2.113   4.145
97262SOL     OW93624  12.246   7.758  13.493
97262SOL    HW193625  12.233   7.756  13.399
97262SOL    HW293626  12.158   7.770  13.529
97263SOL     OW93627   4.757   9.754  12.924
97263SOL    HW193628   4.783   9.686  12.986
97263SOL    HW293629   4.839   9.777  12.879
97264SOL     OW93630   4.500  14.782  10.035
97264SOL    HW193631   4.407  14.801  10.044
97264SOL    HW293632   4.529  14.760  10.124
97265SOL     OW93633   4.648   6.938  11.548
97265SOL    HW193634   4.612   7.027  11.550
97265SOL    HW293635   4.667   6.922  11.455
97266SOL     OW93636  10.262  13.206   6.368
97266SOL    HW193637  10.325  13.137   6.389
97266SOL    HW293638  10.291  13.281   6.419
97267SOL     OW93639   5.205   7.356   7.330
97267SOL    HW193640   5.136   7.292   7.344
97267SOL    HW293641   5.180   7.430   7.386
97268SOL     OW93642  13.555   7.949   9.513
97268SOL    HW193643  13.593   8.004   9.444
97268SOL    HW293644  13.624   7.887   9.535
97269SOL     OW93645   2.677   9.058  12.883
97269SOL    HW193646   2.662   9.072  12.976
97269SOL    HW293647   2.700   8.965  12.876
97270SOL     OW93648   2.515  10.542   3.600
97270SOL    HW193649   2.473  10.504   3.677
97270SOL    HW293650   2.548  10.467   3.550
97271SOL     OW93651   6.238   9.355  11.184
97271SOL    HW193652   6.225   9.357  11.090
97271SOL    HW293653   6.167   9.300  11.217
97272SOL     OW93654   1.355   8.191  12.264
97272SOL    HW193655   1.363   8.179  12.359
97272SOL    HW293656   1.263   8.210  12.250
97273SOL     OW93657   7.822   4.286  11.676
97273SOL    HW193658   7.799   4.295  11.768
97273SOL    HW293659   7.806   4.194  11.655
97274SOL     OW93660   4.025   1.404   3.160
97274SOL    HW193661   4.113   1.438   3.148
97274SOL    HW293662   4.016   1.394   3.255
97275SOL     OW93663  14.173   5.042   8.215
97275SOL    HW193664  14.184   4.952   8.185
97275SOL    HW293665  14.159   5.092   8.135
97276SOL     OW93666  12.310  10.703   0.675
97276SOL    HW193667  12.363  10.643   0.623
97276SOL    HW293668  12.373  10.769   0.706
97277SOL     OW93669   1.820   1.194   9.019
97277SOL    HW193670   1.862   1.197   8.933
97277SOL    HW293671   1.888   1.223   9.079
97278SOL     OW93672   4.335   8.373  11.727
97278SOL    HW193673   4.397   8.300  11.726
97278SOL    HW293674   4.341   8.409  11.816
97279SOL     OW93675   6.248   9.189   3.994
97279SOL    HW193676   6.265   9.118   4.056
97279SOL    HW293677   6.213   9.260   4.047
97280SOL     OW93678   7.337   3.587   4.740
97280SOL    HW193679   7.365   3.560   4.653
97280SOL    HW293680   7.270   3.524   4.765
97281SOL     OW93681   8.395   0.486  10.137
97281SOL    HW193682   8.312   0.472  10.093
97281SOL    HW293683   8.461   0.447  10.079
97282SOL     OW93684   5.412   8.794  12.256
97282SOL    HW193685   5.386   8.711  12.297
97282SOL    HW293686   5.448   8.768  12.171
97283SOL     OW93687   1.019  12.335   5.925
97283SOL    HW193688   1.048  12.337   6.016
97283SOL    HW293689   0.933  12.294   5.928
97284SOL     OW93690  14.122   7.864   7.342
97284SOL    HW193691  14.144   7.819   7.424
97284SOL    HW293692  14.064   7.935   7.369
97285SOL     OW93693  10.342   3.903  12.727
97285SOL    HW193694  10.293   3.919  12.809
97285SOL    HW293695  10.381   3.816  12.739
97286SOL     OW93696  10.123   9.751   2.561
97286SOL    HW193697  10.184   9.721   2.495
97286SOL    HW293698  10.044   9.698   2.547
97287SOL     OW93699   2.393   8.255   4.823
97287SOL    HW193700   2.362   8.288   4.739
97287SOL    HW293701   2.476   8.300   4.838
97288SOL     OW93702   7.694   4.038   1.362
97288SOL    HW193703   7.598   4.038   1.359
97288SOL    HW293704   7.717   3.957   1.408
97289SOL     OW93705  13.119   4.804  11.386
97289SOL    HW193706  13.146   4.894  11.406
97289SOL    HW293707  13.180   4.775  11.318
97290SOL     OW93708  11.205   2.444   4.156
97290SOL    HW193709  11.217   2.388   4.079
97290SOL    HW293710  11.291   2.481   4.173
97291SOL     OW93711   6.011  10.407  11.149
97291SOL    HW193712   6.094  10.376  11.113
97291SOL    HW293713   5.955  10.329  11.149
97292SOL     OW93714   9.050  12.151   5.398
97292SOL    HW193715   9.078  12.087   5.463
97292SOL    HW293716   8.963  12.178   5.427
97293SOL     OW93717   7.044   1.510   8.328
97293SOL    HW193718   7.081   1.485   8.413
97293SOL    HW293719   7.035   1.428   8.280
97294SOL     OW93720  12.230  12.630  10.249
97294SOL    HW193721  12.207  12.709  10.200
97294SOL    HW293722  12.204  12.649  10.339
97295SOL     OW93723   5.592   8.862  14.358
97295SOL    HW193724   5.667   8.919  14.376
97295SOL    HW293725   5.618   8.813  14.280
97296SOL     OW93726  13.657   1.001   8.387
97296SOL    HW193727  13.652   0.915   8.429
97296SOL    HW293728  13.712   0.987   8.310
97297SOL     OW93729   0.548   1.287   9.566
97297SOL    HW193730   0.530   1.235   9.644
97297SOL    HW293731   0.611   1.353   9.596
97298SOL     OW93732   6.437  13.688  14.252
97298SOL    HW193733   6.474  13.647  14.331
97298SOL    HW293734   6.363  13.632  14.229
97299SOL     OW93735   6.325   4.458   0.758
97299SOL    HW193736   6.246   4.407   0.772
97299SOL    HW293737   6.303   4.546   0.789
97300SOL     OW93738   9.617   9.826   7.222
97300SOL    HW193739   9.568   9.753   7.261
97300SOL    HW293740   9.600   9.900   7.280
97301SOL     OW93741   0.819  14.801  14.872
97301SOL    HW193742   0.910  14.811   0.021
97301SOL    HW293743   0.770  14.862   0.048
97302SOL     OW93744  10.011  13.077   0.401
97302SOL    HW193745   9.983  13.081   0.493
97302SOL    HW293746  10.073  13.005   0.398
97303SOL     OW93747   4.226   3.495  12.755
97303SOL    HW193748   4.306   3.496  12.807
97303SOL    HW293749   4.180   3.416  12.782
97304SOL     OW93750   0.194   5.419   5.836
97304SOL    HW193751   0.261   5.352   5.852
97304SOL    HW293752   0.217   5.456   5.751
97305SOL     OW93753   3.583   4.889   1.532
97305SOL    HW193754   3.670   4.876   1.496
97305SOL    HW293755   3.551   4.969   1.491
97306SOL     OW93756  11.066   7.873   0.985
97306SOL    HW193757  11.027   7.825   0.912
97306SOL    HW293758  11.078   7.962   0.953
97307SOL     OW93759  12.141   9.565  12.842
97307SOL    HW193760  12.215   9.546  12.900
97307SOL    HW293761  12.064   9.544  12.894
97308SOL     OW93762   5.815   8.489   4.163
97308SOL    HW193763   5.732   8.456   4.129
97308SOL    HW293764   5.874   8.414   4.158
97309SOL     OW93765  11.539   3.532  13.842
97309SOL    HW193766  11.495   3.557  13.923
97309SOL    HW293767  11.632   3.525  13.867
97310SOL     OW93768  12.694   1.610   2.333
97310SOL    HW193769  12.761   1.567   2.387
97310SOL    HW293770  12.726   1.600   2.244
97311SOL     OW93771   4.659  13.300   3.322
97311SOL    HW193772   4.755  13.308   3.319
97311SOL    HW293773   4.627  13.370   3.265
97312SOL     OW93774   1.451  11.426   8.135
97312SOL    HW193775   1.477  11.504   8.087
97312SOL    HW293776   1.362  11.445   8.165
97313SOL     OW93777  11.887   6.942  10.243
97313SOL    HW193778  11.958   6.962  10.304
97313SOL    HW293779  11.808   6.942  10.298
97314SOL     OW93780   2.962   6.168   0.397
97314SOL    HW193781   3.003   6.173   0.483
97314SOL    HW293782   2.924   6.080   0.394
97315SOL     OW93783   1.469  13.162  10.357
97315SOL    HW193784   1.414  13.179  10.434
97315SOL    HW293785   1.556  13.149  10.393
97316SOL     OW93786   4.849   1.404   1.738
97316SOL    HW193787   4.757   1.427   1.723
97316SOL    HW293788   4.895   1.442   1.664
97317SOL     OW93789  10.994   2.877   7.874
97317SOL    HW193790  10.980   2.966   7.905
97317SOL    HW293791  11.025   2.888   7.784
97318SOL     OW93792   1.579   1.223  12.652
97318SOL    HW193793   1.671   1.215  12.678
97318SOL    HW293794   1.562   1.143  12.602
97319SOL     OW93795   6.260  13.323  11.580
97319SOL    HW193796   6.210  13.306  11.661
97319SOL    HW293797   6.351  13.325  11.608
97320SOL     OW93798  10.714   2.480   3.135
97320SOL    HW193799  10.707   2.532   3.215
97320SOL    HW293800  10.753   2.397   3.165
97321SOL     OW93801   4.936   3.829   0.848
97321SOL    HW193802   4.937   3.868   0.935
97321SOL    HW293803   5.025   3.795   0.837
97322SOL     OW93804   7.489  13.508  13.373
97322SOL    HW193805   7.512  13.425  13.415
97322SOL    HW293806   7.573  13.542  13.340
97323SOL     OW93807   2.857   9.352  10.591
97323SOL    HW193808   2.926   9.333  10.655
97323SOL    HW293809   2.816   9.433  10.623
97324SOL     OW93810  14.532   2.304   8.031
97324SOL    HW193811  14.536   2.326   8.124
97324SOL    HW293812  14.474   2.370   7.994
97325SOL     OW93813   1.220   5.920  13.110
97325SOL    HW193814   1.255   5.840  13.149
97325SOL    HW293815   1.126   5.911  13.119
97326SOL     OW93816   1.176   6.867   0.233
97326SOL    HW193817   1.140   6.847   0.146
97326SOL    HW293818   1.169   6.784   0.281
97327SOL     OW93819   6.281   0.623   2.949
97327SOL    HW193820   6.289   0.717   2.960
97327SOL    HW293821   6.220   0.595   3.018
97328SOL     OW93822   1.984  14.872   5.032
97328SOL    HW193823   1.926  14.868   4.955
97328SOL    HW293824   1.997  14.780   5.057
97329SOL     OW93825  10.809  13.085  11.124
97329SOL    HW193826  10.729  13.138  11.113
97329SOL    HW293827  10.784  12.998  11.093
97330SOL     OW93828   5.648   6.805   5.135
97330SOL    HW193829   5.679   6.757   5.213
97330SOL    HW293830   5.579   6.862   5.168
97331SOL     OW93831  10.447   1.935  11.393
97331SOL    HW193832  10.475   1.891  11.312
97331SOL    HW293833  10.358   1.964  11.375
97332SOL     OW93834   6.538   2.758   9.852
97332SOL    HW193835   6.612   2.759   9.790
97332SOL    HW293836   6.495   2.842   9.838
97333SOL     OW93837   1.549  14.635   7.799
97333SOL    HW193838   1.634  14.675   7.778
97333SOL    HW293839   1.500  14.705   7.843
97334SOL     OW93840   2.165   3.034  12.950
97334SOL    HW193841   2.177   3.120  12.991
97334SOL    HW293842   2.140   3.055  12.860
97335SOL     OW93843  12.394   0.327   6.182
97335SOL    HW193844  12.367   0.366   6.099
97335SOL    HW293845  12.474   0.278   6.161
97336SOL     OW93846  14.646   0.311  13.807
97336SOL    HW193847  14.682   0.225  13.787
97336SOL    HW293848  14.664   0.324  13.900
97337SOL     OW93849   5.500  11.790   7.787
97337SOL    HW193850   5.560  11.835   7.847
97337SOL    HW293851   5.429  11.853   7.773
97338SOL     OW93852  11.170  13.451   6.496
97338SOL    HW193853  11.185  13.390   6.568
97338SOL    HW293854  11.136  13.396   6.425
97339SOL     OW93855   9.448   3.486   7.865
97339SOL    HW193856   9.425   3.484   7.772
97339SOL    HW293857   9.402   3.563   7.899
97340SOL     OW93858   8.648   5.879   0.846
97340SOL    HW193859   8.711   5.947   0.825
97340SOL    HW293860   8.673   5.805   0.790
97341SOL     OW93861   1.172  12.165   5.710
97341SOL    HW193862   1.201  12.074   5.715
97341SOL    HW293863   1.136  12.183   5.797
97342SOL     OW93864   4.936   2.923  12.693
97342SOL    HW193865   4.865   2.877  12.738
97342SOL    HW293866   4.892   2.987  12.638
97343SOL     OW93867  11.171   7.844   6.252
97343SOL    HW193868  11.233   7.901   6.300
97343SOL    HW293869  11.197   7.852   6.161
97344SOL     OW93870   9.758   2.147   1.815
97344SOL    HW193871   9.802   2.066   1.789
97344SOL    HW293872   9.825   2.215   1.811
97345SOL     OW93873  14.523  12.680   7.351
97345SOL    HW193874  14.491  12.590   7.364
97345SOL    HW293875  14.553  12.681   7.260
97346SOL     OW93876   5.962   5.472   7.572
97346SOL    HW193877   5.895   5.448   7.635
97346SOL    HW293878   6.036   5.414   7.592
97347SOL     OW93879   9.882   6.188   1.869
97347SOL    HW193880   9.880   6.281   1.844
97347SOL    HW293881   9.927   6.145   1.797
97348SOL     OW93882  10.264   7.291   4.131
97348SOL    HW193883  10.173   7.263   4.120
97348SOL    HW293884  10.315   7.225   4.084
97349SOL     OW93885   7.126   0.715   2.500
97349SOL    HW193886   7.200   0.746   2.552
97349SOL    HW293887   7.080   0.795   2.474
97350SOL     OW93888   3.228  10.292  10.471
97350SOL    HW193889   3.302  10.276  10.530
97350SOL    HW293890   3.150  10.279  10.525
97351SOL     OW93891  13.201  11.108   0.439
97351SOL    HW193892  13.271  11.077   0.380
97351SOL    HW293893  13.123  11.110   0.384
97352SOL     OW93894   8.344  13.646  11.266
97352SOL    HW193895   8.339  13.667  11.359
97352SOL    HW293896   8.265  13.595  11.249
97353SOL     OW93897   9.895  10.551  11.339
97353SOL    HW193898   9.873  10.563  11.432
97353SOL    HW293899   9.966  10.614  11.323
97354SOL     OW93900  14.376   9.481   2.387
97354SOL    HW193901  14.326   9.487   2.306
97354SOL    HW293902  14.368   9.568   2.427
97355SOL     OW93903   1.987   2.956   3.364
97355SOL    HW193904   2.011   2.928   3.452
97355SOL    HW293905   1.908   2.906   3.343
97356SOL     OW93906  10.375   1.341  11.107
97356SOL    HW193907  10.390   1.256  11.148
97356SOL    HW293908  10.462   1.369  11.078
97357SOL     OW93909   6.588   8.988  12.344
97357SOL    HW193910   6.611   8.981  12.252
97357SOL    HW293911   6.626   8.910  12.385
97358SOL     OW93912   4.584  14.309   0.867
97358SOL    HW193913   4.631  14.343   0.791
97358SOL    HW293914   4.636  14.233   0.895
97359SOL     OW93915   2.756   8.844   2.103
97359SOL    HW193916   2.792   8.829   2.190
97359SOL    HW293917   2.749   8.939   2.096
97360SOL     OW93918   7.182   1.604   9.430
97360SOL    HW193919   7.275   1.627   9.433
97360SOL    HW293920   7.175   1.527   9.486
97361SOL     OW93921  13.580  10.649   5.171
97361SOL    HW193922  13.505  10.638   5.112
97361SOL    HW293923  13.617  10.561   5.178
97362SOL     OW93924   5.385  14.711   4.430
97362SOL    HW193925   5.340  14.715   4.346
97362SOL    HW293926   5.329  14.760   4.490
97363SOL     OW93927   3.637  13.738  13.025
97363SOL    HW193928   3.682  13.822  13.013
97363SOL    HW293929   3.683  13.678  12.966
97364SOL     OW93930   7.936   7.185   9.480
97364SOL    HW193931   7.846   7.213   9.491
97364SOL    HW293932   7.989   7.258   9.513
97365SOL     OW93933  12.945   3.011   7.444
97365SOL    HW193934  12.923   2.942   7.381
97365SOL    HW293935  12.903   2.983   7.526
97366SOL     OW93936   5.659  12.319   6.554
97366SOL    HW193937   5.649  12.223   6.548
97366SOL    HW293938   5.750  12.335   6.533
97367SOL     OW93939   6.920   5.365   7.738
97367SOL    HW193940   6.869   5.291   7.705
97367SOL    HW293941   6.879   5.388   7.821
97368SOL     OW93942   1.585   4.019   2.860
97368SOL    HW193943   1.592   3.924   2.859
97368SOL    HW293944   1.674   4.049   2.882
97369SOL     OW93945   2.247  13.358   9.052
97369SOL    HW193946   2.198  13.436   9.028
97369SOL    HW293947   2.227  13.295   8.983
97370SOL     OW93948  12.519   7.113   6.242
97370SOL    HW193949  12.473   7.060   6.177
97370SOL    HW293950  12.552   7.049   6.305
97371SOL     OW93951   0.498   2.088   8.005
97371SOL    HW193952   0.525   2.037   8.081
97371SOL    HW293953   0.453   2.164   8.042
97372SOL     OW93954  12.214   4.762   6.713
97372SOL    HW193955  12.197   4.723   6.627
97372SOL    HW293956  12.298   4.807   6.702
97373SOL     OW93957   9.210   5.409  11.076
97373SOL    HW193958   9.229   5.425  10.983
97373SOL    HW293959   9.132   5.461  11.093
97374SOL     OW93960   1.778   9.381  10.753
97374SOL    HW193961   1.797   9.338  10.670
97374SOL    HW293962   1.720   9.453  10.731
97375SOL     OW93963  10.332  11.103   1.045
97375SOL    HW193964  10.309  11.075   1.134
97375SOL    HW293965  10.427  11.100   1.043
97376SOL     OW93966  10.807  12.459   1.895
97376SOL    HW193967  10.837  12.547   1.873
97376SOL    HW293968  10.819  12.453   1.990
97377SOL     OW93969  12.504  11.162   1.753
97377SOL    HW193970  12.458  11.243   1.775
97377SOL    HW293971  12.499  11.109   1.833
97378SOL     OW93972  12.153   0.099   4.874
97378SOL    HW193973  12.063   0.127   4.892
97378SOL    HW293974  12.144   0.022   4.818
97379SOL     OW93975   6.594  13.403  10.536
97379SOL    HW193976   6.501  13.379  10.540
97379SOL    HW293977   6.638  13.324  10.508
97380SOL     OW93978   6.203   4.387   1.797
97380SOL    HW193979   6.198   4.474   1.758
97380SOL    HW293980   6.226   4.403   1.889
97381SOL     OW93981   6.049  11.940   9.748
97381SOL    HW193982   6.020  11.903   9.665
97381SOL    HW293983   6.145  11.933   9.745
97382SOL     OW93984   0.889   3.469  12.735
97382SOL    HW193985   0.966   3.468  12.678
97382SOL    HW293986   0.907   3.401  12.800
97383SOL     OW93987  11.214  14.674  11.744
97383SOL    HW193988  11.196  14.580  11.740
97383SOL    HW293989  11.162  14.712  11.674
97384SOL     OW93990   8.497   1.272   5.783
97384SOL    HW193991   8.489   1.178   5.765
97384SOL    HW293992   8.548   1.275   5.864
97385SOL     OW93993   0.664  12.011  11.697
97385SOL    HW193994   0.718  11.940  11.661
97385SOL    HW293995   0.631  11.977  11.780
97386SOL     OW93996   4.729   5.318   7.207
97386SOL    HW193997   4.635   5.312   7.191
97386SOL    HW293998   4.736   5.367   7.289
97387SOL     OW93999   3.262   0.736   5.626
97387SOL    HW194000   3.298   0.691   5.549
97387SOL    HW294001   3.242   0.824   5.595
97388SOL     OW94002   0.387  13.650  11.523
97388SOL    HW194003   0.407  13.571  11.574
97388SOL    HW294004   0.294  13.643  11.504
97389SOL     OW94005   4.173   3.669   4.095
97389SOL    HW194006   4.159   3.576   4.075
97389SOL    HW294007   4.268   3.679   4.097
97390SOL     OW94008  13.505  14.499   8.085
97390SOL    HW194009  13.410  14.508   8.092
97390SOL    HW294010  13.522  14.406   8.100
97391SOL     OW94011   6.007   8.820  10.746
97391SOL    HW194012   6.089   8.834  10.700
97391SOL    HW294013   5.939   8.842  10.682
97392SOL     OW94014  14.620  10.932   1.171
97392SOL    HW194015  14.540  10.918   1.221
97392SOL    HW294016  14.609  11.018   1.131
97393SOL     OW94017   8.117   8.763   2.503
97393SOL    HW194018   8.159   8.677   2.503
97393SOL    HW294019   8.157   8.809   2.428
97394SOL     OW94020   3.798   0.856   2.217
97394SOL    HW194021   3.705   0.835   2.215
97394SOL    HW294022   3.842   0.772   2.207
97395SOL     OW94023   4.225   9.429   7.633
97395SOL    HW194024   4.201   9.486   7.706
97395SOL    HW294025   4.305   9.385   7.662
97396SOL     OW94026   3.687   6.434  10.557
97396SOL    HW194027   3.694   6.351  10.604
97396SOL    HW294028   3.775   6.451  10.524
97397SOL     OW94029  13.615  11.291  12.130
97397SOL    HW194030  13.641  11.208  12.089
97397SOL    HW294031  13.687  11.312  12.189
97398SOL     OW94032   6.091   5.914   3.612
97398SOL    HW194033   6.127   5.934   3.699
97398SOL    HW294034   6.156   5.948   3.551
97399SOL     OW94035   3.970   3.616  13.805
97399SOL    HW194036   3.908   3.570  13.861
97399SOL    HW294037   4.056   3.592  13.839
97400SOL     OW94038  10.247   3.571  11.269
97400SOL    HW194039  10.223   3.592  11.179
97400SOL    HW294040  10.167   3.534  11.307
97401SOL     OW94041   3.369   3.991   8.758
97401SOL    HW194042   3.439   3.933   8.786
97401SOL    HW294043   3.344   4.040   8.837
97402SOL     OW94044   6.835  12.363  10.936
97402SOL    HW194045   6.883  12.410  10.868
97402SOL    HW294046   6.824  12.275  10.900
97403SOL     OW94047   5.613   5.278  11.358
97403SOL    HW194048   5.550   5.312  11.294
97403SOL    HW294049   5.588   5.320  11.441
97404SOL     OW94050  14.425  13.020   1.011
97404SOL    HW194051  14.461  12.933   0.998
97404SOL    HW294052  14.497  13.079   0.988
97405SOL     OW94053  10.718   9.296  11.894
97405SOL    HW194054  10.745   9.222  11.949
97405SOL    HW294055  10.739   9.373  11.947
97406SOL     OW94056   8.601  10.200   3.593
97406SOL    HW194057   8.676  10.257   3.578
97406SOL    HW294058   8.591  10.152   3.510
97407SOL     OW94059   7.770   9.292   3.474
97407SOL    HW194060   7.723   9.360   3.427
97407SOL    HW294061   7.746   9.211   3.430
97408SOL     OW94062  12.084  11.907  12.707
97408SOL    HW194063  12.157  11.845  12.721
97408SOL    HW294064  12.120  11.973  12.648
97409SOL     OW94065   4.151  14.221   1.397
97409SOL    HW194066   4.152  14.201   1.303
97409SOL    HW294067   4.236  14.192   1.429
97410SOL     OW94068   8.791   1.107   1.682
97410SOL    HW194069   8.790   1.082   1.590
97410SOL    HW294070   8.875   1.077   1.715
97411SOL     OW94071   3.348   1.147  13.046
97411SOL    HW194072   3.344   1.083  13.117
97411SOL    HW294073   3.264   1.193  13.051
97412SOL     OW94074   5.682   0.614   4.797
97412SOL    HW194075   5.703   0.571   4.880
97412SOL    HW294076   5.751   0.679   4.786
97413SOL     OW94077   6.588  12.685   0.681
97413SOL    HW194078   6.572  12.604   0.731
97413SOL    HW294079   6.500  12.721   0.667
97414SOL     OW94080  14.176   0.112  14.232
97414SOL    HW194081  14.155   0.175  14.162
97414SOL    HW294082  14.199   0.031  14.186
97415SOL     OW94083   4.252   4.567   8.409
97415SOL    HW194084   4.250   4.477   8.377
97415SOL    HW294085   4.169   4.605   8.380
97416SOL     OW94086   4.538   0.756   4.102
97416SOL    HW194087   4.492   0.755   4.186
97416SOL    HW294088   4.629   0.776   4.123
97417SOL     OW94089  12.107  12.504   7.989
97417SOL    HW194090  12.172  12.572   8.007
97417SOL    HW294091  12.050  12.505   8.065
97418SOL     OW94092   8.544  14.066   7.086
97418SOL    HW194093   8.601  14.139   7.063
97418SOL    HW294094   8.498  14.095   7.165
97419SOL     OW94095   4.490   0.008  13.472
97419SOL    HW194096   4.474   0.060  13.552
97419SOL    HW294097   4.509  14.800  13.504
97420SOL     OW94098   8.700   2.962  11.543
97420SOL    HW194099   8.616   2.984  11.583
97420SOL    HW294100   8.740   3.046  11.521
97421SOL     OW94101  11.669   2.142  14.747
97421SOL    HW194102  11.726   2.160  14.821
97421SOL    HW294103  11.675   2.219  14.692
97422SOL     OW94104   7.334   1.606   6.565
97422SOL    HW194105   7.294   1.687   6.531
97422SOL    HW294106   7.345   1.623   6.659
97423SOL     OW94107  14.365   3.552   7.553
97423SOL    HW194108  14.309   3.477   7.531
97423SOL    HW294109  14.342   3.573   7.643
97424SOL     OW94110  11.909  12.821   2.985
97424SOL    HW194111  12.002  12.835   2.998
97424SOL    HW294112  11.903  12.739   2.937
97425SOL     OW94113   2.558  12.170   2.677
97425SOL    HW194114   2.532  12.089   2.635
97425SOL    HW294115   2.619  12.211   2.616
97426SOL     OW94116   4.877  13.454  12.959
97426SOL    HW194117   4.809  13.387  12.951
97426SOL    HW294118   4.954  13.406  12.991
97427SOL     OW94119  13.876   3.115   5.826
97427SOL    HW194120  13.847   3.062   5.752
97427SOL    HW294121  13.970   3.125   5.814
97428SOL     OW94122  13.062   9.510   3.248
97428SOL    HW194123  12.998   9.439   3.256
97428SOL    HW294124  13.146   9.466   3.239
97429SOL     OW94125   1.635  14.796   5.685
97429SOL    HW194126   1.722  14.828   5.662
97429SOL    HW294127   1.591  14.872   5.723
97430SOL     OW94128   0.678  11.048   5.876
97430SOL    HW194129   0.609  11.023   5.939
97430SOL    HW294130   0.701  10.966   5.833
97431SOL     OW94131   3.847  11.856   2.248
97431SOL    HW194132   3.830  11.789   2.314
97431SOL    HW294133   3.915  11.818   2.193
97432SOL     OW94134   7.306   8.359   1.504
97432SOL    HW194135   7.374   8.307   1.463
97432SOL    HW294136   7.224   8.312   1.485
97433SOL     OW94137  11.856   0.270  14.728
97433SOL    HW194138  11.900   0.207  14.785
97433SOL    HW294139  11.770   0.284  14.769
97434SOL     OW94140  10.081   2.724  12.728
97434SOL    HW194141  10.062   2.670  12.651
97434SOL    HW294142  10.123   2.664  12.790
97435SOL     OW94143   8.590   1.032   5.591
97435SOL    HW194144   8.567   1.005   5.502
97435SOL    HW294145   8.612   0.950   5.636
97436SOL     OW94146  12.421   4.740   9.085
97436SOL    HW194147  12.394   4.663   9.036
97436SOL    HW294148  12.455   4.800   9.019
97437SOL     OW94149   6.959   2.819   7.427
97437SOL    HW194150   6.979   2.912   7.428
97437SOL    HW294151   7.043   2.776   7.412
97438SOL     OW94152   1.068   1.445  10.577
97438SOL    HW194153   1.028   1.389  10.643
97438SOL    HW294154   1.132   1.497  10.627
97439SOL     OW94155   3.407   8.115   3.641
97439SOL    HW194156   3.338   8.095   3.577
97439SOL    HW294157   3.482   8.063   3.612
97440SOL     OW94158   4.598   1.047  10.512
97440SOL    HW194159   4.507   1.070  10.497
97440SOL    HW294160   4.602   1.023  10.604
97441SOL     OW94161   2.896   4.992   7.750
97441SOL    HW194162   2.904   5.066   7.689
97441SOL    HW294163   2.805   4.996   7.779
97442SOL     OW94164  13.655   9.619  10.452
97442SOL    HW194165  13.717   9.557  10.489
97442SOL    HW294166  13.697   9.652  10.373
97443SOL     OW94167  12.105   7.444   2.268
97443SOL    HW194168  12.166   7.493   2.324
97443SOL    HW294169  12.137   7.460   2.179
97444SOL     OW94170   8.300   8.788   3.053
97444SOL    HW194171   8.250   8.800   3.133
97444SOL    HW294172   8.385   8.827   3.072
97445SOL     OW94173   6.552   3.751  10.887
97445SOL    HW194174   6.599   3.680  10.842
97445SOL    HW294175   6.476   3.767  10.832
97446SOL     OW94176   7.194   9.973  13.713
97446SOL    HW194177   7.245   9.929  13.781
97446SOL    HW294178   7.250   9.970  13.635
97447SOL     OW94179  11.034   5.264   0.761
97447SOL    HW194180  11.107   5.235   0.816
97447SOL    HW294181  10.983   5.321   0.819
97448SOL     OW94182   2.382   9.006  12.264
97448SOL    HW194183   2.393   9.050  12.349
97448SOL    HW294184   2.470   8.976  12.242
97449SOL     OW94185   2.837  14.702  10.394
97449SOL    HW194186   2.745  14.706  10.367
97449SOL    HW294187   2.841  14.759  10.471
97450SOL     OW94188   6.880   5.322   8.696
97450SOL    HW194189   6.841   5.254   8.641
97450SOL    HW294190   6.828   5.400   8.677
97451SOL     OW94191   9.268   0.784   5.581
97451SOL    HW194192   9.174   0.767   5.578
97451SOL    HW294193   9.308   0.712   5.533
97452SOL     OW94194  13.776   0.413   9.319
97452SOL    HW194195  13.777   0.347   9.388
97452SOL    HW294196  13.683   0.420   9.294
97453SOL     OW94197   0.706  13.864   2.779
97453SOL    HW194198   0.756  13.896   2.704
97453SOL    HW294199   0.628  13.919   2.781
97454SOL     OW94200   9.413   1.716  10.712
97454SOL    HW194201   9.385   1.696  10.623
97454SOL    HW294202   9.508   1.707  10.710
97455SOL     OW94203  10.099  14.137   8.026
97455SOL    HW194204  10.054  14.083   7.961
97455SOL    HW294205  10.144  14.073   8.082
97456SOL     OW94206  13.792   8.780  13.496
97456SOL    HW194207  13.887   8.771  13.501
97456SOL    HW294208  13.769   8.828  13.576
97457SOL     OW94209   6.648   1.961  11.939
97457SOL    HW194210   6.643   2.026  11.869
97457SOL    HW294211   6.663   2.012  12.018
97458SOL     OW94212  13.394   0.783   5.540
97458SOL    HW194213  13.317   0.771   5.594
97458SOL    HW294214  13.385   0.872   5.505
97459SOL     OW94215  13.974   6.295   5.900
97459SOL    HW194216  14.017   6.289   5.815
97459SOL    HW294217  14.025   6.361   5.947
97460SOL     OW94218   8.798   9.196   7.938
97460SOL    HW194219   8.852   9.234   7.868
97460SOL    HW294220   8.711   9.235   7.924
97461SOL     OW94221   6.005  11.493   3.271
97461SOL    HW194222   5.914  11.502   3.299
97461SOL    HW294223   6.033  11.409   3.307
97462SOL     OW94224  14.527  13.896  10.578
97462SOL    HW194225  14.484  13.824  10.623
97462SOL    HW294226  14.619  13.890  10.603
97463SOL     OW94227  10.746  12.467   1.241
97463SOL    HW194228  10.657  12.497   1.260
97463SOL    HW294229  10.787  12.458   1.327
97464SOL     OW94230   5.706   6.447   6.170
97464SOL    HW194231   5.670   6.439   6.258
97464SOL    HW294232   5.793   6.409   6.175
97465SOL     OW94233   7.573  11.800   0.877
97465SOL    HW194234   7.618  11.829   0.798
97465SOL    HW294235   7.572  11.876   0.934
97466SOL     OW94236  13.273   9.266   4.083
97466SOL    HW194237  13.246   9.346   4.128
97466SOL    HW294238  13.201   9.247   4.023
97467SOL     OW94239   2.936   4.243  13.167
97467SOL    HW194240   2.854   4.282  13.197
97467SOL    HW294241   2.998   4.260  13.238
97468SOL     OW94242   0.175   2.257   0.492
97468SOL    HW194243   0.084   2.273   0.519
97468SOL    HW294244   0.186   2.162   0.499
97469SOL     OW94245  12.303   1.433   2.868
97469SOL    HW194246  12.356   1.496   2.916
97469SOL    HW294247  12.263   1.484   2.797
97470SOL     OW94248   8.281   1.774   5.664
97470SOL    HW194249   8.201   1.738   5.625
97470SOL    HW294250   8.322   1.823   5.593
97471SOL     OW94251   6.771   9.161   0.238
97471SOL    HW194252   6.696   9.222   0.237
97471SOL    HW294253   6.751   9.098   0.169
97472SOL     OW94254   8.241   2.845  11.749
97472SOL    HW194255   8.260   2.809  11.663
97472SOL    HW294256   8.249   2.940  11.739
97473SOL     OW94257  12.372   0.646  10.356
97473SOL    HW194258  12.327   0.564  10.377
97473SOL    HW294259  12.302   0.706  10.331
97474SOL     OW94260  10.310   5.709   3.201
97474SOL    HW194261  10.281   5.734   3.113
97474SOL    HW294262  10.384   5.766   3.220
97475SOL     OW94263  10.548  11.164   5.463
97475SOL    HW194264  10.457  11.153   5.490
97475SOL    HW294265  10.597  11.169   5.545
97476SOL     OW94266   3.391  12.169   3.407
97476SOL    HW194267   3.357  12.081   3.424
97476SOL    HW294268   3.486  12.158   3.402
97477SOL     OW94269   4.315   5.081  11.759
97477SOL    HW194270   4.308   5.001  11.810
97477SOL    HW294271   4.359   5.054  11.678
97478SOL     OW94272   1.357   3.026   0.644
97478SOL    HW194273   1.316   3.048   0.727
97478SOL    HW294274   1.284   3.020   0.582
97479SOL     OW94275  14.040  10.941   6.026
97479SOL    HW194276  13.961  10.916   6.075
97479SOL    HW294277  14.051  10.870   5.962
97480SOL     OW94278   6.533   2.820   5.413
97480SOL    HW194279   6.558   2.866   5.333
97480SOL    HW294280   6.607   2.762   5.431
97481SOL     OW94281   2.951  12.116  13.348
97481SOL    HW194282   2.891  12.185  13.321
97481SOL    HW294283   2.970  12.135  13.440
97482SOL     OW94284   3.870   7.079   9.819
97482SOL    HW194285   3.869   7.002   9.763
97482SOL    HW294286   3.785   7.078   9.863
97483SOL     OW94287   4.474   4.587  10.278
97483SOL    HW194288   4.447   4.507  10.233
97483SOL    HW294289   4.395   4.617  10.323
97484SOL     OW94290   1.639   6.848   8.534
97484SOL    HW194291   1.668   6.852   8.443
97484SOL    HW294292   1.553   6.805   8.530
97485SOL     OW94293   4.113  10.382  13.590
97485SOL    HW194294   4.145  10.334  13.513
97485SOL    HW294295   4.112  10.318  13.660
97486SOL     OW94296  12.137   9.591   0.990
97486SOL    HW194297  12.123   9.524   0.923
97486SOL    HW294298  12.052   9.636   0.996
97487SOL     OW94299   1.414   0.552   3.591
97487SOL    HW194300   1.354   0.519   3.523
97487SOL    HW294301   1.500   0.546   3.550
97488SOL     OW94302   9.553   9.454   4.172
97488SOL    HW194303   9.489   9.519   4.143
97488SOL    HW294304   9.638   9.495   4.156
97489SOL     OW94305   9.226   9.210   3.590
97489SOL    HW194306   9.238   9.304   3.604
97489SOL    HW294307   9.173   9.205   3.510
97490SOL     OW94308   2.253   0.402   1.728
97490SOL    HW194309   2.192   0.442   1.666
97490SOL    HW294310   2.225   0.436   1.813
97491SOL     OW94311   4.944   6.720   7.224
97491SOL    HW194312   4.990   6.668   7.289
97491SOL    HW294313   4.927   6.659   7.152
97492SOL     OW94314  12.457   8.039  12.435
97492SOL    HW194315  12.477   7.984  12.511
97492SOL    HW294316  12.534   8.028  12.378
97493SOL     OW94317   1.432  13.882  12.706
97493SOL    HW194318   1.450  13.931  12.625
97493SOL    HW294319   1.337  13.888  12.717
97494SOL     OW94320  14.172  10.126   1.850
97494SOL    HW194321  14.264  10.117   1.829
97494SOL    HW294322  14.134  10.173   1.776
97495SOL     OW94323   4.637   5.405   4.344
97495SOL    HW194324   4.629   5.370   4.255
97495SOL    HW294325   4.711   5.357   4.381
97496SOL     OW94326   6.789   4.423   4.171
97496SOL    HW194327   6.750   4.378   4.096
97496SOL    HW294328   6.795   4.515   4.143
97497SOL     OW94329   1.027   2.586   9.377
97497SOL    HW194330   0.958   2.532   9.414
97497SOL    HW294331   0.985   2.635   9.306
97498SOL     OW94332   8.431   5.656   8.073
97498SOL    HW194333   8.403   5.701   8.153
97498SOL    HW294334   8.518   5.691   8.056
97499SOL     OW94335  10.954  11.962   5.385
97499SOL    HW194336  10.895  11.906   5.335
97499SOL    HW294337  10.999  11.903   5.445
97500SOL     OW94338  13.865   6.663   5.332
97500SOL    HW194339  13.914   6.728   5.281
97500SOL    HW294340  13.912   6.581   5.317
97501SOL     OW94341   1.135   3.430   5.740
97501SOL    HW194342   1.139   3.458   5.831
97501SOL    HW294343   1.223   3.445   5.707
97502SOL     OW94344   4.415   1.907  13.666
97502SOL    HW194345   4.368   1.989  13.657
97502SOL    HW294346   4.480   1.908  13.595
97503SOL     OW94347   9.287   9.148   0.354
97503SOL    HW194348   9.371   9.193   0.344
97503SOL    HW294349   9.227   9.216   0.385
97504SOL     OW94350  10.579   0.042  12.948
97504SOL    HW194351  10.563   0.062  13.040
97504SOL    HW294352  10.599   0.126  12.908
97505SOL     OW94353  10.647   6.735   1.712
97505SOL    HW194354  10.686   6.653   1.742
97505SOL    HW294355  10.584   6.757   1.781
97506SOL     OW94356   2.386   1.761   4.027
97506SOL    HW194357   2.420   1.794   4.111
97506SOL    HW294358   2.448   1.795   3.962
97507SOL     OW94359  13.833  13.756   3.424
97507SOL    HW194360  13.855  13.727   3.336
97507SOL    HW294361  13.819  13.675   3.473
97508SOL     OW94362  10.873   8.344   2.635
97508SOL    HW194363  10.922   8.392   2.702
97508SOL    HW294364  10.820   8.282   2.684
97509SOL     OW94365   0.535  11.943  10.260
97509SOL    HW194366   0.491  11.900  10.187
97509SOL    HW294367   0.521  11.883  10.334
97510SOL     OW94368  13.287  11.925   6.086
97510SOL    HW194369  13.360  11.864   6.073
97510SOL    HW294370  13.267  11.957   5.998
97511SOL     OW94371   8.472  11.328  14.163
97511SOL    HW194372   8.526  11.347  14.086
97511SOL    HW294373   8.493  11.237  14.184
97512SOL     OW94374   0.035  14.079   6.201
97512SOL    HW194375   0.076  14.042   6.123
97512SOL    HW294376   0.011  14.003   6.254
97513SOL     OW94377  13.303   7.298  13.496
97513SOL    HW194378  13.366   7.357  13.539
97513SOL    HW294379  13.218   7.342  13.508
97514SOL     OW94380   8.506   5.847  12.917
97514SOL    HW194381   8.469   5.778  12.972
97514SOL    HW294382   8.542   5.801  12.842
97515SOL     OW94383   4.942   5.138   3.670
97515SOL    HW194384   4.916   5.059   3.623
97515SOL    HW294385   4.956   5.203   3.602
97516SOL     OW94386   8.464   0.848   5.858
97516SOL    HW194387   8.490   0.778   5.918
97516SOL    HW294388   8.516   0.833   5.779
97517SOL     OW94389   0.927   5.102   2.006
97517SOL    HW194390   0.838   5.080   1.978
97517SOL    HW294391   0.967   5.144   1.929
97518SOL     OW94392  12.069   5.006   6.818
97518SOL    HW194393  12.158   4.987   6.788
97518SOL    HW294394  12.066   5.101   6.824
97519SOL     OW94395  12.715  11.197  10.181
97519SOL    HW194396  12.685  11.207  10.271
97519SOL    HW294397  12.685  11.110  10.155
97520SOL     OW94398   7.341  12.710  12.370
97520SOL    HW194399   7.320  12.784  12.314
97520SOL    HW294400   7.379  12.749  12.448
97521SOL     OW94401  12.033  14.131   2.440
97521SOL    HW194402  12.090  14.168   2.372
97521SOL    HW294403  12.087  14.131   2.519
97522SOL     OW94404   0.319   2.212   7.343
97522SOL    HW194405   0.338   2.272   7.415
97522SOL    HW294406   0.228   2.187   7.356
97523SOL     OW94407  10.089   9.086   3.418
97523SOL    HW194408  10.021   9.024   3.446
97523SOL    HW294409  10.054   9.124   3.337
97524SOL     OW94410   1.778  14.039  11.662
97524SOL    HW194411   1.733  13.967  11.616
97524SOL    HW294412   1.775  14.112  11.600
97525SOL     OW94413   1.448   2.998   2.353
97525SOL    HW194414   1.373   3.056   2.364
97525SOL    HW294415   1.415   2.925   2.301
97526SOL     OW94416   8.542   3.509   3.631
97526SOL    HW194417   8.529   3.556   3.714
97526SOL    HW294418   8.635   3.491   3.629
97527SOL     OW94419  12.100   8.690  11.900
97527SOL    HW194420  12.010   8.668  11.875
97527SOL    HW294421  12.092   8.766  11.957
97528SOL     OW94422   1.351  10.613   5.261
97528SOL    HW194423   1.425  10.553   5.266
97528SOL    HW294424   1.345  10.635   5.168
97529SOL     OW94425   3.721   3.654   0.024
97529SOL    HW194426   3.780   3.651   0.100
97529SOL    HW294427   3.774   3.619  14.832
97530SOL     OW94428   9.843   2.985   3.542
97530SOL    HW194429   9.834   2.908   3.485
97530SOL    HW294430   9.915   2.961   3.601
97531SOL     OW94431  11.872   7.407  11.653
97531SOL    HW194432  11.836   7.436  11.570
97531SOL    HW294433  11.857   7.312  11.654
97532SOL     OW94434  11.630   9.566   3.422
97532SOL    HW194435  11.672   9.638   3.374
97532SOL    HW294436  11.588   9.513   3.354
97533SOL     OW94437   3.532   7.344   3.862
97533SOL    HW194438   3.568   7.291   3.933
97533SOL    HW294439   3.512   7.429   3.904
97534SOL     OW94440  12.554   9.763   2.487
97534SOL    HW194441  12.519   9.846   2.453
97534SOL    HW294442  12.585   9.785   2.575
97535SOL     OW94443  11.563  13.572   1.458
97535SOL    HW194444  11.532  13.649   1.412
97535SOL    HW294445  11.521  13.577   1.544
97536SOL     OW94446   5.559   0.530   8.160
97536SOL    HW194447   5.483   0.486   8.123
97536SOL    HW294448   5.579   0.481   8.240
97537SOL     OW94449   1.474   6.546   0.200
97537SOL    HW194450   1.511   6.608   0.136
97537SOL    HW294451   1.547   6.527   0.259
97538SOL     OW94452   7.383  12.326   7.461
97538SOL    HW194453   7.344  12.315   7.374
97538SOL    HW294454   7.413  12.238   7.485
97539SOL     OW94455   7.388   4.848   5.625
97539SOL    HW194456   7.450   4.818   5.692
97539SOL    HW294457   7.304   4.812   5.652
97540SOL     OW94458   1.025   7.312   0.598
97540SOL    HW194459   1.084   7.364   0.653
97540SOL    HW294460   1.036   7.347   0.510
97541SOL     OW94461   5.965   4.490  12.583
97541SOL    HW194462   5.984   4.581  12.560
97541SOL    HW294463   5.945   4.448  12.500
97542SOL     OW94464  10.050   0.299   6.535
97542SOL    HW194465   9.956   0.319   6.528
97542SOL    HW294466  10.086   0.321   6.449
97543SOL     OW94467   9.024   2.172   1.362
97543SOL    HW194468   9.098   2.220   1.325
97543SOL    HW294469   8.955   2.180   1.296
97544SOL     OW94470   2.024   7.864   2.928
97544SOL    HW194471   1.977   7.928   2.874
97544SOL    HW294472   2.106   7.908   2.952
97545SOL     OW94473   4.849  10.047   0.547
97545SOL    HW194474   4.779   9.982   0.547
97545SOL    HW294475   4.927   9.998   0.521
97546SOL     OW94476   6.825  10.424  10.185
97546SOL    HW194477   6.776  10.343  10.202
97546SOL    HW294478   6.903  10.395  10.138
97547SOL     OW94479   8.548  14.166   5.803
97547SOL    HW194480   8.558  14.176   5.898
97547SOL    HW294481   8.465  14.208   5.783
97548SOL     OW94482   1.474   1.901   1.831
97548SOL    HW194483   1.491   1.943   1.915
97548SOL    HW294484   1.550   1.925   1.777
97549SOL     OW94485   1.915  14.142  11.099
97549SOL    HW194486   1.915  14.052  11.065
97549SOL    HW294487   1.870  14.193  11.031
97550SOL     OW94488   9.748   1.367   3.821
97550SOL    HW194489   9.803   1.410   3.887
97550SOL    HW294490   9.682   1.321   3.872
97551SOL     OW94491   2.469  11.442  11.295
97551SOL    HW194492   2.472  11.526  11.339
97551SOL    HW294493   2.547  11.440  11.240
97552SOL     OW94494   9.061   9.510   6.477
97552SOL    HW194495   8.971   9.514   6.510
97552SOL    HW294496   9.076   9.595   6.436
97553SOL     OW94497   0.350   4.003  14.478
97553SOL    HW194498   0.318   4.090  14.454
97553SOL    HW294499   0.413   3.981  14.409
97554SOL     OW94500   3.171   8.890  13.246
97554SOL    HW194501   3.131   8.884  13.333
97554SOL    HW294502   3.261   8.917  13.262
97555SOL     OW94503   0.940   5.253   2.971
97555SOL    HW194504   0.926   5.160   2.957
97555SOL    HW294505   0.912   5.294   2.888
97556SOL     OW94506   7.547  14.841   1.072
97556SOL    HW194507   7.516  14.815   1.159
97556SOL    HW294508   7.616   0.025   1.089
97557SOL     OW94509   4.804  13.226   1.973
97557SOL    HW194510   4.848  13.178   2.044
97557SOL    HW294511   4.759  13.157   1.923
97558SOL     OW94512  10.789   8.079  10.974
97558SOL    HW194513  10.800   8.086  11.068
97558SOL    HW294514  10.729   8.005  10.963
97559SOL     OW94515   7.838   0.666  12.784
97559SOL    HW194516   7.852   0.759  12.804
97559SOL    HW294517   7.791   0.631  12.860
97560SOL     OW94518   9.235   1.351   6.301
97560SOL    HW194519   9.191   1.364   6.217
97560SOL    HW294520   9.202   1.421   6.357
97561SOL     OW94521   1.393   8.773   5.144
97561SOL    HW194522   1.436   8.690   5.164
97561SOL    HW294523   1.465   8.837   5.144
97562SOL     OW94524   1.033   9.924   6.368
97562SOL    HW194525   1.022   9.893   6.458
97562SOL    HW294526   1.068   9.848   6.320
97563SOL     OW94527   0.946  10.971  14.691
97563SOL    HW194528   1.033  10.962  14.728
97563SOL    HW294529   0.957  11.031  14.617
97564SOL     OW94530   1.319   3.561  12.721
97564SOL    HW194531   1.391   3.571  12.660
97564SOL    HW294532   1.249   3.521  12.669
97565SOL     OW94533  11.015   5.862   3.901
97565SOL    HW194534  10.954   5.915   3.952
97565SOL    HW294535  10.992   5.771   3.923
97566SOL     OW94536   2.948   4.070  11.418
97566SOL    HW194537   3.019   4.103  11.473
97566SOL    HW294538   2.918   3.991  11.462
97567SOL     OW94539   7.610   3.834   6.173
97567SOL    HW194540   7.518   3.861   6.183
97567SOL    HW294541   7.648   3.848   6.260
97568SOL     OW94542   4.928   8.451   1.587
97568SOL    HW194543   4.937   8.356   1.584
97568SOL    HW294544   4.852   8.465   1.644
97569SOL     OW94545   9.337   7.107  14.637
97569SOL    HW194546   9.255   7.059  14.623
97569SOL    HW294547   9.392   7.047  14.688
97570SOL     OW94548   0.319   9.099   8.563
97570SOL    HW194549   0.385   9.166   8.551
97570SOL    HW294550   0.347   9.027   8.505
97571SOL     OW94551   1.773   2.335   0.363
97571SOL    HW194552   1.796   2.278   0.437
97571SOL    HW294553   1.812   2.420   0.385
97572SOL     OW94554  13.737   2.507   0.599
97572SOL    HW194555  13.685   2.556   0.663
97572SOL    HW294556  13.741   2.565   0.523
97573SOL     OW94557  13.352  12.670  10.136
97573SOL    HW194558  13.274  12.702  10.090
97573SOL    HW294559  13.366  12.733  10.207
97574SOL     OW94560  14.731   8.146   1.776
97574SOL    HW194561  14.645   8.187   1.770
97574SOL    HW294562  14.747   8.138   1.870
97575SOL     OW94563  14.565   5.633  12.632
97575SOL    HW194564  14.526   5.613  12.547
97575SOL    HW294565  14.493   5.619  12.695
97576SOL     OW94566   4.572   7.871   8.881
97576SOL    HW194567   4.609   7.935   8.942
97576SOL    HW294568   4.478   7.878   8.893
97577SOL     OW94569   9.770  14.556   5.270
97577SOL    HW194570   9.835  14.504   5.316
97577SOL    HW294571   9.794  14.548   5.178
97578SOL     OW94572   4.138   6.033   5.286
97578SOL    HW194573   4.144   6.050   5.192
97578SOL    HW294574   4.211   6.082   5.324
97579SOL     OW94575  10.961   6.944  10.200
97579SOL    HW194576  10.958   6.860  10.155
97579SOL    HW294577  10.899   6.999  10.152
97580SOL     OW94578   2.405   3.520   7.273
97580SOL    HW194579   2.484   3.484   7.315
97580SOL    HW294580   2.426   3.520   7.179
97581SOL     OW94581   7.356   0.910   1.931
97581SOL    HW194582   7.283   0.916   1.870
97581SOL    HW294583   7.431   0.886   1.877
97582SOL     OW94584   2.050   6.592   4.255
97582SOL    HW194585   2.040   6.499   4.237
97582SOL    HW294586   2.091   6.596   4.341
97583SOL     OW94587   2.377  10.434   4.822
97583SOL    HW194588   2.390  10.371   4.893
97583SOL    HW294589   2.311  10.495   4.856
97584SOL     OW94590  13.770   5.982   4.078
97584SOL    HW194591  13.677   5.989   4.097
97584SOL    HW294592  13.785   5.888   4.064
97585SOL     OW94593   6.709  10.172  14.400
97585SOL    HW194594   6.697  10.223  14.480
97585SOL    HW294595   6.770  10.225  14.348
97586SOL     OW94596  13.962   4.828   7.706
97586SOL    HW194597  13.979   4.878   7.626
97586SOL    HW294598  13.884   4.869   7.744
97587SOL     OW94599   3.685  10.156  11.976
97587SOL    HW194600   3.708  10.133  11.886
97587SOL    HW294601   3.675  10.251  11.974
97588SOL     OW94602   8.194   5.572  14.098
97588SOL    HW194603   8.169   5.665  14.091
97588SOL    HW294604   8.111   5.525  14.093
97589SOL     OW94605   6.692   5.528  13.471
97589SOL    HW194606   6.717   5.508  13.381
97589SOL    HW294607   6.629   5.459  13.494
97590SOL     OW94608   5.969   0.564   7.193
97590SOL    HW194609   5.993   0.629   7.127
97590SOL    HW294610   6.050   0.546   7.240
97591SOL     OW94611   5.215   7.768   7.521
97591SOL    HW194612   5.160   7.691   7.508
97591SOL    HW294613   5.157   7.842   7.500
97592SOL     OW94614   7.731   7.375  11.480
97592SOL    HW194615   7.648   7.335  11.505
97592SOL    HW294616   7.737   7.362  11.386
97593SOL     OW94617   8.444   0.580   8.285
97593SOL    HW194618   8.475   0.567   8.374
97593SOL    HW294619   8.486   0.661   8.256
97594SOL     OW94620  10.239   8.926   7.777
97594SOL    HW194621  10.276   8.976   7.705
97594SOL    HW294622  10.151   8.902   7.747
97595SOL     OW94623  13.223  12.887  11.314
97595SOL    HW194624  13.233  12.943  11.391
97595SOL    HW294625  13.255  12.801  11.343
97596SOL     OW94626   5.295   5.681   6.005
97596SOL    HW194627   5.271   5.589   6.020
97596SOL    HW294628   5.383   5.676   5.966
97597SOL     OW94629  11.943  11.323   9.593
97597SOL    HW194630  11.865  11.270   9.610
97597SOL    HW294631  11.949  11.382   9.668
97598SOL     OW94632   5.388   9.854  11.923
97598SOL    HW194633   5.307   9.904  11.934
97598SOL    HW294634   5.456   9.920  11.914
97599SOL     OW94635   9.663   9.484   3.016
97599SOL    HW194636   9.577   9.523   3.005
97599SOL    HW294637   9.686   9.502   3.107
97600SOL     OW94638  10.086   6.240   8.912
97600SOL    HW194639   9.991   6.240   8.901
97600SOL    HW294640  10.115   6.162   8.865
97601SOL     OW94641  10.664   4.982   3.959
97601SOL    HW194642  10.607   5.051   3.993
97601SOL    HW294643  10.610   4.902   3.964
97602SOL     OW94644   7.554   6.503   9.935
97602SOL    HW194645   7.579   6.413   9.955
97602SOL    HW294646   7.556   6.548  10.019
97603SOL     OW94647   1.666   3.508   2.182
97603SOL    HW194648   1.705   3.420   2.181
97603SOL    HW294649   1.600   3.506   2.113
97604SOL     OW94650   5.497  14.652   8.976
97604SOL    HW194651   5.529  14.563   8.965
97604SOL    HW294652   5.467  14.678   8.889
97605SOL     OW94653   4.676   4.398  13.141
97605SOL    HW194654   4.608   4.377  13.205
97605SOL    HW294655   4.727   4.468  13.183
97606SOL     OW94656  13.222   7.951   1.938
97606SOL    HW194657  13.141   7.971   1.985
97606SOL    HW294658  13.282   7.918   2.004
97607SOL     OW94659   9.754   2.386  13.425
97607SOL    HW194660   9.677   2.442  13.419
97607SOL    HW294661   9.823   2.436  13.382
97608SOL     OW94662   9.396   7.726   1.851
97608SOL    HW194663   9.341   7.687   1.783
97608SOL    HW294664   9.335   7.757   1.917
97609SOL     OW94665   8.259  11.671   4.605
97609SOL    HW194666   8.274  11.747   4.661
97609SOL    HW294667   8.165  11.655   4.611
97610SOL     OW94668   0.570   2.624   4.111
97610SOL    HW194669   0.496   2.597   4.056
97610SOL    HW294670   0.554   2.581   4.195
97611SOL     OW94671   3.262   4.780  11.614
97611SOL    HW194672   3.241   4.711  11.551
97611SOL    HW294673   3.180   4.828  11.626
97612SOL     OW94674  10.948   9.331   5.491
97612SOL    HW194675  10.926   9.423   5.497
97612SOL    HW294676  10.875   9.286   5.533
97613SOL     OW94677   6.576  14.344  11.424
97613SOL    HW194678   6.667  14.321  11.442
97613SOL    HW294679   6.556  14.302  11.341
97614SOL     OW94680   7.207  12.319   2.252
97614SOL    HW194681   7.270  12.383   2.284
97614SOL    HW294682   7.230  12.237   2.296
97615SOL     OW94683   1.755  11.072   8.618
97615SOL    HW194684   1.786  11.128   8.548
97615SOL    HW294685   1.730  10.990   8.575
97616SOL     OW94686  14.672   6.066   7.273
97616SOL    HW194687  14.630   5.998   7.221
97616SOL    HW294688  14.705   6.128   7.208
97617SOL     OW94689   1.334  12.400   2.110
97617SOL    HW194690   1.293  12.438   2.032
97617SOL    HW294691   1.290  12.443   2.183
97618SOL     OW94692  14.736   4.856   3.592
97618SOL    HW194693  14.700   4.768   3.602
97618SOL    HW294694  14.690   4.908   3.658
97619SOL     OW94695  11.580   5.512  10.119
97619SOL    HW194696  11.626   5.581  10.166
97619SOL    HW294697  11.517   5.477  10.183
97620SOL     OW94698   0.189  12.050   7.647
97620SOL    HW194699   0.136  12.074   7.571
97620SOL    HW294700   0.128  12.052   7.721
97621SOL     OW94701   4.706  13.015   3.737
97621SOL    HW194702   4.676  13.003   3.646
97621SOL    HW294703   4.751  13.100   3.736
97622SOL     OW94704   8.686   8.848  10.589
97622SOL    HW194705   8.606   8.865  10.540
97622SOL    HW294706   8.659   8.790  10.661
97623SOL     OW94707   4.740   4.620   8.849
97623SOL    HW194708   4.804   4.577   8.793
97623SOL    HW294709   4.778   4.706   8.866
97624SOL     OW94710  12.510   5.565  13.321
97624SOL    HW194711  12.425   5.522  13.326
97624SOL    HW294712  12.512   5.623  13.397
97625SOL     OW94713   5.498  12.803   9.937
97625SOL    HW194714   5.583  12.760   9.947
97625SOL    HW294715   5.516  12.881   9.884
97626SOL     OW94716   2.491   9.457  11.594
97626SOL    HW194717   2.443   9.389  11.643
97626SOL    HW294718   2.426   9.495  11.536
97627SOL     OW94719  11.740  13.913   9.287
97627SOL    HW194720  11.717  13.873   9.204
97627SOL    HW294721  11.684  13.869   9.351
97628SOL     OW94722   9.582   0.035   1.615
97628SOL    HW194723   9.652   0.084   1.573
97628SOL    HW294724   9.606   0.032   1.707
97629SOL     OW94725   9.284   4.943  10.209
97629SOL    HW194726   9.224   4.898  10.148
97629SOL    HW294727   9.238   5.023  10.233
97630SOL     OW94728   0.444  12.719  12.753
97630SOL    HW194729   0.367  12.699  12.700
97630SOL    HW294730   0.409  12.729  12.842
97631SOL     OW94731   5.905   2.675   1.593
97631SOL    HW194732   5.885   2.728   1.670
97631SOL    HW294733   5.999   2.685   1.580
97632SOL     OW94734   1.020   5.172   8.138
97632SOL    HW194735   1.017   5.179   8.043
97632SOL    HW294736   0.938   5.128   8.162
97633SOL     OW94737   5.130   1.212   0.498
97633SOL    HW194738   5.157   1.235   0.409
97633SOL    HW294739   5.200   1.248   0.553
97634SOL     OW94740  14.833   7.525  14.211
97634SOL    HW194741  14.833   7.583  14.287
97634SOL    HW294742   0.044   7.497  14.201
97635SOL     OW94743  12.980   3.432  13.189
97635SOL    HW194744  13.069   3.399  13.184
97635SOL    HW294745  12.945   3.420  13.101
97636SOL     OW94746   7.206   0.556   2.111
97636SOL    HW194747   7.254   0.475   2.127
97636SOL    HW294748   7.274   0.624   2.111
97637SOL     OW94749   5.053   2.459   3.286
97637SOL    HW194750   5.127   2.422   3.334
97637SOL    HW294751   5.076   2.450   3.194
97638SOL     OW94752  14.668  11.891  10.453
97638SOL    HW194753  14.619  11.809  10.453
97638SOL    HW294754  14.751  11.871  10.410
97639SOL     OW94755   8.500   4.959   5.239
97639SOL    HW194756   8.470   4.995   5.323
97639SOL    HW294757   8.520   5.037   5.186
97640SOL     OW94758   6.166  11.195   9.374
97640SOL    HW194759   6.104  11.182   9.445
97640SOL    HW294760   6.220  11.269   9.402
97641SOL     OW94761   4.194   8.940   1.082
97641SOL    HW194762   4.236   9.008   1.135
97641SOL    HW294763   4.122   8.985   1.038
97642SOL     OW94764   8.564  11.800  11.306
97642SOL    HW194765   8.528  11.877  11.351
97642SOL    HW294766   8.542  11.726  11.363
97643SOL     OW94767   1.515   6.279  11.195
97643SOL    HW194768   1.456   6.209  11.168
97643SOL    HW294769   1.501   6.287  11.289
97644SOL     OW94770  13.459  12.515   0.250
97644SOL    HW194771  13.494  12.604   0.241
97644SOL    HW294772  13.396  12.521   0.322
97645SOL     OW94773  10.828  12.798  14.490
97645SOL    HW194774  10.907  12.846  14.517
97645SOL    HW294775  10.759  12.833  14.545
97646SOL     OW94776   1.815   7.833   9.888
97646SOL    HW194777   1.770   7.893   9.948
97646SOL    HW294778   1.851   7.890   9.820
97647SOL     OW94779  10.599   0.628   7.987
97647SOL    HW194780  10.614   0.564   8.057
97647SOL    HW294781  10.518   0.672   8.012
97648SOL     OW94782   9.019   3.712   9.083
97648SOL    HW194783   8.994   3.771   9.154
97648SOL    HW294784   8.945   3.716   9.022
97649SOL     OW94785  13.522   5.645  11.762
97649SOL    HW194786  13.605   5.597  11.767
97649SOL    HW294787  13.545   5.735  11.786
97650SOL     OW94788  10.968  11.063   9.562
97650SOL    HW194789  10.978  11.093   9.653
97650SOL    HW294790  11.043  11.005   9.548
97651SOL     OW94791   3.553   1.546   0.984
97651SOL    HW194792   3.602   1.616   0.942
97651SOL    HW294793   3.574   1.553   1.077
97652SOL     OW94794   9.063   3.076   0.651
97652SOL    HW194795   9.048   2.987   0.621
97652SOL    HW294796   9.118   3.067   0.729
97653SOL     OW94797   6.748   6.946   7.272
97653SOL    HW194798   6.664   6.925   7.313
97653SOL    HW294799   6.754   6.885   7.199
97654SOL     OW94800   5.315   6.542   5.968
97654SOL    HW194801   5.240   6.588   5.932
97654SOL    HW294802   5.292   6.527   6.060
97655SOL     OW94803   1.594   2.788   1.016
97655SOL    HW194804   1.604   2.726   0.944
97655SOL    HW294805   1.499   2.794   1.030
97656SOL     OW94806   4.535   3.635   1.038
97656SOL    HW194807   4.590   3.644   1.115
97656SOL    HW294808   4.489   3.552   1.051
97657SOL     OW94809   2.196   2.118   5.942
97657SOL    HW194810   2.143   2.122   6.022
97657SOL    HW294811   2.142   2.162   5.876
97658SOL     OW94812  13.606   2.700  14.290
97658SOL    HW194813  13.675   2.693  14.356
97658SOL    HW294814  13.544   2.631  14.313
97659SOL     OW94815   6.251  10.404   5.116
97659SOL    HW194816   6.172  10.381   5.166
97659SOL    HW294817   6.323  10.377   5.172
97660SOL     OW94818   8.959   8.941   2.412
97660SOL    HW194819   8.940   8.905   2.326
97660SOL    HW294820   8.939   8.870   2.473
97661SOL     OW94821  13.460  13.282   6.023
97661SOL    HW194822  13.476  13.249   5.934
97661SOL    HW294823  13.547  13.303   6.056
97662SOL     OW94824   6.685   4.807  11.804
97662SOL    HW194825   6.623   4.734  11.806
97662SOL    HW294826   6.720   4.807  11.715
97663SOL     OW94827   3.027   9.120  14.703
97663SOL    HW194828   3.012   9.214  14.715
97663SOL    HW294829   3.100   9.099  14.761
97664SOL     OW94830  12.741   2.065  12.734
97664SOL    HW194831  12.782   2.103  12.812
97664SOL    HW294832  12.814   2.028  12.684
97665SOL     OW94833   0.439   2.991   4.614
97665SOL    HW194834   0.416   2.926   4.548
97665SOL    HW294835   0.534   3.001   4.605
97666SOL     OW94836   3.953   0.954  13.998
97666SOL    HW194837   3.874   0.912  13.965
97666SOL    HW294838   3.939   1.047  13.983
97667SOL     OW94839   5.197   9.499   8.147
97667SOL    HW194840   5.179   9.512   8.054
97667SOL    HW294841   5.261   9.427   8.149
97668SOL     OW94842  11.280   1.474   5.192
97668SOL    HW194843  11.295   1.381   5.177
97668SOL    HW294844  11.213   1.498   5.127
97669SOL     OW94845  12.557   5.818   1.435
97669SOL    HW194846  12.527   5.732   1.462
97669SOL    HW294847  12.614   5.801   1.360
97670SOL     OW94848  14.388  14.090   8.381
97670SOL    HW194849  14.307  14.041   8.388
97670SOL    HW294850  14.456  14.023   8.373
97671SOL     OW94851  13.176  14.448  10.367
97671SOL    HW194852  13.124  14.378  10.405
97671SOL    HW294853  13.262  14.439  10.408
97672SOL     OW94854   1.087   0.964  14.214
97672SOL    HW194855   1.013   1.023  14.229
97672SOL    HW294856   1.163   1.011  14.247
97673SOL     OW94857   7.326   0.928  14.773
97673SOL    HW194858   7.366   0.952  14.689
97673SOL    HW294859   7.263   0.998  14.790
97674SOL     OW94860   6.455  14.127  14.457
97674SOL    HW194861   6.529  14.087  14.410
97674SOL    HW294862   6.386  14.060  14.455
97675SOL     OW94863   2.231   3.505   4.216
97675SOL    HW194864   2.268   3.458   4.291
97675SOL    HW294865   2.138   3.512   4.236
97676SOL     OW94866   6.552   0.984   8.998
97676SOL    HW194867   6.621   0.993   9.064
97676SOL    HW294868   6.551   1.067   8.952
97677SOL     OW94869   0.558   0.150   3.051
97677SOL    HW194870   0.523   0.202   3.123
97677SOL    HW294871   0.486   0.143   2.989
97678SOL     OW94872   8.517  12.541   3.021
97678SOL    HW194873   8.425  12.520   3.005
97678SOL    HW294874   8.518  12.635   3.037
97679SOL     OW94875  13.582   4.730   7.025
97679SOL    HW194876  13.565   4.760   7.114
97679SOL    HW294877  13.546   4.641   7.022
97680SOL     OW94878   6.247   4.416   4.377
97680SOL    HW194879   6.219   4.440   4.466
97680SOL    HW294880   6.270   4.500   4.336
97681SOL     OW94881  11.065   4.122  10.245
97681SOL    HW194882  10.974   4.093  10.237
97681SOL    HW294883  11.089   4.101  10.335
97682SOL     OW94884   1.861   3.766  10.891
97682SOL    HW194885   1.952   3.795  10.896
97682SOL    HW294886   1.848   3.712  10.969
97683SOL     OW94887   5.133   6.343  11.562
97683SOL    HW194888   5.118   6.436  11.574
97683SOL    HW294889   5.045   6.304  11.565
97684SOL     OW94890   1.306   0.666   4.649
97684SOL    HW194891   1.382   0.609   4.658
97684SOL    HW294892   1.340   0.744   4.605
97685SOL     OW94893  10.474   5.920   4.384
97685SOL    HW194894  10.505   5.881   4.302
97685SOL    HW294895  10.484   5.850   4.449
97686SOL     OW94896   5.370  10.252  10.928
97686SOL    HW194897   5.318  10.209  10.995
97686SOL    HW294898   5.461  10.240  10.957
97687SOL     OW94899   3.309   9.483  10.118
97687SOL    HW194900   3.378   9.547  10.102
97687SOL    HW294901   3.228   9.531  10.103
97688SOL     OW94902   7.926   1.453   4.306
97688SOL    HW194903   7.955   1.505   4.381
97688SOL    HW294904   7.974   1.489   4.231
97689SOL     OW94905   3.028   6.248  11.596
97689SOL    HW194906   3.091   6.318  11.615
97689SOL    HW294907   2.944   6.292  11.586
97690SOL     OW94908   1.054   8.255  11.861
97690SOL    HW194909   1.106   8.316  11.913
97690SOL    HW294910   0.964   8.271  11.889
97691SOL     OW94911   5.882   6.931   5.673
97691SOL    HW194912   5.923   7.008   5.713
97691SOL    HW294913   5.828   6.967   5.603
97692SOL     OW94914  14.568  11.364   5.324
97692SOL    HW194915  14.651  11.392   5.284
97692SOL    HW294916  14.593  11.334   5.411
97693SOL     OW94917   8.416  13.673  13.438
97693SOL    HW194918   8.396  13.767  13.437
97693SOL    HW294919   8.446  13.657  13.528
97694SOL     OW94920   2.427   3.697   4.662
97694SOL    HW194921   2.429   3.602   4.649
97694SOL    HW294922   2.359   3.728   4.603
97695SOL     OW94923   1.665  10.976   6.171
97695SOL    HW194924   1.688  10.926   6.092
97695SOL    HW294925   1.700  10.925   6.243
97696SOL     OW94926   3.046   6.021   8.044
97696SOL    HW194927   2.972   5.963   8.060
97696SOL    HW294928   3.094   5.980   7.972
97697SOL     OW94929   3.127  10.106  12.276
97697SOL    HW194930   3.190  10.111  12.205
97697SOL    HW294931   3.139  10.019  12.314
97698SOL     OW94932   9.415   9.689   9.098
97698SOL    HW194933   9.446   9.598   9.104
97698SOL    HW294934   9.330   9.688   9.141
97699SOL     OW94935   8.254   3.199   4.913
97699SOL    HW194936   8.304   3.145   4.852
97699SOL    HW294937   8.310   3.205   4.991
97700SOL     OW94938   4.547   1.980   6.915
97700SOL    HW194939   4.506   1.927   6.983
97700SOL    HW294940   4.631   2.006   6.952
97701SOL     OW94941  13.250  12.077  14.499
97701SOL    HW194942  13.180  12.127  14.457
97701SOL    HW294943  13.330  12.117  14.467
97702SOL     OW94944  12.840   1.252   4.477
97702SOL    HW194945  12.876   1.337   4.505
97702SOL    HW294946  12.898   1.187   4.518
97703SOL     OW94947   1.972  13.314  11.186
97703SOL    HW194948   1.988  13.357  11.102
97703SOL    HW294949   1.938  13.228  11.163
97704SOL     OW94950  12.004   4.177  11.131
97704SOL    HW194951  11.983   4.224  11.212
97704SOL    HW294952  11.960   4.227  11.062
97705SOL     OW94953   2.282   3.871   3.108
97705SOL    HW194954   2.366   3.853   3.151
97705SOL    HW294955   2.226   3.901   3.180
97706SOL     OW94956   8.117  10.254  11.555
97706SOL    HW194957   8.185  10.262  11.488
97706SOL    HW294958   8.129  10.167  11.592
97707SOL     OW94959   0.673   4.034   9.881
97707SOL    HW194960   0.721   3.980   9.818
97707SOL    HW294961   0.659   3.977   9.956
97708SOL     OW94962   7.350   5.254   0.950
97708SOL    HW194963   7.265   5.216   0.974
97708SOL    HW294964   7.369   5.316   1.020
97709SOL     OW94965  14.626   8.901  14.535
97709SOL    HW194966  14.695   8.848  14.497
97709SOL    HW294967  14.621   8.872  14.626
97710SOL     OW94968  14.176  10.050  11.903
97710SOL    HW194969  14.249  10.002  11.943
97710SOL    HW294970  14.217  10.131  11.870
97711SOL     OW94971   4.593  10.370   9.643
97711SOL    HW194972   4.552  10.332   9.721
97711SOL    HW294973   4.526  10.363   9.575
97712SOL     OW94974   1.260  13.224  10.939
97712SOL    HW194975   1.228  13.248  11.025
97712SOL    HW294976   1.282  13.307  10.897
97713SOL     OW94977   4.928  13.471  10.642
97713SOL    HW194978   4.878  13.433  10.569
97713SOL    HW294979   4.868  13.468  10.716
97714SOL     OW94980  12.881   2.094  12.364
97714SOL    HW194981  12.933   2.014  12.366
97714SOL    HW294982  12.862   2.109  12.272
97715SOL     OW94983   6.692   7.188   9.504
97715SOL    HW194984   6.708   7.136   9.425
97715SOL    HW294985   6.681   7.278   9.471
97716SOL     OW94986  12.501   7.760   8.613
97716SOL    HW194987  12.445   7.738   8.539
97716SOL    HW294988  12.514   7.855   8.605
97717SOL     OW94989   9.152  14.738  11.675
97717SOL    HW194990   9.222  14.721  11.738
97717SOL    HW294991   9.169  14.679  11.603
97718SOL     OW94992  13.672   0.600  14.218
97718SOL    HW194993  13.740   0.649  14.263
97718SOL    HW294994  13.605   0.584  14.285
97719SOL     OW94995   8.608  10.522   2.372
97719SOL    HW194996   8.668  10.560   2.437
97719SOL    HW294997   8.523  10.561   2.394
97720SOL     OW94998  14.154  13.337   1.567
97720SOL    HW194999  14.070  13.380   1.552
97720SOL    HW295000  14.188  13.379   1.646
97721SOL     OW95001   5.839  13.481  11.468
97721SOL    HW195002   5.885  13.496  11.385
97721SOL    HW295003   5.894  13.523  11.534
97722SOL     OW95004   4.420   4.807  13.700
97722SOL    HW195005   4.335   4.782  13.737
97722SOL    HW295006   4.454   4.726  13.662
97723SOL     OW95007  13.988   0.202  14.638
97723SOL    HW195008  14.007   0.290  14.606
97723SOL    HW295009  13.978   0.150  14.558
97724SOL     OW95010  13.341  12.235  11.733
97724SOL    HW195011  13.410  12.301  11.725
97724SOL    HW295012  13.305  12.226  11.645
97725SOL     OW95013   4.874   5.374   2.888
97725SOL    HW195014   4.825   5.322   2.950
97725SOL    HW295015   4.930   5.430   2.942
97726SOL     OW95016  11.072  14.093   9.548
97726SOL    HW195017  11.063  13.999   9.561
97726SOL    HW295018  11.047  14.107   9.456
97727SOL     OW95019   2.957   8.772  13.940
97727SOL    HW195020   3.018   8.762  14.013
97727SOL    HW295021   2.926   8.683  13.923
97728SOL     OW95022   3.761   9.610   2.112
97728SOL    HW195023   3.769   9.537   2.051
97728SOL    HW295024   3.697   9.669   2.073
97729SOL     OW95025   6.673  10.389   9.308
97729SOL    HW195026   6.656  10.482   9.317
97729SOL    HW295027   6.678  10.374   9.214
97730SOL     OW95028   7.777   0.883   4.976
97730SOL    HW195029   7.855   0.843   5.015
97730SOL    HW295030   7.811   0.945   4.912
97731SOL     OW95031  10.229   4.542  13.405
97731SOL    HW195032  10.263   4.553  13.316
97731SOL    HW295033  10.247   4.625  13.448
97732SOL     OW95034  13.421  11.386   2.318
97732SOL    HW195035  13.413  11.311   2.259
97732SOL    HW295036  13.502  11.429   2.291
97733SOL     OW95037   7.111   1.188  13.764
97733SOL    HW195038   7.113   1.115  13.702
97733SOL    HW295039   7.131   1.265  13.711
97734SOL     OW95040  14.838   9.409   6.064
97734SOL    HW195041  14.773   9.339   6.068
97734SOL    HW295042  14.864   9.421   6.155
97735SOL     OW95043   2.838   6.156   8.503
97735SOL    HW195044   2.913   6.216   8.507
97735SOL    HW295045   2.877   6.069   8.497
97736SOL     OW95046   8.119  13.378   5.667
97736SOL    HW195047   8.027  13.353   5.677
97736SOL    HW295048   8.115  13.470   5.641
97737SOL     OW95049   9.988  13.129   9.818
97737SOL    HW195050   9.893  13.127   9.831
97737SOL    HW295051  10.006  13.051   9.765
97738SOL     OW95052   3.500   6.585   3.673
97738SOL    HW195053   3.583   6.595   3.720
97738SOL    HW295054   3.468   6.674   3.662
97739SOL     OW95055   2.018   3.724   4.075
97739SOL    HW195056   2.026   3.726   3.980
97739SOL    HW295057   1.996   3.813   4.100
97740SOL     OW95058  10.766   8.886  13.204
97740SOL    HW195059  10.670   8.889  13.203
97740SOL    HW295060  10.790   8.864  13.114
97741SOL     OW95061   5.437  14.468   3.986
97741SOL    HW195062   5.451  14.546   4.039
97741SOL    HW295063   5.418  14.502   3.898
97742SOL     OW95064  13.736  11.382  10.131
97742SOL    HW195065  13.684  11.308  10.101
97742SOL    HW295066  13.683  11.422  10.201
97743SOL     OW95067  10.789   7.464  14.143
97743SOL    HW195068  10.808   7.458  14.049
97743SOL    HW295069  10.845   7.397  14.183
97744SOL     OW95070   8.998   7.168  10.253
97744SOL    HW195071   9.018   7.088  10.303
97744SOL    HW295072   8.969   7.136  10.167
97745SOL     OW95073   2.533  10.063   3.815
97745SOL    HW195074   2.473  10.124   3.773
97745SOL    HW295075   2.490  10.039   3.897
97746SOL     OW95076  10.567   6.293  12.444
97746SOL    HW195077  10.472   6.285  12.451
97746SOL    HW295078  10.584   6.386  12.460
97747SOL     OW95079   0.653   9.499   8.225
97747SOL    HW195080   0.657   9.425   8.284
97747SOL    HW295081   0.736   9.496   8.177
97748SOL     OW95082   3.795  13.339  11.402
97748SOL    HW195083   3.725  13.363  11.462
97748SOL    HW295084   3.870  13.392  11.430
97749SOL     OW95085  13.190  13.908   3.188
97749SOL    HW195086  13.150  13.994   3.197
97749SOL    HW295087  13.131  13.848   3.233
97750SOL     OW95088   0.607   7.489   5.678
97750SOL    HW195089   0.596   7.584   5.681
97750SOL    HW295090   0.702   7.476   5.683
97751SOL     OW95091   5.833  11.883   2.926
97751SOL    HW195092   5.865  11.871   3.015
97751SOL    HW295093   5.776  11.808   2.911
97752SOL     OW95094  13.681   8.456   2.299
97752SOL    HW195095  13.631   8.534   2.275
97752SOL    HW295096  13.619   8.384   2.290
97753SOL     OW95097   1.964   2.734  12.459
97753SOL    HW195098   1.905   2.678  12.510
97753SOL    HW295099   1.979   2.685  12.378
97754SOL     OW95100   6.567  11.939  14.157
97754SOL    HW195101   6.545  11.954  14.249
97754SOL    HW295102   6.588  11.846  14.152
97755SOL     OW95103   6.077   3.738   0.931
97755SOL    HW195104   6.094   3.826   0.964
97755SOL    HW295105   6.157   3.689   0.951
97756SOL     OW95106  10.862   2.153  11.853
97756SOL    HW195107  10.954   2.129  11.842
97756SOL    HW295108  10.861   2.249  11.851
97757SOL     OW95109   7.313   0.122   2.982
97757SOL    HW195110   7.277   0.189   2.924
97757SOL    HW295111   7.384   0.167   3.028
97758SOL     OW95112   5.359  11.148   9.193
97758SOL    HW195113   5.370  11.160   9.288
97758SOL    HW295114   5.435  11.098   9.166
97759SOL     OW95115   6.131   1.182  12.235
97759SOL    HW195116   6.152   1.267  12.196
97759SOL    HW295117   6.214   1.136  12.238
97760SOL     OW95118   2.348  14.285  10.519
97760SOL    HW195119   2.256  14.273  10.497
97760SOL    HW295120   2.372  14.206  10.568
97761SOL     OW95121  12.448  14.236  10.400
97761SOL    HW195122  12.390  14.180  10.349
97761SOL    HW295123  12.452  14.318  10.350
97762SOL     OW95124   7.431  13.557   6.268
97762SOL    HW195125   7.498  13.584   6.331
97762SOL    HW295126   7.471  13.486   6.219
97763SOL     OW95127   9.666  11.024   2.647
97763SOL    HW195128   9.572  11.041   2.656
97763SOL    HW295129   9.672  10.968   2.570
97764SOL     OW95130   8.059   9.146  14.332
97764SOL    HW195131   8.080   9.094  14.254
97764SOL    HW295132   8.019   9.084  14.392
97765SOL     OW95133  14.553   1.667  10.532
97765SOL    HW195134  14.545   1.653  10.438
97765SOL    HW295135  14.493   1.738  10.552
97766SOL     OW95136   5.598   1.658   4.592
97766SOL    HW195137   5.556   1.718   4.654
97766SOL    HW295138   5.561   1.573   4.614
97767SOL     OW95139   2.579   4.868  14.607
97767SOL    HW195140   2.593   4.901  14.695
97767SOL    HW295141   2.579   4.947  14.552
97768SOL     OW95142   0.367  12.260   1.987
97768SOL    HW195143   0.306  12.192   2.017
97768SOL    HW295144   0.388  12.310   2.065
97769SOL     OW95145  12.716  13.473  13.482
97769SOL    HW195146  12.700  13.527  13.560
97769SOL    HW295147  12.632  13.432  13.463
97770SOL     OW95148   2.708   8.465  12.422
97770SOL    HW195149   2.775   8.409  12.384
97770SOL    HW295150   2.697   8.536  12.359
97771SOL     OW95151   7.677   3.470   2.967
97771SOL    HW195152   7.667   3.396   3.027
97771SOL    HW295153   7.649   3.436   2.882
97772SOL     OW95154   5.461  12.951   9.520
97772SOL    HW195155   5.478  12.892   9.446
97772SOL    HW295156   5.522  12.922   9.588
97773SOL     OW95157   2.164   1.148   0.441
97773SOL    HW195158   2.154   1.112   0.529
97773SOL    HW295159   2.079   1.188   0.422
97774SOL     OW95160   8.594   2.721  12.568
97774SOL    HW195161   8.575   2.675  12.486
97774SOL    HW295162   8.546   2.804  12.560
97775SOL     OW95163   4.828   8.273  13.764
97775SOL    HW195164   4.805   8.186  13.732
97775SOL    HW295165   4.838   8.326  13.684
97776SOL     OW95166   4.168   0.688   4.102
97776SOL    HW195167   4.221   0.667   4.025
97776SOL    HW295168   4.190   0.620   4.166
97777SOL     OW95169   5.922   7.574  10.176
97777SOL    HW195170   5.959   7.617  10.253
97777SOL    HW295171   5.994   7.570  10.113
97778SOL     OW95172  12.174   7.830   6.372
97778SOL    HW195173  12.093   7.879   6.386
97778SOL    HW295174  12.171   7.804   6.280
97779SOL     OW95175  14.150   4.403  11.974
97779SOL    HW195176  14.127   4.341  12.044
97779SOL    HW295177  14.243   4.422  11.989
97780SOL     OW95178   0.999   6.335  10.305
97780SOL    HW195179   0.937   6.352  10.234
97780SOL    HW295180   1.085   6.337  10.264
97781SOL     OW95181  13.957   1.271   1.879
97781SOL    HW195182  13.941   1.356   1.919
97781SOL    HW295183  13.874   1.224   1.890
97782SOL     OW95184   4.639   9.827   6.660
97782SOL    HW195185   4.727   9.802   6.688
97782SOL    HW295186   4.649   9.916   6.627
97783SOL     OW95187   3.048  14.397   5.008
97783SOL    HW195188   3.098  14.455   5.066
97783SOL    HW295189   3.110  14.329   4.983
97784SOL     OW95190  12.322   7.075   8.707
97784SOL    HW195191  12.304   6.998   8.761
97784SOL    HW295192  12.236   7.106   8.679
97785SOL     OW95193   3.301   3.669   1.252
97785SOL    HW195194   3.232   3.627   1.200
97785SOL    HW295195   3.286   3.763   1.241
97786SOL     OW95196   2.850   1.170  11.037
97786SOL    HW195197   2.815   1.148  11.123
97786SOL    HW295198   2.777   1.155  10.977
97787SOL     OW95199  10.802   0.801  13.426
97787SOL    HW195200  10.838   0.729  13.374
97787SOL    HW295201  10.878   0.842  13.467
97788SOL     OW95202   0.734  13.222   7.283
97788SOL    HW195203   0.754  13.199   7.374
97788SOL    HW295204   0.644  13.254   7.285
97789SOL     OW95205   1.034   7.322   3.428
97789SOL    HW195206   1.027   7.249   3.367
97789SOL    HW295207   1.112   7.303   3.480
97790SOL     OW95208   0.770   2.207  10.126
97790SOL    HW195209   0.809   2.161  10.052
97790SOL    HW295210   0.840   2.263  10.160
97791SOL     OW95211   5.001   2.823   7.748
97791SOL    HW195212   4.966   2.820   7.838
97791SOL    HW295213   4.930   2.789   7.694
97792SOL     OW95214  13.309   7.725  12.145
97792SOL    HW195215  13.344   7.747  12.059
97792SOL    HW295216  13.380   7.742  12.206
97793SOL     OW95217   9.600  11.942   9.412
97793SOL    HW195218   9.667  11.972   9.473
97793SOL    HW295219   9.584  11.851   9.437
97794SOL     OW95220   0.967  11.681   7.091
97794SOL    HW195221   1.060  11.687   7.071
97794SOL    HW295222   0.953  11.589   7.116
97795SOL     OW95223  14.144   1.158  13.809
97795SOL    HW195224  14.174   1.067  13.803
97795SOL    HW295225  14.070   1.162  13.748
97796SOL     OW95226   6.619  11.198   6.857
97796SOL    HW195227   6.638  11.235   6.942
97796SOL    HW295228   6.702  11.200   6.810
97797SOL     OW95229   6.964   7.304  12.861
97797SOL    HW195230   7.026   7.331  12.793
97797SOL    HW295231   6.956   7.209  12.850
97798SOL     OW95232   5.832  14.441   9.920
97798SOL    HW195233   5.896  14.390   9.871
97798SOL    HW295234   5.754  14.442   9.864
97799SOL     OW95235   8.441   0.709   4.987
97799SOL    HW195236   8.371   0.774   4.989
97799SOL    HW295237   8.506   0.746   4.927
97800SOL     OW95238  11.287   1.000  10.251
97800SOL    HW195239  11.241   0.966  10.174
97800SOL    HW295240  11.220   1.048  10.300
97801SOL     OW95241  10.828  13.765   7.082
97801SOL    HW195242  10.906  13.799   7.038
97801SOL    HW295243  10.772  13.733   7.011
97802SOL     OW95244   5.052   4.773   4.933
97802SOL    HW195245   5.105   4.808   4.861
97802SOL    HW295246   5.001   4.848   4.963
97803SOL     OW95247   1.459   1.940  13.826
97803SOL    HW195248   1.504   2.017  13.792
97803SOL    HW295249   1.506   1.865  13.790
97804SOL     OW95250   5.999   5.750   7.462
97804SOL    HW195251   5.917   5.794   7.483
97804SOL    HW295252   5.980   5.657   7.474
97805SOL     OW95253   7.906   1.520   6.973
97805SOL    HW195254   7.914   1.499   7.066
97805SOL    HW295255   7.937   1.442   6.927
97806SOL     OW95256  11.387   4.171  11.673
97806SOL    HW195257  11.435   4.093  11.648
97806SOL    HW295258  11.295   4.144  11.672
97807SOL     OW95259   9.293  10.388   0.922
97807SOL    HW195260   9.288  10.341   0.838
97807SOL    HW295261   9.306  10.479   0.898
97808SOL     OW95262   8.784   6.497   1.881
97808SOL    HW195263   8.714   6.446   1.842
97808SOL    HW295264   8.834   6.530   1.807
97809SOL     OW95265   2.690   6.849   4.187
97809SOL    HW195266   2.651   6.873   4.103
97809SOL    HW295267   2.782   6.833   4.166
97810SOL     OW95268   5.087   9.542  12.085
97810SOL    HW195269   5.182   9.542  12.076
97810SOL    HW295270   5.054   9.561  11.997
97811SOL     OW95271  14.745  13.473  11.606
97811SOL    HW195272  14.738  13.417  11.528
97811SOL    HW295273  14.654  13.491  11.631
97812SOL     OW95274   9.646   2.255  11.559
97812SOL    HW195275   9.661   2.344  11.593
97812SOL    HW295276   9.733   2.216  11.556
97813SOL     OW95277  11.657  12.383   6.079
97813SOL    HW195278  11.715  12.447   6.119
97813SOL    HW295279  11.669  12.303   6.130
97814SOL     OW95280  14.546  12.241   0.250
97814SOL    HW195281  14.637  12.227   0.276
97814SOL    HW295282  14.495  12.206   0.323
97815SOL     OW95283   4.773   1.624   3.240
97815SOL    HW195284   4.807   1.707   3.206
97815SOL    HW295285   4.688   1.646   3.277
97816SOL     OW95286   9.394   8.150  11.352
97816SOL    HW195287   9.312   8.104  11.371
97816SOL    HW295288   9.407   8.139  11.258
97817SOL     OW95289   4.010  11.376   4.360
97817SOL    HW195290   4.008  11.378   4.456
97817SOL    HW295291   4.014  11.468   4.334
97818SOL     OW95292   4.878   2.686  14.328
97818SOL    HW195293   4.856   2.662  14.418
97818SOL    HW295294   4.810   2.646  14.274
97819SOL     OW95295   3.610  12.078   5.443
97819SOL    HW195296   3.596  11.983   5.437
97819SOL    HW295297   3.522  12.115   5.441
97820SOL     OW95298   2.693   0.424  10.333
97820SOL    HW195299   2.673   0.513  10.362
97820SOL    HW295300   2.669   0.368  10.408
97821SOL     OW95301   1.365  10.751   2.976
97821SOL    HW195302   1.433  10.707   3.028
97821SOL    HW295303   1.318  10.805   3.040
97822SOL     OW95304   6.965   7.635  10.027
97822SOL    HW195305   6.883   7.676  10.001
97822SOL    HW295306   7.032   7.702  10.010
97823SOL     OW95307   1.013   2.725   9.134
97823SOL    HW195308   1.031   2.793   9.069
97823SOL    HW295309   0.970   2.655   9.084
97824SOL     OW95310   3.914  13.424   7.292
97824SOL    HW195311   3.996  13.403   7.248
97824SOL    HW295312   3.847  13.420   7.224
97825SOL     OW95313   1.999  11.254   3.263
97825SOL    HW195314   2.048  11.322   3.309
97825SOL    HW295315   1.921  11.298   3.230
97826SOL     OW95316   0.590  10.980   9.388
97826SOL    HW195317   0.553  10.896   9.415
97826SOL    HW295318   0.514  11.032   9.361
97827SOL     OW95319  10.519  11.617  10.319
97827SOL    HW195320  10.610  11.588  10.310
97827SOL    HW295321  10.470  11.555  10.265
97828SOL     OW95322   5.139  14.591  14.410
97828SOL    HW195323   5.113  14.576  14.501
97828SOL    HW295324   5.232  14.614  14.415
97829SOL     OW95325   0.390  11.541   5.937
97829SOL    HW195326   0.331  11.573   5.868
97829SOL    HW295327   0.476  11.538   5.894
97830SOL     OW95328   5.173   0.667   5.354
97830SOL    HW195329   5.107   0.734   5.334
97830SOL    HW295330   5.228   0.664   5.276
97831SOL     OW95331  11.549  13.518  11.291
97831SOL    HW195332  11.573  13.506  11.382
97831SOL    HW295333  11.503  13.438  11.267
97832SOL     OW95334  10.420   3.041  10.345
97832SOL    HW195335  10.486   3.107  10.367
97832SOL    HW295336  10.337   3.084  10.361
97833SOL     OW95337   5.813  13.996  11.090
97833SOL    HW195338   5.878  13.955  11.148
97833SOL    HW295339   5.864  14.024  11.014
97834SOL     OW95340  11.449  14.439  13.367
97834SOL    HW195341  11.411  14.497  13.300
97834SOL    HW295342  11.380  14.431  13.433
97835SOL     OW95343   4.117   6.921  13.879
97835SOL    HW195344   4.135   6.959  13.965
97835SOL    HW295345   4.061   6.984  13.835
97836SOL     OW95346   9.613  10.381   2.752
97836SOL    HW195347   9.592  10.472   2.733
97836SOL    HW295348   9.540  10.349   2.806
97837SOL     OW95349   5.825   6.849  10.349
97837SOL    HW195350   5.818   6.870  10.442
97837SOL    HW295351   5.749   6.795  10.330
97838SOL     OW95352   6.474  12.417   2.504
97838SOL    HW195353   6.562  12.447   2.528
97838SOL    HW295354   6.479  12.322   2.505
97839SOL     OW95355   4.658   7.119  14.285
97839SOL    HW195356   4.720   7.174  14.333
97839SOL    HW295357   4.711   7.073  14.220
97840SOL     OW95358   2.112   1.180  12.171
97840SOL    HW195359   2.047   1.242  12.138
97840SOL    HW295360   2.155   1.147  12.092
97841SOL     OW95361  10.744   7.509   4.741
97841SOL    HW195362  10.686   7.490   4.815
97841SOL    HW295363  10.832   7.500   4.776
97842SOL     OW95364   0.896   3.691  14.556
97842SOL    HW195365   0.906   3.599  14.531
97842SOL    HW295366   0.955   3.702  14.631
97843SOL     OW95367   4.847   2.317  10.078
97843SOL    HW195368   4.819   2.226  10.065
97843SOL    HW295369   4.943   2.312  10.084
97844SOL     OW95370   8.304  13.895   6.708
97844SOL    HW195371   8.339  13.869   6.623
97844SOL    HW295372   8.378  13.935   6.753
97845SOL     OW95373   7.187  10.635   6.862
97845SOL    HW195374   7.094  10.625   6.884
97845SOL    HW295375   7.232  10.571   6.917
97846SOL     OW95376   3.324  13.425   5.971
97846SOL    HW195377   3.387  13.361   6.005
97846SOL    HW295378   3.355  13.445   5.883
97847SOL     OW95379   5.364   3.661   4.068
97847SOL    HW195380   5.438   3.636   4.012
97847SOL    HW295381   5.289   3.665   4.008
97848SOL     OW95382   4.013   6.579   9.575
97848SOL    HW195383   4.075   6.506   9.579
97848SOL    HW295384   3.928   6.537   9.562
97849SOL     OW95385   2.239  13.061   6.664
97849SOL    HW195386   2.177  13.049   6.737
97849SOL    HW295387   2.237  13.156   6.647
97850SOL     OW95388  12.010   3.437   2.249
97850SOL    HW195389  11.957   3.426   2.328
97850SOL    HW295390  12.037   3.529   2.251
97851SOL     OW95391   1.828  12.506  11.159
97851SOL    HW195392   1.855  12.455  11.082
97851SOL    HW295393   1.825  12.442  11.230
97852SOL     OW95394   4.148   1.881  13.273
97852SOL    HW195395   4.075   1.913  13.220
97852SOL    HW295396   4.111   1.809  13.325
97853SOL     OW95397   1.143  11.811   8.467
97853SOL    HW195398   1.077  11.876   8.443
97853SOL    HW295399   1.095  11.744   8.515
97854SOL     OW95400   8.873   7.410  12.657
97854SOL    HW195401   8.920   7.350  12.714
97854SOL    HW295402   8.883   7.373  12.569
97855SOL     OW95403   3.994   5.721   8.501
97855SOL    HW195404   4.025   5.782   8.567
97855SOL    HW295405   4.070   5.667   8.480
97856SOL     OW95406   6.831   7.959   7.220
97856SOL    HW195407   6.803   8.027   7.159
97856SOL    HW295408   6.848   7.882   7.165
97857SOL     OW95409   5.682   1.184   0.047
97857SOL    HW195410   5.753   1.159   0.107
97857SOL    HW295411   5.682   1.117  14.859
97858SOL     OW95412  14.306   6.650   7.511
97858SOL    HW195413  14.272   6.733   7.478
97858SOL    HW295414  14.271   6.584   7.451
97859SOL     OW95415   2.927   1.735   0.684
97859SOL    HW195416   2.880   1.779   0.754
97859SOL    HW295417   2.860   1.691   0.633
97860SOL     OW95418   0.670  14.336   0.152
97860SOL    HW195419   0.655  14.393   0.076
97860SOL    HW295420   0.608  14.265   0.141
97861SOL     OW95421   7.414   9.969  10.064
97861SOL    HW195422   7.324   9.944  10.043
97861SOL    HW295423   7.464   9.949   9.985
97862SOL     OW95424   3.551   4.812  11.621
97862SOL    HW195425   3.602   4.731  11.629
97862SOL    HW295426   3.460   4.782  11.616
97863SOL     OW95427   2.455  11.665  11.985
97863SOL    HW195428   2.447  11.570  11.978
97863SOL    HW295429   2.489  11.691  11.899
97864SOL     OW95430   5.905  10.442   9.611
97864SOL    HW195431   5.984  10.490   9.586
97864SOL    HW295432   5.927  10.405   9.697
97865SOL     OW95433   8.735  10.783   8.780
97865SOL    HW195434   8.696  10.862   8.817
97865SOL    HW295435   8.801  10.816   8.718
97866SOL     OW95436   4.485   7.773   5.121
97866SOL    HW195437   4.492   7.814   5.035
97866SOL    HW295438   4.571   7.787   5.161
97867SOL     OW95439   9.426   1.014  13.632
97867SOL    HW195440   9.520   1.024  13.615
97867SOL    HW295441   9.384   1.041  13.551
97868SOL     OW95442  10.079   3.395   0.208
97868SOL    HW195443  10.002   3.443   0.178
97868SOL    HW295444  10.045   3.308   0.230
97869SOL     OW95445  11.642  14.181   6.533
97869SOL    HW195446  11.597  14.113   6.583
97869SOL    HW295447  11.725  14.141   6.508
97870SOL     OW95448   9.844   5.230  14.670
97870SOL    HW195449   9.841   5.323  14.693
97870SOL    HW295450   9.784   5.221  14.597
97871SOL     OW95451  10.489   4.815   1.309
97871SOL    HW195452  10.489   4.851   1.397
97871SOL    HW295453  10.567   4.760   1.305
97872SOL     OW95454   4.659   7.788  10.705
97872SOL    HW195455   4.633   7.813  10.794
97872SOL    HW295456   4.662   7.692  10.708
97873SOL     OW95457   4.137  13.081   2.688
97873SOL    HW195458   4.132  13.169   2.726
97873SOL    HW295459   4.199  13.034   2.744
97874SOL     OW95460   0.084   5.633   9.449
97874SOL    HW195461   0.140   5.689   9.397
97874SOL    HW295462   0.141   5.596   9.516
97875SOL     OW95463   4.622   4.659   5.641
97875SOL    HW195464   4.674   4.612   5.575
97875SOL    HW295465   4.599   4.742   5.599
97876SOL     OW95466   1.295   9.313   1.277
97876SOL    HW195467   1.212   9.267   1.291
97876SOL    HW295468   1.289   9.391   1.332
97877SOL     OW95469  10.329  11.338   3.479
97877SOL    HW195470  10.301  11.297   3.397
97877SOL    HW295471  10.383  11.271   3.522
97878SOL     OW95472  14.678  11.584   2.011
97878SOL    HW195473  14.650  11.530   2.085
97878SOL    HW295474  14.772  11.599   2.026
97879SOL     OW95475   8.086  11.490  11.270
97879SOL    HW195476   8.015  11.554  11.273
97879SOL    HW295477   8.144  11.521  11.201
97880SOL     OW95478  14.118  14.287   5.466
97880SOL    HW195479  14.034  14.243   5.448
97880SOL    HW295480  14.096  14.359   5.524
97881SOL     OW95481   2.383   2.162  10.915
97881SOL    HW195482   2.336   2.189  10.994
97881SOL    HW295483   2.464   2.122  10.948
97882SOL     OW95484   6.859   9.465  11.672
97882SOL    HW195485   6.912   9.475  11.593
97882SOL    HW295486   6.903   9.519  11.737
97883SOL     OW95487   3.536  10.412   0.325
97883SOL    HW195488   3.472  10.412   0.396
97883SOL    HW295489   3.566  10.322   0.320
97884SOL     OW95490   8.625   1.157   3.268
97884SOL    HW195491   8.609   1.129   3.178
97884SOL    HW295492   8.574   1.096   3.322
97885SOL     OW95493   7.612   6.296   1.799
97885SOL    HW195494   7.679   6.325   1.738
97885SOL    HW295495   7.600   6.203   1.778
97886SOL     OW95496  13.814   7.169   0.887
97886SOL    HW195497  13.798   7.080   0.858
97886SOL    HW295498  13.909   7.178   0.887
97887SOL     OW95499   1.478  10.549  10.459
97887SOL    HW195500   1.473  10.464  10.415
97887SOL    HW295501   1.456  10.612  10.390
97888SOL     OW95502  14.826   3.170   3.565
97888SOL    HW195503  14.757   3.109   3.540
97888SOL    HW295504  14.785   3.256   3.561
97889SOL     OW95505   6.924   1.662   9.086
97889SOL    HW195506   7.005   1.612   9.086
97889SOL    HW295507   6.856   1.598   9.106
97890SOL     OW95508   4.360   5.214   2.932
97890SOL    HW195509   4.406   5.276   2.990
97890SOL    HW295510   4.430   5.171   2.883
97891SOL     OW95511   4.213  11.341   8.507
97891SOL    HW195512   4.181  11.262   8.462
97891SOL    HW295513   4.137  11.399   8.510
97892SOL     OW95514   6.165  13.931   9.426
97892SOL    HW195515   6.164  13.871   9.351
97892SOL    HW295516   6.197  13.878   9.499
97893SOL     OW95517  11.881   6.582   8.223
97893SOL    HW195518  11.935   6.534   8.286
97893SOL    HW295519  11.895   6.536   8.140
97894SOL     OW95520   6.846  12.910  14.665
97894SOL    HW195521   6.791  12.981  14.697
97894SOL    HW295522   6.791  12.832  14.675
97895SOL     OW95523  14.198   3.021   5.904
97895SOL    HW195524  14.284   3.002   5.865
97895SOL    HW295525  14.216   3.028   5.998
97896SOL     OW95526   1.808   8.561  14.435
97896SOL    HW195527   1.767   8.647  14.448
97896SOL    HW295528   1.734   8.503  14.414
97897SOL     OW95529  13.914  13.846  10.326
97897SOL    HW195530  13.950  13.924  10.284
97897SOL    HW295531  13.970  13.832  10.402
97898SOL     OW95532   5.774   0.832   1.206
97898SOL    HW195533   5.693   0.781   1.214
97898SOL    HW295534   5.808   0.811   1.119
97899SOL     OW95535   1.840   8.887  14.301
97899SOL    HW195536   1.748   8.915  14.304
97899SOL    HW295537   1.890   8.968  14.312
97900SOL     OW95538   6.263  14.518  11.979
97900SOL    HW195539   6.182  14.469  11.967
97900SOL    HW295540   6.251  14.564  12.062
97901SOL     OW95541  12.656  13.168  10.733
97901SOL    HW195542  12.723  13.192  10.796
97901SOL    HW295543  12.678  13.079  10.706
97902SOL     OW95544   9.791  11.148   9.887
97902SOL    HW195545   9.724  11.081   9.876
97902SOL    HW295546   9.866  11.101   9.924
97903SOL     OW95547  12.231  13.432   3.347
97903SOL    HW195548  12.144  13.406   3.376
97903SOL    HW295549  12.272  13.469   3.425
97904SOL     OW95550  14.576  13.827   0.420
97904SOL    HW195551  14.583  13.819   0.325
97904SOL    HW295552  14.552  13.740   0.451
97905SOL     OW95553   6.289  11.977   8.267
97905SOL    HW195554   6.280  11.899   8.213
97905SOL    HW295555   6.332  12.041   8.209
97906SOL     OW95556   5.255  14.574   9.656
97906SOL    HW195557   5.188  14.528   9.605
97906SOL    HW295558   5.286  14.509   9.718
97907SOL     OW95559   7.426   2.703   1.734
97907SOL    HW195560   7.442   2.630   1.795
97907SOL    HW295561   7.425   2.781   1.789
97908SOL     OW95562   4.571   7.574   3.800
97908SOL    HW195563   4.541   7.568   3.709
97908SOL    HW295564   4.492   7.586   3.851
97909SOL     OW95565   2.239   5.401   6.326
97909SOL    HW195566   2.246   5.323   6.381
97909SOL    HW295567   2.325   5.442   6.332
97910SOL     OW95568   3.930  12.388   4.065
97910SOL    HW195569   3.854  12.339   4.034
97910SOL    HW295570   3.998  12.321   4.079
97911SOL     OW95571   7.056  10.437   5.516
97911SOL    HW195572   7.057  10.532   5.526
97911SOL    HW295573   7.090  10.404   5.599
97912SOL     OW95574   3.364   5.194   9.744
97912SOL    HW195575   3.426   5.138   9.792
97912SOL    HW295576   3.405   5.280   9.745
97913SOL     OW95577   9.752   3.890   1.672
97913SOL    HW195578   9.779   3.827   1.738
97913SOL    HW295579   9.669   3.857   1.639
97914SOL     OW95580  13.040   9.429   4.076
97914SOL    HW195581  13.002   9.496   4.133
97914SOL    HW295582  13.026   9.462   3.987
97915SOL     OW95583   2.211   0.858   1.409
97915SOL    HW195584   2.129   0.907   1.416
97915SOL    HW295585   2.273   0.907   1.463
97916SOL     OW95586   1.552  13.501  10.863
97916SOL    HW195587   1.576  13.535  10.776
97916SOL    HW295588   1.566  13.574  10.922
97917SOL     OW95589   7.846   6.824   3.320
97917SOL    HW195590   7.754   6.803   3.337
97917SOL    HW295591   7.859   6.805   3.228
97918SOL     OW95592   3.282   4.933  12.870
97918SOL    HW195593   3.329   4.984  12.804
97918SOL    HW295594   3.349   4.878  12.911
97919SOL     OW95595   2.468   3.552  12.643
97919SOL    HW195596   2.503   3.547  12.732
97919SOL    HW295597   2.543   3.572  12.588
97920SOL     OW95598   2.424  14.348   9.679
97920SOL    HW195599   2.476  14.427   9.664
97920SOL    HW295600   2.364  14.344   9.604
97921SOL     OW95601  14.283  13.727  10.947
97921SOL    HW195602  14.269  13.821  10.938
97921SOL    HW295603  14.312  13.716  11.038
97922SOL     OW95604  12.259  12.680   5.799
97922SOL    HW195605  12.284  12.632   5.878
97922SOL    HW295606  12.206  12.618   5.749
97923SOL     OW95607   6.357   6.697   9.040
97923SOL    HW195608   6.382   6.608   9.064
97923SOL    HW295609   6.424   6.753   9.079
97924SOL     OW95610  10.492   0.836   3.079
97924SOL    HW195611  10.534   0.918   3.056
97924SOL    HW295612  10.559   0.786   3.126
97925SOL     OW95613   4.566   7.976   9.894
97925SOL    HW195614   4.481   8.004   9.861
97925SOL    HW295615   4.550   7.949   9.984
97926SOL     OW95616  11.362  14.737   5.526
97926SOL    HW195617  11.333  14.652   5.492
97926SOL    HW295618  11.327  14.740   5.615
97927SOL     OW95619  13.683   3.306  13.512
97927SOL    HW195620  13.749   3.330  13.578
97927SOL    HW295621  13.599   3.320  13.556
97928SOL     OW95622   4.696  12.384  10.117
97928SOL    HW195623   4.712  12.438  10.040
97928SOL    HW295624   4.735  12.299  10.095
97929SOL     OW95625   2.681   9.877   1.722
97929SOL    HW195626   2.607   9.828   1.686
97929SOL    HW295627   2.718   9.819   1.789
97930SOL     OW95628   2.443   6.439  10.067
97930SOL    HW195629   2.449   6.350  10.035
97930SOL    HW295630   2.349   6.459  10.064
97931SOL     OW95631   0.852  13.164   3.049
97931SOL    HW195632   0.808  13.194   3.129
97931SOL    HW295633   0.914  13.098   3.079
97932SOL     OW95634   0.577   8.466  10.517
97932SOL    HW195635   0.644   8.498  10.578
97932SOL    HW295636   0.611   8.383  10.485
97933SOL     OW95637   1.212  14.760  10.117
97933SOL    HW195638   1.168  14.750  10.033
97933SOL    HW295639   1.172  14.693  10.173
97934SOL     OW95640   7.234   7.977   7.978
97934SOL    HW195641   7.171   7.966   7.907
97934SOL    HW295642   7.254   8.070   7.979
97935SOL     OW95643   9.676   8.989   5.232
97935SOL    HW195644   9.684   9.004   5.326
97935SOL    HW295645   9.741   8.921   5.213
97936SOL     OW95646  14.089   7.247   6.034
97936SOL    HW195647  14.174   7.285   6.054
97936SOL    HW295648  14.085   7.248   5.938
97937SOL     OW95649   2.252   2.649   0.088
97937SOL    HW195650   2.228   2.591   0.161
97937SOL    HW295651   2.285   2.591   0.020
97938SOL     OW95652  11.021   5.969   7.108
97938SOL    HW195653  10.955   5.906   7.139
97938SOL    HW295654  10.982   6.055   7.126
97939SOL     OW95655   6.675   4.917   6.250
97939SOL    HW195656   6.745   4.907   6.185
97939SOL    HW295657   6.701   4.993   6.301
97940SOL     OW95658   3.493   5.676   3.102
97940SOL    HW195659   3.420   5.702   3.046
97940SOL    HW295660   3.558   5.745   3.091
97941SOL     OW95661   4.556   6.376  10.883
97941SOL    HW195662   4.481   6.436  10.880
97941SOL    HW295663   4.578   6.370  10.976
97942SOL     OW95664  10.992   2.000   4.837
97942SOL    HW195665  10.996   1.906   4.822
97942SOL    HW295666  11.073   2.035   4.801
97943SOL     OW95667  13.458   3.788  10.499
97943SOL    HW195668  13.497   3.738  10.570
97943SOL    HW295669  13.519   3.779  10.426
97944SOL     OW95670   8.283   0.889   2.513
97944SOL    HW195671   8.305   0.800   2.484
97944SOL    HW295672   8.276   0.882   2.609
97945SOL     OW95673   0.653   7.030  14.594
97945SOL    HW195674   0.611   7.109  14.627
97945SOL    HW295675   0.636   7.031  14.500
97946SOL     OW95676   2.945   8.613  11.009
97946SOL    HW195677   2.879   8.557  10.967
97946SOL    HW295678   2.919   8.702  10.984
97947SOL     OW95679   4.426   0.408  13.115
97947SOL    HW195680   4.516   0.408  13.083
97947SOL    HW295681   4.397   0.317  13.103
97948SOL     OW95682  10.603  11.240  12.135
97948SOL    HW195683  10.622  11.222  12.043
97948SOL    HW295684  10.514  11.207  12.148
97949SOL     OW95685  14.333   0.990   6.000
97949SOL    HW195686  14.342   1.056   5.932
97949SOL    HW295687  14.413   0.995   6.051
97950SOL     OW95688   0.281  13.337  11.887
97950SOL    HW195689   0.363  13.295  11.864
97950SOL    HW295690   0.229  13.332  11.806
97951SOL     OW95691  10.375   7.706   9.924
97951SOL    HW195692  10.434   7.765   9.878
97951SOL    HW295693  10.333   7.761   9.990
97952SOL     OW95694  12.480  13.611   7.450
97952SOL    HW195695  12.504  13.536   7.396
97952SOL    HW295696  12.385  13.608   7.455
97953SOL     OW95697  13.300  12.306   2.273
97953SOL    HW195698  13.324  12.385   2.321
97953SOL    HW295699  13.262  12.339   2.191
97954SOL     OW95700   4.302  14.350   2.701
97954SOL    HW195701   4.381  14.303   2.727
97954SOL    HW295702   4.335  14.424   2.649
97955SOL     OW95703   6.850   8.694   4.389
97955SOL    HW195704   6.830   8.787   4.393
97955SOL    HW295705   6.908   8.684   4.313
97956SOL     OW95706   1.313   3.812   7.093
97956SOL    HW195707   1.386   3.811   7.154
97956SOL    HW295708   1.353   3.809   7.006
97957SOL     OW95709   4.995   5.230   7.202
97957SOL    HW195710   4.984   5.150   7.254
97957SOL    HW295711   4.906   5.263   7.190
97958SOL     OW95712  12.601  13.648   2.864
97958SOL    HW195713  12.642  13.592   2.797
97958SOL    HW295714  12.542  13.589   2.911
97959SOL     OW95715   0.549   3.486   4.960
97959SOL    HW195716   0.474   3.520   4.911
97959SOL    HW295717   0.563   3.550   5.030
97960SOL     OW95718  10.119   7.954   4.018
97960SOL    HW195719  10.203   7.944   4.063
97960SOL    HW295720  10.071   8.017   4.072
97961SOL     OW95721   2.657  12.305   3.480
97961SOL    HW195722   2.694  12.394   3.482
97961SOL    HW295723   2.664  12.278   3.388
97962SOL     OW95724  11.384  11.337  12.301
97962SOL    HW195725  11.424  11.251  12.296
97962SOL    HW295726  11.436  11.391  12.242
97963SOL     OW95727  14.011   9.893   7.489
97963SOL    HW195728  14.014   9.800   7.509
97963SOL    HW295729  13.929   9.923   7.528
97964SOL     OW95730   4.052  10.993   4.369
97964SOL    HW195731   4.052  11.033   4.456
97964SOL    HW295732   4.040  11.067   4.309
97965SOL     OW95733   7.841  11.961   2.693
97965SOL    HW195734   7.927  11.920   2.686
97965SOL    HW295735   7.783  11.890   2.719
97966SOL     OW95736   5.176  11.025   4.411
97966SOL    HW195737   5.271  11.013   4.416
97966SOL    HW295738   5.145  11.010   4.500
97967SOL     OW95739  12.790   6.187  12.560
97967SOL    HW195740  12.803   6.223  12.648
97967SOL    HW295741  12.697   6.166  12.556
97968SOL     OW95742  13.304  12.028  12.029
97968SOL    HW195743  13.308  11.950  12.085
97968SOL    HW295744  13.377  12.017  11.968
97969SOL     OW95745  13.030  13.244  12.269
97969SOL    HW195746  12.952  13.211  12.225
97969SOL    HW295747  13.043  13.184  12.342
97970SOL     OW95748   7.126   9.057   3.354
97970SOL    HW195749   7.101   9.136   3.402
97970SOL    HW295750   7.120   8.987   3.419
97971SOL     OW95751  11.785  11.134   5.744
97971SOL    HW195752  11.861  11.147   5.800
97971SOL    HW295753  11.717  11.100   5.803
97972SOL     OW95754   0.535   4.557  13.996
97972SOL    HW195755   0.583   4.496  14.052
97972SOL    HW295756   0.515   4.631  14.053
97973SOL     OW95757   5.168   7.891   4.729
97973SOL    HW195758   5.088   7.872   4.680
97973SOL    HW295759   5.220   7.946   4.670
97974SOL     OW95760   5.627   1.695   8.095
97974SOL    HW195761   5.718   1.671   8.079
97974SOL    HW295762   5.628   1.741   8.179
97975SOL     OW95763   5.154  12.595  12.627
97975SOL    HW195764   5.236  12.627  12.664
97975SOL    HW295765   5.093  12.592  12.701
97976SOL     OW95766   7.725   8.129   3.650
97976SOL    HW195767   7.688   8.177   3.724
97976SOL    HW295768   7.816   8.159   3.645
97977SOL     OW95769   3.654   1.491   0.310
97977SOL    HW195770   3.605   1.482   0.391
97977SOL    HW295771   3.725   1.427   0.317
97978SOL     OW95772  10.721   0.715   3.597
97978SOL    HW195773  10.660   0.642   3.589
97978SOL    HW295774  10.799   0.677   3.635
97979SOL     OW95775   9.603  11.171  11.508
97979SOL    HW195776   9.526  11.152  11.562
97979SOL    HW295777   9.569  11.174  11.418
97980SOL     OW95778   5.570   2.998   1.295
97980SOL    HW195779   5.569   2.976   1.388
97980SOL    HW295780   5.494   2.953   1.258
97981SOL     OW95781   5.147   3.178   9.370
97981SOL    HW195782   5.160   3.213   9.458
97981SOL    HW295783   5.236   3.168   9.335
97982SOL     OW95784   2.078   1.068  13.828
97982SOL    HW195785   2.001   1.050  13.775
97982SOL    HW295786   2.066   1.016  13.908
97983SOL     OW95787  11.949   4.092  13.235
97983SOL    HW195788  11.955   4.026  13.303
97983SOL    HW295789  11.998   4.056  13.161
97984SOL     OW95790  13.410   0.238  14.543
97984SOL    HW195791  13.473   0.166  14.544
97984SOL    HW295792  13.391   0.255  14.636
97985SOL     OW95793  13.023   6.523  12.238
97985SOL    HW195794  12.949   6.462  12.239
97985SOL    HW295795  13.083   6.487  12.173
97986SOL     OW95796  14.356   8.905  13.410
97986SOL    HW195797  14.342   8.939  13.321
97986SOL    HW295798  14.268   8.893  13.445
97987SOL     OW95799  14.193   4.416   4.548
97987SOL    HW195800  14.124   4.434   4.611
97987SOL    HW295801  14.270   4.461   4.583
97988SOL     OW95802  14.809  13.517   7.351
97988SOL    HW195803   0.008  13.518   7.406
97988SOL    HW295804  14.756  13.589   7.385
97989SOL     OW95805  11.568  12.625  11.314
97989SOL    HW195806  11.610  12.690  11.371
97989SOL    HW295807  11.474  12.636  11.332
97990SOL     OW95808  11.226   7.353   1.170
97990SOL    HW195809  11.162   7.414   1.206
97990SOL    HW295810  11.179   7.269   1.165
97991SOL     OW95811   6.652  13.117  10.446
97991SOL    HW195812   6.738  13.147  10.417
97991SOL    HW295813   6.596  13.125  10.369
97992SOL     OW95814   2.510   4.573  10.538
97992SOL    HW195815   2.529   4.649  10.483
97992SOL    HW295816   2.507   4.608  10.627
97993SOL     OW95817   9.895   6.027   0.833
97993SOL    HW195818   9.840   5.955   0.803
97993SOL    HW295819   9.893   6.020   0.929
97994SOL     OW95820  10.767  12.881   5.128
97994SOL    HW195821  10.718  12.832   5.062
97994SOL    HW295822  10.774  12.820   5.202
97995SOL     OW95823   6.337   4.180  12.982
97995SOL    HW195824   6.396   4.124  13.032
97995SOL    HW295825   6.370   4.269  12.997
97996SOL     OW95826  14.561   5.501   1.820
97996SOL    HW195827  14.646   5.544   1.809
97996SOL    HW295828  14.503   5.570   1.853
97997SOL     OW95829   2.052   5.981   3.026
97997SOL    HW195830   2.118   5.952   3.089
97997SOL    HW295831   2.057   6.076   3.028
97998SOL     OW95832   1.342   7.255   6.588
97998SOL    HW195833   1.300   7.314   6.650
97998SOL    HW295834   1.275   7.235   6.524
97999SOL     OW95835   2.354   2.581  14.059
97999SOL    HW195836   2.440   2.576  14.100
97999SOL    HW295837   2.294   2.551  14.128
98000SOL     OW95838  13.838   5.126   4.247
98000SOL    HW195839  13.812   5.059   4.183
98000SOL    HW295840  13.764   5.131   4.308
98001SOL     OW95841  11.637   5.998   2.321
98001SOL    HW195842  11.640   5.982   2.227
98001SOL    HW295843  11.571   6.067   2.332
98002SOL     OW95844  10.017  12.778   9.834
98002SOL    HW195845  10.092  12.725   9.809
98002SOL    HW295846   9.980  12.733   9.909
98003SOL     OW95847   2.642   9.857   4.280
98003SOL    HW195848   2.669   9.879   4.191
98003SOL    HW295849   2.556   9.816   4.269
98004SOL     OW95850   9.658  13.845   3.368
98004SOL    HW195851   9.746  13.874   3.347
98004SOL    HW295852   9.661  13.825   3.462
98005SOL     OW95853   6.931   2.540  12.268
98005SOL    HW195854   6.920   2.494  12.351
98005SOL    HW295855   6.863   2.607  12.268
98006SOL     OW95856   0.091  12.770  11.634
98006SOL    HW195857   0.088  12.675  11.632
98006SOL    HW295858   0.010  12.799  11.592
98007SOL     OW95859   4.455   8.019   0.161
98007SOL    HW195860   4.527   8.052   0.215
98007SOL    HW295861   4.382   8.079   0.178
98008SOL     OW95862   0.701   8.057  12.362
98008SOL    HW195863   0.753   7.977  12.355
98008SOL    HW295864   0.690   8.071  12.456
98009SOL     OW95865   2.784   6.032   1.933
98009SOL    HW195866   2.857   6.091   1.914
98009SOL    HW295867   2.708   6.074   1.892
98010SOL     OW95868  11.707  10.791   9.493
98010SOL    HW195869  11.752  10.818   9.413
98010SOL    HW295870  11.669  10.706   9.472
98011SOL     OW95871  14.523  12.417  14.867
98011SOL    HW195872  14.548  12.349   0.049
98011SOL    HW295873  14.606  12.449  14.832
98012SOL     OW95874   8.738  12.650   6.368
98012SOL    HW195875   8.817  12.700   6.347
98012SOL    HW295876   8.666  12.710   6.351
98013SOL     OW95877   8.493   7.895   1.527
98013SOL    HW195878   8.450   7.974   1.558
98013SOL    HW295879   8.435   7.824   1.556
98014SOL     OW95880   2.988   9.270  13.066
98014SOL    HW195881   2.989   9.334  12.995
98014SOL    HW295882   2.969   9.187  13.023
98015SOL     OW95883   8.768  14.095   7.944
98015SOL    HW195884   8.839  14.149   7.979
98015SOL    HW295885   8.731  14.147   7.873
98016SOL     OW95886   6.506   5.625  12.872
98016SOL    HW195887   6.537   5.714  12.883
98016SOL    HW295888   6.560   5.572  12.930
98017SOL     OW95889   7.336  14.432  12.789
98017SOL    HW195890   7.285  14.363  12.747
98017SOL    HW295891   7.301  14.513  12.754
98018SOL     OW95892  11.351  13.894   4.881
98018SOL    HW195893  11.348  13.829   4.811
98018SOL    HW295894  11.442  13.925   4.881
98019SOL     OW95895   2.205   0.267   6.842
98019SOL    HW195896   2.279   0.328   6.840
98019SOL    HW295897   2.128   0.323   6.842
98020SOL     OW95898  12.553   5.972   3.407
98020SOL    HW195899  12.525   6.057   3.374
98020SOL    HW295900  12.500   5.957   3.485
98021SOL     OW95901   7.853   2.935   5.536
98021SOL    HW195902   7.877   2.846   5.560
98021SOL    HW295903   7.814   2.971   5.615
98022SOL     OW95904  10.001  13.747   2.796
98022SOL    HW195905  10.073  13.685   2.808
98022SOL    HW295906   9.936  13.700   2.745
98023SOL     OW95907   3.832   2.992   0.369
98023SOL    HW195908   3.778   2.956   0.439
98023SOL    HW295909   3.789   2.962   0.288
98024SOL     OW95910   8.099   5.348   7.185
98024SOL    HW195911   8.066   5.286   7.250
98024SOL    HW295912   8.160   5.404   7.234
98025SOL     OW95913   0.262   7.324   8.775
98025SOL    HW195914   0.235   7.392   8.837
98025SOL    HW295915   0.205   7.335   8.700
98026SOL     OW95916   6.073   9.163  11.135
98026SOL    HW195917   5.989   9.201  11.109
98026SOL    HW295918   6.123   9.156  11.054
98027SOL     OW95919   9.880  13.874   1.333
98027SOL    HW195920   9.813  13.892   1.267
98027SOL    HW295921   9.842  13.803   1.387
98028SOL     OW95922   2.369  12.525   0.682
98028SOL    HW195923   2.459  12.521   0.714
98028SOL    HW295924   2.373  12.486   0.594
98029SOL     OW95925   1.780  13.678   5.253
98029SOL    HW195926   1.866  13.721   5.246
98029SOL    HW295927   1.801  13.585   5.259
98030SOL     OW95928  11.080   7.898   8.048
98030SOL    HW195929  11.025   7.890   8.125
98030SOL    HW295930  11.061   7.985   8.013
98031SOL     OW95931   8.335   0.547  10.994
98031SOL    HW195932   8.427   0.575  10.987
98031SOL    HW295933   8.303   0.587  11.074
98032SOL     OW95934   9.845   2.518   4.576
98032SOL    HW195935   9.753   2.513   4.552
98032SOL    HW295936   9.864   2.612   4.577
98033SOL     OW95937   8.039   5.860   1.938
98033SOL    HW195938   8.087   5.867   2.021
98033SOL    HW295939   7.990   5.941   1.932
98034SOL     OW95940  12.052   9.670   2.739
98034SOL    HW195941  12.087   9.664   2.828
98034SOL    HW295942  12.091   9.596   2.693
98035SOL     OW95943   8.526  11.632   4.640
98035SOL    HW195944   8.563  11.693   4.577
98035SOL    HW295945   8.431  11.638   4.627
98036SOL     OW95946   6.196  10.452  13.889
98036SOL    HW195947   6.193  10.462  13.984
98036SOL    HW295948   6.131  10.514  13.856
98037SOL     OW95949  14.754   7.857   9.837
98037SOL    HW195950  14.667   7.862   9.798
98037SOL    HW295951  14.742   7.799   9.913
98038SOL     OW95952   7.344  10.566  13.660
98038SOL    HW195953   7.378  10.651  13.631
98038SOL    HW295954   7.262  10.555  13.611
98039SOL     OW95955  14.627  11.160   9.546
98039SOL    HW195956  14.636  11.065   9.557
98039SOL    HW295957  14.715  11.191   9.526
98040SOL     OW95958   7.635  10.222   0.046
98040SOL    HW195959   7.713  10.234  14.870
98040SOL    HW295960   7.588  10.150   0.005
98041SOL     OW95961   5.259   3.328  10.085
98041SOL    HW195962   5.320   3.397  10.109
98041SOL    HW295963   5.183   3.375  10.049
98042SOL     OW95964   0.557   7.121   9.466
98042SOL    HW195965   0.474   7.095   9.506
98042SOL    HW295966   0.621   7.059   9.501
98043SOL     OW95967  13.571   1.928   8.965
98043SOL    HW195968  13.530   2.007   9.000
98043SOL    HW295969  13.580   1.870   9.041
98044SOL     OW95970  11.170  10.465   1.829
98044SOL    HW195971  11.243  10.492   1.774
98044SOL    HW295972  11.094  10.466   1.770
98045SOL     OW95973  10.322   3.205   7.470
98045SOL    HW195974  10.355   3.222   7.382
98045SOL    HW295975  10.310   3.292   7.508
98046SOL     OW95976   9.287   5.052   1.908
98046SOL    HW195977   9.214   5.018   1.857
98046SOL    HW295978   9.357   5.067   1.844
98047SOL     OW95979   1.620   6.118   3.993
98047SOL    HW195980   1.543   6.073   4.029
98047SOL    HW295981   1.690   6.053   3.999
98048SOL     OW95982   4.167  11.568   7.059
98048SOL    HW195983   4.146  11.661   7.071
98048SOL    HW295984   4.083  11.526   7.043
98049SOL     OW95985   3.132  11.225   4.669
98049SOL    HW195986   3.101  11.205   4.757
98049SOL    HW295987   3.052  11.226   4.615
98050SOL     OW95988   3.284  10.336   8.738
98050SOL    HW195989   3.374  10.320   8.767
98050SOL    HW295990   3.229  10.300   8.807
98051SOL     OW95991   1.398   8.286   8.857
98051SOL    HW195992   1.329   8.264   8.920
98051SOL    HW295993   1.478   8.252   8.896
98052SOL     OW95994   2.081   4.062   4.139
98052SOL    HW195995   2.155   4.041   4.196
98052SOL    HW295996   2.115   4.051   4.051
98053SOL     OW95997   1.950   6.494   3.429
98053SOL    HW195998   2.022   6.527   3.482
98053SOL    HW295999   1.992   6.447   3.357
98054SOL     OW96000   2.282  13.273   3.792
98054SOL    HW196001   2.220  13.342   3.818
98054SOL    HW296002   2.367  13.305   3.820
98055SOL     OW96003   2.254  13.479   6.147
98055SOL    HW196004   2.171  13.437   6.169
98055SOL    HW296005   2.275  13.448   6.059
98056SOL     OW96006  13.458   4.290   1.825
98056SOL    HW196007  13.472   4.381   1.800
98056SOL    HW296008  13.373   4.267   1.786
98057SOL     OW96009  14.501   2.466   8.506
98057SOL    HW196010  14.424   2.428   8.549
98057SOL    HW296011  14.486   2.451   8.413
98058SOL     OW96012   4.404   7.194  11.830
98058SOL    HW196013   4.330   7.152  11.785
98058SOL    HW296014   4.465   7.123  11.847
98059SOL     OW96015  12.218  14.350  12.663
98059SOL    HW196016  12.303  14.353  12.708
98059SOL    HW296017  12.183  14.264  12.684
98060SOL     OW96018  12.288   4.001   2.929
98060SOL    HW196019  12.348   4.050   2.873
98060SOL    HW296020  12.343   3.969   3.000
98061SOL     OW96021   2.271   7.441  13.687
98061SOL    HW196022   2.252   7.356  13.649
98061SOL    HW296023   2.250   7.431  13.780
98062SOL     OW96024  14.511  10.461  11.764
98062SOL    HW196025  14.471  10.547  11.759
98062SOL    HW296026  14.600  10.478  11.795
98063SOL     OW96027   3.367  13.808  13.473
98063SOL    HW196028   3.415  13.831  13.393
98063SOL    HW296029   3.293  13.869  13.476
98064SOL     OW96030  13.609   7.590   7.456
98064SOL    HW196031  13.623   7.671   7.406
98064SOL    HW296032  13.572   7.620   7.540
98065SOL     OW96033   0.708   9.245   3.729
98065SOL    HW196034   0.768   9.314   3.757
98065SOL    HW296035   0.666   9.280   3.650
98066SOL     OW96036   3.333  12.802  11.130
98066SOL    HW196037   3.268  12.806  11.060
98066SOL    HW296038   3.304  12.868  11.194
98067SOL     OW96039   8.223  12.829   9.449
98067SOL    HW196040   8.215  12.923   9.432
98067SOL    HW296041   8.292  12.800   9.390
98068SOL     OW96042   3.709  11.748  13.152
98068SOL    HW196043   3.803  11.735  13.160
98068SOL    HW296044   3.700  11.837  13.119
98069SOL     OW96045   2.583  11.895   6.412
98069SOL    HW196046   2.517  11.844   6.365
98069SOL    HW296047   2.635  11.937   6.344
98070SOL     OW96048   9.873   2.011   3.093
98070SOL    HW196049   9.818   1.934   3.106
98070SOL    HW296050   9.922   1.992   3.013
98071SOL     OW96051   6.246  10.922   9.614
98071SOL    HW196052   6.324  10.904   9.667
98071SOL    HW296053   6.278  10.928   9.524
98072SOL     OW96054   4.024   6.508   8.634
98072SOL    HW196055   4.015   6.571   8.562
98072SOL    HW296056   4.056   6.428   8.592
98073SOL     OW96057   9.737   0.195   5.952
98073SOL    HW196058   9.754   0.223   5.862
98073SOL    HW296059   9.666   0.252   5.981
98074SOL     OW96060   7.520   5.545   0.984
98074SOL    HW196061   7.530   5.573   1.075
98074SOL    HW296062   7.426   5.535   0.972
98075SOL     OW96063  13.591   9.311  14.749
98075SOL    HW196064  13.560   9.230  14.788
98075SOL    HW296065  13.606   9.289  14.657
98076SOL     OW96066   0.476   9.003   5.431
98076SOL    HW196067   0.533   9.067   5.474
98076SOL    HW296068   0.420   8.970   5.502
98077SOL     OW96069   5.483   7.421   0.169
98077SOL    HW196070   5.408   7.362   0.159
98077SOL    HW296071   5.445   7.509   0.163
98078SOL     OW96072  11.598   1.466  10.930
98078SOL    HW196073  11.604   1.550  10.977
98078SOL    HW296074  11.544   1.411  10.986
98079SOL     OW96075   4.504   8.627  12.741
98079SOL    HW196076   4.566   8.603  12.672
98079SOL    HW296077   4.484   8.719  12.724
98080SOL     OW96078   0.742   8.676  10.714
98080SOL    HW196079   0.677   8.651  10.779
98080SOL    HW296080   0.820   8.697  10.764
98081SOL     OW96081   0.667   6.875   3.999
98081SOL    HW196082   0.676   6.780   4.010
98081SOL    HW296083   0.574   6.892   4.015
98082SOL     OW96084   1.514   7.131  11.932
98082SOL    HW196085   1.444   7.111  11.994
98082SOL    HW296086   1.552   7.046  11.909
98083SOL     OW96087  12.303  11.687   4.280
98083SOL    HW196088  12.214  11.652   4.274
98083SOL    HW296089  12.344  11.665   4.197
98084SOL     OW96090   6.273   4.958   8.531
98084SOL    HW196091   6.274   4.908   8.449
98084SOL    HW296092   6.342   4.917   8.584
98085SOL     OW96093   5.583   5.676   5.043
98085SOL    HW196094   5.628   5.603   5.086
98085SOL    HW296095   5.518   5.705   5.107
98086SOL     OW96096   5.374  10.825   9.197
98086SOL    HW196097   5.433  10.787   9.133
98086SOL    HW296098   5.421  10.818   9.280
98087SOL     OW96099  12.239   4.260   7.320
98087SOL    HW196100  12.226   4.222   7.233
98087SOL    HW296101  12.154   4.298   7.343
98088SOL     OW96102   9.478   9.560   6.166
98088SOL    HW196103   9.472   9.573   6.071
98088SOL    HW296104   9.511   9.471   6.176
98089SOL     OW96105  14.603  14.647   5.102
98089SOL    HW196106  14.654  14.588   5.158
98089SOL    HW296107  14.516  14.609   5.100
98090SOL     OW96108  13.143   1.618  13.956
98090SOL    HW196109  13.210   1.559  13.991
98090SOL    HW296110  13.091   1.643  14.032
98091SOL     OW96111   1.213  12.407   8.631
98091SOL    HW196112   1.291  12.407   8.575
98091SOL    HW296113   1.155  12.472   8.592
98092SOL     OW96114   8.579   4.861  10.486
98092SOL    HW196115   8.522   4.935  10.505
98092SOL    HW296116   8.597   4.867  10.392
98093SOL     OW96117  10.509   9.525   8.675
98093SOL    HW196118  10.443   9.457   8.663
98093SOL    HW296119  10.493   9.586   8.602
98094SOL     OW96120   7.368   3.303   1.462
98094SOL    HW196121   7.315   3.333   1.388
98094SOL    HW296122   7.430   3.241   1.423
98095SOL     OW96123   6.280   1.955  12.201
98095SOL    HW196124   6.217   2.026  12.206
98095SOL    HW296125   6.332   1.963  12.281
98096SOL     OW96126  11.956   6.854  14.146
98096SOL    HW196127  11.991   6.938  14.117
98096SOL    HW296128  11.984   6.846  14.237
98097SOL     OW96129   2.405   7.638   3.591
98097SOL    HW196130   2.415   7.612   3.499
98097SOL    HW296131   2.344   7.574   3.627
98098SOL     OW96132  10.449  10.775   1.707
98098SOL    HW196133  10.372  10.826   1.682
98098SOL    HW296134  10.450  10.779   1.803
98099SOL     OW96135   0.610   5.633  11.683
98099SOL    HW196136   0.534   5.652  11.738
98099SOL    HW296137   0.684   5.673  11.729
98100SOL     OW96138   0.394   6.884   1.756
98100SOL    HW196139   0.403   6.959   1.697
98100SOL    HW296140   0.308   6.897   1.797
98101SOL     OW96141  11.135  13.954   4.186
98101SOL    HW196142  11.060  13.895   4.197
98101SOL    HW296143  11.129  13.983   4.095
98102SOL     OW96144  14.473  13.967  12.096
98102SOL    HW196145  14.412  13.954  12.169
98102SOL    HW296146  14.481  14.062  12.089
98103SOL     OW96147   5.770  12.529   6.297
98103SOL    HW196148   5.771  12.548   6.203
98103SOL    HW296149   5.788  12.435   6.303
98104SOL     OW96150  12.055  14.245  13.485
98104SOL    HW196151  12.025  14.252  13.576
98104SOL    HW296152  12.041  14.333  13.448
98105SOL     OW96153   0.854   6.394  12.255
98105SOL    HW196154   0.775   6.353  12.289
98105SOL    HW296155   0.898   6.324  12.206
98106SOL     OW96156   6.274  11.205   5.403
98106SOL    HW196157   6.341  11.264   5.369
98106SOL    HW296158   6.321  11.149   5.465
98107SOL     OW96159   5.685   2.023   3.520
98107SOL    HW196160   5.737   2.042   3.442
98107SOL    HW296161   5.750   2.009   3.589
98108SOL     OW96162   9.169  12.568  13.961
98108SOL    HW196163   9.229  12.498  13.936
98108SOL    HW296164   9.102  12.525  14.013
98109SOL     OW96165  12.135   6.884   0.278
98109SOL    HW196166  12.216   6.878   0.227
98109SOL    HW296167  12.120   6.794   0.309
98110SOL     OW96168   6.846  11.388  11.186
98110SOL    HW196169   6.827  11.482  11.186
98110SOL    HW296170   6.850  11.365  11.093
98111SOL     OW96171   0.842   4.878   6.521
98111SOL    HW196172   0.816   4.889   6.612
98111SOL    HW296173   0.915   4.939   6.509
98112SOL     OW96174  12.564  11.956   0.173
98112SOL    HW196175  12.505  12.018   0.216
98112SOL    HW296176  12.641  12.008   0.150
98113SOL     OW96177   7.226   9.423   6.981
98113SOL    HW196178   7.195   9.450   7.068
98113SOL    HW296179   7.152   9.441   6.923
98114SOL     OW96180   7.206  10.520  11.084
98114SOL    HW196181   7.162  10.468  11.151
98114SOL    HW296182   7.149  10.596  11.070
98115SOL     OW96183   7.705   1.141   0.950
98115SOL    HW196184   7.682   1.232   0.931
98115SOL    HW296185   7.655   1.120   1.029
98116SOL     OW96186  10.813  13.310   8.809
98116SOL    HW196187  10.763  13.246   8.758
98116SOL    HW296188  10.778  13.395   8.783
98117SOL     OW96189   8.093   0.838   3.012
98117SOL    HW196190   8.058   0.918   3.053
98117SOL    HW296191   8.160   0.807   3.073
98118SOL     OW96192   0.053   3.721   9.615
98118SOL    HW196193   0.106   3.801   9.614
98118SOL    HW296194   0.006   3.725   9.698
98119SOL     OW96195   6.446  10.298   8.456
98119SOL    HW196196   6.504  10.251   8.395
98119SOL    HW296197   6.464  10.390   8.439
98120SOL     OW96198  11.483   7.390   8.408
98120SOL    HW196199  11.495   7.447   8.331
98120SOL    HW296200  11.453   7.307   8.372
98121SOL     OW96201   3.818   2.477   8.473
98121SOL    HW196202   3.831   2.462   8.380
98121SOL    HW296203   3.905   2.469   8.511
98122SOL     OW96204  12.388   2.150  14.632
98122SOL    HW196205  12.320   2.178  14.570
98122SOL    HW296206  12.462   2.207  14.613
98123SOL     OW96207   3.646   7.741  12.494
98123SOL    HW196208   3.663   7.834  12.504
98123SOL    HW296209   3.733   7.701  12.484
98124SOL     OW96210   2.478   0.513   2.699
98124SOL    HW196211   2.565   0.498   2.737
98124SOL    HW296212   2.427   0.437   2.727
98125SOL     OW96213   4.880  11.302   5.993
98125SOL    HW196214   4.815  11.354   5.946
98125SOL    HW296215   4.935  11.264   5.924
98126SOL     OW96216  11.925   6.562   8.499
98126SOL    HW196217  11.870   6.538   8.574
98126SOL    HW296218  11.952   6.652   8.518
98127SOL     OW96219  14.868   0.401   6.020
98127SOL    HW196220   0.047   0.432   6.089
98127SOL    HW296221  14.798   0.356   6.066
98128SOL     OW96222  11.338  10.355   5.393
98128SOL    HW196223  11.252  10.395   5.403
98128SOL    HW296224  11.383  10.410   5.329
98129SOL     OW96225   0.405   9.020   2.660
98129SOL    HW196226   0.441   8.932   2.648
98129SOL    HW296227   0.413   9.037   2.754
98130SOL     OW96228   3.085   1.149   9.889
98130SOL    HW196229   3.021   1.208   9.849
98130SOL    HW296230   3.099   1.080   9.824
98131SOL     OW96231  14.483  13.392  11.177
98131SOL    HW196232  14.537  13.410  11.100
98131SOL    HW296233  14.485  13.297  11.187
98132SOL     OW96234   4.085   9.738   1.715
98132SOL    HW196235   4.001   9.696   1.730
98132SOL    HW296236   4.071   9.829   1.742
98133SOL     OW96237  11.338  14.385  13.734
98133SOL    HW196238  11.319  14.299  13.697
98133SOL    HW296239  11.252  14.427  13.743
98134SOL     OW96240  10.036   5.453   2.704
98134SOL    HW196241  10.114   5.452   2.648
98134SOL    HW296242   9.968   5.413   2.650
98135SOL     OW96243  10.407  12.398   3.456
98135SOL    HW196244  10.433  12.489   3.445
98135SOL    HW296245  10.427  12.357   3.372
98136SOL     OW96246   8.744   2.882   6.766
98136SOL    HW196247   8.722   2.829   6.843
98136SOL    HW296248   8.821   2.932   6.793
98137SOL     OW96249   5.355   2.064   6.064
98137SOL    HW196250   5.268   2.084   6.027
98137SOL    HW296251   5.382   1.984   6.019
98138SOL     OW96252  12.818  14.443   9.438
98138SOL    HW196253  12.837  14.536   9.448
98138SOL    HW296254  12.770  14.438   9.355
98139SOL     OW96255   5.987   2.864   8.655
98139SOL    HW196256   6.026   2.785   8.617
98139SOL    HW296257   5.941   2.833   8.732
98140SOL     OW96258   3.997  10.344  12.436
98140SOL    HW196259   4.000  10.363  12.530
98140SOL    HW296260   3.967  10.426  12.397
98141SOL     OW96261   2.378  14.031  10.609
98141SOL    HW196262   2.430  13.993  10.538
98141SOL    HW296263   2.424  14.006  10.689
98142SOL     OW96264  13.893   1.879   2.325
98142SOL    HW196265  13.898   1.796   2.279
98142SOL    HW296266  13.937   1.863   2.409
98143SOL     OW96267  10.023  13.914  10.504
98143SOL    HW196268   9.959  13.882  10.439
98143SOL    HW296269  10.012  13.855  10.579
98144SOL     OW96270   9.555  14.668  13.411
98144SOL    HW196271   9.627  14.669  13.347
98144SOL    HW296272   9.521  14.758  13.410
98145SOL     OW96273   4.527   2.768   4.646
98145SOL    HW196274   4.569   2.685   4.622
98145SOL    HW296275   4.437   2.743   4.667
98146SOL     OW96276   3.517   6.698   1.070
98146SOL    HW196277   3.610   6.719   1.056
98146SOL    HW296278   3.490   6.757   1.141
98147SOL     OW96279  11.496   3.472   2.294
98147SOL    HW196280  11.524   3.561   2.313
98147SOL    HW296281  11.570   3.433   2.246
98148SOL     OW96282   1.480  10.264   9.914
98148SOL    HW196283   1.541  10.283   9.843
98148SOL    HW296284   1.529  10.209   9.974
98149SOL     OW96285   4.649   4.546   9.139
98149SOL    HW196286   4.672   4.633   9.173
98149SOL    HW296287   4.623   4.562   9.049
98150SOL     OW96288   3.941  14.774  13.133
98150SOL    HW196289   3.916  14.827  13.057
98150SOL    HW296290   3.974  14.692  13.095
98151SOL     OW96291   1.912  10.193   4.176
98151SOL    HW196292   1.858  10.142   4.237
98151SOL    HW296293   1.997  10.200   4.219
98152SOL     OW96294   0.753   2.932  12.509
98152SOL    HW196295   0.695   2.900  12.441
98152SOL    HW296296   0.838   2.941  12.466
98153SOL     OW96297  10.154   0.326   4.650
98153SOL    HW196298  10.122   0.412   4.622
98153SOL    HW296299  10.098   0.302   4.723
98154SOL     OW96300  12.301   8.559  11.590
98154SOL    HW196301  12.396   8.558  11.607
98154SOL    HW296302  12.275   8.467  11.595
98155SOL     OW96303   9.414   8.951  10.782
98155SOL    HW196304   9.360   9.017  10.739
98155SOL    HW296305   9.352   8.886  10.814
98156SOL     OW96306   3.578   9.246   2.199
98156SOL    HW196307   3.660   9.288   2.172
98156SOL    HW296308   3.522   9.251   2.121
98157SOL     OW96309   4.490   5.238   5.160
98157SOL    HW196310   4.530   5.207   5.241
98157SOL    HW296311   4.396   5.233   5.177
98158SOL     OW96312  10.475   3.555  10.506
98158SOL    HW196313  10.468   3.650  10.513
98158SOL    HW296314  10.428   3.533  10.426
98159SOL     OW96315  11.548   7.425  13.124
98159SOL    HW196316  11.506   7.479  13.191
98159SOL    HW296317  11.520   7.463  13.041
98160SOL     OW96318   3.625  12.448  13.527
98160SOL    HW196319   3.536  12.459  13.492
98160SOL    HW296320   3.627  12.358  13.560
98161SOL     OW96321   8.821   0.823   3.458
98161SOL    HW196322   8.832   0.728   3.470
98161SOL    HW296323   8.906   0.859   3.482
98162SOL     OW96324   8.156   4.649  11.175
98162SOL    HW196325   8.203   4.640  11.092
98162SOL    HW296326   8.223   4.678  11.237
98163SOL     OW96327  13.724  14.440   3.346
98163SOL    HW196328  13.671  14.363   3.326
98163SOL    HW296329  13.812  14.418   3.314
98164SOL     OW96330   3.582   2.120   1.948
98164SOL    HW196331   3.658   2.147   2.000
98164SOL    HW296332   3.607   2.140   1.858
98165SOL     OW96333   7.447   8.470   4.194
98165SOL    HW196334   7.413   8.558   4.209
98165SOL    HW296335   7.542   8.482   4.183
98166SOL     OW96336   6.869   2.872   4.603
98166SOL    HW196337   6.840   2.962   4.587
98166SOL    HW296338   6.832   2.850   4.689
98167SOL     OW96339   2.439   6.799  11.478
98167SOL    HW196340   2.353   6.760  11.491
98167SOL    HW296341   2.424   6.869  11.415
98168SOL     OW96342   8.006   6.251   1.051
98168SOL    HW196343   8.062   6.202   0.991
98168SOL    HW296344   8.062   6.268   1.128
98169SOL     OW96345   4.217  12.537   5.189
98169SOL    HW196346   4.248  12.551   5.278
98169SOL    HW296347   4.143  12.597   5.180
98170SOL     OW96348   4.814   4.860  11.974
98170SOL    HW196349   4.908   4.878  11.979
98170SOL    HW296350   4.772   4.943  11.994
98171SOL     OW96351   9.724   8.645   8.115
98171SOL    HW196352   9.720   8.591   8.036
98171SOL    HW296353   9.813   8.635   8.147
98172SOL     OW96354   0.062   2.170   7.397
98172SOL    HW196355   0.038   2.118   7.474
98172SOL    HW296356  14.871   2.233   7.387
98173SOL     OW96357   9.101   9.694  11.322
98173SOL    HW196358   9.171   9.629  11.313
98173SOL    HW296359   9.110   9.727  11.411
98174SOL     OW96360  12.814   5.786   7.976
98174SOL    HW196361  12.872   5.712   7.955
98174SOL    HW296362  12.740   5.745   8.021
98175SOL     OW96363   4.268   0.505   4.266
98175SOL    HW196364   4.256   0.473   4.355
98175SOL    HW296365   4.328   0.442   4.226
98176SOL     OW96366   0.482  13.290   0.271
98176SOL    HW196367   0.462  13.252   0.356
98176SOL    HW296368   0.445  13.378   0.274
98177SOL     OW96369   2.085   1.346   6.181
98177SOL    HW196370   2.087   1.442   6.184
98177SOL    HW296371   2.177   1.320   6.177
98178SOL     OW96372  11.355  10.675   4.931
98178SOL    HW196373  11.327  10.594   4.974
98178SOL    HW296374  11.399  10.646   4.852
98179SOL     OW96375   9.600   6.999   6.864
98179SOL    HW196376   9.591   6.927   6.802
98179SOL    HW296377   9.560   6.968   6.945
98180SOL     OW96378   2.667   7.107  10.788
98180SOL    HW196379   2.663   7.126  10.694
98180SOL    HW296380   2.593   7.048  10.803
98181SOL     OW96381   4.576   1.352  14.356
98181SOL    HW196382   4.598   1.262  14.381
98181SOL    HW296383   4.657   1.387  14.318
98182SOL     OW96384   8.872  12.338   8.815
98182SOL    HW196385   8.952  12.385   8.837
98182SOL    HW296386   8.899  12.277   8.746
98183SOL     OW96387  12.020   7.971   0.249
98183SOL    HW196388  12.055   7.974   0.338
98183SOL    HW296389  12.035   8.060   0.215
98184SOL     OW96390   3.904  14.457   0.424
98184SOL    HW196391   3.812  14.480   0.414
98184SOL    HW296392   3.911  14.368   0.388
98185SOL     OW96393   8.763   2.896   2.450
98185SOL    HW196394   8.743   2.822   2.507
98185SOL    HW296395   8.785   2.856   2.365
98186SOL     OW96396   0.257   9.772   0.516
98186SOL    HW196397   0.189   9.787   0.451
98186SOL    HW296398   0.292   9.685   0.495
98187SOL     OW96399   2.516   0.530   8.051
98187SOL    HW196400   2.509   0.605   8.110
98187SOL    HW296401   2.528   0.569   7.964
98188SOL     OW96402   7.723   1.815   6.654
98188SOL    HW196403   7.637   1.845   6.628
98188SOL    HW296404   7.764   1.785   6.573
98189SOL     OW96405   9.330  11.781  14.093
98189SOL    HW196406   9.278  11.721  14.147
98189SOL    HW296407   9.296  11.868  14.113
98190SOL     OW96408   4.002  14.039   9.124
98190SOL    HW196409   3.949  14.066   9.049
98190SOL    HW296410   4.091  14.063   9.100
98191SOL     OW96411  13.131   9.523  13.626
98191SOL    HW196412  13.162   9.571  13.703
98191SOL    HW296413  13.133   9.587  13.555
98192SOL     OW96414   5.740  11.655   5.345
98192SOL    HW196415   5.701  11.680   5.429
98192SOL    HW296416   5.665  11.641   5.287
98193SOL     OW96417   3.395  10.919   6.288
98193SOL    HW196418   3.347  10.973   6.351
98193SOL    HW296419   3.355  10.939   6.203
98194SOL     OW96420   1.625   6.667   7.408
98194SOL    HW196421   1.679   6.746   7.420
98194SOL    HW296422   1.610   6.635   7.497
98195SOL     OW96423   2.584  14.169   5.013
98195SOL    HW196424   2.561  14.120   4.934
98195SOL    HW296425   2.628  14.105   5.069
98196SOL     OW96426  13.403   7.836   9.315
98196SOL    HW196427  13.443   7.871   9.235
98196SOL    HW296428  13.452   7.877   9.386
98197SOL     OW96429  13.758   0.187   8.431
98197SOL    HW196430  13.712   0.226   8.357
98197SOL    HW296431  13.732   0.239   8.507
98198SOL     OW96432   8.497  12.332   4.883
98198SOL    HW196433   8.563  12.401   4.872
98198SOL    HW296434   8.423  12.376   4.925
98199SOL     OW96435  11.170  10.372   5.952
98199SOL    HW196436  11.097  10.401   5.898
98199SOL    HW296437  11.129  10.325   6.025
98200SOL     OW96438   2.333  10.083   2.856
98200SOL    HW196439   2.282  10.163   2.845
98200SOL    HW296440   2.395  10.084   2.784
98201SOL     OW96441  14.013  10.046   2.838
98201SOL    HW196442  14.091  10.020   2.888
98201SOL    HW296443  13.941   9.998   2.879
98202SOL     OW96444   3.087  12.024   2.794
98202SOL    HW196445   3.131  11.940   2.781
98202SOL    HW296446   3.146  12.073   2.852
98203SOL     OW96447   8.871  13.644  10.875
98203SOL    HW196448   8.799  13.604  10.827
98203SOL    HW296449   8.905  13.573  10.930
98204SOL     OW96450   6.835   3.846   3.626
98204SOL    HW196451   6.928   3.867   3.630
98204SOL    HW296452   6.799   3.881   3.708
98205SOL     OW96453   2.158   1.702   2.853
98205SOL    HW196454   2.077   1.684   2.901
98205SOL    HW296455   2.158   1.639   2.781
98206SOL     OW96456   5.947  10.742  10.715
98206SOL    HW196457   5.952  10.647  10.721
98206SOL    HW296458   5.907  10.770  10.798
98207SOL     OW96459   0.039   5.244   4.797
98207SOL    HW196460  14.851   5.183   4.766
98207SOL    HW296461   0.081   5.275   4.717
98208SOL     OW96462   9.258   0.226   7.870
98208SOL    HW196463   9.233   0.296   7.811
98208SOL    HW296464   9.209   0.244   7.951
98209SOL     OW96465  10.867   3.039   3.255
98209SOL    HW196466  10.833   3.018   3.342
98209SOL    HW296467  10.921   2.964   3.231
98210SOL     OW96468   0.610   8.854   9.698
98210SOL    HW196469   0.652   8.769   9.692
98210SOL    HW296470   0.681   8.916   9.714
98211SOL     OW96471   9.444  14.182   9.062
98211SOL    HW196472   9.351  14.207   9.066
98211SOL    HW296473   9.489  14.255   9.104
98212SOL     OW96474   0.155  14.430  13.296
98212SOL    HW196475   0.090  14.453  13.362
98212SOL    HW296476   0.153  14.334  13.292
98213SOL     OW96477   8.117   3.921   7.870
98213SOL    HW196478   8.080   4.004   7.900
98213SOL    HW296479   8.096   3.918   7.777
98214SOL     OW96480   9.332  11.845   8.176
98214SOL    HW196481   9.360  11.936   8.173
98214SOL    HW296482   9.366  11.811   8.258
98215SOL     OW96483  10.363   9.575   7.120
98215SOL    HW196484  10.325   9.610   7.039
98215SOL    HW296485  10.314   9.494   7.136
98216SOL     OW96486   8.682   1.245   7.339
98216SOL    HW196487   8.746   1.307   7.374
98216SOL    HW296488   8.601   1.295   7.334
98217SOL     OW96489   1.681  13.117   2.087
98217SOL    HW196490   1.627  13.162   2.153
98217SOL    HW296491   1.618  13.087   2.021
98218SOL     OW96492   0.403   9.389   0.778
98218SOL    HW196493   0.385   9.430   0.863
98218SOL    HW296494   0.484   9.431   0.748
98219SOL     OW96495  11.302  12.535   4.558
98219SOL    HW196496  11.329  12.538   4.650
98219SOL    HW296497  11.238  12.464   4.554
98220SOL     OW96498  14.137  10.649  11.952
98220SOL    HW196499  14.053  10.695  11.965
98220SOL    HW296500  14.112  10.565  11.914
98221SOL     OW96501  13.287   9.881  11.635
98221SOL    HW196502  13.311   9.972  11.652
98221SOL    HW296503  13.215   9.863  11.696
98222SOL     OW96504   3.028   3.544   1.770
98222SOL    HW196505   3.003   3.607   1.837
98222SOL    HW296506   3.119   3.522   1.790
98223SOL     OW96507   7.492  12.098   7.542
98223SOL    HW196508   7.524  12.076   7.629
98223SOL    HW296509   7.571  12.119   7.492
98224SOL     OW96510  10.400   9.972   9.596
98224SOL    HW196511  10.391  10.009   9.509
98224SOL    HW296512  10.404   9.877   9.582
98225SOL     OW96513   6.881  13.977   2.882
98225SOL    HW196514   6.940  13.958   2.955
98225SOL    HW296515   6.927  13.946   2.804
98226SOL     OW96516   8.442   6.393   5.339
98226SOL    HW196517   8.383   6.351   5.402
98226SOL    HW296518   8.439   6.486   5.362
98227SOL     OW96519   1.279   5.442  11.516
98227SOL    HW196520   1.224   5.415  11.589
98227SOL    HW296521   1.369   5.431  11.547
98228SOL     OW96522   3.808   5.452   8.423
98228SOL    HW196523   3.724   5.498   8.426
98228SOL    HW296524   3.874   5.520   8.439
98229SOL     OW96525   1.639  10.297   8.492
98229SOL    HW196526   1.588  10.251   8.559
98229SOL    HW296527   1.692  10.228   8.452
98230SOL     OW96528   3.006  12.629   2.212
98230SOL    HW196529   3.037  12.608   2.124
98230SOL    HW296530   2.966  12.716   2.203
98231SOL     OW96531   7.712  14.820   5.151
98231SOL    HW196532   7.731  14.876   5.226
98231SOL    HW296533   7.795  14.776   5.131
98232SOL     OW96534   1.623  10.167  11.426
98232SOL    HW196535   1.694  10.109  11.452
98232SOL    HW296536   1.551  10.144  11.485
98233SOL     OW96537  11.687   2.104  11.094
98233SOL    HW196538  11.595   2.129  11.084
98233SOL    HW296539  11.706   2.118  11.187
98234SOL     OW96540   1.880   6.936   1.954
98234SOL    HW196541   1.861   6.869   1.888
98234SOL    HW296542   1.804   6.994   1.951
98235SOL     OW96543   3.696   9.906  13.508
98235SOL    HW196544   3.695   9.855  13.589
98235SOL    HW296545   3.762   9.974  13.524
98236SOL     OW96546   9.526   7.856   8.289
98236SOL    HW196547   9.462   7.792   8.321
98236SOL    HW296548   9.598   7.804   8.255
98237SOL     OW96549   7.997   6.044   6.762
98237SOL    HW196550   7.918   5.995   6.783
98237SOL    HW296551   7.980   6.084   6.677
98238SOL     OW96552   8.957  10.805   0.390
98238SOL    HW196553   8.869  10.802   0.351
98238SOL    HW296554   9.011  10.849   0.325
98239SOL     OW96555   4.156   3.560  11.280
98239SOL    HW196556   4.176   3.541  11.188
98239SOL    HW296557   4.106   3.484  11.310
98240SOL     OW96558  12.866  13.406  11.468
98240SOL    HW196559  12.955  13.413  11.504
98240SOL    HW296560  12.811  13.448  11.533
98241SOL     OW96561   0.175   6.224   6.053
98241SOL    HW196562   0.168   6.236   5.959
98241SOL    HW296563   0.266   6.245   6.074
98242SOL     OW96564  11.194   4.804   7.950
98242SOL    HW196565  11.289   4.793   7.951
98242SOL    HW296566  11.179   4.883   7.898
98243SOL     OW96567  12.764   6.420   6.860
98243SOL    HW196568  12.683   6.390   6.818
98243SOL    HW296569  12.764   6.378   6.946
98244SOL     OW96570   0.789   1.983   1.391
98244SOL    HW196571   0.722   2.047   1.417
98244SOL    HW296572   0.865   2.006   1.445
98245SOL     OW96573   6.709   3.479   2.273
98245SOL    HW196574   6.778   3.510   2.331
98245SOL    HW296575   6.661   3.558   2.248
98246SOL     OW96576  12.332  11.484  12.838
98246SOL    HW196577  12.352  11.564  12.789
98246SOL    HW296578  12.399  11.480  12.906
98247SOL     OW96579   9.590   1.575  10.460
98247SOL    HW196580   9.629   1.658  10.489
98247SOL    HW296581   9.555   1.595  10.373
98248SOL     OW96582   0.222   7.589  10.062
98248SOL    HW196583   0.232   7.568  10.155
98248SOL    HW296584   0.311   7.609  10.032
98249SOL     OW96585  13.756  12.183  13.068
98249SOL    HW196586  13.823  12.251  13.067
98249SOL    HW296587  13.803  12.103  13.095
98250SOL     OW96588  12.265   8.242   5.410
98250SOL    HW196589  12.288   8.166   5.356
98250SOL    HW296590  12.300   8.317   5.362
98251SOL     OW96591   6.156   3.558   0.358
98251SOL    HW196592   6.100   3.481   0.350
98251SOL    HW296593   6.097   3.629   0.382
98252SOL     OW96594  14.479   9.839  13.854
98252SOL    HW196595  14.430   9.850  13.773
98252SOL    HW296596  14.414   9.847  13.923
98253SOL     OW96597   6.692   6.774   5.479
98253SOL    HW196598   6.780   6.739   5.487
98253SOL    HW296599   6.679   6.825   5.560
98254SOL     OW96600  13.810  14.474   0.260
98254SOL    HW196601  13.830  14.566   0.244
98254SOL    HW296602  13.799  14.436   0.173
98255SOL     OW96603   4.104   3.246  12.901
98255SOL    HW196604   4.089   3.157  12.869
98255SOL    HW296605   4.020   3.290  12.889
98256SOL     OW96606   8.525   7.262   2.482
98256SOL    HW196607   8.565   7.328   2.539
98256SOL    HW296608   8.432   7.285   2.479
98257SOL     OW96609  11.295   9.892  10.792
98257SOL    HW196610  11.351   9.970  10.788
98257SOL    HW296611  11.327   9.837  10.720
98258SOL     OW96612   2.194   6.686  11.544
98258SOL    HW196613   2.177   6.699  11.637
98258SOL    HW296614   2.174   6.594  11.528
98259SOL     OW96615   7.443   4.671   1.370
98259SOL    HW196616   7.527   4.654   1.412
98259SOL    HW296617   7.433   4.766   1.374
98260SOL     OW96618  11.258   0.774  12.753
98260SOL    HW196619  11.272   0.826  12.674
98260SOL    HW296620  11.252   0.838  12.824
98261SOL     OW96621   4.967   7.665   8.816
98261SOL    HW196622   5.056   7.631   8.804
98261SOL    HW296623   4.940   7.693   8.729
98262SOL     OW96624   2.054   4.999   4.308
98262SOL    HW196625   2.056   4.923   4.250
98262SOL    HW296626   2.096   4.968   4.389
98263SOL     OW96627   0.996   9.420   1.961
98263SOL    HW196628   0.988   9.513   1.939
98263SOL    HW296629   1.051   9.419   2.039
98264SOL     OW96630   5.305   1.064   1.101
98264SOL    HW196631   5.285   1.108   1.018
98264SOL    HW296632   5.388   1.019   1.084
98265SOL     OW96633  12.874   7.960   0.989
98265SOL    HW196634  12.858   7.872   0.955
98265SOL    HW296635  12.796   7.981   1.039
98266SOL     OW96636  13.724   9.276   7.918
98266SOL    HW196637  13.741   9.185   7.895
98266SOL    HW296638  13.682   9.314   7.840
98267SOL     OW96639   8.884  14.569   6.518
98267SOL    HW196640   8.968  14.611   6.536
98267SOL    HW296641   8.883  14.557   6.423
98268SOL     OW96642  13.507  13.491  12.106
98268SOL    HW196643  13.558  13.483  12.025
98268SOL    HW296644  13.432  13.545  12.081
98269SOL     OW96645   6.460   5.826   4.954
98269SOL    HW196646   6.367   5.850   4.953
98269SOL    HW296647   6.478   5.798   4.864
98270SOL     OW96648   1.442   6.745   2.165
98270SOL    HW196649   1.432   6.814   2.099
98270SOL    HW296650   1.536   6.726   2.165
98271SOL     OW96651  12.598   8.798   9.137
98271SOL    HW196652  12.530   8.805   9.069
98271SOL    HW296653  12.678   8.829   9.094
98272SOL     OW96654  14.375   0.925   3.468
98272SOL    HW196655  14.444   0.982   3.503
98272SOL    HW296656  14.423   0.856   3.421
98273SOL     OW96657  10.417   2.402   9.161
98273SOL    HW196658  10.487   2.450   9.205
98273SOL    HW296659  10.453   2.381   9.075
98274SOL     OW96660   8.292  12.140   8.829
98274SOL    HW196661   8.342  12.198   8.771
98274SOL    HW296662   8.348  12.131   8.907
98275SOL     OW96663   7.799   1.667   7.316
98275SOL    HW196664   7.759   1.649   7.401
98275SOL    HW296665   7.839   1.584   7.291
98276SOL     OW96666   0.282  12.002   0.218
98276SOL    HW196667   0.247  11.913   0.216
98276SOL    HW296668   0.270  12.035   0.129
98277SOL     OW96669   2.412   8.957   6.338
98277SOL    HW196670   2.377   9.011   6.267
98277SOL    HW296671   2.336   8.917   6.379
98278SOL     OW96672  12.184  10.134  10.756
98278SOL    HW196673  12.132  10.116  10.677
98278SOL    HW296674  12.205  10.227  10.750
98279SOL     OW96675  13.406   9.629   4.957
98279SOL    HW196676  13.389   9.642   4.864
98279SOL    HW296677  13.489   9.580   4.960
98280SOL     OW96678   3.211   2.005   5.074
98280SOL    HW196679   3.151   1.932   5.086
98280SOL    HW296680   3.252   1.988   4.989
98281SOL     OW96681   9.427  13.516   4.480
98281SOL    HW196682   9.512  13.559   4.479
98281SOL    HW296683   9.378  13.561   4.549
98282SOL     OW96684   3.021   9.145  13.763
98282SOL    HW196685   3.081   9.153  13.688
98282SOL    HW296686   3.025   9.230  13.806
98283SOL     OW96687  13.271  13.523  13.391
98283SOL    HW196688  13.247  13.511  13.483
98283SOL    HW296689  13.204  13.475  13.343
98284SOL     OW96690  10.461  13.021   9.265
98284SOL    HW196691  10.382  13.030   9.319
98284SOL    HW296692  10.479  13.110   9.236
98285SOL     OW96693   3.078   1.717   3.292
98285SOL    HW196694   3.103   1.704   3.201
98285SOL    HW296695   2.986   1.691   3.295
98286SOL     OW96696   9.581  14.671   3.968
98286SOL    HW196697   9.486  14.664   3.972
98286SOL    HW296698   9.599  14.764   3.986
98287SOL     OW96699   4.057   6.518   1.100
98287SOL    HW196700   3.993   6.468   1.048
98287SOL    HW296701   4.104   6.570   1.035
98288SOL     OW96702   2.426  14.213  13.998
98288SOL    HW196703   2.452  14.137  13.946
98288SOL    HW296704   2.399  14.279  13.934
98289SOL     OW96705   8.148  10.353   3.136
98289SOL    HW196706   8.091  10.279   3.119
98289SOL    HW296707   8.091  10.418   3.178
98290SOL     OW96708   5.822  10.284   0.281
98290SOL    HW196709   5.850  10.360   0.332
98290SOL    HW296710   5.821  10.317   0.190
98291SOL     OW96711  13.758   8.383  12.024
98291SOL    HW196712  13.786   8.459  12.075
98291SOL    HW296713  13.827   8.371  11.958
98292SOL     OW96714   5.950  10.347  14.243
98292SOL    HW196715   6.038  10.378  14.220
98292SOL    HW296716   5.964  10.257  14.275
98293SOL     OW96717  14.367   6.852   1.002
98293SOL    HW196718  14.389   6.937   1.040
98293SOL    HW296719  14.352   6.871   0.909
98294SOL     OW96720  13.858  12.833   9.189
98294SOL    HW196721  13.902  12.894   9.248
98294SOL    HW296722  13.918  12.759   9.181
98295SOL     OW96723   8.280   5.777  11.972
98295SOL    HW196724   8.201   5.723  11.979
98295SOL    HW296725   8.328   5.760  12.053
98296SOL     OW96726  11.118   8.936   6.084
98296SOL    HW196727  11.151   8.850   6.058
98296SOL    HW296728  11.193   8.980   6.124
98297SOL     OW96729   3.976   1.657   1.035
98297SOL    HW196730   3.995   1.630   0.946
98297SOL    HW296731   3.937   1.744   1.026
98298SOL     OW96732   5.291  13.810   1.820
98298SOL    HW196733   5.372  13.761   1.808
98298SOL    HW296734   5.244  13.800   1.737
98299SOL     OW96735   4.203   7.903  13.244
98299SOL    HW196736   4.118   7.866  13.270
98299SOL    HW296737   4.232   7.845  13.173
98300SOL     OW96738  12.614  14.145   8.405
98300SOL    HW196739  12.580  14.138   8.494
98300SOL    HW296740  12.701  14.105   8.410
98301SOL     OW96741   7.723  11.057   9.681
98301SOL    HW196742   7.718  11.033   9.774
98301SOL    HW296743   7.730  11.152   9.682
98302SOL     OW96744   8.462   1.987   7.707
98302SOL    HW196745   8.552   2.015   7.726
98302SOL    HW296746   8.423   2.061   7.661
98303SOL     OW96747   1.215   6.739   5.514
98303SOL    HW196748   1.243   6.676   5.448
98303SOL    HW296749   1.139   6.699   5.556
98304SOL     OW96750  14.255   3.817   1.651
98304SOL    HW196751  14.297   3.869   1.719
98304SOL    HW296752  14.309   3.738   1.644
98305SOL     OW96753  11.124   6.047   2.123
98305SOL    HW196754  11.139   5.955   2.101
98305SOL    HW296755  11.057   6.076   2.062
98306SOL     OW96756   7.423   9.196   7.782
98306SOL    HW196757   7.423   9.262   7.851
98306SOL    HW296758   7.481   9.127   7.815
98307SOL     OW96759  12.950   4.438   8.651
98307SOL    HW196760  12.978   4.485   8.572
98307SOL    HW296761  13.029   4.393   8.681
98308SOL     OW96762   6.691   1.986   6.344
98308SOL    HW196763   6.646   1.909   6.379
98308SOL    HW296764   6.716   2.037   6.422
98309SOL     OW96765  13.525   4.468   8.973
98309SOL    HW196766  13.618   4.480   8.953
98309SOL    HW296767  13.484   4.454   8.888
98310SOL     OW96768  10.297   6.036   9.235
98310SOL    HW196769  10.224   6.095   9.252
98310SOL    HW296770  10.334   6.066   9.152
98311SOL     OW96771   8.278  12.864  10.681
98311SOL    HW196772   8.223  12.942  10.683
98311SOL    HW296773   8.318  12.866  10.593
98312SOL     OW96774  10.168   8.969  10.044
98312SOL    HW196775  10.213   8.926  10.116
98312SOL    HW296776  10.221   8.948   9.967
98313SOL     OW96777  10.004  12.014   2.712
98313SOL    HW196778  10.049  11.930   2.718
98313SOL    HW296779  10.066  12.071   2.665
98314SOL     OW96780   7.015   0.843   4.148
98314SOL    HW196781   7.014   0.749   4.165
98314SOL    HW296782   7.093   0.858   4.094
98315SOL     OW96783  14.480  10.768   9.798
98315SOL    HW196784  14.530  10.767   9.879
98315SOL    HW296785  14.504  10.687   9.753
98316SOL     OW96786   9.412   3.214  14.780
98316SOL    HW196787   9.336   3.198  14.836
98316SOL    HW296788   9.430   3.307  14.790
98317SOL     OW96789   9.262   9.663  10.136
98317SOL    HW196790   9.278   9.586  10.080
98317SOL    HW296791   9.168   9.678  10.129
98318SOL     OW96792   0.167  12.789   0.822
98318SOL    HW196793   0.214  12.852   0.766
98318SOL    HW296794   0.115  12.844   0.881
98319SOL     OW96795   2.581   5.308   7.427
98319SOL    HW196796   2.498   5.270   7.400
98319SOL    HW296797   2.589   5.287   7.520
98320SOL     OW96798   5.812   4.290   7.163
98320SOL    HW196799   5.895   4.294   7.211
98320SOL    HW296800   5.781   4.200   7.177
98321SOL     OW96801  13.846  13.000  12.906
98321SOL    HW196802  13.793  13.069  12.867
98321SOL    HW296803  13.934  13.038  12.911
98322SOL     OW96804   5.172  14.516   0.891
98322SOL    HW196805   5.162  14.456   0.965
98322SOL    HW296806   5.200  14.599   0.931
98323SOL     OW96807   0.402   7.326   4.630
98323SOL    HW196808   0.324   7.279   4.658
98323SOL    HW296809   0.368   7.398   4.576
98324SOL     OW96810  12.358   4.068  12.706
98324SOL    HW196811  12.378   4.057  12.613
98324SOL    HW296812  12.388   3.987  12.747
98325SOL     OW96813   2.156   8.648   6.903
98325SOL    HW196814   2.251   8.649   6.896
98325SOL    HW296815   2.132   8.556   6.890
98326SOL     OW96816   4.428  10.256  12.481
98326SOL    HW196817   4.497  10.191  12.488
98326SOL    HW296818   4.444  10.300  12.397
98327SOL     OW96819   7.923  12.760  10.191
98327SOL    HW196820   7.872  12.831  10.231
98327SOL    HW296821   7.946  12.793  10.104
98328SOL     OW96822   8.792  14.350   1.540
98328SOL    HW196823   8.741  14.311   1.469
98328SOL    HW296824   8.769  14.298   1.617
98329SOL     OW96825  13.814  13.683  14.458
98329SOL    HW196826  13.766  13.609  14.419
98329SOL    HW296827  13.864  13.720  14.385
98330SOL     OW96828   3.908   4.747   2.356
98330SOL    HW196829   3.910   4.668   2.302
98330SOL    HW296830   3.997   4.754   2.392
98331SOL     OW96831   7.622  10.867   9.509
98331SOL    HW196832   7.654  10.936   9.567
98331SOL    HW296833   7.634  10.902   9.421
98332SOL     OW96834   8.074   4.266   7.616
98332SOL    HW196835   8.106   4.351   7.586
98332SOL    HW296836   8.152   4.211   7.622
98333SOL     OW96837   5.150   6.677  11.307
98333SOL    HW196838   5.055   6.693  11.314
98333SOL    HW296839   5.188   6.764  11.300
98334SOL     OW96840  13.232   2.740   8.997
98334SOL    HW196841  13.175   2.720   9.072
98334SOL    HW296842  13.220   2.665   8.938
98335SOL     OW96843   8.783   3.058   2.739
98335SOL    HW196844   8.874   3.073   2.765
98335SOL    HW296845   8.734   3.061   2.822
98336SOL     OW96846  14.288   8.673   7.127
98336SOL    HW196847  14.284   8.739   7.058
98336SOL    HW296848  14.330   8.598   7.086
98337SOL     OW96849  14.618  12.024   0.744
98337SOL    HW196850  14.544  12.071   0.784
98337SOL    HW296851  14.695  12.057   0.790
98338SOL     OW96852  13.689  10.667  14.039
98338SOL    HW196853  13.682  10.624  13.954
98338SOL    HW296854  13.695  10.761  14.019
98339SOL     OW96855  10.008  12.725  14.749
98339SOL    HW196856  10.089  12.680  14.772
98339SOL    HW296857   9.939  12.672  14.790
98340SOL     OW96858   8.582   5.474  12.121
98340SOL    HW196859   8.545   5.457  12.034
98340SOL    HW296860   8.627   5.392  12.144
98341SOL     OW96861   5.617  14.778   4.575
98341SOL    HW196862   5.547  14.739   4.522
98341SOL    HW296863   5.623  14.869   4.546
98342SOL     OW96864   4.830   6.973  14.125
98342SOL    HW196865   4.808   6.891  14.082
98342SOL    HW296866   4.925   6.976  14.125
98343SOL     OW96867   5.700  13.998  14.801
98343SOL    HW196868   5.638  14.063  14.769
98343SOL    HW296869   5.708  13.936  14.729
98344SOL     OW96870   6.724  12.045  12.652
98344SOL    HW196871   6.686  12.027  12.738
98344SOL    HW296872   6.648  12.054  12.594
98345SOL     OW96873   0.077   9.630  14.054
98345SOL    HW196874   0.025   9.668  14.125
98345SOL    HW296875   0.016   9.627  13.980
98346SOL     OW96876  14.164   5.929   2.954
98346SOL    HW196877  14.119   5.932   2.869
98346SOL    HW296878  14.199   6.017   2.966
98347SOL     OW96879   7.317   6.208  12.131
98347SOL    HW196880   7.228   6.211  12.166
98347SOL    HW296881   7.372   6.188  12.207
98348SOL     OW96882   0.373   4.789   1.109
98348SOL    HW196883   0.348   4.838   1.187
98348SOL    HW296884   0.424   4.851   1.057
98349SOL     OW96885  12.109   7.086   2.948
98349SOL    HW196886  12.121   7.016   3.012
98349SOL    HW296887  12.037   7.138   2.983
98350SOL     OW96888   0.592   7.587   7.665
98350SOL    HW196889   0.504   7.565   7.695
98350SOL    HW296890   0.578   7.651   7.595
98351SOL     OW96891  11.597  11.433   8.367
98351SOL    HW196892  11.562  11.432   8.456
98351SOL    HW296893  11.633  11.345   8.353
98352SOL     OW96894  13.058   4.527  11.392
98352SOL    HW196895  13.139   4.483  11.419
98352SOL    HW296896  13.072   4.619  11.416
98353SOL     OW96897   6.393   9.634  13.074
98353SOL    HW196898   6.447   9.641  13.153
98353SOL    HW296899   6.437   9.567  13.021
98354SOL     OW96900   1.317   5.846   0.984
98354SOL    HW196901   1.308   5.755   1.015
98354SOL    HW296902   1.263   5.849   0.905
98355SOL     OW96903   6.891   2.252  13.584
98355SOL    HW196904   6.834   2.274  13.658
98355SOL    HW296905   6.960   2.318  13.585
98356SOL     OW96906   0.314   7.297   0.908
98356SOL    HW196907   0.345   7.375   0.954
98356SOL    HW296908   0.246   7.261   0.966
98357SOL     OW96909   6.518  12.464   7.673
98357SOL    HW196910   6.506  12.467   7.578
98357SOL    HW296911   6.442  12.416   7.706
98358SOL     OW96912   2.862   6.349   9.002
98358SOL    HW196913   2.906   6.434   9.003
98358SOL    HW296914   2.836   6.337   8.911
98359SOL     OW96915   6.837   3.674   8.595
98359SOL    HW196916   6.915   3.711   8.635
98359SOL    HW296917   6.869   3.599   8.544
98360SOL     OW96918   2.784  12.775   8.806
98360SOL    HW196919   2.742  12.701   8.761
98360SOL    HW296920   2.713  12.839   8.818
98361SOL     OW96921   8.240   1.713  13.597
98361SOL    HW196922   8.158   1.664  13.602
98361SOL    HW296923   8.280   1.702  13.683
98362SOL     OW96924   4.472   6.052   2.576
98362SOL    HW196925   4.424   5.975   2.544
98362SOL    HW296926   4.448   6.059   2.668
98363SOL     OW96927   6.225  10.279   0.590
98363SOL    HW196928   6.196  10.189   0.601
98363SOL    HW296929   6.206  10.300   0.498
98364SOL     OW96930  10.836   6.703   7.182
98364SOL    HW196931  10.766   6.726   7.121
98364SOL    HW296932  10.791   6.668   7.259
98365SOL     OW96933  13.537  14.768   9.374
98365SOL    HW196934  13.623  14.788   9.337
98365SOL    HW296935  13.481  14.752   9.297
98366SOL     OW96936  10.268   2.555  10.996
98366SOL    HW196937  10.234   2.590  10.913
98366SOL    HW296938  10.357   2.526  10.974
98367SOL     OW96939   3.844   1.404  10.632
98367SOL    HW196940   3.926   1.421  10.584
98367SOL    HW296941   3.777   1.399  10.563
98368SOL     OW96942   7.676   7.959   1.657
98368SOL    HW196943   7.746   7.929   1.716
98368SOL    HW296944   7.636   7.878   1.625
98369SOL     OW96945   4.209   4.784   5.912
98369SOL    HW196946   4.167   4.841   5.977
98369SOL    HW296947   4.178   4.818   5.827
98370SOL     OW96948   0.151  13.876   4.734
98370SOL    HW196949   0.182  13.965   4.750
98370SOL    HW296950   0.064  13.887   4.695
98371SOL     OW96951   5.576   2.744  12.469
98371SOL    HW196952   5.582   2.796  12.549
98371SOL    HW296953   5.556   2.808  12.400
98372SOL     OW96954   2.570  14.814  10.305
98372SOL    HW196955   2.585  14.873  10.379
98372SOL    HW296956   2.479  14.829  10.280
98373SOL     OW96957   2.489  13.042   9.881
98373SOL    HW196958   2.436  12.962   9.882
98373SOL    HW296959   2.510  13.055   9.788
98374SOL     OW96960   5.039   5.613   6.823
98374SOL    HW196961   5.053   5.656   6.738
98374SOL    HW296962   5.094   5.535   6.819
98375SOL     OW96963  11.422   0.283   4.038
98375SOL    HW196964  11.482   0.218   4.073
98375SOL    HW296965  11.477   0.343   3.987
98376SOL     OW96966   8.887  11.488   3.947
98376SOL    HW196967   8.827  11.562   3.956
98376SOL    HW296968   8.832  11.414   3.920
98377SOL     OW96969  14.779   8.840  13.645
98377SOL    HW196970  14.717   8.904  13.682
98377SOL    HW296971  14.726   8.787  13.586
98378SOL     OW96972   6.524  13.868  13.060
98378SOL    HW196973   6.453  13.807  13.039
98378SOL    HW296974   6.498  13.906  13.144
98379SOL     OW96975  13.972   9.340  13.762
98379SOL    HW196976  14.050   9.285  13.775
98379SOL    HW296977  13.928   9.339  13.846
98380SOL     OW96978   8.948   2.662  11.429
98380SOL    HW196979   8.932   2.571  11.453
98380SOL    HW296980   9.034   2.662  11.388
98381SOL     OW96981  12.743   8.017   8.951
98381SOL    HW196982  12.801   7.948   8.983
98381SOL    HW296983  12.769   8.030   8.860
98382SOL     OW96984  10.575   8.639   6.006
98382SOL    HW196985  10.555   8.553   5.969
98382SOL    HW296986  10.631   8.620   6.081
98383SOL     OW96987   4.996  12.236   2.755
98383SOL    HW196988   5.033  12.199   2.835
98383SOL    HW296989   4.902  12.217   2.762
98384SOL     OW96990  13.234   5.113   6.438
98384SOL    HW196991  13.271   5.199   6.419
98384SOL    HW296992  13.202   5.120   6.528
98385SOL     OW96993   6.109   6.557   2.597
98385SOL    HW196994   6.073   6.473   2.626
98385SOL    HW296995   6.202   6.539   2.583
98386SOL     OW96996   5.843  10.678   2.711
98386SOL    HW196997   5.892  10.726   2.645
98386SOL    HW296998   5.804  10.746   2.765
98387SOL     OW96999   1.377   7.812   5.387
98387SOL    HW197000   1.442   7.872   5.349
98387SOL    HW297001   1.301   7.819   5.328
98388SOL     OW97002  10.929   0.677   7.106
98388SOL    HW197003  10.916   0.594   7.059
98388SOL    HW297004  10.875   0.740   7.058
98389SOL     OW97005   9.647   5.594   1.507
98389SOL    HW197006   9.713   5.530   1.533
98389SOL    HW297007   9.632   5.577   1.414
98390SOL     OW97008   0.311  14.618   6.884
98390SOL    HW197009   0.260  14.597   6.962
98390SOL    HW297010   0.296  14.544   6.825
98391SOL     OW97011   8.813   9.467   0.889
98391SOL    HW197012   8.779   9.476   0.978
98391SOL    HW297013   8.867   9.388   0.892
98392SOL     OW97014   1.846  13.111   1.859
98392SOL    HW197015   1.836  13.163   1.938
98392SOL    HW297016   1.887  13.029   1.888
98393SOL     OW97017   5.695   5.338  12.946
98393SOL    HW197018   5.738   5.375  13.023
98393SOL    HW297019   5.712   5.244  12.952
98394SOL     OW97020  11.468  12.252  12.427
98394SOL    HW197021  11.514  12.322  12.473
98394SOL    HW297022  11.381  12.288  12.410
98395SOL     OW97023   0.639  14.623   1.401
98395SOL    HW197024   0.668  14.600   1.313
98395SOL    HW297025   0.656  14.717   1.408
98396SOL     OW97026  14.137  13.987  13.116
98396SOL    HW197027  14.046  13.989  13.144
98396SOL    HW297028  14.171  13.905  13.151
98397SOL     OW97029   6.123   2.291   3.887
98397SOL    HW197030   6.142   2.336   3.805
98397SOL    HW297031   6.205   2.294   3.937
98398SOL     OW97032   2.085   5.729   8.708
98398SOL    HW197033   2.097   5.823   8.694
98398SOL    HW297034   2.093   5.691   8.621
98399SOL     OW97035   2.253  12.348   3.773
98399SOL    HW197036   2.161  12.333   3.750
98399SOL    HW297037   2.302  12.321   3.695
98400SOL     OW97038  14.604   8.221  10.360
98400SOL    HW197039  14.588   8.305  10.317
98400SOL    HW297040  14.524   8.171  10.345
98401SOL     OW97041  10.838  10.973   8.932
98401SOL    HW197042  10.844  11.063   8.899
98401SOL    HW297043  10.747  10.964   8.961
98402SOL     OW97044   2.436   9.161   4.362
98402SOL    HW197045   2.366   9.166   4.427
98402SOL    HW297046   2.402   9.101   4.295
98403SOL     OW97047   3.395   9.149   2.380
98403SOL    HW197048   3.362   9.066   2.346
98403SOL    HW297049   3.466   9.173   2.320
98404SOL     OW97050   1.563   0.676  12.487
98404SOL    HW197051   1.588   0.609  12.550
98404SOL    HW297052   1.584   0.638  12.402
98405SOL     OW97053  13.100   0.183   2.532
98405SOL    HW197054  13.049   0.153   2.457
98405SOL    HW297055  13.109   0.106   2.588
98406SOL     OW97056   8.946   2.206   1.647
98406SOL    HW197057   8.972   2.206   1.555
98406SOL    HW297058   9.028   2.200   1.695
98407SOL     OW97059  13.870   8.832   3.188
98407SOL    HW197060  13.892   8.773   3.260
98407SOL    HW297061  13.896   8.784   3.109
98408SOL     OW97062   4.163  13.684  10.015
98408SOL    HW197063   4.239  13.695  10.072
98408SOL    HW297064   4.146  13.772   9.981
98409SOL     OW97065   4.989   2.768   7.372
98409SOL    HW197066   5.048   2.767   7.447
98409SOL    HW297067   5.045   2.756   7.296
98410SOL     OW97068   3.373   2.259  10.241
98410SOL    HW197069   3.457   2.274  10.284
98410SOL    HW297070   3.346   2.172  10.271
98411SOL     OW97071   4.119  10.733   3.340
98411SOL    HW197072   4.024  10.740   3.335
98411SOL    HW297073   4.147  10.713   3.250
98412SOL     OW97074   9.034  10.216   7.451
98412SOL    HW197075   9.097  10.197   7.521
98412SOL    HW297076   8.953  10.236   7.498
98413SOL     OW97077  11.644   5.182  12.391
98413SOL    HW197078  11.571   5.121  12.381
98413SOL    HW297079  11.721   5.133  12.364
98414SOL     OW97080   4.976  12.041  13.547
98414SOL    HW197081   5.026  12.102  13.601
98414SOL    HW297082   4.948  12.094  13.472
98415SOL     OW97083   2.647  14.774  11.670
98415SOL    HW197084   2.619  14.685  11.651
98415SOL    HW297085   2.661  14.814  11.583
98416SOL     OW97086   6.585  12.551   6.419
98416SOL    HW197087   6.518  12.599   6.468
98416SOL    HW297088   6.588  12.595   6.334
98417SOL     OW97089   5.037   5.080   1.725
98417SOL    HW197090   4.952   5.102   1.687
98417SOL    HW297091   5.034   5.119   1.813
98418SOL     OW97092   3.613   7.652   9.254
98418SOL    HW197093   3.553   7.649   9.180
98418SOL    HW297094   3.617   7.745   9.277
98419SOL     OW97095   4.390   5.749  10.245
98419SOL    HW197096   4.464   5.735  10.305
98419SOL    HW297097   4.313   5.723  10.296
98420SOL     OW97098   5.226   4.079   5.799
98420SOL    HW197099   5.227   4.070   5.894
98420SOL    HW297100   5.318   4.086   5.774
98421SOL     OW97101   2.538  11.116   1.439
98421SOL    HW197102   2.533  11.095   1.533
98421SOL    HW297103   2.619  11.166   1.430
98422SOL     OW97104   1.766  12.827   9.824
98422SOL    HW197105   1.743  12.919   9.835
98422SOL    HW297106   1.759  12.811   9.730
98423SOL     OW97107   4.988   2.817   1.301
98423SOL    HW197108   5.067   2.848   1.346
98423SOL    HW297109   4.999   2.846   1.211
98424SOL     OW97110   8.213  11.772  12.987
98424SOL    HW197111   8.263  11.815  12.917
98424SOL    HW297112   8.126  11.757  12.949
98425SOL     OW97113   7.386   0.415   3.659
98425SOL    HW197114   7.332   0.342   3.629
98425SOL    HW297115   7.474   0.393   3.630
98426SOL     OW97116   7.310  14.437   2.165
98426SOL    HW197117   7.328  14.528   2.189
98426SOL    HW297118   7.397  14.396   2.158
98427SOL     OW97119  12.273   3.610   4.414
98427SOL    HW197120  12.310   3.695   4.389
98427SOL    HW297121  12.329   3.580   4.485
98428SOL     OW97122   1.063   8.941   8.187
98428SOL    HW197123   1.116   8.938   8.267
98428SOL    HW297124   0.998   9.009   8.206
98429SOL     OW97125   7.513  10.879   5.447
98429SOL    HW197126   7.581  10.829   5.492
98429SOL    HW297127   7.542  10.970   5.456
98430SOL     OW97128  12.598  12.730   8.298
98430SOL    HW197129  12.690  12.706   8.282
98430SOL    HW297130  12.587  12.813   8.252
98431SOL     OW97131  11.892   7.316   2.349
98431SOL    HW197132  11.980   7.343   2.322
98431SOL    HW297133  11.878   7.360   2.433
98432SOL     OW97134  12.067   5.232  14.751
98432SOL    HW197135  12.136   5.239  14.685
98432SOL    HW297136  12.022   5.316  14.749
98433SOL     OW97137  14.339   2.574   5.541
98433SOL    HW197138  14.274   2.507   5.519
98433SOL    HW297139  14.304   2.654   5.501
98434SOL     OW97140   9.918   4.256   0.585
98434SOL    HW197141   9.979   4.229   0.653
98434SOL    HW297142   9.885   4.174   0.548
98435SOL     OW97143  11.192  10.521   4.009
98435SOL    HW197144  11.245  10.599   4.025
98435SOL    HW297145  11.190  10.511   3.914
98436SOL     OW97146  12.685   8.336   1.179
98436SOL    HW197147  12.609   8.391   1.198
98436SOL    HW297148  12.648   8.249   1.161
98437SOL     OW97149   0.506  12.591   0.910
98437SOL    HW197150   0.487  12.634   0.993
98437SOL    HW297151   0.420  12.574   0.872
98438SOL     OW97152   5.142  11.779  11.864
98438SOL    HW197153   5.163  11.869  11.841
98438SOL    HW297154   5.172  11.769  11.954
98439SOL     OW97155   3.311   9.480   6.699
98439SOL    HW197156   3.393   9.523   6.675
98439SOL    HW297157   3.327   9.444   6.786
98440SOL     OW97158   2.895  14.567   5.951
98440SOL    HW197159   2.924  14.608   5.869
98440SOL    HW297160   2.945  14.486   5.957
98441SOL     OW97161  12.711   6.329   8.180
98441SOL    HW197162  12.678   6.263   8.120
98441SOL    HW297163  12.716   6.285   8.265
98442SOL     OW97164  14.025   8.150  13.351
98442SOL    HW197165  14.002   8.127  13.441
98442SOL    HW297166  14.020   8.067  13.303
98443SOL     OW97167   8.373   5.811   2.855
98443SOL    HW197168   8.422   5.747   2.804
98443SOL    HW297169   8.439   5.863   2.900
98444SOL     OW97170   2.873   8.027  14.394
98444SOL    HW197171   2.922   8.023  14.312
98444SOL    HW297172   2.851   8.119  14.405
98445SOL     OW97173  13.536   8.259   7.669
98445SOL    HW197174  13.609   8.234   7.726
98445SOL    HW297175  13.502   8.339   7.708
98446SOL     OW97176  10.122  13.984   6.774
98446SOL    HW197177  10.071  14.033   6.710
98446SOL    HW297178  10.077  13.998   6.857
98447SOL     OW97179  14.195   5.446   9.204
98447SOL    HW197180  14.236   5.369   9.243
98447SOL    HW297181  14.181   5.506   9.277
98448SOL     OW97182   9.599   1.740  13.503
98448SOL    HW197183   9.534   1.745  13.572
98448SOL    HW297184   9.573   1.665  13.449
98449SOL     OW97185  10.636  13.844   7.796
98449SOL    HW197186  10.640  13.803   7.709
98449SOL    HW297187  10.545  13.834   7.823
98450SOL     OW97188   3.362   5.790   1.460
98450SOL    HW197189   3.381   5.817   1.549
98450SOL    HW297190   3.443   5.750   1.429
98451SOL     OW97191  10.099   0.445  12.038
98451SOL    HW197192  10.139   0.413  11.957
98451SOL    HW297193  10.012   0.475  12.011
98452SOL     OW97194  13.429   3.701   0.225
98452SOL    HW197195  13.361   3.655   0.274
98452SOL    HW297196  13.381   3.763   0.169
98453SOL     OW97197   1.962   3.581   1.979
98453SOL    HW197198   1.978   3.569   1.886
98453SOL    HW297199   1.951   3.675   1.990
98454SOL     OW97200   2.161   3.758  12.103
98454SOL    HW197201   2.133   3.850  12.099
98454SOL    HW297202   2.111   3.722  12.176
98455SOL     OW97203   7.226   9.847   8.200
98455SOL    HW197204   7.181   9.918   8.154
98455SOL    HW297205   7.238   9.880   8.289
98456SOL     OW97206   1.046   5.408   6.558
98456SOL    HW197207   1.004   5.381   6.639
98456SOL    HW297208   1.139   5.392   6.572
98457SOL     OW97209   7.180   4.890  14.709
98457SOL    HW197210   7.122   4.925  14.776
98457SOL    HW297211   7.226   4.817  14.752
98458SOL     OW97212  13.334  12.180   0.900
98458SOL    HW197213  13.389  12.222   0.966
98458SOL    HW297214  13.353  12.228   0.819
98459SOL     OW97215   7.185  11.829  11.911
98459SOL    HW197216   7.122  11.758  11.929
98459SOL    HW297217   7.255  11.787  11.861
98460SOL     OW97218   6.016  11.747   0.729
98460SOL    HW197219   6.085  11.768   0.666
98460SOL    HW297220   5.935  11.774   0.686
98461SOL     OW97221   5.910   6.206   8.104
98461SOL    HW197222   5.958   6.157   8.038
98461SOL    HW297223   5.828   6.230   8.061
98462SOL     OW97224   3.375  11.818   9.754
98462SOL    HW197225   3.304  11.790   9.696
98462SOL    HW297226   3.449  11.762   9.729
98463SOL     OW97227  11.961   7.449  14.469
98463SOL    HW197228  12.030   7.391  14.501
98463SOL    HW297229  11.956   7.519  14.535
98464SOL     OW97230   6.745   5.943   7.416
98464SOL    HW197231   6.753   6.039   7.412
98464SOL    HW297232   6.702   5.927   7.499
98465SOL     OW97233   5.129  12.842  14.066
98465SOL    HW197234   5.081  12.881  13.993
98465SOL    HW297235   5.194  12.909  14.089
98466SOL     OW97236   0.026   1.620   2.343
98466SOL    HW197237  14.856   1.696   2.312
98466SOL    HW297238   0.103   1.658   2.385
98467SOL     OW97239   0.463   6.130   9.482
98467SOL    HW197240   0.545   6.081   9.491
98467SOL    HW297241   0.420   6.120   9.567
98468SOL     OW97242  10.944   1.921   7.564
98468SOL    HW197243  10.909   1.865   7.494
98468SOL    HW297244  10.889   1.900   7.640
98469SOL     OW97245  11.521   9.974  13.202
98469SOL    HW197246  11.593  10.021  13.160
98469SOL    HW297247  11.462   9.952  13.131
98470SOL     OW97248   5.139  13.231   7.804
98470SOL    HW197249   5.143  13.143   7.766
98470SOL    HW297250   5.119  13.288   7.730
98471SOL     OW97251   0.611   7.099  12.560
98471SOL    HW197252   0.662   7.018  12.565
98471SOL    HW297253   0.671   7.164  12.525
98472SOL     OW97254  13.378   7.954   9.739
98472SOL    HW197255  13.401   7.987   9.652
98472SOL    HW297256  13.299   7.902   9.725
98473SOL     OW97257  12.445   1.772   9.668
98473SOL    HW197258  12.468   1.798   9.758
98473SOL    HW297259  12.395   1.846   9.634
98474SOL     OW97260   3.754   1.739  14.281
98474SOL    HW197261   3.803   1.807  14.325
98474SOL    HW297262   3.820   1.675  14.255
98475SOL     OW97263   1.395   8.779   4.728
98475SOL    HW197264   1.311   8.795   4.771
98475SOL    HW297265   1.374   8.775   4.635
98476SOL     OW97266   5.241   9.402   1.179
98476SOL    HW197267   5.315   9.402   1.118
98476SOL    HW297268   5.173   9.452   1.133
98477SOL     OW97269  11.051  10.782   4.839
98477SOL    HW197270  11.146  10.787   4.840
98477SOL    HW297271  11.025  10.834   4.763
98478SOL     OW97272  13.876   4.427  12.420
98478SOL    HW197273  13.876   4.498  12.356
98478SOL    HW297274  13.968   4.399  12.425
98479SOL     OW97275   2.016   9.407   9.790
98479SOL    HW197276   2.103   9.419   9.831
98479SOL    HW297277   1.986   9.496   9.772
98480SOL     OW97278  11.960   6.592   1.781
98480SOL    HW197279  11.873   6.606   1.741
98480SOL    HW297280  12.017   6.653   1.735
98481SOL     OW97281   1.941   0.023  14.111
98481SOL    HW197282   1.879  14.830  14.100
98481SOL    HW297283   1.894   0.086  14.166
98482SOL     OW97284   5.237  11.501  12.370
98482SOL    HW197285   5.166  11.565  12.378
98482SOL    HW297286   5.317  11.554  12.375
98483SOL     OW97287  11.264  11.673   6.670
98483SOL    HW197288  11.346  11.691   6.624
98483SOL    HW297289  11.278  11.707   6.758
98484SOL     OW97290  12.942   3.849   0.956
98484SOL    HW197291  12.858   3.820   0.990
98484SOL    HW297292  12.920   3.906   0.882
98485SOL     OW97293  10.378   1.675  12.837
98485SOL    HW197294  10.463   1.713  12.860
98485SOL    HW297295  10.380   1.587  12.875
98486SOL     OW97296   4.791  12.654  10.603
98486SOL    HW197297   4.879  12.665  10.565
98486SOL    HW297298   4.733  12.647  10.527
98487SOL     OW97299  10.478  14.111   6.363
98487SOL    HW197300  10.404  14.146   6.313
98487SOL    HW297301  10.471  14.016   6.351
98488SOL     OW97302  14.630   1.726   8.861
98488SOL    HW197303  14.582   1.716   8.943
98488SOL    HW297304  14.563   1.717   8.793
98489SOL     OW97305   2.924  13.371  11.170
98489SOL    HW197306   2.950  13.381  11.079
98489SOL    HW297307   2.957  13.449  11.214
98490SOL     OW97308  13.055  13.005   4.483
98490SOL    HW197309  13.078  13.057   4.560
98490SOL    HW297310  13.095  13.052   4.410
98491SOL     OW97311   1.636   5.341   4.236
98491SOL    HW197312   1.595   5.268   4.284
98491SOL    HW297313   1.635   5.312   4.145
98492SOL     OW97314  11.006  13.268   7.998
98492SOL    HW197315  10.934  13.233   7.947
98492SOL    HW297316  11.035  13.345   7.949
98493SOL     OW97317  10.355   0.781   9.613
98493SOL    HW197318  10.383   0.795   9.523
98493SOL    HW297319  10.299   0.703   9.610
98494SOL     OW97320   4.406   1.697  10.501
98494SOL    HW197321   4.337   1.698  10.435
98494SOL    HW297322   4.405   1.786  10.537
98495SOL     OW97323   5.459  13.804   2.634
98495SOL    HW197324   5.464  13.877   2.573
98495SOL    HW297325   5.531  13.746   2.610
98496SOL     OW97326   1.846   8.897   1.699
98496SOL    HW197327   1.830   8.991   1.707
98496SOL    HW297328   1.852   8.866   1.789
98497SOL     OW97329   9.112   1.547  14.591
98497SOL    HW197330   9.018   1.538  14.575
98497SOL    HW297331   9.125   1.642  14.600
98498SOL     OW97332   7.117   2.042   3.981
98498SOL    HW197333   7.099   1.978   4.049
98498SOL    HW297334   7.082   2.002   3.901
98499SOL     OW97335  12.225   1.359   4.178
98499SOL    HW197336  12.215   1.404   4.094
98499SOL    HW297337  12.308   1.392   4.214
98500SOL     OW97338   8.255   2.947  10.142
98500SOL    HW197339   8.330   2.889  10.150
98500SOL    HW297340   8.247   2.988  10.229
98501SOL     OW97341   7.408   9.646   7.966
98501SOL    HW197342   7.401   9.554   7.942
98501SOL    HW297343   7.427   9.691   7.885
98502SOL     OW97344   3.533   4.025   0.264
98502SOL    HW197345   3.609   4.081   0.251
98502SOL    HW297346   3.477   4.042   0.188
98503SOL     OW97347   9.078  12.961   9.273
98503SOL    HW197348   9.136  12.901   9.226
98503SOL    HW297349   8.991  12.942   9.238
98504SOL     OW97350   6.967  14.388  11.210
98504SOL    HW197351   7.049  14.398  11.258
98504SOL    HW297352   6.969  14.455  11.143
98505SOL     OW97353   0.669   1.486   9.947
98505SOL    HW197354   0.575   1.472   9.940
98505SOL    HW297355   0.680   1.538  10.027
98506SOL     OW97356   5.955  13.718   4.860
98506SOL    HW197357   5.942  13.681   4.773
98506SOL    HW297358   5.968  13.642   4.917
98507SOL     OW97359   2.045  12.944   3.025
98507SOL    HW197360   1.954  12.924   3.005
98507SOL    HW297361   2.043  13.036   3.054
98508SOL     OW97362   9.330   5.747  14.337
98508SOL    HW197363   9.236   5.757  14.322
98508SOL    HW297364   9.346   5.653  14.327
98509SOL     OW97365   1.763   2.267  12.678
98509SOL    HW197366   1.668   2.277  12.668
98509SOL    HW297367   1.774   2.184  12.723
98510SOL     OW97368  12.514   9.408  11.772
98510SOL    HW197369  12.455   9.364  11.711
98510SOL    HW297370  12.456   9.459  11.829
98511SOL     OW97371   6.088   7.972   4.114
98511SOL    HW197372   6.085   8.016   4.029
98511SOL    HW297373   6.006   7.997   4.156
98512SOL     OW97374  12.317  11.951  13.738
98512SOL    HW197375  12.388  12.012  13.716
98512SOL    HW297376  12.237  12.003  13.727
98513SOL     OW97377  10.307   2.214   7.831
98513SOL    HW197378  10.345   2.283   7.885
98513SOL    HW297379  10.235   2.180   7.883
98514SOL     OW97380   6.485   7.423   0.456
98514SOL    HW197381   6.465   7.450   0.545
98514SOL    HW297382   6.405   7.443   0.407
98515SOL     OW97383   9.782  14.865   8.469
98515SOL    HW197384   9.709  14.810   8.498
98515SOL    HW297385   9.853  14.844   8.529
98516SOL     OW97386  11.034   5.075  10.226
98516SOL    HW197387  11.082   5.035  10.153
98516SOL    HW297388  11.092   5.063  10.302
98517SOL     OW97389   1.755   4.446   7.420
98517SOL    HW197390   1.836   4.409   7.385
98517SOL    HW297391   1.764   4.540   7.404
98518SOL     OW97392   3.942  11.800   3.701
98518SOL    HW197393   3.977  11.727   3.651
98518SOL    HW297394   3.938  11.768   3.791
98519SOL     OW97395   9.332   7.875   5.165
98519SOL    HW197396   9.367   7.897   5.251
98519SOL    HW297397   9.267   7.807   5.182
98520SOL     OW97398   1.591   5.971   2.940
98520SOL    HW197399   1.536   5.961   3.017
98520SOL    HW297400   1.617   6.063   2.941
98521SOL     OW97401   3.044   2.818  10.012
98521SOL    HW197402   3.106   2.813   9.939
98521SOL    HW297403   3.036   2.728  10.044
98522SOL     OW97404  11.095  10.336  12.238
98522SOL    HW197405  11.004  10.321  12.263
98522SOL    HW297406  11.092  10.412  12.180
98523SOL     OW97407  14.603  11.541   3.635
98523SOL    HW197408  14.543  11.507   3.702
98523SOL    HW297409  14.666  11.470   3.621
98524SOL     OW97410  12.071   0.946   0.001
98524SOL    HW197411  11.980   0.940  14.851
98524SOL    HW297412  12.104   1.026  14.840
98525SOL     OW97413   4.457   8.795   9.174
98525SOL    HW197414   4.549   8.799   9.148
98525SOL    HW297415   4.449   8.712   9.220
98526SOL     OW97416  10.451   0.776  14.321
98526SOL    HW197417  10.379   0.778  14.257
98526SOL    HW297418  10.526   0.743  14.272
98527SOL     OW97419  11.041  12.860   8.429
98527SOL    HW197420  10.998  12.943   8.448
98527SOL    HW297421  11.055  12.861   8.335
98528SOL     OW97422   3.062   9.554  12.535
98528SOL    HW197423   3.029   9.508  12.458
98528SOL    HW297424   3.062   9.646  12.510
98529SOL     OW97425   5.142   8.185   8.463
98529SOL    HW197426   5.218   8.201   8.407
98529SOL    HW297427   5.146   8.092   8.484
98530SOL     OW97428   4.180   3.180   8.411
98530SOL    HW197429   4.147   3.155   8.497
98530SOL    HW297430   4.124   3.134   8.349
98531SOL     OW97431  13.078   7.628   8.379
98531SOL    HW197432  12.991   7.632   8.419
98531SOL    HW297433  13.070   7.683   8.300
98532SOL     OW97434   6.719  10.297   3.398
98532SOL    HW197435   6.771  10.252   3.332
98532SOL    HW297436   6.697  10.382   3.360
98533SOL     OW97437  12.719  12.458  14.704
98533SOL    HW197438  12.697  12.429  14.793
98533SOL    HW297439  12.814  12.453  14.700
98534SOL     OW97440  13.909   4.812   1.155
98534SOL    HW197441  13.961   4.747   1.203
98534SOL    HW297442  13.836   4.832   1.214
98535SOL     OW97443   1.769   6.591   7.901
98535SOL    HW197444   1.831   6.662   7.920
98535SOL    HW297445   1.825   6.514   7.892
98536SOL     OW97446   3.473   8.924   5.940
98536SOL    HW197447   3.410   8.891   6.005
98536SOL    HW297448   3.421   8.983   5.885
98537SOL     OW97449   2.817   5.148   4.142
98537SOL    HW197450   2.816   5.218   4.207
98537SOL    HW297451   2.877   5.083   4.178
98538SOL     OW97452  11.307   6.755   3.462
98538SOL    HW197453  11.289   6.771   3.555
98538SOL    HW297454  11.229   6.789   3.417
98539SOL     OW97455   6.491   2.005  10.195
98539SOL    HW197456   6.485   2.043  10.107
98539SOL    HW297457   6.546   1.928  10.183
98540SOL     OW97458   7.083   5.547  10.847
98540SOL    HW197459   7.092   5.506  10.761
98540SOL    HW297460   7.150   5.504  10.901
98541SOL     OW97461  12.094  12.752  14.003
98541SOL    HW197462  12.166  12.749  13.941
98541SOL    HW297463  12.095  12.666  14.045
98542SOL     OW97464   4.240   0.710   6.153
98542SOL    HW197465   4.259   0.753   6.237
98542SOL    HW297466   4.151   0.677   6.164
98543SOL     OW97467   3.410  13.222   5.029
98543SOL    HW197468   3.438  13.232   4.938
98543SOL    HW297469   3.458  13.290   5.076
98544SOL     OW97470  13.758  10.100   7.961
98544SOL    HW197471  13.739  10.008   7.977
98544SOL    HW297472  13.677  10.135   7.923
98545SOL     OW97473  12.711  14.355  13.665
98545SOL    HW197474  12.764  14.281  13.634
98545SOL    HW297475  12.677  14.396  13.586
98546SOL     OW97476   1.482   6.928   2.809
98546SOL    HW197477   1.503   6.843   2.849
98546SOL    HW297478   1.406   6.959   2.856
98547SOL     OW97479   5.985  10.541   8.503
98547SOL    HW197480   5.974  10.626   8.548
98547SOL    HW297481   5.904  10.494   8.521
98548SOL     OW97482  11.564   1.904  11.597
98548SOL    HW197483  11.555   1.810  11.583
98548SOL    HW297484  11.654   1.915  11.630
98549SOL     OW97485   2.950  10.000   9.075
98549SOL    HW197486   2.899   9.952   9.010
98549SOL    HW297487   2.923   9.964   9.159
98550SOL     OW97488   8.749   3.426   5.414
98550SOL    HW197489   8.657   3.426   5.442
98550SOL    HW297490   8.786   3.504   5.455
98551SOL     OW97491   5.832   8.069   4.205
98551SOL    HW197492   5.798   8.132   4.270
98551SOL    HW297493   5.854   8.123   4.129
98552SOL     OW97494   1.206  10.164   3.058
98552SOL    HW197495   1.229  10.081   3.100
98552SOL    HW297496   1.177  10.139   2.970
98553SOL     OW97497  13.723   1.758  13.247
98553SOL    HW197498  13.708   1.851  13.232
98553SOL    HW297499  13.816   1.745  13.228
98554SOL     OW97500  12.059  12.067  12.237
98554SOL    HW197501  12.050  12.018  12.155
98554SOL    HW297502  11.992  12.135  12.232
98555SOL     OW97503  13.485   1.142  13.934
98555SOL    HW197504  13.406   1.175  13.891
98555SOL    HW297505  13.554   1.151  13.868
98556SOL     OW97506   9.374   2.674   1.054
98556SOL    HW197507   9.289   2.639   1.081
98556SOL    HW297508   9.368   2.680   0.958
98557SOL     OW97509   3.875  11.945  14.790
98557SOL    HW197510   3.782  11.963  14.782
98557SOL    HW297511   3.905  11.929  14.701
98558SOL     OW97512   2.928   1.793   9.854
98558SOL    HW197513   2.865   1.864   9.869
98558SOL    HW297514   2.957   1.768   9.941
98559SOL     OW97515  11.978  11.743   3.648
98559SOL    HW197516  11.927  11.818   3.678
98559SOL    HW297517  11.938  11.719   3.564
98560SOL     OW97518   2.535  13.959   9.272
98560SOL    HW197519   2.595  13.905   9.324
98560SOL    HW297520   2.448  13.929   9.297
98561SOL     OW97521  12.328   3.213   4.620
98561SOL    HW197522  12.250   3.260   4.648
98561SOL    HW297523  12.336   3.139   4.680
98562SOL     OW97524  13.434   0.218  12.350
98562SOL    HW197525  13.340   0.200  12.351
98562SOL    HW297526  13.466   0.174  12.271
98563SOL     OW97527   9.130   7.700   8.367
98563SOL    HW197528   9.188   7.689   8.292
98563SOL    HW297529   9.060   7.636   8.353
98564SOL     OW97530   9.764   1.812  10.554
98564SOL    HW197531   9.789   1.802  10.462
98564SOL    HW297532   9.742   1.905  10.563
98565SOL     OW97533   1.782  11.116   0.286
98565SOL    HW197534   1.829  11.180   0.340
98565SOL    HW297535   1.726  11.169   0.229
98566SOL     OW97536   7.164  10.507   0.555
98566SOL    HW197537   7.117  10.525   0.474
98566SOL    HW297538   7.096  10.496   0.621
98567SOL     OW97539   7.651   9.729  13.044
98567SOL    HW197540   7.655   9.636  13.020
98567SOL    HW297541   7.568   9.760  13.007
98568SOL     OW97542  10.451  11.432   9.647
98568SOL    HW197543  10.401  11.355   9.619
98568SOL    HW297544  10.541  11.412   9.623
98569SOL     OW97545  11.748  11.751   9.331
98569SOL    HW197546  11.779  11.807   9.402
98569SOL    HW297547  11.764  11.802   9.252
98570SOL     OW97548   6.856   6.503   6.042
98570SOL    HW197549   6.935   6.460   6.009
98570SOL    HW297550   6.877   6.526   6.132
98571SOL     OW97551   8.992  12.654   7.191
98571SOL    HW197552   8.968  12.656   7.283
98571SOL    HW297553   9.049  12.578   7.182
98572SOL     OW97554   1.607   5.574  14.546
98572SOL    HW197555   1.647   5.532  14.470
98572SOL    HW297556   1.573   5.502  14.599
98573SOL     OW97557   7.545  14.236   7.340
98573SOL    HW197558   7.552  14.328   7.311
98573SOL    HW297559   7.611  14.191   7.288
98574SOL     OW97560   8.106   8.591  13.915
98574SOL    HW197561   8.117   8.684  13.895
98574SOL    HW297562   8.190   8.564  13.950
98575SOL     OW97563  14.726  10.588   8.544
98575SOL    HW197564  14.790  10.650   8.581
98575SOL    HW297565  14.685  10.636   8.472
98576SOL     OW97566  10.440   0.085  14.863
98576SOL    HW197567  10.416  14.877   0.012
98576SOL    HW297568  10.398   0.143   0.046
98577SOL     OW97569   4.676   1.610   4.927
98577SOL    HW197570   4.582   1.596   4.926
98577SOL    HW297571   4.713   1.526   4.952
98578SOL     OW97572   9.325   8.917   3.568
98578SOL    HW197573   9.235   8.885   3.573
98578SOL    HW297574   9.317   9.011   3.587
98579SOL     OW97575   3.740   2.335   4.638
98579SOL    HW197576   3.717   2.425   4.663
98579SOL    HW297577   3.676   2.312   4.571
98580SOL     OW97578  13.768   8.448   9.038
98580SOL    HW197579  13.850   8.401   9.051
98580SOL    HW297580  13.722   8.398   8.971
98581SOL     OW97581   6.742  11.717   5.119
98581SOL    HW197582   6.742  11.807   5.088
98581SOL    HW297583   6.834  11.698   5.137
98582SOL     OW97584   8.943   7.517   3.211
98582SOL    HW197585   8.915   7.540   3.300
98582SOL    HW297586   9.023   7.568   3.198
98583SOL     OW97587   9.196  10.402   6.350
98583SOL    HW197588   9.215  10.457   6.426
98583SOL    HW297589   9.125  10.344   6.379
98584SOL     OW97590  10.818   1.499  14.287
98584SOL    HW197591  10.813   1.404  14.295
98584SOL    HW297592  10.873   1.527  14.361
98585SOL     OW97593   7.362   5.524   4.783
98585SOL    HW197594   7.298   5.487   4.722
98585SOL    HW297595   7.353   5.472   4.862
98586SOL     OW97596   8.357   9.980   3.192
98586SOL    HW197597   8.300   9.956   3.265
98586SOL    HW297598   8.358  10.076   3.194
98587SOL     OW97599   8.295   8.799   4.399
98587SOL    HW197600   8.260   8.884   4.373
98587SOL    HW297601   8.388   8.804   4.377
98588SOL     OW97602   7.125   8.970   4.855
98588SOL    HW197603   7.171   8.995   4.936
98588SOL    HW297604   7.085   9.051   4.824
98589SOL     OW97605  11.326   7.744  11.385
98589SOL    HW197606  11.400   7.792  11.423
98589SOL    HW297607  11.339   7.752  11.291
98590SOL     OW97608   8.015   7.793   0.338
98590SOL    HW197609   7.966   7.824   0.262
98590SOL    HW297610   7.992   7.853   0.409
98591SOL     OW97611   3.256  13.106   5.793
98591SOL    HW197612   3.221  13.083   5.707
98591SOL    HW297613   3.319  13.176   5.776
98592SOL     OW97614  12.828  12.034   6.392
98592SOL    HW197615  12.858  11.991   6.472
98592SOL    HW297616  12.884  11.998   6.323
98593SOL     OW97617   8.591   4.014  13.970
98593SOL    HW197618   8.595   4.107  13.947
98593SOL    HW297619   8.502   3.987  13.948
98594SOL     OW97620   9.573   7.158   1.273
98594SOL    HW197621   9.634   7.151   1.347
98594SOL    HW297622   9.531   7.243   1.284
98595SOL     OW97623   8.515   6.140  14.358
98595SOL    HW197624   8.573   6.155  14.283
98595SOL    HW297625   8.446   6.082  14.324
98596SOL     OW97626   8.726  13.325   3.972
98596SOL    HW197627   8.812  13.364   3.984
98596SOL    HW297628   8.666  13.386   4.016
98597SOL     OW97629  12.261  12.470   6.888
98597SOL    HW197630  12.189  12.510   6.840
98597SOL    HW297631  12.289  12.397   6.834
98598SOL     OW97632   3.510  11.701  11.469
98598SOL    HW197633   3.603  11.714  11.489
98598SOL    HW297634   3.505  11.612  11.435
98599SOL     OW97635   2.853   7.548   8.367
98599SOL    HW197636   2.853   7.505   8.281
98599SOL    HW297637   2.809   7.486   8.425
98600SOL     OW97638   0.737   9.599   2.834
98600SOL    HW197639   0.685   9.572   2.759
98600SOL    HW297640   0.674   9.613   2.904
98601SOL     OW97641   8.719   6.598   2.403
98601SOL    HW197642   8.696   6.582   2.311
98601SOL    HW297643   8.734   6.511   2.439
98602SOL     OW97644  12.788   6.152   2.817
98602SOL    HW197645  12.819   6.233   2.858
98602SOL    HW297646  12.708   6.178   2.771
98603SOL     OW97647   2.667   6.784  13.273
98603SOL    HW197648   2.578   6.758  13.297
98603SOL    HW297649   2.657   6.833  13.191
98604SOL     OW97650  14.743   9.111  13.297
98604SOL    HW197651  14.790   9.040  13.342
98604SOL    HW297652  14.727   9.176  13.366
98605SOL     OW97653   1.239   6.324  10.173
98605SOL    HW197654   1.263   6.411  10.138
98605SOL    HW297655   1.315   6.269  10.154
98606SOL     OW97656   0.831   5.994   1.782
98606SOL    HW197657   0.750   6.044   1.797
98606SOL    HW297658   0.845   5.946   1.864
98607SOL     OW97659   5.972   0.800   2.431
98607SOL    HW197660   5.983   0.835   2.343
98607SOL    HW297661   5.996   0.873   2.489
98608SOL     OW97662   8.093   3.105  11.366
98608SOL    HW197663   8.002   3.080  11.382
98608SOL    HW297664   8.088   3.197  11.339
98609SOL     OW97665   2.063  14.627   8.945
98609SOL    HW197666   2.033  14.681   9.018
98609SOL    HW297667   1.988  14.571   8.925
98610SOL     OW97668   7.537   8.387  11.646
98610SOL    HW197669   7.524   8.331  11.723
98610SOL    HW297670   7.588   8.461  11.679
98611SOL     OW97671  13.326   1.518  11.470
98611SOL    HW197672  13.254   1.580  11.457
98611SOL    HW297673  13.345   1.522  11.563
98612SOL     OW97674   8.340   4.975   0.505
98612SOL    HW197675   8.362   5.040   0.572
98612SOL    HW297676   8.415   4.916   0.504
98613SOL     OW97677  13.484   0.904   5.142
98613SOL    HW197678  13.566   0.935   5.103
98613SOL    HW297679  13.450   0.841   5.079
98614SOL     OW97680   3.163   2.265   9.889
98614SOL    HW197681   3.081   2.270   9.839
98614SOL    HW297682   3.224   2.319   9.839
98615SOL     OW97683   6.284   7.390   9.081
98615SOL    HW197684   6.275   7.466   9.024
98615SOL    HW297685   6.375   7.363   9.072
98616SOL     OW97686  10.380  12.266  11.227
98616SOL    HW197687  10.315  12.323  11.269
98616SOL    HW297688  10.436  12.236  11.298
98617SOL     OW97689   6.714  14.683  11.791
98617SOL    HW197690   6.657  14.682  11.868
98617SOL    HW297691   6.665  14.734  11.726
98618SOL     OW97692   1.779   3.332  13.018
98618SOL    HW197693   1.801   3.282  13.096
98618SOL    HW297694   1.719   3.400  13.049
98619SOL     OW97695   2.540   6.842  12.266
98619SOL    HW197696   2.458   6.892  12.265
98619SOL    HW297697   2.515   6.752  12.248
98620SOL     OW97698  12.231   5.576   5.449
98620SOL    HW197699  12.172   5.635   5.496
98620SOL    HW297700  12.207   5.586   5.357
98621SOL     OW97701   5.594   6.077  11.643
98621SOL    HW197702   5.511   6.118  11.669
98621SOL    HW297703   5.657   6.111  11.706
98622SOL     OW97704   2.952   3.237   6.175
98622SOL    HW197705   2.917   3.326   6.164
98622SOL    HW297706   2.928   3.193   6.093
98623SOL     OW97707   9.998   8.704  10.693
98623SOL    HW197708   9.998   8.622  10.743
98623SOL    HW297709  10.033   8.769  10.753
98624SOL     OW97710   8.505  13.817   6.521
98624SOL    HW197711   8.529  13.775   6.603
98624SOL    HW297712   8.588  13.846   6.483
98625SOL     OW97713   8.319   5.054  13.927
98625SOL    HW197714   8.242   5.037  13.981
98625SOL    HW297715   8.393   5.049  13.988
98626SOL     OW97716   6.995  10.688   1.819
98626SOL    HW197717   6.908  10.686   1.777
98626SOL    HW297718   7.037  10.766   1.781
98627SOL     OW97719   4.549  11.120  13.399
98627SOL    HW197720   4.465  11.091  13.365
98627SOL    HW297721   4.545  11.215  13.395
98628SOL     OW97722   6.968   6.950  13.809
98628SOL    HW197723   7.057   6.920  13.791
98628SOL    HW297724   6.913   6.901  13.747
98629SOL     OW97725   2.291   0.358   4.422
98629SOL    HW197726   2.253   0.443   4.398
98629SOL    HW297727   2.373   0.381   4.465
98630SOL     OW97728  11.944  11.988   1.490
98630SOL    HW197729  11.913  12.060   1.545
98630SOL    HW297730  11.874  11.976   1.426
98631SOL     OW97731   1.892   3.861   4.508
98631SOL    HW197732   1.801   3.882   4.529
98631SOL    HW297733   1.890   3.769   4.482
98632SOL     OW97734   4.927  14.326   7.042
98632SOL    HW197735   4.963  14.242   7.014
98632SOL    HW297736   5.004  14.378   7.067
98633SOL     OW97737  14.645   7.827  12.880
98633SOL    HW197738  14.716   7.834  12.816
98633SOL    HW297739  14.683   7.779  12.953
98634SOL     OW97740  10.260  14.383   9.105
98634SOL    HW197741  10.222  14.303   9.143
98634SOL    HW297742  10.237  14.378   9.013
98635SOL     OW97743   5.002   6.526  11.873
98635SOL    HW197744   5.092   6.557  11.879
98635SOL    HW297745   4.983   6.527  11.779
98636SOL     OW97746   2.469  13.240  10.413
98636SOL    HW197747   2.483  13.150  10.382
98636SOL    HW297748   2.548  13.260  10.464
98637SOL     OW97749   2.973  14.379   8.789
98637SOL    HW197750   3.045  14.329   8.749
98637SOL    HW297751   2.894  14.339   8.753
98638SOL     OW97752   9.542   2.254   4.294
98638SOL    HW197753   9.616   2.288   4.243
98638SOL    HW297754   9.582   2.195   4.358
98639SOL     OW97755   6.213  12.027  11.235
98639SOL    HW197756   6.292  11.974  11.242
98639SOL    HW297757   6.200  12.063  11.323
98640SOL     OW97758   5.190   7.863   8.188
98640SOL    HW197759   5.184   7.922   8.112
98640SOL    HW297760   5.100   7.841   8.208
98641SOL     OW97761   0.494  10.627   4.482
98641SOL    HW197762   0.419  10.687   4.480
98641SOL    HW297763   0.501  10.593   4.393
98642SOL     OW97764   3.847   7.212   2.298
98642SOL    HW197765   3.825   7.153   2.371
98642SOL    HW297766   3.762   7.232   2.258
98643SOL     OW97767   8.281   9.633   3.965
98643SOL    HW197768   8.204   9.577   3.976
98643SOL    HW297769   8.249   9.710   3.919
98644SOL     OW97770  11.288   3.800  11.425
98644SOL    HW197771  11.260   3.734  11.361
98644SOL    HW297772  11.253   3.769  11.508
98645SOL     OW97773   6.723   6.754  10.118
98645SOL    HW197774   6.796   6.693  10.116
98645SOL    HW297775   6.648   6.702  10.090
98646SOL     OW97776   6.034   1.314   3.162
98646SOL    HW197777   5.947   1.273   3.160
98646SOL    HW297778   6.077   1.273   3.237
98647SOL     OW97779   4.996  12.440   0.631
98647SOL    HW197780   5.057  12.401   0.693
98647SOL    HW297781   5.027  12.529   0.619
98648SOL     OW97782   4.091   9.504   1.310
98648SOL    HW197783   4.123   9.593   1.325
98648SOL    HW297784   4.166   9.449   1.332
98649SOL     OW97785   9.054  13.211   6.052
98649SOL    HW197786   9.074  13.304   6.039
98649SOL    HW297787   8.974  13.211   6.104
98650SOL     OW97788  14.643  11.414   2.498
98650SOL    HW197789  14.602  11.477   2.556
98650SOL    HW297790  14.574  11.390   2.436
98651SOL     OW97791   8.284   6.173  12.941
98651SOL    HW197792   8.275   6.119  12.863
98651SOL    HW297793   8.272   6.263  12.910
98652SOL     OW97794  14.280   9.646   0.642
98652SOL    HW197795  14.233   9.667   0.562
98652SOL    HW297796  14.304   9.554   0.632
98653SOL     OW97797  10.679  14.678   9.121
98653SOL    HW197798  10.660  14.732   9.197
98653SOL    HW297799  10.667  14.737   9.046
98654SOL     OW97800  12.015   5.440   0.450
98654SOL    HW197801  12.000   5.480   0.536
98654SOL    HW297802  11.957   5.487   0.391
98655SOL     OW97803  13.883   8.551  13.978
98655SOL    HW197804  13.817   8.486  14.003
98655SOL    HW297805  13.885   8.612  14.051
98656SOL     OW97806  11.957   4.782   4.284
98656SOL    HW197807  11.984   4.692   4.306
98656SOL    HW297808  11.866   4.774   4.256
98657SOL     OW97809   8.884  11.807  13.212
98657SOL    HW197810   8.970  11.820  13.172
98657SOL    HW297811   8.823  11.847  13.150
98658SOL     OW97812  12.679   8.378  11.938
98658SOL    HW197813  12.589   8.359  11.910
98658SOL    HW297814  12.679   8.359  12.032
98659SOL     OW97815  14.851   9.723  14.283
98659SOL    HW197816  14.804   9.652  14.327
98659SOL    HW297817   0.037   9.752  14.346
98660SOL     OW97818  13.724   7.788  11.514
98660SOL    HW197819  13.772   7.715  11.475
98660SOL    HW297820  13.715   7.852  11.444
98661SOL     OW97821   9.143   7.188   8.924
98661SOL    HW197822   9.165   7.224   9.009
98661SOL    HW297823   9.053   7.215   8.908
98662SOL     OW97824  11.352  12.676   5.250
98662SOL    HW197825  11.395  12.640   5.172
98662SOL    HW297826  11.335  12.599   5.305
98663SOL     OW97827   6.808   6.748  13.686
98663SOL    HW197828   6.811   6.743  13.782
98663SOL    HW297829   6.729   6.700  13.662
98664SOL     OW97830  12.835  14.664   5.897
98664SOL    HW197831  12.914  14.695   5.941
98664SOL    HW297832  12.764  14.714   5.936
98665SOL     OW97833   0.505   8.789  10.142
98665SOL    HW197834   0.478   8.801  10.233
98665SOL    HW297835   0.600   8.807  10.144
98666SOL     OW97836   2.212   2.347   9.049
98666SOL    HW197837   2.175   2.310   9.129
98666SOL    HW297838   2.221   2.272   8.990
98667SOL     OW97839   3.860   8.382   4.955
98667SOL    HW197840   3.803   8.389   5.032
98667SOL    HW297841   3.855   8.468   4.914
98668SOL     OW97842  12.103   7.086   7.376
98668SOL    HW197843  12.122   7.177   7.399
98668SOL    HW297844  12.008   7.084   7.363
98669SOL     OW97845   2.872   5.644   2.167
98669SOL    HW197846   2.913   5.617   2.249
98669SOL    HW297847   2.808   5.711   2.193
98670SOL     OW97848   3.352   3.451  11.956
98670SOL    HW197849   3.324   3.542  11.944
98670SOL    HW297850   3.443   3.451  11.925
98671SOL     OW97851   1.925  10.099  10.823
98671SOL    HW197852   1.915  10.194  10.820
98671SOL    HW297853   1.984  10.084  10.897
98672SOL     OW97854   7.892   2.994   0.169
98672SOL    HW197855   7.819   3.030   0.219
98672SOL    HW297856   7.955   3.065   0.162
98673SOL     OW97857   8.312  12.465   7.667
98673SOL    HW197858   8.274  12.377   7.662
98673SOL    HW297859   8.240  12.523   7.642
98674SOL     OW97860  11.869  13.107   7.479
98674SOL    HW197861  11.813  13.171   7.436
98674SOL    HW297862  11.846  13.113   7.572
98675SOL     OW97863   2.393   7.578   4.068
98675SOL    HW197864   2.365   7.663   4.103
98675SOL    HW297865   2.443   7.600   3.990
98676SOL     OW97866   6.602   8.072  11.667
98676SOL    HW197867   6.520   8.034  11.635
98676SOL    HW297868   6.594   8.069  11.763
98677SOL     OW97869  11.569   0.468   2.475
98677SOL    HW197870  11.565   0.399   2.541
98677SOL    HW297871  11.491   0.456   2.422
98678SOL     OW97872   3.734   0.274   6.437
98678SOL    HW197873   3.695   0.205   6.384
98678SOL    HW297874   3.727   0.242   6.527
98679SOL     OW97875  14.761   5.999   3.780
98679SOL    HW197876  14.760   5.964   3.869
98679SOL    HW297877  14.816   6.077   3.785
98680SOL     OW97878  12.748   0.707   7.748
98680SOL    HW197879  12.752   0.759   7.667
98680SOL    HW297880  12.776   0.619   7.721
98681SOL     OW97881   8.380   2.263   2.842
98681SOL    HW197882   8.433   2.196   2.799
98681SOL    HW297883   8.440   2.306   2.902
98682SOL     OW97884   9.002   1.007   7.206
98682SOL    HW197885   9.008   0.943   7.277
98682SOL    HW297886   9.089   1.046   7.200
98683SOL     OW97887   3.744  11.308   2.446
98683SOL    HW197888   3.808  11.366   2.488
98683SOL    HW297889   3.678  11.292   2.513
98684SOL     OW97890  13.303   8.795  11.826
98684SOL    HW197891  13.299   8.880  11.869
98684SOL    HW297892  13.324   8.815  11.735
98685SOL     OW97893   0.598   1.165   3.602
98685SOL    HW197894   0.640   1.157   3.688
98685SOL    HW297895   0.659   1.123   3.542
98686SOL     OW97896  14.218   8.476   1.930
98686SOL    HW197897  14.202   8.554   1.877
98686SOL    HW297898  14.291   8.432   1.887
98687SOL     OW97899  13.845  10.450   4.909
98687SOL    HW197900  13.874  10.370   4.866
98687SOL    HW297901  13.827  10.423   4.999
98688SOL     OW97902  12.897  12.105   6.025
98688SOL    HW197903  12.884  12.011   6.034
98688SOL    HW297904  12.927  12.116   5.935
98689SOL     OW97905   6.350   6.905   7.163
98689SOL    HW197906   6.366   6.843   7.091
98689SOL    HW297907   6.258   6.892   7.184
98690SOL     OW97908   3.506   4.800   9.672
98690SOL    HW197909   3.463   4.757   9.599
98690SOL    HW297910   3.488   4.743   9.747
98691SOL     OW97911  12.180   6.817   5.308
98691SOL    HW197912  12.184   6.766   5.390
98691SOL    HW297913  12.127   6.893   5.330
98692SOL     OW97914  14.369   6.136   7.900
98692SOL    HW197915  14.277   6.158   7.916
98692SOL    HW297916  14.369   6.096   7.813
98693SOL     OW97917   4.248  12.162   0.876
98693SOL    HW197918   4.252  12.093   0.942
98693SOL    HW297919   4.183  12.223   0.910
98694SOL     OW97920   8.276  12.832  12.559
98694SOL    HW197921   8.214  12.788  12.617
98694SOL    HW297922   8.286  12.920  12.597
98695SOL     OW97923  10.760   1.943   1.083
98695SOL    HW197924  10.741   1.889   1.160
98695SOL    HW297925  10.854   1.929   1.067
98696SOL     OW97926  11.496  13.524  13.517
98696SOL    HW197927  11.438  13.524  13.441
98696SOL    HW297928  11.436  13.532  13.592
98697SOL     OW97929  14.657  14.395   6.555
98697SOL    HW197930  14.641  14.415   6.463
98697SOL    HW297931  14.752  14.400   6.565
98698SOL     OW97932  13.183   4.896  12.501
98698SOL    HW197933  13.195   4.863  12.590
98698SOL    HW297934  13.196   4.819  12.445
98699SOL     OW97935  13.124   0.626  11.984
98699SOL    HW197936  13.034   0.597  11.995
98699SOL    HW297937  13.147   0.665  12.069
98700SOL     OW97938   6.529   8.401   7.678
98700SOL    HW197939   6.614   8.445   7.674
98700SOL    HW297940   6.470   8.457   7.627
98701SOL     OW97941   0.111  12.238   8.163
98701SOL    HW197942   0.153  12.307   8.112
98701SOL    HW297943   0.176  12.215   8.230
98702SOL     OW97944   8.192   9.897   9.346
98702SOL    HW197945   8.176   9.961   9.415
98702SOL    HW297946   8.203   9.814   9.391
98703SOL     OW97947  12.985   8.535   1.613
98703SOL    HW197948  12.899   8.504   1.585
98703SOL    HW297949  13.007   8.604   1.551
98704SOL     OW97950   6.072  10.374   7.682
98704SOL    HW197951   6.145  10.432   7.702
98704SOL    HW297952   6.040  10.345   7.768
98705SOL     OW97953  10.954  13.525  10.354
98705SOL    HW197954  11.001  13.446  10.326
98705SOL    HW297955  10.918  13.502  10.440
98706SOL     OW97956  10.315   9.610   3.586
98706SOL    HW197957  10.291   9.518   3.600
98706SOL    HW297958  10.395   9.607   3.533
98707SOL     OW97959   3.813  13.010  13.684
98707SOL    HW197960   3.721  13.039  13.683
98707SOL    HW297961   3.861  13.083  13.644
98708SOL     OW97962   0.247  13.293   9.219
98708SOL    HW197963   0.249  13.358   9.290
98708SOL    HW297964   0.173  13.236   9.241
98709SOL     OW97965   7.272   5.229   5.564
98709SOL    HW197966   7.314   5.237   5.649
98709SOL    HW297967   7.334   5.268   5.502
98710SOL     OW97968  14.134   3.033  14.648
98710SOL    HW197969  14.108   3.125  14.647
98710SOL    HW297970  14.142   3.012  14.742
98711SOL     OW97971  13.239   2.495  14.475
98711SOL    HW197972  13.277   2.572  14.517
98711SOL    HW297973  13.146   2.516  14.467
98712SOL     OW97974  10.795   7.678  14.310
98712SOL    HW197975  10.809   7.621  14.235
98712SOL    HW297976  10.700   7.682  14.321
98713SOL     OW97977   5.678   1.908   2.255
98713SOL    HW197978   5.637   1.838   2.306
98713SOL    HW297979   5.605   1.947   2.205
98714SOL     OW97980  12.668   7.278   6.587
98714SOL    HW197981  12.669   7.209   6.521
98714SOL    HW297982  12.585   7.265   6.633
98715SOL     OW97983   8.707  13.992   2.272
98715SOL    HW197984   8.738  14.004   2.362
98715SOL    HW297985   8.612  14.001   2.278
98716SOL     OW97986   8.847   9.241  14.402
98716SOL    HW197987   8.812   9.156  14.375
98716SOL    HW297988   8.935   9.243  14.364
98717SOL     OW97989   9.408   3.342  11.054
98717SOL    HW197990   9.364   3.428  11.053
98717SOL    HW297991   9.427   3.327  11.147
98718SOL     OW97992  14.134  13.693   4.143
98718SOL    HW197993  14.063  13.744   4.183
98718SOL    HW297994  14.191  13.759   4.104
98719SOL     OW97995   9.646  11.539   2.218
98719SOL    HW197996   9.581  11.570   2.156
98719SOL    HW297997   9.604  11.548   2.304
98720SOL     OW97998   8.897   8.757   2.596
98720SOL    HW197999   8.929   8.678   2.638
98720SOL    HW298000   8.854   8.806   2.667
98721SOL     OW98001   3.914  10.405  10.579
98721SOL    HW198002   3.900  10.315  10.609
98721SOL    HW298003   3.904  10.400  10.484
98722SOL     OW98004   3.583  10.891   7.985
98722SOL    HW198005   3.616  10.825   8.046
98722SOL    HW298006   3.638  10.968   8.002
98723SOL     OW98007  13.654  11.553  13.904
98723SOL    HW198008  13.598  11.604  13.963
98723SOL    HW298009  13.742  11.589  13.916
98724SOL     OW98010  10.879  14.564   2.632
98724SOL    HW198011  10.921  14.479   2.622
98724SOL    HW298012  10.859  14.571   2.725
98725SOL     OW98013   3.236  13.877   7.489
98725SOL    HW198014   3.182  13.831   7.424
98725SOL    HW298015   3.317  13.827   7.491
98726SOL     OW98016   5.966   0.000   5.526
98726SOL    HW198017   5.879   0.037   5.546
98726SOL    HW298018   5.947  14.800   5.476
98727SOL     OW98019   5.184   4.173  11.791
98727SOL    HW198020   5.226   4.111  11.851
98727SOL    HW298021   5.210   4.144  11.704
98728SOL     OW98022   7.015   3.808   5.421
98728SOL    HW198023   7.030   3.730   5.474
98728SOL    HW298024   6.961   3.865   5.477
98729SOL     OW98025  12.423  12.837   2.289
98729SOL    HW198026  12.376  12.828   2.206
98729SOL    HW298027  12.393  12.921   2.324
98730SOL     OW98028   2.131  13.280  12.854
98730SOL    HW198029   2.155  13.332  12.777
98730SOL    HW298030   2.134  13.190  12.823
98731SOL     OW98031  12.492   0.919   3.479
98731SOL    HW198032  12.422   0.978   3.506
98731SOL    HW298033  12.455   0.831   3.486
98732SOL     OW98034   8.444  10.467  11.970
98732SOL    HW198035   8.387  10.423  11.908
98732SOL    HW298036   8.416  10.435  12.056
98733SOL     OW98037  12.106  11.929  14.017
98733SOL    HW198038  12.071  11.840  14.019
98733SOL    HW298039  12.200  11.918  14.031
98734SOL     OW98040  10.931  10.368  13.867
98734SOL    HW198041  10.948  10.334  13.779
98734SOL    HW298042  11.016  10.366  13.910
98735SOL     OW98043   1.640   9.791   5.649
98735SOL    HW198044   1.618   9.782   5.742
98735SOL    HW298045   1.558   9.775   5.603
98736SOL     OW98046   5.735   6.332   1.089
98736SOL    HW198047   5.810   6.324   1.149
98736SOL    HW298048   5.764   6.395   1.023
98737SOL     OW98049   1.426   7.558  11.881
98737SOL    HW198050   1.346   7.507  11.881
98737SOL    HW298051   1.397   7.649  11.875
98738SOL     OW98052   3.147   5.302   5.784
98738SOL    HW198053   3.062   5.342   5.806
98738SOL    HW298054   3.209   5.376   5.785
98739SOL     OW98055   1.691  14.200  14.465
98739SOL    HW198056   1.635  14.265  14.423
98739SOL    HW298057   1.767  14.192  14.407
98740SOL     OW98058  12.941   3.545  10.083
98740SOL    HW198059  12.921   3.453  10.101
98740SOL    HW298060  12.878   3.594  10.137
98741SOL     OW98061   3.180   3.806   6.150
98741SOL    HW198062   3.190   3.897   6.120
98741SOL    HW298063   3.264   3.785   6.191
98742SOL     OW98064   0.473   8.818   2.993
98742SOL    HW198065   0.457   8.792   2.903
98742SOL    HW298066   0.420   8.897   3.005
98743SOL     OW98067   7.347   1.821   1.953
98743SOL    HW198068   7.379   1.739   1.989
98743SOL    HW298069   7.333   1.877   2.030
98744SOL     OW98070   9.457   5.578   0.815
98744SOL    HW198071   9.499   5.624   0.742
98744SOL    HW298072   9.505   5.495   0.822
98745SOL     OW98073   2.305   6.727   6.451
98745SOL    HW198074   2.263   6.645   6.425
98745SOL    HW298075   2.298   6.728   6.546
98746SOL     OW98076  14.751   6.540   3.604
98746SOL    HW198077  14.844   6.524   3.624
98746SOL    HW298078  14.753   6.596   3.527
98747SOL     OW98079   1.490   2.075   0.781
98747SOL    HW198080   1.500   2.084   0.687
98747SOL    HW298081   1.497   2.164   0.816
98748SOL     OW98082   3.381  13.724  12.118
98748SOL    HW198083   3.384  13.717  12.213
98748SOL    HW298084   3.380  13.818  12.100
98749SOL     OW98085   7.859   8.640  14.717
98749SOL    HW198086   7.856   8.628  14.812
98749SOL    HW298087   7.767   8.642  14.690
98750SOL     OW98088  12.230   8.727  10.797
98750SOL    HW198089  12.281   8.736  10.877
98750SOL    HW298090  12.292   8.689  10.734
98751SOL     OW98091   5.668   9.392   5.108
98751SOL    HW198092   5.579   9.419   5.088
98751SOL    HW298093   5.686   9.430   5.195
98752SOL     OW98094   5.073  11.894   8.405
98752SOL    HW198095   4.977  11.890   8.403
98752SOL    HW298096   5.093  11.985   8.424
98753SOL     OW98097  11.287   4.372  10.410
98753SOL    HW198098  11.358   4.396  10.351
98753SOL    HW298099  11.330   4.352  10.493
98754SOL     OW98100   8.017   9.064  13.329
98754SOL    HW198101   7.985   8.974  13.319
98754SOL    HW298102   7.979   9.093  13.412
98755SOL     OW98103   5.450  12.415   1.860
98755SOL    HW198104   5.384  12.388   1.796
98755SOL    HW298105   5.449  12.345   1.926
98756SOL     OW98106   6.272  11.543   6.013
98756SOL    HW198107   6.318  11.545   5.929
98756SOL    HW298108   6.211  11.470   6.005
98757SOL     OW98109   9.051  12.878   8.502
98757SOL    HW198110   9.043  12.873   8.407
98757SOL    HW298111   9.030  12.790   8.533
98758SOL     OW98112  13.800  10.508   4.005
98758SOL    HW198113  13.803  10.602   3.986
98758SOL    HW298114  13.891  10.479   3.999
98759SOL     OW98115  14.610  14.185   5.538
98759SOL    HW198116  14.635  14.161   5.448
98759SOL    HW298117  14.661  14.264   5.557
98760SOL     OW98118  10.644   3.659   9.859
98760SOL    HW198119  10.678   3.593   9.919
98760SOL    HW298120  10.552   3.635   9.846
98761SOL     OW98121   2.334   7.653   0.032
98761SOL    HW198122   2.309   7.627   0.121
98761SOL    HW298123   2.303   7.581  14.857
98762SOL     OW98124   5.823   4.485   9.785
98762SOL    HW198125   5.827   4.454   9.876
98762SOL    HW298126   5.815   4.405   9.733
98763SOL     OW98127   8.719  10.281   5.667
98763SOL    HW198128   8.764  10.242   5.592
98763SOL    HW298129   8.786  10.287   5.735
98764SOL     OW98130   3.324  12.937   2.473
98764SOL    HW198131   3.353  12.906   2.387
98764SOL    HW298132   3.378  12.890   2.536
98765SOL     OW98133   7.213   4.420  10.839
98765SOL    HW198134   7.153   4.431  10.765
98765SOL    HW298135   7.168   4.461  10.912
98766SOL     OW98136   7.276   7.651  13.076
98766SOL    HW198137   7.270   7.580  13.141
98766SOL    HW298138   7.240   7.613  12.996
98767SOL     OW98139   9.723   6.542   7.936
98767SOL    HW198140   9.660   6.534   8.007
98767SOL    HW298141   9.670   6.566   7.860
98768SOL     OW98142   6.586  13.953  12.584
98768SOL    HW198143   6.573  14.016  12.513
98768SOL    HW298144   6.624  13.876  12.541
98769SOL     OW98145  13.535   2.045  10.779
98769SOL    HW198146  13.548   1.959  10.741
98769SOL    HW298147  13.498   2.098  10.709
98770SOL     OW98148   9.140   7.638  14.253
98770SOL    HW198149   9.134   7.694  14.175
98770SOL    HW298150   9.228   7.601  14.249
98771SOL     OW98151   6.602   9.083  12.747
98771SOL    HW198152   6.685   9.067  12.703
98771SOL    HW298153   6.541   9.020  12.707
98772SOL     OW98154  12.940   2.440  14.571
98772SOL    HW198155  12.916   2.475  14.486
98772SOL    HW298156  12.990   2.511  14.613
98773SOL     OW98157  13.162   4.324   2.484
98773SOL    HW198158  13.197   4.293   2.400
98773SOL    HW298159  13.071   4.295   2.483
98774SOL     OW98160  14.113   1.316  14.817
98774SOL    HW198161  14.166   1.355   0.007
98774SOL    HW298162  14.158   1.338  14.736
98775SOL     OW98163  12.557   1.937   8.055
98775SOL    HW198164  12.631   1.948   8.115
98775SOL    HW298165  12.516   2.023   8.053
98776SOL     OW98166   8.023   0.662   3.555
98776SOL    HW198167   7.994   0.731   3.614
98776SOL    HW298168   8.091   0.615   3.604
98777SOL     OW98169   1.488  12.277   7.344
98777SOL    HW198170   1.575  12.239   7.329
98777SOL    HW298171   1.477  12.276   7.439
98778SOL     OW98172   4.550   9.528   1.271
98778SOL    HW198173   4.483   9.549   1.205
98778SOL    HW298174   4.591   9.612   1.290
98779SOL     OW98175   4.278   7.289   3.082
98779SOL    HW198176   4.251   7.220   3.022
98779SOL    HW298177   4.372   7.299   3.065
98780SOL     OW98178  11.367   9.825  14.474
98780SOL    HW198179  11.280   9.866  14.478
98780SOL    HW298180  11.397   9.824  14.565
98781SOL     OW98181  14.699   9.487  12.104
98781SOL    HW198182  14.643   9.542  12.159
98781SOL    HW298183  14.771   9.545  12.078
98782SOL     OW98184   8.715  13.915   4.464
98782SOL    HW198185   8.769  13.889   4.538
98782SOL    HW298186   8.643  13.966   4.502
98783SOL     OW98187   5.572   8.889  13.937
98783SOL    HW198188   5.523   8.899  14.019
98783SOL    HW298189   5.524   8.943  13.874
98784SOL     OW98190   8.775   1.367   4.604
98784SOL    HW198191   8.842   1.418   4.651
98784SOL    HW298192   8.817   1.344   4.521
98785SOL     OW98193  14.141   1.127  10.240
98785SOL    HW198194  14.154   1.186  10.166
98785SOL    HW298195  14.184   1.171  10.314
98786SOL     OW98196   9.488   1.423   5.611
98786SOL    HW198197   9.556   1.398   5.673
98786SOL    HW298198   9.416   1.455   5.665
98787SOL     OW98199   6.430   9.143  14.387
98787SOL    HW198200   6.400   9.105  14.469
98787SOL    HW298201   6.380   9.224  14.378
98788SOL     OW98202   6.422  10.811   3.295
98788SOL    HW198203   6.477  10.887   3.277
98788SOL    HW298204   6.335  10.847   3.311
98789SOL     OW98205   3.718   7.334  14.603
98789SOL    HW198206   3.799   7.316  14.556
98789SOL    HW298207   3.675   7.403  14.553
98790SOL     OW98208  12.813  14.878   8.730
98790SOL    HW198209  12.904  14.878   8.759
98790SOL    HW298210  12.801   0.084   8.689
98791SOL     OW98211  13.230  10.373   4.318
98791SOL    HW198212  13.141  10.365   4.284
98791SOL    HW298213  13.280  10.411   4.246
98792SOL     OW98214   1.983  11.025  11.984
98792SOL    HW198215   2.005  11.101  11.930
98792SOL    HW298216   2.067  10.989  12.011
98793SOL     OW98217   2.743   5.556   3.883
98793SOL    HW198218   2.783   5.494   3.943
98793SOL    HW298219   2.798   5.634   3.888
98794SOL     OW98220   6.590  14.349  14.240
98794SOL    HW198221   6.629  14.273  14.196
98794SOL    HW298222   6.497  14.327  14.248
98795SOL     OW98223  13.293   0.851   2.928
98795SOL    HW198224  13.244   0.933   2.915
98795SOL    HW298225  13.385   0.878   2.928
98796SOL     OW98226   3.399  14.184   7.124
98796SOL    HW198227   3.355  14.100   7.139
98796SOL    HW298228   3.444  14.202   7.206
98797SOL     OW98229   4.685   1.458   2.278
98797SOL    HW198230   4.742   1.517   2.327
98797SOL    HW298231   4.685   1.493   2.189
98798SOL     OW98232  14.041   1.692   7.309
98798SOL    HW198233  14.134   1.689   7.285
98798SOL    HW298234  14.028   1.616   7.365
98799SOL     OW98235   2.660  13.912   1.165
98799SOL    HW198236   2.716  13.835   1.174
98799SOL    HW298237   2.572  13.876   1.151
98800SOL     OW98238  12.416  13.907   7.288
98800SOL    HW198239  12.404  13.981   7.348
98800SOL    HW298240  12.445  13.836   7.345
98801SOL     OW98241   3.477   2.635   7.407
98801SOL    HW198242   3.542   2.691   7.365
98801SOL    HW298243   3.429   2.596   7.335
98802SOL     OW98244  10.841  11.972  10.426
98802SOL    HW198245  10.870  11.886  10.456
98802SOL    HW298246  10.746  11.963  10.415
98803SOL     OW98247   7.228   2.064   0.094
98803SOL    HW198248   7.214   2.053   0.188
98803SOL    HW298249   7.323   2.062   0.084
98804SOL     OW98250   2.411   8.056  12.948
98804SOL    HW198251   2.462   7.978  12.971
98804SOL    HW298252   2.427   8.117  13.020
98805SOL     OW98253   3.356  10.669   8.028
98805SOL    HW198254   3.313  10.648   8.111
98805SOL    HW298255   3.297  10.635   7.961
98806SOL     OW98256  10.184  14.236   1.226
98806SOL    HW198257  10.115  14.242   1.160
98806SOL    HW298258  10.240  14.311   1.211
98807SOL     OW98259   4.073   8.260  14.515
98807SOL    HW198260   4.097   8.344  14.555
98807SOL    HW298261   4.105   8.266  14.425
98808SOL     OW98262  13.428   6.917  13.433
98808SOL    HW198263  13.519   6.900  13.407
98808SOL    HW298264  13.376   6.888  13.358
98809SOL     OW98265  10.009  13.379   6.006
98809SOL    HW198266  10.018  13.437   6.081
98809SOL    HW298267  10.025  13.292   6.042
98810SOL     OW98268  11.162   6.887   0.074
98810SOL    HW198269  11.129   6.836  14.879
98810SOL    HW298270  11.162   6.825   0.147
98811SOL     OW98271  12.539   0.351   9.619
98811SOL    HW198272  12.609   0.366   9.555
98811SOL    HW298273  12.493   0.274   9.586
98812SOL     OW98274   7.302  13.227   4.882
98812SOL    HW198275   7.339  13.194   4.964
98812SOL    HW298276   7.243  13.297   4.910
98813SOL     OW98277   4.120   4.404   1.245
98813SOL    HW198278   4.081   4.347   1.178
98813SOL    HW298279   4.116   4.352   1.325
98814SOL     OW98280   8.790   0.624   9.744
98814SOL    HW198281   8.824   0.555   9.801
98814SOL    HW298282   8.838   0.703   9.772
98815SOL     OW98283   8.410  13.731   9.148
98815SOL    HW198284   8.479  13.741   9.082
98815SOL    HW298285   8.452  13.755   9.230
98816SOL     OW98286   9.960  12.313   7.831
98816SOL    HW198287   9.906  12.250   7.782
98816SOL    HW298288  10.050  12.287   7.813
98817SOL     OW98289   6.912   3.750  10.971
98817SOL    HW198290   6.931   3.702  11.052
98817SOL    HW298291   6.974   3.824  10.972
98818SOL     OW98292   0.258   4.300   1.293
98818SOL    HW198293   0.329   4.294   1.357
98818SOL    HW298294   0.229   4.391   1.299
98819SOL     OW98295   2.615  14.568   4.904
98819SOL    HW198296   2.621  14.626   4.828
98819SOL    HW298297   2.702  14.529   4.911
98820SOL     OW98298  14.218   2.059  11.612
98820SOL    HW198299  14.158   2.055  11.537
98820SOL    HW298300  14.289   1.999  11.589
98821SOL     OW98301   6.014   4.908   4.702
98821SOL    HW198302   6.056   4.988   4.734
98821SOL    HW298303   5.982   4.930   4.615
98822SOL     OW98304   3.560   2.142   2.666
98822SOL    HW198305   3.591   2.104   2.749
98822SOL    HW298306   3.469   2.112   2.659
98823SOL     OW98307  11.223  10.916   4.623
98823SOL    HW198308  11.171  10.957   4.554
98823SOL    HW298309  11.269  10.988   4.665
98824SOL     OW98310  10.116   2.142  14.322
98824SOL    HW198311  10.104   2.180  14.234
98824SOL    HW298312  10.210   2.147  14.337
98825SOL     OW98313   1.171   6.280   0.405
98825SOL    HW198314   1.179   6.374   0.388
98825SOL    HW298315   1.231   6.239   0.343
98826SOL     OW98316   1.917   3.776   3.518
98826SOL    HW198317   1.897   3.867   3.542
98826SOL    HW298318   1.861   3.724   3.576
98827SOL     OW98319   5.364   4.700   7.502
98827SOL    HW198320   5.304   4.743   7.441
98827SOL    HW298321   5.384   4.616   7.461
98828SOL     OW98322   4.102  13.741   5.508
98828SOL    HW198323   4.107  13.833   5.534
98828SOL    HW298324   4.153  13.737   5.427
98829SOL     OW98325  12.106   1.235  12.905
98829SOL    HW198326  12.081   1.242  12.813
98829SOL    HW298327  12.034   1.187  12.946
98830SOL     OW98328  13.479   6.663   4.693
98830SOL    HW198329  13.546   6.685   4.757
98830SOL    HW298330  13.460   6.745   4.648
98831SOL     OW98331   0.068  10.679  11.539
98831SOL    HW198332  14.878  10.716  11.593
98831SOL    HW298333   0.073  10.587  11.566
98832SOL     OW98334   8.872   9.048  10.175
98832SOL    HW198335   8.918   9.038  10.258
98832SOL    HW298336   8.822   8.967  10.166
98833SOL     OW98337   8.036   9.649   3.356
98833SOL    HW198338   8.052   9.561   3.321
98833SOL    HW298339   8.045   9.639   3.451
98834SOL     OW98340   1.444   8.728   2.011
98834SOL    HW198341   1.448   8.820   2.038
98834SOL    HW298342   1.463   8.679   2.090
98835SOL     OW98343   6.555   9.363   0.252
98835SOL    HW198344   6.515   9.414   0.322
98835SOL    HW298345   6.546   9.418   0.174
98836SOL     OW98346  11.053  13.863  12.623
98836SOL    HW198347  10.997  13.838  12.549
98836SOL    HW298348  11.137  13.823  12.604
98837SOL     OW98349   4.480   0.065   5.191
98837SOL    HW198350   4.522   0.014   5.260
98837SOL    HW298351   4.550   0.083   5.128
98838SOL     OW98352  11.181   4.550  11.730
98838SOL    HW198353  11.243   4.479  11.746
98838SOL    HW298354  11.150   4.535  11.641
98839SOL     OW98355  13.849   7.578   2.431
98839SOL    HW198356  13.830   7.629   2.509
98839SOL    HW298357  13.943   7.558   2.437
98840SOL     OW98358  12.970   0.423   2.594
98840SOL    HW198359  13.050   0.477   2.591
98840SOL    HW298360  13.002   0.333   2.587
98841SOL     OW98361   7.131   9.517   0.861
98841SOL    HW198362   7.086   9.432   0.853
98841SOL    HW298363   7.060   9.581   0.861
98842SOL     OW98364   2.375   4.902   1.054
98842SOL    HW198365   2.438   4.941   1.115
98842SOL    HW298366   2.308   4.864   1.111
98843SOL     OW98367   4.539   8.506   0.144
98843SOL    HW198368   4.539   8.477   0.236
98843SOL    HW298369   4.534   8.601   0.149
98844SOL     OW98370  13.501   2.401   1.397
98844SOL    HW198371  13.588   2.416   1.436
98844SOL    HW298372  13.500   2.456   1.319
98845SOL     OW98373   6.534   5.178   1.196
98845SOL    HW198374   6.462   5.217   1.244
98845SOL    HW298375   6.521   5.083   1.206
98846SOL     OW98376   5.221  14.487   7.526
98846SOL    HW198377   5.261  14.499   7.613
98846SOL    HW298378   5.270  14.547   7.469
98847SOL     OW98379   5.994   2.767  12.894
98847SOL    HW198380   5.981   2.769  12.799
98847SOL    HW298381   5.968   2.854  12.924
98848SOL     OW98382  10.955  11.109   2.586
98848SOL    HW198383  10.917  11.161   2.657
98848SOL    HW298384  10.936  11.158   2.507
98849SOL     OW98385   3.544   9.500   0.487
98849SOL    HW198386   3.506   9.580   0.522
98849SOL    HW298387   3.607   9.530   0.420
98850SOL     OW98388  10.548   9.673   2.157
98850SOL    HW198389  10.623   9.718   2.119
98850SOL    HW298390  10.578   9.583   2.172
98851SOL     OW98391   1.506   8.618   6.667
98851SOL    HW198392   1.501   8.553   6.737
98851SOL    HW298393   1.424   8.666   6.673
98852SOL     OW98394  12.373   6.831  14.296
98852SOL    HW198395  12.382   6.920  14.263
98852SOL    HW298396  12.416   6.832  14.381
98853SOL     OW98397  10.427  14.286   4.500
98853SOL    HW198398  10.449  14.377   4.480
98853SOL    HW298399  10.441  14.240   4.418
98854SOL     OW98400  13.436  10.207   3.441
98854SOL    HW198401  13.349  10.207   3.479
98854SOL    HW298402  13.438  10.130   3.384
98855SOL     OW98403   2.095   2.633   9.899
98855SOL    HW198404   2.137   2.599   9.977
98855SOL    HW298405   2.028   2.693   9.932
98856SOL     OW98406   7.321   9.464  12.357
98856SOL    HW198407   7.280   9.539  12.313
98856SOL    HW298408   7.414   9.473  12.338
98857SOL     OW98409   0.868   3.905   7.501
98857SOL    HW198410   0.788   3.918   7.450
98857SOL    HW298411   0.897   3.817   7.477
98858SOL     OW98412   2.230   0.432   7.433
98858SOL    HW198413   2.317   0.397   7.411
98858SOL    HW298414   2.241   0.527   7.430
98859SOL     OW98415   4.766  11.420   5.097
98859SOL    HW198416   4.859  11.426   5.119
98859SOL    HW298417   4.722  11.471   5.165
98860SOL     OW98418   4.091   4.678  14.273
98860SOL    HW198419   4.131   4.703  14.356
98860SOL    HW298420   4.063   4.588  14.286
98861SOL     OW98421   3.838  10.645   2.811
98861SOL    HW198422   3.758  10.623   2.762
98861SOL    HW298423   3.824  10.735   2.841
98862SOL     OW98424   4.785  12.110   3.876
98862SOL    HW198425   4.777  12.096   3.970
98862SOL    HW298426   4.869  12.154   3.865
98863SOL     OW98427   5.797   2.802   3.474
98863SOL    HW198428   5.848   2.809   3.554
98863SOL    HW298429   5.840   2.862   3.413
98864SOL     OW98430  12.342   7.306   5.470
98864SOL    HW198431  12.384   7.250   5.405
98864SOL    HW298432  12.401   7.381   5.479
98865SOL     OW98433  10.076   1.334   3.384
98865SOL    HW198434   9.983   1.356   3.382
98865SOL    HW298435  10.107   1.351   3.296
98866SOL     OW98436  12.437   2.510  11.426
98866SOL    HW198437  12.347   2.479  11.434
98866SOL    HW298438  12.434   2.575  11.357
98867SOL     OW98439  13.291  14.337  10.620
98867SOL    HW198440  13.297  14.322  10.714
98867SOL    HW298441  13.234  14.268  10.587
98868SOL     OW98442   0.289   8.150   5.757
98868SOL    HW198443   0.229   8.215   5.720
98868SOL    HW298444   0.259   8.138   5.847
98869SOL     OW98445   2.585  11.254   7.396
98869SOL    HW198446   2.639  11.276   7.320
98869SOL    HW298447   2.532  11.180   7.368
98870SOL     OW98448   1.997   7.372  13.379
98870SOL    HW198449   2.072   7.369  13.320
98870SOL    HW298450   1.938   7.305  13.345
98871SOL     OW98451   8.757  10.820   9.868
98871SOL    HW198452   8.805  10.834   9.787
98871SOL    HW298453   8.820  10.840   9.937
98872SOL     OW98454  14.677   3.801  12.296
98872SOL    HW198455  14.635   3.757  12.222
98872SOL    HW298456  14.688   3.733  12.361
98873SOL     OW98457   6.171   2.292   4.761
98873SOL    HW198458   6.124   2.346   4.697
98873SOL    HW298459   6.162   2.339   4.844
98874SOL     OW98460  13.634  12.303  14.143
98874SOL    HW198461  13.684  12.347  14.073
98874SOL    HW298462  13.669  12.340  14.224
98875SOL     OW98463   9.281   9.519   5.427
98875SOL    HW198464   9.334   9.576   5.371
98875SOL    HW298465   9.204   9.499   5.374
98876SOL     OW98466   2.476   4.507   8.041
98876SOL    HW198467   2.510   4.458   7.966
98876SOL    HW298468   2.514   4.463   8.117
98877SOL     OW98469  12.713   5.870   5.061
98877SOL    HW198470  12.718   5.848   5.154
98877SOL    HW298471  12.619   5.877   5.043
98878SOL     OW98472  10.439   1.994   3.081
98878SOL    HW198473  10.344   1.986   3.090
98878SOL    HW298474  10.457   2.086   3.101
98879SOL     OW98475   3.502   0.735   9.724
98879SOL    HW198476   3.488   0.684   9.804
98879SOL    HW298477   3.424   0.718   9.671
98880SOL     OW98478   1.725   7.884   7.819
98880SOL    HW198479   1.795   7.940   7.785
98880SOL    HW298480   1.768   7.828   7.884
98881SOL     OW98481   3.930   3.296   4.167
98881SOL    HW198482   3.985   3.325   4.094
98881SOL    HW298483   3.877   3.373   4.188
98882SOL     OW98484   3.668  11.027  12.360
98882SOL    HW198485   3.614  11.060  12.431
98882SOL    HW298486   3.668  11.097  12.295
98883SOL     OW98487  10.277   6.644   6.611
98883SOL    HW198488  10.195   6.679   6.646
98883SOL    HW298489  10.251   6.563   6.565
98884SOL     OW98490  11.216   6.633  11.036
98884SOL    HW198491  11.169   6.717  11.034
98884SOL    HW298492  11.172   6.583  11.104
98885SOL     OW98493  10.272   8.296   1.760
98885SOL    HW198494  10.288   8.390   1.750
98885SOL    HW298495  10.235   8.287   1.848
98886SOL     OW98496   8.056   2.595   7.212
98886SOL    HW198497   8.056   2.559   7.300
98886SOL    HW298498   8.134   2.557   7.171
98887SOL     OW98499   2.915   3.417  13.383
98887SOL    HW198500   2.873   3.372  13.456
98887SOL    HW298501   2.856   3.402  13.309
98888SOL     OW98502  10.811   6.346  14.447
98888SOL    HW198503  10.759   6.289  14.505
98888SOL    HW298504  10.846   6.286  14.381
98889SOL     OW98505   2.493  10.686   4.532
98889SOL    HW198506   2.559  10.658   4.595
98889SOL    HW298507   2.484  10.612   4.472
98890SOL     OW98508   5.076  11.469   6.090
98890SOL    HW198509   5.123  11.426   6.162
98890SOL    HW298510   5.012  11.403   6.062
98891SOL     OW98511   0.972   5.345   1.459
98891SOL    HW198512   1.001   5.427   1.498
98891SOL    HW298513   1.003   5.277   1.519
98892SOL     OW98514  11.584   8.226  13.572
98892SOL    HW198515  11.625   8.154  13.621
98892SOL    HW298516  11.553   8.186  13.491
98893SOL     OW98517  12.534  13.351   0.561
98893SOL    HW198518  12.471  13.371   0.491
98893SOL    HW298519  12.571  13.437   0.583
98894SOL     OW98520   4.158  13.560  12.315
98894SOL    HW198521   4.151  13.611  12.396
98894SOL    HW298522   4.132  13.472  12.340
98895SOL     OW98523  11.868   3.145   4.488
98895SOL    HW198524  11.826   3.182   4.566
98895SOL    HW298525  11.857   3.050   4.498
98896SOL     OW98526  10.008  13.464  10.691
98896SOL    HW198527  10.025  13.481  10.784
98896SOL    HW298528   9.996  13.551  10.653
98897SOL     OW98529  12.342   0.119  13.158
98897SOL    HW198530  12.276   0.188  13.166
98897SOL    HW298531  12.426   0.166  13.156
98898SOL     OW98532   7.142  13.359   9.728
98898SOL    HW198533   7.087  13.418   9.677
98898SOL    HW298534   7.174  13.412   9.801
98899SOL     OW98535  10.689   2.611  14.451
98899SOL    HW198536  10.710   2.563  14.371
98899SOL    HW298537  10.772   2.652  14.476
98900SOL     OW98538   9.481   3.410   2.477
98900SOL    HW198539   9.434   3.337   2.437
98900SOL    HW298540   9.495   3.471   2.405
98901SOL     OW98541   9.911   8.197   8.565
98901SOL    HW198542   9.964   8.137   8.618
98901SOL    HW298543   9.928   8.283   8.603
98902SOL     OW98544   2.809  10.642   5.586
98902SOL    HW198545   2.861  10.714   5.551
98902SOL    HW298546   2.744  10.684   5.642
98903SOL     OW98547   0.284   0.441   6.732
98903SOL    HW198548   0.197   0.475   6.711
98903SOL    HW298549   0.267   0.357   6.775
98904SOL     OW98550  13.088  14.394   3.896
98904SOL    HW198551  13.089  14.303   3.924
98904SOL    HW298552  13.091  14.444   3.978
98905SOL     OW98553  12.217   5.934   3.133
98905SOL    HW198554  12.163   5.996   3.181
98905SOL    HW298555  12.189   5.943   3.042
98906SOL     OW98556   6.708  12.857   1.134
98906SOL    HW198557   6.759  12.852   1.215
98906SOL    HW298558   6.626  12.898   1.161
98907SOL     OW98559   9.912   4.397   6.663
98907SOL    HW198560   9.832   4.381   6.713
98907SOL    HW298561   9.881   4.427   6.577
98908SOL     OW98562  14.777  11.100   2.120
98908SOL    HW198563  14.832  11.095   2.198
98908SOL    HW298564  14.823  11.161   2.062
98909SOL     OW98565  14.398  12.233  11.997
98909SOL    HW198566  14.372  12.201  12.084
98909SOL    HW298567  14.493  12.224  11.995
98910SOL     OW98568  13.815   7.774   3.833
98910SOL    HW198569  13.755   7.700   3.828
98910SOL    HW298570  13.793   7.817   3.917
98911SOL     OW98571   0.668  14.039   7.761
98911SOL    HW198572   0.591  14.027   7.706
98911SOL    HW298573   0.653  14.122   7.805
98912SOL     OW98574   5.191   7.360   2.790
98912SOL    HW198575   5.176   7.443   2.744
98912SOL    HW298576   5.197   7.295   2.720
98913SOL     OW98577  14.116   4.265  13.463
98913SOL    HW198578  14.020   4.266  13.469
98913SOL    HW298579  14.140   4.174  13.481
98914SOL     OW98580   8.131  13.655  12.418
98914SOL    HW198581   8.151  13.681  12.328
98914SOL    HW298582   8.119  13.738  12.464
98915SOL     OW98583  10.765  14.851   1.969
98915SOL    HW198584  10.706   0.035   1.929
98915SOL    HW298585  10.776  14.783   1.903
98916SOL     OW98586  12.615   5.707   7.017
98916SOL    HW198587  12.558   5.669   6.949
98916SOL    HW298588  12.701   5.710   6.976
98917SOL     OW98589   5.025   9.433  11.783
98917SOL    HW198590   4.937   9.396  11.791
98917SOL    HW298591   5.081   9.357  11.764
98918SOL     OW98592   0.599   8.209  11.643
98918SOL    HW198593   0.552   8.266  11.583
98918SOL    HW298594   0.620   8.265  11.718
98919SOL     OW98595   5.046   1.120  10.269
98919SOL    HW198596   5.075   1.201  10.311
98919SOL    HW298597   4.989   1.079  10.334
98920SOL     OW98598  13.421   5.699   3.666
98920SOL    HW198599  13.476   5.652   3.729
98920SOL    HW298600  13.408   5.637   3.594
98921SOL     OW98601   6.453   0.806   6.552
98921SOL    HW198602   6.514   0.764   6.612
98921SOL    HW298603   6.441   0.742   6.481
98922SOL     OW98604   2.555   1.531   3.167
98922SOL    HW198605   2.472   1.579   3.164
98922SOL    HW298606   2.617   1.588   3.123
98923SOL     OW98607   3.300   8.762   9.131
98923SOL    HW198608   3.345   8.803   9.057
98923SOL    HW298609   3.217   8.732   9.096
98924SOL     OW98610   5.789  14.314   4.671
98924SOL    HW198611   5.870  14.358   4.698
98924SOL    HW298612   5.817  14.229   4.638
98925SOL     OW98613  13.359  11.225  11.744
98925SOL    HW198614  13.422  11.209  11.673
98925SOL    HW298615  13.273  11.218  11.702
98926SOL     OW98616  10.907  14.654  11.308
98926SOL    HW198617  10.937  14.586  11.248
98926SOL    HW298618  10.843  14.609  11.365
98927SOL     OW98619   0.919  13.836  12.500
98927SOL    HW198620   0.963  13.919  12.515
98927SOL    HW298621   0.892  13.840  12.408
98928SOL     OW98622  14.289   4.600  14.703
98928SOL    HW198623  14.362   4.574  14.760
98928SOL    HW298624  14.283   4.695  14.713
98929SOL     OW98625   0.543   5.570  14.180
98929SOL    HW198626   0.502   5.506  14.238
98929SOL    HW298627   0.470   5.622  14.145
98930SOL     OW98628  14.595   8.423  10.134
98930SOL    HW198629  14.570   8.457  10.048
98930SOL    HW298630  14.563   8.488  10.196
98931SOL     OW98631   8.616   2.298   4.737
98931SOL    HW198632   8.629   2.255   4.653
98931SOL    HW298633   8.565   2.235   4.789
98932SOL     OW98634  10.587   6.561  11.447
98932SOL    HW198635  10.491   6.567  11.443
98932SOL    HW298636  10.617   6.650  11.424
98933SOL     OW98637  11.556   0.744   5.049
98933SOL    HW198638  11.512   0.661   5.029
98933SOL    HW298639  11.492   0.794   5.099
98934SOL     OW98640  10.440  10.107  12.420
98934SOL    HW198641  10.489  10.188  12.435
98934SOL    HW298642  10.385  10.126  12.344
98935SOL     OW98643  14.872   2.433   8.898
98935SOL    HW198644   0.011   2.342   8.922
98935SOL    HW298645  14.868   2.479   8.981
98936SOL     OW98646   2.092   8.594   3.711
98936SOL    HW198647   2.124   8.644   3.636
98936SOL    HW298648   2.017   8.545   3.677
98937SOL     OW98649  10.927  14.817   6.119
98937SOL    HW198650  10.835  14.816   6.092
98937SOL    HW298651  10.927  14.863   6.203
98938SOL     OW98652   7.673   7.578   1.356
98938SOL    HW198653   7.706   7.662   1.385
98938SOL    HW298654   7.749   7.520   1.358
98939SOL     OW98655  14.007   1.451   6.613
98939SOL    HW198656  13.987   1.499   6.533
98939SOL    HW298657  13.926   1.453   6.663
98940SOL     OW98658  11.833  11.008   3.658
98940SOL    HW198659  11.864  10.971   3.741
98940SOL    HW298660  11.902  11.069   3.631
98941SOL     OW98661  10.103  14.447   2.121
98941SOL    HW198662  10.012  14.445   2.090
98941SOL    HW298663  10.095  14.431   2.215
98942SOL     OW98664   0.553   1.003   2.955
98942SOL    HW198665   0.475   0.992   3.010
98942SOL    HW298666   0.528   0.962   2.872
98943SOL     OW98667  11.109   4.986   9.397
98943SOL    HW198668  11.199   4.955   9.385
98943SOL    HW298669  11.098   5.056   9.332
98944SOL     OW98670   0.860  11.798   7.318
98944SOL    HW198671   0.934  11.744   7.346
98944SOL    HW298672   0.851  11.781   7.224
98945SOL     OW98673   6.958  11.990  11.925
98945SOL    HW198674   6.914  12.047  11.988
98945SOL    HW298675   7.005  11.926  11.979
98946SOL     OW98676  10.487   5.925  13.660
98946SOL    HW198677  10.525   5.893  13.742
98946SOL    HW298678  10.481   5.847  13.605
98947SOL     OW98679   3.159   8.728   9.384
98947SOL    HW198680   3.156   8.815   9.344
98947SOL    HW298681   3.078   8.722   9.434
98948SOL     OW98682  11.523  11.271  14.735
98948SOL    HW198683  11.503  11.275  14.641
98948SOL    HW298684  11.475  11.345  14.772
98949SOL     OW98685   5.418   3.957   9.825
98949SOL    HW198686   5.348   3.955   9.890
98949SOL    HW298687   5.415   4.045   9.788
98950SOL     OW98688   4.533  13.923   5.703
98950SOL    HW198689   4.583  14.002   5.722
98950SOL    HW298690   4.586  13.852   5.740
98951SOL     OW98691  10.576   3.316  13.047
98951SOL    HW198692  10.552   3.350  12.961
98951SOL    HW298693  10.663   3.351  13.063
98952SOL     OW98694   9.055  12.923   8.219
98952SOL    HW198695   9.102  12.894   8.140
98952SOL    HW298696   8.966  12.890   8.206
98953SOL     OW98697   3.800   9.003  11.899
98953SOL    HW198698   3.711   9.040  11.905
98953SOL    HW298699   3.805   8.968  11.811
98954SOL     OW98700  14.448   1.839   2.625
98954SOL    HW198701  14.436   1.772   2.557
98954SOL    HW298702  14.453   1.789   2.707
98955SOL     OW98703  13.992   4.687  14.197
98955SOL    HW198704  14.056   4.683  14.126
98955SOL    HW298705  13.930   4.617  14.178
98956SOL     OW98706   7.941  14.595   0.868
98956SOL    HW198707   7.887  14.535   0.816
98956SOL    HW298708   8.010  14.540   0.905
98957SOL     OW98709   2.213   3.466  12.211
98957SOL    HW198710   2.197   3.542  12.267
98957SOL    HW298711   2.221   3.502  12.123
98958SOL     OW98712   5.148   7.973  10.193
98958SOL    HW198713   5.104   7.920  10.127
98958SOL    HW298714   5.114   8.061  10.180
98959SOL     OW98715  14.317  13.879   0.260
98959SOL    HW198716  14.304  13.932   0.338
98959SOL    HW298717  14.228  13.851   0.235
98960SOL     OW98718   9.975   6.007  12.705
98960SOL    HW198719   9.885   6.010  12.672
98960SOL    HW298720   9.974   6.062  12.783
98961SOL     OW98721   1.675  10.140  13.625
98961SOL    HW198722   1.729  10.210  13.588
98961SOL    HW298723   1.590  10.183  13.641
98962SOL     OW98724  10.560   7.947   6.222
98962SOL    HW198725  10.517   7.916   6.302
98962SOL    HW298726  10.496   7.933   6.152
98963SOL     OW98727  14.129  11.816   4.019
98963SOL    HW198728  14.096  11.735   3.980
98963SOL    HW298729  14.197  11.787   4.079
98964SOL     OW98730   1.958   8.346  10.640
98964SOL    HW198731   2.011   8.397  10.579
98964SOL    HW298732   1.993   8.368  10.727
98965SOL     OW98733  13.344  10.937   2.044
98965SOL    HW198734  13.378  11.024   2.066
98965SOL    HW298735  13.317  10.944   1.953
98966SOL     OW98736  12.097  14.256   7.902
98966SOL    HW198737  12.048  14.198   7.961
98966SOL    HW298738  12.050  14.339   7.907
98967SOL     OW98739   6.875  10.483   5.057
98967SOL    HW198740   6.948  10.428   5.086
98967SOL    HW298741   6.911  10.537   4.987
98968SOL     OW98742  13.334   9.244  13.850
98968SOL    HW198743  13.255   9.265  13.799
98968SOL    HW298744  13.301   9.226  13.938
98969SOL     OW98745   9.621   5.498  11.818
98969SOL    HW198746   9.593   5.470  11.731
98969SOL    HW298747   9.715   5.480  11.821
98970SOL     OW98748   0.573   1.396   1.370
98970SOL    HW198749   0.580   1.366   1.461
98970SOL    HW298750   0.532   1.323   1.324
98971SOL     OW98751   5.394   5.033   8.768
98971SOL    HW198752   5.477   5.040   8.721
98971SOL    HW298753   5.331   5.081   8.714
98972SOL     OW98754   4.033  12.312  14.016
98972SOL    HW198755   4.013  12.297  13.924
98972SOL    HW298756   4.128  12.318  14.019
98973SOL     OW98757   0.730   9.066  12.474
98973SOL    HW198758   0.654   9.012  12.496
98973SOL    HW298759   0.698   9.156  12.482
98974SOL     OW98760  13.565   3.368   9.316
98974SOL    HW198761  13.558   3.381   9.222
98974SOL    HW298762  13.590   3.276   9.326
98975SOL     OW98763   3.032   2.503   4.252
98975SOL    HW198764   3.008   2.539   4.338
98975SOL    HW298765   2.948   2.483   4.211
98976SOL     OW98766  10.020   4.655   7.239
98976SOL    HW198767  10.058   4.570   7.264
98976SOL    HW298768   9.933   4.655   7.278
98977SOL     OW98769  10.239   9.097   6.802
98977SOL    HW198770  10.164   9.050   6.838
98977SOL    HW298771  10.312   9.036   6.811
98978SOL     OW98772   0.556   4.226   4.415
98978SOL    HW198773   0.571   4.161   4.484
98978SOL    HW298774   0.461   4.226   4.402
98979SOL     OW98775   6.079   0.371   6.997
98979SOL    HW198776   6.147   0.328   7.049
98979SOL    HW298777   6.081   0.462   7.026
98980SOL     OW98778  12.151   4.294   1.892
98980SOL    HW198779  12.177   4.248   1.972
98980SOL    HW298780  12.224   4.354   1.876
98981SOL     OW98781  12.521  11.743   2.410
98981SOL    HW198782  12.516  11.764   2.504
98981SOL    HW298783  12.614  11.741   2.391
98982SOL     OW98784   7.406   0.213  11.495
98982SOL    HW198785   7.369   0.282  11.550
98982SOL    HW298786   7.364   0.224  11.410
98983SOL     OW98787   9.319   5.039  13.910
98983SOL    HW198788   9.381   5.043  13.982
98983SOL    HW298789   9.346   4.962  13.860
98984SOL     OW98790   1.457   8.486  12.459
98984SOL    HW198791   1.456   8.392  12.477
98984SOL    HW298792   1.377   8.519  12.499
98985SOL     OW98793   6.178   5.868  11.284
98985SOL    HW198794   6.145   5.818  11.358
98985SOL    HW298795   6.182   5.959  11.316
98986SOL     OW98796   7.303   2.698   0.541
98986SOL    HW198797   7.367   2.727   0.476
98986SOL    HW298798   7.303   2.603   0.535
98987SOL     OW98799   3.825   5.384   6.751
98987SOL    HW198800   3.879   5.308   6.733
98987SOL    HW298801   3.764   5.355   6.819
98988SOL     OW98802   7.980   0.151   5.138
98988SOL    HW198803   7.905   0.210   5.145
98988SOL    HW298804   7.989   0.113   5.225
98989SOL     OW98805   9.882  12.358  14.710
98989SOL    HW198806   9.863  12.450  14.694
98989SOL    HW298807   9.977  12.353  14.715
98990SOL     OW98808  10.311   3.963   0.511
98990SOL    HW198809  10.390   3.976   0.563
98990SOL    HW298810  10.316   3.872   0.482
98991SOL     OW98811   9.859   7.442   2.703
98991SOL    HW198812   9.832   7.402   2.785
98991SOL    HW298813   9.935   7.391   2.675
98992SOL     OW98814   8.640   9.119  12.750
98992SOL    HW198815   8.597   9.130  12.834
98992SOL    HW298816   8.602   9.186  12.694
98993SOL     OW98817   2.591  10.441  10.726
98993SOL    HW198818   2.668  10.403  10.769
98993SOL    HW298819   2.545  10.365  10.690
98994SOL     OW98820   2.539   6.272   6.351
98994SOL    HW198821   2.599   6.331   6.306
98994SOL    HW298822   2.520   6.315   6.434
98995SOL     OW98823  10.060  12.216   7.247
98995SOL    HW198824   9.982  12.184   7.202
98995SOL    HW298825  10.025  12.275   7.315
98996SOL     OW98826   7.022   8.839   7.306
98996SOL    HW198827   7.078   8.900   7.353
98996SOL    HW298828   7.073   8.814   7.228
98997SOL     OW98829  10.036   7.256   4.974
98997SOL    HW198830   9.966   7.278   4.912
98997SOL    HW298831  10.088   7.190   4.929
98998SOL     OW98832   2.539   5.456  11.144
98998SOL    HW198833   2.625   5.428  11.174
98998SOL    HW298834   2.554   5.542  11.105
98999SOL     OW98835   3.301  13.425   2.821
98999SOL    HW198836   3.301  13.416   2.917
98999SOL    HW298837   3.212  13.453   2.800
99000SOL     OW98838   7.380  13.198  14.259
99000SOL    HW198839   7.452  13.250  14.221
99000SOL    HW298840   7.413  13.171  14.345
99001SOL     OW98841   9.938   9.748   6.266
99001SOL    HW198842   9.879   9.673   6.267
99001SOL    HW298843  10.005   9.725   6.201
99002SOL     OW98844   2.810   6.398   1.064
99002SOL    HW198845   2.718   6.423   1.052
99002SOL    HW298846   2.811   6.303   1.051
99003SOL     OW98847   6.783   4.968   3.540
99003SOL    HW198848   6.825   5.030   3.600
99003SOL    HW298849   6.824   4.985   3.455
99004SOL     OW98850   0.240  13.206   0.876
99004SOL    HW198851   0.258  13.259   0.953
99004SOL    HW298852   0.174  13.255   0.827
99005SOL     OW98853   9.029  11.331   0.236
99005SOL    HW198854   8.969  11.338   0.162
99005SOL    HW298855   9.022  11.240   0.264
99006SOL     OW98856  13.507   4.126   5.167
99006SOL    HW198857  13.598   4.116   5.140
99006SOL    HW298858  13.474   4.036   5.173
99007SOL     OW98859   6.991  12.747   6.267
99007SOL    HW198860   7.022  12.667   6.225
99007SOL    HW298861   6.962  12.720   6.354
99008SOL     OW98862  14.597   2.125   6.145
99008SOL    HW198863  14.541   2.191   6.105
99008SOL    HW298864  14.681   2.133   6.099
99009SOL     OW98865   3.616  14.225   5.972
99009SOL    HW198866   3.688  14.184   6.020
99009SOL    HW298867   3.653  14.307   5.940
99010SOL     OW98868   2.331   2.701  11.405
99010SOL    HW198869   2.407   2.721  11.458
99010SOL    HW298870   2.287   2.630  11.452
99011SOL     OW98871   7.629   1.315   6.195
99011SOL    HW198872   7.635   1.382   6.127
99011SOL    HW298873   7.719   1.284   6.205
99012SOL     OW98874  11.252   8.444   7.631
99012SOL    HW198875  11.188   8.426   7.562
99012SOL    HW298876  11.202   8.488   7.700
99013SOL     OW98877   1.380   4.134  14.529
99013SOL    HW198878   1.466   4.151  14.569
99013SOL    HW298879   1.369   4.039  14.538
99014SOL     OW98880   0.154   0.209   6.780
99014SOL    HW198881   0.123   0.214   6.870
99014SOL    HW298882   0.213   0.134   6.779
99015SOL     OW98883  13.736   6.575   9.465
99015SOL    HW198884  13.784   6.655   9.487
99015SOL    HW298885  13.657   6.578   9.518
99016SOL     OW98886  11.915   6.235   4.669
99016SOL    HW198887  11.900   6.150   4.711
99016SOL    HW298888  11.829   6.275   4.665
99017SOL     OW98889   4.395   9.892  11.349
99017SOL    HW198890   4.374   9.805  11.313
99017SOL    HW298891   4.482   9.881  11.386
99018SOL     OW98892   3.883  11.197   3.947
99018SOL    HW198893   3.856  11.288   3.963
99018SOL    HW298894   3.925  11.199   3.861
99019SOL     OW98895   1.701   0.844   8.280
99019SOL    HW198896   1.686   0.861   8.187
99019SOL    HW298897   1.783   0.794   8.282
99020SOL     OW98898   0.679   0.748  11.952
99020SOL    HW198899   0.664   0.827  11.899
99020SOL    HW298900   0.773   0.750  11.970
99021SOL     OW98901   5.218   4.935  14.668
99021SOL    HW198902   5.300   4.915  14.714
99021SOL    HW298903   5.247   4.970  14.584
99022SOL     OW98904   2.622   0.726  11.593
99022SOL    HW198905   2.696   0.721  11.653
99022SOL    HW298906   2.549   0.690  11.643
99023SOL     OW98907   1.550   2.497   0.074
99023SOL    HW198908   1.644   2.508   0.054
99023SOL    HW298909   1.541   2.523   0.165
99024SOL     OW98910   2.629   0.904   5.049
99024SOL    HW198911   2.601   0.935   5.135
99024SOL    HW298912   2.669   0.980   5.007
99025SOL     OW98913   5.498   2.457   6.750
99025SOL    HW198914   5.492   2.477   6.843
99025SOL    HW298915   5.536   2.369   6.746
99026SOL     OW98916   3.021   2.602   5.635
99026SOL    HW198917   3.105   2.568   5.666
99026SOL    HW298918   3.026   2.593   5.540
99027SOL     OW98919   5.354  13.315   6.927
99027SOL    HW198920   5.408  13.389   6.954
99027SOL    HW298921   5.268  13.354   6.909
99028SOL     OW98922   9.413   7.453  11.935
99028SOL    HW198923   9.468   7.376  11.920
99028SOL    HW298924   9.323   7.419  11.932
99029SOL     OW98925   2.191   4.893   7.181
99029SOL    HW198926   2.277   4.932   7.198
99029SOL    HW298927   2.134   4.931   7.248
99030SOL     OW98928   1.701  12.843  12.468
99030SOL    HW198929   1.669  12.933  12.476
99030SOL    HW298930   1.796  12.852  12.464
99031SOL     OW98931   4.114   9.140   2.945
99031SOL    HW198932   4.134   9.228   2.913
99031SOL    HW298933   4.151   9.137   3.033
99032SOL     OW98934  14.337   0.070  14.709
99032SOL    HW198935  14.349   0.155  14.666
99032SOL    HW298936  14.384   0.078  14.792
99033SOL     OW98937   8.507   2.360  11.065
99033SOL    HW198938   8.563   2.290  11.100
99033SOL    HW298939   8.436   2.367  11.130
99034SOL     OW98940  12.728   9.204   3.340
99034SOL    HW198941  12.683   9.275   3.385
99034SOL    HW298942  12.811   9.243   3.311
99035SOL     OW98943   8.867   4.193   2.596
99035SOL    HW198944   8.784   4.240   2.585
99035SOL    HW298945   8.933   4.253   2.561
99036SOL     OW98946  13.768   7.873   0.479
99036SOL    HW198947  13.753   7.968   0.483
99036SOL    HW298948  13.795   7.857   0.388
99037SOL     OW98949   1.643  10.995  12.590
99037SOL    HW198950   1.630  11.089  12.602
99037SOL    HW298951   1.618  10.979  12.499
99038SOL     OW98952   5.272  10.803  10.977
99038SOL    HW198953   5.269  10.899  10.973
99038SOL    HW298954   5.338  10.784  11.043
99039SOL     OW98955  10.268  12.744   3.967
99039SOL    HW198956  10.188  12.705   4.003
99039SOL    HW298957  10.320  12.669   3.938
99040SOL     OW98958  14.140   3.321   8.130
99040SOL    HW198959  14.117   3.239   8.175
99040SOL    HW298960  14.066   3.380   8.148
99041SOL     OW98961  12.445   7.563   6.126
99041SOL    HW198962  12.354   7.535   6.139
99041SOL    HW298963  12.447   7.597   6.037
99042SOL     OW98964   8.497  10.876   1.618
99042SOL    HW198965   8.498  10.793   1.570
99042SOL    HW298966   8.470  10.852   1.706
99043SOL     OW98967   2.555   8.052  13.419
99043SOL    HW198968   2.504   7.973  13.401
99043SOL    HW298969   2.493   8.110  13.463
99044SOL     OW98970   2.885  11.832  10.488
99044SOL    HW198971   2.880  11.747  10.532
99044SOL    HW298972   2.978  11.847  10.474
99045SOL     OW98973  11.580  10.335   7.402
99045SOL    HW198974  11.673  10.354   7.414
99045SOL    HW298975  11.571  10.244   7.430
99046SOL     OW98976   3.888  14.781   1.563
99046SOL    HW198977   3.847  14.699   1.590
99046SOL    HW298978   3.960  14.793   1.624
99047SOL     OW98979   1.521  11.140  12.147
99047SOL    HW198980   1.529  11.207  12.079
99047SOL    HW298981   1.473  11.069  12.105
99048SOL     OW98982  10.933   6.726   4.786
99048SOL    HW198983  10.992   6.656   4.814
99048SOL    HW298984  10.992   6.793   4.750
99049SOL     OW98985   4.697   1.108   3.470
99049SOL    HW198986   4.651   1.184   3.435
99049SOL    HW298987   4.752   1.144   3.541
99050SOL     OW98988  13.874   5.121   2.726
99050SOL    HW198989  13.833   5.077   2.652
99050SOL    HW298990  13.968   5.111   2.710
99051SOL     OW98991  14.091   7.461  11.824
99051SOL    HW198992  14.149   7.425  11.891
99051SOL    HW298993  14.125   7.549  11.808
99052SOL     OW98994   0.647  12.891   0.762
99052SOL    HW198995   0.648  12.814   0.819
99052SOL    HW298996   0.583  12.950   0.802
99053SOL     OW98997  12.812   0.508  12.566
99053SOL    HW198998  12.736   0.480  12.617
99053SOL    HW298999  12.822   0.601  12.588
99054SOL     OW99000   1.951   7.030   0.175
99054SOL    HW199001   1.920   7.118   0.192
99054SOL    HW299002   1.916   7.007   0.089
99055SOL     OW99003   6.954  14.508   0.168
99055SOL    HW199004   6.878  14.551   0.129
99055SOL    HW299005   6.975  14.437   0.107
99056SOL     OW99006   7.632   2.519   3.255
99056SOL    HW199007   7.589   2.473   3.327
99056SOL    HW299008   7.672   2.595   3.297
99057SOL     OW99009   7.278  13.666   5.466
99057SOL    HW199010   7.216  13.729   5.502
99057SOL    HW299011   7.299  13.609   5.539
99058SOL     OW99012   9.074  14.547   4.950
99058SOL    HW199013   9.140  14.494   4.904
99058SOL    HW299014   9.059  14.501   5.032
99059SOL     OW99015   6.930   3.709   0.159
99059SOL    HW199016   6.925   3.615   0.177
99059SOL    HW299017   6.871   3.748   0.223
99060SOL     OW99018   4.550  11.209   7.251
99060SOL    HW199019   4.611  11.253   7.309
99060SOL    HW299020   4.464  11.243   7.275
99061SOL     OW99021  11.117   0.980   7.585
99061SOL    HW199022  11.054   0.974   7.514
99061SOL    HW299023  11.064   0.972   7.665
99062SOL     OW99024  12.158   0.319   9.919
99062SOL    HW199025  12.179   0.227   9.903
99062SOL    HW299026  12.089   0.317   9.985
99063SOL     OW99027   0.619  13.816   4.723
99063SOL    HW199028   0.706  13.802   4.762
99063SOL    HW299029   0.564  13.751   4.766
99064SOL     OW99030  13.282   7.223  12.289
99064SOL    HW199031  13.305   7.201  12.379
99064SOL    HW299032  13.278   7.319  12.288
99065SOL     OW99033   1.469  12.620   3.264
99065SOL    HW199034   1.547  12.662   3.300
99065SOL    HW299035   1.473  12.530   3.296
99066SOL     OW99036  10.651   7.107   3.794
99066SOL    HW199037  10.605   7.177   3.842
99066SOL    HW299038  10.717   7.075   3.856
99067SOL     OW99039  13.233   3.125   6.508
99067SOL    HW199040  13.171   3.112   6.436
99067SOL    HW299041  13.301   3.181   6.472
99068SOL     OW99042   1.436  11.405  11.126
99068SOL    HW199043   1.491  11.460  11.072
99068SOL    HW299044   1.374  11.364  11.065
99069SOL     OW99045   8.339   0.523   7.043
99069SOL    HW199046   8.364   0.478   6.962
99069SOL    HW299047   8.422   0.552   7.081
99070SOL     OW99048  12.390   9.982  10.527
99070SOL    HW199049  12.473  10.024  10.504
99070SOL    HW299050  12.399   9.892  10.499
99071SOL     OW99051  13.630  13.301   0.313
99071SOL    HW199052  13.647  13.334   0.402
99071SOL    HW299053  13.538  13.320   0.298
99072SOL     OW99054   8.049  12.513   8.665
99072SOL    HW199055   8.140  12.533   8.645
99072SOL    HW299056   8.003  12.597   8.657
99073SOL     OW99057   2.950  11.110   2.014
99073SOL    HW199058   2.909  11.042   2.067
99073SOL    HW299059   3.036  11.076   1.992
99074SOL     OW99060  11.239   0.351   0.330
99074SOL    HW199061  11.262   0.258   0.332
99074SOL    HW299062  11.212   0.370   0.420
99075SOL     OW99063   1.435   7.066   4.303
99075SOL    HW199064   1.486   6.990   4.277
99075SOL    HW299065   1.346   7.033   4.316
99076SOL     OW99066   3.276  10.781   3.343
99076SOL    HW199067   3.215  10.744   3.406
99076SOL    HW299068   3.238  10.866   3.321
99077SOL     OW99069   7.890   5.552   4.351
99077SOL    HW199070   7.922   5.636   4.383
99077SOL    HW299071   7.820   5.574   4.291
99078SOL     OW99072   4.809   6.691   1.680
99078SOL    HW199073   4.770   6.777   1.691
99078SOL    HW299074   4.903   6.705   1.694
99079SOL     OW99075  12.345   3.269   1.004
99079SOL    HW199076  12.381   3.211   1.071
99079SOL    HW299077  12.336   3.353   1.048
99080SOL     OW99078   1.319   0.050   4.360
99080SOL    HW199079   1.302   0.112   4.431
99080SOL    HW299080   1.269   0.084   4.286
99081SOL     OW99081   6.413   6.771   5.473
99081SOL    HW199082   6.375   6.698   5.423
99081SOL    HW299083   6.506   6.749   5.479
99082SOL     OW99084  10.675   0.362   6.541
99082SOL    HW199085  10.716   0.347   6.456
99082SOL    HW299086  10.696   0.452   6.564
99083SOL     OW99087   7.053  14.032  11.083
99083SOL    HW199088   7.063  13.975  11.159
99083SOL    HW299089   7.049  13.971  11.009
99084SOL     OW99090  11.461  13.798  13.224
99084SOL    HW199091  11.527  13.764  13.284
99084SOL    HW299092  11.501  13.875  13.184
99085SOL     OW99093   0.932  13.475   1.181
99085SOL    HW199094   1.002  13.469   1.117
99085SOL    HW299095   0.852  13.462   1.130
99086SOL     OW99096  12.499   2.571   6.375
99086SOL    HW199097  12.480   2.611   6.290
99086SOL    HW299098  12.583   2.527   6.363
99087SOL     OW99099   4.717   4.667  11.548
99087SOL    HW199100   4.762   4.688  11.467
99087SOL    HW299101   4.786   4.634  11.606
99088SOL     OW99102   7.048  14.040   6.636
99088SOL    HW199103   7.079  14.131   6.628
99088SOL    HW299104   6.991  14.041   6.713
99089SOL     OW99105   5.378   9.076   5.014
99089SOL    HW199106   5.370   9.025   5.095
99089SOL    HW299107   5.465   9.054   4.980
99090SOL     OW99108   4.377   4.500  11.989
99090SOL    HW199109   4.432   4.566  12.030
99090SOL    HW299110   4.300   4.548  11.959
99091SOL     OW99111  12.354   3.130   7.937
99091SOL    HW199112  12.346   3.201   8.000
99091SOL    HW299113  12.392   3.171   7.859
99092SOL     OW99114  11.994  10.091   5.767
99092SOL    HW199115  12.027  10.026   5.705
99092SOL    HW299116  11.902  10.071   5.777
99093SOL     OW99117  14.188  14.594  14.527
99093SOL    HW199118  14.215  14.578  14.437
99093SOL    HW299119  14.140  14.515  14.552
99094SOL     OW99120   0.079   0.955  11.987
99094SOL    HW199121   0.050   0.936  11.898
99094SOL    HW299122   0.144   1.024  11.978
99095SOL     OW99123   2.046   9.471   7.343
99095SOL    HW199124   2.038   9.414   7.420
99095SOL    HW299125   2.057   9.410   7.270
99096SOL     OW99126   6.147   4.023  10.156
99096SOL    HW199127   6.079   3.964  10.188
99096SOL    HW299128   6.205   3.967  10.105
99097SOL     OW99129   9.059   4.353  13.305
99097SOL    HW199130   9.060   4.387  13.394
99097SOL    HW299131   8.981   4.298  13.301
99098SOL     OW99132  11.842   9.532   8.857
99098SOL    HW199133  11.923   9.520   8.807
99098SOL    HW299134  11.866   9.594   8.927
99099SOL     OW99135  14.648   6.267  10.447
99099SOL    HW199136  14.635   6.233  10.535
99099SOL    HW299137  14.723   6.326  10.454
99100SOL     OW99138   0.477   8.879  11.604
99100SOL    HW199139   0.494   8.968  11.572
99100SOL    HW299140   0.385   8.879  11.628
99101SOL     OW99141   4.242   3.121   4.256
99101SOL    HW199142   4.236   3.027   4.271
99101SOL    HW299143   4.254   3.130   4.162
99102SOL     OW99144   1.195   2.874  14.760
99102SOL    HW199145   1.118   2.918  14.725
99102SOL    HW299146   1.253   2.945  14.789
99103SOL     OW99147  13.443   1.111   9.912
99103SOL    HW199148  13.496   1.141   9.838
99103SOL    HW299149  13.367   1.070   9.871
99104SOL     OW99150   1.562   2.266   4.720
99104SOL    HW199151   1.495   2.224   4.667
99104SOL    HW299152   1.514   2.325   4.778
99105SOL     OW99153  12.399   4.214   8.732
99105SOL    HW199154  12.326   4.176   8.782
99105SOL    HW299155  12.476   4.195   8.785
99106SOL     OW99156   3.317   2.846   1.620
99106SOL    HW199157   3.222   2.852   1.631
99106SOL    HW299158   3.337   2.753   1.631
99107SOL     OW99159   4.417   8.764   4.443
99107SOL    HW199160   4.395   8.673   4.465
99107SOL    HW299161   4.398   8.771   4.350
99108SOL     OW99162   5.584   6.621   1.247
99108SOL    HW199163   5.495   6.588   1.244
99108SOL    HW299164   5.583   6.698   1.189
99109SOL     OW99165   9.947  10.286   6.363
99109SOL    HW199166   9.959  10.197   6.397
99109SOL    HW299167   9.855  10.289   6.336
99110SOL     OW99168   9.083   8.669   9.099
99110SOL    HW199169   9.069   8.575   9.101
99110SOL    HW299170   9.025   8.704   9.167
99111SOL     OW99171   8.109   1.706   6.903
99111SOL    HW199172   8.147   1.744   6.983
99111SOL    HW299173   8.044   1.644   6.935
99112SOL     OW99174   5.868   0.877   8.948
99112SOL    HW199175   5.924   0.808   8.984
99112SOL    HW299176   5.866   0.860   8.854
99113SOL     OW99177  13.914   6.178  14.354
99113SOL    HW199178  13.943   6.229  14.278
99113SOL    HW299179  13.989   6.179  14.413
99114SOL     OW99180   1.269   2.252   0.944
99114SOL    HW199181   1.205   2.318   0.917
99114SOL    HW299182   1.242   2.172   0.898
99115SOL     OW99183   2.378   0.488   8.861
99115SOL    HW199184   2.431   0.471   8.783
99115SOL    HW299185   2.310   0.548   8.832
99116SOL     OW99186   2.945   6.245   0.671
99116SOL    HW199187   2.963   6.336   0.694
99116SOL    HW299188   2.906   6.208   0.750
99117SOL     OW99189  14.217   1.028  13.496
99117SOL    HW199190  14.199   1.122  13.500
99117SOL    HW299191  14.140   0.992  13.452
99118SOL     OW99192  14.173   5.956  12.595
99118SOL    HW199193  14.084   5.922  12.603
99118SOL    HW299194  14.214   5.903  12.527
99119SOL     OW99195  13.268   5.914   6.020
99119SOL    HW199196  13.211   5.979   6.060
99119SOL    HW299197  13.293   5.952   5.936
99120SOL     OW99198   1.467   9.554   7.063
99120SOL    HW199199   1.437   9.645   7.066
99120SOL    HW299200   1.549   9.558   7.014
99121SOL     OW99201   0.647  10.913   0.551
99121SOL    HW199202   0.678  10.866   0.628
99121SOL    HW299203   0.723  10.959   0.518
99122SOL     OW99204   2.123   4.707   4.859
99122SOL    HW199205   2.045   4.703   4.915
99122SOL    HW299206   2.127   4.620   4.818
99123SOL     OW99207   5.323   0.436   6.724
99123SOL    HW199208   5.393   0.408   6.664
99123SOL    HW299209   5.351   0.522   6.755
99124SOL     OW99210  11.334   9.295   5.536
99124SOL    HW199211  11.260   9.320   5.480
99124SOL    HW299212  11.343   9.367   5.597
99125SOL     OW99213   5.383   6.417  10.066
99125SOL    HW199214   5.313   6.363  10.030
99125SOL    HW299215   5.459   6.359  10.070
99126SOL     OW99216   2.065   8.454  14.205
99126SOL    HW199217   2.125   8.383  14.228
99126SOL    HW299218   2.042   8.437  14.114
99127SOL     OW99219  11.193   2.350  10.437
99127SOL    HW199220  11.157   2.273  10.481
99127SOL    HW299221  11.281   2.324  10.411
99128SOL     OW99222   0.137   7.732   4.848
99128SOL    HW199223   0.211   7.695   4.898
99128SOL    HW299224   0.177   7.800   4.794
99129SOL     OW99225   3.878   1.133  14.732
99129SOL    HW199226   3.891   1.223  14.763
99129SOL    HW299227   3.925   1.130  14.649
99130SOL     OW99228   6.840   2.972   2.691
99130SOL    HW199229   6.761   3.026   2.682
99130SOL    HW299230   6.857   2.971   2.786
99131SOL     OW99231   8.472   8.500   2.981
99131SOL    HW199232   8.554   8.541   3.009
99131SOL    HW299233   8.427   8.478   3.062
99132SOL     OW99234  11.177   0.815   6.392
99132SOL    HW199235  11.102   0.865   6.360
99132SOL    HW299236  11.252   0.872   6.374
99133SOL     OW99237   7.368   1.428   8.760
99133SOL    HW199238   7.372   1.446   8.854
99133SOL    HW299239   7.371   1.515   8.720
99134SOL     OW99240  12.908   8.481   2.619
99134SOL    HW199241  12.918   8.574   2.597
99134SOL    HW299242  12.815   8.463   2.608
99135SOL     OW99243   6.730   0.807   6.249
99135SOL    HW199244   6.638   0.781   6.248
99135SOL    HW299245   6.737   0.875   6.183
99136SOL     OW99246  13.236   6.650   3.100
99136SOL    HW199247  13.314   6.704   3.114
99136SOL    HW299248  13.269   6.574   3.051
99137SOL     OW99249  10.661   9.654   8.866
99137SOL    HW199250  10.748   9.629   8.835
99137SOL    HW299251  10.601   9.606   8.809
99138SOL     OW99252   1.356  14.527   1.809
99138SOL    HW199253   1.318  14.560   1.891
99138SOL    HW299254   1.287  14.538   1.744
99139SOL     OW99255   0.382   8.335   8.288
99139SOL    HW199256   0.402   8.258   8.341
99139SOL    HW299257   0.382   8.408   8.350
99140SOL     OW99258  11.722  11.020   6.432
99140SOL    HW199259  11.721  11.116   6.423
99140SOL    HW299260  11.757  10.989   6.348
99141SOL     OW99261   8.057   4.437  11.647
99141SOL    HW199262   7.977   4.385  11.647
99141SOL    HW299263   8.068   4.464  11.556
99142SOL     OW99264   8.286  11.737   7.791
99142SOL    HW199265   8.354  11.691   7.839
99142SOL    HW299266   8.221  11.761   7.857
99143SOL     OW99267  10.483   4.604  13.252
99143SOL    HW199268  10.550   4.584  13.187
99143SOL    HW299269  10.438   4.681  13.217
99144SOL     OW99270   3.671  13.051   7.013
99144SOL    HW199271   3.723  13.042   7.092
99144SOL    HW299272   3.581  13.035   7.041
99145SOL     OW99273  11.788  14.407   1.433
99145SOL    HW199274  11.766  14.496   1.404
99145SOL    HW299275  11.864  14.419   1.490
99146SOL     OW99276   7.989   0.272  10.976
99146SOL    HW199277   8.084   0.263  10.971
99146SOL    HW299278   7.961   0.206  11.040
99147SOL     OW99279   1.893  13.166   1.056
99147SOL    HW199280   1.942  13.133   0.980
99147SOL    HW299281   1.958  13.213   1.108
99148SOL     OW99282  12.484   4.346   5.520
99148SOL    HW199283  12.465   4.263   5.476
99148SOL    HW299284  12.412   4.356   5.583
99149SOL     OW99285   6.750   4.696  10.014
99149SOL    HW199286   6.771   4.739   9.931
99149SOL    HW299287   6.664   4.657  10.000
99150SOL     OW99288  13.744   9.865   2.851
99150SOL    HW199289  13.686   9.813   2.907
99150SOL    HW299290  13.787   9.802   2.794
99151SOL     OW99291   9.973   4.490   2.696
99151SOL    HW199292  10.027   4.479   2.617
99151SOL    HW299293   9.936   4.403   2.712
99152SOL     OW99294   3.599   5.347   7.900
99152SOL    HW199295   3.592   5.260   7.861
99152SOL    HW299296   3.675   5.341   7.959
99153SOL     OW99297   0.810  12.778   2.622
99153SOL    HW199298   0.762  12.710   2.574
99153SOL    HW299299   0.741  12.836   2.655
99154SOL     OW99300   8.051   9.367   3.410
99154SOL    HW199301   7.985   9.298   3.397
99154SOL    HW299302   8.124   9.322   3.454
99155SOL     OW99303  12.815   1.412   5.305
99155SOL    HW199304  12.898   1.375   5.275
99155SOL    HW299305  12.837   1.458   5.386
99156SOL     OW99306   1.855  10.299   7.947
99156SOL    HW199307   1.787  10.235   7.967
99156SOL    HW299308   1.828  10.338   7.864
99157SOL     OW99309   0.918  12.277  13.862
99157SOL    HW199310   1.008  12.309  13.866
99157SOL    HW299311   0.879  12.324  13.788
99158SOL     OW99312  11.408   5.223   5.554
99158SOL    HW199313  11.436   5.221   5.645
99158SOL    HW299314  11.345   5.151   5.546
99159SOL     OW99315  13.301   2.967  12.167
99159SOL    HW199316  13.320   2.900  12.101
99159SOL    HW299317  13.382   3.017  12.174
99160SOL     OW99318   3.062  12.273   9.072
99160SOL    HW199319   3.152  12.259   9.102
99160SOL    HW299320   3.012  12.285   9.153
99161SOL     OW99321   0.882  13.217   2.772
99161SOL    HW199322   0.816  13.257   2.715
99161SOL    HW299323   0.836  13.201   2.854
99162SOL     OW99324   4.142   0.739   2.600
99162SOL    HW199325   4.197   0.766   2.526
99162SOL    HW299326   4.057   0.721   2.562
99163SOL     OW99327   3.733  13.952   2.451
99163SOL    HW199328   3.666  13.918   2.392
99163SOL    HW299329   3.804  13.889   2.445
99164SOL     OW99330  10.987  13.804   9.004
99164SOL    HW199331  11.013  13.750   9.078
99164SOL    HW299332  11.068  13.844   8.973
99165SOL     OW99333   2.594  12.645   8.294
99165SOL    HW199334   2.508  12.613   8.270
99165SOL    HW299335   2.632  12.677   8.213
99166SOL     OW99336   7.168   4.601  13.449
99166SOL    HW199337   7.237   4.553  13.495
99166SOL    HW299338   7.215   4.673  13.405
99167SOL     OW99339   6.881   6.317   8.030
99167SOL    HW199340   6.830   6.300   8.109
99167SOL    HW299341   6.965   6.350   8.063
99168SOL     OW99342   9.790  12.206  10.123
99168SOL    HW199343   9.866  12.150  10.141
99168SOL    HW299344   9.744  12.162  10.052
99169SOL     OW99345   2.561   3.636   5.352
99169SOL    HW199346   2.617   3.712   5.361
99169SOL    HW299347   2.571   3.609   5.260
99170SOL     OW99348  12.908  13.130   8.566
99170SOL    HW199349  12.843  13.079   8.518
99170SOL    HW299350  12.881  13.221   8.556
99171SOL     OW99351   0.878   4.153   8.662
99171SOL    HW199352   0.810   4.086   8.657
99171SOL    HW299353   0.920   4.151   8.577
99172SOL     OW99354   5.805  14.634  12.848
99172SOL    HW199355   5.848  14.708  12.806
99172SOL    HW299356   5.719  14.667  12.874
99173SOL     OW99357  12.175   1.814  11.191
99173SOL    HW199358  12.089   1.851  11.211
99173SOL    HW299359  12.178   1.732  11.241
99174SOL     OW99360   5.229   1.756  10.717
99174SOL    HW199361   5.232   1.838  10.765
99174SOL    HW299362   5.236   1.781  10.625
99175SOL     OW99363   0.997  14.159   4.410
99175SOL    HW199364   1.029  14.071   4.389
99175SOL    HW299365   1.001  14.163   4.506
99176SOL     OW99366   6.491   8.198   8.433
99176SOL    HW199367   6.571   8.162   8.394
99176SOL    HW299368   6.521   8.271   8.486
99177SOL     OW99369  14.152  10.103   4.631
99177SOL    HW199370  14.200  10.042   4.687
99177SOL    HW299371  14.197  10.101   4.547
99178SOL     OW99372   3.043  14.393  10.004
99178SOL    HW199373   3.070  14.364  10.092
99178SOL    HW299374   3.064  14.486  10.002
99179SOL     OW99375   9.024  10.839   1.988
99179SOL    HW199376   8.971  10.791   1.923
99179SOL    HW299377   8.997  10.930   1.979
99180SOL     OW99378   1.673  10.928   2.038
99180SOL    HW199379   1.577  10.934   2.038
99180SOL    HW299380   1.702  11.014   2.007
99181SOL     OW99381  12.848   5.544  10.661
99181SOL    HW199382  12.867   5.457  10.695
99181SOL    HW299383  12.927   5.568  10.612
99182SOL     OW99384   1.506   5.583  10.460
99182SOL    HW199385   1.587   5.626  10.432
99182SOL    HW299386   1.453   5.655  10.496
99183SOL     OW99387   1.453   7.690   9.960
99183SOL    HW199388   1.467   7.760   9.896
99183SOL    HW299389   1.535   7.685  10.009
99184SOL     OW99390  13.825   0.881   8.764
99184SOL    HW199391  13.877   0.948   8.720
99184SOL    HW299392  13.748   0.927   8.796
99185SOL     OW99393  13.891  12.970   4.273
99185SOL    HW199394  13.907  13.016   4.356
99185SOL    HW299395  13.970  12.986   4.221
99186SOL     OW99396  12.492   9.724   4.161
99186SOL    HW199397  12.564   9.697   4.104
99186SOL    HW299398  12.439   9.644   4.171
99187SOL     OW99399   2.024  11.507   2.845
99187SOL    HW199400   2.044  11.486   2.753
99187SOL    HW299401   1.937  11.470   2.859
99188SOL     OW99402   9.484   9.107   8.188
99188SOL    HW199403   9.549   9.162   8.232
99188SOL    HW299404   9.456   9.045   8.255
99189SOL     OW99405   9.929   3.289   1.821
99189SOL    HW199406   9.963   3.251   1.740
99189SOL    HW299407   9.837   3.306   1.803
99190SOL     OW99408  14.138   6.272  11.914
99190SOL    HW199409  14.132   6.361  11.878
99190SOL    HW299410  14.126   6.283  12.009
99191SOL     OW99411  12.845   2.539   4.096
99191SOL    HW199412  12.804   2.603   4.037
99191SOL    HW299413  12.908   2.591   4.147
99192SOL     OW99414   0.929  10.783  13.703
99192SOL    HW199415   0.845  10.810  13.665
99192SOL    HW299416   0.950  10.702  13.658
99193SOL     OW99417   2.355   5.479   9.278
99193SOL    HW199418   2.384   5.395   9.314
99193SOL    HW299419   2.348   5.537   9.354
99194SOL     OW99420   9.132   8.871   3.265
99194SOL    HW199421   9.058   8.832   3.312
99194SOL    HW299422   9.098   8.891   3.178
99195SOL     OW99423   0.947  10.717  12.675
99195SOL    HW199424   0.931  10.628  12.643
99195SOL    HW299425   1.042  10.727  12.668
99196SOL     OW99426   7.274   6.081   0.523
99196SOL    HW199427   7.277   6.043   0.610
99196SOL    HW299428   7.354   6.135   0.518
99197SOL     OW99429   6.696  13.848   1.269
99197SOL    HW199430   6.623  13.787   1.258
99197SOL    HW299431   6.668  13.927   1.223
99198SOL     OW99432   8.518  14.397   7.643
99198SOL    HW199433   8.540  14.489   7.661
99198SOL    HW299434   8.448  14.377   7.705
99199SOL     OW99435  11.668  14.541   7.277
99199SOL    HW199436  11.631  14.453   7.264
99199SOL    HW299437  11.682  14.547   7.372
99200SOL     OW99438  12.788   9.005   9.334
99200SOL    HW199439  12.697   9.035   9.334
99200SOL    HW299440  12.804   8.975   9.245
99201SOL     OW99441   1.365   1.677   8.214
99201SOL    HW199442   1.425   1.713   8.280
99201SOL    HW299443   1.400   1.707   8.131
99202SOL     OW99444   5.981  10.938   5.921
99202SOL    HW199445   6.037  10.955   5.997
99202SOL    HW299446   5.935  10.857   5.943
99203SOL     OW99447   2.584   5.749   3.526
99203SOL    HW199448   2.550   5.727   3.439
99203SOL    HW299449   2.593   5.665   3.570
99204SOL     OW99450   3.632  13.516   7.458
99204SOL    HW199451   3.668  13.516   7.547
99204SOL    HW299452   3.626  13.424   7.434
99205SOL     OW99453   3.599  13.078   5.638
99205SOL    HW199454   3.672  13.020   5.660
99205SOL    HW299455   3.534  13.021   5.596
99206SOL     OW99456   1.893   6.589   8.330
99206SOL    HW199457   1.849   6.590   8.245
99206SOL    HW299458   1.826   6.557   8.391
99207SOL     OW99459  14.608  12.067   1.496
99207SOL    HW199460  14.525  12.034   1.461
99207SOL    HW299461  14.618  12.021   1.580
99208SOL     OW99462   8.673   9.458   7.723
99208SOL    HW199463   8.656   9.433   7.814
99208SOL    HW299464   8.594   9.433   7.676
99209SOL     OW99465  13.703   6.513  10.708
99209SOL    HW199466  13.665   6.449  10.648
99209SOL    HW299467  13.784   6.541  10.666
99210SOL     OW99468  14.665   5.060   4.106
99210SOL    HW199469  14.712   5.033   4.185
99210SOL    HW299470  14.572   5.051   4.129
99211SOL     OW99471   8.591  13.039   7.750
99211SOL    HW199472   8.512  13.053   7.698
99211SOL    HW299473   8.577  13.092   7.829
99212SOL     OW99474   1.380   7.877   0.845
99212SOL    HW199475   1.464   7.915   0.871
99212SOL    HW299476   1.388   7.784   0.866
99213SOL     OW99477   2.178  13.301   4.174
99213SOL    HW199478   2.204  13.391   4.153
99213SOL    HW299479   2.117  13.277   4.104
99214SOL     OW99480   4.745  14.055  14.786
99214SOL    HW199481   4.761  13.969  14.824
99214SOL    HW299482   4.832  14.088  14.764
99215SOL     OW99483   5.709  12.601   8.911
99215SOL    HW199484   5.752  12.529   8.867
99215SOL    HW299485   5.689  12.664   8.842
99216SOL     OW99486   9.176  10.994   9.195
99216SOL    HW199487   9.250  11.012   9.138
99216SOL    HW299488   9.111  10.953   9.139
99217SOL     OW99489   7.352   3.337   0.375
99217SOL    HW199490   7.361   3.423   0.335
99217SOL    HW299491   7.276   3.346   0.432
99218SOL     OW99492   1.295   7.970  13.102
99218SOL    HW199493   1.261   8.058  13.090
99218SOL    HW299494   1.267   7.922  13.024
99219SOL     OW99495  13.222   9.662  11.873
99219SOL    HW199496  13.142   9.715  11.878
99219SOL    HW299497  13.280   9.700  11.938
99220SOL     OW99498  13.606   6.911  12.480
99220SOL    HW199499  13.672   6.859  12.526
99220SOL    HW299500  13.524   6.889  12.524
99221SOL     OW99501   8.541  12.667   9.518
99221SOL    HW199502   8.499  12.676   9.433
99221SOL    HW299503   8.632  12.646   9.498
99222SOL     OW99504  12.175  11.657   5.464
99222SOL    HW199505  12.120  11.638   5.540
99222SOL    HW299506  12.223  11.736   5.487
99223SOL     OW99507  10.420   1.982   4.828
99223SOL    HW199508  10.475   1.960   4.753
99223SOL    HW299509  10.467   2.052   4.872
99224SOL     OW99510   3.775   0.080  12.988
99224SOL    HW199511   3.838   0.135  12.942
99224SOL    HW299512   3.725   0.140  13.042
99225SOL     OW99513   8.799   0.218   5.657
99225SOL    HW199514   8.705   0.207   5.668
99225SOL    HW299515   8.827   0.270   5.733
99226SOL     OW99516   6.800   7.450   8.355
99226SOL    HW199517   6.767   7.538   8.373
99226SOL    HW299518   6.754   7.394   8.417
99227SOL     OW99519   5.290   6.420   8.621
99227SOL    HW199520   5.354   6.436   8.690
99227SOL    HW299521   5.261   6.330   8.635
99228SOL     OW99522  14.110   3.996   0.790
99228SOL    HW199523  14.139   4.063   0.851
99228SOL    HW299524  14.044   4.040   0.735
99229SOL     OW99525   9.599   6.307   0.235
99229SOL    HW199526   9.626   6.383   0.183
99229SOL    HW299527   9.550   6.345   0.309
99230SOL     OW99528   7.548   4.801   5.869
99230SOL    HW199529   7.637   4.792   5.835
99230SOL    HW299530   7.559   4.820   5.962
99231SOL     OW99531   4.399   9.223   5.328
99231SOL    HW199532   4.471   9.267   5.372
99231SOL    HW299533   4.346   9.186   5.398
99232SOL     OW99534   3.336   5.041   2.229
99232SOL    HW199535   3.338   5.024   2.135
99232SOL    HW299536   3.254   5.088   2.243
99233SOL     OW99537   9.873  11.623   7.362
99233SOL    HW199538   9.791  11.576   7.371
99233SOL    HW299539   9.913  11.587   7.283
99234SOL     OW99540  10.373   1.075   4.807
99234SOL    HW199541  10.418   1.036   4.882
99234SOL    HW299542  10.379   1.008   4.738
99235SOL     OW99543   8.917   5.917  10.754
99235SOL    HW199544   8.923   5.828  10.789
99235SOL    HW299545   8.869   5.966  10.821
99236SOL     OW99546  11.915  10.251   0.357
99236SOL    HW199547  11.983  10.285   0.414
99236SOL    HW299548  11.959  10.235   0.274
99237SOL     OW99549   2.127   0.924   7.355
99237SOL    HW199550   2.074   1.003   7.351
99237SOL    HW299551   2.218   0.955   7.360
99238SOL     OW99552   8.752   1.722   1.768
99238SOL    HW199553   8.819   1.785   1.741
99238SOL    HW299554   8.774   1.702   1.859
99239SOL     OW99555  11.052  13.491  12.469
99239SOL    HW199556  11.011  13.435  12.535
99239SOL    HW299557  11.054  13.438  12.390
99240SOL     OW99558   9.189  10.800   5.835
99240SOL    HW199559   9.163  10.718   5.876
99240SOL    HW299560   9.135  10.867   5.878
99241SOL     OW99561   2.812   5.376  11.241
99241SOL    HW199562   2.872   5.446  11.267
99241SOL    HW299563   2.777   5.343  11.324
99242SOL     OW99564   7.045   1.390   4.572
99242SOL    HW199565   6.967   1.379   4.627
99242SOL    HW299566   7.049   1.484   4.555
99243SOL     OW99567   0.186   5.107   8.509
99243SOL    HW199568   0.160   5.135   8.597
99243SOL    HW299569   0.259   5.165   8.486
99244SOL     OW99570  13.682   0.887   9.431
99244SOL    HW199571  13.741   0.952   9.394
99244SOL    HW299572  13.686   0.902   9.526
99245SOL     OW99573   1.373   2.769   3.591
99245SOL    HW199574   1.418   2.833   3.536
99245SOL    HW299575   1.433   2.694   3.594
99246SOL     OW99576   8.409   5.628   0.789
99246SOL    HW199577   8.425   5.639   0.883
99246SOL    HW299578   8.483   5.671   0.747
99247SOL     OW99579   8.685  14.724   5.017
99247SOL    HW199580   8.656  14.800   5.066
99247SOL    HW299581   8.604  14.679   4.993
99248SOL     OW99582   0.715   1.472   9.124
99248SOL    HW199583   0.691   1.414   9.052
99248SOL    HW299584   0.654   1.545   9.117
99249SOL     OW99585   7.334   8.730   7.669
99249SOL    HW199586   7.297   8.648   7.700
99249SOL    HW299587   7.415   8.740   7.720
99250SOL     OW99588  12.783   8.855  10.048
99250SOL    HW199589  12.785   8.899   9.963
99250SOL    HW299590  12.704   8.889  10.091
99251SOL     OW99591  10.165   3.601  14.629
99251SOL    HW199592  10.224   3.650  14.687
99251SOL    HW299593  10.143   3.522  14.679
99252SOL     OW99594   5.499  13.384   0.283
99252SOL    HW199595   5.410  13.353   0.268
99252SOL    HW299596   5.521  13.352   0.371
99253SOL     OW99597   3.127  13.624   6.022
99253SOL    HW199598   3.187  13.550   6.035
99253SOL    HW299599   3.044  13.583   5.998
99254SOL     OW99600   9.074  11.213  14.836
99254SOL    HW199601   9.029  11.222   0.041
99254SOL    HW299602   9.116  11.298  14.823
99255SOL     OW99603   2.144   3.542   4.794
99255SOL    HW199604   2.101   3.521   4.711
99255SOL    HW299605   2.106   3.626   4.820
99256SOL     OW99606   7.879   1.923  11.615
99256SOL    HW199607   7.847   2.009  11.643
99256SOL    HW299608   7.802   1.880  11.577
99257SOL     OW99609   5.192  12.930   2.566
99257SOL    HW199610   5.263  12.873   2.593
99257SOL    HW299611   5.179  12.911   2.473
99258SOL     OW99612   4.486   6.086  11.589
99258SOL    HW199613   4.466   6.073  11.496
99258SOL    HW299614   4.400   6.089  11.632
99259SOL     OW99615   5.359   1.988   4.304
99259SOL    HW199616   5.445   1.973   4.343
99259SOL    HW299617   5.349   1.919   4.238
99260SOL     OW99618   4.858   9.309   2.292
99260SOL    HW199619   4.844   9.403   2.305
99260SOL    HW299620   4.770   9.274   2.275
99261SOL     OW99621  10.537  14.699   9.510
99261SOL    HW199622  10.486  14.620   9.491
99261SOL    HW299623  10.478  14.771   9.486
99262SOL     OW99624   7.578   0.135   2.734
99262SOL    HW199625   7.535   0.156   2.817
99262SOL    HW299626   7.613   0.219   2.704
99263SOL     OW99627   1.618   4.252  11.438
99263SOL    HW199628   1.555   4.315  11.473
99263SOL    HW299629   1.583   4.228  11.352
99264SOL     OW99630   0.649   8.566  13.125
99264SOL    HW199631   0.607   8.557  13.040
99264SOL    HW299632   0.667   8.660  13.134
99265SOL     OW99633   1.638   7.524   1.280
99265SOL    HW199634   1.651   7.453   1.343
99265SOL    HW299635   1.615   7.480   1.198
99266SOL     OW99636  12.380   3.297   9.675
99266SOL    HW199637  12.459   3.294   9.620
99266SOL    HW299638  12.394   3.230   9.741
99267SOL     OW99639   1.265  12.657   3.785
99267SOL    HW199640   1.186  12.702   3.814
99267SOL    HW299641   1.293  12.705   3.707
99268SOL     OW99642  12.788   0.709   6.290
99268SOL    HW199643  12.853   0.719   6.220
99268SOL    HW299644  12.799   0.618   6.319
99269SOL     OW99645  12.978  11.210  12.491
99269SOL    HW199646  12.998  11.133  12.439
99269SOL    HW299647  12.922  11.263  12.435
99270SOL     OW99648   7.458   4.284  12.296
99270SOL    HW199649   7.538   4.239  12.322
99270SOL    HW299650   7.448   4.265  12.203
99271SOL     OW99651   6.972   3.235  11.951
99271SOL    HW199652   6.996   3.259  11.861
99271SOL    HW299653   6.879   3.256  11.957
99272SOL     OW99654   8.212   5.352   2.713
99272SOL    HW199655   8.260   5.269   2.718
99272SOL    HW299656   8.267   5.414   2.762
99273SOL     OW99657   1.379   0.703   9.592
99273SOL    HW199658   1.458   0.718   9.540
99273SOL    HW299659   1.347   0.790   9.613
99274SOL     OW99660  13.136   7.016   9.304
99274SOL    HW199661  13.229   7.011   9.284
99274SOL    HW299662  13.098   6.942   9.256
99275SOL     OW99663   4.025   4.181  11.055
99275SOL    HW199664   4.057   4.094  11.028
99275SOL    HW299665   4.055   4.240  10.985
99276SOL     OW99666   6.060   2.143  12.274
99276SOL    HW199667   5.990   2.141  12.338
99276SOL    HW299668   6.019   2.115  12.192
99277SOL     OW99669  12.915   7.612   4.486
99277SOL    HW199670  12.986   7.640   4.543
99277SOL    HW299671  12.881   7.532   4.527
99278SOL     OW99672  11.959  14.357   6.297
99278SOL    HW199673  11.986  14.445   6.323
99278SOL    HW299674  11.864  14.357   6.311
99279SOL     OW99675   4.236   4.842   7.781
99279SOL    HW199676   4.310   4.861   7.838
99279SOL    HW299677   4.206   4.755   7.808
99280SOL     OW99678  13.978   0.176   8.081
99280SOL    HW199679  13.988   0.140   7.993
99280SOL    HW299680  14.064   0.211   8.103
99281SOL     OW99681  14.683  13.685   4.691
99281SOL    HW199682  14.622  13.757   4.672
99281SOL    HW299683  14.748  13.689   4.621
99282SOL     OW99684   7.330   7.475   8.860
99282SOL    HW199685   7.265   7.543   8.878
99282SOL    HW299686   7.303   7.439   8.775
99283SOL     OW99687   9.723   2.803   9.273
99283SOL    HW199688   9.792   2.858   9.235
99283SOL    HW299689   9.680   2.763   9.198
99284SOL     OW99690   6.157  11.033   2.203
99284SOL    HW199691   6.097  11.106   2.188
99284SOL    HW299692   6.117  10.959   2.158
99285SOL     OW99693   1.476  12.851   3.111
99285SOL    HW199694   1.463  12.776   3.169
99285SOL    HW299695   1.454  12.817   3.024
99286SOL     OW99696  12.189  12.374  10.198
99286SOL    HW199697  12.221  12.461  10.219
99286SOL    HW299698  12.095  12.378  10.216
99287SOL     OW99699  13.552   7.584   6.868
99287SOL    HW199700  13.608   7.517   6.829
99287SOL    HW299701  13.507   7.624   6.794
99288SOL     OW99702   4.297   5.660   2.173
99288SOL    HW199703   4.370   5.646   2.113
99288SOL    HW299704   4.332   5.718   2.241
99289SOL     OW99705  14.224   7.498   0.052
99289SOL    HW199706  14.154   7.461  14.878
99289SOL    HW299707  14.256   7.423   0.103
99290SOL     OW99708   3.004  13.605  10.933
99290SOL    HW199709   2.946  13.633  11.004
99290SOL    HW299710   2.985  13.512  10.921
99291SOL     OW99711   5.002   7.735   5.221
99291SOL    HW199712   5.045   7.740   5.136
99291SOL    HW299713   5.012   7.822   5.258
99292SOL     OW99714   2.295   5.144  12.124
99292SOL    HW199715   2.365   5.209  12.132
99292SOL    HW299716   2.342   5.060  12.118
99293SOL     OW99717  14.710   0.895   1.833
99293SOL    HW199718  14.692   0.818   1.779
99293SOL    HW299719  14.692   0.865   1.923
99294SOL     OW99720  11.016  10.712   3.204
99294SOL    HW199721  11.048  10.741   3.118
99294SOL    HW299722  11.085  10.654   3.237
99295SOL     OW99723   5.920   3.489   5.023
99295SOL    HW199724   5.902   3.582   5.013
99295SOL    HW299725   6.004   3.485   5.070
99296SOL     OW99726  13.640   1.988   3.131
99296SOL    HW199727  13.602   1.900   3.122
99296SOL    HW299728  13.656   1.998   3.225
99297SOL     OW99729   1.810   0.537  10.361
99297SOL    HW199730   1.822   0.463  10.421
99297SOL    HW299731   1.819   0.614  10.417
99298SOL     OW99732   0.617  13.579   8.004
99298SOL    HW199733   0.617  13.663   7.959
99298SOL    HW299734   0.581  13.598   8.091
99299SOL     OW99735  14.600   8.444   0.396
99299SOL    HW199736  14.574   8.400   0.316
99299SOL    HW299737  14.695   8.453   0.388
99300SOL     OW99738   6.777   8.094   1.387
99300SOL    HW199739   6.771   7.998   1.386
99300SOL    HW299740   6.704   8.122   1.442
99301SOL     OW99741   1.580   8.179   6.798
99301SOL    HW199742   1.572   8.105   6.858
99301SOL    HW299743   1.670   8.174   6.765
99302SOL     OW99744   9.338   5.837   8.581
99302SOL    HW199745   9.281   5.761   8.594
99302SOL    HW299746   9.344   5.845   8.485
99303SOL     OW99747  12.650  12.219   5.758
99303SOL    HW199748  12.653  12.284   5.828
99303SOL    HW299749  12.742  12.194   5.745
99304SOL     OW99750   7.799   7.767   2.634
99304SOL    HW199751   7.757   7.744   2.717
99304SOL    HW299752   7.822   7.682   2.595
99305SOL     OW99753   3.663   1.785   4.116
99305SOL    HW199754   3.732   1.762   4.178
99305SOL    HW299755   3.606   1.844   4.164
99306SOL     OW99756   5.965   3.812   8.907
99306SOL    HW199757   6.039   3.754   8.927
99306SOL    HW299758   5.950   3.798   8.813
99307SOL     OW99759   2.751   9.374  11.620
99307SOL    HW199760   2.756   9.311  11.692
99307SOL    HW299761   2.658   9.393  11.610
99308SOL     OW99762   9.486  13.672   3.239
99308SOL    HW199763   9.562  13.622   3.210
99308SOL    HW299764   9.524  13.747   3.285
99309SOL     OW99765  11.697   2.448   6.699
99309SOL    HW199766  11.632   2.501   6.745
99309SOL    HW299767  11.720   2.499   6.621
99310SOL     OW99768   2.928  14.256   1.032
99310SOL    HW199769   2.944  14.165   1.009
99310SOL    HW299770   2.965  14.266   1.120
99311SOL     OW99771   5.469  14.044  12.646
99311SOL    HW199772   5.408  13.985  12.689
99311SOL    HW299773   5.445  14.039  12.553
99312SOL     OW99774   2.164  11.890   2.372
99312SOL    HW199775   2.206  11.847   2.297
99312SOL    HW299776   2.194  11.840   2.448
99313SOL     OW99777   1.004   6.978  14.494
99313SOL    HW199778   0.977   6.900  14.542
99313SOL    HW299779   1.000   6.951  14.402
99314SOL     OW99780   5.624  12.420  11.158
99314SOL    HW199781   5.646  12.513  11.150
99314SOL    HW299782   5.638  12.384  11.071
99315SOL     OW99783  11.343   3.317   6.546
99315SOL    HW199784  11.319   3.270   6.626
99315SOL    HW299785  11.290   3.396   6.548
99316SOL     OW99786   3.395   2.062  12.530
99316SOL    HW199787   3.474   2.043  12.581
99316SOL    HW299788   3.352   2.132  12.578
99317SOL     OW99789   9.454   8.860   4.054
99317SOL    HW199790   9.527   8.840   3.997
99317SOL    HW299791   9.454   8.790   4.119
99318SOL     OW99792   0.038   3.905  12.254
99318SOL    HW199793   0.042   3.858  12.171
99318SOL    HW299794  14.828   3.893  12.285
99319SOL     OW99795   1.741  11.784  11.235
99319SOL    HW199796   1.754  11.877  11.219
99319SOL    HW299797   1.821  11.756  11.279
99320SOL     OW99798   2.259   8.706   1.372
99320SOL    HW199799   2.214   8.760   1.437
99320SOL    HW299800   2.290   8.630   1.421
99321SOL     OW99801   0.231   6.796   9.600
99321SOL    HW199802   0.247   6.745   9.521
99321SOL    HW299803   0.146   6.838   9.586
99322SOL     OW99804   8.900  11.442   6.569
99322SOL    HW199805   8.910  11.400   6.484
99322SOL    HW299806   8.974  11.408   6.621
99323SOL     OW99807   1.993  10.339   9.625
99323SOL    HW199808   1.999  10.424   9.582
99323SOL    HW299809   1.902  10.334   9.656
99324SOL     OW99810   0.331   0.613   1.908
99324SOL    HW199811   0.415   0.574   1.931
99324SOL    HW299812   0.342   0.641   1.817
99325SOL     OW99813   6.401   1.755   6.091
99325SOL    HW199814   6.424   1.777   6.001
99325SOL    HW299815   6.319   1.707   6.084
99326SOL     OW99816   7.133   4.275   4.323
99326SOL    HW199817   7.172   4.339   4.264
99326SOL    HW299818   7.188   4.277   4.402
99327SOL     OW99819   7.316   1.740   6.280
99327SOL    HW199820   7.305   1.647   6.303
99327SOL    HW299821   7.300   1.787   6.362
99328SOL     OW99822   3.496   4.797   2.189
99328SOL    HW199823   3.524   4.749   2.268
99328SOL    HW299824   3.521   4.888   2.207
99329SOL     OW99825   5.524  10.108  14.588
99329SOL    HW199826   5.430  10.091  14.587
99329SOL    HW299827   5.548  10.103  14.681
99330SOL     OW99828   1.442  13.562  12.074
99330SOL    HW199829   1.352  13.557  12.105
99330SOL    HW299830   1.435  13.580  11.981
99331SOL     OW99831   1.686   7.196   5.359
99331SOL    HW199832   1.643   7.269   5.403
99331SOL    HW299833   1.623   7.124   5.365
99332SOL     OW99834   6.808   2.306   6.430
99332SOL    HW199835   6.867   2.373   6.466
99332SOL    HW299836   6.787   2.250   6.505
99333SOL     OW99837   7.683   3.272   8.442
99333SOL    HW199838   7.663   3.365   8.435
99333SOL    HW299839   7.758   3.268   8.501
99334SOL     OW99840   5.562  10.219   2.817
99334SOL    HW199841   5.630  10.246   2.878
99334SOL    HW299842   5.517  10.147   2.860
99335SOL     OW99843  14.717   5.421  11.298
99335SOL    HW199844  14.655   5.348  11.306
99335SOL    HW299845  14.791   5.385  11.250
99336SOL     OW99846  12.432  10.008  14.066
99336SOL    HW199847  12.372  10.081  14.081
99336SOL    HW299848  12.420   9.951  14.142
99337SOL     OW99849  13.342  13.092   8.306
99337SOL    HW199850  13.319  13.144   8.383
99337SOL    HW299851  13.409  13.031   8.337
99338SOL     OW99852   4.406   9.293   2.914
99338SOL    HW199853   4.429   9.248   2.995
99338SOL    HW299854   4.394   9.223   2.849
99339SOL     OW99855   3.460   6.541  11.174
99339SOL    HW199856   3.439   6.447  11.173
99339SOL    HW299857   3.507   6.553  11.256
99340SOL     OW99858  13.265   5.438   6.674
99340SOL    HW199859  13.193   5.399   6.722
99340SOL    HW299860  13.224   5.485   6.601
99341SOL     OW99861   6.214   4.476   5.770
99341SOL    HW199862   6.163   4.501   5.847
99341SOL    HW299863   6.182   4.389   5.747
99342SOL     OW99864   0.164  10.597  13.193
99342SOL    HW199865   0.104  10.650  13.141
99342SOL    HW299866   0.130  10.604  13.282
99343SOL     OW99867  14.459   5.652   0.072
99343SOL    HW199868  14.386   5.629   0.014
99343SOL    HW299869  14.514   5.710   0.020
99344SOL     OW99870   0.829   3.492  14.004
99344SOL    HW199871   0.784   3.530  13.928
99344SOL    HW299872   0.902   3.550  14.020
99345SOL     OW99873  12.154  13.167   9.067
99345SOL    HW199874  12.182  13.254   9.037
99345SOL    HW299875  12.190  13.107   9.003
99346SOL     OW99876  13.922   1.869   1.926
99346SOL    HW199877  13.982   1.838   1.994
99346SOL    HW299878  13.897   1.957   1.954
99347SOL     OW99879   8.688   4.903   2.456
99347SOL    HW199880   8.713   4.884   2.365
99347SOL    HW299881   8.770   4.927   2.499
99348SOL     OW99882  14.838   4.013   4.432
99348SOL    HW199883  14.777   3.956   4.477
99348SOL    HW299884  14.816   4.005   4.339
99349SOL     OW99885   9.495   1.456   6.160
99349SOL    HW199886   9.531   1.493   6.240
99349SOL    HW299887   9.408   1.424   6.185
99350SOL     OW99888   7.178   3.537  14.729
99350SOL    HW199889   7.206   3.604  14.792
99350SOL    HW299890   7.141   3.467  14.783
99351SOL     OW99891   0.461   5.798   9.699
99351SOL    HW199892   0.445   5.800   9.605
99351SOL    HW299893   0.555   5.785   9.708
99352SOL     OW99894   9.434   2.606  11.100
99352SOL    HW199895   9.511   2.646  11.060
99352SOL    HW299896   9.371   2.598  11.028
99353SOL     OW99897  10.212   6.156   1.473
99353SOL    HW199898  10.274   6.157   1.547
99353SOL    HW299899  10.224   6.241   1.430
99354SOL     OW99900   4.859   2.847   7.979
99354SOL    HW199901   4.829   2.934   7.954
99354SOL    HW299902   4.792   2.814   8.039
99355SOL     OW99903   0.824   9.127  14.848
99355SOL    HW199904   0.871   9.125   0.052
99355SOL    HW299905   0.820   9.220  14.825
99356SOL     OW99906   0.625   3.143  10.872
99356SOL    HW199907   0.550   3.182  10.828
99356SOL    HW299908   0.612   3.164  10.965
99357SOL     OW99909  11.028  12.738   2.845
99357SOL    HW199910  10.972  12.669   2.880
99357SOL    HW299911  10.996  12.752   2.756
99358SOL     OW99912   4.099   1.749  14.123
99358SOL    HW199913   4.174   1.702  14.087
99358SOL    HW299914   4.060   1.689  14.186
99359SOL     OW99915   2.339  11.539   2.629
99359SOL    HW199916   2.427  11.542   2.590
99359SOL    HW299917   2.329  11.448   2.657
99360SOL     OW99918   4.351  11.595   2.798
99360SOL    HW199919   4.373  11.515   2.846
99360SOL    HW299920   4.294  11.644   2.858
99361SOL     OW99921   7.978   5.237  13.112
99361SOL    HW199922   7.996   5.194  13.028
99361SOL    HW299923   7.951   5.165  13.170
99362SOL     OW99924   2.136  12.722  11.845
99362SOL    HW199925   2.167  12.777  11.773
99362SOL    HW299926   2.040  12.721  11.835
99363SOL     OW99927  11.393   7.272  12.278
99363SOL    HW199928  11.449   7.349  12.262
99363SOL    HW299929  11.306   7.301  12.252
99364SOL     OW99930   9.651   2.654   2.214
99364SOL    HW199931   9.645   2.589   2.144
99364SOL    HW299932   9.675   2.735   2.170
99365SOL     OW99933  13.413  13.414   1.960
99365SOL    HW199934  13.480  13.347   1.944
99365SOL    HW299935  13.350  13.372   2.019
99366SOL     OW99936  11.448   6.532  13.506
99366SOL    HW199937  11.440   6.461  13.441
99366SOL    HW299938  11.372   6.588  13.489
99367SOL     OW99939  12.022  12.255   0.233
99367SOL    HW199940  12.011  12.310   0.155
99367SOL    HW299941  12.016  12.165   0.200
99368SOL     OW99942   4.345   9.089   8.630
99368SOL    HW199943   4.256   9.084   8.664
99368SOL    HW299944   4.397   9.122   8.703
99369SOL     OW99945  14.683   7.255  11.003
99369SOL    HW199946  14.774   7.226  11.005
99369SOL    HW299947  14.632   7.174  10.989
99370SOL     OW99948   0.532  10.368   7.648
99370SOL    HW199949   0.459  10.430   7.649
99370SOL    HW299950   0.581  10.388   7.569
99371SOL     OW99951   7.769   2.225   5.607
99371SOL    HW199952   7.777   2.196   5.516
99371SOL    HW299953   7.719   2.156   5.650
99372SOL     OW99954   4.389   3.018   9.536
99372SOL    HW199955   4.448   3.030   9.462
99372SOL    HW299956   4.358   2.928   9.529
99373SOL     OW99957  14.270   4.510   0.771
99373SOL    HW199958  14.353   4.506   0.724
99373SOL    HW299959  14.238   4.599   0.757
99374SOL     OW99960   0.809   6.414   7.762
99374SOL    HW199961   0.814   6.447   7.673
99374SOL    HW299962   0.715   6.413   7.782
99375SOL     OW99963   3.378  14.345   0.934
99375SOL    HW199964   3.381  14.437   0.960
99375SOL    HW299965   3.286  14.328   0.913
99376SOL     OW99966   0.226   6.127   6.968
99376SOL    HW199967   0.312   6.151   6.934
99376SOL    HW299968   0.235   6.136   7.063
99377SOL     OW99969   9.909  10.177   0.624
99377SOL    HW199970   9.840  10.183   0.558
99377SOL    HW299971   9.862  10.182   0.708
99378SOL     OW99972  13.946   5.317  14.814
99378SOL    HW199973  13.866   5.298  14.765
99378SOL    HW299974  13.924   5.297   0.025
99379SOL     OW99975   0.167   6.687   5.630
99379SOL    HW199976   0.245   6.696   5.576
99379SOL    HW299977   0.186   6.739   5.708
99380SOL     OW99978   5.238  13.120  13.162
99380SOL    HW199979   5.299  13.051  13.189
99380SOL    HW299980   5.154  13.093  13.198
99381SOL     OW99981   6.884   9.341  14.096
99381SOL    HW199982   6.896   9.286  14.174
99381SOL    HW299983   6.798   9.381  14.109
99382SOL     OW99984  13.132  14.488  14.392
99382SOL    HW199985  13.177  14.541  14.457
99382SOL    HW299986  13.040  14.513  14.399
99383SOL     OW99987  11.868   1.192  13.076
99383SOL    HW199988  11.867   1.127  13.006
99383SOL    HW299989  11.782   1.186  13.116
99384SOL     OW99990  12.114  11.504   3.620
99384SOL    HW199991  12.128  11.522   3.527
99384SOL    HW299992  12.076  11.585   3.655
99385SOL     OW99993   1.542   7.078  10.959
99385SOL    HW199994   1.637   7.068  10.952
99385SOL    HW299995   1.514   7.002  11.011
99386SOL     OW99996   4.338   0.290   2.246
99386SOL    HW199997   4.244   0.272   2.240
99386SOL    HW299998   4.360   0.330   2.162
99387SOL     OW99999  12.334  11.039  14.220
99387SOL    HW1    0  12.278  10.985  14.276
99387SOL    HW2    1  12.341  11.122  14.268
99388SOL     OW    2   6.498   9.321   5.261
99388SOL    HW1    3   6.467   9.231   5.266
99388SOL    HW2    4   6.431   9.366   5.208
99389SOL     OW    5  14.644   7.152   4.297
99389SOL    HW1    6  14.611   7.221   4.239
99389SOL    HW2    7  14.579   7.082   4.291
99390SOL     OW    8   3.598  12.021  13.537
99390SOL    HW1    9   3.517  12.069  13.557
99390SOL    HW2   10   3.662  12.057  13.598
99391SOL     OW   11  14.174   7.656   9.814
99391SOL    HW1   12  14.261   7.617   9.808
99391SOL    HW2   13  14.147   7.641   9.905
99392SOL     OW   14   2.717   5.946  11.226
99392SOL    HW1   15   2.751   6.034  11.241
99392SOL    HW2   16   2.665   5.927  11.304
99393SOL     OW   17   1.530  10.767   4.533
99393SOL    HW1   18   1.622  10.747   4.550
99393SOL    HW2   19   1.525  10.778   4.438
99394SOL     OW   20   3.731  11.737   8.513
99394SOL    HW1   21   3.719  11.814   8.457
99394SOL    HW2   22   3.642  11.709   8.534
99395SOL     OW   23   0.436   7.317   7.964
99395SOL    HW1   24   0.498   7.302   8.035
99395SOL    HW2   25   0.490   7.312   7.885
99396SOL     OW   26   0.559  12.834  12.062
99396SOL    HW1   27   0.487  12.886  12.024
99396SOL    HW2   28   0.539  12.831  12.156
99397SOL     OW   29   4.790   6.169   1.153
99397SOL    HW1   30   4.798   6.078   1.182
99397SOL    HW2   31   4.702   6.195   1.177
99398SOL     OW   32   8.572   1.194  10.490
99398SOL    HW1   33   8.617   1.232  10.565
99398SOL    HW2   34   8.630   1.211  10.416
99399SOL     OW   35   2.600   2.260  11.642
99399SOL    HW1   36   2.562   2.309  11.570
99399SOL    HW2   37   2.640   2.326  11.699
99400SOL     OW   38   7.073  12.569   0.891
99400SOL    HW1   39   7.112  12.656   0.890
99400SOL    HW2   40   6.978  12.586   0.893
99401SOL     OW   41   6.945  12.894  11.124
99401SOL    HW1   42   6.955  12.833  11.051
99401SOL    HW2   43   6.936  12.979  11.082
99402SOL     OW   44   8.930  12.805   8.951
99402SOL    HW1   45   8.960  12.759   8.872
99402SOL    HW2   46   8.916  12.895   8.922
99403SOL     OW   47   5.922  13.031  11.275
99403SOL    HW1   48   5.918  13.007  11.182
99403SOL    HW2   49   5.948  13.123  11.275
99404SOL     OW   50  14.669   4.958   1.366
99404SOL    HW1   51  14.606   5.024   1.395
99404SOL    HW2   52  14.618   4.878   1.354
99405SOL     OW   53   0.200   7.758   6.156
99405SOL    HW1   54   0.220   7.820   6.086
99405SOL    HW2   55   0.107   7.737   6.143
99406SOL     OW   56   1.758   3.484  11.336
99406SOL    HW1   57   1.694   3.536  11.384
99406SOL    HW2   58   1.799   3.429  11.402
99407SOL     OW   59   5.367   3.009  14.551
99407SOL    HW1   60   5.400   3.017  14.640
99407SOL    HW2   61   5.326   2.922  14.549
99408SOL     OW   62   9.488   4.049   4.489
99408SOL    HW1   63   9.483   4.039   4.584
99408SOL    HW2   64   9.446   4.132   4.471
99409SOL     OW   65   1.607  12.048  11.020
99409SOL    HW1   66   1.634  12.104  11.093
99409SOL    HW2   67   1.583  12.109  10.950
99410SOL     OW   68   3.679   5.184  10.845
99410SOL    HW1   69   3.696   5.271  10.880
99410SOL    HW2   70   3.584   5.178  10.840
99411SOL     OW   71   1.766   0.391   4.898
99411SOL    HW1   72   1.713   0.311   4.894
99411SOL    HW2   73   1.711   0.454   4.946
99412SOL     OW   74   2.652  13.416  13.196
99412SOL    HW1   75   2.650  13.334  13.147
99412SOL    HW2   76   2.745  13.431  13.214
99413SOL     OW   77  12.372   8.660   2.940
99413SOL    HW1   78  12.418   8.713   3.006
99413SOL    HW2   79  12.442   8.618   2.890
99414SOL     OW   80  10.211   1.723   3.274
99414SOL    HW1   81  10.208   1.628   3.265
99414SOL    HW2   82  10.206   1.756   3.184
99415SOL     OW   83   6.480  13.039   6.686
99415SOL    HW1   84   6.535  13.020   6.762
99415SOL    HW2   85   6.419  13.106   6.717
99416SOL     OW   86  10.528   8.237   5.504
99416SOL    HW1   87  10.533   8.298   5.430
99416SOL    HW2   88  10.608   8.254   5.554
99417SOL     OW   89   6.637  13.717   5.445
99417SOL    HW1   90   6.598  13.681   5.366
99417SOL    HW2   91   6.674  13.801   5.417
99418SOL     OW   92   6.794   8.169   5.515
99418SOL    HW1   93   6.815   8.086   5.558
99418SOL    HW2   94   6.834   8.162   5.429
99419SOL     OW   95   5.125   6.594   3.030
99419SOL    HW1   96   5.180   6.517   3.018
99419SOL    HW2   97   5.140   6.621   3.120
99420SOL     OW   98  12.229  14.488   2.590
99420SOL    HW1   99  12.264  14.530   2.512
99420SOL    HW2  100  12.232  14.395   2.571
99421SOL     OW  101  11.467   7.326   7.119
99421SOL    HW1  102  11.450   7.243   7.074
99421SOL    HW2  103  11.394   7.383   7.093
99422SOL     OW  104   2.673   8.491   5.804
99422SOL    HW1  105   2.721   8.562   5.846
99422SOL    HW2  106   2.739   8.439   5.759
99423SOL     OW  107   8.281   7.409  11.859
99423SOL    HW1  108   8.202   7.457  11.884
99423SOL    HW2  109   8.281   7.412  11.763
99424SOL     OW  110   4.933   4.037   2.602
99424SOL    HW1  111   4.907   4.122   2.638
99424SOL    HW2  112   5.018   4.020   2.644
99425SOL     OW  113   5.068   1.387  13.027
99425SOL    HW1  114   5.101   1.397  13.116
99425SOL    HW2  115   5.041   1.475  13.001
99426SOL     OW  116   9.173   3.016  13.210
99426SOL    HW1  117   9.241   3.034  13.145
99426SOL    HW2  118   9.221   2.986  13.287
99427SOL     OW  119   1.774   3.478   0.009
99427SOL    HW1  120   1.785   3.383   0.019
99427SOL    HW2  121   1.748   3.508   0.096
99428SOL     OW  122   6.198  12.121   9.122
99428SOL    HW1  123   6.284  12.083   9.139
99428SOL    HW2  124   6.202  12.209   9.159
99429SOL     OW  125   7.459   2.192  12.444
99429SOL    HW1  126   7.553   2.204  12.426
99429SOL    HW2  127   7.447   2.098  12.447
99430SOL     OW  128   1.390  11.642  12.086
99430SOL    HW1  129   1.463  11.655  12.026
99430SOL    HW2  130   1.400  11.552  12.117
99431SOL     OW  131   8.414  14.720   3.763
99431SOL    HW1  132   8.433  14.694   3.853
99431SOL    HW2  133   8.418  14.638   3.713
99432SOL     OW  134   6.826   5.635   2.577
99432SOL    HW1  135   6.874   5.604   2.500
99432SOL    HW2  136   6.889   5.690   2.624
99433SOL     OW  137   8.444   3.117  12.792
99433SOL    HW1  138   8.527   3.081  12.823
99433SOL    HW2  139   8.418   3.179  12.859
99434SOL     OW  140   9.793   4.574  10.172
99434SOL    HW1  141   9.848   4.523  10.232
99434SOL    HW2  142   9.712   4.524  10.165
99435SOL     OW  143  11.907   1.900  11.256
99435SOL    HW1  144  11.976   1.959  11.286
99435SOL    HW2  145  11.842   1.957  11.216
99436SOL     OW  146  12.081   9.661   4.237
99436SOL    HW1  147  12.145   9.593   4.219
99436SOL    HW2  148  12.039   9.677   4.152
99437SOL     OW  149  10.121  11.291   0.085
99437SOL    HW1  150  10.070  11.363   0.047
99437SOL    HW2  151  10.066  11.258   0.157
99438SOL     OW  152   0.555   7.994   0.337
99438SOL    HW1  153   0.549   7.899   0.341
99438SOL    HW2  154   0.646   8.014   0.358
99439SOL     OW  155  10.520   8.101  10.345
99439SOL    HW1  156  10.568   8.041  10.288
99439SOL    HW2  157  10.433   8.062  10.354
99440SOL     OW  158   2.939  10.236  12.596
99440SOL    HW1  159   2.859  10.234  12.649
99440SOL    HW2  160   2.962  10.329  12.591
99441SOL     OW  161  10.691  10.758  12.780
99441SOL    HW1  162  10.680  10.701  12.703
99441SOL    HW2  163  10.608  10.804  12.788
99442SOL     OW  164  12.528  14.000   8.665
99442SOL    HW1  165  12.449  14.040   8.702
99442SOL    HW2  166  12.552  13.932   8.729
99443SOL     OW  167   0.566   1.313   2.387
99443SOL    HW1  168   0.611   1.262   2.454
99443SOL    HW2  169   0.486   1.263   2.369
99444SOL     OW  170   6.418   5.005   9.178
99444SOL    HW1  171   6.419   5.003   9.082
99444SOL    HW2  172   6.341   5.057   9.200
99445SOL     OW  173   3.099  12.054  12.494
99445SOL    HW1  174   3.066  12.137  12.529
99445SOL    HW2  175   3.060  11.987  12.552
99446SOL     OW  176  12.712   6.756   0.552
99446SOL    HW1  177  12.721   6.830   0.492
99446SOL    HW2  178  12.653   6.696   0.507
99447SOL     OW  179   6.231   4.897   4.934
99447SOL    HW1  180   6.308   4.845   4.959
99447SOL    HW2  181   6.208   4.865   4.847
99448SOL     OW  182   3.990  12.315  11.739
99448SOL    HW1  183   4.076  12.274  11.731
99448SOL    HW2  184   3.945  12.292  11.658
99449SOL     OW  185   9.414   3.300   6.472
99449SOL    HW1  186   9.496   3.333   6.436
99449SOL    HW2  187   9.433   3.210   6.496
99450SOL     OW  188   5.091   4.048   7.263
99450SOL    HW1  189   5.018   4.101   7.295
99450SOL    HW2  190   5.082   3.965   7.309
99451SOL     OW  191   5.787   4.922   9.092
99451SOL    HW1  192   5.725   4.968   9.149
99451SOL    HW2  193   5.868   4.920   9.142
99452SOL     OW  194   8.091  13.812   5.437
99452SOL    HW1  195   8.045  13.889   5.404
99452SOL    HW2  196   8.070  13.743   5.373
99453SOL     OW  197   0.713   2.935   4.546
99453SOL    HW1  198   0.794   2.945   4.596
99453SOL    HW2  199   0.689   2.843   4.556
99454SOL     OW  200   3.640   8.541   9.832
99454SOL    HW1  201   3.599   8.607   9.777
99454SOL    HW2  202   3.608   8.458   9.798
99455SOL     OW  203   0.223  10.544  12.623
99455SOL    HW1  204   0.193  10.475  12.563
99455SOL    HW2  205   0.144  10.568  12.672
99456SOL     OW  206   6.677   0.649  12.820
99456SOL    HW1  207   6.692   0.743  12.830
99456SOL    HW2  208   6.741   0.622  12.753
99457SOL     OW  209  13.080   7.021   8.619
99457SOL    HW1  210  13.097   6.958   8.689
99457SOL    HW2  211  13.025   6.974   8.557
99458SOL     OW  212   6.496   9.133  12.977
99458SOL    HW1  213   6.553   9.084  13.037
99458SOL    HW2  214   6.523   9.104  12.890
99459SOL     OW  215   3.654   1.557   7.497
99459SOL    HW1  216   3.712   1.551   7.421
99459SOL    HW2  217   3.665   1.647   7.528
99460SOL     OW  218   2.407   5.114  14.733
99460SOL    HW1  219   2.313   5.117  14.749
99460SOL    HW2  220   2.428   5.200  14.695
99461SOL     OW  221   4.601   1.885  12.812
99461SOL    HW1  222   4.667   1.857  12.875
99461SOL    HW2  223   4.645   1.882  12.728
99462SOL     OW  224   3.377  12.375   3.569
99462SOL    HW1  225   3.348  12.304   3.512
99462SOL    HW2  226   3.459  12.404   3.530
99463SOL     OW  227   2.538   6.316   9.598
99463SOL    HW1  228   2.607   6.382   9.597
99463SOL    HW2  229   2.457   6.365   9.587
99464SOL     OW  230   7.115   8.720   7.039
99464SOL    HW1  231   7.174   8.715   6.964
99464SOL    HW2  232   7.142   8.646   7.095
99465SOL     OW  233   4.816  14.371   8.407
99465SOL    HW1  234   4.887  14.359   8.469
99465SOL    HW2  235   4.859  14.387   8.323
99466SOL     OW  236  13.691  13.284   4.935
99466SOL    HW1  237  13.770  13.331   4.962
99466SOL    HW2  238  13.630  13.353   4.909
99467SOL     OW  239   0.182   7.229   7.169
99467SOL    HW1  240   0.234   7.193   7.241
99467SOL    HW2  241   0.099   7.254   7.211
99468SOL     OW  242   5.108   2.306   9.285
99468SOL    HW1  243   5.196   2.333   9.311
99468SOL    HW2  244   5.122   2.259   9.203
99469SOL     OW  245  14.234   2.449   6.576
99469SOL    HW1  246  14.199   2.494   6.499
99469SOL    HW2  247  14.222   2.356   6.557
99470SOL     OW  248   8.730   3.382   2.079
99470SOL    HW1  249   8.730   3.287   2.083
99470SOL    HW2  250   8.661   3.410   2.140
99471SOL     OW  251   6.974   8.426  12.378
99471SOL    HW1  252   7.039   8.366  12.342
99471SOL    HW2  253   6.940   8.473  12.302
99472SOL     OW  254  14.465  11.742  10.079
99472SOL    HW1  255  14.449  11.703   9.993
99472SOL    HW2  256  14.555  11.717  10.100
99473SOL     OW  257   2.672  14.337  11.114
99473SOL    HW1  258   2.733  14.381  11.054
99473SOL    HW2  259   2.690  14.244  11.101
99474SOL     OW  260   2.802  14.248  14.266
99474SOL    HW1  261   2.733  14.261  14.201
99474SOL    HW2  262   2.838  14.162  14.246
99475SOL     OW  263  12.304   6.894   6.123
99475SOL    HW1  264  12.258   6.907   6.206
99475SOL    HW2  265  12.250   6.938   6.058
99476SOL     OW  266   7.095   4.416   9.270
99476SOL    HW1  267   7.169   4.464   9.307
99476SOL    HW2  268   7.126   4.387   9.184
99477SOL     OW  269   8.794  11.968  12.939
99477SOL    HW1  270   8.772  11.878  12.918
99477SOL    HW2  271   8.841  12.000  12.862
99478SOL     OW  272   4.249   2.299  12.589
99478SOL    HW1  273   4.278   2.246  12.663
99478SOL    HW2  274   4.193   2.367  12.628
99479SOL     OW  275   2.364  12.223   1.286
99479SOL    HW1  276   2.298  12.262   1.344
99479SOL    HW2  277   2.442  12.276   1.300
99480SOL     OW  278   7.989   1.553   8.086
99480SOL    HW1  279   8.041   1.614   8.137
99480SOL    HW2  280   7.902   1.557   8.126
99481SOL     OW  281  12.912   8.603   4.711
99481SOL    HW1  282  12.871   8.555   4.640
99481SOL    HW2  283  12.896   8.550   4.789
99482SOL     OW  284   8.159  10.387   5.809
99482SOL    HW1  285   8.140  10.454   5.875
99482SOL    HW2  286   8.254  10.386   5.803
99483SOL     OW  287   0.667   5.179   3.149
99483SOL    HW1  288   0.744   5.183   3.205
99483SOL    HW2  289   0.593   5.194   3.208
99484SOL     OW  290   5.627   5.049  13.774
99484SOL    HW1  291   5.644   5.063  13.681
99484SOL    HW2  292   5.539   5.011  13.777
99485SOL     OW  293   9.595   3.642  10.980
99485SOL    HW1  294   9.609   3.733  11.003
99485SOL    HW2  295   9.505   3.624  11.007
99486SOL     OW  296   1.103   6.768  11.860
99486SOL    HW1  297   1.018   6.740  11.894
99486SOL    HW2  298   1.157   6.689  11.863
99487SOL     OW  299  13.456   0.682   0.798
99487SOL    HW1  300  13.465   0.710   0.889
99487SOL    HW2  301  13.545   0.686   0.763
99488SOL     OW  302   9.588  13.148   5.187
99488SOL    HW1  303   9.589  13.120   5.278
99488SOL    HW2  304   9.681  13.157   5.163
99489SOL     OW  305  12.600   3.475   8.596
99489SOL    HW1  306  12.615   3.466   8.690
99489SOL    HW2  307  12.678   3.439   8.555
99490SOL     OW  308   7.311   6.246  11.664
99490SOL    HW1  309   7.397   6.234  11.703
99490SOL    HW2  310   7.329   6.267  11.572
99491SOL     OW  311   4.430   0.070   8.264
99491SOL    HW1  312   4.457   0.056   8.173
99491SOL    HW2  313   4.508   0.107   8.306
99492SOL     OW  314   2.476   2.716   4.221
99492SOL    HW1  315   2.449   2.630   4.252
99492SOL    HW2  316   2.438   2.724   4.133
99493SOL     OW  317   1.200  12.416   6.674
99493SOL    HW1  318   1.168  12.438   6.761
99493SOL    HW2  319   1.151  12.338   6.649
99494SOL     OW  320   4.590   5.966  12.701
99494SOL    HW1  321   4.563   5.995  12.788
99494SOL    HW2  322   4.599   6.047  12.651
99495SOL     OW  323   2.076  14.097  13.895
99495SOL    HW1  324   2.002  14.036  13.903
99495SOL    HW2  325   2.112  14.102  13.984
99496SOL     OW  326   7.498   3.618   4.977
99496SOL    HW1  327   7.567   3.683   4.969
99496SOL    HW2  328   7.463   3.608   4.889
99497SOL     OW  329  10.077   4.895   3.093
99497SOL    HW1  330  10.054   4.806   3.066
99497SOL    HW2  331  10.004   4.949   3.064
99498SOL     OW  332   3.014   8.180   5.174
99498SOL    HW1  333   3.075   8.229   5.229
99498SOL    HW2  334   3.008   8.094   5.215
99499SOL     OW  335  10.901  12.963  14.216
99499SOL    HW1  336  10.830  12.924  14.267
99499SOL    HW2  337  10.911  13.051  14.252
99500SOL     OW  338   5.137  13.093  12.374
99500SOL    HW1  339   5.091  13.030  12.430
99500SOL    HW2  340   5.230  13.077  12.391
99501SOL     OW  341  10.131   5.759  13.307
99501SOL    HW1  342  10.059   5.783  13.249
99501SOL    HW2  343  10.129   5.826  13.376
99502SOL     OW  344  12.375  13.443  11.107
99502SOL    HW1  345  12.352  13.512  11.169
99502SOL    HW2  346  12.371  13.486  11.022
99503SOL     OW  347   9.240   1.017  12.058
99503SOL    HW1  348   9.278   1.031  12.145
99503SOL    HW2  349   9.315   1.021  11.998
99504SOL     OW  350  12.139   0.502   9.260
99504SOL    HW1  351  12.157   0.440   9.330
99504SOL    HW2  352  12.061   0.550   9.289
99505SOL     OW  353   3.917  11.269   0.346
99505SOL    HW1  354   3.883  11.358   0.339
99505SOL    HW2  355   4.012  11.280   0.350
99506SOL     OW  356  11.665  10.021   2.521
99506SOL    HW1  357  11.637   9.932   2.541
99506SOL    HW2  358  11.660  10.026   2.426
99507SOL     OW  359   1.058  13.784   5.872
99507SOL    HW1  360   1.087  13.831   5.794
99507SOL    HW2  361   1.081  13.843   5.944
99508SOL     OW  362   4.732   3.703  14.054
99508SOL    HW1  363   4.825   3.683  14.052
99508SOL    HW2  364   4.708   3.718  13.963
99509SOL     OW  365   3.338   4.530   3.138
99509SOL    HW1  366   3.354   4.624   3.131
99509SOL    HW2  367   3.414   4.490   3.096
99510SOL     OW  368   8.698  11.203  14.802
99510SOL    HW1  369   8.709  11.137  14.734
99510SOL    HW2  370   8.635  11.165  14.863
99511SOL     OW  371  14.614   3.125   3.062
99511SOL    HW1  372  14.562   3.182   3.005
99511SOL    HW2  373  14.556   3.051   3.081
99512SOL     OW  374   5.430   1.925  12.154
99512SOL    HW1  375   5.422   2.013  12.188
99512SOL    HW2  376   5.342   1.888  12.161
99513SOL     OW  377   0.823   6.619  13.997
99513SOL    HW1  378   0.750   6.568  14.032
99513SOL    HW2  379   0.803   6.709  14.021
99514SOL     OW  380   3.919  12.225  11.509
99514SOL    HW1  381   3.959  12.173  11.439
99514SOL    HW2  382   3.826  12.201  11.508
99515SOL     OW  383   4.469   6.285   7.886
99515SOL    HW1  384   4.561   6.266   7.900
99515SOL    HW2  385   4.450   6.359   7.944
99516SOL     OW  386  14.641   1.365  12.371
99516SOL    HW1  387  14.602   1.391  12.454
99516SOL    HW2  388  14.652   1.448  12.323
99517SOL     OW  389   8.844   1.452   3.098
99517SOL    HW1  390   8.847   1.376   3.156
99517SOL    HW2  391   8.779   1.510   3.139
99518SOL     OW  392   9.194   8.579   5.653
99518SOL    HW1  393   9.187   8.669   5.683
99518SOL    HW2  394   9.107   8.541   5.669
99519SOL     OW  395   7.910   9.400  12.796
99519SOL    HW1  396   7.924   9.308  12.818
99519SOL    HW2  397   7.994   9.443  12.813
99520SOL     OW  398   5.093  11.280  12.309
99520SOL    HW1  399   5.137  11.252  12.228
99520SOL    HW2  400   5.147  11.353  12.340
99521SOL     OW  401   0.420   7.135   6.726
99521SOL    HW1  402   0.422   7.039   6.727
99521SOL    HW2  403   0.353   7.158   6.791
99522SOL     OW  404   6.698   8.007  12.579
99522SOL    HW1  405   6.643   8.084  12.575
99522SOL    HW2  406   6.655   7.943  12.522
99523SOL     OW  407  12.915   3.515   4.721
99523SOL    HW1  408  12.898   3.598   4.765
99523SOL    HW2  409  13.006   3.520   4.694
99524SOL     OW  410   8.066  14.232   3.769
99524SOL    HW1  411   7.991  14.284   3.738
99524SOL    HW2  412   8.026  14.165   3.824
99525SOL     OW  413   9.786   1.333  12.259
99525SOL    HW1  414   9.803   1.357  12.350
99525SOL    HW2  415   9.838   1.254  12.245
99526SOL     OW  416   8.732  11.429   3.517
99526SOL    HW1  417   8.669  11.412   3.587
99526SOL    HW2  418   8.679  11.461   3.444
99527SOL     OW  419  12.007   0.243   6.937
99527SOL    HW1  420  11.986   0.264   6.846
99527SOL    HW2  421  12.086   0.189   6.932
99528SOL     OW  422  12.804   4.050   9.296
99528SOL    HW1  423  12.818   4.013   9.208
99528SOL    HW2  424  12.870   4.118   9.304
99529SOL     OW  425  13.869   4.925  14.253
99529SOL    HW1  426  13.934   4.855  14.259
99529SOL    HW2  427  13.785   4.881  14.270
99530SOL     OW  428   1.443   6.174   6.834
99530SOL    HW1  429   1.364   6.180   6.888
99530SOL    HW2  430   1.443   6.255   6.783
99531SOL     OW  431  14.516   5.855  14.545
99531SOL    HW1  432  14.607   5.831  14.567
99531SOL    HW2  433  14.524   5.938  14.499
99532SOL     OW  434  14.121   3.333  10.007
99532SOL    HW1  435  14.202   3.383  10.017
99532SOL    HW2  436  14.126   3.296   9.919
99533SOL     OW  437   6.838   8.224   2.950
99533SOL    HW1  438   6.867   8.142   2.909
99533SOL    HW2  439   6.905   8.243   3.015
99534SOL     OW  440   0.902   2.730   5.812
99534SOL    HW1  441   0.993   2.715   5.784
99534SOL    HW2  442   0.871   2.801   5.755
99535SOL     OW  443   8.301   0.437   1.372
99535SOL    HW1  444   8.358   0.438   1.449
99535SOL    HW2  445   8.221   0.481   1.401
99536SOL     OW  446  10.478   8.110   1.415
99536SOL    HW1  447  10.512   8.181   1.360
99536SOL    HW2  448  10.496   8.140   1.505
99537SOL     OW  449   4.334  12.139   7.908
99537SOL    HW1  450   4.400  12.200   7.943
99537SOL    HW2  451   4.255  12.191   7.899
99538SOL     OW  452  14.793   5.746   1.727
99538SOL    HW1  453  14.713   5.762   1.677
99538SOL    HW2  454  14.844   5.826   1.718
99539SOL     OW  455  12.220   1.879  11.543
99539SOL    HW1  456  12.301   1.849  11.502
99539SOL    HW2  457  12.152   1.825  11.504
99540SOL     OW  458   7.389   0.660   3.246
99540SOL    HW1  459   7.465   0.688   3.197
99540SOL    HW2  460   7.353   0.740   3.283
99541SOL     OW  461  13.848   1.838  12.046
99541SOL    HW1  462  13.855   1.752  12.087
99541SOL    HW2  463  13.935   1.853  12.008
99542SOL     OW  464   5.143   0.237   1.702
99542SOL    HW1  465   5.108   0.193   1.625
99542SOL    HW2  466   5.124   0.177   1.775
99543SOL     OW  467   4.687  11.267   8.275
99543SOL    HW1  468   4.684  11.190   8.218
99543SOL    HW2  469   4.624  11.248   8.345
99544SOL     OW  470  14.133   0.608  10.169
99544SOL    HW1  471  14.124   0.698  10.137
99544SOL    HW2  472  14.226   0.588  10.158
99545SOL     OW  473  10.569  14.096   3.387
99545SOL    HW1  474  10.551  14.142   3.305
99545SOL    HW2  475  10.533  14.008   3.374
99546SOL     OW  476   1.654   9.062  13.933
99546SOL    HW1  477   1.602   9.143  13.928
99546SOL    HW2  478   1.588   8.992  13.940
99547SOL     OW  479   9.190   2.636   4.616
99547SOL    HW1  480   9.132   2.709   4.597
99547SOL    HW2  481   9.131   2.561   4.629
99548SOL     OW  482   8.345  10.699   6.556
99548SOL    HW1  483   8.284  10.663   6.492
99548SOL    HW2  484   8.420  10.728   6.504
99549SOL     OW  485  14.053   2.376  10.395
99549SOL    HW1  486  13.985   2.338  10.451
99549SOL    HW2  487  14.028   2.468  10.385
99550SOL     OW  488   5.998  13.514   9.710
99550SOL    HW1  489   5.940  13.473   9.774
99550SOL    HW2  490   6.081  13.468   9.720
99551SOL     OW  491   4.413  11.927   9.511
99551SOL    HW1  492   4.381  11.841   9.537
99551SOL    HW2  493   4.434  11.971   9.594
99552SOL     OW  494   5.982  14.637   7.877
99552SOL    HW1  495   5.964  14.672   7.964
99552SOL    HW2  496   6.001  14.714   7.823
99553SOL     OW  497   2.714  10.291   2.740
99553SOL    HW1  498   2.643  10.337   2.785
99553SOL    HW2  499   2.709  10.322   2.650
99554SOL     OW  500   4.657   2.951   0.007
99554SOL    HW1  501   4.701   2.902  14.817
99554SOL    HW2  502   4.564   2.932  14.874
99555SOL     OW  503  10.169   0.959   7.792
99555SOL    HW1  504  10.085   1.001   7.811
99555SOL    HW2  505  10.147   0.889   7.731
99556SOL     OW  506   9.998   7.258  10.910
99556SOL    HW1  507   9.995   7.169  10.946
99556SOL    HW2  508   9.982   7.315  10.985
99557SOL     OW  509   5.870   3.330   3.494
99557SOL    HW1  510   5.870   3.413   3.541
99557SOL    HW2  511   5.782   3.323   3.458
99558SOL     OW  512   6.281  14.813   4.153
99558SOL    HW1  513   6.189  14.818   4.128
99558SOL    HW2  514   6.285  14.742   4.217
99559SOL     OW  515  12.400  11.515   5.396
99559SOL    HW1  516  12.323  11.572   5.402
99559SOL    HW2  517  12.454  11.539   5.472
99560SOL     OW  518   6.880   4.205   3.705
99560SOL    HW1  519   6.871   4.204   3.610
99560SOL    HW2  520   6.790   4.191   3.737
99561SOL     OW  521   0.018   5.104   9.801
99561SOL    HW1  522  14.859   5.129   9.885
99561SOL    HW2  523   0.026   5.009   9.805
99562SOL     OW  524   0.005   0.275  14.337
99562SOL    HW1  525   0.010   0.179  14.331
99562SOL    HW2  526   0.090   0.305  14.305
99563SOL     OW  527   8.045   6.801   6.457
99563SOL    HW1  528   8.044   6.711   6.427
99563SOL    HW2  529   7.961   6.837   6.428
99564SOL     OW  530   9.613   2.900   5.982
99564SOL    HW1  531   9.533   2.850   6.001
99564SOL    HW2  532   9.582   2.977   5.934
99565SOL     OW  533   7.367   6.354   8.913
99565SOL    HW1  534   7.337   6.310   8.834
99565SOL    HW2  535   7.327   6.304   8.985
99566SOL     OW  536  10.803   9.590   1.725
99566SOL    HW1  537  10.819   9.682   1.747
99566SOL    HW2  538  10.719   9.592   1.679
99567SOL     OW  539   1.324   5.582   6.143
99567SOL    HW1  540   1.322   5.495   6.103
99567SOL    HW2  541   1.253   5.580   6.208
99568SOL     OW  542   2.753   4.667   2.331
99568SOL    HW1  543   2.730   4.711   2.413
99568SOL    HW2  544   2.741   4.734   2.264
99569SOL     OW  545  10.380  12.900   0.921
99569SOL    HW1  546  10.458  12.862   0.962
99569SOL    HW2  547  10.340  12.827   0.873
99570SOL     OW  548   2.672   7.968   5.308
99570SOL    HW1  549   2.671   8.057   5.275
99570SOL    HW2  550   2.623   7.917   5.243
99571SOL     OW  551   8.070   6.556   6.827
99571SOL    HW1  552   8.039   6.646   6.822
99571SOL    HW2  553   8.134   6.556   6.899
99572SOL     OW  554   1.639  13.978   1.872
99572SOL    HW1  555   1.673  13.953   1.957
99572SOL    HW2  556   1.638  13.896   1.822
99573SOL     OW  557   7.629  13.228  10.330
99573SOL    HW1  558   7.693  13.158  10.314
99573SOL    HW2  559   7.642  13.251  10.422
99574SOL     OW  560   4.609  13.222  12.259
99574SOL    HW1  561   4.664  13.278  12.313
99574SOL    HW2  562   4.591  13.273  12.181
99575SOL     OW  563  11.332  10.636   8.645
99575SOL    HW1  564  11.247  10.601   8.617
99575SOL    HW2  565  11.333  10.623   8.740
99576SOL     OW  566  14.241  10.197  11.217
99576SOL    HW1  567  14.168  10.151  11.175
99576SOL    HW2  568  14.262  10.143  11.294
99577SOL     OW  569   6.191  12.533  13.477
99577SOL    HW1  570   6.236  12.584  13.545
99577SOL    HW2  571   6.233  12.559  13.395
99578SOL     OW  572   5.269   6.892   8.807
99578SOL    HW1  573   5.264   6.797   8.821
99578SOL    HW2  574   5.198   6.911   8.746
99579SOL     OW  575  10.474   2.744   9.355
99579SOL    HW1  576  10.512   2.832   9.361
99579SOL    HW2  577  10.526   2.699   9.289
99580SOL     OW  578  14.250   7.679   3.903
99580SOL    HW1  579  14.329   7.702   3.855
99580SOL    HW2  580  14.269   7.593   3.940
99581SOL     OW  581   4.734   7.867  11.257
99581SOL    HW1  582   4.748   7.794  11.317
99581SOL    HW2  583   4.662   7.916  11.295
99582SOL     OW  584   4.109   1.940   3.112
99582SOL    HW1  585   4.059   1.878   3.166
99582SOL    HW2  586   4.132   1.891   3.033
99583SOL     OW  587   4.683   9.459  10.102
99583SOL    HW1  588   4.603   9.511  10.099
99583SOL    HW2  589   4.655   9.374  10.136
99584SOL     OW  590   2.762  14.846   5.495
99584SOL    HW1  591   2.689  14.837   5.557
99584SOL    HW2  592   2.823  14.776   5.520
99585SOL     OW  593   1.609   0.118   4.185
99585SOL    HW1  594   1.643   0.070   4.261
99585SOL    HW2  595   1.609   0.053   4.115
99586SOL     OW  596  12.454   8.045   8.997
99586SOL    HW1  597  12.448   8.140   9.006
99586SOL    HW2  598  12.540   8.030   8.959
99587SOL     OW  599  14.710   5.159   2.620
99587SOL    HW1  600  14.768   5.082   2.618
99587SOL    HW2  601  14.683   5.166   2.712
99588SOL     OW  602   8.893   9.656   4.100
99588SOL    HW1  603   8.846   9.700   4.029
99588SOL    HW2  604   8.825   9.606   4.146
99589SOL     OW  605   9.246   0.020   1.014
99589SOL    HW1  606   9.203  14.821   0.978
99589SOL    HW2  607   9.303  14.866   1.084
99590SOL     OW  608  11.074   9.805  10.934
99590SOL    HW1  609  11.133   9.843  10.869
99590SOL    HW2  610  11.116   9.722  10.958
99591SOL     OW  611   2.774  12.118   7.522
99591SOL    HW1  612   2.791  12.049   7.459
99591SOL    HW2  613   2.695  12.162   7.490
99592SOL     OW  614   4.447  11.951   0.572
99592SOL    HW1  615   4.386  11.890   0.614
99592SOL    HW2  616   4.474  11.907   0.492
99593SOL     OW  617   6.104  11.075   3.611
99593SOL    HW1  618   6.112  11.123   3.694
99593SOL    HW2  619   6.011  11.054   3.605
99594SOL     OW  620  12.246  13.934  12.961
99594SOL    HW1  621  12.266  13.936  13.055
99594SOL    HW2  622  12.154  13.961  12.956
99595SOL     OW  623   0.859   0.867  12.843
99595SOL    HW1  624   0.822   0.825  12.766
99595SOL    HW2  625   0.847   0.960  12.829
99596SOL     OW  626   8.258  13.448  10.778
99596SOL    HW1  627   8.200  13.391  10.828
99596SOL    HW2  628   8.345  13.431  10.814
99597SOL     OW  629   7.592   4.217   8.028
99597SOL    HW1  630   7.585   4.311   8.012
99597SOL    HW2  631   7.630   4.210   8.116
99598SOL     OW  632   8.219   9.027   1.851
99598SOL    HW1  633   8.161   9.018   1.775
99598SOL    HW2  634   8.295   8.974   1.830
99599SOL     OW  635  14.364   7.086  13.075
99599SOL    HW1  636  14.396   7.095  12.985
99599SOL    HW2  637  14.444   7.083  13.128
99600SOL     OW  638   4.708   9.478   2.090
99600SOL    HW1  639   4.656   9.557   2.076
99600SOL    HW2  640   4.655   9.423   2.148
99601SOL     OW  641  12.989   6.530   4.116
99601SOL    HW1  642  12.906   6.492   4.089
99601SOL    HW2  643  12.971   6.622   4.132
99602SOL     OW  644  12.632   2.284  11.102
99602SOL    HW1  645  12.577   2.319  11.032
99602SOL    HW2  646  12.631   2.189  11.087
99603SOL     OW  647   5.137   4.691  10.689
99603SOL    HW1  648   5.137   4.698  10.593
99603SOL    HW2  649   5.210   4.745  10.718
99604SOL     OW  650   2.989  13.711   7.497
99604SOL    HW1  651   2.908  13.711   7.549
99604SOL    HW2  652   2.963  13.675   7.412
99605SOL     OW  653  12.661   8.960  12.901
99605SOL    HW1  654  12.704   9.042  12.878
99605SOL    HW2  655  12.583   8.957  12.845
99606SOL     OW  656   3.950  11.742   4.830
99606SOL    HW1  657   4.007  11.818   4.843
99606SOL    HW2  658   3.891  11.744   4.905
99607SOL     OW  659   6.842  13.059  12.195
99607SOL    HW1  660   6.764  13.005  12.208
99607SOL    HW2  661   6.878  13.029  12.112
99608SOL     OW  662   6.478   6.240   9.839
99608SOL    HW1  663   6.389   6.233   9.874
99608SOL    HW2  664   6.534   6.238   9.917
99609SOL     OW  665   1.350   0.768  13.737
99609SOL    HW1  666   1.437   0.780  13.698
99609SOL    HW2  667   1.290   0.766  13.663
99610SOL     OW  668   1.765  11.296   6.725
99610SOL    HW1  669   1.739  11.358   6.793
99610SOL    HW2  670   1.838  11.338   6.681
99611SOL     OW  671   6.698   0.064   6.599
99611SOL    HW1  672   6.665   0.017   6.675
99611SOL    HW2  673   6.688   0.003   6.526
99612SOL     OW  674   5.852   1.757  13.609
99612SOL    HW1  675   5.855   1.677  13.557
99612SOL    HW2  676   5.905   1.738  13.687
99613SOL     OW  677   0.568  12.572   9.737
99613SOL    HW1  678   0.622  12.648   9.760
99613SOL    HW2  679   0.585  12.557   9.644
99614SOL     OW  680  13.009   7.584  14.728
99614SOL    HW1  681  13.052   7.649  14.783
99614SOL    HW2  682  12.962   7.528  14.790
99615SOL     OW  683   7.278  12.926   1.676
99615SOL    HW1  684   7.284  12.838   1.640
99615SOL    HW2  685   7.221  12.916   1.753
99616SOL     OW  686  11.839   9.219  14.655
99616SOL    HW1  687  11.753   9.239  14.692
99616SOL    HW2  688  11.867   9.300  14.614
99617SOL     OW  689   5.053  13.974  14.646
99617SOL    HW1  690   5.066  13.903  14.709
99617SOL    HW2  691   5.051  14.053  14.701
99618SOL     OW  692  13.774   5.256   6.669
99618SOL    HW1  693  13.689   5.299   6.671
99618SOL    HW2  694  13.837   5.327   6.656
99619SOL     OW  695   4.568   4.309  14.536
99619SOL    HW1  696   4.615   4.316  14.452
99619SOL    HW2  697   4.488   4.262  14.514
99620SOL     OW  698   4.274   1.688   5.182
99620SOL    HW1  699   4.256   1.654   5.095
99620SOL    HW2  700   4.368   1.704   5.183
99621SOL     OW  701   2.945   5.758   3.795
99621SOL    HW1  702   2.908   5.800   3.718
99621SOL    HW2  703   3.033   5.731   3.768
99622SOL     OW  704   5.351  13.925   7.168
99622SOL    HW1  705   5.266  13.924   7.212
99622SOL    HW2  706   5.334  13.968   7.084
99623SOL     OW  707   6.418   1.730  12.552
99623SOL    HW1  708   6.353   1.671  12.589
99623SOL    HW2  709   6.495   1.675  12.536
99624SOL     OW  710   2.287  13.440   5.846
99624SOL    HW1  711   2.316  13.355   5.814
99624SOL    HW2  712   2.192  13.432   5.856
99625SOL     OW  713  14.455  14.421  13.635
99625SOL    HW1  714  14.477  14.510  13.608
99625SOL    HW2  715  14.533  14.370  13.615
99626SOL     OW  716   5.728   6.640   5.627
99626SOL    HW1  717   5.800   6.615   5.684
99626SOL    HW2  718   5.649   6.625   5.679
99627SOL     OW  719   8.805   6.302  11.180
99627SOL    HW1  720   8.829   6.236  11.245
99627SOL    HW2  721   8.867   6.373  11.193
99628SOL     OW  722  13.628   3.731  10.282
99628SOL    HW1  723  13.632   3.798  10.213
99628SOL    HW2  724  13.720   3.704  10.294
99629SOL     OW  725  10.894  12.640   6.730
99629SOL    HW1  726  10.868  12.563   6.781
99629SOL    HW2  727  10.911  12.707   6.796
99630SOL     OW  728   6.105   1.075  11.757
99630SOL    HW1  729   6.060   1.118  11.684
99630SOL    HW2  730   6.170   1.018  11.715
99631SOL     OW  731   8.935   1.265   8.824
99631SOL    HW1  732   8.888   1.182   8.834
99631SOL    HW2  733   9.028   1.241   8.832
99632SOL     OW  734   1.192   9.145  14.839
99632SOL    HW1  735   1.112   9.124  14.791
99632SOL    HW2  736   1.226   9.060  14.868
99633SOL     OW  737  10.703  10.721  10.420
99633SOL    HW1  738  10.661  10.729  10.335
99633SOL    HW2  739  10.730  10.811  10.441
99634SOL     OW  740   5.363   5.039  12.863
99634SOL    HW1  741   5.432   4.989  12.906
99634SOL    HW2  742   5.405   5.120  12.836
99635SOL     OW  743   6.567  12.968   8.767
99635SOL    HW1  744   6.597  12.960   8.858
99635SOL    HW2  745   6.511  12.891   8.754
99636SOL     OW  746   8.410   8.109  13.687
99636SOL    HW1  747   8.506   8.111  13.684
99636SOL    HW2  748   8.385   8.048  13.617
99637SOL     OW  749   0.951   5.775   2.535
99637SOL    HW1  750   1.044   5.786   2.515
99637SOL    HW2  751   0.937   5.681   2.533
99638SOL     OW  752   7.142   0.013   3.174
99638SOL    HW1  753   7.056   0.011   3.133
99638SOL    HW2  754   7.197   0.061   3.112
99639SOL     OW  755   7.490   2.989   9.212
99639SOL    HW1  756   7.434   2.919   9.243
99639SOL    HW2  757   7.521   3.033   9.291
99640SOL     OW  758  13.205  13.217   3.755
99640SOL    HW1  759  13.185  13.310   3.759
99640SOL    HW2  760  13.295  13.213   3.723
99641SOL     OW  761   1.182  10.462  12.792
99641SOL    HW1  762   1.250  10.489  12.854
99641SOL    HW2  763   1.175  10.535  12.731
99642SOL     OW  764  12.918  13.065  13.281
99642SOL    HW1  765  12.988  13.057  13.346
99642SOL    HW2  766  12.880  13.151  13.297
99643SOL     OW  767   1.579   0.607   6.339
99643SOL    HW1  768   1.517   0.552   6.387
99643SOL    HW2  769   1.656   0.612   6.395
99644SOL     OW  770   0.488   9.214  14.250
99644SOL    HW1  771   0.540   9.135  14.266
99644SOL    HW2  772   0.406   9.199  14.298
99645SOL     OW  773  10.527  14.112  10.770
99645SOL    HW1  774  10.502  14.186  10.825
99645SOL    HW2  775  10.475  14.124  10.690
99646SOL     OW  776   9.327  10.804   7.648
99646SOL    HW1  777   9.331  10.868   7.577
99646SOL    HW2  778   9.394  10.740   7.627
99647SOL     OW  779   4.447  12.097   2.932
99647SOL    HW1  780   4.411  12.169   2.881
99647SOL    HW2  781   4.471  12.136   3.016
99648SOL     OW  782  10.440   4.381   7.201
99648SOL    HW1  783  10.508   4.315   7.199
99648SOL    HW2  784  10.463   4.442   7.130
99649SOL     OW  785   9.323  12.784   9.541
99649SOL    HW1  786   9.327  12.695   9.507
99649SOL    HW2  787   9.231  12.809   9.532
99650SOL     OW  788  12.208  13.168  13.880
99650SOL    HW1  789  12.139  13.108  13.853
99650SOL    HW2  790  12.238  13.210  13.799
99651SOL     OW  791   6.652   6.927  12.857
99651SOL    HW1  792   6.640   6.908  12.764
99651SOL    HW2  793   6.591   6.998  12.875
99652SOL     OW  794   5.223  10.094  14.230
99652SOL    HW1  795   5.142  10.098  14.178
99652SOL    HW2  796   5.219  10.171  14.287
99653SOL     OW  797  12.357  10.465   2.210
99653SOL    HW1  798  12.284  10.419   2.169
99653SOL    HW2  799  12.379  10.412   2.286
99654SOL     OW  800  10.039  13.043   1.125
99654SOL    HW1  801  10.133  13.049   1.143
99654SOL    HW2  802   9.998  13.098   1.192
99655SOL     OW  803  10.152   5.375  10.343
99655SOL    HW1  804  10.069   5.406  10.306
99655SOL    HW2  805  10.218   5.402  10.280
99656SOL     OW  806   1.587   6.027   7.033
99656SOL    HW1  807   1.560   6.099   6.976
99656SOL    HW2  808   1.578   5.948   6.978
99657SOL     OW  809  10.366   9.554   6.058
99657SOL    HW1  810  10.449   9.563   6.104
99657SOL    HW2  811  10.379   9.601   5.976
99658SOL     OW  812  10.677   4.342   8.924
99658SOL    HW1  813  10.693   4.250   8.945
99658SOL    HW2  814  10.751   4.389   8.963
99659SOL     OW  815   6.990  13.123   7.341
99659SOL    HW1  816   7.024  13.034   7.343
99659SOL    HW2  817   6.899  13.114   7.313
99660SOL     OW  818   6.817  13.276  11.890
99660SOL    HW1  819   6.727  13.289  11.920
99660SOL    HW2  820   6.817  13.309  11.800
99661SOL     OW  821   3.921   4.729  13.687
99661SOL    HW1  822   3.939   4.802  13.746
99661SOL    HW2  823   3.995   4.728  13.626
99662SOL     OW  824   5.218   9.578   8.418
99662SOL    HW1  825   5.197   9.574   8.325
99662SOL    HW2  826   5.133   9.579   8.462
99663SOL     OW  827   8.013  14.235  14.752
99663SOL    HW1  828   7.953  14.269  14.819
99663SOL    HW2  829   8.030  14.310  14.695
99664SOL     OW  830  14.517  13.134   4.682
99664SOL    HW1  831  14.569  13.168   4.755
99664SOL    HW2  832  14.509  13.208   4.621
99665SOL     OW  833  11.068  12.079  13.869
99665SOL    HW1  834  11.136  12.028  13.825
99665SOL    HW2  835  11.016  12.015  13.917
99666SOL     OW  836   1.363  11.074   4.303
99666SOL    HW1  837   1.393  11.146   4.248
99666SOL    HW2  838   1.415  11.081   4.383
99667SOL     OW  839   0.081  12.378   4.111
99667SOL    HW1  840   0.043  12.405   4.027
99667SOL    HW2  841   0.175  12.386   4.099
99668SOL     OW  842   6.826   6.087   8.862
99668SOL    HW1  843   6.778   6.010   8.891
99668SOL    HW2  844   6.822   6.148   8.935
99669SOL     OW  845   3.896   4.399   3.229
99669SOL    HW1  846   3.965   4.453   3.191
99669SOL    HW2  847   3.878   4.332   3.163
99670SOL     OW  848  11.683  12.376  10.853
99670SOL    HW1  849  11.588  12.377  10.864
99670SOL    HW2  850  11.713  12.308  10.913
99671SOL     OW  851   8.732  10.115   4.652
99671SOL    HW1  852   8.729  10.165   4.733
99671SOL    HW2  853   8.654  10.060   4.655
99672SOL     OW  854   3.262   5.936   0.237
99672SOL    HW1  855   3.170   5.923   0.261
99672SOL    HW2  856   3.309   5.921   0.319
99673SOL     OW  857   1.400   8.364   0.299
99673SOL    HW1  858   1.462   8.333   0.365
99673SOL    HW2  859   1.368   8.284   0.256
99674SOL     OW  860   7.404  10.734   1.109
99674SOL    HW1  861   7.480  10.761   1.160
99674SOL    HW2  862   7.380  10.812   1.059
99675SOL     OW  863   2.922  11.475   1.390
99675SOL    HW1  864   2.867  11.398   1.400
99675SOL    HW2  865   2.891  11.516   1.309
99676SOL     OW  866  11.212  13.505  11.917
99676SOL    HW1  867  11.192  13.550  11.835
99676SOL    HW2  868  11.192  13.569  11.986
99677SOL     OW  869  10.297   9.708   7.390
99677SOL    HW1  870  10.313   9.640   7.325
99677SOL    HW2  871  10.203   9.703   7.408
99678SOL     OW  872  11.407   8.772   4.568
99678SOL    HW1  873  11.476   8.708   4.585
99678SOL    HW2  874  11.439   8.853   4.608
99679SOL     OW  875   8.028  12.752   4.775
99679SOL    HW1  876   8.029  12.828   4.717
99679SOL    HW2  877   7.976  12.687   4.728
99680SOL     OW  878   0.309  13.319  10.241
99680SOL    HW1  879   0.336  13.322  10.149
99680SOL    HW2  880   0.360  13.247  10.278
99681SOL     OW  881   9.687  10.962  12.721
99681SOL    HW1  882   9.630  10.932  12.650
99681SOL    HW2  883   9.720  10.882  12.761
99682SOL     OW  884  12.869   3.757   7.328
99682SOL    HW1  885  12.908   3.670   7.319
99682SOL    HW2  886  12.843   3.762   7.420
99683SOL     OW  887   3.577   9.357   7.535
99683SOL    HW1  888   3.512   9.421   7.504
99683SOL    HW2  889   3.543   9.273   7.505
99684SOL     OW  890   1.785  13.813   4.992
99684SOL    HW1  891   1.813  13.770   5.072
99684SOL    HW2  892   1.727  13.884   5.021
99685SOL     OW  893  13.726   2.225  12.853
99685SOL    HW1  894  13.720   2.233  12.758
99685SOL    HW2  895  13.818   2.240  12.873
99686SOL     OW  896   2.272  13.990  12.607
99686SOL    HW1  897   2.203  13.941  12.562
99686SOL    HW2  898   2.267  13.961  12.698
99687SOL     OW  899  10.380   7.700  12.849
99687SOL    HW1  900  10.420   7.649  12.919
99687SOL    HW2  901  10.423   7.785  12.854
99688SOL     OW  902   5.828   8.669   8.641
99688SOL    HW1  903   5.858   8.691   8.729
99688SOL    HW2  904   5.761   8.602   8.654
99689SOL     OW  905   4.208  11.649  10.488
99689SOL    HW1  906   4.238  11.580  10.547
99689SOL    HW2  907   4.276  11.717  10.494
99690SOL     OW  908   5.735   0.139  14.797
99690SOL    HW1  909   5.768   0.215  14.749
99690SOL    HW2  910   5.689   0.175  14.873
99691SOL     OW  911   8.787   4.592  10.789
99691SOL    HW1  912   8.778   4.580  10.695
99691SOL    HW2  913   8.876   4.561  10.808
99692SOL     OW  914  13.439   0.480   4.278
99692SOL    HW1  915  13.471   0.483   4.369
99692SOL    HW2  916  13.475   0.399   4.243
99693SOL     OW  917   8.559  10.826   4.279
99693SOL    HW1  918   8.621  10.866   4.341
99693SOL    HW2  919   8.491  10.893   4.267
99694SOL     OW  920   7.763  14.346  11.908
99694SOL    HW1  921   7.845  14.384  11.941
99694SOL    HW2  922   7.789  14.290  11.835
99695SOL     OW  923   2.852   7.208  14.537
99695SOL    HW1  924   2.819   7.296  14.519
99695SOL    HW2  925   2.797   7.151  14.483
99696SOL     OW  926  13.772   7.309  11.442
99696SOL    HW1  927  13.846   7.347  11.395
99696SOL    HW2  928  13.783   7.338  11.533
99697SOL     OW  929   3.232  13.004   9.230
99697SOL    HW1  930   3.155  12.961   9.194
99697SOL    HW2  931   3.213  13.012   9.324
99698SOL     OW  932   9.013   4.890   9.749
99698SOL    HW1  933   8.964   4.925   9.674
99698SOL    HW2  934   8.947   4.853   9.807
99699SOL     OW  935  13.339   0.286   2.802
99699SOL    HW1  936  13.301   0.229   2.735
99699SOL    HW2  937  13.391   0.350   2.753
99700SOL     OW  938  13.866  11.010   5.280
99700SOL    HW1  939  13.941  11.020   5.338
99700SOL    HW2  940  13.897  11.040   5.194
99701SOL     OW  941   2.383   2.679   5.518
99701SOL    HW1  942   2.319   2.615   5.549
99701SOL    HW2  943   2.455   2.627   5.482
99702SOL     OW  944   6.344  11.393   0.379
99702SOL    HW1  945   6.278  11.346   0.430
99702SOL    HW2  946   6.423  11.338   0.385
99703SOL     OW  947   2.055   8.797   8.296
99703SOL    HW1  948   1.988   8.740   8.332
99703SOL    HW2  949   2.018   8.830   8.214
99704SOL     OW  950   4.009   7.591   3.827
99704SOL    HW1  951   3.941   7.538   3.784
99704SOL    HW2  952   4.086   7.580   3.772
99705SOL     OW  953   0.112   0.903   8.294
99705SOL    HW1  954   0.206   0.909   8.277
99705SOL    HW2  955   0.074   0.883   8.209
99706SOL     OW  956   5.170  11.743   5.628
99706SOL    HW1  957   5.142  11.697   5.708
99706SOL    HW2  958   5.207  11.675   5.572
99707SOL     OW  959   8.409   7.536   2.235
99707SOL    HW1  960   8.316   7.553   2.225
99707SOL    HW2  961   8.436   7.500   2.151
99708SOL     OW  962   4.037   5.433   5.261
99708SOL    HW1  963   3.952   5.390   5.277
99708SOL    HW2  964   4.051   5.487   5.339
99709SOL     OW  965   1.177   9.602  11.593
99709SOL    HW1  966   1.162   9.516  11.633
99709SOL    HW2  967   1.272   9.608  11.583
99710SOL     OW  968  12.088   2.833   2.674
99710SOL    HW1  969  12.029   2.760   2.653
99710SOL    HW2  970  12.038   2.911   2.653
99711SOL     OW  971   4.127   6.892  13.284
99711SOL    HW1  972   4.166   6.956  13.224
99711SOL    HW2  973   4.177   6.811  13.268
99712SOL     OW  974   8.265   5.501   9.545
99712SOL    HW1  975   8.247   5.590   9.517
99712SOL    HW2  976   8.194   5.448   9.508
99713SOL     OW  977   4.465   5.673   7.507
99713SOL    HW1  978   4.552   5.675   7.546
99713SOL    HW2  979   4.476   5.714   7.421
99714SOL     OW  980  14.329   1.357  13.470
99714SOL    HW1  981  14.409   1.359  13.522
99714SOL    HW2  982  14.343   1.287  13.406
99715SOL     OW  983   6.458   1.528   4.193
99715SOL    HW1  984   6.423   1.592   4.254
99715SOL    HW2  985   6.410   1.543   4.111
99716SOL     OW  986   6.124   0.399   5.574
99716SOL    HW1  987   6.209   0.411   5.533
99716SOL    HW2  988   6.069   0.467   5.536
99717SOL     OW  989   1.531   5.967   6.646
99717SOL    HW1  990   1.517   6.046   6.697
99717SOL    HW2  991   1.613   5.984   6.599
99718SOL     OW  992   2.760   2.766  13.696
99718SOL    HW1  993   2.737   2.727  13.611
99718SOL    HW2  994   2.698   2.838  13.706
99719SOL     OW  995   9.779   3.401   2.337
99719SOL    HW1  996   9.807   3.392   2.428
99719SOL    HW2  997   9.809   3.489   2.312
99720SOL     OW  998  10.730   6.073   9.261
99720SOL    HW1  999  10.644   6.044   9.292
99720SOL    HW2 1000  10.741   6.030   9.176
99721SOL     OW 1001   8.745   6.832   8.566
99721SOL    HW1 1002   8.763   6.783   8.486
99721SOL    HW2 1003   8.672   6.786   8.606
99722SOL     OW 1004  12.277   3.102   8.729
99722SOL    HW1 1005  12.295   3.019   8.684
99722SOL    HW2 1006  12.183   3.100   8.746
99723SOL     OW 1007   3.922   5.226  13.440
99723SOL    HW1 1008   3.902   5.174  13.518
99723SOL    HW2 1009   3.927   5.162  13.369
99724SOL     OW 1010  13.726   4.837  10.253
99724SOL    HW1 1011  13.670   4.761  10.269
99724SOL    HW2 1012  13.739   4.875  10.339
99725SOL     OW 1013  11.335  12.921   8.991
99725SOL    HW1 1014  11.331  12.834   8.952
99725SOL    HW2 1015  11.340  12.980   8.916
99726SOL     OW 1016   5.319   9.120   2.987
99726SOL    HW1 1017   5.401   9.108   2.939
99726SOL    HW2 1018   5.281   9.200   2.951
99727SOL     OW 1019   7.519   0.804   7.305
99727SOL    HW1 1020   7.525   0.875   7.240
99727SOL    HW2 1021   7.424   0.793   7.318
99728SOL     OW 1022   4.207   8.647   0.576
99728SOL    HW1 1023   4.122   8.607   0.593
99728SOL    HW2 1024   4.236   8.680   0.661
99729SOL     OW 1025  12.872  12.243   2.705
99729SOL    HW1 1026  12.918  12.304   2.649
99729SOL    HW2 1027  12.941  12.184   2.738
99730SOL     OW 1028  13.863   9.420   8.403
99730SOL    HW1 1029  13.859   9.377   8.489
99730SOL    HW2 1030  13.870   9.348   8.341
99731SOL     OW 1031   6.088   9.916   5.595
99731SOL    HW1 1032   6.019   9.852   5.611
99731SOL    HW2 1033   6.119   9.940   5.683
99732SOL     OW 1034   9.720   4.202  11.695
99732SOL    HW1 1035   9.636   4.180  11.735
99732SOL    HW2 1036   9.748   4.281  11.740
99733SOL     OW 1037  14.454  13.972  14.583
99733SOL    HW1 1038  14.539  13.928  14.581
99733SOL    HW2 1039  14.421  13.955  14.672
99734SOL     OW 1040  14.577  11.696  13.013
99734SOL    HW1 1041  14.627  11.737  13.083
99734SOL    HW2 1042  14.602  11.603  13.018
99735SOL     OW 1043   3.263   1.750   3.624
99735SOL    HW1 1044   3.354   1.775   3.642
99735SOL    HW2 1045   3.254   1.663   3.663
99736SOL     OW 1046   6.059   0.212  11.429
99736SOL    HW1 1047   6.002   0.143  11.464
99736SOL    HW2 1048   5.998   0.281  11.401
99737SOL     OW 1049   4.622  12.762  12.604
99737SOL    HW1 1050   4.630  12.847  12.562
99737SOL    HW2 1051   4.528  12.745  12.607
99738SOL     OW 1052  10.439   7.138   5.135
99738SOL    HW1 1053  10.349   7.106   5.139
99738SOL    HW2 1054  10.492   7.059   5.131
99739SOL     OW 1055  14.094   5.401   2.234
99739SOL    HW1 1056  14.006   5.370   2.256
99739SOL    HW2 1057  14.152   5.338   2.277
99740SOL     OW 1058   8.473  11.182  12.238
99740SOL    HW1 1059   8.401  11.196  12.176
99740SOL    HW2 1060   8.546  11.233  12.202
99741SOL     OW 1061  14.621   3.539   8.733
99741SOL    HW1 1062  14.707   3.496   8.733
99741SOL    HW2 1063  14.558   3.468   8.740
99742SOL     OW 1064  14.704   7.196   2.521
99742SOL    HW1 1065  14.671   7.201   2.610
99742SOL    HW2 1066  14.653   7.262   2.473
99743SOL     OW 1067   3.284   2.707   1.112
99743SOL    HW1 1068   3.283   2.679   1.020
99743SOL    HW2 1069   3.219   2.777   1.117
99744SOL     OW 1070   3.744  11.304   5.171
99744SOL    HW1 1071   3.754  11.370   5.239
99744SOL    HW2 1072   3.690  11.347   5.104
99745SOL     OW 1073  11.240  12.341  10.097
99745SOL    HW1 1074  11.322  12.291  10.094
99745SOL    HW2 1075  11.172  12.274  10.108
99746SOL     OW 1076   9.897  10.923   2.330
99746SOL    HW1 1077   9.929  11.000   2.283
99746SOL    HW2 1078   9.813  10.950   2.366
99747SOL     OW 1079   8.653   7.781   1.103
99747SOL    HW1 1080   8.652   7.853   1.166
99747SOL    HW2 1081   8.570   7.736   1.116
99748SOL     OW 1082   1.835   3.474   3.928
99748SOL    HW1 1083   1.878   3.416   3.866
99748SOL    HW2 1084   1.741   3.458   3.914
99749SOL     OW 1085   9.791   4.570   4.799
99749SOL    HW1 1086   9.818   4.546   4.887
99749SOL    HW2 1087   9.695   4.565   4.801
99750SOL     OW 1088  10.446   5.755   0.164
99750SOL    HW1 1089  10.423   5.666   0.190
99750SOL    HW2 1090  10.394   5.811   0.221
99751SOL     OW 1091   7.349   5.440   7.702
99751SOL    HW1 1092   7.371   5.394   7.783
99751SOL    HW2 1093   7.277   5.391   7.664
99752SOL     OW 1094  10.449   0.398   9.762
99752SOL    HW1 1095  10.428   0.345   9.685
99752SOL    HW2 1096  10.380   0.465   9.764
99753SOL     OW 1097   5.305  13.276  11.188
99753SOL    HW1 1098   5.296  13.369  11.209
99753SOL    HW2 1099   5.292  13.272  11.093
99754SOL     OW 1100   2.906   3.837   6.887
99754SOL    HW1 1101   2.934   3.850   6.796
99754SOL    HW2 1102   2.909   3.924   6.926
99755SOL     OW 1103   7.308   7.814   3.603
99755SOL    HW1 1104   7.403   7.822   3.615
99755SOL    HW2 1105   7.296   7.793   3.511
99756SOL     OW 1106  11.924  11.858   7.451
99756SOL    HW1 1107  11.952  11.779   7.497
99756SOL    HW2 1108  11.849  11.829   7.398
99757SOL     OW 1109  14.563   9.872   3.079
99757SOL    HW1 1110  14.643   9.819   3.077
99757SOL    HW2 1111  14.504   9.830   3.017
99758SOL     OW 1112   1.082   8.625   8.421
99758SOL    HW1 1113   1.030   8.670   8.354
99758SOL    HW2 1114   1.022   8.615   8.495
99759SOL     OW 1115   4.387   6.903   5.629
99759SOL    HW1 1116   4.358   6.862   5.710
99759SOL    HW2 1117   4.414   6.991   5.654
99760SOL     OW 1118   7.237   4.013  13.451
99760SOL    HW1 1119   7.290   4.068  13.509
99760SOL    HW2 1120   7.163   4.069  13.427
99761SOL     OW 1121   2.215   3.801  12.989
99761SOL    HW1 1122   2.246   3.735  13.051
99761SOL    HW2 1123   2.246   3.884  13.026
99762SOL     OW 1124   9.829   2.738   6.172
99762SOL    HW1 1125   9.769   2.670   6.141
99762SOL    HW2 1126   9.779   2.785   6.239
99763SOL     OW 1127   6.201  12.869   2.110
99763SOL    HW1 1128   6.252  12.794   2.080
99763SOL    HW2 1129   6.243  12.945   2.068
99764SOL     OW 1130  10.864   1.212   6.792
99764SOL    HW1 1131  10.940   1.264   6.768
99764SOL    HW2 1132  10.796   1.276   6.814
99765SOL     OW 1133   0.558   2.130  10.306
99765SOL    HW1 1134   0.629   2.161  10.249
99765SOL    HW2 1135   0.491   2.198  10.302
99766SOL     OW 1136   6.474   4.880   0.209
99766SOL    HW1 1137   6.397   4.878   0.266
99766SOL    HW2 1138   6.440   4.864   0.121
99767SOL     OW 1139   9.005  11.388   6.261
99767SOL    HW1 1140   9.085  11.390   6.314
99767SOL    HW2 1141   8.988  11.480   6.241
99768SOL     OW 1142   3.920   5.804   3.990
99768SOL    HW1 1143   3.894   5.865   4.058
99768SOL    HW2 1144   3.915   5.717   4.031
99769SOL     OW 1145  11.283  10.596  11.317
99769SOL    HW1 1146  11.318  10.547  11.392
99769SOL    HW2 1147  11.332  10.678  11.317
99770SOL     OW 1148   4.269   5.897   7.161
99770SOL    HW1 1149   4.265   5.955   7.237
99770SOL    HW2 1150   4.349   5.924   7.114
99771SOL     OW 1151   2.714  11.094   5.072
99771SOL    HW1 1152   2.751  11.083   4.985
99771SOL    HW2 1153   2.765  11.165   5.111
99772SOL     OW 1154  10.873   5.957   2.324
99772SOL    HW1 1155  10.886   5.930   2.233
99772SOL    HW2 1156  10.962   5.963   2.359
99773SOL     OW 1157  12.615   5.209   8.728
99773SOL    HW1 1158  12.663   5.135   8.691
99773SOL    HW2 1159  12.674   5.245   8.794
99774SOL     OW 1160  14.738   6.791   2.822
99774SOL    HW1 1161  14.682   6.714   2.829
99774SOL    HW2 1162  14.736   6.829   2.910
99775SOL     OW 1163   3.814   6.739  12.275
99775SOL    HW1 1164   3.845   6.807  12.215
99775SOL    HW2 1165   3.747   6.692  12.226
99776SOL     OW 1166   5.617  13.150   7.868
99776SOL    HW1 1167   5.532  13.192   7.880
99776SOL    HW2 1168   5.673  13.189   7.935
99777SOL     OW 1169   5.311   2.362   3.388
99777SOL    HW1 1170   5.362   2.316   3.454
99777SOL    HW2 1171   5.327   2.314   3.307
99778SOL     OW 1172  10.194   3.576   2.762
99778SOL    HW1 1173  10.255   3.532   2.703
99778SOL    HW2 1174  10.247   3.597   2.839
99779SOL     OW 1175   5.176   6.058   5.485
99779SOL    HW1 1176   5.099   6.050   5.542
99779SOL    HW2 1177   5.224   5.976   5.497
99780SOL     OW 1178  13.548   0.149   6.348
99780SOL    HW1 1179  13.597   0.092   6.407
99780SOL    HW2 1180  13.467   0.101   6.331
99781SOL     OW 1181  13.456   0.781   1.926
99781SOL    HW1 1182  13.429   0.690   1.920
99781SOL    HW2 1183  13.402   0.817   1.997
99782SOL     OW 1184   5.655   0.085   0.917
99782SOL    HW1 1185   5.611   0.009   0.880
99782SOL    HW2 1186   5.729   0.049   0.967
99783SOL     OW 1187   5.541   1.640   5.830
99783SOL    HW1 1188   5.505   1.613   5.915
99783SOL    HW2 1189   5.636   1.635   5.841
99784SOL     OW 1190   1.605   1.995   9.349
99784SOL    HW1 1191   1.698   1.978   9.365
99784SOL    HW2 1192   1.559   1.945   9.417
99785SOL     OW 1193   6.164  12.253   9.855
99785SOL    HW1 1194   6.203  12.340   9.860
99785SOL    HW2 1195   6.239  12.194   9.855
99786SOL     OW 1196   0.918   0.667  13.899
99786SOL    HW1 1197   0.849   0.727  13.929
99786SOL    HW2 1198   0.947   0.705  13.816
99787SOL     OW 1199  13.400   1.469  12.286
99787SOL    HW1 1200  13.480   1.422  12.263
99787SOL    HW2 1201  13.430   1.556  12.310
99788SOL     OW 1202   9.794   9.429   1.556
99788SOL    HW1 1203   9.837   9.496   1.503
99788SOL    HW2 1204   9.753   9.477   1.628
99789SOL     OW 1205   7.107   5.462  14.282
99789SOL    HW1 1206   7.070   5.537  14.236
99789SOL    HW2 1207   7.156   5.414  14.216
99790SOL     OW 1208   5.815  14.484  12.608
99790SOL    HW1 1209   5.796  14.540  12.683
99790SOL    HW2 1210   5.889  14.430  12.637
99791SOL     OW 1211  12.543   6.901   6.454
99791SOL    HW1 1212  12.593   6.828   6.418
99791SOL    HW2 1213  12.460   6.862   6.481
99792SOL     OW 1214  12.801   1.627  10.498
99792SOL    HW1 1215  12.777   1.684  10.571
99792SOL    HW2 1216  12.829   1.686  10.428
99793SOL     OW 1217   7.803   0.114  13.706
99793SOL    HW1 1218   7.876   0.138  13.762
99793SOL    HW2 1219   7.740   0.073  13.765
99794SOL     OW 1220   8.182   0.362   2.311
99794SOL    HW1 1221   8.119   0.301   2.271
99794SOL    HW2 1222   8.262   0.352   2.259
99795SOL     OW 1223   9.522  11.956   8.464
99795SOL    HW1 1224   9.603  11.908   8.446
99795SOL    HW2 1225   9.541  12.045   8.434
99796SOL     OW 1226  14.723  10.023   0.359
99796SOL    HW1 1227  14.668  10.091   0.321
99796SOL    HW2 1228  14.711  10.033   0.454
99797SOL     OW 1229  11.954   2.886   8.429
99797SOL    HW1 1230  12.026   2.948   8.444
99797SOL    HW2 1231  11.997   2.809   8.392
99798SOL     OW 1232   4.875   2.168  14.862
99798SOL    HW1 1233   4.920   2.237  14.814
99798SOL    HW2 1234   4.944   2.108   0.009
99799SOL     OW 1235  11.989   0.366  13.464
99799SOL    HW1 1236  12.005   0.459  13.483
99799SOL    HW2 1237  11.920   0.341  13.525
99800SOL     OW 1238  10.546   1.311  11.806
99800SOL    HW1 1239  10.531   1.392  11.756
99800SOL    HW2 1240  10.460   1.289  11.841
99801SOL     OW 1241   7.623  10.485   5.333
99801SOL    HW1 1242   7.608  10.558   5.273
99801SOL    HW2 1243   7.540  10.476   5.381
99802SOL     OW 1244   0.484   7.859   4.763
99802SOL    HW1 1245   0.493   7.816   4.678
99802SOL    HW2 1246   0.543   7.809   4.821
99803SOL     OW 1247   8.574  12.451  13.878
99803SOL    HW1 1248   8.600  12.499  13.956
99803SOL    HW2 1249   8.649  12.457  13.820
99804SOL     OW 1250   7.950   4.317  14.205
99804SOL    HW1 1251   7.872   4.372  14.194
99804SOL    HW2 1252   7.940   4.279  14.292
99805SOL     OW 1253   8.525  14.827   3.536
99805SOL    HW1 1254   8.476  14.797   3.613
99805SOL    HW2 1255   8.573  14.750   3.506
99806SOL     OW 1256   3.745  13.880  10.660
99806SOL    HW1 1257   3.756  13.870  10.755
99806SOL    HW2 1258   3.695  13.961  10.650
99807SOL     OW 1259   1.138  10.612  10.325
99807SOL    HW1 1260   1.051  10.617  10.284
99807SOL    HW2 1261   1.123  10.575  10.412
99808SOL     OW 1262  14.444   3.271  13.205
99808SOL    HW1 1263  14.416   3.220  13.280
99808SOL    HW2 1264  14.365   3.315  13.174
99809SOL     OW 1265  10.285   6.088  13.999
99809SOL    HW1 1266  10.224   6.050  14.062
99809SOL    HW2 1267  10.269   6.040  13.918
99810SOL     OW 1268  14.017  11.866   8.299
99810SOL    HW1 1269  14.064  11.926   8.357
99810SOL    HW2 1270  14.019  11.782   8.346
99811SOL     OW 1271   7.847   7.956  14.709
99811SOL    HW1 1272   7.922   7.935  14.653
99811SOL    HW2 1273   7.779   7.983  14.648
99812SOL     OW 1274   0.822   6.788  13.722
99812SOL    HW1 1275   0.739   6.762  13.763
99812SOL    HW2 1276   0.817   6.751  13.634
99813SOL     OW 1277   3.133  13.341   7.733
99813SOL    HW1 1278   3.098  13.428   7.717
99813SOL    HW2 1279   3.227  13.348   7.712
99814SOL     OW 1280   5.393   5.378   0.161
99814SOL    HW1 1281   5.383   5.473   0.151
99814SOL    HW2 1282   5.455   5.368   0.234
99815SOL     OW 1283   2.136   4.458   2.166
99815SOL    HW1 1284   2.120   4.497   2.080
99815SOL    HW2 1285   2.172   4.371   2.148
99816SOL     OW 1286   0.545   8.828   4.590
99816SOL    HW1 1287   0.507   8.799   4.507
99816SOL    HW2 1288   0.580   8.748   4.630
99817SOL     OW 1289   9.482   9.192  12.472
99817SOL    HW1 1290   9.544   9.240  12.525
99817SOL    HW2 1291   9.534   9.123  12.430
99818SOL     OW 1292  14.244  14.235  11.322
99818SOL    HW1 1293  14.223  14.296  11.251
99818SOL    HW2 1294  14.160  14.210  11.359
99819SOL     OW 1295   1.491  13.573   3.925
99819SOL    HW1 1296   1.436  13.508   3.882
99819SOL    HW2 1297   1.543  13.523   3.988
99820SOL     OW 1298   9.716  10.539   5.638
99820SOL    HW1 1299   9.774  10.501   5.704
99820SOL    HW2 1300   9.645  10.476   5.630
99821SOL     OW 1301  11.614   8.464   2.298
99821SOL    HW1 1302  11.602   8.438   2.390
99821SOL    HW2 1303  11.527   8.457   2.259
99822SOL     OW 1304   4.410   6.739   6.804
99822SOL    HW1 1305   4.331   6.757   6.754
99822SOL    HW2 1306   4.434   6.825   6.841
99823SOL     OW 1307  11.094  11.150  11.221
99823SOL    HW1 1308  10.998  11.152  11.214
99823SOL    HW2 1309  11.111  11.114  11.308
99824SOL     OW 1310   1.153  11.247   5.053
99824SOL    HW1 1311   1.086  11.241   4.985
99824SOL    HW2 1312   1.105  11.270   5.132
99825SOL     OW 1313  12.524   4.513  10.023
99825SOL    HW1 1314  12.477   4.593  10.001
99825SOL    HW2 1315  12.530   4.465   9.940
99826SOL     OW 1316   5.867   3.247  13.297
99826SOL    HW1 1317   5.923   3.323  13.281
99826SOL    HW2 1318   5.805   3.277  13.364
99827SOL     OW 1319  13.183   6.372   5.552
99827SOL    HW1 1320  13.158   6.362   5.460
99827SOL    HW2 1321  13.137   6.301   5.596
99828SOL     OW 1322  12.177  13.436  11.784
99828SOL    HW1 1323  12.140  13.357  11.823
99828SOL    HW2 1324  12.271  13.431  11.803
99829SOL     OW 1325   6.964   3.432   7.612
99829SOL    HW1 1326   6.957   3.527   7.609
99829SOL    HW2 1327   7.044   3.414   7.661
99830SOL     OW 1328  14.401  12.932  10.780
99830SOL    HW1 1329  14.390  12.859  10.719
99830SOL    HW2 1330  14.493  12.930  10.804
99831SOL     OW 1331  14.431  12.836   6.696
99831SOL    HW1 1332  14.344  12.806   6.670
99831SOL    HW2 1333  14.453  12.784   6.773
99832SOL     OW 1334   9.216   3.305  11.718
99832SOL    HW1 1335   9.302   3.265  11.710
99832SOL    HW2 1336   9.181   3.273  11.801
99833SOL     OW 1337   6.215   7.762   5.130
99833SOL    HW1 1338   6.172   7.679   5.110
99833SOL    HW2 1339   6.206   7.772   5.225
99834SOL     OW 1340   4.333   9.577  13.031
99834SOL    HW1 1341   4.316   9.584  12.937
99834SOL    HW2 1342   4.247   9.578  13.072
99835SOL     OW 1343   0.709  12.203   2.177
99835SOL    HW1 1344   0.653  12.267   2.220
99835SOL    HW2 1345   0.784  12.194   2.235
99836SOL     OW 1346   4.617  11.815   6.088
99836SOL    HW1 1347   4.567  11.896   6.093
99836SOL    HW2 1348   4.564  11.751   6.135
99837SOL     OW 1349  13.195   4.056  13.072
99837SOL    HW1 1350  13.219   4.133  13.021
99837SOL    HW2 1351  13.142   4.003  13.012
99838SOL     OW 1352   1.575   7.981  13.634
99838SOL    HW1 1353   1.634   7.913  13.600
99838SOL    HW2 1354   1.502   7.932  13.671
99839SOL     OW 1355   3.595   9.354   1.758
99839SOL    HW1 1356   3.673   9.298   1.752
99839SOL    HW2 1357   3.577   9.379   1.668
99840SOL     OW 1358   1.852   7.385  12.980
99840SOL    HW1 1359   1.816   7.371  12.892
99840SOL    HW2 1360   1.846   7.479  12.995
99841SOL     OW 1361   8.007   2.784  11.453
99841SOL    HW1 1362   7.982   2.873  11.480
99841SOL    HW2 1363   7.963   2.772  11.369
99842SOL     OW 1364  13.100   4.464   6.724
99842SOL    HW1 1365  13.075   4.375   6.700
99842SOL    HW2 1366  13.187   4.476   6.685
99843SOL     OW 1367   4.199  10.028   7.042
99843SOL    HW1 1368   4.274  10.080   7.013
99843SOL    HW2 1369   4.165   9.989   6.961
99844SOL     OW 1370   1.982   0.173   3.771
99844SOL    HW1 1371   1.938   0.099   3.729
99844SOL    HW2 1372   1.911   0.221   3.814
99845SOL     OW 1373   9.428   8.579  13.825
99845SOL    HW1 1374   9.368   8.645  13.791
99845SOL    HW2 1375   9.485   8.557  13.751
99846SOL     OW 1376   1.331   7.826  11.789
99846SOL    HW1 1377   1.328   7.873  11.706
99846SOL    HW2 1378   1.333   7.894  11.856
99847SOL     OW 1379   7.349   8.134   7.700
99847SOL    HW1 1380   7.345   8.117   7.606
99847SOL    HW2 1381   7.407   8.066   7.734
99848SOL     OW 1382  12.219   6.535   3.845
99848SOL    HW1 1383  12.205   6.448   3.882
99848SOL    HW2 1384  12.152   6.543   3.778
99849SOL     OW 1385   4.671  12.517   0.026
99849SOL    HW1 1386   4.605  12.564  14.854
99849SOL    HW2 1387   4.751  12.567   0.013
99850SOL     OW 1388   8.643  14.026  13.664
99850SOL    HW1 1389   8.557  14.003  13.631
99850SOL    HW2 1390   8.635  14.022  13.760
99851SOL     OW 1391   5.188   9.090   9.119
99851SOL    HW1 1392   5.095   9.068   9.118
99851SOL    HW2 1393   5.213   9.095   9.027
99852SOL     OW 1394   5.879  10.494   2.312
99852SOL    HW1 1395   5.815  10.563   2.330
99852SOL    HW2 1396   5.883  10.444   2.394
99853SOL     OW 1397  11.895   0.311   9.038
99853SOL    HW1 1398  11.939   0.362   8.970
99853SOL    HW2 1399  11.917   0.220   9.017
99854SOL     OW 1400   6.718   2.758  14.263
99854SOL    HW1 1401   6.703   2.768  14.169
99854SOL    HW2 1402   6.638   2.789  14.304
99855SOL     OW 1403  10.080   4.793   9.650
99855SOL    HW1 1404  10.056   4.779   9.742
99855SOL    HW2 1405  10.025   4.866   9.622
99856SOL     OW 1406  13.058   3.447   7.505
99856SOL    HW1 1407  13.105   3.364   7.494
99856SOL    HW2 1408  13.097   3.487   7.582
99857SOL     OW 1409  13.343   4.048  14.578
99857SOL    HW1 1410  13.347   3.953  14.572
99857SOL    HW2 1411  13.419   4.073  14.630
99858SOL     OW 1412  13.829   2.604   8.573
99858SOL    HW1 1413  13.898   2.638   8.516
99858SOL    HW2 1414  13.789   2.533   8.523
99859SOL     OW 1415   0.692  11.084   3.024
99859SOL    HW1 1416   0.758  11.153   3.013
99859SOL    HW2 1417   0.610  11.125   2.997
99860SOL     OW 1418   6.849   5.652   4.500
99860SOL    HW1 1419   6.938   5.633   4.529
99860SOL    HW2 1420   6.847   5.747   4.491
99861SOL     OW 1421  14.146   5.326   8.321
99861SOL    HW1 1422  14.100   5.374   8.252
99861SOL    HW2 1423  14.126   5.234   8.303
99862SOL     OW 1424  13.267   3.172   4.458
99862SOL    HW1 1425  13.176   3.199   4.446
99862SOL    HW2 1426  13.286   3.191   4.550
99863SOL     OW 1427   7.672   7.741   7.071
99863SOL    HW1 1428   7.666   7.836   7.080
99863SOL    HW2 1429   7.741   7.716   7.133
99864SOL     OW 1430  11.375   9.122   3.571
99864SOL    HW1 1431  11.465   9.096   3.554
99864SOL    HW2 1432  11.372   9.215   3.552
99865SOL     OW 1433   8.137   1.488   4.673
99865SOL    HW1 1434   8.097   1.546   4.608
99865SOL    HW2 1435   8.199   1.435   4.622
99866SOL     OW 1436  14.312   8.978   0.690
99866SOL    HW1 1437  14.234   8.930   0.665
99866SOL    HW2 1438  14.349   9.008   0.606
99867SOL     OW 1439   0.107   4.277   9.864
99867SOL    HW1 1440   0.195   4.265   9.901
99867SOL    HW2 1441   0.064   4.336   9.926
99868SOL     OW 1442   5.933  13.798   0.351
99868SOL    HW1 1443   5.853  13.800   0.403
99868SOL    HW2 1444   5.907  13.834   0.266
99869SOL     OW 1445  10.023   2.582   3.545
99869SOL    HW1 1446  10.055   2.525   3.475
99869SOL    HW2 1447   9.962   2.642   3.501
99870SOL     OW 1448   4.854   3.407   5.135
99870SOL    HW1 1449   4.799   3.458   5.194
99870SOL    HW2 1450   4.886   3.470   5.070
99871SOL     OW 1451   0.768   5.705   3.940
99871SOL    HW1 1452   0.822   5.627   3.956
99871SOL    HW2 1453   0.722   5.686   3.858
99872SOL     OW 1454   9.525   1.907  14.141
99872SOL    HW1 1455   9.455   1.859  14.186
99872SOL    HW2 1456   9.518   1.996  14.173
99873SOL     OW 1457   3.564   1.664  10.998
99873SOL    HW1 1458   3.552   1.593  11.062
99873SOL    HW2 1459   3.477   1.701  10.987
99874SOL     OW 1460   0.434   4.417   9.157
99874SOL    HW1 1461   0.411   4.329   9.189
99874SOL    HW2 1462   0.451   4.467   9.236
99875SOL     OW 1463   2.648  10.936  12.809
99875SOL    HW1 1464   2.554  10.943  12.824
99875SOL    HW2 1465   2.687  10.985  12.882
99876SOL     OW 1466   5.270   3.398   5.679
99876SOL    HW1 1467   5.206   3.355   5.621
99876SOL    HW2 1468   5.298   3.329   5.739
99877SOL     OW 1469  10.537  12.385   9.384
99877SOL    HW1 1470  10.462  12.338   9.419
99877SOL    HW2 1471  10.613  12.335   9.414
99878SOL     OW 1472   3.258   3.784   5.546
99878SOL    HW1 1473   3.273   3.871   5.583
99878SOL    HW2 1474   3.346   3.750   5.530
99879SOL     OW 1475  14.101   2.010   5.191
99879SOL    HW1 1476  14.144   1.926   5.174
99879SOL    HW2 1477  14.059   2.033   5.108
99880SOL     OW 1478  10.745   8.204  13.886
99880SOL    HW1 1479  10.802   8.127  13.896
99880SOL    HW2 1480  10.789   8.273  13.935
99881SOL     OW 1481  13.706   4.377   5.415
99881SOL    HW1 1482  13.754   4.334   5.345
99881SOL    HW2 1483  13.724   4.470   5.403
99882SOL     OW 1484  14.399  10.711   2.357
99882SOL    HW1 1485  14.330  10.767   2.322
99882SOL    HW2 1486  14.381  10.625   2.319
99883SOL     OW 1487  10.279   7.680   7.377
99883SOL    HW1 1488  10.190   7.674   7.410
99883SOL    HW2 1489  10.298   7.774   7.378
99884SOL     OW 1490   8.002   2.008   6.370
99884SOL    HW1 1491   7.975   1.925   6.408
99884SOL    HW2 1492   8.096   2.001   6.358
99885SOL     OW 1493   3.655   0.370   5.936
99885SOL    HW1 1494   3.741   0.332   5.950
99885SOL    HW2 1495   3.646   0.435   6.006
99886SOL     OW 1496  14.318   5.690   7.721
99886SOL    HW1 1497  14.251   5.657   7.660
99886SOL    HW2 1498  14.383   5.621   7.725
99887SOL     OW 1499   7.923   3.187  13.528
99887SOL    HW1 1500   7.838   3.142  13.534
99887SOL    HW2 1501   7.941   3.216  13.617
99888SOL     OW 1502  12.432   5.252   2.795
99888SOL    HW1 1503  12.360   5.198   2.765
99888SOL    HW2 1504  12.509   5.217   2.749
99889SOL     OW 1505  12.363   1.521   8.625
99889SOL    HW1 1506  12.293   1.530   8.690
99889SOL    HW2 1507  12.357   1.600   8.572
99890SOL     OW 1508   0.558   0.211  10.852
99890SOL    HW1 1509   0.623   0.245  10.915
99890SOL    HW2 1510   0.474   0.224  10.895
99891SOL     OW 1511   7.526   9.976   8.038
99891SOL    HW1 1512   7.515  10.016   7.952
99891SOL    HW2 1513   7.526  10.050   8.099
99892SOL     OW 1514   8.690  12.560   1.889
99892SOL    HW1 1515   8.756  12.596   1.948
99892SOL    HW2 1516   8.628  12.631   1.876
99893SOL     OW 1517   1.062  13.347   3.487
99893SOL    HW1 1518   1.040  13.348   3.580
99893SOL    HW2 1519   1.134  13.410   3.479
99894SOL     OW 1520   8.342   7.275   0.218
99894SOL    HW1 1521   8.310   7.251   0.132
99894SOL    HW2 1522   8.361   7.369   0.211
99895SOL     OW 1523   5.416   6.463   9.342
99895SOL    HW1 1524   5.455   6.494   9.424
99895SOL    HW2 1525   5.359   6.391   9.369
99896SOL     OW 1526   7.953  12.580   3.419
99896SOL    HW1 1527   7.869  12.626   3.424
99896SOL    HW2 1528   8.017  12.645   3.448
99897SOL     OW 1529   5.378  14.340   2.253
99897SOL    HW1 1530   5.373  14.418   2.308
99897SOL    HW2 1531   5.317  14.359   2.181
99898SOL     OW 1532   5.555   0.932  10.714
99898SOL    HW1 1533   5.548   0.838  10.700
99898SOL    HW2 1534   5.649   0.948  10.722
99899SOL     OW 1535  12.802   0.535  13.516
99899SOL    HW1 1536  12.810   0.445  13.548
99899SOL    HW2 1537  12.813   0.527  13.421
99900SOL     OW 1538  11.779   0.596   9.853
99900SOL    HW1 1539  11.697   0.581   9.900
99900SOL    HW2 1540  11.812   0.508   9.834
99901SOL     OW 1541   0.002   4.439  10.894
99901SOL    HW1 1542   0.092   4.471  10.907
99901SOL    HW2 1543   0.011   4.343  10.894
99902SOL     OW 1544   8.642  10.890   7.511
99902SOL    HW1 1545   8.703  10.928   7.574
99902SOL    HW2 1546   8.558  10.932   7.530
99903SOL     OW 1547  13.313   9.462   8.687
99903SOL    HW1 1548  13.220   9.472   8.707
99903SOL    HW2 1549  13.339   9.547   8.650
99904SOL     OW 1550   6.120  11.801  12.138
99904SOL    HW1 1551   6.100  11.788  12.231
99904SOL    HW2 1552   6.180  11.876  12.136
99905SOL     OW 1553   8.797   9.312   2.667
99905SOL    HW1 1554   8.752   9.229   2.653
99905SOL    HW2 1555   8.873   9.309   2.609
99906SOL     OW 1556   9.816   8.972   8.168
99906SOL    HW1 1557   9.891   8.918   8.194
99906SOL    HW2 1558   9.814   8.968   8.073
99907SOL     OW 1559  13.864   3.093  12.052
99907SOL    HW1 1560  13.806   3.093  12.128
99907SOL    HW2 1561  13.949   3.121  12.086
99908SOL     OW 1562  11.218  13.179   0.977
99908SOL    HW1 1563  11.218  13.083   0.986
99908SOL    HW2 1564  11.305  13.206   1.005
99909SOL     OW 1565  13.372  14.572   9.498
99909SOL    HW1 1566  13.441  14.634   9.474
99909SOL    HW2 1567  13.408  14.486   9.476
99910SOL     OW 1568   1.567   6.465   0.622
99910SOL    HW1 1569   1.476   6.491   0.609
99910SOL    HW2 1570   1.583   6.475   0.716
99911SOL     OW 1571   0.219  13.208   8.083
99911SOL    HW1 1572   0.228  13.142   8.152
99911SOL    HW2 1573   0.141  13.257   8.106
99912SOL     OW 1574   5.424  10.588   1.360
99912SOL    HW1 1575   5.374  10.546   1.290
99912SOL    HW2 1576   5.452  10.516   1.416
99913SOL     OW 1577   3.016  10.844   3.119
99913SOL    HW1 1578   3.008  10.911   3.052
99913SOL    HW2 1579   2.983  10.885   3.199
99914SOL     OW 1580   3.915   2.210   5.818
99914SOL    HW1 1581   3.838   2.187   5.871
99914SOL    HW2 1582   3.981   2.146   5.843
99915SOL     OW 1583   5.779  10.809  11.385
99915SOL    HW1 1584   5.818  10.781  11.468
99915SOL    HW2 1585   5.787  10.734  11.327
99916SOL     OW 1586   1.131   1.806   7.894
99916SOL    HW1 1587   1.079   1.793   7.973
99916SOL    HW2 1588   1.086   1.755   7.827
99917SOL     OW 1589   2.736   9.696  13.390
99917SOL    HW1 1590   2.655   9.648  13.375
99917SOL    HW2 1591   2.789   9.679  13.312
99918SOL     OW 1592  14.350   9.524   8.501
99918SOL    HW1 1593  14.374   9.431   8.502
99918SOL    HW2 1594  14.432   9.569   8.481
99919SOL     OW 1595   2.480   9.216  10.130
99919SOL    HW1 1596   2.467   9.126  10.160
99919SOL    HW2 1597   2.503   9.207  10.038
99920SOL     OW 1598   4.285   1.937   8.527
99920SOL    HW1 1599   4.348   1.882   8.575
99920SOL    HW2 1600   4.317   1.938   8.437
99921SOL     OW 1601   3.644   8.339  12.575
99921SOL    HW1 1602   3.625   8.335  12.669
99921SOL    HW2 1603   3.559   8.341  12.533
99922SOL     OW 1604   1.590   6.793   3.342
99922SOL    HW1 1605   1.548   6.713   3.310
99922SOL    HW2 1606   1.683   6.782   3.318
99923SOL     OW 1607  10.495  14.813   7.734
99923SOL    HW1 1608  10.483  14.866   7.656
99923SOL    HW2 1609  10.588  14.821   7.755
99924SOL     OW 1610  13.821   3.235   0.960
99924SOL    HW1 1611  13.876   3.311   0.978
99924SOL    HW2 1612  13.765   3.226   1.037
99925SOL     OW 1613   7.048   9.356  14.699
99925SOL    HW1 1614   7.110   9.315  14.759
99925SOL    HW2 1615   7.073   9.323  14.612
99926SOL     OW 1616   1.542   4.341   4.831
99926SOL    HW1 1617   1.634   4.356   4.852
99926SOL    HW2 1618   1.501   4.322   4.915
99927SOL     OW 1619   9.171  14.448   2.906
99927SOL    HW1 1620   9.081  14.477   2.919
99927SOL    HW2 1621   9.214  14.521   2.862
99928SOL     OW 1622  11.934  12.749   9.110
99928SOL    HW1 1623  11.894  12.786   9.189
99928SOL    HW2 1624  11.889  12.666   9.097
99929SOL     OW 1625   3.881   8.622   4.659
99929SOL    HW1 1626   3.889   8.659   4.747
99929SOL    HW2 1627   3.869   8.699   4.602
99930SOL     OW 1628   9.267   4.026   3.760
99930SOL    HW1 1629   9.233   3.973   3.832
99930SOL    HW2 1630   9.269   3.966   3.685
99931SOL     OW 1631   3.120   5.631   5.756
99931SOL    HW1 1632   3.028   5.656   5.767
99931SOL    HW2 1633   3.139   5.650   5.664
99932SOL     OW 1634  10.874  11.337   5.578
99932SOL    HW1 1635  10.820  11.269   5.618
99932SOL    HW2 1636  10.910  11.296   5.499
99933SOL     OW 1637  12.260   1.414   1.145
99933SOL    HW1 1638  12.220   1.498   1.122
99933SOL    HW2 1639  12.188   1.361   1.177
99934SOL     OW 1640   4.439   8.086   3.339
99934SOL    HW1 1641   4.436   8.169   3.386
99934SOL    HW2 1642   4.532   8.062   3.337
99935SOL     OW 1643  10.075   7.798   3.800
99935SOL    HW1 1644  10.009   7.845   3.749
99935SOL    HW2 1645  10.077   7.843   3.884
99936SOL     OW 1646   3.206   8.639   9.945
99936SOL    HW1 1647   3.222   8.549   9.976
99936SOL    HW2 1648   3.251   8.694  10.009
99937SOL     OW 1649   6.515  12.100   6.384
99937SOL    HW1 1650   6.560  12.033   6.434
99937SOL    HW2 1651   6.522  12.179   6.438
99938SOL     OW 1652   1.471   5.040   3.782
99938SOL    HW1 1653   1.513   5.018   3.699
99938SOL    HW2 1654   1.523   4.996   3.849
99939SOL     OW 1655   0.733   4.239  14.809
99939SOL    HW1 1656   0.734   4.144  14.792
99939SOL    HW2 1657   0.646   4.267  14.780
99940SOL     OW 1658   7.321  13.582   7.586
99940SOL    HW1 1659   7.315  13.492   7.554
99940SOL    HW2 1660   7.291  13.577   7.677
99941SOL     OW 1661   4.172   6.412  12.342
99941SOL    HW1 1662   4.223   6.387  12.265
99941SOL    HW2 1663   4.228   6.388  12.416
99942SOL     OW 1664   6.020  12.307  13.862
99942SOL    HW1 1665   5.963  12.241  13.903
99942SOL    HW2 1666   6.107  12.267  13.863
99943SOL     OW 1667  12.583  13.590  10.597
99943SOL    HW1 1668  12.527  13.513  10.603
99943SOL    HW2 1669  12.572  13.621  10.507
99944SOL     OW 1670   7.719  13.043   6.786
99944SOL    HW1 1671   7.745  13.081   6.869
99944SOL    HW2 1672   7.795  13.056   6.729
99945SOL     OW 1673   3.064   9.732   6.313
99945SOL    HW1 1674   2.981   9.698   6.345
99945SOL    HW2 1675   3.048   9.750   6.221
99946SOL     OW 1676  12.224  10.288   3.362
99946SOL    HW1 1677  12.219  10.316   3.453
99946SOL    HW2 1678  12.180  10.204   3.360
99947SOL     OW 1679   5.546   4.578   1.087
99947SOL    HW1 1680   5.462   4.583   1.133
99947SOL    HW2 1681   5.603   4.528   1.146
99948SOL     OW 1682   8.512   7.381   0.924
99948SOL    HW1 1683   8.547   7.444   0.860
99948SOL    HW2 1684   8.588   7.358   0.978
99949SOL     OW 1685   1.604   0.958  12.536
99949SOL    HW1 1686   1.623   0.865  12.532
99949SOL    HW2 1687   1.510   0.965  12.517
99950SOL     OW 1688   2.067   5.402   9.176
99950SOL    HW1 1689   1.978   5.436   9.170
99950SOL    HW2 1690   2.123   5.479   9.169
99951SOL     OW 1691   2.505   3.096   2.503
99951SOL    HW1 1692   2.486   3.021   2.447
99951SOL    HW2 1693   2.459   3.169   2.462
99952SOL     OW 1694  12.132  10.731   5.267
99952SOL    HW1 1695  12.155  10.640   5.282
99952SOL    HW2 1696  12.049  10.728   5.219
99953SOL     OW 1697   9.048   2.629   7.005
99953SOL    HW1 1698   9.104   2.557   6.973
99953SOL    HW2 1699   9.024   2.603   7.094
99954SOL     OW 1700   0.803   8.525   1.760
99954SOL    HW1 1701   0.787   8.440   1.719
99954SOL    HW2 1702   0.715   8.560   1.776
99955SOL     OW 1703   2.525   0.746   8.246
99955SOL    HW1 1704   2.540   0.840   8.255
99955SOL    HW2 1705   2.478   0.721   8.325
99956SOL     OW 1706  10.769  14.332   4.228
99956SOL    HW1 1707  10.725  14.249   4.210
99956SOL    HW2 1708  10.827  14.346   4.153
99957SOL     OW 1709  14.781   0.190   2.062
99957SOL    HW1 1710  14.700   0.194   2.010
99957SOL    HW2 1711  14.848   0.225   2.004
99958SOL     OW 1712   3.939   4.001  13.579
99958SOL    HW1 1713   3.924   3.982  13.671
99958SOL    HW2 1714   3.904   4.090  13.567
99959SOL     OW 1715   6.393   1.052   3.312
99959SOL    HW1 1716   6.357   0.985   3.370
99959SOL    HW2 1717   6.417   1.124   3.371
99960SOL     OW 1718   4.742   1.742   0.414
99960SOL    HW1 1719   4.736   1.657   0.459
99960SOL    HW2 1720   4.809   1.729   0.347
99961SOL     OW 1721  11.946  14.622   9.969
99961SOL    HW1 1722  11.907  14.581   9.892
99961SOL    HW2 1723  12.034  14.585   9.974
99962SOL     OW 1724   6.576  13.787   9.561
99962SOL    HW1 1725   6.598  13.759   9.472
99962SOL    HW2 1726   6.550  13.878   9.552
99963SOL     OW 1727   7.059  10.765   2.337
99963SOL    HW1 1728   7.049  10.764   2.432
99963SOL    HW2 1729   6.970  10.757   2.304
99964SOL     OW 1730   3.369   9.602  14.187
99964SOL    HW1 1731   3.283   9.580  14.222
99964SOL    HW2 1732   3.420   9.630  14.264
99965SOL     OW 1733   7.936  10.183   7.008
99965SOL    HW1 1734   7.901  10.098   7.034
99965SOL    HW2 1735   7.969  10.222   7.089
99966SOL     OW 1736   9.997  13.089  14.843
99966SOL    HW1 1737  10.067  13.147  14.875
99966SOL    HW2 1738  10.009  13.088  14.748
99967SOL     OW 1739  10.681   0.286   9.822
99967SOL    HW1 1740  10.649   0.201   9.852
99967SOL    HW2 1741  10.602   0.337   9.807
99968SOL     OW 1742   3.493   7.140   0.154
99968SOL    HW1 1743   3.534   7.201   0.092
99968SOL    HW2 1744   3.399   7.153   0.141
99969SOL     OW 1745   3.085   4.225   0.387
99969SOL    HW1 1746   3.160   4.235   0.328
99969SOL    HW2 1747   3.021   4.289   0.354
99970SOL     OW 1748   1.038   0.473  12.303
99970SOL    HW1 1749   0.960   0.520  12.333
99970SOL    HW2 1750   1.106   0.540  12.298
99971SOL     OW 1751   7.577  10.457   4.077
99971SOL    HW1 1752   7.559  10.467   4.171
99971SOL    HW2 1753   7.496  10.485   4.035
99972SOL     OW 1754   5.904   8.564   3.054
99972SOL    HW1 1755   5.962   8.601   2.988
99972SOL    HW2 1756   5.827   8.621   3.054
99973SOL     OW 1757  10.714  11.999   2.566
99973SOL    HW1 1758  10.746  12.076   2.613
99973SOL    HW2 1759  10.782  11.933   2.580
99974SOL     OW 1760  12.113   3.947  12.781
99974SOL    HW1 1761  12.175   3.994  12.725
99974SOL    HW2 1762  12.136   3.855  12.769
99975SOL     OW 1763   9.745  12.620   7.394
99975SOL    HW1 1764   9.652  12.602   7.391
99975SOL    HW2 1765   9.763  12.640   7.486
99976SOL     OW 1766  11.672  10.627   5.643
99976SOL    HW1 1767  11.704  10.549   5.687
99976SOL    HW2 1768  11.743  10.691   5.650
99977SOL     OW 1769   9.075   4.690  13.871
99977SOL    HW1 1770   9.165   4.714  13.851
99977SOL    HW2 1771   9.022   4.741  13.810
99978SOL     OW 1772  10.903  14.606   6.953
99978SOL    HW1 1773  10.949  14.647   7.027
99978SOL    HW2 1774  10.812  14.597   6.984
99979SOL     OW 1775  14.540  10.958   4.771
99979SOL    HW1 1776  14.618  11.012   4.784
99979SOL    HW2 1777  14.567  10.891   4.709
99980SOL     OW 1778   2.845   7.470  12.457
99980SOL    HW1 1779   2.924   7.501  12.413
99980SOL    HW2 1780   2.859   7.376  12.468
99981SOL     OW 1781   9.519  10.937   1.374
99981SOL    HW1 1782   9.607  10.910   1.351
99981SOL    HW2 1783   9.472  10.942   1.291
99982SOL     OW 1784   2.694   7.485  11.112
99982SOL    HW1 1785   2.644   7.565  11.126
99982SOL    HW2 1786   2.645   7.437  11.045
99983SOL     OW 1787   6.023   9.815   8.080
99983SOL    HW1 1788   5.975   9.839   8.159
99983SOL    HW2 1789   6.100   9.873   8.080
99984SOL     OW 1790   8.934  14.079   0.737
99984SOL    HW1 1791   8.855  14.038   0.703
99984SOL    HW2 1792   8.941  14.046   0.827
99985SOL     OW 1793   7.920   5.413   8.211
99985SOL    HW1 1794   7.928   5.492   8.158
99985SOL    HW2 1795   7.860   5.357   8.162
99986SOL     OW 1796  11.698  13.834  11.146
99986SOL    HW1 1797  11.774  13.827  11.089
99986SOL    HW2 1798  11.697  13.751  11.194
99987SOL     OW 1799   6.724   7.252   1.435
99987SOL    HW1 1800   6.815   7.236   1.459
99987SOL    HW2 1801   6.683   7.287   1.514
99988SOL     OW 1802   9.869   5.026   2.939
99988SOL    HW1 1803   9.833   4.937   2.936
99988SOL    HW2 1804   9.795   5.081   2.967
99989SOL     OW 1805   1.903   3.939   6.586
99989SOL    HW1 1806   1.820   3.946   6.633
99989SOL    HW2 1807   1.907   3.847   6.560
99990SOL     OW 1808   1.928   1.742  14.281
99990SOL    HW1 1809   1.980   1.691  14.219
99990SOL    HW2 1810   1.978   1.822  14.295
99991SOL     OW 1811  10.561   0.340   8.572
99991SOL    HW1 1812  10.649   0.369   8.595
99991SOL    HW2 1813  10.575   0.273   8.505
99992SOL     OW 1814   9.631   0.323  14.142
99992SOL    HW1 1815   9.657   0.285  14.058
99992SOL    HW2 1816   9.648   0.254  14.206
99993SOL     OW 1817   2.019   0.153   6.288
99993SOL    HW1 1818   2.001   0.076   6.234
99993SOL    HW2 1819   2.102   0.187   6.253
99994SOL     OW 1820  10.154   4.481  10.249
99994SOL    HW1 1821  10.101   4.416  10.295
99994SOL    HW2 1822  10.239   4.439  10.238
99995SOL     OW 1823   6.653   7.289  13.679
99995SOL    HW1 1824   6.659   7.360  13.742
99995SOL    HW2 1825   6.739   7.247  13.681
99996SOL     OW 1826   0.488   1.127   0.693
99996SOL    HW1 1827   0.473   1.040   0.656
99996SOL    HW2 1828   0.404   1.151   0.732
99997SOL     OW 1829   4.943   1.295   6.795
99997SOL    HW1 1830   4.946   1.214   6.847
99997SOL    HW2 1831   4.861   1.289   6.746
99998SOL     OW 1832   2.859   1.216  14.859
99998SOL    HW1 1833   2.829   1.184  14.774
99998SOL    HW2 1834   2.816   1.159   0.043
99999SOL     OW 1835   7.516   1.442  13.823
99999SOL    HW1 1836   7.461   1.520  13.821
99999SOL    HW2 1837   7.454   1.370  13.837
    0SOL     OW 1838   0.990  13.925   6.998
    0SOL    HW1 1839   1.061  13.970   6.952
    0SOL    HW2 1840   0.938  13.995   7.037
    1SOL     OW 1841   9.196   0.817  11.320
    1SOL    HW1 1842   9.153   0.791  11.239
    1SOL    HW2 1843   9.227   0.906  11.304
    2SOL     OW 1844   3.558   7.112   9.120
    2SOL    HW1 1845   3.618   7.184   9.103
    2SOL    HW2 1846   3.488   7.151   9.173
    3SOL     OW 1847  10.011  11.841   9.939
    3SOL    HW1 1848  10.096  11.881   9.960
    3SOL    HW2 1849   9.981  11.803  10.021
    4SOL     OW 1850   9.582   4.800   2.661
    4SOL    HW1 1851   9.661   4.853   2.668
    4SOL    HW2 1852   9.510   4.864   2.662
    5SOL     OW 1853   6.414   7.612  12.586
    5SOL    HW1 1854   6.360   7.636  12.510
    5SOL    HW2 1855   6.462   7.693  12.608
    6SOL     OW 1856   6.413   4.942   1.562
    6SOL    HW1 1857   6.384   5.009   1.623
    6SOL    HW2 1858   6.494   4.976   1.525
    7SOL     OW 1859  14.040   1.204  12.531
    7SOL    HW1 1860  13.949   1.204  12.500
    7SOL    HW2 1861  14.045   1.279  12.590
    8SOL     OW 1862   2.763  12.078   9.016
    8SOL    HW1 1863   2.671  12.057   9.032
    8SOL    HW2 1864   2.812  12.021   9.075
    9SOL     OW 1865   0.147  10.020  14.832
    9SOL    HW1 1866   0.186  10.052   0.034
    9SOL    HW2 1867   0.207   9.952  14.802
   10SOL     OW 1868   3.919   8.935   0.087
   10SOL    HW1 1869   3.852   9.000   0.107
   10SOL    HW2 1870   3.974   8.976   0.020
   11SOL     OW 1871   2.380   3.867   8.146
   11SOL    HW1 1872   2.449   3.932   8.133
   11SOL    HW2 1873   2.426   3.786   8.166
   12SOL     OW 1874   4.220   3.993  14.679
   12SOL    HW1 1875   4.288   3.989  14.612
   12SOL    HW2 1876   4.139   4.008  14.631
   13SOL     OW 1877  12.288   7.414  13.871
   13SOL    HW1 1878  12.263   7.428  13.963
   13SOL    HW2 1879  12.219   7.358  13.836
   14SOL     OW 1880   5.553   8.245  14.018
   14SOL    HW1 1881   5.552   8.315  14.084
   14SOL    HW2 1882   5.635   8.259  13.971
   15SOL     OW 1883   7.487   3.644   7.833
   15SOL    HW1 1884   7.573   3.667   7.867
   15SOL    HW2 1885   7.483   3.549   7.839
   16SOL     OW 1886  14.186  10.255   6.508
   16SOL    HW1 1887  14.211  10.163   6.511
   16SOL    HW2 1888  14.181  10.282   6.600
   17SOL     OW 1889   0.606   0.090   0.936
   17SOL    HW1 1890   0.684   0.050   0.975
   17SOL    HW2 1891   0.557   0.124   1.011
   18SOL     OW 1892   7.629   2.688   5.362
   18SOL    HW1 1893   7.709   2.725   5.324
   18SOL    HW2 1894   7.558   2.731   5.314
   19SOL     OW 1895   1.938   0.813   9.449
   19SOL    HW1 1896   1.869   0.750   9.469
   19SOL    HW2 1897   1.988   0.773   9.378
   20SOL     OW 1898   7.148   0.033   7.171
   20SOL    HW1 1899   7.152  14.818   7.186
   20SOL    HW2 1900   7.237   0.064   7.189
   21SOL     OW 1901   3.023   9.619  10.397
   21SOL    HW1 1902   3.090   9.597  10.332
   21SOL    HW2 1903   3.068   9.612  10.481
   22SOL     OW 1904   6.760  11.907   4.248
   22SOL    HW1 1905   6.672  11.915   4.213
   22SOL    HW2 1906   6.816  11.898   4.170
   23SOL     OW 1907   0.228  14.218  14.427
   23SOL    HW1 1908   0.320  14.196  14.445
   23SOL    HW2 1909   0.211  14.294  14.482
   24SOL     OW 1910   4.470   9.386   0.356
   24SOL    HW1 1911   4.546   9.330   0.370
   24SOL    HW2 1912   4.403   9.327   0.320
   25SOL     OW 1913   4.540  10.685   9.581
   25SOL    HW1 1914   4.544  10.593   9.605
   25SOL    HW2 1915   4.568  10.688   9.490
   26SOL     OW 1916   4.073   0.642  14.362
   26SOL    HW1 1917   4.152   0.667  14.409
   26SOL    HW2 1918   4.008   0.708  14.388
   27SOL     OW 1919   0.979   0.744   6.826
   27SOL    HW1 1920   1.016   0.660   6.855
   27SOL    HW2 1921   0.952   0.787   6.907
   28SOL     OW 1922   3.899   0.435  14.818
   28SOL    HW1 1923   3.902   0.455   0.032
   28SOL    HW2 1924   3.855   0.350  14.813
   29SOL     OW 1925  13.718   8.553  13.709
   29SOL    HW1 1926  13.809   8.554  13.739
   29SOL    HW2 1927  13.684   8.640  13.731
   30SOL     OW 1928   3.098   0.970   6.825
   30SOL    HW1 1929   3.058   0.889   6.855
   30SOL    HW2 1930   3.024   1.024   6.797
   31SOL     OW 1931  12.375   0.821   8.234
   31SOL    HW1 1932  12.465   0.833   8.265
   31SOL    HW2 1933  12.333   0.767   8.301
   32SOL     OW 1934   7.913   1.874   0.120
   32SOL    HW1 1935   7.823   1.841   0.113
   32SOL    HW2 1936   7.948   1.829   0.197
   33SOL     OW 1937  14.723   9.911  14.853
   33SOL    HW1 1938  14.801   9.965  14.866
   33SOL    HW2 1939  14.739   9.864  14.772
   34SOL     OW 1940   5.584  13.281   6.059
   34SOL    HW1 1941   5.507  13.337   6.068
   34SOL    HW2 1942   5.644  13.333   6.006
   35SOL     OW 1943   5.803  14.674   6.995
   35SOL    HW1 1944   5.856  14.691   7.074
   35SOL    HW2 1945   5.725  14.728   7.007
   36SOL     OW 1946   7.497   6.885   5.060
   36SOL    HW1 1947   7.572   6.827   5.072
   36SOL    HW2 1948   7.526   6.969   5.095
   37SOL     OW 1949   7.989  13.250   9.221
   37SOL    HW1 1950   7.995  13.345   9.218
   37SOL    HW2 1951   7.993  13.222   9.130
   38SOL     OW 1952   7.092   0.396   3.493
   38SOL    HW1 1953   7.118   0.484   3.519
   38SOL    HW2 1954   7.162   0.367   3.435
   39SOL     OW 1955   2.523   7.367  10.583
   39SOL    HW1 1956   2.536   7.461  10.594
   39SOL    HW2 1957   2.431   7.352  10.603
   40SOL     OW 1958   6.803   2.697   3.511
   40SOL    HW1 1959   6.844   2.783   3.521
   40SOL    HW2 1960   6.784   2.668   3.600
   41SOL     OW 1961  10.810   1.121   9.221
   41SOL    HW1 1962  10.796   1.202   9.271
   41SOL    HW2 1963  10.795   1.051   9.285
   42SOL     OW 1964  11.831   2.590   2.184
   42SOL    HW1 1965  11.881   2.622   2.110
   42SOL    HW2 1966  11.851   2.651   2.255
   43SOL     OW 1967   8.892   1.813   1.346
   43SOL    HW1 1968   8.944   1.874   1.293
   43SOL    HW2 1969   8.950   1.786   1.416
   44SOL     OW 1970   1.158  12.770   1.300
   44SOL    HW1 1971   1.222  12.701   1.313
   44SOL    HW2 1972   1.203  12.835   1.245
   45SOL     OW 1973  11.863  11.271   4.663
   45SOL    HW1 1974  11.927  11.268   4.733
   45SOL    HW2 1975  11.804  11.198   4.680
   46SOL     OW 1976  13.460  12.194   8.987
   46SOL    HW1 1977  13.517  12.244   9.045
   46SOL    HW2 1978  13.438  12.255   8.916
   47SOL     OW 1979  10.124   8.097   0.560
   47SOL    HW1 1980  10.055   8.162   0.547
   47SOL    HW2 1981  10.203   8.149   0.574
   48SOL     OW 1982   3.226  10.358   8.068
   48SOL    HW1 1983   3.238  10.419   8.140
   48SOL    HW2 1984   3.289  10.288   8.084
   49SOL     OW 1985   0.802  10.970  14.038
   49SOL    HW1 1986   0.738  10.917  13.990
   49SOL    HW2 1987   0.793  10.942  14.129
   50SOL     OW 1988   7.816   2.942  10.221
   50SOL    HW1 1989   7.902   2.950  10.180
   50SOL    HW2 1990   7.830   2.971  10.311
   51SOL     OW 1991   0.663  10.688  14.362
   51SOL    HW1 1992   0.587  10.728  14.319
   51SOL    HW2 1993   0.725  10.760  14.375
   52SOL     OW 1994   5.383   1.952   9.465
   52SOL    HW1 1995   5.345   1.965   9.378
   52SOL    HW2 1996   5.427   2.034   9.485
   53SOL     OW 1997   2.628  14.089   3.513
   53SOL    HW1 1998   2.657  14.178   3.494
   53SOL    HW2 1999   2.578  14.097   3.594
   54SOL     OW 2000   3.160  12.850   7.049
   54SOL    HW1 2001   3.140  12.906   6.974
   54SOL    HW2 2002   3.095  12.781   7.046
   55SOL     OW 2003   8.335   1.041   7.541
   55SOL    HW1 2004   8.322   0.954   7.577
   55SOL    HW2 2005   8.430   1.052   7.535
   56SOL     OW 2006  12.871  14.263  11.131
   56SOL    HW1 2007  12.935  14.193  11.142
   56SOL    HW2 2008  12.786  14.218  11.132
   57SOL     OW 2009  11.429   3.939  12.900
   57SOL    HW1 2010  11.391   3.864  12.946
   57SOL    HW2 2011  11.354   3.994  12.879
   58SOL     OW 2012   0.696   9.617   1.799
   58SOL    HW1 2013   0.682   9.556   1.871
   58SOL    HW2 2014   0.614   9.666   1.792
   59SOL     OW 2015  10.499   0.160   6.603
   59SOL    HW1 2016  10.579   0.212   6.602
   59SOL    HW2 2017  10.482   0.143   6.696
   60SOL     OW 2018  11.376   7.047  10.984
   60SOL    HW1 2019  11.326   7.087  11.055
   60SOL    HW2 2020  11.311   6.997  10.934
   61SOL     OW 2021  12.166   4.800   9.532
   61SOL    HW1 2022  12.185   4.884   9.575
   61SOL    HW2 2023  12.211   4.805   9.448
   62SOL     OW 2024   6.681   1.385   6.241
   62SOL    HW1 2025   6.760   1.331   6.242
   62SOL    HW2 2026   6.617   1.336   6.293
   63SOL     OW 2027   4.068   9.016   0.502
   63SOL    HW1 2028   4.076   9.112   0.507
   63SOL    HW2 2029   4.145   8.983   0.548
   64SOL     OW 2030   0.147  10.832  11.338
   64SOL    HW1 2031   0.125  10.786  11.419
   64SOL    HW2 2032   0.126  10.771  11.268
   65SOL     OW 2033   9.012   3.276  11.534
   65SOL    HW1 2034   9.087   3.288  11.593
   65SOL    HW2 2035   9.043   3.215  11.467
   66SOL     OW 2036   2.321   4.185   9.920
   66SOL    HW1 2037   2.353   4.123   9.854
   66SOL    HW2 2038   2.366   4.160  10.001
   67SOL     OW 2039  11.445  13.446   4.310
   67SOL    HW1 2040  11.509  13.480   4.372
   67SOL    HW2 2041  11.436  13.353   4.332
   68SOL     OW 2042   3.107   7.045  12.411
   68SOL    HW1 2043   3.090   7.001  12.328
   68SOL    HW2 2044   3.094   6.977  12.477
   69SOL     OW 2045  13.547   2.962   4.469
   69SOL    HW1 2046  13.468   2.969   4.521
   69SOL    HW2 2047  13.599   3.038   4.494
   70SOL     OW 2048   3.603   7.149  11.327
   70SOL    HW1 2049   3.558   7.180  11.249
   70SOL    HW2 2050   3.634   7.229  11.370
   71SOL     OW 2051   4.106  14.457  13.728
   71SOL    HW1 2052   4.147  14.387  13.677
   71SOL    HW2 2053   4.160  14.534  13.711
   72SOL     OW 2054  10.593   2.909  13.674
   72SOL    HW1 2055  10.593   2.839  13.609
   72SOL    HW2 2056  10.576   2.989  13.623
   73SOL     OW 2057  12.491  12.057   2.391
   73SOL    HW1 2058  12.430  12.110   2.341
   73SOL    HW2 2059  12.446  11.974   2.404
   74SOL     OW 2060   5.691   4.128   2.549
   74SOL    HW1 2061   5.697   4.093   2.638
   74SOL    HW2 2062   5.685   4.223   2.561
   75SOL     OW 2063  10.930  12.410  13.431
   75SOL    HW1 2064  10.983  12.385  13.506
   75SOL    HW2 2065  10.884  12.329  13.407
   76SOL     OW 2066   4.108  12.594   5.705
   76SOL    HW1 2067   4.182  12.622   5.760
   76SOL    HW2 2068   4.065  12.526   5.756
   77SOL     OW 2069   9.654  14.501  11.560
   77SOL    HW1 2070   9.726  14.562  11.539
   77SOL    HW2 2071   9.613  14.482  11.476
   78SOL     OW 2072  11.203   9.990  12.759
   78SOL    HW1 2073  11.259   9.931  12.709
   78SOL    HW2 2074  11.251  10.073  12.761
   79SOL     OW 2075   8.968   9.827   0.118
   79SOL    HW1 2076   8.897   9.890   0.127
   79SOL    HW2 2077   9.042   9.879   0.087
   80SOL     OW 2078   0.391   9.123  13.511
   80SOL    HW1 2079   0.446   9.179  13.566
   80SOL    HW2 2080   0.358   9.056  13.571
   81SOL     OW 2081  11.750  14.114   2.525
   81SOL    HW1 2082  11.839  14.116   2.492
   81SOL    HW2 2083  11.755  14.156   2.611
   82SOL     OW 2084   5.232   5.430   8.306
   82SOL    HW1 2085   5.195   5.502   8.254
   82SOL    HW2 2086   5.276   5.473   8.379
   83SOL     OW 2087   6.162   8.567   4.065
   83SOL    HW1 2088   6.180   8.592   3.974
   83SOL    HW2 2089   6.233   8.605   4.115
   84SOL     OW 2090   2.029   9.686   6.876
   84SOL    HW1 2091   2.114   9.715   6.909
   84SOL    HW2 2092   1.967   9.708   6.946
   85SOL     OW 2093   4.715  10.575   9.846
   85SOL    HW1 2094   4.744  10.576   9.755
   85SOL    HW2 2095   4.721  10.484   9.873
   86SOL     OW 2096  14.125   8.534   1.656
   86SOL    HW1 2097  14.189   8.588   1.608
   86SOL    HW2 2098  14.081   8.483   1.587
   87SOL     OW 2099   0.711  11.964   4.430
   87SOL    HW1 2100   0.677  11.897   4.370
   87SOL    HW2 2101   0.798  11.984   4.395
   88SOL     OW 2102   5.994   7.795   4.335
   88SOL    HW1 2103   6.045   7.757   4.407
   88SOL    HW2 2104   5.960   7.877   4.369
   89SOL     OW 2105   4.539   0.316   7.378
   89SOL    HW1 2106   4.460   0.349   7.421
   89SOL    HW2 2107   4.511   0.235   7.335
   90SOL     OW 2108   0.750   3.641  10.385
   90SOL    HW1 2109   0.835   3.620  10.423
   90SOL    HW2 2110   0.736   3.733  10.407
   91SOL     OW 2111  12.336   7.754   3.558
   91SOL    HW1 2112  12.306   7.811   3.487
   91SOL    HW2 2113  12.257   7.713   3.592
   92SOL     OW 2114   9.316  14.439   9.669
   92SOL    HW1 2115   9.317  14.394   9.753
   92SOL    HW2 2116   9.403  14.425   9.633
   93SOL     OW 2117   3.761   4.178   7.861
   93SOL    HW1 2118   3.823   4.177   7.934
   93SOL    HW2 2119   3.678   4.207   7.900
   94SOL     OW 2120   0.159   0.034   9.424
   94SOL    HW1 2121   0.129   0.124   9.419
   94SOL    HW2 2122   0.254   0.039   9.413
   95SOL     OW 2123   6.622   7.872   3.152
   95SOL    HW1 2124   6.688   7.836   3.093
   95SOL    HW2 2125   6.588   7.795   3.198
   96SOL     OW 2126   0.438  14.202   7.239
   96SOL    HW1 2127   0.363  14.153   7.205
   96SOL    HW2 2128   0.462  14.156   7.320
   97SOL     OW 2129   2.178   8.180  12.405
   97SOL    HW1 2130   2.212   8.113  12.347
   97SOL    HW2 2131   2.249   8.197  12.467
   98SOL     OW 2132   2.194  10.403  11.592
   98SOL    HW1 2133   2.200  10.391  11.498
   98SOL    HW2 2134   2.248  10.480  11.610
   99SOL     OW 2135  11.109  10.633   0.979
   99SOL    HW1 2136  11.084  10.722   1.003
   99SOL    HW2 2137  11.040  10.604   0.919
  100SOL     OW 2138   1.893  12.666  11.485
  100SOL    HW1 2139   1.826  12.715  11.438
  100SOL    HW2 2140   1.865  12.668  11.576
  101SOL     OW 2141   8.245   3.503   3.728
  101SOL    HW1 2142   8.267   3.503   3.635
  101SOL    HW2 2143   8.199   3.420   3.741
  102SOL     OW 2144   7.535  10.662  10.395
  102SOL    HW1 2145   7.498  10.750  10.392
  102SOL    HW2 2146   7.608  10.665  10.332
  103SOL     OW 2147   4.471  13.435   5.744
  103SOL    HW1 2148   4.474  13.410   5.651
  103SOL    HW2 2149   4.386  13.477   5.754
  104SOL     OW 2150   6.981   6.286  10.137
  104SOL    HW1 2151   7.044   6.240  10.080
  104SOL    HW2 2152   6.988   6.378  10.111
  105SOL     OW 2153   3.544  10.922   1.561
  105SOL    HW1 2154   3.504  10.980   1.496
  105SOL    HW2 2155   3.636  10.948   1.563
  106SOL     OW 2156  14.651   1.064   8.262
  106SOL    HW1 2157  14.652   1.128   8.190
  106SOL    HW2 2158  14.700   0.989   8.228
  107SOL     OW 2159   0.061  10.389   7.530
  107SOL    HW1 2160   0.054  10.359   7.620
  107SOL    HW2 2161   0.155  10.391   7.512
  108SOL     OW 2162   3.704   7.685   4.554
  108SOL    HW1 2163   3.643   7.614   4.536
  108SOL    HW2 2164   3.778   7.643   4.599
  109SOL     OW 2165   8.170   1.581   3.125
  109SOL    HW1 2166   8.251   1.613   3.163
  109SOL    HW2 2167   8.157   1.495   3.164
  110SOL     OW 2168   5.862   0.737   0.979
  110SOL    HW1 2169   5.897   0.790   0.907
  110SOL    HW2 2170   5.783   0.696   0.942
  111SOL     OW 2171   7.240  12.887   3.495
  111SOL    HW1 2172   7.316  12.835   3.468
  111SOL    HW2 2173   7.169  12.823   3.502
  112SOL     OW 2174  10.980   7.799   2.096
  112SOL    HW1 2175  10.960   7.830   2.008
  112SOL    HW2 2176  10.913   7.839   2.151
  113SOL     OW 2177   0.710  12.790   9.803
  113SOL    HW1 2178   0.748  12.781   9.890
  113SOL    HW2 2179   0.741  12.875   9.772
  114SOL     OW 2180   0.462   3.947   9.689
  114SOL    HW1 2181   0.527   3.982   9.750
  114SOL    HW2 2182   0.492   3.858   9.671
  115SOL     OW 2183   9.155  11.298   7.986
  115SOL    HW1 2184   9.124  11.378   8.028
  115SOL    HW2 2185   9.192  11.328   7.903
  116SOL     OW 2186  11.372   0.978   6.294
  116SOL    HW1 2187  11.428   0.947   6.223
  116SOL    HW2 2188  11.342   1.064   6.264
  117SOL     OW 2189  12.101   0.585  13.734
  117SOL    HW1 2190  12.142   0.516  13.681
  117SOL    HW2 2191  12.154   0.662  13.717
  118SOL     OW 2192   5.594   2.357   6.275
  118SOL    HW1 2193   5.677   2.356   6.227
  118SOL    HW2 2194   5.619   2.357   6.367
  119SOL     OW 2195   4.581  14.719   9.524
  119SOL    HW1 2196   4.577  14.629   9.555
  119SOL    HW2 2197   4.491  14.751   9.529
  120SOL     OW 2198   3.457   9.930   8.364
  120SOL    HW1 2199   3.501  10.010   8.393
  120SOL    HW2 2200   3.520   9.860   8.379
  121SOL     OW 2201   6.709   9.924   4.612
  121SOL    HW1 2202   6.754   9.912   4.528
  121SOL    HW2 2203   6.677  10.014   4.609
  122SOL     OW 2204   5.752   7.718   1.328
  122SOL    HW1 2205   5.711   7.753   1.407
  122SOL    HW2 2206   5.747   7.623   1.340
  123SOL     OW 2207   6.791  14.422  10.881
  123SOL    HW1 2208   6.870  14.374  10.857
  123SOL    HW2 2209   6.808  14.512  10.853
  124SOL     OW 2210   7.150  11.751   2.764
  124SOL    HW1 2211   7.111  11.835   2.741
  124SOL    HW2 2212   7.214  11.772   2.832
  125SOL     OW 2213   6.170  10.859   5.261
  125SOL    HW1 2214   6.117  10.924   5.307
  125SOL    HW2 2215   6.174  10.892   5.171
  126SOL     OW 2216   6.778   8.194   8.070
  126SOL    HW1 2217   6.811   8.197   7.981
  126SOL    HW2 2218   6.700   8.249   8.068
  127SOL     OW 2219   4.639  10.295   8.951
  127SOL    HW1 2220   4.677  10.299   9.038
  127SOL    HW2 2221   4.714  10.289   8.892
  128SOL     OW 2222   7.430  12.879  10.638
  128SOL    HW1 2223   7.396  12.963  10.669
  128SOL    HW2 2224   7.519  12.874  10.672
  129SOL     OW 2225   9.578  12.485   0.938
  129SOL    HW1 2226   9.654  12.540   0.917
  129SOL    HW2 2227   9.504  12.529   0.894
  130SOL     OW 2228   7.556  10.192  10.209
  130SOL    HW1 2229   7.516  10.179  10.295
  130SOL    HW2 2230   7.548  10.107  10.166
  131SOL     OW 2231  10.378  12.035  11.109
  131SOL    HW1 2232  10.377  12.124  11.143
  131SOL    HW2 2233  10.427  12.042  11.026
  132SOL     OW 2234   0.880  14.064  10.682
  132SOL    HW1 2235   0.786  14.080  10.690
  132SOL    HW2 2236   0.919  14.151  10.673
  133SOL     OW 2237   0.638  11.424   5.025
  133SOL    HW1 2238   0.551  11.391   5.005
  133SOL    HW2 2239   0.697  11.353   5.001
  134SOL     OW 2240   8.849   5.654  12.327
  134SOL    HW1 2241   8.868   5.585  12.263
  134SOL    HW2 2242   8.824   5.729  12.274
  135SOL     OW 2243   8.247   4.888   6.687
  135SOL    HW1 2244   8.276   4.859   6.601
  135SOL    HW2 2245   8.182   4.956   6.669
  136SOL     OW 2246   4.498   0.116  12.050
  136SOL    HW1 2247   4.509   0.142  12.141
  136SOL    HW2 2248   4.501   0.021  12.051
  137SOL     OW 2249   8.616  12.331   2.490
  137SOL    HW1 2250   8.533  12.373   2.513
  137SOL    HW2 2251   8.614  12.326   2.394
  138SOL     OW 2252   7.529   7.837   7.433
  138SOL    HW1 2253   7.501   7.926   7.413
  138SOL    HW2 2254   7.625   7.840   7.427
  139SOL     OW 2255   4.029  12.232  13.734
  139SOL    HW1 2256   4.058  12.302  13.676
  139SOL    HW2 2257   4.110  12.192  13.766
  140SOL     OW 2258  12.912   9.298  14.652
  140SOL    HW1 2259  12.831   9.342  14.679
  140SOL    HW2 2260  12.966   9.298  14.731
  141SOL     OW 2261  13.553   3.995   5.803
  141SOL    HW1 2262  13.511   4.081   5.805
  141SOL    HW2 2263  13.495   3.938   5.853
  142SOL     OW 2264   8.422   5.253  14.516
  142SOL    HW1 2265   8.498   5.202  14.489
  142SOL    HW2 2266   8.347   5.205  14.482
  143SOL     OW 2267  11.906  13.796  14.083
  143SOL    HW1 2268  11.824  13.837  14.054
  143SOL    HW2 2269  11.972  13.864  14.070
  144SOL     OW 2270   6.609  11.038  14.348
  144SOL    HW1 2271   6.570  11.033  14.260
  144SOL    HW2 2272   6.566  10.968  14.397
  145SOL     OW 2273   4.916   6.273   4.447
  145SOL    HW1 2274   4.896   6.189   4.406
  145SOL    HW2 2275   4.984   6.253   4.511
  146SOL     OW 2276   9.756   6.637   6.883
  146SOL    HW1 2277   9.698   6.689   6.827
  146SOL    HW2 2278   9.746   6.548   6.851
  147SOL     OW 2279   7.939   9.587  11.663
  147SOL    HW1 2280   7.883   9.509  11.659
  147SOL    HW2 2281   7.891   9.653  11.613
  148SOL     OW 2282   4.185   3.879  14.304
  148SOL    HW1 2283   4.225   3.797  14.276
  148SOL    HW2 2284   4.099   3.880  14.262
  149SOL     OW 2285  14.334   9.756  12.157
  149SOL    HW1 2286  14.390   9.788  12.086
  149SOL    HW2 2287  14.376   9.675  12.185
  150SOL     OW 2288   7.784   0.430   8.147
  150SOL    HW1 2289   7.850   0.489   8.110
  150SOL    HW2 2290   7.764   0.370   8.076
  151SOL     OW 2291  12.680   2.037  11.040
  151SOL    HW1 2292  12.774   2.016  11.039
  151SOL    HW2 2293  12.644   1.986  10.967
  152SOL     OW 2294  10.704   9.193   1.770
  152SOL    HW1 2295  10.680   9.268   1.825
  152SOL    HW2 2296  10.635   9.129   1.784
  153SOL     OW 2297  11.264  11.886  12.269
  153SOL    HW1 2298  11.174  11.918  12.277
  153SOL    HW2 2299  11.314  11.940  12.330
  154SOL     OW 2300  14.606   9.866   2.732
  154SOL    HW1 2301  14.678   9.928   2.746
  154SOL    HW2 2302  14.527   9.914   2.755
  155SOL     OW 2303  12.222  14.170   3.012
  155SOL    HW1 2304  12.192  14.081   2.990
  155SOL    HW2 2305  12.162  14.227   2.965
  156SOL     OW 2306  11.456   3.293   0.680
  156SOL    HW1 2307  11.490   3.204   0.695
  156SOL    HW2 2308  11.533   3.349   0.686
  157SOL     OW 2309   9.429   9.560   0.387
  157SOL    HW1 2310   9.378   9.506   0.326
  157SOL    HW2 2311   9.432   9.646   0.345
  158SOL     OW 2312  13.026   5.449   6.133
  158SOL    HW1 2313  12.998   5.540   6.123
  158SOL    HW2 2314  13.027   5.414   6.044
  159SOL     OW 2315   9.548  11.262   7.576
  159SOL    HW1 2316   9.518  11.321   7.507
  159SOL    HW2 2317   9.635  11.234   7.547
  160SOL     OW 2318  13.025   0.301   4.004
  160SOL    HW1 2319  13.078   0.327   4.080
  160SOL    HW2 2320  12.938   0.337   4.022
  161SOL     OW 2321   7.722   5.880   4.382
  161SOL    HW1 2322   7.807   5.854   4.418
  161SOL    HW2 2323   7.738   5.966   4.343
  162SOL     OW 2324  14.376  13.663  10.704
  162SOL    HW1 2325  14.314  13.593  10.684
  162SOL    HW2 2326  14.355  13.688  10.794
  163SOL     OW 2327  12.621  12.660   7.701
  163SOL    HW1 2328  12.676  12.618   7.767
  163SOL    HW2 2329  12.603  12.747   7.737
  164SOL     OW 2330   5.205   2.844   3.949
  164SOL    HW1 2331   5.280   2.891   3.914
  164SOL    HW2 2332   5.165   2.802   3.873
  165SOL     OW 2333   2.148   5.041   9.813
  165SOL    HW1 2334   2.139   5.106   9.743
  165SOL    HW2 2335   2.131   5.090   9.893
  166SOL     OW 2336   4.738   5.799   4.470
  166SOL    HW1 2337   4.676   5.737   4.508
  166SOL    HW2 2338   4.758   5.859   4.542
  167SOL     OW 2339   6.515   5.164  13.681
  167SOL    HW1 2340   6.515   5.153  13.776
  167SOL    HW2 2341   6.429   5.132  13.652
  168SOL     OW 2342  10.410   4.774   6.987
  168SOL    HW1 2343  10.405   4.867   7.006
  168SOL    HW2 2344  10.322   4.750   6.957
  169SOL     OW 2345   6.004   3.069   2.637
  169SOL    HW1 2346   5.963   3.104   2.716
  169SOL    HW2 2347   5.966   3.120   2.566
  170SOL     OW 2348  10.282  12.256   1.867
  170SOL    HW1 2349  10.365  12.281   1.826
  170SOL    HW2 2350  10.287  12.161   1.874
  171SOL     OW 2351   8.885  12.658   0.323
  171SOL    HW1 2352   8.918  12.648   0.233
  171SOL    HW2 2353   8.849  12.746   0.325
  172SOL     OW 2354   0.532   6.821   9.391
  172SOL    HW1 2355   0.576   6.741   9.366
  172SOL    HW2 2356   0.442   6.810   9.361
  173SOL     OW 2357   0.427   4.195   0.082
  173SOL    HW1 2358   0.457   4.245   0.005
  173SOL    HW2 2359   0.364   4.132   0.046
  174SOL     OW 2360   4.156   1.907   0.796
  174SOL    HW1 2361   4.085   1.845   0.813
  174SOL    HW2 2362   4.127   1.955   0.718
  175SOL     OW 2363   0.181   5.707   5.441
  175SOL    HW1 2364   0.206   5.695   5.349
  175SOL    HW2 2365   0.225   5.788   5.467
  176SOL     OW 2366   6.004   9.749   0.825
  176SOL    HW1 2367   5.916   9.712   0.838
  176SOL    HW2 2368   5.991   9.843   0.831
  177SOL     OW 2369   3.172   1.621   5.104
  177SOL    HW1 2370   3.099   1.666   5.146
  177SOL    HW2 2371   3.169   1.532   5.140
  178SOL     OW 2372   3.274   3.563   0.224
  178SOL    HW1 2373   3.247   3.655   0.215
  178SOL    HW2 2374   3.243   3.538   0.312
  179SOL     OW 2375   8.616   8.912   5.917
  179SOL    HW1 2376   8.536   8.923   5.968
  179SOL    HW2 2377   8.589   8.927   5.826
  180SOL     OW 2378   9.571   2.260   8.342
  180SOL    HW1 2379   9.518   2.322   8.292
  180SOL    HW2 2380   9.618   2.209   8.276
  181SOL     OW 2381  12.157   4.873   5.116
  181SOL    HW1 2382  12.130   4.793   5.160
  181SOL    HW2 2383  12.158   4.851   5.023
  182SOL     OW 2384  11.903   0.113   7.439
  182SOL    HW1 2385  11.906   0.017   7.437
  182SOL    HW2 2386  11.910   0.139   7.348
  183SOL     OW 2387  11.315   3.820   8.304
  183SOL    HW1 2388  11.248   3.772   8.256
  183SOL    HW2 2389  11.273   3.902   8.330
  184SOL     OW 2390  10.961   1.121   5.843
  184SOL    HW1 2391  11.039   1.162   5.805
  184SOL    HW2 2392  10.892   1.186   5.833
  185SOL     OW 2393   5.731  12.602   0.106
  185SOL    HW1 2394   5.708  12.694   0.097
  185SOL    HW2 2395   5.757  12.576   0.017
  186SOL     OW 2396   0.971  14.617   1.911
  186SOL    HW1 2397   1.019  14.689   1.869
  186SOL    HW2 2398   0.972  14.639   2.004
  187SOL     OW 2399  13.883   2.589   4.604
  187SOL    HW1 2400  13.882   2.602   4.698
  187SOL    HW2 2401  13.820   2.653   4.570
  188SOL     OW 2402   0.268   9.861   3.544
  188SOL    HW1 2403   0.348   9.864   3.596
  188SOL    HW2 2404   0.197   9.855   3.608
  189SOL     OW 2405  12.133   2.449   3.359
  189SOL    HW1 2406  12.116   2.517   3.293
  189SOL    HW2 2407  12.088   2.372   3.325
  190SOL     OW 2408  12.237   6.132   9.173
  190SOL    HW1 2409  12.171   6.077   9.215
  190SOL    HW2 2410  12.320   6.105   9.213
  191SOL     OW 2411   2.372   8.196   6.164
  191SOL    HW1 2412   2.449   8.193   6.220
  191SOL    HW2 2413   2.402   8.240   6.084
  192SOL     OW 2414  13.250   2.208  11.951
  192SOL    HW1 2415  13.293   2.294  11.957
  192SOL    HW2 2416  13.202   2.199  12.033
  193SOL     OW 2417   9.340  13.650  11.839
  193SOL    HW1 2418   9.381  13.662  11.753
  193SOL    HW2 2419   9.270  13.715  11.842
  194SOL     OW 2420  11.259   2.416  11.334
  194SOL    HW1 2421  11.339   2.363  11.339
  194SOL    HW2 2422  11.190   2.360  11.369
  195SOL     OW 2423   3.840  13.275   7.561
  195SOL    HW1 2424   3.817  13.183   7.552
  195SOL    HW2 2425   3.839  13.309   7.472
  196SOL     OW 2426   3.326   5.915   5.323
  196SOL    HW1 2427   3.284   5.974   5.261
  196SOL    HW2 2428   3.276   5.833   5.317
  197SOL     OW 2429   5.919  13.329  13.833
  197SOL    HW1 2430   5.840  13.293  13.792
  197SOL    HW2 2431   5.907  13.424  13.829
  198SOL     OW 2432  12.986   2.623   6.779
  198SOL    HW1 2433  12.987   2.655   6.869
  198SOL    HW2 2434  13.025   2.535   6.784
  199SOL     OW 2435  10.095  13.037  10.753
  199SOL    HW1 2436  10.055  13.118  10.722
  199SOL    HW2 2437  10.036  12.968  10.722
  200SOL     OW 2438   9.265   2.805   7.155
  200SOL    HW1 2439   9.178   2.765   7.163
  200SOL    HW2 2440   9.285   2.837   7.243
  201SOL     OW 2441   6.200   5.259   3.786
  201SOL    HW1 2442   6.217   5.209   3.706
  201SOL    HW2 2443   6.284   5.298   3.808
  202SOL     OW 2444   6.487   4.920   2.933
  202SOL    HW1 2445   6.512   4.948   3.021
  202SOL    HW2 2446   6.563   4.942   2.878
  203SOL     OW 2447   7.125   8.706   5.385
  203SOL    HW1 2448   7.184   8.781   5.376
  203SOL    HW2 2449   7.118   8.693   5.480
  204SOL     OW 2450  12.586  11.458   1.693
  204SOL    HW1 2451  12.547  11.510   1.622
  204SOL    HW2 2452  12.512  11.427   1.744
  205SOL     OW 2453  12.753   0.256  13.580
  205SOL    HW1 2454  12.758   0.278  13.487
  205SOL    HW2 2455  12.767   0.161  13.583
  206SOL     OW 2456  11.309   5.095  14.250
  206SOL    HW1 2457  11.234   5.088  14.191
  206SOL    HW2 2458  11.352   5.176  14.224
  207SOL     OW 2459   0.691  12.485   4.860
  207SOL    HW1 2460   0.750  12.412   4.878
  207SOL    HW2 2461   0.633  12.454   4.791
  208SOL     OW 2462  13.896   7.390   4.016
  208SOL    HW1 2463  13.942   7.420   3.937
  208SOL    HW2 2464  13.808   7.427   4.008
  209SOL     OW 2465  10.774   6.982   8.304
  209SOL    HW1 2466  10.852   6.943   8.343
  209SOL    HW2 2467  10.786   7.076   8.317
  210SOL     OW 2468  14.480   5.567   6.654
  210SOL    HW1 2469  14.420   5.636   6.681
  210SOL    HW2 2470  14.560   5.613   6.629
  211SOL     OW 2471  14.206   3.927   5.202
  211SOL    HW1 2472  14.187   3.878   5.282
  211SOL    HW2 2473  14.135   3.991   5.196
  212SOL     OW 2474   7.184   1.266   3.460
  212SOL    HW1 2475   7.199   1.335   3.525
  212SOL    HW2 2476   7.205   1.185   3.506
  213SOL     OW 2477   0.381   8.457  12.834
  213SOL    HW1 2478   0.362   8.523  12.901
  213SOL    HW2 2479   0.460   8.490  12.791
  214SOL     OW 2480   1.212   5.025  10.581
  214SOL    HW1 2481   1.227   5.026  10.486
  214SOL    HW2 2482   1.141   5.088  10.595
  215SOL     OW 2483   9.317   6.695   1.183
  215SOL    HW1 2484   9.270   6.718   1.263
  215SOL    HW2 2485   9.363   6.776   1.159
  216SOL     OW 2486  11.323   5.211  12.523
  216SOL    HW1 2487  11.284   5.192  12.608
  216SOL    HW2 2488  11.271   5.283  12.488
  217SOL     OW 2489   3.733   8.833   1.236
  217SOL    HW1 2490   3.644   8.867   1.228
  217SOL    HW2 2491   3.783   8.907   1.269
  218SOL     OW 2492   6.979  14.648   3.109
  218SOL    HW1 2493   6.949  14.561   3.136
  218SOL    HW2 2494   7.054  14.666   3.167
  219SOL     OW 2495   7.007   3.506   4.059
  219SOL    HW1 2496   7.019   3.510   4.154
  219SOL    HW2 2497   7.008   3.412   4.039
  220SOL     OW 2498   0.039   8.199  12.769
  220SOL    HW1 2499  14.858   8.272  12.763
  220SOL    HW2 2500   0.119   8.231  12.726
  221SOL     OW 2501   8.244  10.110   4.058
  221SOL    HW1 2502   8.307  10.099   3.986
  221SOL    HW2 2503   8.193  10.187   4.033
  222SOL     OW 2504  13.566   2.769  14.718
  222SOL    HW1 2505  13.633   2.770  14.649
  222SOL    HW2 2506  13.616   2.763  14.800
  223SOL     OW 2507   2.517   7.103  11.379
  223SOL    HW1 2508   2.427   7.093  11.347
  223SOL    HW2 2509   2.519   7.191  11.417
  224SOL     OW 2510  12.788   4.575   8.804
  224SOL    HW1 2511  12.704   4.576   8.759
  224SOL    HW2 2512  12.842   4.514   8.754
  225SOL     OW 2513   5.980   1.832   5.763
  225SOL    HW1 2514   5.915   1.901   5.751
  225SOL    HW2 2515   6.053   1.857   5.705
  226SOL     OW 2516   0.789  11.592  12.566
  226SOL    HW1 2517   0.745  11.656  12.511
  226SOL    HW2 2518   0.882  11.602  12.545
  227SOL     OW 2519  13.766   7.395   8.277
  227SOL    HW1 2520  13.780   7.460   8.207
  227SOL    HW2 2521  13.697   7.339   8.244
  228SOL     OW 2522  13.039   4.366   4.115
  228SOL    HW1 2523  13.133   4.373   4.127
  228SOL    HW2 2524  13.019   4.430   4.047
  229SOL     OW 2525   7.633   6.024   1.003
  229SOL    HW1 2526   7.678   6.094   0.954
  229SOL    HW2 2527   7.613   5.958   0.937
  230SOL     OW 2528  13.181   9.776  13.514
  230SOL    HW1 2529  13.202   9.825  13.594
  230SOL    HW2 2530  13.101   9.817  13.482
  231SOL     OW 2531   3.546   6.895   9.286
  231SOL    HW1 2532   3.531   6.984   9.252
  231SOL    HW2 2533   3.638   6.893   9.309
  232SOL     OW 2534   2.048   3.530   5.454
  232SOL    HW1 2535   2.083   3.618   5.466
  232SOL    HW2 2536   2.072   3.484   5.535
  233SOL     OW 2537   6.525  14.439   2.860
  233SOL    HW1 2538   6.591  14.374   2.835
  233SOL    HW2 2539   6.574  14.518   2.878
  234SOL     OW 2540   5.172  12.543   7.555
  234SOL    HW1 2541   5.202  12.574   7.470
  234SOL    HW2 2542   5.252  12.527   7.605
  235SOL     OW 2543   1.434   5.930   3.206
  235SOL    HW1 2544   1.457   5.858   3.265
  235SOL    HW2 2545   1.410   6.002   3.264
  236SOL     OW 2546   2.831   9.704   1.907
  236SOL    HW1 2547   2.819   9.614   1.877
  236SOL    HW2 2548   2.856   9.696   1.999
  237SOL     OW 2549  14.224   7.179   9.062
  237SOL    HW1 2550  14.264   7.262   9.089
  237SOL    HW2 2551  14.172   7.152   9.137
  238SOL     OW 2552  13.986   2.991  13.232
  238SOL    HW1 2553  14.067   2.993  13.181
  238SOL    HW2 2554  14.014   3.007  13.322
  239SOL     OW 2555  11.130   8.178   5.988
  239SOL    HW1 2556  11.156   8.185   5.896
  239SOL    HW2 2557  11.069   8.104   5.989
  240SOL     OW 2558  14.046   1.102  14.496
  240SOL    HW1 2559  14.072   1.128  14.408
  240SOL    HW2 2560  14.096   1.159  14.554
  241SOL     OW 2561   4.720   6.501   6.091
  241SOL    HW1 2562   4.721   6.596   6.080
  241SOL    HW2 2563   4.730   6.466   6.002
  242SOL     OW 2564   3.965   9.368   5.620
  242SOL    HW1 2565   3.952   9.384   5.714
  242SOL    HW2 2566   3.995   9.277   5.616
  243SOL     OW 2567   3.969   5.013   9.263
  243SOL    HW1 2568   3.938   4.974   9.345
  243SOL    HW2 2569   3.890   5.048   9.222
  244SOL     OW 2570   5.502   2.852   4.471
  244SOL    HW1 2571   5.558   2.920   4.509
  244SOL    HW2 2572   5.413   2.889   4.476
  245SOL     OW 2573   2.091   2.457   7.394
  245SOL    HW1 2574   2.021   2.393   7.406
  245SOL    HW2 2575   2.052   2.524   7.337
  246SOL     OW 2576   9.454   5.944  14.502
  246SOL    HW1 2577   9.394   5.881  14.462
  246SOL    HW2 2578   9.540   5.903  14.496
  247SOL     OW 2579   7.478   3.128   1.211
  247SOL    HW1 2580   7.527   3.207   1.234
  247SOL    HW2 2581   7.530   3.087   1.141
  248SOL     OW 2582  14.791   9.610   8.855
  248SOL    HW1 2583  14.737   9.677   8.897
  248SOL    HW2 2584  14.762   9.608   8.764
  249SOL     OW 2585   0.704   8.853   2.816
  249SOL    HW1 2586   0.620   8.853   2.860
  249SOL    HW2 2587   0.725   8.760   2.803
  250SOL     OW 2588  14.359  11.044   0.302
  250SOL    HW1 2589  14.394  11.067   0.216
  250SOL    HW2 2590  14.432  11.002   0.347
  251SOL     OW 2591  13.191   8.272  14.407
  251SOL    HW1 2592  13.262   8.322  14.446
  251SOL    HW2 2593  13.113   8.327  14.418
  252SOL     OW 2594   4.081   1.193   5.126
  252SOL    HW1 2595   4.065   1.120   5.066
  252SOL    HW2 2596   4.148   1.160   5.187
  253SOL     OW 2597   2.696   4.879   7.374
  253SOL    HW1 2598   2.607   4.891   7.406
  253SOL    HW2 2599   2.705   4.784   7.365
  254SOL     OW 2600   0.777   6.625  13.464
  254SOL    HW1 2601   0.866   6.657  13.448
  254SOL    HW2 2602   0.773   6.541  13.418
  255SOL     OW 2603   7.206   2.208   2.653
  255SOL    HW1 2604   7.157   2.128   2.635
  255SOL    HW2 2605   7.294   2.177   2.676
  256SOL     OW 2606   6.158  14.793  12.963
  256SOL    HW1 2607   6.217  14.768  13.035
  256SOL    HW2 2608   6.178  14.730  12.894
  257SOL     OW 2609   2.179   6.801   8.071
  257SOL    HW1 2610   2.259   6.750   8.087
  257SOL    HW2 2611   2.108   6.738   8.084
  258SOL     OW 2612  14.555   1.013   9.540
  258SOL    HW1 2613  14.583   1.058   9.620
  258SOL    HW2 2614  14.586   1.069   9.469
  259SOL     OW 2615   6.859  10.379   0.220
  259SOL    HW1 2616   6.852  10.312   0.152
  259SOL    HW2 2617   6.905  10.452   0.178
  260SOL     OW 2618  13.763   8.222  12.796
  260SOL    HW1 2619  13.827   8.290  12.774
  260SOL    HW2 2620  13.690   8.238  12.738
  261SOL     OW 2621   8.185   2.413  11.978
  261SOL    HW1 2622   8.239   2.490  11.995
  261SOL    HW2 2623   8.246   2.349  11.942
  262SOL     OW 2624  14.877   0.803   5.427
  262SOL    HW1 2625   0.036   0.733   5.375
  262SOL    HW2 2626  14.798   0.829   5.380
  263SOL     OW 2627  13.995   1.927   4.143
  263SOL    HW1 2628  13.997   2.016   4.108
  263SOL    HW2 2629  14.077   1.919   4.192
  264SOL     OW 2630   2.391   4.643  10.797
  264SOL    HW1 2631   2.414   4.655  10.889
  264SOL    HW2 2632   2.298   4.666  10.792
  265SOL     OW 2633   5.178  14.581  13.734
  265SOL    HW1 2634   5.090  14.612  13.712
  265SOL    HW2 2635   5.198  14.517  13.665
  266SOL     OW 2636   9.152  10.274   0.043
  266SOL    HW1 2637   9.059  10.299   0.045
  266SOL    HW2 2638   9.198  10.355   0.024
  267SOL     OW 2639   7.884   7.745   5.747
  267SOL    HW1 2640   7.847   7.756   5.834
  267SOL    HW2 2641   7.937   7.824   5.733
  268SOL     OW 2642  10.747  14.169   6.173
  268SOL    HW1 2643  10.764  14.262   6.190
  268SOL    HW2 2644  10.669  14.149   6.226
  269SOL     OW 2645   0.835   6.400   1.328
  269SOL    HW1 2646   0.826   6.305   1.329
  269SOL    HW2 2647   0.753   6.433   1.364
  270SOL     OW 2648  12.383   4.719   2.407
  270SOL    HW1 2649  12.477   4.714   2.421
  270SOL    HW2 2650  12.357   4.802   2.448
  271SOL     OW 2651   2.068   5.532   1.109
  271SOL    HW1 2652   2.014   5.575   1.042
  271SOL    HW2 2653   2.151   5.580   1.108
  272SOL     OW 2654   0.253   8.351   2.286
  272SOL    HW1 2655   0.228   8.292   2.357
  272SOL    HW2 2656   0.346   8.334   2.272
  273SOL     OW 2657  10.834  13.598   4.489
  273SOL    HW1 2658  10.795  13.512   4.472
  273SOL    HW2 2659  10.902  13.607   4.422
  274SOL     OW 2660   1.526   4.503  12.966
  274SOL    HW1 2661   1.464   4.502  12.893
  274SOL    HW2 2662   1.611   4.487  12.925
  275SOL     OW 2663   5.865   1.842   4.312
  275SOL    HW1 2664   5.857   1.762   4.363
  275SOL    HW2 2665   5.828   1.911   4.368
  276SOL     OW 2666   2.626   3.242  10.054
  276SOL    HW1 2667   2.713   3.274  10.031
  276SOL    HW2 2668   2.579   3.320  10.083
  277SOL     OW 2669   4.084  13.793  11.675
  277SOL    HW1 2670   4.109  13.748  11.594
  277SOL    HW2 2671   4.100  13.729  11.744
  278SOL     OW 2672   7.332   2.648   4.523
  278SOL    HW1 2673   7.305   2.739   4.537
  278SOL    HW2 2674   7.409   2.654   4.466
  279SOL     OW 2675  14.304   1.128   4.765
  279SOL    HW1 2676  14.295   1.170   4.680
  279SOL    HW2 2677  14.399   1.122   4.778
  280SOL     OW 2678   7.958  13.991   9.365
  280SOL    HW1 2679   8.044  14.022   9.394
  280SOL    HW2 2680   7.976  13.910   9.318
  281SOL     OW 2681  13.129  14.755  13.334
  281SOL    HW1 2682  13.111  14.846  13.315
  281SOL    HW2 2683  13.117  14.747  13.429
  282SOL     OW 2684  13.510  11.288  14.252
  282SOL    HW1 2685  13.418  11.305  14.232
  282SOL    HW2 2686  13.523  11.323  14.340
  283SOL     OW 2687   9.564  11.500  14.730
  283SOL    HW1 2688   9.631  11.521  14.666
  283SOL    HW2 2689   9.550  11.581  14.778
  284SOL     OW 2690   5.643  13.170  11.581
  284SOL    HW1 2691   5.723  13.137  11.623
  284SOL    HW2 2692   5.674  13.241  11.523
  285SOL     OW 2693   0.889   4.302   1.817
  285SOL    HW1 2694   0.812   4.350   1.848
  285SOL    HW2 2695   0.856   4.249   1.745
  286SOL     OW 2696   7.579   7.552  10.709
  286SOL    HW1 2697   7.644   7.610  10.749
  286SOL    HW2 2698   7.535   7.607  10.644
  287SOL     OW 2699   6.871   2.141  14.118
  287SOL    HW1 2700   6.876   2.088  14.198
  287SOL    HW2 2701   6.815   2.091  14.059
  288SOL     OW 2702   1.072  13.649   7.419
  288SOL    HW1 2703   1.051  13.732   7.378
  288SOL    HW2 2704   1.001  13.634   7.481
  289SOL     OW 2705   5.081   5.852   6.008
  289SOL    HW1 2706   5.012   5.797   5.971
  289SOL    HW2 2707   5.156   5.792   6.018
  290SOL     OW 2708   9.848  14.489  12.450
  290SOL    HW1 2709   9.933  14.492  12.493
  290SOL    HW2 2710   9.864  14.446  12.367
  291SOL     OW 2711   2.917  13.396  13.206
  291SOL    HW1 2712   3.005  13.434  13.203
  291SOL    HW2 2713   2.921  13.321  13.147
  292SOL     OW 2714   7.788   8.219   1.733
  292SOL    HW1 2715   7.733   8.295   1.754
  292SOL    HW2 2716   7.728   8.158   1.690
  293SOL     OW 2717   1.404   8.210   8.374
  293SOL    HW1 2718   1.374   8.205   8.283
  293SOL    HW2 2719   1.494   8.179   8.370
  294SOL     OW 2720  13.544  10.878  11.563
  294SOL    HW1 2721  13.638  10.859  11.563
  294SOL    HW2 2722  13.514  10.854  11.475
  295SOL     OW 2723  13.579  13.304   1.555
  295SOL    HW1 2724  13.557  13.223   1.509
  295SOL    HW2 2725  13.661  13.284   1.601
  296SOL     OW 2726  11.168   0.173  13.991
  296SOL    HW1 2727  11.261   0.148  13.996
  296SOL    HW2 2728  11.138   0.136  13.908
  297SOL     OW 2729  12.201  13.180   7.212
  297SOL    HW1 2730  12.270  13.158   7.149
  297SOL    HW2 2731  12.155  13.098   7.226
  298SOL     OW 2732  10.192   3.925  13.892
  298SOL    HW1 2733  10.127   3.989  13.922
  298SOL    HW2 2734  10.201   3.942  13.799
  299SOL     OW 2735   4.802  10.259   8.700
  299SOL    HW1 2736   4.744  10.258   8.624
  299SOL    HW2 2737   4.813  10.166   8.722
  300SOL     OW 2738   3.279   0.984   2.075
  300SOL    HW1 2739   3.352   1.043   2.097
  300SOL    HW2 2740   3.246   0.955   2.160
  301SOL     OW 2741   2.640   9.158  13.838
  301SOL    HW1 2742   2.706   9.116  13.893
  301SOL    HW2 2743   2.566   9.173  13.897
  302SOL     OW 2744  12.230   5.437   0.863
  302SOL    HW1 2745  12.251   5.388   0.942
  302SOL    HW2 2746  12.268   5.386   0.792
  303SOL     OW 2747   8.952  12.863   4.250
  303SOL    HW1 2748   8.935  12.771   4.232
  303SOL    HW2 2749   9.015  12.863   4.321
  304SOL     OW 2750  11.147   8.794   0.001
  304SOL    HW1 2751  11.119   8.802  14.789
  304SOL    HW2 2752  11.109   8.870   0.044
  305SOL     OW 2753   6.974  10.881  11.671
  305SOL    HW1 2754   6.997  10.792  11.699
  305SOL    HW2 2755   6.985  10.934  11.749
  306SOL     OW 2756   0.770   1.035   8.503
  306SOL    HW1 2757   0.825   1.106   8.469
  306SOL    HW2 2758   0.816   1.003   8.580
  307SOL     OW 2759   6.309   2.806   5.184
  307SOL    HW1 2760   6.228   2.790   5.135
  307SOL    HW2 2761   6.291   2.884   5.235
  308SOL     OW 2762   5.140  14.023  12.003
  308SOL    HW1 2763   5.055  14.062  12.025
  308SOL    HW2 2764   5.156  14.049  11.913
  309SOL     OW 2765  10.001  10.728   6.611
  309SOL    HW1 2766   9.994  10.705   6.703
  309SOL    HW2 2767  10.019  10.645   6.567
  310SOL     OW 2768   6.154   5.624   9.404
  310SOL    HW1 2769   6.104   5.633   9.324
  310SOL    HW2 2770   6.151   5.711   9.445
  311SOL     OW 2771   3.726  13.157   4.187
  311SOL    HW1 2772   3.645  13.114   4.213
  311SOL    HW2 2773   3.787  13.140   4.259
  312SOL     OW 2774  13.339   4.721  13.121
  312SOL    HW1 2775  13.348   4.813  13.142
  312SOL    HW2 2776  13.275   4.688  13.185
  313SOL     OW 2777   9.071  10.127  13.792
  313SOL    HW1 2778   9.029  10.171  13.866
  313SOL    HW2 2779   9.000  10.108  13.731
  314SOL     OW 2780   7.581   3.361   7.788
  314SOL    HW1 2781   7.599   3.290   7.726
  314SOL    HW2 2782   7.535   3.318   7.860
  315SOL     OW 2783   0.159   8.611   5.574
  315SOL    HW1 2784   0.244   8.600   5.532
  315SOL    HW2 2785   0.142   8.705   5.570
  316SOL     OW 2786   9.075   8.956   7.668
  316SOL    HW1 2787   8.988   8.930   7.697
  316SOL    HW2 2788   9.064   8.975   7.574
  317SOL     OW 2789   5.949  11.259   1.580
  317SOL    HW1 2790   6.030  11.223   1.544
  317SOL    HW2 2791   5.881  11.232   1.518
  318SOL     OW 2792   8.141   3.295   9.192
  318SOL    HW1 2793   8.121   3.204   9.214
  318SOL    HW2 2794   8.218   3.289   9.135
  319SOL     OW 2795   1.430   7.540  10.627
  319SOL    HW1 2796   1.394   7.621  10.663
  319SOL    HW2 2797   1.392   7.471  10.681
  320SOL     OW 2798   0.491   8.142   1.960
  320SOL    HW1 2799   0.450   8.093   1.889
  320SOL    HW2 2800   0.518   8.076   2.023
  321SOL     OW 2801   5.025   3.066   3.644
  321SOL    HW1 2802   5.046   2.983   3.686
  321SOL    HW2 2803   5.001   3.043   3.554
  322SOL     OW 2804   1.374   4.130   8.153
  322SOL    HW1 2805   1.452   4.116   8.206
  322SOL    HW2 2806   1.305   4.082   8.199
  323SOL     OW 2807  13.156   6.948   3.814
  323SOL    HW1 2808  13.246   6.944   3.783
  323SOL    HW2 2809  13.120   6.861   3.794
  324SOL     OW 2810  14.492   9.054   1.733
  324SOL    HW1 2811  14.439   9.123   1.773
  324SOL    HW2 2812  14.470   8.975   1.784
  325SOL     OW 2813   1.893   1.951   9.722
  325SOL    HW1 2814   1.878   1.858   9.710
  325SOL    HW2 2815   1.844   1.973   9.801
  326SOL     OW 2816   0.928   2.237  10.799
  326SOL    HW1 2817   0.991   2.252  10.728
  326SOL    HW2 2818   0.963   2.162  10.846
  327SOL     OW 2819   7.598   2.140  13.417
  327SOL    HW1 2820   7.597   2.160  13.510
  327SOL    HW2 2821   7.625   2.222  13.375
  328SOL     OW 2822   6.974   7.815   8.043
  328SOL    HW1 2823   6.934   7.869   7.975
  328SOL    HW2 2824   7.004   7.737   7.997
  329SOL     OW 2825   9.263   3.910   4.234
  329SOL    HW1 2826   9.217   3.908   4.318
  329SOL    HW2 2827   9.284   4.003   4.221
  330SOL     OW 2828   6.367   7.383   9.487
  330SOL    HW1 2829   6.431   7.413   9.423
  330SOL    HW2 2830   6.337   7.463   9.530
  331SOL     OW 2831   0.356   0.957   9.040
  331SOL    HW1 2832   0.342   0.920   9.127
  331SOL    HW2 2833   0.439   0.920   9.011
  332SOL     OW 2834   7.414   1.653   7.762
  332SOL    HW1 2835   7.358   1.646   7.840
  332SOL    HW2 2836   7.459   1.737   7.772
  333SOL     OW 2837   6.608   0.727   2.805
  333SOL    HW1 2838   6.578   0.693   2.720
  333SOL    HW2 2839   6.635   0.817   2.787
  334SOL     OW 2840   5.495   6.755  14.755
  334SOL    HW1 2841   5.526   6.783  14.669
  334SOL    HW2 2842   5.487   6.660  14.748
  335SOL     OW 2843  11.293   1.904   3.019
  335SOL    HW1 2844  11.341   1.935   3.096
  335SOL    HW2 2845  11.257   1.984   2.980
  336SOL     OW 2846   4.700   5.824  13.605
  336SOL    HW1 2847   4.656   5.778  13.533
  336SOL    HW2 2848   4.707   5.915  13.574
  337SOL     OW 2849   0.286   3.158   7.592
  337SOL    HW1 2850   0.310   3.124   7.506
  337SOL    HW2 2851   0.207   3.111   7.616
  338SOL     OW 2852   4.382  11.974   8.186
  338SOL    HW1 2853   4.472  12.008   8.183
  338SOL    HW2 2854   4.327  12.051   8.177
  339SOL     OW 2855   6.871  11.405   4.358
  339SOL    HW1 2856   6.925  11.396   4.279
  339SOL    HW2 2857   6.851  11.498   4.363
  340SOL     OW 2858  10.550   4.871   8.093
  340SOL    HW1 2859  10.560   4.945   8.033
  340SOL    HW2 2860  10.468   4.829   8.065
  341SOL     OW 2861   8.280  10.013   4.826
  341SOL    HW1 2862   8.309  10.043   4.912
  341SOL    HW2 2863   8.208   9.952   4.845
  342SOL     OW 2864   3.918  13.515  10.658
  342SOL    HW1 2865   3.962  13.440  10.617
  342SOL    HW2 2866   3.843  13.532  10.601
  343SOL     OW 2867   4.927   6.236   6.488
  343SOL    HW1 2868   4.949   6.144   6.504
  343SOL    HW2 2869   4.851   6.232   6.430
  344SOL     OW 2870   1.138   2.695   5.669
  344SOL    HW1 2871   1.167   2.785   5.685
  344SOL    HW2 2872   1.173   2.673   5.583
  345SOL     OW 2873  13.306   6.066   6.588
  345SOL    HW1 2874  13.213   6.060   6.607
  345SOL    HW2 2875  13.335   5.975   6.579
  346SOL     OW 2876  11.497   0.642   2.051
  346SOL    HW1 2877  11.464   0.710   2.110
  346SOL    HW2 2878  11.561   0.687   1.996
  347SOL     OW 2879   8.321   3.544   8.086
  347SOL    HW1 2880   8.348   3.632   8.060
  347SOL    HW2 2881   8.395   3.488   8.059
  348SOL     OW 2882   8.674  11.329  12.105
  348SOL    HW1 2883   8.727  11.404  12.130
  348SOL    HW2 2884   8.660  11.339  12.010
  349SOL     OW 2885  13.043  14.721   7.190
  349SOL    HW1 2886  13.025  14.653   7.124
  349SOL    HW2 2887  12.976  14.708   7.256
  350SOL     OW 2888   3.599  13.789   6.088
  350SOL    HW1 2889   3.633  13.740   6.163
  350SOL    HW2 2890   3.542  13.727   6.042
  351SOL     OW 2891   9.650   1.290  12.997
  351SOL    HW1 2892   9.665   1.262  13.088
  351SOL    HW2 2893   9.555   1.292  12.988
  352SOL     OW 2894   8.347   0.874   0.466
  352SOL    HW1 2895   8.371   0.940   0.401
  352SOL    HW2 2896   8.392   0.901   0.546
  353SOL     OW 2897  11.730  12.239   5.602
  353SOL    HW1 2898  11.695  12.265   5.517
  353SOL    HW2 2899  11.738  12.143   5.596
  354SOL     OW 2900   8.041   6.716   8.432
  354SOL    HW1 2901   7.987   6.794   8.444
  354SOL    HW2 2902   8.081   6.728   8.347
  355SOL     OW 2903  10.226   0.874   9.103
  355SOL    HW1 2904  10.318   0.889   9.124
  355SOL    HW2 2905  10.197   0.810   9.167
  356SOL     OW 2906   8.229   6.273   0.725
  356SOL    HW1 2907   8.171   6.348   0.740
  356SOL    HW2 2908   8.314   6.303   0.760
  357SOL     OW 2909   2.094   0.877   5.980
  357SOL    HW1 2910   1.999   0.877   5.992
  357SOL    HW2 2911   2.113   0.790   5.946
  358SOL     OW 2912   1.154   1.732   9.295
  358SOL    HW1 2913   1.133   1.660   9.236
  358SOL    HW2 2914   1.112   1.808   9.256
  359SOL     OW 2915  13.692  12.598  10.252
  359SOL    HW1 2916  13.681  12.536  10.324
  359SOL    HW2 2917  13.618  12.581  10.194
  360SOL     OW 2918   5.674   8.634   2.864
  360SOL    HW1 2919   5.671   8.559   2.805
  360SOL    HW2 2920   5.622   8.607   2.940
  361SOL     OW 2921  11.104  13.084   1.736
  361SOL    HW1 2922  11.127  13.139   1.811
  361SOL    HW2 2923  11.011  13.061   1.750
  362SOL     OW 2924   0.104   5.402   5.047
  362SOL    HW1 2925   0.116   5.371   4.957
  362SOL    HW2 2926   0.125   5.327   5.101
  363SOL     OW 2927   3.239   9.889  13.184
  363SOL    HW1 2928   3.242   9.901  13.089
  363SOL    HW2 2929   3.239   9.794  13.196
  364SOL     OW 2930  10.053  12.370  10.370
  364SOL    HW1 2931  10.105  12.438  10.326
  364SOL    HW2 2932  10.118  12.315  10.415
  365SOL     OW 2933   7.477   3.917  14.034
  365SOL    HW1 2934   7.424   3.881  14.105
  365SOL    HW2 2935   7.557   3.865  14.035
  366SOL     OW 2936   6.943  14.122  10.676
  366SOL    HW1 2937   6.986  14.201  10.643
  366SOL    HW2 2938   6.939  14.135  10.771
  367SOL     OW 2939   1.618   6.838  12.823
  367SOL    HW1 2940   1.653   6.867  12.907
  367SOL    HW2 2941   1.613   6.918  12.771
  368SOL     OW 2942   2.736   3.039  11.876
  368SOL    HW1 2943   2.815   2.997  11.843
  368SOL    HW2 2944   2.695   3.078  11.798
  369SOL     OW 2945   0.454  13.688   9.490
  369SOL    HW1 2946   0.425  13.651   9.573
  369SOL    HW2 2947   0.542  13.722   9.508
  370SOL     OW 2948   6.472   1.649   3.704
  370SOL    HW1 2949   6.488   1.710   3.633
  370SOL    HW2 2950   6.550   1.593   3.706
  371SOL     OW 2951  11.941  13.902  13.524
  371SOL    HW1 2952  11.918  13.981  13.475
  371SOL    HW2 2953  11.901  13.914  13.610
  372SOL     OW 2954  12.575   9.843   1.275
  372SOL    HW1 2955  12.655   9.811   1.318
  372SOL    HW2 2956  12.504   9.803   1.324
  373SOL     OW 2957   0.606   9.862   4.206
  373SOL    HW1 2958   0.542   9.811   4.255
  373SOL    HW2 2959   0.659   9.797   4.160
  374SOL     OW 2960   6.852  11.902   0.528
  374SOL    HW1 2961   6.912  11.923   0.599
  374SOL    HW2 2962   6.893  11.827   0.483
  375SOL     OW 2963   8.268   4.782  10.229
  375SOL    HW1 2964   8.314   4.866  10.234
  375SOL    HW2 2965   8.178   4.805  10.207
  376SOL     OW 2966   0.846   0.052  11.691
  376SOL    HW1 2967   0.905   0.094  11.628
  376SOL    HW2 2968   0.898   0.045  11.771
  377SOL     OW 2969  11.398  14.530  10.917
  377SOL    HW1 2970  11.328  14.528  10.851
  377SOL    HW2 2971  11.382  14.610  10.967
  378SOL     OW 2972   7.193  11.464  11.375
  378SOL    HW1 2973   7.125  11.530  11.388
  378SOL    HW2 2974   7.148  11.380  11.387
  379SOL     OW 2975   9.360  14.778  14.656
  379SOL    HW1 2976   9.344  14.827  14.737
  379SOL    HW2 2977   9.416  14.705  14.683
  380SOL     OW 2978   1.084  10.251  10.131
  380SOL    HW1 2979   1.121  10.334  10.162
  380SOL    HW2 2980   1.098  10.252  10.037
  381SOL     OW 2981  12.863   6.627  10.694
  381SOL    HW1 2982  12.906   6.640  10.779
  381SOL    HW2 2983  12.854   6.716  10.659
  382SOL     OW 2984   0.694   8.017  10.068
  382SOL    HW1 2985   0.764   8.074  10.036
  382SOL    HW2 2986   0.736   7.931  10.076
  383SOL     OW 2987   7.611  11.431   5.775
  383SOL    HW1 2988   7.561  11.348   5.777
  383SOL    HW2 2989   7.672  11.421   5.702
  384SOL     OW 2990   9.551  11.543  11.411
  384SOL    HW1 2991   9.586  11.521  11.497
  384SOL    HW2 2992   9.602  11.619  11.382
  385SOL     OW 2993   0.496   8.977  13.293
  385SOL    HW1 2994   0.588   8.965  13.316
  385SOL    HW2 2995   0.461   9.031  13.364
  386SOL     OW 2996   2.429   0.765  11.012
  386SOL    HW1 2997   2.490   0.748  11.085
  386SOL    HW2 2998   2.486   0.795  10.941
  387SOL     OW 2999   7.411  12.526  10.899
  387SOL    HW1 3000   7.409  12.619  10.879
  387SOL    HW2 3001   7.499  12.511  10.932
  388SOL     OW 3002   5.456  13.952  11.695
  388SOL    HW1 3003   5.475  13.871  11.742
  388SOL    HW2 3004   5.395  13.927  11.627
  389SOL     OW 3005   3.874  12.038   1.337
  389SOL    HW1 3006   3.833  12.107   1.285
  389SOL    HW2 3007   3.894  11.969   1.274
  390SOL     OW 3008   1.740  11.627   5.445
  390SOL    HW1 3009   1.727  11.552   5.387
  390SOL    HW2 3010   1.835  11.634   5.455
  391SOL     OW 3011  11.259   5.656   9.582
  391SOL    HW1 3012  11.304   5.633   9.664
  391SOL    HW2 3013  11.171   5.621   9.593
  392SOL     OW 3014   6.551  11.920   4.076
  392SOL    HW1 3015   6.545  11.875   3.992
  392SOL    HW2 3016   6.563  12.012   4.054
  393SOL     OW 3017   6.156  13.278   2.333
  393SOL    HW1 3018   6.066  13.250   2.314
  393SOL    HW2 3019   6.202  13.268   2.249
  394SOL     OW 3020  14.389   7.573  10.601
  394SOL    HW1 3021  14.333   7.510  10.647
  394SOL    HW2 3022  14.412   7.529  10.519
  395SOL     OW 3023   2.008   7.666  11.844
  395SOL    HW1 3024   1.982   7.738  11.786
  395SOL    HW2 3025   2.000   7.587  11.790
  396SOL     OW 3026   6.017  12.120  11.856
  396SOL    HW1 3027   6.056  12.034  11.873
  396SOL    HW2 3028   6.092  12.179  11.852
  397SOL     OW 3029   4.693   6.768   9.454
  397SOL    HW1 3030   4.707   6.725   9.539
  397SOL    HW2 3031   4.664   6.856   9.477
  398SOL     OW 3032   8.709   9.615   6.224
  398SOL    HW1 3033   8.727   9.682   6.290
  398SOL    HW2 3034   8.739   9.534   6.265
  399SOL     OW 3035   7.177  12.551  11.022
  399SOL    HW1 3036   7.268  12.543  10.996
  399SOL    HW2 3037   7.128  12.548  10.940
  400SOL     OW 3038  13.817  14.319  12.650
  400SOL    HW1 3039  13.894  14.373  12.665
  400SOL    HW2 3040  13.756  14.376  12.603
  401SOL     OW 3041  13.513  13.347   3.134
  401SOL    HW1 3042  13.608  13.354   3.123
  401SOL    HW2 3043  13.502  13.298   3.216
  402SOL     OW 3044  10.796   6.501  12.726
  402SOL    HW1 3045  10.821   6.426  12.672
  402SOL    HW2 3046  10.711   6.477  12.762
  403SOL     OW 3047   3.279  10.536   8.306
  403SOL    HW1 3048   3.359  10.583   8.330
  403SOL    HW2 3049   3.292  10.447   8.339
  404SOL     OW 3050   9.130  13.506  13.932
  404SOL    HW1 3051   9.115  13.551  14.015
  404SOL    HW2 3052   9.063  13.438  13.929
  405SOL     OW 3053   0.027   4.078  12.963
  405SOL    HW1 3054  14.869   4.058  13.049
  405SOL    HW2 3055   0.021   4.174  12.956
  406SOL     OW 3056   7.756   4.415   4.207
  406SOL    HW1 3057   7.741   4.483   4.141
  406SOL    HW2 3058   7.756   4.333   4.158
  407SOL     OW 3059   7.169   5.797   8.157
  407SOL    HW1 3060   7.218   5.801   8.239
  407SOL    HW2 3061   7.179   5.707   8.127
  408SOL     OW 3062   4.182   0.159  14.679
  408SOL    HW1 3063   4.187   0.247  14.716
  408SOL    HW2 3064   4.099   0.124  14.712
  409SOL     OW 3065  12.700   3.967   0.488
  409SOL    HW1 3066  12.642   3.968   0.412
  409SOL    HW2 3067  12.696   4.057   0.522
  410SOL     OW 3068  10.470  10.083  10.143
  410SOL    HW1 3069  10.562  10.102  10.159
  410SOL    HW2 3070  10.459   9.991  10.169
  411SOL     OW 3071   7.321  10.881  10.611
  411SOL    HW1 3072   7.227  10.862  10.617
  411SOL    HW2 3073   7.325  10.971  10.581
  412SOL     OW 3074   3.912   9.141  14.281
  412SOL    HW1 3075   3.845   9.196  14.322
  412SOL    HW2 3076   3.862   9.077  14.229
  413SOL     OW 3077  14.714   9.981  12.649
  413SOL    HW1 3078  14.802  10.015  12.664
  413SOL    HW2 3079  14.656  10.052  12.675
  414SOL     OW 3080  11.303   0.043  12.749
  414SOL    HW1 3081  11.286   0.127  12.706
  414SOL    HW2 3082  11.224  14.871  12.731
  415SOL     OW 3083   3.587  10.255   9.231
  415SOL    HW1 3084   3.654  10.323   9.229
  415SOL    HW2 3085   3.625  10.185   9.284
  416SOL     OW 3086  11.224  12.505  13.252
  416SOL    HW1 3087  11.240  12.584  13.201
  416SOL    HW2 3088  11.193  12.441  13.187
  417SOL     OW 3089   5.034  11.389   8.686
  417SOL    HW1 3090   5.069  11.343   8.610
  417SOL    HW2 3091   4.953  11.429   8.654
  418SOL     OW 3092   1.131   1.910   0.428
  418SOL    HW1 3093   1.038   1.933   0.425
  418SOL    HW2 3094   1.137   1.842   0.494
  419SOL     OW 3095  12.154  12.821   0.746
  419SOL    HW1 3096  12.189  12.772   0.821
  419SOL    HW2 3097  12.060  12.802   0.746
  420SOL     OW 3098   1.660   5.570   2.377
  420SOL    HW1 3099   1.572   5.588   2.346
  420SOL    HW2 3100   1.659   5.478   2.403
  421SOL     OW 3101  10.528  12.709   9.935
  421SOL    HW1 3102  10.457  12.645   9.941
  421SOL    HW2 3103  10.564  12.713  10.024
  422SOL     OW 3104   2.233   8.195  13.815
  422SOL    HW1 3105   2.148   8.232  13.791
  422SOL    HW2 3106   2.236   8.201  13.911
  423SOL     OW 3107   5.430   9.143  13.342
  423SOL    HW1 3108   5.430   9.192  13.425
  423SOL    HW2 3109   5.522   9.130  13.322
  424SOL     OW 3110   4.343   9.830   5.260
  424SOL    HW1 3111   4.358   9.760   5.195
  424SOL    HW2 3112   4.417   9.822   5.320
  425SOL     OW 3113  10.015   1.321   8.518
  425SOL    HW1 3114  10.105   1.341   8.492
  425SOL    HW2 3115  10.022   1.284   8.606
  426SOL     OW 3116   4.883  12.174   6.613
  426SOL    HW1 3117   4.956  12.199   6.670
  426SOL    HW2 3118   4.827  12.120   6.668
  427SOL     OW 3119  12.334   7.359   8.446
  427SOL    HW1 3120  12.365   7.269   8.448
  427SOL    HW2 3121  12.290   7.371   8.530
  428SOL     OW 3122   4.805  14.140   6.660
  428SOL    HW1 3123   4.855  14.203   6.713
  428SOL    HW2 3124   4.859  14.061   6.659
  429SOL     OW 3125   9.252  10.556  12.319
  429SOL    HW1 3126   9.282  10.630  12.372
  429SOL    HW2 3127   9.275  10.579  12.229
  430SOL     OW 3128   4.971   6.245   8.873
  430SOL    HW1 3129   5.058   6.267   8.906
  430SOL    HW2 3130   4.915   6.243   8.950
  431SOL     OW 3131   1.031  13.363  10.711
  431SOL    HW1 3132   1.083  13.421  10.656
  431SOL    HW2 3133   1.087  13.343  10.786
  432SOL     OW 3134   1.616   9.197   6.883
  432SOL    HW1 3135   1.669   9.247   6.945
  432SOL    HW2 3136   1.551   9.153   6.938
  433SOL     OW 3137   4.105  14.260   3.101
  433SOL    HW1 3138   4.087  14.280   3.009
  433SOL    HW2 3139   4.107  14.346   3.144
  434SOL     OW 3140  14.803  13.168   0.695
  434SOL    HW1 3141  14.831  13.260   0.700
  434SOL    HW2 3142  14.863  13.128   0.632
  435SOL     OW 3143   3.442   8.561   5.230
  435SOL    HW1 3144   3.402   8.497   5.172
  435SOL    HW2 3145   3.427   8.527   5.318
  436SOL     OW 3146   0.260   0.604  11.282
  436SOL    HW1 3147   0.194   0.587  11.215
  436SOL    HW2 3148   0.344   0.588  11.238
  437SOL     OW 3149   7.962  12.500   1.149
  437SOL    HW1 3150   7.982  12.579   1.099
  437SOL    HW2 3151   7.952  12.531   1.239
  438SOL     OW 3152   5.542   9.704   1.959
  438SOL    HW1 3153   5.451   9.718   1.933
  438SOL    HW2 3154   5.587   9.784   1.932
  439SOL     OW 3155   7.290   8.435  11.510
  439SOL    HW1 3156   7.374   8.401  11.541
  439SOL    HW2 3157   7.245   8.462  11.590
  440SOL     OW 3158   8.088  13.604   5.231
  440SOL    HW1 3159   8.172  13.625   5.191
  440SOL    HW2 3160   8.043  13.551   5.166
  441SOL     OW 3161   6.775   4.376  12.082
  441SOL    HW1 3162   6.704   4.370  12.146
  441SOL    HW2 3163   6.731   4.369  11.997
  442SOL     OW 3164  10.976   3.713   3.274
  442SOL    HW1 3165  10.982   3.791   3.330
  442SOL    HW2 3166  10.937   3.646   3.331
  443SOL     OW 3167   1.603  14.167   9.318
  443SOL    HW1 3168   1.656  14.247   9.320
  443SOL    HW2 3169   1.528  14.187   9.374
  444SOL     OW 3170  14.361  11.499   5.542
  444SOL    HW1 3171  14.341  11.434   5.476
  444SOL    HW2 3172  14.420  11.561   5.499
  445SOL     OW 3173   6.895   0.793  13.411
  445SOL    HW1 3174   6.880   0.742  13.490
  445SOL    HW2 3175   6.889   0.884  13.440
  446SOL     OW 3176   9.843   4.578   1.932
  446SOL    HW1 3177   9.853   4.515   1.861
  446SOL    HW2 3178   9.873   4.531   2.010
  447SOL     OW 3179   7.417   9.081   1.181
  447SOL    HW1 3180   7.446   8.994   1.205
  447SOL    HW2 3181   7.450   9.095   1.093
  448SOL     OW 3182  12.114   3.683  12.729
  448SOL    HW1 3183  12.199   3.640  12.741
  448SOL    HW2 3184  12.097   3.676  12.635
  449SOL     OW 3185  12.260  10.214  13.984
  449SOL    HW1 3186  12.226  10.298  13.952
  449SOL    HW2 3187  12.265  10.159  13.905
  450SOL     OW 3188   1.824   2.744  11.696
  450SOL    HW1 3189   1.872   2.676  11.648
  450SOL    HW2 3190   1.735   2.709  11.705
  451SOL     OW 3191   5.168   0.217   3.311
  451SOL    HW1 3192   5.145   0.299   3.268
  451SOL    HW2 3193   5.101   0.205   3.378
  452SOL     OW 3194   2.530   5.555   7.754
  452SOL    HW1 3195   2.434   5.560   7.754
  452SOL    HW2 3196   2.556   5.608   7.679
  453SOL     OW 3197   1.133   2.886  11.533
  453SOL    HW1 3198   1.211   2.928  11.495
  453SOL    HW2 3199   1.090   2.844  11.458
  454SOL     OW 3200  14.060   1.727  13.536
  454SOL    HW1 3201  14.034   1.809  13.494
  454SOL    HW2 3202  14.005   1.722  13.614
  455SOL     OW 3203  11.099   8.877  13.663
  455SOL    HW1 3204  11.191   8.858  13.647
  455SOL    HW2 3205  11.062   8.892  13.576
  456SOL     OW 3206  10.334  11.894   2.325
  456SOL    HW1 3207  10.360  11.975   2.280
  456SOL    HW2 3208  10.255  11.918   2.373
  457SOL     OW 3209  11.814  14.761   5.924
  457SOL    HW1 3210  11.801  14.667   5.918
  457SOL    HW2 3211  11.760  14.789   5.997
  458SOL     OW 3212  14.241   5.189  14.443
  458SOL    HW1 3213  14.229   5.263  14.503
  458SOL    HW2 3214  14.333   5.192  14.419
  459SOL     OW 3215   8.876  14.451   2.360
  459SOL    HW1 3216   8.947  14.391   2.336
  459SOL    HW2 3217   8.884  14.523   2.297
  460SOL     OW 3218   0.680   5.138  14.526
  460SOL    HW1 3219   0.708   5.211  14.580
  460SOL    HW2 3220   0.736   5.141  14.448
  461SOL     OW 3221   8.695   9.689   1.416
  461SOL    HW1 3222   8.738   9.765   1.455
  461SOL    HW2 3223   8.751   9.665   1.342
  462SOL     OW 3224   0.733  13.381   3.708
  462SOL    HW1 3225   0.742  13.340   3.794
  462SOL    HW2 3226   0.702  13.312   3.651
  463SOL     OW 3227   5.205   3.004   0.679
  463SOL    HW1 3228   5.120   2.997   0.721
  463SOL    HW2 3229   5.185   3.025   0.588
  464SOL     OW 3230   2.118   7.453  10.176
  464SOL    HW1 3231   2.112   7.522  10.109
  464SOL    HW2 3232   2.044   7.469  10.233
  465SOL     OW 3233   0.731  13.619  11.515
  465SOL    HW1 3234   0.714  13.585  11.603
  465SOL    HW2 3235   0.788  13.554  11.475
  466SOL     OW 3236   3.589   0.743   5.472
  466SOL    HW1 3237   3.596   0.715   5.563
  466SOL    HW2 3238   3.587   0.838   5.475
  467SOL     OW 3239  10.993  13.910  13.158
  467SOL    HW1 3240  11.068  13.918  13.217
  467SOL    HW2 3241  10.917  13.900  13.215
  468SOL     OW 3242  13.399   7.966   4.398
  468SOL    HW1 3243  13.461   8.030   4.365
  468SOL    HW2 3244  13.369   7.919   4.321
  469SOL     OW 3245  14.307   5.069  11.031
  469SOL    HW1 3246  14.339   5.045  11.118
  469SOL    HW2 3247  14.334   4.996  10.975
  470SOL     OW 3248   0.753   6.175   9.958
  470SOL    HW1 3249   0.697   6.236   9.910
  470SOL    HW2 3250   0.839   6.217   9.960
  471SOL     OW 3251   3.796   2.984   6.110
  471SOL    HW1 3252   3.713   2.945   6.084
  471SOL    HW2 3253   3.802   2.967   6.204
  472SOL     OW 3254   3.170   6.585  11.165
  472SOL    HW1 3255   3.154   6.679  11.173
  472SOL    HW2 3256   3.263   6.575  11.185
  473SOL     OW 3257   2.270  14.560   4.423
  473SOL    HW1 3258   2.327  14.626   4.461
  473SOL    HW2 3259   2.222  14.523   4.497
  474SOL     OW 3260  13.631   9.451  11.833
  474SOL    HW1 3261  13.622   9.362  11.867
  474SOL    HW2 3262  13.726   9.468  11.834
  475SOL     OW 3263   5.064   2.885   2.671
  475SOL    HW1 3264   4.981   2.911   2.631
  475SOL    HW2 3265   5.130   2.932   2.621
  476SOL     OW 3266   4.539   7.909  12.246
  476SOL    HW1 3267   4.597   7.971  12.290
  476SOL    HW2 3268   4.540   7.936  12.154
  477SOL     OW 3269   1.677   0.760   1.776
  477SOL    HW1 3270   1.689   0.830   1.839
  477SOL    HW2 3271   1.583   0.741   1.779
  478SOL     OW 3272   0.338   0.614   3.408
  478SOL    HW1 3273   0.255   0.600   3.362
  478SOL    HW2 3274   0.314   0.618   3.500
  479SOL     OW 3275   2.999   3.982   6.629
  479SOL    HW1 3276   2.997   3.895   6.590
  479SOL    HW2 3277   2.915   4.022   6.604
  480SOL     OW 3278   0.726   7.633  12.913
  480SOL    HW1 3279   0.802   7.634  12.855
  480SOL    HW2 3280   0.669   7.565  12.877
  481SOL     OW 3281  12.376   7.008  12.807
  481SOL    HW1 3282  12.370   7.103  12.802
  481SOL    HW2 3283  12.422   6.982  12.727
  482SOL     OW 3284   5.518   2.108  13.568
  482SOL    HW1 3285   5.528   2.157  13.650
  482SOL    HW2 3286   5.585   2.041  13.571
  483SOL     OW 3287   3.418  14.358   5.174
  483SOL    HW1 3288   3.405  14.268   5.143
  483SOL    HW2 3289   3.334  14.401   5.159
  484SOL     OW 3290  13.595   6.064   8.516
  484SOL    HW1 3291  13.664   6.078   8.580
  484SOL    HW2 3292  13.639   6.020   8.443
  485SOL     OW 3293   8.873   4.469   1.087
  485SOL    HW1 3294   8.790   4.499   1.122
  485SOL    HW2 3295   8.930   4.546   1.091
  486SOL     OW 3296  10.964   4.718   3.010
  486SOL    HW1 3297  10.973   4.624   3.023
  486SOL    HW2 3298  10.972   4.755   3.098
  487SOL     OW 3299  10.137  10.662   1.830
  487SOL    HW1 3300  10.090  10.620   1.758
  487SOL    HW2 3301  10.093  10.629   1.909
  488SOL     OW 3302   5.612   7.887   5.995
  488SOL    HW1 3303   5.557   7.964   5.996
  488SOL    HW2 3304   5.701   7.921   6.008
  489SOL     OW 3305   4.394   5.298   4.421
  489SOL    HW1 3306   4.404   5.208   4.389
  489SOL    HW2 3307   4.472   5.343   4.388
  490SOL     OW 3308   5.319   4.512   3.156
  490SOL    HW1 3309   5.306   4.432   3.206
  490SOL    HW2 3310   5.268   4.578   3.203
  491SOL     OW 3311  10.134   2.405   6.372
  491SOL    HW1 3312  10.190   2.378   6.300
  491SOL    HW2 3313  10.195   2.440   6.438
  492SOL     OW 3314   2.407   8.460   9.962
  492SOL    HW1 3315   2.445   8.372   9.954
  492SOL    HW2 3316   2.419   8.483  10.054
  493SOL     OW 3317   0.958  14.094  12.588
  493SOL    HW1 3318   0.943  14.136  12.672
  493SOL    HW2 3319   0.996  14.162  12.533
  494SOL     OW 3320  12.262  13.679   0.310
  494SOL    HW1 3321  12.174  13.714   0.296
  494SOL    HW2 3322  12.320  13.742   0.267
  495SOL     OW 3323   3.728   4.057   6.808
  495SOL    HW1 3324   3.793   4.127   6.809
  495SOL    HW2 3325   3.679   4.072   6.727
  496SOL     OW 3326   8.120  12.013   2.364
  496SOL    HW1 3327   8.213  12.023   2.382
  496SOL    HW2 3328   8.102  12.076   2.294
  497SOL     OW 3329   5.116  13.899   7.322
  497SOL    HW1 3330   5.037  13.849   7.340
  497SOL    HW2 3331   5.146  13.928   7.409
  498SOL     OW 3332  10.521  12.196   7.603
  498SOL    HW1 3333  10.481  12.214   7.518
  498SOL    HW2 3334  10.542  12.282   7.639
  499SOL     OW 3335   3.435   6.806  12.149
  499SOL    HW1 3336   3.446   6.815  12.244
  499SOL    HW2 3337   3.406   6.892  12.120
  500SOL     OW 3338  12.446   5.921   9.329
  500SOL    HW1 3339  12.487   6.006   9.347
  500SOL    HW2 3340  12.387   5.907   9.404
  501SOL     OW 3341   4.223   2.794   0.505
  501SOL    HW1 3342   4.291   2.728   0.497
  501SOL    HW2 3343   4.266   2.869   0.545
  502SOL     OW 3344   8.001   7.842  11.099
  502SOL    HW1 3345   8.011   7.813  11.190
  502SOL    HW2 3346   8.044   7.927  11.096
  503SOL     OW 3347   1.149   4.947  14.468
  503SOL    HW1 3348   1.164   4.923  14.559
  503SOL    HW2 3349   1.223   5.004  14.446
  504SOL     OW 3350  11.063   8.247   6.722
  504SOL    HW1 3351  10.978   8.291   6.728
  504SOL    HW2 3352  11.062   8.183   6.794
  505SOL     OW 3353  13.737   1.670  13.518
  505SOL    HW1 3354  13.735   1.744  13.579
  505SOL    HW2 3355  13.723   1.709  13.432
  506SOL     OW 3356   3.234   0.330   6.977
  506SOL    HW1 3357   3.305   0.358   7.035
  506SOL    HW2 3358   3.258   0.240   6.952
  507SOL     OW 3359   0.192  13.652   9.772
  507SOL    HW1 3360   0.282  13.620   9.778
  507SOL    HW2 3361   0.181  13.706   9.850
  508SOL     OW 3362   6.864   6.463   9.356
  508SOL    HW1 3363   6.927   6.526   9.322
  508SOL    HW2 3364   6.806   6.515   9.412
  509SOL     OW 3365   8.765   8.406   5.973
  509SOL    HW1 3366   8.699   8.469   5.945
  509SOL    HW2 3367   8.777   8.348   5.897
  510SOL     OW 3368   3.636   6.388   1.491
  510SOL    HW1 3369   3.649   6.449   1.564
  510SOL    HW2 3370   3.561   6.424   1.444
  511SOL     OW 3371   5.209  11.399   0.749
  511SOL    HW1 3372   5.297  11.435   0.758
  511SOL    HW2 3373   5.206  11.365   0.660
  512SOL     OW 3374   1.610   0.133   5.037
  512SOL    HW1 3375   1.625   0.063   5.100
  512SOL    HW2 3376   1.643   0.212   5.080
  513SOL     OW 3377  10.915   7.985   0.358
  513SOL    HW1 3378  10.956   8.038   0.290
  513SOL    HW2 3379  10.950   7.897   0.344
  514SOL     OW 3380   3.388   6.370   8.249
  514SOL    HW1 3381   3.312   6.379   8.191
  514SOL    HW2 3382   3.385   6.448   8.304
  515SOL     OW 3383   6.902   8.023   5.294
  515SOL    HW1 3384   6.995   8.000   5.288
  515SOL    HW2 3385   6.863   7.984   5.216
  516SOL     OW 3386   9.244   5.681   6.614
  516SOL    HW1 3387   9.238   5.595   6.572
  516SOL    HW2 3388   9.327   5.717   6.584
  517SOL     OW 3389   3.414   7.218   5.654
  517SOL    HW1 3390   3.443   7.165   5.728
  517SOL    HW2 3391   3.371   7.156   5.596
  518SOL     OW 3392  13.525   4.761  10.529
  518SOL    HW1 3393  13.497   4.728  10.444
  518SOL    HW2 3394  13.573   4.841  10.509
  519SOL     OW 3395  11.397   1.862  10.942
  519SOL    HW1 3396  11.333   1.828  10.879
  519SOL    HW2 3397  11.376   1.817  11.023
  520SOL     OW 3398   7.402   8.392  13.883
  520SOL    HW1 3399   7.341   8.462  13.858
  520SOL    HW2 3400   7.368   8.314  13.839
  521SOL     OW 3401  10.855   4.968   6.162
  521SOL    HW1 3402  10.762   4.952   6.152
  521SOL    HW2 3403  10.861   5.038   6.227
  522SOL     OW 3404   1.431   3.172   6.311
  522SOL    HW1 3405   1.367   3.214   6.368
  522SOL    HW2 3406   1.392   3.176   6.224
  523SOL     OW 3407   7.468  14.273   8.333
  523SOL    HW1 3408   7.517  14.355   8.336
  523SOL    HW2 3409   7.418  14.277   8.252
  524SOL     OW 3410  11.139  10.535  13.536
  524SOL    HW1 3411  11.146  10.591  13.613
  524SOL    HW2 3412  11.180  10.453  13.562
  525SOL     OW 3413   6.916  12.464   3.564
  525SOL    HW1 3414   6.877  12.378   3.577
  525SOL    HW2 3415   6.844  12.518   3.532
  526SOL     OW 3416   0.785  11.403  14.015
  526SOL    HW1 3417   0.772  11.327  13.958
  526SOL    HW2 3418   0.771  11.479  13.958
  527SOL     OW 3419  10.591   0.921   3.847
  527SOL    HW1 3420  10.546   0.999   3.815
  527SOL    HW2 3421  10.549   0.848   3.800
  528SOL     OW 3422  12.662   1.062   1.061
  528SOL    HW1 3423  12.717   1.096   1.132
  528SOL    HW2 3424  12.701   1.097   0.981
  529SOL     OW 3425   3.057   7.862   9.236
  529SOL    HW1 3426   3.131   7.923   9.243
  529SOL    HW2 3427   3.049   7.825   9.324
  530SOL     OW 3428   3.898  13.774   5.130
  530SOL    HW1 3429   3.863  13.788   5.217
  530SOL    HW2 3430   3.893  13.679   5.117
  531SOL     OW 3431  14.220  13.947   4.997
  531SOL    HW1 3432  14.200  13.868   4.947
  531SOL    HW2 3433  14.314  13.959   4.985
  532SOL     OW 3434   6.267   1.149  13.698
  532SOL    HW1 3435   6.266   1.120  13.607
  532SOL    HW2 3436   6.218   1.082  13.745
  533SOL     OW 3437   4.292   5.534   1.559
  533SOL    HW1 3438   4.223   5.591   1.592
  533SOL    HW2 3439   4.269   5.447   1.590
  534SOL     OW 3440   0.785   5.729   0.676
  534SOL    HW1 3441   0.794   5.811   0.725
  534SOL    HW2 3442   0.691   5.712   0.674
  535SOL     OW 3443   2.016   1.887   5.020
  535SOL    HW1 3444   2.084   1.930   5.071
  535SOL    HW2 3445   1.936   1.898   5.073
  536SOL     OW 3446   8.150   6.401   1.658
  536SOL    HW1 3447   8.151   6.493   1.684
  536SOL    HW2 3448   8.168   6.403   1.564
  537SOL     OW 3449  11.804   0.092  14.214
  537SOL    HW1 3450  11.889   0.052  14.195
  537SOL    HW2 3451  11.794   0.158  14.145
  538SOL     OW 3452  10.767   8.515   9.305
  538SOL    HW1 3453  10.751   8.476   9.391
  538SOL    HW2 3454  10.854   8.485   9.280
  539SOL     OW 3455  10.551   6.595  11.029
  539SOL    HW1 3456  10.612   6.522  11.022
  539SOL    HW2 3457  10.596   6.659  11.083
  540SOL     OW 3458   8.876  14.354   0.705
  540SOL    HW1 3459   8.921  14.272   0.723
  540SOL    HW2 3460   8.946  14.420   0.702
  541SOL     OW 3461  14.029   3.221   2.045
  541SOL    HW1 3462  14.084   3.292   2.012
  541SOL    HW2 3463  14.069   3.197   2.128
  542SOL     OW 3464   1.404   2.238   2.930
  542SOL    HW1 3465   1.343   2.221   3.001
  542SOL    HW2 3466   1.489   2.206   2.963
  543SOL     OW 3467   8.495   1.201  14.052
  543SOL    HW1 3468   8.581   1.206  14.009
  543SOL    HW2 3469   8.475   1.108  14.054
  544SOL     OW 3470   2.880  10.719  10.894
  544SOL    HW1 3471   2.838  10.720  10.808
  544SOL    HW2 3472   2.919  10.807  10.902
  545SOL     OW 3473  11.690   6.743   0.422
  545SOL    HW1 3474  11.752   6.692   0.370
  545SOL    HW2 3475  11.671   6.820   0.368
  546SOL     OW 3476   7.095   8.311   7.480
  546SOL    HW1 3477   7.067   8.376   7.416
  546SOL    HW2 3478   7.171   8.269   7.440
  547SOL     OW 3479  10.952  10.229  13.647
  547SOL    HW1 3480  10.998  10.149  13.621
  547SOL    HW2 3481  10.872  10.229  13.594
  548SOL     OW 3482   4.892  13.853   1.312
  548SOL    HW1 3483   4.940  13.807   1.243
  548SOL    HW2 3484   4.910  13.946   1.296
  549SOL     OW 3485   7.097  13.894  10.850
  549SOL    HW1 3486   7.166  13.943  10.805
  549SOL    HW2 3487   7.023  13.894  10.790
  550SOL     OW 3488  11.233   2.169   6.350
  550SOL    HW1 3489  11.191   2.224   6.416
  550SOL    HW2 3490  11.294   2.228   6.305
  551SOL     OW 3491   3.314   0.328  11.101
  551SOL    HW1 3492   3.311   0.320  11.197
  551SOL    HW2 3493   3.237   0.280  11.071
  552SOL     OW 3494   5.536   7.192   3.884
  552SOL    HW1 3495   5.448   7.230   3.884
  552SOL    HW2 3496   5.586   7.247   3.945
  553SOL     OW 3497   0.200   4.675   9.644
  553SOL    HW1 3498   0.138   4.619   9.598
  553SOL    HW2 3499   0.263   4.702   9.576
  554SOL     OW 3500  11.748   9.700   6.003
  554SOL    HW1 3501  11.824   9.647   6.029
  554SOL    HW2 3502  11.767   9.787   6.038
  555SOL     OW 3503   0.599   2.466  10.098
  555SOL    HW1 3504   0.597   2.537  10.162
  555SOL    HW2 3505   0.674   2.413  10.124
  556SOL     OW 3506   0.565   6.384   4.335
  556SOL    HW1 3507   0.490   6.328   4.356
  556SOL    HW2 3508   0.530   6.473   4.337
  557SOL     OW 3509   4.399   1.032   9.831
  557SOL    HW1 3510   4.464   1.082   9.881
  557SOL    HW2 3511   4.420   0.940   9.852
  558SOL     OW 3512  12.606  11.453   2.492
  558SOL    HW1 3513  12.681  11.475   2.548
  558SOL    HW2 3514  12.610  11.517   2.420
  559SOL     OW 3515   0.094   0.463   3.816
  559SOL    HW1 3516   0.052   0.387   3.857
  559SOL    HW2 3517   0.141   0.506   3.887
  560SOL     OW 3518  14.234  12.336  10.616
  560SOL    HW1 3519  14.324  12.338  10.584
  560SOL    HW2 3520  14.242  12.323  10.711
  561SOL     OW 3521   6.924   7.086   5.407
  561SOL    HW1 3522   6.972   7.009   5.377
  561SOL    HW2 3523   6.991   7.155   5.411
  562SOL     OW 3524   4.721   9.536   4.956
  562SOL    HW1 3525   4.730   9.628   4.932
  562SOL    HW2 3526   4.691   9.538   5.047
  563SOL     OW 3527  13.965   7.510   7.933
  563SOL    HW1 3528  13.894   7.526   7.871
  563SOL    HW2 3529  14.038   7.563   7.901
  564SOL     OW 3530   4.872   3.065   8.904
  564SOL    HW1 3531   4.939   3.037   8.842
  564SOL    HW2 3532   4.871   2.997   8.971
  565SOL     OW 3533   9.857  10.524   2.379
  565SOL    HW1 3534   9.774  10.556   2.343
  565SOL    HW2 3535   9.922  10.586   2.345
  566SOL     OW 3536   5.548   8.962   3.969
  566SOL    HW1 3537   5.631   8.914   3.964
  566SOL    HW2 3538   5.491   8.906   4.021
  567SOL     OW 3539  11.662   6.512  10.761
  567SOL    HW1 3540  11.639   6.480  10.849
  567SOL    HW2 3541  11.581   6.502  10.711
  568SOL     OW 3542   5.348   9.923   0.493
  568SOL    HW1 3543   5.441   9.929   0.472
  568SOL    HW2 3544   5.334   9.992   0.558
  569SOL     OW 3545   3.505  10.504   5.951
  569SOL    HW1 3546   3.451  10.462   5.884
  569SOL    HW2 3547   3.542  10.432   6.001
  570SOL     OW 3548   4.426  14.243   1.762
  570SOL    HW1 3549   4.338  14.248   1.724
  570SOL    HW2 3550   4.484  14.273   1.692
  571SOL     OW 3551   1.748   9.879   6.991
  571SOL    HW1 3552   1.712   9.942   7.053
  571SOL    HW2 3553   1.722   9.911   6.905
  572SOL     OW 3554   3.294  10.356   3.154
  572SOL    HW1 3555   3.200  10.343   3.167
  572SOL    HW2 3556   3.329  10.267   3.149
  573SOL     OW 3557   8.660  11.161  13.761
  573SOL    HW1 3558   8.597  11.102  13.801
  573SOL    HW2 3559   8.630  11.170  13.670
  574SOL     OW 3560   1.806  13.996  13.866
  574SOL    HW1 3561   1.788  13.934  13.795
  574SOL    HW2 3562   1.826  14.078  13.821
  575SOL     OW 3563   3.673   5.582   2.607
  575SOL    HW1 3564   3.688   5.503   2.556
  575SOL    HW2 3565   3.581   5.576   2.634
  576SOL     OW 3566   2.729   8.309   7.733
  576SOL    HW1 3567   2.727   8.403   7.752
  576SOL    HW2 3568   2.817   8.281   7.760
  577SOL     OW 3569   6.032   3.638   6.975
  577SOL    HW1 3570   6.068   3.669   6.892
  577SOL    HW2 3571   5.964   3.575   6.949
  578SOL     OW 3572  10.236   3.582   3.456
  578SOL    HW1 3573  10.267   3.667   3.487
  578SOL    HW2 3574  10.277   3.519   3.515
  579SOL     OW 3575   1.724   4.969   0.953
  579SOL    HW1 3576   1.653   5.023   0.988
  579SOL    HW2 3577   1.703   4.959   0.860
  580SOL     OW 3578   4.148  10.969  14.434
  580SOL    HW1 3579   4.190  10.918  14.502
  580SOL    HW2 3580   4.196  11.053  14.434
  581SOL     OW 3581  14.598   8.516  13.663
  581SOL    HW1 3582  14.577   8.581  13.596
  581SOL    HW2 3583  14.685   8.484  13.640
  582SOL     OW 3584  13.350  11.551  12.589
  582SOL    HW1 3585  13.395  11.504  12.518
  582SOL    HW2 3586  13.400  11.632  12.599
  583SOL     OW 3587   7.164   7.876   2.230
  583SOL    HW1 3588   7.099   7.907   2.293
  583SOL    HW2 3589   7.116   7.817   2.172
  584SOL     OW 3590   8.372   8.535   8.307
  584SOL    HW1 3591   8.305   8.527   8.375
  584SOL    HW2 3592   8.384   8.446   8.273
  585SOL     OW 3593   9.796   0.526   3.215
  585SOL    HW1 3594   9.817   0.616   3.189
  585SOL    HW2 3595   9.710   0.532   3.257
  586SOL     OW 3596   9.205   2.556   8.391
  586SOL    HW1 3597   9.294   2.592   8.385
  586SOL    HW2 3598   9.205   2.507   8.474
  587SOL     OW 3599  14.118   4.420   8.691
  587SOL    HW1 3600  14.201   4.394   8.730
  587SOL    HW2 3601  14.130   4.513   8.671
  588SOL     OW 3602   1.499  14.542  13.061
  588SOL    HW1 3603   1.535  14.478  13.121
  588SOL    HW2 3604   1.527  14.513  12.974
  589SOL     OW 3605  12.069   5.683   6.811
  589SOL    HW1 3606  12.095   5.772   6.786
  589SOL    HW2 3607  12.035   5.644   6.731
  590SOL     OW 3608   0.319  11.553  13.637
  590SOL    HW1 3609   0.356  11.606  13.567
  590SOL    HW2 3610   0.384  11.484  13.652
  591SOL     OW 3611   1.110  13.191   1.732
  591SOL    HW1 3612   1.029  13.187   1.681
  591SOL    HW2 3613   1.087  13.153   1.816
  592SOL     OW 3614   7.389   6.311   6.341
  592SOL    HW1 3615   7.342   6.232   6.314
  592SOL    HW2 3616   7.340   6.383   6.303
  593SOL     OW 3617  12.334   4.244   6.097
  593SOL    HW1 3618  12.249   4.236   6.055
  593SOL    HW2 3619  12.392   4.279   6.030
  594SOL     OW 3620   6.603  12.657   3.907
  594SOL    HW1 3621   6.654  12.579   3.884
  594SOL    HW2 3622   6.636  12.682   3.994
  595SOL     OW 3623   3.487   8.970  11.374
  595SOL    HW1 3624   3.485   9.064  11.356
  595SOL    HW2 3625   3.454   8.963  11.464
  596SOL     OW 3626   2.288   5.101  11.454
  596SOL    HW1 3627   2.225   5.046  11.501
  596SOL    HW2 3628   2.372   5.058  11.466
  597SOL     OW 3629   1.251   5.877   1.860
  597SOL    HW1 3630   1.207   5.878   1.776
  597SOL    HW2 3631   1.344   5.863   1.839
  598SOL     OW 3632  13.457   4.194   2.096
  598SOL    HW1 3633  13.413   4.226   2.018
  598SOL    HW2 3634  13.433   4.102   2.101
  599SOL     OW 3635   0.294   7.198   6.471
  599SOL    HW1 3636   0.356   7.189   6.543
  599SOL    HW2 3637   0.332   7.266   6.415
  600SOL     OW 3638   5.148   5.800  12.099
  600SOL    HW1 3639   5.056   5.781  12.080
  600SOL    HW2 3640   5.169   5.874  12.043
  601SOL     OW 3641  14.647  12.116   3.009
  601SOL    HW1 3642  14.646  12.209   3.033
  601SOL    HW2 3643  14.588  12.109   2.935
  602SOL     OW 3644   0.233   9.960   5.147
  602SOL    HW1 3645   0.179  10.016   5.203
  602SOL    HW2 3646   0.226   9.999   5.060
  603SOL     OW 3647   6.164   7.857  11.831
  603SOL    HW1 3648   6.085   7.803  11.824
  603SOL    HW2 3649   6.194   7.845  11.921
  604SOL     OW 3650   4.587   0.939   7.546
  604SOL    HW1 3651   4.627   1.023   7.522
  604SOL    HW2 3652   4.606   0.882   7.471
  605SOL     OW 3653  13.265   0.948   6.086
  605SOL    HW1 3654  13.347   0.900   6.079
  605SOL    HW2 3655  13.245   0.947   6.180
  606SOL     OW 3656   6.433  14.157   9.074
  606SOL    HW1 3657   6.490  14.092   9.033
  606SOL    HW2 3658   6.470  14.242   9.047
  607SOL     OW 3659   7.979   4.570   0.381
  607SOL    HW1 3660   8.036   4.641   0.351
  607SOL    HW2 3661   7.954   4.523   0.302
  608SOL     OW 3662   7.357   9.198  13.734
  608SOL    HW1 3663   7.401   9.123  13.774
  608SOL    HW2 3664   7.425   9.240  13.682
  609SOL     OW 3665  13.401  14.597   3.408
  609SOL    HW1 3666  13.346  14.564   3.478
  609SOL    HW2 3667  13.483  14.622   3.452
  610SOL     OW 3668   8.583   3.769  14.224
  610SOL    HW1 3669   8.621   3.855  14.246
  610SOL    HW2 3670   8.659   3.711  14.216
  611SOL     OW 3671   8.556   3.927   7.080
  611SOL    HW1 3672   8.578   3.848   7.030
  611SOL    HW2 3673   8.514   3.893   7.160
  612SOL     OW 3674  12.735  14.260   3.291
  612SOL    HW1 3675  12.677  14.204   3.239
  612SOL    HW2 3676  12.786  14.200   3.345
  613SOL     OW 3677   8.563   2.831  11.849
  613SOL    HW1 3678   8.480   2.811  11.894
  613SOL    HW2 3679   8.538   2.846  11.758
  614SOL     OW 3680  12.309   4.502   3.359
  614SOL    HW1 3681  12.285   4.495   3.451
  614SOL    HW2 3682  12.275   4.587   3.332
  615SOL     OW 3683   5.968   3.147  11.426
  615SOL    HW1 3684   5.929   3.182  11.507
  615SOL    HW2 3685   5.894   3.109  11.379
  616SOL     OW 3686   3.686   0.920  12.609
  616SOL    HW1 3687   3.601   0.916  12.652
  616SOL    HW2 3688   3.749   0.910  12.680
  617SOL     OW 3689  14.751  13.974   3.025
  617SOL    HW1 3690  14.731  14.067   3.012
  617SOL    HW2 3691  14.685  13.928   2.973
  618SOL     OW 3692   0.669  12.959   4.019
  618SOL    HW1 3693   0.633  13.019   4.084
  618SOL    HW2 3694   0.658  12.872   4.058
  619SOL     OW 3695   9.024  13.189   3.972
  619SOL    HW1 3696   9.111  13.153   3.989
  619SOL    HW2 3697   8.978  13.119   3.926
  620SOL     OW 3698   5.418   8.231   9.016
  620SOL    HW1 3699   5.362   8.233   9.094
  620SOL    HW2 3700   5.490   8.174   9.040
  621SOL     OW 3701   9.497  11.234   8.743
  621SOL    HW1 3702   9.483  11.300   8.810
  621SOL    HW2 3703   9.579  11.259   8.700
  622SOL     OW 3704   2.841  13.588  14.087
  622SOL    HW1 3705   2.795  13.560  14.008
  622SOL    HW2 3706   2.785  13.560  14.159
  623SOL     OW 3707  11.668  12.127   0.626
  623SOL    HW1 3708  11.615  12.066   0.678
  623SOL    HW2 3709  11.734  12.072   0.584
  624SOL     OW 3710  10.564  12.585  14.352
  624SOL    HW1 3711  10.586  12.675  14.327
  624SOL    HW2 3712  10.649  12.545  14.370
  625SOL     OW 3713   9.097   8.354   7.318
  625SOL    HW1 3714   9.164   8.293   7.349
  625SOL    HW2 3715   9.024   8.342   7.380
  626SOL     OW 3716   0.357   1.626   8.769
  626SOL    HW1 3717   0.276   1.621   8.718
  626SOL    HW2 3718   0.351   1.554   8.831
  627SOL     OW 3719  11.761   1.706  11.952
  627SOL    HW1 3720  11.834   1.706  12.014
  627SOL    HW2 3721  11.732   1.797  11.949
  628SOL     OW 3722   6.803  10.317  10.963
  628SOL    HW1 3723   6.885  10.357  10.934
  628SOL    HW2 3724   6.734  10.368  10.919
  629SOL     OW 3725   3.000   9.033   8.861
  629SOL    HW1 3726   3.076   9.079   8.897
  629SOL    HW2 3727   2.964   8.984   8.936
  630SOL     OW 3728   1.457   0.890   6.710
  630SOL    HW1 3729   1.548   0.887   6.681
  630SOL    HW2 3730   1.412   0.825   6.657
  631SOL     OW 3731  13.169   5.204   9.008
  631SOL    HW1 3732  13.233   5.135   8.989
  631SOL    HW2 3733  13.112   5.205   8.930
  632SOL     OW 3734   7.767  12.356  14.576
  632SOL    HW1 3735   7.700  12.292  14.552
  632SOL    HW2 3736   7.775  12.412  14.499
  633SOL     OW 3737   1.952   8.636  13.110
  633SOL    HW1 3738   1.914   8.573  13.172
  633SOL    HW2 3739   1.896   8.713  13.118
  634SOL     OW 3740   8.700  13.378   2.284
  634SOL    HW1 3741   8.730  13.454   2.334
  634SOL    HW2 3742   8.636  13.336   2.341
  635SOL     OW 3743  13.543   5.738   0.137
  635SOL    HW1 3744  13.517   5.830   0.135
  635SOL    HW2 3745  13.583   5.722   0.052
  636SOL     OW 3746   8.459   5.948   1.804
  636SOL    HW1 3747   8.511   5.982   1.876
  636SOL    HW2 3748   8.422   6.026   1.762
  637SOL     OW 3749   4.592  14.671   5.817
  637SOL    HW1 3750   4.628  14.658   5.730
  637SOL    HW2 3751   4.589  14.584   5.856
  638SOL     OW 3752   8.119  14.367   2.843
  638SOL    HW1 3753   8.183  14.435   2.819
  638SOL    HW2 3754   8.111  14.313   2.764
  639SOL     OW 3755   5.941   2.192   1.716
  639SOL    HW1 3756   6.026   2.213   1.677
  639SOL    HW2 3757   5.943   2.235   1.802
  640SOL     OW 3758   7.820   6.026   0.239
  640SOL    HW1 3759   7.875   5.953   0.268
  640SOL    HW2 3760   7.822   6.021   0.144
  641SOL     OW 3761   7.534   2.897  13.663
  641SOL    HW1 3762   7.440   2.908  13.678
  641SOL    HW2 3763   7.557   2.819  13.713
  642SOL     OW 3764  14.367   6.713   9.681
  642SOL    HW1 3765  14.380   6.620   9.665
  642SOL    HW2 3766  14.420   6.756   9.614
  643SOL     OW 3767   6.364  10.080   5.640
  643SOL    HW1 3768   6.339  10.164   5.600
  643SOL    HW2 3769   6.456  10.092   5.663
  644SOL     OW 3770   8.252  12.801  13.084
  644SOL    HW1 3771   8.167  12.756  13.084
  644SOL    HW2 3772   8.240  12.873  13.146
  645SOL     OW 3773   6.360   3.249   8.553
  645SOL    HW1 3774   6.356   3.234   8.459
  645SOL    HW2 3775   6.287   3.198   8.589
  646SOL     OW 3776  14.705   2.950  11.110
  646SOL    HW1 3777  14.698   2.861  11.077
  646SOL    HW2 3778  14.614   2.980  11.117
  647SOL     OW 3779   8.971   3.134   8.762
  647SOL    HW1 3780   9.047   3.189   8.782
  647SOL    HW2 3781   8.926   3.123   8.846
  648SOL     OW 3782  13.865   5.789   2.938
  648SOL    HW1 3783  13.904   5.872   2.909
  648SOL    HW2 3784  13.902   5.724   2.878
  649SOL     OW 3785   2.890  10.926   2.358
  649SOL    HW1 3786   2.900  10.846   2.306
  649SOL    HW2 3787   2.978  10.944   2.391
  650SOL     OW 3788   7.238  10.339   3.630
  650SOL    HW1 3789   7.233  10.246   3.652
  650SOL    HW2 3790   7.243  10.340   3.534
  651SOL     OW 3791   3.197   3.612   9.281
  651SOL    HW1 3792   3.266   3.577   9.224
  651SOL    HW2 3793   3.192   3.550   9.354
  652SOL     OW 3794   2.482  14.519  13.776
  652SOL    HW1 3795   2.552  14.534  13.839
  652SOL    HW2 3796   2.525  14.518  13.691
  653SOL     OW 3797   8.191  14.569  14.694
  653SOL    HW1 3798   8.097  14.588  14.697
  653SOL    HW2 3799   8.214  14.576  14.601
  654SOL     OW 3800   6.166   3.865   6.113
  654SOL    HW1 3801   6.110   3.899   6.044
  654SOL    HW2 3802   6.233   3.932   6.125
  655SOL     OW 3803  14.441  13.050   6.261
  655SOL    HW1 3804  14.372  12.985   6.269
  655SOL    HW2 3805  14.511  13.019   6.317
  656SOL     OW 3806   4.513  12.132   7.006
  656SOL    HW1 3807   4.533  12.064   7.071
  656SOL    HW2 3808   4.593  12.185   7.003
  657SOL     OW 3809  11.939  11.871   8.905
  657SOL    HW1 3810  11.965  11.958   8.876
  657SOL    HW2 3811  11.985  11.810   8.847
  658SOL     OW 3812  11.969   9.956  13.025
  658SOL    HW1 3813  12.061   9.949  12.998
  658SOL    HW2 3814  11.938  10.036  12.983
  659SOL     OW 3815   0.697   4.639   0.582
  659SOL    HW1 3816   0.624   4.581   0.606
  659SOL    HW2 3817   0.660   4.701   0.520
  660SOL     OW 3818   1.644   2.301   5.461
  660SOL    HW1 3819   1.604   2.323   5.377
  660SOL    HW2 3820   1.590   2.230   5.496
  661SOL     OW 3821   9.131   6.940   8.827
  661SOL    HW1 3822   9.091   6.902   8.905
  661SOL    HW2 3823   9.149   7.031   8.851
  662SOL     OW 3824   0.431  12.141  10.427
  662SOL    HW1 3825   0.478  12.079  10.370
  662SOL    HW2 3826   0.354  12.166  10.376
  663SOL     OW 3827  13.483   2.448   4.475
  663SOL    HW1 3828  13.415   2.510   4.448
  663SOL    HW2 3829  13.439   2.364   4.480
  664SOL     OW 3830  14.740   9.727  14.656
  664SOL    HW1 3831  14.725   9.642  14.698
  664SOL    HW2 3832  14.656   9.747  14.614
  665SOL     OW 3833   0.599   4.522  12.871
  665SOL    HW1 3834   0.597   4.434  12.910
  665SOL    HW2 3835   0.518   4.527  12.821
  666SOL     OW 3836  11.317   9.227   9.115
  666SOL    HW1 3837  11.229   9.235   9.153
  666SOL    HW2 3838  11.336   9.313   9.079
  667SOL     OW 3839   5.251  14.073   4.284
  667SOL    HW1 3840   5.214  13.996   4.241
  667SOL    HW2 3841   5.190  14.093   4.355
  668SOL     OW 3842   5.476  10.388   8.618
  668SOL    HW1 3843   5.529  10.468   8.618
  668SOL    HW2 3844   5.471  10.363   8.525
  669SOL     OW 3845  11.119   1.290   1.474
  669SOL    HW1 3846  11.044   1.340   1.505
  669SOL    HW2 3847  11.081   1.218   1.424
  670SOL     OW 3848   8.678   6.240  11.948
  670SOL    HW1 3849   8.740   6.302  11.909
  670SOL    HW2 3850   8.664   6.174  11.879
  671SOL     OW 3851   3.649  12.341  10.258
  671SOL    HW1 3852   3.580  12.312  10.199
  671SOL    HW2 3853   3.683  12.421  10.217
  672SOL     OW 3854  13.066   0.115  14.141
  672SOL    HW1 3855  13.095   0.026  14.162
  672SOL    HW2 3856  12.980   0.123  14.182
  673SOL     OW 3857  13.174  11.921   5.175
  673SOL    HW1 3858  13.100  11.921   5.114
  673SOL    HW2 3859  13.162  12.001   5.227
  674SOL     OW 3860   2.745  10.252   5.818
  674SOL    HW1 3861   2.768  10.309   5.891
  674SOL    HW2 3862   2.652  10.266   5.804
  675SOL     OW 3863  11.802   0.089   8.773
  675SOL    HW1 3864  11.854   0.044   8.839
  675SOL    HW2 3865  11.752   0.154   8.821
  676SOL     OW 3866   9.727   0.507   0.946
  676SOL    HW1 3867   9.736   0.577   1.011
  676SOL    HW2 3868   9.700   0.552   0.866
  677SOL     OW 3869   6.183  14.168   7.651
  677SOL    HW1 3870   6.144  14.213   7.725
  677SOL    HW2 3871   6.136  14.202   7.575
  678SOL     OW 3872   1.308   4.600   5.204
  678SOL    HW1 3873   1.385   4.634   5.250
  678SOL    HW2 3874   1.289   4.667   5.138
  679SOL     OW 3875   4.369   3.929   3.908
  679SOL    HW1 3876   4.296   3.869   3.891
  679SOL    HW2 3877   4.442   3.895   3.857
  680SOL     OW 3878   2.203  12.473  13.714
  680SOL    HW1 3879   2.203  12.567  13.731
  680SOL    HW2 3880   2.149  12.462  13.636
  681SOL     OW 3881   6.218  12.147   5.545
  681SOL    HW1 3882   6.305  12.145   5.505
  681SOL    HW2 3883   6.160  12.112   5.478
  682SOL     OW 3884   1.592  10.152   2.793
  682SOL    HW1 3885   1.623  10.219   2.854
  682SOL    HW2 3886   1.529  10.101   2.844
  683SOL     OW 3887   4.062   4.972   2.665
  683SOL    HW1 3888   3.970   4.999   2.670
  683SOL    HW2 3889   4.060   4.878   2.686
  684SOL     OW 3890   1.984  10.727   7.791
  684SOL    HW1 3891   1.950  10.760   7.708
  684SOL    HW2 3892   2.078  10.719   7.777
  685SOL     OW 3893  11.035   5.636  11.478
  685SOL    HW1 3894  10.993   5.609  11.396
  685SOL    HW2 3895  11.041   5.557  11.530
  686SOL     OW 3896   1.050  13.954  11.277
  686SOL    HW1 3897   0.960  13.960  11.307
  686SOL    HW2 3898   1.101  13.940  11.356
  687SOL     OW 3899  14.828   4.421   4.767
  687SOL    HW1 3900   0.003   4.371   4.828
  687SOL    HW2 3901  14.855   4.391   4.681
  688SOL     OW 3902   1.314   9.328   6.821
  688SOL    HW1 3903   1.405   9.306   6.841
  688SOL    HW2 3904   1.264   9.252   6.850
  689SOL     OW 3905   5.388   7.716   8.086
  689SOL    HW1 3906   5.457   7.717   8.153
  689SOL    HW2 3907   5.319   7.773   8.122
  690SOL     OW 3908   6.083   8.488   2.153
  690SOL    HW1 3909   6.077   8.441   2.236
  690SOL    HW2 3910   6.106   8.577   2.177
  691SOL     OW 3911   3.622   9.358   3.468
  691SOL    HW1 3912   3.597   9.295   3.536
  691SOL    HW2 3913   3.610   9.311   3.386
  692SOL     OW 3914  14.725  13.921  12.277
  692SOL    HW1 3915  14.726  14.001  12.329
  692SOL    HW2 3916  14.667  13.941  12.204
  693SOL     OW 3917  12.342  11.361  13.929
  693SOL    HW1 3918  12.268  11.390  13.982
  693SOL    HW2 3919  12.416  11.360  13.990
  694SOL     OW 3920   2.372   0.117   9.537
  694SOL    HW1 3921   2.430   0.108   9.613
  694SOL    HW2 3922   2.284   0.123   9.574
  695SOL     OW 3923  14.691   8.630   4.407
  695SOL    HW1 3924  14.621   8.580   4.365
  695SOL    HW2 3925  14.646   8.698   4.457
  696SOL     OW 3926   6.798   3.720   6.013
  696SOL    HW1 3927   6.819   3.656   6.082
  696SOL    HW2 3928   6.842   3.687   5.935
  697SOL     OW 3929   8.748  11.851   6.392
  697SOL    HW1 3930   8.818  11.819   6.449
  697SOL    HW2 3931   8.794  11.900   6.323
  698SOL     OW 3932   3.402   6.405   9.484
  698SOL    HW1 3933   3.442   6.480   9.441
  698SOL    HW2 3934   3.475   6.347   9.504
  699SOL     OW 3935   3.557   1.750  10.267
  699SOL    HW1 3936   3.550   1.697  10.347
  699SOL    HW2 3937   3.627   1.813  10.287
  700SOL     OW 3938   4.904   8.542   3.025
  700SOL    HW1 3939   4.815   8.517   3.049
  700SOL    HW2 3940   4.918   8.625   3.070
  701SOL     OW 3941   1.894   7.480   4.850
  701SOL    HW1 3942   1.920   7.548   4.913
  701SOL    HW2 3943   1.885   7.526   4.767
  702SOL     OW 3944   5.766   4.129  11.346
  702SOL    HW1 3945   5.782   4.168  11.260
  702SOL    HW2 3946   5.854   4.113  11.381
  703SOL     OW 3947   7.268   9.613  14.281
  703SOL    HW1 3948   7.280   9.541  14.219
  703SOL    HW2 3949   7.337   9.599  14.346
  704SOL     OW 3950   5.357  14.009   2.454
  704SOL    HW1 3951   5.333  13.993   2.362
  704SOL    HW2 3952   5.284  14.061   2.488
  705SOL     OW 3953   1.246  10.147   8.202
  705SOL    HW1 3954   1.340  10.157   8.213
  705SOL    HW2 3955   1.234  10.131   8.108
  706SOL     OW 3956   4.235   7.824   4.694
  706SOL    HW1 3957   4.302   7.881   4.656
  706SOL    HW2 3958   4.159   7.882   4.707
  707SOL     OW 3959   7.520   2.863   8.390
  707SOL    HW1 3960   7.468   2.806   8.447
  707SOL    HW2 3961   7.469   2.869   8.309
  708SOL     OW 3962   0.098   8.187  13.030
  708SOL    HW1 3963   0.060   8.169  12.944
  708SOL    HW2 3964   0.190   8.205  13.013
  709SOL     OW 3965  11.412   2.690  11.114
  709SOL    HW1 3966  11.368   2.722  11.193
  709SOL    HW2 3967  11.345   2.693  11.046
  710SOL     OW 3968   3.185   6.570   9.577
  710SOL    HW1 3969   3.254   6.507   9.556
  710SOL    HW2 3970   3.212   6.650   9.532
  711SOL     OW 3971   8.803   2.380   5.280
  711SOL    HW1 3972   8.888   2.421   5.296
  711SOL    HW2 3973   8.755   2.391   5.363
  712SOL     OW 3974  13.073   2.658  12.740
  712SOL    HW1 3975  12.996   2.669  12.796
  712SOL    HW2 3976  13.105   2.570  12.760
  713SOL     OW 3977   0.873   2.152   5.060
  713SOL    HW1 3978   0.952   2.197   5.032
  713SOL    HW2 3979   0.822   2.218   5.107
  714SOL     OW 3980   8.775   1.373   6.962
  714SOL    HW1 3981   8.870   1.380   6.958
  714SOL    HW2 3982   8.758   1.294   7.012
  715SOL     OW 3983   4.709   1.023   9.877
  715SOL    HW1 3984   4.687   0.940   9.920
  715SOL    HW2 3985   4.773   1.063   9.936
  716SOL     OW 3986   0.254   3.843   5.353
  716SOL    HW1 3987   0.311   3.767   5.361
  716SOL    HW2 3988   0.289   3.892   5.278
  717SOL     OW 3989  12.859   3.195  11.737
  717SOL    HW1 3990  12.830   3.160  11.821
  717SOL    HW2 3991  12.936   3.248  11.758
  718SOL     OW 3992   2.933  13.778   4.689
  718SOL    HW1 3993   2.939  13.747   4.779
  718SOL    HW2 3994   2.976  13.710   4.637
  719SOL     OW 3995   8.838  12.800   8.160
  719SOL    HW1 3996   8.791  12.841   8.088
  719SOL    HW2 3997   8.770  12.787   8.227
  720SOL     OW 3998  10.201   1.379   6.142
  720SOL    HW1 3999  10.274   1.436   6.117
  720SOL    HW2 4000  10.131   1.400   6.080
  721SOL     OW 4001   2.577   3.176   9.057
  721SOL    HW1 4002   2.644   3.115   9.089
  721SOL    HW2 4003   2.504   3.121   9.031
  722SOL     OW 4004   0.177   1.940   2.974
  722SOL    HW1 4005   0.220   1.905   3.052
  722SOL    HW2 4006   0.096   1.979   3.007
  723SOL     OW 4007   4.122   1.466  10.511
  723SOL    HW1 4008   4.200   1.520  10.523
  723SOL    HW2 4009   4.115   1.454  10.417
  724SOL     OW 4010  11.773   2.676  13.471
  724SOL    HW1 4011  11.795   2.586  13.494
  724SOL    HW2 4012  11.797   2.727  13.548
  725SOL     OW 4013   3.341  11.181   1.651
  725SOL    HW1 4014   3.302  11.215   1.732
  725SOL    HW2 4015   3.356  11.260   1.598
  726SOL     OW 4016   9.276   1.223   9.330
  726SOL    HW1 4017   9.218   1.282   9.379
  726SOL    HW2 4018   9.360   1.269   9.328
  727SOL     OW 4019   1.643   0.451   8.037
  727SOL    HW1 4020   1.733   0.483   8.049
  727SOL    HW2 4021   1.633   0.444   7.942
  728SOL     OW 4022   9.352   1.830   4.952
  728SOL    HW1 4023   9.278   1.781   4.987
  728SOL    HW2 4024   9.425   1.808   5.011
  729SOL     OW 4025   0.625   2.498   7.303
  729SOL    HW1 4026   0.684   2.486   7.378
  729SOL    HW2 4027   0.631   2.416   7.255
  730SOL     OW 4028   4.391  11.166   6.553
  730SOL    HW1 4029   4.389  11.106   6.478
  730SOL    HW2 4030   4.461  11.133   6.609
  731SOL     OW 4031   0.074  14.456   9.475
  731SOL    HW1 4032   0.067  14.397   9.400
  731SOL    HW2 4033  14.869  14.449   9.519
  732SOL     OW 4034   6.123  12.928   4.885
  732SOL    HW1 4035   6.144  13.008   4.836
  732SOL    HW2 4036   6.180  12.861   4.846
  733SOL     OW 4037   6.073   5.081   5.029
  733SOL    HW1 4038   6.120   5.120   5.103
  733SOL    HW2 4039   6.126   5.005   5.005
  734SOL     OW 4040   0.208   0.097  10.027
  734SOL    HW1 4041   0.299   0.084  10.053
  734SOL    HW2 4042   0.202   0.056   9.941
  735SOL     OW 4043   5.519  11.672  11.955
  735SOL    HW1 4044   5.469  11.596  11.984
  735SOL    HW2 4045   5.469  11.747  11.987
  736SOL     OW 4046   0.473   9.070   0.960
  736SOL    HW1 4047   0.431   8.984   0.967
  736SOL    HW2 4048   0.404   9.132   0.983
  737SOL     OW 4049   0.510   3.700   7.104
  737SOL    HW1 4050   0.563   3.779   7.093
  737SOL    HW2 4051   0.538   3.664   7.188
  738SOL     OW 4052   6.937  14.471   8.709
  738SOL    HW1 4053   6.957  14.489   8.801
  738SOL    HW2 4054   7.021  14.482   8.664
  739SOL     OW 4055  14.476   3.627   2.047
  739SOL    HW1 4056  14.543   3.564   2.073
  739SOL    HW2 4057  14.518   3.712   2.056
  740SOL     OW 4058  13.047   3.134  12.321
  740SOL    HW1 4059  13.072   3.176  12.239
  740SOL    HW2 4060  12.957   3.104  12.306
  741SOL     OW 4061   0.478  10.406   2.038
  741SOL    HW1 4062   0.514  10.394   1.951
  741SOL    HW2 4063   0.552  10.394   2.097
  742SOL     OW 4064   9.780   2.582  12.332
  742SOL    HW1 4065   9.834   2.634  12.272
  742SOL    HW2 4066   9.829   2.501  12.345
  743SOL     OW 4067   4.844  10.122  10.246
  743SOL    HW1 4068   4.898  10.124  10.325
  743SOL    HW2 4069   4.782  10.195  10.258
  744SOL     OW 4070  10.709   2.142   0.933
  744SOL    HW1 4071  10.706   2.064   0.990
  744SOL    HW2 4072  10.781   2.194   0.969
  745SOL     OW 4073   6.987  14.478  11.624
  745SOL    HW1 4074   6.911  14.521  11.584
  745SOL    HW2 4075   6.957  14.454  11.712
  746SOL     OW 4076  11.029  14.330   6.656
  746SOL    HW1 4077  11.077  14.399   6.702
  746SOL    HW2 4078  11.016  14.363   6.568
  747SOL     OW 4079   5.213  12.992  13.685
  747SOL    HW1 4080   5.141  12.984  13.746
  747SOL    HW2 4081   5.286  13.026  13.737
  748SOL     OW 4082   6.739  10.098   0.154
  748SOL    HW1 4083   6.748  10.068   0.244
  748SOL    HW2 4084   6.815  10.060   0.109
  749SOL     OW 4085   3.143   9.020   9.787
  749SOL    HW1 4086   3.134   9.042   9.880
  749SOL    HW2 4087   3.115   9.099   9.741
  750SOL     OW 4088   4.717   5.924  10.094
  750SOL    HW1 4089   4.759   5.984  10.031
  750SOL    HW2 4090   4.790   5.882  10.139
  751SOL     OW 4091   8.617   8.581   5.016
  751SOL    HW1 4092   8.576   8.531   4.945
  751SOL    HW2 4093   8.576   8.667   5.011
  752SOL     OW 4094   7.029   4.948   4.327
  752SOL    HW1 4095   7.084   4.897   4.268
  752SOL    HW2 4096   7.077   4.949   4.410
  753SOL     OW 4097   8.550   0.210   9.304
  753SOL    HW1 4098   8.628   0.198   9.249
  753SOL    HW2 4099   8.554   0.302   9.329
  754SOL     OW 4100   7.050  10.706   0.838
  754SOL    HW1 4101   7.044  10.631   0.779
  754SOL    HW2 4102   7.065  10.668   0.924
  755SOL     OW 4103   5.179  13.992   3.296
  755SOL    HW1 4104   5.183  13.919   3.358
  755SOL    HW2 4105   5.085  14.010   3.287
  756SOL     OW 4106   9.800   4.523   3.075
  756SOL    HW1 4107   9.772   4.453   3.015
  756SOL    HW2 4108   9.873   4.485   3.124
  757SOL     OW 4109   9.110   0.715  13.335
  757SOL    HW1 4110   9.151   0.637  13.373
  757SOL    HW2 4111   9.126   0.706  13.241
  758SOL     OW 4112  12.032  10.179  11.302
  758SOL    HW1 4113  12.058  10.261  11.261
  758SOL    HW2 4114  11.937  10.186  11.311
  759SOL     OW 4115   3.237   7.465   6.944
  759SOL    HW1 4116   3.185   7.457   7.024
  759SOL    HW2 4117   3.204   7.395   6.888
  760SOL     OW 4118   9.371   2.120   0.619
  760SOL    HW1 4119   9.297   2.147   0.673
  760SOL    HW2 4120   9.372   2.024   0.625
  761SOL     OW 4121  11.447   8.485   3.849
  761SOL    HW1 4122  11.377   8.492   3.784
  761SOL    HW2 4123  11.472   8.392   3.848
  762SOL     OW 4124   5.546  13.586  13.961
  762SOL    HW1 4125   5.612  13.567  13.894
  762SOL    HW2 4126   5.499  13.661  13.927
  763SOL     OW 4127   3.447   0.602  14.024
  763SOL    HW1 4128   3.512   0.642  14.082
  763SOL    HW2 4129   3.496   0.575  13.947
  764SOL     OW 4130   3.068   1.698   5.890
  764SOL    HW1 4131   3.072   1.794   5.888
  764SOL    HW2 4132   3.036   1.677   5.978
  765SOL     OW 4133  13.299   2.257  10.022
  765SOL    HW1 4134  13.320   2.208   9.943
  765SOL    HW2 4135  13.338   2.343  10.008
  766SOL     OW 4136  11.879  10.173  12.303
  766SOL    HW1 4137  11.813  10.177  12.233
  766SOL    HW2 4138  11.881  10.262  12.338
  767SOL     OW 4139   7.523  10.153  13.879
  767SOL    HW1 4140   7.597  10.213  13.892
  767SOL    HW2 4141   7.446  10.209  13.883
  768SOL     OW 4142  10.375   6.391   2.378
  768SOL    HW1 4143  10.458   6.438   2.384
  768SOL    HW2 4144  10.400   6.299   2.365
  769SOL     OW 4145   9.214  11.242   2.282
  769SOL    HW1 4146   9.281  11.310   2.280
  769SOL    HW2 4147   9.231  11.193   2.362
  770SOL     OW 4148   7.515  11.265  12.587
  770SOL    HW1 4149   7.427  11.297  12.568
  770SOL    HW2 4150   7.525  11.186  12.534
  771SOL     OW 4151  10.441   0.961  12.374
  771SOL    HW1 4152  10.438   1.056  12.389
  771SOL    HW2 4153  10.522   0.932  12.416
  772SOL     OW 4154   5.743   0.350  14.399
  772SOL    HW1 4155   5.767   0.263  14.432
  772SOL    HW2 4156   5.668   0.376  14.453
  773SOL     OW 4157   8.870   6.920  11.856
  773SOL    HW1 4158   8.802   6.960  11.911
  773SOL    HW2 4159   8.829   6.913  11.770
  774SOL     OW 4160   9.004   8.931   0.578
  774SOL    HW1 4161   8.966   9.009   0.540
  774SOL    HW2 4162   8.977   8.933   0.670
  775SOL     OW 4163   6.878   1.850  10.508
  775SOL    HW1 4164   6.818   1.922  10.489
  775SOL    HW2 4165   6.847   1.778  10.453
  776SOL     OW 4166   9.235   2.594  11.678
  776SOL    HW1 4167   9.233   2.685  11.707
  776SOL    HW2 4168   9.153   2.556  11.709
  777SOL     OW 4169  10.461   0.790  10.689
  777SOL    HW1 4170  10.504   0.705  10.692
  777SOL    HW2 4171  10.402   0.789  10.765
  778SOL     OW 4172   7.120   1.433   2.789
  778SOL    HW1 4173   7.080   1.427   2.702
  778SOL    HW2 4174   7.126   1.342   2.819
  779SOL     OW 4175   3.076   8.102  13.698
  779SOL    HW1 4176   3.001   8.066  13.746
  779SOL    HW2 4177   3.109   8.029  13.647
  780SOL     OW 4178  11.684   9.446   4.370
  780SOL    HW1 4179  11.724   9.443   4.283
  780SOL    HW2 4180  11.590   9.442   4.352
  781SOL     OW 4181   6.666  14.718   7.788
  781SOL    HW1 4182   6.708  14.763   7.714
  781SOL    HW2 4183   6.666  14.783   7.858
  782SOL     OW 4184   8.413  11.163   1.440
  782SOL    HW1 4185   8.480  11.230   1.425
  782SOL    HW2 4186   8.433  11.095   1.375
  783SOL     OW 4187  12.341   7.201   0.293
  783SOL    HW1 4188  12.384   7.248   0.222
  783SOL    HW2 4189  12.402   7.208   0.367
  784SOL     OW 4190  10.531   6.465   1.981
  784SOL    HW1 4191  10.528   6.553   2.019
  784SOL    HW2 4192  10.593   6.472   1.909
  785SOL     OW 4193   5.707   0.542   9.952
  785SOL    HW1 4194   5.782   0.557  10.010
  785SOL    HW2 4195   5.667   0.462   9.984
  786SOL     OW 4196   2.534  10.546   0.554
  786SOL    HW1 4197   2.441  10.524   0.550
  786SOL    HW2 4198   2.566  10.532   0.465
  787SOL     OW 4199  11.403  11.590   1.451
  787SOL    HW1 4200  11.432  11.553   1.534
  787SOL    HW2 4201  11.327  11.643   1.475
  788SOL     OW 4202   5.168   3.575   3.099
  788SOL    HW1 4203   5.090   3.537   3.060
  788SOL    HW2 4204   5.215   3.615   3.025
  789SOL     OW 4205  12.101   5.944  12.765
  789SOL    HW1 4206  12.114   5.850  12.750
  789SOL    HW2 4207  12.068   5.978  12.682
  790SOL     OW 4208   4.515  12.823  14.516
  790SOL    HW1 4209   4.430  12.781  14.527
  790SOL    HW2 4210   4.495  12.904  14.468
  791SOL     OW 4211   6.240   8.870  12.893
  791SOL    HW1 4212   6.209   8.956  12.921
  791SOL    HW2 4213   6.225   8.813  12.968
  792SOL     OW 4214  13.484  12.605  12.509
  792SOL    HW1 4215  13.528  12.595  12.425
  792SOL    HW2 4216  13.547  12.654  12.562
  793SOL     OW 4217   6.822  14.149   8.789
  793SOL    HW1 4218   6.886  14.198   8.841
  793SOL    HW2 4219   6.839  14.177   8.699
  794SOL     OW 4220   8.896   0.112  13.755
  794SOL    HW1 4221   8.916   0.182  13.817
  794SOL    HW2 4222   8.959   0.124  13.684
  795SOL     OW 4223   8.081  11.210   0.400
  795SOL    HW1 4224   8.113  11.126   0.433
  795SOL    HW2 4225   7.993  11.190   0.366
  796SOL     OW 4226   8.464   4.731   6.825
  796SOL    HW1 4227   8.491   4.797   6.760
  796SOL    HW2 4228   8.471   4.648   6.778
  797SOL     OW 4229  11.245  13.486   2.713
  797SOL    HW1 4230  11.244  13.439   2.797
  797SOL    HW2 4231  11.168  13.454   2.667
  798SOL     OW 4232   9.862   9.706  12.732
  798SOL    HW1 4233   9.870   9.680  12.640
  798SOL    HW2 4234   9.858   9.801  12.730
  799SOL     OW 4235   9.596  12.453  13.866
  799SOL    HW1 4236   9.680  12.447  13.821
  799SOL    HW2 4237   9.575  12.546  13.866
  800SOL     OW 4238   3.793  10.656   2.192
  800SOL    HW1 4239   3.834  10.734   2.154
  800SOL    HW2 4240   3.813  10.586   2.130
  801SOL     OW 4241   7.976   3.755   8.796
  801SOL    HW1 4242   8.003   3.668   8.826
  801SOL    HW2 4243   8.034   3.816   8.841
  802SOL     OW 4244   5.943  11.304   1.848
  802SOL    HW1 4245   5.941  11.275   1.757
  802SOL    HW2 4246   5.972  11.395   1.844
  803SOL     OW 4247   0.481  10.098  11.189
  803SOL    HW1 4248   0.482  10.132  11.279
  803SOL    HW2 4249   0.570  10.064  11.176
  804SOL     OW 4250  10.292   0.301   4.167
  804SOL    HW1 4251  10.292   0.281   4.074
  804SOL    HW2 4252  10.245   0.384   4.174
  805SOL     OW 4253  10.653   0.922  12.554
  805SOL    HW1 4254  10.720   0.961  12.611
  805SOL    HW2 4255  10.642   0.833  12.587
  806SOL     OW 4256   5.055   6.241   5.228
  806SOL    HW1 4257   5.026   6.332   5.224
  806SOL    HW2 4258   5.015   6.207   5.308
  807SOL     OW 4259   0.375   2.934  11.673
  807SOL    HW1 4260   0.342   2.963  11.588
  807SOL    HW2 4261   0.299   2.931  11.730
  808SOL     OW 4262  13.229   5.265  14.257
  808SOL    HW1 4263  13.231   5.202  14.185
  808SOL    HW2 4264  13.180   5.221  14.326
  809SOL     OW 4265   9.689   0.615  11.063
  809SOL    HW1 4266   9.742   0.541  11.033
  809SOL    HW2 4267   9.730   0.692  11.023
  810SOL     OW 4268  13.912  11.369  11.925
  810SOL    HW1 4269  13.872  11.356  11.839
  810SOL    HW2 4270  13.939  11.461  11.925
  811SOL     OW 4271   2.614  10.719   9.745
  811SOL    HW1 4272   2.596  10.705   9.838
  811SOL    HW2 4273   2.561  10.652   9.700
  812SOL     OW 4274  11.134  11.030   5.613
  812SOL    HW1 4275  11.125  11.057   5.705
  812SOL    HW2 4276  11.046  11.000   5.588
  813SOL     OW 4277   3.436   3.405   1.190
  813SOL    HW1 4278   3.438   3.367   1.278
  813SOL    HW2 4279   3.445   3.499   1.205
  814SOL     OW 4280  11.312  13.368   6.979
  814SOL    HW1 4281  11.225  13.392   6.948
  814SOL    HW2 4282  11.351  13.451   7.008
  815SOL     OW 4283  14.157  10.035  10.218
  815SOL    HW1 4284  14.155   9.952  10.170
  815SOL    HW2 4285  14.221  10.020  10.288
  816SOL     OW 4286   8.947  11.115   2.297
  816SOL    HW1 4287   9.023  11.172   2.290
  816SOL    HW2 4288   8.886  11.163   2.354
  817SOL     OW 4289   5.252   8.794   3.047
  817SOL    HW1 4290   5.195   8.785   3.123
  817SOL    HW2 4291   5.201   8.844   2.984
  818SOL     OW 4292  10.008  10.842  10.143
  818SOL    HW1 4293  10.080  10.783  10.121
  818SOL    HW2 4294   9.997  10.832  10.238
  819SOL     OW 4295   7.241   8.032   2.932
  819SOL    HW1 4296   7.251   8.011   2.839
  819SOL    HW2 4297   7.307   8.098   2.950
  820SOL     OW 4298   9.647   2.198  12.388
  820SOL    HW1 4299   9.702   2.134  12.344
  820SOL    HW2 4300   9.573   2.212  12.328
  821SOL     OW 4301   5.145   2.708  10.825
  821SOL    HW1 4302   5.174   2.619  10.843
  821SOL    HW2 4303   5.223   2.762  10.834
  822SOL     OW 4304   3.258   8.713  13.051
  822SOL    HW1 4305   3.244   8.774  13.124
  822SOL    HW2 4306   3.351   8.721  13.030
  823SOL     OW 4307  13.185  10.931   3.208
  823SOL    HW1 4308  13.103  10.971   3.236
  823SOL    HW2 4309  13.195  10.959   3.117
  824SOL     OW 4310   4.485  11.079   5.348
  824SOL    HW1 4311   4.483  10.989   5.380
  824SOL    HW2 4312   4.565  11.116   5.385
  825SOL     OW 4313  10.091   5.062   3.689
  825SOL    HW1 4314  10.048   5.108   3.762
  825SOL    HW2 4315  10.021   5.011   3.649
  826SOL     OW 4316  11.994   1.338  14.135
  826SOL    HW1 4317  12.015   1.245  14.145
  826SOL    HW2 4318  12.078   1.382  14.140
  827SOL     OW 4319   3.962  11.747  12.968
  827SOL    HW1 4320   3.984  11.837  12.945
  827SOL    HW2 4321   3.970  11.744  13.063
  828SOL     OW 4322   0.401   1.255   2.767
  828SOL    HW1 4323   0.368   1.259   2.678
  828SOL    HW2 4324   0.404   1.347   2.796
  829SOL     OW 4325  11.645  12.103  11.009
  829SOL    HW1 4326  11.637  12.022  10.958
  829SOL    HW2 4327  11.713  12.084  11.074
  830SOL     OW 4328   3.152  12.420   1.280
  830SOL    HW1 4329   3.176  12.376   1.199
  830SOL    HW2 4330   3.111  12.352   1.334
  831SOL     OW 4331   3.807   9.628   0.878
  831SOL    HW1 4332   3.732   9.581   0.841
  831SOL    HW2 4333   3.802   9.611   0.972
  832SOL     OW 4334   8.686   5.216  12.103
  832SOL    HW1 4335   8.779   5.235  12.089
  832SOL    HW2 4336   8.656   5.181  12.019
  833SOL     OW 4337  12.934  13.711   9.509
  833SOL    HW1 4338  12.971  13.664   9.584
  833SOL    HW2 4339  12.859  13.658   9.482
  834SOL     OW 4340   0.050  12.045   2.398
  834SOL    HW1 4341   0.112  11.987   2.354
  834SOL    HW2 4342   0.028  12.000   2.480
  835SOL     OW 4343   0.106  12.713  14.557
  835SOL    HW1 4344   0.073  12.744  14.641
  835SOL    HW2 4345   0.146  12.791  14.518
  836SOL     OW 4346   4.564   5.874   1.772
  836SOL    HW1 4347   4.552   5.786   1.736
  836SOL    HW2 4348   4.546   5.932   1.698
  837SOL     OW 4349  13.700  13.249  13.238
  837SOL    HW1 4350  13.741  13.333  13.259
  837SOL    HW2 4351  13.696  13.202  13.321
  838SOL     OW 4352   6.492   3.591  12.444
  838SOL    HW1 4353   6.579   3.584  12.482
  838SOL    HW2 4354   6.435   3.541  12.503
  839SOL     OW 4355  13.178  13.904  14.546
  839SOL    HW1 4356  13.267  13.918  14.512
  839SOL    HW2 4357  13.156  13.986  14.589
  840SOL     OW 4358   1.836  12.821  10.391
  840SOL    HW1 4359   1.859  12.743  10.341
  840SOL    HW2 4360   1.873  12.893  10.340
  841SOL     OW 4361   1.442   8.344  12.748
  841SOL    HW1 4362   1.423   8.338  12.842
  841SOL    HW2 4363   1.518   8.402  12.743
  842SOL     OW 4364   5.409   4.194   0.673
  842SOL    HW1 4365   5.333   4.252   0.676
  842SOL    HW2 4366   5.374   4.108   0.651
  843SOL     OW 4367  14.271   3.870  12.150
  843SOL    HW1 4368  14.307   3.784  12.133
  843SOL    HW2 4369  14.336   3.914  12.205
  844SOL     OW 4370   8.938   9.341  12.073
  844SOL    HW1 4371   8.936   9.254  12.114
  844SOL    HW2 4372   8.845   9.363  12.062
  845SOL     OW 4373  14.561   8.279   1.256
  845SOL    HW1 4374  14.489   8.342   1.256
  845SOL    HW2 4375  14.587   8.272   1.348
  846SOL     OW 4376  12.466  13.224   8.617
  846SOL    HW1 4377  12.490  13.231   8.710
  846SOL    HW2 4378  12.528  13.283   8.573
  847SOL     OW 4379   7.510   5.776   1.903
  847SOL    HW1 4380   7.499   5.702   1.843
  847SOL    HW2 4381   7.439   5.766   1.966
  848SOL     OW 4382   7.086   5.526   1.179
  848SOL    HW1 4383   7.119   5.574   1.102
  848SOL    HW2 4384   7.005   5.571   1.202
  849SOL     OW 4385   9.568   6.505   6.240
  849SOL    HW1 4386   9.529   6.593   6.241
  849SOL    HW2 4387   9.503   6.451   6.196
  850SOL     OW 4388   2.894   3.114   2.507
  850SOL    HW1 4389   2.838   3.110   2.584
  850SOL    HW2 4390   2.842   3.075   2.437
  851SOL     OW 4391   4.066   4.250  13.219
  851SOL    HW1 4392   4.061   4.309  13.294
  851SOL    HW2 4393   4.103   4.169  13.255
  852SOL     OW 4394  13.573   6.548  10.062
  852SOL    HW1 4395  13.517   6.584  10.132
  852SOL    HW2 4396  13.513   6.496  10.008
  853SOL     OW 4397   6.955   5.879  13.269
  853SOL    HW1 4398   6.922   5.789  13.273
  853SOL    HW2 4399   6.877   5.932  13.254
  854SOL     OW 4400   0.455   5.168  12.879
  854SOL    HW1 4401   0.459   5.202  12.790
  854SOL    HW2 4402   0.365   5.135  12.888
  855SOL     OW 4403  13.322  10.967  14.062
  855SOL    HW1 4404  13.344  10.883  14.021
  855SOL    HW2 4405  13.230  10.981  14.040
  856SOL     OW 4406   5.134   9.269   5.855
  856SOL    HW1 4407   5.083   9.274   5.936
  856SOL    HW2 4408   5.088   9.203   5.802
  857SOL     OW 4409  11.534   8.762   9.858
  857SOL    HW1 4410  11.546   8.856   9.844
  857SOL    HW2 4411  11.585   8.743   9.937
  858SOL     OW 4412  10.806  11.207  10.668
  858SOL    HW1 4413  10.772  11.237  10.752
  858SOL    HW2 4414  10.813  11.112  10.678
  859SOL     OW 4415   8.634  12.525   9.181
  859SOL    HW1 4416   8.614  12.619   9.180
  859SOL    HW2 4417   8.670  12.509   9.268
  860SOL     OW 4418   4.163   9.650   2.718
  860SOL    HW1 4419   4.242   9.598   2.729
  860SOL    HW2 4420   4.156   9.701   2.799
  861SOL     OW 4421  12.721  14.437   7.518
  861SOL    HW1 4422  12.743  14.356   7.471
  861SOL    HW2 4423  12.796  14.451   7.576
  862SOL     OW 4424   7.816   0.935   0.816
  862SOL    HW1 4425   7.730   0.897   0.797
  862SOL    HW2 4426   7.796   1.016   0.863
  863SOL     OW 4427   7.585   1.245   5.475
  863SOL    HW1 4428   7.619   1.288   5.553
  863SOL    HW2 4429   7.560   1.158   5.504
  864SOL     OW 4430   7.632  10.492  13.584
  864SOL    HW1 4431   7.658  10.420  13.525
  864SOL    HW2 4432   7.545  10.467  13.615
  865SOL     OW 4433  12.094  14.687   6.685
  865SOL    HW1 4434  12.072  14.765   6.634
  865SOL    HW2 4435  12.016  14.632   6.679
  866SOL     OW 4436  14.642   4.608   6.816
  866SOL    HW1 4437  14.586   4.655   6.753
  866SOL    HW2 4438  14.705   4.673   6.845
  867SOL     OW 4439   3.647   5.623   7.790
  867SOL    HW1 4440   3.566   5.674   7.786
  867SOL    HW2 4441   3.620   5.535   7.813
  868SOL     OW 4442  13.158   0.951  13.848
  868SOL    HW1 4443  13.240   0.911  13.877
  868SOL    HW2 4444  13.123   0.890  13.783
  869SOL     OW 4445  12.242  11.221   2.388
  869SOL    HW1 4446  12.266  11.223   2.296
  869SOL    HW2 4447  12.156  11.263   2.392
  870SOL     OW 4448   0.871   5.253   2.708
  870SOL    HW1 4449   0.947   5.201   2.681
  870SOL    HW2 4450   0.811   5.247   2.634
  871SOL     OW 4451  14.793   8.358   4.219
  871SOL    HW1 4452  14.757   8.419   4.154
  871SOL    HW2 4453  14.718   8.332   4.272
  872SOL     OW 4454   9.853   2.527   6.871
  872SOL    HW1 4455   9.774   2.551   6.823
  872SOL    HW2 4456   9.839   2.436   6.897
  873SOL     OW 4457   1.450   0.218   1.338
  873SOL    HW1 4458   1.454   0.278   1.263
  873SOL    HW2 4459   1.377   0.251   1.390
  874SOL     OW 4460  13.887   0.901   5.667
  874SOL    HW1 4461  13.808   0.848   5.675
  874SOL    HW2 4462  13.958   0.837   5.659
  875SOL     OW 4463   6.821   4.653   0.678
  875SOL    HW1 4464   6.812   4.620   0.767
  875SOL    HW2 4465   6.848   4.744   0.689
  876SOL     OW 4466   5.704  10.407  10.718
  876SOL    HW1 4467   5.794  10.436  10.702
  876SOL    HW2 4468   5.690  10.338  10.654
  877SOL     OW 4469   3.924   1.220  11.899
  877SOL    HW1 4470   3.988   1.287  11.874
  877SOL    HW2 4471   3.846   1.242  11.849
  878SOL     OW 4472   9.545  11.437   3.198
  878SOL    HW1 4473   9.509  11.514   3.241
  878SOL    HW2 4474   9.481  11.369   3.213
  879SOL     OW 4475   6.325   4.038   5.093
  879SOL    HW1 4476   6.249   3.979   5.091
  879SOL    HW2 4477   6.386   3.996   5.155
  880SOL     OW 4478   8.793  10.002   9.335
  880SOL    HW1 4479   8.742  10.037   9.408
  880SOL    HW2 4480   8.776  10.063   9.263
  881SOL     OW 4481   4.272   8.323   0.606
  881SOL    HW1 4482   4.182   8.305   0.633
  881SOL    HW2 4483   4.316   8.239   0.612
  882SOL     OW 4484   9.215   6.099  13.403
  882SOL    HW1 4485   9.303   6.120  13.435
  882SOL    HW2 4486   9.165   6.180  13.417
  883SOL     OW 4487  12.907  13.177   1.387
  883SOL    HW1 4488  12.817  13.149   1.374
  883SOL    HW2 4489  12.954  13.096   1.407
  884SOL     OW 4490  14.543   6.760  10.697
  884SOL    HW1 4491  14.485   6.836  10.693
  884SOL    HW2 4492  14.631   6.797  10.691
  885SOL     OW 4493   2.835   9.692   7.872
  885SOL    HW1 4494   2.743   9.683   7.844
  885SOL    HW2 4495   2.830   9.711   7.965
  886SOL     OW 4496   0.078   5.306   7.914
  886SOL    HW1 4497   0.010   5.372   7.921
  886SOL    HW2 4498   0.155   5.346   7.954
  887SOL     OW 4499   9.634  11.258   2.330
  887SOL    HW1 4500   9.690  11.256   2.407
  887SOL    HW2 4501   9.650  11.344   2.291
  888SOL     OW 4502   8.782   5.328  14.436
  888SOL    HW1 4503   8.742   5.358  14.354
  888SOL    HW2 4504   8.715   5.343  14.502
  889SOL     OW 4505  12.691  12.011  12.263
  889SOL    HW1 4506  12.625  12.038  12.200
  889SOL    HW2 4507  12.773  12.048  12.230
  890SOL     OW 4508   3.934   3.650   1.149
  890SOL    HW1 4509   3.972   3.736   1.129
  890SOL    HW2 4510   3.976   3.623   1.231
  891SOL     OW 4511   7.183   6.969  10.126
  891SOL    HW1 4512   7.176   7.064  10.133
  891SOL    HW2 4513   7.093   6.938  10.132
  892SOL     OW 4514   2.844  11.169  14.666
  892SOL    HW1 4515   2.899  11.090  14.669
  892SOL    HW2 4516   2.808  11.176  14.755
  893SOL     OW 4517  11.129   8.364   1.043
  893SOL    HW1 4518  11.059   8.327   0.989
  893SOL    HW2 4519  11.156   8.291   1.099
  894SOL     OW 4520   1.596   5.966   1.326
  894SOL    HW1 4521   1.654   5.890   1.316
  894SOL    HW2 4522   1.641   6.021   1.390
  895SOL     OW 4523   2.566  14.701   0.483
  895SOL    HW1 4524   2.539  14.701   0.575
  895SOL    HW2 4525   2.491  14.663   0.437
  896SOL     OW 4526   0.097   9.852   5.883
  896SOL    HW1 4527   0.182   9.819   5.855
  896SOL    HW2 4528   0.038   9.777   5.874
  897SOL     OW 4529  13.805  13.409   2.479
  897SOL    HW1 4530  13.822  13.319   2.451
  897SOL    HW2 4531  13.787  13.456   2.397
  898SOL     OW 4532   7.461   5.291  10.971
  898SOL    HW1 4533   7.467   5.211  10.920
  898SOL    HW2 4534   7.547   5.300  11.011
  899SOL     OW 4535   7.206   5.213  10.461
  899SOL    HW1 4536   7.263   5.136  10.466
  899SOL    HW2 4537   7.262   5.286  10.485
  900SOL     OW 4538   4.207   5.513  10.094
  900SOL    HW1 4539   4.178   5.533  10.183
  900SOL    HW2 4540   4.298   5.484  10.105
  901SOL     OW 4541   8.205  12.545  10.557
  901SOL    HW1 4542   8.291  12.512  10.532
  901SOL    HW2 4543   8.223  12.616  10.618
  902SOL     OW 4544  10.136   9.842  12.941
  902SOL    HW1 4545  10.214   9.788  12.948
  902SOL    HW2 4546  10.078   9.793  12.881
  903SOL     OW 4547  14.340   0.087   8.287
  903SOL    HW1 4548  14.394   0.136   8.348
  903SOL    HW2 4549  14.332  14.880   8.326
  904SOL     OW 4550   6.382  10.027   7.305
  904SOL    HW1 4551   6.380  10.107   7.253
  904SOL    HW2 4552   6.460   9.981   7.276
  905SOL     OW 4553   0.321  10.069   0.820
  905SOL    HW1 4554   0.228  10.077   0.800
  905SOL    HW2 4555   0.350  10.158   0.836
  906SOL     OW 4556  10.898  14.161   9.209
  906SOL    HW1 4557  10.852  14.185   9.128
  906SOL    HW2 4558  10.872  14.229   9.271
  907SOL     OW 4559  12.392   7.826   4.216
  907SOL    HW1 4560  12.452   7.836   4.289
  907SOL    HW2 4561  12.431   7.878   4.145
  908SOL     OW 4562   4.634   1.392   4.659
  908SOL    HW1 4563   4.601   1.313   4.615
  908SOL    HW2 4564   4.556   1.434   4.695
  909SOL     OW 4565   8.450   9.372   0.830
  909SOL    HW1 4566   8.469   9.422   0.908
  909SOL    HW2 4567   8.366   9.329   0.849
  910SOL     OW 4568  10.736   9.248  10.920
  910SOL    HW1 4569  10.826   9.279  10.910
  910SOL    HW2 4570  10.682   9.320  10.889
  911SOL     OW 4571  11.655  10.586  13.325
  911SOL    HW1 4572  11.665  10.521  13.255
  911SOL    HW2 4573  11.619  10.536  13.399
  912SOL     OW 4574   2.001  10.932  13.250
  912SOL    HW1 4575   2.069  10.911  13.314
  912SOL    HW2 4576   2.048  10.933  13.166
  913SOL     OW 4577  12.689  12.629  10.355
  913SOL    HW1 4578  12.666  12.611  10.264
  913SOL    HW2 4579  12.657  12.718  10.370
  914SOL     OW 4580   5.757  11.979   0.113
  914SOL    HW1 4581   5.734  11.898   0.068
  914SOL    HW2 4582   5.783  11.952   0.201
  915SOL     OW 4583  12.764  12.673   4.399
  915SOL    HW1 4584  12.843  12.654   4.448
  915SOL    HW2 4585  12.711  12.726   4.458
  916SOL     OW 4586  11.723   8.183  10.465
  916SOL    HW1 4587  11.804   8.145  10.498
  916SOL    HW2 4588  11.726   8.170  10.371
  917SOL     OW 4589   7.891  11.752   5.439
  917SOL    HW1 4590   7.930  11.751   5.527
  917SOL    HW2 4591   7.871  11.660   5.421
  918SOL     OW 4592   0.902  10.810   3.251
  918SOL    HW1 4593   0.863  10.745   3.309
  918SOL    HW2 4594   0.841  10.815   3.177
  919SOL     OW 4595   1.921   3.636   0.417
  919SOL    HW1 4596   1.830   3.659   0.397
  919SOL    HW2 4597   1.973   3.708   0.380
  920SOL     OW 4598   4.844   9.116   1.237
  920SOL    HW1 4599   4.817   9.197   1.194
  920SOL    HW2 4600   4.895   9.070   1.172
  921SOL     OW 4601   5.591   4.679   8.868
  921SOL    HW1 4602   5.667   4.731   8.840
  921SOL    HW2 4603   5.623   4.630   8.944
  922SOL     OW 4604  10.067   2.536  11.529
  922SOL    HW1 4605  10.039   2.454  11.489
  922SOL    HW2 4606  10.117   2.509  11.607
  923SOL     OW 4607   1.900   9.538  13.778
  923SOL    HW1 4608   1.817   9.552  13.825
  923SOL    HW2 4609   1.895   9.448  13.746
  924SOL     OW 4610   1.497   6.852   4.853
  924SOL    HW1 4611   1.478   6.767   4.894
  924SOL    HW2 4612   1.451   6.849   4.769
  925SOL     OW 4613   9.624   9.215   4.131
  925SOL    HW1 4614   9.594   9.305   4.140
  925SOL    HW2 4615   9.543   9.164   4.122
  926SOL     OW 4616   7.540  11.522   0.550
  926SOL    HW1 4617   7.614  11.506   0.491
  926SOL    HW2 4618   7.579  11.520   0.638
  927SOL     OW 4619  13.157  12.425   9.497
  927SOL    HW1 4620  13.194  12.432   9.409
  927SOL    HW2 4621  13.093  12.355   9.490
  928SOL     OW 4622   3.280   7.705  11.043
  928SOL    HW1 4623   3.212   7.638  11.039
  928SOL    HW2 4624   3.233   7.788  11.033
  929SOL     OW 4625   2.841  14.378  12.048
  929SOL    HW1 4626   2.860  14.470  12.065
  929SOL    HW2 4627   2.797  14.377  11.963
  930SOL     OW 4628  12.477   5.734   4.255
  930SOL    HW1 4629  12.520   5.660   4.211
  930SOL    HW2 4630  12.463   5.703   4.345
  931SOL     OW 4631   5.310   4.436   7.835
  931SOL    HW1 4632   5.255   4.358   7.822
  931SOL    HW2 4633   5.393   4.401   7.868
  932SOL     OW 4634   1.496  14.336   8.322
  932SOL    HW1 4635   1.472  14.400   8.256
  932SOL    HW2 4636   1.585  14.309   8.298
  933SOL     OW 4637  11.742   1.434   1.389
  933SOL    HW1 4638  11.833   1.459   1.400
  933SOL    HW2 4639  11.744   1.353   1.338
  934SOL     OW 4640   1.434   1.093   8.181
  934SOL    HW1 4641   1.521   1.070   8.149
  934SOL    HW2 4642   1.375   1.056   8.114
  935SOL     OW 4643  14.703   5.241   2.022
  935SOL    HW1 4644  14.609   5.257   2.025
  935SOL    HW2 4645  14.722   5.224   1.930
  936SOL     OW 4646  13.570   8.681  11.529
  936SOL    HW1 4647  13.605   8.718  11.610
  936SOL    HW2 4648  13.647   8.642  11.486
  937SOL     OW 4649   4.393   1.603  12.452
  937SOL    HW1 4650   4.431   1.517  12.469
  937SOL    HW2 4651   4.339   1.590  12.374
  938SOL     OW 4652   4.083   8.231  12.925
  938SOL    HW1 4653   4.023   8.215  12.852
  938SOL    HW2 4654   4.162   8.183  12.901
  939SOL     OW 4655  10.907   3.140   6.786
  939SOL    HW1 4656  10.822   3.095   6.787
  939SOL    HW2 4657  10.912   3.182   6.872
  940SOL     OW 4658   3.307   5.297   8.251
  940SOL    HW1 4659   3.348   5.317   8.335
  940SOL    HW2 4660   3.307   5.201   8.246
  941SOL     OW 4661  10.320  11.115   3.658
  941SOL    HW1 4662  10.248  11.117   3.721
  941SOL    HW2 4663  10.325  11.024   3.630
  942SOL     OW 4664   0.992  13.307   5.820
  942SOL    HW1 4665   1.066  13.278   5.873
  942SOL    HW2 4666   0.916  13.303   5.879
  943SOL     OW 4667   9.542  12.290   9.804
  943SOL    HW1 4668   9.517  12.296   9.712
  943SOL    HW2 4669   9.637  12.297   9.804
  944SOL     OW 4670   4.126   2.486   1.783
  944SOL    HW1 4671   4.176   2.536   1.719
  944SOL    HW2 4672   4.177   2.494   1.864
  945SOL     OW 4673  10.573   5.560   6.994
  945SOL    HW1 4674  10.512   5.545   6.922
  945SOL    HW2 4675  10.531   5.627   7.048
  946SOL     OW 4676   4.814   1.341   5.272
  946SOL    HW1 4677   4.780   1.273   5.330
  946SOL    HW2 4678   4.861   1.402   5.330
  947SOL     OW 4679  13.041  13.032   0.071
  947SOL    HW1 4680  13.118  13.086   0.088
  947SOL    HW2 4681  12.967  13.092   0.083
  948SOL     OW 4682   4.793   5.112   0.283
  948SOL    HW1 4683   4.717   5.055   0.292
  948SOL    HW2 4684   4.781   5.178   0.352
  949SOL     OW 4685   2.720   2.455   6.318
  949SOL    HW1 4686   2.772   2.536   6.318
  949SOL    HW2 4687   2.630   2.486   6.327
  950SOL     OW 4688  12.275  11.324   4.432
  950SOL    HW1 4689  12.185  11.335   4.464
  950SOL    HW2 4690  12.264  11.291   4.342
  951SOL     OW 4691  12.911  12.907   1.939
  951SOL    HW1 4692  12.905  13.001   1.924
  951SOL    HW2 4693  12.886  12.868   1.855
  952SOL     OW 4694   5.701   3.817  14.326
  952SOL    HW1 4695   5.792   3.789  14.326
  952SOL    HW2 4696   5.663   3.776  14.249
  953SOL     OW 4697   1.243  13.268   6.570
  953SOL    HW1 4698   1.233  13.294   6.662
  953SOL    HW2 4699   1.323  13.312   6.541
  954SOL     OW 4700  11.720   0.633   6.088
  954SOL    HW1 4701  11.771   0.603   6.164
  954SOL    HW2 4702  11.783   0.634   6.016
  955SOL     OW 4703  11.242   2.940  12.913
  955SOL    HW1 4704  11.295   2.865  12.886
  955SOL    HW2 4705  11.207   2.976  12.832
  956SOL     OW 4706  11.872   3.920   1.344
  956SOL    HW1 4707  11.965   3.923   1.368
  956SOL    HW2 4708  11.827   3.904   1.427
  957SOL     OW 4709  14.061   7.260   8.234
  957SOL    HW1 4710  13.987   7.253   8.174
  957SOL    HW2 4711  14.123   7.318   8.189
  958SOL     OW 4712   9.793  11.571   4.847
  958SOL    HW1 4713   9.883  11.561   4.879
  958SOL    HW2 4714   9.743  11.505   4.894
  959SOL     OW 4715  11.077   1.965   5.172
  959SOL    HW1 4716  11.093   2.047   5.126
  959SOL    HW2 4717  11.062   1.990   5.263
  960SOL     OW 4718   0.286  14.108   4.762
  960SOL    HW1 4719   0.269  14.198   4.734
  960SOL    HW2 4720   0.345  14.117   4.836
  961SOL     OW 4721  14.597  11.121  10.112
  961SOL    HW1 4722  14.666  11.088  10.170
  961SOL    HW2 4723  14.538  11.170  10.169
  962SOL     OW 4724   0.105   8.725   3.998
  962SOL    HW1 4725   0.103   8.773   3.915
  962SOL    HW2 4726   0.022   8.677   3.999
  963SOL     OW 4727   4.001   3.880   7.811
  963SOL    HW1 4728   4.022   3.822   7.884
  963SOL    HW2 4729   4.028   3.831   7.733
  964SOL     OW 4730   2.618   1.647  10.244
  964SOL    HW1 4731   2.709   1.624  10.226
  964SOL    HW2 4732   2.596   1.712  10.178
  965SOL     OW 4733  13.744  13.354   8.216
  965SOL    HW1 4734  13.751  13.371   8.310
  965SOL    HW2 4735  13.762  13.439   8.176
  966SOL     OW 4736   4.368   5.756   9.297
  966SOL    HW1 4737   4.276   5.753   9.270
  966SOL    HW2 4738   4.368   5.810   9.376
  967SOL     OW 4739  14.681  10.496  11.370
  967SOL    HW1 4740  14.753  10.556  11.387
  967SOL    HW2 4741  14.667  10.451  11.453
  968SOL     OW 4742   5.223   0.369   2.016
  968SOL    HW1 4743   5.205   0.462   2.003
  968SOL    HW2 4744   5.140   0.332   2.045
  969SOL     OW 4745   2.825   9.251   0.946
  969SOL    HW1 4746   2.843   9.341   0.916
  969SOL    HW2 4747   2.754   9.261   1.009
  970SOL     OW 4748   4.066  10.105   8.868
  970SOL    HW1 4749   4.157  10.078   8.856
  970SOL    HW2 4750   4.045  10.158   8.791
  971SOL     OW 4751   6.061  10.012   6.546
  971SOL    HW1 4752   6.002   9.937   6.554
  971SOL    HW2 4753   6.144   9.981   6.581
  972SOL     OW 4754  10.037   3.476   9.189
  972SOL    HW1 4755   9.994   3.478   9.274
  972SOL    HW2 4756  10.129   3.496   9.208
  973SOL     OW 4757   4.117  12.216   0.371
  973SOL    HW1 4758   4.079  12.143   0.323
  973SOL    HW2 4759   4.095  12.294   0.319
  974SOL     OW 4760  11.757   4.124  10.396
  974SOL    HW1 4761  11.797   4.083  10.319
  974SOL    HW2 4762  11.809   4.092  10.470
  975SOL     OW 4763  14.482   1.018  11.137
  975SOL    HW1 4764  14.499   1.079  11.208
  975SOL    HW2 4765  14.532   1.053  11.063
  976SOL     OW 4766   4.292  10.049   3.705
  976SOL    HW1 4767   4.205  10.020   3.731
  976SOL    HW2 4768   4.324  10.101   3.779
  977SOL     OW 4769  12.400  12.990   9.476
  977SOL    HW1 4770  12.348  13.065   9.446
  977SOL    HW2 4771  12.449  12.963   9.399
  978SOL     OW 4772   0.353   6.298   0.867
  978SOL    HW1 4773   0.338   6.208   0.894
  978SOL    HW2 4774   0.408   6.292   0.788
  979SOL     OW 4775  14.062  14.252   3.518
  979SOL    HW1 4776  13.987  14.192   3.514
  979SOL    HW2 4777  14.065  14.291   3.430
  980SOL     OW 4778   9.090   9.841   9.469
  980SOL    HW1 4779   9.083   9.934   9.490
  980SOL    HW2 4780   9.158   9.809   9.527
  981SOL     OW 4781  14.693   3.579   4.290
  981SOL    HW1 4782  14.766   3.552   4.234
  981SOL    HW2 4783  14.621   3.520   4.267
  982SOL     OW 4784  14.145   9.394   5.059
  982SOL    HW1 4785  14.078   9.429   5.000
  982SOL    HW2 4786  14.119   9.303   5.073
  983SOL     OW 4787   0.295  12.974   2.028
  983SOL    HW1 4788   0.216  12.990   1.976
  983SOL    HW2 4789   0.364  12.960   1.963
  984SOL     OW 4790   5.763   1.502  10.545
  984SOL    HW1 4791   5.714   1.517  10.625
  984SOL    HW2 4792   5.784   1.408  10.547
  985SOL     OW 4793  10.657   0.676  14.156
  985SOL    HW1 4794  10.721   0.670  14.227
  985SOL    HW2 4795  10.688   0.749  14.102
  986SOL     OW 4796   2.356   7.031   2.992
  986SOL    HW1 4797   2.359   7.034   3.088
  986SOL    HW2 4798   2.443   7.057   2.964
  987SOL     OW 4799   5.442   0.195   3.802
  987SOL    HW1 4800   5.398   0.172   3.721
  987SOL    HW2 4801   5.469   0.286   3.790
  988SOL     OW 4802   8.566   1.667   9.003
  988SOL    HW1 4803   8.512   1.656   9.082
  988SOL    HW2 4804   8.601   1.579   8.986
  989SOL     OW 4805  10.306  12.587   8.549
  989SOL    HW1 4806  10.247  12.652   8.588
  989SOL    HW2 4807  10.256  12.505   8.551
  990SOL     OW 4808   3.249  12.196   7.344
  990SOL    HW1 4809   3.261  12.291   7.332
  990SOL    HW2 4810   3.187  12.188   7.416
  991SOL     OW 4811  13.958   6.440   2.534
  991SOL    HW1 4812  14.001   6.355   2.528
  991SOL    HW2 4813  13.939   6.451   2.627
  992SOL     OW 4814   7.334   8.638   1.916
  992SOL    HW1 4815   7.421   8.647   1.879
  992SOL    HW2 4816   7.291   8.573   1.860
  993SOL     OW 4817   8.942   9.765  11.895
  993SOL    HW1 4818   8.970   9.841  11.843
  993SOL    HW2 4819   9.024   9.725  11.924
  994SOL     OW 4820   2.755   3.255   4.069
  994SOL    HW1 4821   2.746   3.347   4.045
  994SOL    HW2 4822   2.781   3.257   4.161
  995SOL     OW 4823  12.225  10.406   6.770
  995SOL    HW1 4824  12.138  10.372   6.791
  995SOL    HW2 4825  12.242  10.377   6.681
  996SOL     OW 4826  11.289   8.875   3.499
  996SOL    HW1 4827  11.326   8.960   3.523
  996SOL    HW2 4828  11.355   8.812   3.527
  997SOL     OW 4829  10.058   7.120   2.882
  997SOL    HW1 4830  10.062   7.125   2.787
  997SOL    HW2 4831   9.971   7.152   2.905
  998SOL     OW 4832  11.434   0.486   9.956
  998SOL    HW1 4833  11.362   0.435   9.918
  998SOL    HW2 4834  11.393   0.540  10.023
  999SOL     OW 4835   2.704   8.543  14.416
  999SOL    HW1 4836   2.733   8.634  14.418
  999SOL    HW2 4837   2.614   8.546  14.450
 1000SOL     OW 4838  14.615   1.236   9.768
 1000SOL    HW1 4839  14.705   1.249   9.736
 1000SOL    HW2 4840  14.625   1.223   9.862
 1001SOL     OW 4841   8.120  13.538   0.454
 1001SOL    HW1 4842   8.066  13.554   0.531
 1001SOL    HW2 4843   8.208  13.526   0.489
 1002SOL     OW 4844   2.464   0.311   7.394
 1002SOL    HW1 4845   2.468   0.270   7.308
 1002SOL    HW2 4846   2.459   0.239   7.456
 1003SOL     OW 4847   1.662  14.821  11.987
 1003SOL    HW1 4848   1.654  14.726  11.984
 1003SOL    HW2 4849   1.667  14.848  11.896
 1004SOL     OW 4850  13.200  12.579   6.490
 1004SOL    HW1 4851  13.295  12.590   6.486
 1004SOL    HW2 4852  13.179  12.520   6.418
 1005SOL     OW 4853  12.954   7.154  10.616
 1005SOL    HW1 4854  12.896   7.210  10.566
 1005SOL    HW2 4855  13.040   7.196  10.610
 1006SOL     OW 4856   4.963   4.399   4.745
 1006SOL    HW1 4857   4.960   4.478   4.690
 1006SOL    HW2 4858   4.872   4.384   4.770
 1007SOL     OW 4859  10.489  12.066   0.925
 1007SOL    HW1 4860  10.416  12.087   0.982
 1007SOL    HW2 4861  10.501  11.971   0.933
 1008SOL     OW 4862   7.749   7.053  10.168
 1008SOL    HW1 4863   7.715   7.001  10.240
 1008SOL    HW2 4864   7.799   7.123  10.210
 1009SOL     OW 4865  11.575  14.423  10.146
 1009SOL    HW1 4866  11.596  14.332  10.164
 1009SOL    HW2 4867  11.537  14.421  10.058
 1010SOL     OW 4868  10.109   1.210   5.100
 1010SOL    HW1 4869  10.147   1.194   5.187
 1010SOL    HW2 4870  10.150   1.292   5.071
 1011SOL     OW 4871   0.796   5.716  10.879
 1011SOL    HW1 4872   0.757   5.794  10.840
 1011SOL    HW2 4873   0.868   5.749  10.933
 1012SOL     OW 4874   8.191   6.424  12.872
 1012SOL    HW1 4875   8.098   6.438  12.852
 1012SOL    HW2 4876   8.237   6.495  12.828
 1013SOL     OW 4877  13.320   6.962  11.490
 1013SOL    HW1 4878  13.312   6.993  11.400
 1013SOL    HW2 4879  13.231   6.967  11.525
 1014SOL     OW 4880   7.413  11.360   6.990
 1014SOL    HW1 4881   7.342  11.297   6.985
 1014SOL    HW2 4882   7.482  11.315   7.038
 1015SOL     OW 4883  12.304   2.289   0.684
 1015SOL    HW1 4884  12.364   2.218   0.660
 1015SOL    HW2 4885  12.240   2.248   0.741
 1016SOL     OW 4886  13.450   3.808   9.428
 1016SOL    HW1 4887  13.414   3.828   9.341
 1016SOL    HW2 4888  13.505   3.883   9.448
 1017SOL     OW 4889  12.776   7.731   5.758
 1017SOL    HW1 4890  12.724   7.793   5.808
 1017SOL    HW2 4891  12.862   7.773   5.748
 1018SOL     OW 4892  13.437   0.186  10.851
 1018SOL    HW1 4893  13.467   0.272  10.880
 1018SOL    HW2 4894  13.351   0.203  10.812
 1019SOL     OW 4895  12.411   6.393   2.059
 1019SOL    HW1 4896  12.368   6.406   1.975
 1019SOL    HW2 4897  12.343   6.358   2.116
 1020SOL     OW 4898   0.072   2.035   9.996
 1020SOL    HW1 4899   0.138   1.966   9.987
 1020SOL    HW2 4900   0.060   2.044  10.090
 1021SOL     OW 4901  11.972   7.100  14.852
 1021SOL    HW1 4902  11.886   7.136  14.872
 1021SOL    HW2 4903  11.999   7.057   0.053
 1022SOL     OW 4904   3.896   1.660   1.748
 1022SOL    HW1 4905   3.890   1.588   1.811
 1022SOL    HW2 4906   3.824   1.718   1.772
 1023SOL     OW 4907   9.100  12.709   5.854
 1023SOL    HW1 4908   9.057  12.630   5.887
 1023SOL    HW2 4909   9.073  12.713   5.762
 1024SOL     OW 4910  12.240   3.334  11.270
 1024SOL    HW1 4911  12.299   3.372  11.334
 1024SOL    HW2 4912  12.154   3.370  11.292
 1025SOL     OW 4913   7.694  14.852   7.753
 1025SOL    HW1 4914   7.638  14.865   7.830
 1025SOL    HW2 4915   7.681   0.050   7.700
 1026SOL     OW 4916  14.680  13.588  13.546
 1026SOL    HW1 4917  14.657  13.551  13.461
 1026SOL    HW2 4918  14.701  13.512  13.601
 1027SOL     OW 4919  11.881  10.661   8.630
 1027SOL    HW1 4920  11.788  10.645   8.611
 1027SOL    HW2 4921  11.929  10.611   8.564
 1028SOL     OW 4922   1.746   1.915   1.725
 1028SOL    HW1 4923   1.811   1.851   1.754
 1028SOL    HW2 4924   1.797   1.983   1.681
 1029SOL     OW 4925  10.273  11.897  11.321
 1029SOL    HW1 4926  10.313  11.951  11.253
 1029SOL    HW2 4927  10.315  11.811  11.311
 1030SOL     OW 4928   1.439  10.940   6.864
 1030SOL    HW1 4929   1.432  11.001   6.790
 1030SOL    HW2 4930   1.439  10.996   6.941
 1031SOL     OW 4931  12.630   5.481   0.141
 1031SOL    HW1 4932  12.723   5.502   0.149
 1031SOL    HW2 4933  12.589   5.529   0.212
 1032SOL     OW 4934  14.868   7.665  14.439
 1032SOL    HW1 4935   0.021   7.659  14.528
 1032SOL    HW2 4936  14.865   7.759  14.420
 1033SOL     OW 4937   8.810   9.175   5.572
 1033SOL    HW1 4938   8.809   9.081   5.588
 1033SOL    HW2 4939   8.903   9.197   5.565
 1034SOL     OW 4940   7.651   9.957   5.981
 1034SOL    HW1 4941   7.736   9.965   6.025
 1034SOL    HW2 4942   7.588   9.944   6.052
 1035SOL     OW 4943   3.991   8.006   4.753
 1035SOL    HW1 4944   3.967   7.965   4.836
 1035SOL    HW2 4945   3.985   8.100   4.770
 1036SOL     OW 4946   9.994   1.877  13.055
 1036SOL    HW1 4947  10.078   1.852  13.094
 1036SOL    HW2 4948   9.932   1.875  13.128
 1037SOL     OW 4949   9.240  11.492   0.691
 1037SOL    HW1 4950   9.300  11.436   0.641
 1037SOL    HW2 4951   9.175  11.520   0.627
 1038SOL     OW 4952  11.538   2.648   0.279
 1038SOL    HW1 4953  11.480   2.720   0.254
 1038SOL    HW2 4954  11.479   2.574   0.296
 1039SOL     OW 4955  13.354  12.280   1.172
 1039SOL    HW1 4956  13.448  12.297   1.178
 1039SOL    HW2 4957  13.314  12.367   1.173
 1040SOL     OW 4958   7.120  11.989   1.612
 1040SOL    HW1 4959   7.093  11.928   1.542
 1040SOL    HW2 4960   7.089  11.948   1.692
 1041SOL     OW 4961  14.056   8.585  10.162
 1041SOL    HW1 4962  14.081   8.622  10.247
 1041SOL    HW2 4963  14.138   8.586  10.111
 1042SOL     OW 4964   8.633  12.765  14.507
 1042SOL    HW1 4965   8.683  12.753  14.427
 1042SOL    HW2 4966   8.649  12.855  14.533
 1043SOL     OW 4967  11.356  10.373   2.701
 1043SOL    HW1 4968  11.266  10.405   2.709
 1043SOL    HW2 4969  11.374  10.370   2.607
 1044SOL     OW 4970  11.246  13.987  11.337
 1044SOL    HW1 4971  11.324  13.981  11.392
 1044SOL    HW2 4972  11.178  13.939  11.385
 1045SOL     OW 4973   0.605  14.095   2.095
 1045SOL    HW1 4974   0.675  14.087   2.031
 1045SOL    HW2 4975   0.534  14.041   2.060
 1046SOL     OW 4976  13.446   7.752   8.829
 1046SOL    HW1 4977  13.383   7.683   8.805
 1046SOL    HW2 4978  13.392   7.819   8.871
 1047SOL     OW 4979  10.950   4.354  12.129
 1047SOL    HW1 4980  10.945   4.446  12.158
 1047SOL    HW2 4981  10.859   4.325  12.126
 1048SOL     OW 4982   1.240   5.423   7.134
 1048SOL    HW1 4983   1.175   5.354   7.122
 1048SOL    HW2 4984   1.210   5.494   7.078
 1049SOL     OW 4985   4.880   9.791   7.776
 1049SOL    HW1 4986   4.834   9.804   7.693
 1049SOL    HW2 4987   4.909   9.700   7.774
 1050SOL     OW 4988  10.046  12.924   9.601
 1050SOL    HW1 4989  10.035  12.872   9.681
 1050SOL    HW2 4990  10.117  12.880   9.554
 1051SOL     OW 4991   2.074  14.101   8.843
 1051SOL    HW1 4992   2.103  14.011   8.849
 1051SOL    HW2 4993   2.138  14.151   8.893
 1052SOL     OW 4994   0.214   8.470   6.642
 1052SOL    HW1 4995   0.161   8.392   6.631
 1052SOL    HW2 4996   0.152   8.542   6.644
 1053SOL     OW 4997   6.229  10.859  13.919
 1053SOL    HW1 4998   6.162  10.844  13.985
 1053SOL    HW2 4999   6.312  10.848  13.966
 1054SOL     OW 5000   4.438  11.764  14.767
 1054SOL    HW1 5001   4.411  11.850  14.734
 1054SOL    HW2 5002   4.525  11.751  14.730
 1055SOL     OW 5003  14.774  11.313   9.844
 1055SOL    HW1 5004  14.712  11.250   9.881
 1055SOL    HW2 5005  14.859  11.290   9.883
 1056SOL     OW 5006  12.244  10.330  13.671
 1056SOL    HW1 5007  12.189  10.374  13.605
 1056SOL    HW2 5008  12.327  10.378  13.668
 1057SOL     OW 5009   6.637  14.335   3.770
 1057SOL    HW1 5010   6.726  14.357   3.796
 1057SOL    HW2 5011   6.607  14.410   3.719
 1058SOL     OW 5012   2.671   0.052  11.464
 1058SOL    HW1 5013   2.583   0.041  11.426
 1058SOL    HW2 5014   2.704   0.132  11.423
 1059SOL     OW 5015   5.167  10.034   9.672
 1059SOL    HW1 5016   5.249   9.985   9.666
 1059SOL    HW2 5017   5.182  10.112   9.618
 1060SOL     OW 5018   0.983   0.005   8.490
 1060SOL    HW1 5019   0.974   0.053   8.572
 1060SOL    HW2 5020   1.075  14.857   8.488
 1061SOL     OW 5021  13.120   1.232   2.232
 1061SOL    HW1 5022  13.057   1.304   2.228
 1061SOL    HW2 5023  13.183   1.251   2.162
 1062SOL     OW 5024   2.869   7.290  11.162
 1062SOL    HW1 5025   2.960   7.312  11.148
 1062SOL    HW2 5026   2.820   7.368  11.135
 1063SOL     OW 5027   1.226  13.083   8.296
 1063SOL    HW1 5028   1.230  13.142   8.371
 1063SOL    HW2 5029   1.268  13.003   8.326
 1064SOL     OW 5030   0.979   2.614   7.271
 1064SOL    HW1 5031   0.996   2.675   7.200
 1064SOL    HW2 5032   1.014   2.658   7.349
 1065SOL     OW 5033   4.797   4.588   3.059
 1065SOL    HW1 5034   4.727   4.555   3.003
 1065SOL    HW2 5035   4.871   4.530   3.041
 1066SOL     OW 5036  13.142   8.468   7.263
 1066SOL    HW1 5037  13.170   8.428   7.180
 1066SOL    HW2 5038  13.137   8.562   7.244
 1067SOL     OW 5039   8.323   1.389   6.957
 1067SOL    HW1 5040   8.281   1.431   6.882
 1067SOL    HW2 5041   8.406   1.435   6.967
 1068SOL     OW 5042   5.051   7.444   1.790
 1068SOL    HW1 5043   5.120   7.382   1.810
 1068SOL    HW2 5044   5.048   7.447   1.694
 1069SOL     OW 5045   3.220   4.493   8.368
 1069SOL    HW1 5046   3.206   4.585   8.390
 1069SOL    HW2 5047   3.148   4.471   8.309
 1070SOL     OW 5048   2.949   3.269  11.207
 1070SOL    HW1 5049   3.042   3.279  11.224
 1070SOL    HW2 5050   2.939   3.181  11.172
 1071SOL     OW 5051   2.054   6.971  10.977
 1071SOL    HW1 5052   2.116   7.030  10.934
 1071SOL    HW2 5053   2.104   6.934  11.050
 1072SOL     OW 5054   5.587   6.257   7.470
 1072SOL    HW1 5055   5.588   6.268   7.375
 1072SOL    HW2 5056   5.549   6.170   7.483
 1073SOL     OW 5057   9.558   5.076  14.874
 1073SOL    HW1 5058   9.556   5.079  14.778
 1073SOL    HW2 5059   9.562   5.168   0.020
 1074SOL     OW 5060  10.481  12.019  14.553
 1074SOL    HW1 5061  10.435  12.087  14.603
 1074SOL    HW2 5062  10.518  12.066  14.478
 1075SOL     OW 5063  11.511  11.681   1.708
 1075SOL    HW1 5064  11.606  11.694   1.706
 1075SOL    HW2 5065  11.500  11.591   1.737
 1076SOL     OW 5066   5.130   9.574   6.574
 1076SOL    HW1 5067   5.080   9.645   6.534
 1076SOL    HW2 5068   5.157   9.608   6.660
 1077SOL     OW 5069  12.860   6.817   2.594
 1077SOL    HW1 5070  12.941   6.783   2.556
 1077SOL    HW2 5071  12.878   6.910   2.609
 1078SOL     OW 5072   5.074  12.548  12.013
 1078SOL    HW1 5073   5.020  12.497  11.953
 1078SOL    HW2 5074   5.017  12.563  12.089
 1079SOL     OW 5075   6.318   5.610   4.305
 1079SOL    HW1 5076   6.414   5.603   4.304
 1079SOL    HW2 5077   6.298   5.672   4.374
 1080SOL     OW 5078  13.233  11.409  10.198
 1080SOL    HW1 5079  13.163  11.473  10.183
 1080SOL    HW2 5080  13.292  11.420  10.124
 1081SOL     OW 5081   5.578   0.953  14.115
 1081SOL    HW1 5082   5.617   0.896  14.181
 1081SOL    HW2 5083   5.642   1.022  14.102
 1082SOL     OW 5084  12.410  13.895   0.229
 1082SOL    HW1 5085  12.389  13.953   0.303
 1082SOL    HW2 5086  12.381  13.944   0.152
 1083SOL     OW 5087   8.025   4.624  10.865
 1083SOL    HW1 5088   8.113   4.649  10.836
 1083SOL    HW2 5089   8.023   4.529  10.854
 1084SOL     OW 5090   9.640   8.074   1.515
 1084SOL    HW1 5091   9.615   7.989   1.551
 1084SOL    HW2 5092   9.562   8.103   1.467
 1085SOL     OW 5093   7.666   2.149   7.206
 1085SOL    HW1 5094   7.744   2.141   7.150
 1085SOL    HW2 5095   7.597   2.105   7.157
 1086SOL     OW 5096   7.047   7.373   8.448
 1086SOL    HW1 5097   6.959   7.410   8.461
 1086SOL    HW2 5098   7.045   7.340   8.358
 1087SOL     OW 5099   3.747  12.707   9.390
 1087SOL    HW1 5100   3.730  12.694   9.297
 1087SOL    HW2 5101   3.782  12.623   9.420
 1088SOL     OW 5102  11.888   5.668   9.947
 1088SOL    HW1 5103  11.980   5.675   9.920
 1088SOL    HW2 5104  11.891   5.620  10.030
 1089SOL     OW 5105   0.732   9.009  11.387
 1089SOL    HW1 5106   0.818   8.968  11.378
 1089SOL    HW2 5107   0.670   8.936  11.382
 1090SOL     OW 5108   1.652  12.739   3.490
 1090SOL    HW1 5109   1.682  12.708   3.575
 1090SOL    HW2 5110   1.732  12.766   3.445
 1091SOL     OW 5111   1.918   4.967   3.626
 1091SOL    HW1 5112   1.873   5.046   3.597
 1091SOL    HW2 5113   1.991   4.957   3.565
 1092SOL     OW 5114   3.375   5.459   6.499
 1092SOL    HW1 5115   3.434   5.449   6.573
 1092SOL    HW2 5116   3.406   5.537   6.453
 1093SOL     OW 5117   3.883  10.476  14.037
 1093SOL    HW1 5118   3.890  10.381  14.030
 1093SOL    HW2 5119   3.801  10.498  13.992
 1094SOL     OW 5120   0.800   6.570   2.382
 1094SOL    HW1 5121   0.747   6.638   2.424
 1094SOL    HW2 5122   0.819   6.604   2.295
 1095SOL     OW 5123  12.728   2.545  11.312
 1095SOL    HW1 5124  12.638   2.517  11.323
 1095SOL    HW2 5125  12.781   2.471  11.343
 1096SOL     OW 5126   4.991  13.123  11.098
 1096SOL    HW1 5127   4.932  13.077  11.159
 1096SOL    HW2 5128   5.064  13.062  11.086
 1097SOL     OW 5129   2.403  11.883   6.854
 1097SOL    HW1 5130   2.313  11.900   6.828
 1097SOL    HW2 5131   2.446  11.851   6.775
 1098SOL     OW 5132  14.824   8.550   2.733
 1098SOL    HW1 5133  14.825   8.518   2.642
 1098SOL    HW2 5134  14.738   8.592   2.742
 1099SOL     OW 5135   5.710  11.463   3.429
 1099SOL    HW1 5136   5.675  11.402   3.494
 1099SOL    HW2 5137   5.738  11.408   3.356
 1100SOL     OW 5138   5.531   5.594  14.242
 1100SOL    HW1 5139   5.444   5.627  14.217
 1100SOL    HW2 5140   5.590   5.667  14.227
 1101SOL     OW 5141  10.107   7.847   7.952
 1101SOL    HW1 5142  10.142   7.833   7.865
 1101SOL    HW2 5143  10.068   7.935   7.948
 1102SOL     OW 5144   7.909   6.358   5.492
 1102SOL    HW1 5145   7.880   6.352   5.401
 1102SOL    HW2 5146   7.979   6.423   5.491
 1103SOL     OW 5147   2.967  14.192  10.838
 1103SOL    HW1 5148   2.973  14.172  10.745
 1103SOL    HW2 5149   3.016  14.274  10.848
 1104SOL     OW 5150   8.301  14.499   1.129
 1104SOL    HW1 5151   8.235  14.563   1.156
 1104SOL    HW2 5152   8.259  14.450   1.058
 1105SOL     OW 5153   7.233  11.498   3.570
 1105SOL    HW1 5154   7.262  11.552   3.496
 1105SOL    HW2 5155   7.309  11.494   3.628
 1106SOL     OW 5156  12.928   0.405   5.132
 1106SOL    HW1 5157  12.851   0.450   5.097
 1106SOL    HW2 5158  12.895   0.355   5.206
 1107SOL     OW 5159   9.509   9.100   1.368
 1107SOL    HW1 5160   9.545   9.126   1.453
 1107SOL    HW2 5161   9.586   9.083   1.314
 1108SOL     OW 5162   4.123   1.043  14.231
 1108SOL    HW1 5163   4.078   1.018  14.312
 1108SOL    HW2 5164   4.097   0.976  14.168
 1109SOL     OW 5165  14.722   8.605   3.989
 1109SOL    HW1 5166  14.666   8.530   3.969
 1109SOL    HW2 5167  14.660   8.678   3.999
 1110SOL     OW 5168   0.462   5.621  14.602
 1110SOL    HW1 5169   0.385   5.572  14.572
 1110SOL    HW2 5170   0.526   5.553  14.623
 1111SOL     OW 5171  11.448   0.128   9.546
 1111SOL    HW1 5172  11.434   0.034   9.559
 1111SOL    HW2 5173  11.362   0.167   9.564
 1112SOL     OW 5174   3.633  10.587   2.624
 1112SOL    HW1 5175   3.610  10.629   2.541
 1112SOL    HW2 5176   3.626  10.493   2.607
 1113SOL     OW 5177  12.930   2.453   3.167
 1113SOL    HW1 5178  12.889   2.431   3.251
 1113SOL    HW2 5179  12.901   2.383   3.107
 1114SOL     OW 5180  11.287   3.827   4.017
 1114SOL    HW1 5181  11.199   3.862   4.002
 1114SOL    HW2 5182  11.345   3.901   4.003
 1115SOL     OW 5183  11.747  13.346   6.100
 1115SOL    HW1 5184  11.793  13.384   6.025
 1115SOL    HW2 5185  11.717  13.260   6.069
 1116SOL     OW 5186   7.587   1.290   2.948
 1116SOL    HW1 5187   7.583   1.331   3.034
 1116SOL    HW2 5188   7.503   1.313   2.907
 1117SOL     OW 5189  13.334  11.578  13.268
 1117SOL    HW1 5190  13.372  11.524  13.198
 1117SOL    HW2 5191  13.336  11.521  13.345
 1118SOL     OW 5192  13.235  12.116   8.783
 1118SOL    HW1 5193  13.211  12.104   8.875
 1118SOL    HW2 5194  13.306  12.053   8.769
 1119SOL     OW 5195  12.398  11.151   3.241
 1119SOL    HW1 5196  12.450  11.148   3.160
 1119SOL    HW2 5197  12.413  11.065   3.282
 1120SOL     OW 5198   0.484   3.046  11.987
 1120SOL    HW1 5199   0.421   3.097  12.038
 1120SOL    HW2 5200   0.444   2.960  11.979
 1121SOL     OW 5201  12.969   5.022   5.858
 1121SOL    HW1 5202  12.902   4.973   5.809
 1121SOL    HW2 5203  12.964   4.987   5.947
 1122SOL     OW 5204  11.058  12.566  12.266
 1122SOL    HW1 5205  11.096  12.654  12.270
 1122SOL    HW2 5206  10.970  12.579  12.230
 1123SOL     OW 5207   4.807   8.388  12.600
 1123SOL    HW1 5208   4.858   8.315  12.565
 1123SOL    HW2 5209   4.718   8.353  12.610
 1124SOL     OW 5210   1.760   9.122   0.518
 1124SOL    HW1 5211   1.794   9.039   0.483
 1124SOL    HW2 5212   1.839   9.167   0.550
 1125SOL     OW 5213   3.984  12.970   4.869
 1125SOL    HW1 5214   3.935  12.975   4.787
 1125SOL    HW2 5215   4.051  12.904   4.853
 1126SOL     OW 5216   8.040  12.642   7.911
 1126SOL    HW1 5217   8.084  12.717   7.952
 1126SOL    HW2 5218   7.951  12.644   7.945
 1127SOL     OW 5219   7.611   8.057  14.485
 1127SOL    HW1 5220   7.547   8.030  14.551
 1127SOL    HW2 5221   7.660   8.129  14.526
 1128SOL     OW 5222   5.267   6.975   5.460
 1128SOL    HW1 5223   5.267   6.929   5.544
 1128SOL    HW2 5224   5.175   6.978   5.434
 1129SOL     OW 5225  11.039   2.475   3.258
 1129SOL    HW1 5226  10.961   2.419   3.258
 1129SOL    HW2 5227  11.112   2.414   3.260
 1130SOL     OW 5228  12.727   4.659   7.595
 1130SOL    HW1 5229  12.653   4.600   7.582
 1130SOL    HW2 5230  12.801   4.602   7.614
 1131SOL     OW 5231   3.055   1.751  10.088
 1131SOL    HW1 5232   3.091   1.838  10.105
 1131SOL    HW2 5233   3.108   1.716  10.017
 1132SOL     OW 5234   7.872   2.418  12.944
 1132SOL    HW1 5235   7.827   2.499  12.922
 1132SOL    HW2 5236   7.819   2.378  13.012
 1133SOL     OW 5237   7.896   3.444   5.850
 1133SOL    HW1 5238   7.803   3.438   5.830
 1133SOL    HW2 5239   7.922   3.532   5.822
 1134SOL     OW 5240   7.945   6.721   4.810
 1134SOL    HW1 5241   7.932   6.807   4.770
 1134SOL    HW2 5242   7.873   6.713   4.872
 1135SOL     OW 5243   8.005  13.554   0.693
 1135SOL    HW1 5244   7.934  13.569   0.756
 1135SOL    HW2 5245   8.014  13.459   0.690
 1136SOL     OW 5246   0.690  10.307  13.455
 1136SOL    HW1 5247   0.602  10.290  13.489
 1136SOL    HW2 5248   0.739  10.338  13.531
 1137SOL     OW 5249   1.272   9.769  13.037
 1137SOL    HW1 5250   1.267   9.836  13.104
 1137SOL    HW2 5251   1.363   9.738  13.040
 1138SOL     OW 5252   2.566   3.875   8.474
 1138SOL    HW1 5253   2.563   3.832   8.559
 1138SOL    HW2 5254   2.622   3.819   8.420
 1139SOL     OW 5255   4.656  10.800   8.028
 1139SOL    HW1 5256   4.617  10.847   8.101
 1139SOL    HW2 5257   4.725  10.746   8.068
 1140SOL     OW 5258  11.940   9.516  12.610
 1140SOL    HW1 5259  11.983   9.471  12.683
 1140SOL    HW2 5260  12.010   9.565  12.567
 1141SOL     OW 5261  14.843  12.658  12.308
 1141SOL    HW1 5262   0.051  12.678  12.277
 1141SOL    HW2 5263  14.834  12.564  12.296
 1142SOL     OW 5264   0.143   4.828   8.635
 1142SOL    HW1 5265   0.152   4.921   8.615
 1142SOL    HW2 5266   0.089   4.793   8.564
 1143SOL     OW 5267   2.212   6.156  11.536
 1143SOL    HW1 5268   2.284   6.170  11.597
 1143SOL    HW2 5269   2.151   6.099  11.583
 1144SOL     OW 5270   2.768  13.070   4.025
 1144SOL    HW1 5271   2.849  13.093   3.979
 1144SOL    HW2 5272   2.785  13.092   4.117
 1145SOL     OW 5273   5.878  11.662  13.105
 1145SOL    HW1 5274   5.883  11.567  13.111
 1145SOL    HW2 5275   5.911  11.683  13.017
 1146SOL     OW 5276   6.590   3.510   4.830
 1146SOL    HW1 5277   6.589   3.586   4.771
 1146SOL    HW2 5278   6.663   3.528   4.890
 1147SOL     OW 5279   7.065   0.377   0.528
 1147SOL    HW1 5280   7.121   0.454   0.519
 1147SOL    HW2 5281   7.123   0.310   0.565
 1148SOL     OW 5282   6.009   0.426   9.771
 1148SOL    HW1 5283   5.962   0.437   9.688
 1148SOL    HW2 5284   6.023   0.332   9.779
 1149SOL     OW 5285   8.592  13.281   8.585
 1149SOL    HW1 5286   8.597  13.241   8.672
 1149SOL    HW2 5287   8.524  13.347   8.593
 1150SOL     OW 5288  10.544  10.658   4.990
 1150SOL    HW1 5289  10.490  10.679   5.066
 1150SOL    HW2 5290  10.535  10.734   4.933
 1151SOL     OW 5291   2.260   6.414  14.694
 1151SOL    HW1 5292   2.304   6.331  14.672
 1151SOL    HW2 5293   2.327   6.481  14.682
 1152SOL     OW 5294   7.027   4.915   5.879
 1152SOL    HW1 5295   6.965   4.957   5.820
 1152SOL    HW2 5296   7.089   4.869   5.822
 1153SOL     OW 5297   8.546   1.795   6.425
 1153SOL    HW1 5298   8.466   1.821   6.379
 1153SOL    HW2 5299   8.616   1.836   6.375
 1154SOL     OW 5300   5.139   5.294   0.995
 1154SOL    HW1 5301   5.074   5.359   1.023
 1154SOL    HW2 5302   5.208   5.347   0.953
 1155SOL     OW 5303   1.683   1.700   5.121
 1155SOL    HW1 5304   1.613   1.722   5.182
 1155SOL    HW2 5305   1.746   1.772   5.130
 1156SOL     OW 5306   6.576   4.770   2.525
 1156SOL    HW1 5307   6.665   4.803   2.518
 1156SOL    HW2 5308   6.529   4.812   2.453
 1157SOL     OW 5309  14.354  12.307   3.098
 1157SOL    HW1 5310  14.435  12.287   3.145
 1157SOL    HW2 5311  14.285  12.290   3.162
 1158SOL     OW 5312   8.576   1.143  13.587
 1158SOL    HW1 5313   8.606   1.135  13.497
 1158SOL    HW2 5314   8.557   1.053  13.614
 1159SOL     OW 5315   0.480   5.038  14.668
 1159SOL    HW1 5316   0.491   4.944  14.680
 1159SOL    HW2 5317   0.558   5.066  14.620
 1160SOL     OW 5318   6.472   1.527   9.771
 1160SOL    HW1 5319   6.455   1.472   9.847
 1160SOL    HW2 5320   6.469   1.467   9.696
 1161SOL     OW 5321   7.387   9.546   9.212
 1161SOL    HW1 5322   7.342   9.597   9.144
 1161SOL    HW2 5323   7.474   9.585   9.218
 1162SOL     OW 5324   8.860   7.714   8.918
 1162SOL    HW1 5325   8.782   7.675   8.877
 1162SOL    HW2 5326   8.831   7.800   8.946
 1163SOL     OW 5327   3.077   1.604   5.380
 1163SOL    HW1 5328   3.022   1.680   5.400
 1163SOL    HW2 5329   3.018   1.529   5.386
 1164SOL     OW 5330   0.863   1.785  14.329
 1164SOL    HW1 5331   0.826   1.768  14.416
 1164SOL    HW2 5332   0.874   1.880  14.326
 1165SOL     OW 5333   2.599   8.832   8.313
 1165SOL    HW1 5334   2.549   8.821   8.232
 1165SOL    HW2 5335   2.543   8.795   8.381
 1166SOL     OW 5336   5.215   2.137   2.179
 1166SOL    HW1 5337   5.220   2.232   2.184
 1166SOL    HW2 5338   5.183   2.119   2.091
 1167SOL     OW 5339   7.443  14.443  12.485
 1167SOL    HW1 5340   7.454  14.453  12.579
 1167SOL    HW2 5341   7.468  14.528  12.448
 1168SOL     OW 5342   4.636   5.633   4.048
 1168SOL    HW1 5343   4.547   5.598   4.048
 1168SOL    HW2 5344   4.635   5.701   4.116
 1169SOL     OW 5345   2.108   2.395   4.077
 1169SOL    HW1 5346   2.147   2.353   4.153
 1169SOL    HW2 5347   2.130   2.339   4.003
 1170SOL     OW 5348   5.236   2.558   3.572
 1170SOL    HW1 5349   5.244   2.477   3.521
 1170SOL    HW2 5350   5.317   2.605   3.555
 1171SOL     OW 5351   4.776   4.513  12.458
 1171SOL    HW1 5352   4.813   4.425  12.459
 1171SOL    HW2 5353   4.777   4.540  12.550
 1172SOL     OW 5354  14.359   2.012   6.537
 1172SOL    HW1 5355  14.274   1.980   6.567
 1172SOL    HW2 5356  14.379   2.086   6.594
 1173SOL     OW 5357  14.211   5.511  12.239
 1173SOL    HW1 5358  14.117   5.497  12.252
 1173SOL    HW2 5359  14.217   5.564  12.160
 1174SOL     OW 5360  10.882   4.946   3.541
 1174SOL    HW1 5361  10.809   4.933   3.481
 1174SOL    HW2 5362  10.884   4.867   3.594
 1175SOL     OW 5363   5.757   8.792  13.220
 1175SOL    HW1 5364   5.806   8.719  13.184
 1175SOL    HW2 5365   5.695   8.752  13.281
 1176SOL     OW 5366  14.199   7.361   3.648
 1176SOL    HW1 5367  14.294   7.356   3.646
 1176SOL    HW2 5368  14.171   7.344   3.558
 1177SOL     OW 5369   9.491  14.129   1.307
 1177SOL    HW1 5370   9.579  14.134   1.346
 1177SOL    HW2 5371   9.434  14.106   1.379
 1178SOL     OW 5372   6.612   9.295  12.072
 1178SOL    HW1 5373   6.558   9.347  12.132
 1178SOL    HW2 5374   6.696   9.288  12.116
 1179SOL     OW 5375  11.185   8.215   3.007
 1179SOL    HW1 5376  11.142   8.130   2.997
 1179SOL    HW2 5377  11.138   8.258   3.078
 1180SOL     OW 5378  14.045  13.973   2.532
 1180SOL    HW1 5379  13.985  13.984   2.606
 1180SOL    HW2 5380  14.121  13.927   2.569
 1181SOL     OW 5381   4.064   6.197  10.410
 1181SOL    HW1 5382   4.029   6.251  10.339
 1181SOL    HW2 5383   4.021   6.112  10.399
 1182SOL     OW 5384   4.687   3.488   4.156
 1182SOL    HW1 5385   4.653   3.578   4.149
 1182SOL    HW2 5386   4.636   3.439   4.092
 1183SOL     OW 5387   4.030  11.675   8.936
 1183SOL    HW1 5388   3.975  11.734   8.885
 1183SOL    HW2 5389   4.110  11.668   8.886
 1184SOL     OW 5390   8.192   3.810  13.562
 1184SOL    HW1 5391   8.197   3.715  13.556
 1184SOL    HW2 5392   8.279   3.837  13.591
 1185SOL     OW 5393   2.272   1.844   8.199
 1185SOL    HW1 5394   2.312   1.827   8.114
 1185SOL    HW2 5395   2.341   1.827   8.262
 1186SOL     OW 5396   2.335   3.158   2.820
 1186SOL    HW1 5397   2.286   3.109   2.754
 1186SOL    HW2 5398   2.394   3.214   2.769
 1187SOL     OW 5399   2.799   9.637   9.331
 1187SOL    HW1 5400   2.831   9.616   9.243
 1187SOL    HW2 5401   2.732   9.572   9.349
 1188SOL     OW 5402   8.885  13.569   0.000
 1188SOL    HW1 5403   8.892  13.652  14.833
 1188SOL    HW2 5404   8.817  13.584   0.066
 1189SOL     OW 5405   0.586   6.915   7.788
 1189SOL    HW1 5406   0.512   6.867   7.828
 1189SOL    HW2 5407   0.660   6.854   7.796
 1190SOL     OW 5408   9.093  11.568  12.054
 1190SOL    HW1 5409   9.105  11.481  12.017
 1190SOL    HW2 5410   9.085  11.625  11.977
 1191SOL     OW 5411  14.599   8.952   0.152
 1191SOL    HW1 5412  14.569   9.019   0.090
 1191SOL    HW2 5413  14.689   8.977   0.173
 1192SOL     OW 5414   3.622   5.592  12.465
 1192SOL    HW1 5415   3.635   5.665  12.404
 1192SOL    HW2 5416   3.613   5.633  12.551
 1193SOL     OW 5417   6.049   4.068   2.713
 1193SOL    HW1 5418   6.033   4.148   2.663
 1193SOL    HW2 5419   5.988   4.004   2.676
 1194SOL     OW 5420   4.978   0.766   4.940
 1194SOL    HW1 5421   5.014   0.768   4.852
 1194SOL    HW2 5422   5.049   0.731   4.994
 1195SOL     OW 5423  10.796   7.467   1.186
 1195SOL    HW1 5424  10.759   7.427   1.108
 1195SOL    HW2 5425  10.820   7.393   1.242
 1196SOL     OW 5426   5.476  10.123   8.674
 1196SOL    HW1 5427   5.477  10.217   8.662
 1196SOL    HW2 5428   5.497  10.110   8.767
 1197SOL     OW 5429   6.719   2.586  11.769
 1197SOL    HW1 5430   6.685   2.671  11.797
 1197SOL    HW2 5431   6.780   2.561  11.838
 1198SOL     OW 5432   0.165   8.303  11.054
 1198SOL    HW1 5433   0.070   8.313  11.050
 1198SOL    HW2 5434   0.199   8.362  10.988
 1199SOL     OW 5435   8.254  12.622  13.842
 1199SOL    HW1 5436   8.295  12.580  13.766
 1199SOL    HW2 5437   8.254  12.554  13.909
 1200SOL     OW 5438   5.838   7.567   4.480
 1200SOL    HW1 5439   5.761   7.528   4.521
 1200SOL    HW2 5440   5.804   7.608   4.401
 1201SOL     OW 5441  10.808   9.799   6.493
 1201SOL    HW1 5442  10.740   9.853   6.533
 1201SOL    HW2 5443  10.862   9.771   6.566
 1202SOL     OW 5444  14.332  12.599   7.660
 1202SOL    HW1 5445  14.369  12.687   7.669
 1202SOL    HW2 5446  14.238  12.613   7.653
 1203SOL     OW 5447   9.591   6.078  13.469
 1203SOL    HW1 5448   9.668   6.121  13.507
 1203SOL    HW2 5449   9.593   5.990  13.504
 1204SOL     OW 5450  10.309   5.612   5.074
 1204SOL    HW1 5451  10.331   5.685   5.132
 1204SOL    HW2 5452  10.381   5.608   5.012
 1205SOL     OW 5453   8.712  12.652   6.004
 1205SOL    HW1 5454   8.639  12.694   6.050
 1205SOL    HW2 5455   8.672  12.609   5.929
 1206SOL     OW 5456   4.658  12.054   8.148
 1206SOL    HW1 5457   4.664  12.095   8.235
 1206SOL    HW2 5458   4.748  12.031   8.127
 1207SOL     OW 5459   3.275   0.630   7.071
 1207SOL    HW1 5460   3.217   0.554   7.078
 1207SOL    HW2 5461   3.348   0.598   7.018
 1208SOL     OW 5462   2.307   7.245  10.309
 1208SOL    HW1 5463   2.219   7.272  10.284
 1208SOL    HW2 5464   2.360   7.258  10.230
 1209SOL     OW 5465   6.230   1.921  10.610
 1209SOL    HW1 5466   6.180   1.839  10.610
 1209SOL    HW2 5467   6.275   1.921  10.525
 1210SOL     OW 5468   2.190  12.097   1.974
 1210SOL    HW1 5469   2.209  12.103   1.880
 1210SOL    HW2 5470   2.265  12.050   2.011
 1211SOL     OW 5471   8.575   4.773   2.740
 1211SOL    HW1 5472   8.486   4.801   2.762
 1211SOL    HW2 5473   8.566   4.732   2.654
 1212SOL     OW 5474   5.991  13.670   9.455
 1212SOL    HW1 5475   5.951  13.621   9.384
 1212SOL    HW2 5476   6.027  13.604   9.513
 1213SOL     OW 5477   1.977   0.975   1.431
 1213SOL    HW1 5478   1.959   1.022   1.512
 1213SOL    HW2 5479   1.960   1.040   1.362
 1214SOL     OW 5480  14.860  13.209   9.269
 1214SOL    HW1 5481  14.814  13.284   9.305
 1214SOL    HW2 5482  14.841  13.137   9.329
 1215SOL     OW 5483  12.298   9.323  13.025
 1215SOL    HW1 5484  12.310   9.232  13.052
 1215SOL    HW2 5485  12.386   9.360  13.027
 1216SOL     OW 5486   9.551   7.789  14.726
 1216SOL    HW1 5487   9.577   7.839  14.648
 1216SOL    HW2 5488   9.552   7.698  14.697
 1217SOL     OW 5489  14.671   7.717   5.343
 1217SOL    HW1 5490  14.623   7.695   5.263
 1217SOL    HW2 5491  14.727   7.641   5.359
 1218SOL     OW 5492  12.621   4.565  10.459
 1218SOL    HW1 5493  12.532   4.564  10.425
 1218SOL    HW2 5494  12.675   4.530  10.387
 1219SOL     OW 5495   6.320   6.337  11.000
 1219SOL    HW1 5496   6.327   6.247  11.032
 1219SOL    HW2 5497   6.384   6.386  11.052
 1220SOL     OW 5498  13.036  10.292   9.191
 1220SOL    HW1 5499  12.973  10.258   9.255
 1220SOL    HW2 5500  13.105  10.226   9.188
 1221SOL     OW 5501   4.904  13.692  14.601
 1221SOL    HW1 5502   4.945  13.721  14.520
 1221SOL    HW2 5503   4.909  13.768  14.659
 1222SOL     OW 5504   9.342   2.997   7.929
 1222SOL    HW1 5505   9.301   2.936   7.992
 1222SOL    HW2 5506   9.276   3.008   7.860
 1223SOL     OW 5507  12.253  14.843   8.601
 1223SOL    HW1 5508  12.291  14.765   8.562
 1223SOL    HW2 5509  12.191  14.875   8.536
 1224SOL     OW 5510  12.510  12.249  14.282
 1224SOL    HW1 5511  12.510  12.210  14.194
 1224SOL    HW2 5512  12.602  12.255  14.306
 1225SOL     OW 5513   6.023   7.393   8.987
 1225SOL    HW1 5514   6.107   7.367   9.024
 1225SOL    HW2 5515   5.997   7.470   9.039
 1226SOL     OW 5516   9.669   0.474  14.397
 1226SOL    HW1 5517   9.677   0.479  14.301
 1226SOL    HW2 5518   9.748   0.516  14.429
 1227SOL     OW 5519   1.453   2.276  12.691
 1227SOL    HW1 5520   1.360   2.288  12.709
 1227SOL    HW2 5521   1.482   2.212  12.755
 1228SOL     OW 5522   3.666   5.405   0.889
 1228SOL    HW1 5523   3.749   5.363   0.864
 1228SOL    HW2 5524   3.619   5.415   0.806
 1229SOL     OW 5525   8.352   8.514  14.026
 1229SOL    HW1 5526   8.375   8.449  13.960
 1229SOL    HW2 5527   8.397   8.486  14.106
 1230SOL     OW 5528   7.092  14.691  11.274
 1230SOL    HW1 5529   7.091  14.688  11.178
 1230SOL    HW2 5530   7.173  14.648  11.299
 1231SOL     OW 5531  14.362   5.386   0.161
 1231SOL    HW1 5532  14.367   5.295   0.134
 1231SOL    HW2 5533  14.450   5.420   0.147
 1232SOL     OW 5534  11.134  11.376   2.252
 1232SOL    HW1 5535  11.149  11.448   2.312
 1232SOL    HW2 5536  11.137  11.415   2.165
 1233SOL     OW 5537   3.768   9.174   0.090
 1233SOL    HW1 5538   3.672   9.182   0.096
 1233SOL    HW2 5539   3.798   9.264   0.076
 1234SOL     OW 5540   9.959   1.003   9.072
 1234SOL    HW1 5541   9.931   0.953   9.149
 1234SOL    HW2 5542   9.995   0.938   9.013
 1235SOL     OW 5543   1.403  13.940   0.500
 1235SOL    HW1 5544   1.412  13.847   0.522
 1235SOL    HW2 5545   1.348  13.976   0.569
 1236SOL     OW 5546  11.593  10.833   7.424
 1236SOL    HW1 5547  11.532  10.763   7.401
 1236SOL    HW2 5548  11.538  10.909   7.440
 1237SOL     OW 5549   4.623   7.420   6.343
 1237SOL    HW1 5550   4.580   7.340   6.374
 1237SOL    HW2 5551   4.681   7.446   6.414
 1238SOL     OW 5552   4.772  11.654  11.212
 1238SOL    HW1 5553   4.701  11.718  11.221
 1238SOL    HW2 5554   4.849  11.699  11.246
 1239SOL     OW 5555   5.577   2.534   6.022
 1239SOL    HW1 5556   5.533   2.491   6.096
 1239SOL    HW2 5557   5.648   2.474   5.999
 1240SOL     OW 5558  10.819   4.623  11.815
 1240SOL    HW1 5559  10.769   4.599  11.894
 1240SOL    HW2 5560  10.832   4.540  11.769
 1241SOL     OW 5561   6.396   8.298   2.536
 1241SOL    HW1 5562   6.433   8.362   2.477
 1241SOL    HW2 5563   6.439   8.215   2.512
 1242SOL     OW 5564  14.280   2.920   4.399
 1242SOL    HW1 5565  14.209   2.977   4.369
 1242SOL    HW2 5566  14.237   2.855   4.454
 1243SOL     OW 5567   2.787   5.444  13.904
 1243SOL    HW1 5568   2.806   5.350  13.915
 1243SOL    HW2 5569   2.706   5.458  13.953
 1244SOL     OW 5570   7.673  14.126   3.218
 1244SOL    HW1 5571   7.745  14.140   3.157
 1244SOL    HW2 5572   7.601  14.094   3.164
 1245SOL     OW 5573   4.582   3.160   6.613
 1245SOL    HW1 5574   4.514   3.213   6.654
 1245SOL    HW2 5575   4.558   3.157   6.520
 1246SOL     OW 5576   6.813  14.879   2.196
 1246SOL    HW1 5577   6.835  14.788   2.177
 1246SOL    HW2 5578   6.792   0.000   2.290
 1247SOL     OW 5579  12.714  13.192  12.651
 1247SOL    HW1 5580  12.645  13.212  12.714
 1247SOL    HW2 5581  12.684  13.113  12.607
 1248SOL     OW 5582  13.926   3.437   7.361
 1248SOL    HW1 5583  13.848   3.441   7.416
 1248SOL    HW2 5584  13.901   3.382   7.287
 1249SOL     OW 5585   6.125   2.990  10.802
 1249SOL    HW1 5586   6.147   3.057  10.737
 1249SOL    HW2 5587   6.034   2.967  10.784
 1250SOL     OW 5588   2.341  12.768  14.758
 1250SOL    HW1 5589   2.301  12.781  14.672
 1250SOL    HW2 5590   2.435  12.784  14.744
 1251SOL     OW 5591   9.102   5.623   7.158
 1251SOL    HW1 5592   9.173   5.598   7.098
 1251SOL    HW2 5593   9.110   5.562   7.231
 1252SOL     OW 5594   8.430   9.375  10.544
 1252SOL    HW1 5595   8.355   9.348  10.491
 1252SOL    HW2 5596   8.399   9.452  10.591
 1253SOL     OW 5597   6.061  12.752   0.781
 1253SOL    HW1 5598   6.119  12.737   0.856
 1253SOL    HW2 5599   6.015  12.668   0.770
 1254SOL     OW 5600   4.889   4.003   8.384
 1254SOL    HW1 5601   4.950   4.059   8.335
 1254SOL    HW2 5602   4.803   4.040   8.365
 1255SOL     OW 5603  13.008  11.743   3.842
 1255SOL    HW1 5604  12.953  11.715   3.915
 1255SOL    HW2 5605  13.084  11.685   3.845
 1256SOL     OW 5606   6.470  12.111  10.697
 1256SOL    HW1 5607   6.414  12.036  10.681
 1256SOL    HW2 5608   6.448  12.174  10.629
 1257SOL     OW 5609  10.634   4.515   9.402
 1257SOL    HW1 5610  10.702   4.545   9.464
 1257SOL    HW2 5611  10.558   4.498   9.457
 1258SOL     OW 5612   4.357  14.023   1.577
 1258SOL    HW1 5613   4.432  14.005   1.632
 1258SOL    HW2 5614   4.283  13.982   1.621
 1259SOL     OW 5615   0.562  10.349   6.972
 1259SOL    HW1 5616   0.497  10.322   6.907
 1259SOL    HW2 5617   0.532  10.309   7.053
 1260SOL     OW 5618   2.442   2.865  12.840
 1260SOL    HW1 5619   2.478   2.866  12.751
 1260SOL    HW2 5620   2.398   2.950  12.849
 1261SOL     OW 5621  12.119   6.418   1.596
 1261SOL    HW1 5622  12.050   6.478   1.567
 1261SOL    HW2 5623  12.166   6.395   1.516
 1262SOL     OW 5624   1.514  10.699   7.788
 1262SOL    HW1 5625   1.591  10.665   7.832
 1262SOL    HW2 5626   1.481  10.768   7.846
 1263SOL     OW 5627   8.157   4.245   5.089
 1263SOL    HW1 5628   8.134   4.337   5.071
 1263SOL    HW2 5629   8.113   4.226   5.172
 1264SOL     OW 5630  11.382  11.244   1.997
 1264SOL    HW1 5631  11.443  11.207   1.934
 1264SOL    HW2 5632  11.389  11.186   2.073
 1265SOL     OW 5633  11.469   1.013   0.101
 1265SOL    HW1 5634  11.462   0.922   0.075
 1265SOL    HW2 5635  11.552   1.042   0.063
 1266SOL     OW 5636   1.701  10.266   9.123
 1266SOL    HW1 5637   1.668  10.279   9.033
 1266SOL    HW2 5638   1.780  10.214   9.112
 1267SOL     OW 5639   1.760  11.357   7.213
 1267SOL    HW1 5640   1.819  11.432   7.209
 1267SOL    HW2 5641   1.752  11.327   7.123
 1268SOL     OW 5642   0.979   5.177   7.668
 1268SOL    HW1 5643   0.930   5.096   7.685
 1268SOL    HW2 5644   1.039   5.153   7.598
 1269SOL     OW 5645   3.955   9.908   7.615
 1269SOL    HW1 5646   3.953   9.929   7.521
 1269SOL    HW2 5647   4.047   9.911   7.638
 1270SOL     OW 5648   3.709   8.999   4.996
 1270SOL    HW1 5649   3.671   8.913   5.015
 1270SOL    HW2 5650   3.635   9.059   4.999
 1271SOL     OW 5651  10.719   8.894  13.832
 1271SOL    HW1 5652  10.636   8.941  13.832
 1271SOL    HW2 5653  10.786   8.963  13.837
 1272SOL     OW 5654  12.843   4.199   7.528
 1272SOL    HW1 5655  12.922   4.148   7.545
 1272SOL    HW2 5656  12.778   4.135   7.500
 1273SOL     OW 5657   4.172   1.755   9.662
 1273SOL    HW1 5658   4.170   1.659   9.659
 1273SOL    HW2 5659   4.235   1.775   9.731
 1274SOL     OW 5660   2.920   1.653   3.611
 1274SOL    HW1 5661   2.966   1.734   3.634
 1274SOL    HW2 5662   2.862   1.678   3.539
 1275SOL     OW 5663   8.002  12.203  12.426
 1275SOL    HW1 5664   8.067  12.145  12.386
 1275SOL    HW2 5665   7.934  12.143  12.458
 1276SOL     OW 5666   0.609   9.976   5.871
 1276SOL    HW1 5667   0.642  10.065   5.861
 1276SOL    HW2 5668   0.514   9.984   5.863
 1277SOL     OW 5669   6.453   4.470  13.061
 1277SOL    HW1 5670   6.472   4.545  13.119
 1277SOL    HW2 5671   6.443   4.509  12.974
 1278SOL     OW 5672   2.768  11.785   1.214
 1278SOL    HW1 5673   2.716  11.825   1.144
 1278SOL    HW2 5674   2.721  11.807   1.294
 1279SOL     OW 5675   5.865  13.244  14.869
 1279SOL    HW1 5676   5.860  13.313  14.803
 1279SOL    HW2 5677   5.843  13.289   0.072
 1280SOL     OW 5678   2.490   6.907   6.326
 1280SOL    HW1 5679   2.576   6.866   6.337
 1280SOL    HW2 5680   2.427   6.838   6.347
 1281SOL     OW 5681   6.890   2.241   7.185
 1281SOL    HW1 5682   6.809   2.192   7.171
 1281SOL    HW2 5683   6.956   2.174   7.203
 1282SOL     OW 5684   9.378  11.779   3.608
 1282SOL    HW1 5685   9.355  11.817   3.693
 1282SOL    HW2 5686   9.299  11.732   3.581
 1283SOL     OW 5687  13.871   8.077   9.773
 1283SOL    HW1 5688  13.796   8.064   9.716
 1283SOL    HW2 5689  13.932   8.129   9.721
 1284SOL     OW 5690  12.751   0.760  13.894
 1284SOL    HW1 5691  12.782   0.772  13.804
 1284SOL    HW2 5692  12.657   0.748  13.885
 1285SOL     OW 5693   3.640  14.265   9.015
 1285SOL    HW1 5694   3.683  14.348   9.033
 1285SOL    HW2 5695   3.625  14.226   9.101
 1286SOL     OW 5696  14.535   1.133  10.227
 1286SOL    HW1 5697  14.559   1.201  10.164
 1286SOL    HW2 5698  14.480   1.073  10.177
 1287SOL     OW 5699   0.744   0.690  11.635
 1287SOL    HW1 5700   0.807   0.620  11.617
 1287SOL    HW2 5701   0.668   0.645  11.673
 1288SOL     OW 5702   5.135   5.678   5.113
 1288SOL    HW1 5703   5.139   5.740   5.039
 1288SOL    HW2 5704   5.048   5.639   5.107
 1289SOL     OW 5705   3.296   3.314   3.849
 1289SOL    HW1 5706   3.284   3.397   3.893
 1289SOL    HW2 5707   3.247   3.251   3.902
 1290SOL     OW 5708   2.091   3.585   6.528
 1290SOL    HW1 5709   2.016   3.624   6.572
 1290SOL    HW2 5710   2.073   3.598   6.435
 1291SOL     OW 5711   5.149   0.517  11.391
 1291SOL    HW1 5712   5.242   0.521  11.369
 1291SOL    HW2 5713   5.139   0.435  11.439
 1292SOL     OW 5714  14.358   8.236   2.908
 1292SOL    HW1 5715  14.411   8.190   2.973
 1292SOL    HW2 5716  14.315   8.166   2.859
 1293SOL     OW 5717  11.880   8.513   6.781
 1293SOL    HW1 5718  11.833   8.592   6.809
 1293SOL    HW2 5719  11.813   8.445   6.776
 1294SOL     OW 5720   8.749  14.493   8.355
 1294SOL    HW1 5721   8.735  14.497   8.260
 1294SOL    HW2 5722   8.708  14.573   8.388
 1295SOL     OW 5723   5.880  13.970  10.100
 1295SOL    HW1 5724   5.894  13.878  10.081
 1295SOL    HW2 5725   5.847  13.971  10.190
 1296SOL     OW 5726  12.867   9.398  12.577
 1296SOL    HW1 5727  12.810   9.326  12.550
 1296SOL    HW2 5728  12.818   9.477  12.553
 1297SOL     OW 5729   1.986   9.438   3.031
 1297SOL    HW1 5730   1.987   9.375   3.103
 1297SOL    HW2 5731   2.033   9.395   2.961
 1298SOL     OW 5732  14.100  11.039  14.050
 1298SOL    HW1 5733  14.172  11.075  14.102
 1298SOL    HW2 5734  14.048  11.115  14.025
 1299SOL     OW 5735  10.927   2.577   6.627
 1299SOL    HW1 5736  10.889   2.664   6.622
 1299SOL    HW2 5737  10.900   2.534   6.546
 1300SOL     OW 5738   9.307   9.376   6.401
 1300SOL    HW1 5739   9.222   9.419   6.408
 1300SOL    HW2 5740   9.331   9.385   6.309
 1301SOL     OW 5741  12.701   1.104  14.636
 1301SOL    HW1 5742  12.692   1.103  14.731
 1301SOL    HW2 5743  12.737   1.190  14.616
 1302SOL     OW 5744   8.873   7.531   1.246
 1302SOL    HW1 5745   8.876   7.612   1.296
 1302SOL    HW2 5746   8.783   7.499   1.258
 1303SOL     OW 5747  10.660  12.172   9.892
 1303SOL    HW1 5748  10.719  12.247   9.905
 1303SOL    HW2 5749  10.704  12.119   9.826
 1304SOL     OW 5750  10.756   3.714  13.237
 1304SOL    HW1 5751  10.675   3.757  13.262
 1304SOL    HW2 5752  10.800   3.695  13.320
 1305SOL     OW 5753   2.753  10.958  14.378
 1305SOL    HW1 5754   2.813  10.985  14.308
 1305SOL    HW2 5755   2.710  11.039  14.405
 1306SOL     OW 5756   0.767   7.974   1.339
 1306SOL    HW1 5757   0.741   7.951   1.428
 1306SOL    HW2 5758   0.796   8.065   1.345
 1307SOL     OW 5759   8.787   8.794   4.255
 1307SOL    HW1 5760   8.877   8.810   4.226
 1307SOL    HW2 5761   8.795   8.723   4.319
 1308SOL     OW 5762  13.151   7.791   0.877
 1308SOL    HW1 5763  13.170   7.885   0.888
 1308SOL    HW2 5764  13.058   7.783   0.896
 1309SOL     OW 5765  14.371  13.985   6.164
 1309SOL    HW1 5766  14.276  13.989   6.151
 1309SOL    HW2 5767  14.394  14.072   6.196
 1310SOL     OW 5768   1.757  13.665   3.930
 1310SOL    HW1 5769   1.756  13.711   3.846
 1310SOL    HW2 5770   1.666  13.637   3.942
 1311SOL     OW 5771   4.959   4.484  13.257
 1311SOL    HW1 5772   4.977   4.540  13.182
 1311SOL    HW2 5773   4.897   4.534  13.310
 1312SOL     OW 5774  11.405   0.672   6.583
 1312SOL    HW1 5775  11.354   0.746   6.551
 1312SOL    HW2 5776  11.476   0.711   6.634
 1313SOL     OW 5777   1.643   6.026  13.890
 1313SOL    HW1 5778   1.732   6.060  13.903
 1313SOL    HW2 5779   1.590   6.073  13.954
 1314SOL     OW 5780   2.699   7.691   9.166
 1314SOL    HW1 5781   2.613   7.712   9.203
 1314SOL    HW2 5782   2.713   7.599   9.189
 1315SOL     OW 5783  13.987  12.010   9.408
 1315SOL    HW1 5784  13.915  12.066   9.438
 1315SOL    HW2 5785  13.949  11.957   9.338
 1316SOL     OW 5786   4.963   7.322   3.757
 1316SOL    HW1 5787   4.978   7.292   3.846
 1316SOL    HW2 5788   4.920   7.407   3.767
 1317SOL     OW 5789   0.443   2.568   5.019
 1317SOL    HW1 5790   0.469   2.642   4.963
 1317SOL    HW2 5791   0.372   2.602   5.073
 1318SOL     OW 5792  14.435   4.929   5.119
 1318SOL    HW1 5793  14.342   4.953   5.111
 1318SOL    HW2 5794  14.476   4.973   5.045
 1319SOL     OW 5795   1.642   5.957  12.293
 1319SOL    HW1 5796   1.703   6.009  12.241
 1319SOL    HW2 5797   1.697   5.890  12.334
 1320SOL     OW 5798   2.621  14.350   7.732
 1320SOL    HW1 5799   2.598  14.434   7.770
 1320SOL    HW2 5800   2.699  14.322   7.780
 1321SOL     OW 5801   1.796  10.326   2.985
 1321SOL    HW1 5802   1.830  10.237   2.993
 1321SOL    HW2 5803   1.812  10.365   3.071
 1322SOL     OW 5804   7.143  13.614  14.334
 1322SOL    HW1 5805   7.135  13.687  14.395
 1322SOL    HW2 5806   7.165  13.655  14.251
 1323SOL     OW 5807  12.392   3.754  14.276
 1323SOL    HW1 5808  12.363   3.817  14.342
 1323SOL    HW2 5809  12.370   3.795  14.192
 1324SOL     OW 5810   9.382  10.178   2.384
 1324SOL    HW1 5811   9.308  10.227   2.349
 1324SOL    HW2 5812   9.434  10.244   2.431
 1325SOL     OW 5813   7.891  10.230   2.060
 1325SOL    HW1 5814   7.821  10.248   1.998
 1325SOL    HW2 5815   7.934  10.314   2.074
 1326SOL     OW 5816   6.082   3.994   9.768
 1326SOL    HW1 5817   6.045   3.951   9.690
 1326SOL    HW2 5818   6.031   3.959   9.841
 1327SOL     OW 5819   1.517   6.350   3.932
 1327SOL    HW1 5820   1.558   6.266   3.952
 1327SOL    HW2 5821   1.423   6.334   3.945
 1328SOL     OW 5822   8.467  13.231   4.862
 1328SOL    HW1 5823   8.478  13.249   4.769
 1328SOL    HW2 5824   8.496  13.140   4.873
 1329SOL     OW 5825   2.498   7.050   1.393
 1329SOL    HW1 5826   2.438   7.001   1.450
 1329SOL    HW2 5827   2.502   6.998   1.313
 1330SOL     OW 5828   1.532  14.275  11.035
 1330SOL    HW1 5829   1.453  14.221  11.039
 1330SOL    HW2 5830   1.501  14.363  11.015
 1331SOL     OW 5831   8.703   1.210   2.141
 1331SOL    HW1 5832   8.719   1.178   2.229
 1331SOL    HW2 5833   8.608   1.209   2.131
 1332SOL     OW 5834   7.869   0.177   7.404
 1332SOL    HW1 5835   7.826   0.241   7.346
 1332SOL    HW2 5836   7.796   0.129   7.444
 1333SOL     OW 5837  10.702   5.621   0.511
 1333SOL    HW1 5838  10.765   5.599   0.579
 1333SOL    HW2 5839  10.621   5.642   0.559
 1334SOL     OW 5840  11.624   0.407   7.776
 1334SOL    HW1 5841  11.545   0.375   7.731
 1334SOL    HW2 5842  11.693   0.346   7.748
 1335SOL     OW 5843   4.466  10.704  10.854
 1335SOL    HW1 5844   4.442  10.658  10.934
 1335SOL    HW2 5845   4.534  10.766  10.880
 1336SOL     OW 5846   2.115  14.335   9.739
 1336SOL    HW1 5847   2.190  14.327   9.798
 1336SOL    HW2 5848   2.143  14.398   9.673
 1337SOL     OW 5849   2.210   0.343   9.850
 1337SOL    HW1 5850   2.207   0.374   9.759
 1337SOL    HW2 5851   2.302   0.318   9.863
 1338SOL     OW 5852   7.534   9.463  11.032
 1338SOL    HW1 5853   7.491   9.389  10.989
 1338SOL    HW2 5854   7.626   9.453  11.008
 1339SOL     OW 5855   5.023   3.833   7.708
 1339SOL    HW1 5856   4.953   3.797   7.652
 1339SOL    HW2 5857   5.097   3.774   7.695
 1340SOL     OW 5858   9.950   1.729  14.637
 1340SOL    HW1 5859  10.037   1.759  14.611
 1340SOL    HW2 5860   9.898   1.734  14.557
 1341SOL     OW 5861   8.426   7.167  13.645
 1341SOL    HW1 5862   8.392   7.171  13.735
 1341SOL    HW2 5863   8.476   7.247  13.634
 1342SOL     OW 5864  14.790  11.455  14.837
 1342SOL    HW1 5865   0.002  11.481  14.829
 1342SOL    HW2 5866  14.741  11.527  14.797
 1343SOL     OW 5867   5.069   0.089   5.093
 1343SOL    HW1 5868   5.017   0.010   5.083
 1343SOL    HW2 5869   5.008   0.161   5.080
 1344SOL     OW 5870   7.077  12.042   9.722
 1344SOL    HW1 5871   6.984  12.036   9.703
 1344SOL    HW2 5872   7.117  12.072   9.640
 1345SOL     OW 5873   8.889   6.447  14.640
 1345SOL    HW1 5874   8.975   6.440  14.598
 1345SOL    HW2 5875   8.876   6.541  14.652
 1346SOL     OW 5876   1.825  11.778  13.424
 1346SOL    HW1 5877   1.784  11.776  13.338
 1346SOL    HW2 5878   1.829  11.687  13.452
 1347SOL     OW 5879   2.133   4.480  13.789
 1347SOL    HW1 5880   2.131   4.446  13.879
 1347SOL    HW2 5881   2.059   4.541  13.786
 1348SOL     OW 5882   8.265  12.237   6.941
 1348SOL    HW1 5883   8.238  12.246   6.849
 1348SOL    HW2 5884   8.207  12.169   6.976
 1349SOL     OW 5885   3.249  12.777   9.956
 1349SOL    HW1 5886   3.265  12.787   9.862
 1349SOL    HW2 5887   3.185  12.845   9.977
 1350SOL     OW 5888   1.996  11.131  14.020
 1350SOL    HW1 5889   2.014  11.219  13.988
 1350SOL    HW2 5890   1.907  11.112  13.990
 1351SOL     OW 5891   6.269   0.487   1.846
 1351SOL    HW1 5892   6.323   0.468   1.770
 1351SOL    HW2 5893   6.316   0.558   1.891
 1352SOL     OW 5894   4.076   1.182  10.616
 1352SOL    HW1 5895   4.015   1.185  10.689
 1352SOL    HW2 5896   4.117   1.268  10.615
 1353SOL     OW 5897   1.747   4.529  12.794
 1353SOL    HW1 5898   1.830   4.575  12.807
 1353SOL    HW2 5899   1.760   4.478  12.715
 1354SOL     OW 5900   6.316   1.943   3.415
 1354SOL    HW1 5901   6.294   1.869   3.472
 1354SOL    HW2 5902   6.364   1.904   3.342
 1355SOL     OW 5903   6.498  13.994   2.538
 1355SOL    HW1 5904   6.524  13.947   2.460
 1355SOL    HW2 5905   6.484  13.926   2.604
 1356SOL     OW 5906   3.443  11.841   2.058
 1356SOL    HW1 5907   3.430  11.880   1.971
 1356SOL    HW2 5908   3.378  11.883   2.114
 1357SOL     OW 5909  11.880   2.120   4.063
 1357SOL    HW1 5910  11.971   2.108   4.039
 1357SOL    HW2 5911  11.851   2.194   4.009
 1358SOL     OW 5912   7.099   0.288  14.204
 1358SOL    HW1 5913   7.149   0.319  14.129
 1358SOL    HW2 5914   7.118   0.195  14.210
 1359SOL     OW 5915   3.957   9.648   6.100
 1359SOL    HW1 5916   3.965   9.738   6.131
 1359SOL    HW2 5917   3.873   9.618   6.134
 1360SOL     OW 5918   0.602  14.469   0.388
 1360SOL    HW1 5919   0.509  14.466   0.364
 1360SOL    HW2 5920   0.647  14.431   0.313
 1361SOL     OW 5921  12.822  12.632   6.816
 1361SOL    HW1 5922  12.867  12.547   6.818
 1361SOL    HW2 5923  12.777  12.636   6.901
 1362SOL     OW 5924  10.939  13.796  12.227
 1362SOL    HW1 5925  10.863  13.822  12.278
 1362SOL    HW2 5926  10.981  13.878  12.201
 1363SOL     OW 5927   7.064   2.630   6.067
 1363SOL    HW1 5928   7.003   2.564   6.100
 1363SOL    HW2 5929   7.134   2.580   6.026
 1364SOL     OW 5930   7.422  10.424   6.414
 1364SOL    HW1 5931   7.480  10.426   6.338
 1364SOL    HW2 5932   7.475  10.388   6.485
 1365SOL     OW 5933   5.219  13.672   2.664
 1365SOL    HW1 5934   5.303  13.703   2.629
 1365SOL    HW2 5935   5.225  13.577   2.659
 1366SOL     OW 5936   7.267   7.067   4.430
 1366SOL    HW1 5937   7.252   7.155   4.466
 1366SOL    HW2 5938   7.354   7.073   4.390
 1367SOL     OW 5939  10.456   6.485  13.536
 1367SOL    HW1 5940  10.514   6.508  13.609
 1367SOL    HW2 5941  10.376   6.534  13.554
 1368SOL     OW 5942   5.838   1.607   4.482
 1368SOL    HW1 5943   5.746   1.618   4.505
 1368SOL    HW2 5944   5.871   1.543   4.545
 1369SOL     OW 5945  14.694   0.618   7.872
 1369SOL    HW1 5946  14.604   0.588   7.875
 1369SOL    HW2 5947  14.745   0.540   7.851
 1370SOL     OW 5948   6.247   2.071  12.638
 1370SOL    HW1 5949   6.260   2.036  12.550
 1370SOL    HW2 5950   6.315   2.028  12.690
 1371SOL     OW 5951  12.194   6.129  14.443
 1371SOL    HW1 5952  12.270   6.165  14.490
 1371SOL    HW2 5953  12.229   6.103  14.357
 1372SOL     OW 5954  13.114   7.179   0.857
 1372SOL    HW1 5955  13.191   7.126   0.877
 1372SOL    HW2 5956  13.106   7.238   0.932
 1373SOL     OW 5957  13.376  10.917  13.045
 1373SOL    HW1 5958  13.365  10.858  12.970
 1373SOL    HW2 5959  13.385  11.004  13.006
 1374SOL     OW 5960   0.286   6.418   9.649
 1374SOL    HW1 5961   0.361   6.364   9.670
 1374SOL    HW2 5962   0.249   6.443   9.734
 1375SOL     OW 5963  10.410   3.161   5.355
 1375SOL    HW1 5964  10.434   3.159   5.448
 1375SOL    HW2 5965  10.406   3.254   5.333
 1376SOL     OW 5966   9.004   8.750  11.644
 1376SOL    HW1 5967   9.044   8.805  11.711
 1376SOL    HW2 5968   8.941   8.808  11.601
 1377SOL     OW 5969   6.179   2.676  11.221
 1377SOL    HW1 5970   6.209   2.586  11.208
 1377SOL    HW2 5971   6.177   2.687  11.316
 1378SOL     OW 5972   9.717   1.464   4.520
 1378SOL    HW1 5973   9.639   1.506   4.556
 1378SOL    HW2 5974   9.683   1.389   4.470
 1379SOL     OW 5975  11.434   7.449   3.936
 1379SOL    HW1 5976  11.460   7.477   3.848
 1379SOL    HW2 5977  11.350   7.406   3.924
 1380SOL     OW 5978   9.746   9.397   9.311
 1380SOL    HW1 5979   9.699   9.460   9.365
 1380SOL    HW2 5980   9.767   9.444   9.231
 1381SOL     OW 5981   6.874   4.798   8.677
 1381SOL    HW1 5982   6.929   4.876   8.668
 1381SOL    HW2 5983   6.862   4.766   8.587
 1382SOL     OW 5984  14.306  14.876  13.548
 1382SOL    HW1 5985  14.322  14.790  13.509
 1382SOL    HW2 5986  14.307   0.057  13.474
 1383SOL     OW 5987  13.384   5.686   8.229
 1383SOL    HW1 5988  13.338   5.614   8.186
 1383SOL    HW2 5989  13.325   5.713   8.300
 1384SOL     OW 5990   5.848   1.189   5.755
 1384SOL    HW1 5991   5.802   1.165   5.675
 1384SOL    HW2 5992   5.847   1.285   5.754
 1385SOL     OW 5993   0.536  14.738  13.032
 1385SOL    HW1 5994   0.449  14.717  12.999
 1385SOL    HW2 5995   0.523  14.816  13.085
 1386SOL     OW 5996  13.413  14.081   2.124
 1386SOL    HW1 5997  13.427  14.175   2.113
 1386SOL    HW2 5998  13.430  14.043   2.038
 1387SOL     OW 5999   9.766   2.600   1.204
 1387SOL    HW1 6000   9.772   2.687   1.164
 1387SOL    HW2 6001   9.697   2.556   1.155
 1388SOL     OW 6002   4.174   4.375   9.584
 1388SOL    HW1 6003   4.227   4.348   9.509
 1388SOL    HW2 6004   4.104   4.428   9.546
 1389SOL     OW 6005   0.580   2.366  11.925
 1389SOL    HW1 6006   0.550   2.298  11.985
 1389SOL    HW2 6007   0.625   2.429  11.981
 1390SOL     OW 6008  12.423  13.452   0.254
 1390SOL    HW1 6009  12.345  13.401   0.233
 1390SOL    HW2 6010  12.390  13.539   0.274
 1391SOL     OW 6011   9.581   8.878  12.723
 1391SOL    HW1 6012   9.644   8.806  12.717
 1391SOL    HW2 6013   9.566   8.890  12.817
 1392SOL     OW 6014   7.238  14.586   7.847
 1392SOL    HW1 6015   7.272  14.556   7.763
 1392SOL    HW2 6016   7.176  14.518   7.874
 1393SOL     OW 6017   6.253   6.129   7.329
 1393SOL    HW1 6018   6.226   6.176   7.250
 1393SOL    HW2 6019   6.256   6.196   7.397
 1394SOL     OW 6020  13.334   1.669  14.803
 1394SOL    HW1 6021  13.243   1.692  14.823
 1394SOL    HW2 6022  13.337   1.574  14.809
 1395SOL     OW 6023  11.019   4.700   9.413
 1395SOL    HW1 6024  11.057   4.659   9.336
 1395SOL    HW2 6025  10.993   4.787   9.384
 1396SOL     OW 6026  10.185   5.033   0.296
 1396SOL    HW1 6027  10.149   4.963   0.350
 1396SOL    HW2 6028  10.267   5.056   0.338
 1397SOL     OW 6029   8.434   4.878  13.440
 1397SOL    HW1 6030   8.469   4.860  13.352
 1397SOL    HW2 6031   8.476   4.960  13.466
 1398SOL     OW 6032   2.078   4.426   9.144
 1398SOL    HW1 6033   2.053   4.378   9.065
 1398SOL    HW2 6034   2.049   4.370   9.216
 1399SOL     OW 6035   4.529  10.631  12.550
 1399SOL    HW1 6036   4.569  10.592  12.627
 1399SOL    HW2 6037   4.442  10.591  12.546
 1400SOL     OW 6038  13.669  10.053   6.812
 1400SOL    HW1 6039  13.724  10.065   6.889
 1400SOL    HW2 6040  13.731  10.043   6.739
 1401SOL     OW 6041  12.081   2.622   0.457
 1401SOL    HW1 6042  12.022   2.546   0.463
 1401SOL    HW2 6043  12.164   2.591   0.494
 1402SOL     OW 6044   9.730   3.498  10.471
 1402SOL    HW1 6045   9.777   3.566  10.422
 1402SOL    HW2 6046   9.729   3.423  10.412
 1403SOL     OW 6047   5.196  12.315   3.652
 1403SOL    HW1 6048   5.166  12.233   3.613
 1403SOL    HW2 6049   5.291  12.303   3.661
 1404SOL     OW 6050   0.257   4.981   3.338
 1404SOL    HW1 6051   0.241   5.075   3.346
 1404SOL    HW2 6052   0.349   4.970   3.362
 1405SOL     OW 6053   7.291   2.191   9.215
 1405SOL    HW1 6054   7.287   2.102   9.249
 1405SOL    HW2 6055   7.238   2.189   9.136
 1406SOL     OW 6056  11.718   3.024   7.766
 1406SOL    HW1 6057  11.693   3.057   7.680
 1406SOL    HW2 6058  11.801   3.069   7.786
 1407SOL     OW 6059   7.965   4.617  12.626
 1407SOL    HW1 6060   7.935   4.656  12.544
 1407SOL    HW2 6061   7.904   4.650  12.692
 1408SOL     OW 6062   8.439  11.020   4.632
 1408SOL    HW1 6063   8.408  11.037   4.721
 1408SOL    HW2 6064   8.421  10.928   4.618
 1409SOL     OW 6065  10.335   2.520   6.522
 1409SOL    HW1 6066  10.345   2.600   6.573
 1409SOL    HW2 6067  10.416   2.514   6.471
 1410SOL     OW 6068   3.863   7.205   3.931
 1410SOL    HW1 6069   3.859   7.119   3.889
 1410SOL    HW2 6070   3.777   7.215   3.973
 1411SOL     OW 6071   9.414   7.235  11.282
 1411SOL    HW1 6072   9.367   7.313  11.312
 1411SOL    HW2 6073   9.502   7.266  11.259
 1412SOL     OW 6074   4.353   3.355  13.611
 1412SOL    HW1 6075   4.438   3.333  13.575
 1412SOL    HW2 6076   4.369   3.429  13.669
 1413SOL     OW 6077   8.354   3.964  12.270
 1413SOL    HW1 6078   8.371   4.049  12.228
 1413SOL    HW2 6079   8.343   3.986  12.363
 1414SOL     OW 6080  14.075   6.666  13.707
 1414SOL    HW1 6081  14.031   6.581  13.700
 1414SOL    HW2 6082  14.032   6.709  13.781
 1415SOL     OW 6083   0.207  13.188   2.206
 1415SOL    HW1 6084   0.228  13.112   2.152
 1415SOL    HW2 6085   0.202  13.153   2.295
 1416SOL     OW 6086   3.871   0.824  13.110
 1416SOL    HW1 6087   3.837   0.735  13.117
 1416SOL    HW2 6088   3.962   0.817  13.140
 1417SOL     OW 6089   5.981   0.882   6.045
 1417SOL    HW1 6090   5.949   0.795   6.021
 1417SOL    HW2 6091   5.938   0.902   6.128
 1418SOL     OW 6092   8.726   7.052   0.800
 1418SOL    HW1 6093   8.744   7.009   0.716
 1418SOL    HW2 6094   8.632   7.069   0.799
 1419SOL     OW 6095   9.615   1.226   0.834
 1419SOL    HW1 6096   9.652   1.160   0.893
 1419SOL    HW2 6097   9.656   1.308   0.862
 1420SOL     OW 6098   0.038   3.918   4.686
 1420SOL    HW1 6099   0.110   3.940   4.626
 1420SOL    HW2 6100  14.840   3.915   4.631
 1421SOL     OW 6101   3.211   6.881   2.338
 1421SOL    HW1 6102   3.149   6.814   2.366
 1421SOL    HW2 6103   3.293   6.833   2.325
 1422SOL     OW 6104   0.712   4.012   6.740
 1422SOL    HW1 6105   0.666   3.953   6.680
 1422SOL    HW2 6106   0.803   3.982   6.739
 1423SOL     OW 6107   7.568  14.220   7.876
 1423SOL    HW1 6108   7.481  14.197   7.910
 1423SOL    HW2 6109   7.549  14.280   7.803
 1424SOL     OW 6110   3.350   2.364   7.916
 1424SOL    HW1 6111   3.326   2.447   7.874
 1424SOL    HW2 6112   3.266   2.320   7.930
 1425SOL     OW 6113  11.422   5.839   1.256
 1425SOL    HW1 6114  11.507   5.850   1.298
 1425SOL    HW2 6115  11.435   5.769   1.192
 1426SOL     OW 6116  10.856  14.309   7.838
 1426SOL    HW1 6117  10.830  14.378   7.899
 1426SOL    HW2 6118  10.817  14.229   7.874
 1427SOL     OW 6119   1.712   5.889   2.697
 1427SOL    HW1 6120   1.800   5.921   2.720
 1427SOL    HW2 6121   1.654   5.929   2.762
 1428SOL     OW 6122  13.752  11.416   0.093
 1428SOL    HW1 6123  13.807  11.414   0.014
 1428SOL    HW2 6124  13.702  11.335   0.090
 1429SOL     OW 6125   8.562   1.608   4.856
 1429SOL    HW1 6126   8.635   1.654   4.898
 1429SOL    HW2 6127   8.501   1.591   4.927
 1430SOL     OW 6128  10.271  14.420  12.271
 1430SOL    HW1 6129  10.258  14.336  12.227
 1430SOL    HW2 6130  10.366  14.433  12.271
 1431SOL     OW 6131   2.494   3.264   9.343
 1431SOL    HW1 6132   2.511   3.262   9.249
 1431SOL    HW2 6133   2.472   3.173   9.365
 1432SOL     OW 6134  14.726   5.713   3.716
 1432SOL    HW1 6135  14.686   5.800   3.707
 1432SOL    HW2 6136  14.818   5.732   3.738
 1433SOL     OW 6137   1.045  14.403  14.131
 1433SOL    HW1 6138   0.993  14.338  14.177
 1433SOL    HW2 6139   0.981  14.454  14.081
 1434SOL     OW 6140   8.421  14.227  13.154
 1434SOL    HW1 6141   8.479  14.221  13.078
 1434SOL    HW2 6142   8.406  14.321  13.166
 1435SOL     OW 6143   4.475   6.535   6.634
 1435SOL    HW1 6144   4.563   6.556   6.604
 1435SOL    HW2 6145   4.449   6.611   6.687
 1436SOL     OW 6146   0.837   2.435   9.452
 1436SOL    HW1 6147   0.810   2.358   9.402
 1436SOL    HW2 6148   0.782   2.435   9.530
 1437SOL     OW 6149   8.451   9.716  12.015
 1437SOL    HW1 6150   8.384   9.767  11.970
 1437SOL    HW2 6151   8.523   9.709  11.953
 1438SOL     OW 6152   5.456   9.660   1.091
 1438SOL    HW1 6153   5.439   9.718   1.165
 1438SOL    HW2 6154   5.409   9.700   1.018
 1439SOL     OW 6155   7.095   2.325  10.054
 1439SOL    HW1 6156   7.058   2.259   9.996
 1439SOL    HW2 6157   7.139   2.387   9.996
 1440SOL     OW 6158  12.264   7.984  13.243
 1440SOL    HW1 6159  12.275   8.075  13.216
 1440SOL    HW2 6160  12.331   7.936  13.195
 1441SOL     OW 6161   7.316   1.745  10.009
 1441SOL    HW1 6162   7.293   1.795   9.930
 1441SOL    HW2 6163   7.236   1.698  10.031
 1442SOL     OW 6164   6.434   6.024   0.221
 1442SOL    HW1 6165   6.454   6.092   0.286
 1442SOL    HW2 6166   6.343   6.001   0.238
 1443SOL     OW 6167   6.158  13.953  11.678
 1443SOL    HW1 6168   6.066  13.933  11.663
 1443SOL    HW2 6169   6.156  14.035  11.728
 1444SOL     OW 6170   4.734   5.712   6.313
 1444SOL    HW1 6171   4.719   5.759   6.396
 1444SOL    HW2 6172   4.653   5.664   6.298
 1445SOL     OW 6173   8.082   1.579   4.106
 1445SOL    HW1 6174   8.072   1.562   4.013
 1445SOL    HW2 6175   8.083   1.674   4.113
 1446SOL     OW 6176   0.750   7.205   1.340
 1446SOL    HW1 6177   0.763   7.223   1.433
 1446SOL    HW2 6178   0.703   7.121   1.338
 1447SOL     OW 6179   3.213   7.554  13.749
 1447SOL    HW1 6180   3.148   7.596  13.805
 1447SOL    HW2 6181   3.296   7.599  13.770
 1448SOL     OW 6182  13.740   6.983   9.344
 1448SOL    HW1 6183  13.810   6.941   9.293
 1448SOL    HW2 6184  13.679   6.911   9.363
 1449SOL     OW 6185   7.412   3.510   2.640
 1449SOL    HW1 6186   7.498   3.468   2.633
 1449SOL    HW2 6187   7.356   3.444   2.681
 1450SOL     OW 6188  11.617  13.176   3.464
 1450SOL    HW1 6189  11.596  13.211   3.550
 1450SOL    HW2 6190  11.704  13.136   3.476
 1451SOL     OW 6191  12.723   0.791   6.554
 1451SOL    HW1 6192  12.801   0.800   6.609
 1451SOL    HW2 6193  12.758   0.772   6.467
 1452SOL     OW 6194   2.809   2.419   0.725
 1452SOL    HW1 6195   2.845   2.500   0.690
 1452SOL    HW2 6196   2.721   2.413   0.688
 1453SOL     OW 6197   1.819   2.334   7.400
 1453SOL    HW1 6198   1.821   2.386   7.481
 1453SOL    HW2 6199   1.753   2.267   7.417
 1454SOL     OW 6200  12.124  14.240   1.900
 1454SOL    HW1 6201  12.083  14.308   1.952
 1454SOL    HW2 6202  12.164  14.287   1.827
 1455SOL     OW 6203  13.433  12.372   4.453
 1455SOL    HW1 6204  13.350  12.409   4.484
 1455SOL    HW2 6205  13.427  12.279   4.472
 1456SOL     OW 6206   1.674   6.702   8.890
 1456SOL    HW1 6207   1.703   6.615   8.860
 1456SOL    HW2 6208   1.579   6.700   8.882
 1457SOL     OW 6209   4.498  12.232   5.810
 1457SOL    HW1 6210   4.414  12.234   5.857
 1457SOL    HW2 6211   4.562  12.265   5.873
 1458SOL     OW 6212   2.590   1.107  14.861
 1458SOL    HW1 6213   2.513   1.069   0.023
 1458SOL    HW2 6214   2.619   1.040  14.799
 1459SOL     OW 6215   4.155   8.969   3.606
 1459SOL    HW1 6216   4.109   8.890   3.576
 1459SOL    HW2 6217   4.090   9.039   3.598
 1460SOL     OW 6218   1.608  10.711   9.540
 1460SOL    HW1 6219   1.544  10.651   9.579
 1460SOL    HW2 6220   1.662  10.739   9.614
 1461SOL     OW 6221   3.803  10.716   6.381
 1461SOL    HW1 6222   3.716  10.724   6.421
 1461SOL    HW2 6223   3.805  10.787   6.317
 1462SOL     OW 6224   9.718  12.944  13.455
 1462SOL    HW1 6225   9.701  12.894  13.376
 1462SOL    HW2 6226   9.658  12.907  13.520
 1463SOL     OW 6227   1.014   3.364  12.976
 1463SOL    HW1 6228   0.980   3.380  13.064
 1463SOL    HW2 6229   1.109   3.365  12.987
 1464SOL     OW 6230   3.226   6.268  12.944
 1464SOL    HW1 6231   3.278   6.346  12.924
 1464SOL    HW2 6232   3.135   6.293  12.926
 1465SOL     OW 6233   7.066   6.949  11.932
 1465SOL    HW1 6234   6.981   6.908  11.950
 1465SOL    HW2 6235   7.130   6.880  11.950
 1466SOL     OW 6236   7.547   0.595  13.675
 1466SOL    HW1 6237   7.569   0.560  13.589
 1466SOL    HW2 6238   7.471   0.651  13.660
 1467SOL     OW 6239  12.365   7.536  11.209
 1467SOL    HW1 6240  12.384   7.461  11.266
 1467SOL    HW2 6241  12.318   7.499  11.135
 1468SOL     OW 6242   7.688   2.007   2.530
 1468SOL    HW1 6243   7.765   2.062   2.545
 1468SOL    HW2 6244   7.716   1.919   2.553
 1469SOL     OW 6245   1.653   8.049  14.647
 1469SOL    HW1 6246   1.728   8.091  14.606
 1469SOL    HW2 6247   1.577   8.096  14.613
 1470SOL     OW 6248  14.310  11.282   1.479
 1470SOL    HW1 6249  14.360  11.319   1.552
 1470SOL    HW2 6250  14.314  11.350   1.411
 1471SOL     OW 6251   4.336   2.440   3.329
 1471SOL    HW1 6252   4.320   2.497   3.405
 1471SOL    HW2 6253   4.260   2.382   3.327
 1472SOL     OW 6254   6.050   7.452   4.283
 1472SOL    HW1 6255   6.069   7.358   4.283
 1472SOL    HW2 6256   5.973   7.461   4.340
 1473SOL     OW 6257   4.595   8.799   4.702
 1473SOL    HW1 6258   4.590   8.723   4.645
 1473SOL    HW2 6259   4.515   8.794   4.755
 1474SOL     OW 6260   5.208  13.757  10.308
 1474SOL    HW1 6261   5.226  13.670  10.272
 1474SOL    HW2 6262   5.168  13.805  10.235
 1475SOL     OW 6263   5.938  13.190   3.610
 1475SOL    HW1 6264   5.903  13.160   3.526
 1475SOL    HW2 6265   5.991  13.266   3.589
 1476SOL     OW 6266   0.998   0.431  14.566
 1476SOL    HW1 6267   1.069   0.479  14.608
 1476SOL    HW2 6268   0.994   0.348  14.613
 1477SOL     OW 6269   1.909   0.366   7.869
 1477SOL    HW1 6270   1.962   0.420   7.928
 1477SOL    HW2 6271   1.972   0.304   7.831
 1478SOL     OW 6272  14.071   6.187   0.983
 1478SOL    HW1 6273  14.119   6.187   1.066
 1478SOL    HW2 6274  13.990   6.140   1.002
 1479SOL     OW 6275   5.968  12.187   8.389
 1479SOL    HW1 6276   5.880  12.203   8.355
 1479SOL    HW2 6277   5.994  12.270   8.428
 1480SOL     OW 6278   4.757   5.158   8.123
 1480SOL    HW1 6279   4.687   5.223   8.113
 1480SOL    HW2 6280   4.832   5.196   8.077
 1481SOL     OW 6281   6.093   0.257   6.746
 1481SOL    HW1 6282   6.082   0.301   6.830
 1481SOL    HW2 6283   6.178   0.215   6.752
 1482SOL     OW 6284   8.566   8.887   8.073
 1482SOL    HW1 6285   8.576   8.965   8.128
 1482SOL    HW2 6286   8.558   8.922   7.984
 1483SOL     OW 6287   2.488   9.626  10.464
 1483SOL    HW1 6288   2.575   9.591  10.449
 1483SOL    HW2 6289   2.459   9.656  10.378
 1484SOL     OW 6290   7.435  13.000  11.566
 1484SOL    HW1 6291   7.388  13.023  11.646
 1484SOL    HW2 6292   7.398  12.916  11.539
 1485SOL     OW 6293   8.917   1.038  10.035
 1485SOL    HW1 6294   8.954   1.029  10.122
 1485SOL    HW2 6295   8.822   1.031  10.048
 1486SOL     OW 6296  11.273   4.487   7.582
 1486SOL    HW1 6297  11.258   4.568   7.533
 1486SOL    HW2 6298  11.212   4.493   7.656
 1487SOL     OW 6299   4.030  14.448  10.170
 1487SOL    HW1 6300   4.089  14.503  10.222
 1487SOL    HW2 6301   3.943  14.483  10.187
 1488SOL     OW 6302   4.088  12.985   3.761
 1488SOL    HW1 6303   4.111  13.031   3.680
 1488SOL    HW2 6304   4.161  12.925   3.776
 1489SOL     OW 6305  14.432  12.412   7.875
 1489SOL    HW1 6306  14.403  12.478   7.812
 1489SOL    HW2 6307  14.392  12.330   7.846
 1490SOL     OW 6308  14.528  11.018   5.167
 1490SOL    HW1 6309  14.598  11.080   5.150
 1490SOL    HW2 6310  14.448  11.063   5.137
 1491SOL     OW 6311  10.408   4.798  10.731
 1491SOL    HW1 6312  10.367   4.877  10.767
 1491SOL    HW2 6313  10.421   4.741  10.807
 1492SOL     OW 6314   1.305  10.420   3.010
 1492SOL    HW1 6315   1.294  10.332   3.044
 1492SOL    HW2 6316   1.388  10.450   3.046
 1493SOL     OW 6317   3.175   8.851   0.684
 1493SOL    HW1 6318   3.156   8.895   0.768
 1493SOL    HW2 6319   3.209   8.765   0.709
 1494SOL     OW 6320  14.610   4.026   2.534
 1494SOL    HW1 6321  14.699   4.058   2.517
 1494SOL    HW2 6322  14.577   4.085   2.602
 1495SOL     OW 6323   8.700  12.182  10.404
 1495SOL    HW1 6324   8.643  12.242  10.357
 1495SOL    HW2 6325   8.666  12.095  10.384
 1496SOL     OW 6326  13.713   7.955  12.540
 1496SOL    HW1 6327  13.696   7.876  12.489
 1496SOL    HW2 6328  13.699   8.027  12.479
 1497SOL     OW 6329   0.191   9.823  12.044
 1497SOL    HW1 6330   0.198   9.917  12.055
 1497SOL    HW2 6331   0.237   9.805  11.962
 1498SOL     OW 6332   1.740   9.872  10.171
 1498SOL    HW1 6333   1.782   9.855  10.255
 1498SOL    HW2 6334   1.676   9.801  10.162
 1499SOL     OW 6335  13.023  14.255   1.901
 1499SOL    HW1 6336  13.011  14.210   1.984
 1499SOL    HW2 6337  13.065  14.338   1.924
 1500SOL     OW 6338  10.600   0.578  10.734
 1500SOL    HW1 6339  10.682   0.537  10.762
 1500SOL    HW2 6340  10.542   0.504  10.715
 1501SOL     OW 6341   4.173  12.827   0.023
 1501SOL    HW1 6342   4.247  12.872   0.062
 1501SOL    HW2 6343   4.170  12.859  14.812
 1502SOL     OW 6344   9.929  13.571   6.840
 1502SOL    HW1 6345   9.881  13.627   6.901
 1502SOL    HW2 6346   9.931  13.485   6.883
 1503SOL     OW 6347   6.698   6.044  14.288
 1503SOL    HW1 6348   6.782   6.039  14.334
 1503SOL    HW2 6349   6.716   6.004  14.203
 1504SOL     OW 6350  13.904  11.262   9.175
 1504SOL    HW1 6351  13.967  11.329   9.204
 1504SOL    HW2 6352  13.949  11.214   9.106
 1505SOL     OW 6353   0.430   5.906  12.883
 1505SOL    HW1 6354   0.509   5.859  12.857
 1505SOL    HW2 6355   0.463   5.979  12.936
 1506SOL     OW 6356  14.232   2.804   4.147
 1506SOL    HW1 6357  14.287   2.810   4.225
 1506SOL    HW2 6358  14.207   2.711   4.142
 1507SOL     OW 6359   1.141   6.593  12.815
 1507SOL    HW1 6360   1.162   6.520  12.873
 1507SOL    HW2 6361   1.217   6.601  12.758
 1508SOL     OW 6362   3.683   1.877   8.359
 1508SOL    HW1 6363   3.748   1.821   8.317
 1508SOL    HW2 6364   3.602   1.826   8.355
 1509SOL     OW 6365   0.681   2.714  11.997
 1509SOL    HW1 6366   0.668   2.688  12.088
 1509SOL    HW2 6367   0.770   2.750  11.995
 1510SOL     OW 6368  10.508   0.622   6.871
 1510SOL    HW1 6369  10.421   0.661   6.860
 1510SOL    HW2 6370  10.499   0.534   6.835
 1511SOL     OW 6371  10.457  13.829  12.599
 1511SOL    HW1 6372  10.431  13.738  12.617
 1511SOL    HW2 6373  10.548  13.834  12.628
 1512SOL     OW 6374  13.328   3.251   2.340
 1512SOL    HW1 6375  13.334   3.226   2.248
 1512SOL    HW2 6376  13.415   3.285   2.361
 1513SOL     OW 6377   5.230   2.543  12.496
 1513SOL    HW1 6378   5.170   2.498  12.437
 1513SOL    HW2 6379   5.286   2.594  12.438
 1514SOL     OW 6380  12.946  12.350   6.941
 1514SOL    HW1 6381  12.950  12.364   6.846
 1514SOL    HW2 6382  12.919  12.259   6.952
 1515SOL     OW 6383   8.995  14.279   2.720
 1515SOL    HW1 6384   8.991  14.214   2.790
 1515SOL    HW2 6385   8.914  14.330   2.729
 1516SOL     OW 6386  11.683  12.412   9.487
 1516SOL    HW1 6387  11.617  12.400   9.556
 1516SOL    HW2 6388  11.754  12.353   9.513
 1517SOL     OW 6389   7.720   3.757  10.903
 1517SOL    HW1 6390   7.681   3.834  10.861
 1517SOL    HW2 6391   7.724   3.691  10.833
 1518SOL     OW 6392   4.354   7.737   3.628
 1518SOL    HW1 6393   4.414   7.729   3.553
 1518SOL    HW2 6394   4.310   7.821   3.615
 1519SOL     OW 6395   4.275  14.840   4.526
 1519SOL    HW1 6396   4.254   0.041   4.477
 1519SOL    HW2 6397   4.223  14.847   4.606
 1520SOL     OW 6398   2.102   6.592   7.684
 1520SOL    HW1 6399   2.171   6.569   7.622
 1520SOL    HW2 6400   2.036   6.637   7.632
 1521SOL     OW 6401   3.175   1.077  13.764
 1521SOL    HW1 6402   3.137   1.128  13.693
 1521SOL    HW2 6403   3.187   0.990  13.727
 1522SOL     OW 6404   1.470   9.293   2.255
 1522SOL    HW1 6405   1.503   9.299   2.165
 1522SOL    HW2 6406   1.522   9.223   2.295
 1523SOL     OW 6407  12.793  14.578   2.450
 1523SOL    HW1 6408  12.867  14.569   2.390
 1523SOL    HW2 6409  12.832  14.576   2.537
 1524SOL     OW 6410  10.343   8.829   0.487
 1524SOL    HW1 6411  10.383   8.758   0.537
 1524SOL    HW2 6412  10.359   8.805   0.395
 1525SOL     OW 6413   2.892   6.525  13.785
 1525SOL    HW1 6414   2.910   6.604  13.735
 1525SOL    HW2 6415   2.909   6.453  13.723
 1526SOL     OW 6416  14.764  10.336  10.426
 1526SOL    HW1 6417  14.701  10.301  10.363
 1526SOL    HW2 6418  14.709  10.379  10.493
 1527SOL     OW 6419  11.140   5.823   6.740
 1527SOL    HW1 6420  11.051   5.827   6.775
 1527SOL    HW2 6421  11.190   5.884   6.794
 1528SOL     OW 6422  11.059   1.324   3.733
 1528SOL    HW1 6423  11.120   1.355   3.800
 1528SOL    HW2 6424  11.015   1.249   3.772
 1529SOL     OW 6425   7.622  10.701   0.732
 1529SOL    HW1 6426   7.672  10.781   0.714
 1529SOL    HW2 6427   7.531  10.729   0.732
 1530SOL     OW 6428   9.688   5.806   7.159
 1530SOL    HW1 6429   9.667   5.802   7.252
 1530SOL    HW2 6430   9.620   5.862   7.121
 1531SOL     OW 6431  13.476   1.347   1.712
 1531SOL    HW1 6432  13.534   1.309   1.645
 1531SOL    HW2 6433  13.507   1.437   1.722
 1532SOL     OW 6434  14.065  14.065   6.510
 1532SOL    HW1 6435  14.098  14.089   6.597
 1532SOL    HW2 6436  14.078  14.144   6.457
 1533SOL     OW 6437   5.237   2.476   7.369
 1533SOL    HW1 6438   5.282   2.461   7.452
 1533SOL    HW2 6439   5.297   2.530   7.318
 1534SOL     OW 6440   5.388   8.584   1.117
 1534SOL    HW1 6441   5.482   8.564   1.123
 1534SOL    HW2 6442   5.384   8.657   1.055
 1535SOL     OW 6443   5.160   8.991  13.027
 1535SOL    HW1 6444   5.211   8.944  13.094
 1535SOL    HW2 6445   5.192   9.081  13.032
 1536SOL     OW 6446   8.691  11.003   2.005
 1536SOL    HW1 6447   8.757  11.071   1.992
 1536SOL    HW2 6448   8.707  10.969   2.093
 1537SOL     OW 6449   5.761   6.103  14.662
 1537SOL    HW1 6450   5.678   6.095  14.708
 1537SOL    HW2 6451   5.759   6.031  14.598
 1538SOL     OW 6452  12.740   2.518  13.658
 1538SOL    HW1 6453  12.726   2.426  13.682
 1538SOL    HW2 6454  12.691   2.567  13.725
 1539SOL     OW 6455   7.134   5.488  13.135
 1539SOL    HW1 6456   7.104   5.410  13.088
 1539SOL    HW2 6457   7.187   5.536  13.072
 1540SOL     OW 6458   2.345   6.337  13.135
 1540SOL    HW1 6459   2.413   6.360  13.198
 1540SOL    HW2 6460   2.283   6.283  13.185
 1541SOL     OW 6461   7.171   6.992   6.131
 1541SOL    HW1 6462   7.138   6.938   6.059
 1541SOL    HW2 6463   7.103   7.059   6.144
 1542SOL     OW 6464   3.940  10.194   7.681
 1542SOL    HW1 6465   4.013  10.212   7.622
 1542SOL    HW2 6466   3.933  10.098   7.681
 1543SOL     OW 6467   4.309   3.117   2.682
 1543SOL    HW1 6468   4.284   3.085   2.769
 1543SOL    HW2 6469   4.374   3.054   2.651
 1544SOL     OW 6470   6.645   4.603   5.935
 1544SOL    HW1 6471   6.711   4.603   5.866
 1544SOL    HW2 6472   6.694   4.585   6.015
 1545SOL     OW 6473   6.037   4.851  14.089
 1545SOL    HW1 6474   6.011   4.807  14.008
 1545SOL    HW2 6475   6.056   4.941  14.062
 1546SOL     OW 6476  11.017  11.059   8.558
 1546SOL    HW1 6477  10.953  11.018   8.500
 1546SOL    HW2 6478  11.041  10.990   8.620
 1547SOL     OW 6479  11.072   3.505  10.983
 1547SOL    HW1 6480  11.086   3.446  10.909
 1547SOL    HW2 6481  11.055   3.447  11.057
 1548SOL     OW 6482  10.355  12.528  11.925
 1548SOL    HW1 6483  10.359  12.432  11.929
 1548SOL    HW2 6484  10.301  12.553  11.999
 1549SOL     OW 6485   6.749  13.661   0.803
 1549SOL    HW1 6486   6.751  13.566   0.818
 1549SOL    HW2 6487   6.672  13.692   0.850
 1550SOL     OW 6488   1.836   6.143  13.502
 1550SOL    HW1 6489   1.893   6.168  13.574
 1550SOL    HW2 6490   1.750   6.134  13.541
 1551SOL     OW 6491  10.155   0.042   0.210
 1551SOL    HW1 6492  10.115   0.114   0.160
 1551SOL    HW2 6493  10.145   0.068   0.301
 1552SOL     OW 6494   2.989   5.585  11.193
 1552SOL    HW1 6495   2.945   5.562  11.111
 1552SOL    HW2 6496   2.983   5.680  11.198
 1553SOL     OW 6497   1.049   4.859   5.393
 1553SOL    HW1 6498   1.006   4.800   5.455
 1553SOL    HW2 6499   0.983   4.926   5.375
 1554SOL     OW 6500   5.380   3.208  14.081
 1554SOL    HW1 6501   5.286   3.202  14.064
 1554SOL    HW2 6502   5.401   3.129  14.131
 1555SOL     OW 6503  14.508  10.087  14.675
 1555SOL    HW1 6504  14.425  10.089  14.722
 1555SOL    HW2 6505  14.574  10.075  14.743
 1556SOL     OW 6506   1.501   0.058  14.083
 1556SOL    HW1 6507   1.416   0.014  14.085
 1556SOL    HW2 6508   1.480   0.150  14.097
 1557SOL     OW 6509  11.442  13.070  12.472
 1557SOL    HW1 6510  11.504  13.006  12.506
 1557SOL    HW2 6511  11.487  13.154  12.482
 1558SOL     OW 6512   7.493   4.572   5.062
 1558SOL    HW1 6513   7.463   4.606   4.978
 1558SOL    HW2 6514   7.425   4.511   5.088
 1559SOL     OW 6515   8.675   1.229  12.845
 1559SOL    HW1 6516   8.767   1.233  12.871
 1559SOL    HW2 6517   8.665   1.300  12.782
 1560SOL     OW 6518   3.485   5.575   1.688
 1560SOL    HW1 6519   3.463   5.652   1.635
 1560SOL    HW2 6520   3.547   5.608   1.753
 1561SOL     OW 6521   3.481  13.228  11.533
 1561SOL    HW1 6522   3.438  13.143  11.534
 1561SOL    HW2 6523   3.461  13.264  11.446
 1562SOL     OW 6524  14.858  13.203   5.343
 1562SOL    HW1 6525   0.046  13.140   5.321
 1562SOL    HW2 6526  14.801  13.206   5.266
 1563SOL     OW 6527   3.330   6.188  13.248
 1563SOL    HW1 6528   3.348   6.156  13.159
 1563SOL    HW2 6529   3.235   6.201  13.250
 1564SOL     OW 6530  12.743   1.653   8.052
 1564SOL    HW1 6531  12.689   1.657   8.130
 1564SOL    HW2 6532  12.818   1.709   8.071
 1565SOL     OW 6533   7.101   4.411  14.072
 1565SOL    HW1 6534   7.037   4.465  14.118
 1565SOL    HW2 6535   7.145   4.360  14.140
 1566SOL     OW 6536   2.811   2.336  12.880
 1566SOL    HW1 6537   2.845   2.362  12.795
 1566SOL    HW2 6538   2.838   2.406  12.939
 1567SOL     OW 6539  12.626   9.688   3.281
 1567SOL    HW1 6540  12.565   9.652   3.345
 1567SOL    HW2 6541  12.620   9.783   3.293
 1568SOL     OW 6542   8.201   6.753   2.859
 1568SOL    HW1 6543   8.148   6.673   2.849
 1568SOL    HW2 6544   8.288   6.721   2.884
 1569SOL     OW 6545   9.816   6.703   2.283
 1569SOL    HW1 6546   9.880   6.632   2.284
 1569SOL    HW2 6547   9.772   6.698   2.367
 1570SOL     OW 6548   9.486   2.480  11.666
 1570SOL    HW1 6549   9.552   2.543  11.637
 1570SOL    HW2 6550   9.405   2.530  11.670
 1571SOL     OW 6551   3.625   2.654   6.206
 1571SOL    HW1 6552   3.590   2.656   6.117
 1571SOL    HW2 6553   3.641   2.561   6.223
 1572SOL     OW 6554   2.394   1.072   1.201
 1572SOL    HW1 6555   2.350   1.038   1.123
 1572SOL    HW2 6556   2.323   1.083   1.265
 1573SOL     OW 6557   2.205  10.165   2.472
 1573SOL    HW1 6558   2.191  10.107   2.547
 1573SOL    HW2 6559   2.249  10.242   2.509
 1574SOL     OW 6560  10.859   0.346   3.615
 1574SOL    HW1 6561  10.792   0.278   3.607
 1574SOL    HW2 6562  10.850   0.398   3.535
 1575SOL     OW 6563   2.314   3.367  10.297
 1575SOL    HW1 6564   2.366   3.287  10.295
 1575SOL    HW2 6565   2.229   3.340  10.331
 1576SOL     OW 6566   4.962   9.936   0.101
 1576SOL    HW1 6567   4.905   9.886   0.160
 1576SOL    HW2 6568   5.021   9.984   0.158
 1577SOL     OW 6569   0.231   9.442  11.054
 1577SOL    HW1 6570   0.287   9.378  11.099
 1577SOL    HW2 6571   0.237   9.418  10.962
 1578SOL     OW 6572  14.297  13.245  11.951
 1578SOL    HW1 6573  14.318  13.167  12.004
 1578SOL    HW2 6574  14.382  13.286  11.936
 1579SOL     OW 6575   0.580  10.259   9.225
 1579SOL    HW1 6576   0.638  10.225   9.156
 1579SOL    HW2 6577   0.496  10.270   9.181
 1580SOL     OW 6578  14.569  13.217   5.342
 1580SOL    HW1 6579  14.643  13.238   5.400
 1580SOL    HW2 6580  14.605  13.157   5.277
 1581SOL     OW 6581   6.743   5.492  13.196
 1581SOL    HW1 6582   6.762   5.565  13.137
 1581SOL    HW2 6583   6.823   5.440  13.197
 1582SOL     OW 6584   6.018   8.403   0.970
 1582SOL    HW1 6585   6.008   8.446   0.885
 1582SOL    HW2 6586   6.091   8.342   0.957
 1583SOL     OW 6587  10.266  13.606   0.133
 1583SOL    HW1 6588  10.326  13.632   0.064
 1583SOL    HW2 6589  10.189  13.662   0.121
 1584SOL     OW 6590   2.469  13.218   0.400
 1584SOL    HW1 6591   2.528  13.277   0.447
 1584SOL    HW2 6592   2.491  13.231   0.308
 1585SOL     OW 6593   0.760   4.610   3.627
 1585SOL    HW1 6594   0.703   4.535   3.614
 1585SOL    HW2 6595   0.847   4.572   3.639
 1586SOL     OW 6596  10.370   5.819   2.653
 1586SOL    HW1 6597  10.342   5.887   2.713
 1586SOL    HW2 6598  10.377   5.740   2.707
 1587SOL     OW 6599   8.629   3.228  14.670
 1587SOL    HW1 6600   8.720   3.206  14.649
 1587SOL    HW2 6601   8.595   3.268  14.590
 1588SOL     OW 6602   3.448   3.508  13.913
 1588SOL    HW1 6603   3.462   3.470  13.827
 1588SOL    HW2 6604   3.488   3.595  13.908
 1589SOL     OW 6605  10.375   5.369   0.101
 1589SOL    HW1 6606  10.427   5.420   0.164
 1589SOL    HW2 6607  10.291   5.354   0.146
 1590SOL     OW 6608  11.594   4.434   1.016
 1590SOL    HW1 6609  11.523   4.499   1.011
 1590SOL    HW2 6610  11.554   4.358   1.058
 1591SOL     OW 6611   9.789   9.536   4.093
 1591SOL    HW1 6612   9.813   9.625   4.120
 1591SOL    HW2 6613   9.861   9.509   4.036
 1592SOL     OW 6614  10.605   4.142   1.203
 1592SOL    HW1 6615  10.547   4.195   1.258
 1592SOL    HW2 6616  10.575   4.052   1.215
 1593SOL     OW 6617   1.667  11.624   0.909
 1593SOL    HW1 6618   1.640  11.539   0.941
 1593SOL    HW2 6619   1.594  11.654   0.855
 1594SOL     OW 6620   4.811   6.443   1.836
 1594SOL    HW1 6621   4.798   6.519   1.780
 1594SOL    HW2 6622   4.852   6.478   1.915
 1595SOL     OW 6623   9.190  12.689   9.006
 1595SOL    HW1 6624   9.124  12.643   9.058
 1595SOL    HW2 6625   9.260  12.709   9.069
 1596SOL     OW 6626   2.271  13.351   0.693
 1596SOL    HW1 6627   2.205  13.284   0.678
 1596SOL    HW2 6628   2.350  13.302   0.716
 1597SOL     OW 6629   4.778   5.197  14.550
 1597SOL    HW1 6630   4.862   5.179  14.507
 1597SOL    HW2 6631   4.802   5.246  14.629
 1598SOL     OW 6632  10.520  14.224   0.271
 1598SOL    HW1 6633  10.507  14.235   0.365
 1598SOL    HW2 6634  10.485  14.304   0.232
 1599SOL     OW 6635  12.875   5.636  13.014
 1599SOL    HW1 6636  12.829   5.675  13.089
 1599SOL    HW2 6637  12.907   5.552  13.047
 1600SOL     OW 6638   1.966   2.743   0.229
 1600SOL    HW1 6639   1.933   2.714   0.144
 1600SOL    HW2 6640   2.021   2.671   0.260
 1601SOL     OW 6641   4.882   9.589  13.099
 1601SOL    HW1 6642   4.972   9.577  13.128
 1601SOL    HW2 6643   4.844   9.501  13.103
 1602SOL     OW 6644   0.887   1.195  13.992
 1602SOL    HW1 6645   0.930   1.223  14.073
 1602SOL    HW2 6646   0.837   1.117  14.016
 1603SOL     OW 6647  13.545   1.329  13.553
 1603SOL    HW1 6648  13.635   1.344  13.524
 1603SOL    HW2 6649  13.536   1.234  13.556
 1604SOL     OW 6650  12.841  12.992   9.612
 1604SOL    HW1 6651  12.851  13.062   9.549
 1604SOL    HW2 6652  12.930  12.973   9.642
 1605SOL     OW 6653   2.127  14.615   2.025
 1605SOL    HW1 6654   2.084  14.688   2.071
 1605SOL    HW2 6655   2.055  14.555   2.005
 1606SOL     OW 6656  13.140   4.535  10.817
 1606SOL    HW1 6657  13.190   4.523  10.898
 1606SOL    HW2 6658  13.181   4.611  10.775
 1607SOL     OW 6659   5.640  13.248  13.706
 1607SOL    HW1 6660   5.567  13.225  13.763
 1607SOL    HW2 6661   5.621  13.336  13.676
 1608SOL     OW 6662   6.273   5.990   3.427
 1608SOL    HW1 6663   6.320   5.997   3.343
 1608SOL    HW2 6664   6.293   5.902   3.458
 1609SOL     OW 6665  11.091   4.527   6.224
 1609SOL    HW1 6666  11.159   4.486   6.170
 1609SOL    HW2 6667  11.038   4.454   6.254
 1610SOL     OW 6668  10.986   2.356   7.307
 1610SOL    HW1 6669  10.988   2.297   7.383
 1610SOL    HW2 6670  10.898   2.347   7.271
 1611SOL     OW 6671   7.300   6.628  14.701
 1611SOL    HW1 6672   7.247   6.696  14.743
 1611SOL    HW2 6673   7.380   6.625  14.753
 1612SOL     OW 6674  14.303  14.145   5.832
 1612SOL    HW1 6675  14.338  14.132   5.745
 1612SOL    HW2 6676  14.330  14.234   5.856
 1613SOL     OW 6677  10.343   9.475  10.566
 1613SOL    HW1 6678  10.336   9.383  10.540
 1613SOL    HW2 6679  10.260   9.514  10.538
 1614SOL     OW 6680   0.841   0.856  11.026
 1614SOL    HW1 6681   0.917   0.853  10.968
 1614SOL    HW2 6682   0.785   0.784  10.995
 1615SOL     OW 6683   5.536   7.947   7.923
 1615SOL    HW1 6684   5.608   7.890   7.896
 1615SOL    HW2 6685   5.458   7.893   7.913
 1616SOL     OW 6686   5.363  13.137   2.947
 1616SOL    HW1 6687   5.338  13.130   2.855
 1616SOL    HW2 6688   5.426  13.210   2.949
 1617SOL     OW 6689  12.040   7.279  12.203
 1617SOL    HW1 6690  12.118   7.305  12.253
 1617SOL    HW2 6691  12.039   7.183  12.207
 1618SOL     OW 6692  13.004   9.890   4.194
 1618SOL    HW1 6693  13.072   9.956   4.184
 1618SOL    HW2 6694  13.019   9.853   4.281
 1619SOL     OW 6695   2.902   5.570   4.581
 1619SOL    HW1 6696   2.847   5.492   4.577
 1619SOL    HW2 6697   2.971   5.547   4.643
 1620SOL     OW 6698  12.478   6.948   4.362
 1620SOL    HW1 6699  12.414   7.014   4.334
 1620SOL    HW2 6700  12.426   6.870   4.380
 1621SOL     OW 6701  13.909   3.608   5.585
 1621SOL    HW1 6702  13.860   3.531   5.557
 1621SOL    HW2 6703  13.888   3.675   5.520
 1622SOL     OW 6704  10.676   6.328   9.153
 1622SOL    HW1 6705  10.705   6.247   9.195
 1622SOL    HW2 6706  10.754   6.384   9.154
 1623SOL     OW 6707   2.200   8.992   5.682
 1623SOL    HW1 6708   2.147   8.926   5.727
 1623SOL    HW2 6709   2.289   8.958   5.683
 1624SOL     OW 6710   4.149  13.554   4.577
 1624SOL    HW1 6711   4.178  13.497   4.505
 1624SOL    HW2 6712   4.073  13.600   4.542
 1625SOL     OW 6713   2.577  14.250   0.814
 1625SOL    HW1 6714   2.563  14.257   0.909
 1625SOL    HW2 6715   2.662  14.293   0.799
 1626SOL     OW 6716  13.307   1.673   1.759
 1626SOL    HW1 6717  13.293   1.668   1.665
 1626SOL    HW2 6718  13.220   1.690   1.796
 1627SOL     OW 6719   8.239   2.148   3.831
 1627SOL    HW1 6720   8.211   2.148   3.922
 1627SOL    HW2 6721   8.205   2.229   3.794
 1628SOL     OW 6722  13.984  10.435   3.655
 1628SOL    HW1 6723  13.969  10.416   3.748
 1628SOL    HW2 6724  14.050  10.505   3.656
 1629SOL     OW 6725  10.288   2.716  11.486
 1629SOL    HW1 6726  10.197   2.687  11.487
 1629SOL    HW2 6727  10.313   2.715  11.394
 1630SOL     OW 6728  13.720   7.431   8.962
 1630SOL    HW1 6729  13.798   7.388   8.997
 1630SOL    HW2 6730  13.754   7.488   8.892
 1631SOL     OW 6731   3.210   2.718   4.548
 1631SOL    HW1 6732   3.202   2.812   4.567
 1631SOL    HW2 6733   3.161   2.706   4.467
 1632SOL     OW 6734  12.007   7.851   2.007
 1632SOL    HW1 6735  11.998   7.757   1.990
 1632SOL    HW2 6736  11.994   7.893   1.922
 1633SOL     OW 6737  14.859  12.507   2.187
 1633SOL    HW1 6738  14.837  12.598   2.168
 1633SOL    HW2 6739   0.020  12.474   2.106
 1634SOL     OW 6740   8.606   1.619   7.962
 1634SOL    HW1 6741   8.693   1.584   7.946
 1634SOL    HW2 6742   8.569   1.633   7.874
 1635SOL     OW 6743  11.784  12.531   2.516
 1635SOL    HW1 6744  11.740  12.490   2.590
 1635SOL    HW2 6745  11.860  12.575   2.554
 1636SOL     OW 6746  14.518   6.788   8.029
 1636SOL    HW1 6747  14.593   6.728   8.033
 1636SOL    HW2 6748  14.503   6.801   7.936
 1637SOL     OW 6749  14.875   0.039   3.224
 1637SOL    HW1 6750  14.851   0.120   3.179
 1637SOL    HW2 6751   0.085   0.021   3.194
 1638SOL     OW 6752   2.688   2.813   9.703
 1638SOL    HW1 6753   2.725   2.764   9.630
 1638SOL    HW2 6754   2.597   2.827   9.679
 1639SOL     OW 6755  12.159   2.383   6.649
 1639SOL    HW1 6756  12.117   2.421   6.572
 1639SOL    HW2 6757  12.226   2.324   6.614
 1640SOL     OW 6758   9.943   9.628   0.266
 1640SOL    HW1 6759   9.924   9.722   0.254
 1640SOL    HW2 6760   9.888   9.585   0.200
 1641SOL     OW 6761   8.351  12.994   9.713
 1641SOL    HW1 6762   8.280  13.052   9.686
 1641SOL    HW2 6763   8.330  12.909   9.673
 1642SOL     OW 6764   0.123  12.225  12.337
 1642SOL    HW1 6765   0.209  12.208  12.375
 1642SOL    HW2 6766   0.097  12.141  12.297
 1643SOL     OW 6767   8.457  12.736   9.269
 1643SOL    HW1 6768   8.399  12.697   9.204
 1643SOL    HW2 6769   8.507  12.802   9.220
 1644SOL     OW 6770   0.924   9.381   3.737
 1644SOL    HW1 6771   0.908   9.419   3.651
 1644SOL    HW2 6772   0.931   9.457   3.795
 1645SOL     OW 6773   0.615   7.174   7.805
 1645SOL    HW1 6774   0.672   7.202   7.734
 1645SOL    HW2 6775   0.604   7.080   7.791
 1646SOL     OW 6776   9.026  11.461   3.560
 1646SOL    HW1 6777   9.067  11.450   3.474
 1646SOL    HW2 6778   8.933  11.474   3.540
 1647SOL     OW 6779   3.894   9.436  12.643
 1647SOL    HW1 6780   3.911   9.530  12.649
 1647SOL    HW2 6781   3.928   9.400  12.725
 1648SOL     OW 6782   9.090   1.419   9.577
 1648SOL    HW1 6783   9.084   1.459   9.491
 1648SOL    HW2 6784   9.045   1.335   9.568
 1649SOL     OW 6785   4.823  14.833   9.404
 1649SOL    HW1 6786   4.765  14.767   9.440
 1649SOL    HW2 6787   4.884  14.784   9.348
 1650SOL     OW 6788   1.009  14.182   4.017
 1650SOL    HW1 6789   1.006  14.278   4.022
 1650SOL    HW2 6790   0.925  14.154   4.053
 1651SOL     OW 6791   0.814   5.718   6.545
 1651SOL    HW1 6792   0.887   5.709   6.484
 1651SOL    HW2 6793   0.852   5.696   6.630
 1652SOL     OW 6794   8.174  12.460   0.754
 1652SOL    HW1 6795   8.231  12.523   0.798
 1652SOL    HW2 6796   8.223  12.378   0.756
 1653SOL     OW 6797  14.116   0.693   2.731
 1653SOL    HW1 6798  14.115   0.783   2.699
 1653SOL    HW2 6799  14.027   0.678   2.763
 1654SOL     OW 6800   7.557   6.524   8.072
 1654SOL    HW1 6801   7.549   6.585   7.998
 1654SOL    HW2 6802   7.641   6.480   8.057
 1655SOL     OW 6803   5.685   2.904   0.843
 1655SOL    HW1 6804   5.659   2.814   0.825
 1655SOL    HW2 6805   5.715   2.902   0.934
 1656SOL     OW 6806  14.041  12.613   9.181
 1656SOL    HW1 6807  13.976  12.560   9.228
 1656SOL    HW2 6808  14.112  12.626   9.245
 1657SOL     OW 6809  12.414   7.944   6.795
 1657SOL    HW1 6810  12.509   7.938   6.787
 1657SOL    HW2 6811  12.381   7.910   6.712
 1658SOL     OW 6812  11.800   7.052  10.826
 1658SOL    HW1 6813  11.812   7.073  10.733
 1658SOL    HW2 6814  11.781   7.137  10.867
 1659SOL     OW 6815  12.614   8.181   5.073
 1659SOL    HW1 6816  12.671   8.247   5.034
 1659SOL    HW2 6817  12.665   8.145   5.146
 1660SOL     OW 6818  11.106  13.939   4.957
 1660SOL    HW1 6819  11.117  14.024   4.999
 1660SOL    HW2 6820  11.188  13.925   4.910
 1661SOL     OW 6821   8.201  12.155   4.767
 1661SOL    HW1 6822   8.147  12.233   4.783
 1661SOL    HW2 6823   8.199  12.144   4.672
 1662SOL     OW 6824  13.927   9.725   9.447
 1662SOL    HW1 6825  13.880   9.708   9.365
 1662SOL    HW2 6826  14.004   9.775   9.420
 1663SOL     OW 6827   4.153   2.975   9.287
 1663SOL    HW1 6828   4.080   3.024   9.249
 1663SOL    HW2 6829   4.113   2.919   9.353
 1664SOL     OW 6830   4.910  11.875   1.365
 1664SOL    HW1 6831   4.966  11.941   1.325
 1664SOL    HW2 6832   4.959  11.843   1.440
 1665SOL     OW 6833   2.252  14.762   7.386
 1665SOL    HW1 6834   2.280  14.713   7.308
 1665SOL    HW2 6835   2.158  14.771   7.377
 1666SOL     OW 6836   9.647   7.481   1.353
 1666SOL    HW1 6837   9.695   7.564   1.351
 1666SOL    HW2 6838   9.610   7.472   1.266
 1667SOL     OW 6839   7.427  10.216  14.584
 1667SOL    HW1 6840   7.387  10.164  14.514
 1667SOL    HW2 6841   7.496  10.160  14.619
 1668SOL     OW 6842   4.299  11.629   4.098
 1668SOL    HW1 6843   4.355  11.700   4.066
 1668SOL    HW2 6844   4.308  11.633   4.194
 1669SOL     OW 6845   5.548   6.258   5.916
 1669SOL    HW1 6846   5.468   6.220   5.951
 1669SOL    HW2 6847   5.573   6.325   5.980
 1670SOL     OW 6848  12.165  11.915   9.617
 1670SOL    HW1 6849  12.208  11.994   9.583
 1670SOL    HW2 6850  12.227  11.845   9.598
 1671SOL     OW 6851  12.077  11.547   4.264
 1671SOL    HW1 6852  12.070  11.492   4.342
 1671SOL    HW2 6853  11.997  11.601   4.265
 1672SOL     OW 6854   0.770   3.133   3.024
 1672SOL    HW1 6855   0.801   3.048   2.992
 1672SOL    HW2 6856   0.792   3.133   3.117
 1673SOL     OW 6857   5.206  10.493   5.572
 1673SOL    HW1 6858   5.160  10.568   5.609
 1673SOL    HW2 6859   5.184  10.493   5.479
 1674SOL     OW 6860   6.671   5.109   4.287
 1674SOL    HW1 6861   6.747   5.135   4.235
 1674SOL    HW2 6862   6.649   5.187   4.338
 1675SOL     OW 6863   5.076   6.423   3.498
 1675SOL    HW1 6864   5.098   6.483   3.426
 1675SOL    HW2 6865   5.101   6.337   3.465
 1676SOL     OW 6866   6.101   9.261   4.661
 1676SOL    HW1 6867   6.186   9.236   4.623
 1676SOL    HW2 6868   6.120   9.272   4.755
 1677SOL     OW 6869   7.753   0.671   5.352
 1677SOL    HW1 6870   7.758   0.766   5.367
 1677SOL    HW2 6871   7.839   0.648   5.318
 1678SOL     OW 6872   9.829   7.196   8.340
 1678SOL    HW1 6873   9.906   7.218   8.288
 1678SOL    HW2 6874   9.755   7.229   8.288
 1679SOL     OW 6875   5.817   9.536   6.026
 1679SOL    HW1 6876   5.761   9.500   5.957
 1679SOL    HW2 6877   5.779   9.503   6.108
 1680SOL     OW 6878  10.680   7.645   9.645
 1680SOL    HW1 6879  10.643   7.561   9.618
 1680SOL    HW2 6880  10.774   7.632   9.643
 1681SOL     OW 6881   9.590   4.403   6.571
 1681SOL    HW1 6882   9.578   4.311   6.596
 1681SOL    HW2 6883   9.632   4.443   6.648
 1682SOL     OW 6884  10.008   4.067   9.714
 1682SOL    HW1 6885  10.020   4.004   9.786
 1682SOL    HW2 6886  10.097   4.084   9.682
 1683SOL     OW 6887  14.661  13.749  12.846
 1683SOL    HW1 6888  14.581  13.696  12.851
 1683SOL    HW2 6889  14.724  13.703  12.901
 1684SOL     OW 6890   6.723   4.072   8.101
 1684SOL    HW1 6891   6.766   4.089   8.185
 1684SOL    HW2 6892   6.689   4.157   8.073
 1685SOL     OW 6893   5.999  10.677   3.586
 1685SOL    HW1 6894   5.957  10.708   3.506
 1685SOL    HW2 6895   6.003  10.582   3.576
 1686SOL     OW 6896  14.233   8.447  13.543
 1686SOL    HW1 6897  14.257   8.366  13.588
 1686SOL    HW2 6898  14.276   8.441  13.458
 1687SOL     OW 6899   1.596   6.966   5.840
 1687SOL    HW1 6900   1.608   6.901   5.772
 1687SOL    HW2 6901   1.537   6.924   5.903
 1688SOL     OW 6902   5.952   4.815   5.938
 1688SOL    HW1 6903   5.990   4.767   6.011
 1688SOL    HW2 6904   6.025   4.861   5.898
 1689SOL     OW 6905  10.685  13.251  13.690
 1689SOL    HW1 6906  10.731  13.223  13.770
 1689SOL    HW2 6907  10.718  13.192  13.622
 1690SOL     OW 6908   5.479   7.553  12.248
 1690SOL    HW1 6909   5.493   7.596  12.163
 1690SOL    HW2 6910   5.385   7.534  12.250
 1691SOL     OW 6911  12.579   0.563  10.898
 1691SOL    HW1 6912  12.549   0.651  10.921
 1691SOL    HW2 6913  12.673   0.573  10.882
 1692SOL     OW 6914   7.262   6.454  10.008
 1692SOL    HW1 6915   7.313   6.515   9.955
 1692SOL    HW2 6916   7.171   6.473   9.986
 1693SOL     OW 6917   1.489   6.170   2.679
 1693SOL    HW1 6918   1.535   6.229   2.738
 1693SOL    HW2 6919   1.405   6.153   2.722
 1694SOL     OW 6920   4.734  13.777   5.138
 1694SOL    HW1 6921   4.760  13.701   5.086
 1694SOL    HW2 6922   4.780  13.765   5.221
 1695SOL     OW 6923   5.596   6.129   4.226
 1695SOL    HW1 6924   5.647   6.208   4.247
 1695SOL    HW2 6925   5.608   6.073   4.302
 1696SOL     OW 6926  13.180  14.865   5.347
 1696SOL    HW1 6927  13.240  14.794   5.325
 1696SOL    HW2 6928  13.228   0.065   5.325
 1697SOL     OW 6929   7.609   3.856   0.933
 1697SOL    HW1 6930   7.623   3.947   0.959
 1697SOL    HW2 6931   7.696   3.815   0.939
 1698SOL     OW 6932   1.626  13.668  12.525
 1698SOL    HW1 6933   1.642  13.700  12.613
 1698SOL    HW2 6934   1.573  13.589  12.537
 1699SOL     OW 6935  10.388   9.114   9.506
 1699SOL    HW1 6936  10.308   9.061   9.515
 1699SOL    HW2 6937  10.382   9.152   9.419
 1700SOL     OW 6938   1.548   8.849  12.899
 1700SOL    HW1 6939   1.453   8.839  12.893
 1700SOL    HW2 6940   1.581   8.820  12.814
 1701SOL     OW 6941   6.982  13.677   5.987
 1701SOL    HW1 6942   7.060  13.666   6.042
 1701SOL    HW2 6943   6.936  13.594   5.994
 1702SOL     OW 6944  14.333   7.627  11.727
 1702SOL    HW1 6945  14.370   7.574  11.657
 1702SOL    HW2 6946  14.307   7.709  11.684
 1703SOL     OW 6947   2.261   8.673  14.642
 1703SOL    HW1 6948   2.305   8.758  14.649
 1703SOL    HW2 6949   2.243   8.648  14.733
 1704SOL     OW 6950   6.029  12.327  14.428
 1704SOL    HW1 6951   6.042  12.414  14.467
 1704SOL    HW2 6952   6.061  12.266  14.495
 1705SOL     OW 6953   2.742  14.245   8.973
 1705SOL    HW1 6954   2.766  14.273   8.885
 1705SOL    HW2 6955   2.707  14.323   9.015
 1706SOL     OW 6956   6.532   0.066   2.018
 1706SOL    HW1 6957   6.580   0.074   2.100
 1706SOL    HW2 6958   6.471  14.874   2.032
 1707SOL     OW 6959   1.673  12.548   6.512
 1707SOL    HW1 6960   1.592  12.502   6.536
 1707SOL    HW2 6961   1.689  12.607   6.585
 1708SOL     OW 6962  11.716   2.860   1.974
 1708SOL    HW1 6963  11.716   2.765   1.969
 1708SOL    HW2 6964  11.709   2.880   2.067
 1709SOL     OW 6965   9.386  14.004   7.939
 1709SOL    HW1 6966   9.339  13.930   7.900
 1709SOL    HW2 6967   9.319  14.072   7.948
 1710SOL     OW 6968   1.966  13.235  10.409
 1710SOL    HW1 6969   1.959  13.249  10.315
 1710SOL    HW2 6970   2.019  13.309  10.441
 1711SOL     OW 6971   2.554  14.730   2.997
 1711SOL    HW1 6972   2.579  14.798   3.060
 1711SOL    HW2 6973   2.501  14.668   3.048
 1712SOL     OW 6974   4.706   9.710  10.901
 1712SOL    HW1 6975   4.717   9.800  10.871
 1712SOL    HW2 6976   4.715   9.715  10.997
 1713SOL     OW 6977   4.996   7.126   9.445
 1713SOL    HW1 6978   4.934   7.182   9.397
 1713SOL    HW2 6979   5.064   7.104   9.381
 1714SOL     OW 6980   1.337   8.192   3.578
 1714SOL    HW1 6981   1.320   8.147   3.661
 1714SOL    HW2 6982   1.433   8.198   3.574
 1715SOL     OW 6983   6.805   5.897   7.126
 1715SOL    HW1 6984   6.882   5.954   7.125
 1715SOL    HW2 6985   6.751   5.932   7.197
 1716SOL     OW 6986   3.979   1.728   0.347
 1716SOL    HW1 6987   4.055   1.712   0.402
 1716SOL    HW2 6988   3.905   1.730   0.408
 1717SOL     OW 6989  10.774   2.572  14.857
 1717SOL    HW1 6990  10.702   2.595   0.036
 1717SOL    HW2 6991  10.791   2.651  14.806
 1718SOL     OW 6992   5.237   0.385  10.228
 1718SOL    HW1 6993   5.227   0.446  10.155
 1718SOL    HW2 6994   5.311   0.420  10.278
 1719SOL     OW 6995   0.770   2.471   0.850
 1719SOL    HW1 6996   0.835   2.489   0.918
 1719SOL    HW2 6997   0.691   2.447   0.898
 1720SOL     OW 6998   5.584   9.129   2.514
 1720SOL    HW1 6999   5.537   9.172   2.585
 1720SOL    HW2 7000   5.517   9.076   2.469
 1721SOL     OW 7001   8.355   4.012   1.436
 1721SOL    HW1 7002   8.325   3.973   1.517
 1721SOL    HW2 7003   8.286   3.992   1.373
 1722SOL     OW 7004   9.835  11.547  10.764
 1722SOL    HW1 7005   9.817  11.477  10.702
 1722SOL    HW2 7006   9.769  11.536  10.833
 1723SOL     OW 7007   7.244   1.871   6.880
 1723SOL    HW1 7008   7.193   1.805   6.832
 1723SOL    HW2 7009   7.236   1.950   6.827
 1724SOL     OW 7010   5.588  10.151   0.402
 1724SOL    HW1 7011   5.503  10.191   0.383
 1724SOL    HW2 7012   5.650  10.198   0.347
 1725SOL     OW 7013   3.772   6.028   8.230
 1725SOL    HW1 7014   3.834   6.051   8.299
 1725SOL    HW2 7015   3.728   6.111   8.209
 1726SOL     OW 7016  13.403  13.549   5.882
 1726SOL    HW1 7017  13.448  13.466   5.870
 1726SOL    HW2 7018  13.449  13.590   5.956
 1727SOL     OW 7019  12.656   4.541  13.440
 1727SOL    HW1 7020  12.588   4.495  13.391
 1727SOL    HW2 7021  12.698   4.472  13.492
 1728SOL     OW 7022   1.767   8.968   7.161
 1728SOL    HW1 7023   1.685   8.937   7.199
 1728SOL    HW2 7024   1.834   8.946   7.227
 1729SOL     OW 7025  12.781   4.747  13.049
 1729SOL    HW1 7026  12.797   4.653  13.040
 1729SOL    HW2 7027  12.801   4.766  13.141
 1730SOL     OW 7028   4.778   1.417  14.746
 1730SOL    HW1 7029   4.841   1.345  14.747
 1730SOL    HW2 7030   4.806   1.473  14.673
 1731SOL     OW 7031   4.101   0.569   8.783
 1731SOL    HW1 7032   4.161   0.524   8.722
 1731SOL    HW2 7033   4.126   0.535   8.869
 1732SOL     OW 7034  12.585   4.739   0.884
 1732SOL    HW1 7035  12.671   4.728   0.925
 1732SOL    HW2 7036  12.533   4.666   0.919
 1733SOL     OW 7037  14.109   8.070  12.277
 1733SOL    HW1 7038  14.041   8.006  12.256
 1733SOL    HW2 7039  14.096   8.087  12.371
 1734SOL     OW 7040   3.419   2.010   5.245
 1734SOL    HW1 7041   3.492   1.985   5.189
 1734SOL    HW2 7042   3.343   2.010   5.187
 1735SOL     OW 7043   7.485   4.526   0.486
 1735SOL    HW1 7044   7.577   4.545   0.465
 1735SOL    HW2 7045   7.465   4.582   0.561
 1736SOL     OW 7046  10.223  11.324   8.178
 1736SOL    HW1 7047  10.295  11.360   8.229
 1736SOL    HW2 7048  10.251  11.235   8.157
 1737SOL     OW 7049   5.492  12.238   1.265
 1737SOL    HW1 7050   5.499  12.144   1.253
 1737SOL    HW2 7051   5.557  12.275   1.205
 1738SOL     OW 7052  13.127   4.130  11.396
 1738SOL    HW1 7053  13.198   4.175  11.352
 1738SOL    HW2 7054  13.052   4.188  11.387
 1739SOL     OW 7055   5.713   0.373   1.053
 1739SOL    HW1 7056   5.735   0.281   1.042
 1739SOL    HW2 7057   5.791   0.412   1.093
 1740SOL     OW 7058  12.190  10.551  12.051
 1740SOL    HW1 7059  12.221  10.641  12.046
 1740SOL    HW2 7060  12.211  10.523  12.140
 1741SOL     OW 7061   8.803   0.112   8.098
 1741SOL    HW1 7062   8.827   0.166   8.174
 1741SOL    HW2 7063   8.832   0.024   8.122
 1742SOL     OW 7064  12.282   1.757   0.680
 1742SOL    HW1 7065  12.367   1.747   0.722
 1742SOL    HW2 7066  12.229   1.685   0.715
 1743SOL     OW 7067  10.779  11.772   3.933
 1743SOL    HW1 7068  10.703  11.768   3.875
 1743SOL    HW2 7069  10.853  11.753   3.876
 1744SOL     OW 7070   9.350  11.368   3.734
 1744SOL    HW1 7071   9.331  11.292   3.789
 1744SOL    HW2 7072   9.265  11.408   3.718
 1745SOL     OW 7073   5.231   7.844   4.167
 1745SOL    HW1 7074   5.142   7.859   4.198
 1745SOL    HW2 7075   5.282   7.830   4.247
 1746SOL     OW 7076  10.518  12.147   8.168
 1746SOL    HW1 7077  10.499  12.182   8.255
 1746SOL    HW2 7078  10.609  12.117   8.174
 1747SOL     OW 7079   8.716   8.446   2.735
 1747SOL    HW1 7080   8.726   8.447   2.640
 1747SOL    HW2 7081   8.782   8.383   2.765
 1748SOL     OW 7082   2.618   4.921   4.218
 1748SOL    HW1 7083   2.542   4.893   4.167
 1748SOL    HW2 7084   2.688   4.933   4.153
 1749SOL     OW 7085   7.888   6.480   6.614
 1749SOL    HW1 7086   7.928   6.420   6.551
 1749SOL    HW2 7087   7.954   6.489   6.684
 1750SOL     OW 7088   2.809   5.463   7.538
 1750SOL    HW1 7089   2.761   5.424   7.465
 1750SOL    HW2 7090   2.770   5.550   7.548
 1751SOL     OW 7091   2.838   7.538  10.373
 1751SOL    HW1 7092   2.888   7.604  10.326
 1751SOL    HW2 7093   2.900   7.465  10.385
 1752SOL     OW 7094  14.432   9.191  14.332
 1752SOL    HW1 7095  14.394   9.117  14.380
 1752SOL    HW2 7096  14.465   9.153  14.251
 1753SOL     OW 7097   4.185  12.934   1.764
 1753SOL    HW1 7098   4.148  12.852   1.797
 1753SOL    HW2 7099   4.244  12.963   1.833
 1754SOL     OW 7100   4.987   3.995   6.824
 1754SOL    HW1 7101   5.035   4.001   6.906
 1754SOL    HW2 7102   5.052   4.016   6.757
 1755SOL     OW 7103  10.081   7.335   9.564
 1755SOL    HW1 7104  10.032   7.321   9.645
 1755SOL    HW2 7105  10.107   7.427   9.568
 1756SOL     OW 7106  12.303   9.509  11.129
 1756SOL    HW1 7107  12.353   9.588  11.149
 1756SOL    HW2 7108  12.261   9.528  11.045
 1757SOL     OW 7109   3.036   3.802  14.867
 1757SOL    HW1 7110   3.085   3.858   0.047
 1757SOL    HW2 7111   2.963   3.769   0.040
 1758SOL     OW 7112   4.530   8.353  14.788
 1758SOL    HW1 7113   4.516   8.383  14.878
 1758SOL    HW2 7114   4.462   8.288  14.773
 1759SOL     OW 7115   2.181  10.968   4.850
 1759SOL    HW1 7116   2.162  11.062   4.857
 1759SOL    HW2 7117   2.236  10.950   4.926
 1760SOL     OW 7118   1.054  12.848   7.967
 1760SOL    HW1 7119   1.025  12.760   7.987
 1760SOL    HW2 7120   1.021  12.902   8.039
 1761SOL     OW 7121   4.871  12.210   4.162
 1761SOL    HW1 7122   4.828  12.245   4.240
 1761SOL    HW2 7123   4.896  12.287   4.112
 1762SOL     OW 7124   2.086   9.089   0.218
 1762SOL    HW1 7125   2.052   9.002   0.241
 1762SOL    HW2 7126   2.010   9.136   0.183
 1763SOL     OW 7127   9.104   8.256  12.086
 1763SOL    HW1 7128   9.139   8.330  12.136
 1763SOL    HW2 7129   9.171   8.239  12.019
 1764SOL     OW 7130  10.186   6.537   7.617
 1764SOL    HW1 7131  10.162   6.444   7.623
 1764SOL    HW2 7132  10.219   6.558   7.705
 1765SOL     OW 7133   4.380   4.166   4.402
 1765SOL    HW1 7134   4.369   4.076   4.370
 1765SOL    HW2 7135   4.293   4.192   4.432
 1766SOL     OW 7136   4.975   3.362  13.838
 1766SOL    HW1 7137   4.891   3.366  13.883
 1766SOL    HW2 7138   4.954   3.370  13.745
 1767SOL     OW 7139   4.417  11.831  13.823
 1767SOL    HW1 7140   4.427  11.843  13.728
 1767SOL    HW2 7141   4.329  11.864  13.841
 1768SOL     OW 7142   3.769   4.170   9.432
 1768SOL    HW1 7143   3.798   4.087   9.469
 1768SOL    HW2 7144   3.823   4.182   9.353
 1769SOL     OW 7145   5.777   5.569   0.625
 1769SOL    HW1 7146   5.711   5.598   0.687
 1769SOL    HW2 7147   5.860   5.577   0.672
 1770SOL     OW 7148  10.190   8.471   3.607
 1770SOL    HW1 7149  10.176   8.538   3.674
 1770SOL    HW2 7150  10.231   8.399   3.654
 1771SOL     OW 7151  11.025   5.323  13.244
 1771SOL    HW1 7152  10.967   5.263  13.291
 1771SOL    HW2 7153  11.064   5.377  13.312
 1772SOL     OW 7154  14.804   2.345   9.613
 1772SOL    HW1 7155   0.019   2.359   9.613
 1772SOL    HW2 7156  14.792   2.257   9.648
 1773SOL     OW 7157  14.474   3.724   2.799
 1773SOL    HW1 7158  14.497   3.631   2.789
 1773SOL    HW2 7159  14.555   3.766   2.826
 1774SOL     OW 7160  10.003   7.684  13.384
 1774SOL    HW1 7161   9.918   7.698  13.426
 1774SOL    HW2 7162  10.037   7.772  13.370
 1775SOL     OW 7163  12.807  11.832   6.036
 1775SOL    HW1 7164  12.868  11.761   6.054
 1775SOL    HW2 7165  12.788  11.825   5.943
 1776SOL     OW 7166  12.694  14.836   9.123
 1776SOL    HW1 7167  12.682  14.824   9.217
 1776SOL    HW2 7168  12.784  14.869   9.115
 1777SOL     OW 7169   2.443  12.774   0.921
 1777SOL    HW1 7170   2.378  12.731   0.977
 1777SOL    HW2 7171   2.514  12.710   0.912
 1778SOL     OW 7172  11.205  13.181   0.494
 1778SOL    HW1 7173  11.122  13.157   0.452
 1778SOL    HW2 7174  11.201  13.141   0.581
 1779SOL     OW 7175   7.306   0.541   6.526
 1779SOL    HW1 7176   7.313   0.452   6.493
 1779SOL    HW2 7177   7.215   0.551   6.551
 1780SOL     OW 7178   2.504   8.755   3.625
 1780SOL    HW1 7179   2.424   8.801   3.653
 1780SOL    HW2 7180   2.549   8.818   3.569
 1781SOL     OW 7181   3.784   4.149  12.577
 1781SOL    HW1 7182   3.796   4.193  12.661
 1781SOL    HW2 7183   3.831   4.066  12.587
 1782SOL     OW 7184  13.902   4.240   3.600
 1782SOL    HW1 7185  13.897   4.178   3.672
 1782SOL    HW2 7186  13.827   4.220   3.544
 1783SOL     OW 7187   6.849   3.720   9.636
 1783SOL    HW1 7188   6.916   3.735   9.569
 1783SOL    HW2 7189   6.777   3.678   9.590
 1784SOL     OW 7190   8.548   2.958   5.803
 1784SOL    HW1 7191   8.500   3.013   5.864
 1784SOL    HW2 7192   8.539   2.870   5.838
 1785SOL     OW 7193  11.719  14.754   2.804
 1785SOL    HW1 7194  11.708  14.750   2.899
 1785SOL    HW2 7195  11.652  14.693   2.771
 1786SOL     OW 7196   3.298  12.185  10.681
 1786SOL    HW1 7197   3.301  12.221  10.770
 1786SOL    HW2 7198   3.307  12.091  10.693
 1787SOL     OW 7199  11.308  14.069   6.457
 1787SOL    HW1 7200  11.355  14.042   6.536
 1787SOL    HW2 7201  11.237  14.007   6.448
 1788SOL     OW 7202   1.780  14.268  10.659
 1788SOL    HW1 7203   1.720  14.194  10.668
 1788SOL    HW2 7204   1.745  14.318  10.585
 1789SOL     OW 7205  11.168   6.734   5.315
 1789SOL    HW1 7206  11.167   6.809   5.255
 1789SOL    HW2 7207  11.097   6.752   5.377
 1790SOL     OW 7208   3.373   6.651   6.295
 1790SOL    HW1 7209   3.391   6.579   6.235
 1790SOL    HW2 7210   3.329   6.610   6.370
 1791SOL     OW 7211   4.350   0.078   6.149
 1791SOL    HW1 7212   4.413   0.012   6.177
 1791SOL    HW2 7213   4.316   0.115   6.231
 1792SOL     OW 7214   8.016   5.697   8.686
 1792SOL    HW1 7215   8.020   5.785   8.649
 1792SOL    HW2 7216   7.966   5.707   8.767
 1793SOL     OW 7217  10.279   6.997  14.394
 1793SOL    HW1 7218  10.359   7.047  14.381
 1793SOL    HW2 7219  10.296   6.912  14.352
 1794SOL     OW 7220   2.038  11.105  11.237
 1794SOL    HW1 7221   2.061  11.040  11.171
 1794SOL    HW2 7222   2.083  11.184  11.209
 1795SOL     OW 7223   7.148  14.258   3.316
 1795SOL    HW1 7224   7.135  14.194   3.386
 1795SOL    HW2 7225   7.060  14.290   3.296
 1796SOL     OW 7226   2.795  11.183   7.966
 1796SOL    HW1 7227   2.713  11.194   7.919
 1796SOL    HW2 7228   2.862  11.222   7.909
 1797SOL     OW 7229  13.837   5.644   9.794
 1797SOL    HW1 7230  13.747   5.678   9.794
 1797SOL    HW2 7231  13.857   5.628   9.886
 1798SOL     OW 7232  13.801   7.256   6.115
 1798SOL    HW1 7233  13.772   7.326   6.056
 1798SOL    HW2 7234  13.887   7.231   6.081
 1799SOL     OW 7235   4.881   9.800  13.706
 1799SOL    HW1 7236   4.843   9.864  13.767
 1799SOL    HW2 7237   4.806   9.760  13.663
 1800SOL     OW 7238   3.238   2.295   4.249
 1800SOL    HW1 7239   3.200   2.208   4.262
 1800SOL    HW2 7240   3.162   2.351   4.233
 1801SOL     OW 7241  14.285   1.731  10.868
 1801SOL    HW1 7242  14.316   1.732  10.778
 1801SOL    HW2 7243  14.358   1.768  10.918
 1802SOL     OW 7244   9.904   1.879   4.214
 1802SOL    HW1 7245   9.986   1.829   4.215
 1802SOL    HW2 7246   9.836   1.813   4.226
 1803SOL     OW 7247   7.470  12.342  12.983
 1803SOL    HW1 7248   7.523  12.264  12.968
 1803SOL    HW2 7249   7.433  12.362  12.896
 1804SOL     OW 7250   9.446   6.892  10.656
 1804SOL    HW1 7251   9.492   6.820  10.612
 1804SOL    HW2 7252   9.432   6.860  10.745
 1805SOL     OW 7253   1.834   9.732  13.055
 1805SOL    HW1 7254   1.783   9.676  12.996
 1805SOL    HW2 7255   1.884   9.671  13.109
 1806SOL     OW 7256   2.035   6.254  10.214
 1806SOL    HW1 7257   2.011   6.237  10.123
 1806SOL    HW2 7258   1.986   6.333  10.238
 1807SOL     OW 7259   6.564   3.115   1.713
 1807SOL    HW1 7260   6.561   3.188   1.775
 1807SOL    HW2 7261   6.635   3.138   1.653
 1808SOL     OW 7262   7.372   2.579   8.261
 1808SOL    HW1 7263   7.461   2.585   8.298
 1808SOL    HW2 7264   7.329   2.513   8.315
 1809SOL     OW 7265   1.335   5.332  10.425
 1809SOL    HW1 7266   1.295   5.345  10.511
 1809SOL    HW2 7267   1.392   5.407  10.413
 1810SOL     OW 7268   7.459   1.625  14.106
 1810SOL    HW1 7269   7.539   1.677  14.103
 1810SOL    HW2 7270   7.434   1.614  14.015
 1811SOL     OW 7271   8.243   1.816  10.758
 1811SOL    HW1 7272   8.262   1.896  10.807
 1811SOL    HW2 7273   8.163   1.836  10.709
 1812SOL     OW 7274   6.047  11.471  14.322
 1812SOL    HW1 7275   6.052  11.475  14.227
 1812SOL    HW2 7276   6.111  11.404  14.346
 1813SOL     OW 7277  13.306  12.108   7.259
 1813SOL    HW1 7278  13.268  12.143   7.340
 1813SOL    HW2 7279  13.400  12.124   7.269
 1814SOL     OW 7280   5.073   9.319   2.006
 1814SOL    HW1 7281   5.031   9.233   2.004
 1814SOL    HW2 7282   5.136   9.316   1.934
 1815SOL     OW 7283  14.121  13.986   6.965
 1815SOL    HW1 7284  14.091  14.054   7.027
 1815SOL    HW2 7285  14.141  14.034   6.885
 1816SOL     OW 7286   0.778  10.046  11.149
 1816SOL    HW1 7287   0.863  10.034  11.107
 1816SOL    HW2 7288   0.799  10.072  11.239
 1817SOL     OW 7289   0.242   2.661   8.185
 1817SOL    HW1 7290   0.184   2.736   8.197
 1817SOL    HW2 7291   0.185   2.592   8.151
 1818SOL     OW 7292   4.590  10.291   7.552
 1818SOL    HW1 7293   4.630  10.244   7.626
 1818SOL    HW2 7294   4.614  10.238   7.476
 1819SOL     OW 7295  12.653   3.208   9.147
 1819SOL    HW1 7296  12.568   3.167   9.130
 1819SOL    HW2 7297  12.635   3.270   9.218
 1820SOL     OW 7298   2.604   4.542   4.112
 1820SOL    HW1 7299   2.547   4.615   4.088
 1820SOL    HW2 7300   2.554   4.494   4.178
 1821SOL     OW 7301  14.519  14.531   1.166
 1821SOL    HW1 7302  14.442  14.475   1.159
 1821SOL    HW2 7303  14.530  14.545   1.260
 1822SOL     OW 7304  11.054  14.486   9.679
 1822SOL    HW1 7305  11.096  14.498   9.764
 1822SOL    HW2 7306  11.009  14.569   9.662
 1823SOL     OW 7307   8.581  12.085   7.366
 1823SOL    HW1 7308   8.498  12.040   7.379
 1823SOL    HW2 7309   8.564  12.175   7.392
 1824SOL     OW 7310   0.312  10.066  10.147
 1824SOL    HW1 7311   0.256  10.126  10.196
 1824SOL    HW2 7312   0.394  10.064  10.197
 1825SOL     OW 7313   1.501  14.008   7.857
 1825SOL    HW1 7314   1.500  13.923   7.901
 1825SOL    HW2 7315   1.537  13.990   7.771
 1826SOL     OW 7316   7.523   5.221  11.296
 1826SOL    HW1 7317   7.584   5.159  11.335
 1826SOL    HW2 7318   7.453   5.231  11.360
 1827SOL     OW 7319   4.943   4.887  13.976
 1827SOL    HW1 7320   4.865   4.928  13.940
 1827SOL    HW2 7321   5.002   4.960  13.994
 1828SOL     OW 7322   5.789  14.729  13.741
 1828SOL    HW1 7323   5.825  14.775  13.817
 1828SOL    HW2 7324   5.766  14.798  13.679
 1829SOL     OW 7325   0.072   5.818  13.143
 1829SOL    HW1 7326   0.040   5.841  13.056
 1829SOL    HW2 7327   0.011   5.860  13.203
 1830SOL     OW 7328   6.330   1.135  14.659
 1830SOL    HW1 7329   6.270   1.060  14.650
 1830SOL    HW2 7330   6.413   1.104  14.623
 1831SOL     OW 7331  10.474  14.617   5.570
 1831SOL    HW1 7332  10.393  14.615   5.621
 1831SOL    HW2 7333  10.449  14.589   5.483
 1832SOL     OW 7334   3.090   0.073   0.929
 1832SOL    HW1 7335   3.127   0.116   1.006
 1832SOL    HW2 7336   3.086  14.860   0.951
 1833SOL     OW 7337  12.689  10.541   8.725
 1833SOL    HW1 7338  12.740  10.602   8.779
 1833SOL    HW2 7339  12.629  10.499   8.786
 1834SOL     OW 7340   2.699  12.734   1.496
 1834SOL    HW1 7341   2.662  12.822   1.500
 1834SOL    HW2 7342   2.668  12.699   1.412
 1835SOL     OW 7343   9.141   9.382   7.554
 1835SOL    HW1 7344   9.085   9.416   7.484
 1835SOL    HW2 7345   9.193   9.314   7.511
 1836SOL     OW 7346   1.961   7.059   8.266
 1836SOL    HW1 7347   2.014   7.003   8.324
 1836SOL    HW2 7348   2.016   7.135   8.250
 1837SOL     OW 7349  10.567  10.597  12.306
 1837SOL    HW1 7350  10.563  10.692  12.289
 1837SOL    HW2 7351  10.501  10.560  12.247
 1838SOL     OW 7352   7.497   3.457   3.863
 1838SOL    HW1 7353   7.406   3.486   3.864
 1838SOL    HW2 7354   7.530   3.481   3.776
 1839SOL     OW 7355   2.999  10.407  11.078
 1839SOL    HW1 7356   2.973  10.386  11.168
 1839SOL    HW2 7357   3.040  10.493  11.084
 1840SOL     OW 7358   3.540  14.486   3.222
 1840SOL    HW1 7359   3.553  14.396   3.190
 1840SOL    HW2 7360   3.445  14.499   3.218
 1841SOL     OW 7361   3.270   9.862  14.113
 1841SOL    HW1 7362   3.201   9.849  14.048
 1841SOL    HW2 7363   3.289   9.773  14.145
 1842SOL     OW 7364   4.238   6.061   8.786
 1842SOL    HW1 7365   4.288   6.066   8.867
 1842SOL    HW2 7366   4.302   6.077   8.716
 1843SOL     OW 7367  10.914   4.823  14.275
 1843SOL    HW1 7368  10.920   4.728  14.262
 1843SOL    HW2 7369  10.820   4.842  14.267
 1844SOL     OW 7370  11.532  10.014  11.817
 1844SOL    HW1 7371  11.521  10.082  11.751
 1844SOL    HW2 7372  11.627  10.008  11.829
 1845SOL     OW 7373   3.825   4.467   0.580
 1845SOL    HW1 7374   3.897   4.530   0.583
 1845SOL    HW2 7375   3.748   4.519   0.603
 1846SOL     OW 7376   4.387  13.154   8.780
 1846SOL    HW1 7377   4.348  13.103   8.709
 1846SOL    HW2 7378   4.332  13.136   8.856
 1847SOL     OW 7379   1.816   5.637   8.553
 1847SOL    HW1 7380   1.785   5.547   8.543
 1847SOL    HW2 7381   1.845   5.662   8.465
 1848SOL     OW 7382  11.120  12.496   2.035
 1848SOL    HW1 7383  11.064  12.427   1.999
 1848SOL    HW2 7384  11.207  12.455   2.042
 1849SOL     OW 7385   4.381   3.536   5.534
 1849SOL    HW1 7386   4.398   3.452   5.578
 1849SOL    HW2 7387   4.324   3.583   5.594
 1850SOL     OW 7388   5.825  13.133   6.173
 1850SOL    HW1 7389   5.835  13.214   6.223
 1850SOL    HW2 7390   5.743  13.145   6.124
 1851SOL     OW 7391  13.723  10.361   9.345
 1851SOL    HW1 7392  13.699  10.269   9.353
 1851SOL    HW2 7393  13.753  10.385   9.432
 1852SOL     OW 7394   6.671  13.206   5.763
 1852SOL    HW1 7395   6.678  13.285   5.817
 1852SOL    HW2 7396   6.745  13.212   5.703
 1853SOL     OW 7397   0.293   4.595   6.807
 1853SOL    HW1 7398   0.334   4.553   6.883
 1853SOL    HW2 7399   0.217   4.641   6.843
 1854SOL     OW 7400   1.330   6.855   9.719
 1854SOL    HW1 7401   1.327   6.853   9.623
 1854SOL    HW2 7402   1.344   6.948   9.740
 1855SOL     OW 7403   6.311  14.204   3.283
 1855SOL    HW1 7404   6.278  14.293   3.281
 1855SOL    HW2 7405   6.387  14.204   3.225
 1856SOL     OW 7406   1.017   1.695   9.023
 1856SOL    HW1 7407   0.935   1.733   9.056
 1856SOL    HW2 7408   1.040   1.749   8.948
 1857SOL     OW 7409   4.888  11.369  10.304
 1857SOL    HW1 7410   4.978  11.339  10.316
 1857SOL    HW2 7411   4.868  11.347  10.212
 1858SOL     OW 7412   2.052  11.269   2.369
 1858SOL    HW1 7413   2.143  11.290   2.388
 1858SOL    HW2 7414   2.047  11.173   2.376
 1859SOL     OW 7415   1.512   5.053   1.463
 1859SOL    HW1 7416   1.536   5.106   1.539
 1859SOL    HW2 7417   1.585   4.991   1.453
 1860SOL     OW 7418  14.200   8.323  12.254
 1860SOL    HW1 7419  14.281   8.296  12.297
 1860SOL    HW2 7420  14.150   8.242  12.245
 1861SOL     OW 7421  14.396   5.235   1.259
 1861SOL    HW1 7422  14.352   5.160   1.218
 1861SOL    HW2 7423  14.484   5.204   1.278
 1862SOL     OW 7424  14.600  12.305  13.738
 1862SOL    HW1 7425  14.588  12.388  13.785
 1862SOL    HW2 7426  14.528  12.303  13.675
 1863SOL     OW 7427   5.698   9.786  11.942
 1863SOL    HW1 7428   5.665   9.757  12.027
 1863SOL    HW2 7429   5.649   9.867  11.924
 1864SOL     OW 7430   1.732   2.895  12.320
 1864SOL    HW1 7431   1.771   2.814  12.289
 1864SOL    HW2 7432   1.806   2.954  12.334
 1865SOL     OW 7433   1.725   1.467  14.186
 1865SOL    HW1 7434   1.649   1.517  14.156
 1865SOL    HW2 7435   1.800   1.511  14.145
 1866SOL     OW 7436   0.155   3.336   6.432
 1866SOL    HW1 7437   0.140   3.320   6.525
 1866SOL    HW2 7438   0.130   3.254   6.390
 1867SOL     OW 7439   2.297   9.627  13.435
 1867SOL    HW1 7440   2.335   9.714  13.427
 1867SOL    HW2 7441   2.350   9.583  13.502
 1868SOL     OW 7442   9.171  10.856   2.960
 1868SOL    HW1 7443   9.095  10.914   2.966
 1868SOL    HW2 7444   9.136  10.774   2.925
 1869SOL     OW 7445   3.919  14.581   6.219
 1869SOL    HW1 7446   3.953  14.669   6.207
 1869SOL    HW2 7447   3.834  14.582   6.173
 1870SOL     OW 7448   3.947   5.509   3.101
 1870SOL    HW1 7449   4.009   5.445   3.065
 1870SOL    HW2 7450   3.927   5.567   3.027
 1871SOL     OW 7451   8.492   6.579  14.204
 1871SOL    HW1 7452   8.421   6.590  14.268
 1871SOL    HW2 7453   8.459   6.513  14.143
 1872SOL     OW 7454   0.421  12.354  12.803
 1872SOL    HW1 7455   0.426  12.263  12.773
 1872SOL    HW2 7456   0.337  12.359  12.850
 1873SOL     OW 7457  12.697   5.117  13.984
 1873SOL    HW1 7458  12.746   5.039  14.011
 1873SOL    HW2 7459  12.660   5.093  13.899
 1874SOL     OW 7460   2.504  10.947  10.815
 1874SOL    HW1 7461   2.563  10.874  10.799
 1874SOL    HW2 7462   2.556  11.025  10.794
 1875SOL     OW 7463   0.454   0.428   2.495
 1875SOL    HW1 7464   0.454   0.340   2.533
 1875SOL    HW2 7465   0.529   0.429   2.437
 1876SOL     OW 7466   5.172  12.279   0.148
 1876SOL    HW1 7467   5.139  12.206   0.096
 1876SOL    HW2 7468   5.109  12.290   0.219
 1877SOL     OW 7469  14.580  12.612  12.383
 1877SOL    HW1 7470  14.666  12.647  12.360
 1877SOL    HW2 7471  14.587  12.518  12.366
 1878SOL     OW 7472   0.180   3.341  11.151
 1878SOL    HW1 7473   0.130   3.265  11.122
 1878SOL    HW2 7474   0.229   3.310  11.228
 1879SOL     OW 7475   5.756  12.532  14.587
 1879SOL    HW1 7476   5.846  12.548  14.557
 1879SOL    HW2 7477   5.748  12.585  14.666
 1880SOL     OW 7478  13.747  12.815   3.892
 1880SOL    HW1 7479  13.725  12.744   3.951
 1880SOL    HW2 7480  13.821  12.782   3.841
 1881SOL     OW 7481  13.078   1.172   3.565
 1881SOL    HW1 7482  13.000   1.156   3.512
 1881SOL    HW2 7483  13.049   1.157   3.655
 1882SOL     OW 7484  13.118   6.288   7.349
 1882SOL    HW1 7485  13.091   6.235   7.274
 1882SOL    HW2 7486  13.191   6.340   7.316
 1883SOL     OW 7487   3.451   3.608   2.731
 1883SOL    HW1 7488   3.442   3.523   2.688
 1883SOL    HW2 7489   3.517   3.594   2.799
 1884SOL     OW 7490  12.261  13.676   7.865
 1884SOL    HW1 7491  12.178  13.721   7.880
 1884SOL    HW2 7492  12.236  13.592   7.827
 1885SOL     OW 7493   2.129  12.270   9.925
 1885SOL    HW1 7494   2.061  12.277   9.992
 1885SOL    HW2 7495   2.082  12.277   9.842
 1886SOL     OW 7496   6.075  13.168   9.976
 1886SOL    HW1 7497   6.066  13.161   9.881
 1886SOL    HW2 7498   6.131  13.244   9.989
 1887SOL     OW 7499   4.506   5.556  14.451
 1887SOL    HW1 7500   4.578   5.588  14.398
 1887SOL    HW2 7501   4.427   5.586  14.406
 1888SOL     OW 7502  13.871   5.071   3.587
 1888SOL    HW1 7503  13.933   5.001   3.604
 1888SOL    HW2 7504  13.837   5.095   3.673
 1889SOL     OW 7505   6.462   1.344   3.908
 1889SOL    HW1 7506   6.407   1.418   3.884
 1889SOL    HW2 7507   6.402   1.279   3.944
 1890SOL     OW 7508   3.575  12.400   6.118
 1890SOL    HW1 7509   3.530  12.370   6.197
 1890SOL    HW2 7510   3.662  12.427   6.149
 1891SOL     OW 7511   4.994   7.053   2.739
 1891SOL    HW1 7512   5.078   7.009   2.722
 1891SOL    HW2 7513   4.945   6.990   2.792
 1892SOL     OW 7514   4.827   2.515   2.741
 1892SOL    HW1 7515   4.766   2.562   2.684
 1892SOL    HW2 7516   4.778   2.437   2.769
 1893SOL     OW 7517   6.589   2.321   5.727
 1893SOL    HW1 7518   6.578   2.234   5.690
 1893SOL    HW2 7519   6.503   2.362   5.720
 1894SOL     OW 7520   9.187  13.974  13.908
 1894SOL    HW1 7521   9.126  14.037  13.869
 1894SOL    HW2 7522   9.204  13.911  13.839
 1895SOL     OW 7523   0.840   0.695   1.015
 1895SOL    HW1 7524   0.779   0.625   1.040
 1895SOL    HW2 7525   0.791   0.747   0.951
 1896SOL     OW 7526   9.311   5.581   2.430
 1896SOL    HW1 7527   9.369   5.550   2.361
 1896SOL    HW2 7528   9.358   5.563   2.511
 1897SOL     OW 7529   5.511   8.937   5.920
 1897SOL    HW1 7530   5.454   8.915   5.993
 1897SOL    HW2 7531   5.599   8.923   5.952
 1898SOL     OW 7532   5.189   8.702  11.094
 1898SOL    HW1 7533   5.162   8.793  11.085
 1898SOL    HW2 7534   5.282   8.707  11.118
 1899SOL     OW 7535  12.353   4.278   9.876
 1899SOL    HW1 7536  12.436   4.235   9.896
 1899SOL    HW2 7537  12.290   4.206   9.870
 1900SOL     OW 7538  10.058   9.625  10.147
 1900SOL    HW1 7539  10.149   9.602  10.166
 1900SOL    HW2 7540  10.009   9.598  10.225
 1901SOL     OW 7541   5.670   0.232   1.892
 1901SOL    HW1 7542   5.733   0.267   1.829
 1901SOL    HW2 7543   5.590   0.219   1.841
 1902SOL     OW 7544   1.845  10.827  12.176
 1902SOL    HW1 7545   1.888  10.865  12.099
 1902SOL    HW2 7546   1.917  10.787  12.225
 1903SOL     OW 7547   7.564   3.272  11.632
 1903SOL    HW1 7548   7.604   3.277  11.719
 1903SOL    HW2 7549   7.582   3.182  11.604
 1904SOL     OW 7550   8.547  14.399   0.211
 1904SOL    HW1 7551   8.490  14.415   0.136
 1904SOL    HW2 7552   8.627  14.447   0.192
 1905SOL     OW 7553  14.251   3.788   8.415
 1905SOL    HW1 7554  14.314   3.783   8.343
 1905SOL    HW2 7555  14.285   3.725   8.480
 1906SOL     OW 7556  12.460   9.229   8.838
 1906SOL    HW1 7557  12.544   9.186   8.822
 1906SOL    HW2 7558  12.435   9.202   8.926
 1907SOL     OW 7559   4.762   5.759  11.159
 1907SOL    HW1 7560   4.828   5.807  11.110
 1907SOL    HW2 7561   4.683   5.766  11.106
 1908SOL     OW 7562   3.844   4.018   3.444
 1908SOL    HW1 7563   3.753   3.990   3.446
 1908SOL    HW2 7564   3.893   3.941   3.475
 1909SOL     OW 7565  14.169   5.662   0.091
 1909SOL    HW1 7566  14.109   5.655   0.165
 1909SOL    HW2 7567  14.256   5.647   0.129
 1910SOL     OW 7568   4.508  11.401   7.991
 1910SOL    HW1 7569   4.447  11.357   8.051
 1910SOL    HW2 7570   4.567  11.331   7.962
 1911SOL     OW 7571   5.587   9.164   5.459
 1911SOL    HW1 7572   5.633   9.109   5.523
 1911SOL    HW2 7573   5.614   9.128   5.374
 1912SOL     OW 7574  12.049  12.405  10.913
 1912SOL    HW1 7575  12.053  12.313  10.887
 1912SOL    HW2 7576  11.991  12.405  10.989
 1913SOL     OW 7577   9.115   6.082   0.611
 1913SOL    HW1 7578   9.171   6.146   0.656
 1913SOL    HW2 7579   9.127   6.001   0.659
 1914SOL     OW 7580   5.515  14.788   0.799
 1914SOL    HW1 7581   5.530  14.693   0.800
 1914SOL    HW2 7582   5.438  14.799   0.744
 1915SOL     OW 7583  11.700   5.316  12.719
 1915SOL    HW1 7584  11.667   5.364  12.644
 1915SOL    HW2 7585  11.625   5.268  12.752
 1916SOL     OW 7586  12.812   7.567  12.402
 1916SOL    HW1 7587  12.727   7.604  12.376
 1916SOL    HW2 7588  12.800   7.542  12.493
 1917SOL     OW 7589   6.947   4.495   0.456
 1917SOL    HW1 7590   7.028   4.489   0.507
 1917SOL    HW2 7591   6.893   4.558   0.505
 1918SOL     OW 7592   6.952   7.808   0.017
 1918SOL    HW1 7593   6.995   7.893   0.006
 1918SOL    HW2 7594   6.991   7.753  14.828
 1919SOL     OW 7595   0.703   1.037  12.051
 1919SOL    HW1 7596   0.795   1.063  12.063
 1919SOL    HW2 7597   0.701   0.996  11.965
 1920SOL     OW 7598   3.601  12.644  10.186
 1920SOL    HW1 7599   3.615  12.688  10.270
 1920SOL    HW2 7600   3.618  12.711  10.121
 1921SOL     OW 7601   7.061  13.018  14.533
 1921SOL    HW1 7602   7.148  13.000  14.569
 1921SOL    HW2 7603   7.001  12.975  14.594
 1922SOL     OW 7604   8.267   0.373   4.157
 1922SOL    HW1 7605   8.212   0.403   4.229
 1922SOL    HW2 7606   8.289   0.283   4.180
 1923SOL     OW 7607   7.356  10.349  12.807
 1923SOL    HW1 7608   7.409  10.308  12.875
 1923SOL    HW2 7609   7.402  10.430  12.786
 1924SOL     OW 7610   6.597  12.893   9.030
 1924SOL    HW1 7611   6.613  12.802   9.053
 1924SOL    HW2 7612   6.684  12.929   9.011
 1925SOL     OW 7613   5.056  13.011  14.268
 1925SOL    HW1 7614   4.985  12.989  14.208
 1925SOL    HW2 7615   5.122  12.944  14.252
 1926SOL     OW 7616   5.553   1.822   0.344
 1926SOL    HW1 7617   5.588   1.740   0.379
 1926SOL    HW2 7618   5.595   1.832   0.259
 1927SOL     OW 7619  13.355  11.203   7.913
 1927SOL    HW1 7620  13.397  11.117   7.916
 1927SOL    HW2 7621  13.265  11.188   7.943
 1928SOL     OW 7622   2.446   0.117   2.916
 1928SOL    HW1 7623   2.536   0.100   2.886
 1928SOL    HW2 7624   2.457   0.170   2.994
 1929SOL     OW 7625   0.384  12.831  14.806
 1929SOL    HW1 7626   0.443  12.758  14.786
 1929SOL    HW2 7627   0.386  12.886  14.728
 1930SOL     OW 7628   6.604  14.731   8.503
 1930SOL    HW1 7629   6.517  14.769   8.495
 1930SOL    HW2 7630   6.662  14.806   8.518
 1931SOL     OW 7631   6.965   5.757   7.360
 1931SOL    HW1 7632   7.022   5.827   7.392
 1931SOL    HW2 7633   6.886   5.803   7.331
 1932SOL     OW 7634   2.752   9.898   8.912
 1932SOL    HW1 7635   2.748   9.847   8.831
 1932SOL    HW2 7636   2.704   9.978   8.892
 1933SOL     OW 7637   8.303   2.199   2.460
 1933SOL    HW1 7638   8.398   2.200   2.472
 1933SOL    HW2 7639   8.268   2.224   2.546
 1934SOL     OW 7640  12.789   1.204   0.868
 1934SOL    HW1 7641  12.828   1.135   0.815
 1934SOL    HW2 7642  12.713   1.233   0.818
 1935SOL     OW 7643  12.661  12.159   6.955
 1935SOL    HW1 7644  12.742  12.141   6.907
 1935SOL    HW2 7645  12.684  12.150   7.047
 1936SOL     OW 7646   9.257   0.963  12.363
 1936SOL    HW1 7647   9.337   1.008  12.389
 1936SOL    HW2 7648   9.259   0.880  12.411
 1937SOL     OW 7649  13.276   2.836   7.053
 1937SOL    HW1 7650  13.220   2.902   7.094
 1937SOL    HW2 7651  13.277   2.763   7.115
 1938SOL     OW 7652  12.904   2.735  13.613
 1938SOL    HW1 7653  12.871   2.767  13.529
 1938SOL    HW2 7654  12.859   2.652  13.626
 1939SOL     OW 7655   8.176  12.783   1.604
 1939SOL    HW1 7656   8.099  12.817   1.558
 1939SOL    HW2 7657   8.236  12.757   1.535
 1940SOL     OW 7658  13.369   5.533   5.165
 1940SOL    HW1 7659  13.302   5.475   5.127
 1940SOL    HW2 7660  13.323   5.616   5.180
 1941SOL     OW 7661   9.266  11.597  13.277
 1941SOL    HW1 7662   9.268  11.605  13.373
 1941SOL    HW2 7663   9.339  11.539  13.256
 1942SOL     OW 7664   2.901   7.476   5.200
 1942SOL    HW1 7665   2.930   7.521   5.279
 1942SOL    HW2 7666   2.865   7.393   5.231
 1943SOL     OW 7667   1.395  11.804   0.134
 1943SOL    HW1 7668   1.396  11.864   0.060
 1943SOL    HW2 7669   1.336  11.733   0.107
 1944SOL     OW 7670   6.991   9.883   3.897
 1944SOL    HW1 7671   6.926   9.813   3.891
 1944SOL    HW2 7672   6.955   9.953   3.843
 1945SOL     OW 7673   7.453  14.743   1.307
 1945SOL    HW1 7674   7.488  14.768   1.392
 1945SOL    HW2 7675   7.363  14.715   1.326
 1946SOL     OW 7676   7.467   2.090   6.266
 1946SOL    HW1 7677   7.561   2.109   6.265
 1946SOL    HW2 7678   7.447   2.076   6.359
 1947SOL     OW 7679  11.017   6.951   6.162
 1947SOL    HW1 7680  11.104   6.990   6.175
 1947SOL    HW2 7681  11.021   6.913   6.075
 1948SOL     OW 7682  10.207   5.571   9.789
 1948SOL    HW1 7683  10.182   5.503   9.852
 1948SOL    HW2 7684  10.275   5.530   9.736
 1949SOL     OW 7685   4.599   0.685   1.380
 1949SOL    HW1 7686   4.634   0.643   1.459
 1949SOL    HW2 7687   4.574   0.773   1.409
 1950SOL     OW 7688   8.929   5.925   6.803
 1950SOL    HW1 7689   8.962   6.011   6.778
 1950SOL    HW2 7690   9.008   5.874   6.822
 1951SOL     OW 7691   9.257   5.300   4.247
 1951SOL    HW1 7692   9.212   5.302   4.331
 1951SOL    HW2 7693   9.187   5.300   4.182
 1952SOL     OW 7694  13.662   1.518   2.860
 1952SOL    HW1 7695  13.579   1.564   2.870
 1952SOL    HW2 7696  13.722   1.563   2.920
 1953SOL     OW 7697  14.621   5.818   9.160
 1953SOL    HW1 7698  14.670   5.737   9.144
 1953SOL    HW2 7699  14.683   5.876   9.204
 1954SOL     OW 7700  10.129  12.605   4.294
 1954SOL    HW1 7701  10.117  12.683   4.241
 1954SOL    HW2 7702  10.112  12.634   4.384
 1955SOL     OW 7703  12.449  12.603   6.737
 1955SOL    HW1 7704  12.364  12.569   6.765
 1955SOL    HW2 7705  12.513  12.540   6.771
 1956SOL     OW 7706  13.296   4.928  13.767
 1956SOL    HW1 7707  13.392   4.930  13.771
 1956SOL    HW2 7708  13.277   4.879  13.687
 1957SOL     OW 7709   8.520   1.336   1.768
 1957SOL    HW1 7710   8.505   1.242   1.779
 1957SOL    HW2 7711   8.450   1.377   1.819
 1958SOL     OW 7712  11.740   7.203   0.161
 1958SOL    HW1 7713  11.649   7.174   0.152
 1958SOL    HW2 7714  11.783   7.129   0.205
 1959SOL     OW 7715  13.547  14.117   9.863
 1959SOL    HW1 7716  13.490  14.194   9.866
 1959SOL    HW2 7717  13.532  14.073   9.947
 1960SOL     OW 7718  10.493   8.322  12.982
 1960SOL    HW1 7719  10.402   8.294  12.981
 1960SOL    HW2 7720  10.508   8.350  13.072
 1961SOL     OW 7721  13.183   3.473   1.530
 1961SOL    HW1 7722  13.105   3.525   1.550
 1961SOL    HW2 7723  13.201   3.491   1.438
 1962SOL     OW 7724   6.746   8.287   6.627
 1962SOL    HW1 7725   6.799   8.339   6.687
 1962SOL    HW2 7726   6.749   8.198   6.664
 1963SOL     OW 7727   2.617   2.801   9.371
 1963SOL    HW1 7728   2.572   2.771   9.291
 1963SOL    HW2 7729   2.638   2.720   9.418
 1964SOL     OW 7730   9.167   7.738  12.483
 1964SOL    HW1 7731   9.233   7.670  12.468
 1964SOL    HW2 7732   9.084   7.696  12.461
 1965SOL     OW 7733   1.855   5.837   9.043
 1965SOL    HW1 7734   1.849   5.814   8.950
 1965SOL    HW2 7735   1.777   5.797   9.082
 1966SOL     OW 7736   2.694   4.632   0.563
 1966SOL    HW1 7737   2.613   4.595   0.599
 1966SOL    HW2 7738   2.697   4.599   0.474
 1967SOL     OW 7739  12.755   5.694   9.851
 1967SOL    HW1 7740  12.766   5.615   9.799
 1967SOL    HW2 7741  12.685   5.672   9.913
 1968SOL     OW 7742   5.470  14.166   8.570
 1968SOL    HW1 7743   5.401  14.228   8.547
 1968SOL    HW2 7744   5.424  14.087   8.597
 1969SOL     OW 7745   4.128   7.169   7.681
 1969SOL    HW1 7746   4.211   7.213   7.667
 1969SOL    HW2 7747   4.062   7.238   7.675
 1970SOL     OW 7748   0.913   7.458  12.634
 1970SOL    HW1 7749   0.833   7.405  12.637
 1970SOL    HW2 7750   0.942   7.463  12.725
 1971SOL     OW 7751   1.559   7.758   0.514
 1971SOL    HW1 7752   1.483   7.699   0.511
 1971SOL    HW2 7753   1.524   7.844   0.490
 1972SOL     OW 7754   4.084   8.284  14.177
 1972SOL    HW1 7755   4.135   8.221  14.126
 1972SOL    HW2 7756   4.014   8.312  14.118
 1973SOL     OW 7757   7.774  14.074  13.150
 1973SOL    HW1 7758   7.716  14.140  13.188
 1973SOL    HW2 7759   7.724  14.036  13.078
 1974SOL     OW 7760  10.043  11.758  12.157
 1974SOL    HW1 7761  10.111  11.811  12.199
 1974SOL    HW2 7762  10.087  11.675  12.137
 1975SOL     OW 7763  10.273   7.738   2.819
 1975SOL    HW1 7764  10.359   7.704   2.844
 1975SOL    HW2 7765  10.222   7.659   2.798
 1976SOL     OW 7766   0.456  11.274   0.326
 1976SOL    HW1 7767   0.550  11.257   0.333
 1976SOL    HW2 7768   0.415  11.203   0.375
 1977SOL     OW 7769  11.455  14.604   9.361
 1977SOL    HW1 7770  11.525  14.668   9.348
 1977SOL    HW2 7771  11.432  14.575   9.272
 1978SOL     OW 7772  13.116   8.687   3.499
 1978SOL    HW1 7773  13.077   8.600   3.497
 1978SOL    HW2 7774  13.202   8.674   3.539
 1979SOL     OW 7775   0.976   1.096  11.167
 1979SOL    HW1 7776   0.928   1.126  11.245
 1979SOL    HW2 7777   0.912   1.045  11.118
 1980SOL     OW 7778  12.595   9.523  12.034
 1980SOL    HW1 7779  12.595   9.618  12.018
 1980SOL    HW2 7780  12.504   9.497  12.019
 1981SOL     OW 7781   3.966   9.080  11.635
 1981SOL    HW1 7782   3.937   9.136  11.706
 1981SOL    HW2 7783   3.936   9.123  11.555
 1982SOL     OW 7784  13.658  14.075  10.221
 1982SOL    HW1 7785  13.722  14.141  10.196
 1982SOL    HW2 7786  13.582  14.125  10.251
 1983SOL     OW 7787  11.476  10.703   1.434
 1983SOL    HW1 7788  11.568  10.681   1.421
 1983SOL    HW2 7789  11.443  10.724   1.347
 1984SOL     OW 7790   3.593   8.205  11.480
 1984SOL    HW1 7791   3.551   8.157  11.409
 1984SOL    HW2 7792   3.681   8.223  11.447
 1985SOL     OW 7793   5.048  10.010   8.906
 1985SOL    HW1 7794   4.963  10.025   8.864
 1985SOL    HW2 7795   5.097  10.091   8.892
 1986SOL     OW 7796  12.762  10.588   2.706
 1986SOL    HW1 7797  12.793  10.549   2.787
 1986SOL    HW2 7798  12.717  10.517   2.660
 1987SOL     OW 7799   1.033   8.215   3.934
 1987SOL    HW1 7800   1.022   8.288   3.873
 1987SOL    HW2 7801   0.944   8.192   3.960
 1988SOL     OW 7802   5.661   6.587   8.085
 1988SOL    HW1 7803   5.739   6.548   8.125
 1988SOL    HW2 7804   5.592   6.523   8.099
 1989SOL     OW 7805   8.869   0.322  12.802
 1989SOL    HW1 7806   8.877   0.255  12.734
 1989SOL    HW2 7807   8.810   0.388  12.764
 1990SOL     OW 7808   0.984  12.480   3.866
 1990SOL    HW1 7809   1.060  12.434   3.903
 1990SOL    HW2 7810   0.981  12.452   3.775
 1991SOL     OW 7811  12.606   9.753  12.540
 1991SOL    HW1 7812  12.579   9.663  12.521
 1991SOL    HW2 7813  12.524   9.801  12.552
 1992SOL     OW 7814  11.374  10.809   2.305
 1992SOL    HW1 7815  11.410  10.823   2.392
 1992SOL    HW2 7816  11.301  10.871   2.299
 1993SOL     OW 7817  14.435   7.284  10.651
 1993SOL    HW1 7818  14.524   7.252  10.633
 1993SOL    HW2 7819  14.381   7.249  10.581
 1994SOL     OW 7820   5.803   5.302   2.958
 1994SOL    HW1 7821   5.757   5.373   3.004
 1994SOL    HW2 7822   5.877   5.345   2.916
 1995SOL     OW 7823   2.872   9.715   3.664
 1995SOL    HW1 7824   2.871   9.809   3.647
 1995SOL    HW2 7825   2.965   9.692   3.665
 1996SOL     OW 7826   2.510  14.787  10.814
 1996SOL    HW1 7827   2.513  14.695  10.788
 1996SOL    HW2 7828   2.457  14.830  10.747
 1997SOL     OW 7829   7.571  13.543  13.901
 1997SOL    HW1 7830   7.569  13.601  13.977
 1997SOL    HW2 7831   7.619  13.593  13.835
 1998SOL     OW 7832   8.130   2.911  14.426
 1998SOL    HW1 7833   8.068   2.856  14.377
 1998SOL    HW2 7834   8.198   2.933  14.362
 1999SOL     OW 7835  10.793   4.405  11.627
 1999SOL    HW1 7836  10.742   4.361  11.558
 1999SOL    HW2 7837  10.859   4.456  11.579
 2000SOL     OW 7838  13.136  12.778   8.193
 2000SOL    HW1 7839  13.146  12.695   8.146
 2000SOL    HW2 7840  13.182  12.764   8.276
 2001SOL     OW 7841   7.441   6.266  13.011
 2001SOL    HW1 7842   7.530   6.240  12.986
 2001SOL    HW2 7843   7.453   6.341  13.069
 2002SOL     OW 7844   7.748   0.243   7.955
 2002SOL    HW1 7845   7.826   0.187   7.948
 2002SOL    HW2 7846   7.683   0.187   7.998
 2003SOL     OW 7847   3.737   4.041   7.057
 2003SOL    HW1 7848   3.718   4.043   6.963
 2003SOL    HW2 7849   3.813   3.983   7.065
 2004SOL     OW 7850   3.447   1.234   8.382
 2004SOL    HW1 7851   3.379   1.172   8.354
 2004SOL    HW2 7852   3.400   1.296   8.437
 2005SOL     OW 7853   9.066   2.133   8.525
 2005SOL    HW1 7854   9.113   2.215   8.517
 2005SOL    HW2 7855   9.129   2.072   8.564
 2006SOL     OW 7856   2.939  14.733  13.821
 2006SOL    HW1 7857   2.974  14.715  13.908
 2006SOL    HW2 7858   2.850  14.764  13.836
 2007SOL     OW 7859   3.826   0.704  14.778
 2007SOL    HW1 7860   3.866   0.617  14.772
 2007SOL    HW2 7861   3.892   0.763  14.741
 2008SOL     OW 7862  12.586   2.154   2.549
 2008SOL    HW1 7863  12.541   2.237   2.568
 2008SOL    HW2 7864  12.535   2.115   2.478
 2009SOL     OW 7865  13.221  12.799   8.506
 2009SOL    HW1 7866  13.127  12.791   8.517
 2009SOL    HW2 7867  13.250  12.847   8.584
 2010SOL     OW 7868   1.520  11.843   1.799
 2010SOL    HW1 7869   1.501  11.872   1.709
 2010SOL    HW2 7870   1.615  11.829   1.800
 2011SOL     OW 7871   3.226   6.884   7.821
 2011SOL    HW1 7872   3.266   6.896   7.734
 2011SOL    HW2 7873   3.190   6.969   7.843
 2012SOL     OW 7874  14.144  11.881  13.344
 2012SOL    HW1 7875  14.224  11.836  13.318
 2012SOL    HW2 7876  14.175  11.955  13.397
 2013SOL     OW 7877  10.642   9.451   3.826
 2013SOL    HW1 7878  10.624   9.397   3.749
 2013SOL    HW2 7879  10.648   9.540   3.792
 2014SOL     OW 7880  10.813   4.933  10.295
 2014SOL    HW1 7881  10.881   4.972  10.241
 2014SOL    HW2 7882  10.850   4.849  10.324
 2015SOL     OW 7883   1.876   3.513   5.140
 2015SOL    HW1 7884   1.817   3.438   5.152
 2015SOL    HW2 7885   1.846   3.554   5.058
 2016SOL     OW 7886   2.321  13.919   5.709
 2016SOL    HW1 7887   2.252  13.860   5.739
 2016SOL    HW2 7888   2.388  13.914   5.777
 2017SOL     OW 7889   0.497  12.006   6.918
 2017SOL    HW1 7890   0.576  11.963   6.951
 2017SOL    HW2 7891   0.428  11.981   6.979
 2018SOL     OW 7892   6.913   0.175   1.442
 2018SOL    HW1 7893   6.873   0.197   1.526
 2018SOL    HW2 7894   6.839   0.164   1.382
 2019SOL     OW 7895   9.451   4.175   2.821
 2019SOL    HW1 7896   9.417   4.262   2.800
 2019SOL    HW2 7897   9.517   4.158   2.753
 2020SOL     OW 7898   1.358  12.336   7.849
 2020SOL    HW1 7899   1.438  12.384   7.868
 2020SOL    HW2 7900   1.287  12.397   7.870
 2021SOL     OW 7901   6.654   6.545   0.871
 2021SOL    HW1 7902   6.595   6.480   0.908
 2021SOL    HW2 7903   6.699   6.500   0.800
 2022SOL     OW 7904  14.445  10.086  10.963
 2022SOL    HW1 7905  14.399  10.141  11.026
 2022SOL    HW2 7906  14.439  10.133  10.880
 2023SOL     OW 7907   7.277  14.855   6.415
 2023SOL    HW1 7908   7.229  14.867   6.333
 2023SOL    HW2 7909   7.308  14.765   6.412
 2024SOL     OW 7910  10.494  14.202   7.687
 2024SOL    HW1 7911  10.534  14.172   7.605
 2024SOL    HW2 7912  10.527  14.291   7.699
 2025SOL     OW 7913   2.230   5.241  13.475
 2025SOL    HW1 7914   2.259   5.150  13.467
 2025SOL    HW2 7915   2.256   5.282  13.392
 2026SOL     OW 7916   0.409  12.075   4.328
 2026SOL    HW1 7917   0.362  12.072   4.412
 2026SOL    HW2 7918   0.501  12.086   4.353
 2027SOL     OW 7919   3.478  13.943  14.148
 2027SOL    HW1 7920   3.447  14.032  14.129
 2027SOL    HW2 7921   3.443  13.890  14.077
 2028SOL     OW 7922  11.187   7.924   7.207
 2028SOL    HW1 7923  11.207   7.830   7.209
 2028SOL    HW2 7924  11.264   7.965   7.247
 2029SOL     OW 7925   0.021   4.534   9.498
 2029SOL    HW1 7926   0.047   4.451   9.538
 2029SOL    HW2 7927   0.007   4.513   9.406
 2030SOL     OW 7928   3.895   2.093   5.371
 2030SOL    HW1 7929   3.823   2.087   5.308
 2030SOL    HW2 7930   3.934   2.179   5.355
 2031SOL     OW 7931   2.914   8.304  14.115
 2031SOL    HW1 7932   2.996   8.353  14.125
 2031SOL    HW2 7933   2.845   8.368  14.135
 2032SOL     OW 7934  11.542   1.519   4.160
 2032SOL    HW1 7935  11.624   1.529   4.208
 2032SOL    HW2 7936  11.485   1.587   4.195
 2033SOL     OW 7937  12.306   0.855  12.683
 2033SOL    HW1 7938  12.261   0.814  12.609
 2033SOL    HW2 7939  12.235   0.892  12.736
 2034SOL     OW 7940  13.478  14.789   8.821
 2034SOL    HW1 7941  13.572  14.804   8.827
 2034SOL    HW2 7942  13.442  14.872   8.790
 2035SOL     OW 7943  11.639   3.203   8.261
 2035SOL    HW1 7944  11.706   3.139   8.236
 2035SOL    HW2 7945  11.587   3.215   8.181
 2036SOL     OW 7946  14.293   7.766  10.764
 2036SOL    HW1 7947  14.318   7.719  10.684
 2036SOL    HW2 7948  14.345   7.725  10.833
 2037SOL     OW 7949  13.587   9.580  10.850
 2037SOL    HW1 7950  13.582   9.520  10.924
 2037SOL    HW2 7951  13.496   9.598  10.827
 2038SOL     OW 7952   3.178   7.707  12.960
 2038SOL    HW1 7953   3.140   7.670  13.040
 2038SOL    HW2 7954   3.146   7.797  12.958
 2039SOL     OW 7955   2.388   6.932   0.340
 2039SOL    HW1 7956   2.467   6.905   0.294
 2039SOL    HW2 7957   2.408   6.919   0.432
 2040SOL     OW 7958   8.309  12.780  10.146
 2040SOL    HW1 7959   8.247  12.750  10.079
 2040SOL    HW2 7960   8.341  12.864  10.112
 2041SOL     OW 7961   7.089   2.575   7.036
 2041SOL    HW1 7962   7.142   2.640   7.082
 2041SOL    HW2 7963   7.018   2.556   7.098
 2042SOL     OW 7964   3.982   8.607  10.878
 2042SOL    HW1 7965   4.019   8.637  10.795
 2042SOL    HW2 7966   3.925   8.678  10.906
 2043SOL     OW 7967  11.297  13.853   7.853
 2043SOL    HW1 7968  11.240  13.800   7.908
 2043SOL    HW2 7969  11.237  13.908   7.802
 2044SOL     OW 7970   7.916  11.424   5.651
 2044SOL    HW1 7971   7.930  11.332   5.676
 2044SOL    HW2 7972   7.969  11.474   5.713
 2045SOL     OW 7973  11.421   6.649   0.722
 2045SOL    HW1 7974  11.407   6.661   0.816
 2045SOL    HW2 7975  11.509   6.683   0.706
 2046SOL     OW 7976   4.639   8.540  13.916
 2046SOL    HW1 7977   4.656   8.447  13.909
 2046SOL    HW2 7978   4.548   8.550  13.887
 2047SOL     OW 7979  10.995   9.410   4.325
 2047SOL    HW1 7980  11.003   9.349   4.252
 2047SOL    HW2 7981  10.997   9.356   4.403
 2048SOL     OW 7982  10.089   2.378   3.367
 2048SOL    HW1 7983  10.178   2.370   3.403
 2048SOL    HW2 7984  10.043   2.302   3.401
 2049SOL     OW 7985  11.885  13.967  13.783
 2049SOL    HW1 7986  11.893  14.058  13.813
 2049SOL    HW2 7987  11.810  13.933  13.833
 2050SOL     OW 7988   0.933   6.485   3.717
 2050SOL    HW1 7989   0.895   6.491   3.804
 2050SOL    HW2 7990   0.980   6.402   3.717
 2051SOL     OW 7991  10.732   2.419   5.689
 2051SOL    HW1 7992  10.723   2.403   5.595
 2051SOL    HW2 7993  10.792   2.493   5.696
 2052SOL     OW 7994   1.781   1.439  11.476
 2052SOL    HW1 7995   1.764   1.348  11.498
 2052SOL    HW2 7996   1.711   1.488  11.519
 2053SOL     OW 7997  13.798   0.014   8.202
 2053SOL    HW1 7998  13.870   0.065   8.166
 2053SOL    HW2 7999  13.783   0.052   8.289
 2054SOL     OW 8000   9.577   1.633   5.921
 2054SOL    HW1 8001   9.539   1.597   6.001
 2054SOL    HW2 8002   9.503   1.673   5.876
 2055SOL     OW 8003   3.752   5.980  12.119
 2055SOL    HW1 8004   3.667   6.024  12.118
 2055SOL    HW2 8005   3.814   6.047  12.093
 2056SOL     OW 8006   7.044   3.043  10.843
 2056SOL    HW1 8007   6.960   3.018  10.882
 2056SOL    HW2 8008   7.109   2.999  10.898
 2057SOL     OW 8009   8.769   1.785   2.946
 2057SOL    HW1 8010   8.683   1.772   2.907
 2057SOL    HW2 8011   8.827   1.729   2.895
 2058SOL     OW 8012   9.704  14.662   0.260
 2058SOL    HW1 8013   9.690  14.661   0.166
 2058SOL    HW2 8014   9.797  14.640   0.271
 2059SOL     OW 8015   6.883  12.194   3.621
 2059SOL    HW1 8016   6.963  12.171   3.574
 2059SOL    HW2 8017   6.860  12.114   3.669
 2060SOL     OW 8018  13.646  14.520  10.951
 2060SOL    HW1 8019  13.682  14.455  11.012
 2060SOL    HW2 8020  13.556  14.534  10.981
 2061SOL     OW 8021   3.247   6.173   5.993
 2061SOL    HW1 8022   3.234   6.131   6.078
 2061SOL    HW2 8023   3.160   6.176   5.953
 2062SOL     OW 8024  11.035  13.020  10.618
 2062SOL    HW1 8025  11.050  12.976  10.702
 2062SOL    HW2 8026  11.060  12.954  10.553
 2063SOL     OW 8027   2.597   6.457   1.458
 2063SOL    HW1 8028   2.626   6.505   1.536
 2063SOL    HW2 8029   2.675   6.450   1.403
 2064SOL     OW 8030  13.940   0.522   0.284
 2064SOL    HW1 8031  13.872   0.468   0.245
 2064SOL    HW2 8032  13.925   0.610   0.248
 2065SOL     OW 8033  14.225  12.439  11.845
 2065SOL    HW1 8034  14.136  12.404  11.839
 2065SOL    HW2 8035  14.279  12.362  11.865
 2066SOL     OW 8036   2.854   9.017  13.959
 2066SOL    HW1 8037   2.892   8.930  13.973
 2066SOL    HW2 8038   2.903   9.053  13.886
 2067SOL     OW 8039   7.094   6.008  10.563
 2067SOL    HW1 8040   7.100   5.978  10.472
 2067SOL    HW2 8041   7.064   6.098  10.556
 2068SOL     OW 8042   5.138  14.787   7.986
 2068SOL    HW1 8043   5.117  14.726   7.916
 2068SOL    HW2 8044   5.231  14.772   8.004
 2069SOL     OW 8045   8.745  10.741   6.453
 2069SOL    HW1 8046   8.712  10.652   6.471
 2069SOL    HW2 8047   8.687  10.774   6.383
 2070SOL     OW 8048   8.094   1.561  11.032
 2070SOL    HW1 8049   8.035   1.580  11.105
 2070SOL    HW2 8050   8.180   1.553  11.072
 2071SOL     OW 8051   1.481   9.740   0.630
 2071SOL    HW1 8052   1.502   9.728   0.722
 2071SOL    HW2 8053   1.388   9.717   0.623
 2072SOL     OW 8054  14.581   3.244  10.172
 2072SOL    HW1 8055  14.577   3.292  10.255
 2072SOL    HW2 8056  14.660   3.190  10.180
 2073SOL     OW 8057  11.629   8.394   1.081
 2073SOL    HW1 8058  11.641   8.432   0.994
 2073SOL    HW2 8059  11.548   8.433   1.114
 2074SOL     OW 8060  13.128   5.973  11.073
 2074SOL    HW1 8061  13.133   6.034  10.999
 2074SOL    HW2 8062  13.087   5.895  11.037
 2075SOL     OW 8063  14.115  14.687  14.871
 2075SOL    HW1 8064  14.155  14.600  14.873
 2075SOL    HW2 8065  14.182  14.743  14.831
 2076SOL     OW 8066   7.960   6.150   1.714
 2076SOL    HW1 8067   8.026   6.204   1.758
 2076SOL    HW2 8068   7.940   6.200   1.634
 2077SOL     OW 8069  13.702  13.511  10.139
 2077SOL    HW1 8070  13.749  13.452  10.079
 2077SOL    HW2 8071  13.750  13.593  10.133
 2078SOL     OW 8072  13.119   1.740   0.589
 2078SOL    HW1 8073  13.083   1.653   0.605
 2078SOL    HW2 8074  13.097   1.789   0.668
 2079SOL     OW 8075  13.352   6.990   7.524
 2079SOL    HW1 8076  13.407   7.039   7.585
 2079SOL    HW2 8077  13.291   6.942   7.580
 2080SOL     OW 8078   0.040  10.970   7.647
 2080SOL    HW1 8079   0.121  10.940   7.607
 2080SOL    HW2 8080  14.852  10.915   7.608
 2081SOL     OW 8081  14.554  11.554   6.382
 2081SOL    HW1 8082  14.512  11.493   6.320
 2081SOL    HW2 8083  14.616  11.603   6.328
 2082SOL     OW 8084   7.103  14.678  10.084
 2082SOL    HW1 8085   7.109  14.773  10.093
 2082SOL    HW2 8086   7.137  14.661   9.996
 2083SOL     OW 8087  12.343   3.679   8.871
 2083SOL    HW1 8088  12.249   3.684   8.853
 2083SOL    HW2 8089  12.354   3.598   8.921
 2084SOL     OW 8090  12.430   9.204   1.844
 2084SOL    HW1 8091  12.478   9.245   1.916
 2084SOL    HW2 8092  12.490   9.210   1.770
 2085SOL     OW 8093  13.533   0.915   7.088
 2085SOL    HW1 8094  13.558   0.897   7.179
 2085SOL    HW2 8095  13.454   0.968   7.095
 2086SOL     OW 8096   5.316  13.183  13.441
 2086SOL    HW1 8097   5.329  13.278  13.445
 2086SOL    HW2 8098   5.227  13.169  13.473
 2087SOL     OW 8099   8.585   5.549   4.863
 2087SOL    HW1 8100   8.628   5.513   4.785
 2087SOL    HW2 8101   8.610   5.490   4.934
 2088SOL     OW 8102   1.293  14.385  11.559
 2088SOL    HW1 8103   1.228  14.405  11.492
 2088SOL    HW2 8104   1.311  14.291  11.549
 2089SOL     OW 8105   4.445   6.000   1.532
 2089SOL    HW1 8106   4.410   6.068   1.589
 2089SOL    HW2 8107   4.375   5.982   1.470
 2090SOL     OW 8108  11.961  13.330  14.745
 2090SOL    HW1 8109  11.928  13.242  14.730
 2090SOL    HW2 8110  11.909  13.385  14.686
 2091SOL     OW 8111   6.252  13.560   7.222
 2091SOL    HW1 8112   6.164  13.559   7.184
 2091SOL    HW2 8113   6.310  13.538   7.150
 2092SOL     OW 8114  11.583  11.770   8.707
 2092SOL    HW1 8115  11.633  11.832   8.653
 2092SOL    HW2 8116  11.494  11.774   8.673
 2093SOL     OW 8117   8.146  11.678  10.757
 2093SOL    HW1 8118   8.173  11.615  10.824
 2093SOL    HW2 8119   8.053  11.660  10.744
 2094SOL     OW 8120   7.022  12.562   5.226
 2094SOL    HW1 8121   6.946  12.506   5.243
 2094SOL    HW2 8122   7.072  12.514   5.160
 2095SOL     OW 8123   3.512  10.885   4.143
 2095SOL    HW1 8124   3.573  10.957   4.126
 2095SOL    HW2 8125   3.532  10.820   4.075
 2096SOL     OW 8126   4.067   5.669   1.345
 2096SOL    HW1 8127   4.098   5.651   1.434
 2096SOL    HW2 8128   4.038   5.584   1.312
 2097SOL     OW 8129   2.273   6.898  12.227
 2097SOL    HW1 8130   2.293   6.990  12.239
 2097SOL    HW2 8131   2.178   6.893  12.229
 2098SOL     OW 8132  11.988  12.579   1.508
 2098SOL    HW1 8133  12.017  12.494   1.539
 2098SOL    HW2 8134  11.899  12.564   1.476
 2099SOL     OW 8135   6.190   4.695   6.677
 2099SOL    HW1 8136   6.245   4.756   6.628
 2099SOL    HW2 8137   6.216   4.608   6.646
 2100SOL     OW 8138  11.217   4.056   7.272
 2100SOL    HW1 8139  11.225   4.020   7.184
 2100SOL    HW2 8140  11.179   3.985   7.324
 2101SOL     OW 8141   8.403   8.729  10.231
 2101SOL    HW1 8142   8.481   8.687  10.194
 2101SOL    HW2 8143   8.341   8.731  10.157
 2102SOL     OW 8144   8.925   5.654  14.085
 2102SOL    HW1 8145   8.995   5.588  14.083
 2102SOL    HW2 8146   8.966   5.730  14.126
 2103SOL     OW 8147  10.298   0.534   1.156
 2103SOL    HW1 8148  10.263   0.593   1.223
 2103SOL    HW2 8149  10.240   0.457   1.159
 2104SOL     OW 8150  14.819   3.535   4.560
 2104SOL    HW1 8151  14.823   3.442   4.538
 2104SOL    HW2 8152  14.799   3.578   4.477
 2105SOL     OW 8153  10.175   4.949  11.555
 2105SOL    HW1 8154  10.106   4.884  11.572
 2105SOL    HW2 8155  10.236   4.938  11.627
 2106SOL     OW 8156   8.959   5.768   0.824
 2106SOL    HW1 8157   8.942   5.835   0.757
 2106SOL    HW2 8158   8.906   5.693   0.796
 2107SOL     OW 8159  10.539   9.184   2.020
 2107SOL    HW1 8160  10.517   9.130   1.944
 2107SOL    HW2 8161  10.490   9.266   2.007
 2108SOL     OW 8162   7.875   4.751   8.143
 2108SOL    HW1 8163   7.969   4.734   8.152
 2108SOL    HW2 8164   7.870   4.838   8.104
 2109SOL     OW 8165  13.763   2.359  13.449
 2109SOL    HW1 8166  13.698   2.420  13.413
 2109SOL    HW2 8167  13.838   2.413  13.472
 2110SOL     OW 8168   5.671  13.647   0.621
 2110SOL    HW1 8169   5.711  13.717   0.673
 2110SOL    HW2 8170   5.595  13.688   0.579
 2111SOL     OW 8171   9.029   2.373   0.520
 2111SOL    HW1 8172   9.109   2.365   0.572
 2111SOL    HW2 8173   8.958   2.361   0.584
 2112SOL     OW 8174   3.456   3.971   1.781
 2112SOL    HW1 8175   3.429   4.062   1.794
 2112SOL    HW2 8176   3.390   3.935   1.722
 2113SOL     OW 8177  11.739   5.024   4.718
 2113SOL    HW1 8178  11.740   4.978   4.634
 2113SOL    HW2 8179  11.662   4.991   4.763
 2114SOL     OW 8180  13.864   3.874   0.199
 2114SOL    HW1 8181  13.826   3.938   0.259
 2114SOL    HW2 8182  13.801   3.869   0.127
 2115SOL     OW 8183   2.735  13.861   3.409
 2115SOL    HW1 8184   2.695  13.937   3.451
 2115SOL    HW2 8185   2.674  13.789   3.425
 2116SOL     OW 8186  11.937   5.200   6.965
 2116SOL    HW1 8187  11.933   5.268   7.032
 2116SOL    HW2 8188  11.885   5.128   7.001
 2117SOL     OW 8189   5.797  14.477   7.751
 2117SOL    HW1 8190   5.814  14.522   7.669
 2117SOL    HW2 8191   5.873  14.497   7.805
 2118SOL     OW 8192   5.620  14.451   0.103
 2118SOL    HW1 8193   5.601  14.358   0.114
 2118SOL    HW2 8194   5.550  14.483   0.046
 2119SOL     OW 8195   7.627   9.215   1.467
 2119SOL    HW1 8196   7.702   9.232   1.523
 2119SOL    HW2 8197   7.655   9.143   1.410
 2120SOL     OW 8198  11.785  11.761   6.375
 2120SOL    HW1 8199  11.717  11.822   6.402
 2120SOL    HW2 8200  11.814  11.793   6.289
 2121SOL     OW 8201  14.592   4.702  13.509
 2121SOL    HW1 8202  14.633   4.787  13.495
 2121SOL    HW2 8203  14.598   4.687  13.604
 2122SOL     OW 8204   6.703   5.469   7.505
 2122SOL    HW1 8205   6.716   5.376   7.526
 2122SOL    HW2 8206   6.682   5.510   7.589
 2123SOL     OW 8207  12.937  14.688   9.958
 2123SOL    HW1 8208  13.017  14.722   9.919
 2123SOL    HW2 8209  12.883  14.765   9.976
 2124SOL     OW 8210  10.911  13.266   5.294
 2124SOL    HW1 8211  10.819  13.271   5.321
 2124SOL    HW2 8212  10.943  13.184   5.331
 2125SOL     OW 8213   4.977   3.511   2.939
 2125SOL    HW1 8214   4.944   3.601   2.926
 2125SOL    HW2 8215   4.898   3.460   2.958
 2126SOL     OW 8216   5.360   3.670   4.361
 2126SOL    HW1 8217   5.347   3.628   4.276
 2126SOL    HW2 8218   5.287   3.731   4.369
 2127SOL     OW 8219  13.021  13.145   1.900
 2127SOL    HW1 8220  13.087  13.095   1.948
 2127SOL    HW2 8221  13.023  13.232   1.940
 2128SOL     OW 8222   3.258  12.335   2.604
 2128SOL    HW1 8223   3.347  12.359   2.578
 2128SOL    HW2 8224   3.263  12.327   2.699
 2129SOL     OW 8225  11.437   9.070   2.211
 2129SOL    HW1 8226  11.533   9.077   2.207
 2129SOL    HW2 8227  11.420   8.976   2.206
 2130SOL     OW 8228  11.024   6.808   5.931
 2130SOL    HW1 8229  11.021   6.759   6.014
 2130SOL    HW2 8230  11.030   6.740   5.864
 2131SOL     OW 8231  10.908  13.574   5.212
 2131SOL    HW1 8232  10.908  13.485   5.249
 2131SOL    HW2 8233  10.962  13.567   5.134
 2132SOL     OW 8234   1.170   7.808  12.108
 2132SOL    HW1 8235   1.115   7.753  12.052
 2132SOL    HW2 8236   1.236   7.843  12.048
 2133SOL     OW 8237   7.415   7.684   5.635
 2133SOL    HW1 8238   7.450   7.756   5.688
 2133SOL    HW2 8239   7.493   7.635   5.608
 2134SOL     OW 8240   0.951   9.566  11.437
 2134SOL    HW1 8241   1.027   9.585  11.492
 2134SOL    HW2 8242   0.951   9.471  11.429
 2135SOL     OW 8243  11.849  13.007   2.177
 2135SOL    HW1 8244  11.915  13.059   2.225
 2135SOL    HW2 8245  11.774  13.066   2.170
 2136SOL     OW 8246  14.622  14.228   8.828
 2136SOL    HW1 8247  14.608  14.255   8.919
 2136SOL    HW2 8248  14.690  14.161   8.834
 2137SOL     OW 8249   3.107  10.110   8.878
 2137SOL    HW1 8250   3.128  10.032   8.826
 2137SOL    HW2 8251   3.048  10.078   8.947
 2138SOL     OW 8252   5.927  12.638   7.210
 2138SOL    HW1 8253   6.001  12.584   7.238
 2138SOL    HW2 8254   5.890  12.591   7.135
 2139SOL     OW 8255   0.338   9.199  13.909
 2139SOL    HW1 8256   0.304   9.270  13.963
 2139SOL    HW2 8257   0.281   9.125  13.928
 2140SOL     OW 8258   1.412   7.796   1.318
 2140SOL    HW1 8259   1.458   7.864   1.268
 2140SOL    HW2 8260   1.320   7.822   1.314
 2141SOL     OW 8261   7.213   5.669  13.612
 2141SOL    HW1 8262   7.178   5.751  13.576
 2141SOL    HW2 8263   7.286   5.696  13.668
 2142SOL     OW 8264  14.246  13.199   3.022
 2142SOL    HW1 8265  14.277  13.159   2.941
 2142SOL    HW2 8266  14.324  13.242   3.059
 2143SOL     OW 8267  10.640   9.281   8.736
 2143SOL    HW1 8268  10.617   9.374   8.741
 2143SOL    HW2 8269  10.566   9.235   8.775
 2144SOL     OW 8270   5.707   2.948   9.339
 2144SOL    HW1 8271   5.692   3.001   9.261
 2144SOL    HW2 8272   5.734   3.012   9.406
 2145SOL     OW 8273   7.520  13.191   9.333
 2145SOL    HW1 8274   7.532  13.132   9.259
 2145SOL    HW2 8275   7.434  13.169   9.368
 2146SOL     OW 8276  10.284  10.788   8.855
 2146SOL    HW1 8277  10.333  10.722   8.806
 2146SOL    HW2 8278  10.193  10.774   8.830
 2147SOL     OW 8279   7.555  10.640   3.227
 2147SOL    HW1 8280   7.564  10.690   3.146
 2147SOL    HW2 8281   7.639  10.651   3.272
 2148SOL     OW 8282   7.473   6.520  11.927
 2148SOL    HW1 8283   7.392   6.519  11.978
 2148SOL    HW2 8284   7.541   6.538  11.992
 2149SOL     OW 8285  12.367   0.904   0.089
 2149SOL    HW1 8286  12.416   0.971   0.041
 2149SOL    HW2 8287  12.281   0.943   0.103
 2150SOL     OW 8288   4.573   4.267   8.944
 2150SOL    HW1 8289   4.555   4.174   8.957
 2150SOL    HW2 8290   4.528   4.310   9.017
 2151SOL     OW 8291   3.901   9.449   0.690
 2151SOL    HW1 8292   3.823   9.430   0.741
 2151SOL    HW2 8293   3.964   9.482   0.753
 2152SOL     OW 8294  11.345   3.852  12.236
 2152SOL    HW1 8295  11.275   3.907  12.203
 2152SOL    HW2 8296  11.361   3.885  12.325
 2153SOL     OW 8297  10.238  13.687   8.772
 2153SOL    HW1 8298  10.180  13.740   8.826
 2153SOL    HW2 8299  10.181  13.622   8.731
 2154SOL     OW 8300   4.757  14.039   1.536
 2154SOL    HW1 8301   4.765  14.115   1.593
 2154SOL    HW2 8302   4.828  13.980   1.564
 2155SOL     OW 8303   9.213   6.875   3.105
 2155SOL    HW1 8304   9.269   6.926   3.165
 2155SOL    HW2 8305   9.126   6.913   3.116
 2156SOL     OW 8306   0.041  10.932   1.242
 2156SOL    HW1 8307  14.849  10.897   1.294
 2156SOL    HW2 8308   0.120  10.898   1.284
 2157SOL     OW 8309   5.836   7.455   1.721
 2157SOL    HW1 8310   5.922   7.476   1.686
 2157SOL    HW2 8311   5.854   7.408   1.803
 2158SOL     OW 8312   1.653  12.374   9.723
 2158SOL    HW1 8313   1.625  12.406   9.809
 2158SOL    HW2 8314   1.742  12.342   9.737
 2159SOL     OW 8315   7.520  11.718   4.567
 2159SOL    HW1 8316   7.502  11.812   4.569
 2159SOL    HW2 8317   7.523  11.695   4.474
 2160SOL     OW 8318   2.713   4.608  13.871
 2160SOL    HW1 8319   2.730   4.606  13.777
 2160SOL    HW2 8320   2.739   4.696  13.898
 2161SOL     OW 8321  13.379   0.027   1.027
 2161SOL    HW1 8322  13.376  14.818   0.993
 2161SOL    HW2 8323  13.451   0.069   0.980
 2162SOL     OW 8324  10.794   4.569   1.708
 2162SOL    HW1 8325  10.789   4.477   1.683
 2162SOL    HW2 8326  10.845   4.569   1.790
 2163SOL     OW 8327   5.592  11.131   8.989
 2163SOL    HW1 8328   5.645  11.127   8.909
 2163SOL    HW2 8329   5.638  11.076   9.052
 2164SOL     OW 8330   8.314   6.599  13.552
 2164SOL    HW1 8331   8.379   6.600  13.622
 2164SOL    HW2 8332   8.311   6.689  13.519
 2165SOL     OW 8333  10.749  11.341   2.586
 2165SOL    HW1 8334  10.790  11.327   2.671
 2165SOL    HW2 8335  10.822  11.344   2.524
 2166SOL     OW 8336  13.304   6.015  10.590
 2166SOL    HW1 8337  13.333   5.926  10.609
 2166SOL    HW2 8338  13.306   6.060  10.674
 2167SOL     OW 8339  12.416   5.892   9.081
 2167SOL    HW1 8340  12.471   5.815   9.064
 2167SOL    HW2 8341  12.426   5.909   9.174
 2168SOL     OW 8342   8.794   5.238   8.508
 2168SOL    HW1 8343   8.870   5.285   8.473
 2168SOL    HW2 8344   8.778   5.168   8.445
 2169SOL     OW 8345   1.584  12.182   8.887
 2169SOL    HW1 8346   1.566  12.105   8.940
 2169SOL    HW2 8347   1.604  12.147   8.800
 2170SOL     OW 8348  13.679   0.811   3.170
 2170SOL    HW1 8349  13.620   0.812   3.246
 2170SOL    HW2 8350  13.723   0.896   3.173
 2171SOL     OW 8351  11.730   5.885   7.259
 2171SOL    HW1 8352  11.736   5.979   7.242
 2171SOL    HW2 8353  11.661   5.854   7.200
 2172SOL     OW 8354   8.702   5.431  13.441
 2172SOL    HW1 8355   8.658   5.516  13.435
 2172SOL    HW2 8356   8.795   5.453  13.450
 2173SOL     OW 8357  14.488   6.595   1.018
 2173SOL    HW1 8358  14.450   6.681   1.032
 2173SOL    HW2 8359  14.425   6.550   0.962
 2174SOL     OW 8360   3.036  10.839   7.925
 2174SOL    HW1 8361   3.095  10.859   7.999
 2174SOL    HW2 8362   2.971  10.780   7.962
 2175SOL     OW 8363   1.325   4.199   6.975
 2175SOL    HW1 8364   1.402   4.238   7.016
 2175SOL    HW2 8365   1.309   4.252   6.897
 2176SOL     OW 8366   0.285   4.829  12.029
 2176SOL    HW1 8367   0.315   4.797  11.944
 2176SOL    HW2 8368   0.190   4.836  12.020
 2177SOL     OW 8369  11.825   6.016  14.515
 2177SOL    HW1 8370  11.802   6.077  14.445
 2177SOL    HW2 8371  11.754   5.951  14.515
 2178SOL     OW 8372   4.211   4.528   5.811
 2178SOL    HW1 8373   4.161   4.548   5.732
 2178SOL    HW2 8374   4.199   4.605   5.867
 2179SOL     OW 8375   4.367   9.176   6.590
 2179SOL    HW1 8376   4.411   9.260   6.604
 2179SOL    HW2 8377   4.287   9.198   6.542
 2180SOL     OW 8378  11.143  10.320   6.668
 2180SOL    HW1 8379  11.161  10.377   6.744
 2180SOL    HW2 8380  11.175  10.370   6.593
 2181SOL     OW 8381   2.133   7.604   3.159
 2181SOL    HW1 8382   2.045   7.617   3.196
 2181SOL    HW2 8383   2.186   7.674   3.197
 2182SOL     OW 8384   7.051   6.979  11.649
 2182SOL    HW1 8385   7.062   6.985  11.744
 2182SOL    HW2 8386   6.963   6.942  11.638
 2183SOL     OW 8387   1.285  11.558  10.692
 2183SOL    HW1 8388   1.378  11.539  10.704
 2183SOL    HW2 8389   1.273  11.644  10.733
 2184SOL     OW 8390  13.198   9.872   8.507
 2184SOL    HW1 8391  13.249   9.944   8.471
 2184SOL    HW2 8392  13.263   9.812   8.543
 2185SOL     OW 8393   9.369  14.851  14.378
 2185SOL    HW1 8394   9.376  14.758  14.356
 2185SOL    HW2 8395   9.339  14.852  14.469
 2186SOL     OW 8396  11.248  12.862   9.898
 2186SOL    HW1 8397  11.267  12.917   9.974
 2186SOL    HW2 8398  11.159  12.887   9.872
 2187SOL     OW 8399   3.107   6.433   1.182
 2187SOL    HW1 8400   3.141   6.345   1.198
 2187SOL    HW2 8401   3.021   6.420   1.142
 2188SOL     OW 8402   6.909  11.388  12.517
 2188SOL    HW1 8403   6.948  11.301  12.513
 2188SOL    HW2 8404   6.893  11.403  12.611
 2189SOL     OW 8405   5.308   5.111   5.985
 2189SOL    HW1 8406   5.399   5.132   6.007
 2189SOL    HW2 8407   5.293   5.155   5.901
 2190SOL     OW 8408   5.808  11.153   2.257
 2190SOL    HW1 8409   5.882  11.192   2.211
 2190SOL    HW2 8410   5.820  11.180   2.348
 2191SOL     OW 8411  13.320  12.779   2.097
 2191SOL    HW1 8412  13.414  12.785   2.077
 2191SOL    HW2 8413  13.310  12.696   2.142
 2192SOL     OW 8414   8.635  12.409   1.376
 2192SOL    HW1 8415   8.730  12.410   1.388
 2192SOL    HW2 8416   8.615  12.318   1.356
 2193SOL     OW 8417   5.666  12.725  12.040
 2193SOL    HW1 8418   5.629  12.783  11.974
 2193SOL    HW2 8419   5.598  12.659  12.054
 2194SOL     OW 8420  14.005   0.573  11.519
 2194SOL    HW1 8421  14.099   0.559  11.510
 2194SOL    HW2 8422  13.996   0.660  11.557
 2195SOL     OW 8423   9.238  14.292   3.870
 2195SOL    HW1 8424   9.331  14.291   3.850
 2195SOL    HW2 8425   9.213  14.200   3.875
 2196SOL     OW 8426   2.145   6.605   3.611
 2196SOL    HW1 8427   2.161   6.689   3.568
 2196SOL    HW2 8428   2.110   6.629   3.697
 2197SOL     OW 8429   1.497   4.448   1.579
 2197SOL    HW1 8430   1.470   4.450   1.671
 2197SOL    HW2 8431   1.591   4.433   1.582
 2198SOL     OW 8432   5.878   7.225   7.738
 2198SOL    HW1 8433   5.967   7.214   7.773
 2198SOL    HW2 8434   5.862   7.146   7.687
 2199SOL     OW 8435   4.891   2.135  10.375
 2199SOL    HW1 8436   4.953   2.175  10.314
 2199SOL    HW2 8437   4.926   2.156  10.461
 2200SOL     OW 8438   9.226  11.584  14.263
 2200SOL    HW1 8439   9.168  11.524  14.216
 2200SOL    HW2 8440   9.172  11.621  14.333
 2201SOL     OW 8441   0.057   5.538   1.748
 2201SOL    HW1 8442   0.091   5.560   1.835
 2201SOL    HW2 8443   0.007   5.615   1.721
 2202SOL     OW 8444  11.194  13.192   1.288
 2202SOL    HW1 8445  11.235  13.241   1.217
 2202SOL    HW2 8446  11.178  13.105   1.252
 2203SOL     OW 8447  10.896   8.421  11.801
 2203SOL    HW1 8448  10.845   8.392  11.725
 2203SOL    HW2 8449  10.987   8.415  11.772
 2204SOL     OW 8450  11.911   4.884   3.329
 2204SOL    HW1 8451  11.818   4.902   3.312
 2204SOL    HW2 8452  11.957   4.937   3.264
 2205SOL     OW 8453   3.711   7.664  14.745
 2205SOL    HW1 8454   3.704   7.689  14.652
 2205SOL    HW2 8455   3.772   7.591  14.745
 2206SOL     OW 8456   8.014   3.913   8.256
 2206SOL    HW1 8457   8.025   3.948   8.168
 2206SOL    HW2 8458   8.092   3.943   8.303
 2207SOL     OW 8459   8.293  11.093  11.435
 2207SOL    HW1 8460   8.237  11.036  11.487
 2207SOL    HW2 8461   8.271  11.181  11.464
 2208SOL     OW 8462   0.403   5.162   6.586
 2208SOL    HW1 8463   0.357   5.078   6.579
 2208SOL    HW2 8464   0.487   5.146   6.542
 2209SOL     OW 8465   6.612  13.672   0.383
 2209SOL    HW1 8466   6.586  13.732   0.453
 2209SOL    HW2 8467   6.694  13.707   0.350
 2210SOL     OW 8468  12.121  12.998   1.498
 2210SOL    HW1 8469  12.170  13.020   1.577
 2210SOL    HW2 8470  12.122  12.903   1.494
 2211SOL     OW 8471   3.228   2.763   5.129
 2211SOL    HW1 8472   3.183   2.803   5.203
 2211SOL    HW2 8473   3.198   2.672   5.129
 2212SOL     OW 8474   6.995  13.392   6.712
 2212SOL    HW1 8475   7.034  13.406   6.625
 2212SOL    HW2 8476   7.038  13.313   6.745
 2213SOL     OW 8477  10.255   7.345   6.312
 2213SOL    HW1 8478  10.259   7.432   6.353
 2213SOL    HW2 8479  10.190   7.298   6.362
 2214SOL     OW 8480   0.025  10.842   0.146
 2214SOL    HW1 8481   0.097  10.832   0.209
 2214SOL    HW2 8482  14.876  10.932   0.157
 2215SOL     OW 8483  11.349  10.669   7.606
 2215SOL    HW1 8484  11.262  10.656   7.569
 2215SOL    HW2 8485  11.404  10.606   7.559
 2216SOL     OW 8486   7.726   4.735   9.426
 2216SOL    HW1 8487   7.642   4.752   9.468
 2216SOL    HW2 8488   7.729   4.795   9.351
 2217SOL     OW 8489  13.814  12.045   4.625
 2217SOL    HW1 8490  13.860  12.050   4.709
 2217SOL    HW2 8491  13.866  11.984   4.573
 2218SOL     OW 8492  10.418   7.936   4.142
 2218SOL    HW1 8493  10.378   7.939   4.228
 2218SOL    HW2 8494  10.506   7.970   4.155
 2219SOL     OW 8495   7.201   4.374  12.043
 2219SOL    HW1 8496   7.295   4.371  12.059
 2219SOL    HW2 8497   7.193   4.411  11.955
 2220SOL     OW 8498  13.444  13.716  11.778
 2220SOL    HW1 8499  13.398  13.781  11.725
 2220SOL    HW2 8500  13.481  13.765  11.851
 2221SOL     OW 8501  12.094   0.262   4.057
 2221SOL    HW1 8502  12.124   0.178   4.091
 2221SOL    HW2 8503  12.154   0.282   3.985
 2222SOL     OW 8504   5.549   2.729  13.829
 2222SOL    HW1 8505   5.495   2.804  13.804
 2222SOL    HW2 8506   5.539   2.723  13.924
 2223SOL     OW 8507  14.183   6.244   5.107
 2223SOL    HW1 8508  14.154   6.170   5.160
 2223SOL    HW2 8509  14.189   6.209   5.018
 2224SOL     OW 8510   2.969   7.354   9.097
 2224SOL    HW1 8511   2.888   7.379   9.142
 2224SOL    HW2 8512   2.983   7.263   9.122
 2225SOL     OW 8513   9.018  11.201  14.063
 2225SOL    HW1 8514   8.952  11.254  14.108
 2225SOL    HW2 8515   8.970  11.128  14.025
 2226SOL     OW 8516  13.277   2.317  11.136
 2226SOL    HW1 8517  13.238   2.275  11.059
 2226SOL    HW2 8518  13.265   2.253  11.207
 2227SOL     OW 8519   5.195   6.972   3.853
 2227SOL    HW1 8520   5.138   6.910   3.808
 2227SOL    HW2 8521   5.230   6.924   3.927
 2228SOL     OW 8522  10.394   4.337   1.244
 2228SOL    HW1 8523  10.414   4.337   1.338
 2228SOL    HW2 8524  10.325   4.403   1.235
 2229SOL     OW 8525   7.081  12.285  11.111
 2229SOL    HW1 8526   6.995  12.288  11.068
 2229SOL    HW2 8527   7.126  12.364  11.081
 2230SOL     OW 8528   7.614   6.053   6.471
 2230SOL    HW1 8529   7.544   6.019   6.416
 2230SOL    HW2 8530   7.569   6.104   6.538
 2231SOL     OW 8531   0.437  13.301   3.898
 2231SOL    HW1 8532   0.378  13.371   3.872
 2231SOL    HW2 8533   0.426  13.234   3.831
 2232SOL     OW 8534   8.933   2.968  13.317
 2232SOL    HW1 8535   9.015   2.989  13.273
 2232SOL    HW2 8536   8.941   2.876  13.340
 2233SOL     OW 8537   5.349   1.478   2.753
 2233SOL    HW1 8538   5.355   1.480   2.658
 2233SOL    HW2 8539   5.440   1.474   2.783
 2234SOL     OW 8540   0.316   4.511  12.095
 2234SOL    HW1 8541   0.288   4.541  12.009
 2234SOL    HW2 8542   0.236   4.481  12.138
 2235SOL     OW 8543   6.486  13.537   7.386
 2235SOL    HW1 8544   6.437  13.541   7.469
 2235SOL    HW2 8545   6.419  13.526   7.319
 2236SOL     OW 8546   3.155   8.549   5.303
 2236SOL    HW1 8547   3.155   8.454   5.287
 2236SOL    HW2 8548   3.213   8.560   5.378
 2237SOL     OW 8549   3.547  12.736  10.983
 2237SOL    HW1 8550   3.559  12.830  10.971
 2237SOL    HW2 8551   3.478  12.728  11.049
 2238SOL     OW 8552   4.212   2.037  13.518
 2238SOL    HW1 8553   4.183   2.127  13.498
 2238SOL    HW2 8554   4.194   1.989  13.437
 2239SOL     OW 8555  11.136   4.537  12.986
 2239SOL    HW1 8556  11.147   4.474  12.916
 2239SOL    HW2 8557  11.175   4.495  13.063
 2240SOL     OW 8558   4.942  12.693   0.343
 2240SOL    HW1 8559   5.009  12.628   0.322
 2240SOL    HW2 8560   4.859  12.647   0.333
 2241SOL     OW 8561  12.339   9.853   2.801
 2241SOL    HW1 8562  12.261   9.820   2.845
 2241SOL    HW2 8563  12.323   9.946   2.789
 2242SOL     OW 8564   6.225  11.896   7.088
 2242SOL    HW1 8565   6.189  11.810   7.105
 2242SOL    HW2 8566   6.319  11.886   7.103
 2243SOL     OW 8567   0.240  13.081   3.703
 2243SOL    HW1 8568   0.310  13.131   3.661
 2243SOL    HW2 8569   0.285  13.031   3.772
 2244SOL     OW 8570   1.054  13.749  13.356
 2244SOL    HW1 8571   1.087  13.672  13.404
 2244SOL    HW2 8572   1.057  13.820  13.420
 2245SOL     OW 8573  13.324  10.245   7.596
 2245SOL    HW1 8574  13.245  10.191   7.594
 2245SOL    HW2 8575  13.347  10.251   7.688
 2246SOL     OW 8576  11.184   9.454   0.049
 2246SOL    HW1 8577  11.109   9.402   0.078
 2246SOL    HW2 8578  11.145   9.529   0.004
 2247SOL     OW 8579   8.498   4.707   7.191
 2247SOL    HW1 8580   8.552   4.734   7.266
 2247SOL    HW2 8581   8.511   4.777   7.127
 2248SOL     OW 8582   3.974   4.189   8.048
 2248SOL    HW1 8583   4.063   4.220   8.065
 2248SOL    HW2 8584   3.974   4.098   8.076
 2249SOL     OW 8585  13.171   5.485  11.401
 2249SOL    HW1 8586  13.077   5.470  11.404
 2249SOL    HW2 8587  13.201   5.466  11.490
 2250SOL     OW 8588   7.372   3.342   7.558
 2250SOL    HW1 8589   7.362   3.247   7.551
 2250SOL    HW2 8590   7.465   3.358   7.540
 2251SOL     OW 8591   5.255   5.543   4.712
 2251SOL    HW1 8592   5.256   5.612   4.646
 2251SOL    HW2 8593   5.162   5.527   4.729
 2252SOL     OW 8594   1.431  11.792   8.760
 2252SOL    HW1 8595   1.439  11.863   8.824
 2252SOL    HW2 8596   1.445  11.835   8.676
 2253SOL     OW 8597   0.848   9.584   5.483
 2253SOL    HW1 8598   0.900   9.650   5.530
 2253SOL    HW2 8599   0.810   9.632   5.409
 2254SOL     OW 8600   4.348   2.557   4.777
 2254SOL    HW1 8601   4.280   2.531   4.715
 2254SOL    HW2 8602   4.313   2.532   4.862
 2255SOL     OW 8603  13.810  14.483   2.516
 2255SOL    HW1 8604  13.879  14.495   2.582
 2255SOL    HW2 8605  13.824  14.555   2.454
 2256SOL     OW 8606   4.940   2.318  10.607
 2256SOL    HW1 8607   4.882   2.280  10.672
 2256SOL    HW2 8608   4.889   2.387  10.566
 2257SOL     OW 8609   1.950   3.057   2.489
 2257SOL    HW1 8610   1.991   3.080   2.406
 2257SOL    HW2 8611   1.861   3.031   2.466
 2258SOL     OW 8612   7.751  12.792   1.893
 2258SOL    HW1 8613   7.732  12.752   1.978
 2258SOL    HW2 8614   7.669  12.832   1.866
 2259SOL     OW 8615  10.326   3.050  10.753
 2259SOL    HW1 8616  10.313   3.145  10.763
 2259SOL    HW2 8617  10.413   3.034  10.791
 2260SOL     OW 8618   5.596  14.173   8.083
 2260SOL    HW1 8619   5.538  14.101   8.055
 2260SOL    HW2 8620   5.553  14.209   8.161
 2261SOL     OW 8621  11.059  14.070   0.531
 2261SOL    HW1 8622  10.999  14.134   0.493
 2261SOL    HW2 8623  11.008  13.989   0.536
 2262SOL     OW 8624   5.805   6.963   4.160
 2262SOL    HW1 8625   5.898   6.978   4.143
 2262SOL    HW2 8626   5.800   6.947   4.254
 2263SOL     OW 8627  13.357   8.373  13.317
 2263SOL    HW1 8628  13.265   8.375  13.344
 2263SOL    HW2 8629  13.358   8.415  13.231
 2264SOL     OW 8630   4.070   8.577  12.584
 2264SOL    HW1 8631   3.988   8.620  12.606
 2264SOL    HW2 8632   4.064   8.491  12.624
 2265SOL     OW 8633   3.473   5.308  12.176
 2265SOL    HW1 8634   3.480   5.309  12.272
 2265SOL    HW2 8635   3.417   5.383  12.156
 2266SOL     OW 8636   0.722   1.174  13.338
 2266SOL    HW1 8637   0.711   1.269  13.331
 2266SOL    HW2 8638   0.749   1.146  13.251
 2267SOL     OW 8639   0.155   8.409   3.389
 2267SOL    HW1 8640   0.172   8.495   3.426
 2267SOL    HW2 8641   0.144   8.352   3.465
 2268SOL     OW 8642   1.486   2.259   2.665
 2268SOL    HW1 8643   1.465   2.265   2.758
 2268SOL    HW2 8644   1.402   2.266   2.621
 2269SOL     OW 8645   8.347   4.404   3.081
 2269SOL    HW1 8646   8.295   4.335   3.040
 2269SOL    HW2 8647   8.416   4.423   3.017
 2270SOL     OW 8648  14.185   9.971   8.909
 2270SOL    HW1 8649  14.100  10.008   8.935
 2270SOL    HW2 8650  14.248  10.039   8.930
 2271SOL     OW 8651   2.369  11.465  10.804
 2271SOL    HW1 8652   2.305  11.395  10.790
 2271SOL    HW2 8653   2.335  11.539  10.754
 2272SOL     OW 8654   9.659   7.931   9.962
 2272SOL    HW1 8655   9.577   7.979   9.971
 2272SOL    HW2 8656   9.723   7.982  10.013
 2273SOL     OW 8657   9.500  13.071  11.409
 2273SOL    HW1 8658   9.517  13.006  11.477
 2273SOL    HW2 8659   9.404  13.075  11.404
 2274SOL     OW 8660   9.795   3.872   9.559
 2274SOL    HW1 8661   9.794   3.903   9.468
 2274SOL    HW2 8662   9.873   3.913   9.596
 2275SOL     OW 8663  13.595  11.104   2.776
 2275SOL    HW1 8664  13.569  11.186   2.733
 2275SOL    HW2 8665  13.629  11.050   2.705
 2276SOL     OW 8666   5.370  14.152   0.471
 2276SOL    HW1 8667   5.344  14.239   0.500
 2276SOL    HW2 8668   5.466  14.155   0.468
 2277SOL     OW 8669   3.160   2.036   1.231
 2277SOL    HW1 8670   3.186   2.000   1.146
 2277SOL    HW2 8671   3.242   2.055   1.276
 2278SOL     OW 8672   7.387  14.529   6.834
 2278SOL    HW1 8673   7.480  14.547   6.849
 2278SOL    HW2 8674   7.386  14.441   6.797
 2279SOL     OW 8675   7.564   3.760  12.983
 2279SOL    HW1 8676   7.539   3.847  12.952
 2279SOL    HW2 8677   7.497   3.702  12.947
 2280SOL     OW 8678  11.368   6.158  10.505
 2280SOL    HW1 8679  11.351   6.081  10.451
 2280SOL    HW2 8680  11.295   6.161  10.567
 2281SOL     OW 8681  12.351   7.654   8.405
 2281SOL    HW1 8682  12.269   7.701   8.422
 2281SOL    HW2 8683  12.326   7.562   8.402
 2282SOL     OW 8684   9.940  12.316   8.309
 2282SOL    HW1 8685   9.896  12.337   8.227
 2282SOL    HW2 8686   9.960  12.222   8.302
 2283SOL     OW 8687   8.944  13.258  12.321
 2283SOL    HW1 8688   8.868  13.203  12.340
 2283SOL    HW2 8689   8.990  13.213  12.250
 2284SOL     OW 8690  11.399  11.031   3.053
 2284SOL    HW1 8691  11.396  11.117   3.011
 2284SOL    HW2 8692  11.333  11.035   3.122
 2285SOL     OW 8693  11.655  12.176  12.258
 2285SOL    HW1 8694  11.716  12.240  12.294
 2285SOL    HW2 8695  11.575  12.187  12.311
 2286SOL     OW 8696  14.845  14.124  10.329
 2286SOL    HW1 8697  14.873  14.037  10.302
 2286SOL    HW2 8698   0.012  14.183  10.270
 2287SOL     OW 8699   1.926   7.684   9.163
 2287SOL    HW1 8700   1.922   7.594   9.130
 2287SOL    HW2 8701   1.909   7.739   9.086
 2288SOL     OW 8702  13.832  13.946   7.658
 2288SOL    HW1 8703  13.926  13.936   7.669
 2288SOL    HW2 8704  13.821  13.978   7.569
 2289SOL     OW 8705   6.232  11.778   0.142
 2289SOL    HW1 8706   6.176  11.709   0.105
 2289SOL    HW2 8707   6.284  11.733   0.208
 2290SOL     OW 8708   8.674   1.632  12.476
 2290SOL    HW1 8709   8.759   1.667  12.500
 2290SOL    HW2 8710   8.688   1.590  12.391
 2291SOL     OW 8711   6.886   7.544   4.030
 2291SOL    HW1 8712   6.889   7.638   4.047
 2291SOL    HW2 8713   6.886   7.537   3.934
 2292SOL     OW 8714  14.647  10.148  12.238
 2292SOL    HW1 8715  14.595  10.072  12.266
 2292SOL    HW2 8716  14.726  10.111  12.200
 2293SOL     OW 8717   9.859  14.264  11.180
 2293SOL    HW1 8718   9.867  14.352  11.142
 2293SOL    HW2 8719   9.813  14.279  11.263
 2294SOL     OW 8720  12.602   6.724  11.044
 2294SOL    HW1 8721  12.532   6.786  11.024
 2294SOL    HW2 8722  12.674   6.749  10.986
 2295SOL     OW 8723  14.142   5.972   5.122
 2295SOL    HW1 8724  14.196   5.899   5.150
 2295SOL    HW2 8725  14.173   5.993   5.034
 2296SOL     OW 8726   7.963   6.158   0.668
 2296SOL    HW1 8727   7.957   6.077   0.718
 2296SOL    HW2 8728   8.055   6.182   0.672
 2297SOL     OW 8729   5.412   1.119   3.068
 2297SOL    HW1 8730   5.469   1.063   3.120
 2297SOL    HW2 8731   5.459   1.131   2.985
 2298SOL     OW 8732  13.058  13.119   6.681
 2298SOL    HW1 8733  13.085  13.065   6.607
 2298SOL    HW2 8734  13.061  13.060   6.756
 2299SOL     OW 8735  13.450  12.441   2.021
 2299SOL    HW1 8736  13.494  12.497   1.957
 2299SOL    HW2 8737  13.359  12.473   2.022
 2300SOL     OW 8738   0.297   7.061  14.164
 2300SOL    HW1 8739   0.224   7.119  14.183
 2300SOL    HW2 8740   0.370   7.120  14.146
 2301SOL     OW 8741  11.451   4.531   3.856
 2301SOL    HW1 8742  11.366   4.571   3.871
 2301SOL    HW2 8743  11.459   4.465   3.926
 2302SOL     OW 8744  10.211   8.590  11.683
 2302SOL    HW1 8745  10.135   8.645  11.665
 2302SOL    HW2 8746  10.221   8.537  11.605
 2303SOL     OW 8747  11.245   1.792   4.990
 2303SOL    HW1 8748  11.183   1.861   5.014
 2303SOL    HW2 8749  11.265   1.810   4.898
 2304SOL     OW 8750   3.093  11.233  11.562
 2304SOL    HW1 8751   3.124  11.288  11.490
 2304SOL    HW2 8752   3.157  11.163  11.568
 2305SOL     OW 8753  11.887   0.155  11.758
 2305SOL    HW1 8754  11.927   0.149  11.845
 2305SOL    HW2 8755  11.958   0.181  11.700
 2306SOL     OW 8756   3.115  11.793   6.007
 2306SOL    HW1 8757   3.116  11.786   6.102
 2306SOL    HW2 8758   3.048  11.858   5.989
 2307SOL     OW 8759   9.571   8.906   3.097
 2307SOL    HW1 8760   9.484   8.874   3.074
 2307SOL    HW2 8761   9.604   8.945   3.016
 2308SOL     OW 8762   0.457   4.101  11.624
 2308SOL    HW1 8763   0.441   4.154  11.702
 2308SOL    HW2 8764   0.528   4.042  11.648
 2309SOL     OW 8765   9.006  11.498  10.259
 2309SOL    HW1 8766   8.965  11.419  10.225
 2309SOL    HW2 8767   8.951  11.523  10.334
 2310SOL     OW 8768  13.877   4.939   5.053
 2310SOL    HW1 8769  13.878   4.958   5.147
 2310SOL    HW2 8770  13.927   4.858   5.044
 2311SOL     OW 8771  13.584  10.986   0.631
 2311SOL    HW1 8772  13.591  11.058   0.695
 2311SOL    HW2 8773  13.491  10.963   0.631
 2312SOL     OW 8774   9.650  12.010   4.906
 2312SOL    HW1 8775   9.575  11.951   4.909
 2312SOL    HW2 8776   9.645  12.059   4.988
 2313SOL     OW 8777   7.665  12.873   5.321
 2313SOL    HW1 8778   7.668  12.778   5.330
 2313SOL    HW2 8779   7.735  12.905   5.378
 2314SOL     OW 8780   5.923  11.970  10.680
 2314SOL    HW1 8781   5.893  11.984  10.590
 2314SOL    HW2 8782   5.861  11.908  10.717
 2315SOL     OW 8783  12.857   3.929  10.812
 2315SOL    HW1 8784  12.862   4.022  10.790
 2315SOL    HW2 8785  12.764   3.911  10.823
 2316SOL     OW 8786  10.420  10.848   0.783
 2316SOL    HW1 8787  10.448  10.850   0.875
 2316SOL    HW2 8788  10.447  10.762   0.751
 2317SOL     OW 8789  13.184   7.886  13.450
 2317SOL    HW1 8790  13.267   7.918  13.487
 2317SOL    HW2 8791  13.120   7.952  13.475
 2318SOL     OW 8792   3.047   1.794  11.079
 2318SOL    HW1 8793   2.987   1.739  11.129
 2318SOL    HW2 8794   3.030   1.772  10.987
 2319SOL     OW 8795   0.424  12.037   4.792
 2319SOL    HW1 8796   0.436  11.942   4.790
 2319SOL    HW2 8797   0.392  12.056   4.880
 2320SOL     OW 8798   0.313   2.573   6.983
 2320SOL    HW1 8799   0.389   2.620   7.017
 2320SOL    HW2 8800   0.332   2.481   7.003
 2321SOL     OW 8801  14.828  14.080  10.601
 2321SOL    HW1 8802  14.832  13.987  10.625
 2321SOL    HW2 8803  14.849  14.082  10.507
 2322SOL     OW 8804   8.775  13.162   5.427
 2322SOL    HW1 8805   8.832  13.236   5.447
 2322SOL    HW2 8806   8.705  13.199   5.375
 2323SOL     OW 8807   5.405  13.415   9.698
 2323SOL    HW1 8808   5.426  13.366   9.618
 2323SOL    HW2 8809   5.489  13.449   9.727
 2324SOL     OW 8810  11.327  10.026   9.695
 2324SOL    HW1 8811  11.288   9.989   9.615
 2324SOL    HW2 8812  11.395   9.963   9.719
 2325SOL     OW 8813   5.785  10.023   4.821
 2325SOL    HW1 8814   5.869  10.008   4.776
 2325SOL    HW2 8815   5.781  10.118   4.833
 2326SOL     OW 8816   7.811   6.907   3.893
 2326SOL    HW1 8817   7.767   6.976   3.942
 2326SOL    HW2 8818   7.844   6.847   3.960
 2327SOL     OW 8819  14.799   2.513   2.133
 2327SOL    HW1 8820  14.780   2.423   2.105
 2327SOL    HW2 8821  14.754   2.567   2.068
 2328SOL     OW 8822   9.626   6.160   8.797
 2328SOL    HW1 8823   9.693   6.205   8.848
 2328SOL    HW2 8824   9.543   6.185   8.838
 2329SOL     OW 8825   7.791   5.610   5.176
 2329SOL    HW1 8826   7.707   5.635   5.137
 2329SOL    HW2 8827   7.833   5.694   5.197
 2330SOL     OW 8828  14.293   7.297  13.666
 2330SOL    HW1 8829  14.364   7.234  13.671
 2330SOL    HW2 8830  14.235   7.264  13.597
 2331SOL     OW 8831   3.540   5.107   8.741
 2331SOL    HW1 8832   3.466   5.168   8.745
 2331SOL    HW2 8833   3.603   5.149   8.683
 2332SOL     OW 8834   7.361  13.373   9.134
 2332SOL    HW1 8835   7.383  13.422   9.213
 2332SOL    HW2 8836   7.331  13.288   9.165
 2333SOL     OW 8837   9.243   7.806  14.488
 2333SOL    HW1 8838   9.283   7.721  14.507
 2333SOL    HW2 8839   9.177   7.787  14.422
 2334SOL     OW 8840   8.207  10.261   6.943
 2334SOL    HW1 8841   8.113  10.269   6.958
 2334SOL    HW2 8842   8.227  10.329   6.878
 2335SOL     OW 8843   6.404   3.716   1.722
 2335SOL    HW1 8844   6.460   3.777   1.674
 2335SOL    HW2 8845   6.363   3.663   1.653
 2336SOL     OW 8846  10.755   5.891   7.286
 2336SOL    HW1 8847  10.683   5.848   7.332
 2336SOL    HW2 8848  10.749   5.983   7.313
 2337SOL     OW 8849   8.169   0.197   0.085
 2337SOL    HW1 8850   8.143   0.120   0.135
 2337SOL    HW2 8851   8.103   0.263   0.106
 2338SOL     OW 8852   9.710   3.623   5.690
 2338SOL    HW1 8853   9.795   3.592   5.655
 2338SOL    HW2 8854   9.727   3.639   5.782
 2339SOL     OW 8855   3.885  12.797  12.904
 2339SOL    HW1 8856   3.834  12.726  12.942
 2339SOL    HW2 8857   3.849  12.877  12.941
 2340SOL     OW 8858  10.083   8.492   9.776
 2340SOL    HW1 8859  10.131   8.452   9.704
 2340SOL    HW2 8860  10.149   8.536   9.829
 2341SOL     OW 8861  13.681   6.994  13.364
 2341SOL    HW1 8862  13.769   7.014  13.333
 2341SOL    HW2 8863  13.658   7.067  13.421
 2342SOL     OW 8864   1.383  11.154   5.408
 2342SOL    HW1 8865   1.374  11.125   5.317
 2342SOL    HW2 8866   1.301  11.199   5.427
 2343SOL     OW 8867   2.912   1.585  11.190
 2343SOL    HW1 8868   2.819   1.583  11.165
 2343SOL    HW2 8869   2.914   1.545  11.277
 2344SOL     OW 8870   3.121   7.431   0.428
 2344SOL    HW1 8871   3.204   7.447   0.382
 2344SOL    HW2 8872   3.125   7.488   0.505
 2345SOL     OW 8873   4.223   7.812   6.898
 2345SOL    HW1 8874   4.225   7.803   6.993
 2345SOL    HW2 8875   4.286   7.746   6.867
 2346SOL     OW 8876   1.180   7.333  14.378
 2346SOL    HW1 8877   1.131   7.353  14.298
 2346SOL    HW2 8878   1.120   7.281  14.431
 2347SOL     OW 8879   6.802   6.816   8.350
 2347SOL    HW1 8880   6.816   6.759   8.426
 2347SOL    HW2 8881   6.847   6.771   8.278
 2348SOL     OW 8882   1.471   2.814   6.325
 2348SOL    HW1 8883   1.450   2.867   6.401
 2348SOL    HW2 8884   1.519   2.873   6.266
 2349SOL     OW 8885  11.163   1.187  11.114
 2349SOL    HW1 8886  11.188   1.192  11.207
 2349SOL    HW2 8887  11.075   1.224  11.110
 2350SOL     OW 8888   7.373   3.760   2.959
 2350SOL    HW1 8889   7.467   3.746   2.965
 2350SOL    HW2 8890   7.355   3.764   2.865
 2351SOL     OW 8891   0.170  10.316   1.529
 2351SOL    HW1 8892   0.109  10.376   1.572
 2351SOL    HW2 8893   0.179  10.351   1.440
 2352SOL     OW 8894   8.760   9.449  12.848
 2352SOL    HW1 8895   8.739   9.360  12.877
 2352SOL    HW2 8896   8.845   9.439  12.803
 2353SOL     OW 8897   7.665   2.422   6.662
 2353SOL    HW1 8898   7.632   2.334   6.684
 2353SOL    HW2 8899   7.728   2.442   6.731
 2354SOL     OW 8900   2.908   8.304  12.275
 2354SOL    HW1 8901   2.847   8.267  12.211
 2354SOL    HW2 8902   2.949   8.378  12.229
 2355SOL     OW 8903   2.271   7.800   4.886
 2355SOL    HW1 8904   2.239   7.814   4.975
 2355SOL    HW2 8905   2.350   7.853   4.880
 2356SOL     OW 8906  10.006   0.268   1.748
 2356SOL    HW1 8907   9.983   0.349   1.793
 2356SOL    HW2 8908  10.094   0.283   1.714
 2357SOL     OW 8909   6.980   3.935   2.518
 2357SOL    HW1 8910   6.901   3.942   2.464
 2357SOL    HW2 8911   6.948   3.912   2.605
 2358SOL     OW 8912   9.005  12.364   6.247
 2358SOL    HW1 8913   8.998  12.434   6.312
 2358SOL    HW2 8914   9.031  12.287   6.298
 2359SOL     OW 8915   9.217  11.169   3.860
 2359SOL    HW1 8916   9.217  11.196   3.952
 2359SOL    HW2 8917   9.158  11.093   3.857
 2360SOL     OW 8918   8.818   4.398  12.016
 2360SOL    HW1 8919   8.743   4.431  11.967
 2360SOL    HW2 8920   8.792   4.404  12.107
 2361SOL     OW 8921  12.138   5.600  11.924
 2361SOL    HW1 8922  12.169   5.649  12.000
 2361SOL    HW2 8923  12.199   5.623  11.854
 2362SOL     OW 8924   5.304   7.923  10.425
 2362SOL    HW1 8925   5.264   7.982  10.361
 2362SOL    HW2 8926   5.345   7.981  10.489
 2363SOL     OW 8927   6.189   2.125   0.366
 2363SOL    HW1 8928   6.121   2.163   0.422
 2363SOL    HW2 8929   6.265   2.115   0.423
 2364SOL     OW 8930   2.118   3.657   5.141
 2364SOL    HW1 8931   2.131   3.563   5.126
 2364SOL    HW2 8932   2.024   3.666   5.157
 2365SOL     OW 8933  12.017   6.737  13.249
 2365SOL    HW1 8934  12.008   6.805  13.317
 2365SOL    HW2 8935  12.108   6.745  13.219
 2366SOL     OW 8936   1.867   6.232   8.155
 2366SOL    HW1 8937   1.777   6.264   8.150
 2366SOL    HW2 8938   1.920   6.304   8.121
 2367SOL     OW 8939   5.535   3.096   0.739
 2367SOL    HW1 8940   5.570   3.038   0.806
 2367SOL    HW2 8941   5.576   3.066   0.658
 2368SOL     OW 8942   9.393  14.153  14.478
 2368SOL    HW1 8943   9.377  14.088  14.409
 2368SOL    HW2 8944   9.466  14.117  14.529
 2369SOL     OW 8945  14.326  13.048   3.585
 2369SOL    HW1 8946  14.272  12.969   3.587
 2369SOL    HW2 8947  14.344  13.062   3.492
 2370SOL     OW 8948   3.285   3.164  10.518
 2370SOL    HW1 8949   3.225   3.149  10.591
 2370SOL    HW2 8950   3.240   3.228  10.463
 2371SOL     OW 8951   6.676   0.167   1.321
 2371SOL    HW1 8952   6.643   0.121   1.244
 2371SOL    HW2 8953   6.621   0.245   1.329
 2372SOL     OW 8954   7.806   7.095   0.183
 2372SOL    HW1 8955   7.890   7.137   0.165
 2372SOL    HW2 8956   7.756   7.107   0.101
 2373SOL     OW 8957   1.891  10.146   7.170
 2373SOL    HW1 8958   1.984  10.148   7.192
 2373SOL    HW2 8959   1.873  10.054   7.151
 2374SOL     OW 8960   6.659   5.581   7.781
 2374SOL    HW1 8961   6.593   5.647   7.798
 2374SOL    HW2 8962   6.741   5.621   7.810
 2375SOL     OW 8963  12.176  12.494  14.060
 2375SOL    HW1 8964  12.154  12.438  14.134
 2375SOL    HW2 8965  12.176  12.435  13.984
 2376SOL     OW 8966  11.042   9.617   2.903
 2376SOL    HW1 8967  11.106   9.647   2.968
 2376SOL    HW2 8968  10.965   9.672   2.919
 2377SOL     OW 8969   8.969   0.718  10.224
 2377SOL    HW1 8970   8.981   0.626  10.251
 2377SOL    HW2 8971   8.888   0.745  10.268
 2378SOL     OW 8972   2.869  12.307  11.335
 2378SOL    HW1 8973   2.794  12.353  11.298
 2378SOL    HW2 8974   2.879  12.342  11.423
 2379SOL     OW 8975   1.237   9.921   0.180
 2379SOL    HW1 8976   1.237   9.839   0.130
 2379SOL    HW2 8977   1.327   9.953   0.172
 2380SOL     OW 8978  11.617   7.267   3.719
 2380SOL    HW1 8979  11.672   7.222   3.655
 2380SOL    HW2 8980  11.620   7.359   3.694
 2381SOL     OW 8981   9.013   9.143  13.471
 2381SOL    HW1 8982   8.987   9.205  13.540
 2381SOL    HW2 8983   9.067   9.195  13.412
 2382SOL     OW 8984  14.833   2.914  12.934
 2382SOL    HW1 8985  14.799   2.847  12.874
 2382SOL    HW2 8986   0.047   2.919  12.913
 2383SOL     OW 8987   1.678   3.903  12.209
 2383SOL    HW1 8988   1.747   3.849  12.248
 2383SOL    HW2 8989   1.722   3.986  12.188
 2384SOL     OW 8990   1.632   1.576   8.561
 2384SOL    HW1 8991   1.699   1.612   8.620
 2384SOL    HW2 8992   1.550   1.608   8.597
 2385SOL     OW 8993   6.444  11.023   2.377
 2385SOL    HW1 8994   6.360  11.069   2.377
 2385SOL    HW2 8995   6.476  11.033   2.467
 2386SOL     OW 8996   1.392  13.604   7.864
 2386SOL    HW1 8997   1.460  13.660   7.901
 2386SOL    HW2 8998   1.330  13.664   7.823
 2387SOL     OW 8999   1.947  13.952   1.021
 2387SOL    HW1 9000   1.924  14.035   1.063
 2387SOL    HW2 9001   1.901  13.954   0.937
 2388SOL     OW 9002  10.450   9.678  14.582
 2388SOL    HW1 9003  10.456   9.764  14.540
 2388SOL    HW2 9004  10.532   9.634  14.559
 2389SOL     OW 9005   1.338   2.379  11.081
 2389SOL    HW1 9006   1.362   2.469  11.100
 2389SOL    HW2 9007   1.244   2.382  11.063
 2390SOL     OW 9008   6.977   7.141  14.007
 2390SOL    HW1 9009   7.068   7.112  13.995
 2390SOL    HW2 9010   6.933   7.114  13.927
 2391SOL     OW 9011   5.950   6.935   1.762
 2391SOL    HW1 9012   5.969   6.909   1.672
 2391SOL    HW2 9013   6.023   6.901   1.813
 2392SOL     OW 9014   7.019  11.906   6.386
 2392SOL    HW1 9015   6.997  11.926   6.295
 2392SOL    HW2 9016   7.059  11.819   6.382
 2393SOL     OW 9017   4.928   4.658  10.911
 2393SOL    HW1 9018   4.858   4.716  10.881
 2393SOL    HW2 9019   4.990   4.657  10.838
 2394SOL     OW 9020   7.730   2.879  13.310
 2394SOL    HW1 9021   7.643   2.860  13.345
 2394SOL    HW2 9022   7.764   2.948  13.366
 2395SOL     OW 9023   6.587  12.593  13.773
 2395SOL    HW1 9024   6.627  12.679  13.783
 2395SOL    HW2 9025   6.601  12.549  13.857
 2396SOL     OW 9026   3.650  11.901  13.895
 2396SOL    HW1 9027   3.615  11.980  13.937
 2396SOL    HW2 9028   3.720  11.872  13.953
 2397SOL     OW 9029  11.032   0.587   5.706
 2397SOL    HW1 9030  10.973   0.646   5.658
 2397SOL    HW2 9031  10.990   0.576   5.791
 2398SOL     OW 9032  10.642  12.841   4.242
 2398SOL    HW1 9033  10.676  12.753   4.230
 2398SOL    HW2 9034  10.693  12.877   4.314
 2399SOL     OW 9035   7.854  14.453  14.590
 2399SOL    HW1 9036   7.885  14.417  14.507
 2399SOL    HW2 9037   7.768  14.414  14.603
 2400SOL     OW 9038   4.813  13.288  12.009
 2400SOL    HW1 9039   4.875  13.279  12.082
 2400SOL    HW2 9040   4.840  13.367  11.964
 2401SOL     OW 9041   4.859   1.727   2.702
 2401SOL    HW1 9042   4.893   1.638   2.691
 2401SOL    HW2 9043   4.788   1.718   2.765
 2402SOL     OW 9044   0.084   8.770  12.279
 2402SOL    HW1 9045   0.119   8.823  12.350
 2402SOL    HW2 9046   0.160   8.746  12.226
 2403SOL     OW 9047   3.323  13.994  12.069
 2403SOL    HW1 9048   3.340  14.085  12.043
 2403SOL    HW2 9049   3.287  14.002  12.157
 2404SOL     OW 9050   3.402   4.072   0.046
 2404SOL    HW1 9051   3.383   4.164   0.065
 2404SOL    HW2 9052   3.430   4.072  14.834
 2405SOL     OW 9053   2.153   9.411   2.220
 2405SOL    HW1 9054   2.158   9.441   2.129
 2405SOL    HW2 9055   2.243   9.392   2.245
 2406SOL     OW 9056   4.354   4.718  11.687
 2406SOL    HW1 9057   4.412   4.731  11.762
 2406SOL    HW2 9058   4.409   4.739  11.611
 2407SOL     OW 9059   0.653   4.627   5.999
 2407SOL    HW1 9060   0.670   4.545   5.953
 2407SOL    HW2 9061   0.685   4.695   5.940
 2408SOL     OW 9062   7.216   8.043   3.197
 2408SOL    HW1 9063   7.151   8.108   3.221
 2408SOL    HW2 9064   7.201   8.028   3.103
 2409SOL     OW 9065   4.032  10.193   7.182
 2409SOL    HW1 9066   3.976  10.125   7.220
 2409SOL    HW2 9067   4.096  10.145   7.131
 2410SOL     OW 9068   5.845   9.376   8.250
 2410SOL    HW1 9069   5.809   9.464   8.233
 2410SOL    HW2 9070   5.807   9.351   8.334
 2411SOL     OW 9071   9.530   2.192   0.050
 2411SOL    HW1 9072   9.537   2.104   0.088
 2411SOL    HW2 9073   9.611   2.202  14.879
 2412SOL     OW 9074   6.754  12.065  10.438
 2412SOL    HW1 9075   6.733  12.037  10.349
 2412SOL    HW2 9076   6.778  11.985  10.484
 2413SOL     OW 9077   0.041   4.550  10.640
 2413SOL    HW1 9078   0.026   4.512  10.726
 2413SOL    HW2 9079   0.123   4.598  10.648
 2414SOL     OW 9080  11.061  12.415   8.106
 2414SOL    HW1 9081  10.994  12.347   8.114
 2414SOL    HW2 9082  11.078  12.421   8.012
 2415SOL     OW 9083  11.990   5.309  12.856
 2415SOL    HW1 9084  11.986   5.225  12.811
 2415SOL    HW2 9085  11.902   5.346  12.846
 2416SOL     OW 9086  11.904   3.986   2.320
 2416SOL    HW1 9087  11.936   4.011   2.407
 2416SOL    HW2 9088  11.858   3.904   2.334
 2417SOL     OW 9089   3.197   7.302   6.744
 2417SOL    HW1 9090   3.196   7.311   6.649
 2417SOL    HW2 9091   3.197   7.207   6.759
 2418SOL     OW 9092   6.144   4.651  13.590
 2418SOL    HW1 9093   6.058   4.693  13.602
 2418SOL    HW2 9094   6.198   4.721  13.553
 2419SOL     OW 9095   8.009  13.458   0.223
 2419SOL    HW1 9096   8.029  13.500   0.306
 2419SOL    HW2 9097   8.073  13.387   0.215
 2420SOL     OW 9098   7.905   9.355   6.257
 2420SOL    HW1 9099   7.888   9.371   6.349
 2420SOL    HW2 9100   7.891   9.261   6.245
 2421SOL     OW 9101   5.252   8.885   7.218
 2421SOL    HW1 9102   5.321   8.894   7.283
 2421SOL    HW2 9103   5.174   8.862   7.269
 2422SOL     OW 9104   0.219   3.931  14.213
 2422SOL    HW1 9105   0.273   3.892  14.281
 2422SOL    HW2 9106   0.195   3.857  14.157
 2423SOL     OW 9107   3.940   9.973   1.680
 2423SOL    HW1 9108   3.861   9.964   1.625
 2423SOL    HW2 9109   3.906   9.975   1.769
 2424SOL     OW 9110   8.062   8.817   4.596
 2424SOL    HW1 9111   8.112   8.770   4.662
 2424SOL    HW2 9112   8.127   8.846   4.532
 2425SOL     OW 9113  12.426   3.021   6.148
 2425SOL    HW1 9114  12.520   3.008   6.132
 2425SOL    HW2 9115  12.407   2.964   6.223
 2426SOL     OW 9116   2.315   4.759   2.427
 2426SOL    HW1 9117   2.371   4.695   2.384
 2426SOL    HW2 9118   2.278   4.810   2.355
 2427SOL     OW 9119   8.347   0.598  13.244
 2427SOL    HW1 9120   8.284   0.550  13.299
 2427SOL    HW2 9121   8.310   0.592  13.156
 2428SOL     OW 9122  10.102  10.800  14.378
 2428SOL    HW1 9123  10.059  10.827  14.297
 2428SOL    HW2 9124  10.031  10.761  14.430
 2429SOL     OW 9125   4.671   3.301   6.900
 2429SOL    HW1 9126   4.700   3.217   6.864
 2429SOL    HW2 9127   4.579   3.308   6.874
 2430SOL     OW 9128   7.019  13.033   1.916
 2430SOL    HW1 9129   7.099  13.005   1.961
 2430SOL    HW2 9130   7.011  13.126   1.937
 2431SOL     OW 9131   7.158   2.963   3.326
 2431SOL    HW1 9132   7.189   2.998   3.243
 2431SOL    HW2 9133   7.080   2.913   3.305
 2432SOL     OW 9134  10.830   6.990   5.031
 2432SOL    HW1 9135  10.811   6.978   4.938
 2432SOL    HW2 9136  10.770   6.931   5.076
 2433SOL     OW 9137   2.943   0.981   6.305
 2433SOL    HW1 9138   2.972   0.930   6.229
 2433SOL    HW2 9139   2.912   1.064   6.268
 2434SOL     OW 9140   9.268   1.442   5.082
 2434SOL    HW1 9141   9.186   1.486   5.105
 2434SOL    HW2 9142   9.250   1.401   4.997
 2435SOL     OW 9143  14.590   5.921   4.851
 2435SOL    HW1 9144  14.518   5.900   4.792
 2435SOL    HW2 9145  14.641   5.840   4.855
 2436SOL     OW 9146   3.188  12.865   6.721
 2436SOL    HW1 9147   3.138  12.929   6.772
 2436SOL    HW2 9148   3.133  12.786   6.720
 2437SOL     OW 9149   7.077  13.490  11.947
 2437SOL    HW1 9150   7.146  13.540  11.903
 2437SOL    HW2 9151   7.119  13.408  11.973
 2438SOL     OW 9152   7.457   6.904   5.727
 2438SOL    HW1 9153   7.517   6.886   5.799
 2438SOL    HW2 9154   7.514   6.932   5.655
 2439SOL     OW 9155   2.354   3.079  14.675
 2439SOL    HW1 9156   2.445   3.107  14.683
 2439SOL    HW2 9157   2.306   3.160  14.655
 2440SOL     OW 9158  13.436   7.546  10.594
 2440SOL    HW1 9159  13.358   7.539  10.539
 2440SOL    HW2 9160  13.464   7.455  10.607
 2441SOL     OW 9161   4.223   3.485   3.150
 2441SOL    HW1 9162   4.138   3.509   3.187
 2441SOL    HW2 9163   4.269   3.442   3.222
 2442SOL     OW 9164   0.105  11.376   4.444
 2442SOL    HW1 9165   0.124  11.359   4.351
 2442SOL    HW2 9166   0.022  11.424   4.443
 2443SOL     OW 9167  14.253   4.393   6.860
 2443SOL    HW1 9168  14.198   4.316   6.849
 2443SOL    HW2 9169  14.193   4.467   6.848
 2444SOL     OW 9170  10.519   0.880   4.618
 2444SOL    HW1 9171  10.574   0.825   4.674
 2444SOL    HW2 9172  10.576   0.907   4.547
 2445SOL     OW 9173   1.815   6.450  14.443
 2445SOL    HW1 9174   1.903   6.488  14.444
 2445SOL    HW2 9175   1.816   6.390  14.368
 2446SOL     OW 9176   5.453   6.756   9.513
 2446SOL    HW1 9177   5.540   6.775   9.477
 2446SOL    HW2 9178   5.398   6.742   9.436
 2447SOL     OW 9179   3.511   8.689  14.011
 2447SOL    HW1 9180   3.483   8.733  14.091
 2447SOL    HW2 9181   3.589   8.639  14.036
 2448SOL     OW 9182   4.033   7.118  10.364
 2448SOL    HW1 9183   3.978   7.040  10.376
 2448SOL    HW2 9184   4.046   7.152  10.453
 2449SOL     OW 9185  10.108   1.944  12.610
 2449SOL    HW1 9186  10.044   1.960  12.541
 2449SOL    HW2 9187  10.098   2.019  12.669
 2450SOL     OW 9188  13.950   0.912   7.356
 2450SOL    HW1 9189  13.985   0.982   7.411
 2450SOL    HW2 9190  13.956   0.946   7.267
 2451SOL     OW 9191   3.095  13.233  11.735
 2451SOL    HW1 9192   3.016  13.254  11.684
 2451SOL    HW2 9193   3.144  13.315  11.738
 2452SOL     OW 9194  11.858   1.929  13.702
 2452SOL    HW1 9195  11.884   1.849  13.655
 2452SOL    HW2 9196  11.904   1.923  13.786
 2453SOL     OW 9197  13.041  13.298   8.292
 2453SOL    HW1 9198  13.011  13.223   8.343
 2453SOL    HW2 9199  12.980  13.303   8.218
 2454SOL     OW 9200   9.545   2.012   6.672
 2454SOL    HW1 9201   9.533   1.935   6.616
 2454SOL    HW2 9202   9.592   2.075   6.616
 2455SOL     OW 9203   5.945   3.244   8.003
 2455SOL    HW1 9204   5.979   3.282   7.922
 2455SOL    HW2 9205   5.853   3.268   8.004
 2456SOL     OW 9206   9.815   8.398  12.472
 2456SOL    HW1 9207   9.821   8.345  12.392
 2456SOL    HW2 9208   9.904   8.432  12.484
 2457SOL     OW 9209  10.213  10.013   8.830
 2457SOL    HW1 9210  10.207   9.959   8.752
 2457SOL    HW2 9211  10.193  10.102   8.800
 2458SOL     OW 9212  10.403   6.864  14.685
 2458SOL    HW1 9213  10.491   6.831  14.701
 2458SOL    HW2 9214  10.385   6.842  14.594
 2459SOL     OW 9215   2.983   1.022   3.137
 2459SOL    HW1 9216   3.039   1.099   3.122
 2459SOL    HW2 9217   3.036   0.948   3.108
 2460SOL     OW 9218   7.871   0.142   0.631
 2460SOL    HW1 9219   7.893   0.049   0.629
 2460SOL    HW2 9220   7.878   0.170   0.540
 2461SOL     OW 9221   5.688   3.466   6.312
 2461SOL    HW1 9222   5.618   3.531   6.312
 2461SOL    HW2 9223   5.717   3.462   6.403
 2462SOL     OW 9224   7.908  14.374  11.274
 2462SOL    HW1 9225   7.996  14.341  11.256
 2462SOL    HW2 9226   7.903  14.378  11.370
 2463SOL     OW 9227  13.681   6.215  11.851
 2463SOL    HW1 9228  13.598   6.213  11.803
 2463SOL    HW2 9229  13.664   6.271  11.927
 2464SOL     OW 9230   3.363   4.384   7.610
 2464SOL    HW1 9231   3.381   4.337   7.529
 2464SOL    HW2 9232   3.271   4.409   7.604
 2465SOL     OW 9233   2.683  13.288  11.197
 2465SOL    HW1 9234   2.773  13.318  11.212
 2465SOL    HW2 9235   2.637  13.364  11.163
 2466SOL     OW 9236   7.100   2.036  13.228
 2466SOL    HW1 9237   7.057   2.120  13.246
 2466SOL    HW2 9238   7.109   2.033  13.133
 2467SOL     OW 9239   5.209   0.494   8.624
 2467SOL    HW1 9240   5.154   0.419   8.650
 2467SOL    HW2 9241   5.263   0.460   8.553
 2468SOL     OW 9242   0.560  11.575  12.886
 2468SOL    HW1 9243   0.647  11.605  12.911
 2468SOL    HW2 9244   0.564  11.567  12.790
 2469SOL     OW 9245   9.661   4.941   0.810
 2469SOL    HW1 9246   9.665   5.023   0.858
 2469SOL    HW2 9247   9.739   4.893   0.838
 2470SOL     OW 9248   0.132  13.897   4.409
 2470SOL    HW1 9249   0.181  13.972   4.443
 2470SOL    HW2 9250   0.065  13.937   4.352
 2471SOL     OW 9251   1.204   8.614  14.144
 2471SOL    HW1 9252   1.185   8.522  14.160
 2471SOL    HW2 9253   1.232   8.648  14.229
 2472SOL     OW 9254  10.498   6.729   9.393
 2472SOL    HW1 9255  10.434   6.796   9.416
 2472SOL    HW2 9256  10.499   6.671   9.469
 2473SOL     OW 9257  11.001   2.826   3.173
 2473SOL    HW1 9258  11.062   2.761   3.207
 2473SOL    HW2 9259  11.011   2.822   3.078
 2474SOL     OW 9260   9.545   9.371  11.514
 2474SOL    HW1 9261   9.627   9.397  11.555
 2474SOL    HW2 9262   9.560   9.281  11.485
 2475SOL     OW 9263   0.909   7.052  14.794
 2475SOL    HW1 9264   0.961   6.974  14.809
 2475SOL    HW2 9265   0.863   7.036  14.712
 2476SOL     OW 9266   3.324   6.569  13.216
 2476SOL    HW1 9267   3.402   6.540  13.264
 2476SOL    HW2 9268   3.341   6.661  13.198
 2477SOL     OW 9269  10.137   0.837  13.637
 2477SOL    HW1 9270  10.206   0.772  13.623
 2477SOL    HW2 9271  10.067   0.788  13.680
 2478SOL     OW 9272   9.511   7.225  12.700
 2478SOL    HW1 9273   9.420   7.248  12.719
 2478SOL    HW2 9274   9.509   7.196  12.609
 2479SOL     OW 9275   5.401   3.271   1.621
 2479SOL    HW1 9276   5.481   3.305   1.661
 2479SOL    HW2 9277   5.427   3.185   1.588
 2480SOL     OW 9278   1.959  11.319  14.845
 2480SOL    HW1 9279   1.958  11.224  14.837
 2480SOL    HW2 9280   2.010  11.336   0.045
 2481SOL     OW 9281   5.334   2.924   0.135
 2481SOL    HW1 9282   5.360   2.868   0.208
 2481SOL    HW2 9283   5.269   2.871   0.087
 2482SOL     OW 9284  13.039   8.822  14.251
 2482SOL    HW1 9285  13.025   8.825  14.345
 2482SOL    HW2 9286  13.003   8.737  14.224
 2483SOL     OW 9287   9.178  10.603  11.846
 2483SOL    HW1 9288   9.246  10.611  11.779
 2483SOL    HW2 9289   9.109  10.552  11.804
 2484SOL     OW 9290   0.700   7.258   6.781
 2484SOL    HW1 9291   0.695   7.210   6.864
 2484SOL    HW2 9292   0.620   7.235   6.735
 2485SOL     OW 9293  12.952   4.077  12.738
 2485SOL    HW1 9294  13.030   4.113  12.694
 2485SOL    HW2 9295  12.884   4.142  12.721
 2486SOL     OW 9296  11.456   7.489   7.957
 2486SOL    HW1 9297  11.396   7.560   7.978
 2486SOL    HW2 9298  11.468   7.494   7.863
 2487SOL     OW 9299  10.479   5.082  11.147
 2487SOL    HW1 9300  10.568   5.049  11.143
 2487SOL    HW2 9301  10.438   5.035  11.220
 2488SOL     OW 9302   0.910   1.880   6.217
 2488SOL    HW1 9303   0.955   1.836   6.144
 2488SOL    HW2 9304   0.848   1.815   6.250
 2489SOL     OW 9305   0.250  11.136   9.045
 2489SOL    HW1 9306   0.276  11.222   9.013
 2489SOL    HW2 9307   0.283  11.075   8.979
 2490SOL     OW 9308   9.056   6.569   8.894
 2490SOL    HW1 9309   9.023   6.498   8.839
 2490SOL    HW2 9310   9.068   6.528   8.980
 2491SOL     OW 9311   7.950  13.859   2.765
 2491SOL    HW1 9312   7.918  13.833   2.678
 2491SOL    HW2 9313   7.938  13.954   2.767
 2492SOL     OW 9314  10.052   1.450  14.212
 2492SOL    HW1 9315  10.037   1.543  14.230
 2492SOL    HW2 9316  10.087   1.415  14.293
 2493SOL     OW 9317  12.886   3.102   1.284
 2493SOL    HW1 9318  12.856   3.191   1.265
 2493SOL    HW2 9319  12.857   3.051   1.209
 2494SOL     OW 9320  10.532   9.461   0.328
 2494SOL    HW1 9321  10.451   9.456   0.278
 2494SOL    HW2 9322  10.565   9.549   0.311
 2495SOL     OW 9323   5.379   4.066  10.832
 2495SOL    HW1 9324   5.470   4.063  10.861
 2495SOL    HW2 9325   5.328   4.036  10.907
 2496SOL     OW 9326   1.548   1.674  14.795
 2496SOL    HW1 9327   1.583   1.738  14.733
 2496SOL    HW2 9328   1.457   1.703  14.809
 2497SOL     OW 9329   5.799   2.631   0.266
 2497SOL    HW1 9330   5.793   2.634   0.361
 2497SOL    HW2 9331   5.893   2.636   0.247
 2498SOL     OW 9332  10.569   8.739  14.436
 2498SOL    HW1 9333  10.514   8.667  14.468
 2498SOL    HW2 9334  10.521   8.818  14.457
 2499SOL     OW 9335  12.581   6.547  13.177
 2499SOL    HW1 9336  12.562   6.611  13.245
 2499SOL    HW2 9337  12.627   6.476  13.224
 2500SOL     OW 9338  13.831  11.340   4.562
 2500SOL    HW1 9339  13.789  11.254   4.563
 2500SOL    HW2 9340  13.760  11.401   4.581
 2501SOL     OW 9341   3.457   1.556   4.519
 2501SOL    HW1 9342   3.513   1.565   4.596
 2501SOL    HW2 9343   3.401   1.481   4.539
 2502SOL     OW 9344   6.895   6.308   8.551
 2502SOL    HW1 9345   6.839   6.296   8.475
 2502SOL    HW2 9346   6.836   6.343   8.619
 2503SOL     OW 9347   6.765  14.002   1.871
 2503SOL    HW1 9348   6.800  14.066   1.810
 2503SOL    HW2 9349   6.694  14.049   1.916
 2504SOL     OW 9350  12.328  10.010   3.068
 2504SOL    HW1 9351  12.328  10.062   2.988
 2504SOL    HW2 9352  12.373   9.929   3.045
 2505SOL     OW 9353  14.456  11.888   5.455
 2505SOL    HW1 9354  14.490  11.970   5.419
 2505SOL    HW2 9355  14.441  11.907   5.548
 2506SOL     OW 9356   2.509   3.999   6.047
 2506SOL    HW1 9357   2.576   3.977   6.112
 2506SOL    HW2 9358   2.508   3.925   5.987
 2507SOL     OW 9359  13.454   1.515   2.373
 2507SOL    HW1 9360  13.439   1.444   2.437
 2507SOL    HW2 9361  13.516   1.477   2.310
 2508SOL     OW 9362   0.387   1.146  14.281
 2508SOL    HW1 9363   0.303   1.151  14.327
 2508SOL    HW2 9364   0.368   1.178  14.193
 2509SOL     OW 9365   4.682   8.996   6.951
 2509SOL    HW1 9366   4.623   9.057   6.906
 2509SOL    HW2 9367   4.761   8.994   6.897
 2510SOL     OW 9368   4.523   2.126   7.556
 2510SOL    HW1 9369   4.475   2.044   7.542
 2510SOL    HW2 9370   4.589   2.104   7.622
 2511SOL     OW 9371   1.134   0.990   0.301
 2511SOL    HW1 9372   1.192   0.917   0.279
 2511SOL    HW2 9373   1.154   1.057   0.235
 2512SOL     OW 9374   3.744   6.118  13.658
 2512SOL    HW1 9375   3.725   6.093  13.568
 2512SOL    HW2 9376   3.772   6.210  13.651
 2513SOL     OW 9377   2.156  12.633   2.770
 2513SOL    HW1 9378   2.189  12.584   2.845
 2513SOL    HW2 9379   2.222  12.701   2.755
 2514SOL     OW 9380  11.364  12.914   0.545
 2514SOL    HW1 9381  11.403  12.836   0.584
 2514SOL    HW2 9382  11.380  12.983   0.610
 2515SOL     OW 9383  13.330   5.172   0.976
 2515SOL    HW1 9384  13.423   5.157   0.993
 2515SOL    HW2 9385  13.300   5.092   0.933
 2516SOL     OW 9386   8.894   2.572   2.741
 2516SOL    HW1 9387   8.978   2.587   2.698
 2516SOL    HW2 9388   8.916   2.561   2.834
 2517SOL     OW 9389   8.001   4.709   4.769
 2517SOL    HW1 9390   7.977   4.692   4.678
 2517SOL    HW2 9391   7.927   4.758   4.805
 2518SOL     OW 9392   2.922   0.641   7.623
 2518SOL    HW1 9393   2.869   0.671   7.549
 2518SOL    HW2 9394   2.913   0.546   7.622
 2519SOL     OW 9395  12.987   2.783   6.194
 2519SOL    HW1 9396  13.035   2.855   6.153
 2519SOL    HW2 9397  12.987   2.714   6.128
 2520SOL     OW 9398  13.493   0.739   9.656
 2520SOL    HW1 9399  13.583   0.774   9.651
 2520SOL    HW2 9400  13.499   0.670   9.722
 2521SOL     OW 9401   3.936   2.749   6.579
 2521SOL    HW1 9402   3.975   2.794   6.654
 2521SOL    HW2 9403   4.001   2.685   6.552
 2522SOL     OW 9404  11.185   1.386   2.127
 2522SOL    HW1 9405  11.202   1.473   2.091
 2522SOL    HW2 9406  11.268   1.360   2.167
 2523SOL     OW 9407   1.234   1.903  11.624
 2523SOL    HW1 9408   1.229   1.982  11.678
 2523SOL    HW2 9409   1.199   1.833  11.680
 2524SOL     OW 9410   3.341  10.722   0.380
 2524SOL    HW1 9411   3.361  10.635   0.415
 2524SOL    HW2 9412   3.381  10.782   0.442
 2525SOL     OW 9413   4.666   6.930  11.001
 2525SOL    HW1 9414   4.633   7.016  11.027
 2525SOL    HW2 9415   4.636   6.871  11.070
 2526SOL     OW 9416   0.360   6.920   7.585
 2526SOL    HW1 9417   0.356   6.905   7.679
 2526SOL    HW2 9418   0.356   7.015   7.576
 2527SOL     OW 9419   0.588   8.432  11.824
 2527SOL    HW1 9420   0.616   8.475  11.743
 2527SOL    HW2 9421   0.503   8.472  11.844
 2528SOL     OW 9422   3.437   5.880   5.021
 2528SOL    HW1 9423   3.372   5.950   5.030
 2528SOL    HW2 9424   3.521   5.922   5.043
 2529SOL     OW 9425  14.802   2.300   6.389
 2529SOL    HW1 9426  14.734   2.353   6.430
 2529SOL    HW2 9427  14.776   2.209   6.406
 2530SOL     OW 9428   2.899   6.804   7.314
 2530SOL    HW1 9429   2.981   6.769   7.278
 2530SOL    HW2 9430   2.927   6.867   7.380
 2531SOL     OW 9431  14.731   3.833   6.957
 2531SOL    HW1 9432  14.810   3.869   6.918
 2531SOL    HW2 9433  14.675   3.812   6.882
 2532SOL     OW 9434   9.780   0.211   1.550
 2532SOL    HW1 9435   9.841   0.174   1.614
 2532SOL    HW2 9436   9.773   0.303   1.576
 2533SOL     OW 9437  13.484   5.131   5.285
 2533SOL    HW1 9438  13.425   5.183   5.230
 2533SOL    HW2 9439  13.441   5.046   5.292
 2534SOL     OW 9440   8.035   4.820   7.479
 2534SOL    HW1 9441   8.087   4.859   7.408
 2534SOL    HW2 9442   8.035   4.886   7.548
 2535SOL     OW 9443   3.120  10.952  11.361
 2535SOL    HW1 9444   3.177  11.016  11.318
 2535SOL    HW2 9445   3.036  10.961  11.315
 2536SOL     OW 9446  14.178   8.837   6.948
 2536SOL    HW1 9447  14.197   8.901   6.879
 2536SOL    HW2 9448  14.114   8.778   6.908
 2537SOL     OW 9449   8.057  14.814   7.541
 2537SOL    HW1 9450   8.100  14.772   7.467
 2537SOL    HW2 9451   8.023  14.742   7.594
 2538SOL     OW 9452   1.132  13.771   8.023
 2538SOL    HW1 9453   1.178  13.778   7.939
 2538SOL    HW2 9454   1.057  13.714   8.003
 2539SOL     OW 9455  10.445  10.364   6.591
 2539SOL    HW1 9456  10.382  10.295   6.614
 2539SOL    HW2 9457  10.391  10.436   6.559
 2540SOL     OW 9458   9.335   7.452   8.345
 2540SOL    HW1 9459   9.300   7.509   8.276
 2540SOL    HW2 9460   9.260   7.433   8.401
 2541SOL     OW 9461   8.129   5.009   9.887
 2541SOL    HW1 9462   8.182   5.082   9.919
 2541SOL    HW2 9463   8.108   5.032   9.796
 2542SOL     OW 9464   9.046   3.684  13.140
 2542SOL    HW1 9465   9.051   3.592  13.117
 2542SOL    HW2 9466   9.034   3.686  13.235
 2543SOL     OW 9467   9.131  10.893  12.165
 2543SOL    HW1 9468   9.091  10.840  12.234
 2543SOL    HW2 9469   9.074  10.879  12.089
 2544SOL     OW 9470  10.334   0.376  10.027
 2544SOL    HW1 9471  10.266   0.325   9.983
 2544SOL    HW2 9472  10.407   0.377   9.966
 2545SOL     OW 9473  13.173   7.527  10.481
 2545SOL    HW1 9474  13.205   7.582  10.409
 2545SOL    HW2 9475  13.137   7.590  10.544
 2546SOL     OW 9476  10.804   3.756   0.731
 2546SOL    HW1 9477  10.846   3.701   0.664
 2546SOL    HW2 9478  10.877   3.795   0.779
 2547SOL     OW 9479  11.906  14.304   6.622
 2547SOL    HW1 9480  12.000  14.311   6.604
 2547SOL    HW2 9481  11.886  14.212   6.607
 2548SOL     OW 9482  13.372   6.801   4.075
 2548SOL    HW1 9483  13.293   6.854   4.077
 2548SOL    HW2 9484  13.439   6.860   4.040
 2549SOL     OW 9485   6.665   5.374   5.460
 2549SOL    HW1 9486   6.648   5.376   5.554
 2549SOL    HW2 9487   6.596   5.318   5.425
 2550SOL     OW 9488   2.172   2.022   3.326
 2550SOL    HW1 9489   2.084   2.019   3.288
 2550SOL    HW2 9490   2.207   2.107   3.299
 2551SOL     OW 9491   5.362  13.444   8.974
 2551SOL    HW1 9492   5.412  13.389   8.913
 2551SOL    HW2 9493   5.370  13.400   9.058
 2552SOL     OW 9494  12.171   1.305   3.283
 2552SOL    HW1 9495  12.260   1.339   3.289
 2552SOL    HW2 9496  12.177   1.229   3.226
 2553SOL     OW 9497  10.840   3.729   3.957
 2553SOL    HW1 9498  10.763   3.752   3.906
 2553SOL    HW2 9499  10.817   3.751   4.047
 2554SOL     OW 9500   0.904   6.842   6.404
 2554SOL    HW1 9501   0.874   6.878   6.488
 2554SOL    HW2 9502   0.827   6.800   6.367
 2555SOL     OW 9503   5.081  12.057   4.326
 2555SOL    HW1 9504   5.073  12.149   4.301
 2555SOL    HW2 9505   5.135  12.018   4.258
 2556SOL     OW 9506   3.657  12.753   8.595
 2556SOL    HW1 9507   3.667  12.848   8.588
 2556SOL    HW2 9508   3.671  12.721   8.506
 2557SOL     OW 9509  12.782   4.224   3.047
 2557SOL    HW1 9510  12.783   4.132   3.019
 2557SOL    HW2 9511  12.777   4.219   3.143
 2558SOL     OW 9512   3.802   2.605   3.873
 2558SOL    HW1 9513   3.746   2.628   3.799
 2558SOL    HW2 9514   3.803   2.684   3.928
 2559SOL     OW 9515   1.740   4.216   7.930
 2559SOL    HW1 9516   1.665   4.256   7.886
 2559SOL    HW2 9517   1.773   4.284   7.989
 2560SOL     OW 9518   6.484   0.803   7.268
 2560SOL    HW1 9519   6.497   0.711   7.249
 2560SOL    HW2 9520   6.535   0.819   7.348
 2561SOL     OW 9521  12.412   8.909   2.725
 2561SOL    HW1 9522  12.469   8.929   2.800
 2561SOL    HW2 9523  12.339   8.861   2.763
 2562SOL     OW 9524   0.679  12.918   7.303
 2562SOL    HW1 9525   0.636  13.000   7.326
 2562SOL    HW2 9526   0.768  12.928   7.335
 2563SOL     OW 9527   1.390  14.534   9.892
 2563SOL    HW1 9528   1.404  14.530   9.987
 2563SOL    HW2 9529   1.425  14.620   9.867
 2564SOL     OW 9530   6.045   8.056   3.288
 2564SOL    HW1 9531   6.027   8.149   3.277
 2564SOL    HW2 9532   6.135   8.045   3.258
 2565SOL     OW 9533  11.407   6.453  14.260
 2565SOL    HW1 9534  11.460   6.457  14.181
 2565SOL    HW2 9535  11.397   6.545  14.287
 2566SOL     OW 9536   6.141  11.510   5.275
 2566SOL    HW1 9537   6.179  11.474   5.195
 2566SOL    HW2 9538   6.068  11.453   5.295
 2567SOL     OW 9539  11.486   2.644   2.136
 2567SOL    HW1 9540  11.500   2.739   2.143
 2567SOL    HW2 9541  11.392   2.635   2.120
 2568SOL     OW 9542   9.739   4.559   3.383
 2568SOL    HW1 9543   9.804   4.566   3.313
 2568SOL    HW2 9544   9.749   4.471   3.417
 2569SOL     OW 9545   0.401   1.763  13.114
 2569SOL    HW1 9546   0.349   1.746  13.193
 2569SOL    HW2 9547   0.389   1.857  13.098
 2570SOL     OW 9548   6.095  14.640  14.588
 2570SOL    HW1 9549   6.188  14.619  14.596
 2570SOL    HW2 9550   6.090  14.734  14.605
 2571SOL     OW 9551   1.775   6.237   4.342
 2571SOL    HW1 9552   1.754   6.234   4.435
 2571SOL    HW2 9553   1.729   6.314   4.309
 2572SOL     OW 9554  14.546  13.883   1.141
 2572SOL    HW1 9555  14.621  13.917   1.191
 2572SOL    HW2 9556  14.509  13.960   1.098
 2573SOL     OW 9557   0.649  12.467   3.780
 2573SOL    HW1 9558   0.716  12.403   3.805
 2573SOL    HW2 9559   0.697  12.537   3.736
 2574SOL     OW 9560   1.788  10.103   7.568
 2574SOL    HW1 9561   1.882  10.112   7.551
 2574SOL    HW2 9562   1.769  10.169   7.634
 2575SOL     OW 9563  11.381   4.735   1.721
 2575SOL    HW1 9564  11.335   4.670   1.668
 2575SOL    HW2 9565  11.325   4.813   1.718
 2576SOL     OW 9566  10.067  10.713   2.307
 2576SOL    HW1 9567  10.101  10.700   2.396
 2576SOL    HW2 9568  10.020  10.796   2.312
 2577SOL     OW 9569   7.108   9.230  10.496
 2577SOL    HW1 9570   7.162   9.297  10.538
 2577SOL    HW2 9571   7.167   9.155  10.487
 2578SOL     OW 9572  12.877   2.011   5.950
 2578SOL    HW1 9573  12.869   2.057   6.034
 2578SOL    HW2 9574  12.850   2.075   5.885
 2579SOL     OW 9575  10.870   9.922   5.447
 2579SOL    HW1 9576  10.830   9.937   5.362
 2579SOL    HW2 9577  10.807   9.959   5.510
 2580SOL     OW 9578   0.857   4.438   8.148
 2580SOL    HW1 9579   0.796   4.439   8.074
 2580SOL    HW2 9580   0.887   4.347   8.153
 2581SOL     OW 9581   3.038   0.746   4.147
 2581SOL    HW1 9582   3.035   0.654   4.173
 2581SOL    HW2 9583   2.964   0.755   4.087
 2582SOL     OW 9584   2.321   2.469   3.793
 2582SOL    HW1 9585   2.367   2.387   3.808
 2582SOL    HW2 9586   2.228   2.444   3.786
 2583SOL     OW 9587  11.287   0.168   6.244
 2583SOL    HW1 9588  11.222   0.210   6.300
 2583SOL    HW2 9589  11.308   0.233   6.178
 2584SOL     OW 9590   1.810   7.313   1.708
 2584SOL    HW1 9591   1.795   7.390   1.763
 2584SOL    HW2 9592   1.775   7.338   1.622
 2585SOL     OW 9593   0.223  11.926   3.589
 2585SOL    HW1 9594   0.307  11.970   3.582
 2585SOL    HW2 9595   0.158  11.993   3.568
 2586SOL     OW 9596   9.322   2.426   2.463
 2586SOL    HW1 9597   9.310   2.476   2.543
 2586SOL    HW2 9598   9.346   2.491   2.396
 2587SOL     OW 9599  13.770   0.894  14.740
 2587SOL    HW1 9600  13.732   0.806  14.741
 2587SOL    HW2 9601  13.860   0.882  14.769
 2588SOL     OW 9602  13.242   4.727   8.398
 2588SOL    HW1 9603  13.181   4.752   8.330
 2588SOL    HW2 9604  13.323   4.773   8.376
 2589SOL     OW 9605  10.295   7.175   9.472
 2589SOL    HW1 9606  10.234   7.138   9.536
 2589SOL    HW2 9607  10.239   7.202   9.399
 2590SOL     OW 9608   7.269  13.322   1.509
 2590SOL    HW1 9609   7.198  13.294   1.566
 2590SOL    HW2 9610   7.263  13.417   1.506
 2591SOL     OW 9611   1.371   4.642  13.311
 2591SOL    HW1 9612   1.320   4.612  13.235
 2591SOL    HW2 9613   1.339   4.731  13.327
 2592SOL     OW 9614  14.010   6.500   3.958
 2592SOL    HW1 9615  14.045   6.487   3.869
 2592SOL    HW2 9616  13.937   6.561   3.946
 2593SOL     OW 9617   1.859   0.506   3.512
 2593SOL    HW1 9618   1.934   0.564   3.498
 2593SOL    HW2 9619   1.891   0.419   3.486
 2594SOL     OW 9620   2.479   2.645   9.578
 2594SOL    HW1 9621   2.404   2.593   9.549
 2594SOL    HW2 9622   2.441   2.730   9.603
 2595SOL     OW 9623   4.424   2.511   5.722
 2595SOL    HW1 9624   4.352   2.490   5.663
 2595SOL    HW2 9625   4.479   2.432   5.722
 2596SOL     OW 9626  10.668  13.832   3.294
 2596SOL    HW1 9627  10.573  13.835   3.285
 2596SOL    HW2 9628  10.691  13.740   3.280
 2597SOL     OW 9629   1.745  12.669   4.869
 2597SOL    HW1 9630   1.693  12.684   4.948
 2597SOL    HW2 9631   1.814  12.609   4.897
 2598SOL     OW 9632   4.829   7.832   4.889
 2598SOL    HW1 9633   4.865   7.796   4.808
 2598SOL    HW2 9634   4.813   7.755   4.944
 2599SOL     OW 9635   1.934   1.880   2.061
 2599SOL    HW1 9636   1.959   1.788   2.054
 2599SOL    HW2 9637   1.844   1.878   2.093
 2600SOL     OW 9638   4.241  12.739   7.950
 2600SOL    HW1 9639   4.260  12.829   7.926
 2600SOL    HW2 9640   4.307  12.687   7.902
 2601SOL     OW 9641   5.134   0.823   0.332
 2601SOL    HW1 9642   5.205   0.835   0.268
 2601SOL    HW2 9643   5.173   0.849   0.415
 2602SOL     OW 9644  11.840  14.720   2.321
 2602SOL    HW1 9645  11.789  14.669   2.258
 2602SOL    HW2 9646  11.801  14.699   2.406
 2603SOL     OW 9647   3.089   2.650   7.299
 2603SOL    HW1 9648   3.038   2.573   7.323
 2603SOL    HW2 9649   3.116   2.689   7.382
 2604SOL     OW 9650   5.743  13.321   2.440
 2604SOL    HW1 9651   5.694  13.397   2.410
 2604SOL    HW2 9652   5.811  13.309   2.375
 2605SOL     OW 9653   0.672  11.499   8.748
 2605SOL    HW1 9654   0.732  11.553   8.800
 2605SOL    HW2 9655   0.672  11.414   8.792
 2606SOL     OW 9656  12.717   4.548  13.764
 2606SOL    HW1 9657  12.809   4.523  13.762
 2606SOL    HW2 9658  12.704   4.587  13.850
 2607SOL     OW 9659  11.172   0.034   8.259
 2607SOL    HW1 9660  11.111  14.849   8.293
 2607SOL    HW2 9661  11.159   0.031   8.164
 2608SOL     OW 9662   8.316   1.981  13.534
 2608SOL    HW1 9663   8.378   1.976  13.607
 2608SOL    HW2 9664   8.264   1.901  13.541
 2609SOL     OW 9665   0.673   2.961  12.226
 2609SOL    HW1 9666   0.766   2.944  12.214
 2609SOL    HW2 9667   0.638   2.965  12.136
 2610SOL     OW 9668  10.511  11.520   0.177
 2610SOL    HW1 9669  10.501  11.531   0.272
 2610SOL    HW2 9670  10.563  11.441   0.167
 2611SOL     OW 9671   9.735   1.765   5.033
 2611SOL    HW1 9672   9.806   1.729   4.979
 2611SOL    HW2 9673   9.664   1.702   5.023
 2612SOL     OW 9674   8.785   6.148   2.648
 2612SOL    HW1 9675   8.820   6.063   2.674
 2612SOL    HW2 9676   8.778   6.197   2.730
 2613SOL     OW 9677  12.386   2.169   7.671
 2613SOL    HW1 9678  12.370   2.226   7.595
 2613SOL    HW2 9679  12.429   2.092   7.634
 2614SOL     OW 9680   6.270   2.723   5.498
 2614SOL    HW1 9681   6.333   2.756   5.563
 2614SOL    HW2 9682   6.304   2.755   5.414
 2615SOL     OW 9683   6.020   8.553   1.609
 2615SOL    HW1 9684   6.027   8.641   1.573
 2615SOL    HW2 9685   5.998   8.566   1.701
 2616SOL     OW 9686  14.570   3.887   9.490
 2616SOL    HW1 9687  14.606   3.934   9.415
 2616SOL    HW2 9688  14.566   3.952   9.560
 2617SOL     OW 9689   3.992   1.736   8.800
 2617SOL    HW1 9690   3.942   1.656   8.784
 2617SOL    HW2 9691   3.969   1.762   8.888
 2618SOL     OW 9692   5.391   0.973   7.165
 2618SOL    HW1 9693   5.297   0.958   7.155
 2618SOL    HW2 9694   5.414   0.931   7.248
 2619SOL     OW 9695  13.529  10.487   8.144
 2619SOL    HW1 9696  13.442  10.457   8.117
 2619SOL    HW2 9697  13.513  10.543   8.219
 2620SOL     OW 9698  11.933   6.226   7.841
 2620SOL    HW1 9699  11.839   6.231   7.858
 2620SOL    HW2 9700  11.943   6.149   7.786
 2621SOL     OW 9701   4.093   1.745   8.104
 2621SOL    HW1 9702   4.140   1.828   8.099
 2621SOL    HW2 9703   4.123   1.705   8.186
 2622SOL     OW 9704   3.097  13.338   1.503
 2622SOL    HW1 9705   3.053  13.273   1.557
 2622SOL    HW2 9706   3.190  13.324   1.518
 2623SOL     OW 9707   7.178   8.513  11.743
 2623SOL    HW1 9708   7.211   8.459  11.815
 2623SOL    HW2 9709   7.147   8.593  11.786
 2624SOL     OW 9710   2.962   7.079   9.159
 2624SOL    HW1 9711   2.919   7.037   9.234
 2624SOL    HW2 9712   2.903   7.063   9.085
 2625SOL     OW 9713  13.910   9.891  11.436
 2625SOL    HW1 9714  13.916   9.869  11.529
 2625SOL    HW2 9715  13.956   9.820  11.392
 2626SOL     OW 9716   7.911  10.590  12.789
 2626SOL    HW1 9717   7.878  10.510  12.747
 2626SOL    HW2 9718   7.838  10.622  12.841
 2627SOL     OW 9719  11.090  11.404   5.903
 2627SOL    HW1 9720  11.119  11.465   5.836
 2627SOL    HW2 9721  11.131  11.436   5.984
 2628SOL     OW 9722  13.442   1.105   9.037
 2628SOL    HW1 9723  13.413   1.083   9.126
 2628SOL    HW2 9724  13.406   1.036   8.983
 2629SOL     OW 9725   4.232  14.734  10.085
 2629SOL    HW1 9726   4.234  14.712  10.178
 2629SOL    HW2 9727   4.191  14.658  10.043
 2630SOL     OW 9728  10.260   4.609  11.048
 2630SOL    HW1 9729  10.219   4.569  10.972
 2630SOL    HW2 9730  10.347   4.570  11.052
 2631SOL     OW 9731   2.135   6.439   2.713
 2631SOL    HW1 9732   2.164   6.360   2.666
 2631SOL    HW2 9733   2.194   6.508   2.683
 2632SOL     OW 9734  10.849  14.840  12.245
 2632SOL    HW1 9735  10.857  14.754  12.284
 2632SOL    HW2 9736  10.818  14.823  12.156
 2633SOL     OW 9737  13.788  13.188   1.676
 2633SOL    HW1 9738  13.837  13.236   1.742
 2633SOL    HW2 9739  13.827  13.101   1.674
 2634SOL     OW 9740   0.194   1.362   7.160
 2634SOL    HW1 9741   0.178   1.376   7.067
 2634SOL    HW2 9742   0.107   1.360   7.200
 2635SOL     OW 9743   3.660   4.714  10.209
 2635SOL    HW1 9744   3.690   4.683  10.123
 2635SOL    HW2 9745   3.709   4.662  10.272
 2636SOL     OW 9746  14.263   6.354  11.160
 2636SOL    HW1 9747  14.175   6.321  11.143
 2636SOL    HW2 9748  14.277   6.420  11.092
 2637SOL     OW 9749  11.948  12.218   9.064
 2637SOL    HW1 9750  12.019  12.179   9.013
 2637SOL    HW2 9751  11.905  12.143   9.107
 2638SOL     OW 9752   3.656  14.527   0.375
 2638SOL    HW1 9753   3.626  14.604   0.326
 2638SOL    HW2 9754   3.615  14.453   0.331
 2639SOL     OW 9755   3.921   1.506  10.196
 2639SOL    HW1 9756   4.013   1.493  10.220
 2639SOL    HW2 9757   3.901   1.595  10.223
 2640SOL     OW 9758   2.994   7.732   9.496
 2640SOL    HW1 9759   2.914   7.743   9.445
 2640SOL    HW2 9760   2.966   7.746   9.587
 2641SOL     OW 9761   4.315   7.346   4.897
 2641SOL    HW1 9762   4.276   7.301   4.821
 2641SOL    HW2 9763   4.323   7.437   4.869
 2642SOL     OW 9764  13.895  12.676  14.573
 2642SOL    HW1 9765  13.801  12.662  14.567
 2642SOL    HW2 9766  13.933  12.591  14.550
 2643SOL     OW 9767  11.215   1.285  10.094
 2643SOL    HW1 9768  11.264   1.332  10.026
 2643SOL    HW2 9769  11.271   1.290  10.171
 2644SOL     OW 9770  12.145   8.171   3.124
 2644SOL    HW1 9771  12.057   8.194   3.096
 2644SOL    HW2 9772  12.200   8.242   3.090
 2645SOL     OW 9773   9.408   5.042   4.302
 2645SOL    HW1 9774   9.464   5.108   4.262
 2645SOL    HW2 9775   9.323   5.055   4.260
 2646SOL     OW 9776  11.041   6.856   5.525
 2646SOL    HW1 9777  11.034   6.911   5.603
 2646SOL    HW2 9778  10.951   6.842   5.497
 2647SOL     OW 9779  10.415   7.483   8.131
 2647SOL    HW1 9780  10.406   7.481   8.035
 2647SOL    HW2 9781  10.356   7.554   8.158
 2648SOL     OW 9782   3.529   7.031   3.019
 2648SOL    HW1 9783   3.593   6.961   3.007
 2648SOL    HW2 9784   3.540   7.088   2.943
 2649SOL     OW 9785  11.904   4.193   8.993
 2649SOL    HW1 9786  11.920   4.222   9.083
 2649SOL    HW2 9787  11.887   4.274   8.944
 2650SOL     OW 9788  10.887  11.895   2.226
 2650SOL    HW1 9789  10.852  11.819   2.273
 2650SOL    HW2 9790  10.910  11.957   2.296
 2651SOL     OW 9791  14.384  12.290   1.673
 2651SOL    HW1 9792  14.382  12.213   1.730
 2651SOL    HW2 9793  14.350  12.258   1.589
 2652SOL     OW 9794   5.714   4.081   1.624
 2652SOL    HW1 9795   5.653   4.144   1.586
 2652SOL    HW2 9796   5.705   4.003   1.570
 2653SOL     OW 9797   8.920   1.156   3.635
 2653SOL    HW1 9798   8.937   1.078   3.582
 2653SOL    HW2 9799   8.999   1.208   3.626
 2654SOL     OW 9800   8.313  14.833   8.151
 2654SOL    HW1 9801   8.318  14.785   8.234
 2654SOL    HW2 9802   8.381   0.020   8.157
 2655SOL     OW 9803  11.213   8.337   4.106
 2655SOL    HW1 9804  11.264   8.272   4.057
 2655SOL    HW2 9805  11.144   8.285   4.147
 2656SOL     OW 9806   1.465   1.050   7.793
 2656SOL    HW1 9807   1.484   0.960   7.820
 2656SOL    HW2 9808   1.371   1.052   7.779
 2657SOL     OW 9809   4.223   5.236   0.876
 2657SOL    HW1 9810   4.287   5.191   0.821
 2657SOL    HW2 9811   4.271   5.309   0.915
 2658SOL     OW 9812   1.780   2.851  10.990
 2658SOL    HW1 9813   1.863   2.804  10.995
 2658SOL    HW2 9814   1.735   2.812  10.915
 2659SOL     OW 9815   2.777  10.110   1.163
 2659SOL    HW1 9816   2.822  10.105   1.079
 2659SOL    HW2 9817   2.730  10.194   1.160
 2660SOL     OW 9818   0.984  14.732  14.253
 2660SOL    HW1 9819   1.050  14.709  14.188
 2660SOL    HW2 9820   0.901  14.725  14.207
 2661SOL     OW 9821   2.255   6.746   5.056
 2661SOL    HW1 9822   2.165   6.777   5.061
 2661SOL    HW2 9823   2.249   6.664   5.007
 2662SOL     OW 9824   2.439   8.876  14.587
 2662SOL    HW1 9825   2.505   8.875  14.657
 2662SOL    HW2 9826   2.447   8.963  14.548
 2663SOL     OW 9827   5.581   5.425  11.616
 2663SOL    HW1 9828   5.516   5.418  11.687
 2663SOL    HW2 9829   5.573   5.515  11.586
 2664SOL     OW 9830   9.149  14.322   7.283
 2664SOL    HW1 9831   9.227  14.267   7.276
 2664SOL    HW2 9832   9.123  14.338   7.192
 2665SOL     OW 9833  14.163  13.834  13.952
 2665SOL    HW1 9834  14.104  13.842  13.877
 2665SOL    HW2 9835  14.130  13.758  14.000
 2666SOL     OW 9836   6.855   9.842   6.497
 2666SOL    HW1 9837   6.943   9.864   6.526
 2666SOL    HW2 9838   6.806   9.825   6.577
 2667SOL     OW 9839   2.547   0.319   3.904
 2667SOL    HW1 9840   2.498   0.289   3.981
 2667SOL    HW2 9841   2.519   0.260   3.834
 2668SOL     OW 9842  14.685  10.855   6.019
 2668SOL    HW1 9843  14.629  10.932   6.017
 2668SOL    HW2 9844  14.644  10.795   5.956
 2669SOL     OW 9845  13.569   6.282   4.895
 2669SOL    HW1 9846  13.653   6.326   4.911
 2669SOL    HW2 9847  13.535   6.322   4.815
 2670SOL     OW 9848  12.464  11.767   9.738
 2670SOL    HW1 9849  12.463  11.833   9.670
 2670SOL    HW2 9850  12.466  11.683   9.691
 2671SOL     OW 9851   4.079   4.922   8.233
 2671SOL    HW1 9852   4.096   4.828   8.228
 2671SOL    HW2 9853   4.155   4.962   8.191
 2672SOL     OW 9854   4.374   4.847   3.561
 2672SOL    HW1 9855   4.347   4.757   3.578
 2672SOL    HW2 9856   4.293   4.894   3.543
 2673SOL     OW 9857  14.140   5.195   5.338
 2673SOL    HW1 9858  14.104   5.217   5.252
 2673SOL    HW2 9859  14.209   5.260   5.352
 2674SOL     OW 9860   0.338   9.576   0.353
 2674SOL    HW1 9861   0.316   9.647   0.292
 2674SOL    HW2 9862   0.301   9.497   0.313
 2675SOL     OW 9863   7.696  13.946  11.601
 2675SOL    HW1 9864   7.760  13.914  11.538
 2675SOL    HW2 9865   7.616  13.897  11.581
 2676SOL     OW 9866   5.350  12.255  13.860
 2676SOL    HW1 9867   5.381  12.289  13.776
 2676SOL    HW2 9868   5.421  12.275  13.922
 2677SOL     OW 9869   7.630   5.602   7.044
 2677SOL    HW1 9870   7.646   5.697   7.042
 2677SOL    HW2 9871   7.573   5.589   7.120
 2678SOL     OW 9872   4.810   9.494   1.815
 2678SOL    HW1 9873   4.772   9.456   1.894
 2678SOL    HW2 9874   4.785   9.587   1.818
 2679SOL     OW 9875  11.964  14.430   9.185
 2679SOL    HW1 9876  12.042  14.415   9.239
 2679SOL    HW2 9877  11.969  14.523   9.162
 2680SOL     OW 9878   7.132  14.002   1.842
 2680SOL    HW1 9879   7.085  14.078   1.878
 2680SOL    HW2 9880   7.093  13.989   1.756
 2681SOL     OW 9881   9.089   3.607   3.863
 2681SOL    HW1 9882   9.056   3.631   3.777
 2681SOL    HW2 9883   9.130   3.687   3.896
 2682SOL     OW 9884  10.462  13.286   5.048
 2682SOL    HW1 9885  10.528  13.247   4.991
 2682SOL    HW2 9886  10.484  13.379   5.050
 2683SOL     OW 9887   8.701   8.384  11.152
 2683SOL    HW1 9888   8.623   8.394  11.207
 2683SOL    HW2 9889   8.703   8.292  11.128
 2684SOL     OW 9890   6.288  11.038   0.399
 2684SOL    HW1 9891   6.215  11.051   0.339
 2684SOL    HW2 9892   6.266  11.092   0.475
 2685SOL     OW 9893  14.031   1.789  10.838
 2685SOL    HW1 9894  14.035   1.802  10.743
 2685SOL    HW2 9895  14.120   1.764  10.863
 2686SOL     OW 9896   3.619  10.736  11.022
 2686SOL    HW1 9897   3.703  10.734  10.975
 2686SOL    HW2 9898   3.641  10.714  11.112
 2687SOL     OW 9899  13.645   1.005   7.407
 2687SOL    HW1 9900  13.582   0.934   7.402
 2687SOL    HW2 9901  13.730   0.962   7.399
 2688SOL     OW 9902   1.515  12.783  11.490
 2688SOL    HW1 9903   1.580  12.827  11.436
 2688SOL    HW2 9904   1.527  12.820  11.577
 2689SOL     OW 9905  14.766  12.137  10.547
 2689SOL    HW1 9906  14.723  12.054  10.528
 2689SOL    HW2 9907  14.756  12.189  10.467
 2690SOL     OW 9908  11.595   4.195  11.897
 2690SOL    HW1 9909  11.573   4.158  11.812
 2690SOL    HW2 9910  11.563   4.131  11.960
 2691SOL     OW 9911   3.465   7.369   8.524
 2691SOL    HW1 9912   3.484   7.329   8.609
 2691SOL    HW2 9913   3.381   7.414   8.537
 2692SOL     OW 9914  13.950  13.915   9.902
 2692SOL    HW1 9915  13.901  13.984   9.859
 2692SOL    HW2 9916  13.990  13.865   9.831
 2693SOL     OW 9917   1.754   3.375   6.581
 2693SOL    HW1 9918   1.740   3.467   6.557
 2693SOL    HW2 9919   1.706   3.364   6.664
 2694SOL     OW 9920   9.088   7.118   0.314
 2694SOL    HW1 9921   9.005   7.148   0.279
 2694SOL    HW2 9922   9.120   7.053   0.251
 2695SOL     OW 9923  12.995   6.426   7.534
 2695SOL    HW1 9924  13.057   6.384   7.475
 2695SOL    HW2 9925  12.936   6.474   7.476
 2696SOL     OW 9926   5.702  11.274   6.261
 2696SOL    HW1 9927   5.794  11.256   6.242
 2696SOL    HW2 9928   5.697  11.275   6.357
 2697SOL     OW 9929   6.698  11.800   4.623
 2697SOL    HW1 9930   6.737  11.887   4.614
 2697SOL    HW2 9931   6.660  11.800   4.711
 2698SOL     OW 9932  12.137  10.628   4.287
 2698SOL    HW1 9933  12.046  10.636   4.313
 2698SOL    HW2 9934  12.135  10.574   4.208
 2699SOL     OW 9935  14.081   9.036   1.172
 2699SOL    HW1 9936  14.102   9.003   1.084
 2699SOL    HW2 9937  14.050   8.960   1.220
 2700SOL     OW 9938   1.877   1.510   7.141
 2700SOL    HW1 9939   1.899   1.599   7.112
 2700SOL    HW2 9940   1.951   1.484   7.195
 2701SOL     OW 9941  11.613  10.916   2.090
 2701SOL    HW1 9942  11.557  10.994   2.091
 2701SOL    HW2 9943  11.560  10.849   2.047
 2702SOL     OW 9944   9.060   0.813   0.426
 2702SOL    HW1 9945   9.049   0.789   0.518
 2702SOL    HW2 9946   9.089   0.733   0.383
 2703SOL     OW 9947   1.249  13.465   7.517
 2703SOL    HW1 9948   1.212  13.402   7.578
 2703SOL    HW2 9949   1.173  13.508   7.478
 2704SOL     OW 9950   1.078   1.037   2.658
 2704SOL    HW1 9951   1.067   1.014   2.750
 2704SOL    HW2 9952   1.038   1.124   2.650
 2705SOL     OW 9953   1.150   9.600  10.625
 2705SOL    HW1 9954   1.204   9.672  10.659
 2705SOL    HW2 9955   1.062   9.637  10.620
 2706SOL     OW 9956   5.037   6.700  13.711
 2706SOL    HW1 9957   5.034   6.652  13.628
 2706SOL    HW2 9958   5.128   6.694  13.738
 2707SOL     OW 9959   8.505  11.407   0.840
 2707SOL    HW1 9960   8.516  11.495   0.875
 2707SOL    HW2 9961   8.427  11.373   0.883
 2708SOL     OW 9962   6.118   9.527   2.847
 2708SOL    HW1 9963   6.058   9.466   2.890
 2708SOL    HW2 9964   6.155   9.476   2.775
 2709SOL     OW 9965  14.284   3.828   0.698
 2709SOL    HW1 9966  14.223   3.894   0.730
 2709SOL    HW2 9967  14.303   3.774   0.774
 2710SOL     OW 9968   5.780   7.055   2.175
 2710SOL    HW1 9969   5.868   7.041   2.141
 2710SOL    HW2 9970   5.743   6.967   2.184
 2711SOL     OW 9971   7.590   4.891  13.839
 2711SOL    HW1 9972   7.569   4.850  13.923
 2711SOL    HW2 9973   7.551   4.832  13.774
 2712SOL     OW 9974   8.575  11.897   3.813
 2712SOL    HW1 9975   8.503  11.841   3.843
 2712SOL    HW2 9976   8.591  11.956   3.887
 2713SOL     OW 9977   2.276  11.225   5.766
 2713SOL    HW1 9978   2.275  11.144   5.715
 2713SOL    HW2 9979   2.339  11.209   5.836
 2714SOL     OW 9980   0.359   7.569   9.321
 2714SOL    HW1 9981   0.452   7.593   9.318
 2714SOL    HW2 9982   0.351   7.497   9.259
 2715SOL     OW 9983   7.818  14.240   0.863
 2715SOL    HW1 9984   7.875  14.245   0.786
 2715SOL    HW2 9985   7.879  14.234   0.937
 2716SOL     OW 9986   3.100   2.187   1.546
 2716SOL    HW1 9987   3.161   2.236   1.489
 2716SOL    HW2 9988   3.099   2.099   1.509
 2717SOL     OW 9989  12.370  11.394  10.818
 2717SOL    HW1 9990  12.299  11.424  10.873
 2717SOL    HW2 9991  12.382  11.464  10.754
 2718SOL     OW 9992   8.767   5.960  14.750
 2718SOL    HW1 9993   8.808   5.993  14.670
 2718SOL    HW2 9994   8.675   5.950  14.728
 2719SOL     OW 9995   1.457  12.067   1.300
 2719SOL    HW1 9996   1.440  12.117   1.220
 2719SOL    HW2 9997   1.473  11.978   1.269
 2720SOL     OW 9998   8.536   2.828   0.515
 2720SOL    HW1 9999   8.591   2.880   0.573
 2720SOL    HW210000   8.595   2.800   0.445
 2721SOL     OW10001   9.400   9.381   9.039
 2721SOL    HW110002   9.339   9.380   8.965
 2721SOL    HW210003   9.480   9.419   9.003
 2722SOL     OW10004   5.942   3.405   9.324
 2722SOL    HW110005   5.999   3.363   9.388
 2722SOL    HW210006   5.860   3.357   9.330
 2723SOL     OW10007  13.162   5.228  11.671
 2723SOL    HW110008  13.203   5.191  11.749
 2723SOL    HW210009  13.159   5.323  11.687
 2724SOL     OW10010   3.959   5.176   2.110
 2724SOL    HW110011   3.933   5.115   2.179
 2724SOL    HW210012   4.051   5.196   2.129
 2725SOL     OW10013   2.815   0.415   0.961
 2725SOL    HW110014   2.834   0.322   0.951
 2725SOL    HW210015   2.792   0.425   1.054
 2726SOL     OW10016   4.805   3.967   8.853
 2726SOL    HW110017   4.838   3.954   8.764
 2726SOL    HW210018   4.877   3.938   8.909
 2727SOL     OW10019   2.393   7.723  11.446
 2727SOL    HW110020   2.435   7.702  11.362
 2727SOL    HW210021   2.461   7.768  11.496
 2728SOL     OW10022   3.681   6.527   9.077
 2728SOL    HW110023   3.744   6.598   9.089
 2728SOL    HW210024   3.734   6.447   9.082
 2729SOL     OW10025  12.104   0.573   2.143
 2729SOL    HW110026  12.069   0.643   2.197
 2729SOL    HW210027  12.155   0.520   2.204
 2730SOL     OW10028  12.465   0.535   1.495
 2730SOL    HW110029  12.512   0.502   1.419
 2730SOL    HW210030  12.382   0.568   1.459
 2731SOL     OW10031   5.377   9.755   7.297
 2731SOL    HW110032   5.449   9.808   7.263
 2731SOL    HW210033   5.393   9.667   7.264
 2732SOL     OW10034   6.918   3.569   0.524
 2732SOL    HW110035   6.892   3.639   0.585
 2732SOL    HW210036   6.836   3.536   0.488
 2733SOL     OW10037  14.566  11.551   7.183
 2733SOL    HW110038  14.566  11.645   7.197
 2733SOL    HW210039  14.650  11.521   7.218
 2734SOL     OW10040  10.393   7.819   1.429
 2734SOL    HW110041  10.300   7.801   1.436
 2734SOL    HW210042  10.400   7.914   1.440
 2735SOL     OW10043  11.368   1.594  11.521
 2735SOL    HW110044  11.324   1.625  11.600
 2735SOL    HW210045  11.335   1.505  11.508
 2736SOL     OW10046   8.369   4.886   9.941
 2736SOL    HW110047   8.281   4.905   9.909
 2736SOL    HW210048   8.420   4.963   9.919
 2737SOL     OW10049  13.419   3.194   4.817
 2737SOL    HW110050  13.441   3.102   4.831
 2737SOL    HW210051  13.495   3.231   4.772
 2738SOL     OW10052   3.028   9.339   6.135
 2738SOL    HW110053   3.041   9.431   6.159
 2738SOL    HW210054   2.999   9.342   6.044
 2739SOL     OW10055   5.523   8.975  13.042
 2739SOL    HW110056   5.487   8.929  13.118
 2739SOL    HW210057   5.615   8.990  13.065
 2740SOL     OW10058   7.022  13.184   4.613
 2740SOL    HW110059   7.071  13.247   4.666
 2740SOL    HW210060   7.054  13.197   4.524
 2741SOL     OW10061   6.778  11.265   3.309
 2741SOL    HW110062   6.796  11.335   3.246
 2741SOL    HW210063   6.683  11.269   3.322
 2742SOL     OW10064   2.688   3.662  11.166
 2742SOL    HW110065   2.642   3.578  11.166
 2742SOL    HW210066   2.769   3.646  11.118
 2743SOL     OW10067   5.939   1.205   0.422
 2743SOL    HW110068   5.921   1.290   0.383
 2743SOL    HW210069   5.979   1.224   0.506
 2744SOL     OW10070   0.883   7.522  13.355
 2744SOL    HW110071   0.789   7.511  13.342
 2744SOL    HW210072   0.903   7.606  13.315
 2745SOL     OW10073   0.424   0.496  12.726
 2745SOL    HW110074   0.387   0.410  12.749
 2745SOL    HW210075   0.348   0.549  12.701
 2746SOL     OW10076   4.398  13.742  14.821
 2746SOL    HW110077   4.395  13.749  14.725
 2746SOL    HW210078   4.313  13.707  14.845
 2747SOL     OW10079   0.236   9.674   9.643
 2747SOL    HW110080   0.284   9.593   9.658
 2747SOL    HW210081   0.305   9.740   9.632
 2748SOL     OW10082   2.570   5.649   4.420
 2748SOL    HW110083   2.646   5.702   4.399
 2748SOL    HW210084   2.502   5.713   4.444
 2749SOL     OW10085   7.386   7.336   7.888
 2749SOL    HW110086   7.388   7.335   7.983
 2749SOL    HW210087   7.293   7.338   7.865
 2750SOL     OW10088   3.501   7.468   7.079
 2750SOL    HW110089   3.557   7.530   7.031
 2750SOL    HW210090   3.429   7.449   7.018
 2751SOL     OW10091  11.531   3.868   0.982
 2751SOL    HW110092  11.620   3.897   1.003
 2751SOL    HW210093  11.482   3.883   1.063
 2752SOL     OW10094   2.431   9.160   1.589
 2752SOL    HW110095   2.374   9.095   1.631
 2752SOL    HW210096   2.429   9.136   1.496
 2753SOL     OW10097   1.587   0.032   7.285
 2753SOL    HW110098   1.553   0.094   7.350
 2753SOL    HW210099   1.645   0.084   7.230
 2754SOL     OW10100   3.240  14.163  11.249
 2754SOL    HW110101   3.156  14.170  11.205
 2754SOL    HW210102   3.219  14.122  11.334
 2755SOL     OW10103   7.845   0.598   4.076
 2755SOL    HW110104   7.859   0.679   4.125
 2755SOL    HW210105   7.914   0.597   4.010
 2756SOL     OW10106   7.626   5.231  13.176
 2756SOL    HW110107   7.592   5.191  13.256
 2756SOL    HW210108   7.686   5.299  13.206
 2757SOL     OW10109  12.167   4.519   7.040
 2757SOL    HW110110  12.246   4.472   7.012
 2757SOL    HW210111  12.116   4.529   6.960
 2758SOL     OW10112  10.956   0.390   8.063
 2758SOL    HW110113  10.904   0.373   8.142
 2758SOL    HW210114  10.960   0.306   8.019
 2759SOL     OW10115   0.614  11.817   4.783
 2759SOL    HW110116   0.603  11.793   4.875
 2759SOL    HW210117   0.684  11.883   4.784
 2760SOL     OW10118   6.866   1.698   8.357
 2760SOL    HW110119   6.920   1.620   8.343
 2760SOL    HW210120   6.781   1.663   8.384
 2761SOL     OW10121   8.471   9.437  10.995
 2761SOL    HW110122   8.524   9.472  11.066
 2761SOL    HW210123   8.438   9.354  11.028
 2762SOL     OW10124  11.725   5.852   3.852
 2762SOL    HW110125  11.743   5.767   3.813
 2762SOL    HW210126  11.665   5.895   3.791
 2763SOL     OW10127   3.678  14.374   5.112
 2763SOL    HW110128   3.713  14.287   5.095
 2763SOL    HW210129   3.584  14.359   5.127
 2764SOL     OW10130   8.322  10.125   2.275
 2764SOL    HW110131   8.357  10.061   2.213
 2764SOL    HW210132   8.272  10.073   2.338
 2765SOL     OW10133  10.455  10.919   0.024
 2765SOL    HW110134  10.443  10.922  14.809
 2765SOL    HW210135  10.550  10.909   0.036
 2766SOL     OW10136   2.037   9.011  13.380
 2766SOL    HW110137   2.041   8.922  13.414
 2766SOL    HW210138   2.123   9.027  13.342
 2767SOL     OW10139   3.755   6.451  13.075
 2767SOL    HW110140   3.758   6.358  13.052
 2767SOL    HW210141   3.838   6.487  13.042
 2768SOL     OW10142   7.427  10.272   4.704
 2768SOL    HW110143   7.357  10.337   4.711
 2768SOL    HW210144   7.485  10.290   4.779
 2769SOL     OW10145  12.851  13.280   6.551
 2769SOL    HW110146  12.825  13.203   6.501
 2769SOL    HW210147  12.931  13.253   6.597
 2770SOL     OW10148   6.918   0.139   4.039
 2770SOL    HW110149   6.956   0.202   3.978
 2770SOL    HW210150   6.972   0.061   4.031
 2771SOL     OW10151   3.314   6.183   9.310
 2771SOL    HW110152   3.236   6.222   9.270
 2771SOL    HW210153   3.340   6.245   9.378
 2772SOL     OW10154   2.963   6.780   3.583
 2772SOL    HW110155   2.875   6.817   3.576
 2772SOL    HW210156   3.021   6.856   3.582
 2773SOL     OW10157   5.920   3.849   2.664
 2773SOL    HW110158   5.920   3.782   2.732
 2773SOL    HW210159   5.960   3.807   2.588
 2774SOL     OW10160   8.719  13.250   7.109
 2774SOL    HW110161   8.763  13.280   7.188
 2774SOL    HW210162   8.790  13.230   7.048
 2775SOL     OW10163   6.300   9.904  13.720
 2775SOL    HW110164   6.336   9.827  13.677
 2775SOL    HW210165   6.207   9.902  13.699
 2776SOL     OW10166   9.978   2.507   7.874
 2776SOL    HW110167   9.967   2.473   7.785
 2776SOL    HW210168   9.890   2.535   7.900
 2777SOL     OW10169  13.364   6.388   3.742
 2777SOL    HW110170  13.447   6.386   3.695
 2777SOL    HW210171  13.377   6.455   3.810
 2778SOL     OW10172   6.007  10.015   9.299
 2778SOL    HW110173   5.982   9.922   9.296
 2778SOL    HW210174   6.090  10.018   9.252
 2779SOL     OW10175  13.420  11.297   1.225
 2779SOL    HW110176  13.492  11.260   1.174
 2779SOL    HW210177  13.372  11.351   1.163
 2780SOL     OW10178   6.729   2.170   0.734
 2780SOL    HW110179   6.800   2.114   0.764
 2780SOL    HW210180   6.709   2.139   0.646
 2781SOL     OW10181  11.063   6.686   8.265
 2781SOL    HW110182  11.030   6.767   8.227
 2781SOL    HW210183  10.995   6.621   8.249
 2782SOL     OW10184   0.976   4.889   9.926
 2782SOL    HW110185   0.974   4.985   9.925
 2782SOL    HW210186   0.914   4.864   9.858
 2783SOL     OW10187  12.293  11.491   8.539
 2783SOL    HW110188  12.235  11.556   8.500
 2783SOL    HW210189  12.239  11.447   8.605
 2784SOL     OW10190  12.491   0.325  12.233
 2784SOL    HW110191  12.519   0.397  12.176
 2784SOL    HW210192  12.425   0.278  12.183
 2785SOL     OW10193   1.370   6.920  12.658
 2785SOL    HW110194   1.433   6.991  12.668
 2785SOL    HW210195   1.423   6.843  12.638
 2786SOL     OW10196   2.819   6.528   5.126
 2786SOL    HW110197   2.838   6.526   5.032
 2786SOL    HW210198   2.733   6.486   5.134
 2787SOL     OW10199  14.152   3.033   1.748
 2787SOL    HW110200  14.079   2.988   1.706
 2787SOL    HW210201  14.120   3.122   1.763
 2788SOL     OW10202   4.076  11.172   6.002
 2788SOL    HW110203   3.990  11.148   6.037
 2788SOL    HW210204   4.086  11.119   5.923
 2789SOL     OW10205   2.144   1.947   9.443
 2789SOL    HW110206   2.144   1.861   9.486
 2789SOL    HW210207   2.161   2.009   9.515
 2790SOL     OW10208   3.388   8.982   2.609
 2790SOL    HW110209   3.355   9.036   2.681
 2790SOL    HW210210   3.388   9.040   2.534
 2791SOL     OW10211   9.554   3.793   7.807
 2791SOL    HW110212   9.469   3.792   7.763
 2791SOL    HW210213   9.533   3.785   7.900
 2792SOL     OW10214   4.425  11.528  12.741
 2792SOL    HW110215   4.409  11.469  12.667
 2792SOL    HW210216   4.372  11.605  12.722
 2793SOL     OW10217   7.128   3.673  10.384
 2793SOL    HW110218   7.183   3.728  10.328
 2793SOL    HW210219   7.049   3.657  10.332
 2794SOL     OW10220   7.727   7.209   9.778
 2794SOL    HW110221   7.771   7.273   9.835
 2794SOL    HW210222   7.689   7.146   9.839
 2795SOL     OW10223   0.565  11.930  10.854
 2795SOL    HW110224   0.552  11.964  10.943
 2795SOL    HW210225   0.546  11.837  10.862
 2796SOL     OW10226   3.640   6.983  10.721
 2796SOL    HW110227   3.584   6.944  10.654
 2796SOL    HW210228   3.680   6.908  10.766
 2797SOL     OW10229   3.797   0.775   6.703
 2797SOL    HW110230   3.809   0.845   6.768
 2797SOL    HW210231   3.749   0.817   6.631
 2798SOL     OW10232   3.133   5.359   6.511
 2798SOL    HW110233   3.173   5.273   6.521
 2798SOL    HW210234   3.207   5.418   6.493
 2799SOL     OW10235  14.466   1.372   1.057
 2799SOL    HW110236  14.519   1.295   1.037
 2799SOL    HW210237  14.529   1.435   1.092
 2800SOL     OW10238   7.002   4.206  11.502
 2800SOL    HW110239   6.938   4.266  11.463
 2800SOL    HW210240   6.955   4.123  11.510
 2801SOL     OW10241  10.473  12.874  12.499
 2801SOL    HW110242  10.432  12.850  12.416
 2801SOL    HW210243  10.534  12.803  12.517
 2802SOL     OW10244   8.055   1.469  10.098
 2802SOL    HW110245   8.118   1.403  10.127
 2802SOL    HW210246   7.987   1.468  10.165
 2803SOL     OW10247   5.351  12.732   5.080
 2803SOL    HW110248   5.436  12.688   5.080
 2803SOL    HW210249   5.372  12.823   5.103
 2804SOL     OW10250  14.192   3.506  10.821
 2804SOL    HW110251  14.227   3.516  10.910
 2804SOL    HW210252  14.247   3.564  10.768
 2805SOL     OW10253  14.140   6.935  14.376
 2805SOL    HW110254  14.160   6.885  14.455
 2805SOL    HW210255  14.046   6.923  14.363
 2806SOL     OW10256  11.509   7.270  10.851
 2806SOL    HW110257  11.482   7.191  10.896
 2806SOL    HW210258  11.496   7.340  10.916
 2807SOL     OW10259   2.265   5.673   4.272
 2807SOL    HW110260   2.296   5.582   4.262
 2807SOL    HW210261   2.335   5.726   4.234
 2808SOL     OW10262   8.294   0.896   4.550
 2808SOL    HW110263   8.367   0.938   4.595
 2808SOL    HW210264   8.333   0.861   4.470
 2809SOL     OW10265   2.799   3.785   7.179
 2809SOL    HW110266   2.856   3.849   7.222
 2809SOL    HW210267   2.729   3.838   7.140
 2810SOL     OW10268   7.865   6.895   2.325
 2810SOL    HW110269   7.911   6.938   2.397
 2810SOL    HW210270   7.850   6.964   2.261
 2811SOL     OW10271   1.952   3.267  11.184
 2811SOL    HW110272   1.918   3.294  11.269
 2811SOL    HW210273   1.885   3.209  11.148
 2812SOL     OW10274   3.855  11.664  12.255
 2812SOL    HW110275   3.914  11.738  12.266
 2812SOL    HW210276   3.883  11.623  12.173
 2813SOL     OW10277   7.955   4.207  11.376
 2813SOL    HW110278   8.015   4.213  11.450
 2813SOL    HW210279   7.869   4.226  11.413
 2814SOL     OW10280   3.317   1.834   6.873
 2814SOL    HW110281   3.405   1.850   6.837
 2814SOL    HW210282   3.260   1.837   6.796
 2815SOL     OW10283   8.037   5.437  13.883
 2815SOL    HW110284   8.044   5.347  13.851
 2815SOL    HW210285   7.961   5.435  13.942
 2816SOL     OW10286   6.980   2.307   0.367
 2816SOL    HW110287   6.948   2.372   0.429
 2816SOL    HW210288   6.973   2.350   0.282
 2817SOL     OW10289  13.407   5.946   9.379
 2817SOL    HW110290  13.345   6.014   9.404
 2817SOL    HW210291  13.472   5.991   9.325
 2818SOL     OW10292  12.964  13.508  12.387
 2818SOL    HW110293  12.930  13.465  12.309
 2818SOL    HW210294  12.990  13.436  12.445
 2819SOL     OW10295  12.545   6.344  14.032
 2819SOL    HW110296  12.456   6.318  14.055
 2819SOL    HW210297  12.550   6.436  14.056
 2820SOL     OW10298   5.716  11.497  14.830
 2820SOL    HW110299   5.684  11.409  14.850
 2820SOL    HW210300   5.735  11.495  14.736
 2821SOL     OW10301   4.776   0.893  12.194
 2821SOL    HW110302   4.762   0.873  12.101
 2821SOL    HW210303   4.812   0.812  12.230
 2822SOL     OW10304  10.660   0.213   1.690
 2822SOL    HW110305  10.601   0.143   1.663
 2822SOL    HW210306  10.714   0.230   1.612
 2823SOL     OW10307   0.700   7.072   2.164
 2823SOL    HW110308   0.786   7.067   2.205
 2823SOL    HW210309   0.643   7.108   2.233
 2824SOL     OW10310   3.383   6.804   9.092
 2824SOL    HW110311   3.448   6.844   9.149
 2824SOL    HW210312   3.334   6.878   9.057
 2825SOL     OW10313   8.433   1.001   3.395
 2825SOL    HW110314   8.475   0.962   3.472
 2825SOL    HW210315   8.340   0.977   3.404
 2826SOL     OW10316   1.903   7.523   3.924
 2826SOL    HW110317   1.829   7.564   3.968
 2826SOL    HW210318   1.878   7.432   3.914
 2827SOL     OW10319   5.801   3.831  12.299
 2827SOL    HW110320   5.759   3.853  12.215
 2827SOL    HW210321   5.857   3.906  12.317
 2828SOL     OW10322  12.550  11.369  14.116
 2828SOL    HW110323  12.591  11.434  14.059
 2828SOL    HW210324  12.560  11.406  14.204
 2829SOL     OW10325   3.800   3.827   1.445
 2829SOL    HW110326   3.712   3.817   1.481
 2829SOL    HW210327   3.797   3.908   1.394
 2830SOL     OW10328   8.842  13.879  10.275
 2830SOL    HW110329   8.811  13.947  10.216
 2830SOL    HW210330   8.797  13.800  10.246
 2831SOL     OW10331   8.056   4.515   3.863
 2831SOL    HW110332   8.075   4.458   3.937
 2831SOL    HW210333   8.114   4.485   3.794
 2832SOL     OW10334   2.976   2.602   6.298
 2832SOL    HW110335   3.068   2.576   6.288
 2832SOL    HW210336   2.980   2.688   6.340
 2833SOL     OW10337   7.990   2.739  10.853
 2833SOL    HW110338   7.971   2.748  10.760
 2833SOL    HW210339   8.021   2.826  10.879
 2834SOL     OW10340   9.906   4.352  11.011
 2834SOL    HW110341   9.875   4.270  11.052
 2834SOL    HW210342   9.828   4.408  11.008
 2835SOL     OW10343  12.853   3.247   7.265
 2835SOL    HW110344  12.861   3.189   7.189
 2835SOL    HW210345  12.871   3.190   7.340
 2836SOL     OW10346   1.736   9.184   7.341
 2836SOL    HW110347   1.698   9.173   7.254
 2836SOL    HW210348   1.829   9.163   7.329
 2837SOL     OW10349  10.804   2.585   8.163
 2837SOL    HW110350  10.894   2.616   8.176
 2837SOL    HW210351  10.773   2.632   8.086
 2838SOL     OW10352   5.070   9.923  14.721
 2838SOL    HW110353   5.101   9.838  14.690
 2838SOL    HW210354   5.021   9.904  14.801
 2839SOL     OW10355   0.084   3.080  12.561
 2839SOL    HW110356  14.868   3.084  12.564
 2839SOL    HW210357   0.113   3.159  12.607
 2840SOL     OW10358  11.845  10.408   1.452
 2840SOL    HW110359  11.780  10.397   1.382
 2840SOL    HW210360  11.796  10.391   1.533
 2841SOL     OW10361  11.379   8.718   7.255
 2841SOL    HW110362  11.369   8.813   7.259
 2841SOL    HW210363  11.425   8.696   7.336
 2842SOL     OW10364   5.415  13.058   6.837
 2842SOL    HW110365   5.403  13.021   6.749
 2842SOL    HW210366   5.366  13.140   6.835
 2843SOL     OW10367   7.730   9.248   5.221
 2843SOL    HW110368   7.671   9.268   5.293
 2843SOL    HW210369   7.673   9.228   5.148
 2844SOL     OW10370   4.952  14.354   3.739
 2844SOL    HW110371   5.044  14.355   3.712
 2844SOL    HW210372   4.942  14.434   3.791
 2845SOL     OW10373  13.367  12.789   6.326
 2845SOL    HW110374  13.399  12.745   6.405
 2845SOL    HW210375  13.425  12.760   6.256
 2846SOL     OW10376  13.083   1.864   8.613
 2846SOL    HW110377  13.070   1.888   8.705
 2846SOL    HW210378  13.178   1.856   8.604
 2847SOL     OW10379   9.880   3.554   6.992
 2847SOL    HW110380   9.905   3.646   6.998
 2847SOL    HW210381   9.934   3.520   6.920
 2848SOL     OW10382   7.131   9.651   0.125
 2848SOL    HW110383   7.208   9.599   0.103
 2848SOL    HW210384   7.140   9.669   0.218
 2849SOL     OW10385   2.992   8.000   8.300
 2849SOL    HW110386   3.024   8.045   8.221
 2849SOL    HW210387   3.062   8.013   8.364
 2850SOL     OW10388   8.271   8.718   9.972
 2850SOL    HW110389   8.288   8.727   9.879
 2850SOL    HW210390   8.221   8.636   9.980
 2851SOL     OW10391   2.404   2.879  11.154
 2851SOL    HW110392   2.441   2.876  11.065
 2851SOL    HW210393   2.478   2.861  11.211
 2852SOL     OW10394   3.607  10.514   4.728
 2852SOL    HW110395   3.673  10.572   4.691
 2852SOL    HW210396   3.524  10.558   4.712
 2853SOL     OW10397   1.290   5.941  12.847
 2853SOL    HW110398   1.276   5.944  12.941
 2853SOL    HW210399   1.383   5.957  12.835
 2854SOL     OW10400   7.553  10.087   8.848
 2854SOL    HW110401   7.494  10.154   8.814
 2854SOL    HW210402   7.551  10.018   8.782
 2855SOL     OW10403   5.775  12.812   8.182
 2855SOL    HW110404   5.843  12.782   8.242
 2855SOL    HW210405   5.764  12.740   8.120
 2856SOL     OW10406   4.608  14.536   6.253
 2856SOL    HW110407   4.620  14.630   6.238
 2856SOL    HW210408   4.544  14.531   6.324
 2857SOL     OW10409   9.976   7.136   3.554
 2857SOL    HW110410   9.969   7.154   3.648
 2857SOL    HW210411   9.991   7.042   3.549
 2858SOL     OW10412   7.387   7.385   1.704
 2858SOL    HW110413   7.407   7.428   1.621
 2858SOL    HW210414   7.427   7.298   1.696
 2859SOL     OW10415  10.874  11.638  14.631
 2859SOL    HW110416  10.902  11.659  14.542
 2859SOL    HW210417  10.870  11.723  14.676
 2860SOL     OW10418  12.337   1.971   4.241
 2860SOL    HW110419  12.392   1.893   4.246
 2860SOL    HW210420  12.257   1.940   4.196
 2861SOL     OW10421   5.333   9.211   2.641
 2861SOL    HW110422   5.325   9.276   2.571
 2861SOL    HW210423   5.303   9.256   2.719
 2862SOL     OW10424   2.618   7.500  10.237
 2862SOL    HW110425   2.705   7.510  10.276
 2862SOL    HW210426   2.596   7.408  10.252
 2863SOL     OW10427   3.710   6.438  14.670
 2863SOL    HW110428   3.773   6.372  14.641
 2863SOL    HW210429   3.752   6.480  14.744
 2864SOL     OW10430  10.407  12.779   0.165
 2864SOL    HW110431  10.406  12.806   0.257
 2864SOL    HW210432  10.459  12.698   0.164
 2865SOL     OW10433   5.874   5.550  14.312
 2865SOL    HW110434   5.910   5.472  14.355
 2865SOL    HW210435   5.779   5.543  14.324
 2866SOL     OW10436  12.022  12.341   8.372
 2866SOL    HW110437  12.113  12.320   8.351
 2866SOL    HW210438  12.016  12.435   8.355
 2867SOL     OW10439   7.604  10.961   0.646
 2867SOL    HW110440   7.530  10.951   0.585
 2867SOL    HW210441   7.681  10.943   0.592
 2868SOL     OW10442   6.812  14.866   3.796
 2868SOL    HW110443   6.865  14.865   3.876
 2868SOL    HW210444   6.756   0.064   3.805
 2869SOL     OW10445  11.913   1.089   8.188
 2869SOL    HW110446  11.991   1.034   8.189
 2869SOL    HW210447  11.947   1.178   8.205
 2870SOL     OW10448   1.606   4.451  12.417
 2870SOL    HW110449   1.617   4.542  12.446
 2870SOL    HW210450   1.692   4.425  12.385
 2871SOL     OW10451   9.843   9.713   2.945
 2871SOL    HW110452   9.891   9.662   3.010
 2871SOL    HW210453   9.849   9.804   2.976
 2872SOL     OW10454   0.331  13.334   7.548
 2872SOL    HW110455   0.419  13.317   7.515
 2872SOL    HW210456   0.332  13.302   7.639
 2873SOL     OW10457   8.811   4.468  14.498
 2873SOL    HW110458   8.882   4.525  14.470
 2873SOL    HW210459   8.846   4.422  14.575
 2874SOL     OW10460   5.540   2.140  10.383
 2874SOL    HW110461   5.503   2.151  10.471
 2874SOL    HW210462   5.584   2.055  10.386
 2875SOL     OW10463   9.319   3.459   8.766
 2875SOL    HW110464   9.397   3.420   8.726
 2875SOL    HW210465   9.353   3.506   8.842
 2876SOL     OW10466   3.892  12.393   2.089
 2876SOL    HW110467   3.811  12.352   2.058
 2876SOL    HW210468   3.947  12.319   2.116
 2877SOL     OW10469   3.282  12.431  11.990
 2877SOL    HW110470   3.233  12.353  11.964
 2877SOL    HW210471   3.262  12.442  12.082
 2878SOL     OW10472   4.455   8.853  14.408
 2878SOL    HW110473   4.491   8.941  14.415
 2878SOL    HW210474   4.528   8.795  14.428
 2879SOL     OW10475  13.505   3.328  11.644
 2879SOL    HW110476  13.482   3.323  11.737
 2879SOL    HW210477  13.597   3.303  11.641
 2880SOL     OW10478   5.304   9.270   7.150
 2880SOL    HW110479   5.258   9.208   7.207
 2880SOL    HW210480   5.356   9.215   7.092
 2881SOL     OW10481  10.179   9.916   7.799
 2881SOL    HW110482  10.109   9.908   7.733
 2881SOL    HW210483  10.246   9.968   7.756
 2882SOL     OW10484   1.169   9.961   4.531
 2882SOL    HW110485   1.259   9.991   4.514
 2882SOL    HW210486   1.119  10.042   4.542
 2883SOL     OW10487   4.654   5.476  13.975
 2883SOL    HW110488   4.688   5.517  13.896
 2883SOL    HW210489   4.559   5.478  13.964
 2884SOL     OW10490   0.813   6.693   1.107
 2884SOL    HW110491   0.831   6.606   1.072
 2884SOL    HW210492   0.729   6.684   1.152
 2885SOL     OW10493   4.760   8.094   4.808
 2885SOL    HW110494   4.788   8.005   4.831
 2885SOL    HW210495   4.684   8.111   4.864
 2886SOL     OW10496  13.308  14.517   1.505
 2886SOL    HW110497  13.221  14.484   1.482
 2886SOL    HW210498  13.360  14.439   1.522
 2887SOL     OW10499  10.500   5.273  14.511
 2887SOL    HW110500  10.407   5.256  14.496
 2887SOL    HW210501  10.514   5.252  14.604
 2888SOL     OW10502   3.301  12.460   5.992
 2888SOL    HW110503   3.285  12.366   5.999
 2888SOL    HW210504   3.394  12.471   6.011
 2889SOL     OW10505   0.478   3.667  13.669
 2889SOL    HW110506   0.536   3.595  13.645
 2889SOL    HW210507   0.390   3.630  13.663
 2890SOL     OW10508   4.036   0.296   7.593
 2890SOL    HW110509   3.951   0.274   7.629
 2890SOL    HW210510   4.042   0.392   7.603
 2891SOL     OW10511   4.159   7.172   6.787
 2891SOL    HW110512   4.170   7.253   6.836
 2891SOL    HW210513   4.077   7.135   6.821
 2892SOL     OW10514   3.943   1.920  11.777
 2892SOL    HW110515   4.030   1.902  11.740
 2892SOL    HW210516   3.920   2.006  11.743
 2893SOL     OW10517  12.886   8.548  11.873
 2893SOL    HW110518  12.971   8.508  11.888
 2893SOL    HW210519  12.824   8.493  11.922
 2894SOL     OW10520   2.398   3.548  13.481
 2894SOL    HW110521   2.385   3.614  13.549
 2894SOL    HW210522   2.490   3.557  13.455
 2895SOL     OW10523   9.018   0.825  14.812
 2895SOL    HW110524   9.024   0.909  14.857
 2895SOL    HW210525   9.090   0.774  14.847
 2896SOL     OW10526  12.795  11.250  14.669
 2896SOL    HW110527  12.760  11.168  14.704
 2896SOL    HW210528  12.873  11.224  14.620
 2897SOL     OW10529   7.735   7.090   8.847
 2897SOL    HW110530   7.709   7.026   8.914
 2897SOL    HW210531   7.654   7.111   8.802
 2898SOL     OW10532   4.371   9.122  12.872
 2898SOL    HW110533   4.365   9.182  12.947
 2898SOL    HW210534   4.299   9.148  12.815
 2899SOL     OW10535   8.179   3.888   4.206
 2899SOL    HW110536   8.157   3.914   4.296
 2899SOL    HW210537   8.118   3.817   4.187
 2900SOL     OW10538  11.053   9.684   6.111
 2900SOL    HW110539  11.114   9.628   6.158
 2900SOL    HW210540  10.984   9.703   6.174
 2901SOL     OW10541  11.578   7.836   3.089
 2901SOL    HW110542  11.562   7.764   3.029
 2901SOL    HW210543  11.499   7.840   3.144
 2902SOL     OW10544   4.372  14.333   0.028
 2902SOL    HW110545   4.396  14.373   0.112
 2902SOL    HW210546   4.436  14.369  14.846
 2903SOL     OW10547   5.926   4.648   0.955
 2903SOL    HW110548   5.980   4.656   1.033
 2903SOL    HW210549   5.843   4.689   0.980
 2904SOL     OW10550   3.108   0.789   7.249
 2904SOL    HW110551   3.031   0.838   7.222
 2904SOL    HW210552   3.144   0.754   7.167
 2905SOL     OW10553   9.234  10.335  13.707
 2905SOL    HW110554   9.314  10.334  13.760
 2905SOL    HW210555   9.191  10.252  13.728
 2906SOL     OW10556   4.696   3.734  13.787
 2906SOL    HW110557   4.790   3.741  13.770
 2906SOL    HW210558   4.665   3.824  13.790
 2907SOL     OW10559   1.984  12.470   9.280
 2907SOL    HW110560   1.922  12.540   9.302
 2907SOL    HW210561   2.004  12.429   9.364
 2908SOL     OW10562   0.346   7.370   9.135
 2908SOL    HW110563   0.365   7.327   9.051
 2908SOL    HW210564   0.270   7.323   9.169
 2909SOL     OW10565   8.685  14.720  11.141
 2909SOL    HW110566   8.689  14.673  11.224
 2909SOL    HW210567   8.728  14.804  11.160
 2910SOL     OW10568   8.225  11.677   1.666
 2910SOL    HW110569   8.265  11.663   1.580
 2910SOL    HW210570   8.266  11.611   1.723
 2911SOL     OW10571   8.535   8.661  11.683
 2911SOL    HW110572   8.614   8.644  11.632
 2911SOL    HW210573   8.566   8.708  11.760
 2912SOL     OW10574  14.210   1.373   3.089
 2912SOL    HW110575  14.304   1.361   3.075
 2912SOL    HW210576  14.203   1.403   3.180
 2913SOL     OW10577  14.475   3.377   6.515
 2913SOL    HW110578  14.512   3.311   6.458
 2913SOL    HW210579  14.390   3.399   6.476
 2914SOL     OW10580   9.064  12.984   8.743
 2914SOL    HW110581   9.094  12.948   8.660
 2914SOL    HW210582   8.969  12.989   8.735
 2915SOL     OW10583   8.667   6.249   8.031
 2915SOL    HW110584   8.671   6.319   7.966
 2915SOL    HW210585   8.729   6.276   8.099
 2916SOL     OW10586  10.598  13.189   7.565
 2916SOL    HW110587  10.670  13.126   7.576
 2916SOL    HW210588  10.564  13.172   7.478
 2917SOL     OW10589   3.659   1.052   9.215
 2917SOL    HW110590   3.581   0.997   9.225
 2917SOL    HW210591   3.649   1.120   9.281
 2918SOL     OW10592  14.190  13.549   2.959
 2918SOL    HW110593  14.245  13.582   3.030
 2918SOL    HW210594  14.122  13.615   2.949
 2919SOL     OW10595   8.731  14.148   1.785
 2919SOL    HW110596   8.736  14.179   1.875
 2919SOL    HW210597   8.637  14.140   1.768
 2920SOL     OW10598   0.200  11.763  13.777
 2920SOL    HW110599   0.120  11.716  13.800
 2920SOL    HW210600   0.259  11.696  13.742
 2921SOL     OW10601   5.468   4.469   9.122
 2921SOL    HW110602   5.399   4.484   9.058
 2921SOL    HW210603   5.509   4.555   9.133
 2922SOL     OW10604  10.841   8.703  10.837
 2922SOL    HW110605  10.928   8.664  10.841
 2922SOL    HW210606  10.825   8.735  10.926
 2923SOL     OW10607   2.214   4.756   9.595
 2923SOL    HW110608   2.165   4.829   9.558
 2923SOL    HW210609   2.251   4.790   9.677
 2924SOL     OW10610   6.782   8.612  11.446
 2924SOL    HW110611   6.812   8.594  11.535
 2924SOL    HW210612   6.691   8.583  11.446
 2925SOL     OW10613   8.082   2.374   0.983
 2925SOL    HW110614   8.018   2.381   0.912
 2925SOL    HW210615   8.102   2.280   0.988
 2926SOL     OW10616  14.666   1.152   7.959
 2926SOL    HW110617  14.608   1.227   7.953
 2926SOL    HW210618  14.723   1.160   7.882
 2927SOL     OW10619   0.669   8.354   4.654
 2927SOL    HW110620   0.617   8.359   4.574
 2927SOL    HW210621   0.605   8.343   4.725
 2928SOL     OW10622   2.434  12.378   5.776
 2928SOL    HW110623   2.406  12.466   5.800
 2928SOL    HW210624   2.446  12.381   5.681
 2929SOL     OW10625  13.228  11.359  10.595
 2929SOL    HW110626  13.141  11.360  10.556
 2929SOL    HW210627  13.215  11.388  10.685
 2930SOL     OW10628   1.997  12.302   3.711
 2930SOL    HW110629   1.935  12.368   3.681
 2930SOL    HW210630   1.980  12.226   3.656
 2931SOL     OW10631   5.920   3.951  12.725
 2931SOL    HW110632   5.868   3.969  12.647
 2931SOL    HW210633   5.980   4.025  12.732
 2932SOL     OW10634   5.275  12.924   9.151
 2932SOL    HW110635   5.267  12.865   9.226
 2932SOL    HW210636   5.322  12.872   9.085
 2933SOL     OW10637   0.766  13.473  13.613
 2933SOL    HW110638   0.772  13.553  13.562
 2933SOL    HW210639   0.747  13.502  13.702
 2934SOL     OW10640   1.942   6.412   8.603
 2934SOL    HW110641   1.950   6.342   8.668
 2934SOL    HW210642   1.852   6.444   8.613
 2935SOL     OW10643  13.906   7.795  10.747
 2935SOL    HW110644  13.958   7.756  10.676
 2935SOL    HW210645  13.816   7.771  10.727
 2936SOL     OW10646   0.886   4.768   8.875
 2936SOL    HW110647   0.938   4.713   8.817
 2936SOL    HW210648   0.862   4.711   8.948
 2937SOL     OW10649  13.548   3.324   0.333
 2937SOL    HW110650  13.634   3.357   0.358
 2937SOL    HW210651  13.497   3.328   0.414
 2938SOL     OW10652   2.728   5.648  11.393
 2938SOL    HW110653   2.666   5.607  11.453
 2938SOL    HW210654   2.694   5.626  11.306
 2939SOL     OW10655  10.210   2.461   9.703
 2939SOL    HW110656  10.234   2.517   9.629
 2939SOL    HW210657  10.167   2.386   9.664
 2940SOL     OW10658   6.033   7.096  10.060
 2940SOL    HW110659   6.045   7.191  10.062
 2940SOL    HW210660   5.946   7.083  10.100
 2941SOL     OW10661   8.306   3.428  14.320
 2941SOL    HW110662   8.260   3.471  14.248
 2941SOL    HW210663   8.301   3.335  14.299
 2942SOL     OW10664   1.996   0.795  14.769
 2942SOL    HW110665   2.030   0.719  14.722
 2942SOL    HW210666   2.059   0.810  14.840
 2943SOL     OW10667   3.642   9.355   7.811
 2943SOL    HW110668   3.574   9.410   7.850
 2943SOL    HW210669   3.635   9.373   7.717
 2944SOL     OW10670   1.505   5.332   6.952
 2944SOL    HW110671   1.566   5.406   6.952
 2944SOL    HW210672   1.425   5.366   6.991
 2945SOL     OW10673  13.663  11.733   7.315
 2945SOL    HW110674  13.609  11.656   7.300
 2945SOL    HW210675  13.677  11.770   7.228
 2946SOL     OW10676   3.073  14.669   0.947
 2946SOL    HW110677   3.087  14.602   0.880
 2946SOL    HW210678   3.054  14.620   1.027
 2947SOL     OW10679   4.915   4.084   4.748
 2947SOL    HW110680   4.841   4.051   4.696
 2947SOL    HW210681   4.881   4.164   4.789
 2948SOL     OW10682   9.081   9.298   6.121
 2948SOL    HW110683   9.127   9.288   6.038
 2948SOL    HW210684   9.095   9.389   6.146
 2949SOL     OW10685  14.104   5.573  11.184
 2949SOL    HW110686  14.106   5.647  11.123
 2949SOL    HW210687  14.180   5.521  11.160
 2950SOL     OW10688   6.471  14.190   4.949
 2950SOL    HW110689   6.433  14.260   4.897
 2950SOL    HW210690   6.492  14.231   5.033
 2951SOL     OW10691   1.732   7.477   7.420
 2951SOL    HW110692   1.777   7.418   7.360
 2951SOL    HW210693   1.802   7.516   7.472
 2952SOL     OW10694   6.419   7.581  11.242
 2952SOL    HW110695   6.421   7.644  11.314
 2952SOL    HW210696   6.349   7.521  11.265
 2953SOL     OW10697   7.365   9.728   4.285
 2953SOL    HW110698   7.379   9.675   4.207
 2953SOL    HW210699   7.383   9.818   4.256
 2954SOL     OW10700   5.463   7.734   1.478
 2954SOL    HW110701   5.396   7.800   1.497
 2954SOL    HW210702   5.415   7.660   1.441
 2955SOL     OW10703   1.848   2.753   8.489
 2955SOL    HW110704   1.906   2.828   8.500
 2955SOL    HW210705   1.762   2.785   8.516
 2956SOL     OW10706  13.057   3.144   5.116
 2956SOL    HW110707  13.147   3.132   5.086
 2956SOL    HW210708  13.057   3.229   5.159
 2957SOL     OW10709  13.841  13.743   5.612
 2957SOL    HW110710  13.828  13.670   5.552
 2957SOL    HW210711  13.930  13.774   5.595
 2958SOL     OW10712  10.923  13.494   1.810
 2958SOL    HW110713  11.011  13.490   1.774
 2958SOL    HW210714  10.934  13.531   1.897
 2959SOL     OW10715   0.371   2.792   4.814
 2959SOL    HW110716   0.435   2.863   4.827
 2959SOL    HW210717   0.345   2.801   4.723
 2960SOL     OW10718   7.029   8.770   2.703
 2960SOL    HW110719   7.037   8.780   2.798
 2960SOL    HW210720   7.057   8.680   2.686
 2961SOL     OW10721  10.394   6.607   3.288
 2961SOL    HW110722  10.486   6.596   3.264
 2961SOL    HW210723  10.379   6.701   3.281
 2962SOL     OW10724   6.664   1.783   5.205
 2962SOL    HW110725   6.582   1.825   5.179
 2962SOL    HW210726   6.659   1.777   5.301
 2963SOL     OW10727   9.904   6.136   0.006
 2963SOL    HW110728   9.880   6.161   0.095
 2963SOL    HW210729   9.983   6.083   0.017
 2964SOL     OW10730  13.764   1.508   0.074
 2964SOL    HW110731  13.804   1.421   0.068
 2964SOL    HW210732  13.762   1.540  14.864
 2965SOL     OW10733  13.834   4.970  12.302
 2965SOL    HW110734  13.740   4.982  12.301
 2965SOL    HW210735  13.862   5.003  12.387
 2966SOL     OW10736  13.721   2.457  10.286
 2966SOL    HW110737  13.773   2.466  10.365
 2966SOL    HW210738  13.773   2.498  10.217
 2967SOL     OW10739   7.289  14.347  11.285
 2967SOL    HW110740   7.372  14.375  11.324
 2967SOL    HW210741   7.273  14.261  11.325
 2968SOL     OW10742   2.116   9.157  13.622
 2968SOL    HW110743   2.115   9.239  13.671
 2968SOL    HW210744   2.028   9.123  13.631
 2969SOL     OW10745  12.519   7.465  10.962
 2969SOL    HW110746  12.580   7.533  10.932
 2969SOL    HW210747  12.555   7.435  11.045
 2970SOL     OW10748  10.516   0.913   9.823
 2970SOL    HW110749  10.465   0.866   9.757
 2970SOL    HW210750  10.510   0.859   9.902
 2971SOL     OW10751   5.877  11.042   5.566
 2971SOL    HW110752   5.920  11.084   5.492
 2971SOL    HW210753   5.797  11.004   5.529
 2972SOL     OW10754   1.055   5.265   8.559
 2972SOL    HW110755   1.042   5.345   8.509
 2972SOL    HW210756   0.970   5.222   8.559
 2973SOL     OW10757   3.000   5.733  14.199
 2973SOL    HW110758   3.095   5.735  14.199
 2973SOL    HW210759   2.974   5.803  14.139
 2974SOL     OW10760   1.728  13.734   4.559
 2974SOL    HW110761   1.709  13.750   4.467
 2974SOL    HW210762   1.696  13.812   4.605
 2975SOL     OW10763   8.030   8.871  12.756
 2975SOL    HW110764   7.942   8.838  12.736
 2975SOL    HW210765   8.071   8.881  12.670
 2976SOL     OW10766   7.301   4.831  10.030
 2976SOL    HW110767   7.335   4.759  10.083
 2976SOL    HW210768   7.376   4.886  10.012
 2977SOL     OW10769  13.704   4.538   0.413
 2977SOL    HW110770  13.623   4.582   0.388
 2977SOL    HW210771  13.680   4.484   0.488
 2978SOL     OW10772   8.587  11.212  12.786
 2978SOL    HW110773   8.581  11.156  12.709
 2978SOL    HW210774   8.652  11.170  12.842
 2979SOL     OW10775  12.460  12.052  10.384
 2979SOL    HW110776  12.500  12.075  10.468
 2979SOL    HW210777  12.410  11.973  10.402
 2980SOL     OW10778   2.778  12.072   5.529
 2980SOL    HW110779   2.827  12.086   5.610
 2980SOL    HW210780   2.787  12.154   5.481
 2981SOL     OW10781  12.065   5.919  13.085
 2981SOL    HW110782  12.147   5.875  13.066
 2981SOL    HW210783  12.000   5.849  13.090
 2982SOL     OW10784  11.278   4.242  10.136
 2982SOL    HW110785  11.203   4.184  10.147
 2982SOL    HW210786  11.286   4.286  10.221
 2983SOL     OW10787  11.130   6.565   4.894
 2983SOL    HW110788  11.076   6.530   4.965
 2983SOL    HW210789  11.219   6.536   4.915
 2984SOL     OW10790   7.616  14.049   9.188
 2984SOL    HW110791   7.520  14.045   9.194
 2984SOL    HW210792   7.647  14.018   9.273
 2985SOL     OW10793   4.311   6.986  12.109
 2985SOL    HW110794   4.235   7.013  12.057
 2985SOL    HW210795   4.352   6.916  12.057
 2986SOL     OW10796  13.804  10.850   8.811
 2986SOL    HW110797  13.757  10.930   8.834
 2986SOL    HW210798  13.750  10.809   8.744
 2987SOL     OW10799   3.715  12.165   3.101
 2987SOL    HW110800   3.695  12.113   3.023
 2987SOL    HW210801   3.698  12.255   3.074
 2988SOL     OW10802   9.823   0.756  10.494
 2988SOL    HW110803   9.835   0.843  10.532
 2988SOL    HW210804   9.908   0.734  10.456
 2989SOL     OW10805  11.590   9.817  14.357
 2989SOL    HW110806  11.502   9.823  14.396
 2989SOL    HW210807  11.579   9.759  14.282
 2990SOL     OW10808  14.510   8.195  14.032
 2990SOL    HW110809  14.417   8.176  14.023
 2990SOL    HW210810  14.548   8.114  14.065
 2991SOL     OW10811   6.256  13.499   6.969
 2991SOL    HW110812   6.268  13.428   6.906
 2991SOL    HW210813   6.313  13.569   6.936
 2992SOL     OW10814  11.670  12.477  13.133
 2992SOL    HW110815  11.611  12.403  13.119
 2992SOL    HW210816  11.702  12.499  13.046
 2993SOL     OW10817  13.040  10.777   3.942
 2993SOL    HW110818  13.027  10.871   3.932
 2993SOL    HW210819  13.117  10.769   3.998
 2994SOL     OW10820   1.307   5.618  12.337
 2994SOL    HW110821   1.361   5.694  12.360
 2994SOL    HW210822   1.362   5.565  12.280
 2995SOL     OW10823   1.433   6.841   6.019
 2995SOL    HW110824   1.343   6.842   6.051
 2995SOL    HW210825   1.432   6.779   5.946
 2996SOL     OW10826   5.427   2.220  12.575
 2996SOL    HW110827   5.445   2.253  12.488
 2996SOL    HW210828   5.397   2.296  12.625
 2997SOL     OW10829  12.771  13.854   8.364
 2997SOL    HW110830  12.755  13.804   8.284
 2997SOL    HW210831  12.856  13.894   8.351
 2998SOL     OW10832   3.509   6.088  10.448
 2998SOL    HW110833   3.491   6.066  10.540
 2998SOL    HW210834   3.510   6.184  10.446
 2999SOL     OW10835  12.769   1.370   4.973
 2999SOL    HW110836  12.796   1.282   4.949
 2999SOL    HW210837  12.784   1.375   5.068
 3000SOL     OW10838   7.729   4.077  14.365
 3000SOL    HW110839   7.761   4.058  14.276
 3000SOL    HW210840   7.643   4.036  14.369
 3001SOL     OW10841   5.735   8.991   5.667
 3001SOL    HW110842   5.687   8.941   5.600
 3001SOL    HW210843   5.774   8.924   5.723
 3002SOL     OW10844  14.751   2.828   4.128
 3002SOL    HW110845  14.692   2.852   4.199
 3002SOL    HW210846  14.751   2.905   4.070
 3003SOL     OW10847   0.297   4.804   7.525
 3003SOL    HW110848   0.358   4.878   7.526
 3003SOL    HW210849   0.287   4.780   7.617
 3004SOL     OW10850   3.314  14.793  11.017
 3004SOL    HW110851   3.223  14.772  11.040
 3004SOL    HW210852   3.308  14.878  10.972
 3005SOL     OW10853  10.749  13.055  11.929
 3005SOL    HW110854  10.788  13.099  11.854
 3005SOL    HW210855  10.794  13.091  12.005
 3006SOL     OW10856   0.381   5.151  10.810
 3006SOL    HW110857   0.344   5.152  10.721
 3006SOL    HW210858   0.412   5.061  10.822
 3007SOL     OW10859   6.876   9.888  11.488
 3007SOL    HW110860   6.814   9.818  11.508
 3007SOL    HW210861   6.836   9.967  11.526
 3008SOL     OW10862   9.011  11.556   4.730
 3008SOL    HW110863   9.058  11.496   4.672
 3008SOL    HW210864   8.920  11.528   4.726
 3009SOL     OW10865   9.132  11.641   1.333
 3009SOL    HW110866   9.221  11.650   1.299
 3009SOL    HW210867   9.095  11.566   1.286
 3010SOL     OW10868   5.584   0.407   2.092
 3010SOL    HW110869   5.652   0.400   2.159
 3010SOL    HW210870   5.609   0.342   2.026
 3011SOL     OW10871   5.618  10.129   5.754
 3011SOL    HW110872   5.578  10.062   5.810
 3011SOL    HW210873   5.697  10.088   5.719
 3012SOL     OW10874  13.318   5.475   7.705
 3012SOL    HW110875  13.289   5.394   7.747
 3012SOL    HW210876  13.257   5.488   7.632
 3013SOL     OW10877   1.093   9.445   9.713
 3013SOL    HW110878   1.122   9.524   9.758
 3013SOL    HW210879   1.038   9.477   9.641
 3014SOL     OW10880   6.946   1.748   3.752
 3014SOL    HW110881   6.923   1.656   3.764
 3014SOL    HW210882   6.934   1.787   3.839
 3015SOL     OW10883  10.418   9.153   4.795
 3015SOL    HW110884  10.408   9.224   4.859
 3015SOL    HW210885  10.454   9.080   4.846
 3016SOL     OW10886   1.020   6.695   6.013
 3016SOL    HW110887   1.069   6.762   6.061
 3016SOL    HW210888   1.082   6.622   6.004
 3017SOL     OW10889   6.239   5.484  14.313
 3017SOL    HW110890   6.239   5.521  14.401
 3017SOL    HW210891   6.258   5.391  14.326
 3018SOL     OW10892   0.117   2.841  14.866
 3018SOL    HW110893   0.114   2.934   0.009
 3018SOL    HW210894   0.061   2.798   0.051
 3019SOL     OW10895   2.242   6.358   4.542
 3019SOL    HW110896   2.244   6.351   4.637
 3019SOL    HW210897   2.209   6.446   4.524
 3020SOL     OW10898  14.175  10.871   4.277
 3020SOL    HW110899  14.249  10.919   4.240
 3020SOL    HW210900  14.215  10.803   4.330
 3021SOL     OW10901   1.096   1.755  11.149
 3021SOL    HW110902   1.140   1.709  11.220
 3021SOL    HW210903   1.069   1.686  11.089
 3022SOL     OW10904  14.134   1.409   2.188
 3022SOL    HW110905  14.097   1.474   2.248
 3022SOL    HW210906  14.153   1.458   2.108
 3023SOL     OW10907   4.417  13.469   8.588
 3023SOL    HW110908   4.496  13.416   8.592
 3023SOL    HW210909   4.447  13.559   8.600
 3024SOL     OW10910   7.354   1.913   8.119
 3024SOL    HW110911   7.326   1.838   8.170
 3024SOL    HW210912   7.426   1.951   8.169
 3025SOL     OW10913  10.046   5.408  11.336
 3025SOL    HW110914  10.052   5.312  11.342
 3025SOL    HW210915  10.016   5.435  11.423
 3026SOL     OW10916  12.997   9.775   4.817
 3026SOL    HW110917  12.907   9.752   4.793
 3026SOL    HW210918  13.010   9.861   4.777
 3027SOL     OW10919   0.848  12.611   4.057
 3027SOL    HW110920   0.897  12.540   4.015
 3027SOL    HW210921   0.896  12.628   4.138
 3028SOL     OW10922  14.875  13.723   2.139
 3028SOL    HW110923   0.057  13.794   2.121
 3028SOL    HW210924   0.049  13.644   2.139
 3029SOL     OW10925   7.804   1.714   1.716
 3029SOL    HW110926   7.850   1.746   1.793
 3029SOL    HW210927   7.871   1.669   1.665
 3030SOL     OW10928  11.012   9.150   4.851
 3030SOL    HW110929  11.067   9.079   4.883
 3030SOL    HW210930  10.923   9.123   4.875
 3031SOL     OW10931   5.481   4.165   4.967
 3031SOL    HW110932   5.439   4.094   4.918
 3031SOL    HW210933   5.424   4.240   4.954
 3032SOL     OW10934   0.600   9.143  13.007
 3032SOL    HW110935   0.562   9.217  13.055
 3032SOL    HW210936   0.662   9.103  13.068
 3033SOL     OW10937   8.905  11.839   0.929
 3033SOL    HW110938   8.941  11.751   0.917
 3033SOL    HW210939   8.851  11.832   1.008
 3034SOL     OW10940  14.291  12.148  12.718
 3034SOL    HW110941  14.198  12.129  12.735
 3034SOL    HW210942  14.337  12.073  12.755
 3035SOL     OW10943   9.073   1.998  13.089
 3035SOL    HW110944   9.059   2.079  13.137
 3035SOL    HW210945   9.128   2.023  13.015
 3036SOL     OW10946   5.605   2.665   1.986
 3036SOL    HW110947   5.560   2.581   1.994
 3036SOL    HW210948   5.676   2.660   2.051
 3037SOL     OW10949   5.943   4.389   0.461
 3037SOL    HW110950   5.973   4.441   0.536
 3037SOL    HW210951   6.023   4.349   0.427
 3038SOL     OW10952  14.453   1.504   0.493
 3038SOL    HW110953  14.516   1.477   0.559
 3038SOL    HW210954  14.504   1.556   0.431
 3039SOL     OW10955   7.567   9.306   4.612
 3039SOL    HW110956   7.652   9.321   4.654
 3039SOL    HW210957   7.546   9.390   4.571
 3040SOL     OW10958   4.488  12.853   4.161
 3040SOL    HW110959   4.514  12.778   4.215
 3040SOL    HW210960   4.554  12.920   4.180
 3041SOL     OW10961  14.828  10.368   6.371
 3041SOL    HW110962  14.875  10.348   6.290
 3041SOL    HW210963  14.748  10.315   6.366
 3042SOL     OW10964  11.903   9.500   3.006
 3042SOL    HW110965  11.872   9.590   3.008
 3042SOL    HW210966  11.889   9.472   2.915
 3043SOL     OW10967   5.734   8.462   5.003
 3043SOL    HW110968   5.776   8.397   5.060
 3043SOL    HW210969   5.661   8.415   4.964
 3044SOL     OW10970  12.858   3.084   0.764
 3044SOL    HW110971  12.781   3.031   0.739
 3044SOL    HW210972  12.918   3.075   0.690
 3045SOL     OW10973   3.589   8.546   1.280
 3045SOL    HW110974   3.626   8.622   1.325
 3045SOL    HW210975   3.634   8.544   1.196
 3046SOL     OW10976   8.317   3.628  10.569
 3046SOL    HW110977   8.242   3.582  10.530
 3046SOL    HW210978   8.279   3.707  10.608
 3047SOL     OW10979   7.965  12.121   1.494
 3047SOL    HW110980   7.968  12.083   1.406
 3047SOL    HW210981   8.024  12.067   1.545
 3048SOL     OW10982  11.341   8.896   5.304
 3048SOL    HW110983  11.376   8.841   5.234
 3048SOL    HW210984  11.289   8.836   5.357
 3049SOL     OW10985  12.791   0.455   6.355
 3049SOL    HW110986  12.705   0.414   6.357
 3049SOL    HW210987  12.845   0.395   6.303
 3050SOL     OW10988   9.754   3.936   2.441
 3050SOL    HW110989   9.790   3.994   2.374
 3050SOL    HW210990   9.816   3.942   2.514
 3051SOL     OW10991   7.419   1.205   8.095
 3051SOL    HW110992   7.424   1.259   8.016
 3051SOL    HW210993   7.333   1.162   8.089
 3052SOL     OW10994   4.507  10.012   1.697
 3052SOL    HW110995   4.500   9.975   1.785
 3052SOL    HW210996   4.478  10.102   1.706
 3053SOL     OW10997  10.894  12.284  12.829
 3053SOL    HW110998  10.880  12.213  12.892
 3053SOL    HW210999  10.850  12.360  12.868
 3054SOL     OW11000   6.210   3.564  11.413
 3054SOL    HW111001   6.293   3.518  11.399
 3054SOL    HW211002   6.147   3.516  11.359
 3055SOL     OW11003   8.484   2.725   5.020
 3055SOL    HW111004   8.551   2.684   4.965
 3055SOL    HW211005   8.493   2.682   5.105
 3056SOL     OW11006  12.202  14.789   5.263
 3056SOL    HW111007  12.229  14.718   5.321
 3056SOL    HW211008  12.284  14.829   5.234
 3057SOL     OW11009   7.005  12.126  11.590
 3057SOL    HW111010   6.953  12.130  11.670
 3057SOL    HW211011   7.093  12.104  11.619
 3058SOL     OW11012   7.040   3.410   8.735
 3058SOL    HW111013   6.975   3.379   8.798
 3058SOL    HW211014   6.991   3.417   8.652
 3059SOL     OW11015  11.252   2.391   7.199
 3059SOL    HW111016  11.250   2.440   7.117
 3059SOL    HW211017  11.160   2.370   7.216
 3060SOL     OW11018  12.533   5.400  12.432
 3060SOL    HW111019  12.589   5.450  12.492
 3060SOL    HW211020  12.593   5.373  12.362
 3061SOL     OW11021   0.490  13.365  12.273
 3061SOL    HW111022   0.441  13.397  12.348
 3061SOL    HW211023   0.471  13.272  12.269
 3062SOL     OW11024   2.845   7.963   0.155
 3062SOL    HW111025   2.893   7.930   0.231
 3062SOL    HW211026   2.853   7.894   0.090
 3063SOL     OW11027  12.215   9.878   7.431
 3063SOL    HW111028  12.145   9.815   7.450
 3063SOL    HW211029  12.174   9.963   7.446
 3064SOL     OW11030  13.789   1.766   1.730
 3064SOL    HW111031  13.719   1.708   1.762
 3064SOL    HW211032  13.829   1.801   1.809
 3065SOL     OW11033  12.104  12.112   6.163
 3065SOL    HW111034  12.019  12.138   6.128
 3065SOL    HW211035  12.088  12.031   6.210
 3066SOL     OW11036   0.498   6.635   1.241
 3066SOL    HW111037   0.524   6.600   1.326
 3066SOL    HW211038   0.473   6.558   1.190
 3067SOL     OW11039   5.790  13.834   0.777
 3067SOL    HW111040   5.847  13.829   0.854
 3067SOL    HW211041   5.765  13.926   0.772
 3068SOL     OW11042   3.187   0.953   4.268
 3068SOL    HW111043   3.233   0.933   4.186
 3068SOL    HW211044   3.101   0.911   4.257
 3069SOL     OW11045  13.017  11.514   0.272
 3069SOL    HW111046  13.109  11.486   0.273
 3069SOL    HW211047  13.021  11.609   0.261
 3070SOL     OW11048   5.652  11.201  14.139
 3070SOL    HW111049   5.740  11.167  14.155
 3070SOL    HW211050   5.594  11.132  14.173
 3071SOL     OW11051   5.558  14.262   4.507
 3071SOL    HW111052   5.627  14.272   4.573
 3071SOL    HW211053   5.600  14.216   4.435
 3072SOL     OW11054   5.282  12.989   8.451
 3072SOL    HW111055   5.229  12.977   8.529
 3072SOL    HW211056   5.243  12.930   8.386
 3073SOL     OW11057   4.004  13.868   6.793
 3073SOL    HW111058   3.919  13.911   6.801
 3073SOL    HW211059   4.042  13.903   6.712
 3074SOL     OW11060   0.448   8.512   3.090
 3074SOL    HW111061   0.409   8.431   3.124
 3074SOL    HW211062   0.418   8.580   3.151
 3075SOL     OW11063   1.172   5.843   0.745
 3075SOL    HW111064   1.215   5.913   0.696
 3075SOL    HW211065   1.140   5.783   0.678
 3076SOL     OW11066   7.972   2.793   7.893
 3076SOL    HW111067   7.948   2.707   7.928
 3076SOL    HW211068   8.008   2.840   7.967
 3077SOL     OW11069  12.653  12.799   9.473
 3077SOL    HW111070  12.736  12.846   9.487
 3077SOL    HW211071  12.600  12.861   9.423
 3078SOL     OW11072   1.138   0.323   2.339
 3078SOL    HW111073   1.198   0.258   2.377
 3078SOL    HW211074   1.161   0.325   2.246
 3079SOL     OW11075   3.299   0.155   2.944
 3079SOL    HW111076   3.364   0.095   2.981
 3079SOL    HW211077   3.269   0.206   3.020
 3080SOL     OW11078   8.484   3.765   4.816
 3080SOL    HW111079   8.561   3.823   4.819
 3080SOL    HW211080   8.435   3.793   4.739
 3081SOL     OW11081   8.943   2.005  14.546
 3081SOL    HW111082   8.852   2.004  14.517
 3081SOL    HW211083   8.987   2.066  14.486
 3082SOL     OW11084   8.645   1.175   0.535
 3082SOL    HW111085   8.734   1.163   0.570
 3082SOL    HW211086   8.652   1.148   0.444
 3083SOL     OW11087   7.719   7.750  11.441
 3083SOL    HW111088   7.752   7.828  11.398
 3083SOL    HW211089   7.795   7.713  11.485
 3084SOL     OW11090   7.492   2.704   4.921
 3084SOL    HW111091   7.483   2.613   4.893
 3084SOL    HW211092   7.412   2.747   4.892
 3085SOL     OW11093  11.052   5.635   3.322
 3085SOL    HW111094  11.066   5.695   3.396
 3085SOL    HW211095  11.028   5.551   3.363
 3086SOL     OW11096  14.455   0.312   4.931
 3086SOL    HW111097  14.537   0.278   4.896
 3086SOL    HW211098  14.416   0.362   4.859
 3087SOL     OW11099   3.071  13.328   3.005
 3087SOL    HW111100   3.112  13.407   3.039
 3087SOL    HW211101   3.033  13.285   3.082
 3088SOL     OW11102  12.733  14.688   3.035
 3088SOL    HW111103  12.802  14.724   3.091
 3088SOL    HW211104  12.660  14.748   3.045
 3089SOL     OW11105   1.583   5.270   6.325
 3089SOL    HW111106   1.639   5.344   6.301
 3089SOL    HW211107   1.619   5.238   6.408
 3090SOL     OW11108  14.401   9.973  12.921
 3090SOL    HW111109  14.318   9.970  12.969
 3090SOL    HW211110  14.378  10.013  12.837
 3091SOL     OW11111   7.904  12.654  14.504
 3091SOL    HW111112   7.950  12.604  14.572
 3091SOL    HW211113   7.970  12.714  14.470
 3092SOL     OW11114   5.930   2.051   7.146
 3092SOL    HW111115   5.865   2.110   7.110
 3092SOL    HW211116   6.014   2.094   7.129
 3093SOL     OW11117   2.458   3.568  14.698
 3093SOL    HW111118   2.492   3.497  14.751
 3093SOL    HW211119   2.515   3.570  14.621
 3094SOL     OW11120   3.154  11.993   2.066
 3094SOL    HW111121   3.142  12.087   2.053
 3094SOL    HW211122   3.111  11.975   2.150
 3095SOL     OW11123  13.282   8.579  14.786
 3095SOL    HW111124  13.230   8.499  14.780
 3095SOL    HW211125  13.259   8.616  14.872
 3096SOL     OW11126  10.536  11.471  10.822
 3096SOL    HW111127  10.621  11.451  10.863
 3096SOL    HW211128  10.509  11.388  10.782
 3097SOL     OW11129   6.899  12.612   1.630
 3097SOL    HW111130   6.903  12.517   1.616
 3097SOL    HW211131   6.985  12.634   1.666
 3098SOL     OW11132   3.458   1.358   7.525
 3098SOL    HW111133   3.521   1.424   7.498
 3098SOL    HW211134   3.496   1.321   7.605
 3099SOL     OW11135   5.184   1.660   1.474
 3099SOL    HW111136   5.144   1.608   1.405
 3099SOL    HW211137   5.268   1.619   1.490
 3100SOL     OW11138  12.264   4.365   6.330
 3100SOL    HW111139  12.263   4.428   6.258
 3100SOL    HW211140  12.289   4.282   6.289
 3101SOL     OW11141   3.781   5.459   5.616
 3101SOL    HW111142   3.808   5.546   5.644
 3101SOL    HW211143   3.698   5.472   5.570
 3102SOL     OW11144  11.922  12.416  14.213
 3102SOL    HW111145  11.959  12.453  14.133
 3102SOL    HW211146  11.846  12.366  14.183
 3103SOL     OW11147   7.081   4.047   0.430
 3103SOL    HW111148   7.137   4.124   0.426
 3103SOL    HW211149   7.130   3.979   0.383
 3104SOL     OW11150   6.608   1.019  10.272
 3104SOL    HW111151   6.596   1.028  10.177
 3104SOL    HW211152   6.702   1.032  10.285
 3105SOL     OW11153  10.752   8.468  12.565
 3105SOL    HW111154  10.667   8.481  12.608
 3105SOL    HW211155  10.732   8.470  12.472
 3106SOL     OW11156  11.844  10.518   3.201
 3106SOL    HW111157  11.824  10.611   3.197
 3106SOL    HW211158  11.774  10.475   3.153
 3107SOL     OW11159   8.751   2.273  13.858
 3107SOL    HW111160   8.842   2.265  13.831
 3107SOL    HW211161   8.734   2.368  13.857
 3108SOL     OW11162   1.914   8.323   5.214
 3108SOL    HW111163   1.831   8.370   5.208
 3108SOL    HW211164   1.932   8.294   5.125
 3109SOL     OW11165   3.112   8.296  12.841
 3109SOL    HW111166   3.130   8.241  12.764
 3109SOL    HW211167   3.139   8.383  12.814
 3110SOL     OW11168   6.142   5.911   6.771
 3110SOL    HW111169   6.125   5.823   6.736
 3110SOL    HW211170   6.139   5.899   6.866
 3111SOL     OW11171   1.249  10.948   3.126
 3111SOL    HW111172   1.314  11.002   3.171
 3111SOL    HW211173   1.169  11.000   3.126
 3112SOL     OW11174  11.585   5.282  14.111
 3112SOL    HW111175  11.591   5.262  14.018
 3112SOL    HW211176  11.659   5.237  14.150
 3113SOL     OW11177  11.549   2.544   8.120
 3113SOL    HW111178  11.636   2.575   8.097
 3113SOL    HW211179  11.489   2.604   8.076
 3114SOL     OW11180   7.570  13.266  12.296
 3114SOL    HW111181   7.654  13.222  12.305
 3114SOL    HW211182   7.555  13.308  12.381
 3115SOL     OW11183  11.749   2.168   6.254
 3115SOL    HW111184  11.781   2.250   6.215
 3115SOL    HW211185  11.818   2.142   6.315
 3116SOL     OW11186   8.207  13.760   9.586
 3116SOL    HW111187   8.156  13.743   9.664
 3116SOL    HW211188   8.183  13.690   9.525
 3117SOL     OW11189   4.112  12.443  12.633
 3117SOL    HW111190   4.090  12.390  12.709
 3117SOL    HW211191   4.081  12.531  12.655
 3118SOL     OW11192  13.790   9.154  12.290
 3118SOL    HW111193  13.717   9.185  12.345
 3118SOL    HW211194  13.868   9.167  12.344
 3119SOL     OW11195  13.813   4.953   5.368
 3119SOL    HW111196  13.906   4.940   5.349
 3119SOL    HW211197  13.808   5.043   5.401
 3120SOL     OW11198  10.293  11.256  13.294
 3120SOL    HW111199  10.302  11.271  13.200
 3120SOL    HW211200  10.259  11.167  13.301
 3121SOL     OW11201  13.046   7.235  13.833
 3121SOL    HW111202  13.049   7.312  13.890
 3121SOL    HW211203  13.061   7.270  13.745
 3122SOL     OW11204   7.344   2.674   0.073
 3122SOL    HW111205   7.314   2.602   0.128
 3122SOL    HW211206   7.435   2.653   0.053
 3123SOL     OW11207   7.497  12.447   9.015
 3123SOL    HW111208   7.445  12.505   9.071
 3123SOL    HW211209   7.573  12.423   9.068
 3124SOL     OW11210   8.400  10.096   9.771
 3124SOL    HW111211   8.315  10.129   9.801
 3124SOL    HW211212   8.454  10.175   9.761
 3125SOL     OW11213   8.652   6.255   0.062
 3125SOL    HW111214   8.572   6.208   0.084
 3125SOL    HW211215   8.723   6.195   0.086
 3126SOL     OW11216  10.238   3.973   3.288
 3126SOL    HW111217  10.281   3.901   3.242
 3126SOL    HW211218  10.308   4.013   3.340
 3127SOL     OW11219   6.623   4.979  10.947
 3127SOL    HW111220   6.571   4.899  10.960
 3127SOL    HW211221   6.708   4.958  10.987
 3128SOL     OW11222   7.190  12.330   1.970
 3128SOL    HW111223   7.275  12.314   1.930
 3128SOL    HW211224   7.200  12.301   2.061
 3129SOL     OW11225   0.014   4.777   7.456
 3129SOL    HW111226  14.858   4.858   7.492
 3129SOL    HW211227   0.108   4.780   7.477
 3130SOL     OW11228   1.448   2.094   1.404
 3130SOL    HW111229   1.417   2.172   1.449
 3130SOL    HW211230   1.447   2.117   1.312
 3131SOL     OW11231  10.329   5.335  10.905
 3131SOL    HW111232  10.328   5.430  10.895
 3131SOL    HW211233  10.325   5.302  10.815
 3132SOL     OW11234   5.762   7.770   5.077
 3132SOL    HW111235   5.840   7.769   5.132
 3132SOL    HW211236   5.697   7.819   5.128
 3133SOL     OW11237   1.587   7.503  13.095
 3133SOL    HW111238   1.498   7.467  13.097
 3133SOL    HW211239   1.577   7.587  13.049
 3134SOL     OW11240   2.799   2.901   3.502
 3134SOL    HW111241   2.884   2.897   3.457
 3134SOL    HW211242   2.746   2.961   3.450
 3135SOL     OW11243  13.128   3.916   4.691
 3135SOL    HW111244  13.157   3.848   4.630
 3135SOL    HW211245  13.118   3.871   4.775
 3136SOL     OW11246   8.700   2.343  12.455
 3136SOL    HW111247   8.686   2.378  12.367
 3136SOL    HW211248   8.783   2.381  12.483
 3137SOL     OW11249   3.791   8.139   7.126
 3137SOL    HW111250   3.856   8.140   7.056
 3137SOL    HW211251   3.841   8.115   7.204
 3138SOL     OW11252   8.493  11.517   2.353
 3138SOL    HW111253   8.567  11.485   2.301
 3138SOL    HW211254   8.502  11.612   2.352
 3139SOL     OW11255   8.977  10.604   6.737
 3139SOL    HW111256   8.998  10.511   6.749
 3139SOL    HW211257   9.043  10.650   6.788
 3140SOL     OW11258  12.909  12.504   7.269
 3140SOL    HW111259  12.817  12.523   7.287
 3140SOL    HW211260  12.926  12.422   7.315
 3141SOL     OW11261   4.783   0.415   3.319
 3141SOL    HW111262   4.748   0.456   3.399
 3141SOL    HW211263   4.793   0.322   3.342
 3142SOL     OW11264   7.979   4.316   6.201
 3142SOL    HW111265   7.934   4.362   6.273
 3142SOL    HW211266   7.908   4.284   6.146
 3143SOL     OW11267  11.331   9.533  11.652
 3143SOL    HW111268  11.395   9.594  11.688
 3143SOL    HW211269  11.310   9.569  11.566
 3144SOL     OW11270   8.760   3.416   3.221
 3144SOL    HW111271   8.802   3.500   3.239
 3144SOL    HW211272   8.794   3.358   3.289
 3145SOL     OW11273   4.639  10.794   5.214
 3145SOL    HW111274   4.572  10.821   5.276
 3145SOL    HW211275   4.680  10.717   5.254
 3146SOL     OW11276  10.125   5.787   9.209
 3146SOL    HW111277  10.173   5.715   9.168
 3146SOL    HW211278  10.190   5.856   9.218
 3147SOL     OW11279   7.128   5.094   6.074
 3147SOL    HW111280   7.219   5.117   6.059
 3147SOL    HW211281   7.101   5.050   5.994
 3148SOL     OW11282   4.732   8.039   3.314
 3148SOL    HW111283   4.780   8.073   3.390
 3148SOL    HW211284   4.714   7.948   3.337
 3149SOL     OW11285  14.604  11.792   2.244
 3149SOL    HW111286  14.511  11.813   2.231
 3149SOL    HW211287  14.624  11.828   2.331
 3150SOL     OW11288   4.240  11.707   0.116
 3150SOL    HW111289   4.304  11.686   0.049
 3150SOL    HW211290   4.158  11.668   0.085
 3151SOL     OW11291   5.931  12.790   5.208
 3151SOL    HW111292   5.934  12.816   5.116
 3151SOL    HW211293   5.843  12.757   5.220
 3152SOL     OW11294   2.073   9.676   4.989
 3152SOL    HW111295   2.117   9.663   5.073
 3152SOL    HW211296   1.981   9.662   5.008
 3153SOL     OW11297   8.777   9.011  11.131
 3153SOL    HW111298   8.685   8.990  11.115
 3153SOL    HW211299   8.824   8.956  11.068
 3154SOL     OW11300  12.861   6.020   3.555
 3154SOL    HW111301  12.819   6.102   3.528
 3154SOL    HW211302  12.951   6.045   3.575
 3155SOL     OW11303   8.088   6.251  14.316
 3155SOL    HW111304   8.091   6.345  14.300
 3155SOL    HW211305   8.166   6.216  14.274
 3156SOL     OW11306  11.290   5.156  14.775
 3156SOL    HW111307  11.257   5.227  14.720
 3156SOL    HW211308  11.212   5.115  14.812
 3157SOL     OW11309  12.179   6.201  10.783
 3157SOL    HW111310  12.104   6.159  10.825
 3157SOL    HW211311  12.141   6.252  10.712
 3158SOL     OW11312   0.027   1.366   3.595
 3158SOL    HW111313  14.849   1.334   3.665
 3158SOL    HW211314  14.863   1.445   3.563
 3159SOL     OW11315  11.092  13.611   6.677
 3159SOL    HW111316  11.024  13.672   6.648
 3159SOL    HW211317  11.117  13.564   6.598
 3160SOL     OW11318   3.699  12.484   5.099
 3160SOL    HW111319   3.610  12.452   5.082
 3160SOL    HW211320   3.734  12.424   5.165
 3161SOL     OW11321   3.205  11.447  11.400
 3161SOL    HW111322   3.163  11.529  11.374
 3161SOL    HW211323   3.198  11.391  11.322
 3162SOL     OW11324  13.247   4.695  12.291
 3162SOL    HW111325  13.188   4.628  12.256
 3162SOL    HW211326  13.257   4.758  12.220
 3163SOL     OW11327  11.224   1.389   7.334
 3163SOL    HW111328  11.162   1.317   7.337
 3163SOL    HW211329  11.280   1.369   7.259
 3164SOL     OW11330  12.388   9.362  14.330
 3164SOL    HW111331  12.364   9.382  14.420
 3164SOL    HW211332  12.427   9.274  14.335
 3165SOL     OW11333  12.631   6.997   5.566
 3165SOL    HW111334  12.710   6.965   5.610
 3165SOL    HW211335  12.632   6.954   5.480
 3166SOL     OW11336  13.389   2.177  13.792
 3166SOL    HW111337  13.368   2.129  13.872
 3166SOL    HW211338  13.316   2.159  13.733
 3167SOL     OW11339   2.140   5.837   4.439
 3167SOL    HW111340   2.177   5.767   4.385
 3167SOL    HW211341   2.194   5.913   4.421
 3168SOL     OW11342   6.672   2.528   9.369
 3168SOL    HW111343   6.647   2.616   9.396
 3168SOL    HW211344   6.596   2.496   9.319
 3169SOL     OW11345   2.025  12.070   0.322
 3169SOL    HW111346   2.085  12.108   0.258
 3169SOL    HW211347   1.946  12.048   0.271
 3170SOL     OW11348   2.769   6.275   3.924
 3170SOL    HW111349   2.740   6.251   4.013
 3170SOL    HW211350   2.689   6.269   3.871
 3171SOL     OW11351   2.243   0.848   9.440
 3171SOL    HW111352   2.244   0.925   9.383
 3171SOL    HW211353   2.321   0.799   9.414
 3172SOL     OW11354   9.084  10.698   3.409
 3172SOL    HW111355   9.177  10.705   3.389
 3172SOL    HW211356   9.080  10.652   3.492
 3173SOL     OW11357   6.974  11.554   2.854
 3173SOL    HW111358   7.001  11.505   2.777
 3173SOL    HW211359   7.023  11.636   2.848
 3174SOL     OW11360   4.845  13.525   6.293
 3174SOL    HW111361   4.855  13.481   6.209
 3174SOL    HW211362   4.751  13.522   6.310
 3175SOL     OW11363  10.296   6.726   5.169
 3175SOL    HW111364  10.278   6.792   5.102
 3175SOL    HW211365  10.225   6.737   5.233
 3176SOL     OW11366   6.426  10.594  14.757
 3176SOL    HW111367   6.501  10.598  14.697
 3176SOL    HW211368   6.400  10.502  14.756
 3177SOL     OW11369   1.116   7.258  11.458
 3177SOL    HW111370   1.170   7.179  11.464
 3177SOL    HW211371   1.032   7.232  11.496
 3178SOL     OW11372   6.548  13.925  14.784
 3178SOL    HW111373   6.550  13.937  14.879
 3178SOL    HW211374   6.558  14.014  14.749
 3179SOL     OW11375  13.892  12.997  11.731
 3179SOL    HW111376  13.972  13.049  11.723
 3179SOL    HW211377  13.828  13.057  11.769
 3180SOL     OW11378  14.485   0.127   0.881
 3180SOL    HW111379  14.513   0.125   0.790
 3180SOL    HW211380  14.567   0.130   0.931
 3181SOL     OW11381   3.289  14.612   3.188
 3181SOL    HW111382   3.226  14.671   3.148
 3181SOL    HW211383   3.252  14.592   3.274
 3182SOL     OW11384   3.581  11.498  12.222
 3182SOL    HW111385   3.649  11.556  12.257
 3182SOL    HW211386   3.501  11.526  12.266
 3183SOL     OW11387   2.854  11.883   8.724
 3183SOL    HW111388   2.797  11.956   8.750
 3183SOL    HW211389   2.852  11.883   8.628
 3184SOL     OW11390  13.821   8.815   1.198
 3184SOL    HW111391  13.736   8.827   1.239
 3184SOL    HW211392  13.884   8.834   1.267
 3185SOL     OW11393   7.218   9.375  11.555
 3185SOL    HW111394   7.157   9.424  11.500
 3185SOL    HW211395   7.300   9.376  11.506
 3186SOL     OW11396  13.249   8.230   6.248
 3186SOL    HW111397  13.296   8.147   6.251
 3186SOL    HW211398  13.169   8.210   6.198
 3187SOL     OW11399   4.343   8.577   4.190
 3187SOL    HW111400   4.275   8.638   4.218
 3187SOL    HW211401   4.315   8.549   4.103
 3188SOL     OW11402   0.321  12.136   4.095
 3188SOL    HW111403   0.350  12.126   4.186
 3188SOL    HW211404   0.299  12.228   4.086
 3189SOL     OW11405   1.172  14.252  13.099
 3189SOL    HW111406   1.091  14.204  13.116
 3189SOL    HW211407   1.223  14.195  13.041
 3190SOL     OW11408   7.321   3.224   2.694
 3190SOL    HW111409   7.307   3.226   2.599
 3190SOL    HW211410   7.261   3.156   2.726
 3191SOL     OW11411  13.510  14.185  12.676
 3191SOL    HW111412  13.553  14.269  12.688
 3191SOL    HW211413  13.427  14.207  12.633
 3192SOL     OW11414   5.046   6.853   0.833
 3192SOL    HW111415   4.952   6.841   0.848
 3192SOL    HW211416   5.087   6.781   0.880
 3193SOL     OW11417   3.930   8.673   9.028
 3193SOL    HW111418   3.951   8.761   9.058
 3193SOL    HW211419   3.914   8.682   8.934
 3194SOL     OW11420   9.818  11.042   6.263
 3194SOL    HW111421   9.790  11.063   6.352
 3194SOL    HW211422   9.904  11.000   6.275
 3195SOL     OW11423   3.835  11.352  13.055
 3195SOL    HW111424   3.839  11.269  13.007
 3195SOL    HW211425   3.842  11.420  12.988
 3196SOL     OW11426   7.903  13.517  13.212
 3196SOL    HW111427   7.910  13.445  13.150
 3196SOL    HW211428   7.817  13.555  13.196
 3197SOL     OW11429   1.958   0.939   3.406
 3197SOL    HW111430   1.898   0.950   3.332
 3197SOL    HW211431   2.032   0.996   3.386
 3198SOL     OW11432  11.808   1.915  12.840
 3198SOL    HW111433  11.854   1.889  12.920
 3198SOL    HW211434  11.876   1.911  12.772
 3199SOL     OW11435   7.812  13.449  11.045
 3199SOL    HW111436   7.845  13.531  11.011
 3199SOL    HW211437   7.786  13.469  11.135
 3200SOL     OW11438  14.453   3.040   4.013
 3200SOL    HW111439  14.464   2.969   4.076
 3200SOL    HW211440  14.361   3.033   3.985
 3201SOL     OW11441   5.153   0.143   0.101
 3201SOL    HW111442   5.149   0.090   0.181
 3201SOL    HW211443   5.075   0.198   0.104
 3202SOL     OW11444   9.691   3.873  14.121
 3202SOL    HW111445   9.714   3.960  14.090
 3202SOL    HW211446   9.662   3.887  14.211
 3203SOL     OW11447   5.556  13.216   0.496
 3203SOL    HW111448   5.503  13.157   0.550
 3203SOL    HW211449   5.586  13.162   0.424
 3204SOL     OW11450   7.307   5.854   4.580
 3204SOL    HW111451   7.219   5.870   4.615
 3204SOL    HW211452   7.362   5.842   4.657
 3205SOL     OW11453   2.253  10.395  10.491
 3205SOL    HW111454   2.270  10.454  10.419
 3205SOL    HW211455   2.203  10.447  10.554
 3206SOL     OW11456  11.278   4.201  13.911
 3206SOL    HW111457  11.282   4.106  13.921
 3206SOL    HW211458  11.369   4.228  13.897
 3207SOL     OW11459   8.204   8.046  11.015
 3207SOL    HW111460   8.228   7.974  10.957
 3207SOL    HW211461   8.253   8.121  10.981
 3208SOL     OW11462   8.472   1.341  11.098
 3208SOL    HW111463   8.409   1.282  11.057
 3208SOL    HW211464   8.511   1.290  11.169
 3209SOL     OW11465  13.829   2.331   5.695
 3209SOL    HW111466  13.907   2.276   5.688
 3209SOL    HW211467  13.845   2.388   5.770
 3210SOL     OW11468  13.127   3.504   5.807
 3210SOL    HW111469  13.046   3.484   5.853
 3210SOL    HW211470  13.169   3.419   5.793
 3211SOL     OW11471   8.264   5.743   5.275
 3211SOL    HW111472   8.341   5.692   5.250
 3211SOL    HW211473   8.297   5.811   5.333
 3212SOL     OW11474   7.704   0.525   5.093
 3212SOL    HW111475   7.650   0.574   5.031
 3212SOL    HW211476   7.722   0.442   5.050
 3213SOL     OW11477  11.685   7.443   7.603
 3213SOL    HW111478  11.651   7.461   7.515
 3213SOL    HW211479  11.690   7.530   7.644
 3214SOL     OW11480  10.652   0.759   6.706
 3214SOL    HW111481  10.715   0.701   6.662
 3214SOL    HW211482  10.610   0.703   6.772
 3215SOL     OW11483   9.175   1.901   3.620
 3215SOL    HW111484   9.172   1.947   3.704
 3215SOL    HW211485   9.252   1.937   3.576
 3216SOL     OW11486  10.398   5.523   0.319
 3216SOL    HW111487  10.449   5.484   0.391
 3216SOL    HW211488  10.310   5.534   0.356
 3217SOL     OW11489   0.233  11.006   4.670
 3217SOL    HW111490   0.316  11.020   4.716
 3217SOL    HW211491   0.178  11.079   4.697
 3218SOL     OW11492   3.563   3.815   8.875
 3218SOL    HW111493   3.647   3.809   8.829
 3218SOL    HW211494   3.583   3.865   8.954
 3219SOL     OW11495   3.119   1.156  11.524
 3219SOL    HW111496   3.024   1.172  11.523
 3219SOL    HW211497   3.148   1.192  11.608
 3220SOL     OW11498   8.041   4.544   9.350
 3220SOL    HW111499   8.034   4.580   9.261
 3220SOL    HW211500   8.075   4.616   9.402
 3221SOL     OW11501   0.827   0.140  10.995
 3221SOL    HW111502   0.779   0.211  11.038
 3221SOL    HW211503   0.849   0.174  10.909
 3222SOL     OW11504   9.581   1.414  10.779
 3222SOL    HW111505   9.568   1.437  10.687
 3222SOL    HW211506   9.621   1.493  10.817
 3223SOL     OW11507   0.739  10.555   6.924
 3223SOL    HW111508   0.782  10.526   6.843
 3223SOL    HW211509   0.663  10.497   6.932
 3224SOL     OW11510   9.256  11.027   8.309
 3224SOL    HW111511   9.257  11.111   8.355
 3224SOL    HW211512   9.340  11.023   8.263
 3225SOL     OW11513   9.431  14.661  13.136
 3225SOL    HW111514   9.463  14.627  13.219
 3225SOL    HW211515   9.424  14.756  13.149
 3226SOL     OW11516  14.414  11.895   9.493
 3226SOL    HW111517  14.344  11.921   9.554
 3226SOL    HW211518  14.403  11.800   9.484
 3227SOL     OW11519   1.473   5.463  12.181
 3227SOL    HW111520   1.414   5.451  12.106
 3227SOL    HW211521   1.553   5.498  12.143
 3228SOL     OW11522   5.556   2.302   4.422
 3228SOL    HW111523   5.503   2.336   4.349
 3228SOL    HW211524   5.594   2.380   4.462
 3229SOL     OW11525   7.813   7.887   7.442
 3229SOL    HW111526   7.872   7.815   7.420
 3229SOL    HW211527   7.810   7.886   7.538
 3230SOL     OW11528   3.351   7.887   3.998
 3230SOL    HW111529   3.308   7.946   3.936
 3230SOL    HW211530   3.376   7.944   4.071
 3231SOL     OW11531  10.339   5.932  14.331
 3231SOL    HW111532  10.315   5.876  14.405
 3231SOL    HW211533  10.410   5.885  14.288
 3232SOL     OW11534  10.984   3.346  14.677
 3232SOL    HW111535  11.068   3.308  14.702
 3232SOL    HW211536  10.932   3.272  14.645
 3233SOL     OW11537   8.742  10.322   2.235
 3233SOL    HW111538   8.818  10.313   2.294
 3233SOL    HW211539   8.688  10.389   2.277
 3234SOL     OW11540   9.571   4.633  13.512
 3234SOL    HW111541   9.481   4.650  13.538
 3234SOL    HW211542   9.568   4.551  13.464
 3235SOL     OW11543  14.536  13.890   8.771
 3235SOL    HW111544  14.512  13.865   8.860
 3235SOL    HW211545  14.456  13.929   8.735
 3236SOL     OW11546   4.579   3.589   7.881
 3236SOL    HW111547   4.523   3.664   7.863
 3236SOL    HW211548   4.539   3.517   7.831
 3237SOL     OW11549   9.185   7.887   3.439
 3237SOL    HW111550   9.138   7.813   3.478
 3237SOL    HW211551   9.119   7.956   3.432
 3238SOL     OW11552  14.358  13.748   5.908
 3238SOL    HW111553  14.272  13.788   5.896
 3238SOL    HW211554  14.375  13.755   6.002
 3239SOL     OW11555  10.917   2.329   1.800
 3239SOL    HW111556  10.920   2.254   1.740
 3239SOL    HW211557  11.004   2.333   1.838
 3240SOL     OW11558   0.930  10.995  12.842
 3240SOL    HW111559   0.881  11.027  12.917
 3240SOL    HW211560   1.019  11.027  12.856
 3241SOL     OW11561   0.052  12.921   8.483
 3241SOL    HW111562   0.072  12.829   8.496
 3241SOL    HW211563  14.836  12.924   8.478
 3242SOL     OW11564   1.396  11.271   1.389
 3242SOL    HW111565   1.306  11.301   1.401
 3242SOL    HW211566   1.392  11.176   1.401
 3243SOL     OW11567   9.970  11.030   5.230
 3243SOL    HW111568   9.896  11.090   5.220
 3243SOL    HW211569  10.033  11.078   5.284
 3244SOL     OW11570   2.209  14.101   1.518
 3244SOL    HW111571   2.127  14.123   1.562
 3244SOL    HW211572   2.183  14.051   1.441
 3245SOL     OW11573   3.523   4.760  12.626
 3245SOL    HW111574   3.458   4.824  12.595
 3245SOL    HW211575   3.558   4.720  12.546
 3246SOL     OW11576   1.803   7.858   0.175
 3246SOL    HW111577   1.712   7.847   0.202
 3246SOL    HW211578   1.803   7.940   0.125
 3247SOL     OW11579   1.167   1.462   4.000
 3247SOL    HW111580   1.224   1.387   3.979
 3247SOL    HW211581   1.223   1.538   3.989
 3248SOL     OW11582   1.470  12.026  12.878
 3248SOL    HW111583   1.455  12.112  12.838
 3248SOL    HW211584   1.412  12.025  12.954
 3249SOL     OW11585   5.227   2.160   1.531
 3249SOL    HW111586   5.191   2.104   1.462
 3249SOL    HW211587   5.319   2.171   1.508
 3250SOL     OW11588  14.433   6.947   7.022
 3250SOL    HW111589  14.454   6.869   7.074
 3250SOL    HW211590  14.337   6.952   7.026
 3251SOL     OW11591   9.659  11.394   6.338
 3251SOL    HW111592   9.641  11.379   6.245
 3251SOL    HW211593   9.740  11.346   6.354
 3252SOL     OW11594   3.280   2.507   9.116
 3252SOL    HW111595   3.193   2.467   9.122
 3252SOL    HW211596   3.301   2.502   9.023
 3253SOL     OW11597   0.248   9.468  12.676
 3253SOL    HW111598   0.216   9.443  12.763
 3253SOL    HW211599   0.215   9.556  12.663
 3254SOL     OW11600  13.222  10.947   9.604
 3254SOL    HW111601  13.292  10.883   9.594
 3254SOL    HW211602  13.226  10.974   9.696
 3255SOL     OW11603   8.982  12.902   2.217
 3255SOL    HW111604   8.986  12.883   2.123
 3255SOL    HW211605   8.889  12.903   2.237
 3256SOL     OW11606  14.532  10.792   1.437
 3256SOL    HW111607  14.533  10.888   1.434
 3256SOL    HW211608  14.602  10.766   1.377
 3257SOL     OW11609  14.691   2.645   8.074
 3257SOL    HW111610  14.765   2.602   8.029
 3257SOL    HW211611  14.641   2.685   8.004
 3258SOL     OW11612  14.241  13.106   1.188
 3258SOL    HW111613  14.252  13.201   1.178
 3258SOL    HW211614  14.316  13.069   1.142
 3259SOL     OW11615  13.863   2.621   6.902
 3259SOL    HW111616  13.852   2.527   6.916
 3259SOL    HW211617  13.911   2.628   6.819
 3260SOL     OW11618   5.618   9.254  12.720
 3260SOL    HW111619   5.548   9.236  12.783
 3260SOL    HW211620   5.580   9.229  12.635
 3261SOL     OW11621  12.266   4.657   8.237
 3261SOL    HW111622  12.272   4.574   8.190
 3261SOL    HW211623  12.274   4.633   8.329
 3262SOL     OW11624  12.679   3.708   2.001
 3262SOL    HW111625  12.626   3.771   2.049
 3262SOL    HW211626  12.751   3.687   2.061
 3263SOL     OW11627  12.191   0.641   0.848
 3263SOL    HW111628  12.238   0.573   0.896
 3263SOL    HW211629  12.192   0.611   0.757
 3264SOL     OW11630   6.451   4.155   7.477
 3264SOL    HW111631   6.413   4.239   7.501
 3264SOL    HW211632   6.458   4.158   7.382
 3265SOL     OW11633   8.259  10.598   8.397
 3265SOL    HW111634   8.304  10.517   8.374
 3265SOL    HW211635   8.321  10.667   8.373
 3266SOL     OW11636   1.643   1.966   8.645
 3266SOL    HW111637   1.680   1.944   8.730
 3266SOL    HW211638   1.559   2.008   8.665
 3267SOL     OW11639   8.296  10.660   9.345
 3267SOL    HW111640   8.204  10.668   9.317
 3267SOL    HW211641   8.298  10.702   9.431
 3268SOL     OW11642   0.017  12.509  14.804
 3268SOL    HW111643   0.006  12.420  14.838
 3268SOL    HW211644   0.099  12.506  14.755
 3269SOL     OW11645   5.409   6.795   6.153
 3269SOL    HW111646   5.374   6.706   6.159
 3269SOL    HW211647   5.480   6.797   6.217
 3270SOL     OW11648   8.220  14.798  11.619
 3270SOL    HW111649   8.148  14.744  11.586
 3270SOL    HW211650   8.296  14.768  11.568
 3271SOL     OW11651  13.493   5.153   7.427
 3271SOL    HW111652  13.444   5.230   7.456
 3271SOL    HW211653  13.496   5.160   7.332
 3272SOL     OW11654   1.598  10.734  12.628
 3272SOL    HW111655   1.615  10.691  12.544
 3272SOL    HW211656   1.612  10.827  12.610
 3273SOL     OW11657  13.063  10.453  12.247
 3273SOL    HW111658  13.010  10.393  12.194
 3273SOL    HW211659  13.116  10.500  12.183
 3274SOL     OW11660   3.913   2.184   7.458
 3274SOL    HW111661   3.894   2.140   7.541
 3274SOL    HW211662   3.970   2.257   7.481
 3275SOL     OW11663   1.607  12.020   7.647
 3275SOL    HW111664   1.543  12.091   7.652
 3275SOL    HW211665   1.592  11.980   7.562
 3276SOL     OW11666  14.217   4.884  13.423
 3276SOL    HW111667  14.189   4.933  13.500
 3276SOL    HW211668  14.158   4.912  13.353
 3277SOL     OW11669   6.937  11.890  14.596
 3277SOL    HW111670   6.866  11.938  14.638
 3277SOL    HW211671   6.893  11.824  14.543
 3278SOL     OW11672   8.056   1.961   8.238
 3278SOL    HW111673   8.079   1.868   8.243
 3278SOL    HW211674   8.120   1.999   8.179
 3279SOL     OW11675   9.473   8.301  12.925
 3279SOL    HW111676   9.542   8.235  12.920
 3279SOL    HW211677   9.512   8.372  12.976
 3280SOL     OW11678  13.941   9.932  14.293
 3280SOL    HW111679  13.926   9.885  14.211
 3280SOL    HW211680  13.962  10.021  14.267
 3281SOL     OW11681   5.009   3.607  14.110
 3281SOL    HW111682   5.026   3.529  14.164
 3281SOL    HW211683   5.086   3.614  14.054
 3282SOL     OW11684   2.047  11.665   1.215
 3282SOL    HW111685   2.053  11.659   1.119
 3282SOL    HW211686   1.959  11.698   1.231
 3283SOL     OW11687   5.138  11.647  14.511
 3283SOL    HW111688   5.215  11.697  14.536
 3283SOL    HW211689   5.163  11.600  14.431
 3284SOL     OW11690  14.549   6.548   3.317
 3284SOL    HW111691  14.544   6.538   3.222
 3284SOL    HW211692  14.463   6.520   3.348
 3285SOL     OW11693   1.188   1.988  13.736
 3285SOL    HW111694   1.135   1.986  13.816
 3285SOL    HW211695   1.278   1.999  13.767
 3286SOL     OW11696   6.448  14.586   7.488
 3286SOL    HW111697   6.420  14.641   7.415
 3286SOL    HW211698   6.512  14.526   7.450
 3287SOL     OW11699   5.045  11.992   9.776
 3287SOL    HW111700   4.965  12.017   9.823
 3287SOL    HW211701   5.058  11.900   9.799
 3288SOL     OW11702   0.878   2.864   1.076
 3288SOL    HW111703   0.831   2.919   1.012
 3288SOL    HW211704   0.969   2.867   1.047
 3289SOL     OW11705   6.805  11.544   3.476
 3289SOL    HW111706   6.714  11.534   3.506
 3289SOL    HW211707   6.807  11.628   3.430
 3290SOL     OW11708  10.329   1.929   2.362
 3290SOL    HW111709  10.234   1.928   2.354
 3290SOL    HW211710  10.345   1.973   2.446
 3291SOL     OW11711   2.788  11.415   0.505
 3291SOL    HW111712   2.874  11.432   0.544
 3291SOL    HW211713   2.730  11.477   0.549
 3292SOL     OW11714   3.111   9.325   9.739
 3292SOL    HW111715   3.197   9.364   9.749
 3292SOL    HW211716   3.094   9.326   9.644
 3293SOL     OW11717   6.207   9.669   9.440
 3293SOL    HW111718   6.208   9.697   9.349
 3293SOL    HW211719   6.115   9.649   9.458
 3294SOL     OW11720   6.833   9.005  10.410
 3294SOL    HW111721   6.744   9.042  10.408
 3294SOL    HW211722   6.883   9.062  10.352
 3295SOL     OW11723  11.891  13.592   5.085
 3295SOL    HW111724  11.977  13.632   5.082
 3295SOL    HW211725  11.843  13.642   5.151
 3296SOL     OW11726  10.756  10.947  13.185
 3296SOL    HW111727  10.819  10.891  13.231
 3296SOL    HW211728  10.679  10.890  13.172
 3297SOL     OW11729   0.759   1.821  12.464
 3297SOL    HW111730   0.769   1.884  12.536
 3297SOL    HW211731   0.847   1.785  12.451
 3298SOL     OW11732  12.530   0.477   0.856
 3298SOL    HW111733  12.611   0.501   0.811
 3298SOL    HW211734  12.490   0.410   0.800
 3299SOL     OW11735   6.078   6.702   0.918
 3299SOL    HW111736   6.093   6.684   1.010
 3299SOL    HW211737   6.165   6.698   0.878
 3300SOL     OW11738   8.535   3.425   7.983
 3300SOL    HW111739   8.623   3.434   7.946
 3300SOL    HW211740   8.524   3.331   7.996
 3301SOL     OW11741  12.305  14.550   6.812
 3301SOL    HW111742  12.291  14.538   6.906
 3301SOL    HW211743  12.222  14.585   6.780
 3302SOL     OW11744  11.490  13.518   9.241
 3302SOL    HW111745  11.464  13.457   9.172
 3302SOL    HW211746  11.425  13.506   9.309
 3303SOL     OW11747   6.198   4.595   5.502
 3303SOL    HW111748   6.191   4.568   5.594
 3303SOL    HW211749   6.288   4.626   5.493
 3304SOL     OW11750  14.042  12.861  10.800
 3304SOL    HW111751  14.087  12.944  10.788
 3304SOL    HW211752  13.951  12.880  10.775
 3305SOL     OW11753   3.718   0.853  13.837
 3305SOL    HW111754   3.671   0.919  13.786
 3305SOL    HW211755   3.653   0.820  13.900
 3306SOL     OW11756   0.134   6.012   3.903
 3306SOL    HW111757   0.190   5.989   3.977
 3306SOL    HW211758   0.145   5.941   3.841
 3307SOL     OW11759  10.550  11.450  11.243
 3307SOL    HW111760  10.634  11.477  11.280
 3307SOL    HW211761  10.535  11.363  11.279
 3308SOL     OW11762   6.504   0.083  13.999
 3308SOL    HW111763   6.538   0.070  13.911
 3308SOL    HW211764   6.503  14.875  14.038
 3309SOL     OW11765   3.686   3.906  10.043
 3309SOL    HW111766   3.752   3.891   9.975
 3309SOL    HW211767   3.603   3.878  10.003
 3310SOL     OW11768   3.278   4.351  14.587
 3310SOL    HW111769   3.269   4.411  14.513
 3310SOL    HW211770   3.347   4.389  14.641
 3311SOL     OW11771   5.227  10.083   8.368
 3311SOL    HW111772   5.184  10.144   8.309
 3311SOL    HW211773   5.252  10.009   8.313
 3312SOL     OW11774   0.803  13.854  14.794
 3312SOL    HW111775   0.766  13.769  14.818
 3312SOL    HW211776   0.887  13.833  14.753
 3313SOL     OW11777   3.313   5.735   8.631
 3313SOL    HW111778   3.294   5.761   8.541
 3313SOL    HW211779   3.344   5.814   8.674
 3314SOL     OW11780   6.720   7.243   6.578
 3314SOL    HW111781   6.669   7.286   6.510
 3314SOL    HW211782   6.696   7.289   6.658
 3315SOL     OW11783   4.641   8.223   7.059
 3315SOL    HW111784   4.698   8.275   7.003
 3315SOL    HW211785   4.695   8.197   7.133
 3316SOL     OW11786   6.849   3.039   9.428
 3316SOL    HW111787   6.815   3.121   9.462
 3316SOL    HW211788   6.910   3.009   9.495
 3317SOL     OW11789  10.868  13.725   5.457
 3317SOL    HW111790  10.879  13.693   5.368
 3317SOL    HW211791  10.947  13.777   5.473
 3318SOL     OW11792   4.927  10.133   5.761
 3318SOL    HW111793   4.914  10.219   5.720
 3318SOL    HW211794   4.962  10.153   5.848
 3319SOL     OW11795  10.145  13.711  13.822
 3319SOL    HW111796  10.129  13.775  13.753
 3319SOL    HW211797  10.238  13.722  13.843
 3320SOL     OW11798   0.495  10.788  11.633
 3320SOL    HW111799   0.484  10.842  11.555
 3320SOL    HW211800   0.533  10.707  11.600
 3321SOL     OW11801  11.933  12.022   3.253
 3321SOL    HW111802  12.024  12.023   3.284
 3321SOL    HW211803  11.910  11.929   3.250
 3322SOL     OW11804   4.771   1.684   9.903
 3322SOL    HW111805   4.704   1.672   9.835
 3322SOL    HW211806   4.851   1.704   9.855
 3323SOL     OW11807   3.417  10.122   0.888
 3323SOL    HW111808   3.383  10.195   0.836
 3323SOL    HW211809   3.424  10.158   0.977
 3324SOL     OW11810  12.333   6.855   8.918
 3324SOL    HW111811  12.382   6.877   8.998
 3324SOL    HW211812  12.284   6.776   8.941
 3325SOL     OW11813   4.505  14.469   9.002
 3325SOL    HW111814   4.557  14.545   8.975
 3325SOL    HW211815   4.533  14.452   9.092
 3326SOL     OW11816   4.767   9.792   8.634
 3326SOL    HW111817   4.698   9.837   8.585
 3326SOL    HW211818   4.728   9.708   8.659
 3327SOL     OW11819   5.762  12.053   3.682
 3327SOL    HW111820   5.825  12.002   3.630
 3327SOL    HW211821   5.694  11.989   3.705
 3328SOL     OW11822  12.165  14.214  10.318
 3328SOL    HW111823  12.130  14.260  10.395
 3328SOL    HW211824  12.146  14.272  10.245
 3329SOL     OW11825   1.609   2.973   9.771
 3329SOL    HW111826   1.527   2.988   9.725
 3329SOL    HW211827   1.619   2.877   9.772
 3330SOL     OW11828  14.059  14.817   6.999
 3330SOL    HW111829  13.975  14.791   6.964
 3330SOL    HW211830  14.043   0.022   7.040
 3331SOL     OW11831  11.773   5.610  14.663
 3331SOL    HW111832  11.737   5.552  14.596
 3331SOL    HW211833  11.739   5.696  14.640
 3332SOL     OW11834   6.212  10.334  10.660
 3332SOL    HW111835   6.217  10.252  10.612
 3332SOL    HW211836   6.207  10.401  10.592
 3333SOL     OW11837   9.364  14.162   1.544
 3333SOL    HW111838   9.387  14.081   1.590
 3333SOL    HW211839   9.355  14.228   1.613
 3334SOL     OW11840   2.449   9.620   3.728
 3334SOL    HW111841   2.434   9.527   3.748
 3334SOL    HW211842   2.460   9.661   3.813
 3335SOL     OW11843   3.564  12.257   0.832
 3335SOL    HW111844   3.530  12.317   0.766
 3335SOL    HW211845   3.579  12.313   0.909
 3336SOL     OW11846   1.789  12.242   8.018
 3336SOL    HW111847   1.731  12.165   8.015
 3336SOL    HW211848   1.824  12.248   7.929
 3337SOL     OW11849  13.976  12.679   4.125
 3337SOL    HW111850  13.965  12.723   4.209
 3337SOL    HW211851  14.064  12.702   4.097
 3338SOL     OW11852   0.576   4.319   1.165
 3338SOL    HW111853   0.556   4.413   1.164
 3338SOL    HW211854   0.566   4.292   1.074
 3339SOL     OW11855  14.071   0.928   3.113
 3339SOL    HW111856  14.145   0.967   3.158
 3339SOL    HW211857  14.082   0.833   3.125
 3340SOL     OW11858   6.398   0.646   1.341
 3340SOL    HW111859   6.328   0.699   1.379
 3340SOL    HW211860   6.479   0.682   1.378
 3341SOL     OW11861   5.788   9.585   4.915
 3341SOL    HW111862   5.735   9.526   4.967
 3341SOL    HW211863   5.745   9.670   4.925
 3342SOL     OW11864  13.326  12.529  12.749
 3342SOL    HW111865  13.416  12.497  12.741
 3342SOL    HW211866  13.302  12.556  12.661
 3343SOL     OW11867   2.995   6.428  14.025
 3343SOL    HW111868   2.959   6.464  13.944
 3343SOL    HW211869   2.956   6.341  14.033
 3344SOL     OW11870   4.245  12.799   1.383
 3344SOL    HW111871   4.338  12.774   1.378
 3344SOL    HW211872   4.233  12.860   1.310
 3345SOL     OW11873  10.908  12.523  11.133
 3345SOL    HW111874  10.835  12.462  11.138
 3345SOL    HW211875  10.938  12.532  11.223
 3346SOL     OW11876   2.949   1.657  13.660
 3346SOL    HW111877   2.923   1.625  13.747
 3346SOL    HW211878   3.011   1.728  13.678
 3347SOL     OW11879   8.810   7.594  10.341
 3347SOL    HW111880   8.888   7.540  10.337
 3347SOL    HW211881   8.813   7.647  10.261
 3348SOL     OW11882   7.314   6.445   0.278
 3348SOL    HW111883   7.405   6.433   0.250
 3348SOL    HW211884   7.321   6.506   0.351
 3349SOL     OW11885  12.456   0.956  12.967
 3349SOL    HW111886  12.415   1.019  13.026
 3349SOL    HW211887  12.383   0.920  12.916
 3350SOL     OW11888   3.741   8.955   3.886
 3350SOL    HW111889   3.693   8.964   3.968
 3350SOL    HW211890   3.675   8.927   3.823
 3351SOL     OW11891   7.008  12.359   7.400
 3351SOL    HW111892   6.987  12.315   7.483
 3351SOL    HW211893   6.983  12.296   7.333
 3352SOL     OW11894  12.519   0.209  11.965
 3352SOL    HW111895  12.521   0.127  12.014
 3352SOL    HW211896  12.431   0.243  11.979
 3353SOL     OW11897  13.718  12.346  14.816
 3353SOL    HW111898  13.810  12.371  14.810
 3353SOL    HW211899  13.670  12.427  14.797
 3354SOL     OW11900   6.840  14.512   2.873
 3354SOL    HW111901   6.844  14.578   2.942
 3354SOL    HW211902   6.890  14.551   2.801
 3355SOL     OW11903  12.809   2.813   8.620
 3355SOL    HW111904  12.714   2.822   8.626
 3355SOL    HW211905  12.823   2.727   8.580
 3356SOL     OW11906   5.074   0.810   6.750
 3356SOL    HW111907   5.091   0.756   6.828
 3356SOL    HW211908   5.074   0.748   6.677
 3357SOL     OW11909  14.692   9.964   8.270
 3357SOL    HW111910  14.598   9.948   8.275
 3357SOL    HW211911  14.708  10.036   8.331
 3358SOL     OW11912   1.361   3.555   5.642
 3358SOL    HW111913   1.428   3.596   5.697
 3358SOL    HW211914   1.324   3.628   5.592
 3359SOL     OW11915   1.826   2.919   4.489
 3359SOL    HW111916   1.807   2.849   4.427
 3359SOL    HW211917   1.887   2.977   4.442
 3360SOL     OW11918  14.664   4.999  13.129
 3360SOL    HW111919  14.725   4.946  13.181
 3360SOL    HW211920  14.588   5.010  13.185
 3361SOL     OW11921   1.487   6.519  10.197
 3361SOL    HW111922   1.406   6.556  10.233
 3361SOL    HW211923   1.513   6.452  10.259
 3362SOL     OW11924   9.128  11.400   5.549
 3362SOL    HW111925   9.044  11.441   5.567
 3362SOL    HW211926   9.119  11.310   5.581
 3363SOL     OW11927  10.237  14.568  11.642
 3363SOL    HW111928  10.254  14.566  11.736
 3363SOL    HW211929  10.191  14.651  11.628
 3364SOL     OW11930   5.834  11.223  12.105
 3364SOL    HW111931   5.766  11.183  12.159
 3364SOL    HW211932   5.915  11.209  12.152
 3365SOL     OW11933  12.558   5.728  12.814
 3365SOL    HW111934  12.549   5.702  12.905
 3365SOL    HW211935  12.587   5.820  12.817
 3366SOL     OW11936   8.032   6.575   2.773
 3366SOL    HW111937   8.002   6.650   2.723
 3366SOL    HW211938   8.006   6.499   2.721
 3367SOL     OW11939   5.764  11.135  11.000
 3367SOL    HW111940   5.673  11.129  10.972
 3367SOL    HW211941   5.759  11.154  11.094
 3368SOL     OW11942  11.172   4.565   4.774
 3368SOL    HW111943  11.211   4.496   4.827
 3368SOL    HW211944  11.101   4.601   4.828
 3369SOL     OW11945  13.083   6.956  10.160
 3369SOL    HW111946  13.077   6.868  10.197
 3369SOL    HW211947  13.137   7.004  10.222
 3370SOL     OW11948   5.146   0.220   1.326
 3370SOL    HW111949   5.180   0.132   1.309
 3370SOL    HW211950   5.223   0.276   1.326
 3371SOL     OW11951  11.546  13.124   3.171
 3371SOL    HW111952  11.571  13.167   3.253
 3371SOL    HW211953  11.629  13.091   3.136
 3372SOL     OW11954   7.338   4.717  10.596
 3372SOL    HW111955   7.360   4.625  10.606
 3372SOL    HW211956   7.262   4.717  10.538
 3373SOL     OW11957   3.041  14.399  12.751
 3373SOL    HW111958   2.988  14.357  12.683
 3373SOL    HW211959   3.123  14.349  12.751
 3374SOL     OW11960   6.349   6.016  10.824
 3374SOL    HW111961   6.397   6.039  10.904
 3374SOL    HW211962   6.257   6.017  10.850
 3375SOL     OW11963   8.312   4.914  14.411
 3375SOL    HW111964   8.306   4.843  14.348
 3375SOL    HW211965   8.262   4.986  14.372
 3376SOL     OW11966   7.171   0.335   7.479
 3376SOL    HW111967   7.130   0.405   7.531
 3376SOL    HW211968   7.211   0.381   7.405
 3377SOL     OW11969   0.234   4.448   8.657
 3377SOL    HW111970   0.245   4.353   8.651
 3377SOL    HW211971   0.313   4.484   8.616
 3378SOL     OW11972  13.170   3.647  10.157
 3378SOL    HW111973  13.092   3.606  10.120
 3378SOL    HW211974  13.229   3.573  10.175
 3379SOL     OW11975   3.456   7.606   5.492
 3379SOL    HW111976   3.471   7.651   5.575
 3379SOL    HW211977   3.530   7.545   5.484
 3380SOL     OW11978  10.401   0.659  13.923
 3380SOL    HW111979  10.385   0.751  13.944
 3380SOL    HW211980  10.409   0.616  14.008
 3381SOL     OW11981   6.475  12.790   9.660
 3381SOL    HW111982   6.403  12.756   9.607
 3381SOL    HW211983   6.480  12.883   9.635
 3382SOL     OW11984  13.994   9.973   6.421
 3382SOL    HW111985  14.086   9.953   6.439
 3382SOL    HW211986  13.996  10.055   6.371
 3383SOL     OW11987   2.383  13.164   3.134
 3383SOL    HW111988   2.438  13.117   3.196
 3383SOL    HW211989   2.310  13.198   3.186
 3384SOL     OW11990   9.456  11.374  14.449
 3384SOL    HW111991   9.538  11.324  14.444
 3384SOL    HW211992   9.480  11.454  14.497
 3385SOL     OW11993   2.185   3.678   2.940
 3385SOL    HW111994   2.146   3.612   2.997
 3385SOL    HW211995   2.217   3.745   3.000
 3386SOL     OW11996  12.437  13.400  14.012
 3386SOL    HW111997  12.445  13.386  14.107
 3386SOL    HW211998  12.440  13.312  13.975
 3387SOL     OW11999   2.834   4.414  11.247
 3387SOL    HW112000   2.794   4.336  11.286
 3387SOL    HW212001   2.829   4.480  11.316
 3388SOL     OW12002  11.804   2.838   1.444
 3388SOL    HW112003  11.805   2.746   1.473
 3388SOL    HW212004  11.879   2.878   1.488
 3389SOL     OW12005   6.724  12.335   0.517
 3389SOL    HW112006   6.772  12.408   0.478
 3389SOL    HW212007   6.643  12.374   0.549
 3390SOL     OW12008   8.276   6.003   0.745
 3390SOL    HW112009   8.268   6.099   0.743
 3390SOL    HW212010   8.270   5.977   0.653
 3391SOL     OW12011  10.261  12.431   0.618
 3391SOL    HW112012  10.341  12.407   0.572
 3391SOL    HW212013  10.286  12.433   0.711
 3392SOL     OW12014   3.793   6.075   8.662
 3392SOL    HW112015   3.783   6.148   8.722
 3392SOL    HW212016   3.714   6.079   8.607
 3393SOL     OW12017  12.647   7.297  14.708
 3393SOL    HW112018  12.612   7.214  14.675
 3393SOL    HW212019  12.587   7.363  14.676
 3394SOL     OW12020   8.138  12.737   2.838
 3394SOL    HW112021   8.227  12.701   2.848
 3394SOL    HW212022   8.151  12.831   2.828
 3395SOL     OW12023   0.061   7.720   1.976
 3395SOL    HW112024   0.143   7.756   2.010
 3395SOL    HW212025   0.041   7.647   2.034
 3396SOL     OW12026   9.459   2.495  12.695
 3396SOL    HW112027   9.554   2.508  12.705
 3396SOL    HW212028   9.432   2.454  12.777
 3397SOL     OW12029  14.527   3.477   4.680
 3397SOL    HW112030  14.622   3.485   4.688
 3397SOL    HW212031  14.496   3.462   4.769
 3398SOL     OW12032   3.300  14.378  10.192
 3398SOL    HW112033   3.347  14.425  10.123
 3398SOL    HW212034   3.284  14.291  10.155
 3399SOL     OW12035  12.856   6.585   3.317
 3399SOL    HW112036  12.875   6.662   3.263
 3399SOL    HW212037  12.930   6.526   3.302
 3400SOL     OW12038  12.683   8.948   5.788
 3400SOL    HW112039  12.658   9.035   5.757
 3400SOL    HW212040  12.694   8.958   5.883
 3401SOL     OW12041   8.786   9.052  13.769
 3401SOL    HW112042   8.729   9.000  13.712
 3401SOL    HW212043   8.731   9.072  13.845
 3402SOL     OW12044   7.672  11.506   4.986
 3402SOL    HW112045   7.634  11.517   4.899
 3402SOL    HW212046   7.637  11.580   5.037
 3403SOL     OW12047   6.628   1.494  11.331
 3403SOL    HW112048   6.619   1.492  11.427
 3403SOL    HW212049   6.539   1.482  11.299
 3404SOL     OW12050  10.376   6.165  12.692
 3404SOL    HW112051  10.463   6.161  12.731
 3404SOL    HW212052  10.335   6.241  12.732
 3405SOL     OW12053  11.322  13.906   6.911
 3405SOL    HW112054  11.319  13.830   6.852
 3405SOL    HW212055  11.237  13.949   6.898
 3406SOL     OW12056   7.932   2.760  11.174
 3406SOL    HW112057   8.015   2.773  11.130
 3406SOL    HW212058   7.883   2.841  11.158
 3407SOL     OW12059   4.443   3.113  13.296
 3407SOL    HW112060   4.388   3.052  13.246
 3407SOL    HW212061   4.441   3.194  13.245
 3408SOL     OW12062  14.869   6.081   0.594
 3408SOL    HW112063  14.795   6.029   0.560
 3408SOL    HW212064   0.000   6.151   0.530
 3409SOL     OW12065   9.641  11.744   3.614
 3409SOL    HW112066   9.559  11.793   3.603
 3409SOL    HW212067   9.694  11.799   3.672
 3410SOL     OW12068   0.754   8.256   1.400
 3410SOL    HW112069   0.725   8.345   1.421
 3410SOL    HW212070   0.847   8.256   1.424
 3411SOL     OW12071   9.873  14.404  14.763
 3411SOL    HW112072   9.886  14.399  14.858
 3411SOL    HW212073   9.862  14.497  14.745
 3412SOL     OW12074   7.123   9.157   1.901
 3412SOL    HW112075   7.094   9.244   1.874
 3412SOL    HW212076   7.217   9.157   1.883
 3413SOL     OW12077   9.687   8.409   7.904
 3413SOL    HW112078   9.594   8.395   7.889
 3413SOL    HW212079   9.708   8.358   7.981
 3414SOL     OW12080  14.329   5.510   2.305
 3414SOL    HW112081  14.248   5.509   2.254
 3414SOL    HW212082  14.392   5.556   2.250
 3415SOL     OW12083  12.281   7.140   2.004
 3415SOL    HW112084  12.284   7.138   2.100
 3415SOL    HW212085  12.285   7.048   1.978
 3416SOL     OW12086   7.986   9.861   3.099
 3416SOL    HW112087   8.029   9.933   3.144
 3416SOL    HW212088   8.053   9.826   3.040
 3417SOL     OW12089  10.484   0.119   5.741
 3417SOL    HW112090  10.511   0.073   5.661
 3417SOL    HW212091  10.565   0.128   5.791
 3418SOL     OW12092   6.128   9.479   7.355
 3418SOL    HW112093   6.175   9.446   7.431
 3418SOL    HW212094   6.047   9.515   7.391
 3419SOL     OW12095  11.087  11.786   4.758
 3419SOL    HW112096  11.085  11.803   4.663
 3419SOL    HW212097  11.174  11.751   4.774
 3420SOL     OW12098   2.341   0.104   7.534
 3420SOL    HW112099   2.321   0.023   7.489
 3420SOL    HW212100   2.367   0.077   7.622
 3421SOL     OW12101   0.071   3.892   8.127
 3421SOL    HW112102   0.013   3.878   8.202
 3421SOL    HW212103   0.139   3.825   8.137
 3422SOL     OW12104   0.155   7.108  10.603
 3422SOL    HW112105   0.101   7.107  10.682
 3422SOL    HW212106   0.216   7.181  10.616
 3423SOL     OW12107   2.460  13.209   2.322
 3423SOL    HW112108   2.366  13.225   2.333
 3423SOL    HW212109   2.468  13.175   2.233
 3424SOL     OW12110  13.261   5.220   7.798
 3424SOL    HW112111  13.234   5.219   7.890
 3424SOL    HW212112  13.326   5.150   7.791
 3425SOL     OW12113  11.696  12.473   1.475
 3425SOL    HW112114  11.624  12.447   1.532
 3425SOL    HW212115  11.667  12.450   1.387
 3426SOL     OW12116   5.773   3.075   6.891
 3426SOL    HW112117   5.838   3.017   6.931
 3426SOL    HW212118   5.770   3.048   6.799
 3427SOL     OW12119  11.189  10.193   7.491
 3427SOL    HW112120  11.207  10.112   7.443
 3427SOL    HW212121  11.207  10.170   7.582
 3428SOL     OW12122   6.457   5.430  13.236
 3428SOL    HW112123   6.471   5.398  13.325
 3428SOL    HW212124   6.544   5.461  13.209
 3429SOL     OW12125  10.838   0.208  14.371
 3429SOL    HW112126  10.864   0.278  14.430
 3429SOL    HW212127  10.920   0.181  14.329
 3430SOL     OW12128  10.981   6.434   7.328
 3430SOL    HW112129  11.029   6.351   7.321
 3430SOL    HW212130  10.997   6.478   7.245
 3431SOL     OW12131   6.063   7.224   8.101
 3431SOL    HW112132   6.098   7.257   8.184
 3431SOL    HW212133   5.973   7.256   8.098
 3432SOL     OW12134   9.570   3.754   3.322
 3432SOL    HW112135   9.575   3.697   3.245
 3432SOL    HW212136   9.568   3.693   3.396
 3433SOL     OW12137   3.975  11.952   7.275
 3433SOL    HW112138   3.955  12.040   7.242
 3433SOL    HW212139   4.009  11.967   7.363
 3434SOL     OW12140   5.891  14.334   6.263
 3434SOL    HW112141   5.864  14.426   6.251
 3434SOL    HW212142   5.986  14.336   6.250
 3435SOL     OW12143   1.256   7.293   8.185
 3435SOL    HW112144   1.251   7.302   8.090
 3435SOL    HW212145   1.165   7.288   8.214
 3436SOL     OW12146   2.006  13.639   0.619
 3436SOL    HW112147   1.999  13.612   0.711
 3436SOL    HW212148   2.082  13.591   0.586
 3437SOL     OW12149   9.556   9.505   6.533
 3437SOL    HW112150   9.463   9.521   6.519
 3437SOL    HW212151   9.600   9.577   6.488
 3438SOL     OW12152   1.882  12.195  13.087
 3438SOL    HW112153   1.897  12.279  13.044
 3438SOL    HW212154   1.853  12.137  13.018
 3439SOL     OW12155  11.847   6.040  12.168
 3439SOL    HW112156  11.848   6.134  12.185
 3439SOL    HW212157  11.939   6.015  12.163
 3440SOL     OW12158   8.603   6.072   6.355
 3440SOL    HW112159   8.619   5.978   6.364
 3440SOL    HW212160   8.544   6.080   6.281
 3441SOL     OW12161   3.570  10.913   8.803
 3441SOL    HW112162   3.555  10.905   8.709
 3441SOL    HW212163   3.518  10.989   8.830
 3442SOL     OW12164  10.749   6.848  12.315
 3442SOL    HW112165  10.797   6.894  12.246
 3442SOL    HW212166  10.749   6.756  12.286
 3443SOL     OW12167   7.033   3.542   6.679
 3443SOL    HW112168   6.949   3.526   6.722
 3443SOL    HW212169   7.099   3.512   6.743
 3444SOL     OW12170   0.594  11.175  14.163
 3444SOL    HW112171   0.574  11.222  14.244
 3444SOL    HW212172   0.685  11.198  14.145
 3445SOL     OW12173   0.364   9.889  14.600
 3445SOL    HW112174   0.296   9.860  14.539
 3445SOL    HW212175   0.357   9.985  14.600
 3446SOL     OW12176  12.936  11.409   7.778
 3446SOL    HW112177  12.928  11.319   7.811
 3446SOL    HW212178  13.030  11.421   7.765
 3447SOL     OW12179  12.266  10.537   4.517
 3447SOL    HW112180  12.264  10.590   4.438
 3447SOL    HW212181  12.275  10.601   4.588
 3448SOL     OW12182   8.659   3.659  10.885
 3448SOL    HW112183   8.722   3.672  10.814
 3448SOL    HW212184   8.593   3.599  10.849
 3449SOL     OW12185   3.882   9.434   4.803
 3449SOL    HW112186   3.819   9.391   4.746
 3449SOL    HW212187   3.913   9.510   4.753
 3450SOL     OW12188   7.331   9.078  10.739
 3450SOL    HW112189   7.267   9.020  10.781
 3450SOL    HW212190   7.410   9.024  10.731
 3451SOL     OW12191   0.685  12.835  12.746
 3451SOL    HW112192   0.704  12.815  12.838
 3451SOL    HW212193   0.594  12.809  12.734
 3452SOL     OW12194   5.388   1.072   1.787
 3452SOL    HW112195   5.340   0.990   1.800
 3452SOL    HW212196   5.468   1.061   1.838
 3453SOL     OW12197  11.349   6.425   0.114
 3453SOL    HW112198  11.305   6.412   0.030
 3453SOL    HW212199  11.375   6.338   0.142
 3454SOL     OW12200   1.744   2.816   6.815
 3454SOL    HW112201   1.705   2.869   6.884
 3454SOL    HW212202   1.823   2.865   6.790
 3455SOL     OW12203   1.655   2.137   9.105
 3455SOL    HW112204   1.643   2.081   9.182
 3455SOL    HW212205   1.748   2.158   9.106
 3456SOL     OW12206   8.581   9.418  12.600
 3456SOL    HW112207   8.622   9.481  12.541
 3456SOL    HW212208   8.629   9.429  12.682
 3457SOL     OW12209   2.918   8.317  13.366
 3457SOL    HW112210   2.904   8.393  13.310
 3457SOL    HW212211   3.007   8.327  13.399
 3458SOL     OW12212  14.821   4.878   2.655
 3458SOL    HW112213  14.854   4.933   2.726
 3458SOL    HW212214  14.868   4.908   2.577
 3459SOL     OW12215   3.956  12.436   0.271
 3459SOL    HW112216   3.894  12.473   0.209
 3459SOL    HW212217   3.931  12.474   0.356
 3460SOL     OW12218   4.861  14.684   8.192
 3460SOL    HW112219   4.917  14.740   8.246
 3460SOL    HW212220   4.884  14.595   8.219
 3461SOL     OW12221  11.138   6.895  10.894
 3461SOL    HW112222  11.083   6.928  10.823
 3461SOL    HW212223  11.082   6.898  10.971
 3462SOL     OW12224   2.315  10.632  11.679
 3462SOL    HW112225   2.310  10.717  11.723
 3462SOL    HW212226   2.407  10.606  11.688
 3463SOL     OW12227   8.122  12.923   9.138
 3463SOL    HW112228   8.214  12.928   9.110
 3463SOL    HW212229   8.123  12.953   9.229
 3464SOL     OW12230  13.535   3.818  14.347
 3464SOL    HW112231  13.602   3.751  14.327
 3464SOL    HW212232  13.557   3.847  14.435
 3465SOL     OW12233   3.188   0.564   7.590
 3465SOL    HW112234   3.225   0.577   7.502
 3465SOL    HW212235   3.095   0.587   7.580
 3466SOL     OW12236   2.166   9.174   0.473
 3466SOL    HW112237   2.084   9.219   0.493
 3466SOL    HW212238   2.167   9.168   0.377
 3467SOL     OW12239   8.588  12.442   5.845
 3467SOL    HW112240   8.535  12.491   5.782
 3467SOL    HW212241   8.525  12.411   5.910
 3468SOL     OW12242   9.267   6.924  12.732
 3468SOL    HW112243   9.267   6.999  12.792
 3468SOL    HW212244   9.188   6.937  12.678
 3469SOL     OW12245  10.752  14.719   8.807
 3469SOL    HW112246  10.790  14.791   8.757
 3469SOL    HW212247  10.674  14.694   8.757
 3470SOL     OW12248   0.952  10.309   3.281
 3470SOL    HW112249   0.876  10.264   3.244
 3470SOL    HW212250   0.953  10.394   3.239
 3471SOL     OW12251   3.542  14.313  10.343
 3471SOL    HW112252   3.549  14.309  10.248
 3471SOL    HW212253   3.448  14.315  10.360
 3472SOL     OW12254   7.655   2.938   8.657
 3472SOL    HW112255   7.581   2.893   8.697
 3472SOL    HW212256   7.652   2.912   8.565
 3473SOL     OW12257   7.541  11.698   9.615
 3473SOL    HW112258   7.555  11.603   9.615
 3473SOL    HW212259   7.448  11.708   9.599
 3474SOL     OW12260   2.987  11.614  12.463
 3474SOL    HW112261   2.982  11.663  12.381
 3474SOL    HW212262   3.072  11.638  12.500
 3475SOL     OW12263  13.864   3.756  13.033
 3475SOL    HW112264  13.822   3.670  13.035
 3475SOL    HW212265  13.871   3.777  12.939
 3476SOL     OW12266  13.494   4.233  11.943
 3476SOL    HW112267  13.479   4.170  11.872
 3476SOL    HW212268  13.429   4.211  12.009
 3477SOL     OW12269   8.004  10.275   7.286
 3477SOL    HW112270   7.971  10.361   7.261
 3477SOL    HW212271   7.966  10.259   7.373
 3478SOL     OW12272   5.219   6.316  13.191
 3478SOL    HW112273   5.276   6.273  13.128
 3478SOL    HW212274   5.239   6.409  13.182
 3479SOL     OW12275   3.781   0.392  13.811
 3479SOL    HW112276   3.744   0.311  13.847
 3479SOL    HW212277   3.802   0.370  13.720
 3480SOL     OW12278  13.131  11.788   0.378
 3480SOL    HW112279  13.161  11.831   0.458
 3480SOL    HW212280  13.196  11.813   0.312
 3481SOL     OW12281   7.402  11.387  10.251
 3481SOL    HW112282   7.398  11.383  10.156
 3481SOL    HW212283   7.311  11.376  10.280
 3482SOL     OW12284   1.061   5.222  13.347
 3482SOL    HW112285   1.060   5.134  13.312
 3482SOL    HW212286   1.140   5.262  13.311
 3483SOL     OW12287   3.632  12.388   6.648
 3483SOL    HW112288   3.632  12.468   6.596
 3483SOL    HW212289   3.577  12.409   6.724
 3484SOL     OW12290   9.721   7.426  13.462
 3484SOL    HW112291   9.753   7.426  13.552
 3484SOL    HW212292   9.743   7.339  13.429
 3485SOL     OW12293   2.072   8.146   6.018
 3485SOL    HW112294   2.092   8.076   6.080
 3485SOL    HW212295   2.149   8.151   5.961
 3486SOL     OW12296   6.057   3.378   0.743
 3486SOL    HW112297   6.012   3.462   0.750
 3486SOL    HW212298   6.001   3.326   0.686
 3487SOL     OW12299   5.497   0.668  10.699
 3487SOL    HW112300   5.423   0.727  10.685
 3487SOL    HW212301   5.462   0.597  10.753
 3488SOL     OW12302   1.331  10.295   4.337
 3488SOL    HW112303   1.292  10.219   4.294
 3488SOL    HW212304   1.331  10.273   4.430
 3489SOL     OW12305  13.571   2.084   6.888
 3489SOL    HW112306  13.555   2.155   6.950
 3489SOL    HW212307  13.499   2.090   6.825
 3490SOL     OW12308  12.766  10.227   4.099
 3490SOL    HW112309  12.672  10.231   4.119
 3490SOL    HW212310  12.779  10.140   4.062
 3491SOL     OW12311   0.537  11.287   1.823
 3491SOL    HW112312   0.505  11.354   1.762
 3491SOL    HW212313   0.543  11.207   1.771
 3492SOL     OW12314   7.938  14.599  10.514
 3492SOL    HW112315   7.945  14.694  10.528
 3492SOL    HW212316   7.896  14.591  10.428
 3493SOL     OW12317  10.673   1.744   7.091
 3493SOL    HW112318  10.670   1.825   7.040
 3493SOL    HW212319  10.766   1.725   7.100
 3494SOL     OW12320   0.285  14.738   3.496
 3494SOL    HW112321   0.366  14.714   3.452
 3494SOL    HW212322   0.224  14.669   3.473
 3495SOL     OW12323   9.236  10.029   1.970
 3495SOL    HW112324   9.294  10.039   2.046
 3495SOL    HW212325   9.203  10.117   1.953
 3496SOL     OW12326   0.847   1.229  11.370
 3496SOL    HW112327   0.857   1.154  11.429
 3496SOL    HW212328   0.755   1.227  11.344
 3497SOL     OW12329   3.867   4.742   6.937
 3497SOL    HW112330   3.951   4.777   6.966
 3497SOL    HW212331   3.816   4.820   6.913
 3498SOL     OW12332   1.345   6.081  10.686
 3498SOL    HW112333   1.371   6.137  10.759
 3498SOL    HW212334   1.321   6.142  10.616
 3499SOL     OW12335   1.380   9.645   4.378
 3499SOL    HW112336   1.342   9.583   4.441
 3499SOL    HW212337   1.467   9.663   4.414
 3500SOL     OW12338   1.322  10.262   9.514
 3500SOL    HW112339   1.415  10.261   9.534
 3500SOL    HW212340   1.279  10.262   9.600
 3501SOL     OW12341   3.963   4.250  14.803
 3501SOL    HW112342   4.017   4.190  14.855
 3501SOL    HW212343   4.023   4.284  14.737
 3502SOL     OW12344   1.785   0.268   6.364
 3502SOL    HW112345   1.873   0.240   6.341
 3502SOL    HW212346   1.778   0.252   6.458
 3503SOL     OW12347  12.261  14.649   1.074
 3503SOL    HW112348  12.216  14.703   1.138
 3503SOL    HW212349  12.230  14.681   0.989
 3504SOL     OW12350   0.284  11.972  14.544
 3504SOL    HW112351   0.239  12.036  14.489
 3504SOL    HW212352   0.217  11.943  14.606
 3505SOL     OW12353  14.773   1.313   6.385
 3505SOL    HW112354  14.697   1.256   6.398
 3505SOL    HW212355  14.749   1.369   6.311
 3506SOL     OW12356   9.962   4.856  14.268
 3506SOL    HW112357   9.941   4.798  14.341
 3506SOL    HW212358   9.983   4.940  14.309
 3507SOL     OW12359   4.422  10.052   7.615
 3507SOL    HW112360   4.478   9.976   7.595
 3507SOL    HW212361   4.379  10.072   7.533
 3508SOL     OW12362   1.490   2.444   1.054
 3508SOL    HW112363   1.425   2.473   1.118
 3508SOL    HW212364   1.453   2.469   0.970
 3509SOL     OW12365  10.954   3.086   4.357
 3509SOL    HW112366  10.940   3.097   4.451
 3509SOL    HW212367  10.935   3.171   4.320
 3510SOL     OW12368   0.093  13.999  12.238
 3510SOL    HW112369   0.151  13.994  12.314
 3510SOL    HW212370   0.007  13.974  12.271
 3511SOL     OW12371   4.752  12.645   7.137
 3511SOL    HW112372   4.728  12.608   7.222
 3511SOL    HW212373   4.676  12.697   7.111
 3512SOL     OW12374   2.056   6.271  12.979
 3512SOL    HW112375   2.099   6.326  13.044
 3512SOL    HW212376   2.119   6.263  12.908
 3513SOL     OW12377  11.580   1.043   7.860
 3513SOL    HW112378  11.675   1.053   7.867
 3513SOL    HW212379  11.563   0.953   7.886
 3514SOL     OW12380   6.424   1.121   4.094
 3514SOL    HW112381   6.357   1.137   4.160
 3514SOL    HW212382   6.423   1.026   4.081
 3515SOL     OW12383  13.470   9.836   6.982
 3515SOL    HW112384  13.525   9.843   6.903
 3515SOL    HW212385  13.437   9.925   6.995
 3516SOL     OW12386   3.352   6.187   3.638
 3516SOL    HW112387   3.327   6.112   3.584
 3516SOL    HW212388   3.375   6.256   3.576
 3517SOL     OW12389   0.524  12.991   6.816
 3517SOL    HW112390   0.577  13.031   6.885
 3517SOL    HW212391   0.436  13.026   6.830
 3518SOL     OW12392  14.824   9.574  10.226
 3518SOL    HW112393  14.744   9.522  10.227
 3518SOL    HW212394  14.879   9.532  10.160
 3519SOL     OW12395   8.432   8.745  14.400
 3519SOL    HW112396   8.386   8.811  14.452
 3519SOL    HW212397   8.525   8.764  14.413
 3520SOL     OW12398   7.796   8.387  13.556
 3520SOL    HW112399   7.880   8.384  13.600
 3520SOL    HW212400   7.746   8.454  13.603
 3521SOL     OW12401   0.420  10.793  14.235
 3521SOL    HW112402   0.387  10.710  14.268
 3521SOL    HW212403   0.342  10.846  14.221
 3522SOL     OW12404  13.856  10.520  13.651
 3522SOL    HW112405  13.847  10.435  13.695
 3522SOL    HW212406  13.802  10.512  13.573
 3523SOL     OW12407   8.647   4.044   9.421
 3523SOL    HW112408   8.730   4.044   9.469
 3523SOL    HW212409   8.606   3.961   9.445
 3524SOL     OW12410   8.158   3.622   6.514
 3524SOL    HW112411   8.091   3.622   6.582
 3524SOL    HW212412   8.128   3.557   6.450
 3525SOL     OW12413   5.184   6.698  10.429
 3525SOL    HW112414   5.243   6.669  10.360
 3525SOL    HW212415   5.098   6.666  10.403
 3526SOL     OW12416  12.257   1.202   8.101
 3526SOL    HW112417  12.234   1.234   8.013
 3526SOL    HW212418  12.319   1.266   8.135
 3527SOL     OW12419  13.291   4.594   2.126
 3527SOL    HW112420  13.385   4.590   2.144
 3527SOL    HW212421  13.253   4.630   2.206
 3528SOL     OW12422  11.972   8.409   5.549
 3528SOL    HW112423  11.975   8.500   5.579
 3528SOL    HW212424  12.060   8.391   5.516
 3529SOL     OW12425   5.781  12.496   7.042
 3529SOL    HW112426   5.756  12.410   7.075
 3529SOL    HW212427   5.739  12.501   6.956
 3530SOL     OW12428  14.458  11.997   0.140
 3530SOL    HW112429  14.453  12.093   0.143
 3530SOL    HW212430  14.544  11.980   0.100
 3531SOL     OW12431   7.343   9.061   1.481
 3531SOL    HW112432   7.380   8.977   1.509
 3531SOL    HW212433   7.403   9.093   1.414
 3532SOL     OW12434  12.082  11.548   8.025
 3532SOL    HW112435  12.111  11.457   8.015
 3532SOL    HW212436  12.032  11.548   8.106
 3533SOL     OW12437  11.789   8.389   9.588
 3533SOL    HW112438  11.783   8.372   9.494
 3533SOL    HW212439  11.873   8.433   9.599
 3534SOL     OW12440  13.123   3.318  11.353
 3534SOL    HW112441  13.094   3.312  11.262
 3534SOL    HW212442  13.172   3.400  11.357
 3535SOL     OW12443   9.986   5.712   4.817
 3535SOL    HW112444  10.074   5.713   4.781
 3535SOL    HW212445   9.995   5.667   4.901
 3536SOL     OW12446   5.659  13.166   5.743
 3536SOL    HW112447   5.689  13.235   5.803
 3536SOL    HW212448   5.712  13.090   5.767
 3537SOL     OW12449  14.416   4.399   1.449
 3537SOL    HW112450  14.462   4.315   1.454
 3537SOL    HW212451  14.323   4.376   1.453
 3538SOL     OW12452   6.870   7.012   5.033
 3538SOL    HW112453   6.865   6.920   5.058
 3538SOL    HW212454   6.889   7.011   4.939
 3539SOL     OW12455   5.278   6.295   0.317
 3539SOL    HW112456   5.362   6.342   0.312
 3539SOL    HW212457   5.223   6.350   0.372
 3540SOL     OW12458   3.870   8.955  13.860
 3540SOL    HW112459   3.860   8.924  13.950
 3540SOL    HW212460   3.806   9.026  13.852
 3541SOL     OW12461   2.064  12.741  14.030
 3541SOL    HW112462   2.000  12.679  13.994
 3541SOL    HW212463   2.092  12.701  14.112
 3542SOL     OW12464   6.286   7.474   4.667
 3542SOL    HW112465   6.291   7.435   4.580
 3542SOL    HW212466   6.204   7.524   4.666
 3543SOL     OW12467   2.614   2.990   5.213
 3543SOL    HW112468   2.644   2.975   5.303
 3543SOL    HW212469   2.627   2.907   5.169
 3544SOL     OW12470  13.762  13.601  14.072
 3544SOL    HW112471  13.674  13.632  14.091
 3544SOL    HW212472  13.782  13.540  14.143
 3545SOL     OW12473   5.609   0.159   4.480
 3545SOL    HW112474   5.669   0.190   4.547
 3545SOL    HW212475   5.601   0.232   4.419
 3546SOL     OW12476   7.876   1.563   0.977
 3546SOL    HW112477   7.838   1.539   1.062
 3546SOL    HW212478   7.968   1.579   0.996
 3547SOL     OW12479   2.270  10.976   0.620
 3547SOL    HW112480   2.328  10.957   0.694
 3547SOL    HW212481   2.230  11.060   0.641
 3548SOL     OW12482   7.084   1.884   1.411
 3548SOL    HW112483   7.062   1.887   1.318
 3548SOL    HW212484   7.010   1.837   1.451
 3549SOL     OW12485   1.004  10.022   6.969
 3549SOL    HW112486   0.944  10.083   7.011
 3549SOL    HW212487   1.062  10.077   6.917
 3550SOL     OW12488   7.382   8.428   5.746
 3550SOL    HW112489   7.345   8.342   5.724
 3550SOL    HW212490   7.455   8.408   5.805
 3551SOL     OW12491   2.823   5.073   6.065
 3551SOL    HW112492   2.793   5.084   5.975
 3551SOL    HW212493   2.901   5.018   6.058
 3552SOL     OW12494   8.217   8.820   5.002
 3552SOL    HW112495   8.193   8.778   5.085
 3552SOL    HW212496   8.146   8.795   4.942
 3553SOL     OW12497  11.760   0.002   1.630
 3553SOL    HW112498  11.799   0.082   1.665
 3553SOL    HW212499  11.686   0.032   1.577
 3554SOL     OW12500  12.215  10.251  10.365
 3554SOL    HW112501  12.158  10.249  10.288
 3554SOL    HW212502  12.155  10.259  10.439
 3555SOL     OW12503   2.849   0.160   2.290
 3555SOL    HW112504   2.868   0.216   2.365
 3555SOL    HW212505   2.922   0.098   2.288
 3556SOL     OW12506   0.904   3.849   0.212
 3556SOL    HW112507   0.818   3.869   0.176
 3556SOL    HW212508   0.964   3.865   0.140
 3557SOL     OW12509   2.241   5.938  12.536
 3557SOL    HW112510   2.304   6.006  12.514
 3557SOL    HW212511   2.231   5.886  12.456
 3558SOL     OW12512   4.388   6.170   9.265
 3558SOL    HW112513   4.426   6.218   9.338
 3558SOL    HW212514   4.387   6.233   9.193
 3559SOL     OW12515   2.074   0.057  13.245
 3559SOL    HW112516   2.028  14.853  13.245
 3559SOL    HW212517   2.075   0.084  13.337
 3560SOL     OW12518  13.078   8.281  10.745
 3560SOL    HW112519  13.010   8.339  10.779
 3560SOL    HW212520  13.087   8.213  10.812
 3561SOL     OW12521   2.228   4.903   2.224
 3561SOL    HW112522   2.210   4.893   2.131
 3561SOL    HW212523   2.177   4.981   2.250
 3562SOL     OW12524   0.842   5.125   8.568
 3562SOL    HW112525   0.829   5.084   8.653
 3562SOL    HW212526   0.783   5.078   8.509
 3563SOL     OW12527   2.485  12.751   4.150
 3563SOL    HW112528   2.389  12.752   4.147
 3563SOL    HW212529   2.507  12.666   4.186
 3564SOL     OW12530  14.242  11.275   2.868
 3564SOL    HW112531  14.214  11.186   2.891
 3564SOL    HW212532  14.210  11.289   2.779
 3565SOL     OW12533   7.985   2.808  13.101
 3565SOL    HW112534   8.045   2.845  13.166
 3565SOL    HW212535   8.041   2.760  13.041
 3566SOL     OW12536   6.024   4.224  13.457
 3566SOL    HW112537   6.092   4.290  13.470
 3566SOL    HW212538   5.942   4.270  13.473
 3567SOL     OW12539   3.542  12.626  14.464
 3567SOL    HW112540   3.568  12.626  14.556
 3567SOL    HW212541   3.549  12.534  14.438
 3568SOL     OW12542   3.783   6.422   8.279
 3568SOL    HW112543   3.862   6.408   8.227
 3568SOL    HW212544   3.714   6.375   8.231
 3569SOL     OW12545   8.607   9.952   4.350
 3569SOL    HW112546   8.617  10.044   4.376
 3569SOL    HW212547   8.519   9.928   4.381
 3570SOL     OW12548  12.875  10.889  14.129
 3570SOL    HW112549  12.786  10.924  14.125
 3570SOL    HW212550  12.865  10.796  14.107
 3571SOL     OW12551   5.169   3.461  11.233
 3571SOL    HW112552   5.251   3.451  11.281
 3571SOL    HW212553   5.191   3.436  11.143
 3572SOL     OW12554   5.455   5.346   2.154
 3572SOL    HW112555   5.383   5.404   2.177
 3572SOL    HW212556   5.512   5.346   2.231
 3573SOL     OW12557  14.639  10.130   6.206
 3573SOL    HW112558  14.732  10.151   6.194
 3573SOL    HW212559  14.622  10.060   6.142
 3574SOL     OW12560  11.478   1.449  13.520
 3574SOL    HW112561  11.519   1.458  13.434
 3574SOL    HW212562  11.474   1.538  13.555
 3575SOL     OW12563  13.022   4.192   3.870
 3575SOL    HW112564  12.944   4.242   3.845
 3575SOL    HW212565  12.989   4.106   3.894
 3576SOL     OW12566  10.026   0.682   1.065
 3576SOL    HW112567   9.949   0.658   1.117
 3576SOL    HW212568  10.093   0.703   1.130
 3577SOL     OW12569  13.851  10.097   1.748
 3577SOL    HW112570  13.757  10.077   1.754
 3577SOL    HW212571  13.894  10.022   1.788
 3578SOL     OW12572  14.578   8.631  11.523
 3578SOL    HW112573  14.619   8.667  11.444
 3578SOL    HW212574  14.524   8.703  11.556
 3579SOL     OW12575  14.177  11.855  11.057
 3579SOL    HW112576  14.215  11.882  11.141
 3579SOL    HW212577  14.154  11.763  11.070
 3580SOL     OW12578   6.331  12.315  11.128
 3580SOL    HW112579   6.349  12.300  11.036
 3580SOL    HW212580   6.339  12.229  11.169
 3581SOL     OW12581  14.237   7.276   6.479
 3581SOL    HW112582  14.160   7.249   6.528
 3581SOL    HW212583  14.224   7.370   6.465
 3582SOL     OW12584   6.570   8.982   2.526
 3582SOL    HW112585   6.546   8.966   2.617
 3582SOL    HW212586   6.644   9.042   2.531
 3583SOL     OW12587   4.836   3.312   0.073
 3583SOL    HW112588   4.882   3.359   0.003
 3583SOL    HW212589   4.743   3.333   0.058
 3584SOL     OW12590   7.447   6.599   6.558
 3584SOL    HW112591   7.528   6.619   6.605
 3584SOL    HW212592   7.378   6.638   6.612
 3585SOL     OW12593   8.336  12.425   2.538
 3585SOL    HW112594   8.314  12.517   2.547
 3585SOL    HW212595   8.313  12.386   2.623
 3586SOL     OW12596   6.697   5.122   5.199
 3586SOL    HW112597   6.761   5.061   5.164
 3586SOL    HW212598   6.734   5.209   5.181
 3587SOL     OW12599   4.559   0.049  12.824
 3587SOL    HW112600   4.542  14.835  12.810
 3587SOL    HW212601   4.473   0.085  12.847
 3588SOL     OW12602   0.141   2.530   3.346
 3588SOL    HW112603   0.115   2.621   3.361
 3588SOL    HW212604   0.143   2.520   3.251
 3589SOL     OW12605   4.773  11.895   2.691
 3589SOL    HW112606   4.805  11.932   2.609
 3589SOL    HW212607   4.698  11.842   2.666
 3590SOL     OW12608   3.347   7.321  14.393
 3590SOL    HW112609   3.416   7.306  14.328
 3590SOL    HW212610   3.275   7.265  14.365
 3591SOL     OW12611   9.172   6.635   1.960
 3591SOL    HW112612   9.245   6.687   1.993
 3591SOL    HW212613   9.209   6.547   1.950
 3592SOL     OW12614  14.455  10.941   8.497
 3592SOL    HW112615  14.547  10.968   8.502
 3592SOL    HW212616  14.409  11.019   8.466
 3593SOL     OW12617   5.729   0.596  13.035
 3593SOL    HW112618   5.654   0.607  13.093
 3593SOL    HW212619   5.702   0.635  12.952
 3594SOL     OW12620   0.881  13.346  13.994
 3594SOL    HW112621   0.872  13.424  13.941
 3594SOL    HW212622   0.975  13.341  14.013
 3595SOL     OW12623   3.316   9.801   1.077
 3595SOL    HW112624   3.270   9.720   1.100
 3595SOL    HW212625   3.308   9.807   0.982
 3596SOL     OW12626   5.616   5.080   2.449
 3596SOL    HW112627   5.599   5.172   2.469
 3596SOL    HW212628   5.604   5.035   2.533
 3597SOL     OW12629   3.836   8.263   4.215
 3597SOL    HW112630   3.769   8.203   4.182
 3597SOL    HW212631   3.875   8.216   4.288
 3598SOL     OW12632  11.251   4.141  13.523
 3598SOL    HW112633  11.169   4.144  13.571
 3598SOL    HW212634  11.225   4.126  13.432
 3599SOL     OW12635  11.561  11.837  11.344
 3599SOL    HW112636  11.605  11.811  11.263
 3599SOL    HW212637  11.631  11.865  11.402
 3600SOL     OW12638   8.695   5.366   7.564
 3600SOL    HW112639   8.717   5.446   7.516
 3600SOL    HW212640   8.601   5.355   7.550
 3601SOL     OW12641  12.933  11.887  10.295
 3601SOL    HW112642  12.984  11.954  10.340
 3601SOL    HW212643  12.996  11.816  10.279
 3602SOL     OW12644   1.503   0.535   4.293
 3602SOL    HW112645   1.549   0.582   4.362
 3602SOL    HW212646   1.490   0.599   4.223
 3603SOL     OW12647   0.128   5.860   0.546
 3603SOL    HW112648   0.111   5.812   0.628
 3603SOL    HW212649   0.084   5.944   0.558
 3604SOL     OW12650   3.284   3.184  10.090
 3604SOL    HW112651   3.192   3.172  10.116
 3604SOL    HW212652   3.310   3.098  10.057
 3605SOL     OW12653   0.479   0.323   0.565
 3605SOL    HW112654   0.551   0.331   0.502
 3605SOL    HW212655   0.422   0.397   0.547
 3606SOL     OW12656   3.441  13.977   9.464
 3606SOL    HW112657   3.349  13.970   9.440
 3606SOL    HW212658   3.465  13.889   9.494
 3607SOL     OW12659   0.860   3.808   8.273
 3607SOL    HW112660   0.939   3.811   8.218
 3607SOL    HW212661   0.829   3.717   8.265
 3608SOL     OW12662  13.006   0.931  13.274
 3608SOL    HW112663  13.056   0.979  13.340
 3608SOL    HW212664  12.976   0.998  13.213
 3609SOL     OW12665   5.210   5.549  13.060
 3609SOL    HW112666   5.124   5.573  13.096
 3609SOL    HW212667   5.243   5.630  13.022
 3610SOL     OW12668   5.462   9.741  13.076
 3610SOL    HW112669   5.420   9.716  12.994
 3610SOL    HW212670   5.436   9.832  13.089
 3611SOL     OW12671   6.274   3.048  13.125
 3611SOL    HW112672   6.341   3.091  13.073
 3611SOL    HW212673   6.213   3.118  13.148
 3612SOL     OW12674   9.174   7.867   4.738
 3612SOL    HW112675   9.133   7.953   4.740
 3612SOL    HW212676   9.118   7.811   4.792
 3613SOL     OW12677   0.810   9.250   5.207
 3613SOL    HW112678   0.745   9.317   5.227
 3613SOL    HW212679   0.773   9.169   5.240
 3614SOL     OW12680  13.416   1.195   8.225
 3614SOL    HW112681  13.465   1.277   8.237
 3614SOL    HW212682  13.325   1.222   8.218
 3615SOL     OW12683   1.100   6.560   9.548
 3615SOL    HW112684   1.125   6.602   9.466
 3615SOL    HW212685   1.065   6.631   9.601
 3616SOL     OW12686   8.260  14.600   3.113
 3616SOL    HW112687   8.320  14.594   3.187
 3616SOL    HW212688   8.303  14.554   3.042
 3617SOL     OW12689  12.518   7.205   9.312
 3617SOL    HW112690  12.564   7.287   9.292
 3617SOL    HW212691  12.587   7.146   9.340
 3618SOL     OW12692   3.470   1.801   5.610
 3618SOL    HW112693   3.427   1.730   5.561
 3618SOL    HW212694   3.421   1.880   5.586
 3619SOL     OW12695  12.194   8.655  10.518
 3619SOL    HW112696  12.266   8.666  10.456
 3619SOL    HW212697  12.116   8.683  10.471
 3620SOL     OW12698   0.547   9.251  13.717
 3620SOL    HW112699   0.623   9.242  13.774
 3620SOL    HW212700   0.472   9.255  13.777
 3621SOL     OW12701   8.004   1.588  12.859
 3621SOL    HW112702   8.055   1.584  12.940
 3621SOL    HW212703   8.056   1.538  12.796
 3622SOL     OW12704  13.600   3.744   3.892
 3622SOL    HW112705  13.662   3.713   3.958
 3622SOL    HW212706  13.530   3.785   3.943
 3623SOL     OW12707   3.275   4.524   4.477
 3623SOL    HW112708   3.241   4.525   4.388
 3623SOL    HW212709   3.219   4.585   4.525
 3624SOL     OW12710  13.097   8.051  10.991
 3624SOL    HW112711  13.165   7.994  10.953
 3624SOL    HW212712  13.022   7.993  11.004
 3625SOL     OW12713  12.373   0.618   6.367
 3625SOL    HW112714  12.425   0.632   6.288
 3625SOL    HW212715  12.438   0.594   6.434
 3626SOL     OW12716  12.546  14.223   4.839
 3626SOL    HW112717  12.477  14.235   4.904
 3626SOL    HW212718  12.563  14.129   4.838
 3627SOL     OW12719   0.178   3.744   5.059
 3627SOL    HW112720   0.243   3.813   5.065
 3627SOL    HW212721   0.210   3.687   4.989
 3628SOL     OW12722  12.025   8.738  12.999
 3628SOL    HW112723  12.095   8.698  12.949
 3628SOL    HW212724  12.039   8.832  12.988
 3629SOL     OW12725   4.502   8.096   2.796
 3629SOL    HW112726   4.564   8.062   2.731
 3629SOL    HW212727   4.555   8.109   2.874
 3630SOL     OW12728   1.332   3.574   5.307
 3630SOL    HW112729   1.299   3.662   5.325
 3630SOL    HW212730   1.420   3.588   5.271
 3631SOL     OW12731  12.416   0.485  13.893
 3631SOL    HW112732  12.389   0.554  13.953
 3631SOL    HW212733  12.504   0.509  13.866
 3632SOL     OW12734  12.235   3.334   3.288
 3632SOL    HW112735  12.178   3.358   3.361
 3632SOL    HW212736  12.220   3.403   3.223
 3633SOL     OW12737   1.064   9.407   0.040
 3633SOL    HW112738   1.114   9.325   0.036
 3633SOL    HW212739   0.996   9.396  14.852
 3634SOL     OW12740  10.799   3.347  12.223
 3634SOL    HW112741  10.858   3.417  12.251
 3634SOL    HW212742  10.726   3.352  12.285
 3635SOL     OW12743   8.286   7.908  11.914
 3635SOL    HW112744   8.241   7.936  11.994
 3635SOL    HW212745   8.278   7.983  11.855
 3636SOL     OW12746  14.673   7.585  13.186
 3636SOL    HW112747  14.613   7.546  13.122
 3636SOL    HW212748  14.760   7.567  13.153
 3637SOL     OW12749   1.611  11.952   0.037
 3637SOL    HW112750   1.539  12.006   0.004
 3637SOL    HW212751   1.660  11.927  14.838
 3638SOL     OW12752  11.745   0.096  10.378
 3638SOL    HW112753  11.767   0.010  10.413
 3638SOL    HW212754  11.684   0.077  10.306
 3639SOL     OW12755   3.719   4.288   9.071
 3639SOL    HW112756   3.754   4.377   9.062
 3639SOL    HW212757   3.790   4.238   9.111
 3640SOL     OW12758  11.261  10.164  10.686
 3640SOL    HW112759  11.180  10.119  10.662
 3640SOL    HW212760  11.291  10.204  10.605
 3641SOL     OW12761   9.651   5.014  12.184
 3641SOL    HW112762   9.643   5.085  12.121
 3641SOL    HW212763   9.665   5.057  12.268
 3642SOL     OW12764   8.291   6.796   6.354
 3642SOL    HW112765   8.262   6.822   6.266
 3642SOL    HW212766   8.211   6.797   6.406
 3643SOL     OW12767  11.336   6.944  11.788
 3643SOL    HW112768  11.246   6.943  11.756
 3643SOL    HW212769  11.356   6.853  11.807
 3644SOL     OW12770   0.397  12.101  11.674
 3644SOL    HW112771   0.493  12.093  11.669
 3644SOL    HW212772   0.382  12.189  11.708
 3645SOL     OW12773  13.877   7.564   3.337
 3645SOL    HW112774  13.906   7.644   3.291
 3645SOL    HW212775  13.903   7.578   3.428
 3646SOL     OW12776   0.759   5.196   1.371
 3646SOL    HW112777   0.811   5.269   1.404
 3646SOL    HW212778   0.816   5.120   1.378
 3647SOL     OW12779  14.828  14.792   4.287
 3647SOL    HW112780  14.796  14.744   4.364
 3647SOL    HW212781   0.043  14.794   4.297
 3648SOL     OW12782  14.833   3.696  14.433
 3648SOL    HW112783  14.777   3.774  14.436
 3648SOL    HW212784  14.866   3.688  14.523
 3649SOL     OW12785   7.176   3.359   9.863
 3649SOL    HW112786   7.242   3.400   9.808
 3649SOL    HW212787   7.204   3.378   9.953
 3650SOL     OW12788   2.731   9.409   1.948
 3650SOL    HW112789   2.815   9.366   1.962
 3650SOL    HW212790   2.668   9.337   1.938
 3651SOL     OW12791   9.830  13.715  10.407
 3651SOL    HW112792   9.757  13.725  10.346
 3651SOL    HW212793   9.840  13.621  10.417
 3652SOL     OW12794   0.608   4.744   1.659
 3652SOL    HW112795   0.671   4.794   1.606
 3652SOL    HW212796   0.541   4.716   1.597
 3653SOL     OW12797   6.256   4.480  10.834
 3653SOL    HW112798   6.339   4.507  10.794
 3653SOL    HW212799   6.281   4.429  10.911
 3654SOL     OW12800   7.161   4.187   6.997
 3654SOL    HW112801   7.239   4.214   6.950
 3654SOL    HW212802   7.193   4.127   7.065
 3655SOL     OW12803  14.667  10.949  14.709
 3655SOL    HW112804  14.725  11.025  14.720
 3655SOL    HW212805  14.663  10.936  14.614
 3656SOL     OW12806  14.240   9.458   2.703
 3656SOL    HW112807  14.318   9.487   2.656
 3656SOL    HW212808  14.183   9.534   2.705
 3657SOL     OW12809  12.041   4.054   3.928
 3657SOL    HW112810  12.122   4.011   3.958
 3657SOL    HW212811  11.981   4.047   4.003
 3658SOL     OW12812   5.763  10.128   8.016
 3658SOL    HW112813   5.752  10.036   8.039
 3658SOL    HW212814   5.674  10.161   8.007
 3659SOL     OW12815   7.593   1.625  12.594
 3659SOL    HW112816   7.679   1.583  12.588
 3659SOL    HW212817   7.609   1.708  12.639
 3660SOL     OW12818  13.263   9.568   5.562
 3660SOL    HW112819  13.319   9.562   5.639
 3660SOL    HW212820  13.297   9.643   5.514
 3661SOL     OW12821   2.771   9.388  10.115
 3661SOL    HW112822   2.800   9.335  10.041
 3661SOL    HW212823   2.679   9.363  10.128
 3662SOL     OW12824   8.445   6.978   9.940
 3662SOL    HW112825   8.354   6.953   9.956
 3662SOL    HW212826   8.495   6.900   9.964
 3663SOL     OW12827   7.314  13.634  14.765
 3663SOL    HW112828   7.233  13.642  14.814
 3663SOL    HW212829   7.312  13.545  14.729
 3664SOL     OW12830   1.684   4.572   0.051
 3664SOL    HW112831   1.600   4.535   0.076
 3664SOL    HW212832   1.704   4.636   0.119
 3665SOL     OW12833   6.224  10.703  10.776
 3665SOL    HW112834   6.308  10.674  10.741
 3665SOL    HW212835   6.186  10.757  10.706
 3666SOL     OW12836   2.911   9.395   0.389
 3666SOL    HW112837   2.909   9.332   0.461
 3666SOL    HW212838   2.850   9.359   0.324
 3667SOL     OW12839   7.542   7.494  14.452
 3667SOL    HW112840   7.514   7.514  14.541
 3667SOL    HW212841   7.631   7.528  14.447
 3668SOL     OW12842   6.861  14.484  14.281
 3668SOL    HW112843   6.851  14.490  14.376
 3668SOL    HW212844   6.878  14.392  14.265
 3669SOL     OW12845  12.605   5.769   6.700
 3669SOL    HW112846  12.624   5.676   6.690
 3669SOL    HW212847  12.509   5.774   6.703
 3670SOL     OW12848   8.952   7.428   0.562
 3670SOL    HW112849   9.025   7.367   0.575
 3670SOL    HW212850   8.971   7.470   0.477
 3671SOL     OW12851   3.648   9.159  13.892
 3671SOL    HW112852   3.597   9.185  13.969
 3671SOL    HW212853   3.583   9.155  13.821
 3672SOL     OW12854  12.477  14.095   1.101
 3672SOL    HW112855  12.494  14.009   1.139
 3672SOL    HW212856  12.555  14.146   1.122
 3673SOL     OW12857   4.388  13.187  12.669
 3673SOL    HW112858   4.446  13.261  12.654
 3673SOL    HW212859   4.404  13.162  12.760
 3674SOL     OW12860   8.242   7.914   7.977
 3674SOL    HW112861   8.316   7.918   7.917
 3674SOL    HW212862   8.197   7.832   7.953
 3675SOL     OW12863   2.793   5.035   8.823
 3675SOL    HW112864   2.883   5.020   8.852
 3675SOL    HW212865   2.793   5.008   8.731
 3676SOL     OW12866   9.285   2.329   6.412
 3676SOL    HW112867   9.282   2.356   6.320
 3676SOL    HW212868   9.336   2.397   6.455
 3677SOL     OW12869   2.410   2.592  11.847
 3677SOL    HW112870   2.484   2.652  11.844
 3677SOL    HW212871   2.361   2.617  11.926
 3678SOL     OW12872   1.967  10.014  12.368
 3678SOL    HW112873   1.882  10.008  12.412
 3678SOL    HW212874   2.022   9.949  12.412
 3679SOL     OW12875  12.374   8.745   0.357
 3679SOL    HW112876  12.296   8.797   0.340
 3679SOL    HW212877  12.442   8.809   0.375
 3680SOL     OW12878  13.036   0.740   8.054
 3680SOL    HW112879  12.983   0.770   7.980
 3680SOL    HW212880  13.031   0.644   8.050
 3681SOL     OW12881  14.681  10.756   8.322
 3681SOL    HW112882  14.629  10.723   8.248
 3681SOL    HW212883  14.627  10.824   8.361
 3682SOL     OW12884   4.696  12.536  11.356
 3682SOL    HW112885   4.639  12.609  11.381
 3682SOL    HW212886   4.637  12.473  11.315
 3683SOL     OW12887  11.305   5.520   3.010
 3683SOL    HW112888  11.253   5.469   3.071
 3683SOL    HW212889  11.374   5.459   2.981
 3684SOL     OW12890   5.919   0.093   8.271
 3684SOL    HW112891   5.975   0.056   8.339
 3684SOL    HW212892   5.972   0.161   8.230
 3685SOL     OW12893   2.004   1.995  14.313
 3685SOL    HW112894   1.999   2.079  14.268
 3685SOL    HW212895   2.045   2.014  14.397
 3686SOL     OW12896   4.702   1.637   4.473
 3686SOL    HW112897   4.759   1.701   4.515
 3686SOL    HW212898   4.679   1.576   4.544
 3687SOL     OW12899   3.620   2.127   9.313
 3687SOL    HW112900   3.610   2.221   9.293
 3687SOL    HW212901   3.546   2.086   9.268
 3688SOL     OW12902   1.552   4.668   4.527
 3688SOL    HW112903   1.618   4.737   4.518
 3688SOL    HW212904   1.481   4.708   4.578
 3689SOL     OW12905   5.326  11.644   0.011
 3689SOL    HW112906   5.291  11.582   0.077
 3689SOL    HW212907   5.401  11.684   0.054
 3690SOL     OW12908  14.628   6.744  13.131
 3690SOL    HW112909  14.711   6.738  13.084
 3690SOL    HW212910  14.651   6.724  13.222
 3691SOL     OW12911  14.113   8.961   6.522
 3691SOL    HW112912  14.176   8.946   6.452
 3691SOL    HW212913  14.029   8.972   6.477
 3692SOL     OW12914   0.175   8.438  10.794
 3692SOL    HW112915   0.268   8.439  10.817
 3692SOL    HW212916   0.164   8.512  10.735
 3693SOL     OW12917   6.126   7.226   0.860
 3693SOL    HW112918   6.086   7.297   0.910
 3693SOL    HW212919   6.053   7.166   0.842
 3694SOL     OW12920   1.191   5.006  11.964
 3694SOL    HW112921   1.286   5.010  11.955
 3694SOL    HW212922   1.160   4.972  11.880
 3695SOL     OW12923  13.353  10.896   4.528
 3695SOL    HW112924  13.390  10.864   4.610
 3695SOL    HW212925  13.415  10.964   4.499
 3696SOL     OW12926  11.195   2.243   3.553
 3696SOL    HW112927  11.265   2.270   3.495
 3696SOL    HW212928  11.124   2.306   3.538
 3697SOL     OW12929   4.171   1.181   6.119
 3697SOL    HW112930   4.145   1.159   6.030
 3697SOL    HW212931   4.208   1.100   6.155
 3698SOL     OW12932  14.701   2.624   1.881
 3698SOL    HW112933  14.649   2.702   1.864
 3698SOL    HW212934  14.695   2.573   1.800
 3699SOL     OW12935   3.263   3.730   0.477
 3699SOL    HW112936   3.185   3.785   0.473
 3699SOL    HW212937   3.336   3.791   0.479
 3700SOL     OW12938   0.765   3.975  13.701
 3700SOL    HW112939   0.843   3.923  13.683
 3700SOL    HW212940   0.798   4.062  13.721
 3701SOL     OW12941   7.268  11.549   7.911
 3701SOL    HW112942   7.259  11.615   7.979
 3701SOL    HW212943   7.284  11.468   7.958
 3702SOL     OW12944   1.548  11.070   7.850
 3702SOL    HW112945   1.542  11.104   7.940
 3702SOL    HW212946   1.458  11.043   7.830
 3703SOL     OW12947   3.872   0.660  13.426
 3703SOL    HW112948   3.933   0.705  13.368
 3703SOL    HW212949   3.877   0.710  13.508
 3704SOL     OW12950   6.301  11.772   5.696
 3704SOL    HW112951   6.207  11.788   5.708
 3704SOL    HW212952   6.344  11.832   5.757
 3705SOL     OW12953   6.215   9.919   7.845
 3705SOL    HW112954   6.289   9.931   7.785
 3705SOL    HW212955   6.253   9.873   7.920
 3706SOL     OW12956   7.845  10.502   8.557
 3706SOL    HW112957   7.840  10.422   8.610
 3706SOL    HW212958   7.763  10.548   8.575
 3707SOL     OW12959  10.704   5.999  11.397
 3707SOL    HW112960  10.767   5.977  11.466
 3707SOL    HW212961  10.711   6.094  11.388
 3708SOL     OW12962   7.448   4.338   9.865
 3708SOL    HW112963   7.478   4.307   9.780
 3708SOL    HW212964   7.488   4.424   9.874
 3709SOL     OW12965   5.310   2.455   5.856
 3709SOL    HW112966   5.351   2.444   5.942
 3709SOL    HW212967   5.379   2.492   5.801
 3710SOL     OW12968   7.997   2.324  11.681
 3710SOL    HW112969   7.994   2.254  11.616
 3710SOL    HW212970   7.997   2.405  11.629
 3711SOL     OW12971   6.261   8.518  13.517
 3711SOL    HW112972   6.303   8.466  13.449
 3711SOL    HW212973   6.168   8.496  13.511
 3712SOL     OW12974  10.311   7.630   0.812
 3712SOL    HW112975  10.393   7.673   0.833
 3712SOL    HW212976  10.246   7.701   0.811
 3713SOL     OW12977   3.378   9.195   5.803
 3713SOL    HW112978   3.397   9.285   5.777
 3713SOL    HW212979   3.336   9.203   5.889
 3714SOL     OW12980   5.349   9.468  12.482
 3714SOL    HW112981   5.392   9.519  12.551
 3714SOL    HW212982   5.327   9.532  12.415
 3715SOL     OW12983   3.848  10.458   6.305
 3715SOL    HW112984   3.761  10.431   6.335
 3715SOL    HW212985   3.857  10.547   6.339
 3716SOL     OW12986   0.568   1.476   7.823
 3716SOL    HW112987   0.587   1.383   7.836
 3716SOL    HW212988   0.491   1.476   7.766
 3717SOL     OW12989   7.359   6.874   6.990
 3717SOL    HW112990   7.356   6.919   6.906
 3717SOL    HW212991   7.300   6.924   7.046
 3718SOL     OW12992  12.679  12.765  11.063
 3718SOL    HW112993  12.670  12.739  10.971
 3718SOL    HW212994  12.589  12.768  11.096
 3719SOL     OW12995  11.287   7.751   2.716
 3719SOL    HW112996  11.319   7.734   2.628
 3719SOL    HW212997  11.326   7.682   2.769
 3720SOL     OW12998   5.203   6.972  11.268
 3720SOL    HW112999   5.168   7.028  11.337
 3720SOL    HW213000   5.297   6.988  11.269
 3721SOL     OW13001   8.366   0.890  14.092
 3721SOL    HW113002   8.360   0.816  14.152
 3721SOL    HW213003   8.395   0.852  14.009
 3722SOL     OW13004   0.115   2.470  11.085
 3722SOL    HW113005   0.125   2.412  11.160
 3722SOL    HW213006   0.066   2.545  11.119
 3723SOL     OW13007  10.204   9.348   7.236
 3723SOL    HW113008  10.168   9.346   7.148
 3723SOL    HW213009  10.136   9.307   7.290
 3724SOL     OW13010   0.718   1.447   4.694
 3724SOL    HW113011   0.737   1.402   4.777
 3724SOL    HW213012   0.662   1.520   4.718
 3725SOL     OW13013   9.365   0.467  11.130
 3725SOL    HW113014   9.437   0.484  11.191
 3725SOL    HW213015   9.290   0.446  11.186
 3726SOL     OW13016   9.246   2.632   9.209
 3726SOL    HW113017   9.314   2.697   9.187
 3726SOL    HW213018   9.193   2.675   9.276
 3727SOL     OW13019   2.493   1.575   7.653
 3727SOL    HW113020   2.582   1.545   7.670
 3727SOL    HW213021   2.503   1.668   7.633
 3728SOL     OW13022  10.600   7.512   3.201
 3728SOL    HW113023  10.527   7.534   3.144
 3728SOL    HW213024  10.645   7.440   3.156
 3729SOL     OW13025   6.865   1.597   0.131
 3729SOL    HW113026   6.872   1.647   0.213
 3729SOL    HW213027   6.923   1.642   0.070
 3730SOL     OW13028   8.739   1.650  14.089
 3730SOL    HW113029   8.749   1.640  14.183
 3730SOL    HW213030   8.786   1.576  14.051
 3731SOL     OW13031   3.245   5.221  14.195
 3731SOL    HW113032   3.309   5.234  14.265
 3731SOL    HW213033   3.274   5.141  14.150
 3732SOL     OW13034  12.322  14.862   4.486
 3732SOL    HW113035  12.410   0.012   4.510
 3732SOL    HW213036  12.304  14.788   4.544
 3733SOL     OW13037  11.409   5.881   7.475
 3733SOL    HW113038  11.316   5.861   7.471
 3733SOL    HW213039  11.451   5.795   7.484
 3734SOL     OW13040   6.725   7.749   5.920
 3734SOL    HW113041   6.819   7.730   5.927
 3734SOL    HW213042   6.683   7.670   5.953
 3735SOL     OW13043  11.732   6.666  10.505
 3735SOL    HW113044  11.799   6.732  10.521
 3735SOL    HW213045  11.749   6.598  10.569
 3736SOL     OW13046   4.506  12.748   1.332
 3736SOL    HW113047   4.558  12.728   1.410
 3736SOL    HW213048   4.549  12.825   1.294
 3737SOL     OW13049   4.947   3.559   0.806
 3737SOL    HW113050   5.020   3.540   0.866
 3737SOL    HW213051   4.907   3.639   0.842
 3738SOL     OW13052   0.006   2.552  14.485
 3738SOL    HW113053  14.870   2.606  14.563
 3738SOL    HW213054   0.100   2.556  14.471
 3739SOL     OW13055  14.040  12.916  13.911
 3739SOL    HW113056  14.045  12.932  13.817
 3739SOL    HW213057  14.130  12.895  13.936
 3740SOL     OW13058   5.542  14.654  13.821
 3740SOL    HW113059   5.478  14.694  13.762
 3740SOL    HW213060   5.626  14.663  13.776
 3741SOL     OW13061   0.270  14.440   7.647
 3741SOL    HW113062   0.216  14.385   7.591
 3741SOL    HW213063   0.232  14.431   7.735
 3742SOL     OW13064   8.822  14.370   6.760
 3742SOL    HW113065   8.865  14.429   6.697
 3742SOL    HW213066   8.808  14.289   6.712
 3743SOL     OW13067   0.501   3.714   9.570
 3743SOL    HW113068   0.428   3.684   9.516
 3743SOL    HW213069   0.577   3.712   9.511
 3744SOL     OW13070   0.507  14.713   4.349
 3744SOL    HW113071   0.594  14.712   4.389
 3744SOL    HW213072   0.516  14.659   4.270
 3745SOL     OW13073   6.008   3.272   5.962
 3745SOL    HW113074   5.979   3.363   5.959
 3745SOL    HW213075   5.948   3.231   6.025
 3746SOL     OW13076  13.886   2.253   7.724
 3746SOL    HW113077  13.829   2.179   7.747
 3746SOL    HW213078  13.929   2.226   7.643
 3747SOL     OW13079   8.803   1.082  12.315
 3747SOL    HW113080   8.835   1.101  12.403
 3747SOL    HW213081   8.871   1.027  12.276
 3748SOL     OW13082   1.537   3.582   3.338
 3748SOL    HW113083   1.495   3.664   3.363
 3748SOL    HW213084   1.593   3.604   3.263
 3749SOL     OW13085   7.656   4.204  10.641
 3749SOL    HW113086   7.641   4.221  10.548
 3749SOL    HW213087   7.600   4.129  10.661
 3750SOL     OW13088   5.931   9.876   8.365
 3750SOL    HW113089   5.992   9.843   8.431
 3750SOL    HW213090   5.947   9.970   8.363
 3751SOL     OW13091   7.261   6.144   1.622
 3751SOL    HW113092   7.210   6.073   1.584
 3751SOL    HW213093   7.287   6.112   1.708
 3752SOL     OW13094  10.161   7.077  11.277
 3752SOL    HW113095  10.185   7.045  11.364
 3752SOL    HW213096  10.204   7.017  11.216
 3753SOL     OW13097   0.942  11.627   2.409
 3753SOL    HW113098   1.002  11.553   2.403
 3753SOL    HW213099   0.963  11.669   2.493
 3754SOL     OW13100   6.585  13.807   1.747
 3754SOL    HW113101   6.647  13.867   1.789
 3754SOL    HW213102   6.624  13.721   1.759
 3755SOL     OW13103   5.761  14.588  12.310
 3755SOL    HW113104   5.814  14.508  12.311
 3755SOL    HW213105   5.737  14.601  12.402
 3756SOL     OW13106   0.082  12.889   9.965
 3756SOL    HW113107   0.034  12.904  10.047
 3756SOL    HW213108   0.124  12.804   9.978
 3757SOL     OW13109  11.043   1.878   1.002
 3757SOL    HW113110  11.117   1.876   0.942
 3757SOL    HW213111  11.006   1.789   0.997
 3758SOL     OW13112   0.401   4.673   6.556
 3758SOL    HW113113   0.386   4.666   6.651
 3758SOL    HW213114   0.492   4.646   6.545
 3759SOL     OW13115   3.322   5.331   3.884
 3759SOL    HW113116   3.266   5.353   3.958
 3759SOL    HW213117   3.325   5.235   3.883
 3760SOL     OW13118  10.223   1.124   1.833
 3760SOL    HW113119  10.142   1.158   1.795
 3760SOL    HW213120  10.244   1.187   1.903
 3761SOL     OW13121  12.569   5.182  11.291
 3761SOL    HW113122  12.656   5.209  11.319
 3761SOL    HW213123  12.550   5.104  11.343
 3762SOL     OW13124   7.395  12.846  13.087
 3762SOL    HW113125   7.357  12.806  13.165
 3762SOL    HW213126   7.399  12.775  13.023
 3763SOL     OW13127   8.974   2.308  13.291
 3763SOL    HW113128   8.935   2.221  13.296
 3763SOL    HW213129   8.965   2.344  13.379
 3764SOL     OW13130   7.954   9.927   0.528
 3764SOL    HW113131   7.880   9.926   0.590
 3764SOL    HW213132   7.918   9.964   0.448
 3765SOL     OW13133   7.634   2.573   9.510
 3765SOL    HW113134   7.680   2.497   9.476
 3765SOL    HW213135   7.557   2.581   9.454
 3766SOL     OW13136   4.344  11.936   2.598
 3766SOL    HW113137   4.431  11.895   2.608
 3766SOL    HW213138   4.324  11.971   2.685
 3767SOL     OW13139   5.659   7.807   7.105
 3767SOL    HW113140   5.623   7.886   7.144
 3767SOL    HW213141   5.704   7.762   7.177
 3768SOL     OW13142   1.694  13.085  13.856
 3768SOL    HW113143   1.739  13.035  13.924
 3768SOL    HW213144   1.764  13.121  13.802
 3769SOL     OW13145   4.961   1.231   5.555
 3769SOL    HW113146   4.965   1.256   5.647
 3769SOL    HW213147   4.869   1.210   5.540
 3770SOL     OW13148   5.158  13.636   2.173
 3770SOL    HW113149   5.065  13.645   2.151
 3770SOL    HW213150   5.164  13.665   2.264
 3771SOL     OW13151   2.789  12.812  12.657
 3771SOL    HW113152   2.870  12.836  12.614
 3771SOL    HW213153   2.794  12.717  12.668
 3772SOL     OW13154   1.434   2.827  12.264
 3772SOL    HW113155   1.519   2.790  12.243
 3772SOL    HW213156   1.423   2.811  12.358
 3773SOL     OW13157   2.705   9.604  14.689
 3773SOL    HW113158   2.651   9.682  14.702
 3773SOL    HW213159   2.669   9.539  14.750
 3774SOL     OW13160  12.315   8.836  14.321
 3774SOL    HW113161  12.225   8.865  14.330
 3774SOL    HW213162  12.310   8.750  14.278
 3775SOL     OW13163   4.446  12.338   7.740
 3775SOL    HW113164   4.386  12.274   7.780
 3775SOL    HW213165   4.479  12.294   7.661
 3776SOL     OW13166   7.502   3.139   2.875
 3776SOL    HW113167   7.447   3.175   2.805
 3776SOL    HW213168   7.518   3.212   2.933
 3777SOL     OW13169   6.850   0.531  13.852
 3777SOL    HW113170   6.898   0.572  13.924
 3777SOL    HW213171   6.837   0.441  13.879
 3778SOL     OW13172   5.999  14.628   2.508
 3778SOL    HW113173   5.989  14.709   2.457
 3778SOL    HW213174   5.910  14.593   2.515
 3779SOL     OW13175  14.303   1.591   7.233
 3779SOL    HW113176  14.394   1.562   7.226
 3779SOL    HW213177  14.276   1.610   7.143
 3780SOL     OW13178   8.527   8.869   4.281
 3780SOL    HW113179   8.620   8.850   4.264
 3780SOL    HW213180   8.524   8.964   4.287
 3781SOL     OW13181   4.034   8.488   1.812
 3781SOL    HW113182   4.005   8.519   1.898
 3781SOL    HW213183   4.121   8.528   1.801
 3782SOL     OW13184   2.777   9.779   6.577
 3782SOL    HW113185   2.785   9.722   6.501
 3782SOL    HW213186   2.791   9.867   6.543
 3783SOL     OW13187  10.149  12.449   9.429
 3783SOL    HW113188  10.060  12.438   9.463
 3783SOL    HW213189  10.187  12.518   9.483
 3784SOL     OW13190  14.426   0.140  10.356
 3784SOL    HW113191  14.342   0.126  10.312
 3784SOL    HW213192  14.406   0.204  10.424
 3785SOL     OW13193   0.659   5.963  13.816
 3785SOL    HW113194   0.580   5.973  13.763
 3785SOL    HW213195   0.661   6.041  13.872
 3786SOL     OW13196   6.886   0.869  14.568
 3786SOL    HW113197   6.823   0.829  14.508
 3786SOL    HW213198   6.867   0.827  14.653
 3787SOL     OW13199   0.541   8.170   7.079
 3787SOL    HW113200   0.566   8.086   7.118
 3787SOL    HW213201   0.456   8.153   7.038
 3788SOL     OW13202  12.462  12.894   7.346
 3788SOL    HW113203  12.540  12.897   7.402
 3788SOL    HW213204  12.396  12.944   7.393
 3789SOL     OW13205   3.192   9.936   1.791
 3789SOL    HW113206   3.108   9.945   1.835
 3789SOL    HW213207   3.198  10.013   1.735
 3790SOL     OW13208   0.107   3.329   0.313
 3790SOL    HW113209   0.050   3.252   0.320
 3790SOL    HW213210   0.051   3.403   0.335
 3791SOL     OW13211   1.434  13.816   3.831
 3791SOL    HW113212   1.357  13.792   3.780
 3791SOL    HW213213   1.450  13.741   3.888
 3792SOL     OW13214  11.230   2.968  14.086
 3792SOL    HW113215  11.190   2.943  14.003
 3792SOL    HW213216  11.265   3.056  14.070
 3793SOL     OW13217   1.206   9.220  10.004
 3793SOL    HW113218   1.230   9.230   9.911
 3793SOL    HW213219   1.237   9.300  10.046
 3794SOL     OW13220   2.091   7.894  12.965
 3794SOL    HW113221   2.087   7.947  12.885
 3794SOL    HW213222   2.165   7.836  12.953
 3795SOL     OW13223   4.693   4.194   2.414
 3795SOL    HW113224   4.767   4.245   2.382
 3795SOL    HW213225   4.714   4.103   2.391
 3796SOL     OW13226   0.026  14.401   5.332
 3796SOL    HW113227   0.107  14.446   5.308
 3796SOL    HW213228   0.030  14.317   5.287
 3797SOL     OW13229   3.589   3.016  13.358
 3797SOL    HW113230   3.530   3.090  13.376
 3797SOL    HW213231   3.609   2.981  13.445
 3798SOL     OW13232  13.571   6.475   0.456
 3798SOL    HW113233  13.625   6.465   0.378
 3798SOL    HW213234  13.481   6.471   0.424
 3799SOL     OW13235   9.778   4.818  13.420
 3799SOL    HW113236   9.711   4.775  13.473
 3799SOL    HW213237   9.834   4.863  13.485
 3800SOL     OW13238   6.124  12.527   3.771
 3800SOL    HW113239   6.217  12.510   3.788
 3800SOL    HW213240   6.108  12.614   3.810
 3801SOL     OW13241  13.240   9.942   9.428
 3801SOL    HW113242  13.147   9.923   9.439
 3801SOL    HW213243  13.284   9.857   9.442
 3802SOL     OW13244  14.604   0.656   3.059
 3802SOL    HW113245  14.544   0.614   3.119
 3802SOL    HW213246  14.549   0.685   2.986
 3803SOL     OW13247  12.592   7.375   9.688
 3803SOL    HW113248  12.499   7.355   9.700
 3803SOL    HW213249  12.595   7.426   9.607
 3804SOL     OW13250   2.247   5.820   9.342
 3804SOL    HW113251   2.257   5.877   9.266
 3804SOL    HW213252   2.155   5.826   9.365
 3805SOL     OW13253   3.998   6.069  11.372
 3805SOL    HW113254   4.059   6.025  11.431
 3805SOL    HW213255   3.993   6.011  11.296
 3806SOL     OW13256   4.599   7.723   2.785
 3806SOL    HW113257   4.694   7.720   2.784
 3806SOL    HW213258   4.577   7.781   2.858
 3807SOL     OW13259   0.292  11.254   6.488
 3807SOL    HW113260   0.387  11.268   6.482
 3807SOL    HW213261   0.267  11.225   6.400
 3808SOL     OW13262  11.214   8.324   3.620
 3808SOL    HW113263  11.155   8.377   3.568
 3808SOL    HW213264  11.160   8.289   3.690
 3809SOL     OW13265   5.451   6.964  12.199
 3809SOL    HW113266   5.500   6.973  12.280
 3809SOL    HW213267   5.483   7.036  12.144
 3810SOL     OW13268   3.034   6.065  14.278
 3810SOL    HW113269   3.003   6.151  14.306
 3810SOL    HW213270   3.121   6.082  14.241
 3811SOL     OW13271   8.374   5.792   8.324
 3811SOL    HW113272   8.396   5.751   8.408
 3811SOL    HW213273   8.280   5.776   8.314
 3812SOL     OW13274   8.242  11.128   4.477
 3812SOL    HW113275   8.304  11.078   4.531
 3812SOL    HW213276   8.276  11.217   4.478
 3813SOL     OW13277   5.058   7.869   9.957
 3813SOL    HW113278   5.098   7.784   9.940
 3813SOL    HW213279   4.965   7.856   9.939
 3814SOL     OW13280   2.271   6.464   6.732
 3814SOL    HW113281   2.320   6.431   6.808
 3814SOL    HW213282   2.180   6.436   6.749
 3815SOL     OW13283  10.113  11.512  10.023
 3815SOL    HW113284  10.125  11.512   9.928
 3815SOL    HW213285  10.018  11.510  10.035
 3816SOL     OW13286   4.663   0.019   5.933
 3816SOL    HW113287   4.756   0.034   5.921
 3816SOL    HW213288   4.649  14.807   5.906
 3817SOL     OW13289   4.478   4.055   6.676
 3817SOL    HW113290   4.463   4.113   6.601
 3817SOL    HW213291   4.572   4.036   6.673
 3818SOL     OW13292  14.433   4.893   8.270
 3818SOL    HW113293  14.404   4.897   8.179
 3818SOL    HW213294  14.370   4.948   8.317
 3819SOL     OW13295   1.594   1.320   9.604
 3819SOL    HW113296   1.654   1.367   9.662
 3819SOL    HW213297   1.518   1.300   9.659
 3820SOL     OW13298  12.823  14.559  11.664
 3820SOL    HW113299  12.821  14.609  11.746
 3820SOL    HW213300  12.766  14.484  11.681
 3821SOL     OW13301  12.030  14.383   3.831
 3821SOL    HW113302  11.953  14.343   3.873
 3821SOL    HW213303  12.061  14.448   3.894
 3822SOL     OW13304  13.911   8.308   1.007
 3822SOL    HW113305  13.843   8.293   0.942
 3822SOL    HW213306  13.978   8.360   0.961
 3823SOL     OW13307   7.845   6.457  10.554
 3823SOL    HW113308   7.915   6.522  10.546
 3823SOL    HW213309   7.884   6.385  10.604
 3824SOL     OW13310   2.173  13.213   0.307
 3824SOL    HW113311   2.258  13.234   0.343
 3824SOL    HW213312   2.113  13.277   0.346
 3825SOL     OW13313   7.763   2.115   7.979
 3825SOL    HW113314   7.704   2.124   7.904
 3825SOL    HW213315   7.779   2.020   7.985
 3826SOL     OW13316   8.162   0.516   4.373
 3826SOL    HW113317   8.186   0.527   4.465
 3826SOL    HW213318   8.079   0.469   4.375
 3827SOL     OW13319   5.832   8.212  14.481
 3827SOL    HW113320   5.803   8.276  14.546
 3827SOL    HW213321   5.893   8.260  14.425
 3828SOL     OW13322   4.212   5.728   9.913
 3828SOL    HW113323   4.171   5.665   9.855
 3828SOL    HW213324   4.260   5.675   9.976
 3829SOL     OW13325   4.781  12.084  14.437
 3829SOL    HW113326   4.857  12.143  14.433
 3829SOL    HW213327   4.818  11.996  14.428
 3830SOL     OW13328   8.344   0.735  13.866
 3830SOL    HW113329   8.318   0.651  13.828
 3830SOL    HW213330   8.290   0.800  13.822
 3831SOL     OW13331   3.110   8.367   8.977
 3831SOL    HW113332   3.178   8.311   9.014
 3831SOL    HW213333   3.158   8.443   8.943
 3832SOL     OW13334  12.444   9.206   2.997
 3832SOL    HW113335  12.361   9.179   2.959
 3832SOL    HW213336  12.421   9.249   3.079
 3833SOL     OW13337   6.810   1.154   8.746
 3833SOL    HW113338   6.885   1.123   8.695
 3833SOL    HW213339   6.842   1.231   8.792
 3834SOL     OW13340   6.864   0.208   1.057
 3834SOL    HW113341   6.889   0.300   1.059
 3834SOL    HW213342   6.800   0.199   1.127
 3835SOL     OW13343  13.466   1.505  10.547
 3835SOL    HW113344  13.560   1.513  10.531
 3835SOL    HW213345  13.452   1.552  10.629
 3836SOL     OW13346  12.133   5.844   9.003
 3836SOL    HW113347  12.221   5.877   9.016
 3836SOL    HW213348  12.126   5.830   8.908
 3837SOL     OW13349   4.661  11.172   5.048
 3837SOL    HW113350   4.687  11.259   5.079
 3837SOL    HW213351   4.643  11.184   4.955
 3838SOL     OW13352  14.411  13.840   4.159
 3838SOL    HW113353  14.498  13.815   4.191
 3838SOL    HW213354  14.378  13.902   4.224
 3839SOL     OW13355   6.652  12.451  14.680
 3839SOL    HW113356   6.595  12.460  14.756
 3839SOL    HW213357   6.733  12.414  14.715
 3840SOL     OW13358   0.450   7.575  13.578
 3840SOL    HW113359   0.452   7.621  13.494
 3840SOL    HW213360   0.505   7.628  13.636
 3841SOL     OW13361  14.132  10.460  13.664
 3841SOL    HW113362  14.111  10.510  13.743
 3841SOL    HW213363  14.055  10.468  13.608
 3842SOL     OW13364   4.526   1.916  13.435
 3842SOL    HW113365   4.510   2.010  13.424
 3842SOL    HW213366   4.540   1.884  13.346
 3843SOL     OW13367   4.460  13.612   2.005
 3843SOL    HW113368   4.402  13.686   1.986
 3843SOL    HW213369   4.536  13.626   1.949
 3844SOL     OW13370  12.654   6.683   6.004
 3844SOL    HW113371  12.636   6.592   5.979
 3844SOL    HW213372  12.594   6.735   5.951
 3845SOL     OW13373   0.898  10.137   0.674
 3845SOL    HW113374   0.895  10.042   0.659
 3845SOL    HW213375   0.809  10.160   0.700
 3846SOL     OW13376   3.831  12.029  12.904
 3846SOL    HW113377   3.747  12.018  12.948
 3846SOL    HW213378   3.830  12.119  12.873
 3847SOL     OW13379   0.761   4.502   2.648
 3847SOL    HW113380   0.720   4.468   2.569
 3847SOL    HW213381   0.690   4.548   2.694
 3848SOL     OW13382  12.428   2.848   5.812
 3848SOL    HW113383  12.414   2.937   5.780
 3848SOL    HW213384  12.469   2.859   5.898
 3849SOL     OW13385  14.223   0.040   2.552
 3849SOL    HW113386  14.242   0.130   2.580
 3849SOL    HW213387  14.298  14.869   2.582
 3850SOL     OW13388   0.338  11.720   2.837
 3850SOL    HW113389   0.388  11.756   2.764
 3850SOL    HW213390   0.377  11.760   2.915
 3851SOL     OW13391  12.497   6.128   8.860
 3851SOL    HW113392  12.534   6.102   8.945
 3851SOL    HW213393  12.421   6.182   8.883
 3852SOL     OW13394   0.205  13.752   0.365
 3852SOL    HW113395   0.211  13.838   0.322
 3852SOL    HW213396   0.152  13.769   0.443
 3853SOL     OW13397   5.649   5.224   5.196
 3853SOL    HW113398   5.662   5.235   5.290
 3853SOL    HW213399   5.558   5.195   5.188
 3854SOL     OW13400   3.958  10.532   4.598
 3854SOL    HW113401   3.912  10.598   4.650
 3854SOL    HW213402   4.042  10.572   4.576
 3855SOL     OW13403   2.737  14.656   4.025
 3855SOL    HW113404   2.823  14.697   4.030
 3855SOL    HW213405   2.734  14.616   3.938
 3856SOL     OW13406   8.605   8.280   9.191
 3856SOL    HW113407   8.512   8.269   9.169
 3856SOL    HW213408   8.643   8.194   9.173
 3857SOL     OW13409   0.127  11.841   7.956
 3857SOL    HW113410   0.066  11.914   7.941
 3857SOL    HW213411   0.213  11.884   7.967
 3858SOL     OW13412  10.223   8.557   3.365
 3858SOL    HW113413  10.184   8.475   3.335
 3858SOL    HW213414  10.220   8.551   3.461
 3859SOL     OW13415   9.321  11.868   3.863
 3859SOL    HW113416   9.401  11.902   3.904
 3859SOL    HW213417   9.288  11.803   3.925
 3860SOL     OW13418   6.086  10.925  10.577
 3860SOL    HW113419   6.081  10.881  10.492
 3860SOL    HW213420   6.028  10.874  10.634
 3861SOL     OW13421   5.216  11.350   8.889
 3861SOL    HW113422   5.254  11.273   8.846
 3861SOL    HW213423   5.167  11.395   8.819
 3862SOL     OW13424   6.090   2.098   3.299
 3862SOL    HW113425   6.151   2.134   3.235
 3862SOL    HW213426   6.108   2.004   3.300
 3863SOL     OW13427   6.790  12.699   4.956
 3863SOL    HW113428   6.821  12.754   5.028
 3863SOL    HW213429   6.869  12.682   4.903
 3864SOL     OW13430  14.651   2.614  13.186
 3864SOL    HW113431  14.645   2.536  13.131
 3864SOL    HW213432  14.742   2.642  13.178
 3865SOL     OW13433  12.082   7.518  13.280
 3865SOL    HW113434  11.991   7.506  13.308
 3865SOL    HW213435  12.085   7.608  13.248
 3866SOL     OW13436   6.167   8.002  12.864
 3866SOL    HW113437   6.103   7.932  12.875
 3866SOL    HW213438   6.119   8.071  12.818
 3867SOL     OW13439   9.661   7.006   8.667
 3867SOL    HW113440   9.580   6.975   8.707
 3867SOL    HW213441   9.729   6.987   8.733
 3868SOL     OW13442  10.135   9.081  14.817
 3868SOL    HW113443  10.192   9.123  14.752
 3868SOL    HW213444  10.058   9.138  14.820
 3869SOL     OW13445   7.054   5.829   7.888
 3869SOL    HW113446   7.003   5.807   7.966
 3869SOL    HW213447   7.130   5.771   7.891
 3870SOL     OW13448  10.584   6.594   6.430
 3870SOL    HW113449  10.525   6.561   6.497
 3870SOL    HW213450  10.638   6.659   6.475
 3871SOL     OW13451   8.206   0.751   8.360
 3871SOL    HW113452   8.239   0.665   8.333
 3871SOL    HW213453   8.245   0.764   8.446
 3872SOL     OW13454   7.729  14.561  10.739
 3872SOL    HW113455   7.803  14.569  10.679
 3872SOL    HW213456   7.765  14.581  10.825
 3873SOL     OW13457   0.049  13.765   0.009
 3873SOL    HW113458   0.070  13.686   0.060
 3873SOL    HW213459   0.031  13.832   0.075
 3874SOL     OW13460   9.337  14.278   9.321
 3874SOL    HW113461   9.406  14.318   9.374
 3874SOL    HW213462   9.280  14.352   9.297
 3875SOL     OW13463   3.790   0.555   6.401
 3875SOL    HW113464   3.722   0.489   6.415
 3875SOL    HW213465   3.755   0.634   6.442
 3876SOL     OW13466  13.443  11.200   6.715
 3876SOL    HW113467  13.396  11.203   6.798
 3876SOL    HW213468  13.460  11.107   6.700
 3877SOL     OW13469   0.254   8.883   6.808
 3877SOL    HW113470   0.170   8.850   6.841
 3877SOL    HW213471   0.313   8.808   6.811
 3878SOL     OW13472   1.445  13.748   6.942
 3878SOL    HW113473   1.386  13.771   7.014
 3878SOL    HW213474   1.402  13.675   6.898
 3879SOL     OW13475   1.555   3.224   9.924
 3879SOL    HW113476   1.579   3.132   9.908
 3879SOL    HW213477   1.631   3.261   9.968
 3880SOL     OW13478   7.268   7.042   3.906
 3880SOL    HW113479   7.232   7.088   3.983
 3880SOL    HW213480   7.199   6.980   3.881
 3881SOL     OW13481   1.839   1.864  13.917
 3881SOL    HW113482   1.919   1.822  13.886
 3881SOL    HW213483   1.862   1.957  13.923
 3882SOL     OW13484  14.346  11.747  13.563
 3882SOL    HW113485  14.329  11.737  13.656
 3882SOL    HW213486  14.340  11.842  13.548
 3883SOL     OW13487   0.331   4.754   0.330
 3883SOL    HW113488   0.350   4.672   0.284
 3883SOL    HW213489   0.240   4.745   0.357
 3884SOL     OW13490   3.040   8.274  12.521
 3884SOL    HW113491   3.006   8.287  12.433
 3884SOL    HW213492   3.019   8.183  12.542
 3885SOL     OW13493   3.206   8.262   5.333
 3885SOL    HW113494   3.227   8.217   5.415
 3885SOL    HW213495   3.277   8.239   5.274
 3886SOL     OW13496   8.980  12.795  14.072
 3886SOL    HW113497   8.951  12.866  14.015
 3886SOL    HW213498   9.027  12.736  14.015
 3887SOL     OW13499  12.295  13.108   6.608
 3887SOL    HW113500  12.332  13.144   6.527
 3887SOL    HW213501  12.369  13.070   6.655
 3888SOL     OW13502   0.270   9.315   0.579
 3888SOL    HW113503   0.310   9.336   0.663
 3888SOL    HW213504   0.335   9.261   0.534
 3889SOL     OW13505   0.761  14.739   4.455
 3889SOL    HW113506   0.766  14.815   4.513
 3889SOL    HW213507   0.820  14.760   4.383
 3890SOL     OW13508  10.606   9.091   6.797
 3890SOL    HW113509  10.682   9.101   6.740
 3890SOL    HW213510  10.623   9.011   6.846
 3891SOL     OW13511   8.522   8.949   2.975
 3891SOL    HW113512   8.569   9.033   2.978
 3891SOL    HW213513   8.586   8.888   2.938
 3892SOL     OW13514  12.110   0.053   8.396
 3892SOL    HW113515  12.048   0.124   8.381
 3892SOL    HW213516  12.177   0.064   8.329
 3893SOL     OW13517  10.306   1.709   9.310
 3893SOL    HW113518  10.378   1.675   9.364
 3893SOL    HW213519  10.340   1.706   9.221
 3894SOL     OW13520  13.270   9.594  11.286
 3894SOL    HW113521  13.342   9.548  11.243
 3894SOL    HW213522  13.248   9.539  11.361
 3895SOL     OW13523  10.500   0.342   0.862
 3895SOL    HW113524  10.592   0.331   0.835
 3895SOL    HW213525  10.495   0.296   0.945
 3896SOL     OW13526   4.556   5.132   6.554
 3896SOL    HW113527   4.534   5.167   6.468
 3896SOL    HW213528   4.637   5.176   6.579
 3897SOL     OW13529   2.623   1.295   7.233
 3897SOL    HW113530   2.607   1.209   7.272
 3897SOL    HW213531   2.645   1.275   7.142
 3898SOL     OW13532   0.126   4.794  11.006
 3898SOL    HW113533   0.173   4.711  10.999
 3898SOL    HW213534   0.079   4.802  10.923
 3899SOL     OW13535   4.171  13.213   3.267
 3899SOL    HW113536   4.265  13.207   3.254
 3899SOL    HW213537   4.135  13.225   3.179
 3900SOL     OW13538   3.027   1.494   6.831
 3900SOL    HW113539   2.991   1.582   6.824
 3900SOL    HW213540   3.112   1.506   6.874
 3901SOL     OW13541  10.387   6.562   0.299
 3901SOL    HW113542  10.380   6.583   0.206
 3901SOL    HW213543  10.374   6.646   0.344
 3902SOL     OW13544   7.557   2.753   1.107
 3902SOL    HW113545   7.471   2.739   1.066
 3902SOL    HW213546   7.583   2.667   1.139
 3903SOL     OW13547  13.081  12.669  10.068
 3903SOL    HW113548  13.025  12.747  10.073
 3903SOL    HW213549  13.022  12.596  10.087
 3904SOL     OW13550   9.779   2.183  14.830
 3904SOL    HW113551   9.823   2.202  14.747
 3904SOL    HW213552   9.790   2.089  14.842
 3905SOL     OW13553  13.677   4.075   0.292
 3905SOL    HW113554  13.708   4.166   0.291
 3905SOL    HW213555  13.581   4.083   0.298
 3906SOL     OW13556  10.391   2.564   3.253
 3906SOL    HW113557  10.312   2.511   3.242
 3906SOL    HW213558  10.426   2.574   3.165
 3907SOL     OW13559   0.712   8.788  13.342
 3907SOL    HW113560   0.644   8.746  13.393
 3907SOL    HW213561   0.794   8.758  13.381
 3908SOL     OW13562   7.484   0.565  12.218
 3908SOL    HW113563   7.408   0.564  12.275
 3908SOL    HW213564   7.557   0.591  12.275
 3909SOL     OW13565   1.524   0.486   9.515
 3909SOL    HW113566   1.479   0.403   9.502
 3909SOL    HW213567   1.457   0.545   9.550
 3910SOL     OW13568  12.366  14.593  12.151
 3910SOL    HW113569  12.335  14.502  12.159
 3910SOL    HW213570  12.292  14.640  12.113
 3911SOL     OW13571  11.847   4.557   3.283
 3911SOL    HW113572  11.905   4.481   3.283
 3911SOL    HW213573  11.880   4.612   3.354
 3912SOL     OW13574  11.387   7.787   3.267
 3912SOL    HW113575  11.366   7.696   3.247
 3912SOL    HW213576  11.303   7.828   3.285
 3913SOL     OW13577   2.297   0.347  13.936
 3913SOL    HW113578   2.294   0.412  13.866
 3913SOL    HW213579   2.218   0.294  13.924
 3914SOL     OW13580   0.762   7.204   0.699
 3914SOL    HW113581   0.736   7.249   0.780
 3914SOL    HW213582   0.847   7.242   0.677
 3915SOL     OW13583   3.596   1.230  11.239
 3915SOL    HW113584   3.657   1.259  11.307
 3915SOL    HW213585   3.531   1.178  11.286
 3916SOL     OW13586  12.053  11.749   9.842
 3916SOL    HW113587  12.145  11.723   9.844
 3916SOL    HW213588  12.040  11.782   9.753
 3917SOL     OW13589   9.450  12.833  13.559
 3917SOL    HW113590   9.399  12.855  13.637
 3917SOL    HW213591   9.391  12.777  13.508
 3918SOL     OW13592   5.818   5.535   9.273
 3918SOL    HW113593   5.819   5.477   9.197
 3918SOL    HW213594   5.829   5.623   9.237
 3919SOL     OW13595   2.092   5.327   4.054
 3919SOL    HW113596   2.176   5.289   4.029
 3919SOL    HW213597   2.061   5.270   4.125
 3920SOL     OW13598   4.645  11.099  14.133
 3920SOL    HW113599   4.603  11.181  14.109
 3920SOL    HW213600   4.655  11.103  14.228
 3921SOL     OW13601   7.572   5.373   6.204
 3921SOL    HW113602   7.637   5.410   6.265
 3921SOL    HW213603   7.603   5.399   6.118
 3922SOL     OW13604  13.081   6.326  10.192
 3922SOL    HW113605  13.035   6.288  10.117
 3922SOL    HW213606  13.129   6.253  10.231
 3923SOL     OW13607   8.562  11.999  14.654
 3923SOL    HW113608   8.616  11.951  14.591
 3923SOL    HW213609   8.501  12.049  14.600
 3924SOL     OW13610   4.574  14.386   9.996
 3924SOL    HW113611   4.660  14.428   9.990
 3924SOL    HW213612   4.594  14.295  10.017
 3925SOL     OW13613   0.314  10.792   9.875
 3925SOL    HW113614   0.374  10.744   9.932
 3925SOL    HW213615   0.319  10.746   9.791
 3926SOL     OW13616   7.531   3.396   9.120
 3926SOL    HW113617   7.621   3.366   9.135
 3926SOL    HW213618   7.538   3.456   9.045
 3927SOL     OW13619  13.889   4.103  11.194
 3927SOL    HW113620  13.978   4.137  11.202
 3927SOL    HW213621  13.833   4.176  11.220
 3928SOL     OW13622   2.355   4.225  11.907
 3928SOL    HW113623   2.382   4.179  11.827
 3928SOL    HW213624   2.266   4.253  11.890
 3929SOL     OW13625   9.348   7.414   7.635
 3929SOL    HW113626   9.330   7.321   7.618
 3929SOL    HW213627   9.424   7.413   7.692
 3930SOL     OW13628   2.105   1.978  11.085
 3930SOL    HW113629   2.178   1.918  11.071
 3930SOL    HW213630   2.036   1.924  11.122
 3931SOL     OW13631   6.672   4.446   8.942
 3931SOL    HW113632   6.617   4.446   8.864
 3931SOL    HW213633   6.658   4.360   8.982
 3932SOL     OW13634   5.392   8.199  11.852
 3932SOL    HW113635   5.403   8.245  11.769
 3932SOL    HW213636   5.300   8.172  11.853
 3933SOL     OW13637   6.981  13.020  10.774
 3933SOL    HW113638   6.919  12.979  10.714
 3933SOL    HW213639   7.056  13.043  10.720
 3934SOL     OW13640   4.193   0.544   5.524
 3934SOL    HW113641   4.164   0.596   5.448
 3934SOL    HW213642   4.198   0.454   5.491
 3935SOL     OW13643  14.832  13.066  13.535
 3935SOL    HW113644  14.843  12.974  13.515
 3935SOL    HW213645  14.780  13.068  13.615
 3936SOL     OW13646   3.523   2.578   7.036
 3936SOL    HW113647   3.453   2.550   7.095
 3936SOL    HW213648   3.486   2.651   6.987
 3937SOL     OW13649   2.718  13.319  11.484
 3937SOL    HW113650   2.732  13.240  11.535
 3937SOL    HW213651   2.699  13.287  11.395
 3938SOL     OW13652   7.403   3.608  12.038
 3938SOL    HW113653   7.390   3.651  12.123
 3938SOL    HW213654   7.497   3.617  12.022
 3939SOL     OW13655   1.146   7.629   2.025
 3939SOL    HW113656   1.211   7.583   2.079
 3939SOL    HW213657   1.162   7.722   2.044
 3940SOL     OW13658   7.892   2.089   2.683
 3940SOL    HW113659   7.872   2.018   2.745
 3940SOL    HW213660   7.902   2.166   2.738
 3941SOL     OW13661  12.946  14.153  13.846
 3941SOL    HW113662  12.938  14.151  13.750
 3941SOL    HW213663  12.951  14.247  13.867
 3942SOL     OW13664  10.733  13.914   9.008
 3942SOL    HW113665  10.713  13.880   9.095
 3942SOL    HW213666  10.812  13.866   8.981
 3943SOL     OW13667   5.193   0.267  12.974
 3943SOL    HW113668   5.217   0.267  13.066
 3943SOL    HW213669   5.265   0.312  12.930
 3944SOL     OW13670   7.686  11.401   1.321
 3944SOL    HW113671   7.701  11.446   1.404
 3944SOL    HW213672   7.679  11.472   1.256
 3945SOL     OW13673   7.358  11.824  14.804
 3945SOL    HW113674   7.306  11.876  14.743
 3945SOL    HW213675   7.310  11.742  14.812
 3946SOL     OW13676   9.544   0.453   5.604
 3946SOL    HW113677   9.481   0.448   5.532
 3946SOL    HW213678   9.524   0.377   5.659
 3947SOL     OW13679  10.521  10.766   7.338
 3947SOL    HW113680  10.587  10.810   7.284
 3947SOL    HW213681  10.499  10.830   7.405
 3948SOL     OW13682   7.252   3.585  13.059
 3948SOL    HW113683   7.268   3.675  13.088
 3948SOL    HW213684   7.167   3.588  13.016
 3949SOL     OW13685   3.113   7.973   2.432
 3949SOL    HW113686   3.050   7.951   2.364
 3949SOL    HW213687   3.103   8.067   2.445
 3950SOL     OW13688  13.498   0.749   1.356
 3950SOL    HW113689  13.425   0.691   1.377
 3950SOL    HW213690  13.570   0.691   1.332
 3951SOL     OW13691   7.095   2.309  10.818
 3951SOL    HW113692   7.036   2.276  10.749
 3951SOL    HW213693   7.183   2.290  10.785
 3952SOL     OW13694   5.869   9.798   6.601
 3952SOL    HW113695   5.813   9.778   6.526
 3952SOL    HW213696   5.892   9.712   6.637
 3953SOL     OW13697  14.611   1.801   0.344
 3953SOL    HW113698  14.622   1.849   0.426
 3953SOL    HW213699  14.634   1.864   0.276
 3954SOL     OW13700   2.675   0.007   2.066
 3954SOL    HW113701   2.711   0.055   2.141
 3954SOL    HW213702   2.737  14.816   2.051
 3955SOL     OW13703   4.177   8.560   6.502
 3955SOL    HW113704   4.098   8.507   6.494
 3955SOL    HW213705   4.238   8.506   6.552
 3956SOL     OW13706  14.257  12.424   2.035
 3956SOL    HW113707  14.209  12.341   2.030
 3956SOL    HW213708  14.337  12.408   1.986
 3957SOL     OW13709  11.707   4.623   8.641
 3957SOL    HW113710  11.727   4.637   8.733
 3957SOL    HW213711  11.776   4.670   8.594
 3958SOL     OW13712  13.531   2.925   7.020
 3958SOL    HW113713  13.577   2.855   6.973
 3958SOL    HW213714  13.438   2.903   7.011
 3959SOL     OW13715   3.585   6.409   6.734
 3959SOL    HW113716   3.667   6.381   6.775
 3959SOL    HW213717   3.559   6.336   6.679
 3960SOL     OW13718   1.215   1.912   2.131
 3960SOL    HW113719   1.152   1.977   2.162
 3960SOL    HW213720   1.298   1.959   2.127
 3961SOL     OW13721   9.110  10.732  14.057
 3961SOL    HW113722   9.140  10.790  14.127
 3961SOL    HW213723   9.094  10.648  14.101
 3962SOL     OW13724   4.643   1.077   9.629
 3962SOL    HW113725   4.574   1.018   9.600
 3962SOL    HW213726   4.676   1.038   9.710
 3963SOL     OW13727  14.623   6.200   0.199
 3963SOL    HW113728  14.661   6.131   0.145
 3963SOL    HW213729  14.539   6.220   0.158
 3964SOL     OW13730   1.162   1.278  14.737
 3964SOL    HW113731   1.143   1.219  14.663
 3964SOL    HW213732   1.127   1.362  14.709
 3965SOL     OW13733   2.719  10.360  12.326
 3965SOL    HW113734   2.808  10.349  12.293
 3965SOL    HW213735   2.723  10.437  12.382
 3966SOL     OW13736  12.414   5.623   1.813
 3966SOL    HW113737  12.439   5.706   1.770
 3966SOL    HW213738  12.367   5.651   1.892
 3967SOL     OW13739   4.976   1.213   3.835
 3967SOL    HW113740   4.904   1.275   3.847
 3967SOL    HW213741   4.993   1.216   3.741
 3968SOL     OW13742   4.973   0.353   6.283
 3968SOL    HW113743   4.922   0.388   6.356
 3968SOL    HW213744   5.052   0.317   6.325
 3969SOL     OW13745  13.539   8.125   5.163
 3969SOL    HW113746  13.540   8.199   5.224
 3969SOL    HW213747  13.599   8.152   5.093
 3970SOL     OW13748   5.729   1.157   4.162
 3970SOL    HW113749   5.656   1.117   4.116
 3970SOL    HW213750   5.804   1.147   4.103
 3971SOL     OW13751   4.393   1.336  12.762
 3971SOL    HW113752   4.396   1.267  12.828
 3971SOL    HW213753   4.302   1.364  12.761
 3972SOL     OW13754   2.507   5.635  10.855
 3972SOL    HW113755   2.421   5.675  10.840
 3972SOL    HW213756   2.555   5.700  10.906
 3973SOL     OW13757   7.723   8.904   5.431
 3973SOL    HW113758   7.672   8.983   5.450
 3973SOL    HW213759   7.662   8.844   5.389
 3974SOL     OW13760  12.981   6.750   3.127
 3974SOL    HW113761  12.936   6.748   3.043
 3974SOL    HW213762  13.072   6.728   3.107
 3975SOL     OW13763   8.604   6.974  11.887
 3975SOL    HW113764   8.542   6.990  11.817
 3975SOL    HW213765   8.597   6.880  11.904
 3976SOL     OW13766   7.242   7.181   5.812
 3976SOL    HW113767   7.183   7.106   5.819
 3976SOL    HW213768   7.329   7.145   5.829
 3977SOL     OW13769   3.264  13.868   4.352
 3977SOL    HW113770   3.261  13.787   4.301
 3977SOL    HW213771   3.257  13.937   4.286
 3978SOL     OW13772   0.001   8.496   4.608
 3978SOL    HW113773  14.806   8.489   4.668
 3978SOL    HW213774  14.851   8.556   4.540
 3979SOL     OW13775  11.454  13.261   1.114
 3979SOL    HW113776  11.459  13.346   1.158
 3979SOL    HW213777  11.493  13.199   1.176
 3980SOL     OW13778   0.695   1.821   7.093
 3980SOL    HW113779   0.615   1.855   7.053
 3980SOL    HW213780   0.683   1.726   7.091
 3981SOL     OW13781   2.503   9.000   9.413
 3981SOL    HW113782   2.507   9.060   9.488
 3981SOL    HW213783   2.441   9.041   9.353
 3982SOL     OW13784   6.768   2.891  12.361
 3982SOL    HW113785   6.783   2.903  12.454
 3982SOL    HW213786   6.756   2.980  12.326
 3983SOL     OW13787   2.905  13.230   8.929
 3983SOL    HW113788   2.927  13.141   8.901
 3983SOL    HW213789   2.989  13.275   8.931
 3984SOL     OW13790  14.460   3.450   8.451
 3984SOL    HW113791  14.413   3.504   8.514
 3984SOL    HW213792  14.426   3.361   8.465
 3985SOL     OW13793   2.662   3.197  14.177
 3985SOL    HW113794   2.688   3.289  14.177
 3985SOL    HW213795   2.577   3.196  14.132
 3986SOL     OW13796   2.744   4.975   7.120
 3986SOL    HW113797   2.732   4.947   7.211
 3986SOL    HW213798   2.811   5.043   7.124
 3987SOL     OW13799   5.303   7.106   2.221
 3987SOL    HW113800   5.234   7.170   2.241
 3987SOL    HW213801   5.280   7.029   2.273
 3988SOL     OW13802  14.189   2.962  10.028
 3988SOL    HW113803  14.236   2.879  10.026
 3988SOL    HW213804  14.257   3.029  10.019
 3989SOL     OW13805   7.303  13.820   0.203
 3989SOL    HW113806   7.259  13.852   0.124
 3989SOL    HW213807   7.310  13.726   0.190
 3990SOL     OW13808   6.729  14.818  12.180
 3990SOL    HW113809   6.684  14.744  12.139
 3990SOL    HW213810   6.815  14.784  12.205
 3991SOL     OW13811   3.885  13.965   8.664
 3991SOL    HW113812   3.867  14.012   8.583
 3991SOL    HW213813   3.871  14.029   8.734
 3992SOL     OW13814   3.574  12.437   8.389
 3992SOL    HW113815   3.619  12.407   8.468
 3992SOL    HW213816   3.502  12.490   8.421
 3993SOL     OW13817  10.125  13.658   2.331
 3993SOL    HW113818  10.126  13.743   2.374
 3993SOL    HW213819  10.217  13.637   2.315
 3994SOL     OW13820  12.209   9.518   0.020
 3994SOL    HW113821  12.215   9.445  14.838
 3994SOL    HW213822  12.120   9.552   0.009
 3995SOL     OW13823   0.940   4.922   6.997
 3995SOL    HW113824   1.018   4.971   7.022
 3995SOL    HW213825   0.904   4.890   7.080
 3996SOL     OW13826   9.526   3.991   5.808
 3996SOL    HW113827   9.501   4.048   5.734
 3996SOL    HW213828   9.493   3.905   5.783
 3997SOL     OW13829   7.066  10.375   5.242
 3997SOL    HW113830   7.135  10.440   5.226
 3997SOL    HW213831   7.036  10.393   5.331
 3998SOL     OW13832   2.517   8.004   9.797
 3998SOL    HW113833   2.447   8.063   9.768
 3998SOL    HW213834   2.579   8.003   9.724
 3999SOL     OW13835  10.914  13.807   2.547
 3999SOL    HW113836  10.851  13.871   2.513
 3999SOL    HW213837  10.922  13.828   2.640
 4000SOL     OW13838  12.708  11.898  13.060
 4000SOL    HW113839  12.650  11.888  13.135
 4000SOL    HW213840  12.746  11.985  13.070
 4001SOL     OW13841   8.724   3.613   9.333
 4001SOL    HW113842   8.647   3.566   9.362
 4001SOL    HW213843   8.690   3.695   9.297
 4002SOL     OW13844   7.184   8.526   7.252
 4002SOL    HW113845   7.227   8.441   7.265
 4002SOL    HW213846   7.231   8.586   7.310
 4003SOL     OW13847   8.918   7.776   1.363
 4003SOL    HW113848   8.994   7.820   1.400
 4003SOL    HW213849   8.857   7.846   1.343
 4004SOL     OW13850   8.422   0.550   1.750
 4004SOL    HW113851   8.457   0.609   1.818
 4004SOL    HW213852   8.500   0.509   1.712
 4005SOL     OW13853  12.389  11.038   8.045
 4005SOL    HW113854  12.346  11.017   8.128
 4005SOL    HW213855  12.317  11.040   7.981
 4006SOL     OW13856   3.996   2.877   1.757
 4006SOL    HW113857   4.054   2.893   1.682
 4006SOL    HW213858   3.992   2.781   1.764
 4007SOL     OW13859  13.991  10.097   7.801
 4007SOL    HW113860  13.913  10.095   7.858
 4007SOL    HW213861  13.979  10.176   7.749
 4008SOL     OW13862   4.968  13.341  11.338
 4008SOL    HW113863   5.050  13.306  11.372
 4008SOL    HW213864   4.991  13.428  11.305
 4009SOL     OW13865   7.370   3.093  12.247
 4009SOL    HW113866   7.330   3.030  12.306
 4009SOL    HW213867   7.298   3.124  12.192
 4010SOL     OW13868   1.791   6.735   3.081
 4010SOL    HW113869   1.696   6.726   3.079
 4010SOL    HW213870   1.815   6.756   2.991
 4011SOL     OW13871   0.326   0.635  14.656
 4011SOL    HW113872   0.420   0.627  14.642
 4011SOL    HW213873   0.298   0.548  14.684
 4012SOL     OW13874   5.415   7.667  10.955
 4012SOL    HW113875   5.364   7.624  10.887
 4012SOL    HW213876   5.376   7.754  10.965
 4013SOL     OW13877   6.698  13.904   9.998
 4013SOL    HW113878   6.611  13.905   9.959
 4013SOL    HW213879   6.715  13.994  10.024
 4014SOL     OW13880   3.460  13.133   2.139
 4014SOL    HW113881   3.431  13.195   2.205
 4014SOL    HW213882   3.555  13.132   2.147
 4015SOL     OW13883   6.437   2.189   1.295
 4015SOL    HW113884   6.344   2.176   1.313
 4015SOL    HW213885   6.457   2.274   1.335
 4016SOL     OW13886   7.232   5.903  11.334
 4016SOL    HW113887   7.321   5.928  11.310
 4016SOL    HW213888   7.185   5.898  11.251
 4017SOL     OW13889  12.981   3.712   2.580
 4017SOL    HW113890  12.976   3.621   2.550
 4017SOL    HW213891  12.890   3.742   2.582
 4018SOL     OW13892   9.756   4.451  14.519
 4018SOL    HW113893   9.669   4.411  14.526
 4018SOL    HW213894   9.816   4.377  14.516
 4019SOL     OW13895   0.318   4.246   7.376
 4019SOL    HW113896   0.281   4.308   7.313
 4019SOL    HW213897   0.354   4.176   7.323
 4020SOL     OW13898   6.887   4.690   0.267
 4020SOL    HW113899   6.794   4.675   0.285
 4020SOL    HW213900   6.931   4.612   0.302
 4021SOL     OW13901   6.533   2.616   0.694
 4021SOL    HW113902   6.560   2.616   0.786
 4021SOL    HW213903   6.439   2.631   0.697
 4022SOL     OW13904  12.029   4.025   2.834
 4022SOL    HW113905  12.109   4.012   2.884
 4022SOL    HW213906  11.985   4.098   2.877
 4023SOL     OW13907   0.973   3.008   5.306
 4023SOL    HW113908   0.882   2.981   5.318
 4023SOL    HW213909   0.989   2.997   5.212
 4024SOL     OW13910  14.666  13.014  14.302
 4024SOL    HW113911  14.739  13.004  14.363
 4024SOL    HW213912  14.705  13.009  14.215
 4025SOL     OW13913  10.847  10.829   0.826
 4025SOL    HW113914  10.756  10.849   0.847
 4025SOL    HW213915  10.894  10.843   0.909
 4026SOL     OW13916   5.591  14.376   9.138
 4026SOL    HW113917   5.601  14.361   9.044
 4026SOL    HW213918   5.605  14.290   9.178
 4027SOL     OW13919   4.616   7.579   9.597
 4027SOL    HW113920   4.614   7.577   9.502
 4027SOL    HW213921   4.587   7.492   9.624
 4028SOL     OW13922  14.477   1.925   3.544
 4028SOL    HW113923  14.571   1.940   3.555
 4028SOL    HW213924  14.470   1.877   3.462
 4029SOL     OW13925   6.194  11.947   7.950
 4029SOL    HW113926   6.171  12.035   7.980
 4029SOL    HW213927   6.112  11.912   7.915
 4030SOL     OW13928   0.920   8.091   5.953
 4030SOL    HW113929   0.959   8.152   6.015
 4030SOL    HW213930   0.889   8.018   6.007
 4031SOL     OW13931   2.401   3.703   3.466
 4031SOL    HW113932   2.459   3.658   3.528
 4031SOL    HW213933   2.317   3.659   3.476
 4032SOL     OW13934   5.207   8.158   7.219
 4032SOL    HW113935   5.123   8.195   7.247
 4032SOL    HW213936   5.185   8.071   7.186
 4033SOL     OW13937   3.130  14.835   7.698
 4033SOL    HW113938   3.089   0.015   7.760
 4033SOL    HW213939   3.166  14.765   7.754
 4034SOL     OW13940  13.684   6.249   1.578
 4034SOL    HW113941  13.591   6.270   1.570
 4034SOL    HW213942  13.716   6.311   1.644
 4035SOL     OW13943   9.309   1.609  13.772
 4035SOL    HW113944   9.288   1.647  13.686
 4035SOL    HW213945   9.308   1.683  13.832
 4036SOL     OW13946   7.823  13.133   7.022
 4036SOL    HW113947   7.916  13.131   7.002
 4036SOL    HW213948   7.802  13.226   7.031
 4037SOL     OW13949   5.458   0.207   2.910
 4037SOL    HW113950   5.551   0.220   2.896
 4037SOL    HW213951   5.451   0.185   3.003
 4038SOL     OW13952   0.965  14.871   1.790
 4038SOL    HW113953   0.883   0.010   1.745
 4038SOL    HW213954   0.968   0.055   1.861
 4039SOL     OW13955   0.438   2.318   1.350
 4039SOL    HW113956   0.422   2.283   1.438
 4039SOL    HW213957   0.530   2.298   1.333
 4040SOL     OW13958   2.434  11.405  11.932
 4040SOL    HW113959   2.511  11.349  11.933
 4040SOL    HW213960   2.363  11.349  11.901
 4041SOL     OW13961  10.359   4.678  10.490
 4041SOL    HW113962  10.363   4.683  10.586
 4041SOL    HW213963  10.302   4.750  10.464
 4042SOL     OW13964  14.088  14.279   2.200
 4042SOL    HW113965  14.095  14.258   2.293
 4042SOL    HW213966  14.068  14.195   2.158
 4043SOL     OW13967   6.957   0.480   2.183
 4043SOL    HW113968   6.954   0.454   2.275
 4043SOL    HW213969   7.050   0.498   2.166
 4044SOL     OW13970  12.077   7.911  11.207
 4044SOL    HW113971  12.168   7.940  11.199
 4044SOL    HW213972  12.045   7.905  11.116
 4045SOL     OW13973   1.230   1.098   4.796
 4045SOL    HW113974   1.219   1.015   4.843
 4045SOL    HW213975   1.269   1.073   4.713
 4046SOL     OW13976   0.408   1.030  10.880
 4046SOL    HW113977   0.410   0.996  10.790
 4046SOL    HW213978   0.351   0.969  10.927
 4047SOL     OW13979   5.974   4.834  10.403
 4047SOL    HW113980   6.018   4.775  10.464
 4047SOL    HW213981   5.947   4.908  10.457
 4048SOL     OW13982   9.840   7.406   0.587
 4048SOL    HW113983   9.805   7.318   0.597
 4048SOL    HW213984   9.825   7.448   0.672
 4049SOL     OW13985   5.417  12.859   1.783
 4049SOL    HW113986   5.395  12.802   1.710
 4049SOL    HW213987   5.460  12.801   1.846
 4050SOL     OW13988   3.671   0.175  12.187
 4050SOL    HW113989   3.687   0.186  12.093
 4050SOL    HW213990   3.756   0.190  12.228
 4051SOL     OW13991  13.506  13.173   0.882
 4051SOL    HW113992  13.450  13.251   0.881
 4051SOL    HW213993  13.491  13.134   0.968
 4052SOL     OW13994   2.605  12.248   0.512
 4052SOL    HW113995   2.612  12.189   0.587
 4052SOL    HW213996   2.666  12.319   0.532
 4053SOL     OW13997  14.289  10.003   6.525
 4053SOL    HW113998  14.293   9.917   6.484
 4053SOL    HW213999  14.373  10.043   6.505
 4054SOL     OW14000   0.270   6.970  13.042
 4054SOL    HW114001   0.270   6.951  12.948
 4054SOL    HW214002   0.355   7.013  13.058
 4055SOL     OW14003   2.341   8.722   3.875
 4055SOL    HW114004   2.314   8.810   3.850
 4055SOL    HW214005   2.271   8.665   3.845
 4056SOL     OW14006   2.127   5.557   0.460
 4056SOL    HW114007   2.143   5.470   0.424
 4056SOL    HW214008   2.037   5.577   0.436
 4057SOL     OW14009  13.289  13.589  11.971
 4057SOL    HW114010  13.209  13.579  11.920
 4057SOL    HW214011  13.335  13.663  11.930
 4058SOL     OW14012   8.673  13.769  12.996
 4058SOL    HW114013   8.711  13.809  13.074
 4058SOL    HW214014   8.658  13.678  13.021
 4059SOL     OW14015   5.469  10.937   9.600
 4059SOL    HW114016   5.503  10.862   9.550
 4059SOL    HW214017   5.375  10.921   9.605
 4060SOL     OW14018   2.131   4.121   8.842
 4060SOL    HW114019   2.082   4.135   8.923
 4060SOL    HW214020   2.218   4.154   8.860
 4061SOL     OW14021   7.841   8.885  11.185
 4061SOL    HW114022   7.810   8.839  11.107
 4061SOL    HW214023   7.832   8.978  11.162
 4062SOL     OW14024   1.634   0.768  13.477
 4062SOL    HW114025   1.660   0.850  13.520
 4062SOL    HW214026   1.636   0.788  13.384
 4063SOL     OW14027  11.767   6.385  12.249
 4063SOL    HW114028  11.686   6.433  12.266
 4063SOL    HW214029  11.816   6.440  12.188
 4064SOL     OW14030   4.021   3.726   8.041
 4064SOL    HW114031   4.106   3.689   8.065
 4064SOL    HW214032   3.965   3.709   8.116
 4065SOL     OW14033   6.528  14.716   6.156
 4065SOL    HW114034   6.482  14.693   6.075
 4065SOL    HW214035   6.464  14.696   6.225
 4066SOL     OW14036   4.563   2.531   1.381
 4066SOL    HW114037   4.609   2.553   1.300
 4066SOL    HW214038   4.475   2.508   1.354
 4067SOL     OW14039   1.019   1.973  10.903
 4067SOL    HW114040   1.057   1.890  10.876
 4067SOL    HW214041   0.929   1.951  10.928
 4068SOL     OW14042   8.748   5.637   3.210
 4068SOL    HW114043   8.802   5.664   3.285
 4068SOL    HW214044   8.660   5.665   3.233
 4069SOL     OW14045   7.587  14.877  13.318
 4069SOL    HW114046   7.668  14.829  13.336
 4069SOL    HW214047   7.532  14.813  13.273
 4070SOL     OW14048  14.448   5.691   6.975
 4070SOL    HW114049  14.459   5.598   6.998
 4070SOL    HW214050  14.354   5.706   6.981
 4071SOL     OW14051  10.719  10.011   7.549
 4071SOL    HW114052  10.624  10.014   7.540
 4071SOL    HW214053  10.752  10.053   7.469
 4072SOL     OW14054   5.029   2.403  13.789
 4072SOL    HW114055   4.978   2.342  13.843
 4072SOL    HW214056   4.985   2.487  13.801
 4073SOL     OW14057   9.290   7.098   5.919
 4073SOL    HW114058   9.264   7.014   5.880
 4073SOL    HW214059   9.218   7.119   5.978
 4074SOL     OW14060  11.024   3.559   2.789
 4074SOL    HW114061  11.104   3.605   2.811
 4074SOL    HW214062  10.993   3.524   2.873
 4075SOL     OW14063   8.340   5.964  13.663
 4075SOL    HW114064   8.275   5.894  13.663
 4075SOL    HW214065   8.317   6.017  13.586
 4076SOL     OW14066   6.809  11.889  13.426
 4076SOL    HW114067   6.826  11.961  13.487
 4076SOL    HW214068   6.742  11.836  13.469
 4077SOL     OW14069   1.766  14.145   1.097
 4077SOL    HW114070   1.755  14.234   1.063
 4077SOL    HW214071   1.676  14.114   1.111
 4078SOL     OW14072   2.552   3.741   3.698
 4078SOL    HW114073   2.486   3.766   3.763
 4078SOL    HW214074   2.616   3.811   3.701
 4079SOL     OW14075   6.547   4.054  13.107
 4079SOL    HW114076   6.622   4.107  13.135
 4079SOL    HW214077   6.496   4.041  13.186
 4080SOL     OW14078   0.492  11.366  13.965
 4080SOL    HW114079   0.557  11.386  14.033
 4080SOL    HW214080   0.422  11.320  14.012
 4081SOL     OW14081   9.894  10.995   7.849
 4081SOL    HW114082   9.813  11.020   7.895
 4081SOL    HW214083   9.863  10.947   7.772
 4082SOL     OW14084  13.290   6.889   9.071
 4082SOL    HW114085  13.378   6.862   9.045
 4082SOL    HW214086  13.232   6.840   9.013
 4083SOL     OW14087  13.388   2.054   7.111
 4083SOL    HW114088  13.381   1.973   7.061
 4083SOL    HW214089  13.435   2.029   7.191
 4084SOL     OW14090  11.163   7.343   6.119
 4084SOL    HW114091  11.194   7.299   6.040
 4084SOL    HW214092  11.129   7.272   6.174
 4085SOL     OW14093   6.556   8.116   7.600
 4085SOL    HW114094   6.646   8.134   7.575
 4085SOL    HW214095   6.523   8.199   7.634
 4086SOL     OW14096   9.885   7.067   6.841
 4086SOL    HW114097   9.791   7.069   6.858
 4086SOL    HW214098   9.893   7.025   6.755
 4087SOL     OW14099   3.211   9.050   0.329
 4087SOL    HW114100   3.163   8.967   0.326
 4087SOL    HW214101   3.295   9.028   0.370
 4088SOL     OW14102   1.629   9.648   9.915
 4088SOL    HW114103   1.553   9.706   9.920
 4088SOL    HW214104   1.644   9.620  10.005
 4089SOL     OW14105  11.477   9.044  11.684
 4089SOL    HW114106  11.523   9.041  11.768
 4089SOL    HW214107  11.392   9.003  11.702
 4090SOL     OW14108   9.783   7.156   1.472
 4090SOL    HW114109   9.782   7.066   1.505
 4090SOL    HW214110   9.770   7.209   1.551
 4091SOL     OW14111   1.161   8.950   2.820
 4091SOL    HW114112   1.191   8.909   2.739
 4091SOL    HW214113   1.153   9.042   2.799
 4092SOL     OW14114   4.506  12.648   7.284
 4092SOL    HW114115   4.458  12.612   7.210
 4092SOL    HW214116   4.469  12.604   7.361
 4093SOL     OW14117   4.536  10.647   1.959
 4093SOL    HW114118   4.455  10.653   2.010
 4093SOL    HW214119   4.541  10.555   1.935
 4094SOL     OW14120  10.510   3.761   7.976
 4094SOL    HW114121  10.494   3.751   8.070
 4094SOL    HW214122  10.538   3.674   7.947
 4095SOL     OW14123  14.055   5.198   8.707
 4095SOL    HW114124  14.149   5.194   8.723
 4095SOL    HW214125  14.044   5.164   8.619
 4096SOL     OW14126   3.507   6.964  14.190
 4096SOL    HW114127   3.575   6.950  14.256
 4096SOL    HW214128   3.426   6.937  14.233
 4097SOL     OW14129   2.207   9.793   0.890
 4097SOL    HW114130   2.192   9.745   0.972
 4097SOL    HW214131   2.243   9.877   0.918
 4098SOL     OW14132   4.805  13.568   3.002
 4098SOL    HW114133   4.859  13.510   3.055
 4098SOL    HW214134   4.718  13.528   3.004
 4099SOL     OW14135   7.859   6.115   7.062
 4099SOL    HW114136   7.839   6.130   6.969
 4099SOL    HW214137   7.799   6.046   7.088
 4100SOL     OW14138   3.983  10.351  11.180
 4100SOL    HW114139   3.971  10.296  11.257
 4100SOL    HW214140   3.897  10.353  11.138
 4101SOL     OW14141   5.324  12.437   7.974
 4101SOL    HW114142   5.314  12.438   7.879
 4101SOL    HW214143   5.411  12.401   7.988
 4102SOL     OW14144  10.953   7.970   5.877
 4102SOL    HW114145  10.903   7.897   5.842
 4102SOL    HW214146  10.888   8.040   5.889
 4103SOL     OW14147   5.473  10.709  11.136
 4103SOL    HW114148   5.463  10.661  11.218
 4103SOL    HW214149   5.531  10.782  11.157
 4104SOL     OW14150  13.666   7.190  12.355
 4104SOL    HW114151  13.624   7.265  12.398
 4104SOL    HW214152  13.631   7.113  12.402
 4105SOL     OW14153   2.481   8.718   0.779
 4105SOL    HW114154   2.392   8.713   0.746
 4105SOL    HW214155   2.493   8.811   0.800
 4106SOL     OW14156  12.145   8.468  12.065
 4106SOL    HW114157  12.147   8.531  11.994
 4106SOL    HW214158  12.093   8.395  12.031
 4107SOL     OW14159   3.420  10.084   7.442
 4107SOL    HW114160   3.446  10.101   7.532
 4107SOL    HW214161   3.377   9.998   7.444
 4108SOL     OW14162  14.781  13.325   1.478
 4108SOL    HW114163  14.721  13.250   1.485
 4108SOL    HW214164  14.766  13.375   1.559
 4109SOL     OW14165   0.123  11.936  10.727
 4109SOL    HW114166   0.098  12.013  10.676
 4109SOL    HW214167   0.170  11.972  10.802
 4110SOL     OW14168  12.963   5.389  13.162
 4110SOL    HW114169  12.879   5.348  13.180
 4110SOL    HW214170  12.997   5.415  13.248
 4111SOL     OW14171  12.471   2.199   5.780
 4111SOL    HW114172  12.553   2.153   5.763
 4111SOL    HW214173  12.421   2.189   5.699
 4112SOL     OW14174   3.782   0.106  11.936
 4112SOL    HW114175   3.728   0.093  11.857
 4112SOL    HW214176   3.871   0.115  11.902
 4113SOL     OW14177   1.260   3.924   2.041
 4113SOL    HW114178   1.312   3.869   2.100
 4113SOL    HW214179   1.216   3.863   1.983
 4114SOL     OW14180  14.561   3.628   3.389
 4114SOL    HW114181  14.467   3.630   3.374
 4114SOL    HW214182  14.580   3.710   3.435
 4115SOL     OW14183  13.391   1.910   1.945
 4115SOL    HW114184  13.387   1.825   1.901
 4115SOL    HW214185  13.338   1.968   1.889
 4116SOL     OW14186   3.573   7.735  13.533
 4116SOL    HW114187   3.494   7.784  13.557
 4116SOL    HW214188   3.642   7.772  13.587
 4117SOL     OW14189   3.902   3.423   8.118
 4117SOL    HW114190   3.859   3.397   8.037
 4117SOL    HW214191   3.831   3.430   8.182
 4118SOL     OW14192  10.293   7.807   3.625
 4118SOL    HW114193  10.330   7.894   3.615
 4118SOL    HW214194  10.219   7.819   3.685
 4119SOL     OW14195  13.528   4.310  13.594
 4119SOL    HW114196  13.464   4.361  13.644
 4119SOL    HW214197  13.594   4.374  13.567
 4120SOL     OW14198   0.631  12.261   6.667
 4120SOL    HW114199   0.580  12.195   6.621
 4120SOL    HW214200   0.582  12.277   6.748
 4121SOL     OW14201   2.289   8.047   1.955
 4121SOL    HW114202   2.226   7.992   2.001
 4121SOL    HW214203   2.344   8.084   2.025
 4122SOL     OW14204  12.263   9.240   6.373
 4122SOL    HW114205  12.254   9.300   6.447
 4122SOL    HW214206  12.243   9.154   6.409
 4123SOL     OW14207   5.266  10.293   5.108
 4123SOL    HW114208   5.221  10.325   5.030
 4123SOL    HW214209   5.203  10.304   5.179
 4124SOL     OW14210   3.693  10.924  13.077
 4124SOL    HW114211   3.678  10.924  13.172
 4124SOL    HW214212   3.641  10.850  13.045
 4125SOL     OW14213   8.238  14.784  11.121
 4125SOL    HW114214   8.197  14.847  11.179
 4125SOL    HW214215   8.188  14.703  11.133
 4126SOL     OW14216  12.361   5.777   3.668
 4126SOL    HW114217  12.335   5.768   3.759
 4126SOL    HW214218  12.280   5.765   3.618
 4127SOL     OW14219   9.814  14.150   7.659
 4127SOL    HW114220   9.735  14.144   7.712
 4127SOL    HW214221   9.822  14.243   7.637
 4128SOL     OW14222  12.945   0.606   9.636
 4128SOL    HW114223  12.851   0.609   9.651
 4128SOL    HW214224  12.968   0.694   9.607
 4129SOL     OW14225   4.747  14.223   9.434
 4129SOL    HW114226   4.782  14.134   9.432
 4129SOL    HW214227   4.769  14.259   9.348
 4130SOL     OW14228  11.828  11.853   3.835
 4130SOL    HW114229  11.873  11.938   3.834
 4130SOL    HW214230  11.887  11.796   3.883
 4131SOL     OW14231  10.916  10.182   8.873
 4131SOL    HW114232  10.941  10.185   8.781
 4131SOL    HW214233  10.827  10.146   8.873
 4132SOL     OW14234   5.683   4.665   8.303
 4132SOL    HW114235   5.609   4.719   8.329
 4132SOL    HW214236   5.658   4.576   8.327
 4133SOL     OW14237  10.892  13.793   8.219
 4133SOL    HW114238  10.913  13.849   8.294
 4133SOL    HW214239  10.950  13.825   8.149
 4134SOL     OW14240   9.616   1.722   1.539
 4134SOL    HW114241   9.555   1.785   1.578
 4134SOL    HW214242   9.574   1.697   1.457
 4135SOL     OW14243   5.755  13.917   7.679
 4135SOL    HW114244   5.790  13.899   7.766
 4135SOL    HW214245   5.671  13.960   7.695
 4136SOL     OW14246   8.816   9.957   3.666
 4136SOL    HW114247   8.906   9.953   3.632
 4136SOL    HW214248   8.778  10.034   3.624
 4137SOL     OW14249   0.099   1.119   8.857
 4137SOL    HW114250   0.088   1.152   8.947
 4137SOL    HW214251   0.092   1.024   8.866
 4138SOL     OW14252   9.075   9.657  13.627
 4138SOL    HW114253   9.102   9.592  13.691
 4138SOL    HW214254   8.994   9.693  13.662
 4139SOL     OW14255  13.074  14.649   0.810
 4139SOL    HW114256  13.164  14.643   0.778
 4139SOL    HW214257  13.075  14.722   0.871
 4140SOL     OW14258   2.513   0.442   6.480
 4140SOL    HW114259   2.531   0.504   6.550
 4140SOL    HW214260   2.552   0.482   6.402
 4141SOL     OW14261  14.756  14.178   4.371
 4141SOL    HW114262  14.812  14.255   4.362
 4141SOL    HW214263  14.668  14.213   4.386
 4142SOL     OW14264   2.233   4.456  12.899
 4142SOL    HW114265   2.161   4.473  12.959
 4142SOL    HW214266   2.306   4.508  12.933
 4143SOL     OW14267   5.339  14.518  14.850
 4143SOL    HW114268   5.276  14.447  14.841
 4143SOL    HW214269   5.286  14.597  14.859
 4144SOL     OW14270   5.078  11.963   9.479
 4144SOL    HW114271   5.087  11.972   9.574
 4144SOL    HW214272   4.991  11.998   9.460
 4145SOL     OW14273   4.168   8.592   5.167
 4145SOL    HW114274   4.200   8.591   5.257
 4145SOL    HW214275   4.245   8.607   5.113
 4146SOL     OW14276   5.826  12.950   9.953
 4146SOL    HW114277   5.896  13.014   9.945
 4146SOL    HW214278   5.863  12.869   9.918
 4147SOL     OW14279  11.513   6.354   5.294
 4147SOL    HW114280  11.479   6.432   5.251
 4147SOL    HW214281  11.438   6.320   5.344
 4148SOL     OW14282  10.330   0.252   0.666
 4148SOL    HW114283  10.383   0.302   0.728
 4148SOL    HW214284  10.241   0.258   0.701
 4149SOL     OW14285   0.682   9.795  11.586
 4149SOL    HW114286   0.662   9.880  11.548
 4149SOL    HW214287   0.777   9.789  11.583
 4150SOL     OW14288  14.511   0.494   1.838
 4150SOL    HW114289  14.573   0.509   1.910
 4150SOL    HW214290  14.425   0.496   1.879
 4151SOL     OW14291  11.310   9.242   1.418
 4151SOL    HW114292  11.282   9.240   1.510
 4151SOL    HW214293  11.283   9.157   1.383
 4152SOL     OW14294   0.017   1.738   1.386
 4152SOL    HW114295  14.861   1.765   1.470
 4152SOL    HW214296   0.112   1.732   1.401
 4153SOL     OW14297  13.567   9.125   0.651
 4153SOL    HW114298  13.573   9.185   0.726
 4153SOL    HW214299  13.473   9.108   0.642
 4154SOL     OW14300   4.028   7.064   2.138
 4154SOL    HW114301   4.117   7.074   2.170
 4154SOL    HW214302   3.975   7.118   2.197
 4155SOL     OW14303   1.170   8.047   4.976
 4155SOL    HW114304   1.243   8.081   5.029
 4155SOL    HW214305   1.207   8.038   4.888
 4156SOL     OW14306   7.236  10.951  11.966
 4156SOL    HW114307   7.269  11.037  11.941
 4156SOL    HW214308   7.141  10.956  11.952
 4157SOL     OW14309   3.886   8.640   9.780
 4157SOL    HW114310   3.807   8.589   9.796
 4157SOL    HW214311   3.916   8.610   9.694
 4158SOL     OW14312   6.042  14.375   8.178
 4158SOL    HW114313   6.118  14.416   8.137
 4158SOL    HW214314   6.076  14.336   8.259
 4159SOL     OW14315   9.559   2.845   8.601
 4159SOL    HW114316   9.517   2.893   8.673
 4159SOL    HW214317   9.569   2.910   8.532
 4160SOL     OW14318   1.434   5.399  12.672
 4160SOL    HW114319   1.484   5.348  12.736
 4160SOL    HW214320   1.434   5.344  12.593
 4161SOL     OW14321  13.881   7.219   7.964
 4161SOL    HW114322  13.892   7.169   7.883
 4161SOL    HW214323  13.915   7.306   7.944
 4162SOL     OW14324  12.860  11.311   6.991
 4162SOL    HW114325  12.944  11.283   7.027
 4162SOL    HW214326  12.802  11.236   7.003
 4163SOL     OW14327  12.787   6.763   0.804
 4163SOL    HW114328  12.711   6.790   0.855
 4163SOL    HW214329  12.757   6.763   0.713
 4164SOL     OW14330   0.920   0.992   7.801
 4164SOL    HW114331   0.968   1.064   7.841
 4164SOL    HW214332   0.869   0.954   7.873
 4165SOL     OW14333   3.299   2.561   4.255
 4165SOL    HW114334   3.304   2.468   4.275
 4165SOL    HW214335   3.206   2.576   4.237
 4166SOL     OW14336   6.820  12.740   1.370
 4166SOL    HW114337   6.903  12.773   1.404
 4166SOL    HW214338   6.771  12.714   1.448
 4167SOL     OW14339  12.318   2.974   3.521
 4167SOL    HW114340  12.328   3.042   3.455
 4167SOL    HW214341  12.340   3.017   3.604
 4168SOL     OW14342   3.456   7.936   2.693
 4168SOL    HW114343   3.545   7.908   2.713
 4168SOL    HW214344   3.403   7.899   2.763
 4169SOL     OW14345  11.858  13.162   7.006
 4169SOL    HW114346  11.838  13.207   6.924
 4169SOL    HW214347  11.850  13.231   7.073
 4170SOL     OW14348   6.273   1.161  11.002
 4170SOL    HW114349   6.210   1.092  11.020
 4170SOL    HW214350   6.224   1.227  10.954
 4171SOL     OW14351   9.590   1.482   6.746
 4171SOL    HW114352   9.504   1.445   6.723
 4171SOL    HW214353   9.597   1.562   6.693
 4172SOL     OW14354   6.342   3.320   6.130
 4172SOL    HW114355   6.435   3.318   6.152
 4172SOL    HW214356   6.309   3.401   6.169
 4173SOL     OW14357   4.749  13.507   3.542
 4173SOL    HW114358   4.800  13.566   3.598
 4173SOL    HW214359   4.812  13.441   3.514
 4174SOL     OW14360   3.609  12.298   9.657
 4174SOL    HW114361   3.603  12.326   9.748
 4174SOL    HW214362   3.562  12.215   9.653
 4175SOL     OW14363   9.900   8.734  12.994
 4175SOL    HW114364   9.846   8.736  13.073
 4175SOL    HW214365   9.839   8.756  12.923
 4176SOL     OW14366  12.502  11.779   6.701
 4176SOL    HW114367  12.496  11.830   6.621
 4176SOL    HW214368  12.418  11.734   6.708
 4177SOL     OW14369  12.448   1.921   4.665
 4177SOL    HW114370  12.431   1.833   4.631
 4177SOL    HW214371  12.375   1.974   4.633
 4178SOL     OW14372   5.050   3.046  10.929
 4178SOL    HW114373   4.976   3.060  10.987
 4178SOL    HW214374   5.058   3.129  10.881
 4179SOL     OW14375   0.447   5.773   5.267
 4179SOL    HW114376   0.370   5.811   5.225
 4179SOL    HW214377   0.504   5.847   5.285
 4180SOL     OW14378   7.854  14.606   3.866
 4180SOL    HW114379   7.784  14.544   3.846
 4180SOL    HW214380   7.933  14.563   3.834
 4181SOL     OW14381  12.840   8.633  14.219
 4181SOL    HW114382  12.776   8.645  14.149
 4181SOL    HW214383  12.787   8.616  14.297
 4182SOL     OW14384   0.732   6.312   6.153
 4182SOL    HW114385   0.668   6.257   6.109
 4182SOL    HW214386   0.692   6.331   6.238
 4183SOL     OW14387   6.364   6.813   7.914
 4183SOL    HW114388   6.272   6.794   7.900
 4183SOL    HW214389   6.389   6.867   7.839
 4184SOL     OW14390   5.152   4.213   7.885
 4184SOL    HW114391   5.193   4.126   7.890
 4184SOL    HW214392   5.061   4.195   7.863
 4185SOL     OW14393  12.151   2.773   3.561
 4185SOL    HW114394  12.213   2.843   3.540
 4185SOL    HW214395  12.122   2.794   3.650
 4186SOL     OW14396   8.916   5.567  12.049
 4186SOL    HW114397   8.978   5.539  11.982
 4186SOL    HW214398   8.840   5.599  12.000
 4187SOL     OW14399   9.786   8.389  10.821
 4187SOL    HW114400   9.867   8.440  10.812
 4187SOL    HW214401   9.728   8.444  10.873
 4188SOL     OW14402  12.149  12.891   3.378
 4188SOL    HW114403  12.105  12.907   3.294
 4188SOL    HW214404  12.220  12.955   3.380
 4189SOL     OW14405   1.184   0.198   3.269
 4189SOL    HW114406   1.221   0.145   3.198
 4189SOL    HW214407   1.100   0.228   3.235
 4190SOL     OW14408   5.778  11.351   3.182
 4190SOL    HW114409   5.750  11.259   3.174
 4190SOL    HW214410   5.853  11.358   3.123
 4191SOL     OW14411   3.528  13.444   8.779
 4191SOL    HW114412   3.493  13.501   8.711
 4191SOL    HW214413   3.464  13.449   8.850
 4192SOL     OW14414  10.188   8.802   2.724
 4192SOL    HW114415  10.138   8.720   2.729
 4192SOL    HW214416  10.122   8.869   2.705
 4193SOL     OW14417   9.460   8.797   1.037
 4193SOL    HW114418   9.489   8.712   1.003
 4193SOL    HW214419   9.369   8.781   1.065
 4194SOL     OW14420   0.942   5.230  10.323
 4194SOL    HW114421   1.001   5.171  10.275
 4194SOL    HW214422   0.995   5.261  10.397
 4195SOL     OW14423   3.037   0.585  13.669
 4195SOL    HW114424   2.942   0.591  13.682
 4195SOL    HW214425   3.055   0.491  13.669
 4196SOL     OW14426   4.919   8.187   6.157
 4196SOL    HW114427   4.883   8.135   6.229
 4196SOL    HW214428   4.969   8.256   6.201
 4197SOL     OW14429  10.511  10.010   8.183
 4197SOL    HW114430  10.432  10.006   8.130
 4197SOL    HW214431  10.541  10.101   8.175
 4198SOL     OW14432   1.589   7.792  12.382
 4198SOL    HW114433   1.605   7.838  12.299
 4198SOL    HW214434   1.506   7.746  12.368
 4199SOL     OW14435   1.542  13.774   1.683
 4199SOL    HW114436   1.608  13.705   1.669
 4199SOL    HW214437   1.459  13.731   1.663
 4200SOL     OW14438   9.540   2.620   1.873
 4200SOL    HW114439   9.595   2.697   1.858
 4200SOL    HW214440   9.569   2.557   1.808
 4201SOL     OW14441   1.618   4.661   6.075
 4201SOL    HW114442   1.693   4.623   6.122
 4201SOL    HW214443   1.653   4.686   5.990
 4202SOL     OW14444   3.524   7.058   3.297
 4202SOL    HW114445   3.528   7.040   3.203
 4202SOL    HW214446   3.540   7.153   3.304
 4203SOL     OW14447   2.412  11.578   6.351
 4203SOL    HW114448   2.413  11.673   6.342
 4203SOL    HW214449   2.444  11.545   6.267
 4204SOL     OW14450   3.330   9.322   3.911
 4204SOL    HW114451   3.256   9.280   3.956
 4204SOL    HW214452   3.326   9.288   3.822
 4205SOL     OW14453   5.763  14.238  10.147
 4205SOL    HW114454   5.797  14.266  10.062
 4205SOL    HW214455   5.835  14.254  10.208
 4206SOL     OW14456  11.405   8.420   8.381
 4206SOL    HW114457  11.420   8.438   8.474
 4206SOL    HW214458  11.449   8.493   8.336
 4207SOL     OW14459   9.545  10.616   1.122
 4207SOL    HW114460   9.546  10.687   1.187
 4207SOL    HW214461   9.612  10.642   1.059
 4208SOL     OW14462  12.889  11.621   5.372
 4208SOL    HW114463  12.956  11.650   5.310
 4208SOL    HW214464  12.867  11.533   5.344
 4209SOL     OW14465  14.426   7.560  10.082
 4209SOL    HW114466  14.421   7.650  10.116
 4209SOL    HW214467  14.345   7.519  10.112
 4210SOL     OW14468   7.407   0.179   4.870
 4210SOL    HW114469   7.488   0.127   4.874
 4210SOL    HW214470   7.337   0.115   4.884
 4211SOL     OW14471   6.242   8.834  11.896
 4211SOL    HW114472   6.334   8.834  11.869
 4211SOL    HW214473   6.196   8.872  11.821
 4212SOL     OW14474   5.443   2.048  14.142
 4212SOL    HW114475   5.508   2.118  14.135
 4212SOL    HW214476   5.415   2.032  14.052
 4213SOL     OW14477   6.897   4.451   4.471
 4213SOL    HW114478   6.943   4.373   4.499
 4213SOL    HW214479   6.915   4.459   4.378
 4214SOL     OW14480   9.954   9.565   3.196
 4214SOL    HW114481  10.020   9.514   3.243
 4214SOL    HW214482   9.872   9.543   3.239
 4215SOL     OW14483   7.889   0.927  10.409
 4215SOL    HW114484   7.850   0.840  10.420
 4215SOL    HW214485   7.859   0.955  10.322
 4216SOL     OW14486   2.901   1.909   2.521
 4216SOL    HW114487   2.829   1.849   2.505
 4216SOL    HW214488   2.963   1.891   2.449
 4217SOL     OW14489   7.288  13.100   5.801
 4217SOL    HW114490   7.283  13.004   5.798
 4217SOL    HW214491   7.360  13.122   5.742
 4218SOL     OW14492   8.542   0.959   1.191
 4218SOL    HW114493   8.451   0.984   1.172
 4218SOL    HW214494   8.568   0.905   1.116
 4219SOL     OW14495   4.536  11.937  10.366
 4219SOL    HW114496   4.598  11.959  10.296
 4219SOL    HW214497   4.458  11.988  10.346
 4220SOL     OW14498   5.403   7.780   0.520
 4220SOL    HW114499   5.410   7.718   0.448
 4220SOL    HW214500   5.408   7.725   0.599
 4221SOL     OW14501   4.744   8.087  11.959
 4221SOL    HW114502   4.824   8.071  12.009
 4221SOL    HW214503   4.773   8.094  11.868
 4222SOL     OW14504   8.433   1.347  11.412
 4222SOL    HW114505   8.349   1.334  11.457
 4222SOL    HW214506   8.486   1.397  11.475
 4223SOL     OW14507   5.751   1.545   8.880
 4223SOL    HW114508   5.672   1.582   8.919
 4223SOL    HW214509   5.769   1.602   8.805
 4224SOL     OW14510   5.280  11.259  12.080
 4224SOL    HW114511   5.298  11.351  12.060
 4224SOL    HW214512   5.344  11.236  12.147
 4225SOL     OW14513  13.298   4.595   8.001
 4225SOL    HW114514  13.204   4.576   7.998
 4225SOL    HW214515  13.304   4.690   7.999
 4226SOL     OW14516   4.902  11.162   2.499
 4226SOL    HW114517   4.874  11.071   2.491
 4226SOL    HW214518   4.821  11.210   2.516
 4227SOL     OW14519   0.783  10.796   2.515
 4227SOL    HW114520   0.735  10.805   2.597
 4227SOL    HW214521   0.824  10.709   2.520
 4228SOL     OW14522   3.203   4.055   3.735
 4228SOL    HW114523   3.173   4.071   3.825
 4228SOL    HW214524   3.285   4.104   3.728
 4229SOL     OW14525  11.576   9.291   1.969
 4229SOL    HW114526  11.650   9.347   1.946
 4229SOL    HW214527  11.611   9.231   2.035
 4230SOL     OW14528   2.564   1.393   0.875
 4230SOL    HW114529   2.562   1.338   0.953
 4230SOL    HW214530   2.656   1.389   0.847
 4231SOL     OW14531   1.530  12.617   4.710
 4231SOL    HW114532   1.615  12.609   4.754
 4231SOL    HW214533   1.512  12.528   4.679
 4232SOL     OW14534  10.308   0.944   6.323
 4232SOL    HW114535  10.315   0.948   6.418
 4232SOL    HW214536  10.306   1.035   6.295
 4233SOL     OW14537   0.437   3.615  12.706
 4233SOL    HW114538   0.392   3.531  12.720
 4233SOL    HW214539   0.367   3.680  12.707
 4234SOL     OW14540   9.471   2.297   4.949
 4234SOL    HW114541   9.472   2.380   4.901
 4234SOL    HW214542   9.507   2.319   5.034
 4235SOL     OW14543   5.787   9.055   1.356
 4235SOL    HW114544   5.820   9.051   1.446
 4235SOL    HW214545   5.728   8.980   1.349
 4236SOL     OW14546   3.647   4.680   1.091
 4236SOL    HW114547   3.579   4.748   1.092
 4236SOL    HW214548   3.617   4.619   1.024
 4237SOL     OW14549  14.704   0.560  10.655
 4237SOL    HW114550  14.661   0.492  10.603
 4237SOL    HW214551  14.709   0.635  10.595
 4238SOL     OW14552   4.721   4.325   6.767
 4238SOL    HW114553   4.784   4.357   6.702
 4238SOL    HW214554   4.643   4.377   6.753
 4239SOL     OW14555   3.087  11.692   8.569
 4239SOL    HW114556   3.017  11.740   8.525
 4239SOL    HW214557   3.066  11.599   8.554
 4240SOL     OW14558   9.229   6.676  10.621
 4240SOL    HW114559   9.164   6.633  10.566
 4240SOL    HW214560   9.256   6.753  10.570
 4241SOL     OW14561  12.946   3.511   7.248
 4241SOL    HW114562  12.894   3.434   7.226
 4241SOL    HW214563  12.995   3.485   7.326
 4242SOL     OW14564  14.442   2.320   3.567
 4242SOL    HW114565  14.519   2.308   3.512
 4242SOL    HW214566  14.435   2.238   3.617
 4243SOL     OW14567  10.442   0.707   7.150
 4243SOL    HW114568  10.457   0.671   7.063
 4243SOL    HW214569  10.499   0.656   7.208
 4244SOL     OW14570   1.114   2.016   2.889
 4244SOL    HW114571   1.102   1.940   2.832
 4244SOL    HW214572   1.209   2.028   2.893
 4245SOL     OW14573   7.309  10.820  11.193
 4245SOL    HW114574   7.371  10.880  11.153
 4245SOL    HW214575   7.362  10.746  11.222
 4246SOL     OW14576  11.853  12.421  10.635
 4246SOL    HW114577  11.808  12.481  10.576
 4246SOL    HW214578  11.810  12.433  10.720
 4247SOL     OW14579   2.611  13.692   2.777
 4247SOL    HW114580   2.606  13.596   2.780
 4247SOL    HW214581   2.620  13.718   2.869
 4248SOL     OW14582   6.005  13.977   8.658
 4248SOL    HW114583   5.940  14.020   8.602
 4248SOL    HW214584   6.085  14.026   8.642
 4249SOL     OW14585  14.099   4.666  12.338
 4249SOL    HW114586  14.069   4.707  12.419
 4249SOL    HW214587  14.074   4.729  12.270
 4250SOL     OW14588  12.800  12.441   9.407
 4250SOL    HW114589  12.814  12.376   9.476
 4250SOL    HW214590  12.704  12.449   9.401
 4251SOL     OW14591  13.736   5.458   2.497
 4251SOL    HW114592  13.795   5.395   2.458
 4251SOL    HW214593  13.765   5.543   2.463
 4252SOL     OW14594   2.040   4.087   4.811
 4252SOL    HW114595   2.121   4.113   4.768
 4252SOL    HW214596   1.976   4.153   4.784
 4253SOL     OW14597   4.652   6.335   3.911
 4253SOL    HW114598   4.638   6.420   3.953
 4253SOL    HW214599   4.731   6.347   3.859
 4254SOL     OW14600  10.964   7.322   3.595
 4254SOL    HW114601  10.968   7.370   3.512
 4254SOL    HW214602  10.994   7.385   3.660
 4255SOL     OW14603   6.934   9.212  11.834
 4255SOL    HW114604   7.002   9.237  11.896
 4255SOL    HW214605   6.931   9.284  11.771
 4256SOL     OW14606   4.757   9.645  11.875
 4256SOL    HW114607   4.735   9.709  11.943
 4256SOL    HW214608   4.763   9.562  11.921
 4257SOL     OW14609   6.900  13.137  11.015
 4257SOL    HW114610   6.889  13.232  11.019
 4257SOL    HW214611   6.913  13.118  10.923
 4258SOL     OW14612   6.963  10.839  11.349
 4258SOL    HW114613   6.874  10.818  11.321
 4258SOL    HW214614   6.955  10.855  11.443
 4259SOL     OW14615   2.886   8.548  10.330
 4259SOL    HW114616   2.933   8.472  10.364
 4259SOL    HW214617   2.905   8.547  10.236
 4260SOL     OW14618   2.357  14.347  14.868
 4260SOL    HW114619   2.431  14.341  14.808
 4260SOL    HW214620   2.284  14.374  14.812
 4261SOL     OW14621  12.927  11.967   0.766
 4261SOL    HW114622  12.850  11.936   0.815
 4261SOL    HW214623  12.893  12.037   0.711
 4262SOL     OW14624   2.812  14.288   7.923
 4262SOL    HW114625   2.876  14.305   7.993
 4262SOL    HW214626   2.806  14.193   7.919
 4263SOL     OW14627  11.222   9.185   1.697
 4263SOL    HW114628  11.140   9.170   1.649
 4263SOL    HW214629  11.204   9.155   1.786
 4264SOL     OW14630  12.493   7.389   8.143
 4264SOL    HW114631  12.460   7.314   8.094
 4264SOL    HW214632  12.570   7.357   8.188
 4265SOL     OW14633   5.220   3.242   8.965
 4265SOL    HW114634   5.280   3.182   8.921
 4265SOL    HW214635   5.201   3.309   8.899
 4266SOL     OW14636   7.821   2.758   9.539
 4266SOL    HW114637   7.748   2.709   9.502
 4266SOL    HW214638   7.873   2.691   9.586
 4267SOL     OW14639  10.478  13.591   7.482
 4267SOL    HW114640  10.475  13.538   7.402
 4267SOL    HW214641  10.541  13.660   7.463
 4268SOL     OW14642   9.759   1.143  12.503
 4268SOL    HW114643   9.801   1.128  12.587
 4268SOL    HW214644   9.769   1.237  12.488
 4269SOL     OW14645   1.125   9.042  10.516
 4269SOL    HW114646   1.031   9.025  10.527
 4269SOL    HW214647   1.141   9.027  10.423
 4270SOL     OW14648   2.507   5.457   7.122
 4270SOL    HW114649   2.436   5.411   7.168
 4270SOL    HW214650   2.475   5.467   7.033
 4271SOL     OW14651  13.789   3.315  14.100
 4271SOL    HW114652  13.882   3.301  14.079
 4271SOL    HW214653  13.773   3.257  14.175
 4272SOL     OW14654   6.130   8.420  11.046
 4272SOL    HW114655   6.041   8.443  11.072
 4272SOL    HW214656   6.165   8.500  11.006
 4273SOL     OW14657   2.074   0.869   8.579
 4273SOL    HW114658   2.137   0.939   8.564
 4273SOL    HW214659   2.082   0.812   8.502
 4274SOL     OW14660   2.813   5.159  13.907
 4274SOL    HW114661   2.826   5.133  13.816
 4274SOL    HW214662   2.902   5.176  13.940
 4275SOL     OW14663   3.435   4.517  11.203
 4275SOL    HW114664   3.362   4.564  11.163
 4275SOL    HW214665   3.500   4.585  11.222
 4276SOL     OW14666   7.054  12.673   4.835
 4276SOL    HW114667   7.143  12.638   4.827
 4276SOL    HW214668   7.063  12.766   4.817
 4277SOL     OW14669   8.951   3.616   0.276
 4277SOL    HW114670   9.025   3.573   0.318
 4277SOL    HW214671   8.874   3.585   0.324
 4278SOL     OW14672   5.100   6.632   7.739
 4278SOL    HW114673   5.180   6.678   7.764
 4278SOL    HW214674   5.049   6.699   7.692
 4279SOL     OW14675  12.063  13.543   0.493
 4279SOL    HW114676  12.086  13.455   0.524
 4279SOL    HW214677  12.128  13.562   0.425
 4280SOL     OW14678   5.232   0.632   2.412
 4280SOL    HW114679   5.302   0.695   2.428
 4280SOL    HW214680   5.183   0.670   2.338
 4281SOL     OW14681   7.791  12.497  14.288
 4281SOL    HW114682   7.837  12.563  14.339
 4281SOL    HW214683   7.714  12.542  14.254
 4282SOL     OW14684   8.092  13.883  12.185
 4282SOL    HW114685   8.122  13.968  12.151
 4282SOL    HW214686   8.021  13.858  12.126
 4283SOL     OW14687   0.125   8.427   0.976
 4283SOL    HW114688   0.171   8.421   1.060
 4283SOL    HW214689   0.039   8.462   0.999
 4284SOL     OW14690  13.748   0.292   1.239
 4284SOL    HW114691  13.776   0.241   1.163
 4284SOL    HW214692  13.829   0.326   1.277
 4285SOL     OW14693   6.168  12.999   9.310
 4285SOL    HW114694   6.173  13.089   9.277
 4285SOL    HW214695   6.210  12.946   9.242
 4286SOL     OW14696   9.912   1.092   1.423
 4286SOL    HW114697   9.904   1.187   1.418
 4286SOL    HW214698   9.838   1.064   1.477
 4287SOL     OW14699   3.004   4.790   7.129
 4287SOL    HW114700   3.067   4.723   7.153
 4287SOL    HW214701   2.942   4.746   7.071
 4288SOL     OW14702   8.406   6.859  14.184
 4288SOL    HW114703   8.424   6.776  14.141
 4288SOL    HW214704   8.316   6.881  14.159
 4289SOL     OW14705   9.382   6.967   7.714
 4289SOL    HW114706   9.408   6.984   7.624
 4289SOL    HW214707   9.318   7.035   7.734
 4290SOL     OW14708  14.076  10.098   5.751
 4290SOL    HW114709  14.162  10.059   5.769
 4290SOL    HW214710  14.064  10.088   5.657
 4291SOL     OW14711  11.718  11.252  13.759
 4291SOL    HW114712  11.709  11.276  13.851
 4291SOL    HW214713  11.771  11.173  13.760
 4292SOL     OW14714   1.997  12.919   1.287
 4292SOL    HW114715   2.069  12.978   1.264
 4292SOL    HW214716   2.015  12.840   1.237
 4293SOL     OW14717   1.851  14.583   2.129
 4293SOL    HW114718   1.880  14.599   2.219
 4293SOL    HW214719   1.820  14.668   2.098
 4294SOL     OW14720  14.329   6.105   4.602
 4294SOL    HW114721  14.315   6.189   4.558
 4294SOL    HW214722  14.262   6.047   4.566
 4295SOL     OW14723   1.717   8.795   3.253
 4295SOL    HW114724   1.653   8.858   3.287
 4295SOL    HW214725   1.699   8.792   3.159
 4296SOL     OW14726  11.381   5.441  14.194
 4296SOL    HW114727  11.325   5.393  14.133
 4296SOL    HW214728  11.465   5.395  14.192
 4297SOL     OW14729   0.012   2.712  13.333
 4297SOL    HW114730  14.877   2.717  13.428
 4297SOL    HW214731  14.847   2.789  13.298
 4298SOL     OW14732   8.524   5.872   5.069
 4298SOL    HW114733   8.460   5.823   5.018
 4298SOL    HW214734   8.507   5.964   5.047
 4299SOL     OW14735   8.513  10.037   9.154
 4299SOL    HW114736   8.436  10.023   9.098
 4299SOL    HW214737   8.482  10.022   9.243
 4300SOL     OW14738   9.407  14.180  12.550
 4300SOL    HW114739   9.462  14.160  12.474
 4300SOL    HW214740   9.318  14.158  12.521
 4301SOL     OW14741   3.248   7.819   0.806
 4301SOL    HW114742   3.278   7.808   0.716
 4301SOL    HW214743   3.321   7.789   0.860
 4302SOL     OW14744   4.307  11.115  11.220
 4302SOL    HW114745   4.333  11.196  11.176
 4302SOL    HW214746   4.227  11.089  11.175
 4303SOL     OW14747   0.009  12.708   1.851
 4303SOL    HW114748  14.847  12.780   1.898
 4303SOL    HW214749   0.102  12.713   1.877
 4304SOL     OW14750  14.069  14.403   7.351
 4304SOL    HW114751  14.120  14.380   7.429
 4304SOL    HW214752  13.999  14.459   7.384
 4305SOL     OW14753   1.505   5.331  11.834
 4305SOL    HW114754   1.531   5.377  11.754
 4305SOL    HW214755   1.438   5.387  11.873
 4306SOL     OW14756   5.674  13.648   0.084
 4306SOL    HW114757   5.691  13.566   0.129
 4306SOL    HW214758   5.756  13.667   0.038
 4307SOL     OW14759   4.992   5.055  14.463
 4307SOL    HW114760   5.051   5.041  14.538
 4307SOL    HW214761   4.983   4.968  14.423
 4308SOL     OW14762   5.691   1.174  10.329
 4308SOL    HW114763   5.760   1.192  10.266
 4308SOL    HW214764   5.700   1.243  10.395
 4309SOL     OW14765   4.271   7.261  11.427
 4309SOL    HW114766   4.228   7.279  11.343
 4309SOL    HW214767   4.222   7.313  11.491
 4310SOL     OW14768   8.476   5.656   9.275
 4310SOL    HW114769   8.405   5.709   9.312
 4310SOL    HW214770   8.512   5.608   9.349
 4311SOL     OW14771   1.824   0.649   8.790
 4311SOL    HW114772   1.782   0.724   8.748
 4311SOL    HW214773   1.837   0.678   8.881
 4312SOL     OW14774   5.262   9.473   6.360
 4312SOL    HW114775   5.271   9.537   6.288
 4312SOL    HW214776   5.218   9.522   6.429
 4313SOL     OW14777  10.695   2.026   8.656
 4313SOL    HW114778  10.719   2.079   8.732
 4313SOL    HW214779  10.774   1.975   8.636
 4314SOL     OW14780   9.612  11.914   6.525
 4314SOL    HW114781   9.685  11.976   6.525
 4314SOL    HW214782   9.601  11.888   6.434
 4315SOL     OW14783  11.534   8.057  11.248
 4315SOL    HW114784  11.619   8.098  11.265
 4315SOL    HW214785  11.515   8.007  11.328
 4316SOL     OW14786   3.408   3.051   4.384
 4316SOL    HW114787   3.434   3.143   4.385
 4316SOL    HW214788   3.364   3.038   4.468
 4317SOL     OW14789   9.631   1.064   7.969
 4317SOL    HW114790   9.686   0.994   8.003
 4317SOL    HW214791   9.590   1.102   8.046
 4318SOL     OW14792   0.300   3.937   7.709
 4318SOL    HW114793   0.242   3.873   7.667
 4318SOL    HW214794   0.258   4.022   7.692
 4319SOL     OW14795   9.825   0.838  12.282
 4319SOL    HW114796   9.886   0.766  12.266
 4319SOL    HW214797   9.783   0.816  12.365
 4320SOL     OW14798   5.490   8.620   7.822
 4320SOL    HW114799   5.544   8.692   7.854
 4320SOL    HW214800   5.549   8.545   7.818
 4321SOL     OW14801   0.499   2.538   4.364
 4321SOL    HW114802   0.451   2.455   4.372
 4321SOL    HW214803   0.575   2.528   4.422
 4322SOL     OW14804  13.504   1.263   9.489
 4322SOL    HW114805  13.432   1.311   9.528
 4322SOL    HW214806  13.550   1.224   9.564
 4323SOL     OW14807   2.422   0.267   6.213
 4323SOL    HW114808   2.507   0.296   6.178
 4323SOL    HW214809   2.377   0.348   6.236
 4324SOL     OW14810   0.609  13.367   4.808
 4324SOL    HW114811   0.544  13.342   4.874
 4324SOL    HW214812   0.653  13.443   4.847
 4325SOL     OW14813  13.394   0.893   9.449
 4325SOL    HW114814  13.336   0.867   9.520
 4325SOL    HW214815  13.476   0.847   9.467
 4326SOL     OW14816   2.105   2.610   7.658
 4326SOL    HW114817   2.150   2.557   7.592
 4326SOL    HW214818   2.127   2.569   7.742
 4327SOL     OW14819   2.281   1.555   8.731
 4327SOL    HW114820   2.364   1.509   8.717
 4327SOL    HW214821   2.293   1.639   8.687
 4328SOL     OW14822  10.149   7.046  11.618
 4328SOL    HW114823  10.083   7.093  11.567
 4328SOL    HW214824  10.145   7.085  11.705
 4329SOL     OW14825   4.429  12.770   3.223
 4329SOL    HW114826   4.462  12.743   3.137
 4329SOL    HW214827   4.505  12.764   3.281
 4330SOL     OW14828   9.193  12.989   6.992
 4330SOL    HW114829   9.182  12.949   6.905
 4330SOL    HW214830   9.283  13.021   6.993
 4331SOL     OW14831   4.007   7.539  13.888
 4331SOL    HW114832   3.958   7.530  13.807
 4331SOL    HW214833   4.075   7.471  13.882
 4332SOL     OW14834   4.794   1.648   3.588
 4332SOL    HW114835   4.868   1.691   3.545
 4332SOL    HW214836   4.728   1.717   3.596
 4333SOL     OW14837  13.835   2.382   2.873
 4333SOL    HW114838  13.916   2.353   2.832
 4333SOL    HW214839  13.768   2.375   2.805
 4334SOL     OW14840  14.589   6.654  11.190
 4334SOL    HW114841  14.609   6.607  11.271
 4334SOL    HW214842  14.494   6.648  11.182
 4335SOL     OW14843   2.132   0.168   9.629
 4335SOL    HW114844   2.082   0.170   9.710
 4335SOL    HW214845   2.133   0.260   9.600
 4336SOL     OW14846  12.150  11.482  10.956
 4336SOL    HW114847  12.196  11.493  11.039
 4336SOL    HW214848  12.059  11.463  10.981
 4337SOL     OW14849   9.414   1.816  12.908
 4337SOL    HW114850   9.500   1.776  12.915
 4337SOL    HW214851   9.404   1.834  12.814
 4338SOL     OW14852   0.536  10.024   9.433
 4338SOL    HW114853   0.533  10.066   9.347
 4338SOL    HW214854   0.626   9.992   9.441
 4339SOL     OW14855   7.943   3.601   8.578
 4339SOL    HW114856   7.925   3.640   8.664
 4339SOL    HW214857   7.856   3.583   8.542
 4340SOL     OW14858   8.610   5.450   0.269
 4340SOL    HW114859   8.521   5.481   0.254
 4340SOL    HW214860   8.666   5.523   0.244
 4341SOL     OW14861   1.288  12.207   0.119
 4341SOL    HW114862   1.368  12.235   0.075
 4341SOL    HW214863   1.218  12.235   0.061
 4342SOL     OW14864   3.429   1.229   2.885
 4342SOL    HW114865   3.468   1.155   2.931
 4342SOL    HW214866   3.347   1.196   2.848
 4343SOL     OW14867  11.383  10.719   4.085
 4343SOL    HW114868  11.424  10.690   4.167
 4343SOL    HW214869  11.384  10.814   4.090
 4344SOL     OW14870  12.005   5.560  12.956
 4344SOL    HW114871  12.002   5.473  12.918
 4344SOL    HW214872  11.963   5.616  12.891
 4345SOL     OW14873  14.179   3.115  14.118
 4345SOL    HW114874  14.106   3.053  14.112
 4345SOL    HW214875  14.223   3.093  14.200
 4346SOL     OW14876  12.683  11.440  13.433
 4346SOL    HW114877  12.597  11.406  13.461
 4346SOL    HW214878  12.685  11.425  13.338
 4347SOL     OW14879   5.288  12.272  10.070
 4347SOL    HW114880   5.381  12.253  10.068
 4347SOL    HW214881   5.245  12.187  10.077
 4348SOL     OW14882   4.938   2.541   6.428
 4348SOL    HW114883   4.845   2.564   6.428
 4348SOL    HW214884   4.980   2.612   6.379
 4349SOL     OW14885   8.855   1.685   9.067
 4349SOL    HW114886   8.761   1.671   9.053
 4349SOL    HW214887   8.863   1.779   9.081
 4350SOL     OW14888  10.165  10.109  14.451
 4350SOL    HW114889  10.108  10.146  14.384
 4350SOL    HW214890  10.211  10.038  14.406
 4351SOL     OW14891   9.874   3.982  11.356
 4351SOL    HW114892   9.851   4.068  11.390
 4351SOL    HW214893   9.886   3.927  11.434
 4352SOL     OW14894   6.047   4.960  11.377
 4352SOL    HW114895   6.030   5.055  11.377
 4352SOL    HW214896   6.087   4.944  11.292
 4353SOL     OW14897   7.571  12.547  13.998
 4353SOL    HW114898   7.592  12.604  13.923
 4353SOL    HW214899   7.516  12.478  13.961
 4354SOL     OW14900   0.165   7.829  10.841
 4354SOL    HW114901   0.093   7.873  10.796
 4354SOL    HW214902   0.184   7.884  10.917
 4355SOL     OW14903   5.400   3.346   6.271
 4355SOL    HW114904   5.314   3.308   6.287
 4355SOL    HW214905   5.459   3.295   6.327
 4356SOL     OW14906   9.515   2.500  12.270
 4356SOL    HW114907   9.451   2.524  12.336
 4356SOL    HW214908   9.583   2.568  12.276
 4357SOL     OW14909  14.526   9.759   3.509
 4357SOL    HW114910  14.620   9.739   3.509
 4357SOL    HW214911  14.496   9.733   3.422
 4358SOL     OW14912  12.014   7.056   6.921
 4358SOL    HW114913  12.003   6.960   6.917
 4358SOL    HW214914  11.941   7.085   6.976
 4359SOL     OW14915   3.160  11.040  13.626
 4359SOL    HW114916   3.237  11.096  13.617
 4359SOL    HW214917   3.086  11.100  13.623
 4360SOL     OW14918   7.394   0.747   9.170
 4360SOL    HW114919   7.328   0.741   9.239
 4360SOL    HW214920   7.431   0.659   9.164
 4361SOL     OW14921   9.899   0.166   1.298
 4361SOL    HW114922   9.845   0.193   1.372
 4361SOL    HW214923   9.976   0.124   1.338
 4362SOL     OW14924   3.263  13.836   8.074
 4362SOL    HW114925   3.235  13.805   7.988
 4362SOL    HW214926   3.266  13.931   8.065
 4363SOL     OW14927  13.967   0.939  13.362
 4363SOL    HW114928  13.885   0.987  13.372
 4363SOL    HW214929  13.977   0.928  13.267
 4364SOL     OW14930   5.047  13.326   4.187
 4364SOL    HW114931   5.116  13.389   4.165
 4364SOL    HW214932   5.077  13.285   4.268
 4365SOL     OW14933   1.514  11.585   3.953
 4365SOL    HW114934   1.502  11.490   3.954
 4365SOL    HW214935   1.592  11.599   3.898
 4366SOL     OW14936   8.377   1.092   0.277
 4366SOL    HW114937   8.351   1.176   0.240
 4366SOL    HW214938   8.473   1.094   0.275
 4367SOL     OW14939  11.767   5.983  14.023
 4367SOL    HW114940  11.858   5.996  14.050
 4367SOL    HW214941  11.773   5.925  13.947
 4368SOL     OW14942   8.484   2.747  10.235
 4368SOL    HW114943   8.533   2.703  10.165
 4368SOL    HW214944   8.549   2.803  10.277
 4369SOL     OW14945   8.629   3.637  13.827
 4369SOL    HW114946   8.683   3.673  13.897
 4369SOL    HW214947   8.541   3.632  13.864
 4370SOL     OW14948  11.097   2.664   8.314
 4370SOL    HW114949  11.014   2.668   8.362
 4370SOL    HW214950  11.100   2.745   8.263
 4371SOL     OW14951  11.559   3.059  11.120
 4371SOL    HW114952  11.542   3.083  11.211
 4371SOL    HW214953  11.546   3.140  11.071
 4372SOL     OW14954  14.766   4.279   4.218
 4372SOL    HW114955  14.676   4.313   4.212
 4372SOL    HW214956  14.772   4.242   4.306
 4373SOL     OW14957  13.840  13.195  12.053
 4373SOL    HW114958  13.876  13.129  12.113
 4373SOL    HW214959  13.902  13.268  12.058
 4374SOL     OW14960   2.145  11.545  14.706
 4374SOL    HW114961   2.236  11.555  14.735
 4374SOL    HW214962   2.137  11.453  14.681
 4375SOL     OW14963  14.133   8.282   6.528
 4375SOL    HW114964  14.229   8.279   6.523
 4375SOL    HW214965  14.114   8.317   6.615
 4376SOL     OW14966  13.529  12.200   5.862
 4376SOL    HW114967  13.477  12.262   5.913
 4376SOL    HW214968  13.465  12.153   5.808
 4377SOL     OW14969   5.066   0.521  10.718
 4377SOL    HW114970   5.071   0.522  10.622
 4377SOL    HW214971   4.990   0.575  10.739
 4378SOL     OW14972   9.295   8.558   6.859
 4378SOL    HW114973   9.290   8.496   6.932
 4378SOL    HW214974   9.215   8.541   6.808
 4379SOL     OW14975  14.481   6.320   5.883
 4379SOL    HW114976  14.411   6.272   5.836
 4379SOL    HW214977  14.436   6.393   5.924
 4380SOL     OW14978  14.724  10.401   9.993
 4380SOL    HW114979  14.760  10.315  10.016
 4380SOL    HW214980  14.773  10.427   9.915
 4381SOL     OW14981  14.826   0.733   7.391
 4381SOL    HW114982  14.869   0.683   7.461
 4381SOL    HW214983   0.010   0.733   7.320
 4382SOL     OW14984  12.928   3.893   6.733
 4382SOL    HW114985  12.871   3.824   6.764
 4382SOL    HW214986  13.016   3.855   6.735
 4383SOL     OW14987   2.141   0.194   4.895
 4383SOL    HW114988   2.092   0.276   4.887
 4383SOL    HW214989   2.097   0.147   4.966
 4384SOL     OW14990  10.429   1.569  11.818
 4384SOL    HW114991  10.506   1.587  11.764
 4384SOL    HW214992  10.361   1.626  11.783
 4385SOL     OW14993   4.904  11.532   8.009
 4385SOL    HW114994   4.899  11.440   8.035
 4385SOL    HW214995   4.993  11.542   7.975
 4386SOL     OW14996   2.509   3.489  10.140
 4386SOL    HW114997   2.466   3.520  10.060
 4386SOL    HW214998   2.437   3.455  10.194
 4387SOL     OW14999   5.970   6.199   4.425
 4387SOL    HW115000   6.048   6.213   4.479
 4387SOL    HW215001   5.898   6.197   4.488
 4388SOL     OW15002   3.551   7.512  13.382
 4388SOL    HW115003   3.506   7.541  13.302
 4388SOL    HW215004   3.555   7.590  13.437
 4389SOL     OW15005   4.120  12.002   8.643
 4389SOL    HW115006   4.205  11.960   8.655
 4389SOL    HW215007   4.076  11.950   8.575
 4390SOL     OW15008   2.167   1.505   2.190
 4390SOL    HW115009   2.081   1.476   2.159
 4390SOL    HW215010   2.173   1.596   2.159
 4391SOL     OW15011  10.615  13.892   6.706
 4391SOL    HW115012  10.634  13.983   6.729
 4391SOL    HW215013  10.656  13.880   6.620
 4392SOL     OW15014  12.955  13.180   0.533
 4392SOL    HW115015  12.883  13.197   0.594
 4392SOL    HW215016  12.919  13.117   0.470
 4393SOL     OW15017   1.971   5.692   3.281
 4393SOL    HW115018   2.052   5.648   3.256
 4393SOL    HW215019   1.998   5.765   3.336
 4394SOL     OW15020  12.754  12.078   9.490
 4394SOL    HW115021  12.712  12.069   9.405
 4394SOL    HW215022  12.691  12.042   9.552
 4395SOL     OW15023  14.112  13.456  13.053
 4395SOL    HW115024  14.131  13.528  13.114
 4395SOL    HW215025  14.197  13.415  13.037
 4396SOL     OW15026  13.073   0.416  12.625
 4396SOL    HW115027  13.063   0.320  12.625
 4396SOL    HW215028  12.998   0.447  12.574
 4397SOL     OW15029  12.441   5.916   5.073
 4397SOL    HW115030  12.398   5.971   5.138
 4397SOL    HW215031  12.420   5.827   5.099
 4398SOL     OW15032   1.380  14.061  14.428
 4398SOL    HW115033   1.358  14.073  14.335
 4398SOL    HW215034   1.447  13.994  14.429
 4399SOL     OW15035   2.191   6.497  10.611
 4399SOL    HW115036   2.185   6.406  10.585
 4399SOL    HW215037   2.281   6.522  10.590
 4400SOL     OW15038   1.452   5.257   3.985
 4400SOL    HW115039   1.487   5.346   3.980
 4400SOL    HW215040   1.451   5.226   3.895
 4401SOL     OW15041   3.570   1.304   7.882
 4401SOL    HW115042   3.563   1.296   7.977
 4401SOL    HW215043   3.594   1.395   7.867
 4402SOL     OW15044   1.317  11.861   5.298
 4402SOL    HW115045   1.228  11.849   5.331
 4402SOL    HW215046   1.372  11.859   5.377
 4403SOL     OW15047   5.606   9.210  14.293
 4403SOL    HW115048   5.678   9.149  14.311
 4403SOL    HW215049   5.526   9.159  14.312
 4404SOL     OW15050  12.784   3.002  10.914
 4404SOL    HW115051  12.778   3.095  10.893
 4404SOL    HW215052  12.693   2.971  10.912
 4405SOL     OW15053   8.757   8.103   7.955
 4405SOL    HW115054   8.742   8.162   7.881
 4405SOL    HW215055   8.699   8.136   8.024
 4406SOL     OW15056   7.984   5.569   5.009
 4406SOL    HW115057   8.035   5.648   4.993
 4406SOL    HW215058   7.918   5.595   5.073
 4407SOL     OW15059  12.406  13.596  10.141
 4407SOL    HW115060  12.334  13.647  10.177
 4407SOL    HW215061  12.448  13.557  10.218
 4408SOL     OW15062   0.538   2.571   1.423
 4408SOL    HW115063   0.473   2.514   1.383
 4408SOL    HW215064   0.560   2.634   1.355
 4409SOL     OW15065   6.120   2.284   8.192
 4409SOL    HW115066   6.095   2.281   8.100
 4409SOL    HW215067   6.211   2.313   8.191
 4410SOL     OW15068   0.381   8.852  14.573
 4410SOL    HW115069   0.473   8.870  14.594
 4410SOL    HW215070   0.364   8.904  14.494
 4411SOL     OW15071   2.358  10.911   2.253
 4411SOL    HW115072   2.415  10.862   2.312
 4411SOL    HW215073   2.349  10.997   2.295
 4412SOL     OW15074   7.006   1.793   9.362
 4412SOL    HW115075   6.980   1.747   9.283
 4412SOL    HW215076   7.078   1.740   9.398
 4413SOL     OW15077   4.473  13.459  10.692
 4413SOL    HW115078   4.528  13.537  10.680
 4413SOL    HW215079   4.425  13.476  10.772
 4414SOL     OW15080   0.962   7.443  13.010
 4414SOL    HW115081   0.870   7.445  13.036
 4414SOL    HW215082   0.999   7.368  13.056
 4415SOL     OW15083  14.134   0.875   9.321
 4415SOL    HW115084  14.078   0.950   9.339
 4415SOL    HW215085  14.221   0.912   9.305
 4416SOL     OW15086   2.409   1.534   8.339
 4416SOL    HW115087   2.382   1.475   8.268
 4416SOL    HW215088   2.354   1.508   8.413
 4417SOL     OW15089   7.524  11.969   1.104
 4417SOL    HW115090   7.598  11.943   1.159
 4417SOL    HW215091   7.535  12.063   1.090
 4418SOL     OW15092   0.137  13.573   0.169
 4418SOL    HW115093   0.056  13.563   0.219
 4418SOL    HW215094   0.200  13.610   0.232
 4419SOL     OW15095  12.680   2.076   4.557
 4419SOL    HW115096  12.752   2.033   4.510
 4419SOL    HW215097  12.618   2.005   4.576
 4420SOL     OW15098   5.494  10.479   3.256
 4420SOL    HW115099   5.552  10.536   3.306
 4420SOL    HW215100   5.414  10.529   3.247
 4421SOL     OW15101   4.102   2.816   2.324
 4421SOL    HW115102   4.058   2.811   2.408
 4421SOL    HW215103   4.063   2.892   2.281
 4422SOL     OW15104   2.379   6.721   5.621
 4422SOL    HW115105   2.452   6.663   5.642
 4422SOL    HW215106   2.417   6.789   5.566
 4423SOL     OW15107   0.276   1.241  10.239
 4423SOL    HW115108   0.281   1.336  10.246
 4423SOL    HW215109   0.364   1.211  10.260
 4424SOL     OW15110   3.123   6.540   8.750
 4424SOL    HW115111   3.160   6.628   8.740
 4424SOL    HW215112   3.199   6.482   8.747
 4425SOL     OW15113   4.384  10.071  10.343
 4425SOL    HW115114   4.426  10.131  10.282
 4425SOL    HW215115   4.322  10.125  10.392
 4426SOL     OW15116   6.102   5.984  10.219
 4426SOL    HW115117   6.183   6.028  10.190
 4426SOL    HW215118   6.111   5.894  10.187
 4427SOL     OW15119   5.931   6.585  11.574
 4427SOL    HW115120   5.915   6.679  11.585
 4427SOL    HW215121   5.864   6.557  11.512
 4428SOL     OW15122   4.722   4.701   9.381
 4428SOL    HW115123   4.804   4.666   9.417
 4428SOL    HW215124   4.736   4.795   9.377
 4429SOL     OW15125   7.193   4.981   5.457
 4429SOL    HW115126   7.181   5.064   5.503
 4429SOL    HW215127   7.269   4.941   5.500
 4430SOL     OW15128  12.968   6.237   6.541
 4430SOL    HW115129  12.996   6.179   6.612
 4430SOL    HW215130  12.994   6.324   6.571
 4431SOL     OW15131   8.888  11.963  13.794
 4431SOL    HW115132   8.922  11.997  13.876
 4431SOL    HW215133   8.845  12.038  13.753
 4432SOL     OW15134  10.225   0.887   5.885
 4432SOL    HW115135  10.175   0.969   5.882
 4432SOL    HW215136  10.286   0.900   5.958
 4433SOL     OW15137  11.229  10.113  12.123
 4433SOL    HW115138  11.166  10.166  12.172
 4433SOL    HW215139  11.177  10.073  12.053
 4434SOL     OW15140   3.014   3.502  14.241
 4434SOL    HW115141   3.054   3.434  14.294
 4434SOL    HW215142   3.063   3.500  14.159
 4435SOL     OW15143   6.783   2.007   9.787
 4435SOL    HW115144   6.740   2.055   9.716
 4435SOL    HW215145   6.737   1.923   9.791
 4436SOL     OW15146  13.992  10.580   4.383
 4436SOL    HW115147  13.922  10.611   4.440
 4436SOL    HW215148  13.983  10.633   4.304
 4437SOL     OW15149  13.974  11.886   4.454
 4437SOL    HW115150  14.063  11.889   4.418
 4437SOL    HW215151  13.978  11.820   4.523
 4438SOL     OW15152  13.740   0.183   8.878
 4438SOL    HW115153  13.658   0.211   8.919
 4438SOL    HW215154  13.777   0.120   8.940
 4439SOL     OW15155   7.807   0.238  13.284
 4439SOL    HW115156   7.767   0.154  13.261
 4439SOL    HW215157   7.859   0.262  13.208
 4440SOL     OW15158   2.276   2.260   3.260
 4440SOL    HW115159   2.302   2.351   3.276
 4440SOL    HW215160   2.329   2.233   3.185
 4441SOL     OW15161   6.207   2.261   9.906
 4441SOL    HW115162   6.256   2.200   9.961
 4441SOL    HW215163   6.136   2.293   9.961
 4442SOL     OW15164   8.434   7.128   1.292
 4442SOL    HW115165   8.520   7.122   1.334
 4442SOL    HW215166   8.432   7.216   1.254
 4443SOL     OW15167  10.093   2.229  14.040
 4443SOL    HW115168  10.138   2.305  14.002
 4443SOL    HW215169  10.159   2.160  14.042
 4444SOL     OW15170  13.472   0.180   9.022
 4444SOL    HW115171  13.426   0.142   9.098
 4444SOL    HW215172  13.409   0.171   8.950
 4445SOL     OW15173  11.241   5.967   6.927
 4445SOL    HW115174  11.267   6.058   6.910
 4445SOL    HW215175  11.165   5.974   6.985
 4446SOL     OW15176  11.661   5.526   7.841
 4446SOL    HW115177  11.742   5.535   7.792
 4446SOL    HW215178  11.607   5.600   7.813
 4447SOL     OW15179   5.328  10.414   0.053
 4447SOL    HW115180   5.259  10.370   0.003
 4447SOL    HW215181   5.402  10.420  14.873
 4448SOL     OW15182   5.707   5.453   8.654
 4448SOL    HW115183   5.799   5.452   8.629
 4448SOL    HW215184   5.660   5.432   8.573
 4449SOL     OW15185   1.699  10.491  13.317
 4449SOL    HW115186   1.641  10.415  13.323
 4449SOL    HW215187   1.783  10.455  13.291
 4450SOL     OW15188   3.102  13.559  12.426
 4450SOL    HW115189   3.047  13.483  12.446
 4450SOL    HW215190   3.078  13.583  12.336
 4451SOL     OW15191  11.817   9.081  12.671
 4451SOL    HW115192  11.883   9.052  12.734
 4451SOL    HW215193  11.862   9.147  12.618
 4452SOL     OW15194   4.077   6.226  10.001
 4452SOL    HW115195   4.156   6.220  10.055
 4452SOL    HW215196   4.042   6.137  10.002
 4453SOL     OW15197  12.182  10.577   1.423
 4453SOL    HW115198  12.140  10.526   1.492
 4453SOL    HW215199  12.251  10.627   1.468
 4454SOL     OW15200   3.831  11.428   5.744
 4454SOL    HW115201   3.896  11.454   5.809
 4454SOL    HW215202   3.759  11.490   5.756
 4455SOL     OW15203   4.662   9.160   6.432
 4455SOL    HW115204   4.626   9.248   6.439
 4455SOL    HW215205   4.725   9.154   6.504
 4456SOL     OW15206  11.272  10.154   7.776
 4456SOL    HW115207  11.214  10.207   7.830
 4456SOL    HW215208  11.261  10.065   7.809
 4457SOL     OW15209  14.771   0.369   0.385
 4457SOL    HW115210  14.752   0.392   0.294
 4457SOL    HW215211  14.717   0.292   0.402
 4458SOL     OW15212   0.882   6.501   6.498
 4458SOL    HW115213   0.816   6.432   6.490
 4458SOL    HW215214   0.920   6.508   6.410
 4459SOL     OW15215   1.903   8.383   0.014
 4459SOL    HW115216   1.974   8.343  14.844
 4459SOL    HW215217   1.924   8.476   0.017
 4460SOL     OW15218   5.920  10.858  14.684
 4460SOL    HW115219   5.975  10.805  14.626
 4460SOL    HW215220   5.964  10.856  14.768
 4461SOL     OW15221   3.421   9.086   4.929
 4461SOL    HW115222   3.436   9.072   4.836
 4461SOL    HW215223   3.326   9.090   4.938
 4462SOL     OW15224   0.468   9.176   4.374
 4462SOL    HW115225   0.480   9.169   4.469
 4462SOL    HW215226   0.552   9.149   4.337
 4463SOL     OW15227   6.457   5.130   8.105
 4463SOL    HW115228   6.474   5.217   8.141
 4463SOL    HW215229   6.445   5.145   8.011
 4464SOL     OW15230   4.992   2.909   2.984
 4464SOL    HW115231   4.936   2.847   3.030
 4464SOL    HW215232   5.059   2.855   2.943
 4465SOL     OW15233   0.861  11.533   1.226
 4465SOL    HW115234   0.778  11.515   1.272
 4465SOL    HW215235   0.897  11.446   1.208
 4466SOL     OW15236   5.491  12.480   4.970
 4466SOL    HW115237   5.458  12.398   4.933
 4466SOL    HW215238   5.516  12.532   4.893
 4467SOL     OW15239   6.244   4.776   7.572
 4467SOL    HW115240   6.241   4.712   7.643
 4467SOL    HW215241   6.336   4.778   7.545
 4468SOL     OW15242   5.910  10.635  14.399
 4468SOL    HW115243   5.954  10.679  14.326
 4468SOL    HW215244   5.980  10.611  14.459
 4469SOL     OW15245   4.752   3.142   4.266
 4469SOL    HW115246   4.675   3.126   4.321
 4469SOL    HW215247   4.721   3.202   4.198
 4470SOL     OW15248   6.532   9.754   6.233
 4470SOL    HW115249   6.586   9.696   6.286
 4470SOL    HW215250   6.442   9.727   6.251
 4471SOL     OW15251   1.867   6.166   7.821
 4471SOL    HW115252   1.867   6.118   7.904
 4471SOL    HW215253   1.913   6.248   7.841
 4472SOL     OW15254   9.472   3.242   7.260
 4472SOL    HW115255   9.396   3.295   7.286
 4472SOL    HW215256   9.534   3.251   7.332
 4473SOL     OW15257   6.727   1.256  14.697
 4473SOL    HW115258   6.756   1.165  14.709
 4473SOL    HW215259   6.732   1.294  14.785
 4474SOL     OW15260   8.270  14.833   0.998
 4474SOL    HW115261   8.230   0.002   1.070
 4474SOL    HW215262   8.203  14.832   0.930
 4475SOL     OW15263   1.664   3.909   6.741
 4475SOL    HW115264   1.628   3.944   6.659
 4475SOL    HW215265   1.642   3.975   6.807
 4476SOL     OW15266  11.832   7.880   6.480
 4476SOL    HW115267  11.861   7.967   6.507
 4476SOL    HW215268  11.825   7.830   6.561
 4477SOL     OW15269  13.607   8.104   1.445
 4477SOL    HW115270  13.669   8.169   1.480
 4477SOL    HW215271  13.529   8.154   1.423
 4478SOL     OW15272   0.707   6.750   6.251
 4478SOL    HW115273   0.615   6.773   6.237
 4478SOL    HW215274   0.714   6.660   6.220
 4479SOL     OW15275  12.879   2.567  14.328
 4479SOL    HW115276  12.900   2.518  14.249
 4479SOL    HW215277  12.923   2.651  14.317
 4480SOL     OW15278   5.396  10.989  13.556
 4480SOL    HW115279   5.380  10.898  13.582
 4480SOL    HW215280   5.416  11.034  13.638
 4481SOL     OW15281  11.668   8.426  10.640
 4481SOL    HW115282  11.648   8.517  10.664
 4481SOL    HW215283  11.634   8.417  10.551
 4482SOL     OW15284  11.312   9.646   5.157
 4482SOL    HW115285  11.244   9.601   5.207
 4482SOL    HW215286  11.279   9.735   5.147
 4483SOL     OW15287   8.735  13.188   5.707
 4483SOL    HW115288   8.828  13.203   5.721
 4483SOL    HW215289   8.727  13.175   5.612
 4484SOL     OW15290   4.146   1.505  12.274
 4484SOL    HW115291   4.077   1.496  12.209
 4484SOL    HW215292   4.218   1.452  12.240
 4485SOL     OW15293   6.553   8.101   2.496
 4485SOL    HW115294   6.542   8.026   2.554
 4485SOL    HW215295   6.635   8.141   2.524
 4486SOL     OW15296   7.460   1.125  12.217
 4486SOL    HW115297   7.374   1.133  12.176
 4486SOL    HW215298   7.475   1.209  12.259
 4487SOL     OW15299  11.435  12.676  12.284
 4487SOL    HW115300  11.425  12.689  12.379
 4487SOL    HW215301  11.505  12.735  12.259
 4488SOL     OW15302   5.068   0.637  13.248
 4488SOL    HW115303   5.006   0.632  13.320
 4488SOL    HW215304   5.141   0.689  13.283
 4489SOL     OW15305   5.074   2.435   2.762
 4489SOL    HW115306   4.986   2.472   2.762
 4489SOL    HW215307   5.084   2.396   2.675
 4490SOL     OW15308   0.706  10.119   5.444
 4490SOL    HW115309   0.686  10.109   5.351
 4490SOL    HW215310   0.802  10.126   5.448
 4491SOL     OW15311   0.936   3.841   3.956
 4491SOL    HW115312   0.943   3.747   3.935
 4491SOL    HW215313   1.012   3.859   4.010
 4492SOL     OW15314  14.018   8.791   9.932
 4492SOL    HW115315  14.070   8.730   9.879
 4492SOL    HW215316  14.078   8.822   9.999
 4493SOL     OW15317   7.814   7.879   1.110
 4493SOL    HW115318   7.856   7.799   1.142
 4493SOL    HW215319   7.857   7.896   1.026
 4494SOL     OW15320   0.685  12.051   9.951
 4494SOL    HW115321   0.720  11.978  10.002
 4494SOL    HW215322   0.682  12.124  10.012
 4495SOL     OW15323  12.299   3.783  13.231
 4495SOL    HW115324  12.225   3.824  13.275
 4495SOL    HW215325  12.371   3.790  13.294
 4496SOL     OW15326   9.099  11.243   0.604
 4496SOL    HW115327   9.107  11.338   0.616
 4496SOL    HW215328   9.010  11.231   0.571
 4497SOL     OW15329  11.836   9.613  13.802
 4497SOL    HW115330  11.745   9.587  13.818
 4497SOL    HW215331  11.833   9.708  13.795
 4498SOL     OW15332  12.505  12.607   5.684
 4498SOL    HW115333  12.460  12.522   5.689
 4498SOL    HW215334  12.438  12.668   5.652
 4499SOL     OW15335   6.693  11.251  10.038
 4499SOL    HW115336   6.637  11.182  10.004
 4499SOL    HW215337   6.735  11.213  10.114
 4500SOL     OW15338   0.488   9.265  14.684
 4500SOL    HW115339   0.492   9.265  14.779
 4500SOL    HW215340   0.478   9.357  14.659
 4501SOL     OW15341   8.441  12.373   7.097
 4501SOL    HW115342   8.465  12.449   7.044
 4501SOL    HW215343   8.377  12.326   7.045
 4502SOL     OW15344  14.067   2.484   3.090
 4502SOL    HW115345  14.060   2.465   2.996
 4502SOL    HW215346  14.041   2.576   3.098
 4503SOL     OW15347   2.786  13.618   0.544
 4503SOL    HW115348   2.758  13.703   0.576
 4503SOL    HW215349   2.870  13.635   0.501
 4504SOL     OW15350  10.569   6.753   1.980
 4504SOL    HW115351  10.577   6.751   2.076
 4504SOL    HW215352  10.625   6.825   1.953
 4505SOL     OW15353  11.385   2.667   6.099
 4505SOL    HW115354  11.330   2.602   6.142
 4505SOL    HW215355  11.369   2.748   6.147
 4506SOL     OW15356  11.762   9.194   7.635
 4506SOL    HW115357  11.694   9.239   7.584
 4506SOL    HW215358  11.713   9.135   7.693
 4507SOL     OW15359  12.278  11.903  11.333
 4507SOL    HW115360  12.273  11.809  11.352
 4507SOL    HW215361  12.359  11.912  11.282
 4508SOL     OW15362   7.798   5.727   3.387
 4508SOL    HW115363   7.862   5.784   3.429
 4508SOL    HW215364   7.811   5.641   3.427
 4509SOL     OW15365   7.213   0.723   1.261
 4509SOL    HW115366   7.161   0.697   1.337
 4509SOL    HW215367   7.274   0.651   1.247
 4510SOL     OW15368   2.435  13.231   4.957
 4510SOL    HW115369   2.407  13.212   5.046
 4510SOL    HW215370   2.363  13.199   4.902
 4511SOL     OW15371   9.916   8.060   0.897
 4511SOL    HW115372   9.854   8.111   0.845
 4511SOL    HW215373   9.938   8.116   0.971
 4512SOL     OW15374   4.394  10.730  13.458
 4512SOL    HW115375   4.463  10.785  13.496
 4512SOL    HW215376   4.412  10.732  13.364
 4513SOL     OW15377   1.639  10.678   4.922
 4513SOL    HW115378   1.658  10.610   4.858
 4513SOL    HW215379   1.703  10.747   4.902
 4514SOL     OW15380   1.415   4.820  14.299
 4514SOL    HW115381   1.505   4.850  14.288
 4514SOL    HW215382   1.376   4.826  14.212
 4515SOL     OW15383  14.640   3.840   3.540
 4515SOL    HW115384  14.734   3.850   3.528
 4515SOL    HW215385  14.619   3.893   3.617
 4516SOL     OW15386   3.077  11.622  12.995
 4516SOL    HW115387   3.134  11.555  12.958
 4516SOL    HW215388   3.096  11.622  13.088
 4517SOL     OW15389  10.830  13.118   4.278
 4517SOL    HW115390  10.869  13.192   4.231
 4517SOL    HW215391  10.870  13.040   4.238
 4518SOL     OW15392  13.918   3.115   7.426
 4518SOL    HW115393  13.940   3.205   7.401
 4518SOL    HW215394  13.823   3.111   7.421
 4519SOL     OW15395  12.557   3.601   7.473
 4519SOL    HW115396  12.635   3.550   7.492
 4519SOL    HW215397  12.491   3.567   7.533
 4520SOL     OW15398   1.659   6.558  13.532
 4520SOL    HW115399   1.672   6.647  13.501
 4520SOL    HW215400   1.744   6.516  13.520
 4521SOL     OW15401   1.800   3.309  10.043
 4521SOL    HW115402   1.883   3.299   9.995
 4521SOL    HW215403   1.799   3.401  10.069
 4522SOL     OW15404   5.345  14.120  10.456
 4522SOL    HW115405   5.285  14.116  10.381
 4522SOL    HW215406   5.312  14.054  10.516
 4523SOL     OW15407  14.650   8.976   3.820
 4523SOL    HW115408  14.665   8.949   3.910
 4523SOL    HW215409  14.635   8.894   3.772
 4524SOL     OW15410  13.969   9.905   0.548
 4524SOL    HW115411  14.032   9.976   0.538
 4524SOL    HW215412  13.961   9.868   0.460
 4525SOL     OW15413   7.444   6.996   7.861
 4525SOL    HW115414   7.464   7.039   7.944
 4525SOL    HW215415   7.456   7.064   7.795
 4526SOL     OW15416   2.616   1.247   6.948
 4526SOL    HW115417   2.575   1.311   6.890
 4526SOL    HW215418   2.703   1.232   6.910
 4527SOL     OW15419   9.010   8.489   2.286
 4527SOL    HW115420   9.096   8.469   2.322
 4527SOL    HW215421   9.010   8.584   2.275
 4528SOL     OW15422  10.758   0.881   6.969
 4528SOL    HW115423  10.736   0.888   6.876
 4528SOL    HW215424  10.718   0.959   7.008
 4529SOL     OW15425   4.288   6.392   6.513
 4529SOL    HW115426   4.366   6.443   6.535
 4529SOL    HW215427   4.218   6.457   6.508
 4530SOL     OW15428  13.314  13.054  12.509
 4530SOL    HW115429  13.252  13.016  12.571
 4530SOL    HW215430  13.341  13.137  12.549
 4531SOL     OW15431  14.765   3.319   9.065
 4531SOL    HW115432  14.802   3.290   9.149
 4531SOL    HW215433  14.837   3.364   9.021
 4532SOL     OW15434   7.145   8.165  10.746
 4532SOL    HW115435   7.205   8.218  10.799
 4532SOL    HW215436   7.199   8.093  10.713
 4533SOL     OW15437   2.951   9.501   1.213
 4533SOL    HW115438   2.917   9.480   1.299
 4533SOL    HW215439   2.916   9.588   1.193
 4534SOL     OW15440  14.746  14.487   3.718
 4534SOL    HW115441  14.671  14.545   3.705
 4534SOL    HW215442  14.736  14.454   3.807
 4535SOL     OW15443   9.515   9.911   9.766
 4535SOL    HW115444   9.607   9.906   9.741
 4535SOL    HW215445   9.515   9.892   9.860
 4536SOL     OW15446   3.251  11.653   4.978
 4536SOL    HW115447   3.243  11.560   4.961
 4536SOL    HW215448   3.271  11.692   4.893
 4537SOL     OW15449  13.899  13.765   4.268
 4537SOL    HW115450  13.873  13.687   4.317
 4537SOL    HW215451  13.835  13.770   4.197
 4538SOL     OW15452  12.633   0.733   9.951
 4538SOL    HW115453  12.714   0.781   9.972
 4538SOL    HW215454  12.634   0.726   9.855
 4539SOL     OW15455  12.074  14.792   4.692
 4539SOL    HW115456  12.014  14.862   4.665
 4539SOL    HW215457  12.032  14.711   4.663
 4540SOL     OW15458   2.864   3.381   9.675
 4540SOL    HW115459   2.851   3.464   9.721
 4540SOL    HW215460   2.779   3.363   9.633
 4541SOL     OW15461  10.475   7.202   8.670
 4541SOL    HW115462  10.437   7.290   8.671
 4541SOL    HW215463  10.402   7.145   8.694
 4542SOL     OW15464  12.300   6.232  11.126
 4542SOL    HW115465  12.221   6.246  11.178
 4542SOL    HW215466  12.312   6.314  11.078
 4543SOL     OW15467  14.453   6.676   6.355
 4543SOL    HW115468  14.435   6.659   6.447
 4543SOL    HW215469  14.366   6.675   6.314
 4544SOL     OW15470   4.810   7.434   4.082
 4544SOL    HW115471   4.748   7.362   4.072
 4544SOL    HW215472   4.867   7.408   4.154
 4545SOL     OW15473  10.894   2.776   8.712
 4545SOL    HW115474  10.881   2.797   8.619
 4545SOL    HW215475  10.975   2.725   8.714
 4546SOL     OW15476  10.659   9.342  13.267
 4546SOL    HW115477  10.575   9.321  13.225
 4546SOL    HW215478  10.642   9.423  13.315
 4547SOL     OW15479   5.554   0.691   2.003
 4547SOL    HW115480   5.605   0.689   1.922
 4547SOL    HW215481   5.570   0.605   2.043
 4548SOL     OW15482   1.246   9.134   2.608
 4548SOL    HW115483   1.320   9.116   2.666
 4548SOL    HW215484   1.229   9.050   2.564
 4549SOL     OW15485  12.477   4.335   7.057
 4549SOL    HW115486  12.469   4.391   7.135
 4549SOL    HW215487  12.429   4.256   7.080
 4550SOL     OW15488   3.579  12.735   3.479
 4550SOL    HW115489   3.585  12.831   3.483
 4550SOL    HW215490   3.494  12.718   3.439
 4551SOL     OW15491  12.647   6.227   2.386
 4551SOL    HW115492  12.738   6.246   2.365
 4551SOL    HW215493  12.651   6.157   2.451
 4552SOL     OW15494   8.301  14.780  10.061
 4552SOL    HW115495   8.225  14.724  10.075
 4552SOL    HW215496   8.292  14.812   9.971
 4553SOL     OW15497  12.726   1.715  12.871
 4553SOL    HW115498  12.705   1.797  12.828
 4553SOL    HW215499  12.689   1.648  12.813
 4554SOL     OW15500  11.286  11.397   6.207
 4554SOL    HW115501  11.311  11.483   6.171
 4554SOL    HW215502  11.320  11.398   6.296
 4555SOL     OW15503  11.794   5.441  10.769
 4555SOL    HW115504  11.794   5.349  10.794
 4555SOL    HW215505  11.757   5.487  10.844
 4556SOL     OW15506  12.963   4.319  11.855
 4556SOL    HW115507  12.946   4.225  11.852
 4556SOL    HW215508  12.882   4.357  11.889
 4557SOL     OW15509   9.851   8.418   9.677
 4557SOL    HW115510   9.876   8.366   9.601
 4557SOL    HW215511   9.932   8.431   9.726
 4558SOL     OW15512   6.075  11.762   3.295
 4558SOL    HW115513   6.168  11.776   3.317
 4558SOL    HW215514   6.068  11.667   3.283
 4559SOL     OW15515   9.942   1.953   1.754
 4559SOL    HW115516  10.031   1.987   1.753
 4559SOL    HW215517   9.933   1.907   1.670
 4560SOL     OW15518  14.260   2.133   2.927
 4560SOL    HW115519  14.227   2.055   2.882
 4560SOL    HW215520  14.354   2.120   2.931
 4561SOL     OW15521  14.688   8.100   1.504
 4561SOL    HW115522  14.703   8.082   1.597
 4561SOL    HW215523  14.593   8.101   1.495
 4562SOL     OW15524   5.604  12.321   7.986
 4562SOL    HW115525   5.637  12.261   8.053
 4562SOL    HW215526   5.574  12.265   7.915
 4563SOL     OW15527   3.876   2.170  12.732
 4563SOL    HW115528   3.929   2.092  12.743
 4563SOL    HW215529   3.786   2.140  12.744
 4564SOL     OW15530   0.977   0.555  11.134
 4564SOL    HW115531   0.987   0.640  11.176
 4564SOL    HW215532   1.031   0.560  11.055
 4565SOL     OW15533   6.675  13.989  14.370
 4565SOL    HW115534   6.708  13.900  14.363
 4565SOL    HW215535   6.752  14.042  14.388
 4566SOL     OW15536  13.597   6.729   6.973
 4566SOL    HW115537  13.583   6.823   6.986
 4566SOL    HW215538  13.671   6.724   6.912
 4567SOL     OW15539  13.607  14.452   5.312
 4567SOL    HW115540  13.526  14.444   5.261
 4567SOL    HW215541  13.606  14.376   5.370
 4568SOL     OW15542   7.082   0.449   6.018
 4568SOL    HW115543   7.024   0.465   6.092
 4568SOL    HW215544   7.035   0.486   5.943
 4569SOL     OW15545  11.366   9.291   9.430
 4569SOL    HW115546  11.455   9.275   9.462
 4569SOL    HW215547  11.327   9.204   9.423
 4570SOL     OW15548   0.328   8.912   8.317
 4570SOL    HW115549   0.234   8.919   8.307
 4570SOL    HW215550   0.360   8.888   8.230
 4571SOL     OW15551   2.998  11.836   4.939
 4571SOL    HW115552   3.093  11.821   4.941
 4571SOL    HW215553   2.987  11.923   4.979
 4572SOL     OW15554  13.823   4.551   0.836
 4572SOL    HW115555  13.837   4.489   0.764
 4572SOL    HW215556  13.737   4.529   0.871
 4573SOL     OW15557  12.263  14.118  11.816
 4573SOL    HW115558  12.188  14.176  11.806
 4573SOL    HW215559  12.322  14.166  11.874
 4574SOL     OW15560  14.470   8.518   3.713
 4574SOL    HW115561  14.519   8.482   3.787
 4574SOL    HW215562  14.378   8.516   3.742
 4575SOL     OW15563  13.817   7.155   5.569
 4575SOL    HW115564  13.735   7.180   5.611
 4575SOL    HW215565  13.797   7.072   5.526
 4576SOL     OW15566  11.506   2.912   8.690
 4576SOL    HW115567  11.464   2.832   8.659
 4576SOL    HW215568  11.592   2.911   8.649
 4577SOL     OW15569  13.041   6.922   7.259
 4577SOL    HW115570  13.036   7.015   7.239
 4577SOL    HW215571  12.985   6.880   7.194
 4578SOL     OW15572   9.136  10.731   1.299
 4578SOL    HW115573   9.098  10.686   1.374
 4578SOL    HW215574   9.073  10.801   1.279
 4579SOL     OW15575  14.839   3.124  13.243
 4579SOL    HW115576  14.879   3.202  13.283
 4579SOL    HW215577  14.866   3.129  13.151
 4580SOL     OW15578   7.072   6.682  14.863
 4580SOL    HW115579   7.045   6.754   0.040
 4580SOL    HW215580   6.991   6.654  14.820
 4581SOL     OW15581   3.487  11.517   3.943
 4581SOL    HW115582   3.572  11.561   3.943
 4581SOL    HW215583   3.462  11.514   4.036
 4582SOL     OW15584   6.149   7.196  13.134
 4582SOL    HW115585   6.171   7.288  13.123
 4582SOL    HW215586   6.164   7.179  13.228
 4583SOL     OW15587   2.158   4.687  11.979
 4583SOL    HW115588   2.251   4.674  11.961
 4583SOL    HW215589   2.116   4.680  11.893
 4584SOL     OW15590  12.844   6.391  12.076
 4584SOL    HW115591  12.755   6.424  12.086
 4584SOL    HW215592  12.872   6.423  11.991
 4585SOL     OW15593   4.967   4.301  11.638
 4585SOL    HW115594   5.041   4.241  11.627
 4585SOL    HW215595   4.905   4.253  11.693
 4586SOL     OW15596   9.495   3.956   8.549
 4586SOL    HW115597   9.566   4.017   8.532
 4586SOL    HW215598   9.523   3.908   8.627
 4587SOL     OW15599  14.767   2.988   9.636
 4587SOL    HW115600  14.841   3.037   9.599
 4587SOL    HW215601  14.743   3.036   9.715
 4588SOL     OW15602  13.399  10.506   8.564
 4588SOL    HW115603  13.360  10.446   8.501
 4588SOL    HW215604  13.341  10.582   8.565
 4589SOL     OW15605  10.149   1.671   5.174
 4589SOL    HW115606  10.232   1.677   5.223
 4589SOL    HW215607  10.127   1.762   5.154
 4590SOL     OW15608   4.688  12.761   8.017
 4590SOL    HW115609   4.678  12.669   8.039
 4590SOL    HW215610   4.689  12.806   8.102
 4591SOL     OW15611   9.077   2.906   2.567
 4591SOL    HW115612   8.986   2.895   2.539
 4591SOL    HW215613   9.089   2.843   2.638
 4592SOL     OW15614   4.288   8.368  13.611
 4592SOL    HW115615   4.200   8.406  13.609
 4592SOL    HW215616   4.274   8.278  13.643
 4593SOL     OW15617   1.481   7.389   7.546
 4593SOL    HW115618   1.450   7.300   7.525
 4593SOL    HW215619   1.548   7.407   7.480
 4594SOL     OW15620   0.998   0.642  14.165
 4594SOL    HW115621   1.001   0.554  14.200
 4594SOL    HW215622   0.997   0.630  14.070
 4595SOL     OW15623   6.976  14.074  11.597
 4595SOL    HW115624   6.934  14.092  11.680
 4595SOL    HW215625   7.069  14.066  11.618
 4596SOL     OW15626   9.076  13.196   4.738
 4596SOL    HW115627   8.983  13.207   4.758
 4596SOL    HW215628   9.113  13.283   4.753
 4597SOL     OW15629   5.375  12.608   6.018
 4597SOL    HW115630   5.434  12.632   6.090
 4597SOL    HW215631   5.430  12.558   5.958
 4598SOL     OW15632  10.047   3.669  12.839
 4598SOL    HW115633  10.016   3.636  12.923
 4598SOL    HW215634  10.022   3.601  12.776
 4599SOL     OW15635  13.340   4.469   4.918
 4599SOL    HW115636  13.409   4.525   4.954
 4599SOL    HW215637  13.284   4.528   4.868
 4600SOL     OW15638  12.392  12.710   3.414
 4600SOL    HW115639  12.385  12.772   3.342
 4600SOL    HW215640  12.438  12.635   3.376
 4601SOL     OW15641  14.201  11.173  11.417
 4601SOL    HW115642  14.171  11.166  11.507
 4601SOL    HW215643  14.282  11.123  11.414
 4602SOL     OW15644   2.442   9.790   4.777
 4602SOL    HW115645   2.360   9.741   4.785
 4602SOL    HW215646   2.501   9.730   4.732
 4603SOL     OW15647   3.158  11.888  11.340
 4603SOL    HW115648   3.220  11.959  11.325
 4603SOL    HW215649   3.072  11.929  11.327
 4604SOL     OW15650  13.085   9.543   1.284
 4604SOL    HW115651  13.138   9.540   1.364
 4604SOL    HW215652  13.126   9.612   1.232
 4605SOL     OW15653   1.886   3.265   7.742
 4605SOL    HW115654   1.863   3.183   7.785
 4605SOL    HW215655   1.811   3.285   7.686
 4606SOL     OW15656   5.941   5.153   1.376
 4606SOL    HW115657   5.920   5.060   1.376
 4606SOL    HW215658   5.898   5.187   1.297
 4607SOL     OW15659   5.162   1.820   1.712
 4607SOL    HW115660   5.254   1.796   1.720
 4607SOL    HW215661   5.150   1.833   1.618
 4608SOL     OW15662   7.519   6.840  11.094
 4608SOL    HW115663   7.558   6.798  11.017
 4608SOL    HW215664   7.439   6.791  11.110
 4609SOL     OW15665   1.604   8.519  13.703
 4609SOL    HW115666   1.520   8.473  13.699
 4609SOL    HW215667   1.582   8.608  13.726
 4610SOL     OW15668  11.576  10.663  10.038
 4610SOL    HW115669  11.671  10.669  10.027
 4610SOL    HW215670  11.547  10.609   9.965
 4611SOL     OW15671   1.080   2.408   8.343
 4611SOL    HW115672   0.986   2.394   8.347
 4611SOL    HW215673   1.104   2.437   8.431
 4612SOL     OW15674   6.709   3.550  11.505
 4612SOL    HW115675   6.661   3.632  11.512
 4612SOL    HW215676   6.699   3.509  11.591
 4613SOL     OW15677   6.026  11.105   0.771
 4613SOL    HW115678   5.980  11.158   0.836
 4613SOL    HW215679   5.958  11.057   0.726
 4614SOL     OW15680  10.433   8.793   5.244
 4614SOL    HW115681  10.478   8.724   5.292
 4614SOL    HW215682  10.457   8.778   5.152
 4615SOL     OW15683  12.184  13.266   1.789
 4615SOL    HW115684  12.168  13.265   1.695
 4615SOL    HW215685  12.197  13.358   1.810
 4616SOL     OW15686  10.318   4.720   3.505
 4616SOL    HW115687  10.370   4.662   3.562
 4616SOL    HW215688  10.260   4.660   3.458
 4617SOL     OW15689   6.289   8.481  14.646
 4617SOL    HW115690   6.353   8.436  14.701
 4617SOL    HW215691   6.284   8.427  14.567
 4618SOL     OW15692  11.874   4.700  12.683
 4618SOL    HW115693  11.858   4.606  12.676
 4618SOL    HW215694  11.797   4.734  12.728
 4619SOL     OW15695  14.314   0.595   4.998
 4619SOL    HW115696  14.375   0.546   5.054
 4619SOL    HW215697  14.312   0.547   4.916
 4620SOL     OW15698   5.290  13.128   2.693
 4620SOL    HW115699   5.369  13.128   2.638
 4620SOL    HW215700   5.231  13.067   2.649
 4621SOL     OW15701   7.454   3.071  13.217
 4621SOL    HW115702   7.409   3.077  13.132
 4621SOL    HW215703   7.467   2.977  13.230
 4622SOL     OW15704   8.238   8.712  11.460
 4622SOL    HW115705   8.330   8.697  11.438
 4622SOL    HW215706   8.196   8.730  11.376
 4623SOL     OW15707  10.784  10.092  14.444
 4623SOL    HW115708  10.731  10.138  14.510
 4623SOL    HW215709  10.794  10.156  14.373
 4624SOL     OW15710  12.317   8.759   1.582
 4624SOL    HW115711  12.280   8.676   1.612
 4624SOL    HW215712  12.403   8.763   1.623
 4625SOL     OW15713  13.425   4.521  10.862
 4625SOL    HW115714  13.380   4.528  10.946
 4625SOL    HW215715  13.490   4.591  10.864
 4626SOL     OW15716  11.034   3.046   8.411
 4626SOL    HW115717  10.984   2.980   8.364
 4626SOL    HW215718  11.077   3.097   8.342
 4627SOL     OW15719   7.241  12.109   4.436
 4627SOL    HW115720   7.223  12.081   4.347
 4627SOL    HW215721   7.206  12.198   4.441
 4628SOL     OW15722   8.140   4.098  10.129
 4628SOL    HW115723   8.128   4.185  10.165
 4628SOL    HW215724   8.095   4.100  10.044
 4629SOL     OW15725   0.646   8.982  14.315
 4629SOL    HW115726   0.669   8.952  14.402
 4629SOL    HW215727   0.656   8.905  14.259
 4630SOL     OW15728  10.619   3.313   9.900
 4630SOL    HW115729  10.675   3.380   9.941
 4630SOL    HW215730  10.605   3.345   9.811
 4631SOL     OW15731  13.318  12.204   5.645
 4631SOL    HW115732  13.336  12.293   5.675
 4631SOL    HW215733  13.311  12.211   5.550
 4632SOL     OW15734  14.613   4.611  13.252
 4632SOL    HW115735  14.615   4.649  13.340
 4632SOL    HW215736  14.526   4.633  13.218
 4633SOL     OW15737   1.446  14.224  12.805
 4633SOL    HW115738   1.366  14.273  12.786
 4633SOL    HW215739   1.510  14.291  12.827
 4634SOL     OW15740  10.166  13.466   9.176
 4634SOL    HW115741  10.114  13.487   9.254
 4634SOL    HW215742  10.162  13.371   9.169
 4635SOL     OW15743  12.299  10.680   8.641
 4635SOL    HW115744  12.317  10.726   8.723
 4635SOL    HW215745  12.236  10.736   8.596
 4636SOL     OW15746   7.718   5.161   6.970
 4636SOL    HW115747   7.667   5.239   6.947
 4636SOL    HW215748   7.809   5.186   6.955
 4637SOL     OW15749  13.654   0.268   4.976
 4637SOL    HW115750  13.672   0.189   5.028
 4637SOL    HW215751  13.565   0.255   4.943
 4638SOL     OW15752   4.924   1.640   1.584
 4638SOL    HW115753   5.001   1.681   1.545
 4638SOL    HW215754   4.853   1.661   1.524
 4639SOL     OW15755   7.339  10.181  11.995
 4639SOL    HW115756   7.300  10.121  12.059
 4639SOL    HW215757   7.264  10.223  11.953
 4640SOL     OW15758  14.449   6.044   9.189
 4640SOL    HW115759  14.461   5.949   9.191
 4640SOL    HW215760  14.441   6.065   9.096
 4641SOL     OW15761   2.902   2.256   6.405
 4641SOL    HW115762   2.833   2.318   6.383
 4641SOL    HW215763   2.942   2.292   6.484
 4642SOL     OW15764  11.898   7.259  14.297
 4642SOL    HW115765  11.803   7.268  14.297
 4642SOL    HW215766  11.930   7.336  14.344
 4643SOL     OW15767   5.316  12.864   7.916
 4643SOL    HW115768   5.256  12.799   7.881
 4643SOL    HW215769   5.372  12.816   7.976
 4644SOL     OW15770   7.877   6.900  11.246
 4644SOL    HW115771   7.971   6.915  11.249
 4644SOL    HW215772   7.838   6.988  11.248
 4645SOL     OW15773  10.789   1.957   3.824
 4645SOL    HW115774  10.727   1.986   3.892
 4645SOL    HW215775  10.841   1.889   3.866
 4646SOL     OW15776   7.425   1.905   6.657
 4646SOL    HW115777   7.335   1.876   6.645
 4646SOL    HW215778   7.461   1.844   6.722
 4647SOL     OW15779  13.024   4.039  11.799
 4647SOL    HW115780  12.998   4.070  11.712
 4647SOL    HW215781  12.947   3.992  11.831
 4648SOL     OW15782   5.614   1.580   5.033
 4648SOL    HW115783   5.659   1.659   5.003
 4648SOL    HW215784   5.597   1.596   5.126
 4649SOL     OW15785  11.896   8.470  13.567
 4649SOL    HW115786  11.817   8.431  13.605
 4649SOL    HW215787  11.923   8.408  13.500
 4650SOL     OW15788  14.255   7.761   4.230
 4650SOL    HW115789  14.235   7.812   4.308
 4650SOL    HW215790  14.173   7.714   4.211
 4651SOL     OW15791   5.973  14.107  12.128
 4651SOL    HW115792   5.974  14.015  12.154
 4651SOL    HW215793   6.049  14.116  12.070
 4652SOL     OW15794   7.588  12.123  14.225
 4652SOL    HW115795   7.654  12.187  14.197
 4652SOL    HW215796   7.606  12.110  14.318
 4653SOL     OW15797   1.161   6.821   9.080
 4653SOL    HW115798   1.239   6.875   9.097
 4653SOL    HW215799   1.091   6.884   9.064
 4654SOL     OW15800  13.268   2.380   4.262
 4654SOL    HW115801  13.265   2.422   4.176
 4654SOL    HW215802  13.253   2.450   4.324
 4655SOL     OW15803   4.283  12.021   1.590
 4655SOL    HW115804   4.258  11.977   1.671
 4655SOL    HW215805   4.206  12.070   1.563
 4656SOL     OW15806  12.913   1.165   2.416
 4656SOL    HW115807  12.990   1.174   2.360
 4656SOL    HW215808  12.943   1.194   2.502
 4657SOL     OW15809   6.850  11.673   1.223
 4657SOL    HW115810   6.912  11.604   1.200
 4657SOL    HW215811   6.826  11.712   1.139
 4658SOL     OW15812  12.478   4.377   5.894
 4658SOL    HW115813  12.446   4.466   5.884
 4658SOL    HW215814  12.571   4.386   5.912
 4659SOL     OW15815  10.622   0.268  10.611
 4659SOL    HW115816  10.667   0.282  10.528
 4659SOL    HW215817  10.612   0.173  10.618
 4660SOL     OW15818   4.093   3.567  10.132
 4660SOL    HW115819   4.046   3.651  10.124
 4660SOL    HW215820   4.176   3.590  10.175
 4661SOL     OW15821   2.332  10.049   5.708
 4661SOL    HW115822   2.392   9.982   5.741
 4661SOL    HW215823   2.370  10.131   5.738
 4662SOL     OW15824  10.244   4.999  11.849
 4662SOL    HW115825  10.281   5.087  11.858
 4662SOL    HW215826  10.150   5.013  11.838
 4663SOL     OW15827   2.162   9.835  11.569
 4663SOL    HW115828   2.148   9.769  11.637
 4663SOL    HW215829   2.076   9.852  11.532
 4664SOL     OW15830   2.078   8.731  14.436
 4664SOL    HW115831   2.107   8.821  14.417
 4664SOL    HW215832   2.115   8.711  14.521
 4665SOL     OW15833   3.099   8.527   0.573
 4665SOL    HW115834   3.107   8.562   0.662
 4665SOL    HW215835   3.025   8.467   0.577
 4666SOL     OW15836   1.814   4.115   5.842
 4666SOL    HW115837   1.833   4.021   5.852
 4666SOL    HW215838   1.782   4.123   5.752
 4667SOL     OW15839   6.007  10.833  14.074
 4667SOL    HW115840   5.952  10.912  14.072
 4667SOL    HW215841   5.961  10.773  14.132
 4668SOL     OW15842   3.190  13.683   9.920
 4668SOL    HW115843   3.276  13.695   9.961
 4668SOL    HW215844   3.129  13.676   9.993
 4669SOL     OW15845   8.557   1.461   0.098
 4669SOL    HW115846   8.567   1.454   0.193
 4669SOL    HW215847   8.594   1.546   0.076
 4670SOL     OW15848   9.234  14.656   4.210
 4670SOL    HW115849   9.327  14.643   4.224
 4670SOL    HW215850   9.197  14.664   4.298
 4671SOL     OW15851   5.342   2.877   8.515
 4671SOL    HW115852   5.283   2.916   8.450
 4671SOL    HW215853   5.284   2.826   8.572
 4672SOL     OW15854  14.175   2.781   3.754
 4672SOL    HW115855  14.086   2.817   3.750
 4672SOL    HW215856  14.162   2.686   3.753
 4673SOL     OW15857  14.849  13.453   0.400
 4673SOL    HW115858   0.055  13.488   0.427
 4673SOL    HW215859  14.787  13.489   0.463
 4674SOL     OW15860  12.528   2.295   5.172
 4674SOL    HW115861  12.510   2.305   5.265
 4674SOL    HW215862  12.617   2.329   5.161
 4675SOL     OW15863   6.856  11.898  10.170
 4675SOL    HW115864   6.938  11.868  10.131
 4675SOL    HW215865   6.799  11.916  10.095
 4676SOL     OW15866   3.823  13.216   0.043
 4676SOL    HW115867   3.864  13.299   0.015
 4676SOL    HW215868   3.872  13.191   0.121
 4677SOL     OW15869   4.446   4.366  11.772
 4677SOL    HW115870   4.439   4.426  11.846
 4677SOL    HW215871   4.540   4.362  11.753
 4678SOL     OW15872   0.533   4.209   0.898
 4678SOL    HW115873   0.451   4.230   0.941
 4678SOL    HW215874   0.508   4.182   0.810
 4679SOL     OW15875   4.149  13.517  13.302
 4679SOL    HW115876   4.136  13.544  13.393
 4679SOL    HW215877   4.094  13.577  13.252
 4680SOL     OW15878   2.309   1.061   6.800
 4680SOL    HW115879   2.214   1.067   6.793
 4680SOL    HW215880   2.342   1.128   6.741
 4681SOL     OW15881   5.245  11.297   1.169
 4681SOL    HW115882   5.185  11.235   1.211
 4681SOL    HW215883   5.294  11.243   1.106
 4682SOL     OW15884  14.821   1.723   5.447
 4682SOL    HW115885  14.852   1.809   5.420
 4682SOL    HW215886  14.794   1.735   5.538
 4683SOL     OW15887   4.777  13.229  12.612
 4683SOL    HW115888   4.868  13.201  12.600
 4683SOL    HW215889   4.762  13.292  12.541
 4684SOL     OW15890   2.107  10.224   4.368
 4684SOL    HW115891   2.136  10.270   4.447
 4684SOL    HW215892   2.186  10.217   4.314
 4685SOL     OW15893   9.742   3.314   6.662
 4685SOL    HW115894   9.735   3.255   6.737
 4685SOL    HW215895   9.675   3.381   6.678
 4686SOL     OW15896   9.060   8.650  10.770
 4686SOL    HW115897   9.040   8.615  10.683
 4686SOL    HW215898   9.070   8.572  10.825
 4687SOL     OW15899   5.679  13.869  13.121
 4687SOL    HW115900   5.705  13.876  13.029
 4687SOL    HW215901   5.757  13.839  13.166
 4688SOL     OW15902   0.902   9.241   8.670
 4688SOL    HW115903   0.998   9.244   8.663
 4688SOL    HW215904   0.880   9.320   8.720
 4689SOL     OW15905   5.913   1.088   1.301
 4689SOL    HW115906   5.894   1.105   1.208
 4689SOL    HW215907   5.867   1.007   1.321
 4690SOL     OW15908   4.814  12.666   8.708
 4690SOL    HW115909   4.769  12.648   8.791
 4690SOL    HW215910   4.823  12.581   8.666
 4691SOL     OW15911   5.764  11.714   5.662
 4691SOL    HW115912   5.759  11.786   5.599
 4691SOL    HW215913   5.701  11.737   5.731
 4692SOL     OW15914   1.888   0.464  14.852
 4692SOL    HW115915   1.905   0.455   0.067
 4692SOL    HW215916   1.973   0.446  14.812
 4693SOL     OW15917   8.117   4.397   5.328
 4693SOL    HW115918   8.169   4.474   5.306
 4693SOL    HW215919   8.054   4.428   5.393
 4694SOL     OW15920  10.548   1.077   2.383
 4694SOL    HW115921  10.596   1.105   2.305
 4694SOL    HW215922  10.616   1.069   2.450
 4695SOL     OW15923  10.710   2.312   7.306
 4695SOL    HW115924  10.637   2.371   7.285
 4695SOL    HW215925  10.697   2.237   7.248
 4696SOL     OW15926   0.589   8.053   2.895
 4696SOL    HW115927   0.649   8.020   2.962
 4696SOL    HW215928   0.512   7.997   2.904
 4697SOL     OW15929   8.094   5.196   5.888
 4697SOL    HW115930   8.168   5.151   5.846
 4697SOL    HW215931   8.048   5.240   5.817
 4698SOL     OW15932   2.977   4.374  12.108
 4698SOL    HW115933   2.925   4.455  12.101
 4698SOL    HW215934   3.065   4.405  12.132
 4699SOL     OW15935  11.877   8.831  11.475
 4699SOL    HW115936  11.800   8.805  11.525
 4699SOL    HW215937  11.945   8.767  11.498
 4700SOL     OW15938  14.228   4.341  10.656
 4700SOL    HW115939  14.146   4.319  10.612
 4700SOL    HW215940  14.290   4.275  10.625
 4701SOL     OW15941   1.876   4.495   6.380
 4701SOL    HW115942   1.923   4.514   6.299
 4701SOL    HW215943   1.879   4.577   6.429
 4702SOL     OW15944   1.891   9.836   9.547
 4702SOL    HW115945   1.984   9.849   9.526
 4702SOL    HW215946   1.854   9.797   9.467
 4703SOL     OW15947   0.588   3.446  10.623
 4703SOL    HW115948   0.619   3.372  10.569
 4703SOL    HW215949   0.551   3.507  10.559
 4704SOL     OW15950   9.485   1.593   9.952
 4704SOL    HW115951   9.536   1.569   9.875
 4704SOL    HW215952   9.401   1.623   9.917
 4705SOL     OW15953   5.211   2.424   2.162
 4705SOL    HW115954   5.214   2.423   2.067
 4705SOL    HW215955   5.192   2.516   2.184
 4706SOL     OW15956  13.173  13.995  10.447
 4706SOL    HW115957  13.232  13.943  10.391
 4706SOL    HW215958  13.185  13.959  10.535
 4707SOL     OW15959   8.802  11.011   8.427
 4707SOL    HW115960   8.838  10.980   8.344
 4707SOL    HW215961   8.707  11.010   8.414
 4708SOL     OW15962   2.815   0.510   5.458
 4708SOL    HW115963   2.782   0.471   5.539
 4708SOL    HW215964   2.755   0.583   5.441
 4709SOL     OW15965  10.044   2.681  14.224
 4709SOL    HW115966  10.081   2.663  14.310
 4709SOL    HW215967  10.089   2.619  14.166
 4710SOL     OW15968   3.428  13.197  10.822
 4710SOL    HW115969   3.459  13.111  10.850
 4710SOL    HW215970   3.472  13.259  10.880
 4711SOL     OW15971  13.310   1.186   3.202
 4711SOL    HW115972  13.274   1.146   3.281
 4711SOL    HW215973  13.285   1.278   3.208
 4712SOL     OW15974   9.316   2.709   0.754
 4712SOL    HW115975   9.355   2.795   0.771
 4712SOL    HW215976   9.353   2.681   0.670
 4713SOL     OW15977  12.563  12.760   7.024
 4713SOL    HW115978  12.611  12.836   7.057
 4713SOL    HW215979  12.624  12.687   7.035
 4714SOL     OW15980   6.361   8.189   5.573
 4714SOL    HW115981   6.430   8.250   5.547
 4714SOL    HW215982   6.385   8.106   5.532
 4715SOL     OW15983  10.023   3.772   6.186
 4715SOL    HW115984  10.065   3.836   6.242
 4715SOL    HW215985   9.952   3.820   6.144
 4716SOL     OW15986   2.672   3.616  12.482
 4716SOL    HW115987   2.707   3.697  12.519
 4716SOL    HW215988   2.678   3.628  12.387
 4717SOL     OW15989   4.143   2.296   7.233
 4717SOL    HW115990   4.200   2.277   7.159
 4717SOL    HW215991   4.054   2.288   7.198
 4718SOL     OW15992   2.796   8.798   7.340
 4718SOL    HW115993   2.832   8.749   7.267
 4718SOL    HW215994   2.739   8.735   7.386
 4719SOL     OW15995   4.680   4.299  10.356
 4719SOL    HW115996   4.715   4.374  10.310
 4719SOL    HW215997   4.679   4.325  10.448
 4720SOL     OW15998   6.700   8.168  11.126
 4720SOL    HW115999   6.740   8.086  11.155
 4720SOL    HW216000   6.767   8.209  11.071
 4721SOL     OW16001  12.982  11.381  10.468
 4721SOL    HW116002  12.913  11.368  10.533
 4721SOL    HW216003  12.936  11.387  10.385
 4722SOL     OW16004   8.772   1.678  12.812
 4722SOL    HW116005   8.752   1.684  12.718
 4722SOL    HW216006   8.690   1.650  12.852
 4723SOL     OW16007  13.550  14.124  10.828
 4723SOL    HW116008  13.622  14.076  10.869
 4723SOL    HW216009  13.484  14.132  10.897
 4724SOL     OW16010   6.994  11.138   1.330
 4724SOL    HW116011   7.054  11.079   1.376
 4724SOL    HW216012   6.989  11.216   1.385
 4725SOL     OW16013   9.127  10.754  11.313
 4725SOL    HW116014   9.148  10.681  11.254
 4725SOL    HW216015   9.033  10.768  11.300
 4726SOL     OW16016  13.851   6.802   7.692
 4726SOL    HW116017  13.922   6.828   7.633
 4726SOL    HW216018  13.805   6.733   7.645
 4727SOL     OW16019   0.183   6.026   2.755
 4727SOL    HW116020   0.185   6.116   2.723
 4727SOL    HW216021   0.112   6.026   2.820
 4728SOL     OW16022  10.487   9.808   7.783
 4728SOL    HW116023  10.582   9.797   7.783
 4728SOL    HW216024  10.474   9.902   7.794
 4729SOL     OW16025   9.327   5.588   3.007
 4729SOL    HW116026   9.307   5.602   2.915
 4729SOL    HW216027   9.277   5.655   3.053
 4730SOL     OW16028  13.338   0.506   1.330
 4730SOL    HW116029  13.357   0.500   1.236
 4730SOL    HW216030  13.245   0.528   1.334
 4731SOL     OW16031  13.433  13.181  14.006
 4731SOL    HW116032  13.481  13.174  13.923
 4731SOL    HW216033  13.392  13.096  14.018
 4732SOL     OW16034  12.150  14.425   4.112
 4732SOL    HW116035  12.109  14.338   4.111
 4732SOL    HW216036  12.110  14.469   4.187
 4733SOL     OW16037   8.833   2.593   6.039
 4733SOL    HW116038   8.835   2.544   6.121
 4733SOL    HW216039   8.747   2.634   6.037
 4734SOL     OW16040  10.398   2.174  14.727
 4734SOL    HW116041  10.435   2.235  14.663
 4734SOL    HW216042  10.442   2.196  14.809
 4735SOL     OW16043   1.549   1.699   3.184
 4735SOL    HW116044   1.589   1.628   3.135
 4735SOL    HW216045   1.567   1.778   3.133
 4736SOL     OW16046  14.091   7.585   1.834
 4736SOL    HW116047  14.146   7.539   1.770
 4736SOL    HW216048  14.003   7.579   1.797
 4737SOL     OW16049   1.961   9.539   7.843
 4737SOL    HW116050   1.968   9.490   7.761
 4737SOL    HW216051   1.973   9.473   7.912
 4738SOL     OW16052   1.765  13.907   8.397
 4738SOL    HW116053   1.746  13.988   8.349
 4738SOL    HW216054   1.852  13.921   8.434
 4739SOL     OW16055   2.636   8.085  11.853
 4739SOL    HW116056   2.662   8.146  11.783
 4739SOL    HW216057   2.547   8.058  11.828
 4740SOL     OW16058  12.110   4.093   8.412
 4740SOL    HW116059  12.137   4.174   8.456
 4740SOL    HW216060  12.151   4.023   8.464
 4741SOL     OW16061  11.643   5.078  12.021
 4741SOL    HW116062  11.648   5.022  12.099
 4741SOL    HW216063  11.562   5.127  12.032
 4742SOL     OW16064   4.761   0.729   7.066
 4742SOL    HW116065   4.713   0.650   7.092
 4742SOL    HW216066   4.766   0.781   7.146
 4743SOL     OW16067   2.592  10.562   8.922
 4743SOL    HW116068   2.514  10.509   8.908
 4743SOL    HW216069   2.562  10.634   8.978
 4744SOL     OW16070   3.604  11.972  12.645
 4744SOL    HW116071   3.691  11.932  12.647
 4744SOL    HW216072   3.619  12.064  12.667
 4745SOL     OW16073  12.379  14.360   9.846
 4745SOL    HW116074  12.411  14.270   9.847
 4745SOL    HW216075  12.353  14.375   9.756
 4746SOL     OW16076   0.934   6.942   6.133
 4746SOL    HW116077   0.896   6.900   6.055
 4746SOL    HW216078   0.883   6.907   6.206
 4747SOL     OW16079   1.654  10.554   8.773
 4747SOL    HW116080   1.731  10.609   8.791
 4747SOL    HW216081   1.637  10.565   8.680
 4748SOL     OW16082  12.886   0.709   8.497
 4748SOL    HW116083  12.911   0.620   8.471
 4748SOL    HW216084  12.903   0.763   8.419
 4749SOL     OW16085   9.739  13.909   9.237
 4749SOL    HW116086   9.758  13.929   9.145
 4749SOL    HW216087   9.821  13.930   9.283
 4750SOL     OW16088   1.883  12.866   4.278
 4750SOL    HW116089   1.850  12.867   4.188
 4750SOL    HW216090   1.806  12.886   4.331
 4751SOL     OW16091   4.184   7.084  13.062
 4751SOL    HW116092   4.263   7.127  13.031
 4751SOL    HW216093   4.199   6.991  13.044
 4752SOL     OW16094   8.704   3.359   9.574
 4752SOL    HW116095   8.798   3.341   9.582
 4752SOL    HW216096   8.662   3.278   9.600
 4753SOL     OW16097  13.708  11.293  13.825
 4753SOL    HW116098  13.637  11.258  13.878
 4753SOL    HW216099  13.695  11.388  13.828
 4754SOL     OW16100  11.833   2.027  10.151
 4754SOL    HW116101  11.897   2.098  10.148
 4754SOL    HW216102  11.878   1.957  10.198
 4755SOL     OW16103   5.209   2.113  14.451
 4755SOL    HW116104   5.274   2.092  14.518
 4755SOL    HW216105   5.247   2.188  14.405
 4756SOL     OW16106   6.386   8.324   0.483
 4756SOL    HW116107   6.459   8.263   0.471
 4756SOL    HW216108   6.407   8.397   0.426
 4757SOL     OW16109  13.296   7.376   0.141
 4757SOL    HW116110  13.271   7.359   0.050
 4757SOL    HW216111  13.240   7.319   0.193
 4758SOL     OW16112  12.634  11.969   4.672
 4758SOL    HW116113  12.610  11.881   4.701
 4758SOL    HW216114  12.666  11.957   4.583
 4759SOL     OW16115   4.364   2.488   2.798
 4759SOL    HW116116   4.435   2.502   2.736
 4759SOL    HW216117   4.309   2.421   2.757
 4760SOL     OW16118  10.197   2.252   3.849
 4760SOL    HW116119  10.187   2.215   3.937
 4760SOL    HW216120  10.109   2.276   3.822
 4761SOL     OW16121  13.810   9.754   9.685
 4761SOL    HW116122  13.758   9.675   9.698
 4761SOL    HW216123  13.857   9.738   9.603
 4762SOL     OW16124   2.188   7.442   6.185
 4762SOL    HW116125   2.208   7.403   6.100
 4762SOL    HW216126   2.104   7.404   6.210
 4763SOL     OW16127   4.332   4.385  14.008
 4763SOL    HW116128   4.351   4.291  14.007
 4763SOL    HW216129   4.353   4.413  14.097
 4764SOL     OW16130   6.542   3.017  13.250
 4764SOL    HW116131   6.456   3.055  13.264
 4764SOL    HW216132   6.547   2.944  13.312
 4765SOL     OW16133   9.056   8.793   6.970
 4765SOL    HW116134   9.063   8.837   7.055
 4765SOL    HW216135   9.053   8.864   6.907
 4766SOL     OW16136  10.382   5.860   8.378
 4766SOL    HW116137  10.386   5.782   8.433
 4766SOL    HW216138  10.290   5.886   8.380
 4767SOL     OW16139  10.411   0.713   4.411
 4767SOL    HW116140  10.389   0.797   4.451
 4767SOL    HW216141  10.466   0.735   4.336
 4768SOL     OW16142  10.689  11.609   4.125
 4768SOL    HW116143  10.748  11.543   4.089
 4768SOL    HW216144  10.725  11.692   4.095
 4769SOL     OW16145  11.591   1.628   7.702
 4769SOL    HW116146  11.530   1.666   7.638
 4769SOL    HW216147  11.673   1.675   7.687
 4770SOL     OW16148   0.531   2.164  13.600
 4770SOL    HW116149   0.620   2.132  13.588
 4770SOL    HW216150   0.498   2.113  13.674
 4771SOL     OW16151  13.149  11.759   5.387
 4771SOL    HW116152  13.154  11.812   5.307
 4771SOL    HW216153  13.203  11.682   5.369
 4772SOL     OW16154   7.211   1.705   1.234
 4772SOL    HW116155   7.176   1.666   1.154
 4772SOL    HW216156   7.155   1.670   1.304
 4773SOL     OW16157  11.948  13.659   6.197
 4773SOL    HW116158  11.992  13.619   6.273
 4773SOL    HW216159  12.019  13.682   6.137
 4774SOL     OW16160   4.758   4.638  13.377
 4774SOL    HW116161   4.760   4.728  13.344
 4774SOL    HW216162   4.670   4.626  13.412
 4775SOL     OW16163   0.319   0.556   7.971
 4775SOL    HW116164   0.257   0.627   7.952
 4775SOL    HW216165   0.391   0.599   8.017
 4776SOL     OW16166  12.019  10.296   0.833
 4776SOL    HW116167  12.075  10.370   0.811
 4776SOL    HW216168  12.030  10.286   0.928
 4777SOL     OW16169  12.174   6.227   3.682
 4777SOL    HW116170  12.102   6.192   3.630
 4777SOL    HW216171  12.141   6.230   3.771
 4778SOL     OW16172   4.829  13.687  13.757
 4778SOL    HW116173   4.915  13.729  13.755
 4778SOL    HW216174   4.779  13.740  13.818
 4779SOL     OW16175   8.332   2.393   9.332
 4779SOL    HW116176   8.419   2.412   9.297
 4779SOL    HW216177   8.277   2.465   9.301
 4780SOL     OW16178   7.709   3.760  14.705
 4780SOL    HW116179   7.657   3.681  14.718
 4780SOL    HW216180   7.763   3.741  14.628
 4781SOL     OW16181   5.476   1.120   6.629
 4781SOL    HW116182   5.503   1.196   6.576
 4781SOL    HW216183   5.515   1.137   6.715
 4782SOL     OW16184   1.725  12.638   5.418
 4782SOL    HW116185   1.727  12.607   5.509
 4782SOL    HW216186   1.658  12.706   5.418
 4783SOL     OW16187   6.019   2.292   7.929
 4783SOL    HW116188   5.949   2.236   7.962
 4783SOL    HW216189   5.977   2.377   7.914
 4784SOL     OW16190  10.112   6.995   2.280
 4784SOL    HW116191  10.104   6.921   2.220
 4784SOL    HW216192  10.026   7.002   2.321
 4785SOL     OW16193   1.288   3.076   0.089
 4785SOL    HW116194   1.287   3.162   0.047
 4785SOL    HW216195   1.362   3.080   0.149
 4786SOL     OW16196   9.337  11.221   8.490
 4786SOL    HW116197   9.390  11.224   8.570
 4786SOL    HW216198   9.388  11.271   8.426
 4787SOL     OW16199  11.523   4.397  10.262
 4787SOL    HW116200  11.505   4.466  10.198
 4787SOL    HW216201  11.612   4.368  10.241
 4788SOL     OW16202   5.121  12.844   3.964
 4788SOL    HW116203   5.123  12.920   3.906
 4788SOL    HW216204   5.134  12.879   4.052
 4789SOL     OW16205  12.222   7.517   2.792
 4789SOL    HW116206  12.298   7.568   2.764
 4789SOL    HW216207  12.252   7.468   2.868
 4790SOL     OW16208  11.313   3.499   2.553
 4790SOL    HW116209  11.278   3.582   2.585
 4790SOL    HW216210  11.347   3.519   2.466
 4791SOL     OW16211   4.911   4.366   5.680
 4791SOL    HW116212   4.860   4.291   5.650
 4791SOL    HW216213   4.851   4.413   5.738
 4792SOL     OW16214  12.564   5.812   4.716
 4792SOL    HW116215  12.504   5.744   4.748
 4792SOL    HW216216  12.525   5.894   4.747
 4793SOL     OW16217   2.814   9.849   5.820
 4793SOL    HW116218   2.825   9.934   5.863
 4793SOL    HW216219   2.854   9.860   5.734
 4794SOL     OW16220   7.795  11.769   8.013
 4794SOL    HW116221   7.774  11.828   7.941
 4794SOL    HW216222   7.794  11.824   8.091
 4795SOL     OW16223   9.920  11.726  11.276
 4795SOL    HW116224   9.923  11.790  11.205
 4795SOL    HW216225   9.954  11.645  11.238
 4796SOL     OW16226   3.022  11.271   7.482
 4796SOL    HW116227   3.106  11.262   7.526
 4796SOL    HW216228   3.041  11.322   7.403
 4797SOL     OW16229   5.922  12.392   4.480
 4797SOL    HW116230   5.964  12.308   4.461
 4797SOL    HW216231   5.866  12.408   4.404
 4798SOL     OW16232  10.848  10.607  11.722
 4798SOL    HW116233  10.924  10.664  11.731
 4798SOL    HW216234  10.858  10.570  11.634
 4799SOL     OW16235   2.451  13.577   9.033
 4799SOL    HW116236   2.403  13.658   9.047
 4799SOL    HW216237   2.385  13.508   9.039
 4800SOL     OW16238  13.449  10.133   0.027
 4800SOL    HW116239  13.537  10.158  14.878
 4800SOL    HW216240  13.391  10.168  14.839
 4801SOL     OW16241  11.945   7.561   8.436
 4801SOL    HW116242  11.917   7.513   8.514
 4801SOL    HW216243  12.022   7.611   8.466
 4802SOL     OW16244   4.764  10.358   4.667
 4802SOL    HW116245   4.819  10.280   4.676
 4802SOL    HW216246   4.710  10.342   4.590
 4803SOL     OW16247   9.323   0.573   1.603
 4803SOL    HW116248   9.285   0.595   1.689
 4803SOL    HW216249   9.349   0.481   1.612
 4804SOL     OW16250  12.664   1.045  10.546
 4804SOL    HW116251  12.738   1.095  10.510
 4804SOL    HW216252  12.684   0.954  10.526
 4805SOL     OW16253   8.418  13.494   1.889
 4805SOL    HW116254   8.507  13.468   1.912
 4805SOL    HW216255   8.391  13.430   1.822
 4806SOL     OW16256   1.006   3.336   8.322
 4806SOL    HW116257   1.086   3.386   8.303
 4806SOL    HW216258   1.008   3.264   8.258
 4807SOL     OW16259  11.640   1.135  12.624
 4807SOL    HW116260  11.661   1.060  12.568
 4807SOL    HW216261  11.596   1.097  12.700
 4808SOL     OW16262   7.104   8.303   0.000
 4808SOL    HW116263   7.183   8.349   0.029
 4808SOL    HW216264   7.066   8.361  14.814
 4809SOL     OW16265  13.428  10.077   6.675
 4809SOL    HW116266  13.476  10.015   6.620
 4809SOL    HW216267  13.479  10.080   6.756
 4810SOL     OW16268   9.710  10.321   7.901
 4810SOL    HW116269   9.796  10.295   7.866
 4810SOL    HW216270   9.729  10.356   7.988
 4811SOL     OW16271   7.575   5.846   5.113
 4811SOL    HW116272   7.631   5.810   5.044
 4811SOL    HW216273   7.582   5.941   5.103
 4812SOL     OW16274   0.939   0.806   7.597
 4812SOL    HW116275   1.030   0.776   7.592
 4812SOL    HW216276   0.936   0.865   7.672
 4813SOL     OW16277   6.182   7.561   2.959
 4813SOL    HW116278   6.135   7.614   3.023
 4813SOL    HW216279   6.113   7.510   2.916
 4814SOL     OW16280  11.146   5.581   7.674
 4814SOL    HW116281  11.192   5.657   7.708
 4814SOL    HW216282  11.154   5.588   7.579
 4815SOL     OW16283   9.000  11.928   9.402
 4815SOL    HW116284   9.044  11.873   9.468
 4815SOL    HW216285   9.068  11.987   9.371
 4816SOL     OW16286  10.490   7.972   5.401
 4816SOL    HW116287  10.529   7.925   5.475
 4816SOL    HW216288  10.485   8.063   5.431
 4817SOL     OW16289  11.699   1.875   3.552
 4817SOL    HW116290  11.698   1.914   3.640
 4817SOL    HW216291  11.713   1.949   3.493
 4818SOL     OW16292   3.727   5.338  12.068
 4818SOL    HW116293   3.746   5.432  12.072
 4818SOL    HW216294   3.633   5.331  12.085
 4819SOL     OW16295   1.577   2.471   4.404
 4819SOL    HW116296   1.507   2.439   4.349
 4819SOL    HW216297   1.606   2.395   4.454
 4820SOL     OW16298   2.507   9.843   2.073
 4820SOL    HW116299   2.521   9.752   2.048
 4820SOL    HW216300   2.416   9.847   2.103
 4821SOL     OW16301   5.102  10.419   9.132
 4821SOL    HW116302   5.188  10.449   9.103
 4821SOL    HW216303   5.053  10.405   9.051
 4822SOL     OW16304  11.949   8.606  10.389
 4822SOL    HW116305  11.860   8.582  10.364
 4822SOL    HW216306  11.978   8.535  10.445
 4823SOL     OW16307  11.104  14.468   9.978
 4823SOL    HW116308  11.141  14.546  10.020
 4823SOL    HW216309  11.012  14.469  10.004
 4824SOL     OW16310   8.985   2.442  13.539
 4824SOL    HW116311   8.904   2.398  13.566
 4824SOL    HW216312   9.026   2.470  13.622
 4825SOL     OW16313   4.232  13.716  10.560
 4825SOL    HW116314   4.183  13.797  10.572
 4825SOL    HW216315   4.183  13.651  10.610
 4826SOL     OW16316   4.147  12.261   9.918
 4826SOL    HW116317   4.092  12.284   9.843
 4826SOL    HW216318   4.234  12.293   9.894
 4827SOL     OW16319   5.509   5.507   4.666
 4827SOL    HW116320   5.416   5.514   4.684
 4827SOL    HW216321   5.539   5.434   4.720
 4828SOL     OW16322   8.800   3.220   5.593
 4828SOL    HW116323   8.789   3.267   5.510
 4828SOL    HW216324   8.859   3.275   5.644
 4829SOL     OW16325   7.205   3.873   7.567
 4829SOL    HW116326   7.235   3.877   7.659
 4829SOL    HW216327   7.284   3.851   7.518
 4830SOL     OW16328  13.175   0.637   6.261
 4830SOL    HW116329  13.226   0.679   6.330
 4830SOL    HW216330  13.097   0.692   6.253
 4831SOL     OW16331   1.517   4.063   0.856
 4831SOL    HW116332   1.520   4.030   0.946
 4831SOL    HW216333   1.521   3.984   0.801
 4832SOL     OW16334  14.253  10.361   6.761
 4832SOL    HW116335  14.309  10.438   6.769
 4832SOL    HW216336  14.283  10.303   6.832
 4833SOL     OW16337   5.240  14.627   7.248
 4833SOL    HW116338   5.294  14.700   7.278
 4833SOL    HW216339   5.152  14.663   7.239
 4834SOL     OW16340   7.880   2.149  10.268
 4834SOL    HW116341   7.933   2.226  10.292
 4834SOL    HW216342   7.819   2.139  10.341
 4835SOL     OW16343   3.588  14.464  11.478
 4835SOL    HW116344   3.649  14.534  11.503
 4835SOL    HW216345   3.642  14.385  11.475
 4836SOL     OW16346   7.019   1.126  14.569
 4836SOL    HW116347   6.986   1.037  14.554
 4836SOL    HW216348   7.061   1.122  14.654
 4837SOL     OW16349  14.546   9.775   8.891
 4837SOL    HW116350  14.512   9.687   8.908
 4837SOL    HW216351  14.497   9.805   8.815
 4838SOL     OW16352   8.214  13.656   3.801
 4838SOL    HW116353   8.299  13.680   3.764
 4838SOL    HW216354   8.172  13.739   3.823
 4839SOL     OW16355   0.585   1.758  10.718
 4839SOL    HW116356   0.567   1.843  10.677
 4839SOL    HW216357   0.505   1.738  10.767
 4840SOL     OW16358   2.113   7.483   7.467
 4840SOL    HW116359   2.138   7.559   7.415
 4840SOL    HW216360   2.113   7.516   7.557
 4841SOL     OW16361   0.852   8.374   2.913
 4841SOL    HW116362   0.774   8.428   2.897
 4841SOL    HW216363   0.867   8.382   3.007
 4842SOL     OW16364  10.353   4.721   0.861
 4842SOL    HW116365  10.434   4.763   0.889
 4842SOL    HW216366  10.358   4.721   0.765
 4843SOL     OW16367   7.896   5.552  10.780
 4843SOL    HW116368   7.902   5.642  10.747
 4843SOL    HW216369   7.935   5.556  10.867
 4844SOL     OW16370  10.735   5.411   6.749
 4844SOL    HW116371  10.795   5.463   6.803
 4844SOL    HW216372  10.651   5.456   6.756
 4845SOL     OW16373   1.717   9.134   4.831
 4845SOL    HW116374   1.719   9.174   4.917
 4845SOL    HW216375   1.671   9.051   4.844
 4846SOL     OW16376   9.896  12.082  10.459
 4846SOL    HW116377   9.831  12.081  10.529
 4846SOL    HW216378   9.918  12.174  10.448
 4847SOL     OW16379   9.128   2.768   5.152
 4847SOL    HW116380   9.088   2.798   5.070
 4847SOL    HW216381   9.194   2.705   5.124
 4848SOL     OW16382   3.691   6.446   2.887
 4848SOL    HW116383   3.776   6.474   2.851
 4848SOL    HW216384   3.638   6.427   2.810
 4849SOL     OW16385   0.407   6.548   3.258
 4849SOL    HW116386   0.322   6.522   3.294
 4849SOL    HW216387   0.456   6.578   3.335
 4850SOL     OW16388  10.246   8.570  11.954
 4850SOL    HW116389  10.210   8.599  11.870
 4850SOL    HW216390  10.169   8.542  12.004
 4851SOL     OW16391   4.251   9.725  10.228
 4851SOL    HW116392   4.334   9.678  10.221
 4851SOL    HW216393   4.185   9.663  10.199
 4852SOL     OW16394   2.632   3.104   6.593
 4852SOL    HW116395   2.668   3.051   6.664
 4852SOL    HW216396   2.702   3.165   6.571
 4853SOL     OW16397   2.854   9.475  12.677
 4853SOL    HW116398   2.938   9.478  12.631
 4853SOL    HW216399   2.877   9.482  12.769
 4854SOL     OW16400   3.608   7.080   5.426
 4854SOL    HW116401   3.683   7.104   5.480
 4854SOL    HW216402   3.588   7.159   5.376
 4855SOL     OW16403  11.720   2.648   7.220
 4855SOL    HW116404  11.650   2.584   7.208
 4855SOL    HW216405  11.748   2.637   7.311
 4856SOL     OW16406  14.014   0.794  10.433
 4856SOL    HW116407  14.092   0.805  10.378
 4856SOL    HW216408  13.977   0.882  10.441
 4857SOL     OW16409   0.629  12.345   9.903
 4857SOL    HW116410   0.718  12.361   9.933
 4857SOL    HW216411   0.605  12.425   9.855
 4858SOL     OW16412  14.194   8.683  14.146
 4858SOL    HW116413  14.136   8.610  14.124
 4858SOL    HW216414  14.173   8.750  14.081
 4859SOL     OW16415  11.654   6.977   2.404
 4859SOL    HW116416  11.623   6.936   2.484
 4859SOL    HW216417  11.644   6.909   2.337
 4860SOL     OW16418   2.781  13.738  12.048
 4860SOL    HW116419   2.792  13.714  11.956
 4860SOL    HW216420   2.735  13.664  12.087
 4861SOL     OW16421  13.217   9.646   9.380
 4861SOL    HW116422  13.157   9.571   9.385
 4861SOL    HW216423  13.162   9.718   9.349
 4862SOL     OW16424   4.033   7.255   4.129
 4862SOL    HW116425   4.065   7.343   4.109
 4862SOL    HW216426   3.959   7.242   4.069
 4863SOL     OW16427  10.112   4.733  12.067
 4863SOL    HW116428  10.035   4.783  12.094
 4863SOL    HW216429  10.106   4.651  12.117
 4864SOL     OW16430   3.626   6.940   6.763
 4864SOL    HW116431   3.639   6.846   6.745
 4864SOL    HW216432   3.660   6.952   6.851
 4865SOL     OW16433   1.208   3.188  12.572
 4865SOL    HW116434   1.292   3.176  12.617
 4865SOL    HW216435   1.220   3.145  12.488
 4866SOL     OW16436   9.407   2.430   7.094
 4866SOL    HW116437   9.427   2.519   7.064
 4866SOL    HW216438   9.326   2.441   7.145
 4867SOL     OW16439  14.043   6.002   9.527
 4867SOL    HW116440  14.106   5.991   9.455
 4867SOL    HW216441  14.002   6.086   9.510
 4868SOL     OW16442  13.957   8.312   7.686
 4868SOL    HW116443  14.037   8.364   7.693
 4868SOL    HW216444  13.976   8.234   7.737
 4869SOL     OW16445  10.815   2.146   4.179
 4869SOL    HW116446  10.765   2.158   4.099
 4869SOL    HW216447  10.864   2.228   4.189
 4870SOL     OW16448  13.253   1.857  12.678
 4870SOL    HW116449  13.303   1.916  12.621
 4870SOL    HW216450  13.232   1.911  12.755
 4871SOL     OW16451  11.882   6.334  14.708
 4871SOL    HW116452  11.910   6.246  14.731
 4871SOL    HW216453  11.786   6.331  14.710
 4872SOL     OW16454   8.943  10.420  12.224
 4872SOL    HW116455   8.875  10.368  12.181
 4872SOL    HW216456   8.964  10.489  12.161
 4873SOL     OW16457   5.702   2.502   8.135
 4873SOL    HW116458   5.683   2.557   8.211
 4873SOL    HW216459   5.733   2.420   8.173
 4874SOL     OW16460   9.620   3.914  13.066
 4874SOL    HW116461   9.587   3.825  13.083
 4874SOL    HW216462   9.704   3.917  13.111
 4875SOL     OW16463   2.656  13.421   2.788
 4875SOL    HW116464   2.609  13.343   2.817
 4875SOL    HW216465   2.653  13.416   2.692
 4876SOL     OW16466   7.802   9.747   0.117
 4876SOL    HW116467   7.768   9.749   0.028
 4876SOL    HW216468   7.729   9.777   0.172
 4877SOL     OW16469  11.627   5.726   9.823
 4877SOL    HW116470  11.713   5.694   9.850
 4877SOL    HW216471  11.593   5.773   9.899
 4878SOL     OW16472   0.949  10.338   7.193
 4878SOL    HW116473   0.880  10.297   7.140
 4878SOL    HW216474   0.908  10.417   7.229
 4879SOL     OW16475   2.561   2.152   7.438
 4879SOL    HW116476   2.493   2.218   7.452
 4879SOL    HW216477   2.516   2.068   7.446
 4880SOL     OW16478   4.743   3.365   4.765
 4880SOL    HW116479   4.648   3.369   4.777
 4880SOL    HW216480   4.777   3.441   4.812
 4881SOL     OW16481   6.790   3.065   7.074
 4881SOL    HW116482   6.775   3.001   7.143
 4881SOL    HW216483   6.812   3.013   6.997
 4882SOL     OW16484   0.760   1.519  10.378
 4882SOL    HW116485   0.847   1.515  10.338
 4882SOL    HW216486   0.772   1.483  10.466
 4883SOL     OW16487  13.259   1.018   8.450
 4883SOL    HW116488  13.262   1.078   8.376
 4883SOL    HW216489  13.245   1.075   8.526
 4884SOL     OW16490   7.028  14.346   7.847
 4884SOL    HW116491   6.993  14.384   7.927
 4884SOL    HW216492   7.064  14.261   7.873
 4885SOL     OW16493   1.622  10.157   7.970
 4885SOL    HW116494   1.584  10.126   7.888
 4885SOL    HW216495   1.550  10.150   8.033
 4886SOL     OW16496   0.673   4.119  12.200
 4886SOL    HW116497   0.610   4.083  12.138
 4886SOL    HW216498   0.635   4.203  12.227
 4887SOL     OW16499  12.692   3.388   4.436
 4887SOL    HW116500  12.650   3.327   4.375
 4887SOL    HW216501  12.619   3.427   4.484
 4888SOL     OW16502   4.188  10.285   9.845
 4888SOL    HW116503   4.141  10.300   9.927
 4888SOL    HW216504   4.121  10.289   9.777
 4889SOL     OW16505   1.637   5.151  12.150
 4889SOL    HW116506   1.653   5.077  12.091
 4889SOL    HW216507   1.715   5.206  12.140
 4890SOL     OW16508   0.390   6.629   5.443
 4890SOL    HW116509   0.444   6.607   5.519
 4890SOL    HW216510   0.361   6.544   5.409
 4891SOL     OW16511  11.819   2.220  14.325
 4891SOL    HW116512  11.799   2.187  14.238
 4891SOL    HW216513  11.866   2.149  14.368
 4892SOL     OW16514   2.762  10.470  11.429
 4892SOL    HW116515   2.763  10.430  11.516
 4892SOL    HW216516   2.851  10.459  11.397
 4893SOL     OW16517   0.308  13.363   2.852
 4893SOL    HW116518   0.213  13.354   2.864
 4893SOL    HW216519   0.319  13.377   2.758
 4894SOL     OW16520   0.125   9.327   5.102
 4894SOL    HW116521   0.180   9.405   5.105
 4894SOL    HW216522   0.089   9.326   5.014
 4895SOL     OW16523   2.779   4.976   2.748
 4895SOL    HW116524   2.847   5.031   2.786
 4895SOL    HW216525   2.742   5.028   2.677
 4896SOL     OW16526   9.026   8.838  12.678
 4896SOL    HW116527   9.065   8.862  12.762
 4896SOL    HW216528   9.023   8.742  12.679
 4897SOL     OW16529  14.324  13.651   8.467
 4897SOL    HW116530  14.275  13.730   8.444
 4897SOL    HW216531  14.402  13.683   8.513
 4898SOL     OW16532   2.062   6.861  11.386
 4898SOL    HW116533   2.103   6.826  11.307
 4898SOL    HW216534   2.088   6.800  11.455
 4899SOL     OW16535  12.316   2.469  13.726
 4899SOL    HW116536  12.235   2.519  13.726
 4899SOL    HW216537  12.325   2.437  13.637
 4900SOL     OW16538   9.209  12.686  14.255
 4900SOL    HW116539   9.186  12.598  14.286
 4900SOL    HW216540   9.146  12.703  14.185
 4901SOL     OW16541   3.368   6.619   3.049
 4901SOL    HW116542   3.385   6.528   3.028
 4901SOL    HW216543   3.455   6.661   3.048
 4902SOL     OW16544   1.006   6.127  12.677
 4902SOL    HW116545   0.966   6.069  12.742
 4902SOL    HW216546   0.966   6.102  12.594
 4903SOL     OW16547   4.172  12.053   3.030
 4903SOL    HW116548   4.266  12.033   3.025
 4903SOL    HW216549   4.141  12.041   2.940
 4904SOL     OW16550   0.702   8.283   1.702
 4904SOL    HW116551   0.624   8.231   1.723
 4904SOL    HW216552   0.717   8.268   1.609
 4905SOL     OW16553  13.868   0.111   1.047
 4905SOL    HW116554  13.934   0.084   0.983
 4905SOL    HW216555  13.904   0.082   1.131
 4906SOL     OW16556   7.594   6.940  13.290
 4906SOL    HW116557   7.522   7.003  13.282
 4906SOL    HW216558   7.561   6.860  13.248
 4907SOL     OW16559  13.461   3.202   0.714
 4907SOL    HW116560  13.426   3.174   0.798
 4907SOL    HW216561  13.553   3.175   0.716
 4908SOL     OW16562  12.253   2.295  10.815
 4908SOL    HW116563  12.330   2.343  10.845
 4908SOL    HW216564  12.279   2.203  10.817
 4909SOL     OW16565  10.427   4.827   2.707
 4909SOL    HW116566  10.434   4.732   2.720
 4909SOL    HW216567  10.441   4.864   2.794
 4910SOL     OW16568  11.795   5.284   2.470
 4910SOL    HW116569  11.793   5.377   2.494
 4910SOL    HW216570  11.828   5.283   2.380
 4911SOL     OW16571   3.187  12.731  11.464
 4911SOL    HW116572   3.128  12.691  11.400
 4911SOL    HW216573   3.141  12.721  11.548
 4912SOL     OW16574  11.417   4.867   4.101
 4912SOL    HW116575  11.342   4.902   4.053
 4912SOL    HW216576  11.387   4.782   4.134
 4913SOL     OW16577   1.896   3.922   0.548
 4913SOL    HW116578   1.816   3.869   0.545
 4913SOL    HW216579   1.945   3.895   0.471
 4914SOL     OW16580   4.616   3.620   6.753
 4914SOL    HW116581   4.702   3.642   6.717
 4914SOL    HW216582   4.554   3.674   6.704
 4915SOL     OW16583   3.238   7.250  11.896
 4915SOL    HW116584   3.151   7.248  11.936
 4915SOL    HW216585   3.235   7.183  11.828
 4916SOL     OW16586   4.304  11.204   5.168
 4916SOL    HW116587   4.377  11.167   5.219
 4916SOL    HW216588   4.336  11.205   5.078
 4917SOL     OW16589  12.121   1.056  14.111
 4917SOL    HW116590  12.121   0.973  14.159
 4917SOL    HW216591  12.211   1.088  14.120
 4918SOL     OW16592   2.187  13.636   5.451
 4918SOL    HW116593   2.224  13.597   5.371
 4918SOL    HW216594   2.217  13.726   5.450
 4919SOL     OW16595   1.426  14.600  11.992
 4919SOL    HW116596   1.342  14.639  12.015
 4919SOL    HW216597   1.448  14.639  11.907
 4920SOL     OW16598  10.627   5.208   5.958
 4920SOL    HW116599  10.651   5.134   5.903
 4920SOL    HW216600  10.700   5.269   5.949
 4921SOL     OW16601   3.833   8.482  14.795
 4921SOL    HW116602   3.877   8.543  14.855
 4921SOL    HW216603   3.886   8.402  14.800
 4922SOL     OW16604   7.823   3.331   9.168
 4922SOL    HW116605   7.859   3.262   9.224
 4922SOL    HW216606   7.897   3.389   9.151
 4923SOL     OW16607   6.276   9.681  13.562
 4923SOL    HW116608   6.187   9.707  13.585
 4923SOL    HW216609   6.274   9.671  13.467
 4924SOL     OW16610   0.623   2.932   7.745
 4924SOL    HW116611   0.620   2.860   7.682
 4924SOL    HW216612   0.662   3.005   7.697
 4925SOL     OW16613  10.316   6.196  13.640
 4925SOL    HW116614  10.297   6.226  13.551
 4925SOL    HW216615  10.395   6.244  13.665
 4926SOL     OW16616   7.935  12.662   3.798
 4926SOL    HW116617   8.001  12.598   3.772
 4926SOL    HW216618   7.942  12.666   3.894
 4927SOL     OW16619  10.248  12.913  14.239
 4927SOL    HW116620  10.268  12.945  14.151
 4927SOL    HW216621  10.313  12.955  14.295
 4928SOL     OW16622  13.755   2.477  14.528
 4928SOL    HW116623  13.750   2.423  14.449
 4928SOL    HW216624  13.732   2.417  14.599
 4929SOL     OW16625  14.858   7.941  12.713
 4929SOL    HW116626   0.002   8.030  12.740
 4929SOL    HW216627  14.793   7.954  12.644
 4930SOL     OW16628  13.523   3.126  12.201
 4930SOL    HW116629  13.602   3.106  12.250
 4930SOL    HW216630  13.470   3.179  12.262
 4931SOL     OW16631  13.857   8.653  10.675
 4931SOL    HW116632  13.791   8.585  10.687
 4931SOL    HW216633  13.829   8.699  10.596
 4932SOL     OW16634  12.504  14.769   7.512
 4932SOL    HW116635  12.486  14.688   7.559
 4932SOL    HW216636  12.446  14.834   7.552
 4933SOL     OW16637   5.653   4.431  11.076
 4933SOL    HW116638   5.716   4.371  11.115
 4933SOL    HW216639   5.660   4.511  11.129
 4934SOL     OW16640   5.397  10.100   0.702
 4934SOL    HW116641   5.310  10.121   0.737
 4934SOL    HW216642   5.437  10.186   0.687
 4935SOL     OW16643   6.921   7.041  12.834
 4935SOL    HW116644   6.985   6.977  12.867
 4935SOL    HW216645   6.838   6.992  12.831
 4936SOL     OW16646   2.589  11.407  12.399
 4936SOL    HW116647   2.642  11.438  12.472
 4936SOL    HW216648   2.598  11.476  12.333
 4937SOL     OW16649  12.100   9.432  14.603
 4937SOL    HW116650  12.100   9.494  14.530
 4937SOL    HW216651  12.026   9.460  14.658
 4938SOL     OW16652   7.353   8.064   1.504
 4938SOL    HW116653   7.284   8.052   1.438
 4938SOL    HW216654   7.308   8.103   1.579
 4939SOL     OW16655  14.763  13.683  10.979
 4939SOL    HW116656  14.749  13.742  10.905
 4939SOL    HW216657  14.746  13.736  11.056
 4940SOL     OW16658  10.479  13.150  10.036
 4940SOL    HW116659  10.394  13.173  10.072
 4940SOL    HW216660  10.538  13.149  10.111
 4941SOL     OW16661  13.578   8.442   5.901
 4941SOL    HW116662  13.649   8.496   5.936
 4941SOL    HW216663  13.499   8.475   5.944
 4942SOL     OW16664  13.139  12.775   0.157
 4942SOL    HW116665  13.109  12.865   0.150
 4942SOL    HW216666  13.091  12.740   0.232
 4943SOL     OW16667   2.676  14.833   3.465
 4943SOL    HW116668   2.591  14.836   3.509
 4943SOL    HW216669   2.730  14.777   3.521
 4944SOL     OW16670   0.754  10.991  10.986
 4944SOL    HW116671   0.838  11.009  10.942
 4944SOL    HW216672   0.740  10.897  10.973
 4945SOL     OW16673  11.140  11.715   0.773
 4945SOL    HW116674  11.061  11.741   0.725
 4945SOL    HW216675  11.150  11.622   0.755
 4946SOL     OW16676   4.120   8.781   6.650
 4946SOL    HW116677   4.108   8.859   6.595
 4946SOL    HW216678   4.134   8.710   6.588
 4947SOL     OW16679  13.149   2.849   2.679
 4947SOL    HW116680  13.234   2.894   2.673
 4947SOL    HW216681  13.171   2.756   2.668
 4948SOL     OW16682   1.497  10.842   4.245
 4948SOL    HW116683   1.429  10.785   4.209
 4948SOL    HW216684   1.453  10.925   4.261
 4949SOL     OW16685   2.984   6.815   2.867
 4949SOL    HW116686   2.998   6.832   2.774
 4949SOL    HW216687   3.067   6.839   2.909
 4950SOL     OW16688   0.098   8.230   4.612
 4950SOL    HW116689   0.075   8.143   4.643
 4950SOL    HW216690   0.016   8.279   4.615
 4951SOL     OW16691   9.675  14.136   6.596
 4951SOL    HW116692   9.632  14.177   6.521
 4951SOL    HW216693   9.614  14.148   6.668
 4952SOL     OW16694   7.978   0.947  11.677
 4952SOL    HW116695   8.046   0.943  11.745
 4952SOL    HW216696   7.906   0.997  11.718
 4953SOL     OW16697   1.542  12.005   3.838
 4953SOL    HW116698   1.555  11.953   3.759
 4953SOL    HW216699   1.449  11.997   3.857
 4954SOL     OW16700  13.690  12.856   8.046
 4954SOL    HW116701  13.718  12.926   8.105
 4954SOL    HW216702  13.697  12.894   7.958
 4955SOL     OW16703  11.306  14.792   2.316
 4955SOL    HW116704  11.249  14.867   2.331
 4955SOL    HW216705  11.316  14.752   2.402
 4956SOL     OW16706   0.291  10.796   9.586
 4956SOL    HW116707   0.383  10.771   9.583
 4956SOL    HW216708   0.264  10.799   9.494
 4957SOL     OW16709  12.634   4.949  14.722
 4957SOL    HW116710  12.717   4.901  14.719
 4957SOL    HW216711  12.613   4.955  14.815
 4958SOL     OW16712   4.068   5.845   4.594
 4958SOL    HW116713   4.077   5.888   4.679
 4958SOL    HW216714   4.130   5.773   4.598
 4959SOL     OW16715   0.591   9.631  13.583
 4959SOL    HW116716   0.509   9.679  13.575
 4959SOL    HW216717   0.604   9.623  13.678
 4960SOL     OW16718   8.191   2.463  10.197
 4960SOL    HW116719   8.255   2.475  10.126
 4960SOL    HW216720   8.229   2.511  10.271
 4961SOL     OW16721  13.054  11.401   9.968
 4961SOL    HW116722  13.041  11.414  10.062
 4961SOL    HW216723  12.965  11.391   9.933
 4962SOL     OW16724   6.281   4.308  14.581
 4962SOL    HW116725   6.226   4.386  14.571
 4962SOL    HW216726   6.258   4.273  14.667
 4963SOL     OW16727  10.321  13.703   9.156
 4963SOL    HW116728  10.357  13.730   9.071
 4963SOL    HW216729  10.272  13.623   9.137
 4964SOL     OW16730  10.784   7.922   2.258
 4964SOL    HW116731  10.828   7.984   2.315
 4964SOL    HW216732  10.706   7.969   2.227
 4965SOL     OW16733  13.876  13.000   6.115
 4965SOL    HW116734  13.918  13.086   6.121
 4965SOL    HW216735  13.949  12.938   6.118
 4966SOL     OW16736  11.608   8.108   2.947
 4966SOL    HW116737  11.581   8.038   3.007
 4966SOL    HW216738  11.549   8.099   2.872
 4967SOL     OW16739   6.780   1.000  12.377
 4967SOL    HW116740   6.842   0.933  12.405
 4967SOL    HW216741   6.830   1.082  12.379
 4968SOL     OW16742   9.039   5.987   2.351
 4968SOL    HW116743   8.959   6.029   2.321
 4968SOL    HW216744   9.010   5.902   2.386
 4969SOL     OW16745   5.829   6.149  11.800
 4969SOL    HW116746   5.814   6.168  11.893
 4969SOL    HW216747   5.882   6.223  11.770
 4970SOL     OW16748   3.356  10.765   2.219
 4970SOL    HW116749   3.366  10.856   2.249
 4970SOL    HW216750   3.262  10.751   2.214
 4971SOL     OW16751   6.251  11.916   2.164
 4971SOL    HW116752   6.305  11.918   2.242
 4971SOL    HW216753   6.237  12.008   2.141
 4972SOL     OW16754   1.255   6.337   6.449
 4972SOL    HW116755   1.348   6.337   6.424
 4972SOL    HW216756   1.209   6.321   6.367
 4973SOL     OW16757  11.177  11.624   9.183
 4973SOL    HW116758  11.138  11.594   9.100
 4973SOL    HW216759  11.271  11.621   9.168
 4974SOL     OW16760  13.088   8.884   2.858
 4974SOL    HW116761  13.108   8.928   2.775
 4974SOL    HW216762  12.996   8.859   2.849
 4975SOL     OW16763   1.065  11.866   6.067
 4975SOL    HW116764   1.016  11.826   5.996
 4975SOL    HW216765   0.999  11.883   6.135
 4976SOL     OW16766   7.735   5.921   1.247
 4976SOL    HW116767   7.827   5.897   1.242
 4976SOL    HW216768   7.715   5.961   1.163
 4977SOL     OW16769  10.438   4.580  14.768
 4977SOL    HW116770  10.398   4.659  14.807
 4977SOL    HW216771  10.409   4.509  14.825
 4978SOL     OW16772   8.218   0.098   0.576
 4978SOL    HW116773   8.158   0.116   0.504
 4978SOL    HW216774   8.252   0.011   0.557
 4979SOL     OW16775   9.765  10.135  14.419
 4979SOL    HW116776   9.839  10.142  14.358
 4979SOL    HW216777   9.734  10.225  14.428
 4980SOL     OW16778   7.551   3.149   2.353
 4980SOL    HW116779   7.468   3.193   2.368
 4980SOL    HW216780   7.529   3.056   2.346
 4981SOL     OW16781   9.137   8.366  14.404
 4981SOL    HW116782   9.048   8.334  14.411
 4981SOL    HW216783   9.186   8.318  14.471
 4982SOL     OW16784   1.047   8.051   8.789
 4982SOL    HW116785   1.094   8.062   8.872
 4982SOL    HW216786   1.082   8.121   8.733
 4983SOL     OW16787   1.599   3.514   4.599
 4983SOL    HW116788   1.597   3.503   4.504
 4983SOL    HW216789   1.689   3.492   4.624
 4984SOL     OW16790   9.926   4.235   8.339
 4984SOL    HW116791   9.923   4.326   8.311
 4984SOL    HW216792   9.936   4.185   8.258
 4985SOL     OW16793   3.047  13.812  11.249
 4985SOL    HW116794   2.963  13.816  11.202
 4985SOL    HW216795   3.113  13.802  11.181
 4986SOL     OW16796   4.093   0.328   7.935
 4986SOL    HW116797   4.121   0.419   7.933
 4986SOL    HW216798   4.003   0.329   7.901
 4987SOL     OW16799   0.266   2.592   2.120
 4987SOL    HW116800   0.215   2.512   2.127
 4987SOL    HW216801   0.297   2.609   2.209
 4988SOL     OW16802   3.121   8.668  13.662
 4988SOL    HW116803   3.034   8.674  13.702
 4988SOL    HW216804   3.179   8.645  13.734
 4989SOL     OW16805   6.964   5.311   5.634
 4989SOL    HW116806   7.011   5.331   5.554
 4989SOL    HW216807   7.027   5.328   5.704
 4990SOL     OW16808   4.720   5.902   6.924
 4990SOL    HW116809   4.736   5.963   6.852
 4990SOL    HW216810   4.753   5.818   6.892
 4991SOL     OW16811   9.269   7.219   1.700
 4991SOL    HW116812   9.232   7.164   1.769
 4991SOL    HW216813   9.288   7.303   1.743
 4992SOL     OW16814   7.487   7.687  13.866
 4992SOL    HW116815   7.461   7.654  13.952
 4992SOL    HW216816   7.580   7.667  13.859
 4993SOL     OW16817   6.743   6.014  13.092
 4993SOL    HW116818   6.743   5.970  13.008
 4993SOL    HW216819   6.660   5.990  13.133
 4994SOL     OW16820   5.245   6.487   0.626
 4994SOL    HW116821   5.210   6.467   0.713
 4994SOL    HW216822   5.295   6.568   0.638
 4995SOL     OW16823  14.122   4.239   9.605
 4995SOL    HW116824  14.203   4.213   9.648
 4995SOL    HW216825  14.113   4.178   9.532
 4996SOL     OW16826   8.535  10.331  13.715
 4996SOL    HW116827   8.479  10.384  13.771
 4996SOL    HW216828   8.488  10.326  13.632
 4997SOL     OW16829  11.817   6.925   9.615
 4997SOL    HW116830  11.792   7.018   9.611
 4997SOL    HW216831  11.906   6.925   9.649
 4998SOL     OW16832   7.835   9.917   8.929
 4998SOL    HW116833   7.897   9.986   8.904
 4998SOL    HW216834   7.879   9.836   8.904
 4999SOL     OW16835   0.754   5.026   0.299
 4999SOL    HW116836   0.705   4.948   0.274
 4999SOL    HW216837   0.700   5.068   0.366
 5000SOL     OW16838  12.887   5.220  11.600
 5000SOL    HW116839  12.841   5.179  11.674
 5000SOL    HW216840  12.976   5.235  11.633
 5001SOL     OW16841   8.445   3.249   5.429
 5001SOL    HW116842   8.410   3.272   5.515
 5001SOL    HW216843   8.453   3.153   5.432
 5002SOL     OW16844   0.382   7.926  12.415
 5002SOL    HW116845   0.376   7.997  12.350
 5002SOL    HW216846   0.442   7.959  12.481
 5003SOL     OW16847   3.792   7.792  14.235
 5003SOL    HW116848   3.813   7.732  14.307
 5003SOL    HW216849   3.857   7.772  14.168
 5004SOL     OW16850  13.868   3.879   1.110
 5004SOL    HW116851  13.934   3.913   1.169
 5004SOL    HW216852  13.800   3.946   1.108
 5005SOL     OW16853   0.773   1.931  12.722
 5005SOL    HW116854   0.846   1.907  12.779
 5005SOL    HW216855   0.772   2.027  12.725
 5006SOL     OW16856  11.374  14.796   5.119
 5006SOL    HW116857  11.430  14.739   5.171
 5006SOL    HW216858  11.328  14.850   5.183
 5007SOL     OW16859  11.349   4.915   4.718
 5007SOL    HW116860  11.375   4.994   4.766
 5007SOL    HW216861  11.261   4.895   4.751
 5008SOL     OW16862   5.751   9.979  12.267
 5008SOL    HW116863   5.701  10.019  12.196
 5008SOL    HW216864   5.823   9.933  12.223
 5009SOL     OW16865  14.122   8.075   6.095
 5009SOL    HW116866  14.108   8.162   6.131
 5009SOL    HW216867  14.101   8.083   6.002
 5010SOL     OW16868   7.968  10.006   3.524
 5010SOL    HW116869   8.050  10.056   3.519
 5010SOL    HW216870   7.920  10.046   3.597
 5011SOL     OW16871   1.879  11.171   8.406
 5011SOL    HW116872   1.828  11.252   8.400
 5011SOL    HW216873   1.960  11.197   8.448
 5012SOL     OW16874   4.056   4.814   4.189
 5012SOL    HW116875   4.021   4.898   4.219
 5012SOL    HW216876   3.987   4.778   4.133
 5013SOL     OW16877   4.293   9.626   3.705
 5013SOL    HW116878   4.292   9.592   3.615
 5013SOL    HW216879   4.384   9.649   3.721
 5014SOL     OW16880  13.477   9.339   7.477
 5014SOL    HW116881  13.400   9.385   7.442
 5014SOL    HW216882  13.444   9.253   7.503
 5015SOL     OW16883   3.638  11.872   6.580
 5015SOL    HW116884   3.631  11.963   6.611
 5015SOL    HW216885   3.625  11.819   6.658
 5016SOL     OW16886   9.461   0.738  12.211
 5016SOL    HW116887   9.428   0.734  12.121
 5016SOL    HW216888   9.515   0.818  12.213
 5017SOL     OW16889   5.597  13.991  11.298
 5017SOL    HW116890   5.516  13.989  11.247
 5017SOL    HW216891   5.664  14.018  11.236
 5018SOL     OW16892   8.437   6.742  11.296
 5018SOL    HW116893   8.455   6.778  11.209
 5018SOL    HW216894   8.403   6.654  11.278
 5019SOL     OW16895  11.236  14.014  10.377
 5019SOL    HW116896  11.207  13.928  10.345
 5019SOL    HW216897  11.155  14.055  10.411
 5020SOL     OW16898   5.075  14.359   9.634
 5020SOL    HW116899   5.060  14.268   9.661
 5020SOL    HW216900   4.988  14.399   9.640
 5021SOL     OW16901  11.357   2.661  12.523
 5021SOL    HW116902  11.387   2.574  12.549
 5021SOL    HW216903  11.372   2.664  12.428
 5022SOL     OW16904  13.282   2.089   1.702
 5022SOL    HW116905  13.218   2.035   1.655
 5022SOL    HW216906  13.240   2.175   1.707
 5023SOL     OW16907   5.380   4.982   0.250
 5023SOL    HW116908   5.372   4.980   0.346
 5023SOL    HW216909   5.369   5.074   0.228
 5024SOL     OW16910  11.095   2.848   0.560
 5024SOL    HW116911  11.118   2.917   0.497
 5024SOL    HW216912  11.177   2.828   0.605
 5025SOL     OW16913  10.441   0.660  14.576
 5025SOL    HW116914  10.456   0.744  14.619
 5025SOL    HW216915  10.434   0.683  14.483
 5026SOL     OW16916   7.605  14.488   8.227
 5026SOL    HW116917   7.642  14.564   8.273
 5026SOL    HW216918   7.562  14.526   8.150
 5027SOL     OW16919   8.305   4.943  12.399
 5027SOL    HW116920   8.258   5.024  12.379
 5027SOL    HW216921   8.294   4.932  12.493
 5028SOL     OW16922  12.298   4.302   1.221
 5028SOL    HW116923  12.375   4.274   1.173
 5028SOL    HW216924  12.275   4.228   1.276
 5029SOL     OW16925  10.662   4.834   2.425
 5029SOL    HW116926  10.681   4.857   2.334
 5029SOL    HW216927  10.663   4.918   2.471
 5030SOL     OW16928  11.485  13.554   2.399
 5030SOL    HW116929  11.443  13.558   2.313
 5030SOL    HW216930  11.481  13.462   2.423
 5031SOL     OW16931  13.619   6.172   5.702
 5031SOL    HW116932  13.644   6.090   5.658
 5031SOL    HW216933  13.577   6.224   5.634
 5032SOL     OW16934   4.846  13.492   0.505
 5032SOL    HW116935   4.927  13.511   0.457
 5032SOL    HW216936   4.828  13.572   0.554
 5033SOL     OW16937   5.061   3.004  14.742
 5033SOL    HW116938   5.124   3.052  14.796
 5033SOL    HW216939   4.992   2.977  14.802
 5034SOL     OW16940  11.035  13.426  14.396
 5034SOL    HW116941  11.087  13.391  14.469
 5034SOL    HW216942  10.976  13.489  14.437
 5035SOL     OW16943  11.145   5.556   4.741
 5035SOL    HW116944  11.117   5.492   4.806
 5035SOL    HW216945  11.239   5.542   4.731
 5036SOL     OW16946   0.175  10.264   1.251
 5036SOL    HW116947   0.269  10.246   1.249
 5036SOL    HW216948   0.158  10.317   1.173
 5037SOL     OW16949   1.483   7.489   7.804
 5037SOL    HW116950   1.414   7.430   7.832
 5037SOL    HW216951   1.496   7.469   7.711
 5038SOL     OW16952  11.308  12.301   9.058
 5038SOL    HW116953  11.296  12.290   8.964
 5038SOL    HW216954  11.361  12.380   9.067
 5039SOL     OW16955  14.438   3.078  13.008
 5039SOL    HW116956  14.438   3.153  13.068
 5039SOL    HW216957  14.466   3.115  12.924
 5040SOL     OW16958   5.897  13.639  14.486
 5040SOL    HW116959   5.854  13.562  14.449
 5040SOL    HW216960   5.990  13.617  14.484
 5041SOL     OW16961   8.403  10.933   5.510
 5041SOL    HW116962   8.313  10.951   5.481
 5041SOL    HW216963   8.432  10.861   5.454
 5042SOL     OW16964  13.574  14.603   7.393
 5042SOL    HW116965  13.519  14.680   7.381
 5042SOL    HW216966  13.593  14.602   7.487
 5043SOL     OW16967   8.941   4.439   7.140
 5043SOL    HW116968   8.898   4.511   7.187
 5043SOL    HW216969   8.930   4.460   7.047
 5044SOL     OW16970  14.552   6.418   7.875
 5044SOL    HW116971  14.511   6.354   7.933
 5044SOL    HW216972  14.484   6.439   7.811
 5045SOL     OW16973  12.009   6.391  14.456
 5045SOL    HW116974  11.955   6.356  14.527
 5045SOL    HW216975  12.068   6.319  14.433
 5046SOL     OW16976   8.874   2.978   1.369
 5046SOL    HW116977   8.927   2.904   1.339
 5046SOL    HW216978   8.791   2.968   1.323
 5047SOL     OW16979   9.634   4.446   8.214
 5047SOL    HW116980   9.677   4.529   8.234
 5047SOL    HW216981   9.654   4.430   8.122
 5048SOL     OW16982  13.977   0.679  11.962
 5048SOL    HW116983  13.910   0.672  12.030
 5048SOL    HW216984  13.932   0.716  11.887
 5049SOL     OW16985   5.583   1.121   2.194
 5049SOL    HW116986   5.667   1.163   2.176
 5049SOL    HW216987   5.519   1.192   2.191
 5050SOL     OW16988   8.943  10.237   4.347
 5050SOL    HW116989   8.880  10.257   4.277
 5050SOL    HW216990   8.920  10.296   4.418
 5051SOL     OW16991  10.997  11.409   8.709
 5051SOL    HW116992  11.069  11.417   8.647
 5051SOL    HW216993  10.928  11.464   8.674
 5052SOL     OW16994  10.497  13.517   7.079
 5052SOL    HW116995  10.546  13.541   7.157
 5052SOL    HW216996  10.565  13.494   7.014
 5053SOL     OW16997   9.189  12.426   1.694
 5053SOL    HW116998   9.244  12.358   1.734
 5053SOL    HW216999   9.229  12.508   1.722
 5054SOL     OW17000  12.941   7.268   4.267
 5054SOL    HW117001  12.943   7.249   4.173
 5054SOL    HW217002  12.865   7.324   4.279
 5055SOL     OW17003   7.758   4.830   0.511
 5055SOL    HW117004   7.717   4.757   0.559
 5055SOL    HW217005   7.725   4.820   0.422
 5056SOL     OW17006  12.689  11.124  14.067
 5056SOL    HW117007  12.657  11.111  13.978
 5056SOL    HW217008  12.628  11.188  14.105
 5057SOL     OW17009   0.526   2.699   7.179
 5057SOL    HW117010   0.472   2.712   7.257
 5057SOL    HW217011   0.581   2.624   7.200
 5058SOL     OW17012   8.012   2.958  12.152
 5058SOL    HW117013   8.010   2.944  12.057
 5058SOL    HW217014   7.935   2.912  12.185
 5059SOL     OW17015   1.134   2.002   9.940
 5059SOL    HW117016   1.105   2.072   9.881
 5059SOL    HW217017   1.140   2.044  10.026
 5060SOL     OW17018   8.167  13.977  12.489
 5060SOL    HW117019   8.072  13.979  12.480
 5060SOL    HW217020   8.184  14.006  12.579
 5061SOL     OW17021  14.749   1.490  11.883
 5061SOL    HW117022  14.697   1.424  11.929
 5061SOL    HW217023  14.821   1.440  11.843
 5062SOL     OW17024  13.100  11.696  13.083
 5062SOL    HW117025  13.017  11.711  13.129
 5062SOL    HW217026  13.143  11.627  13.133
 5063SOL     OW17027  11.554  12.866  13.790
 5063SOL    HW117028  11.628  12.912  13.749
 5063SOL    HW217029  11.595  12.809  13.855
 5064SOL     OW17030   4.601  13.212   2.205
 5064SOL    HW117031   4.640  13.234   2.120
 5064SOL    HW217032   4.507  13.226   2.194
 5065SOL     OW17033   6.142   8.795   5.089
 5065SOL    HW117034   6.097   8.787   5.173
 5065SOL    HW217035   6.072   8.805   5.024
 5066SOL     OW17036   6.000   5.905   2.369
 5066SOL    HW117037   5.937   5.835   2.352
 5066SOL    HW217038   6.086   5.865   2.354
 5067SOL     OW17039   8.735  10.492   6.762
 5067SOL    HW117040   8.813  10.544   6.743
 5067SOL    HW217041   8.761  10.434   6.833
 5068SOL     OW17042  10.723   1.836   8.941
 5068SOL    HW117043  10.788   1.893   8.901
 5068SOL    HW217044  10.764   1.749   8.943
 5069SOL     OW17045  10.126  14.826  13.548
 5069SOL    HW117046  10.042  14.828  13.502
 5069SOL    HW217047  10.165  14.742  13.523
 5070SOL     OW17048   3.546  14.830   4.771
 5070SOL    HW117049   3.589  14.834   4.685
 5070SOL    HW217050   3.604  14.879   4.829
 5071SOL     OW17051   1.028   4.714  13.401
 5071SOL    HW117052   0.988   4.628  13.384
 5071SOL    HW217053   1.010   4.731  13.493
 5072SOL     OW17054  11.823   8.721  13.665
 5072SOL    HW117055  11.862   8.638  13.636
 5072SOL    HW217056  11.781   8.757  13.587
 5073SOL     OW17057  11.999   4.379   2.664
 5073SOL    HW117058  11.979   4.361   2.756
 5073SOL    HW217059  11.923   4.427   2.632
 5074SOL     OW17060   8.557   8.670  12.877
 5074SOL    HW117061   8.510   8.752  12.893
 5074SOL    HW217062   8.492   8.602  12.894
 5075SOL     OW17063   6.130   5.251  11.293
 5075SOL    HW117064   6.154   5.342  11.309
 5075SOL    HW217065   6.036   5.247  11.313
 5076SOL     OW17066   5.696  12.305  10.931
 5076SOL    HW117067   5.784  12.268  10.917
 5076SOL    HW217068   5.653  12.297  10.846
 5077SOL     OW17069   8.335   6.353  13.426
 5077SOL    HW117070   8.336   6.441  13.465
 5077SOL    HW217071   8.251   6.349  13.379
 5078SOL     OW17072   7.795   6.997   7.256
 5078SOL    HW117073   7.841   7.065   7.305
 5078SOL    HW217074   7.857   6.924   7.253
 5079SOL     OW17075  11.266   8.218   9.191
 5079SOL    HW117076  11.337   8.216   9.126
 5079SOL    HW217077  11.199   8.160   9.155
 5080SOL     OW17078   1.628  14.787   0.489
 5080SOL    HW117079   1.570  14.819   0.558
 5080SOL    HW217080   1.570  14.749   0.423
 5081SOL     OW17081   2.874   9.770   8.160
 5081SOL    HW117082   2.957   9.722   8.164
 5081SOL    HW217083   2.896   9.859   8.188
 5082SOL     OW17084   2.135  14.364   2.173
 5082SOL    HW117085   2.169  14.289   2.222
 5082SOL    HW217086   2.142  14.339   2.081
 5083SOL     OW17087   3.418   9.967   7.940
 5083SOL    HW117088   3.338   9.941   7.894
 5083SOL    HW217089   3.446   9.888   7.986
 5084SOL     OW17090   5.940  11.476  10.777
 5084SOL    HW117091   5.878  11.491  10.849
 5084SOL    HW217092   5.914  11.392  10.741
 5085SOL     OW17093   0.648   9.049  12.764
 5085SOL    HW117094   0.603   9.052  12.849
 5085SOL    HW217095   0.683   9.137  12.752
 5086SOL     OW17096  11.903   4.791  13.541
 5086SOL    HW117097  11.995   4.770  13.558
 5086SOL    HW217098  11.895   4.884  13.563
 5087SOL     OW17099   4.835  13.186   7.590
 5087SOL    HW117100   4.753  13.212   7.548
 5087SOL    HW217101   4.897  13.176   7.518
 5088SOL     OW17102  10.361  10.463  13.905
 5088SOL    HW117103  10.292  10.521  13.872
 5088SOL    HW217104  10.442  10.513  13.895
 5089SOL     OW17105   7.833  14.248   5.919
 5089SOL    HW117106   7.752  14.232   5.871
 5089SOL    HW217107   7.811  14.318   5.980
 5090SOL     OW17108   3.205  11.468   1.204
 5090SOL    HW117109   3.144  11.458   1.278
 5090SOL    HW217110   3.193  11.388   1.153
 5091SOL     OW17111   0.457   6.572   8.977
 5091SOL    HW117112   0.372   6.549   9.015
 5091SOL    HW217113   0.462   6.521   8.897
 5092SOL     OW17114  12.715  13.280  13.238
 5092SOL    HW117115  12.702  13.299  13.145
 5092SOL    HW217116  12.662  13.346  13.283
 5093SOL     OW17117   5.871   2.341   3.710
 5093SOL    HW117118   5.946   2.339   3.769
 5093SOL    HW217119   5.900   2.293   3.633
 5094SOL     OW17120  14.787   1.577   3.222
 5094SOL    HW117121  14.783   1.572   3.126
 5094SOL    HW217122   0.000   1.582   3.242
 5095SOL     OW17123  10.669   4.946  14.188
 5095SOL    HW117124  10.635   5.035  14.181
 5095SOL    HW217125  10.681   4.917  14.098
 5096SOL     OW17126   8.358   3.264   5.666
 5096SOL    HW117127   8.300   3.194   5.696
 5096SOL    HW217128   8.300   3.339   5.653
 5097SOL     OW17129   4.748   5.949   2.631
 5097SOL    HW117130   4.724   6.011   2.700
 5097SOL    HW217131   4.670   5.944   2.576
 5098SOL     OW17132   2.381   0.016   8.412
 5098SOL    HW117133   2.404   0.060   8.494
 5098SOL    HW217134   2.450   0.042   8.351
 5099SOL     OW17135   7.738   4.853  11.248
 5099SOL    HW117136   7.659   4.878  11.294
 5099SOL    HW217137   7.806   4.850  11.316
 5100SOL     OW17138   0.712   5.825   4.217
 5100SOL    HW117139   0.747   5.789   4.135
 5100SOL    HW217140   0.629   5.779   4.229
 5101SOL     OW17141   4.098   2.784   8.536
 5101SOL    HW117142   4.022   2.839   8.517
 5101SOL    HW217143   4.085   2.706   8.482
 5102SOL     OW17144  12.415   9.284   1.257
 5102SOL    HW117145  12.409   9.348   1.185
 5102SOL    HW217146  12.367   9.207   1.224
 5103SOL     OW17147  10.960   2.813   1.886
 5103SOL    HW117148  10.985   2.832   1.796
 5103SOL    HW217149  10.866   2.832   1.890
 5104SOL     OW17150  12.252   0.588   6.051
 5104SOL    HW117151  12.230   0.597   6.144
 5104SOL    HW217152  12.309   0.664   6.033
 5105SOL     OW17153  11.308  12.502   6.683
 5105SOL    HW117154  11.395  12.540   6.675
 5105SOL    HW217155  11.255  12.546   6.616
 5106SOL     OW17156  10.242   1.685  10.457
 5106SOL    HW117157  10.282   1.770  10.478
 5106SOL    HW217158  10.301   1.647  10.392
 5107SOL     OW17159   6.367   7.746   9.990
 5107SOL    HW117160   6.326   7.660   9.988
 5107SOL    HW217161   6.296   7.805  10.015
 5108SOL     OW17162  11.683  14.482  12.913
 5108SOL    HW117163  11.612  14.524  12.962
 5108SOL    HW217164  11.743  14.554  12.892
 5109SOL     OW17165   1.496  14.556  10.496
 5109SOL    HW117166   1.429  14.499  10.458
 5109SOL    HW217167   1.579  14.514  10.474
 5110SOL     OW17168  13.630   6.814  11.192
 5110SOL    HW117169  13.642   6.721  11.210
 5110SOL    HW217170  13.539   6.821  11.163
 5111SOL     OW17171  10.732  13.976  13.257
 5111SOL    HW117172  10.710  14.052  13.204
 5111SOL    HW217173  10.761  14.012  13.341
 5112SOL     OW17174   4.516  14.751   3.579
 5112SOL    HW117175   4.599  14.792   3.603
 5112SOL    HW217176   4.525  14.660   3.605
 5113SOL     OW17177   2.264  14.042   7.750
 5113SOL    HW117178   2.328  14.063   7.682
 5113SOL    HW217179   2.179  14.058   7.709
 5114SOL     OW17180   0.603   7.468   0.401
 5114SOL    HW117181   0.552   7.402   0.353
 5114SOL    HW217182   0.581   7.454   0.493
 5115SOL     OW17183  10.189  13.155   1.791
 5115SOL    HW117184  10.208  13.193   1.877
 5115SOL    HW217185  10.095  13.139   1.792
 5116SOL     OW17186  13.168   9.776   7.191
 5116SOL    HW117187  13.162   9.681   7.196
 5116SOL    HW217188  13.145   9.796   7.100
 5117SOL     OW17189  13.763  13.222   2.186
 5117SOL    HW117190  13.856  13.208   2.202
 5117SOL    HW217191  13.753  13.317   2.183
 5118SOL     OW17192  11.330  14.516   4.079
 5118SOL    HW117193  11.373  14.457   4.141
 5118SOL    HW217194  11.240  14.485   4.075
 5119SOL     OW17195   0.247   6.942  13.455
 5119SOL    HW117196   0.318   6.914  13.397
 5119SOL    HW217197   0.262   6.893  13.536
 5120SOL     OW17198   9.119   3.338   2.454
 5120SOL    HW117199   9.194   3.294   2.414
 5120SOL    HW217200   9.043   3.287   2.425
 5121SOL     OW17201   1.274   0.509   2.686
 5121SOL    HW117202   1.264   0.422   2.726
 5121SOL    HW217203   1.331   0.494   2.610
 5122SOL     OW17204  11.331  11.866  11.998
 5122SOL    HW117205  11.258  11.928  11.989
 5122SOL    HW217206  11.354  11.870  12.091
 5123SOL     OW17207  14.379   8.770   7.358
 5123SOL    HW117208  14.346   8.718   7.284
 5123SOL    HW217209  14.348   8.859   7.340
 5124SOL     OW17210   1.765   0.922   0.640
 5124SOL    HW117211   1.830   0.980   0.600
 5124SOL    HW217212   1.695   0.915   0.576
 5125SOL     OW17213   5.135   7.859   8.942
 5125SOL    HW117214   5.101   7.777   8.907
 5125SOL    HW217215   5.167   7.907   8.866
 5126SOL     OW17216   5.501  14.581  14.078
 5126SOL    HW117217   5.434  14.513  14.069
 5126SOL    HW217218   5.526  14.602  13.988
 5127SOL     OW17219   6.252   2.727  10.140
 5127SOL    HW117220   6.206   2.688  10.214
 5127SOL    HW217221   6.205   2.695  10.063
 5128SOL     OW17222  14.045  11.169  12.393
 5128SOL    HW117223  14.033  11.234  12.463
 5128SOL    HW217224  13.970  11.110  12.404
 5129SOL     OW17225  10.661   4.268  12.110
 5129SOL    HW117226  10.623   4.239  12.028
 5129SOL    HW217227  10.645   4.195  12.171
 5130SOL     OW17228   1.921   4.631  14.794
 5130SOL    HW117229   1.904   4.577  14.870
 5130SOL    HW217230   1.853   4.699  14.797
 5131SOL     OW17231   9.436  13.848   2.068
 5131SOL    HW117232   9.403  13.777   2.013
 5131SOL    HW217233   9.358  13.895   2.096
 5132SOL     OW17234   7.386  12.790   4.052
 5132SOL    HW117235   7.479  12.776   4.068
 5132SOL    HW217236   7.377  12.885   4.044
 5133SOL     OW17237   0.253   1.774  13.528
 5133SOL    HW117238   0.221   1.730  13.449
 5133SOL    HW217239   0.283   1.859  13.497
 5134SOL     OW17240   2.770   1.111  10.695
 5134SOL    HW117241   2.815   1.183  10.650
 5134SOL    HW217242   2.706   1.153  10.752
 5135SOL     OW17243  12.110  14.292  11.351
 5135SOL    HW117244  12.042  14.278  11.285
 5135SOL    HW217245  12.069  14.265  11.433
 5136SOL     OW17246   1.625   3.235   3.069
 5136SOL    HW117247   1.579   3.168   3.018
 5136SOL    HW217248   1.563   3.308   3.074
 5137SOL     OW17249   7.189   1.628   2.950
 5137SOL    HW117250   7.124   1.698   2.952
 5137SOL    HW217251   7.142   1.553   2.913
 5138SOL     OW17252  11.740   6.553  13.849
 5138SOL    HW117253  11.715   6.623  13.789
 5138SOL    HW217254  11.822   6.584  13.888
 5139SOL     OW17255   7.837   0.051   6.207
 5139SOL    HW117256   7.930   0.069   6.194
 5139SOL    HW217257   7.806   0.022   6.121
 5140SOL     OW17258   0.879   2.733  11.307
 5140SOL    HW117259   0.789   2.747  11.279
 5140SOL    HW217260   0.930   2.794  11.253
 5141SOL     OW17261   4.691   8.816  14.689
 5141SOL    HW117262   4.733   8.801  14.774
 5141SOL    HW217263   4.644   8.735  14.671
 5142SOL     OW17264  10.162   8.141  10.193
 5142SOL    HW117265  10.156   8.189  10.111
 5142SOL    HW217266  10.195   8.205  10.256
 5143SOL     OW17267   9.836   0.898   8.073
 5143SOL    HW117268   9.904   0.852   8.023
 5143SOL    HW217269   9.841   0.860   8.160
 5144SOL     OW17270   3.334  11.250  11.973
 5144SOL    HW117271   3.414  11.302  11.960
 5144SOL    HW217272   3.364  11.173  12.023
 5145SOL     OW17273  11.862  14.747   9.175
 5145SOL    HW117274  11.931  14.785   9.229
 5145SOL    HW217275  11.782  14.789   9.205
 5146SOL     OW17276  11.061   7.972  14.865
 5146SOL    HW117277  11.150   7.943  14.847
 5146SOL    HW217278  11.070   8.064   0.009
 5147SOL     OW17279   0.918   8.777   8.901
 5147SOL    HW117280   0.978   8.723   8.850
 5147SOL    HW217281   0.953   8.775   8.990
 5148SOL     OW17282   1.934   5.310   0.000
 5148SOL    HW117283   1.885   5.375  14.829
 5148SOL    HW217284   1.928   5.340   0.091
 5149SOL     OW17285  11.165   9.955   0.088
 5149SOL    HW117286  11.221  10.011   0.035
 5149SOL    HW217287  11.224   9.918   0.154
 5150SOL     OW17288   4.448   1.966  11.794
 5150SOL    HW117289   4.513   1.955  11.863
 5150SOL    HW217290   4.381   2.023  11.832
 5151SOL     OW17291  11.922  14.156   1.058
 5151SOL    HW117292  12.016  14.152   1.071
 5151SOL    HW217293  11.884  14.144   1.145
 5152SOL     OW17294   0.160  13.385   3.605
 5152SOL    HW117295   0.215  13.440   3.661
 5152SOL    HW217296   0.114  13.327   3.666
 5153SOL     OW17297   4.056   9.124   5.593
 5153SOL    HW117298   4.139   9.076   5.590
 5153SOL    HW217299   3.989   9.055   5.598
 5154SOL     OW17300   2.801  14.162  13.008
 5154SOL    HW117301   2.893  14.152  12.984
 5154SOL    HW217302   2.754  14.158  12.924
 5155SOL     OW17303   7.861  12.087   2.472
 5155SOL    HW117304   7.864  12.046   2.558
 5155SOL    HW217305   7.948  12.071   2.436
 5156SOL     OW17306  12.156   9.150  11.742
 5156SOL    HW117307  12.210   9.225  11.716
 5156SOL    HW217308  12.181   9.134  11.833
 5157SOL     OW17309  12.841   6.926  12.059
 5157SOL    HW117310  12.811   6.913  11.969
 5157SOL    HW217311  12.761   6.932  12.111
 5158SOL     OW17312   4.899   2.784   5.309
 5158SOL    HW117313   4.905   2.748   5.397
 5158SOL    HW217314   4.808   2.768   5.283
 5159SOL     OW17315  13.162   3.112   2.509
 5159SOL    HW117316  13.212   3.161   2.443
 5159SOL    HW217317  13.120   3.041   2.460
 5160SOL     OW17318   6.740   4.680   2.859
 5160SOL    HW117319   6.743   4.690   2.954
 5160SOL    HW217320   6.736   4.770   2.826
 5161SOL     OW17321   9.191   8.184   6.873
 5161SOL    HW117322   9.224   8.256   6.927
 5161SOL    HW217323   9.254   8.177   6.801
 5162SOL     OW17324   3.653   6.057   4.302
 5162SOL    HW117325   3.629   6.108   4.379
 5162SOL    HW217326   3.569   6.039   4.258
 5163SOL     OW17327   8.488   2.986   2.117
 5163SOL    HW117328   8.481   2.926   2.044
 5163SOL    HW217329   8.456   3.070   2.083
 5164SOL     OW17330   0.639   6.177   7.166
 5164SOL    HW117331   0.643   6.086   7.195
 5164SOL    HW217332   0.563   6.181   7.108
 5165SOL     OW17333   8.657  14.207   9.045
 5165SOL    HW117334   8.683  14.164   9.127
 5165SOL    HW217335   8.601  14.143   9.001
 5166SOL     OW17336   6.138  10.275   8.495
 5166SOL    HW117337   6.232  10.275   8.512
 5166SOL    HW217338   6.115  10.368   8.493
 5167SOL     OW17339  11.236   2.825   4.630
 5167SOL    HW117340  11.223   2.919   4.613
 5167SOL    HW217341  11.220   2.784   4.545
 5168SOL     OW17342   2.471   7.826  12.121
 5168SOL    HW117343   2.563   7.822  12.095
 5168SOL    HW217344   2.427   7.764  12.063
 5169SOL     OW17345   6.269  14.078  10.554
 5169SOL    HW117346   6.228  14.164  10.548
 5169SOL    HW217347   6.269  14.059  10.648
 5170SOL     OW17348   4.651   7.020   0.707
 5170SOL    HW117349   4.691   6.944   0.666
 5170SOL    HW217350   4.665   7.007   0.801
 5171SOL     OW17351   2.672   8.557   7.060
 5171SOL    HW117352   2.602   8.572   6.997
 5171SOL    HW217353   2.732   8.631   7.048
 5172SOL     OW17354   4.529   7.857   0.458
 5172SOL    HW117355   4.539   7.852   0.553
 5172SOL    HW217356   4.541   7.950   0.437
 5173SOL     OW17357  10.289  12.590  12.676
 5173SOL    HW117358  10.299  12.546  12.760
 5173SOL    HW217359  10.378  12.615  12.651
 5174SOL     OW17360   8.995   1.707   2.454
 5174SOL    HW117361   8.917   1.659   2.424
 5174SOL    HW217362   9.032   1.651   2.523
 5175SOL     OW17363   5.008   2.389   1.559
 5175SOL    HW117364   4.966   2.475   1.571
 5175SOL    HW217365   5.097   2.410   1.532
 5176SOL     OW17366  11.811   8.732  11.197
 5176SOL    HW117367  11.796   8.662  11.133
 5176SOL    HW217368  11.896   8.768  11.174
 5177SOL     OW17369  11.217   9.557   6.296
 5177SOL    HW117370  11.255   9.611   6.365
 5177SOL    HW217371  11.230   9.467   6.326
 5178SOL     OW17372   9.447   9.865   7.594
 5178SOL    HW117373   9.472   9.935   7.653
 5178SOL    HW217374   9.385   9.812   7.645
 5179SOL     OW17375   5.308  14.497   3.216
 5179SOL    HW117376   5.269  14.544   3.142
 5179SOL    HW217377   5.277  14.407   3.206
 5180SOL     OW17378   3.342   5.158   1.739
 5180SOL    HW117379   3.421   5.142   1.790
 5180SOL    HW217380   3.281   5.090   1.767
 5181SOL     OW17381  13.747   4.155   7.559
 5181SOL    HW117382  13.787   4.213   7.494
 5181SOL    HW217383  13.670   4.118   7.515
 5182SOL     OW17384   2.204   9.135  12.014
 5182SOL    HW117385   2.196   9.058  11.957
 5182SOL    HW217386   2.260   9.107  12.086
 5183SOL     OW17387   4.008   0.725   4.438
 5183SOL    HW117388   4.103   0.720   4.441
 5183SOL    HW217389   3.989   0.818   4.423
 5184SOL     OW17390   2.361   4.377  14.461
 5184SOL    HW117391   2.407   4.350  14.382
 5184SOL    HW217392   2.336   4.468  14.445
 5185SOL     OW17393  14.493  12.855   8.277
 5185SOL    HW117394  14.541  12.791   8.225
 5185SOL    HW217395  14.405  12.857   8.239
 5186SOL     OW17396  14.662   8.437   3.322
 5186SOL    HW117397  14.734   8.469   3.268
 5186SOL    HW217398  14.670   8.341   3.319
 5187SOL     OW17399   5.683   6.692   5.967
 5187SOL    HW117400   5.778   6.700   5.963
 5187SOL    HW217401   5.667   6.631   6.039
 5188SOL     OW17402   3.625   9.349   5.944
 5188SOL    HW117403   3.619   9.382   5.854
 5188SOL    HW217404   3.535   9.354   5.977
 5189SOL     OW17405   8.507   8.350  12.189
 5189SOL    HW117406   8.420   8.329  12.224
 5189SOL    HW217407   8.522   8.440  12.218
 5190SOL     OW17408  13.588  13.049   7.347
 5190SOL    HW117409  13.505  13.007   7.370
 5190SOL    HW217410  13.566  13.108   7.275
 5191SOL     OW17411   9.926  14.477   7.086
 5191SOL    HW117412   9.947  14.410   7.150
 5191SOL    HW217413   9.845  14.517   7.118
 5192SOL     OW17414   3.473  13.836   3.042
 5192SOL    HW117415   3.532  13.874   2.977
 5192SOL    HW217416   3.424  13.910   3.077
 5193SOL     OW17417   4.778   4.180   4.120
 5193SOL    HW117418   4.783   4.183   4.215
 5193SOL    HW217419   4.690   4.146   4.101
 5194SOL     OW17420   9.547   0.438  10.353
 5194SOL    HW117421   9.569   0.531  10.349
 5194SOL    HW217422   9.460   0.436  10.394
 5195SOL     OW17423  11.254   0.734  14.459
 5195SOL    HW117424  11.346   0.735  14.487
 5195SOL    HW217425  11.212   0.671  14.518
 5196SOL     OW17426  13.705  11.788   3.427
 5196SOL    HW117427  13.727  11.852   3.359
 5196SOL    HW217428  13.737  11.705   3.394
 5197SOL     OW17429  11.417   8.783  14.770
 5197SOL    HW117430  11.443   8.875  14.766
 5197SOL    HW217431  11.324   8.785  14.792
 5198SOL     OW17432   5.262   3.756  10.676
 5198SOL    HW117433   5.192   3.797  10.727
 5198SOL    HW217434   5.309   3.702  10.739
 5199SOL     OW17435   5.093   6.053  10.177
 5199SOL    HW117436   5.033   6.092  10.114
 5199SOL    HW217437   5.050   5.972  10.205
 5200SOL     OW17438   8.885   7.930   9.559
 5200SOL    HW117439   8.822   7.974   9.501
 5200SOL    HW217440   8.956   7.903   9.500
 5201SOL     OW17441  12.742   8.331   1.885
 5201SOL    HW117442  12.811   8.265   1.896
 5201SOL    HW217443  12.700   8.335   1.971
 5202SOL     OW17444   5.652  14.741   8.339
 5202SOL    HW117445   5.649  14.825   8.294
 5202SOL    HW217446   5.720  14.692   8.293
 5203SOL     OW17447   9.162   0.835   3.164
 5203SOL    HW117448   9.133   0.766   3.223
 5203SOL    HW217449   9.142   0.916   3.210
 5204SOL     OW17450  11.750   9.294   5.196
 5204SOL    HW117451  11.673   9.239   5.190
 5204SOL    HW217452  11.776   9.290   5.288
 5205SOL     OW17453   8.603   3.698  12.548
 5205SOL    HW117454   8.690   3.718  12.512
 5205SOL    HW217455   8.552   3.669  12.472
 5206SOL     OW17456   8.496   7.431   4.780
 5206SOL    HW117457   8.520   7.421   4.872
 5206SOL    HW217458   8.444   7.512   4.778
 5207SOL     OW17459   0.201  10.804   0.344
 5207SOL    HW117460   0.295  10.792   0.358
 5207SOL    HW217461   0.169  10.839   0.428
 5208SOL     OW17462   6.564  14.220  13.317
 5208SOL    HW117463   6.596  14.214  13.227
 5208SOL    HW217464   6.482  14.171  13.317
 5209SOL     OW17465  14.532   5.177  13.530
 5209SOL    HW117466  14.457   5.222  13.569
 5209SOL    HW217467  14.599   5.245  13.522
 5210SOL     OW17468   7.771   2.167  11.700
 5210SOL    HW117469   7.735   2.253  11.680
 5210SOL    HW217470   7.732   2.144  11.785
 5211SOL     OW17471  14.718   1.802   0.942
 5211SOL    HW117472  14.651   1.751   0.896
 5211SOL    HW217473  14.732   1.879   0.888
 5212SOL     OW17474   5.210   3.192  14.436
 5212SOL    HW117475   5.127   3.150  14.458
 5212SOL    HW217476   5.277   3.137  14.477
 5213SOL     OW17477   8.460   1.438   8.388
 5213SOL    HW117478   8.415   1.363   8.426
 5213SOL    HW217479   8.543   1.443   8.435
 5214SOL     OW17480   3.406   1.756   5.077
 5214SOL    HW117481   3.437   1.673   5.041
 5214SOL    HW217482   3.317   1.736   5.108
 5215SOL     OW17483   0.428  12.783   8.271
 5215SOL    HW117484   0.439  12.750   8.360
 5215SOL    HW217485   0.517  12.800   8.240
 5216SOL     OW17486   4.881  10.464   3.956
 5216SOL    HW117487   4.925  10.548   3.942
 5216SOL    HW217488   4.938  10.417   4.017
 5217SOL     OW17489   2.241   4.090   8.280
 5217SOL    HW117490   2.183   4.143   8.225
 5217SOL    HW217491   2.259   4.012   8.228
 5218SOL     OW17492   1.053   1.333  13.375
 5218SOL    HW117493   1.145   1.315  13.392
 5218SOL    HW217494   1.040   1.311  13.283
 5219SOL     OW17495   4.635   8.917   9.581
 5219SOL    HW117496   4.594   8.992   9.625
 5219SOL    HW217497   4.690   8.878   9.649
 5220SOL     OW17498   7.953  13.442   8.622
 5220SOL    HW117499   7.990  13.527   8.599
 5220SOL    HW217500   7.883  13.463   8.684
 5221SOL     OW17501   1.899   1.187   2.663
 5221SOL    HW117502   1.859   1.108   2.626
 5221SOL    HW217503   1.976   1.202   2.608
 5222SOL     OW17504   1.935   3.446   9.308
 5222SOL    HW117505   1.953   3.522   9.252
 5222SOL    HW217506   1.939   3.481   9.397
 5223SOL     OW17507  12.596  12.291   3.172
 5223SOL    HW117508  12.569  12.212   3.219
 5223SOL    HW217509  12.614  12.260   3.083
 5224SOL     OW17510   6.288  14.721   3.125
 5224SOL    HW117511   6.308  14.814   3.121
 5224SOL    HW217512   6.201  14.713   3.087
 5225SOL     OW17513  14.118   5.994  11.176
 5225SOL    HW117514  14.076   5.908  11.181
 5225SOL    HW217515  14.049   6.053  11.145
 5226SOL     OW17516   3.505  13.246  12.714
 5226SOL    HW117517   3.527  13.175  12.773
 5226SOL    HW217518   3.428  13.216  12.666
 5227SOL     OW17519  11.458   7.873   7.507
 5227SOL    HW117520  11.489   7.956   7.472
 5227SOL    HW217521  11.501   7.866   7.592
 5228SOL     OW17522   3.018   7.348   9.862
 5228SOL    HW117523   3.087   7.384   9.807
 5228SOL    HW217524   3.062   7.282   9.916
 5229SOL     OW17525   6.620   7.950   5.712
 5229SOL    HW117526   6.666   7.913   5.636
 5229SOL    HW217527   6.616   7.878   5.775
 5230SOL     OW17528   7.052  13.989   9.952
 5230SOL    HW117529   7.102  13.934  10.012
 5230SOL    HW217530   7.118  14.028   9.895
 5231SOL     OW17531   1.994   5.532  10.264
 5231SOL    HW117532   2.089   5.531  10.257
 5231SOL    HW217533   1.968   5.440  10.265
 5232SOL     OW17534   7.793  14.833   2.712
 5232SOL    HW117535   7.807   0.039   2.674
 5232SOL    HW217536   7.698  14.822   2.713
 5233SOL     OW17537   4.756   9.176   7.280
 5233SOL    HW117538   4.721   9.218   7.201
 5233SOL    HW217539   4.806   9.101   7.247
 5234SOL     OW17540  12.472   4.141  10.688
 5234SOL    HW117541  12.478   4.155  10.783
 5234SOL    HW217542  12.534   4.203  10.651
 5235SOL     OW17543  12.744  14.574   1.473
 5235SOL    HW117544  12.688  14.641   1.513
 5235SOL    HW217545  12.828  14.584   1.517
 5236SOL     OW17546  12.033   4.899  11.495
 5236SOL    HW117547  12.090   4.973  11.475
 5236SOL    HW217548  12.045   4.839  11.421
 5237SOL     OW17549   4.624  10.656  11.374
 5237SOL    HW117550   4.532  10.682  11.376
 5237SOL    HW217551   4.622  10.560  11.374
 5238SOL     OW17552   3.052   1.540   4.627
 5238SOL    HW117553   3.068   1.546   4.721
 5238SOL    HW217554   3.121   1.593   4.587
 5239SOL     OW17555  11.389   0.754   8.662
 5239SOL    HW117556  11.442   0.694   8.609
 5239SOL    HW217557  11.404   0.725   8.752
 5240SOL     OW17558  11.278  11.802   3.037
 5240SOL    HW117559  11.227  11.879   3.061
 5240SOL    HW217560  11.368  11.835   3.028
 5241SOL     OW17561   5.567   3.170  13.302
 5241SOL    HW117562   5.541   3.094  13.354
 5241SOL    HW217563   5.484   3.204  13.268
 5242SOL     OW17564   6.338   5.035  11.270
 5242SOL    HW117565   6.296   5.110  11.311
 5242SOL    HW217566   6.273   5.002  11.208
 5243SOL     OW17567   6.336   8.370  13.186
 5243SOL    HW117568   6.251   8.409  13.209
 5243SOL    HW217569   6.367   8.424  13.113
 5244SOL     OW17570   5.933   0.380   7.795
 5244SOL    HW117571   5.964   0.438   7.865
 5244SOL    HW217572   5.840   0.367   7.815
 5245SOL     OW17573  13.130   8.231  12.191
 5245SOL    HW117574  13.204   8.217  12.251
 5245SOL    HW217575  13.073   8.291  12.239
 5246SOL     OW17576   7.684  10.687  12.307
 5246SOL    HW117577   7.652  10.622  12.245
 5246SOL    HW217578   7.716  10.759  12.252
 5247SOL     OW17579   4.178   8.846  13.807
 5247SOL    HW117580   4.189   8.873  13.898
 5247SOL    HW217581   4.236   8.770  13.798
 5248SOL     OW17582  14.853   9.252  12.565
 5248SOL    HW117583  14.760   9.273  12.558
 5248SOL    HW217584   0.016   9.336  12.581
 5249SOL     OW17585   0.499   1.123  10.326
 5249SOL    HW117586   0.518   1.164  10.410
 5249SOL    HW217587   0.584   1.087  10.298
 5250SOL     OW17588   2.422   4.329   3.247
 5250SOL    HW117589   2.330   4.306   3.232
 5250SOL    HW217590   2.458   4.253   3.294
 5251SOL     OW17591   6.254   6.676   9.524
 5251SOL    HW117592   6.248   6.595   9.575
 5251SOL    HW217593   6.316   6.657   9.454
 5252SOL     OW17594   8.108   3.512   4.469
 5252SOL    HW117595   8.203   3.505   4.464
 5252SOL    HW217596   8.090   3.540   4.558
 5253SOL     OW17597   5.252  12.201   2.306
 5253SOL    HW117598   5.237  12.242   2.392
 5253SOL    HW217599   5.180  12.233   2.252
 5254SOL     OW17600   6.622   2.569   5.552
 5254SOL    HW117601   6.549   2.531   5.600
 5254SOL    HW217602   6.620   2.525   5.467
 5255SOL     OW17603   1.542   8.024   4.864
 5255SOL    HW117604   1.546   8.020   4.768
 5255SOL    HW217605   1.473   8.088   4.882
 5256SOL     OW17606  11.604   6.954   7.963
 5256SOL    HW117607  11.690   6.912   7.953
 5256SOL    HW217608  11.543   6.893   7.922
 5257SOL     OW17609   0.669   8.711   6.947
 5257SOL    HW117610   0.755   8.680   6.921
 5257SOL    HW217611   0.634   8.754   6.869
 5258SOL     OW17612  11.535   8.563   3.093
 5258SOL    HW117613  11.570   8.483   3.054
 5258SOL    HW217614  11.609   8.623   3.096
 5259SOL     OW17615   9.470   5.887  13.216
 5259SOL    HW117616   9.489   5.802  13.256
 5259SOL    HW217617   9.500   5.951  13.281
 5260SOL     OW17618  12.852   2.326   0.057
 5260SOL    HW117619  12.861   2.390   0.128
 5260SOL    HW217620  12.939   2.285   0.051
 5261SOL     OW17621  11.049  13.937   7.665
 5261SOL    HW117622  11.039  13.843   7.653
 5261SOL    HW217623  10.964  13.974   7.639
 5262SOL     OW17624  10.343   9.072   7.556
 5262SOL    HW117625  10.422   9.105   7.598
 5262SOL    HW217626  10.297   9.150   7.526
 5263SOL     OW17627   5.354  11.748  10.596
 5263SOL    HW117628   5.424  11.757  10.532
 5263SOL    HW217629   5.369  11.663  10.637
 5264SOL     OW17630  13.178   0.529   3.510
 5264SOL    HW117631  13.217   0.588   3.445
 5264SOL    HW217632  13.084   0.544   3.502
 5265SOL     OW17633   9.231   0.597  14.465
 5265SOL    HW117634   9.147   0.626  14.501
 5265SOL    HW217635   9.228   0.501  14.474
 5266SOL     OW17636   6.718  13.445  12.952
 5266SOL    HW117637   6.679  13.484  12.873
 5266SOL    HW217638   6.647  13.445  13.016
 5267SOL     OW17639   7.742   6.056   8.797
 5267SOL    HW117640   7.679   6.097   8.738
 5267SOL    HW217641   7.817   6.116   8.797
 5268SOL     OW17642   8.705  13.102   3.810
 5268SOL    HW117643   8.719  13.178   3.867
 5268SOL    HW217644   8.757  13.032   3.850
 5269SOL     OW17645  14.757  12.683   7.687
 5269SOL    HW117646  14.708  12.727   7.756
 5269SOL    HW217647  14.797  12.608   7.730
 5270SOL     OW17648   0.246   2.908   5.803
 5270SOL    HW117649   0.319   2.968   5.821
 5270SOL    HW217650   0.238   2.906   5.708
 5271SOL     OW17651   9.863   7.980   2.331
 5271SOL    HW117652   9.802   7.956   2.262
 5271SOL    HW217653   9.887   8.071   2.311
 5272SOL     OW17654   0.719   6.305   7.467
 5272SOL    HW117655   0.813   6.310   7.449
 5272SOL    HW217656   0.677   6.324   7.383
 5273SOL     OW17657   8.754   9.428  14.602
 5273SOL    HW117658   8.785   9.364  14.538
 5273SOL    HW217659   8.696   9.378  14.660
 5274SOL     OW17660   9.623   3.778  11.539
 5274SOL    HW117661   9.678   3.854  11.522
 5274SOL    HW217662   9.573   3.801  11.617
 5275SOL     OW17663   8.585   3.603   1.545
 5275SOL    HW117664   8.549   3.627   1.630
 5275SOL    HW217665   8.531   3.530   1.515
 5276SOL     OW17666  13.779   3.164   9.054
 5276SOL    HW117667  13.734   3.247   9.067
 5276SOL    HW217668  13.715   3.097   9.078
 5277SOL     OW17669   0.944   9.292  11.510
 5277SOL    HW117670   1.015   9.295  11.575
 5277SOL    HW217671   0.982   9.246  11.435
 5278SOL     OW17672   9.101   3.432  14.522
 5278SOL    HW117673   9.094   3.411  14.615
 5278SOL    HW217674   9.057   3.359  14.478
 5279SOL     OW17675   9.356   7.861  11.933
 5279SOL    HW117676   9.342   7.955  11.946
 5279SOL    HW217677   9.369   7.827  12.021
 5280SOL     OW17678   1.031  14.529   1.297
 5280SOL    HW117679   0.990  14.615   1.307
 5280SOL    HW217680   1.108  14.533   1.355
 5281SOL     OW17681  14.026   4.160   2.803
 5281SOL    HW117682  14.104   4.167   2.857
 5281SOL    HW217683  14.056   4.121   2.721
 5282SOL     OW17684   8.256  11.429   8.416
 5282SOL    HW117685   8.262  11.454   8.324
 5282SOL    HW217686   8.189  11.360   8.419
 5283SOL     OW17687   3.079   8.010   0.463
 5283SOL    HW117688   3.118   8.055   0.389
 5283SOL    HW217689   3.078   7.917   0.437
 5284SOL     OW17690   0.161   8.758   8.702
 5284SOL    HW117691   0.238   8.727   8.751
 5284SOL    HW217692   0.136   8.839   8.746
 5285SOL     OW17693   9.001   7.237  10.640
 5285SOL    HW117694   9.020   7.251  10.547
 5285SOL    HW217695   8.993   7.143  10.649
 5286SOL     OW17696   5.142   2.337   7.937
 5286SOL    HW117697   5.169   2.428   7.950
 5286SOL    HW217698   5.095   2.338   7.854
 5287SOL     OW17699  11.338   5.156   2.900
 5287SOL    HW117700  11.246   5.161   2.927
 5287SOL    HW217701  11.352   5.064   2.879
 5288SOL     OW17702  13.604  10.184   6.381
 5288SOL    HW117703  13.663  10.249   6.418
 5288SOL    HW217704  13.593  10.119   6.451
 5289SOL     OW17705   3.958   3.494   6.760
 5289SOL    HW117706   4.000   3.580   6.749
 5289SOL    HW217707   4.015   3.448   6.821
 5290SOL     OW17708   4.457  12.774   0.485
 5290SOL    HW117709   4.424  12.684   0.485
 5290SOL    HW217710   4.547  12.767   0.455
 5291SOL     OW17711   1.131   3.044   0.490
 5291SOL    HW117712   1.047   3.051   0.444
 5291SOL    HW217713   1.152   3.133   0.517
 5292SOL     OW17714   8.928   0.273  12.192
 5292SOL    HW117715   8.939   0.189  12.148
 5292SOL    HW217716   8.929   0.337  12.121
 5293SOL     OW17717   4.438   8.116   8.673
 5293SOL    HW117718   4.391   8.198   8.658
 5293SOL    HW217719   4.490   8.103   8.594
 5294SOL     OW17720   4.385   9.693  11.944
 5294SOL    HW117721   4.424   9.774  11.910
 5294SOL    HW217722   4.430   9.623  11.898
 5295SOL     OW17723  11.066   6.765   3.324
 5295SOL    HW117724  11.006   6.790   3.395
 5295SOL    HW217725  11.037   6.678   3.298
 5296SOL     OW17726   1.075  10.162   9.387
 5296SOL    HW117727   1.148  10.214   9.421
 5296SOL    HW217728   1.111  10.074   9.378
 5297SOL     OW17729  12.242   1.068   9.983
 5297SOL    HW117730  12.269   0.977   9.997
 5297SOL    HW217731  12.310   1.104   9.926
 5298SOL     OW17732   0.883   1.098  10.517
 5298SOL    HW117733   0.935   1.063  10.590
 5298SOL    HW217734   0.806   1.135  10.559
 5299SOL     OW17735   6.119   0.547   3.140
 5299SOL    HW117736   6.049   0.483   3.125
 5299SOL    HW217737   6.128   0.550   3.236
 5300SOL     OW17738   0.021  12.337   2.417
 5300SOL    HW117739   0.012  12.377   2.331
 5300SOL    HW217740   0.032  12.244   2.400
 5301SOL     OW17741  12.504  14.075  12.176
 5301SOL    HW117742  12.529  14.074  12.084
 5301SOL    HW217743  12.443  14.148  12.184
 5302SOL     OW17744  13.871   9.100  12.019
 5302SOL    HW117745  13.894   9.122  12.109
 5302SOL    HW217746  13.896   9.008  12.009
 5303SOL     OW17747   0.938   6.210   4.739
 5303SOL    HW117748   1.010   6.263   4.773
 5303SOL    HW217749   0.863   6.270   4.737
 5304SOL     OW17750   4.974  14.011  13.977
 5304SOL    HW117751   4.891  14.058  13.990
 5304SOL    HW217752   5.000  13.984  14.065
 5305SOL     OW17753  13.705  11.983   9.834
 5305SOL    HW117754  13.761  12.033   9.894
 5305SOL    HW217755  13.617  12.015   9.852
 5306SOL     OW17756   9.560  13.327   3.667
 5306SOL    HW117757   9.510  13.405   3.689
 5306SOL    HW217758   9.652  13.355   3.671
 5307SOL     OW17759   6.341  12.866  14.041
 5307SOL    HW117760   6.282  12.820  13.982
 5307SOL    HW217761   6.429  12.845  14.008
 5308SOL     OW17762   3.539   9.622   2.602
 5308SOL    HW117763   3.463   9.603   2.546
 5308SOL    HW217764   3.606   9.652   2.541
 5309SOL     OW17765   1.461   7.402  12.085
 5309SOL    HW117766   1.469   7.466  12.014
 5309SOL    HW217767   1.501   7.323  12.049
 5310SOL     OW17768   9.641   6.886   2.687
 5310SOL    HW117769   9.657   6.804   2.733
 5310SOL    HW217770   9.560   6.870   2.638
 5311SOL     OW17771  13.851   8.703   8.935
 5311SOL    HW117772  13.837   8.625   8.988
 5311SOL    HW217773  13.799   8.688   8.855
 5312SOL     OW17774  14.716   2.755  13.870
 5312SOL    HW117775  14.634   2.740  13.824
 5312SOL    HW217776  14.690   2.773  13.960
 5313SOL     OW17777   9.899   9.416   2.864
 5313SOL    HW117778   9.905   9.329   2.905
 5313SOL    HW217779   9.831   9.461   2.913
 5314SOL     OW17780  10.593   1.018   0.843
 5314SOL    HW117781  10.580   1.106   0.810
 5314SOL    HW217782  10.569   1.023   0.936
 5315SOL     OW17783  13.089   1.528   3.021
 5315SOL    HW117784  13.126   1.474   2.951
 5315SOL    HW217785  13.106   1.618   2.993
 5316SOL     OW17786  11.069  14.844   9.413
 5316SOL    HW117787  11.016  14.796   9.476
 5316SOL    HW217788  11.023   0.047   9.400
 5317SOL     OW17789  13.972   1.605   0.863
 5317SOL    HW117790  14.050   1.610   0.808
 5317SOL    HW217791  14.005   1.590   0.951
 5318SOL     OW17792   8.087   3.853   7.587
 5318SOL    HW117793   8.088   3.797   7.510
 5318SOL    HW217794   7.995   3.862   7.609
 5319SOL     OW17795  12.427   5.468  14.535
 5319SOL    HW117796  12.508   5.418  14.545
 5319SOL    HW217797  12.426   5.494  14.443
 5320SOL     OW17798   0.255   8.573   1.835
 5320SOL    HW117799   0.198   8.503   1.803
 5320SOL    HW217800   0.319   8.586   1.764
 5321SOL     OW17801   1.808   8.726   5.740
 5321SOL    HW117802   1.777   8.654   5.795
 5321SOL    HW217803   1.769   8.805   5.778
 5322SOL     OW17804   4.640  12.397  11.936
 5322SOL    HW117805   4.577  12.327  11.950
 5322SOL    HW217806   4.653  12.399  11.841
 5323SOL     OW17807  13.554   6.148   4.400
 5323SOL    HW117808  13.495   6.223   4.392
 5323SOL    HW217809  13.506   6.075   4.362
 5324SOL     OW17810   9.476   6.326   1.571
 5324SOL    HW117811   9.402   6.382   1.595
 5324SOL    HW217812   9.507   6.290   1.654
 5325SOL     OW17813  11.935  11.192   9.905
 5325SOL    HW117814  12.011  11.235   9.867
 5325SOL    HW217815  11.913  11.244   9.982
 5326SOL     OW17816   0.105  10.177  13.190
 5326SOL    HW117817   0.172  10.118  13.156
 5326SOL    HW217818   0.092  10.242  13.120
 5327SOL     OW17819   3.827   6.383  13.729
 5327SOL    HW117820   3.834   6.458  13.788
 5327SOL    HW217821   3.867   6.414  13.647
 5328SOL     OW17822   3.664   2.763   1.480
 5328SOL    HW117823   3.732   2.827   1.503
 5328SOL    HW217824   3.707   2.678   1.491
 5329SOL     OW17825   0.139  13.958   3.108
 5329SOL    HW117826   0.140  13.871   3.068
 5329SOL    HW217827   0.054  13.994   3.084
 5330SOL     OW17828   8.628  12.443   8.265
 5330SOL    HW117829   8.574  12.373   8.301
 5330SOL    HW217830   8.698  12.397   8.219
 5331SOL     OW17831   6.467   7.715   4.129
 5331SOL    HW117832   6.490   7.627   4.161
 5331SOL    HW217833   6.373   7.723   4.145
 5332SOL     OW17834   4.993   9.792   3.512
 5332SOL    HW117835   5.072   9.738   3.513
 5332SOL    HW217836   4.921   9.729   3.524
 5333SOL     OW17837  12.223  12.325  14.271
 5333SOL    HW117838  12.165  12.255  14.239
 5333SOL    HW217839  12.310  12.285  14.270
 5334SOL     OW17840  13.317   1.320   2.079
 5334SOL    HW117841  13.289   1.295   1.991
 5334SOL    HW217842  13.412   1.315   2.077
 5335SOL     OW17843  12.814   8.763   3.056
 5335SOL    HW117844  12.880   8.737   3.120
 5335SOL    HW217845  12.731   8.757   3.102
 5336SOL     OW17846   5.943  13.461   4.104
 5336SOL    HW117847   5.909  13.518   4.034
 5336SOL    HW217848   5.970  13.381   4.059
 5337SOL     OW17849  13.270   8.839   6.255
 5337SOL    HW117850  13.241   8.899   6.186
 5337SOL    HW217851  13.358   8.813   6.229
 5338SOL     OW17852   8.685  12.021   5.039
 5338SOL    HW117853   8.597  12.060   5.040
 5338SOL    HW217854   8.681  11.952   4.973
 5339SOL     OW17855   3.905   2.675   3.193
 5339SOL    HW117856   3.821   2.721   3.185
 5339SOL    HW217857   3.969   2.745   3.201
 5340SOL     OW17858   6.594   4.882   8.964
 5340SOL    HW117859   6.646   4.805   8.988
 5340SOL    HW217860   6.639   4.955   9.007
 5341SOL     OW17861   2.096   1.288   2.509
 5341SOL    HW117862   2.103   1.298   2.414
 5341SOL    HW217863   2.181   1.255   2.536
 5342SOL     OW17864   8.091   6.988  12.324
 5342SOL    HW117865   8.019   6.984  12.260
 5342SOL    HW217866   8.168   7.010  12.272
 5343SOL     OW17867   2.556   7.266   9.050
 5343SOL    HW117868   2.503   7.303   9.120
 5343SOL    HW217869   2.570   7.339   8.990
 5344SOL     OW17870  12.396  12.892   6.810
 5344SOL    HW117871  12.358  12.853   6.731
 5344SOL    HW217872  12.436  12.819   6.857
 5345SOL     OW17873   5.489   9.947  13.747
 5345SOL    HW117874   5.412   9.971  13.798
 5345SOL    HW217875   5.494  10.013  13.678
 5346SOL     OW17876   0.144  12.869   3.205
 5346SOL    HW117877   0.220  12.820   3.237
 5346SOL    HW217878   0.071  12.808   3.215
 5347SOL     OW17879   6.562   2.051   3.958
 5347SOL    HW117880   6.644   2.098   3.971
 5347SOL    HW217881   6.552   1.998   4.038
 5348SOL     OW17882   5.527   1.382   6.553
 5348SOL    HW117883   5.451   1.406   6.607
 5348SOL    HW217884   5.500   1.399   6.463
 5349SOL     OW17885  10.513   0.905  14.703
 5349SOL    HW117886  10.439   0.964  14.716
 5349SOL    HW217887  10.550   0.894  14.790
 5350SOL     OW17888  11.881   5.628  13.487
 5350SOL    HW117889  11.957   5.586  13.447
 5350SOL    HW217890  11.829   5.556  13.522
 5351SOL     OW17891  10.043  11.855  14.498
 5351SOL    HW117892  10.130  11.890  14.476
 5351SOL    HW217893  10.042  11.768  14.458
 5352SOL     OW17894  14.342   6.961  13.477
 5352SOL    HW117895  14.353   6.915  13.394
 5352SOL    HW217896  14.421   7.015  13.485
 5353SOL     OW17897  12.619   2.900  10.644
 5353SOL    HW117898  12.621   2.987  10.603
 5353SOL    HW217899  12.571   2.913  10.726
 5354SOL     OW17900  14.536  11.073   5.888
 5354SOL    HW117901  14.531  11.115   5.802
 5354SOL    HW217902  14.445  11.055   5.911
 5355SOL     OW17903  11.725  12.807  10.904
 5355SOL    HW117904  11.742  12.849  10.819
 5355SOL    HW217905  11.811  12.789  10.940
 5356SOL     OW17906   6.475   3.376  11.499
 5356SOL    HW117907   6.476   3.433  11.575
 5356SOL    HW217908   6.424   3.299  11.527
 5357SOL     OW17909  10.229  12.625  13.928
 5357SOL    HW117910  10.304  12.586  13.971
 5357SOL    HW217911  10.153  12.579  13.963
 5358SOL     OW17912   9.143   2.567  10.397
 5358SOL    HW117913   9.149   2.604  10.309
 5358SOL    HW217914   9.051   2.546  10.408
 5359SOL     OW17915   6.319   1.108   7.997
 5359SOL    HW117916   6.400   1.067   8.028
 5359SOL    HW217917   6.346   1.196   7.970
 5360SOL     OW17918   2.190   4.222   2.099
 5360SOL    HW117919   2.104   4.182   2.112
 5360SOL    HW217920   2.221   4.183   2.017
 5361SOL     OW17921  12.002   6.459   3.640
 5361SOL    HW117922  12.089   6.454   3.599
 5361SOL    HW217923  11.947   6.501   3.575
 5362SOL     OW17924   6.087   6.786  10.278
 5362SOL    HW117925   6.144   6.862  10.290
 5362SOL    HW217926   6.003   6.812  10.317
 5363SOL     OW17927  12.458  13.207  11.898
 5363SOL    HW117928  12.420  13.295  11.902
 5363SOL    HW217929  12.463  13.187  11.804
 5364SOL     OW17930   5.955  12.148  11.146
 5364SOL    HW117931   6.039  12.103  11.148
 5364SOL    HW217932   5.936  12.158  11.052
 5365SOL     OW17933   6.381   8.173   4.107
 5365SOL    HW117934   6.297   8.159   4.151
 5365SOL    HW217935   6.421   8.246   4.154
 5366SOL     OW17936   7.840   5.942   7.788
 5366SOL    HW117937   7.791   5.879   7.840
 5366SOL    HW217938   7.851   6.018   7.846
 5367SOL     OW17939   6.596   9.802   2.935
 5367SOL    HW117940   6.643   9.874   2.893
 5367SOL    HW217941   6.633   9.797   3.023
 5368SOL     OW17942   5.196   3.681  11.031
 5368SOL    HW117943   5.192   3.589  11.006
 5368SOL    HW217944   5.165   3.683  11.122
 5369SOL     OW17945   6.073   6.215   8.441
 5369SOL    HW117946   6.115   6.296   8.415
 5369SOL    HW217947   6.102   6.151   8.376
 5370SOL     OW17948  14.031  10.621   7.328
 5370SOL    HW117949  14.005  10.532   7.302
 5370SOL    HW217950  14.098  10.646   7.264
 5371SOL     OW17951   8.137   5.958   8.945
 5371SOL    HW117952   8.122   6.048   8.974
 5371SOL    HW217953   8.206   5.925   9.002
 5372SOL     OW17954   2.282   5.539  10.156
 5372SOL    HW117955   2.298   5.614  10.213
 5372SOL    HW217956   2.369   5.506  10.134
 5373SOL     OW17957   1.376   5.125   4.307
 5373SOL    HW117958   1.465   5.125   4.341
 5373SOL    HW217959   1.326   5.070   4.367
 5374SOL     OW17960   4.875   7.231   2.560
 5374SOL    HW117961   4.895   7.163   2.625
 5374SOL    HW217962   4.795   7.199   2.517
 5375SOL     OW17963   3.942   5.131   5.904
 5375SOL    HW117964   3.974   5.213   5.943
 5375SOL    HW217965   3.986   5.062   5.953
 5376SOL     OW17966   8.264   2.460   8.796
 5376SOL    HW117967   8.175   2.435   8.772
 5376SOL    HW217968   8.318   2.422   8.727
 5377SOL     OW17969   7.804   6.552   8.375
 5377SOL    HW117970   7.788   6.458   8.378
 5377SOL    HW217971   7.893   6.560   8.340
 5378SOL     OW17972   2.912  13.313  10.848
 5378SOL    HW117973   2.944  13.348  10.764
 5378SOL    HW217974   2.820  13.295  10.832
 5379SOL     OW17975  14.457  10.181   3.267
 5379SOL    HW117976  14.520  10.173   3.195
 5379SOL    HW217977  14.438  10.274   3.272
 5380SOL     OW17978   7.164  12.270  10.418
 5380SOL    HW117979   7.161  12.207  10.346
 5380SOL    HW217980   7.241  12.243  10.469
 5381SOL     OW17981  14.169  10.061  12.996
 5381SOL    HW117982  14.074  10.050  12.987
 5381SOL    HW217983  14.182  10.156  12.988
 5382SOL     OW17984  13.311   5.150   8.284
 5382SOL    HW117985  13.223   5.114   8.273
 5382SOL    HW217986  13.365   5.101   8.223
 5383SOL     OW17987  11.140   9.953   8.728
 5383SOL    HW117988  11.107  10.035   8.692
 5383SOL    HW217989  11.062   9.900   8.743
 5384SOL     OW17990  11.772  14.800  13.720
 5384SOL    HW117991  11.717  14.853  13.777
 5384SOL    HW217992  11.772  14.847  13.636
 5385SOL     OW17993   3.993   6.403  14.014
 5385SOL    HW117994   3.913   6.451  13.994
 5385SOL    HW217995   4.013   6.426  14.105
 5386SOL     OW17996  11.662   3.105  11.736
 5386SOL    HW117997  11.571   3.133  11.722
 5386SOL    HW217998  11.657   3.041  11.807
 5387SOL     OW17999   4.164   0.217   9.530
 5387SOL    HW118000   4.220   0.286   9.567
 5387SOL    HW218001   4.195   0.136   9.572
 5388SOL     OW18002   6.779   4.113  12.871
 5388SOL    HW118003   6.861   4.161  12.877
 5388SOL    HW218004   6.729   4.143  12.947
 5389SOL     OW18005   2.906   0.408  11.349
 5389SOL    HW118006   2.920   0.484  11.294
 5389SOL    HW218007   2.825   0.369  11.316
 5390SOL     OW18008   0.762   2.959   8.523
 5390SOL    HW118009   0.765   2.949   8.618
 5390SOL    HW218010   0.695   3.026   8.509
 5391SOL     OW18011  14.360   6.670   1.381
 5391SOL    HW118012  14.432   6.640   1.326
 5391SOL    HW218013  14.354   6.604   1.450
 5392SOL     OW18014  11.216   4.359   7.986
 5392SOL    HW118015  11.216   4.311   8.069
 5392SOL    HW218016  11.271   4.436   8.004
 5393SOL     OW18017  13.216  10.522   3.580
 5393SOL    HW118018  13.202  10.605   3.535
 5393SOL    HW218019  13.151  10.521   3.650
 5394SOL     OW18020  10.694   2.198  14.305
 5394SOL    HW118021  10.754   2.216  14.378
 5394SOL    HW218022  10.699   2.103  14.294
 5395SOL     OW18023  10.300   2.763   2.305
 5395SOL    HW118024  10.368   2.735   2.243
 5395SOL    HW218025  10.295   2.858   2.292
 5396SOL     OW18026   0.929   2.305  12.145
 5396SOL    HW118027   1.013   2.272  12.176
 5396SOL    HW218028   0.880   2.327  12.224
 5397SOL     OW18029   5.972   2.910   6.406
 5397SOL    HW118030   5.891   2.950   6.373
 5397SOL    HW218031   5.960   2.816   6.392
 5398SOL     OW18032  14.401  12.348  12.881
 5398SOL    HW118033  14.360  12.283  12.823
 5398SOL    HW218034  14.342  12.424  12.877
 5399SOL     OW18035  10.575  12.697   7.648
 5399SOL    HW118036  10.492  12.691   7.602
 5399SOL    HW218037  10.575  12.622   7.707
 5400SOL     OW18038  10.368   6.718  12.168
 5400SOL    HW118039  10.294   6.712  12.228
 5400SOL    HW218040  10.419   6.640  12.186
 5401SOL     OW18041   0.214  13.140  11.647
 5401SOL    HW118042   0.124  13.163  11.671
 5401SOL    HW218043   0.230  13.188  11.566
 5402SOL     OW18044   6.759   0.274   0.141
 5402SOL    HW118045   6.706   0.195   0.150
 5402SOL    HW218046   6.701   0.337   0.098
 5403SOL     OW18047  10.458   7.220   1.578
 5403SOL    HW118048  10.520   7.155   1.612
 5403SOL    HW218049  10.428   7.268   1.655
 5404SOL     OW18050   6.957  13.047   8.084
 5404SOL    HW118051   7.033  13.054   8.141
 5404SOL    HW218052   6.992  13.010   8.003
 5405SOL     OW18053   4.418   4.299  10.570
 5405SOL    HW118054   4.412   4.269  10.661
 5405SOL    HW218055   4.503   4.343  10.565
 5406SOL     OW18056   8.298  14.367   6.752
 5406SOL    HW118057   8.247  14.299   6.796
 5406SOL    HW218058   8.330  14.423   6.823
 5407SOL     OW18059  12.997  11.039  10.122
 5407SOL    HW118060  13.059  11.074  10.186
 5407SOL    HW218061  12.916  11.089  10.138
 5408SOL     OW18062   2.028  10.457  13.747
 5408SOL    HW118063   2.069  10.402  13.813
 5408SOL    HW218064   1.999  10.534  13.795
 5409SOL     OW18065   0.567   6.534   7.516
 5409SOL    HW118066   0.536   6.567   7.600
 5409SOL    HW218067   0.650   6.491   7.536
 5410SOL     OW18068  14.349  10.973   2.742
 5410SOL    HW118069  14.276  10.975   2.804
 5410SOL    HW218070  14.414  11.033   2.780
 5411SOL     OW18071   3.273   6.828   2.918
 5411SOL    HW118072   3.306   6.745   2.953
 5411SOL    HW218073   3.332   6.894   2.954
 5412SOL     OW18074   3.617   5.262  13.894
 5412SOL    HW118075   3.682   5.299  13.954
 5412SOL    HW218076   3.633   5.168  13.898
 5413SOL     OW18077   5.640   9.327   9.251
 5413SOL    HW118078   5.645   9.272   9.172
 5413SOL    HW218079   5.703   9.288   9.311
 5414SOL     OW18080   5.295   1.852  11.143
 5414SOL    HW118081   5.275   1.945  11.138
 5414SOL    HW218082   5.385   1.845  11.112
 5415SOL     OW18083   6.866   4.836   6.077
 5415SOL    HW118084   6.850   4.743   6.062
 5415SOL    HW218085   6.912   4.866   5.998
 5416SOL     OW18086   7.085   0.337   1.321
 5416SOL    HW118087   7.013   0.286   1.356
 5416SOL    HW218088   7.149   0.271   1.291
 5417SOL     OW18089   5.697   3.262  13.587
 5417SOL    HW118090   5.657   3.280  13.502
 5417SOL    HW218091   5.732   3.346  13.616
 5418SOL     OW18092   3.761   2.317   5.570
 5418SOL    HW118093   3.699   2.293   5.501
 5418SOL    HW218094   3.778   2.235   5.616
 5419SOL     OW18095  11.505   0.330  11.110
 5419SOL    HW118096  11.540   0.255  11.157
 5419SOL    HW218097  11.528   0.314  11.018
 5420SOL     OW18098   9.489  12.352  11.861
 5420SOL    HW118099   9.573  12.396  11.876
 5420SOL    HW218100   9.437  12.373  11.939
 5421SOL     OW18101   1.127   3.982   6.258
 5421SOL    HW118102   1.078   4.062   6.235
 5421SOL    HW218103   1.072   3.938   6.322
 5422SOL     OW18104   8.740   9.549  12.431
 5422SOL    HW118105   8.824   9.511  12.404
 5422SOL    HW218106   8.693   9.563  12.348
 5423SOL     OW18107   1.901   9.867   0.407
 5423SOL    HW118108   1.976   9.840   0.353
 5423SOL    HW218109   1.930   9.950   0.446
 5424SOL     OW18110  10.395  14.234   5.760
 5424SOL    HW118111  10.409  14.139   5.768
 5424SOL    HW218112  10.441  14.258   5.680
 5425SOL     OW18113   7.976  12.585   2.005
 5425SOL    HW118114   7.977  12.497   1.968
 5425SOL    HW218115   7.885  12.612   1.999
 5426SOL     OW18116  14.382   8.032   3.686
 5426SOL    HW118117  14.354   8.106   3.632
 5426SOL    HW218118  14.303   8.005   3.733
 5427SOL     OW18119  12.973  12.075   4.697
 5427SOL    HW118120  12.896  12.130   4.705
 5427SOL    HW218121  12.958  12.003   4.758
 5428SOL     OW18122   9.093  13.909   3.322
 5428SOL    HW118123   9.116  13.819   3.342
 5428SOL    HW218124   9.125  13.960   3.397
 5429SOL     OW18125  13.242   5.073   2.917
 5429SOL    HW118126  13.280   4.987   2.903
 5429SOL    HW218127  13.251   5.118   2.832
 5430SOL     OW18128   7.798  10.301   8.734
 5430SOL    HW118129   7.760  10.329   8.817
 5430SOL    HW218130   7.851  10.225   8.757
 5431SOL     OW18131   7.618  11.483   8.259
 5431SOL    HW118132   7.592  11.395   8.230
 5431SOL    HW218133   7.712  11.476   8.275
 5432SOL     OW18134   8.235   4.561   7.979
 5432SOL    HW118135   8.142   4.555   7.958
 5432SOL    HW218136   8.257   4.474   8.014
 5433SOL     OW18137   4.364   9.262  10.144
 5433SOL    HW118138   4.300   9.214  10.091
 5433SOL    HW218139   4.369   9.348  10.102
 5434SOL     OW18140   5.313   7.043   2.515
 5434SOL    HW118141   5.407   7.065   2.514
 5434SOL    HW218142   5.269   7.127   2.502
 5435SOL     OW18143   8.421   1.701   0.534
 5435SOL    HW118144   8.352   1.641   0.504
 5435SOL    HW218145   8.375   1.767   0.585
 5436SOL     OW18146   5.977   8.013  14.767
 5436SOL    HW118147   5.885   7.987  14.767
 5436SOL    HW218148   6.013   7.972  14.845
 5437SOL     OW18149  10.367  13.724   4.666
 5437SOL    HW118150  10.369  13.638   4.709
 5437SOL    HW218151  10.451  13.765   4.690
 5438SOL     OW18152   2.064  11.067   2.078
 5438SOL    HW118153   2.017  11.143   2.043
 5438SOL    HW218154   2.071  11.085   2.172
 5439SOL     OW18155   0.464   6.237   6.934
 5439SOL    HW118156   0.544   6.203   6.892
 5439SOL    HW218157   0.447   6.320   6.889
 5440SOL     OW18158  10.059  11.601   9.391
 5440SOL    HW118159  10.120  11.593   9.464
 5440SOL    HW218160   9.974  11.614   9.431
 5441SOL     OW18161   5.812   9.820  10.552
 5441SOL    HW118162   5.771   9.880  10.490
 5441SOL    HW218163   5.847   9.750  10.498
 5442SOL     OW18164   2.246   2.922   5.526
 5442SOL    HW118165   2.230   2.952   5.615
 5442SOL    HW218166   2.281   2.834   5.537
 5443SOL     OW18167   3.285   9.676   2.976
 5443SOL    HW118168   3.195   9.667   3.007
 5443SOL    HW218169   3.277   9.687   2.881
 5444SOL     OW18170   6.723  11.738   1.697
 5444SOL    HW118171   6.746  11.811   1.754
 5444SOL    HW218172   6.696  11.779   1.615
 5445SOL     OW18173  13.969   1.444   9.912
 5445SOL    HW118174  13.957   1.532   9.948
 5445SOL    HW218175  13.934   1.450   9.823
 5446SOL     OW18176   7.117   1.773   7.987
 5446SOL    HW118177   7.055   1.846   7.976
 5446SOL    HW218178   7.193   1.813   8.028
 5447SOL     OW18179   7.872  10.843   0.927
 5447SOL    HW118180   7.940  10.785   0.963
 5447SOL    HW218181   7.920  10.902   0.869
 5448SOL     OW18182   5.591   2.951  11.910
 5448SOL    HW118183   5.686   2.949  11.917
 5448SOL    HW218184   5.569   3.045  11.913
 5449SOL     OW18185   2.564  12.655   6.218
 5449SOL    HW118186   2.490  12.599   6.244
 5449SOL    HW218187   2.635  12.593   6.200
 5450SOL     OW18188   6.923   8.678   9.387
 5450SOL    HW118189   6.839   8.717   9.413
 5450SOL    HW218190   6.941   8.717   9.302
 5451SOL     OW18191   9.649  13.787  13.249
 5451SOL    HW118192   9.624  13.764  13.160
 5451SOL    HW218193   9.731  13.835  13.239
 5452SOL     OW18194   7.685   7.282   9.518
 5452SOL    HW118195   7.717   7.266   9.606
 5452SOL    HW218196   7.590   7.281   9.526
 5453SOL     OW18197  14.706   4.995  12.538
 5453SOL    HW118198  14.794   5.010  12.503
 5453SOL    HW218199  14.647   5.032  12.473
 5454SOL     OW18200  14.382  14.780   6.281
 5454SOL    HW118201  14.328  14.856   6.260
 5454SOL    HW218202  14.327  14.728   6.341
 5455SOL     OW18203   9.845  10.099  12.567
 5455SOL    HW118204   9.798  10.016  12.569
 5455SOL    HW218205   9.822  10.143  12.649
 5456SOL     OW18206   6.283  10.919   3.995
 5456SOL    HW118207   6.199  10.962   4.016
 5456SOL    HW218208   6.287  10.920   3.900
 5457SOL     OW18209  10.078   4.178  13.739
 5457SOL    HW118210  10.118   4.192  13.825
 5457SOL    HW218211   9.997   4.229  13.742
 5458SOL     OW18212   5.029   9.187  10.062
 5458SOL    HW118213   5.006   9.263  10.116
 5458SOL    HW218214   4.948   9.167  10.014
 5459SOL     OW18215  10.202   6.596  13.380
 5459SOL    HW118216  10.182   6.579  13.288
 5459SOL    HW218217  10.255   6.675  13.379
 5460SOL     OW18218   0.724   4.890  14.078
 5460SOL    HW118219   0.806   4.940  14.078
 5460SOL    HW218220   0.710   4.867  14.169
 5461SOL     OW18221  13.712   1.226   2.496
 5461SOL    HW118222  13.733   1.247   2.587
 5461SOL    HW218223  13.725   1.131   2.490
 5462SOL     OW18224  10.053   8.152  14.092
 5462SOL    HW118225  10.107   8.105  14.029
 5462SOL    HW218226   9.972   8.173  14.044
 5463SOL     OW18227  10.852  11.673   2.388
 5463SOL    HW118228  10.767  11.629   2.390
 5463SOL    HW218229  10.916  11.602   2.392
 5464SOL     OW18230   3.037  14.692   0.190
 5464SOL    HW118231   3.126  14.717   0.215
 5464SOL    HW218232   2.985  14.708   0.269
 5465SOL     OW18233  14.843   2.250   9.309
 5465SOL    HW118234  14.833   2.182   9.376
 5465SOL    HW218235  14.843   2.332   9.357
 5466SOL     OW18236   7.851  12.854   0.460
 5466SOL    HW118237   7.885  12.782   0.407
 5466SOL    HW218238   7.818  12.918   0.396
 5467SOL     OW18239  14.695   9.782  13.974
 5467SOL    HW118240  14.617   9.777  13.919
 5467SOL    HW218241  14.767   9.795  13.912
 5468SOL     OW18242   6.875  14.235   7.406
 5468SOL    HW118243   6.906  14.152   7.443
 5468SOL    HW218244   6.916  14.302   7.461
 5469SOL     OW18245   4.147   2.689   1.583
 5469SOL    HW118246   4.115   2.654   1.501
 5469SOL    HW218247   4.196   2.768   1.559
 5470SOL     OW18248  12.273   6.803   3.879
 5470SOL    HW118249  12.232   6.838   3.799
 5470SOL    HW218250  12.246   6.711   3.881
 5471SOL     OW18251   6.548   2.872   8.849
 5471SOL    HW118252   6.603   2.900   8.922
 5471SOL    HW218253   6.606   2.875   8.773
 5472SOL     OW18254   8.848   9.948   7.256
 5472SOL    HW118255   8.899   9.949   7.336
 5472SOL    HW218256   8.766   9.904   7.280
 5473SOL     OW18257   5.223  10.202   6.093
 5473SOL    HW118258   5.267  10.237   6.016
 5473SOL    HW218259   5.293  10.193   6.159
 5474SOL     OW18260  10.586   7.072   5.770
 5474SOL    HW118261  10.589   7.140   5.837
 5474SOL    HW218262  10.669   7.024   5.780
 5475SOL     OW18263   3.545   9.393   1.508
 5475SOL    HW118264   3.452   9.377   1.489
 5475SOL    HW218265   3.590   9.376   1.426
 5476SOL     OW18266  11.346   1.248   2.506
 5476SOL    HW118267  11.272   1.187   2.506
 5476SOL    HW218268  11.418   1.198   2.544
 5477SOL     OW18269   7.159   8.877  10.806
 5477SOL    HW118270   7.185   8.790  10.775
 5477SOL    HW218271   7.070   8.889  10.773
 5478SOL     OW18272  10.096  10.200   3.366
 5478SOL    HW118273  10.100  10.194   3.461
 5478SOL    HW218274  10.110  10.110   3.336
 5479SOL     OW18275   3.460  10.418   9.745
 5479SOL    HW118276   3.512  10.484   9.791
 5479SOL    HW218277   3.483  10.429   9.653
 5480SOL     OW18278   7.700   8.535   8.321
 5480SOL    HW118279   7.746   8.617   8.334
 5480SOL    HW218280   7.766   8.477   8.280
 5481SOL     OW18281   6.312   3.552   6.320
 5481SOL    HW118282   6.356   3.492   6.381
 5481SOL    HW218283   6.334   3.639   6.353
 5482SOL     OW18284   6.989   3.704   7.588
 5482SOL    HW118285   6.964   3.756   7.511
 5482SOL    HW218286   7.065   3.749   7.623
 5483SOL     OW18287   0.647   5.095   6.399
 5483SOL    HW118288   0.699   5.017   6.377
 5483SOL    HW218289   0.607   5.122   6.316
 5484SOL     OW18290  14.060   2.187   4.039
 5484SOL    HW118291  13.981   2.239   4.056
 5484SOL    HW218292  14.128   2.252   4.021
 5485SOL     OW18293  11.976   1.406  11.199
 5485SOL    HW118294  11.912   1.477  11.210
 5485SOL    HW218295  11.927   1.335  11.158
 5486SOL     OW18296   9.612   8.986  12.349
 5486SOL    HW118297   9.648   8.971  12.262
 5486SOL    HW218298   9.671   8.938  12.408
 5487SOL     OW18299   3.990   7.139   4.837
 5487SOL    HW118300   4.046   7.092   4.776
 5487SOL    HW218301   4.037   7.137   4.920
 5488SOL     OW18302  12.554  10.685   8.528
 5488SOL    HW118303  12.627  10.693   8.590
 5488SOL    HW218304  12.476  10.687   8.583
 5489SOL     OW18305   3.910   8.459   7.458
 5489SOL    HW118306   4.004   8.451   7.442
 5489SOL    HW218307   3.897   8.552   7.476
 5490SOL     OW18308  10.802   4.649   2.747
 5490SOL    HW118309  10.869   4.642   2.679
 5490SOL    HW218310  10.819   4.574   2.805
 5491SOL     OW18311   0.021   1.307  11.734
 5491SOL    HW118312   0.087   1.262  11.787
 5491SOL    HW218313  14.839   1.239  11.710
 5492SOL     OW18314  12.735   1.236   3.868
 5492SOL    HW118315  12.729   1.185   3.787
 5492SOL    HW218316  12.822   1.216   3.902
 5493SOL     OW18317   4.996   3.934  11.663
 5493SOL    HW118318   4.964   3.855  11.620
 5493SOL    HW218319   5.049   3.902  11.736
 5494SOL     OW18320   8.554  14.478  11.586
 5494SOL    HW118321   8.542  14.572  11.601
 5494SOL    HW218322   8.475  14.438  11.622
 5495SOL     OW18323   4.176   5.117   3.869
 5495SOL    HW118324   4.265   5.082   3.863
 5495SOL    HW218325   4.134   5.093   3.787
 5496SOL     OW18326   9.528  13.470  12.783
 5496SOL    HW118327   9.540  13.558  12.747
 5496SOL    HW218328   9.525  13.413  12.706
 5497SOL     OW18329   3.377   7.216  10.636
 5497SOL    HW118330   3.284   7.224  10.656
 5497SOL    HW218331   3.388   7.264  10.554
 5498SOL     OW18332  11.008   7.713   6.015
 5498SOL    HW118333  10.936   7.752   5.967
 5498SOL    HW218334  11.036   7.780   6.077
 5499SOL     OW18335   9.220  13.735  12.241
 5499SOL    HW118336   9.304  13.729  12.195
 5499SOL    HW218337   9.182  13.648  12.233
 5500SOL     OW18338  14.794   9.952   6.917
 5500SOL    HW118339  14.853   9.893   6.870
 5500SOL    HW218340  14.718   9.899   6.937
 5501SOL     OW18341   4.564   3.873   9.958
 5501SOL    HW118342   4.620   3.929   9.904
 5501SOL    HW218343   4.533   3.805   9.898
 5502SOL     OW18344  12.931   4.770   6.340
 5502SOL    HW118345  12.931   4.742   6.431
 5502SOL    HW218346  13.004   4.723   6.300
 5503SOL     OW18347   3.068   3.255   3.673
 5503SOL    HW118348   3.083   3.249   3.579
 5503SOL    HW218349   3.143   3.304   3.707
 5504SOL     OW18350   8.821  13.519   6.562
 5504SOL    HW118351   8.787  13.544   6.475
 5504SOL    HW218352   8.890  13.583   6.580
 5505SOL     OW18353  14.788   5.442   6.729
 5505SOL    HW118354  14.828   5.528   6.716
 5505SOL    HW218355  14.734   5.429   6.651
 5506SOL     OW18356  11.308   6.266   9.698
 5506SOL    HW118357  11.290   6.230   9.611
 5506SOL    HW218358  11.234   6.239   9.752
 5507SOL     OW18359   7.802  13.072   3.681
 5507SOL    HW118360   7.781  13.015   3.606
 5507SOL    HW218361   7.753  13.034   3.754
 5508SOL     OW18362   6.648   7.878   8.083
 5508SOL    HW118363   6.722   7.933   8.058
 5508SOL    HW218364   6.639   7.816   8.011
 5509SOL     OW18365   5.672  12.376  13.902
 5509SOL    HW118366   5.738  12.374  13.833
 5509SOL    HW218367   5.611  12.444  13.875
 5510SOL     OW18368   6.845  14.825  10.852
 5510SOL    HW118369   6.826   0.010  10.785
 5510SOL    HW218370   6.777  14.838  10.919
 5511SOL     OW18371  10.579   1.760  10.755
 5511SOL    HW118372  10.576   1.798  10.667
 5511SOL    HW218373  10.503   1.701  10.758
 5512SOL     OW18374   5.845  12.171   2.772
 5512SOL    HW118375   5.787  12.114   2.823
 5512SOL    HW218376   5.800  12.255   2.770
 5513SOL     OW18377  11.710  12.813  11.497
 5513SOL    HW118378  11.776  12.744  11.503
 5513SOL    HW218379  11.748  12.878  11.438
 5514SOL     OW18380  10.041   3.856   9.875
 5514SOL    HW118381  10.104   3.789   9.848
 5514SOL    HW218382   9.956   3.815   9.862
 5515SOL     OW18383   1.504   7.568   2.530
 5515SOL    HW118384   1.433   7.573   2.466
 5515SOL    HW218385   1.518   7.474   2.543
 5516SOL     OW18386   9.203  11.174   4.130
 5516SOL    HW118387   9.145  11.105   4.159
 5516SOL    HW218388   9.267  11.184   4.200
 5517SOL     OW18389   4.067   4.413   4.099
 5517SOL    HW118390   4.109   4.490   4.138
 5517SOL    HW218391   4.124   4.340   4.122
 5518SOL     OW18392  11.648   3.839  13.823
 5518SOL    HW118393  11.554   3.854  13.816
 5518SOL    HW218394  11.670   3.786  13.746
 5519SOL     OW18395   6.571  13.032  13.184
 5519SOL    HW118396   6.624  13.082  13.122
 5519SOL    HW218397   6.524  12.968  13.131
 5520SOL     OW18398   9.701   2.533   9.258
 5520SOL    HW118399   9.701   2.513   9.164
 5520SOL    HW218400   9.733   2.623   9.263
 5521SOL     OW18401  14.154   4.968   5.469
 5521SOL    HW118402  14.171   5.053   5.428
 5521SOL    HW218403  14.233   4.950   5.521
 5522SOL     OW18404   8.323   5.826   6.488
 5522SOL    HW118405   8.416   5.807   6.479
 5522SOL    HW218406   8.311   5.910   6.443
 5523SOL     OW18407   5.510  11.210  14.576
 5523SOL    HW118408   5.570  11.170  14.513
 5523SOL    HW218409   5.443  11.144  14.591
 5524SOL     OW18410   1.098   2.924   4.393
 5524SOL    HW118411   1.029   2.965   4.342
 5524SOL    HW218412   1.138   2.995   4.442
 5525SOL     OW18413   9.967   7.939   3.214
 5525SOL    HW118414  10.055   7.977   3.220
 5525SOL    HW218415   9.978   7.849   3.246
 5526SOL     OW18416   3.605   0.702  12.389
 5526SOL    HW118417   3.595   0.702  12.484
 5526SOL    HW218418   3.557   0.625  12.360
 5527SOL     OW18419  10.780  13.565  13.386
 5527SOL    HW118420  10.851  13.585  13.325
 5527SOL    HW218421  10.729  13.645  13.391
 5528SOL     OW18422   8.656  11.081   5.881
 5528SOL    HW118423   8.702  10.998   5.897
 5528SOL    HW218424   8.598  11.091   5.957
 5529SOL     OW18425   5.873   5.988  13.649
 5529SOL    HW118426   5.962   6.008  13.679
 5529SOL    HW218427   5.834   6.074  13.630
 5530SOL     OW18428   8.972  13.548   1.624
 5530SOL    HW118429   8.924  13.494   1.686
 5530SOL    HW218430   8.910  13.616   1.598
 5531SOL     OW18431   3.214   6.995  14.298
 5531SOL    HW118432   3.256   6.975  14.382
 5531SOL    HW218433   3.146   7.059  14.320
 5532SOL     OW18434   1.587   7.928  10.676
 5532SOL    HW118435   1.667   7.894  10.716
 5532SOL    HW218436   1.516   7.885  10.723
 5533SOL     OW18437   8.941   4.199   3.267
 5533SOL    HW118438   9.005   4.201   3.196
 5533SOL    HW218439   8.892   4.281   3.257
 5534SOL     OW18440  11.580   9.362  10.717
 5534SOL    HW118441  11.633   9.307  10.775
 5534SOL    HW218442  11.629   9.443  10.708
 5535SOL     OW18443   6.715   1.705  11.893
 5535SOL    HW118444   6.656   1.684  11.821
 5535SOL    HW218445   6.687   1.792  11.922
 5536SOL     OW18446   3.336  10.378   7.627
 5536SOL    HW118447   3.396  10.303   7.627
 5536SOL    HW218448   3.379  10.443   7.570
 5537SOL     OW18449  12.931   0.621  14.837
 5537SOL    HW118450  12.952   0.529  14.853
 5537SOL    HW218451  13.003   0.670  14.878
 5538SOL     OW18452   3.800   1.284  10.061
 5538SOL    HW118453   3.880   1.234  10.075
 5538SOL    HW218454   3.814   1.366  10.108
 5539SOL     OW18455   2.428   7.686   3.332
 5539SOL    HW118456   2.494   7.735   3.283
 5539SOL    HW218457   2.349   7.741   3.326
 5540SOL     OW18458  13.425  12.523  11.109
 5540SOL    HW118459  13.500  12.567  11.069
 5540SOL    HW218460  13.450  12.511  11.201
 5541SOL     OW18461  10.017  12.503  14.055
 5541SOL    HW118462   9.934  12.456  14.065
 5541SOL    HW218463   9.993  12.595  14.068
 5542SOL     OW18464  11.937  10.747   7.041
 5542SOL    HW118465  12.014  10.800   7.023
 5542SOL    HW218466  11.886  10.799   7.103
 5543SOL     OW18467   1.138   8.901   4.868
 5543SOL    HW118468   1.086   8.822   4.858
 5543SOL    HW218469   1.116   8.934   4.955
 5544SOL     OW18470   0.946   2.237  13.005
 5544SOL    HW118471   0.934   2.272  13.094
 5544SOL    HW218472   1.022   2.179  13.012
 5545SOL     OW18473   0.458   8.733  12.404
 5545SOL    HW118474   0.380   8.760  12.453
 5545SOL    HW218475   0.531   8.749  12.464
 5546SOL     OW18476  11.056   7.814   5.455
 5546SOL    HW118477  11.063   7.740   5.516
 5546SOL    HW218478  11.120   7.796   5.387
 5547SOL     OW18479   0.196   6.729  12.861
 5547SOL    HW118480   0.250   6.656  12.831
 5547SOL    HW218481   0.143   6.693  12.931
 5548SOL     OW18482   5.850  10.725   6.013
 5548SOL    HW118483   5.762  10.729   5.974
 5548SOL    HW218484   5.853  10.638   6.054
 5549SOL     OW18485   7.009  14.304   6.349
 5549SOL    HW118486   7.004  14.298   6.254
 5549SOL    HW218487   6.981  14.218   6.380
 5550SOL     OW18488  11.492  12.896   0.162
 5550SOL    HW118489  11.571  12.905   0.216
 5550SOL    HW218490  11.438  12.970   0.186
 5551SOL     OW18491  14.841   3.145   4.041
 5551SOL    HW118492  14.829   3.130   3.947
 5551SOL    HW218493   0.033   3.208   4.046
 5552SOL     OW18494   2.834  13.387   3.867
 5552SOL    HW118495   2.915  13.339   3.851
 5552SOL    HW218496   2.785  13.330   3.926
 5553SOL     OW18497   1.656   6.456   4.191
 5553SOL    HW118498   1.644   6.399   4.115
 5553SOL    HW218499   1.570   6.456   4.233
 5554SOL     OW18500   0.612  10.695   8.488
 5554SOL    HW118501   0.642  10.604   8.491
 5554SOL    HW218502   0.554  10.699   8.412
 5555SOL     OW18503  10.721   0.516   6.131
 5555SOL    HW118504  10.646   0.572   6.110
 5555SOL    HW218505  10.702   0.434   6.086
 5556SOL     OW18506  14.289  10.966   1.558
 5556SOL    HW118507  14.313  11.037   1.499
 5556SOL    HW218508  14.345  10.893   1.533
 5557SOL     OW18509  13.401  12.765   1.443
 5557SOL    HW118510  13.408  12.775   1.348
 5557SOL    HW218511  13.321  12.715   1.456
 5558SOL     OW18512  10.215   3.920   4.223
 5558SOL    HW118513  10.169   3.953   4.301
 5558SOL    HW218514  10.308   3.936   4.241
 5559SOL     OW18515  14.123  11.770  14.344
 5559SOL    HW118516  14.102  11.764  14.437
 5559SOL    HW218517  14.128  11.864  14.326
 5560SOL     OW18518  11.875   8.355   8.719
 5560SOL    HW118519  11.861   8.374   8.626
 5560SOL    HW218520  11.815   8.284   8.739
 5561SOL     OW18521   6.195  13.098   5.807
 5561SOL    HW118522   6.134  13.075   5.877
 5561SOL    HW218523   6.278  13.114   5.852
 5562SOL     OW18524   8.871   1.995   5.541
 5562SOL    HW118525   8.896   1.999   5.449
 5562SOL    HW218526   8.953   2.007   5.589
 5563SOL     OW18527   6.193   3.930   1.817
 5563SOL    HW118528   6.101   3.955   1.805
 5563SOL    HW218529   6.204   3.854   1.760
 5564SOL     OW18530  12.947  12.687   8.768
 5564SOL    HW118531  12.990  12.771   8.749
 5564SOL    HW218532  12.915  12.696   8.857
 5565SOL     OW18533  14.406   7.525   5.008
 5565SOL    HW118534  14.365   7.439   5.009
 5565SOL    HW218535  14.454   7.529   4.926
 5566SOL     OW18536  11.559  14.231   5.842
 5566SOL    HW118537  11.482  14.179   5.818
 5566SOL    HW218538  11.627  14.167   5.862
 5567SOL     OW18539   2.337   9.185   0.685
 5567SOL    HW118540   2.404   9.250   0.665
 5567SOL    HW218541   2.293   9.169   0.601
 5568SOL     OW18542  12.736  11.038   3.507
 5568SOL    HW118543  12.742  11.025   3.601
 5568SOL    HW218544  12.651  11.078   3.493
 5569SOL     OW18545   3.556  14.805  11.192
 5569SOL    HW118546   3.633  14.768  11.151
 5569SOL    HW218547   3.482  14.759  11.153
 5570SOL     OW18548  10.969   5.364   5.408
 5570SOL    HW118549  11.019   5.446   5.414
 5570SOL    HW218550  10.946   5.357   5.315
 5571SOL     OW18551   2.601   5.619   5.121
 5571SOL    HW118552   2.562   5.694   5.077
 5571SOL    HW218553   2.575   5.628   5.213
 5572SOL     OW18554   5.879  12.987   8.779
 5572SOL    HW118555   5.854  13.078   8.795
 5572SOL    HW218556   5.973  12.992   8.759
 5573SOL     OW18557   4.628   5.037   7.700
 5573SOL    HW118558   4.706   5.079   7.665
 5573SOL    HW218559   4.603   4.974   7.632
 5574SOL     OW18560   9.821   2.274   3.212
 5574SOL    HW118561   9.801   2.254   3.303
 5574SOL    HW218562   9.866   2.196   3.180
 5575SOL     OW18563   2.695   0.538   8.374
 5575SOL    HW118564   2.618   0.557   8.319
 5575SOL    HW218565   2.757   0.497   8.314
 5576SOL     OW18566   4.673   6.476   3.444
 5576SOL    HW118567   4.685   6.384   3.468
 5576SOL    HW218568   4.760   6.505   3.416
 5577SOL     OW18569   8.082   0.816  10.228
 5577SOL    HW118570   8.126   0.760  10.293
 5577SOL    HW218571   7.994   0.829  10.263
 5578SOL     OW18572   5.407  14.172   8.273
 5578SOL    HW118573   5.422  14.128   8.357
 5578SOL    HW218574   5.319  14.145   8.248
 5579SOL     OW18575  12.299   6.889   1.861
 5579SOL    HW118576  12.228   6.837   1.825
 5579SOL    HW218577  12.323   6.844   1.942
 5580SOL     OW18578  10.525  11.063   0.676
 5580SOL    HW118579  10.596  11.061   0.741
 5580SOL    HW218580  10.477  10.981   0.692
 5581SOL     OW18581   8.237   5.009  12.674
 5581SOL    HW118582   8.144   5.000  12.695
 5581SOL    HW218583   8.262   5.094  12.710
 5582SOL     OW18584  13.581   2.752   8.060
 5582SOL    HW118585  13.549   2.841   8.050
 5582SOL    HW218586  13.550   2.706   7.982
 5583SOL     OW18587  10.602   9.967   6.554
 5583SOL    HW118588  10.547   9.916   6.495
 5583SOL    HW218589  10.584  10.058   6.530
 5584SOL     OW18590  14.112   5.015   0.336
 5584SOL    HW118591  14.076   4.929   0.312
 5584SOL    HW218592  14.206   5.006   0.324
 5585SOL     OW18593  14.370  12.000  13.456
 5585SOL    HW118594  14.391  11.975  13.366
 5585SOL    HW218595  14.447  12.048  13.486
 5586SOL     OW18596   5.615   9.712  10.222
 5586SOL    HW118597   5.702   9.705  10.260
 5586SOL    HW218598   5.615   9.796  10.176
 5587SOL     OW18599  12.069   2.492  10.756
 5587SOL    HW118600  11.995   2.432  10.771
 5587SOL    HW218601  12.144   2.435  10.745
 5588SOL     OW18602   5.335   5.937   8.846
 5588SOL    HW118603   5.315   5.861   8.902
 5588SOL    HW218604   5.345   6.010   8.908
 5589SOL     OW18605  11.797   7.622   3.810
 5589SOL    HW118606  11.838   7.637   3.724
 5589SOL    HW218607  11.860   7.659   3.873
 5590SOL     OW18608  12.144  11.310   2.924
 5590SOL    HW118609  12.056  11.331   2.896
 5590SOL    HW218610  12.181  11.258   2.853
 5591SOL     OW18611  12.910  12.320   7.937
 5591SOL    HW118612  12.883  12.281   7.854
 5591SOL    HW218613  12.941  12.245   7.989
 5592SOL     OW18614   0.395   5.871  12.547
 5592SOL    HW118615   0.406   5.939  12.613
 5592SOL    HW218616   0.479   5.824  12.547
 5593SOL     OW18617   4.490  11.189  14.613
 5593SOL    HW118618   4.446  11.152  14.690
 5593SOL    HW218619   4.445  11.272  14.597
 5594SOL     OW18620  14.048   6.167  11.599
 5594SOL    HW118621  14.055   6.146  11.692
 5594SOL    HW218622  14.073   6.259  11.593
 5595SOL     OW18623   7.495   1.920  12.437
 5595SOL    HW118624   7.404   1.890  12.447
 5595SOL    HW218625   7.533   1.912  12.524
 5596SOL     OW18626  13.110   7.088   4.393
 5596SOL    HW118627  13.064   7.076   4.476
 5596SOL    HW218628  13.064   7.160   4.350
 5597SOL     OW18629   3.294   5.853  13.244
 5597SOL    HW118630   3.306   5.913  13.170
 5597SOL    HW218631   3.382   5.822  13.265
 5598SOL     OW18632  13.575   8.813  10.766
 5598SOL    HW118633  13.528   8.885  10.807
 5598SOL    HW218634  13.667   8.837  10.771
 5599SOL     OW18635  11.889   0.307  10.650
 5599SOL    HW118636  11.835   0.292  10.572
 5599SOL    HW218637  11.979   0.297  10.619
 5600SOL     OW18638  13.373  14.601   9.860
 5600SOL    HW118639  13.302  14.644   9.813
 5600SOL    HW218640  13.388  14.657   9.936
 5601SOL     OW18641   1.398  14.077   4.129
 5601SOL    HW118642   1.441  14.056   4.046
 5601SOL    HW218643   1.305  14.076   4.109
 5602SOL     OW18644  11.787   9.021   4.230
 5602SOL    HW118645  11.847   8.948   4.238
 5602SOL    HW218646  11.827   9.091   4.281
 5603SOL     OW18647   8.156  13.473   2.526
 5603SOL    HW118648   8.075  13.498   2.481
 5603SOL    HW218649   8.217  13.545   2.508
 5604SOL     OW18650   0.272  13.591   3.253
 5604SOL    HW118651   0.194  13.550   3.291
 5604SOL    HW218652   0.343  13.563   3.311
 5605SOL     OW18653   0.257   1.799   9.375
 5605SOL    HW118654   0.289   1.870   9.430
 5605SOL    HW218655   0.335   1.757   9.340
 5606SOL     OW18656   3.692  12.521  13.787
 5606SOL    HW118657   3.656  12.610  13.787
 5606SOL    HW218658   3.664  12.483  13.704
 5607SOL     OW18659   4.460   1.270   7.422
 5607SOL    HW118660   4.407   1.327   7.366
 5607SOL    HW218661   4.541   1.318   7.436
 5608SOL     OW18662   3.753   8.843  12.127
 5608SOL    HW118663   3.703   8.902  12.184
 5608SOL    HW218664   3.769   8.894  12.048
 5609SOL     OW18665  14.379  13.500   5.729
 5609SOL    HW118666  14.325  13.516   5.652
 5609SOL    HW218667  14.345  13.559   5.796
 5610SOL     OW18668   4.682   0.488   8.346
 5610SOL    HW118669   4.773   0.518   8.344
 5610SOL    HW218670   4.630   0.567   8.358
 5611SOL     OW18671   0.253  14.125   2.727
 5611SOL    HW118672   0.257  14.145   2.633
 5611SOL    HW218673   0.233  14.209   2.769
 5612SOL     OW18674   8.835  14.397  10.237
 5612SOL    HW118675   8.849  14.476  10.186
 5612SOL    HW218676   8.913  14.344  10.222
 5613SOL     OW18677   4.825  10.377  10.659
 5613SOL    HW118678   4.902  10.390  10.603
 5613SOL    HW218679   4.831  10.446  10.724
 5614SOL     OW18680   2.418   6.789  14.116
 5614SOL    HW118681   2.478   6.848  14.071
 5614SOL    HW218682   2.381   6.734  14.046
 5615SOL     OW18683   4.796  12.547  12.127
 5615SOL    HW118684   4.732  12.494  12.174
 5615SOL    HW218685   4.780  12.529  12.035
 5616SOL     OW18686  10.698   9.254   5.596
 5616SOL    HW118687  10.656   9.180   5.552
 5616SOL    HW218688  10.626   9.311   5.623
 5617SOL     OW18689  11.692   1.707  12.514
 5617SOL    HW118690  11.684   1.613  12.495
 5617SOL    HW218691  11.696   1.713  12.609
 5618SOL     OW18692   1.500  12.885   4.646
 5618SOL    HW118693   1.426  12.927   4.690
 5618SOL    HW218694   1.512  12.802   4.693
 5619SOL     OW18695  14.794   9.826  11.208
 5619SOL    HW118696  14.866   9.774  11.244
 5619SOL    HW218697  14.804   9.818  11.113
 5620SOL     OW18698   5.083   4.603   2.902
 5620SOL    HW118699   5.176   4.587   2.920
 5620SOL    HW218700   5.039   4.526   2.938
 5621SOL     OW18701  13.669  10.527   2.858
 5621SOL    HW118702  13.764  10.529   2.845
 5621SOL    HW218703  13.641  10.617   2.843
 5622SOL     OW18704  14.603   2.621   5.548
 5622SOL    HW118705  14.514   2.591   5.530
 5622SOL    HW218706  14.629   2.670   5.470
 5623SOL     OW18707  11.835   5.187   6.713
 5623SOL    HW118708  11.890   5.200   6.791
 5623SOL    HW218709  11.781   5.111   6.734
 5624SOL     OW18710   3.660  11.107  13.634
 5624SOL    HW118711   3.705  11.191  13.621
 5624SOL    HW218712   3.674  11.087  13.727
 5625SOL     OW18713   3.125  11.253   0.170
 5625SOL    HW118714   3.194  11.190   0.187
 5625SOL    HW218715   3.137  11.278   0.079
 5626SOL     OW18716   4.823   8.015   5.915
 5626SOL    HW118717   4.738   8.024   5.960
 5626SOL    HW218718   4.829   7.921   5.896
 5627SOL     OW18719   9.033   4.797   6.022
 5627SOL    HW118720   9.100   4.729   6.033
 5627SOL    HW218721   9.051   4.859   6.094
 5628SOL     OW18722   3.512  14.163   1.677
 5628SOL    HW118723   3.496  14.167   1.583
 5628SOL    HW218724   3.487  14.074   1.702
 5629SOL     OW18725  11.563   1.491  11.230
 5629SOL    HW118726  11.629   1.560  11.229
 5629SOL    HW218727  11.592   1.431  11.299
 5630SOL     OW18728   0.919   4.583   9.044
 5630SOL    HW118729   1.010   4.554   9.056
 5630SOL    HW218730   0.878   4.511   8.996
 5631SOL     OW18731   5.731   4.855   3.588
 5631SOL    HW118732   5.726   4.816   3.675
 5631SOL    HW218733   5.803   4.918   3.594
 5632SOL     OW18734   2.991  12.112  12.246
 5632SOL    HW118735   3.018  12.075  12.331
 5632SOL    HW218736   3.002  12.039  12.185
 5633SOL     OW18737   2.306   5.058   8.467
 5633SOL    HW118738   2.310   5.148   8.498
 5633SOL    HW218739   2.339   5.005   8.540
 5634SOL     OW18740   9.241   5.161  14.241
 5634SOL    HW118741   9.264   5.081  14.288
 5634SOL    HW218742   9.150   5.177  14.266
 5635SOL     OW18743  14.322   7.962   0.585
 5635SOL    HW118744  14.274   7.997   0.660
 5635SOL    HW218745  14.337   8.037   0.529
 5636SOL     OW18746  10.105   7.604   4.576
 5636SOL    HW118747  10.022   7.651   4.577
 5636SOL    HW218748  10.086   7.524   4.527
 5637SOL     OW18749  13.922   3.908  13.808
 5637SOL    HW118750  13.841   3.857  13.805
 5637SOL    HW218751  13.955   3.897  13.897
 5638SOL     OW18752   1.001  10.200   6.654
 5638SOL    HW118753   1.034  10.210   6.565
 5638SOL    HW218754   0.915  10.158   6.643
 5639SOL     OW18755   0.514  14.272   2.758
 5639SOL    HW118756   0.482  14.215   2.829
 5639SOL    HW218757   0.549  14.211   2.693
 5640SOL     OW18758   0.341  14.848  12.698
 5640SOL    HW118759   0.312  14.788  12.630
 5640SOL    HW218760   0.429  14.875  12.671
 5641SOL     OW18761   0.320   7.367  14.460
 5641SOL    HW118762   0.307   7.456  14.493
 5641SOL    HW218763   0.412   7.365  14.433
 5642SOL     OW18764   4.865   5.062   1.380
 5642SOL    HW118765   4.783   5.059   1.429
 5642SOL    HW218766   4.846   5.014   1.299
 5643SOL     OW18767   1.909   6.309  14.190
 5643SOL    HW118768   1.901   6.214  14.200
 5643SOL    HW218769   2.003   6.325  14.196
 5644SOL     OW18770   3.828  14.012  12.290
 5644SOL    HW118771   3.881  14.057  12.225
 5644SOL    HW218772   3.804  14.080  12.353
 5645SOL     OW18773  13.161   8.834   0.593
 5645SOL    HW118774  13.117   8.865   0.672
 5645SOL    HW218775  13.145   8.739   0.593
 5646SOL     OW18776  11.812  13.428   4.632
 5646SOL    HW118777  11.847  13.414   4.720
 5646SOL    HW218778  11.888  13.424   4.575
 5647SOL     OW18779   3.006   6.431   5.911
 5647SOL    HW118780   3.021   6.412   5.819
 5647SOL    HW218781   3.080   6.488   5.936
 5648SOL     OW18782  14.727  14.021   6.645
 5648SOL    HW118783  14.778  13.943   6.624
 5648SOL    HW218784  14.781  14.094   6.615
 5649SOL     OW18785  10.181   6.825   8.875
 5649SOL    HW118786  10.230   6.748   8.904
 5649SOL    HW218787  10.136   6.856   8.954
 5650SOL     OW18788  13.186  13.391   1.506
 5650SOL    HW118789  13.206  13.329   1.436
 5650SOL    HW218790  13.214  13.476   1.472
 5651SOL     OW18791   8.615   4.589  14.716
 5651SOL    HW118792   8.657   4.673  14.735
 5651SOL    HW218793   8.619   4.581  14.620
 5652SOL     OW18794  12.622  10.189   9.196
 5652SOL    HW118795  12.543  10.137   9.213
 5652SOL    HW218796  12.616  10.263   9.256
 5653SOL     OW18797  11.402   4.631   2.475
 5653SOL    HW118798  11.352   4.630   2.556
 5653SOL    HW218799  11.411   4.724   2.453
 5654SOL     OW18800  13.130   4.928   4.430
 5654SOL    HW118801  13.142   4.982   4.352
 5654SOL    HW218802  13.110   4.841   4.396
 5655SOL     OW18803  10.169   8.972   9.393
 5655SOL    HW118804  10.220   8.999   9.317
 5655SOL    HW218805  10.078   8.989   9.369
 5656SOL     OW18806  14.789  14.660   2.061
 5656SOL    HW118807  14.817  14.617   2.142
 5656SOL    HW218808  14.730  14.729   2.090
 5657SOL     OW18809   5.249   0.784  10.660
 5657SOL    HW118810   5.239   0.789  10.565
 5657SOL    HW218811   5.179   0.839  10.695
 5658SOL     OW18812   8.774   8.759  13.973
 5658SOL    HW118813   8.796   8.690  14.036
 5658SOL    HW218814   8.710   8.719  13.915
 5659SOL     OW18815  10.665  12.686  13.231
 5659SOL    HW118816  10.751  12.728  13.241
 5659SOL    HW218817  10.639  12.706  13.142
 5660SOL     OW18818  14.601   9.492  11.184
 5660SOL    HW118819  14.598   9.407  11.139
 5660SOL    HW218820  14.688   9.526  11.163
 5661SOL     OW18821   9.393   6.249  12.166
 5661SOL    HW118822   9.353   6.326  12.126
 5661SOL    HW218823   9.428   6.279  12.250
 5662SOL     OW18824  14.530   4.796  12.512
 5662SOL    HW118825  14.593   4.862  12.541
 5662SOL    HW218826  14.444   4.833  12.535
 5663SOL     OW18827   4.005   5.018   4.333
 5663SOL    HW118828   3.911   5.025   4.349
 5663SOL    HW218829   4.037   5.108   4.338
 5664SOL     OW18830   4.295  14.215   3.843
 5664SOL    HW118831   4.346  14.260   3.910
 5664SOL    HW218832   4.226  14.278   3.819
 5665SOL     OW18833   9.674   3.445   6.022
 5665SOL    HW118834   9.686   3.378   5.955
 5665SOL    HW218835   9.742   3.427   6.087
 5666SOL     OW18836   6.360   0.517   1.583
 5666SOL    HW118837   6.455   0.503   1.592
 5666SOL    HW218838   6.350   0.556   1.496
 5667SOL     OW18839   0.648   7.736   4.992
 5667SOL    HW118840   0.651   7.641   5.003
 5667SOL    HW218841   0.677   7.771   5.076
 5668SOL     OW18842   8.759   9.794   3.365
 5668SOL    HW118843   8.717   9.762   3.284
 5668SOL    HW218844   8.777   9.715   3.415
 5669SOL     OW18845  12.135   6.534  12.326
 5669SOL    HW118846  12.228   6.514  12.327
 5669SOL    HW218847  12.125   6.609  12.383
 5670SOL     OW18848   1.165   8.233   5.583
 5670SOL    HW118849   1.152   8.140   5.601
 5670SOL    HW218850   1.205   8.235   5.496
 5671SOL     OW18851   6.691   9.179  13.436
 5671SOL    HW118852   6.624   9.112  13.428
 5671SOL    HW218853   6.765   9.135  13.478
 5672SOL     OW18854  11.806   7.783  14.395
 5672SOL    HW118855  11.856   7.774  14.314
 5672SOL    HW218856  11.715   7.779  14.368
 5673SOL     OW18857  10.428  13.799  13.980
 5673SOL    HW118858  10.508  13.782  14.029
 5673SOL    HW218859  10.429  13.893  13.963
 5674SOL     OW18860  11.721   2.091   1.319
 5674SOL    HW118861  11.791   2.029   1.341
 5674SOL    HW218862  11.764   2.177   1.320
 5675SOL     OW18863  12.288  11.630   1.898
 5675SOL    HW118864  12.199  11.647   1.930
 5675SOL    HW218865  12.345  11.659   1.969
 5676SOL     OW18866   2.217   2.558  10.126
 5676SOL    HW118867   2.172   2.510  10.196
 5676SOL    HW218868   2.309   2.561  10.155
 5677SOL     OW18869  10.189   5.218   1.781
 5677SOL    HW118870  10.187   5.131   1.740
 5677SOL    HW218871  10.244   5.270   1.724
 5678SOL     OW18872   2.068   4.382   7.281
 5678SOL    HW118873   2.039   4.463   7.238
 5678SOL    HW218874   2.055   4.314   7.215
 5679SOL     OW18875   8.593   4.541   5.428
 5679SOL    HW118876   8.517   4.574   5.477
 5679SOL    HW218877   8.608   4.606   5.360
 5680SOL     OW18878  10.625   9.186   0.321
 5680SOL    HW118879  10.635   9.274   0.287
 5680SOL    HW218880  10.530   9.172   0.325
 5681SOL     OW18881   9.478  12.869   6.675
 5681SOL    HW118882   9.397  12.844   6.720
 5681SOL    HW218883   9.474  12.964   6.669
 5682SOL     OW18884   1.775   3.569  14.613
 5682SOL    HW118885   1.864   3.581  14.580
 5682SOL    HW218886   1.781   3.588  14.706
 5683SOL     OW18887  12.799   1.365   3.445
 5683SOL    HW118888  12.865   1.361   3.376
 5683SOL    HW218889  12.767   1.455   3.443
 5684SOL     OW18890  10.065   0.107   9.184
 5684SOL    HW118891  10.005   0.039   9.152
 5684SOL    HW218892  10.152   0.072   9.168
 5685SOL     OW18893   3.299   5.971   7.134
 5685SOL    HW118894   3.281   6.046   7.077
 5685SOL    HW218895   3.320   5.900   7.074
 5686SOL     OW18896   4.463   8.124   1.580
 5686SOL    HW118897   4.535   8.067   1.608
 5686SOL    HW218898   4.385   8.083   1.617
 5687SOL     OW18899   9.302   8.900   9.818
 5687SOL    HW118900   9.302   8.978   9.873
 5687SOL    HW218901   9.369   8.917   9.751
 5688SOL     OW18902   8.890   8.359   8.546
 5688SOL    HW118903   8.948   8.353   8.470
 5688SOL    HW218904   8.885   8.269   8.580
 5689SOL     OW18905   7.096   7.840   8.425
 5689SOL    HW118906   7.164   7.778   8.400
 5689SOL    HW218907   7.103   7.910   8.360
 5690SOL     OW18908   5.984   3.602   1.970
 5690SOL    HW118909   5.989   3.687   2.015
 5690SOL    HW218910   5.974   3.625   1.877
 5691SOL     OW18911   1.624  13.784   2.436
 5691SOL    HW118912   1.648  13.710   2.492
 5691SOL    HW218913   1.704  13.837   2.430
 5692SOL     OW18914  12.014  14.816  12.678
 5692SOL    HW118915  12.088  14.763  12.648
 5692SOL    HW218916  12.054   0.016  12.713
 5693SOL     OW18917   0.406   5.623  11.131
 5693SOL    HW118918   0.499   5.603  11.127
 5693SOL    HW218919   0.376   5.617  11.040
 5694SOL     OW18920   6.327  11.008   4.607
 5694SOL    HW118921   6.414  10.972   4.623
 5694SOL    HW218922   6.295  11.034   4.694
 5695SOL     OW18923   1.391   2.559   6.961
 5695SOL    HW118924   1.376   2.642   6.915
 5695SOL    HW218925   1.318   2.503   6.935
 5696SOL     OW18926   1.479   4.524   3.021
 5696SOL    HW118927   1.556   4.516   2.965
 5696SOL    HW218928   1.501   4.472   3.099
 5697SOL     OW18929   7.408   5.606   0.472
 5697SOL    HW118930   7.490   5.571   0.437
 5697SOL    HW218931   7.422   5.608   0.567
 5698SOL     OW18932   9.472  12.093   6.853
 5698SOL    HW118933   9.387  12.114   6.891
 5698SOL    HW218934   9.465  12.122   6.762
 5699SOL     OW18935   2.132  14.584   7.029
 5699SOL    HW118936   2.191  14.641   7.078
 5699SOL    HW218937   2.075  14.545   7.095
 5700SOL     OW18938   5.046  10.088   6.984
 5700SOL    HW118939   4.958  10.053   6.999
 5700SOL    HW218940   5.101  10.046   7.050
 5701SOL     OW18941   0.324   9.174   2.230
 5701SOL    HW118942   0.278   9.146   2.309
 5701SOL    HW218943   0.415   9.151   2.245
 5702SOL     OW18944   1.446   4.964   9.913
 5702SOL    HW118945   1.384   4.892   9.919
 5702SOL    HW218946   1.512   4.933   9.850
 5703SOL     OW18947   8.890   6.147  11.386
 5703SOL    HW118948   8.868   6.062  11.424
 5703SOL    HW218949   8.983   6.159  11.406
 5704SOL     OW18950  11.819  12.625   9.382
 5704SOL    HW118951  11.825  12.582   9.296
 5704SOL    HW218952  11.747  12.580   9.426
 5705SOL     OW18953  12.963  11.151  14.467
 5705SOL    HW118954  13.014  11.231  14.452
 5705SOL    HW218955  13.025  11.080  14.452
 5706SOL     OW18956   1.246   0.241   2.746
 5706SOL    HW118957   1.211   0.181   2.812
 5706SOL    HW218958   1.233   0.195   2.663
 5707SOL     OW18959  14.002   1.782  11.260
 5707SOL    HW118960  13.926   1.742  11.216
 5707SOL    HW218961  14.010   1.733  11.341
 5708SOL     OW18962  12.459  14.188   0.456
 5708SOL    HW118963  12.457  14.257   0.522
 5708SOL    HW218964  12.540  14.203   0.408
 5709SOL     OW18965   8.044   7.404   9.598
 5709SOL    HW118966   8.112   7.465   9.567
 5709SOL    HW218967   7.980   7.461   9.641
 5710SOL     OW18968   1.526   9.918   0.094
 5710SOL    HW118969   1.585   9.911   0.169
 5710SOL    HW218970   1.566   9.863   0.027
 5711SOL     OW18971   5.336   8.004   4.510
 5711SOL    HW118972   5.415   8.047   4.542
 5711SOL    HW218973   5.360   7.967   4.426
 5712SOL     OW18974   3.727   4.380   7.565
 5712SOL    HW118975   3.715   4.402   7.657
 5712SOL    HW218976   3.818   4.402   7.547
 5713SOL     OW18977   6.016   7.501  10.595
 5713SOL    HW118978   6.014   7.595  10.610
 5713SOL    HW218979   5.927   7.471  10.615
 5714SOL     OW18980   0.963   5.016  13.606
 5714SOL    HW118981   1.051   5.051  13.620
 5714SOL    HW218982   0.966   4.927  13.642
 5715SOL     OW18983   7.483  10.797  14.687
 5715SOL    HW118984   7.397  10.827  14.659
 5715SOL    HW218985   7.469  10.764  14.776
 5716SOL     OW18986   3.406   6.854  13.427
 5716SOL    HW118987   3.404   6.833  13.334
 5716SOL    HW218988   3.492   6.892  13.442
 5717SOL     OW18989   0.709   2.145  11.346
 5717SOL    HW118990   0.710   2.127  11.252
 5717SOL    HW218991   0.706   2.241  11.352
 5718SOL     OW18992   8.752  10.682  14.723
 5718SOL    HW118993   8.679  10.629  14.756
 5718SOL    HW218994   8.772  10.643  14.638
 5719SOL     OW18995   2.352  12.565   7.807
 5719SOL    HW118996   2.355  12.598   7.897
 5719SOL    HW218997   2.390  12.477   7.812
 5720SOL     OW18998   4.358  11.299   0.886
 5720SOL    HW118999   4.373  11.313   0.793
 5720SOL    HW219000   4.308  11.376   0.914
 5721SOL     OW19001   4.350   4.541   4.453
 5721SOL    HW119002   4.358   4.539   4.358
 5721SOL    HW219003   4.256   4.539   4.469
 5722SOL     OW19004  13.493  12.579   8.580
 5722SOL    HW119005  13.471  12.665   8.542
 5722SOL    HW219006  13.499  12.521   8.504
 5723SOL     OW19007  14.665   3.156   4.246
 5723SOL    HW119008  14.731   3.163   4.177
 5723SOL    HW219009  14.598   3.220   4.222
 5724SOL     OW19010   0.348  14.208   5.895
 5724SOL    HW119011   0.363  14.298   5.927
 5724SOL    HW219012   0.423  14.190   5.838
 5725SOL     OW19013   5.148   3.432  13.105
 5725SOL    HW119014   5.091   3.368  13.063
 5725SOL    HW219015   5.154   3.504  13.042
 5726SOL     OW19016  11.648   9.498   3.697
 5726SOL    HW119017  11.568   9.461   3.734
 5726SOL    HW219018  11.627   9.516   3.605
 5727SOL     OW19019   8.329   4.287   9.357
 5727SOL    HW119020   8.415   4.292   9.400
 5727SOL    HW219021   8.266   4.287   9.430
 5728SOL     OW19022   2.315   7.953   0.990
 5728SOL    HW119023   2.252   7.982   1.056
 5728SOL    HW219024   2.346   7.868   1.021
 5729SOL     OW19025   2.911   4.530   1.514
 5729SOL    HW119026   2.836   4.504   1.569
 5729SOL    HW219027   2.897   4.623   1.498
 5730SOL     OW19028  10.005   4.903   6.831
 5730SOL    HW119029  10.022   4.835   6.766
 5730SOL    HW219030  10.071   4.887   6.899
 5731SOL     OW19031  10.913   9.593   5.461
 5731SOL    HW119032  10.846   9.629   5.403
 5731SOL    HW219033  10.928   9.662   5.526
 5732SOL     OW19034  10.885   4.637  12.113
 5732SOL    HW119035  10.889   4.653  12.207
 5732SOL    HW219036  10.793   4.617  12.095
 5733SOL     OW19037   4.321   5.738   0.388
 5733SOL    HW119038   4.292   5.827   0.406
 5733SOL    HW219039   4.317   5.694   0.473
 5734SOL     OW19040   3.565   1.882  11.685
 5734SOL    HW119041   3.653   1.898  11.649
 5734SOL    HW219042   3.553   1.787  11.675
 5735SOL     OW19043   7.706   4.664  11.844
 5735SOL    HW119044   7.745   4.744  11.809
 5735SOL    HW219045   7.682   4.614  11.767
 5736SOL     OW19046   3.103   3.534   6.484
 5736SOL    HW119047   3.169   3.602   6.499
 5736SOL    HW219048   3.112   3.476   6.559
 5737SOL     OW19049   2.580   9.420   9.872
 5737SOL    HW119050   2.559   9.454   9.785
 5737SOL    HW219051   2.495   9.408   9.914
 5738SOL     OW19052  12.474   9.651  14.572
 5738SOL    HW119053  12.470   9.682  14.481
 5738SOL    HW219054  12.417   9.574  14.573
 5739SOL     OW19055   5.608   0.435   6.673
 5739SOL    HW119056   5.660   0.419   6.595
 5739SOL    HW219057   5.668   0.477   6.735
 5740SOL     OW19058   5.293   9.643   3.661
 5740SOL    HW119059   5.346   9.722   3.646
 5740SOL    HW219060   5.346   9.589   3.720
 5741SOL     OW19061   2.288   1.037   8.523
 5741SOL    HW119062   2.287   1.131   8.502
 5741SOL    HW219063   2.363   1.026   8.582
 5742SOL     OW19064   4.047   7.708  14.105
 5742SOL    HW119065   4.142   7.713  14.118
 5742SOL    HW219066   4.037   7.642  14.036
 5743SOL     OW19067  12.030   9.173  11.008
 5743SOL    HW119068  12.035   9.255  10.959
 5743SOL    HW219069  11.948   9.132  10.978
 5744SOL     OW19070   3.911  14.808   8.254
 5744SOL    HW119071   3.991  14.761   8.231
 5744SOL    HW219072   3.934   0.021   8.245
 5745SOL     OW19073   0.209  10.845   2.309
 5745SOL    HW119074   0.260  10.813   2.383
 5745SOL    HW219075   0.143  10.903   2.348
 5746SOL     OW19076  12.674   7.637   4.114
 5746SOL    HW119077  12.587   7.597   4.121
 5746SOL    HW219078  12.659   7.729   4.134
 5747SOL     OW19079  13.292   2.027   3.963
 5747SOL    HW119080  13.225   2.058   4.024
 5747SOL    HW219081  13.365   2.087   3.975
 5748SOL     OW19082  13.467   3.041   3.357
 5748SOL    HW119083  13.372   3.027   3.355
 5748SOL    HW219084  13.502   2.970   3.303
 5749SOL     OW19085   2.678  13.516  12.145
 5749SOL    HW119086   2.618  13.488  12.214
 5749SOL    HW219087   2.692  13.438  12.092
 5750SOL     OW19088   6.808  13.749  13.830
 5750SOL    HW119089   6.835  13.839  13.811
 5750SOL    HW219090   6.759  13.755  13.912
 5751SOL     OW19091  14.645  10.668   7.011
 5751SOL    HW119092  14.558  10.642   6.982
 5751SOL    HW219093  14.658  10.755   6.974
 5752SOL     OW19094   8.661  13.056   1.046
 5752SOL    HW119095   8.704  13.141   1.053
 5752SOL    HW219096   8.593  13.069   0.980
 5753SOL     OW19097  14.868  13.207   6.861
 5753SOL    HW119098  14.817  13.161   6.795
 5753SOL    HW219099  14.812  13.208   6.938
 5754SOL     OW19100   1.083   7.459   9.736
 5754SOL    HW119101   1.168   7.462   9.780
 5754SOL    HW219102   1.032   7.527   9.780
 5755SOL     OW19103   7.319   6.667   2.311
 5755SOL    HW119104   7.350   6.617   2.236
 5755SOL    HW219105   7.233   6.699   2.284
 5756SOL     OW19106   1.395   5.148   9.426
 5756SOL    HW119107   1.469   5.209   9.428
 5756SOL    HW219108   1.435   5.062   9.442
 5757SOL     OW19109   2.501   9.433   9.348
 5757SOL    HW119110   2.465   9.522   9.357
 5757SOL    HW219111   2.428   9.375   9.370
 5758SOL     OW19112   6.046  12.957   1.245
 5758SOL    HW119113   5.967  12.912   1.217
 5758SOL    HW219114   6.079  13.000   1.165
 5759SOL     OW19115  12.363   9.411  12.026
 5759SOL    HW119116  12.314   9.330  12.018
 5759SOL    HW219117  12.304   9.472  12.070
 5760SOL     OW19118   9.374   8.023  10.271
 5760SOL    HW119119   9.466   8.050  10.272
 5760SOL    HW219120   9.368   7.959  10.342
 5761SOL     OW19121  12.506   8.819   5.112
 5761SOL    HW119122  12.567   8.815   5.038
 5761SOL    HW219123  12.419   8.817   5.071
 5762SOL     OW19124  12.518   4.605   0.135
 5762SOL    HW119125  12.450   4.667   0.160
 5762SOL    HW219126  12.600   4.647   0.162
 5763SOL     OW19127  11.125   2.602   5.591
 5763SOL    HW119128  11.041   2.645   5.607
 5763SOL    HW219129  11.186   2.674   5.577
 5764SOL     OW19130  12.070  13.241   3.837
 5764SOL    HW119131  12.123  13.204   3.908
 5764SOL    HW219132  12.033  13.164   3.793
 5765SOL     OW19133   1.755  13.018   2.430
 5765SOL    HW119134   1.660  13.018   2.428
 5765SOL    HW219135   1.779  12.929   2.457
 5766SOL     OW19136   6.132   9.193  14.387
 5766SOL    HW119137   6.111   9.216  14.477
 5766SOL    HW219138   6.122   9.098  14.383
 5767SOL     OW19139  11.514   4.762   4.535
 5767SOL    HW119140  11.438   4.720   4.495
 5767SOL    HW219141  11.478   4.832   4.588
 5768SOL     OW19142   0.131   1.480   1.403
 5768SOL    HW119143   0.134   1.470   1.498
 5768SOL    HW219144   0.071   1.553   1.388
 5769SOL     OW19145   6.463  10.273   6.637
 5769SOL    HW119146   6.533  10.290   6.699
 5769SOL    HW219147   6.495  10.309   6.554
 5770SOL     OW19148  13.590   3.497   6.284
 5770SOL    HW119149  13.529   3.560   6.246
 5770SOL    HW219150  13.612   3.438   6.212
 5771SOL     OW19151   5.273  13.701   3.363
 5771SOL    HW119152   5.229  13.684   3.280
 5771SOL    HW219153   5.366  13.692   3.343
 5772SOL     OW19154   3.760   0.226   8.991
 5772SOL    HW119155   3.679   0.245   8.943
 5772SOL    HW219156   3.813   0.304   8.982
 5773SOL     OW19157  14.320   1.421   5.443
 5773SOL    HW119158  14.265   1.498   5.433
 5773SOL    HW219159  14.406   1.456   5.466
 5774SOL     OW19160   8.865  13.269   6.668
 5774SOL    HW119161   8.843  13.358   6.642
 5774SOL    HW219162   8.911  13.233   6.591
 5775SOL     OW19163   3.407   6.285   1.956
 5775SOL    HW119164   3.354   6.328   1.888
 5775SOL    HW219165   3.378   6.193   1.953
 5776SOL     OW19166  14.278  11.032  12.481
 5776SOL    HW119167  14.221  11.098  12.442
 5776SOL    HW219168  14.320  11.078  12.554
 5777SOL     OW19169   2.139   0.696   4.059
 5777SOL    HW119170   2.215   0.746   4.030
 5777SOL    HW219171   2.069   0.762   4.066
 5778SOL     OW19172   0.385  10.602  10.451
 5778SOL    HW119173   0.411  10.510  10.453
 5778SOL    HW219174   0.452  10.647  10.503
 5779SOL     OW19175   1.163  14.386  12.102
 5779SOL    HW119176   1.210  14.390  12.185
 5779SOL    HW219177   1.224  14.343  12.042
 5780SOL     OW19178   4.236   8.757   8.983
 5780SOL    HW119179   4.156   8.774   9.032
 5780SOL    HW219180   4.306   8.791   9.038
 5781SOL     OW19181   9.482   8.316   5.063
 5781SOL    HW119182   9.436   8.388   5.020
 5781SOL    HW219183   9.423   8.287   5.132
 5782SOL     OW19184   2.417   9.386   6.111
 5782SOL    HW119185   2.405   9.435   6.193
 5782SOL    HW219186   2.376   9.441   6.045
 5783SOL     OW19187   4.703  11.569   9.627
 5783SOL    HW119188   4.793  11.593   9.651
 5783SOL    HW219189   4.681  11.628   9.555
 5784SOL     OW19190  11.108   1.727  12.289
 5784SOL    HW119191  11.135   1.789  12.357
 5784SOL    HW219192  11.016   1.709  12.309
 5785SOL     OW19193  11.243   7.680  14.721
 5785SOL    HW119194  11.180   7.683  14.649
 5785SOL    HW219195  11.193   7.646  14.795
 5786SOL     OW19196   6.339  12.679  13.685
 5786SOL    HW119197   6.306  12.678  13.775
 5786SOL    HW219198   6.418  12.624  13.688
 5787SOL     OW19199  12.296  10.203   0.674
 5787SOL    HW119200  12.349  10.148   0.616
 5787SOL    HW219201  12.359  10.244   0.733
 5788SOL     OW19202   2.904   6.176  12.109
 5788SOL    HW119203   2.986   6.173  12.062
 5788SOL    HW219204   2.927   6.211  12.195
 5789SOL     OW19205  10.060   3.524   6.389
 5789SOL    HW119206  10.048   3.552   6.480
 5789SOL    HW219207  10.046   3.603   6.337
 5790SOL     OW19208  12.395  14.547  11.855
 5790SOL    HW119209  12.423  14.559  11.764
 5790SOL    HW219210  12.372  14.634  11.885
 5791SOL     OW19211  14.424  11.910   1.351
 5791SOL    HW119212  14.402  11.962   1.273
 5791SOL    HW219213  14.343  11.909   1.402
 5792SOL     OW19214   0.252   4.021  14.850
 5792SOL    HW119215   0.274   3.932  14.824
 5792SOL    HW219216   0.233   4.066  14.768
 5793SOL     OW19217  11.232   8.234   7.944
 5793SOL    HW119218  11.218   8.326   7.968
 5793SOL    HW219219  11.144   8.197   7.939
 5794SOL     OW19220   1.029   8.500   4.549
 5794SOL    HW119221   0.946   8.549   4.545
 5794SOL    HW219222   1.021   8.433   4.482
 5795SOL     OW19223   1.691   0.567  12.238
 5795SOL    HW119224   1.655   0.485  12.206
 5795SOL    HW219225   1.779   0.545  12.268
 5796SOL     OW19226   4.174   2.222   3.053
 5796SOL    HW119227   4.146   2.131   3.057
 5796SOL    HW219228   4.160   2.255   3.142
 5797SOL     OW19229  11.782   2.117   2.804
 5797SOL    HW119230  11.712   2.174   2.773
 5797SOL    HW219231  11.853   2.130   2.741
 5798SOL     OW19232   7.629   5.840  14.646
 5798SOL    HW119233   7.717   5.858  14.680
 5798SOL    HW219234   7.645   5.797  14.562
 5799SOL     OW19235   1.258  12.130   1.853
 5799SOL    HW119236   1.267  12.213   1.805
 5799SOL    HW219237   1.329  12.132   1.918
 5800SOL     OW19238  10.074   7.437   3.729
 5800SOL    HW119239  10.120   7.361   3.764
 5800SOL    HW219240  10.101   7.442   3.637
 5801SOL     OW19241  12.624  12.132   6.244
 5801SOL    HW119242  12.687  12.085   6.300
 5801SOL    HW219243  12.667  12.215   6.223
 5802SOL     OW19244  13.265   0.785   3.417
 5802SOL    HW119245  13.285   0.877   3.400
 5802SOL    HW219246  13.197   0.788   3.484
 5803SOL     OW19247   6.435   3.985   6.247
 5803SOL    HW119248   6.458   4.075   6.225
 5803SOL    HW219249   6.472   3.932   6.177
 5804SOL     OW19250   1.514   2.455  10.407
 5804SOL    HW119251   1.481   2.450  10.497
 5804SOL    HW219252   1.538   2.365  10.385
 5805SOL     OW19253  10.009   3.285   3.828
 5805SOL    HW119254  10.017   3.380   3.823
 5805SOL    HW219255   9.939   3.270   3.892
 5806SOL     OW19256   3.561   8.687  14.505
 5806SOL    HW119257   3.578   8.636  14.426
 5806SOL    HW219258   3.628   8.658  14.566
 5807SOL     OW19259   5.352   4.781  13.749
 5807SOL    HW119260   5.333   4.874  13.741
 5807SOL    HW219261   5.319   4.757  13.836
 5808SOL     OW19262   8.468   3.313  12.997
 5808SOL    HW119263   8.406   3.289  13.065
 5808SOL    HW219264   8.483   3.407  13.010
 5809SOL     OW19265  13.449  10.773  13.295
 5809SOL    HW119266  13.397  10.782  13.375
 5809SOL    HW219267  13.387  10.791  13.224
 5810SOL     OW19268   0.021  11.878   4.364
 5810SOL    HW119269  14.818  11.834   4.381
 5810SOL    HW219270   0.029  11.877   4.268
 5811SOL     OW19271  11.522   5.465   1.578
 5811SOL    HW119272  11.605   5.471   1.531
 5811SOL    HW219273  11.512   5.551   1.620
 5812SOL     OW19274   3.480   2.940   3.905
 5812SOL    HW119275   3.508   2.888   3.980
 5812SOL    HW219276   3.441   3.019   3.944
 5813SOL     OW19277   2.982   1.007  14.000
 5813SOL    HW119278   3.011   1.053  13.921
 5813SOL    HW219279   2.945   0.925  13.968
 5814SOL     OW19280  13.669  11.076   1.422
 5814SOL    HW119281  13.590  11.099   1.471
 5814SOL    HW219282  13.721  11.157   1.421
 5815SOL     OW19283  10.939   8.128  13.345
 5815SOL    HW119284  10.943   8.063  13.275
 5815SOL    HW219285  10.998   8.198  13.317
 5816SOL     OW19286   4.498   2.014   9.304
 5816SOL    HW119287   4.588   2.033   9.280
 5816SOL    HW219288   4.494   2.028   9.398
 5817SOL     OW19289   9.289   7.783   0.484
 5817SOL    HW119290   9.290   7.870   0.444
 5817SOL    HW219291   9.305   7.723   0.411
 5818SOL     OW19292   4.883   3.746  12.645
 5818SOL    HW119293   4.855   3.742  12.553
 5818SOL    HW219294   4.921   3.660  12.663
 5819SOL     OW19295  14.220  13.009   4.689
 5819SOL    HW119296  14.239  13.086   4.636
 5819SOL    HW219297  14.144  13.034   4.741
 5820SOL     OW19298   1.633  10.265   6.125
 5820SOL    HW119299   1.717  10.269   6.171
 5820SOL    HW219300   1.645  10.195   6.061
 5821SOL     OW19301   5.718  10.788  12.627
 5821SOL    HW119302   5.811  10.778  12.646
 5821SOL    HW219303   5.707  10.749  12.540
 5822SOL     OW19304  11.916  13.915   3.257
 5822SOL    HW119305  11.826  13.918   3.223
 5822SOL    HW219306  11.906  13.930   3.351
 5823SOL     OW19307   3.433  10.982  13.721
 5823SOL    HW119308   3.406  10.910  13.664
 5823SOL    HW219309   3.490  11.035  13.667
 5824SOL     OW19310   8.681   1.575   1.087
 5824SOL    HW119311   8.629   1.655   1.088
 5824SOL    HW219312   8.659   1.534   1.003
 5825SOL     OW19313   0.790   4.798   0.821
 5825SOL    HW119314   0.885   4.795   0.808
 5825SOL    HW219315   0.754   4.755   0.744
 5826SOL     OW19316   2.945   5.356   6.326
 5826SOL    HW119317   3.001   5.349   6.249
 5826SOL    HW219318   3.006   5.362   6.400
 5827SOL     OW19319   3.268   2.442   3.945
 5827SOL    HW119320   3.297   2.433   4.035
 5827SOL    HW219321   3.248   2.535   3.935
 5828SOL     OW19322   9.047   5.053   2.166
 5828SOL    HW119323   8.953   5.074   2.164
 5828SOL    HW219324   9.055   4.978   2.107
 5829SOL     OW19325   5.914  12.500   0.758
 5829SOL    HW119326   5.895  12.409   0.736
 5829SOL    HW219327   5.882  12.550   0.682
 5830SOL     OW19328   3.471   8.526  13.509
 5830SOL    HW119329   3.402   8.570  13.559
 5830SOL    HW219330   3.544   8.518  13.570
 5831SOL     OW19331  12.531  13.003   3.948
 5831SOL    HW119332  12.471  12.947   3.899
 5831SOL    HW219333  12.511  12.985   4.040
 5832SOL     OW19334  13.725   3.735   0.007
 5832SOL    HW119335  13.713   3.666   0.072
 5832SOL    HW219336  13.722   3.689  14.803
 5833SOL     OW19337   9.919   6.030  11.693
 5833SOL    HW119338   9.940   5.969  11.764
 5833SOL    HW219339   9.830   6.061  11.713
 5834SOL     OW19340   5.759   9.645   8.942
 5834SOL    HW119341   5.854   9.643   8.938
 5834SOL    HW219342   5.730   9.585   8.874
 5835SOL     OW19343   7.334   6.821  10.749
 5835SOL    HW119344   7.311   6.897  10.802
 5835SOL    HW219345   7.372   6.759  10.810
 5836SOL     OW19346   1.124   0.470  10.210
 5836SOL    HW119347   1.207   0.437  10.178
 5836SOL    HW219348   1.100   0.410  10.281
 5837SOL     OW19349   3.595  11.890   3.426
 5837SOL    HW119350   3.629  11.978   3.409
 5837SOL    HW219351   3.502  11.895   3.401
 5838SOL     OW19352   0.130  11.933   5.824
 5838SOL    HW119353   0.060  11.885   5.868
 5838SOL    HW219354   0.120  11.909   5.731
 5839SOL     OW19355   8.012   3.192   8.587
 5839SOL    HW119356   8.002   3.103   8.552
 5839SOL    HW219357   7.939   3.203   8.647
 5840SOL     OW19358  13.076   3.208   8.501
 5840SOL    HW119359  13.078   3.212   8.597
 5840SOL    HW219360  13.004   3.267   8.477
 5841SOL     OW19361  11.509  12.801   9.185
 5841SOL    HW119362  11.598  12.829   9.203
 5841SOL    HW219363  11.479  12.860   9.115
 5842SOL     OW19364   3.148  10.808   4.346
 5842SOL    HW119365   3.227  10.834   4.394
 5842SOL    HW219366   3.130  10.883   4.289
 5843SOL     OW19367  11.533   3.980   1.272
 5843SOL    HW119368  11.526   4.023   1.357
 5843SOL    HW219369  11.592   3.906   1.287
 5844SOL     OW19370  12.671  12.438  10.016
 5844SOL    HW119371  12.671  12.454   9.922
 5844SOL    HW219372  12.608  12.501  10.052
 5845SOL     OW19373  10.324  14.398  13.835
 5845SOL    HW119374  10.297  14.332  13.771
 5845SOL    HW219375  10.251  14.460  13.836
 5846SOL     OW19376   5.943   7.480   3.770
 5846SOL    HW119377   5.866   7.536   3.765
 5846SOL    HW219378   6.011   7.535   3.807
 5847SOL     OW19379   3.367  12.873   1.252
 5847SOL    HW119380   3.317  12.795   1.228
 5847SOL    HW219381   3.372  12.924   1.172
 5848SOL     OW19382   0.967  11.729  11.704
 5848SOL    HW119383   0.961  11.791  11.776
 5848SOL    HW219384   0.880  11.731  11.663
 5849SOL     OW19385  14.495   5.612   0.958
 5849SOL    HW119386  14.556   5.599   0.885
 5849SOL    HW219387  14.467   5.524   0.981
 5850SOL     OW19388  12.276   5.480   9.320
 5850SOL    HW119389  12.337   5.537   9.368
 5850SOL    HW219390  12.294   5.499   9.227
 5851SOL     OW19391   2.082  11.389   0.208
 5851SOL    HW119392   2.062  11.319   0.270
 5851SOL    HW219393   2.177  11.400   0.214
 5852SOL     OW19394  10.154  13.702  10.139
 5852SOL    HW119395  10.196  13.648  10.206
 5852SOL    HW219396  10.085  13.646  10.103
 5853SOL     OW19397   7.311   9.248   4.166
 5853SOL    HW119398   7.365   9.318   4.130
 5853SOL    HW219399   7.342   9.169   4.121
 5854SOL     OW19400   4.295   9.180   9.261
 5854SOL    HW119401   4.352   9.218   9.328
 5854SOL    HW219402   4.351   9.173   9.183
 5855SOL     OW19403  13.092  10.116  10.849
 5855SOL    HW119404  13.047  10.097  10.932
 5855SOL    HW219405  13.111  10.031  10.812
 5856SOL     OW19406   3.917  14.518  10.769
 5856SOL    HW119407   3.980  14.446  10.771
 5856SOL    HW219408   3.966  14.594  10.801
 5857SOL     OW19409   0.818  12.027  14.801
 5857SOL    HW119410   0.825  11.977   0.003
 5857SOL    HW219411   0.726  12.016  14.774
 5858SOL     OW19412   3.987   8.496   0.639
 5858SOL    HW119413   4.029   8.476   0.723
 5858SOL    HW219414   3.900   8.457   0.645
 5859SOL     OW19415   4.398  10.566   5.153
 5859SOL    HW119416   4.411  10.478   5.190
 5859SOL    HW219417   4.427  10.557   5.062
 5860SOL     OW19418   9.779  12.140  13.900
 5860SOL    HW119419   9.763  12.208  13.834
 5860SOL    HW219420   9.742  12.061  13.862
 5861SOL     OW19421   3.356   6.278  12.436
 5861SOL    HW119422   3.366   6.231  12.518
 5861SOL    HW219423   3.355   6.210  12.369
 5862SOL     OW19424   2.572  11.281   8.744
 5862SOL    HW119425   2.655  11.255   8.784
 5862SOL    HW219426   2.555  11.213   8.679
 5863SOL     OW19427  12.909   6.543   2.430
 5863SOL    HW119428  12.971   6.614   2.445
 5863SOL    HW219429  12.844   6.581   2.371
 5864SOL     OW19430   8.682  12.585   5.396
 5864SOL    HW119431   8.733  12.649   5.446
 5864SOL    HW219432   8.591  12.613   5.409
 5865SOL     OW19433   7.749  10.792   6.165
 5865SOL    HW119434   7.798  10.869   6.194
 5865SOL    HW219435   7.814  10.736   6.125
 5866SOL     OW19436   3.913   7.088  13.816
 5866SOL    HW119437   3.841   7.121  13.870
 5866SOL    HW219438   3.870   7.032  13.750
 5867SOL     OW19439   3.131  14.580   8.833
 5867SOL    HW119440   3.168  14.568   8.920
 5867SOL    HW219441   3.068  14.508   8.823
 5868SOL     OW19442   8.823   9.643  12.109
 5868SOL    HW119443   8.904   9.595  12.125
 5868SOL    HW219444   8.846   9.707  12.042
 5869SOL     OW19445   6.122  14.717   2.209
 5869SOL    HW119446   6.039  14.702   2.255
 5869SOL    HW219447   6.173  14.639   2.226
 5870SOL     OW19448   5.416   2.324   8.856
 5870SOL    HW119449   5.482   2.369   8.804
 5870SOL    HW219450   5.336   2.375   8.841
 5871SOL     OW19451  12.636  12.948   3.280
 5871SOL    HW119452  12.730  12.963   3.293
 5871SOL    HW219453  12.631  12.902   3.196
 5872SOL     OW19454   7.230   3.813  14.487
 5872SOL    HW119455   7.275   3.734  14.517
 5872SOL    HW219456   7.146   3.811  14.532
 5873SOL     OW19457   9.483  10.229  10.949
 5873SOL    HW119458   9.518  10.154  10.900
 5873SOL    HW219459   9.521  10.306  10.906
 5874SOL     OW19460   2.785  14.518  12.386
 5874SOL    HW119461   2.869  14.563  12.374
 5874SOL    HW219462   2.805  14.445  12.445
 5875SOL     OW19463   9.197   5.556   1.039
 5875SOL    HW119464   9.154   5.609   1.106
 5875SOL    HW219465   9.282   5.598   1.026
 5876SOL     OW19466   9.619   3.625  10.116
 5876SOL    HW119467   9.563   3.549  10.101
 5876SOL    HW219468   9.603   3.682  10.041
 5877SOL     OW19469   6.025   0.932  12.865
 5877SOL    HW119470   6.047   0.892  12.949
 5877SOL    HW219471   6.069   1.017  12.866
 5878SOL     OW19472   1.526   9.000   3.290
 5878SOL    HW119473   1.579   9.066   3.336
 5878SOL    HW219474   1.480   9.049   3.223
 5879SOL     OW19475   1.914   1.877   7.397
 5879SOL    HW119476   1.849   1.845   7.333
 5879SOL    HW219477   1.988   1.904   7.344
 5880SOL     OW19478   5.424   4.104   8.362
 5880SOL    HW119479   5.412   4.198   8.374
 5880SOL    HW219480   5.413   4.067   8.450
 5881SOL     OW19481  14.713   5.194  11.553
 5881SOL    HW119482  14.753   5.110  11.576
 5881SOL    HW219483  14.750   5.216  11.468
 5882SOL     OW19484   5.129   8.385  11.608
 5882SOL    HW119485   5.209   8.429  11.634
 5882SOL    HW219486   5.067   8.402  11.678
 5883SOL     OW19487   2.807   5.468   8.811
 5883SOL    HW119488   2.805   5.458   8.716
 5883SOL    HW219489   2.760   5.392   8.844
 5884SOL     OW19490   0.095   3.518  12.365
 5884SOL    HW119491   0.181   3.551  12.338
 5884SOL    HW219492   0.059   3.589  12.419
 5885SOL     OW19493  11.528  13.395   7.990
 5885SOL    HW119494  11.505  13.350   8.071
 5885SOL    HW219495  11.499  13.336   7.921
 5886SOL     OW19496   6.939   4.874   2.001
 5886SOL    HW119497   6.906   4.950   2.049
 5886SOL    HW219498   6.879   4.804   2.025
 5887SOL     OW19499   5.051  13.786  13.351
 5887SOL    HW119500   5.009  13.838  13.420
 5887SOL    HW219501   5.105  13.848  13.303
 5888SOL     OW19502  14.680  12.476   7.189
 5888SOL    HW119503  14.602  12.421   7.199
 5888SOL    HW219504  14.716  12.452   7.104
 5889SOL     OW19505   4.003   1.947   5.146
 5889SOL    HW119506   3.960   1.870   5.109
 5889SOL    HW219507   3.933   2.012   5.152
 5890SOL     OW19508   3.835   3.018   2.291
 5890SOL    HW119509   3.754   2.974   2.319
 5890SOL    HW219510   3.873   3.052   2.372
 5891SOL     OW19511  13.098  12.994   1.193
 5891SOL    HW119512  13.047  12.998   1.112
 5891SOL    HW219513  13.040  12.953   1.257
 5892SOL     OW19514   1.395   7.122   4.896
 5892SOL    HW119515   1.419   7.031   4.912
 5892SOL    HW219516   1.410   7.166   4.980
 5893SOL     OW19517  11.173   7.845   4.311
 5893SOL    HW119518  11.095   7.853   4.366
 5893SOL    HW219519  11.185   7.751   4.300
 5894SOL     OW19520   7.870  11.807  10.037
 5894SOL    HW119521   7.817  11.863  10.095
 5894SOL    HW219522   7.822  11.807   9.955
 5895SOL     OW19523  12.445   6.110  13.748
 5895SOL    HW119524  12.372   6.075  13.799
 5895SOL    HW219525  12.523   6.072  13.789
 5896SOL     OW19526   8.462   1.397   6.403
 5896SOL    HW119527   8.525   1.410   6.475
 5896SOL    HW219528   8.442   1.304   6.405
 5897SOL     OW19529   2.100  14.014   1.955
 5897SOL    HW119530   2.105  13.980   2.044
 5897SOL    HW219531   2.187  13.999   1.918
 5898SOL     OW19532  12.736   0.272   2.520
 5898SOL    HW119533  12.792   0.347   2.539
 5898SOL    HW219534  12.784   0.197   2.556
 5899SOL     OW19535   9.096   2.960   3.885
 5899SOL    HW119536   9.129   2.906   3.813
 5899SOL    HW219537   9.002   2.968   3.869
 5900SOL     OW19538   2.630   4.523  13.089
 5900SOL    HW119539   2.685   4.491  13.161
 5900SOL    HW219540   2.649   4.616  13.083
 5901SOL     OW19541   4.159  11.302   9.977
 5901SOL    HW119542   4.140  11.351   9.897
 5901SOL    HW219543   4.108  11.346  10.045
 5902SOL     OW19544  10.758   2.597   0.331
 5902SOL    HW119545  10.754   2.689   0.305
 5902SOL    HW219546  10.737   2.597   0.424
 5903SOL     OW19547  13.776   1.283   3.969
 5903SOL    HW119548  13.806   1.347   4.033
 5903SOL    HW219549  13.724   1.334   3.906
 5904SOL     OW19550   5.775   7.296   4.035
 5904SOL    HW119551   5.845   7.242   4.071
 5904SOL    HW219552   5.820   7.362   3.981
 5905SOL     OW19553  11.039  10.068   0.514
 5905SOL    HW119554  11.054   9.985   0.469
 5905SOL    HW219555  10.949  10.091   0.492
 5906SOL     OW19556   9.097   9.135   3.349
 5906SOL    HW119557   9.110   9.043   3.326
 5906SOL    HW219558   9.134   9.184   3.275
 5907SOL     OW19559   0.678   2.620   9.281
 5907SOL    HW119560   0.628   2.690   9.322
 5907SOL    HW219561   0.724   2.578   9.354
 5908SOL     OW19562   6.729   9.711   3.274
 5908SOL    HW119563   6.796   9.645   3.255
 5908SOL    HW219564   6.670   9.668   3.337
 5909SOL     OW19565   8.216   4.866   2.468
 5909SOL    HW119566   8.198   4.830   2.381
 5909SOL    HW219567   8.309   4.889   2.465
 5910SOL     OW19568   5.739  11.634   0.855
 5910SOL    HW119569   5.762  11.563   0.795
 5910SOL    HW219570   5.673  11.596   0.913
 5911SOL     OW19571   3.312  11.078   3.149
 5911SOL    HW119572   3.383  11.118   3.199
 5911SOL    HW219573   3.238  11.075   3.209
 5912SOL     OW19574   3.582   0.329   7.833
 5912SOL    HW119575   3.507   0.317   7.775
 5912SOL    HW219576   3.558   0.403   7.889
 5913SOL     OW19577   4.244   4.454   9.324
 5913SOL    HW119578   4.173   4.493   9.274
 5913SOL    HW219579   4.296   4.528   9.354
 5914SOL     OW19580   9.147   1.447  13.926
 5914SOL    HW119581   9.199   1.511  13.877
 5914SOL    HW219582   9.175   1.362  13.891
 5915SOL     OW19583  12.548   3.685   2.983
 5915SOL    HW119584  12.643   3.691   2.994
 5915SOL    HW219585  12.528   3.593   3.004
 5916SOL     OW19586   3.604   2.167  14.524
 5916SOL    HW119587   3.670   2.109  14.561
 5916SOL    HW219588   3.630   2.254  14.553
 5917SOL     OW19589   2.230  12.556   6.509
 5917SOL    HW119590   2.240  12.525   6.419
 5917SOL    HW219591   2.243  12.651   6.503
 5918SOL     OW19592   0.205  14.608   9.763
 5918SOL    HW119593   0.181  14.538   9.702
 5918SOL    HW219594   0.299  14.617   9.753
 5919SOL     OW19595   8.447  13.888  13.843
 5919SOL    HW119596   8.354  13.895  13.863
 5919SOL    HW219597   8.491  13.899  13.928
 5920SOL     OW19598   2.228   9.304   4.871
 5920SOL    HW119599   2.272   9.388   4.885
 5920SOL    HW219600   2.172   9.320   4.795
 5921SOL     OW19601   4.426   9.991  13.678
 5921SOL    HW119602   4.440  10.073  13.727
 5921SOL    HW219603   4.361  10.013  13.612
 5922SOL     OW19604   2.502   1.919  14.507
 5922SOL    HW119605   2.423   1.876  14.539
 5922SOL    HW219606   2.568   1.849  14.505
 5923SOL     OW19607   4.371   1.072   6.586
 5923SOL    HW119608   4.328   1.129   6.522
 5923SOL    HW219609   4.415   1.006   6.533
 5924SOL     OW19610  14.726  13.793  11.245
 5924SOL    HW119611  14.799  13.762  11.298
 5924SOL    HW219612  14.649  13.751  11.283
 5925SOL     OW19613  12.097   3.154   3.694
 5925SOL    HW119614  12.174   3.129   3.746
 5925SOL    HW219615  12.123   3.139   3.603
 5926SOL     OW19616   0.292  12.094   4.578
 5926SOL    HW119617   0.213  12.061   4.621
 5926SOL    HW219618   0.356  12.102   4.649
 5927SOL     OW19619  13.298   8.128  10.495
 5927SOL    HW119620  13.357   8.054  10.478
 5927SOL    HW219621  13.210   8.093  10.479
 5928SOL     OW19622  13.750  12.790   7.407
 5928SOL    HW119623  13.673  12.846   7.411
 5928SOL    HW219624  13.822  12.850   7.385
 5929SOL     OW19625  11.146  12.923   1.073
 5929SOL    HW119626  11.171  12.884   0.989
 5929SOL    HW219627  11.067  12.876   1.099
 5930SOL     OW19628   8.247   9.286  10.050
 5930SOL    HW119629   8.328   9.246  10.080
 5930SOL    HW219630   8.179   9.222  10.071
 5931SOL     OW19631   7.986   7.591   4.038
 5931SOL    HW119632   7.991   7.664   3.977
 5931SOL    HW219633   7.899   7.598   4.078
 5932SOL     OW19634   5.677   2.190   7.704
 5932SOL    HW119635   5.588   2.155   7.714
 5932SOL    HW219636   5.665   2.284   7.693
 5933SOL     OW19637   2.861  11.557   1.121
 5933SOL    HW119638   2.805  11.626   1.155
 5933SOL    HW219639   2.805  11.508   1.061
 5934SOL     OW19640   2.074   2.646   8.115
 5934SOL    HW119641   2.113   2.615   8.196
 5934SOL    HW219642   1.980   2.629   8.126
 5935SOL     OW19643  10.198   3.312   4.086
 5935SOL    HW119644  10.182   3.240   4.025
 5935SOL    HW219645  10.114   3.326   4.130
 5936SOL     OW19646  13.169   1.536   3.702
 5936SOL    HW119647  13.126   1.464   3.749
 5936SOL    HW219648  13.196   1.497   3.619
 5937SOL     OW19649   6.462   7.217   8.124
 5937SOL    HW119650   6.465   7.226   8.219
 5937SOL    HW219651   6.447   7.123   8.110
 5938SOL     OW19652   6.829   3.266   6.812
 5938SOL    HW119653   6.748   3.238   6.854
 5938SOL    HW219654   6.886   3.293   6.883
 5939SOL     OW19655   2.312   7.829  12.626
 5939SOL    HW119656   2.397   7.848  12.587
 5939SOL    HW219657   2.331   7.776  12.703
 5940SOL     OW19658   0.898   0.719   3.770
 5940SOL    HW119659   0.977   0.748   3.724
 5940SOL    HW219660   0.908   0.624   3.775
 5941SOL     OW19661   1.606  10.240   9.636
 5941SOL    HW119662   1.674  10.289   9.683
 5941SOL    HW219663   1.613  10.151   9.670
 5942SOL     OW19664  14.559  14.553   2.490
 5942SOL    HW119665  14.642  14.509   2.511
 5942SOL    HW219666  14.558  14.557   2.395
 5943SOL     OW19667   2.091  12.435  13.191
 5943SOL    HW119668   2.137  12.422  13.108
 5943SOL    HW219669   2.048  12.520  13.182
 5944SOL     OW19670   4.429  11.174   6.993
 5944SOL    HW119671   4.414  11.267   6.978
 5944SOL    HW219672   4.487  11.171   7.069
 5945SOL     OW19673  10.828  14.126  11.806
 5945SOL    HW119674  10.869  14.151  11.889
 5945SOL    HW219675  10.736  14.152  11.816
 5946SOL     OW19676   2.667  11.262  11.871
 5946SOL    HW119677   2.740  11.306  11.914
 5946SOL    HW219678   2.682  11.274  11.778
 5947SOL     OW19679   4.470   5.950   6.983
 5947SOL    HW119680   4.565   5.948   6.970
 5947SOL    HW219681   4.442   5.861   6.962
 5948SOL     OW19682   9.025   7.629   0.370
 5948SOL    HW119683   9.100   7.621   0.312
 5948SOL    HW219684   9.000   7.722   0.364
 5949SOL     OW19685   2.797   5.883  12.194
 5949SOL    HW119686   2.729   5.825  12.228
 5949SOL    HW219687   2.820   5.939  12.268
 5950SOL     OW19688   0.920   8.509   3.432
 5950SOL    HW119689   0.848   8.559   3.469
 5950SOL    HW219690   0.987   8.575   3.410
 5951SOL     OW19691   5.139  12.945   6.522
 5951SOL    HW119692   5.229  12.924   6.545
 5951SOL    HW219693   5.121  13.027   6.567
 5952SOL     OW19694  14.396   3.145  13.915
 5952SOL    HW119695  14.340   3.158  13.991
 5952SOL    HW219696  14.485   3.155  13.950
 5953SOL     OW19697   5.071   8.361   6.885
 5953SOL    HW119698   5.114   8.417   6.950
 5953SOL    HW219699   5.135   8.351   6.815
 5954SOL     OW19700  14.733   3.474  11.854
 5954SOL    HW119701  14.777   3.431  11.781
 5954SOL    HW219702  14.641   3.477  11.827
 5955SOL     OW19703  11.555   7.930  10.207
 5955SOL    HW119704  11.567   7.913  10.113
 5955SOL    HW219705  11.639   7.965  10.236
 5956SOL     OW19706  13.933   4.526   7.722
 5956SOL    HW119707  13.912   4.617   7.703
 5956SOL    HW219708  14.028   4.524   7.735
 5957SOL     OW19709   3.070   5.815   9.781
 5957SOL    HW119710   3.152   5.842   9.740
 5957SOL    HW219711   3.097   5.764   9.858
 5958SOL     OW19712   9.110   9.187   1.609
 5958SOL    HW119713   9.186   9.140   1.644
 5958SOL    HW219714   9.117   9.177   1.514
 5959SOL     OW19715   6.722  13.868   8.898
 5959SOL    HW119716   6.748  13.911   8.979
 5959SOL    HW219717   6.637  13.828   8.918
 5960SOL     OW19718   2.761   2.300   8.844
 5960SOL    HW119719   2.785   2.341   8.761
 5960SOL    HW219720   2.666   2.311   8.850
 5961SOL     OW19721  11.113   3.216   8.221
 5961SOL    HW119722  11.042   3.279   8.208
 5961SOL    HW219723  11.180   3.242   8.158
 5962SOL     OW19724   1.268  10.551   1.543
 5962SOL    HW119725   1.350  10.513   1.574
 5962SOL    HW219726   1.222  10.477   1.502
 5963SOL     OW19727   2.264  11.427   5.975
 5963SOL    HW119728   2.311  11.357   6.020
 5963SOL    HW219729   2.261  11.399   5.883
 5964SOL     OW19730   8.407  11.614  11.467
 5964SOL    HW119731   8.323  11.624  11.513
 5964SOL    HW219732   8.445  11.534  11.503
 5965SOL     OW19733   5.496   9.396   3.421
 5965SOL    HW119734   5.518   9.305   3.444
 5965SOL    HW219735   5.414   9.413   3.467
 5966SOL     OW19736   5.088   6.300   9.664
 5966SOL    HW119737   5.105   6.394   9.661
 5966SOL    HW219738   4.993   6.292   9.665
 5967SOL     OW19739   9.124   5.618   9.132
 5967SOL    HW119740   9.112   5.547   9.196
 5967SOL    HW219741   9.079   5.693   9.171
 5968SOL     OW19742   7.503   2.813   2.644
 5968SOL    HW119743   7.449   2.753   2.695
 5968SOL    HW219744   7.546   2.757   2.579
 5969SOL     OW19745  12.817   7.424   3.744
 5969SOL    HW119746  12.850   7.443   3.657
 5969SOL    HW219747  12.797   7.330   3.742
 5970SOL     OW19748  11.712   2.664  12.635
 5970SOL    HW119749  11.665   2.656  12.718
 5970SOL    HW219750  11.687   2.586  12.585
 5971SOL     OW19751  12.912   1.003   3.373
 5971SOL    HW119752  12.836   0.945   3.378
 5971SOL    HW219753  12.985   0.950   3.406
 5972SOL     OW19754   9.073  13.489   6.077
 5972SOL    HW119755   9.012  13.561   6.063
 5972SOL    HW219756   9.159  13.531   6.082
 5973SOL     OW19757   3.224   9.073   5.580
 5973SOL    HW119758   3.272   9.128   5.643
 5973SOL    HW219759   3.292   9.017   5.541
 5974SOL     OW19760   9.186   8.189   7.780
 5974SOL    HW119761   9.226   8.106   7.756
 5974SOL    HW219762   9.103   8.166   7.822
 5975SOL     OW19763   2.729   8.915   4.933
 5975SOL    HW119764   2.696   9.004   4.937
 5975SOL    HW219765   2.805   8.915   4.991
 5976SOL     OW19766   2.431   9.720  10.767
 5976SOL    HW119767   2.452   9.807  10.799
 5976SOL    HW219768   2.505   9.696  10.711
 5977SOL     OW19769   0.428   4.517   4.680
 5977SOL    HW119770   0.501   4.562   4.638
 5977SOL    HW219771   0.462   4.490   4.765
 5978SOL     OW19772   6.098   8.297   7.864
 5978SOL    HW119773   6.060   8.291   7.951
 5978SOL    HW219774   6.137   8.211   7.849
 5979SOL     OW19775  14.588   9.874   0.958
 5979SOL    HW119776  14.552   9.842   1.041
 5979SOL    HW219777  14.659   9.932   0.984
 5980SOL     OW19778  14.053  11.182   6.404
 5980SOL    HW119779  14.128  11.122   6.398
 5980SOL    HW219780  14.091  11.269   6.399
 5981SOL     OW19781   8.286   0.973   6.297
 5981SOL    HW119782   8.276   0.881   6.320
 5981SOL    HW219783   8.350   1.007   6.360
 5982SOL     OW19784   7.923   2.750   7.642
 5982SOL    HW119785   7.935   2.810   7.716
 5982SOL    HW219786   7.981   2.676   7.662
 5983SOL     OW19787  13.515   8.327  10.474
 5983SOL    HW119788  13.439   8.276  10.446
 5983SOL    HW219789  13.482   8.415  10.486
 5984SOL     OW19790   3.481   2.820   2.766
 5984SOL    HW119791   3.540   2.766   2.713
 5984SOL    HW219792   3.438   2.758   2.825
 5985SOL     OW19793   7.428   7.068  14.227
 5985SOL    HW119794   7.508   7.058  14.278
 5985SOL    HW219795   7.456   7.057  14.136
 5986SOL     OW19796  11.781   7.721   6.699
 5986SOL    HW119797  11.696   7.699   6.738
 5986SOL    HW219798  11.840   7.729   6.774
 5987SOL     OW19799   2.064  11.887   3.827
 5987SOL    HW119800   2.093  11.926   3.745
 5987SOL    HW219801   1.969  11.877   3.817
 5988SOL     OW19802   4.272  13.081  14.603
 5988SOL    HW119803   4.270  13.175  14.619
 5988SOL    HW219804   4.345  13.069  14.542
 5989SOL     OW19805   1.770   3.417  12.144
 5989SOL    HW119806   1.749   3.495  12.195
 5989SOL    HW219807   1.782   3.349  12.211
 5990SOL     OW19808   6.446   6.456   9.096
 5990SOL    HW119809   6.493   6.449   9.013
 5990SOL    HW219810   6.434   6.365   9.124
 5991SOL     OW19811  14.628   8.817   4.834
 5991SOL    HW119812  14.558   8.761   4.800
 5991SOL    HW219813  14.632   8.890   4.772
 5992SOL     OW19814   4.924   6.901   2.414
 5992SOL    HW119815   4.913   6.906   2.509
 5992SOL    HW219816   4.917   6.807   2.393
 5993SOL     OW19817  11.795   8.870   5.040
 5993SOL    HW119818  11.851   8.941   5.008
 5993SOL    HW219819  11.804   8.874   5.136
 5994SOL     OW19820   5.987   4.285  14.622
 5994SOL    HW119821   6.005   4.353  14.558
 5994SOL    HW219822   6.062   4.225  14.615
 5995SOL     OW19823  13.644  12.964  13.096
 5995SOL    HW119824  13.609  13.051  13.117
 5995SOL    HW219825  13.718  12.982  13.039
 5996SOL     OW19826   7.983  12.723   5.491
 5996SOL    HW119827   7.972  12.631   5.467
 5996SOL    HW219828   8.025  12.720   5.578
 5997SOL     OW19829   9.888   7.314   0.350
 5997SOL    HW119830   9.867   7.368   0.427
 5997SOL    HW219831   9.961   7.260   0.379
 5998SOL     OW19832   8.356   1.820   0.197
 5998SOL    HW119833   8.334   1.774   0.278
 5998SOL    HW219834   8.440   1.783   0.171
 5999SOL     OW19835   5.256   7.074  10.687
 5999SOL    HW119836   5.242   6.991  10.734
 5999SOL    HW219837   5.272   7.048  10.596
 6000SOL     OW19838  10.871   5.573  13.487
 6000SOL    HW119839  10.889   5.667  13.494
 6000SOL    HW219840  10.957   5.533  13.477
 6001SOL     OW19841   1.200   8.233  13.057
 6001SOL    HW119842   1.116   8.269  13.028
 6001SOL    HW219843   1.256   8.310  13.068
 6002SOL     OW19844  11.767  12.599  10.449
 6002SOL    HW119845  11.836  12.665  10.462
 6002SOL    HW219846  11.690  12.650  10.424
 6003SOL     OW19847   7.334   2.338   6.658
 6003SOL    HW119848   7.379   2.255   6.671
 6003SOL    HW219849   7.353   2.389   6.737
 6004SOL     OW19850   1.741   1.487   4.975
 6004SOL    HW119851   1.703   1.560   5.024
 6004SOL    HW219852   1.719   1.409   5.026
 6005SOL     OW19853   9.241  10.006   3.878
 6005SOL    HW119854   9.157   9.971   3.907
 6005SOL    HW219855   9.287   9.931   3.841
 6006SOL     OW19856  11.830   0.615   2.399
 6006SOL    HW119857  11.736   0.602   2.412
 6006SOL    HW219858  11.835   0.683   2.331
 6007SOL     OW19859   7.702   4.645   7.009
 6007SOL    HW119860   7.736   4.596   6.934
 6007SOL    HW219861   7.690   4.580   7.077
 6008SOL     OW19862   4.889   7.292   0.526
 6008SOL    HW119863   4.906   7.228   0.595
 6008SOL    HW219864   4.889   7.376   0.572
 6009SOL     OW19865   4.143   0.082   1.283
 6009SOL    HW119866   4.151   0.070   1.378
 6009SOL    HW219867   4.058   0.045   1.261
 6010SOL     OW19868   6.068  12.912   0.233
 6010SOL    HW119869   6.024  12.913   0.318
 6010SOL    HW219870   6.104  12.824   0.226
 6011SOL     OW19871   4.580  12.931   0.954
 6011SOL    HW119872   4.630  12.862   0.911
 6011SOL    HW219873   4.624  13.012   0.930
 6012SOL     OW19874   6.403   6.056   2.296
 6012SOL    HW119875   6.391   6.001   2.373
 6012SOL    HW219876   6.368   6.141   2.322
 6013SOL     OW19877  13.298   8.801  10.808
 6013SOL    HW119878  13.298   8.896  10.815
 6013SOL    HW219879  13.385   8.779  10.774
 6014SOL     OW19880   0.258   0.323   1.170
 6014SOL    HW119881   0.331   0.319   1.232
 6014SOL    HW219882   0.287   0.271   1.095
 6015SOL     OW19883   6.440   7.149   4.816
 6015SOL    HW119884   6.481   7.098   4.886
 6015SOL    HW219885   6.355   7.108   4.803
 6016SOL     OW19886   5.010   6.369   1.252
 6016SOL    HW119887   4.956   6.395   1.326
 6016SOL    HW219888   4.958   6.302   1.207
 6017SOL     OW19889  14.785   4.021   4.902
 6017SOL    HW119890  14.698   4.031   4.864
 6017SOL    HW219891  14.830   3.958   4.845
 6018SOL     OW19892   1.453  14.317  13.440
 6018SOL    HW119893   1.470  14.235  13.395
 6018SOL    HW219894   1.396  14.366  13.381
 6019SOL     OW19895   9.892  13.633   2.152
 6019SOL    HW119896   9.805  13.671   2.160
 6019SOL    HW219897   9.939  13.664   2.229
 6020SOL     OW19898   9.724  10.777  10.464
 6020SOL    HW119899   9.684  10.774  10.378
 6020SOL    HW219900   9.650  10.788  10.525
 6021SOL     OW19901   5.150   1.709  13.138
 6021SOL    HW119902   5.192   1.705  13.224
 6021SOL    HW219903   5.073   1.653  13.146
 6022SOL     OW19904  10.937  14.729   4.272
 6022SOL    HW119905  10.936  14.822   4.251
 6022SOL    HW219906  10.885  14.687   4.203
 6023SOL     OW19907   6.316  13.365   0.775
 6023SOL    HW119908   6.322  13.287   0.830
 6023SOL    HW219909   6.233  13.354   0.727
 6024SOL     OW19910  11.500  12.941   1.851
 6024SOL    HW119911  11.542  13.026   1.835
 6024SOL    HW219912  11.418  12.962   1.894
 6025SOL     OW19913   7.289   9.177   0.574
 6025SOL    HW119914   7.231   9.217   0.509
 6025SOL    HW219915   7.321   9.252   0.625
 6026SOL     OW19916   8.947  10.757   6.180
 6026SOL    HW119917   8.900  10.839   6.191
 6026SOL    HW219918   8.906  10.697   6.242
 6027SOL     OW19919  12.015  14.113   0.461
 6027SOL    HW119920  12.011  14.017   0.468
 6027SOL    HW219921  12.021  14.143   0.552
 6028SOL     OW19922   5.483   8.054  14.219
 6028SOL    HW119923   5.461   8.138  14.178
 6028SOL    HW219924   5.480   7.991  14.147
 6029SOL     OW19925  13.705   6.275   0.593
 6029SOL    HW119926  13.675   6.235   0.674
 6029SOL    HW219927  13.635   6.335   0.568
 6030SOL     OW19928   7.256   5.541   1.686
 6030SOL    HW119929   7.239   5.598   1.611
 6030SOL    HW219930   7.348   5.558   1.708
 6031SOL     OW19931  14.660   2.523  10.769
 6031SOL    HW119932  14.677   2.595  10.708
 6031SOL    HW219933  14.740   2.471  10.768
 6032SOL     OW19934   5.812  12.242  14.285
 6032SOL    HW119935   5.900  12.255  14.321
 6032SOL    HW219936   5.763  12.198  14.354
 6033SOL     OW19937   4.781   1.737   2.104
 6033SOL    HW119938   4.793   1.745   2.010
 6033SOL    HW219939   4.831   1.810   2.141
 6034SOL     OW19940   9.773   8.221   2.106
 6034SOL    HW119941   9.842   8.232   2.041
 6034SOL    HW219942   9.697   8.192   2.056
 6035SOL     OW19943   8.221   2.479   5.165
 6035SOL    HW119944   8.199   2.571   5.152
 6035SOL    HW219945   8.305   2.468   5.120
 6036SOL     OW19946   3.285  12.282  10.444
 6036SOL    HW119947   3.251  12.211  10.390
 6036SOL    HW219948   3.301  12.241  10.529
 6037SOL     OW19949   9.364   7.698   1.398
 6037SOL    HW119950   9.322   7.781   1.376
 6037SOL    HW219951   9.394   7.662   1.315
 6038SOL     OW19952   3.764   8.013   6.825
 6038SOL    HW119953   3.712   8.093   6.817
 6038SOL    HW219954   3.741   7.962   6.747
 6039SOL     OW19955   1.796   0.874  10.333
 6039SOL    HW119956   1.777   0.958  10.289
 6039SOL    HW219957   1.820   0.815  10.262
 6040SOL     OW19958   5.455   0.935  12.053
 6040SOL    HW119959   5.429   0.848  12.083
 6040SOL    HW219960   5.414   0.996  12.114
 6041SOL     OW19961   1.882  13.693   0.186
 6041SOL    HW119962   1.829  13.686   0.266
 6041SOL    HW219963   1.972  13.679   0.215
 6042SOL     OW19964  14.784   0.124   8.528
 6042SOL    HW119965  14.859   0.162   8.574
 6042SOL    HW219966  14.792   0.158   8.439
 6043SOL     OW19967   7.700   9.002   9.575
 6043SOL    HW119968   7.608   9.005   9.548
 6043SOL    HW219969   7.705   8.931   9.638
 6044SOL     OW19970   8.669  11.066  13.285
 6044SOL    HW119971   8.734  10.997  13.270
 6044SOL    HW219972   8.586  11.027  13.257
 6045SOL     OW19973   2.779   7.099  12.257
 6045SOL    HW119974   2.763   7.013  12.295
 6045SOL    HW219975   2.824   7.148  12.326
 6046SOL     OW19976   1.043   8.452   5.284
 6046SOL    HW119977   1.118   8.399   5.311
 6046SOL    HW219978   1.081   8.517   5.224
 6047SOL     OW19979   8.462  10.179   0.273
 6047SOL    HW119980   8.492  10.143   0.357
 6047SOL    HW219981   8.377  10.137   0.258
 6048SOL     OW19982  11.380  13.651   7.086
 6048SOL    HW119983  11.379  13.663   6.991
 6048SOL    HW219984  11.460  13.695   7.114
 6049SOL     OW19985   6.410  14.806  11.968
 6049SOL    HW119986   6.416  14.779  11.876
 6049SOL    HW219987   6.467  14.743  12.014
 6050SOL     OW19988  14.689   6.886   9.753
 6050SOL    HW119989  14.693   6.824   9.826
 6050SOL    HW219990  14.660   6.968   9.792
 6051SOL     OW19991   7.508  13.042  12.786
 6051SOL    HW119992   7.423  13.084  12.772
 6051SOL    HW219993   7.486  12.954  12.816
 6052SOL     OW19994   4.591  11.474   6.805
 6052SOL    HW119995   4.546  11.448   6.725
 6052SOL    HW219996   4.521  11.492   6.868
 6053SOL     OW19997   6.998   8.952  14.523
 6053SOL    HW119998   6.933   8.906  14.469
 6053SOL    HW219999   7.018   9.031  14.473
 6054SOL     OW20000   2.098   0.988  11.424
 6054SOL    HW120001   2.066   0.941  11.502
 6054SOL    HW220002   2.029   0.974  11.358
 6055SOL     OW20003   9.592   0.319   1.321
 6055SOL    HW120004   9.508   0.339   1.362
 6055SOL    HW220005   9.637   0.263   1.385
 6056SOL     OW20006   2.097   9.388   6.518
 6056SOL    HW120007   2.087   9.311   6.463
 6056SOL    HW220008   2.077   9.358   6.606
 6057SOL     OW20009  12.671   5.901   7.765
 6057SOL    HW120010  12.580   5.894   7.794
 6057SOL    HW220011  12.723   5.883   7.843
 6058SOL     OW20012   3.602   5.689  13.812
 6058SOL    HW120013   3.612   5.704  13.906
 6058SOL    HW220014   3.655   5.757  13.771
 6059SOL     OW20015  12.559   5.052   7.384
 6059SOL    HW120016  12.630   5.093   7.332
 6059SOL    HW220017  12.484   5.053   7.325
 6060SOL     OW20018   0.799   0.671   4.431
 6060SOL    HW120019   0.726   0.616   4.458
 6060SOL    HW220020   0.877   0.625   4.463
 6061SOL     OW20021   2.543   5.003  11.626
 6061SOL    HW120022   2.600   4.948  11.680
 6061SOL    HW220023   2.553   5.091  11.663
 6062SOL     OW20024   1.022   4.757   1.400
 6062SOL    HW120025   1.112   4.788   1.404
 6062SOL    HW220026   1.002   4.730   1.489
 6063SOL     OW20027  14.170   3.339   4.857
 6063SOL    HW120028  14.199   3.281   4.787
 6063SOL    HW220029  14.247   3.392   4.877
 6064SOL     OW20030   9.489   7.743   0.796
 6064SOL    HW120031   9.567   7.759   0.848
 6064SOL    HW220032   9.511   7.776   0.709
 6065SOL     OW20033  13.373   0.489   9.422
 6065SOL    HW120034  13.292   0.532   9.395
 6065SOL    HW220035  13.437   0.515   9.356
 6066SOL     OW20036   9.838   3.838  10.810
 6066SOL    HW120037   9.901   3.860  10.879
 6066SOL    HW220038   9.855   3.902  10.740
 6067SOL     OW20039   5.167  11.190   5.404
 6067SOL    HW120040   5.258  11.175   5.432
 6067SOL    HW220041   5.131  11.102   5.393
 6068SOL     OW20042   4.250  13.940   6.526
 6068SOL    HW120043   4.332  13.901   6.553
 6068SOL    HW220044   4.275  14.026   6.490
 6069SOL     OW20045   5.666   4.927   7.876
 6069SOL    HW120046   5.662   5.014   7.836
 6069SOL    HW220047   5.588   4.882   7.843
 6070SOL     OW20048  14.655  13.143  10.308
 6070SOL    HW120049  14.636  13.106  10.394
 6070SOL    HW220050  14.596  13.097  10.248
 6071SOL     OW20051   6.910  13.514  14.145
 6071SOL    HW120052   6.941  13.519  14.055
 6071SOL    HW220053   6.971  13.455  14.189
 6072SOL     OW20054   0.480  12.206   9.449
 6072SOL    HW120055   0.454  12.221   9.539
 6072SOL    HW220056   0.560  12.154   9.455
 6073SOL     OW20057   0.832   2.996  10.959
 6073SOL    HW120058   0.795   2.908  10.960
 6073SOL    HW220059   0.769   3.048  10.910
 6074SOL     OW20060   9.999   0.861   1.725
 6074SOL    HW120061   9.952   0.880   1.806
 6074SOL    HW220062   9.931   0.847   1.660
 6075SOL     OW20063   5.334  13.773   6.247
 6075SOL    HW120064   5.406  13.835   6.251
 6075SOL    HW220065   5.286  13.796   6.167
 6076SOL     OW20066   6.721  13.656   7.713
 6076SOL    HW120067   6.649  13.707   7.751
 6076SOL    HW220068   6.796  13.675   7.770
 6077SOL     OW20069   7.198   2.874   1.888
 6077SOL    HW120070   7.126   2.936   1.898
 6077SOL    HW220071   7.160   2.789   1.906
 6078SOL     OW20072   0.608   8.122   7.478
 6078SOL    HW120073   0.651   8.163   7.553
 6078SOL    HW220074   0.668   8.052   7.451
 6079SOL     OW20075   0.969   2.139   1.212
 6079SOL    HW120076   0.968   2.104   1.123
 6079SOL    HW220077   1.013   2.072   1.264
 6080SOL     OW20078   8.719   7.617   8.400
 6080SOL    HW120079   8.731   7.522   8.403
 6080SOL    HW220080   8.750   7.648   8.485
 6081SOL     OW20081  11.671   8.734  10.084
 6081SOL    HW120082  11.650   8.678  10.159
 6081SOL    HW220083  11.704   8.815  10.124
 6082SOL     OW20084   3.528  14.076   8.319
 6082SOL    HW120085   3.557  13.988   8.295
 6082SOL    HW220086   3.458  14.063   8.382
 6083SOL     OW20087   6.594  11.432   3.062
 6083SOL    HW120088   6.534  11.402   2.994
 6083SOL    HW220089   6.681  11.428   3.022
 6084SOL     OW20090  13.757  11.988   5.401
 6084SOL    HW120091  13.672  12.005   5.441
 6084SOL    HW220092  13.746  11.906   5.353
 6085SOL     OW20093   6.747  10.440   5.793
 6085SOL    HW120094   6.790  10.521   5.766
 6085SOL    HW220095   6.816  10.373   5.788
 6086SOL     OW20096  11.884   5.400   4.241
 6086SOL    HW120097  11.826   5.439   4.175
 6086SOL    HW220098  11.843   5.423   4.325
 6087SOL     OW20099   8.560  11.505  10.349
 6087SOL    HW120100   8.504  11.583  10.348
 6087SOL    HW220101   8.544  11.463  10.264
 6088SOL     OW20102   4.887   2.632  13.781
 6088SOL    HW120103   4.824   2.695  13.746
 6088SOL    HW220104   4.919   2.673  13.861
 6089SOL     OW20105   8.758  14.018  12.235
 6089SOL    HW120106   8.736  14.080  12.304
 6089SOL    HW220107   8.854  14.009  12.240
 6090SOL     OW20108   7.992  13.743   8.593
 6090SOL    HW120109   7.986  13.768   8.686
 6090SOL    HW220110   7.903  13.716   8.570
 6091SOL     OW20111  12.867   2.761  14.066
 6091SOL    HW120112  12.873   2.829  13.998
 6091SOL    HW220113  12.907   2.801  14.143
 6092SOL     OW20114  10.084   9.657   4.966
 6092SOL    HW120115  10.056   9.603   4.892
 6092SOL    HW220116  10.178   9.668   4.953
 6093SOL     OW20117   9.338   8.563   8.552
 6093SOL    HW120118   9.333   8.643   8.499
 6093SOL    HW220119   9.350   8.493   8.487
 6094SOL     OW20120  14.094   3.289  14.707
 6094SOL    HW120121  14.032   3.337  14.761
 6094SOL    HW220122  14.180   3.308  14.746
 6095SOL     OW20123   2.800   7.989   7.973
 6095SOL    HW120124   2.732   8.057   7.975
 6095SOL    HW220125   2.788   7.942   8.056
 6096SOL     OW20126  13.935   6.958   7.108
 6096SOL    HW120127  13.877   7.034   7.112
 6096SOL    HW220128  13.892   6.891   7.161
 6097SOL     OW20129  12.550   1.090   5.950
 6097SOL    HW120130  12.461   1.055   5.950
 6097SOL    HW220131  12.587   1.060   6.033
 6098SOL     OW20132   4.801  14.259  11.505
 6098SOL    HW120133   4.875  14.199  11.504
 6098SOL    HW220134   4.838  14.343  11.532
 6099SOL     OW20135   3.238  12.032   8.139
 6099SOL    HW120136   3.267  12.051   8.228
 6099SOL    HW220137   3.177  11.959   8.149
 6100SOL     OW20138   7.716   4.721   4.322
 6100SOL    HW120139   7.657   4.793   4.300
 6100SOL    HW220140   7.727   4.673   4.240
 6101SOL     OW20141   3.180   6.461   4.740
 6101SOL    HW120142   3.194   6.555   4.729
 6101SOL    HW220143   3.098   6.443   4.695
 6102SOL     OW20144  13.492  11.737   7.695
 6102SOL    HW120145  13.453  11.678   7.630
 6102SOL    HW220146  13.492  11.687   7.776
 6103SOL     OW20147  13.252   5.186   2.619
 6103SOL    HW120148  13.276   5.097   2.590
 6103SOL    HW220149  13.312   5.243   2.571
 6104SOL     OW20150  12.521  11.058   6.159
 6104SOL    HW120151  12.513  11.146   6.121
 6104SOL    HW220152  12.446  11.050   6.217
 6105SOL     OW20153   5.820   3.582  11.286
 6105SOL    HW120154   5.846   3.671  11.262
 6105SOL    HW220155   5.898   3.529  11.272
 6106SOL     OW20156   9.067   9.414  13.095
 6106SOL    HW120157   9.114   9.353  13.152
 6106SOL    HW220158   9.114   9.497  13.104
 6107SOL     OW20159   6.847  14.139  12.104
 6107SOL    HW120160   6.915  14.190  12.148
 6107SOL    HW220161   6.894  14.067  12.062
 6108SOL     OW20162   4.145   5.534   5.039
 6108SOL    HW120163   4.075   5.511   4.978
 6108SOL    HW220164   4.112   5.508   5.125
 6109SOL     OW20165   7.261  11.573  10.619
 6109SOL    HW120166   7.176  11.567  10.574
 6109SOL    HW220167   7.238  11.596  10.709
 6110SOL     OW20168   5.070   9.213   7.280
 6110SOL    HW120169   5.007   9.284   7.280
 6110SOL    HW220170   5.036   9.150   7.217
 6111SOL     OW20171  12.696   7.089   0.523
 6111SOL    HW120172  12.623   7.149   0.541
 6111SOL    HW220173  12.743   7.084   0.606
 6112SOL     OW20174   3.933   8.159   0.075
 6112SOL    HW120175   3.920   8.089   0.012
 6112SOL    HW220176   3.970   8.231   0.024
 6113SOL     OW20177   5.038   2.238   9.607
 6113SOL    HW120178   5.004   2.283   9.684
 6113SOL    HW220179   5.049   2.308   9.542
 6114SOL     OW20180   9.770   9.400   8.042
 6114SOL    HW120181   9.726   9.452   8.109
 6114SOL    HW220182   9.709   9.329   8.021
 6115SOL     OW20183   8.763   2.783   9.959
 6115SOL    HW120184   8.756   2.878   9.956
 6115SOL    HW220185   8.787   2.757   9.870
 6116SOL     OW20186   2.401  10.950   1.296
 6116SOL    HW120187   2.354  11.014   1.242
 6116SOL    HW220188   2.454  11.003   1.355
 6117SOL     OW20189   9.263   9.385  12.458
 6117SOL    HW120190   9.282   9.424  12.372
 6117SOL    HW220191   9.330   9.318  12.469
 6118SOL     OW20192  12.801   1.906   4.341
 6118SOL    HW120193  12.781   1.991   4.302
 6118SOL    HW220194  12.744   1.844   4.295
 6119SOL     OW20195   6.042   2.626  10.866
 6119SOL    HW120196   5.976   2.680  10.910
 6119SOL    HW220197   6.011   2.536  10.877
 6120SOL     OW20198  11.695   2.423  12.507
 6120SOL    HW120199  11.599   2.418  12.499
 6120SOL    HW220200  11.725   2.432  12.416
 6121SOL     OW20201   9.210   7.562   9.618
 6121SOL    HW120202   9.177   7.559   9.708
 6121SOL    HW220203   9.266   7.639   9.617
 6122SOL     OW20204   3.214   4.047   9.231
 6122SOL    HW120205   3.181   4.030   9.319
 6122SOL    HW220206   3.143   4.094   9.187
 6123SOL     OW20207   4.693  14.516   5.600
 6123SOL    HW120208   4.612  14.471   5.575
 6123SOL    HW220209   4.709  14.578   5.529
 6124SOL     OW20210   5.465  11.529   3.863
 6124SOL    HW120211   5.490  11.458   3.921
 6124SOL    HW220212   5.504  11.507   3.779
 6125SOL     OW20213   3.577   2.320  11.751
 6125SOL    HW120214   3.636   2.285  11.685
 6125SOL    HW220215   3.608   2.281  11.833
 6126SOL     OW20216   5.689   0.124  11.693
 6126SOL    HW120217   5.637   0.072  11.755
 6126SOL    HW220218   5.747   0.177  11.748
 6127SOL     OW20219   4.080   5.608   9.328
 6127SOL    HW120220   4.090   5.647   9.241
 6127SOL    HW220221   4.145   5.539   9.332
 6128SOL     OW20222   2.520   7.806   1.737
 6128SOL    HW120223   2.586   7.738   1.732
 6128SOL    HW220224   2.441   7.767   1.700
 6129SOL     OW20225   2.851  10.045  12.413
 6129SOL    HW120226   2.850  10.115  12.478
 6129SOL    HW220227   2.839  10.090  12.329
 6130SOL     OW20228  12.478   6.689   4.643
 6130SOL    HW120229  12.449   6.724   4.727
 6130SOL    HW220230  12.507   6.766   4.594
 6131SOL     OW20231   7.000  10.614   6.623
 6131SOL    HW120232   7.017  10.634   6.715
 6131SOL    HW220233   7.087  10.604   6.584
 6132SOL     OW20234   3.348   7.264   6.082
 6132SOL    HW120235   3.439   7.234   6.080
 6132SOL    HW220236   3.354   7.359   6.090
 6133SOL     OW20237   1.858   4.525   1.904
 6133SOL    HW120238   1.862   4.574   1.986
 6133SOL    HW220239   1.767   4.496   1.898
 6134SOL     OW20240  14.038   4.473   0.992
 6134SOL    HW120241  14.099   4.504   0.925
 6134SOL    HW220242  13.956   4.520   0.972
 6135SOL     OW20243   2.953   4.863  13.735
 6135SOL    HW120244   2.909   4.923  13.674
 6135SOL    HW220245   2.904   4.871  13.816
 6136SOL     OW20246   6.743   9.794  14.382
 6136SOL    HW120247   6.809   9.741  14.338
 6136SOL    HW220248   6.719   9.861  14.318
 6137SOL     OW20249   2.051   8.067  10.297
 6137SOL    HW120250   2.146   8.066  10.281
 6137SOL    HW220251   2.014   8.099  10.214
 6138SOL     OW20252   1.714   1.323   6.673
 6138SOL    HW120253   1.772   1.263   6.719
 6138SOL    HW220254   1.626   1.288   6.687
 6139SOL     OW20255  12.083  10.530   9.705
 6139SOL    HW120256  12.081  10.584   9.784
 6139SOL    HW220257  12.171  10.493   9.702
 6140SOL     OW20258   6.391   6.712   3.981
 6140SOL    HW120259   6.297   6.692   3.976
 6140SOL    HW220260   6.395   6.804   4.008
 6141SOL     OW20261  11.581   4.255   2.050
 6141SOL    HW120262  11.651   4.200   2.086
 6141SOL    HW220263  11.607   4.344   2.070
 6142SOL     OW20264   4.991   4.062   9.513
 6142SOL    HW120265   5.084   4.064   9.534
 6142SOL    HW220266   4.987   4.073   9.418
 6143SOL     OW20267   8.225   5.668  12.731
 6143SOL    HW120268   8.272   5.742  12.693
 6143SOL    HW220269   8.282   5.636  12.801
 6144SOL     OW20270   9.444   6.344  14.556
 6144SOL    HW120271   9.518   6.395  14.590
 6144SOL    HW220272   9.437   6.270  14.615
 6145SOL     OW20273  11.928   2.581  13.933
 6145SOL    HW120274  11.978   2.585  13.851
 6145SOL    HW220275  11.950   2.496  13.970
 6146SOL     OW20276  10.989   8.954   3.666
 6146SOL    HW120277  11.007   8.891   3.596
 6146SOL    HW220278  11.063   8.945   3.725
 6147SOL     OW20279   8.019   7.559   7.666
 6147SOL    HW120280   8.065   7.642   7.652
 6147SOL    HW220281   8.075   7.494   7.624
 6148SOL     OW20282   7.318   1.640  11.889
 6148SOL    HW120283   7.308   1.618  11.982
 6148SOL    HW220284   7.313   1.736  11.887
 6149SOL     OW20285   6.516   1.267   2.052
 6149SOL    HW120286   6.493   1.257   1.960
 6149SOL    HW220287   6.611   1.280   2.052
 6150SOL     OW20288   0.211   5.153   7.690
 6150SOL    HW120289   0.306   5.164   7.702
 6150SOL    HW220290   0.172   5.200   7.763
 6151SOL     OW20291  12.381   5.894   1.944
 6151SOL    HW120292  12.346   5.983   1.953
 6151SOL    HW220293  12.436   5.897   1.866
 6152SOL     OW20294   3.999   9.688   4.656
 6152SOL    HW120295   4.090   9.675   4.631
 6152SOL    HW220296   3.981   9.780   4.637
 6153SOL     OW20297   9.987   1.014  14.262
 6153SOL    HW120298   9.943   0.952  14.204
 6153SOL    HW220299   9.929   1.090  14.264
 6154SOL     OW20300   6.715  11.015  12.082
 6154SOL    HW120301   6.719  11.032  12.176
 6154SOL    HW220302   6.653  11.080  12.048
 6155SOL     OW20303   3.434  11.128   1.315
 6155SOL    HW120304   3.524  11.145   1.287
 6155SOL    HW220305   3.394  11.215   1.321
 6156SOL     OW20306   1.681  12.520   2.335
 6156SOL    HW120307   1.750  12.462   2.367
 6156SOL    HW220308   1.716  12.558   2.255
 6157SOL     OW20309   8.888   0.734   8.189
 6157SOL    HW120310   8.900   0.770   8.277
 6157SOL    HW220311   8.844   0.650   8.203
 6158SOL     OW20312   9.301  12.685   6.061
 6158SOL    HW120313   9.348  12.677   5.978
 6158SOL    HW220314   9.209  12.694   6.037
 6159SOL     OW20315   8.856   9.293   0.242
 6159SOL    HW120316   8.926   9.325   0.300
 6159SOL    HW220317   8.826   9.370   0.195
 6160SOL     OW20318  12.268   1.020   9.569
 6160SOL    HW120319  12.175   1.009   9.550
 6160SOL    HW220320  12.287   0.952   9.633
 6161SOL     OW20321   3.471   2.924   8.928
 6161SOL    HW120322   3.489   3.011   8.893
 6161SOL    HW220323   3.448   2.939   9.020
 6162SOL     OW20324   2.394   9.854  13.351
 6162SOL    HW120325   2.457   9.848  13.280
 6162SOL    HW220326   2.341   9.931  13.331
 6163SOL     OW20327  14.429   6.441   0.073
 6163SOL    HW120328  14.353   6.387   0.093
 6163SOL    HW220329  14.413   6.524   0.119
 6164SOL     OW20330  10.365   0.784   0.686
 6164SOL    HW120331  10.271   0.777   0.667
 6164SOL    HW220332  10.377   0.729   0.764
 6165SOL     OW20333   3.525   3.421  13.663
 6165SOL    HW120334   3.601   3.365  13.653
 6165SOL    HW220335   3.459   3.384  13.604
 6166SOL     OW20336   7.087   5.252   0.126
 6166SOL    HW120337   7.077   5.345   0.107
 6166SOL    HW220338   7.181   5.242   0.143
 6167SOL     OW20339   3.465   5.147  13.639
 6167SOL    HW120340   3.415   5.223  13.669
 6167SOL    HW220341   3.503   5.110  13.719
 6168SOL     OW20342   3.993  12.491   8.949
 6168SOL    HW120343   4.082  12.499   8.916
 6168SOL    HW220344   3.938  12.530   8.882
 6169SOL     OW20345   3.968  12.070   5.185
 6169SOL    HW120346   3.998  12.141   5.128
 6169SOL    HW220347   4.042  12.055   5.245
 6170SOL     OW20348   9.283   7.382  13.036
 6170SOL    HW120349   9.290   7.477  13.029
 6170SOL    HW220350   9.239   7.367  13.119
 6171SOL     OW20351   2.526   2.911   7.190
 6171SOL    HW120352   2.488   2.938   7.107
 6171SOL    HW220353   2.450   2.898   7.247
 6172SOL     OW20354  10.307   9.693   2.345
 6172SOL    HW120355  10.237   9.653   2.294
 6172SOL    HW220356  10.384   9.640   2.326
 6173SOL     OW20357  14.118  12.592  10.835
 6173SOL    HW120358  14.099  12.685  10.825
 6173SOL    HW220359  14.210  12.588  10.862
 6174SOL     OW20360   6.183   6.130  11.350
 6174SOL    HW120361   6.118   6.197  11.373
 6174SOL    HW220362   6.198   6.083  11.432
 6175SOL     OW20363  14.740  11.198   7.952
 6175SOL    HW120364  14.653  11.233   7.932
 6175SOL    HW220365  14.789  11.206   7.870
 6176SOL     OW20366   7.565  13.502   5.048
 6176SOL    HW120367   7.611  13.433   5.096
 6176SOL    HW220368   7.568  13.578   5.106
 6177SOL     OW20369  13.210   8.051   1.231
 6177SOL    HW120370  13.219   7.999   1.311
 6177SOL    HW220371  13.283   8.022   1.176
 6178SOL     OW20372   8.740  10.939  10.405
 6178SOL    HW120373   8.742  10.858  10.354
 6178SOL    HW220374   8.649  10.948  10.432
 6179SOL     OW20375   2.224  11.322   4.427
 6179SOL    HW120376   2.148  11.305   4.483
 6179SOL    HW220377   2.284  11.374   4.481
 6180SOL     OW20378  13.275   3.830   9.646
 6180SOL    HW120379  13.183   3.856   9.642
 6180SOL    HW220380  13.306   3.839   9.556
 6181SOL     OW20381  13.917   7.413   0.316
 6181SOL    HW120382  13.899   7.476   0.246
 6181SOL    HW220383  13.883   7.455   0.395
 6182SOL     OW20384   9.956   7.872   7.178
 6182SOL    HW120385   9.867   7.857   7.144
 6182SOL    HW220386   9.954   7.838   7.267
 6183SOL     OW20387   5.272   7.137   8.993
 6183SOL    HW120388   5.241   7.225   8.972
 6183SOL    HW220389   5.259   7.087   8.913
 6184SOL     OW20390  12.056   0.283   3.343
 6184SOL    HW120391  12.120   0.327   3.398
 6184SOL    HW220392  12.005   0.354   3.304
 6185SOL     OW20393   0.620  10.518  12.587
 6185SOL    HW120394   0.686  10.510  12.656
 6185SOL    HW220395   0.669  10.542  12.509
 6186SOL     OW20396   9.641  13.113   0.143
 6186SOL    HW120397   9.575  13.078   0.082
 6186SOL    HW220398   9.710  13.147   0.087
 6187SOL     OW20399  12.353  10.206  11.722
 6187SOL    HW120400  12.267  10.243  11.741
 6187SOL    HW220401  12.339  10.155  11.642
 6188SOL     OW20402  13.217   3.872   6.641
 6188SOL    HW120403  13.209   3.920   6.559
 6188SOL    HW220404  13.162   3.795   6.629
 6189SOL     OW20405   6.873   3.470  13.808
 6189SOL    HW120406   6.818   3.473  13.729
 6189SOL    HW220407   6.814   3.443  13.878
 6190SOL     OW20408   2.675   5.924   8.620
 6190SOL    HW120409   2.658   5.831   8.605
 6190SOL    HW220410   2.707   5.956   8.536
 6191SOL     OW20411   3.937  13.694   6.169
 6191SOL    HW120412   3.951  13.642   6.247
 6191SOL    HW220413   4.017  13.682   6.118
 6192SOL     OW20414   0.084   5.699  10.917
 6192SOL    HW120415   0.063   5.660  11.002
 6192SOL    HW220416   0.036   5.782  10.916
 6193SOL     OW20417   7.991   4.830  10.647
 6193SOL    HW120418   7.908   4.790  10.671
 6193SOL    HW220419   8.028   4.860  10.731
 6194SOL     OW20420  13.459  11.779   5.905
 6194SOL    HW120421  13.530  11.724   5.873
 6194SOL    HW220422  13.432  11.830   5.829
 6195SOL     OW20423  12.095   2.067   6.800
 6195SOL    HW120424  12.068   2.144   6.749
 6195SOL    HW220425  12.090   2.096   6.891
 6196SOL     OW20426   2.293   2.213   2.119
 6196SOL    HW120427   2.357   2.143   2.107
 6196SOL    HW220428   2.214   2.168   2.150
 6197SOL     OW20429  11.880   4.960   7.284
 6197SOL    HW120430  11.936   4.934   7.211
 6197SOL    HW220431  11.940   4.966   7.359
 6198SOL     OW20432  11.152   4.946   4.009
 6198SOL    HW120433  11.122   4.935   4.099
 6198SOL    HW220434  11.071   4.949   3.957
 6199SOL     OW20435   6.293  13.281  10.254
 6199SOL    HW120436   6.213  13.267  10.304
 6199SOL    HW220437   6.328  13.364  10.285
 6200SOL     OW20438   2.410   1.077  13.246
 6200SOL    HW120439   2.364   0.993  13.243
 6200SOL    HW220440   2.417   1.096  13.340
 6201SOL     OW20441   2.268   5.577   9.722
 6201SOL    HW120442   2.258   5.654   9.778
 6201SOL    HW220443   2.319   5.608   9.647
 6202SOL     OW20444   0.079  11.398   1.492
 6202SOL    HW120445   0.069  11.337   1.419
 6202SOL    HW220446   0.126  11.349   1.559
 6203SOL     OW20447   1.992   0.466   2.160
 6203SOL    HW120448   1.933   0.539   2.140
 6203SOL    HW220449   2.016   0.479   2.251
 6204SOL     OW20450  11.847  11.878   2.392
 6204SOL    HW120451  11.832  11.819   2.466
 6204SOL    HW220452  11.913  11.940   2.422
 6205SOL     OW20453   5.737   9.604   8.541
 6205SOL    HW120454   5.655   9.628   8.498
 6205SOL    HW220455   5.711   9.548   8.614
 6206SOL     OW20456  14.777   2.477   8.391
 6206SOL    HW120457  14.735   2.527   8.461
 6206SOL    HW220458  14.843   2.537   8.355
 6207SOL     OW20459   4.088   1.826   0.096
 6207SOL    HW120460   4.066   1.821   0.189
 6207SOL    HW220461   4.128   1.741   0.076
 6208SOL     OW20462   6.509   8.043  10.702
 6208SOL    HW120463   6.572   8.071  10.635
 6208SOL    HW220464   6.530   7.951  10.718
 6209SOL     OW20465   0.447   3.201   4.966
 6209SOL    HW120466   0.427   3.108   4.976
 6209SOL    HW220467   0.409   3.225   4.881
 6210SOL     OW20468   3.255   1.607  13.974
 6210SOL    HW120469   3.217   1.676  13.919
 6210SOL    HW220470   3.319   1.653  14.028
 6211SOL     OW20471   1.959   7.357  12.174
 6211SOL    HW120472   1.868   7.329  12.187
 6211SOL    HW220473   2.000   7.284  12.127
 6212SOL     OW20474   4.394   4.664   9.836
 6212SOL    HW120475   4.385   4.579   9.879
 6212SOL    HW220476   4.474   4.657   9.784
 6213SOL     OW20477  10.594   9.612   1.563
 6213SOL    HW120478  10.614   9.637   1.473
 6213SOL    HW220479  10.513   9.561   1.557
 6214SOL     OW20480   1.403  13.444   0.108
 6214SOL    HW120481   1.352  13.383   0.163
 6214SOL    HW220482   1.350  13.455   0.029
 6215SOL     OW20483  11.309  11.631  11.187
 6215SOL    HW120484  11.312  11.723  11.159
 6215SOL    HW220485  11.314  11.635  11.282
 6216SOL     OW20486   3.588  14.822   0.767
 6216SOL    HW120487   3.598  14.868   0.850
 6216SOL    HW220488   3.500  14.786   0.770
 6217SOL     OW20489   9.896   7.313   4.387
 6217SOL    HW120490   9.897   7.282   4.477
 6217SOL    HW220491   9.983   7.349   4.373
 6218SOL     OW20492   8.205   7.666   3.195
 6218SOL    HW120493   8.228   7.735   3.258
 6218SOL    HW220494   8.132   7.620   3.236
 6219SOL     OW20495  11.121  13.395   8.735
 6219SOL    HW120496  11.032  13.396   8.769
 6219SOL    HW220497  11.128  13.313   8.687
 6220SOL     OW20498   4.031   2.959   9.767
 6220SOL    HW120499   3.965   3.009   9.815
 6220SOL    HW220500   4.037   3.003   9.682
 6221SOL     OW20501   0.922   9.190   4.959
 6221SOL    HW120502   0.907   9.239   5.040
 6221SOL    HW220503   0.843   9.205   4.907
 6222SOL     OW20504   0.884  10.903  12.337
 6222SOL    HW120505   0.827  10.975  12.311
 6222SOL    HW220506   0.960  10.945  12.376
 6223SOL     OW20507   4.165   4.610   0.435
 6223SOL    HW120508   4.156   4.703   0.416
 6223SOL    HW220509   4.133   4.601   0.525
 6224SOL     OW20510   6.933  14.140  14.362
 6224SOL    HW120511   6.982  14.059  14.354
 6224SOL    HW220512   6.986  14.196  14.419
 6225SOL     OW20513  10.064   8.179  12.409
 6225SOL    HW120514  10.054   8.187  12.314
 6225SOL    HW220515  10.111   8.096  12.421
 6226SOL     OW20516   4.667   4.905   6.616
 6226SOL    HW120517   4.759   4.898   6.589
 6226SOL    HW220518   4.634   4.982   6.571
 6227SOL     OW20519   6.414   6.841   8.805
 6227SOL    HW120520   6.336   6.889   8.778
 6227SOL    HW220521   6.391   6.804   8.890
 6228SOL     OW20522  12.576   0.836   0.933
 6228SOL    HW120523  12.614   0.890   1.003
 6228SOL    HW220524  12.561   0.751   0.975
 6229SOL     OW20525   7.806  13.821  11.382
 6229SOL    HW120526   7.784  13.736  11.344
 6229SOL    HW220527   7.838  13.873  11.308
 6230SOL     OW20528  13.463   8.435   1.568
 6230SOL    HW120529  13.540   8.398   1.611
 6230SOL    HW220530  13.476   8.530   1.573
 6231SOL     OW20531   7.049   0.625   6.588
 6231SOL    HW120532   6.963   0.593   6.614
 6231SOL    HW220533   7.034   0.670   6.505
 6232SOL     OW20534  13.180   6.792   8.011
 6232SOL    HW120535  13.086   6.808   8.016
 6232SOL    HW220536  13.188   6.697   7.999
 6233SOL     OW20537  13.647   2.680   8.320
 6233SOL    HW120538  13.595   2.601   8.335
 6233SOL    HW220539  13.619   2.711   8.234
 6234SOL     OW20540  10.307  12.831  12.909
 6234SOL    HW120541  10.259  12.911  12.886
 6234SOL    HW220542  10.243  12.778  12.958
 6235SOL     OW20543  10.686   7.406   1.484
 6235SOL    HW120544  10.591   7.399   1.479
 6235SOL    HW220545  10.719   7.326   1.443
 6236SOL     OW20546   5.418   1.448   2.493
 6236SOL    HW120547   5.428   1.456   2.398
 6236SOL    HW220548   5.497   1.402   2.521
 6237SOL     OW20549   0.253   0.123  11.489
 6237SOL    HW120550   0.345   0.100  11.498
 6237SOL    HW220551   0.254   0.215  11.463
 6238SOL     OW20552   2.195  12.109  13.669
 6238SOL    HW120553   2.150  12.110  13.754
 6238SOL    HW220554   2.134  12.064  13.610
 6239SOL     OW20555   6.157   7.756   1.496
 6239SOL    HW120556   6.117   7.838   1.468
 6239SOL    HW220557   6.111   7.733   1.577
 6240SOL     OW20558   8.424  13.421   7.558
 6240SOL    HW120559   8.446  13.328   7.551
 6240SOL    HW220560   8.361  13.436   7.487
 6241SOL     OW20561  12.669  12.206   2.897
 6241SOL    HW120562  12.592  12.188   2.843
 6241SOL    HW220563  12.736  12.235   2.835
 6242SOL     OW20564  10.547  12.492   4.018
 6242SOL    HW120565  10.473  12.493   4.079
 6242SOL    HW220566  10.507  12.490   3.931
 6243SOL     OW20567   6.377   6.825  10.984
 6243SOL    HW120568   6.312   6.779  10.930
 6243SOL    HW220569   6.325   6.885  11.038
 6244SOL     OW20570   6.406   4.838   9.997
 6244SOL    HW120571   6.489   4.878  10.025
 6244SOL    HW220572   6.378   4.786  10.073
 6245SOL     OW20573  10.236   1.129   0.156
 6245SOL    HW120574  10.304   1.062   0.149
 6245SOL    HW220575  10.270   1.190   0.221
 6246SOL     OW20576   3.358  13.469  14.172
 6246SOL    HW120577   3.429  13.515  14.127
 6246SOL    HW220578   3.342  13.522  14.251
 6247SOL     OW20579   1.304   3.365   1.756
 6247SOL    HW120580   1.355   3.440   1.726
 6247SOL    HW220581   1.353   3.289   1.726
 6248SOL     OW20582  13.273   3.018   0.521
 6248SOL    HW120583  13.337   3.014   0.592
 6248SOL    HW220584  13.297   2.946   0.463
 6249SOL     OW20585  13.692   0.191   7.378
 6249SOL    HW120586  13.660   0.163   7.464
 6249SOL    HW220587  13.764   0.251   7.398
 6250SOL     OW20588   7.197   9.848  13.957
 6250SOL    HW120589   7.166   9.762  13.928
 6250SOL    HW220590   7.120   9.904  13.951
 6251SOL     OW20591  10.354  12.173   2.221
 6251SOL    HW120592  10.339  12.261   2.256
 6251SOL    HW220593  10.439  12.147   2.257
 6252SOL     OW20594  14.020  12.531   6.050
 6252SOL    HW120595  14.065  12.511   5.969
 6252SOL    HW220596  14.066  12.480   6.117
 6253SOL     OW20597   1.468   5.590  13.178
 6253SOL    HW120598   1.399   5.619  13.238
 6253SOL    HW220599   1.547   5.632  13.211
 6254SOL     OW20600   3.506   9.316  14.710
 6254SOL    HW120601   3.470   9.382  14.651
 6254SOL    HW220602   3.514   9.361  14.794
 6255SOL     OW20603  10.365   0.689   2.866
 6255SOL    HW120604  10.395   0.741   2.791
 6255SOL    HW220605  10.404   0.733   2.942
 6256SOL     OW20606   8.744   7.589  10.997
 6256SOL    HW120607   8.655   7.570  11.026
 6256SOL    HW220608   8.758   7.681  11.019
 6257SOL     OW20609   1.862   8.630   8.448
 6257SOL    HW120610   1.838   8.629   8.540
 6257SOL    HW220611   1.793   8.681   8.405
 6258SOL     OW20612   5.931   9.596  14.506
 6258SOL    HW120613   6.002   9.622  14.448
 6258SOL    HW220614   5.868   9.552  14.449
 6259SOL     OW20615   8.497   6.851   0.078
 6259SOL    HW120616   8.503   6.887  14.869
 6259SOL    HW220617   8.498   6.927   0.135
 6260SOL     OW20618  12.805  11.504   2.649
 6260SOL    HW120619  12.786  11.515   2.742
 6260SOL    HW220620  12.894  11.539   2.638
 6261SOL     OW20621  12.397   9.057   4.174
 6261SOL    HW120622  12.440   9.139   4.199
 6261SOL    HW220623  12.438   8.990   4.230
 6262SOL     OW20624   9.116  11.774  13.032
 6262SOL    HW120625   9.076  11.701  12.986
 6262SOL    HW220626   9.137  11.837  12.964
 6263SOL     OW20627   5.982   4.917  13.042
 6263SOL    HW120628   5.917   4.857  13.007
 6263SOL    HW220629   6.012   4.968  12.967
 6264SOL     OW20630   7.392   9.243   9.037
 6264SOL    HW120631   7.434   9.323   9.068
 6264SOL    HW220632   7.458   9.174   9.050
 6265SOL     OW20633   3.938   5.900   3.122
 6265SOL    HW120634   4.020   5.864   3.157
 6265SOL    HW220635   3.914   5.970   3.183
 6266SOL     OW20636   7.650   2.978   0.681
 6266SOL    HW120637   7.679   3.065   0.655
 6266SOL    HW220638   7.730   2.932   0.706
 6267SOL     OW20639   2.819  13.970   1.638
 6267SOL    HW120640   2.850  14.060   1.653
 6267SOL    HW220641   2.757  13.979   1.565
 6268SOL     OW20642   5.921  10.236  13.859
 6268SOL    HW120643   5.870  10.317  13.866
 6268SOL    HW220644   5.856  10.166  13.869
 6269SOL     OW20645   2.666   7.213  14.317
 6269SOL    HW120646   2.667   7.293  14.369
 6269SOL    HW220647   2.697   7.240  14.230
 6270SOL     OW20648  13.470   4.606   1.359
 6270SOL    HW120649  13.413   4.678   1.385
 6270SOL    HW220650  13.558   4.645   1.356
 6271SOL     OW20651  13.649   1.271   7.296
 6271SOL    HW120652  13.636   1.177   7.313
 6271SOL    HW220653  13.744   1.283   7.298
 6272SOL     OW20654  12.265  12.011   5.763
 6272SOL    HW120655  12.233  12.101   5.759
 6272SOL    HW220656  12.280  11.994   5.856
 6273SOL     OW20657  14.267  13.492   4.257
 6273SOL    HW120658  14.207  13.557   4.220
 6273SOL    HW220659  14.318  13.542   4.321
 6274SOL     OW20660  14.585   4.710  11.882
 6274SOL    HW120661  14.552   4.729  11.970
 6274SOL    HW220662  14.506   4.711  11.827
 6275SOL     OW20663  11.621  11.862  11.905
 6275SOL    HW120664  11.542  11.877  11.958
 6275SOL    HW220665  11.633  11.767  11.906
 6276SOL     OW20666  10.711  12.290  12.576
 6276SOL    HW120667  10.745  12.371  12.539
 6276SOL    HW220668  10.721  12.300  12.670
 6277SOL     OW20669  14.305  13.100   2.777
 6277SOL    HW120670  14.395  13.118   2.748
 6277SOL    HW220671  14.250  13.131   2.705
 6278SOL     OW20672   8.135  12.475   3.690
 6278SOL    HW120673   8.071  12.457   3.622
 6278SOL    HW220674   8.210  12.420   3.668
 6279SOL     OW20675  11.652   4.950   3.255
 6279SOL    HW120676  11.598   5.000   3.316
 6279SOL    HW220677  11.626   4.982   3.168
 6280SOL     OW20678  12.128  12.132  14.655
 6280SOL    HW120679  12.138  12.038  14.670
 6280SOL    HW220680  12.096  12.139  14.565
 6281SOL     OW20681  10.067   6.566  10.027
 6281SOL    HW120682  10.042   6.630  10.094
 6281SOL    HW220683   9.990   6.509  10.019
 6282SOL     OW20684  11.740  14.626   5.278
 6282SOL    HW120685  11.795  14.688   5.230
 6282SOL    HW220686  11.795  14.595   5.350
 6283SOL     OW20687   6.837  12.917   0.908
 6283SOL    HW120688   6.793  12.924   0.993
 6283SOL    HW220689   6.869  12.827   0.906
 6284SOL     OW20690   5.072  12.975   7.724
 6284SOL    HW120691   5.068  12.881   7.740
 6284SOL    HW220692   4.992  13.009   7.765
 6285SOL     OW20693   4.267   6.984  14.629
 6285SOL    HW120694   4.279   7.079  14.634
 6285SOL    HW220695   4.351   6.950  14.597
 6286SOL     OW20696   2.672   4.204   7.473
 6286SOL    HW120697   2.639   4.116   7.487
 6286SOL    HW220698   2.632   4.257   7.543
 6287SOL     OW20699  14.234  13.468   6.531
 6287SOL    HW120700  14.256  13.544   6.477
 6287SOL    HW220701  14.303  13.465   6.597
 6288SOL     OW20702  12.047   3.035  14.347
 6288SOL    HW120703  11.952   3.019  14.348
 6288SOL    HW220704  12.079   2.993  14.427
 6289SOL     OW20705   1.459  11.959  11.744
 6289SOL    HW120706   1.414  11.876  11.728
 6289SOL    HW220707   1.552  11.937  11.737
 6290SOL     OW20708  12.989   7.626   9.737
 6290SOL    HW120709  13.076   7.600   9.768
 6290SOL    HW220710  12.928   7.572   9.787
 6291SOL     OW20711   8.439   6.643   3.016
 6291SOL    HW120712   8.529   6.646   3.048
 6291SOL    HW220713   8.447   6.613   2.925
 6292SOL     OW20714  12.322   0.032   8.235
 6292SOL    HW120715  12.350  14.825   8.208
 6292SOL    HW220716  12.392   0.063   8.292
 6293SOL     OW20717  12.183  12.862  12.669
 6293SOL    HW120718  12.233  12.863  12.588
 6293SOL    HW220719  12.134  12.944  12.668
 6294SOL     OW20720  14.824   1.632   7.424
 6294SOL    HW120721  14.838   1.546   7.463
 6294SOL    HW220722   0.032   1.660   7.398
 6295SOL     OW20723   8.383   0.589  12.033
 6295SOL    HW120724   8.295   0.582  12.071
 6295SOL    HW220725   8.420   0.501  12.044
 6296SOL     OW20726  11.734   8.670   9.137
 6296SOL    HW120727  11.705   8.662   9.047
 6296SOL    HW220728  11.681   8.741   9.173
 6297SOL     OW20729  11.007   8.433  14.259
 6297SOL    HW120730  11.051   8.366  14.207
 6297SOL    HW220731  10.948   8.476  14.198
 6298SOL     OW20732   2.599   0.078   4.246
 6298SOL    HW120733   2.557   0.104   4.328
 6298SOL    HW220734   2.546   0.004   4.215
 6299SOL     OW20735  10.779   7.828   9.132
 6299SOL    HW120736  10.708   7.764   9.126
 6299SOL    HW220737  10.811   7.837   9.043
 6300SOL     OW20738   7.261  14.113  11.411
 6300SOL    HW120739   7.265  14.123  11.506
 6300SOL    HW220740   7.200  14.040  11.397
 6301SOL     OW20741   9.927   4.101   8.684
 6301SOL    HW120742   9.999   4.164   8.684
 6301SOL    HW220743   9.882   4.116   8.767
 6302SOL     OW20744   5.954   2.792  13.238
 6302SOL    HW120745   5.984   2.864  13.294
 6302SOL    HW220746   5.915   2.729  13.298
 6303SOL     OW20747   6.259   0.741  12.696
 6303SOL    HW120748   6.316   0.745  12.772
 6303SOL    HW220749   6.172   0.762  12.730
 6304SOL     OW20750   1.021  14.723  10.529
 6304SOL    HW120751   1.024  14.775  10.609
 6304SOL    HW220752   1.061  14.639  10.553
 6305SOL     OW20753  10.490   0.523  11.786
 6305SOL    HW120754  10.537   0.463  11.844
 6305SOL    HW220755  10.398   0.500  11.799
 6306SOL     OW20756   4.424   5.339   2.057
 6306SOL    HW120757   4.388   5.268   2.109
 6306SOL    HW220758   4.419   5.308   1.966
 6307SOL     OW20759  12.349   0.628  14.583
 6307SOL    HW120760  12.298   0.704  14.609
 6307SOL    HW220761  12.307   0.597  14.502
 6308SOL     OW20762   3.578  11.499   7.026
 6308SOL    HW120763   3.583  11.507   7.121
 6308SOL    HW220764   3.596  11.407   7.009
 6309SOL     OW20765   7.424  13.138   7.359
 6309SOL    HW120766   7.482  13.134   7.283
 6309SOL    HW220767   7.394  13.229   7.361
 6310SOL     OW20768  11.808   5.861   6.601
 6310SOL    HW120769  11.761   5.784   6.634
 6310SOL    HW220770  11.787   5.863   6.507
 6311SOL     OW20771   2.105   6.560  12.560
 6311SOL    HW120772   2.172   6.602  12.506
 6311SOL    HW220773   2.149   6.485  12.599
 6312SOL     OW20774  14.349   9.620   6.809
 6312SOL    HW120775  14.395   9.560   6.866
 6312SOL    HW220776  14.282   9.660   6.865
 6313SOL     OW20777  11.172  11.414   6.767
 6313SOL    HW120778  11.196  11.502   6.739
 6313SOL    HW220779  11.099  11.390   6.710
 6314SOL     OW20780   5.666   7.775   3.282
 6314SOL    HW120781   5.720   7.842   3.324
 6314SOL    HW220782   5.721   7.740   3.213
 6315SOL     OW20783   9.675  10.062   5.499
 6315SOL    HW120784   9.648   9.976   5.530
 6315SOL    HW220785   9.711  10.046   5.412
 6316SOL     OW20786   3.641   2.059   2.393
 6316SOL    HW120787   3.676   2.147   2.378
 6316SOL    HW220788   3.574   2.071   2.460
 6317SOL     OW20789   8.883   6.781   3.774
 6317SOL    HW120790   8.874   6.718   3.846
 6317SOL    HW220791   8.822   6.852   3.796
 6318SOL     OW20792   4.428  14.532  11.185
 6318SOL    HW120793   4.492  14.603  11.177
 6318SOL    HW220794   4.396  14.538  11.275
 6319SOL     OW20795   1.482   2.412  10.684
 6319SOL    HW120796   1.434   2.443  10.761
 6319SOL    HW220797   1.492   2.318  10.697
 6320SOL     OW20798   0.420   7.248  12.680
 6320SOL    HW120799   0.428   7.331  12.632
 6320SOL    HW220800   0.483   7.190  12.638
 6321SOL     OW20801   0.094  14.327   6.823
 6321SOL    HW120802   0.162  14.366   6.768
 6321SOL    HW220803   0.100  14.233   6.807
 6322SOL     OW20804   5.146   6.688   1.032
 6322SOL    HW120805   5.152   6.600   0.994
 6322SOL    HW220806   5.185   6.680   1.119
 6323SOL     OW20807   0.256   5.411  12.646
 6323SOL    HW120808   0.272   5.493  12.600
 6323SOL    HW220809   0.169   5.421  12.685
 6324SOL     OW20810   3.843   4.426  14.421
 6324SOL    HW120811   3.925   4.378  14.427
 6324SOL    HW220812   3.840   4.457  14.330
 6325SOL     OW20813  10.154   8.320   8.051
 6325SOL    HW120814  10.215   8.329   7.978
 6325SOL    HW220815  10.096   8.248   8.025
 6326SOL     OW20816  14.854   5.932  11.023
 6326SOL    HW120817  14.761   5.948  11.012
 6326SOL    HW220818  14.871   5.952  11.115
 6327SOL     OW20819   1.501   1.571  14.065
 6327SOL    HW120820   1.439   1.512  14.021
 6327SOL    HW220821   1.489   1.655  14.020
 6328SOL     OW20822   2.860   4.305   7.982
 6328SOL    HW120823   2.841   4.236   7.918
 6328SOL    HW220824   2.953   4.322   7.973
 6329SOL     OW20825   3.142  11.504   5.307
 6329SOL    HW120826   3.080  11.516   5.236
 6329SOL    HW220827   3.094  11.529   5.386
 6330SOL     OW20828   7.410  10.145   4.431
 6330SOL    HW120829   7.494  10.110   4.403
 6330SOL    HW220830   7.425  10.177   4.520
 6331SOL     OW20831  12.696   3.904   5.646
 6331SOL    HW120832  12.625   3.951   5.690
 6331SOL    HW220833  12.750   3.870   5.717
 6332SOL     OW20834  11.246   6.366   5.795
 6332SOL    HW120835  11.247   6.432   5.864
 6332SOL    HW220836  11.253   6.283   5.842
 6333SOL     OW20837   7.403   1.119   5.280
 6333SOL    HW120838   7.487   1.088   5.245
 6333SOL    HW220839   7.427   1.170   5.358
 6334SOL     OW20840  14.330   8.135   7.326
 6334SOL    HW120841  14.274   8.058   7.331
 6334SOL    HW220842  14.323   8.164   7.235
 6335SOL     OW20843  14.115  12.826   6.830
 6335SOL    HW120844  14.136  12.883   6.756
 6335SOL    HW220845  14.139  12.877   6.907
 6336SOL     OW20846   5.852   8.321  12.522
 6336SOL    HW120847   5.824   8.307  12.612
 6336SOL    HW220848   5.829   8.413  12.504
 6337SOL     OW20849   0.571   7.111  11.115
 6337SOL    HW120850   0.491   7.128  11.163
 6337SOL    HW220851   0.627   7.062  11.176
 6338SOL     OW20852   8.911   8.534   9.965
 6338SOL    HW120853   8.969   8.471  10.007
 6338SOL    HW220854   8.827   8.488   9.958
 6339SOL     OW20855  14.720  11.799   5.588
 6339SOL    HW120856  14.735  11.812   5.681
 6339SOL    HW220857  14.734  11.885   5.549
 6340SOL     OW20858  10.856   0.863  14.843
 6340SOL    HW120859  10.855   0.959  14.848
 6340SOL    HW220860  10.812   0.834   0.043
 6341SOL     OW20861   0.097   3.370   2.427
 6341SOL    HW120862   0.116   3.447   2.373
 6341SOL    HW220863   0.147   3.384   2.507
 6342SOL     OW20864   5.364  11.126   1.004
 6342SOL    HW120865   5.279  11.107   0.965
 6342SOL    HW220866   5.427  11.092   0.941
 6343SOL     OW20867   9.428   3.424   6.135
 6343SOL    HW120868   9.514   3.434   6.094
 6343SOL    HW220869   9.415   3.330   6.143
 6344SOL     OW20870   8.323   8.167   8.795
 6344SOL    HW120871   8.418   8.171   8.807
 6344SOL    HW220872   8.295   8.258   8.801
 6345SOL     OW20873   8.363  12.099   1.471
 6345SOL    HW120874   8.327  12.185   1.452
 6345SOL    HW220875   8.384  12.062   1.385
 6346SOL     OW20876   4.195  10.796   3.683
 6346SOL    HW120877   4.246  10.810   3.763
 6346SOL    HW220878   4.239  10.723   3.640
 6347SOL     OW20879  14.666  13.045   9.050
 6347SOL    HW120880  14.718  13.080   9.123
 6347SOL    HW220881  14.606  12.983   9.092
 6348SOL     OW20882  14.395   6.161   3.099
 6348SOL    HW120883  14.420   6.073   3.124
 6348SOL    HW220884  14.341   6.150   3.020
 6349SOL     OW20885  11.161   2.924   0.053
 6349SOL    HW120886  11.219   2.886  14.866
 6349SOL    HW220887  11.173   2.867   0.129
 6350SOL     OW20888   2.000   8.094   6.735
 6350SOL    HW120889   2.039   8.010   6.712
 6350SOL    HW220890   1.956   8.123   6.656
 6351SOL     OW20891  10.691   1.885   7.995
 6351SOL    HW120892  10.652   1.970   8.018
 6351SOL    HW220893  10.615   1.827   7.982
 6352SOL     OW20894   5.344   1.347   0.311
 6352SOL    HW120895   5.273   1.352   0.248
 6352SOL    HW220896   5.407   1.413   0.283
 6353SOL     OW20897   4.258   7.965  12.043
 6353SOL    HW120898   4.266   8.006  12.129
 6353SOL    HW220899   4.336   7.910  12.035
 6354SOL     OW20900   1.637  10.265   0.083
 6354SOL    HW120901   1.705  10.219   0.132
 6354SOL    HW220902   1.644  10.229  14.874
 6355SOL     OW20903   2.692   0.341   5.194
 6355SOL    HW120904   2.747   0.415   5.217
 6355SOL    HW220905   2.747   0.264   5.210
 6356SOL     OW20906   7.360  10.621   4.604
 6356SOL    HW120907   7.303  10.545   4.612
 6356SOL    HW220908   7.299  10.695   4.599
 6357SOL     OW20909   4.200   3.504  13.914
 6357SOL    HW120910   4.290   3.523  13.887
 6357SOL    HW220911   4.196   3.530  14.006
 6358SOL     OW20912   6.970   6.517  10.939
 6358SOL    HW120913   6.942   6.468  11.016
 6358SOL    HW220914   6.954   6.608  10.962
 6359SOL     OW20915  14.673  11.789   3.490
 6359SOL    HW120916  14.744  11.831   3.538
 6359SOL    HW220917  14.649  11.713   3.543
 6360SOL     OW20918   2.224   8.649  10.248
 6360SOL    HW120919   2.274   8.570  10.269
 6360SOL    HW220920   2.283   8.701  10.194
 6361SOL     OW20921   5.778   6.366  14.254
 6361SOL    HW120922   5.815   6.282  14.225
 6361SOL    HW220923   5.741   6.347  14.340
 6362SOL     OW20924   0.865   7.090   4.460
 6362SOL    HW120925   0.865   7.067   4.367
 6362SOL    HW220926   0.955   7.117   4.478
 6363SOL     OW20927   5.525   4.470   4.217
 6363SOL    HW120928   5.540   4.550   4.267
 6363SOL    HW220929   5.580   4.404   4.260
 6364SOL     OW20930   9.337   2.657   4.110
 6364SOL    HW120931   9.429   2.681   4.122
 6364SOL    HW220932   9.288   2.723   4.158
 6365SOL     OW20933   9.885  12.334   8.973
 6365SOL    HW120934   9.970  12.307   8.938
 6365SOL    HW220935   9.907  12.394   9.044
 6366SOL     OW20936  14.636   4.180  11.894
 6366SOL    HW120937  14.731   4.171  11.884
 6366SOL    HW220938  14.606   4.092  11.919
 6367SOL     OW20939  14.038   3.106  12.652
 6367SOL    HW120940  13.952   3.146  12.638
 6367SOL    HW220941  14.018   3.016  12.679
 6368SOL     OW20942   8.698  13.999   3.632
 6368SOL    HW120943   8.765  13.930   3.630
 6368SOL    HW220944   8.659  13.991   3.719
 6369SOL     OW20945   6.369   7.107   1.549
 6369SOL    HW120946   6.408   7.191   1.524
 6369SOL    HW220947   6.354   7.062   1.466
 6370SOL     OW20948  13.347   9.735   2.453
 6370SOL    HW120949  13.399   9.692   2.386
 6370SOL    HW220950  13.395   9.718   2.535
 6371SOL     OW20951   6.620   1.560  12.491
 6371SOL    HW120952   6.712   1.584  12.480
 6371SOL    HW220953   6.621   1.478  12.539
 6372SOL     OW20954   3.467   5.356   8.479
 6372SOL    HW120955   3.532   5.333   8.545
 6372SOL    HW220956   3.473   5.451   8.470
 6373SOL     OW20957  12.333   8.634   0.690
 6373SOL    HW120958  12.328   8.538   0.694
 6373SOL    HW220959  12.283   8.657   0.612
 6374SOL     OW20960   4.452   0.052  14.053
 6374SOL    HW120961   4.441   0.143  14.083
 6374SOL    HW220962   4.536   0.025  14.091
 6375SOL     OW20963   9.910  11.691  11.554
 6375SOL    HW120964   9.885  11.690  11.462
 6375SOL    HW220965   9.948  11.778  11.568
 6376SOL     OW20966  13.414  13.783   5.302
 6376SOL    HW120967  13.419  13.689   5.283
 6376SOL    HW220968  13.456  13.825   5.228
 6377SOL     OW20969   0.835  10.170  10.680
 6377SOL    HW120970   0.775  10.101  10.706
 6377SOL    HW220971   0.800  10.249  10.722
 6378SOL     OW20972   8.808  14.099  10.073
 6378SOL    HW120973   8.737  14.114  10.011
 6378SOL    HW220974   8.866  14.037  10.027
 6379SOL     OW20975   9.600   7.874  12.857
 6379SOL    HW120976   9.575   7.826  12.936
 6379SOL    HW220977   9.622   7.962  12.888
 6380SOL     OW20978  11.257   4.733   7.458
 6380SOL    HW120979  11.236   4.825   7.475
 6380SOL    HW220980  11.310   4.734   7.379
 6381SOL     OW20981   4.376  13.593   7.806
 6381SOL    HW120982   4.364  13.533   7.879
 6381SOL    HW220983   4.469  13.619   7.811
 6382SOL     OW20984  10.162  12.424  14.680
 6382SOL    HW120985  10.186  12.435  14.773
 6382SOL    HW220986  10.234  12.466  14.633
 6383SOL     OW20987   1.538   8.506  12.199
 6383SOL    HW120988   1.615   8.456  12.224
 6383SOL    HW220989   1.482   8.505  12.277
 6384SOL     OW20990   0.173  14.002  14.276
 6384SOL    HW120991   0.094  14.021  14.225
 6384SOL    HW220992   0.185  14.080  14.330
 6385SOL     OW20993   4.945   5.005  11.450
 6385SOL    HW120994   4.931   4.918  11.413
 6385SOL    HW220995   5.039   5.021  11.437
 6386SOL     OW20996  13.872   0.144   2.197
 6386SOL    HW120997  13.920   0.063   2.181
 6386SOL    HW220998  13.932   0.197   2.249
 6387SOL     OW20999   0.391  12.948   4.696
 6387SOL    HW121000   0.364  12.857   4.685
 6387SOL    HW221001   0.413  12.956   4.789
 6388SOL     OW21002   8.786   8.383   6.942
 6388SOL    HW121003   8.843   8.416   7.011
 6388SOL    HW221004   8.707   8.355   6.989
 6389SOL     OW21005  14.105  12.622  11.404
 6389SOL    HW121006  14.092  12.679  11.480
 6389SOL    HW221007  14.120  12.683  11.331
 6390SOL     OW21008   8.938   4.946  10.282
 6390SOL    HW121009   8.938   5.011  10.353
 6390SOL    HW221010   8.991   4.874  10.316
 6391SOL     OW21011  12.495   0.168   4.615
 6391SOL    HW121012  12.550   0.140   4.688
 6391SOL    HW221013  12.432   0.229   4.655
 6392SOL     OW21014   9.301   5.528   3.916
 6392SOL    HW121015   9.332   5.618   3.926
 6392SOL    HW221016   9.361   5.476   3.969
 6393SOL     OW21017   9.917   7.535  11.426
 6393SOL    HW121018  10.012   7.546  11.414
 6393SOL    HW221019   9.903   7.557  11.518
 6394SOL     OW21020  14.583  10.247   0.192
 6394SOL    HW121021  14.585  10.321   0.253
 6394SOL    HW221022  14.525  10.275   0.122
 6395SOL     OW21023   0.619  14.114   8.494
 6395SOL    HW121024   0.642  14.203   8.523
 6395SOL    HW221025   0.684  14.094   8.427
 6396SOL     OW21026  13.099  13.770  10.217
 6396SOL    HW121027  13.091  13.720  10.136
 6396SOL    HW221028  13.193  13.775  10.234
 6397SOL     OW21029  14.041   1.874  10.567
 6397SOL    HW121030  14.096   1.943  10.605
 6397SOL    HW221031  14.064   1.874  10.474
 6398SOL     OW21032   2.831  12.042  13.742
 6398SOL    HW121033   2.880  12.078  13.669
 6398SOL    HW221034   2.791  11.961  13.707
 6399SOL     OW21035  11.452   5.405   2.521
 6399SOL    HW121036  11.500   5.487   2.534
 6399SOL    HW221037  11.433   5.403   2.427
 6400SOL     OW21038   2.003   6.711  13.416
 6400SOL    HW121039   2.085   6.701  13.367
 6400SOL    HW221040   1.939   6.661  13.366
 6401SOL     OW21041  14.395   1.878   1.495
 6401SOL    HW121042  14.463   1.889   1.428
 6401SOL    HW221043  14.424   1.803   1.546
 6402SOL     OW21044   3.399  13.089   1.080
 6402SOL    HW121045   3.403  13.132   1.165
 6402SOL    HW221046   3.328  13.133   1.034
 6403SOL     OW21047   1.626  14.253   6.485
 6403SOL    HW121048   1.651  14.161   6.483
 6403SOL    HW221049   1.690  14.297   6.430
 6404SOL     OW21050  14.451   9.741   0.321
 6404SOL    HW121051  14.361   9.710   0.328
 6404SOL    HW221052  14.448   9.833   0.350
 6405SOL     OW21053  12.426   2.318   6.301
 6405SOL    HW121054  12.341   2.292   6.338
 6405SOL    HW221055  12.424   2.414   6.303
 6406SOL     OW21056   7.219  14.071   5.728
 6406SOL    HW121057   7.213  14.018   5.807
 6406SOL    HW221058   7.141  14.126   5.728
 6407SOL     OW21059   8.353  12.664   0.843
 6407SOL    HW121060   8.417  12.639   0.910
 6407SOL    HW221061   8.398  12.729   0.789
 6408SOL     OW21062   1.533   0.176   0.322
 6408SOL    HW121063   1.479   0.100   0.301
 6408SOL    HW221064   1.623   0.147   0.310
 6409SOL     OW21065   5.735   2.282  13.667
 6409SOL    HW121066   5.758   2.283  13.574
 6409SOL    HW221067   5.791   2.349  13.706
 6410SOL     OW21068   4.680  11.037   5.779
 6410SOL    HW121069   4.592  11.033   5.816
 6410SOL    HW221070   4.738  11.042   5.856
 6411SOL     OW21071   4.657   7.806   3.411
 6411SOL    HW121072   4.582   7.750   3.391
 6411SOL    HW221073   4.723   7.746   3.447
 6412SOL     OW21074   4.005  11.332   2.225
 6412SOL    HW121075   3.924  11.381   2.209
 6412SOL    HW221076   3.976  11.243   2.245
 6413SOL     OW21077   6.843   5.843   5.667
 6413SOL    HW121078   6.822   5.842   5.573
 6413SOL    HW221079   6.935   5.817   5.671
 6414SOL     OW21080   4.488  10.510   3.119
 6414SOL    HW121081   4.451  10.572   3.057
 6414SOL    HW221082   4.416  10.487   3.177
 6415SOL     OW21083   7.299  12.009   9.231
 6415SOL    HW121084   7.266  12.049   9.151
 6415SOL    HW221085   7.391  11.989   9.213
 6416SOL     OW21086  13.642   1.521   8.549
 6416SOL    HW121087  13.620   1.542   8.640
 6416SOL    HW221088  13.718   1.462   8.556
 6417SOL     OW21089   4.135   7.687   7.477
 6417SOL    HW121090   4.113   7.753   7.411
 6417SOL    HW221091   4.215   7.646   7.445
 6418SOL     OW21092   1.724   2.991   9.439
 6418SOL    HW121093   1.752   2.935   9.512
 6418SOL    HW221094   1.788   2.974   9.370
 6419SOL     OW21095   0.083  11.256   1.976
 6419SOL    HW121096   0.136  11.238   2.054
 6419SOL    HW221097   0.063  11.349   1.982
 6420SOL     OW21098  12.064   9.539   8.701
 6420SOL    HW121099  12.105   9.497   8.627
 6420SOL    HW221100  12.134   9.590   8.743
 6421SOL     OW21101   1.451  12.616   8.439
 6421SOL    HW121102   1.541  12.631   8.409
 6421SOL    HW221103   1.448  12.522   8.458
 6422SOL     OW21104   6.144   4.949   2.389
 6422SOL    HW121105   6.107   5.022   2.439
 6422SOL    HW221106   6.069   4.893   2.369
 6423SOL     OW21107  12.379  11.885   8.862
 6423SOL    HW121108  12.445  11.841   8.915
 6423SOL    HW221109  12.428  11.930   8.793
 6424SOL     OW21110   4.649   7.631   7.918
 6424SOL    HW121111   4.724   7.687   7.900
 6424SOL    HW221112   4.621   7.600   7.832
 6425SOL     OW21113   6.787   7.890  11.575
 6425SOL    HW121114   6.722   7.959  11.589
 6425SOL    HW221115   6.824   7.873  11.662
 6426SOL     OW21116  11.449   5.948  13.748
 6426SOL    HW121117  11.368   5.899  13.741
 6426SOL    HW221118  11.509   5.906  13.687
 6427SOL     OW21119   2.415   6.928   5.199
 6427SOL    HW121120   2.358   7.006   5.196
 6427SOL    HW221121   2.371   6.865   5.141
 6428SOL     OW21122  10.105   3.425   2.304
 6428SOL    HW121123  10.072   3.362   2.240
 6428SOL    HW221124  10.042   3.497   2.301
 6429SOL     OW21125  14.273   1.037   3.239
 6429SOL    HW121126  14.311   1.013   3.323
 6429SOL    HW221127  14.349   1.049   3.181
 6430SOL     OW21128  12.038   9.283   9.516
 6430SOL    HW121129  12.057   9.189   9.511
 6430SOL    HW221130  11.974   9.298   9.447
 6431SOL     OW21131   3.499  12.950  11.650
 6431SOL    HW121132   3.540  12.935  11.565
 6431SOL    HW221133   3.573  12.962  11.710
 6432SOL     OW21134   6.092   0.859  14.817
 6432SOL    HW121135   6.154   0.842   0.008
 6432SOL    HW221136   6.146   0.865  14.739
 6433SOL     OW21137   1.672  13.090  11.382
 6433SOL    HW121138   1.744  13.083  11.320
 6433SOL    HW221139   1.610  13.151  11.342
 6434SOL     OW21140   5.892   1.583   8.021
 6434SOL    HW121141   5.919   1.551   7.935
 6434SOL    HW221142   5.861   1.505   8.067
 6435SOL     OW21143   2.145   7.165   4.513
 6435SOL    HW121144   2.240   7.152   4.518
 6435SOL    HW221145   2.135   7.260   4.511
 6436SOL     OW21146   1.594   0.983   7.386
 6436SOL    HW121147   1.585   1.044   7.459
 6436SOL    HW221148   1.539   1.019   7.316
 6437SOL     OW21149   3.266  12.186   0.686
 6437SOL    HW121150   3.333  12.162   0.622
 6437SOL    HW221151   3.272  12.281   0.693
 6438SOL     OW21152  12.904   0.153  14.872
 6438SOL    HW121153  12.815   0.178  14.847
 6438SOL    HW221154  12.945   0.127  14.789
 6439SOL     OW21155   4.667   1.897   8.455
 6439SOL    HW121156   4.621   1.979   8.440
 6439SOL    HW221157   4.613   1.831   8.412
 6440SOL     OW21158   2.941  14.528  11.683
 6440SOL    HW121159   3.012  14.476  11.721
 6440SOL    HW221160   2.869  14.517  11.745
 6441SOL     OW21161   2.688   3.874  11.360
 6441SOL    HW121162   2.702   3.838  11.272
 6441SOL    HW221163   2.772   3.863  11.404
 6442SOL     OW21164   4.424   1.716   9.460
 6442SOL    HW121165   4.450   1.630   9.494
 6442SOL    HW221166   4.491   1.776   9.492
 6443SOL     OW21167  10.801  11.570  13.956
 6443SOL    HW121168  10.727  11.579  13.896
 6443SOL    HW221169  10.770  11.609  14.038
 6444SOL     OW21170   3.431   3.495   6.568
 6444SOL    HW121171   3.523   3.503   6.593
 6444SOL    HW221172   3.405   3.408   6.599
 6445SOL     OW21173   1.501  13.520   7.478
 6445SOL    HW121174   1.408  13.512   7.495
 6445SOL    HW221175   1.515  13.471   7.396
 6446SOL     OW21176   6.548  11.204   1.055
 6446SOL    HW121177   6.616  11.191   1.121
 6446SOL    HW221178   6.594  11.196   0.971
 6447SOL     OW21179  13.714   4.452   6.198
 6447SOL    HW121180  13.727   4.512   6.125
 6447SOL    HW221181  13.780   4.478   6.263
 6448SOL     OW21182   6.882   9.569   1.877
 6448SOL    HW121183   6.889   9.663   1.860
 6448SOL    HW221184   6.798   9.558   1.921
 6449SOL     OW21185   1.848   3.872   1.902
 6449SOL    HW121186   1.848   3.967   1.888
 6449SOL    HW221187   1.851   3.836   1.813
 6450SOL     OW21188  12.524   9.798  11.939
 6450SOL    HW121189  12.451   9.761  11.890
 6450SOL    HW221190  12.483   9.859  12.001
 6451SOL     OW21191   1.522   8.821   2.814
 6451SOL    HW121192   1.543   8.779   2.897
 6451SOL    HW221193   1.449   8.770   2.780
 6452SOL     OW21194   3.958   2.278   4.994
 6452SOL    HW121195   3.931   2.367   4.972
 6452SOL    HW221196   4.017   2.289   5.069
 6453SOL     OW21197  12.893  11.715   9.383
 6453SOL    HW121198  12.845  11.711   9.466
 6453SOL    HW221199  12.829  11.748   9.319
 6454SOL     OW21200   6.413  10.654   1.165
 6454SOL    HW121201   6.484  10.637   1.103
 6454SOL    HW221202   6.431  10.741   1.199
 6455SOL     OW21203  12.039   8.926   3.776
 6455SOL    HW121204  12.005   8.888   3.695
 6455SOL    HW221205  11.972   8.906   3.842
 6456SOL     OW21206   2.177  12.611   3.574
 6456SOL    HW121207   2.197  12.701   3.600
 6456SOL    HW221208   2.162  12.565   3.656
 6457SOL     OW21209  12.290  11.780   7.722
 6457SOL    HW121210  12.286  11.746   7.632
 6457SOL    HW221211  12.309  11.703   7.776
 6458SOL     OW21212  14.074   1.526   3.742
 6458SOL    HW121213  14.163   1.490   3.745
 6458SOL    HW221214  14.021   1.457   3.703
 6459SOL     OW21215   7.237  10.775   3.058
 6459SOL    HW121216   7.167  10.837   3.079
 6459SOL    HW221217   7.316  10.813   3.096
 6460SOL     OW21218   4.787  13.157  10.841
 6460SOL    HW121219   4.832  13.138  10.758
 6460SOL    HW221220   4.846  13.124  10.909
 6461SOL     OW21221  11.201  12.135  12.856
 6461SOL    HW121222  11.238  12.111  12.771
 6461SOL    HW221223  11.107  12.137  12.842
 6462SOL     OW21224  10.131   7.582   3.958
 6462SOL    HW121225  10.092   7.507   3.913
 6462SOL    HW221226  10.124   7.654   3.894
 6463SOL     OW21227   6.830   1.696  12.518
 6463SOL    HW121228   6.804   1.735  12.602
 6463SOL    HW221229   6.794   1.756  12.452
 6464SOL     OW21230  12.148   9.014   6.102
 6464SOL    HW121231  12.183   9.087   6.051
 6464SOL    HW221232  12.176   8.936   6.054
 6465SOL     OW21233   3.259   1.042   0.502
 6465SOL    HW121234   3.260   1.107   0.573
 6465SOL    HW221235   3.226   0.962   0.544
 6466SOL     OW21236   4.777   0.693  12.749
 6466SOL    HW121237   4.751   0.620  12.805
 6466SOL    HW221238   4.694   0.727  12.714
 6467SOL     OW21239   6.772   0.113  11.754
 6467SOL    HW121240   6.688   0.131  11.796
 6467SOL    HW221241   6.836   0.123  11.824
 6468SOL     OW21242   0.630  10.245   1.126
 6468SOL    HW121243   0.712  10.195   1.122
 6468SOL    HW221244   0.584  10.209   1.201
 6469SOL     OW21245   0.539   9.877   9.170
 6469SOL    HW121246   0.459   9.882   9.222
 6469SOL    HW221247   0.518   9.819   9.098
 6470SOL     OW21248   8.063   2.682   2.492
 6470SOL    HW121249   8.007   2.740   2.545
 6470SOL    HW221250   8.139   2.736   2.469
 6471SOL     OW21251   2.860   3.125   1.462
 6471SOL    HW121252   2.862   3.206   1.514
 6471SOL    HW221253   2.796   3.144   1.392
 6472SOL     OW21254   9.948   9.585  10.413
 6472SOL    HW121255   9.935   9.492  10.432
 6472SOL    HW221256   9.866   9.627  10.441
 6473SOL     OW21257   8.395   5.669  12.210
 6473SOL    HW121258   8.479   5.634  12.179
 6473SOL    HW221259   8.350   5.593  12.247
 6474SOL     OW21260   9.301   6.157   9.023
 6474SOL    HW121261   9.318   6.222   8.956
 6474SOL    HW221262   9.236   6.099   8.985
 6475SOL     OW21263   0.684   0.211  11.879
 6475SOL    HW121264   0.702   0.117  11.889
 6475SOL    HW221265   0.591   0.220  11.901
 6476SOL     OW21266   1.370   1.893   2.857
 6476SOL    HW121267   1.334   1.835   2.790
 6476SOL    HW221268   1.444   1.936   2.813
 6477SOL     OW21269  11.229   3.536   9.271
 6477SOL    HW121270  11.157   3.589   9.304
 6477SOL    HW221271  11.296   3.599   9.245
 6478SOL     OW21272   4.700  14.145   4.396
 6478SOL    HW121273   4.631  14.088   4.431
 6478SOL    HW221274   4.747  14.090   4.334
 6479SOL     OW21275   4.444   1.979   5.446
 6479SOL    HW121276   4.496   1.932   5.380
 6479SOL    HW221277   4.365   1.926   5.455
 6480SOL     OW21278   0.391   1.183   7.239
 6480SOL    HW121279   0.353   1.259   7.196
 6480SOL    HW221280   0.440   1.219   7.313
 6481SOL     OW21281  10.746   6.916   1.204
 6481SOL    HW121282  10.806   6.973   1.253
 6481SOL    HW221283  10.754   6.944   1.113
 6482SOL     OW21284  11.918   4.441   7.854
 6482SOL    HW121285  11.930   4.362   7.800
 6482SOL    HW221286  11.824   4.444   7.871
 6483SOL     OW21287   2.081   1.721   6.804
 6483SOL    HW121288   2.001   1.774   6.802
 6483SOL    HW221289   2.060   1.646   6.860
 6484SOL     OW21290  14.029   5.770   3.965
 6484SOL    HW121291  14.034   5.713   4.042
 6484SOL    HW221292  13.936   5.776   3.945
 6485SOL     OW21293   5.860  13.106   0.508
 6485SOL    HW121294   5.814  13.134   0.587
 6485SOL    HW221295   5.790  13.086   0.445
 6486SOL     OW21296   1.751  13.747   5.510
 6486SOL    HW121297   1.758  13.741   5.415
 6486SOL    HW221298   1.719  13.836   5.526
 6487SOL     OW21299  14.481   0.238   0.319
 6487SOL    HW121300  14.506   0.179   0.248
 6487SOL    HW221301  14.407   0.288   0.283
 6488SOL     OW21302   5.193   8.937   0.777
 6488SOL    HW121303   5.261   8.998   0.807
 6488SOL    HW221304   5.115   8.992   0.768
 6489SOL     OW21305   3.470  10.124  12.398
 6489SOL    HW121306   3.457  10.100  12.306
 6489SOL    HW221307   3.410  10.067  12.446
 6490SOL     OW21308   2.392   2.456   9.797
 6490SOL    HW121309   2.310   2.479   9.753
 6490SOL    HW221310   2.454   2.522   9.767
 6491SOL     OW21311  12.970  10.071   0.688
 6491SOL    HW121312  12.984  10.023   0.606
 6491SOL    HW221313  12.969  10.003   0.756
 6492SOL     OW21314   9.152  12.119   2.418
 6492SOL    HW121315   9.233  12.150   2.459
 6492SOL    HW221316   9.181  12.066   2.344
 6493SOL     OW21317   5.678   3.561   2.041
 6493SOL    HW121318   5.683   3.564   2.136
 6493SOL    HW221319   5.769   3.562   2.012
 6494SOL     OW21320   7.759   3.578   1.592
 6494SOL    HW121321   7.815   3.514   1.549
 6494SOL    HW221322   7.671   3.560   1.559
 6495SOL     OW21323   7.058   3.903  11.898
 6495SOL    HW121324   7.132   3.894  11.958
 6495SOL    HW221325   6.987   3.939  11.951
 6496SOL     OW21326  11.410   6.349   8.524
 6496SOL    HW121327  11.475   6.419   8.518
 6496SOL    HW221328  11.384   6.332   8.434
 6497SOL     OW21329  11.184   9.259   3.000
 6497SOL    HW121330  11.249   9.284   2.934
 6497SOL    HW221331  11.229   9.197   3.056
 6498SOL     OW21332  12.111   4.006  13.040
 6498SOL    HW121333  12.204   3.986  13.047
 6498SOL    HW221334  12.089   3.991  12.948
 6499SOL     OW21335  13.386  11.860   3.380
 6499SOL    HW121336  13.411  11.817   3.298
 6499SOL    HW221337  13.341  11.940   3.352
 6500SOL     OW21338   5.719   1.801   3.181
 6500SOL    HW121339   5.721   1.897   3.183
 6500SOL    HW221340   5.805   1.776   3.148
 6501SOL     OW21341   0.451   6.736   0.200
 6501SOL    HW121342   0.445   6.806   0.135
 6501SOL    HW221343   0.545   6.727   0.216
 6502SOL     OW21344   4.942   2.129   7.491
 6502SOL    HW121345   4.914   2.070   7.561
 6502SOL    HW221346   4.991   2.073   7.432
 6503SOL     OW21347  14.427   5.537  12.409
 6503SOL    HW121348  14.481   5.566  12.336
 6503SOL    HW221349  14.340   5.526  12.371
 6504SOL     OW21350  13.872   5.826  12.602
 6504SOL    HW121351  13.792   5.832  12.654
 6504SOL    HW221352  13.902   5.736  12.614
 6505SOL     OW21353   2.752  14.043   5.191
 6505SOL    HW121354   2.726  13.956   5.220
 6505SOL    HW221355   2.844  14.051   5.215
 6506SOL     OW21356  10.592   6.303   0.088
 6506SOL    HW121357  10.632   6.297   0.001
 6506SOL    HW221358  10.624   6.385   0.124
 6507SOL     OW21359   2.170   8.144   5.250
 6507SOL    HW121360   2.173   8.169   5.157
 6507SOL    HW221361   2.089   8.183   5.282
 6508SOL     OW21362   9.747  14.398   8.386
 6508SOL    HW121363   9.794  14.334   8.439
 6508SOL    HW221364   9.816  14.448   8.342
 6509SOL     OW21365  11.654   2.324  12.222
 6509SOL    HW121366  11.705   2.250  12.255
 6509SOL    HW221367  11.720   2.391  12.204
 6510SOL     OW21368  14.754   2.883  13.201
 6510SOL    HW121369  14.778   2.970  13.231
 6510SOL    HW221370  14.749   2.891  13.106
 6511SOL     OW21371   4.783   6.756   3.082
 6511SOL    HW121372   4.717   6.794   3.139
 6511SOL    HW221373   4.823   6.687   3.135
 6512SOL     OW21374  12.561   5.825   7.498
 6512SOL    HW121375  12.617   5.856   7.570
 6512SOL    HW221376  12.615   5.838   7.420
 6513SOL     OW21377   8.328   7.677   5.433
 6513SOL    HW121378   8.276   7.662   5.513
 6513SOL    HW221379   8.419   7.681   5.464
 6514SOL     OW21380   7.295   5.946  11.999
 6514SOL    HW121381   7.203   5.937  11.974
 6514SOL    HW221382   7.307   6.040  12.011
 6515SOL     OW21383   4.052  14.280   2.832
 6515SOL    HW121384   4.011  14.339   2.769
 6515SOL    HW221385   4.131  14.249   2.788
 6516SOL     OW21386   6.435   4.375  12.389
 6516SOL    HW121387   6.424   4.359  12.483
 6516SOL    HW221388   6.512   4.431  12.383
 6517SOL     OW21389   4.282  10.496  12.518
 6517SOL    HW121390   4.194  10.513  12.551
 6517SOL    HW221391   4.286  10.400  12.508
 6518SOL     OW21392   9.095   4.410   5.619
 6518SOL    HW121393   9.179   4.364   5.622
 6518SOL    HW221394   9.039   4.363   5.682
 6519SOL     OW21395   9.366   6.709   9.078
 6519SOL    HW121396   9.415   6.790   9.067
 6519SOL    HW221397   9.415   6.660   9.143
 6520SOL     OW21398   6.000  10.858   1.121
 6520SOL    HW121399   6.083  10.896   1.092
 6520SOL    HW221400   6.011  10.844   1.215
 6521SOL     OW21401   9.324   7.098  13.640
 6521SOL    HW121402   9.340   7.043  13.564
 6521SOL    HW221403   9.319   7.187  13.605
 6522SOL     OW21404   6.095  10.451  13.478
 6522SOL    HW121405   6.002  10.430  13.486
 6522SOL    HW221406   6.139  10.385  13.532
 6523SOL     OW21407  11.769   6.827   6.028
 6523SOL    HW121408  11.796   6.757   6.087
 6523SOL    HW221409  11.774   6.788   5.940
 6524SOL     OW21410  10.307   0.194   1.875
 6524SOL    HW121411  10.257   0.132   1.822
 6524SOL    HW221412  10.322   0.149   1.957
 6525SOL     OW21413   0.856  12.888   0.978
 6525SOL    HW121414   0.852  12.855   0.888
 6525SOL    HW221415   0.795  12.833   1.027
 6526SOL     OW21416   6.374   0.079   9.133
 6526SOL    HW121417   6.442   0.012   9.142
 6526SOL    HW221418   6.301   0.045   9.184
 6527SOL     OW21419   4.729  13.244  12.909
 6527SOL    HW121420   4.766  13.222  12.823
 6527SOL    HW221421   4.647  13.290  12.889
 6528SOL     OW21422  10.193   1.169  12.596
 6528SOL    HW121423  10.176   1.179  12.502
 6528SOL    HW221424  10.111   1.136  12.632
 6529SOL     OW21425   4.331   6.046   3.215
 6529SOL    HW121426   4.419   6.043   3.254
 6529SOL    HW221427   4.288   5.967   3.247
 6530SOL     OW21428   1.015   7.717  14.741
 6530SOL    HW121429   1.022   7.714  14.836
 6530SOL    HW221430   0.988   7.629  14.716
 6531SOL     OW21431  13.206  12.598   5.138
 6531SOL    HW121432  13.230  12.613   5.230
 6531SOL    HW221433  13.285  12.619   5.089
 6532SOL     OW21434   2.793   7.761  13.327
 6532SOL    HW121435   2.714   7.751  13.381
 6532SOL    HW221436   2.830   7.844  13.355
 6533SOL     OW21437  13.243  13.579  13.650
 6533SOL    HW121438  13.323  13.628  13.669
 6533SOL    HW221439  13.195  13.580  13.733
 6534SOL     OW21440   5.578   4.607   0.238
 6534SOL    HW121441   5.611   4.691   0.207
 6534SOL    HW221442   5.612   4.600   0.328
 6535SOL     OW21443  11.697  13.704   5.547
 6535SOL    HW121444  11.749  13.717   5.626
 6535SOL    HW221445  11.654  13.620   5.560
 6536SOL     OW21446   2.335   4.026  10.231
 6536SOL    HW121447   2.377   3.955  10.279
 6536SOL    HW221448   2.242   4.018  10.252
 6537SOL     OW21449   9.309   3.616  11.114
 6537SOL    HW121450   9.246   3.648  11.050
 6537SOL    HW221451   9.261   3.616  11.197
 6538SOL     OW21452   6.265   1.743   7.934
 6538SOL    HW121453   6.190   1.759   7.877
 6538SOL    HW221454   6.229   1.695   8.009
 6539SOL     OW21455   1.017   8.291   6.204
 6539SOL    HW121456   0.936   8.340   6.186
 6539SOL    HW221457   1.082   8.331   6.147
 6540SOL     OW21458  10.901  14.618  14.373
 6540SOL    HW121459  10.852  14.677  14.316
 6540SOL    HW221460  10.892  14.656  14.460
 6541SOL     OW21461   7.747   5.744   1.695
 6541SOL    HW121462   7.680   5.812   1.708
 6541SOL    HW221463   7.825   5.792   1.669
 6542SOL     OW21464   1.825   5.466  11.157
 6542SOL    HW121465   1.854   5.379  11.130
 6542SOL    HW221466   1.875   5.526  11.102
 6543SOL     OW21467   2.547   9.922  14.214
 6543SOL    HW121468   2.603   9.921  14.137
 6543SOL    HW221469   2.484   9.991  14.198
 6544SOL     OW21470   3.723   8.349   3.649
 6544SOL    HW121471   3.810   8.388   3.645
 6544SOL    HW221472   3.736   8.265   3.693
 6545SOL     OW21473   7.339   6.472   5.911
 6545SOL    HW121474   7.398   6.441   5.843
 6545SOL    HW221475   7.391   6.473   5.991
 6546SOL     OW21476   1.072   2.117   3.542
 6546SOL    HW121477   1.033   2.075   3.619
 6546SOL    HW221478   1.166   2.118   3.561
 6547SOL     OW21479   6.004   1.276   6.413
 6547SOL    HW121480   6.042   1.357   6.448
 6547SOL    HW221481   5.916   1.273   6.451
 6548SOL     OW21482   9.559  10.571   4.421
 6548SOL    HW121483   9.536  10.509   4.351
 6548SOL    HW221484   9.477  10.614   4.443
 6549SOL     OW21485   7.291  10.174   3.933
 6549SOL    HW121486   7.241  10.132   4.002
 6549SOL    HW221487   7.259  10.133   3.852
 6550SOL     OW21488   4.154   7.727  12.506
 6550SOL    HW121489   4.222   7.795  12.506
 6550SOL    HW221490   4.102   7.745  12.428
 6551SOL     OW21491  12.866  10.966   5.742
 6551SOL    HW121492  12.905  11.009   5.818
 6551SOL    HW221493  12.896  10.876   5.747
 6552SOL     OW21494   2.349   6.583   9.173
 6552SOL    HW121495   2.323   6.548   9.087
 6552SOL    HW221496   2.269   6.578   9.225
 6553SOL     OW21497  13.915   3.801   2.874
 6553SOL    HW121498  13.829   3.773   2.905
 6553SOL    HW221499  13.928   3.887   2.914
 6554SOL     OW21500   3.281  10.402  12.509
 6554SOL    HW121501   3.272  10.326  12.451
 6554SOL    HW221502   3.252  10.370  12.594
 6555SOL     OW21503   0.191  13.623  12.318
 6555SOL    HW121504   0.252  13.695  12.324
 6555SOL    HW221505   0.161  13.608  12.408
 6556SOL     OW21506   4.616  10.206  10.744
 6556SOL    HW121507   4.697  10.252  10.723
 6556SOL    HW221508   4.549  10.275  10.744
 6557SOL     OW21509   2.039  10.009  14.418
 6557SOL    HW121510   2.096  10.053  14.481
 6557SOL    HW221511   2.064   9.917  14.424
 6558SOL     OW21512  10.777  14.610   8.401
 6558SOL    HW121513  10.716  14.570   8.463
 6558SOL    HW221514  10.825  14.536   8.364
 6559SOL     OW21515   3.468   7.542  12.466
 6559SOL    HW121516   3.522   7.481  12.516
 6559SOL    HW221517   3.513   7.626  12.475
 6560SOL     OW21518   6.437  11.975  13.631
 6560SOL    HW121519   6.358  12.015  13.594
 6560SOL    HW221520   6.407  11.934  13.712
 6561SOL     OW21521  14.300  13.075  14.326
 6561SOL    HW121522  14.367  13.086  14.393
 6561SOL    HW221523  14.226  13.035  14.373
 6562SOL     OW21524   4.454  14.036   0.020
 6562SOL    HW121525   4.528  14.090  14.870
 6562SOL    HW221526   4.488  13.947   0.022
 6563SOL     OW21527   2.343  14.161   7.998
 6563SOL    HW121528   2.329  14.110   7.919
 6563SOL    HW221529   2.366  14.249   7.966
 6564SOL     OW21530  13.042   4.587   6.954
 6564SOL    HW121531  13.110   4.652   6.970
 6564SOL    HW221532  13.063   4.551   6.868
 6565SOL     OW21533   7.120   7.676  13.404
 6565SOL    HW121534   7.110   7.618  13.480
 6565SOL    HW221535   7.123   7.617  13.329
 6566SOL     OW21536   8.556  12.989   0.299
 6566SOL    HW121537   8.501  12.916   0.326
 6566SOL    HW221538   8.513  13.024   0.221
 6567SOL     OW21539   2.782   3.658  14.680
 6567SOL    HW121540   2.869   3.669  14.643
 6567SOL    HW221541   2.767   3.739  14.730
 6568SOL     OW21542   4.334   4.996   2.005
 6568SOL    HW121543   4.289   4.914   2.026
 6568SOL    HW221544   4.425   4.981   2.029
 6569SOL     OW21545   6.027   7.771  10.342
 6569SOL    HW121546   5.951   7.821  10.314
 6569SOL    HW221547   6.083   7.834  10.387
 6570SOL     OW21548   0.959   0.357   2.531
 6570SOL    HW121549   1.029   0.348   2.466
 6570SOL    HW221550   1.002   0.347   2.615
 6571SOL     OW21551  13.136   5.395  12.425
 6571SOL    HW121552  13.165   5.307  12.403
 6571SOL    HW221553  13.153   5.447  12.346
 6572SOL     OW21554   7.195   5.037  13.348
 6572SOL    HW121555   7.113   4.988  13.341
 6572SOL    HW221556   7.237   5.003  13.427
 6573SOL     OW21557  10.272   3.764   2.150
 6573SOL    HW121558  10.282   3.695   2.216
 6573SOL    HW221559  10.251   3.717   2.069
 6574SOL     OW21560   9.014   8.427   9.175
 6574SOL    HW121561   9.021   8.428   9.270
 6574SOL    HW221562   9.052   8.343   9.149
 6575SOL     OW21563   2.605  10.318   4.375
 6575SOL    HW121564   2.622  10.224   4.385
 6575SOL    HW221565   2.667  10.360   4.434
 6576SOL     OW21566   7.174  11.917   4.647
 6576SOL    HW121567   7.261  11.885   4.671
 6576SOL    HW221568   7.186  11.958   4.561
 6577SOL     OW21569   5.306  11.803  13.390
 6577SOL    HW121570   5.326  11.878  13.446
 6577SOL    HW221571   5.277  11.735  13.450
 6578SOL     OW21572  14.103   6.411   6.178
 6578SOL    HW121573  14.045   6.407   6.254
 6578SOL    HW221574  14.183   6.368   6.207
 6579SOL     OW21575   5.196   6.491   9.150
 6579SOL    HW121576   5.211   6.459   9.239
 6579SOL    HW221577   5.204   6.587   9.158
 6580SOL     OW21578   0.193   1.856  11.745
 6580SOL    HW121579   0.256   1.928  11.754
 6580SOL    HW221580   0.206   1.803  11.824
 6581SOL     OW21581  11.867   3.430   9.328
 6581SOL    HW121582  11.937   3.368   9.351
 6581SOL    HW221583  11.912   3.515   9.323
 6582SOL     OW21584   1.488   8.662   3.515
 6582SOL    HW121585   1.492   8.739   3.572
 6582SOL    HW221586   1.409   8.616   3.544
 6583SOL     OW21587   0.259   4.526  13.749
 6583SOL    HW121588   0.199   4.583  13.701
 6583SOL    HW221589   0.319   4.492  13.682
 6584SOL     OW21590   0.644   5.009  12.998
 6584SOL    HW121591   0.605   5.020  13.085
 6584SOL    HW221592   0.594   5.068  12.941
 6585SOL     OW21593  13.504   8.651   9.508
 6585SOL    HW121594  13.491   8.557   9.521
 6585SOL    HW221595  13.434   8.692   9.558
 6586SOL     OW21596   6.995   8.028   4.513
 6586SOL    HW121597   6.946   7.948   4.533
 6586SOL    HW221598   6.928   8.096   4.507
 6587SOL     OW21599   5.074   6.112   4.588
 6587SOL    HW121600   5.155   6.078   4.625
 6587SOL    HW221601   5.005   6.065   4.634
 6588SOL     OW21602   7.848   5.300   6.617
 6588SOL    HW121603   7.914   5.360   6.651
 6588SOL    HW221604   7.890   5.214   6.619
 6589SOL     OW21605  11.546   0.702  11.587
 6589SOL    HW121606  11.475   0.672  11.644
 6589SOL    HW221607  11.591   0.769  11.638
 6590SOL     OW21608  13.607   7.588   1.442
 6590SOL    HW121609  13.571   7.526   1.507
 6590SOL    HW221610  13.557   7.668   1.456
 6591SOL     OW21611  11.075   5.459  14.344
 6591SOL    HW121612  11.078   5.363  14.348
 6591SOL    HW221613  11.004   5.483  14.404
 6592SOL     OW21614   4.856   2.495  14.778
 6592SOL    HW121615   4.888   2.525  14.863
 6592SOL    HW221616   4.916   2.425  14.753
 6593SOL     OW21617   5.978   8.951  12.067
 6593SOL    HW121618   5.948   8.902  11.990
 6593SOL    HW221619   6.070   8.928  12.075
 6594SOL     OW21620   6.328   5.865   0.899
 6594SOL    HW121621   6.358   5.874   0.990
 6594SOL    HW221622   6.397   5.814   0.856
 6595SOL     OW21623   3.429  10.754   0.965
 6595SOL    HW121624   3.500  10.809   0.933
 6595SOL    HW221625   3.367  10.751   0.892
 6596SOL     OW21626  14.146   7.636   7.169
 6596SOL    HW121627  14.209   7.580   7.215
 6596SOL    HW221628  14.166   7.724   7.201
 6597SOL     OW21629  12.974   7.927   6.339
 6597SOL    HW121630  12.898   7.943   6.395
 6597SOL    HW221631  13.004   7.840   6.365
 6598SOL     OW21632   5.846   3.659  10.411
 6598SOL    HW121633   5.846   3.624  10.500
 6598SOL    HW221634   5.788   3.600  10.362
 6599SOL     OW21635  10.171  14.606   7.072
 6599SOL    HW121636  10.082  14.571   7.075
 6599SOL    HW221637  10.218  14.560   7.141
 6600SOL     OW21638   9.994   0.358   9.683
 6600SOL    HW121639   9.945   0.416   9.624
 6600SOL    HW221640   9.978   0.270   9.650
 6601SOL     OW21641  10.615   2.553  11.343
 6601SOL    HW121642  10.592   2.619  11.409
 6601SOL    HW221643  10.559   2.478  11.363
 6602SOL     OW21644   2.213  13.688   1.694
 6602SOL    HW121645   2.204  13.684   1.599
 6602SOL    HW221646   2.306  13.672   1.711
 6603SOL     OW21647   0.493   3.415   0.060
 6603SOL    HW121648   0.520   3.341   0.114
 6603SOL    HW221649   0.452   3.476   0.121
 6604SOL     OW21650   8.998   0.285   5.458
 6604SOL    HW121651   8.934   0.246   5.518
 6604SOL    HW221652   8.962   0.269   5.371
 6605SOL     OW21653  11.570   6.232  10.814
 6605SOL    HW121654  11.506   6.176  10.858
 6605SOL    HW221655  11.531   6.252  10.729
 6606SOL     OW21656   5.994  11.785  13.466
 6606SOL    HW121657   5.963  11.826  13.547
 6606SOL    HW221658   6.050  11.713  13.496
 6607SOL     OW21659   9.911  12.344  12.377
 6607SOL    HW121660   9.999  12.352  12.414
 6607SOL    HW221661   9.891  12.250  12.382
 6608SOL     OW21662  12.404  10.547   9.452
 6608SOL    HW121663  12.471  10.558   9.519
 6608SOL    HW221664  12.356  10.469   9.480
 6609SOL     OW21665  13.623   2.456  10.611
 6609SOL    HW121666  13.583   2.376  10.575
 6609SOL    HW221667  13.616   2.446  10.706
 6610SOL     OW21668   8.198  10.589   2.698
 6610SOL    HW121669   8.193  10.585   2.793
 6610SOL    HW221670   8.180  10.681   2.676
 6611SOL     OW21671  12.447   3.476   4.568
 6611SOL    HW121672  12.409   3.389   4.561
 6611SOL    HW221673  12.446   3.495   4.662
 6612SOL     OW21674  12.858   4.316   6.448
 6612SOL    HW121675  12.766   4.303   6.470
 6612SOL    HW221676  12.904   4.299   6.530
 6613SOL     OW21677   2.093   3.955  14.458
 6613SOL    HW121678   2.169   3.905  14.428
 6613SOL    HW221679   2.042   3.971  14.379
 6614SOL     OW21680   1.485   6.413  13.356
 6614SOL    HW121681   1.465   6.424  13.449
 6614SOL    HW221682   1.512   6.500  13.326
 6615SOL     OW21683  12.784   7.066   8.525
 6615SOL    HW121684  12.690   7.050   8.524
 6615SOL    HW221685  12.824   6.980   8.539
 6616SOL     OW21686   2.322   7.555   1.193
 6616SOL    HW121687   2.320   7.469   1.235
 6616SOL    HW221688   2.231   7.571   1.167
 6617SOL     OW21689   6.671   1.991   3.191
 6617SOL    HW121690   6.652   1.918   3.132
 6617SOL    HW221691   6.613   2.061   3.163
 6618SOL     OW21692   5.344   2.872   7.952
 6618SOL    HW121693   5.315   2.786   7.920
 6618SOL    HW221694   5.263   2.914   7.981
 6619SOL     OW21695   7.947   4.289   9.297
 6619SOL    HW121696   7.974   4.379   9.315
 6619SOL    HW221697   7.953   4.245   9.382
 6620SOL     OW21698   6.215  13.276   5.254
 6620SOL    HW121699   6.148  13.257   5.320
 6620SOL    HW221700   6.211  13.203   5.193
 6621SOL     OW21701   9.335  10.674   8.724
 6621SOL    HW121702   9.311  10.715   8.641
 6621SOL    HW221703   9.255  10.678   8.777
 6622SOL     OW21704   3.142   0.740  13.205
 6622SOL    HW121705   3.097   0.756  13.288
 6622SOL    HW221706   3.159   0.645  13.205
 6623SOL     OW21707  11.864   5.135   4.940
 6623SOL    HW121708  11.838   5.107   4.852
 6623SOL    HW221709  11.794   5.101   4.997
 6624SOL     OW21710   3.191  10.400  10.235
 6624SOL    HW121711   3.195  10.494  10.256
 6624SOL    HW221712   3.202  10.357  10.320
 6625SOL     OW21713   7.505   7.723   1.966
 6625SOL    HW121714   7.434   7.687   1.914
 6625SOL    HW221715   7.517   7.812   1.932
 6626SOL     OW21716   7.612   5.938   7.148
 6626SOL    HW121717   7.591   5.850   7.179
 6626SOL    HW221718   7.561   5.997   7.204
 6627SOL     OW21719   3.573   2.470   1.352
 6627SOL    HW121720   3.536   2.382   1.347
 6627SOL    HW221721   3.572   2.501   1.262
 6628SOL     OW21722   9.899   8.449  10.122
 6628SOL    HW121723   9.829   8.511  10.100
 6628SOL    HW221724   9.893   8.382  10.054
 6629SOL     OW21725   7.844   4.991  12.384
 6629SOL    HW121726   7.867   4.902  12.412
 6629SOL    HW221727   7.878   5.048  12.452
 6630SOL     OW21728   2.326   5.975   5.522
 6630SOL    HW121729   2.399   5.926   5.560
 6630SOL    HW221730   2.273   6.001   5.597
 6631SOL     OW21731   5.068   3.158   5.297
 6631SOL    HW121732   5.063   3.088   5.233
 6631SOL    HW221733   5.159   3.188   5.293
 6632SOL     OW21734   0.784  13.335   6.002
 6632SOL    HW121735   0.814  13.425   6.013
 6632SOL    HW221736   0.696  13.344   5.965
 6633SOL     OW21737   0.796   7.561   0.217
 6633SOL    HW121738   0.741   7.526   0.287
 6633SOL    HW221739   0.740   7.559   0.139
 6634SOL     OW21740  14.634   5.531  10.925
 6634SOL    HW121741  14.605   5.545  11.015
 6634SOL    HW221742  14.555   5.542  10.872
 6635SOL     OW21743   0.127  13.214  13.410
 6635SOL    HW121744   0.096  13.206  13.320
 6635SOL    HW221745   0.073  13.153  13.460
 6636SOL     OW21746   8.960  14.365   7.065
 6636SOL    HW121747   8.966  14.444   7.119
 6636SOL    HW221748   8.879  14.376   7.016
 6637SOL     OW21749  13.331   6.008  13.096
 6637SOL    HW121750  13.418   5.991  13.058
 6637SOL    HW221751  13.297   5.921  13.116
 6638SOL     OW21752   9.210  14.309   6.098
 6638SOL    HW121753   9.153  14.233   6.089
 6638SOL    HW221754   9.150  14.384   6.095
 6639SOL     OW21755   4.253  13.945  12.344
 6639SOL    HW121756   4.269  13.968  12.436
 6639SOL    HW221757   4.268  14.026  12.296
 6640SOL     OW21758  10.502  14.051   8.113
 6640SOL    HW121759  10.581  14.089   8.074
 6640SOL    HW221760  10.430  14.088   8.062
 6641SOL     OW21761   4.911  12.870   9.222
 6641SOL    HW121762   4.919  12.866   9.126
 6641SOL    HW221763   4.897  12.963   9.240
 6642SOL     OW21764   0.346  11.656  11.310
 6642SOL    HW121765   0.272  11.598  11.325
 6642SOL    HW221766   0.342  11.677  11.216
 6643SOL     OW21767   7.084   4.293  14.339
 6643SOL    HW121768   6.996   4.317  14.309
 6643SOL    HW221769   7.083   4.313  14.433
 6644SOL     OW21770   6.657   4.352  12.767
 6644SOL    HW121771   6.734   4.364  12.823
 6644SOL    HW221772   6.688   4.374  12.679
 6645SOL     OW21773   4.503  11.385   1.778
 6645SOL    HW121774   4.534  11.462   1.825
 6645SOL    HW221775   4.564  11.315   1.803
 6646SOL     OW21776   7.547   5.002   2.733
 6646SOL    HW121777   7.580   5.070   2.674
 6646SOL    HW221778   7.600   4.925   2.713
 6647SOL     OW21779   8.767  10.240  14.588
 6647SOL    HW121780   8.810  10.155  14.578
 6647SOL    HW221781   8.758  10.252  14.683
 6648SOL     OW21782  10.914   6.026  12.494
 6648SOL    HW121783  10.857   5.993  12.424
 6648SOL    HW221784  10.996   6.048  12.450
 6649SOL     OW21785  12.199  13.292   5.504
 6649SOL    HW121786  12.276  13.280   5.560
 6649SOL    HW221787  12.232  13.337   5.427
 6650SOL     OW21788   0.874  13.186   7.854
 6650SOL    HW121789   0.840  13.262   7.902
 6650SOL    HW221790   0.945  13.221   7.800
 6651SOL     OW21791   8.848  12.328   6.530
 6651SOL    HW121792   8.795  12.322   6.451
 6651SOL    HW221793   8.823  12.252   6.582
 6652SOL     OW21794  12.558  13.840   1.186
 6652SOL    HW121795  12.649  13.835   1.157
 6652SOL    HW221796  12.556  13.789   1.267
 6653SOL     OW21797   6.882   1.268  10.281
 6653SOL    HW121798   6.916   1.186  10.245
 6653SOL    HW221799   6.955   1.330  10.273
 6654SOL     OW21800   5.104   8.947  11.754
 6654SOL    HW121801   5.016   8.982  11.746
 6654SOL    HW221802   5.159   9.023  11.774
 6655SOL     OW21803   5.973  12.735   6.343
 6655SOL    HW121804   6.023  12.669   6.294
 6655SOL    HW221805   5.887  12.735   6.302
 6656SOL     OW21806   7.929   5.350  11.184
 6656SOL    HW121807   7.903   5.351  11.276
 6656SOL    HW221808   8.013   5.304  11.184
 6657SOL     OW21809   1.330   8.758  10.336
 6657SOL    HW121810   1.342   8.727  10.426
 6657SOL    HW221811   1.323   8.678  10.284
 6658SOL     OW21812  10.405  13.996   9.230
 6658SOL    HW121813  10.367  13.908   9.236
 6658SOL    HW221814  10.330  14.053   9.212
 6659SOL     OW21815   3.238   0.749  12.436
 6659SOL    HW121816   3.243   0.757  12.531
 6659SOL    HW221817   3.247   0.838  12.403
 6660SOL     OW21818  12.037   7.235  13.809
 6660SOL    HW121819  12.018   7.211  13.718
 6660SOL    HW221820  12.076   7.156  13.847
 6661SOL     OW21821  14.732  12.543  12.670
 6661SOL    HW121822  14.676  12.589  12.608
 6661SOL    HW221823  14.787  12.486  12.616
 6662SOL     OW21824   0.959   8.962   7.002
 6662SOL    HW121825   0.954   8.870   6.977
 6662SOL    HW221826   0.868   8.992   7.004
 6663SOL     OW21827   6.105   4.766  13.226
 6663SOL    HW121828   6.021   4.755  13.271
 6663SOL    HW221829   6.099   4.854  13.187
 6664SOL     OW21830   8.351  10.203   4.598
 6664SOL    HW121831   8.340  10.163   4.512
 6664SOL    HW221832   8.264  10.234   4.622
 6665SOL     OW21833   9.957  10.431   9.428
 6665SOL    HW121834   9.904  10.511   9.424
 6665SOL    HW221835   9.928  10.379   9.353
 6666SOL     OW21836  13.897   6.653   1.251
 6666SOL    HW121837  13.855   6.572   1.281
 6666SOL    HW221838  13.980   6.625   1.214
 6667SOL     OW21839  14.674   1.566   3.964
 6667SOL    HW121840  14.698   1.609   4.046
 6667SOL    HW221841  14.672   1.473   3.986
 6668SOL     OW21842   0.862  13.437   0.665
 6668SOL    HW121843   0.785  13.462   0.716
 6668SOL    HW221844   0.845  13.347   0.638
 6669SOL     OW21845   8.928  10.054   7.767
 6669SOL    HW121846   8.849  10.105   7.750
 6669SOL    HW221847   8.907  10.001   7.844
 6670SOL     OW21848   8.842   1.283   3.346
 6670SOL    HW121849   8.814   1.290   3.437
 6670SOL    HW221850   8.769   1.241   3.302
 6671SOL     OW21851  11.923   3.234   0.881
 6671SOL    HW121852  11.855   3.206   0.821
 6671SOL    HW221853  12.003   3.234   0.829
 6672SOL     OW21854   5.817   7.103   6.925
 6672SOL    HW121855   5.852   7.133   7.008
 6672SOL    HW221856   5.800   7.183   6.875
 6673SOL     OW21857   0.526   1.296   1.622
 6673SOL    HW121858   0.444   1.298   1.671
 6673SOL    HW221859   0.588   1.342   1.677
 6674SOL     OW21860   6.409   3.705   9.300
 6674SOL    HW121861   6.385   3.721   9.391
 6674SOL    HW221862   6.395   3.611   9.288
 6675SOL     OW21863   9.078   1.136   4.865
 6675SOL    HW121864   9.080   1.129   4.769
 6675SOL    HW221865   8.995   1.179   4.884
 6676SOL     OW21866  12.830  10.023   7.040
 6676SOL    HW121867  12.749   9.991   7.000
 6676SOL    HW221868  12.844   9.967   7.116
 6677SOL     OW21869   4.756   0.108   1.906
 6677SOL    HW121870   4.704   0.168   1.851
 6677SOL    HW221871   4.774   0.033   1.849
 6678SOL     OW21872   8.783   7.356   5.723
 6678SOL    HW121873   8.773   7.272   5.768
 6678SOL    HW221874   8.793   7.420   5.793
 6679SOL     OW21875  14.599   1.804  14.826
 6679SOL    HW121876  14.690   1.796  14.797
 6679SOL    HW221877  14.578   1.897  14.814
 6680SOL     OW21878   9.671   5.809   3.735
 6680SOL    HW121879   9.647   5.832   3.645
 6680SOL    HW221880   9.765   5.821   3.738
 6681SOL     OW21881   0.252   8.927  12.829
 6681SOL    HW121882   0.213   8.842  12.850
 6681SOL    HW221883   0.306   8.948  12.905
 6682SOL     OW21884   6.750   9.384  12.727
 6682SOL    HW121885   6.802   9.384  12.807
 6682SOL    HW221886   6.769   9.301  12.684
 6683SOL     OW21887   4.443   1.817   1.428
 6683SOL    HW121888   4.405   1.741   1.472
 6683SOL    HW221889   4.401   1.818   1.342
 6684SOL     OW21890   8.061  11.927  10.317
 6684SOL    HW121891   8.095  11.924  10.407
 6684SOL    HW221892   7.966  11.934  10.327
 6685SOL     OW21893   4.755  11.780  10.592
 6685SOL    HW121894   4.830  11.775  10.651
 6685SOL    HW221895   4.792  11.768  10.504
 6686SOL     OW21896  13.618   5.084  14.547
 6686SOL    HW121897  13.676   5.106  14.475
 6686SOL    HW221898  13.672   5.092  14.625
 6687SOL     OW21899  13.443   6.525   0.721
 6687SOL    HW121900  13.439   6.521   0.625
 6687SOL    HW221901  13.351   6.526   0.748
 6688SOL     OW21902  12.516   1.657   6.785
 6688SOL    HW121903  12.503   1.738   6.834
 6688SOL    HW221904  12.427   1.623   6.771
 6689SOL     OW21905   9.428  14.547   2.803
 6689SOL    HW121906   9.497  14.614   2.805
 6689SOL    HW221907   9.475  14.465   2.791
 6690SOL     OW21908  10.654   6.105  12.820
 6690SOL    HW121909  10.616   6.017  12.816
 6690SOL    HW221910  10.747   6.091  12.801
 6691SOL     OW21911   2.382   2.579  12.132
 6691SOL    HW121912   2.394   2.530  12.213
 6691SOL    HW221913   2.292   2.612  12.137
 6692SOL     OW21914   7.392   8.587   3.274
 6692SOL    HW121915   7.336   8.664   3.262
 6692SOL    HW221916   7.481   8.623   3.279
 6693SOL     OW21917   0.650   2.983  12.933
 6693SOL    HW121918   0.609   3.066  12.958
 6693SOL    HW221919   0.687   2.949  13.014
 6694SOL     OW21920  13.453  10.352   7.071
 6694SOL    HW121921  13.489  10.438   7.091
 6694SOL    HW221922  13.409  10.325   7.152
 6695SOL     OW21923   5.195   4.619   8.440
 6695SOL    HW121924   5.117   4.673   8.435
 6695SOL    HW221925   5.228   4.632   8.529
 6696SOL     OW21926   9.424   3.843   7.463
 6696SOL    HW121927   9.360   3.844   7.534
 6696SOL    HW221928   9.435   3.935   7.440
 6697SOL     OW21929   5.559  11.802   8.844
 6697SOL    HW121930   5.560  11.716   8.801
 6697SOL    HW221931   5.526  11.783   8.932
 6698SOL     OW21932   3.050   8.276   5.998
 6698SOL    HW121933   3.110   8.348   5.979
 6698SOL    HW221934   3.106   8.207   6.034
 6699SOL     OW21935   1.346   0.986   3.965
 6699SOL    HW121936   1.255   0.961   3.949
 6699SOL    HW221937   1.369   0.945   4.048
 6700SOL     OW21938   2.710  11.166  12.303
 6700SOL    HW121939   2.665  11.246  12.329
 6700SOL    HW221940   2.702  11.164  12.208
 6701SOL     OW21941   4.595   2.989  12.975
 6701SOL    HW121942   4.645   2.908  12.985
 6701SOL    HW221943   4.549   3.000  13.058
 6702SOL     OW21944  12.502   3.686   8.437
 6702SOL    HW121945  12.536   3.611   8.485
 6702SOL    HW221946  12.474   3.747   8.506
 6703SOL     OW21947  10.781   0.129   4.876
 6703SOL    HW121948  10.764   0.141   4.782
 6703SOL    HW221949  10.734   0.201   4.918
 6704SOL     OW21950   6.562   3.830   6.079
 6704SOL    HW121951   6.649   3.805   6.108
 6704SOL    HW221952   6.528   3.750   6.037
 6705SOL     OW21953  12.272   8.348   5.715
 6705SOL    HW121954  12.262   8.443   5.704
 6705SOL    HW221955  12.199   8.323   5.772
 6706SOL     OW21956  11.850  12.970   0.652
 6706SOL    HW121957  11.871  12.972   0.746
 6706SOL    HW221958  11.918  12.915   0.613
 6707SOL     OW21959   9.370   8.369   8.351
 6707SOL    HW121960   9.336   8.302   8.293
 6707SOL    HW221961   9.458   8.338   8.375
 6708SOL     OW21962   9.002  12.967   9.973
 6708SOL    HW121963   8.920  12.939   9.934
 6708SOL    HW221964   9.016  13.055   9.938
 6709SOL     OW21965  12.431   6.067   3.648
 6709SOL    HW121966  12.356   6.127   3.650
 6709SOL    HW221967  12.399   5.987   3.691
 6710SOL     OW21968   8.082   7.682  12.725
 6710SOL    HW121969   8.167   7.722  12.707
 6710SOL    HW221970   8.054   7.723  12.807
 6711SOL     OW21971   5.392   6.820   2.383
 6711SOL    HW121972   5.338   6.886   2.427
 6711SOL    HW221973   5.365   6.737   2.421
 6712SOL     OW21974  10.976  14.798  13.866
 6712SOL    HW121975  10.978  14.807  13.961
 6712SOL    HW221976  11.068  14.790  13.841
 6713SOL     OW21977   4.433   2.878   5.355
 6713SOL    HW121978   4.357   2.936   5.362
 6713SOL    HW221979   4.429   2.823   5.432
 6714SOL     OW21980   9.421   8.440   5.691
 6714SOL    HW121981   9.479   8.500   5.642
 6714SOL    HW221982   9.336   8.484   5.690
 6715SOL     OW21983  12.059   1.525   2.295
 6715SOL    HW121984  12.066   1.566   2.209
 6715SOL    HW221985  12.127   1.568   2.348
 6716SOL     OW21986   4.748   8.048   1.000
 6716SOL    HW121987   4.748   8.096   1.083
 6716SOL    HW221988   4.839   8.021   0.988
 6717SOL     OW21989  10.783   9.923  11.496
 6717SOL    HW121990  10.811   9.951  11.583
 6717SOL    HW221991  10.771  10.004  11.447
 6718SOL     OW21992   1.332   7.397   3.970
 6718SOL    HW121993   1.275   7.350   4.030
 6718SOL    HW221994   1.305   7.368   3.883
 6719SOL     OW21995  11.165   5.481   7.925
 6719SOL    HW121996  11.240   5.422   7.924
 6719SOL    HW221997  11.169   5.527   7.841
 6720SOL     OW21998  13.951   2.789   1.173
 6720SOL    HW121999  13.985   2.867   1.130
 6720SOL    HW222000  13.901   2.744   1.105
 6721SOL     OW22001   8.051   5.132   4.750
 6721SOL    HW122002   8.016   5.191   4.684
 6721SOL    HW222003   8.128   5.092   4.709
 6722SOL     OW22004  12.640   5.305   8.080
 6722SOL    HW122005  12.606   5.231   8.131
 6722SOL    HW222006  12.584   5.307   8.002
 6723SOL     OW22007  10.713   3.840  14.717
 6723SOL    HW122008  10.747   3.751  14.706
 6723SOL    HW222009  10.772   3.894  14.664
 6724SOL     OW22010   9.439   5.663   0.358
 6724SOL    HW122011   9.411   5.720   0.286
 6724SOL    HW222012   9.363   5.658   0.415
 6725SOL     OW22013  12.373   9.430  10.204
 6725SOL    HW122014  12.444   9.437  10.268
 6725SOL    HW222015  12.404   9.367  10.140
 6726SOL     OW22016   1.196  11.047  11.650
 6726SOL    HW122017   1.165  11.037  11.740
 6726SOL    HW222018   1.119  11.074  11.601
 6727SOL     OW22019  11.356   6.702   4.671
 6727SOL    HW122020  11.299   6.779   4.674
 6727SOL    HW222021  11.299   6.629   4.697
 6728SOL     OW22022  11.043  14.757  13.576
 6728SOL    HW122023  11.115  14.743  13.514
 6728SOL    HW222024  10.966  14.723  13.530
 6729SOL     OW22025   0.400   3.788   0.928
 6729SOL    HW122026   0.406   3.708   0.980
 6729SOL    HW222027   0.306   3.800   0.913
 6730SOL     OW22028  13.712   5.093   4.897
 6730SOL    HW122029  13.781   5.088   4.964
 6730SOL    HW222030  13.684   5.002   4.886
 6731SOL     OW22031   3.339   9.908   1.374
 6731SOL    HW122032   3.318   9.840   1.311
 6731SOL    HW222033   3.262   9.915   1.430
 6732SOL     OW22034   2.123   7.322   0.495
 6732SOL    HW122035   2.054   7.370   0.449
 6732SOL    HW222036   2.141   7.247   0.438
 6733SOL     OW22037   9.162  11.651   6.105
 6733SOL    HW122038   9.206  11.569   6.125
 6733SOL    HW222039   9.221  11.694   6.042
 6734SOL     OW22040   5.906  14.361   4.361
 6734SOL    HW122041   5.914  14.289   4.423
 6734SOL    HW222042   5.819  14.349   4.321
 6735SOL     OW22043   7.598   1.390   1.986
 6735SOL    HW122044   7.527   1.332   2.017
 6735SOL    HW222045   7.651   1.335   1.929
 6736SOL     OW22046   2.587   7.302   4.681
 6736SOL    HW122047   2.680   7.291   4.662
 6736SOL    HW222048   2.577   7.395   4.701
 6737SOL     OW22049   9.465   8.501   3.912
 6737SOL    HW122050   9.433   8.501   4.002
 6737SOL    HW222051   9.398   8.551   3.864
 6738SOL     OW22052   2.533  10.693   6.053
 6738SOL    HW122053   2.484  10.684   5.971
 6738SOL    HW222054   2.467  10.721   6.117
 6739SOL     OW22055   3.755  14.746   5.176
 6739SOL    HW122056   3.668  14.707   5.191
 6739SOL    HW222057   3.769  14.802   5.252
 6740SOL     OW22058  10.987   2.573  12.372
 6740SOL    HW122059  11.006   2.577  12.466
 6740SOL    HW222060  11.056   2.625  12.331
 6741SOL     OW22061   9.116   1.195   1.103
 6741SOL    HW122062   9.104   1.152   1.188
 6741SOL    HW222063   9.034   1.241   1.087
 6742SOL     OW22064   0.144   0.058  11.166
 6742SOL    HW122065   0.051   0.079  11.175
 6742SOL    HW222066   0.171   0.033  11.254
 6743SOL     OW22067   5.571  13.445  10.637
 6743SOL    HW122068   5.615  13.507  10.578
 6743SOL    HW222069   5.536  13.378  10.579
 6744SOL     OW22070  11.172  10.326  14.842
 6744SOL    HW122071  11.108  10.294  14.778
 6744SOL    HW222072  11.232  10.252  14.856
 6745SOL     OW22073   4.120  10.792   1.685
 6745SOL    HW122074   4.206  10.832   1.701
 6745SOL    HW222075   4.094  10.756   1.770
 6746SOL     OW22076  10.054  14.563   4.350
 6746SOL    HW122077   9.997  14.636   4.376
 6746SOL    HW222078  10.130  14.572   4.407
 6747SOL     OW22079  12.455   6.656  13.584
 6747SOL    HW122080  12.475   6.722  13.651
 6747SOL    HW222081  12.448   6.574  13.633
 6748SOL     OW22082  13.451   5.388   9.418
 6748SOL    HW122083  13.401   5.446   9.359
 6748SOL    HW222084  13.444   5.430   9.504
 6749SOL     OW22085   6.340   1.593  11.796
 6749SOL    HW122086   6.315   1.678  11.833
 6749SOL    HW222087   6.346   1.609  11.702
 6750SOL     OW22088   7.189  11.224   4.882
 6750SOL    HW122089   7.122  11.198   4.946
 6750SOL    HW222090   7.141  11.274   4.816
 6751SOL     OW22091  10.029  12.658   6.459
 6751SOL    HW122092  10.001  12.668   6.550
 6751SOL    HW222093  10.025  12.563   6.443
 6752SOL     OW22094  11.659   3.695   6.401
 6752SOL    HW122095  11.681   3.609   6.365
 6752SOL    HW222096  11.564   3.697   6.403
 6753SOL     OW22097  11.731   7.881   9.873
 6753SOL    HW122098  11.766   7.917   9.792
 6753SOL    HW222099  11.807   7.846   9.919
 6754SOL     OW22100  11.888  13.437   7.795
 6754SOL    HW122101  11.917  13.359   7.843
 6754SOL    HW222102  11.962  13.460   7.739
 6755SOL     OW22103   2.376  14.609   7.196
 6755SOL    HW122104   2.384  14.618   7.101
 6755SOL    HW222105   2.465  14.589   7.225
 6756SOL     OW22106   0.306   1.988   3.611
 6756SOL    HW122107   0.243   1.916   3.610
 6756SOL    HW222108   0.349   1.982   3.696
 6757SOL     OW22109   8.182  14.276   2.277
 6757SOL    HW122110   8.240  14.351   2.265
 6757SOL    HW222111   8.094  14.310   2.263
 6758SOL     OW22112  11.142   4.117   0.275
 6758SOL    HW122113  11.104   4.155   0.354
 6758SOL    HW222114  11.089   4.151   0.203
 6759SOL     OW22115   8.336   4.496   4.998
 6759SOL    HW122116   8.265   4.538   4.949
 6759SOL    HW222117   8.314   4.513   5.090
 6760SOL     OW22118   2.743   7.241   1.407
 6760SOL    HW122119   2.742   7.311   1.472
 6760SOL    HW222120   2.651   7.223   1.389
 6761SOL     OW22121   2.359   6.812  10.166
 6761SOL    HW122122   2.442   6.857  10.183
 6761SOL    HW222123   2.340   6.830  10.074
 6762SOL     OW22124   3.006   5.736  12.788
 6762SOL    HW122125   3.096   5.764  12.768
 6762SOL    HW222126   3.017   5.666  12.853
 6763SOL     OW22127   9.166   0.394   4.363
 6763SOL    HW122128   9.112   0.349   4.299
 6763SOL    HW222129   9.128   0.482   4.369
 6764SOL     OW22130  12.894   4.014   6.972
 6764SOL    HW122131  12.903   3.975   6.885
 6764SOL    HW222132  12.916   4.106   6.959
 6765SOL     OW22133   8.162   9.700   4.982
 6765SOL    HW122134   8.088   9.757   5.002
 6765SOL    HW222135   8.192   9.729   4.896
 6766SOL     OW22136   0.974  13.215  11.678
 6766SOL    HW122137   0.896  13.259  11.647
 6766SOL    HW222138   1.045  13.276  11.660
 6767SOL     OW22139   9.522  12.904  11.067
 6767SOL    HW122140   9.522  12.901  10.971
 6767SOL    HW222141   9.434  12.933  11.090
 6768SOL     OW22142  13.546   4.895   1.851
 6768SOL    HW122143  13.626   4.942   1.875
 6768SOL    HW222144  13.567   4.853   1.767
 6769SOL     OW22145   0.738   4.620   9.234
 6769SOL    HW122146   0.795   4.598   9.160
 6769SOL    HW222147   0.649   4.602   9.202
 6770SOL     OW22148   7.944   7.802   6.161
 6770SOL    HW122149   8.017   7.849   6.121
 6770SOL    HW222150   7.931   7.845   6.246
 6771SOL     OW22151  10.922   1.644   0.977
 6771SOL    HW122152  10.862   1.570   0.965
 6771SOL    HW222153  10.997   1.624   0.922
 6772SOL     OW22154   7.653  13.286   8.965
 6772SOL    HW122155   7.597  13.340   9.021
 6772SOL    HW222156   7.734  13.336   8.956
 6773SOL     OW22157   2.978   1.868   4.907
 6773SOL    HW122158   3.014   1.941   4.856
 6773SOL    HW222159   2.900   1.842   4.860
 6774SOL     OW22160  11.735   8.894  12.225
 6774SOL    HW122161  11.674   8.869  12.294
 6774SOL    HW222162  11.713   8.985  12.206
 6775SOL     OW22163   2.578   7.942  12.657
 6775SOL    HW122164   2.614   7.921  12.571
 6775SOL    HW222165   2.561   8.036  12.655
 6776SOL     OW22166   8.208  13.089   3.544
 6776SOL    HW122167   8.163  13.021   3.595
 6776SOL    HW222168   8.199  13.168   3.596
 6777SOL     OW22169   5.348   2.150  11.154
 6777SOL    HW122170   5.354   2.120  11.063
 6777SOL    HW222171   5.413   2.219  11.161
 6778SOL     OW22172   0.348  11.477   1.106
 6778SOL    HW122173   0.433  11.450   1.141
 6778SOL    HW222174   0.298  11.396   1.103
 6779SOL     OW22175  12.087   8.857   7.476
 6779SOL    HW122176  12.183   8.851   7.471
 6779SOL    HW222177  12.061   8.890   7.391
 6780SOL     OW22178  11.516   6.160  11.736
 6780SOL    HW122179  11.476   6.211  11.806
 6780SOL    HW222180  11.569   6.095  11.782
 6781SOL     OW22181   6.491   3.707   8.015
 6781SOL    HW122182   6.403   3.692   8.050
 6781SOL    HW222183   6.505   3.801   8.027
 6782SOL     OW22184   4.983  11.421   0.892
 6782SOL    HW122185   5.007  11.475   0.967
 6782SOL    HW222186   5.060  11.423   0.836
 6783SOL     OW22187  12.467   2.062  10.218
 6783SOL    HW122188  12.380   2.082  10.253
 6783SOL    HW222189  12.507   2.005  10.284
 6784SOL     OW22190   8.105   4.107   5.820
 6784SOL    HW122191   8.038   4.047   5.853
 6784SOL    HW222192   8.178   4.096   5.881
 6785SOL     OW22193   7.920  12.786   4.446
 6785SOL    HW122194   7.940  12.873   4.483
 6785SOL    HW222195   7.995  12.767   4.389
 6786SOL     OW22196   8.760   7.574   6.670
 6786SOL    HW122197   8.673   7.612   6.664
 6786SOL    HW222198   8.805   7.603   6.590
 6787SOL     OW22199   5.904  12.058  12.279
 6787SOL    HW122200   5.990  12.017  12.293
 6787SOL    HW222201   5.862  12.055  12.364
 6788SOL     OW22202   8.074   1.543   9.034
 6788SOL    HW122203   8.163   1.578   9.029
 6788SOL    HW222204   8.085   1.448   9.025
 6789SOL     OW22205   0.610   6.367  10.760
 6789SOL    HW122206   0.596   6.283  10.802
 6789SOL    HW222207   0.573   6.431  10.821
 6790SOL     OW22208   5.762  12.494   9.288
 6790SOL    HW122209   5.672  12.475   9.262
 6790SOL    HW222210   5.816  12.451   9.221
 6791SOL     OW22211   0.901  11.109  12.556
 6791SOL    HW122212   0.996  11.108  12.548
 6791SOL    HW222213   0.883  11.188  12.608
 6792SOL     OW22214   7.428   7.804   2.235
 6792SOL    HW122215   7.452   7.821   2.144
 6792SOL    HW222216   7.344   7.849   2.246
 6793SOL     OW22217  13.571   2.746  10.547
 6793SOL    HW122218  13.577   2.650  10.547
 6793SOL    HW222219  13.477   2.765  10.548
 6794SOL     OW22220  14.557  13.218  12.897
 6794SOL    HW122221  14.566  13.166  12.817
 6794SOL    HW222222  14.644  13.253  12.913
 6795SOL     OW22223   9.304   0.047   4.898
 6795SOL    HW122224   9.235   0.000   4.850
 6795SOL    HW222225   9.260   0.077   4.978
 6796SOL     OW22226   6.249   1.234  12.574
 6796SOL    HW122227   6.167   1.235  12.525
 6796SOL    HW222228   6.318   1.234  12.507
 6797SOL     OW22229   7.868   4.859  11.753
 6797SOL    HW122230   7.957   4.889  11.768
 6797SOL    HW222231   7.815   4.939  11.751
 6798SOL     OW22232   9.101  11.945   4.118
 6798SOL    HW122233   9.064  11.902   4.194
 6798SOL    HW222234   9.032  11.940   4.051
 6799SOL     OW22235   2.000  12.241   1.049
 6799SOL    HW122236   1.973  12.249   0.958
 6799SOL    HW222237   2.090  12.206   1.044
 6800SOL     OW22238  11.914   6.989  13.696
 6800SOL    HW122239  11.977   6.951  13.757
 6800SOL    HW222240  11.851   7.035  13.751
 6801SOL     OW22241   4.777   3.578  10.921
 6801SOL    HW122242   4.760   3.489  10.891
 6801SOL    HW222243   4.799   3.626  10.841
 6802SOL     OW22244   0.349   9.198   9.053
 6802SOL    HW122245   0.334   9.130   8.988
 6802SOL    HW222246   0.396   9.267   9.005
 6803SOL     OW22247   6.243   6.694   9.882
 6803SOL    HW122248   6.312   6.760   9.879
 6803SOL    HW222249   6.171   6.737   9.928
 6804SOL     OW22250   7.565   9.883   9.852
 6804SOL    HW122251   7.556   9.789   9.838
 6804SOL    HW222252   7.627   9.890   9.925
 6805SOL     OW22253   0.932   0.527   0.648
 6805SOL    HW122254   1.001   0.529   0.714
 6805SOL    HW222255   0.861   0.477   0.688
 6806SOL     OW22256  14.608  10.313   8.002
 6806SOL    HW122257  14.567  10.290   8.086
 6806SOL    HW222258  14.664  10.388   8.022
 6807SOL     OW22259   2.668  10.114  10.433
 6807SOL    HW122260   2.741  10.173  10.450
 6807SOL    HW222261   2.593  10.156  10.474
 6808SOL     OW22262   9.292  12.284   9.036
 6808SOL    HW122263   9.335  12.283   9.122
 6808SOL    HW222264   9.355  12.244   8.977
 6809SOL     OW22265   4.201   8.090   5.082
 6809SOL    HW122266   4.215   8.167   5.137
 6809SOL    HW222267   4.287   8.070   5.045
 6810SOL     OW22268   3.891   7.184  10.148
 6810SOL    HW122269   3.932   7.198  10.062
 6810SOL    HW222270   3.958   7.138  10.199
 6811SOL     OW22271   9.689   7.154   2.642
 6811SOL    HW122272   9.666   7.171   2.550
 6811SOL    HW222273   9.656   7.065   2.659
 6812SOL     OW22274  12.811  12.902  13.107
 6812SOL    HW122275  12.740  12.959  13.078
 6812SOL    HW222276  12.859  12.954  13.171
 6813SOL     OW22277  10.893  10.763   8.259
 6813SOL    HW122278  10.982  10.762   8.224
 6813SOL    HW222279  10.898  10.714   8.341
 6814SOL     OW22280   9.660   1.732   6.642
 6814SOL    HW122281   9.651   1.758   6.733
 6814SOL    HW222282   9.733   1.783   6.608
 6815SOL     OW22283   2.226   5.029  12.812
 6815SOL    HW122284   2.252   5.120  12.797
 6815SOL    HW222285   2.293   4.995  12.872
 6816SOL     OW22286  12.718   2.617   6.679
 6816SOL    HW122287  12.738   2.563   6.602
 6816SOL    HW222288  12.802   2.624   6.724
 6817SOL     OW22289   3.793   0.727  11.872
 6817SOL    HW122290   3.738   0.674  11.813
 6817SOL    HW222291   3.737   0.744  11.947
 6818SOL     OW22292  10.606   6.526   2.400
 6818SOL    HW122293  10.589   6.570   2.483
 6818SOL    HW222294  10.687   6.476   2.415
 6819SOL     OW22295   6.084  13.091  12.141
 6819SOL    HW122296   6.077  13.068  12.234
 6819SOL    HW222297   6.161  13.147  12.136
 6820SOL     OW22298   7.215   5.112   7.819
 6820SOL    HW122299   7.254   5.033   7.782
 6820SOL    HW222300   7.187   5.163   7.743
 6821SOL     OW22301   8.177   1.171   4.823
 6821SOL    HW122302   8.169   1.201   4.914
 6821SOL    HW222303   8.251   1.221   4.788
 6822SOL     OW22304   6.067  11.269  10.458
 6822SOL    HW122305   6.044  11.253  10.549
 6822SOL    HW222306   5.991  11.238  10.408
 6823SOL     OW22307   8.436   5.539  11.529
 6823SOL    HW122308   8.371   5.576  11.589
 6823SOL    HW222309   8.515   5.591  11.544
 6824SOL     OW22310  11.425  10.272   6.815
 6824SOL    HW122311  11.356  10.328   6.781
 6824SOL    HW222312  11.478  10.330   6.870
 6825SOL     OW22313   6.595   1.889   0.482
 6825SOL    HW122314   6.578   1.983   0.480
 6825SOL    HW222315   6.601   1.868   0.575
 6826SOL     OW22316  14.405   9.082   4.621
 6826SOL    HW122317  14.332   9.110   4.566
 6826SOL    HW222318  14.363   9.047   4.700
 6827SOL     OW22319  11.495  14.016  10.828
 6827SOL    HW122320  11.414  14.065  10.845
 6827SOL    HW222321  11.492  13.999  10.734
 6828SOL     OW22322  14.657  11.769   4.395
 6828SOL    HW122323  14.632  11.777   4.303
 6828SOL    HW222324  14.580  11.733   4.438
 6829SOL     OW22325  11.686  14.619  14.361
 6829SOL    HW122326  11.741  14.614  14.283
 6829SOL    HW222327  11.748  14.610  14.434
 6830SOL     OW22328   1.976   7.889   6.177
 6830SOL    HW122329   2.007   7.830   6.246
 6830SOL    HW222330   1.970   7.833   6.099
 6831SOL     OW22331   8.415   1.913   5.873
 6831SOL    HW122332   8.343   1.871   5.826
 6831SOL    HW222333   8.491   1.905   5.814
 6832SOL     OW22334   9.828   7.501  14.515
 6832SOL    HW122335   9.880   7.581  14.511
 6832SOL    HW222336   9.884   7.438  14.562
 6833SOL     OW22337   5.637   5.828   9.262
 6833SOL    HW122338   5.626   5.923   9.260
 6833SOL    HW222339   5.719   5.813   9.214
 6834SOL     OW22340  11.911   9.484  12.958
 6834SOL    HW122341  11.880   9.564  13.000
 6834SOL    HW222342  11.832   9.442  12.924
 6835SOL     OW22343   5.536   0.171   8.795
 6835SOL    HW122344   5.500   0.187   8.707
 6835SOL    HW222345   5.625   0.137   8.778
 6836SOL     OW22346  14.805   0.937   9.131
 6836SOL    HW122347  14.736   0.961   9.068
 6836SOL    HW222348  14.853   0.867   9.088
 6837SOL     OW22349   1.614   6.179  13.658
 6837SOL    HW122350   1.610   6.268  13.694
 6837SOL    HW222351   1.614   6.122  13.735
 6838SOL     OW22352  12.946   1.554   6.160
 6838SOL    HW122353  12.958   1.521   6.071
 6838SOL    HW222354  12.907   1.640   6.149
 6839SOL     OW22355   4.418  13.730  11.595
 6839SOL    HW122356   4.492  13.676  11.564
 6839SOL    HW222357   4.414  13.712  11.689
 6840SOL     OW22358   0.770   7.945   6.921
 6840SOL    HW122359   0.720   7.864   6.927
 6840SOL    HW222360   0.784   7.957   6.827
 6841SOL     OW22361   8.276   4.807  13.772
 6841SOL    HW122362   8.368   4.783  13.773
 6841SOL    HW222363   8.272   4.890  13.821
 6842SOL     OW22364   2.713  12.618  12.425
 6842SOL    HW122365   2.756  12.683  12.369
 6842SOL    HW222366   2.784  12.579  12.475
 6843SOL     OW22367   0.835  13.967   9.536
 6843SOL    HW122368   0.833  14.039   9.473
 6843SOL    HW222369   0.750  13.924   9.526
 6844SOL     OW22370  12.760  13.033  14.737
 6844SOL    HW122371  12.770  13.057  14.645
 6844SOL    HW222372  12.838  13.068  14.780
 6845SOL     OW22373   6.270  14.157   7.201
 6845SOL    HW122374   6.294  14.180   7.291
 6845SOL    HW222375   6.195  14.213   7.181
 6846SOL     OW22376   4.046   8.903   9.121
 6846SOL    HW122377   4.059   8.996   9.103
 6846SOL    HW222378   4.059   8.895   9.216
 6847SOL     OW22379   6.926  12.489   4.684
 6847SOL    HW122380   6.967  12.558   4.737
 6847SOL    HW222381   6.834  12.491   4.711
 6848SOL     OW22382  10.767   9.346   7.704
 6848SOL    HW122383  10.830   9.310   7.766
 6848SOL    HW222384  10.819   9.403   7.648
 6849SOL     OW22385  10.494   1.159   9.247
 6849SOL    HW122386  10.510   1.069   9.217
 6849SOL    HW222387  10.565   1.210   9.208
 6850SOL     OW22388   3.256   0.134  10.858
 6850SOL    HW122389   3.203   0.112  10.781
 6850SOL    HW222390   3.225   0.221  10.883
 6851SOL     OW22391  10.581   7.906  12.829
 6851SOL    HW122392  10.513   7.970  12.848
 6851SOL    HW222393  10.663   7.950  12.852
 6852SOL     OW22394  12.017   3.255   9.446
 6852SOL    HW122395  12.112   3.262   9.442
 6852SOL    HW222396  11.999   3.163   9.462
 6853SOL     OW22397  13.595   9.055   9.343
 6853SOL    HW122398  13.660   9.109   9.386
 6853SOL    HW222399  13.513   9.074   9.389
 6854SOL     OW22400  13.803  11.007   9.087
 6854SOL    HW122401  13.790  11.088   9.136
 6854SOL    HW222402  13.721  10.959   9.099
 6855SOL     OW22403   6.163   8.332   9.422
 6855SOL    HW122404   6.144   8.254   9.474
 6855SOL    HW222405   6.144   8.405   9.480
 6856SOL     OW22406   5.722   3.418   0.818
 6856SOL    HW122407   5.776   3.492   0.793
 6856SOL    HW222408   5.632   3.451   0.815
 6857SOL     OW22409   8.340   7.069   4.181
 6857SOL    HW122410   8.359   7.144   4.237
 6857SOL    HW222411   8.362   7.099   4.093
 6858SOL     OW22412   7.448   1.992  10.062
 6858SOL    HW122413   7.512   2.003   9.991
 6858SOL    HW222414   7.410   1.906  10.048
 6859SOL     OW22415   2.393   6.487  10.333
 6859SOL    HW122416   2.446   6.447  10.265
 6859SOL    HW222417   2.363   6.570  10.295
 6860SOL     OW22418  10.204  12.749  14.462
 6860SOL    HW122419  10.126  12.800  14.484
 6860SOL    HW222420  10.215  12.763  14.368
 6861SOL     OW22421  13.518   7.631   3.388
 6861SOL    HW122422  13.524   7.548   3.436
 6861SOL    HW222423  13.585   7.686   3.427
 6862SOL     OW22424   2.275   6.042   1.528
 6862SOL    HW122425   2.291   6.120   1.581
 6862SOL    HW222426   2.340   5.979   1.558
 6863SOL     OW22427   7.975   9.082   1.460
 6863SOL    HW122428   8.056   9.087   1.409
 6863SOL    HW222429   7.997   9.023   1.533
 6864SOL     OW22430   0.189   1.453  13.492
 6864SOL    HW122431   0.170   1.486  13.580
 6864SOL    HW222432   0.102   1.435  13.455
 6865SOL     OW22433   9.494   8.794   5.127
 6865SOL    HW122434   9.541   8.864   5.171
 6865SOL    HW222435   9.500   8.814   5.034
 6866SOL     OW22436   7.836   7.085   4.405
 6866SOL    HW122437   7.867   7.175   4.399
 6866SOL    HW222438   7.914   7.034   4.427
 6867SOL     OW22439  12.682  14.841   0.099
 6867SOL    HW122440  12.740  14.776   0.059
 6867SOL    HW222441  12.709   0.045   0.061
 6868SOL     OW22442   8.129  13.756  14.004
 6868SOL    HW122443   8.112  13.676  13.955
 6868SOL    HW222444   8.222  13.754  14.023
 6869SOL     OW22445   6.715  12.427   8.926
 6869SOL    HW122446   6.744  12.510   8.889
 6869SOL    HW222447   6.760  12.421   9.011
 6870SOL     OW22448  12.315  10.175  12.393
 6870SOL    HW122449  12.289  10.263  12.420
 6870SOL    HW222450  12.397  10.187  12.345
 6871SOL     OW22451   9.831   3.537   0.398
 6871SOL    HW122452   9.914   3.570   0.362
 6871SOL    HW222453   9.808   3.599   0.467
 6872SOL     OW22454  11.304  10.943  13.512
 6872SOL    HW122455  11.328  10.862  13.467
 6872SOL    HW222456  11.341  11.012  13.457
 6873SOL     OW22457   9.500   1.190   3.421
 6873SOL    HW122458   9.448   1.258   3.463
 6873SOL    HW222459   9.561   1.162   3.490
 6874SOL     OW22460   5.664  14.207   1.982
 6874SOL    HW122461   5.693  14.294   2.011
 6874SOL    HW222462   5.599  14.180   2.048
 6875SOL     OW22463   9.069  10.038   8.953
 6875SOL    HW122464   9.045  10.130   8.948
 6875SOL    HW222465   9.137  10.034   9.019
 6876SOL     OW22466  13.239   7.490  11.807
 6876SOL    HW122467  13.203   7.454  11.888
 6876SOL    HW222468  13.184   7.455  11.737
 6877SOL     OW22469   7.705   6.516  11.170
 6877SOL    HW122470   7.614   6.538  11.190
 6877SOL    HW222471   7.698   6.452  11.099
 6878SOL     OW22472  10.037  14.600   4.033
 6878SOL    HW122473  10.118  14.647   4.051
 6878SOL    HW222474   9.990  14.600   4.117
 6879SOL     OW22475   7.190   2.527   8.053
 6879SOL    HW122476   7.267   2.549   8.106
 6879SOL    HW222477   7.161   2.442   8.087
 6880SOL     OW22478  10.004  13.908  11.935
 6880SOL    HW122479   9.968  13.963  11.865
 6880SOL    HW222480   9.931  13.851  11.960
 6881SOL     OW22481   6.826  14.724  12.951
 6881SOL    HW122482   6.837  14.813  12.985
 6881SOL    HW222483   6.911  14.702  12.913
 6882SOL     OW22484  11.164   3.797   0.892
 6882SOL    HW122485  11.146   3.785   0.799
 6882SOL    HW222486  11.081   3.830   0.928
 6883SOL     OW22487   6.844   1.305   5.836
 6883SOL    HW122488   6.935   1.312   5.805
 6883SOL    HW222489   6.792   1.300   5.755
 6884SOL     OW22490  13.448   8.428   9.090
 6884SOL    HW122491  13.428   8.440   8.996
 6884SOL    HW222492  13.450   8.517   9.125
 6885SOL     OW22493   0.127   0.396   6.286
 6885SOL    HW122494   0.202   0.433   6.332
 6885SOL    HW222495   0.064   0.377   6.355
 6886SOL     OW22496  14.317   0.410   1.238
 6886SOL    HW122497  14.308   0.343   1.170
 6886SOL    HW222498  14.267   0.485   1.205
 6887SOL     OW22499   9.181   2.140  14.378
 6887SOL    HW122500   9.158   2.230  14.403
 6887SOL    HW222501   9.255   2.117  14.434
 6888SOL     OW22502  10.342   5.236  11.894
 6888SOL    HW122503  10.414   5.281  11.938
 6888SOL    HW222504  10.311   5.299  11.829
 6889SOL     OW22505  13.791   6.192   9.108
 6889SOL    HW122506  13.797   6.280   9.147
 6889SOL    HW222507  13.876   6.152   9.127
 6890SOL     OW22508  10.596   0.499   1.221
 6890SOL    HW122509  10.625   0.530   1.306
 6890SOL    HW222510  10.501   0.493   1.228
 6891SOL     OW22511   3.966   6.560  13.566
 6891SOL    HW122512   3.963   6.636  13.508
 6891SOL    HW222513   3.996   6.595  13.650
 6892SOL     OW22514   6.737   2.158   7.493
 6892SOL    HW122515   6.832   2.143   7.493
 6892SOL    HW222516   6.710   2.141   7.403
 6893SOL     OW22517  12.627  10.535  13.394
 6893SOL    HW122518  12.634  10.594  13.469
 6893SOL    HW222519  12.649  10.449  13.430
 6894SOL     OW22520  13.452  11.515  13.728
 6894SOL    HW122521  13.478  11.593  13.679
 6894SOL    HW222522  13.521  11.503  13.793
 6895SOL     OW22523   8.801   6.281   0.498
 6895SOL    HW122524   8.720   6.294   0.548
 6895SOL    HW222525   8.789   6.197   0.453
 6896SOL     OW22526   0.160   4.908   2.158
 6896SOL    HW122527   0.200   4.953   2.084
 6896SOL    HW222528   0.067   4.931   2.153
 6897SOL     OW22529  12.179   5.454  12.532
 6897SOL    HW122530  12.190   5.469  12.438
 6897SOL    HW222531  12.084   5.461  12.547
 6898SOL     OW22532   9.464   4.534  12.346
 6898SOL    HW122533   9.404   4.511  12.275
 6898SOL    HW222534   9.414   4.513  12.426
 6899SOL     OW22535   1.418   6.383  12.717
 6899SOL    HW122536   1.484   6.451  12.734
 6899SOL    HW222537   1.436   6.315  12.781
 6900SOL     OW22538  10.527   8.053   2.204
 6900SOL    HW122539  10.534   8.145   2.229
 6900SOL    HW222540  10.459   8.018   2.262
 6901SOL     OW22541   3.583   0.565  10.263
 6901SOL    HW122542   3.662   0.516  10.239
 6901SOL    HW222543   3.588   0.573  10.358
 6902SOL     OW22544  14.182   4.989   8.513
 6902SOL    HW122545  14.253   5.051   8.532
 6902SOL    HW222546  14.156   5.009   8.423
 6903SOL     OW22547  14.562  12.924   6.469
 6903SOL    HW122548  14.502  12.910   6.543
 6903SOL    HW222549  14.563  12.840   6.423
 6904SOL     OW22550   1.276  13.077   4.484
 6904SOL    HW122551   1.226  13.010   4.530
 6904SOL    HW222552   1.293  13.144   4.550
 6905SOL     OW22553   1.292  11.024   3.435
 6905SOL    HW122554   1.285  11.118   3.420
 6905SOL    HW222555   1.203  10.996   3.454
 6906SOL     OW22556   4.085  13.167   4.175
 6906SOL    HW122557   4.176  13.139   4.178
 6906SOL    HW222558   4.061  13.164   4.082
 6907SOL     OW22559   1.302  10.933  10.869
 6907SOL    HW122560   1.356  10.990  10.925
 6907SOL    HW222561   1.335  10.948  10.781
 6908SOL     OW22562  13.405   6.443   9.399
 6908SOL    HW122563  13.433   6.503   9.469
 6908SOL    HW222564  13.432   6.486   9.318
 6909SOL     OW22565   8.624   0.493  13.282
 6909SOL    HW122566   8.623   0.477  13.376
 6909SOL    HW222567   8.537   0.529  13.262
 6910SOL     OW22568   5.264   0.624   8.309
 6910SOL    HW122569   5.204   0.674   8.365
 6910SOL    HW222570   5.350   0.666   8.323
 6911SOL     OW22571   9.688   2.648   6.549
 6911SOL    HW122572   9.710   2.596   6.472
 6911SOL    HW222573   9.710   2.738   6.525
 6912SOL     OW22574  12.679   0.025  12.768
 6912SOL    HW122575  12.621   0.020  12.692
 6912SOL    HW222576  12.721  14.819  12.771
 6913SOL     OW22577   0.166   7.648   8.722
 6913SOL    HW122578   0.255   7.661   8.755
 6913SOL    HW222579   0.124   7.594   8.789
 6914SOL     OW22580  14.586   1.510   8.452
 6914SOL    HW122581  14.619   1.481   8.538
 6914SOL    HW222582  14.494   1.483   8.452
 6915SOL     OW22583  10.683   6.680  14.052
 6915SOL    HW122584  10.604   6.728  14.075
 6915SOL    HW222585  10.732   6.740  13.995
 6916SOL     OW22586   6.908   4.980  11.226
 6916SOL    HW122587   6.961   5.040  11.172
 6916SOL    HW222588   6.962   4.965  11.304
 6917SOL     OW22589  10.128   6.915   6.003
 6917SOL    HW122590  10.084   6.852   6.060
 6917SOL    HW222591  10.221   6.901   6.020
 6918SOL     OW22592   6.956   3.372  13.379
 6918SOL    HW122593   6.992   3.400  13.295
 6918SOL    HW222594   6.993   3.285  13.393
 6919SOL     OW22595  12.091   1.407  10.822
 6919SOL    HW122596  12.043   1.325  10.832
 6919SOL    HW222597  12.183   1.383  10.831
 6920SOL     OW22598   6.862   1.635   7.338
 6920SOL    HW122599   6.955   1.645   7.317
 6920SOL    HW222600   6.847   1.699   7.408
 6921SOL     OW22601   7.991  14.387   6.289
 6921SOL    HW122602   7.951  14.469   6.260
 6921SOL    HW222603   7.958  14.374   6.378
 6922SOL     OW22604   8.165   7.280  10.048
 6922SOL    HW122605   8.249   7.277  10.001
 6922SOL    HW222606   8.186   7.317  10.133
 6923SOL     OW22607   3.377   5.555  13.753
 6923SOL    HW122608   3.452   5.608  13.781
 6923SOL    HW222609   3.370   5.486  13.819
 6924SOL     OW22610  12.091   1.534   8.497
 6924SOL    HW122611  12.092   1.442   8.524
 6924SOL    HW222612  12.038   1.578   8.563
 6925SOL     OW22613  11.992  11.044   1.157
 6925SOL    HW122614  12.018  11.128   1.196
 6925SOL    HW222615  11.900  11.056   1.133
 6926SOL     OW22616   3.807  14.022   0.812
 6926SOL    HW122617   3.763  13.997   0.730
 6926SOL    HW222618   3.747  14.085   0.853
 6927SOL     OW22619   6.880   3.869  12.391
 6927SOL    HW122620   6.861   3.960  12.414
 6927SOL    HW222621   6.802   3.839  12.345
 6928SOL     OW22622   5.787  12.943   5.842
 6928SOL    HW122623   5.852  12.877   5.866
 6928SOL    HW222624   5.706  12.893   5.831
 6929SOL     OW22625   3.571   1.305  13.000
 6929SOL    HW122626   3.604   1.272  13.083
 6929SOL    HW222627   3.492   1.253  12.983
 6930SOL     OW22628   8.220   8.895   9.399
 6930SOL    HW122629   8.229   8.918   9.491
 6930SOL    HW222630   8.145   8.836   9.396
 6931SOL     OW22631   9.913   3.986   2.643
 6931SOL    HW122632   9.951   3.909   2.686
 6931SOL    HW222633   9.975   4.057   2.662
 6932SOL     OW22634   1.972   3.842   1.565
 6932SOL    HW122635   2.050   3.806   1.608
 6932SOL    HW222636   1.992   3.837   1.471
 6933SOL     OW22637   2.780   6.565   5.627
 6933SOL    HW122638   2.847   6.616   5.671
 6933SOL    HW222639   2.805   6.568   5.535
 6934SOL     OW22640  10.215  13.306   9.910
 6934SOL    HW122641  10.149  13.266   9.853
 6934SOL    HW222642  10.297  13.263   9.884
 6935SOL     OW22643   6.945   8.665  12.747
 6935SOL    HW122644   6.861   8.636  12.782
 6935SOL    HW222645   7.006   8.658  12.821
 6936SOL     OW22646  13.114   1.930  13.504
 6936SOL    HW122647  13.040   1.909  13.561
 6936SOL    HW222648  13.078   1.987  13.436
 6937SOL     OW22649   3.288   3.186   9.194
 6937SOL    HW122650   3.201   3.220   9.214
 6937SOL    HW222651   3.336   3.262   9.161
 6938SOL     OW22652   4.159   9.632   7.443
 6938SOL    HW122653   4.166   9.536   7.444
 6938SOL    HW222654   4.246   9.662   7.471
 6939SOL     OW22655   8.747   9.310   5.345
 6939SOL    HW122656   8.779   9.246   5.409
 6939SOL    HW222657   8.773   9.394   5.381
 6940SOL     OW22658   5.238  12.420   6.188
 6940SOL    HW122659   5.256  12.514   6.192
 6940SOL    HW222660   5.168  12.412   6.123
 6941SOL     OW22661  11.740   3.401   2.173
 6941SOL    HW122662  11.835   3.401   2.186
 6941SOL    HW222663  11.728   3.405   2.079
 6942SOL     OW22664   5.160  14.219   1.552
 6942SOL    HW122665   5.195  14.135   1.525
 6942SOL    HW222666   5.181  14.225   1.646
 6943SOL     OW22667  12.241   0.324   8.232
 6943SOL    HW122668  12.314   0.306   8.291
 6943SOL    HW222669  12.246   0.254   8.167
 6944SOL     OW22670   7.395   4.268   3.162
 6944SOL    HW122671   7.439   4.210   3.100
 6944SOL    HW222672   7.378   4.213   3.239
 6945SOL     OW22673   3.451   7.340  13.925
 6945SOL    HW122674   3.380   7.380  13.975
 6945SOL    HW222675   3.421   7.250  13.909
 6946SOL     OW22676  11.620   0.605   3.575
 6946SOL    HW122677  11.619   0.614   3.671
 6946SOL    HW222678  11.685   0.537   3.559
 6947SOL     OW22679   3.382   7.068  12.060
 6947SOL    HW122680   3.458   7.092  12.114
 6947SOL    HW222681   3.367   7.145  12.005
 6948SOL     OW22682  14.349   5.430  11.315
 6948SOL    HW122683  14.348   5.419  11.220
 6948SOL    HW222684  14.405   5.359  11.347
 6949SOL     OW22685  13.481   2.676   0.133
 6949SOL    HW122686  13.518   2.598   0.174
 6949SOL    HW222687  13.557   2.726   0.103
 6950SOL     OW22688   5.425  11.086   3.588
 6950SOL    HW122689   5.339  11.049   3.573
 6950SOL    HW222690   5.418  11.130   3.673
 6951SOL     OW22691   0.402  10.483  14.620
 6951SOL    HW122692   0.461  10.461  14.548
 6951SOL    HW222693   0.409  10.578  14.629
 6952SOL     OW22694  13.813  14.613   5.156
 6952SOL    HW122695  13.767  14.581   5.233
 6952SOL    HW222696  13.857  14.536   5.120
 6953SOL     OW22697   0.402   1.198  12.345
 6953SOL    HW122698   0.411   1.158  12.431
 6953SOL    HW222699   0.468   1.154  12.291
 6954SOL     OW22700   0.872  14.435   5.517
 6954SOL    HW122701   0.896  14.465   5.430
 6954SOL    HW222702   0.777  14.440   5.520
 6955SOL     OW22703   2.387  11.393  12.578
 6955SOL    HW122704   2.474  11.368  12.549
 6955SOL    HW222705   2.342  11.422  12.499
 6956SOL     OW22706  10.266   9.351   7.722
 6956SOL    HW122707  10.196   9.320   7.780
 6956SOL    HW222708  10.245   9.444   7.708
 6957SOL     OW22709  11.622   2.113  12.871
 6957SOL    HW122710  11.669   2.188  12.835
 6957SOL    HW222711  11.681   2.039  12.859
 6958SOL     OW22712   0.455   7.894  11.367
 6958SOL    HW122713   0.447   7.989  11.356
 6958SOL    HW222714   0.396   7.857  11.301
 6959SOL     OW22715   8.384   5.767  10.069
 6959SOL    HW122716   8.341   5.852  10.074
 6959SOL    HW222717   8.357   5.731   9.984
 6960SOL     OW22718   7.753  11.082   1.755
 6960SOL    HW122719   7.830  11.046   1.711
 6960SOL    HW222720   7.756  11.045   1.843
 6961SOL     OW22721  14.307   0.269  12.462
 6961SOL    HW122722  14.288   0.236  12.550
 6961SOL    HW222723  14.274   0.200  12.404
 6962SOL     OW22724   5.734   2.263  13.016
 6962SOL    HW122725   5.649   2.273  12.974
 6962SOL    HW222726   5.798   2.289  12.950
 6963SOL     OW22727   2.881   9.665   2.154
 6963SOL    HW122728   2.973   9.686   2.170
 6963SOL    HW222729   2.854   9.616   2.231
 6964SOL     OW22730   7.369  11.518  14.818
 6964SOL    HW122731   7.389  11.541   0.029
 6964SOL    HW222732   7.282  11.555  14.803
 6965SOL     OW22733  11.281   0.849   1.422
 6965SOL    HW122734  11.197   0.894   1.425
 6965SOL    HW222735  11.319   0.864   1.508
 6966SOL     OW22736  10.828  11.351  14.346
 6966SOL    HW122737  10.845  11.354  14.440
 6966SOL    HW222738  10.737  11.380  14.337
 6967SOL     OW22739  10.702   5.561  12.175
 6967SOL    HW122740  10.733   5.589  12.261
 6967SOL    HW222741  10.774   5.511  12.138
 6968SOL     OW22742   2.960   5.029  10.879
 6968SOL    HW122743   2.903   5.093  10.838
 6968SOL    HW222744   3.043   5.075  10.891
 6969SOL     OW22745  12.986  13.340  13.026
 6969SOL    HW122746  12.910  13.397  13.041
 6969SOL    HW222747  13.042  13.391  12.968
 6970SOL     OW22748   3.500   3.878  14.413
 6970SOL    HW122749   3.457   3.920  14.338
 6970SOL    HW222750   3.437   3.815  14.444
 6971SOL     OW22751  11.163  12.805   1.658
 6971SOL    HW122752  11.124  12.885   1.693
 6971SOL    HW222753  11.226  12.779   1.725
 6972SOL     OW22754  12.312   9.064  11.360
 6972SOL    HW122755  12.270   9.122  11.296
 6972SOL    HW222756  12.250   8.991  11.370
 6973SOL     OW22757   5.081  14.686   9.294
 6973SOL    HW122758   5.155  14.716   9.348
 6973SOL    HW222759   5.071  14.753   9.227
 6974SOL     OW22760   1.776  14.476   5.337
 6974SOL    HW122761   1.862  14.434   5.335
 6974SOL    HW222762   1.793  14.566   5.365
 6975SOL     OW22763   6.243   1.787   7.510
 6975SOL    HW122764   6.254   1.863   7.453
 6975SOL    HW222765   6.331   1.767   7.541
 6976SOL     OW22766   8.933   0.086   2.979
 6976SOL    HW122767   8.879   0.083   3.058
 6976SOL    HW222768   9.022   0.068   3.010
 6977SOL     OW22769   7.580  14.352  10.642
 6977SOL    HW122770   7.610  14.369  10.553
 6977SOL    HW222771   7.616  14.422  10.695
 6978SOL     OW22772   1.084  14.781  11.184
 6978SOL    HW122773   1.086  14.742  11.096
 6978SOL    HW222774   1.134  14.862  11.175
 6979SOL     OW22775   0.438   2.970   9.625
 6979SOL    HW122776   0.471   3.056   9.649
 6979SOL    HW222777   0.430   2.923   9.708
 6980SOL     OW22778  13.336  11.453   4.864
 6980SOL    HW122779  13.240  11.455   4.862
 6980SOL    HW222780  13.359  11.374   4.815
 6981SOL     OW22781   7.512   0.204   1.503
 6981SOL    HW122782   7.519   0.110   1.513
 6981SOL    HW222783   7.594   0.231   1.461
 6982SOL     OW22784   2.047   6.970   3.647
 6982SOL    HW122785   1.977   6.990   3.585
 6982SOL    HW222786   2.003   6.924   3.719
 6983SOL     OW22787  10.555   8.297   5.069
 6983SOL    HW122788  10.541   8.352   4.993
 6983SOL    HW222789  10.610   8.225   5.038
 6984SOL     OW22790   2.543   1.020  11.653
 6984SOL    HW122791   2.574   0.939  11.612
 6984SOL    HW222792   2.496   1.066  11.584
 6985SOL     OW22793  11.634   0.495  14.345
 6985SOL    HW122794  11.710   0.440  14.369
 6985SOL    HW222795  11.562   0.460  14.397
 6986SOL     OW22796  10.602   6.079   2.787
 6986SOL    HW122797  10.608   6.022   2.863
 6986SOL    HW222798  10.677   6.055   2.733
 6987SOL     OW22799   7.271  13.892  10.099
 6987SOL    HW122800   7.324  13.918  10.023
 6987SOL    HW222801   7.307  13.808  10.125
 6988SOL     OW22802   3.289   0.627   9.381
 6988SOL    HW122803   3.225   0.630   9.310
 6988SOL    HW222804   3.364   0.581   9.344
 6989SOL     OW22805   0.082   7.581   4.334
 6989SOL    HW122806  14.879   7.604   4.292
 6989SOL    HW222807   0.072   7.488   4.357
 6990SOL     OW22808   8.489   6.368   9.250
 6990SOL    HW122809   8.527   6.282   9.232
 6990SOL    HW222810   8.516   6.421   9.175
 6991SOL     OW22811   9.851   3.430   0.734
 6991SOL    HW122812   9.806   3.514   0.724
 6991SOL    HW222813   9.802   3.370   0.678
 6992SOL     OW22814   5.582   7.239   0.459
 6992SOL    HW122815   5.556   7.274   0.374
 6992SOL    HW222816   5.666   7.196   0.443
 6993SOL     OW22817  10.917  11.546   6.868
 6993SOL    HW122818  10.829  11.583   6.863
 6993SOL    HW222819  10.975  11.622   6.870
 6994SOL     OW22820   4.824   7.405   6.528
 6994SOL    HW122821   4.887   7.395   6.457
 6994SOL    HW222822   4.853   7.483   6.575
 6995SOL     OW22823   1.877   4.422   8.566
 6995SOL    HW122824   1.828   4.445   8.487
 6995SOL    HW222825   1.879   4.503   8.617
 6996SOL     OW22826   3.719   6.099   3.577
 6996SOL    HW122827   3.633   6.109   3.617
 6996SOL    HW222828   3.779   6.085   3.650
 6997SOL     OW22829   9.530   3.479   6.776
 6997SOL    HW122830   9.456   3.427   6.746
 6997SOL    HW222831   9.546   3.449   6.865
 6998SOL     OW22832   3.035   3.799  14.246
 6998SOL    HW122833   2.965   3.854  14.281
 6998SOL    HW222834   3.004   3.709  14.261
 6999SOL     OW22835   3.658   0.913   2.630
 6999SOL    HW122836   3.633   1.001   2.656
 6999SOL    HW222837   3.740   0.896   2.676
 7000SOL     OW22838   4.973   6.477   6.591
 7000SOL    HW122839   4.960   6.385   6.570
 7000SOL    HW222840   5.033   6.475   6.666
 7001SOL     OW22841   9.921   3.088  11.462
 7001SOL    HW122842   9.842   3.092  11.516
 7001SOL    HW222843   9.993   3.105  11.523
 7002SOL     OW22844   6.982   9.650  11.814
 7002SOL    HW122845   6.963   9.738  11.783
 7002SOL    HW222846   6.956   9.650  11.906
 7003SOL     OW22847   8.503  11.085  10.828
 7003SOL    HW122848   8.470  10.997  10.811
 7003SOL    HW222849   8.596  11.072  10.847
 7004SOL     OW22850  13.620   1.176   1.505
 7004SOL    HW122851  13.627   1.224   1.423
 7004SOL    HW222852  13.548   1.114   1.492
 7005SOL     OW22853   4.781  14.839   7.983
 7005SOL    HW122854   4.784  14.795   8.068
 7005SOL    HW222855   4.784  14.768   7.919
 7006SOL     OW22856   0.673  12.745   1.142
 7006SOL    HW122857   0.739  12.697   1.192
 7006SOL    HW222858   0.651  12.820   1.197
 7007SOL     OW22859   0.405   0.798  12.501
 7007SOL    HW122860   0.352   0.848  12.439
 7007SOL    HW222861   0.453   0.736  12.445
 7008SOL     OW22862   5.763   2.126   4.463
 7008SOL    HW122863   5.710   2.202   4.438
 7008SOL    HW222864   5.783   2.141   4.555
 7009SOL     OW22865   1.057  11.589  12.047
 7009SOL    HW122866   1.098  11.675  12.044
 7009SOL    HW222867   0.963  11.607  12.043
 7010SOL     OW22868   6.169   9.932   3.384
 7010SOL    HW122869   6.235   9.916   3.452
 7010SOL    HW222870   6.144   9.844   3.354
 7011SOL     OW22871  11.041   6.926   7.472
 7011SOL    HW122872  11.008   6.837   7.455
 7011SOL    HW222873  10.991   6.956   7.548
 7012SOL     OW22874  13.104  14.847   1.573
 7012SOL    HW122875  13.092   0.055   1.609
 7012SOL    HW222876  13.050  14.845   1.495
 7013SOL     OW22877   2.700  14.098   0.435
 7013SOL    HW122878   2.717  14.192   0.426
 7013SOL    HW222879   2.619  14.092   0.486
 7014SOL     OW22880   7.640   1.678  12.038
 7014SOL    HW122881   7.573   1.649  12.099
 7014SOL    HW222882   7.708   1.717  12.092
 7015SOL     OW22883   7.508   0.554  14.077
 7015SOL    HW122884   7.534   0.506  14.156
 7015SOL    HW222885   7.412   0.561  14.084
 7016SOL     OW22886   1.393   5.326   9.828
 7016SOL    HW122887   1.400   5.299   9.920
 7016SOL    HW222888   1.466   5.282   9.784
 7017SOL     OW22889  10.652  11.876  11.728
 7017SOL    HW122890  10.741  11.860  11.759
 7017SOL    HW222891  10.622  11.951  11.778
 7018SOL     OW22892  13.735   5.380  11.531
 7018SOL    HW122893  13.753   5.430  11.611
 7018SOL    HW222894  13.794   5.418  11.466
 7019SOL     OW22895  14.536  14.794  13.140
 7019SOL    HW122896  14.562  14.736  13.069
 7019SOL    HW222897  14.483  14.862  13.098
 7020SOL     OW22898   4.500   4.631  10.658
 7020SOL    HW122899   4.439   4.558  10.659
 7020SOL    HW222900   4.515   4.650  10.751
 7021SOL     OW22901   8.540   5.629   3.958
 7021SOL    HW122902   8.547   5.688   4.033
 7021SOL    HW222903   8.506   5.685   3.888
 7022SOL     OW22904   1.887  14.482  14.807
 7022SOL    HW122905   1.832  14.490  14.729
 7022SOL    HW222906   1.872  14.393  14.838
 7023SOL     OW22907  12.642   8.137  10.814
 7023SOL    HW122908  12.600   8.205  10.867
 7023SOL    HW222909  12.701   8.093  10.875
 7024SOL     OW22910  14.775  14.509  13.715
 7024SOL    HW122911  14.762  14.481  13.805
 7024SOL    HW222912  14.721  14.587  13.705
 7025SOL     OW22913  11.502   0.502   6.895
 7025SOL    HW122914  11.434   0.437   6.914
 7025SOL    HW222915  11.559   0.459   6.831
 7026SOL     OW22916  12.494   5.173   8.279
 7026SOL    HW122917  12.466   5.210   8.363
 7026SOL    HW222918  12.431   5.103   8.261
 7027SOL     OW22919  13.214  10.090  14.454
 7027SOL    HW122920  13.287  10.102  14.515
 7027SOL    HW222921  13.255  10.090  14.368
 7028SOL     OW22922   1.604  11.727   8.290
 7028SOL    HW122923   1.612  11.644   8.336
 7028SOL    HW222924   1.595  11.704   8.198
 7029SOL     OW22925   0.175  13.488   7.186
 7029SOL    HW122926   0.126  13.502   7.105
 7029SOL    HW222927   0.119  13.432   7.239
 7030SOL     OW22928  13.860   6.907  11.045
 7030SOL    HW122929  13.822   6.874  11.127
 7030SOL    HW222930  13.795   6.970  11.013
 7031SOL     OW22931   5.499  10.976  14.192
 7031SOL    HW122932   5.551  10.952  14.269
 7031SOL    HW222933   5.508  10.901  14.133
 7032SOL     OW22934  12.647   6.749  10.458
 7032SOL    HW122935  12.611   6.722  10.542
 7032SOL    HW222936  12.718   6.809  10.480
 7033SOL     OW22937  13.555   9.499   3.313
 7033SOL    HW122938  13.603   9.580   3.331
 7033SOL    HW222939  13.592   9.434   3.372
 7034SOL     OW22940   0.682  10.919   8.305
 7034SOL    HW122941   0.681  10.859   8.231
 7034SOL    HW222942   0.704  10.864   8.380
 7035SOL     OW22943   0.319   7.138   0.268
 7035SOL    HW122944   0.284   7.211   0.217
 7035SOL    HW222945   0.242   7.098   0.308
 7036SOL     OW22946  10.661  13.002   2.693
 7036SOL    HW122947  10.626  13.005   2.782
 7036SOL    HW222948  10.593  12.960   2.641
 7037SOL     OW22949  14.528   7.238   8.836
 7037SOL    HW122950  14.541   7.317   8.783
 7037SOL    HW222951  14.609   7.189   8.826
 7038SOL     OW22952   6.463   0.685   6.269
 7038SOL    HW122953   6.399   0.748   6.237
 7038SOL    HW222954   6.424   0.599   6.249
 7039SOL     OW22955   7.029   9.174   6.545
 7039SOL    HW122956   7.040   9.172   6.450
 7039SOL    HW222957   7.110   9.212   6.578
 7040SOL     OW22958   8.499   0.984   8.549
 7040SOL    HW122959   8.435   0.929   8.594
 7040SOL    HW222960   8.582   0.938   8.560
 7041SOL     OW22961   9.485   0.347   8.013
 7041SOL    HW122962   9.444   0.329   7.929
 7041SOL    HW222963   9.578   0.357   7.993
 7042SOL     OW22964  14.336   1.411   9.394
 7042SOL    HW122965  14.343   1.463   9.474
 7042SOL    HW222966  14.409   1.440   9.340
 7043SOL     OW22967   4.549   6.125   5.060
 7043SOL    HW122968   4.566   6.185   5.133
 7043SOL    HW222969   4.575   6.039   5.093
 7044SOL     OW22970  10.908   8.289   8.184
 7044SOL    HW122971  10.830   8.338   8.210
 7044SOL    HW222972  10.965   8.293   8.260
 7045SOL     OW22973   0.327  12.363   0.830
 7045SOL    HW122974   0.393  12.356   0.898
 7045SOL    HW222975   0.341  12.286   0.775
 7046SOL     OW22976   3.444  14.466   9.548
 7046SOL    HW122977   3.537  14.444   9.554
 7046SOL    HW222978   3.400  14.381   9.549
 7047SOL     OW22979   5.511  13.484  12.202
 7047SOL    HW122980   5.603  13.511  12.208
 7047SOL    HW222981   5.490  13.450  12.289
 7048SOL     OW22982  12.459  11.435   0.451
 7048SOL    HW122983  12.489  11.511   0.402
 7048SOL    HW222984  12.445  11.367   0.385
 7049SOL     OW22985   5.814   4.259   9.060
 7049SOL    HW122986   5.896   4.211   9.064
 7049SOL    HW222987   5.838   4.351   9.068
 7050SOL     OW22988   2.148  12.927   4.653
 7050SOL    HW122989   2.194  13.011   4.640
 7050SOL    HW222990   2.126  12.899   4.565
 7051SOL     OW22991   5.659  10.355   1.583
 7051SOL    HW122992   5.671  10.362   1.678
 7051SOL    HW222993   5.734  10.304   1.553
 7052SOL     OW22994   6.330  13.552   5.006
 7052SOL    HW122995   6.333  13.645   4.983
 7052SOL    HW222996   6.306  13.508   4.924
 7053SOL     OW22997   9.313  10.982   4.435
 7053SOL    HW122998   9.384  11.010   4.493
 7053SOL    HW222999   9.358  10.946   4.359
 7054SOL     OW23000   7.563   7.592  13.165
 7054SOL    HW123001   7.506   7.532  13.213
 7054SOL    HW223002   7.584   7.661  13.228
 7055SOL     OW23003   0.895  11.848   6.618
 7055SOL    HW123004   0.879  11.916   6.553
 7055SOL    HW223005   0.821  11.788   6.608
 7056SOL     OW23006  11.396   6.256   4.608
 7056SOL    HW123007  11.381   6.184   4.547
 7056SOL    HW223008  11.314   6.265   4.655
 7057SOL     OW23009  14.555   5.334   2.952
 7057SOL    HW123010  14.529   5.404   3.013
 7057SOL    HW223011  14.545   5.253   3.002
 7058SOL     OW23012   4.299   4.322  13.559
 7058SOL    HW123013   4.276   4.273  13.638
 7058SOL    HW223014   4.303   4.256  13.490
 7059SOL     OW23015   1.481   6.205  12.922
 7059SOL    HW123016   1.488   6.111  12.941
 7059SOL    HW223017   1.527   6.247  12.995
 7060SOL     OW23018   5.382   3.888  11.051
 7060SOL    HW123019   5.339   3.802  11.056
 7060SOL    HW223020   5.338   3.941  11.117
 7061SOL     OW23021   3.776  13.988   6.846
 7061SOL    HW123022   3.735  13.917   6.895
 7061SOL    HW223023   3.758  14.066   6.898
 7062SOL     OW23024   9.822   3.334   7.175
 7062SOL    HW123025   9.838   3.362   7.266
 7062SOL    HW223026   9.809   3.415   7.127
 7063SOL     OW23027   2.566   8.215  11.208
 7063SOL    HW123028   2.486   8.174  11.177
 7063SOL    HW223029   2.539   8.304  11.233
 7064SOL     OW23030  11.494   0.405  12.026
 7064SOL    HW123031  11.525   0.331  12.079
 7064SOL    HW223032  11.423   0.369  11.974
 7065SOL     OW23033   6.314  11.324   0.912
 7065SOL    HW123034   6.239  11.379   0.894
 7065SOL    HW223035   6.312  11.310   1.007
 7066SOL     OW23036  11.088  11.734  14.398
 7066SOL    HW123037  11.176  11.709  14.427
 7066SOL    HW223038  11.060  11.663  14.341
 7067SOL     OW23039   7.437  12.970  12.508
 7067SOL    HW123040   7.347  12.973  12.540
 7067SOL    HW223041   7.489  13.008  12.579
 7068SOL     OW23042   1.610   9.665   0.297
 7068SOL    HW123043   1.538   9.726   0.314
 7068SOL    HW223044   1.595   9.593   0.358
 7069SOL     OW23045   9.147   5.479   7.382
 7069SOL    HW123046   9.174   5.407   7.439
 7069SOL    HW223047   9.168   5.558   7.431
 7070SOL     OW23048   0.973   8.484   5.967
 7070SOL    HW123049   1.038   8.555   5.967
 7070SOL    HW223050   0.960   8.463   5.875
 7071SOL     OW23051   5.368   4.457  13.316
 7071SOL    HW123052   5.305   4.404  13.365
 7071SOL    HW223053   5.396   4.401  13.244
 7072SOL     OW23054   3.977  12.006   6.886
 7072SOL    HW123055   3.881  12.002   6.885
 7072SOL    HW223056   3.997  12.099   6.893
 7073SOL     OW23057  10.464   5.515   2.271
 7073SOL    HW123058  10.555   5.501   2.247
 7073SOL    HW223059  10.466   5.539   2.363
 7074SOL     OW23060   3.915   5.342  11.163
 7074SOL    HW123061   3.827   5.372  11.138
 7074SOL    HW223062   3.900   5.256  11.202
 7075SOL     OW23063   4.261   2.004   1.532
 7075SOL    HW123064   4.347   1.964   1.514
 7075SOL    HW223065   4.219   1.945   1.594
 7076SOL     OW23066   6.320   9.198   6.186
 7076SOL    HW123067   6.316   9.106   6.212
 7076SOL    HW223068   6.304   9.196   6.092
 7077SOL     OW23069  14.129   3.363  14.422
 7077SOL    HW123070  14.113   3.339  14.513
 7077SOL    HW223071  14.220   3.337  14.406
 7078SOL     OW23072  13.212   0.506   8.297
 7078SOL    HW123073  13.206   0.459   8.213
 7078SOL    HW223074  13.241   0.594   8.274
 7079SOL     OW23075   3.492   0.678  10.015
 7079SOL    HW123076   3.586   0.695  10.017
 7079SOL    HW223077   3.479   0.610  10.081
 7080SOL     OW23078  12.719   2.060   9.635
 7080SOL    HW123079  12.693   1.978   9.677
 7080SOL    HW223080  12.716   2.041   9.541
 7081SOL     OW23081  10.412   0.525  14.166
 7081SOL    HW123082  10.348   0.528  14.237
 7081SOL    HW223083  10.494   0.499  14.208
 7082SOL     OW23084   7.273   5.939   0.803
 7082SOL    HW123085   7.272   5.999   0.877
 7082SOL    HW223086   7.342   5.876   0.824
 7083SOL     OW23087   6.451   3.035  12.678
 7083SOL    HW123088   6.493   3.121  12.687
 7083SOL    HW223089   6.516   2.973  12.710
 7084SOL     OW23090  12.006   5.408   2.167
 7084SOL    HW123091  11.997   5.325   2.213
 7084SOL    HW223092  12.073   5.391   2.100
 7085SOL     OW23093  12.748  10.936  12.415
 7085SOL    HW123094  12.659  10.971  12.423
 7085SOL    HW223095  12.752  10.866  12.481
 7086SOL     OW23096   6.240   2.333   7.740
 7086SOL    HW123097   6.263   2.389   7.814
 7086SOL    HW223098   6.225   2.247   7.779
 7087SOL     OW23099   0.282   1.381   3.139
 7087SOL    HW123100   0.235   1.376   3.222
 7087SOL    HW223101   0.358   1.324   3.151
 7088SOL     OW23102   6.087   3.971   2.294
 7088SOL    HW123103   6.157   4.020   2.251
 7088SOL    HW223104   6.128   3.930   2.370
 7089SOL     OW23105   1.964   2.196   4.928
 7089SOL    HW123106   1.980   2.122   4.869
 7089SOL    HW223107   1.935   2.267   4.870
 7090SOL     OW23108   1.292   1.362   1.733
 7090SOL    HW123109   1.361   1.428   1.724
 7090SOL    HW223110   1.334   1.280   1.707
 7091SOL     OW23111   0.073   3.401  10.459
 7091SOL    HW123112   0.052   3.424  10.549
 7091SOL    HW223113   0.114   3.315  10.465
 7092SOL     OW23114   5.370  11.594   1.673
 7092SOL    HW123115   5.359  11.557   1.761
 7092SOL    HW223116   5.291  11.567   1.626
 7093SOL     OW23117   4.739  13.465   5.312
 7093SOL    HW123118   4.688  13.388   5.286
 7093SOL    HW223119   4.678  13.520   5.360
 7094SOL     OW23120  12.172   2.488  11.476
 7094SOL    HW123121  12.093   2.469  11.425
 7094SOL    HW223122  12.152   2.457  11.564
 7095SOL     OW23123   9.136  12.852   6.702
 7095SOL    HW123124   9.041  12.853   6.697
 7095SOL    HW223125   9.164  12.815   6.618
 7096SOL     OW23126   4.948   0.395   8.382
 7096SOL    HW123127   4.991   0.310   8.396
 7096SOL    HW223128   4.912   0.417   8.468
 7097SOL     OW23129  12.913   9.084  12.658
 7097SOL    HW123130  12.888   9.064  12.568
 7097SOL    HW223131  13.008   9.081  12.658
 7098SOL     OW23132  12.483   2.419   8.558
 7098SOL    HW123133  12.448   2.361   8.625
 7098SOL    HW223134  12.524   2.361   8.494
 7099SOL     OW23135   4.591   5.369   0.649
 7099SOL    HW123136   4.662   5.397   0.707
 7099SOL    HW223137   4.561   5.286   0.686
 7100SOL     OW23138  13.784  10.408   9.590
 7100SOL    HW123139  13.712  10.415   9.652
 7100SOL    HW223140  13.851  10.357   9.636
 7101SOL     OW23141  14.635   1.665   9.402
 7101SOL    HW123142  14.575   1.738   9.385
 7101SOL    HW223143  14.703   1.675   9.335
 7102SOL     OW23144  10.787   0.335  10.094
 7102SOL    HW123145  10.869   0.368  10.059
 7102SOL    HW223146  10.734   0.314  10.017
 7103SOL     OW23147   8.809   8.930   0.320
 7103SOL    HW123148   8.877   8.944   0.255
 7103SOL    HW223149   8.808   9.012   0.371
 7104SOL     OW23150  10.254  10.737  10.070
 7104SOL    HW123151  10.263  10.788   9.989
 7104SOL    HW223152  10.300  10.655  10.052
 7105SOL     OW23153  11.634   3.429   6.542
 7105SOL    HW123154  11.561   3.492   6.550
 7105SOL    HW223155  11.591   3.345   6.528
 7106SOL     OW23156   3.352   2.293   4.702
 7106SOL    HW123157   3.421   2.293   4.768
 7106SOL    HW223158   3.369   2.215   4.649
 7107SOL     OW23159   3.376  11.806   3.964
 7107SOL    HW123160   3.341  11.735   4.018
 7107SOL    HW223161   3.335  11.794   3.878
 7108SOL     OW23162  11.511   5.395   4.106
 7108SOL    HW123163  11.585   5.442   4.068
 7108SOL    HW223164  11.546   5.308   4.126
 7109SOL     OW23165   4.608   9.105   4.901
 7109SOL    HW123166   4.529   9.071   4.944
 7109SOL    HW223167   4.582   9.121   4.811
 7110SOL     OW23168   5.997   9.671   2.485
 7110SOL    HW123169   6.074   9.726   2.502
 7110SOL    HW223170   5.939   9.687   2.560
 7111SOL     OW23171  11.772   3.188  12.150
 7111SOL    HW123172  11.763   3.251  12.078
 7111SOL    HW223173  11.862   3.200  12.181
 7112SOL     OW23174   3.720   3.339   2.013
 7112SOL    HW123175   3.793   3.279   2.002
 7112SOL    HW223176   3.731   3.374   2.102
 7113SOL     OW23177   6.149   4.332   9.802
 7113SOL    HW123178   6.119   4.264   9.742
 7113SOL    HW223179   6.119   4.304   9.888
 7114SOL     OW23180   7.353   5.080   4.046
 7114SOL    HW123181   7.362   5.155   3.988
 7114SOL    HW223182   7.286   5.026   4.005
 7115SOL     OW23183   2.247   6.952  13.893
 7115SOL    HW123184   2.214   6.864  13.913
 7115SOL    HW223185   2.218   7.006  13.967
 7116SOL     OW23186   2.278   2.445   1.965
 7116SOL    HW123187   2.257   2.375   2.026
 7116SOL    HW223188   2.371   2.430   1.943
 7117SOL     OW23189   6.216   8.419   6.317
 7117SOL    HW123190   6.255   8.505   6.300
 7117SOL    HW223191   6.141   8.415   6.258
 7118SOL     OW23192   7.988   2.871  11.884
 7118SOL    HW123193   7.977   2.776  11.883
 7118SOL    HW223194   8.056   2.889  11.819
 7119SOL     OW23195   0.209   8.203   9.028
 7119SOL    HW123196   0.219   8.138   9.098
 7119SOL    HW223197   0.211   8.152   8.947
 7120SOL     OW23198   9.658   4.562  11.558
 7120SOL    HW123199   9.713   4.578  11.482
 7120SOL    HW223200   9.718   4.530  11.625
 7121SOL     OW23201  11.992  10.226  14.190
 7121SOL    HW123202  12.053  10.241  14.118
 7121SOL    HW223203  11.916  10.184  14.149
 7122SOL     OW23204   3.979  10.725  12.885
 7122SOL    HW123205   3.998  10.725  12.979
 7122SOL    HW223206   3.897  10.677  12.876
 7123SOL     OW23207   9.169  12.772   4.003
 7123SOL    HW123208   9.167  12.771   4.099
 7123SOL    HW223209   9.261  12.785   3.981
 7124SOL     OW23210  10.386   7.210   8.214
 7124SOL    HW123211  10.378   7.304   8.198
 7124SOL    HW223212  10.309   7.172   8.171
 7125SOL     OW23213   9.990   0.986   2.274
 7125SOL    HW123214   9.945   1.043   2.211
 7125SOL    HW223215  10.081   0.985   2.243
 7126SOL     OW23216   5.907   2.577  14.385
 7126SOL    HW123217   5.937   2.537  14.467
 7126SOL    HW223218   5.984   2.576  14.328
 7127SOL     OW23219   8.688   7.122   9.920
 7127SOL    HW123220   8.685   7.126   9.824
 7127SOL    HW223221   8.607   7.077   9.944
 7128SOL     OW23222  14.156  14.550   7.126
 7128SOL    HW123223  14.099  14.489   7.172
 7128SOL    HW223224  14.139  14.635   7.166
 7129SOL     OW23225   2.520   4.006   4.166
 7129SOL    HW123226   2.535   4.061   4.244
 7129SOL    HW223227   2.515   3.917   4.201
 7130SOL     OW23228  11.442   3.579   3.617
 7130SOL    HW123229  11.465   3.502   3.565
 7130SOL    HW223230  11.391   3.544   3.691
 7131SOL     OW23231   5.328  12.025  13.538
 7131SOL    HW123232   5.283  12.064  13.613
 7131SOL    HW223233   5.366  12.099  13.492
 7132SOL     OW23234   0.013   0.266   1.265
 7132SOL    HW123235   0.019   0.248   1.359
 7132SOL    HW223236   0.103   0.282   1.238
 7133SOL     OW23237  14.341  14.699   8.646
 7133SOL    HW123238  14.325  14.698   8.552
 7133SOL    HW223239  14.403  14.628   8.661
 7134SOL     OW23240   5.849   9.385   9.606
 7134SOL    HW123241   5.778   9.354   9.663
 7134SOL    HW223242   5.866   9.312   9.546
 7135SOL     OW23243   5.101   0.909   9.292
 7135SOL    HW123244   5.036   0.908   9.362
 7135SOL    HW223245   5.145   0.994   9.301
 7136SOL     OW23246   0.887   3.845   4.425
 7136SOL    HW123247   0.886   3.758   4.386
 7136SOL    HW223248   0.846   3.833   4.510
 7137SOL     OW23249   3.541   9.908   9.127
 7137SOL    HW123250   3.481   9.887   9.055
 7137SOL    HW223251   3.486   9.950   9.193
 7138SOL     OW23252   2.835   4.238   8.526
 7138SOL    HW123253   2.892   4.196   8.462
 7138SOL    HW223254   2.747   4.215   8.498
 7139SOL     OW23255  12.422   2.749   3.374
 7139SOL    HW123256  12.334   2.727   3.342
 7139SOL    HW223257  12.408   2.826   3.430
 7140SOL     OW23258   6.323   5.257  12.086
 7140SOL    HW123259   6.392   5.303  12.133
 7140SOL    HW223260   6.322   5.169  12.125
 7141SOL     OW23261   0.573   9.105   4.621
 7141SOL    HW123262   0.565   9.011   4.607
 7141SOL    HW223263   0.582   9.114   4.716
 7142SOL     OW23264   6.485   7.266  10.540
 7142SOL    HW123265   6.430   7.333  10.581
 7142SOL    HW223266   6.436   7.237  10.464
 7143SOL     OW23267  11.276   9.926   6.675
 7143SOL    HW123268  11.319   9.977   6.744
 7143SOL    HW223269  11.183   9.935   6.692
 7144SOL     OW23270   5.176  13.078  12.805
 7144SOL    HW123271   5.185  13.015  12.734
 7144SOL    HW223272   5.135  13.155  12.764
 7145SOL     OW23273   3.389   1.118   9.663
 7145SOL    HW123274   3.470   1.074   9.687
 7145SOL    HW223275   3.320   1.056   9.685
 7146SOL     OW23276  14.659  10.110  10.518
 7146SOL    HW123277  14.733  10.170  10.521
 7146SOL    HW223278  14.681  10.047  10.450
 7147SOL     OW23279  10.448   2.104  13.631
 7147SOL    HW123280  10.506   2.110  13.706
 7147SOL    HW223281  10.380   2.170  13.647
 7148SOL     OW23282  10.597  11.673   2.088
 7148SOL    HW123283  10.605  11.645   2.179
 7148SOL    HW223284  10.505  11.698   2.078
 7149SOL     OW23285   1.337  14.803  13.439
 7149SOL    HW123286   1.428  14.809  13.466
 7149SOL    HW223287   1.287  14.825  13.518
 7150SOL     OW23288   7.689   3.872   4.087
 7150SOL    HW123289   7.784   3.861   4.076
 7150SOL    HW223290   7.652   3.839   4.005
 7151SOL     OW23291   7.699   3.098   0.349
 7151SOL    HW123292   7.619   3.065   0.389
 7151SOL    HW223293   7.741   3.149   0.419
 7152SOL     OW23294   4.668  12.080   4.435
 7152SOL    HW123295   4.635  12.061   4.347
 7152SOL    HW223296   4.741  12.141   4.421
 7153SOL     OW23297  12.062   0.847   7.061
 7153SOL    HW123298  12.104   0.888   6.986
 7153SOL    HW223299  12.073   0.753   7.047
 7154SOL     OW23300  13.864  12.430   5.067
 7154SOL    HW123301  13.862  12.497   5.135
 7154SOL    HW223302  13.945  12.447   5.019
 7155SOL     OW23303   9.148  14.763   2.049
 7155SOL    HW123304   9.202  14.838   2.074
 7155SOL    HW223305   9.060  14.799   2.040
 7156SOL     OW23306   7.689   9.446  12.938
 7156SOL    HW123307   7.702   9.383  13.009
 7156SOL    HW223308   7.773   9.446  12.891
 7157SOL     OW23309   6.965   2.944   3.618
 7157SOL    HW123310   6.933   3.020   3.569
 7157SOL    HW223311   6.943   2.964   3.709
 7158SOL     OW23312   5.718  13.111   9.681
 7158SOL    HW123313   5.739  13.022   9.653
 7158SOL    HW223314   5.719  13.108   9.776
 7159SOL     OW23315  12.807   5.626   3.793
 7159SOL    HW123316  12.846   5.682   3.860
 7159SOL    HW223317  12.760   5.686   3.736
 7160SOL     OW23318  10.241   3.658   4.476
 7160SOL    HW123319  10.202   3.618   4.554
 7160SOL    HW223320  10.294   3.730   4.510
 7161SOL     OW23321   2.316   0.064  10.682
 7161SOL    HW123322   2.273   0.017  10.754
 7161SOL    HW223323   2.328   0.153  10.716
 7162SOL     OW23324   1.089  11.616   1.368
 7162SOL    HW123325   1.031  11.658   1.432
 7162SOL    HW223326   1.031  11.588   1.297
 7163SOL     OW23327   3.755   5.095   4.399
 7163SOL    HW123328   3.774   5.096   4.493
 7163SOL    HW223329   3.663   5.070   4.393
 7164SOL     OW23330   7.378   5.964   3.282
 7164SOL    HW123331   7.333   6.048   3.278
 7164SOL    HW223332   7.470   5.986   3.293
 7165SOL     OW23333   4.740  10.680   2.885
 7165SOL    HW123334   4.765  10.722   2.803
 7165SOL    HW223335   4.702  10.751   2.938
 7166SOL     OW23336  13.521   1.132  12.760
 7166SOL    HW123337  13.611   1.108  12.784
 7166SOL    HW223338  13.503   1.210  12.812
 7167SOL     OW23339  14.716  11.903   0.035
 7167SOL    HW123340  14.740  11.863   0.119
 7167SOL    HW223341  14.688  11.830  14.860
 7168SOL     OW23342   7.269  13.870   3.781
 7168SOL    HW123343   7.264  13.924   3.703
 7168SOL    HW223344   7.249  13.781   3.751
 7169SOL     OW23345   4.729   3.224   0.333
 7169SOL    HW123346   4.760   3.140   0.366
 7169SOL    HW223347   4.784   3.241   0.256
 7170SOL     OW23348  13.552   0.809   2.722
 7170SOL    HW123349  13.458   0.811   2.738
 7170SOL    HW223350  13.578   0.902   2.719
 7171SOL     OW23351   8.292   7.872   5.156
 7171SOL    HW123352   8.211   7.908   5.122
 7171SOL    HW223353   8.329   7.941   5.210
 7172SOL     OW23354   2.911   9.381  14.777
 7172SOL    HW123355   2.950   9.457  14.820
 7172SOL    HW223356   2.872   9.331  14.849
 7173SOL     OW23357  13.704   5.714  10.261
 7173SOL    HW123358  13.728   5.796  10.215
 7173SOL    HW223359  13.766   5.650  10.227
 7174SOL     OW23360   6.567   6.976   1.224
 7174SOL    HW123361   6.591   6.894   1.179
 7174SOL    HW223362   6.644   7.031   1.215
 7175SOL     OW23363  12.712   9.950   1.071
 7175SOL    HW123364  12.738  10.020   1.131
 7175SOL    HW223365  12.664   9.888   1.126
 7176SOL     OW23366  10.570   1.953   4.596
 7176SOL    HW123367  10.491   1.955   4.541
 7176SOL    HW223368  10.637   1.994   4.542
 7177SOL     OW23369  11.072   6.157   4.767
 7177SOL    HW123370  11.108   6.083   4.718
 7177SOL    HW223371  10.978   6.138   4.773
 7178SOL     OW23372   3.987   5.378  10.445
 7178SOL    HW123373   3.902   5.335  10.456
 7178SOL    HW223374   4.023   5.384  10.533
 7179SOL     OW23375  14.524   5.114  12.356
 7179SOL    HW123376  14.531   5.181  12.424
 7179SOL    HW223377  14.473   5.156  12.287
 7180SOL     OW23378   9.267   9.918   6.738
 7180SOL    HW123379   9.339   9.881   6.688
 7180SOL    HW223380   9.297   9.915   6.829
 7181SOL     OW23381   7.166   0.570   7.637
 7181SOL    HW123382   7.107   0.591   7.709
 7181SOL    HW223383   7.248   0.546   7.680
 7182SOL     OW23384   8.076   4.513  11.393
 7182SOL    HW123385   8.085   4.425  11.356
 7182SOL    HW223386   8.074   4.572  11.318
 7183SOL     OW23387   1.828  14.597   6.553
 7183SOL    HW123388   1.798  14.683   6.525
 7183SOL    HW223389   1.897  14.614   6.616
 7184SOL     OW23390   2.453   6.103   8.579
 7184SOL    HW123391   2.497   6.104   8.494
 7184SOL    HW223392   2.517   6.064   8.638
 7185SOL     OW23393  11.893   8.940   5.994
 7185SOL    HW123394  11.959   8.871   5.990
 7185SOL    HW223395  11.885   8.960   6.088
 7186SOL     OW23396   6.984  14.702  11.879
 7186SOL    HW123397   7.040  14.738  11.810
 7186SOL    HW223398   6.898  14.695  11.839
 7187SOL     OW23399   1.908  14.852   5.651
 7187SOL    HW123400   1.917   0.062   5.682
 7187SOL    HW223401   1.994  14.813   5.667
 7188SOL     OW23402  10.844   1.908  11.670
 7188SOL    HW123403  10.844   1.994  11.711
 7188SOL    HW223404  10.907   1.857  11.722
 7189SOL     OW23405  11.164  12.299   8.532
 7189SOL    HW123406  11.243  12.246   8.546
 7189SOL    HW223407  11.185  12.355   8.457
 7190SOL     OW23408  13.263  13.803   1.219
 7190SOL    HW123409  13.170  13.797   1.237
 7190SOL    HW223410  13.269  13.810   1.124
 7191SOL     OW23411   0.861  12.623   5.824
 7191SOL    HW123412   0.818  12.590   5.745
 7191SOL    HW223413   0.792  12.666   5.873
 7192SOL     OW23414   7.679  12.666   2.132
 7192SOL    HW123415   7.646  12.582   2.103
 7192SOL    HW223416   7.707  12.652   2.223
 7193SOL     OW23417  11.657  12.493   6.874
 7193SOL    HW123418  11.707  12.458   6.948
 7193SOL    HW223419  11.597  12.556   6.913
 7194SOL     OW23420   1.727   9.832   8.765
 7194SOL    HW123421   1.792   9.792   8.823
 7194SOL    HW223422   1.680   9.894   8.820
 7195SOL     OW23423   3.849  10.053   2.829
 7195SOL    HW123424   3.864   9.962   2.804
 7195SOL    HW223425   3.875  10.057   2.921
 7196SOL     OW23426  12.825  10.662  10.843
 7196SOL    HW123427  12.902  10.675  10.788
 7196SOL    HW223428  12.773  10.597  10.796
 7197SOL     OW23429  14.059   2.871   7.430
 7197SOL    HW123430  14.013   2.952   7.409
 7197SOL    HW223431  14.148   2.898   7.453
 7198SOL     OW23432   3.453   0.851   6.086
 7198SOL    HW123433   3.407   0.868   6.004
 7198SOL    HW223434   3.508   0.928   6.100
 7199SOL     OW23435   3.328   4.245  12.125
 7199SOL    HW123436   3.298   4.325  12.083
 7199SOL    HW223437   3.323   4.264  12.219
 7200SOL     OW23438   1.537   8.877  11.681
 7200SOL    HW123439   1.446   8.863  11.708
 7200SOL    HW223440   1.566   8.793  11.647
 7201SOL     OW23441  11.976  13.142   9.464
 7201SOL    HW123442  12.002  13.057   9.428
 7201SOL    HW223443  11.880  13.138   9.466
 7202SOL     OW23444   6.698  14.844   4.853
 7202SOL    HW123445   6.704   0.017   4.773
 7202SOL    HW223446   6.736  14.760   4.829
 7203SOL     OW23447   2.496  10.371   5.766
 7203SOL    HW123448   2.473  10.411   5.682
 7203SOL    HW223449   2.423  10.395   5.824
 7204SOL     OW23450  11.541  13.154   8.981
 7204SOL    HW123451  11.602  13.091   9.019
 7204SOL    HW223452  11.494  13.106   8.914
 7205SOL     OW23453  13.459   0.062   9.566
 7205SOL    HW123454  13.520   0.130   9.538
 7205SOL    HW223455  13.456   0.001   9.493
 7206SOL     OW23456   2.056  12.490  12.692
 7206SOL    HW123457   2.129  12.482  12.630
 7206SOL    HW223458   2.061  12.580  12.723
 7207SOL     OW23459   4.821   1.736   0.902
 7207SOL    HW123460   4.853   1.647   0.918
 7207SOL    HW223461   4.866   1.763   0.822
 7208SOL     OW23462   8.298  10.010  14.756
 7208SOL    HW123463   8.219  10.044  14.798
 7208SOL    HW223464   8.333  10.084  14.707
 7209SOL     OW23465   4.904   8.665   6.283
 7209SOL    HW123466   4.982   8.720   6.275
 7209SOL    HW223467   4.863   8.693   6.365
 7210SOL     OW23468  11.569   8.512   8.962
 7210SOL    HW123469  11.663   8.500   8.967
 7210SOL    HW223470  11.554   8.548   8.874
 7211SOL     OW23471   0.274  13.087   2.465
 7211SOL    HW123472   0.305  12.999   2.444
 7211SOL    HW223473   0.223  13.076   2.545
 7212SOL     OW23474   8.078   0.604   2.179
 7212SOL    HW123475   8.098   0.621   2.087
 7212SOL    HW223476   8.078   0.508   2.186
 7213SOL     OW23477   5.215  13.411  14.127
 7213SOL    HW123478   5.126  13.378  14.115
 7213SOL    HW223479   5.212  13.460  14.209
 7214SOL     OW23480   7.740   5.837   2.073
 7214SOL    HW123481   7.676   5.810   2.006
 7214SOL    HW223482   7.810   5.880   2.024
 7215SOL     OW23483   1.393  10.267   4.640
 7215SOL    HW123484   1.380  10.360   4.626
 7215SOL    HW223485   1.314  10.237   4.684
 7216SOL     OW23486   7.168   6.184   9.945
 7216SOL    HW123487   7.240   6.243   9.924
 7216SOL    HW223488   7.197   6.136  10.022
 7217SOL     OW23489   1.323   2.204   7.464
 7217SOL    HW123490   1.245   2.152   7.449
 7217SOL    HW223491   1.361   2.168   7.544
 7218SOL     OW23492   8.948   1.744  13.282
 7218SOL    HW123493   9.043   1.755  13.286
 7218SOL    HW223494   8.928   1.734  13.189
 7219SOL     OW23495  10.424   8.742   2.116
 7219SOL    HW123496  10.477   8.789   2.180
 7219SOL    HW223497  10.339   8.730   2.159
 7220SOL     OW23498  10.096  13.051  12.261
 7220SOL    HW123499  10.150  12.977  12.291
 7220SOL    HW223500  10.065  13.092  12.342
 7221SOL     OW23501  10.079   9.110   0.726
 7221SOL    HW123502  10.147   9.173   0.704
 7221SOL    HW223503  10.104   9.077   0.813
 7222SOL     OW23504   3.996   3.205   4.409
 7222SOL    HW123505   4.091   3.209   4.416
 7222SOL    HW223506   3.976   3.245   4.324
 7223SOL     OW23507  13.175  11.347   2.669
 7223SOL    HW123508  13.244  11.345   2.735
 7223SOL    HW223509  13.200  11.279   2.607
 7224SOL     OW23510   4.021   0.996   4.944
 7224SOL    HW123511   3.963   1.023   4.873
 7224SOL    HW223512   4.108   0.993   4.905
 7225SOL     OW23513   8.073   5.296   2.231
 7225SOL    HW123514   8.147   5.337   2.277
 7225SOL    HW223515   8.021   5.370   2.200
 7226SOL     OW23516  14.436  10.023   4.734
 7226SOL    HW123517  14.475   9.970   4.804
 7226SOL    HW223518  14.469   9.983   4.654
 7227SOL     OW23519   3.870   2.517   7.379
 7227SOL    HW123520   3.955   2.544   7.415
 7227SOL    HW223521   3.810   2.522   7.453
 7228SOL     OW23522  12.650  12.255   1.601
 7228SOL    HW123523  12.706  12.177   1.608
 7228SOL    HW223524  12.710  12.325   1.574
 7229SOL     OW23525   4.237  11.604   0.391
 7229SOL    HW123526   4.190  11.676   0.433
 7229SOL    HW223527   4.257  11.635   0.303
 7230SOL     OW23528   1.802  13.176   2.836
 7230SOL    HW123529   1.879  13.154   2.783
 7230SOL    HW223530   1.789  13.100   2.893
 7231SOL     OW23531   8.382   3.767   6.865
 7231SOL    HW123532   8.458   3.792   6.813
 7231SOL    HW223533   8.352   3.849   6.906
 7232SOL     OW23534  10.583  14.876  10.670
 7232SOL    HW123535  10.534  14.878  10.752
 7232SOL    HW223536  10.541  14.807  10.618
 7233SOL     OW23537   4.343   9.740   8.265
 7233SOL    HW123538   4.273   9.801   8.289
 7233SOL    HW223539   4.300   9.677   8.207
 7234SOL     OW23540   7.909  14.233   1.148
 7234SOL    HW123541   7.857  14.307   1.178
 7234SOL    HW223542   7.906  14.170   1.221
 7235SOL     OW23543   3.287   4.225   9.594
 7235SOL    HW123544   3.298   4.130   9.604
 7235SOL    HW223545   3.368   4.255   9.554
 7236SOL     OW23546   7.542   1.966   5.044
 7236SOL    HW123547   7.450   1.984   5.022
 7236SOL    HW223548   7.587   1.969   4.960
 7237SOL     OW23549  11.138   3.613   6.685
 7237SOL    HW123550  11.076   3.572   6.625
 7237SOL    HW223551  11.096   3.607   6.771
 7238SOL     OW23552   0.503   4.886  11.581
 7238SOL    HW123553   0.423   4.936  11.563
 7238SOL    HW223554   0.551   4.887  11.499
 7239SOL     OW23555  13.723   9.102  11.709
 7239SOL    HW123556  13.658   9.103  11.780
 7239SOL    HW223557  13.679   9.145  11.636
 7240SOL     OW23558  12.857  10.795   8.257
 7240SOL    HW123559  12.923  10.832   8.198
 7240SOL    HW223560  12.777  10.844   8.236
 7241SOL     OW23561  10.910  11.469   8.303
 7241SOL    HW123562  10.929  11.384   8.344
 7241SOL    HW223563  10.814  11.470   8.295
 7242SOL     OW23564   9.902   3.770   3.645
 7242SOL    HW123565   9.913   3.865   3.645
 7242SOL    HW223566   9.902   3.746   3.737
 7243SOL     OW23567  13.249  12.373   8.693
 7243SOL    HW123568  13.247  12.299   8.753
 7243SOL    HW223569  13.296  12.442   8.740
 7244SOL     OW23570  10.690  13.887   5.552
 7244SOL    HW123571  10.755  13.838   5.502
 7244SOL    HW223572  10.606  13.854   5.521
 7245SOL     OW23573   9.675   7.045  11.722
 7245SOL    HW123574   9.617   7.077  11.653
 7245SOL    HW223575   9.761   7.040  11.680
 7246SOL     OW23576   0.047   9.648   9.455
 7246SOL    HW123577   0.095   9.672   9.534
 7246SOL    HW223578  14.868   9.577   9.482
 7247SOL     OW23579  10.540  11.742  10.763
 7247SOL    HW123580  10.515  11.755  10.671
 7247SOL    HW223581  10.544  11.647  10.772
 7248SOL     OW23582  12.038   2.005   0.247
 7248SOL    HW123583  12.064   1.914   0.231
 7248SOL    HW223584  12.090   2.056   0.185
 7249SOL     OW23585  10.248   5.703   2.054
 7249SOL    HW123586  10.343   5.707   2.061
 7249SOL    HW223587  10.232   5.641   1.983
 7250SOL     OW23588  11.152  13.199   3.224
 7250SOL    HW123589  11.215  13.247   3.171
 7250SOL    HW223590  11.175  13.220   3.314
 7251SOL     OW23591   7.341   1.194  13.040
 7251SOL    HW123592   7.345   1.283  13.004
 7251SOL    HW223593   7.350   1.206  13.135
 7252SOL     OW23594   8.632  10.484   0.315
 7252SOL    HW123595   8.718  10.525   0.303
 7252SOL    HW223596   8.603  10.464   0.227
 7253SOL     OW23597   9.336   8.372   4.313
 7253SOL    HW123598   9.250   8.407   4.290
 7253SOL    HW223599   9.364   8.425   4.388
 7254SOL     OW23600   5.230   9.392  10.492
 7254SOL    HW123601   5.171   9.394  10.416
 7254SOL    HW223602   5.197   9.461  10.549
 7255SOL     OW23603   4.574   8.801   2.823
 7255SOL    HW123604   4.662   8.797   2.787
 7255SOL    HW223605   4.567   8.889   2.860
 7256SOL     OW23606   8.361   8.253  10.992
 7256SOL    HW123607   8.359   8.348  10.985
 7256SOL    HW223608   8.431   8.225  10.932
 7257SOL     OW23609   4.899  14.809   3.209
 7257SOL    HW123610   4.926  14.789   3.299
 7257SOL    HW223611   4.832  14.744   3.189
 7258SOL     OW23612   4.839  12.706  13.930
 7258SOL    HW123613   4.744  12.700  13.944
 7258SOL    HW223614   4.877  12.653  13.999
 7259SOL     OW23615  14.586   8.655   1.186
 7259SOL    HW123616  14.525   8.729   1.182
 7259SOL    HW223617  14.661   8.688   1.235
 7260SOL     OW23618   6.252  13.484  14.207
 7260SOL    HW123619   6.242  13.391  14.192
 7260SOL    HW223620   6.236  13.525  14.122
 7261SOL     OW23621  13.056   2.094   4.888
 7261SOL    HW123622  13.094   2.121   4.804
 7261SOL    HW223623  13.051   2.174   4.940
 7262SOL     OW23624   3.841   8.416   0.373
 7262SOL    HW123625   3.882   8.342   0.419
 7262SOL    HW223626   3.910   8.450   0.316
 7263SOL     OW23627   2.969  14.739   1.782
 7263SOL    HW123628   3.001  14.650   1.793
 7263SOL    HW223629   2.887  14.729   1.733
 7264SOL     OW23630   3.201   3.623  10.595
 7264SOL    HW123631   3.239   3.711  10.592
 7264SOL    HW223632   3.231   3.586  10.677
 7265SOL     OW23633   6.627   0.888   2.408
 7265SOL    HW123634   6.683   0.939   2.466
 7265SOL    HW223635   6.580   0.954   2.356
 7266SOL     OW23636   0.392  11.572   4.786
 7266SOL    HW123637   0.402  11.486   4.828
 7266SOL    HW223638   0.451  11.569   4.710
 7267SOL     OW23639  10.030   2.028   6.172
 7267SOL    HW123640  10.018   1.975   6.093
 7267SOL    HW223641  10.044   1.964   6.242
 7268SOL     OW23642  13.401  13.101  13.317
 7268SOL    HW123643  13.396  13.012  13.280
 7268SOL    HW223644  13.418  13.157  13.242
 7269SOL     OW23645  13.801  11.234  10.872
 7269SOL    HW123646  13.812  11.149  10.915
 7269SOL    HW223647  13.887  11.276  10.880
 7270SOL     OW23648   5.725   1.661   1.702
 7270SOL    HW123649   5.717   1.752   1.673
 7270SOL    HW223650   5.781   1.665   1.779
 7271SOL     OW23651  11.700   8.946   8.432
 7271SOL    HW123652  11.736   9.035   8.432
 7271SOL    HW223653  11.610   8.957   8.403
 7272SOL     OW23654   4.466  10.903   5.025
 7272SOL    HW123655   4.531  10.973   5.022
 7272SOL    HW223656   4.501  10.840   5.088
 7273SOL     OW23657   0.127  11.513   8.556
 7273SOL    HW123658   0.055  11.570   8.528
 7273SOL    HW223659   0.178  11.499   8.476
 7274SOL     OW23660   5.531  12.652  13.539
 7274SOL    HW123661   5.535  12.631  13.632
 7274SOL    HW223662   5.575  12.579  13.496
 7275SOL     OW23663   9.537   6.411   2.824
 7275SOL    HW123664   9.613   6.359   2.849
 7275SOL    HW223665   9.517   6.384   2.735
 7276SOL     OW23666   2.403   8.964  11.641
 7276SOL    HW123667   2.433   8.878  11.671
 7276SOL    HW223668   2.481   9.018  11.641
 7277SOL     OW23669   0.529   4.903   7.929
 7277SOL    HW123670   0.462   4.875   7.991
 7277SOL    HW223671   0.511   4.852   7.850
 7278SOL     OW23672   7.531   9.056  11.705
 7278SOL    HW123673   7.624   9.071  11.718
 7278SOL    HW223674   7.521   9.052  11.610
 7279SOL     OW23675   6.649   2.806   2.982
 7279SOL    HW123676   6.694   2.748   2.920
 7279SOL    HW223677   6.707   2.882   2.990
 7280SOL     OW23678  12.869  13.970   4.171
 7280SOL    HW123679  12.864  13.905   4.101
 7280SOL    HW223680  12.931  14.036   4.140
 7281SOL     OW23681   8.612   4.297   2.514
 7281SOL    HW123682   8.612   4.392   2.499
 7281SOL    HW223683   8.563   4.261   2.440
 7282SOL     OW23684   9.465  11.572   7.644
 7282SOL    HW123685   9.472  11.529   7.559
 7282SOL    HW223686   9.449  11.664   7.623
 7283SOL     OW23687   1.553  10.248  12.997
 7283SOL    HW123688   1.509  10.260  12.913
 7283SOL    HW223689   1.623  10.313  12.997
 7284SOL     OW23690   4.059   4.711   7.543
 7284SOL    HW123691   4.136   4.765   7.529
 7284SOL    HW223692   3.994   4.744   7.481
 7285SOL     OW23693   2.881  12.286   2.931
 7285SOL    HW123694   2.858  12.378   2.927
 7285SOL    HW223695   2.802  12.240   2.905
 7286SOL     OW23696  12.222  11.741   0.998
 7286SOL    HW123697  12.248  11.827   0.964
 7286SOL    HW223698  12.211  11.754   1.092
 7287SOL     OW23699  12.696   4.534  14.681
 7287SOL    HW123700  12.780   4.579  14.679
 7287SOL    HW223701  12.639   4.588  14.626
 7288SOL     OW23702  12.281   0.496  13.239
 7288SOL    HW123703  12.316   0.544  13.314
 7288SOL    HW223704  12.209   0.551  13.207
 7289SOL     OW23705   0.156   6.164   1.623
 7289SOL    HW123706   0.183   6.243   1.671
 7289SOL    HW223707   0.092   6.196   1.559
 7290SOL     OW23708   2.276  14.417   6.854
 7290SOL    HW123709   2.329  14.367   6.916
 7290SOL    HW223710   2.249  14.495   6.902
 7291SOL     OW23711   8.077  14.791  13.834
 7291SOL    HW123712   8.147  14.742  13.877
 7291SOL    HW223713   8.006  14.793  13.898
 7292SOL     OW23714   7.343   7.921  13.067
 7292SOL    HW123715   7.325   7.931  13.160
 7292SOL    HW223716   7.306   7.835  13.045
 7293SOL     OW23717  11.961  11.036   2.479
 7293SOL    HW123718  11.921  11.072   2.399
 7293SOL    HW223719  12.043  10.997   2.449
 7294SOL     OW23720   3.210   3.657   4.446
 7294SOL    HW123721   3.210   3.736   4.391
 7294SOL    HW223722   3.141   3.673   4.511
 7295SOL     OW23723   9.334  11.482   7.845
 7295SOL    HW123724   9.322  11.529   7.927
 7295SOL    HW223725   9.381  11.543   7.789
 7296SOL     OW23726   1.389  12.119   6.688
 7296SOL    HW123727   1.393  12.056   6.616
 7296SOL    HW223728   1.296  12.127   6.709
 7297SOL     OW23729  10.990   5.610   9.005
 7297SOL    HW123730  10.949   5.526   9.024
 7297SOL    HW223731  10.998   5.653   9.090
 7298SOL     OW23732   8.360  10.491  13.858
 7298SOL    HW123733   8.355  10.573  13.907
 7298SOL    HW223734   8.273  10.453  13.865
 7299SOL     OW23735   6.036   9.598   5.270
 7299SOL    HW123736   6.025   9.509   5.303
 7299SOL    HW223737   5.948   9.626   5.245
 7300SOL     OW23738   1.567   4.738   5.123
 7300SOL    HW123739   1.574   4.833   5.112
 7300SOL    HW223740   1.629   4.716   5.192
 7301SOL     OW23741  14.355   5.222  10.348
 7301SOL    HW123742  14.360   5.317  10.361
 7301SOL    HW223743  14.334   5.212  10.255
 7302SOL     OW23744   2.729   0.511  12.218
 7302SOL    HW123745   2.729   0.595  12.265
 7302SOL    HW223746   2.811   0.470  12.244
 7303SOL     OW23747   0.605  11.702  11.378
 7303SOL    HW123748   0.511  11.707  11.362
 7303SOL    HW223749   0.643  11.761  11.313
 7304SOL     OW23750   3.739   7.785  12.907
 7304SOL    HW123751   3.658   7.745  12.876
 7304SOL    HW223752   3.727   7.879  12.891
 7305SOL     OW23753   3.380   4.942   9.312
 7305SOL    HW123754   3.410   4.982   9.230
 7305SOL    HW223755   3.285   4.939   9.304
 7306SOL     OW23756  14.117   9.788   1.406
 7306SOL    HW123757  14.050   9.815   1.343
 7306SOL    HW223758  14.192   9.844   1.387
 7307SOL     OW23759   8.641   3.098   5.247
 7307SOL    HW123760   8.600   3.147   5.318
 7307SOL    HW223761   8.674   3.018   5.289
 7308SOL     OW23762   1.207  13.494  12.210
 7308SOL    HW123763   1.152  13.462  12.139
 7308SOL    HW223764   1.146  13.539  12.269
 7309SOL     OW23765   0.901   4.759  12.052
 7309SOL    HW123766   0.883   4.806  11.971
 7309SOL    HW223767   0.815   4.749  12.094
 7310SOL     OW23768   1.958   5.004   4.707
 7310SOL    HW123769   2.004   5.086   4.723
 7310SOL    HW223770   1.891   5.000   4.775
 7311SOL     OW23771   9.637  13.333   5.530
 7311SOL    HW123772   9.638  13.237   5.536
 7311SOL    HW223773   9.713  13.361   5.580
 7312SOL     OW23774  12.278  11.770   4.825
 7312SOL    HW123775  12.309  11.851   4.866
 7312SOL    HW223776  12.355  11.734   4.782
 7313SOL     OW23777   4.913   4.082   6.170
 7313SOL    HW123778   4.887   4.135   6.095
 7313SOL    HW223779   4.890   3.992   6.146
 7314SOL     OW23780   2.282   9.581   4.865
 7314SOL    HW123781   2.337   9.587   4.943
 7314SOL    HW223782   2.200   9.622   4.891
 7315SOL     OW23783  11.719   8.142   1.456
 7315SOL    HW123784  11.660   8.072   1.426
 7315SOL    HW223785  11.731   8.124   1.549
 7316SOL     OW23786   7.721   6.330  10.901
 7316SOL    HW123787   7.653   6.268  10.925
 7316SOL    HW223788   7.715   6.336  10.806
 7317SOL     OW23789   4.493   6.363  10.456
 7317SOL    HW123790   4.444   6.306  10.515
 7317SOL    HW223791   4.568   6.392  10.507
 7318SOL     OW23792   1.508   8.445   6.901
 7318SOL    HW123793   1.427   8.446   6.951
 7318SOL    HW223794   1.512   8.356   6.864
 7319SOL     OW23795   3.792   5.959  13.308
 7319SOL    HW123796   3.773   6.037  13.255
 7319SOL    HW223797   3.708   5.913  13.312
 7320SOL     OW23798   7.056   9.274   8.460
 7320SOL    HW123799   7.042   9.182   8.437
 7320SOL    HW223800   7.069   9.318   8.376
 7321SOL     OW23801  11.123  14.315   5.656
 7321SOL    HW123802  11.159  14.299   5.743
 7321SOL    HW223803  11.034  14.347   5.673
 7322SOL     OW23804  11.039   4.455   3.051
 7322SOL    HW123805  11.105   4.400   3.095
 7322SOL    HW223806  11.020   4.409   2.969
 7323SOL     OW23807   2.815  12.554   4.706
 7323SOL    HW123808   2.903  12.516   4.710
 7323SOL    HW223809   2.798  12.565   4.612
 7324SOL     OW23810  11.467   3.178   9.893
 7324SOL    HW123811  11.547   3.204   9.849
 7324SOL    HW223812  11.485   3.089   9.925
 7325SOL     OW23813   0.405   5.964  13.311
 7325SOL    HW123814   0.463   6.017  13.257
 7325SOL    HW223815   0.453   5.882  13.325
 7326SOL     OW23816   0.978   1.141  12.366
 7326SOL    HW123817   0.976   1.154  12.271
 7326SOL    HW223818   0.886   1.129  12.390
 7327SOL     OW23819   6.735   2.866   7.262
 7327SOL    HW123820   6.742   2.774   7.237
 7327SOL    HW223821   6.795   2.875   7.337
 7328SOL     OW23822  12.277  12.461   4.613
 7328SOL    HW123823  12.279  12.556   4.601
 7328SOL    HW223824  12.331  12.426   4.542
 7329SOL     OW23825   8.923   8.408   6.492
 7329SOL    HW123826   8.842   8.377   6.533
 7329SOL    HW223827   8.902   8.413   6.399
 7330SOL     OW23828   2.617  13.763  10.142
 7330SOL    HW123829   2.626  13.671  10.116
 7330SOL    HW223830   2.675  13.810  10.082
 7331SOL     OW23831   7.809   0.508  12.164
 7331SOL    HW123832   7.769   0.595  12.160
 7331SOL    HW223833   7.753   0.454  12.107
 7332SOL     OW23834  14.239  12.148  14.629
 7332SOL    HW123835  14.150  12.123  14.603
 7332SOL    HW223836  14.230  12.173  14.721
 7333SOL     OW23837   2.885   1.162   0.443
 7333SOL    HW123838   2.891   1.089   0.504
 7333SOL    HW223839   2.915   1.126   0.360
 7334SOL     OW23840   3.840   8.607   8.474
 7334SOL    HW123841   3.883   8.573   8.395
 7334SOL    HW223842   3.747   8.609   8.452
 7335SOL     OW23843   6.364   4.462  11.978
 7335SOL    HW123844   6.320   4.450  12.062
 7335SOL    HW223845   6.333   4.390  11.924
 7336SOL     OW23846  14.315   5.951  11.820
 7336SOL    HW123847  14.331   5.909  11.736
 7336SOL    HW223848  14.377   6.023  11.824
 7337SOL     OW23849   1.754  13.726   1.996
 7337SOL    HW123850   1.788  13.671   2.067
 7337SOL    HW223851   1.659  13.712   1.998
 7338SOL     OW23852   8.089   5.020   6.128
 7338SOL    HW123853   8.124   4.933   6.109
 7338SOL    HW223854   8.070   5.057   6.041
 7339SOL     OW23855   7.718   8.001  12.808
 7339SOL    HW123856   7.624   7.983  12.807
 7339SOL    HW223857   7.750   7.958  12.888
 7340SOL     OW23858   6.334   5.149   3.059
 7340SOL    HW123859   6.241   5.126   3.062
 7340SOL    HW223860   6.375   5.075   3.013
 7341SOL     OW23861  13.850   5.359   9.138
 7341SOL    HW123862  13.863   5.294   9.207
 7341SOL    HW223863  13.845   5.443   9.184
 7342SOL     OW23864   3.970  11.583   5.335
 7342SOL    HW123865   4.030  11.641   5.382
 7342SOL    HW223866   3.970  11.617   5.245
 7343SOL     OW23867   1.094   6.998   5.189
 7343SOL    HW123868   1.140   6.984   5.272
 7343SOL    HW223869   1.077   6.910   5.156
 7344SOL     OW23870   3.747   4.932  10.542
 7344SOL    HW123871   3.694   4.852  10.536
 7344SOL    HW223872   3.797   4.922  10.623
 7345SOL     OW23873   2.174   3.341  11.463
 7345SOL    HW123874   2.207   3.420  11.420
 7345SOL    HW223875   2.079   3.346  11.453
 7346SOL     OW23876   8.656   7.311   6.689
 7346SOL    HW123877   8.588   7.304   6.621
 7346SOL    HW223878   8.707   7.388   6.664
 7347SOL     OW23879   3.246   8.451  10.356
 7347SOL    HW123880   3.174   8.395  10.384
 7347SOL    HW223881   3.318   8.390  10.337
 7348SOL     OW23882   7.195   7.563   7.654
 7348SOL    HW123883   7.225   7.474   7.636
 7348SOL    HW223884   7.272   7.608   7.691
 7349SOL     OW23885   8.021   7.888  14.465
 7349SOL    HW123886   8.021   7.899  14.370
 7349SOL    HW223887   8.107   7.919  14.493
 7350SOL     OW23888   7.586  11.052  11.666
 7350SOL    HW123889   7.627  11.015  11.745
 7350SOL    HW223890   7.623  11.140  11.659
 7351SOL     OW23891   5.782   3.534   6.872
 7351SOL    HW123892   5.714   3.468   6.887
 7351SOL    HW223893   5.735   3.613   6.846
 7352SOL     OW23894  12.571   5.513  11.728
 7352SOL    HW123895  12.538   5.471  11.648
 7352SOL    HW223896  12.648   5.562  11.700
 7353SOL     OW23897  14.795   8.350   7.900
 7353SOL    HW123898  14.845   8.426   7.871
 7353SOL    HW223899  14.728   8.386   7.959
 7354SOL     OW23900   8.896   7.419   4.961
 7354SOL    HW123901   8.818   7.438   5.013
 7354SOL    HW223902   8.881   7.465   4.878
 7355SOL     OW23903   3.190   8.676   1.892
 7355SOL    HW123904   3.100   8.665   1.861
 7355SOL    HW223905   3.244   8.635   1.824
 7356SOL     OW23906  12.600   6.442  11.763
 7356SOL    HW123907  12.578   6.359  11.805
 7356SOL    HW223908  12.639   6.418  11.679
 7357SOL     OW23909  10.123   2.859   2.987
 7357SOL    HW123910  10.212   2.875   3.019
 7357SOL    HW223911  10.069   2.923   3.033
 7358SOL     OW23912  14.255  12.048   3.611
 7358SOL    HW123913  14.346  12.021   3.622
 7358SOL    HW223914  14.232  12.017   3.523
 7359SOL     OW23915   6.489   5.107   7.280
 7359SOL    HW123916   6.541   5.166   7.227
 7359SOL    HW223917   6.479   5.028   7.226
 7360SOL     OW23918  10.192   9.814  10.993
 7360SOL    HW123919  10.198   9.746  10.925
 7360SOL    HW223920  10.099   9.815  11.016
 7361SOL     OW23921  13.071  12.972  10.807
 7361SOL    HW123922  13.119  13.022  10.872
 7361SOL    HW223923  12.981  12.971  10.839
 7362SOL     OW23924   3.655  13.253   0.980
 7362SOL    HW123925   3.584  13.222   0.923
 7362SOL    HW223926   3.711  13.177   0.992
 7363SOL     OW23927   6.384   2.775   2.810
 7363SOL    HW123928   6.459   2.827   2.841
 7363SOL    HW223929   6.407   2.754   2.719
 7364SOL     OW23930  10.062  10.778  14.780
 7364SOL    HW123931  10.050  10.850  14.843
 7364SOL    HW223932   9.991  10.717  14.801
 7365SOL     OW23933   1.726  14.305   7.199
 7365SOL    HW123934   1.744  14.234   7.138
 7365SOL    HW223935   1.634  14.294   7.222
 7366SOL     OW23936   8.294   5.527   1.873
 7366SOL    HW123937   8.292   5.592   1.944
 7366SOL    HW223938   8.386   5.505   1.862
 7367SOL     OW23939  14.173   4.677   8.671
 7367SOL    HW123940  14.122   4.735   8.615
 7367SOL    HW223941  14.183   4.724   8.754
 7368SOL     OW23942   8.981   5.779   3.087
 7368SOL    HW123943   8.942   5.848   3.033
 7368SOL    HW223944   8.910   5.716   3.100
 7369SOL     OW23945  10.499   3.386   4.242
 7369SOL    HW123946  10.531   3.311   4.192
 7369SOL    HW223947  10.404   3.372   4.249
 7370SOL     OW23948   2.604  11.210   4.707
 7370SOL    HW123949   2.619  11.115   4.707
 7370SOL    HW223950   2.541  11.224   4.778
 7371SOL     OW23951   6.530   1.902   5.777
 7371SOL    HW123952   6.618   1.892   5.813
 7371SOL    HW223953   6.490   1.970   5.830
 7372SOL     OW23954   7.734   7.406   4.143
 7372SOL    HW123955   7.673   7.350   4.096
 7372SOL    HW223956   7.817   7.357   4.142
 7373SOL     OW23957   5.992   6.471   6.294
 7373SOL    HW123958   6.066   6.481   6.353
 7373SOL    HW223959   6.031   6.457   6.207
 7374SOL     OW23960   6.346  11.618   5.455
 7374SOL    HW123961   6.313  11.682   5.517
 7374SOL    HW223962   6.269  11.569   5.427
 7375SOL     OW23963   7.139   3.247   0.180
 7375SOL    HW123964   7.093   3.164   0.193
 7375SOL    HW223965   7.212   3.244   0.242
 7376SOL     OW23966   9.701  10.301   0.836
 7376SOL    HW123967   9.721  10.335   0.923
 7376SOL    HW223968   9.614  10.263   0.844
 7377SOL     OW23969   9.334   5.404   8.548
 7377SOL    HW123970   9.377   5.460   8.483
 7377SOL    HW223971   9.305   5.328   8.499
 7378SOL     OW23972   3.988   2.748   9.455
 7378SOL    HW123973   3.941   2.765   9.373
 7378SOL    HW223974   3.929   2.778   9.524
 7379SOL     OW23975  13.784   1.312   8.615
 7379SOL    HW123976  13.761   1.287   8.704
 7379SOL    HW223977  13.844   1.244   8.585
 7380SOL     OW23978   3.962   2.120   0.329
 7380SOL    HW123979   3.943   2.044   0.274
 7380SOL    HW223980   3.877   2.159   0.347
 7381SOL     OW23981   8.446   4.676   5.806
 7381SOL    HW123982   8.538   4.649   5.810
 7381SOL    HW223983   8.446   4.767   5.834
 7382SOL     OW23984  13.482   2.045  14.841
 7382SOL    HW123985  13.506   2.061  14.749
 7382SOL    HW223986  13.474   2.133  14.878
 7383SOL     OW23987   0.813  13.356   4.206
 7383SOL    HW123988   0.824  13.308   4.288
 7383SOL    HW223989   0.754  13.302   4.154
 7384SOL     OW23990   2.114  10.850   9.342
 7384SOL    HW123991   2.046  10.849   9.275
 7384SOL    HW223992   2.095  10.928   9.394
 7385SOL     OW23993   1.306  10.999  13.974
 7385SOL    HW123994   1.217  10.970  13.955
 7385SOL    HW223995   1.336  10.941  14.044
 7386SOL     OW23996  10.519   0.601   7.704
 7386SOL    HW123997  10.583   0.641   7.645
 7386SOL    HW223998  10.536   0.642   7.789
 7387SOL     OW23999   0.840   5.847   2.922
 7387SOL    HW124000   0.801   5.863   2.836
 7387SOL    HW224001   0.896   5.770   2.909
 7388SOL     OW24002   6.541  12.091   7.553
 7388SOL    HW124003   6.570  12.066   7.465
 7388SOL    HW224004   6.600  12.043   7.611
 7389SOL     OW24005   4.145   1.666   2.099
 7389SOL    HW124006   4.085   1.603   2.059
 7389SOL    HW224007   4.223   1.664   2.043
 7390SOL     OW24008   8.722   0.099   3.720
 7390SOL    HW124009   8.812   0.073   3.699
 7390SOL    HW224010   8.670   0.061   3.649
 7391SOL     OW24011   6.607   9.302   3.052
 7391SOL    HW124012   6.526   9.314   3.101
 7391SOL    HW224013   6.609   9.374   2.990
 7392SOL     OW24014   3.942   7.260  14.425
 7392SOL    HW124015   3.981   7.177  14.451
 7392SOL    HW224016   3.961   7.267  14.332
 7393SOL     OW24017   8.899  12.861  12.140
 7393SOL    HW124018   8.923  12.864  12.233
 7393SOL    HW224019   8.806  12.884  12.139
 7394SOL     OW24020   3.484   5.549  13.416
 7394SOL    HW124021   3.433   5.561  13.496
 7394SOL    HW224022   3.539   5.472  13.433
 7395SOL     OW24023   8.935   2.821   0.824
 7395SOL    HW124024   8.974   2.810   0.737
 7395SOL    HW224025   8.993   2.882   0.869
 7396SOL     OW24026   9.460   6.402   7.097
 7396SOL    HW124027   9.381   6.448   7.125
 7396SOL    HW224028   9.532   6.457   7.126
 7397SOL     OW24029   6.950   6.517  12.095
 7397SOL    HW124030   6.975   6.428  12.072
 7397SOL    HW224031   6.875   6.506  12.155
 7398SOL     OW24032   4.056   7.732  13.556
 7398SOL    HW124033   4.140   7.746  13.598
 7398SOL    HW224034   3.991   7.754  13.624
 7399SOL     OW24035   4.272   5.020   3.332
 7399SOL    HW124036   4.338   4.972   3.281
 7399SOL    HW224037   4.188   4.989   3.296
 7400SOL     OW24038   4.321  10.178   4.603
 7400SOL    HW124039   4.287  10.114   4.667
 7400SOL    HW224040   4.242  10.221   4.569
 7401SOL     OW24041   1.686  14.004   5.530
 7401SOL    HW124042   1.756  14.061   5.562
 7401SOL    HW224043   1.606  14.038   5.569
 7402SOL     OW24044   5.016   1.426  10.684
 7402SOL    HW124045   5.075   1.500  10.698
 7402SOL    HW224046   4.929   1.465  10.675
 7403SOL     OW24047   2.514  11.785   2.917
 7403SOL    HW124048   2.558  11.806   2.835
 7403SOL    HW224049   2.420  11.794   2.897
 7404SOL     OW24050   8.574   3.914   1.323
 7404SOL    HW124051   8.629   3.992   1.313
 7404SOL    HW224052   8.499   3.944   1.374
 7405SOL     OW24053   5.075  14.129  12.414
 7405SOL    HW124054   5.135  14.179  12.358
 7405SOL    HW224055   5.082  14.039  12.382
 7406SOL     OW24056   5.147   3.679   6.048
 7406SOL    HW124057   5.166   3.676   5.954
 7406SOL    HW224058   5.116   3.591   6.069
 7407SOL     OW24059   9.166   5.983  14.841
 7407SOL    HW124060   9.119   6.047  14.787
 7407SOL    HW224061   9.252   6.023  14.856
 7408SOL     OW24062  10.905   2.306   5.189
 7408SOL    HW124063  10.834   2.242   5.190
 7408SOL    HW224064  10.936   2.309   5.279
 7409SOL     OW24065  13.027   8.014   0.239
 7409SOL    HW124066  13.098   8.058   0.286
 7409SOL    HW224067  12.950   8.068   0.254
 7410SOL     OW24068   3.259   2.514   4.848
 7410SOL    HW124069   3.314   2.584   4.814
 7410SOL    HW224070   3.284   2.437   4.797
 7411SOL     OW24071  12.515  10.044   2.282
 7411SOL    HW124072  12.568  10.121   2.262
 7411SOL    HW224073  12.525  10.032   2.376
 7412SOL     OW24074   9.327   3.017   0.153
 7412SOL    HW124075   9.377   2.937   0.141
 7412SOL    HW224076   9.391   3.088   0.143
 7413SOL     OW24077  12.525   7.098  14.287
 7413SOL    HW124078  12.613   7.128  14.312
 7413SOL    HW224079  12.477   7.091  14.370
 7414SOL     OW24080   4.376  11.884   8.616
 7414SOL    HW124081   4.376  11.797   8.576
 7414SOL    HW224082   4.400  11.868   8.707
 7415SOL     OW24083   6.696   6.120  10.998
 7415SOL    HW124084   6.610   6.085  11.021
 7415SOL    HW224085   6.677   6.193  10.940
 7416SOL     OW24086   7.807  13.328   6.491
 7416SOL    HW124087   7.790  13.264   6.422
 7416SOL    HW224088   7.902  13.341   6.489
 7417SOL     OW24089  14.344  12.516  10.013
 7417SOL    HW124090  14.280  12.459   9.970
 7417SOL    HW224091  14.371  12.577   9.944
 7418SOL     OW24092  11.775   9.985  14.081
 7418SOL    HW124093  11.783  10.046  14.008
 7418SOL    HW224094  11.696   9.934  14.062
 7419SOL     OW24095   9.825   5.395   8.081
 7419SOL    HW124096   9.892   5.370   8.016
 7419SOL    HW224097   9.775   5.465   8.039
 7420SOL     OW24098   8.714   3.885  11.674
 7420SOL    HW124099   8.785   3.828  11.704
 7420SOL    HW224100   8.711   3.873  11.580
 7421SOL     OW24101   3.576   4.835   0.444
 7421SOL    HW124102   3.570   4.759   0.386
 7421SOL    HW224103   3.584   4.798   0.532
 7422SOL     OW24104   3.666  12.148   1.877
 7422SOL    HW124105   3.700  12.091   1.946
 7422SOL    HW224106   3.573  12.158   1.898
 7423SOL     OW24107   3.591   4.595   4.970
 7423SOL    HW124108   3.649   4.614   4.896
 7423SOL    HW224109   3.598   4.672   5.026
 7424SOL     OW24110   2.911   4.808   1.444
 7424SOL    HW124111   2.830   4.776   1.404
 7424SOL    HW224112   2.934   4.885   1.393
 7425SOL     OW24113  11.507   4.637   2.001
 7425SOL    HW124114  11.485   4.719   2.045
 7425SOL    HW224115  11.445   4.632   1.927
 7426SOL     OW24116   2.444  14.813   4.053
 7426SOL    HW124117   2.518  14.758   4.026
 7426SOL    HW224118   2.366  14.765   4.023
 7427SOL     OW24119   8.516   9.613   5.433
 7427SOL    HW124120   8.561   9.576   5.509
 7427SOL    HW224121   8.425   9.621   5.461
 7428SOL     OW24122   3.551   7.307   5.307
 7428SOL    HW124123   3.564   7.381   5.248
 7428SOL    HW224124   3.456   7.300   5.317
 7429SOL     OW24125  11.138   1.897   7.305
 7429SOL    HW124126  11.044   1.916   7.316
 7429SOL    HW224127  11.141   1.803   7.286
 7430SOL     OW24128   9.156   7.248   8.165
 7430SOL    HW124129   9.188   7.206   8.085
 7430SOL    HW224130   9.204   7.206   8.236
 7431SOL     OW24131   7.757   7.970   4.995
 7431SOL    HW124132   7.668   7.961   4.963
 7431SOL    HW224133   7.806   8.005   4.921
 7432SOL     OW24134   3.747  14.691   6.427
 7432SOL    HW124135   3.762  14.623   6.362
 7432SOL    HW224136   3.771  14.650   6.510
 7433SOL     OW24137   5.622  14.007   7.178
 7433SOL    HW124138   5.584  14.070   7.117
 7433SOL    HW224139   5.551  13.946   7.198
 7434SOL     OW24140  11.342   9.390  11.913
 7434SOL    HW124141  11.421   9.441  11.932
 7434SOL    HW224142  11.316   9.419  11.825
 7435SOL     OW24143  11.682   4.242   3.460
 7435SOL    HW124144  11.665   4.227   3.367
 7435SOL    HW224145  11.595   4.247   3.499
 7436SOL     OW24146   6.160   2.423   1.853
 7436SOL    HW124147   6.135   2.371   1.930
 7436SOL    HW224148   6.236   2.474   1.883
 7437SOL     OW24149   7.871  14.795   3.479
 7437SOL    HW124150   7.945  14.793   3.418
 7437SOL    HW224151   7.814  14.724   3.450
 7438SOL     OW24152   4.558  14.324  11.925
 7438SOL    HW124153   4.481  14.324  11.868
 7438SOL    HW224154   4.614  14.255  11.889
 7439SOL     OW24155  13.692   9.202  12.937
 7439SOL    HW124156  13.710   9.148  12.860
 7439SOL    HW224157  13.750   9.167  13.005
 7440SOL     OW24158  14.008   8.851   5.663
 7440SOL    HW124159  14.034   8.913   5.595
 7440SOL    HW224160  13.936   8.895   5.710
 7441SOL     OW24161   3.682   0.665   3.059
 7441SOL    HW124162   3.662   0.725   3.132
 7441SOL    HW224163   3.697   0.581   3.101
 7442SOL     OW24164   3.824  10.977   8.974
 7442SOL    HW124165   3.766  10.950   8.902
 7442SOL    HW224166   3.771  11.038   9.025
 7443SOL     OW24167   5.793   2.068   9.080
 7443SOL    HW124168   5.749   2.108   9.156
 7443SOL    HW224169   5.875   2.118   9.072
 7444SOL     OW24170   9.418   5.982   1.903
 7444SOL    HW124171   9.463   6.060   1.937
 7444SOL    HW224172   9.485   5.914   1.903
 7445SOL     OW24173   1.000   3.963   7.968
 7445SOL    HW124174   1.029   3.876   7.993
 7445SOL    HW224175   1.081   4.013   7.957
 7446SOL     OW24176  11.091  13.129  12.085
 7446SOL    HW124177  11.058  13.213  12.116
 7446SOL    HW224178  11.171  13.115  12.136
 7447SOL     OW24179   2.098   8.984   1.966
 7447SOL    HW124180   2.096   8.897   2.006
 7447SOL    HW224181   2.053   8.973   1.883
 7448SOL     OW24182   7.912   3.360  14.589
 7448SOL    HW124183   7.928   3.278  14.541
 7448SOL    HW224184   7.975   3.422  14.553
 7449SOL     OW24185  13.971   5.533  13.912
 7449SOL    HW124186  13.890   5.533  13.861
 7449SOL    HW224187  14.025   5.466  13.870
 7450SOL     OW24188   6.326   9.828   8.075
 7450SOL    HW124189   6.311   9.880   8.154
 7450SOL    HW224190   6.420   9.833   8.061
 7451SOL     OW24191  14.720   2.342   5.239
 7451SOL    HW124192  14.732   2.316   5.330
 7451SOL    HW224193  14.751   2.267   5.189
 7452SOL     OW24194   0.992   8.576   0.892
 7452SOL    HW124195   0.934   8.500   0.904
 7452SOL    HW224196   0.938   8.640   0.846
 7453SOL     OW24197   8.883   0.499   7.793
 7453SOL    HW124198   8.812   0.518   7.732
 7453SOL    HW224199   8.883   0.404   7.801
 7454SOL     OW24200  14.492  12.638   2.619
 7454SOL    HW124201  14.584  12.634   2.647
 7454SOL    HW224202  14.468  12.547   2.603
 7455SOL     OW24203   7.204  10.845  14.130
 7455SOL    HW124204   7.284  10.831  14.180
 7455SOL    HW224205   7.232  10.838  14.038
 7456SOL     OW24206   8.249   0.717   1.598
 7456SOL    HW124207   8.252   0.660   1.674
 7456SOL    HW224208   8.259   0.806   1.634
 7457SOL     OW24209  11.600   4.595  12.114
 7457SOL    HW124210  11.535   4.525  12.112
 7457SOL    HW224211  11.551   4.672  12.142
 7458SOL     OW24212   7.171  14.278   6.689
 7458SOL    HW124213   7.263  14.275   6.717
 7458SOL    HW224214   7.139  14.362   6.722
 7459SOL     OW24215   6.412   0.405   8.500
 7459SOL    HW124216   6.366   0.331   8.539
 7459SOL    HW224217   6.438   0.375   8.413
 7460SOL     OW24218   9.907  10.967  11.464
 7460SOL    HW124219   9.919  10.904  11.393
 7460SOL    HW224220   9.877  11.047  11.420
 7461SOL     OW24221  13.889   1.466   4.132
 7461SOL    HW124222  13.830   1.500   4.200
 7461SOL    HW224223  13.908   1.541   4.076
 7462SOL     OW24224   9.610  14.855   7.261
 7462SOL    HW124225   9.656   0.053   7.230
 7462SOL    HW224226   9.558   0.006   7.335
 7463SOL     OW24227  11.928   0.153   9.480
 7463SOL    HW124228  11.884   0.108   9.552
 7463SOL    HW224229  11.967   0.082   9.428
 7464SOL     OW24230   8.535  12.439  12.506
 7464SOL    HW124231   8.450  12.429  12.463
 7464SOL    HW224232   8.539  12.531  12.532
 7465SOL     OW24233   7.860   9.393   1.127
 7465SOL    HW124234   7.820   9.314   1.090
 7465SOL    HW224235   7.952   9.371   1.139
 7466SOL     OW24236   6.427   8.959   8.935
 7466SOL    HW124237   6.483   9.036   8.945
 7466SOL    HW224238   6.391   8.943   9.022
 7467SOL     OW24239   3.908   8.633   5.840
 7467SOL    HW124240   3.831   8.688   5.848
 7467SOL    HW224241   3.955   8.644   5.923
 7468SOL     OW24242   9.693  11.297   9.450
 7468SOL    HW124243   9.765  11.235   9.446
 7468SOL    HW224244   9.620  11.253   9.407
 7469SOL     OW24245   4.994   0.674  11.537
 7469SOL    HW124246   4.920   0.700  11.481
 7469SOL    HW224247   5.046   0.616  11.482
 7470SOL     OW24248  10.091  12.965   6.665
 7470SOL    HW124249  10.073  12.872   6.661
 7470SOL    HW224250  10.032  13.004   6.601
 7471SOL     OW24251  10.516   8.364   5.927
 7471SOL    HW124252  10.480   8.292   5.876
 7471SOL    HW224253  10.481   8.351   6.015
 7472SOL     OW24254  10.420   8.736   0.249
 7472SOL    HW124255  10.483   8.807   0.237
 7472SOL    HW224256  10.411   8.697   0.162
 7473SOL     OW24257  14.584  13.611   9.653
 7473SOL    HW124258  14.659  13.662   9.684
 7473SOL    HW224259  14.615  13.520   9.657
 7474SOL     OW24260  12.267   6.690   0.982
 7474SOL    HW124261  12.218   6.769   0.959
 7474SOL    HW224262  12.257   6.683   1.077
 7475SOL     OW24263   9.645   9.590  11.794
 7475SOL    HW124264   9.554   9.609  11.770
 7475SOL    HW224265   9.693   9.592  11.711
 7476SOL     OW24266   9.648  11.218  14.705
 7476SOL    HW124267   9.674  11.227  14.614
 7476SOL    HW224268   9.607  11.302  14.727
 7477SOL     OW24269   4.432   9.025   2.218
 7477SOL    HW124270   4.518   8.987   2.203
 7477SOL    HW224271   4.397   8.976   2.293
 7478SOL     OW24272   9.990   6.474  11.476
 7478SOL    HW124273   9.897   6.454  11.486
 7478SOL    HW224274   9.992   6.567  11.455
 7479SOL     OW24275  13.332   5.703  11.329
 7479SOL    HW124276  13.306   5.752  11.407
 7479SOL    HW224277  13.269   5.631  11.323
 7480SOL     OW24278   7.969  12.304   9.981
 7480SOL    HW124279   8.037  12.371   9.967
 7480SOL    HW224280   8.016  12.230  10.019
 7481SOL     OW24281   9.840  14.405   2.140
 7481SOL    HW124282   9.825  14.326   2.192
 7481SOL    HW224283   9.758  14.455   2.148
 7482SOL     OW24284   9.834  12.100   7.147
 7482SOL    HW124285   9.850  12.016   7.190
 7482SOL    HW224286   9.860  12.086   7.056
 7483SOL     OW24287   2.961   5.498  10.725
 7483SOL    HW124288   2.904   5.442  10.674
 7483SOL    HW224289   3.045   5.452  10.728
 7484SOL     OW24290   6.645   6.701   0.649
 7484SOL    HW124291   6.610   6.615   0.672
 7484SOL    HW224292   6.586   6.763   0.693
 7485SOL     OW24293  14.240  11.933   0.621
 7485SOL    HW124294  14.147  11.954   0.629
 7485SOL    HW224295  14.255  11.866   0.688
 7486SOL     OW24296   2.896   7.078  12.739
 7486SOL    HW124297   2.979   7.075  12.787
 7486SOL    HW224298   2.831   7.100  12.806
 7487SOL     OW24299   7.149   2.886   4.601
 7487SOL    HW124300   7.142   2.960   4.540
 7487SOL    HW224301   7.063   2.845   4.601
 7488SOL     OW24302   4.308   5.656   8.407
 7488SOL    HW124303   4.258   5.732   8.377
 7488SOL    HW224304   4.396   5.671   8.372
 7489SOL     OW24305  11.852  10.403   3.490
 7489SOL    HW124306  11.906  10.393   3.568
 7489SOL    HW224307  11.891  10.476   3.442
 7490SOL     OW24308   0.075  11.591  12.111
 7490SOL    HW124309   0.081  11.677  12.070
 7490SOL    HW224310   0.114  11.531  12.047
 7491SOL     OW24311  13.771   5.688   6.420
 7491SOL    HW124312  13.861   5.714   6.442
 7491SOL    HW224313  13.727   5.682   6.504
 7492SOL     OW24314   3.910   6.721  14.794
 7492SOL    HW124315   3.869   6.727   0.001
 7492SOL    HW224316   3.977   6.789  14.794
 7493SOL     OW24317  13.454   4.934   6.353
 7493SOL    HW124318  13.377   4.987   6.374
 7493SOL    HW224319  13.528   4.994   6.364
 7494SOL     OW24320   6.257   9.472  12.800
 7494SOL    HW124321   6.265   9.410  12.727
 7494SOL    HW224322   6.280   9.421  12.877
 7495SOL     OW24323   7.792   9.536  14.208
 7495SOL    HW124324   7.793   9.538  14.112
 7495SOL    HW224325   7.872   9.489  14.231
 7496SOL     OW24326  14.543   2.267  10.483
 7496SOL    HW124327  14.511   2.315  10.559
 7496SOL    HW224328  14.514   2.319  10.408
 7497SOL     OW24329   6.134  13.003  13.799
 7497SOL    HW124330   6.229  12.993  13.795
 7497SOL    HW224331   6.108  12.961  13.881
 7498SOL     OW24332   0.367   4.371  14.098
 7498SOL    HW124333   0.426   4.419  14.040
 7498SOL    HW224334   0.282   4.377  14.055
 7499SOL     OW24335   1.811  10.350   7.005
 7499SOL    HW124336   1.734  10.380   7.054
 7499SOL    HW224337   1.852  10.285   7.063
 7500SOL     OW24338  13.093   9.274   8.601
 7500SOL    HW124339  13.102   9.305   8.511
 7500SOL    HW224340  13.070   9.353   8.651
 7501SOL     OW24341   5.852   4.377  14.339
 7501SOL    HW124342   5.826   4.288  14.360
 7501SOL    HW224343   5.773   4.430  14.352
 7502SOL     OW24344  12.289  14.594   2.353
 7502SOL    HW124345  12.223  14.659   2.327
 7502SOL    HW224346  12.372  14.642   2.349
 7503SOL     OW24347   3.182  11.667  14.314
 7503SOL    HW124348   3.270  11.685  14.279
 7503SOL    HW224349   3.128  11.655  14.236
 7504SOL     OW24350   2.204  14.055  10.966
 7504SOL    HW124351   2.142  13.983  10.949
 7504SOL    HW224352   2.177  14.123  10.904
 7505SOL     OW24353  13.886   7.966   1.424
 7505SOL    HW124354  13.861   7.874   1.413
 7505SOL    HW224355  13.830   8.014   1.363
 7506SOL     OW24356  10.627   4.283  14.682
 7506SOL    HW124357  10.698   4.248  14.627
 7506SOL    HW224358  10.558   4.217  14.675
 7507SOL     OW24359   5.592   7.493   4.470
 7507SOL    HW124360   5.597   7.489   4.374
 7507SOL    HW224361   5.516   7.441   4.493
 7508SOL     OW24362   6.773   6.308   4.515
 7508SOL    HW124363   6.853   6.291   4.565
 7508SOL    HW224364   6.757   6.401   4.527
 7509SOL     OW24365   9.102   2.054   5.668
 7509SOL    HW124366   9.137   2.131   5.713
 7509SOL    HW224367   9.166   2.035   5.599
 7510SOL     OW24368   4.827  11.292   4.151
 7510SOL    HW124369   4.769  11.322   4.221
 7510SOL    HW224370   4.769  11.253   4.087
 7511SOL     OW24371   8.144   3.212   1.530
 7511SOL    HW124372   8.180   3.124   1.544
 7511SOL    HW224373   8.049   3.200   1.535
 7512SOL     OW24374   3.216   4.741   8.427
 7512SOL    HW124375   3.263   4.725   8.509
 7512SOL    HW224376   3.167   4.822   8.442
 7513SOL     OW24377   5.241  10.257   6.962
 7513SOL    HW124378   5.314  10.195   6.956
 7513SOL    HW224379   5.163  10.204   6.943
 7514SOL     OW24380  12.971  13.956   7.607
 7514SOL    HW124381  12.877  13.942   7.620
 7514SOL    HW224382  13.010  13.938   7.693
 7515SOL     OW24383  13.421   1.927   5.743
 7515SOL    HW124384  13.409   1.909   5.836
 7515SOL    HW224385  13.468   2.011   5.740
 7516SOL     OW24386   1.863   3.979   2.946
 7516SOL    HW124387   1.865   3.892   2.907
 7516SOL    HW224388   1.951   4.014   2.933
 7517SOL     OW24389   7.766   0.563  11.202
 7517SOL    HW124390   7.770   0.645  11.253
 7517SOL    HW224391   7.849   0.560  11.155
 7518SOL     OW24392   2.028   6.484   9.658
 7518SOL    HW124393   2.119   6.511   9.648
 7518SOL    HW224394   1.984   6.559   9.696
 7519SOL     OW24395  11.949   6.053  10.909
 7519SOL    HW124396  11.941   6.006  10.992
 7519SOL    HW224397  11.883   6.122  10.914
 7520SOL     OW24398   0.060  14.291   4.099
 7520SOL    HW124399   0.044  14.218   4.040
 7520SOL    HW224400   0.155  14.300   4.101
 7521SOL     OW24401  13.559  12.638   8.946
 7521SOL    HW124402  13.553  12.659   9.039
 7521SOL    HW224403  13.499  12.701   8.904
 7522SOL     OW24404   2.972  12.160   4.977
 7522SOL    HW124405   2.906  12.208   4.928
 7522SOL    HW224406   3.044  12.223   4.988
 7523SOL     OW24407  11.358  14.327   6.630
 7523SOL    HW124408  11.359  14.414   6.669
 7523SOL    HW224409  11.318  14.340   6.544
 7524SOL     OW24410  13.233   2.112  10.462
 7524SOL    HW124411  13.215   2.112  10.556
 7524SOL    HW224412  13.230   2.205  10.437
 7525SOL     OW24413  14.425  14.421   2.827
 7525SOL    HW124414  14.362  14.352   2.805
 7525SOL    HW224415  14.509  14.386   2.798
 7526SOL     OW24416   2.470   0.455   5.975
 7526SOL    HW124417   2.521   0.503   5.909
 7526SOL    HW224418   2.416   0.523   6.017
 7527SOL     OW24419   8.059  10.883   9.814
 7527SOL    HW124420   8.011  10.808   9.849
 7527SOL    HW224421   8.065  10.867   9.720
 7528SOL     OW24422   2.611  14.766  13.403
 7528SOL    HW124423   2.576  14.849  13.436
 7528SOL    HW224424   2.576  14.759  13.314
 7529SOL     OW24425  12.299  10.565  14.721
 7529SOL    HW124426  12.236  10.636  14.735
 7529SOL    HW224427  12.246  10.486  14.717
 7530SOL     OW24428  13.459  14.723   1.391
 7530SOL    HW124429  13.494  14.690   1.308
 7530SOL    HW224430  13.398  14.655   1.420
 7531SOL     OW24431  13.225   2.839   2.177
 7531SOL    HW124432  13.180   2.822   2.094
 7531SOL    HW224433  13.155   2.857   2.239
 7532SOL     OW24434  12.462   4.865   8.257
 7532SOL    HW124435  12.505   4.837   8.338
 7532SOL    HW224436  12.373   4.831   8.264
 7533SOL     OW24437   6.514   7.067   1.782
 7533SOL    HW124438   6.459   7.085   1.858
 7533SOL    HW224439   6.455   7.076   1.707
 7534SOL     OW24440   5.133  12.849   8.264
 7534SOL    HW124441   5.072  12.923   8.258
 7534SOL    HW224442   5.077  12.773   8.276
 7535SOL     OW24443   4.044  13.167   6.683
 7535SOL    HW124444   4.083  13.239   6.632
 7535SOL    HW224445   4.093  13.166   6.765
 7536SOL     OW24446  11.744   1.188   1.259
 7536SOL    HW124447  11.734   1.143   1.175
 7536SOL    HW224448  11.752   1.117   1.323
 7537SOL     OW24449   5.371   1.934  12.845
 7537SOL    HW124450   5.334   1.984  12.918
 7537SOL    HW224451   5.350   1.843  12.864
 7538SOL     OW24452  12.695  11.611  10.176
 7538SOL    HW124453  12.679  11.698  10.140
 7538SOL    HW224454  12.612  11.585  10.216
 7539SOL     OW24455  10.889  12.234   6.770
 7539SOL    HW124456  10.929  12.252   6.685
 7539SOL    HW224457  10.961  12.198   6.823
 7540SOL     OW24458   6.311   4.957   4.300
 7540SOL    HW124459   6.330   5.047   4.272
 7540SOL    HW224460   6.315   4.960   4.395
 7541SOL     OW24461   9.961   4.746   6.580
 7541SOL    HW124462   9.958   4.651   6.572
 7541SOL    HW224463   9.871   4.774   6.564
 7542SOL     OW24464  11.153   5.730   7.205
 7542SOL    HW124465  11.216   5.705   7.137
 7542SOL    HW224466  11.154   5.825   7.205
 7543SOL     OW24467  13.983  10.207   8.462
 7543SOL    HW124468  14.075  10.232   8.447
 7543SOL    HW224469  13.939  10.230   8.380
 7544SOL     OW24470   0.276   8.284   2.018
 7544SOL    HW124471   0.251   8.258   2.107
 7544SOL    HW224472   0.361   8.244   2.004
 7545SOL     OW24473   5.149   1.453  13.530
 7545SOL    HW124474   5.099   1.506  13.591
 7545SOL    HW224475   5.086   1.427  13.463
 7546SOL     OW24476  13.232  10.302   2.670
 7546SOL    HW124477  13.279  10.225   2.638
 7546SOL    HW224478  13.300  10.367   2.688
 7547SOL     OW24479   5.449  10.969   8.297
 7547SOL    HW124480   5.519  10.942   8.237
 7547SOL    HW224481   5.493  10.977   8.382
 7548SOL     OW24482   5.060  10.770   5.711
 7548SOL    HW124483   4.969  10.764   5.683
 7548SOL    HW224484   5.060  10.835   5.782
 7549SOL     OW24485   2.980   4.009  13.924
 7549SOL    HW124486   2.983   4.058  13.842
 7549SOL    HW224487   3.010   4.072  13.990
 7550SOL     OW24488   8.378   7.807  12.380
 7550SOL    HW124489   8.429   7.788  12.302
 7550SOL    HW224490   8.376   7.902  12.385
 7551SOL     OW24491   2.574   4.515  12.476
 7551SOL    HW124492   2.518   4.452  12.430
 7551SOL    HW224493   2.531   4.528  12.560
 7552SOL     OW24494   4.568  14.136   3.757
 7552SOL    HW124495   4.486  14.145   3.804
 7552SOL    HW224496   4.635  14.128   3.825
 7553SOL     OW24497  12.094   3.781   1.224
 7553SOL    HW124498  12.064   3.692   1.205
 7553SOL    HW224499  12.096   3.824   1.139
 7554SOL     OW24500  11.967   8.803   1.333
 7554SOL    HW124501  11.953   8.745   1.407
 7554SOL    HW224502  11.966   8.891   1.371
 7555SOL     OW24503   3.998  10.266   6.695
 7555SOL    HW124504   3.982  10.211   6.772
 7555SOL    HW224505   3.952  10.222   6.624
 7556SOL     OW24506   0.102   8.267   8.712
 7556SOL    HW124507   0.072   8.331   8.777
 7556SOL    HW224508   0.108   8.317   8.631
 7557SOL     OW24509   3.994   2.589   4.891
 7557SOL    HW124510   4.010   2.668   4.944
 7557SOL    HW224511   4.059   2.595   4.821
 7558SOL     OW24512   8.590   3.004   3.411
 7558SOL    HW124513   8.520   3.025   3.349
 7558SOL    HW224514   8.664   2.978   3.356
 7559SOL     OW24515   8.498  10.100  12.064
 7559SOL    HW124516   8.576  10.075  12.112
 7559SOL    HW224517   8.530  10.121  11.976
 7560SOL     OW24518   5.506   1.982   6.670
 7560SOL    HW124519   5.468   1.950   6.589
 7560SOL    HW224520   5.541   1.904   6.714
 7561SOL     OW24521  11.135   9.606   7.841
 7561SOL    HW124522  11.183   9.527   7.868
 7561SOL    HW224523  11.125   9.657   7.921
 7562SOL     OW24524  11.986   3.051  10.858
 7562SOL    HW124525  11.993   3.042  10.953
 7562SOL    HW224526  11.973   2.962  10.827
 7563SOL     OW24527  10.055  10.489   4.809
 7563SOL    HW124528  10.023  10.530   4.889
 7563SOL    HW224529  10.053  10.395   4.826
 7564SOL     OW24530  14.117  13.311   3.438
 7564SOL    HW124531  14.093  13.397   3.471
 7564SOL    HW224532  14.149  13.263   3.514
 7565SOL     OW24533   6.733   5.664   5.890
 7565SOL    HW124534   6.825   5.685   5.905
 7565SOL    HW224535   6.735   5.582   5.840
 7566SOL     OW24536   2.314  11.017   1.952
 7566SOL    HW124537   2.257  10.995   2.026
 7566SOL    HW224538   2.254  11.046   1.884
 7567SOL     OW24539  10.808   4.058   8.736
 7567SOL    HW124540  10.902   4.070   8.726
 7567SOL    HW224541  10.792   4.069   8.830
 7568SOL     OW24542   9.959   0.211   3.669
 7568SOL    HW124543  10.045   0.247   3.690
 7568SOL    HW224544   9.935   0.254   3.586
 7569SOL     OW24545  10.873  12.975   9.128
 7569SOL    HW124546  10.961  12.946   9.155
 7569SOL    HW224547  10.823  12.979   9.210
 7570SOL     OW24548   9.514   0.770   1.186
 7570SOL    HW124549   9.466   0.742   1.264
 7570SOL    HW224550   9.472   0.723   1.114
 7571SOL     OW24551   8.787   9.305  11.539
 7571SOL    HW124552   8.759   9.251  11.466
 7571SOL    HW224553   8.882   9.289  11.545
 7572SOL     OW24554  11.847   6.718   3.525
 7572SOL    HW124555  11.756   6.729   3.498
 7572SOL    HW224556  11.847   6.734   3.619
 7573SOL     OW24557  14.345   2.520   7.954
 7573SOL    HW124558  14.359   2.608   7.919
 7573SOL    HW224559  14.318   2.468   7.879
 7574SOL     OW24560   0.157   4.500   8.933
 7574SOL    HW124561   0.177   4.449   8.855
 7574SOL    HW224562   0.150   4.590   8.902
 7575SOL     OW24563   1.986   1.143  11.081
 7575SOL    HW124564   1.937   1.212  11.125
 7575SOL    HW224565   1.942   1.132  10.997
 7576SOL     OW24566  10.709  13.683   6.850
 7576SOL    HW124567  10.686  13.769   6.815
 7576SOL    HW224568  10.687  13.622   6.779
 7577SOL     OW24569   4.013   0.221   0.342
 7577SOL    HW124570   4.047   0.164   0.274
 7577SOL    HW224571   4.077   0.214   0.413
 7578SOL     OW24572  10.384   4.422   4.078
 7578SOL    HW124573  10.372   4.515   4.094
 7578SOL    HW224574  10.471   4.402   4.114
 7579SOL     OW24575  13.489   1.940  14.369
 7579SOL    HW124576  13.461   1.886  14.296
 7579SOL    HW224577  13.447   1.901  14.446
 7580SOL     OW24578   5.949   3.631   8.246
 7580SOL    HW124579   5.904   3.577   8.311
 7580SOL    HW224580   5.942   3.720   8.279
 7581SOL     OW24581   0.315   7.806   5.883
 7581SOL    HW124582   0.291   7.714   5.869
 7581SOL    HW224583   0.338   7.838   5.796
 7582SOL     OW24584   8.776  11.812   5.646
 7582SOL    HW124585   8.802  11.902   5.660
 7582SOL    HW224586   8.703  11.797   5.707
 7583SOL     OW24587   1.251   4.272   4.113
 7583SOL    HW124588   1.325   4.233   4.066
 7583SOL    HW224589   1.290   4.339   4.169
 7584SOL     OW24590   5.693  12.771   3.697
 7584SOL    HW124591   5.689  12.742   3.788
 7584SOL    HW224592   5.775  12.734   3.663
 7585SOL     OW24593   3.463  14.741   2.735
 7585SOL    HW124594   3.516  14.677   2.688
 7585SOL    HW224595   3.380  14.742   2.688
 7586SOL     OW24596   8.502  11.939   3.201
 7586SOL    HW124597   8.535  11.987   3.125
 7586SOL    HW224598   8.499  12.005   3.271
 7587SOL     OW24599  13.266   3.392   7.009
 7587SOL    HW124600  13.177   3.386   6.974
 7587SOL    HW224601  13.311   3.315   6.973
 7588SOL     OW24602   8.735   4.393  11.166
 7588SOL    HW124603   8.805   4.435  11.116
 7588SOL    HW224604   8.779   4.333  11.225
 7589SOL     OW24605   6.711  11.036   3.674
 7589SOL    HW124606   6.736  10.944   3.689
 7589SOL    HW224607   6.728  11.079   3.758
 7590SOL     OW24608   4.443   2.287   0.385
 7590SOL    HW124609   4.453   2.262   0.293
 7590SOL    HW224610   4.352   2.317   0.392
 7591SOL     OW24611   1.554   0.090  13.604
 7591SOL    HW124612   1.591   0.071  13.690
 7591SOL    HW224613   1.613   0.045  13.543
 7592SOL     OW24614   2.237   1.840  10.212
 7592SOL    HW124615   2.263   1.801  10.295
 7592SOL    HW224616   2.238   1.934  10.228
 7593SOL     OW24617   2.704  13.269  10.541
 7593SOL    HW124618   2.697  13.180  10.577
 7593SOL    HW224619   2.797  13.289  10.545
 7594SOL     OW24620  11.536  14.353   6.360
 7594SOL    HW124621  11.563  14.298   6.434
 7594SOL    HW224622  11.530  14.441   6.397
 7595SOL     OW24623  11.758   9.835   9.694
 7595SOL    HW124624  11.739   9.922   9.659
 7595SOL    HW224625  11.820   9.852   9.765
 7596SOL     OW24626   0.630  13.882   4.236
 7596SOL    HW124627   0.660  13.807   4.184
 7596SOL    HW224628   0.630  13.849   4.327
 7597SOL     OW24629   0.559   5.019   1.462
 7597SOL    HW124630   0.576   5.051   1.551
 7597SOL    HW224631   0.602   5.083   1.405
 7598SOL     OW24632   3.937   1.917  13.054
 7598SOL    HW124633   3.875   1.971  13.104
 7598SOL    HW224634   3.881   1.856  13.005
 7599SOL     OW24635   1.774   8.640   7.881
 7599SOL    HW124636   1.839   8.678   7.822
 7599SOL    HW224637   1.715   8.591   7.824
 7600SOL     OW24638   0.704  12.011   7.132
 7600SOL    HW124639   0.769  12.038   7.067
 7600SOL    HW224640   0.712  12.076   7.202
 7601SOL     OW24641   5.200   9.723   7.506
 7601SOL    HW124642   5.257   9.737   7.430
 7601SOL    HW224643   5.112   9.712   7.468
 7602SOL     OW24644   4.093  10.618  12.110
 7602SOL    HW124645   4.178  10.628  12.153
 7602SOL    HW224646   4.106  10.546  12.048
 7603SOL     OW24647   2.017   3.769   2.472
 7603SOL    HW124648   1.955   3.819   2.420
 7603SOL    HW224649   1.984   3.776   2.562
 7604SOL     OW24650   7.148   7.105   8.895
 7604SOL    HW124651   7.093   7.040   8.852
 7604SOL    HW224652   7.138   7.184   8.841
 7605SOL     OW24653   6.228  12.042   1.171
 7605SOL    HW124654   6.299  12.099   1.143
 7605SOL    HW224655   6.230  11.970   1.108
 7606SOL     OW24656  11.731   0.667   5.607
 7606SOL    HW124657  11.650   0.715   5.626
 7606SOL    HW224658  11.725   0.588   5.662
 7607SOL     OW24659   5.741  14.182   6.476
 7607SOL    HW124660   5.776  14.242   6.411
 7607SOL    HW224661   5.788  14.100   6.460
 7608SOL     OW24662   3.173  13.224   9.897
 7608SOL    HW124663   3.250  13.200   9.844
 7608SOL    HW224664   3.207  13.235   9.985
 7609SOL     OW24665   4.894   4.343   7.441
 7609SOL    HW124666   4.850   4.303   7.366
 7609SOL    HW224667   4.920   4.269   7.496
 7610SOL     OW24668   8.261  13.207  12.390
 7610SOL    HW124669   8.305  13.166  12.464
 7610SOL    HW224670   8.207  13.137  12.352
 7611SOL     OW24671   1.695   9.766   7.598
 7611SOL    HW124672   1.777   9.796   7.559
 7611SOL    HW224673   1.716   9.747   7.689
 7612SOL     OW24674  13.321   3.964   8.519
 7612SOL    HW124675  13.336   3.943   8.427
 7612SOL    HW224676  13.395   4.018   8.544
 7613SOL     OW24677   5.555   9.540   2.193
 7613SOL    HW124678   5.485   9.474   2.187
 7613SOL    HW224679   5.549   9.588   2.110
 7614SOL     OW24680   6.511   0.600  11.688
 7614SOL    HW124681   6.578   0.619  11.754
 7614SOL    HW224682   6.434   0.650  11.716
 7615SOL     OW24683  11.150   5.056   8.792
 7615SOL    HW124684  11.211   5.004   8.741
 7615SOL    HW224685  11.065   5.041   8.750
 7616SOL     OW24686   6.426   5.393   3.840
 7616SOL    HW124687   6.426   5.486   3.818
 7616SOL    HW224688   6.470   5.388   3.925
 7617SOL     OW24689  13.226   4.247  14.414
 7617SOL    HW124690  13.275   4.184  14.466
 7617SOL    HW224691  13.206   4.201  14.333
 7618SOL     OW24692  10.067  11.910   4.003
 7618SOL    HW124693  10.144  11.873   3.960
 7618SOL    HW224694  10.078  11.886   4.095
 7619SOL     OW24695   3.985   7.939   5.018
 7619SOL    HW124696   3.960   7.913   5.107
 7619SOL    HW224697   4.066   7.987   5.028
 7620SOL     OW24698  14.737  13.082  11.172
 7620SOL    HW124699  14.732  12.986  11.170
 7620SOL    HW224700  14.652  13.111  11.138
 7621SOL     OW24701   0.964   5.552   9.939
 7621SOL    HW124702   0.887   5.504   9.911
 7621SOL    HW224703   0.946   5.577  10.029
 7622SOL     OW24704   4.684   8.230   9.635
 7622SOL    HW124705   4.672   8.315   9.592
 7622SOL    HW224706   4.646   8.167   9.575
 7623SOL     OW24707  13.448  10.962   7.238
 7623SOL    HW124708  13.481  10.933   7.153
 7623SOL    HW224709  13.385  10.894   7.264
 7624SOL     OW24710   6.920  11.416   6.974
 7624SOL    HW124711   6.867  11.338   6.959
 7624SOL    HW224712   6.909  11.468   6.894
 7625SOL     OW24713   2.410   1.521   2.349
 7625SOL    HW124714   2.470   1.492   2.281
 7625SOL    HW224715   2.335   1.556   2.302
 7626SOL     OW24716  14.439   0.458  11.781
 7626SOL    HW124717  14.480   0.485  11.699
 7626SOL    HW224718  14.363   0.516  11.790
 7627SOL     OW24719   9.791  14.122   5.545
 7627SOL    HW124720   9.744  14.038   5.544
 7627SOL    HW224721   9.808  14.140   5.453
 7628SOL     OW24722   6.802  12.268   7.687
 7628SOL    HW124723   6.875  12.215   7.655
 7628SOL    HW224724   6.730  12.248   7.627
 7629SOL     OW24725   7.009  13.108   0.523
 7629SOL    HW124726   7.010  13.069   0.435
 7629SOL    HW224727   6.932  13.071   0.565
 7630SOL     OW24728   8.231   7.917   9.239
 7630SOL    HW124729   8.195   8.000   9.207
 7630SOL    HW224730   8.194   7.907   9.326
 7631SOL     OW24731   1.506   6.283   7.302
 7631SOL    HW124732   1.535   6.192   7.303
 7631SOL    HW224733   1.587   6.334   7.300
 7632SOL     OW24734   7.012   6.978   5.821
 7632SOL    HW124735   6.973   6.895   5.848
 7632SOL    HW224736   6.940   7.025   5.779
 7633SOL     OW24737  10.089   8.809   9.124
 7633SOL    HW124738  10.176   8.771   9.134
 7633SOL    HW224739  10.048   8.796   9.210
 7634SOL     OW24740   6.997  12.498   8.632
 7634SOL    HW124741   6.982  12.446   8.554
 7634SOL    HW224742   7.089  12.526   8.625
 7635SOL     OW24743   4.208   3.830  12.759
 7635SOL    HW124744   4.220   3.907  12.703
 7635SOL    HW224745   4.235   3.757  12.704
 7636SOL     OW24746   6.483   6.559   7.152
 7636SOL    HW124747   6.404   6.581   7.202
 7636SOL    HW224748   6.504   6.469   7.178
 7637SOL     OW24749  10.665   2.414  12.136
 7637SOL    HW124750  10.683   2.336  12.082
 7637SOL    HW224751  10.660   2.486  12.073
 7638SOL     OW24752  12.809  10.323   2.385
 7638SOL    HW124753  12.814  10.418   2.388
 7638SOL    HW224754  12.893  10.294   2.422
 7639SOL     OW24755   8.449   9.318  12.263
 7639SOL    HW124756   8.511   9.391  12.268
 7639SOL    HW224757   8.380   9.349  12.204
 7640SOL     OW24758   1.945   6.549  11.770
 7640SOL    HW124759   1.850   6.550  11.760
 7640SOL    HW224760   1.976   6.491  11.701
 7641SOL     OW24761   7.783   1.188  11.457
 7641SOL    HW124762   7.776   1.150  11.545
 7641SOL    HW224763   7.732   1.129  11.401
 7642SOL     OW24764   3.126   3.365   8.643
 7642SOL    HW124765   3.195   3.427   8.668
 7642SOL    HW224766   3.070   3.415   8.583
 7643SOL     OW24767   2.073   4.978   9.505
 7643SOL    HW124768   1.991   4.928   9.507
 7643SOL    HW224769   2.065   5.032   9.427
 7644SOL     OW24770   9.143  11.077  14.295
 7644SOL    HW124771   9.086  11.117  14.230
 7644SOL    HW224772   9.164  11.147  14.356
 7645SOL     OW24773   2.849  10.101   1.705
 7645SOL    HW124774   2.789  10.030   1.681
 7645SOL    HW224775   2.843  10.163   1.633
 7646SOL     OW24776  13.807  10.608  12.146
 7646SOL    HW124777  13.792  10.646  12.060
 7646SOL    HW224778  13.740  10.540  12.155
 7647SOL     OW24779  12.621  12.204   2.567
 7647SOL    HW124780  12.709  12.170   2.583
 7647SOL    HW224781  12.581  12.140   2.508
 7648SOL     OW24782  11.292  14.245   2.274
 7648SOL    HW124783  11.285  14.254   2.369
 7648SOL    HW224784  11.219  14.187   2.251
 7649SOL     OW24785   8.615   9.105   6.424
 7649SOL    HW124786   8.646   9.044   6.490
 7649SOL    HW224787   8.669   9.087   6.347
 7650SOL     OW24788   6.142  12.175  14.191
 7650SOL    HW124789   6.137  12.176  14.286
 7650SOL    HW224790   6.192  12.253  14.168
 7651SOL     OW24791  11.107   8.612  10.959
 7651SOL    HW124792  11.137   8.537  10.908
 7651SOL    HW224793  11.186   8.647  10.999
 7652SOL     OW24794   4.271   8.008   6.171
 7652SOL    HW124795   4.292   7.959   6.092
 7652SOL    HW224796   4.209   7.951   6.218
 7653SOL     OW24797  14.282  11.206   1.070
 7653SOL    HW124798  14.193  11.214   1.035
 7653SOL    HW224799  14.301  11.292   1.108
 7654SOL     OW24800   3.599   4.151   6.151
 7654SOL    HW124801   3.646   4.068   6.155
 7654SOL    HW224802   3.538   4.147   6.225
 7655SOL     OW24803   6.756  11.029  13.473
 7655SOL    HW124804   6.755  11.120  13.443
 7655SOL    HW224805   6.831  10.990  13.429
 7656SOL     OW24806  14.338   8.384  10.742
 7656SOL    HW124807  14.326   8.374  10.648
 7656SOL    HW224808  14.393   8.461  10.752
 7657SOL     OW24809   6.104   5.899  12.604
 7657SOL    HW124810   6.087   5.876  12.695
 7657SOL    HW224811   6.112   5.995  12.605
 7658SOL     OW24812   8.528  12.353  10.128
 7658SOL    HW124813   8.446  12.304  10.129
 7658SOL    HW224814   8.507  12.435  10.082
 7659SOL     OW24815   0.931  10.217   3.766
 7659SOL    HW124816   0.931  10.281   3.695
 7659SOL    HW224817   0.990  10.254   3.832
 7660SOL     OW24818   3.146  14.645   8.562
 7660SOL    HW124819   3.241  14.658   8.555
 7660SOL    HW224820   3.136  14.586   8.637
 7661SOL     OW24821  11.743   8.937   2.786
 7661SOL    HW124822  11.701   8.956   2.702
 7661SOL    HW224823  11.707   8.853   2.813
 7662SOL     OW24824  14.108   6.614   8.713
 7662SOL    HW124825  14.110   6.709   8.718
 7662SOL    HW224826  14.076   6.587   8.799
 7663SOL     OW24827   4.468   0.194   6.727
 7663SOL    HW124828   4.539   0.133   6.706
 7663SOL    HW224829   4.453   0.181   6.821
 7664SOL     OW24830   1.491   6.331  14.865
 7664SOL    HW124831   1.580   6.295  14.862
 7664SOL    HW224832   1.501   6.421  14.834
 7665SOL     OW24833   1.980  11.585  10.502
 7665SOL    HW124834   2.017  11.531  10.432
 7665SOL    HW224835   1.962  11.524  10.573
 7666SOL     OW24836   2.099  12.475   5.069
 7666SOL    HW124837   2.066  12.543   5.127
 7666SOL    HW224838   2.093  12.395   5.121
 7667SOL     OW24839  13.072  11.506  12.526
 7667SOL    HW124840  13.165  11.522  12.542
 7667SOL    HW224841  13.043  11.457  12.604
 7668SOL     OW24842   7.453   3.093   0.013
 7668SOL    HW124843   7.457   3.027   0.081
 7668SOL    HW224844   7.379   3.149   0.039
 7669SOL     OW24845  13.889   8.612  11.734
 7669SOL    HW124846  13.974   8.636  11.696
 7669SOL    HW224847  13.828   8.677  11.700
 7670SOL     OW24848  12.070  14.353   1.248
 7670SOL    HW124849  12.000  14.308   1.295
 7670SOL    HW224850  12.119  14.284   1.204
 7671SOL     OW24851   8.178  13.435  13.944
 7671SOL    HW124852   8.253  13.384  13.914
 7671SOL    HW224853   8.157  13.493  13.870
 7672SOL     OW24854   2.561   7.562   4.749
 7672SOL    HW124855   2.513   7.577   4.830
 7672SOL    HW224856   2.613   7.641   4.736
 7673SOL     OW24857   3.958  14.579   4.708
 7673SOL    HW124858   4.037  14.632   4.714
 7673SOL    HW224859   3.914  14.592   4.792
 7674SOL     OW24860   1.259   5.546   0.870
 7674SOL    HW124861   1.306   5.514   0.793
 7674SOL    HW224862   1.172   5.570   0.837
 7675SOL     OW24863   3.549   7.489   4.460
 7675SOL    HW124864   3.507   7.447   4.386
 7675SOL    HW224865   3.627   7.436   4.477
 7676SOL     OW24866   2.629  14.859   8.913
 7676SOL    HW124867   2.581  14.803   8.851
 7676SOL    HW224868   2.664   0.050   8.859
 7677SOL     OW24869  11.244  12.220  13.388
 7677SOL    HW124870  11.226  12.228  13.294
 7677SOL    HW224871  11.271  12.308  13.415
 7678SOL     OW24872   4.970   4.574  13.646
 7678SOL    HW124873   4.940   4.664  13.631
 7678SOL    HW224874   4.892   4.521  13.635
 7679SOL     OW24875   1.605   6.673  11.505
 7679SOL    HW124876   1.642   6.722  11.579
 7679SOL    HW224877   1.522   6.638  11.539
 7680SOL     OW24878   1.234   2.693   9.562
 7680SOL    HW124879   1.208   2.779   9.594
 7680SOL    HW224880   1.152   2.654   9.531
 7681SOL     OW24881   1.467   8.510   8.000
 7681SOL    HW124882   1.403   8.482   7.934
 7681SOL    HW224883   1.540   8.448   7.989
 7682SOL     OW24884  10.905  14.498  13.999
 7682SOL    HW124885  10.945  14.542  13.924
 7682SOL    HW224886  10.825  14.548  14.016
 7683SOL     OW24887   8.665   1.415   0.872
 7683SOL    HW124888   8.685   1.339   0.927
 7683SOL    HW224889   8.609   1.380   0.803
 7684SOL     OW24890   4.707  12.172   1.288
 7684SOL    HW124891   4.791  12.135   1.259
 7684SOL    HW224892   4.732  12.238   1.353
 7685SOL     OW24893   0.320   9.649  10.756
 7685SOL    HW124894   0.231   9.615  10.768
 7685SOL    HW224895   0.375   9.571  10.759
 7686SOL     OW24896   6.664   4.867   0.488
 7686SOL    HW124897   6.758   4.855   0.499
 7686SOL    HW224898   6.656   4.925   0.412
 7687SOL     OW24899  12.763   8.589  11.296
 7687SOL    HW124900  12.823   8.652  11.257
 7687SOL    HW224901  12.812   8.507  11.299
 7688SOL     OW24902   8.499   9.995  13.192
 7688SOL    HW124903   8.523  10.031  13.106
 7688SOL    HW224904   8.442  10.062  13.230
 7689SOL     OW24905  10.502  11.596   6.511
 7689SOL    HW124906  10.587  11.636   6.533
 7689SOL    HW224907  10.525  11.512   6.472
 7690SOL     OW24908   4.889   1.917   7.655
 7690SOL    HW124909   4.954   1.892   7.721
 7690SOL    HW224910   4.855   1.834   7.623
 7691SOL     OW24911   4.322   9.459   9.152
 7691SOL    HW124912   4.247   9.464   9.092
 7691SOL    HW224913   4.381   9.528   9.123
 7692SOL     OW24914   7.440   4.672   9.551
 7692SOL    HW124915   7.474   4.648   9.637
 7692SOL    HW224916   7.415   4.764   9.560
 7693SOL     OW24917   4.390   2.863   5.990
 7693SOL    HW124918   4.335   2.795   5.951
 7693SOL    HW224919   4.458   2.878   5.925
 7694SOL     OW24920  13.651   4.505   6.514
 7694SOL    HW124921  13.726   4.480   6.568
 7694SOL    HW224922  13.598   4.425   6.509
 7695SOL     OW24923   8.780   5.156   2.178
 7695SOL    HW124924   8.787   5.248   2.150
 7695SOL    HW224925   8.720   5.116   2.116
 7696SOL     OW24926  12.375  10.548   6.505
 7696SOL    HW124927  12.307  10.532   6.439
 7696SOL    HW224928  12.335  10.610   6.565
 7697SOL     OW24929  14.805   5.385  10.163
 7697SOL    HW124930   0.014   5.388  10.129
 7697SOL    HW224931  14.749   5.393  10.085
 7698SOL     OW24932  11.524   7.711  11.923
 7698SOL    HW124933  11.575   7.639  11.962
 7698SOL    HW224934  11.553   7.789  11.970
 7699SOL     OW24935   9.776   1.455   5.876
 7699SOL    HW124936   9.704   1.516   5.895
 7699SOL    HW224937   9.751   1.375   5.921
 7700SOL     OW24938   9.729  10.406   7.560
 7700SOL    HW124939   9.688  10.333   7.607
 7700SOL    HW224940   9.822  10.385   7.562
 7701SOL     OW24941  13.851  11.676   0.869
 7701SOL    HW124942  13.786  11.636   0.811
 7701SOL    HW224943  13.799  11.712   0.941
 7702SOL     OW24944   4.195  12.569  11.891
 7702SOL    HW124945   4.214  12.634  11.823
 7702SOL    HW224946   4.175  12.621  11.969
 7703SOL     OW24947  12.307   1.548   5.494
 7703SOL    HW124948  12.379   1.561   5.556
 7703SOL    HW224949  12.336   1.477   5.437
 7704SOL     OW24950  14.759   2.565   7.347
 7704SOL    HW124951  14.717   2.480   7.356
 7704SOL    HW224952  14.834   2.550   7.289
 7705SOL     OW24953  10.286   1.846  13.093
 7705SOL    HW124954  10.278   1.815  13.003
 7705SOL    HW224955  10.367   1.808  13.125
 7706SOL     OW24956  10.476  12.949   6.738
 7706SOL    HW124957  10.423  12.872   6.757
 7706SOL    HW224958  10.523  12.927   6.657
 7707SOL     OW24959  11.383   5.200  12.019
 7707SOL    HW124960  11.318   5.131  12.029
 7707SOL    HW224961  11.388   5.240  12.106
 7708SOL     OW24962   4.393   1.636   0.430
 7708SOL    HW124963   4.432   1.656   0.345
 7708SOL    HW224964   4.462   1.589   0.477
 7709SOL     OW24965   5.358   8.723  10.394
 7709SOL    HW124966   5.402   8.732  10.310
 7709SOL    HW224967   5.417   8.764  10.457
 7710SOL     OW24968   5.945  14.057   9.190
 7710SOL    HW124969   5.915  14.073   9.101
 7710SOL    HW224970   6.024  14.110   9.199
 7711SOL     OW24971   7.595   6.550  10.444
 7711SOL    HW124972   7.653   6.487  10.487
 7711SOL    HW224973   7.511   6.505  10.438
 7712SOL     OW24974  13.499   0.805  12.706
 7712SOL    HW124975  13.437   0.871  12.675
 7712SOL    HW224976  13.461   0.773  12.788
 7713SOL     OW24977   1.279   2.457   5.767
 7713SOL    HW124978   1.231   2.534   5.737
 7713SOL    HW224979   1.367   2.468   5.731
 7714SOL     OW24980   3.669   3.510  10.055
 7714SOL    HW124981   3.680   3.582  10.117
 7714SOL    HW224982   3.575   3.489  10.059
 7715SOL     OW24983   1.839   7.864   8.918
 7715SOL    HW124984   1.791   7.946   8.932
 7715SOL    HW224985   1.773   7.803   8.885
 7716SOL     OW24986   6.218   8.098  13.118
 7716SOL    HW124987   6.246   8.189  13.130
 7716SOL    HW224988   6.220   8.085  13.024
 7717SOL     OW24989   5.132  10.669  13.903
 7717SOL    HW124990   5.092  10.680  13.817
 7717SOL    HW224991   5.161  10.756  13.928
 7718SOL     OW24992  13.593   4.020  10.389
 7718SOL    HW124993  13.671   3.992  10.341
 7718SOL    HW224994  13.585   3.957  10.460
 7719SOL     OW24995   1.813   1.076   6.391
 7719SOL    HW124996   1.793   1.087   6.298
 7719SOL    HW224997   1.792   1.161   6.430
 7720SOL     OW24998   7.325  11.612   4.771
 7720SOL    HW124999   7.419  11.611   4.755
 7720SOL    HW225000   7.313  11.677   4.840
 7721SOL     OW25001   6.113  10.852   6.356
 7721SOL    HW125002   6.126  10.870   6.449
 7721SOL    HW225003   6.039  10.791   6.353
 7722SOL     OW25004  12.822   6.931   1.439
 7722SOL    HW125005  12.760   6.859   1.448
 7722SOL    HW225006  12.862   6.940   1.525
 7723SOL     OW25007   4.712   6.654   6.578
 7723SOL    HW125008   4.759   6.593   6.522
 7723SOL    HW225009   4.728   6.740   6.539
 7724SOL     OW25010   9.877   9.643   2.688
 7724SOL    HW125011   9.878   9.549   2.706
 7724SOL    HW225012   9.886   9.683   2.774
 7725SOL     OW25013   1.956   1.035  12.994
 7725SOL    HW125014   2.049   1.017  13.007
 7725SOL    HW225015   1.918   1.030  13.082
 7726SOL     OW25016   4.589   4.467   4.278
 7726SOL    HW125017   4.560   4.473   4.369
 7726SOL    HW225018   4.684   4.467   4.282
 7727SOL     OW25019   6.083   6.960  14.800
 7727SOL    HW125020   6.012   6.905  14.834
 7727SOL    HW225021   6.130   6.904  14.739
 7728SOL     OW25022   0.700  14.100   7.369
 7728SOL    HW125023   0.688  14.180   7.419
 7728SOL    HW225024   0.630  14.042   7.399
 7729SOL     OW25025   5.539  11.905   1.021
 7729SOL    HW125026   5.472  11.875   0.959
 7729SOL    HW225027   5.515  11.865   1.104
 7730SOL     OW25028   0.132   8.199  12.261
 7730SOL    HW125029   0.063   8.133  12.257
 7730SOL    HW225030   0.212   8.149  12.277
 7731SOL     OW25031   7.593  12.508   0.982
 7731SOL    HW125032   7.544  12.588   0.966
 7731SOL    HW225033   7.606  12.470   0.895
 7732SOL     OW25034  10.574   6.495   2.962
 7732SOL    HW125035  10.602   6.521   3.049
 7732SOL    HW225036  10.514   6.564   2.934
 7733SOL     OW25037   2.689  12.904   2.043
 7733SOL    HW125038   2.784  12.917   2.049
 7733SOL    HW225039   2.678  12.850   1.965
 7734SOL     OW25040   5.705  11.304   9.360
 7734SOL    HW125041   5.799  11.288   9.353
 7734SOL    HW225042   5.676  11.313   9.269
 7735SOL     OW25043   9.130   8.939   2.089
 7735SOL    HW125044   9.137   9.024   2.046
 7735SOL    HW225045   9.180   8.880   2.033
 7736SOL     OW25046   0.987  12.693   9.892
 7736SOL    HW125047   0.935  12.704   9.972
 7736SOL    HW225048   1.061  12.639   9.918
 7737SOL     OW25049   4.802  12.914   6.232
 7737SOL    HW125050   4.883  12.864   6.244
 7737SOL    HW225051   4.764  12.919   6.319
 7738SOL     OW25052  12.998  12.185   5.764
 7738SOL    HW125053  13.028  12.274   5.747
 7738SOL    HW225054  13.073  12.129   5.741
 7739SOL     OW25055  11.486   5.849  11.690
 7739SOL    HW125056  11.398   5.887  11.697
 7739SOL    HW225057  11.527   5.867  11.775
 7740SOL     OW25058   7.183   7.689   8.931
 7740SOL    HW125059   7.194   7.784   8.941
 7740SOL    HW225060   7.120   7.665   9.000
 7741SOL     OW25061  12.781  12.727   3.483
 7741SOL    HW125062  12.768  12.632   3.487
 7741SOL    HW225063  12.697  12.763   3.511
 7742SOL     OW25064   5.923   0.143   0.734
 7742SOL    HW125065   5.964   0.214   0.784
 7742SOL    HW225066   5.964   0.063   0.768
 7743SOL     OW25067   8.476   2.742   4.525
 7743SOL    HW125068   8.466   2.835   4.504
 7743SOL    HW225069   8.537   2.739   4.598
 7744SOL     OW25070  11.011  10.992  14.875
 7744SOL    HW125071  11.053  11.018   0.077
 7744SOL    HW225072  11.076  10.937  14.831
 7745SOL     OW25073   3.481  11.429  11.456
 7745SOL    HW125074   3.387  11.414  11.458
 7745SOL    HW225075   3.511  11.403  11.544
 7746SOL     OW25076  13.977   5.488   3.845
 7746SOL    HW125077  13.913   5.435   3.893
 7746SOL    HW225078  13.980   5.571   3.893
 7747SOL     OW25079   7.019   9.249   0.334
 7747SOL    HW125080   6.937   9.218   0.297
 7747SOL    HW225081   7.027   9.340   0.303
 7748SOL     OW25082   1.672   7.552  11.783
 7748SOL    HW125083   1.578   7.562  11.801
 7748SOL    HW225084   1.701   7.640  11.761
 7749SOL     OW25085   0.162   8.314   1.763
 7749SOL    HW125086   0.198   8.290   1.848
 7749SOL    HW225087   0.214   8.264   1.700
 7750SOL     OW25088  10.913   5.693   5.664
 7750SOL    HW125089  10.980   5.744   5.618
 7750SOL    HW225090  10.956   5.663   5.744
 7751SOL     OW25091  14.692  10.378   6.870
 7751SOL    HW125092  14.710  10.414   6.783
 7751SOL    HW225093  14.696  10.454   6.928
 7752SOL     OW25094   6.532   8.116   3.500
 7752SOL    HW125095   6.459   8.173   3.475
 7752SOL    HW225096   6.493   8.029   3.508
 7753SOL     OW25097   1.834  14.028   2.180
 7753SOL    HW125098   1.877  14.099   2.226
 7753SOL    HW225099   1.875  14.027   2.093
 7754SOL     OW25100   3.173  14.510  14.746
 7754SOL    HW125101   3.120  14.450  14.798
 7754SOL    HW225102   3.111  14.551  14.685
 7755SOL     OW25103   8.867  11.577  14.071
 7755SOL    HW125104   8.898  11.614  13.988
 7755SOL    HW225105   8.860  11.653  14.129
 7756SOL     OW25106  14.138   8.666  10.415
 7756SOL    HW125107  14.094   8.587  10.448
 7756SOL    HW225108  14.226   8.661  10.452
 7757SOL     OW25109   9.019   8.686   0.411
 7757SOL    HW125110   8.981   8.618   0.467
 7757SOL    HW225111   9.016   8.766   0.464
 7758SOL     OW25112   6.513  10.264  10.991
 7758SOL    HW125113   6.544  10.262  11.081
 7758SOL    HW225114   6.511  10.357  10.968
 7759SOL     OW25115   7.222   6.672   7.304
 7759SOL    HW125116   7.309   6.652   7.271
 7759SOL    HW225117   7.183   6.729   7.238
 7760SOL     OW25118  10.083   9.144   1.051
 7760SOL    HW125119  10.002   9.094   1.046
 7760SOL    HW225120  10.131   9.106   1.124
 7761SOL     OW25121  12.506   3.913   7.506
 7761SOL    HW125122  12.464   3.898   7.591
 7761SOL    HW225123  12.503   3.828   7.462
 7762SOL     OW25124   6.339  11.055   7.025
 7762SOL    HW125125   6.398  11.033   7.098
 7762SOL    HW225126   6.252  11.027   7.055
 7763SOL     OW25127   0.152  14.773  11.394
 7763SOL    HW125128   0.071  14.732  11.423
 7763SOL    HW225129   0.164  14.847  11.453
 7764SOL     OW25130   6.516  11.156   3.534
 7764SOL    HW125131   6.475  11.240   3.557
 7764SOL    HW225132   6.579  11.140   3.603
 7765SOL     OW25133   2.209   7.188  10.035
 7765SOL    HW125134   2.130   7.153   9.993
 7765SOL    HW225135   2.178   7.266  10.082
 7766SOL     OW25136  13.673   1.276   3.384
 7766SOL    HW125137  13.633   1.358   3.413
 7766SOL    HW225138  13.698   1.293   3.293
 7767SOL     OW25139   5.345   9.661  13.297
 7767SOL    HW125140   5.406   9.686  13.228
 7767SOL    HW225141   5.281   9.732  13.300
 7768SOL     OW25142   1.044  14.410   4.289
 7768SOL    HW125143   1.047  14.321   4.325
 7768SOL    HW225144   0.982  14.456   4.346
 7769SOL     OW25145   2.959  12.899   2.109
 7769SOL    HW125146   3.017  12.929   2.039
 7769SOL    HW225147   2.942  12.976   2.162
 7770SOL     OW25148   3.772   2.662   8.893
 7770SOL    HW125149   3.738   2.653   8.982
 7770SOL    HW225150   3.825   2.741   8.895
 7771SOL     OW25151   1.334   4.047  11.571
 7771SOL    HW125152   1.322   4.077  11.481
 7771SOL    HW225153   1.321   4.125  11.625
 7772SOL     OW25154   2.430   2.736   1.079
 7772SOL    HW125155   2.434   2.641   1.070
 7772SOL    HW225156   2.360   2.751   1.143
 7773SOL     OW25157  13.652  13.644  11.511
 7773SOL    HW125158  13.735  13.606  11.539
 7773SOL    HW225159  13.586  13.591  11.556
 7774SOL     OW25160   7.566   3.137   9.427
 7774SOL    HW125161   7.575   3.232   9.424
 7774SOL    HW225162   7.627   3.110   9.495
 7775SOL     OW25163  10.937  10.979  11.919
 7775SOL    HW125164  10.903  10.924  11.989
 7775SOL    HW225165  11.018  10.937  11.892
 7776SOL     OW25166   4.322   9.338  10.746
 7776SOL    HW125167   4.307   9.366  10.655
 7776SOL    HW225168   4.374   9.409  10.784
 7777SOL     OW25169   0.977   2.967  11.184
 7777SOL    HW125170   1.066   2.974  11.150
 7777SOL    HW225171   0.921   2.971  11.106
 7778SOL     OW25172   7.334   3.470  11.145
 7778SOL    HW125173   7.353   3.562  11.163
 7778SOL    HW225174   7.410   3.439  11.095
 7779SOL     OW25175  11.742  13.408   7.541
 7779SOL    HW125176  11.672  13.345   7.522
 7779SOL    HW225177  11.772  13.385   7.629
 7780SOL     OW25178   5.225  10.684   7.315
 7780SOL    HW125179   5.266  10.606   7.278
 7780SOL    HW225180   5.297  10.733   7.354
 7781SOL     OW25181   2.263   1.623  13.580
 7781SOL    HW125182   2.274   1.711  13.545
 7781SOL    HW225183   2.171   1.602  13.564
 7782SOL     OW25184  12.198  13.130   8.574
 7782SOL    HW125185  12.158  13.213   8.601
 7782SOL    HW225186  12.292  13.146   8.582
 7783SOL     OW25187  11.712   5.908  10.666
 7783SOL    HW125188  11.727   5.999  10.691
 7783SOL    HW225189  11.777   5.891  10.598
 7784SOL     OW25190   3.810   8.958   2.177
 7784SOL    HW125191   3.780   8.996   2.094
 7784SOL    HW225192   3.901   8.933   2.160
 7785SOL     OW25193  14.230  13.345   7.009
 7785SOL    HW125194  14.287  13.299   6.947
 7785SOL    HW225195  14.221  13.285   7.083
 7786SOL     OW25196   9.461   8.697   4.270
 7786SOL    HW125197   9.450   8.760   4.341
 7786SOL    HW225198   9.431   8.614   4.307
 7787SOL     OW25199  11.255   3.566   4.518
 7787SOL    HW125200  11.285   3.614   4.441
 7787SOL    HW225201  11.166   3.540   4.497
 7788SOL     OW25202  10.993   6.644   7.511
 7788SOL    HW125203  10.980   6.566   7.458
 7788SOL    HW225204  10.917   6.647   7.569
 7789SOL     OW25205   4.377   8.378   7.150
 7789SOL    HW125206   4.391   8.394   7.243
 7789SOL    HW225207   4.452   8.325   7.124
 7790SOL     OW25208  11.338  14.600   0.298
 7790SOL    HW125209  11.336  14.669   0.231
 7790SOL    HW225210  11.410  14.543   0.271
 7791SOL     OW25211   5.774   7.787   7.753
 7791SOL    HW125212   5.851   7.817   7.801
 7791SOL    HW225213   5.760   7.698   7.785
 7792SOL     OW25214   9.295   1.763  13.993
 7792SOL    HW125215   9.308   1.723  14.079
 7792SOL    HW225216   9.244   1.842  14.011
 7793SOL     OW25217   4.497   0.115  11.020
 7793SOL    HW125218   4.548   0.082  10.946
 7793SOL    HW225219   4.411   0.074  11.010
 7794SOL     OW25220  10.675  11.772   9.801
 7794SOL    HW125221  10.651  11.680   9.802
 7794SOL    HW225222  10.594  11.818   9.779
 7795SOL     OW25223   2.040   0.209  13.886
 7795SOL    HW125224   2.016   0.155  13.961
 7795SOL    HW225225   1.999   0.293  13.903
 7796SOL     OW25226   6.895   1.301  12.749
 7796SOL    HW125227   6.847   1.306  12.667
 7796SOL    HW225228   6.952   1.225  12.739
 7797SOL     OW25229  10.669   1.508   1.762
 7797SOL    HW125230  10.758   1.487   1.790
 7797SOL    HW225231  10.635   1.565   1.830
 7798SOL     OW25232   5.083   0.216   3.656
 7798SOL    HW125233   5.149   0.157   3.620
 7798SOL    HW225234   5.123   0.302   3.652
 7799SOL     OW25235  13.526   2.588   7.858
 7799SOL    HW125236  13.514   2.637   7.776
 7799SOL    HW225237  13.567   2.506   7.830
 7800SOL     OW25238   3.776   3.435   0.736
 7800SOL    HW125239   3.741   3.369   0.676
 7800SOL    HW225240   3.753   3.403   0.823
 7801SOL     OW25241  10.892   1.013  10.617
 7801SOL    HW125242  10.873   0.946  10.551
 7801SOL    HW225243  10.941   0.967  10.685
 7802SOL     OW25244  13.697  14.220   7.734
 7802SOL    HW125245  13.701  14.126   7.755
 7802SOL    HW225246  13.704  14.264   7.819
 7803SOL     OW25247  14.089   2.330   2.803
 7803SOL    HW125248  14.146   2.257   2.827
 7803SOL    HW225249  14.143   2.383   2.744
 7804SOL     OW25250  12.740   3.612   8.241
 7804SOL    HW125251  12.672   3.677   8.221
 7804SOL    HW225252  12.693   3.531   8.256
 7805SOL     OW25253   5.625   5.816   2.198
 7805SOL    HW125254   5.651   5.894   2.150
 7805SOL    HW225255   5.695   5.753   2.182
 7806SOL     OW25256   3.131   5.788   7.932
 7806SOL    HW125257   3.137   5.693   7.939
 7806SOL    HW225258   3.202   5.820   7.988
 7807SOL     OW25259   3.470   1.485   5.219
 7807SOL    HW125260   3.496   1.557   5.162
 7807SOL    HW225261   3.484   1.406   5.166
 7808SOL     OW25262   8.713   6.238   4.159
 7808SOL    HW125263   8.713   6.316   4.215
 7808SOL    HW225264   8.805   6.214   4.152
 7809SOL     OW25265   4.012  11.693  12.648
 7809SOL    HW125266   4.079  11.712  12.713
 7809SOL    HW225267   4.050  11.623  12.595
 7810SOL     OW25268   5.399  11.835   2.485
 7810SOL    HW125269   5.399  11.739   2.483
 7810SOL    HW225270   5.421  11.856   2.576
 7811SOL     OW25271   4.436  10.322   0.549
 7811SOL    HW125272   4.471  10.411   0.555
 7811SOL    HW225273   4.501  10.273   0.499
 7812SOL     OW25274  13.786  13.941   4.549
 7812SOL    HW125275  13.765  13.944   4.456
 7812SOL    HW225276  13.875  13.977   4.555
 7813SOL     OW25277  12.330   7.895   1.417
 7813SOL    HW125278  12.385   7.949   1.361
 7813SOL    HW225279  12.243   7.935   1.410
 7814SOL     OW25280   1.987   7.220   5.856
 7814SOL    HW125281   1.935   7.178   5.925
 7814SOL    HW225282   2.067   7.168   5.853
 7815SOL     OW25283   4.316   2.239   8.039
 7815SOL    HW125284   4.319   2.154   8.084
 7815SOL    HW225285   4.269   2.220   7.958
 7816SOL     OW25286   9.137   1.513  11.140
 7816SOL    HW125287   9.138   1.516  11.045
 7816SOL    HW225288   9.181   1.593  11.168
 7817SOL     OW25289   3.743   2.647   8.051
 7817SOL    HW125290   3.802   2.710   8.093
 7817SOL    HW225291   3.655   2.684   8.064
 7818SOL     OW25292  12.653   2.637  11.046
 7818SOL    HW125293  12.607   2.719  11.063
 7818SOL    HW225294  12.692   2.613  11.131
 7819SOL     OW25295  13.205   9.796   9.746
 7819SOL    HW125296  13.275   9.859   9.759
 7819SOL    HW225297  13.185   9.763   9.834
 7820SOL     OW25298   3.570   9.246   0.566
 7820SOL    HW125299   3.648   9.203   0.531
 7820SOL    HW225300   3.569   9.332   0.523
 7821SOL     OW25301  13.075  14.326   7.123
 7821SOL    HW125302  13.102  14.324   7.215
 7821SOL    HW225303  13.156  14.320   7.073
 7822SOL     OW25304   5.400   4.655   4.858
 7822SOL    HW125305   5.489   4.649   4.893
 7822SOL    HW225306   5.347   4.690   4.930
 7823SOL     OW25307   4.287   5.527   7.672
 7823SOL    HW125308   4.335   5.598   7.631
 7823SOL    HW225309   4.225   5.497   7.604
 7824SOL     OW25310   1.903  12.354   7.060
 7824SOL    HW125311   1.833  12.411   7.029
 7824SOL    HW225312   1.915  12.290   6.990
 7825SOL     OW25313   2.520   3.839   2.929
 7825SOL    HW125314   2.466   3.916   2.948
 7825SOL    HW225315   2.582   3.869   2.862
 7826SOL     OW25316  11.968   4.983  10.743
 7826SOL    HW125317  12.023   5.062  10.739
 7826SOL    HW225318  12.006   4.931  10.814
 7827SOL     OW25319   1.692  10.330  10.614
 7827SOL    HW125320   1.699  10.417  10.574
 7827SOL    HW225321   1.783  10.300  10.619
 7828SOL     OW25322   1.369   1.275   4.508
 7828SOL    HW125323   1.290   1.326   4.492
 7828SOL    HW225324   1.435   1.313   4.449
 7829SOL     OW25325  14.089  14.574   1.829
 7829SOL    HW125326  13.998  14.573   1.857
 7829SOL    HW225327  14.118  14.664   1.844
 7830SOL     OW25328  13.042   2.776  14.315
 7830SOL    HW125329  13.038   2.847  14.379
 7830SOL    HW225330  13.123   2.791  14.266
 7831SOL     OW25331   0.981  12.645   3.427
 7831SOL    HW125332   1.041  12.578   3.460
 7831SOL    HW225333   0.978  12.629   3.333
 7832SOL     OW25334   3.759   5.669  11.034
 7832SOL    HW125335   3.706   5.628  11.102
 7832SOL    HW225336   3.759   5.605  10.962
 7833SOL     OW25337  11.042   9.241   4.133
 7833SOL    HW125338  11.086   9.177   4.078
 7833SOL    HW225339  11.005   9.305   4.072
 7834SOL     OW25340   6.081   9.585   4.873
 7834SOL    HW125341   6.107   9.493   4.876
 7834SOL    HW225342   5.993   9.587   4.910
 7835SOL     OW25343  11.461   2.477  13.708
 7835SOL    HW125344  11.385   2.530  13.684
 7835SOL    HW225345  11.530   2.541  13.727
 7836SOL     OW25346   9.973   3.585   3.854
 7836SOL    HW125347  10.055   3.582   3.903
 7836SOL    HW225348   9.912   3.632   3.912
 7837SOL     OW25349   6.285   3.832   3.767
 7837SOL    HW125350   6.263   3.751   3.720
 7837SOL    HW225351   6.231   3.899   3.725
 7838SOL     OW25352   0.371   1.890  11.495
 7838SOL    HW125353   0.377   1.924  11.405
 7838SOL    HW225354   0.341   1.964  11.547
 7839SOL     OW25355   8.876   0.517  11.726
 7839SOL    HW125356   8.923   0.596  11.700
 7839SOL    HW225357   8.803   0.549  11.780
 7840SOL     OW25358   1.628   4.512   3.262
 7840SOL    HW125359   1.660   4.478   3.346
 7840SOL    HW225360   1.672   4.596   3.252
 7841SOL     OW25361   5.101   0.987   5.464
 7841SOL    HW125362   5.031   1.049   5.443
 7841SOL    HW225363   5.148   0.975   5.382
 7842SOL     OW25364   7.442  10.669   1.630
 7842SOL    HW125365   7.529  10.636   1.652
 7842SOL    HW225366   7.388  10.648   1.705
 7843SOL     OW25367   6.462  14.708  10.909
 7843SOL    HW125368   6.496  14.675  10.826
 7843SOL    HW225369   6.530  14.767  10.941
 7844SOL     OW25370  14.660   4.879   4.885
 7844SOL    HW125371  14.664   4.786   4.906
 7844SOL    HW225372  14.679   4.923   4.968
 7845SOL     OW25373  14.843  10.442   0.790
 7845SOL    HW125374  14.872  10.520   0.742
 7845SOL    HW225375  14.747  10.448   0.789
 7846SOL     OW25376   6.476   5.884   3.618
 7846SOL    HW125377   6.442   5.972   3.633
 7846SOL    HW225378   6.559   5.897   3.573
 7847SOL     OW25379   7.660   5.716  13.639
 7847SOL    HW125380   7.742   5.764  13.634
 7847SOL    HW225381   7.613   5.739  13.559
 7848SOL     OW25382  11.437  12.689  12.930
 7848SOL    HW125383  11.372  12.632  12.891
 7848SOL    HW225384  11.389  12.739  12.996
 7849SOL     OW25385   3.934  10.709   3.628
 7849SOL    HW125386   4.024  10.741   3.640
 7849SOL    HW225387   3.924  10.699   3.534
 7850SOL     OW25388   8.491   0.055   2.653
 7850SOL    HW125389   8.558   0.031   2.716
 7850SOL    HW225390   8.412   0.011   2.683
 7851SOL     OW25391   2.796   7.659   3.082
 7851SOL    HW125392   2.776   7.692   2.994
 7851SOL    HW225393   2.738   7.709   3.139
 7852SOL     OW25394   7.073   8.003  12.311
 7852SOL    HW125395   7.155   7.991  12.264
 7852SOL    HW225396   7.016   8.050  12.249
 7853SOL     OW25397  10.849  13.265   1.940
 7853SOL    HW125398  10.858  13.343   1.886
 7853SOL    HW225399  10.775  13.218   1.902
 7854SOL     OW25400  10.616   6.768   5.943
 7854SOL    HW125401  10.655   6.712   6.011
 7854SOL    HW225402  10.609   6.710   5.867
 7855SOL     OW25403  13.364   6.620   5.384
 7855SOL    HW125404  13.293   6.684   5.385
 7855SOL    HW225405  13.438   6.667   5.345
 7856SOL     OW25406   6.400   8.470   5.874
 7856SOL    HW125407   6.453   8.515   5.808
 7856SOL    HW225408   6.390   8.381   5.840
 7857SOL     OW25409  10.725  11.349  13.245
 7857SOL    HW125410  10.809  11.390  13.224
 7857SOL    HW225411  10.745  11.292  13.319
 7858SOL     OW25412   0.309  11.234   2.136
 7858SOL    HW125413   0.372  11.188   2.081
 7858SOL    HW225414   0.339  11.325   2.135
 7859SOL     OW25415   0.991   4.673   2.306
 7859SOL    HW125416   1.011   4.764   2.328
 7859SOL    HW225417   0.996   4.626   2.389
 7860SOL     OW25418   8.577   1.020   1.844
 7860SOL    HW125419   8.658   1.044   1.797
 7860SOL    HW225420   8.608   0.980   1.925
 7861SOL     OW25421   3.074   3.673   5.719
 7861SOL    HW125422   3.117   3.659   5.804
 7861SOL    HW225423   3.133   3.732   5.672
 7862SOL     OW25424  13.500   8.790   8.980
 7862SOL    HW125425  13.484   8.743   9.062
 7862SOL    HW225426  13.568   8.854   9.001
 7863SOL     OW25427   8.104  11.974  13.817
 7863SOL    HW125428   8.187  11.980  13.864
 7863SOL    HW225429   8.042  11.940  13.882
 7864SOL     OW25430   6.993   9.926  11.931
 7864SOL    HW125431   7.087   9.913  11.943
 7864SOL    HW225432   6.985  10.013  11.891
 7865SOL     OW25433   9.914   8.926  11.824
 7865SOL    HW125434   9.969   8.997  11.791
 7865SOL    HW225435   9.825   8.957  11.811
 7866SOL     OW25436   7.177   6.639   3.882
 7866SOL    HW125437   7.120   6.716   3.875
 7866SOL    HW225438   7.153   6.598   3.965
 7867SOL     OW25439   3.669   6.856  13.644
 7867SOL    HW125440   3.635   6.872  13.732
 7867SOL    HW225441   3.651   6.937  13.596
 7868SOL     OW25442   1.489   6.673  12.654
 7868SOL    HW125443   1.549   6.634  12.591
 7868SOL    HW225444   1.545   6.706  12.724
 7869SOL     OW25445  10.036   2.908  13.443
 7869SOL    HW125446  10.120   2.954  13.434
 7869SOL    HW225447  10.051   2.843  13.512
 7870SOL     OW25448   0.353   6.451   4.121
 7870SOL    HW125449   0.274   6.406   4.149
 7870SOL    HW225450   0.364   6.425   4.030
 7871SOL     OW25451   8.024   0.008   7.208
 7871SOL    HW125452   8.101   0.032   7.260
 7871SOL    HW225453   7.950   0.040   7.259
 7872SOL     OW25454   9.535   8.053  13.222
 7872SOL    HW125455   9.443   8.055  13.195
 7872SOL    HW225456   9.569   8.139  13.198
 7873SOL     OW25457   9.557  10.529  13.209
 7873SOL    HW125458   9.506  10.528  13.128
 7873SOL    HW225459   9.492  10.524  13.278
 7874SOL     OW25460   0.369  10.191  12.160
 7874SOL    HW125461   0.344  10.192  12.067
 7874SOL    HW225462   0.463  10.212  12.160
 7875SOL     OW25463   8.015   8.516   5.136
 7875SOL    HW125464   8.010   8.545   5.227
 7875SOL    HW225465   7.949   8.568   5.091
 7876SOL     OW25466   8.271   9.712   5.531
 7876SOL    HW125467   8.322   9.758   5.598
 7876SOL    HW225468   8.232   9.782   5.479
 7877SOL     OW25469   1.735  10.900  11.886
 7877SOL    HW125470   1.821  10.942  11.889
 7877SOL    HW225471   1.706  10.897  11.978
 7878SOL     OW25472   1.130   7.642   8.090
 7878SOL    HW125473   1.109   7.734   8.073
 7878SOL    HW225474   1.206   7.624   8.035
 7879SOL     OW25475   5.541   5.605   0.064
 7879SOL    HW125476   5.465   5.604   0.007
 7879SOL    HW225477   5.602   5.543   0.023
 7880SOL     OW25478   2.613   6.841   1.115
 7880SOL    HW125479   2.683   6.801   1.063
 7880SOL    HW225480   2.658   6.909   1.166
 7881SOL     OW25481   4.556   3.077   8.928
 7881SOL    HW125482   4.611   3.155   8.930
 7881SOL    HW225483   4.613   3.008   8.962
 7882SOL     OW25484   6.917  10.340  14.740
 7882SOL    HW125485   6.986  10.383  14.690
 7882SOL    HW225486   6.857  10.411  14.765
 7883SOL     OW25487   2.222   0.495  11.730
 7883SOL    HW125488   2.158   0.451  11.786
 7883SOL    HW225489   2.192   0.476  11.641
 7884SOL     OW25490   1.338  14.421   0.379
 7884SOL    HW125491   1.281  14.346   0.398
 7884SOL    HW225492   1.426  14.391   0.399
 7885SOL     OW25493  12.707   6.208  10.253
 7885SOL    HW125494  12.627   6.225  10.203
 7885SOL    HW225495  12.776   6.200  10.187
 7886SOL     OW25496  14.585   5.678   1.523
 7886SOL    HW125497  14.641   5.604   1.498
 7886SOL    HW225498  14.540   5.702   1.442
 7887SOL     OW25499   2.337   1.232   0.848
 7887SOL    HW125500   2.283   1.278   0.912
 7887SOL    HW225501   2.406   1.294   0.825
 7888SOL     OW25502  10.997   1.219   2.262
 7888SOL    HW125503  11.048   1.253   2.189
 7888SOL    HW225504  11.021   1.274   2.337
 7889SOL     OW25505   5.367   3.502   5.454
 7889SOL    HW125506   5.331   3.491   5.542
 7889SOL    HW225507   5.291   3.527   5.401
 7890SOL     OW25508  13.587   9.523  14.373
 7890SOL    HW125509  13.553   9.472  14.447
 7890SOL    HW225510  13.682   9.520  14.383
 7891SOL     OW25511  13.430   5.828  11.110
 7891SOL    HW125512  13.377   5.795  11.183
 7891SOL    HW225513  13.454   5.917  11.135
 7892SOL     OW25514  12.365  10.727   2.099
 7892SOL    HW125515  12.275  10.746   2.125
 7892SOL    HW225516  12.377  10.634   2.118
 7893SOL     OW25517   7.708   0.935   0.090
 7893SOL    HW125518   7.626   0.889   0.072
 7893SOL    HW225519   7.685   1.028   0.093
 7894SOL     OW25520   1.218  13.360   6.831
 7894SOL    HW125521   1.135  13.319   6.853
 7894SOL    HW225522   1.272  13.348   6.910
 7895SOL     OW25523   2.458   9.645  14.122
 7895SOL    HW125524   2.490   9.733  14.105
 7895SOL    HW225525   2.429   9.613  14.036
 7896SOL     OW25526   9.352   1.411   2.538
 7896SOL    HW125527   9.314   1.478   2.595
 7896SOL    HW225528   9.309   1.424   2.454
 7897SOL     OW25529   7.383   8.440   0.580
 7897SOL    HW125530   7.358   8.532   0.589
 7897SOL    HW225531   7.440   8.423   0.655
 7898SOL     OW25532   4.195   3.928   3.647
 7898SOL    HW125533   4.166   3.999   3.704
 7898SOL    HW225534   4.125   3.862   3.654
 7899SOL     OW25535   2.031  12.896  11.256
 7899SOL    HW125536   2.004  12.935  11.339
 7899SOL    HW225537   2.121  12.925  11.244
 7900SOL     OW25538   5.417  11.975   4.373
 7900SOL    HW125539   5.394  12.051   4.320
 7900SOL    HW225540   5.451  11.911   4.311
 7901SOL     OW25541   2.774  10.449   8.227
 7901SOL    HW125542   2.840  10.483   8.287
 7901SOL    HW225543   2.779  10.507   8.151
 7902SOL     OW25544   2.530  13.487  11.078
 7902SOL    HW125545   2.454  13.472  11.023
 7902SOL    HW225546   2.515  13.574  11.117
 7903SOL     OW25547  10.825   0.823   8.031
 7903SOL    HW125548  10.795   0.886   8.096
 7903SOL    HW225549  10.756   0.757   8.027
 7904SOL     OW25550  11.485  14.221   1.013
 7904SOL    HW125551  11.444  14.173   1.084
 7904SOL    HW225552  11.413  14.241   0.953
 7905SOL     OW25553   2.255   2.104   9.643
 7905SOL    HW125554   2.228   2.196   9.644
 7905SOL    HW225555   2.350   2.106   9.639
 7906SOL     OW25556  14.699  12.634   8.443
 7906SOL    HW125557  14.696  12.596   8.355
 7906SOL    HW225558  14.777  12.595   8.483
 7907SOL     OW25559   1.662   7.930  12.148
 7907SOL    HW125560   1.663   7.996  12.079
 7907SOL    HW225561   1.734   7.871  12.126
 7908SOL     OW25562   2.561   0.031   4.885
 7908SOL    HW125563   2.482   0.039   4.832
 7908SOL    HW225564   2.529   0.009   4.972
 7909SOL     OW25565   6.382   2.889   4.894
 7909SOL    HW125566   6.381   2.861   4.985
 7909SOL    HW225567   6.325   2.965   4.891
 7910SOL     OW25568  13.119  11.211   5.322
 7910SOL    HW125569  13.087  11.265   5.249
 7910SOL    HW225570  13.183  11.267   5.367
 7911SOL     OW25571   6.047   5.819  13.955
 7911SOL    HW125572   6.129   5.815  13.905
 7911SOL    HW225573   6.056   5.753  14.023
 7912SOL     OW25574  12.316   2.337   9.464
 7912SOL    HW125575  12.273   2.336   9.379
 7912SOL    HW225576  12.245   2.348   9.527
 7913SOL     OW25577  13.665   1.281   3.108
 7913SOL    HW125578  13.686   1.188   3.110
 7913SOL    HW225579  13.749   1.324   3.091
 7914SOL     OW25580  12.463  13.982   3.972
 7914SOL    HW125581  12.475  14.070   3.936
 7914SOL    HW225582  12.392  13.991   4.035
 7915SOL     OW25583   2.490  13.689   0.373
 7915SOL    HW125584   2.447  13.745   0.308
 7915SOL    HW225585   2.418  13.656   0.427
 7916SOL     OW25586   9.062   1.115   8.199
 7916SOL    HW125587   9.124   1.072   8.141
 7916SOL    HW225588   8.996   1.048   8.218
 7917SOL     OW25589   3.571   6.657   5.154
 7917SOL    HW125590   3.606   6.571   5.130
 7917SOL    HW225591   3.504   6.638   5.219
 7918SOL     OW25592  12.680   8.974   3.214
 7918SOL    HW125593  12.686   9.061   3.253
 7918SOL    HW225594  12.768   8.956   3.181
 7919SOL     OW25595  10.964   1.245   7.591
 7919SOL    HW125596  11.003   1.205   7.513
 7919SOL    HW225597  11.036   1.249   7.654
 7920SOL     OW25598   0.774   3.032   2.198
 7920SOL    HW125599   0.681   3.019   2.213
 7920SOL    HW225600   0.800   3.099   2.262
 7921SOL     OW25601   6.146   4.710   0.511
 7921SOL    HW125602   6.084   4.682   0.444
 7921SOL    HW225603   6.114   4.670   0.592
 7922SOL     OW25604   6.448   2.746  14.369
 7922SOL    HW125605   6.390   2.756  14.445
 7922SOL    HW225606   6.394   2.773  14.294
 7923SOL     OW25607   6.197  12.642   5.674
 7923SOL    HW125608   6.102  12.649   5.675
 7923SOL    HW225609   6.225  12.674   5.760
 7924SOL     OW25610   0.638  12.027   0.252
 7924SOL    HW125611   0.550  12.060   0.232
 7924SOL    HW225612   0.624  11.965   0.324
 7925SOL     OW25613  11.457   5.926   0.229
 7925SOL    HW125614  11.395   5.862   0.196
 7925SOL    HW225615  11.474   5.900   0.319
 7926SOL     OW25616   4.455   7.125   9.940
 7926SOL    HW125617   4.514   7.125  10.015
 7926SOL    HW225618   4.368   7.133   9.978
 7927SOL     OW25619   1.796   7.091  10.152
 7927SOL    HW125620   1.722   7.081  10.212
 7927SOL    HW225621   1.798   7.184  10.130
 7928SOL     OW25622   9.260   5.209   6.586
 7928SOL    HW125623   9.301   5.278   6.535
 7928SOL    HW225624   9.179   5.189   6.539
 7929SOL     OW25625   7.741  11.465  14.221
 7929SOL    HW125626   7.742  11.372  14.198
 7929SOL    HW225627   7.833  11.492  14.219
 7930SOL     OW25628  12.398   0.858  12.067
 7930SOL    HW125629  12.421   0.945  12.031
 7930SOL    HW225630  12.436   0.796  12.004
 7931SOL     OW25631   6.552   7.289   6.365
 7931SOL    HW125632   6.612   7.319   6.296
 7931SOL    HW225633   6.516   7.207   6.331
 7932SOL     OW25634  11.076   7.195   4.594
 7932SOL    HW125635  10.988   7.222   4.619
 7932SOL    HW225636  11.119   7.174   4.677
 7933SOL     OW25637  11.884   0.472   0.991
 7933SOL    HW125638  11.875   0.562   1.023
 7933SOL    HW225639  11.802   0.429   1.017
 7934SOL     OW25640  12.938  13.987   6.933
 7934SOL    HW125641  12.965  14.025   6.850
 7934SOL    HW225642  12.897  13.904   6.910
 7935SOL     OW25643  10.914  11.862  13.582
 7935SOL    HW125644  10.966  11.942  13.575
 7935SOL    HW225645  10.962  11.807  13.644
 7936SOL     OW25646  14.103   3.687   4.846
 7936SOL    HW125647  14.071   3.738   4.771
 7936SOL    HW225648  14.090   3.596   4.820
 7937SOL     OW25649   7.463   6.609   2.812
 7937SOL    HW125650   7.398   6.620   2.882
 7937SOL    HW225651   7.546   6.597   2.858
 7938SOL     OW25652  10.625   4.613   6.700
 7938SOL    HW125653  10.596   4.703   6.682
 7938SOL    HW225654  10.654   4.616   6.792
 7939SOL     OW25655   8.908   6.917   4.703
 7939SOL    HW125656   8.825   6.960   4.726
 7939SOL    HW225657   8.970   6.947   4.770
 7940SOL     OW25658   5.202   9.224  13.172
 7940SOL    HW125659   5.285   9.215  13.219
 7940SOL    HW225660   5.194   9.317  13.153
 7941SOL     OW25661   7.388  14.140  13.285
 7941SOL    HW125662   7.320  14.073  13.293
 7941SOL    HW225663   7.340  14.222  13.278
 7942SOL     OW25664   9.626  13.935   0.946
 7942SOL    HW125665   9.612  14.029   0.932
 7942SOL    HW225666   9.702  13.914   0.891
 7943SOL     OW25667   0.354   8.296   7.676
 7943SOL    HW125668   0.383   8.213   7.637
 7943SOL    HW225669   0.276   8.272   7.727
 7944SOL     OW25670  10.298   9.596  13.395
 7944SOL    HW125671  10.224   9.655  13.384
 7944SOL    HW225672  10.268   9.530  13.458
 7945SOL     OW25673  12.752   9.417   7.657
 7945SOL    HW125674  12.729   9.456   7.741
 7945SOL    HW225675  12.847   9.422   7.653
 7946SOL     OW25676  10.233  11.853  12.335
 7946SOL    HW125677  10.324  11.829  12.318
 7946SOL    HW225678  10.228  11.862  12.431
 7947SOL     OW25679   0.465   6.600  14.806
 7947SOL    HW125680   0.521   6.676  14.789
 7947SOL    HW225681   0.521   6.525  14.787
 7948SOL     OW25682   0.364   0.190  13.423
 7948SOL    HW125683   0.355   0.286  13.423
 7948SOL    HW225684   0.276   0.159  13.404
 7949SOL     OW25685  13.056   5.131  14.058
 7949SOL    HW125686  13.126   5.065  14.053
 7949SOL    HW225687  12.975   5.081  14.043
 7950SOL     OW25688   9.575  10.642  11.311
 7950SOL    HW125689   9.562  10.699  11.387
 7950SOL    HW225690   9.668  10.617  11.316
 7951SOL     OW25691  10.253   2.301   6.153
 7951SOL    HW125692  10.293   2.215   6.165
 7951SOL    HW225693  10.304   2.342   6.083
 7952NA      NA25694   2.195   0.277   3.807
 7953NA      NA25695   6.089   2.886   8.996
 7954NA      NA25696  10.127   6.940   5.774
 7955NA      NA25697  10.673   6.105   5.737
 7956NA      NA25698   6.055   5.520   3.519
 7957NA      NA25699  10.226   5.250   5.946
 7958NA      NA25700  10.521   7.347   5.068
 7959NA      NA25701   7.865  11.377   8.735
 7960NA      NA25702  12.352  12.241  10.284
 7961NA      NA25703   6.117  11.229   9.116
 7962NA      NA25704   7.932   7.900   6.767
 7963NA      NA25705   7.116   9.330   8.676
 7964NA      NA25706   5.731   9.311   0.960
 7965NA      NA25707   8.857   7.750   7.411
 7966NA      NA25708   8.697   3.105   2.532
 7967NA      NA25709   8.872   9.783   9.355
 7968NA      NA25710  10.753  13.742   5.878
 7969NA      NA25711   7.670   3.899   7.047
 7970NA      NA25712   8.364   9.332   6.093
 7971NA      NA25713   8.493   8.706   8.210
 7972NA      NA25714   9.924   4.707   4.658
 7973NA      NA25715   6.485  11.001   6.815
 7974NA      NA25716   5.437  11.424   7.462
 7975NA      NA25717   9.282   5.496   5.841
 7976NA      NA25718  10.306   0.025  13.670
 7977NA      NA25719   0.763   4.216   0.858
 7978NA      NA25720   6.055  10.169   7.549
 7979NA      NA25721  11.411  10.135   4.004
 7980NA      NA25722   0.714   3.356   4.863
 7981NA      NA25723   1.537  10.521  11.282
 7982NA      NA25724   1.944   8.660  14.254
 7983NA      NA25725   8.360  10.177   7.136
 7984NA      NA25726   7.166   9.840   0.539
 7985NA      NA25727   1.347   7.476   4.592
 7986NA      NA25728  11.947   5.698   6.214
 7987NA      NA25729   5.351   7.213   6.970
 7988NA      NA25730   9.098   5.777   4.615
 7989NA      NA25731   6.940   8.024   7.406
 7990NA      NA25732   0.448  12.986   3.189
 7991NA      NA25733   7.454   9.784   8.175
 7992NA      NA25734   0.784  10.939  12.665
 7993NA      NA25735   6.133  10.491   5.728
 7994NA      NA25736   8.393   9.095   6.363
 7995NA      NA25737   9.229   3.470   6.506
 7996NA      NA25738  10.642   4.911   4.391
 7997NA      NA25739   8.153   1.074  10.194
 7998NA      NA25740   4.999   0.478   5.800
 7999NA      NA25741  11.588   4.649   5.101
 8000NA      NA25742   8.307   7.650   5.203
 8001NA      NA25743   8.730   4.664   4.620
 8002NA      NA25744   8.971  11.134   7.982
 8003NA      NA25745   9.463   7.114   4.564
 8004NA      NA25746   9.958   5.380   6.640
 8005NA      NA25747   3.943   8.420  12.125
 8006NA      NA25748   7.472   7.627   7.018
 8007NA      NA25749   4.474   0.055   9.151
 8008NA      NA25750   6.183  10.360   8.026
 8009NA      NA25751  11.279   1.238   8.216
 8010NA      NA25752  10.334   0.359   4.846
 8011NA      NA25753   8.853   6.581   6.787
 8012NA      NA25754   8.866   4.699   5.903
 8013NA      NA25755  13.179  13.989   9.000
  14.87969  14.87969  14.87969
